Protein in water t=   0.00000 step= 0
325731
    1DC5    H5T    1   4.116   9.936   2.866
    1DC5    O5'    2   4.130   9.901   2.780
    1DC5    C5'    3   4.263   9.913   2.748
    1DC5   H5'1    4   4.280  10.017   2.721
    1DC5   H5'2    5   4.296   9.840   2.671
    1DC5    C4'    6   4.335   9.872   2.877
    1DC5    H4'    7   4.437   9.892   2.861
    1DC5    O4'    8   4.291   9.961   2.976
    1DC5    C1'    9   4.307   9.892   3.099
    1DC5    H1'   10   4.409   9.866   3.117
    1DC5     N1   11   4.256   9.971   3.211
    1DC5     C6   12   4.131   9.949   3.272
    1DC5     H6   13   4.070   9.864   3.245
    1DC5     C5   14   4.093  10.029   3.378
    1DC5     H5   15   4.001  10.012   3.424
    1DC5     C4   16   4.184  10.135   3.421
    1DC5     N4   17   4.159  10.215   3.522
    1DC5    H41   18   4.231  10.287   3.544
    1DC5    H42   19   4.064  10.224   3.560
    1DC5     N3   20   4.297  10.163   3.351
    1DC5     C2   21   4.332  10.082   3.249
    1DC5     O2   22   4.432  10.119   3.193
    1DC5    C3'   23   4.313   9.732   2.932
    1DC5    H3'   24   4.257   9.673   2.867
    1DC5    C2'   25   4.231   9.765   3.055
    1DC5   H2'1   26   4.124   9.772   3.024
    1DC5   H2'2   27   4.234   9.689   3.131
    1DC5    O3'   28   4.420   9.657   2.978
    2DG       P   29   4.518   9.589   2.876
    2DG     O1P   30   4.527   9.667   2.751
    2DG     O2P   31   4.469   9.453   2.861
    2DG     O5'   32   4.666   9.587   2.936
    2DG     C5'   33   4.750   9.698   2.918
    2DG    H5'1   34   4.719   9.752   2.835
    2DG    H5'2   35   4.848   9.660   2.898
    2DG     C4'   36   4.763   9.788   3.041
    2DG     H4'   37   4.765   9.890   3.003
    2DG     O4'   38   4.662   9.767   3.135
    2DG     C1'   39   4.695   9.843   3.243
    2DG     H1'   40   4.693   9.944   3.219
    2DG      N9   41   4.600   9.825   3.354
    2DG      C8   42   4.497   9.740   3.359
    2DG      H8   43   4.488   9.657   3.285
    2DG      N7   44   4.404   9.766   3.448
    2DG      C5   45   4.457   9.884   3.512
    2DG      C6   46   4.414   9.971   3.619
    2DG      O6   47   4.306   9.973   3.682
    2DG      N1   48   4.509  10.067   3.650
    2DG      H1   49   4.487  10.133   3.721
    2DG      C2   50   4.624  10.085   3.584
    2DG      N2   51   4.692  10.188   3.617
    2DG     H21   52   4.666  10.256   3.689
    2DG     H22   53   4.768  10.212   3.558
    2DG      N3   54   4.661  10.020   3.476
    2DG      C4   55   4.578   9.917   3.451
    2DG     C3'   56   4.888   9.758   3.123
    2DG     H3'   57   4.907   9.650   3.121
    2DG     C2'   58   4.838   9.801   3.265
    2DG    H2'1   59   4.831   9.712   3.327
    2DG    H2'2   60   4.906   9.879   3.304
    2DG     O3'   61   4.998   9.846   3.095
    3DC       P   62   5.147   9.795   3.073
    3DC     O1P   63   5.229   9.902   3.011
    3DC     O2P   64   5.137   9.674   3.002
    3DC     O5'   65   5.191   9.771   3.228
    3DC     C5'   66   5.229   9.886   3.304
    3DC    H5'1   67   5.176   9.971   3.276
    3DC    H5'2   68   5.336   9.902   3.285
    3DC     C4'   69   5.226   9.886   3.457
    3DC     H4'   70   5.279   9.976   3.487
    3DC     O4'   71   5.091   9.883   3.497
    3DC     C1'   72   5.086   9.798   3.615
    3DC     H1'   73   5.125   9.846   3.706
    3DC      N1   74   4.945   9.767   3.654
    3DC      C6   75   4.890   9.641   3.627
    3DC      H6   76   4.958   9.572   3.581
    3DC      C5   77   4.764   9.616   3.646
    3DC      H5   78   4.719   9.523   3.617
    3DC      C4   79   4.685   9.711   3.720
    3DC      N4   80   4.559   9.689   3.743
    3DC     H41   81   4.500   9.759   3.794
    3DC     H42   82   4.519   9.603   3.717
    3DC      N3   83   4.737   9.830   3.760
    3DC      C2   84   4.866   9.857   3.730
    3DC      O2   85   4.925   9.954   3.778
    3DC     C3'   86   5.293   9.765   3.523
    3DC     H3'   87   5.357   9.702   3.457
    3DC     C2'   88   5.171   9.685   3.565
    3DC    H2'1   89   5.136   9.637   3.480
    3DC    H2'2   90   5.201   9.619   3.648
    3DC     O3'   91   5.368   9.800   3.638
    4DA       P   92   5.508   9.873   3.641
    4DA     O1P   93   5.512   9.972   3.534
    4DA     O2P   94   5.612   9.774   3.653
    4DA     O5'   95   5.497   9.946   3.780
    4DA     C5'   96   5.413  10.059   3.796
    4DA    H5'1   97   5.325  10.044   3.735
    4DA    H5'2   98   5.471  10.150   3.766
    4DA     C4'   99   5.353  10.088   3.938
    4DA     H4'  100   5.331  10.187   3.949
    4DA     O4'  101   5.227  10.021   3.958
    4DA     C1'  102   5.220   9.949   4.084
    4DA     H1'  103   5.177  10.006   4.169
    4DA      N9  104   5.139   9.829   4.051
    4DA      C8  105   5.174   9.730   3.967
    4DA      H8  106   5.275   9.713   3.924
    4DA      N7  107   5.076   9.641   3.953
    4DA      C5  108   4.973   9.694   4.029
    4DA      C6  109   4.837   9.655   4.056
    4DA      N6  110   4.774   9.542   4.022
    4DA     H61  111   4.682   9.517   4.062
    4DA     H62  112   4.819   9.481   3.951
    4DA      N1  113   4.766   9.730   4.142
    4DA      C2  114   4.821   9.836   4.196
    4DA      H2  115   4.755   9.893   4.266
    4DA      N3  116   4.940   9.888   4.164
    4DA      C4  117   5.009   9.812   4.079
    4DA     C3'  118   5.448  10.049   4.054
    4DA     H3'  119   5.539  10.021   4.008
    4DA     C2'  120   5.371   9.923   4.108
    4DA    H2'1  121   5.407   9.837   4.056
    4DA    H2'2  122   5.398   9.905   4.210
    4DA     O3'  123   5.464  10.158   4.150
    5DT       P  124   5.555  10.135   4.277
    5DT     O1P  125   5.597  10.273   4.319
    5DT     O2P  126   5.663  10.036   4.250
    5DT     O5'  127   5.459  10.076   4.391
    5DT     C5'  128   5.340  10.150   4.425
    5DT    H5'1  129   5.286  10.192   4.341
    5DT    H5'2  130   5.365  10.233   4.494
    5DT     C4'  131   5.243  10.066   4.501
    5DT     H4'  132   5.162  10.128   4.533
    5DT     O4'  133   5.192   9.959   4.421
    5DT     C1'  134   5.150   9.857   4.508
    5DT     H1'  135   5.070   9.886   4.576
    5DT      N1  136   5.117   9.726   4.443
    5DT      C6  137   5.216   9.656   4.375
    5DT      H6  138   5.317   9.692   4.371
    5DT      C5  139   5.182   9.542   4.306
    5DT      C7  140   5.285   9.467   4.220
    5DT     H71  141   5.306   9.370   4.259
    5DT     H72  142   5.231   9.446   4.121
    5DT     H73  143   5.371   9.521   4.189
    5DT      C4  144   5.040   9.491   4.314
    5DT      O4  145   4.995   9.393   4.254
    5DT      N3  146   4.958   9.558   4.400
    5DT      H3  147   4.858   9.528   4.398
    5DT      C2  148   4.993   9.676   4.464
    5DT      O2  149   4.901   9.735   4.517
    5DT     C3'  150   5.310   9.995   4.623
    5DT     H3'  151   5.414  10.028   4.635
    5DT     C2'  152   5.285   9.848   4.587
    5DT    H2'1  153   5.368   9.813   4.521
    5DT    H2'2  154   5.277   9.789   4.677
    5DT     O3'  155   5.228  10.042   4.724
    6DG       P  156   5.240  10.007   4.877
    6DG     O1P  157   5.218  10.132   4.954
    6DG     O2P  158   5.361   9.931   4.897
    6DG     O5'  159   5.108   9.914   4.897
    6DG     C5'  160   4.980   9.966   4.872
    6DG    H5'1  161   4.954   9.938   4.779
    6DG    H5'2  162   4.984  10.071   4.884
    6DG     C4'  163   4.863   9.911   4.964
    6DG     H4'  164   4.782   9.987   4.975
    6DG     O4'  165   4.807   9.794   4.910
    6DG     C1'  166   4.858   9.681   4.978
    6DG     H1'  167   4.786   9.616   5.032
    6DG      N9  168   4.925   9.591   4.881
    6DG      C8  169   5.052   9.595   4.825
    6DG      H8  170   5.129   9.677   4.839
    6DG      N7  171   5.072   9.495   4.740
    6DG      C5  172   4.946   9.428   4.734
    6DG      C6  173   4.903   9.318   4.652
    6DG      O6  174   4.967   9.246   4.577
    6DG      N1  175   4.771   9.286   4.674
    6DG      H1  176   4.737   9.208   4.621
    6DG      C2  177   4.693   9.341   4.772
    6DG      N2  178   4.573   9.289   4.796
    6DG     H21  179   4.530   9.225   4.728
    6DG     H22  180   4.513   9.324   4.867
    6DG      N3  181   4.731   9.439   4.850
    6DG      C4  182   4.856   9.484   4.821
    6DG     C3'  183   4.912   9.881   5.108
    6DG     H3'  184   4.998   9.932   5.140
    6DG     C2'  185   4.944   9.732   5.093
    6DG    H2'1  186   5.048   9.712   5.067
    6DG    H2'2  187   4.924   9.676   5.185
    6DG     O3'  188   4.804   9.917   5.204
    7DT       P  189   4.774   9.850   5.341
    7DT     O1P  190   4.670   9.924   5.401
    7DT     O2P  191   4.900   9.827   5.414
    7DT     O5'  192   4.709   9.707   5.300
    7DT     C5'  193   4.581   9.699   5.238
    7DT    H5'1  194   4.593   9.728   5.129
    7DT    H5'2  195   4.521   9.770   5.288
    7DT     C4'  196   4.523   9.553   5.241
    7DT     H4'  197   4.416   9.562   5.215
    7DT     O4'  198   4.594   9.476   5.149
    7DT     C1'  199   4.638   9.363   5.223
    7DT     H1'  200   4.559   9.287   5.221
    7DT      N1  201   4.757   9.306   5.156
    7DT      C6  202   4.881   9.368   5.167
    7DT      H6  203   4.896   9.454   5.236
    7DT      C5  204   4.993   9.314   5.106
    7DT      C7  205   5.127   9.378   5.132
    7DT     H71  206   5.124   9.462   5.202
    7DT     H72  207   5.194   9.301   5.159
    7DT     H73  208   5.161   9.416   5.033
    7DT      C4  209   4.983   9.193   5.025
    7DT      O4  210   5.072   9.141   4.964
    7DT      N3  211   4.853   9.150   5.006
    7DT      H3  212   4.853   9.074   4.944
    7DT      C2  213   4.744   9.192   5.081
    7DT      O2  214   4.634   9.143   5.061
    7DT     C3'  215   4.530   9.504   5.382
    7DT     H3'  216   4.553   9.590   5.445
    7DT     C2'  217   4.650   9.407   5.363
    7DT    H2'1  218   4.743   9.464   5.380
    7DT    H2'2  219   4.640   9.316   5.419
    7DT     O3'  220   4.412   9.441   5.430
    8DG       P  221   4.407   9.378   5.584
    8DG     O1P  222   4.270   9.373   5.638
    8DG     O2P  223   4.508   9.447   5.668
    8DG     O5'  224   4.464   9.235   5.560
    8DG     C5'  225   4.407   9.136   5.489
    8DG    H5'1  226   4.373   9.165   5.381
    8DG    H5'2  227   4.327   9.094   5.547
    8DG     C4'  228   4.495   9.011   5.472
    8DG     H4'  229   4.432   8.927   5.430
    8DG     O4'  230   4.601   9.040   5.385
    8DG     C1'  231   4.712   8.976   5.439
    8DG     H1'  232   4.697   8.865   5.418
    8DG      N9  233   4.843   9.022   5.386
    8DG      C8  234   4.930   9.112   5.441
    8DG      H8  235   4.901   9.176   5.523
    8DG      N7  236   5.047   9.117   5.394
    8DG      C5  237   5.042   9.010   5.294
    8DG      C6  238   5.146   8.953   5.214
    8DG      O6  239   5.263   8.985   5.192
    8DG      N1  240   5.104   8.844   5.144
    8DG      H1  241   5.172   8.803   5.086
    8DG      C2  242   4.976   8.795   5.148
    8DG      N2  243   4.944   8.694   5.073
    8DG     H21  244   5.004   8.672   4.996
    8DG     H22  245   4.850   8.656   5.073
    8DG      N3  246   4.871   8.845   5.216
    8DG      C4  247   4.916   8.955   5.290
    8DG     C3'  248   4.548   8.969   5.607
    8DG     H3'  249   4.516   9.023   5.699
    8DG     C2'  250   4.696   9.000   5.587
    8DG    H2'1  251   4.713   9.096   5.616
    8DG    H2'2  252   4.762   8.932   5.645
    8DG     O3'  253   4.530   8.834   5.639
    9DC       P  254   4.392   8.797   5.699
    9DC     O1P  255   4.278   8.871   5.640
    9DC     O2P  256   4.420   8.805   5.841
    9DC     O5'  257   4.375   8.644   5.671
    9DC     C5'  258   4.362   8.584   5.542
    9DC    H5'1  259   4.342   8.658   5.468
    9DC    H5'2  260   4.280   8.512   5.543
    9DC     C4'  261   4.489   8.512   5.497
    9DC     H4'  262   4.458   8.466   5.399
    9DC     O4'  263   4.594   8.599   5.479
    9DC     C1'  264   4.705   8.527   5.516
    9DC     H1'  265   4.724   8.439   5.446
    9DC      N1  266   4.830   8.616   5.532
    9DC      C6  267   4.851   8.695   5.639
    9DC      H6  268   4.777   8.706   5.718
    9DC      C5  269   4.967   8.762   5.658
    9DC      H5  270   4.976   8.834   5.733
    9DC      C4  271   5.067   8.749   5.562
    9DC      N4  272   5.176   8.820   5.567
    9DC     H41  273   5.248   8.789   5.503
    9DC     H42  274   5.197   8.877   5.650
    9DC      N3  275   5.055   8.669   5.456
    9DC      C2  276   4.933   8.605   5.438
    9DC      O2  277   4.923   8.534   5.334
    9DC     C3'  278   4.525   8.399   5.592
    9DC     H3'  279   4.441   8.382   5.668
    9DC     C2'  280   4.660   8.451   5.645
    9DC    H2'1  281   4.636   8.508   5.732
    9DC    H2'2  282   4.718   8.361   5.666
    9DC     O3'  283   4.549   8.275   5.526
   10DG       P  284   4.445   8.147   5.536
   10DG     O1P  285   4.325   8.171   5.449
   10DG     O2P  286   4.425   8.109   5.684
   10DG     O5'  287   4.524   8.020   5.464
   10DG     C5'  288   4.645   7.969   5.524
   10DG    H5'1  289   4.701   8.051   5.578
   10DG    H5'2  290   4.619   7.884   5.594
   10DG     C4'  291   4.742   7.903   5.425
   10DG     H4'  292   4.695   7.836   5.345
   10DG     O4'  293   4.808   8.013   5.364
   10DG     C1'  294   4.945   8.025   5.413
   10DG     H1'  295   5.008   8.002   5.322
   10DG      N9  296   4.985   8.161   5.458
   10DG      C8  297   4.902   8.237   5.538
   10DG      H8  298   4.798   8.222   5.538
   10DG      N7  299   4.970   8.325   5.610
   10DG      C5  300   5.100   8.313   5.566
   10DG      C6  301   5.214   8.389   5.611
   10DG      O6  302   5.212   8.479   5.696
   10DG      N1  303   5.329   8.349   5.543
   10DG      H1  304   5.406   8.406   5.569
   10DG      C2  305   5.338   8.239   5.471
   10DG      N2  306   5.453   8.216   5.418
   10DG     H21  307   5.526   8.288   5.432
   10DG     H22  308   5.463   8.138   5.364
   10DG      N3  309   5.227   8.164   5.424
   10DG      C4  310   5.110   8.217   5.472
   10DG     C3'  311   4.850   7.826   5.492
   10DG     H3'  312   4.814   7.791   5.589
   10DG     C2'  313   4.964   7.922   5.516
   10DG    H2'1  314   4.949   7.960   5.612
   10DG    H2'2  315   5.060   7.864   5.513
   10DG     O3'  316   4.892   7.729   5.405
   11DT       P  317   4.956   7.589   5.448
   11DT     O1P  318   4.930   7.494   5.344
   11DT     O2P  319   4.900   7.565   5.581
   11DT     O5'  320   5.104   7.639   5.458
   11DT     C5'  321   5.183   7.646   5.341
   11DT    H5'1  322   5.140   7.733   5.287
   11DT    H5'2  323   5.186   7.556   5.279
   11DT     C4'  324   5.328   7.671   5.372
   11DT     H4'  325   5.385   7.675   5.283
   11DT     O4'  326   5.337   7.802   5.428
   11DT     C1'  327   5.449   7.797   5.515
   11DT     H1'  328   5.546   7.813   5.458
   11DT      N1  329   5.431   7.898   5.619
   11DT      C6  330   5.308   7.887   5.693
   11DT      H6  331   5.234   7.824   5.651
   11DT      C5  332   5.265   7.991   5.773
   11DT      C7  333   5.131   7.982   5.842
   11DT     H71  334   5.085   8.085   5.855
   11DT     H72  335   5.056   7.926   5.781
   11DT     H73  336   5.138   7.942   5.940
   11DT      C4  337   5.356   8.097   5.808
   11DT      O4  338   5.331   8.194   5.882
   11DT      N3  339   5.479   8.097   5.753
   11DT      H3  340   5.542   8.169   5.776
   11DT      C2  341   5.519   7.995   5.663
   11DT      O2  342   5.633   7.997   5.628
   11DT     C3'  343   5.399   7.569   5.454
   11DT     H3'  344   5.323   7.492   5.493
   11DT     C2'  345   5.451   7.658   5.570
   11DT    H2'1  346   5.389   7.652   5.656
   11DT    H2'2  347   5.549   7.624   5.609
   11DT     O3'  348   5.494   7.495   5.385
   12DA       P  349   5.593   7.385   5.447
   12DA     O1P  350   5.649   7.317   5.331
   12DA     O2P  351   5.523   7.300   5.549
   12DA     O5'  352   5.707   7.471   5.514
   12DA     C5'  353   5.785   7.563   5.443
   12DA    H5'1  354   5.717   7.644   5.405
   12DA    H5'2  355   5.835   7.510   5.368
   12DA     C4'  356   5.890   7.614   5.535
   12DA     H4'  357   5.952   7.672   5.464
   12DA     O4'  358   5.846   7.706   5.632
   12DA     C1'  359   5.848   7.646   5.763
   12DA     H1'  360   5.928   7.696   5.816
   12DA      N9  361   5.726   7.661   5.840
   12DA      C8  362   5.610   7.579   5.856
   12DA      H8  363   5.592   7.483   5.816
   12DA      N7  364   5.516   7.638   5.930
   12DA      C5  365   5.576   7.761   5.964
   12DA      C6  366   5.529   7.878   6.033
   12DA      N6  367   5.408   7.894   6.076
   12DA     H61  368   5.385   7.985   6.116
   12DA     H62  369   5.340   7.823   6.057
   12DA      N1  370   5.609   7.980   6.063
   12DA      C2  371   5.731   7.972   6.024
   12DA      H2  372   5.790   8.059   6.048
   12DA      N3  373   5.790   7.876   5.950
   12DA      C4  374   5.706   7.768   5.926
   12DA     C3'  375   5.973   7.513   5.619
   12DA     H3'  376   5.979   7.416   5.567
   12DA     C2'  377   5.895   7.506   5.743
   12DA    H2'1  378   5.807   7.446   5.733
   12DA    H2'2  379   5.950   7.476   5.829
   12DA     O3'  380   6.103   7.565   5.629
   13DD       P  381   6.217   7.494   5.711
   13DD     O1P  382   6.347   7.521   5.645
   13DD     O2P  383   6.167   7.358   5.740
   13DD     O5'  384   6.217   7.586   5.844
   13DD     C5'  385   6.232   7.726   5.830
   13DD    H5'1  386   6.143   7.775   5.781
   13DD    H5'2  387   6.319   7.745   5.767
   13DD     C4'  388   6.245   7.805   5.961
   13DD     H4'  389   6.249   7.911   5.934
   13DD     O4'  390   6.121   7.781   6.032
   13DD     C1'  391   6.158   7.778   6.163
   13DD     H1'  392   6.177   7.882   6.190
   13DD      N1  393   6.038   7.737   6.236
   13DD      C6  394   6.020   7.605   6.299
   13DD      H6  395   6.093   7.536   6.255
   13DD      C5  396   5.882   7.538   6.290
   13DD      C7  397   5.879   7.427   6.176
   13DD     H71  398   5.963   7.360   6.191
   13DD     H72  399   5.792   7.373   6.184
   13DD     H73  400   5.882   7.465   6.070
   13DD      C4  401   5.772   7.647   6.262
   13DD      O4  402   5.653   7.623   6.265
   13DD      N3  403   5.815   7.779   6.263
   13DD      H3  404   5.742   7.847   6.280
   13DD      C2  405   5.943   7.825   6.265
   13DD      O2  406   5.969   7.946   6.280
   13DD     C3'  407   6.364   7.767   6.049
   13DD     H3'  408   6.429   7.693   6.000
   13DD     C2'  409   6.287   7.688   6.157
   13DD    H2'1  410   6.262   7.592   6.126
   13DD    H2'2  411   6.343   7.685   6.248
   13DD     O3'  412   6.431   7.887   6.084
   14DD       P  413   6.547   7.888   6.192
   14DD     O1P  414   6.636   7.998   6.165
   14DD     O2P  415   6.596   7.757   6.213
   14DD     O5'  416   6.448   7.920   6.313
   14DD     C5'  417   6.447   7.847   6.435
   14DD    H5'1  418   6.541   7.869   6.496
   14DD    H5'2  419   6.466   7.744   6.407
   14DD     C4'  420   6.321   7.858   6.521
   14DD     H4'  421   6.289   7.958   6.509
   14DD     O4'  422   6.217   7.769   6.473
   14DD     C1'  423   6.116   7.788   6.570
   14DD     H1'  424   6.094   7.896   6.580
   14DD      N1  425   5.998   7.705   6.544
   14DD      C6  426   6.021   7.589   6.455
   14DD      H6  427   6.113   7.533   6.481
   14DD      C5  428   5.899   7.499   6.440
   14DD      C7  429   5.958   7.356   6.450
   14DD     H71  430   6.028   7.327   6.382
   14DD     H72  431   5.989   7.344   6.551
   14DD     H73  432   5.873   7.285   6.430
   14DD      C4  433   5.780   7.532   6.534
   14DD      O4  434   5.691   7.451   6.566
   14DD      N3  435   5.774   7.657   6.582
   14DD      H3  436   5.685   7.687   6.619
   14DD      C2  437   5.880   7.737   6.600
   14DD      O2  438   5.858   7.834   6.671
   14DD     C3'  439   6.327   7.818   6.670
   14DD     H3'  440   6.396   7.745   6.688
   14DD     C2'  441   6.194   7.753   6.699
   14DD    H2'1  442   6.202   7.639   6.709
   14DD    H2'2  443   6.143   7.793   6.784
   14DD     O3'  444   6.349   7.936   6.741
   15DA       P  445   6.401   7.925   6.897
   15DA     O1P  446   6.461   8.061   6.918
   15DA     O2P  447   6.491   7.802   6.917
   15DA     O5'  448   6.272   7.910   6.990
   15DA     C5'  449   6.181   8.009   6.994
   15DA    H5'1  450   6.119   7.999   6.907
   15DA    H5'2  451   6.231   8.110   6.972
   15DA     C4'  452   6.088   8.008   7.116
   15DA     H4'  453   6.055   8.112   7.132
   15DA     O4'  454   5.975   7.936   7.070
   15DA     C1'  455   5.971   7.813   7.142
   15DA     H1'  456   5.898   7.824   7.226
   15DA      N9  457   5.929   7.702   7.063
   15DA      C8  458   6.007   7.618   6.984
   15DA      H8  459   6.109   7.638   6.967
   15DA      N7  460   5.951   7.521   6.924
   15DA      C5  461   5.817   7.534   6.976
   15DA      C6  462   5.702   7.465   6.952
   15DA      N6  463   5.698   7.361   6.872
   15DA     H61  464   5.603   7.346   6.832
   15DA     H62  465   5.786   7.342   6.824
   15DA      N1  466   5.585   7.513   7.002
   15DA      C2  467   5.593   7.625   7.074
   15DA      H2  468   5.501   7.665   7.112
   15DA      N3  469   5.687   7.708   7.095
   15DA      C4  470   5.801   7.650   7.047
   15DA     C3'  471   6.139   7.943   7.241
   15DA     H3'  472   6.253   7.954   7.245
   15DA     C2'  473   6.108   7.792   7.211
   15DA    H2'1  474   6.177   7.743   7.143
   15DA    H2'2  475   6.098   7.724   7.295
   15DA     O3'  476   6.091   8.010   7.356
   16DT       P  477   6.120   7.945   7.506
   16DT     O1P  478   6.096   8.052   7.606
   16DT     O2P  479   6.250   7.870   7.500
   16DT     O5'  480   6.007   7.830   7.525
   16DT     C5'  481   5.873   7.861   7.525
   16DT    H5'1  482   5.847   7.894   7.426
   16DT    H5'2  483   5.859   7.940   7.596
   16DT     C4'  484   5.787   7.743   7.569
   16DT     H4'  485   5.689   7.778   7.590
   16DT     O4'  486   5.777   7.642   7.469
   16DT     C1'  487   5.770   7.515   7.537
   16DT     H1'  488   5.675   7.491   7.584
   16DT      N1  489   5.790   7.410   7.433
   16DT      C6  490   5.905   7.329   7.426
   16DT      H6  491   5.988   7.349   7.495
   16DT      C5  492   5.904   7.225   7.334
   16DT      C7  493   6.027   7.133   7.329
   16DT     H71  494   6.113   7.178   7.376
   16DT     H72  495   6.013   7.041   7.384
   16DT     H73  496   6.063   7.121   7.222
   16DT      C4  497   5.797   7.208   7.238
   16DT      O4  498   5.797   7.125   7.146
   16DT      N3  499   5.692   7.292   7.247
   16DT      H3  500   5.600   7.269   7.192
   16DT      C2  501   5.682   7.382   7.348
   16DT      O2  502   5.574   7.445   7.355
   16DT     C3'  503   5.835   7.672   7.694
   16DT     H3'  504   5.923   7.720   7.733
   16DT     C2'  505   5.878   7.535   7.642
   16DT    H2'1  506   5.972   7.538   7.585
   16DT    H2'2  507   5.877   7.458   7.719
   16DT     O3'  508   5.730   7.658   7.790
   17DA       P  509   5.722   7.758   7.920
   17DA     O1P  510   5.735   7.901   7.872
   17DA     O2P  511   5.827   7.721   8.014
   17DA     O5'  512   5.575   7.739   7.988
   17DA     C5'  513   5.455   7.777   7.916
   17DA    H5'1  514   5.485   7.816   7.825
   17DA    H5'2  515   5.417   7.860   7.965
   17DA     C4'  516   5.339   7.670   7.904
   17DA     H4'  517   5.252   7.725   7.875
   17DA     O4'  518   5.376   7.582   7.803
   17DA     C1'  519   5.372   7.448   7.859
   17DA     H1'  520   5.275   7.393   7.851
   17DA      N9  521   5.481   7.370   7.791
   17DA      C8  522   5.609   7.336   7.835
   17DA      H8  523   5.648   7.371   7.926
   17DA      N7  524   5.669   7.259   7.752
   17DA      C5  525   5.573   7.230   7.655
   17DA      C6  526   5.574   7.147   7.543
   17DA      N6  527   5.678   7.073   7.506
   17DA     H61  528   5.666   7.012   7.425
   17DA     H62  529   5.761   7.084   7.567
   17DA      N1  530   5.461   7.132   7.471
   17DA      C2  531   5.355   7.199   7.514
   17DA      H2  532   5.265   7.190   7.458
   17DA      N3  533   5.346   7.283   7.616
   17DA      C4  534   5.460   7.293   7.683
   17DA     C3'  535   5.314   7.592   8.030
   17DA     H3'  536   5.356   7.656   8.109
   17DA     C2'  537   5.390   7.462   8.012
   17DA    H2'1  538   5.493   7.465   8.045
   17DA    H2'2  539   5.347   7.379   8.068
   17DA     O3'  540   5.165   7.584   8.029
   18DC       P  541   5.075   7.508   8.137
   18DC     O1P  542   4.946   7.581   8.145
   18DC     O2P  543   5.158   7.487   8.261
   18DC     O5'  544   5.052   7.370   8.061
   18DC     C5'  545   4.976   7.361   7.946
   18DC    H5'1  546   5.024   7.407   7.858
   18DC    H5'2  547   4.876   7.395   7.962
   18DC     C4'  548   4.972   7.218   7.887
   18DC     H4'  549   4.903   7.217   7.804
   18DC     O4'  550   5.099   7.177   7.835
   18DC     C1'  551   5.120   7.043   7.884
   18DC     H1'  552   5.070   6.962   7.824
   18DC      N1  553   5.269   7.020   7.880
   18DC      C6  554   5.355   7.070   7.979
   18DC      H6  555   5.315   7.122   8.064
   18DC      C5  556   5.486   7.042   7.976
   18DC      H5  557   5.541   7.072   8.057
   18DC      C4  558   5.533   6.969   7.867
   18DC      N4  559   5.656   6.940   7.866
   18DC     H41  560   5.697   6.887   7.787
   18DC     H42  561   5.716   6.967   7.941
   18DC      N3  562   5.458   6.933   7.760
   18DC      C2  563   5.324   6.964   7.766
   18DC      O2  564   5.257   6.937   7.668
   18DC     C3'  565   4.928   7.126   8.006
   18DC     H3'  566   4.905   7.176   8.093
   18DC     C2'  567   5.062   7.057   8.025
   18DC    H2'1  568   5.115   7.119   8.098
   18DC    H2'2  569   5.055   6.959   8.076
   18DC     O3'  570   4.819   7.037   7.969
   19DA       P  571   4.787   6.897   8.041
   19DA     O1P  572   4.644   6.877   8.017
   19DA     O2P  573   4.839   6.905   8.177
   19DA     O5'  574   4.861   6.785   7.950
   19DA     C5'  575   4.816   6.753   7.813
   19DA    H5'1  576   4.865   6.815   7.743
   19DA    H5'2  577   4.710   6.770   7.803
   19DA     C4'  578   4.836   6.602   7.774
   19DA     H4'  579   4.771   6.569   7.690
   19DA     O4'  580   4.971   6.593   7.733
   19DA     C1'  581   5.036   6.513   7.832
   19DA     H1'  582   5.055   6.412   7.788
   19DA      N9  583   5.166   6.574   7.861
   19DA      C8  584   5.191   6.681   7.943
   19DA      H8  585   5.117   6.747   7.982
   19DA      N7  586   5.319   6.701   7.963
   19DA      C5  587   5.383   6.602   7.893
   19DA      C6  588   5.514   6.560   7.878
   19DA      N6  589   5.617   6.631   7.940
   19DA     H61  590   5.709   6.597   7.919
   19DA     H62  591   5.597   6.715   7.990
   19DA      N1  592   5.545   6.447   7.814
   19DA      C2  593   5.442   6.380   7.760
   19DA      H2  594   5.475   6.298   7.695
   19DA      N3  595   5.312   6.406   7.760
   19DA      C4  596   5.290   6.523   7.830
   19DA     C3'  597   4.804   6.495   7.882
   19DA     H3'  598   4.737   6.545   7.951
   19DA     C2'  599   4.942   6.477   7.936
   19DA    H2'1  600   4.969   6.545   8.027
   19DA    H2'2  601   4.947   6.378   7.977
   19DA     O3'  602   4.759   6.379   7.818
   20DT       P  603   4.728   6.242   7.884
   20DT     O1P  604   4.634   6.169   7.803
   20DT     O2P  605   4.697   6.274   8.023
   20DT     O5'  606   4.864   6.164   7.885
   20DT     C5'  607   4.923   6.119   7.764
   20DT    H5'1  608   4.952   6.207   7.704
   20DT    H5'2  609   4.854   6.067   7.708
   20DT     C4'  610   5.048   6.029   7.793
   20DT     H4'  611   5.081   5.989   7.695
   20DT     O4'  612   5.153   6.113   7.840
   20DT     C1'  613   5.215   6.052   7.949
   20DT     H1'  614   5.293   5.971   7.913
   20DT      N1  615   5.289   6.157   8.032
   20DT      C6  616   5.220   6.265   8.095
   20DT      H6  617   5.112   6.259   8.093
   20DT      C5  618   5.288   6.363   8.163
   20DT      C7  619   5.215   6.475   8.245
   20DT     H71  620   5.282   6.533   8.309
   20DT     H72  621   5.161   6.539   8.176
   20DT     H73  622   5.138   6.438   8.316
   20DT      C4  623   5.435   6.361   8.164
   20DT      O4  624   5.504   6.446   8.215
   20DT      N3  625   5.492   6.258   8.099
   20DT      H3  626   5.590   6.263   8.076
   20DT      C2  627   5.429   6.161   8.027
   20DT      O2  628   5.496   6.078   7.962
   20DT     C3'  629   5.034   5.913   7.892
   20DT     H3'  630   4.924   5.904   7.908
   20DT     C2'  631   5.101   5.981   8.014
   20DT    H2'1  632   5.029   6.049   8.063
   20DT    H2'2  633   5.143   5.909   8.086
   20DT     O3'  634   5.092   5.794   7.838
   21DT       P  635   5.088   5.650   7.926
   21DT     O1P  636   5.000   5.553   7.854
   21DT     O2P  637   5.054   5.680   8.069
   21DT     O5'  638   5.236   5.597   7.934
   21DT     C5'  639   5.309   5.585   7.818
   21DT    H5'1  640   5.276   5.649   7.742
   21DT    H5'2  641   5.296   5.477   7.776
   21DT     C4'  642   5.454   5.610   7.852
   21DT     H4'  643   5.508   5.588   7.752
   21DT     O4'  644   5.477   5.745   7.876
   21DT     C1'  645   5.583   5.759   7.963
   21DT     H1'  646   5.670   5.815   7.919
   21DT      N1  647   5.546   5.824   8.086
   21DT      C6  648   5.425   5.793   8.155
   21DT      H6  649   5.351   5.727   8.116
   21DT      C5  650   5.397   5.854   8.273
   21DT      C7  651   5.277   5.820   8.355
   21DT     H71  652   5.304   5.782   8.454
   21DT     H72  653   5.209   5.901   8.358
   21DT     H73  654   5.219   5.745   8.299
   21DT      C4  655   5.481   5.962   8.322
   21DT      O4  656   5.465   6.033   8.420
   21DT      N3  657   5.595   5.989   8.250
   21DT      H3  658   5.663   6.053   8.277
   21DT      C2  659   5.638   5.908   8.149
   21DT      O2  660   5.748   5.929   8.104
   21DT     C3'  661   5.510   5.531   7.970
   21DT     H3'  662   5.446   5.546   8.059
   21DT     C2'  663   5.632   5.616   7.998
   21DT    H2'1  664   5.662   5.602   8.098
   21DT    H2'2  665   5.713   5.587   7.922
   21DT     O3'  666   5.539   5.402   7.940
   22DG       P  667   5.559   5.286   8.049
   22DG     O1P  668   5.572   5.160   7.974
   22DG     O2P  669   5.451   5.296   8.153
   22DG     O5'  670   5.709   5.296   8.113
   22DG     C5'  671   5.815   5.314   8.022
   22DG    H5'1  672   5.784   5.395   7.961
   22DG    H5'2  673   5.828   5.220   7.961
   22DG     C4'  674   5.953   5.352   8.091
   22DG     H4'  675   6.029   5.370   8.013
   22DG     O4'  676   5.949   5.489   8.149
   22DG     C1'  677   5.960   5.478   8.288
   22DG     H1'  678   6.058   5.516   8.317
   22DG      N9  679   5.849   5.559   8.351
   22DG      C8  680   5.709   5.534   8.362
   22DG      H8  681   5.655   5.461   8.303
   22DG      N7  682   5.646   5.620   8.446
   22DG      C5  683   5.754   5.699   8.495
   22DG      C6  684   5.748   5.814   8.583
   22DG      O6  685   5.649   5.863   8.637
   22DG      N1  686   5.867   5.867   8.606
   22DG      H1  687   5.872   5.944   8.670
   22DG      C2  688   5.990   5.821   8.557
   22DG      N2  689   6.092   5.891   8.589
   22DG     H21  690   6.075   5.969   8.647
   22DG     H22  691   6.182   5.875   8.544
   22DG      N3  692   5.998   5.721   8.473
   22DG      C4  693   5.878   5.665   8.438
   22DG     C3'  694   5.999   5.254   8.198
   22DG     H3'  695   5.941   5.162   8.173
   22DG     C2'  696   5.950   5.330   8.325
   22DG    H2'1  697   5.851   5.303   8.336
   22DG    H2'2  698   6.015   5.318   8.416
   22DG     O3'  699   6.136   5.235   8.184
   23DT       P  700   6.218   5.123   8.273
   23DT     O1P  701   6.352   5.100   8.205
   23DT     O2P  702   6.128   5.012   8.305
   23DT     O5'  703   6.243   5.197   8.413
   23DT     C5'  704   6.333   5.300   8.428
   23DT    H5'1  705   6.323   5.370   8.342
   23DT    H5'2  706   6.437   5.268   8.409
   23DT     C4'  707   6.333   5.369   8.563
   23DT     H4'  708   6.419   5.444   8.568
   23DT     O4'  709   6.223   5.448   8.598
   23DT     C1'  710   6.195   5.428   8.734
   23DT     H1'  711   6.260   5.485   8.803
   23DT      N1  712   6.053   5.460   8.759
   23DT      C6  713   5.944   5.385   8.719
   23DT      H6  714   5.958   5.294   8.668
   23DT      C5  715   5.814   5.420   8.740
   23DT      C7  716   5.699   5.335   8.684
   23DT     H71  717   5.718   5.274   8.598
   23DT     H72  718   5.654   5.281   8.766
   23DT     H73  719   5.627   5.409   8.642
   23DT      C4  720   5.783   5.553   8.781
   23DT      O4  721   5.675   5.606   8.791
   23DT      N3  722   5.901   5.621   8.819
   23DT      H3  723   5.888   5.703   8.872
   23DT      C2  724   6.030   5.580   8.821
   23DT      O2  725   6.115   5.658   8.866
   23DT     C3'  726   6.352   5.262   8.673
   23DT     H3'  727   6.356   5.159   8.638
   23DT     C2'  728   6.220   5.275   8.747
   23DT    H2'1  729   6.156   5.212   8.687
   23DT    H2'2  730   6.230   5.241   8.850
   23DT     O3'  731   6.457   5.297   8.755
   24DA       P  732   6.496   5.201   8.877
   24DA     O1P  733   6.638   5.226   8.910
   24DA     O2P  734   6.458   5.064   8.843
   24DA     O5'  735   6.412   5.240   9.001
   24DA     C5'  736   6.412   5.370   9.052
   24DA    H5'1  737   6.375   5.439   8.980
   24DA    H5'2  738   6.517   5.399   9.086
   24DA     C4'  739   6.320   5.387   9.173
   24DA     H4'  740   6.342   5.482   9.217
   24DA     O4'  741   6.182   5.386   9.133
   24DA     C1'  742   6.110   5.307   9.226
   24DA     H1'  743   6.097   5.368   9.316
   24DA      N9  744   5.977   5.271   9.171
   24DA      C8  745   5.924   5.146   9.139
   24DA      H8  746   5.973   5.056   9.156
   24DA      N7  747   5.803   5.156   9.102
   24DA      C5  748   5.773   5.291   9.111
   24DA      C6  749   5.656   5.377   9.097
   24DA      N6  750   5.543   5.336   9.052
   24DA     H61  751   5.472   5.403   9.050
   24DA     H62  752   5.514   5.240   9.044
   24DA      N1  753   5.661   5.509   9.109
   24DA      C2  754   5.774   5.558   9.147
   24DA      H2  755   5.774   5.665   9.151
   24DA      N3  756   5.884   5.494   9.174
   24DA      C4  757   5.875   5.363   9.155
   24DA     C3'  758   6.329   5.270   9.274
   24DA     H3'  759   6.419   5.207   9.252
   24DA     C2'  760   6.201   5.192   9.259
   24DA    H2'1  761   6.207   5.120   9.176
   24DA    H2'2  762   6.155   5.144   9.345
   24DA     O3'  763   6.332   5.322   9.405
   25DC       P  764   6.423   5.261   9.520
   25DC     O1P  765   6.565   5.279   9.480
   25DC     O2P  766   6.376   5.124   9.550
   25DC     O5'  767   6.381   5.358   9.639
   25DC     C5'  768   6.365   5.500   9.614
   25DC    H5'1  769   6.375   5.524   9.502
   25DC    H5'2  770   6.452   5.537   9.669
   25DC     C4'  771   6.235   5.569   9.664
   25DC     H4'  772   6.255   5.676   9.658
   25DC     O4'  773   6.132   5.534   9.572
   25DC     C1'  774   6.022   5.484   9.648
   25DC     H1'  775   5.970   5.580   9.675
   25DC      N1  776   5.931   5.397   9.566
   25DC      C6  777   5.953   5.262   9.565
   25DC      H6  778   6.044   5.217   9.604
   25DC      C5  779   5.867   5.177   9.503
   25DC      H5  780   5.884   5.071   9.494
   25DC      C4  781   5.749   5.239   9.447
   25DC      N4  782   5.650   5.157   9.415
   25DC     H41  783   5.569   5.209   9.380
   25DC     H42  784   5.668   5.061   9.389
   25DC      N3  785   5.723   5.367   9.452
   25DC      C2  786   5.816   5.451   9.509
   25DC      O2  787   5.796   5.573   9.507
   25DC     C3'  788   6.184   5.542   9.806
   25DC     H3'  789   6.261   5.495   9.868
   25DC     C2'  790   6.088   5.430   9.773
   25DC    H2'1  791   6.143   5.336   9.759
   25DC    H2'2  792   6.023   5.420   9.856
   25DC     O3'  793   6.115   5.641   9.877
   26DG       P  794   6.166   5.792   9.909
   26DG     O1P  795   6.170   5.873   9.784
   26DG     O2P  796   6.286   5.775   9.991
   26DG     O5'  797   6.055   5.844  10.015
   26DG     C5'  798   5.970   5.954   9.982
   26DG    H5'1  799   5.958   5.954   9.878
   26DG    H5'2  800   6.031   6.045  10.008
   26DG     C4'  801   5.827   5.959  10.041
   26DG     H4'  802   5.799   6.065  10.024
   26DG     O4'  803   5.742   5.877   9.967
   26DG     C1'  804   5.682   5.783  10.058
   26DG     H1'  805   5.578   5.821  10.068
   26DG      N9  806   5.685   5.647   9.995
   26DG      C8  807   5.791   5.568   9.959
   26DG      H8  808   5.894   5.593   9.999
   26DG      N7  809   5.761   5.464   9.884
   26DG      C5  810   5.619   5.475   9.870
   26DG      C6  811   5.527   5.385   9.805
   26DG      O6  812   5.551   5.289   9.729
   26DG      N1  813   5.395   5.426   9.816
   26DG      H1  814   5.329   5.383   9.751
   26DG      C2  815   5.354   5.531   9.892
   26DG      N2  816   5.229   5.560   9.896
   26DG     H21  817   5.162   5.515   9.825
   26DG     H22  818   5.207   5.639   9.950
   26DG      N3  819   5.435   5.620   9.952
   26DG      C4  820   5.571   5.586   9.936
   26DG     C3'  821   5.809   5.937  10.195
   26DG     H3'  822   5.904   5.954  10.247
   26DG     C2'  823   5.770   5.791  10.187
   26DG    H2'1  824   5.858   5.731  10.175
   26DG    H2'2  825   5.722   5.757  10.280
   26DG     O3'  826   5.712   6.027  10.244
   27DC       P  827   5.657   6.028  10.399
   27DC     O1P  828   5.622   6.169  10.419
   27DC     O2P  829   5.757   5.972  10.485
   27DC     O5'  830   5.517   5.940  10.396
   27DC     C5'  831   5.408   5.996  10.324
   27DC    H5'1  832   5.418   5.989  10.213
   27DC    H5'2  833   5.392   6.098  10.350
   27DC     C4'  834   5.276   5.918  10.356
   27DC     H4'  835   5.199   5.986  10.317
   27DC     O4'  836   5.261   5.800  10.289
   27DC     C1'  837   5.247   5.689  10.376
   27DC     H1'  838   5.147   5.648  10.383
   27DC      N1  839   5.337   5.588  10.304
   27DC      C6  840   5.473   5.589  10.308
   27DC      H6  841   5.517   5.677  10.353
   27DC      C5  842   5.552   5.488  10.255
   27DC      H5  843   5.657   5.495  10.274
   27DC      C4  844   5.480   5.386  10.183
   27DC      N4  845   5.545   5.290  10.127
   27DC     H41  846   5.488   5.219  10.085
   27DC     H42  847   5.646   5.290  10.131
   27DC      N3  848   5.350   5.390  10.170
   27DC      C2  849   5.278   5.486  10.226
   27DC      O2  850   5.161   5.489  10.204
   27DC     C3'  851   5.260   5.888  10.504
   27DC     H3'  852   5.328   5.944  10.572
   27DC     C2'  853   5.291   5.738  10.516
   27DC    H2'1  854   5.394   5.726  10.535
   27DC    H2'2  855   5.235   5.677  10.596
   27DC     O3'  856   5.119   5.920  10.534
   28DA       P  857   5.067   5.916  10.684
   28DA     O1P  858   4.971   6.027  10.673
   28DA     O2P  859   5.174   5.917  10.787
   28DA     O5'  860   4.986   5.785  10.683
   28DA     C5'  861   4.876   5.762  10.598
   28DA    H5'1  862   4.890   5.814  10.505
   28DA    H5'2  863   4.789   5.819  10.640
   28DA     C4'  864   4.837   5.611  10.570
   28DA     H4'  865   4.744   5.598  10.515
   28DA     O4'  866   4.943   5.542  10.498
   28DA     C1'  867   4.970   5.420  10.569
   28DA     H1'  868   4.899   5.342  10.539
   28DA      N9  869   5.113   5.378  10.543
   28DA      C8  870   5.227   5.419  10.618
   28DA      H8  871   5.226   5.501  10.687
   28DA      N7  872   5.332   5.351  10.594
   28DA      C5  873   5.296   5.267  10.491
   28DA      C6  874   5.366   5.167  10.413
   28DA      N6  875   5.494   5.151  10.416
   28DA     H61  876   5.533   5.093  10.345
   28DA     H62  877   5.556   5.193  10.489
   28DA      N1  878   5.302   5.094  10.328
   28DA      C2  879   5.171   5.115  10.313
   28DA      H2  880   5.125   5.046  10.241
   28DA      N3  881   5.089   5.203  10.373
   28DA      C4  882   5.163   5.282  10.461
   28DA     C3'  883   4.825   5.541  10.707
   28DA     H3'  884   4.821   5.607  10.794
   28DA     C2'  885   4.951   5.455  10.710
   28DA    H2'1  886   5.033   5.504  10.756
   28DA    H2'2  887   4.938   5.363  10.767
   28DA     O3'  888   4.701   5.465  10.703
   29DT       P  889   4.665   5.350  10.811
   29DT     O1P  890   4.523   5.345  10.813
   29DT     O2P  891   4.741   5.371  10.937
   29DT     O5'  892   4.721   5.216  10.735
   29DT     C5'  893   4.666   5.175  10.609
   29DT    H5'1  894   4.683   5.237  10.521
   29DT    H5'2  895   4.559   5.178  10.611
   29DT     C4'  896   4.709   5.029  10.590
   29DT     H4'  897   4.668   4.986  10.499
   29DT     O4'  898   4.853   5.033  10.591
   29DT     C1'  899   4.906   4.950  10.692
   29DT     H1'  900   4.911   4.848  10.650
   29DT      N1  901   5.044   4.994  10.714
   29DT      C6  902   5.075   5.103  10.799
   29DT      H6  903   4.997   5.158  10.853
   29DT      C5  904   5.206   5.131  10.824
   29DT      C7  905   5.237   5.236  10.932
   29DT     H71  906   5.299   5.174  11.004
   29DT     H72  907   5.291   5.314  10.881
   29DT     H73  908   5.149   5.285  10.974
   29DT      C4  909   5.319   5.058  10.760
   29DT      O4  910   5.437   5.071  10.782
   29DT      N3  911   5.277   4.967  10.663
   29DT      H3  912   5.350   4.914  10.618
   29DT      C2  913   5.148   4.928  10.645
   29DT      O2  914   5.131   4.835  10.566
   29DT     C3'  915   4.681   4.941  10.719
   29DT     H3'  916   4.594   4.974  10.782
   29DT     C2'  917   4.803   4.950  10.810
   29DT    H2'1  918   4.810   5.036  10.879
   29DT    H2'2  919   4.808   4.864  10.874
   29DT     O3'  920   4.650   4.808  10.682
   30DA       P  921   4.507   4.746  10.695
   30DA     O1P  922   4.432   4.784  10.573
   30DA     O2P  923   4.452   4.774  10.828
   30DA     O5'  924   4.533   4.589  10.692
   30DA     C5'  925   4.523   4.518  10.568
   30DA    H5'1  926   4.550   4.588  10.488
   30DA    H5'2  927   4.415   4.480  10.555
   30DA     C4'  928   4.623   4.399  10.552
   30DA     H4'  929   4.590   4.352  10.457
   30DA     O4'  930   4.752   4.444  10.546
   30DA     C1'  931   4.827   4.401  10.663
   30DA     H1'  932   4.892   4.328  10.615
   30DA      N9  933   4.907   4.504  10.743
   30DA      C8  934   4.869   4.602  10.826
   30DA      H8  935   4.764   4.628  10.850
   30DA      N7  936   4.972   4.665  10.886
   30DA      C5  937   5.088   4.600  10.825
   30DA      C6  938   5.227   4.617  10.831
   30DA      N6  939   5.300   4.710  10.896
   30DA     H61  940   5.398   4.714  10.891
   30DA     H62  941   5.260   4.742  10.984
   30DA      N1  942   5.305   4.547  10.750
   30DA      C2  943   5.250   4.441  10.681
   30DA      H2  944   5.318   4.370  10.630
   30DA      N3  945   5.120   4.418  10.657
   30DA      C4  946   5.045   4.506  10.732
   30DA     C3'  947   4.614   4.291  10.660
   30DA     H3'  948   4.516   4.289  10.708
   30DA     C2'  949   4.732   4.315  10.749
   30DA    H2'1  950   4.688   4.372  10.831
   30DA    H2'2  951   4.787   4.230  10.802
   30DA     O3'  952   4.623   4.167  10.594
   31DT       P  953   4.606   4.026  10.673
   31DT     O1P  954   4.546   3.934  10.577
   31DT     O2P  955   4.547   4.051  10.803
   31DT     O5'  956   4.756   3.979  10.702
   31DT     C5'  957   4.842   3.958  10.589
   31DT    H5'1  958   4.844   4.049  10.532
   31DT    H5'2  959   4.807   3.875  10.521
   31DT     C4'  960   4.988   3.927  10.627
   31DT     H4'  961   5.052   3.927  10.536
   31DT     O4'  962   5.033   4.045  10.700
   31DT     C1'  963   5.109   3.996  10.806
   31DT     H1'  964   5.207   3.967  10.762
   31DT      N1  965   5.111   4.105  10.905
   31DT      C6  966   4.996   4.153  10.972
   31DT      H6  967   4.908   4.095  10.968
   31DT      C5  968   5.000   4.271  11.037
   31DT      C7  969   4.870   4.334  11.080
   31DT     H71  970   4.878   4.373  11.186
   31DT     H72  971   4.875   4.423  11.026
   31DT     H73  972   4.785   4.269  11.045
   31DT      C4  973   5.123   4.347  11.057
   31DT      O4  974   5.142   4.452  11.123
   31DT      N3  975   5.235   4.287  11.000
   31DT      H3  976   5.331   4.318  11.025
   31DT      C2  977   5.232   4.176  10.912
   31DT      O2  978   5.337   4.148  10.855
   31DT     C3'  979   5.002   3.803  10.712
   31DT     H3'  980   4.914   3.751  10.718
   31DT     C2'  981   5.039   3.870  10.841
   31DT    H2'1  982   4.938   3.897  10.889
   31DT    H2'2  983   5.102   3.807  10.904
   31DT     O3'  984   5.119   3.734  10.667
   32DG       P  985   5.134   3.576  10.693
   32DG     O1P  986   5.217   3.512  10.591
   32DG     O2P  987   4.995   3.521  10.709
   32DG     O5'  988   5.203   3.556  10.835
   32DG     C5'  989   5.334   3.608  10.861
   32DG    H5'1  990   5.348   3.693  10.797
   32DG    H5'2  991   5.408   3.526  10.828
   32DG     C4'  992   5.366   3.646  11.008
   32DG     H4'  993   5.474   3.642  11.022
   32DG     O4'  994   5.339   3.780  11.039
   32DG     C1'  995   5.327   3.776  11.183
   32DG     H1'  996   5.428   3.755  11.229
   32DG      N9  997   5.273   3.908  11.227
   32DG      C8  998   5.143   3.947  11.237
   32DG      H8  999   5.061   3.890  11.200
   32DG      N7 1000   5.121   4.066  11.270
   32DG      C5 1001   5.243   4.109  11.311
   32DG      C6 1002   5.293   4.229  11.375
   32DG      O6 1003   5.243   4.336  11.423
   32DG      N1 1004   5.434   4.232  11.393
   32DG      H1 1005   5.464   4.317  11.432
   32DG      C2 1006   5.522   4.137  11.345
   32DG      N2 1007   5.653   4.153  11.360
   32DG     H21 1008   5.696   4.221  11.423
   32DG     H22 1009   5.716   4.075  11.331
   32DG      N3 1010   5.475   4.029  11.280
   32DG      C4 1011   5.339   4.014  11.274
   32DG     C3' 1012   5.297   3.557  11.110
   32DG     H3' 1013   5.212   3.497  11.068
   32DG     C2' 1014   5.225   3.660  11.199
   32DG    H2'1 1015   5.126   3.678  11.151
   32DG    H2'2 1016   5.207   3.629  11.304
   32DG     O3' 1017   5.395   3.482  11.182
   33DC3      P 1018   5.435   3.339  11.140
   33DC3    O1P 1019   5.447   3.341  10.992
   33DC3    O2P 1020   5.350   3.252  11.219
   33DC3    O5' 1021   5.580   3.337  11.205
   33DC3    C5' 1022   5.693   3.394  11.142
   33DC3   H5'1 1023   5.670   3.462  11.067
   33DC3   H5'2 1024   5.755   3.317  11.094
   33DC3    C4' 1025   5.787   3.472  11.242
   33DC3    H4' 1026   5.875   3.500  11.183
   33DC3    O4' 1027   5.709   3.583  11.282
   33DC3    C1' 1028   5.726   3.594  11.419
   33DC3    H1' 1029   5.826   3.647  11.446
   33DC3     N1 1030   5.614   3.665  11.479
   33DC3     C6 1031   5.484   3.621  11.465
   33DC3     H6 1032   5.465   3.518  11.419
   33DC3     C5 1033   5.380   3.693  11.514
   33DC3     H5 1034   5.282   3.658  11.512
   33DC3     C4 1035   5.409   3.823  11.573
   33DC3     N4 1036   5.313   3.897  11.620
   33DC3    H41 1037   5.338   3.988  11.661
   33DC3    H42 1038   5.218   3.884  11.591
   33DC3     N3 1039   5.532   3.872  11.589
   33DC3     C2 1040   5.638   3.792  11.542
   33DC3     O2 1041   5.751   3.840  11.544
   33DC3    C3' 1042   5.830   3.399  11.364
   33DC3    H3' 1043   5.836   3.295  11.346
   33DC3    C2' 1044   5.735   3.454  11.471
   33DC3   H2'1 1045   5.641   3.402  11.466
   33DC3   H2'2 1046   5.775   3.457  11.574
   33DC3    O3' 1047   5.962   3.432  11.405
   33DC3    H3T 1048   6.025   3.409  11.328
   34DG5    H5T 1049   5.554   4.728  12.217
   34DG5    O5' 1050   5.547   4.649  12.275
   34DG5    C5' 1051   5.676   4.615  12.329
   34DG5   H5'1 1052   5.673   4.533  12.398
   34DG5   H5'2 1053   5.720   4.705  12.382
   34DG5    C4' 1054   5.786   4.588  12.220
   34DG5    H4' 1055   5.880   4.560  12.267
   34DG5    O4' 1056   5.739   4.485  12.125
   34DG5    C1' 1057   5.747   4.537  11.993
   34DG5    H1' 1058   5.840   4.518  11.944
   34DG5     N9 1059   5.641   4.472  11.922
   34DG5     C8 1060   5.507   4.499  11.946
   34DG5     H8 1061   5.474   4.578  12.019
   34DG5     N7 1062   5.421   4.423  11.885
   34DG5     C5 1063   5.505   4.329  11.819
   34DG5     C6 1064   5.477   4.204  11.752
   34DG5     O6 1065   5.367   4.154  11.726
   34DG5     N1 1066   5.592   4.131  11.719
   34DG5     H1 1067   5.576   4.041  11.670
   34DG5     C2 1068   5.716   4.181  11.731
   34DG5     N2 1069   5.806   4.098  11.690
   34DG5    H21 1070   5.787   4.011  11.649
   34DG5    H22 1071   5.900   4.115  11.708
   34DG5     N3 1072   5.748   4.288  11.808
   34DG5     C4 1073   5.637   4.358  11.849
   34DG5    C3' 1074   5.810   4.707  12.127
   34DG5    H3' 1075   5.776   4.797  12.177
   34DG5    C2' 1076   5.723   4.685  12.004
   34DG5   H2'1 1077   5.616   4.710  12.031
   34DG5   H2'2 1078   5.761   4.747  11.923
   34DG5    O3' 1079   5.947   4.706  12.095
   35DC       P 1080   6.023   4.843  12.060
   35DC     O1P 1081   6.165   4.801  12.084
   35DC     O2P 1082   5.975   4.955  12.138
   35DC     O5' 1083   5.984   4.865  11.905
   35DC     C5' 1084   6.072   4.814  11.798
   35DC    H5'1 1085   6.179   4.839  11.824
   35DC    H5'2 1086   6.042   4.861  11.701
   35DC     C4' 1087   6.067   4.660  11.771
   35DC     H4' 1088   6.122   4.603  11.841
   35DC     O4' 1089   5.931   4.617  11.761
   35DC     C1' 1090   5.905   4.557  11.639
   35DC     H1' 1091   5.935   4.451  11.667
   35DC      N1 1092   5.762   4.569  11.603
   35DC      C6 1093   5.694   4.677  11.642
   35DC      H6 1094   5.743   4.763  11.687
   35DC      C5 1095   5.559   4.667  11.631
   35DC      H5 1096   5.500   4.751  11.666
   35DC      C4 1097   5.504   4.554  11.568
   35DC      N4 1098   5.384   4.553  11.519
   35DC     H41 1099   5.353   4.481  11.461
   35DC     H42 1100   5.318   4.620  11.568
   35DC      N3 1101   5.571   4.453  11.526
   35DC      C2 1102   5.707   4.460  11.537
   35DC      O2 1103   5.780   4.371  11.483
   35DC     C3' 1104   6.130   4.625  11.629
   35DC     H3' 1105   6.194   4.706  11.586
   35DC     C2' 1106   6.008   4.613  11.536
   35DC    H2'1 1107   5.970   4.706  11.496
   35DC    H2'2 1108   6.038   4.543  11.453
   35DC     O3' 1109   6.204   4.504  11.626
   36DA       P 1110   6.339   4.491  11.547
   36DA     O1P 1111   6.397   4.363  11.575
   36DA     O2P 1112   6.420   4.615  11.591
   36DA     O5' 1113   6.298   4.495  11.398
   36DA     C5' 1114   6.272   4.377  11.327
   36DA    H5'1 1115   6.240   4.302  11.401
   36DA    H5'2 1116   6.364   4.334  11.291
   36DA     C4' 1117   6.171   4.391  11.206
   36DA     H4' 1118   6.182   4.303  11.137
   36DA     O4' 1119   6.029   4.411  11.247
   36DA     C1' 1120   5.981   4.514  11.166
   36DA     H1' 1121   5.962   4.477  11.057
   36DA      N9 1122   5.844   4.563  11.202
   36DA      C8 1123   5.795   4.678  11.257
   36DA      H8 1124   5.871   4.750  11.296
   36DA      N7 1125   5.667   4.689  11.267
   36DA      C5 1126   5.626   4.572  11.205
   36DA      C6 1127   5.506   4.511  11.170
   36DA      N6 1128   5.389   4.562  11.205
   36DA     H61 1129   5.305   4.518  11.174
   36DA     H62 1130   5.388   4.646  11.266
   36DA      N1 1131   5.491   4.400  11.099
   36DA      C2 1132   5.599   4.336  11.071
   36DA      H2 1133   5.591   4.254  10.999
   36DA      N3 1134   5.723   4.372  11.102
   36DA      C4 1135   5.730   4.493  11.171
   36DA     C3' 1136   6.207   4.518  11.127
   36DA     H3' 1137   6.302   4.560  11.161
   36DA     C2' 1138   6.088   4.618  11.159
   36DA    H2'1 1139   6.110   4.668  11.248
   36DA    H2'2 1140   6.065   4.683  11.077
   36DA     O3' 1141   6.205   4.496  10.986
   37DT       P 1142   6.322   4.427  10.905
   37DT     O1P 1143   6.401   4.349  11.009
   37DT     O2P 1144   6.396   4.528  10.824
   37DT     O5' 1145   6.248   4.338  10.807
   37DT     C5' 1146   6.240   4.198  10.820
   37DT    H5'1 1147   6.248   4.175  10.926
   37DT    H5'2 1148   6.316   4.136  10.770
   37DT     C4' 1149   6.104   4.145  10.776
   37DT     H4' 1150   6.109   4.041  10.791
   37DT     O4' 1151   6.002   4.210  10.836
   37DT     C1' 1152   5.908   4.258  10.736
   37DT     H1' 1153   5.840   4.177  10.718
   37DT      N1 1154   5.824   4.376  10.773
   37DT      C6 1155   5.876   4.501  10.788
   37DT      H6 1156   5.981   4.511  10.773
   37DT      C5 1157   5.803   4.609  10.823
   37DT      C7 1158   5.874   4.742  10.829
   37DT     H71 1159   5.810   4.822  10.787
   37DT     H72 1160   5.897   4.762  10.930
   37DT     H73 1161   5.964   4.736  10.762
   37DT      C4 1162   5.655   4.602  10.828
   37DT      O4 1163   5.578   4.689  10.869
   37DT      N3 1164   5.604   4.478  10.794
   37DT      H3 1165   5.502   4.472  10.786
   37DT      C2 1166   5.685   4.367  10.765
   37DT      O2 1167   5.628   4.265  10.744
   37DT     C3' 1168   6.091   4.169  10.625
   37DT     H3' 1169   6.186   4.200  10.585
   37DT     C2' 1170   5.989   4.285  10.615
   37DT    H2'1 1171   6.066   4.365  10.622
   37DT    H2'2 1172   5.931   4.284  10.525
   37DT     O3' 1173   6.034   4.051  10.567
   38DA       P 1174   6.042   4.028  10.405
   38DA     O1P 1175   6.055   3.881  10.387
   38DA     O2P 1176   6.155   4.100  10.355
   38DA     O5' 1177   5.915   4.089  10.339
   38DA     C5' 1178   5.782   4.063  10.390
   38DA    H5'1 1179   5.789   4.063  10.495
   38DA    H5'2 1180   5.746   3.966  10.360
   38DA     C4' 1181   5.687   4.174  10.346
   38DA     H4' 1182   5.591   4.134  10.354
   38DA     O4' 1183   5.681   4.292  10.427
   38DA     C1' 1184   5.693   4.400  10.332
   38DA     H1' 1185   5.592   4.413  10.290
   38DA      N9 1186   5.726   4.528  10.399
   38DA      C8 1187   5.852   4.574  10.421
   38DA      H8 1188   5.945   4.513  10.403
   38DA      N7 1189   5.855   4.701  10.470
   38DA      C5 1190   5.716   4.724  10.497
   38DA      C6 1191   5.634   4.822  10.555
   38DA      N6 1192   5.654   4.941  10.607
   38DA     H61 1193   5.571   4.995  10.633
   38DA     H62 1194   5.743   4.971  10.636
   38DA      N1 1195   5.497   4.812  10.552
   38DA      C2 1196   5.442   4.698  10.506
   38DA      H2 1197   5.338   4.696  10.515
   38DA      N3 1198   5.505   4.600  10.445
   38DA      C4 1199   5.641   4.619  10.447
   38DA     C3' 1200   5.715   4.216  10.195
   38DA     H3' 1201   5.785   4.157  10.142
   38DA     C2' 1202   5.770   4.352  10.216
   38DA    H2'1 1203   5.880   4.350  10.229
   38DA    H2'2 1204   5.754   4.409  10.131
   38DA     O3' 1205   5.596   4.228  10.120
   39DT       P 1206   5.535   4.102  10.045
   39DT     O1P 1207   5.496   4.001  10.145
   39DT     O2P 1208   5.629   4.070   9.935
   39DT     O5' 1209   5.397   4.162   9.986
   39DT     C5' 1210   5.291   4.194  10.078
   39DT    H5'1 1211   5.325   4.162  10.184
   39DT    H5'2 1212   5.202   4.149  10.047
   39DT     C4' 1213   5.270   4.347  10.075
   39DT     H4' 1214   5.177   4.353  10.124
   39DT     O4' 1215   5.360   4.438  10.137
   39DT     C1' 1216   5.302   4.561  10.111
   39DT     H1' 1217   5.211   4.566  10.180
   39DT      N1 1218   5.396   4.670  10.139
   39DT      C6 1219   5.522   4.671  10.090
   39DT      H6 1220   5.550   4.586  10.038
   39DT      C5 1221   5.616   4.768  10.108
   39DT      C7 1222   5.760   4.752  10.062
   39DT     H71 1223   5.764   4.654  10.004
   39DT     H72 1224   5.789   4.829   9.994
   39DT     H73 1225   5.835   4.754  10.143
   39DT      C4 1226   5.572   4.891  10.182
   39DT      O4 1227   5.643   4.990  10.206
   39DT      N3 1228   5.440   4.883  10.223
   39DT      H3 1229   5.396   4.965  10.253
   39DT      C2 1230   5.349   4.781  10.207
   39DT      O2 1231   5.238   4.797  10.249
   39DT     C3' 1232   5.247   4.399   9.935
   39DT     H3' 1233   5.333   4.363   9.880
   39DT     C2' 1234   5.263   4.549   9.961
   39DT    H2'1 1235   5.331   4.606   9.897
   39DT    H2'2 1236   5.158   4.596   9.950
   39DT     O3' 1237   5.123   4.365   9.892
   40DG       P 1238   5.070   4.389   9.743
   40DG     O1P 1239   4.990   4.269   9.703
   40DG     O2P 1240   5.178   4.433   9.660
   40DG     O5' 1241   4.972   4.514   9.756
   40DG     C5' 1242   4.851   4.518   9.834
   40DG    H5'1 1243   4.878   4.508   9.939
   40DG    H5'2 1244   4.791   4.437   9.810
   40DG     C4' 1245   4.774   4.643   9.813
   40DG     H4' 1246   4.676   4.631   9.850
   40DG     O4' 1247   4.844   4.744   9.895
   40DG     C1' 1248   4.887   4.843   9.799
   40DG     H1' 1249   4.823   4.928   9.810
   40DG      N9 1250   5.029   4.878   9.823
   40DG      C8 1251   5.145   4.805   9.799
   40DG      H8 1252   5.147   4.717   9.743
   40DG      N7 1253   5.257   4.858   9.830
   40DG      C5 1254   5.212   4.975   9.892
   40DG      C6 1255   5.290   5.073   9.960
   40DG      O6 1256   5.411   5.073   9.978
   40DG      N1 1257   5.212   5.180  10.005
   40DG      H1 1258   5.262   5.248  10.063
   40DG      C2 1259   5.085   5.196   9.970
   40DG      N2 1260   5.024   5.307  10.002
   40DG     H21 1261   5.070   5.387  10.041
   40DG     H22 1262   4.928   5.318   9.973
   40DG      N3 1263   5.009   5.102   9.928
   40DG      C4 1264   5.076   4.993   9.886
   40DG     C3' 1265   4.769   4.683   9.665
   40DG     H3' 1266   4.788   4.599   9.608
   40DG     C2' 1267   4.879   4.788   9.659
   40DG    H2'1 1268   4.975   4.740   9.622
   40DG    H2'2 1269   4.855   4.868   9.587
   40DG     O3' 1270   4.634   4.729   9.655
   41DC       P 1271   4.588   4.825   9.536
   41DC     O1P 1272   4.441   4.814   9.525
   41DC     O2P 1273   4.667   4.797   9.414
   41DC     O5' 1274   4.630   4.964   9.584
   41DC     C5' 1275   4.572   5.030   9.694
   41DC    H5'1 1276   4.605   4.974   9.789
   41DC    H5'2 1277   4.465   5.020   9.689
   41DC     C4' 1278   4.616   5.172   9.711
   41DC     H4' 1279   4.562   5.212   9.801
   41DC     O4' 1280   4.758   5.189   9.742
   41DC     C1' 1281   4.815   5.290   9.658
   41DC     H1' 1282   4.815   5.389   9.705
   41DC      N1 1283   4.954   5.255   9.624
   41DC      C6 1284   4.989   5.136   9.559
   41DC      H6 1285   4.913   5.078   9.517
   41DC      C5 1286   5.119   5.098   9.541
   41DC      H5 1287   5.143   5.007   9.488
   41DC      C4 1288   5.213   5.186   9.599
   41DC      N4 1289   5.338   5.156   9.607
   41DC     H41 1290   5.394   5.226   9.647
   41DC     H42 1291   5.373   5.094   9.540
   41DC      N3 1292   5.184   5.300   9.670
   41DC      C2 1293   5.053   5.337   9.678
   41DC      O2 1294   5.029   5.440   9.737
   41DC     C3' 1295   4.580   5.265   9.594
   41DC     H3' 1296   4.525   5.216   9.516
   41DC     C2' 1297   4.721   5.280   9.545
   41DC    H2'1 1298   4.750   5.208   9.473
   41DC    H2'2 1299   4.741   5.367   9.480
   41DC     O3' 1300   4.536   5.395   9.641
   42DG       P 1301   4.489   5.515   9.546
   42DG     O1P 1302   4.382   5.587   9.622
   42DG     O2P 1303   4.456   5.454   9.416
   42DG     O5' 1304   4.608   5.612   9.526
   42DG     C5' 1305   4.668   5.673   9.639
   42DG    H5'1 1306   4.674   5.607   9.723
   42DG    H5'2 1307   4.611   5.761   9.676
   42DG     C4' 1308   4.806   5.723   9.610
   42DG     H4' 1309   4.839   5.772   9.699
   42DG     O4' 1310   4.901   5.621   9.576
   42DG     C1' 1311   5.002   5.679   9.493
   42DG     H1' 1312   5.068   5.727   9.556
   42DG      N9 1313   5.070   5.572   9.429
   42DG      C8 1314   5.016   5.478   9.340
   42DG      H8 1315   4.911   5.474   9.325
   42DG      N7 1316   5.099   5.389   9.298
   42DG      C5 1317   5.219   5.429   9.353
   42DG      C6 1318   5.353   5.375   9.349
   42DG      O6 1319   5.397   5.280   9.290
   42DG      N1 1320   5.449   5.439   9.425
   42DG      H1 1321   5.548   5.403   9.431
   42DG      C2 1322   5.422   5.557   9.492
   42DG      N2 1323   5.521   5.621   9.546
   42DG     H21 1324   5.607   5.582   9.548
   42DG     H22 1325   5.504   5.708   9.593
   42DG      N3 1326   5.301   5.616   9.491
   42DG      C4 1327   5.208   5.545   9.422
   42DG     C3' 1328   4.814   5.826   9.492
   42DG     H3' 1329   4.724   5.833   9.441
   42DG     C2' 1330   4.940   5.785   9.405
   42DG    H2'1 1331   4.903   5.743   9.308
   42DG    H2'2 1332   5.011   5.864   9.390
   42DG     O3' 1333   4.852   5.948   9.554
   43DT       P 1334   4.836   6.090   9.483
   43DT     O1P 1335   4.786   6.190   9.580
   43DT     O2P 1336   4.756   6.065   9.366
   43DT     O5' 1337   4.984   6.140   9.445
   43DT     C5' 1338   5.095   6.137   9.530
   43DT    H5'1 1339   5.085   6.059   9.609
   43DT    H5'2 1340   5.095   6.232   9.587
   43DT     C4' 1341   5.231   6.117   9.458
   43DT     H4' 1342   5.311   6.142   9.531
   43DT     O4' 1343   5.247   5.984   9.400
   43DT     C1' 1344   5.305   6.001   9.275
   43DT     H1' 1345   5.409   6.026   9.294
   43DT      N1 1346   5.296   5.871   9.199
   43DT      C6 1347   5.185   5.825   9.131
   43DT      H6 1348   5.099   5.891   9.113
   43DT      C5 1349   5.182   5.702   9.073
   43DT      C7 1350   5.061   5.661   8.994
   43DT     H71 1351   5.093   5.649   8.882
   43DT     H72 1352   5.026   5.561   9.037
   43DT     H73 1353   4.989   5.742   9.003
   43DT      C4 1354   5.298   5.611   9.091
   43DT      O4 1355   5.306   5.497   9.047
   43DT      N3 1356   5.396   5.663   9.169
   43DT      H3 1357   5.483   5.609   9.170
   43DT      C2 1358   5.410   5.790   9.212
   43DT      O2 1359   5.521   5.830   9.260
   43DT     C3' 1360   5.233   6.215   9.340
   43DT     H3' 1361   5.144   6.283   9.337
   43DT     C2' 1362   5.225   6.123   9.222
   43DT    H2'1 1363   5.126   6.098   9.203
   43DT    H2'2 1364   5.273   6.173   9.133
   43DT     O3' 1365   5.361   6.284   9.323
   44DA       P 1366   5.381   6.428   9.378
   44DA     O1P 1367   5.336   6.431   9.524
   44DA     O2P 1368   5.323   6.526   9.285
   44DA     O5' 1369   5.543   6.450   9.373
   44DA     C5' 1370   5.635   6.402   9.475
   44DA    H5'1 1371   5.611   6.464   9.561
   44DA    H5'2 1372   5.605   6.302   9.503
   44DA     C4' 1373   5.785   6.415   9.446
   44DA     H4' 1374   5.833   6.430   9.547
   44DA     O4' 1375   5.832   6.297   9.387
   44DA     C1' 1376   5.849   6.306   9.244
   44DA     H1' 1377   5.951   6.291   9.214
   44DA      N9 1378   5.765   6.206   9.175
   44DA      C8 1379   5.631   6.213   9.149
   44DA      H8 1380   5.562   6.296   9.175
   44DA      N7 1381   5.583   6.109   9.083
   44DA      C5 1382   5.700   6.037   9.051
   44DA      C6 1383   5.721   5.913   8.985
   44DA      N6 1384   5.626   5.824   8.955
   44DA     H61 1385   5.652   5.739   8.900
   44DA     H62 1386   5.527   5.851   8.959
   44DA      N1 1387   5.848   5.865   8.970
   44DA      C2 1388   5.947   5.934   9.021
   44DA      H2 1389   6.050   5.895   8.995
   44DA      N3 1390   5.935   6.050   9.082
   44DA      C4 1391   5.811   6.098   9.102
   44DA     C3' 1392   5.821   6.531   9.354
   44DA     H3' 1393   5.750   6.612   9.360
   44DA     C2' 1394   5.803   6.455   9.216
   44DA    H2'1 1395   5.702   6.472   9.189
   44DA    H2'2 1396   5.872   6.497   9.143
   44DA     O3' 1397   5.954   6.575   9.390
   45DC       P 1398   6.037   6.676   9.297
   45DC     O1P 1399   6.150   6.717   9.380
   45DC     O2P 1400   5.948   6.783   9.250
   45DC     O5' 1401   6.096   6.598   9.178
   45DC     C5' 1402   6.194   6.499   9.200
   45DC    H5'1 1403   6.156   6.427   9.273
   45DC    H5'2 1404   6.288   6.541   9.227
   45DC     C4' 1405   6.224   6.427   9.068
   45DC     H4' 1406   6.314   6.375   9.088
   45DC     O4' 1407   6.109   6.349   9.040
   45DC     C1' 1408   6.098   6.350   8.901
   45DC     H1' 1409   6.178   6.285   8.863
   45DC      N1 1410   5.971   6.300   8.849
   45DC      C6 1411   5.857   6.374   8.882
   45DC      H6 1412   5.867   6.469   8.931
   45DC      C5 1413   5.733   6.337   8.846
   45DC      H5 1414   5.657   6.402   8.867
   45DC      C4 1415   5.731   6.208   8.783
   45DC      N4 1416   5.619   6.156   8.763
   45DC     H41 1417   5.619   6.068   8.714
   45DC     H42 1418   5.547   6.230   8.753
   45DC      N3 1419   5.836   6.137   8.753
   45DC      C2 1420   5.961   6.181   8.783
   45DC      O2 1421   6.061   6.108   8.760
   45DC     C3' 1422   6.257   6.521   8.952
   45DC     H3' 1423   6.247   6.626   8.985
   45DC     C2' 1424   6.145   6.488   8.852
   45DC    H2'1 1425   6.072   6.565   8.876
   45DC    H2'2 1426   6.189   6.488   8.751
   45DC     O3' 1427   6.387   6.490   8.904
   46DA       P 1428   6.474   6.590   8.816
   46DA     O1P 1429   6.614   6.568   8.842
   46DA     O2P 1430   6.423   6.729   8.824
   46DA     O5' 1431   6.424   6.537   8.673
   46DA     C5' 1432   6.481   6.412   8.626
   46DA    H5'1 1433   6.583   6.428   8.604
   46DA    H5'2 1434   6.461   6.333   8.690
   46DA     C4' 1435   6.409   6.362   8.499
   46DA     H4' 1436   6.452   6.259   8.484
   46DA     O4' 1437   6.272   6.360   8.528
   46DA     C1' 1438   6.202   6.404   8.411
   46DA     H1' 1439   6.204   6.332   8.327
   46DA      N9 1440   6.058   6.415   8.443
   46DA      C8 1441   5.990   6.517   8.500
   46DA      H8 1442   6.035   6.610   8.532
   46DA      N7 1443   5.857   6.496   8.514
   46DA      C5 1444   5.847   6.362   8.463
   46DA      C6 1445   5.742   6.265   8.438
   46DA      N6 1446   5.612   6.276   8.462
   46DA     H61 1447   5.559   6.193   8.443
   46DA     H62 1448   5.579   6.365   8.497
   46DA      N1 1449   5.775   6.141   8.402
   46DA      C2 1450   5.896   6.107   8.366
   46DA      H2 1451   5.915   6.006   8.343
   46DA      N3 1452   6.001   6.189   8.371
   46DA      C4 1453   5.969   6.312   8.420
   46DA     C3' 1454   6.433   6.454   8.374
   46DA     H3' 1455   6.508   6.529   8.390
   46DA     C2' 1456   6.293   6.520   8.374
   46DA    H2'1 1457   6.289   6.604   8.448
   46DA    H2'2 1458   6.267   6.547   8.269
   46DA     O3' 1459   6.468   6.366   8.267
   47DA       P 1460   6.587   6.404   8.166
   47DA     O1P 1461   6.720   6.378   8.229
   47DA     O2P 1462   6.554   6.530   8.107
   47DA     O5' 1463   6.577   6.297   8.048
   47DA     C5' 1464   6.574   6.152   8.078
   47DA    H5'1 1465   6.562   6.129   8.190
   47DA    H5'2 1466   6.670   6.119   8.037
   47DA     C4' 1467   6.464   6.080   8.002
   47DA     H4' 1468   6.485   5.977   8.005
   47DA     O4' 1469   6.340   6.113   8.056
   47DA     C1' 1470   6.256   6.158   7.948
   47DA     H1' 1471   6.192   6.077   7.918
   47DA      N9 1472   6.166   6.271   8.001
   47DA      C8 1473   6.204   6.394   8.049
   47DA      H8 1474   6.311   6.424   8.058
   47DA      N7 1475   6.110   6.470   8.088
   47DA      C5 1476   5.994   6.389   8.064
   47DA      C6 1477   5.854   6.399   8.090
   47DA      N6 1478   5.796   6.499   8.151
   47DA     H61 1479   5.700   6.506   8.156
   47DA     H62 1480   5.851   6.569   8.193
   47DA      N1 1481   5.771   6.300   8.053
   47DA      C2 1482   5.826   6.196   7.994
   47DA      H2 1483   5.759   6.115   7.965
   47DA      N3 1484   5.953   6.169   7.963
   47DA      C4 1485   6.030   6.267   8.009
   47DA     C3' 1486   6.462   6.123   7.855
   47DA     H3' 1487   6.553   6.180   7.822
   47DA     C2' 1488   6.341   6.206   7.843
   47DA    H2'1 1489   6.370   6.311   7.852
   47DA    H2'2 1490   6.282   6.196   7.747
   47DA     O3' 1491   6.469   6.006   7.781
   48DT       P 1492   6.455   6.007   7.618
   48DT     O1P 1493   6.523   5.886   7.573
   48DT     O2P 1494   6.499   6.138   7.576
   48DT     O5' 1495   6.308   5.978   7.578
   48DT     C5' 1496   6.231   5.874   7.634
   48DT    H5'1 1497   6.243   5.862   7.744
   48DT    H5'2 1498   6.265   5.774   7.593
   48DT     C4' 1499   6.084   5.889   7.596
   48DT     H4' 1500   6.032   5.799   7.628
   48DT     O4' 1501   6.031   6.006   7.670
   48DT     C1' 1502   5.962   6.090   7.575
   48DT     H1' 1503   5.857   6.050   7.559
   48DT      N1 1504   5.953   6.228   7.629
   48DT      C6 1505   6.060   6.317   7.626
   48DT      H6 1506   6.152   6.297   7.564
   48DT      C5 1507   6.055   6.440   7.686
   48DT      C7 1508   6.172   6.531   7.684
   48DT     H71 1509   6.260   6.476   7.642
   48DT     H72 1510   6.150   6.631   7.639
   48DT     H73 1511   6.190   6.549   7.792
   48DT      C4 1512   5.928   6.480   7.751
   48DT      O4 1513   5.905   6.585   7.806
   48DT      N3 1514   5.826   6.391   7.741
   48DT      H3 1515   5.740   6.410   7.787
   48DT      C2 1516   5.836   6.262   7.694
   48DT      O2 1517   5.740   6.187   7.696
   48DT     C3' 1518   6.055   5.910   7.446
   48DT     H3' 1519   6.130   5.874   7.371
   48DT     C2' 1520   6.035   6.065   7.446
   48DT    H2'1 1521   6.133   6.109   7.454
   48DT    H2'2 1522   5.973   6.104   7.358
   48DT     O3' 1523   5.928   5.845   7.414
   49DG       P 1524   5.864   5.836   7.267
   49DG     O1P 1525   5.793   5.705   7.260
   49DG     O2P 1526   5.978   5.863   7.169
   49DG     O5' 1527   5.769   5.958   7.265
   49DG     C5' 1528   5.644   5.941   7.329
   49DG    H5'1 1529   5.660   5.920   7.439
   49DG    H5'2 1530   5.591   5.851   7.290
   49DG     C4' 1531   5.562   6.070   7.305
   49DG     H4' 1532   5.461   6.048   7.344
   49DG     O4' 1533   5.607   6.173   7.387
   49DG     C1' 1534   5.599   6.290   7.309
   49DG     H1' 1535   5.492   6.322   7.302
   49DG      N9 1536   5.674   6.399   7.368
   49DG      C8 1537   5.808   6.414   7.370
   49DG      H8 1538   5.876   6.337   7.324
   49DG      N7 1539   5.850   6.521   7.432
   49DG      C5 1540   5.730   6.579   7.487
   49DG      C6 1541   5.722   6.695   7.570
   49DG      O6 1542   5.807   6.764   7.625
   49DG      N1 1543   5.595   6.726   7.596
   49DG      H1 1544   5.575   6.813   7.649
   49DG      C2 1545   5.489   6.656   7.533
   49DG      N2 1546   5.367   6.704   7.555
   49DG     H21 1547   5.349   6.801   7.587
   49DG     H22 1548   5.286   6.647   7.520
   49DG      N3 1549   5.498   6.547   7.454
   49DG      C4 1550   5.624   6.511   7.436
   49DG     C3' 1551   5.560   6.119   7.156
   49DG     H3' 1552   5.605   6.047   7.094
   49DG     C2' 1553   5.644   6.242   7.168
   49DG    H2'1 1554   5.750   6.225   7.172
   49DG    H2'2 1555   5.630   6.312   7.085
   49DG     O3' 1556   5.427   6.130   7.112
   50DT       P 1557   5.385   6.147   6.954
   50DT     O1P 1558   5.292   6.038   6.920
   50DT     O2P 1559   5.508   6.177   6.882
   50DT     O5' 1560   5.298   6.282   6.977
   50DT     C5' 1561   5.196   6.289   7.080
   50DT    H5'1 1562   5.232   6.233   7.168
   50DT    H5'2 1563   5.106   6.241   7.051
   50DT     C4' 1564   5.157   6.428   7.122
   50DT     H4' 1565   5.074   6.417   7.194
   50DT     O4' 1566   5.259   6.499   7.193
   50DT     C1' 1567   5.254   6.634   7.148
   50DT     H1' 1568   5.160   6.681   7.198
   50DT      N1 1569   5.372   6.711   7.189
   50DT      C6 1570   5.488   6.666   7.132
   50DT      H6 1571   5.494   6.581   7.065
   50DT      C5 1572   5.608   6.723   7.175
   50DT      C7 1573   5.735   6.694   7.099
   50DT     H71 1574   5.700   6.654   7.005
   50DT     H72 1575   5.787   6.788   7.087
   50DT     H73 1576   5.801   6.623   7.151
   50DT      C4 1577   5.605   6.840   7.266
   50DT      O4 1578   5.705   6.895   7.314
   50DT      N3 1579   5.485   6.879   7.314
   50DT      H3 1580   5.483   6.964   7.365
   50DT      C2 1581   5.366   6.836   7.257
   50DT      O2 1582   5.266   6.905   7.277
   50DT     C3' 1583   5.116   6.515   7.000
   50DT     H3' 1584   5.102   6.447   6.910
   50DT     C2' 1585   5.223   6.627   6.994
   50DT    H2'1 1586   5.301   6.588   6.937
   50DT    H2'2 1587   5.185   6.720   6.958
   50DT     O3' 1588   4.991   6.563   7.032
   51DA       P 1589   4.903   6.626   6.917
   51DA     O1P 1590   4.783   6.543   6.893
   51DA     O2P 1591   4.984   6.650   6.796
   51DA     O5' 1592   4.847   6.769   6.967
   51DA     C5' 1593   4.784   6.791   7.091
   51DA    H5'1 1594   4.857   6.747   7.158
   51DA    H5'2 1595   4.685   6.742   7.101
   51DA     C4' 1596   4.768   6.939   7.134
   51DA     H4' 1597   4.684   6.945   7.206
   51DA     O4' 1598   4.891   6.999   7.188
   51DA     C1' 1599   4.936   7.100   7.098
   51DA     H1' 1600   4.932   7.198   7.143
   51DA      N9 1601   5.078   7.070   7.055
   51DA      C8 1602   5.119   6.977   6.967
   51DA      H8 1603   5.046   6.914   6.914
   51DA      N7 1604   5.245   6.975   6.944
   51DA      C5 1605   5.292   7.081   7.022
   51DA      C6 1606   5.418   7.130   7.057
   51DA      N6 1607   5.536   7.075   7.020
   51DA     H61 1608   5.619   7.119   7.043
   51DA     H62 1609   5.532   6.998   6.955
   51DA      N1 1610   5.428   7.226   7.147
   51DA      C2 1611   5.317   7.269   7.202
   51DA      H2 1612   5.334   7.339   7.273
   51DA      N3 1613   5.193   7.236   7.188
   51DA      C4 1614   5.189   7.136   7.094
   51DA     C3' 1615   4.719   7.028   7.020
   51DA     H3' 1616   4.676   6.978   6.939
   51DA     C2' 1617   4.846   7.087   6.975
   51DA    H2'1 1618   4.884   7.030   6.890
   51DA    H2'2 1619   4.828   7.193   6.948
   51DA     O3' 1620   4.631   7.125   7.065
   52DT       P 1621   4.554   7.228   6.970
   52DT     O1P 1622   4.431   7.269   7.035
   52DT     O2P 1623   4.555   7.187   6.830
   52DT     O5' 1624   4.646   7.357   6.979
   52DT     C5' 1625   4.666   7.417   7.112
   52DT    H5'1 1626   4.683   7.345   7.190
   52DT    H5'2 1627   4.566   7.460   7.132
   52DT     C4' 1628   4.778   7.515   7.118
   52DT     H4' 1629   4.781   7.561   7.218
   52DT     O4' 1630   4.905   7.458   7.096
   52DT     C1' 1631   4.981   7.547   7.015
   52DT     H1' 1632   5.010   7.632   7.074
   52DT      N1 1633   5.094   7.476   6.943
   52DT      C6 1634   5.076   7.369   6.854
   52DT      H6 1635   4.977   7.329   6.826
   52DT      C5 1636   5.183   7.311   6.785
   52DT      C7 1637   5.153   7.204   6.679
   52DT     H71 1638   5.211   7.216   6.584
   52DT     H72 1639   5.184   7.101   6.702
   52DT     H73 1640   5.047   7.189   6.656
   52DT      C4 1641   5.318   7.352   6.818
   52DT      O4 1642   5.421   7.301   6.775
   52DT      N3 1643   5.326   7.458   6.909
   52DT      H3 1644   5.421   7.500   6.918
   52DT      C2 1645   5.224   7.515   6.978
   52DT      O2 1646   5.247   7.595   7.071
   52DT     C3' 1647   4.759   7.625   7.015
   52DT     H3' 1648   4.669   7.623   6.956
   52DT     C2' 1649   4.870   7.602   6.916
   52DT    H2'1 1650   4.850   7.521   6.842
   52DT    H2'2 1651   4.895   7.696   6.871
   52DT     O3' 1652   4.779   7.757   7.065
   53DA       P 1653   4.694   7.882   7.033
   53DA     O1P 1654   4.614   7.914   7.156
   53DA     O2P 1655   4.619   7.857   6.906
   53DA     O5' 1656   4.786   8.001   6.997
   53DA     C5' 1657   4.884   8.046   7.094
   53DA    H5'1 1658   4.919   7.963   7.152
   53DA    H5'2 1659   4.849   8.124   7.160
   53DA     C4' 1660   5.015   8.091   7.034
   53DA     H4' 1661   5.080   8.141   7.098
   53DA     O4' 1662   5.088   7.977   6.988
   53DA     C1' 1663   5.152   8.016   6.868
   53DA     H1' 1664   5.243   8.078   6.885
   53DA      N9 1665   5.200   7.902   6.779
   53DA      C8 1666   5.124   7.827   6.690
   53DA      H8 1667   5.026   7.855   6.659
   53DA      N7 1668   5.186   7.731   6.632
   53DA      C5 1669   5.310   7.744   6.688
   53DA      C6 1670   5.433   7.679   6.666
   53DA      N6 1671   5.444   7.578   6.586
   53DA     H61 1672   5.523   7.515   6.591
   53DA     H62 1673   5.353   7.551   6.548
   53DA      N1 1674   5.547   7.711   6.731
   53DA      C2 1675   5.539   7.805   6.823
   53DA      H2 1676   5.627   7.832   6.872
   53DA      N3 1677   5.434   7.880   6.853
   53DA      C4 1678   5.324   7.845   6.778
   53DA     C3' 1679   4.998   8.185   6.907
   53DA     H3' 1680   4.896   8.215   6.886
   53DA     C2' 1681   5.052   8.103   6.795
   53DA    H2'1 1682   4.970   8.043   6.755
   53DA    H2'2 1683   5.089   8.165   6.718
   53DA     O3' 1684   5.085   8.291   6.923
   54DA       P 1685   5.086   8.431   6.844
   54DA     O1P 1686   5.034   8.544   6.930
   54DA     O2P 1687   5.041   8.408   6.707
   54DA     O5' 1688   5.244   8.448   6.841
   54DA     C5' 1689   5.313   8.451   6.966
   54DA    H5'1 1690   5.296   8.358   7.023
   54DA    H5'2 1691   5.278   8.528   7.037
   54DA     C4' 1692   5.459   8.459   6.939
   54DA     H4' 1693   5.511   8.473   7.036
   54DA     O4' 1694   5.498   8.339   6.875
   54DA     C1' 1695   5.549   8.357   6.742
   54DA     H1' 1696   5.660   8.353   6.736
   54DA      N9 1697   5.489   8.255   6.649
   54DA      C8 1698   5.356   8.216   6.638
   54DA      H8 1699   5.282   8.274   6.685
   54DA      N7 1700   5.336   8.106   6.572
   54DA      C5 1701   5.471   8.063   6.537
   54DA      C6 1702   5.526   7.956   6.461
   54DA      N6 1703   5.463   7.863   6.393
   54DA     H61 1704   5.515   7.804   6.336
   54DA     H62 1705   5.360   7.860   6.400
   54DA      N1 1706   5.658   7.947   6.445
   54DA      C2 1707   5.740   8.046   6.488
   54DA      H2 1708   5.845   8.039   6.465
   54DA      N3 1709   5.698   8.152   6.555
   54DA      C4 1710   5.563   8.157   6.581
   54DA     C3' 1711   5.510   8.570   6.835
   54DA     H3' 1712   5.438   8.657   6.833
   54DA     C2' 1713   5.508   8.497   6.699
   54DA    H2'1 1714   5.412   8.496   6.648
   54DA    H2'2 1715   5.585   8.554   6.646
   54DA     O3' 1716   5.646   8.607   6.867
   55DT       P 1717   5.722   8.741   6.828
   55DT     O1P 1718   5.821   8.733   6.934
   55DT     O2P 1719   5.623   8.853   6.833
   55DT     O5' 1720   5.789   8.731   6.690
   55DT     C5' 1721   5.901   8.653   6.658
   55DT    H5'1 1722   5.913   8.578   6.737
   55DT    H5'2 1723   5.993   8.705   6.669
   55DT     C4' 1724   5.892   8.596   6.519
   55DT     H4' 1725   5.990   8.542   6.492
   55DT     O4' 1726   5.784   8.499   6.503
   55DT     C1' 1727   5.764   8.486   6.368
   55DT     H1' 1728   5.852   8.453   6.312
   55DT      N1 1729   5.655   8.388   6.331
   55DT      C6 1730   5.523   8.422   6.365
   55DT      H6 1731   5.501   8.508   6.420
   55DT      C5 1732   5.424   8.352   6.314
   55DT      C7 1733   5.285   8.386   6.357
   55DT     H71 1734   5.245   8.462   6.287
   55DT     H72 1735   5.225   8.296   6.367
   55DT     H73 1736   5.284   8.440   6.452
   55DT      C4 1737   5.450   8.226   6.245
   55DT      O4 1738   5.369   8.136   6.209
   55DT      N3 1739   5.576   8.202   6.218
   55DT      H3 1740   5.590   8.127   6.151
   55DT      C2 1741   5.686   8.280   6.253
   55DT      O2 1742   5.797   8.246   6.219
   55DT     C3' 1743   5.857   8.697   6.405
   55DT     H3' 1744   5.825   8.794   6.448
   55DT     C2' 1745   5.743   8.630   6.328
   55DT    H2'1 1746   5.645   8.659   6.355
   55DT    H2'2 1747   5.752   8.645   6.219
   55DT     O3' 1748   5.969   8.723   6.326
   56DA       P 1749   5.996   8.867   6.265
   56DA     O1P 1750   6.091   8.938   6.354
   56DA     O2P 1751   5.862   8.921   6.236
   56DA     O5' 1752   6.077   8.835   6.129
   56DA     C5' 1753   6.201   8.763   6.138
   56DA    H5'1 1754   6.203   8.695   6.224
   56DA    H5'2 1755   6.290   8.828   6.159
   56DA     C4' 1756   6.239   8.689   6.015
   56DA     H4' 1757   6.327   8.636   6.027
   56DA     O4' 1758   6.129   8.596   5.987
   56DA     C1' 1759   6.054   8.636   5.874
   56DA     H1' 1760   6.080   8.574   5.790
   56DA      N9 1761   5.905   8.611   5.898
   56DA      C8 1762   5.812   8.701   5.949
   56DA      H8 1763   5.836   8.807   5.968
   56DA      N7 1764   5.691   8.653   5.968
   56DA      C5 1765   5.708   8.515   5.931
   56DA      C6 1766   5.629   8.399   5.916
   56DA      N6 1767   5.503   8.398   5.949
   56DA     H61 1768   5.438   8.326   5.918
   56DA     H62 1769   5.470   8.483   6.000
   56DA      N1 1770   5.685   8.282   5.888
   56DA      C2 1771   5.810   8.276   5.855
   56DA      H2 1772   5.856   8.184   5.821
   56DA      N3 1773   5.896   8.378   5.858
   56DA      C4 1774   5.839   8.492   5.898
   56DA     C3' 1775   6.249   8.773   5.885
   56DA     H3' 1776   6.289   8.870   5.903
   56DA     C2' 1777   6.107   8.778   5.834
   56DA    H2'1 1778   6.051   8.859   5.875
   56DA    H2'2 1779   6.117   8.800   5.734
   56DA     O3' 1780   6.343   8.708   5.801
   57DC       P 1781   6.359   8.746   5.644
   57DC     O1P 1782   6.489   8.693   5.594
   57DC     O2P 1783   6.337   8.887   5.629
   57DC     O5' 1784   6.245   8.674   5.557
   57DC     C5' 1785   6.235   8.533   5.551
   57DC    H5'1 1786   6.217   8.482   5.652
   57DC    H5'2 1787   6.325   8.490   5.506
   57DC     C4' 1788   6.119   8.498   5.458
   57DC     H4' 1789   6.143   8.395   5.429
   57DC     O4' 1790   5.997   8.493   5.541
   57DC     C1' 1791   5.891   8.559   5.465
   57DC     H1' 1792   5.867   8.487   5.386
   57DC      N1 1793   5.772   8.589   5.541
   57DC      C6 1794   5.761   8.713   5.607
   57DC      H6 1795   5.845   8.790   5.614
   57DC      C5 1796   5.640   8.749   5.660
   57DC      H5 1797   5.626   8.844   5.708
   57DC      C4 1798   5.542   8.649   5.658
   57DC      N4 1799   5.436   8.658   5.733
   57DC     H41 1800   5.388   8.573   5.761
   57DC     H42 1801   5.445   8.731   5.803
   57DC      N3 1802   5.550   8.537   5.593
   57DC      C2 1803   5.663   8.504   5.526
   57DC      O2 1804   5.664   8.408   5.450
   57DC     C3' 1805   6.088   8.597   5.338
   57DC     H3' 1806   6.171   8.657   5.316
   57DC     C2' 1807   5.968   8.677   5.399
   57DC    H2'1 1808   6.007   8.746   5.466
   57DC    H2'2 1809   5.909   8.727   5.320
   57DC     O3' 1810   6.029   8.532   5.222
   58DG       P 1811   6.107   8.510   5.087
   58DG     O1P 1812   6.219   8.415   5.104
   58DG     O2P 1813   6.125   8.652   5.037
   58DG     O5' 1814   5.989   8.444   4.995
   58DG     C5' 1815   5.973   8.307   4.991
   58DG    H5'1 1816   5.992   8.272   5.095
   58DG    H5'2 1817   6.041   8.256   4.924
   58DG     C4' 1818   5.839   8.250   4.964
   58DG     H4' 1819   5.857   8.140   4.951
   58DG     O4' 1820   5.742   8.277   5.059
   58DG     C1' 1821   5.635   8.358   5.012
   58DG     H1' 1822   5.543   8.303   4.998
   58DG      N9 1823   5.614   8.463   5.112
   58DG      C8 1824   5.700   8.555   5.155
   58DG      H8 1825   5.805   8.560   5.122
   58DG      N7 1826   5.657   8.643   5.239
   58DG      C5 1827   5.519   8.616   5.238
   58DG      C6 1828   5.410   8.676   5.307
   58DG      O6 1829   5.408   8.777   5.378
   58DG      N1 1830   5.292   8.606   5.304
   58DG      H1 1831   5.207   8.653   5.338
   58DG      C2 1832   5.278   8.498   5.225
   58DG      N2 1833   5.160   8.442   5.204
   58DG     H21 1834   5.081   8.498   5.231
   58DG     H22 1835   5.149   8.360   5.159
   58DG      N3 1836   5.374   8.438   5.157
   58DG      C4 1837   5.492   8.503   5.162
   58DG     C3' 1838   5.784   8.300   4.831
   58DG     H3' 1839   5.870   8.337   4.770
   58DG     C2' 1840   5.681   8.404   4.874
   58DG    H2'1 1841   5.731   8.505   4.875
   58DG    H2'2 1842   5.598   8.399   4.801
   58DG     O3' 1843   5.721   8.191   4.766
   59DC       P 1844   5.691   8.194   4.610
   59DC     O1P 1845   5.684   8.056   4.566
   59DC     O2P 1846   5.788   8.283   4.545
   59DC     O5' 1847   5.552   8.264   4.598
   59DC     C5' 1848   5.436   8.197   4.644
   59DC    H5'1 1849   5.460   8.162   4.742
   59DC    H5'2 1850   5.417   8.113   4.581
   59DC     C4' 1851   5.310   8.282   4.643
   59DC     H4' 1852   5.228   8.224   4.668
   59DC     O4' 1853   5.337   8.386   4.735
   59DC     C1' 1854   5.281   8.508   4.686
   59DC     H1' 1855   5.175   8.504   4.689
   59DC      N1 1856   5.335   8.617   4.766
   59DC      C6 1857   5.465   8.648   4.758
   59DC      H6 1858   5.530   8.599   4.677
   59DC      C5 1859   5.517   8.733   4.847
   59DC      H5 1860   5.619   8.758   4.832
   59DC      C4 1861   5.434   8.785   4.956
   59DC      N4 1862   5.479   8.873   5.043
   59DC     H41 1863   5.411   8.902   5.115
   59DC     H42 1864   5.577   8.877   5.054
   59DC      N3 1865   5.310   8.760   4.953
   59DC      C2 1866   5.252   8.672   4.866
   59DC      O2 1867   5.135   8.641   4.884
   59DC     C3' 1868   5.290   8.360   4.510
   59DC     H3' 1869   5.338   8.312   4.424
   59DC     C2' 1870   5.327   8.503   4.537
   59DC    H2'1 1871   5.427   8.519   4.514
   59DC    H2'2 1872   5.268   8.575   4.476
   59DC     O3' 1873   5.143   8.365   4.484
   60DA       P 1874   5.078   8.279   4.362
   60DA     O1P 1875   5.136   8.147   4.341
   60DA     O2P 1876   5.055   8.365   4.244
   60DA     O5' 1877   4.928   8.245   4.415
   60DA     C5' 1878   4.906   8.182   4.536
   60DA    H5'1 1879   4.999   8.189   4.596
   60DA    H5'2 1880   4.884   8.077   4.512
   60DA     C4' 1881   4.799   8.237   4.627
   60DA     H4' 1882   4.771   8.174   4.705
   60DA     O4' 1883   4.846   8.360   4.688
   60DA     C1' 1884   4.773   8.474   4.644
   60DA     H1' 1885   4.703   8.501   4.721
   60DA      N9 1886   4.863   8.587   4.632
   60DA      C8 1887   4.953   8.612   4.536
   60DA      H8 1888   4.976   8.530   4.469
   60DA      N7 1889   5.015   8.730   4.543
   60DA      C5 1890   4.945   8.787   4.648
   60DA      C6 1891   4.945   8.903   4.725
   60DA      N6 1892   5.031   9.004   4.702
   60DA     H61 1893   5.038   9.073   4.772
   60DA     H62 1894   5.073   9.002   4.613
   60DA      N1 1895   4.870   8.925   4.831
   60DA      C2 1896   4.788   8.836   4.865
   60DA      H2 1897   4.720   8.857   4.945
   60DA      N3 1898   4.763   8.717   4.806
   60DA      C4 1899   4.844   8.706   4.695
   60DA     C3' 1900   4.679   8.283   4.544
   60DA     H3' 1901   4.669   8.227   4.449
   60DA     C2' 1902   4.697   8.427   4.513
   60DA    H2'1 1903   4.752   8.436   4.426
   60DA    H2'2 1904   4.603   8.482   4.497
   60DA     O3' 1905   4.570   8.256   4.631
   61DC       P 1906   4.418   8.268   4.576
   61DC     O1P 1907   4.335   8.180   4.664
   61DC     O2P 1908   4.415   8.244   4.428
   61DC     O5' 1909   4.379   8.418   4.607
   61DC     C5' 1910   4.316   8.497   4.514
   61DC    H5'1 1911   4.224   8.454   4.479
   61DC    H5'2 1912   4.395   8.523   4.442
   61DC     C4' 1913   4.284   8.623   4.593
   61DC     H4' 1914   4.258   8.592   4.695
   61DC     O4' 1915   4.411   8.691   4.612
   61DC     C1' 1916   4.392   8.818   4.560
   61DC     H1' 1917   4.347   8.888   4.634
   61DC      N1 1918   4.523   8.873   4.505
   61DC      C6 1919   4.601   8.814   4.403
   61DC      H6 1920   4.576   8.721   4.368
   61DC      C5 1921   4.720   8.864   4.363
   61DC      H5 1922   4.780   8.804   4.293
   61DC      C4 1923   4.764   8.981   4.436
   61DC      N4 1924   4.875   9.041   4.403
   61DC     H41 1925   4.903   9.115   4.474
   61DC     H42 1926   4.936   8.982   4.350
   61DC      N3 1927   4.692   9.046   4.525
   61DC      C2 1928   4.572   8.993   4.560
   61DC      O2 1929   4.511   9.053   4.645
   61DC     C3' 1930   4.183   8.709   4.514
   61DC     H3' 1931   4.128   8.649   4.435
   61DC     C2' 1932   4.286   8.805   4.448
   61DC    H2'1 1933   4.332   8.745   4.360
   61DC    H2'2 1934   4.233   8.900   4.413
   61DC     O3' 1935   4.107   8.774   4.618
   62DA       P 1936   4.021   8.903   4.592
   62DA     O1P 1937   3.916   8.907   4.698
   62DA     O2P 1938   3.975   8.899   4.452
   62DA     O5' 1939   4.116   9.022   4.616
   62DA     C5' 1940   4.160   9.053   4.748
   62DA    H5'1 1941   4.267   9.025   4.762
   62DA    H5'2 1942   4.097   9.010   4.824
   62DA     C4' 1943   4.131   9.205   4.784
   62DA     H4' 1944   4.095   9.206   4.880
   62DA     O4' 1945   4.244   9.294   4.753
   62DA     C1' 1946   4.218   9.351   4.624
   62DA     H1' 1947   4.232   9.457   4.632
   62DA      N9 1948   4.314   9.308   4.514
   62DA      C8 1949   4.309   9.212   4.418
   62DA      H8 1950   4.218   9.154   4.403
   62DA      N7 1951   4.420   9.193   4.350
   62DA      C5 1952   4.503   9.296   4.394
   62DA      C6 1953   4.634   9.342   4.357
   62DA      N6 1954   4.716   9.294   4.266
   62DA     H61 1955   4.812   9.332   4.257
   62DA     H62 1956   4.686   9.214   4.207
   62DA      N1 1957   4.680   9.454   4.407
   62DA      C2 1958   4.610   9.519   4.497
   62DA      H2 1959   4.654   9.617   4.519
   62DA      N3 1960   4.497   9.480   4.551
   62DA      C4 1961   4.444   9.366   4.492
   62DA     C3' 1962   4.014   9.279   4.721
   62DA     H3' 1963   3.930   9.213   4.704
   62DA     C2' 1964   4.067   9.339   4.591
   62DA    H2'1 1965   4.056   9.264   4.511
   62DA    H2'2 1966   4.014   9.426   4.555
   62DA     O3' 1967   3.963   9.389   4.801
   63DT       P 1968   3.864   9.511   4.754
   63DT     O1P 1969   3.792   9.549   4.880
   63DT     O2P 1970   3.777   9.467   4.647
   63DT     O5' 1971   3.954   9.631   4.701
   63DT     C5' 1972   4.059   9.683   4.778
   63DT    H5'1 1973   4.111   9.601   4.829
   63DT    H5'2 1974   4.007   9.744   4.843
   63DT     C4' 1975   4.159   9.762   4.706
   63DT     H4' 1976   4.222   9.808   4.784
   63DT     O4' 1977   4.233   9.686   4.611
   63DT     C1' 1978   4.283   9.777   4.516
   63DT     H1' 1979   4.373   9.833   4.553
   63DT      N1 1980   4.326   9.710   4.389
   63DT      C6 1981   4.236   9.627   4.321
   63DT      H6 1982   4.137   9.607   4.355
   63DT      C5 1983   4.281   9.559   4.217
   63DT      C7 1984   4.184   9.460   4.152
   63DT     H71 1985   4.198   9.467   4.049
   63DT     H72 1986   4.190   9.353   4.174
   63DT     H73 1987   4.081   9.488   4.174
   63DT      C4 1988   4.422   9.565   4.173
   63DT      O4 1989   4.479   9.488   4.090
   63DT      N3 1990   4.489   9.674   4.224
   63DT      H3 1991   4.582   9.695   4.195
   63DT      C2 1992   4.449   9.742   4.333
   63DT      O2 1993   4.523   9.827   4.385
   63DT     C3' 1994   4.095   9.881   4.631
   63DT     H3' 1995   3.984   9.878   4.620
   63DT     C2' 1996   4.168   9.870   4.494
   63DT    H2'1 1997   4.105   9.833   4.411
   63DT    H2'2 1998   4.202   9.970   4.471
   63DT     O3' 1999   4.120  10.008   4.702
   64DG       P 2000   4.092  10.154   4.642
   64DG     O1P 2001   4.071  10.246   4.762
   64DG     O2P 2002   3.991  10.158   4.530
   64DG     O5' 2003   4.231  10.201   4.579
   64DG     C5' 2004   4.356  10.206   4.651
   64DG    H5'1 2005   4.396  10.103   4.653
   64DG    H5'2 2006   4.336  10.229   4.752
   64DG     C4' 2007   4.457  10.300   4.586
   64DG     H4' 2008   4.541  10.323   4.662
   64DG     O4' 2009   4.525  10.242   4.475
   64DG     C1' 2010   4.471  10.281   4.351
   64DG     H1' 2011   4.545  10.333   4.292
   64DG      N9 2012   4.421  10.171   4.261
   64DG      C8 2013   4.304  10.107   4.265
   64DG      H8 2014   4.222  10.137   4.329
   64DG      N7 2015   4.293  10.009   4.177
   64DG      C5 2016   4.422  10.004   4.117
   64DG      C6 2017   4.468   9.930   4.001
   64DG      O6 2018   4.409   9.841   3.938
   64DG      N1 2019   4.592   9.968   3.958
   64DG      H1 2020   4.645   9.914   3.895
   64DG      C2 2021   4.658  10.065   4.019
   64DG      N2 2022   4.784  10.089   3.986
   64DG     H21 2023   4.827  10.042   3.910
   64DG     H22 2024   4.839  10.158   4.035
   64DG      N3 2025   4.616  10.138   4.125
   64DG      C4 2026   4.498  10.102   4.174
   64DG     C3' 2027   4.401  10.427   4.531
   64DG     H3' 2028   4.317  10.449   4.593
   64DG     C2' 2029   4.363  10.387   4.383
   64DG    H2'1 2030   4.259  10.349   4.392
   64DG    H2'2 2031   4.364  10.467   4.303
   64DG     O3' 2032   4.494  10.536   4.532
   65DC       P 2033   4.463  10.680   4.464
   65DC     O1P 2034   4.539  10.785   4.532
   65DC     O2P 2035   4.318  10.699   4.454
   65DC     O5' 2036   4.521  10.669   4.311
   65DC     C5' 2037   4.664  10.676   4.296
   65DC    H5'1 2038   4.712  10.589   4.336
   65DC    H5'2 2039   4.691  10.762   4.356
   65DC     C4' 2040   4.704  10.678   4.147
   65DC     H4' 2041   4.812  10.686   4.154
   65DC     O4' 2042   4.662  10.562   4.078
   65DC     C1' 2043   4.570  10.598   3.977
   65DC     H1' 2044   4.625  10.601   3.884
   65DC      N1 2045   4.471  10.491   3.960
   65DC      C6 2046   4.337  10.490   4.006
   65DC      H6 2047   4.296  10.568   4.069
   65DC      C5 2048   4.249  10.392   3.966
   65DC      H5 2049   4.146  10.399   4.000
   65DC      C4 2050   4.294  10.292   3.879
   65DC      N4 2051   4.210  10.192   3.849
   65DC     H41 2052   4.257  10.112   3.807
   65DC     H42 2053   4.121  10.189   3.895
   65DC      N3 2054   4.423  10.282   3.840
   65DC      C2 2055   4.510  10.383   3.872
   65DC      O2 2056   4.618  10.385   3.817
   65DC     C3' 2057   4.644  10.797   4.068
   65DC     H3' 2058   4.624  10.888   4.132
   65DC     C2' 2059   4.513  10.736   4.011
   65DC    H2'1 2060   4.440  10.719   4.084
   65DC    H2'2 2061   4.476  10.794   3.923
   65DC     O3' 2062   4.726  10.832   3.962
   66DG3      P 2063   4.857  10.926   3.978
   66DG3    O1P 2064   4.933  10.892   4.099
   66DG3    O2P 2065   4.818  11.066   3.952
   66DG3    O5' 2066   4.943  10.881   3.845
   66DG3    C5' 2067   5.008  10.751   3.836
   66DG3   H5'1 2068   4.944  10.671   3.873
   66DG3   H5'2 2069   5.096  10.758   3.898
   66DG3    C4' 2070   5.052  10.708   3.696
   66DG3    H4' 2071   5.149  10.664   3.705
   66DG3    O4' 2072   4.957  10.615   3.643
   66DG3    C1' 2073   4.880  10.677   3.536
   66DG3    H1' 2074   4.889  10.632   3.440
   66DG3     N9 2075   4.742  10.652   3.573
   66DG3     C8 2076   4.669  10.715   3.673
   66DG3     H8 2077   4.701  10.798   3.728
   66DG3     N7 2078   4.539  10.674   3.663
   66DG3     C5 2079   4.540  10.568   3.568
   66DG3     C6 2080   4.435  10.485   3.512
   66DG3     O6 2081   4.315  10.490   3.535
   66DG3     N1 2082   4.482  10.392   3.417
   66DG3     H1 2083   4.418  10.330   3.375
   66DG3     C2 2084   4.605  10.394   3.370
   66DG3     N2 2085   4.642  10.296   3.293
   66DG3    H21 2086   4.576  10.234   3.264
   66DG3    H22 2087   4.745  10.284   3.275
   66DG3     N3 2088   4.704  10.470   3.409
   66DG3     C4 2089   4.666  10.559   3.511
   66DG3    C3' 2090   5.065  10.817   3.590
   66DG3    H3' 2091   5.087  10.912   3.640
   66DG3    C2' 2092   4.921  10.821   3.531
   66DG3   H2'1 2093   4.857  10.890   3.587
   66DG3   H2'2 2094   4.923  10.847   3.431
   66DG3    O3' 2095   5.161  10.779   3.489
   66DG3    H3T 2096   5.137  10.697   3.445
   67SOL     OW 2097  10.592   3.877   2.722
   67SOL    HW1 2098  10.682   3.893   2.752
   67SOL    HW2 2099  10.587   3.781   2.714
   68SOL     OW 2100   8.481   7.346   1.916
   68SOL    HW1 2101   8.458   7.439   1.910
   68SOL    HW2 2102   8.475   7.326   2.010
   69SOL     OW 2103   0.459  12.331   9.505
   69SOL    HW1 2104   0.453  12.375   9.420
   69SOL    HW2 2105   0.535  12.274   9.497
   70SOL     OW 2106  12.113   6.201   3.926
   70SOL    HW1 2107  12.187   6.262   3.923
   70SOL    HW2 2108  12.150   6.119   3.957
   71SOL     OW 2109  12.081   4.256   6.290
   71SOL    HW1 2110  12.052   4.184   6.347
   71SOL    HW2 2111  12.107   4.212   6.208
   72SOL     OW 2112   0.068   9.057   6.443
   72SOL    HW1 2113   0.085   8.986   6.505
   72SOL    HW2 2114   0.155   9.090   6.420
   73SOL     OW 2115  11.467   8.927   0.442
   73SOL    HW1 2116  11.435   8.848   0.485
   73SOL    HW2 2117  11.557   8.907   0.418
   74SOL     OW 2118   0.536  11.401   8.152
   74SOL    HW1 2119   0.568  11.378   8.065
   74SOL    HW2 2120   0.534  11.317   8.199
   75SOL     OW 2121   0.406  13.180  10.753
   75SOL    HW1 2122   0.323  13.217  10.785
   75SOL    HW2 2123   0.457  13.164  10.832
   76SOL     OW 2124   0.141   5.487  12.654
   76SOL    HW1 2125   0.123   5.580  12.660
   76SOL    HW2 2126   0.136   5.455  12.744
   77SOL     OW 2127   5.452   2.992   9.589
   77SOL    HW1 2128   5.479   2.996   9.498
   77SOL    HW2 2129   5.513   2.929   9.629
   78SOL     OW 2130   0.694  13.611  13.494
   78SOL    HW1 2131   0.719  13.702  13.482
   78SOL    HW2 2132   0.612  13.615  13.543
   79SOL     OW 2133   3.422   9.829   8.116
   79SOL    HW1 2134   3.439   9.891   8.045
   79SOL    HW2 2135   3.443   9.743   8.078
   80SOL     OW 2136   4.403   5.449   5.423
   80SOL    HW1 2137   4.386   5.512   5.353
   80SOL    HW2 2138   4.479   5.399   5.393
   81SOL     OW 2139  12.389   9.269  12.712
   81SOL    HW1 2140  12.402   9.239  12.802
   81SOL    HW2 2141  12.327   9.206  12.674
   82SOL     OW 2142   9.084   2.103  14.785
   82SOL    HW1 2143   8.991   2.113  14.762
   82SOL    HW2 2144   9.126   2.179  14.746
   83SOL     OW 2145  13.867   2.002  14.578
   83SOL    HW1 2146  13.800   2.057  14.538
   83SOL    HW2 2147  13.942   2.009  14.520
   84SOL     OW 2148   9.120   9.507  14.352
   84SOL    HW1 2149   9.199   9.516  14.298
   84SOL    HW2 2150   9.053   9.555  14.303
   85SOL     OW 2151   9.864  13.235   8.763
   85SOL    HW1 2152   9.781  13.189   8.757
   85SOL    HW2 2153   9.844  13.315   8.811
   86SOL     OW 2154  13.421   1.574  11.307
   86SOL    HW1 2155  13.495   1.529  11.347
   86SOL    HW2 2156  13.346   1.550  11.361
   87SOL     OW 2157   5.748   9.814   2.535
   87SOL    HW1 2158   5.810   9.836   2.605
   87SOL    HW2 2159   5.681   9.762   2.579
   88SOL     OW 2160   2.766   3.859   9.890
   88SOL    HW1 2161   2.732   3.948   9.896
   88SOL    HW2 2162   2.860   3.868   9.905
   89SOL     OW 2163   9.144  10.273   0.070
   89SOL    HW1 2164   9.166  10.277  14.845
   89SOL    HW2 2165   9.133  10.364   0.096
   90SOL     OW 2166   3.375  11.834  13.892
   90SOL    HW1 2167   3.396  11.789  13.811
   90SOL    HW2 2168   3.364  11.926  13.867
   91SOL     OW 2169  12.344   1.595   3.954
   91SOL    HW1 2170  12.293   1.675   3.965
   91SOL    HW2 2171  12.284   1.534   3.912
   92SOL     OW 2172   0.141   7.422   6.627
   92SOL    HW1 2173   0.151   7.350   6.565
   92SOL    HW2 2174   0.175   7.387   6.709
   93SOL     OW 2175  14.205   8.862   2.834
   93SOL    HW1 2176  14.218   8.836   2.743
   93SOL    HW2 2177  14.128   8.918   2.832
   94SOL     OW 2178   2.585   8.560   0.092
   94SOL    HW1 2179   2.613   8.522   0.009
   94SOL    HW2 2180   2.586   8.655   0.078
   95SOL     OW 2181   8.989  10.889   9.992
   95SOL    HW1 2182   8.909  10.941   9.983
   95SOL    HW2 2183   8.966  10.804   9.954
   96SOL     OW 2184   5.164  13.136  12.425
   96SOL    HW1 2185   5.123  13.195  12.488
   96SOL    HW2 2186   5.141  13.049  12.457
   97SOL     OW 2187   2.072  13.707  14.325
   97SOL    HW1 2188   2.053  13.671  14.411
   97SOL    HW2 2189   1.991  13.697  14.275
   98SOL     OW 2190   0.182   4.040   5.034
   98SOL    HW1 2191   0.198   3.995   4.951
   98SOL    HW2 2192   0.195   4.133   5.014
   99SOL     OW 2193  10.944   1.315   9.874
   99SOL    HW1 2194  10.913   1.224   9.867
   99SOL    HW2 2195  11.038   1.309   9.861
  100SOL     OW 2196   8.177   5.630  12.336
  100SOL    HW1 2197   8.262   5.587  12.333
  100SOL    HW2 2198   8.116   5.567  12.298
  101SOL     OW 2199   5.765   0.499  13.191
  101SOL    HW1 2200   5.788   0.436  13.259
  101SOL    HW2 2201   5.673   0.519  13.207
  102SOL     OW 2202   2.943  13.199   0.714
  102SOL    HW1 2203   2.994  13.144   0.774
  102SOL    HW2 2204   2.996  13.278   0.703
  103SOL     OW 2205   9.967  12.367  10.954
  103SOL    HW1 2206  10.045  12.421  10.957
  103SOL    HW2 2207   9.964  12.333  10.865
  104SOL     OW 2208   9.730   5.175   1.773
  104SOL    HW1 2209   9.701   5.150   1.686
  104SOL    HW2 2210   9.718   5.270   1.776
  105SOL     OW 2211   5.154   2.728   2.206
  105SOL    HW1 2212   5.208   2.649   2.207
  105SOL    HW2 2213   5.184   2.778   2.282
  106SOL     OW 2214   2.472   8.047   4.734
  106SOL    HW1 2215   2.490   8.024   4.643
  106SOL    HW2 2216   2.378   8.035   4.744
  107SOL     OW 2217  14.081  12.785   9.557
  107SOL    HW1 2218  14.059  12.793   9.464
  107SOL    HW2 2219  14.130  12.864   9.577
  108SOL     OW 2220   7.255  14.661   1.802
  108SOL    HW1 2221   7.171  14.672   1.757
  108SOL    HW2 2222   7.317  14.712   1.750
  109SOL     OW 2223   7.931   5.868   0.883
  109SOL    HW1 2224   7.931   5.790   0.828
  109SOL    HW2 2225   8.022   5.876   0.913
  110SOL     OW 2226  12.103   6.504   7.083
  110SOL    HW1 2227  12.128   6.425   7.131
  110SOL    HW2 2228  12.058   6.558   7.148
  111SOL     OW 2229   3.403   9.705   6.937
  111SOL    HW1 2230   3.370   9.726   6.850
  111SOL    HW2 2231   3.490   9.744   6.940
  112SOL     OW 2232   2.298   7.991   7.311
  112SOL    HW1 2233   2.328   8.080   7.292
  112SOL    HW2 2234   2.210   8.002   7.345
  113SOL     OW 2235   3.157   1.918   2.252
  113SOL    HW1 2236   3.062   1.916   2.262
  113SOL    HW2 2237   3.189   1.965   2.328
  114SOL     OW 2238   3.583   7.531   9.354
  114SOL    HW1 2239   3.562   7.588   9.279
  114SOL    HW2 2240   3.593   7.444   9.315
  115SOL     OW 2241   5.756   1.764   5.068
  115SOL    HW1 2242   5.786   1.853   5.046
  115SOL    HW2 2243   5.833   1.721   5.104
  116SOL     OW 2244   3.500  13.906  14.392
  116SOL    HW1 2245   3.474  13.893  14.483
  116SOL    HW2 2246   3.581  13.857  14.383
  117SOL     OW 2247  11.820   9.263   4.952
  117SOL    HW1 2248  11.788   9.219   5.031
  117SOL    HW2 2249  11.894   9.210   4.923
  118SOL     OW 2250   2.069   4.999   5.052
  118SOL    HW1 2251   2.086   4.995   5.146
  118SOL    HW2 2252   2.156   4.993   5.011
  119SOL     OW 2253   4.287  13.083   4.443
  119SOL    HW1 2254   4.359  13.071   4.505
  119SOL    HW2 2255   4.211  13.045   4.486
  120SOL     OW 2256   5.563  10.426   7.031
  120SOL    HW1 2257   5.615  10.480   6.970
  120SOL    HW2 2258   5.580  10.465   7.117
  121SOL     OW 2259   3.568   3.641   2.599
  121SOL    HW1 2260   3.527   3.721   2.630
  121SOL    HW2 2261   3.634   3.620   2.666
  122SOL     OW 2262   3.886  11.348   3.393
  122SOL    HW1 2263   3.955  11.411   3.412
  122SOL    HW2 2264   3.806  11.389   3.427
  123SOL     OW 2265  11.826  13.378  10.492
  123SOL    HW1 2266  11.861  13.410  10.575
  123SOL    HW2 2267  11.791  13.291  10.513
  124SOL     OW 2268   2.894  10.401   6.848
  124SOL    HW1 2269   2.900  10.444   6.762
  124SOL    HW2 2270   2.934  10.315   6.835
  125SOL     OW 2271  10.471   8.202   4.233
  125SOL    HW1 2272  10.429   8.175   4.152
  125SOL    HW2 2273  10.562   8.218   4.208
  126SOL     OW 2274   7.414   6.330   6.814
  126SOL    HW1 2275   7.358   6.345   6.738
  126SOL    HW2 2276   7.443   6.418   6.840
  127SOL     OW 2277  11.883   5.965   8.190
  127SOL    HW1 2278  11.788   5.975   8.190
  127SOL    HW2 2279  11.900   5.897   8.124
  128SOL     OW 2280   7.333   0.387   2.162
  128SOL    HW1 2281   7.358   0.296   2.175
  128SOL    HW2 2282   7.366   0.409   2.075
  129SOL     OW 2283   3.183   6.475  10.100
  129SOL    HW1 2284   3.251   6.408  10.109
  129SOL    HW2 2285   3.102   6.426  10.089
  130SOL     OW 2286   4.598   9.687   6.932
  130SOL    HW1 2287   4.693   9.696   6.943
  130SOL    HW2 2288   4.565   9.671   7.020
  131SOL     OW 2289   0.333  10.985   1.737
  131SOL    HW1 2290   0.260  10.985   1.799
  131SOL    HW2 2291   0.309  11.051   1.673
  132SOL     OW 2292   9.222   7.259  14.587
  132SOL    HW1 2293   9.223   7.165  14.602
  132SOL    HW2 2294   9.215   7.297  14.674
  133SOL     OW 2295  12.614  10.968   9.110
  133SOL    HW1 2296  12.661  10.896   9.068
  133SOL    HW2 2297  12.658  10.981   9.194
  134SOL     OW 2298   8.613  10.189  12.066
  134SOL    HW1 2299   8.698  10.232  12.060
  134SOL    HW2 2300   8.627  10.115  12.125
  135SOL     OW 2301   5.512   0.753  12.793
  135SOL    HW1 2302   5.447   0.819  12.771
  135SOL    HW2 2303   5.501   0.685  12.726
  136SOL     OW 2304  11.981   9.991   0.554
  136SOL    HW1 2305  11.941  10.026   0.475
  136SOL    HW2 2306  11.935  10.036   0.625
  137SOL     OW 2307   5.073   2.962   1.001
  137SOL    HW1 2308   5.096   3.031   1.063
  137SOL    HW2 2309   4.993   2.994   0.958
  138SOL     OW 2310   8.213   8.936   1.751
  138SOL    HW1 2311   8.145   8.921   1.817
  138SOL    HW2 2312   8.205   8.861   1.692
  139SOL     OW 2313   7.816  10.971  10.806
  139SOL    HW1 2314   7.747  10.995  10.868
  139SOL    HW2 2315   7.782  10.997  10.720
  140SOL     OW 2316   7.157   0.299   6.216
  140SOL    HW1 2317   7.071   0.332   6.243
  140SOL    HW2 2318   7.163   0.211   6.255
  141SOL     OW 2319   3.691  12.898   6.174
  141SOL    HW1 2320   3.651  12.819   6.139
  141SOL    HW2 2321   3.785  12.879   6.176
  142SOL     OW 2322   0.811  12.269   3.245
  142SOL    HW1 2323   0.802  12.315   3.162
  142SOL    HW2 2324   0.876  12.320   3.294
  143SOL     OW 2325   8.358   6.896  10.600
  143SOL    HW1 2326   8.380   6.842  10.676
  143SOL    HW2 2327   8.374   6.986  10.629
  144SOL     OW 2328   5.710   9.093  12.354
  144SOL    HW1 2329   5.787   9.149  12.344
  144SOL    HW2 2330   5.672   9.119  12.437
  145SOL     OW 2331   0.361  11.641   8.312
  145SOL    HW1 2332   0.445  11.672   8.347
  145SOL    HW2 2333   0.385  11.569   8.254
  146SOL     OW 2334   3.318   2.368   1.594
  146SOL    HW1 2335   3.380   2.426   1.638
  146SOL    HW2 2336   3.362   2.283   1.593
  147SOL     OW 2337   8.663  12.256   7.200
  147SOL    HW1 2338   8.735  12.217   7.150
  147SOL    HW2 2339   8.647  12.340   7.158
  148SOL     OW 2340   8.719   1.603   5.739
  148SOL    HW1 2341   8.719   1.508   5.737
  148SOL    HW2 2342   8.670   1.626   5.818
  149SOL     OW 2343   2.576   9.966   1.095
  149SOL    HW1 2344   2.494   9.929   1.062
  149SOL    HW2 2345   2.602   9.906   1.165
  150SOL     OW 2346   4.190   7.150  12.371
  150SOL    HW1 2347   4.101   7.141  12.339
  150SOL    HW2 2348   4.244   7.160  12.292
  151SOL     OW 2349   2.388   7.108   8.622
  151SOL    HW1 2350   2.416   7.052   8.694
  151SOL    HW2 2351   2.428   7.193   8.640
  152SOL     OW 2352   8.512   7.341  11.158
  152SOL    HW1 2353   8.493   7.270  11.096
  152SOL    HW2 2354   8.591   7.383  11.124
  153SOL     OW 2355   8.652  13.253  14.599
  153SOL    HW1 2356   8.604  13.207  14.530
  153SOL    HW2 2357   8.585  13.296  14.651
  154SOL     OW 2358   3.761   0.300   1.407
  154SOL    HW1 2359   3.771   0.375   1.465
  154SOL    HW2 2360   3.835   0.243   1.427
  155SOL     OW 2361   6.867   2.200   5.586
  155SOL    HW1 2362   6.851   2.150   5.665
  155SOL    HW2 2363   6.939   2.259   5.609
  156SOL     OW 2364   0.457   7.729  14.516
  156SOL    HW1 2365   0.513   7.687  14.582
  156SOL    HW2 2366   0.399   7.786  14.566
  157SOL     OW 2367   1.793   7.927   5.380
  157SOL    HW1 2368   1.859   7.882   5.327
  157SOL    HW2 2369   1.841   8.000   5.419
  158SOL     OW 2370   1.852   4.101   1.074
  158SOL    HW1 2371   1.868   4.189   1.040
  158SOL    HW2 2372   1.790   4.113   1.146
  159SOL     OW 2373   6.243  13.401   4.265
  159SOL    HW1 2374   6.200  13.366   4.187
  159SOL    HW2 2375   6.235  13.496   4.256
  160SOL     OW 2376   3.669   7.606   4.982
  160SOL    HW1 2377   3.719   7.641   4.908
  160SOL    HW2 2378   3.729   7.545   5.024
  161SOL     OW 2379   9.823   1.194   2.607
  161SOL    HW1 2380   9.731   1.204   2.583
  161SOL    HW2 2381   9.866   1.164   2.527
  162SOL     OW 2382   9.984   9.008   5.102
  162SOL    HW1 2383   9.970   9.091   5.148
  162SOL    HW2 2384  10.010   9.033   5.014
  163SOL     OW 2385   7.383   6.141   2.713
  163SOL    HW1 2386   7.467   6.133   2.758
  163SOL    HW2 2387   7.387   6.225   2.667
  164SOL     OW 2388   1.494   0.895  14.178
  164SOL    HW1 2389   1.418   0.904  14.120
  164SOL    HW2 2390   1.492   0.973  14.233
  165SOL     OW 2391   4.531  12.460   0.213
  165SOL    HW1 2392   4.622  12.450   0.241
  165SOL    HW2 2393   4.497  12.370   0.210
  166SOL     OW 2394  10.840  10.065  13.620
  166SOL    HW1 2395  10.829  10.024  13.706
  166SOL    HW2 2396  10.753  10.097  13.597
  167SOL     OW 2397  10.935   3.541   8.467
  167SOL    HW1 2398  10.927   3.594   8.547
  167SOL    HW2 2399  11.000   3.475   8.489
  168SOL     OW 2400   0.588   1.148  14.193
  168SOL    HW1 2401   0.665   1.142  14.136
  168SOL    HW2 2402   0.612   1.096  14.270
  169SOL     OW 2403   4.787   9.630  13.694
  169SOL    HW1 2404   4.811   9.700  13.756
  169SOL    HW2 2405   4.721   9.579  13.740
  170SOL     OW 2406   7.967   2.640   2.614
  170SOL    HW1 2407   8.056   2.616   2.586
  170SOL    HW2 2408   7.930   2.686   2.538
  171SOL     OW 2409   1.635   5.883   3.014
  171SOL    HW1 2410   1.591   5.847   3.091
  171SOL    HW2 2411   1.703   5.940   3.049
  172SOL     OW 2412  13.471   6.030   8.279
  172SOL    HW1 2413  13.477   5.968   8.352
  172SOL    HW2 2414  13.391   6.004   8.233
  173SOL     OW 2415   2.377   3.796   5.990
  173SOL    HW1 2416   2.461   3.787   6.034
  173SOL    HW2 2417   2.368   3.717   5.937
  174SOL     OW 2418   0.554  13.079   4.681
  174SOL    HW1 2419   0.567  12.990   4.715
  174SOL    HW2 2420   0.459  13.090   4.678
  175SOL     OW 2421   1.952   5.294   2.086
  175SOL    HW1 2422   2.008   5.306   2.163
  175SOL    HW2 2423   1.871   5.258   2.120
  176SOL     OW 2424   8.644   7.989   5.427
  176SOL    HW1 2425   8.639   8.060   5.491
  176SOL    HW2 2426   8.613   8.028   5.345
  177SOL     OW 2427   4.799  13.168   8.740
  177SOL    HW1 2428   4.886  13.127   8.737
  177SOL    HW2 2429   4.751  13.129   8.668
  178SOL     OW 2430   9.463  14.239  12.298
  178SOL    HW1 2431   9.522  14.301  12.256
  178SOL    HW2 2432   9.384  14.239  12.244
  179SOL     OW 2433   6.922   8.117  14.760
  179SOL    HW1 2434   6.973   8.192  14.729
  179SOL    HW2 2435   6.831   8.146  14.758
  180SOL     OW 2436   9.239   7.174   4.892
  180SOL    HW1 2437   9.250   7.100   4.951
  180SOL    HW2 2438   9.231   7.250   4.950
  181SOL     OW 2439   7.899   3.562   4.071
  181SOL    HW1 2440   7.810   3.532   4.053
  181SOL    HW2 2441   7.887   3.649   4.109
  182SOL     OW 2442  12.415  10.752   6.898
  182SOL    HW1 2443  12.327  10.772   6.930
  182SOL    HW2 2444  12.405  10.749   6.803
  183SOL     OW 2445   6.430  13.159   6.605
  183SOL    HW1 2446   6.397  13.201   6.526
  183SOL    HW2 2447   6.472  13.229   6.654
  184SOL     OW 2448  10.708  10.875   4.813
  184SOL    HW1 2449  10.702  10.957   4.764
  184SOL    HW2 2450  10.786  10.887   4.868
  185SOL     OW 2451   1.555   0.787   5.619
  185SOL    HW1 2452   1.595   0.758   5.701
  185SOL    HW2 2453   1.625   0.778   5.554
  186SOL     OW 2454  11.795   0.443  10.063
  186SOL    HW1 2455  11.786   0.537  10.077
  186SOL    HW2 2456  11.821   0.408  10.148
  187SOL     OW 2457   1.338   6.069  10.859
  187SOL    HW1 2458   1.426   6.100  10.877
  187SOL    HW2 2459   1.301   6.133  10.799
  188SOL     OW 2460   0.578   3.545   9.881
  188SOL    HW1 2461   0.608   3.519   9.968
  188SOL    HW2 2462   0.658   3.561   9.831
  189SOL     OW 2463   0.541  14.563   6.427
  189SOL    HW1 2464   0.607  14.544   6.360
  189SOL    HW2 2465   0.496  14.641   6.394
  190SOL     OW 2466  13.739   7.808  11.847
  190SOL    HW1 2467  13.720   7.794  11.939
  190SOL    HW2 2468  13.770   7.899  11.842
  191SOL     OW 2469   0.744   5.728   3.508
  191SOL    HW1 2470   0.721   5.646   3.553
  191SOL    HW2 2471   0.819   5.761   3.556
  192SOL     OW 2472   6.719  12.224  13.479
  192SOL    HW1 2473   6.665  12.158  13.523
  192SOL    HW2 2474   6.689  12.224  13.388
  193SOL     OW 2475  13.688   7.058   1.506
  193SOL    HW1 2476  13.604   7.013   1.500
  193SOL    HW2 2477  13.711   7.053   1.599
  194SOL     OW 2478   2.234  12.968   8.402
  194SOL    HW1 2479   2.194  13.003   8.323
  194SOL    HW2 2480   2.299  13.034   8.428
  195SOL     OW 2481   4.275   1.724   9.677
  195SOL    HW1 2482   4.256   1.799   9.734
  195SOL    HW2 2483   4.322   1.762   9.603
  196SOL     OW 2484   7.815   9.868   9.442
  196SOL    HW1 2485   7.727   9.851   9.476
  196SOL    HW2 2486   7.870   9.802   9.484
  197SOL     OW 2487   1.582   1.569  12.863
  197SOL    HW1 2488   1.621   1.656  12.865
  197SOL    HW2 2489   1.656   1.509  12.854
  198SOL     OW 2490  12.859   2.036  14.082
  198SOL    HW1 2491  12.843   1.978  14.156
  198SOL    HW2 2492  12.894   2.116  14.120
  199SOL     OW 2493   0.789   2.329   4.832
  199SOL    HW1 2494   0.846   2.400   4.859
  199SOL    HW2 2495   0.818   2.253   4.882
  200SOL     OW 2496   7.274  13.053   7.637
  200SOL    HW1 2497   7.216  13.039   7.712
  200SOL    HW2 2498   7.255  12.980   7.578
  201SOL     OW 2499  11.528   7.824  11.816
  201SOL    HW1 2500  11.603   7.779  11.777
  201SOL    HW2 2501  11.567   7.896  11.866
  202SOL     OW 2502   0.766   6.894  10.272
  202SOL    HW1 2503   0.752   6.972  10.218
  202SOL    HW2 2504   0.693   6.894  10.335
  203SOL     OW 2505   3.083   3.761   6.606
  203SOL    HW1 2506   2.998   3.787   6.569
  203SOL    HW2 2507   3.147   3.814   6.559
  204SOL     OW 2508   1.016   3.242  10.842
  204SOL    HW1 2509   0.964   3.296  10.901
  204SOL    HW2 2510   1.066   3.184  10.899
  205SOL     OW 2511   1.995  13.574   5.418
  205SOL    HW1 2512   2.050  13.645   5.452
  205SOL    HW2 2513   1.917  13.619   5.383
  206SOL     OW 2514   3.446   3.907   4.088
  206SOL    HW1 2515   3.532   3.886   4.123
  206SOL    HW2 2516   3.457   3.993   4.048
  207SOL     OW 2517   2.642  12.093   7.142
  207SOL    HW1 2518   2.662  12.088   7.048
  207SOL    HW2 2519   2.552  12.061   7.149
  208SOL     OW 2520   3.629   9.329  14.182
  208SOL    HW1 2521   3.627   9.297  14.272
  208SOL    HW2 2522   3.661   9.255  14.130
  209SOL     OW 2523   3.158   1.252  10.099
  209SOL    HW1 2524   3.199   1.249  10.012
  209SOL    HW2 2525   3.202   1.325  10.142
  210SOL     OW 2526   4.183   4.260  14.385
  210SOL    HW1 2527   4.178   4.332  14.322
  210SOL    HW2 2528   4.160   4.182  14.334
  211SOL     OW 2529   3.832  13.809   2.290
  211SOL    HW1 2530   3.761  13.813   2.353
  211SOL    HW2 2531   3.870  13.721   2.302
  212SOL     OW 2532   4.634   2.680   5.399
  212SOL    HW1 2533   4.605   2.721   5.317
  212SOL    HW2 2534   4.601   2.738   5.467
  213SOL     OW 2535  11.306   7.748   5.576
  213SOL    HW1 2536  11.377   7.684   5.574
  213SOL    HW2 2537  11.332   7.816   5.515
  214SOL     OW 2538  13.714  14.204   3.727
  214SOL    HW1 2539  13.766  14.143   3.778
  214SOL    HW2 2540  13.683  14.268   3.790
  215SOL     OW 2541   6.388  10.637   6.881
  215SOL    HW1 2542   6.321  10.581   6.843
  215SOL    HW2 2543   6.460  10.636   6.817
  216SOL     OW 2544  12.825   6.737  12.673
  216SOL    HW1 2545  12.832   6.729  12.578
  216SOL    HW2 2546  12.788   6.824  12.688
  217SOL     OW 2547  13.691  11.859  13.779
  217SOL    HW1 2548  13.774  11.835  13.820
  217SOL    HW2 2549  13.673  11.788  13.719
  218SOL     OW 2550   1.822   9.010   3.323
  218SOL    HW1 2551   1.831   9.083   3.261
  218SOL    HW2 2552   1.739   9.027   3.368
  219SOL     OW 2553   1.718   4.285   6.936
  219SOL    HW1 2554   1.754   4.249   6.855
  219SOL    HW2 2555   1.642   4.230   6.956
  220SOL     OW 2556  13.644   8.012   9.338
  220SOL    HW1 2557  13.674   8.100   9.314
  220SOL    HW2 2558  13.722   7.969   9.374
  221SOL     OW 2559   5.689   8.515   9.921
  221SOL    HW1 2560   5.763   8.537   9.978
  221SOL    HW2 2561   5.612   8.547   9.968
  222SOL     OW 2562   2.249   4.697   2.598
  222SOL    HW1 2563   2.288   4.773   2.641
  222SOL    HW2 2564   2.322   4.637   2.584
  223SOL     OW 2565  12.863  12.946   3.924
  223SOL    HW1 2566  12.907  13.031   3.924
  223SOL    HW2 2567  12.771  12.967   3.903
  224SOL     OW 2568   9.541  10.659  14.404
  224SOL    HW1 2569   9.480  10.606  14.352
  224SOL    HW2 2570   9.485  10.717  14.455
  225SOL     OW 2571   9.977   8.080   0.781
  225SOL    HW1 2572  10.046   8.144   0.799
  225SOL    HW2 2573   9.903   8.133   0.751
  226SOL     OW 2574   3.866   4.288   3.091
  226SOL    HW1 2575   3.808   4.279   3.016
  226SOL    HW2 2576   3.882   4.382   3.099
  227SOL     OW 2577  12.826   4.855  10.631
  227SOL    HW1 2578  12.732   4.870  10.620
  227SOL    HW2 2579  12.833   4.806  10.713
  228SOL     OW 2580   5.554  10.310   1.162
  228SOL    HW1 2581   5.625  10.375   1.168
  228SOL    HW2 2582   5.578  10.242   1.224
  229SOL     OW 2583   8.966   4.410   0.918
  229SOL    HW1 2584   8.941   4.395   1.009
  229SOL    HW2 2585   8.889   4.451   0.879
  230SOL     OW 2586   7.799   1.257   2.881
  230SOL    HW1 2587   7.884   1.260   2.926
  230SOL    HW2 2588   7.746   1.322   2.927
  231SOL     OW 2589   7.659  10.837   6.360
  231SOL    HW1 2590   7.657  10.799   6.272
  231SOL    HW2 2591   7.573  10.877   6.371
  232SOL     OW 2592   9.533  14.125   3.853
  232SOL    HW1 2593   9.531  14.032   3.875
  232SOL    HW2 2594   9.592  14.130   3.778
  233SOL     OW 2595  13.119   5.287  10.196
  233SOL    HW1 2596  13.107   5.380  10.182
  233SOL    HW2 2597  13.202   5.280  10.243
  234SOL     OW 2598  14.721   7.155  11.623
  234SOL    HW1 2599  14.627   7.171  11.619
  234SOL    HW2 2600  14.738   7.138  11.715
  235SOL     OW 2601  13.949   4.958   8.269
  235SOL    HW1 2602  13.966   5.052   8.278
  235SOL    HW2 2603  13.912   4.948   8.181
  236SOL     OW 2604   0.062   1.947   0.714
  236SOL    HW1 2605   0.038   1.961   0.622
  236SOL    HW2 2606   0.023   1.863   0.736
  237SOL     OW 2607  10.399   2.472   5.285
  237SOL    HW1 2608  10.344   2.539   5.326
  237SOL    HW2 2609  10.458   2.522   5.228
  238SOL     OW 2610   0.082   0.877   0.727
  238SOL    HW1 2611   0.140   0.952   0.713
  238SOL    HW2 2612   0.020   0.881   0.654
  239SOL     OW 2613   4.081   3.783   9.647
  239SOL    HW1 2614   4.132   3.798   9.727
  239SOL    HW2 2615   4.082   3.688   9.636
  240SOL     OW 2616   2.485   6.848  11.963
  240SOL    HW1 2617   2.550   6.830  11.895
  240SOL    HW2 2618   2.488   6.771  12.020
  241SOL     OW 2619   2.315  11.732   3.306
  241SOL    HW1 2620   2.237  11.680   3.327
  241SOL    HW2 2621   2.326  11.721   3.212
  242SOL     OW 2622  13.238  11.359   1.052
  242SOL    HW1 2623  13.158  11.357   1.000
  242SOL    HW2 2624  13.305  11.323   0.994
  243SOL     OW 2625   6.260   5.440   4.395
  243SOL    HW1 2626   6.169   5.468   4.406
  243SOL    HW2 2627   6.296   5.504   4.333
  244SOL     OW 2628   6.725   8.966  13.828
  244SOL    HW1 2629   6.731   8.895  13.893
  244SOL    HW2 2630   6.695   8.922  13.749
  245SOL     OW 2631   6.594   2.261   4.364
  245SOL    HW1 2632   6.549   2.215   4.434
  245SOL    HW2 2633   6.525   2.307   4.316
  246SOL     OW 2634   0.625   3.150   0.724
  246SOL    HW1 2635   0.550   3.157   0.665
  246SOL    HW2 2636   0.597   3.088   0.791
  247SOL     OW 2637   2.540   6.008  10.522
  247SOL    HW1 2638   2.611   6.070  10.539
  247SOL    HW2 2639   2.464   6.046  10.567
  248SOL     OW 2640  14.556  11.494  13.334
  248SOL    HW1 2641  14.559  11.460  13.423
  248SOL    HW2 2642  14.530  11.419  13.280
  249SOL     OW 2643   7.545   4.652   0.518
  249SOL    HW1 2644   7.518   4.712   0.449
  249SOL    HW2 2645   7.608   4.702   0.570
  250SOL     OW 2646   3.185   0.328   4.182
  250SOL    HW1 2647   3.218   0.241   4.207
  250SOL    HW2 2648   3.251   0.363   4.123
  251SOL     OW 2649   7.191   6.688   9.319
  251SOL    HW1 2650   7.228   6.775   9.304
  251SOL    HW2 2651   7.098   6.698   9.301
  252SOL     OW 2652  14.320   9.666   9.183
  252SOL    HW1 2653  14.359   9.579   9.193
  252SOL    HW2 2654  14.301   9.695   9.272
  253SOL     OW 2655   1.694  10.088   1.113
  253SOL    HW1 2656   1.707  10.103   1.020
  253SOL    HW2 2657   1.609  10.045   1.119
  254SOL     OW 2658   3.990   5.066   5.866
  254SOL    HW1 2659   3.938   5.128   5.814
  254SOL    HW2 2660   4.058   5.120   5.906
  255SOL     OW 2661   7.637   0.731   7.023
  255SOL    HW1 2662   7.685   0.666   7.074
  255SOL    HW2 2663   7.642   0.701   6.933
  256SOL     OW 2664   7.244   1.809   2.428
  256SOL    HW1 2665   7.188   1.847   2.495
  256SOL    HW2 2666   7.323   1.863   2.429
  257SOL     OW 2667   3.507   4.848  12.360
  257SOL    HW1 2668   3.556   4.768  12.382
  257SOL    HW2 2669   3.490   4.889  12.445
  258SOL     OW 2670   8.929  13.230   0.560
  258SOL    HW1 2671   8.873  13.303   0.534
  258SOL    HW2 2672   8.902  13.157   0.504
  259SOL     OW 2673   3.556   9.215   1.728
  259SOL    HW1 2674   3.563   9.266   1.809
  259SOL    HW2 2675   3.620   9.144   1.739
  260SOL     OW 2676  10.198  10.871   2.240
  260SOL    HW1 2677  10.173  10.822   2.162
  260SOL    HW2 2678  10.140  10.947   2.240
  261SOL     OW 2679   7.989  13.001  13.479
  261SOL    HW1 2680   7.954  12.912  13.479
  261SOL    HW2 2681   7.960  13.038  13.563
  262SOL     OW 2682   8.069  10.886   1.735
  262SOL    HW1 2683   8.077  10.804   1.784
  262SOL    HW2 2684   7.988  10.875   1.685
  263SOL     OW 2685   6.044   8.308   9.673
  263SOL    HW1 2686   6.095   8.262   9.607
  263SOL    HW2 2687   5.962   8.260   9.678
  264SOL     OW 2688   9.479   1.030   6.205
  264SOL    HW1 2689   9.509   0.943   6.181
  264SOL    HW2 2690   9.403   1.015   6.261
  265SOL     OW 2691   2.013   7.397   5.069
  265SOL    HW1 2692   1.980   7.337   5.002
  265SOL    HW2 2693   1.951   7.470   5.069
  266SOL     OW 2694   3.661  14.794  13.961
  266SOL    HW1 2695   3.640  14.729  13.893
  266SOL    HW2 2696   3.584  14.794  14.018
  267SOL     OW 2697   2.728   0.019   0.369
  267SOL    HW1 2698   2.697   0.105   0.341
  267SOL    HW2 2699   2.690  14.826   0.306
  268SOL     OW 2700  13.111   0.616   8.814
  268SOL    HW1 2701  13.200   0.581   8.813
  268SOL    HW2 2702  13.056   0.541   8.791
  269SOL     OW 2703  13.144   0.902   0.852
  269SOL    HW1 2704  13.118   0.919   0.942
  269SOL    HW2 2705  13.236   0.874   0.858
  270SOL     OW 2706   4.054  11.994  11.466
  270SOL    HW1 2707   4.054  11.942  11.385
  270SOL    HW2 2708   4.059  12.085  11.436
  271SOL     OW 2709  11.715  13.097  13.954
  271SOL    HW1 2710  11.621  13.079  13.945
  271SOL    HW2 2711  11.758  13.019  13.918
  272SOL     OW 2712   7.860  14.732   4.785
  272SOL    HW1 2713   7.817  14.817   4.775
  272SOL    HW2 2714   7.859  14.716   4.879
  273SOL     OW 2715   9.622   3.878   2.013
  273SOL    HW1 2716   9.562   3.824   2.065
  273SOL    HW2 2717   9.701   3.885   2.066
  274SOL     OW 2718   6.488   2.657   3.973
  274SOL    HW1 2719   6.401   2.695   3.962
  274SOL    HW2 2720   6.548   2.723   3.940
  275SOL     OW 2721   5.100   9.640   1.524
  275SOL    HW1 2722   5.012   9.642   1.563
  275SOL    HW2 2723   5.111   9.727   1.485
  276SOL     OW 2724  14.559  13.131  12.142
  276SOL    HW1 2725  14.494  13.135  12.212
  276SOL    HW2 2726  14.516  13.082  12.073
  277SOL     OW 2727  11.390  14.083   7.178
  277SOL    HW1 2728  11.408  14.172   7.149
  277SOL    HW2 2729  11.340  14.093   7.259
  278SOL     OW 2730   7.255  10.583  14.041
  278SOL    HW1 2731   7.281  10.493  14.058
  278SOL    HW2 2732   7.330  10.635  14.070
  279SOL     OW 2733   4.759   5.460  13.760
  279SOL    HW1 2734   4.705   5.539  13.749
  279SOL    HW2 2735   4.849   5.491  13.746
  280SOL     OW 2736   6.976   9.488   5.720
  280SOL    HW1 2737   6.933   9.538   5.789
  280SOL    HW2 2738   7.052   9.448   5.764
  281SOL     OW 2739  13.495  10.692   3.927
  281SOL    HW1 2740  13.586  10.720   3.912
  281SOL    HW2 2741  13.448  10.772   3.949
  282SOL     OW 2742   3.848   9.245   6.364
  282SOL    HW1 2743   3.924   9.210   6.316
  282SOL    HW2 2744   3.820   9.172   6.420
  283SOL     OW 2745   9.827   3.393   0.446
  283SOL    HW1 2746   9.806   3.311   0.402
  283SOL    HW2 2747   9.783   3.387   0.531
  284SOL     OW 2748   3.057   8.285   2.041
  284SOL    HW1 2749   3.096   8.274   1.954
  284SOL    HW2 2750   2.971   8.325   2.025
  285SOL     OW 2751   9.689  10.515   0.635
  285SOL    HW1 2752   9.703  10.606   0.659
  285SOL    HW2 2753   9.636  10.480   0.707
  286SOL     OW 2754   2.176  12.356   8.368
  286SOL    HW1 2755   2.136  12.436   8.404
  286SOL    HW2 2756   2.122  12.285   8.401
  287SOL     OW 2757  13.696   4.464  13.568
  287SOL    HW1 2758  13.602   4.468  13.587
  287SOL    HW2 2759  13.711   4.374  13.539
  288SOL     OW 2760  11.344   8.015  11.712
  288SOL    HW1 2761  11.307   7.927  11.708
  288SOL    HW2 2762  11.418   8.007  11.772
  289SOL     OW 2763   6.876   4.797   4.456
  289SOL    HW1 2764   6.875   4.711   4.413
  289SOL    HW2 2765   6.824   4.785   4.536
  290SOL     OW 2766   1.172  13.136   4.934
  290SOL    HW1 2767   1.233  13.138   4.860
  290SOL    HW2 2768   1.196  13.213   4.986
  291SOL     OW 2769  14.172   5.663  12.877
  291SOL    HW1 2770  14.207   5.661  12.788
  291SOL    HW2 2771  14.102   5.727  12.875
  292SOL     OW 2772   9.914  11.685   1.010
  292SOL    HW1 2773   9.938  11.769   1.050
  292SOL    HW2 2774   9.998  11.646   0.984
  293SOL     OW 2775   4.424   7.712  14.375
  293SOL    HW1 2776   4.389   7.801  14.372
  293SOL    HW2 2777   4.371   7.668  14.441
  294SOL     OW 2778  11.097   8.130   9.637
  294SOL    HW1 2779  11.054   8.057   9.592
  294SOL    HW2 2780  11.086   8.204   9.577
  295SOL     OW 2781   7.018  10.451   3.518
  295SOL    HW1 2782   6.968  10.373   3.493
  295SOL    HW2 2783   6.952  10.512   3.553
  296SOL     OW 2784   6.430   9.509   3.439
  296SOL    HW1 2785   6.389   9.593   3.418
  296SOL    HW2 2786   6.356   9.449   3.451
  297SOL     OW 2787  10.280   3.951   9.401
  297SOL    HW1 2788  10.317   3.963   9.488
  297SOL    HW2 2789  10.253   4.039   9.374
  298SOL     OW 2790   2.560  14.638   1.810
  298SOL    HW1 2791   2.570  14.641   1.905
  298SOL    HW2 2792   2.503  14.563   1.794
  299SOL     OW 2793   3.419  11.694  11.370
  299SOL    HW1 2794   3.444  11.672  11.280
  299SOL    HW2 2795   3.484  11.760  11.397
  300SOL     OW 2796   8.821   3.763  11.841
  300SOL    HW1 2797   8.815   3.668  11.855
  300SOL    HW2 2798   8.783   3.777  11.754
  301SOL     OW 2799   7.997  11.692   4.283
  301SOL    HW1 2800   8.068  11.755   4.273
  301SOL    HW2 2801   8.028  11.613   4.239
  302SOL     OW 2802   8.292   5.363  10.644
  302SOL    HW1 2803   8.267   5.382  10.554
  302SOL    HW2 2804   8.216   5.390  10.696
  303SOL     OW 2805  11.783  10.718   7.826
  303SOL    HW1 2806  11.785  10.631   7.786
  303SOL    HW2 2807  11.758  10.702   7.917
  304SOL     OW 2808   3.579   6.346  13.319
  304SOL    HW1 2809   3.670   6.340  13.348
  304SOL    HW2 2810   3.531   6.288  13.379
  305SOL     OW 2811  12.897  10.299   4.566
  305SOL    HW1 2812  12.847  10.334   4.493
  305SOL    HW2 2813  12.895  10.204   4.554
  306SOL     OW 2814   9.013   5.454   0.465
  306SOL    HW1 2815   8.925   5.465   0.502
  306SOL    HW2 2816   9.066   5.424   0.538
  307SOL     OW 2817  14.279   7.638   1.244
  307SOL    HW1 2818  14.292   7.676   1.331
  307SOL    HW2 2819  14.236   7.554   1.261
  308SOL     OW 2820   7.550   9.414   6.495
  308SOL    HW1 2821   7.461   9.431   6.463
  308SOL    HW2 2822   7.547   9.325   6.529
  309SOL     OW 2823   1.661   2.897   7.716
  309SOL    HW1 2824   1.732   2.933   7.663
  309SOL    HW2 2825   1.620   2.974   7.756
  310SOL     OW 2826   8.184   3.324  10.928
  310SOL    HW1 2827   8.200   3.231  10.913
  310SOL    HW2 2828   8.271   3.364  10.925
  311SOL     OW 2829   6.392  11.074   7.125
  311SOL    HW1 2830   6.483  11.069   7.097
  311SOL    HW2 2831   6.361  11.158   7.091
  312SOL     OW 2832  11.014   9.640  13.648
  312SOL    HW1 2833  11.017   9.552  13.611
  312SOL    HW2 2834  10.929   9.645  13.692
  313SOL     OW 2835   4.050   0.365   1.092
  313SOL    HW1 2836   4.092   0.393   1.010
  313SOL    HW2 2837   4.121   0.358   1.155
  314SOL     OW 2838   2.880   7.693   6.878
  314SOL    HW1 2839   2.879   7.776   6.925
  314SOL    HW2 2840   2.973   7.680   6.855
  315SOL     OW 2841  11.275   2.309   8.966
  315SOL    HW1 2842  11.213   2.238   8.984
  315SOL    HW2 2843  11.359   2.265   8.954
  316SOL     OW 2844  13.508  10.945   3.473
  316SOL    HW1 2845  13.459  10.863   3.473
  316SOL    HW2 2846  13.509  10.972   3.381
  317SOL     OW 2847   3.959  11.700   4.911
  317SOL    HW1 2848   3.990  11.613   4.936
  317SOL    HW2 2849   4.023  11.760   4.950
  318SOL     OW 2850  11.802  14.045  12.842
  318SOL    HW1 2851  11.759  14.120  12.884
  318SOL    HW2 2852  11.749  14.026  12.765
  319SOL     OW 2853   2.148   0.350  11.742
  319SOL    HW1 2854   2.167   0.257  11.753
  319SOL    HW2 2855   2.206   0.379  11.671
  320SOL     OW 2856   8.233   6.701  14.036
  320SOL    HW1 2857   8.262   6.792  14.029
  320SOL    HW2 2858   8.217   6.689  14.130
  321SOL     OW 2859   9.628   2.353  10.821
  321SOL    HW1 2860   9.710   2.389  10.786
  321SOL    HW2 2861   9.609   2.409  10.897
  322SOL     OW 2862   7.817   6.808   1.868
  322SOL    HW1 2863   7.866   6.769   1.795
  322SOL    HW2 2864   7.877   6.874   1.904
  323SOL     OW 2865  11.221   4.839   7.224
  323SOL    HW1 2866  11.312   4.862   7.243
  323SOL    HW2 2867  11.198   4.777   7.294
  324SOL     OW 2868   2.187   7.015  10.857
  324SOL    HW1 2869   2.248   7.073  10.811
  324SOL    HW2 2870   2.243   6.946  10.894
  325SOL     OW 2871   4.098  10.246  11.532
  325SOL    HW1 2872   4.004  10.232  11.521
  325SOL    HW2 2873   4.105  10.300  11.611
  326SOL     OW 2874   6.058   8.563  12.146
  326SOL    HW1 2875   6.145   8.529  12.169
  326SOL    HW2 2876   5.999   8.489  12.157
  327SOL     OW 2877   5.483   5.534   0.140
  327SOL    HW1 2878   5.472   5.607   0.080
  327SOL    HW2 2879   5.546   5.476   0.097
  328SOL     OW 2880  12.887  12.373  13.143
  328SOL    HW1 2881  12.944  12.296  13.138
  328SOL    HW2 2882  12.798  12.336  13.144
  329SOL     OW 2883   6.241  13.730   2.746
  329SOL    HW1 2884   6.314  13.702   2.800
  329SOL    HW2 2885   6.168  13.741   2.807
  330SOL     OW 2886  14.198   8.025   9.527
  330SOL    HW1 2887  14.185   8.099   9.587
  330SOL    HW2 2888  14.202   8.066   9.440
  331SOL     OW 2889   5.040   4.209   1.358
  331SOL    HW1 2890   4.988   4.278   1.318
  331SOL    HW2 2891   5.057   4.147   1.287
  332SOL     OW 2892   1.806   5.856  12.854
  332SOL    HW1 2893   1.887   5.889  12.816
  332SOL    HW2 2894   1.775   5.791  12.791
  333SOL     OW 2895   1.866   1.611   2.472
  333SOL    HW1 2896   1.838   1.594   2.382
  333SOL    HW2 2897   1.962   1.613   2.468
  334SOL     OW 2898   6.333   1.627   1.983
  334SOL    HW1 2899   6.350   1.712   2.024
  334SOL    HW2 2900   6.251   1.597   2.024
  335SOL     OW 2901   7.129   2.119  12.700
  335SOL    HW1 2902   7.182   2.056  12.650
  335SOL    HW2 2903   7.133   2.087  12.790
  336SOL     OW 2904  14.267   1.876   0.599
  336SOL    HW1 2905  14.173   1.882   0.615
  336SOL    HW2 2906  14.274   1.835   0.513
  337SOL     OW 2907   9.422  12.962   0.341
  337SOL    HW1 2908   9.470  13.025   0.288
  337SOL    HW2 2909   9.460  12.877   0.319
  338SOL     OW 2910   7.654  14.264   6.987
  338SOL    HW1 2911   7.727  14.290   6.930
  338SOL    HW2 2912   7.595  14.339   6.986
  339SOL     OW 2913   5.111   3.115  14.036
  339SOL    HW1 2914   5.121   3.207  14.061
  339SOL    HW2 2915   5.078   3.118  13.946
  340SOL     OW 2916   6.090   5.659   5.223
  340SOL    HW1 2917   6.132   5.674   5.308
  340SOL    HW2 2918   6.142   5.710   5.161
  341SOL     OW 2919   0.047  14.644   7.081
  341SOL    HW1 2920  14.859  14.628   7.157
  341SOL    HW2 2921   0.066  14.557   7.046
  342SOL     OW 2922   2.252  14.820   4.937
  342SOL    HW1 2923   2.230  14.734   4.972
  342SOL    HW2 2924   2.274  14.804   4.845
  343SOL     OW 2925   3.169   4.694   7.092
  343SOL    HW1 2926   3.178   4.609   7.135
  343SOL    HW2 2927   3.074   4.708   7.088
  344SOL     OW 2928   7.031  14.246   4.500
  344SOL    HW1 2929   6.990  14.315   4.552
  344SOL    HW2 2930   7.076  14.293   4.430
  345SOL     OW 2931   7.484   4.985  11.300
  345SOL    HW1 2932   7.492   4.996  11.205
  345SOL    HW2 2933   7.398   4.946  11.313
  346SOL     OW 2934   9.654   7.971  13.421
  346SOL    HW1 2935   9.562   7.996  13.408
  346SOL    HW2 2936   9.681   8.019  13.499
  347SOL     OW 2937  12.426   3.861  10.969
  347SOL    HW1 2938  12.500   3.806  10.995
  347SOL    HW2 2939  12.466   3.936  10.926
  348SOL     OW 2940   6.380   1.162   9.048
  348SOL    HW1 2941   6.353   1.175   9.139
  348SOL    HW2 2942   6.310   1.109   9.010
  349SOL     OW 2943   4.461   2.233  11.253
  349SOL    HW1 2944   4.416   2.223  11.337
  349SOL    HW2 2945   4.549   2.198  11.267
  350SOL     OW 2946   2.027   9.048  12.087
  350SOL    HW1 2947   2.033   9.141  12.068
  350SOL    HW2 2948   1.950   9.018  12.039
  351SOL     OW 2949   7.513  10.683   0.015
  351SOL    HW1 2950   7.460  10.699   0.093
  351SOL    HW2 2951   7.551  10.768  14.862
  352SOL     OW 2952   5.847  13.033   0.949
  352SOL    HW1 2953   5.839  13.075   1.034
  352SOL    HW2 2954   5.911  12.963   0.963
  353SOL     OW 2955   5.143  11.626   5.570
  353SOL    HW1 2956   5.193  11.706   5.554
  353SOL    HW2 2957   5.086  11.647   5.645
  354SOL     OW 2958   8.861   5.338   7.033
  354SOL    HW1 2959   8.802   5.263   7.034
  354SOL    HW2 2960   8.856   5.373   7.122
  355SOL     OW 2961   0.944   5.066  10.602
  355SOL    HW1 2962   0.860   5.110  10.612
  355SOL    HW2 2963   0.980   5.062  10.691
  356SOL     OW 2964   8.078   6.442  12.285
  356SOL    HW1 2965   8.023   6.416  12.211
  356SOL    HW2 2966   8.166   6.416  12.260
  357SOL     OW 2967   6.442   5.975   0.419
  357SOL    HW1 2968   6.350   6.001   0.411
  357SOL    HW2 2969   6.473   6.020   0.498
  358SOL     OW 2970   2.462  10.177   4.182
  358SOL    HW1 2971   2.437  10.089   4.155
  358SOL    HW2 2972   2.380  10.227   4.180
  359SOL     OW 2973   1.202  13.197   7.678
  359SOL    HW1 2974   1.197  13.271   7.617
  359SOL    HW2 2975   1.204  13.238   7.764
  360SOL     OW 2976   6.743   5.648   9.081
  360SOL    HW1 2977   6.704   5.590   9.015
  360SOL    HW2 2978   6.687   5.726   9.080
  361SOL     OW 2979   3.722   0.807   9.000
  361SOL    HW1 2980   3.716   0.879   8.938
  361SOL    HW2 2981   3.696   0.844   9.084
  362SOL     OW 2982   0.489  13.062  10.292
  362SOL    HW1 2983   0.569  13.107  10.267
  362SOL    HW2 2984   0.518  12.993  10.352
  363SOL     OW 2985   6.357   2.073  12.299
  363SOL    HW1 2986   6.344   2.120  12.381
  363SOL    HW2 2987   6.369   1.982  12.325
  364SOL     OW 2988  11.553   8.715  13.896
  364SOL    HW1 2989  11.465   8.682  13.911
  364SOL    HW2 2990  11.598   8.703  13.980
  365SOL     OW 2991   0.223   9.529   1.892
  365SOL    HW1 2992   0.162   9.599   1.871
  365SOL    HW2 2993   0.272   9.514   1.811
  366SOL     OW 2994   9.831   2.656   6.833
  366SOL    HW1 2995   9.909   2.699   6.797
  366SOL    HW2 2996   9.758   2.697   6.788
  367SOL     OW 2997   5.871   8.235   0.464
  367SOL    HW1 2998   5.893   8.327   0.449
  367SOL    HW2 2999   5.936   8.186   0.413
  368SOL     OW 3000   3.281   9.144   7.906
  368SOL    HW1 3001   3.282   9.186   7.820
  368SOL    HW2 3002   3.189   9.145   7.933
  369SOL     OW 3003   9.759  12.177   7.378
  369SOL    HW1 3004   9.777  12.100   7.432
  369SOL    HW2 3005   9.844  12.220   7.369
  370SOL     OW 3006  12.424   9.456   8.098
  370SOL    HW1 3007  12.471   9.479   8.178
  370SOL    HW2 3008  12.461   9.373   8.070
  371SOL     OW 3009   3.918  12.111  10.879
  371SOL    HW1 3010   3.990  12.175  10.882
  371SOL    HW2 3011   3.875  12.119  10.964
  372SOL     OW 3012   1.547   1.158  13.261
  372SOL    HW1 3013   1.486   1.100  13.307
  372SOL    HW2 3014   1.526   1.145  13.169
  373SOL     OW 3015  13.048  13.504   7.018
  373SOL    HW1 3016  13.133  13.511   7.060
  373SOL    HW2 3017  13.044  13.414   6.986
  374SOL     OW 3018   3.289   0.822   7.336
  374SOL    HW1 3019   3.201   0.842   7.303
  374SOL    HW2 3020   3.348   0.863   7.273
  375SOL     OW 3021   3.474  11.379   8.060
  375SOL    HW1 3022   3.422  11.304   8.086
  375SOL    HW2 3023   3.433  11.410   7.979
  376SOL     OW 3024   2.791   5.211   3.802
  376SOL    HW1 3025   2.767   5.251   3.718
  376SOL    HW2 3026   2.768   5.277   3.867
  377SOL     OW 3027   3.161   8.960   6.636
  377SOL    HW1 3028   3.244   8.913   6.626
  377SOL    HW2 3029   3.126   8.967   6.548
  378SOL     OW 3030  14.667   1.320   4.278
  378SOL    HW1 3031  14.607   1.277   4.338
  378SOL    HW2 3032  14.695   1.250   4.218
  379SOL     OW 3033   6.895   2.665   9.417
  379SOL    HW1 3034   6.814   2.659   9.468
  379SOL    HW2 3035   6.894   2.586   9.362
  380SOL     OW 3036   5.343   8.910   1.658
  380SOL    HW1 3037   5.386   8.894   1.742
  380SOL    HW2 3038   5.367   9.000   1.636
  381SOL     OW 3039   7.795  13.117  11.305
  381SOL    HW1 3040   7.762  13.204  11.332
  381SOL    HW2 3041   7.814  13.073  11.388
  382SOL     OW 3042  10.044   2.755  13.927
  382SOL    HW1 3043   9.975   2.801  13.974
  382SOL    HW2 3044  10.041   2.666  13.962
  383SOL     OW 3045  10.006   3.882   3.320
  383SOL    HW1 3046  10.042   3.806   3.275
  383SOL    HW2 3047   9.933   3.910   3.265
  384SOL     OW 3048   8.008   0.373   8.503
  384SOL    HW1 3049   7.977   0.436   8.568
  384SOL    HW2 3050   7.928   0.335   8.466
  385SOL     OW 3051   4.718   2.603  11.591
  385SOL    HW1 3052   4.766   2.617  11.672
  385SOL    HW2 3053   4.655   2.675  11.587
  386SOL     OW 3054   4.318   9.134   3.506
  386SOL    HW1 3055   4.353   9.200   3.446
  386SOL    HW2 3056   4.333   9.171   3.593
  387SOL     OW 3057   1.305  14.821  13.112
  387SOL    HW1 3058   1.346  14.771  13.041
  387SOL    HW2 3059   1.328   0.044  13.093
  388SOL     OW 3060  14.318   8.370   4.236
  388SOL    HW1 3061  14.252   8.309   4.205
  388SOL    HW2 3062  14.274   8.455   4.239
  389SOL     OW 3063   0.622   6.265   0.439
  389SOL    HW1 3064   0.716   6.279   0.436
  389SOL    HW2 3065   0.584   6.348   0.411
  390SOL     OW 3066   2.928   5.181  11.844
  390SOL    HW1 3067   2.951   5.238  11.918
  390SOL    HW2 3068   3.011   5.163  11.801
  391SOL     OW 3069  13.786  12.561   2.319
  391SOL    HW1 3070  13.831  12.485   2.357
  391SOL    HW2 3071  13.735  12.525   2.247
  392SOL     OW 3072  14.390   6.475   9.546
  392SOL    HW1 3073  14.311   6.510   9.587
  392SOL    HW2 3074  14.361   6.447   9.459
  393SOL     OW 3075   3.279   3.993   4.921
  393SOL    HW1 3076   3.301   4.026   4.834
  393SOL    HW2 3077   3.358   3.948   4.951
  394SOL     OW 3078   3.610  10.657   3.674
  394SOL    HW1 3079   3.662  10.736   3.682
  394SOL    HW2 3080   3.646  10.611   3.598
  395SOL     OW 3081  14.726   9.814   4.718
  395SOL    HW1 3082  14.741   9.847   4.807
  395SOL    HW2 3083  14.801   9.757   4.700
  396SOL     OW 3084   4.814   8.395   3.354
  396SOL    HW1 3085   4.793   8.302   3.354
  396SOL    HW2 3086   4.862   8.409   3.436
  397SOL     OW 3087  11.068   9.222   0.759
  397SOL    HW1 3088  11.099   9.254   0.844
  397SOL    HW2 3089  11.081   9.295   0.699
  398SOL     OW 3090   0.698  14.296  14.216
  398SOL    HW1 3091   0.726  14.354  14.287
  398SOL    HW2 3092   0.603  14.294  14.222
  399SOL     OW 3093   7.082  14.379  11.467
  399SOL    HW1 3094   7.131  14.461  11.461
  399SOL    HW2 3095   7.145  14.312  11.440
  400SOL     OW 3096   2.784   9.685   9.382
  400SOL    HW1 3097   2.864   9.632   9.382
  400SOL    HW2 3098   2.785   9.731   9.298
  401SOL     OW 3099   1.675   2.734  10.868
  401SOL    HW1 3100   1.725   2.678  10.928
  401SOL    HW2 3101   1.591   2.689  10.859
  402SOL     OW 3102   7.071  11.733   9.080
  402SOL    HW1 3103   6.994  11.676   9.069
  402SOL    HW2 3104   7.037  11.811   9.123
  403SOL     OW 3105   6.676  10.298  11.788
  403SOL    HW1 3106   6.684  10.341  11.702
  403SOL    HW2 3107   6.765  10.298  11.822
  404SOL     OW 3108   7.080   9.315   7.882
  404SOL    HW1 3109   6.991   9.349   7.888
  404SOL    HW2 3110   7.115   9.325   7.971
  405SOL     OW 3111   0.425   1.370  14.104
  405SOL    HW1 3112   0.388   1.382  14.192
  405SOL    HW2 3113   0.501   1.313  14.118
  406SOL     OW 3114   0.709   4.663   4.522
  406SOL    HW1 3115   0.759   4.581   4.519
  406SOL    HW2 3116   0.776   4.731   4.521
  407SOL     OW 3117   8.377  14.015  13.503
  407SOL    HW1 3118   8.313  14.062  13.557
  407SOL    HW2 3119   8.364  14.049  13.415
  408SOL     OW 3120   1.369   4.660   0.906
  408SOL    HW1 3121   1.354   4.579   0.857
  408SOL    HW2 3122   1.284   4.681   0.945
  409SOL     OW 3123   6.703   7.322   5.210
  409SOL    HW1 3124   6.623   7.339   5.260
  409SOL    HW2 3125   6.755   7.402   5.222
  410SOL     OW 3126   1.694   2.878   3.355
  410SOL    HW1 3127   1.665   2.958   3.398
  410SOL    HW2 3128   1.699   2.813   3.426
  411SOL     OW 3129  13.880   8.723   1.244
  411SOL    HW1 3130  13.911   8.687   1.161
  411SOL    HW2 3131  13.862   8.646   1.298
  412SOL     OW 3132   3.978   9.113   8.901
  412SOL    HW1 3133   4.070   9.101   8.876
  412SOL    HW2 3134   3.978   9.189   8.959
  413SOL     OW 3135   4.585  13.075   4.791
  413SOL    HW1 3136   4.634  13.013   4.737
  413SOL    HW2 3137   4.614  13.057   4.880
  414SOL     OW 3138   0.314   9.712   1.100
  414SOL    HW1 3139   0.352   9.731   1.185
  414SOL    HW2 3140   0.286   9.620   1.106
  415SOL     OW 3141  14.442   9.227   6.921
  415SOL    HW1 3142  14.384   9.304   6.921
  415SOL    HW2 3143  14.457   9.208   7.014
  416SOL     OW 3144   6.849   6.149  13.487
  416SOL    HW1 3145   6.810   6.167  13.401
  416SOL    HW2 3146   6.821   6.060  13.508
  417SOL     OW 3147   7.276   0.804   3.831
  417SOL    HW1 3148   7.309   0.888   3.864
  417SOL    HW2 3149   7.284   0.811   3.736
  418SOL     OW 3150   7.216  13.092  11.444
  418SOL    HW1 3151   7.303  13.120  11.414
  418SOL    HW2 3152   7.225  13.084  11.539
  419SOL     OW 3153   6.746   2.987   8.293
  419SOL    HW1 3154   6.787   3.059   8.340
  419SOL    HW2 3155   6.796   2.910   8.319
  420SOL     OW 3156  10.559   1.618   0.786
  420SOL    HW1 3157  10.603   1.625   0.702
  420SOL    HW2 3158  10.471   1.585   0.765
  421SOL     OW 3159  14.190   1.916  11.230
  421SOL    HW1 3160  14.232   1.887  11.311
  421SOL    HW2 3161  14.149   2.000  11.253
  422SOL     OW 3162  14.413   5.792  12.250
  422SOL    HW1 3163  14.442   5.882  12.265
  422SOL    HW2 3164  14.493   5.740  12.260
  423SOL     OW 3165  10.444  10.257   9.735
  423SOL    HW1 3166  10.461  10.165   9.754
  423SOL    HW2 3167  10.485  10.273   9.650
  424SOL     OW 3168   0.300   2.504  14.139
  424SOL    HW1 3169   0.279   2.497  14.046
  424SOL    HW2 3170   0.392   2.529  14.141
  425SOL     OW 3171  11.178   0.490  10.645
  425SOL    HW1 3172  11.092   0.487  10.688
  425SOL    HW2 3173  11.236   0.530  10.710
  426SOL     OW 3174  14.335   9.959  11.549
  426SOL    HW1 3175  14.255   9.910  11.529
  426SOL    HW2 3176  14.378   9.909  11.618
  427SOL     OW 3177   8.190  13.257   9.864
  427SOL    HW1 3178   8.235  13.173   9.856
  427SOL    HW2 3179   8.229  13.313   9.797
  428SOL     OW 3180   1.999   3.298  12.272
  428SOL    HW1 3181   2.007   3.329  12.182
  428SOL    HW2 3182   1.969   3.207  12.263
  429SOL     OW 3183   4.920  11.185   0.770
  429SOL    HW1 3184   4.997  11.189   0.826
  429SOL    HW2 3185   4.859  11.127   0.816
  430SOL     OW 3186   2.786   3.752   5.071
  430SOL    HW1 3187   2.856   3.814   5.093
  430SOL    HW2 3188   2.740   3.737   5.153
  431SOL     OW 3189  11.906   6.158   1.344
  431SOL    HW1 3190  11.961   6.158   1.422
  431SOL    HW2 3191  11.872   6.069   1.338
  432SOL     OW 3192   7.034   7.446  10.668
  432SOL    HW1 3193   6.968   7.384  10.639
  432SOL    HW2 3194   7.112   7.423  10.617
  433SOL     OW 3195   9.044  13.935  13.070
  433SOL    HW1 3196   9.088  13.965  13.149
  433SOL    HW2 3197   8.968  13.886  13.102
  434SOL     OW 3198  10.822  12.370  12.396
  434SOL    HW1 3199  10.792  12.321  12.473
  434SOL    HW2 3200  10.885  12.433  12.431
  435SOL     OW 3201   8.734  11.316   6.293
  435SOL    HW1 3202   8.660  11.313   6.353
  435SOL    HW2 3203   8.811  11.311   6.350
  436SOL     OW 3204  11.554   1.765  14.393
  436SOL    HW1 3205  11.515   1.843  14.353
  436SOL    HW2 3206  11.635   1.797  14.434
  437SOL     OW 3207  13.798   5.780   8.906
  437SOL    HW1 3208  13.774   5.873   8.909
  437SOL    HW2 3209  13.870   5.775   8.844
  438SOL     OW 3210  11.050  14.315   7.329
  438SOL    HW1 3211  11.005  14.311   7.413
  438SOL    HW2 3212  11.143  14.306   7.351
  439SOL     OW 3213   7.618   0.543   4.899
  439SOL    HW1 3214   7.679   0.533   4.972
  439SOL    HW2 3215   7.542   0.490   4.923
  440SOL     OW 3216   7.169  13.375   3.164
  440SOL    HW1 3217   7.183  13.454   3.112
  440SOL    HW2 3218   7.095  13.395   3.221
  441SOL     OW 3219   0.423   6.916   5.734
  441SOL    HW1 3220   0.430   6.957   5.647
  441SOL    HW2 3221   0.333   6.933   5.761
  442SOL     OW 3222   4.711   8.431  10.038
  442SOL    HW1 3223   4.778   8.483   9.993
  442SOL    HW2 3224   4.756   8.348  10.057
  443SOL     OW 3225   8.903   7.739  14.543
  443SOL    HW1 3226   8.827   7.753  14.486
  443SOL    HW2 3227   8.865   7.707  14.625
  444SOL     OW 3228   2.472   5.939   6.093
  444SOL    HW1 3229   2.534   6.011   6.101
  444SOL    HW2 3230   2.386   5.981   6.100
  445SOL     OW 3231  11.308   1.365  13.031
  445SOL    HW1 3232  11.382   1.425  13.044
  445SOL    HW2 3233  11.346   1.289  12.988
  446SOL     OW 3234  10.081   7.679   6.817
  446SOL    HW1 3235  10.146   7.661   6.884
  446SOL    HW2 3236  10.000   7.639   6.850
  447SOL     OW 3237   2.981   1.437   5.409
  447SOL    HW1 3238   2.963   1.348   5.379
  447SOL    HW2 3239   2.979   1.431   5.505
  448SOL     OW 3240  13.557  12.471  12.651
  448SOL    HW1 3241  13.544  12.498  12.742
  448SOL    HW2 3242  13.646  12.436  12.648
  449SOL     OW 3243   0.751   6.998  10.943
  449SOL    HW1 3244   0.779   6.910  10.966
  449SOL    HW2 3245   0.738   6.995  10.848
  450SOL     OW 3246  11.531  12.804   3.893
  450SOL    HW1 3247  11.439  12.804   3.919
  450SOL    HW2 3248  11.578  12.834   3.971
  451SOL     OW 3249   5.844   6.596  13.584
  451SOL    HW1 3250   5.807   6.681  13.559
  451SOL    HW2 3251   5.930   6.617  13.620
  452SOL     OW 3252   9.423  14.413  11.570
  452SOL    HW1 3253   9.409  14.360  11.648
  452SOL    HW2 3254   9.336  14.442  11.544
  453SOL     OW 3255   4.819  12.671   9.723
  453SOL    HW1 3256   4.762  12.681   9.799
  453SOL    HW2 3257   4.903  12.643   9.761
  454SOL     OW 3258   9.235   3.013  12.367
  454SOL    HW1 3259   9.162   3.008  12.428
  454SOL    HW2 3260   9.279   2.928  12.375
  455SOL     OW 3261   2.856   2.569  12.316
  455SOL    HW1 3262   2.950   2.554  12.303
  455SOL    HW2 3263   2.820   2.483  12.335
  456SOL     OW 3264   4.011  11.400   5.346
  456SOL    HW1 3265   3.957  11.392   5.268
  456SOL    HW2 3266   4.037  11.492   5.348
  457SOL     OW 3267   0.846   3.484   9.264
  457SOL    HW1 3268   0.800   3.552   9.313
  457SOL    HW2 3269   0.892   3.530   9.194
  458SOL     OW 3270   7.484  11.889   9.596
  458SOL    HW1 3271   7.420  11.912   9.663
  458SOL    HW2 3272   7.459  11.940   9.519
  459SOL     OW 3273   1.688   1.650   9.996
  459SOL    HW1 3274   1.626   1.722  10.009
  459SOL    HW2 3275   1.633   1.574   9.978
  460SOL     OW 3276   4.300   1.380   4.659
  460SOL    HW1 3277   4.288   1.474   4.678
  460SOL    HW2 3278   4.294   1.338   4.745
  461SOL     OW 3279   8.180  11.655   8.860
  461SOL    HW1 3280   8.131  11.636   8.780
  461SOL    HW2 3281   8.244  11.585   8.866
  462SOL     OW 3282  11.063   9.255   4.564
  462SOL    HW1 3283  11.067   9.339   4.609
  462SOL    HW2 3284  11.137   9.206   4.599
  463SOL     OW 3285   1.182  11.704  13.709
  463SOL    HW1 3286   1.125  11.661  13.646
  463SOL    HW2 3287   1.123  11.751  13.768
  464SOL     OW 3288  10.637   3.622   8.402
  464SOL    HW1 3289  10.611   3.597   8.490
  464SOL    HW2 3290  10.728   3.594   8.395
  465SOL     OW 3291   6.904  12.307   2.606
  465SOL    HW1 3292   6.881  12.384   2.555
  465SOL    HW2 3293   6.985  12.274   2.567
  466SOL     OW 3294  11.802   7.613   4.429
  466SOL    HW1 3295  11.740   7.668   4.379
  466SOL    HW2 3296  11.804   7.653   4.516
  467SOL     OW 3297   0.652   3.554   6.585
  467SOL    HW1 3298   0.585   3.493   6.556
  467SOL    HW2 3299   0.603   3.632   6.611
  468SOL     OW 3300   8.789   4.603   6.115
  468SOL    HW1 3301   8.795   4.509   6.128
  468SOL    HW2 3302   8.816   4.642   6.198
  469SOL     OW 3303   6.581   5.732   5.349
  469SOL    HW1 3304   6.543   5.818   5.367
  469SOL    HW2 3305   6.658   5.751   5.294
  470SOL     OW 3306  11.088   3.796   6.692
  470SOL    HW1 3307  11.065   3.793   6.599
  470SOL    HW2 3308  11.019   3.746   6.736
  471SOL     OW 3309   1.490  11.322   7.543
  471SOL    HW1 3310   1.435  11.243   7.545
  471SOL    HW2 3311   1.526  11.323   7.455
  472SOL     OW 3312  12.918   2.494   4.891
  472SOL    HW1 3313  12.994   2.533   4.849
  472SOL    HW2 3314  12.953   2.417   4.937
  473SOL     OW 3315   4.346   1.507  11.665
  473SOL    HW1 3316   4.314   1.567  11.597
  473SOL    HW2 3317   4.339   1.556  11.746
  474SOL     OW 3318   4.241   4.566   0.256
  474SOL    HW1 3319   4.315   4.511   0.229
  474SOL    HW2 3320   4.164   4.521   0.223
  475SOL     OW 3321   0.415   6.459   7.195
  475SOL    HW1 3322   0.450   6.420   7.116
  475SOL    HW2 3323   0.453   6.407   7.266
  476SOL     OW 3324  12.528   1.496   2.753
  476SOL    HW1 3325  12.504   1.573   2.702
  476SOL    HW2 3326  12.539   1.528   2.843
  477SOL     OW 3327   0.575   2.629   2.516
  477SOL    HW1 3328   0.616   2.561   2.569
  477SOL    HW2 3329   0.585   2.598   2.426
  478SOL     OW 3330   1.970   8.235   9.044
  478SOL    HW1 3331   1.887   8.280   9.058
  478SOL    HW2 3332   2.033   8.305   9.030
  479SOL     OW 3333   2.662   1.859   7.866
  479SOL    HW1 3334   2.704   1.935   7.906
  479SOL    HW2 3335   2.571   1.865   7.895
  480SOL     OW 3336  10.189  13.786  13.050
  480SOL    HW1 3337  10.259  13.781  12.984
  480SOL    HW2 3338  10.108  13.772  13.001
  481SOL     OW 3339   1.552   3.134   4.520
  481SOL    HW1 3340   1.544   3.104   4.429
  481SOL    HW2 3341   1.579   3.056   4.569
  482SOL     OW 3342   0.138   2.101  11.308
  482SOL    HW1 3343   0.061   2.064  11.265
  482SOL    HW2 3344   0.154   2.183  11.262
  483SOL     OW 3345   2.678  10.635   3.238
  483SOL    HW1 3346   2.654  10.547   3.269
  483SOL    HW2 3347   2.769  10.627   3.211
  484SOL     OW 3348   0.860   9.400   6.228
  484SOL    HW1 3349   0.859   9.495   6.228
  484SOL    HW2 3350   0.769   9.374   6.240
  485SOL     OW 3351   7.816  10.753   7.088
  485SOL    HW1 3352   7.769  10.836   7.084
  485SOL    HW2 3353   7.755  10.693   7.130
  486SOL     OW 3354  12.494   7.518  14.494
  486SOL    HW1 3355  12.469   7.610  14.487
  486SOL    HW2 3356  12.450   7.487  14.574
  487SOL     OW 3357   6.133  14.514   6.301
  487SOL    HW1 3358   6.190  14.489   6.228
  487SOL    HW2 3359   6.074  14.440   6.313
  488SOL     OW 3360   4.948   8.860   0.427
  488SOL    HW1 3361   4.920   8.780   0.384
  488SOL    HW2 3362   4.967   8.835   0.517
  489SOL     OW 3363   2.282   3.673   2.468
  489SOL    HW1 3364   2.334   3.689   2.547
  489SOL    HW2 3365   2.191   3.680   2.498
  490SOL     OW 3366  11.103   1.288  10.116
  490SOL    HW1 3367  11.117   1.193  10.126
  490SOL    HW2 3368  11.027   1.295  10.058
  491SOL     OW 3369   7.159   6.823   9.083
  491SOL    HW1 3370   7.227   6.836   9.017
  491SOL    HW2 3371   7.151   6.908   9.126
  492SOL     OW 3372  12.686   8.494  11.150
  492SOL    HW1 3373  12.738   8.425  11.110
  492SOL    HW2 3374  12.714   8.574  11.105
  493SOL     OW 3375   6.279  12.182   6.176
  493SOL    HW1 3376   6.253  12.215   6.090
  493SOL    HW2 3377   6.224  12.105   6.190
  494SOL     OW 3378  10.607   3.134  14.264
  494SOL    HW1 3379  10.620   3.058  14.208
  494SOL    HW2 3380  10.534   3.181  14.223
  495SOL     OW 3381  12.827   6.704   3.391
  495SOL    HW1 3382  12.784   6.688   3.475
  495SOL    HW2 3383  12.920   6.698   3.410
  496SOL     OW 3384   1.040   2.333  12.542
  496SOL    HW1 3385   1.058   2.269  12.611
  496SOL    HW2 3386   1.023   2.280  12.464
  497SOL     OW 3387   0.283  12.679   5.160
  497SOL    HW1 3388   0.258  12.662   5.251
  497SOL    HW2 3389   0.313  12.594   5.128
  498SOL     OW 3390   6.145   1.627  10.781
  498SOL    HW1 3391   6.116   1.550  10.734
  498SOL    HW2 3392   6.171   1.689  10.712
  499SOL     OW 3393   9.367   7.543  11.222
  499SOL    HW1 3394   9.415   7.538  11.305
  499SOL    HW2 3395   9.353   7.452  11.196
  500SOL     OW 3396   6.464  11.132   1.612
  500SOL    HW1 3397   6.544  11.131   1.561
  500SOL    HW2 3398   6.410  11.200   1.572
  501SOL     OW 3399  14.358   2.107   1.908
  501SOL    HW1 3400  14.406   2.156   1.975
  501SOL    HW2 3401  14.266   2.110   1.937
  502SOL     OW 3402   9.419  11.805   2.162
  502SOL    HW1 3403   9.437  11.726   2.112
  502SOL    HW2 3404   9.362  11.776   2.234
  503SOL     OW 3405   5.997   1.432   1.097
  503SOL    HW1 3406   6.063   1.497   1.071
  503SOL    HW2 3407   5.935   1.481   1.152
  504SOL     OW 3408   5.332   0.448   0.072
  504SOL    HW1 3409   5.363   0.538   0.081
  504SOL    HW2 3410   5.329   0.414   0.161
  505SOL     OW 3411   5.315   9.232   5.500
  505SOL    HW1 3412   5.376   9.171   5.460
  505SOL    HW2 3413   5.229   9.192   5.486
  506SOL     OW 3414  10.397  13.419  11.454
  506SOL    HW1 3415  10.349  13.480  11.510
  506SOL    HW2 3416  10.488  13.446  11.460
  507SOL     OW 3417   6.473  13.332  10.421
  507SOL    HW1 3418   6.472  13.400  10.354
  507SOL    HW2 3419   6.394  13.349  10.473
  508SOL     OW 3420   9.377  12.106   5.208
  508SOL    HW1 3421   9.289  12.073   5.187
  508SOL    HW2 3422   9.408  12.049   5.279
  509SOL     OW 3423   3.092  12.420   4.056
  509SOL    HW1 3424   3.131  12.441   3.971
  509SOL    HW2 3425   3.049  12.335   4.043
  510SOL     OW 3426   3.306   7.554  14.056
  510SOL    HW1 3427   3.354   7.572  13.975
  510SOL    HW2 3428   3.348   7.610  14.122
  511SOL     OW 3429  13.500   0.717   2.712
  511SOL    HW1 3430  13.455   0.752   2.635
  511SOL    HW2 3431  13.479   0.623   2.711
  512SOL     OW 3432   6.041   5.733  10.905
  512SOL    HW1 3433   6.057   5.715  10.812
  512SOL    HW2 3434   6.077   5.657  10.951
  513SOL     OW 3435  13.681   3.903   8.227
  513SOL    HW1 3436  13.711   3.993   8.213
  513SOL    HW2 3437  13.762   3.852   8.231
  514SOL     OW 3438  12.700   9.866   5.089
  514SOL    HW1 3439  12.660   9.847   5.174
  514SOL    HW2 3440  12.678   9.957   5.072
  515SOL     OW 3441   1.772  12.848   5.133
  515SOL    HW1 3442   1.739  12.874   5.219
  515SOL    HW2 3443   1.773  12.929   5.083
  516SOL     OW 3444   9.944   1.966  10.568
  516SOL    HW1 3445  10.018   1.935  10.515
  516SOL    HW2 3446   9.923   2.051  10.531
  517SOL     OW 3447   4.721   0.456  13.305
  517SOL    HW1 3448   4.693   0.456  13.397
  517SOL    HW2 3449   4.699   0.543  13.273
  518SOL     OW 3450   3.101   7.678   9.206
  518SOL    HW1 3451   3.145   7.630   9.277
  518SOL    HW2 3452   3.136   7.767   9.213
  519SOL     OW 3453   7.761  13.544   7.145
  519SOL    HW1 3454   7.820  13.588   7.207
  519SOL    HW2 3455   7.742  13.460   7.186
  520SOL     OW 3456   8.067  12.283   0.953
  520SOL    HW1 3457   8.053  12.345   0.882
  520SOL    HW2 3458   8.128  12.327   1.013
  521SOL     OW 3459   5.973   9.490   4.873
  521SOL    HW1 3460   6.019   9.573   4.856
  521SOL    HW2 3461   6.038   9.422   4.855
  522SOL     OW 3462   3.163   7.037   5.298
  522SOL    HW1 3463   3.240   7.069   5.252
  522SOL    HW2 3464   3.167   7.079   5.384
  523SOL     OW 3465  14.686   6.968   5.752
  523SOL    HW1 3466  14.670   6.911   5.677
  523SOL    HW2 3467  14.692   6.909   5.827
  524SOL     OW 3468   2.997  12.892   5.345
  524SOL    HW1 3469   2.915  12.879   5.392
  524SOL    HW2 3470   3.056  12.931   5.410
  525SOL     OW 3471   4.067   9.583  10.568
  525SOL    HW1 3472   4.032   9.588  10.479
  525SOL    HW2 3473   4.032   9.501  10.603
  526SOL     OW 3474   6.229   5.665   3.100
  526SOL    HW1 3475   6.149   5.651   3.049
  526SOL    HW2 3476   6.297   5.622   3.049
  527SOL     OW 3477   0.402   9.545  11.297
  527SOL    HW1 3478   0.353   9.625  11.317
  527SOL    HW2 3479   0.369   9.480  11.360
  528SOL     OW 3480   3.268  13.322  10.715
  528SOL    HW1 3481   3.344  13.322  10.657
  528SOL    HW2 3482   3.218  13.245  10.689
  529SOL     OW 3483   0.741   8.556  11.876
  529SOL    HW1 3484   0.765   8.467  11.850
  529SOL    HW2 3485   0.726   8.549  11.971
  530SOL     OW 3486   9.914   0.360  11.434
  530SOL    HW1 3487   9.834   0.371  11.382
  530SOL    HW2 3488   9.892   0.290  11.496
  531SOL     OW 3489   0.676   9.152   2.299
  531SOL    HW1 3490   0.587   9.184   2.315
  531SOL    HW2 3491   0.732   9.208   2.353
  532SOL     OW 3492   5.693   3.515   0.155
  532SOL    HW1 3493   5.735   3.483   0.235
  532SOL    HW2 3494   5.686   3.609   0.168
  533SOL     OW 3495   1.956   6.315   9.798
  533SOL    HW1 3496   1.863   6.295   9.807
  533SOL    HW2 3497   1.994   6.237   9.758
  534SOL     OW 3498  13.875   4.659   7.153
  534SOL    HW1 3499  13.953   4.690   7.107
  534SOL    HW2 3500  13.862   4.723   7.224
  535SOL     OW 3501   8.502  11.721   4.679
  535SOL    HW1 3502   8.523  11.813   4.663
  535SOL    HW2 3503   8.563  11.694   4.747
  536SOL     OW 3504  14.389   5.508  12.964
  536SOL    HW1 3505  14.307   5.555  12.951
  536SOL    HW2 3506  14.458   5.573  12.947
  537SOL     OW 3507   3.420  11.488   3.385
  537SOL    HW1 3508   3.388  11.411   3.338
  537SOL    HW2 3509   3.475  11.453   3.455
  538SOL     OW 3510   2.048   7.890   7.659
  538SOL    HW1 3511   2.090   7.973   7.636
  538SOL    HW2 3512   1.962   7.915   7.693
  539SOL     OW 3513   0.543   7.034   4.534
  539SOL    HW1 3514   0.552   6.949   4.577
  539SOL    HW2 3515   0.475   7.079   4.585
  540SOL     OW 3516  11.922   7.594   4.716
  540SOL    HW1 3517  11.945   7.529   4.650
  540SOL    HW2 3518  11.828   7.583   4.729
  541SOL     OW 3519   0.375   5.276  14.021
  541SOL    HW1 3520   0.402   5.286  13.930
  541SOL    HW2 3521   0.416   5.194  14.049
  542SOL     OW 3522  12.983   8.109  11.062
  542SOL    HW1 3523  13.052   8.151  11.113
  542SOL    HW2 3524  12.915   8.176  11.054
  543SOL     OW 3525   6.402   3.576  14.729
  543SOL    HW1 3526   6.386   3.493  14.774
  543SOL    HW2 3527   6.347   3.639  14.775
  544SOL     OW 3528  13.533   0.425  14.842
  544SOL    HW1 3529  13.540   0.509   0.020
  544SOL    HW2 3530  13.575   0.363   0.033
  545SOL     OW 3531   2.358  12.533   4.898
  545SOL    HW1 3532   2.324  12.590   4.830
  545SOL    HW2 3533   2.453  12.544   4.893
  546SOL     OW 3534   1.685   0.830   1.145
  546SOL    HW1 3535   1.681   0.860   1.054
  546SOL    HW2 3536   1.671   0.910   1.197
  547SOL     OW 3537   0.182   7.448   4.870
  547SOL    HW1 3538   0.215   7.499   4.943
  547SOL    HW2 3539   0.182   7.358   4.901
  548SOL     OW 3540   9.288   9.178   3.164
  548SOL    HW1 3541   9.254   9.112   3.224
  548SOL    HW2 3542   9.246   9.260   3.192
  549SOL     OW 3543   6.569   4.911   2.574
  549SOL    HW1 3544   6.636   4.965   2.616
  549SOL    HW2 3545   6.548   4.844   2.639
  550SOL     OW 3546  14.853   8.945   1.990
  550SOL    HW1 3547  14.802   9.017   2.028
  550SOL    HW2 3548  14.845   8.874   2.054
  551SOL     OW 3549   6.939  13.269   5.866
  551SOL    HW1 3550   6.941  13.246   5.959
  551SOL    HW2 3551   6.934  13.184   5.821
  552SOL     OW 3552  10.401   8.191   9.788
  552SOL    HW1 3553  10.361   8.140   9.859
  552SOL    HW2 3554  10.454   8.256   9.833
  553SOL     OW 3555   1.752   7.894  14.295
  553SOL    HW1 3556   1.796   7.833  14.235
  553SOL    HW2 3557   1.813   7.968  14.301
  554SOL     OW 3558  12.757  12.470   4.264
  554SOL    HW1 3559  12.776  12.561   4.289
  554SOL    HW2 3560  12.780  12.419   4.341
  555SOL     OW 3561   8.708  13.730   5.888
  555SOL    HW1 3562   8.688  13.736   5.795
  555SOL    HW2 3563   8.804  13.730   5.893
  556SOL     OW 3564   2.546   4.201   0.830
  556SOL    HW1 3565   2.479   4.215   0.897
  556SOL    HW2 3566   2.619   4.162   0.878
  557SOL     OW 3567  10.644  14.187   0.196
  557SOL    HW1 3568  10.732  14.202   0.231
  557SOL    HW2 3569  10.587  14.189   0.272
  558SOL     OW 3570   9.891   2.882   6.113
  558SOL    HW1 3571   9.867   2.973   6.132
  558SOL    HW2 3572   9.922   2.884   6.023
  559SOL     OW 3573   4.811  12.252   8.709
  559SOL    HW1 3574   4.736  12.258   8.768
  559SOL    HW2 3575   4.831  12.159   8.705
  560SOL     OW 3576   0.314  13.372  14.309
  560SOL    HW1 3577   0.228  13.414  14.308
  560SOL    HW2 3578   0.332  13.353  14.217
  561SOL     OW 3579   8.028   7.964   5.354
  561SOL    HW1 3580   8.092   7.960   5.283
  561SOL    HW2 3581   8.036   7.879   5.398
  562SOL     OW 3582   4.892   2.656   0.929
  562SOL    HW1 3583   4.876   2.670   0.835
  562SOL    HW2 3584   4.838   2.723   0.972
  563SOL     OW 3585   6.837   4.308  14.213
  563SOL    HW1 3586   6.826   4.388  14.264
  563SOL    HW2 3587   6.931   4.290  14.217
  564SOL     OW 3588   6.346   4.936   0.432
  564SOL    HW1 3589   6.410   4.896   0.491
  564SOL    HW2 3590   6.382   5.023   0.413
  565SOL     OW 3591  14.064   2.760  10.918
  565SOL    HW1 3592  13.986   2.805  10.952
  565SOL    HW2 3593  14.062   2.777  10.824
  566SOL     OW 3594  12.904  10.579   1.547
  566SOL    HW1 3595  12.850  10.603   1.622
  566SOL    HW2 3596  12.841  10.568   1.475
  567SOL     OW 3597   9.710   3.745   5.183
  567SOL    HW1 3598   9.690   3.750   5.276
  567SOL    HW2 3599   9.651   3.808   5.142
  568SOL     OW 3600  10.319   8.334   3.891
  568SOL    HW1 3601  10.285   8.257   3.937
  568SOL    HW2 3602  10.405   8.350   3.931
  569SOL     OW 3603   3.056  13.660   5.764
  569SOL    HW1 3604   3.066  13.637   5.857
  569SOL    HW2 3605   2.963  13.681   5.755
  570SOL     OW 3606   9.817  11.764  13.880
  570SOL    HW1 3607   9.776  11.834  13.830
  570SOL    HW2 3608   9.869  11.716  13.815
  571SOL     OW 3609   3.145   3.150  10.721
  571SOL    HW1 3610   3.096   3.095  10.782
  571SOL    HW2 3611   3.162   3.231  10.769
  572SOL     OW 3612   6.280  13.494  11.331
  572SOL    HW1 3613   6.185  13.507  11.321
  572SOL    HW2 3614   6.310  13.469  11.243
  573SOL     OW 3615  13.739   9.023   1.934
  573SOL    HW1 3616  13.759   9.113   1.957
  573SOL    HW2 3617  13.658   9.027   1.884
  574SOL     OW 3618   3.835   6.518  12.666
  574SOL    HW1 3619   3.819   6.438  12.716
  574SOL    HW2 3620   3.794   6.587  12.718
  575SOL     OW 3621  14.407   6.725  10.620
  575SOL    HW1 3622  14.457   6.667  10.563
  575SOL    HW2 3623  14.350   6.774  10.561
  576SOL     OW 3624   5.563   2.992   5.298
  576SOL    HW1 3625   5.502   2.940   5.350
  576SOL    HW2 3626   5.560   2.951   5.211
  577SOL     OW 3627   0.097   8.258   9.320
  577SOL    HW1 3628   0.011   8.217   9.334
  577SOL    HW2 3629   0.087   8.307   9.238
  578SOL     OW 3630   9.794   3.114   4.080
  578SOL    HW1 3631   9.699   3.115   4.071
  578SOL    HW2 3632   9.827   3.127   3.990
  579SOL     OW 3633   2.349   8.744  11.258
  579SOL    HW1 3634   2.435   8.737  11.217
  579SOL    HW2 3635   2.291   8.696  11.199
  580SOL     OW 3636   5.830   6.633  14.798
  580SOL    HW1 3637   5.743   6.665  14.820
  580SOL    HW2 3638   5.818   6.582  14.718
  581SOL     OW 3639   7.465   1.101   3.620
  581SOL    HW1 3640   7.529   1.157   3.576
  581SOL    HW2 3641   7.515   1.022   3.643
  582SOL     OW 3642   1.657  11.337   4.529
  582SOL    HW1 3643   1.700  11.253   4.544
  582SOL    HW2 3644   1.727  11.402   4.540
  583SOL     OW 3645   5.722   0.082   7.952
  583SOL    HW1 3646   5.653   0.019   7.929
  583SOL    HW2 3647   5.763   0.103   7.868
  584SOL     OW 3648   6.362  12.754  14.766
  584SOL    HW1 3649   6.411  12.833  14.743
  584SOL    HW2 3650   6.278  12.786  14.800
  585SOL     OW 3651   8.824  13.700  10.899
  585SOL    HW1 3652   8.804  13.763  10.968
  585SOL    HW2 3653   8.838  13.618  10.944
  586SOL     OW 3654   9.125  11.921   0.955
  586SOL    HW1 3655   9.053  11.857   0.957
  586SOL    HW2 3656   9.158  11.923   1.045
  587SOL     OW 3657   8.499   8.822   3.680
  587SOL    HW1 3658   8.534   8.733   3.693
  587SOL    HW2 3659   8.547   8.876   3.743
  588SOL     OW 3660   2.269   0.371   7.105
  588SOL    HW1 3661   2.217   0.374   7.024
  588SOL    HW2 3662   2.283   0.277   7.120
  589SOL     OW 3663   3.884  10.239  12.174
  589SOL    HW1 3664   3.903  10.268  12.085
  589SOL    HW2 3665   3.853  10.149  12.164
  590SOL     OW 3666   7.498   2.426  12.092
  590SOL    HW1 3667   7.464   2.376  12.018
  590SOL    HW2 3668   7.489   2.518  12.065
  591SOL     OW 3669   0.470  10.004   0.879
  591SOL    HW1 3670   0.379   9.972   0.882
  591SOL    HW2 3671   0.523   9.925   0.889
  592SOL     OW 3672  10.344   7.782   4.418
  592SOL    HW1 3673  10.334   7.756   4.327
  592SOL    HW2 3674  10.313   7.872   4.421
  593SOL     OW 3675  10.874  13.434   6.349
  593SOL    HW1 3676  10.852  13.518   6.310
  593SOL    HW2 3677  10.820  13.370   6.301
  594SOL     OW 3678   7.603  14.858   0.009
  594SOL    HW1 3679   7.577   0.078   0.037
  594SOL    HW2 3680   7.587  14.803   0.085
  595SOL     OW 3681   3.116  10.951  10.427
  595SOL    HW1 3682   3.108  10.984  10.517
  595SOL    HW2 3683   3.067  11.013  10.374
  596SOL     OW 3684  13.821   2.361   1.301
  596SOL    HW1 3685  13.870   2.331   1.377
  596SOL    HW2 3686  13.780   2.443   1.329
  597SOL     OW 3687   0.737   0.438   4.125
  597SOL    HW1 3688   0.792   0.477   4.193
  597SOL    HW2 3689   0.767   0.348   4.119
  598SOL     OW 3690   2.506   2.679   4.049
  598SOL    HW1 3691   2.560   2.673   4.129
  598SOL    HW2 3692   2.470   2.768   4.052
  599SOL     OW 3693  10.427   2.144   5.712
  599SOL    HW1 3694  10.345   2.166   5.668
  599SOL    HW2 3695  10.494   2.193   5.664
  600SOL     OW 3696  11.950   3.029   1.525
  600SOL    HW1 3697  11.930   2.982   1.444
  600SOL    HW2 3698  12.018   2.975   1.567
  601SOL     OW 3699   3.949   0.488  10.391
  601SOL    HW1 3700   3.971   0.464  10.481
  601SOL    HW2 3701   4.006   0.563  10.372
  602SOL     OW 3702   5.874   6.595  13.072
  602SOL    HW1 3703   5.822   6.648  13.132
  602SOL    HW2 3704   5.833   6.509  13.075
  603SOL     OW 3705  13.311  14.758   3.125
  603SOL    HW1 3706  13.287  14.677   3.171
  603SOL    HW2 3707  13.361  14.728   3.049
  604SOL     OW 3708  14.706   0.595   3.789
  604SOL    HW1 3709  14.794   0.602   3.825
  604SOL    HW2 3710  14.710   0.520   3.730
  605SOL     OW 3711  11.760   5.088   3.291
  605SOL    HW1 3712  11.681   5.057   3.336
  605SOL    HW2 3713  11.828   5.026   3.316
  606SOL     OW 3714   4.915   9.553   8.470
  606SOL    HW1 3715   4.986   9.612   8.446
  606SOL    HW2 3716   4.909   9.491   8.397
  607SOL     OW 3717  12.967   1.311  10.603
  607SOL    HW1 3718  12.978   1.398  10.564
  607SOL    HW2 3719  12.956   1.253  10.528
  608SOL     OW 3720   1.346  10.556  12.841
  608SOL    HW1 3721   1.292  10.498  12.895
  608SOL    HW2 3722   1.415  10.499  12.807
  609SOL     OW 3723   4.608   4.883   5.945
  609SOL    HW1 3724   4.528   4.918   5.985
  609SOL    HW2 3725   4.678   4.936   5.981
  610SOL     OW 3726   0.115   4.741  10.918
  610SOL    HW1 3727   0.046   4.680  10.891
  610SOL    HW2 3728   0.079   4.785  10.995
  611SOL     OW 3729  14.677   6.542   9.541
  611SOL    HW1 3730  14.585   6.515   9.546
  611SOL    HW2 3731  14.692   6.592   9.621
  612SOL     OW 3732   2.330   3.368   4.662
  612SOL    HW1 3733   2.304   3.411   4.743
  612SOL    HW2 3734   2.253   3.376   4.605
  613SOL     OW 3735   0.545  12.903   6.603
  613SOL    HW1 3736   0.571  12.824   6.651
  613SOL    HW2 3737   0.619  12.921   6.545
  614SOL     OW 3738   8.460   2.292   0.386
  614SOL    HW1 3739   8.445   2.249   0.302
  614SOL    HW2 3740   8.379   2.340   0.402
  615SOL     OW 3741   2.788   6.929   1.178
  615SOL    HW1 3742   2.741   6.986   1.118
  615SOL    HW2 3743   2.741   6.845   1.175
  616SOL     OW 3744   5.798  13.780   3.606
  616SOL    HW1 3745   5.889  13.809   3.601
  616SOL    HW2 3746   5.800  13.708   3.669
  617SOL     OW 3747   1.474   6.736  13.013
  617SOL    HW1 3748   1.500   6.779  12.931
  617SOL    HW2 3749   1.557   6.716  13.056
  618SOL     OW 3750   9.689  10.161   1.876
  618SOL    HW1 3751   9.742  10.133   1.951
  618SOL    HW2 3752   9.602  10.124   1.892
  619SOL     OW 3753  14.621  10.525   0.883
  619SOL    HW1 3754  14.628  10.551   0.975
  619SOL    HW2 3755  14.709  10.534   0.848
  620SOL     OW 3756  12.247   2.352   2.369
  620SOL    HW1 3757  12.235   2.402   2.450
  620SOL    HW2 3758  12.169   2.371   2.317
  621SOL     OW 3759   9.839  13.937  14.416
  621SOL    HW1 3760   9.875  13.938  14.505
  621SOL    HW2 3761   9.909  13.902  14.362
  622SOL     OW 3762  13.258   8.168  12.194
  622SOL    HW1 3763  13.322   8.146  12.126
  622SOL    HW2 3764  13.207   8.088  12.206
  623SOL     OW 3765   3.913   1.553   0.603
  623SOL    HW1 3766   3.856   1.477   0.586
  623SOL    HW2 3767   3.873   1.624   0.553
  624SOL     OW 3768  12.754   8.273   1.865
  624SOL    HW1 3769  12.755   8.178   1.870
  624SOL    HW2 3770  12.702   8.301   1.940
  625SOL     OW 3771   7.486   3.429  13.053
  625SOL    HW1 3772   7.518   3.473  13.131
  625SOL    HW2 3773   7.394   3.453  13.048
  626SOL     OW 3774   2.841  10.640   2.413
  626SOL    HW1 3775   2.812  10.695   2.340
  626SOL    HW2 3776   2.875  10.561   2.371
  627SOL     OW 3777   5.203  12.710  11.184
  627SOL    HW1 3778   5.214  12.635  11.242
  627SOL    HW2 3779   5.292  12.736  11.161
  628SOL     OW 3780   1.513   2.742   1.174
  628SOL    HW1 3781   1.493   2.658   1.215
  628SOL    HW2 3782   1.608   2.749   1.180
  629SOL     OW 3783  13.104   0.517   6.858
  629SOL    HW1 3784  13.034   0.454   6.845
  629SOL    HW2 3785  13.064   0.588   6.908
  630SOL     OW 3786   7.807   0.079  10.335
  630SOL    HW1 3787   7.879   0.018  10.350
  630SOL    HW2 3788   7.743   0.059  10.404
  631SOL     OW 3789  12.168   1.395   9.949
  631SOL    HW1 3790  12.131   1.404  10.036
  631SOL    HW2 3791  12.256   1.361   9.963
  632SOL     OW 3792  11.299   5.531  12.283
  632SOL    HW1 3793  11.220   5.584  12.271
  632SOL    HW2 3794  11.371   5.592  12.273
  633SOL     OW 3795  14.524  11.612   3.402
  633SOL    HW1 3796  14.542  11.526   3.366
  633SOL    HW2 3797  14.433  11.630   3.378
  634SOL     OW 3798   3.836   2.693   3.202
  634SOL    HW1 3799   3.784   2.758   3.154
  634SOL    HW2 3800   3.781   2.614   3.201
  635SOL     OW 3801   4.787   4.610   0.142
  635SOL    HW1 3802   4.838   4.555   0.083
  635SOL    HW2 3803   4.798   4.699   0.108
  636SOL     OW 3804  10.988   6.891  14.668
  636SOL    HW1 3805  10.893   6.881  14.666
  636SOL    HW2 3806  11.021   6.819  14.614
  637SOL     OW 3807  10.446   0.064  11.120
  637SOL    HW1 3808  10.499   0.071  11.041
  637SOL    HW2 3809  10.509   0.065  11.192
  638SOL     OW 3810   2.039  11.230  13.313
  638SOL    HW1 3811   2.133  11.239  13.298
  638SOL    HW2 3812   2.026  11.257  13.404
  639SOL     OW 3813   0.045   7.098  14.838
  639SOL    HW1 3814   0.128   7.050  14.843
  639SOL    HW2 3815  14.851   7.033  14.805
  640SOL     OW 3816   4.535  13.576  12.338
  640SOL    HW1 3817   4.547  13.599  12.246
  640SOL    HW2 3818   4.517  13.659  12.382
  641SOL     OW 3819   2.407   1.674   3.765
  641SOL    HW1 3820   2.371   1.599   3.812
  641SOL    HW2 3821   2.374   1.750   3.813
  642SOL     OW 3822   5.068   7.514   8.950
  642SOL    HW1 3823   5.105   7.491   9.035
  642SOL    HW2 3824   5.141   7.508   8.889
  643SOL     OW 3825  12.999   7.566   2.836
  643SOL    HW1 3826  13.091   7.579   2.858
  643SOL    HW2 3827  13.000   7.526   2.749
  644SOL     OW 3828   6.994  13.744   4.877
  644SOL    HW1 3829   6.950  13.829   4.890
  644SOL    HW2 3830   7.005  13.710   4.966
  645SOL     OW 3831   5.859   1.980  12.519
  645SOL    HW1 3832   5.777   2.021  12.492
  645SOL    HW2 3833   5.918   1.992  12.445
  646SOL     OW 3834   5.252   9.375   0.047
  646SOL    HW1 3835   5.330   9.361   0.102
  646SOL    HW2 3836   5.197   9.434   0.099
  647SOL     OW 3837   5.175   0.929   3.764
  647SOL    HW1 3838   5.090   0.890   3.782
  647SOL    HW2 3839   5.155   1.015   3.728
  648SOL     OW 3840   9.866  13.067   0.903
  648SOL    HW1 3841   9.881  13.127   0.829
  648SOL    HW2 3842   9.787  13.100   0.945
  649SOL     OW 3843   4.805  14.729   0.028
  649SOL    HW1 3844   4.799  14.809  14.845
  649SOL    HW2 3845   4.898  14.711   0.036
  650SOL     OW 3846  14.080   4.600  11.828
  650SOL    HW1 3847  13.988   4.588  11.849
  650SOL    HW2 3848  14.080   4.630  11.737
  651SOL     OW 3849   2.665  11.372   9.757
  651SOL    HW1 3850   2.588  11.426   9.736
  651SOL    HW2 3851   2.730  11.434   9.790
  652SOL     OW 3852  12.096   3.272  12.698
  652SOL    HW1 3853  12.160   3.224  12.645
  652SOL    HW2 3854  12.035   3.205  12.728
  653SOL     OW 3855   0.780  11.879  10.094
  653SOL    HW1 3856   0.735  11.962  10.075
  653SOL    HW2 3857   0.729  11.841  10.166
  654SOL     OW 3858   8.608   1.707  14.117
  654SOL    HW1 3859   8.534   1.767  14.107
  654SOL    HW2 3860   8.569   1.620  14.111
  655SOL     OW 3861   5.814  10.719   7.423
  655SOL    HW1 3862   5.851  10.796   7.378
  655SOL    HW2 3863   5.760  10.676   7.356
  656SOL     OW 3864   7.564  11.122   9.775
  656SOL    HW1 3865   7.628  11.183   9.737
  656SOL    HW2 3866   7.570  11.137   9.869
  657SOL     OW 3867  10.908   9.341  12.747
  657SOL    HW1 3868  10.943   9.260  12.785
  657SOL    HW2 3869  10.985   9.397  12.735
  658SOL     OW 3870  12.800  10.066   4.430
  658SOL    HW1 3871  12.711  10.032   4.420
  658SOL    HW2 3872  12.821  10.101   4.343
  659SOL     OW 3873   8.592  11.221   1.554
  659SOL    HW1 3874   8.595  11.157   1.626
  659SOL    HW2 3875   8.611  11.169   1.476
  660SOL     OW 3876   6.832  10.487   6.676
  660SOL    HW1 3877   6.877  10.436   6.608
  660SOL    HW2 3878   6.744  10.450   6.680
  661SOL     OW 3879   6.732   7.228   5.474
  661SOL    HW1 3880   6.730   7.247   5.381
  661SOL    HW2 3881   6.794   7.291   5.511
  662SOL     OW 3882  14.539   6.268   9.770
  662SOL    HW1 3883  14.485   6.344   9.792
  662SOL    HW2 3884  14.509   6.242   9.682
  663SOL     OW 3885   9.804   0.039  13.187
  663SOL    HW1 3886   9.789   0.068  13.098
  663SOL    HW2 3887   9.860   0.106  13.226
  664SOL     OW 3888   0.083   1.894   0.991
  664SOL    HW1 3889   0.012   1.861   1.046
  664SOL    HW2 3890   0.040   1.957   0.932
  665SOL     OW 3891   5.739   0.477   4.144
  665SOL    HW1 3892   5.687   0.434   4.076
  665SOL    HW2 3893   5.747   0.410   4.213
  666SOL     OW 3894  12.921   2.321  11.088
  666SOL    HW1 3895  12.939   2.380  11.015
  666SOL    HW2 3896  13.004   2.277  11.104
  667SOL     OW 3897   6.662   5.351   5.205
  667SOL    HW1 3898   6.600   5.422   5.219
  667SOL    HW2 3899   6.641   5.286   5.272
  668SOL     OW 3900   8.374  10.144  13.908
  668SOL    HW1 3901   8.333  10.112  13.827
  668SOL    HW2 3902   8.467  10.148  13.888
  669SOL     OW 3903   9.502  12.642  10.084
  669SOL    HW1 3904   9.588  12.675  10.057
  669SOL    HW2 3905   9.484  12.570  10.022
  670SOL     OW 3906   7.216  12.876  12.299
  670SOL    HW1 3907   7.302  12.876  12.259
  670SOL    HW2 3908   7.175  12.957  12.268
  671SOL     OW 3909   1.288   3.585   8.548
  671SOL    HW1 3910   1.269   3.678   8.559
  671SOL    HW2 3911   1.321   3.556   8.633
  672SOL     OW 3912  14.447   3.952   4.030
  672SOL    HW1 3913  14.519   3.928   4.089
  672SOL    HW2 3914  14.433   3.873   3.977
  673SOL     OW 3915   4.271  10.290   5.879
  673SOL    HW1 3916   4.330  10.279   5.804
  673SOL    HW2 3917   4.195  10.336   5.843
  674SOL     OW 3918   4.742  10.335   7.775
  674SOL    HW1 3919   4.831  10.367   7.758
  674SOL    HW2 3920   4.716  10.292   7.694
  675SOL     OW 3921  11.170  11.125   6.554
  675SOL    HW1 3922  11.251  11.089   6.591
  675SOL    HW2 3923  11.195  11.213   6.524
  676SOL     OW 3924  11.896  12.007   0.393
  676SOL    HW1 3925  11.904  11.943   0.464
  676SOL    HW2 3926  11.889  12.091   0.438
  677SOL     OW 3927  13.119   8.763   8.927
  677SOL    HW1 3928  13.123   8.842   8.980
  677SOL    HW2 3929  13.178   8.701   8.971
  678SOL     OW 3930   4.950  13.792   5.517
  678SOL    HW1 3931   4.927  13.732   5.446
  678SOL    HW2 3932   4.937  13.741   5.596
  679SOL     OW 3933   5.774  12.550  12.101
  679SOL    HW1 3934   5.722  12.492  12.157
  679SOL    HW2 3935   5.813  12.491  12.036
  680SOL     OW 3936  10.406  12.650  10.023
  680SOL    HW1 3937  10.394  12.576  10.082
  680SOL    HW2 3938  10.496  12.679  10.039
  681SOL     OW 3939   4.683   5.066   8.665
  681SOL    HW1 3940   4.745   5.036   8.731
  681SOL    HW2 3941   4.698   5.160   8.658
  682SOL     OW 3942   0.937  12.760   9.900
  682SOL    HW1 3943   0.905  12.816   9.829
  682SOL    HW2 3944   0.898  12.798   9.979
  683SOL     OW 3945   7.205   6.644  10.843
  683SOL    HW1 3946   7.124   6.688  10.820
  683SOL    HW2 3947   7.273   6.711  10.836
  684SOL     OW 3948   0.419  11.721   2.530
  684SOL    HW1 3949   0.476  11.795   2.507
  684SOL    HW2 3950   0.355  11.759   2.590
  685SOL     OW 3951  14.160   8.529  14.015
  685SOL    HW1 3952  14.196   8.544  13.927
  685SOL    HW2 3953  14.151   8.434  14.021
  686SOL     OW 3954   5.373   4.049   3.673
  686SOL    HW1 3955   5.308   4.016   3.735
  686SOL    HW2 3956   5.414   3.971   3.637
  687SOL     OW 3957  11.951   6.277  12.499
  687SOL    HW1 3958  12.009   6.301  12.571
  687SOL    HW2 3959  11.995   6.310  12.421
  688SOL     OW 3960  10.755   6.615   0.441
  688SOL    HW1 3961  10.675   6.589   0.395
  688SOL    HW2 3962  10.826   6.579   0.388
  689SOL     OW 3963   1.449  13.699   1.485
  689SOL    HW1 3964   1.366  13.662   1.515
  689SOL    HW2 3965   1.497  13.624   1.449
  690SOL     OW 3966   3.743   9.149  14.013
  690SOL    HW1 3967   3.764   9.058  14.038
  690SOL    HW2 3968   3.705   9.141  13.926
  691SOL     OW 3969  13.191   4.785   4.469
  691SOL    HW1 3970  13.209   4.696   4.439
  691SOL    HW2 3971  13.109   4.778   4.518
  692SOL     OW 3972   4.348   6.504  13.264
  692SOL    HW1 3973   4.270   6.544  13.302
  692SOL    HW2 3974   4.330   6.498  13.170
  693SOL     OW 3975  10.683   9.881   3.647
  693SOL    HW1 3976  10.725   9.947   3.591
  693SOL    HW2 3977  10.732   9.885   3.729
  694SOL     OW 3978   5.708  10.469   5.789
  694SOL    HW1 3979   5.765  10.524   5.735
  694SOL    HW2 3980   5.751  10.467   5.874
  695SOL     OW 3981   1.726  13.469   1.835
  695SOL    HW1 3982   1.750  13.556   1.865
  695SOL    HW2 3983   1.809  13.428   1.811
  696SOL     OW 3984   4.793   6.330   5.639
  696SOL    HW1 3985   4.745   6.250   5.660
  696SOL    HW2 3986   4.765   6.393   5.706
  697SOL     OW 3987   2.637  12.623  14.820
  697SOL    HW1 3988   2.655  12.716  14.805
  697SOL    HW2 3989   2.542  12.616  14.818
  698SOL     OW 3990  10.942   6.960  12.783
  698SOL    HW1 3991  10.900   6.993  12.862
  698SOL    HW2 3992  11.020   6.913  12.814
  699SOL     OW 3993   9.173  13.764   2.960
  699SOL    HW1 3994   9.186  13.684   2.910
  699SOL    HW2 3995   9.181  13.737   3.052
  700SOL     OW 3996   7.118  13.096   1.584
  700SOL    HW1 3997   7.207  13.088   1.618
  700SOL    HW2 3998   7.062  13.073   1.659
  701SOL     OW 3999  11.789   5.411   8.271
  701SOL    HW1 4000  11.857   5.351   8.241
  701SOL    HW2 4001  11.836   5.482   8.313
  702SOL     OW 4002   1.462   6.924   8.129
  702SOL    HW1 4003   1.542   6.976   8.124
  702SOL    HW2 4004   1.451   6.888   8.041
  703SOL     OW 4005  12.746  11.878   7.654
  703SOL    HW1 4006  12.779  11.884   7.564
  703SOL    HW2 4007  12.742  11.784   7.672
  704SOL     OW 4008   2.097  13.921  12.611
  704SOL    HW1 4009   2.174  13.899  12.663
  704SOL    HW2 4010   2.082  14.014  12.627
  705SOL     OW 4011   7.351   6.606   1.222
  705SOL    HW1 4012   7.345   6.701   1.228
  705SOL    HW2 4013   7.287   6.581   1.155
  706SOL     OW 4014  14.170   6.384   9.841
  706SOL    HW1 4015  14.143   6.360   9.930
  706SOL    HW2 4016  14.266   6.386   9.844
  707SOL     OW 4017  12.927   3.805   9.742
  707SOL    HW1 4018  12.967   3.725   9.776
  707SOL    HW2 4019  13.001   3.860   9.717
  708SOL     OW 4020  12.644  13.337   7.708
  708SOL    HW1 4021  12.552  13.323   7.686
  708SOL    HW2 4022  12.644  13.348   7.803
  709SOL     OW 4023   3.283   2.018  14.601
  709SOL    HW1 4024   3.326   2.037  14.684
  709SOL    HW2 4025   3.218   1.952  14.623
  710SOL     OW 4026  13.491  14.012   3.269
  710SOL    HW1 4027  13.579  14.042   3.293
  710SOL    HW2 4028  13.457  13.973   3.350
  711SOL     OW 4029   8.885  10.719   5.498
  711SOL    HW1 4030   8.827  10.697   5.425
  711SOL    HW2 4031   8.876  10.814   5.507
  712SOL     OW 4032  11.105   1.239  11.026
  712SOL    HW1 4033  11.149   1.259  10.943
  712SOL    HW2 4034  11.175   1.235  11.090
  713SOL     OW 4035   4.609  14.317   5.701
  713SOL    HW1 4036   4.672  14.275   5.758
  713SOL    HW2 4037   4.525  14.306   5.746
  714SOL     OW 4038  13.315  11.734   7.995
  714SOL    HW1 4039  13.281  11.793   7.928
  714SOL    HW2 4040  13.246  11.730   8.061
  715SOL     OW 4041   6.629   7.910  10.219
  715SOL    HW1 4042   6.679   7.867  10.289
  715SOL    HW2 4043   6.691   7.918  10.147
  716SOL     OW 4044   1.182  10.646   6.814
  716SOL    HW1 4045   1.115  10.714   6.811
  716SOL    HW2 4046   1.161  10.595   6.893
  717SOL     OW 4047  11.055   4.100   2.992
  717SOL    HW1 4048  11.142   4.103   2.951
  717SOL    HW2 4049  11.059   4.025   3.051
  718SOL     OW 4050   0.698   2.136  14.799
  718SOL    HW1 4051   0.736   2.220  14.827
  718SOL    HW2 4052   0.727   2.074  14.866
  719SOL     OW 4053   5.056  14.349   9.789
  719SOL    HW1 4054   5.114  14.273   9.779
  719SOL    HW2 4055   5.027  14.345   9.881
  720SOL     OW 4056  11.691  14.490   0.562
  720SOL    HW1 4057  11.692  14.414   0.619
  720SOL    HW2 4058  11.783  14.507   0.542
  721SOL     OW 4059  14.323   6.384   3.291
  721SOL    HW1 4060  14.361   6.296   3.296
  721SOL    HW2 4061  14.235   6.371   3.256
  722SOL     OW 4062  12.229  14.221   1.537
  722SOL    HW1 4063  12.310  14.193   1.579
  722SOL    HW2 4064  12.203  14.147   1.482
  723SOL     OW 4065  13.318   4.918  11.016
  723SOL    HW1 4066  13.351   4.928  10.927
  723SOL    HW2 4067  13.247   4.982  11.023
  724SOL     OW 4068   1.866  13.703   9.671
  724SOL    HW1 4069   1.778  13.667   9.688
  724SOL    HW2 4070   1.920  13.626   9.654
  725SOL     OW 4071   7.184  12.182   3.270
  725SOL    HW1 4072   7.093  12.154   3.261
  725SOL    HW2 4073   7.216  12.191   3.181
  726SOL     OW 4074  10.422   6.476   8.958
  726SOL    HW1 4075  10.397   6.535   8.887
  726SOL    HW2 4076  10.512   6.500   8.978
  727SOL     OW 4077  12.403   3.040   1.324
  727SOL    HW1 4078  12.490   3.003   1.314
  727SOL    HW2 4079  12.345   2.964   1.331
  728SOL     OW 4080   9.117   6.223   2.403
  728SOL    HW1 4081   9.070   6.180   2.331
  728SOL    HW2 4082   9.207   6.231   2.371
  729SOL     OW 4083  11.009   3.819  12.277
  729SOL    HW1 4084  11.033   3.834  12.185
  729SOL    HW2 4085  11.064   3.746  12.305
  730SOL     OW 4086   5.650   7.839   8.894
  730SOL    HW1 4087   5.736   7.852   8.935
  730SOL    HW2 4088   5.591   7.823   8.968
  731SOL     OW 4089   4.833  11.733   2.511
  731SOL    HW1 4090   4.836  11.791   2.435
  731SOL    HW2 4091   4.918  11.746   2.554
  732SOL     OW 4092   2.967   0.730   9.878
  732SOL    HW1 4093   2.925   0.816   9.890
  732SOL    HW2 4094   3.046   0.735   9.931
  733SOL     OW 4095   6.292   1.729   5.141
  733SOL    HW1 4096   6.199   1.708   5.135
  733SOL    HW2 4097   6.295   1.824   5.151
  734SOL     OW 4098  10.264   4.443   9.453
  734SOL    HW1 4099  10.302   4.512   9.398
  734SOL    HW2 4100  10.181   4.479   9.483
  735SOL     OW 4101   6.763  14.684  10.427
  735SOL    HW1 4102   6.732  14.614  10.484
  735SOL    HW2 4103   6.818  14.640  10.362
  736SOL     OW 4104  13.360   0.214   5.519
  736SOL    HW1 4105  13.350   0.119   5.514
  736SOL    HW2 4106  13.325   0.246   5.435
  737SOL     OW 4107  12.134   0.748   4.703
  737SOL    HW1 4108  12.135   0.748   4.607
  737SOL    HW2 4109  12.205   0.689   4.728
  738SOL     OW 4110  11.930  10.766   8.683
  738SOL    HW1 4111  11.847  10.733   8.647
  738SOL    HW2 4112  11.969  10.815   8.611
  739SOL     OW 4113   1.162   0.670   9.242
  739SOL    HW1 4114   1.238   0.628   9.281
  739SOL    HW2 4115   1.087   0.630   9.286
  740SOL     OW 4116   3.388   2.096   4.510
  740SOL    HW1 4117   3.361   2.172   4.458
  740SOL    HW2 4118   3.343   2.107   4.594
  741SOL     OW 4119  11.380   3.605   6.215
  741SOL    HW1 4120  11.436   3.616   6.138
  741SOL    HW2 4121  11.336   3.521   6.201
  742SOL     OW 4122   8.831  11.107  13.982
  742SOL    HW1 4123   8.863  11.134  14.068
  742SOL    HW2 4124   8.900  11.049  13.948
  743SOL     OW 4125   4.097   2.503   6.396
  743SOL    HW1 4126   4.149   2.458   6.329
  743SOL    HW2 4127   4.162   2.547   6.451
  744SOL     OW 4128   8.600   7.004  12.019
  744SOL    HW1 4129   8.616   7.097  12.038
  744SOL    HW2 4130   8.517   6.984  12.062
  745SOL     OW 4131  10.874   9.895   9.897
  745SOL    HW1 4132  10.858   9.980   9.855
  745SOL    HW2 4133  10.802   9.839   9.866
  746SOL     OW 4134  11.999  12.696  10.062
  746SOL    HW1 4135  11.951  12.770  10.100
  746SOL    HW2 4136  11.952  12.619  10.093
  747SOL     OW 4137   0.160   8.681   3.133
  747SOL    HW1 4138   0.145   8.649   3.044
  747SOL    HW2 4139   0.073   8.679   3.174
  748SOL     OW 4140   0.612   1.107   4.322
  748SOL    HW1 4141   0.551   1.172   4.287
  748SOL    HW2 4142   0.652   1.067   4.245
  749SOL     OW 4143  10.171   1.783  14.864
  749SOL    HW1 4144  10.148   1.801  14.773
  749SOL    HW2 4145  10.267   1.784  14.865
  750SOL     OW 4146  14.288   9.804   9.494
  750SOL    HW1 4147  14.283   9.863   9.570
  750SOL    HW2 4148  14.203   9.760   9.492
  751SOL     OW 4149  11.849  14.116   1.042
  751SOL    HW1 4150  11.760  14.128   1.009
  751SOL    HW2 4151  11.882  14.205   1.058
  752SOL     OW 4152  13.301  12.984   6.137
  752SOL    HW1 4153  13.264  12.970   6.224
  752SOL    HW2 4154  13.297  12.898   6.096
  753SOL     OW 4155  12.082   2.082   1.696
  753SOL    HW1 4156  12.089   2.143   1.770
  753SOL    HW2 4157  12.084   1.995   1.737
  754SOL     OW 4158  14.077  13.323  14.485
  754SOL    HW1 4159  14.104  13.258  14.549
  754SOL    HW2 4160  14.098  13.408  14.525
  755SOL     OW 4161  12.311   6.970   3.998
  755SOL    HW1 4162  12.386   7.012   3.956
  755SOL    HW2 4163  12.350   6.909   4.062
  756SOL     OW 4164   5.336   0.142  14.771
  756SOL    HW1 4165   5.326   0.180  14.684
  756SOL    HW2 4166   5.253   0.098  14.788
  757SOL     OW 4167   9.846  12.885  10.534
  757SOL    HW1 4168   9.786  12.909  10.463
  757SOL    HW2 4169   9.929  12.926  10.510
  758SOL     OW 4170   5.482   7.326   2.188
  758SOL    HW1 4171   5.577   7.328   2.193
  758SOL    HW2 4172   5.457   7.416   2.165
  759SOL     OW 4173   9.945   6.936   7.737
  759SOL    HW1 4174  10.018   6.875   7.734
  759SOL    HW2 4175   9.910   6.936   7.648
  760SOL     OW 4176  13.811   1.952   4.800
  760SOL    HW1 4177  13.794   1.870   4.845
  760SOL    HW2 4178  13.781   2.019   4.862
  761SOL     OW 4179   0.895   1.399   4.754
  761SOL    HW1 4180   0.876   1.487   4.785
  761SOL    HW2 4181   0.941   1.357   4.827
  762SOL     OW 4182  11.617   6.382   7.173
  762SOL    HW1 4183  11.593   6.316   7.108
  762SOL    HW2 4184  11.534   6.423   7.197
  763SOL     OW 4185  13.859   7.928   3.979
  763SOL    HW1 4186  13.829   8.014   3.950
  763SOL    HW2 4187  13.864   7.936   4.075
  764SOL     OW 4188  10.979   2.265   1.746
  764SOL    HW1 4189  11.070   2.256   1.773
  764SOL    HW2 4190  10.928   2.247   1.825
  765SOL     OW 4191   1.139  10.629   3.205
  765SOL    HW1 4192   1.131  10.533   3.202
  765SOL    HW2 4193   1.210  10.649   3.143
  766SOL     OW 4194  11.402  13.888  10.795
  766SOL    HW1 4195  11.378  13.809  10.746
  766SOL    HW2 4196  11.348  13.957  10.755
  767SOL     OW 4197   7.584   9.627  13.471
  767SOL    HW1 4198   7.638   9.587  13.539
  767SOL    HW2 4199   7.639   9.626  13.393
  768SOL     OW 4200   2.317  14.289   6.057
  768SOL    HW1 4201   2.354  14.370   6.093
  768SOL    HW2 4202   2.256  14.318   5.989
  769SOL     OW 4203  11.917  11.605   1.518
  769SOL    HW1 4204  11.830  11.643   1.529
  769SOL    HW2 4205  11.902  11.529   1.461
  770SOL     OW 4206  14.334   3.379   8.345
  770SOL    HW1 4207  14.326   3.310   8.410
  770SOL    HW2 4208  14.418   3.363   8.303
  771SOL     OW 4209  11.582  12.993  13.633
  771SOL    HW1 4210  11.519  12.979  13.562
  771SOL    HW2 4211  11.589  13.089  13.640
  772SOL     OW 4212   4.164   9.241   1.891
  772SOL    HW1 4213   4.122   9.326   1.881
  772SOL    HW2 4214   4.226   9.253   1.963
  773SOL     OW 4215   8.715  12.191   8.415
  773SOL    HW1 4216   8.674  12.212   8.498
  773SOL    HW2 4217   8.789  12.135   8.438
  774SOL     OW 4218   9.035   8.153   1.395
  774SOL    HW1 4219   8.957   8.142   1.342
  774SOL    HW2 4220   9.027   8.086   1.463
  775SOL     OW 4221  10.988   3.481   2.649
  775SOL    HW1 4222  10.987   3.570   2.615
  775SOL    HW2 4223  11.076   3.471   2.687
  776SOL     OW 4224   4.301  10.054   5.002
  776SOL    HW1 4225   4.384  10.016   4.976
  776SOL    HW2 4226   4.268  10.098   4.923
  777SOL     OW 4227  11.627   3.897  13.647
  777SOL    HW1 4228  11.688   3.969  13.630
  777SOL    HW2 4229  11.570   3.930  13.717
  778SOL     OW 4230   3.322  12.326   6.973
  778SOL    HW1 4231   3.340  12.390   6.905
  778SOL    HW2 4232   3.227  12.318   6.974
  779SOL     OW 4233   8.066   1.240  10.951
  779SOL    HW1 4234   8.137   1.192  10.995
  779SOL    HW2 4235   8.089   1.234  10.858
  780SOL     OW 4236  13.028  13.139   0.817
  780SOL    HW1 4237  13.116  13.105   0.802
  780SOL    HW2 4238  13.017  13.136   0.912
  781SOL     OW 4239   7.506  11.655  10.709
  781SOL    HW1 4240   7.509  11.706  10.628
  781SOL    HW2 4241   7.415  11.657  10.737
  782SOL     OW 4242   2.158  11.535   6.151
  782SOL    HW1 4243   2.202  11.617   6.131
  782SOL    HW2 4244   2.168  11.525   6.246
  783SOL     OW 4245   9.109   3.470   0.073
  783SOL    HW1 4246   9.024   3.476   0.118
  783SOL    HW2 4247   9.091   3.422  14.861
  784SOL     OW 4248   5.616   2.383   7.695
  784SOL    HW1 4249   5.557   2.310   7.679
  784SOL    HW2 4250   5.570   2.459   7.659
  785SOL     OW 4251   9.898  11.571   3.607
  785SOL    HW1 4252   9.808  11.596   3.625
  785SOL    HW2 4253   9.950  11.618   3.672
  786SOL     OW 4254   3.659   9.205   9.376
  786SOL    HW1 4255   3.650   9.110   9.390
  786SOL    HW2 4256   3.577   9.242   9.408
  787SOL     OW 4257   3.964  13.021  11.755
  787SOL    HW1 4258   3.961  12.926  11.768
  787SOL    HW2 4259   3.947  13.057  11.842
  788SOL     OW 4260   9.697   2.891   9.475
  788SOL    HW1 4261   9.772   2.863   9.528
  788SOL    HW2 4262   9.718   2.981   9.450
  789SOL     OW 4263   3.370  13.552   6.821
  789SOL    HW1 4264   3.385  13.585   6.732
  789SOL    HW2 4265   3.383  13.628   6.877
  790SOL     OW 4266   6.876   8.251   5.706
  790SOL    HW1 4267   6.873   8.233   5.612
  790SOL    HW2 4268   6.785   8.265   5.731
  791SOL     OW 4269  12.364  13.212  12.702
  791SOL    HW1 4270  12.417  13.214  12.781
  791SOL    HW2 4271  12.374  13.298  12.663
  792SOL     OW 4272   3.723   3.318  13.265
  792SOL    HW1 4273   3.788   3.388  13.258
  792SOL    HW2 4274   3.713   3.304  13.359
  793SOL     OW 4275   7.729   3.474   5.662
  793SOL    HW1 4276   7.785   3.458   5.738
  793SOL    HW2 4277   7.712   3.387   5.625
  794SOL     OW 4278  14.674   4.826   5.859
  794SOL    HW1 4279  14.725   4.787   5.788
  794SOL    HW2 4280  14.594   4.773   5.863
  795SOL     OW 4281   6.705   7.303   0.565
  795SOL    HW1 4282   6.740   7.354   0.638
  795SOL    HW2 4283   6.636   7.357   0.528
  796SOL     OW 4284  11.578   2.095   2.767
  796SOL    HW1 4285  11.624   2.078   2.684
  796SOL    HW2 4286  11.601   2.020   2.822
  797SOL     OW 4287   7.056   9.059  11.598
  797SOL    HW1 4288   7.137   9.008  11.605
  797SOL    HW2 4289   7.038   9.086  11.688
  798SOL     OW 4290  10.505  11.060   1.883
  798SOL    HW1 4291  10.516  11.154   1.865
  798SOL    HW2 4292  10.417  11.040   1.851
  799SOL     OW 4293  14.023  13.144   1.625
  799SOL    HW1 4294  14.074  13.138   1.706
  799SOL    HW2 4295  14.082  13.187   1.563
  800SOL     OW 4296  11.717   3.867  14.487
  800SOL    HW1 4297  11.697   3.919  14.410
  800SOL    HW2 4298  11.754   3.929  14.550
  801SOL     OW 4299   2.603   4.304   4.308
  801SOL    HW1 4300   2.679   4.353   4.277
  801SOL    HW2 4301   2.639   4.246   4.376
  802SOL     OW 4302  14.699  14.129   5.359
  802SOL    HW1 4303  14.768  14.187   5.390
  802SOL    HW2 4304  14.643  14.185   5.305
  803SOL     OW 4305  10.567  14.631  13.299
  803SOL    HW1 4306  10.518  14.549  13.297
  803SOL    HW2 4307  10.598  14.642  13.209
  804SOL     OW 4308   6.691  11.415  10.452
  804SOL    HW1 4309   6.708  11.456  10.537
  804SOL    HW2 4310   6.607  11.452  10.425
  805SOL     OW 4311   5.075  13.691   5.964
  805SOL    HW1 4312   5.147  13.749   5.989
  805SOL    HW2 4313   5.093  13.609   6.011
  806SOL     OW 4314   6.708   2.866  14.493
  806SOL    HW1 4315   6.630   2.810  14.496
  806SOL    HW2 4316   6.687   2.940  14.550
  807SOL     OW 4317  13.385   5.269   0.251
  807SOL    HW1 4318  13.415   5.345   0.301
  807SOL    HW2 4319  13.438   5.270   0.171
  808SOL     OW 4320  12.826   8.010   1.873
  808SOL    HW1 4321  12.745   7.969   1.903
  808SOL    HW2 4322  12.891   7.985   1.938
  809SOL     OW 4323  13.953   4.288   2.037
  809SOL    HW1 4324  13.889   4.224   2.005
  809SOL    HW2 4325  13.935   4.295   2.130
  810SOL     OW 4326   1.275  11.945  12.597
  810SOL    HW1 4327   1.198  11.937  12.540
  810SOL    HW2 4328   1.294  12.039  12.599
  811SOL     OW 4329   2.120  12.900  13.250
  811SOL    HW1 4330   2.043  12.869  13.299
  811SOL    HW2 4331   2.101  12.991  13.231
  812SOL     OW 4332   9.711   4.921   6.263
  812SOL    HW1 4333   9.682   4.843   6.216
  812SOL    HW2 4334   9.632   4.974   6.273
  813SOL     OW 4335  11.614   0.849   9.953
  813SOL    HW1 4336  11.562   0.914  10.001
  813SOL    HW2 4337  11.605   0.874   9.861
  814SOL     OW 4338   4.251   0.375   1.306
  814SOL    HW1 4339   4.246   0.442   1.375
  814SOL    HW2 4340   4.243   0.292   1.353
  815SOL     OW 4341  11.353   7.199  12.329
  815SOL    HW1 4342  11.393   7.286  12.340
  815SOL    HW2 4343  11.263   7.217  12.305
  816SOL     OW 4344   0.284   9.637  10.613
  816SOL    HW1 4345   0.326   9.712  10.656
  816SOL    HW2 4346   0.328   9.561  10.650
  817SOL     OW 4347  12.920   5.964  13.266
  817SOL    HW1 4348  12.945   5.872  13.263
  817SOL    HW2 4349  13.003   6.011  13.264
  818SOL     OW 4350   3.887   9.704   4.262
  818SOL    HW1 4351   3.827   9.778   4.265
  818SOL    HW2 4352   3.834   9.629   4.289
  819SOL     OW 4353   5.778  11.995   1.217
  819SOL    HW1 4354   5.690  12.031   1.224
  819SOL    HW2 4355   5.834  12.059   1.261
  820SOL     OW 4356   6.486   8.006  10.661
  820SOL    HW1 4357   6.419   7.980  10.597
  820SOL    HW2 4358   6.461   8.095  10.686
  821SOL     OW 4359  14.741   6.753   6.246
  821SOL    HW1 4360  14.815   6.770   6.188
  821SOL    HW2 4361  14.668   6.802   6.206
  822SOL     OW 4362   9.142   8.464   5.874
  822SOL    HW1 4363   9.185   8.518   5.940
  822SOL    HW2 4364   9.087   8.525   5.825
  823SOL     OW 4365  12.291  11.363  10.482
  823SOL    HW1 4366  12.379  11.329  10.497
  823SOL    HW2 4367  12.294  11.453  10.515
  824SOL     OW 4368   7.115   0.860   2.051
  824SOL    HW1 4369   7.026   0.880   2.020
  824SOL    HW2 4370   7.102   0.829   2.141
  825SOL     OW 4371  13.723   7.573   4.063
  825SOL    HW1 4372  13.750   7.608   3.979
  825SOL    HW2 4373  13.797   7.589   4.121
  826SOL     OW 4374  14.045   4.722  12.810
  826SOL    HW1 4375  13.955   4.722  12.777
  826SOL    HW2 4376  14.094   4.772  12.744
  827SOL     OW 4377   9.759   9.134  10.091
  827SOL    HW1 4378   9.753   9.220  10.132
  827SOL    HW2 4379   9.775   9.153   9.998
  828SOL     OW 4380  12.499  10.073   2.870
  828SOL    HW1 4381  12.455  10.018   2.805
  828SOL    HW2 4382  12.453  10.056   2.952
  829SOL     OW 4383   9.768  10.306   4.336
  829SOL    HW1 4384   9.857  10.272   4.347
  829SOL    HW2 4385   9.780  10.399   4.317
  830SOL     OW 4386   7.123   4.863   8.757
  830SOL    HW1 4387   7.103   4.932   8.694
  830SOL    HW2 4388   7.115   4.905   8.843
  831SOL     OW 4389   7.506   7.692   9.694
  831SOL    HW1 4390   7.413   7.680   9.675
  831SOL    HW2 4391   7.515   7.785   9.715
  832SOL     OW 4392  11.668   2.459  10.829
  832SOL    HW1 4393  11.702   2.425  10.746
  832SOL    HW2 4394  11.573   2.465  10.815
  833SOL     OW 4395  12.643  13.936   5.855
  833SOL    HW1 4396  12.578  13.930   5.786
  833SOL    HW2 4397  12.649  14.030   5.875
  834SOL     OW 4398  14.780  10.276   0.096
  834SOL    HW1 4399  14.849  10.339   0.118
  834SOL    HW2 4400  14.707  10.300   0.154
  835SOL     OW 4401   6.499  13.852   8.091
  835SOL    HW1 4402   6.513  13.844   8.186
  835SOL    HW2 4403   6.452  13.934   8.081
  836SOL     OW 4404   5.979  10.255   1.402
  836SOL    HW1 4405   6.033  10.331   1.424
  836SOL    HW2 4406   5.895  10.273   1.444
  837SOL     OW 4407  10.970   7.228   3.434
  837SOL    HW1 4408  10.940   7.300   3.378
  837SOL    HW2 4409  10.950   7.149   3.384
  838SOL     OW 4410   8.038  11.688   1.939
  838SOL    HW1 4411   8.081  11.718   2.019
  838SOL    HW2 4412   8.048  11.759   1.877
  839SOL     OW 4413   3.674   8.249  10.168
  839SOL    HW1 4414   3.617   8.206  10.232
  839SOL    HW2 4415   3.666   8.342  10.187
  840SOL     OW 4416   7.229   0.293   8.936
  840SOL    HW1 4417   7.216   0.263   9.026
  840SOL    HW2 4418   7.145   0.330   8.911
  841SOL     OW 4419   8.011  13.301  10.059
  841SOL    HW1 4420   7.984  13.385  10.096
  841SOL    HW2 4421   8.062  13.324   9.982
  842SOL     OW 4422  12.766   7.161   5.482
  842SOL    HW1 4423  12.848   7.186   5.526
  842SOL    HW2 4424  12.769   7.206   5.398
  843SOL     OW 4425   1.707   8.692  12.979
  843SOL    HW1 4426   1.684   8.610  13.023
  843SOL    HW2 4427   1.775   8.731  13.034
  844SOL     OW 4428  14.796  10.232   6.779
  844SOL    HW1 4429   0.001  10.227   6.717
  844SOL    HW2 4430  14.818  10.169   6.847
  845SOL     OW 4431   3.043   6.041  14.102
  845SOL    HW1 4432   3.001   6.112  14.055
  845SOL    HW2 4433   3.090   6.085  14.174
  846SOL     OW 4434   6.716   0.039   4.864
  846SOL    HW1 4435   6.706   0.129   4.894
  846SOL    HW2 4436   6.648  14.859   4.912
  847SOL     OW 4437   8.066   7.713   5.442
  847SOL    HW1 4438   8.092   7.628   5.479
  847SOL    HW2 4439   7.970   7.707   5.435
  848SOL     OW 4440   0.084   8.138  10.832
  848SOL    HW1 4441   0.083   8.072  10.901
  848SOL    HW2 4442   0.169   8.181  10.841
  849SOL     OW 4443   8.143   2.542   5.127
  849SOL    HW1 4444   8.176   2.587   5.205
  849SOL    HW2 4445   8.086   2.606   5.085
  850SOL     OW 4446   8.304   2.898   6.483
  850SOL    HW1 4447   8.329   2.905   6.391
  850SOL    HW2 4448   8.376   2.940   6.531
  851SOL     OW 4449  14.569   7.827   4.234
  851SOL    HW1 4450  14.582   7.921   4.226
  851SOL    HW2 4451  14.485   7.818   4.279
  852SOL     OW 4452   2.564   0.557   5.140
  852SOL    HW1 4453   2.655   0.584   5.130
  852SOL    HW2 4454   2.539   0.586   5.228
  853SOL     OW 4455   9.241   3.411   5.831
  853SOL    HW1 4456   9.336   3.401   5.833
  853SOL    HW2 4457   9.220   3.454   5.914
  854SOL     OW 4458  14.246   5.203   4.383
  854SOL    HW1 4459  14.332   5.242   4.402
  854SOL    HW2 4460  14.223   5.156   4.463
  855SOL     OW 4461   0.387   6.359   9.986
  855SOL    HW1 4462   0.468   6.386   9.942
  855SOL    HW2 4463   0.319   6.367   9.918
  856SOL     OW 4464   6.221   7.948   8.313
  856SOL    HW1 4465   6.180   7.864   8.292
  856SOL    HW2 4466   6.212   7.956   8.408
  857SOL     OW 4467   1.472   8.508  13.448
  857SOL    HW1 4468   1.478   8.516  13.543
  857SOL    HW2 4469   1.521   8.583  13.415
  858SOL     OW 4470  14.037   2.248   8.323
  858SOL    HW1 4471  13.963   2.258   8.264
  858SOL    HW2 4472  14.035   2.327   8.377
  859SOL     OW 4473   7.392   3.308   4.498
  859SOL    HW1 4474   7.432   3.294   4.412
  859SOL    HW2 4475   7.464   3.293   4.560
  860SOL     OW 4476   1.296  12.878   4.708
  860SOL    HW1 4477   1.337  12.953   4.665
  860SOL    HW2 4478   1.364  12.810   4.706
  861SOL     OW 4479  10.799  10.667   3.814
  861SOL    HW1 4480  10.738  10.608   3.857
  861SOL    HW2 4481  10.862  10.609   3.770
  862SOL     OW 4482   7.699   4.802  10.321
  862SOL    HW1 4483   7.768   4.810  10.387
  862SOL    HW2 4484   7.640   4.875  10.338
  863SOL     OW 4485  12.286   2.017   7.687
  863SOL    HW1 4486  12.341   2.047   7.759
  863SOL    HW2 4487  12.201   2.002   7.727
  864SOL     OW 4488   7.939  13.474   9.460
  864SOL    HW1 4489   7.969  13.383   9.453
  864SOL    HW2 4490   7.950  13.495   9.553
  865SOL     OW 4491   0.153   1.357   3.558
  865SOL    HW1 4492   0.170   1.358   3.464
  865SOL    HW2 4493   0.183   1.270   3.587
  866SOL     OW 4494   2.331  11.457   2.943
  866SOL    HW1 4495   2.397  11.498   2.888
  866SOL    HW2 4496   2.375  11.446   3.028
  867SOL     OW 4497   9.196   4.496   3.935
  867SOL    HW1 4498   9.153   4.577   3.908
  867SOL    HW2 4499   9.174   4.434   3.866
  868SOL     OW 4500   5.240   8.539  12.581
  868SOL    HW1 4501   5.232   8.580  12.495
  868SOL    HW2 4502   5.334   8.541  12.600
  869SOL     OW 4503   0.177  10.486   7.125
  869SOL    HW1 4504   0.111  10.464   7.059
  869SOL    HW2 4505   0.134  10.550   7.182
  870SOL     OW 4506   7.749   6.482   2.984
  870SOL    HW1 4507   7.825   6.486   2.926
  870SOL    HW2 4508   7.760   6.556   3.043
  871SOL     OW 4509   9.882   0.740  13.757
  871SOL    HW1 4510   9.882   0.836  13.756
  871SOL    HW2 4511   9.946   0.715  13.691
  872SOL     OW 4512   7.753   3.205  13.559
  872SOL    HW1 4513   7.774   3.156  13.480
  872SOL    HW2 4514   7.700   3.144  13.611
  873SOL     OW 4515  11.402  12.152   2.691
  873SOL    HW1 4516  11.411  12.194   2.605
  873SOL    HW2 4517  11.483  12.103   2.702
  874SOL     OW 4518   7.370   6.830  14.776
  874SOL    HW1 4519   7.313   6.763  14.739
  874SOL    HW2 4520   7.442   6.839  14.713
  875SOL     OW 4521   9.704   6.716  13.179
  875SOL    HW1 4522   9.630   6.716  13.240
  875SOL    HW2 4523   9.705   6.804  13.143
  876SOL     OW 4524   0.362   2.407  12.108
  876SOL    HW1 4525   0.358   2.398  12.013
  876SOL    HW2 4526   0.341   2.499  12.125
  877SOL     OW 4527   2.658   1.325   9.782
  877SOL    HW1 4528   2.597   1.383   9.736
  877SOL    HW2 4529   2.614   1.305   9.864
  878SOL     OW 4530  14.219   7.371   1.262
  878SOL    HW1 4531  14.211   7.339   1.172
  878SOL    HW2 4532  14.144   7.332   1.308
  879SOL     OW 4533  10.171   2.553   6.589
  879SOL    HW1 4534  10.156   2.502   6.669
  879SOL    HW2 4535  10.100   2.529   6.531
  880SOL     OW 4536  11.128   9.027   4.026
  880SOL    HW1 4537  11.093   8.949   4.068
  880SOL    HW2 4538  11.077   9.099   4.064
  881SOL     OW 4539   1.663   7.519   6.653
  881SOL    HW1 4540   1.656   7.568   6.571
  881SOL    HW2 4541   1.751   7.482   6.651
  882SOL     OW 4542   4.824  12.403  12.674
  882SOL    HW1 4543   4.778  12.361  12.601
  882SOL    HW2 4544   4.766  12.392  12.749
  883SOL     OW 4545  11.542   9.101   7.146
  883SOL    HW1 4546  11.586   9.151   7.078
  883SOL    HW2 4547  11.534   9.013   7.109
  884SOL     OW 4548  11.890   2.457  14.489
  884SOL    HW1 4549  11.817   2.446  14.429
  884SOL    HW2 4550  11.906   2.369  14.524
  885SOL     OW 4551  11.203  14.195   5.915
  885SOL    HW1 4552  11.257  14.221   5.989
  885SOL    HW2 4553  11.120  14.167   5.953
  886SOL     OW 4554   4.109   6.625   7.396
  886SOL    HW1 4555   4.105   6.719   7.379
  886SOL    HW2 4556   4.202   6.605   7.403
  887SOL     OW 4557  12.485   8.426  13.062
  887SOL    HW1 4558  12.481   8.336  13.030
  887SOL    HW2 4559  12.558   8.465  13.014
  888SOL     OW 4560   9.407   1.294  14.278
  888SOL    HW1 4561   9.380   1.202  14.285
  888SOL    HW2 4562   9.484   1.292  14.221
  889SOL     OW 4563   4.404  11.962   9.162
  889SOL    HW1 4564   4.322  12.010   9.172
  889SOL    HW2 4565   4.454  11.983   9.240
  890SOL     OW 4566   1.860   7.646  11.418
  890SOL    HW1 4567   1.820   7.637  11.505
  890SOL    HW2 4568   1.851   7.559  11.378
  891SOL     OW 4569   2.191  10.340   5.578
  891SOL    HW1 4570   2.212  10.408   5.642
  891SOL    HW2 4571   2.097  10.348   5.564
  892SOL     OW 4572   3.137  14.608  14.188
  892SOL    HW1 4573   3.122  14.701  14.204
  892SOL    HW2 4574   3.054  14.567  14.211
  893SOL     OW 4575   1.175   9.855  14.220
  893SOL    HW1 4576   1.266   9.829  14.227
  893SOL    HW2 4577   1.130   9.808  14.289
  894SOL     OW 4578   1.693   6.078  13.337
  894SOL    HW1 4579   1.691   5.992  13.295
  894SOL    HW2 4580   1.678   6.060  13.430
  895SOL     OW 4581  10.977   8.327   4.353
  895SOL    HW1 4582  11.064   8.360   4.331
  895SOL    HW2 4583  10.937   8.398   4.404
  896SOL     OW 4584  10.372  14.123   2.190
  896SOL    HW1 4585  10.310  14.196   2.195
  896SOL    HW2 4586  10.345  14.074   2.112
  897SOL     OW 4587  12.994   8.616  10.762
  897SOL    HW1 4588  12.918   8.653  10.717
  897SOL    HW2 4589  13.062   8.682  10.753
  898SOL     OW 4590   3.319  12.171   9.789
  898SOL    HW1 4591   3.277  12.088   9.765
  898SOL    HW2 4592   3.250  12.222   9.831
  899SOL     OW 4593   1.666   3.700  14.095
  899SOL    HW1 4594   1.611   3.632  14.134
  899SOL    HW2 4595   1.708   3.743  14.169
  900SOL     OW 4596   3.916   3.812   0.922
  900SOL    HW1 4597   3.975   3.836   0.851
  900SOL    HW2 4598   3.955   3.851   1.000
  901SOL     OW 4599   6.975   2.221   7.866
  901SOL    HW1 4600   7.025   2.210   7.785
  901SOL    HW2 4601   6.909   2.287   7.844
  902SOL     OW 4602   6.331   6.086   1.524
  902SOL    HW1 4603   6.399   6.134   1.571
  902SOL    HW2 4604   6.375   6.007   1.492
  903SOL     OW 4605  13.151   1.822   2.422
  903SOL    HW1 4606  13.090   1.757   2.389
  903SOL    HW2 4607  13.230   1.809   2.370
  904SOL     OW 4608   5.684   3.440   8.396
  904SOL    HW1 4609   5.704   3.416   8.487
  904SOL    HW2 4610   5.602   3.490   8.402
  905SOL     OW 4611   0.125  10.171  13.462
  905SOL    HW1 4612   0.104  10.093  13.512
  905SOL    HW2 4613   0.049  10.229  13.475
  906SOL     OW 4614   7.730  13.725  12.878
  906SOL    HW1 4615   7.648  13.751  12.919
  906SOL    HW2 4616   7.714  13.636  12.847
  907SOL     OW 4617  11.503   1.775   7.617
  907SOL    HW1 4618  11.578   1.813   7.661
  907SOL    HW2 4619  11.427   1.804   7.668
  908SOL     OW 4620  12.368   9.747   7.960
  908SOL    HW1 4621  12.339   9.661   7.989
  908SOL    HW2 4622  12.294   9.805   7.978
  909SOL     OW 4623   5.460   3.461   4.891
  909SOL    HW1 4624   5.507   3.424   4.816
  909SOL    HW2 4625   5.436   3.550   4.863
  910SOL     OW 4626   0.592   8.910  10.549
  910SOL    HW1 4627   0.677   8.895  10.591
  910SOL    HW2 4628   0.613   8.961  10.470
  911SOL     OW 4629   0.711  12.653  13.161
  911SOL    HW1 4630   0.627  12.699  13.168
  911SOL    HW2 4631   0.710  12.591  13.234
  912SOL     OW 4632  10.458   6.572  12.725
  912SOL    HW1 4633  10.424   6.584  12.636
  912SOL    HW2 4634  10.385   6.533  12.773
  913SOL     OW 4635   3.786   3.359   3.141
  913SOL    HW1 4636   3.847   3.340   3.070
  913SOL    HW2 4637   3.793   3.283   3.200
  914SOL     OW 4638   3.874   9.284   8.642
  914SOL    HW1 4639   3.961   9.269   8.679
  914SOL    HW2 4640   3.864   9.379   8.641
  915SOL     OW 4641   6.518  14.701   5.618
  915SOL    HW1 4642   6.430  14.665   5.608
  915SOL    HW2 4643   6.523  14.772   5.553
  916SOL     OW 4644   1.908  12.536   9.265
  916SOL    HW1 4645   1.835  12.560   9.322
  916SOL    HW2 4646   1.881  12.454   9.224
  917SOL     OW 4647   1.132  13.775   7.855
  917SOL    HW1 4648   1.220  13.748   7.881
  917SOL    HW2 4649   1.132  13.870   7.863
  918SOL     OW 4650   4.551   9.557  13.805
  918SOL    HW1 4651   4.511   9.517  13.882
  918SOL    HW2 4652   4.486   9.546  13.736
  919SOL     OW 4653   0.879   8.705  12.352
  919SOL    HW1 4654   0.821   8.763  12.402
  919SOL    HW2 4655   0.870   8.734  12.261
  920SOL     OW 4656   1.109   5.466  14.119
  920SOL    HW1 4657   1.091   5.491  14.210
  920SOL    HW2 4658   1.078   5.541  14.068
  921SOL     OW 4659  11.667   2.097   8.034
  921SOL    HW1 4660  11.703   2.032   8.095
  921SOL    HW2 4661  11.743   2.144   8.002
  922SOL     OW 4662   6.427   1.873  13.884
  922SOL    HW1 4663   6.514   1.856  13.920
  922SOL    HW2 4664   6.379   1.792  13.899
  923SOL     OW 4665  14.110   9.932  14.594
  923SOL    HW1 4666  14.055   9.943  14.671
  923SOL    HW2 4667  14.113   9.837  14.580
  924SOL     OW 4668   4.455   0.869   3.001
  924SOL    HW1 4669   4.377   0.898   2.955
  924SOL    HW2 4670   4.493   0.949   3.037
  925SOL     OW 4671   8.001  10.910   1.081
  925SOL    HW1 4672   7.960  10.916   1.168
  925SOL    HW2 4673   7.949  10.844   1.035
  926SOL     OW 4674   9.686   2.064   3.188
  926SOL    HW1 4675   9.701   2.139   3.131
  926SOL    HW2 4676   9.600   2.031   3.162
  927SOL     OW 4677   7.499   1.474  13.479
  927SOL    HW1 4678   7.540   1.422  13.548
  927SOL    HW2 4679   7.429   1.418  13.445
  928SOL     OW 4680  14.594   8.971   0.421
  928SOL    HW1 4681  14.603   9.013   0.335
  928SOL    HW2 4682  14.617   8.879   0.404
  929SOL     OW 4683   4.007   4.063   9.901
  929SOL    HW1 4684   4.004   4.135   9.964
  929SOL    HW2 4685   3.949   4.091   9.830
  930SOL     OW 4686   8.638   6.650   7.249
  930SOL    HW1 4687   8.714   6.594   7.262
  930SOL    HW2 4688   8.618   6.684   7.337
  931SOL     OW 4689  12.060   0.373   0.861
  931SOL    HW1 4690  12.130   0.434   0.838
  931SOL    HW2 4691  12.056   0.376   0.957
  932SOL     OW 4692   3.754  13.449   7.851
  932SOL    HW1 4693   3.720  13.372   7.898
  932SOL    HW2 4694   3.682  13.512   7.854
  933SOL     OW 4695   7.156   8.557   3.654
  933SOL    HW1 4696   7.119   8.645   3.644
  933SOL    HW2 4697   7.219   8.549   3.583
  934SOL     OW 4698   9.703  10.770   0.404
  934SOL    HW1 4699   9.653  10.851   0.391
  934SOL    HW2 4700   9.642  10.701   0.381
  935SOL     OW 4701   4.389  14.082   4.705
  935SOL    HW1 4702   4.353  14.099   4.791
  935SOL    HW2 4703   4.436  14.162   4.682
  936SOL     OW 4704  10.094  12.954   0.813
  936SOL    HW1 4705  10.021  12.990   0.864
  936SOL    HW2 4706  10.063  12.869   0.784
  937SOL     OW 4707   9.121  12.043   8.301
  937SOL    HW1 4708   9.140  11.964   8.249
  937SOL    HW2 4709   9.037  12.024   8.343
  938SOL     OW 4710   9.088  13.039   7.755
  938SOL    HW1 4711   9.007  13.084   7.730
  938SOL    HW2 4712   9.063  12.987   7.832
  939SOL     OW 4713  13.895  14.380   7.948
  939SOL    HW1 4714  13.800  14.373   7.949
  939SOL    HW2 4715  13.913  14.449   7.885
  940SOL     OW 4716   0.946   9.157  14.801
  940SOL    HW1 4717   0.960   9.217   0.007
  940SOL    HW2 4718   0.998   9.079  14.824
  941SOL     OW 4719   9.861  13.264   3.021
  941SOL    HW1 4720   9.803  13.338   3.039
  941SOL    HW2 4721   9.920  13.260   3.096
  942SOL     OW 4722   3.319   2.527  14.595
  942SOL    HW1 4723   3.249   2.578  14.634
  942SOL    HW2 4724   3.275   2.449  14.561
  943SOL     OW 4725   7.633   9.264   2.104
  943SOL    HW1 4726   7.664   9.286   2.192
  943SOL    HW2 4727   7.569   9.194   2.119
  944SOL     OW 4728   6.087  14.521   8.647
  944SOL    HW1 4729   6.022  14.464   8.687
  944SOL    HW2 4730   6.044  14.606   8.640
  945SOL     OW 4731  13.159   9.686  13.359
  945SOL    HW1 4732  13.133   9.748  13.291
  945SOL    HW2 4733  13.168   9.739  13.438
  946SOL     OW 4734  10.145   1.931   8.521
  946SOL    HW1 4735  10.120   1.973   8.603
  946SOL    HW2 4736  10.065   1.891   8.489
  947SOL     OW 4737  13.453  13.334   3.940
  947SOL    HW1 4738  13.358  13.329   3.940
  947SOL    HW2 4739  13.473  13.411   3.993
  948SOL     OW 4740   2.142   0.253  10.050
  948SOL    HW1 4741   2.119   0.220   9.963
  948SOL    HW2 4742   2.147   0.175  10.104
  949SOL     OW 4743   3.836   2.026   3.960
  949SOL    HW1 4744   3.786   2.016   4.040
  949SOL    HW2 4745   3.816   2.114   3.929
  950SOL     OW 4746  14.302   9.649   0.785
  950SOL    HW1 4747  14.224   9.705   0.793
  950SOL    HW2 4748  14.344   9.678   0.704
  951SOL     OW 4749   3.389   9.422   9.172
  951SOL    HW1 4750   3.297   9.443   9.158
  951SOL    HW2 4751   3.420   9.393   9.086
  952SOL     OW 4752   8.867   5.875   9.909
  952SOL    HW1 4753   8.941   5.856   9.967
  952SOL    HW2 4754   8.831   5.957   9.942
  953SOL     OW 4755   3.337   6.457   8.374
  953SOL    HW1 4756   3.428   6.426   8.374
  953SOL    HW2 4757   3.342   6.544   8.415
  954SOL     OW 4758  11.093   0.027  10.307
  954SOL    HW1 4759  11.141   0.083  10.245
  954SOL    HW2 4760  11.131  14.808  10.293
  955SOL     OW 4761  11.185   1.462   8.959
  955SOL    HW1 4762  11.119   1.486   8.895
  955SOL    HW2 4763  11.186   1.535   9.022
  956SOL     OW 4764  14.238  11.850   6.695
  956SOL    HW1 4765  14.213  11.864   6.786
  956SOL    HW2 4766  14.325  11.811   6.699
  957SOL     OW 4767   8.181  14.655   8.073
  957SOL    HW1 4768   8.150  14.565   8.063
  957SOL    HW2 4769   8.200  14.684   7.984
  958SOL     OW 4770   1.663   6.797  12.102
  958SOL    HW1 4771   1.613   6.765  12.177
  958SOL    HW2 4772   1.750   6.758  12.112
  959SOL     OW 4773   1.881   8.749  14.579
  959SOL    HW1 4774   1.968   8.713  14.563
  959SOL    HW2 4775   1.868   8.740  14.674
  960SOL     OW 4776   4.362   7.779   8.371
  960SOL    HW1 4777   4.413   7.713   8.324
  960SOL    HW2 4778   4.312   7.823   8.302
  961SOL     OW 4779   0.584  13.225   1.230
  961SOL    HW1 4780   0.677  13.219   1.248
  961SOL    HW2 4781   0.542  13.197   1.312
  962SOL     OW 4782  10.401  13.748  14.665
  962SOL    HW1 4783  10.484  13.727  14.623
  962SOL    HW2 4784  10.359  13.810  14.604
  963SOL     OW 4785   7.638   2.529  14.016
  963SOL    HW1 4786   7.577   2.533  14.090
  963SOL    HW2 4787   7.676   2.617  14.011
  964SOL     OW 4788  12.215  10.780   0.150
  964SOL    HW1 4789  12.223  10.688   0.125
  964SOL    HW2 4790  12.305  10.810   0.161
  965SOL     OW 4791  14.323   4.662   3.882
  965SOL    HW1 4792  14.306   4.736   3.941
  965SOL    HW2 4793  14.269   4.680   3.805
  966SOL     OW 4794   6.227  11.429  14.503
  966SOL    HW1 4795   6.259  11.520  14.499
  966SOL    HW2 4796   6.279  11.389  14.573
  967SOL     OW 4797  12.172   7.321   8.719
  967SOL    HW1 4798  12.093   7.337   8.771
  967SOL    HW2 4799  12.148   7.250   8.660
  968SOL     OW 4800   4.537  12.108  13.783
  968SOL    HW1 4801   4.614  12.119  13.839
  968SOL    HW2 4802   4.573  12.091  13.696
  969SOL     OW 4803   1.865  11.524   8.453
  969SOL    HW1 4804   1.913  11.494   8.376
  969SOL    HW2 4805   1.775  11.493   8.440
  970SOL     OW 4806   9.228   2.686   7.582
  970SOL    HW1 4807   9.249   2.778   7.602
  970SOL    HW2 4808   9.239   2.680   7.487
  971SOL     OW 4809   5.490   5.274   0.551
  971SOL    HW1 4810   5.549   5.266   0.476
  971SOL    HW2 4811   5.526   5.347   0.602
  972SOL     OW 4812   6.449  11.843   5.539
  972SOL    HW1 4813   6.493  11.916   5.496
  972SOL    HW2 4814   6.360  11.844   5.504
  973SOL     OW 4815  11.189   2.584   2.085
  973SOL    HW1 4816  11.164   2.608   2.174
  973SOL    HW2 4817  11.202   2.667   2.040
  974SOL     OW 4818   2.473   8.960   1.476
  974SOL    HW1 4819   2.561   8.983   1.504
  974SOL    HW2 4820   2.444   9.035   1.425
  975SOL     OW 4821   0.810   7.318   6.175
  975SOL    HW1 4822   0.845   7.301   6.087
  975SOL    HW2 4823   0.887   7.325   6.231
  976SOL     OW 4824   8.285   4.954   7.181
  976SOL    HW1 4825   8.251   5.030   7.133
  976SOL    HW2 4826   8.218   4.887   7.169
  977SOL     OW 4827   3.654   8.207   2.946
  977SOL    HW1 4828   3.597   8.269   2.901
  977SOL    HW2 4829   3.729   8.198   2.888
  978SOL     OW 4830  10.458   5.654   0.311
  978SOL    HW1 4831  10.426   5.647   0.401
  978SOL    HW2 4832  10.553   5.655   0.319
  979SOL     OW 4833  13.387   6.146   9.603
  979SOL    HW1 4834  13.333   6.126   9.679
  979SOL    HW2 4835  13.456   6.080   9.605
  980SOL     OW 4836  12.696   6.692  10.340
  980SOL    HW1 4837  12.623   6.746  10.369
  980SOL    HW2 4838  12.658   6.635  10.273
  981SOL     OW 4839  13.971  12.252  10.992
  981SOL    HW1 4840  13.916  12.174  11.006
  981SOL    HW2 4841  13.988  12.286  11.079
  982SOL     OW 4842   0.171   6.486   8.234
  982SOL    HW1 4843   0.227   6.481   8.311
  982SOL    HW2 4844   0.175   6.578   8.206
  983SOL     OW 4845   5.354  11.219   2.123
  983SOL    HW1 4846   5.377  11.249   2.211
  983SOL    HW2 4847   5.345  11.300   2.071
  984SOL     OW 4848   5.482   7.477  13.261
  984SOL    HW1 4849   5.488   7.383  13.278
  984SOL    HW2 4850   5.558   7.496  13.207
  985SOL     OW 4851   9.891   7.391  14.545
  985SOL    HW1 4852   9.955   7.436  14.490
  985SOL    HW2 4853   9.930   7.392  14.632
  986SOL     OW 4854  12.126  11.190   0.924
  986SOL    HW1 4855  12.209  11.164   0.964
  986SOL    HW2 4856  12.136  11.168   0.832
  987SOL     OW 4857  11.411  13.972  13.857
  987SOL    HW1 4858  11.440  14.004  13.942
  987SOL    HW2 4859  11.376  13.885  13.874
  988SOL     OW 4860  14.462   4.457   7.901
  988SOL    HW1 4861  14.551   4.439   7.872
  988SOL    HW2 4862  14.427   4.372   7.928
  989SOL     OW 4863   5.528  11.864   6.716
  989SOL    HW1 4864   5.565  11.943   6.755
  989SOL    HW2 4865   5.574  11.854   6.632
  990SOL     OW 4866  13.237   8.207   0.575
  990SOL    HW1 4867  13.317   8.254   0.550
  990SOL    HW2 4868  13.252   8.180   0.666
  991SOL     OW 4869  13.509   4.673  10.334
  991SOL    HW1 4870  13.559   4.754  10.339
  991SOL    HW2 4871  13.569   4.606  10.366
  992SOL     OW 4872   5.722   4.401  12.636
  992SOL    HW1 4873   5.806   4.446  12.627
  992SOL    HW2 4874   5.726   4.358  12.722
  993SOL     OW 4875  12.907   8.540   6.848
  993SOL    HW1 4876  12.948   8.552   6.762
  993SOL    HW2 4877  12.980   8.543   6.910
  994SOL     OW 4878   5.476  11.580  13.914
  994SOL    HW1 4879   5.506  11.635  13.986
  994SOL    HW2 4880   5.532  11.605  13.840
  995SOL     OW 4881   9.985   8.972  13.596
  995SOL    HW1 4882   9.912   8.960  13.657
  995SOL    HW2 4883   9.967   8.914  13.523
  996SOL     OW 4884   8.748   0.505   5.831
  996SOL    HW1 4885   8.830   0.475   5.868
  996SOL    HW2 4886   8.698   0.539   5.906
  997SOL     OW 4887   8.358   4.762   6.414
  997SOL    HW1 4888   8.410   4.684   6.395
  997SOL    HW2 4889   8.321   4.788   6.330
  998SOL     OW 4890   1.784   9.790   8.452
  998SOL    HW1 4891   1.703   9.805   8.403
  998SOL    HW2 4892   1.852   9.786   8.384
  999SOL     OW 4893  12.649  11.544  11.377
  999SOL    HW1 4894  12.665  11.634  11.404
  999SOL    HW2 4895  12.559  11.545  11.344
 1000SOL     OW 4896   6.992   0.790   3.850
 1000SOL    HW1 4897   7.088   0.794   3.855
 1000SOL    HW2 4898   6.974   0.723   3.785
 1001SOL     OW 4899  14.158   8.217   1.266
 1001SOL    HW1 4900  14.172   8.155   1.337
 1001SOL    HW2 4901  14.236   8.207   1.211
 1002SOL     OW 4902   8.951   6.600  11.569
 1002SOL    HW1 4903   8.979   6.607  11.660
 1002SOL    HW2 4904   9.009   6.659  11.521
 1003SOL     OW 4905   3.537   7.160  13.156
 1003SOL    HW1 4906   3.500   7.151  13.068
 1003SOL    HW2 4907   3.493   7.092  13.207
 1004SOL     OW 4908   3.755  14.298   4.757
 1004SOL    HW1 4909   3.722  14.229   4.700
 1004SOL    HW2 4910   3.851  14.290   4.751
 1005SOL     OW 4911  13.273   3.155   5.500
 1005SOL    HW1 4912  13.310   3.070   5.474
 1005SOL    HW2 4913  13.214   3.178   5.428
 1006SOL     OW 4914  11.301   1.803   7.094
 1006SOL    HW1 4915  11.208   1.809   7.118
 1006SOL    HW2 4916  11.313   1.872   7.029
 1007SOL     OW 4917  10.960   3.061  10.861
 1007SOL    HW1 4918  11.030   3.000  10.839
 1007SOL    HW2 4919  10.881   3.023  10.822
 1008SOL     OW 4920  14.853   5.967   3.388
 1008SOL    HW1 4921  14.779   5.910   3.407
 1008SOL    HW2 4922   0.062   5.919   3.419
 1009SOL     OW 4923   9.769  11.972   3.612
 1009SOL    HW1 4924   9.701  12.034   3.636
 1009SOL    HW2 4925   9.757  11.958   3.518
 1010SOL     OW 4926   9.999   0.932   4.566
 1010SOL    HW1 4927   9.942   0.996   4.523
 1010SOL    HW2 4928  10.085   0.946   4.526
 1011SOL     OW 4929   0.135   3.960   8.888
 1011SOL    HW1 4930   0.230   3.950   8.891
 1011SOL    HW2 4931   0.118   4.041   8.936
 1012SOL     OW 4932   9.583  13.417  11.038
 1012SOL    HW1 4933   9.656  13.403  11.097
 1012SOL    HW2 4934   9.528  13.340  11.048
 1013SOL     OW 4935  12.457  12.854   6.809
 1013SOL    HW1 4936  12.465  12.910   6.887
 1013SOL    HW2 4937  12.451  12.915   6.736
 1014SOL     OW 4938   1.966  13.852   4.613
 1014SOL    HW1 4939   2.003  13.906   4.543
 1014SOL    HW2 4940   1.892  13.807   4.571
 1015SOL     OW 4941   5.746   8.385   3.265
 1015SOL    HW1 4942   5.810   8.456   3.271
 1015SOL    HW2 4943   5.663   8.430   3.249
 1016SOL     OW 4944  14.039  11.389  11.981
 1016SOL    HW1 4945  14.052  11.478  11.946
 1016SOL    HW2 4946  14.060  11.331  11.908
 1017SOL     OW 4947   1.976   8.955   2.917
 1017SOL    HW1 4948   2.020   8.990   2.840
 1017SOL    HW2 4949   1.900   9.012   2.929
 1018SOL     OW 4950  11.670   4.342   9.822
 1018SOL    HW1 4951  11.653   4.287   9.745
 1018SOL    HW2 4952  11.672   4.431   9.788
 1019SOL     OW 4953   2.039  12.257  12.730
 1019SOL    HW1 4954   2.064  12.275  12.820
 1019SOL    HW2 4955   1.964  12.314  12.713
 1020SOL     OW 4956  13.695   0.711   0.948
 1020SOL    HW1 4957  13.627   0.655   0.986
 1020SOL    HW2 4958  13.746   0.740   1.023
 1021SOL     OW 4959   9.425   7.383   6.367
 1021SOL    HW1 4960   9.426   7.305   6.313
 1021SOL    HW2 4961   9.380   7.449   6.313
 1022SOL     OW 4962   0.880  10.520   6.691
 1022SOL    HW1 4963   0.909  10.490   6.605
 1022SOL    HW2 4964   0.784  10.522   6.685
 1023SOL     OW 4965   9.337   8.790   3.654
 1023SOL    HW1 4966   9.369   8.741   3.730
 1023SOL    HW2 4967   9.349   8.882   3.678
 1024SOL     OW 4968  10.336   5.911   9.037
 1024SOL    HW1 4969  10.297   5.998   9.026
 1024SOL    HW2 4970  10.344   5.901   9.132
 1025SOL     OW 4971   4.020   9.504   1.838
 1025SOL    HW1 4972   4.077   9.577   1.861
 1025SOL    HW2 4973   3.967   9.489   1.916
 1026SOL     OW 4974   2.567   9.905   8.380
 1026SOL    HW1 4975   2.651   9.876   8.414
 1026SOL    HW2 4976   2.525   9.950   8.453
 1027SOL     OW 4977   2.928  10.777  10.175
 1027SOL    HW1 4978   2.863  10.848  10.181
 1027SOL    HW2 4979   2.989  10.806  10.107
 1028SOL     OW 4980   6.483   2.930  13.588
 1028SOL    HW1 4981   6.499   3.024  13.581
 1028SOL    HW2 4982   6.478   2.915  13.683
 1029SOL     OW 4983  11.246  10.380  12.089
 1029SOL    HW1 4984  11.176  10.359  12.027
 1029SOL    HW2 4985  11.310  10.310  12.076
 1030SOL     OW 4986   1.594   9.321  13.252
 1030SOL    HW1 4987   1.603   9.287  13.341
 1030SOL    HW2 4988   1.509   9.289  13.223
 1031SOL     OW 4989   9.398  10.763   3.792
 1031SOL    HW1 4990   9.318  10.717   3.766
 1031SOL    HW2 4991   9.460  10.694   3.814
 1032SOL     OW 4992   2.301  12.409   5.763
 1032SOL    HW1 4993   2.313  12.454   5.679
 1032SOL    HW2 4994   2.216  12.366   5.755
 1033SOL     OW 4995   8.831   0.224  14.489
 1033SOL    HW1 4996   8.901   0.255  14.546
 1033SOL    HW2 4997   8.840   0.129  14.488
 1034SOL     OW 4998   1.646  14.026   3.809
 1034SOL    HW1 4999   1.683  13.998   3.726
 1034SOL    HW2 5000   1.555  13.998   3.806
 1035SOL     OW 5001  11.059   3.820   8.384
 1035SOL    HW1 5002  11.037   3.863   8.301
 1035SOL    HW2 5003  11.021   3.732   8.376
 1036SOL     OW 5004   3.829   1.331  13.667
 1036SOL    HW1 5005   3.830   1.319  13.572
 1036SOL    HW2 5006   3.777   1.410  13.681
 1037SOL     OW 5007   7.684  11.834   2.214
 1037SOL    HW1 5008   7.700  11.771   2.144
 1037SOL    HW2 5009   7.702  11.920   2.174
 1038SOL     OW 5010   5.493   7.631   1.823
 1038SOL    HW1 5011   5.555   7.673   1.763
 1038SOL    HW2 5012   5.407   7.660   1.793
 1039SOL     OW 5013  13.946   8.068   2.505
 1039SOL    HW1 5014  13.895   8.079   2.586
 1039SOL    HW2 5015  13.927   7.979   2.477
 1040SOL     OW 5016   6.897   6.036   3.310
 1040SOL    HW1 5017   6.982   6.036   3.353
 1040SOL    HW2 5018   6.907   6.095   3.236
 1041SOL     OW 5019  10.090  13.410   0.249
 1041SOL    HW1 5020  10.111  13.353   0.324
 1041SOL    HW2 5021  10.044  13.484   0.288
 1042SOL     OW 5022   5.458   1.567   7.772
 1042SOL    HW1 5023   5.480   1.499   7.708
 1042SOL    HW2 5024   5.543   1.603   7.799
 1043SOL     OW 5025   8.768  13.895   0.609
 1043SOL    HW1 5026   8.802  13.982   0.626
 1043SOL    HW2 5027   8.692  13.908   0.552
 1044SOL     OW 5028  12.226   3.588   3.208
 1044SOL    HW1 5029  12.227   3.680   3.180
 1044SOL    HW2 5030  12.203   3.540   3.128
 1045SOL     OW 5031  14.377  10.730   6.388
 1045SOL    HW1 5032  14.397  10.673   6.313
 1045SOL    HW2 5033  14.296  10.774   6.363
 1046SOL     OW 5034   9.899   5.171   3.101
 1046SOL    HW1 5035   9.899   5.116   3.179
 1046SOL    HW2 5036   9.820   5.146   3.053
 1047SOL     OW 5037   2.537   3.190  12.369
 1047SOL    HW1 5038   2.481   3.173  12.294
 1047SOL    HW2 5039   2.595   3.114  12.373
 1048SOL     OW 5040  10.572   9.166  12.937
 1048SOL    HW1 5041  10.584   9.167  13.032
 1048SOL    HW2 5042  10.549   9.075  12.916
 1049SOL     OW 5043   2.544   1.469  14.579
 1049SOL    HW1 5044   2.504   1.383  14.588
 1049SOL    HW2 5045   2.629   1.461  14.622
 1050SOL     OW 5046   7.202   2.818  12.283
 1050SOL    HW1 5047   7.249   2.900  12.267
 1050SOL    HW2 5048   7.110   2.844  12.290
 1051SOL     OW 5049  12.781  13.324  10.366
 1051SOL    HW1 5050  12.856  13.264  10.367
 1051SOL    HW2 5051  12.739  13.309  10.282
 1052SOL     OW 5052  14.252  12.502   4.124
 1052SOL    HW1 5053  14.315  12.506   4.195
 1052SOL    HW2 5054  14.217  12.591   4.118
 1053SOL     OW 5055   0.907   4.069   5.974
 1053SOL    HW1 5056   0.842   4.064   5.904
 1053SOL    HW2 5057   0.990   4.048   5.931
 1054SOL     OW 5058   7.931   1.273   9.190
 1054SOL    HW1 5059   7.963   1.361   9.174
 1054SOL    HW2 5060   7.977   1.245   9.270
 1055SOL     OW 5061   8.317   2.341   5.128
 1055SOL    HW1 5062   8.240   2.396   5.113
 1055SOL    HW2 5063   8.389   2.390   5.087
 1056SOL     OW 5064  11.418  11.856   9.281
 1056SOL    HW1 5065  11.505  11.894   9.267
 1056SOL    HW2 5066  11.363  11.899   9.215
 1057SOL     OW 5067  11.286  11.226   0.386
 1057SOL    HW1 5068  11.296  11.313   0.423
 1057SOL    HW2 5069  11.371  11.184   0.400
 1058SOL     OW 5070  12.900  10.791   5.423
 1058SOL    HW1 5071  12.991  10.795   5.450
 1058SOL    HW2 5072  12.861  10.872   5.458
 1059SOL     OW 5073   7.084   5.996  11.099
 1059SOL    HW1 5074   7.151   6.059  11.071
 1059SOL    HW2 5075   7.081   6.006  11.194
 1060SOL     OW 5076   0.750  12.905  10.101
 1060SOL    HW1 5077   0.789  12.885  10.186
 1060SOL    HW2 5078   0.659  12.877  10.109
 1061SOL     OW 5079  14.498  13.210   5.399
 1061SOL    HW1 5080  14.503  13.254   5.484
 1061SOL    HW2 5081  14.555  13.134   5.408
 1062SOL     OW 5082   9.193   1.030  12.155
 1062SOL    HW1 5083   9.234   1.057  12.073
 1062SOL    HW2 5084   9.223   0.940  12.168
 1063SOL     OW 5085  10.901   2.561  12.779
 1063SOL    HW1 5086  10.830   2.610  12.822
 1063SOL    HW2 5087  10.911   2.482  12.832
 1064SOL     OW 5088  12.239  10.065   0.459
 1064SOL    HW1 5089  12.223  10.159   0.467
 1064SOL    HW2 5090  12.154  10.025   0.478
 1065SOL     OW 5091   2.480  14.829   0.753
 1065SOL    HW1 5092   2.436  14.774   0.819
 1065SOL    HW2 5093   2.572  14.830   0.780
 1066SOL     OW 5094   8.568   7.850   9.916
 1066SOL    HW1 5095   8.645   7.907   9.928
 1066SOL    HW2 5096   8.574   7.786   9.987
 1067SOL     OW 5097  13.223   7.255   8.776
 1067SOL    HW1 5098  13.198   7.189   8.841
 1067SOL    HW2 5099  13.143   7.306   8.763
 1068SOL     OW 5100  13.748   1.166  14.419
 1068SOL    HW1 5101  13.749   1.259  14.398
 1068SOL    HW2 5102  13.684   1.128  14.358
 1069SOL     OW 5103   7.539   2.094   3.181
 1069SOL    HW1 5104   7.630   2.068   3.166
 1069SOL    HW2 5105   7.501   2.020   3.229
 1070SOL     OW 5106   7.141  10.309  12.901
 1070SOL    HW1 5107   7.213  10.272  12.952
 1070SOL    HW2 5108   7.088  10.233  12.876
 1071SOL     OW 5109  11.999   4.578   3.691
 1071SOL    HW1 5110  12.036   4.608   3.608
 1071SOL    HW2 5111  11.994   4.657   3.745
 1072SOL     OW 5112  12.531  10.617  11.485
 1072SOL    HW1 5113  12.450  10.667  11.497
 1072SOL    HW2 5114  12.502  10.528  11.465
 1073SOL     OW 5115  10.268   9.867   6.199
 1073SOL    HW1 5116  10.175   9.857   6.221
 1073SOL    HW2 5117  10.275   9.834   6.109
 1074SOL     OW 5118   7.837   2.766   2.390
 1074SOL    HW1 5119   7.772   2.792   2.326
 1074SOL    HW2 5120   7.878   2.848   2.417
 1075SOL     OW 5121  10.896   1.003   7.938
 1075SOL    HW1 5122  10.846   1.081   7.912
 1075SOL    HW2 5123  10.893   1.003   8.034
 1076SOL     OW 5124   9.821   5.168  13.190
 1076SOL    HW1 5125   9.783   5.222  13.120
 1076SOL    HW2 5126   9.913   5.158  13.165
 1077SOL     OW 5127   5.403  12.957   6.973
 1077SOL    HW1 5128   5.409  12.899   6.898
 1077SOL    HW2 5129   5.492  12.990   6.985
 1078SOL     OW 5130   9.460  11.362   4.254
 1078SOL    HW1 5131   9.523  11.394   4.319
 1078SOL    HW2 5132   9.510  11.304   4.198
 1079SOL     OW 5133   9.144   0.845  13.853
 1079SOL    HW1 5134   9.223   0.851  13.907
 1079SOL    HW2 5135   9.119   0.936  13.836
 1080SOL     OW 5136   8.926   8.027   2.129
 1080SOL    HW1 5137   8.890   8.115   2.136
 1080SOL    HW2 5138   8.933   8.011   2.035
 1081SOL     OW 5139  12.894  12.546  11.755
 1081SOL    HW1 5140  12.940  12.624  11.725
 1081SOL    HW2 5141  12.805  12.556  11.722
 1082SOL     OW 5142   3.509   7.122   2.091
 1082SOL    HW1 5143   3.504   7.121   2.186
 1082SOL    HW2 5144   3.551   7.039   2.068
 1083SOL     OW 5145   5.449   0.864   0.570
 1083SOL    HW1 5146   5.473   0.956   0.580
 1083SOL    HW2 5147   5.407   0.859   0.484
 1084SOL     OW 5148   2.084   4.032   6.569
 1084SOL    HW1 5149   2.010   3.979   6.598
 1084SOL    HW2 5150   2.156   4.008   6.627
 1085SOL     OW 5151   7.297   6.491   7.548
 1085SOL    HW1 5152   7.232   6.459   7.485
 1085SOL    HW2 5153   7.249   6.554   7.602
 1086SOL     OW 5154   0.355   6.054   4.051
 1086SOL    HW1 5155   0.416   5.981   4.060
 1086SOL    HW2 5156   0.297   6.046   4.127
 1087SOL     OW 5157  11.563   1.260   2.380
 1087SOL    HW1 5158  11.578   1.195   2.448
 1087SOL    HW2 5159  11.506   1.325   2.421
 1088SOL     OW 5160   1.269   1.917  13.911
 1088SOL    HW1 5161   1.203   1.908  13.842
 1088SOL    HW2 5162   1.339   1.968  13.871
 1089SOL     OW 5163   5.999   3.846   5.585
 1089SOL    HW1 5164   6.036   3.824   5.671
 1089SOL    HW2 5165   6.068   3.897   5.542
 1090SOL     OW 5166   8.248   5.172  11.394
 1090SOL    HW1 5167   8.252   5.119  11.314
 1090SOL    HW2 5168   8.247   5.262  11.363
 1091SOL     OW 5169  14.226   8.440  11.654
 1091SOL    HW1 5170  14.281   8.362  11.652
 1091SOL    HW2 5171  14.224   8.466  11.746
 1092SOL     OW 5172   7.984   5.463  11.729
 1092SOL    HW1 5173   8.069   5.474  11.770
 1092SOL    HW2 5174   7.984   5.372  11.698
 1093SOL     OW 5175   8.669   0.791   2.507
 1093SOL    HW1 5176   8.642   0.773   2.417
 1093SOL    HW2 5177   8.762   0.770   2.509
 1094SOL     OW 5178   0.172   6.311   5.493
 1094SOL    HW1 5179   0.167   6.303   5.588
 1094SOL    HW2 5180   0.110   6.381   5.472
 1095SOL     OW 5181   2.332   8.923   6.608
 1095SOL    HW1 5182   2.400   8.989   6.618
 1095SOL    HW2 5183   2.318   8.889   6.697
 1096SOL     OW 5184   4.161  10.059   7.199
 1096SOL    HW1 5185   4.131  10.000   7.130
 1096SOL    HW2 5186   4.229  10.009   7.245
 1097SOL     OW 5187  12.173   6.557  10.365
 1097SOL    HW1 5188  12.182   6.603  10.449
 1097SOL    HW2 5189  12.249   6.585  10.314
 1098SOL     OW 5190   2.934  11.053   5.185
 1098SOL    HW1 5191   2.927  11.074   5.278
 1098SOL    HW2 5192   3.006  10.990   5.181
 1099SOL     OW 5193   2.737   4.232   7.644
 1099SOL    HW1 5194   2.690   4.315   7.644
 1099SOL    HW2 5195   2.699   4.183   7.572
 1100SOL     OW 5196   8.529  11.912   5.499
 1100SOL    HW1 5197   8.508  11.950   5.585
 1100SOL    HW2 5198   8.560  11.987   5.447
 1101SOL     OW 5199  14.195   2.135   8.572
 1101SOL    HW1 5200  14.275   2.186   8.586
 1101SOL    HW2 5201  14.212   2.084   8.493
 1102SOL     OW 5202   1.315   1.593   1.110
 1102SOL    HW1 5203   1.239   1.615   1.056
 1102SOL    HW2 5204   1.390   1.631   1.063
 1103SOL     OW 5205   1.725   3.810  13.208
 1103SOL    HW1 5206   1.669   3.753  13.155
 1103SOL    HW2 5207   1.701   3.789  13.298
 1104SOL     OW 5208   6.871  12.268   7.942
 1104SOL    HW1 5209   6.923  12.212   7.884
 1104SOL    HW2 5210   6.932  12.294   8.012
 1105SOL     OW 5211   8.608   7.688   1.629
 1105SOL    HW1 5212   8.681   7.642   1.671
 1105SOL    HW2 5213   8.571   7.624   1.568
 1106SOL     OW 5214  14.238   3.302   7.890
 1106SOL    HW1 5215  14.257   3.229   7.832
 1106SOL    HW2 5216  14.171   3.268   7.950
 1107SOL     OW 5217  11.125   7.583   5.449
 1107SOL    HW1 5218  11.084   7.628   5.375
 1107SOL    HW2 5219  11.179   7.649   5.491
 1108SOL     OW 5220   1.221  13.411  10.024
 1108SOL    HW1 5221   1.154  13.435   9.960
 1108SOL    HW2 5222   1.232  13.317  10.014
 1109SOL     OW 5223  14.324   3.486   9.278
 1109SOL    HW1 5224  14.383   3.502   9.204
 1109SOL    HW2 5225  14.379   3.445   9.344
 1110SOL     OW 5226   7.382  13.191   4.211
 1110SOL    HW1 5227   7.452  13.125   4.219
 1110SOL    HW2 5228   7.428  13.275   4.217
 1111SOL     OW 5229   3.827   4.693   7.746
 1111SOL    HW1 5230   3.867   4.712   7.661
 1111SOL    HW2 5231   3.847   4.600   7.761
 1112SOL     OW 5232   7.421  12.485   6.505
 1112SOL    HW1 5233   7.438  12.393   6.529
 1112SOL    HW2 5234   7.452  12.492   6.415
 1113SOL     OW 5235  14.688  11.892  14.075
 1113SOL    HW1 5236  14.612  11.910  14.019
 1113SOL    HW2 5237  14.763  11.919  14.023
 1114SOL     OW 5238   7.545   8.869  14.394
 1114SOL    HW1 5239   7.573   8.874  14.303
 1114SOL    HW2 5240   7.563   8.956  14.429
 1115SOL     OW 5241  13.903   0.255   2.696
 1115SOL    HW1 5242  13.974   0.320   2.697
 1115SOL    HW2 5243  13.869   0.256   2.786
 1116SOL     OW 5244  10.490   7.141   1.975
 1116SOL    HW1 5245  10.500   7.169   1.884
 1116SOL    HW2 5246  10.511   7.048   1.974
 1117SOL     OW 5247  12.854   1.626   7.890
 1117SOL    HW1 5248  12.766   1.598   7.865
 1117SOL    HW2 5249  12.868   1.586   7.976
 1118SOL     OW 5250   3.086   3.871  12.488
 1118SOL    HW1 5251   3.160   3.846  12.544
 1118SOL    HW2 5252   3.118   3.858  12.399
 1119SOL     OW 5253  12.853   8.864  11.327
 1119SOL    HW1 5254  12.795   8.792  11.350
 1119SOL    HW2 5255  12.939   8.837  11.359
 1120SOL     OW 5256  14.491   3.684   9.728
 1120SOL    HW1 5257  14.538   3.729   9.658
 1120SOL    HW2 5258  14.459   3.603   9.688
 1121SOL     OW 5259   0.962  13.450  14.340
 1121SOL    HW1 5260   1.027  13.434  14.271
 1121SOL    HW2 5261   1.001  13.519  14.394
 1122SOL     OW 5262   0.016   6.527  14.324
 1122SOL    HW1 5263   0.006   6.535  14.229
 1122SOL    HW2 5264   0.092   6.581  14.345
 1123SOL     OW 5265   2.789   4.591  11.575
 1123SOL    HW1 5266   2.833   4.529  11.517
 1123SOL    HW2 5267   2.726   4.538  11.624
 1124SOL     OW 5268   9.516   0.169   7.363
 1124SOL    HW1 5269   9.490   0.078   7.354
 1124SOL    HW2 5270   9.602   0.166   7.404
 1125SOL     OW 5271  13.003   2.882   0.148
 1125SOL    HW1 5272  13.082   2.830   0.142
 1125SOL    HW2 5273  13.029   2.970   0.121
 1126SOL     OW 5274  10.296   5.304  14.634
 1126SOL    HW1 5275  10.363   5.308  14.703
 1126SOL    HW2 5276  10.318   5.376  14.575
 1127SOL     OW 5277  13.032   1.508   7.657
 1127SOL    HW1 5278  12.998   1.570   7.592
 1127SOL    HW2 5279  12.960   1.496   7.719
 1128SOL     OW 5280  12.580  10.290  14.255
 1128SOL    HW1 5281  12.533  10.343  14.320
 1128SOL    HW2 5282  12.583  10.344  14.177
 1129SOL     OW 5283   8.713   4.304   1.867
 1129SOL    HW1 5284   8.757   4.225   1.839
 1129SOL    HW2 5285   8.662   4.332   1.791
 1130SOL     OW 5286  12.987  10.736  12.327
 1130SOL    HW1 5287  12.913  10.700  12.280
 1130SOL    HW2 5288  13.054  10.751  12.260
 1131SOL     OW 5289  12.977   2.857   1.590
 1131SOL    HW1 5290  12.979   2.943   1.549
 1131SOL    HW2 5291  12.933   2.871   1.674
 1132SOL     OW 5292  11.285   8.980   7.411
 1132SOL    HW1 5293  11.245   8.901   7.448
 1132SOL    HW2 5294  11.329   8.950   7.332
 1133SOL     OW 5295  12.005   3.641  13.008
 1133SOL    HW1 5296  11.919   3.670  12.977
 1133SOL    HW2 5297  12.065   3.711  12.983
 1134SOL     OW 5298  12.903   9.894   5.387
 1134SOL    HW1 5299  12.863   9.947   5.455
 1134SOL    HW2 5300  12.847   9.816   5.381
 1135SOL     OW 5301   4.897  14.255   5.797
 1135SOL    HW1 5302   4.951  14.233   5.722
 1135SOL    HW2 5303   4.902  14.179   5.855
 1136SOL     OW 5304   0.265  14.347   7.163
 1136SOL    HW1 5305   0.176  14.361   7.131
 1136SOL    HW2 5306   0.317  14.333   7.084
 1137SOL     OW 5307   7.768   5.623  13.125
 1137SOL    HW1 5308   7.853   5.644  13.163
 1137SOL    HW2 5309   7.704   5.656  13.189
 1138SOL     OW 5310   5.164  12.352  12.048
 1138SOL    HW1 5311   5.144  12.419  12.113
 1138SOL    HW2 5312   5.167  12.270  12.097
 1139SOL     OW 5313   8.557   2.971   5.601
 1139SOL    HW1 5314   8.600   2.950   5.683
 1139SOL    HW2 5315   8.627   3.001   5.543
 1140SOL     OW 5316   1.779   4.628   5.174
 1140SOL    HW1 5317   1.864   4.587   5.158
 1140SOL    HW2 5318   1.771   4.632   5.269
 1141SOL     OW 5319   5.392  10.462   4.266
 1141SOL    HW1 5320   5.326  10.409   4.220
 1141SOL    HW2 5321   5.475  10.415   4.250
 1142SOL     OW 5322   1.849   9.618  10.043
 1142SOL    HW1 5323   1.818   9.528  10.030
 1142SOL    HW2 5324   1.896   9.615  10.126
 1143SOL     OW 5325  14.029   2.544   6.025
 1143SOL    HW1 5326  13.959   2.479   6.018
 1143SOL    HW2 5327  14.099   2.499   6.071
 1144SOL     OW 5328   7.814   8.553   3.848
 1144SOL    HW1 5329   7.780   8.635   3.885
 1144SOL    HW2 5330   7.775   8.485   3.902
 1145SOL     OW 5331   0.747  11.018   8.309
 1145SOL    HW1 5332   0.833  10.975   8.300
 1145SOL    HW2 5333   0.691  10.972   8.247
 1146SOL     OW 5334   1.421   2.006   8.293
 1146SOL    HW1 5335   1.453   1.977   8.208
 1146SOL    HW2 5336   1.333   1.968   8.300
 1147SOL     OW 5337   4.778   1.559  11.777
 1147SOL    HW1 5338   4.866   1.532  11.749
 1147SOL    HW2 5339   4.737   1.594  11.698
 1148SOL     OW 5340  12.082  13.963   2.897
 1148SOL    HW1 5341  12.059  14.047   2.856
 1148SOL    HW2 5342  12.003  13.910   2.890
 1149SOL     OW 5343   7.392   0.335   4.041
 1149SOL    HW1 5344   7.426   0.305   3.957
 1149SOL    HW2 5345   7.370   0.427   4.027
 1150SOL     OW 5346   6.635  10.988  11.277
 1150SOL    HW1 5347   6.687  11.059  11.238
 1150SOL    HW2 5348   6.699  10.920  11.296
 1151SOL     OW 5349  11.660   5.206  12.980
 1151SOL    HW1 5350  11.635   5.158  12.901
 1151SOL    HW2 5351  11.589   5.187  13.042
 1152SOL     OW 5352   5.177  10.581  12.781
 1152SOL    HW1 5353   5.272  10.568  12.787
 1152SOL    HW2 5354   5.155  10.552  12.692
 1153SOL     OW 5355   0.905   9.648  10.888
 1153SOL    HW1 5356   0.872   9.734  10.863
 1153SOL    HW2 5357   0.868   9.631  10.974
 1154SOL     OW 5358   9.050   5.220   1.322
 1154SOL    HW1 5359   9.115   5.286   1.343
 1154SOL    HW2 5360   9.100   5.149   1.281
 1155SOL     OW 5361  13.876   8.408   3.804
 1155SOL    HW1 5362  13.829   8.468   3.863
 1155SOL    HW2 5363  13.818   8.398   3.729
 1156SOL     OW 5364   8.212   3.537  14.347
 1156SOL    HW1 5365   8.254   3.497  14.270
 1156SOL    HW2 5366   8.120   3.545  14.323
 1157SOL     OW 5367   7.541   9.532  14.212
 1157SOL    HW1 5368   7.587   9.587  14.276
 1157SOL    HW2 5369   7.566   9.443  14.235
 1158SOL     OW 5370   1.412  14.442   1.131
 1158SOL    HW1 5371   1.349  14.493   1.181
 1158SOL    HW2 5372   1.498  14.476   1.158
 1159SOL     OW 5373   3.482  13.504   2.099
 1159SOL    HW1 5374   3.414  13.438   2.086
 1159SOL    HW2 5375   3.547  13.483   2.032
 1160SOL     OW 5376   5.437  13.293  12.750
 1160SOL    HW1 5377   5.355  13.244  12.747
 1160SOL    HW2 5378   5.427  13.353  12.824
 1161SOL     OW 5379   7.615  14.813   0.379
 1161SOL    HW1 5380   7.667   0.018   0.414
 1161SOL    HW2 5381   7.630  14.741   0.440
 1162SOL     OW 5382  13.251  11.629   6.673
 1162SOL    HW1 5383  13.169  11.582   6.657
 1162SOL    HW2 5384  13.312  11.594   6.607
 1163SOL     OW 5385   9.006   6.553  10.908
 1163SOL    HW1 5386   8.918   6.545  10.872
 1163SOL    HW2 5387   9.044   6.628  10.861
 1164SOL     OW 5388   7.595   0.033   7.292
 1164SOL    HW1 5389   7.656  14.829   7.278
 1164SOL    HW2 5390   7.573   0.064   7.205
 1165SOL     OW 5391   1.049  14.496   8.940
 1165SOL    HW1 5392   1.133  14.530   8.910
 1165SOL    HW2 5393   0.988  14.570   8.933
 1166SOL     OW 5394  10.373   8.968   3.019
 1166SOL    HW1 5395  10.366   9.003   2.930
 1166SOL    HW2 5396  10.292   8.997   3.062
 1167SOL     OW 5397  11.285   1.982   0.065
 1167SOL    HW1 5398  11.228   1.955   0.136
 1167SOL    HW2 5399  11.373   1.954   0.092
 1168SOL     OW 5400   4.409  10.870   5.960
 1168SOL    HW1 5401   4.329  10.922   5.946
 1168SOL    HW2 5402   4.377  10.781   5.974
 1169SOL     OW 5403  11.871   0.103   2.259
 1169SOL    HW1 5404  11.871   0.122   2.165
 1169SOL    HW2 5405  11.869   0.008   2.264
 1170SOL     OW 5406   9.666   8.556   7.680
 1170SOL    HW1 5407   9.574   8.533   7.692
 1170SOL    HW2 5408   9.714   8.477   7.701
 1171SOL     OW 5409   7.765  12.983  13.910
 1171SOL    HW1 5410   7.786  12.948  13.997
 1171SOL    HW2 5411   7.745  12.906  13.857
 1172SOL     OW 5412   0.140   4.086   6.349
 1172SOL    HW1 5413   0.087   4.132   6.283
 1172SOL    HW2 5414   0.105   3.997   6.350
 1173SOL     OW 5415   2.418  12.851   9.961
 1173SOL    HW1 5416   2.451  12.837   9.872
 1173SOL    HW2 5417   2.455  12.779  10.012
 1174SOL     OW 5418   1.462  10.727  11.350
 1174SOL    HW1 5419   1.526  10.736  11.279
 1174SOL    HW2 5420   1.379  10.713  11.305
 1175SOL     OW 5421   5.273  11.545  11.006
 1175SOL    HW1 5422   5.226  11.494  10.940
 1175SOL    HW2 5423   5.264  11.636  10.977
 1176SOL     OW 5424   4.094  10.587   4.386
 1176SOL    HW1 5425   4.174  10.631   4.415
 1176SOL    HW2 5426   4.085  10.613   4.294
 1177SOL     OW 5427  11.103  14.092   2.745
 1177SOL    HW1 5428  11.146  14.023   2.797
 1177SOL    HW2 5429  11.112  14.171   2.799
 1178SOL     OW 5430   0.343   9.145   9.259
 1178SOL    HW1 5431   0.381   9.059   9.276
 1178SOL    HW2 5432   0.259   9.144   9.304
 1179SOL     OW 5433   0.716   0.926   8.876
 1179SOL    HW1 5434   0.651   0.986   8.841
 1179SOL    HW2 5435   0.782   0.918   8.807
 1180SOL     OW 5436  14.198   7.943   4.166
 1180SOL    HW1 5437  14.255   7.880   4.211
 1180SOL    HW2 5438  14.235   7.952   4.079
 1181SOL     OW 5439  10.857  11.056   9.192
 1181SOL    HW1 5440  10.846  11.140   9.237
 1181SOL    HW2 5441  10.936  11.018   9.230
 1182SOL     OW 5442   0.469   7.115   0.243
 1182SOL    HW1 5443   0.426   7.199   0.260
 1182SOL    HW2 5444   0.561   7.136   0.231
 1183SOL     OW 5445   3.627   9.915   7.667
 1183SOL    HW1 5446   3.536   9.885   7.666
 1183SOL    HW2 5447   3.666   9.873   7.590
 1184SOL     OW 5448   5.894   2.003   3.755
 1184SOL    HW1 5449   5.971   1.978   3.705
 1184SOL    HW2 5450   5.824   1.946   3.722
 1185SOL     OW 5451   0.237   7.176   7.737
 1185SOL    HW1 5452   0.243   7.183   7.832
 1185SOL    HW2 5453   0.196   7.258   7.709
 1186SOL     OW 5454   8.105  11.692   6.808
 1186SOL    HW1 5455   8.082  11.692   6.900
 1186SOL    HW2 5456   8.026  11.721   6.763
 1187SOL     OW 5457   3.370   7.095   4.045
 1187SOL    HW1 5458   3.454   7.127   4.079
 1187SOL    HW2 5459   3.307   7.112   4.115
 1188SOL     OW 5460   3.610  12.388   4.031
 1188SOL    HW1 5461   3.545  12.445   3.991
 1188SOL    HW2 5462   3.560  12.311   4.060
 1189SOL     OW 5463   5.476   4.705  12.635
 1189SOL    HW1 5464   5.554   4.652  12.621
 1189SOL    HW2 5465   5.407   4.642  12.652
 1190SOL     OW 5466  12.641   1.858   0.408
 1190SOL    HW1 5467  12.652   1.898   0.494
 1190SOL    HW2 5468  12.723   1.813   0.392
 1191SOL     OW 5469  10.949   8.835   8.004
 1191SOL    HW1 5470  10.989   8.809   8.088
 1191SOL    HW2 5471  10.943   8.930   8.010
 1192SOL     OW 5472   3.076   9.357   7.184
 1192SOL    HW1 5473   3.130   9.432   7.160
 1192SOL    HW2 5474   3.025   9.387   7.260
 1193SOL     OW 5475   2.730   5.874   0.022
 1193SOL    HW1 5476   2.763   5.950  14.843
 1193SOL    HW2 5477   2.799   5.809   0.014
 1194SOL     OW 5478   9.303  10.284  12.269
 1194SOL    HW1 5479   9.318  10.222  12.198
 1194SOL    HW2 5480   9.309  10.370  12.226
 1195SOL     OW 5481   3.296  10.260   5.776
 1195SOL    HW1 5482   3.353  10.331   5.746
 1195SOL    HW2 5483   3.207  10.294   5.763
 1196SOL     OW 5484   0.265   4.430   6.642
 1196SOL    HW1 5485   0.190   4.476   6.679
 1196SOL    HW2 5486   0.240   4.337   6.643
 1197SOL     OW 5487  12.219   0.138   0.274
 1197SOL    HW1 5488  12.252   0.049   0.261
 1197SOL    HW2 5489  12.126   0.127   0.291
 1198SOL     OW 5490  13.620  10.233   2.288
 1198SOL    HW1 5491  13.534  10.243   2.329
 1198SOL    HW2 5492  13.677  10.202   2.359
 1199SOL     OW 5493  11.687   3.583   6.195
 1199SOL    HW1 5494  11.690   3.645   6.122
 1199SOL    HW2 5495  11.648   3.633   6.267
 1200SOL     OW 5496  12.627   9.908   4.139
 1200SOL    HW1 5497  12.608   9.815   4.150
 1200SOL    HW2 5498  12.590   9.930   4.054
 1201SOL     OW 5499   0.216   1.969  12.653
 1201SOL    HW1 5500   0.301   1.997  12.687
 1201SOL    HW2 5501   0.156   2.038  12.679
 1202SOL     OW 5502  14.292   8.126  10.413
 1202SOL    HW1 5503  14.344   8.203  10.437
 1202SOL    HW2 5504  14.338   8.052  10.454
 1203SOL     OW 5505  14.080  11.614   7.099
 1203SOL    HW1 5506  14.175  11.608   7.101
 1203SOL    HW2 5507  14.051  11.576   7.182
 1204SOL     OW 5508  11.481   0.189  12.153
 1204SOL    HW1 5509  11.499   0.226  12.067
 1204SOL    HW2 5510  11.427   0.112  12.136
 1205SOL     OW 5511   1.729  12.620   2.995
 1205SOL    HW1 5512   1.794  12.669   2.945
 1205SOL    HW2 5513   1.665  12.685   3.022
 1206SOL     OW 5514   1.531  12.376   5.288
 1206SOL    HW1 5515   1.626  12.373   5.279
 1206SOL    HW2 5516   1.500  12.296   5.246
 1207SOL     OW 5517  11.258  11.053  12.729
 1207SOL    HW1 5518  11.186  11.052  12.666
 1207SOL    HW2 5519  11.245  10.975  12.782
 1208SOL     OW 5520   8.554   8.187  11.060
 1208SOL    HW1 5521   8.461   8.188  11.080
 1208SOL    HW2 5522   8.586   8.104  11.097
 1209SOL     OW 5523   6.436   9.355   0.864
 1209SOL    HW1 5524   6.429   9.450   0.869
 1209SOL    HW2 5525   6.518   9.334   0.908
 1210SOL     OW 5526   4.628   1.715   1.720
 1210SOL    HW1 5527   4.606   1.724   1.628
 1210SOL    HW2 5528   4.570   1.646   1.752
 1211SOL     OW 5529   0.450   7.665   6.510
 1211SOL    HW1 5530   0.506   7.739   6.532
 1211SOL    HW2 5531   0.480   7.637   6.424
 1212SOL     OW 5532   5.984   6.751   3.377
 1212SOL    HW1 5533   6.033   6.786   3.303
 1212SOL    HW2 5534   6.042   6.686   3.416
 1213SOL     OW 5535  14.372   6.404  11.327
 1213SOL    HW1 5536  14.419   6.456  11.392
 1213SOL    HW2 5537  14.323   6.339  11.378
 1214SOL     OW 5538   5.882   7.910  13.997
 1214SOL    HW1 5539   5.900   7.841  14.060
 1214SOL    HW2 5540   5.879   7.991  14.049
 1215SOL     OW 5541   3.511   2.563   5.351
 1215SOL    HW1 5542   3.517   2.492   5.288
 1215SOL    HW2 5543   3.527   2.642   5.300
 1216SOL     OW 5544   8.701   9.614   2.768
 1216SOL    HW1 5545   8.662   9.613   2.856
 1216SOL    HW2 5546   8.722   9.706   2.752
 1217SOL     OW 5547  10.637   1.662   6.714
 1217SOL    HW1 5548  10.627   1.568   6.731
 1217SOL    HW2 5549  10.731   1.677   6.717
 1218SOL     OW 5550   2.138   5.685   6.101
 1218SOL    HW1 5551   2.104   5.648   6.020
 1218SOL    HW2 5552   2.083   5.761   6.119
 1219SOL     OW 5553  10.682  10.573   4.830
 1219SOL    HW1 5554  10.734  10.566   4.910
 1219SOL    HW2 5555  10.680  10.667   4.812
 1220SOL     OW 5556   9.067  14.398   2.045
 1220SOL    HW1 5557   9.150  14.350   2.049
 1220SOL    HW2 5558   9.043  14.414   2.136
 1221SOL     OW 5559   7.665   5.646   5.469
 1221SOL    HW1 5560   7.686   5.626   5.560
 1221SOL    HW2 5561   7.570   5.643   5.464
 1222SOL     OW 5562   1.013  12.685  13.899
 1222SOL    HW1 5563   1.031  12.739  13.822
 1222SOL    HW2 5564   1.100  12.656  13.928
 1223SOL     OW 5565   2.165  12.958   7.312
 1223SOL    HW1 5566   2.187  12.865   7.302
 1223SOL    HW2 5567   2.236  12.994   7.366
 1224SOL     OW 5568  11.398   6.119  12.241
 1224SOL    HW1 5569  11.338   6.194  12.239
 1224SOL    HW2 5570  11.427   6.115  12.332
 1225SOL     OW 5571   9.821   7.520   9.240
 1225SOL    HW1 5572   9.904   7.494   9.281
 1225SOL    HW2 5573   9.788   7.439   9.200
 1226SOL     OW 5574   6.298   8.214   8.242
 1226SOL    HW1 5575   6.391   8.203   8.259
 1226SOL    HW2 5576   6.263   8.125   8.246
 1227SOL     OW 5577   0.449   7.527   3.170
 1227SOL    HW1 5578   0.414   7.464   3.107
 1227SOL    HW2 5579   0.523   7.482   3.210
 1228SOL     OW 5580  13.265  13.095   1.884
 1228SOL    HW1 5581  13.307  13.175   1.851
 1228SOL    HW2 5582  13.278  13.031   1.814
 1229SOL     OW 5583   9.202   3.784  13.937
 1229SOL    HW1 5584   9.126   3.838  13.963
 1229SOL    HW2 5585   9.278   3.833  13.969
 1230SOL     OW 5586   9.096   0.531   0.682
 1230SOL    HW1 5587   9.112   0.437   0.688
 1230SOL    HW2 5588   9.062   0.555   0.768
 1231SOL     OW 5589   7.619  13.071  10.657
 1231SOL    HW1 5590   7.544  13.012  10.666
 1231SOL    HW2 5591   7.581  13.153  10.623
 1232SOL     OW 5592   6.844   8.804  11.769
 1232SOL    HW1 5593   6.915   8.781  11.710
 1232SOL    HW2 5594   6.887   8.816  11.854
 1233SOL     OW 5595   0.529   5.555  13.468
 1233SOL    HW1 5596   0.551   5.644  13.441
 1233SOL    HW2 5597   0.441   5.541  13.436
 1234SOL     OW 5598   6.467   5.958   8.442
 1234SOL    HW1 5599   6.411   5.984   8.369
 1234SOL    HW2 5600   6.439   5.869   8.464
 1235SOL     OW 5601   7.391   8.004   1.060
 1235SOL    HW1 5602   7.383   7.959   0.976
 1235SOL    HW2 5603   7.444   8.081   1.041
 1236SOL     OW 5604   5.765   9.710   3.454
 1236SOL    HW1 5605   5.794   9.643   3.516
 1236SOL    HW2 5606   5.694   9.756   3.500
 1237SOL     OW 5607  10.491   9.914  13.400
 1237SOL    HW1 5608  10.520   9.824  13.389
 1237SOL    HW2 5609  10.538   9.963  13.332
 1238SOL     OW 5610  12.885   0.077   2.914
 1238SOL    HW1 5611  12.953   0.074   2.981
 1238SOL    HW2 5612  12.806   0.103   2.962
 1239SOL     OW 5613   0.569   0.460   4.352
 1239SOL    HW1 5614   0.628   0.437   4.280
 1239SOL    HW2 5615   0.543   0.376   4.390
 1240SOL     OW 5616   5.781  14.559  10.388
 1240SOL    HW1 5617   5.735  14.642  10.401
 1240SOL    HW2 5618   5.869  14.574  10.423
 1241SOL     OW 5619   6.764   2.887  11.995
 1241SOL    HW1 5620   6.763   2.912  12.088
 1241SOL    HW2 5621   6.813   2.957  11.952
 1242SOL     OW 5622   0.277   3.550   2.176
 1242SOL    HW1 5623   0.337   3.572   2.247
 1242SOL    HW2 5624   0.309   3.466   2.143
 1243SOL     OW 5625   8.831   9.570   9.183
 1243SOL    HW1 5626   8.883   9.581   9.263
 1243SOL    HW2 5627   8.749   9.531   9.214
 1244SOL     OW 5628   4.316   6.145   0.461
 1244SOL    HW1 5629   4.265   6.176   0.536
 1244SOL    HW2 5630   4.401   6.122   0.498
 1245SOL     OW 5631   0.018   1.036   6.194
 1245SOL    HW1 5632  14.827   1.093   6.146
 1245SOL    HW2 5633  14.832   0.961   6.220
 1246SOL     OW 5634   0.999   5.334  11.050
 1246SOL    HW1 5635   0.995   5.427  11.071
 1246SOL    HW2 5636   1.086   5.306  11.081
 1247SOL     OW 5637   2.296   2.322   2.134
 1247SOL    HW1 5638   2.322   2.413   2.148
 1247SOL    HW2 5639   2.350   2.293   2.061
 1248SOL     OW 5640  10.829   8.136  10.176
 1248SOL    HW1 5641  10.734   8.150  10.175
 1248SOL    HW2 5642  10.849   8.103  10.089
 1249SOL     OW 5643   9.784   9.847   1.868
 1249SOL    HW1 5644   9.869   9.852   1.824
 1249SOL    HW2 5645   9.792   9.906   1.943
 1250SOL     OW 5646  10.699   1.363  11.795
 1250SOL    HW1 5647  10.715   1.456  11.807
 1250SOL    HW2 5648  10.648   1.356  11.715
 1251SOL     OW 5649   1.138   1.863   8.714
 1251SOL    HW1 5650   1.224   1.873   8.674
 1251SOL    HW2 5651   1.154   1.815   8.794
 1252SOL     OW 5652  10.329   3.888  11.830
 1252SOL    HW1 5653  10.377   3.862  11.909
 1252SOL    HW2 5654  10.258   3.824  11.823
 1253SOL     OW 5655   6.487   9.362   6.766
 1253SOL    HW1 5656   6.408   9.310   6.781
 1253SOL    HW2 5657   6.502   9.358   6.672
 1254SOL     OW 5658  10.344  12.978   1.854
 1254SOL    HW1 5659  10.437  12.956   1.857
 1254SOL    HW2 5660  10.341  13.073   1.860
 1255SOL     OW 5661   5.158   9.062   9.822
 1255SOL    HW1 5662   5.064   9.052   9.838
 1255SOL    HW2 5663   5.167   9.059   9.727
 1256SOL     OW 5664   2.190   0.178   4.641
 1256SOL    HW1 5665   2.113   0.234   4.653
 1256SOL    HW2 5666   2.263   0.239   4.641
 1257SOL     OW 5667   3.934  11.919   5.235
 1257SOL    HW1 5668   3.851  11.926   5.189
 1257SOL    HW2 5669   3.997  11.895   5.168
 1258SOL     OW 5670   8.480   0.848   4.004
 1258SOL    HW1 5671   8.522   0.762   4.010
 1258SOL    HW2 5672   8.398   0.831   3.957
 1259SOL     OW 5673  12.343  12.975  14.524
 1259SOL    HW1 5674  12.271  12.941  14.471
 1259SOL    HW2 5675  12.320  13.066  14.541
 1260SOL     OW 5676   6.131   7.913   4.474
 1260SOL    HW1 5677   6.066   7.907   4.544
 1260SOL    HW2 5678   6.079   7.923   4.394
 1261SOL     OW 5679   9.861  12.629   7.610
 1261SOL    HW1 5680   9.853  12.678   7.692
 1261SOL    HW2 5681   9.801  12.555   7.620
 1262SOL     OW 5682  14.367  12.486   9.190
 1262SOL    HW1 5683  14.355  12.576   9.218
 1262SOL    HW2 5684  14.305  12.435   9.243
 1263SOL     OW 5685   8.472  10.656   1.157
 1263SOL    HW1 5686   8.528  10.658   1.079
 1263SOL    HW2 5687   8.492  10.573   1.200
 1264SOL     OW 5688   0.098   4.914  14.227
 1264SOL    HW1 5689   0.138   4.909  14.140
 1264SOL    HW2 5690   0.172   4.910  14.288
 1265SOL     OW 5691  10.024   1.470   3.280
 1265SOL    HW1 5692   9.952   1.440   3.223
 1265SOL    HW2 5693  10.071   1.390   3.302
 1266SOL     OW 5694   5.212   7.649   1.737
 1266SOL    HW1 5695   5.168   7.588   1.796
 1266SOL    HW2 5696   5.183   7.624   1.650
 1267SOL     OW 5697   0.205  12.279  12.919
 1267SOL    HW1 5698   0.180  12.282  13.011
 1267SOL    HW2 5699   0.242  12.366  12.901
 1268SOL     OW 5700  13.482   2.583  11.251
 1268SOL    HW1 5701  13.451   2.513  11.307
 1268SOL    HW2 5702  13.403   2.630  11.224
 1269SOL     OW 5703   1.056   5.819   8.292
 1269SOL    HW1 5704   0.999   5.820   8.215
 1269SOL    HW2 5705   1.013   5.757   8.352
 1270SOL     OW 5706  12.735  14.068   5.550
 1270SOL    HW1 5707  12.657  14.015   5.568
 1270SOL    HW2 5708  12.712  14.155   5.583
 1271SOL     OW 5709   9.916   7.430  10.324
 1271SOL    HW1 5710   9.831   7.391  10.305
 1271SOL    HW2 5711   9.900   7.483  10.402
 1272SOL     OW 5712   2.153  13.538   6.395
 1272SOL    HW1 5713   2.088  13.535   6.325
 1272SOL    HW2 5714   2.202  13.456   6.386
 1273SOL     OW 5715   8.659  13.514   1.492
 1273SOL    HW1 5716   8.637  13.600   1.527
 1273SOL    HW2 5717   8.743  13.493   1.532
 1274SOL     OW 5718   0.784  14.832   1.861
 1274SOL    HW1 5719   0.822   0.039   1.906
 1274SOL    HW2 5720   0.690  14.838   1.877
 1275SOL     OW 5721   0.702   4.235  11.570
 1275SOL    HW1 5722   0.661   4.207  11.489
 1275SOL    HW2 5723   0.747   4.316  11.548
 1276SOL     OW 5724  11.717   5.777  13.656
 1276SOL    HW1 5725  11.669   5.715  13.601
 1276SOL    HW2 5726  11.757   5.723  13.723
 1277SOL     OW 5727   0.132  11.647   4.343
 1277SOL    HW1 5728   0.101  11.738   4.343
 1277SOL    HW2 5729   0.111  11.615   4.431
 1278SOL     OW 5730  14.466   5.962   7.916
 1278SOL    HW1 5731  14.389   6.011   7.944
 1278SOL    HW2 5732  14.472   5.980   7.822
 1279SOL     OW 5733   3.271   4.868   5.577
 1279SOL    HW1 5734   3.251   4.961   5.575
 1279SOL    HW2 5735   3.193   4.825   5.541
 1280SOL     OW 5736   2.286  11.664   9.838
 1280SOL    HW1 5737   2.201  11.628   9.866
 1280SOL    HW2 5738   2.304  11.733   9.902
 1281SOL     OW 5739   4.782   7.373   0.377
 1281SOL    HW1 5740   4.733   7.320   0.440
 1281SOL    HW2 5741   4.873   7.369   0.407
 1282SOL     OW 5742   7.696   4.315  10.993
 1282SOL    HW1 5743   7.712   4.370  10.916
 1282SOL    HW2 5744   7.723   4.369  11.067
 1283SOL     OW 5745   0.180   9.527   6.130
 1283SOL    HW1 5746   0.134   9.444   6.117
 1283SOL    HW2 5747   0.127   9.591   6.083
 1284SOL     OW 5748   7.380   2.241   3.520
 1284SOL    HW1 5749   7.354   2.287   3.440
 1284SOL    HW2 5750   7.470   2.212   3.502
 1285SOL     OW 5751  11.816  13.037   9.914
 1285SOL    HW1 5752  11.768  13.061   9.835
 1285SOL    HW2 5753  11.786  12.948   9.934
 1286SOL     OW 5754   8.715   9.583   8.244
 1286SOL    HW1 5755   8.655   9.529   8.296
 1286SOL    HW2 5756   8.772   9.521   8.200
 1287SOL     OW 5757  12.486  11.915   2.347
 1287SOL    HW1 5758  12.424  11.984   2.369
 1287SOL    HW2 5759  12.504  11.929   2.254
 1288SOL     OW 5760  10.127  12.982   4.367
 1288SOL    HW1 5761  10.097  12.894   4.388
 1288SOL    HW2 5762  10.219  12.983   4.392
 1289SOL     OW 5763  14.388   5.046  12.819
 1289SOL    HW1 5764  14.372   5.039  12.913
 1289SOL    HW2 5765  14.397   4.956  12.789
 1290SOL     OW 5766   0.179   5.310   8.741
 1290SOL    HW1 5767   0.104   5.291   8.684
 1290SOL    HW2 5768   0.172   5.403   8.759
 1291SOL     OW 5769  12.142   4.935  10.022
 1291SOL    HW1 5770  12.084   4.996   9.977
 1291SOL    HW2 5771  12.204   4.906   9.955
 1292SOL     OW 5772   1.826   2.101  14.716
 1292SOL    HW1 5773   1.884   2.056  14.655
 1292SOL    HW2 5774   1.872   2.183  14.737
 1293SOL     OW 5775   0.560   5.413   8.004
 1293SOL    HW1 5776   0.574   5.319   8.009
 1293SOL    HW2 5777   0.472   5.426   8.040
 1294SOL     OW 5778  11.657  11.514   1.274
 1294SOL    HW1 5779  11.589  11.457   1.309
 1294SOL    HW2 5780  11.673  11.578   1.344
 1295SOL     OW 5781   3.265   1.604   0.972
 1295SOL    HW1 5782   3.345   1.553   0.987
 1295SOL    HW2 5783   3.294   1.681   0.923
 1296SOL     OW 5784   0.986   1.484   5.567
 1296SOL    HW1 5785   0.986   1.560   5.509
 1296SOL    HW2 5786   1.055   1.503   5.631
 1297SOL     OW 5787   3.720   3.173   6.192
 1297SOL    HW1 5788   3.702   3.238   6.260
 1297SOL    HW2 5789   3.699   3.089   6.232
 1298SOL     OW 5790   5.295   9.585  13.967
 1298SOL    HW1 5791   5.376   9.589  13.916
 1298SOL    HW2 5792   5.313   9.637  14.045
 1299SOL     OW 5793   1.521   0.386  11.697
 1299SOL    HW1 5794   1.543   0.397  11.605
 1299SOL    HW2 5795   1.591   0.433  11.744
 1300SOL     OW 5796   2.287  11.259   7.997
 1300SOL    HW1 5797   2.363  11.202   7.984
 1300SOL    HW2 5798   2.288  11.278   8.091
 1301SOL     OW 5799   5.547   7.218   2.644
 1301SOL    HW1 5800   5.453   7.202   2.652
 1301SOL    HW2 5801   5.578   7.220   2.735
 1302SOL     OW 5802  10.616  11.686   7.722
 1302SOL    HW1 5803  10.643  11.775   7.745
 1302SOL    HW2 5804  10.698  11.636   7.717
 1303SOL     OW 5805   2.478   0.878   0.013
 1303SOL    HW1 5806   2.558   0.826   0.006
 1303SOL    HW2 5807   2.501   0.962  14.841
 1304SOL     OW 5808  12.627  12.702   3.733
 1304SOL    HW1 5809  12.705  12.647   3.726
 1304SOL    HW2 5810  12.593  12.706   3.644
 1305SOL     OW 5811   6.685   0.603   3.844
 1305SOL    HW1 5812   6.597   0.569   3.825
 1305SOL    HW2 5813   6.744   0.544   3.797
 1306SOL     OW 5814   2.472  14.038  13.591
 1306SOL    HW1 5815   2.401  14.101  13.605
 1306SOL    HW2 5816   2.548  14.093  13.568
 1307SOL     OW 5817  10.507  10.640   9.204
 1307SOL    HW1 5818  10.586  10.594   9.175
 1307SOL    HW2 5819  10.436  10.576   9.190
 1308SOL     OW 5820   8.524   8.600   1.420
 1308SOL    HW1 5821   8.450   8.657   1.402
 1308SOL    HW2 5822   8.547   8.563   1.335
 1309SOL     OW 5823   5.080  13.413   6.769
 1309SOL    HW1 5824   5.120  13.445   6.688
 1309SOL    HW2 5825   4.987  13.402   6.747
 1310SOL     OW 5826   7.636   3.668   7.308
 1310SOL    HW1 5827   7.664   3.578   7.324
 1310SOL    HW2 5828   7.660   3.714   7.388
 1311SOL     OW 5829   1.742  12.585   8.815
 1311SOL    HW1 5830   1.780  12.671   8.830
 1311SOL    HW2 5831   1.760  12.566   8.723
 1312SOL     OW 5832  14.055   9.108   7.954
 1312SOL    HW1 5833  14.052   9.088   8.047
 1312SOL    HW2 5834  14.144   9.138   7.939
 1313SOL     OW 5835   7.084   4.370   5.855
 1313SOL    HW1 5836   7.066   4.304   5.922
 1313SOL    HW2 5837   7.002   4.418   5.846
 1314SOL     OW 5838  11.356  12.644  13.942
 1314SOL    HW1 5839  11.341  12.551  13.924
 1314SOL    HW2 5840  11.418  12.644  14.015
 1315SOL     OW 5841  11.685   4.766   5.906
 1315SOL    HW1 5842  11.649   4.760   5.817
 1315SOL    HW2 5843  11.664   4.682   5.946
 1316SOL     OW 5844   6.353   6.248   5.118
 1316SOL    HW1 5845   6.413   6.174   5.109
 1316SOL    HW2 5846   6.392   6.317   5.064
 1317SOL     OW 5847  10.610  14.346  10.863
 1317SOL    HW1 5848  10.627  14.340  10.769
 1317SOL    HW2 5849  10.660  14.275  10.901
 1318SOL     OW 5850  11.483   3.800   9.301
 1318SOL    HW1 5851  11.444   3.762   9.223
 1318SOL    HW2 5852  11.570   3.761   9.306
 1319SOL     OW 5853   1.517  10.787   4.658
 1319SOL    HW1 5854   1.450  10.720   4.644
 1319SOL    HW2 5855   1.565  10.790   4.576
 1320SOL     OW 5856   5.611   6.021   2.018
 1320SOL    HW1 5857   5.516   6.035   2.010
 1320SOL    HW2 5858   5.644   6.103   2.055
 1321SOL     OW 5859  12.083  10.276  14.106
 1321SOL    HW1 5860  12.146  10.291  14.177
 1321SOL    HW2 5861  12.091  10.183  14.086
 1322SOL     OW 5862   7.844   9.124   3.559
 1322SOL    HW1 5863   7.760   9.139   3.516
 1322SOL    HW2 5864   7.887   9.058   3.506
 1323SOL     OW 5865   2.049  10.707  11.102
 1323SOL    HW1 5866   2.007  10.776  11.155
 1323SOL    HW2 5867   2.049  10.742  11.013
 1324SOL     OW 5868  11.468   9.932  10.742
 1324SOL    HW1 5869  11.455   9.837  10.750
 1324SOL    HW2 5870  11.399   9.971  10.795
 1325SOL     OW 5871   1.455   2.949   9.000
 1325SOL    HW1 5872   1.404   2.868   8.994
 1325SOL    HW2 5873   1.434   2.996   8.919
 1326SOL     OW 5874   4.905   1.121   8.994
 1326SOL    HW1 5875   4.962   1.193   8.963
 1326SOL    HW2 5876   4.856   1.095   8.916
 1327SOL     OW 5877   9.647   0.531   6.132
 1327SOL    HW1 5878   9.590   0.458   6.155
 1327SOL    HW2 5879   9.718   0.492   6.082
 1328SOL     OW 5880   3.019  10.675   1.585
 1328SOL    HW1 5881   2.975  10.752   1.550
 1328SOL    HW2 5882   3.027  10.692   1.679
 1329SOL     OW 5883   2.009  14.348   0.351
 1329SOL    HW1 5884   2.045  14.359   0.263
 1329SOL    HW2 5885   1.915  14.357   0.340
 1330SOL     OW 5886   6.843   6.661  13.344
 1330SOL    HW1 5887   6.783   6.673  13.271
 1330SOL    HW2 5888   6.890   6.744  13.351
 1331SOL     OW 5889   5.073   7.327  12.019
 1331SOL    HW1 5890   5.124   7.408  12.018
 1331SOL    HW2 5891   5.030   7.323  11.934
 1332SOL     OW 5892   5.870   3.557  12.540
 1332SOL    HW1 5893   5.775   3.549  12.532
 1332SOL    HW2 5894   5.890   3.645  12.510
 1333SOL     OW 5895  10.039   8.128   2.949
 1333SOL    HW1 5896   9.954   8.168   2.930
 1333SOL    HW2 5897  10.080   8.117   2.864
 1334SOL     OW 5898  12.520   5.714  12.783
 1334SOL    HW1 5899  12.511   5.743  12.692
 1334SOL    HW2 5900  12.479   5.783  12.835
 1335SOL     OW 5901   8.933  14.106   1.955
 1335SOL    HW1 5902   8.927  14.060   1.871
 1335SOL    HW2 5903   8.908  14.196   1.935
 1336SOL     OW 5904  13.953   8.631  13.415
 1336SOL    HW1 5905  13.889   8.574  13.457
 1336SOL    HW2 5906  13.944   8.612  13.321
 1337SOL     OW 5907  13.497  11.136   5.943
 1337SOL    HW1 5908  13.471  11.221   5.907
 1337SOL    HW2 5909  13.536  11.158   6.028
 1338SOL     OW 5910  13.577  14.681   4.987
 1338SOL    HW1 5911  13.518  14.668   5.061
 1338SOL    HW2 5912  13.523  14.726   4.922
 1339SOL     OW 5913   7.796   3.665   4.829
 1339SOL    HW1 5914   7.832   3.583   4.863
 1339SOL    HW2 5915   7.867   3.701   4.775
 1340SOL     OW 5916   1.337   8.773  14.863
 1340SOL    HW1 5917   1.380   8.832  14.801
 1340SOL    HW2 5918   1.343   8.819   0.079
 1341SOL     OW 5919  12.025   8.636   3.001
 1341SOL    HW1 5920  11.981   8.552   3.014
 1341SOL    HW2 5921  12.031   8.674   3.088
 1342SOL     OW 5922   2.077   8.496   4.213
 1342SOL    HW1 5923   2.100   8.474   4.303
 1342SOL    HW2 5924   2.126   8.576   4.194
 1343SOL     OW 5925   9.500   2.886  10.978
 1343SOL    HW1 5926   9.431   2.821  10.990
 1343SOL    HW2 5927   9.532   2.903  11.067
 1344SOL     OW 5928   5.592   6.852   5.345
 1344SOL    HW1 5929   5.575   6.796   5.421
 1344SOL    HW2 5930   5.682   6.833   5.321
 1345SOL     OW 5931   5.036   7.791   0.860
 1345SOL    HW1 5932   4.971   7.788   0.930
 1345SOL    HW2 5933   5.055   7.884   0.849
 1346SOL     OW 5934  13.357   6.130  13.385
 1346SOL    HW1 5935  13.400   6.214  13.371
 1346SOL    HW2 5936  13.380   6.105  13.474
 1347SOL     OW 5937  12.078   8.829  13.519
 1347SOL    HW1 5938  12.046   8.877  13.443
 1347SOL    HW2 5939  12.014   8.758  13.532
 1348SOL     OW 5940   3.354  11.207  11.694
 1348SOL    HW1 5941   3.374  11.246  11.608
 1348SOL    HW2 5942   3.278  11.152  11.677
 1349SOL     OW 5943  10.459   8.572  13.199
 1349SOL    HW1 5944  10.385   8.512  13.192
 1349SOL    HW2 5945  10.492   8.579  13.110
 1350SOL     OW 5946   8.385  13.269  13.082
 1350SOL    HW1 5947   8.331  13.344  13.109
 1350SOL    HW2 5948   8.431  13.299  13.004
 1351SOL     OW 5949   3.019  13.567   4.452
 1351SOL    HW1 5950   3.004  13.627   4.526
 1351SOL    HW2 5951   2.985  13.483   4.482
 1352SOL     OW 5952  14.825   1.810  10.845
 1352SOL    HW1 5953  14.769   1.866  10.900
 1352SOL    HW2 5954   0.028   1.783  10.904
 1353SOL     OW 5955   8.122  14.756  10.942
 1353SOL    HW1 5956   8.072  14.803  11.009
 1353SOL    HW2 5957   8.184  14.822  10.909
 1354SOL     OW 5958  14.219  13.294   7.983
 1354SOL    HW1 5959  14.132  13.268   7.955
 1354SOL    HW2 5960  14.259  13.334   7.905
 1355SOL     OW 5961   5.896   0.701   5.721
 1355SOL    HW1 5962   5.942   0.731   5.800
 1355SOL    HW2 5963   5.918   0.767   5.655
 1356SOL     OW 5964  11.906  10.481  13.060
 1356SOL    HW1 5965  11.896  10.538  13.137
 1356SOL    HW2 5966  11.817  10.467  13.029
 1357SOL     OW 5967   4.797   7.381   2.010
 1357SOL    HW1 5968   4.761   7.390   1.922
 1357SOL    HW2 5969   4.806   7.471   2.042
 1358SOL     OW 5970  11.101   9.919  12.222
 1358SOL    HW1 5971  11.085   9.830  12.194
 1358SOL    HW2 5972  11.020   9.947  12.264
 1359SOL     OW 5973   8.240   6.169   9.415
 1359SOL    HW1 5974   8.239   6.160   9.511
 1359SOL    HW2 5975   8.203   6.255   9.399
 1360SOL     OW 5976   2.458   6.303  13.104
 1360SOL    HW1 5977   2.432   6.347  13.023
 1360SOL    HW2 5978   2.432   6.211  13.090
 1361SOL     OW 5979  14.054  14.439  10.294
 1361SOL    HW1 5980  14.070  14.486  10.376
 1361SOL    HW2 5981  14.090  14.352  10.310
 1362SOL     OW 5982   9.561   0.175   2.471
 1362SOL    HW1 5983   9.487   0.127   2.507
 1362SOL    HW2 5984   9.574   0.248   2.531
 1363SOL     OW 5985   3.032   1.111   7.880
 1363SOL    HW1 5986   2.991   1.050   7.942
 1363SOL    HW2 5987   3.063   1.184   7.935
 1364SOL     OW 5988  14.677  11.104   3.019
 1364SOL    HW1 5989  14.724  11.187   3.009
 1364SOL    HW2 5990  14.721  11.044   2.959
 1365SOL     OW 5991  13.166  10.721   7.023
 1365SOL    HW1 5992  13.207  10.653   7.076
 1365SOL    HW2 5993  13.120  10.674   6.954
 1366SOL     OW 5994   9.179   0.248   7.140
 1366SOL    HW1 5995   9.094   0.278   7.171
 1366SOL    HW2 5996   9.239   0.318   7.166
 1367SOL     OW 5997   2.166  12.862  13.769
 1367SOL    HW1 5998   2.197  12.901  13.687
 1367SOL    HW2 5999   2.131  12.936  13.818
 1368SOL     OW 6000   4.008  11.998   5.494
 1368SOL    HW1 6001   3.987  11.976   5.403
 1368SOL    HW2 6002   3.924  12.010   5.537
 1369SOL     OW 6003   7.359   0.626   2.307
 1369SOL    HW1 6004   7.408   0.703   2.277
 1369SOL    HW2 6005   7.375   0.560   2.240
 1370SOL     OW 6006  12.598   0.517  13.055
 1370SOL    HW1 6007  12.638   0.453  12.996
 1370SOL    HW2 6008  12.657   0.592  13.053
 1371SOL     OW 6009  10.097  12.130   9.473
 1371SOL    HW1 6010  10.173  12.087   9.434
 1371SOL    HW2 6011  10.044  12.058   9.508
 1372SOL     OW 6012  14.386   1.311   5.492
 1372SOL    HW1 6013  14.344   1.268   5.567
 1372SOL    HW2 6014  14.460   1.358   5.530
 1373SOL     OW 6015  11.673   6.970  10.193
 1373SOL    HW1 6016  11.696   6.884  10.157
 1373SOL    HW2 6017  11.703   6.967  10.283
 1374SOL     OW 6018  13.562   0.569  11.805
 1374SOL    HW1 6019  13.475   0.570  11.767
 1374SOL    HW2 6020  13.599   0.655  11.783
 1375SOL     OW 6021  10.355  11.907  14.324
 1375SOL    HW1 6022  10.295  11.981  14.316
 1375SOL    HW2 6023  10.322  11.842  14.261
 1376SOL     OW 6024  10.526   0.248   6.007
 1376SOL    HW1 6025  10.540   0.330   6.054
 1376SOL    HW2 6026  10.612   0.204   6.009
 1377SOL     OW 6027   7.413   7.744   7.656
 1377SOL    HW1 6028   7.344   7.775   7.715
 1377SOL    HW2 6029   7.368   7.732   7.573
 1378SOL     OW 6030  14.197  12.403   0.758
 1378SOL    HW1 6031  14.288  12.431   0.744
 1378SOL    HW2 6032  14.168  12.454   0.834
 1379SOL     OW 6033   8.604   3.897  13.712
 1379SOL    HW1 6034   8.691   3.881  13.678
 1379SOL    HW2 6035   8.547   3.838  13.662
 1380SOL     OW 6036  12.446  14.503   4.300
 1380SOL    HW1 6037  12.417  14.579   4.250
 1380SOL    HW2 6038  12.541  14.501   4.288
 1381SOL     OW 6039   3.419  12.836  13.145
 1381SOL    HW1 6040   3.354  12.768  13.128
 1381SOL    HW2 6041   3.489  12.818  13.082
 1382SOL     OW 6042  14.627   6.730   7.524
 1382SOL    HW1 6043  14.672   6.704   7.444
 1382SOL    HW2 6044  14.679   6.690   7.594
 1383SOL     OW 6045   7.575  11.615   4.242
 1383SOL    HW1 6046   7.615  11.597   4.157
 1383SOL    HW2 6047   7.634  11.678   4.284
 1384SOL     OW 6048   8.518   5.052   7.321
 1384SOL    HW1 6049   8.451   5.002   7.276
 1384SOL    HW2 6050   8.470   5.113   7.377
 1385SOL     OW 6051   0.061  11.582  12.056
 1385SOL    HW1 6052  14.859  11.604  11.995
 1385SOL    HW2 6053   0.051  11.646  12.127
 1386SOL     OW 6054   9.295  12.270   9.807
 1386SOL    HW1 6055   9.204  12.293   9.827
 1386SOL    HW2 6056   9.324  12.339   9.746
 1387SOL     OW 6057   3.256   5.884   8.404
 1387SOL    HW1 6058   3.288   5.871   8.315
 1387SOL    HW2 6059   3.244   5.979   8.412
 1388SOL     OW 6060   8.461  10.354   8.737
 1388SOL    HW1 6061   8.474  10.404   8.656
 1388SOL    HW2 6062   8.366  10.351   8.748
 1389SOL     OW 6063   8.562   2.699   3.101
 1389SOL    HW1 6064   8.519   2.645   3.167
 1389SOL    HW2 6065   8.560   2.788   3.138
 1390SOL     OW 6066   4.779  11.049  10.280
 1390SOL    HW1 6067   4.847  11.101  10.322
 1390SOL    HW2 6068   4.799  10.959  10.306
 1391SOL     OW 6069   8.723  13.839   4.482
 1391SOL    HW1 6070   8.630  13.861   4.485
 1391SOL    HW2 6071   8.768  13.922   4.501
 1392SOL     OW 6072   9.861  14.705   8.513
 1392SOL    HW1 6073   9.907  14.655   8.445
 1392SOL    HW2 6074   9.775  14.665   8.518
 1393SOL     OW 6075  14.336   8.956   9.590
 1393SOL    HW1 6076  14.330   8.932   9.498
 1393SOL    HW2 6077  14.277   8.895   9.635
 1394SOL     OW 6078  11.868   0.826  13.242
 1394SOL    HW1 6079  11.940   0.764  13.256
 1394SOL    HW2 6080  11.829   0.798  13.160
 1395SOL     OW 6081   5.192   0.617  11.606
 1395SOL    HW1 6082   5.262   0.675  11.576
 1395SOL    HW2 6083   5.204   0.537  11.555
 1396SOL     OW 6084   7.392   8.118  10.855
 1396SOL    HW1 6085   7.358   8.082  10.773
 1396SOL    HW2 6086   7.350   8.203  10.864
 1397SOL     OW 6087   4.012  11.588  11.834
 1397SOL    HW1 6088   3.994  11.612  11.924
 1397SOL    HW2 6089   3.935  11.539  11.806
 1398SOL     OW 6090  14.560   0.005   3.053
 1398SOL    HW1 6091  14.478   0.030   3.096
 1398SOL    HW2 6092  14.575  14.782   3.081
 1399SOL     OW 6093   5.355   6.314  13.893
 1399SOL    HW1 6094   5.444   6.294  13.922
 1399SOL    HW2 6095   5.366   6.348  13.804
 1400SOL     OW 6096  13.748   4.464  12.027
 1400SOL    HW1 6097  13.713   4.541  11.983
 1400SOL    HW2 6098  13.676   4.433  12.082
 1401SOL     OW 6099   6.888   8.528   1.489
 1401SOL    HW1 6100   6.962   8.496   1.539
 1401SOL    HW2 6101   6.857   8.604   1.538
 1402SOL     OW 6102   9.641   4.844  12.333
 1402SOL    HW1 6103   9.619   4.817  12.422
 1402SOL    HW2 6104   9.697   4.921  12.344
 1403SOL     OW 6105   4.818  13.418   6.277
 1403SOL    HW1 6106   4.880  13.345   6.289
 1403SOL    HW2 6107   4.787  13.408   6.186
 1404SOL     OW 6108   2.751   1.165   9.533
 1404SOL    HW1 6109   2.694   1.206   9.599
 1404SOL    HW2 6110   2.764   1.232   9.467
 1405SOL     OW 6111  13.579   5.876   3.793
 1405SOL    HW1 6112  13.615   5.864   3.705
 1405SOL    HW2 6113  13.511   5.809   3.800
 1406SOL     OW 6114   7.880   5.414   8.897
 1406SOL    HW1 6115   7.939   5.425   8.822
 1406SOL    HW2 6116   7.905   5.330   8.936
 1407SOL     OW 6117  10.894   0.498  13.981
 1407SOL    HW1 6118  10.971   0.549  13.957
 1407SOL    HW2 6119  10.916   0.460  14.066
 1408SOL     OW 6120  14.767   9.149   5.554
 1408SOL    HW1 6121  14.837   9.087   5.572
 1408SOL    HW2 6122  14.687   9.098   5.562
 1409SOL     OW 6123   0.232  13.623  11.216
 1409SOL    HW1 6124   0.295  13.642  11.146
 1409SOL    HW2 6125   0.264  13.674  11.290
 1410SOL     OW 6126   5.541  10.785   1.477
 1410SOL    HW1 6127   5.506  10.710   1.429
 1410SOL    HW2 6128   5.598  10.829   1.414
 1411SOL     OW 6129   7.279   2.706   5.137
 1411SOL    HW1 6130   7.318   2.687   5.222
 1411SOL    HW2 6131   7.212   2.639   5.125
 1412SOL     OW 6132   5.592  11.971   5.087
 1412SOL    HW1 6133   5.562  12.025   5.160
 1412SOL    HW2 6134   5.530  11.991   5.016
 1413SOL     OW 6135   1.918   6.349   1.118
 1413SOL    HW1 6136   1.858   6.291   1.071
 1413SOL    HW2 6137   1.975   6.290   1.168
 1414SOL     OW 6138   4.137   6.033   3.741
 1414SOL    HW1 6139   4.117   6.126   3.749
 1414SOL    HW2 6140   4.122   5.998   3.828
 1415SOL     OW 6141  10.699  10.442   0.268
 1415SOL    HW1 6142  10.764  10.506   0.298
 1415SOL    HW2 6143  10.707  10.441   0.173
 1416SOL     OW 6144   4.972   9.763  12.569
 1416SOL    HW1 6145   4.963   9.819  12.492
 1416SOL    HW2 6146   5.051   9.711  12.551
 1417SOL     OW 6147   8.156   4.978   6.795
 1417SOL    HW1 6148   8.082   4.919   6.781
 1417SOL    HW2 6149   8.117   5.062   6.817
 1418SOL     OW 6150   1.939   6.966   8.702
 1418SOL    HW1 6151   1.891   7.031   8.752
 1418SOL    HW2 6152   1.873   6.904   8.673
 1419SOL     OW 6153   6.160   4.853   1.098
 1419SOL    HW1 6154   6.174   4.944   1.072
 1419SOL    HW2 6155   6.242   4.827   1.141
 1420SOL     OW 6156   9.352   0.550   6.394
 1420SOL    HW1 6157   9.417   0.491   6.355
 1420SOL    HW2 6158   9.272   0.497   6.398
 1421SOL     OW 6159   1.537   4.138   8.509
 1421SOL    HW1 6160   1.507   4.192   8.435
 1421SOL    HW2 6161   1.540   4.199   8.583
 1422SOL     OW 6162  14.631   8.727  14.822
 1422SOL    HW1 6163  14.539   8.717  14.848
 1422SOL    HW2 6164  14.631   8.709  14.728
 1423SOL     OW 6165   8.114   9.564   4.072
 1423SOL    HW1 6166   8.127   9.473   4.099
 1423SOL    HW2 6167   8.037   9.561   4.016
 1424SOL     OW 6168  13.972   1.469  14.527
 1424SOL    HW1 6169  13.934   1.554  14.548
 1424SOL    HW2 6170  13.916   1.433  14.458
 1425SOL     OW 6171  13.662   7.337  10.393
 1425SOL    HW1 6172  13.715   7.348  10.315
 1425SOL    HW2 6173  13.705   7.266  10.442
 1426SOL     OW 6174   1.151   6.482   2.707
 1426SOL    HW1 6175   1.218   6.549   2.696
 1426SOL    HW2 6176   1.079   6.509   2.650
 1427SOL     OW 6177   4.547   8.812   7.771
 1427SOL    HW1 6178   4.522   8.862   7.693
 1427SOL    HW2 6179   4.612   8.867   7.815
 1428SOL     OW 6180   0.023   2.375  10.344
 1428SOL    HW1 6181   0.014   2.309  10.412
 1428SOL    HW2 6182   0.078   2.334  10.277
 1429SOL     OW 6183   0.387   8.473  10.941
 1429SOL    HW1 6184   0.292   8.469  10.943
 1429SOL    HW2 6185   0.415   8.385  10.968
 1430SOL     OW 6186   7.942  11.873   7.520
 1430SOL    HW1 6187   7.910  11.863   7.609
 1430SOL    HW2 6188   8.038  11.867   7.528
 1431SOL     OW 6189  11.292  14.228   5.650
 1431SOL    HW1 6190  11.263  14.228   5.741
 1431SOL    HW2 6191  11.386  14.215   5.654
 1432SOL     OW 6192  14.237   3.333   5.256
 1432SOL    HW1 6193  14.189   3.407   5.290
 1432SOL    HW2 6194  14.220   3.334   5.162
 1433SOL     OW 6195   2.855   7.979   3.093
 1433SOL    HW1 6196   2.844   8.048   3.028
 1433SOL    HW2 6197   2.935   8.001   3.140
 1434SOL     OW 6198   2.821   3.986   8.727
 1434SOL    HW1 6199   2.752   3.944   8.778
 1434SOL    HW2 6200   2.902   3.946   8.759
 1435SOL     OW 6201  13.220   6.852   3.889
 1435SOL    HW1 6202  13.152   6.796   3.926
 1435SOL    HW2 6203  13.175   6.906   3.825
 1436SOL     OW 6204  10.454  10.623   9.589
 1436SOL    HW1 6205  10.544  10.648   9.609
 1436SOL    HW2 6206  10.463  10.538   9.546
 1437SOL     OW 6207   8.389   5.103  11.096
 1437SOL    HW1 6208   8.297   5.121  11.116
 1437SOL    HW2 6209   8.386   5.033  11.031
 1438SOL     OW 6210  13.756   3.200  12.981
 1438SOL    HW1 6211  13.725   3.160  12.900
 1438SOL    HW2 6212  13.852   3.200  12.973
 1439SOL     OW 6213   9.098   4.549   9.013
 1439SOL    HW1 6214   9.017   4.580   9.052
 1439SOL    HW2 6215   9.093   4.453   9.021
 1440SOL     OW 6216  13.320  14.638   2.859
 1440SOL    HW1 6217  13.347  14.614   2.770
 1440SOL    HW2 6218  13.240  14.588   2.873
 1441SOL     OW 6219  12.013   4.633  12.006
 1441SOL    HW1 6220  12.007   4.674  11.919
 1441SOL    HW2 6221  11.961   4.553  11.998
 1442SOL     OW 6222   4.740   8.180   9.766
 1442SOL    HW1 6223   4.825   8.141   9.787
 1442SOL    HW2 6224   4.685   8.158   9.841
 1443SOL     OW 6225   6.985   8.897  11.152
 1443SOL    HW1 6226   6.998   8.991  11.149
 1443SOL    HW2 6227   6.962   8.873  11.062
 1444SOL     OW 6228  11.102   5.988   4.361
 1444SOL    HW1 6229  11.052   6.059   4.320
 1444SOL    HW2 6230  11.162   5.958   4.293
 1445SOL     OW 6231  12.849   4.805   5.291
 1445SOL    HW1 6232  12.771   4.820   5.345
 1445SOL    HW2 6233  12.820   4.748   5.220
 1446SOL     OW 6234   7.222   8.070   2.959
 1446SOL    HW1 6235   7.314   8.054   2.980
 1446SOL    HW2 6236   7.187   8.113   3.037
 1447SOL     OW 6237  13.549  12.693   6.009
 1447SOL    HW1 6238  13.603  12.731   6.078
 1447SOL    HW2 6239  13.488  12.636   6.055
 1448SOL     OW 6240   3.740   3.860   0.292
 1448SOL    HW1 6241   3.647   3.874   0.273
 1448SOL    HW2 6242   3.779   3.839   0.207
 1449SOL     OW 6243   9.446   6.697   3.478
 1449SOL    HW1 6244   9.410   6.755   3.411
 1449SOL    HW2 6245   9.373   6.679   3.536
 1450SOL     OW 6246  14.093   8.169   8.949
 1450SOL    HW1 6247  14.165   8.181   9.012
 1450SOL    HW2 6248  14.126   8.206   8.867
 1451SOL     OW 6249   3.831   8.510   2.343
 1451SOL    HW1 6250   3.876   8.469   2.269
 1451SOL    HW2 6251   3.881   8.482   2.420
 1452SOL     OW 6252   2.864  10.930   3.557
 1452SOL    HW1 6253   2.912  11.001   3.514
 1452SOL    HW2 6254   2.772  10.951   3.542
 1453SOL     OW 6255   8.134   7.150   8.309
 1453SOL    HW1 6256   8.045   7.114   8.313
 1453SOL    HW2 6257   8.130   7.231   8.360
 1454SOL     OW 6258   7.279   9.051   9.316
 1454SOL    HW1 6259   7.360   9.027   9.271
 1454SOL    HW2 6260   7.301   9.048   9.409
 1455SOL     OW 6261   7.144   1.454   4.274
 1455SOL    HW1 6262   7.090   1.427   4.348
 1455SOL    HW2 6263   7.211   1.386   4.267
 1456SOL     OW 6264  12.822   2.110   4.338
 1456SOL    HW1 6265  12.883   2.179   4.363
 1456SOL    HW2 6266  12.736   2.142   4.366
 1457SOL     OW 6267  10.315   8.253   2.029
 1457SOL    HW1 6268  10.388   8.307   2.058
 1457SOL    HW2 6269  10.241   8.281   2.082
 1458SOL     OW 6270   5.679   5.200  14.298
 1458SOL    HW1 6271   5.727   5.212  14.380
 1458SOL    HW2 6272   5.661   5.107  14.294
 1459SOL     OW 6273  13.757   1.098   5.811
 1459SOL    HW1 6274  13.796   1.010   5.816
 1459SOL    HW2 6275  13.825   1.156   5.845
 1460SOL     OW 6276   9.434   6.644   3.171
 1460SOL    HW1 6277   9.490   6.714   3.203
 1460SOL    HW2 6278   9.349   6.685   3.158
 1461SOL     OW 6279   4.930   9.539  11.242
 1461SOL    HW1 6280   5.003   9.479  11.259
 1461SOL    HW2 6281   4.922   9.590  11.323
 1462SOL     OW 6282   3.128   1.147   2.060
 1462SOL    HW1 6283   3.083   1.232   2.061
 1462SOL    HW2 6284   3.207   1.162   2.112
 1463SOL     OW 6285   5.239   7.865  12.840
 1463SOL    HW1 6286   5.222   7.773  12.860
 1463SOL    HW2 6287   5.281   7.899  12.919
 1464SOL     OW 6288   2.132  13.807  13.857
 1464SOL    HW1 6289   2.137  13.728  13.911
 1464SOL    HW2 6290   2.099  13.777  13.773
 1465SOL     OW 6291   7.600   1.319  11.540
 1465SOL    HW1 6292   7.549   1.398  11.555
 1465SOL    HW2 6293   7.582   1.264  11.615
 1466SOL     OW 6294  12.930  13.123   9.725
 1466SOL    HW1 6295  12.882  13.196   9.765
 1466SOL    HW2 6296  12.875  13.047   9.741
 1467SOL     OW 6297   6.211  13.944  14.075
 1467SOL    HW1 6298   6.241  13.865  14.120
 1467SOL    HW2 6299   6.285  13.971  14.021
 1468SOL     OW 6300   9.334  10.602   5.446
 1468SOL    HW1 6301   9.303  10.650   5.522
 1468SOL    HW2 6302   9.332  10.666   5.375
 1469SOL     OW 6303   1.488   9.611  13.578
 1469SOL    HW1 6304   1.487   9.632  13.484
 1469SOL    HW2 6305   1.400   9.576  13.595
 1470SOL     OW 6306   0.357   8.778  11.320
 1470SOL    HW1 6307   0.407   8.701  11.294
 1470SOL    HW2 6308   0.273   8.743  11.349
 1471SOL     OW 6309   0.925   7.589   9.367
 1471SOL    HW1 6310   0.933   7.528   9.440
 1471SOL    HW2 6311   0.851   7.645   9.390
 1472SOL     OW 6312  11.759   4.870   1.851
 1472SOL    HW1 6313  11.800   4.957   1.848
 1472SOL    HW2 6314  11.665   4.888   1.845
 1473SOL     OW 6315   2.734   1.441  10.904
 1473SOL    HW1 6316   2.677   1.437  10.828
 1473SOL    HW2 6317   2.777   1.355  10.907
 1474SOL     OW 6318   5.943   8.287   2.505
 1474SOL    HW1 6319   5.892   8.368   2.511
 1474SOL    HW2 6320   5.986   8.280   2.591
 1475SOL     OW 6321   0.314   0.465   1.689
 1475SOL    HW1 6322   0.249   0.460   1.619
 1475SOL    HW2 6323   0.277   0.527   1.752
 1476SOL     OW 6324  13.179   3.921   4.558
 1476SOL    HW1 6325  13.208   3.836   4.525
 1476SOL    HW2 6326  13.096   3.937   4.513
 1477SOL     OW 6327  11.869   9.069   2.829
 1477SOL    HW1 6328  11.833   9.022   2.904
 1477SOL    HW2 6329  11.888   9.156   2.863
 1478SOL     OW 6330   3.261   2.422   7.981
 1478SOL    HW1 6331   3.281   2.469   7.900
 1478SOL    HW2 6332   3.200   2.480   8.027
 1479SOL     OW 6333   6.435   5.175  10.621
 1479SOL    HW1 6334   6.494   5.244  10.652
 1479SOL    HW2 6335   6.439   5.181  10.526
 1480SOL     OW 6336   4.997   1.382  14.229
 1480SOL    HW1 6337   5.005   1.340  14.144
 1480SOL    HW2 6338   5.004   1.476  14.210
 1481SOL     OW 6339  10.195   3.174   6.893
 1481SOL    HW1 6340  10.285   3.206   6.881
 1481SOL    HW2 6341  10.148   3.250   6.928
 1482SOL     OW 6342   6.136  13.045   7.649
 1482SOL    HW1 6343   6.129  12.954   7.675
 1482SOL    HW2 6344   6.150  13.042   7.554
 1483SOL     OW 6345   7.352   1.020   2.037
 1483SOL    HW1 6346   7.295   0.957   1.993
 1483SOL    HW2 6347   7.422   0.966   2.075
 1484SOL     OW 6348  13.280  13.420  12.772
 1484SOL    HW1 6349  13.254  13.361  12.843
 1484SOL    HW2 6350  13.216  13.491  12.773
 1485SOL     OW 6351  14.319  11.418   7.644
 1485SOL    HW1 6352  14.384  11.449   7.580
 1485SOL    HW2 6353  14.354  11.446   7.729
 1486SOL     OW 6354  14.677  12.416  13.507
 1486SOL    HW1 6355  14.706  12.388  13.420
 1486SOL    HW2 6356  14.756  12.412  13.561
 1487SOL     OW 6357   1.382   4.957  10.883
 1487SOL    HW1 6358   1.429   4.886  10.927
 1487SOL    HW2 6359   1.319   4.988  10.947
 1488SOL     OW 6360   1.446  14.787  13.572
 1488SOL    HW1 6361   1.353  14.810  13.573
 1488SOL    HW2 6362   1.447  14.691  13.562
 1489SOL     OW 6363  13.843   0.767   3.572
 1489SOL    HW1 6364  13.938   0.756   3.569
 1489SOL    HW2 6365  13.822   0.817   3.493
 1490SOL     OW 6366  14.441   2.947  12.055
 1490SOL    HW1 6367  14.450   2.893  11.976
 1490SOL    HW2 6368  14.411   2.887  12.122
 1491SOL     OW 6369  14.434   6.007   8.958
 1491SOL    HW1 6370  14.494   5.932   8.958
 1491SOL    HW2 6371  14.348   5.969   8.971
 1492SOL     OW 6372   0.127   7.929  13.965
 1492SOL    HW1 6373   0.096   7.935  14.055
 1492SOL    HW2 6374   0.185   8.005  13.955
 1493SOL     OW 6375   2.468  11.962   9.508
 1493SOL    HW1 6376   2.535  11.906   9.468
 1493SOL    HW2 6377   2.417  11.994   9.434
 1494SOL     OW 6378   4.665   5.541  11.359
 1494SOL    HW1 6379   4.698   5.630  11.349
 1494SOL    HW2 6380   4.683   5.499  11.275
 1495SOL     OW 6381   7.095   7.352   3.617
 1495SOL    HW1 6382   7.029   7.291   3.584
 1495SOL    HW2 6383   7.054   7.392   3.693
 1496SOL     OW 6384   7.495  12.376   0.658
 1496SOL    HW1 6385   7.511  12.297   0.710
 1496SOL    HW2 6386   7.447  12.434   0.718
 1497SOL     OW 6387   1.666   2.632  12.389
 1497SOL    HW1 6388   1.674   2.538  12.379
 1497SOL    HW2 6389   1.578   2.653  12.359
 1498SOL     OW 6390   2.478   9.474   1.218
 1498SOL    HW1 6391   2.524   9.431   1.290
 1498SOL    HW2 6392   2.499   9.420   1.142
 1499SOL     OW 6393   5.020  12.799  13.019
 1499SOL    HW1 6394   4.985  12.887  13.033
 1499SOL    HW2 6395   5.105  12.800  13.063
 1500SOL     OW 6396   5.834   1.300  10.300
 1500SOL    HW1 6397   5.817   1.395  10.299
 1500SOL    HW2 6398   5.926   1.292  10.278
 1501SOL     OW 6399   2.015  13.181   7.246
 1501SOL    HW1 6400   2.084  13.247   7.255
 1501SOL    HW2 6401   2.059  13.098   7.268
 1502SOL     OW 6402   1.119  10.264  13.957
 1502SOL    HW1 6403   1.144  10.231  14.043
 1502SOL    HW2 6404   1.028  10.236  13.946
 1503SOL     OW 6405   0.297   1.020   8.988
 1503SOL    HW1 6406   0.257   1.061   9.064
 1503SOL    HW2 6407   0.304   1.090   8.923
 1504SOL     OW 6408  11.842   0.765   4.293
 1504SOL    HW1 6409  11.920   0.742   4.344
 1504SOL    HW2 6410  11.795   0.827   4.348
 1505SOL     OW 6411   0.242   9.162  14.833
 1505SOL    HW1 6412   0.286   9.094   0.015
 1505SOL    HW2 6413   0.306   9.189  14.767
 1506SOL     OW 6414   9.690   8.010   5.213
 1506SOL    HW1 6415   9.693   8.082   5.150
 1506SOL    HW2 6416   9.598   7.982   5.213
 1507SOL     OW 6417   6.698   7.909   2.243
 1507SOL    HW1 6418   6.611   7.903   2.281
 1507SOL    HW2 6419   6.757   7.903   2.318
 1508SOL     OW 6420   0.160   4.160   6.870
 1508SOL    HW1 6421   0.162   4.069   6.899
 1508SOL    HW2 6422   0.146   4.154   6.775
 1509SOL     OW 6423  10.074   0.767   8.313
 1509SOL    HW1 6424  10.027   0.684   8.312
 1509SOL    HW2 6425  10.013   0.829   8.272
 1510SOL     OW 6426   1.785  10.782  12.080
 1510SOL    HW1 6427   1.705  10.825  12.109
 1510SOL    HW2 6428   1.851  10.851  12.082
 1511SOL     OW 6429  12.063   8.428   0.104
 1511SOL    HW1 6430  12.054   8.449   0.197
 1511SOL    HW2 6431  12.005   8.353   0.090
 1512SOL     OW 6432  11.429  11.207   3.250
 1512SOL    HW1 6433  11.354  11.177   3.198
 1512SOL    HW2 6434  11.502  11.154   3.218
 1513SOL     OW 6435   1.162   7.259   9.587
 1513SOL    HW1 6436   1.125   7.282   9.502
 1513SOL    HW2 6437   1.256   7.273   9.577
 1514SOL     OW 6438  10.012   2.715   5.178
 1514SOL    HW1 6439   9.917   2.729   5.185
 1514SOL    HW2 6440  10.046   2.798   5.143
 1515SOL     OW 6441   4.876  14.548   5.394
 1515SOL    HW1 6442   4.859  14.543   5.488
 1515SOL    HW2 6443   4.801  14.597   5.359
 1516SOL     OW 6444   2.320   5.800  13.501
 1516SOL    HW1 6445   2.293   5.776  13.412
 1516SOL    HW2 6446   2.242   5.783  13.554
 1517SOL     OW 6447   4.100   7.119  13.571
 1517SOL    HW1 6448   4.033   7.139  13.636
 1517SOL    HW2 6449   4.182   7.138  13.615
 1518SOL     OW 6450   8.813  11.776  12.971
 1518SOL    HW1 6451   8.819  11.774  12.875
 1518SOL    HW2 6452   8.877  11.711  13.000
 1519SOL     OW 6453   5.332  10.472   1.821
 1519SOL    HW1 6454   5.340  10.513   1.907
 1519SOL    HW2 6455   5.285  10.535   1.768
 1520SOL     OW 6456  13.728  11.997   5.825
 1520SOL    HW1 6457  13.639  12.026   5.804
 1520SOL    HW2 6458  13.780  12.078   5.827
 1521SOL     OW 6459   6.806   9.927  10.703
 1521SOL    HW1 6460   6.853  10.009  10.720
 1521SOL    HW2 6461   6.823   9.874  10.781
 1522SOL     OW 6462   4.930   2.448   6.639
 1522SOL    HW1 6463   4.952   2.538   6.664
 1522SOL    HW2 6464   5.002   2.395   6.674
 1523SOL     OW 6465   6.126  10.647   7.537
 1523SOL    HW1 6466   6.136  10.563   7.583
 1523SOL    HW2 6467   6.096  10.622   7.450
 1524SOL     OW 6468   6.692  13.710  13.617
 1524SOL    HW1 6469   6.715  13.637  13.560
 1524SOL    HW2 6470   6.623  13.756  13.570
 1525SOL     OW 6471   9.745  11.813  13.325
 1525SOL    HW1 6472   9.652  11.827  13.309
 1525SOL    HW2 6473   9.754  11.718  13.335
 1526SOL     OW 6474  12.499   0.849  11.318
 1526SOL    HW1 6475  12.500   0.942  11.296
 1526SOL    HW2 6476  12.410   0.834  11.351
 1527SOL     OW 6477  10.064   5.541   9.907
 1527SOL    HW1 6478  10.134   5.597   9.942
 1527SOL    HW2 6479  10.110   5.463   9.876
 1528SOL     OW 6480  10.528   6.912   5.866
 1528SOL    HW1 6481  10.579   6.911   5.784
 1528SOL    HW2 6482  10.494   7.001   5.872
 1529SOL     OW 6483  11.739   3.001  11.064
 1529SOL    HW1 6484  11.656   2.957  11.045
 1529SOL    HW2 6485  11.716   3.069  11.127
 1530SOL     OW 6486  10.171   9.497   6.057
 1530SOL    HW1 6487  10.146   9.589   6.049
 1530SOL    HW2 6488  10.124   9.466   6.134
 1531SOL     OW 6489   7.182   8.760   6.557
 1531SOL    HW1 6490   7.224   8.778   6.472
 1531SOL    HW2 6491   7.094   8.730   6.534
 1532SOL     OW 6492  14.090   6.493   1.701
 1532SOL    HW1 6493  14.057   6.570   1.748
 1532SOL    HW2 6494  14.141   6.529   1.629
 1533SOL     OW 6495  12.506   6.698  14.013
 1533SOL    HW1 6496  12.541   6.764  14.073
 1533SOL    HW2 6497  12.515   6.738  13.926
 1534SOL     OW 6498   2.177   4.630   9.886
 1534SOL    HW1 6499   2.266   4.604   9.908
 1534SOL    HW2 6500   2.182   4.661   9.796
 1535SOL     OW 6501  11.010  11.566  12.724
 1535SOL    HW1 6502  11.062  11.646  12.724
 1535SOL    HW2 6503  11.048  11.513  12.794
 1536SOL     OW 6504  10.523   4.108   7.215
 1536SOL    HW1 6505  10.571   4.107   7.297
 1536SOL    HW2 6506  10.437   4.144   7.237
 1537SOL     OW 6507   8.792   1.120   3.595
 1537SOL    HW1 6508   8.862   1.131   3.659
 1537SOL    HW2 6509   8.748   1.205   3.592
 1538SOL     OW 6510  12.524   5.022   4.167
 1538SOL    HW1 6511  12.461   5.090   4.144
 1538SOL    HW2 6512  12.472   4.942   4.173
 1539SOL     OW 6513   1.561   0.169   5.284
 1539SOL    HW1 6514   1.602   0.255   5.278
 1539SOL    HW2 6515   1.633   0.111   5.310
 1540SOL     OW 6516  10.591   5.091   2.931
 1540SOL    HW1 6517  10.639   5.174   2.933
 1540SOL    HW2 6518  10.529   5.101   2.859
 1541SOL     OW 6519   3.795  12.929   3.592
 1541SOL    HW1 6520   3.881  12.969   3.585
 1541SOL    HW2 6521   3.741  12.994   3.637
 1542SOL     OW 6522  14.405   4.065   0.681
 1542SOL    HW1 6523  14.328   4.056   0.624
 1542SOL    HW2 6524  14.387   4.143   0.734
 1543SOL     OW 6525   2.798   6.084   8.561
 1543SOL    HW1 6526   2.790   6.176   8.586
 1543SOL    HW2 6527   2.716   6.044   8.592
 1544SOL     OW 6528   1.313   7.399   0.003
 1544SOL    HW1 6529   1.284   7.490  14.859
 1544SOL    HW2 6530   1.369   7.382  14.795
 1545SOL     OW 6531   8.232   2.749   9.266
 1545SOL    HW1 6532   8.320   2.784   9.250
 1545SOL    HW2 6533   8.210   2.779   9.354
 1546SOL     OW 6534   4.901   4.112   7.463
 1546SOL    HW1 6535   4.916   4.086   7.372
 1546SOL    HW2 6536   4.846   4.042   7.499
 1547SOL     OW 6537   2.359   9.084  11.099
 1547SOL    HW1 6538   2.379   9.002  11.055
 1547SOL    HW2 6539   2.443   9.113  11.136
 1548SOL     OW 6540   0.811   3.699   6.402
 1548SOL    HW1 6541   0.743   3.659   6.456
 1548SOL    HW2 6542   0.804   3.793   6.420
 1549SOL     OW 6543   9.030  12.190   2.077
 1549SOL    HW1 6544   9.016  12.279   2.044
 1549SOL    HW2 6545   9.118  12.166   2.046
 1550SOL     OW 6546   5.926   3.523   9.791
 1550SOL    HW1 6547   5.873   3.600   9.766
 1550SOL    HW2 6548   5.861   3.459   9.821
 1551SOL     OW 6549   8.901  14.705  13.311
 1551SOL    HW1 6550   8.892  14.612  13.292
 1551SOL    HW2 6551   8.870  14.749  13.232
 1552SOL     OW 6552   4.412   8.453   6.900
 1552SOL    HW1 6553   4.465   8.456   6.979
 1552SOL    HW2 6554   4.471   8.485   6.831
 1553SOL     OW 6555   1.275   0.715  13.643
 1553SOL    HW1 6556   1.245   0.666  13.720
 1553SOL    HW2 6557   1.216   0.689  13.573
 1554SOL     OW 6558   6.178   6.193  10.254
 1554SOL    HW1 6559   6.162   6.152  10.338
 1554SOL    HW2 6560   6.091   6.201  10.214
 1555SOL     OW 6561  12.856   7.373   5.689
 1555SOL    HW1 6562  12.790   7.428   5.647
 1555SOL    HW2 6563  12.936   7.391   5.640
 1556SOL     OW 6564   2.323   7.029  10.409
 1556SOL    HW1 6565   2.339   7.075  10.326
 1556SOL    HW2 6566   2.279   6.948  10.384
 1557SOL     OW 6567  11.332  10.296  12.814
 1557SOL    HW1 6568  11.295  10.243  12.744
 1557SOL    HW2 6569  11.392  10.238  12.860
 1558SOL     OW 6570  10.751   6.967   7.144
 1558SOL    HW1 6571  10.792   6.900   7.198
 1558SOL    HW2 6572  10.792   6.957   7.058
 1559SOL     OW 6573  10.097   4.654  10.383
 1559SOL    HW1 6574  10.132   4.658  10.294
 1559SOL    HW2 6575  10.003   4.645  10.372
 1560SOL     OW 6576   6.563  11.588   2.412
 1560SOL    HW1 6577   6.604  11.615   2.494
 1560SOL    HW2 6578   6.581  11.660   2.351
 1561SOL     OW 6579  14.498   6.250  12.909
 1561SOL    HW1 6580  14.576   6.260  12.964
 1561SOL    HW2 6581  14.531   6.219  12.825
 1562SOL     OW 6582   5.855  10.846  12.107
 1562SOL    HW1 6583   5.945  10.852  12.076
 1562SOL    HW2 6584   5.857  10.777  12.174
 1563SOL     OW 6585   9.695  12.142   2.778
 1563SOL    HW1 6586   9.633  12.112   2.712
 1563SOL    HW2 6587   9.745  12.063   2.802
 1564SOL     OW 6588   4.941  12.248   4.859
 1564SOL    HW1 6589   4.950  12.231   4.953
 1564SOL    HW2 6590   5.029  12.234   4.824
 1565SOL     OW 6591   1.581   9.666   9.661
 1565SOL    HW1 6592   1.554   9.663   9.569
 1565SOL    HW2 6593   1.670   9.700   9.659
 1566SOL     OW 6594   5.712   0.310   3.202
 1566SOL    HW1 6595   5.766   0.351   3.270
 1566SOL    HW2 6596   5.765   0.236   3.172
 1567SOL     OW 6597   9.875   0.939   8.245
 1567SOL    HW1 6598   9.782   0.948   8.268
 1567SOL    HW2 6599   9.913   1.025   8.263
 1568SOL     OW 6600  10.829   4.865   5.294
 1568SOL    HW1 6601  10.921   4.843   5.280
 1568SOL    HW2 6602  10.830   4.924   5.370
 1569SOL     OW 6603  10.788   5.556   8.340
 1569SOL    HW1 6604  10.851   5.521   8.277
 1569SOL    HW2 6605  10.802   5.503   8.419
 1570SOL     OW 6606  11.349  11.875  10.088
 1570SOL    HW1 6607  11.295  11.890  10.165
 1570SOL    HW2 6608  11.328  11.948  10.029
 1571SOL     OW 6609   0.916   5.077   4.775
 1571SOL    HW1 6610   0.972   5.131   4.831
 1571SOL    HW2 6611   0.976   5.017   4.730
 1572SOL     OW 6612  14.338   1.359  10.542
 1572SOL    HW1 6613  14.386   1.288  10.500
 1572SOL    HW2 6614  14.253   1.322  10.562
 1573SOL     OW 6615  14.270   8.223   4.513
 1573SOL    HW1 6616  14.260   8.128   4.512
 1573SOL    HW2 6617  14.280   8.247   4.420
 1574SOL     OW 6618   8.079   7.067   3.249
 1574SOL    HW1 6619   8.173   7.078   3.264
 1574SOL    HW2 6620   8.073   7.004   3.178
 1575SOL     OW 6621  13.556  13.462  12.428
 1575SOL    HW1 6622  13.607  13.382  12.440
 1575SOL    HW2 6623  13.587  13.499  12.345
 1576SOL     OW 6624   0.314  13.068  14.427
 1576SOL    HW1 6625   0.254  13.108  14.364
 1576SOL    HW2 6626   0.325  13.135  14.495
 1577SOL     OW 6627   2.238  14.003   5.747
 1577SOL    HW1 6628   2.279  13.927   5.787
 1577SOL    HW2 6629   2.175  14.034   5.811
 1578SOL     OW 6630   4.178  12.636   0.014
 1578SOL    HW1 6631   4.099  12.688  14.865
 1578SOL    HW2 6632   4.247  12.702   0.024
 1579SOL     OW 6633   8.432  10.449   0.112
 1579SOL    HW1 6634   8.448  10.538   0.083
 1579SOL    HW2 6635   8.446  10.395   0.034
 1580SOL     OW 6636  13.133   3.992   1.336
 1580SOL    HW1 6637  13.189   4.058   1.296
 1580SOL    HW2 6638  13.193   3.926   1.370
 1581SOL     OW 6639   0.840   9.288   5.142
 1581SOL    HW1 6640   0.748   9.264   5.145
 1581SOL    HW2 6641   0.857   9.307   5.050
 1582SOL     OW 6642  13.749   3.651   6.185
 1582SOL    HW1 6643  13.842   3.640   6.165
 1582SOL    HW2 6644  13.708   3.670   6.101
 1583SOL     OW 6645  10.955   8.426   7.575
 1583SOL    HW1 6646  11.006   8.346   7.584
 1583SOL    HW2 6647  10.981   8.480   7.650
 1584SOL     OW 6648   3.760  11.760   1.085
 1584SOL    HW1 6649   3.716  11.752   1.000
 1584SOL    HW2 6650   3.841  11.710   1.074
 1585SOL     OW 6651  14.005  12.094   6.134
 1585SOL    HW1 6652  14.017  11.999   6.124
 1585SOL    HW2 6653  13.915  12.103   6.165
 1586SOL     OW 6654   6.076   7.873   5.529
 1586SOL    HW1 6655   6.052   7.820   5.605
 1586SOL    HW2 6656   6.009   7.941   5.524
 1587SOL     OW 6657   1.967   5.212   7.880
 1587SOL    HW1 6658   2.016   5.148   7.829
 1587SOL    HW2 6659   1.990   5.192   7.971
 1588SOL     OW 6660  10.024  10.348   9.933
 1588SOL    HW1 6661  10.074  10.310   9.861
 1588SOL    HW2 6662  10.085  10.406   9.977
 1589SOL     OW 6663   8.207   1.582   4.653
 1589SOL    HW1 6664   8.135   1.645   4.651
 1589SOL    HW2 6665   8.278   1.628   4.698
 1590SOL     OW 6666   8.638  13.463   5.094
 1590SOL    HW1 6667   8.561  13.431   5.140
 1590SOL    HW2 6668   8.712  13.439   5.150
 1591SOL     OW 6669   2.892  11.264  12.949
 1591SOL    HW1 6670   2.850  11.200  13.006
 1591SOL    HW2 6671   2.904  11.342  13.005
 1592SOL     OW 6672   9.638  12.651  12.830
 1592SOL    HW1 6673   9.549  12.620  12.846
 1592SOL    HW2 6674   9.637  12.683  12.740
 1593SOL     OW 6675   3.987  12.062   4.846
 1593SOL    HW1 6676   4.027  12.061   4.759
 1593SOL    HW2 6677   4.045  12.006   4.899
 1594SOL     OW 6678   7.611   5.549  14.324
 1594SOL    HW1 6679   7.624   5.454  14.324
 1594SOL    HW2 6680   7.700   5.584  14.325
 1595SOL     OW 6681   0.494  12.939   4.187
 1595SOL    HW1 6682   0.500  12.910   4.278
 1595SOL    HW2 6683   0.498  12.858   4.136
 1596SOL     OW 6684  12.104  13.520  10.908
 1596SOL    HW1 6685  12.040  13.529  10.838
 1596SOL    HW2 6686  12.070  13.574  10.979
 1597SOL     OW 6687   3.930  10.026   7.480
 1597SOL    HW1 6688   3.962  10.020   7.570
 1597SOL    HW2 6689   3.932   9.936   7.448
 1598SOL     OW 6690  14.196  14.416   9.268
 1598SOL    HW1 6691  14.103  14.440   9.271
 1598SOL    HW2 6692  14.203  14.340   9.326
 1599SOL     OW 6693   1.792   3.125   8.976
 1599SOL    HW1 6694   1.884   3.149   8.966
 1599SOL    HW2 6695   1.745   3.208   8.972
 1600SOL     OW 6696  12.704  13.682   1.185
 1600SOL    HW1 6697  12.694  13.777   1.183
 1600SOL    HW2 6698  12.796  13.667   1.163
 1601SOL     OW 6699   7.818   3.074  14.550
 1601SOL    HW1 6700   7.811   3.125  14.469
 1601SOL    HW2 6701   7.821   2.983  14.522
 1602SOL     OW 6702   1.893  11.082   1.976
 1602SOL    HW1 6703   1.961  11.060   1.913
 1602SOL    HW2 6704   1.873  11.174   1.959
 1603SOL     OW 6705  13.030   7.765   4.137
 1603SOL    HW1 6706  13.109   7.791   4.090
 1603SOL    HW2 6707  12.958   7.794   4.081
 1604SOL     OW 6708   5.883   1.380   5.228
 1604SOL    HW1 6709   5.882   1.423   5.314
 1604SOL    HW2 6710   5.869   1.287   5.248
 1605SOL     OW 6711  10.301   0.765  12.516
 1605SOL    HW1 6712  10.275   0.689  12.569
 1605SOL    HW2 6713  10.287   0.737  12.426
 1606SOL     OW 6714  13.672  14.266  10.069
 1606SOL    HW1 6715  13.648  14.204  10.000
 1606SOL    HW2 6716  13.663  14.352  10.028
 1607SOL     OW 6717  14.402   4.586   6.220
 1607SOL    HW1 6718  14.326   4.630   6.180
 1607SOL    HW2 6719  14.477   4.619   6.171
 1608SOL     OW 6720   7.830  10.610  10.007
 1608SOL    HW1 6721   7.833  10.706  10.013
 1608SOL    HW2 6722   7.892  10.589   9.937
 1609SOL     OW 6723  13.107   3.347  10.921
 1609SOL    HW1 6724  13.177   3.390  10.971
 1609SOL    HW2 6725  13.126   3.254  10.930
 1610SOL     OW 6726   1.371   2.590  14.315
 1610SOL    HW1 6727   1.319   2.661  14.352
 1610SOL    HW2 6728   1.315   2.551  14.248
 1611SOL     OW 6729  11.422   0.618   5.962
 1611SOL    HW1 6730  11.402   0.710   5.946
 1611SOL    HW2 6731  11.383   0.600   6.048
 1612SOL     OW 6732   0.392   0.078   0.336
 1612SOL    HW1 6733   0.429  14.858   0.336
 1612SOL    HW2 6734   0.350   0.087   0.422
 1613SOL     OW 6735   8.195   2.493   3.753
 1613SOL    HW1 6736   8.239   2.410   3.735
 1613SOL    HW2 6737   8.188   2.496   3.849
 1614SOL     OW 6738   8.861   2.770  10.217
 1614SOL    HW1 6739   8.767   2.768  10.232
 1614SOL    HW2 6740   8.900   2.764  10.304
 1615SOL     OW 6741  13.217   5.709   0.156
 1615SOL    HW1 6742  13.309   5.732   0.142
 1615SOL    HW2 6743  13.194   5.749   0.240
 1616SOL     OW 6744  10.704   2.018   5.913
 1616SOL    HW1 6745  10.738   2.100   5.877
 1616SOL    HW2 6746  10.619   2.040   5.949
 1617SOL     OW 6747   4.709   6.297   3.382
 1617SOL    HW1 6748   4.637   6.233   3.374
 1617SOL    HW2 6749   4.665   6.381   3.396
 1618SOL     OW 6750  12.755  14.214   6.234
 1618SOL    HW1 6751  12.788  14.302   6.254
 1618SOL    HW2 6752  12.693  14.196   6.305
 1619SOL     OW 6753  12.245   3.418  10.212
 1619SOL    HW1 6754  12.299   3.407  10.291
 1619SOL    HW2 6755  12.157   3.439  10.246
 1620SOL     OW 6756  10.194   8.218   2.487
 1620SOL    HW1 6757  10.185   8.294   2.429
 1620SOL    HW2 6758  10.131   8.155   2.452
 1621SOL     OW 6759  11.475  14.496   8.536
 1621SOL    HW1 6760  11.490  14.471   8.627
 1621SOL    HW2 6761  11.560  14.485   8.494
 1622SOL     OW 6762   0.548   1.113   6.085
 1622SOL    HW1 6763   0.509   1.116   6.173
 1622SOL    HW2 6764   0.641   1.128   6.099
 1623SOL     OW 6765   1.427   2.166   2.771
 1623SOL    HW1 6766   1.440   2.074   2.749
 1623SOL    HW2 6767   1.419   2.167   2.867
 1624SOL     OW 6768  11.062  11.854  13.504
 1624SOL    HW1 6769  11.108  11.794  13.444
 1624SOL    HW2 6770  11.090  11.825  13.592
 1625SOL     OW 6771  12.563   7.224  14.415
 1625SOL    HW1 6772  12.504   7.293  14.445
 1625SOL    HW2 6773  12.647   7.268  14.402
 1626SOL     OW 6774   3.493   1.307   4.988
 1626SOL    HW1 6775   3.522   1.398   4.989
 1626SOL    HW2 6776   3.551   1.263   5.051
 1627SOL     OW 6777   3.087  12.396   6.441
 1627SOL    HW1 6778   3.136  12.453   6.500
 1627SOL    HW2 6779   3.076  12.314   6.489
 1628SOL     OW 6780   7.192   0.394  10.767
 1628SOL    HW1 6781   7.264   0.332  10.779
 1628SOL    HW2 6782   7.232   0.480  10.778
 1629SOL     OW 6783  10.234   2.159   9.040
 1629SOL    HW1 6784  10.172   2.163   8.968
 1629SOL    HW2 6785  10.190   2.204   9.112
 1630SOL     OW 6786  11.876   4.486   4.861
 1630SOL    HW1 6787  11.900   4.477   4.954
 1630SOL    HW2 6788  11.807   4.422   4.848
 1631SOL     OW 6789  11.377   0.428  13.937
 1631SOL    HW1 6790  11.327   0.387  14.007
 1631SOL    HW2 6791  11.465   0.438  13.972
 1632SOL     OW 6792   7.629  11.613   0.618
 1632SOL    HW1 6793   7.544  11.657   0.629
 1632SOL    HW2 6794   7.671  11.621   0.703
 1633SOL     OW 6795   8.881   4.459   2.031
 1633SOL    HW1 6796   8.814   4.414   1.979
 1633SOL    HW2 6797   8.884   4.548   1.994
 1634SOL     OW 6798   2.203  11.417   5.778
 1634SOL    HW1 6799   2.223  11.510   5.775
 1634SOL    HW2 6800   2.144  11.407   5.853
 1635SOL     OW 6801  10.035  14.826   7.303
 1635SOL    HW1 6802  10.063  14.766   7.234
 1635SOL    HW2 6803  10.013   0.039   7.256
 1636SOL     OW 6804   8.961   8.665   8.589
 1636SOL    HW1 6805   8.887   8.626   8.542
 1636SOL    HW2 6806   8.921   8.701   8.669
 1637SOL     OW 6807  10.979   7.262   1.384
 1637SOL    HW1 6808  10.938   7.340   1.422
 1637SOL    HW2 6809  10.960   7.192   1.448
 1638SOL     OW 6810  12.373  10.242  11.815
 1638SOL    HW1 6811  12.390  10.271  11.725
 1638SOL    HW2 6812  12.278  10.241  11.823
 1639SOL     OW 6813  12.102   9.128   8.142
 1639SOL    HW1 6814  12.104   9.221   8.121
 1639SOL    HW2 6815  12.092   9.125   8.237
 1640SOL     OW 6816   4.056   9.518   7.066
 1640SOL    HW1 6817   4.122   9.526   6.997
 1640SOL    HW2 6818   4.101   9.544   7.146
 1641SOL     OW 6819   9.997   1.385   8.892
 1641SOL    HW1 6820  10.027   1.475   8.904
 1641SOL    HW2 6821  10.066   1.343   8.842
 1642SOL     OW 6822   0.201   9.316   2.702
 1642SOL    HW1 6823   0.290   9.336   2.729
 1642SOL    HW2 6824   0.175   9.392   2.650
 1643SOL     OW 6825   6.358   8.991   1.822
 1643SOL    HW1 6826   6.433   8.981   1.881
 1643SOL    HW2 6827   6.318   8.903   1.820
 1644SOL     OW 6828   3.523  14.839  13.619
 1644SOL    HW1 6829   3.540   0.019  13.537
 1644SOL    HW2 6830   3.484   0.037  13.677
 1645SOL     OW 6831   8.470  12.531   6.278
 1645SOL    HW1 6832   8.386  12.527   6.233
 1645SOL    HW2 6833   8.535  12.522   6.208
 1646SOL     OW 6834   2.315  13.042  11.952
 1646SOL    HW1 6835   2.233  13.088  11.936
 1646SOL    HW2 6836   2.297  12.986  12.028
 1647SOL     OW 6837  13.226   7.403  12.339
 1647SOL    HW1 6838  13.190   7.316  12.325
 1647SOL    HW2 6839  13.299   7.390  12.399
 1648SOL     OW 6840   7.785   3.047   2.860
 1648SOL    HW1 6841   7.848   3.039   2.931
 1648SOL    HW2 6842   7.701   3.060   2.904
 1649SOL     OW 6843  13.901  11.770   3.746
 1649SOL    HW1 6844  13.952  11.838   3.702
 1649SOL    HW2 6845  13.904  11.794   3.838
 1650SOL     OW 6846   4.234  12.625   6.872
 1650SOL    HW1 6847   4.308  12.568   6.853
 1650SOL    HW2 6848   4.156  12.571   6.857
 1651SOL     OW 6849   8.272  11.350   3.724
 1651SOL    HW1 6850   8.250  11.384   3.637
 1651SOL    HW2 6851   8.246  11.419   3.785
 1652SOL     OW 6852  10.104  13.335   7.351
 1652SOL    HW1 6853  10.104  13.284   7.432
 1652SOL    HW2 6854  10.155  13.282   7.290
 1653SOL     OW 6855  10.623  12.257   1.351
 1653SOL    HW1 6856  10.615  12.326   1.416
 1653SOL    HW2 6857  10.538  12.257   1.305
 1654SOL     OW 6858   8.129   7.340  13.127
 1654SOL    HW1 6859   8.113   7.251  13.096
 1654SOL    HW2 6860   8.223   7.342  13.146
 1655SOL     OW 6861  13.718  12.220   2.033
 1655SOL    HW1 6862  13.774  12.256   1.964
 1655SOL    HW2 6863  13.684  12.297   2.078
 1656SOL     OW 6864   9.752   2.723   2.280
 1656SOL    HW1 6865   9.771   2.648   2.337
 1656SOL    HW2 6866   9.662   2.746   2.300
 1657SOL     OW 6867   0.440  13.879   5.711
 1657SOL    HW1 6868   0.470  13.891   5.801
 1657SOL    HW2 6869   0.451  13.965   5.671
 1658SOL     OW 6870   6.751  10.439   9.132
 1658SOL    HW1 6871   6.763  10.423   9.038
 1658SOL    HW2 6872   6.667  10.397   9.153
 1659SOL     OW 6873  13.792   8.811   1.742
 1659SOL    HW1 6874  13.885   8.794   1.761
 1659SOL    HW2 6875  13.775   8.897   1.781
 1660SOL     OW 6876  11.153   6.256  12.232
 1660SOL    HW1 6877  11.132   6.349  12.247
 1660SOL    HW2 6878  11.181   6.254  12.140
 1661SOL     OW 6879   2.970  13.296   0.255
 1661SOL    HW1 6880   2.965  13.357   0.181
 1661SOL    HW2 6881   2.978  13.352   0.332
 1662SOL     OW 6882   0.993   8.020  13.735
 1662SOL    HW1 6883   1.033   8.106  13.726
 1662SOL    HW2 6884   0.954   8.003  13.650
 1663SOL     OW 6885   0.927   6.261   0.768
 1663SOL    HW1 6886   0.887   6.180   0.802
 1663SOL    HW2 6887   0.981   6.231   0.695
 1664SOL     OW 6888   1.344   4.089   1.665
 1664SOL    HW1 6889   1.432   4.124   1.650
 1664SOL    HW2 6890   1.358   3.995   1.679
 1665SOL     OW 6891  11.078   0.304  12.608
 1665SOL    HW1 6892  10.989   0.338  12.620
 1665SOL    HW2 6893  11.068   0.209  12.611
 1666SOL     OW 6894   1.437   5.912   7.732
 1666SOL    HW1 6895   1.436   5.962   7.814
 1666SOL    HW2 6896   1.527   5.881   7.725
 1667SOL     OW 6897   9.227   2.255  13.914
 1667SOL    HW1 6898   9.299   2.209  13.957
 1667SOL    HW2 6899   9.190   2.311  13.982
 1668SOL     OW 6900   6.410  14.467  12.800
 1668SOL    HW1 6901   6.315  14.461  12.814
 1668SOL    HW2 6902   6.422  14.448  12.707
 1669SOL     OW 6903   4.222   0.166   8.859
 1669SOL    HW1 6904   4.223   0.256   8.825
 1669SOL    HW2 6905   4.161   0.168   8.932
 1670SOL     OW 6906   1.619   7.324   5.864
 1670SOL    HW1 6907   1.683   7.254   5.871
 1670SOL    HW2 6908   1.657   7.397   5.913
 1671SOL     OW 6909   8.802   2.482   0.845
 1671SOL    HW1 6910   8.825   2.449   0.758
 1671SOL    HW2 6911   8.707   2.467   0.851
 1672SOL     OW 6912  12.094   1.718   3.435
 1672SOL    HW1 6913  12.184   1.732   3.467
 1672SOL    HW2 6914  12.050   1.801   3.450
 1673SOL     OW 6915   8.229  11.175  12.800
 1673SOL    HW1 6916   8.183  11.220  12.870
 1673SOL    HW2 6917   8.159  11.140  12.744
 1674SOL     OW 6918  12.917   5.268   0.840
 1674SOL    HW1 6919  12.876   5.230   0.762
 1674SOL    HW2 6920  12.911   5.363   0.826
 1675SOL     OW 6921   3.235   5.335   6.349
 1675SOL    HW1 6922   3.222   5.393   6.274
 1675SOL    HW2 6923   3.231   5.394   6.425
 1676SOL     OW 6924   7.483   2.609   1.630
 1676SOL    HW1 6925   7.437   2.691   1.611
 1676SOL    HW2 6926   7.436   2.572   1.705
 1677SOL     OW 6927   1.903   5.507  12.436
 1677SOL    HW1 6928   1.960   5.515  12.359
 1677SOL    HW2 6929   1.962   5.482  12.507
 1678SOL     OW 6930  12.934  13.158   3.119
 1678SOL    HW1 6931  12.843  13.129   3.116
 1678SOL    HW2 6932  12.977  13.108   3.050
 1679SOL     OW 6933   5.952   3.737   4.027
 1679SOL    HW1 6934   6.037   3.766   4.062
 1679SOL    HW2 6935   5.932   3.800   3.958
 1680SOL     OW 6936   1.994   9.791   3.544
 1680SOL    HW1 6937   1.937   9.818   3.472
 1680SOL    HW2 6938   1.933   9.759   3.611
 1681SOL     OW 6939   0.961   1.774   3.600
 1681SOL    HW1 6940   0.979   1.859   3.559
 1681SOL    HW2 6941   1.048   1.737   3.616
 1682SOL     OW 6942   3.525   1.829  12.523
 1682SOL    HW1 6943   3.454   1.885  12.493
 1682SOL    HW2 6944   3.485   1.772  12.589
 1683SOL     OW 6945   5.234   1.427   6.365
 1683SOL    HW1 6946   5.262   1.353   6.418
 1683SOL    HW2 6947   5.138   1.426   6.369
 1684SOL     OW 6948  14.021   1.143   0.962
 1684SOL    HW1 6949  14.089   1.200   0.999
 1684SOL    HW2 6950  14.051   1.124   0.873
 1685SOL     OW 6951   7.966  11.421   2.003
 1685SOL    HW1 6952   8.002  11.509   2.003
 1685SOL    HW2 6953   8.035  11.366   2.039
 1686SOL     OW 6954   0.641   7.653   3.010
 1686SOL    HW1 6955   0.572   7.616   3.065
 1686SOL    HW2 6956   0.716   7.595   3.023
 1687SOL     OW 6957   1.808   2.411   6.531
 1687SOL    HW1 6958   1.826   2.479   6.467
 1687SOL    HW2 6959   1.889   2.361   6.537
 1688SOL     OW 6960   9.406   6.441  13.034
 1688SOL    HW1 6961   9.420   6.374  13.101
 1688SOL    HW2 6962   9.461   6.412  12.961
 1689SOL     OW 6963  11.359   7.604   0.114
 1689SOL    HW1 6964  11.294   7.671   0.092
 1689SOL    HW2 6965  11.314   7.547   0.177
 1690SOL     OW 6966  11.356  10.402   8.140
 1690SOL    HW1 6967  11.355  10.496   8.157
 1690SOL    HW2 6968  11.366  10.362   8.226
 1691SOL     OW 6969   0.304  12.087   3.760
 1691SOL    HW1 6970   0.287  12.146   3.833
 1691SOL    HW2 6971   0.400  12.085   3.752
 1692SOL     OW 6972   9.516  11.335   3.853
 1692SOL    HW1 6973   9.552  11.422   3.832
 1692SOL    HW2 6974   9.537  11.282   3.776
 1693SOL     OW 6975   1.834  12.149  10.821
 1693SOL    HW1 6976   1.744  12.136  10.849
 1693SOL    HW2 6977   1.847  12.244  10.825
 1694SOL     OW 6978   4.218  12.282  11.731
 1694SOL    HW1 6979   4.254  12.247  11.650
 1694SOL    HW2 6980   4.232  12.377  11.724
 1695SOL     OW 6981  11.587   4.194   7.287
 1695SOL    HW1 6982  11.625   4.128   7.230
 1695SOL    HW2 6983  11.518   4.235   7.235
 1696SOL     OW 6984  14.091   9.014   8.858
 1696SOL    HW1 6985  14.110   9.099   8.896
 1696SOL    HW2 6986  14.159   9.002   8.791
 1697SOL     OW 6987  12.821   2.116   2.447
 1697SOL    HW1 6988  12.898   2.078   2.489
 1697SOL    HW2 6989  12.747   2.076   2.493
 1698SOL     OW 6990   3.518   4.924   7.931
 1698SOL    HW1 6991   3.517   4.973   8.014
 1698SOL    HW2 6992   3.588   4.965   7.881
 1699SOL     OW 6993  13.142   6.547   8.868
 1699SOL    HW1 6994  13.058   6.556   8.913
 1699SOL    HW2 6995  13.173   6.637   8.856
 1700SOL     OW 6996   6.822   8.758   5.005
 1700SOL    HW1 6997   6.729   8.784   5.003
 1700SOL    HW2 6998   6.859   8.808   5.077
 1701SOL     OW 6999  10.721   0.422   1.617
 1701SOL    HW1 7000  10.629   0.415   1.643
 1701SOL    HW2 7001  10.734   0.351   1.555
 1702SOL     OW 7002   3.159  13.943   7.897
 1702SOL    HW1 7003   3.230  14.007   7.896
 1702SOL    HW2 7004   3.102  13.971   7.968
 1703SOL     OW 7005   1.439  13.429   4.574
 1703SOL    HW1 7006   1.514  13.385   4.616
 1703SOL    HW2 7007   1.466  13.439   4.482
 1704SOL     OW 7008  11.004   4.692  13.350
 1704SOL    HW1 7009  11.091   4.731  13.349
 1704SOL    HW2 7010  10.971   4.705  13.261
 1705SOL     OW 7011  10.092   4.417   0.918
 1705SOL    HW1 7012  10.143   4.338   0.898
 1705SOL    HW2 7013  10.074   4.456   0.832
 1706SOL     OW 7014   4.924   2.917   6.027
 1706SOL    HW1 7015   4.840   2.877   6.006
 1706SOL    HW2 7016   4.978   2.844   6.058
 1707SOL     OW 7017  12.071   6.963  10.318
 1707SOL    HW1 7018  12.109   7.022  10.254
 1707SOL    HW2 7019  12.141   6.949  10.382
 1708SOL     OW 7020   5.524   6.444   6.852
 1708SOL    HW1 7021   5.471   6.389   6.910
 1708SOL    HW2 7022   5.603   6.393   6.836
 1709SOL     OW 7023   6.459  12.304  11.262
 1709SOL    HW1 7024   6.522  12.369  11.231
 1709SOL    HW2 7025   6.512  12.239  11.308
 1710SOL     OW 7026   2.472  10.747  13.542
 1710SOL    HW1 7027   2.558  10.788  13.537
 1710SOL    HW2 7028   2.457  10.710  13.455
 1711SOL     OW 7029   0.080   9.920   3.731
 1711SOL    HW1 7030  14.864   9.959   3.707
 1711SOL    HW2 7031   0.096   9.853   3.663
 1712SOL     OW 7032   5.195   7.985   4.563
 1712SOL    HW1 7033   5.231   7.898   4.544
 1712SOL    HW2 7034   5.215   8.037   4.486
 1713SOL     OW 7035  12.542   1.176   3.372
 1713SOL    HW1 7036  12.614   1.238   3.371
 1713SOL    HW2 7037  12.463   1.230   3.364
 1714SOL     OW 7038   9.465   5.347  11.117
 1714SOL    HW1 7039   9.415   5.429  11.123
 1714SOL    HW2 7040   9.513   5.355  11.035
 1715SOL     OW 7041   6.167  10.649   5.513
 1715SOL    HW1 7042   6.224  10.602   5.574
 1715SOL    HW2 7043   6.223  10.666   5.437
 1716SOL     OW 7044   2.351  13.466  13.698
 1716SOL    HW1 7045   2.364  13.545  13.752
 1716SOL    HW2 7046   2.382  13.491  13.611
 1717SOL     OW 7047   2.978   1.102   6.985
 1717SOL    HW1 7048   2.961   1.099   6.891
 1717SOL    HW2 7049   3.059   1.153   6.994
 1718SOL     OW 7050  10.809   0.796   5.225
 1718SOL    HW1 7051  10.836   0.705   5.239
 1718SOL    HW2 7052  10.728   0.790   5.174
 1719SOL     OW 7053  12.782   9.315   0.052
 1719SOL    HW1 7054  12.871   9.332   0.022
 1719SOL    HW2 7055  12.790   9.240   0.111
 1720SOL     OW 7056   1.048   1.413   0.520
 1720SOL    HW1 7057   0.962   1.444   0.552
 1720SOL    HW2 7058   1.104   1.490   0.526
 1721SOL     OW 7059  14.742   8.350  10.524
 1721SOL    HW1 7060  14.797   8.428  10.522
 1721SOL    HW2 7061  14.800   8.281  10.554
 1722SOL     OW 7062   0.441  10.059   9.760
 1722SOL    HW1 7063   0.373  10.055   9.828
 1722SOL    HW2 7064   0.451   9.969   9.731
 1723SOL     OW 7065   2.401   1.623   3.420
 1723SOL    HW1 7066   2.403   1.705   3.469
 1723SOL    HW2 7067   2.462   1.637   3.347
 1724SOL     OW 7068   1.315  14.078   9.069
 1724SOL    HW1 7069   1.275  14.131   9.137
 1724SOL    HW2 7070   1.265  14.099   8.990
 1725SOL     OW 7071   4.701   4.444  13.581
 1725SOL    HW1 7072   4.766   4.440  13.651
 1725SOL    HW2 7073   4.744   4.404  13.505
 1726SOL     OW 7074   1.909  12.776  11.551
 1726SOL    HW1 7075   1.933  12.760  11.460
 1726SOL    HW2 7076   1.819  12.743  11.558
 1727SOL     OW 7077   9.607   2.739   1.142
 1727SOL    HW1 7078   9.682   2.683   1.161
 1727SOL    HW2 7079   9.531   2.683   1.155
 1728SOL     OW 7080   5.413   9.010   1.232
 1728SOL    HW1 7081   5.473   9.032   1.303
 1728SOL    HW2 7082   5.346   8.955   1.273
 1729SOL     OW 7083   3.929   5.870   1.466
 1729SOL    HW1 7084   3.881   5.881   1.383
 1729SOL    HW2 7085   4.018   5.899   1.446
 1730SOL     OW 7086   3.526   0.651  14.579
 1730SOL    HW1 7087   3.597   0.587  14.570
 1730SOL    HW2 7088   3.563   0.732  14.544
 1731SOL     OW 7089   8.474   6.774   9.026
 1731SOL    HW1 7090   8.402   6.825   9.061
 1731SOL    HW2 7091   8.552   6.824   9.048
 1732SOL     OW 7092  14.000  12.628   5.666
 1732SOL    HW1 7093  13.924  12.580   5.632
 1732SOL    HW2 7094  13.995  12.714   5.624
 1733SOL     OW 7095   8.928   4.123  13.267
 1733SOL    HW1 7096   8.965   4.211  13.263
 1733SOL    HW2 7097   8.891   4.109  13.180
 1734SOL     OW 7098   6.902   2.007   2.022
 1734SOL    HW1 7099   6.866   2.094   2.038
 1734SOL    HW2 7100   6.994   2.022   2.002
 1735SOL     OW 7101  13.972   5.614   4.107
 1735SOL    HW1 7102  14.037   5.565   4.156
 1735SOL    HW2 7103  14.021   5.685   4.066
 1736SOL     OW 7104   7.845  13.935   0.304
 1736SOL    HW1 7105   7.775  13.873   0.326
 1736SOL    HW2 7106   7.878  13.904   0.220
 1737SOL     OW 7107  13.798  12.619  13.908
 1737SOL    HW1 7108  13.886  12.648  13.883
 1737SOL    HW2 7109  13.772  12.560  13.837
 1738SOL     OW 7110  11.407   7.052  10.245
 1738SOL    HW1 7111  11.397   7.147  10.239
 1738SOL    HW2 7112  11.495   7.035  10.211
 1739SOL     OW 7113  12.429   0.935   3.447
 1739SOL    HW1 7114  12.507   0.882   3.461
 1739SOL    HW2 7115  12.463   1.023   3.429
 1740SOL     OW 7116   2.872   0.117   2.587
 1740SOL    HW1 7117   2.961   0.098   2.557
 1740SOL    HW2 7118   2.822   0.039   2.565
 1741SOL     OW 7119   6.662   3.272   9.271
 1741SOL    HW1 7120   6.744   3.239   9.309
 1741SOL    HW2 7121   6.614   3.308   9.346
 1742SOL     OW 7122  10.445   4.569   0.830
 1742SOL    HW1 7123  10.470   4.620   0.907
 1742SOL    HW2 7124  10.506   4.495   0.830
 1743SOL     OW 7125   7.796  10.019   6.214
 1743SOL    HW1 7126   7.800   9.923   6.207
 1743SOL    HW2 7127   7.705  10.040   6.195
 1744SOL     OW 7128   1.669  14.587  10.941
 1744SOL    HW1 7129   1.625  14.617  11.020
 1744SOL    HW2 7130   1.615  14.621  10.869
 1745SOL     OW 7131  13.032   3.700   2.285
 1745SOL    HW1 7132  13.047   3.611   2.254
 1745SOL    HW2 7133  12.943   3.720   2.257
 1746SOL     OW 7134   3.952   2.109  14.559
 1746SOL    HW1 7135   3.984   2.156  14.635
 1746SOL    HW2 7136   3.965   2.170  14.486
 1747SOL     OW 7137   2.932   2.962  14.202
 1747SOL    HW1 7138   2.924   2.888  14.263
 1747SOL    HW2 7139   2.972   2.924  14.124
 1748SOL     OW 7140  13.184   9.356  10.262
 1748SOL    HW1 7141  13.164   9.407  10.183
 1748SOL    HW2 7142  13.132   9.276  10.252
 1749SOL     OW 7143   0.103   1.973  14.306
 1749SOL    HW1 7144   0.168   1.907  14.282
 1749SOL    HW2 7145   0.154   2.048  14.336
 1750SOL     OW 7146   8.805   1.531  10.142
 1750SOL    HW1 7147   8.897   1.510  10.122
 1750SOL    HW2 7148   8.804   1.626  10.149
 1751SOL     OW 7149  10.006   7.035   4.111
 1751SOL    HW1 7150  10.026   7.125   4.134
 1751SOL    HW2 7151  10.079   7.008   4.056
 1752SOL     OW 7152   4.456   7.404  13.527
 1752SOL    HW1 7153   4.393   7.474  13.509
 1752SOL    HW2 7154   4.473   7.409  13.621
 1753SOL     OW 7155  14.823  13.365  12.427
 1753SOL    HW1 7156  14.854  13.319  12.505
 1753SOL    HW2 7157   0.003  13.323  12.354
 1754SOL     OW 7158   0.703   8.502   3.734
 1754SOL    HW1 7159   0.635   8.456   3.782
 1754SOL    HW2 7160   0.685   8.594   3.748
 1755SOL     OW 7161   9.900   0.873  12.244
 1755SOL    HW1 7162   9.811   0.879  12.278
 1755SOL    HW2 7163   9.936   0.794  12.285
 1756SOL     OW 7164   5.556   9.860  13.988
 1756SOL    HW1 7165   5.619   9.892  13.923
 1756SOL    HW2 7166   5.594   9.779  14.021
 1757SOL     OW 7167  10.466  10.383  10.564
 1757SOL    HW1 7168  10.519  10.431  10.629
 1757SOL    HW2 7169  10.530  10.351  10.501
 1758SOL     OW 7170   4.700   2.833  13.742
 1758SOL    HW1 7171   4.706   2.738  13.739
 1758SOL    HW2 7172   4.615   2.853  13.702
 1759SOL     OW 7173   5.185  10.102   7.734
 1759SOL    HW1 7174   5.111  10.051   7.700
 1759SOL    HW2 7175   5.162  10.193   7.718
 1760SOL     OW 7176   7.829  11.540  10.631
 1760SOL    HW1 7177   7.760  11.522  10.568
 1760SOL    HW2 7178   7.823  11.634  10.647
 1761SOL     OW 7179   4.459  14.701   1.782
 1761SOL    HW1 7180   4.523  14.768   1.806
 1761SOL    HW2 7181   4.434  14.661   1.866
 1762SOL     OW 7182   8.656  13.163   3.604
 1762SOL    HW1 7183   8.639  13.132   3.693
 1762SOL    HW2 7184   8.589  13.230   3.588
 1763SOL     OW 7185   7.240   4.570   9.901
 1763SOL    HW1 7186   7.282   4.575   9.815
 1763SOL    HW2 7187   7.312   4.582   9.963
 1764SOL     OW 7188   4.687   1.041  13.950
 1764SOL    HW1 7189   4.713   1.111  14.009
 1764SOL    HW2 7190   4.594   1.026  13.970
 1765SOL     OW 7191   8.406  12.196  11.135
 1765SOL    HW1 7192   8.439  12.257  11.070
 1765SOL    HW2 7193   8.480  12.138  11.154
 1766SOL     OW 7194  12.533   2.190   4.001
 1766SOL    HW1 7195  12.564   2.258   4.061
 1766SOL    HW2 7196  12.613   2.143   3.974
 1767SOL     OW 7197   4.422   2.798   1.450
 1767SOL    HW1 7198   4.460   2.829   1.532
 1767SOL    HW2 7199   4.400   2.878   1.403
 1768SOL     OW 7200   0.370   7.012  13.057
 1768SOL    HW1 7201   0.285   7.048  13.029
 1768SOL    HW2 7202   0.400   6.962  12.981
 1769SOL     OW 7203  10.799  11.136  11.570
 1769SOL    HW1 7204  10.716  11.092  11.552
 1769SOL    HW2 7205  10.776  11.207  11.629
 1770SOL     OW 7206  12.023   2.310   6.806
 1770SOL    HW1 7207  12.037   2.288   6.898
 1770SOL    HW2 7208  12.100   2.273   6.761
 1771SOL     OW 7209   0.854   0.449  10.668
 1771SOL    HW1 7210   0.854   0.540  10.637
 1771SOL    HW2 7211   0.946   0.426  10.675
 1772SOL     OW 7212  14.496   4.114   7.581
 1772SOL    HW1 7213  14.468   4.199   7.545
 1772SOL    HW2 7214  14.422   4.056   7.565
 1773SOL     OW 7215   5.992   1.469  10.613
 1773SOL    HW1 7216   6.075   1.423  10.600
 1773SOL    HW2 7217   5.928   1.400  10.629
 1774SOL     OW 7218   5.599   5.725   4.802
 1774SOL    HW1 7219   5.521   5.712   4.747
 1774SOL    HW2 7220   5.664   5.666   4.764
 1775SOL     OW 7221   4.454  13.234  14.350
 1775SOL    HW1 7222   4.550  13.225  14.354
 1775SOL    HW2 7223   4.440  13.307  14.290
 1776SOL     OW 7224  11.076  14.184   9.865
 1776SOL    HW1 7225  11.166  14.202   9.838
 1776SOL    HW2 7226  11.083  14.113   9.929
 1777SOL     OW 7227   1.138  11.373   2.098
 1777SOL    HW1 7228   1.157  11.355   2.006
 1777SOL    HW2 7229   1.043  11.383   2.101
 1778SOL     OW 7230  13.149   2.662  12.674
 1778SOL    HW1 7231  13.055   2.646  12.661
 1778SOL    HW2 7232  13.175   2.713  12.597
 1779SOL     OW 7233   4.236   9.105   2.383
 1779SOL    HW1 7234   4.325   9.088   2.416
 1779SOL    HW2 7235   4.179   9.055   2.442
 1780SOL     OW 7236   8.357  12.196  13.280
 1780SOL    HW1 7237   8.351  12.291  13.284
 1780SOL    HW2 7238   8.406  12.171  13.358
 1781SOL     OW 7239   0.137   1.475  12.226
 1781SOL    HW1 7240   0.149   1.568  12.247
 1781SOL    HW2 7241   0.139   1.472  12.130
 1782SOL     OW 7242   2.740   0.524   6.251
 1782SOL    HW1 7243   2.760   0.609   6.289
 1782SOL    HW2 7244   2.755   0.461   6.321
 1783SOL     OW 7245  14.280   5.278   8.541
 1783SOL    HW1 7246  14.296   5.256   8.449
 1783SOL    HW2 7247  14.212   5.217   8.569
 1784SOL     OW 7248   7.218   0.859   4.985
 1784SOL    HW1 7249   7.158   0.917   4.937
 1784SOL    HW2 7250   7.250   0.798   4.919
 1785SOL     OW 7251   9.348   9.909   5.442
 1785SOL    HW1 7252   9.372   9.996   5.473
 1785SOL    HW2 7253   9.258   9.918   5.410
 1786SOL     OW 7254  11.544   4.811   9.137
 1786SOL    HW1 7255  11.461   4.777   9.170
 1786SOL    HW2 7256  11.549   4.778   9.047
 1787SOL     OW 7257   7.317   4.509   5.502
 1787SOL    HW1 7258   7.277   4.573   5.562
 1787SOL    HW2 7259   7.264   4.514   5.423
 1788SOL     OW 7260   8.258   0.357   9.055
 1788SOL    HW1 7261   8.279   0.343   8.963
 1788SOL    HW2 7262   8.228   0.448   9.059
 1789SOL     OW 7263  12.544   9.418  10.335
 1789SOL    HW1 7264  12.459   9.447  10.370
 1789SOL    HW2 7265  12.555   9.469  10.255
 1790SOL     OW 7266   5.588   0.017   4.897
 1790SOL    HW1 7267   5.563  14.806   4.946
 1790SOL    HW2 7268   5.516   0.079   4.912
 1791SOL     OW 7269   6.764   6.091   3.900
 1791SOL    HW1 7270   6.721   6.176   3.894
 1791SOL    HW2 7271   6.853   6.110   3.928
 1792SOL     OW 7272   5.746   0.185   7.308
 1792SOL    HW1 7273   5.752   0.280   7.311
 1792SOL    HW2 7274   5.804   0.155   7.378
 1793SOL     OW 7275  11.116   7.293   0.985
 1793SOL    HW1 7276  11.136   7.348   1.060
 1793SOL    HW2 7277  11.025   7.312   0.965
 1794SOL     OW 7278   9.809  11.920   2.897
 1794SOL    HW1 7279   9.810  11.840   2.844
 1794SOL    HW2 7280   9.879  11.908   2.961
 1795SOL     OW 7281  13.536   1.543  12.453
 1795SOL    HW1 7282  13.569   1.526  12.365
 1795SOL    HW2 7283  13.600   1.604  12.491
 1796SOL     OW 7284   5.562   9.797  10.220
 1796SOL    HW1 7285   5.630   9.745  10.262
 1796SOL    HW2 7286   5.557   9.762  10.131
 1797SOL     OW 7287   6.094   9.333   8.160
 1797SOL    HW1 7288   6.139   9.301   8.238
 1797SOL    HW2 7289   6.164   9.353   8.098
 1798SOL     OW 7290   1.868  14.141  11.594
 1798SOL    HW1 7291   1.919  14.132  11.675
 1798SOL    HW2 7292   1.787  14.093  11.612
 1799SOL     OW 7293   8.801   7.984   7.899
 1799SOL    HW1 7294   8.783   7.934   7.979
 1799SOL    HW2 7295   8.719   7.981   7.850
 1800SOL     OW 7296   8.976   9.409   5.825
 1800SOL    HW1 7297   8.889   9.448   5.814
 1800SOL    HW2 7298   9.023   9.470   5.881
 1801SOL     OW 7299  13.408   3.406   9.780
 1801SOL    HW1 7300  13.461   3.458   9.840
 1801SOL    HW2 7301  13.428   3.315   9.804
 1802SOL     OW 7302  12.227   4.665  12.172
 1802SOL    HW1 7303  12.209   4.747  12.217
 1802SOL    HW2 7304  12.153   4.653  12.112
 1803SOL     OW 7305  11.200   6.551  10.359
 1803SOL    HW1 7306  11.197   6.511  10.272
 1803SOL    HW2 7307  11.280   6.515  10.398
 1804SOL     OW 7308   3.102  11.755   0.824
 1804SOL    HW1 7309   3.108  11.691   0.753
 1804SOL    HW2 7310   3.019  11.800   0.810
 1805SOL     OW 7311   9.373  10.189  10.631
 1805SOL    HW1 7312   9.427  10.133  10.574
 1805SOL    HW2 7313   9.430  10.209  10.705
 1806SOL     OW 7314   9.708   8.897  10.953
 1806SOL    HW1 7315   9.782   8.934  11.001
 1806SOL    HW2 7316   9.677   8.825  11.008
 1807SOL     OW 7317   1.784   5.882   2.445
 1807SOL    HW1 7318   1.827   5.803   2.413
 1807SOL    HW2 7319   1.832   5.954   2.404
 1808SOL     OW 7320   9.977   5.721  12.368
 1808SOL    HW1 7321  10.026   5.690  12.444
 1808SOL    HW2 7322   9.886   5.702  12.389
 1809SOL     OW 7323   2.100  12.492  12.217
 1809SOL    HW1 7324   2.022  12.460  12.263
 1809SOL    HW2 7325   2.173  12.449  12.261
 1810SOL     OW 7326  12.232   9.800  12.351
 1810SOL    HW1 7327  12.308   9.759  12.391
 1810SOL    HW2 7328  12.157   9.759  12.395
 1811SOL     OW 7329   4.465   2.934   1.684
 1811SOL    HW1 7330   4.476   2.921   1.778
 1811SOL    HW2 7331   4.444   3.027   1.675
 1812SOL     OW 7332   8.933  12.375   4.465
 1812SOL    HW1 7333   8.851  12.335   4.437
 1812SOL    HW2 7334   8.976  12.402   4.384
 1813SOL     OW 7335  12.912   9.828   6.623
 1813SOL    HW1 7336  12.906   9.734   6.613
 1813SOL    HW2 7337  12.867   9.846   6.706
 1814SOL     OW 7338   5.042  12.341   5.282
 1814SOL    HW1 7339   5.020  12.250   5.264
 1814SOL    HW2 7340   5.005  12.390   5.209
 1815SOL     OW 7341  13.591  14.534   1.452
 1815SOL    HW1 7342  13.683  14.512   1.437
 1815SOL    HW2 7343  13.571  14.494   1.537
 1816SOL     OW 7344  11.842   0.160  10.791
 1816SOL    HW1 7345  11.773   0.099  10.766
 1816SOL    HW2 7346  11.860   0.139  10.883
 1817SOL     OW 7347   2.716   6.486  12.495
 1817SOL    HW1 7348   2.790   6.443  12.452
 1817SOL    HW2 7349   2.710   6.572  12.454
 1818SOL     OW 7350   1.657   7.534  10.320
 1818SOL    HW1 7351   1.746   7.501  10.305
 1818SOL    HW2 7352   1.669   7.609  10.378
 1819SOL     OW 7353  12.144  14.198   0.692
 1819SOL    HW1 7354  12.237  14.187   0.713
 1819SOL    HW2 7355  12.130  14.146   0.613
 1820SOL     OW 7356   7.521   3.588   6.629
 1820SOL    HW1 7357   7.506   3.495   6.647
 1820SOL    HW2 7358   7.533   3.627   6.716
 1821SOL     OW 7359  13.259   6.494  10.075
 1821SOL    HW1 7360  13.319   6.479  10.148
 1821SOL    HW2 7361  13.174   6.508  10.116
 1822SOL     OW 7362  13.707  11.362  10.693
 1822SOL    HW1 7363  13.764  11.321  10.628
 1822SOL    HW2 7364  13.619  11.357  10.655
 1823SOL     OW 7365   4.600   6.974  10.894
 1823SOL    HW1 7366   4.546   6.921  10.953
 1823SOL    HW2 7367   4.677   6.998  10.946
 1824SOL     OW 7368   7.493   2.511   9.755
 1824SOL    HW1 7369   7.564   2.519   9.691
 1824SOL    HW2 7370   7.460   2.422   9.743
 1825SOL     OW 7371   5.599   5.540  14.080
 1825SOL    HW1 7372   5.572   5.475  14.145
 1825SOL    HW2 7373   5.522   5.595  14.068
 1826SOL     OW 7374   8.083   1.839   4.581
 1826SOL    HW1 7375   8.062   1.828   4.488
 1826SOL    HW2 7376   8.169   1.882   4.582
 1827SOL     OW 7377   9.295   9.854   1.997
 1827SOL    HW1 7378   9.253   9.835   1.912
 1827SOL    HW2 7379   9.224   9.889   2.051
 1828SOL     OW 7380  12.376   0.041   3.812
 1828SOL    HW1 7381  12.282   0.021   3.813
 1828SOL    HW2 7382  12.404   0.018   3.723
 1829SOL     OW 7383   1.893   3.843   8.645
 1829SOL    HW1 7384   1.832   3.865   8.715
 1829SOL    HW2 7385   1.887   3.915   8.583
 1830SOL     OW 7386  11.475   6.028   7.301
 1830SOL    HW1 7387  11.398   6.075   7.268
 1830SOL    HW2 7388  11.485   5.954   7.242
 1831SOL     OW 7389   6.985  14.645   3.110
 1831SOL    HW1 7390   6.939  14.707   3.053
 1831SOL    HW2 7391   6.916  14.600   3.158
 1832SOL     OW 7392   0.747   7.622   5.596
 1832SOL    HW1 7393   0.835   7.659   5.584
 1832SOL    HW2 7394   0.697   7.694   5.635
 1833SOL     OW 7395   6.588  10.326   7.000
 1833SOL    HW1 7396   6.541  10.395   7.047
 1833SOL    HW2 7397   6.528  10.299   6.930
 1834SOL     OW 7398   7.163   1.415  11.768
 1834SOL    HW1 7399   7.101   1.356  11.810
 1834SOL    HW2 7400   7.117   1.448  11.691
 1835SOL     OW 7401   1.053   2.510   1.060
 1835SOL    HW1 7402   1.042   2.500   0.965
 1835SOL    HW2 7403   0.995   2.582   1.083
 1836SOL     OW 7404  10.936  14.057   2.243
 1836SOL    HW1 7405  10.885  14.113   2.184
 1836SOL    HW2 7406  11.024  14.095   2.243
 1837SOL     OW 7407   6.127   4.981   7.889
 1837SOL    HW1 7408   6.057   5.003   7.827
 1837SOL    HW2 7409   6.155   5.066   7.924
 1838SOL     OW 7410  10.081   7.027   3.616
 1838SOL    HW1 7411  10.168   6.998   3.588
 1838SOL    HW2 7412  10.052   6.958   3.676
 1839SOL     OW 7413   2.469   8.645   2.547
 1839SOL    HW1 7414   2.417   8.585   2.602
 1839SOL    HW2 7415   2.455   8.613   2.458
 1840SOL     OW 7416  14.049   2.108   6.183
 1840SOL    HW1 7417  14.049   2.013   6.173
 1840SOL    HW2 7418  13.958   2.134   6.164
 1841SOL     OW 7419   1.649   3.886  10.959
 1841SOL    HW1 7420   1.670   3.835  10.881
 1841SOL    HW2 7421   1.589   3.830  11.008
 1842SOL     OW 7422   7.318   1.645  12.398
 1842SOL    HW1 7423   7.375   1.684  12.464
 1842SOL    HW2 7424   7.325   1.551  12.412
 1843SOL     OW 7425  13.089   4.508  14.781
 1843SOL    HW1 7426  13.016   4.559  14.814
 1843SOL    HW2 7427  13.049   4.427  14.750
 1844SOL     OW 7428  12.236  14.825   9.754
 1844SOL    HW1 7429  12.186  14.787   9.826
 1844SOL    HW2 7430  12.245  14.754   9.691
 1845SOL     OW 7431  10.139   1.188  11.996
 1845SOL    HW1 7432  10.094   1.270  12.013
 1845SOL    HW2 7433  10.134   1.140  12.079
 1846SOL     OW 7434  11.823   1.375   9.839
 1846SOL    HW1 7435  11.747   1.318   9.846
 1846SOL    HW2 7436  11.814   1.416   9.752
 1847SOL     OW 7437  13.548   7.245  12.847
 1847SOL    HW1 7438  13.641   7.259  12.830
 1847SOL    HW2 7439  13.537   7.263  12.940
 1848SOL     OW 7440  14.058   4.612   4.451
 1848SOL    HW1 7441  13.981   4.644   4.498
 1848SOL    HW2 7442  14.038   4.627   4.358
 1849SOL     OW 7443   4.478  12.195   7.810
 1849SOL    HW1 7444   4.434  12.113   7.835
 1849SOL    HW2 7445   4.562  12.168   7.774
 1850SOL     OW 7446   1.445   6.742  11.097
 1850SOL    HW1 7447   1.387   6.667  11.115
 1850SOL    HW2 7448   1.405   6.785  11.021
 1851SOL     OW 7449   8.596  10.096  10.930
 1851SOL    HW1 7450   8.585  10.157  11.003
 1851SOL    HW2 7451   8.527  10.119  10.868
 1852SOL     OW 7452   6.339   6.986   4.082
 1852SOL    HW1 7453   6.306   7.054   4.142
 1852SOL    HW2 7454   6.264   6.929   4.066
 1853SOL     OW 7455   1.004   6.075  14.005
 1853SOL    HW1 7456   1.082   6.048  13.955
 1853SOL    HW2 7457   0.933   6.025  13.965
 1854SOL     OW 7458  13.573  13.179   9.813
 1854SOL    HW1 7459  13.555  13.271   9.831
 1854SOL    HW2 7460  13.636  13.153   9.881
 1855SOL     OW 7461  13.904   7.010   4.225
 1855SOL    HW1 7462  13.833   6.955   4.192
 1855SOL    HW2 7463  13.977   6.950   4.237
 1856SOL     OW 7464  13.234  12.135  11.818
 1856SOL    HW1 7465  13.292  12.207  11.792
 1856SOL    HW2 7466  13.148  12.176  11.829
 1857SOL     OW 7467   4.983   5.180   9.106
 1857SOL    HW1 7468   5.018   5.269   9.117
 1857SOL    HW2 7469   4.927   5.167   9.183
 1858SOL     OW 7470  12.701  11.977   9.664
 1858SOL    HW1 7471  12.759  11.989   9.589
 1858SOL    HW2 7472  12.744  11.912   9.718
 1859SOL     OW 7473   8.989   1.790   3.369
 1859SOL    HW1 7474   9.019   1.782   3.279
 1859SOL    HW2 7475   8.896   1.767   3.366
 1860SOL     OW 7476  11.116  12.856   3.391
 1860SOL    HW1 7477  11.026  12.823   3.387
 1860SOL    HW2 7478  11.133  12.889   3.303
 1861SOL     OW 7479   3.565  12.424  12.178
 1861SOL    HW1 7480   3.616  12.345  12.198
 1861SOL    HW2 7481   3.490  12.419  12.238
 1862SOL     OW 7482   8.330   2.585  14.865
 1862SOL    HW1 7483   8.366   2.657  14.814
 1862SOL    HW2 7484   8.242   2.571  14.828
 1863SOL     OW 7485   1.893   8.489  12.311
 1863SOL    HW1 7486   1.854   8.413  12.268
 1863SOL    HW2 7487   1.860   8.564  12.262
 1864SOL     OW 7488   7.191   6.251   4.166
 1864SOL    HW1 7489   7.263   6.192   4.143
 1864SOL    HW2 7490   7.222   6.298   4.243
 1865SOL     OW 7491   3.540   6.086   1.817
 1865SOL    HW1 7492   3.574   6.005   1.780
 1865SOL    HW2 7493   3.582   6.156   1.766
 1866SOL     OW 7494   0.547  11.653  13.716
 1866SOL    HW1 7495   0.600  11.644  13.637
 1866SOL    HW2 7496   0.514  11.565  13.733
 1867SOL     OW 7497   0.180   5.065   3.655
 1867SOL    HW1 7498   0.122   5.140   3.642
 1867SOL    HW2 7499   0.193   5.030   3.567
 1868SOL     OW 7500  12.568   4.807  10.936
 1868SOL    HW1 7501  12.578   4.831  11.028
 1868SOL    HW2 7502  12.511   4.875  10.900
 1869SOL     OW 7503   1.853  10.004  12.181
 1869SOL    HW1 7504   1.879  10.043  12.264
 1869SOL    HW2 7505   1.782   9.944  12.203
 1870SOL     OW 7506   0.949   0.338   2.145
 1870SOL    HW1 7507   0.928   0.424   2.109
 1870SOL    HW2 7508   0.968   0.354   2.237
 1871SOL     OW 7509   8.766   6.008   3.804
 1871SOL    HW1 7510   8.744   6.013   3.897
 1871SOL    HW2 7511   8.860   5.989   3.803
 1872SOL     OW 7512  11.706   5.612   2.399
 1872SOL    HW1 7513  11.647   5.684   2.421
 1872SOL    HW2 7514  11.671   5.577   2.317
 1873SOL     OW 7515  14.534  10.316   3.499
 1873SOL    HW1 7516  14.492  10.332   3.414
 1873SOL    HW2 7517  14.480  10.249   3.540
 1874SOL     OW 7518   4.077   0.683   6.286
 1874SOL    HW1 7519   4.109   0.661   6.198
 1874SOL    HW2 7520   4.089   0.603   6.337
 1875SOL     OW 7521   7.957  11.066  12.709
 1875SOL    HW1 7522   7.940  10.975  12.732
 1875SOL    HW2 7523   7.912  11.116  12.777
 1876SOL     OW 7524   6.520   3.439  13.506
 1876SOL    HW1 7525   6.431   3.405  13.501
 1876SOL    HW2 7526   6.510   3.534  13.498
 1877SOL     OW 7527   8.949   1.162  12.165
 1877SOL    HW1 7528   8.895   1.114  12.102
 1877SOL    HW2 7529   9.038   1.129  12.150
 1878SOL     OW 7530   5.215  12.029   3.472
 1878SOL    HW1 7531   5.300  11.985   3.482
 1878SOL    HW2 7532   5.224  12.109   3.523
 1879SOL     OW 7533   2.598   6.843   6.864
 1879SOL    HW1 7534   2.638   6.930   6.859
 1879SOL    HW2 7535   2.624   6.810   6.950
 1880SOL     OW 7536  13.120  14.442   5.523
 1880SOL    HW1 7537  13.107  14.496   5.600
 1880SOL    HW2 7538  13.066  14.364   5.539
 1881SOL     OW 7539   5.210   7.550  10.722
 1881SOL    HW1 7540   5.191   7.503  10.803
 1881SOL    HW2 7541   5.174   7.638  10.736
 1882SOL     OW 7542   5.897  13.309   6.065
 1882SOL    HW1 7543   5.908  13.278   5.975
 1882SOL    HW2 7544   5.888  13.404   6.057
 1883SOL     OW 7545   9.647   7.503  13.035
 1883SOL    HW1 7546   9.662   7.410  13.053
 1883SOL    HW2 7547   9.574   7.527  13.092
 1884SOL     OW 7548   1.291   9.706   6.226
 1884SOL    HW1 7549   1.292   9.631   6.286
 1884SOL    HW2 7550   1.384   9.724   6.209
 1885SOL     OW 7551  12.063   4.884   9.514
 1885SOL    HW1 7552  12.071   4.931   9.431
 1885SOL    HW2 7553  12.152   4.855   9.535
 1886SOL     OW 7554   7.073  11.434   8.946
 1886SOL    HW1 7555   7.029  11.499   9.002
 1886SOL    HW2 7556   7.124  11.381   9.006
 1887SOL     OW 7557   3.653   4.163   0.888
 1887SOL    HW1 7558   3.700   4.162   0.805
 1887SOL    HW2 7559   3.569   4.121   0.869
 1888SOL     OW 7560   3.745   2.205  13.287
 1888SOL    HW1 7561   3.738   2.267  13.215
 1888SOL    HW2 7562   3.683   2.237  13.352
 1889SOL     OW 7563   1.920  12.276   8.555
 1889SOL    HW1 7564   1.945  12.296   8.645
 1889SOL    HW2 7565   1.884  12.358   8.520
 1890SOL     OW 7566   7.373   8.915   1.639
 1890SOL    HW1 7567   7.313   8.870   1.579
 1890SOL    HW2 7568   7.460   8.884   1.614
 1891SOL     OW 7569   3.222  13.204   9.262
 1891SOL    HW1 7570   3.175  13.140   9.209
 1891SOL    HW2 7571   3.254  13.153   9.337
 1892SOL     OW 7572   8.409  14.256  10.595
 1892SOL    HW1 7573   8.430  14.327  10.535
 1892SOL    HW2 7574   8.324  14.280  10.632
 1893SOL     OW 7575   3.684  14.696   5.190
 1893SOL    HW1 7576   3.735  14.732   5.117
 1893SOL    HW2 7577   3.745  14.697   5.264
 1894SOL     OW 7578   4.468   5.662   2.647
 1894SOL    HW1 7579   4.505   5.724   2.710
 1894SOL    HW2 7580   4.374   5.679   2.648
 1895SOL     OW 7581   1.520   1.492   3.078
 1895SOL    HW1 7582   1.592   1.435   3.106
 1895SOL    HW2 7583   1.467   1.438   3.020
 1896SOL     OW 7584  14.291  14.795   3.362
 1896SOL    HW1 7585  14.264  14.755   3.280
 1896SOL    HW2 7586  14.295   0.021   3.343
 1897SOL     OW 7587   3.509   4.921   6.463
 1897SOL    HW1 7588   3.477   4.983   6.397
 1897SOL    HW2 7589   3.443   4.925   6.533
 1898SOL     OW 7590  13.291   6.906  12.817
 1898SOL    HW1 7591  13.200   6.894  12.842
 1898SOL    HW2 7592  13.327   6.818  12.813
 1899SOL     OW 7593  10.248   6.570  12.942
 1899SOL    HW1 7594  10.238   6.614  13.026
 1899SOL    HW2 7595  10.169   6.593  12.894
 1900SOL     OW 7596   2.801  11.554   7.089
 1900SOL    HW1 7597   2.752  11.482   7.050
 1900SOL    HW2 7598   2.747  11.584   7.162
 1901SOL     OW 7599  12.575   4.095   9.140
 1901SOL    HW1 7600  12.587   4.002   9.124
 1901SOL    HW2 7601  12.480   4.105   9.150
 1902SOL     OW 7602  12.802   2.740   4.407
 1902SOL    HW1 7603  12.778   2.752   4.315
 1902SOL    HW2 7604  12.719   2.753   4.454
 1903SOL     OW 7605   7.449   4.767   4.523
 1903SOL    HW1 7606   7.417   4.854   4.546
 1903SOL    HW2 7607   7.372   4.711   4.529
 1904SOL     OW 7608   9.602  10.167  13.447
 1904SOL    HW1 7609   9.557  10.108  13.509
 1904SOL    HW2 7610   9.536  10.184  13.380
 1905SOL     OW 7611   6.697   4.230   7.592
 1905SOL    HW1 7612   6.652   4.246   7.675
 1905SOL    HW2 7613   6.680   4.309   7.540
 1906SOL     OW 7614   9.742   7.228   6.218
 1906SOL    HW1 7615   9.733   7.162   6.150
 1906SOL    HW2 7616   9.699   7.306   6.183
 1907SOL     OW 7617   5.155   0.429   2.228
 1907SOL    HW1 7618   5.230   0.419   2.286
 1907SOL    HW2 7619   5.109   0.345   2.234
 1908SOL     OW 7620   3.214  10.011   3.371
 1908SOL    HW1 7621   3.300  10.028   3.333
 1908SOL    HW2 7622   3.167   9.959   3.306
 1909SOL     OW 7623  14.570   3.180   7.644
 1909SOL    HW1 7624  14.573   3.111   7.577
 1909SOL    HW2 7625  14.638   3.242   7.617
 1910SOL     OW 7626   5.357  13.239   6.088
 1910SOL    HW1 7627   5.400  13.187   6.021
 1910SOL    HW2 7628   5.423  13.304   6.115
 1911SOL     OW 7629   0.654   0.598  12.579
 1911SOL    HW1 7630   0.707   0.677  12.574
 1911SOL    HW2 7631   0.633   0.588  12.672
 1912SOL     OW 7632  13.570  10.159  10.136
 1912SOL    HW1 7633  13.632  10.231  10.128
 1912SOL    HW2 7634  13.621  10.087  10.174
 1913SOL     OW 7635  12.315   2.211   6.815
 1913SOL    HW1 7636  12.313   2.132   6.761
 1913SOL    HW2 7637  12.312   2.179   6.905
 1914SOL     OW 7638  14.107  13.186   5.154
 1914SOL    HW1 7639  14.018  13.192   5.188
 1914SOL    HW2 7640  14.153  13.260   5.194
 1915SOL     OW 7641  10.690   1.624   0.141
 1915SOL    HW1 7642  10.656   1.690   0.202
 1915SOL    HW2 7643  10.639   1.638   0.061
 1916SOL     OW 7644   4.418   7.508   5.748
 1916SOL    HW1 7645   4.381   7.513   5.836
 1916SOL    HW2 7646   4.510   7.530   5.759
 1917SOL     OW 7647   6.409   8.521  13.486
 1917SOL    HW1 7648   6.317   8.536  13.468
 1917SOL    HW2 7649   6.410   8.444  13.543
 1918SOL     OW 7650  10.663   5.055   4.809
 1918SOL    HW1 7651  10.690   4.963   4.818
 1918SOL    HW2 7652  10.640   5.063   4.716
 1919SOL     OW 7653  12.862  14.510  12.885
 1919SOL    HW1 7654  12.943  14.523  12.934
 1919SOL    HW2 7655  12.888  14.462  12.806
 1920SOL     OW 7656  11.438   6.609  12.952
 1920SOL    HW1 7657  11.391   6.527  12.940
 1920SOL    HW2 7658  11.486   6.599  13.034
 1921SOL     OW 7659  10.339  12.711   5.406
 1921SOL    HW1 7660  10.309  12.790   5.451
 1921SOL    HW2 7661  10.427  12.696   5.442
 1922SOL     OW 7662   2.567   5.092   8.032
 1922SOL    HW1 7663   2.658   5.069   8.014
 1922SOL    HW2 7664   2.555   5.074   8.125
 1923SOL     OW 7665  11.789  14.714   8.077
 1923SOL    HW1 7666  11.810  14.749   8.164
 1923SOL    HW2 7667  11.859  14.650   8.061
 1924SOL     OW 7668  14.765   3.365   7.574
 1924SOL    HW1 7669  14.819   3.323   7.507
 1924SOL    HW2 7670  14.820   3.366   7.652
 1925SOL     OW 7671   6.824   2.631   7.113
 1925SOL    HW1 7672   6.795   2.585   7.034
 1925SOL    HW2 7673   6.876   2.705   7.079
 1926SOL     OW 7674  14.748   5.995  10.332
 1926SOL    HW1 7675  14.697   6.023  10.408
 1926SOL    HW2 7676  14.765   5.902  10.348
 1927SOL     OW 7677   8.444  12.799   4.449
 1927SOL    HW1 7678   8.483  12.725   4.496
 1927SOL    HW2 7679   8.389  12.842   4.515
 1928SOL     OW 7680   1.258  14.557   4.969
 1928SOL    HW1 7681   1.191  14.610   4.924
 1928SOL    HW2 7682   1.207  14.496   5.023
 1929SOL     OW 7683   2.975   0.015   4.610
 1929SOL    HW1 7684   3.061  14.846   4.629
 1929SOL    HW2 7685   2.992   0.103   4.578
 1930SOL     OW 7686  12.511  13.947  10.022
 1930SOL    HW1 7687  12.464  13.923  10.103
 1930SOL    HW2 7688  12.534  14.039  10.035
 1931SOL     OW 7689   0.103   6.131  10.245
 1931SOL    HW1 7690   0.166   6.062  10.224
 1931SOL    HW2 7691   0.019   6.087  10.251
 1932SOL     OW 7692   1.640   0.781   5.873
 1932SOL    HW1 7693   1.576   0.810   5.938
 1932SOL    HW2 7694   1.685   0.708   5.914
 1933SOL     OW 7695   0.311  12.846   6.380
 1933SOL    HW1 7696   0.381  12.815   6.323
 1933SOL    HW2 7697   0.336  12.936   6.402
 1934SOL     OW 7698   8.902  12.370   2.464
 1934SOL    HW1 7699   8.900  12.289   2.414
 1934SOL    HW2 7700   8.871  12.346   2.551
 1935SOL     OW 7701   6.248   1.099   9.597
 1935SOL    HW1 7702   6.271   1.042   9.523
 1935SOL    HW2 7703   6.236   1.039   9.671
 1936SOL     OW 7704   2.967   1.097   1.527
 1936SOL    HW1 7705   2.987   1.098   1.621
 1936SOL    HW2 7706   2.963   1.189   1.502
 1937SOL     OW 7707  12.919   0.533  14.165
 1937SOL    HW1 7708  12.898   0.626  14.171
 1937SOL    HW2 7709  12.911   0.500  14.255
 1938SOL     OW 7710   2.185   2.655  10.612
 1938SOL    HW1 7711   2.223   2.737  10.583
 1938SOL    HW2 7712   2.097   2.655  10.574
 1939SOL     OW 7713   4.889   5.054   7.937
 1939SOL    HW1 7714   4.871   5.058   8.031
 1939SOL    HW2 7715   4.902   5.146   7.912
 1940SOL     OW 7716   0.703   4.429   3.123
 1940SOL    HW1 7717   0.655   4.349   3.145
 1940SOL    HW2 7718   0.646   4.500   3.151
 1941SOL     OW 7719   9.912   3.999  10.251
 1941SOL    HW1 7720   9.985   4.051  10.284
 1941SOL    HW2 7721   9.927   3.992  10.157
 1942SOL     OW 7722   3.021  10.565   1.082
 1942SOL    HW1 7723   2.947  10.568   1.020
 1942SOL    HW2 7724   2.990  10.510   1.154
 1943SOL     OW 7725   5.901  14.723   9.365
 1943SOL    HW1 7726   5.943  14.801   9.401
 1943SOL    HW2 7727   5.877  14.747   9.276
 1944SOL     OW 7728   4.164   1.851   6.830
 1944SOL    HW1 7729   4.069   1.856   6.845
 1944SOL    HW2 7730   4.187   1.761   6.854
 1945SOL     OW 7731   7.842  12.794  14.123
 1945SOL    HW1 7732   7.894  12.790  14.203
 1945SOL    HW2 7733   7.765  12.845  14.147
 1946SOL     OW 7734   7.076   1.068   4.887
 1946SOL    HW1 7735   6.997   1.030   4.847
 1946SOL    HW2 7736   7.067   1.162   4.869
 1947SOL     OW 7737   9.623   9.147  12.928
 1947SOL    HW1 7738   9.712   9.166  12.958
 1947SOL    HW2 7739   9.622   9.053  12.913
 1948SOL     OW 7740  10.234   1.105   5.803
 1948SOL    HW1 7741  10.176   1.037   5.838
 1948SOL    HW2 7742  10.212   1.183   5.855
 1949SOL     OW 7743   0.347   5.057   6.874
 1949SOL    HW1 7744   0.265   5.007   6.876
 1949SOL    HW2 7745   0.321   5.146   6.901
 1950SOL     OW 7746   8.387   9.810   7.219
 1950SOL    HW1 7747   8.463   9.753   7.229
 1950SOL    HW2 7748   8.314   9.750   7.205
 1951SOL     OW 7749   3.361   0.953  10.844
 1951SOL    HW1 7750   3.449   0.969  10.880
 1951SOL    HW2 7751   3.334   0.869  10.881
 1952SOL     OW 7752   3.894   4.601   1.384
 1952SOL    HW1 7753   3.889   4.526   1.325
 1952SOL    HW2 7754   3.886   4.563   1.472
 1953SOL     OW 7755  13.267   4.030  12.469
 1953SOL    HW1 7756  13.278   3.955  12.411
 1953SOL    HW2 7757  13.353   4.072  12.470
 1954SOL     OW 7758   2.725  14.689   2.451
 1954SOL    HW1 7759   2.795  14.635   2.416
 1954SOL    HW2 7760   2.708  14.754   2.383
 1955SOL     OW 7761   6.573  14.825  10.751
 1955SOL    HW1 7762   6.535  14.766  10.686
 1955SOL    HW2 7763   6.652  14.780  10.781
 1956SOL     OW 7764   1.829   7.590   4.089
 1956SOL    HW1 7765   1.860   7.552   4.171
 1956SOL    HW2 7766   1.908   7.624   4.047
 1957SOL     OW 7767   4.675   7.575  14.239
 1957SOL    HW1 7768   4.731   7.558  14.314
 1957SOL    HW2 7769   4.593   7.607  14.277
 1958SOL     OW 7770   2.485   3.047   7.020
 1958SOL    HW1 7771   2.510   3.011   7.105
 1958SOL    HW2 7772   2.486   3.142   7.034
 1959SOL     OW 7773   6.530   2.819   1.140
 1959SOL    HW1 7774   6.574   2.741   1.175
 1959SOL    HW2 7775   6.465   2.841   1.207
 1960SOL     OW 7776   5.203  14.219  13.796
 1960SOL    HW1 7777   5.189  14.180  13.883
 1960SOL    HW2 7778   5.136  14.178  13.741
 1961SOL     OW 7779   3.132   3.492   3.581
 1961SOL    HW1 7780   3.120   3.524   3.670
 1961SOL    HW2 7781   3.115   3.398   3.587
 1962SOL     OW 7782   2.207  12.049  10.397
 1962SOL    HW1 7783   2.244  12.092  10.475
 1962SOL    HW2 7784   2.283  12.012  10.352
 1963SOL     OW 7785   0.395  10.554   2.049
 1963SOL    HW1 7786   0.452  10.621   2.013
 1963SOL    HW2 7787   0.450  10.509   2.115
 1964SOL     OW 7788  10.288   1.733  13.291
 1964SOL    HW1 7789  10.381   1.755  13.294
 1964SOL    HW2 7790  10.248   1.802  13.238
 1965SOL     OW 7791  11.699  10.917   4.327
 1965SOL    HW1 7792  11.655  10.865   4.393
 1965SOL    HW2 7793  11.787  10.932   4.362
 1966SOL     OW 7794  11.317  11.804   6.369
 1966SOL    HW1 7795  11.389  11.741   6.371
 1966SOL    HW2 7796  11.353  11.883   6.408
 1967SOL     OW 7797   2.180   4.537   0.939
 1967SOL    HW1 7798   2.103   4.512   0.990
 1967SOL    HW2 7799   2.254   4.507   0.992
 1968SOL     OW 7800   2.625  12.091  12.264
 1968SOL    HW1 7801   2.649  12.103  12.356
 1968SOL    HW2 7802   2.529  12.088  12.265
 1969SOL     OW 7803   5.014   5.819  11.676
 1969SOL    HW1 7804   5.096   5.771  11.687
 1969SOL    HW2 7805   5.029   5.875  11.599
 1970SOL     OW 7806   7.894   8.632   8.014
 1970SOL    HW1 7807   7.948   8.675   8.080
 1970SOL    HW2 7808   7.951   8.626   7.937
 1971SOL     OW 7809  14.708   8.863   8.812
 1971SOL    HW1 7810  14.790   8.892   8.852
 1971SOL    HW2 7811  14.705   8.907   8.727
 1972SOL     OW 7812   4.360   8.734   9.668
 1972SOL    HW1 7813   4.345   8.667   9.601
 1972SOL    HW2 7814   4.295   8.802   9.649
 1973SOL     OW 7815  11.887   9.674  13.704
 1973SOL    HW1 7816  11.842   9.630  13.632
 1973SOL    HW2 7817  11.949   9.733  13.661
 1974SOL     OW 7818   2.795   1.949   4.221
 1974SOL    HW1 7819   2.814   1.871   4.273
 1974SOL    HW2 7820   2.789   1.916   4.131
 1975SOL     OW 7821   6.669   1.771   9.341
 1975SOL    HW1 7822   6.574   1.771   9.345
 1975SOL    HW2 7823   6.691   1.704   9.276
 1976SOL     OW 7824  11.294  12.202  12.207
 1976SOL    HW1 7825  11.327  12.290  12.223
 1976SOL    HW2 7826  11.199  12.211  12.212
 1977SOL     OW 7827   8.536   2.191  11.816
 1977SOL    HW1 7828   8.613   2.224  11.862
 1977SOL    HW2 7829   8.544   2.225  11.727
 1978SOL     OW 7830   4.165   6.114   4.663
 1978SOL    HW1 7831   4.260   6.109   4.650
 1978SOL    HW2 7832   4.149   6.205   4.685
 1979SOL     OW 7833   8.107  10.086   2.979
 1979SOL    HW1 7834   8.190  10.113   3.019
 1979SOL    HW2 7835   8.097  10.143   2.903
 1980SOL     OW 7836   7.381   7.715  11.143
 1980SOL    HW1 7837   7.355   7.806  11.155
 1980SOL    HW2 7838   7.420   7.690  11.227
 1981SOL     OW 7839  13.639   3.934   2.090
 1981SOL    HW1 7840  13.631   4.021   2.051
 1981SOL    HW2 7841  13.606   3.874   2.023
 1982SOL     OW 7842  10.478   0.126   1.731
 1982SOL    HW1 7843  10.446   0.044   1.694
 1982SOL    HW2 7844  10.567   0.134   1.698
 1983SOL     OW 7845  14.505   4.535  12.928
 1983SOL    HW1 7846  14.552   4.484  12.862
 1983SOL    HW2 7847  14.449   4.471  12.972
 1984SOL     OW 7848   9.838   6.144  12.596
 1984SOL    HW1 7849   9.811   6.110  12.510
 1984SOL    HW2 7850   9.871   6.067  12.642
 1985SOL     OW 7851   3.399   4.060  13.331
 1985SOL    HW1 7852   3.399   4.126  13.401
 1985SOL    HW2 7853   3.369   3.980  13.373
 1986SOL     OW 7854   4.637   3.094  10.315
 1986SOL    HW1 7855   4.634   3.188  10.300
 1986SOL    HW2 7856   4.559   3.059  10.271
 1987SOL     OW 7857   2.674   5.946   7.016
 1987SOL    HW1 7858   2.643   6.035   7.000
 1987SOL    HW2 7859   2.735   5.929   6.945
 1988SOL     OW 7860   9.598   8.470   8.585
 1988SOL    HW1 7861   9.524   8.411   8.570
 1988SOL    HW2 7862   9.566   8.556   8.559
 1989SOL     OW 7863   0.221   3.950  13.945
 1989SOL    HW1 7864   0.215   3.903  13.862
 1989SOL    HW2 7865   0.172   4.031  13.931
 1990SOL     OW 7866   2.745   9.700   1.175
 1990SOL    HW1 7867   2.690   9.633   1.135
 1990SOL    HW2 7868   2.814   9.716   1.111
 1991SOL     OW 7869   3.031   9.425  14.489
 1991SOL    HW1 7870   3.098   9.405  14.424
 1991SOL    HW2 7871   3.041   9.519  14.506
 1992SOL     OW 7872   1.221  10.536   2.613
 1992SOL    HW1 7873   1.260  10.451   2.590
 1992SOL    HW2 7874   1.165  10.517   2.689
 1993SOL     OW 7875  13.344   5.674   2.559
 1993SOL    HW1 7876  13.298   5.705   2.481
 1993SOL    HW2 7877  13.274   5.650   2.620
 1994SOL     OW 7878   9.235   9.885  10.758
 1994SOL    HW1 7879   9.171   9.863  10.825
 1994SOL    HW2 7880   9.259   9.976  10.775
 1995SOL     OW 7881   8.740   7.454   6.301
 1995SOL    HW1 7882   8.648   7.438   6.319
 1995SOL    HW2 7883   8.746   7.456   6.205
 1996SOL     OW 7884  14.078  12.030   3.763
 1996SOL    HW1 7885  14.167  12.065   3.757
 1996SOL    HW2 7886  14.042  12.069   3.843
 1997SOL     OW 7887   1.694  14.477   6.615
 1997SOL    HW1 7888   1.696  14.414   6.686
 1997SOL    HW2 7889   1.756  14.444   6.550
 1998SOL     OW 7890   3.177   3.623   1.117
 1998SOL    HW1 7891   3.265   3.655   1.096
 1998SOL    HW2 7892   3.177   3.614   1.212
 1999SOL     OW 7893   3.711   6.661  11.550
 1999SOL    HW1 7894   3.749   6.702  11.472
 1999SOL    HW2 7895   3.620   6.691  11.550
 2000SOL     OW 7896   6.973   2.839   7.023
 2000SOL    HW1 7897   6.924   2.893   6.960
 2000SOL    HW2 7898   7.034   2.900   7.064
 2001SOL     OW 7899   2.737   5.833   1.894
 2001SOL    HW1 7900   2.831   5.845   1.909
 2001SOL    HW2 7901   2.713   5.901   1.831
 2002SOL     OW 7902   5.717   5.440  11.435
 2002SOL    HW1 7903   5.676   5.510  11.385
 2002SOL    HW2 7904   5.765   5.484  11.505
 2003SOL     OW 7905  10.430  10.016   3.409
 2003SOL    HW1 7906  10.480  10.080   3.459
 2003SOL    HW2 7907  10.490   9.942   3.398
 2004SOL     OW 7908  10.673   4.016  10.241
 2004SOL    HW1 7909  10.722   4.006  10.159
 2004SOL    HW2 7910  10.593   4.061  10.216
 2005SOL     OW 7911   5.813  12.585   3.519
 2005SOL    HW1 7912   5.745  12.646   3.491
 2005SOL    HW2 7913   5.859  12.562   3.439
 2006SOL     OW 7914   9.297   2.047   0.068
 2006SOL    HW1 7915   9.212   2.059   0.027
 2006SOL    HW2 7916   9.276   2.018   0.157
 2007SOL     OW 7917   2.801  11.191  10.514
 2007SOL    HW1 7918   2.885  11.184  10.470
 2007SOL    HW2 7919   2.781  11.285  10.512
 2008SOL     OW 7920   3.266  14.207   7.842
 2008SOL    HW1 7921   3.324  14.167   7.778
 2008SOL    HW2 7922   3.234  14.287   7.799
 2009SOL     OW 7923   4.211   5.205   4.614
 2009SOL    HW1 7924   4.236   5.129   4.667
 2009SOL    HW2 7925   4.277   5.272   4.635
 2010SOL     OW 7926  11.286  13.000   0.239
 2010SOL    HW1 7927  11.341  12.932   0.279
 2010SOL    HW2 7928  11.268  12.967   0.151
 2011SOL     OW 7929   3.081  10.703   8.588
 2011SOL    HW1 7930   3.062  10.684   8.497
 2011SOL    HW2 7931   3.061  10.796   8.598
 2012SOL     OW 7932   9.947  10.245  13.000
 2012SOL    HW1 7933   9.970  10.325  12.953
 2012SOL    HW2 7934  10.015  10.182  12.975
 2013SOL     OW 7935   9.507   9.270   6.092
 2013SOL    HW1 7936   9.578   9.334   6.087
 2013SOL    HW2 7937   9.428   9.322   6.085
 2014SOL     OW 7938  13.090   4.531   8.656
 2014SOL    HW1 7939  13.048   4.505   8.573
 2014SOL    HW2 7940  13.165   4.472   8.664
 2015SOL     OW 7941  14.665   9.679  13.100
 2015SOL    HW1 7942  14.715   9.597  13.100
 2015SOL    HW2 7943  14.708   9.733  13.034
 2016SOL     OW 7944   5.631   3.226   1.324
 2016SOL    HW1 7945   5.645   3.132   1.336
 2016SOL    HW2 7946   5.543   3.241   1.360
 2017SOL     OW 7947   6.036   1.200  11.199
 2017SOL    HW1 7948   5.963   1.142  11.223
 2017SOL    HW2 7949   6.080   1.219  11.282
 2018SOL     OW 7950   7.461   2.501   2.052
 2018SOL    HW1 7951   7.545   2.462   2.028
 2018SOL    HW2 7952   7.438   2.459   2.135
 2019SOL     OW 7953  13.418   3.958   3.864
 2019SOL    HW1 7954  13.338   3.945   3.814
 2019SOL    HW2 7955  13.427   4.053   3.871
 2020SOL     OW 7956   3.596   2.801   7.449
 2020SOL    HW1 7957   3.591   2.767   7.538
 2020SOL    HW2 7958   3.585   2.896   7.458
 2021SOL     OW 7959   4.035   2.781   2.746
 2021SOL    HW1 7960   4.027   2.756   2.838
 2021SOL    HW2 7961   4.104   2.847   2.745
 2022SOL     OW 7962  11.952   2.721   3.725
 2022SOL    HW1 7963  11.893   2.714   3.800
 2022SOL    HW2 7964  11.898   2.759   3.656
 2023SOL     OW 7965   0.156   8.545   0.030
 2023SOL    HW1 7966   0.158   8.589  14.813
 2023SOL    HW2 7967   0.123   8.458   0.012
 2024SOL     OW 7968   3.033  11.496   5.781
 2024SOL    HW1 7969   3.016  11.493   5.687
 2024SOL    HW2 7970   2.978  11.567   5.814
 2025SOL     OW 7971   1.009  12.468  13.533
 2025SOL    HW1 7972   1.022  12.451  13.626
 2025SOL    HW2 7973   1.082  12.525  13.509
 2026SOL     OW 7974  14.810   6.017   3.913
 2026SOL    HW1 7975   0.015   6.077   3.901
 2026SOL    HW2 7976  14.793   5.983   3.825
 2027SOL     OW 7977  13.039  10.285  11.512
 2027SOL    HW1 7978  12.985  10.347  11.463
 2027SOL    HW2 7979  12.983  10.208  11.523
 2028SOL     OW 7980   0.357   8.189  10.974
 2028SOL    HW1 7981   0.363   8.153  11.062
 2028SOL    HW2 7982   0.442   8.172  10.934
 2029SOL     OW 7983   0.581   2.284   0.306
 2029SOL    HW1 7984   0.518   2.338   0.257
 2029SOL    HW2 7985   0.657   2.279   0.248
 2030SOL     OW 7986   4.408  10.892  13.588
 2030SOL    HW1 7987   4.479  10.956  13.586
 2030SOL    HW2 7988   4.331  10.943  13.615
 2031SOL     OW 7989   3.848   3.222   8.325
 2031SOL    HW1 7990   3.924   3.175   8.359
 2031SOL    HW2 7991   3.793   3.238   8.401
 2032SOL     OW 7992   4.976   2.301   8.848
 2032SOL    HW1 7993   4.990   2.362   8.776
 2032SOL    HW2 7994   4.995   2.215   8.812
 2033SOL     OW 7995   2.182  11.149  12.059
 2033SOL    HW1 7996   2.253  11.211  12.069
 2033SOL    HW2 7997   2.220  11.075  12.012
 2034SOL     OW 7998   4.990  13.658   3.358
 2034SOL    HW1 7999   5.043  13.693   3.430
 2034SOL    HW2 8000   4.960  13.573   3.390
 2035SOL     OW 8001   5.356   8.948   9.351
 2035SOL    HW1 8002   5.433   8.913   9.397
 2035SOL    HW2 8003   5.391   9.007   9.285
 2036SOL     OW 8004   6.424  11.124   4.898
 2036SOL    HW1 8005   6.332  11.138   4.919
 2036SOL    HW2 8006   6.438  11.031   4.911
 2037SOL     OW 8007   1.173   1.108   4.480
 2037SOL    HW1 8008   1.077   1.113   4.488
 2037SOL    HW2 8009   1.192   1.151   4.397
 2038SOL     OW 8010   3.784  14.438   1.693
 2038SOL    HW1 8011   3.714  14.501   1.675
 2038SOL    HW2 8012   3.739  14.357   1.716
 2039SOL     OW 8013   0.747   4.428   7.181
 2039SOL    HW1 8014   0.653   4.411   7.179
 2039SOL    HW2 8015   0.784   4.355   7.230
 2040SOL     OW 8016   1.548  12.490  10.048
 2040SOL    HW1 8017   1.488  12.436  10.100
 2040SOL    HW2 8018   1.492  12.556  10.009
 2041SOL     OW 8019   6.432  14.255  11.276
 2041SOL    HW1 8020   6.354  14.307  11.296
 2041SOL    HW2 8021   6.397  14.168  11.255
 2042SOL     OW 8022  14.018  11.392  13.914
 2042SOL    HW1 8023  14.046  11.459  13.852
 2042SOL    HW2 8024  14.050  11.423  13.999
 2043SOL     OW 8025   8.157  10.184   0.742
 2043SOL    HW1 8026   8.140  10.253   0.806
 2043SOL    HW2 8027   8.070  10.154   0.716
 2044SOL     OW 8028  14.238   1.193   2.280
 2044SOL    HW1 8029  14.193   1.209   2.363
 2044SOL    HW2 8030  14.214   1.104   2.256
 2045SOL     OW 8031   7.762   8.595   2.601
 2045SOL    HW1 8032   7.742   8.583   2.509
 2045SOL    HW2 8033   7.697   8.658   2.633
 2046SOL     OW 8034   6.656   5.963  11.831
 2046SOL    HW1 8035   6.600   6.019  11.885
 2046SOL    HW2 8036   6.710   5.915  11.894
 2047SOL     OW 8037   9.697   2.257   2.998
 2047SOL    HW1 8038   9.644   2.220   2.928
 2047SOL    HW2 8039   9.746   2.328   2.957
 2048SOL     OW 8040  13.384   6.495   0.526
 2048SOL    HW1 8041  13.438   6.457   0.595
 2048SOL    HW2 8042  13.421   6.583   0.513
 2049SOL     OW 8043   0.228  11.015   8.441
 2049SOL    HW1 8044   0.320  11.000   8.462
 2049SOL    HW2 8045   0.181  10.977   8.515
 2050SOL     OW 8046   4.038  10.353   0.941
 2050SOL    HW1 8047   4.123  10.326   0.975
 2050SOL    HW2 8048   3.994  10.393   1.016
 2051SOL     OW 8049   7.777   3.497   2.932
 2051SOL    HW1 8050   7.749   3.579   2.972
 2051SOL    HW2 8051   7.872   3.499   2.935
 2052SOL     OW 8052  14.709   4.679   6.148
 2052SOL    HW1 8053  14.722   4.771   6.173
 2052SOL    HW2 8054  14.784   4.633   6.187
 2053SOL     OW 8055   5.820   0.482   8.009
 2053SOL    HW1 8056   5.822   0.542   8.083
 2053SOL    HW2 8057   5.849   0.535   7.934
 2054SOL     OW 8058  11.200   8.725   4.402
 2054SOL    HW1 8059  11.221   8.751   4.492
 2054SOL    HW2 8060  11.223   8.632   4.398
 2055SOL     OW 8061  11.691   5.863   8.467
 2055SOL    HW1 8062  11.688   5.937   8.528
 2055SOL    HW2 8063  11.645   5.895   8.389
 2056SOL     OW 8064   1.334   9.037   5.583
 2056SOL    HW1 8065   1.410   9.071   5.534
 2056SOL    HW2 8066   1.277   9.001   5.516
 2057SOL     OW 8067  13.695  12.166   1.549
 2057SOL    HW1 8068  13.638  12.149   1.474
 2057SOL    HW2 8069  13.654  12.240   1.594
 2058SOL     OW 8070  13.541  13.896   1.810
 2058SOL    HW1 8071  13.472  13.843   1.770
 2058SOL    HW2 8072  13.495  13.972   1.845
 2059SOL     OW 8073   6.823   9.456  14.729
 2059SOL    HW1 8074   6.782   9.475  14.813
 2059SOL    HW2 8075   6.762   9.490  14.664
 2060SOL     OW 8076   6.733  14.494  12.763
 2060SOL    HW1 8077   6.699  14.557  12.699
 2060SOL    HW2 8078   6.690  14.412  12.741
 2061SOL     OW 8079   1.797   9.611   6.155
 2061SOL    HW1 8080   1.870   9.651   6.203
 2061SOL    HW2 8081   1.787   9.666   6.077
 2062SOL     OW 8082  13.080   9.049  14.337
 2062SOL    HW1 8083  13.170   9.020  14.323
 2062SOL    HW2 8084  13.049   9.073  14.250
 2063SOL     OW 8085   6.533   6.566   6.414
 2063SOL    HW1 8086   6.526   6.662   6.414
 2063SOL    HW2 8087   6.550   6.543   6.323
 2064SOL     OW 8088   3.228   0.033   5.004
 2064SOL    HW1 8089   3.222   0.080   5.088
 2064SOL    HW2 8090   3.146  14.852   4.998
 2065SOL     OW 8091  14.421   2.030   7.840
 2065SOL    HW1 8092  14.430   2.061   7.930
 2065SOL    HW2 8093  14.478   2.088   7.789
 2066SOL     OW 8094  13.878  10.413   3.128
 2066SOL    HW1 8095  13.927  10.352   3.072
 2066SOL    HW2 8096  13.847  10.481   3.068
 2067SOL     OW 8097  14.536  12.943  11.397
 2067SOL    HW1 8098  14.555  12.852  11.375
 2067SOL    HW2 8099  14.590  12.961  11.474
 2068SOL     OW 8100   8.355   3.378   1.617
 2068SOL    HW1 8101   8.368   3.305   1.557
 2068SOL    HW2 8102   8.265   3.407   1.600
 2069SOL     OW 8103   7.000   7.282   8.490
 2069SOL    HW1 8104   6.956   7.366   8.506
 2069SOL    HW2 8105   6.962   7.251   8.407
 2070SOL     OW 8106  10.634   4.945   6.615
 2070SOL    HW1 8107  10.704   4.921   6.676
 2070SOL    HW2 8108  10.637   4.878   6.547
 2071SOL     OW 8109   2.214  14.139   3.833
 2071SOL    HW1 8110   2.150  14.068   3.835
 2071SOL    HW2 8111   2.195  14.186   3.751
 2072SOL     OW 8112  12.211   1.305  12.785
 2072SOL    HW1 8113  12.123   1.321  12.821
 2072SOL    HW2 8114  12.217   1.210  12.777
 2073SOL     OW 8115   6.869   4.509  10.825
 2073SOL    HW1 8116   6.879   4.603  10.844
 2073SOL    HW2 8117   6.858   4.469  10.911
 2074SOL     OW 8118   6.624   1.027   9.138
 2074SOL    HW1 8119   6.645   1.006   9.047
 2074SOL    HW2 8120   6.532   1.051   9.137
 2075SOL     OW 8121   5.007   2.549   4.306
 2075SOL    HW1 8122   4.994   2.610   4.378
 2075SOL    HW2 8123   5.088   2.503   4.328
 2076SOL     OW 8124   1.277  14.395  11.800
 2076SOL    HW1 8125   1.367  14.396  11.832
 2076SOL    HW2 8126   1.266  14.480  11.757
 2077SOL     OW 8127   1.450  14.502  10.613
 2077SOL    HW1 8128   1.462  14.589  10.576
 2077SOL    HW2 8129   1.539  14.469  10.627
 2078SOL     OW 8130  14.300  12.167   0.165
 2078SOL    HW1 8131  14.243  12.191   0.238
 2078SOL    HW2 8132  14.368  12.234   0.165
 2079SOL     OW 8133   5.746   0.939  14.405
 2079SOL    HW1 8134   5.816   0.878  14.428
 2079SOL    HW2 8135   5.725   0.983  14.487
 2080SOL     OW 8136  14.555  12.757   0.937
 2080SOL    HW1 8137  14.590  12.670   0.923
 2080SOL    HW2 8138  14.469  12.756   0.895
 2081SOL     OW 8139   6.685   5.951   7.352
 2081SOL    HW1 8140   6.628   5.930   7.426
 2081SOL    HW2 8141   6.627   5.984   7.284
 2082SOL     OW 8142   3.137  13.850  10.921
 2082SOL    HW1 8143   3.199  13.860  10.994
 2082SOL    HW2 8144   3.082  13.928  10.926
 2083SOL     OW 8145  11.027  10.885   3.964
 2083SOL    HW1 8146  10.933  10.870   3.963
 2083SOL    HW2 8147  11.060  10.828   4.033
 2084SOL     OW 8148   6.793   3.594  13.670
 2084SOL    HW1 8149   6.830   3.665  13.722
 2084SOL    HW2 8150   6.794   3.626  13.580
 2085SOL     OW 8151  10.913   2.665  10.273
 2085SOL    HW1 8152  10.888   2.574  10.254
 2085SOL    HW2 8153  10.974   2.687  10.202
 2086SOL     OW 8154  11.102   2.884  12.559
 2086SOL    HW1 8155  11.113   2.796  12.595
 2086SOL    HW2 8156  11.015   2.911  12.589
 2087SOL     OW 8157   6.934  14.099   8.657
 2087SOL    HW1 8158   6.961  14.136   8.573
 2087SOL    HW2 8159   7.006  14.041   8.681
 2088SOL     OW 8160   3.884  14.197   2.173
 2088SOL    HW1 8161   3.971  14.228   2.146
 2088SOL    HW2 8162   3.826  14.224   2.101
 2089SOL     OW 8163   1.923  10.709   7.010
 2089SOL    HW1 8164   1.932  10.627   7.060
 2089SOL    HW2 8165   2.002  10.758   7.031
 2090SOL     OW 8166   8.443  10.256   5.739
 2090SOL    HW1 8167   8.447  10.349   5.761
 2090SOL    HW2 8168   8.368  10.248   5.681
 2091SOL     OW 8169  13.873   6.321   5.456
 2091SOL    HW1 8170  13.789   6.328   5.410
 2091SOL    HW2 8171  13.849   6.309   5.548
 2092SOL     OW 8172   7.043  10.600  11.598
 2092SOL    HW1 8173   6.970  10.652  11.565
 2092SOL    HW2 8174   7.072  10.645  11.677
 2093SOL     OW 8175  10.229   9.004   6.593
 2093SOL    HW1 8176  10.320   9.034   6.584
 2093SOL    HW2 8177  10.177   9.071   6.550
 2094SOL     OW 8178   4.420   8.040   1.654
 2094SOL    HW1 8179   4.473   8.012   1.729
 2094SOL    HW2 8180   4.334   8.061   1.691
 2095SOL     OW 8181  12.054   1.108   0.969
 2095SOL    HW1 8182  12.050   1.185   1.025
 2095SOL    HW2 8183  11.962   1.086   0.952
 2096SOL     OW 8184   7.206   6.723   8.597
 2096SOL    HW1 8185   7.213   6.678   8.513
 2096SOL    HW2 8186   7.121   6.767   8.594
 2097SOL     OW 8187   8.654  11.537   2.147
 2097SOL    HW1 8188   8.701  11.492   2.077
 2097SOL    HW2 8189   8.580  11.479   2.167
 2098SOL     OW 8190  12.272   4.249  13.521
 2098SOL    HW1 8191  12.254   4.213  13.607
 2098SOL    HW2 8192  12.251   4.342  13.529
 2099SOL     OW 8193   9.884  10.095   8.489
 2099SOL    HW1 8194   9.883  10.171   8.430
 2099SOL    HW2 8195   9.793  10.067   8.493
 2100SOL     OW 8196   4.101   8.157   8.107
 2100SOL    HW1 8197   4.080   8.176   8.016
 2100SOL    HW2 8198   4.040   8.211   8.157
 2101SOL     OW 8199  14.817  13.807   4.807
 2101SOL    HW1 8200  14.802  13.784   4.715
 2101SOL    HW2 8201  14.796  13.728   4.855
 2102SOL     OW 8202   1.742  12.094   1.264
 2102SOL    HW1 8203   1.752  12.032   1.192
 2102SOL    HW2 8204   1.678  12.053   1.322
 2103SOL     OW 8205  11.830   8.875   6.995
 2103SOL    HW1 8206  11.866   8.921   7.071
 2103SOL    HW2 8207  11.894   8.892   6.925
 2104SOL     OW 8208  10.000   1.808   1.302
 2104SOL    HW1 8209  10.020   1.887   1.352
 2104SOL    HW2 8210   9.954   1.751   1.363
 2105SOL     OW 8211  10.941  12.678  14.831
 2105SOL    HW1 8212  10.954  12.770  14.854
 2105SOL    HW2 8213  10.850  12.660  14.854
 2106SOL     OW 8214   0.249  11.003   6.452
 2106SOL    HW1 8215   0.323  10.972   6.400
 2106SOL    HW2 8216   0.216  11.079   6.403
 2107SOL     OW 8217  12.186  12.041  13.103
 2107SOL    HW1 8218  12.168  11.982  13.030
 2107SOL    HW2 8219  12.113  12.102  13.104
 2108SOL     OW 8220   2.597   6.976   1.766
 2108SOL    HW1 8221   2.532   7.028   1.718
 2108SOL    HW2 8222   2.634   6.917   1.701
 2109SOL     OW 8223  10.273  10.034  10.699
 2109SOL    HW1 8224  10.261   9.957  10.755
 2109SOL    HW2 8225  10.363  10.062  10.716
 2110SOL     OW 8226   0.410   2.589   9.397
 2110SOL    HW1 8227   0.355   2.560   9.470
 2110SOL    HW2 8228   0.375   2.675   9.373
 2111SOL     OW 8229   0.844   4.920  13.819
 2111SOL    HW1 8230   0.885   5.001  13.849
 2111SOL    HW2 8231   0.852   4.922  13.724
 2112SOL     OW 8232  12.367   5.794   3.444
 2112SOL    HW1 8233  12.328   5.871   3.403
 2112SOL    HW2 8234  12.456   5.820   3.465
 2113SOL     OW 8235  13.710   5.251   3.407
 2113SOL    HW1 8236  13.708   5.195   3.484
 2113SOL    HW2 8237  13.629   5.301   3.412
 2114SOL     OW 8238   6.316  12.783   8.953
 2114SOL    HW1 8239   6.353  12.701   8.923
 2114SOL    HW2 8240   6.359  12.850   8.900
 2115SOL     OW 8241   7.360  10.099   3.898
 2115SOL    HW1 8242   7.306  10.079   3.822
 2115SOL    HW2 8243   7.364  10.195   3.900
 2116SOL     OW 8244   2.736  12.928  11.096
 2116SOL    HW1 8245   2.746  12.899  11.005
 2116SOL    HW2 8246   2.678  13.004  11.091
 2117SOL     OW 8247   8.046   5.866  12.258
 2117SOL    HW1 8248   8.071   5.779  12.288
 2117SOL    HW2 8249   8.013   5.852  12.169
 2118SOL     OW 8250   1.531  11.341  14.263
 2118SOL    HW1 8251   1.623  11.364  14.251
 2118SOL    HW2 8252   1.532  11.276  14.334
 2119SOL     OW 8253  14.128   4.815  10.005
 2119SOL    HW1 8254  14.081   4.898  10.013
 2119SOL    HW2 8255  14.125   4.778  10.094
 2120SOL     OW 8256   6.018   1.835   9.394
 2120SOL    HW1 8257   5.947   1.866   9.450
 2120SOL    HW2 8258   6.079   1.909   9.390
 2121SOL     OW 8259  12.301   7.441   7.717
 2121SOL    HW1 8260  12.288   7.352   7.750
 2121SOL    HW2 8261  12.212   7.475   7.705
 2122SOL     OW 8262   5.551   9.991   6.999
 2122SOL    HW1 8263   5.611   9.920   6.974
 2122SOL    HW2 8264   5.514   9.963   7.083
 2123SOL     OW 8265   3.245  14.636   6.605
 2123SOL    HW1 8266   3.322  14.638   6.663
 2123SOL    HW2 8267   3.281  14.643   6.517
 2124SOL     OW 8268   2.560  12.536  12.289
 2124SOL    HW1 8269   2.479  12.495  12.321
 2124SOL    HW2 8270   2.536  12.575  12.205
 2125SOL     OW 8271  10.947   6.588  11.060
 2125SOL    HW1 8272  10.998   6.611  10.982
 2125SOL    HW2 8273  11.010   6.594  11.132
 2126SOL     OW 8274  14.176   1.522   3.433
 2126SOL    HW1 8275  14.221   1.606   3.445
 2126SOL    HW2 8276  14.245   1.457   3.437
 2127SOL     OW 8277   0.926  13.013  12.468
 2127SOL    HW1 8278   0.840  12.975  12.449
 2127SOL    HW2 8279   0.988  12.943  12.448
 2128SOL     OW 8280   7.347   2.340   9.428
 2128SOL    HW1 8281   7.415   2.404   9.450
 2128SOL    HW2 8282   7.343   2.342   9.332
 2129SOL     OW 8283   1.311  12.272   7.114
 2129SOL    HW1 8284   1.241  12.281   7.180
 2129SOL    HW2 8285   1.383  12.323   7.149
 2130SOL     OW 8286   1.361  13.327   5.937
 2130SOL    HW1 8287   1.423  13.277   5.990
 2130SOL    HW2 8288   1.328  13.395   5.996
 2131SOL     OW 8289   2.360  10.241   9.274
 2131SOL    HW1 8290   2.335  10.288   9.354
 2131SOL    HW2 8291   2.297  10.270   9.209
 2132SOL     OW 8292  14.702   8.581  10.742
 2132SOL    HW1 8293  14.685   8.575  10.836
 2132SOL    HW2 8294  14.626   8.627  10.706
 2133SOL     OW 8295   1.084   3.792   3.496
 2133SOL    HW1 8296   1.164   3.740   3.502
 2133SOL    HW2 8297   1.080   3.838   3.580
 2134SOL     OW 8298  13.111  13.289  10.628
 2134SOL    HW1 8299  13.182  13.330  10.677
 2134SOL    HW2 8300  13.137  13.197  10.620
 2135SOL     OW 8301  12.471  14.821  13.741
 2135SOL    HW1 8302  12.500   0.045  13.738
 2135SOL    HW2 8303  12.460  14.802  13.834
 2136SOL     OW 8304   6.916   8.453  14.220
 2136SOL    HW1 8305   6.964   8.397  14.281
 2136SOL    HW2 8306   6.850   8.497  14.273
 2137SOL     OW 8307   0.924   3.726   9.057
 2137SOL    HW1 8308   0.924   3.807   9.007
 2137SOL    HW2 8309   1.008   3.685   9.036
 2138SOL     OW 8310  12.695   6.842   0.825
 2138SOL    HW1 8311  12.725   6.767   0.773
 2138SOL    HW2 8312  12.709   6.816   0.916
 2139SOL     OW 8313  14.540   4.717   7.916
 2139SOL    HW1 8314  14.584   4.704   7.832
 2139SOL    HW2 8315  14.488   4.637   7.928
 2140SOL     OW 8316  14.502  11.141  14.717
 2140SOL    HW1 8317  14.569  11.191  14.670
 2140SOL    HW2 8318  14.480  11.196  14.793
 2141SOL     OW 8319   5.433   2.695   6.706
 2141SOL    HW1 8320   5.435   2.662   6.616
 2141SOL    HW2 8321   5.523   2.719   6.725
 2142SOL     OW 8322   6.839   0.455  11.508
 2142SOL    HW1 8323   6.883   0.402  11.574
 2142SOL    HW2 8324   6.800   0.527  11.558
 2143SOL     OW 8325   8.687   4.462   0.447
 2143SOL    HW1 8326   8.616   4.475   0.510
 2143SOL    HW2 8327   8.659   4.510   0.369
 2144SOL     OW 8328   2.394  14.281   8.967
 2144SOL    HW1 8329   2.303  14.275   8.936
 2144SOL    HW2 8330   2.415  14.374   8.958
 2145SOL     OW 8331  12.343   4.470  12.653
 2145SOL    HW1 8332  12.262   4.520  12.638
 2145SOL    HW2 8333  12.403   4.500  12.585
 2146SOL     OW 8334   4.045  10.359   3.086
 2146SOL    HW1 8335   4.140  10.370   3.077
 2146SOL    HW2 8336   4.011  10.448   3.088
 2147SOL     OW 8337  10.342   0.778   3.318
 2147SOL    HW1 8338  10.324   0.790   3.411
 2147SOL    HW2 8339  10.281   0.710   3.290
 2148SOL     OW 8340   8.076  14.141   6.139
 2148SOL    HW1 8341   8.091  14.184   6.055
 2148SOL    HW2 8342   8.148  14.078   6.146
 2149SOL     OW 8343   8.174  12.372  11.568
 2149SOL    HW1 8344   8.180  12.365  11.664
 2149SOL    HW2 8345   8.094  12.424  11.553
 2150SOL     OW 8346   7.836   2.969  10.462
 2150SOL    HW1 8347   7.774   2.961  10.389
 2150SOL    HW2 8348   7.849   2.879  10.492
 2151SOL     OW 8349  14.299   1.280   6.295
 2151SOL    HW1 8350  14.378   1.321   6.259
 2151SOL    HW2 8351  14.279   1.331   6.373
 2152SOL     OW 8352   1.039  13.910  13.560
 2152SOL    HW1 8353   1.122  13.913  13.608
 2152SOL    HW2 8354   0.981  13.970  13.607
 2153SOL     OW 8355   2.361  10.515   5.259
 2153SOL    HW1 8356   2.429  10.543   5.320
 2153SOL    HW2 8357   2.399  10.530   5.172
 2154SOL     OW 8358   7.273  12.423   4.992
 2154SOL    HW1 8359   7.323  12.501   5.016
 2154SOL    HW2 8360   7.340  12.357   4.974
 2155SOL     OW 8361   6.888   3.176   3.784
 2155SOL    HW1 8362   6.943   3.244   3.744
 2155SOL    HW2 8363   6.929   3.094   3.759
 2156SOL     OW 8364   5.325  11.909  13.246
 2156SOL    HW1 8365   5.405  11.962  13.241
 2156SOL    HW2 8366   5.262  11.965  13.290
 2157SOL     OW 8367   8.338   9.358  13.632
 2157SOL    HW1 8368   8.337   9.411  13.712
 2157SOL    HW2 8369   8.326   9.268  13.663
 2158SOL     OW 8370   4.226  13.424   4.586
 2158SOL    HW1 8371   4.300  13.416   4.647
 2158SOL    HW2 8372   4.252  13.370   4.511
 2159SOL     OW 8373   6.579   9.084   9.312
 2159SOL    HW1 8374   6.527   9.030   9.252
 2159SOL    HW2 8375   6.663   9.039   9.319
 2160SOL     OW 8376   9.778   1.869   4.108
 2160SOL    HW1 8377   9.690   1.907   4.106
 2160SOL    HW2 8378   9.769   1.792   4.164
 2161SOL     OW 8379   4.619  14.428  12.795
 2161SOL    HW1 8380   4.607  14.512  12.838
 2161SOL    HW2 8381   4.615  14.364  12.866
 2162SOL     OW 8382   4.556   7.249  12.007
 2162SOL    HW1 8383   4.485   7.281  11.950
 2162SOL    HW2 8384   4.522   7.167  12.043
 2163SOL     OW 8385   3.054   2.662  14.306
 2163SOL    HW1 8386   3.110   2.720  14.358
 2163SOL    HW2 8387   3.026   2.716  14.232
 2164SOL     OW 8388   1.936   3.261   2.895
 2164SOL    HW1 8389   1.959   3.339   2.846
 2164SOL    HW2 8390   1.990   3.264   2.974
 2165SOL     OW 8391   0.294  14.044   8.949
 2165SOL    HW1 8392   0.334  13.968   8.908
 2165SOL    HW2 8393   0.225  14.008   9.005
 2166SOL     OW 8394   1.122  11.306   0.063
 2166SOL    HW1 8395   1.210  11.291   0.099
 2166SOL    HW2 8396   1.119  11.252  14.851
 2167SOL     OW 8397  12.102   1.664   2.669
 2167SOL    HW1 8398  12.052   1.671   2.750
 2167SOL    HW2 8399  12.036   1.653   2.601
 2168SOL     OW 8400   8.642   0.996   5.121
 2168SOL    HW1 8401   8.575   1.004   5.189
 2168SOL    HW2 8402   8.723   1.025   5.163
 2169SOL     OW 8403  14.674   0.475  10.973
 2169SOL    HW1 8404  14.655   0.481  10.880
 2169SOL    HW2 8405  14.747   0.413  10.979
 2170SOL     OW 8406   5.180  12.914  14.160
 2170SOL    HW1 8407   5.152  12.823  14.168
 2170SOL    HW2 8408   5.114  12.964  14.207
 2171SOL     OW 8409  10.978  13.364   0.003
 2171SOL    HW1 8410  10.981  13.360  14.776
 2171SOL    HW2 8411  11.045  13.302   0.032
 2172SOL     OW 8412   5.359   5.737   5.861
 2172SOL    HW1 8413   5.392   5.746   5.772
 2172SOL    HW2 8414   5.306   5.815   5.874
 2173SOL     OW 8415   4.642  12.287  11.555
 2173SOL    HW1 8416   4.603  12.355  11.500
 2173SOL    HW2 8417   4.714  12.252  11.503
 2174SOL     OW 8418   2.877   1.488   7.814
 2174SOL    HW1 8419   2.880   1.448   7.901
 2174SOL    HW2 8420   2.796   1.539   7.815
 2175SOL     OW 8421   7.692   2.548   9.540
 2175SOL    HW1 8422   7.787   2.547   9.548
 2175SOL    HW2 8423   7.675   2.572   9.448
 2176SOL     OW 8424   1.035   5.017   5.878
 2176SOL    HW1 8425   1.077   4.967   5.949
 2176SOL    HW2 8426   1.013   4.952   5.812
 2177SOL     OW 8427   9.445   0.261  12.028
 2177SOL    HW1 8428   9.409   0.240  11.941
 2177SOL    HW2 8429   9.509   0.330  12.011
 2178SOL     OW 8430   4.261  13.382   1.770
 2178SOL    HW1 8431   4.263  13.325   1.846
 2178SOL    HW2 8432   4.189  13.442   1.786
 2179SOL     OW 8433   0.362  14.433  14.138
 2179SOL    HW1 8434   0.355  14.369  14.208
 2179SOL    HW2 8435   0.360  14.518  14.182
 2180SOL     OW 8436  10.885  14.582   3.785
 2180SOL    HW1 8437  10.953  14.559   3.722
 2180SOL    HW2 8438  10.854  14.498   3.818
 2181SOL     OW 8439  14.709   6.049  13.522
 2181SOL    HW1 8440  14.754   6.133  13.530
 2181SOL    HW2 8441  14.687   6.043  13.429
 2182SOL     OW 8442   6.887   0.844  12.561
 2182SOL    HW1 8443   6.977   0.836  12.531
 2182SOL    HW2 8444   6.834   0.810  12.489
 2183SOL     OW 8445  10.115   9.548  13.717
 2183SOL    HW1 8446  10.209   9.535  13.723
 2183SOL    HW2 8447  10.079   9.500  13.792
 2184SOL     OW 8448  10.487   2.795  10.607
 2184SOL    HW1 8449  10.487   2.745  10.526
 2184SOL    HW2 8450  10.427   2.748  10.665
 2185SOL     OW 8451  12.671   5.393  11.245
 2185SOL    HW1 8452  12.765   5.390  11.263
 2185SOL    HW2 8453  12.642   5.302  11.253
 2186SOL     OW 8454   0.501   7.828   7.777
 2186SOL    HW1 8455   0.474   7.795   7.691
 2186SOL    HW2 8456   0.488   7.922   7.772
 2187SOL     OW 8457   8.926  13.395  14.282
 2187SOL    HW1 8458   8.855  13.459  14.288
 2187SOL    HW2 8459   8.951  13.396  14.190
 2188SOL     OW 8460  13.655   0.613   8.894
 2188SOL    HW1 8461  13.743   0.583   8.872
 2188SOL    HW2 8462  13.637   0.683   8.831
 2189SOL     OW 8463   8.343   7.300   3.712
 2189SOL    HW1 8464   8.354   7.393   3.733
 2189SOL    HW2 8465   8.262   7.297   3.660
 2190SOL     OW 8466   9.443   0.461  13.995
 2190SOL    HW1 8467   9.453   0.549  14.032
 2190SOL    HW2 8468   9.422   0.476  13.903
 2191SOL     OW 8469   1.120   5.193   7.027
 2191SOL    HW1 8470   1.037   5.241   7.031
 2191SOL    HW2 8471   1.177   5.249   6.974
 2192SOL     OW 8472  12.223  12.471  11.344
 2192SOL    HW1 8473  12.189  12.383  11.358
 2192SOL    HW2 8474  12.148  12.529  11.360
 2193SOL     OW 8475   6.794  13.917  12.517
 2193SOL    HW1 8476   6.837  13.998  12.490
 2193SOL    HW2 8477   6.701  13.938  12.519
 2194SOL     OW 8478  14.238  11.700  12.201
 2194SOL    HW1 8479  14.142  11.702  12.204
 2194SOL    HW2 8480  14.259  11.678  12.110
 2195SOL     OW 8481   7.789   6.411  14.173
 2195SOL    HW1 8482   7.877   6.444  14.158
 2195SOL    HW2 8483   7.744   6.423  14.089
 2196SOL     OW 8484  14.094   0.726   5.145
 2196SOL    HW1 8485  14.058   0.812   5.166
 2196SOL    HW2 8486  14.102   0.726   5.050
 2197SOL     OW 8487   3.619   6.994   7.869
 2197SOL    HW1 8488   3.587   6.952   7.949
 2197SOL    HW2 8489   3.707   6.959   7.857
 2198SOL     OW 8490   4.794   2.304  13.139
 2198SOL    HW1 8491   4.742   2.253  13.202
 2198SOL    HW2 8492   4.742   2.382  13.122
 2199SOL     OW 8493   5.268  11.013   3.334
 2199SOL    HW1 8494   5.217  11.077   3.384
 2199SOL    HW2 8495   5.230  10.928   3.357
 2200SOL     OW 8496   7.106  12.558   4.801
 2200SOL    HW1 8497   7.149  12.501   4.865
 2200SOL    HW2 8498   7.137  12.646   4.823
 2201SOL     OW 8499   7.975  14.679   1.125
 2201SOL    HW1 8500   8.054  14.725   1.096
 2201SOL    HW2 8501   8.004  14.590   1.144
 2202SOL     OW 8502  11.213   2.654   4.390
 2202SOL    HW1 8503  11.139   2.664   4.450
 2202SOL    HW2 8504  11.262   2.580   4.425
 2203SOL     OW 8505   4.836   5.505  14.150
 2203SOL    HW1 8506   4.774   5.499  14.078
 2203SOL    HW2 8507   4.864   5.414  14.165
 2204SOL     OW 8508  13.424   9.346  14.172
 2204SOL    HW1 8509  13.489   9.373  14.107
 2204SOL    HW2 8510  13.420   9.419  14.234
 2205SOL     OW 8511  11.364  12.991   1.278
 2205SOL    HW1 8512  11.356  13.084   1.301
 2205SOL    HW2 8513  11.439  12.987   1.219
 2206SOL     OW 8514  10.508   2.365  14.619
 2206SOL    HW1 8515  10.454   2.358  14.698
 2206SOL    HW2 8516  10.597   2.348  14.649
 2207SOL     OW 8517  14.642  11.156  12.809
 2207SOL    HW1 8518  14.688  11.077  12.838
 2207SOL    HW2 8519  14.598  11.130  12.728
 2208SOL     OW 8520  14.243   2.358   6.482
 2208SOL    HW1 8521  14.239   2.263   6.472
 2208SOL    HW2 8522  14.331   2.375   6.517
 2209SOL     OW 8523   0.218   3.751   7.578
 2209SOL    HW1 8524   0.170   3.685   7.628
 2209SOL    HW2 8525   0.205   3.726   7.487
 2210SOL     OW 8526  11.305  10.605  11.844
 2210SOL    HW1 8527  11.288  10.635  11.934
 2210SOL    HW2 8528  11.400  10.613  11.834
 2211SOL     OW 8529   1.324   4.398   5.843
 2211SOL    HW1 8530   1.380   4.338   5.893
 2211SOL    HW2 8531   1.288   4.343   5.773
 2212SOL     OW 8532   3.374  14.560   6.949
 2212SOL    HW1 8533   3.446  14.572   6.887
 2212SOL    HW2 8534   3.301  14.530   6.896
 2213SOL     OW 8535   8.863   7.418   2.127
 2213SOL    HW1 8536   8.930   7.441   2.192
 2213SOL    HW2 8537   8.816   7.499   2.111
 2214SOL     OW 8538   3.762   1.767  13.534
 2214SOL    HW1 8539   3.782   1.714  13.456
 2214SOL    HW2 8540   3.826   1.839  13.531
 2215SOL     OW 8541   8.879   4.808   5.661
 2215SOL    HW1 8542   8.862   4.721   5.625
 2215SOL    HW2 8543   8.968   4.829   5.634
 2216SOL     OW 8544  12.908   4.561  11.886
 2216SOL    HW1 8545  12.868   4.579  11.801
 2216SOL    HW2 8546  12.887   4.638  11.939
 2217SOL     OW 8547   3.491   4.203   5.283
 2217SOL    HW1 8548   3.513   4.111   5.298
 2217SOL    HW2 8549   3.412   4.217   5.336
 2218SOL     OW 8550  10.813   6.974   4.135
 2218SOL    HW1 8551  10.803   6.950   4.043
 2218SOL    HW2 8552  10.753   7.047   4.148
 2219SOL     OW 8553   5.909  10.130  12.974
 2219SOL    HW1 8554   5.835  10.182  13.007
 2219SOL    HW2 8555   5.868  10.069  12.913
 2220SOL     OW 8556   2.815   2.812  12.728
 2220SOL    HW1 8557   2.884   2.746  12.723
 2220SOL    HW2 8558   2.819   2.857  12.644
 2221SOL     OW 8559   2.417  10.568   0.554
 2221SOL    HW1 8560   2.483  10.572   0.623
 2221SOL    HW2 8561   2.402  10.660   0.530
 2222SOL     OW 8562   4.086   3.096   1.370
 2222SOL    HW1 8563   4.024   3.121   1.439
 2222SOL    HW2 8564   4.128   3.178   1.345
 2223SOL     OW 8565  12.320   9.672   5.322
 2223SOL    HW1 8566  12.325   9.577   5.325
 2223SOL    HW2 8567  12.407   9.700   5.294
 2224SOL     OW 8568  13.330   9.591   6.506
 2224SOL    HW1 8569  13.300   9.501   6.515
 2224SOL    HW2 8570  13.333   9.607   6.412
 2225SOL     OW 8571  10.276  10.624   1.505
 2225SOL    HW1 8572  10.263  10.676   1.426
 2225SOL    HW2 8573  10.224  10.545   1.490
 2226SOL     OW 8574  13.912  10.887   2.916
 2226SOL    HW1 8575  13.949  10.800   2.934
 2226SOL    HW2 8576  13.845  10.899   2.984
 2227SOL     OW 8577  11.157   5.596  12.627
 2227SOL    HW1 8578  11.141   5.568  12.537
 2227SOL    HW2 8579  11.230   5.541  12.657
 2228SOL     OW 8580  11.022  10.828   6.100
 2228SOL    HW1 8581  11.088  10.785   6.046
 2228SOL    HW2 8582  11.057  10.824   6.189
 2229SOL     OW 8583  12.305   3.676   9.525
 2229SOL    HW1 8584  12.294   3.644   9.435
 2229SOL    HW2 8585  12.286   3.599   9.579
 2230SOL     OW 8586   2.333   9.281   2.673
 2230SOL    HW1 8587   2.415   9.296   2.627
 2230SOL    HW2 8588   2.294   9.369   2.681
 2231SOL     OW 8589  11.658  12.928   4.103
 2231SOL    HW1 8590  11.657  12.926   4.199
 2231SOL    HW2 8591  11.748  12.952   4.081
 2232SOL     OW 8592   8.788   3.586   8.755
 2232SOL    HW1 8593   8.709   3.636   8.776
 2232SOL    HW2 8594   8.831   3.572   8.839
 2233SOL     OW 8595   5.085  12.573   7.052
 2233SOL    HW1 8596   5.109  12.655   7.009
 2233SOL    HW2 8597   5.160  12.553   7.108
 2234SOL     OW 8598   2.533  11.453   3.675
 2234SOL    HW1 8599   2.467  11.442   3.607
 2234SOL    HW2 8600   2.531  11.370   3.723
 2235SOL     OW 8601  11.928  14.777   2.638
 2235SOL    HW1 8602  11.979  14.808   2.713
 2235SOL    HW2 8603  11.987  14.786   2.563
 2236SOL     OW 8604   7.274   3.115  12.303
 2236SOL    HW1 8605   7.196   3.160  12.333
 2236SOL    HW2 8606   7.307   3.169  12.231
 2237SOL     OW 8607   9.028  12.743   9.705
 2237SOL    HW1 8608   9.046  12.684   9.632
 2237SOL    HW2 8609   9.029  12.831   9.665
 2238SOL     OW 8610  10.697   9.451   8.759
 2238SOL    HW1 8611  10.744   9.493   8.687
 2238SOL    HW2 8612  10.616   9.419   8.720
 2239SOL     OW 8613  13.591  14.455  14.727
 2239SOL    HW1 8614  13.676  14.411  14.739
 2239SOL    HW2 8615  13.585  14.471  14.633
 2240SOL     OW 8616   2.650   9.555   2.960
 2240SOL    HW1 8617   2.702   9.587   3.034
 2240SOL    HW2 8618   2.574   9.514   3.001
 2241SOL     OW 8619   0.849  11.518  12.588
 2241SOL    HW1 8620   0.884  11.607  12.591
 2241SOL    HW2 8621   0.758  11.529  12.560
 2242SOL     OW 8622   5.130  10.422   0.148
 2242SOL    HW1 8623   5.149  10.414   0.055
 2242SOL    HW2 8624   5.106  10.334   0.175
 2243SOL     OW 8625   2.800   6.124   3.282
 2243SOL    HW1 8626   2.710   6.128   3.249
 2243SOL    HW2 8627   2.846   6.072   3.216
 2244SOL     OW 8628   1.254  13.915   9.628
 2244SOL    HW1 8629   1.343  13.889   9.652
 2244SOL    HW2 8630   1.203  13.834   9.632
 2245SOL     OW 8631  14.639  10.634   7.861
 2245SOL    HW1 8632  14.726  10.615   7.897
 2245SOL    HW2 8633  14.631  10.729   7.865
 2246SOL     OW 8634   3.275   7.485   7.284
 2246SOL    HW1 8635   3.338   7.439   7.229
 2246SOL    HW2 8636   3.210   7.519   7.223
 2247SOL     OW 8637   7.288   7.061   6.196
 2247SOL    HW1 8638   7.322   7.100   6.115
 2247SOL    HW2 8639   7.365   7.040   6.247
 2248SOL     OW 8640   8.039   9.588   6.344
 2248SOL    HW1 8641   8.000   9.502   6.361
 2248SOL    HW2 8642   7.971   9.650   6.370
 2249SOL     OW 8643  14.406   4.655   9.451
 2249SOL    HW1 8644  14.495   4.685   9.429
 2249SOL    HW2 8645  14.401   4.567   9.415
 2250SOL     OW 8646   0.770   9.680   1.573
 2250SOL    HW1 8647   0.794   9.719   1.657
 2250SOL    HW2 8648   0.771   9.753   1.511
 2251SOL     OW 8649   0.508  11.425   5.180
 2251SOL    HW1 8650   0.554  11.368   5.242
 2251SOL    HW2 8651   0.460  11.487   5.235
 2252SOL     OW 8652  12.850   7.939  14.547
 2252SOL    HW1 8653  12.873   7.850  14.571
 2252SOL    HW2 8654  12.807   7.974  14.625
 2253SOL     OW 8655  13.695   7.107  14.064
 2253SOL    HW1 8656  13.678   7.195  14.031
 2253SOL    HW2 8657  13.630   7.093  14.132
 2254SOL     OW 8658  13.593   1.298  10.793
 2254SOL    HW1 8659  13.602   1.203  10.803
 2254SOL    HW2 8660  13.655   1.321  10.725
 2255SOL     OW 8661  14.099   6.323   3.937
 2255SOL    HW1 8662  14.162   6.375   3.987
 2255SOL    HW2 8663  14.030   6.302   4.000
 2256SOL     OW 8664   5.565   0.050   1.364
 2256SOL    HW1 8665   5.634   0.017   1.307
 2256SOL    HW2 8666   5.510   0.104   1.306
 2257SOL     OW 8667  12.522   4.981  12.469
 2257SOL    HW1 8668  12.608   4.979  12.427
 2257SOL    HW2 8669  12.492   5.072  12.458
 2258SOL     OW 8670   0.352   7.879  14.733
 2258SOL    HW1 8671   0.408   7.947  14.771
 2258SOL    HW2 8672   0.311   7.838  14.809
 2259SOL     OW 8673   6.211   3.705  10.470
 2259SOL    HW1 8674   6.152   3.768  10.428
 2259SOL    HW2 8675   6.184   3.621  10.434
 2260SOL     OW 8676   1.531   1.988   2.124
 2260SOL    HW1 8677   1.612   2.038   2.115
 2260SOL    HW2 8678   1.531   1.927   2.050
 2261SOL     OW 8679   1.372  12.769  10.231
 2261SOL    HW1 8680   1.410  12.703  10.289
 2261SOL    HW2 8681   1.344  12.719  10.154
 2262SOL     OW 8682   6.555   7.656   2.621
 2262SOL    HW1 8683   6.481   7.694   2.572
 2262SOL    HW2 8684   6.609   7.614   2.554
 2263SOL     OW 8685   4.018   7.704  12.348
 2263SOL    HW1 8686   4.030   7.741  12.436
 2263SOL    HW2 8687   3.975   7.620  12.363
 2264SOL     OW 8688   9.284   0.619  10.252
 2264SOL    HW1 8689   9.296   0.533  10.292
 2264SOL    HW2 8690   9.370   0.661  10.261
 2265SOL     OW 8691  13.289  14.168   6.795
 2265SOL    HW1 8692  13.214  14.168   6.736
 2265SOL    HW2 8693  13.336  14.250   6.774
 2266SOL     OW 8694  12.223   3.169   3.983
 2266SOL    HW1 8695  12.165   3.182   3.908
 2266SOL    HW2 8696  12.188   3.227   4.051
 2267SOL     OW 8697   4.260   3.112   9.996
 2267SOL    HW1 8698   4.235   3.024   9.970
 2267SOL    HW2 8699   4.182   3.149  10.037
 2268SOL     OW 8700   9.108   7.035  10.269
 2268SOL    HW1 8701   9.101   6.944  10.239
 2268SOL    HW2 8702   9.175   7.033  10.337
 2269SOL     OW 8703   9.449   3.419   7.608
 2269SOL    HW1 8704   9.518   3.445   7.547
 2269SOL    HW2 8705   9.369   3.456   7.571
 2270SOL     OW 8706  10.501   9.195   2.775
 2270SOL    HW1 8707  10.569   9.129   2.788
 2270SOL    HW2 8708  10.534   9.250   2.704
 2271SOL     OW 8709  11.680   4.323   1.147
 2271SOL    HW1 8710  11.634   4.362   1.221
 2271SOL    HW2 8711  11.758   4.376   1.136
 2272SOL     OW 8712  13.954  11.280   4.866
 2272SOL    HW1 8713  13.873  11.228   4.866
 2272SOL    HW2 8714  14.023  11.216   4.851
 2273SOL     OW 8715   3.104   8.902   1.909
 2273SOL    HW1 8716   3.048   8.825   1.924
 2273SOL    HW2 8717   3.125   8.898   1.816
 2274SOL     OW 8718   4.521  12.616   2.873
 2274SOL    HW1 8719   4.467  12.537   2.877
 2274SOL    HW2 8720   4.460  12.688   2.887
 2275SOL     OW 8721   6.219  12.853   1.475
 2275SOL    HW1 8722   6.167  12.835   1.554
 2275SOL    HW2 8723   6.302  12.886   1.509
 2276SOL     OW 8724   1.364   7.388   3.528
 2276SOL    HW1 8725   1.422   7.428   3.464
 2276SOL    HW2 8726   1.299   7.341   3.475
 2277SOL     OW 8727  10.625   2.220   8.332
 2277SOL    HW1 8728  10.545   2.171   8.350
 2277SOL    HW2 8729  10.692   2.178   8.385
 2278SOL     OW 8730  13.111   2.388   2.113
 2278SOL    HW1 8731  13.050   2.326   2.154
 2278SOL    HW2 8732  13.111   2.464   2.171
 2279SOL     OW 8733  11.449   2.402  13.393
 2279SOL    HW1 8734  11.536   2.379  13.359
 2279SOL    HW2 8735  11.418   2.321  13.433
 2280SOL     OW 8736  13.054   0.231   1.455
 2280SOL    HW1 8737  12.996   0.265   1.387
 2280SOL    HW2 8738  13.009   0.251   1.537
 2281SOL     OW 8739  13.248  10.784  12.802
 2281SOL    HW1 8740  13.212  10.872  12.813
 2281SOL    HW2 8741  13.277  10.781  12.711
 2282SOL     OW 8742   0.202   9.726  13.449
 2282SOL    HW1 8743   0.160   9.764  13.371
 2282SOL    HW2 8744   0.287   9.770  13.454
 2283SOL     OW 8745  14.249  12.981   8.214
 2283SOL    HW1 8746  14.244  12.956   8.121
 2283SOL    HW2 8747  14.234  13.075   8.214
 2284SOL     OW 8748   5.819  10.082   2.007
 2284SOL    HW1 8749   5.826  10.130   1.924
 2284SOL    HW2 8750   5.896  10.025   2.008
 2285SOL     OW 8751   4.878  10.724  11.182
 2285SOL    HW1 8752   4.935  10.656  11.145
 2285SOL    HW2 8753   4.790  10.696  11.157
 2286SOL     OW 8754   3.385  12.834   0.230
 2286SOL    HW1 8755   3.368  12.928   0.227
 2286SOL    HW2 8756   3.476  12.827   0.257
 2287SOL     OW 8757  13.111  13.688  12.200
 2287SOL    HW1 8758  13.148  13.631  12.267
 2287SOL    HW2 8759  13.113  13.775  12.239
 2288SOL     OW 8760   6.838   2.985  14.001
 2288SOL    HW1 8761   6.903   3.054  14.012
 2288SOL    HW2 8762   6.829   2.974  13.906
 2289SOL     OW 8763   5.691  14.512   5.660
 2289SOL    HW1 8764   5.719  14.448   5.596
 2289SOL    HW2 8765   5.718  14.476   5.744
 2290SOL     OW 8766  11.702  12.983  12.305
 2290SOL    HW1 8767  11.724  12.938  12.387
 2290SOL    HW2 8768  11.786  13.018  12.274
 2291SOL     OW 8769   6.017  14.408  14.827
 2291SOL    HW1 8770   6.019  14.493  14.783
 2291SOL    HW2 8771   5.993  14.428   0.049
 2292SOL     OW 8772   0.219  10.824   6.919
 2292SOL    HW1 8773   0.158  10.763   6.959
 2292SOL    HW2 8774   0.230  10.792   6.829
 2293SOL     OW 8775  13.317   6.270  11.006
 2293SOL    HW1 8776  13.373   6.346  11.023
 2293SOL    HW2 8777  13.369   6.195  11.033
 2294SOL     OW 8778   9.039  11.840   9.833
 2294SOL    HW1 8779   9.017  11.832   9.926
 2294SOL    HW2 8780   9.121  11.890   9.832
 2295SOL     OW 8781   9.483   5.848   9.957
 2295SOL    HW1 8782   9.518   5.800   9.881
 2295SOL    HW2 8783   9.413   5.902   9.921
 2296SOL     OW 8784   3.559   0.950   3.183
 2296SOL    HW1 8785   3.645   0.934   3.143
 2296SOL    HW2 8786   3.580   0.975   3.274
 2297SOL     OW 8787  13.145  11.222  10.594
 2297SOL    HW1 8788  13.113  11.294  10.539
 2297SOL    HW2 8789  13.240  11.234  10.596
 2298SOL     OW 8790   1.890  13.918  13.495
 2298SOL    HW1 8791   1.889  13.974  13.573
 2298SOL    HW2 8792   1.926  13.974  13.426
 2299SOL     OW 8793  13.070   9.126  10.186
 2299SOL    HW1 8794  13.095   9.060  10.252
 2299SOL    HW2 8795  12.974   9.121  10.183
 2300SOL     OW 8796  10.647   2.709  12.815
 2300SOL    HW1 8797  10.660   2.792  12.861
 2300SOL    HW2 8798  10.633   2.733  12.724
 2301SOL     OW 8799   7.394   2.835   1.511
 2301SOL    HW1 8800   7.378   2.814   1.420
 2301SOL    HW2 8801   7.443   2.917   1.509
 2302SOL     OW 8802  13.614  13.214  13.454
 2302SOL    HW1 8803  13.573  13.234  13.370
 2302SOL    HW2 8804  13.628  13.120  13.452
 2303SOL     OW 8805  13.082  10.348   5.427
 2303SOL    HW1 8806  13.035  10.322   5.506
 2303SOL    HW2 8807  13.050  10.287   5.360
 2304SOL     OW 8808   3.586  12.769  14.188
 2304SOL    HW1 8809   3.635  12.842  14.150
 2304SOL    HW2 8810   3.648  12.696  14.185
 2305SOL     OW 8811  13.089   6.577   6.763
 2305SOL    HW1 8812  13.102   6.592   6.857
 2305SOL    HW2 8813  13.009   6.524   6.758
 2306SOL     OW 8814   9.944  12.721   5.994
 2306SOL    HW1 8815   9.917  12.763   5.913
 2306SOL    HW2 8816   9.889  12.761   6.061
 2307SOL     OW 8817  11.619   8.403   2.958
 2307SOL    HW1 8818  11.656   8.376   2.874
 2307SOL    HW2 8819  11.687   8.457   2.998
 2308SOL     OW 8820   1.451   0.929  10.664
 2308SOL    HW1 8821   1.397   0.858  10.700
 2308SOL    HW2 8822   1.508   0.955  10.737
 2309SOL     OW 8823   4.172   5.636   7.981
 2309SOL    HW1 8824   4.150   5.725   7.952
 2309SOL    HW2 8825   4.240   5.608   7.920
 2310SOL     OW 8826  11.222   2.242   1.853
 2310SOL    HW1 8827  11.234   2.244   1.948
 2310SOL    HW2 8828  11.307   2.267   1.817
 2311SOL     OW 8829  13.246  14.576  11.067
 2311SOL    HW1 8830  13.246  14.504  11.130
 2311SOL    HW2 8831  13.153  14.596  11.053
 2312SOL     OW 8832   1.852   8.587   3.061
 2312SOL    HW1 8833   1.806   8.662   3.098
 2312SOL    HW2 8834   1.879   8.615   2.974
 2313SOL     OW 8835   4.337   5.136  10.906
 2313SOL    HW1 8836   4.398   5.184  10.849
 2313SOL    HW2 8837   4.320   5.196  10.978
 2314SOL     OW 8838  12.690  14.116  10.276
 2314SOL    HW1 8839  12.771  14.095  10.321
 2314SOL    HW2 8840  12.711  14.194  10.224
 2315SOL     OW 8841   5.423   9.529  13.412
 2315SOL    HW1 8842   5.461   9.443  13.425
 2315SOL    HW2 8843   5.491   9.590  13.439
 2316SOL     OW 8844  13.805   5.771   1.246
 2316SOL    HW1 8845  13.792   5.692   1.192
 2316SOL    HW2 8846  13.782   5.843   1.187
 2317SOL     OW 8847   6.104   8.310  10.487
 2317SOL    HW1 8848   6.088   8.223  10.525
 2317SOL    HW2 8849   6.120   8.366  10.563
 2318SOL     OW 8850   7.050   2.206   7.289
 2318SOL    HW1 8851   7.054   2.300   7.308
 2318SOL    HW2 8852   7.061   2.200   7.194
 2319SOL     OW 8853   8.342  11.311   7.368
 2319SOL    HW1 8854   8.359  11.255   7.292
 2319SOL    HW2 8855   8.307  11.392   7.331
 2320SOL     OW 8856   6.328   5.808  10.454
 2320SOL    HW1 8857   6.341   5.868  10.381
 2320SOL    HW2 8858   6.257   5.750  10.426
 2321SOL     OW 8859   2.513   5.528   5.923
 2321SOL    HW1 8860   2.601   5.504   5.952
 2321SOL    HW2 8861   2.519   5.621   5.904
 2322SOL     OW 8862   5.191  13.064   3.501
 2322SOL    HW1 8863   5.149  12.993   3.453
 2322SOL    HW2 8864   5.230  13.022   3.577
 2323SOL     OW 8865  10.475   7.533   9.576
 2323SOL    HW1 8866  10.516   7.472   9.636
 2323SOL    HW2 8867  10.527   7.613   9.583
 2324SOL     OW 8868   9.726  11.954  12.624
 2324SOL    HW1 8869   9.702  12.046  12.639
 2324SOL    HW2 8870   9.781  11.932  12.699
 2325SOL     OW 8871  12.248   5.303  13.908
 2325SOL    HW1 8872  12.156   5.319  13.930
 2325SOL    HW2 8873  12.297   5.341  13.981
 2326SOL     OW 8874   5.142   3.540   8.062
 2326SOL    HW1 8875   5.073   3.548   7.996
 2326SOL    HW2 8876   5.138   3.449   8.091
 2327SOL     OW 8877  10.387   8.076   3.160
 2327SOL    HW1 8878  10.474   8.036   3.150
 2327SOL    HW2 8879  10.327   8.014   3.119
 2328SOL     OW 8880  14.414   5.278  12.674
 2328SOL    HW1 8881  14.383   5.192  12.702
 2328SOL    HW2 8882  14.350   5.308  12.610
 2329SOL     OW 8883  14.525   3.240   6.149
 2329SOL    HW1 8884  14.597   3.230   6.087
 2329SOL    HW2 8885  14.488   3.326   6.129
 2330SOL     OW 8886  10.495   4.597   3.775
 2330SOL    HW1 8887  10.587   4.615   3.791
 2330SOL    HW2 8888  10.451   4.619   3.857
 2331SOL     OW 8889   6.507   6.090   5.557
 2331SOL    HW1 8890   6.497   6.076   5.463
 2331SOL    HW2 8891   6.432   6.047   5.596
 2332SOL     OW 8892  11.928   0.830   7.427
 2332SOL    HW1 8893  11.862   0.796   7.366
 2332SOL    HW2 8894  11.963   0.908   7.385
 2333SOL     OW 8895  12.346  13.258   4.244
 2333SOL    HW1 8896  12.322  13.322   4.311
 2333SOL    HW2 8897  12.370  13.311   4.168
 2334SOL     OW 8898   1.924   5.231   7.547
 2334SOL    HW1 8899   1.979   5.171   7.496
 2334SOL    HW2 8900   1.957   5.224   7.636
 2335SOL     OW 8901  10.743   0.877   7.420
 2335SOL    HW1 8902  10.677   0.944   7.435
 2335SOL    HW2 8903  10.692   0.799   7.396
 2336SOL     OW 8904   5.373   1.183   4.173
 2336SOL    HW1 8905   5.363   1.128   4.094
 2336SOL    HW2 8906   5.445   1.141   4.221
 2337SOL     OW 8907   1.312   2.390   2.668
 2337SOL    HW1 8908   1.245   2.359   2.607
 2337SOL    HW2 8909   1.354   2.310   2.701
 2338SOL     OW 8910  11.374  12.751   2.512
 2338SOL    HW1 8911  11.383  12.657   2.501
 2338SOL    HW2 8912  11.317  12.761   2.588
 2339SOL     OW 8913   6.018  11.291   6.749
 2339SOL    HW1 8914   6.060  11.317   6.831
 2339SOL    HW2 8915   6.089  11.257   6.695
 2340SOL     OW 8916   0.126   1.606   6.868
 2340SOL    HW1 8917   0.097   1.588   6.958
 2340SOL    HW2 8918   0.185   1.681   6.876
 2341SOL     OW 8919  12.079   7.895   1.015
 2341SOL    HW1 8920  12.131   7.876   1.093
 2341SOL    HW2 8921  12.107   7.982   0.988
 2342SOL     OW 8922  13.003   1.082  13.576
 2342SOL    HW1 8923  12.994   1.000  13.528
 2342SOL    HW2 8924  13.098   1.099  13.575
 2343SOL     OW 8925   1.359   4.524  12.841
 2343SOL    HW1 8926   1.410   4.595  12.880
 2343SOL    HW2 8927   1.421   4.451  12.833
 2344SOL     OW 8928   5.000  10.464  11.948
 2344SOL    HW1 8929   4.908  10.463  11.921
 2344SOL    HW2 8930   4.998  10.457  12.043
 2345SOL     OW 8931   9.192  11.487   0.768
 2345SOL    HW1 8932   9.272  11.474   0.716
 2345SOL    HW2 8933   9.204  11.431   0.844
 2346SOL     OW 8934   2.557   0.858   5.677
 2346SOL    HW1 8935   2.506   0.923   5.725
 2346SOL    HW2 8936   2.629   0.835   5.736
 2347SOL     OW 8937   5.090  13.898   0.175
 2347SOL    HW1 8938   5.025  13.903   0.245
 2347SOL    HW2 8939   5.124  13.987   0.167
 2348SOL     OW 8940  11.307  11.489   9.711
 2348SOL    HW1 8941  11.295  11.567   9.657
 2348SOL    HW2 8942  11.244  11.499   9.782
 2349SOL     OW 8943  14.863  12.935   0.257
 2349SOL    HW1 8944  14.848  13.020   0.215
 2349SOL    HW2 8945  14.825  12.945   0.345
 2350SOL     OW 8946   8.608   1.677   9.915
 2350SOL    HW1 8947   8.673   1.607   9.907
 2350SOL    HW2 8948   8.628   1.737   9.844
 2351SOL     OW 8949   7.419   3.014   2.554
 2351SOL    HW1 8950   7.495   2.980   2.505
 2351SOL    HW2 8951   7.407   2.951   2.625
 2352SOL     OW 8952   3.606   6.219  12.444
 2352SOL    HW1 8953   3.590   6.307  12.409
 2352SOL    HW2 8954   3.691   6.194  12.408
 2353SOL     OW 8955   0.254   6.221   9.700
 2353SOL    HW1 8956   0.304   6.204   9.620
 2353SOL    HW2 8957   0.168   6.248   9.670
 2354SOL     OW 8958  13.068   6.510   7.429
 2354SOL    HW1 8959  13.044   6.585   7.375
 2354SOL    HW2 8960  12.986   6.462   7.442
 2355SOL     OW 8961  11.075  12.935  10.469
 2355SOL    HW1 8962  11.057  12.868  10.403
 2355SOL    HW2 8963  11.055  13.018  10.426
 2356SOL     OW 8964   0.599   9.538   3.007
 2356SOL    HW1 8965   0.528   9.507   2.951
 2356SOL    HW2 8966   0.649   9.459   3.029
 2357SOL     OW 8967   0.738   4.988  14.591
 2357SOL    HW1 8968   0.745   4.902  14.550
 2357SOL    HW2 8969   0.671   5.034  14.540
 2358SOL     OW 8970   0.586   3.726   3.513
 2358SOL    HW1 8971   0.558   3.639   3.484
 2358SOL    HW2 8972   0.681   3.725   3.504
 2359SOL     OW 8973   6.600  12.091   6.445
 2359SOL    HW1 8974   6.670  12.156   6.441
 2359SOL    HW2 8975   6.530  12.135   6.494
 2360SOL     OW 8976  10.251  12.440   2.264
 2360SOL    HW1 8977  10.261  12.533   2.240
 2360SOL    HW2 8978  10.249  12.439   2.359
 2361SOL     OW 8979  12.847   7.121   9.767
 2361SOL    HW1 8980  12.776   7.184   9.779
 2361SOL    HW2 8981  12.809   7.052   9.712
 2362SOL     OW 8982  10.965   2.357   7.651
 2362SOL    HW1 8983  10.876   2.331   7.627
 2362SOL    HW2 8984  10.961   2.452   7.659
 2363SOL     OW 8985   8.828   4.858   2.951
 2363SOL    HW1 8986   8.737   4.882   2.964
 2363SOL    HW2 8987   8.834   4.834   2.858
 2364SOL     OW 8988  12.862  10.719   6.545
 2364SOL    HW1 8989  12.864  10.673   6.461
 2364SOL    HW2 8990  12.889  10.653   6.609
 2365SOL     OW 8991   6.165  10.163  13.935
 2365SOL    HW1 8992   6.249  10.131  13.902
 2365SOL    HW2 8993   6.168  10.258  13.923
 2366SOL     OW 8994  13.183   6.358   1.825
 2366SOL    HW1 8995  13.095   6.333   1.854
 2366SOL    HW2 8996  13.195   6.447   1.858
 2367SOL     OW 8997   0.109  11.059  12.838
 2367SOL    HW1 8998   0.190  11.042  12.887
 2367SOL    HW2 8999   0.063  10.975  12.836
 2368SOL     OW 9000   8.052  14.838   5.561
 2368SOL    HW1 9001   8.018   0.056   5.582
 2368SOL    HW2 9002   8.130  14.828   5.615
 2369SOL     OW 9003   9.277   3.556   2.951
 2369SOL    HW1 9004   9.230   3.639   2.961
 2369SOL    HW2 9005   9.358   3.580   2.907
 2370SOL     OW 9006  10.397   1.904   2.935
 2370SOL    HW1 9007  10.311   1.933   2.963
 2370SOL    HW2 9008  10.421   1.836   2.998
 2371SOL     OW 9009   8.991  10.339   3.886
 2371SOL    HW1 9010   9.017  10.303   3.801
 2371SOL    HW2 9011   9.051  10.299   3.949
 2372SOL     OW 9012   6.328  13.645  10.956
 2372SOL    HW1 9013   6.312  13.639  10.862
 2372SOL    HW2 9014   6.284  13.726  10.982
 2373SOL     OW 9015  10.962   1.827  12.521
 2373SOL    HW1 9016  10.962   1.834  12.426
 2373SOL    HW2 9017  10.919   1.907  12.551
 2374SOL     OW 9018   2.142  12.409   6.405
 2374SOL    HW1 9019   2.200  12.484   6.395
 2374SOL    HW2 9020   2.194  12.334   6.378
 2375SOL     OW 9021  11.445   3.895   2.265
 2375SOL    HW1 9022  11.496   3.954   2.210
 2375SOL    HW2 9023  11.371   3.869   2.210
 2376SOL     OW 9024   4.754   3.581  10.012
 2376SOL    HW1 9025   4.741   3.494   9.975
 2376SOL    HW2 9026   4.680   3.593  10.072
 2377SOL     OW 9027   7.720   3.132   0.535
 2377SOL    HW1 9028   7.707   3.132   0.630
 2377SOL    HW2 9029   7.634   3.112   0.499
 2378SOL     OW 9030  12.403   4.278   0.062
 2378SOL    HW1 9031  12.455   4.209   0.102
 2378SOL    HW2 9032  12.464   4.352   0.055
 2379SOL     OW 9033   7.054   1.342   3.389
 2379SOL    HW1 9034   7.083   1.326   3.478
 2379SOL    HW2 9035   7.095   1.425   3.365
 2380SOL     OW 9036  13.833   0.424   8.051
 2380SOL    HW1 9037  13.927   0.442   8.053
 2380SOL    HW2 9038  13.816   0.397   7.961
 2381SOL     OW 9039  11.287   3.515   9.650
 2381SOL    HW1 9040  11.263   3.429   9.617
 2381SOL    HW2 9041  11.257   3.515   9.741
 2382SOL     OW 9042   1.509   2.511   6.814
 2382SOL    HW1 9043   1.475   2.495   6.726
 2382SOL    HW2 9044   1.564   2.588   6.804
 2383SOL     OW 9045   0.982  13.024  11.591
 2383SOL    HW1 9046   1.054  13.051  11.533
 2383SOL    HW2 9047   0.970  12.931  11.573
 2384SOL     OW 9048  12.354   6.026   7.485
 2384SOL    HW1 9049  12.366   6.095   7.550
 2384SOL    HW2 9050  12.437   5.978   7.486
 2385SOL     OW 9051  10.000   5.513   3.283
 2385SOL    HW1 9052   9.960   5.429   3.305
 2385SOL    HW2 9053  10.093   5.494   3.275
 2386SOL     OW 9054   6.481  11.877   0.161
 2386SOL    HW1 9055   6.528  11.879   0.078
 2386SOL    HW2 9056   6.537  11.924   0.223
 2387SOL     OW 9057   6.996  14.576  12.665
 2387SOL    HW1 9058   7.073  14.588  12.721
 2387SOL    HW2 9059   6.926  14.552  12.725
 2388SOL     OW 9060   1.399   6.358   9.286
 2388SOL    HW1 9061   1.404   6.292   9.217
 2388SOL    HW2 9062   1.442   6.435   9.250
 2389SOL     OW 9063   7.153   5.075   5.766
 2389SOL    HW1 9064   7.209   5.043   5.695
 2389SOL    HW2 9065   7.156   5.170   5.759
 2390SOL     OW 9066   2.515   0.761   7.000
 2390SOL    HW1 9067   2.515   0.725   7.089
 2390SOL    HW2 9068   2.478   0.691   6.946
 2391SOL     OW 9069   7.522   1.187   9.251
 2391SOL    HW1 9070   7.561   1.131   9.317
 2391SOL    HW2 9071   7.453   1.234   9.297
 2392SOL     OW 9072  10.237  13.843   6.894
 2392SOL    HW1 9073  10.238  13.771   6.957
 2392SOL    HW2 9074  10.144  13.863   6.881
 2393SOL     OW 9075   7.340   6.360  13.997
 2393SOL    HW1 9076   7.332   6.264  13.996
 2393SOL    HW2 9077   7.251   6.392  13.984
 2394SOL     OW 9078   6.844   8.767  13.981
 2394SOL    HW1 9079   6.771   8.719  14.020
 2394SOL    HW2 9080   6.879   8.708  13.915
 2395SOL     OW 9081  14.343  14.399  14.797
 2395SOL    HW1 9082  14.307  14.474  14.845
 2395SOL    HW2 9083  14.288  14.325  14.824
 2396SOL     OW 9084   5.610   3.318   5.563
 2396SOL    HW1 9085   5.607   3.411   5.584
 2396SOL    HW2 9086   5.593   3.274   5.646
 2397SOL     OW 9087  14.295  14.762   8.501
 2397SOL    HW1 9088  14.382  14.729   8.477
 2397SOL    HW2 9089  14.301  14.781   8.594
 2398SOL     OW 9090   4.748  11.103   6.219
 2398SOL    HW1 9091   4.796  11.103   6.136
 2398SOL    HW2 9092   4.686  11.175   6.210
 2399SOL     OW 9093  10.476  13.431   2.753
 2399SOL    HW1 9094  10.442  13.484   2.825
 2399SOL    HW2 9095  10.412  13.443   2.683
 2400SOL     OW 9096   3.302  12.801  11.610
 2400SOL    HW1 9097   3.369  12.738  11.583
 2400SOL    HW2 9098   3.292  12.786  11.704
 2401SOL     OW 9099  13.366   1.823   5.674
 2401SOL    HW1 9100  13.297   1.808   5.609
 2401SOL    HW2 9101  13.332   1.894   5.728
 2402SOL     OW 9102   5.657  13.804   6.060
 2402SOL    HW1 9103   5.578  13.856   6.072
 2402SOL    HW2 9104   5.641  13.753   5.981
 2403SOL     OW 9105   9.576  13.649   8.923
 2403SOL    HW1 9106   9.619  13.711   8.864
 2403SOL    HW2 9107   9.531  13.705   8.987
 2404SOL     OW 9108   8.049   1.971  11.682
 2404SOL    HW1 9109   8.002   1.915  11.620
 2404SOL    HW2 9110   8.138   1.936  11.684
 2405SOL     OW 9111   6.016   0.673  13.212
 2405SOL    HW1 9112   6.100   0.704  13.179
 2405SOL    HW2 9113   5.971   0.637  13.136
 2406SOL     OW 9114   8.403  14.560   5.838
 2406SOL    HW1 9115   8.455  14.625   5.791
 2406SOL    HW2 9116   8.412  14.480   5.786
 2407SOL     OW 9117   2.593   8.826   0.017
 2407SOL    HW1 9118   2.621   8.893   0.079
 2407SOL    HW2 9119   2.632   8.853  14.802
 2408SOL     OW 9120  14.710   0.383   2.485
 2408SOL    HW1 9121  14.711   0.288   2.498
 2408SOL    HW2 9122  14.678   0.394   2.395
 2409SOL     OW 9123  13.042  12.595   2.478
 2409SOL    HW1 9124  13.102  12.521   2.464
 2409SOL    HW2 9125  12.959  12.567   2.440
 2410SOL     OW 9126   3.699   4.824   7.033
 2410SOL    HW1 9127   3.784   4.787   7.058
 2410SOL    HW2 9128   3.657   4.755   6.983
 2411SOL     OW 9129   1.045   2.514   0.337
 2411SOL    HW1 9130   0.983   2.587   0.329
 2411SOL    HW2 9131   1.085   2.525   0.423
 2412SOL     OW 9132   6.612   6.134   6.460
 2412SOL    HW1 9133   6.596   6.048   6.420
 2412SOL    HW2 9134   6.544   6.142   6.526
 2413SOL     OW 9135   9.206  10.042  14.721
 2413SOL    HW1 9136   9.190   9.948  14.718
 2413SOL    HW2 9137   9.118  10.081  14.722
 2414SOL     OW 9138   1.933   3.878   2.784
 2414SOL    HW1 9139   1.893   3.963   2.763
 2414SOL    HW2 9140   1.982   3.894   2.865
 2415SOL     OW 9141   6.018   1.801   9.104
 2415SOL    HW1 9142   6.028   1.808   9.199
 2415SOL    HW2 9143   5.929   1.829   9.087
 2416SOL     OW 9144   7.644   0.487   8.091
 2416SOL    HW1 9145   7.591   0.427   8.039
 2416SOL    HW2 9146   7.642   0.570   8.043
 2417SOL     OW 9147  12.895  13.271   6.039
 2417SOL    HW1 9148  12.896  13.312   5.952
 2417SOL    HW2 9149  12.987  13.249   6.055
 2418SOL     OW 9150   9.620   8.333   3.582
 2418SOL    HW1 9151   9.586   8.422   3.592
 2418SOL    HW2 9152   9.691   8.341   3.518
 2419SOL     OW 9153   5.712  13.081   4.978
 2419SOL    HW1 9154   5.748  13.072   4.890
 2419SOL    HW2 9155   5.727  13.173   5.001
 2420SOL     OW 9156  12.381  10.914  13.089
 2420SOL    HW1 9157  12.348  10.981  13.030
 2420SOL    HW2 9158  12.362  10.831  13.045
 2421SOL     OW 9159  11.790  14.281   9.645
 2421SOL    HW1 9160  11.705  14.261   9.685
 2421SOL    HW2 9161  11.852  14.227   9.693
 2422SOL     OW 9162   5.682   8.956  13.943
 2422SOL    HW1 9163   5.747   8.904  13.990
 2422SOL    HW2 9164   5.705   8.946  13.851
 2423SOL     OW 9165   7.431   4.663   3.975
 2423SOL    HW1 9166   7.435   4.652   3.880
 2423SOL    HW2 9167   7.361   4.727   3.989
 2424SOL     OW 9168   8.865  14.192   8.605
 2424SOL    HW1 9169   8.960  14.201   8.595
 2424SOL    HW2 9170   8.830  14.277   8.578
 2425SOL     OW 9171   4.083   5.925   3.182
 2425SOL    HW1 9172   4.026   5.850   3.198
 2425SOL    HW2 9173   4.163   5.888   3.145
 2426SOL     OW 9174  10.981  14.286   1.310
 2426SOL    HW1 9175  11.074  14.308   1.322
 2426SOL    HW2 9176  10.934  14.362   1.344
 2427SOL     OW 9177   3.302   8.893   9.548
 2427SOL    HW1 9178   3.298   8.986   9.569
 2427SOL    HW2 9179   3.326   8.851   9.630
 2428SOL     OW 9180  10.343   0.827   8.853
 2428SOL    HW1 9181  10.293   0.749   8.877
 2428SOL    HW2 9182  10.308   0.897   8.909
 2429SOL     OW 9183  10.543  10.941  13.478
 2429SOL    HW1 9184  10.593  10.997  13.538
 2429SOL    HW2 9185  10.567  10.972  13.391
 2430SOL     OW 9186   6.383  11.082   5.805
 2430SOL    HW1 9187   6.385  11.177   5.820
 2430SOL    HW2 9188   6.474  11.055   5.809
 2431SOL     OW 9189   2.577   8.990  11.674
 2431SOL    HW1 9190   2.541   8.993  11.585
 2431SOL    HW2 9191   2.544   9.070  11.716
 2432SOL     OW 9192  11.811  11.053   0.591
 2432SOL    HW1 9193  11.896  11.026   0.625
 2432SOL    HW2 9194  11.753  11.049   0.667
 2433SOL     OW 9195  14.739  13.827  10.651
 2433SOL    HW1 9196  14.691  13.789  10.578
 2433SOL    HW2 9197  14.795  13.756  10.682
 2434SOL     OW 9198  13.108   4.778  11.217
 2434SOL    HW1 9199  13.115   4.709  11.284
 2434SOL    HW2 9200  13.030   4.755  11.167
 2435SOL     OW 9201  11.765  11.590   6.182
 2435SOL    HW1 9202  11.839  11.621   6.235
 2435SOL    HW2 9203  11.724  11.669   6.148
 2436SOL     OW 9204   2.772  11.128   0.208
 2436SOL    HW1 9205   2.789  11.129   0.303
 2436SOL    HW2 9206   2.778  11.035   0.184
 2437SOL     OW 9207   1.079  13.820   1.429
 2437SOL    HW1 9208   1.066  13.767   1.508
 2437SOL    HW2 9209   1.147  13.883   1.455
 2438SOL     OW 9210  13.239   1.733   6.775
 2438SOL    HW1 9211  13.227   1.802   6.840
 2438SOL    HW2 9212  13.304   1.674   6.814
 2439SOL     OW 9213   8.390  10.548   1.705
 2439SOL    HW1 9214   8.377  10.454   1.713
 2439SOL    HW2 9215   8.331  10.573   1.633
 2440SOL     OW 9216   5.647   0.602   1.341
 2440SOL    HW1 9217   5.620   0.546   1.414
 2440SOL    HW2 9218   5.580   0.588   1.274
 2441SOL     OW 9219   4.056  13.394   0.935
 2441SOL    HW1 9220   4.038  13.478   0.977
 2441SOL    HW2 9221   3.969  13.359   0.914
 2442SOL     OW 9222   2.507   0.341   2.709
 2442SOL    HW1 9223   2.515   0.252   2.745
 2442SOL    HW2 9224   2.543   0.398   2.777
 2443SOL     OW 9225   9.131  14.545   1.008
 2443SOL    HW1 9226   9.051  14.499   0.982
 2443SOL    HW2 9227   9.197  14.475   1.017
 2444SOL     OW 9228  12.635   4.535   9.222
 2444SOL    HW1 9229  12.558   4.511   9.170
 2444SOL    HW2 9230  12.681   4.452   9.235
 2445SOL     OW 9231  12.273   9.547   7.183
 2445SOL    HW1 9232  12.257   9.613   7.115
 2445SOL    HW2 9233  12.229   9.582   7.261
 2446SOL     OW 9234   8.347   7.435   9.881
 2446SOL    HW1 9235   8.339   7.385   9.799
 2446SOL    HW2 9236   8.428   7.486   9.869
 2447SOL     OW 9237  11.873   3.611  14.558
 2447SOL    HW1 9238  11.808   3.629  14.491
 2447SOL    HW2 9239  11.824   3.617  14.641
 2448SOL     OW 9240   7.831   2.184   3.322
 2448SOL    HW1 9241   7.911   2.198   3.374
 2448SOL    HW2 9242   7.804   2.095   3.343
 2449SOL     OW 9243   5.478   0.748  10.080
 2449SOL    HW1 9244   5.419   0.700  10.022
 2449SOL    HW2 9245   5.500   0.827  10.030
 2450SOL     OW 9246   3.558  14.815   5.461
 2450SOL    HW1 9247   3.560  14.757   5.386
 2450SOL    HW2 9248   3.465  14.836   5.473
 2451SOL     OW 9249  10.722   9.574   4.614
 2451SOL    HW1 9250  10.781   9.504   4.641
 2451SOL    HW2 9251  10.691   9.547   4.528
 2452SOL     OW 9252   1.055  11.681   7.266
 2452SOL    HW1 9253   1.111  11.638   7.201
 2452SOL    HW2 9254   1.115  11.706   7.336
 2453SOL     OW 9255  13.381   0.949   5.783
 2453SOL    HW1 9256  13.296   0.991   5.794
 2453SOL    HW2 9257  13.442   1.001   5.836
 2454SOL     OW 9258   8.697   0.975   4.200
 2454SOL    HW1 9259   8.700   0.881   4.180
 2454SOL    HW2 9260   8.722   0.981   4.292
 2455SOL     OW 9261  12.064   5.681  11.932
 2455SOL    HW1 9262  12.063   5.589  11.906
 2455SOL    HW2 9263  11.995   5.689  11.997
 2456SOL     OW 9264  12.861   2.936   7.601
 2456SOL    HW1 9265  12.911   3.009   7.563
 2456SOL    HW2 9266  12.854   2.872   7.531
 2457SOL     OW 9267   4.235   5.579   9.848
 2457SOL    HW1 9268   4.264   5.499   9.892
 2457SOL    HW2 9269   4.287   5.583   9.768
 2458SOL     OW 9270  12.130   9.062  12.311
 2458SOL    HW1 9271  12.205   9.108  12.274
 2458SOL    HW2 9272  12.162   8.973  12.327
 2459SOL     OW 9273   3.778  10.904  11.999
 2459SOL    HW1 9274   3.789  10.971  11.932
 2459SOL    HW2 9275   3.791  10.821  11.953
 2460SOL     OW 9276  12.653   2.177   9.122
 2460SOL    HW1 9277  12.688   2.122   9.053
 2460SOL    HW2 9278  12.710   2.255   9.122
 2461SOL     OW 9279   9.041   3.007   1.614
 2461SOL    HW1 9280   8.973   3.026   1.549
 2461SOL    HW2 9281   9.113   2.969   1.563
 2462SOL     OW 9282  12.539   4.851   6.082
 2462SOL    HW1 9283  12.600   4.785   6.048
 2462SOL    HW2 9284  12.463   4.802   6.112
 2463SOL     OW 9285   8.889  14.681   1.901
 2463SOL    HW1 9286   8.800  14.645   1.901
 2463SOL    HW2 9287   8.940  14.616   1.950
 2464SOL     OW 9288   7.926   3.940   0.718
 2464SOL    HW1 9289   7.898   3.915   0.630
 2464SOL    HW2 9290   7.968   3.861   0.752
 2465SOL     OW 9291   3.174   1.923   4.423
 2465SOL    HW1 9292   3.237   1.852   4.437
 2465SOL    HW2 9293   3.214   1.998   4.467
 2466SOL     OW 9294   3.866   0.439   0.489
 2466SOL    HW1 9295   3.810   0.452   0.566
 2466SOL    HW2 9296   3.817   0.479   0.417
 2467SOL     OW 9297   4.960   3.338   9.257
 2467SOL    HW1 9298   4.975   3.303   9.170
 2467SOL    HW2 9299   5.017   3.415   9.263
 2468SOL     OW 9300   3.279   8.543   9.035
 2468SOL    HW1 9301   3.318   8.456   9.036
 2468SOL    HW2 9302   3.238   8.552   9.121
 2469SOL     OW 9303   6.297   9.945   1.472
 2469SOL    HW1 9304   6.281  10.035   1.443
 2469SOL    HW2 9305   6.260   9.891   1.403
 2470SOL     OW 9306   6.777  14.663  12.974
 2470SOL    HW1 9307   6.689  14.673  13.010
 2470SOL    HW2 9308   6.769  14.593  12.909
 2471SOL     OW 9309  13.523   3.171   4.149
 2471SOL    HW1 9310  13.544   3.089   4.106
 2471SOL    HW2 9311  13.522   3.149   4.242
 2472SOL     OW 9312   1.265   5.385   6.925
 2472SOL    HW1 9313   1.227   5.444   6.860
 2472SOL    HW2 9314   1.357   5.378   6.899
 2473SOL     OW 9315   2.282  12.490   6.794
 2473SOL    HW1 9316   2.325  12.441   6.724
 2473SOL    HW2 9317   2.237  12.423   6.846
 2474SOL     OW 9318  12.615   3.775  12.399
 2474SOL    HW1 9319  12.638   3.693  12.355
 2474SOL    HW2 9320  12.664   3.773  12.481
 2475SOL     OW 9321   7.174   5.692   2.165
 2475SOL    HW1 9322   7.205   5.606   2.191
 2475SOL    HW2 9323   7.225   5.713   2.087
 2476SOL     OW 9324   7.181  10.719   4.937
 2476SOL    HW1 9325   7.196  10.641   4.882
 2476SOL    HW2 9326   7.177  10.685   5.026
 2477SOL     OW 9327   5.894  10.316   4.736
 2477SOL    HW1 9328   5.807  10.277   4.733
 2477SOL    HW2 9329   5.891  10.374   4.812
 2478SOL     OW 9330   1.290   0.228  13.103
 2478SOL    HW1 9331   1.365   0.287  13.102
 2478SOL    HW2 9332   1.254   0.236  13.192
 2479SOL     OW 9333   8.421   6.548  13.543
 2479SOL    HW1 9334   8.474   6.607  13.598
 2479SOL    HW2 9335   8.429   6.463  13.586
 2480SOL     OW 9336  13.415   7.451   1.878
 2480SOL    HW1 9337  13.346   7.412   1.824
 2480SOL    HW2 9338  13.496   7.435   1.829
 2481SOL     OW 9339  13.701   3.675  14.457
 2481SOL    HW1 9340  13.694   3.667  14.362
 2481SOL    HW2 9341  13.611   3.666  14.488
 2482SOL     OW 9342   0.363   2.768   2.566
 2482SOL    HW1 9343   0.437   2.723   2.526
 2482SOL    HW2 9344   0.339   2.835   2.502
 2483SOL     OW 9345  11.208   3.313  14.779
 2483SOL    HW1 9346  11.151   3.379  14.819
 2483SOL    HW2 9347  11.193   3.323  14.685
 2484SOL     OW 9348   5.357   0.547  14.539
 2484SOL    HW1 9349   5.318   0.460  14.531
 2484SOL    HW2 9350   5.288   0.607  14.509
 2485SOL     OW 9351  13.076   1.631   3.826
 2485SOL    HW1 9352  13.007   1.623   3.760
 2485SOL    HW2 9353  13.029   1.650   3.908
 2486SOL     OW 9354   7.833  12.842   4.772
 2486SOL    HW1 9355   7.740  12.836   4.793
 2486SOL    HW2 9356   7.855  12.934   4.783
 2487SOL     OW 9357   6.621  12.238   9.667
 2487SOL    HW1 9358   6.673  12.163   9.637
 2487SOL    HW2 9359   6.644  12.248   9.759
 2488SOL     OW 9360   8.620  12.288  11.433
 2488SOL    HW1 9361   8.551  12.221  11.428
 2488SOL    HW2 9362   8.690  12.248  11.484
 2489SOL     OW 9363   6.905   9.670   6.903
 2489SOL    HW1 9364   6.888   9.729   6.977
 2489SOL    HW2 9365   6.884   9.723   6.826
 2490SOL     OW 9366   3.106  14.233   8.116
 2490SOL    HW1 9367   3.152  14.218   8.034
 2490SOL    HW2 9368   3.113  14.327   8.131
 2491SOL     OW 9369  14.233   5.049   6.672
 2491SOL    HW1 9370  14.159   5.108   6.687
 2491SOL    HW2 9371  14.307   5.108   6.654
 2492SOL     OW 9372   4.236   9.708  13.916
 2492SOL    HW1 9373   4.213   9.619  13.888
 2492SOL    HW2 9374   4.253   9.755  13.834
 2493SOL     OW 9375   5.077  10.431  10.009
 2493SOL    HW1 9376   5.088  10.524   9.987
 2493SOL    HW2 9377   5.075  10.387   9.924
 2494SOL     OW 9378  12.366  10.011   6.932
 2494SOL    HW1 9379  12.328  10.039   6.849
 2494SOL    HW2 9380  12.304  10.041   6.998
 2495SOL     OW 9381   5.823  11.481  13.106
 2495SOL    HW1 9382   5.863  11.476  13.194
 2495SOL    HW2 9383   5.733  11.450  13.119
 2496SOL     OW 9384  11.118  12.843   9.557
 2496SOL    HW1 9385  11.039  12.895   9.570
 2496SOL    HW2 9386  11.150  12.870   9.471
 2497SOL     OW 9387   6.366  10.878  13.552
 2497SOL    HW1 9388   6.384  10.893  13.644
 2497SOL    HW2 9389   6.271  10.877  13.546
 2498SOL     OW 9390   4.939  12.878   0.236
 2498SOL    HW1 9391   4.943  12.950   0.173
 2498SOL    HW2 9392   4.979  12.913   0.315
 2499SOL     OW 9393  13.808   6.689  11.260
 2499SOL    HW1 9394  13.891   6.674  11.215
 2499SOL    HW2 9395  13.832   6.705  11.351
 2500SOL     OW 9396   9.874   7.544   6.955
 2500SOL    HW1 9397   9.790   7.505   6.931
 2500SOL    HW2 9398   9.914   7.480   7.014
 2501SOL     OW 9399  12.557   3.764   7.228
 2501SOL    HW1 9400  12.523   3.678   7.255
 2501SOL    HW2 9401  12.652   3.757   7.240
 2502SOL     OW 9402   2.725   4.337   5.917
 2502SOL    HW1 9403   2.636   4.358   5.945
 2502SOL    HW2 9404   2.715   4.268   5.851
 2503SOL     OW 9405  12.979   4.229   9.818
 2503SOL    HW1 9406  13.032   4.306   9.800
 2503SOL    HW2 9407  12.967   4.230   9.913
 2504SOL     OW 9408   2.010  11.995  14.453
 2504SOL    HW1 9409   2.083  11.971  14.510
 2504SOL    HW2 9410   2.048  11.996  14.365
 2505SOL     OW 9411  11.488  11.839   1.587
 2505SOL    HW1 9412  11.418  11.820   1.650
 2505SOL    HW2 9413  11.492  11.934   1.583
 2506SOL     OW 9414   1.175   8.291   2.141
 2506SOL    HW1 9415   1.210   8.206   2.113
 2506SOL    HW2 9416   1.219   8.308   2.224
 2507SOL     OW 9417   8.660  10.482  10.437
 2507SOL    HW1 9418   8.663  10.406  10.379
 2507SOL    HW2 9419   8.628  10.553  10.381
 2508SOL     OW 9420  14.086   0.334   6.845
 2508SOL    HW1 9421  14.030   0.272   6.892
 2508SOL    HW2 9422  14.158   0.352   6.906
 2509SOL     OW 9423   3.741   3.115   0.577
 2509SOL    HW1 9424   3.768   3.205   0.556
 2509SOL    HW2 9425   3.646   3.118   0.577
 2510SOL     OW 9426  10.935   4.334  10.525
 2510SOL    HW1 9427  10.971   4.406  10.472
 2510SOL    HW2 9428  11.012   4.285  10.555
 2511SOL     OW 9429   0.589  13.574   3.906
 2511SOL    HW1 9430   0.570  13.642   3.841
 2511SOL    HW2 9431   0.528  13.593   3.978
 2512SOL     OW 9432   5.437  11.246  13.964
 2512SOL    HW1 9433   5.421  11.207  14.050
 2512SOL    HW2 9434   5.406  11.336  13.972
 2513SOL     OW 9435   4.046   7.436   4.561
 2513SOL    HW1 9436   4.115   7.499   4.583
 2513SOL    HW2 9437   4.084   7.381   4.493
 2514SOL     OW 9438  13.922  11.408   9.425
 2514SOL    HW1 9439  13.857  11.452   9.370
 2514SOL    HW2 9440  13.901  11.315   9.417
 2515SOL     OW 9441   1.704   3.072  11.208
 2515SOL    HW1 9442   1.640   3.105  11.271
 2515SOL    HW2 9443   1.673   2.984  11.186
 2516SOL     OW 9444   3.434   2.066  10.359
 2516SOL    HW1 9445   3.455   1.996  10.421
 2516SOL    HW2 9446   3.363   2.031  10.306
 2517SOL     OW 9447  10.614  10.161   8.724
 2517SOL    HW1 9448  10.590  10.241   8.771
 2517SOL    HW2 9449  10.596  10.181   8.632
 2518SOL     OW 9450   8.873   6.896   8.148
 2518SOL    HW1 9451   8.856   6.816   8.099
 2518SOL    HW2 9452   8.849   6.967   8.089
 2519SOL     OW 9453   9.507  12.359  11.007
 2519SOL    HW1 9454   9.565  12.412  10.951
 2519SOL    HW2 9455   9.454  12.424  11.053
 2520SOL     OW 9456   2.098  10.535  14.231
 2520SOL    HW1 9457   2.026  10.492  14.185
 2520SOL    HW2 9458   2.177  10.489  14.201
 2521SOL     OW 9459   3.685  13.557   1.686
 2521SOL    HW1 9460   3.682  13.653   1.688
 2521SOL    HW2 9461   3.777  13.536   1.702
 2522SOL     OW 9462  12.312   5.428   8.506
 2522SOL    HW1 9463  12.387   5.378   8.475
 2522SOL    HW2 9464  12.239   5.366   8.505
 2523SOL     OW 9465  14.859   9.268  13.177
 2523SOL    HW1 9466   0.046   9.268  13.255
 2523SOL    HW2 9467  14.769   9.268  13.210
 2524SOL     OW 9468  12.298   4.044   6.232
 2524SOL    HW1 9469  12.351   4.072   6.158
 2524SOL    HW2 9470  12.361   4.020   6.300
 2525SOL     OW 9471   7.118   9.110   0.043
 2525SOL    HW1 9472   7.089   9.169  14.842
 2525SOL    HW2 9473   7.181   9.162   0.094
 2526SOL     OW 9474   3.665   7.215   7.186
 2526SOL    HW1 9475   3.600   7.275   7.149
 2526SOL    HW2 9476   3.722   7.272   7.239
 2527SOL     OW 9477   5.174   7.503  11.253
 2527SOL    HW1 9478   5.209   7.437  11.313
 2527SOL    HW2 9479   5.249   7.558  11.232
 2528SOL     OW 9480   6.459   1.349   6.572
 2528SOL    HW1 9481   6.535   1.407   6.580
 2528SOL    HW2 9482   6.430   1.336   6.662
 2529SOL     OW 9483   2.697   4.339  12.496
 2529SOL    HW1 9484   2.617   4.298  12.463
 2529SOL    HW2 9485   2.762   4.269  12.496
 2530SOL     OW 9486  13.664   7.658  13.849
 2530SOL    HW1 9487  13.742   7.649  13.904
 2530SOL    HW2 9488  13.600   7.702  13.905
 2531SOL     OW 9489   6.707   7.671  14.570
 2531SOL    HW1 9490   6.723   7.735  14.500
 2531SOL    HW2 9491   6.787   7.619  14.573
 2532SOL     OW 9492   2.032  12.165   4.991
 2532SOL    HW1 9493   2.036  12.219   4.912
 2532SOL    HW2 9494   2.054  12.077   4.962
 2533SOL     OW 9495   6.953   9.700  13.345
 2533SOL    HW1 9496   6.876   9.685  13.400
 2533SOL    HW2 9497   6.967   9.795  13.348
 2534SOL     OW 9498  11.551   4.445   3.559
 2534SOL    HW1 9499  11.641   4.437   3.592
 2534SOL    HW2 9500  11.554   4.520   3.499
 2535SOL     OW 9501   4.536   7.571  13.208
 2535SOL    HW1 9502   4.588   7.650  13.199
 2535SOL    HW2 9503   4.469   7.579  13.140
 2536SOL     OW 9504   1.445  12.035   7.909
 2536SOL    HW1 9505   1.452  12.100   7.979
 2536SOL    HW2 9506   1.475  12.081   7.830
 2537SOL     OW 9507   2.380  10.877  11.577
 2537SOL    HW1 9508   2.331  10.921  11.646
 2537SOL    HW2 9509   2.423  10.949  11.530
 2538SOL     OW 9510   0.678   5.913   2.610
 2538SOL    HW1 9511   0.762   5.866   2.610
 2538SOL    HW2 9512   0.615   5.849   2.645
 2539SOL     OW 9513   6.836   0.545   6.669
 2539SOL    HW1 9514   6.811   0.632   6.701
 2539SOL    HW2 9515   6.862   0.560   6.578
 2540SOL     OW 9516   5.836   0.004  10.617
 2540SOL    HW1 9517   5.854   0.047  10.701
 2540SOL    HW2 9518   5.907   0.034  10.560
 2541SOL     OW 9519  10.525   7.111   9.204
 2541SOL    HW1 9520  10.438   7.073   9.211
 2541SOL    HW2 9521  10.551   7.127   9.295
 2542SOL     OW 9522   8.439   0.349   6.821
 2542SOL    HW1 9523   8.458   0.424   6.765
 2542SOL    HW2 9524   8.488   0.365   6.901
 2543SOL     OW 9525   9.148   8.851  11.974
 2543SOL    HW1 9526   9.226   8.879  11.927
 2543SOL    HW2 9527   9.180   8.787  12.038
 2544SOL     OW 9528   0.430   7.650   4.702
 2544SOL    HW1 9529   0.402   7.663   4.611
 2544SOL    HW2 9530   0.421   7.737   4.742
 2545SOL     OW 9531   8.668   6.164   7.127
 2545SOL    HW1 9532   8.614   6.242   7.141
 2545SOL    HW2 9533   8.609   6.091   7.139
 2546SOL     OW 9534   6.158  10.441  14.135
 2546SOL    HW1 9535   6.203  10.523  14.157
 2546SOL    HW2 9536   6.171  10.431  14.041
 2547SOL     OW 9537   2.956   5.287   4.729
 2547SOL    HW1 9538   3.043   5.251   4.747
 2547SOL    HW2 9539   2.962   5.320   4.639
 2548SOL     OW 9540  14.856   9.723   8.615
 2548SOL    HW1 9541   0.047   9.684   8.679
 2548SOL    HW2 9542  14.770   9.686   8.635
 2549SOL     OW 9543   4.601   2.174  14.713
 2549SOL    HW1 9544   4.676   2.121  14.688
 2549SOL    HW2 9545   4.525   2.124  14.681
 2550SOL     OW 9546   4.684   3.789   3.408
 2550SOL    HW1 9547   4.648   3.790   3.320
 2550SOL    HW2 9548   4.700   3.881   3.429
 2551SOL     OW 9549   9.571  10.504   6.151
 2551SOL    HW1 9550   9.606  10.562   6.219
 2551SOL    HW2 9551   9.646  10.486   6.094
 2552SOL     OW 9552   7.544   4.180   9.463
 2552SOL    HW1 9553   7.471   4.135   9.506
 2552SOL    HW2 9554   7.506   4.217   9.383
 2553SOL     OW 9555   2.599  12.842   4.189
 2553SOL    HW1 9556   2.589  12.754   4.224
 2553SOL    HW2 9557   2.693  12.851   4.172
 2554SOL     OW 9558   7.857   5.495  12.074
 2554SOL    HW1 9559   7.809   5.418  12.104
 2554SOL    HW2 9560   7.791   5.564  12.068
 2555SOL     OW 9561  11.976   5.230   8.193
 2555SOL    HW1 9562  12.065   5.259   8.172
 2555SOL    HW2 9563  11.988   5.156   8.253
 2556SOL     OW 9564  10.219  13.915  14.512
 2556SOL    HW1 9565  10.141  13.928  14.565
 2556SOL    HW2 9566  10.186  13.890  14.426
 2557SOL     OW 9567  13.633   8.966  12.940
 2557SOL    HW1 9568  13.661   8.931  12.855
 2557SOL    HW2 9569  13.700   8.937  13.002
 2558SOL     OW 9570  14.045   0.246   7.220
 2558SOL    HW1 9571  14.104   0.254   7.295
 2558SOL    HW2 9572  14.019   0.335   7.200
 2559SOL     OW 9573   7.118   6.760   0.554
 2559SOL    HW1 9574   7.207   6.731   0.534
 2559SOL    HW2 9575   7.129   6.834   0.613
 2560SOL     OW 9576   9.805   1.330   4.867
 2560SOL    HW1 9577   9.897   1.326   4.841
 2560SOL    HW2 9578   9.803   1.394   4.938
 2561SOL     OW 9579  12.561   9.983  13.391
 2561SOL    HW1 9580  12.569   9.888  13.391
 2561SOL    HW2 9581  12.495  10.002  13.458
 2562SOL     OW 9582   2.036   3.851  12.138
 2562SOL    HW1 9583   1.964   3.811  12.090
 2562SOL    HW2 9584   2.112   3.840  12.081
 2563SOL     OW 9585  14.248   3.246  10.182
 2563SOL    HW1 9586  14.188   3.257  10.256
 2563SOL    HW2 9587  14.191   3.244  10.105
 2564SOL     OW 9588  11.638  13.406  14.462
 2564SOL    HW1 9589  11.593  13.356  14.394
 2564SOL    HW2 9590  11.569  13.457  14.504
 2565SOL     OW 9591   8.579   3.690  13.046
 2565SOL    HW1 9592   8.559   3.721  13.134
 2565SOL    HW2 9593   8.674   3.680  13.045
 2566SOL     OW 9594  14.106  12.533  14.102
 2566SOL    HW1 9595  14.164  12.457  14.108
 2566SOL    HW2 9596  14.121  12.568  14.014
 2567SOL     OW 9597   7.368  13.663   5.421
 2567SOL    HW1 9598   7.305  13.647   5.491
 2567SOL    HW2 9599   7.437  13.714   5.462
 2568SOL     OW 9600   2.568   3.144   1.637
 2568SOL    HW1 9601   2.532   3.165   1.724
 2568SOL    HW2 9602   2.494   3.158   1.577
 2569SOL     OW 9603   8.408  12.933   1.029
 2569SOL    HW1 9604   8.392  13.003   0.965
 2569SOL    HW2 9605   8.484  12.886   0.994
 2570SOL     OW 9606   7.188   8.129   4.841
 2570SOL    HW1 9607   7.228   8.207   4.803
 2570SOL    HW2 9608   7.180   8.148   4.934
 2571SOL     OW 9609   1.845   1.128   9.260
 2571SOL    HW1 9610   1.882   1.075   9.331
 2571SOL    HW2 9611   1.757   1.152   9.291
 2572SOL     OW 9612   1.509   0.994   3.279
 2572SOL    HW1 9613   1.536   1.066   3.222
 2572SOL    HW2 9614   1.562   0.920   3.251
 2573SOL     OW 9615   7.956  14.805  14.291
 2573SOL    HW1 9616   8.005  14.856  14.356
 2573SOL    HW2 9617   7.864  14.819  14.313
 2574SOL     OW 9618  12.115   3.701  14.589
 2574SOL    HW1 9619  12.114   3.680  14.682
 2574SOL    HW2 9620  12.028   3.674  14.557
 2575SOL     OW 9621   2.349   9.982  10.225
 2575SOL    HW1 9622   2.315   9.924  10.157
 2575SOL    HW2 9623   2.344   9.929  10.306
 2576SOL     OW 9624   2.803   5.863   9.956
 2576SOL    HW1 9625   2.769   5.794  10.014
 2576SOL    HW2 9626   2.794   5.827   9.868
 2577SOL     OW 9627   5.999   6.676   6.493
 2577SOL    HW1 9628   6.049   6.755   6.511
 2577SOL    HW2 9629   6.036   6.642   6.411
 2578SOL     OW 9630  13.079   7.433  10.681
 2578SOL    HW1 9631  13.159   7.381  10.692
 2578SOL    HW2 9632  13.109   7.523  10.670
 2579SOL     OW 9633  14.610   7.991   3.790
 2579SOL    HW1 9634  14.520   7.980   3.819
 2579SOL    HW2 9635  14.616   7.940   3.709
 2580SOL     OW 9636   0.911   0.968   6.680
 2580SOL    HW1 9637   0.859   0.914   6.620
 2580SOL    HW2 9638   0.868   1.054   6.678
 2581SOL     OW 9639  12.928   8.421   7.266
 2581SOL    HW1 9640  12.964   8.344   7.310
 2581SOL    HW2 9641  12.834   8.404   7.260
 2582SOL     OW 9642   6.983   8.544   7.488
 2582SOL    HW1 9643   7.030   8.486   7.548
 2582SOL    HW2 9644   7.016   8.519   7.401
 2583SOL     OW 9645   9.580  12.517  14.698
 2583SOL    HW1 9646   9.564  12.473  14.615
 2583SOL    HW2 9647   9.591  12.447  14.761
 2584SOL     OW 9648  13.580  13.603  14.818
 2584SOL    HW1 9649  13.518  13.627   0.020
 2584SOL    HW2 9650  13.600  13.686  14.774
 2585SOL     OW 9651   3.103   0.320  12.417
 2585SOL    HW1 9652   3.157   0.375  12.360
 2585SOL    HW2 9653   3.046   0.273  12.357
 2586SOL     OW 9654   1.493   0.436  10.296
 2586SOL    HW1 9655   1.487   0.474  10.384
 2586SOL    HW2 9656   1.409   0.457  10.256
 2587SOL     OW 9657   2.386   0.976   4.719
 2587SOL    HW1 9658   2.297   1.003   4.738
 2587SOL    HW2 9659   2.387   0.960   4.624
 2588SOL     OW 9660   4.620   0.806   3.686
 2588SOL    HW1 9661   4.639   0.715   3.712
 2588SOL    HW2 9662   4.546   0.799   3.627
 2589SOL     OW 9663   5.312   6.874  12.305
 2589SOL    HW1 9664   5.221   6.893  12.286
 2589SOL    HW2 9665   5.314   6.858  12.400
 2590SOL     OW 9666   0.553   3.415  11.959
 2590SOL    HW1 9667   0.594   3.501  11.954
 2590SOL    HW2 9668   0.461   3.432  11.979
 2591SOL     OW 9669   6.931   7.284   4.922
 2591SOL    HW1 9670   6.928   7.349   4.851
 2591SOL    HW2 9671   6.973   7.329   4.995
 2592SOL     OW 9672   0.923   0.058   5.682
 2592SOL    HW1 9673   0.902   0.151   5.670
 2592SOL    HW2 9674   0.914   0.021   5.594
 2593SOL     OW 9675  13.400   7.296  10.460
 2593SOL    HW1 9676  13.490   7.296  10.426
 2593SOL    HW2 9677  13.409   7.317  10.553
 2594SOL     OW 9678  12.261   5.991   2.131
 2594SOL    HW1 9679  12.348   5.969   2.165
 2594SOL    HW2 9680  12.230   5.910   2.091
 2595SOL     OW 9681  10.152   0.425  14.666
 2595SOL    HW1 9682  10.200   0.345  14.643
 2595SOL    HW2 9683  10.206   0.467  14.732
 2596SOL     OW 9684  12.231   0.079   3.202
 2596SOL    HW1 9685  12.138   0.071   3.222
 2596SOL    HW2 9686  12.273   0.083   3.288
 2597SOL     OW 9687   7.775   9.627  13.243
 2597SOL    HW1 9688   7.779   9.720  13.265
 2597SOL    HW2 9689   7.861   9.606  13.208
 2598SOL     OW 9690  12.310  12.387   7.477
 2598SOL    HW1 9691  12.353  12.345   7.403
 2598SOL    HW2 9692  12.232  12.428   7.440
 2599SOL     OW 9693   9.325   3.812   8.277
 2599SOL    HW1 9694   9.281   3.895   8.257
 2599SOL    HW2 9695   9.392   3.804   8.209
 2600SOL     OW 9696   7.934  10.470  12.732
 2600SOL    HW1 9697   7.932  10.519  12.650
 2600SOL    HW2 9698   8.027  10.462  12.753
 2601SOL     OW 9699   1.987  10.850   3.794
 2601SOL    HW1 9700   1.920  10.891   3.848
 2601SOL    HW2 9701   2.048  10.811   3.856
 2602SOL     OW 9702   8.979   4.611  11.103
 2602SOL    HW1 9703   8.908   4.569  11.054
 2602SOL    HW2 9704   8.969   4.704  11.085
 2603SOL     OW 9705   8.719   9.930   6.559
 2603SOL    HW1 9706   8.800   9.893   6.523
 2603SOL    HW2 9707   8.738   9.943   6.652
 2604SOL     OW 9708   2.950   9.051   6.426
 2604SOL    HW1 9709   2.903   9.108   6.365
 2604SOL    HW2 9710   2.891   8.976   6.438
 2605SOL     OW 9711   9.066  12.598   3.797
 2605SOL    HW1 9712   9.003  12.557   3.857
 2605SOL    HW2 9713   9.037  12.570   3.710
 2606SOL     OW 9714  12.215  14.591   9.618
 2606SOL    HW1 9715  12.184  14.505   9.647
 2606SOL    HW2 9716  12.199  14.591   9.523
 2607SOL     OW 9717   6.513   9.646   9.617
 2607SOL    HW1 9718   6.552   9.711   9.676
 2607SOL    HW2 9719   6.422   9.639   9.645
 2608SOL     OW 9720  11.950   6.937   4.313
 2608SOL    HW1 9721  11.857   6.958   4.324
 2608SOL    HW2 9722  11.996   7.010   4.356
 2609SOL     OW 9723   3.789   8.909   2.719
 2609SOL    HW1 9724   3.760   8.957   2.797
 2609SOL    HW2 9725   3.868   8.955   2.691
 2610SOL     OW 9726   7.605   1.006  12.733
 2610SOL    HW1 9727   7.513   0.987  12.714
 2610SOL    HW2 9728   7.654   0.946  12.677
 2611SOL     OW 9729   2.358   0.395  10.166
 2611SOL    HW1 9730   2.411   0.439  10.099
 2611SOL    HW2 9731   2.290   0.349  10.116
 2612SOL     OW 9732  10.233   1.674  13.952
 2612SOL    HW1 9733  10.301   1.624  13.997
 2612SOL    HW2 9734  10.150   1.641  13.987
 2613SOL     OW 9735  11.835  10.921  12.055
 2613SOL    HW1 9736  11.815  10.999  12.108
 2613SOL    HW2 9737  11.898  10.872  12.108
 2614SOL     OW 9738   0.604   1.409   1.827
 2614SOL    HW1 9739   0.511   1.385   1.835
 2614SOL    HW2 9740   0.603   1.489   1.773
 2615SOL     OW 9741   6.576   3.239  10.714
 2615SOL    HW1 9742   6.523   3.214  10.639
 2615SOL    HW2 9743   6.543   3.186  10.786
 2616SOL     OW 9744  12.521   1.182   4.909
 2616SOL    HW1 9745  12.559   1.150   4.828
 2616SOL    HW2 9746  12.431   1.204   4.887
 2617SOL     OW 9747   3.100   3.503  10.307
 2617SOL    HW1 9748   3.103   3.449  10.386
 2617SOL    HW2 9749   3.035   3.459  10.251
 2618SOL     OW 9750   4.881  12.078   6.172
 2618SOL    HW1 9751   4.923  12.139   6.234
 2618SOL    HW2 9752   4.797  12.058   6.212
 2619SOL     OW 9753   6.226   6.383   5.345
 2619SOL    HW1 9754   6.291   6.335   5.293
 2619SOL    HW2 9755   6.183   6.440   5.281
 2620SOL     OW 9756  11.271   3.123   1.477
 2620SOL    HW1 9757  11.287   3.184   1.548
 2620SOL    HW2 9758  11.190   3.078   1.500
 2621SOL     OW 9759  13.444  14.510   9.329
 2621SOL    HW1 9760  13.472  14.602   9.324
 2621SOL    HW2 9761  13.450  14.478   9.239
 2622SOL     OW 9762  10.212   1.049  14.753
 2622SOL    HW1 9763  10.214   0.954  14.747
 2622SOL    HW2 9764  10.189   1.067  14.844
 2623SOL     OW 9765  13.941   3.850   7.335
 2623SOL    HW1 9766  13.889   3.789   7.388
 2623SOL    HW2 9767  13.963   3.921   7.394
 2624SOL     OW 9768   5.933  12.924   6.961
 2624SOL    HW1 9769   5.888  12.844   6.987
 2624SOL    HW2 9770   6.026  12.908   6.981
 2625SOL     OW 9771   4.579  13.052   4.354
 2625SOL    HW1 9772   4.570  12.959   4.335
 2625SOL    HW2 9773   4.523  13.095   4.290
 2626SOL     OW 9774   7.726   0.205   0.637
 2626SOL    HW1 9775   7.761   0.168   0.556
 2626SOL    HW2 9776   7.782   0.169   0.706
 2627SOL     OW 9777  10.114  13.393   4.985
 2627SOL    HW1 9778  10.055  13.333   4.940
 2627SOL    HW2 9779  10.175  13.336   5.032
 2628SOL     OW 9780   8.215  11.761   9.671
 2628SOL    HW1 9781   8.267  11.830   9.629
 2628SOL    HW2 9782   8.127  11.800   9.679
 2629SOL     OW 9783   2.200   2.535   6.140
 2629SOL    HW1 9784   2.269   2.469   6.129
 2629SOL    HW2 9785   2.220   2.602   6.075
 2630SOL     OW 9786   2.957   9.904   1.194
 2630SOL    HW1 9787   2.914   9.956   1.126
 2630SOL    HW2 9788   2.905   9.920   1.272
 2631SOL     OW 9789  13.337   8.138   6.437
 2631SOL    HW1 9790  13.417   8.152   6.488
 2631SOL    HW2 9791  13.323   8.221   6.391
 2632SOL     OW 9792  12.508   1.510   8.503
 2632SOL    HW1 9793  12.604   1.517   8.505
 2632SOL    HW2 9794  12.483   1.500   8.595
 2633SOL     OW 9795   6.217  12.442   8.661
 2633SOL    HW1 9796   6.202  12.526   8.618
 2633SOL    HW2 9797   6.241  12.383   8.590
 2634SOL     OW 9798   2.076   4.702   7.303
 2634SOL    HW1 9799   2.088   4.696   7.398
 2634SOL    HW2 9800   2.049   4.614   7.277
 2635SOL     OW 9801   3.895   1.769   0.029
 2635SOL    HW1 9802   3.881   1.722  14.814
 2635SOL    HW2 9803   3.988   1.758   0.048
 2636SOL     OW 9804  11.780  12.335   3.499
 2636SOL    HW1 9805  11.798  12.429   3.503
 2636SOL    HW2 9806  11.713  12.326   3.431
 2637SOL     OW 9807  14.529  12.410   0.507
 2637SOL    HW1 9808  14.564  12.423   0.595
 2637SOL    HW2 9809  14.605  12.389   0.453
 2638SOL     OW 9810   3.110  14.533   3.122
 2638SOL    HW1 9811   3.156  14.508   3.202
 2638SOL    HW2 9812   3.176  14.528   3.054
 2639SOL     OW 9813   9.674  10.345   8.564
 2639SOL    HW1 9814   9.747  10.373   8.508
 2639SOL    HW2 9815   9.597  10.352   8.508
 2640SOL     OW 9816   1.403   1.707   7.831
 2640SOL    HW1 9817   1.340   1.637   7.847
 2640SOL    HW2 9818   1.355   1.771   7.778
 2641SOL     OW 9819  10.519   3.408   5.435
 2641SOL    HW1 9820  10.571   3.446   5.364
 2641SOL    HW2 9821  10.531   3.468   5.509
 2642SOL     OW 9822  11.579   0.462   2.042
 2642SOL    HW1 9823  11.588   0.370   2.018
 2642SOL    HW2 9824  11.669   0.493   2.050
 2643SOL     OW 9825   7.442   5.281   1.621
 2643SOL    HW1 9826   7.348   5.267   1.622
 2643SOL    HW2 9827   7.480   5.195   1.602
 2644SOL     OW 9828   4.903   6.846   8.877
 2644SOL    HW1 9829   4.864   6.782   8.936
 2644SOL    HW2 9830   4.904   6.802   8.792
 2645SOL     OW 9831   0.163  13.288   7.403
 2645SOL    HW1 9832   0.118  13.255   7.481
 2645SOL    HW2 9833   0.222  13.355   7.436
 2646SOL     OW 9834   0.576   2.451   2.286
 2646SOL    HW1 9835   0.562   2.410   2.201
 2646SOL    HW2 9836   0.509   2.412   2.342
 2647SOL     OW 9837   3.397   8.312   4.812
 2647SOL    HW1 9838   3.417   8.375   4.881
 2647SOL    HW2 9839   3.453   8.338   4.739
 2648SOL     OW 9840   2.337  11.037   1.691
 2648SOL    HW1 9841   2.386  11.045   1.773
 2648SOL    HW2 9842   2.399  10.998   1.629
 2649SOL     OW 9843  13.072   6.772   5.416
 2649SOL    HW1 9844  13.015   6.800   5.345
 2649SOL    HW2 9845  13.109   6.689   5.386
 2650SOL     OW 9846  10.695  12.769  14.108
 2650SOL    HW1 9847  10.737  12.801  14.188
 2650SOL    HW2 9848  10.603  12.792  14.120
 2651SOL     OW 9849  10.048   2.510   3.536
 2651SOL    HW1 9850   9.962   2.527   3.498
 2651SOL    HW2 9851  10.055   2.415   3.536
 2652SOL     OW 9852  10.596  10.800   1.264
 2652SOL    HW1 9853  10.657  10.859   1.308
 2652SOL    HW2 9854  10.629  10.712   1.282
 2653SOL     OW 9855  13.169   4.149   6.041
 2653SOL    HW1 9856  13.173   4.196   6.125
 2653SOL    HW2 9857  13.108   4.077   6.057
 2654SOL     OW 9858   8.547  13.005  12.469
 2654SOL    HW1 9859   8.558  13.066  12.397
 2654SOL    HW2 9860   8.636  12.979  12.492
 2655SOL     OW 9861   8.733   1.450   9.851
 2655SOL    HW1 9862   8.682   1.384   9.897
 2655SOL    HW2 9863   8.819   1.410   9.838
 2656SOL     OW 9864  11.090  10.237   8.819
 2656SOL    HW1 9865  11.102  10.206   8.730
 2656SOL    HW2 9866  11.176  10.230   8.860
 2657SOL     OW 9867   7.701   6.256  11.170
 2657SOL    HW1 9868   7.704   6.271  11.076
 2657SOL    HW2 9869   7.647   6.178  11.180
 2658SOL     OW 9870  11.438   9.752   3.840
 2658SOL    HW1 9871  11.404   9.665   3.818
 2658SOL    HW2 9872  11.360   9.807   3.846
 2659SOL     OW 9873   7.357   0.703  11.303
 2659SOL    HW1 9874   7.437   0.734  11.345
 2659SOL    HW2 9875   7.295   0.775  11.313
 2660SOL     OW 9876   8.444   1.936   8.548
 2660SOL    HW1 9877   8.423   1.842   8.553
 2660SOL    HW2 9878   8.427   1.959   8.457
 2661SOL     OW 9879   1.968   9.509  10.765
 2661SOL    HW1 9880   1.910   9.496  10.689
 2661SOL    HW2 9881   1.970   9.604  10.777
 2662SOL     OW 9882  12.298  11.233   3.516
 2662SOL    HW1 9883  12.344  11.218   3.434
 2662SOL    HW2 9884  12.364  11.217   3.584
 2663SOL     OW 9885   0.692  13.135  13.480
 2663SOL    HW1 9886   0.640  13.088  13.546
 2663SOL    HW2 9887   0.673  13.090  13.398
 2664SOL     OW 9888   3.955   2.518   5.978
 2664SOL    HW1 9889   3.971   2.433   6.018
 2664SOL    HW2 9890   3.883   2.503   5.916
 2665SOL     OW 9891   6.963  10.602   3.262
 2665SOL    HW1 9892   7.021  10.632   3.192
 2665SOL    HW2 9893   6.961  10.507   3.253
 2666SOL     OW 9894   1.322   4.431   9.017
 2666SOL    HW1 9895   1.263   4.411   8.944
 2666SOL    HW2 9896   1.280   4.503   9.063
 2667SOL     OW 9897  14.726  14.487   6.380
 2667SOL    HW1 9898  14.632  14.487   6.361
 2667SOL    HW2 9899  14.751  14.395   6.380
 2668SOL     OW 9900  14.637   3.512   3.350
 2668SOL    HW1 9901  14.708   3.453   3.374
 2668SOL    HW2 9902  14.642   3.520   3.255
 2669SOL     OW 9903   9.025   3.971   2.984
 2669SOL    HW1 9904   9.099   3.955   3.043
 2669SOL    HW2 9905   9.062   4.021   2.912
 2670SOL     OW 9906  13.663   7.512   8.815
 2670SOL    HW1 9907  13.666   7.605   8.836
 2670SOL    HW2 9908  13.569   7.492   8.809
 2671SOL     OW 9909  13.380   2.996   9.184
 2671SOL    HW1 9910  13.338   3.056   9.246
 2671SOL    HW2 9911  13.333   3.010   9.102
 2672SOL     OW 9912   1.721  13.974  13.189
 2672SOL    HW1 9913   1.762  13.974  13.102
 2672SOL    HW2 9914   1.782  14.023  13.243
 2673SOL     OW 9915  12.094   5.264   9.243
 2673SOL    HW1 9916  12.135   5.322   9.179
 2673SOL    HW2 9917  12.120   5.301   9.328
 2674SOL     OW 9918   5.954   7.469   0.544
 2674SOL    HW1 9919   6.038   7.426   0.559
 2674SOL    HW2 9920   5.942   7.467   0.449
 2675SOL     OW 9921   1.800  11.021  11.848
 2675SOL    HW1 9922   1.877  10.968  11.868
 2675SOL    HW2 9923   1.758  10.975  11.775
 2676SOL     OW 9924   4.582   7.388  10.969
 2676SOL    HW1 9925   4.579   7.483  10.974
 2676SOL    HW2 9926   4.675   7.366  10.984
 2677SOL     OW 9927   8.079   4.079  12.958
 2677SOL    HW1 9928   8.135   4.032  12.896
 2677SOL    HW2 9929   8.056   4.013  13.024
 2678SOL     OW 9930   8.904  14.128   9.515
 2678SOL    HW1 9931   8.958  14.060   9.475
 2678SOL    HW2 9932   8.867  14.176   9.441
 2679SOL     OW 9933   1.590   9.839   4.912
 2679SOL    HW1 9934   1.497   9.836   4.891
 2679SOL    HW2 9935   1.594   9.870   5.002
 2680SOL     OW 9936   7.365  11.131   7.951
 2680SOL    HW1 9937   7.455  11.143   7.983
 2680SOL    HW2 9938   7.316  11.102   8.028
 2681SOL     OW 9939   5.872   5.509   0.295
 2681SOL    HW1 9940   5.802   5.527   0.357
 2681SOL    HW2 9941   5.832   5.452   0.229
 2682SOL     OW 9942   3.070  11.506   3.225
 2682SOL    HW1 9943   3.121  11.552   3.292
 2682SOL    HW2 9944   2.979  11.517   3.253
 2683SOL     OW 9945   4.453   2.811   4.014
 2683SOL    HW1 9946   4.536   2.774   3.983
 2683SOL    HW2 9947   4.477   2.857   4.095
 2684SOL     OW 9948   4.906  12.531   8.455
 2684SOL    HW1 9949   4.919  12.436   8.450
 2684SOL    HW2 9950   4.976  12.568   8.401
 2685SOL     OW 9951   4.551   9.643  11.968
 2685SOL    HW1 9952   4.520   9.732  11.948
 2685SOL    HW2 9953   4.513   9.622  12.053
 2686SOL     OW 9954  13.246   3.211  14.384
 2686SOL    HW1 9955  13.312   3.146  14.359
 2686SOL    HW2 9956  13.295   3.279  14.430
 2687SOL     OW 9957   2.501  12.576   6.432
 2687SOL    HW1 9958   2.502  12.666   6.399
 2687SOL    HW2 9959   2.545  12.525   6.364
 2688SOL     OW 9960  14.855  10.554  12.353
 2688SOL    HW1 9961  14.822  10.574  12.440
 2688SOL    HW2 9962   0.009  10.461  12.357
 2689SOL     OW 9963   4.790  12.576   7.215
 2689SOL    HW1 9964   4.780  12.609   7.304
 2689SOL    HW2 9965   4.879  12.540   7.212
 2690SOL     OW 9966   2.186   2.642   1.257
 2690SOL    HW1 9967   2.265   2.600   1.223
 2690SOL    HW2 9968   2.145   2.575   1.311
 2691SOL     OW 9969   2.592   0.368  11.364
 2691SOL    HW1 9970   2.658   0.437  11.356
 2691SOL    HW2 9971   2.617   0.303  11.299
 2692SOL     OW 9972  10.805  10.272   6.717
 2692SOL    HW1 9973  10.753  10.332   6.663
 2692SOL    HW2 9974  10.780  10.293   6.807
 2693SOL     OW 9975   9.011  13.670   7.346
 2693SOL    HW1 9976   9.066  13.709   7.278
 2693SOL    HW2 9977   9.042  13.708   7.428
 2694SOL     OW 9978  10.767  14.073  12.204
 2694SOL    HW1 9979  10.773  14.015  12.128
 2694SOL    HW2 9980  10.682  14.052  12.244
 2695SOL     OW 9981  14.026   9.250   4.998
 2695SOL    HW1 9982  14.084   9.197   5.052
 2695SOL    HW2 9983  13.986   9.187   4.937
 2696SOL     OW 9984   9.465   7.278   9.695
 2696SOL    HW1 9985   9.448   7.187   9.669
 2696SOL    HW2 9986   9.547   7.300   9.651
 2697SOL     OW 9987   2.395   5.909   0.085
 2697SOL    HW1 9988   2.360   5.873   0.167
 2697SOL    HW2 9989   2.472   5.959   0.111
 2698SOL     OW 9990   3.111  14.386   8.566
 2698SOL    HW1 9991   3.069  14.319   8.512
 2698SOL    HW2 9992   3.097  14.468   8.519
 2699SOL     OW 9993   6.328  11.594   2.133
 2699SOL    HW1 9994   6.421  11.581   2.114
 2699SOL    HW2 9995   6.305  11.675   2.085
 2700SOL     OW 9996   2.031   6.862   6.276
 2700SOL    HW1 9997   2.006   6.953   6.292
 2700SOL    HW2 9998   1.993   6.841   6.191
 2701SOL     OW 9999   6.176  11.481   0.481
 2701SOL    HW110000   6.220  11.541   0.421
 2701SOL    HW210001   6.190  11.395   0.443
 2702SOL     OW10002   6.591   4.847   0.597
 2702SOL    HW110003   6.647   4.922   0.618
 2702SOL    HW210004   6.646   4.771   0.616
 2703SOL     OW10005  11.708   8.330   1.193
 2703SOL    HW110006  11.632   8.336   1.135
 2703SOL    HW210007  11.686   8.257   1.252
 2704SOL     OW10008   5.679   7.802   1.681
 2704SOL    HW110009   5.758   7.782   1.630
 2704SOL    HW210010   5.607   7.789   1.620
 2705SOL     OW10011   9.915   6.929   0.732
 2705SOL    HW110012   9.868   6.986   0.793
 2705SOL    HW210013   9.986   6.983   0.699
 2706SOL     OW10014  10.530  12.421   2.953
 2706SOL    HW110015  10.450  12.437   3.004
 2706SOL    HW210016  10.505  12.354   2.890
 2707SOL     OW10017   5.520   2.616   1.561
 2707SOL    HW110018   5.549   2.598   1.650
 2707SOL    HW210019   5.592   2.665   1.522
 2708SOL     OW10020  14.861   9.179   2.426
 2708SOL    HW110021   0.061   9.170   2.494
 2708SOL    HW210022   0.042   9.177   2.344
 2709SOL     OW10023   3.170   3.690   2.621
 2709SOL    HW110024   3.215   3.644   2.550
 2709SOL    HW210025   3.241   3.725   2.675
 2710SOL     OW10026  13.298   1.879  14.762
 2710SOL    HW110027  13.379   1.829  14.771
 2710SOL    HW210028  13.280   1.880  14.668
 2711SOL     OW10029  10.346   9.266   4.905
 2711SOL    HW110030  10.438   9.265   4.882
 2711SOL    HW210031  10.341   9.322   4.983
 2712SOL     OW10032  10.397   3.161   9.318
 2712SOL    HW110033  10.407   3.104   9.241
 2712SOL    HW210034  10.379   3.247   9.280
 2713SOL     OW10035   8.810   1.410   3.664
 2713SOL    HW110036   8.870   1.397   3.737
 2713SOL    HW210037   8.867   1.426   3.589
 2714SOL     OW10038  10.500  11.896   9.195
 2714SOL    HW110039  10.490  11.840   9.117
 2714SOL    HW210040  10.569  11.958   9.171
 2715SOL     OW10041   5.354  13.154   5.114
 2715SOL    HW110042   5.364  13.064   5.084
 2715SOL    HW210043   5.401  13.158   5.197
 2716SOL     OW10044   3.285   0.974   7.580
 2716SOL    HW110045   3.338   0.937   7.509
 2716SOL    HW210046   3.227   1.037   7.537
 2717SOL     OW10047  10.179  13.073   5.047
 2717SOL    HW110048  10.166  12.979   5.052
 2717SOL    HW210049  10.121  13.102   4.976
 2718SOL     OW10050   2.596  11.888   0.303
 2718SOL    HW110051   2.643  11.824   0.250
 2718SOL    HW210052   2.625  11.973   0.270
 2719SOL     OW10053  10.794   3.905   5.702
 2719SOL    HW110054  10.702   3.887   5.685
 2719SOL    HW210055  10.841   3.863   5.631
 2720SOL     OW10056   0.575  11.219   4.281
 2720SOL    HW110057   0.631  11.277   4.229
 2720SOL    HW210058   0.493  11.267   4.291
 2721SOL     OW10059  11.507   7.128  13.212
 2721SOL    HW110060  11.601   7.124  13.197
 2721SOL    HW210061  11.469   7.082  13.137
 2722SOL     OW10062   2.825   9.717   3.186
 2722SOL    HW110063   2.867   9.669   3.257
 2722SOL    HW210064   2.741   9.745   3.223
 2723SOL     OW10065   7.552   8.326  14.854
 2723SOL    HW110066   7.643   8.316   0.014
 2723SOL    HW210067   7.546   8.418  14.826
 2724SOL     OW10068  11.777  14.455  14.484
 2724SOL    HW110069  11.766  14.542  14.445
 2724SOL    HW210070  11.738  14.464  14.572
 2725SOL     OW10071   7.822  13.492  11.172
 2725SOL    HW110072   7.875  13.412  11.167
 2725SOL    HW210073   7.819  13.524  11.082
 2726SOL     OW10074  10.893  11.565   9.001
 2726SOL    HW110075  10.952  11.599   9.070
 2726SOL    HW210076  10.827  11.633   8.991
 2727SOL     OW10077  12.417   7.599   8.041
 2727SOL    HW110078  12.372   7.514   8.042
 2727SOL    HW210079  12.423   7.624   8.133
 2728SOL     OW10080  10.779  13.370  11.157
 2728SOL    HW110081  10.766  13.358  11.063
 2728SOL    HW210082  10.808  13.460  11.167
 2729SOL     OW10083   9.520   1.633   6.204
 2729SOL    HW110084   9.566   1.707   6.163
 2729SOL    HW210085   9.491   1.579   6.130
 2730SOL     OW10086   7.513   0.236  10.852
 2730SOL    HW110087   7.484   0.190  10.773
 2730SOL    HW210088   7.542   0.322  10.820
 2731SOL     OW10089  14.183   8.135   9.279
 2731SOL    HW110090  14.217   8.210   9.328
 2731SOL    HW210091  14.211   8.150   9.189
 2732SOL     OW10092   1.120   0.011  12.834
 2732SOL    HW110093   1.134   0.073  12.763
 2732SOL    HW210094   1.181   0.039  12.903
 2733SOL     OW10095  10.632  10.496   2.516
 2733SOL    HW110096  10.697  10.469   2.452
 2733SOL    HW210097  10.641  10.591   2.521
 2734SOL     OW10098  12.991  13.648   9.209
 2734SOL    HW110099  12.992  13.655   9.305
 2734SOL    HW210100  13.069  13.696   9.181
 2735SOL     OW10101  11.962   9.779  11.741
 2735SOL    HW110102  11.963   9.855  11.798
 2735SOL    HW210103  11.964   9.704  11.800
 2736SOL     OW10104   1.024   0.312   2.996
 2736SOL    HW110105   1.002   0.354   3.079
 2736SOL    HW210106   1.108   0.351   2.971
 2737SOL     OW10107  12.830   3.601   1.629
 2737SOL    HW110108  12.799   3.620   1.540
 2737SOL    HW210109  12.751   3.603   1.683
 2738SOL     OW10110  14.804   9.949  12.625
 2738SOL    HW110111  14.787   9.980  12.714
 2738SOL    HW210112   0.017   9.993  12.600
 2739SOL     OW10113  13.177   9.913   3.055
 2739SOL    HW110114  13.130   9.862   2.990
 2739SOL    HW210115  13.256   9.943   3.010
 2740SOL     OW10116   4.971   0.333   4.959
 2740SOL    HW110117   5.018   0.301   5.036
 2740SOL    HW210118   5.006   0.421   4.944
 2741SOL     OW10119   1.163  10.555   4.293
 2741SOL    HW110120   1.220  10.571   4.367
 2741SOL    HW210121   1.204  10.482   4.246
 2742SOL     OW10122  10.647   9.417   0.915
 2742SOL    HW110123  10.725   9.466   0.939
 2742SOL    HW210124  10.680   9.339   0.871
 2743SOL     OW10125   5.272   1.788   1.377
 2743SOL    HW110126   5.279   1.693   1.387
 2743SOL    HW210127   5.234   1.800   1.289
 2744SOL     OW10128   7.622  10.230   6.862
 2744SOL    HW110129   7.551  10.209   6.802
 2744SOL    HW210130   7.644  10.321   6.843
 2745SOL     OW10131  11.657  11.844  13.464
 2745SOL    HW110132  11.725  11.822  13.400
 2745SOL    HW210133  11.642  11.763  13.512
 2746SOL     OW10134   6.249   7.854   1.765
 2746SOL    HW110135   6.317   7.791   1.744
 2746SOL    HW210136   6.207   7.819   1.844
 2747SOL     OW10137  12.114   5.577   2.914
 2747SOL    HW110138  12.153   5.615   2.993
 2747SOL    HW210139  12.068   5.650   2.873
 2748SOL     OW10140   0.851   4.823   5.081
 2748SOL    HW110141   0.937   4.795   5.052
 2748SOL    HW210142   0.847   4.799   5.174
 2749SOL     OW10143   7.175   7.414  14.175
 2749SOL    HW110144   7.243   7.482  14.173
 2749SOL    HW210145   7.223   7.332  14.163
 2750SOL     OW10146  11.341   5.925   4.490
 2750SOL    HW110147  11.305   5.887   4.570
 2750SOL    HW210148  11.265   5.943   4.435
 2751SOL     OW10149  13.965   4.526   7.522
 2751SOL    HW110150  13.993   4.617   7.513
 2751SOL    HW210151  13.925   4.504   7.438
 2752SOL     OW10152   8.363  14.753   7.330
 2752SOL    HW110153   8.355  14.695   7.405
 2752SOL    HW210154   8.430  14.712   7.275
 2753SOL     OW10155   8.370   7.084   5.961
 2753SOL    HW110156   8.341   7.137   5.887
 2753SOL    HW210157   8.394   7.147   6.029
 2754SOL     OW10158   2.573   3.182  11.738
 2754SOL    HW110159   2.557   3.219  11.825
 2754SOL    HW210160   2.661   3.145  11.743
 2755SOL     OW10161   5.834  11.277  10.052
 2755SOL    HW110162   5.744  11.301  10.073
 2755SOL    HW210163   5.826  11.212   9.982
 2756SOL     OW10164  13.972   5.540   2.470
 2756SOL    HW110165  13.956   5.625   2.429
 2756SOL    HW210166  13.913   5.480   2.425
 2757SOL     OW10167  12.896  13.613   3.718
 2757SOL    HW110168  12.807  13.608   3.754
 2757SOL    HW210169  12.926  13.522   3.718
 2758SOL     OW10170  12.876   5.341   2.732
 2758SOL    HW110171  12.925   5.328   2.813
 2758SOL    HW210172  12.792   5.376   2.759
 2759SOL     OW10173   7.155   0.857   5.548
 2759SOL    HW110174   7.226   0.877   5.609
 2759SOL    HW210175   7.189   0.881   5.462
 2760SOL     OW10176  14.860   6.508   5.870
 2760SOL    HW110177   0.016   6.439   5.931
 2760SOL    HW210178   0.075   6.546   5.842
 2761SOL     OW10179  13.864  10.977  14.535
 2761SOL    HW110180  13.840  10.943  14.449
 2761SOL    HW210181  13.780  10.993  14.579
 2762SOL     OW10182  14.403   8.211   7.089
 2762SOL    HW110183  14.472   8.202   7.155
 2762SOL    HW210184  14.324   8.229   7.140
 2763SOL     OW10185   3.140  12.841   4.457
 2763SOL    HW110186   3.075  12.772   4.473
 2763SOL    HW210187   3.180  12.857   4.543
 2764SOL     OW10188   7.406   7.739   2.110
 2764SOL    HW110189   7.383   7.720   2.201
 2764SOL    HW210190   7.382   7.831   2.099
 2765SOL     OW10191   7.418   3.851  10.277
 2765SOL    HW110192   7.360   3.847  10.201
 2765SOL    HW210193   7.369   3.901  10.342
 2766SOL     OW10194  14.105  12.983   1.019
 2766SOL    HW110195  14.137  13.036   1.092
 2766SOL    HW210196  14.127  12.893   1.044
 2767SOL     OW10197  11.504   0.494  10.205
 2767SOL    HW110198  11.477   0.408  10.238
 2767SOL    HW210199  11.521   0.480  10.112
 2768SOL     OW10200   9.894   8.870   9.634
 2768SOL    HW110201   9.854   8.898   9.552
 2768SOL    HW210202   9.974   8.825   9.607
 2769SOL     OW10203  10.414  14.867   7.324
 2769SOL    HW110204  10.497   0.015   7.368
 2769SOL    HW210205  10.360  14.824   7.389
 2770SOL     OW10206   4.683   9.506   0.256
 2770SOL    HW110207   4.750   9.438   0.246
 2770SOL    HW210208   4.619   9.467   0.316
 2771SOL     OW10209  14.180  13.410   1.866
 2771SOL    HW110210  14.217  13.442   1.948
 2771SOL    HW210211  14.255  13.380   1.815
 2772SOL     OW10212  10.031   3.278   3.322
 2772SOL    HW110213   9.968   3.209   3.300
 2772SOL    HW210214  10.111   3.231   3.346
 2773SOL     OW10215  11.228   8.563   1.129
 2773SOL    HW110216  11.296   8.561   1.197
 2773SOL    HW210217  11.268   8.611   1.057
 2774SOL     OW10218   1.819  14.261  10.587
 2774SOL    HW110219   1.828  14.315  10.665
 2774SOL    HW210220   1.908  14.255  10.551
 2775SOL     OW10221   5.900   3.619   1.123
 2775SOL    HW110222   5.852   3.537   1.112
 2775SOL    HW210223   5.985   3.602   1.082
 2776SOL     OW10224   4.036   9.680  14.501
 2776SOL    HW110225   4.093   9.618  14.547
 2776SOL    HW210226   3.979   9.625  14.447
 2777SOL     OW10227   2.364   2.020   9.868
 2777SOL    HW110228   2.336   2.080   9.937
 2777SOL    HW210229   2.284   1.972   9.844
 2778SOL     OW10230   6.589   2.104   9.947
 2778SOL    HW110231   6.530   2.165   9.903
 2778SOL    HW210232   6.669   2.154   9.961
 2779SOL     OW10233   8.963   6.478   7.964
 2779SOL    HW110234   9.052   6.492   7.995
 2779SOL    HW210235   8.932   6.401   8.012
 2780SOL     OW10236   1.937   3.554  13.205
 2780SOL    HW110237   1.894   3.602  13.134
 2780SOL    HW210238   1.869   3.543  13.272
 2781SOL     OW10239  13.646   4.171  14.118
 2781SOL    HW110240  13.684   4.254  14.089
 2781SOL    HW210241  13.556   4.192  14.141
 2782SOL     OW10242  10.956  10.871  12.967
 2782SOL    HW110243  10.925  10.805  13.029
 2782SOL    HW210244  10.879  10.923  12.945
 2783SOL     OW10245   8.275   0.273   3.158
 2783SOL    HW110246   8.192   0.225   3.155
 2783SOL    HW210247   8.335   0.221   3.104
 2784SOL     OW10248   1.434   8.158   4.426
 2784SOL    HW110249   1.474   8.208   4.497
 2784SOL    HW210250   1.365   8.214   4.392
 2785SOL     OW10251   0.977  13.878   8.861
 2785SOL    HW110252   0.978  13.941   8.933
 2785SOL    HW210253   1.006  13.796   8.901
 2786SOL     OW10254   3.805   5.218  10.300
 2786SOL    HW110255   3.843   5.214  10.212
 2786SOL    HW210256   3.868   5.270  10.350
 2787SOL     OW10257  10.646  13.632   1.409
 2787SOL    HW110258  10.724  13.658   1.458
 2787SOL    HW210259  10.590  13.710   1.411
 2788SOL     OW10260  10.871  13.586   4.471
 2788SOL    HW110261  10.916  13.670   4.470
 2788SOL    HW210262  10.942  13.521   4.472
 2789SOL     OW10263   9.121   7.355  11.108
 2789SOL    HW110264   9.088   7.441  11.079
 2789SOL    HW210265   9.077   7.292  11.051
 2790SOL     OW10266   1.831   4.065   7.206
 2790SOL    HW110267   1.860   4.006   7.276
 2790SOL    HW210268   1.912   4.103   7.172
 2791SOL     OW10269   6.141   4.791   6.529
 2791SOL    HW110270   6.075   4.861   6.532
 2791SOL    HW210271   6.090   4.710   6.531
 2792SOL     OW10272   4.705  10.569   1.666
 2792SOL    HW110273   4.664  10.576   1.753
 2792SOL    HW210274   4.735  10.479   1.661
 2793SOL     OW10275   8.537  13.662   8.952
 2793SOL    HW110276   8.448  13.658   8.987
 2793SOL    HW210277   8.529  13.632   8.861
 2794SOL     OW10278   2.154   5.907  12.282
 2794SOL    HW110279   2.197   5.851  12.218
 2794SOL    HW210280   2.125   5.847  12.351
 2795SOL     OW10281  11.572   8.588   6.856
 2795SOL    HW110282  11.559   8.675   6.896
 2795SOL    HW210283  11.592   8.531   6.931
 2796SOL     OW10284   2.315   8.062   6.917
 2796SOL    HW110285   2.235   8.091   6.959
 2796SOL    HW210286   2.360   8.143   6.893
 2797SOL     OW10287   7.924   5.346   0.620
 2797SOL    HW110288   7.933   5.395   0.702
 2797SOL    HW210289   7.921   5.414   0.552
 2798SOL     OW10290   9.044   3.033   7.694
 2798SOL    HW110291   9.065   3.105   7.754
 2798SOL    HW210292   9.068   2.954   7.743
 2799SOL     OW10293  14.015  10.410   8.166
 2799SOL    HW110294  14.015  10.324   8.123
 2799SOL    HW210295  14.052  10.470   8.101
 2800SOL     OW10296   8.244   0.069   4.051
 2800SOL    HW110297   8.185   0.073   4.126
 2800SOL    HW210298   8.292   0.152   4.054
 2801SOL     OW10299  11.578   3.308  12.996
 2801SOL    HW110300  11.658   3.265  12.966
 2801SOL    HW210301  11.511   3.240  12.992
 2802SOL     OW10302   1.360   2.615  13.256
 2802SOL    HW110303   1.334   2.706  13.273
 2802SOL    HW210304   1.438   2.601  13.310
 2803SOL     OW10305   6.439   4.740  11.829
 2803SOL    HW110306   6.524   4.783  11.837
 2803SOL    HW210307   6.435   4.711  11.738
 2804SOL     OW10308  11.253  10.210  13.588
 2804SOL    HW110309  11.315  10.138  13.585
 2804SOL    HW210310  11.183  10.184  13.528
 2805SOL     OW10311  11.116  13.230   3.554
 2805SOL    HW110312  11.106  13.278   3.636
 2805SOL    HW210313  11.128  13.139   3.581
 2806SOL     OW10314   0.226   0.862   6.672
 2806SOL    HW110315   0.308   0.881   6.627
 2806SOL    HW210316   0.187   0.948   6.688
 2807SOL     OW10317  12.333  10.914   5.734
 2807SOL    HW110318  12.252  10.901   5.785
 2807SOL    HW210319  12.335  10.841   5.673
 2808SOL     OW10320  11.024  11.510   8.519
 2808SOL    HW110321  11.118  11.493   8.525
 2808SOL    HW210322  10.999  11.537   8.608
 2809SOL     OW10323   7.026   1.761  14.555
 2809SOL    HW110324   7.098   1.805  14.509
 2809SOL    HW210325   7.023   1.802  14.641
 2810SOL     OW10326   0.575   7.838  10.641
 2810SOL    HW110327   0.485   7.830  10.672
 2810SOL    HW210328   0.621   7.880  10.713
 2811SOL     OW10329   3.436   6.734   2.118
 2811SOL    HW110330   3.356   6.708   2.163
 2811SOL    HW210331   3.501   6.669   2.146
 2812SOL     OW10332   2.502   5.757  10.802
 2812SOL    HW110333   2.407   5.751  10.798
 2812SOL    HW210334   2.520   5.804  10.883
 2813SOL     OW10335   8.999  14.183   7.801
 2813SOL    HW110336   8.914  14.138   7.801
 2813SOL    HW210337   9.049  14.138   7.869
 2814SOL     OW10338   8.411   1.178   1.325
 2814SOL    HW110339   8.481   1.176   1.390
 2814SOL    HW210340   8.423   1.261   1.279
 2815SOL     OW10341  12.562   6.455  10.246
 2815SOL    HW110342  12.596   6.455  10.157
 2815SOL    HW210343  12.502   6.381  10.249
 2816SOL     OW10344  10.434  12.828   4.165
 2816SOL    HW110345  10.386  12.821   4.247
 2816SOL    HW210346  10.469  12.917   4.165
 2817SOL     OW10347   7.382   3.318  10.356
 2817SOL    HW110348   7.371   3.223  10.353
 2817SOL    HW210349   7.469   3.334  10.318
 2818SOL     OW10350  12.520   6.919   3.664
 2818SOL    HW110351  12.535   6.993   3.604
 2818SOL    HW210352  12.598   6.865   3.656
 2819SOL     OW10353   9.330  14.795  12.786
 2819SOL    HW110354   9.382  14.725  12.747
 2819SOL    HW210355   9.347   0.003  12.730
 2820SOL     OW10356   7.613   4.333  13.898
 2820SOL    HW110357   7.520   4.345  13.882
 2820SOL    HW210358   7.655   4.356  13.815
 2821SOL     OW10359   5.011   9.331   8.166
 2821SOL    HW110360   4.928   9.365   8.201
 2821SOL    HW210361   5.026   9.250   8.215
 2822SOL     OW10362  13.675   9.914   2.437
 2822SOL    HW110363  13.611   9.897   2.367
 2822SOL    HW210364  13.686   9.829   2.480
 2823SOL     OW10365  10.136   0.337  12.586
 2823SOL    HW110366  10.058   0.390  12.573
 2823SOL    HW210367  10.198   0.395  12.631
 2824SOL     OW10368   9.058   1.940   0.494
 2824SOL    HW110369   9.032   2.030   0.512
 2824SOL    HW210370   9.080   1.904   0.580
 2825SOL     OW10371   3.172   1.315  11.263
 2825SOL    HW110372   3.207   1.380  11.324
 2825SOL    HW210373   3.148   1.240  11.319
 2826SOL     OW10374   7.006   3.506   8.477
 2826SOL    HW110375   6.939   3.566   8.445
 2826SOL    HW210376   7.086   3.533   8.432
 2827SOL     OW10377   0.094   5.470   5.957
 2827SOL    HW110378   0.070   5.399   5.897
 2827SOL    HW210379   0.161   5.431   6.013
 2828SOL     OW10380   0.667   8.325  14.866
 2828SOL    HW110381   0.651   8.390  14.797
 2828SOL    HW210382   0.760   8.333   0.018
 2829SOL     OW10383  13.960   9.927  14.839
 2829SOL    HW110384  13.929   9.837  14.831
 2829SOL    HW210385  13.987   9.935   0.062
 2830SOL     OW10386  10.117   4.854   8.046
 2830SOL    HW110387  10.091   4.770   8.008
 2830SOL    HW210388  10.166   4.830   8.125
 2831SOL     OW10389   9.413   9.569   5.025
 2831SOL    HW110390   9.366   9.592   5.105
 2831SOL    HW210391   9.362   9.609   4.954
 2832SOL     OW10392   0.894  10.183  10.826
 2832SOL    HW110393   0.933  10.204  10.910
 2832SOL    HW210394   0.954  10.119  10.787
 2833SOL     OW10395   1.421   0.810   6.507
 2833SOL    HW110396   1.335   0.817   6.547
 2833SOL    HW210397   1.409   0.754   6.431
 2834SOL     OW10398   2.794   7.568   1.199
 2834SOL    HW110399   2.888   7.562   1.215
 2834SOL    HW210400   2.757   7.590   1.285
 2835SOL     OW10401   6.090   8.149   0.332
 2835SOL    HW110402   6.150   8.116   0.399
 2835SOL    HW210403   6.141   8.146   0.251
 2836SOL     OW10404   1.316   0.812  10.949
 2836SOL    HW110405   1.358   0.879  11.003
 2836SOL    HW210406   1.258   0.861  10.890
 2837SOL     OW10407  13.007   9.205  14.098
 2837SOL    HW110408  12.928   9.257  14.111
 2837SOL    HW210409  13.062   9.258  14.041
 2838SOL     OW10410   2.956   0.215  12.204
 2838SOL    HW110411   2.914   0.208  12.118
 2838SOL    HW210412   2.993   0.128  12.220
 2839SOL     OW10413  13.936   6.906  12.650
 2839SOL    HW110414  13.947   6.977  12.713
 2839SOL    HW210415  13.966   6.828  12.697
 2840SOL     OW10416   3.667  11.293   8.933
 2840SOL    HW110417   3.637  11.321   9.019
 2840SOL    HW210418   3.637  11.361   8.873
 2841SOL     OW10419   3.870   3.847   6.204
 2841SOL    HW110420   3.944   3.795   6.174
 2841SOL    HW210421   3.891   3.936   6.176
 2842SOL     OW10422   0.336   2.749   0.598
 2842SOL    HW110423   0.308   2.840   0.603
 2842SOL    HW210424   0.289   2.706   0.669
 2843SOL     OW10425   7.545  10.910   3.103
 2843SOL    HW110426   7.619  10.949   3.056
 2843SOL    HW210427   7.483  10.885   3.035
 2844SOL     OW10428   4.457   1.874   7.024
 2844SOL    HW110429   4.436   1.804   6.962
 2844SOL    HW210430   4.446   1.835   7.110
 2845SOL     OW10431   3.105  11.181   2.270
 2845SOL    HW110432   3.057  11.099   2.269
 2845SOL    HW210433   3.057  11.239   2.211
 2846SOL     OW10434  10.961   2.914  12.974
 2846SOL    HW110435  10.893   2.947  12.915
 2846SOL    HW210436  10.926   2.928  13.062
 2847SOL     OW10437  12.576   8.754  13.039
 2847SOL    HW110438  12.532   8.795  13.114
 2847SOL    HW210439  12.625   8.681  13.077
 2848SOL     OW10440   9.188  12.949   7.519
 2848SOL    HW110441   9.123  12.881   7.500
 2848SOL    HW210442   9.177  12.967   7.613
 2849SOL     OW10443   3.950   7.138   2.547
 2849SOL    HW110444   3.911   7.206   2.602
 2849SOL    HW210445   4.020   7.101   2.601
 2850SOL     OW10446  12.339   4.549   3.761
 2850SOL    HW110447  12.370   4.591   3.681
 2850SOL    HW210448  12.418   4.511   3.800
 2851SOL     OW10449  14.038   2.281   7.362
 2851SOL    HW110450  14.006   2.273   7.451
 2851SOL    HW210451  14.018   2.197   7.321
 2852SOL     OW10452  13.406   3.943   7.336
 2852SOL    HW110453  13.433   3.853   7.320
 2852SOL    HW210454  13.487   3.994   7.337
 2853SOL     OW10455   8.976  13.707   8.609
 2853SOL    HW110456   8.922  13.700   8.688
 2853SOL    HW210457   8.934  13.648   8.546
 2854SOL     OW10458   8.332   0.858  11.148
 2854SOL    HW110459   8.267   0.927  11.142
 2854SOL    HW210460   8.290   0.781  11.110
 2855SOL     OW10461   0.196  13.625  13.559
 2855SOL    HW110462   0.282  13.666  13.560
 2855SOL    HW210463   0.145  13.674  13.624
 2856SOL     OW10464   3.369  11.167  12.155
 2856SOL    HW110465   3.440  11.117  12.195
 2856SOL    HW210466   3.303  11.101  12.132
 2857SOL     OW10467   8.236   5.416   2.057
 2857SOL    HW110468   8.159   5.363   2.075
 2857SOL    HW210469   8.308   5.354   2.050
 2858SOL     OW10470  11.279   5.166  13.502
 2858SOL    HW110471  11.218   5.162  13.575
 2858SOL    HW210472  11.297   5.074  13.481
 2859SOL     OW10473   2.347  11.902   1.150
 2859SOL    HW110474   2.322  11.881   1.060
 2859SOL    HW210475   2.443  11.897   1.149
 2860SOL     OW10476   3.694   5.104   1.458
 2860SOL    HW110477   3.618   5.065   1.414
 2860SOL    HW210478   3.753   5.031   1.473
 2861SOL     OW10479   6.647   4.714   1.308
 2861SOL    HW110480   6.687   4.801   1.301
 2861SOL    HW210481   6.576   4.714   1.244
 2862SOL     OW10482   0.800  14.353   4.931
 2862SOL    HW110483   0.708  14.329   4.940
 2862SOL    HW210484   0.824  14.323   4.843
 2863SOL     OW10485  13.000  13.554   5.197
 2863SOL    HW110486  13.054  13.543   5.275
 2863SOL    HW210487  12.925  13.606   5.226
 2864SOL     OW10488  14.625   4.402  12.725
 2864SOL    HW110489  14.541   4.387  12.683
 2864SOL    HW210490  14.690   4.373  12.660
 2865SOL     OW10491  12.604   2.210   4.486
 2865SOL    HW110492  12.544   2.284   4.497
 2865SOL    HW210493  12.578   2.147   4.553
 2866SOL     OW10494   9.318   9.117   4.662
 2866SOL    HW110495   9.357   9.034   4.691
 2866SOL    HW210496   9.381   9.154   4.601
 2867SOL     OW10497   7.000  13.398  12.165
 2867SOL    HW110498   6.941  13.323  12.165
 2867SOL    HW210499   6.997  13.433  12.076
 2868SOL     OW10500  10.608   6.033   0.365
 2868SOL    HW110501  10.668   6.032   0.440
 2868SOL    HW210502  10.662   6.006   0.291
 2869SOL     OW10503   3.164  12.978   5.565
 2869SOL    HW110504   3.131  12.968   5.654
 2869SOL    HW210505   3.258  12.960   5.571
 2870SOL     OW10506   4.929   8.237  10.596
 2870SOL    HW110507   4.945   8.219  10.504
 2870SOL    HW210508   4.861   8.305  10.596
 2871SOL     OW10509   7.906   4.566   4.103
 2871SOL    HW110510   7.896   4.593   4.194
 2871SOL    HW210511   7.983   4.614   4.072
 2872SOL     OW10512   6.422   7.012   6.951
 2872SOL    HW110513   6.422   6.986   7.043
 2872SOL    HW210514   6.333   7.043   6.935
 2873SOL     OW10515   7.696   2.944   9.437
 2873SOL    HW110516   7.753   2.891   9.382
 2873SOL    HW210517   7.699   3.032   9.399
 2874SOL     OW10518  12.836   7.048  10.043
 2874SOL    HW110519  12.873   6.968  10.005
 2874SOL    HW210520  12.844   7.114   9.973
 2875SOL     OW10521   4.309  12.974   1.385
 2875SOL    HW110522   4.400  13.004   1.380
 2875SOL    HW210523   4.315  12.879   1.380
 2876SOL     OW10524   2.165   5.203   9.445
 2876SOL    HW110525   2.164   5.249   9.361
 2876SOL    HW210526   2.141   5.270   9.509
 2877SOL     OW10527  13.445  14.768  13.883
 2877SOL    HW110528  13.491  14.769  13.967
 2877SOL    HW210529  13.486  14.839  13.833
 2878SOL     OW10530  14.773   7.655   7.533
 2878SOL    HW110531  14.768   7.579   7.475
 2878SOL    HW210532  14.687   7.696   7.527
 2879SOL     OW10533   0.297  13.702   5.011
 2879SOL    HW110534   0.268  13.758   5.083
 2879SOL    HW210535   0.302  13.614   5.049
 2880SOL     OW10536   8.675   0.916   9.281
 2880SOL    HW110537   8.697   0.928   9.373
 2880SOL    HW210538   8.754   0.879   9.242
 2881SOL     OW10539   8.892   7.497   8.776
 2881SOL    HW110540   8.958   7.461   8.717
 2881SOL    HW210541   8.942   7.526   8.853
 2882SOL     OW10542  12.196   8.036  14.614
 2882SOL    HW110543  12.248   8.016  14.536
 2882SOL    HW210544  12.118   8.080  14.580
 2883SOL     OW10545   6.644   3.435   5.797
 2883SOL    HW110546   6.636   3.530   5.800
 2883SOL    HW210547   6.724   3.419   5.747
 2884SOL     OW10548   0.081  11.516   3.125
 2884SOL    HW110549   0.059  11.605   3.152
 2884SOL    HW210550   0.090  11.467   3.207
 2885SOL     OW10551   9.001   2.493   2.541
 2885SOL    HW110552   8.951   2.414   2.520
 2885SOL    HW210553   8.940   2.547   2.592
 2886SOL     OW10554   5.406   2.778  13.867
 2886SOL    HW110555   5.483   2.723  13.879
 2886SOL    HW210556   5.409   2.841  13.939
 2887SOL     OW10557   4.555  13.421   4.416
 2887SOL    HW110558   4.608  13.429   4.337
 2887SOL    HW210559   4.549  13.510   4.450
 2888SOL     OW10560  13.432   5.211   4.833
 2888SOL    HW110561  13.458   5.220   4.924
 2888SOL    HW210562  13.337   5.199   4.836
 2889SOL     OW10563   0.861   6.640   2.144
 2889SOL    HW110564   0.908   6.616   2.224
 2889SOL    HW210565   0.806   6.564   2.124
 2890SOL     OW10566  13.414   0.558   8.959
 2890SOL    HW110567  13.404   0.566   8.865
 2890SOL    HW210568  13.508   0.567   8.975
 2891SOL     OW10569   1.682  12.763  11.255
 2891SOL    HW110570   1.760  12.812  11.281
 2891SOL    HW210571   1.616  12.830  11.236
 2892SOL     OW10572   5.082   7.864   9.178
 2892SOL    HW110573   5.163   7.827   9.213
 2892SOL    HW210574   5.019   7.792   9.183
 2893SOL     OW10575   5.894   8.097   2.158
 2893SOL    HW110576   5.984   8.111   2.188
 2893SOL    HW210577   5.902   8.070   2.067
 2894SOL     OW10578   4.628   4.211  12.583
 2894SOL    HW110579   4.596   4.171  12.502
 2894SOL    HW210580   4.606   4.147  12.652
 2895SOL     OW10581   7.136   2.458   3.453
 2895SOL    HW110582   7.225   2.487   3.435
 2895SOL    HW210583   7.146   2.390   3.520
 2896SOL     OW10584  13.666   4.893   9.244
 2896SOL    HW110585  13.755   4.926   9.245
 2896SOL    HW210586  13.611   4.971   9.259
 2897SOL     OW10587  10.551   3.212  11.753
 2897SOL    HW110588  10.625   3.171  11.707
 2897SOL    HW210589  10.592   3.257  11.827
 2898SOL     OW10590   4.401   1.770   6.378
 2898SOL    HW110591   4.447   1.854   6.371
 2898SOL    HW210592   4.403   1.750   6.471
 2899SOL     OW10593   9.173   3.336  12.476
 2899SOL    HW110594   9.206   3.269  12.536
 2899SOL    HW210595   9.229   3.412  12.491
 2900SOL     OW10596  12.535   8.563  11.973
 2900SOL    HW110597  12.598   8.494  11.992
 2900SOL    HW210598  12.523   8.609  12.056
 2901SOL     OW10599   8.927  12.632  14.395
 2901SOL    HW110600   8.952  12.544  14.425
 2901SOL    HW210601   9.007  12.684  14.403
 2902SOL     OW10602   9.475  10.491   4.863
 2902SOL    HW110603   9.545  10.429   4.842
 2902SOL    HW210604   9.401  10.437   4.889
 2903SOL     OW10605   3.535  11.273   9.522
 2903SOL    HW110606   3.522  11.178   9.526
 2903SOL    HW210607   3.547  11.299   9.614
 2904SOL     OW10608   7.919   3.009  13.397
 2904SOL    HW110609   7.943   2.949  13.467
 2904SOL    HW210610   8.002   3.046  13.368
 2905SOL     OW10611   9.077  13.782  10.785
 2905SOL    HW110612   9.150  13.721  10.799
 2905SOL    HW210613   9.002  13.740  10.828
 2906SOL     OW10614   1.503  11.438  12.347
 2906SOL    HW110615   1.454  11.438  12.265
 2906SOL    HW210616   1.586  11.481  12.326
 2907SOL     OW10617  11.820   3.066   2.290
 2907SOL    HW110618  11.865   3.027   2.365
 2907SOL    HW210619  11.870   3.145   2.271
 2908SOL     OW10620   8.086  12.489  13.745
 2908SOL    HW110621   8.039  12.485  13.829
 2908SOL    HW210622   8.105  12.582  13.733
 2909SOL     OW10623   7.020  11.839   1.817
 2909SOL    HW110624   7.070  11.758   1.806
 2909SOL    HW210625   7.074  11.906   1.775
 2910SOL     OW10626   7.395   6.367   9.860
 2910SOL    HW110627   7.418   6.275   9.867
 2910SOL    HW210628   7.299   6.368   9.861
 2911SOL     OW10629  11.084  14.441   3.173
 2911SOL    HW110630  11.144  14.386   3.224
 2911SOL    HW210631  11.138  14.514   3.145
 2912SOL     OW10632   5.247   8.000   9.718
 2912SOL    HW110633   5.248   7.906   9.699
 2912SOL    HW210634   5.263   8.042   9.633
 2913SOL     OW10635   0.659   3.092   6.296
 2913SOL    HW110636   0.688   3.172   6.339
 2913SOL    HW210637   0.718   3.083   6.220
 2914SOL     OW10638   2.314  10.978   1.408
 2914SOL    HW110639   2.408  10.965   1.416
 2914SOL    HW210640   2.279  10.890   1.394
 2915SOL     OW10641  11.136  12.864  14.186
 2915SOL    HW110642  11.046  12.879  14.216
 2915SOL    HW210643  11.150  12.771  14.199
 2916SOL     OW10644  13.612   2.056   7.122
 2916SOL    HW110645  13.575   1.970   7.102
 2916SOL    HW210646  13.594   2.109   7.044
 2917SOL     OW10647  12.710   4.518   3.890
 2917SOL    HW110648  12.658   4.599   3.888
 2917SOL    HW210649  12.733   4.507   3.983
 2918SOL     OW10650   2.440  13.963  13.940
 2918SOL    HW110651   2.445  14.051  13.901
 2918SOL    HW210652   2.349  13.954  13.967
 2919SOL     OW10653   8.836   6.295   7.735
 2919SOL    HW110654   8.837   6.274   7.829
 2919SOL    HW210655   8.892   6.228   7.696
 2920SOL     OW10656   6.958   1.434  10.360
 2920SOL    HW110657   6.880   1.401  10.314
 2920SOL    HW210658   6.944   1.406  10.451
 2921SOL     OW10659   1.855   8.341   4.304
 2921SOL    HW110660   1.793   8.292   4.251
 2921SOL    HW210661   1.919   8.376   4.241
 2922SOL     OW10662   7.606  11.679   7.546
 2922SOL    HW110663   7.696  11.667   7.514
 2922SOL    HW210664   7.557  11.607   7.505
 2923SOL     OW10665   0.764   9.771   2.493
 2923SOL    HW110666   0.830   9.715   2.453
 2923SOL    HW210667   0.814   9.838   2.540
 2924SOL     OW10668   4.022  13.105  13.798
 2924SOL    HW110669   4.084  13.137  13.733
 2924SOL    HW210670   3.947  13.163  13.791
 2925SOL     OW10671   9.941   8.130   4.693
 2925SOL    HW110672   9.985   8.117   4.609
 2925SOL    HW210673   9.850   8.108   4.676
 2926SOL     OW10674   7.184  13.196   1.058
 2926SOL    HW110675   7.275  13.207   1.086
 2926SOL    HW210676   7.156  13.114   1.098
 2927SOL     OW10677   5.331   8.170   4.979
 2927SOL    HW110678   5.303   8.260   4.996
 2927SOL    HW210679   5.336   8.130   5.066
 2928SOL     OW10680   1.185  11.792  10.942
 2928SOL    HW110681   1.098  11.803  10.981
 2928SOL    HW210682   1.216  11.882  10.927
 2929SOL     OW10683   6.544   1.040  11.976
 2929SOL    HW110684   6.543   0.945  11.980
 2929SOL    HW210685   6.501   1.061  11.893
 2930SOL     OW10686  14.012   7.070  12.863
 2930SOL    HW110687  14.102   7.091  12.886
 2930SOL    HW210688  13.982   7.013  12.934
 2931SOL     OW10689  12.764  13.215  14.373
 2931SOL    HW110690  12.699  13.160  14.416
 2931SOL    HW210691  12.848  13.180  14.403
 2932SOL     OW10692  13.268   4.271   5.464
 2932SOL    HW110693  13.266   4.183   5.502
 2932SOL    HW210694  13.217   4.263   5.384
 2933SOL     OW10695  11.633   8.709   4.769
 2933SOL    HW110696  11.634   8.805   4.773
 2933SOL    HW210697  11.705   8.683   4.826
 2934SOL     OW10698   5.511   0.747   6.751
 2934SOL    HW110699   5.440   0.771   6.690
 2934SOL    HW210700   5.560   0.679   6.704
 2935SOL     OW10701  11.449   4.880   2.512
 2935SOL    HW110702  11.358   4.880   2.539
 2935SOL    HW210703  11.464   4.967   2.476
 2936SOL     OW10704   4.460   1.269   0.958
 2936SOL    HW110705   4.543   1.223   0.970
 2936SOL    HW210706   4.476   1.358   0.991
 2937SOL     OW10707   1.715  11.868  10.307
 2937SOL    HW110708   1.751  11.957  10.300
 2937SOL    HW210709   1.626  11.881  10.337
 2938SOL     OW10710   5.759  10.982   7.306
 2938SOL    HW110711   5.752  10.972   7.211
 2938SOL    HW210712   5.738  11.074   7.322
 2939SOL     OW10713  10.338   3.424   7.511
 2939SOL    HW110714  10.269   3.443   7.575
 2939SOL    HW210715  10.291   3.392   7.434
 2940SOL     OW10716   2.250  10.867   9.584
 2940SOL    HW110717   2.218  10.833   9.500
 2940SOL    HW210718   2.345  10.853   9.580
 2941SOL     OW10719   0.305   4.253  11.774
 2941SOL    HW110720   0.261   4.227  11.694
 2941SOL    HW210721   0.383   4.198  11.778
 2942SOL     OW10722  12.629   1.125  12.834
 2942SOL    HW110723  12.584   1.207  12.812
 2942SOL    HW210724  12.568   1.056  12.810
 2943SOL     OW10725   9.531   0.526   9.346
 2943SOL    HW110726   9.536   0.595   9.280
 2943SOL    HW210727   9.441   0.529   9.376
 2944SOL     OW10728   9.731   5.686   3.420
 2944SOL    HW110729   9.643   5.649   3.426
 2944SOL    HW210730   9.773   5.636   3.350
 2945SOL     OW10731  13.027   6.076   7.525
 2945SOL    HW110732  13.052   6.104   7.613
 2945SOL    HW210733  13.001   6.156   7.480
 2946SOL     OW10734  13.620   3.915  14.828
 2946SOL    HW110735  13.535   3.877  14.849
 2946SOL    HW210736  13.606   4.010  14.830
 2947SOL     OW10737   6.369  10.672   0.497
 2947SOL    HW110738   6.404  10.626   0.573
 2947SOL    HW210739   6.445  10.689   0.441
 2948SOL     OW10740  13.756  11.769   9.323
 2948SOL    HW110741  13.793  11.856   9.306
 2948SOL    HW210742  13.762  11.759   9.418
 2949SOL     OW10743  10.764   5.235  14.494
 2949SOL    HW110744  10.807   5.243  14.409
 2949SOL    HW210745  10.836   5.241  14.558
 2950SOL     OW10746   3.103  12.250  12.659
 2950SOL    HW110747   3.026  12.209  12.698
 2950SOL    HW210748   3.135  12.185  12.596
 2951SOL     OW10749  14.110  12.575   6.892
 2951SOL    HW110750  14.102  12.569   6.796
 2951SOL    HW210751  14.202  12.556   6.909
 2952SOL     OW10752   2.913   6.084  12.864
 2952SOL    HW110753   2.903   6.014  12.800
 2952SOL    HW210754   2.825   6.120  12.874
 2953SOL     OW10755  13.697  10.404   4.885
 2953SOL    HW110756  13.629  10.394   4.951
 2953SOL    HW210757  13.678  10.488   4.843
 2954SOL     OW10758  10.215   1.174   4.623
 2954SOL    HW110759  10.306   1.206   4.620
 2954SOL    HW210760  10.204   1.126   4.541
 2955SOL     OW10761   6.957   5.995   7.883
 2955SOL    HW110762   6.875   5.975   7.838
 2955SOL    HW210763   6.950   6.088   7.905
 2956SOL     OW10764   4.905   1.351   9.621
 2956SOL    HW110765   4.967   1.409   9.663
 2956SOL    HW210766   4.840   1.409   9.581
 2957SOL     OW10767   2.366   0.424   2.251
 2957SOL    HW110768   2.311   0.498   2.224
 2957SOL    HW210769   2.393   0.445   2.340
 2958SOL     OW10770   9.222   1.771  13.594
 2958SOL    HW110771   9.246   1.858  13.562
 2958SOL    HW210772   9.129   1.779  13.617
 2959SOL     OW10773  13.386   4.271   6.195
 2959SOL    HW110774  13.309   4.264   6.252
 2959SOL    HW210775  13.352   4.312   6.115
 2960SOL     OW10776   3.286  10.352   0.180
 2960SOL    HW110777   3.194  10.361   0.155
 2960SOL    HW210778   3.287  10.278   0.241
 2961SOL     OW10779  12.289   8.902  11.951
 2961SOL    HW110780  12.360   8.966  11.950
 2961SOL    HW210781  12.209   8.953  11.938
 2962SOL     OW10782   9.903   1.151  12.264
 2962SOL    HW110783   9.882   1.058  12.261
 2962SOL    HW210784   9.848   1.190  12.196
 2963SOL     OW10785  14.709  14.483  12.062
 2963SOL    HW110786  14.727  14.422  12.134
 2963SOL    HW210787  14.627  14.526  12.088
 2964SOL     OW10788  10.171  12.439   6.855
 2964SOL    HW110789  10.218  12.434   6.938
 2964SOL    HW210790  10.079  12.428   6.879
 2965SOL     OW10791   8.196   4.285   4.492
 2965SOL    HW110792   8.231   4.348   4.429
 2965SOL    HW210793   8.260   4.213   4.492
 2966SOL     OW10794   8.960   3.560  12.594
 2966SOL    HW110795   9.050   3.542  12.566
 2966SOL    HW210796   8.949   3.505  12.672
 2967SOL     OW10797   2.412   0.761  10.537
 2967SOL    HW110798   2.317   0.751  10.549
 2967SOL    HW210799   2.450   0.698  10.598
 2968SOL     OW10800   9.857   0.659   6.267
 2968SOL    HW110801   9.782   0.638   6.211
 2968SOL    HW210802   9.890   0.573   6.295
 2969SOL     OW10803   4.553   6.700   5.868
 2969SOL    HW110804   4.626   6.743   5.913
 2969SOL    HW210805   4.520   6.766   5.807
 2970SOL     OW10806   5.399   7.744  14.778
 2970SOL    HW110807   5.415   7.837  14.794
 2970SOL    HW210808   5.435   7.728  14.691
 2971SOL     OW10809   2.920   4.639   7.994
 2971SOL    HW110810   2.971   4.650   8.075
 2971SOL    HW210811   2.854   4.574   8.016
 2972SOL     OW10812   2.309  12.952   5.389
 2972SOL    HW110813   2.325  12.889   5.319
 2972SOL    HW210814   2.217  12.979   5.377
 2973SOL     OW10815   4.452   2.533   2.975
 2973SOL    HW110816   4.360   2.521   2.997
 2973SOL    HW210817   4.491   2.447   2.988
 2974SOL     OW10818   2.741  14.695   6.240
 2974SOL    HW110819   2.757  14.779   6.282
 2974SOL    HW210820   2.804  14.635   6.282
 2975SOL     OW10821   9.636   6.869  14.741
 2975SOL    HW110822   9.715   6.923  14.740
 2975SOL    HW210823   9.634   6.832  14.830
 2976SOL     OW10824   8.654   4.961  10.908
 2976SOL    HW110825   8.712   4.933  10.979
 2976SOL    HW210826   8.572   4.914  10.925
 2977SOL     OW10827   9.683   0.176   3.153
 2977SOL    HW110828   9.713   0.092   3.118
 2977SOL    HW210829   9.703   0.171   3.247
 2978SOL     OW10830   5.071  11.550   5.180
 2978SOL    HW110831   5.104  11.522   5.265
 2978SOL    HW210832   5.086  11.476   5.123
 2979SOL     OW10833  13.418  10.906   9.851
 2979SOL    HW110834  13.352  10.908   9.920
 2979SOL    HW210835  13.371  10.932   9.772
 2980SOL     OW10836   0.078   1.518   1.864
 2980SOL    HW110837   0.140   1.523   1.791
 2980SOL    HW210838   0.046   1.608   1.874
 2981SOL     OW10839   3.707   6.008   7.418
 2981SOL    HW110840   3.678   5.977   7.504
 2981SOL    HW210841   3.692   6.103   7.421
 2982SOL     OW10842  14.347   7.642  13.261
 2982SOL    HW110843  14.439   7.649  13.285
 2982SOL    HW210844  14.347   7.638  13.166
 2983SOL     OW10845   4.388  11.852   1.215
 2983SOL    HW110846   4.438  11.867   1.295
 2983SOL    HW210847   4.450  11.871   1.144
 2984SOL     OW10848   9.035   5.379   8.097
 2984SOL    HW110849   9.078   5.432   8.165
 2984SOL    HW210850   9.081   5.295   8.100
 2985SOL     OW10851  11.417   6.435  13.769
 2985SOL    HW110852  11.412   6.499  13.841
 2985SOL    HW210853  11.465   6.481  13.700
 2986SOL     OW10854  14.376   4.350   6.581
 2986SOL    HW110855  14.301   4.326   6.527
 2986SOL    HW210856  14.440   4.387   6.519
 2987SOL     OW10857   3.350  14.636   9.507
 2987SOL    HW110858   3.272  14.680   9.541
 2987SOL    HW210859   3.316  14.573   9.444
 2988SOL     OW10860   4.994   3.951  14.587
 2988SOL    HW110861   4.967   3.873  14.636
 2988SOL    HW210862   4.917   4.007  14.588
 2989SOL     OW10863  10.626   8.665  11.388
 2989SOL    HW110864  10.720   8.672  11.372
 2989SOL    HW210865  10.619   8.628  11.476
 2990SOL     OW10866   5.625   3.571   0.639
 2990SOL    HW110867   5.628   3.622   0.558
 2990SOL    HW210868   5.689   3.502   0.626
 2991SOL     OW10869   7.971   8.382  13.657
 2991SOL    HW110870   8.065   8.364  13.657
 2991SOL    HW210871   7.939   8.345  13.739
 2992SOL     OW10872   4.082  14.207   2.850
 2992SOL    HW110873   4.165  14.177   2.813
 2992SOL    HW210874   4.107  14.274   2.914
 2993SOL     OW10875  13.267   3.324   2.715
 2993SOL    HW110876  13.227   3.411   2.719
 2993SOL    HW210877  13.270   3.304   2.621
 2994SOL     OW10878   5.445   8.475  11.197
 2994SOL    HW110879   5.447   8.519  11.112
 2994SOL    HW210880   5.479   8.540  11.259
 2995SOL     OW10881  11.045   6.665  14.520
 2995SOL    HW110882  11.125   6.665  14.467
 2995SOL    HW210883  10.974   6.659  14.456
 2996SOL     OW10884  14.143   9.016  14.345
 2996SOL    HW110885  14.149   9.076  14.271
 2996SOL    HW210886  14.088   8.944  14.314
 2997SOL     OW10887   1.384  12.190   5.968
 2997SOL    HW110888   1.456  12.253   5.970
 2997SOL    HW210889   1.332  12.210   6.046
 2998SOL     OW10890   1.811   5.229   4.564
 2998SOL    HW110891   1.887   5.286   4.557
 2998SOL    HW210892   1.841   5.157   4.621
 2999SOL     OW10893   4.441   2.965   3.259
 2999SOL    HW110894   4.509   3.031   3.276
 2999SOL    HW210895   4.381   2.972   3.333
 3000SOL     OW10896   6.346  13.950   3.629
 3000SOL    HW110897   6.293  14.026   3.603
 3000SOL    HW210898   6.383  13.918   3.546
 3001SOL     OW10899   1.069  14.656   4.747
 3001SOL    HW110900   1.022  14.633   4.667
 3001SOL    HW210901   1.162  14.653   4.722
 3002SOL     OW10902   9.635   3.659   5.593
 3002SOL    HW110903   9.599   3.613   5.517
 3002SOL    HW210904   9.563   3.713   5.625
 3003SOL     OW10905   7.711  12.693   6.015
 3003SOL    HW110906   7.696  12.599   6.015
 3003SOL    HW210907   7.753  12.711   5.931
 3004SOL     OW10908   7.830  10.043   6.821
 3004SOL    HW110909   7.875  10.048   6.905
 3004SOL    HW210910   7.767  10.115   6.823
 3005SOL     OW10911   0.726   8.541  12.645
 3005SOL    HW110912   0.772   8.457  12.653
 3005SOL    HW210913   0.651   8.521  12.589
 3006SOL     OW10914  14.098   0.431  12.679
 3006SOL    HW110915  14.107   0.480  12.761
 3006SOL    HW210916  14.004   0.414  12.671
 3007SOL     OW10917   9.069   2.498  14.519
 3007SOL    HW110918   9.000   2.441  14.553
 3007SOL    HW210919   9.024   2.555  14.457
 3008SOL     OW10920  13.711  10.898   9.894
 3008SOL    HW110921  13.616  10.885   9.895
 3008SOL    HW210922  13.731  10.930   9.982
 3009SOL     OW10923  11.934   1.128   8.861
 3009SOL    HW110924  11.840   1.111   8.872
 3009SOL    HW210925  11.972   1.107   8.946
 3010SOL     OW10926   4.141   1.927   8.070
 3010SOL    HW110927   4.092   1.998   8.112
 3010SOL    HW210928   4.089   1.903   7.994
 3011SOL     OW10929  10.809   1.020  14.468
 3011SOL    HW110930  10.738   0.957  14.478
 3011SOL    HW210931  10.888   0.970  14.488
 3012SOL     OW10932   1.335   8.291   0.133
 3012SOL    HW110933   1.273   8.352   0.174
 3012SOL    HW210934   1.358   8.334   0.051
 3013SOL     OW10935   8.643  13.545   6.868
 3013SOL    HW110936   8.572  13.489   6.835
 3013SOL    HW210937   8.706  13.548   6.796
 3014SOL     OW10938   7.738   3.433  12.433
 3014SOL    HW110939   7.768   3.499  12.370
 3014SOL    HW210940   7.681   3.480  12.493
 3015SOL     OW10941  13.227   0.803   2.857
 3015SOL    HW110942  13.228   0.875   2.920
 3015SOL    HW210943  13.318   0.798   2.827
 3016SOL     OW10944   4.176   1.397  12.476
 3016SOL    HW110945   4.263   1.425  12.448
 3016SOL    HW210946   4.115   1.441  12.417
 3017SOL     OW10947  14.274   7.193   0.436
 3017SOL    HW110948  14.363   7.195   0.469
 3017SOL    HW210949  14.226   7.140   0.500
 3018SOL     OW10950   8.497  13.891  12.643
 3018SOL    HW110951   8.571  13.947  12.666
 3018SOL    HW210952   8.439  13.895  12.719
 3019SOL     OW10953   0.288   4.447  13.732
 3019SOL    HW110954   0.288   4.434  13.827
 3019SOL    HW210955   0.378   4.472  13.711
 3020SOL     OW10956   4.550   9.210   5.840
 3020SOL    HW110957   4.510   9.221   5.753
 3020SOL    HW210958   4.530   9.292   5.885
 3021SOL     OW10959  11.665   0.768   4.627
 3021SOL    HW110960  11.748   0.787   4.671
 3021SOL    HW210961  11.598   0.795   4.690
 3022SOL     OW10962   3.251  10.225  12.761
 3022SOL    HW110963   3.329  10.187  12.720
 3022SOL    HW210964   3.256  10.197  12.853
 3023SOL     OW10965   2.470  13.139   1.853
 3023SOL    HW110966   2.526  13.217   1.857
 3023SOL    HW210967   2.528  13.069   1.825
 3024SOL     OW10968  11.558  11.696   5.885
 3024SOL    HW110969  11.608  11.615   5.870
 3024SOL    HW210970  11.606  11.762   5.835
 3025SOL     OW10971  14.015   8.153   8.404
 3025SOL    HW110972  13.993   8.207   8.328
 3025SOL    HW210973  14.014   8.214   8.478
 3026SOL     OW10974   8.598   1.572   5.481
 3026SOL    HW110975   8.656   1.504   5.447
 3026SOL    HW210976   8.624   1.583   5.572
 3027SOL     OW10977  13.186  11.190   1.401
 3027SOL    HW110978  13.127  11.121   1.430
 3027SOL    HW210979  13.230  11.154   1.324
 3028SOL     OW10980   8.333   5.124  10.428
 3028SOL    HW110981   8.414   5.081  10.401
 3028SOL    HW210982   8.323   5.100  10.520
 3029SOL     OW10983   0.626  12.611   5.362
 3029SOL    HW110984   0.718  12.609   5.389
 3029SOL    HW210985   0.577  12.601   5.444
 3030SOL     OW10986   4.077   6.498   1.212
 3030SOL    HW110987   4.156   6.480   1.160
 3030SOL    HW210988   4.053   6.414   1.250
 3031SOL     OW10989  14.779  10.191  12.236
 3031SOL    HW110990  14.848  10.133  12.203
 3031SOL    HW210991  14.725  10.209  12.159
 3032SOL     OW10992  13.825   6.861   5.720
 3032SOL    HW110993  13.803   6.776   5.684
 3032SOL    HW210994  13.900   6.890   5.669
 3033SOL     OW10995  14.417  12.113   2.321
 3033SOL    HW110996  14.406  12.206   2.297
 3033SOL    HW210997  14.505  12.109   2.358
 3034SOL     OW10998  12.763  10.030   5.963
 3034SOL    HW110999  12.757   9.986   6.048
 3034SOL    HW211000  12.795   9.963   5.903
 3035SOL     OW11001  12.984  11.390   2.433
 3035SOL    HW111002  13.062  11.345   2.399
 3035SOL    HW211003  12.968  11.349   2.518
 3036SOL     OW11004   7.319  11.051  10.638
 3036SOL    HW111005   7.225  11.033  10.639
 3036SOL    HW211006   7.329  11.131  10.690
 3037SOL     OW11007   6.095   7.657   2.346
 3037SOL    HW111008   6.029   7.720   2.374
 3037SOL    HW211009   6.103   7.670   2.252
 3038SOL     OW11010   8.367   6.210  12.612
 3038SOL    HW111011   8.369   6.124  12.570
 3038SOL    HW211012   8.457   6.224  12.641
 3039SOL     OW11013   7.701  10.175   1.056
 3039SOL    HW111014   7.625  10.229   1.039
 3039SOL    HW211015   7.709  10.118   0.979
 3040SOL     OW11016   8.503   2.262   3.993
 3040SOL    HW111017   8.463   2.290   4.075
 3040SOL    HW211018   8.546   2.179   4.013
 3041SOL     OW11019   6.638   3.294   0.939
 3041SOL    HW111020   6.679   3.296   1.025
 3041SOL    HW211021   6.686   3.227   0.890
 3042SOL     OW11022   0.177   3.605   6.797
 3042SOL    HW111023   0.117   3.638   6.730
 3042SOL    HW211024   0.129   3.534   6.839
 3043SOL     OW11025   5.855   9.974   1.622
 3043SOL    HW111026   5.782   9.930   1.580
 3043SOL    HW211027   5.816  10.052   1.662
 3044SOL     OW11028  11.202  12.213   4.342
 3044SOL    HW111029  11.138  12.282   4.359
 3044SOL    HW211030  11.265  12.222   4.413
 3045SOL     OW11031   3.681   0.711   9.622
 3045SOL    HW111032   3.625   0.783   9.651
 3045SOL    HW211033   3.758   0.715   9.678
 3046SOL     OW11034   4.778   6.050   4.495
 3046SOL    HW111035   4.700   6.096   4.527
 3046SOL    HW211036   4.774   6.058   4.400
 3047SOL     OW11037   3.001  13.760  14.438
 3047SOL    HW111038   3.051  13.679  14.430
 3047SOL    HW211039   3.057  13.827  14.398
 3048SOL     OW11040  13.588   4.536   0.598
 3048SOL    HW111041  13.508   4.581   0.573
 3048SOL    HW211042  13.560   4.474   0.666
 3049SOL     OW11043  11.895   5.799   0.143
 3049SOL    HW111044  11.905   5.763   0.231
 3049SOL    HW211045  11.895   5.722   0.086
 3050SOL     OW11046   9.502   4.308  10.064
 3050SOL    HW111047   9.417   4.279  10.031
 3050SOL    HW211048   9.482   4.357  10.144
 3051SOL     OW11049   2.451  14.534   1.226
 3051SOL    HW111050   2.418  14.609   1.275
 3051SOL    HW211051   2.545  14.531   1.246
 3052SOL     OW11052   5.035   2.170   7.947
 3052SOL    HW111053   5.033   2.106   7.875
 3052SOL    HW211054   5.073   2.122   8.020
 3053SOL     OW11055   6.074   0.200   4.802
 3053SOL    HW111056   6.003   0.149   4.760
 3053SOL    HW211057   6.097   0.148   4.879
 3054SOL     OW11058  10.920   7.472   1.524
 3054SOL    HW111059  10.887   7.562   1.519
 3054SOL    HW211060  10.893   7.442   1.611
 3055SOL     OW11061  10.443  11.627  14.841
 3055SOL    HW111062  10.461  11.718  14.817
 3055SOL    HW211063  10.411  11.631   0.063
 3056SOL     OW11064  13.243   2.128  12.886
 3056SOL    HW111065  13.263   2.112  12.794
 3056SOL    HW211066  13.227   2.041  12.922
 3057SOL     OW11067  12.705   8.061  14.738
 3057SOL    HW111068  12.638   8.128  14.752
 3057SOL    HW211069  12.783   8.097  14.780
 3058SOL     OW11070   0.363   5.648   8.306
 3058SOL    HW111071   0.382   5.565   8.350
 3058SOL    HW211072   0.359   5.625   8.213
 3059SOL     OW11073   7.565   6.950   1.905
 3059SOL    HW111074   7.626   6.894   1.857
 3059SOL    HW211075   7.521   7.001   1.836
 3060SOL     OW11076   0.444   9.683   1.337
 3060SOL    HW111077   0.489   9.598   1.341
 3060SOL    HW211078   0.510   9.742   1.302
 3061SOL     OW11079  12.840   5.672   1.892
 3061SOL    HW111080  12.908   5.647   1.954
 3061SOL    HW211081  12.843   5.767   1.891
 3062SOL     OW11082   2.274   5.263   3.459
 3062SOL    HW111083   2.291   5.176   3.425
 3062SOL    HW211084   2.282   5.321   3.382
 3063SOL     OW11085   0.054   7.864  10.581
 3063SOL    HW111086   0.008   7.810  10.645
 3063SOL    HW211087   0.134   7.815  10.562
 3064SOL     OW11088  14.767   4.627   8.178
 3064SOL    HW111089  14.704   4.557   8.161
 3064SOL    HW211090  14.813   4.639   8.096
 3065SOL     OW11091   4.188   5.169  11.976
 3065SOL    HW111092   4.157   5.082  12.002
 3065SOL    HW211093   4.281   5.158  11.959
 3066SOL     OW11094   5.339   9.798  10.823
 3066SOL    HW111095   5.307   9.862  10.886
 3066SOL    HW211096   5.432   9.818  10.813
 3067SOL     OW11097   3.544   7.423   7.070
 3067SOL    HW111098   3.524   7.395   6.981
 3067SOL    HW211099   3.582   7.510   7.060
 3068SOL     OW11100   6.304   2.995   0.323
 3068SOL    HW111101   6.398   2.992   0.338
 3068SOL    HW211102   6.266   2.970   0.407
 3069SOL     OW11103  12.627  10.079   6.909
 3069SOL    HW111104  12.541  10.043   6.888
 3069SOL    HW211105  12.674  10.008   6.952
 3070SOL     OW11106   1.988   9.795   8.251
 3070SOL    HW111107   2.042   9.857   8.300
 3070SOL    HW211108   2.049   9.753   8.190
 3071SOL     OW11109  12.289  12.338   0.560
 3071SOL    HW111110  12.297  12.268   0.494
 3071SOL    HW211111  12.353  12.404   0.532
 3072SOL     OW11112  11.700   1.675   6.922
 3072SOL    HW111113  11.667   1.677   7.012
 3072SOL    HW211114  11.764   1.603   6.922
 3073SOL     OW11115   3.573  10.705   9.497
 3073SOL    HW111116   3.660  10.718   9.460
 3073SOL    HW211117   3.517  10.686   9.422
 3074SOL     OW11118   8.908  12.411   5.071
 3074SOL    HW111119   8.981  12.458   5.112
 3074SOL    HW211120   8.912  12.437   4.979
 3075SOL     OW11121   7.997   8.937   4.987
 3075SOL    HW111122   8.074   8.921   5.041
 3075SOL    HW211123   7.998   9.032   4.971
 3076SOL     OW11124  12.334  13.646   0.398
 3076SOL    HW111125  12.301  13.729   0.363
 3076SOL    HW211126  12.255  13.601   0.428
 3077SOL     OW11127   2.996   7.201   6.544
 3077SOL    HW111128   2.902   7.201   6.563
 3077SOL    HW211129   3.019   7.294   6.536
 3078SOL     OW11130   0.325   9.412  10.020
 3078SOL    HW111131   0.247   9.406   9.963
 3078SOL    HW211132   0.297   9.467  10.093
 3079SOL     OW11133  12.430   9.904   9.682
 3079SOL    HW111134  12.430   9.963   9.606
 3079SOL    HW211135  12.356   9.845   9.667
 3080SOL     OW11136   8.184  11.196   8.819
 3080SOL    HW111137   8.121  11.124   8.824
 3080SOL    HW211138   8.218  11.192   8.730
 3081SOL     OW11139   5.599  14.228   1.807
 3081SOL    HW111140   5.525  14.284   1.784
 3081SOL    HW211141   5.580  14.198   1.896
 3082SOL     OW11142   7.299  14.265  11.047
 3082SOL    HW111143   7.255  14.261  11.132
 3082SOL    HW211144   7.366  14.197  11.051
 3083SOL     OW11145   9.991   2.533  11.390
 3083SOL    HW111146  10.006   2.582  11.471
 3083SOL    HW211147  10.068   2.476  11.382
 3084SOL     OW11148  13.253   9.383   6.668
 3084SOL    HW111149  13.336   9.357   6.708
 3084SOL    HW211150  13.188   9.372   6.738
 3085SOL     OW11151   6.829  14.718   8.823
 3085SOL    HW111152   6.773  14.747   8.751
 3085SOL    HW211153   6.854  14.799   8.868
 3086SOL     OW11154   6.158  10.795  12.153
 3086SOL    HW111155   6.248  10.827  12.149
 3086SOL    HW211156   6.167  10.699  12.151
 3087SOL     OW11157   0.149   0.475   5.941
 3087SOL    HW111158   0.238   0.440   5.934
 3087SOL    HW211159   0.157   0.566   5.912
 3088SOL     OW11160   9.189   9.187  11.517
 3088SOL    HW111161   9.098   9.214  11.529
 3088SOL    HW211162   9.239   9.269  11.518
 3089SOL     OW11163  12.210  12.536   4.221
 3089SOL    HW111164  12.146  12.471   4.249
 3089SOL    HW211165  12.205  12.605   4.287
 3090SOL     OW11166  12.939  10.530   4.196
 3090SOL    HW111167  12.866  10.502   4.251
 3090SOL    HW211168  12.925  10.484   4.113
 3091SOL     OW11169   2.366  10.235   3.298
 3091SOL    HW111170   2.272  10.240   3.283
 3091SOL    HW211171   2.379  10.152   3.345
 3092SOL     OW11172   8.572   4.339  11.831
 3092SOL    HW111173   8.548   4.427  11.802
 3092SOL    HW211174   8.492   4.303  11.868
 3093SOL     OW11175  10.916  12.933   8.750
 3093SOL    HW111176  11.008  12.921   8.727
 3093SOL    HW211177  10.904  13.028   8.753
 3094SOL     OW11178   2.467   1.167  14.431
 3094SOL    HW111179   2.390   1.201  14.476
 3094SOL    HW211180   2.503   1.102  14.491
 3095SOL     OW11181   6.751   7.578  14.079
 3095SOL    HW111182   6.738   7.503  14.137
 3095SOL    HW211183   6.838   7.611  14.102
 3096SOL     OW11184  14.708  11.472   5.959
 3096SOL    HW111185  14.683  11.565   5.961
 3096SOL    HW211186  14.655  11.432   6.028
 3097SOL     OW11187   0.487   7.453   2.181
 3097SOL    HW111188   0.495   7.407   2.265
 3097SOL    HW211189   0.543   7.530   2.191
 3098SOL     OW11190   6.673  13.201   1.871
 3098SOL    HW111191   6.673  13.167   1.960
 3098SOL    HW211192   6.749  13.259   1.867
 3099SOL     OW11193  12.418  14.813   6.274
 3099SOL    HW111194  12.503  14.796   6.314
 3099SOL    HW211195  12.375  14.727   6.271
 3100SOL     OW11196   2.989   8.942  13.102
 3100SOL    HW111197   2.920   8.897  13.053
 3100SOL    HW211198   3.019   9.011  13.043
 3101SOL     OW11199   9.443   9.932   8.849
 3101SOL    HW111200   9.457   9.958   8.940
 3101SOL    HW211201   9.348   9.918   8.843
 3102SOL     OW11202   4.636   4.344   8.461
 3102SOL    HW111203   4.622   4.307   8.548
 3102SOL    HW211204   4.548   4.361   8.428
 3103SOL     OW11205  13.172  12.649   7.462
 3103SOL    HW111206  13.118  12.638   7.540
 3103SOL    HW211207  13.259  12.617   7.488
 3104SOL     OW11208   5.377  10.444  12.337
 3104SOL    HW111209   5.347  10.375  12.279
 3104SOL    HW211210   5.471  10.451  12.321
 3105SOL     OW11211   5.418  14.040   2.448
 3105SOL    HW111212   5.463  14.046   2.532
 3105SOL    HW211213   5.431  13.949   2.421
 3106SOL     OW11214   1.314   2.149   8.621
 3106SOL    HW111215   1.257   2.115   8.690
 3106SOL    HW211216   1.253   2.183   8.555
 3107SOL     OW11217   4.237   1.185  11.982
 3107SOL    HW111218   4.206   1.259  12.034
 3107SOL    HW211219   4.236   1.217  11.892
 3108SOL     OW11220   9.596  10.919   3.715
 3108SOL    HW111221   9.519  10.869   3.690
 3108SOL    HW211222   9.565  10.977   3.785
 3109SOL     OW11223   2.118   1.533   7.906
 3109SOL    HW111224   2.033   1.505   7.871
 3109SOL    HW211225   2.096   1.601   7.970
 3110SOL     OW11226   3.010   5.407   3.031
 3110SOL    HW111227   2.977   5.325   3.069
 3110SOL    HW211228   3.095   5.420   3.073
 3111SOL     OW11229   8.115   8.045   9.588
 3111SOL    HW111230   8.036   8.097   9.602
 3111SOL    HW211231   8.154   8.039   9.676
 3112SOL     OW11232   3.036   8.959  13.366
 3112SOL    HW111233   3.028   8.915  13.281
 3112SOL    HW211234   3.058   8.890  13.428
 3113SOL     OW11235   1.249  10.954   8.215
 3113SOL    HW111236   1.246  11.047   8.193
 3113SOL    HW211237   1.328  10.945   8.269
 3114SOL     OW11238   3.630   3.836   0.982
 3114SOL    HW111239   3.677   3.843   0.899
 3114SOL    HW211240   3.696   3.852   1.049
 3115SOL     OW11241  13.295   3.058  13.366
 3115SOL    HW111242  13.221   3.113  13.342
 3115SOL    HW211243  13.279   3.034  13.457
 3116SOL     OW11244   7.408  13.820  11.502
 3116SOL    HW111245   7.407  13.902  11.550
 3116SOL    HW211246   7.429  13.844  11.412
 3117SOL     OW11247   6.897   5.029  13.099
 3117SOL    HW111248   6.942   5.066  13.022
 3117SOL    HW211249   6.810   5.068  13.096
 3118SOL     OW11250   2.977  13.018   9.116
 3118SOL    HW111251   2.953  13.087   9.054
 3118SOL    HW211252   2.895  12.996   9.160
 3119SOL     OW11253   6.002   0.687   0.270
 3119SOL    HW111254   5.972   0.596   0.270
 3119SOL    HW211255   6.097   0.681   0.257
 3120SOL     OW11256   2.178   3.030   0.604
 3120SOL    HW111257   2.226   3.064   0.528
 3120SOL    HW211258   2.212   3.080   0.678
 3121SOL     OW11259   9.644  12.335  13.715
 3121SOL    HW111260   9.694  12.402  13.762
 3121SOL    HW211261   9.666  12.254  13.760
 3122SOL     OW11262   6.074   1.113  10.336
 3122SOL    HW111263   6.101   1.121  10.244
 3122SOL    HW211264   6.057   1.019  10.348
 3123SOL     OW11265   8.411  14.788   0.146
 3123SOL    HW111266   8.506  14.786   0.147
 3123SOL    HW211267   8.388  14.844   0.072
 3124SOL     OW11268   5.813   1.075  11.272
 3124SOL    HW111269   5.782   0.990  11.302
 3124SOL    HW211270   5.740   1.135  11.291
 3125SOL     OW11271   2.448   2.386  10.256
 3125SOL    HW111272   2.502   2.460  10.286
 3125SOL    HW211273   2.497   2.350  10.181
 3126SOL     OW11274  11.270   6.328  10.163
 3126SOL    HW111275  11.180   6.347  10.137
 3126SOL    HW211276  11.272   6.233  10.176
 3127SOL     OW11277  10.228  13.902   8.413
 3127SOL    HW111278  10.234  13.807   8.419
 3127SOL    HW211279  10.138  13.920   8.386
 3128SOL     OW11280   5.574  13.765  14.117
 3128SOL    HW111281   5.656  13.808  14.143
 3128SOL    HW211282   5.515  13.781  14.190
 3129SOL     OW11283  14.254   2.113  12.842
 3129SOL    HW111284  14.295   2.033  12.811
 3129SOL    HW211285  14.315   2.148  12.907
 3130SOL     OW11286   1.694   4.560  10.225
 3130SOL    HW111287   1.604   4.570  10.255
 3130SOL    HW211288   1.734   4.499  10.287
 3131SOL     OW11289   1.850   0.973   5.663
 3131SOL    HW111290   1.941   0.992   5.643
 3131SOL    HW211291   1.829   0.896   5.609
 3132SOL     OW11292   2.450   3.669  12.230
 3132SOL    HW111293   2.387   3.619  12.178
 3132SOL    HW211294   2.442   3.759  12.198
 3133SOL     OW11295   4.019   4.424   0.181
 3133SOL    HW111296   3.947   4.364   0.162
 3133SOL    HW211297   3.976   4.500   0.220
 3134SOL     OW11298   2.254   5.804   3.250
 3134SOL    HW111299   2.286   5.823   3.162
 3134SOL    HW211300   2.323   5.751   3.290
 3135SOL     OW11301   1.554  12.484  13.356
 3135SOL    HW111302   1.505  12.402  13.347
 3135SOL    HW211303   1.542  12.510  13.448
 3136SOL     OW11304   5.013   4.678   5.894
 3136SOL    HW111305   5.073   4.675   5.969
 3136SOL    HW211306   5.068   4.656   5.819
 3137SOL     OW11307  10.002   6.434   9.503
 3137SOL    HW111308   9.993   6.474   9.589
 3137SOL    HW211309   9.912   6.420   9.473
 3138SOL     OW11310  10.744   0.591  10.221
 3138SOL    HW111311  10.716   0.644  10.295
 3138SOL    HW211312  10.745   0.501  10.255
 3139SOL     OW11313   0.762   6.263   8.886
 3139SOL    HW111314   0.755   6.260   8.790
 3139SOL    HW211315   0.824   6.193   8.907
 3140SOL     OW11316   8.891   3.007  14.080
 3140SOL    HW111317   8.826   3.003  14.009
 3140SOL    HW211318   8.887   3.098  14.111
 3141SOL     OW11319   6.075   6.919  10.276
 3141SOL    HW111320   6.018   6.995  10.264
 3141SOL    HW211321   6.063   6.894  10.368
 3142SOL     OW11322  13.884  13.712   4.848
 3142SOL    HW111323  13.905  13.692   4.756
 3142SOL    HW211324  13.953  13.667   4.898
 3143SOL     OW11325   5.306  11.496  12.426
 3143SOL    HW111326   5.330  11.404  12.409
 3143SOL    HW211327   5.238  11.491  12.492
 3144SOL     OW11328   8.389  11.485   4.642
 3144SOL    HW111329   8.447  11.437   4.582
 3144SOL    HW211330   8.432  11.570   4.655
 3145SOL     OW11331   0.433   1.083  13.396
 3145SOL    HW111332   0.458   1.173  13.420
 3145SOL    HW211333   0.342   1.075  13.427
 3146SOL     OW11334   3.784   7.233  13.401
 3146SOL    HW111335   3.876   7.257  13.409
 3146SOL    HW211336   3.767   7.177  13.477
 3147SOL     OW11337  12.145  11.977  14.556
 3147SOL    HW111338  12.053  11.954  14.538
 3147SOL    HW211339  12.139  12.058  14.607
 3148SOL     OW11340  10.464   8.524   5.875
 3148SOL    HW111341  10.500   8.611   5.893
 3148SOL    HW211342  10.429   8.495   5.958
 3149SOL     OW11343  13.533   9.410  13.210
 3149SOL    HW111344  13.525   9.374  13.122
 3149SOL    HW211345  13.620   9.383  13.239
 3150SOL     OW11346  10.487   3.049  11.993
 3150SOL    HW111347  10.451   3.116  11.935
 3150SOL    HW211348  10.522   2.982  11.935
 3151SOL     OW11349   0.123  13.209   1.039
 3151SOL    HW111350   0.068  13.262   0.981
 3151SOL    HW211351   0.127  13.123   0.998
 3152SOL     OW11352   9.852   0.665   1.644
 3152SOL    HW111353   9.817   0.583   1.609
 3152SOL    HW211354   9.924   0.688   1.585
 3153SOL     OW11355   3.697  13.379   6.052
 3153SOL    HW111356   3.681  13.473   6.060
 3153SOL    HW211357   3.759  13.360   6.123
 3154SOL     OW11358  12.996   3.966   6.141
 3154SOL    HW111359  12.990   3.878   6.103
 3154SOL    HW211360  12.906   3.999   6.137
 3155SOL     OW11361  10.502   7.194   3.009
 3155SOL    HW111362  10.570   7.203   2.941
 3155SOL    HW211363  10.551   7.175   3.089
 3156SOL     OW11364   2.571   9.128   9.295
 3156SOL    HW111365   2.609   9.049   9.257
 3156SOL    HW211366   2.582   9.116   9.390
 3157SOL     OW11367   3.425   7.440  12.287
 3157SOL    HW111368   3.433   7.479  12.201
 3157SOL    HW211369   3.383   7.355  12.272
 3158SOL     OW11370   3.191   9.970  14.580
 3158SOL    HW111371   3.195  10.066  14.574
 3158SOL    HW211372   3.261   9.947  14.642
 3159SOL     OW11373  12.445   8.375   0.650
 3159SOL    HW111374  12.481   8.462   0.670
 3159SOL    HW211375  12.433   8.334   0.736
 3160SOL     OW11376   4.969   2.773  10.856
 3160SOL    HW111377   4.885   2.771  10.809
 3160SOL    HW211378   4.944   2.782  10.948
 3161SOL     OW11379   7.930   0.755   2.387
 3161SOL    HW111380   7.919   0.833   2.442
 3161SOL    HW211381   7.905   0.784   2.299
 3162SOL     OW11382   5.417   0.021  10.105
 3162SOL    HW111383   5.458   0.106  10.090
 3162SOL    HW211384   5.327   0.032  10.075
 3163SOL     OW11385  14.589   9.325  12.056
 3163SOL    HW111386  14.675   9.369  12.056
 3163SOL    HW211387  14.528   9.392  12.026
 3164SOL     OW11388  14.062   8.542   7.490
 3164SOL    HW111389  13.994   8.608   7.504
 3164SOL    HW211390  14.143   8.592   7.481
 3165SOL     OW11391   2.805   1.665  11.022
 3165SOL    HW111392   2.899   1.651  11.036
 3165SOL    HW211393   2.774   1.583  10.985
 3166SOL     OW11394  11.120   8.076   3.539
 3166SOL    HW111395  11.037   8.036   3.564
 3166SOL    HW211396  11.134   8.048   3.448
 3167SOL     OW11397   5.671  10.940  11.509
 3167SOL    HW111398   5.604  10.960  11.574
 3167SOL    HW211399   5.623  10.931  11.427
 3168SOL     OW11400   0.347  11.945   3.128
 3168SOL    HW111401   0.300  11.960   3.046
 3168SOL    HW211402   0.435  11.980   3.112
 3169SOL     OW11403  13.680  10.330   5.165
 3169SOL    HW111404  13.648  10.252   5.210
 3169SOL    HW211405  13.771  10.309   5.142
 3170SOL     OW11406  11.829  12.459   9.799
 3170SOL    HW111407  11.904  12.502   9.759
 3170SOL    HW211408  11.859  12.369   9.815
 3171SOL     OW11409   1.938   9.283   4.686
 3171SOL    HW111410   2.030   9.296   4.663
 3171SOL    HW211411   1.903   9.372   4.693
 3172SOL     OW11412  11.225   5.673  12.990
 3172SOL    HW111413  11.246   5.752  13.039
 3172SOL    HW211414  11.161   5.626  13.044
 3173SOL     OW11415  10.256   7.399   8.207
 3173SOL    HW111416  10.300   7.464   8.152
 3173SOL    HW211417  10.197   7.450   8.262
 3174SOL     OW11418   9.985   2.649  10.477
 3174SOL    HW111419  10.013   2.586  10.411
 3174SOL    HW211420   9.987   2.734  10.433
 3175SOL     OW11421  13.854  13.313   9.754
 3175SOL    HW111422  13.759  13.307   9.759
 3175SOL    HW211423  13.882  13.314   9.846
 3176SOL     OW11424   9.714  13.342   8.496
 3176SOL    HW111425   9.725  13.256   8.536
 3176SOL    HW211426   9.620  13.361   8.505
 3177SOL     OW11427   5.577  14.538   1.152
 3177SOL    HW111428   5.639  14.505   1.087
 3177SOL    HW211429   5.586  14.478   1.226
 3178SOL     OW11430   9.522   9.369   9.859
 3178SOL    HW111431   9.514   9.413   9.943
 3178SOL    HW211432   9.434   9.368   9.823
 3179SOL     OW11433   4.042   9.167   3.725
 3179SOL    HW111434   4.009   9.078   3.717
 3179SOL    HW211435   4.129   9.158   3.764
 3180SOL     OW11436   4.223   4.352   1.065
 3180SOL    HW111437   4.255   4.423   1.009
 3180SOL    HW211438   4.140   4.326   1.025
 3181SOL     OW11439  10.024   4.554   3.001
 3181SOL    HW111440  10.117   4.571   2.990
 3181SOL    HW211441  10.019   4.461   3.026
 3182SOL     OW11442   1.449   8.300  13.779
 3182SOL    HW111443   1.455   8.390  13.747
 3182SOL    HW211444   1.398   8.254  13.712
 3183SOL     OW11445   5.539   5.301   5.889
 3183SOL    HW111446   5.509   5.392   5.878
 3183SOL    HW211447   5.605   5.290   5.820
 3184SOL     OW11448  11.647  12.196   0.214
 3184SOL    HW111449  11.622  12.177   0.124
 3184SOL    HW211450  11.581  12.151   0.267
 3185SOL     OW11451   4.172   8.716   0.301
 3185SOL    HW111452   4.118   8.670   0.365
 3185SOL    HW211453   4.259   8.721   0.342
 3186SOL     OW11454   9.171   9.476  11.872
 3186SOL    HW111455   9.193   9.549  11.814
 3186SOL    HW211456   9.077   9.484  11.886
 3187SOL     OW11457   9.130   9.858   2.432
 3187SOL    HW111458   9.181   9.906   2.497
 3187SOL    HW211459   9.187   9.786   2.405
 3188SOL     OW11460  13.345   6.404   7.817
 3188SOL    HW111461  13.388   6.343   7.877
 3188SOL    HW211462  13.416   6.438   7.762
 3189SOL     OW11463   9.822  10.422  13.170
 3189SOL    HW111464   9.870  10.356  13.120
 3189SOL    HW211465   9.782  10.374  13.242
 3190SOL     OW11466   5.986  13.023  12.193
 3190SOL    HW111467   5.898  13.050  12.219
 3190SOL    HW211468   5.972  12.943  12.141
 3191SOL     OW11469   6.267   6.460  13.757
 3191SOL    HW111470   6.260   6.545  13.800
 3191SOL    HW211471   6.178   6.441  13.727
 3192SOL     OW11472   4.559   7.793   5.879
 3192SOL    HW111473   4.471   7.815   5.849
 3192SOL    HW211474   4.613   7.866   5.850
 3193SOL     OW11475  13.955   3.744  12.335
 3193SOL    HW111476  14.004   3.803  12.278
 3193SOL    HW211477  13.933   3.798  12.411
 3194SOL     OW11478   9.643   9.598  10.503
 3194SOL    HW111479   9.636   9.502  10.511
 3194SOL    HW211480   9.553   9.629  10.514
 3195SOL     OW11481   1.396   1.873   9.767
 3195SOL    HW111482   1.316   1.871   9.819
 3195SOL    HW211483   1.390   1.797   9.709
 3196SOL     OW11484   2.329   3.372   3.238
 3196SOL    HW111485   2.374   3.437   3.292
 3196SOL    HW211486   2.338   3.404   3.149
 3197SOL     OW11487  12.144   9.581   3.209
 3197SOL    HW111488  12.124   9.545   3.123
 3197SOL    HW211489  12.223   9.535   3.237
 3198SOL     OW11490   7.549   6.741   8.282
 3198SOL    HW111491   7.625   6.763   8.228
 3198SOL    HW211492   7.542   6.646   8.276
 3199SOL     OW11493  11.532   4.809  12.711
 3199SOL    HW111494  11.582   4.780  12.635
 3199SOL    HW211495  11.554   4.746  12.780
 3200SOL     OW11496  11.271   1.032   2.635
 3200SOL    HW111497  11.212   0.972   2.589
 3200SOL    HW211498  11.264   1.008   2.727
 3201SOL     OW11499   5.749   2.509   2.273
 3201SOL    HW111500   5.787   2.587   2.313
 3201SOL    HW211501   5.749   2.444   2.342
 3202SOL     OW11502  14.801   0.445   8.175
 3202SOL    HW111503  14.867   0.504   8.210
 3202SOL    HW211504  14.748   0.500   8.116
 3203SOL     OW11505   9.407  11.104   5.598
 3203SOL    HW111506   9.398  11.056   5.516
 3203SOL    HW211507   9.317  11.129   5.620
 3204SOL     OW11508   4.317   5.369  14.022
 3204SOL    HW111509   4.320   5.434  14.092
 3204SOL    HW211510   4.310   5.285  14.067
 3205SOL     OW11511   4.756   8.086   3.148
 3205SOL    HW111512   4.700   8.008   3.142
 3205SOL    HW211513   4.810   8.070   3.226
 3206SOL     OW11514   9.794  13.013  11.748
 3206SOL    HW111515   9.856  13.019  11.675
 3206SOL    HW211516   9.834  13.062  11.819
 3207SOL     OW11517   3.264   0.154  10.101
 3207SOL    HW111518   3.343   0.207  10.093
 3207SOL    HW211519   3.277   0.102  10.181
 3208SOL     OW11520  14.300   8.150  11.241
 3208SOL    HW111521  14.308   8.055  11.242
 3208SOL    HW211522  14.364   8.180  11.306
 3209SOL     OW11523   9.538   6.389  10.635
 3209SOL    HW111524   9.597   6.355  10.568
 3209SOL    HW211525   9.466   6.429  10.586
 3210SOL     OW11526  14.182   3.563   7.538
 3210SOL    HW111527  14.249   3.612   7.584
 3210SOL    HW211528  14.123   3.531   7.607
 3211SOL     OW11529  11.851  10.941   2.290
 3211SOL    HW111530  11.769  10.897   2.269
 3211SOL    HW211531  11.830  10.999   2.363
 3212SOL     OW11532   0.419   8.023   5.215
 3212SOL    HW111533   0.478   7.965   5.166
 3212SOL    HW211534   0.458   8.110   5.206
 3213SOL     OW11535   0.331   7.406  14.398
 3213SOL    HW111536   0.325   7.441  14.487
 3213SOL    HW211537   0.245   7.368  14.381
 3214SOL     OW11538   4.006   5.089   1.395
 3214SOL    HW111539   4.083   5.037   1.422
 3214SOL    HW211540   3.936   5.024   1.387
 3215SOL     OW11541  10.852  14.431   6.116
 3215SOL    HW111542  10.942  14.398   6.114
 3215SOL    HW211543  10.853  14.504   6.055
 3216SOL     OW11544   1.827   1.444   8.494
 3216SOL    HW111545   1.828   1.539   8.489
 3216SOL    HW211546   1.792   1.425   8.582
 3217SOL     OW11547   5.534   5.774   5.180
 3217SOL    HW111548   5.495   5.794   5.265
 3217SOL    HW211549   5.621   5.814   5.183
 3218SOL     OW11550  10.752   3.663  13.261
 3218SOL    HW111551  10.707   3.651  13.344
 3218SOL    HW211552  10.817   3.593  13.258
 3219SOL     OW11553   7.282   1.387   8.640
 3219SOL    HW111554   7.353   1.347   8.589
 3219SOL    HW211555   7.202   1.363   8.593
 3220SOL     OW11556  12.291   5.206   7.848
 3220SOL    HW111557  12.383   5.224   7.828
 3220SOL    HW211558  12.242   5.270   7.797
 3221SOL     OW11559   0.467  14.593   7.174
 3221SOL    HW111560   0.440  14.603   7.265
 3221SOL    HW211561   0.427  14.511   7.146
 3222SOL     OW11562   2.054   7.772   3.951
 3222SOL    HW111563   2.014   7.850   3.988
 3222SOL    HW211564   2.089   7.800   3.867
 3223SOL     OW11565  10.911   2.291  12.018
 3223SOL    HW111566  10.886   2.311  11.928
 3223SOL    HW211567  11.007   2.297  12.018
 3224SOL     OW11568   3.622   9.719   1.250
 3224SOL    HW111569   3.554   9.700   1.314
 3224SOL    HW211570   3.702   9.684   1.290
 3225SOL     OW11571   6.022   3.057   3.492
 3225SOL    HW111572   5.928   3.052   3.512
 3225SOL    HW211573   6.026   3.044   3.397
 3226SOL     OW11574  13.020   3.183   3.983
 3226SOL    HW111575  13.086   3.156   3.920
 3226SOL    HW211576  13.016   3.278   3.976
 3227SOL     OW11577  10.944   8.051  12.809
 3227SOL    HW111578  10.913   8.135  12.775
 3227SOL    HW211579  10.917   8.051  12.901
 3228SOL     OW11580  12.956   8.454   3.653
 3228SOL    HW111581  13.018   8.503   3.599
 3228SOL    HW211582  12.874   8.503   3.647
 3229SOL     OW11583   1.800   1.206   4.829
 3229SOL    HW111584   1.805   1.224   4.735
 3229SOL    HW211585   1.808   1.293   4.870
 3230SOL     OW11586   2.750  12.747   3.342
 3230SOL    HW111587   2.781  12.833   3.313
 3230SOL    HW211588   2.825  12.689   3.327
 3231SOL     OW11589   8.620   6.327  12.403
 3231SOL    HW111590   8.573   6.244  12.404
 3231SOL    HW211591   8.713   6.303  12.410
 3232SOL     OW11592  11.045  13.578   6.715
 3232SOL    HW111593  11.016  13.495   6.752
 3232SOL    HW211594  11.105  13.553   6.644
 3233SOL     OW11595   1.216   9.424  14.239
 3233SOL    HW111596   1.198   9.489  14.307
 3233SOL    HW211597   1.142   9.430  14.180
 3234SOL     OW11598   0.538   4.579  10.351
 3234SOL    HW111599   0.559   4.640  10.279
 3234SOL    HW211600   0.617   4.577  10.405
 3235SOL     OW11601   7.297   8.312   6.081
 3235SOL    HW111602   7.202   8.311   6.089
 3235SOL    HW211603   7.315   8.376   6.013
 3236SOL     OW11604   7.700   7.950   6.737
 3236SOL    HW111605   7.707   8.030   6.685
 3236SOL    HW211606   7.782   7.947   6.787
 3237SOL     OW11607  12.510   9.651  13.116
 3237SOL    HW111608  12.489   9.724  13.058
 3237SOL    HW211609  12.601   9.630  13.096
 3238SOL     OW11610   6.041   3.258   3.748
 3238SOL    HW111611   5.955   3.296   3.768
 3238SOL    HW211612   6.091   3.332   3.712
 3239SOL     OW11613  12.738   2.479   7.377
 3239SOL    HW111614  12.679   2.419   7.423
 3239SOL    HW211615  12.699   2.488   7.290
 3240SOL     OW11616   9.817   4.151  11.277
 3240SOL    HW111617   9.740   4.207  11.264
 3240SOL    HW211618   9.854   4.141  11.189
 3241SOL     OW11619   5.859   1.313  11.013
 3241SOL    HW111620   5.862   1.395  11.062
 3241SOL    HW211621   5.932   1.262  11.047
 3242SOL     OW11622   9.127  12.887  12.906
 3242SOL    HW111623   9.186  12.848  12.970
 3242SOL    HW211624   9.114  12.977  12.937
 3243SOL     OW11625  12.767   6.254   9.386
 3243SOL    HW111626  12.757   6.228   9.477
 3243SOL    HW211627  12.822   6.185   9.347
 3244SOL     OW11628   3.004   0.611   7.390
 3244SOL    HW111629   3.099   0.608   7.399
 3244SOL    HW211630   2.989   0.636   7.299
 3245SOL     OW11631  12.676  10.929  13.712
 3245SOL    HW111632  12.677  10.963  13.622
 3245SOL    HW211633  12.704  10.838  13.704
 3246SOL     OW11634   8.136   7.340  13.653
 3246SOL    HW111635   8.098   7.393  13.582
 3246SOL    HW211636   8.125   7.250  13.624
 3247SOL     OW11637  12.959  14.458  13.362
 3247SOL    HW111638  13.002  14.448  13.277
 3247SOL    HW211639  12.899  14.383  13.368
 3248SOL     OW11640   0.406  12.835   2.672
 3248SOL    HW111641   0.348  12.760   2.686
 3248SOL    HW211642   0.405  12.849   2.578
 3249SOL     OW11643   6.767  14.670   7.980
 3249SOL    HW111644   6.720  14.590   8.002
 3249SOL    HW211645   6.704  14.741   7.995
 3250SOL     OW11646   0.913   3.485   2.744
 3250SOL    HW111647   0.873   3.551   2.688
 3250SOL    HW211648   1.007   3.490   2.725
 3251SOL     OW11649   4.558  11.415  11.065
 3251SOL    HW111650   4.603  11.448  11.143
 3251SOL    HW211651   4.465  11.429  11.083
 3252SOL     OW11652   8.028   5.403  14.182
 3252SOL    HW111653   8.057   5.312  14.185
 3252SOL    HW211654   7.955   5.402  14.119
 3253SOL     OW11655  12.750   6.230  14.524
 3253SOL    HW111656  12.819   6.222  14.590
 3253SOL    HW211657  12.793   6.205  14.442
 3254SOL     OW11658   4.949   8.919   3.945
 3254SOL    HW111659   4.888   8.864   3.896
 3254SOL    HW211660   4.989   8.976   3.878
 3255SOL     OW11661  10.985   0.590   7.169
 3255SOL    HW111662  11.045   0.612   7.098
 3255SOL    HW211663  10.989   0.666   7.228
 3256SOL     OW11664   9.014   2.807   8.168
 3256SOL    HW111665   8.926   2.841   8.156
 3256SOL    HW211666   9.046   2.850   8.247
 3257SOL     OW11667   5.308   7.505   4.567
 3257SOL    HW111668   5.223   7.528   4.605
 3257SOL    HW211669   5.354   7.461   4.639
 3258SOL     OW11670   0.160  13.063   9.854
 3258SOL    HW111671   0.096  13.116   9.902
 3258SOL    HW211672   0.227  13.042   9.919
 3259SOL     OW11673   3.367   8.586   5.401
 3259SOL    HW111674   3.425   8.612   5.329
 3259SOL    HW211675   3.338   8.669   5.439
 3260SOL     OW11676   6.157  14.695   9.085
 3260SOL    HW111677   6.231  14.634   9.091
 3260SOL    HW211678   6.164  14.749   9.163
 3261SOL     OW11679  12.213  13.207   5.432
 3261SOL    HW111680  12.259  13.221   5.515
 3261SOL    HW211681  12.129  13.251   5.444
 3262SOL     OW11682   8.305   5.865  12.830
 3262SOL    HW111683   8.272   5.828  12.748
 3262SOL    HW211684   8.367   5.800  12.863
 3263SOL     OW11685  14.719  10.721   0.125
 3263SOL    HW111686  14.722  10.685   0.036
 3263SOL    HW211687  14.668  10.657   0.175
 3264SOL     OW11688   4.732   4.401   5.028
 3264SOL    HW111689   4.794   4.339   5.067
 3264SOL    HW211690   4.648   4.355   5.030
 3265SOL     OW11691   6.020  10.147  14.195
 3265SOL    HW111692   6.043  10.204  14.121
 3265SOL    HW211693   6.064  10.064  14.175
 3266SOL     OW11694   2.837   6.945  13.283
 3266SOL    HW111695   2.896   6.947  13.358
 3266SOL    HW211696   2.750   6.956  13.320
 3267SOL     OW11697  11.733  10.884   2.654
 3267SOL    HW111698  11.724  10.789   2.659
 3267SOL    HW211699  11.816  10.902   2.698
 3268SOL     OW11700   3.999   2.312   1.012
 3268SOL    HW111701   3.986   2.351   1.098
 3268SOL    HW211702   4.080   2.352   0.979
 3269SOL     OW11703  14.067   9.108   2.817
 3269SOL    HW111704  13.988   9.124   2.766
 3269SOL    HW211705  14.134   9.164   2.777
 3270SOL     OW11706   5.580   3.710  12.829
 3270SOL    HW111707   5.596   3.792  12.876
 3270SOL    HW211708   5.487   3.712  12.809
 3271SOL     OW11709   9.605   9.575   5.825
 3271SOL    HW111710   9.553   9.649   5.794
 3271SOL    HW211711   9.569   9.500   5.776
 3272SOL     OW11712  11.268   4.510   1.052
 3272SOL    HW111713  11.264   4.566   1.129
 3272SOL    HW211714  11.279   4.571   0.978
 3273SOL     OW11715   7.996   0.503   8.874
 3273SOL    HW111716   8.086   0.517   8.845
 3273SOL    HW211717   7.943   0.523   8.797
 3274SOL     OW11718  13.609  10.697   1.527
 3274SOL    HW111719  13.517  10.675   1.514
 3274SOL    HW211720  13.639  10.723   1.439
 3275SOL     OW11721  11.784   9.132   2.313
 3275SOL    HW111722  11.735   9.191   2.256
 3275SOL    HW211723  11.771   9.168   2.401
 3276SOL     OW11724  13.634   9.256  12.557
 3276SOL    HW111725  13.624   9.348  12.530
 3276SOL    HW211726  13.707   9.257  12.618
 3277SOL     OW11727   5.934   8.143  14.642
 3277SOL    HW111728   5.990   8.202  14.693
 3277SOL    HW211729   5.910   8.194  14.565
 3278SOL     OW11730  10.531  12.277   2.287
 3278SOL    HW111731  10.554  12.357   2.241
 3278SOL    HW211732  10.458  12.241   2.237
 3279SOL     OW11733  13.572  10.600   7.698
 3279SOL    HW111734  13.518  10.530   7.661
 3279SOL    HW211735  13.598  10.652   7.622
 3280SOL     OW11736  11.622  12.337  10.525
 3280SOL    HW111737  11.629  12.305  10.435
 3280SOL    HW211738  11.648  12.262  10.579
 3281SOL     OW11739  10.151   1.260   9.536
 3281SOL    HW111740  10.205   1.318   9.589
 3281SOL    HW211741  10.064   1.265   9.575
 3282SOL     OW11742   6.011   9.774  12.960
 3282SOL    HW111743   6.046   9.860  12.982
 3282SOL    HW211744   5.921   9.777  12.991
 3283SOL     OW11745   8.370   9.118   9.135
 3283SOL    HW111746   8.351   9.029   9.167
 3283SOL    HW211747   8.294   9.169   9.162
 3284SOL     OW11748   9.046   7.389   3.146
 3284SOL    HW111749   8.997   7.471   3.140
 3284SOL    HW211750   9.003   7.331   3.084
 3285SOL     OW11751  13.150   9.239   1.043
 3285SOL    HW111752  13.061   9.259   1.012
 3285SOL    HW211753  13.136   9.199   1.129
 3286SOL     OW11754  11.747   5.034   3.742
 3286SOL    HW111755  11.771   5.056   3.832
 3286SOL    HW211756  11.723   4.941   3.745
 3287SOL     OW11757   9.401   8.531  10.527
 3287SOL    HW111758   9.411   8.445  10.569
 3287SOL    HW211759   9.398   8.512  10.433
 3288SOL     OW11760  13.635   1.321  11.108
 3288SOL    HW111761  13.560   1.268  11.133
 3288SOL    HW211762  13.623   1.337  11.014
 3289SOL     OW11763   7.766   5.608   2.978
 3289SOL    HW111764   7.676   5.578   2.966
 3289SOL    HW211765   7.820   5.531   2.957
 3290SOL     OW11766   0.450   4.722   4.507
 3290SOL    HW111767   0.532   4.672   4.511
 3290SOL    HW211768   0.406   4.702   4.589
 3291SOL     OW11769   9.832   2.280   8.994
 3291SOL    HW111770   9.844   2.225   9.071
 3291SOL    HW211771   9.895   2.352   9.005
 3292SOL     OW11772   4.086   6.661   9.165
 3292SOL    HW111773   4.145   6.638   9.237
 3292SOL    HW211774   4.138   6.717   9.108
 3293SOL     OW11775  12.108   0.634  12.846
 3293SOL    HW111776  12.117   0.625  12.940
 3293SOL    HW211777  12.190   0.600  12.810
 3294SOL     OW11778   7.025   0.862   3.337
 3294SOL    HW111779   7.039   0.936   3.277
 3294SOL    HW211780   7.061   0.891   3.421
 3295SOL     OW11781   2.621   2.956  13.051
 3295SOL    HW111782   2.531   2.940  13.078
 3295SOL    HW211783   2.660   3.005  13.124
 3296SOL     OW11784   7.652   1.352  10.488
 3296SOL    HW111785   7.676   1.359  10.580
 3296SOL    HW211786   7.556   1.355  10.487
 3297SOL     OW11787   6.561  11.583  13.862
 3297SOL    HW111788   6.620  11.545  13.928
 3297SOL    HW211789   6.478  11.594  13.908
 3298SOL     OW11790   7.002   2.531   2.550
 3298SOL    HW111791   7.075   2.569   2.599
 3298SOL    HW211792   6.925   2.579   2.582
 3299SOL     OW11793   7.382   6.155   3.273
 3299SOL    HW111794   7.442   6.225   3.248
 3299SOL    HW211795   7.438   6.087   3.310
 3300SOL     OW11796  14.044   1.972   8.322
 3300SOL    HW111797  14.041   2.067   8.323
 3300SOL    HW211798  13.958   1.944   8.354
 3301SOL     OW11799   6.851   3.555  13.997
 3301SOL    HW111800   6.884   3.503  14.070
 3301SOL    HW211801   6.765   3.518  13.978
 3302SOL     OW11802   9.470  14.617   4.824
 3302SOL    HW111803   9.420  14.625   4.906
 3302SOL    HW211804   9.463  14.703   4.783
 3303SOL     OW11805   2.278   0.911   7.804
 3303SOL    HW111806   2.353   0.952   7.847
 3303SOL    HW211807   2.226   0.984   7.772
 3304SOL     OW11808   3.658  10.839   4.074
 3304SOL    HW111809   3.605  10.866   3.999
 3304SOL    HW211810   3.610  10.870   4.151
 3305SOL     OW11811   4.567   7.220   2.624
 3305SOL    HW111812   4.501   7.230   2.693
 3305SOL    HW211813   4.564   7.304   2.576
 3306SOL     OW11814  12.063  14.426  11.601
 3306SOL    HW111815  11.981  14.377  11.597
 3306SOL    HW211816  12.091  14.433  11.510
 3307SOL     OW11817   5.120   1.103   8.472
 3307SOL    HW111818   5.178   1.053   8.531
 3307SOL    HW211819   5.140   1.069   8.385
 3308SOL     OW11820   5.159  13.939   5.469
 3308SOL    HW111821   5.119  13.884   5.536
 3308SOL    HW211822   5.088  13.958   5.407
 3309SOL     OW11823   3.167   8.490   0.121
 3309SOL    HW111824   3.088   8.439   0.100
 3309SOL    HW211825   3.141   8.545   0.195
 3310SOL     OW11826  13.334   4.494   3.378
 3310SOL    HW111827  13.246   4.458   3.386
 3310SOL    HW211828  13.331   4.548   3.299
 3311SOL     OW11829  12.133   8.384  11.200
 3311SOL    HW111830  12.039   8.366  11.212
 3311SOL    HW211831  12.174   8.347  11.277
 3312SOL     OW11832   6.075   2.567  10.243
 3312SOL    HW111833   6.069   2.506  10.170
 3312SOL    HW211834   6.071   2.512  10.321
 3313SOL     OW11835   2.910  14.622  10.391
 3313SOL    HW111836   2.829  14.635  10.439
 3313SOL    HW211837   2.976  14.669  10.443
 3314SOL     OW11838   3.226  14.205   6.016
 3314SOL    HW111839   3.302  14.262   6.002
 3314SOL    HW211840   3.163  14.232   5.949
 3315SOL     OW11841   5.441   8.152  12.461
 3315SOL    HW111842   5.440   8.093  12.386
 3315SOL    HW211843   5.534   8.162  12.483
 3316SOL     OW11844   8.075   9.484   9.055
 3316SOL    HW111845   8.038   9.475   8.968
 3316SOL    HW211846   8.140   9.414   9.061
 3317SOL     OW11847   3.494   9.386   7.141
 3317SOL    HW111848   3.587   9.369   7.128
 3317SOL    HW211849   3.455   9.298   7.148
 3318SOL     OW11850  10.262   5.825  13.844
 3318SOL    HW111851  10.322   5.751  13.844
 3318SOL    HW211852  10.231   5.832  13.753
 3319SOL     OW11853   3.392   3.041  11.359
 3319SOL    HW111854   3.357   3.013  11.443
 3319SOL    HW211855   3.367   2.972  11.298
 3320SOL     OW11856   2.687   8.471   8.910
 3320SOL    HW111857   2.717   8.496   8.998
 3320SOL    HW211858   2.691   8.376   8.909
 3321SOL     OW11859   2.519   6.391   7.797
 3321SOL    HW111860   2.597   6.433   7.761
 3321SOL    HW211861   2.532   6.297   7.780
 3322SOL     OW11862   3.682  13.718   7.883
 3322SOL    HW111863   3.688  13.796   7.938
 3322SOL    HW211864   3.596  13.681   7.902
 3323SOL     OW11865   8.527   7.556   9.085
 3323SOL    HW111866   8.572   7.636   9.058
 3323SOL    HW211867   8.561   7.488   9.026
 3324SOL     OW11868   4.723  13.377   6.961
 3324SOL    HW111869   4.755  13.300   7.009
 3324SOL    HW211870   4.629  13.363   6.954
 3325SOL     OW11871   1.427  11.556  10.191
 3325SOL    HW111872   1.424  11.516  10.104
 3325SOL    HW211873   1.520  11.554  10.215
 3326SOL     OW11874   9.354  12.413   9.561
 3326SOL    HW111875   9.418  12.346   9.584
 3326SOL    HW211876   9.399  12.469   9.497
 3327SOL     OW11877  11.550   7.089  14.833
 3327SOL    HW111878  11.604   7.073   0.043
 3327SOL    HW211879  11.594   7.160  14.788
 3328SOL     OW11880   1.454   4.635   2.161
 3328SOL    HW111881   1.465   4.728   2.138
 3328SOL    HW211882   1.432   4.593   2.078
 3329SOL     OW11883  14.396   3.602  10.839
 3329SOL    HW111884  14.451   3.680  10.846
 3329SOL    HW211885  14.344   3.617  10.759
 3330SOL     OW11886  13.925  10.532   2.462
 3330SOL    HW111887  13.859  10.555   2.527
 3330SOL    HW211888  13.983  10.471   2.508
 3331SOL     OW11889   0.633   9.421  13.784
 3331SOL    HW111890   0.654   9.439  13.693
 3331SOL    HW211891   0.692   9.477  13.834
 3332SOL     OW11892  10.025   8.500   6.726
 3332SOL    HW111893   9.992   8.482   6.814
 3332SOL    HW211894  10.010   8.594   6.714
 3333SOL     OW11895  11.440   8.921   8.448
 3333SOL    HW111896  11.430   8.846   8.506
 3333SOL    HW211897  11.389   8.991   8.489
 3334SOL     OW11898  13.910  13.971  11.546
 3334SOL    HW111899  13.831  14.025  11.540
 3334SOL    HW211900  13.978  14.032  11.575
 3335SOL     OW11901   3.475  10.053   6.850
 3335SOL    HW111902   3.446  10.086   6.935
 3335SOL    HW211903   3.563  10.019   6.867
 3336SOL     OW11904   5.083   0.592   9.054
 3336SOL    HW111905   5.165   0.616   9.012
 3336SOL    HW211906   5.037   0.674   9.068
 3337SOL     OW11907  12.183   2.380   7.402
 3337SOL    HW111908  12.114   2.362   7.466
 3337SOL    HW211909  12.233   2.299   7.397
 3338SOL     OW11910   8.462  12.387  12.064
 3338SOL    HW111911   8.499  12.369  11.978
 3338SOL    HW211912   8.421  12.305  12.090
 3339SOL     OW11913   9.407   7.607   6.206
 3339SOL    HW111914   9.481   7.667   6.194
 3339SOL    HW211915   9.338   7.661   6.243
 3340SOL     OW11916   7.608   7.980  13.168
 3340SOL    HW111917   7.613   7.993  13.262
 3340SOL    HW211918   7.608   8.069  13.132
 3341SOL     OW11919   7.035   2.442   0.633
 3341SOL    HW111920   7.052   2.514   0.573
 3341SOL    HW211921   7.072   2.365   0.589
 3342SOL     OW11922  14.784   0.189  12.410
 3342SOL    HW111923  14.696   0.202  12.446
 3342SOL    HW211924  14.783   0.100  12.376
 3343SOL     OW11925   8.467   4.144  12.581
 3343SOL    HW111926   8.458   4.221  12.524
 3343SOL    HW211927   8.522   4.084  12.531
 3344SOL     OW11928  10.055   6.003   7.456
 3344SOL    HW111929   9.997   5.957   7.517
 3344SOL    HW211930  10.017   5.986   7.370
 3345SOL     OW11931   9.480   0.182   9.584
 3345SOL    HW111932   9.503   0.089   9.579
 3345SOL    HW211933   9.410   0.193   9.520
 3346SOL     OW11934   4.214   7.133   4.087
 3346SOL    HW111935   4.223   7.150   3.993
 3346SOL    HW211936   4.154   7.059   4.091
 3347SOL     OW11937  10.724  11.306   7.071
 3347SOL    HW111938  10.670  11.369   7.024
 3347SOL    HW211939  10.697  11.314   7.163
 3348SOL     OW11940  11.218   2.188   5.087
 3348SOL    HW111941  11.180   2.101   5.080
 3348SOL    HW211942  11.288   2.178   5.152
 3349SOL     OW11943  14.659  12.548   0.097
 3349SOL    HW111944  14.670  12.577   0.187
 3349SOL    HW211945  14.744  12.566   0.056
 3350SOL     OW11946  13.955   6.367   8.392
 3350SOL    HW111947  14.019   6.427   8.353
 3350SOL    HW211948  13.929   6.309   8.320
 3351SOL     OW11949  13.200   4.117  14.464
 3351SOL    HW111950  13.145   4.103  14.387
 3351SOL    HW211951  13.200   4.212  14.476
 3352SOL     OW11952   4.237   7.321   8.611
 3352SOL    HW111953   4.165   7.280   8.658
 3352SOL    HW211954   4.259   7.398   8.664
 3353SOL     OW11955   0.107   8.684  12.987
 3353SOL    HW111956   0.085   8.690  13.080
 3353SOL    HW211957   0.070   8.600  12.959
 3354SOL     OW11958   5.989   8.561   4.357
 3354SOL    HW111959   5.935   8.633   4.324
 3354SOL    HW211960   6.074   8.574   4.317
 3355SOL     OW11961   7.347  10.646  10.455
 3355SOL    HW111962   7.419  10.584  10.464
 3355SOL    HW211963   7.271  10.592  10.433
 3356SOL     OW11964   9.540   8.740   7.033
 3356SOL    HW111965   9.598   8.814   7.053
 3356SOL    HW211966   9.594   8.663   7.047
 3357SOL     OW11967   1.332  10.924   8.541
 3357SOL    HW111968   1.395  10.859   8.573
 3357SOL    HW211969   1.255  10.911   8.597
 3358SOL     OW11970  14.330  14.699  11.755
 3358SOL    HW111971  14.318  14.792  11.735
 3358SOL    HW211972  14.367  14.698  11.843
 3359SOL     OW11973   6.570  14.322   3.989
 3359SOL    HW111974   6.664  14.332   3.976
 3359SOL    HW211975   6.538  14.289   3.905
 3360SOL     OW11976   5.689  13.633  11.601
 3360SOL    HW111977   5.594  13.635  11.615
 3360SOL    HW211978   5.714  13.724  11.587
 3361SOL     OW11979  13.111  10.361  12.103
 3361SOL    HW111980  13.173  10.412  12.051
 3361SOL    HW211981  13.154  10.348  12.187
 3362SOL     OW11982  11.965   2.179  10.341
 3362SOL    HW111983  11.943   2.259  10.295
 3362SOL    HW211984  12.037   2.141  10.290
 3363SOL     OW11985   5.098   1.129   0.333
 3363SOL    HW111986   5.019   1.180   0.312
 3363SOL    HW211987   5.142   1.118   0.249
 3364SOL     OW11988   7.979   4.124   7.255
 3364SOL    HW111989   7.899   4.089   7.215
 3364SOL    HW211990   8.045   4.117   7.187
 3365SOL     OW11991  10.914   0.932  10.523
 3365SOL    HW111992  10.995   0.901  10.564
 3365SOL    HW211993  10.865   0.973  10.594
 3366SOL     OW11994  13.323   8.283  14.330
 3366SOL    HW111995  13.359   8.316  14.413
 3366SOL    HW211996  13.399   8.255  14.280
 3367SOL     OW11997  14.573   9.667   0.671
 3367SOL    HW111998  14.607   9.733   0.610
 3367SOL    HW211999  14.639   9.663   0.741
 3368SOL     OW12000   0.461  11.015   3.971
 3368SOL    HW112001   0.518  10.990   3.899
 3368SOL    HW212002   0.380  10.966   3.957
 3369SOL     OW12003   1.665  14.828   6.084
 3369SOL    HW112004   1.574  14.814   6.059
 3369SOL    HW212005   1.715  14.771   6.026
 3370SOL     OW12006   8.077   5.607   4.836
 3370SOL    HW112007   8.019   5.657   4.778
 3370SOL    HW212008   8.029   5.602   4.919
 3371SOL     OW12009   0.494   4.813   9.604
 3371SOL    HW112010   0.589   4.825   9.607
 3371SOL    HW212011   0.483   4.719   9.589
 3372SOL     OW12012   3.419   4.591   0.949
 3372SOL    HW112013   3.512   4.608   0.936
 3372SOL    HW212014   3.409   4.498   0.926
 3373SOL     OW12015   8.692  13.174   6.120
 3373SOL    HW112016   8.767  13.137   6.166
 3373SOL    HW212017   8.622  13.109   6.130
 3374SOL     OW12018  11.062   4.312   7.289
 3374SOL    HW112019  10.986   4.366   7.269
 3374SOL    HW212020  11.136   4.361   7.251
 3375SOL     OW12021   8.862  14.283   8.128
 3375SOL    HW112022   8.798  14.332   8.180
 3375SOL    HW212023   8.836  14.192   8.138
 3376SOL     OW12024   7.945  13.839  10.144
 3376SOL    HW112025   8.024  13.863  10.193
 3376SOL    HW212026   7.953  13.887  10.061
 3377SOL     OW12027   5.968   6.611   2.409
 3377SOL    HW112028   5.936   6.669   2.340
 3377SOL    HW212029   5.895   6.605   2.470
 3378SOL     OW12030  14.362   3.955   2.970
 3378SOL    HW112031  14.451   3.980   2.997
 3378SOL    HW212032  14.376   3.896   2.896
 3379SOL     OW12033  13.440  12.525  12.408
 3379SOL    HW112034  13.354  12.503  12.443
 3379SOL    HW212035  13.501  12.498  12.477
 3380SOL     OW12036   5.051  12.737   5.530
 3380SOL    HW112037   4.983  12.670   5.524
 3380SOL    HW212038   5.133  12.689   5.526
 3381SOL     OW12039   6.612  11.665   1.183
 3381SOL    HW112040   6.559  11.724   1.235
 3381SOL    HW212041   6.645  11.718   1.110
 3382SOL     OW12042   2.859   4.774   1.217
 3382SOL    HW112043   2.949   4.759   1.244
 3382SOL    HW212044   2.866   4.818   1.132
 3383SOL     OW12045   3.066   9.246   6.603
 3383SOL    HW112046   2.994   9.299   6.570
 3383SOL    HW212047   3.101   9.202   6.525
 3384SOL     OW12048   6.748   3.268   6.097
 3384SOL    HW112049   6.726   3.199   6.035
 3384SOL    HW212050   6.844   3.273   6.095
 3385SOL     OW12051   8.755   7.795   7.424
 3385SOL    HW112052   8.761   7.729   7.354
 3385SOL    HW212053   8.836   7.845   7.416
 3386SOL     OW12054   2.147  12.439   0.255
 3386SOL    HW112055   2.087  12.395   0.195
 3386SOL    HW212056   2.116  12.413   0.342
 3387SOL     OW12057   6.265   4.581   0.619
 3387SOL    HW112058   6.302   4.558   0.534
 3387SOL    HW212059   6.184   4.628   0.599
 3388SOL     OW12060   5.475   9.091   9.138
 3388SOL    HW112061   5.452   9.135   9.056
 3388SOL    HW212062   5.566   9.063   9.125
 3389SOL     OW12063  12.249  10.647   5.664
 3389SOL    HW112064  12.342  10.625   5.655
 3389SOL    HW212065  12.219  10.593   5.736
 3390SOL     OW12066   8.675   4.652  10.323
 3390SOL    HW112067   8.697   4.740  10.355
 3390SOL    HW212068   8.737   4.637  10.251
 3391SOL     OW12069   6.754   6.565   7.521
 3391SOL    HW112070   6.675   6.533   7.564
 3391SOL    HW212071   6.737   6.657   7.505
 3392SOL     OW12072  12.131   3.451  12.064
 3392SOL    HW112073  12.136   3.417  11.974
 3392SOL    HW212074  12.145   3.375  12.119
 3393SOL     OW12075  13.743   6.696  13.633
 3393SOL    HW112076  13.773   6.786  13.645
 3393SOL    HW212077  13.760   6.676  13.541
 3394SOL     OW12078   5.541   1.537   4.217
 3394SOL    HW112079   5.583   1.459   4.180
 3394SOL    HW212080   5.517   1.510   4.306
 3395SOL     OW12081  13.221   1.412   8.254
 3395SOL    HW112082  13.200   1.393   8.163
 3395SOL    HW212083  13.296   1.356   8.273
 3396SOL     OW12084   5.126   3.799   1.143
 3396SOL    HW112085   5.063   3.746   1.192
 3396SOL    HW212086   5.151   3.743   1.069
 3397SOL     OW12087  13.168   9.837  13.078
 3397SOL    HW112088  13.154   9.907  13.014
 3397SOL    HW212089  13.138   9.757  13.034
 3398SOL     OW12090   7.173   5.683   6.141
 3398SOL    HW112091   7.256   5.729   6.135
 3398SOL    HW212092   7.142   5.677   6.050
 3399SOL     OW12093   3.925   0.953   1.852
 3399SOL    HW112094   3.854   0.889   1.865
 3399SOL    HW212095   3.883   1.026   1.807
 3400SOL     OW12096   6.887   0.315   0.217
 3400SOL    HW112097   6.833   0.241   0.245
 3400SOL    HW212098   6.915   0.292   0.128
 3401SOL     OW12099   1.618  10.337   1.446
 3401SOL    HW112100   1.647  10.418   1.405
 3401SOL    HW212101   1.695  10.279   1.442
 3402SOL     OW12102  14.577   7.266   7.505
 3402SOL    HW112103  14.609   7.185   7.464
 3402SOL    HW212104  14.493   7.282   7.463
 3403SOL     OW12105   0.234   4.250   5.908
 3403SOL    HW112106   0.300   4.192   5.945
 3403SOL    HW212107   0.282   4.306   5.846
 3404SOL     OW12108   3.987   9.939  10.919
 3404SOL    HW112109   3.952  10.029  10.916
 3404SOL    HW212110   3.953   9.897  10.840
 3405SOL     OW12111   2.438  11.224   6.372
 3405SOL    HW112112   2.367  11.289   6.375
 3405SOL    HW212113   2.517  11.275   6.388
 3406SOL     OW12114   0.110   9.392   8.106
 3406SOL    HW112115   0.099   9.430   8.018
 3406SOL    HW212116   0.137   9.465   8.161
 3407SOL     OW12117   8.918  12.270  10.301
 3407SOL    HW112118   8.845  12.253  10.241
 3407SOL    HW212119   8.979  12.323  10.249
 3408SOL     OW12120   4.676   3.450   4.410
 3408SOL    HW112121   4.592   3.464   4.454
 3408SOL    HW212122   4.740   3.441   4.480
 3409SOL     OW12123   1.183  12.560   1.866
 3409SOL    HW112124   1.201  12.571   1.960
 3409SOL    HW212125   1.257  12.601   1.822
 3410SOL     OW12126  10.102   8.785   0.356
 3410SOL    HW112127  10.089   8.832   0.439
 3410SOL    HW212128  10.096   8.692   0.380
 3411SOL     OW12129   0.597   8.576  10.780
 3411SOL    HW112130   0.524   8.529  10.820
 3411SOL    HW212131   0.568   8.593  10.690
 3412SOL     OW12132   2.089  10.301   6.191
 3412SOL    HW112133   2.118  10.381   6.234
 3412SOL    HW212134   2.134  10.302   6.107
 3413SOL     OW12135   4.506   6.411   7.659
 3413SOL    HW112136   4.579   6.383   7.714
 3413SOL    HW212137   4.537   6.395   7.569
 3414SOL     OW12138  10.210  13.269   2.884
 3414SOL    HW112139  10.129  13.293   2.840
 3414SOL    HW212140  10.213  13.325   2.962
 3415SOL     OW12141   3.627   5.074   3.172
 3415SOL    HW112142   3.582   5.158   3.161
 3415SOL    HW212143   3.675   5.083   3.254
 3416SOL     OW12144   0.182   5.375   0.847
 3416SOL    HW112145   0.093   5.340   0.854
 3416SOL    HW212146   0.177   5.440   0.777
 3417SOL     OW12147   6.255  11.059   8.339
 3417SOL    HW112148   6.322  10.994   8.363
 3417SOL    HW212149   6.292  11.142   8.368
 3418SOL     OW12150   7.683  10.092  13.184
 3418SOL    HW112151   7.589  10.088  13.197
 3418SOL    HW212152   7.704  10.185  13.187
 3419SOL     OW12153  14.276   7.179  10.659
 3419SOL    HW112154  14.299   7.268  10.634
 3419SOL    HW212155  14.360   7.139  10.685
 3420SOL     OW12156   3.746  10.986   8.193
 3420SOL    HW112157   3.746  11.069   8.146
 3420SOL    HW212158   3.705  11.006   8.277
 3421SOL     OW12159   8.785   6.770  12.356
 3421SOL    HW112160   8.742   6.724  12.284
 3421SOL    HW212161   8.857   6.817  12.315
 3422SOL     OW12162   2.918  14.650   2.821
 3422SOL    HW112163   2.841  14.657   2.877
 3422SOL    HW212164   2.884  14.625   2.736
 3423SOL     OW12165   7.399  14.683   3.601
 3423SOL    HW112166   7.415  14.762   3.653
 3423SOL    HW212167   7.315  14.701   3.557
 3424SOL     OW12168   9.107  11.798  14.819
 3424SOL    HW112169   9.181  11.776  14.762
 3424SOL    HW212170   9.147  11.816   0.036
 3425SOL     OW12171   1.172   1.896   8.270
 3425SOL    HW112172   1.095   1.863   8.316
 3425SOL    HW212173   1.160   1.867   8.179
 3426SOL     OW12174   4.831   5.412  14.420
 3426SOL    HW112175   4.893   5.469  14.467
 3426SOL    HW212176   4.832   5.445  14.330
 3427SOL     OW12177  11.151  13.495   6.467
 3427SOL    HW112178  11.067  13.472   6.426
 3427SOL    HW212179  11.197  13.546   6.400
 3428SOL     OW12180   3.631   6.071  10.889
 3428SOL    HW112181   3.716   6.092  10.929
 3428SOL    HW212182   3.638   5.978  10.866
 3429SOL     OW12183   0.597   4.565   9.448
 3429SOL    HW112184   0.667   4.505   9.475
 3429SOL    HW212185   0.568   4.532   9.364
 3430SOL     OW12186  11.315  11.584  12.116
 3430SOL    HW112187  11.286  11.672  12.140
 3430SOL    HW212188  11.364  11.553  12.193
 3431SOL     OW12189   9.680  12.973   1.965
 3431SOL    HW112190   9.761  12.958   1.915
 3431SOL    HW212191   9.625  13.025   1.905
 3432SOL     OW12192   5.541   2.636   0.069
 3432SOL    HW112193   5.554   2.726   0.038
 3432SOL    HW212194   5.579   2.582   0.000
 3433SOL     OW12195  11.778   8.437   1.939
 3433SOL    HW112196  11.734   8.491   2.005
 3433SOL    HW212197  11.870   8.463   1.944
 3434SOL     OW12198   6.102   1.619   2.314
 3434SOL    HW112199   6.179   1.675   2.328
 3434SOL    HW212200   6.051   1.630   2.394
 3435SOL     OW12201  10.577  10.335   4.970
 3435SOL    HW112202  10.658  10.284   4.973
 3435SOL    HW212203  10.601  10.414   4.921
 3436SOL     OW12204   9.687   2.686  12.708
 3436SOL    HW112205   9.712   2.747  12.777
 3436SOL    HW212206   9.681   2.601  12.752
 3437SOL     OW12207   1.314   0.393   5.812
 3437SOL    HW112208   1.283   0.302   5.807
 3437SOL    HW212209   1.408   0.387   5.794
 3438SOL     OW12210  11.755   8.597   5.618
 3438SOL    HW112211  11.753   8.545   5.698
 3438SOL    HW212212  11.671   8.581   5.576
 3439SOL     OW12213  10.826   2.295   5.972
 3439SOL    HW112214  10.765   2.358   6.010
 3439SOL    HW212215  10.811   2.301   5.878
 3440SOL     OW12216   4.466   9.227  10.200
 3440SOL    HW112217   4.389   9.239  10.144
 3440SOL    HW212218   4.442   9.267  10.283
 3441SOL     OW12219  11.381   6.860  10.984
 3441SOL    HW112220  11.473   6.848  10.962
 3441SOL    HW212221  11.357   6.944  10.945
 3442SOL     OW12222  13.894  11.962   2.545
 3442SOL    HW112223  13.889  12.054   2.519
 3442SOL    HW212224  13.807  11.942   2.578
 3443SOL     OW12225   0.623   2.499   7.986
 3443SOL    HW112226   0.673   2.436   8.038
 3443SOL    HW212227   0.596   2.449   7.909
 3444SOL     OW12228   5.901   3.885   7.145
 3444SOL    HW112229   5.934   3.810   7.195
 3444SOL    HW212230   5.978   3.920   7.100
 3445SOL     OW12231   5.837   6.008   3.807
 3445SOL    HW112232   5.904   6.062   3.848
 3445SOL    HW212233   5.755   6.053   3.826
 3446SOL     OW12234   1.306   3.460  12.036
 3446SOL    HW112235   1.228   3.506  12.065
 3446SOL    HW212236   1.375   3.526  12.033
 3447SOL     OW12237   5.091   5.345  14.668
 3447SOL    HW112238   5.077   5.252  14.650
 3447SOL    HW212239   5.021   5.389  14.619
 3448SOL     OW12240  14.709   8.832   1.791
 3448SOL    HW112241  14.777   8.860   1.852
 3448SOL    HW212242  14.679   8.913   1.750
 3449SOL     OW12243   8.301  12.326  12.439
 3449SOL    HW112244   8.251  12.326  12.521
 3449SOL    HW212245   8.373  12.387  12.455
 3450SOL     OW12246   7.087  12.851   2.898
 3450SOL    HW112247   7.100  12.763   2.934
 3450SOL    HW212248   7.142  12.853   2.820
 3451SOL     OW12249   4.985   2.636  12.582
 3451SOL    HW112250   4.925   2.577  12.626
 3451SOL    HW212251   5.013   2.588  12.504
 3452SOL     OW12252  13.769  13.824  13.416
 3452SOL    HW112253  13.693  13.830  13.474
 3452SOL    HW212254  13.788  13.730  13.411
 3453SOL     OW12255   7.752   3.169   3.526
 3453SOL    HW112256   7.762   3.074   3.525
 3453SOL    HW212257   7.657   3.182   3.524
 3454SOL     OW12258   4.525  13.715   9.818
 3454SOL    HW112259   4.457  13.738   9.881
 3454SOL    HW212260   4.495  13.632   9.779
 3455SOL     OW12261   6.488   6.766   4.676
 3455SOL    HW112262   6.565   6.712   4.657
 3455SOL    HW212263   6.522   6.841   4.724
 3456SOL     OW12264  14.710  12.057  13.509
 3456SOL    HW112265  14.788  12.030  13.557
 3456SOL    HW212266  14.639  12.052  13.573
 3457SOL     OW12267   8.998   4.259   5.211
 3457SOL    HW112268   9.008   4.277   5.117
 3457SOL    HW212269   9.087   4.252   5.244
 3458SOL     OW12270   4.403   2.543  14.464
 3458SOL    HW112271   4.485   2.502  14.492
 3458SOL    HW212272   4.347   2.539  14.542
 3459SOL     OW12273   9.080   6.466  11.164
 3459SOL    HW112274   9.048   6.493  11.078
 3459SOL    HW212275   9.097   6.372  11.155
 3460SOL     OW12276  13.774  13.917   0.853
 3460SOL    HW112277  13.751  13.983   0.917
 3460SOL    HW212278  13.727  13.838   0.881
 3461SOL     OW12279  14.575   7.817   9.460
 3461SOL    HW112280  14.510   7.887   9.469
 3461SOL    HW212281  14.533   7.752   9.404
 3462SOL     OW12282  14.138   5.904   2.914
 3462SOL    HW112283  14.132   5.822   2.965
 3462SOL    HW212284  14.096   5.969   2.970
 3463SOL     OW12285   1.182   9.391  12.931
 3463SOL    HW112286   1.169   9.439  12.849
 3463SOL    HW212287   1.277   9.384  12.940
 3464SOL     OW12288   8.650   0.527   9.233
 3464SOL    HW112289   8.592   0.563   9.166
 3464SOL    HW212290   8.602   0.540   9.315
 3465SOL     OW12291  13.671  11.938  11.479
 3465SOL    HW112292  13.576  11.939  11.473
 3465SOL    HW212293  13.693  11.847  11.501
 3466SOL     OW12294  12.754   6.500  13.684
 3466SOL    HW112295  12.801   6.546  13.754
 3466SOL    HW212296  12.808   6.515  13.606
 3467SOL     OW12297  13.761  12.866  10.222
 3467SOL    HW112298  13.831  12.917  10.264
 3467SOL    HW212299  13.803  12.784  10.196
 3468SOL     OW12300   3.280  11.377   5.708
 3468SOL    HW112301   3.250  11.420   5.788
 3468SOL    HW212302   3.373  11.398   5.703
 3469SOL     OW12303   7.902   2.447  12.577
 3469SOL    HW112304   7.920   2.540  12.571
 3469SOL    HW212305   7.906   2.416  12.487
 3470SOL     OW12306   4.271  10.477  12.495
 3470SOL    HW112307   4.176  10.475  12.507
 3470SOL    HW212308   4.307  10.472  12.583
 3471SOL     OW12309   3.408   4.885   7.603
 3471SOL    HW112310   3.332   4.886   7.544
 3471SOL    HW212311   3.383   4.824   7.672
 3472SOL     OW12312  14.380   6.392  13.095
 3472SOL    HW112313  14.443   6.440  13.150
 3472SOL    HW212314  14.435   6.348  13.031
 3473SOL     OW12315   4.708   2.313   5.157
 3473SOL    HW112316   4.654   2.333   5.080
 3473SOL    HW212317   4.798   2.322   5.127
 3474SOL     OW12318   7.725  10.370   6.518
 3474SOL    HW112319   7.704  10.277   6.519
 3474SOL    HW212320   7.770  10.385   6.601
 3475SOL     OW12321   0.018   7.044   8.251
 3475SOL    HW112322   0.105   7.006   8.233
 3475SOL    HW212323  14.834   7.021   8.173
 3476SOL     OW12324   4.833   8.013   6.469
 3476SOL    HW112325   4.815   7.962   6.390
 3476SOL    HW212326   4.848   7.947   6.537
 3477SOL     OW12327   3.165  10.736  12.714
 3477SOL    HW112328   3.080  10.780  12.725
 3477SOL    HW212329   3.212  10.790  12.652
 3478SOL     OW12330   3.551  14.688   9.118
 3478SOL    HW112331   3.557  14.603   9.075
 3478SOL    HW212332   3.460  14.714   9.108
 3479SOL     OW12333   0.261   4.620  10.288
 3479SOL    HW112334   0.291   4.612  10.378
 3479SOL    HW212335   0.193   4.687  10.292
 3480SOL     OW12336  10.098  12.962   6.638
 3480SOL    HW112337  10.070  12.967   6.729
 3480SOL    HW212338  10.078  12.873   6.611
 3481SOL     OW12339   6.441  11.997  11.016
 3481SOL    HW112340   6.450  11.911  11.056
 3481SOL    HW212341   6.507  12.051  11.061
 3482SOL     OW12342   6.313  11.622   8.691
 3482SOL    HW112343   6.259  11.629   8.612
 3482SOL    HW212344   6.320  11.713   8.723
 3483SOL     OW12345   6.096   3.294   4.786
 3483SOL    HW112346   6.087   3.229   4.717
 3483SOL    HW212347   6.188   3.290   4.811
 3484SOL     OW12348  14.620   6.719  12.943
 3484SOL    HW112349  14.542   6.677  12.978
 3484SOL    HW212350  14.622   6.695  12.850
 3485SOL     OW12351   1.450  11.210  10.552
 3485SOL    HW112352   1.521  11.213  10.616
 3485SOL    HW212353   1.423  11.119  10.550
 3486SOL     OW12354   3.004   9.664  10.989
 3486SOL    HW112355   2.920   9.680  11.032
 3486SOL    HW212356   3.069   9.671  11.059
 3487SOL     OW12357  11.821  11.157  11.132
 3487SOL    HW112358  11.767  11.183  11.207
 3487SOL    HW212359  11.905  11.131  11.170
 3488SOL     OW12360   1.694   8.679   9.416
 3488SOL    HW112361   1.730   8.675   9.505
 3488SOL    HW212362   1.671   8.771   9.404
 3489SOL     OW12363   8.001  10.037   0.561
 3489SOL    HW112364   8.037   9.950   0.544
 3489SOL    HW212365   8.027  10.089   0.485
 3490SOL     OW12366   6.247   9.731  10.410
 3490SOL    HW112367   6.336   9.764  10.409
 3490SOL    HW212368   6.236   9.690  10.323
 3491SOL     OW12369  12.058   4.605  10.788
 3491SOL    HW112370  12.043   4.521  10.831
 3491SOL    HW212371  12.140   4.594  10.741
 3492SOL     OW12372  14.278   4.764   7.549
 3492SOL    HW112373  14.295   4.692   7.610
 3492SOL    HW212374  14.230   4.723   7.477
 3493SOL     OW12375  10.268  13.435  12.538
 3493SOL    HW112376  10.208  13.473  12.602
 3493SOL    HW212377  10.321  13.508  12.508
 3494SOL     OW12378  13.834   8.019   3.623
 3494SOL    HW112379  13.758   8.007   3.680
 3494SOL    HW212380  13.810   8.091   3.565
 3495SOL     OW12381  11.219  14.309  13.167
 3495SOL    HW112382  11.180  14.351  13.243
 3495SOL    HW212383  11.302  14.273  13.199
 3496SOL     OW12384   5.830  11.087   4.308
 3496SOL    HW112385   5.777  11.098   4.387
 3496SOL    HW212386   5.786  11.139   4.241
 3497SOL     OW12387   2.129   4.794   2.855
 3497SOL    HW112388   2.067   4.739   2.905
 3497SOL    HW212389   2.126   4.759   2.766
 3498SOL     OW12390   1.805   3.636   4.367
 3498SOL    HW112391   1.737   3.642   4.299
 3498SOL    HW212392   1.814   3.542   4.383
 3499SOL     OW12393  13.338   3.717   5.506
 3499SOL    HW112394  13.303   3.671   5.429
 3499SOL    HW212395  13.286   3.685   5.579
 3500SOL     OW12396  13.151  12.897  11.110
 3500SOL    HW112397  13.234  12.874  11.151
 3500SOL    HW212398  13.098  12.932  11.182
 3501SOL     OW12399   0.024   9.788   2.019
 3501SOL    HW112400  14.865   9.763   1.931
 3501SOL    HW212401   0.091   9.855   2.006
 3502SOL     OW12402   3.746   1.201  10.181
 3502SOL    HW112403   3.751   1.134  10.114
 3502SOL    HW212404   3.665   1.182  10.229
 3503SOL     OW12405  14.665   5.374  12.616
 3503SOL    HW112406  14.717   5.362  12.696
 3503SOL    HW212407  14.576   5.351  12.641
 3504SOL     OW12408   9.798   0.572   5.511
 3504SOL    HW112409   9.800   0.667   5.505
 3504SOL    HW212410   9.824   0.552   5.601
 3505SOL     OW12411  10.157   1.242   3.370
 3505SOL    HW112412  10.128   1.280   3.453
 3505SOL    HW212413  10.185   1.154   3.393
 3506SOL     OW12414  13.688   0.916   9.758
 3506SOL    HW112415  13.618   0.859   9.725
 3506SOL    HW212416  13.661   1.004   9.730
 3507SOL     OW12417   9.544  13.272   8.027
 3507SOL    HW112418   9.565  13.196   7.973
 3507SOL    HW212419   9.567  13.347   7.973
 3508SOL     OW12420   7.649   7.178   1.358
 3508SOL    HW112421   7.720   7.220   1.310
 3508SOL    HW212422   7.658   7.085   1.340
 3509SOL     OW12423   0.836  11.652   4.353
 3509SOL    HW112424   0.853  11.659   4.447
 3509SOL    HW212425   0.808  11.740   4.328
 3510SOL     OW12426   8.891   3.534   0.202
 3510SOL    HW112427   8.884   3.517   0.296
 3510SOL    HW212428   8.896   3.629   0.196
 3511SOL     OW12429  11.437  12.666   9.373
 3511SOL    HW112430  11.403  12.649   9.285
 3511SOL    HW212431  11.430  12.582   9.418
 3512SOL     OW12432  12.102   1.781  12.280
 3512SOL    HW112433  12.089   1.729  12.360
 3512SOL    HW212434  12.104   1.872  12.311
 3513SOL     OW12435  12.071  14.658   3.522
 3513SOL    HW112436  12.120  14.687   3.446
 3513SOL    HW212437  11.996  14.611   3.486
 3514SOL     OW12438   9.704  11.339   1.627
 3514SOL    HW112439   9.667  11.327   1.539
 3514SOL    HW212440   9.734  11.430   1.628
 3515SOL     OW12441   4.823   2.161   1.481
 3515SOL    HW112442   4.827   2.065   1.484
 3515SOL    HW212443   4.889   2.190   1.544
 3516SOL     OW12444   0.785   8.430   2.029
 3516SOL    HW112445   0.769   8.338   2.011
 3516SOL    HW212446   0.825   8.463   1.948
 3517SOL     OW12447  12.722   0.790   6.513
 3517SOL    HW112448  12.731   0.743   6.596
 3517SOL    HW212449  12.730   0.722   6.446
 3518SOL     OW12450   4.630   8.197   6.898
 3518SOL    HW112451   4.555   8.185   6.956
 3518SOL    HW212452   4.690   8.126   6.921
 3519SOL     OW12453   4.655  10.295   1.331
 3519SOL    HW112454   4.596  10.330   1.398
 3519SOL    HW212455   4.606  10.223   1.291
 3520SOL     OW12456   5.190  12.409  10.294
 3520SOL    HW112457   5.199  12.444  10.382
 3520SOL    HW212458   5.173  12.487  10.239
 3521SOL     OW12459  13.068  13.879   1.143
 3521SOL    HW112460  13.139  13.935   1.172
 3521SOL    HW212461  12.999  13.892   1.209
 3522SOL     OW12462   0.375  14.807   6.402
 3522SOL    HW112463   0.409   0.029   6.400
 3522SOL    HW212464   0.361  14.789   6.495
 3523SOL     OW12465   7.831  11.539   6.716
 3523SOL    HW112466   7.763  11.562   6.779
 3523SOL    HW212467   7.854  11.448   6.738
 3524SOL     OW12468  13.132  12.118   5.458
 3524SOL    HW112469  13.043  12.086   5.471
 3524SOL    HW212470  13.180  12.087   5.535
 3525SOL     OW12471   1.963  11.183   4.886
 3525SOL    HW112472   1.959  11.250   4.954
 3525SOL    HW212473   1.946  11.101   4.933
 3526SOL     OW12474   7.436   4.623   7.289
 3526SOL    HW112475   7.395   4.595   7.207
 3526SOL    HW212476   7.517   4.572   7.294
 3527SOL     OW12477   0.176   7.291   8.502
 3527SOL    HW112478   0.139   7.275   8.415
 3527SOL    HW212479   0.190   7.385   8.505
 3528SOL     OW12480   7.893   4.849   2.348
 3528SOL    HW112481   7.896   4.891   2.434
 3528SOL    HW212482   7.805   4.811   2.343
 3529SOL     OW12483   5.188   5.337   6.587
 3529SOL    HW112484   5.188   5.414   6.644
 3529SOL    HW212485   5.280   5.322   6.566
 3530SOL     OW12486   2.020  14.155   5.303
 3530SOL    HW112487   2.082  14.117   5.365
 3530SOL    HW212488   2.033  14.106   5.222
 3531SOL     OW12489   8.099  10.619   1.922
 3531SOL    HW112490   8.190  10.608   1.948
 3531SOL    HW212491   8.082  10.546   1.863
 3532SOL     OW12492  10.546  10.357   8.317
 3532SOL    HW112493  10.605  10.306   8.262
 3532SOL    HW212494  10.480  10.294   8.347
 3533SOL     OW12495  14.216   0.114  14.812
 3533SOL    HW112496  14.283   0.077   0.002
 3533SOL    HW212497  14.178   0.038  14.768
 3534SOL     OW12498   9.730   5.991   5.525
 3534SOL    HW112499   9.760   6.069   5.479
 3534SOL    HW212500   9.639   6.011   5.548
 3535SOL     OW12501  14.279   1.130  13.280
 3535SOL    HW112502  14.330   1.167  13.208
 3535SOL    HW212503  14.198   1.180  13.280
 3536SOL     OW12504   6.552   8.947   9.883
 3536SOL    HW112505   6.518   8.863   9.850
 3536SOL    HW212506   6.598   8.984   9.808
 3537SOL     OW12507   6.884   6.768   5.867
 3537SOL    HW112508   6.863   6.696   5.808
 3537SOL    HW212509   6.874   6.847   5.814
 3538SOL     OW12510  13.901   0.958  12.092
 3538SOL    HW112511  13.896   0.913  12.008
 3538SOL    HW212512  13.991   0.989  12.098
 3539SOL     OW12513   8.186   4.917  10.310
 3539SOL    HW112514   8.239   4.838  10.303
 3539SOL    HW212515   8.241   4.977  10.361
 3540SOL     OW12516  10.645   5.201  11.592
 3540SOL    HW112517  10.684   5.280  11.630
 3540SOL    HW212518  10.681   5.130  11.644
 3541SOL     OW12519   0.647   9.529   4.182
 3541SOL    HW112520   0.690   9.614   4.174
 3541SOL    HW212521   0.637   9.498   4.092
 3542SOL     OW12522   6.071  10.850   3.694
 3542SOL    HW112523   6.003  10.783   3.692
 3542SOL    HW212524   6.153  10.801   3.695
 3543SOL     OW12525  12.191   5.132   5.996
 3543SOL    HW112526  12.216   5.047   6.033
 3543SOL    HW212527  12.100   5.121   5.968
 3544SOL     OW12528   0.674  14.103   6.938
 3544SOL    HW112529   0.697  14.017   6.903
 3544SOL    HW212530   0.686  14.163   6.864
 3545SOL     OW12531   4.987   9.696   8.082
 3545SOL    HW112532   4.941   9.733   8.157
 3545SOL    HW212533   4.935   9.620   8.057
 3546SOL     OW12534   9.919   1.508   2.402
 3546SOL    HW112535   9.952   1.595   2.426
 3546SOL    HW212536   9.840   1.526   2.351
 3547SOL     OW12537   9.776  14.547  14.716
 3547SOL    HW112538   9.824  14.469  14.746
 3547SOL    HW212539   9.822  14.575  14.637
 3548SOL     OW12540   9.848  10.483  10.738
 3548SOL    HW112541   9.767  10.462  10.692
 3548SOL    HW212542   9.889  10.398  10.755
 3549SOL     OW12543   4.042   8.235   2.335
 3549SOL    HW112544   4.008   8.203   2.251
 3549SOL    HW212545   3.982   8.198   2.400
 3550SOL     OW12546  14.282   6.763  14.472
 3550SOL    HW112547  14.191   6.735  14.478
 3550SOL    HW212548  14.333   6.685  14.491
 3551SOL     OW12549   7.577  14.808  14.597
 3551SOL    HW112550   7.577  14.866  14.674
 3551SOL    HW212551   7.603  14.723  14.632
 3552SOL     OW12552  12.790   2.534   2.989
 3552SOL    HW112553  12.729   2.607   2.995
 3552SOL    HW212554  12.864   2.569   2.940
 3553SOL     OW12555   5.635  11.967   0.932
 3553SOL    HW112556   5.693  11.978   1.008
 3553SOL    HW212557   5.646  12.047   0.881
 3554SOL     OW12558  12.931   7.395   7.915
 3554SOL    HW112559  12.941   7.473   7.970
 3554SOL    HW212560  13.020   7.366   7.898
 3555SOL     OW12561   8.044   6.045   4.087
 3555SOL    HW112562   8.077   5.957   4.106
 3555SOL    HW212563   8.106   6.104   4.130
 3556SOL     OW12564   7.082   8.411   5.416
 3556SOL    HW112565   7.123   8.325   5.423
 3556SOL    HW212566   7.153   8.470   5.395
 3557SOL     OW12567   7.065   0.725   8.326
 3557SOL    HW112568   7.069   0.640   8.283
 3557SOL    HW212569   6.990   0.718   8.386
 3558SOL     OW12570   0.633   3.107   9.780
 3558SOL    HW112571   0.696   3.160   9.731
 3558SOL    HW212572   0.554   3.107   9.725
 3559SOL     OW12573  14.492   0.518   1.096
 3559SOL    HW112574  14.478   0.601   1.052
 3559SOL    HW212575  14.556   0.537   1.165
 3560SOL     OW12576  13.679   7.101   5.661
 3560SOL    HW112577  13.597   7.073   5.702
 3560SOL    HW212578  13.741   7.032   5.682
 3561SOL     OW12579   4.105  12.232   6.531
 3561SOL    HW112580   4.101  12.143   6.566
 3561SOL    HW212581   4.041  12.232   6.459
 3562SOL     OW12582  11.200   2.435  12.550
 3562SOL    HW112583  11.133   2.394  12.495
 3562SOL    HW212584  11.156   2.450  12.633
 3563SOL     OW12585   9.324  10.260   8.930
 3563SOL    HW112586   9.414  10.270   8.900
 3563SOL    HW212587   9.275  10.326   8.879
 3564SOL     OW12588   4.970   5.827   4.927
 3564SOL    HW112589   4.980   5.783   5.012
 3564SOL    HW212590   5.052   5.876   4.916
 3565SOL     OW12591   7.446   1.659   8.637
 3565SOL    HW112592   7.480   1.652   8.548
 3565SOL    HW212593   7.395   1.579   8.649
 3566SOL     OW12594   5.690   5.609   3.400
 3566SOL    HW112595   5.720   5.583   3.312
 3566SOL    HW212596   5.766   5.596   3.456
 3567SOL     OW12597   8.724  11.760   8.306
 3567SOL    HW112598   8.674  11.828   8.262
 3567SOL    HW212599   8.728  11.688   8.242
 3568SOL     OW12600   5.669  13.316  10.396
 3568SOL    HW112601   5.674  13.224  10.371
 3568SOL    HW212602   5.602  13.320  10.464
 3569SOL     OW12603   9.975   3.061  10.570
 3569SOL    HW112604   9.920   3.134  10.598
 3569SOL    HW212605  10.065   3.093  10.578
 3570SOL     OW12606   4.270  12.841   7.426
 3570SOL    HW112607   4.306  12.757   7.397
 3570SOL    HW212608   4.175  12.828   7.424
 3571SOL     OW12609   5.029   7.786  12.131
 3571SOL    HW112610   5.023   7.838  12.051
 3571SOL    HW212611   5.000   7.845  12.201
 3572SOL     OW12612  13.237   0.789   5.228
 3572SOL    HW112613  13.282   0.856   5.279
 3572SOL    HW212614  13.164   0.762   5.283
 3573SOL     OW12615   0.853   1.784   4.582
 3573SOL    HW112616   0.822   1.730   4.509
 3573SOL    HW212617   0.863   1.722   4.655
 3574SOL     OW12618   0.937   5.990  12.402
 3574SOL    HW112619   0.930   5.955  12.490
 3574SOL    HW212620   0.982   6.074  12.413
 3575SOL     OW12621   5.527   8.072   4.327
 3575SOL    HW112622   5.509   7.983   4.355
 3575SOL    HW212623   5.567   8.114   4.403
 3576SOL     OW12624   3.558  10.908  11.474
 3576SOL    HW112625   3.592  10.997  11.468
 3576SOL    HW212626   3.597  10.862  11.400
 3577SOL     OW12627   3.351   1.798   5.536
 3577SOL    HW112628   3.281   1.758   5.485
 3577SOL    HW212629   3.354   1.889   5.507
 3578SOL     OW12630  10.590   4.322   0.845
 3578SOL    HW112631  10.578   4.242   0.795
 3578SOL    HW212632  10.682   4.345   0.832
 3579SOL     OW12633   4.471   4.141   7.519
 3579SOL    HW112634   4.441   4.196   7.447
 3579SOL    HW212635   4.496   4.059   7.478
 3580SOL     OW12636  11.800  14.557  14.731
 3580SOL    HW112637  11.710  14.586  14.743
 3580SOL    HW212638  11.849  14.637  14.715
 3581SOL     OW12639   3.117   8.285  10.183
 3581SOL    HW112640   3.024   8.265  10.191
 3581SOL    HW212641   3.146   8.302  10.273
 3582SOL     OW12642  11.599  14.207   6.329
 3582SOL    HW112643  11.546  14.222   6.251
 3582SOL    HW212644  11.582  14.116   6.353
 3583SOL     OW12645  13.594   6.267  10.005
 3583SOL    HW112646  13.612   6.329  10.076
 3583SOL    HW212647  13.656   6.291   9.936
 3584SOL     OW12648   3.337   5.549  12.118
 3584SOL    HW112649   3.404   5.552  12.187
 3584SOL    HW212650   3.283   5.626  12.134
 3585SOL     OW12651  11.168   1.556  11.847
 3585SOL    HW112652  11.086   1.592  11.881
 3585SOL    HW212653  11.209   1.515  11.923
 3586SOL     OW12654   7.935   6.139   8.437
 3586SOL    HW112655   7.864   6.076   8.429
 3586SOL    HW212656   7.965   6.153   8.347
 3587SOL     OW12657   2.022   1.838   7.206
 3587SOL    HW112658   1.989   1.891   7.279
 3587SOL    HW212659   2.087   1.892   7.163
 3588SOL     OW12660   7.449  12.413  12.004
 3588SOL    HW112661   7.401  12.383  11.926
 3588SOL    HW212662   7.508  12.340  12.024
 3589SOL     OW12663  10.245   5.563   1.458
 3589SOL    HW112664  10.183   5.568   1.385
 3589SOL    HW212665  10.206   5.619   1.526
 3590SOL     OW12666   1.881  10.776  11.464
 3590SOL    HW112667   1.864  10.682  11.463
 3590SOL    HW212668   1.976  10.783  11.476
 3591SOL     OW12669   0.772   5.099   6.265
 3591SOL    HW112670   0.851   5.076   6.315
 3591SOL    HW212671   0.775   5.195   6.259
 3592SOL     OW12672   0.384   4.581   4.277
 3592SOL    HW112673   0.323   4.620   4.215
 3592SOL    HW212674   0.388   4.644   4.349
 3593SOL     OW12675   0.717   5.343   7.285
 3593SOL    HW112676   0.622   5.349   7.295
 3593SOL    HW212677   0.738   5.251   7.302
 3594SOL     OW12678   0.214   3.132   9.540
 3594SOL    HW112679   0.256   3.120   9.625
 3594SOL    HW212680   0.286   3.140   9.478
 3595SOL     OW12681  10.745  14.829   1.880
 3595SOL    HW112682  10.772   0.034   1.937
 3595SOL    HW212683  10.758  14.751   1.934
 3596SOL     OW12684  12.812   2.752   4.751
 3596SOL    HW112685  12.787   2.720   4.837
 3596SOL    HW212686  12.757   2.829   4.737
 3597SOL     OW12687  12.047   6.895   3.184
 3597SOL    HW112688  12.137   6.863   3.188
 3597SOL    HW212689  12.038   6.932   3.096
 3598SOL     OW12690   0.680   0.450   6.342
 3598SOL    HW112691   0.719   0.474   6.426
 3598SOL    HW212692   0.654   0.358   6.353
 3599SOL     OW12693   0.331   9.310   8.543
 3599SOL    HW112694   0.348   9.226   8.587
 3599SOL    HW212695   0.352   9.376   8.609
 3600SOL     OW12696  14.638  10.144  13.667
 3600SOL    HW112697  14.546  10.132  13.691
 3600SOL    HW212698  14.653  10.081  13.596
 3601SOL     OW12699   3.207   2.788  10.120
 3601SOL    HW112700   3.242   2.805  10.207
 3601SOL    HW212701   3.232   2.865  10.069
 3602SOL     OW12702   3.569   3.508   6.745
 3602SOL    HW112703   3.662   3.524   6.761
 3602SOL    HW212704   3.563   3.491   6.651
 3603SOL     OW12705  12.499   6.136   1.447
 3603SOL    HW112706  12.483   6.060   1.503
 3603SOL    HW212707  12.546   6.197   1.503
 3604SOL     OW12708   9.946   5.439  13.115
 3604SOL    HW112709   9.957   5.502  13.044
 3604SOL    HW212710   9.869   5.387  13.089
 3605SOL     OW12711   9.101   2.445  13.049
 3605SOL    HW112712   9.041   2.480  12.982
 3605SOL    HW212713   9.170   2.402  12.998
 3606SOL     OW12714   0.542  11.523   9.179
 3606SOL    HW112715   0.481  11.449   9.185
 3606SOL    HW212716   0.487  11.598   9.156
 3607SOL     OW12717   7.825   0.597   3.939
 3607SOL    HW112718   7.787   0.510   3.928
 3607SOL    HW212719   7.756   0.648   3.981
 3608SOL     OW12720   3.675   6.172   9.644
 3608SOL    HW112721   3.659   6.094   9.697
 3608SOL    HW212722   3.710   6.138   9.562
 3609SOL     OW12723   7.603  13.801   5.522
 3609SOL    HW112724   7.595  13.828   5.614
 3609SOL    HW212725   7.691  13.762   5.517
 3610SOL     OW12726   8.102  13.237   6.427
 3610SOL    HW112727   8.009  13.258   6.415
 3610SOL    HW212728   8.106  13.142   6.415
 3611SOL     OW12729  12.871   7.503  10.863
 3611SOL    HW112730  12.918   7.576  10.904
 3611SOL    HW212731  12.937   7.461  10.807
 3612SOL     OW12732   4.320   4.424  10.124
 3612SOL    HW112733   4.324   4.373  10.204
 3612SOL    HW212734   4.256   4.492  10.142
 3613SOL     OW12735   1.316   1.926  13.117
 3613SOL    HW112736   1.393   1.935  13.061
 3613SOL    HW212737   1.343   1.865  13.186
 3614SOL     OW12738   1.317  13.206   4.299
 3614SOL    HW112739   1.235  13.184   4.343
 3614SOL    HW212740   1.291  13.266   4.229
 3615SOL     OW12741   4.388   9.543  13.183
 3615SOL    HW112742   4.476   9.560  13.151
 3615SOL    HW212743   4.400   9.488  13.260
 3616SOL     OW12744   2.160   1.625   3.284
 3616SOL    HW112745   2.186   1.637   3.193
 3616SOL    HW212746   2.243   1.629   3.332
 3617SOL     OW12747   0.536   3.120   7.974
 3617SOL    HW112748   0.465   3.153   8.029
 3617SOL    HW212749   0.596   3.194   7.963
 3618SOL     OW12750   0.118   6.158  11.832
 3618SOL    HW112751   0.168   6.077  11.825
 3618SOL    HW212752   0.041   6.144  11.777
 3619SOL     OW12753  11.820   6.741   3.117
 3619SOL    HW112754  11.786   6.782   3.196
 3619SOL    HW212755  11.913   6.764   3.117
 3620SOL     OW12756   0.820   2.362   6.250
 3620SOL    HW112757   0.823   2.454   6.277
 3620SOL    HW212758   0.900   2.350   6.198
 3621SOL     OW12759   0.610  10.151  11.606
 3621SOL    HW112760   0.614  10.153  11.702
 3621SOL    HW212761   0.691  10.194  11.578
 3622SOL     OW12762   4.559   0.503   5.842
 3622SOL    HW112763   4.507   0.439   5.794
 3622SOL    HW212764   4.649   0.473   5.833
 3623SOL     OW12765  11.025   0.340   1.971
 3623SOL    HW112766  11.043   0.426   2.010
 3623SOL    HW212767  11.100   0.286   1.995
 3624SOL     OW12768   5.679   3.739  12.331
 3624SOL    HW112769   5.683   3.826  12.292
 3624SOL    HW212770   5.768   3.722  12.361
 3625SOL     OW12771   6.167  13.195   0.442
 3625SOL    HW112772   6.240  13.194   0.504
 3625SOL    HW212773   6.089  13.203   0.496
 3626SOL     OW12774   2.801   7.462  13.740
 3626SOL    HW112775   2.824   7.448  13.648
 3626SOL    HW212776   2.844   7.390  13.787
 3627SOL     OW12777   4.501  11.772   3.294
 3627SOL    HW112778   4.458  11.701   3.342
 3627SOL    HW212779   4.594  11.763   3.316
 3628SOL     OW12780   9.947   2.312  14.487
 3628SOL    HW112781   9.921   2.395  14.528
 3628SOL    HW212782   9.925   2.246  14.552
 3629SOL     OW12783   5.674   1.132  12.215
 3629SOL    HW112784   5.746   1.112  12.155
 3629SOL    HW212785   5.622   1.052  12.217
 3630SOL     OW12786  13.018   3.350   1.126
 3630SOL    HW112787  13.097   3.331   1.175
 3630SOL    HW212788  12.979   3.426   1.170
 3631SOL     OW12789   5.589  14.599   7.275
 3631SOL    HW112790   5.570  14.653   7.198
 3631SOL    HW212791   5.518  14.534   7.277
 3632SOL     OW12792   8.823  13.039   1.588
 3632SOL    HW112793   8.738  13.006   1.557
 3632SOL    HW212794   8.849  13.104   1.522
 3633SOL     OW12795   2.557   8.846  12.770
 3633SOL    HW112796   2.570   8.753  12.755
 3633SOL    HW212797   2.490   8.873  12.707
 3634SOL     OW12798   6.000   6.935  13.520
 3634SOL    HW112799   6.012   6.991  13.444
 3634SOL    HW212800   5.910   6.903  13.513
 3635SOL     OW12801   9.996   8.427   3.743
 3635SOL    HW112802  10.087   8.408   3.766
 3635SOL    HW212803   9.945   8.385   3.812
 3636SOL     OW12804  14.228   2.037   7.302
 3636SOL    HW112805  14.187   2.078   7.379
 3636SOL    HW212806  14.197   1.947   7.303
 3637SOL     OW12807   7.273   3.208   1.691
 3637SOL    HW112808   7.193   3.257   1.713
 3637SOL    HW212809   7.344   3.271   1.705
 3638SOL     OW12810   0.721   7.646  14.280
 3638SOL    HW112811   0.738   7.649  14.186
 3638SOL    HW212812   0.626   7.647  14.288
 3639SOL     OW12813   7.512  12.210   6.519
 3639SOL    HW112814   7.487  12.138   6.577
 3639SOL    HW212815   7.594  12.244   6.556
 3640SOL     OW12816   7.273  14.393   2.310
 3640SOL    HW112817   7.285  14.457   2.241
 3640SOL    HW212818   7.310  14.435   2.388
 3641SOL     OW12819   1.665   8.520  11.271
 3641SOL    HW112820   1.581   8.533  11.227
 3641SOL    HW212821   1.691   8.431  11.249
 3642SOL     OW12822  14.868   6.173   0.437
 3642SOL    HW112823  14.840   6.184   0.528
 3642SOL    HW212824   0.067   6.105   0.440
 3643SOL     OW12825  11.171  10.009   0.555
 3643SOL    HW112826  11.151  10.026   0.463
 3643SOL    HW212827  11.095   9.960   0.586
 3644SOL     OW12828  13.285  12.520  11.596
 3644SOL    HW112829  13.338  12.473  11.660
 3644SOL    HW212830  13.239  12.587  11.647
 3645SOL     OW12831   4.271   3.406   2.105
 3645SOL    HW112832   4.299   3.477   2.047
 3645SOL    HW212833   4.214   3.448   2.170
 3646SOL     OW12834   0.104  12.292   5.905
 3646SOL    HW112835   0.050  12.279   5.983
 3646SOL    HW212836   0.112  12.387   5.897
 3647SOL     OW12837   8.314  12.549   0.109
 3647SOL    HW112838   8.234  12.589   0.075
 3647SOL    HW212839   8.284  12.472   0.157
 3648SOL     OW12840   7.929  11.035   4.571
 3648SOL    HW112841   7.862  11.094   4.604
 3648SOL    HW212842   8.003  11.046   4.630
 3649SOL     OW12843   3.694   0.087   3.754
 3649SOL    HW112844   3.760   0.057   3.692
 3649SOL    HW212845   3.729   0.062   3.840
 3650SOL     OW12846  12.367   4.162   0.554
 3650SOL    HW112847  12.443   4.197   0.600
 3650SOL    HW212848  12.397   4.079   0.518
 3651SOL     OW12849   0.956   5.151  11.728
 3651SOL    HW112850   1.019   5.085  11.699
 3651SOL    HW212851   0.985   5.232  11.686
 3652SOL     OW12852  11.172  12.879   5.860
 3652SOL    HW112853  11.195  12.790   5.888
 3652SOL    HW212854  11.234  12.936   5.905
 3653SOL     OW12855   3.781  14.779  14.239
 3653SOL    HW112856   3.790  14.762  14.333
 3653SOL    HW212857   3.773  14.693  14.199
 3654SOL     OW12858  11.173  13.664  10.193
 3654SOL    HW112859  11.089  13.655  10.238
 3654SOL    HW212860  11.234  13.693  10.261
 3655SOL     OW12861   6.832   7.344   3.469
 3655SOL    HW112862   6.748   7.365   3.427
 3655SOL    HW212863   6.868   7.428   3.494
 3656SOL     OW12864   9.162   5.477   2.648
 3656SOL    HW112865   9.070   5.481   2.622
 3656SOL    HW212866   9.180   5.563   2.686
 3657SOL     OW12867   3.019  11.963  10.496
 3657SOL    HW112868   3.065  11.883  10.522
 3657SOL    HW212869   3.017  11.959  10.400
 3658SOL     OW12870   6.976   5.150  12.817
 3658SOL    HW112871   7.054   5.196  12.788
 3658SOL    HW212872   6.982   5.063  12.778
 3659SOL     OW12873  12.466   2.821   6.665
 3659SOL    HW112874  12.390   2.785   6.712
 3659SOL    HW212875  12.430   2.889   6.608
 3660SOL     OW12876  11.127   2.954   2.727
 3660SOL    HW112877  11.212   2.947   2.684
 3660SOL    HW212878  11.107   2.865   2.756
 3661SOL     OW12879  11.972  10.275   4.870
 3661SOL    HW112880  12.028  10.222   4.927
 3661SOL    HW212881  12.032  10.314   4.806
 3662SOL     OW12882   1.162   7.684   8.706
 3662SOL    HW112883   1.073   7.703   8.675
 3662SOL    HW212884   1.149   7.621   8.777
 3663SOL     OW12885   9.133   6.980   6.277
 3663SOL    HW112886   9.218   6.973   6.319
 3663SOL    HW212887   9.070   6.955   6.346
 3664SOL     OW12888  10.853  10.060   3.518
 3664SOL    HW112889  10.891  10.004   3.450
 3664SOL    HW212890  10.919  10.126   3.534
 3665SOL     OW12891   9.108   9.822  10.237
 3665SOL    HW112892   9.180   9.792  10.181
 3665SOL    HW212893   9.043   9.857  10.176
 3666SOL     OW12894  11.311   8.667   7.396
 3666SOL    HW112895  11.263   8.622   7.465
 3666SOL    HW212896  11.246   8.687   7.329
 3667SOL     OW12897   5.067   8.866   7.685
 3667SOL    HW112898   5.034   8.925   7.617
 3667SOL    HW212899   5.059   8.779   7.647
 3668SOL     OW12900  10.087   8.588  14.341
 3668SOL    HW112901  10.000   8.598  14.301
 3668SOL    HW212902  10.106   8.675  14.377
 3669SOL     OW12903  12.996   4.356   6.709
 3669SOL    HW112904  13.072   4.330   6.762
 3669SOL    HW212905  13.024   4.436   6.665
 3670SOL     OW12906   7.360   0.042   0.254
 3670SOL    HW112907   7.426  14.860   0.302
 3670SOL    HW212908   7.317   0.095   0.322
 3671SOL     OW12909   8.482   5.028  12.166
 3671SOL    HW112910   8.538   4.984  12.102
 3671SOL    HW212911   8.485   5.120  12.141
 3672SOL     OW12912   5.158   2.667   6.768
 3672SOL    HW112913   5.252   2.656   6.756
 3672SOL    HW212914   5.133   2.733   6.703
 3673SOL     OW12915   3.712   5.393  12.723
 3673SOL    HW112916   3.710   5.386  12.819
 3673SOL    HW212917   3.685   5.306  12.693
 3674SOL     OW12918   5.124   6.397   8.932
 3674SOL    HW112919   5.065   6.421   8.861
 3674SOL    HW212920   5.097   6.308   8.957
 3675SOL     OW12921  14.204   0.350   0.281
 3675SOL    HW112922  14.119   0.394   0.291
 3675SOL    HW212923  14.256   0.410   0.228
 3676SOL     OW12924   5.944  13.298   6.350
 3676SOL    HW112925   5.857  13.293   6.391
 3676SOL    HW212926   5.925  13.290   6.256
 3677SOL     OW12927   3.071  12.473  13.495
 3677SOL    HW112928   3.090  12.500  13.585
 3677SOL    HW212929   3.066  12.556  13.446
 3678SOL     OW12930   6.406   8.369  11.513
 3678SOL    HW112931   6.364   8.286  11.535
 3678SOL    HW212932   6.349   8.408  11.446
 3679SOL     OW12933   8.005   6.545   7.802
 3679SOL    HW112934   7.925   6.557   7.853
 3679SOL    HW212935   8.034   6.633   7.780
 3680SOL     OW12936   9.688   5.329  13.021
 3680SOL    HW112937   9.607   5.281  13.004
 3680SOL    HW212938   9.716   5.360  12.934
 3681SOL     OW12939   2.040  12.177   0.769
 3681SOL    HW112940   2.121  12.180   0.820
 3681SOL    HW212941   2.052  12.105   0.707
 3682SOL     OW12942   8.315   7.753   1.256
 3682SOL    HW112943   8.349   7.728   1.342
 3682SOL    HW212944   8.390   7.746   1.197
 3683SOL     OW12945   5.510   8.512  12.978
 3683SOL    HW112946   5.427   8.467  12.993
 3683SOL    HW212947   5.576   8.455  13.017
 3684SOL     OW12948   6.643   3.197  14.587
 3684SOL    HW112949   6.663   3.291  14.597
 3684SOL    HW212950   6.623   3.187  14.494
 3685SOL     OW12951   9.717   1.817  10.556
 3685SOL    HW112952   9.796   1.867  10.533
 3685SOL    HW212953   9.671   1.873  10.618
 3686SOL     OW12954   2.334   8.853   1.687
 3686SOL    HW112955   2.379   8.907   1.622
 3686SOL    HW212956   2.384   8.772   1.690
 3687SOL     OW12957   6.728  12.104   1.258
 3687SOL    HW112958   6.662  12.116   1.190
 3687SOL    HW212959   6.752  12.193   1.283
 3688SOL     OW12960   7.358  10.234  10.359
 3688SOL    HW112961   7.266  10.247  10.380
 3688SOL    HW212962   7.381  10.309  10.305
 3689SOL     OW12963   5.419  12.333   6.962
 3689SOL    HW112964   5.384  12.296   6.881
 3689SOL    HW212965   5.461  12.415   6.935
 3690SOL     OW12966   8.073   8.632   7.821
 3690SOL    HW112967   8.144   8.597   7.767
 3690SOL    HW212968   8.049   8.715   7.780
 3691SOL     OW12969   7.587   2.622   7.382
 3691SOL    HW112970   7.620   2.536   7.407
 3691SOL    HW212971   7.535   2.651   7.457
 3692SOL     OW12972   5.390   2.811  13.016
 3692SOL    HW112973   5.330   2.879  12.986
 3692SOL    HW212974   5.360   2.732  12.973
 3693SOL     OW12975  13.255   5.156   1.180
 3693SOL    HW112976  13.238   5.231   1.237
 3693SOL    HW212977  13.335   5.181   1.132
 3694SOL     OW12978   7.952   0.883   6.776
 3694SOL    HW112979   7.879   0.942   6.793
 3694SOL    HW212980   7.915   0.812   6.723
 3695SOL     OW12981   1.776   8.537   7.337
 3695SOL    HW112982   1.789   8.582   7.253
 3695SOL    HW212983   1.694   8.573   7.371
 3696SOL     OW12984   3.745   7.518   6.035
 3696SOL    HW112985   3.742   7.478   5.948
 3696SOL    HW212986   3.835   7.549   6.045
 3697SOL     OW12987   6.079  13.388  13.585
 3697SOL    HW112988   6.075  13.430  13.499
 3697SOL    HW212989   6.094  13.295  13.565
 3698SOL     OW12990  10.972  12.969   7.429
 3698SOL    HW112991  11.045  13.031   7.427
 3698SOL    HW212992  10.901  13.015   7.384
 3699SOL     OW12993   0.505   7.257  11.321
 3699SOL    HW112994   0.432   7.290  11.267
 3699SOL    HW212995   0.518   7.167  11.292
 3700SOL     OW12996   7.814   4.753   3.928
 3700SOL    HW112997   7.828   4.818   3.997
 3700SOL    HW212998   7.830   4.669   3.971
 3701SOL     OW12999  14.264   5.966  10.607
 3701SOL    HW113000  14.227   5.994  10.691
 3701SOL    HW213001  14.299   6.046  10.568
 3702SOL     OW13002   3.961  12.199   7.983
 3702SOL    HW113003   4.022  12.248   8.037
 3702SOL    HW213004   3.875  12.216   8.022
 3703SOL     OW13005   6.130   2.300   1.590
 3703SOL    HW113006   6.170   2.273   1.672
 3703SOL    HW213007   6.195   2.277   1.523
 3704SOL     OW13008   8.552   5.388   0.039
 3704SOL    HW113009   8.461   5.367   0.062
 3704SOL    HW213010   8.544   5.462  14.847
 3705SOL     OW13011   0.849   9.112  12.466
 3705SOL    HW113012   0.899   9.062  12.401
 3705SOL    HW213013   0.818   9.189  12.418
 3706SOL     OW13014   4.505   4.587   1.491
 3706SOL    HW113015   4.472   4.513   1.439
 3706SOL    HW213016   4.492   4.663   1.434
 3707SOL     OW13017   7.577   9.903  13.590
 3707SOL    HW113018   7.624   9.867  13.665
 3707SOL    HW213019   7.568   9.829  13.530
 3708SOL     OW13020   1.738  13.947  11.275
 3708SOL    HW113021   1.829  13.937  11.247
 3708SOL    HW213022   1.714  13.861  11.309
 3709SOL     OW13023   4.797   6.802   2.652
 3709SOL    HW113024   4.868   6.742   2.673
 3709SOL    HW213025   4.831   6.856   2.581
 3710SOL     OW13026   2.535   0.984   8.953
 3710SOL    HW113027   2.559   0.891   8.958
 3710SOL    HW213028   2.530   1.012   9.044
 3711SOL     OW13029   3.565   5.902  10.124
 3711SOL    HW113030   3.656   5.880  10.141
 3711SOL    HW213031   3.536   5.949  10.202
 3712SOL     OW13032   1.810  11.758   7.402
 3712SOL    HW113033   1.822  11.853   7.404
 3712SOL    HW213034   1.775  11.736   7.488
 3713SOL     OW13035   4.516   7.916  12.264
 3713SOL    HW113036   4.432   7.872  12.249
 3713SOL    HW213037   4.581   7.858  12.226
 3714SOL     OW13038   5.623   0.355   4.778
 3714SOL    HW113039   5.705   0.369   4.731
 3714SOL    HW213040   5.650   0.335   4.868
 3715SOL     OW13041   2.254   0.055   8.970
 3715SOL    HW113042   2.241   0.142   8.933
 3715SOL    HW213043   2.213  14.863   8.907
 3716SOL     OW13044   2.371  14.200   1.985
 3716SOL    HW113045   2.342  14.161   1.902
 3716SOL    HW213046   2.348  14.292   1.978
 3717SOL     OW13047   7.185  13.255   4.989
 3717SOL    HW113048   7.258  13.284   5.043
 3717SOL    HW213049   7.204  13.163   4.971
 3718SOL     OW13050   3.474   5.130  14.112
 3718SOL    HW113051   3.464   5.223  14.091
 3718SOL    HW213052   3.568   5.118  14.122
 3719SOL     OW13053  13.375   2.679   3.212
 3719SOL    HW113054  13.394   2.585   3.219
 3719SOL    HW213055  13.283   2.682   3.187
 3720SOL     OW13056  13.177  13.234   6.773
 3720SOL    HW113057  13.171  13.278   6.689
 3720SOL    HW213058  13.263  13.257   6.807
 3721SOL     OW13059   0.839   0.373  12.108
 3721SOL    HW113060   0.846   0.395  12.015
 3721SOL    HW213061   0.821   0.457  12.150
 3722SOL     OW13062   7.310   1.320   0.292
 3722SOL    HW113063   7.309   1.238   0.341
 3722SOL    HW213064   7.235   1.314   0.234
 3723SOL     OW13065   1.670   9.753   3.802
 3723SOL    HW113066   1.667   9.815   3.729
 3723SOL    HW213067   1.686   9.668   3.761
 3724SOL     OW13068   9.255  12.090   8.946
 3724SOL    HW113069   9.185  12.057   8.889
 3724SOL    HW213070   9.289  12.011   8.989
 3725SOL     OW13071  12.249   6.921   5.580
 3725SOL    HW113072  12.322   6.959   5.531
 3725SOL    HW213073  12.261   6.954   5.669
 3726SOL     OW13074  14.356   0.056   2.409
 3726SOL    HW113075  14.419   0.084   2.477
 3726SOL    HW213076  14.297   0.130   2.400
 3727SOL     OW13077   0.904   5.943   9.608
 3727SOL    HW113078   0.977   5.982   9.560
 3727SOL    HW213079   0.832   5.939   9.544
 3728SOL     OW13080   3.302  12.381   2.735
 3728SOL    HW113081   3.268  12.301   2.775
 3728SOL    HW213082   3.224  12.424   2.699
 3729SOL     OW13083   3.729   3.759   2.195
 3729SOL    HW113084   3.693   3.686   2.245
 3729SOL    HW213085   3.683   3.757   2.112
 3730SOL     OW13086   1.706   2.767  13.674
 3730SOL    HW113087   1.750   2.774  13.759
 3730SOL    HW213088   1.722   2.677  13.646
 3731SOL     OW13089   9.629   0.744   3.800
 3731SOL    HW113090   9.593   0.665   3.841
 3731SOL    HW213091   9.673   0.711   3.721
 3732SOL     OW13092  10.638   9.028  13.169
 3732SOL    HW113093  10.602   8.939  13.169
 3732SOL    HW213094  10.730   9.016  13.193
 3733SOL     OW13095  11.195  10.506   3.613
 3733SOL    HW113096  11.136  10.541   3.680
 3733SOL    HW213097  11.229  10.583   3.568
 3734SOL     OW13098  10.975   6.197  13.652
 3734SOL    HW113099  11.039   6.172  13.719
 3734SOL    HW213100  10.952   6.114  13.609
 3735SOL     OW13101   4.662   5.498   7.525
 3735SOL    HW113102   4.723   5.522   7.595
 3735SOL    HW213103   4.713   5.506   7.445
 3736SOL     OW13104  12.274   2.579  11.049
 3736SOL    HW113105  12.341   2.646  11.036
 3736SOL    HW213106  12.319   2.497  11.028
 3737SOL     OW13107   5.933   0.787   0.878
 3737SOL    HW113108   5.981   0.705   0.869
 3737SOL    HW213109   5.910   0.793   0.970
 3738SOL     OW13110   2.603  13.025   6.120
 3738SOL    HW113111   2.577  12.992   6.034
 3738SOL    HW213112   2.697  13.006   6.126
 3739SOL     OW13113   9.059  11.201  14.842
 3739SOL    HW113114   9.103  11.182  14.759
 3739SOL    HW213115   9.027  11.116   0.005
 3740SOL     OW13116   9.238  10.845   2.204
 3740SOL    HW113117   9.234  10.936   2.173
 3740SOL    HW213118   9.332  10.829   2.219
 3741SOL     OW13119   7.083   8.234   3.128
 3741SOL    HW113120   7.083   8.326   3.151
 3741SOL    HW213121   7.003   8.222   3.077
 3742SOL     OW13122   2.919   0.502   3.169
 3742SOL    HW113123   2.938   0.552   3.247
 3742SOL    HW213124   2.958   0.552   3.097
 3743SOL     OW13125  13.268   6.893  10.777
 3743SOL    HW113126  13.273   6.939  10.693
 3743SOL    HW213127  13.338   6.828  10.772
 3744SOL     OW13128  14.586  12.230  13.075
 3744SOL    HW113129  14.589  12.135  13.061
 3744SOL    HW213130  14.654  12.264  13.016
 3745SOL     OW13131   7.393   9.452  13.291
 3745SOL    HW113132   7.331   9.503  13.238
 3745SOL    HW213133   7.469   9.510  13.301
 3746SOL     OW13134  14.040  11.444   7.698
 3746SOL    HW113135  14.053  11.529   7.655
 3746SOL    HW213136  14.124  11.399   7.689
 3747SOL     OW13137   4.904   3.922   2.706
 3747SOL    HW113138   4.878   4.013   2.695
 3747SOL    HW213139   4.866   3.877   2.630
 3748SOL     OW13140   7.903   0.104   6.749
 3748SOL    HW113141   7.870   0.168   6.686
 3748SOL    HW213142   7.994   0.090   6.723
 3749SOL     OW13143  13.923   2.581  13.372
 3749SOL    HW113144  13.834   2.551  13.353
 3749SOL    HW213145  13.924   2.672  13.343
 3750SOL     OW13146   2.012  10.856  14.826
 3750SOL    HW113147   2.076  10.879   0.025
 3750SOL    HW213148   2.064  10.839  14.747
 3751SOL     OW13149  14.206  14.222   3.599
 3751SOL    HW113150  14.188  14.314   3.579
 3751SOL    HW213151  14.153  14.173   3.536
 3752SOL     OW13152   5.034   9.997   7.384
 3752SOL    HW113153   5.083   9.934   7.333
 3752SOL    HW213154   5.068  10.082   7.357
 3753SOL     OW13155   8.933   7.055   0.082
 3753SOL    HW113156   8.976   7.087   0.003
 3753SOL    HW213157   8.977   6.973   0.102
 3754SOL     OW13158   2.896  11.455   6.242
 3754SOL    HW113159   2.891  11.537   6.194
 3754SOL    HW213160   2.989  11.446   6.265
 3755SOL     OW13161  13.471   1.611   3.889
 3755SOL    HW113162  13.398   1.554   3.912
 3755SOL    HW213163  13.546   1.576   3.937
 3756SOL     OW13164   9.225  14.673  12.075
 3756SOL    HW113165   9.244  14.733  12.002
 3756SOL    HW213166   9.300  14.684  12.134
 3757SOL     OW13167   6.087  13.365   8.332
 3757SOL    HW113168   6.031  13.400   8.262
 3757SOL    HW213169   6.158  13.428   8.341
 3758SOL     OW13170  10.092   4.271   7.425
 3758SOL    HW113171  10.073   4.354   7.381
 3758SOL    HW213172  10.131   4.216   7.357
 3759SOL     OW13173  14.323  12.766  10.923
 3759SOL    HW113174  14.253  12.824  10.893
 3759SOL    HW213175  14.282  12.679  10.927
 3760SOL     OW13176   6.432   7.052  12.082
 3760SOL    HW113177   6.451   7.020  11.993
 3760SOL    HW213178   6.361   6.995  12.112
 3761SOL     OW13179   8.867   8.905   5.744
 3761SOL    HW113180   8.948   8.896   5.795
 3761SOL    HW213181   8.896   8.896   5.653
 3762SOL     OW13182   7.370   7.251   4.610
 3762SOL    HW113183   7.285   7.249   4.566
 3762SOL    HW213184   7.414   7.172   4.580
 3763SOL     OW13185   1.025  13.181   0.863
 3763SOL    HW113186   0.967  13.257   0.856
 3763SOL    HW213187   1.042  13.155   0.773
 3764SOL     OW13188  10.406   0.220   5.355
 3764SOL    HW113189  10.395   0.125   5.361
 3764SOL    HW213190  10.490   0.231   5.310
 3765SOL     OW13191   8.955  10.431   0.831
 3765SOL    HW113192   9.003  10.411   0.750
 3765SOL    HW213193   9.023  10.435   0.899
 3766SOL     OW13194   4.144   5.156   0.560
 3766SOL    HW113195   4.104   5.198   0.484
 3766SOL    HW213196   4.116   5.065   0.554
 3767SOL     OW13197   0.769  10.711   5.710
 3767SOL    HW113198   0.699  10.757   5.755
 3767SOL    HW213199   0.779  10.757   5.626
 3768SOL     OW13200   8.279  10.278   6.903
 3768SOL    HW113201   8.267  10.337   6.978
 3768SOL    HW213202   8.277  10.190   6.941
 3769SOL     OW13203   3.257   9.161   6.390
 3769SOL    HW113204   3.262   9.177   6.296
 3769SOL    HW213205   3.329   9.101   6.408
 3770SOL     OW13206   5.300   2.579  11.829
 3770SOL    HW113207   5.228   2.622  11.782
 3770SOL    HW213208   5.329   2.644  11.893
 3771SOL     OW13209   3.675  14.169  14.207
 3771SOL    HW113210   3.762  14.181  14.170
 3771SOL    HW213211   3.689  14.166  14.302
 3772SOL     OW13212  13.182  11.500  12.330
 3772SOL    HW113213  13.142  11.454  12.257
 3772SOL    HW213214  13.156  11.591  12.319
 3773SOL     OW13215  11.970   4.732  11.224
 3773SOL    HW113216  11.964   4.753  11.130
 3773SOL    HW213217  11.932   4.644  11.230
 3774SOL     OW13218  12.876  13.472   8.445
 3774SOL    HW113219  12.824  13.484   8.524
 3774SOL    HW213220  12.960  13.439   8.476
 3775SOL     OW13221   2.953   8.730   4.504
 3775SOL    HW113222   2.932   8.673   4.430
 3775SOL    HW213223   2.972   8.815   4.463
 3776SOL     OW13224   9.928   0.125   0.200
 3776SOL    HW113225   9.835   0.104   0.191
 3776SOL    HW213226   9.969   0.084   0.124
 3777SOL     OW13227   6.583  12.072  11.384
 3777SOL    HW113228   6.582  11.980  11.358
 3777SOL    HW213229   6.668  12.104  11.354
 3778SOL     OW13230   8.866   4.748   1.512
 3778SOL    HW113231   8.846   4.692   1.586
 3778SOL    HW213232   8.798   4.815   1.513
 3779SOL     OW13233  14.626   3.525   5.763
 3779SOL    HW113234  14.567   3.579   5.710
 3779SOL    HW213235  14.644   3.449   5.708
 3780SOL     OW13236   0.406   1.171  14.559
 3780SOL    HW113237   0.350   1.096  14.542
 3780SOL    HW213238   0.394   1.228  14.483
 3781SOL     OW13239   6.057   8.094   6.015
 3781SOL    HW113240   6.147   8.126   6.002
 3781SOL    HW213241   6.043   8.033   5.943
 3782SOL     OW13242  12.571   6.732  12.756
 3782SOL    HW113243  12.661   6.700  12.744
 3782SOL    HW213244  12.573   6.822  12.722
 3783SOL     OW13245   2.170  11.597  13.290
 3783SOL    HW113246   2.075  11.592  13.294
 3783SOL    HW213247   2.194  11.659  13.360
 3784SOL     OW13248  14.269   2.608  11.066
 3784SOL    HW113249  14.348   2.662  11.066
 3784SOL    HW213250  14.204   2.661  11.019
 3785SOL     OW13251   4.887   2.433   7.052
 3785SOL    HW113252   4.910   2.519   7.016
 3785SOL    HW213253   4.971   2.387   7.059
 3786SOL     OW13254   2.400  13.598   6.829
 3786SOL    HW113255   2.401  13.529   6.762
 3786SOL    HW213256   2.339  13.664   6.794
 3787SOL     OW13257   6.738   3.367  11.836
 3787SOL    HW113258   6.773   3.411  11.758
 3787SOL    HW213259   6.646   3.393  11.838
 3788SOL     OW13260  13.783   1.188   1.357
 3788SOL    HW113261  13.769   1.219   1.268
 3788SOL    HW213262  13.700   1.150   1.383
 3789SOL     OW13263   6.558   4.901   6.401
 3789SOL    HW113264   6.585   4.989   6.426
 3789SOL    HW213265   6.639   4.854   6.385
 3790SOL     OW13266  11.913   4.089   1.045
 3790SOL    HW113267  11.840   4.089   0.983
 3790SOL    HW213268  11.991   4.078   0.990
 3791SOL     OW13269   9.201   0.768   2.136
 3791SOL    HW113270   9.237   0.830   2.073
 3791SOL    HW213271   9.198   0.817   2.219
 3792SOL     OW13272  11.808   9.756   7.706
 3792SOL    HW113273  11.887   9.706   7.726
 3792SOL    HW213274  11.763   9.703   7.640
 3793SOL     OW13275   4.865   5.911  12.157
 3793SOL    HW113276   4.785   5.960  12.139
 3793SOL    HW213277   4.835   5.822  12.177
 3794SOL     OW13278   3.474   9.147  12.291
 3794SOL    HW113279   3.534   9.082  12.255
 3794SOL    HW213280   3.411   9.097  12.343
 3795SOL     OW13281   8.942   8.537   2.318
 3795SOL    HW113282   8.890   8.614   2.293
 3795SOL    HW213283   8.877   8.470   2.341
 3796SOL     OW13284   3.298   8.087   2.912
 3796SOL    HW113285   3.347   8.140   2.976
 3796SOL    HW213286   3.209   8.086   2.946
 3797SOL     OW13287   9.702   8.666  11.076
 3797SOL    HW113288   9.664   8.608  11.010
 3797SOL    HW213289   9.781   8.621  11.106
 3798SOL     OW13290   9.529   8.583   1.804
 3798SOL    HW113291   9.458   8.526   1.834
 3798SOL    HW213292   9.501   8.671   1.826
 3799SOL     OW13293   4.992  11.916   0.894
 3799SOL    HW113294   4.984  11.927   0.989
 3799SOL    HW213295   4.959  11.828   0.877
 3800SOL     OW13296  13.139   8.945  10.368
 3800SOL    HW113297  13.120   8.976  10.456
 3800SOL    HW213298  13.190   8.865  10.381
 3801SOL     OW13299   4.996   3.613  11.825
 3801SOL    HW113300   4.946   3.533  11.811
 3801SOL    HW213301   4.999   3.655  11.739
 3802SOL     OW13302   8.257   9.279   5.362
 3802SOL    HW113303   8.276   9.320   5.278
 3802SOL    HW213304   8.265   9.350   5.426
 3803SOL     OW13305  11.867   0.441   4.994
 3803SOL    HW113306  11.954   0.417   4.961
 3803SOL    HW213307  11.834   0.504   4.931
 3804SOL     OW13308   3.148   2.671   8.998
 3804SOL    HW113309   3.171   2.723   8.922
 3804SOL    HW213310   3.229   2.665   9.049
 3805SOL     OW13311   9.919   8.287   3.966
 3805SOL    HW113312   9.972   8.212   3.994
 3805SOL    HW213313   9.888   8.326   4.048
 3806SOL     OW13314   9.752   9.300   7.370
 3806SOL    HW113315   9.755   9.384   7.415
 3806SOL    HW213316   9.765   9.235   7.439
 3807SOL     OW13317   6.636   3.020   9.894
 3807SOL    HW113318   6.656   3.058   9.979
 3807SOL    HW213319   6.540   3.025   9.887
 3808SOL     OW13320   9.970   1.650   9.760
 3808SOL    HW113321  10.016   1.659   9.842
 3808SOL    HW213322   9.879   1.632   9.785
 3809SOL     OW13323   6.267   3.172   1.065
 3809SOL    HW113324   6.295   3.190   1.154
 3809SOL    HW213325   6.194   3.112   1.074
 3810SOL     OW13326  10.486  14.596  14.743
 3810SOL    HW113327  10.569  14.613  14.699
 3810SOL    HW213328  10.499  14.511  14.785
 3811SOL     OW13329   3.394   7.616   4.986
 3811SOL    HW113330   3.380   7.702   5.025
 3811SOL    HW213331   3.488   7.603   4.989
 3812SOL     OW13332   7.230   3.988  12.445
 3812SOL    HW113333   7.320   4.010  12.420
 3812SOL    HW213334   7.176   4.055  12.403
 3813SOL     OW13335  11.023   9.702   6.253
 3813SOL    HW113336  10.946   9.720   6.200
 3813SOL    HW213337  11.089   9.763   6.221
 3814SOL     OW13338   4.176   4.233   7.374
 3814SOL    HW113339   4.253   4.206   7.325
 3814SOL    HW213340   4.158   4.322   7.344
 3815SOL     OW13341   4.743   0.680  11.064
 3815SOL    HW113342   4.742   0.721  11.151
 3815SOL    HW213343   4.808   0.610  11.071
 3816SOL     OW13344   0.486   5.870   6.472
 3816SOL    HW113345   0.561   5.919   6.438
 3816SOL    HW213346   0.492   5.882   6.567
 3817SOL     OW13347   6.062   6.358   5.598
 3817SOL    HW113348   6.022   6.381   5.514
 3817SOL    HW213349   6.155   6.373   5.584
 3818SOL     OW13350   5.659   6.909   3.936
 3818SOL    HW113351   5.661   6.863   3.852
 3818SOL    HW213352   5.570   6.894   3.969
 3819SOL     OW13353  13.768   6.558   0.663
 3819SOL    HW113354  13.806   6.575   0.749
 3819SOL    HW213355  13.710   6.483   0.676
 3820SOL     OW13356   8.839  14.723   9.162
 3820SOL    HW113357   8.890  14.702   9.239
 3820SOL    HW213358   8.766  14.776   9.195
 3821SOL     OW13359   8.728  12.880   4.189
 3821SOL    HW113360   8.690  12.964   4.211
 3821SOL    HW213361   8.654  12.826   4.163
 3822SOL     OW13362   8.971   8.256   0.482
 3822SOL    HW113363   9.048   8.311   0.498
 3822SOL    HW213364   8.916   8.308   0.423
 3823SOL     OW13365  11.553  10.065   5.540
 3823SOL    HW113366  11.594  10.107   5.465
 3823SOL    HW213367  11.588  10.112   5.616
 3824SOL     OW13368   6.105   2.564   4.406
 3824SOL    HW113369   6.146   2.566   4.492
 3824SOL    HW213370   6.091   2.471   4.389
 3825SOL     OW13371  11.492  11.354   3.953
 3825SOL    HW113372  11.451  11.420   4.008
 3825SOL    HW213373  11.451  11.364   3.868
 3826SOL     OW13374  12.077  13.938   4.007
 3826SOL    HW113375  12.036  14.024   4.012
 3826SOL    HW213376  12.152  13.943   4.066
 3827SOL     OW13377   3.258   2.916   1.477
 3827SOL    HW113378   3.164   2.902   1.469
 3827SOL    HW213379   3.273   3.001   1.436
 3828SOL     OW13380  12.685  13.106   6.128
 3828SOL    HW113381  12.744  13.162   6.078
 3828SOL    HW213382  12.689  13.021   6.084
 3829SOL     OW13383  14.844   9.835  11.073
 3829SOL    HW113384   0.017   9.908  11.119
 3829SOL    HW213385  14.753   9.861  11.063
 3830SOL     OW13386   4.659   2.672   3.501
 3830SOL    HW113387   4.714   2.728   3.556
 3830SOL    HW213388   4.704   2.673   3.416
 3831SOL     OW13389  13.777   1.149   7.692
 3831SOL    HW113390  13.840   1.116   7.628
 3831SOL    HW213391  13.717   1.203   7.641
 3832SOL     OW13392   9.334   6.744   6.820
 3832SOL    HW113393   9.396   6.809   6.852
 3832SOL    HW213394   9.364   6.661   6.858
 3833SOL     OW13395   6.042   3.760   5.165
 3833SOL    HW113396   6.098   3.833   5.139
 3833SOL    HW213397   6.098   3.705   5.220
 3834SOL     OW13398  13.197   0.546   6.541
 3834SOL    HW113399  13.146   0.558   6.461
 3834SOL    HW213400  13.132   0.545   6.611
 3835SOL     OW13401   2.443   8.090   3.259
 3835SOL    HW113402   2.447   8.168   3.205
 3835SOL    HW213403   2.526   8.044   3.243
 3836SOL     OW13404  11.286   4.517  10.921
 3836SOL    HW113405  11.278   4.467  11.002
 3836SOL    HW213406  11.356   4.474  10.872
 3837SOL     OW13407   6.653  12.330   3.431
 3837SOL    HW113408   6.645  12.395   3.361
 3837SOL    HW213409   6.736  12.351   3.474
 3838SOL     OW13410   1.999   0.212  10.383
 3838SOL    HW113411   1.977   0.240  10.471
 3838SOL    HW213412   1.951   0.272  10.326
 3839SOL     OW13413   3.290   2.843   8.856
 3839SOL    HW113414   3.385   2.847   8.863
 3839SOL    HW213415   3.258   2.904   8.922
 3840SOL     OW13416  11.227  14.296  14.426
 3840SOL    HW113417  11.257  14.316  14.337
 3840SOL    HW213418  11.292  14.338  14.483
 3841SOL     OW13419  10.371   1.203   9.163
 3841SOL    HW113420  10.455   1.179   9.122
 3841SOL    HW213421  10.380   1.295   9.185
 3842SOL     OW13422  13.865   2.941  10.688
 3842SOL    HW113423  13.957   2.913  10.691
 3842SOL    HW213424  13.816   2.862  10.711
 3843SOL     OW13425   6.794  12.291   6.074
 3843SOL    HW113426   6.742  12.236   6.133
 3843SOL    HW213427   6.808  12.372   6.124
 3844SOL     OW13428  10.029   0.697   7.334
 3844SOL    HW113429   9.972   0.679   7.260
 3844SOL    HW213430  10.016   0.623   7.393
 3845SOL     OW13431   4.838   6.668   9.750
 3845SOL    HW113432   4.923   6.626   9.764
 3845SOL    HW213433   4.778   6.595   9.733
 3846SOL     OW13434  12.312   5.798  10.652
 3846SOL    HW113435  12.380   5.866  10.651
 3846SOL    HW213436  12.337   5.740  10.724
 3847SOL     OW13437   8.475  10.947  10.776
 3847SOL    HW113438   8.462  11.038  10.804
 3847SOL    HW213439   8.402  10.899  10.814
 3848SOL     OW13440   5.603  14.430  12.250
 3848SOL    HW113441   5.600  14.521  12.220
 3848SOL    HW213442   5.678  14.392  12.203
 3849SOL     OW13443  14.142   3.206   9.946
 3849SOL    HW113444  14.145   3.153   9.867
 3849SOL    HW213445  14.133   3.296   9.915
 3850SOL     OW13446   7.472   8.923   0.531
 3850SOL    HW113447   7.448   8.959   0.617
 3850SOL    HW213448   7.449   8.831   0.537
 3851SOL     OW13449  14.244  10.155   3.194
 3851SOL    HW113450  14.306  10.088   3.166
 3851SOL    HW213451  14.239  10.144   3.289
 3852SOL     OW13452   2.357   9.778   6.758
 3852SOL    HW113453   2.291   9.774   6.828
 3852SOL    HW213454   2.308   9.809   6.682
 3853SOL     OW13455  10.655   5.478   1.005
 3853SOL    HW113456  10.560   5.483   0.990
 3853SOL    HW213457  10.666   5.405   1.065
 3854SOL     OW13458  12.105   5.030  11.067
 3854SOL    HW113459  12.174   4.976  11.105
 3854SOL    HW213460  12.036   4.968  11.045
 3855SOL     OW13461   4.775   2.504   2.765
 3855SOL    HW113462   4.825   2.521   2.685
 3855SOL    HW213463   4.841   2.495   2.834
 3856SOL     OW13464   6.556   7.136   6.535
 3856SOL    HW113465   6.527   7.169   6.620
 3856SOL    HW213466   6.536   7.206   6.473
 3857SOL     OW13467  11.066  14.713  11.469
 3857SOL    HW113468  11.157  14.684  11.458
 3857SOL    HW213469  11.056  14.783  11.405
 3858SOL     OW13470   5.750   0.603   5.497
 3858SOL    HW113471   5.815   0.645   5.441
 3858SOL    HW213472   5.787   0.609   5.586
 3859SOL     OW13473   3.803   5.598  11.984
 3859SOL    HW113474   3.799   5.679  12.035
 3859SOL    HW213475   3.815   5.627  11.893
 3860SOL     OW13476  13.765   1.685   3.136
 3860SOL    HW113477  13.779   1.650   3.223
 3860SOL    HW213478  13.697   1.629   3.098
 3861SOL     OW13479   3.757   9.765   8.196
 3861SOL    HW113480   3.687   9.703   8.176
 3861SOL    HW213481   3.837   9.721   8.168
 3862SOL     OW13482   7.197  13.430   5.919
 3862SOL    HW113483   7.170  13.457   6.007
 3862SOL    HW213484   7.136  13.360   5.896
 3863SOL     OW13485  13.438  11.334  10.073
 3863SOL    HW113486  13.464  11.302  10.159
 3863SOL    HW213487  13.454  11.260  10.014
 3864SOL     OW13488   5.177  11.949   6.651
 3864SOL    HW113489   5.195  11.967   6.744
 3864SOL    HW213490   5.144  11.859   6.651
 3865SOL     OW13491  11.297  11.799   8.342
 3865SOL    HW113492  11.301  11.790   8.438
 3865SOL    HW213493  11.262  11.716   8.312
 3866SOL     OW13494  11.157   2.387   4.231
 3866SOL    HW113495  11.192   2.322   4.292
 3866SOL    HW213496  11.082   2.425   4.277
 3867SOL     OW13497   3.578   7.763   2.316
 3867SOL    HW113498   3.534   7.754   2.231
 3867SOL    HW213499   3.577   7.857   2.334
 3868SOL     OW13500   6.625  12.505   6.827
 3868SOL    HW113501   6.632  12.518   6.922
 3868SOL    HW213502   6.702  12.548   6.791
 3869SOL     OW13503   0.043   6.334   9.032
 3869SOL    HW113504   0.005   6.321   8.945
 3869SOL    HW213505   0.092   6.254   9.049
 3870SOL     OW13506  11.192   8.084  13.504
 3870SOL    HW113507  11.275   8.063  13.546
 3870SOL    HW213508  11.134   8.108  13.575
 3871SOL     OW13509   0.321   1.760   0.987
 3871SOL    HW113510   0.240   1.808   1.003
 3871SOL    HW213511   0.390   1.825   0.999
 3872SOL     OW13512   9.495   9.888  12.387
 3872SOL    HW113513   9.562   9.926  12.330
 3872SOL    HW213514   9.447   9.964  12.422
 3873SOL     OW13515  10.779   2.180   6.675
 3873SOL    HW113516  10.852   2.228   6.636
 3873SOL    HW213517  10.743   2.240   6.740
 3874SOL     OW13518   3.241   4.150  12.296
 3874SOL    HW113519   3.315   4.092  12.279
 3874SOL    HW213520   3.193   4.153  12.213
 3875SOL     OW13521  11.302   7.160   8.074
 3875SOL    HW113522  11.277   7.155   8.166
 3875SOL    HW213523  11.341   7.075   8.054
 3876SOL     OW13524   4.859   1.167   7.736
 3876SOL    HW113525   4.881   1.254   7.771
 3876SOL    HW213526   4.815   1.123   7.808
 3877SOL     OW13527  10.451   1.482   7.649
 3877SOL    HW113528  10.426   1.574   7.642
 3877SOL    HW213529  10.467   1.469   7.743
 3878SOL     OW13530  12.949  14.240   9.025
 3878SOL    HW113531  12.974  14.151   9.004
 3878SOL    HW213532  12.914  14.276   8.943
 3879SOL     OW13533   1.261   5.851   2.522
 3879SOL    HW113534   1.233   5.777   2.468
 3879SOL    HW213535   1.348   5.873   2.488
 3880SOL     OW13536  10.456   8.649   0.204
 3880SOL    HW113537  10.529   8.640   0.142
 3880SOL    HW213538  10.450   8.743   0.219
 3881SOL     OW13539   2.447   0.352  10.482
 3881SOL    HW113540   2.408   0.394  10.405
 3881SOL    HW213541   2.384   0.367  10.553
 3882SOL     OW13542  13.721   0.884   2.762
 3882SOL    HW113543  13.648   0.824   2.747
 3882SOL    HW213544  13.728   0.890   2.857
 3883SOL     OW13545  13.989  14.799   6.702
 3883SOL    HW113546  13.905  14.786   6.745
 3883SOL    HW213547  14.051  14.817   6.773
 3884SOL     OW13548  10.285   8.458   0.233
 3884SOL    HW113549  10.358   8.520   0.226
 3884SOL    HW213550  10.301   8.410   0.314
 3885SOL     OW13551  12.309  14.154   2.849
 3885SOL    HW113552  12.250  14.084   2.874
 3885SOL    HW213553  12.294  14.167   2.755
 3886SOL     OW13554   1.991   3.605   3.804
 3886SOL    HW113555   1.906   3.587   3.844
 3886SOL    HW213556   2.055   3.583   3.872
 3887SOL     OW13557  14.561   0.570  11.194
 3887SOL    HW113558  14.482   0.566  11.141
 3887SOL    HW213559  14.622   0.509  11.152
 3888SOL     OW13560  13.468   5.475   4.682
 3888SOL    HW113561  13.483   5.396   4.733
 3888SOL    HW213562  13.553   5.519   4.680
 3889SOL     OW13563  10.748   4.776   4.845
 3889SOL    HW113564  10.805   4.793   4.919
 3889SOL    HW213565  10.690   4.706   4.874
 3890SOL     OW13566   3.227   6.993   2.345
 3890SOL    HW113567   3.250   6.914   2.295
 3890SOL    HW213568   3.141   6.973   2.383
 3891SOL     OW13569  14.596   2.000   9.800
 3891SOL    HW113570  14.505   2.026   9.810
 3891SOL    HW213571  14.610   1.998   9.705
 3892SOL     OW13572   1.725  11.087   2.213
 3892SOL    HW113573   1.755  11.163   2.265
 3892SOL    HW213574   1.788  11.082   2.141
 3893SOL     OW13575   1.184   4.127  13.973
 3893SOL    HW113576   1.181   4.122  14.068
 3893SOL    HW213577   1.128   4.056  13.943
 3894SOL     OW13578   8.569  14.470  12.369
 3894SOL    HW113579   8.647  14.466  12.425
 3894SOL    HW213580   8.507  14.409  12.410
 3895SOL     OW13581  11.642   7.222  13.768
 3895SOL    HW113582  11.626   7.306  13.811
 3895SOL    HW213583  11.624   7.156  13.836
 3896SOL     OW13584  10.740   2.859  14.092
 3896SOL    HW113585  10.815   2.883  14.146
 3896SOL    HW213586  10.757   2.901  14.007
 3897SOL     OW13587  10.535   4.329   8.590
 3897SOL    HW113588  10.561   4.309   8.680
 3897SOL    HW213589  10.451   4.374   8.599
 3898SOL     OW13590   0.347   5.303  11.485
 3898SOL    HW113591   0.399   5.278  11.408
 3898SOL    HW213592   0.260   5.266  11.469
 3899SOL     OW13593   9.511  11.021  12.490
 3899SOL    HW113594   9.528  11.052  12.401
 3899SOL    HW213595   9.565  11.077  12.545
 3900SOL     OW13596  12.597  12.949   3.845
 3900SOL    HW113597  12.611  12.861   3.811
 3900SOL    HW213598  12.515  12.943   3.894
 3901SOL     OW13599   1.764   6.615  11.676
 3901SOL    HW113600   1.681   6.653  11.706
 3901SOL    HW213601   1.757   6.522  11.699
 3902SOL     OW13602   6.654   0.454  10.919
 3902SOL    HW113603   6.617   0.395  10.853
 3902SOL    HW213604   6.677   0.533  10.871
 3903SOL     OW13605  10.605   1.314   8.908
 3903SOL    HW113606  10.661   1.298   8.832
 3903SOL    HW213607  10.572   1.403   8.896
 3904SOL     OW13608   3.977   3.542   0.607
 3904SOL    HW113609   3.946   3.463   0.652
 3904SOL    HW213610   3.901   3.575   0.560
 3905SOL     OW13611   8.026   3.301  14.153
 3905SOL    HW113612   7.966   3.241  14.109
 3905SOL    HW213613   8.038   3.373  14.090
 3906SOL     OW13614   8.421   6.221   5.429
 3906SOL    HW113615   8.326   6.212   5.416
 3906SOL    HW213616   8.430   6.304   5.476
 3907SOL     OW13617   8.313  10.680   9.533
 3907SOL    HW113618   8.267  10.601   9.505
 3907SOL    HW213619   8.246  10.734   9.575
 3908SOL     OW13620  10.164   7.999  12.782
 3908SOL    HW113621  10.225   8.073  12.777
 3908SOL    HW213622  10.122   8.009  12.867
 3909SOL     OW13623  12.906  12.533  11.316
 3909SOL    HW113624  12.999  12.512  11.314
 3909SOL    HW213625  12.872  12.484  11.391
 3910SOL     OW13626   8.532   9.954  10.519
 3910SOL    HW113627   8.581   9.930  10.598
 3910SOL    HW213628   8.461  10.010  10.551
 3911SOL     OW13629  14.356   9.658   5.698
 3911SOL    HW113630  14.316   9.745   5.709
 3911SOL    HW213631  14.408   9.666   5.619
 3912SOL     OW13632   2.098   9.375   2.937
 3912SOL    HW113633   2.187   9.409   2.934
 3912SOL    HW213634   2.066   9.401   3.024
 3913SOL     OW13635   2.410  14.018   2.789
 3913SOL    HW113636   2.372  14.022   2.876
 3913SOL    HW213637   2.417  13.925   2.769
 3914SOL     OW13638   9.710  10.237  11.945
 3914SOL    HW113639   9.749  10.250  11.859
 3914SOL    HW213640   9.784  10.224  12.004
 3915SOL     OW13641   1.691  12.179   7.211
 3915SOL    HW113642   1.683  12.250   7.148
 3915SOL    HW213643   1.783  12.152   7.206
 3916SOL     OW13644   0.833  10.014   2.627
 3916SOL    HW113645   0.830  10.048   2.716
 3916SOL    HW213646   0.864  10.087   2.574
 3917SOL     OW13647   3.535   8.177  11.157
 3917SOL    HW113648   3.502   8.222  11.235
 3917SOL    HW213649   3.569   8.094  11.190
 3918SOL     OW13650  11.511  11.460   8.941
 3918SOL    HW113651  11.577  11.438   9.007
 3918SOL    HW213652  11.561  11.481   8.862
 3919SOL     OW13653   4.962   3.348   6.168
 3919SOL    HW113654   5.037   3.314   6.119
 3919SOL    HW213655   4.997   3.369   6.255
 3920SOL     OW13656   9.272  13.690   5.582
 3920SOL    HW113657   9.203  13.643   5.535
 3920SOL    HW213658   9.294  13.763   5.525
 3921SOL     OW13659   1.661   1.889   1.205
 3921SOL    HW113660   1.720   1.962   1.226
 3921SOL    HW213661   1.641   1.899   1.112
 3922SOL     OW13662   7.203   7.814  10.246
 3922SOL    HW113663   7.263   7.882  10.277
 3922SOL    HW213664   7.220   7.808  10.152
 3923SOL     OW13665   8.385  11.683   6.124
 3923SOL    HW113666   8.451  11.667   6.192
 3923SOL    HW213667   8.401  11.616   6.058
 3924SOL     OW13668   5.716  12.094   8.546
 3924SOL    HW113669   5.638  12.045   8.518
 3924SOL    HW213670   5.686  12.145   8.621
 3925SOL     OW13671   5.483   4.279   8.341
 3925SOL    HW113672   5.411   4.226   8.307
 3925SOL    HW213673   5.466   4.367   8.306
 3926SOL     OW13674  12.893  14.663   2.040
 3926SOL    HW113675  12.872  14.692   1.951
 3926SOL    HW213676  12.898  14.744   2.091
 3927SOL     OW13677   0.187   5.984   4.264
 3927SOL    HW113678   0.194   5.890   4.281
 3927SOL    HW213679   0.155   6.021   4.346
 3928SOL     OW13680   5.439   4.647   1.183
 3928SOL    HW113681   5.436   4.700   1.103
 3928SOL    HW213682   5.360   4.671   1.231
 3929SOL     OW13683   0.825   6.411   6.977
 3929SOL    HW113684   0.780   6.343   7.027
 3929SOL    HW213685   0.897   6.366   6.934
 3930SOL     OW13686  13.496  13.293   1.552
 3930SOL    HW113687  13.465  13.217   1.602
 3930SOL    HW213688  13.576  13.320   1.598
 3931SOL     OW13689  10.134  11.275   6.223
 3931SOL    HW113690  10.174  11.323   6.150
 3931SOL    HW213691  10.147  11.183   6.201
 3932SOL     OW13692   9.909   6.346   6.854
 3932SOL    HW113693  10.000   6.318   6.844
 3932SOL    HW213694   9.868   6.277   6.906
 3933SOL     OW13695   5.523  14.301   5.936
 3933SOL    HW113696   5.612  14.322   5.908
 3933SOL    HW213697   5.466  14.347   5.874
 3934SOL     OW13698   3.939   1.760   5.145
 3934SOL    HW113699   3.979   1.685   5.190
 3934SOL    HW213700   3.903   1.723   5.065
 3935SOL     OW13701   2.855   2.314   8.279
 3935SOL    HW113702   2.839   2.360   8.197
 3935SOL    HW213703   2.935   2.263   8.263
 3936SOL     OW13704   6.688   6.466   4.349
 3936SOL    HW113705   6.707   6.554   4.315
 3936SOL    HW213706   6.612   6.479   4.406
 3937SOL     OW13707   8.162   3.078   3.448
 3937SOL    HW113708   8.121   3.050   3.530
 3937SOL    HW213709   8.094   3.127   3.402
 3938SOL     OW13710  12.416  13.328   1.522
 3938SOL    HW113711  12.460  13.402   1.481
 3938SOL    HW213712  12.378  13.280   1.448
 3939SOL     OW13713   8.421   7.394  11.418
 3939SOL    HW113714   8.489   7.378  11.484
 3939SOL    HW213715   8.467   7.386  11.334
 3940SOL     OW13716   2.688  12.530   9.795
 3940SOL    HW113717   2.686  12.515   9.890
 3940SOL    HW213718   2.599  12.509   9.766
 3941SOL     OW13719   6.887   5.246   3.227
 3941SOL    HW113720   6.966   5.201   3.260
 3941SOL    HW213721   6.814   5.197   3.265
 3942SOL     OW13722   5.943  13.934  12.842
 3942SOL    HW113723   5.861  13.888  12.857
 3942SOL    HW213724   6.009  13.865  12.836
 3943SOL     OW13725  10.304  11.563   9.391
 3943SOL    HW113726  10.350  11.617   9.327
 3943SOL    HW213727  10.320  11.473   9.364
 3944SOL     OW13728   1.584   6.011  12.864
 3944SOL    HW113729   1.529   5.943  12.825
 3944SOL    HW213730   1.664   5.964  12.889
 3945SOL     OW13731  10.630   7.134  14.590
 3945SOL    HW113732  10.710   7.154  14.639
 3945SOL    HW213733  10.653   7.150  14.499
 3946SOL     OW13734   0.297  11.588  11.034
 3946SOL    HW113735   0.203  11.591  11.016
 3946SOL    HW213736   0.303  11.566  11.127
 3947SOL     OW13737   8.905   9.234   0.792
 3947SOL    HW113738   8.891   9.172   0.721
 3947SOL    HW213739   8.823   9.233   0.842
 3948SOL     OW13740   6.651   7.500   6.681
 3948SOL    HW113741   6.651   7.580   6.733
 3948SOL    HW213742   6.712   7.442   6.726
 3949SOL     OW13743  13.179   7.829   3.605
 3949SOL    HW113744  13.178   7.924   3.592
 3949SOL    HW213745  13.252   7.798   3.551
 3950SOL     OW13746   2.663  12.497   3.951
 3950SOL    HW113747   2.734  12.547   3.991
 3950SOL    HW213748   2.707  12.432   3.896
 3951SOL     OW13749   0.549   0.067   4.224
 3951SOL    HW113750   0.588  14.863   4.274
 3951SOL    HW213751   0.619   0.095   4.164
 3952SOL     OW13752   2.383   4.657   4.482
 3952SOL    HW113753   2.467   4.653   4.437
 3952SOL    HW213754   2.370   4.568   4.515
 3953SOL     OW13755   5.603   1.868   6.804
 3953SOL    HW113756   5.638   1.846   6.890
 3953SOL    HW213757   5.609   1.786   6.754
 3954SOL     OW13758   2.623   9.976   8.864
 3954SOL    HW113759   2.663   9.997   8.949
 3954SOL    HW213760   2.645   9.885   8.848
 3955SOL     OW13761  14.183   5.462   0.150
 3955SOL    HW113762  14.178   5.527   0.080
 3955SOL    HW213763  14.131   5.499   0.221
 3956SOL     OW13764   2.196   7.367   4.720
 3956SOL    HW113765   2.155   7.441   4.764
 3956SOL    HW213766   2.124   7.325   4.673
 3957SOL     OW13767  12.901   7.784   6.873
 3957SOL    HW113768  12.873   7.859   6.820
 3957SOL    HW213769  12.951   7.730   6.812
 3958SOL     OW13770   8.644   7.604   5.624
 3958SOL    HW113771   8.624   7.540   5.555
 3958SOL    HW213772   8.559   7.627   5.661
 3959SOL     OW13773  10.640  13.694   8.845
 3959SOL    HW113774  10.678  13.747   8.776
 3959SOL    HW213775  10.713  13.676   8.905
 3960SOL     OW13776  11.846   7.463  12.730
 3960SOL    HW113777  11.797   7.522  12.788
 3960SOL    HW213778  11.915   7.427  12.785
 3961SOL     OW13779  10.402   6.717   6.761
 3961SOL    HW113780  10.446   6.652   6.706
 3961SOL    HW213781  10.352   6.666   6.824
 3962SOL     OW13782   2.737   2.625   4.951
 3962SOL    HW113783   2.770   2.607   4.863
 3962SOL    HW213784   2.805   2.679   4.992
 3963SOL     OW13785   3.406  10.677   9.698
 3963SOL    HW113786   3.320  10.661   9.660
 3963SOL    HW213787   3.466  10.675   9.623
 3964SOL     OW13788  10.914  10.316  13.692
 3964SOL    HW113789  10.915  10.349  13.782
 3964SOL    HW213790  10.892  10.223  13.700
 3965SOL     OW13791   2.497  10.697   4.120
 3965SOL    HW113792   2.446  10.663   4.046
 3965SOL    HW213793   2.580  10.725   4.081
 3966SOL     OW13794   6.244  10.277  12.135
 3966SOL    HW113795   6.323  10.262  12.188
 3966SOL    HW213796   6.272  10.263  12.045
 3967SOL     OW13797  10.151   8.610   5.807
 3967SOL    HW113798  10.081   8.666   5.775
 3967SOL    HW213799  10.206   8.667   5.861
 3968SOL     OW13800   6.988  13.507  13.598
 3968SOL    HW113801   7.050  13.551  13.540
 3968SOL    HW213802   6.928  13.461  13.538
 3969SOL     OW13803   7.043   5.748   1.303
 3969SOL    HW113804   6.954   5.716   1.288
 3969SOL    HW213805   7.038   5.842   1.288
 3970SOL     OW13806  13.953   8.565  11.552
 3970SOL    HW113807  13.879   8.533  11.501
 3970SOL    HW213808  13.994   8.486  11.586
 3971SOL     OW13809   3.397   2.396   2.609
 3971SOL    HW113810   3.433   2.456   2.674
 3971SOL    HW213811   3.468   2.334   2.591
 3972SOL     OW13812  13.852   5.550  10.710
 3972SOL    HW113813  13.824   5.551  10.802
 3972SOL    HW213814  13.771   5.558  10.660
 3973SOL     OW13815   0.472  13.802   3.768
 3973SOL    HW113816   0.444  13.797   3.676
 3973SOL    HW213817   0.391  13.799   3.818
 3974SOL     OW13818   0.304  13.794  10.394
 3974SOL    HW113819   0.304  13.889  10.404
 3974SOL    HW213820   0.394  13.768  10.413
 3975SOL     OW13821   0.531  11.796   4.133
 3975SOL    HW113822   0.460  11.852   4.101
 3975SOL    HW213823   0.495  11.707   4.129
 3976SOL     OW13824   3.557   4.146  10.217
 3976SOL    HW113825   3.652   4.154  10.208
 3976SOL    HW213826   3.525   4.236  10.211
 3977SOL     OW13827   9.009   1.564  10.510
 3977SOL    HW113828   8.928   1.611  10.491
 3977SOL    HW213829   9.078   1.621  10.476
 3978SOL     OW13830  12.232  10.041   7.177
 3978SOL    HW113831  12.259  10.038   7.268
 3978SOL    HW213832  12.137  10.030   7.180
 3979SOL     OW13833   4.010   3.501   9.563
 3979SOL    HW113834   3.918   3.530   9.561
 3979SOL    HW213835   4.032   3.499   9.656
 3980SOL     OW13836   9.160  14.707  13.634
 3980SOL    HW113837   9.132  14.619  13.659
 3980SOL    HW213838   9.113  14.765  13.694
 3981SOL     OW13839   4.980  11.389   8.244
 3981SOL    HW113840   4.926  11.316   8.214
 3981SOL    HW213841   5.065  11.374   8.202
 3982SOL     OW13842   1.170   6.713   5.620
 3982SOL    HW113843   1.155   6.791   5.672
 3982SOL    HW213844   1.132   6.642   5.671
 3983SOL     OW13845   6.013  13.558  11.339
 3983SOL    HW113846   5.961  13.497  11.391
 3983SOL    HW213847   5.970  13.643  11.353
 3984SOL     OW13848   3.395   2.337  12.018
 3984SOL    HW113849   3.386   2.424  12.058
 3984SOL    HW213850   3.431   2.354  11.931
 3985SOL     OW13851  10.192   6.790  11.947
 3985SOL    HW113852  10.160   6.736  12.019
 3985SOL    HW213853  10.274   6.827  11.979
 3986SOL     OW13854   7.651   3.759   6.814
 3986SOL    HW113855   7.688   3.755   6.902
 3986SOL    HW213856   7.713   3.812   6.763
 3987SOL     OW13857   8.451   7.185   1.003
 3987SOL    HW113858   8.438   7.102   1.048
 3987SOL    HW213859   8.415   7.170   0.915
 3988SOL     OW13860  12.638   4.503   8.211
 3988SOL    HW113861  12.673   4.565   8.146
 3988SOL    HW213862  12.709   4.492   8.274
 3989SOL     OW13863   5.849   4.476   5.778
 3989SOL    HW113864   5.778   4.526   5.817
 3989SOL    HW213865   5.925   4.496   5.832
 3990SOL     OW13866   3.809   5.752   3.780
 3990SOL    HW113867   3.784   5.817   3.845
 3990SOL    HW213868   3.863   5.799   3.718
 3991SOL     OW13869   2.055   3.878   4.204
 3991SOL    HW113870   2.070   3.790   4.238
 3991SOL    HW213871   1.989   3.915   4.262
 3992SOL     OW13872  10.313   7.627  11.233
 3992SOL    HW113873  10.273   7.664  11.312
 3992SOL    HW213874  10.365   7.553  11.265
 3993SOL     OW13875   8.256   7.329   3.359
 3993SOL    HW113876   8.258   7.264   3.288
 3993SOL    HW213877   8.328   7.389   3.338
 3994SOL     OW13878   4.447   3.260   4.993
 3994SOL    HW113879   4.528   3.296   5.029
 3994SOL    HW213880   4.408   3.213   5.067
 3995SOL     OW13881   4.966  10.524   5.158
 3995SOL    HW113882   4.942  10.432   5.151
 3995SOL    HW213883   4.948  10.547   5.249
 3996SOL     OW13884   4.882   7.063   4.984
 3996SOL    HW113885   4.888   6.969   4.965
 3996SOL    HW213886   4.815   7.095   4.925
 3997SOL     OW13887  13.932   7.643  11.109
 3997SOL    HW113888  13.985   7.578  11.062
 3997SOL    HW213889  13.893   7.595  11.182
 3998SOL     OW13890   0.596   1.697  11.534
 3998SOL    HW113891   0.530   1.670  11.470
 3998SOL    HW213892   0.679   1.676  11.492
 3999SOL     OW13893  14.533   8.594   3.742
 3999SOL    HW113894  14.478   8.618   3.816
 3999SOL    HW213895  14.617   8.636   3.759
 4000SOL     OW13896   2.931   1.770  12.397
 4000SOL    HW113897   2.977   1.733  12.472
 4000SOL    HW213898   3.000   1.802  12.339
 4001SOL     OW13899   8.308   1.690  13.413
 4001SOL    HW113900   8.285   1.751  13.343
 4001SOL    HW213901   8.362   1.741  13.473
 4002SOL     OW13902   6.217  14.289   1.567
 4002SOL    HW113903   6.206  14.206   1.613
 4002SOL    HW213904   6.312  14.303   1.565
 4003SOL     OW13905   3.670   5.138  12.662
 4003SOL    HW113906   3.693   5.046  12.679
 4003SOL    HW213907   3.587   5.133  12.614
 4004SOL     OW13908  10.877   8.254  13.990
 4004SOL    HW113909  10.932   8.188  13.947
 4004SOL    HW213910  10.938   8.316  14.028
 4005SOL     OW13911   3.148   0.623   0.372
 4005SOL    HW113912   3.065   0.628   0.419
 4005SOL    HW213913   3.200   0.694   0.407
 4006SOL     OW13914   1.717   7.142   6.941
 4006SOL    HW113915   1.744   7.050   6.934
 4006SOL    HW213916   1.621   7.139   6.937
 4007SOL     OW13917   2.993   8.439   8.783
 4007SOL    HW113918   2.943   8.501   8.730
 4007SOL    HW213919   3.074   8.426   8.734
 4008SOL     OW13920  10.829  10.647   0.713
 4008SOL    HW113921  10.743  10.689   0.719
 4008SOL    HW213922  10.827  10.579   0.780
 4009SOL     OW13923  10.645   9.746  13.183
 4009SOL    HW113924  10.727   9.795  13.192
 4009SOL    HW213925  10.673   9.658  13.157
 4010SOL     OW13926   4.841  10.734  14.214
 4010SOL    HW113927   4.875  10.675  14.146
 4010SOL    HW213928   4.856  10.688  14.296
 4011SOL     OW13929   1.616  14.049   8.210
 4011SOL    HW113930   1.528  14.076   8.184
 4011SOL    HW213931   1.620  13.956   8.188
 4012SOL     OW13932  13.920   9.986   5.296
 4012SOL    HW113933  13.877   9.902   5.312
 4012SOL    HW213934  14.011   9.964   5.276
 4013SOL     OW13935  13.802   6.305  14.593
 4013SOL    HW113936  13.823   6.394  14.624
 4013SOL    HW213937  13.882   6.255  14.606
 4014SOL     OW13938   4.119  14.758   9.671
 4014SOL    HW113939   4.120  14.774   9.576
 4014SOL    HW213940   4.142  14.666   9.680
 4015SOL     OW13941  11.808   4.941  12.405
 4015SOL    HW113942  11.866   4.927  12.479
 4015SOL    HW213943  11.747   4.866  12.408
 4016SOL     OW13944  11.234   5.195  12.247
 4016SOL    HW113945  11.189   5.208  12.163
 4016SOL    HW213946  11.267   5.105  12.243
 4017SOL     OW13947   2.692   7.539   3.850
 4017SOL    HW113948   2.731   7.619   3.817
 4017SOL    HW213949   2.699   7.546   3.945
 4018SOL     OW13950   3.175   5.142   4.802
 4018SOL    HW113951   3.164   5.047   4.808
 4018SOL    HW213952   3.261   5.154   4.761
 4019SOL     OW13953   1.036   0.081   9.755
 4019SOL    HW113954   1.010   0.121   9.672
 4019SOL    HW213955   1.127   0.109   9.767
 4020SOL     OW13956   6.801  13.634  13.161
 4020SOL    HW113957   6.791  13.645  13.256
 4020SOL    HW213958   6.715  13.603  13.132
 4021SOL     OW13959   5.809   3.789  13.233
 4021SOL    HW113960   5.863   3.756  13.304
 4021SOL    HW213961   5.872   3.830  13.173
 4022SOL     OW13962  10.768  12.697   6.990
 4022SOL    HW113963  10.849  12.693   7.041
 4022SOL    HW213964  10.780  12.773   6.933
 4023SOL     OW13965   9.482  14.283  14.715
 4023SOL    HW113966   9.417  14.331  14.663
 4023SOL    HW213967   9.536  14.238  14.650
 4024SOL     OW13968  13.824   5.022   2.580
 4024SOL    HW113969  13.862   4.951   2.529
 4024SOL    HW213970  13.789   4.979   2.658
 4025SOL     OW13971  12.364  11.716   2.483
 4025SOL    HW113972  12.416  11.778   2.431
 4025SOL    HW213973  12.277  11.755   2.486
 4026SOL     OW13974   6.703  12.278  12.405
 4026SOL    HW113975   6.610  12.300  12.411
 4026SOL    HW213976   6.717  12.259  12.312
 4027SOL     OW13977   8.148  13.149   0.981
 4027SOL    HW113978   8.100  13.117   1.057
 4027SOL    HW213979   8.156  13.073   0.923
 4028SOL     OW13980   3.539  11.077   6.203
 4028SOL    HW113981   3.548  10.993   6.247
 4028SOL    HW213982   3.616  11.127   6.229
 4029SOL     OW13983  13.969   8.608   2.742
 4029SOL    HW113984  13.892   8.628   2.795
 4029SOL    HW213985  13.960   8.663   2.664
 4030SOL     OW13986  13.525   3.243  12.217
 4030SOL    HW113987  13.443   3.286  12.241
 4030SOL    HW213988  13.530   3.252  12.121
 4031SOL     OW13989   8.766   0.983   4.476
 4031SOL    HW113990   8.769   1.076   4.499
 4031SOL    HW213991   8.708   0.944   4.541
 4032SOL     OW13992   6.583   8.372  11.294
 4032SOL    HW113993   6.551   8.378  11.384
 4032SOL    HW213994   6.676   8.397  11.300
 4033SOL     OW13995   6.006  13.022   1.873
 4033SOL    HW113996   5.939  13.041   1.807
 4033SOL    HW213997   6.064  13.098   1.871
 4034SOL     OW13998  14.833   1.543  10.791
 4034SOL    HW113999  14.822   1.637  10.805
 4034SOL    HW214000  14.781   1.524  10.713
 4035SOL     OW14001   0.985   0.009  13.979
 4035SOL    HW114002   1.074  14.858  14.009
 4035SOL    HW214003   0.929  14.818  14.030
 4036SOL     OW14004   1.151   4.783  13.013
 4036SOL    HW114005   1.221   4.844  13.037
 4036SOL    HW214006   1.191   4.696  13.019
 4037SOL     OW14007   4.089   7.341   6.803
 4037SOL    HW114008   4.019   7.291   6.760
 4037SOL    HW214009   4.166   7.327   6.748
 4038SOL     OW14010  14.812   2.431   3.209
 4038SOL    HW114011  14.795   2.346   3.250
 4038SOL    HW214012  14.729   2.454   3.167
 4039SOL     OW14013   0.427   4.667   5.813
 4039SOL    HW114014   0.368   4.726   5.766
 4039SOL    HW214015   0.413   4.689   5.906
 4040SOL     OW14016   8.074   6.405   0.580
 4040SOL    HW114017   8.024   6.363   0.510
 4040SOL    HW214018   8.008   6.431   0.644
 4041SOL     OW14019  12.866   9.340   3.448
 4041SOL    HW114020  12.859   9.417   3.505
 4041SOL    HW214021  12.796   9.282   3.478
 4042SOL     OW14022  14.673   8.057   2.688
 4042SOL    HW114023  14.732   8.042   2.614
 4042SOL    HW214024  14.731   8.083   2.760
 4043SOL     OW14025  12.819   8.657   5.282
 4043SOL    HW114026  12.764   8.582   5.305
 4043SOL    HW214027  12.826   8.708   5.362
 4044SOL     OW14028  12.911   2.571   1.257
 4044SOL    HW114029  12.844   2.607   1.314
 4044SOL    HW214030  12.884   2.596   1.168
 4045SOL     OW14031   6.427   5.043  11.661
 4045SOL    HW114032   6.348   5.090  11.635
 4045SOL    HW214033   6.449   4.989  11.585
 4046SOL     OW14034  14.407   3.771   2.676
 4046SOL    HW114035  14.501   3.778   2.660
 4046SOL    HW214036  14.372   3.856   2.649
 4047SOL     OW14037   1.662   0.644   1.360
 4047SOL    HW114038   1.585   0.669   1.411
 4047SOL    HW214039   1.673   0.716   1.297
 4048SOL     OW14040   9.804   3.201   0.270
 4048SOL    HW114041   9.709   3.191   0.278
 4048SOL    HW214042   9.840   3.117   0.300
 4049SOL     OW14043  11.102   9.329   0.020
 4049SOL    HW114044  11.154   9.261  14.845
 4049SOL    HW214045  11.037   9.354  14.823
 4050SOL     OW14046   6.823  10.060   4.123
 4050SOL    HW114047   6.744  10.016   4.155
 4050SOL    HW214048   6.895  10.008   4.157
 4051SOL     OW14049   5.382   6.329  12.675
 4051SOL    HW114050   5.473   6.347  12.697
 4051SOL    HW214051   5.363   6.386  12.600
 4052SOL     OW14052   4.886  13.667   5.762
 4052SOL    HW114053   4.944  13.665   5.838
 4052SOL    HW214054   4.830  13.590   5.772
 4053SOL     OW14055   3.907  12.810   9.393
 4053SOL    HW114056   3.927  12.888   9.341
 4053SOL    HW214057   3.843  12.762   9.342
 4054SOL     OW14058   8.815   3.906  11.602
 4054SOL    HW114059   8.902   3.905  11.562
 4054SOL    HW214060   8.759   3.945  11.536
 4055SOL     OW14061   6.237   5.969   1.833
 4055SOL    HW114062   6.175   6.040   1.813
 4055SOL    HW214063   6.202   5.929   1.912
 4056SOL     OW14064  13.876  11.505   8.163
 4056SOL    HW114065  13.847  11.488   8.073
 4056SOL    HW214066  13.888  11.599   8.166
 4057SOL     OW14067   9.596  10.183   5.949
 4057SOL    HW114068   9.648  10.263   5.961
 4057SOL    HW214069   9.506  10.212   5.959
 4058SOL     OW14070   1.362   3.210   4.770
 4058SOL    HW114071   1.325   3.125   4.794
 4058SOL    HW214072   1.343   3.219   4.677
 4059SOL     OW14073   1.501  10.369  12.717
 4059SOL    HW114074   1.514  10.407  12.630
 4059SOL    HW214075   1.555  10.423  12.775
 4060SOL     OW14076  10.239  10.806   5.742
 4060SOL    HW114077  10.210  10.897   5.746
 4060SOL    HW214078  10.324  10.810   5.698
 4061SOL     OW14079   7.649  12.151   1.870
 4061SOL    HW114080   7.605  12.233   1.853
 4061SOL    HW214081   7.604  12.087   1.815
 4062SOL     OW14082  12.056   4.393   9.521
 4062SOL    HW114083  12.051   4.335   9.598
 4062SOL    HW214084  12.042   4.335   9.447
 4063SOL     OW14085  12.415  13.938  14.664
 4063SOL    HW114086  12.475  14.001  14.625
 4063SOL    HW214087  12.451  13.853  14.640
 4064SOL     OW14088   4.706   7.012   5.241
 4064SOL    HW114089   4.728   7.073   5.170
 4064SOL    HW214090   4.784   7.013   5.298
 4065SOL     OW14091   0.327   4.269   3.022
 4065SOL    HW114092   0.411   4.232   3.049
 4065SOL    HW214093   0.264   4.198   3.035
 4066SOL     OW14094   0.578  12.897  13.843
 4066SOL    HW114095   0.511  12.903  13.911
 4066SOL    HW214096   0.570  12.978  13.794
 4067SOL     OW14097   0.904  11.958   1.608
 4067SOL    HW114098   0.846  11.949   1.683
 4067SOL    HW214099   0.939  12.047   1.615
 4068SOL     OW14100   8.267  12.230   6.658
 4068SOL    HW114101   8.271  12.136   6.643
 4068SOL    HW214102   8.312  12.269   6.583
 4069SOL     OW14103   0.095   5.603   2.114
 4069SOL    HW114104   0.037   5.610   2.190
 4069SOL    HW214105   0.119   5.693   2.094
 4070SOL     OW14106  10.561   9.150  12.354
 4070SOL    HW114107  10.585   9.243  12.354
 4070SOL    HW214108  10.604   9.114  12.432
 4071SOL     OW14109   4.892   9.763  12.838
 4071SOL    HW114110   4.870   9.854  12.857
 4071SOL    HW214111   4.922   9.765  12.747
 4072SOL     OW14112   5.019   5.696   5.178
 4072SOL    HW114113   5.082   5.762   5.208
 4072SOL    HW214114   5.072   5.637   5.124
 4073SOL     OW14115   7.234   1.325  11.375
 4073SOL    HW114116   7.161   1.264  11.363
 4073SOL    HW214117   7.279   1.293  11.454
 4074SOL     OW14118   4.141  14.796   3.398
 4074SOL    HW114119   4.108  14.842   3.321
 4074SOL    HW214120   4.118  14.854   3.471
 4075SOL     OW14121   8.882   8.660   9.223
 4075SOL    HW114122   8.897   8.718   9.147
 4075SOL    HW214123   8.846   8.580   9.185
 4076SOL     OW14124   9.698  14.336   0.666
 4076SOL    HW114125   9.671  14.316   0.576
 4076SOL    HW214126   9.647  14.277   0.721
 4077SOL     OW14127  11.743  10.245   9.701
 4077SOL    HW114128  11.821  10.284   9.740
 4077SOL    HW214129  11.670  10.288   9.746
 4078SOL     OW14130   3.452   8.452   0.898
 4078SOL    HW114131   3.497   8.399   0.833
 4078SOL    HW214132   3.456   8.542   0.864
 4079SOL     OW14133   6.937  13.752   0.309
 4079SOL    HW114134   7.031  13.742   0.298
 4079SOL    HW214135   6.903  13.663   0.313
 4080SOL     OW14136   8.518   3.695   2.403
 4080SOL    HW114137   8.433   3.740   2.405
 4080SOL    HW214138   8.559   3.720   2.486
 4081SOL     OW14139   8.814   1.465   6.996
 4081SOL    HW114140   8.843   1.473   7.087
 4081SOL    HW214141   8.740   1.405   6.999
 4082SOL     OW14142   6.437  10.408  11.416
 4082SOL    HW114143   6.380  10.473  11.457
 4082SOL    HW214144   6.385  10.373  11.343
 4083SOL     OW14145  14.056   0.939   8.904
 4083SOL    HW114146  13.997   0.927   8.978
 4083SOL    HW214147  14.143   0.920   8.940
 4084SOL     OW14148  11.891   3.067   4.590
 4084SOL    HW114149  11.845   3.142   4.627
 4084SOL    HW214150  11.886   3.080   4.495
 4085SOL     OW14151   1.795   9.743  13.268
 4085SOL    HW114152   1.731   9.671  13.268
 4085SOL    HW214153   1.752   9.814  13.316
 4086SOL     OW14154  13.340  11.874   6.711
 4086SOL    HW114155  13.327  11.901   6.802
 4086SOL    HW214156  13.309  11.783   6.709
 4087SOL     OW14157  11.205   2.878  10.732
 4087SOL    HW114158  11.206   2.783  10.740
 4087SOL    HW214159  11.264   2.909  10.800
 4088SOL     OW14160   7.821   1.510  11.422
 4088SOL    HW114161   7.758   1.552  11.364
 4088SOL    HW214162   7.773   1.438  11.463
 4089SOL     OW14163   2.522  13.157   2.781
 4089SOL    HW114164   2.438  13.151   2.825
 4089SOL    HW214165   2.503  13.132   2.690
 4090SOL     OW14166  11.521  11.939  12.699
 4090SOL    HW114167  11.483  12.024  12.676
 4090SOL    HW214168  11.536  11.896  12.615
 4091SOL     OW14169   7.635   6.873   6.338
 4091SOL    HW114170   7.646   6.815   6.414
 4091SOL    HW214171   7.562   6.931   6.363
 4092SOL     OW14172   0.172  10.147   3.459
 4092SOL    HW114173   0.155  10.219   3.398
 4092SOL    HW214174   0.098  10.087   3.448
 4093SOL     OW14175  12.956   3.715   8.844
 4093SOL    HW114176  12.921   3.791   8.890
 4093SOL    HW214177  12.880   3.660   8.827
 4094SOL     OW14178   7.510   3.851  14.218
 4094SOL    HW114179   7.543   3.900  14.293
 4094SOL    HW214180   7.460   3.779  14.256
 4095SOL     OW14181  13.828   4.290   4.303
 4095SOL    HW114182  13.799   4.381   4.305
 4095SOL    HW214183  13.922   4.295   4.286
 4096SOL     OW14184  11.398  13.906   5.905
 4096SOL    HW114185  11.440  13.947   5.830
 4096SOL    HW214186  11.304  13.911   5.886
 4097SOL     OW14187  11.768  10.163   8.890
 4097SOL    HW114188  11.810  10.105   8.827
 4097SOL    HW214189  11.703  10.211   8.839
 4098SOL     OW14190   7.962   3.765   5.170
 4098SOL    HW114191   7.870   3.755   5.148
 4098SOL    HW214192   8.002   3.800   5.090
 4099SOL     OW14193   0.424   6.149   9.172
 4099SOL    HW114194   0.338   6.156   9.213
 4099SOL    HW214195   0.460   6.238   9.178
 4100SOL     OW14196  12.025   7.487   6.086
 4100SOL    HW114197  12.043   7.565   6.137
 4100SOL    HW214198  12.109   7.442   6.079
 4101SOL     OW14199  13.119   4.741  12.840
 4101SOL    HW114200  13.036   4.700  12.864
 4101SOL    HW214201  13.185   4.673  12.854
 4102SOL     OW14202   4.981   4.118  13.493
 4102SOL    HW114203   4.978   4.063  13.415
 4102SOL    HW214204   4.909   4.086  13.548
 4103SOL     OW14205  13.806  13.211   8.509
 4103SOL    HW114206  13.808  13.141   8.444
 4103SOL    HW214207  13.720  13.252   8.498
 4104SOL     OW14208  12.430   3.882   0.574
 4104SOL    HW114209  12.336   3.886   0.561
 4104SOL    HW214210  12.456   3.797   0.536
 4105SOL     OW14211   8.822   7.177   5.040
 4105SOL    HW114212   8.898   7.188   5.097
 4105SOL    HW214213   8.794   7.087   5.055
 4106SOL     OW14214  11.565   3.896  11.626
 4106SOL    HW114215  11.562   3.852  11.541
 4106SOL    HW214216  11.631   3.848  11.676
 4107SOL     OW14217   7.173  13.756  14.086
 4107SOL    HW114218   7.090  13.805  14.079
 4107SOL    HW214219   7.179  13.707  14.004
 4108SOL     OW14220   1.387   2.849   2.453
 4108SOL    HW114221   1.417   2.916   2.391
 4108SOL    HW214222   1.414   2.882   2.539
 4109SOL     OW14223  11.858   8.599  11.314
 4109SOL    HW114224  11.765   8.612  11.295
 4109SOL    HW214225  11.859   8.555  11.399
 4110SOL     OW14226   7.042   4.240   5.569
 4110SOL    HW114227   7.053   4.145   5.567
 4110SOL    HW214228   7.073   4.266   5.656
 4111SOL     OW14229   4.031   4.920   4.618
 4111SOL    HW114230   4.007   4.966   4.537
 4111SOL    HW214231   4.122   4.947   4.634
 4112SOL     OW14232   5.807  13.351   4.223
 4112SOL    HW114233   5.792  13.443   4.245
 4112SOL    HW214234   5.764  13.340   4.139
 4113SOL     OW14235  10.056   8.812   8.583
 4113SOL    HW114236  10.012   8.757   8.518
 4113SOL    HW214237  10.071   8.753   8.657
 4114SOL     OW14238   0.240   8.033   8.070
 4114SOL    HW114239   0.226   8.068   7.982
 4114SOL    HW214240   0.167   8.068   8.122
 4115SOL     OW14241  11.540   7.994   1.336
 4115SOL    HW114242  11.554   7.908   1.297
 4115SOL    HW214243  11.618   8.010   1.389
 4116SOL     OW14244  14.290  11.296   4.335
 4116SOL    HW114245  14.335  11.344   4.404
 4116SOL    HW214246  14.224  11.358   4.302
 4117SOL     OW14247   8.617  11.726  12.294
 4117SOL    HW114248   8.591  11.690  12.209
 4117SOL    HW214249   8.536  11.758  12.333
 4118SOL     OW14250   1.578  10.144   0.600
 4118SOL    HW114251   1.609  10.058   0.573
 4118SOL    HW214252   1.505  10.163   0.541
 4119SOL     OW14253  12.846   9.599   2.030
 4119SOL    HW114254  12.790   9.604   2.107
 4119SOL    HW214255  12.929   9.638   2.057
 4120SOL     OW14256   6.579   1.899   0.712
 4120SOL    HW114257   6.535   1.943   0.639
 4120SOL    HW214258   6.508   1.864   0.765
 4121SOL     OW14259   1.950   9.903   6.209
 4121SOL    HW114260   1.925   9.994   6.195
 4121SOL    HW214261   2.023   9.888   6.150
 4122SOL     OW14262   8.846   3.666  13.124
 4122SOL    HW114263   8.851   3.582  13.078
 4122SOL    HW214264   8.881   3.648  13.212
 4123SOL     OW14265   7.680  11.312  13.439
 4123SOL    HW114266   7.700  11.405  13.427
 4123SOL    HW214267   7.587  11.311  13.463
 4124SOL     OW14268   7.209   9.281  11.475
 4124SOL    HW114269   7.163   9.304  11.394
 4124SOL    HW214270   7.158   9.209  11.512
 4125SOL     OW14271   6.590  13.216   7.326
 4125SOL    HW114272   6.582  13.272   7.249
 4125SOL    HW214273   6.620  13.274   7.395
 4126SOL     OW14274   1.430  13.900   1.181
 4126SOL    HW114275   1.398  13.990   1.177
 4126SOL    HW214276   1.502  13.903   1.243
 4127SOL     OW14277   9.245   1.238   4.252
 4127SOL    HW114278   9.237   1.332   4.237
 4127SOL    HW214279   9.277   1.203   4.168
 4128SOL     OW14280  14.149  11.355   9.102
 4128SOL    HW114281  14.197  11.406   9.167
 4128SOL    HW214282  14.159  11.405   9.021
 4129SOL     OW14283   1.349   1.603  10.074
 4129SOL    HW114284   1.329   1.593  10.167
 4129SOL    HW214285   1.400   1.684  10.068
 4130SOL     OW14286  12.087   5.925   4.839
 4130SOL    HW114287  12.173   5.898   4.806
 4130SOL    HW214288  12.073   5.870   4.917
 4131SOL     OW14289   3.853   3.818   6.854
 4131SOL    HW114290   3.805   3.886   6.807
 4131SOL    HW214291   3.942   3.822   6.817
 4132SOL     OW14292  12.525   1.923  10.380
 4132SOL    HW114293  12.432   1.943  10.373
 4132SOL    HW214294  12.548   1.887  10.294
 4133SOL     OW14295   3.360   3.836   2.751
 4133SOL    HW114296   3.444   3.881   2.739
 4133SOL    HW214297   3.330   3.864   2.838
 4134SOL     OW14298   1.797   5.740  14.340
 4134SOL    HW114299   1.729   5.710  14.280
 4134SOL    HW214300   1.835   5.660  14.376
 4135SOL     OW14301   3.981   8.550  10.688
 4135SOL    HW114302   3.921   8.478  10.669
 4135SOL    HW214303   3.950   8.585  10.771
 4136SOL     OW14304  13.737   5.910   6.179
 4136SOL    HW114305  13.746   5.852   6.254
 4136SOL    HW214306  13.726   5.997   6.217
 4137SOL     OW14307   4.377   8.165   7.816
 4137SOL    HW114308   4.368   8.094   7.752
 4137SOL    HW214309   4.460   8.207   7.794
 4138SOL     OW14310   7.177   0.383  12.220
 4138SOL    HW114311   7.194   0.366  12.128
 4138SOL    HW214312   7.256   0.351  12.265
 4139SOL     OW14313   0.950   4.000   9.530
 4139SOL    HW114314   0.865   4.044   9.540
 4139SOL    HW214315   0.938   3.942   9.456
 4140SOL     OW14316   2.158   9.047   9.547
 4140SOL    HW114317   2.230   9.038   9.609
 4140SOL    HW214318   2.198   9.086   9.469
 4141SOL     OW14319   5.341   2.125   2.698
 4141SOL    HW114320   5.303   2.038   2.688
 4141SOL    HW214321   5.435   2.112   2.690
 4142SOL     OW14322  11.363   5.333   3.909
 4142SOL    HW114323  11.442   5.297   3.868
 4142SOL    HW214324  11.394   5.380   3.986
 4143SOL     OW14325   8.875   5.501   0.814
 4143SOL    HW114326   8.952   5.449   0.791
 4143SOL    HW214327   8.836   5.524   0.730
 4144SOL     OW14328   2.145  13.263   5.216
 4144SOL    HW114329   2.128  13.261   5.122
 4144SOL    HW214330   2.086  13.197   5.252
 4145SOL     OW14331  12.419  10.980  12.491
 4145SOL    HW114332  12.390  11.029  12.568
 4145SOL    HW214333  12.509  10.955  12.511
 4146SOL     OW14334   2.030   8.317   0.864
 4146SOL    HW114335   2.120   8.324   0.833
 4146SOL    HW214336   1.979   8.291   0.788
 4147SOL     OW14337  10.262   5.516   0.774
 4147SOL    HW114338  10.195   5.458   0.808
 4147SOL    HW214339  10.275   5.488   0.683
 4148SOL     OW14340   9.072   3.610  14.246
 4148SOL    HW114341   9.003   3.657  14.198
 4148SOL    HW214342   9.037   3.602  14.335
 4149SOL     OW14343   9.768  10.690   0.036
 4149SOL    HW114344   9.843  10.688   0.096
 4149SOL    HW214345   9.808  10.698  14.817
 4150SOL     OW14346  13.267   5.883  14.346
 4150SOL    HW114347  13.317   5.814  14.389
 4150SOL    HW214348  13.327   5.957  14.341
 4151SOL     OW14349  13.975   1.082   3.114
 4151SOL    HW114350  13.910   1.028   3.069
 4151SOL    HW214351  14.042   1.098   3.048
 4152SOL     OW14352  14.730   2.367   5.081
 4152SOL    HW114353  14.780   2.316   5.145
 4152SOL    HW214354  14.785   2.369   5.003
 4153SOL     OW14355  11.999  11.505   5.386
 4153SOL    HW114356  12.088  11.538   5.373
 4153SOL    HW214357  12.010  11.413   5.408
 4154SOL     OW14358  14.833   8.521   2.796
 4154SOL    HW114359  14.841   8.428   2.817
 4154SOL    HW214360  14.754   8.550   2.844
 4155SOL     OW14361   6.644   6.187   1.635
 4155SOL    HW114362   6.616   6.111   1.686
 4155SOL    HW214363   6.705   6.151   1.570
 4156SOL     OW14364   4.185   9.877   1.344
 4156SOL    HW114365   4.135   9.807   1.385
 4156SOL    HW214366   4.274   9.843   1.339
 4157SOL     OW14367   5.444   8.658  12.743
 4157SOL    HW114368   5.515   8.647  12.681
 4157SOL    HW214369   5.466   8.599  12.815
 4158SOL     OW14370   0.815   9.040   4.344
 4158SOL    HW114371   0.754   9.022   4.415
 4158SOL    HW214372   0.760   9.072   4.273
 4159SOL     OW14373   4.231   5.776   5.891
 4159SOL    HW114374   4.221   5.806   5.981
 4159SOL    HW214375   4.160   5.714   5.878
 4160SOL     OW14376   9.874   2.335   3.264
 4160SOL    HW114377   9.825   2.380   3.332
 4160SOL    HW214378   9.847   2.378   3.183
 4161SOL     OW14379   2.039   6.110   9.424
 4161SOL    HW114380   2.042   6.081   9.333
 4161SOL    HW214381   1.969   6.059   9.464
 4162SOL     OW14382   3.772   6.597   2.025
 4162SOL    HW114383   3.858   6.633   2.002
 4162SOL    HW214384   3.788   6.544   2.103
 4163SOL     OW14385   1.757  11.407  13.122
 4163SOL    HW114386   1.700  11.343  13.166
 4163SOL    HW214387   1.819  11.354  13.072
 4164SOL     OW14388  11.555   6.716  11.889
 4164SOL    HW114389  11.571   6.781  11.958
 4164SOL    HW214390  11.492   6.758  11.830
 4165SOL     OW14391   6.416   7.590   8.379
 4165SOL    HW114392   6.405   7.495   8.382
 4165SOL    HW214393   6.343   7.621   8.325
 4166SOL     OW14394   1.692   8.697   4.346
 4166SOL    HW114395   1.703   8.665   4.257
 4166SOL    HW214396   1.684   8.792   4.337
 4167SOL     OW14397   4.463   2.842  13.121
 4167SOL    HW114398   4.548   2.866  13.083
 4167SOL    HW214399   4.399   2.878  13.059
 4168SOL     OW14400   4.363   0.720   8.291
 4168SOL    HW114401   4.298   0.651   8.306
 4168SOL    HW214402   4.324   0.775   8.223
 4169SOL     OW14403   4.164  11.081   6.508
 4169SOL    HW114404   4.244  11.037   6.478
 4169SOL    HW214405   4.113  11.013   6.551
 4170SOL     OW14406   2.401   9.217  12.983
 4170SOL    HW114407   2.443   9.137  13.015
 4170SOL    HW214408   2.377   9.265  13.062
 4171SOL     OW14409  12.662  11.280   0.090
 4171SOL    HW114410  12.608  11.298   0.013
 4171SOL    HW214411  12.732  11.345   0.086
 4172SOL     OW14412   0.145  10.094  14.197
 4172SOL    HW114413   0.223  10.061  14.151
 4172SOL    HW214414   0.161  10.071  14.289
 4173SOL     OW14415   5.833   8.482   2.027
 4173SOL    HW114416   5.767   8.427   1.984
 4173SOL    HW214417   5.876   8.529   1.955
 4174SOL     OW14418   9.758  12.968   1.253
 4174SOL    HW114419   9.666  12.968   1.227
 4174SOL    HW214420   9.793  12.886   1.217
 4175SOL     OW14421   3.519   2.772   3.171
 4175SOL    HW114422   3.542   2.852   3.218
 4175SOL    HW214423   3.525   2.796   3.078
 4176SOL     OW14424   0.893   4.961   0.641
 4176SOL    HW114425   0.818   4.972   0.582
 4176SOL    HW214426   0.864   4.998   0.724
 4177SOL     OW14427   9.027  11.645   4.746
 4177SOL    HW114428   8.997  11.564   4.703
 4177SOL    HW214429   8.989  11.715   4.692
 4178SOL     OW14430   6.402   1.349   5.710
 4178SOL    HW114431   6.386   1.432   5.755
 4178SOL    HW214432   6.314   1.312   5.697
 4179SOL     OW14433   1.690   9.851   7.415
 4179SOL    HW114434   1.634   9.804   7.477
 4179SOL    HW214435   1.737   9.782   7.368
 4180SOL     OW14436   2.204   1.176   5.201
 4180SOL    HW114437   2.181   1.104   5.260
 4180SOL    HW214438   2.166   1.151   5.117
 4181SOL     OW14439   2.146  13.595  12.924
 4181SOL    HW114440   2.181  13.680  12.895
 4181SOL    HW214441   2.219  13.534  12.911
 4182SOL     OW14442   4.465   8.461   5.129
 4182SOL    HW114443   4.556   8.482   5.147
 4182SOL    HW214444   4.465   8.428   5.039
 4183SOL     OW14445   1.863  10.968  13.534
 4183SOL    HW114446   1.953  10.959  13.565
 4183SOL    HW214447   1.810  10.929  13.603
 4184SOL     OW14448   9.161  12.745   0.839
 4184SOL    HW114449   9.170  12.725   0.746
 4184SOL    HW214450   9.103  12.821   0.842
 4185SOL     OW14451  14.680   1.861   8.136
 4185SOL    HW114452  14.642   1.782   8.098
 4185SOL    HW214453  14.609   1.925   8.135
 4186SOL     OW14454   5.922  14.306  14.589
 4186SOL    HW114455   5.973  14.356  14.525
 4186SOL    HW214456   5.966  14.322  14.673
 4187SOL     OW14457   8.279  13.590  11.910
 4187SOL    HW114458   8.334  13.540  11.970
 4187SOL    HW214459   8.327  13.672  11.897
 4188SOL     OW14460  13.275   0.167   6.802
 4188SOL    HW114461  13.277   0.208   6.716
 4188SOL    HW214462  13.250   0.077   6.786
 4189SOL     OW14463   4.309  10.812   0.933
 4189SOL    HW114464   4.265  10.752   0.873
 4189SOL    HW214465   4.287  10.899   0.900
 4190SOL     OW14466   3.700  11.127  11.538
 4190SOL    HW114467   3.686  11.221  11.548
 4190SOL    HW214468   3.792  11.114  11.563
 4191SOL     OW14469  14.796   4.554  10.899
 4191SOL    HW114470  14.736   4.525  10.830
 4191SOL    HW214471  14.808   4.477  10.955
 4192SOL     OW14472  14.455   3.054   1.100
 4192SOL    HW114473  14.493   3.098   1.024
 4192SOL    HW214474  14.361   3.071   1.093
 4193SOL     OW14475  10.552   9.173   3.995
 4193SOL    HW114476  10.524   9.082   4.003
 4193SOL    HW214477  10.471   9.222   3.981
 4194SOL     OW14478  13.539   9.620   4.537
 4194SOL    HW114479  13.561   9.567   4.614
 4194SOL    HW214480  13.449   9.649   4.552
 4195SOL     OW14481   7.723  12.274   5.274
 4195SOL    HW114482   7.692  12.349   5.324
 4195SOL    HW214483   7.661  12.265   5.202
 4196SOL     OW14484  13.543   2.911   7.750
 4196SOL    HW114485  13.457   2.875   7.773
 4196SOL    HW214486  13.593   2.909   7.831
 4197SOL     OW14487   7.919  11.908  11.705
 4197SOL    HW114488   7.935  11.969  11.633
 4197SOL    HW214489   7.837  11.865  11.681
 4198SOL     OW14490   9.761  12.564   2.969
 4198SOL    HW114491   9.823  12.509   2.921
 4198SOL    HW214492   9.730  12.509   3.041
 4199SOL     OW14493   5.710   3.050   1.593
 4199SOL    HW114494   5.631   3.102   1.611
 4199SOL    HW214495   5.782   3.106   1.619
 4200SOL     OW14496  14.260   2.503  11.429
 4200SOL    HW114497  14.318   2.457  11.367
 4200SOL    HW214498  14.268   2.595  11.406
 4201SOL     OW14499   0.614   4.014   0.172
 4201SOL    HW114500   0.675   4.086   0.159
 4201SOL    HW214501   0.529   4.056   0.185
 4202SOL     OW14502   5.325   2.549  13.731
 4202SOL    HW114503   5.420   2.536  13.730
 4202SOL    HW214504   5.314   2.644  13.719
 4203SOL     OW14505   8.067  12.773   7.837
 4203SOL    HW114506   8.119  12.804   7.911
 4203SOL    HW214507   8.131  12.758   7.767
 4204SOL     OW14508   2.905   5.801   2.711
 4204SOL    HW114509   2.851   5.866   2.756
 4204SOL    HW214510   2.990   5.808   2.754
 4205SOL     OW14511   5.956   7.009   2.045
 4205SOL    HW114512   5.863   7.030   2.053
 4205SOL    HW214513   5.980   7.037   1.957
 4206SOL     OW14514   8.788   3.715   3.606
 4206SOL    HW114515   8.796   3.622   3.585
 4206SOL    HW214516   8.803   3.760   3.523
 4207SOL     OW14517   1.681   3.244   5.808
 4207SOL    HW114518   1.705   3.257   5.900
 4207SOL    HW214519   1.629   3.164   5.808
 4208SOL     OW14520   1.530   4.435   3.960
 4208SOL    HW114521   1.525   4.346   3.926
 4208SOL    HW214522   1.527   4.425   4.055
 4209SOL     OW14523   9.863   3.777  11.721
 4209SOL    HW114524   9.799   3.752  11.787
 4209SOL    HW214525   9.935   3.716  11.732
 4210SOL     OW14526  13.155  14.275   6.013
 4210SOL    HW114527  13.212  14.351   6.007
 4210SOL    HW214528  13.207  14.208   6.058
 4211SOL     OW14529   2.868   5.182   1.881
 4211SOL    HW114530   2.838   5.249   1.943
 4211SOL    HW214531   2.952   5.215   1.849
 4212SOL     OW14532  10.878   3.464   5.349
 4212SOL    HW114533  10.935   3.514   5.291
 4212SOL    HW214534  10.792   3.466   5.306
 4213SOL     OW14535   0.571   9.488   7.604
 4213SOL    HW114536   0.632   9.561   7.598
 4213SOL    HW214537   0.622   9.417   7.643
 4214SOL     OW14538  13.151   1.733  10.748
 4214SOL    HW114539  13.090   1.796  10.709
 4214SOL    HW214540  13.236   1.756  10.712
 4215SOL     OW14541  12.971   3.095   6.285
 4215SOL    HW114542  12.978   3.008   6.245
 4215SOL    HW214543  12.884   3.096   6.324
 4216SOL     OW14544   3.528  13.436  14.609
 4216SOL    HW114545   3.509  13.422  14.702
 4216SOL    HW214546   3.444  13.422  14.565
 4217SOL     OW14547   5.684   1.320   2.652
 4217SOL    HW114548   5.668   1.334   2.745
 4217SOL    HW214549   5.731   1.237   2.648
 4218SOL     OW14550  13.009   2.470   7.097
 4218SOL    HW114551  12.949   2.501   7.029
 4218SOL    HW214552  13.031   2.548   7.148
 4219SOL     OW14553   0.194   8.665   7.080
 4219SOL    HW114554   0.152   8.579   7.069
 4219SOL    HW214555   0.122   8.727   7.071
 4220SOL     OW14556   9.199  10.578  13.067
 4220SOL    HW114557   9.240  10.649  13.018
 4220SOL    HW214558   9.186  10.509  13.002
 4221SOL     OW14559   2.733   0.973   3.483
 4221SOL    HW114560   2.735   0.877   3.481
 4221SOL    HW214561   2.643   0.995   3.458
 4222SOL     OW14562   1.424   2.371  12.465
 4222SOL    HW114563   1.368   2.446  12.445
 4222SOL    HW214564   1.497   2.378  12.404
 4223SOL     OW14565  12.701   8.413  10.737
 4223SOL    HW114566  12.742   8.485  10.690
 4223SOL    HW214567  12.689   8.344  10.672
 4224SOL     OW14568  12.150   8.660   8.720
 4224SOL    HW114569  12.200   8.674   8.639
 4224SOL    HW214570  12.212   8.681   8.790
 4225SOL     OW14571  10.866   1.375   5.258
 4225SOL    HW114572  10.771   1.358   5.258
 4225SOL    HW214573  10.873   1.468   5.283
 4226SOL     OW14574   8.991  12.602  11.175
 4226SOL    HW114575   9.012  12.622  11.266
 4226SOL    HW214576   8.954  12.513  11.178
 4227SOL     OW14577  12.670  13.686   8.697
 4227SOL    HW114578  12.575  13.698   8.689
 4227SOL    HW214579  12.707  13.773   8.682
 4228SOL     OW14580  10.048  14.160  10.453
 4228SOL    HW114581   9.972  14.103  10.440
 4228SOL    HW214582  10.061  14.162  10.548
 4229SOL     OW14583   5.550   9.066   1.809
 4229SOL    HW114584   5.511   9.025   1.886
 4229SOL    HW214585   5.641   9.083   1.834
 4230SOL     OW14586   0.275  14.246   7.417
 4230SOL    HW114587   0.280  14.285   7.330
 4230SOL    HW214588   0.181  14.241   7.436
 4231SOL     OW14589   6.688   2.696   4.777
 4231SOL    HW114590   6.711   2.784   4.808
 4231SOL    HW214591   6.772   2.649   4.775
 4232SOL     OW14592   4.576  12.113  12.335
 4232SOL    HW114593   4.588  12.034  12.283
 4232SOL    HW214594   4.617  12.183  12.283
 4233SOL     OW14595   9.879   6.206   7.837
 4233SOL    HW114596   9.902   6.249   7.919
 4233SOL    HW214597   9.883   6.275   7.771
 4234SOL     OW14598   4.499   0.606   3.017
 4234SOL    HW114599   4.537   0.564   2.940
 4234SOL    HW214600   4.485   0.696   2.990
 4235SOL     OW14601  13.265   3.957  12.772
 4235SOL    HW114602  13.357   3.965  12.796
 4235SOL    HW214603  13.267   3.915  12.685
 4236SOL     OW14604  12.276  14.301  14.401
 4236SOL    HW114605  12.185  14.320  14.424
 4236SOL    HW214606  12.284  14.206  14.411
 4237SOL     OW14607   8.806   0.184   2.416
 4237SOL    HW114608   8.853   0.198   2.498
 4237SOL    HW214609   8.805   0.270   2.374
 4238SOL     OW14610   5.908   4.379   5.547
 4238SOL    HW114611   5.899   4.404   5.638
 4238SOL    HW214612   5.825   4.405   5.506
 4239SOL     OW14613  14.054   1.693   5.348
 4239SOL    HW114614  14.000   1.665   5.274
 4239SOL    HW214615  14.029   1.783   5.364
 4240SOL     OW14616   7.914   7.244  10.380
 4240SOL    HW114617   7.896   7.246  10.475
 4240SOL    HW214618   7.841   7.193  10.344
 4241SOL     OW14619   8.255   3.911   3.716
 4241SOL    HW114620   8.185   3.874   3.770
 4241SOL    HW214621   8.232   3.885   3.626
 4242SOL     OW14622  13.480   2.424  12.576
 4242SOL    HW114623  13.440   2.470  12.502
 4242SOL    HW214624  13.484   2.333  12.548
 4243SOL     OW14625   7.870   5.121   1.465
 4243SOL    HW114626   7.889   5.063   1.538
 4243SOL    HW214627   7.940   5.105   1.402
 4244SOL     OW14628  11.873   6.808  14.174
 4244SOL    HW114629  11.877   6.893  14.129
 4244SOL    HW214630  11.810   6.823  14.245
 4245SOL     OW14631  12.734   2.406  13.990
 4245SOL    HW114632  12.648   2.447  14.000
 4245SOL    HW214633  12.786   2.472  13.944
 4246SOL     OW14634  11.734   9.749  11.256
 4246SOL    HW114635  11.690   9.821  11.211
 4246SOL    HW214636  11.731   9.773  11.349
 4247SOL     OW14637   5.865   9.325  12.363
 4247SOL    HW114638   5.902   9.335  12.450
 4247SOL    HW214639   5.780   9.369  12.367
 4248SOL     OW14640   0.297   7.960  12.759
 4248SOL    HW114641   0.209   7.984  12.788
 4248SOL    HW214642   0.331   8.040  12.717
 4249SOL     OW14643   9.605   1.334   8.309
 4249SOL    HW114644   9.608   1.429   8.323
 4249SOL    HW214645   9.632   1.322   8.218
 4250SOL     OW14646   4.528   6.085   3.268
 4250SOL    HW114647   4.535   6.006   3.322
 4250SOL    HW214648   4.434   6.100   3.260
 4251SOL     OW14649  12.738   1.561   4.578
 4251SOL    HW114650  12.695   1.572   4.663
 4251SOL    HW214651  12.692   1.621   4.520
 4252SOL     OW14652   0.218   9.603  14.600
 4252SOL    HW114653   0.162   9.553  14.659
 4252SOL    HW214654   0.307   9.572  14.619
 4253SOL     OW14655  12.170   3.796   0.470
 4253SOL    HW114656  12.113   3.845   0.528
 4253SOL    HW214657  12.127   3.711   0.458
 4254SOL     OW14658   2.003  10.980  13.110
 4254SOL    HW114659   2.035  10.934  13.032
 4254SOL    HW214660   1.974  10.910  13.169
 4255SOL     OW14661   8.180   2.021   1.674
 4255SOL    HW114662   8.267   2.037   1.636
 4255SOL    HW214663   8.185   2.059   1.761
 4256SOL     OW14664  14.440  11.679   3.768
 4256SOL    HW114665  14.370  11.711   3.711
 4256SOL    HW214666  14.414  11.590   3.790
 4257SOL     OW14667   1.381  11.948   7.258
 4257SOL    HW114668   1.415  12.007   7.325
 4257SOL    HW214669   1.420  11.979   7.176
 4258SOL     OW14670   6.456   2.797   4.663
 4258SOL    HW114671   6.412   2.724   4.619
 4258SOL    HW214672   6.531   2.756   4.707
 4259SOL     OW14673   2.234   9.105   7.430
 4259SOL    HW114674   2.141   9.117   7.414
 4259SOL    HW214675   2.265   9.055   7.354
 4260SOL     OW14676   2.339   4.647   5.174
 4260SOL    HW114677   2.297   4.686   5.250
 4260SOL    HW214678   2.426   4.622   5.205
 4261SOL     OW14679   4.085  13.950   7.431
 4261SOL    HW114680   4.001  13.997   7.438
 4261SOL    HW214681   4.068  13.881   7.367
 4262SOL     OW14682   1.396   5.661  12.177
 4262SOL    HW114683   1.428   5.582  12.219
 4262SOL    HW214684   1.475   5.709  12.151
 4263SOL     OW14685  13.402   7.898  10.396
 4263SOL    HW114686  13.416   7.803  10.398
 4263SOL    HW214687  13.425   7.928  10.484
 4264SOL     OW14688   8.731   1.589   6.766
 4264SOL    HW114689   8.758   1.535   6.840
 4264SOL    HW214690   8.744   1.532   6.690
 4265SOL     OW14691  13.731   9.889   8.109
 4265SOL    HW114692  13.821   9.871   8.136
 4265SOL    HW214693  13.705   9.811   8.059
 4266SOL     OW14694   9.418   8.240  12.187
 4266SOL    HW114695   9.490   8.176  12.190
 4266SOL    HW214696   9.366   8.222  12.265
 4267SOL     OW14697   6.505   0.777  11.972
 4267SOL    HW114698   6.450   0.774  12.050
 4267SOL    HW214699   6.460   0.722  11.908
 4268SOL     OW14700   4.517  13.224  13.621
 4268SOL    HW114701   4.524  13.313  13.587
 4268SOL    HW214702   4.553  13.169  13.552
 4269SOL     OW14703  13.036  13.092   1.395
 4269SOL    HW114704  13.046  13.136   1.479
 4269SOL    HW214705  12.941  13.084   1.384
 4270SOL     OW14706   9.309   4.702   4.473
 4270SOL    HW114707   9.343   4.685   4.385
 4270SOL    HW214708   9.215   4.690   4.466
 4271SOL     OW14709  13.125   3.129  13.122
 4271SOL    HW114710  13.167   3.043  13.113
 4271SOL    HW214711  13.191   3.192  13.094
 4272SOL     OW14712   5.651   5.058   9.853
 4272SOL    HW114713   5.642   5.138   9.803
 4272SOL    HW214714   5.584   5.064   9.922
 4273SOL     OW14715   7.888   9.227  10.157
 4273SOL    HW114716   7.911   9.136  10.177
 4273SOL    HW214717   7.847   9.260  10.237
 4274SOL     OW14718   4.108   4.837   7.810
 4274SOL    HW114719   4.171   4.783   7.763
 4274SOL    HW214720   4.027   4.787   7.807
 4275SOL     OW14721   6.862  11.831  12.169
 4275SOL    HW114722   6.835  11.792  12.086
 4275SOL    HW214723   6.782  11.869  12.205
 4276SOL     OW14724  11.904   7.342   7.644
 4276SOL    HW114725  11.966   7.320   7.574
 4276SOL    HW214726  11.941   7.419   7.686
 4277SOL     OW14727   9.645  12.710   2.082
 4277SOL    HW114728   9.594  12.737   2.159
 4277SOL    HW214729   9.679  12.792   2.047
 4278SOL     OW14730   0.498   2.698  12.282
 4278SOL    HW114731   0.409   2.725  12.261
 4278SOL    HW214732   0.544   2.780  12.300
 4279SOL     OW14733   1.472  11.784   5.885
 4279SOL    HW114734   1.442  11.841   5.956
 4279SOL    HW214735   1.536  11.726   5.926
 4280SOL     OW14736  13.390   1.994  12.683
 4280SOL    HW114737  13.467   1.978  12.737
 4280SOL    HW214738  13.334   1.918  12.698
 4281SOL     OW14739   7.825  14.308  13.823
 4281SOL    HW114740   7.842  14.368  13.750
 4281SOL    HW214741   7.732  14.286  13.815
 4282SOL     OW14742  12.103  12.310  12.177
 4282SOL    HW114743  12.133  12.219  12.171
 4282SOL    HW214744  12.160  12.350  12.243
 4283SOL     OW14745   1.168   6.220   3.695
 4283SOL    HW114746   1.101   6.176   3.643
 4283SOL    HW214747   1.123   6.294   3.736
 4284SOL     OW14748  11.064   7.844   3.752
 4284SOL    HW114749  11.015   7.925   3.741
 4284SOL    HW214750  11.008   7.776   3.714
 4285SOL     OW14751  11.935  11.899   5.995
 4285SOL    HW114752  12.013  11.935   6.036
 4285SOL    HW214753  11.957  11.807   5.978
 4286SOL     OW14754   3.899   5.225   8.161
 4286SOL    HW114755   3.814   5.254   8.128
 4286SOL    HW214756   3.962   5.288   8.125
 4287SOL     OW14757  10.784  14.183  14.415
 4287SOL    HW114758  10.767  14.275  14.437
 4287SOL    HW214759  10.734  14.134  14.480
 4288SOL     OW14760   8.621   2.863   1.865
 4288SOL    HW114761   8.693   2.916   1.900
 4288SOL    HW214762   8.583   2.917   1.796
 4289SOL     OW14763  12.256  14.703  13.229
 4289SOL    HW114764  12.273  14.622  13.182
 4289SOL    HW214765  12.290  14.689  13.317
 4290SOL     OW14766   5.923   1.622  14.039
 4290SOL    HW114767   5.829   1.614  14.024
 4290SOL    HW214768   5.947   1.541  14.083
 4291SOL     OW14769   7.559  11.388  10.702
 4291SOL    HW114770   7.635  11.371  10.647
 4291SOL    HW214771   7.567  11.481  10.725
 4292SOL     OW14772  12.281  14.577   5.522
 4292SOL    HW114773  12.241  14.662   5.539
 4292SOL    HW214774  12.237  14.545   5.442
 4293SOL     OW14775  13.578  13.136   9.481
 4293SOL    HW114776  13.643  13.105   9.544
 4293SOL    HW214777  13.616  13.115   9.395
 4294SOL     OW14778   5.020   3.456   1.764
 4294SOL    HW114779   4.935   3.476   1.725
 4294SOL    HW214780   5.077   3.527   1.734
 4295SOL     OW14781  13.079   4.510  13.075
 4295SOL    HW114782  13.165   4.550  13.063
 4295SOL    HW214783  13.097   4.417  13.086
 4296SOL     OW14784   3.457   8.296   4.136
 4296SOL    HW114785   3.421   8.211   4.108
 4296SOL    HW214786   3.550   8.291   4.114
 4297SOL     OW14787   9.115  13.840  12.491
 4297SOL    HW114788   9.063  13.852  12.412
 4297SOL    HW214789   9.084  13.908  12.552
 4298SOL     OW14790  14.635   8.676   6.716
 4298SOL    HW114791  14.625   8.766   6.746
 4298SOL    HW214792  14.715   8.678   6.662
 4299SOL     OW14793   4.620   5.142  12.201
 4299SOL    HW114794   4.613   5.067  12.261
 4299SOL    HW214795   4.589   5.108  12.117
 4300SOL     OW14796  13.137  14.182  12.452
 4300SOL    HW114797  13.102  14.128  12.523
 4300SOL    HW214798  13.181  14.254  12.496
 4301SOL     OW14799   7.420   9.137   4.608
 4301SOL    HW114800   7.513   9.139   4.585
 4301SOL    HW214801   7.383   9.212   4.562
 4302SOL     OW14802  12.682  13.632  14.782
 4302SOL    HW114803  12.753  13.661  14.725
 4302SOL    HW214804  12.664  13.706  14.839
 4303SOL     OW14805  11.137   5.363  13.685
 4303SOL    HW114806  11.228   5.393  13.675
 4303SOL    HW214807  11.106   5.408  13.764
 4304SOL     OW14808   7.802   1.502   5.915
 4304SOL    HW114809   7.729   1.446   5.891
 4304SOL    HW214810   7.859   1.446   5.968
 4305SOL     OW14811   7.415  12.092   3.775
 4305SOL    HW114812   7.342  12.154   3.776
 4305SOL    HW214813   7.485  12.137   3.822
 4306SOL     OW14814   7.218  13.548  14.612
 4306SOL    HW114815   7.267  13.575  14.689
 4306SOL    HW214816   7.237  13.455  14.602
 4307SOL     OW14817   2.015   2.594   7.698
 4307SOL    HW114818   1.931   2.629   7.727
 4307SOL    HW214819   2.072   2.670   7.692
 4308SOL     OW14820   0.065  12.047   2.505
 4308SOL    HW114821   0.055  12.134   2.544
 4308SOL    HW214822   0.157  12.042   2.481
 4309SOL     OW14823   7.651   8.631  10.955
 4309SOL    HW114824   7.642   8.726  10.950
 4309SOL    HW214825   7.571   8.602  11.000
 4310SOL     OW14826   9.782   7.697  12.924
 4310SOL    HW114827   9.756   7.614  12.963
 4310SOL    HW214828   9.724   7.762  12.965
 4311SOL     OW14829  14.745   0.179  13.410
 4311SOL    HW114830  14.840   0.167  13.412
 4311SOL    HW214831  14.733   0.273  13.408
 4312SOL     OW14832   5.270  14.255   8.049
 4312SOL    HW114833   5.272  14.351   8.048
 4312SOL    HW214834   5.251  14.232   8.139
 4313SOL     OW14835  10.264   3.908  12.881
 4313SOL    HW114836  10.283   3.998  12.855
 4313SOL    HW214837  10.175   3.892  12.852
 4314SOL     OW14838   0.807   6.380   5.554
 4314SOL    HW114839   0.817   6.299   5.503
 4314SOL    HW214840   0.826   6.450   5.491
 4315SOL     OW14841   8.283   2.941   7.953
 4315SOL    HW114842   8.268   2.898   7.869
 4315SOL    HW214843   8.277   2.870   8.017
 4316SOL     OW14844   0.624   1.799   7.425
 4316SOL    HW114845   0.655   1.858   7.357
 4316SOL    HW214846   0.698   1.740   7.441
 4317SOL     OW14847  12.161  13.999  14.040
 4317SOL    HW114848  12.208  13.917  14.052
 4317SOL    HW214849  12.228  14.060  14.008
 4318SOL     OW14850   8.961  10.483  10.419
 4318SOL    HW114851   8.870  10.475  10.448
 4318SOL    HW214852   8.958  10.550  10.350
 4319SOL     OW14853  13.282   8.288   7.804
 4319SOL    HW114854  13.235   8.343   7.866
 4319SOL    HW214855  13.219   8.219   7.780
 4320SOL     OW14856   1.452  11.584   9.833
 4320SOL    HW114857   1.510  11.548   9.900
 4320SOL    HW214858   1.365  11.555   9.860
 4321SOL     OW14859   5.479  14.734   5.551
 4321SOL    HW114860   5.565  14.721   5.511
 4321SOL    HW214861   5.422  14.759   5.478
 4322SOL     OW14862  13.112  10.464   1.043
 4322SOL    HW114863  13.125  10.432   1.132
 4322SOL    HW214864  13.137  10.391   0.987
 4323SOL     OW14865   0.268  12.069  13.790
 4323SOL    HW114866   0.314  12.012  13.728
 4323SOL    HW214867   0.337  12.124  13.828
 4324SOL     OW14868   6.217   0.682  14.118
 4324SOL    HW114869   6.292   0.661  14.063
 4324SOL    HW214870   6.152   0.719  14.059
 4325SOL     OW14871   6.659  13.275   2.802
 4325SOL    HW114872   6.597  13.345   2.782
 4325SOL    HW214873   6.664  13.274   2.897
 4326SOL     OW14874  13.012   7.538   0.213
 4326SOL    HW114875  12.984   7.543   0.121
 4326SOL    HW214876  13.083   7.474   0.214
 4327SOL     OW14877   6.555   2.630   8.226
 4327SOL    HW114878   6.639   2.671   8.206
 4327SOL    HW214879   6.559   2.611   8.320
 4328SOL     OW14880   6.717   1.110   2.425
 4328SOL    HW114881   6.745   1.107   2.333
 4328SOL    HW214882   6.703   1.203   2.442
 4329SOL     OW14883   0.859   4.450   4.975
 4329SOL    HW114884   0.836   4.450   5.068
 4329SOL    HW214885   0.944   4.492   4.972
 4330SOL     OW14886   1.640   4.975   7.083
 4330SOL    HW114887   1.658   5.066   7.058
 4330SOL    HW214888   1.712   4.951   7.141
 4331SOL     OW14889   2.528   9.865  14.300
 4331SOL    HW114890   2.577   9.947  14.300
 4331SOL    HW214891   2.484   9.863  14.215
 4332SOL     OW14892  10.805   9.836   9.035
 4332SOL    HW114893  10.800   9.863   9.127
 4332SOL    HW214894  10.835   9.914   8.989
 4333SOL     OW14895   1.765  13.340   2.502
 4333SOL    HW114896   1.780  13.346   2.408
 4333SOL    HW214897   1.851  13.321   2.540
 4334SOL     OW14898  11.175   4.897   9.027
 4334SOL    HW114899  11.083   4.882   9.048
 4334SOL    HW214900  11.181   4.991   9.012
 4335SOL     OW14901  11.354  11.924   8.025
 4335SOL    HW114902  11.407  11.953   8.100
 4335SOL    HW214903  11.313  11.843   8.056
 4336SOL     OW14904   3.980  14.063   7.131
 4336SOL    HW114905   3.984  14.143   7.182
 4336SOL    HW214906   3.887  14.037   7.134
 4337SOL     OW14907   3.684   8.191   5.146
 4337SOL    HW114908   3.690   8.097   5.162
 4337SOL    HW214909   3.775   8.220   5.140
 4338SOL     OW14910  13.847   3.285   7.338
 4338SOL    HW114911  13.752   3.288   7.349
 4338SOL    HW214912  13.877   3.373   7.362
 4339SOL     OW14913  14.569   6.817  13.439
 4339SOL    HW114914  14.481   6.778  13.442
 4339SOL    HW214915  14.602   6.811  13.528
 4340SOL     OW14916  12.887  13.519   2.976
 4340SOL    HW114917  12.947  13.472   2.918
 4340SOL    HW214918  12.869  13.602   2.931
 4341SOL     OW14919   4.454   6.591   9.624
 4341SOL    HW114920   4.510   6.621   9.553
 4341SOL    HW214921   4.510   6.536   9.679
 4342SOL     OW14922   7.977   9.326   5.326
 4342SOL    HW114923   7.910   9.291   5.385
 4342SOL    HW214924   8.050   9.348   5.383
 4343SOL     OW14925   9.476   7.157  10.609
 4343SOL    HW114926   9.384   7.184  10.603
 4343SOL    HW214927   9.525   7.232  10.575
 4344SOL     OW14928   5.961   8.482   7.718
 4344SOL    HW114929   5.890   8.437   7.762
 4344SOL    HW214930   5.994   8.419   7.654
 4345SOL     OW14931   1.152  12.809   2.358
 4345SOL    HW114932   1.077  12.845   2.310
 4345SOL    HW214933   1.209  12.885   2.372
 4346SOL     OW14934  10.677   1.785   2.688
 4346SOL    HW114935  10.583   1.780   2.669
 4346SOL    HW214936  10.697   1.701   2.729
 4347SOL     OW14937   1.663   4.493  14.168
 4347SOL    HW114938   1.694   4.402  14.167
 4347SOL    HW214939   1.742   4.545  14.163
 4348SOL     OW14940   9.899  10.645  10.986
 4348SOL    HW114941   9.961  10.717  10.976
 4348SOL    HW214942   9.885  10.612  10.897
 4349SOL     OW14943   7.922   5.900   9.650
 4349SOL    HW114944   7.925   5.848   9.731
 4349SOL    HW214945   7.829   5.902   9.627
 4350SOL     OW14946  12.223  14.612   9.311
 4350SOL    HW114947  12.298  14.672   9.306
 4350SOL    HW214948  12.216  14.576   9.222
 4351SOL     OW14949   3.788  11.026   9.908
 4351SOL    HW114950   3.764  11.109   9.949
 4351SOL    HW214951   3.705  10.988   9.881
 4352SOL     OW14952   4.394  12.295  14.614
 4352SOL    HW114953   4.381  12.361  14.682
 4352SOL    HW214954   4.448  12.228  14.655
 4353SOL     OW14955   6.239   5.893  13.760
 4353SOL    HW114956   6.281   5.891  13.674
 4353SOL    HW214957   6.256   5.807  13.797
 4354SOL     OW14958  14.694   9.093  12.338
 4354SOL    HW114959  14.731   9.053  12.417
 4354SOL    HW214960  14.658   9.020  12.288
 4355SOL     OW14961  12.791   2.363   8.344
 4355SOL    HW114962  12.853   2.300   8.309
 4355SOL    HW214963  12.721   2.309   8.381
 4356SOL     OW14964   4.899   5.168  13.424
 4356SOL    HW114965   4.959   5.093  13.422
 4356SOL    HW214966   4.955   5.244  13.440
 4357SOL     OW14967   1.920  13.085  11.248
 4357SOL    HW114968   1.894  13.107  11.337
 4357SOL    HW214969   2.003  13.038  11.258
 4358SOL     OW14970   3.767   4.125   7.757
 4358SOL    HW114971   3.838   4.146   7.697
 4358SOL    HW214972   3.785   4.178   7.835
 4359SOL     OW14973   6.986   1.527   2.591
 4359SOL    HW114974   7.055   1.558   2.651
 4359SOL    HW214975   6.906   1.532   2.642
 4360SOL     OW14976   5.574  11.269   8.343
 4360SOL    HW114977   5.497  11.312   8.383
 4360SOL    HW214978   5.646  11.291   8.402
 4361SOL     OW14979  14.437  10.896   6.692
 4361SOL    HW114980  14.502  10.857   6.633
 4361SOL    HW214981  14.398  10.967   6.641
 4362SOL     OW14982  13.831   2.482  11.354
 4362SOL    HW114983  13.788   2.504  11.436
 4362SOL    HW214984  13.908   2.431  11.380
 4363SOL     OW14985   6.670   0.452  11.894
 4363SOL    HW114986   6.688   0.532  11.845
 4363SOL    HW214987   6.756   0.418  11.917
 4364SOL     OW14988   4.133   6.619   1.747
 4364SOL    HW114989   4.095   6.657   1.827
 4364SOL    HW214990   4.227   6.631   1.758
 4365SOL     OW14991  11.692  13.612   9.309
 4365SOL    HW114992  11.652  13.525   9.309
 4365SOL    HW214993  11.786  13.595   9.311
 4366SOL     OW14994  12.497   3.959  11.705
 4366SOL    HW114995  12.416   3.916  11.732
 4366SOL    HW214996  12.471   4.047  11.679
 4367SOL     OW14997  13.640   6.897   4.163
 4367SOL    HW114998  13.609   6.902   4.253
 4367SOL    HW214999  13.570   6.851   4.116
 4368SOL     OW15000   8.167   1.329   4.803
 4368SOL    HW115001   8.199   1.404   4.752
 4368SOL    HW215002   8.075   1.349   4.821
 4369SOL     OW15003   8.855   7.050   7.501
 4369SOL    HW115004   8.899   7.131   7.478
 4369SOL    HW215005   8.865   6.994   7.424
 4370SOL     OW15006  14.704   5.178   0.645
 4370SOL    HW115007  14.724   5.100   0.594
 4370SOL    HW215008  14.632   5.220   0.599
 4371SOL     OW15009  12.614   9.089   1.574
 4371SOL    HW115010  12.550   9.160   1.569
 4371SOL    HW215011  12.634   9.080   1.667
 4372SOL     OW15012   1.989   4.214   8.743
 4372SOL    HW115013   1.989   4.139   8.682
 4372SOL    HW215014   2.078   4.215   8.779
 4373SOL     OW15015  10.970  13.174   9.267
 4373SOL    HW115016  11.044  13.158   9.324
 4373SOL    HW215017  10.903  13.112   9.297
 4374SOL     OW15018   7.091  11.992   8.727
 4374SOL    HW115019   7.176  12.034   8.744
 4374SOL    HW215020   7.031  12.033   8.789
 4375SOL     OW15021   8.179   2.491  14.069
 4375SOL    HW115022   8.196   2.430  13.999
 4375SOL    HW215023   8.121   2.444  14.129
 4376SOL     OW15024  11.921   6.123   5.900
 4376SOL    HW115025  11.930   6.104   5.993
 4376SOL    HW215026  11.837   6.084   5.875
 4377SOL     OW15027   6.954  13.594  14.524
 4377SOL    HW115028   6.932  13.687  14.527
 4377SOL    HW215029   7.044  13.590  14.557
 4378SOL     OW15030   2.074   6.781   7.250
 4378SOL    HW115031   2.161   6.821   7.259
 4378SOL    HW215032   2.067   6.723   7.325
 4379SOL     OW15033   8.150  14.814   6.785
 4379SOL    HW115034   8.106  14.776   6.709
 4379SOL    HW215035   8.239  14.834   6.754
 4380SOL     OW15036  14.253   5.659   2.079
 4380SOL    HW115037  14.292   5.642   1.993
 4380SOL    HW215038  14.214   5.576   2.104
 4381SOL     OW15039   5.456   2.437  10.389
 4381SOL    HW115040   5.521   2.377  10.354
 4381SOL    HW215041   5.404   2.384  10.450
 4382SOL     OW15042   1.328  13.377   9.141
 4382SOL    HW115043   1.263  13.378   9.212
 4382SOL    HW215044   1.380  13.299   9.159
 4383SOL     OW15045   5.434  12.408   1.916
 4383SOL    HW115046   5.402  12.389   1.828
 4383SOL    HW215047   5.496  12.337   1.935
 4384SOL     OW15048   5.933   8.279  11.374
 4384SOL    HW115049   5.953   8.334  11.450
 4384SOL    HW215050   5.905   8.340  11.306
 4385SOL     OW15051   0.843   3.640   5.605
 4385SOL    HW115052   0.796   3.596   5.676
 4385SOL    HW215053   0.784   3.635   5.530
 4386SOL     OW15054  10.716   0.736  10.459
 4386SOL    HW115055  10.629   0.762  10.489
 4386SOL    HW215056  10.768   0.816  10.465
 4387SOL     OW15057   7.865   8.035  11.303
 4387SOL    HW115058   7.807   8.016  11.378
 4387SOL    HW215059   7.892   8.126  11.317
 4388SOL     OW15060   0.128   4.595   3.455
 4388SOL    HW115061   0.046   4.587   3.504
 4388SOL    HW215062   0.105   4.576   3.365
 4389SOL     OW15063  13.448   0.922  13.839
 4389SOL    HW115064  13.480   0.933  13.749
 4389SOL    HW215065  13.526   0.937  13.894
 4390SOL     OW15066  13.114   2.637   1.452
 4390SOL    HW115067  13.054   2.696   1.497
 4390SOL    HW215068  13.063   2.602   1.379
 4391SOL     OW15069   9.330  10.314   4.517
 4391SOL    HW115070   9.394  10.287   4.583
 4391SOL    HW215071   9.249  10.269   4.542
 4392SOL     OW15072   3.926   2.747   7.785
 4392SOL    HW115073   3.880   2.667   7.810
 4392SOL    HW215074   3.945   2.790   7.869
 4393SOL     OW15075  14.065   9.901   1.411
 4393SOL    HW115076  14.059   9.858   1.325
 4393SOL    HW215077  14.102   9.987   1.392
 4394SOL     OW15078   4.048   9.896   3.658
 4394SOL    HW115079   4.086   9.813   3.632
 4394SOL    HW215080   4.122   9.957   3.659
 4395SOL     OW15081   5.264   8.143   7.361
 4395SOL    HW115082   5.304   8.133   7.275
 4395SOL    HW215083   5.331   8.184   7.415
 4396SOL     OW15084   6.572  13.712   1.680
 4396SOL    HW115085   6.574  13.649   1.752
 4396SOL    HW215086   6.607  13.664   1.605
 4397SOL     OW15087  10.954  11.459   7.454
 4397SOL    HW115088  10.916  11.405   7.385
 4397SOL    HW215089  11.035  11.414   7.478
 4398SOL     OW15090   5.496  13.585  13.301
 4398SOL    HW115091   5.506  13.617  13.211
 4398SOL    HW215092   5.564  13.631  13.350
 4399SOL     OW15093  13.027  11.159   6.518
 4399SOL    HW115094  13.023  11.070   6.484
 4399SOL    HW215095  13.118  11.171   6.545
 4400SOL     OW15096   2.742  12.974  10.283
 4400SOL    HW115097   2.817  13.016  10.324
 4400SOL    HW215098   2.779  12.928  10.208
 4401SOL     OW15099   2.445  13.587   8.722
 4401SOL    HW115100   2.484  13.503   8.701
 4401SOL    HW215101   2.351  13.568   8.730
 4402SOL     OW15102   7.650  13.321   1.054
 4402SOL    HW115103   7.652  13.231   1.021
 4402SOL    HW215104   7.741  13.350   1.049
 4403SOL     OW15105   7.345   1.977   8.480
 4403SOL    HW115106   7.433   2.007   8.459
 4403SOL    HW215107   7.332   2.003   8.572
 4404SOL     OW15108  11.125  14.387   6.550
 4404SOL    HW115109  11.094  14.317   6.608
 4404SOL    HW215110  11.102  14.468   6.595
 4405SOL     OW15111   0.823   8.730   5.558
 4405SOL    HW115112   0.892   8.730   5.625
 4405SOL    HW215113   0.844   8.804   5.502
 4406SOL     OW15114   5.358   4.043  12.863
 4406SOL    HW115115   5.332   3.952  12.881
 4406SOL    HW215116   5.313   4.065  12.782
 4407SOL     OW15117   8.160   1.366  10.678
 4407SOL    HW115118   8.104   1.306  10.628
 4407SOL    HW215119   8.159   1.447  10.628
 4408SOL     OW15120   6.112  10.399   1.667
 4408SOL    HW115121   6.132  10.409   1.760
 4408SOL    HW215122   6.160  10.469   1.624
 4409SOL     OW15123   5.977   0.118   2.652
 4409SOL    HW115124   5.956   0.141   2.742
 4409SOL    HW215125   5.928   0.180   2.598
 4410SOL     OW15126   4.947  11.508   1.075
 4410SOL    HW115127   4.897  11.491   1.154
 4410SOL    HW215128   5.038  11.493   1.101
 4411SOL     OW15129  10.354  12.391   4.989
 4411SOL    HW115130  10.293  12.463   5.006
 4411SOL    HW215131  10.358  12.342   5.071
 4412SOL     OW15132   9.994  10.837   4.978
 4412SOL    HW115133   9.995  10.783   5.057
 4412SOL    HW215134   9.946  10.785   4.914
 4413SOL     OW15135   3.104  11.487   0.736
 4413SOL    HW115136   3.190  11.453   0.759
 4413SOL    HW215137   3.048  11.466   0.811
 4414SOL     OW15138   2.482   1.348   6.519
 4414SOL    HW115139   2.501   1.395   6.600
 4414SOL    HW215140   2.422   1.278   6.545
 4415SOL     OW15141   8.982   0.013   2.228
 4415SOL    HW115142   8.952   0.050   2.311
 4415SOL    HW215143   9.073  14.855   2.244
 4416SOL     OW15144   9.421  10.112   3.660
 4416SOL    HW115145   9.448  10.176   3.726
 4416SOL    HW215146   9.489  10.116   3.593
 4417SOL     OW15147   8.703   9.868  14.313
 4417SOL    HW115148   8.768   9.920  14.266
 4417SOL    HW215149   8.736   9.778  14.308
 4418SOL     OW15150   1.687  12.050  14.558
 4418SOL    HW115151   1.627  12.099  14.615
 4418SOL    HW215152   1.759  12.111  14.540
 4419SOL     OW15153   3.672  14.313  14.604
 4419SOL    HW115154   3.602  14.377  14.588
 4419SOL    HW215155   3.728  14.319  14.527
 4420SOL     OW15156   8.134  13.652   4.476
 4420SOL    HW115157   8.148  13.747   4.472
 4420SOL    HW215158   8.040  13.643   4.491
 4421SOL     OW15159  10.159  11.071   5.366
 4421SOL    HW115160  10.242  11.071   5.319
 4421SOL    HW215161  10.147  11.162   5.392
 4422SOL     OW15162   4.669   6.691   4.547
 4422SOL    HW115163   4.670   6.780   4.582
 4422SOL    HW215164   4.761   6.666   4.543
 4423SOL     OW15165  11.308   1.568   0.963
 4423SOL    HW115166  11.330   1.497   0.902
 4423SOL    HW215167  11.387   1.580   1.015
 4424SOL     OW15168  11.494   5.238   4.754
 4424SOL    HW115169  11.441   5.201   4.684
 4424SOL    HW215170  11.439   5.230   4.832
 4425SOL     OW15171   6.569   5.951  11.332
 4425SOL    HW115172   6.538   6.003  11.406
 4425SOL    HW215173   6.607   6.016  11.272
 4426SOL     OW15174  12.389   7.755   4.270
 4426SOL    HW115175  12.382   7.663   4.295
 4426SOL    HW215176  12.352   7.759   4.182
 4427SOL     OW15177   7.562   6.743   5.583
 4427SOL    HW115178   7.547   6.720   5.674
 4427SOL    HW215179   7.643   6.697   5.559
 4428SOL     OW15180   0.196   8.141   7.840
 4428SOL    HW115181   0.263   8.167   7.777
 4428SOL    HW215182   0.113   8.152   7.793
 4429SOL     OW15183   0.308   1.357  12.390
 4429SOL    HW115184   0.252   1.388  12.319
 4429SOL    HW215185   0.256   1.367  12.469
 4430SOL     OW15186   4.658   6.819   8.361
 4430SOL    HW115187   4.712   6.866   8.298
 4430SOL    HW215188   4.665   6.870   8.442
 4431SOL     OW15189   2.307   9.545   2.720
 4431SOL    HW115190   2.231   9.599   2.745
 4431SOL    HW215191   2.382   9.603   2.733
 4432SOL     OW15192   2.551   1.142   5.681
 4432SOL    HW115193   2.618   1.123   5.747
 4432SOL    HW215194   2.600   1.148   5.599
 4433SOL     OW15195   0.822   3.335  13.135
 4433SOL    HW115196   0.898   3.379  13.096
 4433SOL    HW215197   0.839   3.337  13.229
 4434SOL     OW15198  11.517  14.435   2.094
 4434SOL    HW115199  11.581  14.397   2.033
 4434SOL    HW215200  11.432  14.419   2.053
 4435SOL     OW15201   7.218   7.638   3.515
 4435SOL    HW115202   7.135   7.591   3.511
 4435SOL    HW215203   7.244   7.634   3.607
 4436SOL     OW15204  13.606   0.174  13.492
 4436SOL    HW115205  13.660   0.230  13.436
 4436SOL    HW215206  13.536   0.231  13.523
 4437SOL     OW15207   3.350   7.118   5.111
 4437SOL    HW115208   3.425   7.073   5.073
 4437SOL    HW215209   3.343   7.199   5.061
 4438SOL     OW15210   0.831  13.488   7.114
 4438SOL    HW115211   0.903  13.549   7.121
 4438SOL    HW215212   0.836  13.454   7.024
 4439SOL     OW15213  13.077   9.677   0.254
 4439SOL    HW115214  13.061   9.607   0.191
 4439SOL    HW215215  13.002   9.672   0.314
 4440SOL     OW15216  11.292   8.495   2.790
 4440SOL    HW115217  11.340   8.556   2.846
 4440SOL    HW215218  11.257   8.549   2.720
 4441SOL     OW15219  14.554  12.550   8.418
 4441SOL    HW115220  14.648  12.547   8.403
 4441SOL    HW215221  14.538  12.482   8.484
 4442SOL     OW15222   4.165  10.613   0.163
 4442SOL    HW115223   4.078  10.575   0.168
 4442SOL    HW215224   4.175  10.661   0.245
 4443SOL     OW15225   6.257  10.754   7.873
 4443SOL    HW115226   6.314  10.757   7.797
 4443SOL    HW215227   6.316  10.757   7.948
 4444SOL     OW15228  10.970  12.618   2.361
 4444SOL    HW115229  11.037  12.588   2.422
 4444SOL    HW215230  10.893  12.635   2.415
 4445SOL     OW15231  14.670  12.290   2.800
 4445SOL    HW115232  14.618  12.316   2.875
 4445SOL    HW215233  14.731  12.224   2.834
 4446SOL     OW15234  14.006  12.587   5.988
 4446SOL    HW115235  13.950  12.648   5.938
 4446SOL    HW215236  13.947  12.517   6.015
 4447SOL     OW15237   3.773   9.841  13.690
 4447SOL    HW115238   3.706   9.873  13.750
 4447SOL    HW215239   3.840   9.803  13.747
 4448SOL     OW15240  11.658   4.872   1.458
 4448SOL    HW115241  11.739   4.858   1.507
 4448SOL    HW215242  11.684   4.929   1.385
 4449SOL     OW15243   9.727   8.176   4.157
 4449SOL    HW115244   9.731   8.080   4.149
 4449SOL    HW215245   9.779   8.195   4.235
 4450SOL     OW15246   5.405  10.096   7.953
 4450SOL    HW115247   5.330  10.095   7.893
 4450SOL    HW215248   5.471  10.041   7.910
 4451SOL     OW15249  14.113  14.518   8.442
 4451SOL    HW115250  14.168  14.567   8.503
 4451SOL    HW215251  14.028  14.511   8.486
 4452SOL     OW15252   5.329   6.298   4.063
 4452SOL    HW115253   5.406   6.350   4.039
 4452SOL    HW215254   5.356   6.251   4.142
 4453SOL     OW15255   4.521  13.248   1.696
 4453SOL    HW115256   4.492  13.282   1.612
 4453SOL    HW215257   4.441  13.218   1.739
 4454SOL     OW15258   6.584   3.525   7.414
 4454SOL    HW115259   6.502   3.574   7.417
 4454SOL    HW215260   6.652   3.590   7.434
 4455SOL     OW15261   5.907   6.993   2.444
 4455SOL    HW115262   5.995   7.030   2.450
 4455SOL    HW215263   5.892   6.954   2.530
 4456SOL     OW15264   9.027   1.047   1.728
 4456SOL    HW115265   9.053   0.955   1.717
 4456SOL    HW215266   9.107   1.091   1.756
 4457SOL     OW15267  13.644   1.093   3.521
 4457SOL    HW115268  13.565   1.147   3.526
 4457SOL    HW215269  13.649   1.050   3.607
 4458SOL     OW15270   4.920  13.681   6.220
 4458SOL    HW115271   4.873  13.597   6.229
 4458SOL    HW215272   4.985  13.665   6.153
 4459SOL     OW15273   9.468  12.439   5.368
 4459SOL    HW115274   9.556  12.426   5.404
 4459SOL    HW215275   9.483  12.484   5.285
 4460SOL     OW15276  14.367  12.678  10.645
 4460SOL    HW115277  14.453  12.716  10.627
 4460SOL    HW215278  14.312  12.752  10.669
 4461SOL     OW15279   1.675  14.753   4.407
 4461SOL    HW115280   1.580  14.761   4.393
 4461SOL    HW215281   1.694  14.662   4.387
 4462SOL     OW15282   5.957   2.881   4.305
 4462SOL    HW115283   5.941   2.976   4.298
 4462SOL    HW215284   5.956   2.863   4.399
 4463SOL     OW15285   1.661   8.128   3.804
 4463SOL    HW115286   1.697   8.169   3.725
 4463SOL    HW215287   1.575   8.169   3.814
 4464SOL     OW15288   1.406   9.455   9.237
 4464SOL    HW115289   1.498   9.428   9.238
 4464SOL    HW215290   1.384   9.468   9.329
 4465SOL     OW15291   3.482  12.608  12.568
 4465SOL    HW115292   3.470  12.531  12.513
 4465SOL    HW215293   3.394  12.643  12.580
 4466SOL     OW15294   5.663  13.435   9.172
 4466SOL    HW115295   5.577  13.395   9.161
 4466SOL    HW215296   5.717  13.366   9.212
 4467SOL     OW15297   5.970  11.897   5.380
 4467SOL    HW115298   5.919  11.833   5.331
 4467SOL    HW215299   5.931  11.897   5.467
 4468SOL     OW15300   4.847   9.177   8.904
 4468SOL    HW115301   4.832   9.269   8.881
 4468SOL    HW215302   4.760   9.142   8.923
 4469SOL     OW15303   5.898  13.174   7.555
 4469SOL    HW115304   5.985  13.159   7.592
 4469SOL    HW215305   5.846  13.206   7.629
 4470SOL     OW15306   2.450   1.503   2.058
 4470SOL    HW115307   2.508   1.434   2.088
 4470SOL    HW215308   2.477   1.520   1.968
 4471SOL     OW15309   2.379   7.102  10.145
 4471SOL    HW115310   2.433   7.179  10.128
 4471SOL    HW215311   2.329   7.089  10.065
 4472SOL     OW15312   0.522   2.288   4.400
 4472SOL    HW115313   0.600   2.241   4.428
 4472SOL    HW215314   0.552   2.344   4.329
 4473SOL     OW15315  14.402  12.713   1.962
 4473SOL    HW115316  14.469  12.733   2.027
 4473SOL    HW215317  14.392  12.794   1.911
 4474SOL     OW15318  11.040  10.913  10.032
 4474SOL    HW115319  10.968  10.968  10.001
 4474SOL    HW215320  11.104  10.913   9.961
 4475SOL     OW15321  12.657   8.657  12.219
 4475SOL    HW115322  12.601   8.628  12.291
 4475SOL    HW215323  12.741   8.614  12.234
 4476SOL     OW15324   4.933   3.943   7.257
 4476SOL    HW115325   4.843   3.919   7.275
 4476SOL    HW215326   4.983   3.863   7.273
 4477SOL     OW15327   7.741   6.690   4.833
 4477SOL    HW115328   7.667   6.723   4.781
 4477SOL    HW215329   7.770   6.766   4.883
 4478SOL     OW15330  10.634   9.299  11.852
 4478SOL    HW115331  10.613   9.248  11.774
 4478SOL    HW215332  10.608   9.388  11.830
 4479SOL     OW15333  10.682   4.009   0.250
 4479SOL    HW115334  10.648   3.970   0.169
 4479SOL    HW215335  10.628   4.087   0.263
 4480SOL     OW15336   4.893  14.133   2.848
 4480SOL    HW115337   4.833  14.172   2.911
 4480SOL    HW215338   4.970  14.108   2.900
 4481SOL     OW15339  13.500   5.381   5.413
 4481SOL    HW115340  13.548   5.397   5.494
 4481SOL    HW215341  13.502   5.286   5.403
 4482SOL     OW15342   6.723   8.263   1.722
 4482SOL    HW115343   6.798   8.304   1.678
 4482SOL    HW215344   6.673   8.221   1.653
 4483SOL     OW15345  10.359   8.335   4.500
 4483SOL    HW115346  10.444   8.353   4.542
 4483SOL    HW215347  10.338   8.245   4.527
 4484SOL     OW15348  13.062   9.233  10.948
 4484SOL    HW115349  12.979   9.255  10.992
 4484SOL    HW215350  13.121   9.304  10.973
 4485SOL     OW15351   5.535   9.256   7.522
 4485SOL    HW115352   5.591   9.178   7.522
 4485SOL    HW215353   5.499   9.259   7.610
 4486SOL     OW15354   7.369   6.479  11.098
 4486SOL    HW115355   7.371   6.474  11.193
 4486SOL    HW215356   7.366   6.572  11.078
 4487SOL     OW15357  14.499   3.420  13.894
 4487SOL    HW115358  14.438   3.402  13.965
 4487SOL    HW215359  14.495   3.515  13.881
 4488SOL     OW15360   0.156   3.285   2.121
 4488SOL    HW115361   0.104   3.365   2.133
 4488SOL    HW215362   0.139   3.260   2.030
 4489SOL     OW15363  13.170   7.608   5.019
 4489SOL    HW115364  13.145   7.521   5.051
 4489SOL    HW215365  13.265   7.609   5.024
 4490SOL     OW15366  10.175   5.633   3.543
 4490SOL    HW115367  10.112   5.703   3.560
 4490SOL    HW215368  10.135   5.554   3.578
 4491SOL     OW15369   9.446   5.461   2.985
 4491SOL    HW115370   9.531   5.440   2.948
 4491SOL    HW215371   9.451   5.554   3.008
 4492SOL     OW15372   7.160  11.122   9.860
 4492SOL    HW115373   7.218  11.047   9.848
 4492SOL    HW215374   7.153  11.161   9.773
 4493SOL     OW15375   1.734  14.322   6.335
 4493SOL    HW115376   1.667  14.262   6.369
 4493SOL    HW215377   1.799  14.265   6.294
 4494SOL     OW15378   3.726  14.034   0.771
 4494SOL    HW115379   3.774  13.999   0.696
 4494SOL    HW215380   3.763  13.987   0.846
 4495SOL     OW15381  10.896  14.745   4.349
 4495SOL    HW115382  10.804  14.761   4.327
 4495SOL    HW215383  10.927  14.685   4.282
 4496SOL     OW15384  10.083  12.925  13.966
 4496SOL    HW115385  10.154  12.869  13.997
 4496SOL    HW215386  10.117  13.014  13.974
 4497SOL     OW15387   6.348   0.093   5.213
 4497SOL    HW115388   6.391   0.170   5.250
 4497SOL    HW215389   6.292   0.060   5.283
 4498SOL     OW15390   2.211  14.153   0.438
 4498SOL    HW115391   2.120  14.123   0.436
 4498SOL    HW215392   2.205  14.248   0.427
 4499SOL     OW15393  13.401   5.269   4.460
 4499SOL    HW115394  13.424   5.233   4.374
 4499SOL    HW215395  13.375   5.360   4.441
 4500SOL     OW15396   4.986   2.567   9.289
 4500SOL    HW115397   4.935   2.633   9.336
 4500SOL    HW215398   4.930   2.541   9.216
 4501SOL     OW15399   2.303   8.531   5.961
 4501SOL    HW115400   2.334   8.447   5.926
 4501SOL    HW215401   2.210   8.517   5.978
 4502SOL     OW15402   6.222   2.672   2.753
 4502SOL    HW115403   6.267   2.603   2.704
 4502SOL    HW215404   6.221   2.747   2.693
 4503SOL     OW15405  13.532   3.773  12.697
 4503SOL    HW115406  13.527   3.688  12.741
 4503SOL    HW215407  13.619   3.805  12.718
 4504SOL     OW15408  12.236   5.560   4.596
 4504SOL    HW115409  12.226   5.557   4.691
 4504SOL    HW215410  12.312   5.616   4.581
 4505SOL     OW15411   0.307  12.935  12.693
 4505SOL    HW115412   0.300  12.976  12.606
 4505SOL    HW215413   0.277  12.845  12.679
 4506SOL     OW15414   9.449  10.685  13.211
 4506SOL    HW115415   9.427  10.722  13.126
 4506SOL    HW215416   9.393  10.607  13.218
 4507SOL     OW15417   2.317   3.240  13.605
 4507SOL    HW115418   2.252   3.222  13.672
 4507SOL    HW215419   2.268   3.243  13.523
 4508SOL     OW15420   6.538   7.076  12.340
 4508SOL    HW115421   6.627   7.110  12.331
 4508SOL    HW215422   6.519   7.036  12.255
 4509SOL     OW15423   0.076   4.390  11.079
 4509SOL    HW115424   0.059   4.452  11.149
 4509SOL    HW215425   0.049   4.305  11.114
 4510SOL     OW15426   3.205   8.948   7.634
 4510SOL    HW115427   3.207   8.928   7.727
 4510SOL    HW215428   3.123   8.909   7.603
 4511SOL     OW15429   7.437   3.810   2.861
 4511SOL    HW115430   7.411   3.732   2.911
 4511SOL    HW215431   7.388   3.804   2.779
 4512SOL     OW15432   2.990   3.530   7.448
 4512SOL    HW115433   2.953   3.516   7.361
 4512SOL    HW215434   3.077   3.492   7.444
 4513SOL     OW15435   2.773   4.114   0.984
 4513SOL    HW115436   2.798   4.145   1.071
 4513SOL    HW215437   2.807   4.024   0.980
 4514SOL     OW15438   2.899   4.754  14.573
 4514SOL    HW115439   2.933   4.828  14.522
 4514SOL    HW215440   2.826   4.721  14.522
 4515SOL     OW15441  11.667   6.070   5.505
 4515SOL    HW115442  11.692   5.981   5.481
 4515SOL    HW215443  11.724   6.127   5.453
 4516SOL     OW15444  13.637   0.608   3.656
 4516SOL    HW115445  13.610   0.579   3.569
 4516SOL    HW215446  13.705   0.674   3.640
 4517SOL     OW15447  10.879   2.327   2.923
 4517SOL    HW115448  10.822   2.288   2.856
 4517SOL    HW215449  10.953   2.267   2.929
 4518SOL     OW15450  12.378   5.457   2.927
 4518SOL    HW115451  12.427   5.539   2.932
 4518SOL    HW215452  12.290   5.484   2.900
 4519SOL     OW15453   4.997   2.736   4.509
 4519SOL    HW115454   4.978   2.816   4.459
 4519SOL    HW215455   5.038   2.767   4.589
 4520SOL     OW15456   4.186   4.103   8.395
 4520SOL    HW115457   4.155   4.028   8.445
 4520SOL    HW215458   4.113   4.165   8.395
 4521SOL     OW15459   8.184   4.089   9.123
 4521SOL    HW115460   8.176   4.014   9.064
 4521SOL    HW215461   8.267   4.076   9.168
 4522SOL     OW15462  14.418  11.138   2.933
 4522SOL    HW115463  14.507  11.125   2.967
 4522SOL    HW215464  14.416  11.087   2.852
 4523SOL     OW15465   7.730   8.353   8.923
 4523SOL    HW115466   7.666   8.282   8.919
 4523SOL    HW215467   7.678   8.433   8.921
 4524SOL     OW15468  12.959   6.384   8.005
 4524SOL    HW115469  12.914   6.376   8.088
 4524SOL    HW215470  12.895   6.423   7.946
 4525SOL     OW15471   2.628   2.872  13.685
 4525SOL    HW115472   2.601   2.951  13.638
 4525SOL    HW215473   2.574   2.803  13.647
 4526SOL     OW15474   0.914  14.470   6.691
 4526SOL    HW115475   0.954  14.527   6.757
 4526SOL    HW215476   0.900  14.527   6.616
 4527SOL     OW15477   6.086   3.757   2.946
 4527SOL    HW115478   6.160   3.713   2.988
 4527SOL    HW215479   6.044   3.806   3.016
 4528SOL     OW15480  11.732   0.384   6.186
 4528SOL    HW115481  11.728   0.443   6.111
 4528SOL    HW215482  11.823   0.354   6.189
 4529SOL     OW15483   6.049  11.007   7.413
 4529SOL    HW115484   6.112  10.955   7.364
 4529SOL    HW215485   5.966  10.993   7.367
 4530SOL     OW15486  14.377   8.902  11.677
 4530SOL    HW115487  14.456   8.947  11.709
 4530SOL    HW215488  14.311   8.971  11.672
 4531SOL     OW15489  10.875  13.695   2.880
 4531SOL    HW115490  10.895  13.740   2.797
 4531SOL    HW215491  10.827  13.760   2.931
 4532SOL     OW15492  11.217   7.880  13.287
 4532SOL    HW115493  11.124   7.874  13.265
 4532SOL    HW215494  11.221   7.948  13.355
 4533SOL     OW15495   7.640   6.357   6.099
 4533SOL    HW115496   7.560   6.398   6.133
 4533SOL    HW215497   7.665   6.294   6.166
 4534SOL     OW15498   6.519  12.180   8.731
 4534SOL    HW115499   6.532  12.261   8.681
 4534SOL    HW215500   6.566  12.195   8.813
 4535SOL     OW15501  14.619   8.847   9.180
 4535SOL    HW115502  14.678   8.772   9.183
 4535SOL    HW215503  14.547   8.825   9.239
 4536SOL     OW15504   8.436  10.845   6.835
 4536SOL    HW115505   8.483  10.918   6.875
 4536SOL    HW215506   8.461  10.769   6.886
 4537SOL     OW15507   0.728   2.536   3.664
 4537SOL    HW115508   0.780   2.467   3.704
 4537SOL    HW215509   0.729   2.517   3.571
 4538SOL     OW15510   1.481   4.409   8.441
 4538SOL    HW115511   1.531   4.416   8.360
 4538SOL    HW215512   1.495   4.493   8.486
 4539SOL     OW15513  11.869  14.755  10.148
 4539SOL    HW115514  11.843  14.841  10.114
 4539SOL    HW215515  11.885  14.771  10.242
 4540SOL     OW15516   6.568  10.983   9.446
 4540SOL    HW115517   6.650  10.935   9.441
 4540SOL    HW215518   6.502  10.919   9.419
 4541SOL     OW15519   4.509   1.978   2.439
 4541SOL    HW115520   4.428   1.994   2.390
 4541SOL    HW215521   4.548   1.901   2.397
 4542SOL     OW15522   0.449   5.114  13.717
 4542SOL    HW115523   0.532   5.161  13.716
 4542SOL    HW215524   0.473   5.021  13.719
 4543SOL     OW15525   2.338   4.035  10.395
 4543SOL    HW115526   2.415   3.996  10.355
 4543SOL    HW215527   2.265   4.008  10.340
 4544SOL     OW15528   5.614  13.795  13.656
 4544SOL    HW115529   5.578  13.764  13.739
 4544SOL    HW215530   5.642  13.885  13.675
 4545SOL     OW15531   1.361   8.529  10.619
 4545SOL    HW115532   1.413   8.492  10.548
 4545SOL    HW215533   1.274   8.539  10.582
 4546SOL     OW15534   0.178   7.588   4.228
 4546SOL    HW115535   0.209   7.632   4.149
 4546SOL    HW215536   0.092   7.626   4.245
 4547SOL     OW15537  13.324   2.700  11.538
 4547SOL    HW115538  13.335   2.707  11.633
 4547SOL    HW215539  13.341   2.607  11.520
 4548SOL     OW15540   2.259   9.671   1.212
 4548SOL    HW115541   2.348   9.636   1.209
 4548SOL    HW215542   2.203   9.593   1.218
 4549SOL     OW15543   8.872   5.315   0.234
 4549SOL    HW115544   8.941   5.374   0.266
 4549SOL    HW215545   8.793   5.369   0.234
 4550SOL     OW15546   6.762   6.869   3.237
 4550SOL    HW115547   6.762   6.908   3.325
 4550SOL    HW215548   6.840   6.814   3.235
 4551SOL     OW15549  12.149   0.273  14.525
 4551SOL    HW115550  12.202   0.238  14.596
 4551SOL    HW215551  12.180   0.228  14.447
 4552SOL     OW15552   8.390   4.522  14.554
 4552SOL    HW115553   8.391   4.477  14.639
 4552SOL    HW215554   8.398   4.615  14.576
 4553SOL     OW15555   1.856  12.554   7.156
 4553SOL    HW115556   1.903  12.494   7.213
 4553SOL    HW215557   1.799  12.498   7.103
 4554SOL     OW15558  14.813   1.113  12.933
 4554SOL    HW115559   0.035   1.136  12.960
 4554SOL    HW215560  14.766   1.196  12.934
 4555SOL     OW15561  12.190   2.307  10.797
 4555SOL    HW115562  12.115   2.293  10.738
 4555SOL    HW215563  12.248   2.366  10.748
 4556SOL     OW15564   1.371  11.736   2.195
 4556SOL    HW115565   1.400  11.648   2.172
 4556SOL    HW215566   1.331  11.771   2.115
 4557SOL     OW15567   8.233   1.930   0.911
 4557SOL    HW115568   8.252   1.967   0.825
 4557SOL    HW215569   8.220   1.836   0.895
 4558SOL     OW15570   7.970  13.554  13.968
 4558SOL    HW115571   7.944  13.645  13.980
 4558SOL    HW215572   7.893  13.512  13.930
 4559SOL     OW15573   2.789   3.836   6.838
 4559SOL    HW115574   2.788   3.742   6.817
 4559SOL    HW215575   2.864   3.846   6.896
 4560SOL     OW15576   8.817   2.169   5.259
 4560SOL    HW115577   8.911   2.176   5.241
 4560SOL    HW215578   8.783   2.109   5.192
 4561SOL     OW15579   7.475   2.929   5.107
 4561SOL    HW115580   7.538   2.866   5.072
 4561SOL    HW215581   7.392   2.882   5.110
 4562SOL     OW15582   0.054   7.608   1.496
 4562SOL    HW115583   0.068   7.544   1.565
 4562SOL    HW215584   0.110   7.579   1.424
 4563SOL     OW15585   1.056   7.445  13.140
 4563SOL    HW115586   1.016   7.364  13.170
 4563SOL    HW215587   1.124   7.464  13.205
 4564SOL     OW15588   8.211   7.145  10.838
 4564SOL    HW115589   8.206   7.176  10.929
 4564SOL    HW215590   8.233   7.052  10.846
 4565SOL     OW15591  12.979   3.838   6.760
 4565SOL    HW115592  12.970   3.796   6.846
 4565SOL    HW215593  13.071   3.866   6.757
 4566SOL     OW15594  14.196   4.267   7.315
 4566SOL    HW115595  14.122   4.249   7.374
 4566SOL    HW215596  14.165   4.238   7.229
 4567SOL     OW15597  12.325   9.596   8.514
 4567SOL    HW115598  12.325   9.525   8.578
 4567SOL    HW215599  12.393   9.656   8.545
 4568SOL     OW15600   9.657   1.397  12.491
 4568SOL    HW115601   9.738   1.346  12.482
 4568SOL    HW215602   9.678   1.463  12.557
 4569SOL     OW15603   6.909   9.719   8.373
 4569SOL    HW115604   6.831   9.735   8.319
 4569SOL    HW215605   6.916   9.797   8.429
 4570SOL     OW15606   4.110   6.017   8.198
 4570SOL    HW115607   4.185   5.989   8.145
 4570SOL    HW215608   4.041   6.037   8.135
 4571SOL     OW15609   9.216   5.635   1.031
 4571SOL    HW115610   9.310   5.628   1.050
 4571SOL    HW215611   9.206   5.722   0.993
 4572SOL     OW15612   6.394   9.274   5.937
 4572SOL    HW115613   6.418   9.193   5.893
 4572SOL    HW215614   6.320   9.250   5.993
 4573SOL     OW15615   6.451   1.071   6.445
 4573SOL    HW115616   6.493   1.047   6.528
 4573SOL    HW215617   6.425   1.162   6.456
 4574SOL     OW15618   7.767  13.263   0.425
 4574SOL    HW115619   7.837  13.275   0.361
 4574SOL    HW215620   7.758  13.349   0.467
 4575SOL     OW15621   4.239  11.193   5.612
 4575SOL    HW115622   4.248  11.286   5.591
 4575SOL    HW215623   4.153  11.186   5.654
 4576SOL     OW15624   7.585  14.416   7.559
 4576SOL    HW115625   7.588  14.512   7.549
 4576SOL    HW215626   7.613  14.400   7.649
 4577SOL     OW15627   5.570   3.960   2.701
 4577SOL    HW115628   5.587   3.868   2.722
 4577SOL    HW215629   5.656   4.002   2.709
 4578SOL     OW15630  11.931   8.613   3.700
 4578SOL    HW115631  11.954   8.552   3.770
 4578SOL    HW215632  11.869   8.564   3.645
 4579SOL     OW15633  14.381   8.255  13.043
 4579SOL    HW115634  14.313   8.240  12.978
 4579SOL    HW215635  14.427   8.333  13.012
 4580SOL     OW15636   6.409   6.102   6.647
 4580SOL    HW115637   6.456   6.081   6.728
 4580SOL    HW215638   6.349   6.172   6.671
 4581SOL     OW15639  12.796   4.233   6.114
 4581SOL    HW115640  12.766   4.165   6.174
 4581SOL    HW215641  12.807   4.189   6.030
 4582SOL     OW15642   1.957  10.301   9.752
 4582SOL    HW115643   1.976  10.394   9.759
 4582SOL    HW215644   2.010  10.260   9.821
 4583SOL     OW15645   2.841   8.177   2.888
 4583SOL    HW115646   2.853   8.101   2.831
 4583SOL    HW215647   2.930   8.203   2.912
 4584SOL     OW15648  12.886   4.875   4.636
 4584SOL    HW115649  12.894   4.920   4.721
 4584SOL    HW215650  12.932   4.792   4.649
 4585SOL     OW15651   7.818   7.722  11.872
 4585SOL    HW115652   7.727   7.705  11.846
 4585SOL    HW215653   7.870   7.662  11.818
 4586SOL     OW15654   4.589   8.384  11.473
 4586SOL    HW115655   4.582   8.450  11.404
 4586SOL    HW215656   4.619   8.433  11.549
 4587SOL     OW15657   4.977   0.208   0.028
 4587SOL    HW115658   5.044   0.175   0.089
 4587SOL    HW215659   5.009   0.295   0.003
 4588SOL     OW15660   7.106   7.973   6.525
 4588SOL    HW115661   7.151   7.927   6.596
 4588SOL    HW215662   7.014   7.973   6.551
 4589SOL     OW15663   6.781   1.320   5.576
 4589SOL    HW115664   6.722   1.283   5.511
 4589SOL    HW215665   6.836   1.381   5.528
 4590SOL     OW15666   1.595  10.333   9.438
 4590SOL    HW115667   1.609  10.354   9.346
 4590SOL    HW215668   1.661  10.266   9.457
 4591SOL     OW15669   2.289   9.607  14.754
 4591SOL    HW115670   2.253   9.552  14.823
 4591SOL    HW215671   2.383   9.611  14.773
 4592SOL     OW15672  14.464  11.034  14.329
 4592SOL    HW115673  14.545  11.084  14.318
 4592SOL    HW215674  14.395  11.100  14.333
 4593SOL     OW15675   5.270   1.085   5.307
 4593SOL    HW115676   5.306   1.126   5.228
 4593SOL    HW215677   5.291   1.146   5.378
 4594SOL     OW15678   8.379   3.811   6.405
 4594SOL    HW115679   8.355   3.721   6.384
 4594SOL    HW215680   8.436   3.803   6.481
 4595SOL     OW15681   7.430  10.238   9.895
 4595SOL    HW115682   7.386  10.216   9.812
 4595SOL    HW215683   7.457  10.154   9.931
 4596SOL     OW15684   0.080   8.641  14.030
 4596SOL    HW115685  14.864   8.606  14.001
 4596SOL    HW215686   0.062   8.684  14.113
 4597SOL     OW15687  10.207  14.719   9.358
 4597SOL    HW115688  10.144  14.775   9.403
 4597SOL    HW215689  10.215  14.642   9.414
 4598SOL     OW15690  11.961   6.896  14.557
 4598SOL    HW115691  11.877   6.877  14.515
 4598SOL    HW215692  12.017   6.822  14.533
 4599SOL     OW15693   6.311   2.470   4.015
 4599SOL    HW115694   6.378   2.537   3.997
 4599SOL    HW215695   6.243   2.486   3.950
 4600SOL     OW15696  12.317   9.636   1.302
 4600SOL    HW115697  12.394   9.676   1.344
 4600SOL    HW215698  12.349   9.610   1.216
 4601SOL     OW15699   8.201   1.371   8.916
 4601SOL    HW115700   8.208   1.458   8.954
 4601SOL    HW215701   8.107   1.357   8.904
 4602SOL     OW15702   5.859   4.173   7.986
 4602SOL    HW115703   5.767   4.173   8.014
 4602SOL    HW215704   5.908   4.148   8.064
 4603SOL     OW15705   7.128   6.379   0.067
 4603SOL    HW115706   7.145   6.473   0.077
 4603SOL    HW215707   7.216   6.340   0.058
 4604SOL     OW15708  13.930   0.696  13.987
 4604SOL    HW115709  13.977   0.703  14.070
 4604SOL    HW215710  13.841   0.672  14.011
 4605SOL     OW15711  11.369   2.870  10.413
 4605SOL    HW115712  11.280   2.900  10.431
 4605SOL    HW215713  11.357   2.791  10.360
 4606SOL     OW15714   2.879  13.411   7.918
 4606SOL    HW115715   2.934  13.340   7.886
 4606SOL    HW215716   2.877  13.475   7.847
 4607SOL     OW15717  12.567  10.619   0.660
 4607SOL    HW115718  12.573  10.712   0.681
 4607SOL    HW215719  12.592  10.575   0.741
 4608SOL     OW15720   7.209   3.761   6.565
 4608SOL    HW115721   7.192   3.750   6.471
 4608SOL    HW215722   7.209   3.673   6.600
 4609SOL     OW15723   7.360  14.562  12.128
 4609SOL    HW115724   7.302  14.501  12.082
 4609SOL    HW215725   7.422  14.592  12.062
 4610SOL     OW15726  10.264  12.053  11.410
 4610SOL    HW115727  10.310  12.125  11.368
 4610SOL    HW215728  10.273  11.980  11.349
 4611SOL     OW15729   7.633   6.207   4.350
 4611SOL    HW115730   7.692   6.253   4.289
 4611SOL    HW215731   7.552   6.195   4.301
 4612SOL     OW15732   0.395  13.710   9.068
 4612SOL    HW115733   0.379  13.778   9.133
 4612SOL    HW215734   0.490  13.696   9.070
 4613SOL     OW15735   9.864   9.537  11.945
 4613SOL    HW115736   9.832   9.528  11.855
 4613SOL    HW215737   9.790   9.573  11.993
 4614SOL     OW15738   1.185  13.241  10.808
 4614SOL    HW115739   1.171  13.279  10.895
 4614SOL    HW215740   1.206  13.315  10.752
 4615SOL     OW15741  12.181   5.473   2.646
 4615SOL    HW115742  12.153   5.532   2.717
 4615SOL    HW215743  12.107   5.413   2.634
 4616SOL     OW15744   1.586   5.728   7.150
 4616SOL    HW115745   1.675   5.698   7.131
 4616SOL    HW215746   1.546   5.739   7.064
 4617SOL     OW15747   0.846   7.702   6.008
 4617SOL    HW115748   0.845   7.695   6.103
 4617SOL    HW215749   0.922   7.757   5.988
 4618SOL     OW15750  13.388   6.414   9.613
 4618SOL    HW115751  13.399   6.320   9.600
 4618SOL    HW215752  13.374   6.424   9.707
 4619SOL     OW15753   4.090   3.680   5.422
 4619SOL    HW115754   4.087   3.594   5.380
 4619SOL    HW215755   4.126   3.663   5.509
 4620SOL     OW15756   5.336   1.207  11.344
 4620SOL    HW115757   5.419   1.199  11.392
 4620SOL    HW215758   5.361   1.196  11.252
 4621SOL     OW15759  12.464   5.377   3.269
 4621SOL    HW115760  12.447   5.465   3.234
 4621SOL    HW215761  12.532   5.390   3.334
 4622SOL     OW15762   8.811  10.582   7.998
 4622SOL    HW115763   8.863  10.608   8.073
 4622SOL    HW215764   8.766  10.502   8.026
 4623SOL     OW15765   4.127   1.328   7.438
 4623SOL    HW115766   4.053   1.287   7.482
 4623SOL    HW215767   4.090   1.361   7.355
 4624SOL     OW15768  12.068  13.819   0.409
 4624SOL    HW115769  12.036  13.731   0.424
 4624SOL    HW215770  12.072  13.827   0.313
 4625SOL     OW15771   9.112   5.538   7.227
 4625SOL    HW115772   9.115   5.444   7.245
 4625SOL    HW215773   9.148   5.547   7.139
 4626SOL     OW15774  13.744  11.141   0.499
 4626SOL    HW115775  13.653  11.164   0.521
 4626SOL    HW215776  13.752  11.162   0.406
 4627SOL     OW15777   4.982   8.645   7.183
 4627SOL    HW115778   4.939   8.566   7.214
 4627SOL    HW215779   5.017   8.622   7.097
 4628SOL     OW15780  13.857  11.073   1.224
 4628SOL    HW115781  13.933  11.129   1.208
 4628SOL    HW215782  13.881  11.021   1.300
 4629SOL     OW15783   1.693  10.207   8.584
 4629SOL    HW115784   1.713  10.300   8.587
 4629SOL    HW215785   1.694  10.185   8.490
 4630SOL     OW15786  14.643  14.388   3.068
 4630SOL    HW115787  14.594  14.350   2.995
 4630SOL    HW215788  14.590  14.462   3.097
 4631SOL     OW15789  13.858  13.570  12.377
 4631SOL    HW115790  13.865  13.523  12.460
 4631SOL    HW215791  13.922  13.641  12.385
 4632SOL     OW15792   5.824  12.893  11.219
 4632SOL    HW115793   5.873  12.975  11.220
 4632SOL    HW215794   5.852  12.848  11.298
 4633SOL     OW15795  10.477   2.359  12.624
 4633SOL    HW115796  10.526   2.351  12.706
 4633SOL    HW215797  10.490   2.450  12.597
 4634SOL     OW15798   9.934  14.645  13.839
 4634SOL    HW115799   9.946  14.556  13.874
 4634SOL    HW215800   9.928  14.700  13.917
 4635SOL     OW15801  13.431   3.773   4.941
 4635SOL    HW115802  13.454   3.816   4.860
 4635SOL    HW215803  13.480   3.820   5.009
 4636SOL     OW15804   9.614   0.880  10.591
 4636SOL    HW115805   9.618   0.902  10.498
 4636SOL    HW215806   9.673   0.805  10.601
 4637SOL     OW15807  11.736   2.604  11.341
 4637SOL    HW115808  11.825   2.637  11.329
 4637SOL    HW215809  11.729   2.588  11.435
 4638SOL     OW15810  13.980   5.453   6.120
 4638SOL    HW115811  13.947   5.539   6.146
 4638SOL    HW215812  14.075   5.457   6.136
 4639SOL     OW15813  14.191   8.171  12.408
 4639SOL    HW115814  14.233   8.168  12.494
 4639SOL    HW215815  14.101   8.199  12.426
 4640SOL     OW15816   3.808  14.455   8.155
 4640SOL    HW115817   3.902  14.458   8.138
 4640SOL    HW215818   3.802  14.425   8.246
 4641SOL     OW15819   8.404   9.743   4.320
 4641SOL    HW115820   8.383   9.828   4.281
 4641SOL    HW215821   8.409   9.683   4.246
 4642SOL     OW15822   4.466   2.844  13.624
 4642SOL    HW115823   4.420   2.835  13.541
 4642SOL    HW215824   4.397   2.870  13.686
 4643SOL     OW15825   3.504   5.148   7.614
 4643SOL    HW115826   3.451   5.068   7.604
 4643SOL    HW215827   3.574   5.138   7.549
 4644SOL     OW15828   9.723   4.691   8.553
 4644SOL    HW115829   9.779   4.699   8.476
 4644SOL    HW215830   9.727   4.778   8.595
 4645SOL     OW15831  12.954   5.414   9.889
 4645SOL    HW115832  12.876   5.387   9.840
 4645SOL    HW215833  12.930   5.403   9.981
 4646SOL     OW15834   4.423  10.637  13.201
 4646SOL    HW115835   4.427  10.693  13.123
 4646SOL    HW215836   4.510  10.644  13.240
 4647SOL     OW15837   7.091   4.655   4.101
 4647SOL    HW115838   6.998   4.658   4.080
 4647SOL    HW215839   7.128   4.731   4.057
 4648SOL     OW15840   7.940   6.066  14.504
 4648SOL    HW115841   8.011   6.104  14.453
 4648SOL    HW215842   7.886   6.141  14.530
 4649SOL     OW15843   8.296  10.836   2.121
 4649SOL    HW115844   8.322  10.755   2.077
 4649SOL    HW215845   8.308  10.904   2.055
 4650SOL     OW15846   4.207   5.599   8.995
 4650SOL    HW115847   4.217   5.585   9.089
 4650SOL    HW215848   4.296   5.616   8.964
 4651SOL     OW15849   9.065  11.520  11.848
 4651SOL    HW115850   9.160  11.531  11.841
 4651SOL    HW215851   9.031  11.547  11.763
 4652SOL     OW15852   9.571   3.826   8.919
 4652SOL    HW115853   9.489   3.806   8.965
 4652SOL    HW215854   9.608   3.899   8.968
 4653SOL     OW15855   6.731  10.691  11.562
 4653SOL    HW115856   6.654  10.736  11.597
 4653SOL    HW215857   6.753  10.738  11.482
 4654SOL     OW15858   9.618   5.103   8.031
 4654SOL    HW115859   9.626   5.192   8.063
 4654SOL    HW215860   9.698   5.059   8.058
 4655SOL     OW15861   6.340  13.816   1.222
 4655SOL    HW115862   6.370  13.816   1.313
 4655SOL    HW215863   6.399  13.754   1.178
 4656SOL     OW15864   0.302   0.319  12.920
 4656SOL    HW115865   0.224   0.303  12.867
 4656SOL    HW215866   0.354   0.239  12.911
 4657SOL     OW15867   3.624   0.276  14.824
 4657SOL    HW115868   3.552   0.314  14.774
 4657SOL    HW215869   3.586   0.255   0.041
 4658SOL     OW15870  12.973   7.575   0.492
 4658SOL    HW115871  13.000   7.582   0.401
 4658SOL    HW215872  12.977   7.481   0.511
 4659SOL     OW15873   7.279   7.320   0.615
 4659SOL    HW115874   7.244   7.352   0.532
 4659SOL    HW215875   7.328   7.242   0.592
 4660SOL     OW15876  13.947   6.492   3.605
 4660SOL    HW115877  13.935   6.401   3.633
 4660SOL    HW215878  13.991   6.485   3.520
 4661SOL     OW15879   9.105   5.347  10.121
 4661SOL    HW115880   9.021   5.390  10.136
 4661SOL    HW215881   9.094   5.301  10.038
 4662SOL     OW15882   3.081  11.883   4.759
 4662SOL    HW115883   3.036  11.810   4.802
 4662SOL    HW215884   3.062  11.959   4.815
 4663SOL     OW15885   7.469   4.831   9.545
 4663SOL    HW115886   7.520   4.822   9.464
 4663SOL    HW215887   7.511   4.904   9.591
 4664SOL     OW15888   7.885   3.917   8.043
 4664SOL    HW115889   7.920   3.834   8.010
 4664SOL    HW215890   7.928   3.928   8.128
 4665SOL     OW15891  10.413   5.471  12.752
 4665SOL    HW115892  10.318   5.461  12.757
 4665SOL    HW215893  10.443   5.456  12.842
 4666SOL     OW15894   3.083   9.380   1.891
 4666SOL    HW115895   3.151   9.314   1.902
 4666SOL    HW215896   3.009   9.348   1.943
 4667SOL     OW15897  13.368   5.182   9.542
 4667SOL    HW115898  13.365   5.210   9.633
 4667SOL    HW215899  13.360   5.087   9.546
 4668SOL     OW15900  13.236  12.931  13.840
 4668SOL    HW115901  13.167  12.988  13.807
 4668SOL    HW215902  13.265  12.972  13.921
 4669SOL     OW15903   5.856  11.976  10.047
 4669SOL    HW115904   5.923  11.974   9.979
 4669SOL    HW215905   5.774  11.965   9.999
 4670SOL     OW15906   1.334  10.273   7.188
 4670SOL    HW115907   1.410  10.226   7.153
 4670SOL    HW215908   1.313  10.337   7.121
 4671SOL     OW15909   7.662   3.930   3.337
 4671SOL    HW115910   7.679   4.014   3.380
 4671SOL    HW215911   7.730   3.871   3.372
 4672SOL     OW15912   8.606   9.598   9.455
 4672SOL    HW115913   8.677   9.663   9.453
 4672SOL    HW215914   8.589   9.586   9.549
 4673SOL     OW15915  11.443   3.370   7.525
 4673SOL    HW115916  11.508   3.400   7.462
 4673SOL    HW215917  11.422   3.281   7.497
 4674SOL     OW15918   9.067   7.808   3.227
 4674SOL    HW115919   9.103   7.808   3.316
 4674SOL    HW215920   9.065   7.901   3.202
 4675SOL     OW15921   7.610   7.569   2.097
 4675SOL    HW115922   7.532   7.617   2.127
 4675SOL    HW215923   7.599   7.563   2.002
 4676SOL     OW15924   5.215   5.008   6.195
 4676SOL    HW115925   5.270   4.939   6.159
 4676SOL    HW215926   5.153   4.962   6.252
 4677SOL     OW15927   6.601   6.437  12.457
 4677SOL    HW115928   6.669   6.372  12.471
 4677SOL    HW215929   6.620   6.472  12.370
 4678SOL     OW15930  11.087   5.393   3.960
 4678SOL    HW115931  11.052   5.391   3.871
 4678SOL    HW215932  11.182   5.390   3.949
 4679SOL     OW15933  13.898   5.305   7.777
 4679SOL    HW115934  13.964   5.252   7.822
 4679SOL    HW215935  13.948   5.363   7.720
 4680SOL     OW15936   4.665   2.636   4.055
 4680SOL    HW115937   4.739   2.697   4.049
 4680SOL    HW215938   4.651   2.607   3.965
 4681SOL     OW15939   9.060   5.708   8.254
 4681SOL    HW115940   9.126   5.639   8.245
 4681SOL    HW215941   9.012   5.685   8.334
 4682SOL     OW15942   7.148  11.368  13.296
 4682SOL    HW115943   7.065  11.327  13.321
 4682SOL    HW215944   7.157  11.348  13.203
 4683SOL     OW15945   9.672   2.293   8.342
 4683SOL    HW115946   9.678   2.367   8.402
 4683SOL    HW215947   9.750   2.241   8.360
 4684SOL     OW15948   7.409   3.157  12.579
 4684SOL    HW115949   7.396   3.116  12.494
 4684SOL    HW215950   7.396   3.251  12.563
 4685SOL     OW15951   8.586   5.114  10.712
 4685SOL    HW115952   8.495   5.088  10.720
 4685SOL    HW215953   8.631   5.069  10.784
 4686SOL     OW15954   2.000  14.176   0.022
 4686SOL    HW115955   1.953  14.130   0.092
 4686SOL    HW215956   1.932  14.194  14.824
 4687SOL     OW15957   4.620   5.642   1.409
 4687SOL    HW115958   4.618   5.725   1.458
 4687SOL    HW215959   4.659   5.580   1.470
 4688SOL     OW15960   5.769  13.230   3.226
 4688SOL    HW115961   5.770  13.144   3.269
 4688SOL    HW215962   5.720  13.286   3.286
 4689SOL     OW15963   4.540  10.845   9.462
 4689SOL    HW115964   4.621  10.894   9.477
 4689SOL    HW215965   4.570  10.758   9.435
 4690SOL     OW15966   2.781   9.980  10.430
 4690SOL    HW115967   2.846   9.947  10.493
 4690SOL    HW215968   2.829  10.046  10.380
 4691SOL     OW15969  11.795  14.054  14.546
 4691SOL    HW115970  11.866  14.057  14.609
 4691SOL    HW215971  11.786  13.961  14.524
 4692SOL     OW15972   4.064   6.369   4.675
 4692SOL    HW115973   4.027   6.369   4.587
 4692SOL    HW215974   4.139   6.428   4.670
 4693SOL     OW15975   4.247   8.668   7.470
 4693SOL    HW115976   4.195   8.745   7.448
 4693SOL    HW215977   4.183   8.605   7.504
 4694SOL     OW15978   0.183   1.701  10.290
 4694SOL    HW115979   0.171   1.676  10.199
 4694SOL    HW215980   0.153   1.625  10.340
 4695SOL     OW15981   6.929   0.303  11.719
 4695SOL    HW115982   6.858   0.239  11.722
 4695SOL    HW215983   7.004   0.256  11.684
 4696SOL     OW15984   8.921  14.125  12.446
 4696SOL    HW115985   8.928  14.064  12.372
 4696SOL    HW215986   8.997  14.182  12.437
 4697SOL     OW15987   9.478   5.571   7.802
 4697SOL    HW115988   9.502   5.483   7.831
 4697SOL    HW215989   9.490   5.569   7.707
 4698SOL     OW15990   4.456   3.885  12.599
 4698SOL    HW115991   4.448   3.822  12.527
 4698SOL    HW215992   4.372   3.878  12.645
 4699SOL     OW15993   4.298   5.736  12.433
 4699SOL    HW115994   4.316   5.659  12.379
 4699SOL    HW215995   4.385   5.768  12.459
 4700SOL     OW15996  14.300   7.145  14.184
 4700SOL    HW115997  14.371   7.190  14.229
 4700SOL    HW215998  14.288   7.194  14.103
 4701SOL     OW15999  12.414   0.085   2.972
 4701SOL    HW116000  12.502   0.122   2.982
 4701SOL    HW216001  12.364   0.124   3.044
 4702SOL     OW16002  14.248  10.670  12.281
 4702SOL    HW116003  14.338  10.683  12.313
 4702SOL    HW216004  14.193  10.690  12.356
 4703SOL     OW16005  14.290   2.357  13.568
 4703SOL    HW116006  14.256   2.274  13.601
 4703SOL    HW216007  14.212   2.409  13.550
 4704SOL     OW16008   9.223   8.730   3.187
 4704SOL    HW116009   9.198   8.784   3.262
 4704SOL    HW216010   9.302   8.684   3.215
 4705SOL     OW16011   7.412   8.536   5.950
 4705SOL    HW116012   7.480   8.487   5.997
 4705SOL    HW216013   7.442   8.627   5.954
 4706SOL     OW16014   7.519   0.194  13.838
 4706SOL    HW116015   7.509   0.201  13.743
 4706SOL    HW216016   7.609   0.222  13.855
 4707SOL     OW16017   8.470   8.091   0.479
 4707SOL    HW116018   8.461   8.000   0.508
 4707SOL    HW216019   8.533   8.087   0.407
 4708SOL     OW16020   5.219   7.310   6.094
 4708SOL    HW116021   5.286   7.354   6.147
 4708SOL    HW216022   5.266   7.275   6.019
 4709SOL     OW16023   9.250   9.875   8.523
 4709SOL    HW116024   9.219   9.958   8.559
 4709SOL    HW216025   9.225   9.878   8.430
 4710SOL     OW16026  13.984  13.645  14.276
 4710SOL    HW116027  14.043  13.676  14.343
 4710SOL    HW216028  14.025  13.565  14.242
 4711SOL     OW16029   3.366  10.022  11.374
 4711SOL    HW116030   3.366  10.116  11.357
 4711SOL    HW216031   3.458  10.000  11.389
 4712SOL     OW16032   9.527  10.615   7.302
 4712SOL    HW116033   9.504  10.696   7.256
 4712SOL    HW216034   9.482  10.546   7.253
 4713SOL     OW16035   4.170  11.506   5.722
 4713SOL    HW116036   4.250  11.503   5.668
 4713SOL    HW216037   4.105  11.548   5.666
 4714SOL     OW16038   0.732  14.614   0.194
 4714SOL    HW116039   0.828  14.620   0.190
 4714SOL    HW216040   0.702  14.671   0.123
 4715SOL     OW16041   7.246  14.804  10.473
 4715SOL    HW116042   7.153  14.804  10.497
 4715SOL    HW216043   7.278  14.718  10.499
 4716SOL     OW16044   8.579   7.643   4.099
 4716SOL    HW116045   8.582   7.724   4.048
 4716SOL    HW216046   8.560   7.671   4.188
 4717SOL     OW16047   8.309   2.247   3.744
 4717SOL    HW116048   8.361   2.220   3.820
 4717SOL    HW216049   8.374   2.267   3.676
 4718SOL     OW16050  12.037  13.237   1.881
 4718SOL    HW116051  12.113  13.277   1.924
 4718SOL    HW216052  11.968  13.241   1.948
 4719SOL     OW16053   2.903   8.311  13.024
 4719SOL    HW116054   2.869   8.400  13.016
 4719SOL    HW216055   2.832   8.255  12.994
 4720SOL     OW16056  13.459   0.747   7.716
 4720SOL    HW116057  13.398   0.808   7.759
 4720SOL    HW216058  13.491   0.795   7.640
 4721SOL     OW16059   3.889   0.436   3.950
 4721SOL    HW116060   3.824   0.392   4.004
 4721SOL    HW216061   3.934   0.495   4.010
 4722SOL     OW16062   9.753   0.608   7.818
 4722SOL    HW116063   9.713   0.527   7.784
 4722SOL    HW216064   9.705   0.627   7.898
 4723SOL     OW16065   6.402  10.383  12.978
 4723SOL    HW116066   6.487  10.348  12.952
 4723SOL    HW216067   6.350  10.384  12.898
 4724SOL     OW16068   0.415   1.728   4.838
 4724SOL    HW116069   0.385   1.674   4.764
 4724SOL    HW216070   0.478   1.672   4.884
 4725SOL     OW16071   4.217   9.413   0.660
 4725SOL    HW116072   4.269   9.374   0.729
 4725SOL    HW216073   4.156   9.472   0.706
 4726SOL     OW16074  14.336  11.697  13.944
 4726SOL    HW116075  14.423  11.705  13.906
 4726SOL    HW216076  14.280  11.671  13.871
 4727SOL     OW16077  12.754  13.249  11.228
 4727SOL    HW116078  12.801  13.220  11.306
 4727SOL    HW216079  12.804  13.214  11.155
 4728SOL     OW16080   0.413   2.134  13.217
 4728SOL    HW116081   0.348   2.156  13.150
 4728SOL    HW216082   0.382   2.052  13.254
 4729SOL     OW16083   3.496  12.601  10.687
 4729SOL    HW116084   3.424  12.580  10.747
 4729SOL    HW216085   3.455  12.603  10.600
 4730SOL     OW16086   9.051   8.033   4.086
 4730SOL    HW116087   9.142   8.026   4.057
 4730SOL    HW216088   9.003   7.974   4.028
 4731SOL     OW16089   9.665  14.847   8.900
 4731SOL    HW116090   9.628  14.762   8.875
 4731SOL    HW216091   9.623   0.041   8.840
 4732SOL     OW16092  14.748  11.699  14.726
 4732SOL    HW116093  14.811  11.712  14.656
 4732SOL    HW216094  14.799  11.705  14.807
 4733SOL     OW16095   4.014  13.947   9.036
 4733SOL    HW116096   4.076  14.012   9.068
 4733SOL    HW216097   4.051  13.863   9.066
 4734SOL     OW16098   4.631   6.423   1.782
 4734SOL    HW116099   4.637   6.329   1.801
 4734SOL    HW216100   4.717   6.458   1.806
 4735SOL     OW16101   2.294   1.418  12.701
 4735SOL    HW116102   2.383   1.413  12.736
 4735SOL    HW216103   2.252   1.487  12.753
 4736SOL     OW16104   6.672   6.317  14.199
 4736SOL    HW116105   6.628   6.352  14.277
 4736SOL    HW216106   6.638   6.228  14.190
 4737SOL     OW16107  12.744   7.584  14.386
 4737SOL    HW116108  12.786   7.498  14.385
 4737SOL    HW216109  12.655   7.567  14.417
 4738SOL     OW16110  12.358   3.442   5.624
 4738SOL    HW116111  12.367   3.357   5.580
 4738SOL    HW216112  12.432   3.494   5.592
 4739SOL     OW16113  11.537  12.417   4.114
 4739SOL    HW116114  11.607  12.465   4.157
 4739SOL    HW216115  11.521  12.341   4.171
 4740SOL     OW16116  14.862   9.958  13.578
 4740SOL    HW116117   0.009   9.939  13.671
 4740SOL    HW216118   0.033   9.883  13.532
 4741SOL     OW16119   1.682   1.279  12.520
 4741SOL    HW116120   1.736   1.349  12.485
 4741SOL    HW216121   1.599   1.321  12.542
 4742SOL     OW16122   6.595  10.146  10.580
 4742SOL    HW116123   6.547  10.101  10.650
 4742SOL    HW216124   6.680  10.166  10.619
 4743SOL     OW16125   8.764   2.795   3.868
 4743SOL    HW116126   8.788   2.792   3.961
 4743SOL    HW216127   8.735   2.885   3.854
 4744SOL     OW16128   0.250  13.340   2.764
 4744SOL    HW116129   0.168  13.299   2.734
 4744SOL    HW216130   0.309  13.331   2.690
 4745SOL     OW16131   9.263   3.060  13.224
 4745SOL    HW116132   9.278   3.154  13.212
 4745SOL    HW216133   9.349   3.024  13.244
 4746SOL     OW16134   5.865  11.634  12.034
 4746SOL    HW116135   5.840  11.723  12.059
 4746SOL    HW216136   5.785  11.597  11.996
 4747SOL     OW16137   0.128   8.531   4.923
 4747SOL    HW116138   0.080   8.518   4.841
 4747SOL    HW216139   0.093   8.611   4.959
 4748SOL     OW16140   3.901   0.866   9.713
 4748SOL    HW116141   3.971   0.809   9.744
 4748SOL    HW216142   3.922   0.882   9.621
 4749SOL     OW16143   0.716   9.266   8.213
 4749SOL    HW116144   0.764   9.255   8.295
 4749SOL    HW216145   0.636   9.313   8.237
 4750SOL     OW16146  14.496   9.002   4.013
 4750SOL    HW116147  14.509   9.066   4.083
 4750SOL    HW216148  14.406   8.971   4.026
 4751SOL     OW16149   8.255   1.315  11.357
 4751SOL    HW116150   8.334   1.368  11.347
 4751SOL    HW216151   8.204   1.333  11.278
 4752SOL     OW16152  13.916  14.595   4.667
 4752SOL    HW116153  13.843  14.593   4.729
 4752SOL    HW216154  13.993  14.579   4.720
 4753SOL     OW16155   0.160  11.922   9.617
 4753SOL    HW116156   0.132  11.983   9.685
 4753SOL    HW216157   0.179  11.841   9.664
 4754SOL     OW16158   4.369   7.526  12.115
 4754SOL    HW116159   4.307   7.571  12.058
 4754SOL    HW216160   4.448   7.517  12.062
 4755SOL     OW16161   3.097   1.638  11.028
 4755SOL    HW116162   3.110   1.676  10.942
 4755SOL    HW216163   3.114   1.710  11.089
 4756SOL     OW16164   5.764  13.214  13.806
 4756SOL    HW116165   5.780  13.121  13.825
 4756SOL    HW216166   5.692  13.238  13.865
 4757SOL     OW16167   4.228   1.853  13.633
 4757SOL    HW116168   4.321   1.835  13.618
 4757SOL    HW216169   4.222   1.948  13.639
 4758SOL     OW16170  13.114   9.520   5.806
 4758SOL    HW116171  13.065   9.597   5.781
 4758SOL    HW216172  13.070   9.488   5.885
 4759SOL     OW16173  14.162   0.625  12.906
 4759SOL    HW116174  14.215   0.666  12.974
 4759SOL    HW216175  14.088   0.684  12.894
 4760SOL     OW16176  11.704   4.902  11.834
 4760SOL    HW116177  11.656   4.822  11.808
 4760SOL    HW216178  11.637   4.970  11.836
 4761SOL     OW16179   0.045   0.299   0.290
 4761SOL    HW116180   0.033   0.205   0.273
 4761SOL    HW216181  14.825   0.336   0.281
 4762SOL     OW16182   9.829  12.508   5.806
 4762SOL    HW116183   9.854  12.540   5.892
 4762SOL    HW216184   9.734  12.514   5.804
 4763SOL     OW16185   6.726   6.964   8.126
 4763SOL    HW116186   6.715   6.928   8.214
 4763SOL    HW216187   6.747   6.888   8.072
 4764SOL     OW16188   9.570   2.177   4.922
 4764SOL    HW116189   9.616   2.101   4.886
 4764SOL    HW216190   9.639   2.237   4.950
 4765SOL     OW16191   4.938  12.384   3.228
 4765SOL    HW116192   4.940  12.445   3.302
 4765SOL    HW216193   5.022  12.338   3.233
 4766SOL     OW16194   0.567   1.232   6.381
 4766SOL    HW116195   0.632   1.285   6.427
 4766SOL    HW216196   0.547   1.283   6.302
 4767SOL     OW16197   1.019   9.757   3.350
 4767SOL    HW116198   1.028   9.824   3.282
 4767SOL    HW216199   1.006   9.806   3.431
 4768SOL     OW16200   3.185   5.314  12.881
 4768SOL    HW116201   3.263   5.370  12.880
 4768SOL    HW216202   3.137   5.341  12.960
 4769SOL     OW16203  13.851   1.682   6.560
 4769SOL    HW116204  13.814   1.618   6.500
 4769SOL    HW216205  13.778   1.709   6.615
 4770SOL     OW16206   3.690   8.486  11.581
 4770SOL    HW116207   3.731   8.568  11.554
 4770SOL    HW216208   3.757   8.442  11.633
 4771SOL     OW16209   3.957   4.737  10.992
 4771SOL    HW116210   4.019   4.746  10.920
 4771SOL    HW216211   4.012   4.728  11.070
 4772SOL     OW16212   7.989   9.472  12.878
 4772SOL    HW116213   7.909   9.440  12.836
 4772SOL    HW216214   7.993   9.424  12.961
 4773SOL     OW16215   2.737  14.299   5.445
 4773SOL    HW116216   2.730  14.352   5.366
 4773SOL    HW216217   2.820  14.251   5.435
 4774SOL     OW16218   8.667   6.834   1.895
 4774SOL    HW116219   8.635   6.755   1.939
 4774SOL    HW216220   8.602   6.901   1.917
 4775SOL     OW16221  11.237  11.570   9.982
 4775SOL    HW116222  11.272  11.498  10.034
 4775SOL    HW216223  11.312  11.629   9.970
 4776SOL     OW16224   9.596  11.498   4.430
 4776SOL    HW116225   9.668  11.445   4.466
 4776SOL    HW216226   9.638  11.577   4.398
 4777SOL     OW16227   3.782  11.119  10.850
 4777SOL    HW116228   3.781  11.039  10.797
 4777SOL    HW216229   3.689  11.142  10.859
 4778SOL     OW16230   2.369   0.215  14.065
 4778SOL    HW116231   2.296   0.154  14.056
 4778SOL    HW216232   2.435   0.166  14.115
 4779SOL     OW16233   7.954   5.655   7.713
 4779SOL    HW116234   7.962   5.572   7.667
 4779SOL    HW216235   7.982   5.635   7.803
 4780SOL     OW16236   6.831   7.125   7.286
 4780SOL    HW116237   6.886   7.150   7.360
 4780SOL    HW216238   6.748   7.171   7.301
 4781SOL     OW16239   6.299   6.781   7.888
 4781SOL    HW116240   6.205   6.793   7.902
 4781SOL    HW216241   6.332   6.869   7.869
 4782SOL     OW16242   4.729   1.769  13.774
 4782SOL    HW116243   4.709   1.765  13.868
 4782SOL    HW216244   4.804   1.711  13.763
 4783SOL     OW16245   5.089  10.394   7.413
 4783SOL    HW116246   5.024  10.464   7.423
 4783SOL    HW216247   5.118  10.401   7.323
 4784SOL     OW16248  11.695   9.450   8.033
 4784SOL    HW116249  11.737   9.365   8.047
 4784SOL    HW216250  11.766   9.514   8.041
 4785SOL     OW16251   3.379   1.539   7.382
 4785SOL    HW116252   3.395   1.446   7.398
 4785SOL    HW216253   3.338   1.571   7.462
 4786SOL     OW16254   2.128   7.716  11.341
 4786SOL    HW116255   2.103   7.784  11.278
 4786SOL    HW216256   2.048   7.698  11.390
 4787SOL     OW16257   7.509  14.220   5.818
 4787SOL    HW116258   7.499  14.190   5.908
 4787SOL    HW216259   7.601  14.247   5.812
 4788SOL     OW16260   8.287   5.565  11.450
 4788SOL    HW116261   8.255   5.500  11.388
 4788SOL    HW216262   8.257   5.533  11.536
 4789SOL     OW16263   3.834   9.662   5.263
 4789SOL    HW116264   3.864   9.645   5.174
 4789SOL    HW216265   3.894   9.612   5.318
 4790SOL     OW16266   2.881  11.764   5.753
 4790SOL    HW116267   2.806  11.823   5.763
 4790SOL    HW216268   2.920  11.789   5.669
 4791SOL     OW16269   0.752   6.777   1.316
 4791SOL    HW116270   0.796   6.823   1.244
 4791SOL    HW216271   0.666   6.818   1.322
 4792SOL     OW16272   2.221   5.797   5.616
 4792SOL    HW116273   2.212   5.770   5.524
 4792SOL    HW216274   2.262   5.883   5.612
 4793SOL     OW16275   2.018  14.852   0.873
 4793SOL    HW116276   2.085   0.046   0.903
 4793SOL    HW216277   2.028  14.776   0.929
 4794SOL     OW16278  14.655   9.197  14.166
 4794SOL    HW116279  14.635   9.104  14.161
 4794SOL    HW216280  14.715   9.212  14.093
 4795SOL     OW16281   2.031   8.452   5.476
 4795SOL    HW116282   2.061   8.528   5.525
 4795SOL    HW216283   1.940   8.473   5.453
 4796SOL     OW16284   7.636   3.332   4.976
 4796SOL    HW116285   7.717   3.374   4.947
 4796SOL    HW216286   7.664   3.244   5.003
 4797SOL     OW16287  12.489   6.526  13.392
 4797SOL    HW116288  12.413   6.583  13.407
 4797SOL    HW216289  12.553   6.583  13.350
 4798SOL     OW16290   8.170   3.627   6.706
 4798SOL    HW116291   8.106   3.581   6.651
 4798SOL    HW216292   8.162   3.719   6.681
 4799SOL     OW16293   5.998   2.712  10.676
 4799SOL    HW116294   5.993   2.789  10.619
 4799SOL    HW216295   5.918   2.715  10.727
 4800SOL     OW16296   4.362   3.189   8.191
 4800SOL    HW116297   4.381   3.272   8.234
 4800SOL    HW216298   4.432   3.130   8.221
 4801SOL     OW16299  13.707   8.687   2.819
 4801SOL    HW116300  13.697   8.627   2.893
 4801SOL    HW216301  13.678   8.637   2.743
 4802SOL     OW16302   4.353  14.016   1.977
 4802SOL    HW116303   4.387  14.082   2.038
 4802SOL    HW216304   4.260  14.008   2.000
 4803SOL     OW16305   4.951   6.376  11.074
 4803SOL    HW116306   4.960   6.312  11.145
 4803SOL    HW216307   4.976   6.327  10.995
 4804SOL     OW16308   8.797   1.464   1.857
 4804SOL    HW116309   8.755   1.381   1.836
 4804SOL    HW216310   8.733   1.531   1.833
 4805SOL     OW16311  10.760   6.899  14.220
 4805SOL    HW116312  10.787   6.979  14.175
 4805SOL    HW216313  10.679   6.923  14.266
 4806SOL     OW16314   6.448   0.660   4.120
 4806SOL    HW116315   6.355   0.647   4.139
 4806SOL    HW216316   6.452   0.741   4.070
 4807SOL     OW16317   2.963   0.695   0.784
 4807SOL    HW116318   3.026   0.764   0.762
 4807SOL    HW216319   2.948   0.650   0.701
 4808SOL     OW16320   4.819   2.051   4.297
 4808SOL    HW116321   4.901   2.000   4.291
 4808SOL    HW216322   4.843   2.139   4.267
 4809SOL     OW16323  14.089  13.017   6.532
 4809SOL    HW116324  14.138  13.035   6.612
 4809SOL    HW216325  14.149  13.038   6.461
 4810SOL     OW16326   6.651   5.154   5.489
 4810SOL    HW116327   6.617   5.228   5.538
 4810SOL    HW216328   6.576   5.118   5.443
 4811SOL     OW16329  11.710   9.142   7.379
 4811SOL    HW116330  11.651   9.128   7.305
 4811SOL    HW216331  11.660   9.196   7.440
 4812SOL     OW16332  10.981   8.578   5.296
 4812SOL    HW116333  10.920   8.620   5.357
 4812SOL    HW216334  10.986   8.637   5.222
 4813SOL     OW16335   1.843   1.271   4.570
 4813SOL    HW116336   1.898   1.340   4.535
 4813SOL    HW216337   1.857   1.196   4.512
 4814SOL     OW16338   9.997  13.912   6.811
 4814SOL    HW116339   9.968  13.978   6.748
 4814SOL    HW216340   9.979  13.828   6.769
 4815SOL     OW16341   9.305   0.180   5.768
 4815SOL    HW116342   9.363   0.167   5.843
 4815SOL    HW216343   9.359   0.223   5.702
 4816SOL     OW16344   1.401   3.087   8.325
 4816SOL    HW116345   1.452   3.163   8.354
 4816SOL    HW216346   1.456   3.044   8.260
 4817SOL     OW16347   0.139   4.786   7.501
 4817SOL    HW116348   0.099   4.744   7.577
 4817SOL    HW216349   0.183   4.714   7.454
 4818SOL     OW16350  13.449   0.804   9.636
 4818SOL    HW116351  13.375   0.744   9.647
 4818SOL    HW216352  13.410   0.891   9.640
 4819SOL     OW16353   1.608   5.892  12.318
 4819SOL    HW116354   1.644   5.981  12.322
 4819SOL    HW216355   1.614   5.860  12.408
 4820SOL     OW16356  12.321   1.719  13.795
 4820SOL    HW116357  12.272   1.790  13.754
 4820SOL    HW216358  12.309   1.732  13.889
 4821SOL     OW16359   8.615  12.228   9.457
 4821SOL    HW116360   8.540  12.241   9.516
 4821SOL    HW216361   8.690  12.262   9.506
 4822SOL     OW16362   0.200   0.203   6.654
 4822SOL    HW116363   0.130   0.152   6.613
 4822SOL    HW216364   0.256   0.229   6.581
 4823SOL     OW16365  10.595  10.125  13.581
 4823SOL    HW116366  10.563  10.066  13.513
 4823SOL    HW216367  10.585  10.213  13.544
 4824SOL     OW16368  11.440   8.124  14.718
 4824SOL    HW116369  11.401   8.045  14.757
 4824SOL    HW216370  11.524   8.094  14.683
 4825SOL     OW16371  11.977  12.553   7.056
 4825SOL    HW116372  12.029  12.503   6.992
 4825SOL    HW216373  11.887  12.545   7.024
 4826SOL     OW16374   8.181  13.228  13.282
 4826SOL    HW116375   8.167  13.134  13.267
 4826SOL    HW216376   8.161  13.240  13.375
 4827SOL     OW16377  14.183   7.236   1.945
 4827SOL    HW116378  14.207   7.166   2.006
 4827SOL    HW216379  14.254   7.239   1.881
 4828SOL     OW16380  11.646   4.385   2.657
 4828SOL    HW116381  11.568   4.426   2.621
 4828SOL    HW216382  11.719   4.434   2.619
 4829SOL     OW16383  11.045   0.377   5.737
 4829SOL    HW116384  11.048   0.282   5.745
 4829SOL    HW216385  11.038   0.409   5.828
 4830SOL     OW16386   0.382  11.171   6.205
 4830SOL    HW116387   0.470  11.135   6.210
 4830SOL    HW216388   0.387  11.239   6.139
 4831SOL     OW16389   1.683   0.042  13.578
 4831SOL    HW116390   1.645   0.122  13.543
 4831SOL    HW216391   1.614  14.844  13.569
 4832SOL     OW16392  13.430   6.648  10.801
 4832SOL    HW116393  13.499   6.596  10.842
 4832SOL    HW216394  13.416   6.606  10.716
 4833SOL     OW16395   1.993  11.140  13.810
 4833SOL    HW116396   2.032  11.213  13.763
 4833SOL    HW216397   2.009  11.159  13.902
 4834SOL     OW16398   9.206   0.727  12.131
 4834SOL    HW116399   9.171   0.639  12.146
 4834SOL    HW216400   9.298   0.713  12.108
 4835SOL     OW16401   9.894  12.301   3.356
 4835SOL    HW116402   9.922  12.234   3.419
 4835SOL    HW216403   9.911  12.261   3.271
 4836SOL     OW16404   9.982   6.207   0.618
 4836SOL    HW116405   9.918   6.148   0.659
 4836SOL    HW216406   9.929   6.280   0.587
 4837SOL     OW16407   8.764   5.179   6.436
 4837SOL    HW116408   8.849   5.186   6.393
 4837SOL    HW216409   8.702   5.217   6.374
 4838SOL     OW16410   6.603   2.414   8.056
 4838SOL    HW116411   6.697   2.402   8.070
 4838SOL    HW216412   6.583   2.495   8.104
 4839SOL     OW16413   7.498   2.095   0.217
 4839SOL    HW116414   7.557   2.167   0.199
 4839SOL    HW216415   7.411   2.130   0.197
 4840SOL     OW16416  10.414  10.979   4.869
 4840SOL    HW116417  10.421  11.069   4.838
 4840SOL    HW216418  10.504  10.945   4.866
 4841SOL     OW16419   7.645   2.680   7.064
 4841SOL    HW116420   7.672   2.687   7.155
 4841SOL    HW216421   7.680   2.595   7.036
 4842SOL     OW16422  12.607   9.157   0.819
 4842SOL    HW116423  12.595   9.081   0.877
 4842SOL    HW216424  12.694   9.191   0.842
 4843SOL     OW16425  13.256  14.098   5.747
 4843SOL    HW116426  13.180  14.157   5.749
 4843SOL    HW216427  13.232  14.026   5.806
 4844SOL     OW16428   2.620   2.278   0.526
 4844SOL    HW116429   2.598   2.184   0.529
 4844SOL    HW216430   2.582   2.309   0.444
 4845SOL     OW16431  10.444   2.945  11.166
 4845SOL    HW116432  10.527   2.907  11.195
 4845SOL    HW216433  10.379   2.877  11.183
 4846SOL     OW16434   2.469  13.876  12.700
 4846SOL    HW116435   2.541  13.857  12.760
 4846SOL    HW216436   2.508  13.933  12.634
 4847SOL     OW16437   5.641  10.941  10.700
 4847SOL    HW116438   5.733  10.966  10.707
 4847SOL    HW216439   5.634  10.900  10.614
 4848SOL     OW16440   3.957  13.570  13.305
 4848SOL    HW116441   4.049  13.550  13.323
 4848SOL    HW216442   3.944  13.539  13.215
 4849SOL     OW16443   4.272  13.401   4.151
 4849SOL    HW116444   4.281  13.479   4.205
 4849SOL    HW216445   4.213  13.344   4.201
 4850SOL     OW16446  14.426  10.050   1.047
 4850SOL    HW116447  14.423   9.955   1.061
 4850SOL    HW216448  14.501  10.080   1.097
 4851SOL     OW16449  13.430   1.982   5.125
 4851SOL    HW116450  13.441   2.006   5.033
 4851SOL    HW216451  13.519   1.965   5.157
 4852SOL     OW16452   2.803  13.270   9.234
 4852SOL    HW116453   2.736  13.213   9.199
 4852SOL    HW216454   2.886  13.235   9.200
 4853SOL     OW16455   3.365   1.913  11.042
 4853SOL    HW116456   3.321   1.960  10.972
 4853SOL    HW216457   3.413   1.843  10.998
 4854SOL     OW16458  13.918  10.983  10.396
 4854SOL    HW116459  13.986  10.999  10.331
 4854SOL    HW216460  13.900  11.070  10.433
 4855SOL     OW16461   4.805  12.470   5.971
 4855SOL    HW116462   4.816  12.380   5.938
 4855SOL    HW216463   4.889  12.512   5.952
 4856SOL     OW16464  10.146   6.344  11.068
 4856SOL    HW116465  10.153   6.398  10.990
 4856SOL    HW216466  10.206   6.386  11.131
 4857SOL     OW16467   3.413   3.445   6.512
 4857SOL    HW116468   3.326   3.420   6.479
 4857SOL    HW216469   3.399   3.529   6.556
 4858SOL     OW16470   3.025   4.854  13.578
 4858SOL    HW116471   3.077   4.782  13.612
 4858SOL    HW216472   3.008   4.832  13.486
 4859SOL     OW16473   3.355   2.234   8.601
 4859SOL    HW116474   3.289   2.303   8.595
 4859SOL    HW216475   3.419   2.268   8.664
 4860SOL     OW16476  13.772  11.006   6.779
 4860SOL    HW116477  13.827  10.927   6.768
 4860SOL    HW216478  13.733  10.995   6.865
 4861SOL     OW16479   0.793   9.227  10.485
 4861SOL    HW116480   0.822   9.197  10.572
 4861SOL    HW216481   0.701   9.251  10.497
 4862SOL     OW16482   8.756   7.146  11.192
 4862SOL    HW116483   8.718   7.166  11.106
 4862SOL    HW216484   8.845   7.115  11.172
 4863SOL     OW16485   7.904  14.302  10.864
 4863SOL    HW116486   7.938  14.239  10.927
 4863SOL    HW216487   7.809  14.293  10.870
 4864SOL     OW16488   2.185   5.980   4.288
 4864SOL    HW116489   2.126   5.905   4.289
 4864SOL    HW216490   2.238   5.969   4.209
 4865SOL     OW16491   0.829   2.358  13.926
 4865SOL    HW116492   0.889   2.312  13.985
 4865SOL    HW216493   0.743   2.341  13.963
 4866SOL     OW16494   4.108  12.560   2.856
 4866SOL    HW116495   4.130  12.637   2.803
 4866SOL    HW216496   4.054  12.595   2.927
 4867SOL     OW16497   6.905  12.193  14.043
 4867SOL    HW116498   6.877  12.227  13.958
 4867SOL    HW216499   6.990  12.234  14.058
 4868SOL     OW16500   6.796   4.153   4.063
 4868SOL    HW116501   6.751   4.107   3.992
 4868SOL    HW216502   6.888   4.132   4.050
 4869SOL     OW16503   8.867   1.906   0.240
 4869SOL    HW116504   8.866   1.929   0.147
 4869SOL    HW216505   8.888   1.812   0.240
 4870SOL     OW16506  10.752   3.616   7.327
 4870SOL    HW116507  10.664   3.651   7.340
 4870SOL    HW216508  10.789   3.611   7.415
 4871SOL     OW16509  14.320   1.317  13.731
 4871SOL    HW116510  14.406   1.294  13.696
 4871SOL    HW216511  14.270   1.344  13.655
 4872SOL     OW16512   4.115  10.518  10.852
 4872SOL    HW116513   4.138  10.568  10.930
 4872SOL    HW216514   4.086  10.433  10.885
 4873SOL     OW16515   8.188   0.836  13.407
 4873SOL    HW116516   8.164   0.804  13.320
 4873SOL    HW216517   8.264   0.893  13.392
 4874SOL     OW16518   0.772  12.417   9.203
 4874SOL    HW116519   0.759  12.325   9.229
 4874SOL    HW216520   0.814  12.457   9.279
 4875SOL     OW16521   5.469  11.191   8.707
 4875SOL    HW116522   5.485  11.104   8.672
 4875SOL    HW216523   5.379  11.212   8.679
 4876SOL     OW16524   1.463   9.790  10.501
 4876SOL    HW116525   1.399   9.720  10.483
 4876SOL    HW216526   1.515   9.756  10.574
 4877SOL     OW16527   0.826   5.518  13.638
 4877SOL    HW116528   0.735   5.499  13.662
 4877SOL    HW216529   0.825   5.522  13.542
 4878SOL     OW16530  14.730   5.103   5.931
 4878SOL    HW116531  14.661   5.161   5.961
 4878SOL    HW216532  14.685   5.026   5.898
 4879SOL     OW16533   6.001   1.208   9.558
 4879SOL    HW116534   5.995   1.179   9.467
 4879SOL    HW216535   6.093   1.196   9.581
 4880SOL     OW16536   3.866   8.351   9.129
 4880SOL    HW116537   3.894   8.335   9.219
 4880SOL    HW216538   3.858   8.446   9.123
 4881SOL     OW16539  12.816   5.825   2.971
 4881SOL    HW116540  12.769   5.836   3.054
 4881SOL    HW216541  12.908   5.825   2.997
 4882SOL     OW16542   2.092   5.134   7.351
 4882SOL    HW116543   2.167   5.141   7.292
 4882SOL    HW216544   2.027   5.195   7.314
 4883SOL     OW16545   9.941   3.346   1.769
 4883SOL    HW116546   9.934   3.322   1.861
 4883SOL    HW216547   9.856   3.388   1.749
 4884SOL     OW16548   3.158  11.294   7.976
 4884SOL    HW116549   3.155  11.327   7.886
 4884SOL    HW216550   3.237  11.239   7.978
 4885SOL     OW16551  12.470  11.212   0.272
 4885SOL    HW116552  12.397  11.180   0.220
 4885SOL    HW216553  12.544  11.214   0.212
 4886SOL     OW16554   5.137   0.561  13.271
 4886SOL    HW116555   5.058   0.599  13.310
 4886SOL    HW216556   5.209   0.607  13.314
 4887SOL     OW16557   4.683   3.056   3.404
 4887SOL    HW116558   4.713   3.031   3.316
 4887SOL    HW216559   4.764   3.060   3.456
 4888SOL     OW16560   4.567   0.331   6.655
 4888SOL    HW116561   4.501   0.303   6.718
 4888SOL    HW216562   4.650   0.300   6.692
 4889SOL     OW16563  10.800  12.383   5.114
 4889SOL    HW116564  10.735  12.324   5.077
 4889SOL    HW216565  10.764  12.409   5.198
 4890SOL     OW16566   5.295   1.730   5.675
 4890SOL    HW116567   5.382   1.762   5.701
 4890SOL    HW216568   5.235   1.768   5.740
 4891SOL     OW16569   6.992  13.710  11.964
 4891SOL    HW116570   7.064  13.730  12.023
 4891SOL    HW216571   6.913  13.732  12.012
 4892SOL     OW16572  12.916  14.240   1.445
 4892SOL    HW116573  12.845  14.203   1.392
 4892SOL    HW216574  12.874  14.308   1.497
 4893SOL     OW16575   5.476   3.969   0.951
 4893SOL    HW116576   5.412   4.000   0.888
 4893SOL    HW216577   5.561   3.990   0.912
 4894SOL     OW16578  12.995  12.858   5.165
 4894SOL    HW116579  13.000  12.782   5.107
 4894SOL    HW216580  13.078  12.904   5.152
 4895SOL     OW16581   8.348   2.991   7.541
 4895SOL    HW116582   8.275   2.930   7.534
 4895SOL    HW216583   8.406   2.953   7.607
 4896SOL     OW16584   7.932   0.305  12.600
 4896SOL    HW116585   7.959   0.213  12.605
 4896SOL    HW216586   7.955   0.331  12.511
 4897SOL     OW16587   3.035  10.162   9.914
 4897SOL    HW116588   3.026  10.249   9.952
 4897SOL    HW216589   2.969  10.159   9.845
 4898SOL     OW16590   9.544  12.094   5.017
 4898SOL    HW116591   9.487  12.094   5.094
 4898SOL    HW216592   9.586  12.181   5.019
 4899SOL     OW16593   3.813  12.969  13.018
 4899SOL    HW116594   3.772  12.950  13.102
 4899SOL    HW216595   3.841  12.883  12.985
 4900SOL     OW16596   1.309  14.395  11.144
 4900SOL    HW116597   1.244  14.363  11.081
 4900SOL    HW216598   1.320  14.322  11.206
 4901SOL     OW16599   8.346  10.100  13.380
 4901SOL    HW116600   8.307  10.183  13.408
 4901SOL    HW216601   8.424  10.090  13.435
 4902SOL     OW16602  12.894   8.613  14.178
 4902SOL    HW116603  12.908   8.530  14.131
 4902SOL    HW216604  12.852   8.670  14.113
 4903SOL     OW16605   9.395   8.158  12.876
 4903SOL    HW116606   9.346   8.207  12.810
 4903SOL    HW216607   9.339   8.161  12.954
 4904SOL     OW16608  10.076   8.264   4.281
 4904SOL    HW116609   9.998   8.284   4.332
 4904SOL    HW216610  10.131   8.343   4.289
 4905SOL     OW16611   9.645  14.533   3.033
 4905SOL    HW116612   9.565  14.524   3.085
 4905SOL    HW216613   9.716  14.522   3.097
 4906SOL     OW16614   1.717   2.992   5.514
 4906SOL    HW116615   1.652   3.007   5.583
 4906SOL    HW216616   1.667   2.964   5.438
 4907SOL     OW16617   9.881   6.446   3.202
 4907SOL    HW116618   9.801   6.462   3.151
 4907SOL    HW216619   9.866   6.490   3.285
 4908SOL     OW16620   5.078  12.987   6.725
 4908SOL    HW116621   5.094  12.918   6.660
 4908SOL    HW216622   4.986  12.976   6.749
 4909SOL     OW16623   2.719   6.297  14.665
 4909SOL    HW116624   2.710   6.318  14.572
 4909SOL    HW216625   2.638   6.329  14.704
 4910SOL     OW16626   0.174  11.012   8.147
 4910SOL    HW116627   0.191  11.040   8.237
 4910SOL    HW216628   0.113  10.939   8.155
 4911SOL     OW16629   5.417  14.413   7.335
 4911SOL    HW116630   5.355  14.341   7.324
 4911SOL    HW216631   5.479  14.381   7.401
 4912SOL     OW16632  10.363   1.641  12.611
 4912SOL    HW116633  10.313   1.577  12.663
 4912SOL    HW216634  10.387   1.709  12.674
 4913SOL     OW16635   4.705  10.596   4.714
 4913SOL    HW116636   4.654  10.631   4.641
 4913SOL    HW216637   4.739  10.673   4.759
 4914SOL     OW16638   3.730  11.086   2.976
 4914SOL    HW116639   3.802  11.139   3.009
 4914SOL    HW216640   3.730  11.008   3.032
 4915SOL     OW16641   3.640  10.163  13.659
 4915SOL    HW116642   3.663  10.108  13.584
 4915SOL    HW216643   3.700  10.136  13.728
 4916SOL     OW16644   8.715   1.365  13.471
 4916SOL    HW116645   8.671   1.419  13.406
 4916SOL    HW216646   8.649   1.353  13.540
 4917SOL     OW16647   5.408   0.487   8.154
 4917SOL    HW116648   5.409   0.533   8.238
 4917SOL    HW216649   5.410   0.557   8.089
 4918SOL     OW16650   9.589   8.922   2.448
 4918SOL    HW116651   9.539   8.920   2.529
 4918SOL    HW216652   9.534   8.970   2.387
 4919SOL     OW16653  13.716   7.346   3.327
 4919SOL    HW116654  13.671   7.289   3.265
 4919SOL    HW216655  13.739   7.287   3.400
 4920SOL     OW16656  11.069   2.990   4.730
 4920SOL    HW116657  11.089   2.948   4.646
 4920SOL    HW216658  11.142   2.965   4.787
 4921SOL     OW16659   3.881   3.245   7.468
 4921SOL    HW116660   3.884   3.207   7.381
 4921SOL    HW216661   3.925   3.330   7.460
 4922SOL     OW16662  10.605   8.559   2.622
 4922SOL    HW116663  10.616   8.640   2.672
 4922SOL    HW216664  10.607   8.490   2.689
 4923SOL     OW16665   9.029  13.777  10.260
 4923SOL    HW116666   9.064  13.729  10.186
 4923SOL    HW216667   8.935  13.757  10.260
 4924SOL     OW16668   2.195   1.120  10.135
 4924SOL    HW116669   2.227   1.201  10.094
 4924SOL    HW216670   2.100   1.134  10.144
 4925SOL     OW16671  12.345   8.332  13.827
 4925SOL    HW116672  12.352   8.309  13.920
 4925SOL    HW216673  12.357   8.427  13.825
 4926SOL     OW16674   3.612   5.333   7.179
 4926SOL    HW116675   3.699   5.363   7.150
 4926SOL    HW216676   3.605   5.244   7.145
 4927SOL     OW16677  11.421  13.368  12.343
 4927SOL    HW116678  11.510  13.403  12.351
 4927SOL    HW216679  11.403  13.369  12.249
 4928SOL     OW16680   1.629   2.595   0.600
 4928SOL    HW116681   1.625   2.623   0.691
 4928SOL    HW216682   1.716   2.555   0.591
 4929SOL     OW16683   7.446   4.799   9.172
 4929SOL    HW116684   7.530   4.784   9.216
 4929SOL    HW216685   7.425   4.714   9.134
 4930SOL     OW16686   8.127   7.173  12.017
 4930SOL    HW116687   8.176   7.146  11.939
 4930SOL    HW216688   8.172   7.251  12.048
 4931SOL     OW16689   1.705  10.132   3.995
 4931SOL    HW116690   1.745  10.061   4.045
 4931SOL    HW216691   1.635  10.165   4.052
 4932SOL     OW16692   0.125  13.994   4.900
 4932SOL    HW116693   0.073  13.933   4.847
 4932SOL    HW216694   0.097  13.977   4.990
 4933SOL     OW16695  14.245   1.252   9.921
 4933SOL    HW116696  14.258   1.340   9.885
 4933SOL    HW216697  14.272   1.193   9.851
 4934SOL     OW16698   5.344   9.211   3.951
 4934SOL    HW116699   5.339   9.152   3.876
 4934SOL    HW216700   5.253   9.222   3.979
 4935SOL     OW16701   0.171   7.554   8.062
 4935SOL    HW116702   0.124   7.571   8.144
 4935SOL    HW216703   0.184   7.641   8.024
 4936SOL     OW16704  11.430  13.520  14.748
 4936SOL    HW116705  11.336  13.511  14.731
 4936SOL    HW216706  11.442  13.611  14.773
 4937SOL     OW16707   2.843  13.645   7.175
 4937SOL    HW116708   2.921  13.639   7.230
 4937SOL    HW216709   2.814  13.554   7.166
 4938SOL     OW16710   2.541  13.586  11.464
 4938SOL    HW116711   2.584  13.643  11.528
 4938SOL    HW216712   2.609  13.567  11.400
 4939SOL     OW16713   8.961   2.438   0.605
 4939SOL    HW116714   9.039   2.492   0.618
 4939SOL    HW216715   8.912   2.483   0.537
 4940SOL     OW16716   7.775   5.130   6.701
 4940SOL    HW116717   7.698   5.181   6.675
 4940SOL    HW216718   7.739   5.054   6.747
 4941SOL     OW16719   6.163   7.569  14.222
 4941SOL    HW116720   6.242   7.603  14.180
 4941SOL    HW216721   6.190   7.551  14.312
 4942SOL     OW16722  11.986  13.998   5.703
 4942SOL    HW116723  12.075  13.967   5.716
 4942SOL    HW216724  11.975  14.069   5.766
 4943SOL     OW16725   0.006   3.952   9.812
 4943SOL    HW116726  14.863   4.047   9.814
 4943SOL    HW216727  14.839   3.923   9.896
 4944SOL     OW16728   8.843   5.370   1.752
 4944SOL    HW116729   8.767   5.422   1.781
 4944SOL    HW216730   8.901   5.434   1.711
 4945SOL     OW16731   3.168   7.897  12.096
 4945SOL    HW116732   3.219   7.978  12.099
 4945SOL    HW216733   3.188   7.860  12.010
 4946SOL     OW16734   1.225   7.219   7.877
 4946SOL    HW116735   1.256   7.216   7.967
 4946SOL    HW216736   1.168   7.295   7.872
 4947SOL     OW16737  13.685   5.088  12.755
 4947SOL    HW116738  13.681   5.039  12.837
 4947SOL    HW216739  13.656   5.176  12.778
 4948SOL     OW16740   6.493   0.355   8.523
 4948SOL    HW116741   6.549   0.427   8.495
 4948SOL    HW216742   6.530   0.325   8.606
 4949SOL     OW16743  12.311   3.250   6.632
 4949SOL    HW116744  12.245   3.196   6.674
 4949SOL    HW216745  12.270   3.283   6.553
 4950SOL     OW16746   9.303  12.304  13.035
 4950SOL    HW116747   9.333  12.241  13.101
 4950SOL    HW216748   9.226  12.262  12.995
 4951SOL     OW16749  10.991   0.177  10.019
 4951SOL    HW116750  11.056   0.241  10.046
 4951SOL    HW216751  11.042   0.100   9.993
 4952SOL     OW16752  14.261   9.939   1.985
 4952SOL    HW116753  14.193  10.004   1.971
 4952SOL    HW216754  14.252   9.878   1.912
 4953SOL     OW16755  13.083   3.682   0.184
 4953SOL    HW116756  13.020   3.613   0.163
 4953SOL    HW216757  13.045   3.761   0.147
 4954SOL     OW16758   2.715  12.992   2.390
 4954SOL    HW116759   2.756  12.991   2.304
 4954SOL    HW216760   2.777  13.040   2.446
 4955SOL     OW16761   2.157  13.800   6.421
 4955SOL    HW116762   2.190  13.712   6.402
 4955SOL    HW216763   2.162  13.847   6.338
 4956SOL     OW16764  12.881   6.988   6.726
 4956SOL    HW116765  12.875   7.075   6.766
 4956SOL    HW216766  12.826   6.933   6.782
 4957SOL     OW16767   7.392   2.526   4.131
 4957SOL    HW116768   7.436   2.456   4.179
 4957SOL    HW216769   7.373   2.593   4.197
 4958SOL     OW16770   7.441  13.825   6.920
 4958SOL    HW116771   7.469  13.900   6.973
 4958SOL    HW216772   7.501  13.754   6.944
 4959SOL     OW16773  10.863  11.330  14.192
 4959SOL    HW116774  10.868  11.425  14.199
 4959SOL    HW216775  10.872  11.298  14.282
 4960SOL     OW16776  10.847   9.189   8.767
 4960SOL    HW116777  10.803   9.149   8.842
 4960SOL    HW216778  10.824   9.281   8.771
 4961SOL     OW16779   6.251   5.912  14.079
 4961SOL    HW116780   6.216   5.939  13.994
 4961SOL    HW216781   6.277   5.821  14.067
 4962SOL     OW16782  14.348   5.442   0.756
 4962SOL    HW116783  14.339   5.394   0.838
 4962SOL    HW216784  14.440   5.469   0.754
 4963SOL     OW16785   0.227   6.589   4.280
 4963SOL    HW116786   0.244   6.660   4.218
 4963SOL    HW216787   0.242   6.509   4.230
 4964SOL     OW16788   3.556   9.377   7.819
 4964SOL    HW116789   3.503   9.373   7.739
 4964SOL    HW216790   3.588   9.287   7.830
 4965SOL     OW16791   5.142  10.935  10.785
 4965SOL    HW116792   5.152  11.014  10.732
 4965SOL    HW216793   5.072  10.886  10.742
 4966SOL     OW16794   1.697   5.795   8.376
 4966SOL    HW116795   1.697   5.861   8.446
 4966SOL    HW216796   1.773   5.818   8.322
 4967SOL     OW16797   9.875   0.252  11.948
 4967SOL    HW116798   9.915   0.309  12.015
 4967SOL    HW216799   9.909   0.165  11.968
 4968SOL     OW16800   1.815  13.120   5.398
 4968SOL    HW116801   1.849  13.187   5.457
 4968SOL    HW216802   1.721  13.134   5.397
 4969SOL     OW16803   0.510  10.821  11.115
 4969SOL    HW116804   0.511  10.731  11.083
 4969SOL    HW216805   0.556  10.871  11.047
 4970SOL     OW16806  13.785   9.904   6.938
 4970SOL    HW116807  13.806   9.846   6.865
 4970SOL    HW216808  13.868   9.917   6.983
 4971SOL     OW16809   4.791   4.550  14.284
 4971SOL    HW116810   4.708   4.597  14.285
 4971SOL    HW216811   4.783   4.489  14.210
 4972SOL     OW16812   2.915  12.967  11.566
 4972SOL    HW116813   2.944  12.946  11.477
 4972SOL    HW216814   2.965  13.046  11.590
 4973SOL     OW16815  11.130  13.573  10.975
 4973SOL    HW116816  11.116  13.620  11.056
 4973SOL    HW216817  11.116  13.638  10.906
 4974SOL     OW16818   6.976  13.988  14.479
 4974SOL    HW116819   7.052  13.938  14.450
 4974SOL    HW216820   6.951  14.040  14.403
 4975SOL     OW16821   9.257   5.066  12.571
 4975SOL    HW116822   9.205   5.106  12.501
 4975SOL    HW216823   9.297   4.989  12.530
 4976SOL     OW16824   2.855  11.839   3.151
 4976SOL    HW116825   2.843  11.853   3.244
 4976SOL    HW216826   2.800  11.905   3.109
 4977SOL     OW16827  10.441  11.479   4.902
 4977SOL    HW116828  10.359  11.525   4.884
 4977SOL    HW216829  10.507  11.549   4.907
 4978SOL     OW16830  13.863   0.984  12.750
 4978SOL    HW116831  13.816   0.984  12.667
 4978SOL    HW216832  13.952   0.957  12.726
 4979SOL     OW16833  10.263   3.581   6.919
 4979SOL    HW116834  10.253   3.532   6.837
 4979SOL    HW216835  10.305   3.663   6.893
 4980SOL     OW16836  10.335   9.512  12.907
 4980SOL    HW116837  10.296   9.491  12.992
 4980SOL    HW216838  10.322   9.434  12.854
 4981SOL     OW16839  11.185   0.911   0.457
 4981SOL    HW116840  11.193   0.879   0.547
 4981SOL    HW216841  11.165   1.004   0.466
 4982SOL     OW16842   1.472   9.927   8.947
 4982SOL    HW116843   1.380   9.916   8.969
 4982SOL    HW216844   1.518   9.862   9.001
 4983SOL     OW16845  12.165   6.150   5.004
 4983SOL    HW116846  12.141   6.116   4.918
 4983SOL    HW216847  12.249   6.107   5.024
 4984SOL     OW16848   9.761  10.439   5.965
 4984SOL    HW116849   9.752  10.449   5.871
 4984SOL    HW216850   9.853  10.457   5.983
 4985SOL     OW16851   9.913   9.846  11.635
 4985SOL    HW116852   9.975   9.914  11.662
 4985SOL    HW216853   9.828   9.880  11.661
 4986SOL     OW16854   9.139   2.944   7.207
 4986SOL    HW116855   9.186   3.004   7.265
 4986SOL    HW216856   9.066   2.995   7.174
 4987SOL     OW16857   0.955   0.776   0.672
 4987SOL    HW116858   0.924   0.857   0.632
 4987SOL    HW216859   1.001   0.805   0.751
 4988SOL     OW16860   0.826   1.551  10.639
 4988SOL    HW116861   0.759   1.484  10.622
 4988SOL    HW216862   0.777   1.632  10.648
 4989SOL     OW16863  12.747   4.056   4.247
 4989SOL    HW116864  12.733   3.967   4.280
 4989SOL    HW216865  12.837   4.055   4.215
 4990SOL     OW16866  13.702   4.061  10.328
 4990SOL    HW116867  13.636   4.098  10.268
 4990SOL    HW216868  13.777   4.119  10.320
 4991SOL     OW16869   5.276   1.754   7.848
 4991SOL    HW116870   5.340   1.691   7.815
 4991SOL    HW216871   5.205   1.701   7.883
 4992SOL     OW16872   7.246  14.036   9.438
 4992SOL    HW116873   7.338  14.061   9.437
 4992SOL    HW216874   7.245  13.946   9.404
 4993SOL     OW16875   7.174   2.950   5.633
 4993SOL    HW116876   7.112   2.972   5.563
 4993SOL    HW216877   7.253   3.000   5.613
 4994SOL     OW16878   3.784   1.632   9.377
 4994SOL    HW116879   3.748   1.662   9.461
 4994SOL    HW216880   3.784   1.536   9.385
 4995SOL     OW16881   0.276  11.819  14.735
 4995SOL    HW116882   0.220  11.881  14.689
 4995SOL    HW216883   0.311  11.869  14.809
 4996SOL     OW16884  14.487  12.067   1.514
 4996SOL    HW116885  14.509  11.997   1.575
 4996SOL    HW216886  14.490  12.026   1.427
 4997SOL     OW16887  13.398   3.069   2.200
 4997SOL    HW116888  13.431   2.983   2.228
 4997SOL    HW216889  13.477   3.121   2.184
 4998SOL     OW16890   6.463  11.039   1.900
 4998SOL    HW116891   6.447  11.095   1.824
 4998SOL    HW216892   6.557  11.048   1.917
 4999SOL     OW16893   0.655   1.117  10.160
 4999SOL    HW116894   0.626   1.200  10.120
 4999SOL    HW216895   0.741   1.137  10.197
 5000SOL     OW16896  13.824   4.307   3.597
 5000SOL    HW116897  13.753   4.317   3.533
 5000SOL    HW216898  13.870   4.391   3.596
 5001SOL     OW16899  10.172  11.580  11.229
 5001SOL    HW116900  10.101  11.624  11.183
 5001SOL    HW216901  10.139  11.491  11.243
 5002SOL     OW16902   0.038   8.098   4.439
 5002SOL    HW116903   0.132   8.102   4.426
 5002SOL    HW216904   0.014   8.185   4.471
 5003SOL     OW16905   5.544   4.056  14.061
 5003SOL    HW116906   5.529   3.969  14.099
 5003SOL    HW216907   5.497   4.054  13.978
 5004SOL     OW16908  10.690   1.390   0.026
 5004SOL    HW116909  10.726   1.441   0.099
 5004SOL    HW216910  10.610   1.436   0.001
 5005SOL     OW16911  10.256   9.701   2.200
 5005SOL    HW116912  10.163   9.689   2.182
 5005SOL    HW216913  10.298   9.691   2.114
 5006SOL     OW16914  12.355   4.302   3.584
 5006SOL    HW116915  12.433   4.327   3.634
 5006SOL    HW216916  12.282   4.318   3.644
 5007SOL     OW16917   8.438  12.545   6.961
 5007SOL    HW116918   8.412  12.482   7.028
 5007SOL    HW216919   8.442  12.629   7.007
 5008SOL     OW16920   1.325   4.583   3.083
 5008SOL    HW116921   1.291   4.529   3.154
 5008SOL    HW216922   1.356   4.521   3.017
 5009SOL     OW16923   0.406   1.013   5.327
 5009SOL    HW116924   0.363   1.070   5.264
 5009SOL    HW216925   0.395   0.925   5.291
 5010SOL     OW16926   5.606   4.589   9.685
 5010SOL    HW116927   5.570   4.669   9.723
 5010SOL    HW216928   5.553   4.519   9.724
 5011SOL     OW16929   5.688  10.878   1.256
 5011SOL    HW116930   5.740  10.799   1.273
 5011SOL    HW216931   5.723  10.912   1.173
 5012SOL     OW16932  12.656  10.935   3.323
 5012SOL    HW116933  12.563  10.940   3.303
 5012SOL    HW216934  12.698  10.913   3.240
 5013SOL     OW16935   8.624  12.416  14.546
 5013SOL    HW116936   8.543  12.435  14.594
 5013SOL    HW216937   8.671  12.353  14.602
 5014SOL     OW16938  12.454   5.062  12.057
 5014SOL    HW116939  12.458   5.121  11.982
 5014SOL    HW216940  12.372   5.014  12.046
 5015SOL     OW16941  10.919  12.316  10.456
 5015SOL    HW116942  10.968  12.363  10.524
 5015SOL    HW216943  10.983  12.299  10.387
 5016SOL     OW16944   3.994   2.014   1.288
 5016SOL    HW116945   3.921   1.955   1.268
 5016SOL    HW216946   4.023   1.987   1.375
 5017SOL     OW16947   3.252   9.939   7.246
 5017SOL    HW116948   3.199  10.018   7.238
 5017SOL    HW216949   3.237   9.891   7.165
 5018SOL     OW16950   6.394   7.191   9.455
 5018SOL    HW116951   6.321   7.246   9.484
 5018SOL    HW216952   6.467   7.253   9.443
 5019SOL     OW16953   9.438   6.421   2.043
 5019SOL    HW116954   9.447   6.328   2.064
 5019SOL    HW216955   9.528   6.451   2.029
 5020SOL     OW16956   0.276  11.952   9.345
 5020SOL    HW116957   0.203  12.013   9.334
 5020SOL    HW216958   0.245  11.890   9.412
 5021SOL     OW16959  11.716   0.873   2.636
 5021SOL    HW116960  11.676   0.836   2.558
 5021SOL    HW216961  11.808   0.848   2.631
 5022SOL     OW16962   9.635   5.380  10.900
 5022SOL    HW116963   9.663   5.465  10.865
 5022SOL    HW216964   9.581   5.342  10.830
 5023SOL     OW16965   7.437  14.832   1.670
 5023SOL    HW116966   7.524   0.004   1.673
 5023SOL    HW216967   7.420  14.818   1.577
 5024SOL     OW16968   1.541   8.586  13.714
 5024SOL    HW116969   1.584   8.586  13.800
 5024SOL    HW216970   1.598   8.640  13.659
 5025SOL     OW16971   3.535   6.685  13.886
 5025SOL    HW116972   3.503   6.735  13.810
 5025SOL    HW216973   3.599   6.624  13.849
 5026SOL     OW16974   9.902   4.380   6.400
 5026SOL    HW116975   9.843   4.375   6.475
 5026SOL    HW216976   9.854   4.430   6.334
 5027SOL     OW16977   4.575   2.188   0.178
 5027SOL    HW116978   4.581   2.105   0.131
 5027SOL    HW216979   4.528   2.166   0.259
 5028SOL     OW16980   4.815  11.341  11.997
 5028SOL    HW116981   4.898  11.363  11.953
 5028SOL    HW216982   4.805  11.408  12.064
 5029SOL     OW16983   9.144   9.141   8.356
 5029SOL    HW116984   9.065   9.130   8.409
 5029SOL    HW216985   9.205   9.189   8.412
 5030SOL     OW16986   7.083  14.365  13.886
 5030SOL    HW116987   7.080  14.352  13.981
 5030SOL    HW216988   7.027  14.442  13.871
 5031SOL     OW16989   7.776   6.571  12.796
 5031SOL    HW116990   7.817   6.495  12.757
 5031SOL    HW216991   7.790   6.642  12.733
 5032SOL     OW16992   9.544  12.394   0.090
 5032SOL    HW116993   9.457  12.434   0.092
 5032SOL    HW216994   9.572  12.391   0.181
 5033SOL     OW16995   0.094  12.070   3.990
 5033SOL    HW116996   0.150  12.146   4.006
 5033SOL    HW216997   0.022  12.103   3.936
 5034SOL     OW16998   0.062   5.054  14.753
 5034SOL    HW116999   0.067   5.118  14.681
 5034SOL    HW217000   0.100   4.975  14.716
 5035SOL     OW17001   8.198   2.862  12.812
 5035SOL    HW117002   8.293   2.850  12.814
 5035SOL    HW217003   8.186   2.948  12.772
 5036SOL     OW17004   0.592   5.516   9.298
 5036SOL    HW117005   0.680   5.486   9.319
 5036SOL    HW217006   0.601   5.558   9.213
 5037SOL     OW17007  12.462   8.886   3.526
 5037SOL    HW117008  12.404   8.849   3.459
 5037SOL    HW217009  12.405   8.906   3.600
 5038SOL     OW17010   5.230   6.740  12.917
 5038SOL    HW117011   5.221   6.646  12.930
 5038SOL    HW217012   5.155   6.764  12.863
 5039SOL     OW17013   8.435  11.929   8.710
 5039SOL    HW117014   8.391  11.963   8.787
 5039SOL    HW217015   8.528  11.937   8.730
 5040SOL     OW17016  10.655   3.327  10.906
 5040SOL    HW117017  10.623   3.237  10.904
 5040SOL    HW217018  10.656   3.351  10.999
 5041SOL     OW17019   6.522  12.077  11.653
 5041SOL    HW117020   6.551  12.073  11.562
 5041SOL    HW217021   6.472  12.159  11.659
 5042SOL     OW17022   9.022   8.169   4.766
 5042SOL    HW117023   9.008   8.079   4.795
 5042SOL    HW217024   9.116   8.184   4.779
 5043SOL     OW17025   5.657   0.883   4.970
 5043SOL    HW117026   5.612   0.836   5.041
 5043SOL    HW217027   5.618   0.847   4.890
 5044SOL     OW17028   4.973   1.000   3.408
 5044SOL    HW117029   4.972   1.068   3.474
 5044SOL    HW217030   5.061   0.963   3.411
 5045SOL     OW17031   3.410   3.707   9.713
 5045SOL    HW117032   3.443   3.762   9.783
 5045SOL    HW217033   3.447   3.745   9.633
 5046SOL     OW17034   9.451  11.684   4.959
 5046SOL    HW117035   9.418  11.605   5.000
 5046SOL    HW217036   9.375  11.722   4.914
 5047SOL     OW17037  14.298  14.570   1.890
 5047SOL    HW117038  14.269  14.587   1.980
 5047SOL    HW217039  14.364  14.637   1.874
 5048SOL     OW17040   9.157  14.524   7.083
 5048SOL    HW117041   9.252  14.519   7.069
 5048SOL    HW217042   9.131  14.606   7.041
 5049SOL     OW17043  11.755   9.595  13.472
 5049SOL    HW117044  11.690   9.536  13.508
 5049SOL    HW217045  11.829   9.538  13.448
 5050SOL     OW17046  14.748   1.982  11.330
 5050SOL    HW117047  14.695   2.044  11.280
 5050SOL    HW217048  14.685   1.937  11.386
 5051SOL     OW17049   4.248   0.041   4.181
 5051SOL    HW117050   4.342   0.035   4.200
 5051SOL    HW217051   4.229  14.830   4.130
 5052SOL     OW17052   3.280  11.712   1.040
 5052SOL    HW117053   3.370  11.696   1.013
 5052SOL    HW217054   3.230  11.720   0.959
 5053SOL     OW17055   8.268  14.311  11.130
 5053SOL    HW117056   8.278  14.228  11.082
 5053SOL    HW217057   8.328  14.304  11.203
 5054SOL     OW17058   8.392   8.258  14.070
 5054SOL    HW117059   8.450   8.330  14.095
 5054SOL    HW217060   8.446   8.179  14.077
 5055SOL     OW17061   6.768   1.344  12.251
 5055SOL    HW117062   6.687   1.311  12.211
 5055SOL    HW217063   6.792   1.420  12.198
 5056SOL     OW17064   3.179   2.587   1.470
 5056SOL    HW117065   3.216   2.638   1.398
 5056SOL    HW217066   3.249   2.526   1.494
 5057SOL     OW17067  10.073   7.906  10.225
 5057SOL    HW117068  10.073   7.936  10.134
 5057SOL    HW217069   9.994   7.944  10.263
 5058SOL     OW17070   7.774  11.765   1.701
 5058SOL    HW117071   7.807  11.842   1.747
 5058SOL    HW217072   7.853  11.723   1.665
 5059SOL     OW17073   3.410   5.152  10.357
 5059SOL    HW117074   3.324   5.190  10.343
 5059SOL    HW217075   3.467   5.198  10.295
 5060SOL     OW17076   4.624  12.457   3.167
 5060SOL    HW117077   4.576  12.509   3.232
 5060SOL    HW217078   4.562  12.391   3.138
 5061SOL     OW17079   5.345   6.466   4.379
 5061SOL    HW117080   5.280   6.472   4.309
 5061SOL    HW217081   5.348   6.553   4.418
 5062SOL     OW17082   2.252  10.238   8.260
 5062SOL    HW117083   2.162  10.232   8.229
 5062SOL    HW217084   2.305  10.202   8.189
 5063SOL     OW17085  10.773  12.239   4.365
 5063SOL    HW117086  10.686  12.211   4.393
 5063SOL    HW217087  10.833  12.193   4.424
 5064SOL     OW17088  10.371   6.281   7.010
 5064SOL    HW117089  10.463   6.261   6.993
 5064SOL    HW217090  10.322   6.214   6.961
 5065SOL     OW17091  10.532   3.225   9.060
 5065SOL    HW117092  10.545   3.319   9.052
 5065SOL    HW217093  10.564   3.189   8.977
 5066SOL     OW17094  12.014  13.567   4.137
 5066SOL    HW117095  12.088  13.586   4.079
 5066SOL    HW217096  11.941  13.614   4.097
 5067SOL     OW17097   0.501  14.630   3.863
 5067SOL    HW117098   0.569  14.618   3.929
 5067SOL    HW217099   0.422  14.650   3.913
 5068SOL     OW17100   2.810   5.767  11.842
 5068SOL    HW117101   2.788   5.778  11.750
 5068SOL    HW217102   2.880   5.701  11.842
 5069SOL     OW17103   1.634   6.008   7.229
 5069SOL    HW117104   1.568   5.995   7.297
 5069SOL    HW217105   1.638   5.923   7.184
 5070SOL     OW17106   4.434  11.232   9.889
 5070SOL    HW117107   4.451  11.140   9.868
 5070SOL    HW217108   4.520  11.268   9.910
 5071SOL     OW17109   7.302  14.401   9.964
 5071SOL    HW117110   7.223  14.440   9.926
 5071SOL    HW217111   7.333  14.339   9.898
 5072SOL     OW17112   8.250   9.961   0.082
 5072SOL    HW117113   8.265   9.867   0.068
 5072SOL    HW217114   8.337  10.000   0.075
 5073SOL     OW17115   1.117  11.134   5.128
 5073SOL    HW117116   1.099  11.150   5.220
 5073SOL    HW217117   1.118  11.038   5.119
 5074SOL     OW17118   0.993   6.582  11.256
 5074SOL    HW117119   0.912   6.573  11.307
 5074SOL    HW217120   1.057   6.531  11.306
 5075SOL     OW17121   7.911   6.764   4.607
 5075SOL    HW117122   7.936   6.856   4.618
 5075SOL    HW217123   7.851   6.747   4.679
 5076SOL     OW17124  14.086  11.164  11.793
 5076SOL    HW117125  14.007  11.191  11.746
 5076SOL    HW217126  14.156  11.170  11.727
 5077SOL     OW17127   8.144  11.810   5.149
 5077SOL    HW117128   8.139  11.775   5.238
 5077SOL    HW217129   8.218  11.763   5.110
 5078SOL     OW17130   9.850  14.240  13.469
 5078SOL    HW117131   9.776  14.266  13.415
 5078SOL    HW217132   9.924  14.292  13.438
 5079SOL     OW17133   4.549   2.255   3.112
 5079SOL    HW117134   4.626   2.199   3.114
 5079SOL    HW217135   4.499   2.233   3.191
 5080SOL     OW17136   9.985  11.934   1.160
 5080SOL    HW117137  10.079  11.915   1.158
 5080SOL    HW217138   9.963  11.937   1.253
 5081SOL     OW17139  14.722  13.292   3.471
 5081SOL    HW117140  14.747  13.348   3.397
 5081SOL    HW217141  14.795  13.232   3.481
 5082SOL     OW17142   5.133   3.607   9.266
 5082SOL    HW117143   5.127   3.651   9.351
 5082SOL    HW217144   5.104   3.672   9.203
 5083SOL     OW17145  11.404   3.317   5.238
 5083SOL    HW117146  11.321   3.275   5.262
 5083SOL    HW217147  11.378   3.387   5.178
 5084SOL     OW17148   5.660   6.439  11.360
 5084SOL    HW117149   5.644   6.351  11.324
 5084SOL    HW217150   5.665   6.495  11.282
 5085SOL     OW17151   7.080   8.414   2.681
 5085SOL    HW117152   7.173   8.391   2.690
 5085SOL    HW217153   7.033   8.340   2.719
 5086SOL     OW17154   1.817   5.769   5.048
 5086SOL    HW117155   1.903   5.741   5.080
 5086SOL    HW217156   1.817   5.745   4.956
 5087SOL     OW17157   8.972   4.298  11.059
 5087SOL    HW117158   8.950   4.214  11.020
 5087SOL    HW217159   9.004   4.351  10.986
 5088SOL     OW17160   9.868   3.336   1.280
 5088SOL    HW117161   9.794   3.385   1.316
 5088SOL    HW217162   9.876   3.368   1.190
 5089SOL     OW17163   5.850  14.010  11.913
 5089SOL    HW117164   5.937  13.978  11.934
 5089SOL    HW217165   5.853  14.103  11.936
 5090SOL     OW17166  10.810   9.502  11.703
 5090SOL    HW117167  10.746   9.513  11.632
 5090SOL    HW217168  10.816   9.588  11.744
 5091SOL     OW17169   7.243   0.178  14.307
 5091SOL    HW117170   7.195   0.112  14.357
 5091SOL    HW217171   7.258   0.249  14.369
 5092SOL     OW17172   3.783  13.998  11.982
 5092SOL    HW117173   3.835  14.019  12.060
 5092SOL    HW217174   3.692  14.006  12.011
 5093SOL     OW17175   6.685  12.675   0.002
 5093SOL    HW117176   6.619  12.610  14.848
 5093SOL    HW217177   6.767  12.638  14.837
 5094SOL     OW17178   3.201   4.717  12.859
 5094SOL    HW117179   3.122   4.753  12.819
 5094SOL    HW217180   3.210   4.630  12.820
 5095SOL     OW17181   3.232  12.423   1.204
 5095SOL    HW117182   3.257  12.512   1.178
 5095SOL    HW217183   3.309  12.370   1.183
 5096SOL     OW17184   7.949   9.493   8.774
 5096SOL    HW117185   7.872   9.480   8.719
 5096SOL    HW217186   8.002   9.558   8.729
 5097SOL     OW17187   4.217   9.174   6.515
 5097SOL    HW117188   4.196   9.134   6.431
 5097SOL    HW217189   4.305   9.142   6.536
 5098SOL     OW17190   5.338   5.328   2.503
 5098SOL    HW117191   5.341   5.383   2.425
 5098SOL    HW217192   5.430   5.305   2.519
 5099SOL     OW17193   4.729  11.700   1.513
 5099SOL    HW117194   4.763  11.769   1.570
 5099SOL    HW217195   4.660  11.659   1.565
 5100SOL     OW17196  10.405  10.365   4.527
 5100SOL    HW117197  10.346  10.436   4.502
 5100SOL    HW217198  10.367  10.327   4.606
 5101SOL     OW17199  11.158   1.212  11.860
 5101SOL    HW117200  11.068   1.179  11.864
 5101SOL    HW217201  11.176   1.242  11.949
 5102SOL     OW17202  12.500   1.175  11.400
 5102SOL    HW117203  12.587   1.188  11.439
 5102SOL    HW217204  12.468   1.264  11.384
 5103SOL     OW17205  10.276  14.408   6.422
 5103SOL    HW117206  10.334  14.435   6.351
 5103SOL    HW217207  10.312  14.324   6.451
 5104SOL     OW17208   8.981   1.198   0.320
 5104SOL    HW117209   9.061   1.198   0.372
 5104SOL    HW217210   8.991   1.271   0.259
 5105SOL     OW17211   4.070   2.224   4.235
 5105SOL    HW117212   4.013   2.293   4.199
 5105SOL    HW217213   4.041   2.215   4.326
 5106SOL     OW17214   0.182   4.696   3.162
 5106SOL    HW117215   0.110   4.640   3.132
 5106SOL    HW217216   0.252   4.635   3.184
 5107SOL     OW17217   1.080   3.150   3.565
 5107SOL    HW117218   1.088   3.242   3.541
 5107SOL    HW217219   1.029   3.111   3.494
 5108SOL     OW17220  12.803   5.017  11.026
 5108SOL    HW117221  12.754   5.092  10.993
 5108SOL    HW217222  12.746   4.977  11.091
 5109SOL     OW17223   3.753  14.440   7.765
 5109SOL    HW117224   3.706  14.370   7.720
 5109SOL    HW217225   3.719  14.439   7.854
 5110SOL     OW17226   9.509   9.431  10.889
 5110SOL    HW117227   9.582   9.422  10.827
 5110SOL    HW217228   9.431   9.436  10.834
 5111SOL     OW17229  10.286   2.814   1.624
 5111SOL    HW117230  10.298   2.853   1.711
 5111SOL    HW217231  10.193   2.827   1.605
 5112SOL     OW17232   2.209   5.368   2.919
 5112SOL    HW117233   2.289   5.386   2.871
 5112SOL    HW217234   2.159   5.450   2.916
 5113SOL     OW17235  10.404   7.346  11.318
 5113SOL    HW117236  10.435   7.358  11.408
 5113SOL    HW217237  10.310   7.328  11.326
 5114SOL     OW17238   2.621   6.182  12.849
 5114SOL    HW117239   2.573   6.265  12.839
 5114SOL    HW217240   2.570   6.119  12.798
 5115SOL     OW17241  10.631   9.646   3.472
 5115SOL    HW117242  10.708   9.648   3.416
 5115SOL    HW217243  10.634   9.729   3.521
 5116SOL     OW17244   6.763   8.364   5.079
 5116SOL    HW117245   6.757   8.289   5.020
 5116SOL    HW217246   6.791   8.436   5.024
 5117SOL     OW17247   4.614   9.973   0.964
 5117SOL    HW117248   4.678   9.954   0.895
 5117SOL    HW217249   4.657  10.039   1.019
 5118SOL     OW17250  10.376   0.611  14.156
 5118SOL    HW117251  10.458   0.586  14.199
 5118SOL    HW217252  10.401   0.682  14.097
 5119SOL     OW17253  14.331   6.172  12.384
 5119SOL    HW117254  14.276   6.178  12.306
 5119SOL    HW217255  14.409   6.125  12.354
 5120SOL     OW17256  12.979   6.346  12.391
 5120SOL    HW117257  12.932   6.332  12.473
 5120SOL    HW217258  12.918   6.397  12.337
 5121SOL     OW17259   9.161   6.417  13.282
 5121SOL    HW117260   9.078   6.420  13.330
 5121SOL    HW217261   9.136   6.427  13.190
 5122SOL     OW17262   7.962  10.829  12.012
 5122SOL    HW117263   8.000  10.863  11.931
 5122SOL    HW217264   8.017  10.866  12.081
 5123SOL     OW17265   5.993   7.248   3.553
 5123SOL    HW117266   6.016   7.176   3.611
 5123SOL    HW217267   5.924   7.295   3.600
 5124SOL     OW17268   9.041   9.981  11.544
 5124SOL    HW117269   9.100  10.054  11.560
 5124SOL    HW217270   9.042   9.969  11.449
 5125SOL     OW17271   4.503  14.394  14.735
 5125SOL    HW117272   4.474  14.485  14.741
 5125SOL    HW217273   4.470  14.363  14.651
 5126SOL     OW17274   8.238   1.911  13.279
 5126SOL    HW117275   8.219   2.005  13.286
 5126SOL    HW217276   8.180   1.880  13.209
 5127SOL     OW17277   9.456   5.880   2.270
 5127SOL    HW117278   9.455   5.785   2.282
 5127SOL    HW217279   9.433   5.916   2.356
 5128SOL     OW17280   1.100  11.241   6.634
 5128SOL    HW117281   1.149  11.182   6.692
 5128SOL    HW217282   1.038  11.285   6.692
 5129SOL     OW17283  13.697  13.242  11.732
 5129SOL    HW117284  13.769  13.233  11.670
 5129SOL    HW217285  13.696  13.335  11.755
 5130SOL     OW17286   7.433   2.976   0.505
 5130SOL    HW117287   7.440   2.888   0.543
 5130SOL    HW217288   7.389   2.962   0.421
 5131SOL     OW17289   1.466   5.532   3.913
 5131SOL    HW117290   1.444   5.602   3.974
 5131SOL    HW217291   1.561   5.541   3.900
 5132SOL     OW17292  14.845  10.598   0.502
 5132SOL    HW117293  14.762  10.550   0.506
 5132SOL    HW217294   0.027  10.565   0.576
 5133SOL     OW17295   0.670   4.644   8.768
 5133SOL    HW117296   0.607   4.690   8.823
 5133SOL    HW217297   0.746   4.702   8.763
 5134SOL     OW17298   8.228   3.434   5.876
 5134SOL    HW117299   8.294   3.369   5.850
 5134SOL    HW217300   8.250   3.512   5.826
 5135SOL     OW17301   6.600  11.457  11.441
 5135SOL    HW117302   6.588  11.395  11.514
 5135SOL    HW217303   6.563  11.412  11.365
 5136SOL     OW17304   8.574  11.984   2.920
 5136SOL    HW117305   8.509  11.956   2.855
 5136SOL    HW217306   8.542  12.069   2.949
 5137SOL     OW17307   4.736   6.243   6.498
 5137SOL    HW117308   4.790   6.304   6.547
 5137SOL    HW217309   4.792   6.213   6.426
 5138SOL     OW17310  12.113   2.682   8.019
 5138SOL    HW117311  12.105   2.777   8.015
 5138SOL    HW217312  12.033   2.649   7.977
 5139SOL     OW17313   4.835   7.629   2.929
 5139SOL    HW117314   4.901   7.661   2.991
 5139SOL    HW217315   4.813   7.705   2.876
 5140SOL     OW17316   4.844   7.147  10.487
 5140SOL    HW117317   4.775   7.209  10.461
 5140SOL    HW217318   4.806   7.061  10.469
 5141SOL     OW17319   9.810   0.547   3.119
 5141SOL    HW117320   9.859   0.470   3.088
 5141SOL    HW217321   9.765   0.579   3.041
 5142SOL     OW17322   8.750   2.473   7.067
 5142SOL    HW117323   8.793   2.483   7.152
 5142SOL    HW217324   8.806   2.413   7.018
 5143SOL     OW17325   6.949   7.940  10.629
 5143SOL    HW117326   6.902   7.874  10.578
 5143SOL    HW217327   6.984   7.891  10.704
 5144SOL     OW17328   2.484   8.433   9.917
 5144SOL    HW117329   2.467   8.374   9.990
 5144SOL    HW217330   2.413   8.417   9.855
 5145SOL     OW17331  12.543  13.220   6.807
 5145SOL    HW117332  12.524  13.313   6.792
 5145SOL    HW217333  12.548  13.212   6.902
 5146SOL     OW17334   2.885   9.564  13.334
 5146SOL    HW117335   2.972   9.565  13.294
 5146SOL    HW217336   2.883   9.482  13.383
 5147SOL     OW17337   0.164   2.949   9.969
 5147SOL    HW117338   0.085   2.997   9.944
 5147SOL    HW217339   0.141   2.857   9.959
 5148SOL     OW17340   4.407   9.590   7.490
 5148SOL    HW117341   4.373   9.651   7.555
 5148SOL    HW217342   4.498   9.617   7.477
 5149SOL     OW17343   6.945  11.370   1.771
 5149SOL    HW117344   6.882  11.302   1.750
 5149SOL    HW217345   6.976  11.400   1.685
 5150SOL     OW17346   6.476  12.917   1.508
 5150SOL    HW117347   6.471  12.979   1.435
 5150SOL    HW217348   6.546  12.951   1.563
 5151SOL     OW17349   6.287   7.202   9.172
 5151SOL    HW117350   6.192   7.188   9.163
 5151SOL    HW217351   6.304   7.192   9.265
 5152SOL     OW17352   5.352  10.639   6.708
 5152SOL    HW117353   5.317  10.550   6.708
 5152SOL    HW217354   5.296  10.687   6.769
 5153SOL     OW17355  13.583  14.513  14.444
 5153SOL    HW117356  13.501  14.562  14.435
 5153SOL    HW217357  13.613  14.499  14.354
 5154SOL     OW17358   5.847   3.430   7.676
 5154SOL    HW117359   5.761   3.389   7.664
 5154SOL    HW217360   5.869   3.466   7.590
 5155SOL     OW17361  11.316  12.610  12.762
 5155SOL    HW117362  11.230  12.615  12.805
 5155SOL    HW217363  11.352  12.526  12.790
 5156SOL     OW17364  11.462  10.199   1.700
 5156SOL    HW117365  11.486  10.287   1.672
 5156SOL    HW217366  11.541  10.165   1.743
 5157SOL     OW17367  12.086  11.631  12.570
 5157SOL    HW117368  12.177  11.616  12.595
 5157SOL    HW217369  12.038  11.632  12.653
 5158SOL     OW17370  10.737   2.995  12.828
 5158SOL    HW117371  10.739   3.084  12.794
 5158SOL    HW217372  10.653   2.989  12.874
 5159SOL     OW17373   0.397  10.035  10.757
 5159SOL    HW117374   0.426   9.951  10.791
 5159SOL    HW217375   0.466  10.097  10.783
 5160SOL     OW17376  11.444   4.457   9.282
 5160SOL    HW117377  11.499   4.431   9.208
 5160SOL    HW217378  11.499   4.516   9.334
 5161SOL     OW17379  12.773   8.255   3.402
 5161SOL    HW117380  12.827   8.332   3.380
 5161SOL    HW217381  12.736   8.277   3.488
 5162SOL     OW17382  11.334   5.146  14.526
 5162SOL    HW117383  11.293   5.176  14.445
 5162SOL    HW217384  11.347   5.052  14.513
 5163SOL     OW17385   6.736   1.855   6.785
 5163SOL    HW117386   6.676   1.823   6.852
 5163SOL    HW217387   6.823   1.839   6.821
 5164SOL     OW17388  11.765   7.629   8.051
 5164SOL    HW117389  11.812   7.674   8.121
 5164SOL    HW217390  11.801   7.665   7.970
 5165SOL     OW17391   9.003   1.960  12.217
 5165SOL    HW117392   8.923   1.973  12.165
 5165SOL    HW217393   8.990   1.875  12.259
 5166SOL     OW17394  14.266   4.715  12.070
 5166SOL    HW117395  14.251   4.651  12.140
 5166SOL    HW217396  14.198   4.695  12.005
 5167SOL     OW17397   3.988   9.325  10.639
 5167SOL    HW117398   4.056   9.259  10.632
 5167SOL    HW217399   3.906   9.277  10.623
 5168SOL     OW17400   2.194  10.472   3.374
 5168SOL    HW117401   2.138  10.536   3.419
 5168SOL    HW217402   2.220  10.516   3.293
 5169SOL     OW17403   4.197   3.340   8.636
 5169SOL    HW117404   4.141   3.395   8.690
 5169SOL    HW217405   4.271   3.317   8.693
 5170SOL     OW17406   9.516   8.453   9.047
 5170SOL    HW117407   9.596   8.401   9.033
 5170SOL    HW217408   9.539   8.514   9.117
 5171SOL     OW17409   4.869   4.068   4.602
 5171SOL    HW117410   4.888   4.147   4.550
 5171SOL    HW217411   4.784   4.085   4.641
 5172SOL     OW17412  11.463  13.476   4.077
 5172SOL    HW117413  11.509  13.425   4.010
 5172SOL    HW217414  11.457  13.417   4.152
 5173SOL     OW17415   1.461  13.031  14.697
 5173SOL    HW117416   1.471  12.961  14.761
 5173SOL    HW217417   1.366  13.041  14.686
 5174SOL     OW17418   1.133   1.004   0.057
 5174SOL    HW117419   1.071   1.058   0.107
 5174SOL    HW217420   1.090   0.991  14.840
 5175SOL     OW17421   9.395   8.772   5.460
 5175SOL    HW117422   9.300   8.774   5.475
 5175SOL    HW217423   9.430   8.842   5.515
 5176SOL     OW17424   0.251   8.583  11.873
 5176SOL    HW117425   0.273   8.490  11.882
 5176SOL    HW217426   0.270   8.604  11.781
 5177SOL     OW17427   8.254  14.054  11.034
 5177SOL    HW117428   8.284  13.964  11.040
 5177SOL    HW217429   8.210  14.060  10.949
 5178SOL     OW17430   1.191   0.097   7.036
 5178SOL    HW117431   1.152   0.180   7.009
 5178SOL    HW217432   1.272   0.121   7.081
 5179SOL     OW17433  10.076   1.671   9.146
 5179SOL    HW117434  10.015   1.630   9.208
 5179SOL    HW217435  10.162   1.642   9.176
 5180SOL     OW17436   9.466  10.177  11.860
 5180SOL    HW117437   9.480  10.120  11.784
 5180SOL    HW217438   9.552  10.213  11.878
 5181SOL     OW17439   1.316   1.951   7.748
 5181SOL    HW117440   1.282   1.928   7.662
 5181SOL    HW217441   1.274   2.034   7.769
 5182SOL     OW17442   1.222  10.031  12.014
 5182SOL    HW117443   1.195  10.038  12.106
 5182SOL    HW217444   1.317  10.040  12.016
 5183SOL     OW17445   8.721   2.328   9.010
 5183SOL    HW117446   8.750   2.410   8.970
 5183SOL    HW217447   8.653   2.354   9.072
 5184SOL     OW17448   6.027   2.782  12.848
 5184SOL    HW117449   6.028   2.688  12.868
 5184SOL    HW217450   5.953   2.794  12.788
 5185SOL     OW17451  12.417   0.875   8.482
 5185SOL    HW117452  12.452   0.963   8.464
 5185SOL    HW217453  12.347   0.864   8.417
 5186SOL     OW17454   7.610   6.854   0.868
 5186SOL    HW117455   7.657   6.803   0.934
 5186SOL    HW217456   7.659   6.839   0.787
 5187SOL     OW17457   1.840   2.606  13.019
 5187SOL    HW117458   1.802   2.609  12.931
 5187SOL    HW217459   1.815   2.690  13.058
 5188SOL     OW17460   7.618   4.574   8.047
 5188SOL    HW117461   7.641   4.496   7.997
 5188SOL    HW217462   7.575   4.540   8.126
 5189SOL     OW17463  10.231   2.816  10.884
 5189SOL    HW117464  10.248   2.908  10.864
 5189SOL    HW217465  10.156   2.819  10.944
 5190SOL     OW17466  13.431   7.493   7.162
 5190SOL    HW117467  13.379   7.427   7.116
 5190SOL    HW217468  13.505   7.444   7.198
 5191SOL     OW17469  14.287   4.872   6.202
 5191SOL    HW117470  14.213   4.817   6.229
 5191SOL    HW217471  14.340   4.882   6.281
 5192SOL     OW17472   2.755  11.360   8.664
 5192SOL    HW117473   2.718  11.437   8.621
 5192SOL    HW217474   2.681  11.320   8.710
 5193SOL     OW17475  10.354  10.506   2.809
 5193SOL    HW117476  10.342  10.600   2.796
 5193SOL    HW217477  10.385  10.498   2.900
 5194SOL     OW17478   2.758   2.910  11.039
 5194SOL    HW117479   2.791   2.924  11.128
 5194SOL    HW217480   2.676   2.961  11.036
 5195SOL     OW17481   5.482   2.800   2.072
 5195SOL    HW117482   5.440   2.727   2.026
 5195SOL    HW217483   5.482   2.774   2.164
 5196SOL     OW17484   8.083   0.511  10.460
 5196SOL    HW117485   8.073   0.583  10.398
 5196SOL    HW217486   8.052   0.434  10.413
 5197SOL     OW17487  13.655  11.015   7.050
 5197SOL    HW117488  13.692  10.929   7.071
 5197SOL    HW217489  13.560  11.003   7.058
 5198SOL     OW17490   4.320   9.084   6.764
 5198SOL    HW117491   4.236   9.124   6.785
 5198SOL    HW217492   4.300   9.021   6.694
 5199SOL     OW17493   6.192  10.568   3.452
 5199SOL    HW117494   6.110  10.616   3.440
 5199SOL    HW217495   6.177  10.515   3.530
 5200SOL     OW17496  11.980  13.885  11.217
 5200SOL    HW117497  11.928  13.875  11.297
 5200SOL    HW217498  12.070  13.868  11.244
 5201SOL     OW17499  14.084  14.848  11.951
 5201SOL    HW117500  14.119   0.041  12.015
 5201SOL    HW217501  14.045  14.777  12.002
 5202SOL     OW17502   5.222  12.802   4.859
 5202SOL    HW117503   5.200  12.862   4.930
 5202SOL    HW217504   5.140  12.791   4.810
 5203SOL     OW17505   6.622   5.641   8.563
 5203SOL    HW117506   6.642   5.610   8.651
 5203SOL    HW217507   6.702   5.687   8.535
 5204SOL     OW17508   6.990   9.199   2.499
 5204SOL    HW117509   7.077   9.175   2.467
 5204SOL    HW217510   6.954   9.117   2.532
 5205SOL     OW17511  11.504  12.151   5.150
 5205SOL    HW117512  11.570  12.095   5.109
 5205SOL    HW217513  11.443  12.172   5.079
 5206SOL     OW17514  13.619  11.977  11.950
 5206SOL    HW117515  13.560  11.994  12.024
 5206SOL    HW217516  13.562  11.972  11.874
 5207SOL     OW17517   2.590   4.443   1.300
 5207SOL    HW117518   2.643   4.517   1.331
 5207SOL    HW217519   2.623   4.368   1.349
 5208SOL     OW17520  12.020  12.993   2.597
 5208SOL    HW117521  12.015  12.960   2.508
 5208SOL    HW217522  11.983  12.924   2.651
 5209SOL     OW17523  12.280   5.913  11.375
 5209SOL    HW117524  12.302   5.839  11.318
 5209SOL    HW217525  12.266   5.986  11.315
 5210SOL     OW17526  13.524   4.181   4.867
 5210SOL    HW117527  13.563   4.187   4.955
 5210SOL    HW217528  13.518   4.087   4.850
 5211SOL     OW17529   6.876   6.986  12.659
 5211SOL    HW117530   6.788   7.019  12.645
 5211SOL    HW217531   6.915   7.047  12.722
 5212SOL     OW17532  12.812  10.387  11.369
 5212SOL    HW117533  12.784  10.470  11.331
 5212SOL    HW217534  12.738  10.328  11.355
 5213SOL     OW17535  11.699  11.321   0.574
 5213SOL    HW117536  11.706  11.240   0.623
 5213SOL    HW217537  11.640  11.301   0.501
 5214SOL     OW17538   1.040  13.240   5.871
 5214SOL    HW117539   1.131  13.268   5.862
 5214SOL    HW217540   1.005  13.294   5.942
 5215SOL     OW17541   4.088  13.904   7.734
 5215SOL    HW117542   4.133  13.890   7.651
 5215SOL    HW217543   4.041  13.822   7.751
 5216SOL     OW17544  14.357   4.934   9.956
 5216SOL    HW117545  14.293   4.867   9.980
 5216SOL    HW217546  14.330   4.964   9.869
 5217SOL     OW17547  12.780   9.005   3.849
 5217SOL    HW117548  12.718   8.951   3.899
 5217SOL    HW217549  12.843   9.034   3.914
 5218SOL     OW17550   0.754   0.520   2.004
 5218SOL    HW117551   0.691   0.553   1.940
 5218SOL    HW217552   0.700   0.493   2.079
 5219SOL     OW17553  13.762  10.777   7.030
 5219SOL    HW117554  13.722  10.702   6.985
 5219SOL    HW217555  13.848  10.746   7.055
 5220SOL     OW17556   6.426  13.146   0.564
 5220SOL    HW117557   6.519  13.155   0.585
 5220SOL    HW217558   6.424  13.105   0.477
 5221SOL     OW17559  11.577  13.818  12.455
 5221SOL    HW117560  11.579  13.735  12.503
 5221SOL    HW217561  11.659  13.861  12.478
 5222SOL     OW17562   6.350  14.675  11.393
 5222SOL    HW117563   6.438  14.704  11.369
 5222SOL    HW217564   6.363  14.623  11.473
 5223SOL     OW17565   1.802   0.229   8.278
 5223SOL    HW117566   1.851   0.265   8.205
 5223SOL    HW217567   1.774   0.143   8.249
 5224SOL     OW17568   4.615   3.836   3.160
 5224SOL    HW117569   4.598   3.929   3.151
 5224SOL    HW217570   4.623   3.804   3.070
 5225SOL     OW17571   2.134   3.180   7.803
 5225SOL    HW117572   2.090   3.246   7.750
 5225SOL    HW217573   2.136   3.102   7.749
 5226SOL     OW17574   7.047   4.376   9.881
 5226SOL    HW117575   7.116   4.442   9.892
 5226SOL    HW217576   6.966   4.425   9.888
 5227SOL     OW17577   2.126   0.504  10.951
 5227SOL    HW117578   2.052   0.444  10.940
 5227SOL    HW217579   2.182   0.461  11.016
 5228SOL     OW17580   1.846  13.132  10.826
 5228SOL    HW117581   1.902  13.199  10.866
 5228SOL    HW217582   1.802  13.090  10.899
 5229SOL     OW17583   2.251  10.670   6.977
 5229SOL    HW117584   2.208  10.692   7.060
 5229SOL    HW217585   2.307  10.595   6.998
 5230SOL     OW17586  14.773   1.184  11.221
 5230SOL    HW117587  14.708   1.236  11.269
 5230SOL    HW217588  14.847   1.243  11.210
 5231SOL     OW17589  11.335   2.210   2.865
 5231SOL    HW117590  11.371   2.178   2.948
 5231SOL    HW217591  11.397   2.177   2.799
 5232SOL     OW17592   5.187   4.209   2.426
 5232SOL    HW117593   5.237   4.159   2.490
 5232SOL    HW217594   5.227   4.295   2.425
 5233SOL     OW17595   1.477   5.935   9.368
 5233SOL    HW117596   1.479   6.029   9.385
 5233SOL    HW217597   1.437   5.897   9.446
 5234SOL     OW17598   1.509   4.863   9.063
 5234SOL    HW117599   1.517   4.934   9.126
 5234SOL    HW217600   1.563   4.891   8.988
 5235SOL     OW17601  10.626   5.681   9.908
 5235SOL    HW117602  10.567   5.756   9.911
 5235SOL    HW217603  10.570   5.605   9.924
 5236SOL     OW17604   3.934   1.622  11.552
 5236SOL    HW117605   3.925   1.643  11.460
 5236SOL    HW217606   4.018   1.659  11.578
 5237SOL     OW17607   6.580   4.913  10.222
 5237SOL    HW117608   6.539   4.849  10.164
 5237SOL    HW217609   6.668   4.878  10.238
 5238SOL     OW17610  12.454  13.702   6.645
 5238SOL    HW117611  12.440  13.751   6.564
 5238SOL    HW217612  12.546  13.674   6.639
 5239SOL     OW17613   8.013   9.513   0.202
 5239SOL    HW117614   8.063   9.516   0.283
 5239SOL    HW217615   8.055   9.444   0.150
 5240SOL     OW17616  10.548   5.204   6.635
 5240SOL    HW117617  10.588   5.122   6.605
 5240SOL    HW217618  10.487   5.176   6.704
 5241SOL     OW17619   8.240   1.647   9.404
 5241SOL    HW117620   8.148   1.620   9.396
 5241SOL    HW217621   8.286   1.567   9.429
 5242SOL     OW17622  14.604   9.072   9.533
 5242SOL    HW117623  14.534   9.014   9.563
 5242SOL    HW217624  14.560   9.137   9.478
 5243SOL     OW17625   8.272  11.909   7.078
 5243SOL    HW117626   8.209  11.975   7.107
 5243SOL    HW217627   8.219  11.840   7.038
 5244SOL     OW17628   1.966   9.520  10.315
 5244SOL    HW117629   2.043   9.570  10.286
 5244SOL    HW217630   2.001   9.436  10.343
 5245SOL     OW17631   4.466   8.325  11.032
 5245SOL    HW117632   4.507   8.253  11.080
 5245SOL    HW217633   4.537   8.365  10.982
 5246SOL     OW17634   0.455   9.005   5.108
 5246SOL    HW117635   0.442   8.948   5.032
 5246SOL    HW217636   0.504   9.080   5.074
 5247SOL     OW17637   1.115   9.143   2.074
 5247SOL    HW117638   1.166   9.217   2.043
 5247SOL    HW217639   1.042   9.136   2.012
 5248SOL     OW17640   1.761  12.063   9.360
 5248SOL    HW117641   1.679  12.081   9.406
 5248SOL    HW217642   1.737  12.002   9.291
 5249SOL     OW17643   9.099  11.521   6.730
 5249SOL    HW117644   9.025  11.500   6.674
 5249SOL    HW217645   9.059  11.548   6.813
 5250SOL     OW17646   1.166  12.766   2.921
 5250SOL    HW117647   1.112  12.776   2.843
 5250SOL    HW217648   1.114  12.804   2.991
 5251SOL     OW17649   2.880   6.529   3.208
 5251SOL    HW117650   2.897   6.434   3.205
 5251SOL    HW217651   2.790   6.538   3.176
 5252SOL     OW17652  14.251  12.272  14.462
 5252SOL    HW117653  14.316  12.295  14.528
 5252SOL    HW217654  14.172  12.250  14.512
 5253SOL     OW17655   8.880   7.603  13.776
 5253SOL    HW117656   8.956   7.546  13.772
 5253SOL    HW217657   8.865   7.631  13.686
 5254SOL     OW17658   2.826   7.387   9.876
 5254SOL    HW117659   2.921   7.393   9.871
 5254SOL    HW217660   2.795   7.432   9.798
 5255SOL     OW17661  12.729   4.971   9.432
 5255SOL    HW117662  12.673   4.898   9.406
 5255SOL    HW217663  12.687   5.006   9.511
 5256SOL     OW17664  12.014   3.938   0.662
 5256SOL    HW117665  11.991   4.028   0.640
 5256SOL    HW217666  12.070   3.945   0.739
 5257SOL     OW17667  13.562   8.006   4.175
 5257SOL    HW117668  13.615   8.001   4.254
 5257SOL    HW217669  13.540   7.915   4.156
 5258SOL     OW17670   9.561   5.492   1.507
 5258SOL    HW117671   9.528   5.564   1.561
 5258SOL    HW217672   9.649   5.518   1.483
 5259SOL     OW17673   0.452   1.163  10.503
 5259SOL    HW117674   0.468   1.100  10.433
 5259SOL    HW217675   0.390   1.119  10.561
 5260SOL     OW17676   1.233   0.220  12.687
 5260SOL    HW117677   1.260   0.280  12.617
 5260SOL    HW217678   1.189   0.275  12.751
 5261SOL     OW17679   4.787  13.870   6.872
 5261SOL    HW117680   4.823  13.799   6.819
 5261SOL    HW217681   4.850  13.941   6.864
 5262SOL     OW17682   5.083  12.041  13.343
 5262SOL    HW117683   5.032  12.019  13.266
 5262SOL    HW217684   5.066  12.134  13.358
 5263SOL     OW17685   6.090  14.110   6.088
 5263SOL    HW117686   6.005  14.078   6.118
 5263SOL    HW217687   6.136  14.135   6.168
 5264SOL     OW17688   0.435   9.212  11.843
 5264SOL    HW117689   0.521   9.171  11.836
 5264SOL    HW217690   0.397   9.206  11.756
 5265SOL     OW17691   0.088  14.680   9.451
 5265SOL    HW117692   0.156  14.686   9.518
 5265SOL    HW217693   0.128  14.718   9.373
 5266SOL     OW17694   7.067   7.337  13.940
 5266SOL    HW117695   7.099   7.252  13.969
 5266SOL    HW217696   7.107   7.400  14.000
 5267SOL     OW17697  11.996   1.654   6.554
 5267SOL    HW117698  12.072   1.621   6.603
 5267SOL    HW217699  11.925   1.594   6.579
 5268SOL     OW17700   7.227   7.248   8.351
 5268SOL    HW117701   7.156   7.258   8.414
 5268SOL    HW217702   7.202   7.171   8.299
 5269SOL     OW17703  10.926   0.439   1.325
 5269SOL    HW117704  10.935   0.412   1.234
 5269SOL    HW217705  10.837   0.472   1.332
 5270SOL     OW17706   6.343   9.858   6.036
 5270SOL    HW117707   6.322   9.765   6.023
 5270SOL    HW217708   6.422   9.856   6.091
 5271SOL     OW17709   6.976  14.478  12.396
 5271SOL    HW117710   6.995  14.502  12.487
 5271SOL    HW217711   7.057  14.437  12.365
 5272SOL     OW17712  14.259   3.490   6.144
 5272SOL    HW117713  14.216   3.415   6.103
 5272SOL    HW217714  14.341   3.500   6.097
 5273SOL     OW17715  14.294   3.114  13.185
 5273SOL    HW117716  14.315   3.200  13.221
 5273SOL    HW217717  14.214   3.088  13.231
 5274SOL     OW17718   0.927   8.612  11.698
 5274SOL    HW117719   0.915   8.561  11.618
 5274SOL    HW217720   0.842   8.607  11.742
 5275SOL     OW17721  11.701   8.468   5.234
 5275SOL    HW117722  11.696   8.393   5.293
 5275SOL    HW217723  11.715   8.429   5.147
 5276SOL     OW17724  14.011   5.508   7.053
 5276SOL    HW117725  13.982   5.525   6.964
 5276SOL    HW217726  14.107   5.512   7.049
 5277SOL     OW17727   8.595   0.565   4.057
 5277SOL    HW117728   8.621   0.516   3.979
 5277SOL    HW217729   8.582   0.498   4.124
 5278SOL     OW17730   1.560   3.817  14.610
 5278SOL    HW117731   1.636   3.838  14.665
 5278SOL    HW217732   1.485   3.850  14.659
 5279SOL     OW17733  13.720   6.129   9.466
 5279SOL    HW117734  13.684   6.192   9.404
 5279SOL    HW217735  13.646   6.072   9.488
 5280SOL     OW17736   7.724   4.053   5.674
 5280SOL    HW117737   7.700   4.106   5.749
 5280SOL    HW217738   7.812   4.021   5.693
 5281SOL     OW17739  13.284  12.535   3.998
 5281SOL    HW117740  13.291  12.572   3.910
 5281SOL    HW217741  13.368  12.554   4.039
 5282SOL     OW17742  14.021   6.076   1.450
 5282SOL    HW117743  14.063   6.065   1.536
 5282SOL    HW217744  13.973   6.158   1.457
 5283SOL     OW17745   3.873   1.181   9.899
 5283SOL    HW117746   3.954   1.159   9.946
 5283SOL    HW217747   3.810   1.114   9.927
 5284SOL     OW17748  11.643  14.772   3.400
 5284SOL    HW117749  11.555  14.746   3.429
 5284SOL    HW217750  11.627  14.842   3.336
 5285SOL     OW17751  12.809   6.633   2.951
 5285SOL    HW117752  12.740   6.664   3.010
 5285SOL    HW217753  12.762   6.590   2.879
 5286SOL     OW17754   2.546  14.561   5.345
 5286SOL    HW117755   2.478  14.496   5.361
 5286SOL    HW217756   2.604  14.521   5.280
 5287SOL     OW17757  12.747   7.193  10.284
 5287SOL    HW117758  12.818   7.216  10.343
 5287SOL    HW217759  12.790   7.148  10.211
 5288SOL     OW17760   1.963   1.941  10.481
 5288SOL    HW117761   1.884   1.963  10.530
 5288SOL    HW217762   1.944   1.968  10.391
 5289SOL     OW17763   4.918  12.776  11.484
 5289SOL    HW117764   4.929  12.682  11.467
 5289SOL    HW217765   4.826  12.793  11.465
 5290SOL     OW17766   7.185  13.026  12.053
 5290SOL    HW117767   7.137  13.086  11.996
 5290SOL    HW217768   7.274  13.024  12.016
 5291SOL     OW17769  11.492   6.810  11.543
 5291SOL    HW117770  11.518   6.824  11.452
 5291SOL    HW217771  11.430   6.881  11.562
 5292SOL     OW17772   8.181   6.532  13.693
 5292SOL    HW117773   8.225   6.503  13.772
 5292SOL    HW217774   8.249   6.529  13.625
 5293SOL     OW17775   4.447   8.405  13.714
 5293SOL    HW117776   4.432   8.336  13.650
 5293SOL    HW217777   4.418   8.367  13.797
 5294SOL     OW17778  14.856   3.055   5.700
 5294SOL    HW117779   0.009   3.064   5.793
 5294SOL    HW217780  14.798   3.128   5.680
 5295SOL     OW17781   1.589   0.750   9.079
 5295SOL    HW117782   1.668   0.802   9.064
 5295SOL    HW217783   1.537   0.802   9.140
 5296SOL     OW17784   8.594   0.120  10.419
 5296SOL    HW117785   8.509   0.087  10.392
 5296SOL    HW217786   8.651   0.107  10.343
 5297SOL     OW17787   1.354   2.611   7.526
 5297SOL    HW117788   1.344   2.698   7.487
 5297SOL    HW217789   1.448   2.602   7.541
 5298SOL     OW17790   0.900  12.280  14.099
 5298SOL    HW117791   0.975  12.319  14.143
 5298SOL    HW217792   0.874  12.345  14.033
 5299SOL     OW17793   7.610   5.356  14.018
 5299SOL    HW117794   7.624   5.266  13.989
 5299SOL    HW217795   7.533   5.385  13.969
 5300SOL     OW17796   2.333  11.404   3.484
 5300SOL    HW117797   2.259  11.401   3.544
 5300SOL    HW217798   2.306  11.353   3.408
 5301SOL     OW17799  11.204   3.717   0.809
 5301SOL    HW117800  11.193   3.671   0.892
 5301SOL    HW217801  11.135   3.681   0.753
 5302SOL     OW17802   6.181   4.421   9.578
 5302SOL    HW117803   6.098   4.399   9.534
 5302SOL    HW217804   6.166   4.396   9.670
 5303SOL     OW17805   7.508   1.275   0.711
 5303SOL    HW117806   7.428   1.223   0.714
 5303SOL    HW217807   7.492   1.341   0.643
 5304SOL     OW17808   4.929   1.536  12.739
 5304SOL    HW117809   4.917   1.443  12.719
 5304SOL    HW217810   4.967   1.573  12.659
 5305SOL     OW17811   7.492   7.382  12.367
 5305SOL    HW117812   7.530   7.463  12.332
 5305SOL    HW217813   7.568   7.329  12.390
 5306SOL     OW17814   7.099   8.318   3.531
 5306SOL    HW117815   7.097   8.396   3.585
 5306SOL    HW217816   7.192   8.301   3.515
 5307SOL     OW17817   8.298   2.158  11.598
 5307SOL    HW117818   8.333   2.239  11.636
 5307SOL    HW217819   8.205   2.158  11.623
 5308SOL     OW17820  11.783   7.781  14.492
 5308SOL    HW117821  11.815   7.717  14.428
 5308SOL    HW217822  11.852   7.784  14.559
 5309SOL     OW17823  10.230   7.496   6.216
 5309SOL    HW117824  10.235   7.450   6.300
 5309SOL    HW217825  10.232   7.427   6.150
 5310SOL     OW17826   0.618   5.181  12.846
 5310SOL    HW117827   0.575   5.102  12.812
 5310SOL    HW217828   0.605   5.246  12.777
 5311SOL     OW17829   6.050   1.725  14.253
 5311SOL    HW117830   6.115   1.706  14.186
 5311SOL    HW217831   5.992   1.648  14.253
 5312SOL     OW17832   2.953  12.147  13.947
 5312SOL    HW117833   2.989  12.139  13.859
 5312SOL    HW217834   2.968  12.239  13.971
 5313SOL     OW17835   5.380  14.862   3.268
 5313SOL    HW117836   5.401  14.863   3.175
 5313SOL    HW217837   5.411   0.078   3.300
 5314SOL     OW17838   1.948  14.284  14.168
 5314SOL    HW117839   1.969  14.191  14.179
 5314SOL    HW217840   1.906  14.308  14.250
 5315SOL     OW17841   7.957   9.074   6.020
 5315SOL    HW117842   7.868   9.047   5.998
 5315SOL    HW217843   7.970   9.044   6.110
 5316SOL     OW17844  12.378   9.174  12.200
 5316SOL    HW117845  12.443   9.165  12.130
 5316SOL    HW217846  12.429   9.183  12.280
 5317SOL     OW17847   0.659   0.234   0.565
 5317SOL    HW117848   0.644   0.259   0.474
 5317SOL    HW217849   0.674   0.140   0.562
 5318SOL     OW17850   6.602   3.407   7.888
 5318SOL    HW117851   6.549   3.327   7.885
 5318SOL    HW217852   6.539   3.477   7.873
 5319SOL     OW17853  12.411  11.710   6.588
 5319SOL    HW117854  12.480  11.709   6.522
 5319SOL    HW217855  12.346  11.771   6.553
 5320SOL     OW17856  10.460   2.562   3.581
 5320SOL    HW117857  10.531   2.510   3.541
 5320SOL    HW217858  10.422   2.504   3.647
 5321SOL     OW17859  11.293   0.514   0.357
 5321SOL    HW117860  11.235   0.441   0.334
 5321SOL    HW217861  11.270   0.583   0.296
 5322SOL     OW17862   0.365   3.205   8.346
 5322SOL    HW117863   0.397   3.116   8.365
 5322SOL    HW217864   0.358   3.246   8.432
 5323SOL     OW17865  11.032   7.824   5.053
 5323SOL    HW117866  11.061   7.803   4.964
 5323SOL    HW217867  10.991   7.744   5.084
 5324SOL     OW17868  13.752   6.206  12.665
 5324SOL    HW117869  13.663   6.222  12.634
 5324SOL    HW217870  13.779   6.127  12.618
 5325SOL     OW17871   7.539   7.229   8.114
 5325SOL    HW117872   7.487   7.150   8.099
 5325SOL    HW217873   7.620   7.213   8.064
 5326SOL     OW17874   8.549   7.846  11.837
 5326SOL    HW117875   8.606   7.874  11.765
 5326SOL    HW217876   8.572   7.755  11.851
 5327SOL     OW17877   2.638   4.594   9.119
 5327SOL    HW117878   2.717   4.559   9.159
 5327SOL    HW217879   2.631   4.683   9.154
 5328SOL     OW17880   6.104   0.418   7.061
 5328SOL    HW117881   6.176   0.474   7.029
 5328SOL    HW217882   6.038   0.423   6.992
 5329SOL     OW17883  14.133  14.074  14.181
 5329SOL    HW117884  14.129  14.052  14.274
 5329SOL    HW217885  14.095  14.162  14.175
 5330SOL     OW17886   6.913   3.449   2.072
 5330SOL    HW117887   6.992   3.427   2.023
 5330SOL    HW217888   6.945   3.497   2.148
 5331SOL     OW17889  13.337   5.690  12.735
 5331SOL    HW117890  13.287   5.626  12.684
 5331SOL    HW217891  13.375   5.640  12.806
 5332SOL     OW17892  14.499   5.209  12.081
 5332SOL    HW117893  14.493   5.268  12.006
 5332SOL    HW217894  14.508   5.268  12.157
 5333SOL     OW17895  10.079   7.931   7.584
 5333SOL    HW117896  10.087   7.939   7.679
 5333SOL    HW217897  10.169   7.927   7.552
 5334SOL     OW17898   9.178  12.737   1.252
 5334SOL    HW117899   9.155  12.682   1.327
 5334SOL    HW217900   9.270  12.716   1.233
 5335SOL     OW17901  13.261   1.961  13.209
 5335SOL    HW117902  13.229   1.898  13.144
 5335SOL    HW217903  13.285   1.907  13.284
 5336SOL     OW17904   1.328   4.297   1.473
 5336SOL    HW117905   1.261   4.357   1.509
 5336SOL    HW217906   1.301   4.211   1.504
 5337SOL     OW17907   0.129   3.222   6.812
 5337SOL    HW117908   0.085   3.154   6.864
 5337SOL    HW217909   0.092   3.304   6.846
 5338SOL     OW17910   8.334   2.732   7.183
 5338SOL    HW117911   8.276   2.655   7.185
 5338SOL    HW217912   8.394   2.718   7.256
 5339SOL     OW17913   6.808   6.726   4.330
 5339SOL    HW117914   6.886   6.674   4.349
 5339SOL    HW217915   6.770   6.747   4.415
 5340SOL     OW17916  10.509   4.743   2.468
 5340SOL    HW117917  10.601   4.737   2.444
 5340SOL    HW217918  10.489   4.657   2.506
 5341SOL     OW17919  11.773   7.915  12.780
 5341SOL    HW117920  11.679   7.905  12.766
 5341SOL    HW217921  11.787   8.010  12.780
 5342SOL     OW17922  11.689   0.531   5.958
 5342SOL    HW117923  11.607   0.579   5.950
 5342SOL    HW217924  11.690   0.472   5.883
 5343SOL     OW17925   8.651   3.967   0.329
 5343SOL    HW117926   8.715   3.984   0.398
 5343SOL    HW217927   8.569   3.951   0.376
 5344SOL     OW17928   5.247   7.120  12.676
 5344SOL    HW117929   5.162   7.135  12.635
 5344SOL    HW217930   5.231   7.127  12.770
 5345SOL     OW17931   4.720   1.658  14.692
 5345SOL    HW117932   4.689   1.641  14.603
 5345SOL    HW217933   4.647   1.630  14.748
 5346SOL     OW17934   0.376  12.062  10.680
 5346SOL    HW117935   0.440  12.086  10.613
 5346SOL    HW217936   0.402  11.974  10.707
 5347SOL     OW17937   0.116   7.430  11.877
 5347SOL    HW117938   0.106   7.443  11.782
 5347SOL    HW217939   0.205   7.397  11.887
 5348SOL     OW17940  10.063  13.975  11.837
 5348SOL    HW117941  10.079  14.003  11.747
 5348SOL    HW217942   9.968  13.968  11.844
 5349SOL     OW17943  13.009   7.020   4.989
 5349SOL    HW117944  12.981   7.057   5.072
 5349SOL    HW217945  13.053   7.092   4.943
 5350SOL     OW17946   6.462   5.488  11.171
 5350SOL    HW117947   6.404   5.546  11.220
 5350SOL    HW217948   6.527   5.546  11.131
 5351SOL     OW17949   4.551   9.525   1.927
 5351SOL    HW117950   4.631   9.568   1.955
 5351SOL    HW217951   4.545   9.447   1.983
 5352SOL     OW17952   3.086   4.189   7.339
 5352SOL    HW117953   2.998   4.160   7.318
 5352SOL    HW217954   3.105   4.150   7.424
 5353SOL     OW17955  11.086   1.142   1.891
 5353SOL    HW117956  11.020   1.088   1.847
 5353SOL    HW217957  11.097   1.101   1.977
 5354SOL     OW17958   3.641   3.310  14.478
 5354SOL    HW117959   3.591   3.387  14.449
 5354SOL    HW217960   3.575   3.251  14.513
 5355SOL     OW17961   6.040   7.019   8.329
 5355SOL    HW117962   6.041   7.114   8.332
 5355SOL    HW217963   6.131   6.994   8.310
 5356SOL     OW17964   1.438   6.821  12.731
 5356SOL    HW117965   1.466   6.744  12.682
 5356SOL    HW217966   1.347   6.835  12.703
 5357SOL     OW17967   5.756   5.625   4.526
 5357SOL    HW117968   5.691   5.579   4.474
 5357SOL    HW217969   5.728   5.717   4.523
 5358SOL     OW17970  11.281  14.108  10.691
 5358SOL    HW117971  11.359  14.164  10.694
 5358SOL    HW217972  11.230  14.133  10.767
 5359SOL     OW17973   5.366   4.361  10.416
 5359SOL    HW117974   5.372   4.336  10.324
 5359SOL    HW217975   5.424   4.437  10.424
 5360SOL     OW17976   8.935   2.546  12.872
 5360SOL    HW117977   8.942   2.560  12.777
 5360SOL    HW217978   8.883   2.466  12.881
 5361SOL     OW17979   1.209   4.575   0.551
 5361SOL    HW117980   1.201   4.669   0.567
 5361SOL    HW217981   1.185   4.564   0.458
 5362SOL     OW17982  14.362   5.281   0.067
 5362SOL    HW117983  14.365   5.188   0.048
 5362SOL    HW217984  14.294   5.291   0.134
 5363SOL     OW17985   3.390   3.156   8.697
 5363SOL    HW117986   3.371   3.217   8.627
 5363SOL    HW217987   3.336   3.186   8.770
 5364SOL     OW17988   5.878   7.946  13.715
 5364SOL    HW117989   5.846   7.944  13.805
 5364SOL    HW217990   5.946   7.879  13.712
 5365SOL     OW17991  13.401   2.205   2.661
 5365SOL    HW117992  13.453   2.134   2.624
 5365SOL    HW217993  13.318   2.202   2.613
 5366SOL     OW17994   4.583  11.689  11.321
 5366SOL    HW117995   4.628  11.606  11.332
 5366SOL    HW217996   4.638  11.753  11.366
 5367SOL     OW17997   7.300  12.327   8.153
 5367SOL    HW117998   7.291  12.319   8.248
 5367SOL    HW217999   7.380  12.378   8.140
 5368SOL     OW18000   8.956   4.343   2.593
 5368SOL    HW118001   8.977   4.420   2.645
 5368SOL    HW218002   8.928   4.377   2.508
 5369SOL     OW18003   9.163  12.397  14.650
 5369SOL    HW118004   9.103  12.378  14.722
 5369SOL    HW218005   9.221  12.464  14.684
 5370SOL     OW18006   5.074   1.568   4.719
 5370SOL    HW118007   5.058   1.661   4.735
 5370SOL    HW218008   5.100   1.564   4.627
 5371SOL     OW18009  11.750   5.740   6.784
 5371SOL    HW118010  11.767   5.681   6.711
 5371SOL    HW218011  11.765   5.686   6.862
 5372SOL     OW18012  10.288   4.619   0.290
 5372SOL    HW118013  10.380   4.601   0.273
 5372SOL    HW218014  10.241   4.548   0.246
 5373SOL     OW18015   6.249  11.229   0.370
 5373SOL    HW118016   6.247  11.163   0.301
 5373SOL    HW218017   6.284  11.183   0.446
 5374SOL     OW18018  11.183   7.685   1.719
 5374SOL    HW118019  11.191   7.768   1.671
 5374SOL    HW218020  11.266   7.676   1.766
 5375SOL     OW18021   7.108   4.483   4.322
 5375SOL    HW118022   7.026   4.519   4.355
 5375SOL    HW218023   7.113   4.515   4.232
 5376SOL     OW18024  13.423  14.643   2.568
 5376SOL    HW118025  13.399  14.608   2.482
 5376SOL    HW218026  13.441  14.736   2.551
 5377SOL     OW18027   7.269   5.464  14.209
 5377SOL    HW118028   7.359   5.445  14.183
 5377SOL    HW218029   7.242   5.388  14.260
 5378SOL     OW18030  11.999  14.196   5.899
 5378SOL    HW118031  12.042  14.159   5.976
 5378SOL    HW218032  12.029  14.287   5.897
 5379SOL     OW18033   8.336  12.766   7.101
 5379SOL    HW118034   8.243  12.771   7.078
 5379SOL    HW218035   8.373  12.847   7.066
 5380SOL     OW18036   7.077   2.999  13.164
 5380SOL    HW118037   7.135   3.030  13.093
 5380SOL    HW218038   6.992   3.038  13.144
 5381SOL     OW18039   8.240   0.259   1.551
 5381SOL    HW118040   8.322   0.227   1.587
 5381SOL    HW218041   8.172   0.217   1.604
 5382SOL     OW18042  14.397   9.566   9.722
 5382SOL    HW118043  14.329   9.561   9.655
 5382SOL    HW218044  14.479   9.561   9.673
 5383SOL     OW18045   3.888   4.556   6.247
 5383SOL    HW118046   3.967   4.570   6.194
 5383SOL    HW218047   3.827   4.624   6.217
 5384SOL     OW18048   8.072  10.772   3.950
 5384SOL    HW118049   8.159  10.814   3.951
 5384SOL    HW218050   8.087  10.685   3.986
 5385SOL     OW18051  10.512   5.841   1.082
 5385SOL    HW118052  10.505   5.790   1.162
 5385SOL    HW218053  10.453   5.798   1.020
 5386SOL     OW18054   7.445  13.586  12.066
 5386SOL    HW118055   7.481  13.515  12.119
 5386SOL    HW218056   7.501  13.661  12.086
 5387SOL     OW18057   8.845  13.532  12.575
 5387SOL    HW118058   8.848  13.444  12.612
 5387SOL    HW218059   8.773  13.575  12.622
 5388SOL     OW18060   6.703   0.698   8.201
 5388SOL    HW118061   6.641   0.771   8.195
 5388SOL    HW218062   6.669   0.633   8.140
 5389SOL     OW18063   6.675  11.116   2.773
 5389SOL    HW118064   6.751  11.116   2.715
 5389SOL    HW218065   6.651  11.208   2.782
 5390SOL     OW18066   7.095   9.380   3.956
 5390SOL    HW118067   7.048   9.418   3.882
 5390SOL    HW218068   7.081   9.441   4.028
 5391SOL     OW18069   0.639   2.998  13.021
 5391SOL    HW118070   0.623   3.075  13.075
 5391SOL    HW218071   0.555   2.983  12.976
 5392SOL     OW18072  14.067   2.756   8.406
 5392SOL    HW118073  14.156   2.784   8.427
 5392SOL    HW218074  14.011   2.821   8.448
 5393SOL     OW18075  12.714   2.665   1.403
 5393SOL    HW118076  12.758   2.655   1.487
 5393SOL    HW218077  12.636   2.610   1.409
 5394SOL     OW18078   5.828   8.926   7.335
 5394SOL    HW118079   5.778   9.001   7.304
 5394SOL    HW218080   5.780   8.850   7.302
 5395SOL     OW18081   4.200  12.828  12.021
 5395SOL    HW118082   4.282  12.878  12.018
 5395SOL    HW218083   4.208  12.773  12.099
 5396SOL     OW18084  14.271  14.180  11.717
 5396SOL    HW118085  14.315  14.215  11.640
 5396SOL    HW218086  14.312  14.225  11.791
 5397SOL     OW18087  11.655  10.723   3.713
 5397SOL    HW118088  11.660  10.655   3.646
 5397SOL    HW218089  11.605  10.682   3.784
 5398SOL     OW18090   3.912   3.379   4.905
 5398SOL    HW118091   3.928   3.468   4.937
 5398SOL    HW218092   3.900   3.388   4.811
 5399SOL     OW18093  11.685  11.804   6.472
 5399SOL    HW118094  11.715  11.824   6.383
 5399SOL    HW218095  11.606  11.753   6.460
 5400SOL     OW18096   8.622   6.688  13.721
 5400SOL    HW118097   8.657   6.671  13.634
 5400SOL    HW218098   8.643   6.610  13.772
 5401SOL     OW18099  12.602   9.737   5.321
 5401SOL    HW118100  12.592   9.655   5.273
 5401SOL    HW218101  12.649   9.713   5.401
 5402SOL     OW18102  13.626   6.928  10.392
 5402SOL    HW118103  13.598   6.856  10.335
 5402SOL    HW218104  13.675   6.986  10.334
 5403SOL     OW18105   1.075   6.612   1.210
 5403SOL    HW118106   1.064   6.660   1.292
 5403SOL    HW218107   0.993   6.563   1.201
 5404SOL     OW18108  12.852   2.296   3.081
 5404SOL    HW118109  12.829   2.386   3.061
 5404SOL    HW218110  12.779   2.264   3.134
 5405SOL     OW18111  14.465  13.027  12.572
 5405SOL    HW118112  14.467  13.122  12.587
 5405SOL    HW218113  14.430  13.018  12.484
 5406SOL     OW18114   7.005   2.280   3.981
 5406SOL    HW118115   6.940   2.232   3.931
 5406SOL    HW218116   6.979   2.372   3.974
 5407SOL     OW18117  12.225  14.528  10.287
 5407SOL    HW118118  12.314  14.493  10.286
 5407SOL    HW218119  12.209  14.556  10.196
 5408SOL     OW18120  13.287   4.524  10.452
 5408SOL    HW118121  13.359   4.567  10.406
 5408SOL    HW218122  13.286   4.563  10.539
 5409SOL     OW18123  11.012   2.229   6.194
 5409SOL    HW118124  10.951   2.241   6.121
 5409SOL    HW218125  10.963   2.182   6.260
 5410SOL     OW18126  11.780   3.349   2.701
 5410SOL    HW118127  11.757   3.363   2.609
 5410SOL    HW218128  11.717   3.402   2.750
 5411SOL     OW18129  11.785  12.708   0.986
 5411SOL    HW118130  11.783  12.638   0.921
 5411SOL    HW218131  11.869  12.752   0.971
 5412SOL     OW18132   6.429   0.933   3.374
 5412SOL    HW118133   6.432   0.972   3.287
 5412SOL    HW218134   6.520   0.929   3.402
 5413SOL     OW18135  13.594   7.970   7.734
 5413SOL    HW118136  13.509   7.987   7.694
 5413SOL    HW218137  13.611   8.047   7.788
 5414SOL     OW18138   8.142  13.179   6.745
 5414SOL    HW118139   8.065  13.143   6.701
 5414SOL    HW218140   8.180  13.239   6.681
 5415SOL     OW18141   7.491   2.528   3.630
 5415SOL    HW118142   7.460   2.508   3.718
 5415SOL    HW218143   7.582   2.556   3.642
 5416SOL     OW18144   1.281  10.958   2.414
 5416SOL    HW118145   1.325  10.897   2.355
 5416SOL    HW218146   1.308  11.044   2.384
 5417SOL     OW18147   4.302   2.537   5.434
 5417SOL    HW118148   4.243   2.466   5.458
 5417SOL    HW218149   4.357   2.501   5.365
 5418SOL     OW18150  13.784  14.500   6.763
 5418SOL    HW118151  13.877  14.488   6.743
 5418SOL    HW218152  13.761  14.424   6.816
 5419SOL     OW18153   8.189  11.046   9.375
 5419SOL    HW118154   8.123  11.071   9.310
 5419SOL    HW218155   8.157  11.084   9.457
 5420SOL     OW18156  14.450   1.833  13.053
 5420SOL    HW118157  14.407   1.894  13.113
 5420SOL    HW218158  14.514   1.888  13.006
 5421SOL     OW18159   5.951  12.020   5.959
 5421SOL    HW118160   5.996  12.038   6.041
 5421SOL    HW218161   5.923  12.106   5.928
 5422SOL     OW18162   8.742  12.714  11.447
 5422SOL    HW118163   8.690  12.776  11.394
 5422SOL    HW218164   8.832  12.742  11.434
 5423SOL     OW18165   5.935  10.017  14.737
 5423SOL    HW118166   5.989   9.997  14.661
 5423SOL    HW218167   5.937  10.113  14.744
 5424SOL     OW18168   3.007   6.711   0.102
 5424SOL    HW118169   3.021   6.619   0.079
 5424SOL    HW218170   2.924   6.712   0.150
 5425SOL     OW18171  10.721  13.561  13.570
 5425SOL    HW118172  10.667  13.490  13.537
 5425SOL    HW218173  10.811  13.530  13.560
 5426SOL     OW18174   9.942   6.545   7.662
 5426SOL    HW118175   9.975   6.635   7.668
 5426SOL    HW218176  10.018   6.490   7.680
 5427SOL     OW18177   1.136  12.289  11.023
 5427SOL    HW118178   1.152  12.322  10.935
 5427SOL    HW218179   1.219  12.302  11.069
 5428SOL     OW18180   7.270  13.369   7.623
 5428SOL    HW118181   7.206  13.348   7.554
 5428SOL    HW218182   7.231  13.335   7.703
 5429SOL     OW18183   0.363   1.084   1.000
 5429SOL    HW118184   0.399   1.015   0.943
 5429SOL    HW218185   0.440   1.122   1.042
 5430SOL     OW18186   8.417   0.640   4.469
 5430SOL    HW118187   8.460   0.725   4.458
 5430SOL    HW218188   8.475   0.579   4.424
 5431SOL     OW18189   8.986  13.948   2.939
 5431SOL    HW118190   9.033  13.864   2.941
 5431SOL    HW218191   8.912  13.933   2.880
 5432SOL     OW18192   8.302  12.435  10.829
 5432SOL    HW118193   8.276  12.500  10.895
 5432SOL    HW218194   8.388  12.464  10.798
 5433SOL     OW18195   6.687  13.336   0.413
 5433SOL    HW118196   6.695  13.264   0.351
 5433SOL    HW218197   6.684  13.293   0.499
 5434SOL     OW18198   1.823   6.816  10.120
 5434SOL    HW118199   1.857   6.881  10.182
 5434SOL    HW218200   1.896   6.756  10.107
 5435SOL     OW18201  11.713   0.245   1.144
 5435SOL    HW118202  11.702   0.204   1.058
 5435SOL    HW218203  11.683   0.335   1.131
 5436SOL     OW18204   3.537   1.451  10.678
 5436SOL    HW118205   3.487   1.416  10.605
 5436SOL    HW218206   3.499   1.409  10.756
 5437SOL     OW18207   4.980  13.621  11.650
 5437SOL    HW118208   5.065  13.658  11.628
 5437SOL    HW218209   5.000  13.547  11.707
 5438SOL     OW18210   0.402   6.756  11.454
 5438SOL    HW118211   0.309   6.733  11.456
 5438SOL    HW218212   0.446   6.679  11.491
 5439SOL     OW18213   9.714   6.003  10.336
 5439SOL    HW118214   9.724   5.960  10.421
 5439SOL    HW218215   9.681   5.934  10.278
 5440SOL     OW18216   8.461   8.239   0.067
 5440SOL    HW118217   8.416   8.318   0.038
 5440SOL    HW218218   8.553   8.264   0.075
 5441SOL     OW18219   8.448  14.251  12.541
 5441SOL    HW118220   8.373  14.227  12.596
 5441SOL    HW218221   8.519  14.266  12.604
 5442SOL     OW18222  13.008   4.167   6.525
 5442SOL    HW118223  13.025   4.215   6.606
 5442SOL    HW218224  12.913   4.168   6.516
 5443SOL     OW18225   7.710   4.018  13.592
 5443SOL    HW118226   7.747   4.106  13.590
 5443SOL    HW218227   7.615   4.032  13.597
 5444SOL     OW18228   3.007   2.142   4.287
 5444SOL    HW118229   3.062   2.076   4.329
 5444SOL    HW218230   2.953   2.093   4.225
 5445SOL     OW18231  10.527  12.252   9.937
 5445SOL    HW118232  10.505  12.292   9.853
 5445SOL    HW218233  10.442  12.225   9.973
 5446SOL     OW18234   8.861   5.077   3.368
 5446SOL    HW118235   8.815   5.046   3.446
 5446SOL    HW218236   8.912   5.002   3.338
 5447SOL     OW18237   9.128  12.798   9.961
 5447SOL    HW118238   9.224  12.800   9.967
 5447SOL    HW218239   9.110  12.800   9.867
 5448SOL     OW18240   9.195   3.062   3.715
 5448SOL    HW118241   9.133   3.006   3.762
 5448SOL    HW218242   9.278   3.049   3.759
 5449SOL     OW18243   3.479  11.702  12.815
 5449SOL    HW118244   3.544  11.728  12.880
 5449SOL    HW218245   3.398  11.746  12.842
 5450SOL     OW18246   0.705   9.289  11.974
 5450SOL    HW118247   0.744   9.242  12.048
 5450SOL    HW218248   0.692   9.221  11.907
 5451SOL     OW18249   1.208   4.678   8.995
 5451SOL    HW118250   1.113   4.686   8.982
 5451SOL    HW218251   1.246   4.693   8.909
 5452SOL     OW18252  11.326  10.007   3.245
 5452SOL    HW118253  11.249  10.021   3.190
 5452SOL    HW218254  11.350  10.095   3.275
 5453SOL     OW18255   8.146   2.423   3.327
 5453SOL    HW118256   8.199   2.388   3.256
 5453SOL    HW218257   8.127   2.347   3.383
 5454SOL     OW18258   7.563  14.569  11.933
 5454SOL    HW118259   7.543  14.549  11.842
 5454SOL    HW218260   7.596  14.658  11.932
 5455SOL     OW18261   6.208  11.984   5.510
 5455SOL    HW118262   6.182  11.934   5.587
 5455SOL    HW218263   6.144  11.960   5.443
 5456SOL     OW18264   3.195   5.517  10.135
 5456SOL    HW118265   3.208   5.499  10.042
 5456SOL    HW218266   3.170   5.609  10.138
 5457SOL     OW18267   5.877  11.376   3.559
 5457SOL    HW118268   5.854  11.467   3.540
 5457SOL    HW218269   5.929  11.380   3.639
 5458SOL     OW18270   9.852   0.450   4.474
 5458SOL    HW118271   9.883   0.421   4.560
 5458SOL    HW218272   9.758   0.459   4.484
 5459SOL     OW18273  13.282   4.435   6.020
 5459SOL    HW118274  13.342   4.468   5.953
 5459SOL    HW218275  13.198   4.427   5.975
 5460SOL     OW18276  11.816  13.488   0.860
 5460SOL    HW118277  11.760  13.544   0.807
 5460SOL    HW218278  11.758  13.421   0.895
 5461SOL     OW18279   2.948   1.423  14.406
 5461SOL    HW118280   3.032   1.380  14.389
 5461SOL    HW218281   2.887   1.379  14.347
 5462SOL     OW18282   5.729   5.654   5.627
 5462SOL    HW118283   5.802   5.714   5.616
 5462SOL    HW218284   5.754   5.575   5.579
 5463SOL     OW18285  11.384   6.935   9.235
 5463SOL    HW118286  11.470   6.939   9.193
 5463SOL    HW218287  11.359   6.843   9.229
 5464SOL     OW18288   1.396   7.292  11.729
 5464SOL    HW118289   1.438   7.283  11.815
 5464SOL    HW218290   1.310   7.252  11.741
 5465SOL     OW18291  12.686   4.298   4.978
 5465SOL    HW118292  12.606   4.319   4.930
 5465SOL    HW218293  12.751   4.280   4.911
 5466SOL     OW18294   8.792   1.618   0.387
 5466SOL    HW118295   8.811   1.580   0.301
 5466SOL    HW218296   8.872   1.665   0.410
 5467SOL     OW18297   1.359   7.112   9.845
 5467SOL    HW118298   1.362   7.200   9.885
 5467SOL    HW218299   1.434   7.066   9.884
 5468SOL     OW18300   5.519   6.585  14.356
 5468SOL    HW118301   5.528   6.497  14.320
 5468SOL    HW218302   5.430   6.588  14.390
 5469SOL     OW18303   0.599   8.481   7.309
 5469SOL    HW118304   0.628   8.480   7.400
 5469SOL    HW218305   0.636   8.401   7.271
 5470SOL     OW18306   6.464  13.226  14.358
 5470SOL    HW118307   6.547  13.206  14.402
 5470SOL    HW218308   6.417  13.143  14.359
 5471SOL     OW18309   2.216   5.060   9.137
 5471SOL    HW118310   2.289   5.068   9.198
 5471SOL    HW218311   2.164   4.987   9.172
 5472SOL     OW18312   9.656   0.385  11.312
 5472SOL    HW118313   9.605   0.306  11.330
 5472SOL    HW218314   9.607   0.455  11.354
 5473SOL     OW18315   6.488   7.808   2.066
 5473SOL    HW118316   6.488   7.868   1.992
 5473SOL    HW218317   6.459   7.861   2.140
 5474SOL     OW18318   9.342   3.196  10.577
 5474SOL    HW118319   9.408   3.182  10.645
 5474SOL    HW218320   9.370   3.140  10.504
 5475SOL     OW18321   3.542   1.754   7.336
 5475SOL    HW118322   3.567   1.819   7.401
 5475SOL    HW218323   3.494   1.687   7.385
 5476SOL     OW18324  10.485   3.574   3.624
 5476SOL    HW118325  10.510   3.661   3.654
 5476SOL    HW218326  10.487   3.580   3.528
 5477SOL     OW18327  11.508   3.542   9.793
 5477SOL    HW118328  11.427   3.543   9.741
 5477SOL    HW218329  11.560   3.614   9.758
 5478SOL     OW18330   8.896   1.398   1.473
 5478SOL    HW118331   8.820   1.450   1.499
 5478SOL    HW218332   8.952   1.396   1.550
 5479SOL     OW18333   4.111   2.330  11.771
 5479SOL    HW118334   4.064   2.384  11.834
 5479SOL    HW218335   4.171   2.391  11.727
 5480SOL     OW18336   5.578  13.256   8.081
 5480SOL    HW118337   5.553  13.280   8.170
 5480SOL    HW218338   5.509  13.196   8.052
 5481SOL     OW18339  11.462   5.606   8.901
 5481SOL    HW118340  11.381   5.595   8.852
 5481SOL    HW218341  11.442   5.573   8.988
 5482SOL     OW18342   5.657   6.779   3.692
 5482SOL    HW118343   5.578   6.808   3.646
 5482SOL    HW218344   5.698   6.717   3.633
 5483SOL     OW18345  11.959   4.743   3.919
 5483SOL    HW118346  11.950   4.793   4.001
 5483SOL    HW218347  11.878   4.759   3.872
 5484SOL     OW18348   9.837   6.692   5.743
 5484SOL    HW118349   9.853   6.675   5.650
 5484SOL    HW218350   9.796   6.612   5.775
 5485SOL     OW18351  13.082  11.805   8.847
 5485SOL    HW118352  13.111  11.895   8.829
 5485SOL    HW218353  13.162  11.753   8.842
 5486SOL     OW18354   4.390  11.358  14.833
 5486SOL    HW118355   4.481  11.382  14.821
 5486SOL    HW218356   4.350  11.369  14.747
 5487SOL     OW18357  14.246  14.763  12.867
 5487SOL    HW118358  14.291  14.765  12.782
 5487SOL    HW218359  14.208  14.675  12.871
 5488SOL     OW18360   2.917  11.909   2.104
 5488SOL    HW118361   2.877  11.823   2.091
 5488SOL    HW218362   2.999  11.904   2.055
 5489SOL     OW18363   3.301   0.295  12.782
 5489SOL    HW118364   3.212   0.330  12.774
 5489SOL    HW218365   3.316   0.247  12.701
 5490SOL     OW18366   9.878   8.467  12.522
 5490SOL    HW118367   9.836   8.395  12.475
 5490SOL    HW218368   9.971   8.458  12.501
 5491SOL     OW18369   5.919  10.211   4.444
 5491SOL    HW118370   5.826  10.224   4.428
 5491SOL    HW218371   5.941  10.275   4.511
 5492SOL     OW18372   5.125   0.399  14.755
 5492SOL    HW118373   5.063   0.471  14.768
 5492SOL    HW218374   5.208   0.431  14.788
 5493SOL     OW18375   9.158  11.787   0.676
 5493SOL    HW118376   9.228  11.848   0.701
 5493SOL    HW218377   9.140  11.738   0.756
 5494SOL     OW18378   3.932   1.066   4.648
 5494SOL    HW118379   4.022   1.050   4.621
 5494SOL    HW218380   3.941   1.104   4.736
 5495SOL     OW18381   7.361   1.317  12.473
 5495SOL    HW118382   7.405   1.356  12.548
 5495SOL    HW218383   7.316   1.240  12.509
 5496SOL     OW18384   1.327  12.826  13.418
 5496SOL    HW118385   1.391  12.878  13.467
 5496SOL    HW218386   1.318  12.872  13.335
 5497SOL     OW18387   1.948   7.612   6.874
 5497SOL    HW118388   2.040   7.621   6.898
 5497SOL    HW218389   1.915   7.541   6.929
 5498SOL     OW18390   3.020   0.650   5.432
 5498SOL    HW118391   3.000   0.658   5.525
 5498SOL    HW218392   2.992   0.562   5.408
 5499SOL     OW18393   5.241  10.285   3.206
 5499SOL    HW118394   5.302  10.231   3.257
 5499SOL    HW218395   5.251  10.373   3.242
 5500SOL     OW18396  13.674   3.173  14.589
 5500SOL    HW118397  13.712   3.242  14.644
 5500SOL    HW218398  13.579   3.186  14.596
 5501SOL     OW18399   5.000   0.552   9.586
 5501SOL    HW118400   4.967   0.640   9.564
 5501SOL    HW218401   4.921   0.497   9.588
 5502SOL     OW18402  13.888   4.976   4.219
 5502SOL    HW118403  13.974   5.015   4.231
 5502SOL    HW218404  13.844   5.033   4.156
 5503SOL     OW18405   4.188  14.618  13.971
 5503SOL    HW118406   4.097  14.619  13.999
 5503SOL    HW218407   4.216  14.528  13.983
 5504SOL     OW18408   4.094  10.168  11.891
 5504SOL    HW118409   4.102  10.247  11.838
 5504SOL    HW218410   4.127  10.194  11.977
 5505SOL     OW18411  14.750   8.226  13.418
 5505SOL    HW118412  14.820   8.213  13.482
 5505SOL    HW218413  14.735   8.139  13.381
 5506SOL     OW18414   1.395   0.151  14.038
 5506SOL    HW118415   1.474   0.182  13.994
 5506SOL    HW218416   1.362   0.081  13.981
 5507SOL     OW18417   7.155   7.639  11.349
 5507SOL    HW118418   7.233   7.672  11.392
 5507SOL    HW218419   7.109   7.589  11.416
 5508SOL     OW18420   8.036   4.618  12.373
 5508SOL    HW118421   8.105   4.593  12.435
 5508SOL    HW218422   8.055   4.709  12.352
 5509SOL     OW18423  13.726   7.976  13.601
 5509SOL    HW118424  13.651   7.926  13.633
 5509SOL    HW218425  13.789   7.910  13.573
 5510SOL     OW18426   1.365   1.680   8.485
 5510SOL    HW118427   1.306   1.751   8.459
 5510SOL    HW218428   1.418   1.664   8.407
 5511SOL     OW18429   7.828  14.230  14.479
 5511SOL    HW118430   7.767  14.193  14.416
 5511SOL    HW218431   7.775  14.286  14.535
 5512SOL     OW18432   9.500  10.686  14.062
 5512SOL    HW118433   9.501  10.649  13.973
 5512SOL    HW218434   9.472  10.777  14.050
 5513SOL     OW18435   1.232   9.090  11.045
 5513SOL    HW118436   1.140   9.075  11.023
 5513SOL    HW218437   1.247   9.036  11.123
 5514SOL     OW18438   0.616  14.785   3.533
 5514SOL    HW118439   0.613  14.695   3.564
 5514SOL    HW218440   0.529  14.820   3.552
 5515SOL     OW18441   4.256  10.132  12.532
 5515SOL    HW118442   4.301  10.127  12.447
 5515SOL    HW218443   4.166  10.159  12.510
 5516SOL     OW18444   1.140   4.730   1.051
 5516SOL    HW118445   1.099   4.816   1.057
 5516SOL    HW218446   1.180   4.716   1.137
 5517SOL     OW18447   3.820  11.266   0.851
 5517SOL    HW118448   3.765  11.334   0.889
 5517SOL    HW218449   3.765  11.188   0.851
 5518SOL     OW18450   6.608   6.930  10.796
 5518SOL    HW118451   6.524   6.961  10.829
 5518SOL    HW218452   6.636   6.865  10.860
 5519SOL     OW18453   8.289   3.647  10.956
 5519SOL    HW118454   8.348   3.571  10.954
 5519SOL    HW218455   8.209   3.616  10.914
 5520SOL     OW18456   0.467   2.406  14.474
 5520SOL    HW118457   0.439   2.477  14.417
 5520SOL    HW218458   0.409   2.411  14.549
 5521SOL     OW18459  11.124  14.333   4.687
 5521SOL    HW118460  11.165  14.416   4.666
 5521SOL    HW218461  11.197  14.275   4.710
 5522SOL     OW18462   6.543  12.146   7.452
 5522SOL    HW118463   6.586  12.187   7.527
 5522SOL    HW218464   6.543  12.053   7.472
 5523SOL     OW18465  13.016   8.008   0.689
 5523SOL    HW118466  13.014   8.081   0.628
 5523SOL    HW218467  13.102   8.015   0.733
 5524SOL     OW18468   1.726   5.824   0.676
 5524SOL    HW118469   1.667   5.871   0.618
 5524SOL    HW218470   1.677   5.747   0.703
 5525SOL     OW18471   1.628   0.133  13.845
 5525SOL    HW118472   1.686   0.205  13.818
 5525SOL    HW218473   1.650   0.061  13.785
 5526SOL     OW18474  13.157   2.542   5.668
 5526SOL    HW118475  13.212   2.531   5.745
 5526SOL    HW218476  13.067   2.531   5.699
 5527SOL     OW18477  12.697   8.855   1.476
 5527SOL    HW118478  12.699   8.943   1.513
 5527SOL    HW218479  12.639   8.806   1.535
 5528SOL     OW18480   5.618  11.976   2.547
 5528SOL    HW118481   5.540  11.926   2.572
 5528SOL    HW218482   5.618  11.973   2.451
 5529SOL     OW18483  14.660   9.935  11.601
 5529SOL    HW118484  14.620   9.865  11.550
 5529SOL    HW218485  14.665  10.009  11.540
 5530SOL     OW18486   7.767  14.861   5.928
 5530SOL    HW118487   7.751  14.804   5.853
 5530SOL    HW218488   7.715  14.822   5.999
 5531SOL     OW18489  10.904   8.553   4.082
 5531SOL    HW118490  10.898   8.494   4.007
 5531SOL    HW218491  10.814   8.562   4.113
 5532SOL     OW18492  13.856  12.881   8.540
 5532SOL    HW118493  13.867  12.786   8.539
 5532SOL    HW218494  13.784  12.897   8.479
 5533SOL     OW18495   9.295   9.308   0.238
 5533SOL    HW118496   9.235   9.303   0.312
 5533SOL    HW218497   9.263   9.242   0.177
 5534SOL     OW18498   4.145   3.851  10.745
 5534SOL    HW118499   4.160   3.759  10.764
 5534SOL    HW218500   4.231   3.886  10.722
 5535SOL     OW18501   0.888   7.350   9.510
 5535SOL    HW118502   0.900   7.340   9.605
 5535SOL    HW218503   0.814   7.293   9.489
 5536SOL     OW18504   8.913  11.435   0.689
 5536SOL    HW118505   8.994  11.467   0.728
 5536SOL    HW218506   8.865  11.396   0.761
 5537SOL     OW18507   7.842   8.507   5.656
 5537SOL    HW118508   7.847   8.505   5.560
 5537SOL    HW218509   7.852   8.415   5.682
 5538SOL     OW18510   4.389  14.306   0.612
 5538SOL    HW118511   4.481  14.280   0.608
 5538SOL    HW218512   4.382  14.359   0.691
 5539SOL     OW18513   5.595   0.532   2.290
 5539SOL    HW118514   5.554   0.616   2.314
 5539SOL    HW218515   5.655   0.555   2.219
 5540SOL     OW18516  13.471   2.754  10.388
 5540SOL    HW118517  13.517   2.712  10.315
 5540SOL    HW218518  13.535   2.815  10.424
 5541SOL     OW18519  13.828  11.130  12.393
 5541SOL    HW118520  13.850  11.166  12.478
 5541SOL    HW218521  13.882  11.051  12.385
 5542SOL     OW18522   5.127  13.517   3.817
 5542SOL    HW118523   5.219  13.502   3.796
 5542SOL    HW218524   5.125  13.524   3.913
 5543SOL     OW18525   5.632   0.410   7.856
 5543SOL    HW118526   5.688   0.425   7.780
 5543SOL    HW218527   5.690   0.419   7.931
 5544SOL     OW18528  13.234   4.079  11.729
 5544SOL    HW118529  13.193   4.052  11.812
 5544SOL    HW218530  13.277   4.162  11.750
 5545SOL     OW18531  11.370   9.740  10.207
 5545SOL    HW118532  11.377   9.696  10.122
 5545SOL    HW218533  11.281   9.777  10.208
 5546SOL     OW18534   7.830   0.834  13.103
 5546SOL    HW118535   7.925   0.826  13.115
 5546SOL    HW218536   7.816   0.925  13.079
 5547SOL     OW18537  12.081   6.092  12.856
 5547SOL    HW118538  12.143   6.144  12.804
 5547SOL    HW218539  12.050   6.152  12.924
 5548SOL     OW18540   8.675   0.335   0.413
 5548SOL    HW118541   8.729   0.265   0.376
 5548SOL    HW218542   8.623   0.367   0.340
 5549SOL     OW18543   9.884   5.108   3.604
 5549SOL    HW118544   9.905   5.048   3.676
 5549SOL    HW218545   9.805   5.153   3.632
 5550SOL     OW18546  13.909  11.980   0.965
 5550SOL    HW118547  13.929  12.043   0.896
 5550SOL    HW218548  13.838  11.927   0.931
 5551SOL     OW18549   7.551  14.223   0.352
 5551SOL    HW118550   7.510  14.309   0.369
 5551SOL    HW218551   7.551  14.180   0.438
 5552SOL     OW18552   2.788  14.827  14.659
 5552SOL    HW118553   2.874  14.844  14.621
 5552SOL    HW218554   2.801  14.834  14.753
 5553SOL     OW18555   9.520   9.337   6.970
 5553SOL    HW118556   9.574   9.304   6.898
 5553SOL    HW218557   9.575   9.404   7.011
 5554SOL     OW18558   1.927   2.991  11.012
 5554SOL    HW118559   1.917   2.982  11.107
 5554SOL    HW218560   1.976   3.073  11.001
 5555SOL     OW18561  13.744   2.645   2.710
 5555SOL    HW118562  13.731   2.723   2.763
 5555SOL    HW218563  13.687   2.578   2.748
 5556SOL     OW18564  14.072   0.048   2.021
 5556SOL    HW118565  14.092   0.120   2.080
 5556SOL    HW218566  14.119   0.069   1.940
 5557SOL     OW18567  14.694  11.852   7.182
 5557SOL    HW118568  14.754  11.927   7.188
 5557SOL    HW218569  14.610  11.890   7.157
 5558SOL     OW18570   1.281   5.346  12.150
 5558SOL    HW118571   1.352   5.359  12.214
 5558SOL    HW218572   1.274   5.430  12.106
 5559SOL     OW18573   1.234  10.061   7.338
 5559SOL    HW118574   1.151  10.070   7.290
 5559SOL    HW218575   1.290  10.129   7.302
 5560SOL     OW18576   8.590   6.799   4.858
 5560SOL    HW118577   8.627   6.739   4.923
 5560SOL    HW218578   8.548   6.868   4.910
 5561SOL     OW18579   1.132   5.202   4.184
 5561SOL    HW118580   1.197   5.198   4.254
 5561SOL    HW218581   1.076   5.277   4.208
 5562SOL     OW18582   1.465   4.113   9.387
 5562SOL    HW118583   1.396   4.169   9.421
 5562SOL    HW218584   1.534   4.174   9.360
 5563SOL     OW18585   3.537   5.562   7.722
 5563SOL    HW118586   3.507   5.630   7.661
 5563SOL    HW218587   3.547   5.484   7.668
 5564SOL     OW18588  11.909   1.634   0.943
 5564SOL    HW118589  11.876   1.566   1.002
 5564SOL    HW218590  11.842   1.703   0.948
 5565SOL     OW18591   5.024   0.866   9.056
 5565SOL    HW118592   5.091   0.884   8.990
 5565SOL    HW218593   4.966   0.942   9.054
 5566SOL     OW18594   5.069   8.322   1.230
 5566SOL    HW118595   5.128   8.360   1.164
 5566SOL    HW218596   5.119   8.250   1.267
 5567SOL     OW18597  12.748  12.909   2.176
 5567SOL    HW118598  12.819  12.943   2.230
 5567SOL    HW218599  12.672  12.906   2.235
 5568SOL     OW18600  11.714  10.705   2.974
 5568SOL    HW118601  11.644  10.691   2.910
 5568SOL    HW218602  11.767  10.626   2.968
 5569SOL     OW18603   7.413   3.074   8.058
 5569SOL    HW118604   7.337   3.046   8.006
 5569SOL    HW218605   7.375   3.118   8.134
 5570SOL     OW18606  13.798   8.314  14.084
 5570SOL    HW118607  13.870   8.370  14.111
 5570SOL    HW218608  13.839   8.230  14.064
 5571SOL     OW18609   9.022  14.463  13.093
 5571SOL    HW118610   8.969  14.419  13.159
 5571SOL    HW218611   9.109  14.468  13.132
 5572SOL     OW18612   3.328   2.730   1.683
 5572SOL    HW118613   3.258   2.676   1.647
 5572SOL    HW218614   3.310   2.818   1.649
 5573SOL     OW18615   2.818   6.810   2.515
 5573SOL    HW118616   2.795   6.823   2.423
 5573SOL    HW218617   2.737   6.778   2.555
 5574SOL     OW18618   1.311   8.431  12.154
 5574SOL    HW118619   1.366   8.487  12.099
 5574SOL    HW218620   1.223   8.444  12.121
 5575SOL     OW18621  10.788  10.327   0.010
 5575SOL    HW118622  10.754  10.247   0.050
 5575SOL    HW218623  10.854  10.297  14.816
 5576SOL     OW18624   3.035   5.993  11.831
 5576SOL    HW118625   3.099   5.935  11.872
 5576SOL    HW218626   3.050   5.984  11.737
 5577SOL     OW18627  13.616   9.575  12.743
 5577SOL    HW118628  13.623   9.639  12.815
 5577SOL    HW218629  13.589   9.494  12.786
 5578SOL     OW18630  13.631   8.064   6.237
 5578SOL    HW118631  13.639   8.087   6.330
 5578SOL    HW218632  13.705   8.107   6.195
 5579SOL     OW18633   7.927   8.221   0.379
 5579SOL    HW118634   7.977   8.265   0.448
 5579SOL    HW218635   7.986   8.218   0.305
 5580SOL     OW18636   4.361  12.115  14.186
 5580SOL    HW118637   4.297  12.123  14.115
 5580SOL    HW218638   4.442  12.089  14.142
 5581SOL     OW18639   2.491  14.639  14.793
 5581SOL    HW118640   2.445  14.723  14.783
 5581SOL    HW218641   2.424  14.573  14.774
 5582SOL     OW18642   6.683   6.891   5.379
 5582SOL    HW118643   6.746   6.953   5.342
 5582SOL    HW218644   6.611   6.946   5.411
 5583SOL     OW18645   7.482  11.107   6.239
 5583SOL    HW118646   7.399  11.098   6.192
 5583SOL    HW218647   7.549  11.090   6.174
 5584SOL     OW18648   2.041   3.825  10.963
 5584SOL    HW118649   1.990   3.758  11.008
 5584SOL    HW218650   1.997   3.836  10.878
 5585SOL     OW18651   6.301  13.102  11.919
 5585SOL    HW118652   6.355  13.128  11.843
 5585SOL    HW218653   6.245  13.178  11.935
 5586SOL     OW18654   6.182  13.467   3.307
 5586SOL    HW118655   6.126  13.533   3.266
 5586SOL    HW218656   6.121  13.407   3.351
 5587SOL     OW18657  13.652   1.490   3.593
 5587SOL    HW118658  13.723   1.433   3.563
 5587SOL    HW218659  13.613   1.443   3.666
 5588SOL     OW18660   6.135   4.907  13.257
 5588SOL    HW118661   6.069   4.969  13.286
 5588SOL    HW218662   6.086   4.838  13.213
 5589SOL     OW18663   1.789   7.139   8.354
 5589SOL    HW118664   1.796   7.144   8.450
 5589SOL    HW218665   1.773   7.229   8.327
 5590SOL     OW18666   6.035  12.536   1.191
 5590SOL    HW118667   6.086  12.489   1.257
 5590SOL    HW218668   5.976  12.470   1.155
 5591SOL     OW18669   6.270   9.044   8.107
 5591SOL    HW118670   6.201   9.084   8.160
 5591SOL    HW218671   6.224   8.980   8.054
 5592SOL     OW18672  10.793  13.115   0.154
 5592SOL    HW118673  10.719  13.175   0.163
 5592SOL    HW218674  10.864  13.156   0.204
 5593SOL     OW18675   7.291   2.476   0.723
 5593SOL    HW118676   7.337   2.397   0.693
 5593SOL    HW218677   7.199   2.459   0.703
 5594SOL     OW18678  13.418   4.820   9.890
 5594SOL    HW118679  13.340   4.844   9.840
 5594SOL    HW218680  13.490   4.826   9.828
 5595SOL     OW18681   1.949   2.693  10.492
 5595SOL    HW118682   1.879   2.731  10.545
 5595SOL    HW218683   1.963   2.757  10.422
 5596SOL     OW18684  11.834   7.829   7.013
 5596SOL    HW118685  11.877   7.849   6.929
 5596SOL    HW218686  11.904   7.796   7.069
 5597SOL     OW18687   6.712  13.733  14.702
 5597SOL    HW118688   6.631  13.683  14.701
 5597SOL    HW218689   6.705  13.792  14.627
 5598SOL     OW18690   7.609  11.211   4.161
 5598SOL    HW118691   7.648  11.277   4.218
 5598SOL    HW218692   7.559  11.155   4.221
 5599SOL     OW18693   9.771   2.670   2.611
 5599SOL    HW118694   9.770   2.599   2.547
 5599SOL    HW218695   9.680   2.701   2.614
 5600SOL     OW18696   6.825  10.134   4.707
 5600SOL    HW118697   6.757  10.089   4.658
 5600SOL    HW218698   6.851  10.071   4.775
 5601SOL     OW18699  14.415   9.136   4.849
 5601SOL    HW118700  14.448   9.110   4.763
 5601SOL    HW218701  14.332   9.090   4.858
 5602SOL     OW18702   5.398   1.480  13.424
 5602SOL    HW118703   5.355   1.512  13.345
 5602SOL    HW218704   5.416   1.559  13.475
 5603SOL     OW18705   4.542  12.426   3.669
 5603SOL    HW118706   4.591  12.482   3.728
 5603SOL    HW218707   4.463  12.476   3.647
 5604SOL     OW18708  13.747   3.023  13.206
 5604SOL    HW118709  13.669   3.016  13.261
 5604SOL    HW218710  13.725   3.091  13.142
 5605SOL     OW18711  11.046   5.557  14.486
 5605SOL    HW118712  11.129   5.516  14.512
 5605SOL    HW218713  11.052   5.646  14.519
 5606SOL     OW18714  12.058   7.855   7.721
 5606SOL    HW118715  12.143   7.854   7.766
 5606SOL    HW218716  12.062   7.931   7.663
 5607SOL     OW18717   7.922   9.016   8.615
 5607SOL    HW118718   7.863   9.054   8.550
 5607SOL    HW218719   8.004   9.004   8.567
 5608SOL     OW18720   4.393  13.246  12.149
 5608SOL    HW118721   4.480  13.281  12.166
 5608SOL    HW218722   4.341  13.273  12.225
 5609SOL     OW18723  14.844   9.180   3.380
 5609SOL    HW118724   0.067   9.184   3.407
 5609SOL    HW218725  14.833   9.091   3.345
 5610SOL     OW18726   3.955  14.320  12.023
 5610SOL    HW118727   4.042  14.353  12.000
 5610SOL    HW218728   3.904  14.326  11.942
 5611SOL     OW18729  13.294   1.570   0.694
 5611SOL    HW118730  13.338   1.629   0.632
 5611SOL    HW218731  13.248   1.629   0.754
 5612SOL     OW18732   2.691   4.072  11.375
 5612SOL    HW118733   2.674   4.157  11.415
 5612SOL    HW218734   2.784   4.055  11.392
 5613SOL     OW18735   7.314   9.792   4.894
 5613SOL    HW118736   7.224   9.822   4.909
 5613SOL    HW218737   7.367   9.839   4.958
 5614SOL     OW18738  12.552   1.976   0.174
 5614SOL    HW118739  12.561   2.071   0.177
 5614SOL    HW218740  12.557   1.948   0.266
 5615SOL     OW18741  11.488  10.983   9.072
 5615SOL    HW118742  11.425  11.013   9.007
 5615SOL    HW218743  11.503  10.891   9.049
 5616SOL     OW18744   4.393  14.822  13.643
 5616SOL    HW118745   4.325  14.762  13.611
 5616SOL    HW218746   4.422  14.783  13.725
 5617SOL     OW18747   1.542  14.052  11.427
 5617SOL    HW118748   1.560  14.078  11.517
 5617SOL    HW218749   1.627  14.054  11.384
 5618SOL     OW18750   4.999   0.019   5.290
 5618SOL    HW118751   4.932   0.047   5.352
 5618SOL    HW218752   5.014   0.095   5.234
 5619SOL     OW18753   9.250  14.677   9.843
 5619SOL    HW118754   9.215  14.600   9.797
 5619SOL    HW218755   9.310  14.641   9.908
 5620SOL     OW18756  14.611   4.476   6.819
 5620SOL    HW118757  14.595   4.530   6.742
 5620SOL    HW218758  14.609   4.537   6.893
 5621SOL     OW18759  12.025  11.695  12.298
 5621SOL    HW118760  12.031  11.670  12.391
 5621SOL    HW218761  11.986  11.619  12.255
 5622SOL     OW18762   9.592   9.277   2.640
 5622SOL    HW118763   9.540   9.198   2.650
 5622SOL    HW218764   9.664   9.252   2.582
 5623SOL     OW18765   6.024   9.769  10.717
 5623SOL    HW118766   6.104   9.718  10.703
 5623SOL    HW218767   6.001   9.753  10.808
 5624SOL     OW18768  10.699  11.669   6.384
 5624SOL    HW118769  10.715  11.575   6.386
 5624SOL    HW218770  10.776  11.706   6.341
 5625SOL     OW18771   7.792  13.516   8.435
 5625SOL    HW118772   7.792  13.421   8.429
 5625SOL    HW218773   7.840  13.535   8.515
 5626SOL     OW18774   1.473   9.809  14.172
 5626SOL    HW118775   1.533   9.763  14.230
 5626SOL    HW218776   1.515   9.894  14.156
 5627SOL     OW18777   0.144   2.561   5.165
 5627SOL    HW118778   0.130   2.563   5.260
 5627SOL    HW218779   0.205   2.489   5.152
 5628SOL     OW18780  14.311  13.527   6.605
 5628SOL    HW118781  14.334  13.436   6.584
 5628SOL    HW218782  14.292  13.526   6.699
 5629SOL     OW18783   2.254   1.435   6.969
 5629SOL    HW118784   2.218   1.519   6.940
 5629SOL    HW218785   2.304   1.457   7.048
 5630SOL     OW18786   9.275  11.447  12.947
 5630SOL    HW118787   9.275  11.501  13.026
 5630SOL    HW218788   9.254  11.359  12.978
 5631SOL     OW18789   1.318   1.635   7.381
 5631SOL    HW118790   1.302   1.728   7.399
 5631SOL    HW218791   1.396   1.634   7.326
 5632SOL     OW18792   0.962  10.216  10.160
 5632SOL    HW118793   0.910  10.243  10.084
 5632SOL    HW218794   1.043  10.182  10.122
 5633SOL     OW18795   5.716  13.200   7.772
 5633SOL    HW118796   5.752  13.125   7.820
 5633SOL    HW218797   5.648  13.235   7.830
 5634SOL     OW18798   5.480  12.901   4.561
 5634SOL    HW118799   5.483  12.832   4.628
 5634SOL    HW218800   5.572  12.923   4.545
 5635SOL     OW18801   0.002  14.103  13.210
 5635SOL    HW118802   0.045  14.174  13.162
 5635SOL    HW218803  14.789  14.142  13.244
 5636SOL     OW18804   8.772   8.160  14.581
 5636SOL    HW118805   8.721   8.218  14.523
 5636SOL    HW218806   8.822   8.220  14.636
 5637SOL     OW18807   0.533  10.278   7.181
 5637SOL    HW118808   0.572  10.191   7.176
 5637SOL    HW218809   0.472  10.272   7.254
 5638SOL     OW18810  11.571   0.178  10.098
 5638SOL    HW118811  11.641   0.145  10.042
 5638SOL    HW218812  11.543   0.260  10.056
 5639SOL     OW18813   8.586   1.314   7.013
 5639SOL    HW118814   8.586   1.230   6.967
 5639SOL    HW218815   8.569   1.291   7.105
 5640SOL     OW18816  13.208   3.727   6.989
 5640SOL    HW118817  13.290   3.757   7.028
 5640SOL    HW218818  13.225   3.636   6.964
 5641SOL     OW18819   5.459   5.340  13.983
 5641SOL    HW118820   5.515   5.415  13.964
 5641SOL    HW218821   5.470   5.282  13.907
 5642SOL     OW18822   0.916   5.698   8.483
 5642SOL    HW118823   0.863   5.754   8.539
 5642SOL    HW218824   0.914   5.612   8.526
 5643SOL     OW18825   2.203  11.978  10.728
 5643SOL    HW118826   2.222  12.071  10.711
 5643SOL    HW218827   2.186  11.975  10.823
 5644SOL     OW18828  11.374  11.522   2.501
 5644SOL    HW118829  11.386  11.437   2.459
 5644SOL    HW218830  11.363  11.502   2.594
 5645SOL     OW18831  13.510  12.811   2.762
 5645SOL    HW118832  13.456  12.732   2.767
 5645SOL    HW218833  13.544  12.823   2.851
 5646SOL     OW18834  13.693  10.973   8.652
 5646SOL    HW118835  13.718  10.883   8.672
 5646SOL    HW218836  13.615  10.989   8.705
 5647SOL     OW18837  10.580   7.083  10.510
 5647SOL    HW118838  10.513   7.015  10.518
 5647SOL    HW218839  10.663   7.034  10.502
 5648SOL     OW18840  14.524   4.124  10.258
 5648SOL    HW118841  14.618   4.139  10.263
 5648SOL    HW218842  14.488   4.204  10.220
 5649SOL     OW18843  13.360   4.916   9.552
 5649SOL    HW118844  13.438   4.891   9.601
 5649SOL    HW218845  13.287   4.900   9.612
 5650SOL     OW18846  11.259  14.134   6.346
 5650SOL    HW118847  11.228  14.149   6.435
 5650SOL    HW218848  11.337  14.080   6.356
 5651SOL     OW18849   0.494  13.326   7.415
 5651SOL    HW118850   0.477  13.308   7.507
 5651SOL    HW218851   0.470  13.418   7.403
 5652SOL     OW18852   0.423  13.682   6.387
 5652SOL    HW118853   0.426  13.587   6.393
 5652SOL    HW218854   0.514  13.709   6.376
 5653SOL     OW18855  13.264   3.288   4.670
 5653SOL    HW118856  13.254   3.208   4.618
 5653SOL    HW218857  13.339   3.271   4.727
 5654SOL     OW18858   5.968   2.854  11.100
 5654SOL    HW118859   6.062   2.847  11.112
 5654SOL    HW218860   5.932   2.851  11.189
 5655SOL     OW18861   4.741   1.699   2.923
 5655SOL    HW118862   4.729   1.660   2.836
 5655SOL    HW218863   4.691   1.781   2.919
 5656SOL     OW18864  13.173   4.668  14.576
 5656SOL    HW118865  13.152   4.608  14.649
 5656SOL    HW218866  13.214   4.743  14.619
 5657SOL     OW18867   7.040  13.522   9.967
 5657SOL    HW118868   7.135  13.519   9.962
 5657SOL    HW218869   7.014  13.433   9.991
 5658SOL     OW18870   1.208   1.870  12.612
 5658SOL    HW118871   1.139   1.937  12.612
 5658SOL    HW218872   1.289   1.919  12.622
 5659SOL     OW18873   4.376   4.607  13.753
 5659SOL    HW118874   4.344   4.537  13.695
 5659SOL    HW218875   4.466   4.623  13.725
 5660SOL     OW18876   8.616  13.455  13.936
 5660SOL    HW118877   8.668  13.428  13.860
 5660SOL    HW218878   8.680  13.467  14.006
 5661SOL     OW18879  12.421   5.607   9.569
 5661SOL    HW118880  12.497   5.588   9.513
 5661SOL    HW218881  12.386   5.689   9.535
 5662SOL     OW18882   2.466  14.414   3.347
 5662SOL    HW118883   2.371  14.420   3.338
 5662SOL    HW218884   2.482  14.421   3.441
 5663SOL     OW18885  14.202   0.923   2.221
 5663SOL    HW118886  14.213   0.831   2.246
 5663SOL    HW218887  14.107   0.935   2.218
 5664SOL     OW18888   5.295   6.531   5.267
 5664SOL    HW118889   5.232   6.530   5.339
 5664SOL    HW218890   5.363   6.592   5.295
 5665SOL     OW18891   3.864   7.203   0.181
 5665SOL    HW118892   3.865   7.115   0.218
 5665SOL    HW218893   3.779   7.209   0.137
 5666SOL     OW18894  10.239  10.553   0.439
 5666SOL    HW118895  10.187  10.477   0.466
 5666SOL    HW218896  10.226  10.617   0.510
 5667SOL     OW18897   9.202   5.082  12.859
 5667SOL    HW118898   9.148   5.003  12.868
 5667SOL    HW218899   9.214   5.093  12.765
 5668SOL     OW18900  13.322  10.177   2.671
 5668SOL    HW118901  13.282  10.264   2.674
 5668SOL    HW218902  13.248  10.118   2.652
 5669SOL     OW18903  10.315   2.884   5.500
 5669SOL    HW118904  10.351   2.812   5.551
 5669SOL    HW218905  10.385   2.908   5.439
 5670SOL     OW18906   0.506  10.206  11.106
 5670SOL    HW118907   0.438  10.222  11.172
 5670SOL    HW218908   0.549  10.125  11.135
 5671SOL     OW18909  11.130   4.645   8.186
 5671SOL    HW118910  11.108   4.727   8.229
 5671SOL    HW218911  11.046   4.607   8.161
 5672SOL     OW18912  12.709   7.692   7.400
 5672SOL    HW118913  12.620   7.725   7.409
 5672SOL    HW218914  12.700   7.597   7.409
 5673SOL     OW18915   1.494  14.183   6.438
 5673SOL    HW118916   1.415  14.237   6.440
 5673SOL    HW218917   1.510  14.160   6.529
 5674SOL     OW18918   3.983   9.420  10.150
 5674SOL    HW118919   3.962   9.414  10.243
 5674SOL    HW218920   4.029   9.504  10.142
 5675SOL     OW18921   8.209  10.856  11.274
 5675SOL    HW118922   8.179  10.800  11.202
 5675SOL    HW218923   8.240  10.794  11.341
 5676SOL     OW18924   3.371  11.097   9.777
 5676SOL    HW118925   3.438  11.164   9.790
 5676SOL    HW218926   3.297  11.127   9.831
 5677SOL     OW18927   7.278   7.542   9.163
 5677SOL    HW118928   7.221   7.564   9.089
 5677SOL    HW218929   7.320   7.625   9.186
 5678SOL     OW18930   2.097   5.881   9.909
 5678SOL    HW118931   2.121   5.789   9.920
 5678SOL    HW218932   2.010   5.888   9.948
 5679SOL     OW18933   5.279   1.346   1.929
 5679SOL    HW118934   5.295   1.387   2.014
 5679SOL    HW218935   5.197   1.384   1.899
 5680SOL     OW18936   8.640   7.275   1.700
 5680SOL    HW118937   8.608   7.328   1.773
 5680SOL    HW218938   8.624   7.185   1.726
 5681SOL     OW18939   6.603   5.207   7.077
 5681SOL    HW118940   6.633   5.160   6.999
 5681SOL    HW218941   6.565   5.139   7.133
 5682SOL     OW18942  14.185   4.176  14.418
 5682SOL    HW118943  14.233   4.158  14.499
 5682SOL    HW218944  14.101   4.132  14.430
 5683SOL     OW18945  14.808   7.774  10.822
 5683SOL    HW118946  14.806   7.679  10.825
 5683SOL    HW218947  14.770   7.802  10.905
 5684SOL     OW18948  12.618   4.996  13.111
 5684SOL    HW118949  12.674   4.998  13.033
 5684SOL    HW218950  12.603   4.903  13.128
 5685SOL     OW18951   9.612   9.146  10.806
 5685SOL    HW118952   9.636   9.117  10.717
 5685SOL    HW218953   9.620   9.067  10.859
 5686SOL     OW18954   9.148   0.843   0.834
 5686SOL    HW118955   9.134   0.775   0.901
 5686SOL    HW218956   9.233   0.820   0.795
 5687SOL     OW18957   2.746   0.337   1.118
 5687SOL    HW118958   2.693   0.302   1.046
 5687SOL    HW218959   2.767   0.426   1.090
 5688SOL     OW18960   4.753   3.072   5.243
 5688SOL    HW118961   4.688   3.059   5.313
 5688SOL    HW218962   4.817   3.002   5.257
 5689SOL     OW18963   8.848  13.089   1.903
 5689SOL    HW118964   8.872  13.072   1.813
 5689SOL    HW218965   8.753  13.101   1.901
 5690SOL     OW18966  11.027   0.062   2.535
 5690SOL    HW118967  11.119   0.044   2.551
 5690SOL    HW218968  10.986  14.844   2.531
 5691SOL     OW18969   6.759   7.056   5.091
 5691SOL    HW118970   6.745   7.135   5.144
 5691SOL    HW218971   6.821   7.084   5.023
 5692SOL     OW18972   2.868   2.833  11.990
 5692SOL    HW118973   2.880   2.744  11.958
 5692SOL    HW218974   2.895   2.829  12.082
 5693SOL     OW18975   3.434  12.228  13.388
 5693SOL    HW118976   3.355  12.175  13.379
 5693SOL    HW218977   3.403  12.318  13.385
 5694SOL     OW18978   7.766   3.635  12.247
 5694SOL    HW118979   7.682   3.653  12.205
 5694SOL    HW218980   7.780   3.709  12.307
 5695SOL     OW18981   6.442  14.462   6.566
 5695SOL    HW118982   6.444  14.492   6.475
 5695SOL    HW218983   6.527  14.419   6.579
 5696SOL     OW18984  13.843   7.693   0.704
 5696SOL    HW118985  13.863   7.645   0.784
 5696SOL    HW218986  13.866   7.784   0.724
 5697SOL     OW18987  11.763  12.576  10.187
 5697SOL    HW118988  11.731  12.560  10.276
 5697SOL    HW218989  11.758  12.670  10.176
 5698SOL     OW18990   1.897  11.518  10.810
 5698SOL    HW118991   1.867  11.608  10.799
 5698SOL    HW218992   1.946  11.519  10.892
 5699SOL     OW18993   8.621  12.069  11.214
 5699SOL    HW118994   8.636  12.034  11.302
 5699SOL    HW218995   8.707  12.101  11.186
 5700SOL     OW18996  12.413  10.931   3.622
 5700SOL    HW118997  12.427  11.004   3.682
 5700SOL    HW218998  12.498  10.885   3.619
 5701SOL     OW18999   5.597   1.953  12.061
 5701SOL    HW119000   5.617   2.023  12.123
 5701SOL    HW219001   5.505   1.932  12.078
 5702SOL     OW19002   9.861   7.881   0.916
 5702SOL    HW119003   9.824   7.828   0.846
 5702SOL    HW219004   9.911   7.950   0.872
 5703SOL     OW19005   9.360   0.909   7.230
 5703SOL    HW119006   9.330   0.962   7.304
 5703SOL    HW219007   9.422   0.846   7.269
 5704SOL     OW19008   9.491  13.912  12.215
 5704SOL    HW119009   9.504  13.825  12.252
 5704SOL    HW219010   9.452  13.963  12.287
 5705SOL     OW19011  10.128   9.794   2.880
 5705SOL    HW119012  10.208   9.822   2.924
 5705SOL    HW219013  10.158   9.755   2.798
 5706SOL     OW19014   8.956  12.454   3.594
 5706SOL    HW119015   8.921  12.367   3.579
 5706SOL    HW219016   8.885  12.513   3.570
 5707SOL     OW19017   1.748   5.002  11.076
 5707SOL    HW119018   1.760   5.034  10.986
 5707SOL    HW219019   1.836   4.978  11.104
 5708SOL     OW19020  11.896   3.194   8.138
 5708SOL    HW119021  11.830   3.176   8.071
 5708SOL    HW219022  11.845   3.218   8.216
 5709SOL     OW19023  11.849   6.943   0.690
 5709SOL    HW119024  11.929   6.940   0.742
 5709SOL    HW219025  11.850   7.031   0.650
 5710SOL     OW19026  14.575  14.197   8.631
 5710SOL    HW119027  14.534  14.145   8.562
 5710SOL    HW219028  14.669  14.187   8.617
 5711SOL     OW19029   3.441   8.978  14.857
 5711SOL    HW119030   3.403   8.892   0.010
 5711SOL    HW219031   3.535   8.965  14.867
 5712SOL     OW19032  11.396  11.964   7.204
 5712SOL    HW119033  11.433  12.016   7.133
 5712SOL    HW219034  11.392  12.024   7.278
 5713SOL     OW19035   8.531   5.994   4.493
 5713SOL    HW119036   8.528   6.084   4.460
 5713SOL    HW219037   8.619   5.963   4.473
 5714SOL     OW19038  11.927   3.362   6.923
 5714SOL    HW119039  11.924   3.451   6.889
 5714SOL    HW219040  11.840   3.326   6.903
 5715SOL     OW19041  12.944   5.870   4.763
 5715SOL    HW119042  12.992   5.899   4.685
 5715SOL    HW219043  12.970   5.779   4.774
 5716SOL     OW19044   9.329   5.622  12.878
 5716SOL    HW119045   9.349   5.716  12.873
 5716SOL    HW219046   9.379   5.592  12.954
 5717SOL     OW19047   0.535  14.756   6.823
 5717SOL    HW119048   0.525  14.812   6.900
 5717SOL    HW219049   0.608  14.793   6.774
 5718SOL     OW19050   4.258   3.192   9.376
 5718SOL    HW119051   4.352   3.208   9.385
 5718SOL    HW219052   4.218   3.279   9.369
 5719SOL     OW19053   5.183   7.654  14.074
 5719SOL    HW119054   5.183   7.573  14.024
 5719SOL    HW219055   5.200   7.627  14.164
 5720SOL     OW19056   8.700  14.529   1.691
 5720SOL    HW119057   8.607  14.528   1.667
 5720SOL    HW219058   8.702  14.555   1.783
 5721SOL     OW19059   3.188   5.602  14.519
 5721SOL    HW119060   3.247   5.527  14.510
 5721SOL    HW219061   3.101   5.564  14.528
 5722SOL     OW19062  11.132  11.453   0.705
 5722SOL    HW119063  11.143  11.472   0.798
 5722SOL    HW219064  11.048  11.495   0.683
 5723SOL     OW19065   2.195   1.311   1.730
 5723SOL    HW119066   2.224   1.229   1.770
 5723SOL    HW219067   2.276   1.353   1.702
 5724SOL     OW19068   6.886   7.659   7.824
 5724SOL    HW119069   6.854   7.634   7.911
 5724SOL    HW219070   6.818   7.718   7.790
 5725SOL     OW19071   4.892   1.265  12.800
 5725SOL    HW119072   4.908   1.208  12.725
 5725SOL    HW219073   4.797   1.266  12.810
 5726SOL     OW19074   6.677   0.623   5.355
 5726SOL    HW119075   6.674   0.712   5.389
 5726SOL    HW219076   6.587   0.592   5.363
 5727SOL     OW19077  11.702   7.542   4.031
 5727SOL    HW119078  11.628   7.576   4.081
 5727SOL    HW219079  11.664   7.512   3.949
 5728SOL     OW19080   7.231   7.436  11.993
 5728SOL    HW119081   7.216   7.428  12.087
 5728SOL    HW219082   7.298   7.505  11.985
 5729SOL     OW19083   9.147  14.283   9.097
 5729SOL    HW119084   9.113  14.283   9.186
 5729SOL    HW219085   9.130  14.371   9.065
 5730SOL     OW19086   3.751  14.621   5.593
 5730SOL    HW119087   3.693  14.698   5.588
 5730SOL    HW219088   3.714  14.569   5.665
 5731SOL     OW19089   8.336   5.428   5.652
 5731SOL    HW119090   8.245   5.413   5.679
 5731SOL    HW219091   8.331   5.443   5.557
 5732SOL     OW19092  13.798   8.193   1.290
 5732SOL    HW119093  13.853   8.203   1.367
 5732SOL    HW219094  13.740   8.120   1.311
 5733SOL     OW19095   7.716   9.421   8.620
 5733SOL    HW119096   7.712   9.393   8.529
 5733SOL    HW219097   7.653   9.365   8.665
 5734SOL     OW19098   5.052   2.621  13.380
 5734SOL    HW119099   4.977   2.563  13.378
 5734SOL    HW219100   5.018   2.707  13.354
 5735SOL     OW19101  11.432   9.452   4.685
 5735SOL    HW119102  11.382   9.501   4.619
 5735SOL    HW219103  11.484   9.519   4.730
 5736SOL     OW19104   4.234   2.958   0.271
 5736SOL    HW119105   4.161   2.954   0.333
 5736SOL    HW219106   4.309   2.986   0.324
 5737SOL     OW19107   9.848   2.100   8.419
 5737SOL    HW119108   9.780   2.055   8.367
 5737SOL    HW219109   9.823   2.084   8.510
 5738SOL     OW19110   7.475  13.067   7.860
 5738SOL    HW119111   7.406  13.065   7.795
 5738SOL    HW219112   7.536  12.998   7.833
 5739SOL     OW19113   8.957  12.445   6.967
 5739SOL    HW119114   9.013  12.462   7.042
 5739SOL    HW219115   9.016  12.444   6.892
 5740SOL     OW19116  11.899   4.203   3.446
 5740SOL    HW119117  11.846   4.266   3.495
 5740SOL    HW219118  11.916   4.132   3.509
 5741SOL     OW19119   7.533   1.369   4.710
 5741SOL    HW119120   7.605   1.317   4.674
 5741SOL    HW219121   7.454   1.322   4.684
 5742SOL     OW19122   7.994   0.816  10.427
 5742SOL    HW119123   8.013   0.885  10.364
 5742SOL    HW219124   7.914   0.844  10.471
 5743SOL     OW19125   8.538  12.537  11.428
 5743SOL    HW119126   8.607  12.602  11.441
 5743SOL    HW219127   8.584  12.453  11.427
 5744SOL     OW19128  11.745   0.487   7.422
 5744SOL    HW119129  11.745   0.423   7.351
 5744SOL    HW219130  11.657   0.483   7.459
 5745SOL     OW19131   9.284   5.532   6.923
 5745SOL    HW119132   9.268   5.603   6.861
 5745SOL    HW219133   9.302   5.456   6.868
 5746SOL     OW19134   5.657   3.712   1.513
 5746SOL    HW119135   5.722   3.649   1.481
 5746SOL    HW219136   5.684   3.796   1.476
 5747SOL     OW19137   1.181   1.514   6.416
 5747SOL    HW119138   1.244   1.577   6.450
 5747SOL    HW219139   1.119   1.568   6.366
 5748SOL     OW19140   4.878   7.574  12.032
 5748SOL    HW119141   4.917   7.505  12.086
 5748SOL    HW219142   4.940   7.647  12.039
 5749SOL     OW19143  14.027  12.456   3.911
 5749SOL    HW119144  14.084  12.455   3.988
 5749SOL    HW219145  14.035  12.545   3.876
 5750SOL     OW19146   5.996   6.230   3.366
 5750SOL    HW119147   5.904   6.253   3.382
 5750SOL    HW219148   6.017   6.166   3.434
 5751SOL     OW19149   7.672  12.570   3.270
 5751SOL    HW119150   7.578  12.550   3.276
 5751SOL    HW219151   7.709  12.494   3.225
 5752SOL     OW19152   7.515   1.655   5.432
 5752SOL    HW119153   7.453   1.716   5.393
 5752SOL    HW219154   7.584   1.646   5.367
 5753SOL     OW19155  13.703   1.225   5.360
 5753SOL    HW119156  13.689   1.173   5.439
 5753SOL    HW219157  13.715   1.159   5.291
 5754SOL     OW19158   6.115  12.800   4.134
 5754SOL    HW119159   6.177  12.758   4.074
 5754SOL    HW219160   6.104  12.888   4.099
 5755SOL     OW19161   5.052  11.779  11.059
 5755SOL    HW119162   4.995  11.769  10.982
 5755SOL    HW219163   5.079  11.871  11.056
 5756SOL     OW19164   4.075   6.341  11.233
 5756SOL    HW119165   4.028   6.350  11.149
 5756SOL    HW219166   4.075   6.430  11.269
 5757SOL     OW19167  12.877  14.257  14.091
 5757SOL    HW119168  12.897  14.295  14.006
 5757SOL    HW219169  12.961  14.250  14.135
 5758SOL     OW19170   5.242   7.950   2.443
 5758SOL    HW119171   5.315   7.982   2.494
 5758SOL    HW219172   5.230   7.859   2.472
 5759SOL     OW19173   7.042   2.777  10.458
 5759SOL    HW119174   7.114   2.827  10.498
 5759SOL    HW219175   7.000   2.840  10.399
 5760SOL     OW19176  12.658   4.775   3.938
 5760SOL    HW119177  12.724   4.779   4.007
 5760SOL    HW219178  12.674   4.854   3.885
 5761SOL     OW19179   9.032  10.236  13.522
 5761SOL    HW119180   9.033  10.318  13.472
 5761SOL    HW219181   8.940  10.213  13.527
 5762SOL     OW19182  10.793   0.877   3.923
 5762SOL    HW119183  10.850   0.954   3.929
 5762SOL    HW219184  10.711   0.910   3.887
 5763SOL     OW19185  11.897  10.191  12.648
 5763SOL    HW119186  11.968  10.211  12.587
 5763SOL    HW219187  11.818  10.193  12.594
 5764SOL     OW19188   9.983  13.390  12.141
 5764SOL    HW119189   9.934  13.315  12.108
 5764SOL    HW219190   9.950  13.403  12.230
 5765SOL     OW19191   1.007   9.117   9.572
 5765SOL    HW119192   1.083   9.066   9.543
 5765SOL    HW219193   0.943   9.051   9.598
 5766SOL     OW19194   4.893   7.784   1.091
 5766SOL    HW119195   4.926   7.754   1.176
 5766SOL    HW219196   4.806   7.745   1.084
 5767SOL     OW19197   4.524   9.892  14.001
 5767SOL    HW119198   4.526   9.797  13.996
 5767SOL    HW219199   4.525   9.911  14.095
 5768SOL     OW19200   3.485   8.792   2.031
 5768SOL    HW119201   3.522   8.713   2.070
 5768SOL    HW219202   3.400   8.803   2.074
 5769SOL     OW19203  12.614  11.859   8.310
 5769SOL    HW119204  12.536  11.856   8.365
 5769SOL    HW219205  12.617  11.774   8.266
 5770SOL     OW19206   0.901   9.556  14.386
 5770SOL    HW119207   0.920   9.487  14.323
 5770SOL    HW219208   0.986   9.578  14.424
 5771SOL     OW19209   1.722   5.651   4.647
 5771SOL    HW119210   1.631   5.641   4.675
 5771SOL    HW219211   1.753   5.728   4.694
 5772SOL     OW19212   5.938   0.610   7.811
 5772SOL    HW119213   5.941   0.699   7.846
 5772SOL    HW219214   5.987   0.614   7.729
 5773SOL     OW19215   3.644   1.601  11.504
 5773SOL    HW119216   3.736   1.581  11.484
 5773SOL    HW219217   3.649   1.663  11.576
 5774SOL     OW19218  14.569  14.186  10.394
 5774SOL    HW119219  14.500  14.148  10.340
 5774SOL    HW219220  14.524  14.253  10.446
 5775SOL     OW19221  14.582   4.474   6.456
 5775SOL    HW119222  14.544   4.525   6.385
 5775SOL    HW219223  14.622   4.540   6.514
 5776SOL     OW19224   1.777  11.135  14.643
 5776SOL    HW119225   1.779  11.146  14.738
 5776SOL    HW219226   1.856  11.179  14.612
 5777SOL     OW19227   9.557   7.831  11.425
 5777SOL    HW119228   9.483   7.778  11.456
 5777SOL    HW219229   9.600   7.776  11.361
 5778SOL     OW19230  10.831   3.340   2.082
 5778SOL    HW119231  10.752   3.336   2.029
 5778SOL    HW219232  10.885   3.407   2.039
 5779SOL     OW19233  14.135   8.398  12.576
 5779SOL    HW119234  14.092   8.474  12.614
 5779SOL    HW219235  14.141   8.418  12.482
 5780SOL     OW19236  13.633  11.656   8.660
 5780SOL    HW119237  13.559  11.716   8.659
 5780SOL    HW219238  13.596  11.571   8.638
 5781SOL     OW19239   1.216  10.181   1.747
 5781SOL    HW119240   1.258  10.220   1.670
 5781SOL    HW219241   1.239  10.239   1.819
 5782SOL     OW19242   4.649   7.139  12.602
 5782SOL    HW119243   4.716   7.169  12.540
 5782SOL    HW219244   4.618   7.056  12.565
 5783SOL     OW19245   2.272  11.247   1.252
 5783SOL    HW119246   2.366  11.258   1.235
 5783SOL    HW219247   2.267  11.172   1.311
 5784SOL     OW19248  12.723   1.120  13.102
 5784SOL    HW119249  12.701   1.045  13.156
 5784SOL    HW219250  12.679   1.105  13.018
 5785SOL     OW19251   7.224   6.222   1.142
 5785SOL    HW119252   7.261   6.190   1.060
 5785SOL    HW219253   7.160   6.288   1.115
 5786SOL     OW19254  13.336   7.311   2.409
 5786SOL    HW119255  13.352   7.332   2.317
 5786SOL    HW219256  13.411   7.257   2.435
 5787SOL     OW19257   0.362   6.228   0.605
 5787SOL    HW119258   0.441   6.270   0.572
 5787SOL    HW219259   0.360   6.142   0.562
 5788SOL     OW19260   0.921   7.844   3.352
 5788SOL    HW119261   0.834   7.864   3.317
 5788SOL    HW219262   0.910   7.762   3.400
 5789SOL     OW19263   7.069  13.191  11.185
 5789SOL    HW119264   7.119  13.178  11.265
 5789SOL    HW219265   7.037  13.281  11.191
 5790SOL     OW19266  12.403   1.720  11.185
 5790SOL    HW119267  12.426   1.710  11.093
 5790SOL    HW219268  12.308   1.718  11.187
 5791SOL     OW19269   5.493   4.337   0.150
 5791SOL    HW119270   5.564   4.401   0.157
 5791SOL    HW219271   5.519   4.265   0.207
 5792SOL     OW19272  13.076   1.965   2.167
 5792SOL    HW119273  13.051   1.876   2.144
 5792SOL    HW219274  13.123   1.956   2.250
 5793SOL     OW19275  10.611   8.505   1.732
 5793SOL    HW119276  10.526   8.533   1.699
 5793SOL    HW219277  10.615   8.412   1.714
 5794SOL     OW19278   2.049  13.238  10.118
 5794SOL    HW119279   2.102  13.303  10.165
 5794SOL    HW219280   2.059  13.158  10.169
 5795SOL     OW19281  11.054   6.006   5.242
 5795SOL    HW119282  10.993   6.008   5.315
 5795SOL    HW219283  10.998   6.007   5.164
 5796SOL     OW19284  13.573  12.572   5.542
 5796SOL    HW119285  13.600  12.556   5.451
 5796SOL    HW219286  13.481  12.544   5.545
 5797SOL     OW19287   2.791   9.704  11.211
 5797SOL    HW119288   2.725   9.773  11.204
 5797SOL    HW219289   2.751   9.629  11.168
 5798SOL     OW19290   7.662  13.446  14.005
 5798SOL    HW119291   7.590  13.389  14.032
 5798SOL    HW219292   7.688  13.491  14.086
 5799SOL     OW19293   6.490  14.488   3.013
 5799SOL    HW119294   6.415  14.516   2.960
 5799SOL    HW219295   6.487  14.543   3.091
 5800SOL     OW19296   2.338   3.680   0.332
 5800SOL    HW119297   2.284   3.694   0.255
 5800SOL    HW219298   2.405   3.617   0.304
 5801SOL     OW19299  12.184   4.950   7.768
 5801SOL    HW119300  12.158   4.910   7.851
 5801SOL    HW219301  12.233   5.028   7.794
 5802SOL     OW19302   6.768   8.288  12.118
 5802SOL    HW119303   6.818   8.344  12.057
 5802SOL    HW219304   6.809   8.202  12.110
 5803SOL     OW19305   6.991  10.925   8.981
 5803SOL    HW119306   6.967  10.987   8.912
 5803SOL    HW219307   6.992  10.977   9.061
 5804SOL     OW19308  10.080   3.840  12.311
 5804SOL    HW119309  10.019   3.791  12.366
 5804SOL    HW219310  10.104   3.916  12.364
 5805SOL     OW19311  10.687   4.242   2.718
 5805SOL    HW119312  10.607   4.258   2.768
 5805SOL    HW219313  10.731   4.172   2.766
 5806SOL     OW19314   4.811   8.177   5.925
 5806SOL    HW119315   4.846   8.145   6.008
 5806SOL    HW219316   4.856   8.261   5.911
 5807SOL     OW19317  10.485  11.719   0.624
 5807SOL    HW119318  10.393  11.701   0.642
 5807SOL    HW219319  10.486  11.806   0.584
 5808SOL     OW19320   4.114   2.175  10.977
 5808SOL    HW119321   4.079   2.086  10.968
 5808SOL    HW219322   4.204   2.168  10.945
 5809SOL     OW19323   6.575  11.305   0.659
 5809SOL    HW119324   6.505  11.246   0.630
 5809SOL    HW219325   6.553  11.324   0.750
 5810SOL     OW19326  12.908   8.870   5.921
 5810SOL    HW119327  12.951   8.887   6.005
 5810SOL    HW219328  12.883   8.957   5.889
 5811SOL     OW19329   4.388   3.709  11.567
 5811SOL    HW119330   4.357   3.742  11.652
 5811SOL    HW219331   4.386   3.614  11.577
 5812SOL     OW19332   2.310  14.776   5.751
 5812SOL    HW119333   2.266  14.850   5.709
 5812SOL    HW219334   2.279  14.699   5.702
 5813SOL     OW19335  10.629  13.103  12.402
 5813SOL    HW119336  10.559  13.104  12.337
 5813SOL    HW219337  10.667  13.015  12.396
 5814SOL     OW19338  11.460  10.146  12.032
 5814SOL    HW119339  11.405  10.142  12.110
 5814SOL    HW219340  11.469  10.055  12.003
 5815SOL     OW19341   1.552   6.005   5.023
 5815SOL    HW119342   1.561   6.027   4.930
 5815SOL    HW219343   1.636   6.029   5.061
 5816SOL     OW19344  14.831  13.019  12.224
 5816SOL    HW119345  14.744  13.047  12.199
 5816SOL    HW219346  14.829  12.924  12.216
 5817SOL     OW19347   8.625  12.255   5.994
 5817SOL    HW119348   8.687  12.193   6.033
 5817SOL    HW219349   8.633  12.242   5.900
 5818SOL     OW19350   3.587   5.761  13.628
 5818SOL    HW119351   3.626   5.685  13.586
 5818SOL    HW219352   3.639   5.835  13.597
 5819SOL     OW19353   7.516   2.150   1.684
 5819SOL    HW119354   7.543   2.143   1.775
 5819SOL    HW219355   7.497   2.059   1.658
 5820SOL     OW19356   0.371   2.436   4.833
 5820SOL    HW119357   0.319   2.505   4.792
 5820SOL    HW219358   0.445   2.422   4.774
 5821SOL     OW19359   2.689   4.522  13.539
 5821SOL    HW119360   2.782   4.509  13.522
 5821SOL    HW219361   2.645   4.461  13.481
 5822SOL     OW19362   4.426   1.864   8.964
 5822SOL    HW119363   4.416   1.819   9.048
 5822SOL    HW219364   4.364   1.937   8.968
 5823SOL     OW19365   9.166  11.886   7.851
 5823SOL    HW119366   9.199  11.813   7.903
 5823SOL    HW219367   9.095  11.923   7.903
 5824SOL     OW19368   2.106  14.364  13.433
 5824SOL    HW119369   2.074  14.399  13.517
 5824SOL    HW219370   2.126  14.441  13.381
 5825SOL     OW19371  13.224  14.344   0.935
 5825SOL    HW119372  13.282  14.411   0.973
 5825SOL    HW219373  13.217  14.278   1.003
 5826SOL     OW19374  12.275   6.550   3.558
 5826SOL    HW119375  12.252   6.601   3.635
 5826SOL    HW219376  12.371   6.546   3.558
 5827SOL     OW19377   9.936  11.438   7.336
 5827SOL    HW119378   9.870  11.451   7.269
 5827SOL    HW219379   9.906  11.362   7.385
 5828SOL     OW19380   5.904   6.524   1.063
 5828SOL    HW119381   5.838   6.474   1.016
 5828SOL    HW219382   5.983   6.470   1.058
 5829SOL     OW19383   0.597  14.015   3.494
 5829SOL    HW119384   0.503  14.004   3.480
 5829SOL    HW219385   0.634  14.015   3.405
 5830SOL     OW19386   5.190   9.541  14.706
 5830SOL    HW119387   5.095   9.551  14.702
 5830SOL    HW219388   5.203   9.463  14.761
 5831SOL     OW19389   3.645   9.306   0.389
 5831SOL    HW119390   3.625   9.388   0.435
 5831SOL    HW219391   3.731   9.280   0.422
 5832SOL     OW19392  13.148   8.894   2.608
 5832SOL    HW119393  13.171   8.938   2.526
 5832SOL    HW219394  13.226   8.842   2.630
 5833SOL     OW19395   7.964   3.452   9.014
 5833SOL    HW119396   8.003   3.533   8.983
 5833SOL    HW219397   7.991   3.386   8.950
 5834SOL     OW19398  10.899   8.416   7.306
 5834SOL    HW119399  10.821   8.362   7.318
 5834SOL    HW219400  10.952   8.398   7.383
 5835SOL     OW19401   9.101   5.475   3.831
 5835SOL    HW119402   9.025   5.527   3.805
 5835SOL    HW219403   9.097   5.472   3.926
 5836SOL     OW19404   1.947  14.118  13.322
 5836SOL    HW119405   1.994  14.189  13.366
 5836SOL    HW219406   2.001  14.098  13.245
 5837SOL     OW19407   5.478   9.571   7.451
 5837SOL    HW119408   5.472   9.475   7.446
 5837SOL    HW219409   5.543   9.593   7.384
 5838SOL     OW19410   7.684   3.166   9.292
 5838SOL    HW119411   7.767   3.203   9.261
 5838SOL    HW219412   7.637   3.142   9.212
 5839SOL     OW19413   7.257   0.411  11.756
 5839SOL    HW119414   7.330   0.471  11.769
 5839SOL    HW219415   7.235   0.381  11.845
 5840SOL     OW19416  10.408   3.442   0.165
 5840SOL    HW119417  10.455   3.520   0.136
 5840SOL    HW219418  10.442   3.372   0.109
 5841SOL     OW19419  11.266   2.302   1.423
 5841SOL    HW119420  11.219   2.366   1.476
 5841SOL    HW219421  11.198   2.256   1.376
 5842SOL     OW19422  13.372   8.560   2.185
 5842SOL    HW119423  13.349   8.566   2.278
 5842SOL    HW219424  13.419   8.641   2.166
 5843SOL     OW19425  12.879  14.796  11.998
 5843SOL    HW119426  12.923  14.733  11.941
 5843SOL    HW219427  12.862  14.748  12.079
 5844SOL     OW19428  10.100  10.489   5.055
 5844SOL    HW119429  10.172  10.525   5.107
 5844SOL    HW219430  10.022  10.531   5.091
 5845SOL     OW19431   6.820   6.520   9.120
 5845SOL    HW119432   6.741   6.572   9.106
 5845SOL    HW219433   6.868   6.568   9.188
 5846SOL     OW19434  11.818  11.611   0.183
 5846SOL    HW119435  11.831  11.530   0.231
 5846SOL    HW219436  11.725  11.609   0.158
 5847SOL     OW19437  11.667   7.385   8.398
 5847SOL    HW119438  11.649   7.418   8.310
 5847SOL    HW219439  11.630   7.297   8.398
 5848SOL     OW19440   2.865  11.987  11.571
 5848SOL    HW119441   2.857  11.998  11.666
 5848SOL    HW219442   2.856  12.075  11.536
 5849SOL     OW19443   7.670  12.016   9.893
 5849SOL    HW119444   7.758  11.979   9.886
 5849SOL    HW219445   7.613  11.941   9.907
 5850SOL     OW19446   1.102   3.440  13.105
 5850SOL    HW119447   1.187   3.420  13.143
 5850SOL    HW219448   1.121   3.465  13.015
 5851SOL     OW19449   1.068   9.953  11.105
 5851SOL    HW119450   1.096   9.866  11.134
 5851SOL    HW219451   0.973   9.952  11.117
 5852SOL     OW19452   5.439   6.488   1.730
 5852SOL    HW119453   5.370   6.541   1.769
 5852SOL    HW219454   5.503   6.551   1.697
 5853SOL     OW19455  14.001   6.665   2.866
 5853SOL    HW119456  14.084   6.686   2.907
 5853SOL    HW219457  13.971   6.586   2.910
 5854SOL     OW19458  12.407   7.753   1.586
 5854SOL    HW119459  12.364   7.739   1.501
 5854SOL    HW219460  12.343   7.803   1.637
 5855SOL     OW19461  13.436  11.845   3.575
 5855SOL    HW119462  13.388  11.763   3.573
 5855SOL    HW219463  13.373  11.911   3.545
 5856SOL     OW19464   1.669  10.986   2.887
 5856SOL    HW119465   1.612  10.927   2.838
 5856SOL    HW219466   1.730  10.928   2.933
 5857SOL     OW19467  11.397   3.509   2.505
 5857SOL    HW119468  11.336   3.463   2.447
 5857SOL    HW219469  11.380   3.470   2.591
 5858SOL     OW19470   8.909   5.248   1.086
 5858SOL    HW119471   8.968   5.306   1.037
 5858SOL    HW219472   8.948   5.243   1.173
 5859SOL     OW19473   8.249   0.760   4.913
 5859SOL    HW119474   8.258   0.847   4.950
 5859SOL    HW219475   8.247   0.774   4.818
 5860SOL     OW19476  10.687   0.443   4.207
 5860SOL    HW119477  10.770   0.490   4.208
 5860SOL    HW219478  10.662   0.439   4.115
 5861SOL     OW19479  13.517   3.593   9.978
 5861SOL    HW119480  13.515   3.567  10.070
 5861SOL    HW219481  13.601   3.562   9.946
 5862SOL     OW19482   8.370   3.258   5.424
 5862SOL    HW119483   8.374   3.204   5.345
 5862SOL    HW219484   8.367   3.348   5.392
 5863SOL     OW19485   3.883   7.424   1.872
 5863SOL    HW119486   3.830   7.390   1.945
 5863SOL    HW219487   3.884   7.352   1.809
 5864SOL     OW19488   1.945  11.654   0.881
 5864SOL    HW119489   1.930  11.559   0.884
 5864SOL    HW219490   1.920  11.684   0.969
 5865SOL     OW19491   1.627  13.753   0.503
 5865SOL    HW119492   1.719  13.761   0.478
 5865SOL    HW219493   1.605  13.662   0.482
 5866SOL     OW19494   4.185   3.445   5.269
 5866SOL    HW119495   4.213   3.377   5.331
 5866SOL    HW219496   4.108   3.408   5.225
 5867SOL     OW19497   3.621   2.600  11.077
 5867SOL    HW119498   3.643   2.613  10.984
 5867SOL    HW219499   3.679   2.530  11.106
 5868SOL     OW19500   9.118   9.702   9.238
 5868SOL    HW119501   9.151   9.677   9.151
 5868SOL    HW219502   9.069   9.783   9.223
 5869SOL     OW19503   2.325   1.956   9.548
 5869SOL    HW119504   2.353   2.041   9.513
 5869SOL    HW219505   2.231   1.952   9.528
 5870SOL     OW19506   9.315   0.501   7.733
 5870SOL    HW119507   9.265   0.549   7.666
 5870SOL    HW219508   9.266   0.420   7.745
 5871SOL     OW19509   0.196   5.917  13.749
 5871SOL    HW119510   0.177   6.003  13.785
 5871SOL    HW219511   0.123   5.901  13.688
 5872SOL     OW19512   0.345   6.528   1.411
 5872SOL    HW119513   0.383   6.485   1.487
 5872SOL    HW219514   0.291   6.461   1.370
 5873SOL     OW19515  12.821   5.195   0.593
 5873SOL    HW119516  12.767   5.136   0.540
 5873SOL    HW219517  12.811   5.281   0.553
 5874SOL     OW19518   9.746   9.936  14.410
 5874SOL    HW119519   9.783   9.899  14.330
 5874SOL    HW219520   9.712  10.021  14.384
 5875SOL     OW19521   1.463   5.964   1.363
 5875SOL    HW119522   1.541   6.018   1.375
 5875SOL    HW219523   1.459   5.947   1.269
 5876SOL     OW19524  14.741   4.121  14.133
 5876SOL    HW119525  14.653   4.158  14.138
 5876SOL    HW219526  14.729   4.029  14.156
 5877SOL     OW19527  11.671   7.595  13.223
 5877SOL    HW119528  11.690   7.689  13.222
 5877SOL    HW219529  11.596   7.586  13.281
 5878SOL     OW19530   6.805   5.439   9.247
 5878SOL    HW119531   6.808   5.478   9.335
 5878SOL    HW219532   6.786   5.513   9.189
 5879SOL     OW19533   3.721   9.521  14.658
 5879SOL    HW119534   3.800   9.477  14.690
 5879SOL    HW219535   3.674   9.546  14.738
 5880SOL     OW19536   8.152   8.784   9.665
 5880SOL    HW119537   8.056   8.783   9.665
 5880SOL    HW219538   8.175   8.859   9.720
 5881SOL     OW19539   8.804  12.651   2.514
 5881SOL    HW119540   8.844  12.564   2.523
 5881SOL    HW219541   8.710  12.635   2.521
 5882SOL     OW19542   1.416   2.618   4.465
 5882SOL    HW119543   1.452   2.697   4.427
 5882SOL    HW219544   1.369   2.575   4.393
 5883SOL     OW19545   1.895  12.778   7.333
 5883SOL    HW119546   1.961  12.822   7.279
 5883SOL    HW219547   1.893  12.688   7.301
 5884SOL     OW19548   1.697   8.948   6.582
 5884SOL    HW119549   1.733   8.865   6.550
 5884SOL    HW219550   1.667   8.928   6.671
 5885SOL     OW19551   5.096   4.543   3.949
 5885SOL    HW119552   5.116   4.551   4.042
 5885SOL    HW219553   5.121   4.628   3.912
 5886SOL     OW19554   8.869   4.568  10.854
 5886SOL    HW119555   8.955   4.596  10.822
 5886SOL    HW219556   8.875   4.472  10.858
 5887SOL     OW19557  14.759  14.042   8.870
 5887SOL    HW119558  14.667  14.066   8.878
 5887SOL    HW219559  14.798  14.067   8.954
 5888SOL     OW19560   1.636   4.139  14.352
 5888SOL    HW119561   1.647   4.071  14.418
 5888SOL    HW219562   1.725   4.172  14.337
 5889SOL     OW19563  13.940   2.014  13.516
 5889SOL    HW119564  13.848   2.017  13.541
 5889SOL    HW219565  13.943   2.057  13.430
 5890SOL     OW19566  11.559  10.594   6.965
 5890SOL    HW119567  11.603  10.538   6.901
 5890SOL    HW219568  11.582  10.556   7.050
 5891SOL     OW19569  13.513  10.093   7.241
 5891SOL    HW119570  13.600  10.122   7.211
 5891SOL    HW219571  13.507  10.002   7.212
 5892SOL     OW19572   1.950  14.605   6.141
 5892SOL    HW119573   2.017  14.654   6.094
 5892SOL    HW219574   1.966  14.625   6.233
 5893SOL     OW19575   5.288  12.269  11.771
 5893SOL    HW119576   5.231  12.274  11.848
 5893SOL    HW219577   5.374  12.298  11.803
 5894SOL     OW19578   1.934  10.846   1.311
 5894SOL    HW119579   1.916  10.788   1.236
 5894SOL    HW219580   2.013  10.810   1.351
 5895SOL     OW19581   1.827  11.761  10.729
 5895SOL    HW119582   1.850  11.801  10.645
 5895SOL    HW219583   1.756  11.815  10.763
 5896SOL     OW19584   7.178  12.023   1.468
 5896SOL    HW119585   7.099  11.970   1.469
 5896SOL    HW219586   7.192  12.048   1.560
 5897SOL     OW19587   6.230   1.489  14.437
 5897SOL    HW119588   6.230   1.401  14.400
 5897SOL    HW219589   6.170   1.539  14.383
 5898SOL     OW19590  11.696   2.662  13.487
 5898SOL    HW119591  11.652   2.619  13.561
 5898SOL    HW219592  11.788   2.641  13.497
 5899SOL     OW19593   4.226   5.208   6.242
 5899SOL    HW119594   4.140   5.167   6.253
 5899SOL    HW219595   4.266   5.205   6.329
 5900SOL     OW19596   9.187   0.782   8.708
 5900SOL    HW119597   9.271   0.762   8.750
 5900SOL    HW219598   9.127   0.717   8.743
 5901SOL     OW19599   0.859   9.693   6.966
 5901SOL    HW119600   0.818   9.748   6.899
 5901SOL    HW219601   0.944   9.669   6.928
 5902SOL     OW19602  10.306   5.502   3.327
 5902SOL    HW119603  10.260   5.538   3.403
 5902SOL    HW219604  10.352   5.425   3.360
 5903SOL     OW19605   6.672   5.459   8.066
 5903SOL    HW119606   6.680   5.469   8.161
 5903SOL    HW219607   6.580   5.475   8.048
 5904SOL     OW19608   8.959   0.388   5.403
 5904SOL    HW119609   8.984   0.336   5.326
 5904SOL    HW219610   8.924   0.469   5.367
 5905SOL     OW19611   3.246  10.101  10.588
 5905SOL    HW119612   3.247  10.196  10.591
 5905SOL    HW219613   3.221  10.080  10.497
 5906SOL     OW19614   9.192   3.599  10.867
 5906SOL    HW119615   9.197   3.596  10.771
 5906SOL    HW219616   9.111   3.646  10.885
 5907SOL     OW19617  14.507  13.761   2.371
 5907SOL    HW119618  14.551  13.845   2.378
 5907SOL    HW219619  14.440  13.763   2.440
 5908SOL     OW19620  12.732   1.829   5.068
 5908SOL    HW119621  12.679   1.858   5.142
 5908SOL    HW219622  12.768   1.910   5.032
 5909SOL     OW19623   9.223   8.254  11.114
 5909SOL    HW119624   9.292   8.191  11.131
 5909SOL    HW219625   9.164   8.246  11.189
 5910SOL     OW19626   7.299   0.425  13.651
 5910SOL    HW119627   7.304   0.333  13.625
 5910SOL    HW219628   7.387   0.445  13.683
 5911SOL     OW19629   1.648   4.449   7.439
 5911SOL    HW119630   1.690   4.431   7.355
 5911SOL    HW219631   1.632   4.543   7.439
 5912SOL     OW19632   0.516   4.499   6.522
 5912SOL    HW119633   0.457   4.436   6.564
 5912SOL    HW219634   0.597   4.450   6.509
 5913SOL     OW19635   2.479   3.171   1.893
 5913SOL    HW119636   2.463   3.236   1.962
 5913SOL    HW219637   2.392   3.152   1.857
 5914SOL     OW19638   8.664  13.056   0.692
 5914SOL    HW119639   8.607  13.123   0.654
 5914SOL    HW219640   8.720  13.029   0.620
 5915SOL     OW19641   9.332   1.966   2.875
 5915SOL    HW119642   9.420   2.000   2.857
 5915SOL    HW219643   9.272   2.031   2.840
 5916SOL     OW19644   4.114   2.408   2.219
 5916SOL    HW119645   4.137   2.370   2.303
 5916SOL    HW219646   4.123   2.336   2.157
 5917SOL     OW19647  12.317   2.729  11.727
 5917SOL    HW119648  12.262   2.775  11.665
 5917SOL    HW219649  12.301   2.636  11.709
 5918SOL     OW19650  10.221  13.014  10.195
 5918SOL    HW119651  10.300  13.058  10.164
 5918SOL    HW219652  10.227  12.925  10.160
 5919SOL     OW19653   2.380  11.906  13.657
 5919SOL    HW119654   2.411  11.969  13.721
 5919SOL    HW219655   2.416  11.822  13.686
 5920SOL     OW19656   7.730  10.346   3.143
 5920SOL    HW119657   7.796  10.366   3.210
 5920SOL    HW219658   7.761  10.391   3.065
 5921SOL     OW19659   8.306  12.827   6.310
 5921SOL    HW119660   8.298  12.774   6.231
 5921SOL    HW219661   8.322  12.764   6.380
 5922SOL     OW19662   1.230  11.267   4.130
 5922SOL    HW119663   1.313  11.221   4.124
 5922SOL    HW219664   1.210  11.269   4.223
 5923SOL     OW19665   7.228   8.616  12.794
 5923SOL    HW119666   7.317   8.582  12.790
 5923SOL    HW219667   7.238   8.706  12.827
 5924SOL     OW19668   9.134  10.781   9.717
 5924SOL    HW119669   9.116  10.875   9.715
 5924SOL    HW219670   9.158  10.763   9.808
 5925SOL     OW19671   3.771  11.197  11.900
 5925SOL    HW119672   3.860  11.209  11.868
 5925SOL    HW219673   3.781  11.195  11.996
 5926SOL     OW19674   7.192  11.271   0.316
 5926SOL    HW119675   7.233  11.237   0.395
 5926SOL    HW219676   7.238  11.353   0.297
 5927SOL     OW19677   0.806   3.201   2.790
 5927SOL    HW119678   0.832   3.141   2.720
 5927SOL    HW219679   0.846   3.285   2.766
 5928SOL     OW19680  10.873  14.193  10.453
 5928SOL    HW119681  10.811  14.120  10.457
 5928SOL    HW219682  10.898  14.197  10.361
 5929SOL     OW19683   6.805   5.870   3.729
 5929SOL    HW119684   6.798   5.960   3.761
 5929SOL    HW219685   6.780   5.876   3.637
 5930SOL     OW19686  10.727   4.458  11.112
 5930SOL    HW119687  10.728   4.404  11.191
 5930SOL    HW219688  10.805   4.512  11.119
 5931SOL     OW19689   7.896  14.643   7.751
 5931SOL    HW119690   7.987  14.672   7.755
 5931SOL    HW219691   7.861  14.660   7.838
 5932SOL     OW19692  13.540  13.576  13.712
 5932SOL    HW119693  13.604  13.511  13.681
 5932SOL    HW219694  13.455  13.538  13.689
 5933SOL     OW19695   1.661   6.855   4.435
 5933SOL    HW119696   1.635   6.920   4.501
 5933SOL    HW219697   1.689   6.908   4.360
 5934SOL     OW19698   8.115   4.759   2.955
 5934SOL    HW119699   8.174   4.686   2.976
 5934SOL    HW219700   8.034   4.738   3.002
 5935SOL     OW19701  14.307   5.929   4.780
 5935SOL    HW119702  14.249   5.860   4.748
 5935SOL    HW219703  14.253   5.981   4.839
 5936SOL     OW19704   3.414   0.094   8.595
 5936SOL    HW119705   3.382   0.076   8.507
 5936SOL    HW219706   3.409   0.010   8.641
 5937SOL     OW19707  13.404   2.938   7.261
 5937SOL    HW119708  13.435   2.924   7.172
 5937SOL    HW219709  13.453   2.874   7.314
 5938SOL     OW19710   2.754   1.917   9.355
 5938SOL    HW119711   2.702   1.874   9.423
 5938SOL    HW219712   2.807   1.981   9.403
 5939SOL     OW19713   3.779   0.745   8.286
 5939SOL    HW119714   3.732   0.828   8.297
 5939SOL    HW219715   3.740   0.705   8.209
 5940SOL     OW19716   0.259   8.970   1.105
 5940SOL    HW119717   0.256   8.876   1.088
 5940SOL    HW219718   0.202   8.982   1.181
 5941SOL     OW19719   9.238   3.580   2.094
 5941SOL    HW119720   9.244   3.493   2.054
 5941SOL    HW219721   9.222   3.639   2.020
 5942SOL     OW19722   5.860   1.668   0.859
 5942SOL    HW119723   5.809   1.747   0.842
 5942SOL    HW219724   5.806   1.617   0.919
 5943SOL     OW19725  12.718   6.578   8.614
 5943SOL    HW119726  12.640   6.621   8.650
 5943SOL    HW219727  12.700   6.485   8.621
 5944SOL     OW19728   6.289   5.283   5.604
 5944SOL    HW119729   6.343   5.238   5.669
 5944SOL    HW219730   6.330   5.263   5.521
 5945SOL     OW19731  12.466   0.193  13.283
 5945SOL    HW119732  12.404   0.190  13.356
 5945SOL    HW219733  12.481   0.102  13.261
 5946SOL     OW19734  10.620   4.102   0.714
 5946SOL    HW119735  10.702   4.085   0.667
 5946SOL    HW219736  10.553   4.064   0.658
 5947SOL     OW19737  11.709   9.640  11.854
 5947SOL    HW119738  11.753   9.700  11.794
 5947SOL    HW219739  11.781   9.603  11.906
 5948SOL     OW19740  10.490   2.689   5.664
 5948SOL    HW119741  10.508   2.713   5.573
 5948SOL    HW219742  10.492   2.593   5.665
 5949SOL     OW19743   0.291  11.114  14.056
 5949SOL    HW119744   0.213  11.059  14.051
 5949SOL    HW219745   0.258  11.200  14.082
 5950SOL     OW19746   5.676   2.527  10.178
 5950SOL    HW119747   5.719   2.513  10.262
 5950SOL    HW219748   5.735   2.585  10.130
 5951SOL     OW19749  14.314  12.602   9.562
 5951SOL    HW119750  14.250  12.645   9.505
 5951SOL    HW219751  14.275  12.606   9.650
 5952SOL     OW19752   3.660   7.157  14.688
 5952SOL    HW119753   3.611   7.077  14.668
 5952SOL    HW219754   3.695   7.185  14.604
 5953SOL     OW19755  12.257   7.741   4.018
 5953SOL    HW119756  12.308   7.817   3.990
 5953SOL    HW219757  12.169   7.759   3.986
 5954SOL     OW19758  12.334   4.980  10.490
 5954SOL    HW119759  12.315   5.020  10.405
 5954SOL    HW219760  12.291   5.036  10.553
 5955SOL     OW19761   8.521  13.471  12.306
 5955SOL    HW119762   8.601  13.519  12.327
 5955SOL    HW219763   8.469  13.475  12.386
 5956SOL     OW19764  14.669   1.901   1.593
 5956SOL    HW119765  14.656   1.810   1.565
 5956SOL    HW219766  14.588   1.924   1.637
 5957SOL     OW19767  12.180  12.609   9.864
 5957SOL    HW119768  12.115  12.630   9.931
 5957SOL    HW219769  12.255  12.665   9.885
 5958SOL     OW19770   1.029   0.947   4.975
 5958SOL    HW119771   1.033   0.973   5.067
 5958SOL    HW219772   0.971   0.870   4.975
 5959SOL     OW19773  11.734  12.713  11.087
 5959SOL    HW119774  11.699  12.764  11.160
 5959SOL    HW219775  11.674  12.640  11.077
 5960SOL     OW19776   1.909   8.026   2.129
 5960SOL    HW119777   1.816   8.030   2.107
 5960SOL    HW219778   1.940   8.115   2.116
 5961SOL     OW19779  12.445  13.440   5.468
 5961SOL    HW119780  12.439  13.394   5.385
 5961SOL    HW219781  12.435  13.532   5.446
 5962SOL     OW19782  13.604   5.517   6.105
 5962SOL    HW119783  13.608   5.600   6.057
 5962SOL    HW219784  13.536   5.531   6.171
 5963SOL     OW19785   9.550   1.896   8.520
 5963SOL    HW119786   9.548   1.893   8.425
 5963SOL    HW219787   9.530   1.806   8.548
 5964SOL     OW19788   6.696  12.319   4.645
 5964SOL    HW119789   6.742  12.291   4.724
 5964SOL    HW219790   6.762  12.320   4.577
 5965SOL     OW19791  12.552  12.955   5.544
 5965SOL    HW119792  12.529  12.971   5.635
 5965SOL    HW219793  12.595  13.036   5.516
 5966SOL     OW19794  11.207   7.126   9.140
 5966SOL    HW119795  11.147   7.082   9.079
 5966SOL    HW219796  11.257   7.055   9.179
 5967SOL     OW19797   1.839  13.527   7.631
 5967SOL    HW119798   1.914  13.516   7.690
 5967SOL    HW219799   1.803  13.439   7.621
 5968SOL     OW19800   0.627   9.569  14.392
 5968SOL    HW119801   0.721   9.554  14.405
 5968SOL    HW219802   0.622   9.631  14.319
 5969SOL     OW19803   2.448  11.344  13.869
 5969SOL    HW119804   2.439  11.295  13.787
 5969SOL    HW219805   2.516  11.298  13.917
 5970SOL     OW19806   2.897  10.109   9.673
 5970SOL    HW119807   2.802  10.109   9.682
 5970SOL    HW219808   2.916  10.180   9.611
 5971SOL     OW19809  10.111  14.855  10.313
 5971SOL    HW119810  10.080  14.796  10.245
 5971SOL    HW219811  10.089  14.810  10.395
 5972SOL     OW19812   4.154   5.645  14.038
 5972SOL    HW119813   4.179   5.725  14.084
 5972SOL    HW219814   4.193   5.575  14.089
 5973SOL     OW19815   6.359   3.745   6.878
 5973SOL    HW119816   6.302   3.811   6.836
 5973SOL    HW219817   6.317   3.727   6.962
 5974SOL     OW19818  13.318  14.481   0.694
 5974SOL    HW119819  13.292  14.446   0.779
 5974SOL    HW219820  13.400  14.528   0.712
 5975SOL     OW19821   6.472   8.278   8.555
 5975SOL    HW119822   6.473   8.213   8.485
 5975SOL    HW219823   6.506   8.232   8.632
 5976SOL     OW19824   2.064  14.421   3.841
 5976SOL    HW119825   2.124  14.347   3.831
 5976SOL    HW219826   2.114  14.485   3.892
 5977SOL     OW19827   9.913   2.929   5.802
 5977SOL    HW119828   9.841   2.870   5.821
 5977SOL    HW219829   9.871   3.013   5.782
 5978SOL     OW19830   5.261   4.951   6.953
 5978SOL    HW119831   5.291   5.042   6.946
 5978SOL    HW219832   5.209   4.936   6.874
 5979SOL     OW19833   0.989   8.156  11.049
 5979SOL    HW119834   1.035   8.096  10.990
 5979SOL    HW219835   0.973   8.234  10.996
 5980SOL     OW19836   9.091  12.539  12.052
 5980SOL    HW119837   9.069  12.533  12.145
 5980SOL    HW219838   9.038  12.611  12.019
 5981SOL     OW19839   2.085   1.309   2.689
 5981SOL    HW119840   2.001   1.351   2.668
 5981SOL    HW219841   2.113   1.269   2.607
 5982SOL     OW19842   4.456   1.568   1.890
 5982SOL    HW119843   4.395   1.623   1.843
 5982SOL    HW219844   4.401   1.503   1.933
 5983SOL     OW19845   7.080   5.879   7.403
 5983SOL    HW119846   7.065   5.795   7.360
 5983SOL    HW219847   7.040   5.944   7.345
 5984SOL     OW19848   7.655   4.755   9.334
 5984SOL    HW119849   7.730   4.811   9.356
 5984SOL    HW219850   7.694   4.670   9.312
 5985SOL     OW19851   6.601  14.490   0.040
 5985SOL    HW119852   6.610  14.455   0.129
 5985SOL    HW219853   6.560  14.575   0.051
 5986SOL     OW19854   9.197   9.110  13.290
 5986SOL    HW119855   9.203   9.205  13.298
 5986SOL    HW219856   9.178   9.095  13.198
 5987SOL     OW19857  12.269   5.895   1.172
 5987SOL    HW119858  12.183   5.901   1.213
 5987SOL    HW219859  12.327   5.866   1.242
 5988SOL     OW19860   0.347  13.893  13.353
 5988SOL    HW119861   0.357  13.918  13.445
 5988SOL    HW219862   0.433  13.910  13.314
 5989SOL     OW19863   3.516   1.015   4.342
 5989SOL    HW119864   3.598   1.058   4.365
 5989SOL    HW219865   3.484   1.062   4.265
 5990SOL     OW19866  13.357   1.118   1.115
 5990SOL    HW119867  13.429   1.056   1.126
 5990SOL    HW219868  13.298   1.075   1.054
 5991SOL     OW19869   8.211  14.410   1.113
 5991SOL    HW119870   8.253  14.484   1.070
 5991SOL    HW219871   8.183  14.444   1.198
 5992SOL     OW19872   0.554   6.770  14.267
 5992SOL    HW119873   0.488   6.839  14.276
 5992SOL    HW219874   0.508   6.698  14.224
 5993SOL     OW19875  12.315  10.994   8.435
 5993SOL    HW119876  12.396  10.965   8.477
 5993SOL    HW219877  12.324  11.089   8.427
 5994SOL     OW19878   7.681   4.728   8.313
 5994SOL    HW119879   7.624   4.651   8.317
 5994SOL    HW219880   7.710   4.732   8.222
 5995SOL     OW19881   0.020   7.827   8.827
 5995SOL    HW119882   0.093   7.784   8.871
 5995SOL    HW219883   0.047   7.833   8.736
 5996SOL     OW19884   1.391   1.807   1.784
 5996SOL    HW119885   1.433   1.776   1.864
 5996SOL    HW219886   1.372   1.899   1.801
 5997SOL     OW19887   0.805   8.815  11.176
 5997SOL    HW119888   0.715   8.824  11.145
 5997SOL    HW219889   0.837   8.734  11.136
 5998SOL     OW19890   8.283  13.662   5.407
 5998SOL    HW119891   8.234  13.610   5.344
 5998SOL    HW219892   8.374  13.658   5.377
 5999SOL     OW19893   0.419   2.689   9.008
 5999SOL    HW119894   0.365   2.634   9.064
 5999SOL    HW219895   0.403   2.778   9.038
 6000SOL     OW19896  11.760   7.309  12.494
 6000SOL    HW119897  11.672   7.346  12.502
 6000SOL    HW219898  11.813   7.357  12.558
 6001SOL     OW19899  10.465  10.018   0.682
 6001SOL    HW119900  10.442  10.111   0.686
 6001SOL    HW219901  10.480   9.993   0.774
 6002SOL     OW19902  10.196   7.531   9.851
 6002SOL    HW119903  10.216   7.457   9.909
 6002SOL    HW219904  10.143   7.493   9.782
 6003SOL     OW19905   3.422  10.934  13.888
 6003SOL    HW119906   3.444  10.877  13.962
 6003SOL    HW219907   3.340  10.898  13.854
 6004SOL     OW19908   9.539   8.760   4.067
 6004SOL    HW119909   9.448   8.784   4.087
 6004SOL    HW219910   9.591   8.836   4.094
 6005SOL     OW19911   7.935  10.653   4.291
 6005SOL    HW119912   7.860  10.706   4.264
 6005SOL    HW219913   7.896  10.573   4.326
 6006SOL     OW19914   1.611  10.786   9.450
 6006SOL    HW119915   1.529  10.790   9.500
 6006SOL    HW219916   1.673  10.744   9.510
 6007SOL     OW19917   9.976   2.255  13.178
 6007SOL    HW119918   9.982   2.180  13.238
 6007SOL    HW219919   9.899   2.235  13.124
 6008SOL     OW19920  10.909  12.877  13.357
 6008SOL    HW119921  10.894  12.971  13.370
 6008SOL    HW219922  10.825  12.836  13.381
 6009SOL     OW19923   4.937   3.738   8.663
 6009SOL    HW119924   4.910   3.686   8.739
 6009SOL    HW219925   4.855   3.764   8.621
 6010SOL     OW19926   0.266   9.170   0.959
 6010SOL    HW119927   0.179   9.175   0.919
 6010SOL    HW219928   0.269   9.084   1.001
 6011SOL     OW19929   8.480   5.716   6.044
 6011SOL    HW119930   8.438   5.755   6.121
 6011SOL    HW219931   8.458   5.623   6.049
 6012SOL     OW19932   5.611   1.568  10.112
 6012SOL    HW119933   5.665   1.573  10.191
 6012SOL    HW219934   5.528   1.608  10.138
 6013SOL     OW19935   3.754   1.355   9.432
 6013SOL    HW119936   3.693   1.282   9.421
 6013SOL    HW219937   3.815   1.347   9.358
 6014SOL     OW19938  11.460  12.532   5.794
 6014SOL    HW119939  11.468  12.565   5.705
 6014SOL    HW219940  11.526  12.463   5.800
 6015SOL     OW19941   6.077  13.730   7.590
 6015SOL    HW119942   5.989  13.767   7.602
 6015SOL    HW219943   6.060  13.641   7.559
 6016SOL     OW19944   7.123  10.041   4.744
 6016SOL    HW119945   7.102   9.991   4.823
 6016SOL    HW219946   7.127   9.976   4.675
 6017SOL     OW19947   1.928  12.800   6.111
 6017SOL    HW119948   1.922  12.727   6.172
 6017SOL    HW219949   1.855  12.857   6.133
 6018SOL     OW19950   2.368   6.965   0.750
 6018SOL    HW119951   2.462   6.961   0.765
 6018SOL    HW219952   2.355   7.049   0.705
 6019SOL     OW19953   5.455   9.422   0.571
 6019SOL    HW119954   5.490   9.454   0.654
 6019SOL    HW219955   5.361   9.417   0.586
 6020SOL     OW19956   5.404   4.501   0.464
 6020SOL    HW119957   5.394   4.548   0.381
 6020SOL    HW219958   5.334   4.436   0.464
 6021SOL     OW19959   8.077  13.103  14.251
 6021SOL    HW119960   8.077  13.152  14.168
 6021SOL    HW219961   8.132  13.026  14.234
 6022SOL     OW19962  13.317   6.886  14.414
 6022SOL    HW119963  13.408   6.856  14.417
 6022SOL    HW219964  13.273   6.820  14.360
 6023SOL     OW19965   9.369  14.352  10.190
 6023SOL    HW119966   9.421  14.421  10.150
 6023SOL    HW219967   9.428  14.312  10.254
 6024SOL     OW19968  13.162   9.219   3.143
 6024SOL    HW119969  13.078   9.218   3.098
 6024SOL    HW219970  13.226   9.237   3.073
 6025SOL     OW19971  12.048   5.749   0.692
 6025SOL    HW119972  11.962   5.767   0.730
 6025SOL    HW219973  12.064   5.823   0.632
 6026SOL     OW19974  12.233   1.704   8.932
 6026SOL    HW119975  12.241   1.739   8.844
 6026SOL    HW219976  12.187   1.621   8.921
 6027SOL     OW19977   4.540  12.723   8.798
 6027SOL    HW119978   4.628  12.761   8.806
 6027SOL    HW219979   4.555  12.636   8.761
 6028SOL     OW19980  13.913   4.050  11.912
 6028SOL    HW119981  13.959   3.966  11.911
 6028SOL    HW219982  13.960   4.104  11.848
 6029SOL     OW19983   6.691  14.736  11.044
 6029SOL    HW119984   6.686  14.828  11.016
 6029SOL    HW219985   6.782  14.723  11.070
 6030SOL     OW19986   8.981  11.765  10.090
 6030SOL    HW119987   9.028  11.768  10.173
 6030SOL    HW219988   9.018  11.690  10.043
 6031SOL     OW19989   4.460  14.007   9.112
 6031SOL    HW119990   4.491  13.948   9.043
 6031SOL    HW219991   4.535  14.061   9.135
 6032SOL     OW19992   2.565  12.795   3.538
 6032SOL    HW119993   2.627  12.777   3.467
 6032SOL    HW219994   2.483  12.757   3.507
 6033SOL     OW19995  12.085  13.493   3.775
 6033SOL    HW119996  12.047  13.557   3.715
 6033SOL    HW219997  12.179  13.498   3.759
 6034SOL     OW19998   2.135   8.084   8.132
 6034SOL    HW119999   2.057   8.065   8.080
 6034SOL    HW220000   2.163   7.998   8.163
 6035SOL     OW20001   7.302   8.196   2.496
 6035SOL    HW120002   7.227   8.227   2.446
 6035SOL    HW220003   7.332   8.272   2.546
 6036SOL     OW20004   2.274   7.993   4.353
 6036SOL    HW120005   2.190   8.039   4.361
 6036SOL    HW220006   2.272   7.955   4.265
 6037SOL     OW20007   9.317  12.015   1.956
 6037SOL    HW120008   9.341  11.989   2.045
 6037SOL    HW220009   9.258  11.947   1.926
 6038SOL     OW20010   5.788   4.810   7.792
 6038SOL    HW120011   5.845   4.767   7.856
 6038SOL    HW220012   5.839   4.810   7.711
 6039SOL     OW20013   5.672   0.475   7.051
 6039SOL    HW120014   5.623   0.557   7.041
 6039SOL    HW220015   5.702   0.476   7.142
 6040SOL     OW20016   0.143  13.866  11.103
 6040SOL    HW120017   0.143  13.799  11.171
 6040SOL    HW220018   0.235  13.875  11.078
 6041SOL     OW20019   9.868   2.889  14.100
 6041SOL    HW120020   9.840   2.847  14.182
 6041SOL    HW220021   9.802   2.956  14.084
 6042SOL     OW20022   6.661  12.066  13.819
 6042SOL    HW120023   6.644  12.035  13.730
 6042SOL    HW220024   6.747  12.031  13.840
 6043SOL     OW20025   5.197   3.697   8.890
 6043SOL    HW120026   5.233   3.611   8.868
 6043SOL    HW220027   5.163   3.687   8.978
 6044SOL     OW20028   9.326   7.478   3.045
 6044SOL    HW120029   9.418   7.459   3.063
 6044SOL    HW220030   9.314   7.452   2.954
 6045SOL     OW20031   8.096   7.066   6.703
 6045SOL    HW120032   8.051   7.072   6.619
 6045SOL    HW220033   8.157   6.992   6.693
 6046SOL     OW20034   5.035   1.652   2.600
 6046SOL    HW120035   5.004   1.650   2.510
 6046SOL    HW220036   4.997   1.732   2.637
 6047SOL     OW20037   5.801  14.509   7.437
 6047SOL    HW120038   5.750  14.558   7.372
 6047SOL    HW220039   5.752  14.518   7.518
 6048SOL     OW20040   1.554  12.499  11.292
 6048SOL    HW120041   1.604  12.430  11.336
 6048SOL    HW220042   1.617  12.570  11.279
 6049SOL     OW20043   7.083   1.172   2.967
 6049SOL    HW120044   7.034   1.248   2.937
 6049SOL    HW220045   7.025   1.098   2.950
 6050SOL     OW20046   5.249   7.663   2.491
 6050SOL    HW120047   5.305   7.694   2.562
 6050SOL    HW220048   5.244   7.568   2.505
 6051SOL     OW20049   5.216   8.132   1.362
 6051SOL    HW120050   5.190   8.067   1.427
 6051SOL    HW220051   5.271   8.084   1.300
 6052SOL     OW20052   4.901   4.127   8.448
 6052SOL    HW120053   4.850   4.061   8.400
 6052SOL    HW220054   4.864   4.125   8.537
 6053SOL     OW20055   4.962   9.326   2.011
 6053SOL    HW120056   4.979   9.387   2.083
 6053SOL    HW220057   5.027   9.257   2.023
 6054SOL     OW20058   5.727   0.955   9.280
 6054SOL    HW120059   5.720   0.859   9.282
 6054SOL    HW220060   5.643   0.986   9.315
 6055SOL     OW20061   7.794  12.193   0.336
 6055SOL    HW120062   7.888  12.177   0.351
 6055SOL    HW220063   7.764  12.114   0.291
 6056SOL     OW20064   6.858   3.166   0.123
 6056SOL    HW120065   6.891   3.224   0.054
 6056SOL    HW220066   6.927   3.168   0.190
 6057SOL     OW20067  11.312   9.647   1.729
 6057SOL    HW120068  11.376   9.657   1.800
 6057SOL    HW220069  11.332   9.561   1.691
 6058SOL     OW20070   9.073  10.833  13.486
 6058SOL    HW120071   9.000  10.777  13.461
 6058SOL    HW220072   9.042  10.922  13.470
 6059SOL     OW20073   1.755  12.527   1.303
 6059SOL    HW120074   1.692  12.473   1.256
 6059SOL    HW220075   1.809  12.465   1.352
 6060SOL     OW20076  11.702   4.523   8.679
 6060SOL    HW120077  11.757   4.595   8.650
 6060SOL    HW220078  11.615   4.545   8.648
 6061SOL     OW20079   1.530   4.126  10.767
 6061SOL    HW120080   1.520   4.163  10.679
 6061SOL    HW220081   1.590   4.052  10.756
 6062SOL     OW20082   0.313   1.616   6.385
 6062SOL    HW120083   0.254   1.682   6.421
 6062SOL    HW220084   0.328   1.555   6.457
 6063SOL     OW20085   7.220   6.396   0.492
 6063SOL    HW120086   7.244   6.488   0.477
 6063SOL    HW220087   7.126   6.398   0.506
 6064SOL     OW20088   0.652   1.826  13.538
 6064SOL    HW120089   0.586   1.882  13.578
 6064SOL    HW220090   0.713   1.805  13.609
 6065SOL     OW20091   4.143  14.667  12.710
 6065SOL    HW120092   4.093  14.593  12.745
 6065SOL    HW220093   4.228  14.629  12.686
 6066SOL     OW20094   9.626   1.813  12.160
 6066SOL    HW120095   9.674   1.875  12.215
 6066SOL    HW220096   9.689   1.784  12.094
 6067SOL     OW20097   6.361   4.538  14.533
 6067SOL    HW120098   6.378   4.626  14.500
 6067SOL    HW220099   6.284   4.508  14.484
 6068SOL     OW20100  13.450   5.016  13.197
 6068SOL    HW120101  13.396   5.062  13.262
 6068SOL    HW220102  13.387   4.973  13.140
 6069SOL     OW20103  14.352  11.874   4.298
 6069SOL    HW120104  14.363  11.908   4.209
 6069SOL    HW220105  14.390  11.786   4.295
 6070SOL     OW20106   2.372   5.474   2.160
 6070SOL    HW120107   2.413   5.390   2.181
 6070SOL    HW220108   2.414   5.502   2.079
 6071SOL     OW20109   0.645   9.944  13.076
 6071SOL    HW120110   0.703   9.951  13.152
 6071SOL    HW220111   0.693   9.887  13.015
 6072SOL     OW20112   5.358   7.873  14.405
 6072SOL    HW120113   5.298   7.910  14.471
 6072SOL    HW220114   5.305   7.867  14.326
 6073SOL     OW20115   7.412  13.040   2.950
 6073SOL    HW120116   7.407  12.948   2.976
 6073SOL    HW220117   7.439  13.086   3.030
 6074SOL     OW20118   9.792   2.870  12.186
 6074SOL    HW120119   9.775   2.783  12.150
 6074SOL    HW220120   9.827   2.920  12.113
 6075SOL     OW20121   3.928   5.651   6.936
 6075SOL    HW120122   4.023   5.665   6.937
 6075SOL    HW220123   3.916   5.566   6.979
 6076SOL     OW20124  10.563   5.506   7.375
 6076SOL    HW120125  10.616   5.433   7.342
 6076SOL    HW220126  10.476   5.491   7.338
 6077SOL     OW20127   2.842   8.974   0.662
 6077SOL    HW120128   2.916   8.962   0.603
 6077SOL    HW220129   2.800   8.888   0.666
 6078SOL     OW20130   1.321   2.074   1.201
 6078SOL    HW120131   1.281   2.156   1.171
 6078SOL    HW220132   1.328   2.085   1.296
 6079SOL     OW20133   2.548   5.925  13.197
 6079SOL    HW120134   2.480   5.898  13.259
 6079SOL    HW220135   2.501   5.971  13.128
 6080SOL     OW20136   2.883   9.953   4.998
 6080SOL    HW120137   2.894   9.927   5.089
 6080SOL    HW220138   2.972   9.957   4.963
 6081SOL     OW20139  14.212   7.888   6.232
 6081SOL    HW120140  14.216   7.926   6.319
 6081SOL    HW220141  14.119   7.888   6.209
 6082SOL     OW20142   4.720  10.968   9.190
 6082SOL    HW120143   4.722  11.036   9.257
 6082SOL    HW220144   4.787  10.905   9.217
 6083SOL     OW20145  11.830   2.672  12.035
 6083SOL    HW120146  11.914   2.717  12.044
 6083SOL    HW220147  11.808   2.646  12.124
 6084SOL     OW20148  11.158   8.648   1.592
 6084SOL    HW120149  11.135   8.660   1.685
 6084SOL    HW220150  11.209   8.567   1.591
 6085SOL     OW20151  11.107  12.304  12.957
 6085SOL    HW120152  11.122  12.310  13.052
 6085SOL    HW220153  11.014  12.319  12.946
 6086SOL     OW20154   2.518   3.912  14.178
 6086SOL    HW120155   2.559   3.892  14.262
 6086SOL    HW220156   2.590   3.913  14.116
 6087SOL     OW20157  11.958   2.924  11.347
 6087SOL    HW120158  11.980   2.889  11.261
 6087SOL    HW220159  12.003   3.008  11.351
 6088SOL     OW20160   3.604   5.801   8.093
 6088SOL    HW120161   3.524   5.799   8.040
 6088SOL    HW220162   3.577   5.770   8.179
 6089SOL     OW20163  11.590  13.566   1.356
 6089SOL    HW120164  11.509  13.541   1.313
 6089SOL    HW220165  11.572  13.553   1.450
 6090SOL     OW20166   8.056   0.302  14.172
 6090SOL    HW120167   8.037   0.213  14.142
 6090SOL    HW220168   8.106   0.342  14.100
 6091SOL     OW20169   8.916  13.662   5.249
 6091SOL    HW120170   8.879  13.733   5.196
 6091SOL    HW220171   8.901  13.688   5.339
 6092SOL     OW20172  10.039   1.506  10.212
 6092SOL    HW120173  10.121   1.459  10.230
 6092SOL    HW220174  10.005   1.529  10.298
 6093SOL     OW20175  14.806  13.288  14.510
 6093SOL    HW120176  14.837  13.369  14.469
 6093SOL    HW220177  14.751  13.246  14.443
 6094SOL     OW20178   8.392  13.108   9.663
 6094SOL    HW120179   8.364  13.065   9.582
 6094SOL    HW220180   8.350  13.193   9.661
 6095SOL     OW20181   8.515   0.219  10.887
 6095SOL    HW120182   8.545   0.243  10.799
 6095SOL    HW220183   8.530   0.297  10.940
 6096SOL     OW20184   1.022   3.446   8.638
 6096SOL    HW120185   0.977   3.367   8.609
 6096SOL    HW220186   1.085   3.464   8.568
 6097SOL     OW20187   5.921  14.366   6.354
 6097SOL    HW120188   5.867  14.295   6.320
 6097SOL    HW220189   5.859  14.426   6.395
 6098SOL     OW20190   9.362   8.150   5.051
 6098SOL    HW120191   9.455   8.169   5.037
 6098SOL    HW220192   9.360   8.095   5.129
 6099SOL     OW20193  11.209   9.996   3.558
 6099SOL    HW120194  11.153  10.060   3.602
 6099SOL    HW220195  11.251  10.045   3.488
 6100SOL     OW20196  13.040   1.799   3.504
 6100SOL    HW120197  13.130   1.793   3.537
 6100SOL    HW220198  13.045   1.864   3.434
 6101SOL     OW20199  10.652   5.158  12.223
 6101SOL    HW120200  10.741   5.180  12.252
 6101SOL    HW220201  10.610   5.122  12.301
 6102SOL     OW20202   9.235  11.898   4.517
 6102SOL    HW120203   9.282  11.819   4.545
 6102SOL    HW220204   9.172  11.867   4.452
 6103SOL     OW20205   0.563   5.288   5.205
 6103SOL    HW120206   0.618   5.321   5.134
 6103SOL    HW220207   0.489   5.349   5.207
 6104SOL     OW20208  13.515   5.258  11.642
 6104SOL    HW120209  13.492   5.177  11.687
 6104SOL    HW220210  13.591   5.235  11.588
 6105SOL     OW20211   6.027   1.049  14.782
 6105SOL    HW120212   6.027   1.124  14.842
 6105SOL    HW220213   5.997   1.085  14.699
 6106SOL     OW20214   4.790   9.652   2.094
 6106SOL    HW120215   4.744   9.604   2.163
 6106SOL    HW220216   4.873   9.605   2.084
 6107SOL     OW20217   9.672   6.443   1.110
 6107SOL    HW120218   9.657   6.525   1.061
 6107SOL    HW220219   9.589   6.425   1.154
 6108SOL     OW20220   3.151   8.805   5.024
 6108SOL    HW120221   3.084   8.782   4.960
 6108SOL    HW220222   3.229   8.758   4.994
 6109SOL     OW20223   0.928  10.368  12.454
 6109SOL    HW120224   1.022  10.390  12.459
 6109SOL    HW220225   0.912  10.354  12.361
 6110SOL     OW20226   7.960   6.177  11.160
 6110SOL    HW120227   7.867   6.189  11.181
 6110SOL    HW220228   8.006   6.235  11.221
 6111SOL     OW20229  10.912   5.765  11.104
 6111SOL    HW120230  10.829   5.769  11.055
 6111SOL    HW220231  10.916   5.675  11.136
 6112SOL     OW20232   3.838   8.058   0.517
 6112SOL    HW120233   3.903   8.032   0.451
 6112SOL    HW220234   3.877   8.031   0.601
 6113SOL     OW20235  10.071   8.725   3.322
 6113SOL    HW120236  10.071   8.815   3.355
 6113SOL    HW220237   9.978   8.703   3.313
 6114SOL     OW20238  10.390  10.253   4.214
 6114SOL    HW120239  10.471  10.297   4.190
 6114SOL    HW220240  10.392  10.250   4.310
 6115SOL     OW20241  10.291  12.802  10.464
 6115SOL    HW120242  10.203  12.834  10.443
 6115SOL    HW220243  10.310  12.737  10.396
 6116SOL     OW20244   9.076   1.580  14.214
 6116SOL    HW120245   9.094   1.673  14.197
 6116SOL    HW220246   9.035   1.579  14.300
 6117SOL     OW20247   1.021   1.144   2.480
 6117SOL    HW120248   1.078   1.074   2.513
 6117SOL    HW220249   0.987   1.185   2.559
 6118SOL     OW20250   2.988   9.509   9.441
 6118SOL    HW120251   2.930   9.441   9.409
 6118SOL    HW220252   3.036   9.468   9.512
 6119SOL     OW20253   7.518   4.745   0.105
 6119SOL    HW120254   7.541   4.816   0.164
 6119SOL    HW220255   7.524   4.783   0.017
 6120SOL     OW20256   3.067   8.963  12.145
 6120SOL    HW120257   3.144   8.982  12.092
 6120SOL    HW220258   3.022   8.893  12.098
 6121SOL     OW20259  12.068   4.439   8.535
 6121SOL    HW120260  12.013   4.404   8.465
 6121SOL    HW220261  12.138   4.375   8.545
 6122SOL     OW20262  13.706   9.477   6.893
 6122SOL    HW120263  13.724   9.562   6.854
 6122SOL    HW220264  13.636   9.494   6.957
 6123SOL     OW20265   9.350  13.343   5.201
 6123SOL    HW120266   9.394  13.426   5.185
 6123SOL    HW220267   9.299  13.327   5.122
 6124SOL     OW20268  12.695   1.912   0.689
 6124SOL    HW120269  12.624   1.858   0.725
 6124SOL    HW220270  12.747   1.937   0.765
 6125SOL     OW20271   4.661  14.512  13.376
 6125SOL    HW120272   4.624  14.453  13.442
 6125SOL    HW220273   4.659  14.598  13.417
 6126SOL     OW20274  11.145   0.980   8.539
 6126SOL    HW120275  11.174   0.910   8.597
 6126SOL    HW220276  11.091   0.936   8.473
 6127SOL     OW20277   8.978   4.078  10.396
 6127SOL    HW120278   9.060   4.032  10.415
 6127SOL    HW220279   8.998   4.132  10.320
 6128SOL     OW20280  13.896   6.782   4.542
 6128SOL    HW120281  13.866   6.819   4.624
 6128SOL    HW220282  13.842   6.704   4.529
 6129SOL     OW20283   5.918   9.580   4.110
 6129SOL    HW120284   5.848   9.640   4.133
 6129SOL    HW220285   5.991   9.605   4.166
 6130SOL     OW20286   1.746   3.285  13.618
 6130SOL    HW120287   1.774   3.194  13.603
 6130SOL    HW220288   1.820   3.325  13.665
 6131SOL     OW20289   3.195   6.590   3.027
 6131SOL    HW120290   3.176   6.651   2.955
 6131SOL    HW220291   3.114   6.542   3.040
 6132SOL     OW20292  13.245   0.655   4.455
 6132SOL    HW120293  13.153   0.648   4.482
 6132SOL    HW220294  13.295   0.631   4.533
 6133SOL     OW20295   1.866  13.503   9.294
 6133SOL    HW120296   1.809  13.428   9.281
 6133SOL    HW220297   1.875  13.511   9.389
 6134SOL     OW20298   7.872  13.606   4.567
 6134SOL    HW120299   7.802  13.541   4.574
 6134SOL    HW220300   7.846  13.676   4.626
 6135SOL     OW20301  12.409   6.946  10.723
 6135SOL    HW120302  12.317   6.971  10.715
 6135SOL    HW220303  12.455   7.004  10.663
 6136SOL     OW20304   1.782   7.699   4.812
 6136SOL    HW120305   1.804   7.784   4.851
 6136SOL    HW220306   1.859   7.645   4.829
 6137SOL     OW20307   3.889  11.954   0.199
 6137SOL    HW120308   3.928  12.007   0.269
 6137SOL    HW220309   3.964  11.923   0.148
 6138SOL     OW20310   2.083  10.542   5.220
 6138SOL    HW120311   2.175  10.524   5.237
 6138SOL    HW220312   2.080  10.636   5.202
 6139SOL     OW20313   1.822   8.643   5.167
 6139SOL    HW120314   1.814   8.555   5.204
 6139SOL    HW220315   1.826   8.700   5.243
 6140SOL     OW20316   7.431   2.176   2.881
 6140SOL    HW120317   7.348   2.222   2.894
 6140SOL    HW220318   7.458   2.150   2.970
 6141SOL     OW20319   0.171   7.934   5.265
 6141SOL    HW120320   0.260   7.952   5.236
 6141SOL    HW220321   0.135   7.873   5.200
 6142SOL     OW20322   6.017   4.971   4.848
 6142SOL    HW120323   5.953   5.001   4.783
 6142SOL    HW220324   6.102   4.983   4.805
 6143SOL     OW20325   3.896  11.136   0.381
 6143SOL    HW120326   3.802  11.148   0.393
 6143SOL    HW220327   3.911  11.154   0.289
 6144SOL     OW20328  12.958  11.866   0.343
 6144SOL    HW120329  12.914  11.949   0.326
 6144SOL    HW220330  12.891  11.800   0.326
 6145SOL     OW20331   5.086   5.388   7.673
 6145SOL    HW120332   5.078   5.433   7.589
 6145SOL    HW220333   5.055   5.451   7.737
 6146SOL     OW20334  14.410   5.560  14.813
 6146SOL    HW120335  14.413   5.476  14.860
 6146SOL    HW220336  14.455   5.542  14.730
 6147SOL     OW20337  11.616   2.371  12.660
 6147SOL    HW120338  11.552   2.388  12.729
 6147SOL    HW220339  11.572   2.310  12.601
 6148SOL     OW20340   3.468  10.028  10.205
 6148SOL    HW120341   3.560  10.016  10.227
 6148SOL    HW220342   3.430   9.940  10.210
 6149SOL     OW20343   1.907   9.811  13.037
 6149SOL    HW120344   2.002   9.803  13.048
 6149SOL    HW220345   1.871   9.794  13.123
 6150SOL     OW20346  12.453   8.147   1.642
 6150SOL    HW120347  12.371   8.103   1.623
 6150SOL    HW220348  12.467   8.135   1.736
 6151SOL     OW20349   5.663   2.262  14.835
 6151SOL    HW120350   5.575   2.250   0.003
 6151SOL    HW220351   5.710   2.182  14.857
 6152SOL     OW20352   4.656  10.639  13.350
 6152SOL    HW120353   4.639  10.700  13.422
 6152SOL    HW220354   4.703  10.566  13.391
 6153SOL     OW20355   1.348   5.424   8.170
 6153SOL    HW120356   1.281   5.377   8.121
 6153SOL    HW220357   1.431   5.399   8.128
 6154SOL     OW20358   0.984   9.505   8.903
 6154SOL    HW120359   1.004   9.484   8.994
 6154SOL    HW220360   1.017   9.595   8.892
 6155SOL     OW20361  10.547   1.534  10.328
 6155SOL    HW120362  10.505   1.552  10.412
 6155SOL    HW220363  10.578   1.620  10.298
 6156SOL     OW20364  14.186  12.505   7.753
 6156SOL    HW120365  14.263  12.447   7.751
 6156SOL    HW220366  14.154  12.505   7.662
 6157SOL     OW20367   4.953   1.594   5.204
 6157SOL    HW120368   4.988   1.649   5.275
 6157SOL    HW220369   4.885   1.541   5.247
 6158SOL     OW20370   6.354   5.191   7.561
 6158SOL    HW120371   6.358   5.255   7.489
 6158SOL    HW220372   6.305   5.117   7.524
 6159SOL     OW20373   9.745   8.151   3.782
 6159SOL    HW120374   9.686   8.225   3.767
 6159SOL    HW220375   9.822   8.189   3.822
 6160SOL     OW20376  11.731   9.571  12.205
 6160SOL    HW120377  11.732   9.481  12.235
 6160SOL    HW220378  11.806   9.612  12.247
 6161SOL     OW20379   9.490  11.943  14.514
 6161SOL    HW120380   9.508  12.029  14.551
 6161SOL    HW220381   9.446  11.895  14.585
 6162SOL     OW20382   1.158  12.778   9.670
 6162SOL    HW120383   1.075  12.737   9.644
 6162SOL    HW220384   1.218  12.704   9.684
 6163SOL     OW20385  10.070  14.500  11.566
 6163SOL    HW120386  10.089  14.501  11.472
 6163SOL    HW220387  10.108  14.582  11.599
 6164SOL     OW20388  13.542   2.704  13.160
 6164SOL    HW120389  13.588   2.691  13.077
 6164SOL    HW220390  13.514   2.795  13.158
 6165SOL     OW20391   6.691   0.719  14.130
 6165SOL    HW120392   6.634   0.642  14.128
 6165SOL    HW220393   6.692   0.745  14.222
 6166SOL     OW20394  12.372   0.921  10.556
 6166SOL    HW120395  12.458   0.960  10.542
 6166SOL    HW220396  12.313   0.995  10.565
 6167SOL     OW20397  11.150   6.704  10.903
 6167SOL    HW120398  11.162   6.727  10.811
 6167SOL    HW220399  11.215   6.757  10.949
 6168SOL     OW20400  10.280   5.086  11.162
 6168SOL    HW120401  10.374   5.091  11.143
 6168SOL    HW220402  10.271   5.010  11.220
 6169SOL     OW20403   6.832   6.500   7.092
 6169SOL    HW120404   6.845   6.594   7.103
 6169SOL    HW220405   6.746   6.483   7.131
 6170SOL     OW20406  11.278   6.330   5.796
 6170SOL    HW120407  11.331   6.271   5.742
 6170SOL    HW220408  11.189   6.319   5.763
 6171SOL     OW20409  14.065   2.128   3.477
 6171SOL    HW120410  14.065   2.162   3.566
 6171SOL    HW220411  13.985   2.076   3.471
 6172SOL     OW20412   3.418   6.666   9.917
 6172SOL    HW120413   3.474   6.641   9.844
 6172SOL    HW220414   3.458   6.747   9.950
 6173SOL     OW20415  10.815   7.304   0.379
 6173SOL    HW120416  10.839   7.256   0.299
 6173SOL    HW220417  10.761   7.377   0.348
 6174SOL     OW20418   8.235   7.607   6.059
 6174SOL    HW120419   8.211   7.689   6.015
 6174SOL    HW220420   8.314   7.629   6.109
 6175SOL     OW20421  10.641   2.667   6.815
 6175SOL    HW120422  10.578   2.701   6.879
 6175SOL    HW220423  10.653   2.739   6.752
 6176SOL     OW20424  14.204   4.964   9.718
 6176SOL    HW120425  14.127   4.924   9.759
 6176SOL    HW220426  14.183   5.058   9.717
 6177SOL     OW20427   5.299  14.088   6.588
 6177SOL    HW120428   5.244  14.021   6.546
 6177SOL    HW220429   5.241  14.164   6.595
 6178SOL     OW20430  14.077   3.305   5.999
 6178SOL    HW120431  14.064   3.244   5.926
 6178SOL    HW220432  13.991   3.311   6.041
 6179SOL     OW20433  12.274   2.621   6.485
 6179SOL    HW120434  12.210   2.652   6.421
 6179SOL    HW220435  12.354   2.607   6.435
 6180SOL     OW20436   4.820  10.458  11.194
 6180SOL    HW120437   4.857  10.455  11.282
 6180SOL    HW220438   4.892  10.434  11.137
 6181SOL     OW20439   7.958   8.562   0.836
 6181SOL    HW120440   7.937   8.542   0.745
 6181SOL    HW220441   8.030   8.503   0.858
 6182SOL     OW20442   0.305  12.722   1.754
 6182SOL    HW120443   0.346  12.637   1.741
 6182SOL    HW220444   0.265  12.716   1.842
 6183SOL     OW20445   2.060   9.796  10.767
 6183SOL    HW120446   2.108   9.874  10.797
 6183SOL    HW220447   1.984   9.832  10.720
 6184SOL     OW20448  11.585   8.276   4.117
 6184SOL    HW120449  11.581   8.351   4.177
 6184SOL    HW220450  11.509   8.223   4.141
 6185SOL     OW20451   3.111  12.272   0.548
 6185SOL    HW120452   3.178  12.261   0.481
 6185SOL    HW220453   3.061  12.190   0.545
 6186SOL     OW20454   2.352  12.545  10.144
 6186SOL    HW120455   2.264  12.539  10.106
 6186SOL    HW220456   2.340  12.598  10.223
 6187SOL     OW20457  13.877   9.462   1.214
 6187SOL    HW120458  13.947   9.400   1.235
 6187SOL    HW220459  13.887   9.477   1.120
 6188SOL     OW20460  11.975   9.596  11.926
 6188SOL    HW120461  11.956   9.512  11.967
 6188SOL    HW220462  12.010   9.650  11.997
 6189SOL     OW20463   8.411  12.898  11.506
 6189SOL    HW120464   8.464  12.907  11.427
 6189SOL    HW220465   8.321  12.887  11.474
 6190SOL     OW20466   8.293  14.322  11.575
 6190SOL    HW120467   8.344  14.267  11.516
 6190SOL    HW220468   8.256  14.390  11.519
 6191SOL     OW20469   4.678   2.398  11.351
 6191SOL    HW120470   4.720   2.423  11.433
 6191SOL    HW220471   4.588   2.378  11.375
 6192SOL     OW20472   7.083   5.676   6.385
 6192SOL    HW120473   7.146   5.696   6.316
 6192SOL    HW220474   7.129   5.613   6.441
 6193SOL     OW20475  11.912   4.169  14.026
 6193SOL    HW120476  11.978   4.179  14.094
 6193SOL    HW220477  11.956   4.120  13.957
 6194SOL     OW20478   4.774   1.971  14.387
 6194SOL    HW120479   4.797   2.020  14.308
 6194SOL    HW220480   4.696   1.920  14.361
 6195SOL     OW20481  12.798  14.155  10.951
 6195SOL    HW120482  12.802  14.157  10.856
 6195SOL    HW220483  12.726  14.213  10.974
 6196SOL     OW20484   1.208   9.418   8.105
 6196SOL    HW120485   1.264   9.372   8.043
 6196SOL    HW220486   1.270   9.461   8.165
 6197SOL     OW20487   9.881   8.889  11.932
 6197SOL    HW120488   9.865   8.802  11.896
 6197SOL    HW220489   9.976   8.902  11.922
 6198SOL     OW20490   3.485   5.522   6.675
 6198SOL    HW120491   3.474   5.428   6.658
 6198SOL    HW220492   3.580   5.533   6.684
 6199SOL     OW20493   8.544   1.563   1.842
 6199SOL    HW120494   8.454   1.565   1.808
 6199SOL    HW220495   8.533   1.551   1.936
 6200SOL     OW20496   2.273   3.516   1.890
 6200SOL    HW120497   2.332   3.492   1.962
 6200SOL    HW220498   2.330   3.555   1.824
 6201SOL     OW20499  11.296   1.542   7.205
 6201SOL    HW120500  11.282   1.629   7.167
 6201SOL    HW220501  11.356   1.558   7.279
 6202SOL     OW20502  10.566   7.212  11.754
 6202SOL    HW120503  10.584   7.119  11.759
 6202SOL    HW220504  10.576   7.244  11.843
 6203SOL     OW20505   9.048   4.423   6.452
 6203SOL    HW120506   9.000   4.395   6.530
 6203SOL    HW220507   8.996   4.388   6.379
 6204SOL     OW20508   2.361   6.668   8.315
 6204SOL    HW120509   2.362   6.758   8.349
 6204SOL    HW220510   2.438   6.626   8.356
 6205SOL     OW20511   9.274   4.596   9.840
 6205SOL    HW120512   9.212   4.641   9.783
 6205SOL    HW220513   9.312   4.665   9.894
 6206SOL     OW20514   4.669   6.990   4.241
 6206SOL    HW120515   4.640   6.916   4.188
 6206SOL    HW220516   4.591   7.017   4.289
 6207SOL     OW20517  14.799  11.794   8.692
 6207SOL    HW120518  14.861  11.861   8.722
 6207SOL    HW220519  14.799  11.802   8.597
 6208SOL     OW20520  10.270   9.611  14.456
 6208SOL    HW120521  10.347   9.605  14.401
 6208SOL    HW220522  10.231   9.696  14.435
 6209SOL     OW20523  12.668   3.487   9.503
 6209SOL    HW120524  12.603   3.557   9.513
 6209SOL    HW220525  12.640   3.438   9.426
 6210SOL     OW20526   1.961   4.224   4.558
 6210SOL    HW120527   1.989   4.312   4.536
 6210SOL    HW220528   2.041   4.179   4.586
 6211SOL     OW20529  11.501   8.332   8.187
 6211SOL    HW120530  11.456   8.341   8.103
 6211SOL    HW220531  11.461   8.255   8.227
 6212SOL     OW20532   0.844  13.777   9.462
 6212SOL    HW120533   0.765  13.797   9.511
 6212SOL    HW220534   0.848  13.845   9.394
 6213SOL     OW20535   3.450  13.614  11.366
 6213SOL    HW120536   3.363  13.628  11.331
 6213SOL    HW220537   3.453  13.665  11.447
 6214SOL     OW20538  14.213   3.257   2.646
 6214SOL    HW120539  14.163   3.298   2.575
 6214SOL    HW220540  14.149   3.200   2.689
 6215SOL     OW20541   4.874   4.614  11.462
 6215SOL    HW120542   4.867   4.552  11.535
 6215SOL    HW220543   4.799   4.593  11.407
 6216SOL     OW20544   8.429   6.074   6.632
 6216SOL    HW120545   8.505   6.016   6.624
 6216SOL    HW220546   8.467   6.161   6.646
 6217SOL     OW20547   6.862   0.855   4.398
 6217SOL    HW120548   6.786   0.906   4.424
 6217SOL    HW220549   6.835   0.764   4.409
 6218SOL     OW20550   5.380   2.273  10.603
 6218SOL    HW120551   5.450   2.215  10.634
 6218SOL    HW220552   5.403   2.359  10.638
 6219SOL     OW20553  12.711  12.794   4.501
 6219SOL    HW120554  12.803  12.768   4.511
 6219SOL    HW220555  12.701  12.807   4.406
 6220SOL     OW20556  10.037  14.271   6.869
 6220SOL    HW120557  10.018  14.228   6.785
 6220SOL    HW220558   9.951  14.284   6.909
 6221SOL     OW20559   4.824   9.286   7.032
 6221SOL    HW120560   4.902   9.339   7.016
 6221SOL    HW220561   4.768   9.301   6.956
 6222SOL     OW20562  10.290  14.688  14.334
 6222SOL    HW120563  10.330  14.602  14.340
 6222SOL    HW220564  10.259  14.695  14.243
 6223SOL     OW20565   9.978   2.874   2.212
 6223SOL    HW120566  10.027   2.865   2.130
 6223SOL    HW220567   9.920   2.798   2.214
 6224SOL     OW20568  13.442   2.051  13.713
 6224SOL    HW120569  13.416   2.095  13.794
 6224SOL    HW220570  13.360   2.021  13.675
 6225SOL     OW20571   7.959   8.421   1.612
 6225SOL    HW120572   7.986   8.438   1.522
 6225SOL    HW220573   8.017   8.476   1.665
 6226SOL     OW20574  13.773  14.183   5.808
 6226SOL    HW120575  13.738  14.125   5.740
 6226SOL    HW220576  13.865  14.156   5.817
 6227SOL     OW20577   1.919  11.483   4.490
 6227SOL    HW120578   1.920  11.550   4.422
 6227SOL    HW220579   1.935  11.532   4.571
 6228SOL     OW20580   1.045  13.757   3.143
 6228SOL    HW120581   1.096  13.827   3.102
 6228SOL    HW220582   1.030  13.693   3.074
 6229SOL     OW20583  13.664   2.112   0.443
 6229SOL    HW120584  13.712   2.182   0.487
 6229SOL    HW220585  13.726   2.039   0.438
 6230SOL     OW20586   4.927   5.597  14.595
 6230SOL    HW120587   5.003   5.623  14.647
 6230SOL    HW220588   4.909   5.673  14.539
 6231SOL     OW20589   4.970  14.314  14.217
 6231SOL    HW120590   5.060  14.340  14.198
 6231SOL    HW220591   4.928  14.310  14.131
 6232SOL     OW20592   8.353  13.493   4.449
 6232SOL    HW120593   8.406  13.505   4.528
 6232SOL    HW220594   8.272  13.541   4.466
 6233SOL     OW20595   8.951   0.345   3.843
 6233SOL    HW120596   8.996   0.383   3.918
 6233SOL    HW220597   9.000   0.375   3.767
 6234SOL     OW20598  13.016  14.394   0.756
 6234SOL    HW120599  13.049  14.483   0.773
 6234SOL    HW220600  13.074  14.337   0.808
 6235SOL     OW20601   0.331  11.266  12.768
 6235SOL    HW120602   0.281  11.264  12.687
 6235SOL    HW220603   0.353  11.359  12.780
 6236SOL     OW20604   7.987  11.686   1.539
 6236SOL    HW120605   8.068  11.640   1.517
 6236SOL    HW220606   8.006  11.778   1.522
 6237SOL     OW20607   1.197   0.422   9.399
 6237SOL    HW120608   1.203   0.492   9.465
 6237SOL    HW220609   1.281   0.375   9.407
 6238SOL     OW20610   2.980   3.225   3.859
 6238SOL    HW120611   3.058   3.232   3.803
 6238SOL    HW220612   2.955   3.133   3.853
 6239SOL     OW20613   4.329   7.063   5.147
 6239SOL    HW120614   4.327   7.131   5.080
 6239SOL    HW220615   4.343   7.110   5.229
 6240SOL     OW20616  12.772   6.127   3.550
 6240SOL    HW120617  12.832   6.085   3.488
 6240SOL    HW220618  12.829   6.180   3.606
 6241SOL     OW20619   6.079   3.522   8.124
 6241SOL    HW120620   6.012   3.525   8.055
 6241SOL    HW220621   6.077   3.609   8.164
 6242SOL     OW20622  13.292  13.364  11.699
 6242SOL    HW120623  13.237  13.391  11.773
 6242SOL    HW220624  13.341  13.443  11.675
 6243SOL     OW20625  13.274   1.686   6.498
 6243SOL    HW120626  13.347   1.743   6.473
 6243SOL    HW220627  13.252   1.712   6.587
 6244SOL     OW20628  12.320   4.717   9.036
 6244SOL    HW120629  12.413   4.694   9.031
 6244SOL    HW220630  12.286   4.695   8.949
 6245SOL     OW20631   8.960   4.829   6.591
 6245SOL    HW120632   9.032   4.814   6.652
 6245SOL    HW220633   8.939   4.922   6.602
 6246SOL     OW20634   9.471  12.882  11.971
 6246SOL    HW120635   9.376  12.882  11.983
 6246SOL    HW220636   9.484  12.931  11.889
 6247SOL     OW20637   1.036   2.720   5.048
 6247SOL    HW120638   0.989   2.765   4.978
 6247SOL    HW220639   1.003   2.761   5.128
 6248SOL     OW20640  14.102  14.345   2.533
 6248SOL    HW120641  14.155  14.382   2.604
 6248SOL    HW220642  14.012  14.359   2.559
 6249SOL     OW20643   1.663   0.120  12.544
 6249SOL    HW120644   1.705   0.113  12.458
 6249SOL    HW220645   1.626   0.208  12.545
 6250SOL     OW20646  11.662   7.173  11.315
 6250SOL    HW120647  11.734   7.187  11.254
 6250SOL    HW220648  11.704   7.153  11.398
 6251SOL     OW20649  14.377  13.563  13.493
 6251SOL    HW120650  14.330  13.481  13.499
 6251SOL    HW220651  14.462  13.539  13.456
 6252SOL     OW20652  14.127   9.047   0.108
 6252SOL    HW120653  14.141   9.107   0.035
 6252SOL    HW220654  14.132   9.102   0.186
 6253SOL     OW20655   7.532   6.869  10.430
 6253SOL    HW120656   7.530   6.837  10.341
 6253SOL    HW220657   7.475   6.810  10.479
 6254SOL     OW20658  13.265  11.680   6.005
 6254SOL    HW120659  13.192  11.696   5.946
 6254SOL    HW220660  13.229  11.622   6.072
 6255SOL     OW20661  14.610  14.201   0.377
 6255SOL    HW120662  14.661  14.131   0.419
 6255SOL    HW220663  14.521  14.191   0.413
 6256SOL     OW20664  14.624  13.366   7.276
 6256SOL    HW120665  14.541  13.329   7.248
 6256SOL    HW220666  14.689  13.324   7.219
 6257SOL     OW20667  10.940  13.850   6.399
 6257SOL    HW120668  11.031  13.835   6.425
 6257SOL    HW220669  10.915  13.771   6.352
 6258SOL     OW20670  13.107  11.890   9.836
 6258SOL    HW120671  13.114  11.904   9.930
 6258SOL    HW220672  13.198  11.897   9.804
 6259SOL     OW20673   5.943   4.732   5.656
 6259SOL    HW120674   5.906   4.779   5.730
 6259SOL    HW220675   5.958   4.643   5.688
 6260SOL     OW20676  13.091   2.716   5.056
 6260SOL    HW120677  13.028   2.768   5.007
 6260SOL    HW220678  13.167   2.773   5.068
 6261SOL     OW20679   5.836  13.210   1.184
 6261SOL    HW120680   5.748  13.247   1.186
 6261SOL    HW220681   5.888  13.268   1.239
 6262SOL     OW20682   6.734   3.036   6.622
 6262SOL    HW120683   6.721   2.941   6.627
 6262SOL    HW220684   6.739   3.055   6.528
 6263SOL     OW20685   5.404   1.726  10.551
 6263SOL    HW120686   5.330   1.774  10.588
 6263SOL    HW220687   5.465   1.718  10.624
 6264SOL     OW20688   7.940   5.165   8.955
 6264SOL    HW120689   7.922   5.118   8.873
 6264SOL    HW220690   8.029   5.138   8.978
 6265SOL     OW20691   2.679  10.194   7.091
 6265SOL    HW120692   2.703  10.272   7.041
 6265SOL    HW220693   2.759  10.170   7.139
 6266SOL     OW20694   6.146  12.028   1.910
 6266SOL    HW120695   6.164  12.112   1.867
 6266SOL    HW220696   6.050  12.024   1.913
 6267SOL     OW20697   2.054   6.511   5.211
 6267SOL    HW120698   2.093   6.548   5.290
 6267SOL    HW220699   2.036   6.587   5.155
 6268SOL     OW20700   8.509   7.017   1.705
 6268SOL    HW120701   8.426   7.065   1.698
 6268SOL    HW220702   8.488   6.929   1.674
 6269SOL     OW20703  12.338   7.978  11.081
 6269SOL    HW120704  12.396   8.049  11.106
 6269SOL    HW220705  12.315   7.935  11.163
 6270SOL     OW20706   9.414  14.657   1.618
 6270SOL    HW120707   9.345  14.633   1.556
 6270SOL    HW220708   9.367  14.682   1.698
 6271SOL     OW20709   4.918  13.793  10.072
 6271SOL    HW120710   4.832  13.762  10.101
 6271SOL    HW220711   4.981  13.741  10.121
 6272SOL     OW20712   8.165   6.997   1.198
 6272SOL    HW120713   8.250   6.955   1.186
 6272SOL    HW220714   8.122   6.987   1.113
 6273SOL     OW20715  12.661   5.223  10.887
 6273SOL    HW120716  12.634   5.293  10.947
 6273SOL    HW220717  12.656   5.262  10.800
 6274SOL     OW20718   1.834  10.050   6.539
 6274SOL    HW120719   1.892   9.982   6.503
 6274SOL    HW220720   1.746  10.019   6.521
 6275SOL     OW20721   5.058  11.778   3.994
 6275SOL    HW120722   5.100  11.703   4.035
 6275SOL    HW220723   4.966  11.751   3.984
 6276SOL     OW20724   1.569   0.604   4.329
 6276SOL    HW120725   1.607   0.552   4.258
 6276SOL    HW220726   1.506   0.662   4.286
 6277SOL     OW20727  11.305   2.711   5.878
 6277SOL    HW120728  11.280   2.625   5.845
 6277SOL    HW220729  11.395   2.724   5.847
 6278SOL     OW20730   6.923   4.131   3.410
 6278SOL    HW120731   6.831   4.144   3.433
 6278SOL    HW220732   6.949   4.213   3.367
 6279SOL     OW20733   5.845  14.714   6.625
 6279SOL    HW120734   5.909  14.680   6.689
 6279SOL    HW220735   5.801  14.785   6.671
 6280SOL     OW20736  12.821   5.230   9.030
 6280SOL    HW120737  12.825   5.318   8.991
 6280SOL    HW220738  12.878   5.177   8.976
 6281SOL     OW20739   1.441   2.351   8.861
 6281SOL    HW120740   1.453   2.444   8.839
 6281SOL    HW220741   1.420   2.309   8.778
 6282SOL     OW20742   0.822  14.126   0.650
 6282SOL    HW120743   0.833  14.111   0.744
 6282SOL    HW220744   0.747  14.185   0.644
 6283SOL     OW20745  14.689   0.489   2.203
 6283SOL    HW120746  14.775   0.530   2.191
 6283SOL    HW220747  14.672   0.444   2.120
 6284SOL     OW20748  11.234   0.692  11.913
 6284SOL    HW120749  11.284   0.636  11.972
 6284SOL    HW220750  11.193   0.757  11.970
 6285SOL     OW20751  12.724   6.793   6.260
 6285SOL    HW120752  12.814   6.817   6.284
 6285SOL    HW220753  12.694   6.866   6.205
 6286SOL     OW20754   2.660   6.325   3.083
 6286SOL    HW120755   2.631   6.360   3.167
 6286SOL    HW220756   2.714   6.249   3.105
 6287SOL     OW20757   3.973   5.603   5.050
 6287SOL    HW120758   3.984   5.630   5.141
 6287SOL    HW220759   3.943   5.512   5.056
 6288SOL     OW20760   8.236  12.853   7.615
 6288SOL    HW120761   8.316  12.801   7.602
 6288SOL    HW220762   8.223  12.897   7.531
 6289SOL     OW20763   6.865  13.330  14.847
 6289SOL    HW120764   6.877  13.424  14.855
 6289SOL    HW220765   6.924  13.303  14.777
 6290SOL     OW20766   7.594   9.122  12.719
 6290SOL    HW120767   7.671   9.089  12.672
 6290SOL    HW220768   7.550   9.179  12.656
 6291SOL     OW20769  11.010   6.114   0.432
 6291SOL    HW120770  10.935   6.136   0.376
 6291SOL    HW220771  11.076   6.080   0.371
 6292SOL     OW20772  12.164  10.072  12.532
 6292SOL    HW120773  12.181   9.980  12.553
 6292SOL    HW220774  12.079  10.071  12.489
 6293SOL     OW20775  14.007   2.625   2.804
 6293SOL    HW120776  13.917   2.644   2.778
 6293SOL    HW220777  13.999   2.587   2.892
 6294SOL     OW20778   2.158   4.659  14.544
 6294SOL    HW120779   2.065   4.673  14.527
 6294SOL    HW220780   2.167   4.675  14.638
 6295SOL     OW20781   4.509   1.434  10.158
 6295SOL    HW120782   4.488   1.525  10.177
 6295SOL    HW220783   4.579   1.412  10.219
 6296SOL     OW20784   3.907   4.685   0.228
 6296SOL    HW120785   3.941   4.771   0.203
 6296SOL    HW220786   3.846   4.703   0.300
 6297SOL     OW20787  14.032   2.454   0.285
 6297SOL    HW120788  14.017   2.544   0.311
 6297SOL    HW220789  14.120   2.454   0.248
 6298SOL     OW20790   3.303   7.978  14.054
 6298SOL    HW120791   3.311   8.071  14.074
 6298SOL    HW220792   3.288   7.936  14.139
 6299SOL     OW20793   6.857  10.428   1.159
 6299SOL    HW120794   6.861  10.394   1.070
 6299SOL    HW220795   6.766  10.455   1.170
 6300SOL     OW20796   0.708  11.319   0.042
 6300SOL    HW120797   0.634  11.375   0.067
 6300SOL    HW220798   0.780  11.348   0.097
 6301SOL     OW20799  10.220   8.502   4.346
 6301SOL    HW120800  10.268   8.438   4.398
 6301SOL    HW220801  10.177   8.558   4.411
 6302SOL     OW20802   6.439   7.979   2.287
 6302SOL    HW120803   6.437   8.037   2.211
 6302SOL    HW220804   6.453   8.038   2.361
 6303SOL     OW20805   2.937   5.515   9.381
 6303SOL    HW120806   2.906   5.606   9.383
 6303SOL    HW220807   2.878   5.471   9.320
 6304SOL     OW20808  10.453   0.419   9.492
 6304SOL    HW120809  10.483   0.510   9.489
 6304SOL    HW220810  10.361   0.423   9.468
 6305SOL     OW20811   5.583   7.019  10.090
 6305SOL    HW120812   5.502   7.065  10.066
 6305SOL    HW220813   5.585   6.942  10.033
 6306SOL     OW20814   9.653  10.917  14.570
 6306SOL    HW120815   9.622  10.900  14.658
 6306SOL    HW220816   9.748  10.919  14.578
 6307SOL     OW20817  13.699   2.654   7.109
 6307SOL    HW120818  13.724   2.576   7.159
 6307SOL    HW220819  13.746   2.725   7.153
 6308SOL     OW20820  10.744   9.081  12.563
 6308SOL    HW120821  10.832   9.064  12.529
 6308SOL    HW220822  10.754   9.160  12.616
 6309SOL     OW20823   6.163   5.829   8.251
 6309SOL    HW120824   6.192   5.915   8.281
 6309SOL    HW220825   6.121   5.790   8.328
 6310SOL     OW20826   2.112  13.472  10.701
 6310SOL    HW120827   2.031  13.463  10.751
 6310SOL    HW220828   2.083  13.487  10.611
 6311SOL     OW20829   9.204   4.330   7.474
 6311SOL    HW120830   9.237   4.243   7.449
 6311SOL    HW220831   9.131   4.311   7.533
 6312SOL     OW20832   1.001  10.855   6.856
 6312SOL    HW120833   1.050  10.937   6.860
 6312SOL    HW220834   0.915  10.876   6.893
 6313SOL     OW20835  10.010   4.866   8.556
 6313SOL    HW120836   9.968   4.949   8.534
 6313SOL    HW220837  10.096   4.891   8.590
 6314SOL     OW20838   0.395   4.152  12.159
 6314SOL    HW120839   0.489   4.135  12.151
 6314SOL    HW220840   0.354   4.084  12.104
 6315SOL     OW20841   6.204   7.410   9.438
 6315SOL    HW120842   6.245   7.449   9.515
 6315SOL    HW220843   6.207   7.479   9.372
 6316SOL     OW20844   1.547   5.554   3.108
 6316SOL    HW120845   1.620   5.554   3.045
 6316SOL    HW220846   1.515   5.464   3.106
 6317SOL     OW20847  13.616   0.571  10.122
 6317SOL    HW120848  13.709   0.580  10.100
 6317SOL    HW220849  13.572   0.557  10.038
 6318SOL     OW20850   1.852   8.647   1.312
 6318SOL    HW120851   1.825   8.558   1.334
 6318SOL    HW220852   1.929   8.636   1.256
 6319SOL     OW20853  13.928   6.372   4.851
 6319SOL    HW120854  13.884   6.300   4.896
 6319SOL    HW220855  13.975   6.418   4.920
 6320SOL     OW20856  14.140  14.019  12.086
 6320SOL    HW120857  14.106  13.956  12.023
 6320SOL    HW220858  14.092  14.100  12.067
 6321SOL     OW20859  12.624   3.097   9.195
 6321SOL    HW120860  12.692   3.030   9.197
 6321SOL    HW220861  12.541   3.048   9.197
 6322SOL     OW20862   0.213  11.656   9.677
 6322SOL    HW120863   0.180  11.580   9.629
 6322SOL    HW220864   0.305  11.662   9.653
 6323SOL     OW20865  14.110   7.103   8.565
 6323SOL    HW120866  14.039   7.039   8.574
 6323SOL    HW220867  14.170   7.063   8.502
 6324SOL     OW20868  11.054   5.170   5.154
 6324SOL    HW120869  11.059   5.086   5.199
 6324SOL    HW220870  11.002   5.152   5.075
 6325SOL     OW20871   3.401   9.146   6.736
 6325SOL    HW120872   3.353   9.224   6.709
 6325SOL    HW220873   3.387   9.084   6.665
 6326SOL     OW20874  10.621  10.823   1.614
 6326SOL    HW120875  10.674  10.861   1.543
 6326SOL    HW220876  10.554  10.772   1.568
 6327SOL     OW20877   8.627  13.310   5.780
 6327SOL    HW120878   8.567  13.380   5.806
 6327SOL    HW220879   8.596  13.233   5.828
 6328SOL     OW20880   3.380   1.137   3.186
 6328SOL    HW120881   3.439   1.212   3.181
 6328SOL    HW220882   3.434   1.062   3.163
 6329SOL     OW20883   7.120   6.882  13.900
 6329SOL    HW120884   7.103   6.825  13.825
 6329SOL    HW220885   7.034   6.898  13.939
 6330SOL     OW20886   7.103  13.392   0.879
 6330SOL    HW120887   7.131  13.359   0.793
 6330SOL    HW220888   7.137  13.328   0.941
 6331SOL     OW20889   0.176  13.511  10.723
 6331SOL    HW120890   0.268  13.506  10.748
 6331SOL    HW220891   0.173  13.585  10.662
 6332SOL     OW20892   3.884   3.364   1.275
 6332SOL    HW120893   3.944   3.433   1.302
 6332SOL    HW220894   3.931   3.316   1.206
 6333SOL     OW20895  13.140   1.512   8.794
 6333SOL    HW120896  13.235   1.513   8.807
 6333SOL    HW220897  13.113   1.602   8.816
 6334SOL     OW20898  12.667  10.236  11.730
 6334SOL    HW120899  12.594  10.259  11.787
 6334SOL    HW220900  12.745  10.258  11.782
 6335SOL     OW20901   2.672   5.794   8.588
 6335SOL    HW120902   2.590   5.754   8.617
 6335SOL    HW220903   2.654   5.825   8.499
 6336SOL     OW20904  12.613  13.442   9.294
 6336SOL    HW120905  12.586  13.504   9.362
 6336SOL    HW220906  12.690  13.399   9.331
 6337SOL     OW20907  10.412   9.820   1.793
 6337SOL    HW120908  10.411   9.751   1.727
 6337SOL    HW220909  10.323   9.820   1.829
 6338SOL     OW20910  14.483   5.772  14.389
 6338SOL    HW120911  14.565   5.774  14.339
 6338SOL    HW220912  14.437   5.851  14.364
 6339SOL     OW20913   7.737   9.565   3.019
 6339SOL    HW120914   7.716   9.659   3.022
 6339SOL    HW220915   7.705   9.536   2.934
 6340SOL     OW20916   3.413  11.513   2.209
 6340SOL    HW120917   3.473  11.440   2.224
 6340SOL    HW220918   3.469  11.585   2.181
 6341SOL     OW20919   8.886   9.566  10.781
 6341SOL    HW120920   8.820   9.520  10.730
 6341SOL    HW220921   8.945   9.497  10.812
 6342SOL     OW20922   3.306  12.048   4.666
 6342SOL    HW120923   3.318  12.109   4.593
 6342SOL    HW220924   3.223  12.004   4.647
 6343SOL     OW20925   3.004   2.429   2.990
 6343SOL    HW120926   2.950   2.498   2.951
 6343SOL    HW220927   3.073   2.414   2.926
 6344SOL     OW20928   6.368   9.424  11.168
 6344SOL    HW120929   6.303   9.394  11.231
 6344SOL    HW220930   6.399   9.344  11.126
 6345SOL     OW20931   5.818   8.940   4.989
 6345SOL    HW120932   5.849   8.861   4.945
 6345SOL    HW220933   5.888   8.963   5.050
 6346SOL     OW20934   7.774  11.501  10.166
 6346SOL    HW120935   7.743  11.488  10.077
 6346SOL    HW220936   7.728  11.580  10.196
 6347SOL     OW20937   3.886  12.582   0.692
 6347SOL    HW120938   3.837  12.508   0.729
 6347SOL    HW220939   3.962  12.541   0.651
 6348SOL     OW20940   0.545  14.773  13.170
 6348SOL    HW120941   0.521  14.846  13.226
 6348SOL    HW220942   0.508  14.795  13.085
 6349SOL     OW20943   9.271   5.260   3.640
 6349SOL    HW120944   9.337   5.243   3.707
 6349SOL    HW220945   9.219   5.332   3.675
 6350SOL     OW20946   4.084  11.830   8.971
 6350SOL    HW120947   4.083  11.794   8.882
 6350SOL    HW220948   4.112  11.756   9.026
 6351SOL     OW20949   8.934  12.717   9.081
 6351SOL    HW120950   8.876  12.667   9.023
 6351SOL    HW220951   8.888  12.799   9.096
 6352SOL     OW20952   9.603  10.882   8.553
 6352SOL    HW120953   9.562  10.918   8.474
 6352SOL    HW220954   9.681  10.935   8.566
 6353SOL     OW20955  14.250   8.359  12.220
 6353SOL    HW120956  14.227   8.291  12.282
 6353SOL    HW220957  14.168   8.406  12.204
 6354SOL     OW20958   2.833   1.570  13.621
 6354SOL    HW120959   2.898   1.560  13.691
 6354SOL    HW220960   2.772   1.635  13.654
 6355SOL     OW20961   4.114   7.782   5.315
 6355SOL    HW120962   4.153   7.868   5.302
 6355SOL    HW220963   4.047   7.795   5.382
 6356SOL     OW20964   0.551   5.862   8.930
 6356SOL    HW120965   0.496   5.835   8.857
 6356SOL    HW220966   0.553   5.958   8.924
 6357SOL     OW20967  11.703  13.498  14.136
 6357SOL    HW120968  11.641  13.561  14.173
 6357SOL    HW220969  11.688  13.502  14.042
 6358SOL     OW20970   2.320   0.283   6.228
 6358SOL    HW120971   2.247   0.256   6.283
 6358SOL    HW220972   2.348   0.203   6.183
 6359SOL     OW20973   6.094  13.137   2.192
 6359SOL    HW120974   6.045  13.057   2.178
 6359SOL    HW220975   6.049  13.181   2.265
 6360SOL     OW20976   3.489   0.240  11.864
 6360SOL    HW120977   3.487   0.166  11.803
 6360SOL    HW220978   3.534   0.309  11.815
 6361SOL     OW20979  11.400   9.091  12.125
 6361SOL    HW120980  11.342   9.019  12.100
 6361SOL    HW220981  11.454   9.107  12.047
 6362SOL     OW20982  11.518   8.267   4.926
 6362SOL    HW120983  11.514   8.356   4.963
 6362SOL    HW220984  11.571   8.218   4.988
 6363SOL     OW20985   1.664   3.841   6.748
 6363SOL    HW120986   1.659   3.843   6.844
 6363SOL    HW220987   1.573   3.851   6.719
 6364SOL     OW20988  12.182  13.593   9.877
 6364SOL    HW120989  12.195  13.593   9.972
 6364SOL    HW220990  12.258  13.546   9.842
 6365SOL     OW20991  12.362  11.100  13.614
 6365SOL    HW120992  12.394  11.048  13.688
 6365SOL    HW220993  12.442  11.135  13.574
 6366SOL     OW20994   5.608   4.218  12.121
 6366SOL    HW120995   5.585   4.283  12.187
 6366SOL    HW220996   5.692   4.247  12.086
 6367SOL     OW20997  13.163   9.016   8.682
 6367SOL    HW120998  13.221   9.070   8.737
 6367SOL    HW220999  13.152   8.935   8.732
 6368SOL     OW21000   5.111   1.068   6.580
 6368SOL    HW121001   5.119   0.994   6.520
 6368SOL    HW221002   5.041   1.122   6.543
 6369SOL     OW21003   3.558  10.962   1.556
 6369SOL    HW121004   3.542  11.020   1.630
 6369SOL    HW221005   3.642  10.921   1.575
 6370SOL     OW21006  13.367   3.657   4.007
 6370SOL    HW121007  13.446   3.603   4.011
 6370SOL    HW221008  13.381   3.715   3.932
 6371SOL     OW21009  10.544  13.286   5.537
 6371SOL    HW121010  10.473  13.327   5.587
 6371SOL    HW221011  10.500  13.246   5.462
 6372SOL     OW21012   5.827  13.469  14.801
 6372SOL    HW121013   5.886  13.423  14.861
 6372SOL    HW221014   5.851  13.436  14.714
 6373SOL     OW21015   3.588  14.267   2.337
 6373SOL    HW121016   3.581  14.275   2.242
 6373SOL    HW221017   3.571  14.175   2.355
 6374SOL     OW21018   8.322   7.580   9.623
 6374SOL    HW121019   8.361   7.541   9.545
 6374SOL    HW221020   8.374   7.658   9.640
 6375SOL     OW21021   5.895   7.210   5.291
 6375SOL    HW121022   5.888   7.169   5.377
 6375SOL    HW221023   5.806   7.235   5.268
 6376SOL     OW21024  13.713   1.563   7.237
 6376SOL    HW121025  13.783   1.622   7.210
 6376SOL    HW221026  13.672   1.607   7.311
 6377SOL     OW21027  13.464   6.893   1.488
 6377SOL    HW121028  13.447   6.864   1.578
 6377SOL    HW221029  13.481   6.812   1.440
 6378SOL     OW21030  14.204   3.848   3.150
 6378SOL    HW121031  14.253   3.792   3.210
 6378SOL    HW221032  14.269   3.884   3.091
 6379SOL     OW21033   1.320   6.620  12.498
 6379SOL    HW121034   1.246   6.605  12.440
 6379SOL    HW221035   1.281   6.639  12.583
 6380SOL     OW21036   3.072   3.275   3.015
 6380SOL    HW121037   3.033   3.352   3.056
 6380SOL    HW221038   3.164   3.279   3.040
 6381SOL     OW21039   8.556   3.213   1.961
 6381SOL    HW121040   8.586   3.171   1.880
 6381SOL    HW221041   8.634   3.213   2.017
 6382SOL     OW21042   8.314  11.819  11.402
 6382SOL    HW121043   8.229  11.788  11.370
 6382SOL    HW221044   8.297  11.845  11.492
 6383SOL     OW21045   3.703   2.600  12.301
 6383SOL    HW121046   3.624   2.584  12.352
 6383SOL    HW221047   3.741   2.680  12.339
 6384SOL     OW21048   0.075   9.744   1.767
 6384SOL    HW121049   0.019   9.715   1.695
 6384SOL    HW221050   0.143   9.797   1.725
 6385SOL     OW21051  10.090  13.219   7.591
 6385SOL    HW121052  10.015  13.238   7.647
 6385SOL    HW221053  10.125  13.136   7.626
 6386SOL     OW21054   6.011   0.069   1.061
 6386SOL    HW121055   5.967   0.032   0.984
 6386SOL    HW221056   6.102   0.039   1.054
 6387SOL     OW21057   2.654   2.694   6.175
 6387SOL    HW121058   2.641   2.779   6.216
 6387SOL    HW221059   2.570   2.674   6.134
 6388SOL     OW21060   1.422   7.617   6.063
 6388SOL    HW121061   1.409   7.649   5.974
 6388SOL    HW221062   1.506   7.654   6.091
 6389SOL     OW21063  14.204   4.291   2.361
 6389SOL    HW121064  14.284   4.325   2.401
 6389SOL    HW221065  14.133   4.324   2.417
 6390SOL     OW21066  11.818   4.677   1.649
 6390SOL    HW121067  11.796   4.717   1.733
 6390SOL    HW221068  11.861   4.748   1.600
 6391SOL     OW21069  13.528  11.706   0.548
 6391SOL    HW121070  13.575  11.760   0.485
 6391SOL    HW221071  13.544  11.748   0.632
 6392SOL     OW21072  12.770   9.208   4.119
 6392SOL    HW121073  12.800   9.296   4.137
 6392SOL    HW221074  12.675   9.213   4.125
 6393SOL     OW21075  11.443   4.895   3.780
 6393SOL    HW121076  11.444   4.851   3.695
 6393SOL    HW221077  11.486   4.833   3.839
 6394SOL     OW21078   1.107   4.891   4.736
 6394SOL    HW121079   1.177   4.956   4.744
 6394SOL    HW221080   1.119   4.834   4.812
 6395SOL     OW21081  12.502  10.129   9.863
 6395SOL    HW121082  12.452  10.142   9.943
 6395SOL    HW221083  12.449  10.069   9.811
 6396SOL     OW21084   0.274  13.323   6.761
 6396SOL    HW121085   0.328  13.318   6.839
 6396SOL    HW221086   0.296  13.244   6.711
 6397SOL     OW21087   9.123   4.000  11.765
 6397SOL    HW121088   9.078   3.980  11.683
 6397SOL    HW221089   9.206   4.039  11.738
 6398SOL     OW21090  14.708   6.460  10.753
 6398SOL    HW121091  14.672   6.549  10.753
 6398SOL    HW221092  14.759   6.455  10.671
 6399SOL     OW21093  11.031   1.293   7.783
 6399SOL    HW121094  11.080   1.228   7.833
 6399SOL    HW221095  11.041   1.267   7.692
 6400SOL     OW21096   7.641   9.227   1.157
 6400SOL    HW121097   7.681   9.283   1.090
 6400SOL    HW221098   7.700   9.152   1.164
 6401SOL     OW21099   3.319  10.425   6.082
 6401SOL    HW121100   3.292  10.364   6.151
 6401SOL    HW221101   3.391  10.381   6.038
 6402SOL     OW21102  10.457   8.193   2.495
 6402SOL    HW121103  10.368   8.212   2.465
 6402SOL    HW221104  10.467   8.099   2.481
 6403SOL     OW21105   0.260   3.515  12.087
 6403SOL    HW121106   0.336   3.535  12.142
 6403SOL    HW221107   0.278   3.559  12.004
 6404SOL     OW21108   9.183   3.404   1.353
 6404SOL    HW121109   9.215   3.435   1.268
 6404SOL    HW221110   9.088   3.418   1.349
 6405SOL     OW21111  13.510   6.654   5.552
 6405SOL    HW121112  13.435   6.648   5.611
 6405SOL    HW221113  13.507   6.745   5.520
 6406SOL     OW21114  11.488  13.581   8.546
 6406SOL    HW121115  11.523  13.514   8.487
 6406SOL    HW221116  11.529  13.561   8.631
 6407SOL     OW21117   3.000   7.439   6.305
 6407SOL    HW121118   2.941   7.514   6.300
 6407SOL    HW221119   2.967   7.378   6.238
 6408SOL     OW21120  12.471  12.592   8.906
 6408SOL    HW121121  12.486  12.683   8.933
 6408SOL    HW221122  12.524  12.541   8.967
 6409SOL     OW21123   9.446  14.188   9.391
 6409SOL    HW121124   9.507  14.133   9.343
 6409SOL    HW221125   9.492  14.211   9.471
 6410SOL     OW21126   9.749  12.368  13.195
 6410SOL    HW121127   9.664  12.403  13.169
 6410SOL    HW221128   9.749  12.373  13.291
 6411SOL     OW21129   3.713   2.815   6.913
 6411SOL    HW121130   3.701   2.877   6.841
 6411SOL    HW221131   3.686   2.864   6.991
 6412SOL     OW21132  11.971   3.482  12.590
 6412SOL    HW121133  11.926   3.420  12.532
 6412SOL    HW221134  12.014   3.426  12.655
 6413SOL     OW21135   0.919   2.742   7.310
 6413SOL    HW121136   0.853   2.753   7.378
 6413SOL    HW221137   0.934   2.648   7.305
 6414SOL     OW21138  13.888   8.811  12.070
 6414SOL    HW121139  13.851   8.842  11.987
 6414SOL    HW221140  13.823   8.835  12.136
 6415SOL     OW21141   0.217  10.008   1.765
 6415SOL    HW121142   0.244  10.016   1.856
 6415SOL    HW221143   0.121  10.018   1.768
 6416SOL     OW21144  14.200  14.742   9.760
 6416SOL    HW121145  14.156  14.813   9.806
 6416SOL    HW221146  14.293  14.752   9.783
 6417SOL     OW21147   2.493  10.579   1.619
 6417SOL    HW121148   2.423  10.541   1.566
 6417SOL    HW221149   2.545  10.629   1.557
 6418SOL     OW21150   1.503   4.509   7.094
 6418SOL    HW121151   1.478   4.437   7.037
 6418SOL    HW221152   1.595   4.493   7.115
 6419SOL     OW21153   7.094  13.245   9.518
 6419SOL    HW121154   7.171  13.197   9.488
 6419SOL    HW221155   7.072  13.204   9.602
 6420SOL     OW21156   8.559   3.537   5.419
 6420SOL    HW121157   8.620   3.537   5.493
 6420SOL    HW221158   8.603   3.485   5.352
 6421SOL     OW21159   3.725  10.855   9.148
 6421SOL    HW121160   3.679  10.917   9.204
 6421SOL    HW221161   3.748  10.782   9.206
 6422SOL     OW21162   3.689   0.778   3.637
 6422SOL    HW121163   3.605   0.823   3.631
 6422SOL    HW221164   3.690   0.740   3.725
 6423SOL     OW21165  12.255   6.650  14.280
 6423SOL    HW121166  12.205   6.595  14.221
 6423SOL    HW221167  12.270   6.731  14.231
 6424SOL     OW21168  10.038  12.442   3.903
 6424SOL    HW121169  10.020  12.447   3.997
 6424SOL    HW221170  10.133  12.439   3.897
 6425SOL     OW21171  12.092   6.228   3.316
 6425SOL    HW121172  12.068   6.154   3.260
 6425SOL    HW221173  12.059   6.305   3.270
 6426SOL     OW21174  14.623   0.843   3.962
 6426SOL    HW121175  14.562   0.771   3.945
 6426SOL    HW221176  14.694   0.803   4.012
 6427SOL     OW21177   2.335  12.473   2.003
 6427SOL    HW121178   2.411  12.419   1.982
 6427SOL    HW221179   2.303  12.503   1.918
 6428SOL     OW21180  12.263  11.378   7.021
 6428SOL    HW121181  12.296  11.466   7.035
 6428SOL    HW221182  12.167  11.387   7.023
 6429SOL     OW21183  13.085  10.431  14.092
 6429SOL    HW121184  13.160  10.371  14.089
 6429SOL    HW221185  13.034  10.401  14.167
 6430SOL     OW21186   7.270   8.879   6.210
 6430SOL    HW121187   7.243   8.844   6.125
 6430SOL    HW221188   7.359   8.846   6.221
 6431SOL     OW21189   9.015   8.373  10.595
 6431SOL    HW121190   8.929   8.347  10.561
 6431SOL    HW221191   9.046   8.440  10.534
 6432SOL     OW21192   7.709   2.507  10.582
 6432SOL    HW121193   7.649   2.567  10.538
 6432SOL    HW221194   7.682   2.420  10.553
 6433SOL     OW21195   3.138  12.208   7.245
 6433SOL    HW121196   3.160  12.213   7.152
 6433SOL    HW221197   3.045  12.187   7.247
 6434SOL     OW21198   3.711   4.713  13.718
 6434SOL    HW121199   3.785   4.718  13.778
 6434SOL    HW221200   3.751   4.706  13.631
 6435SOL     OW21201   7.596   7.002   7.316
 6435SOL    HW121202   7.576   7.010   7.409
 6435SOL    HW221203   7.629   6.913   7.306
 6436SOL     OW21204   5.042   7.371  10.370
 6436SOL    HW121205   5.064   7.309  10.300
 6436SOL    HW221206   5.097   7.343  10.444
 6437SOL     OW21207   4.332   7.670  11.568
 6437SOL    HW121208   4.305   7.683  11.477
 6437SOL    HW221209   4.311   7.752  11.612
 6438SOL     OW21210   9.190   9.062  11.277
 6438SOL    HW121211   9.179   9.076  11.372
 6438SOL    HW221212   9.214   9.148  11.243
 6439SOL     OW21213  12.565  10.078  10.936
 6439SOL    HW121214  12.641  10.063  10.879
 6439SOL    HW221215  12.525   9.992  10.944
 6440SOL     OW21216   5.961  14.588   0.510
 6440SOL    HW121217   6.027  14.593   0.441
 6440SOL    HW221218   5.946  14.679   0.536
 6441SOL     OW21219   9.645  10.173   4.583
 6441SOL    HW121220   9.657  10.216   4.499
 6441SOL    HW221221   9.555  10.142   4.582
 6442SOL     OW21222   3.663  12.552  14.469
 6442SOL    HW121223   3.576  12.518  14.490
 6442SOL    HW221224   3.666  12.638  14.511
 6443SOL     OW21225  12.162   4.377  14.859
 6443SOL    HW121226  12.181   4.455   0.043
 6443SOL    HW221227  12.248   4.340  14.840
 6444SOL     OW21228   5.177   2.339  11.714
 6444SOL    HW121229   5.254   2.302  11.757
 6444SOL    HW221230   5.212   2.391  11.642
 6445SOL     OW21231   6.408   6.674  13.490
 6445SOL    HW121232   6.479   6.622  13.529
 6445SOL    HW221233   6.337   6.611  13.478
 6446SOL     OW21234   0.838   5.363  10.787
 6446SOL    HW121235   0.909   5.427  10.794
 6446SOL    HW221236   0.878   5.281  10.814
 6447SOL     OW21237   7.490   7.853   8.468
 6447SOL    HW121238   7.474   7.761   8.444
 6447SOL    HW221239   7.426   7.872   8.536
 6448SOL     OW21240   9.260   9.701   6.546
 6448SOL    HW121241   9.188   9.708   6.608
 6448SOL    HW221242   9.339   9.701   6.601
 6449SOL     OW21243   3.847   3.977   6.479
 6449SOL    HW121244   3.789   3.946   6.549
 6449SOL    HW221245   3.825   3.922   6.403
 6450SOL     OW21246   3.351   5.624   1.594
 6450SOL    HW121247   3.439   5.590   1.610
 6450SOL    HW221248   3.297   5.546   1.579
 6451SOL     OW21249   5.808   9.551   7.485
 6451SOL    HW121250   5.883   9.566   7.428
 6451SOL    HW221251   5.736   9.532   7.426
 6452SOL     OW21252  12.577   0.779  13.769
 6452SOL    HW121253  12.637   0.853  13.770
 6452SOL    HW221254  12.512   0.799  13.837
 6453SOL     OW21255  10.065   1.005  14.325
 6453SOL    HW121256  10.105   1.034  14.243
 6453SOL    HW221257  10.014   1.081  14.355
 6454SOL     OW21258   0.492   8.419  10.261
 6454SOL    HW121259   0.472   8.512  10.271
 6454SOL    HW221260   0.461   8.397  10.173
 6455SOL     OW21261   5.826  12.772   0.397
 6455SOL    HW121262   5.884  12.806   0.465
 6455SOL    HW221263   5.866  12.800   0.315
 6456SOL     OW21264   4.801   5.226  11.608
 6456SOL    HW121265   4.759   5.177  11.679
 6456SOL    HW221266   4.893   5.197  11.610
 6457SOL     OW21267   3.273  13.994  13.838
 6457SOL    HW121268   3.209  14.056  13.873
 6457SOL    HW221269   3.287  13.931  13.909
 6458SOL     OW21270  12.007   7.987  11.832
 6458SOL    HW121271  11.957   8.064  11.857
 6458SOL    HW221272  12.004   7.930  11.909
 6459SOL     OW21273  13.887  14.583  11.311
 6459SOL    HW121274  13.909  14.643  11.240
 6459SOL    HW221275  13.795  14.561  11.297
 6460SOL     OW21276   5.408   9.186  11.252
 6460SOL    HW121277   5.477   9.123  11.234
 6460SOL    HW221278   5.439   9.234  11.330
 6461SOL     OW21279   7.038   1.291   0.490
 6461SOL    HW121280   7.007   1.377   0.519
 6461SOL    HW221281   6.967   1.231   0.515
 6462SOL     OW21282   5.707   7.125   3.702
 6462SOL    HW121283   5.661   7.049   3.667
 6462SOL    HW221284   5.788   7.089   3.739
 6463SOL     OW21285   0.955  12.884  10.910
 6463SOL    HW121286   1.002  12.827  10.850
 6463SOL    HW221287   0.871  12.901  10.867
 6464SOL     OW21288   9.676   4.100  11.493
 6464SOL    HW121289   9.739   4.110  11.422
 6464SOL    HW221290   9.674   4.185  11.537
 6465SOL     OW21291  13.389  11.257   0.867
 6465SOL    HW121292  13.421  11.167   0.869
 6465SOL    HW221293  13.444  11.302   0.804
 6466SOL     OW21294   0.852  14.096  11.474
 6466SOL    HW121295   0.832  14.069  11.385
 6466SOL    HW221296   0.866  14.191  11.468
 6467SOL     OW21297   6.655  13.270  11.056
 6467SOL    HW121298   6.621  13.357  11.035
 6467SOL    HW221299   6.631  13.258  11.148
 6468SOL     OW21300   7.490  14.678  14.226
 6468SOL    HW121301   7.455  14.758  14.186
 6468SOL    HW221302   7.515  14.623  14.151
 6469SOL     OW21303   5.936   1.826  14.747
 6469SOL    HW121304   5.990   1.892  14.703
 6469SOL    HW221305   5.937   1.751  14.687
 6470SOL     OW21306  12.803   9.929   3.624
 6470SOL    HW121307  12.817   9.901   3.534
 6470SOL    HW221308  12.749   9.861   3.663
 6471SOL     OW21309   8.893   9.106   9.916
 6471SOL    HW121310   8.923   9.018   9.892
 6471SOL    HW221311   8.861   9.096  10.006
 6472SOL     OW21312  12.797  12.241  12.722
 6472SOL    HW121313  12.742  12.164  12.731
 6472SOL    HW221314  12.885  12.211  12.746
 6473SOL     OW21315  11.787   4.223  10.944
 6473SOL    HW121316  11.751   4.236  10.856
 6473SOL    HW221317  11.838   4.142  10.937
 6474SOL     OW21318  10.098   0.745  14.028
 6474SOL    HW121319  10.073   0.658  14.059
 6474SOL    HW221320  10.173   0.729  13.971
 6475SOL     OW21321  11.840   5.369   4.240
 6475SOL    HW121322  11.904   5.400   4.175
 6475SOL    HW221323  11.893   5.345   4.315
 6476SOL     OW21324  12.217   4.965   6.952
 6476SOL    HW121325  12.253   4.996   7.035
 6476SOL    HW221326  12.274   5.002   6.885
 6477SOL     OW21327  12.440   5.578   6.556
 6477SOL    HW121328  12.411   5.509   6.496
 6477SOL    HW221329  12.446   5.656   6.501
 6478SOL     OW21330   5.022  11.652  10.676
 6478SOL    HW121331   4.953  11.644  10.742
 6478SOL    HW221332   4.980  11.697  10.603
 6479SOL     OW21333  14.421   6.104   4.484
 6479SOL    HW121334  14.359   6.054   4.431
 6479SOL    HW221335  14.369   6.134   4.559
 6480SOL     OW21336   1.041  12.577   4.145
 6480SOL    HW121337   1.044  12.563   4.050
 6480SOL    HW221338   0.961  12.628   4.158
 6481SOL     OW21339  12.939  10.017   1.548
 6481SOL    HW121340  12.924   9.998   1.456
 6481SOL    HW221341  13.025   9.980   1.567
 6482SOL     OW21342  11.663   8.771   3.529
 6482SOL    HW121343  11.720   8.695   3.542
 6482SOL    HW221344  11.703   8.841   3.580
 6483SOL     OW21345  10.081  13.605  14.682
 6483SOL    HW121346  10.174  13.589  14.667
 6483SOL    HW221347  10.041  13.602  14.595
 6484SOL     OW21348  10.394   1.939   9.112
 6484SOL    HW121349  10.350   2.022   9.091
 6484SOL    HW221350  10.386   1.931   9.207
 6485SOL     OW21351   5.459   8.204  10.961
 6485SOL    HW121352   5.495   8.175  10.877
 6485SOL    HW221353   5.516   8.277  10.987
 6486SOL     OW21354  14.648   2.477   0.702
 6486SOL    HW121355  14.706   2.412   0.663
 6486SOL    HW221356  14.707   2.539   0.745
 6487SOL     OW21357  12.322  11.608   2.754
 6487SOL    HW121358  12.347  11.662   2.680
 6487SOL    HW221359  12.356  11.655   2.830
 6488SOL     OW21360   9.051   4.603  13.267
 6488SOL    HW121361   9.013   4.688  13.245
 6488SOL    HW221362   9.145   4.621  13.278
 6489SOL     OW21363   6.543  11.742   7.875
 6489SOL    HW121364   6.616  11.805   7.878
 6489SOL    HW221365   6.522  11.735   7.782
 6490SOL     OW21366   8.845  13.459   7.428
 6490SOL    HW121367   8.876  13.547   7.406
 6490SOL    HW221368   8.925  13.408   7.441
 6491SOL     OW21369   7.188   4.118   0.753
 6491SOL    HW121370   7.169   4.120   0.847
 6491SOL    HW221371   7.273   4.162   0.745
 6492SOL     OW21372  10.239   9.878  14.367
 6492SOL    HW121373  10.159   9.909  14.411
 6492SOL    HW221374  10.218   9.881  14.274
 6493SOL     OW21375   4.065  13.547   3.494
 6493SOL    HW121376   4.066  13.594   3.411
 6493SOL    HW221377   3.994  13.587   3.544
 6494SOL     OW21378   7.703   4.033   6.015
 6494SOL    HW121379   7.692   3.955   6.069
 6494SOL    HW221380   7.643   4.019   5.941
 6495SOL     OW21381  10.650   9.421  12.711
 6495SOL    HW121382  10.623   9.386  12.796
 6495SOL    HW221383  10.745   9.414  12.711
 6496SOL     OW21384   7.821   9.266   7.083
 6496SOL    HW121385   7.766   9.308   7.017
 6496SOL    HW221386   7.827   9.174   7.055
 6497SOL     OW21387   0.718  11.982  12.547
 6497SOL    HW121388   0.791  12.042  12.561
 6497SOL    HW221389   0.658  12.030  12.490
 6498SOL     OW21390   2.403  11.195   6.026
 6498SOL    HW121391   2.498  11.192   6.014
 6498SOL    HW221392   2.390  11.249   6.103
 6499SOL     OW21393   6.097   3.601   4.340
 6499SOL    HW121394   6.133   3.514   4.353
 6499SOL    HW221395   6.158   3.644   4.279
 6500SOL     OW21396   1.644  11.515  11.330
 6500SOL    HW121397   1.671  11.607  11.332
 6500SOL    HW221398   1.557  11.517  11.290
 6501SOL     OW21399   4.104   0.674   8.659
 6501SOL    HW121400   4.050   0.599   8.632
 6501SOL    HW221401   4.109   0.729   8.580
 6502SOL     OW21402   2.156   1.623  13.944
 6502SOL    HW121403   2.108   1.586  14.018
 6502SOL    HW221404   2.227   1.562  13.928
 6503SOL     OW21405  10.745  13.326   9.468
 6503SOL    HW121406  10.700  13.244   9.451
 6503SOL    HW221407  10.835  13.302   9.489
 6504SOL     OW21408   7.868  13.785   5.191
 6504SOL    HW121409   7.792  13.762   5.138
 6504SOL    HW221410   7.900  13.701   5.226
 6505SOL     OW21411   5.830   7.177  11.721
 6505SOL    HW121412   5.767   7.249  11.723
 6505SOL    HW221413   5.906   7.209  11.770
 6506SOL     OW21414   2.274   5.936   3.677
 6506SOL    HW121415   2.224   5.947   3.596
 6506SOL    HW221416   2.365   5.932   3.649
 6507SOL     OW21417   0.188   5.473   4.886
 6507SOL    HW121418   0.235   5.397   4.920
 6507SOL    HW221419   0.113   5.483   4.944
 6508SOL     OW21420  14.324  11.186  14.076
 6508SOL    HW121421  14.260  11.115  14.068
 6508SOL    HW221422  14.304  11.227  14.160
 6509SOL     OW21423   9.439  11.397   8.683
 6509SOL    HW121424   9.491  11.322   8.656
 6509SOL    HW221425   9.497  11.472   8.669
 6510SOL     OW21426  13.349   1.995   1.417
 6510SOL    HW121427  13.379   1.916   1.461
 6510SOL    HW221428  13.260   2.009   1.449
 6511SOL     OW21429   6.548   2.134   2.990
 6511SOL    HW121430   6.500   2.110   3.069
 6511SOL    HW221431   6.486   2.186   2.939
 6512SOL     OW21432   2.454  14.245   9.571
 6512SOL    HW121433   2.525  14.266   9.631
 6512SOL    HW221434   2.419  14.330   9.545
 6513SOL     OW21435  13.043   8.736   5.133
 6513SOL    HW121436  13.087   8.770   5.211
 6513SOL    HW221437  12.964   8.694   5.167
 6514SOL     OW21438  11.624   3.794  11.093
 6514SOL    HW121439  11.560   3.749  11.038
 6514SOL    HW221440  11.591   3.883  11.103
 6515SOL     OW21441   7.827   6.757   5.259
 6515SOL    HW121442   7.910   6.721   5.230
 6515SOL    HW221443   7.823   6.845   5.222
 6516SOL     OW21444  11.735   3.156  11.622
 6516SOL    HW121445  11.650   3.177  11.582
 6516SOL    HW221446  11.713   3.130  11.711
 6517SOL     OW21447   6.603   9.200  13.598
 6517SOL    HW121448   6.579   9.171  13.687
 6517SOL    HW221449   6.573   9.128  13.541
 6518SOL     OW21450  13.856  14.595  12.889
 6518SOL    HW121451  13.946  14.591  12.921
 6518SOL    HW221452  13.831  14.687  12.898
 6519SOL     OW21453   1.402   3.282   6.100
 6519SOL    HW121454   1.433   3.345   6.035
 6519SOL    HW221455   1.336   3.231   6.053
 6520SOL     OW21456   2.774   4.505   4.219
 6520SOL    HW121457   2.860   4.493   4.179
 6520SOL    HW221458   2.783   4.586   4.269
 6521SOL     OW21459   4.689   3.059   9.477
 6521SOL    HW121460   4.759   3.108   9.518
 6521SOL    HW221461   4.674   3.104   9.394
 6522SOL     OW21462  13.641   5.405  12.212
 6522SOL    HW121463  13.653   5.432  12.121
 6522SOL    HW221464  13.728   5.379  12.242
 6523SOL     OW21465   3.133   3.093   2.339
 6523SOL    HW121466   3.107   3.003   2.318
 6523SOL    HW221467   3.228   3.091   2.342
 6524SOL     OW21468  10.483  13.465  14.042
 6524SOL    HW121469  10.557  13.452  13.982
 6524SOL    HW221470  10.413  13.497  13.986
 6525SOL     OW21471  10.119  10.566  11.418
 6525SOL    HW121472  10.154  10.560  11.506
 6525SOL    HW221473  10.142  10.654  11.389
 6526SOL     OW21474  14.609   3.459   6.818
 6526SOL    HW121475  14.602   3.403   6.740
 6526SOL    HW221476  14.534   3.434   6.872
 6527SOL     OW21477   4.635   7.361   3.427
 6527SOL    HW121478   4.598   7.449   3.428
 6527SOL    HW221479   4.559   7.303   3.426
 6528SOL     OW21480   9.963   3.943   2.435
 6528SOL    HW121481  10.041   3.906   2.478
 6528SOL    HW221482   9.948   4.026   2.481
 6529SOL     OW21483   8.869   1.079   7.516
 6529SOL    HW121484   8.855   0.985   7.504
 6529SOL    HW221485   8.925   1.104   7.442
 6530SOL     OW21486   6.838   4.713  10.399
 6530SOL    HW121487   6.847   4.618  10.392
 6530SOL    HW221488   6.797   4.727  10.484
 6531SOL     OW21489   4.206  11.060  13.697
 6531SOL    HW121490   4.137  11.117  13.664
 6531SOL    HW221491   4.247  11.111  13.767
 6532SOL     OW21492   5.528   2.553  14.032
 6532SOL    HW121493   5.457   2.587  14.087
 6532SOL    HW221494   5.542   2.464  14.063
 6533SOL     OW21495   0.168   0.605  13.155
 6533SOL    HW121496   0.095   0.651  13.196
 6533SOL    HW221497   0.165   0.633  13.063
 6534SOL     OW21498   2.235   7.364   1.378
 6534SOL    HW121499   2.325   7.351   1.346
 6534SOL    HW221500   2.180   7.321   1.313
 6535SOL     OW21501   6.856   7.243  10.588
 6535SOL    HW121502   6.849   7.217  10.496
 6535SOL    HW221503   6.865   7.161  10.636
 6536SOL     OW21504   1.348   3.240  10.356
 6536SOL    HW121505   1.444   3.237  10.356
 6536SOL    HW221506   1.326   3.269  10.445
 6537SOL     OW21507   8.835   1.417   4.108
 6537SOL    HW121508   8.877   1.450   4.188
 6537SOL    HW221509   8.753   1.379   4.139
 6538SOL     OW21510   2.632   2.949   3.052
 6538SOL    HW121511   2.558   3.001   3.022
 6538SOL    HW221512   2.605   2.915   3.137
 6539SOL     OW21513   7.149  12.667   7.819
 6539SOL    HW121514   7.138  12.614   7.897
 6539SOL    HW221515   7.143  12.605   7.746
 6540SOL     OW21516   0.647  10.796   0.400
 6540SOL    HW121517   0.650  10.862   0.469
 6540SOL    HW221518   0.600  10.838   0.328
 6541SOL     OW21519   5.091  13.274  13.929
 6541SOL    HW121520   5.173  13.226  13.936
 6541SOL    HW221521   5.074  13.280  13.835
 6542SOL     OW21522   7.491   5.144   2.443
 6542SOL    HW121523   7.480   5.166   2.351
 6542SOL    HW221524   7.541   5.218   2.479
 6543SOL     OW21525   8.618  10.212  14.190
 6543SOL    HW121526   8.608  10.295  14.143
 6543SOL    HW221527   8.627  10.237  14.281
 6544SOL     OW21528   6.529  11.319  11.666
 6544SOL    HW121529   6.437  11.295  11.676
 6544SOL    HW221530   6.549  11.371  11.744
 6545SOL     OW21531   3.902  10.013  14.255
 6545SOL    HW121532   3.976   9.974  14.301
 6545SOL    HW221533   3.825   9.981  14.302
 6546SOL     OW21534  11.938   5.860  14.106
 6546SOL    HW121535  11.988   5.839  14.027
 6546SOL    HW221536  12.000   5.904  14.163
 6547SOL     OW21537  14.269  13.589   4.185
 6547SOL    HW121538  14.269  13.496   4.206
 6547SOL    HW221539  14.295  13.632   4.266
 6548SOL     OW21540  12.465  11.680   4.594
 6548SOL    HW121541  12.435  11.705   4.507
 6548SOL    HW221542  12.509  11.596   4.581
 6549SOL     OW21543   5.058  10.758   8.549
 6549SOL    HW121544   5.003  10.834   8.567
 6549SOL    HW221545   5.117  10.753   8.624
 6550SOL     OW21546   9.556   5.950   3.708
 6550SOL    HW121547   9.639   5.996   3.700
 6550SOL    HW221548   9.527   5.968   3.798
 6551SOL     OW21549   2.848   3.760  12.850
 6551SOL    HW121550   2.760   3.723  12.853
 6551SOL    HW221551   2.854   3.817  12.926
 6552SOL     OW21552   3.784  11.267  12.213
 6552SOL    HW121553   3.698  11.287  12.176
 6552SOL    HW221554   3.766  11.245  12.304
 6553SOL     OW21555  14.277  11.910  10.450
 6553SOL    HW121556  14.221  11.952  10.384
 6553SOL    HW221557  14.219  11.848  10.495
 6554SOL     OW21558   5.606   4.590   8.461
 6554SOL    HW121559   5.684   4.609   8.409
 6554SOL    HW221560   5.618   4.500   8.491
 6555SOL     OW21561   7.292  12.148  11.986
 6555SOL    HW121562   7.228  12.143  12.058
 6555SOL    HW221563   7.376  12.131  12.028
 6556SOL     OW21564  11.293   7.160   5.089
 6556SOL    HW121565  11.330   7.123   5.008
 6556SOL    HW221566  11.204   7.125   5.093
 6557SOL     OW21567   6.874   9.077   0.159
 6557SOL    HW121568   6.963   9.097   0.129
 6557SOL    HW221569   6.887   9.035   0.244
 6558SOL     OW21570  13.523   8.018   3.724
 6558SOL    HW121571  13.436   8.029   3.685
 6558SOL    HW221572  13.530   8.091   3.787
 6559SOL     OW21573  12.596   5.798  13.446
 6559SOL    HW121574  12.590   5.783  13.540
 6559SOL    HW221575  12.636   5.884  13.438
 6560SOL     OW21576   8.303  13.165  11.702
 6560SOL    HW121577   8.396  13.157  11.683
 6560SOL    HW221578   8.277  13.078  11.733
 6561SOL     OW21579   6.142  11.328   9.417
 6561SOL    HW121580   6.096  11.365   9.341
 6561SOL    HW221581   6.225  11.295   9.381
 6562SOL     OW21582   9.152   7.692  12.080
 6562SOL    HW121583   9.227   7.724  12.130
 6562SOL    HW221584   9.192   7.649  12.004
 6563SOL     OW21585  12.427   4.838   7.957
 6563SOL    HW121586  12.427   4.892   7.878
 6563SOL    HW221587  12.335   4.834   7.983
 6564SOL     OW21588   2.929   5.963   8.346
 6564SOL    HW121589   2.848   5.936   8.302
 6564SOL    HW221590   2.899   6.022   8.416
 6565SOL     OW21591   3.358  11.126   8.102
 6565SOL    HW121592   3.341  11.094   8.190
 6565SOL    HW221593   3.401  11.053   8.058
 6566SOL     OW21594   4.544   1.514  10.554
 6566SOL    HW121595   4.576   1.507  10.644
 6566SOL    HW221596   4.457   1.474  10.556
 6567SOL     OW21597  10.471   6.472  11.383
 6567SOL    HW121598  10.502   6.508  11.300
 6567SOL    HW221599  10.489   6.541  11.447
 6568SOL     OW21600  12.292  11.990   3.543
 6568SOL    HW121601  12.277  12.062   3.605
 6568SOL    HW221602  12.218  11.995   3.483
 6569SOL     OW21603   7.024  14.148   8.162
 6569SOL    HW121604   6.962  14.172   8.092
 6569SOL    HW221605   7.045  14.231   8.205
 6570SOL     OW21606  13.629  11.749   7.737
 6570SOL    HW121607  13.662  11.773   7.823
 6570SOL    HW221608  13.554  11.692   7.754
 6571SOL     OW21609   8.346   4.819   3.214
 6571SOL    HW121610   8.392   4.876   3.276
 6571SOL    HW221611   8.270   4.788   3.263
 6572SOL     OW21612   2.759  12.780   4.555
 6572SOL    HW121613   2.814  12.723   4.502
 6572SOL    HW221614   2.669  12.750   4.538
 6573SOL     OW21615   5.593   8.700  11.313
 6573SOL    HW121616   5.680   8.694  11.354
 6573SOL    HW221617   5.532   8.701  11.387
 6574SOL     OW21618   8.389  12.167  10.805
 6574SOL    HW121619   8.358  12.253  10.834
 6574SOL    HW221620   8.483  12.167  10.825
 6575SOL     OW21621  10.173   2.141   0.072
 6575SOL    HW121622  10.133   2.109   0.153
 6575SOL    HW221623  10.187   2.062   0.020
 6576SOL     OW21624   7.105  10.771   9.250
 6576SOL    HW121625   7.103  10.793   9.343
 6576SOL    HW221626   7.048  10.695   9.242
 6577SOL     OW21627  11.719   2.318  14.321
 6577SOL    HW121628  11.668   2.301  14.400
 6577SOL    HW221629  11.782   2.246  14.317
 6578SOL     OW21630   8.958  12.453   0.395
 6578SOL    HW121631   8.895  12.477   0.463
 6578SOL    HW221632   8.979  12.536   0.352
 6579SOL     OW21633  14.400  11.978  13.231
 6579SOL    HW121634  14.392  11.883  13.245
 6579SOL    HW221635  14.377  12.017  13.315
 6580SOL     OW21636  14.599   8.247  10.277
 6580SOL    HW121637  14.668   8.187  10.307
 6580SOL    HW221638  14.530   8.238  10.342
 6581SOL     OW21639  12.731   7.389   0.267
 6581SOL    HW121640  12.820   7.409   0.237
 6581SOL    HW221641  12.743   7.319   0.332
 6582SOL     OW21642  14.600   3.705   6.943
 6582SOL    HW121643  14.636   3.778   6.893
 6582SOL    HW221644  14.626   3.627   6.893
 6583SOL     OW21645   8.741   4.424  13.147
 6583SOL    HW121646   8.773   4.430  13.237
 6583SOL    HW221647   8.751   4.332  13.123
 6584SOL     OW21648   2.324   0.246  12.356
 6584SOL    HW121649   2.255   0.206  12.303
 6584SOL    HW221650   2.397   0.184  12.349
 6585SOL     OW21651   3.867  10.602  11.104
 6585SOL    HW121652   3.962  10.593  11.094
 6585SOL    HW221653   3.841  10.526  11.155
 6586SOL     OW21654  14.461  10.863  11.812
 6586SOL    HW121655  14.390  10.898  11.759
 6586SOL    HW221656  14.420  10.793  11.863
 6587SOL     OW21657   7.971   6.461   5.343
 6587SOL    HW121658   7.987   6.494   5.255
 6587SOL    HW221659   7.876   6.447   5.347
 6588SOL     OW21660   2.820  13.403   2.490
 6588SOL    HW121661   2.876  13.349   2.435
 6588SOL    HW221662   2.731  13.383   2.460
 6589SOL     OW21663  14.681   5.027  12.548
 6589SOL    HW121664  14.662   4.934  12.542
 6589SOL    HW221665  14.609   5.069  12.502
 6590SOL     OW21666   2.339   0.106   3.456
 6590SOL    HW121667   2.410   0.042   3.450
 6590SOL    HW221668   2.364   0.176   3.395
 6591SOL     OW21669   1.324   7.761   2.016
 6591SOL    HW121670   1.332   7.707   1.937
 6591SOL    HW221671   1.241   7.735   2.056
 6592SOL     OW21672   9.346   7.181  12.043
 6592SOL    HW121673   9.364   7.097  12.000
 6592SOL    HW221674   9.273   7.218  11.994
 6593SOL     OW21675   1.138   2.275   5.169
 6593SOL    HW121676   1.115   2.333   5.097
 6593SOL    HW221677   1.174   2.333   5.236
 6594SOL     OW21678  10.426  10.733   3.768
 6594SOL    HW121679  10.419  10.829   3.768
 6594SOL    HW221680  10.346  10.703   3.724
 6595SOL     OW21681   7.616   8.128   8.836
 6595SOL    HW121682   7.523   8.143   8.852
 6595SOL    HW221683   7.630   8.157   8.746
 6596SOL     OW21684   9.129  10.277   4.120
 6596SOL    HW121685   9.105  10.312   4.206
 6596SOL    HW221686   9.194  10.209   4.139
 6597SOL     OW21687   0.648  11.158   7.177
 6597SOL    HW121688   0.555  11.142   7.197
 6597SOL    HW221689   0.668  11.241   7.221
 6598SOL     OW21690  12.125   6.211  10.449
 6598SOL    HW121691  12.079   6.164  10.380
 6598SOL    HW221692  12.106   6.161  10.529
 6599SOL     OW21693   1.754   1.937   8.309
 6599SOL    HW121694   1.694   1.922   8.236
 6599SOL    HW221695   1.702   1.920   8.387
 6600SOL     OW21696   2.014   1.733   1.920
 6600SOL    HW121697   2.062   1.665   1.968
 6600SOL    HW221698   2.067   1.811   1.930
 6601SOL     OW21699  12.486   8.187   3.178
 6601SOL    HW121700  12.509   8.096   3.160
 6601SOL    HW221701  12.566   8.236   3.160
 6602SOL     OW21702  14.013  10.824   9.142
 6602SOL    HW121703  14.005  10.919   9.144
 6602SOL    HW221704  13.933  10.792   9.184
 6603SOL     OW21705   2.919  13.348   4.603
 6603SOL    HW121706   2.991  13.290   4.625
 6603SOL    HW221707   2.909  13.404   4.680
 6604SOL     OW21708   8.110   3.769   5.973
 6604SOL    HW121709   8.205   3.767   5.960
 6604SOL    HW221710   8.074   3.722   5.899
 6605SOL     OW21711   4.788  11.197   3.044
 6605SOL    HW121712   4.793  11.147   2.962
 6605SOL    HW221713   4.822  11.138   3.111
 6606SOL     OW21714  14.421  12.173   0.643
 6606SOL    HW121715  14.441  12.183   0.736
 6606SOL    HW221716  14.472  12.241   0.600
 6607SOL     OW21717  10.658  13.769   3.470
 6607SOL    HW121718  10.684  13.734   3.384
 6607SOL    HW221719  10.725  13.736   3.530
 6608SOL     OW21720   5.582  12.023  11.629
 6608SOL    HW121721   5.488  12.022  11.614
 6608SOL    HW221722   5.618  12.080  11.561
 6609SOL     OW21723  11.746   4.178   9.391
 6609SOL    HW121724  11.731   4.269   9.366
 6609SOL    HW221725  11.667   4.132   9.364
 6610SOL     OW21726   5.704   0.830   7.930
 6610SOL    HW121727   5.642   0.875   7.987
 6610SOL    HW221728   5.761   0.899   7.896
 6611SOL     OW21729  10.380  10.573  13.297
 6611SOL    HW121730  10.325  10.625  13.355
 6611SOL    HW221731  10.334  10.489  13.289
 6612SOL     OW21732   9.052   4.081   3.442
 6612SOL    HW121733   9.030   3.997   3.402
 6612SOL    HW221734   9.059   4.062   3.535
 6613SOL     OW21735   6.364  10.608   9.828
 6613SOL    HW121736   6.292  10.554   9.860
 6613SOL    HW221737   6.363  10.686   9.884
 6614SOL     OW21738  10.019   2.489   9.041
 6614SOL    HW121739   9.983   2.577   9.031
 6614SOL    HW221740  10.113   2.502   9.052
 6615SOL     OW21741   7.511   3.914   4.830
 6615SOL    HW121742   7.474   3.875   4.909
 6615SOL    HW221743   7.584   3.968   4.861
 6616SOL     OW21744   9.235  13.282  12.858
 6616SOL    HW121745   9.270  13.370  12.846
 6616SOL    HW221746   9.265  13.256  12.945
 6617SOL     OW21747  12.357   3.128   2.459
 6617SOL    HW121748  12.436   3.157   2.414
 6617SOL    HW221749  12.304   3.207   2.469
 6618SOL     OW21750   9.709   1.922   8.282
 6618SOL    HW121751   9.753   1.914   8.197
 6618SOL    HW221752   9.758   1.862   8.339
 6619SOL     OW21753   7.001   1.108   6.552
 6619SOL    HW121754   6.944   1.058   6.494
 6619SOL    HW221755   6.950   1.120   6.632
 6620SOL     OW21756   1.745   9.364   2.907
 6620SOL    HW121757   1.775   9.320   2.987
 6620SOL    HW221758   1.782   9.452   2.913
 6621SOL     OW21759   8.869   1.759  11.153
 6621SOL    HW121760   8.931   1.699  11.112
 6621SOL    HW221761   8.885   1.844  11.111
 6622SOL     OW21762   5.987  11.799  13.848
 6622SOL    HW121763   5.909  11.772  13.798
 6622SOL    HW221764   6.059  11.792  13.786
 6623SOL     OW21765   8.423   2.637   3.637
 6623SOL    HW121766   8.421   2.646   3.542
 6623SOL    HW221767   8.344   2.586   3.657
 6624SOL     OW21768   9.576   3.180   6.056
 6624SOL    HW121769   9.567   3.199   5.962
 6624SOL    HW221770   9.543   3.091   6.066
 6625SOL     OW21771   4.660   3.663   3.661
 6625SOL    HW121772   4.650   3.690   3.569
 6625SOL    HW221773   4.577   3.620   3.682
 6626SOL     OW21774   9.933   8.998   4.666
 6626SOL    HW121775   9.977   8.916   4.688
 6626SOL    HW221776   9.978   9.064   4.718
 6627SOL     OW21777   5.722   9.363   6.226
 6627SOL    HW121778   5.772   9.281   6.231
 6627SOL    HW221779   5.770   9.417   6.164
 6628SOL     OW21780  14.599   0.063  13.020
 6628SOL    HW121781  14.636   0.103  13.098
 6628SOL    HW221782  14.607   0.130  12.952
 6629SOL     OW21783  12.969  13.384  14.539
 6629SOL    HW121784  13.016  13.465  14.520
 6629SOL    HW221785  12.890  13.388  14.486
 6630SOL     OW21786   4.456   0.400  10.121
 6630SOL    HW121787   4.449   0.459  10.046
 6630SOL    HW221788   4.535   0.349  10.104
 6631SOL     OW21789   1.068   3.406   9.396
 6631SOL    HW121790   1.049   3.329   9.342
 6631SOL    HW221791   0.989   3.459   9.391
 6632SOL     OW21792   8.293   5.656   3.437
 6632SOL    HW121793   8.211   5.612   3.460
 6632SOL    HW221794   8.349   5.586   3.403
 6633SOL     OW21795  10.358   3.804   0.120
 6633SOL    HW121796  10.345   3.760   0.035
 6633SOL    HW221797  10.444   3.774   0.150
 6634SOL     OW21798   1.421   5.554  10.035
 6634SOL    HW121799   1.441   5.636  10.081
 6634SOL    HW221800   1.328   5.560  10.016
 6635SOL     OW21801  12.306  12.723  11.779
 6635SOL    HW121802  12.254  12.704  11.858
 6635SOL    HW221803  12.337  12.637  11.750
 6636SOL     OW21804   3.368   6.254   7.416
 6636SOL    HW121805   3.374   6.342   7.454
 6636SOL    HW221806   3.440   6.250   7.353
 6637SOL     OW21807   9.881  11.173   6.650
 6637SOL    HW121808   9.924  11.103   6.601
 6637SOL    HW221809   9.953  11.224   6.687
 6638SOL     OW21810   4.764  14.814   4.809
 6638SOL    HW121811   4.794   0.002   4.737
 6638SOL    HW221812   4.754   0.006   4.883
 6639SOL     OW21813   3.531   4.415   9.592
 6639SOL    HW121814   3.534   4.331   9.637
 6639SOL    HW221815   3.445   4.451   9.616
 6640SOL     OW21816   4.350  10.646   5.684
 6640SOL    HW121817   4.298  10.674   5.608
 6640SOL    HW221818   4.285  10.634   5.753
 6641SOL     OW21819  11.667   1.847  13.069
 6641SOL    HW121820  11.669   1.931  13.114
 6641SOL    HW221821  11.757   1.833  13.039
 6642SOL     OW21822  11.815   9.159   1.127
 6642SOL    HW121823  11.884   9.224   1.138
 6642SOL    HW221824  11.737   9.210   1.105
 6643SOL     OW21825   7.372   5.863   6.089
 6643SOL    HW121826   7.418   5.883   6.171
 6643SOL    HW221827   7.390   5.937   6.032
 6644SOL     OW21828  11.238  10.624   8.581
 6644SOL    HW121829  11.151  10.585   8.577
 6644SOL    HW221830  11.222  10.719   8.579
 6645SOL     OW21831   1.074  13.391  13.458
 6645SOL    HW121832   1.033  13.472  13.428
 6645SOL    HW221833   1.083  13.402  13.553
 6646SOL     OW21834  14.718   7.644  10.481
 6646SOL    HW121835  14.673   7.629  10.398
 6646SOL    HW221836  14.751   7.557  10.506
 6647SOL     OW21837  14.656  14.721   1.128
 6647SOL    HW121838  14.628  14.640   1.084
 6647SOL    HW221839  14.622  14.713   1.217
 6648SOL     OW21840  10.294  10.831  11.563
 6648SOL    HW121841  10.295  10.927  11.561
 6648SOL    HW221842  10.271  10.805  11.474
 6649SOL     OW21843   9.426   6.444   1.741
 6649SOL    HW121844   9.406   6.445   1.834
 6649SOL    HW221845   9.515   6.410   1.736
 6650SOL     OW21846  14.180   8.792  12.103
 6650SOL    HW121847  14.247   8.726  12.085
 6650SOL    HW221848  14.097   8.746  12.093
 6651SOL     OW21849   6.360   7.558   9.929
 6651SOL    HW121850   6.380   7.540  10.021
 6651SOL    HW221851   6.418   7.631   9.906
 6652SOL     OW21852  12.663   6.219   4.740
 6652SOL    HW121853  12.662   6.131   4.779
 6652SOL    HW221854  12.594   6.266   4.786
 6653SOL     OW21855   9.845   4.734  11.294
 6653SOL    HW121856   9.933   4.766  11.272
 6653SOL    HW221857   9.793   4.752  11.215
 6654SOL     OW21858   6.190  13.705   0.331
 6654SOL    HW121859   6.197  13.609   0.335
 6654SOL    HW221860   6.237  13.728   0.251
 6655SOL     OW21861   5.501  12.642   0.866
 6655SOL    HW121862   5.556  12.698   0.921
 6655SOL    HW221863   5.459  12.702   0.805
 6656SOL     OW21864  13.811  11.651   7.020
 6656SOL    HW121865  13.780  11.645   7.110
 6656SOL    HW221866  13.904  11.631   7.025
 6657SOL     OW21867   0.061  13.867   5.393
 6657SOL    HW121868   0.012  13.887   5.313
 6657SOL    HW221869   0.003  13.895   5.464
 6658SOL     OW21870   5.011  14.783   2.801
 6658SOL    HW121871   5.002  14.862   2.748
 6658SOL    HW221872   4.961  14.801   2.880
 6659SOL     OW21873   8.540   6.805   3.423
 6659SOL    HW121874   8.539   6.876   3.359
 6659SOL    HW221875   8.448   6.793   3.447
 6660SOL     OW21876   9.777  14.450  10.218
 6660SOL    HW121877   9.750  14.419  10.304
 6660SOL    HW221878   9.747  14.382  10.157
 6661SOL     OW21879   0.047  12.189  11.755
 6661SOL    HW121880   0.119  12.252  11.750
 6661SOL    HW221881  14.839  12.236  11.720
 6662SOL     OW21882  10.479   9.852  11.817
 6662SOL    HW121883  10.401   9.825  11.865
 6662SOL    HW221884  10.448   9.870  11.729
 6663SOL     OW21885   9.836  10.839  12.996
 6663SOL    HW121886   9.787  10.770  13.042
 6663SOL    HW221887   9.770  10.896  12.959
 6664SOL     OW21888  11.330  14.846  12.161
 6664SOL    HW121889  11.384  14.822  12.236
 6664SOL    HW221890  11.246   0.003  12.199
 6665SOL     OW21891   8.780  12.638   9.784
 6665SOL    HW121892   8.848  12.694   9.747
 6665SOL    HW221893   8.722  12.698   9.831
 6666SOL     OW21894  11.278  14.466   4.215
 6666SOL    HW121895  11.348  14.524   4.245
 6666SOL    HW221896  11.227  14.520   4.154
 6667SOL     OW21897   7.584   2.852   1.908
 6667SOL    HW121898   7.608   2.929   1.857
 6667SOL    HW221899   7.641   2.783   1.875
 6668SOL     OW21900   3.033   0.417   3.673
 6668SOL    HW121901   2.985   0.449   3.749
 6668SOL    HW221902   3.051   0.326   3.693
 6669SOL     OW21903   3.221   2.199   8.954
 6669SOL    HW121904   3.152   2.185   9.020
 6669SOL    HW221905   3.208   2.289   8.924
 6670SOL     OW21906  11.679   2.957  14.608
 6670SOL    HW121907  11.703   2.866  14.623
 6670SOL    HW221908  11.587   2.963  14.635
 6671SOL     OW21909  14.497  11.649   9.178
 6671SOL    HW121910  14.586  11.686   9.173
 6671SOL    HW221911  14.490  11.595   9.099
 6672SOL     OW21912   9.998  12.718   0.695
 6672SOL    HW121913  10.011  12.729   0.601
 6672SOL    HW221914   9.919  12.664   0.703
 6673SOL     OW21915   0.940  11.522  13.937
 6673SOL    HW121916   0.947  11.527  14.032
 6673SOL    HW221917   1.008  11.460  13.911
 6674SOL     OW21918   5.147   1.398   5.778
 6674SOL    HW121919   5.207   1.392   5.852
 6674SOL    HW221920   5.087   1.324   5.790
 6675SOL     OW21921  13.888   4.376  13.068
 6675SOL    HW121922  13.908   4.416  12.983
 6675SOL    HW221923  13.966   4.392  13.121
 6676SOL     OW21924   0.808  12.150   2.688
 6676SOL    HW121925   0.865  12.219   2.654
 6676SOL    HW221926   0.746  12.133   2.617
 6677SOL     OW21927   2.373  10.244  12.590
 6677SOL    HW121928   2.467  10.264  12.598
 6677SOL    HW221929   2.352  10.196  12.670
 6678SOL     OW21930   5.126  12.822   7.459
 6678SOL    HW121931   5.068  12.895   7.437
 6678SOL    HW221932   5.214  12.859   7.454
 6679SOL     OW21933  14.033   0.217  10.990
 6679SOL    HW121934  14.103   0.185  11.047
 6679SOL    HW221935  14.045   0.312  10.989
 6680SOL     OW21936  10.690   6.462   4.771
 6680SOL    HW121937  10.651   6.517   4.704
 6680SOL    HW221938  10.719   6.383   4.724
 6681SOL     OW21939  10.135   2.428   0.829
 6681SOL    HW121940  10.045   2.411   0.800
 6681SOL    HW221941  10.188   2.368   0.777
 6682SOL     OW21942   9.082  11.372   3.363
 6682SOL    HW121943   9.081  11.303   3.296
 6682SOL    HW221944   9.090  11.453   3.313
 6683SOL     OW21945   5.543  14.838  10.809
 6683SOL    HW121946   5.579  14.785  10.738
 6683SOL    HW221947   5.453  14.858  10.781
 6684SOL     OW21948   6.492   4.138  11.833
 6684SOL    HW121949   6.559   4.130  11.901
 6684SOL    HW221950   6.451   4.223  11.848
 6685SOL     OW21951   8.012  13.116   1.244
 6685SOL    HW121952   7.987  13.037   1.292
 6685SOL    HW221953   7.950  13.183   1.275
 6686SOL     OW21954   2.053  12.214  10.228
 6686SOL    HW121955   2.104  12.156  10.285
 6686SOL    HW221956   2.003  12.155  10.172
 6687SOL     OW21957   8.888  13.995   7.345
 6687SOL    HW121958   8.840  14.063   7.393
 6687SOL    HW221959   8.919  13.935   7.412
 6688SOL     OW21960  11.946  13.159  10.908
 6688SOL    HW121961  11.854  13.135  10.899
 6688SOL    HW221962  11.984  13.141  10.822
 6689SOL     OW21963   8.420  12.879   0.284
 6689SOL    HW121964   8.486  12.818   0.252
 6689SOL    HW221965   8.467  12.961   0.297
 6690SOL     OW21966   7.533   3.594   2.239
 6690SOL    HW121967   7.467   3.532   2.269
 6690SOL    HW221968   7.486   3.651   2.178
 6691SOL     OW21969   7.542  10.125   8.050
 6691SOL    HW121970   7.532  10.127   7.955
 6691SOL    HW221971   7.471  10.068   8.080
 6692SOL     OW21972   6.538   4.343   5.450
 6692SOL    HW121973   6.616   4.289   5.442
 6692SOL    HW221974   6.570   4.432   5.457
 6693SOL     OW21975  12.629   3.681  11.028
 6693SOL    HW121976  12.608   3.588  11.030
 6693SOL    HW221977  12.719   3.686  11.062
 6694SOL     OW21978   3.323   1.501  11.388
 6694SOL    HW121979   3.402   1.507  11.335
 6694SOL    HW221980   3.350   1.530  11.475
 6695SOL     OW21981   5.297   0.132   1.879
 6695SOL    HW121982   5.324   0.154   1.790
 6695SOL    HW221983   5.261   0.214   1.914
 6696SOL     OW21984   5.428   0.066   2.202
 6696SOL    HW121985   5.483   0.131   2.159
 6696SOL    HW221986   5.445  14.853   2.154
 6697SOL     OW21987  13.431   3.699   3.731
 6697SOL    HW121988  13.459   3.789   3.748
 6697SOL    HW221989  13.483   3.671   3.656
 6698SOL     OW21990  10.089  13.316   2.171
 6698SOL    HW121991  10.126  13.296   2.085
 6698SOL    HW221992  10.130  13.253   2.231
 6699SOL     OW21993   4.468  10.919   9.847
 6699SOL    HW121994   4.394  10.861   9.866
 6699SOL    HW221995   4.518  10.922   9.929
 6700SOL     OW21996   6.706   2.520   8.808
 6700SOL    HW121997   6.708   2.426   8.787
 6700SOL    HW221998   6.628   2.531   8.862
 6701SOL     OW21999   5.562   9.391  14.624
 6701SOL    HW122000   5.648   9.417  14.658
 6701SOL    HW222001   5.538   9.315  14.676
 6702SOL     OW22002   0.404   9.442  10.773
 6702SOL    HW122003   0.497   9.450  10.750
 6702SOL    HW222004   0.404   9.425  10.867
 6703SOL     OW22005  12.525  14.040   8.480
 6703SOL    HW122006  12.546  14.015   8.390
 6703SOL    HW222007  12.487  14.127   8.473
 6704SOL     OW22008   0.929   1.293   1.391
 6704SOL    HW122009   0.924   1.244   1.309
 6704SOL    HW222010   1.022   1.317   1.399
 6705SOL     OW22011   9.536  11.737   7.884
 6705SOL    HW122012   9.514  11.806   7.821
 6705SOL    HW222013   9.454  11.719   7.930
 6706SOL     OW22014  10.124   9.183  11.564
 6706SOL    HW122015  10.212   9.162  11.598
 6706SOL    HW222016  10.116   9.278  11.577
 6707SOL     OW22017  11.961   3.896   0.041
 6707SOL    HW122018  12.052   3.888   0.013
 6707SOL    HW222019  11.936   3.985   0.014
 6708SOL     OW22020  10.210   0.624  11.344
 6708SOL    HW122021  10.151   0.679  11.395
 6708SOL    HW222022  10.232   0.676  11.267
 6709SOL     OW22023  14.442  13.822   3.800
 6709SOL    HW122024  14.392  13.880   3.743
 6709SOL    HW222025  14.527  13.814   3.758
 6710SOL     OW22026   3.525   7.589   7.619
 6710SOL    HW122027   3.453   7.640   7.581
 6710SOL    HW222028   3.603   7.621   7.575
 6711SOL     OW22029   7.444   4.244  13.313
 6711SOL    HW122030   7.522   4.283  13.273
 6711SOL    HW222031   7.461   4.246  13.407
 6712SOL     OW22032   8.016   3.958   8.290
 6712SOL    HW122033   8.028   4.053   8.284
 6712SOL    HW222034   7.976   3.945   8.376
 6713SOL     OW22035   6.381   4.317   9.442
 6713SOL    HW122036   6.331   4.253   9.392
 6713SOL    HW222037   6.315   4.376   9.479
 6714SOL     OW22038   6.171   0.304   3.540
 6714SOL    HW122039   6.180   0.400   3.542
 6714SOL    HW222040   6.191   0.276   3.629
 6715SOL     OW22041   7.203   4.349  13.264
 6715SOL    HW122042   7.157   4.293  13.327
 6715SOL    HW222043   7.293   4.318  13.266
 6716SOL     OW22044   4.614   6.283   5.234
 6716SOL    HW122045   4.700   6.301   5.272
 6716SOL    HW222046   4.568   6.367   5.239
 6717SOL     OW22047   7.705   8.090  10.503
 6717SOL    HW122048   7.628   8.047  10.466
 6717SOL    HW222049   7.770   8.019  10.513
 6718SOL     OW22050   4.640  13.095   0.712
 6718SOL    HW122051   4.587  13.025   0.674
 6718SOL    HW222052   4.607  13.175   0.670
 6719SOL     OW22053   1.453  13.694   3.888
 6719SOL    HW122054   1.522  13.745   3.846
 6719SOL    HW222055   1.374  13.745   3.875
 6720SOL     OW22056   8.532  13.662   2.393
 6720SOL    HW122057   8.439  13.664   2.414
 6720SOL    HW222058   8.571  13.608   2.461
 6721SOL     OW22059   2.988   7.720   1.858
 6721SOL    HW122060   3.021   7.804   1.825
 6721SOL    HW222061   2.962   7.738   1.948
 6722SOL     OW22062  12.115   2.387  13.226
 6722SOL    HW122063  12.105   2.379  13.321
 6722SOL    HW222064  12.026   2.383  13.192
 6723SOL     OW22065   0.921  11.621   8.925
 6723SOL    HW122066   0.999  11.572   8.953
 6723SOL    HW222067   0.867  11.555   8.881
 6724SOL     OW22068   0.327  13.770  13.934
 6724SOL    HW122069   0.405  13.746  13.985
 6724SOL    HW222070   0.363  13.805  13.852
 6725SOL     OW22071   4.149   1.531   2.969
 6725SOL    HW122072   4.231   1.566   2.933
 6725SOL    HW222073   4.177   1.461   3.028
 6726SOL     OW22074   7.624   3.386   3.865
 6726SOL    HW122075   7.582   3.302   3.842
 6726SOL    HW222076   7.560   3.452   3.839
 6727SOL     OW22077   2.085   8.392  12.469
 6727SOL    HW122078   2.004   8.413  12.423
 6727SOL    HW222079   2.064   8.316  12.523
 6728SOL     OW22080  14.264   7.691   8.429
 6728SOL    HW122081  14.295   7.781   8.439
 6728SOL    HW222082  14.197   7.681   8.497
 6729SOL     OW22083   5.377   4.689   3.982
 6729SOL    HW122084   5.319   4.705   3.907
 6729SOL    HW222085   5.444   4.758   3.974
 6730SOL     OW22086   2.886  10.367  13.227
 6730SOL    HW122087   2.823  10.424  13.271
 6730SOL    HW222088   2.902  10.410  13.143
 6731SOL     OW22089   1.140   3.482   5.622
 6731SOL    HW122090   1.075   3.549   5.603
 6731SOL    HW222091   1.221   3.516   5.585
 6732SOL     OW22092  11.896   4.161   0.620
 6732SOL    HW122093  11.875   4.151   0.527
 6732SOL    HW222094  11.887   4.255   0.637
 6733SOL     OW22095   4.638   1.206   2.545
 6733SOL    HW122096   4.617   1.283   2.492
 6733SOL    HW222097   4.616   1.232   2.634
 6734SOL     OW22098  12.264   8.290   7.422
 6734SOL    HW122099  12.267   8.226   7.492
 6734SOL    HW222100  12.177   8.330   7.429
 6735SOL     OW22101   6.236   6.648   6.703
 6735SOL    HW122102   6.276   6.568   6.668
 6735SOL    HW222103   6.232   6.634   6.798
 6736SOL     OW22104   3.098   0.979  14.304
 6736SOL    HW122105   3.086   1.059  14.252
 6736SOL    HW222106   3.147   0.921  14.246
 6737SOL     OW22107  13.846   4.939   5.317
 6737SOL    HW122108  13.886   4.984   5.241
 6737SOL    HW222109  13.908   4.955   5.388
 6738SOL     OW22110   4.955   1.338  13.056
 6738SOL    HW122111   4.951   1.317  12.962
 6738SOL    HW222112   4.865   1.362  13.079
 6739SOL     OW22113   4.330   4.306  14.841
 6739SOL    HW122114   4.318   4.397  14.813
 6739SOL    HW222115   4.285   4.254  14.775
 6740SOL     OW22116   4.375   5.016   1.974
 6740SOL    HW122117   4.314   4.945   1.991
 6740SOL    HW222118   4.330   5.073   1.912
 6741SOL     OW22119   5.137   5.955  11.062
 6741SOL    HW122120   5.140   5.955  10.967
 6741SOL    HW222121   5.203   5.892  11.089
 6742SOL     OW22122  10.191   3.662  13.449
 6742SOL    HW122123  10.218   3.583  13.496
 6742SOL    HW222124  10.133   3.630  13.380
 6743SOL     OW22125   3.947  10.254   8.134
 6743SOL    HW122126   3.873  10.197   8.111
 6743SOL    HW222127   4.011  10.238   8.065
 6744SOL     OW22128   1.494   8.665   1.496
 6744SOL    HW122129   1.431   8.685   1.565
 6744SOL    HW222130   1.579   8.669   1.541
 6745SOL     OW22131   4.066   7.447  14.727
 6745SOL    HW122132   4.074   7.367  14.676
 6745SOL    HW222133   3.971   7.459  14.738
 6746SOL     OW22134   6.639   7.896  13.184
 6746SOL    HW122135   6.642   7.812  13.137
 6746SOL    HW222136   6.657   7.873  13.275
 6747SOL     OW22137   0.227   2.914  12.288
 6747SOL    HW122138   0.198   2.826  12.264
 6747SOL    HW222139   0.152   2.953  12.333
 6748SOL     OW22140   2.892   1.252  13.370
 6748SOL    HW122141   2.974   1.245  13.321
 6748SOL    HW222142   2.830   1.196  13.323
 6749SOL     OW22143   8.220   1.507  10.009
 6749SOL    HW122144   8.313   1.506  10.033
 6749SOL    HW222145   8.176   1.465  10.082
 6750SOL     OW22146   3.389   7.410   9.156
 6750SOL    HW122147   3.315   7.438   9.210
 6750SOL    HW222148   3.445   7.360   9.215
 6751SOL     OW22149   3.558   7.405   5.216
 6751SOL    HW122150   3.509   7.390   5.135
 6751SOL    HW222151   3.650   7.394   5.191
 6752SOL     OW22152  14.211   0.709   9.930
 6752SOL    HW122153  14.138   0.735   9.875
 6752SOL    HW222154  14.246   0.791   9.964
 6753SOL     OW22155  10.481   4.915   3.327
 6753SOL    HW122156  10.502   4.824   3.349
 6753SOL    HW222157  10.390   4.927   3.353
 6754SOL     OW22158   3.248   8.185   2.659
 6754SOL    HW122159   3.259   8.115   2.595
 6754SOL    HW222160   3.291   8.152   2.738
 6755SOL     OW22161   4.143  10.729   9.234
 6755SOL    HW122162   4.066  10.781   9.213
 6755SOL    HW222163   4.216  10.791   9.232
 6756SOL     OW22164   3.177   4.024   1.972
 6756SOL    HW122165   3.109   3.983   2.024
 6756SOL    HW222166   3.178   3.974   1.890
 6757SOL     OW22167   2.730   4.976   1.666
 6757SOL    HW122168   2.782   4.951   1.589
 6757SOL    HW222169   2.796   5.003   1.731
 6758SOL     OW22170   2.663  14.155   8.538
 6758SOL    HW122171   2.730  14.198   8.591
 6758SOL    HW222172   2.675  14.191   8.450
 6759SOL     OW22173   1.570   4.276   1.364
 6759SOL    HW122174   1.479   4.293   1.389
 6759SOL    HW222175   1.611   4.241   1.444
 6760SOL     OW22176  12.044   1.001  12.352
 6760SOL    HW122177  12.054   1.065  12.421
 6760SOL    HW222178  12.133   0.981  12.325
 6761SOL     OW22179   3.786   2.075  10.412
 6761SOL    HW122180   3.876   2.106  10.398
 6761SOL    HW222181   3.738   2.102  10.334
 6762SOL     OW22182   7.066   4.416  14.667
 6762SOL    HW122183   7.043   4.508  14.680
 6762SOL    HW222184   7.018   4.392  14.587
 6763SOL     OW22185  13.426   1.751   1.568
 6763SOL    HW122186  13.375   1.679   1.606
 6763SOL    HW222187  13.517   1.720   1.570
 6764SOL     OW22188  14.526   0.559  12.806
 6764SOL    HW122189  14.474   0.540  12.728
 6764SOL    HW222190  14.472   0.530  12.879
 6765SOL     OW22191   6.075   7.399   9.784
 6765SOL    HW122192   6.068   7.305   9.767
 6765SOL    HW222193   6.123   7.433   9.708
 6766SOL     OW22194   5.747   1.533  12.843
 6766SOL    HW122195   5.712   1.462  12.896
 6766SOL    HW222196   5.799   1.586  12.903
 6767SOL     OW22197  11.896  11.209   4.076
 6767SOL    HW122198  11.838  11.237   4.147
 6767SOL    HW222199  11.859  11.249   3.997
 6768SOL     OW22200   6.407  10.620  13.164
 6768SOL    HW122201   6.467  10.594  13.233
 6768SOL    HW222202   6.381  10.537  13.123
 6769SOL     OW22203  14.353   7.371   7.374
 6769SOL    HW122204  14.388   7.451   7.335
 6769SOL    HW222205  14.258   7.379   7.363
 6770SOL     OW22206  10.251  14.305   5.577
 6770SOL    HW122207  10.288  14.294   5.665
 6770SOL    HW222208  10.197  14.384   5.583
 6771SOL     OW22209  10.599  14.218   5.175
 6771SOL    HW122210  10.597  14.289   5.112
 6771SOL    HW222211  10.564  14.256   5.256
 6772SOL     OW22212   3.119   2.877   6.811
 6772SOL    HW122213   3.053   2.907   6.747
 6772SOL    HW222214   3.115   2.782   6.805
 6773SOL     OW22215   3.176  14.574  13.501
 6773SOL    HW122216   3.253  14.584  13.444
 6773SOL    HW222217   3.101  14.590  13.443
 6774SOL     OW22218   0.177  12.802  13.109
 6774SOL    HW122219   0.254  12.800  13.166
 6774SOL    HW222220   0.204  12.753  13.031
 6775SOL     OW22221  14.554   6.451  10.198
 6775SOL    HW122222  14.612   6.470  10.125
 6775SOL    HW222223  14.542   6.356  10.195
 6776SOL     OW22224   9.500  12.652   8.114
 6776SOL    HW122225   9.504  12.647   8.210
 6776SOL    HW222226   9.538  12.570   8.084
 6777SOL     OW22227  13.366  12.186  13.231
 6777SOL    HW122228  13.364  12.135  13.150
 6777SOL    HW222229  13.459  12.202  13.247
 6778SOL     OW22230   6.017   4.662   8.895
 6778SOL    HW122231   6.034   4.738   8.839
 6778SOL    HW222232   5.925   4.671   8.920
 6779SOL     OW22233   1.667  11.785  14.010
 6779SOL    HW122234   1.659  11.691  13.994
 6779SOL    HW222235   1.752  11.808  13.973
 6780SOL     OW22236  10.110   0.088  11.314
 6780SOL    HW122237  10.141   0.174  11.287
 6780SOL    HW222238  10.105   0.093  11.410
 6781SOL     OW22239   9.915  14.323   1.456
 6781SOL    HW122240   9.858  14.392   1.489
 6781SOL    HW222241   9.885  14.309   1.366
 6782SOL     OW22242   0.559  10.748   3.256
 6782SOL    HW122243   0.504  10.826   3.262
 6782SOL    HW222244   0.647  10.780   3.274
 6783SOL     OW22245   2.630  12.236   0.952
 6783SOL    HW122246   2.678  12.191   0.882
 6783SOL    HW222247   2.672  12.205   1.033
 6784SOL     OW22248   4.535   4.788   0.540
 6784SOL    HW122249   4.512   4.852   0.608
 6784SOL    HW222250   4.630   4.783   0.544
 6785SOL     OW22251   5.426   2.905   1.277
 6785SOL    HW122252   5.340   2.932   1.310
 6785SOL    HW222253   5.408   2.825   1.228
 6786SOL     OW22254   3.224   9.348  14.295
 6786SOL    HW122255   3.263   9.266  14.325
 6786SOL    HW222256   3.189   9.328  14.209
 6787SOL     OW22257   1.760  10.640  14.694
 6787SOL    HW122258   1.802  10.600  14.617
 6787SOL    HW222259   1.747  10.731  14.669
 6788SOL     OW22260   2.233  14.709   2.329
 6788SOL    HW122261   2.262  14.738   2.415
 6788SOL    HW222262   2.313  14.709   2.275
 6789SOL     OW22263  14.604   8.452   8.240
 6789SOL    HW122264  14.597   8.437   8.146
 6789SOL    HW222265  14.686   8.501   8.250
 6790SOL     OW22266   3.383  13.548  13.484
 6790SOL    HW122267   3.447  13.500  13.432
 6790SOL    HW222268   3.404  13.528  13.575
 6791SOL     OW22269   6.565  14.430   5.861
 6791SOL    HW122270   6.556  14.523   5.882
 6791SOL    HW222271   6.617  14.428   5.781
 6792SOL     OW22272   7.705  13.397   7.692
 6792SOL    HW122273   7.744  13.311   7.677
 6792SOL    HW222274   7.726  13.417   7.784
 6793SOL     OW22275   2.692  10.124   7.797
 6793SOL    HW122276   2.749  10.047   7.792
 6793SOL    HW222277   2.606  10.092   7.769
 6794SOL     OW22278   7.762   0.567   9.404
 6794SOL    HW122279   7.757   0.661   9.420
 6794SOL    HW222280   7.854   0.550   9.384
 6795SOL     OW22281   2.776   7.402  11.987
 6795SOL    HW122282   2.804   7.366  12.071
 6795SOL    HW222283   2.731   7.330  11.943
 6796SOL     OW22284   6.849  11.794   6.635
 6796SOL    HW122285   6.889  11.709   6.654
 6796SOL    HW222286   6.918  11.858   6.656
 6797SOL     OW22287   1.080  10.905  11.509
 6797SOL    HW122288   1.002  10.857  11.481
 6797SOL    HW222289   1.119  10.937  11.428
 6798SOL     OW22290   2.384   2.938   4.074
 6798SOL    HW122291   2.386   2.942   4.170
 6798SOL    HW222292   2.439   3.011   4.046
 6799SOL     OW22293   0.920   7.979   1.503
 6799SOL    HW122294   0.915   8.014   1.592
 6799SOL    HW222295   1.009   7.946   1.495
 6800SOL     OW22296   1.798   9.899   5.687
 6800SOL    HW122297   1.799   9.994   5.673
 6800SOL    HW222298   1.713   9.882   5.728
 6801SOL     OW22299   2.042   3.243  11.240
 6801SOL    HW122300   2.058   3.329  11.279
 6801SOL    HW222301   2.048   3.258  11.145
 6802SOL     OW22302   3.170   7.716   6.875
 6802SOL    HW122303   3.183   7.654   6.947
 6802SOL    HW222304   3.186   7.802   6.914
 6803SOL     OW22305   3.031   4.961   2.644
 6803SOL    HW122306   3.121   4.984   2.620
 6803SOL    HW222307   2.981   4.978   2.565
 6804SOL     OW22308  14.653   0.294  12.856
 6804SOL    HW122309  14.726   0.294  12.794
 6804SOL    HW222310  14.618   0.383  12.852
 6805SOL     OW22311   6.499  12.039   2.434
 6805SOL    HW122312   6.504  12.038   2.338
 6805SOL    HW222313   6.436  11.970   2.456
 6806SOL     OW22314   5.908  13.247   9.244
 6806SOL    HW122315   5.976  13.181   9.233
 6806SOL    HW222316   5.838  13.202   9.292
 6807SOL     OW22317   7.495   9.662   1.503
 6807SOL    HW122318   7.547   9.709   1.438
 6807SOL    HW222319   7.454   9.591   1.455
 6808SOL     OW22320   3.239  11.720  13.573
 6808SOL    HW122321   3.205  11.774  13.501
 6808SOL    HW222322   3.330  11.746  13.582
 6809SOL     OW22323   9.881  10.217  14.022
 6809SOL    HW122324   9.860  10.303  14.058
 6809SOL    HW222325   9.800  10.190  13.977
 6810SOL     OW22326  11.558   6.871   2.933
 6810SOL    HW122327  11.618   6.923   2.986
 6810SOL    HW222328  11.478   6.866   2.986
 6811SOL     OW22329   2.786   1.115  10.462
 6811SOL    HW122330   2.720   1.049  10.440
 6811SOL    HW222331   2.850   1.110  10.391
 6812SOL     OW22332   1.352  14.632   4.673
 6812SOL    HW122333   1.408  14.663   4.745
 6812SOL    HW222334   1.392  14.669   4.594
 6813SOL     OW22335   7.270   6.249   8.196
 6813SOL    HW122336   7.285   6.343   8.185
 6813SOL    HW222337   7.285   6.212   8.109
 6814SOL     OW22338   8.215   6.617   4.190
 6814SOL    HW122339   8.130   6.586   4.220
 6814SOL    HW222340   8.250   6.667   4.264
 6815SOL     OW22341   3.980   1.986  12.169
 6815SOL    HW122342   4.044   1.978  12.240
 6815SOL    HW222343   3.999   2.070  12.129
 6816SOL     OW22344   8.855   1.803  10.195
 6816SOL    HW122345   8.787   1.854  10.151
 6816SOL    HW222346   8.933   1.815  10.141
 6817SOL     OW22347   7.253   5.730   1.865
 6817SOL    HW122348   7.198   5.802   1.833
 6817SOL    HW222349   7.232   5.657   1.807
 6818SOL     OW22350   6.120   9.124  14.216
 6818SOL    HW122351   6.177   9.201  14.219
 6818SOL    HW222352   6.085   9.117  14.305
 6819SOL     OW22353   5.539  12.064   0.217
 6819SOL    HW122354   5.465  12.070   0.277
 6819SOL    HW222355   5.600  12.004   0.261
 6820SOL     OW22356   9.671   7.500   4.824
 6820SOL    HW122357   9.695   7.440   4.894
 6820SOL    HW222358   9.576   7.504   4.827
 6821SOL     OW22359   2.642   7.493  14.270
 6821SOL    HW122360   2.583   7.424  14.240
 6821SOL    HW222361   2.595   7.534  14.343
 6822SOL     OW22362   7.860  14.276  12.499
 6822SOL    HW122363   7.800  14.348  12.518
 6822SOL    HW222364   7.941  14.301  12.542
 6823SOL     OW22365   6.189   1.176   4.103
 6823SOL    HW122366   6.157   1.087   4.116
 6823SOL    HW222367   6.121   1.219   4.052
 6824SOL     OW22368   7.334   6.145   5.030
 6824SOL    HW122369   7.321   6.233   4.995
 6824SOL    HW222370   7.429   6.131   5.024
 6825SOL     OW22371  10.041   8.902   0.581
 6825SOL    HW122372  10.117   8.889   0.637
 6825SOL    HW222373   9.967   8.867   0.631
 6826SOL     OW22374   9.752   0.256   6.163
 6826SOL    HW122375   9.783   0.301   6.242
 6826SOL    HW222376   9.781   0.166   6.174
 6827SOL     OW22377   0.798   7.355  11.599
 6827SOL    HW122378   0.786   7.265  11.570
 6827SOL    HW222379   0.843   7.348  11.683
 6828SOL     OW22380  10.481  11.286   0.395
 6828SOL    HW122381  10.468  11.260   0.303
 6828SOL    HW222382  10.421  11.360   0.407
 6829SOL     OW22383  11.816  14.612   6.448
 6829SOL    HW122384  11.907  14.581   6.446
 6829SOL    HW222385  11.764  14.532   6.450
 6830SOL     OW22386   3.122   3.661  14.484
 6830SOL    HW122387   3.197   3.610  14.515
 6830SOL    HW222388   3.071   3.600  14.431
 6831SOL     OW22389  10.357   0.523   8.625
 6831SOL    HW122390  10.338   0.538   8.718
 6831SOL    HW222391  10.278   0.481   8.591
 6832SOL     OW22392   1.603   1.518   8.010
 6832SOL    HW122393   1.547   1.440   8.002
 6832SOL    HW222394   1.587   1.568   7.930
 6833SOL     OW22395   9.065   6.650   1.549
 6833SOL    HW122396   9.160   6.646   1.540
 6833SOL    HW222397   9.041   6.568   1.592
 6834SOL     OW22398   7.485  10.076   4.811
 6834SOL    HW122399   7.459  10.066   4.720
 6834SOL    HW222400   7.405  10.057   4.861
 6835SOL     OW22401   2.830  11.514  13.193
 6835SOL    HW122402   2.923  11.501  13.174
 6835SOL    HW222403   2.819  11.480  13.282
 6836SOL     OW22404  13.292   6.264  12.246
 6836SOL    HW122405  13.264   6.307  12.327
 6836SOL    HW222406  13.370   6.215  12.271
 6837SOL     OW22407   1.126   8.501   1.941
 6837SOL    HW122408   1.083   8.446   1.875
 6837SOL    HW222409   1.135   8.443   2.017
 6838SOL     OW22410  11.713   2.655   5.651
 6838SOL    HW122411  11.669   2.720   5.595
 6838SOL    HW222412  11.661   2.654   5.731
 6839SOL     OW22413   1.512   5.133  13.401
 6839SOL    HW122414   1.555   5.073  13.462
 6839SOL    HW222415   1.584   5.174  13.352
 6840SOL     OW22416   9.343   4.830  10.980
 6840SOL    HW122417   9.380   4.770  11.044
 6840SOL    HW222418   9.298   4.897  11.031
 6841SOL     OW22419   7.930   8.765   9.469
 6841SOL    HW122420   7.870   8.804   9.532
 6841SOL    HW222421   7.964   8.687   9.513
 6842SOL     OW22422   2.302   7.463  10.340
 6842SOL    HW122423   2.374   7.401  10.335
 6842SOL    HW222424   2.343   7.545  10.368
 6843SOL     OW22425   0.117  11.978  14.522
 6843SOL    HW122426   0.032  12.022  14.528
 6843SOL    HW222427   0.096  11.887  14.505
 6844SOL     OW22428  11.876   3.274   1.922
 6844SOL    HW122429  11.846   3.231   1.841
 6844SOL    HW222430  11.883   3.366   1.899
 6845SOL     OW22431   5.018  13.683  14.398
 6845SOL    HW122432   5.055  13.716  14.480
 6845SOL    HW222433   5.075  13.719  14.330
 6846SOL     OW22434  13.969   8.664   3.373
 6846SOL    HW122435  13.941   8.580   3.337
 6846SOL    HW222436  14.045   8.690   3.320
 6847SOL     OW22437   8.392  11.861  12.352
 6847SOL    HW122438   8.417  11.943  12.395
 6847SOL    HW222439   8.298  11.871  12.334
 6848SOL     OW22440   1.322  12.648   9.996
 6848SOL    HW122441   1.305  12.703   9.920
 6848SOL    HW222442   1.245  12.592  10.003
 6849SOL     OW22443   4.285  10.229   5.252
 6849SOL    HW122444   4.318  10.149   5.293
 6849SOL    HW222445   4.288  10.211   5.158
 6850SOL     OW22446   7.958  11.507   0.621
 6850SOL    HW122447   7.892  11.438   0.632
 6850SOL    HW222448   8.037  11.470   0.659
 6851SOL     OW22449   6.876   7.647   1.051
 6851SOL    HW122450   6.951   7.592   1.073
 6851SOL    HW222451   6.858   7.697   1.131
 6852SOL     OW22452   1.189   3.637   1.995
 6852SOL    HW122453   1.103   3.602   1.972
 6852SOL    HW222454   1.210   3.698   1.925
 6853SOL     OW22455   6.887  13.882  14.846
 6853SOL    HW122456   6.975  13.847  14.858
 6853SOL    HW222457   6.842  13.815  14.793
 6854SOL     OW22458   1.109   6.687   9.220
 6854SOL    HW122459   1.083   6.737   9.298
 6854SOL    HW222460   1.062   6.729   9.148
 6855SOL     OW22461   3.216   6.063  14.813
 6855SOL    HW122462   3.288   6.126  14.809
 6855SOL    HW222463   3.252   5.988  14.860
 6856SOL     OW22464   9.377   1.981   3.148
 6856SOL    HW122465   9.363   1.976   3.053
 6856SOL    HW222466   9.302   2.030   3.180
 6857SOL     OW22467   9.831   4.203  14.433
 6857SOL    HW122468   9.835   4.210  14.338
 6857SOL    HW222469   9.782   4.122  14.450
 6858SOL     OW22470   5.943  10.824   4.859
 6858SOL    HW122471   5.913  10.741   4.821
 6858SOL    HW222472   5.980  10.798   4.944
 6859SOL     OW22473   3.319   4.451  10.418
 6859SOL    HW122474   3.256   4.381  10.401
 6859SOL    HW222475   3.350   4.477  10.332
 6860SOL     OW22476   0.154   9.899   7.219
 6860SOL    HW122477   0.067   9.912   7.257
 6860SOL    HW222478   0.178   9.985   7.184
 6861SOL     OW22479   3.604   0.074   1.196
 6861SOL    HW122480   3.697   0.089   1.178
 6861SOL    HW222481   3.561   0.084   1.111
 6862SOL     OW22482   8.958   2.542   9.609
 6862SOL    HW122483   8.910   2.500   9.681
 6862SOL    HW222484   9.042   2.497   9.607
 6863SOL     OW22485  10.030   0.523   6.609
 6863SOL    HW122486  10.101   0.460   6.614
 6863SOL    HW222487  10.071   0.608   6.627
 6864SOL     OW22488  13.970   5.238   9.378
 6864SOL    HW122489  13.927   5.311   9.423
 6864SOL    HW222490  13.975   5.266   9.286
 6865SOL     OW22491   8.754   7.272  13.887
 6865SOL    HW122492   8.724   7.245  13.973
 6865SOL    HW222493   8.706   7.352  13.868
 6866SOL     OW22494  10.286   6.074  12.116
 6866SOL    HW122495  10.325   5.988  12.103
 6866SOL    HW222496  10.260   6.102  12.028
 6867SOL     OW22497   4.822   6.018  11.878
 6867SOL    HW122498   4.765   6.047  11.949
 6867SOL    HW222499   4.763   5.973  11.817
 6868SOL     OW22500   4.241   8.370   5.276
 6868SOL    HW122501   4.260   8.283   5.310
 6868SOL    HW222502   4.314   8.389   5.216
 6869SOL     OW22503   2.273   2.893  12.196
 6869SOL    HW122504   2.326   2.966  12.162
 6869SOL    HW222505   2.243   2.847  12.118
 6870SOL     OW22506  14.451   3.714   3.853
 6870SOL    HW122507  14.423   3.681   3.767
 6870SOL    HW222508  14.466   3.635   3.905
 6871SOL     OW22509  12.876  13.963   3.087
 6871SOL    HW122510  12.826  13.964   3.169
 6871SOL    HW222511  12.954  13.911   3.107
 6872SOL     OW22512   5.677   3.096   4.581
 6872SOL    HW122513   5.602   3.080   4.639
 6872SOL    HW222514   5.719   3.174   4.618
 6873SOL     OW22515   3.318  10.310   5.447
 6873SOL    HW122516   3.339  10.218   5.461
 6873SOL    HW222517   3.336  10.324   5.354
 6874SOL     OW22518   1.473   1.357  13.491
 6874SOL    HW122519   1.405   1.395  13.435
 6874SOL    HW222520   1.469   1.263  13.473
 6875SOL     OW22521   0.343  14.215   0.868
 6875SOL    HW122522   0.416  14.166   0.831
 6875SOL    HW222523   0.313  14.162   0.942
 6876SOL     OW22524   4.021  11.331   2.710
 6876SOL    HW122525   4.009  11.396   2.641
 6876SOL    HW222526   4.027  11.247   2.664
 6877SOL     OW22527   5.314   1.180  10.117
 6877SOL    HW122528   5.383   1.233  10.156
 6877SOL    HW222529   5.360   1.109  10.073
 6878SOL     OW22530   0.491  13.690   9.611
 6878SOL    HW122531   0.546  13.768   9.620
 6878SOL    HW222532   0.551  13.616   9.625
 6879SOL     OW22533   7.025   0.631  11.666
 6879SOL    HW122534   7.067   0.675  11.740
 6879SOL    HW222535   7.022   0.539  11.691
 6880SOL     OW22536  10.117   0.094  12.419
 6880SOL    HW122537  10.161   0.131  12.342
 6880SOL    HW222538  10.112   0.167  12.481
 6881SOL     OW22539   3.047   4.539   3.698
 6881SOL    HW122540   2.992   4.510   3.625
 6881SOL    HW222541   3.135   4.545   3.661
 6882SOL     OW22542  11.513  13.379   9.627
 6882SOL    HW122543  11.541  13.292   9.655
 6882SOL    HW222544  11.590  13.435   9.641
 6883SOL     OW22545  14.319  13.740   2.615
 6883SOL    HW122546  14.241  13.744   2.559
 6883SOL    HW222547  14.284  13.729   2.704
 6884SOL     OW22548   5.035   5.820   6.394
 6884SOL    HW122549   5.095   5.814   6.320
 6884SOL    HW222550   4.993   5.734   6.399
 6885SOL     OW22551   4.778   4.421  12.317
 6885SOL    HW122552   4.747   4.486  12.380
 6885SOL    HW222553   4.873   4.429  12.318
 6886SOL     OW22554   1.124   2.276   4.103
 6886SOL    HW122555   1.073   2.198   4.080
 6886SOL    HW222556   1.129   2.326   4.021
 6887SOL     OW22557   6.988   4.473   5.435
 6887SOL    HW122558   6.909   4.501   5.482
 6887SOL    HW222559   7.018   4.396   5.484
 6888SOL     OW22560   3.147  11.508   1.200
 6888SOL    HW122561   3.202  11.526   1.277
 6888SOL    HW222562   3.174  11.574   1.136
 6889SOL     OW22563   0.420  12.031   7.344
 6889SOL    HW122564   0.465  11.951   7.318
 6889SOL    HW222565   0.417  12.027   7.440
 6890SOL     OW22566   0.640   7.108   6.930
 6890SOL    HW122567   0.668   7.179   6.987
 6890SOL    HW222568   0.578   7.057   6.982
 6891SOL     OW22569   3.904   0.186  10.842
 6891SOL    HW122570   3.826   0.150  10.883
 6891SOL    HW222571   3.960   0.109  10.826
 6892SOL     OW22572   9.288   0.568  12.699
 6892SOL    HW122573   9.300   0.630  12.771
 6892SOL    HW222574   9.367   0.513  12.701
 6893SOL     OW22575   8.724   9.108   6.425
 6893SOL    HW122576   8.654   9.127   6.487
 6893SOL    HW222577   8.762   9.026   6.456
 6894SOL     OW22578  13.327   3.176   6.935
 6894SOL    HW122579  13.280   3.259   6.941
 6894SOL    HW222580  13.325   3.154   6.841
 6895SOL     OW22581  14.408   1.198  11.079
 6895SOL    HW122582  14.411   1.151  10.995
 6895SOL    HW222583  14.365   1.281  11.058
 6896SOL     OW22584   8.496   0.261  14.194
 6896SOL    HW122585   8.431   0.219  14.137
 6896SOL    HW222586   8.485   0.355  14.178
 6897SOL     OW22587   4.333   2.914  12.090
 6897SOL    HW122588   4.286   2.992  12.059
 6897SOL    HW222589   4.425   2.942  12.094
 6898SOL     OW22590   4.592  12.316   7.122
 6898SOL    HW122591   4.636  12.355   7.197
 6898SOL    HW222592   4.610  12.376   7.050
 6899SOL     OW22593   7.911  12.360   7.871
 6899SOL    HW122594   7.936  12.268   7.869
 6899SOL    HW222595   7.855  12.372   7.795
 6900SOL     OW22596  13.283  12.636   1.725
 6900SOL    HW122597  13.231  12.583   1.665
 6900SOL    HW222598  13.373  12.624   1.696
 6901SOL     OW22599  11.728   2.718   7.457
 6901SOL    HW122600  11.807   2.750   7.414
 6901SOL    HW222601  11.658   2.774   7.423
 6902SOL     OW22602   2.360   3.447   2.350
 6902SOL    HW122603   2.342   3.540   2.365
 6902SOL    HW222604   2.280   3.402   2.379
 6903SOL     OW22605  12.183   5.187   9.895
 6903SOL    HW122606  12.098   5.206   9.856
 6903SOL    HW222607  12.246   5.227   9.835
 6904SOL     OW22608  12.145   7.735  10.202
 6904SOL    HW122609  12.087   7.809  10.220
 6904SOL    HW222610  12.152   7.688  10.285
 6905SOL     OW22611  13.180   5.435   8.974
 6905SOL    HW122612  13.267   5.406   9.000
 6905SOL    HW222613  13.129   5.434   9.055
 6906SOL     OW22614   1.931   4.803   6.746
 6906SOL    HW122615   1.879   4.735   6.788
 6906SOL    HW222616   1.866   4.859   6.703
 6907SOL     OW22617   4.242   6.923   2.586
 6907SOL    HW122618   4.242   6.989   2.656
 6907SOL    HW222619   4.312   6.952   2.527
 6908SOL     OW22620  10.958   3.281   0.878
 6908SOL    HW122621  11.044   3.254   0.848
 6908SOL    HW222622  10.937   3.220   0.949
 6909SOL     OW22623  12.784   7.381  13.976
 6909SOL    HW122624  12.869   7.339  13.992
 6909SOL    HW222625  12.720   7.325  14.019
 6910SOL     OW22626  12.937  10.564  14.447
 6910SOL    HW122627  12.997  10.629  14.410
 6910SOL    HW222628  12.965  10.481  14.408
 6911SOL     OW22629   7.799   5.430   7.452
 6911SOL    HW122630   7.739   5.437   7.527
 6911SOL    HW222631   7.875   5.385   7.487
 6912SOL     OW22632  10.227  12.671   6.710
 6912SOL    HW122633  10.200  12.592   6.756
 6912SOL    HW222634  10.146  12.710   6.678
 6913SOL     OW22635  10.285  13.777   0.033
 6913SOL    HW122636  10.334  13.769  14.819
 6913SOL    HW222637  10.313  13.862   0.069
 6914SOL     OW22638   8.738  10.628   1.856
 6914SOL    HW122639   8.713  10.715   1.826
 6914SOL    HW222640   8.737  10.574   1.777
 6915SOL     OW22641   7.185   7.540  12.455
 6915SOL    HW122642   7.207   7.588  12.375
 6915SOL    HW222643   7.090   7.545  12.461
 6916SOL     OW22644  11.008   7.948   1.568
 6916SOL    HW122645  11.087   8.002   1.563
 6916SOL    HW222646  11.009   7.911   1.656
 6917SOL     OW22647   0.631  13.721  11.473
 6917SOL    HW122648   0.625  13.797  11.531
 6917SOL    HW222649   0.608  13.756  11.387
 6918SOL     OW22650   3.278   0.473  12.263
 6918SOL    HW122651   3.331   0.547  12.292
 6918SOL    HW222652   3.292   0.469  12.168
 6919SOL     OW22653   5.088   6.654   7.506
 6919SOL    HW122654   5.039   6.712   7.449
 6919SOL    HW222655   5.043   6.660   7.591
 6920SOL     OW22656  11.542   3.262   8.213
 6920SOL    HW122657  11.468   3.321   8.196
 6920SOL    HW222658  11.507   3.199   8.276
 6921SOL     OW22659  13.761  10.631  10.810
 6921SOL    HW122660  13.838  10.684  10.831
 6921SOL    HW222661  13.714  10.682  10.744
 6922SOL     OW22662  14.775  13.126   5.633
 6922SOL    HW122663  14.776  13.215   5.598
 6922SOL    HW222664  14.752  13.071   5.558
 6923SOL     OW22665   2.220   7.657   6.932
 6923SOL    HW122666   2.282   7.693   6.868
 6923SOL    HW222667   2.272   7.598   6.985
 6924SOL     OW22668   1.653  13.798   8.129
 6924SOL    HW122669   1.736  13.813   8.085
 6924SOL    HW222670   1.653  13.705   8.151
 6925SOL     OW22671   8.740   5.171   0.060
 6925SOL    HW122672   8.813   5.194   0.119
 6925SOL    HW222673   8.673   5.237   0.079
 6926SOL     OW22674   8.644   7.111  13.140
 6926SOL    HW122675   8.625   7.018  13.144
 6926SOL    HW222676   8.724   7.118  13.089
 6927SOL     OW22677   9.494   9.503  13.359
 6927SOL    HW122678   9.400   9.491  13.352
 6927SOL    HW222679   9.530   9.452  13.286
 6928SOL     OW22680   9.729   5.414   6.936
 6928SOL    HW122681   9.737   5.361   6.856
 6928SOL    HW222682   9.755   5.502   6.909
 6929SOL     OW22683   2.260  12.814   9.264
 6929SOL    HW122684   2.304  12.882   9.314
 6929SOL    HW222685   2.238  12.857   9.181
 6930SOL     OW22686   2.899   4.431   9.491
 6930SOL    HW122687   2.817   4.471   9.463
 6930SOL    HW222688   2.962   4.455   9.423
 6931SOL     OW22689   1.379  13.208   3.246
 6931SOL    HW122690   1.473  13.227   3.255
 6931SOL    HW222691   1.351  13.187   3.335
 6932SOL     OW22692   2.582   2.164   3.417
 6932SOL    HW122693   2.531   2.084   3.429
 6932SOL    HW222694   2.654   2.155   3.480
 6933SOL     OW22695   7.446   9.718   6.995
 6933SOL    HW122696   7.368   9.773   6.985
 6933SOL    HW222697   7.502   9.743   6.921
 6934SOL     OW22698   5.095   0.346   7.388
 6934SOL    HW122699   5.169   0.285   7.394
 6934SOL    HW222700   5.120   0.407   7.318
 6935SOL     OW22701   8.050   5.823  12.911
 6935SOL    HW122702   8.142   5.819  12.884
 6935SOL    HW222703   8.035   5.916  12.928
 6936SOL     OW22704   6.249   5.293  11.278
 6936SOL    HW122705   6.225   5.207  11.243
 6936SOL    HW222706   6.315   5.325  11.216
 6937SOL     OW22707   7.322   0.370  14.467
 6937SOL    HW122708   7.411   0.352  14.436
 6937SOL    HW222709   7.335   0.419  14.548
 6938SOL     OW22710   0.845   9.811  14.597
 6938SOL    HW122711   0.824   9.866  14.672
 6938SOL    HW222712   0.860   9.724  14.634
 6939SOL     OW22713   2.934   9.913   7.378
 6939SOL    HW122714   2.923   9.967   7.299
 6939SOL    HW222715   2.895   9.829   7.354
 6940SOL     OW22716  12.668   8.773  11.027
 6940SOL    HW122717  12.636   8.761  10.938
 6940SOL    HW222718  12.733   8.843  11.021
 6941SOL     OW22719   2.018   8.401  12.046
 6941SOL    HW122720   2.093   8.414  11.987
 6941SOL    HW222721   2.002   8.306  12.042
 6942SOL     OW22722   9.217   6.887   6.000
 6942SOL    HW122723   9.163   6.901   6.078
 6942SOL    HW222724   9.162   6.835   5.942
 6943SOL     OW22725   6.128  11.879   5.781
 6943SOL    HW122726   6.070  11.923   5.843
 6943SOL    HW222727   6.158  11.800   5.827
 6944SOL     OW22728   1.383   6.617  10.258
 6944SOL    HW122729   1.383   6.547  10.324
 6944SOL    HW222730   1.474   6.623  10.230
 6945SOL     OW22731   9.126   9.954  11.284
 6945SOL    HW122732   9.187   9.988  11.219
 6945SOL    HW222733   9.040   9.955  11.240
 6946SOL     OW22734   9.306  11.097   5.285
 6946SOL    HW122735   9.226  11.059   5.248
 6946SOL    HW222736   9.351  11.022   5.325
 6947SOL     OW22737   2.429   3.821   0.653
 6947SOL    HW122738   2.397   3.744   0.606
 6947SOL    HW222739   2.519   3.800   0.676
 6948SOL     OW22740   1.530  11.210   7.959
 6948SOL    HW122741   1.452  11.260   7.936
 6948SOL    HW222742   1.559  11.247   8.042
 6949SOL     OW22743   3.531   1.862  11.251
 6949SOL    HW122744   3.465   1.884  11.185
 6949SOL    HW222745   3.614   1.886  11.211
 6950SOL     OW22746   8.733  11.086  14.856
 6950SOL    HW122747   8.643  11.063   0.011
 6950SOL    HW222748   8.738  11.181   0.002
 6951SOL     OW22749   0.688   6.231   4.569
 6951SOL    HW122750   0.620   6.188   4.621
 6951SOL    HW222751   0.730   6.159   4.522
 6952SOL     OW22752   6.389   7.039   7.597
 6952SOL    HW122753   6.419   7.089   7.520
 6952SOL    HW222754   6.314   6.990   7.566
 6953SOL     OW22755   0.658   0.851   1.271
 6953SOL    HW122756   0.732   0.841   1.331
 6953SOL    HW222757   0.625   0.940   1.287
 6954SOL     OW22758   4.891   5.427  13.139
 6954SOL    HW122759   4.869   5.433  13.232
 6954SOL    HW222760   4.952   5.500  13.125
 6955SOL     OW22761   0.799   4.602   9.754
 6955SOL    HW122762   0.775   4.594   9.847
 6955SOL    HW222763   0.788   4.695   9.734
 6956SOL     OW22764   9.474  12.677   9.726
 6956SOL    HW122765   9.507  12.611   9.787
 6956SOL    HW222766   9.552  12.729   9.703
 6957SOL     OW22767  14.179  13.621   0.876
 6957SOL    HW122768  14.164  13.644   0.968
 6957SOL    HW222769  14.113  13.672   0.828
 6958SOL     OW22770   4.136  11.471  13.399
 6958SOL    HW122771   4.150  11.526  13.322
 6958SOL    HW222772   4.213  11.414  13.402
 6959SOL     OW22773  14.783   6.091   1.764
 6959SOL    HW122774  14.714   6.143   1.805
 6959SOL    HW222775  14.828   6.153   1.706
 6960SOL     OW22776   1.112  13.264   3.917
 6960SOL    HW122777   1.113  13.328   3.846
 6960SOL    HW222778   1.023  13.230   3.918
 6961SOL     OW22779  12.310   6.895  14.143
 6961SOL    HW122780  12.315   6.865  14.052
 6961SOL    HW222781  12.393   6.943  14.156
 6962SOL     OW22782  14.003   5.066  10.035
 6962SOL    HW122783  14.049   5.147  10.060
 6962SOL    HW222784  13.935   5.056  10.101
 6963SOL     OW22785  13.653   3.424   3.753
 6963SOL    HW122786  13.600   3.467   3.686
 6963SOL    HW222787  13.670   3.337   3.718
 6964SOL     OW22788   3.378   4.984   0.845
 6964SOL    HW122789   3.290   4.945   0.848
 6964SOL    HW222790   3.400   4.998   0.937
 6965SOL     OW22791  12.299   1.492   7.340
 6965SOL    HW122792  12.317   1.533   7.425
 6965SOL    HW222793  12.319   1.560   7.276
 6966SOL     OW22794  13.803  12.738   0.866
 6966SOL    HW122795  13.898  12.724   0.863
 6966SOL    HW222796  13.791  12.811   0.927
 6967SOL     OW22797  11.764   7.175  12.860
 6967SOL    HW122798  11.836   7.204  12.916
 6967SOL    HW222799  11.712   7.254  12.846
 6968SOL     OW22800   0.946   6.963   6.997
 6968SOL    HW122801   0.930   7.052   7.028
 6968SOL    HW222802   0.858   6.925   6.987
 6969SOL     OW22803  13.338   2.245   1.139
 6969SOL    HW122804  13.408   2.309   1.128
 6969SOL    HW222805  13.295   2.271   1.221
 6970SOL     OW22806   4.255  14.584   5.605
 6970SOL    HW122807   4.187  14.576   5.671
 6970SOL    HW222808   4.225  14.654   5.548
 6971SOL     OW22809  12.694   6.992  12.713
 6971SOL    HW122810  12.697   7.063  12.649
 6971SOL    HW222811  12.685   7.036  12.797
 6972SOL     OW22812   6.442   8.080   0.278
 6972SOL    HW122813   6.444   8.163   0.231
 6972SOL    HW222814   6.396   8.020   0.219
 6973SOL     OW22815  12.549   3.293   7.622
 6973SOL    HW122816  12.463   3.336   7.621
 6973SOL    HW222817  12.543   3.224   7.556
 6974SOL     OW22818  14.129   8.195   5.730
 6974SOL    HW122819  14.156   8.139   5.657
 6974SOL    HW222820  14.067   8.257   5.691
 6975SOL     OW22821  14.471  13.038   5.894
 6975SOL    HW122822  14.440  12.967   5.838
 6975SOL    HW222823  14.556  13.009   5.926
 6976SOL     OW22824  13.994  11.470   7.326
 6976SOL    HW122825  13.933  11.397   7.339
 6976SOL    HW222826  13.949  11.545   7.365
 6977SOL     OW22827  12.086   6.779  10.596
 6977SOL    HW122828  11.994   6.802  10.595
 6977SOL    HW222829  12.128   6.848  10.647
 6978SOL     OW22830   0.673   4.765   4.881
 6978SOL    HW122831   0.715   4.795   4.961
 6978SOL    HW222832   0.745   4.753   4.819
 6979SOL     OW22833   7.879   5.442  13.956
 6979SOL    HW122834   7.784   5.427  13.957
 6979SOL    HW222835   7.888   5.535  13.934
 6980SOL     OW22836   3.606  10.780   8.928
 6980SOL    HW122837   3.650  10.805   9.009
 6980SOL    HW222838   3.553  10.856   8.906
 6981SOL     OW22839  12.993   9.675   0.567
 6981SOL    HW122840  12.932   9.619   0.520
 6981SOL    HW222841  13.066   9.617   0.589
 6982SOL     OW22842   0.767   3.194  12.250
 6982SOL    HW122843   0.848   3.182  12.299
 6982SOL    HW222844   0.791   3.177  12.159
 6983SOL     OW22845  10.958  13.948   4.785
 6983SOL    HW122846  11.036  13.944   4.729
 6983SOL    HW222847  10.991  13.930   4.873
 6984SOL     OW22848   3.416   3.726   7.753
 6984SOL    HW122849   3.420   3.738   7.658
 6984SOL    HW222850   3.491   3.775   7.786
 6985SOL     OW22851  10.682   1.702   9.123
 6985SOL    HW122852  10.772   1.708   9.153
 6985SOL    HW222853  10.631   1.750   9.188
 6986SOL     OW22854   1.262   3.812   5.904
 6986SOL    HW122855   1.245   3.718   5.896
 6986SOL    HW222856   1.322   3.819   5.978
 6987SOL     OW22857   9.606  12.800  10.909
 6987SOL    HW122858   9.547  12.813  10.835
 6987SOL    HW222859   9.679  12.860  10.892
 6988SOL     OW22860   1.109  13.605  10.454
 6988SOL    HW122861   1.132  13.698  10.460
 6988SOL    HW222862   1.144  13.578  10.369
 6989SOL     OW22863  10.885   7.348   7.624
 6989SOL    HW122864  10.924   7.424   7.581
 6989SOL    HW222865  10.844   7.299   7.553
 6990SOL     OW22866   5.645   4.896   8.665
 6990SOL    HW122867   5.632   4.934   8.752
 6990SOL    HW222868   5.617   4.963   8.604
 6991SOL     OW22869   3.340   9.876   1.627
 6991SOL    HW122870   3.415   9.931   1.647
 6991SOL    HW222871   3.280   9.933   1.578
 6992SOL     OW22872   2.333   1.456   8.122
 6992SOL    HW122873   2.284   1.444   8.041
 6992SOL    HW222874   2.278   1.415   8.190
 6993SOL     OW22875   1.621   2.618   6.219
 6993SOL    HW122876   1.567   2.691   6.192
 6993SOL    HW222877   1.559   2.550   6.245
 6994SOL     OW22878   3.427  10.024   7.911
 6994SOL    HW122879   3.363  10.091   7.933
 6994SOL    HW222880   3.437  10.031   7.816
 6995SOL     OW22881  10.702   4.840   2.224
 6995SOL    HW122882  10.728   4.818   2.314
 6995SOL    HW222883  10.638   4.911   2.235
 6996SOL     OW22884   7.714   7.700   1.702
 6996SOL    HW122885   7.687   7.788   1.675
 6996SOL    HW222886   7.805   7.693   1.673
 6997SOL     OW22887  10.471   9.931   0.243
 6997SOL    HW122888  10.495   9.985   0.318
 6997SOL    HW222889  10.401   9.874   0.275
 6998SOL     OW22890  14.667   7.549   0.181
 6998SOL    HW122891  14.677   7.636   0.144
 6998SOL    HW222892  14.728   7.546   0.254
 6999SOL     OW22893   8.436   3.485   7.468
 6999SOL    HW122894   8.524   3.478   7.431
 6999SOL    HW222895   8.391   3.407   7.437
 7000SOL     OW22896  14.809   7.325   3.782
 7000SOL    HW122897  14.741   7.281   3.834
 7000SOL    HW222898  14.857   7.253   3.740
 7001SOL     OW22899   0.112   8.937  10.189
 7001SOL    HW122900   0.167   8.872  10.147
 7001SOL    HW222901   0.145   9.021  10.157
 7002SOL     OW22902   7.821  13.887  11.356
 7002SOL    HW122903   7.916  13.885  11.344
 7002SOL    HW222904   7.809  13.896  11.450
 7003SOL     OW22905   1.302  11.460  11.647
 7003SOL    HW122906   1.363  11.386  11.648
 7003SOL    HW222907   1.356  11.536  11.668
 7004SOL     OW22908   7.898   6.025   1.829
 7004SOL    HW122909   7.844   6.024   1.907
 7004SOL    HW222910   7.890   5.937   1.793
 7005SOL     OW22911   2.032  10.038   8.011
 7005SOL    HW122912   2.015   9.962   7.956
 7005SOL    HW222913   1.967  10.033   8.081
 7006SOL     OW22914   8.482   5.321  13.563
 7006SOL    HW122915   8.428   5.309  13.642
 7006SOL    HW222916   8.544   5.248  13.566
 7007SOL     OW22917   8.474   4.412   8.562
 7007SOL    HW122918   8.562   4.440   8.537
 7007SOL    HW222919   8.460   4.330   8.514
 7008SOL     OW22920  12.944   5.155   2.551
 7008SOL    HW122921  13.038   5.153   2.566
 7008SOL    HW222922  12.911   5.220   2.613
 7009SOL     OW22923  12.958   3.079   2.346
 7009SOL    HW122924  13.027   3.124   2.298
 7009SOL    HW222925  12.935   3.004   2.290
 7010SOL     OW22926  14.118   7.439   5.734
 7010SOL    HW122927  14.164   7.517   5.705
 7010SOL    HW222928  14.050   7.472   5.794
 7011SOL     OW22929  10.995   2.304   6.544
 7011SOL    HW122930  11.066   2.356   6.583
 7011SOL    HW222931  10.933   2.369   6.512
 7012SOL     OW22932   6.941   3.745   0.718
 7012SOL    HW122933   6.994   3.674   0.754
 7012SOL    HW222934   6.865   3.700   0.679
 7013SOL     OW22935   9.448  14.747   2.388
 7013SOL    HW122936   9.450  14.705   2.474
 7013SOL    HW222937   9.493  14.686   2.330
 7014SOL     OW22938   6.567   9.029   1.988
 7014SOL    HW122939   6.635   8.961   1.984
 7014SOL    HW222940   6.607   9.099   2.040
 7015SOL     OW22941   8.726   1.113  13.334
 7015SOL    HW122942   8.714   1.197  13.379
 7015SOL    HW222943   8.683   1.125  13.250
 7016SOL     OW22944   0.926   4.777   2.605
 7016SOL    HW122945   0.834   4.755   2.594
 7016SOL    HW222946   0.956   4.719   2.675
 7017SOL     OW22947   6.621   2.968  13.325
 7017SOL    HW122948   6.642   2.964  13.418
 7017SOL    HW222949   6.529   2.993  13.322
 7018SOL     OW22950  10.970  12.305  14.236
 7018SOL    HW122951  11.065  12.291  14.238
 7018SOL    HW222952  10.933  12.221  14.264
 7019SOL     OW22953  13.057   8.539   6.620
 7019SOL    HW122954  13.033   8.465   6.564
 7019SOL    HW222955  13.143   8.516   6.655
 7020SOL     OW22956   6.821   7.900   3.971
 7020SOL    HW122957   6.900   7.924   4.019
 7020SOL    HW222958   6.848   7.901   3.879
 7021SOL     OW22959   8.344   1.872   6.636
 7021SOL    HW122960   8.384   1.787   6.654
 7021SOL    HW222961   8.410   1.935   6.661
 7022SOL     OW22962  11.209  12.582   9.114
 7022SOL    HW122963  11.162  12.519   9.059
 7022SOL    HW222964  11.181  12.563   9.203
 7023SOL     OW22965   0.827  10.970  13.553
 7023SOL    HW122966   0.839  11.062  13.527
 7023SOL    HW222967   0.757  10.938  13.497
 7024SOL     OW22968  12.387   6.956   7.846
 7024SOL    HW122969  12.478   6.935   7.825
 7024SOL    HW222970  12.337   6.922   7.771
 7025SOL     OW22971   8.499   5.392   7.377
 7025SOL    HW122972   8.460   5.395   7.290
 7025SOL    HW222973   8.469   5.309   7.414
 7026SOL     OW22974   7.983   8.164   4.346
 7026SOL    HW122975   7.943   8.246   4.319
 7026SOL    HW222976   8.077   8.182   4.348
 7027SOL     OW22977  11.582   2.937   3.211
 7027SOL    HW122978  11.500   2.984   3.195
 7027SOL    HW222979  11.628   2.939   3.128
 7028SOL     OW22980  13.495  13.342   5.831
 7028SOL    HW122981  13.588  13.366   5.832
 7028SOL    HW222982  13.487  13.272   5.895
 7029SOL     OW22983   7.992   9.112   9.482
 7029SOL    HW122984   8.065   9.053   9.503
 7029SOL    HW222985   7.994   9.178   9.550
 7030SOL     OW22986  12.423   4.364  13.769
 7030SOL    HW122987  12.387   4.453  13.764
 7030SOL    HW222988  12.349   4.310  13.797
 7031SOL     OW22989  11.165   1.210   6.288
 7031SOL    HW122990  11.088   1.248   6.330
 7031SOL    HW222991  11.165   1.249   6.200
 7032SOL     OW22992  13.253   2.884  12.473
 7032SOL    HW122993  13.194   2.941  12.521
 7032SOL    HW222994  13.341   2.917  12.495
 7033SOL     OW22995   2.248   7.605   8.111
 7033SOL    HW122996   2.337   7.592   8.144
 7033SOL    HW222997   2.245   7.553   8.031
 7034SOL     OW22998   1.648   8.403  14.672
 7034SOL    HW122999   1.663   8.477  14.613
 7034SOL    HW223000   1.555   8.409  14.694
 7035SOL     OW23001   0.237   4.321   7.358
 7035SOL    HW123002   0.213   4.229   7.348
 7035SOL    HW223003   0.332   4.320   7.370
 7036SOL     OW23004   2.589   7.179  13.779
 7036SOL    HW123005   2.566   7.089  13.754
 7036SOL    HW223006   2.678   7.191  13.745
 7037SOL     OW23007   7.670   2.714  11.782
 7037SOL    HW123008   7.630   2.778  11.724
 7037SOL    HW223009   7.693   2.763  11.861
 7038SOL     OW23010   9.852  10.858   4.648
 7038SOL    HW123011   9.884  10.777   4.689
 7038SOL    HW223012   9.761  10.864   4.676
 7039SOL     OW23013   5.021  13.207   9.366
 7039SOL    HW123014   5.018  13.275   9.433
 7039SOL    HW223015   5.053  13.130   9.413
 7040SOL     OW23016  11.002   9.275  11.115
 7040SOL    HW123017  11.066   9.345  11.123
 7040SOL    HW223018  10.953   9.277  11.197
 7041SOL     OW23019   2.640   3.362   2.618
 7041SOL    HW123020   2.664   3.270   2.622
 7041SOL    HW223021   2.717   3.409   2.650
 7042SOL     OW23022   4.377  11.897  14.376
 7042SOL    HW123023   4.346  11.940  14.297
 7042SOL    HW223024   4.430  11.963  14.421
 7043SOL     OW23025   9.176   0.268   2.900
 7043SOL    HW123026   9.228   0.226   2.831
 7043SOL    HW223027   9.109   0.203   2.922
 7044SOL     OW23028   6.149  11.674  12.639
 7044SOL    HW123029   6.165  11.616  12.564
 7044SOL    HW223030   6.151  11.617  12.715
 7045SOL     OW23031   3.457   7.842   7.173
 7045SOL    HW123032   3.379   7.828   7.120
 7045SOL    HW223033   3.501   7.917   7.133
 7046SOL     OW23034   7.011   5.596   4.878
 7046SOL    HW123035   7.048   5.520   4.923
 7046SOL    HW223036   6.926   5.566   4.846
 7047SOL     OW23037   7.778   7.385  14.046
 7047SOL    HW123038   7.836   7.414  13.976
 7047SOL    HW223039   7.734   7.308  14.011
 7048SOL     OW23040   8.409   3.463   2.368
 7048SOL    HW123041   8.456   3.546   2.380
 7048SOL    HW223042   8.357   3.476   2.289
 7049SOL     OW23043   9.867   8.000   9.872
 7049SOL    HW123044   9.819   7.978   9.951
 7049SOL    HW223045   9.858   8.095   9.863
 7050SOL     OW23046   9.094   8.384   9.194
 7050SOL    HW123047   9.082   8.426   9.279
 7050SOL    HW223048   9.017   8.409   9.143
 7051SOL     OW23049   2.576   0.051   5.791
 7051SOL    HW123050   2.629  14.862   5.846
 7051SOL    HW223051   2.494   0.004   5.779
 7052SOL     OW23052   8.215  11.554   1.795
 7052SOL    HW123053   8.308  11.575   1.802
 7052SOL    HW223054   8.173  11.613   1.857
 7053SOL     OW23055   0.487   5.492   1.570
 7053SOL    HW123056   0.516   5.570   1.524
 7053SOL    HW223057   0.567   5.442   1.586
 7054SOL     OW23058  12.530  11.940   9.903
 7054SOL    HW123059  12.573  11.931   9.818
 7054SOL    HW223060  12.444  11.975   9.884
 7055SOL     OW23061  11.529   6.866   0.414
 7055SOL    HW123062  11.569   6.780   0.424
 7055SOL    HW223063  11.474   6.876   0.493
 7056SOL     OW23064   4.907   7.250   1.429
 7056SOL    HW123065   4.858   7.168   1.434
 7056SOL    HW223066   4.992   7.225   1.393
 7057SOL     OW23067  14.095   6.226   2.475
 7057SOL    HW123068  14.152   6.205   2.402
 7057SOL    HW223069  14.154   6.231   2.551
 7058SOL     OW23070   5.869   8.064   5.528
 7058SOL    HW123071   5.777   8.054   5.552
 7058SOL    HW223072   5.869   8.134   5.463
 7059SOL     OW23073   6.216  12.849   2.890
 7059SOL    HW123074   6.270  12.790   2.943
 7059SOL    HW223075   6.252  12.936   2.906
 7060SOL     OW23076  10.551   2.900   8.005
 7060SOL    HW123077  10.457   2.920   8.013
 7060SOL    HW223078  10.564   2.825   8.064
 7061SOL     OW23079  14.841   3.751   3.008
 7061SOL    HW123080   0.047   3.782   3.060
 7061SOL    HW223081   0.010   3.732   2.922
 7062SOL     OW23082  12.048   6.070   3.693
 7062SOL    HW123083  11.955   6.051   3.685
 7062SOL    HW223084  12.059   6.096   3.784
 7063SOL     OW23085   0.626   5.416   8.897
 7063SOL    HW123086   0.626   5.471   8.819
 7063SOL    HW223087   0.623   5.478   8.970
 7064SOL     OW23088  12.951   5.352   3.002
 7064SOL    HW123089  13.038   5.388   3.019
 7064SOL    HW223090  12.892   5.407   3.053
 7065SOL     OW23091   7.964   9.604  12.018
 7065SOL    HW123092   7.991   9.578  12.106
 7065SOL    HW223093   7.881   9.649  12.030
 7066SOL     OW23094  14.782  12.634  13.805
 7066SOL    HW123095  14.690  12.631  13.828
 7066SOL    HW223096  14.810  12.543  13.803
 7067SOL     OW23097   1.571   8.589  14.426
 7067SOL    HW123098   1.624   8.662  14.394
 7067SOL    HW223099   1.503   8.631  14.479
 7068SOL     OW23100   7.533   5.508  11.967
 7068SOL    HW123101   7.518   5.602  11.970
 7068SOL    HW223102   7.446   5.469  11.967
 7069SOL     OW23103   5.564  12.231   2.647
 7069SOL    HW123104   5.612  12.168   2.594
 7069SOL    HW223105   5.530  12.179   2.720
 7070SOL     OW23106  10.577   1.841   9.350
 7070SOL    HW123107  10.641   1.907   9.322
 7070SOL    HW223108  10.495   1.890   9.361
 7071SOL     OW23109   0.236  11.082   2.484
 7071SOL    HW123110   0.264  11.160   2.437
 7071SOL    HW223111   0.227  11.015   2.417
 7072SOL     OW23112   8.567   9.566   4.955
 7072SOL    HW123113   8.474   9.588   4.966
 7072SOL    HW223114   8.584   9.500   5.023
 7073SOL     OW23115  12.884  12.434   3.059
 7073SOL    HW123116  12.884  12.463   2.968
 7073SOL    HW223117  12.825  12.359   3.060
 7074SOL     OW23118   4.180   2.506   3.082
 7074SOL    HW123119   4.122   2.574   3.049
 7074SOL    HW223120   4.170   2.509   3.177
 7075SOL     OW23121   3.866   9.483   9.102
 7075SOL    HW123122   3.808   9.407   9.094
 7075SOL    HW223123   3.954   9.446   9.105
 7076SOL     OW23124  13.578  13.728   1.000
 7076SOL    HW123125  13.610  13.644   0.968
 7076SOL    HW223126  13.496  13.743   0.952
 7077SOL     OW23127  10.468   7.879  13.218
 7077SOL    HW123128  10.487   7.815  13.287
 7077SOL    HW223129  10.431   7.954  13.264
 7078SOL     OW23130   8.438   0.419   0.584
 7078SOL    HW123131   8.419   0.513   0.579
 7078SOL    HW223132   8.524   0.410   0.543
 7079SOL     OW23133   2.300  13.280  11.761
 7079SOL    HW123134   2.261  13.219  11.699
 7079SOL    HW223135   2.341  13.224  11.827
 7080SOL     OW23136   2.812  12.090   1.126
 7080SOL    HW123137   2.890  12.068   1.075
 7080SOL    HW223138   2.842  12.155   1.190
 7081SOL     OW23139   3.656  13.929   9.394
 7081SOL    HW123140   3.660  13.973   9.309
 7081SOL    HW223141   3.697  13.844   9.378
 7082SOL     OW23142   5.503  14.801   0.415
 7082SOL    HW123143   5.492   0.019   0.457
 7082SOL    HW223144   5.544  14.821   0.331
 7083SOL     OW23145   4.648  10.092   2.785
 7083SOL    HW123146   4.722  10.081   2.844
 7083SOL    HW223147   4.645  10.010   2.735
 7084SOL     OW23148  14.778  12.590   0.992
 7084SOL    HW123149   0.003  12.579   1.010
 7084SOL    HW223150  14.740  12.616   1.077
 7085SOL     OW23151   5.419  10.774   1.707
 7085SOL    HW123152   5.457  10.762   1.620
 7085SOL    HW223153   5.341  10.827   1.692
 7086SOL     OW23154  14.698  14.352  14.509
 7086SOL    HW123155  14.632  14.331  14.442
 7086SOL    HW223156  14.668  14.307  14.587
 7087SOL     OW23157   2.601   5.706   6.179
 7087SOL    HW123158   2.570   5.768   6.113
 7087SOL    HW223159   2.631   5.760   6.252
 7088SOL     OW23160   1.738   5.519   3.846
 7088SOL    HW123161   1.721   5.427   3.825
 7088SOL    HW223162   1.747   5.561   3.760
 7089SOL     OW23163   8.515   6.679  14.683
 7089SOL    HW123164   8.544   6.619  14.614
 7089SOL    HW223165   8.593   6.696  14.736
 7090SOL     OW23166   7.345   5.937  12.527
 7090SOL    HW123167   7.399   6.012  12.503
 7090SOL    HW223168   7.255   5.969  12.521
 7091SOL     OW23169   4.145   4.215   7.003
 7091SOL    HW123170   4.237   4.226   6.978
 7091SOL    HW223171   4.100   4.289   6.961
 7092SOL     OW23172   1.307  12.765   9.038
 7092SOL    HW123173   1.323  12.682   9.082
 7092SOL    HW223174   1.212  12.765   9.021
 7093SOL     OW23175   2.063  13.381  14.199
 7093SOL    HW123176   1.982  13.387  14.250
 7093SOL    HW223177   2.033  13.369  14.108
 7094SOL     OW23178  14.368  14.341   7.857
 7094SOL    HW123179  14.418  14.416   7.888
 7094SOL    HW223180  14.290  14.339   7.913
 7095SOL     OW23181  14.586   2.487   9.560
 7095SOL    HW123182  14.606   2.431   9.635
 7095SOL    HW223183  14.619   2.573   9.585
 7096SOL     OW23184   2.898  11.679  12.239
 7096SOL    HW123185   2.896  11.672  12.335
 7096SOL    HW223186   2.838  11.752  12.220
 7097SOL     OW23187   1.412  11.926  14.762
 7097SOL    HW123188   1.374  11.993  14.704
 7097SOL    HW223189   1.426  11.850  14.706
 7098SOL     OW23190   0.285   4.584  11.498
 7098SOL    HW123191   0.354   4.621  11.444
 7098SOL    HW223192   0.303   4.616  11.586
 7099SOL     OW23193  11.491   3.655   7.585
 7099SOL    HW123194  11.468   3.562   7.594
 7099SOL    HW223195  11.408   3.701   7.599
 7100SOL     OW23196  11.751  10.443   7.758
 7100SOL    HW123197  11.797  10.362   7.779
 7100SOL    HW223198  11.677  10.445   7.820
 7101SOL     OW23199   6.074   8.031   2.735
 7101SOL    HW123200   6.035   7.967   2.794
 7101SOL    HW223201   6.037   8.114   2.761
 7102SOL     OW23202   7.118   3.370   4.506
 7102SOL    HW123203   7.207   3.335   4.510
 7102SOL    HW223204   7.129   3.460   4.476
 7103SOL     OW23205  13.570   6.372   7.140
 7103SOL    HW123206  13.657   6.373   7.178
 7103SOL    HW223207  13.585   6.374   7.045
 7104SOL     OW23208  10.539  11.757   7.427
 7104SOL    HW123209  10.476  11.687   7.415
 7104SOL    HW223210  10.572  11.745   7.516
 7105SOL     OW23211   5.744   8.097   2.395
 7105SOL    HW123212   5.794   8.084   2.315
 7105SOL    HW223213   5.785   8.173   2.437
 7106SOL     OW23214  12.043  12.089   2.229
 7106SOL    HW123215  12.007  12.166   2.184
 7106SOL    HW223216  11.969  12.028   2.234
 7107SOL     OW23217  14.502  10.282  13.391
 7107SOL    HW123218  14.496  10.187  13.377
 7107SOL    HW223219  14.596  10.298  13.403
 7108SOL     OW23220   9.034   9.126   4.561
 7108SOL    HW123221   8.972   9.189   4.598
 7108SOL    HW223222   9.118   9.148   4.601
 7109SOL     OW23223  12.606   8.950   9.962
 7109SOL    HW123224  12.675   8.903   9.915
 7109SOL    HW223225  12.532   8.889   9.964
 7110SOL     OW23226   4.437  11.978   2.450
 7110SOL    HW123227   4.472  12.041   2.514
 7110SOL    HW223228   4.514  11.928   2.421
 7111SOL     OW23229  12.107   7.058   0.809
 7111SOL    HW123230  12.046   7.121   0.847
 7111SOL    HW223231  12.118   7.087   0.718
 7112SOL     OW23232  10.762   8.831  14.091
 7112SOL    HW123233  10.731   8.810  14.003
 7112SOL    HW223234  10.775   8.746  14.133
 7113SOL     OW23235   1.277  10.806   7.458
 7113SOL    HW123236   1.233  10.826   7.375
 7113SOL    HW223237   1.321  10.722   7.443
 7114SOL     OW23238  14.209  12.528   8.432
 7114SOL    HW123239  14.155  12.607   8.434
 7114SOL    HW223240  14.235  12.515   8.523
 7115SOL     OW23241   7.846   6.841  12.211
 7115SOL    HW123242   7.864   6.784  12.286
 7115SOL    HW223243   7.904   6.809  12.142
 7116SOL     OW23244   8.775  11.013   1.669
 7116SOL    HW123245   8.730  10.929   1.656
 7116SOL    HW223246   8.710  11.069   1.712
 7117SOL     OW23247  13.821   8.069  11.858
 7117SOL    HW123248  13.762   8.143  11.845
 7117SOL    HW223249  13.908   8.109  11.870
 7118SOL     OW23250   3.278   4.446  11.779
 7118SOL    HW123251   3.257   4.532  11.816
 7118SOL    HW223252   3.373   4.446  11.772
 7119SOL     OW23253  12.748  10.687  13.619
 7119SOL    HW123254  12.825  10.633  13.634
 7119SOL    HW223255  12.674  10.626  13.627
 7120SOL     OW23256  12.407   1.635  11.581
 7120SOL    HW123257  12.335   1.691  11.555
 7120SOL    HW223258  12.451   1.683  11.651
 7121SOL     OW23259   6.910   4.014   7.023
 7121SOL    HW123260   6.903   3.932   7.072
 7121SOL    HW223261   6.854   4.001   6.946
 7122SOL     OW23262  11.321   9.722   6.961
 7122SOL    HW123263  11.332   9.728   6.867
 7122SOL    HW223264  11.231   9.752   6.977
 7123SOL     OW23265   1.139   4.844   0.620
 7123SOL    HW123266   1.049   4.876   0.625
 7123SOL    HW223267   1.184   4.889   0.692
 7124SOL     OW23268   4.760   8.450   8.396
 7124SOL    HW123269   4.667   8.431   8.409
 7124SOL    HW223270   4.772   8.538   8.433
 7125SOL     OW23271   1.674   2.749  14.641
 7125SOL    HW123272   1.673   2.677  14.578
 7125SOL    HW223273   1.676   2.705  14.727
 7126SOL     OW23274   1.406   8.561  12.461
 7126SOL    HW123275   1.387   8.474  12.426
 7126SOL    HW223276   1.439   8.545  12.549
 7127SOL     OW23277   7.228   1.037  10.172
 7127SOL    HW123278   7.177   0.973  10.221
 7127SOL    HW223279   7.166   1.106  10.150
 7128SOL     OW23280  14.510   6.430   3.054
 7128SOL    HW123281  14.604   6.445   3.044
 7128SOL    HW223282  14.479   6.507   3.102
 7129SOL     OW23283  10.060   6.635  11.318
 7129SOL    HW123284  10.099   6.584  11.388
 7129SOL    HW223285   9.996   6.575  11.278
 7130SOL     OW23286  10.643   6.124  12.792
 7130SOL    HW123287  10.700   6.081  12.728
 7130SOL    HW223288  10.569   6.155  12.741
 7131SOL     OW23289   1.245   6.001   3.312
 7131SOL    HW123290   1.330   6.042   3.324
 7131SOL    HW223291   1.182   6.074   3.312
 7132SOL     OW23292   6.360   8.055   5.392
 7132SOL    HW123293   6.422   8.080   5.323
 7132SOL    HW223294   6.276   8.088   5.361
 7133SOL     OW23295   2.122   3.961   9.462
 7133SOL    HW123296   2.124   3.893   9.395
 7133SOL    HW223297   2.214   3.983   9.477
 7134SOL     OW23298  12.629   1.875   1.660
 7134SOL    HW123299  12.533   1.869   1.657
 7134SOL    HW223300  12.659   1.815   1.591
 7135SOL     OW23301   0.956   4.955   2.239
 7135SOL    HW123302   0.969   4.909   2.322
 7135SOL    HW223303   0.892   5.023   2.259
 7136SOL     OW23304   7.273  13.087  10.082
 7136SOL    HW123305   7.327  13.022  10.127
 7136SOL    HW223306   7.269  13.057   9.992
 7137SOL     OW23307   3.532  12.290   6.705
 7137SOL    HW123308   3.469  12.219   6.710
 7137SOL    HW223309   3.598  12.261   6.642
 7138SOL     OW23310   2.795   0.420   3.493
 7138SOL    HW123311   2.869   0.410   3.554
 7138SOL    HW223312   2.733   0.352   3.518
 7139SOL     OW23313   0.484   6.351   2.649
 7139SOL    HW123314   0.560   6.297   2.671
 7139SOL    HW223315   0.494   6.370   2.556
 7140SOL     OW23316  11.587   7.528   3.060
 7140SOL    HW123317  11.630   7.612   3.074
 7140SOL    HW223318  11.502   7.537   3.103
 7141SOL     OW23319   0.444   5.011   6.629
 7141SOL    HW123320   0.416   5.047   6.714
 7141SOL    HW223321   0.506   4.943   6.651
 7142SOL     OW23322   6.301   8.064  12.131
 7142SOL    HW123323   6.385   8.039  12.092
 7142SOL    HW223324   6.235   8.034  12.068
 7143SOL     OW23325  13.988  11.117   2.824
 7143SOL    HW123326  13.901  11.159   2.824
 7143SOL    HW223327  13.970  11.026   2.845
 7144SOL     OW23328   0.441   2.261   9.715
 7144SOL    HW123329   0.380   2.196   9.683
 7144SOL    HW223330   0.483   2.296   9.636
 7145SOL     OW23331   7.941   1.085  10.297
 7145SOL    HW123332   8.008   1.082  10.229
 7145SOL    HW223333   7.875   1.145  10.262
 7146SOL     OW23334   4.544   6.786   4.084
 7146SOL    HW123335   4.541   6.719   4.152
 7146SOL    HW223336   4.461   6.777   4.037
 7147SOL     OW23337   7.148  10.235   1.722
 7147SOL    HW123338   7.138  10.308   1.783
 7147SOL    HW223339   7.240  10.235   1.699
 7148SOL     OW23340   6.183   8.268  13.906
 7148SOL    HW123341   6.106   8.307  13.948
 7148SOL    HW223342   6.244   8.341  13.896
 7149SOL     OW23343   7.861  14.312   0.837
 7149SOL    HW123344   7.942  14.269   0.809
 7149SOL    HW223345   7.830  14.357   0.759
 7150SOL     OW23346   1.303  10.280   2.577
 7150SOL    HW123347   1.255  10.215   2.628
 7150SOL    HW223348   1.361  10.229   2.520
 7151SOL     OW23349  12.257   3.984   2.800
 7151SOL    HW123350  12.351   3.980   2.817
 7151SOL    HW223351  12.224   4.054   2.857
 7152SOL     OW23352   5.188  10.167   8.569
 7152SOL    HW123353   5.172  10.205   8.656
 7152SOL    HW223354   5.238  10.087   8.587
 7153SOL     OW23355   4.666   9.081   4.085
 7153SOL    HW123356   4.756   9.052   4.100
 7153SOL    HW223357   4.659   9.088   3.990
 7154SOL     OW23358   7.969  12.682   5.500
 7154SOL    HW123359   7.914  12.760   5.486
 7154SOL    HW223360   8.058  12.717   5.505
 7155SOL     OW23361   5.026   6.235   0.488
 7155SOL    HW123362   5.109   6.248   0.442
 7155SOL    HW223363   5.047   6.173   0.558
 7156SOL     OW23364   2.535   3.429   7.738
 7156SOL    HW123365   2.613   3.445   7.685
 7156SOL    HW223366   2.561   3.359   7.798
 7157SOL     OW23367   3.693   1.543  13.721
 7157SOL    HW123368   3.615   1.598  13.728
 7157SOL    HW223369   3.763   1.604  13.698
 7158SOL     OW23370   7.154   2.230   5.418
 7158SOL    HW123371   7.205   2.233   5.337
 7158SOL    HW223372   7.219   2.239   5.487
 7159SOL     OW23373  13.418  11.685  11.285
 7159SOL    HW123374  13.350  11.618  11.285
 7159SOL    HW223375  13.387  11.750  11.348
 7160SOL     OW23376  11.144  10.923   1.133
 7160SOL    HW123377  11.094  10.848   1.102
 7160SOL    HW223378  11.112  10.938   1.222
 7161SOL     OW23379   1.866   9.913  11.671
 7161SOL    HW123380   1.857   9.953  11.757
 7161SOL    HW223381   1.949   9.864  11.676
 7162SOL     OW23382   2.355  14.119   5.015
 7162SOL    HW123383   2.261  14.136   5.003
 7162SOL    HW223384   2.367  14.029   4.986
 7163SOL     OW23385   1.477  12.801  14.844
 7163SOL    HW123386   1.511  12.718  14.810
 7163SOL    HW223387   1.390  12.778   0.010
 7164SOL     OW23388   0.458  12.601   2.816
 7164SOL    HW123389   0.487  12.642   2.897
 7164SOL    HW223390   0.400  12.530   2.843
 7165SOL     OW23391  14.107   7.465   3.548
 7165SOL    HW123392  14.101   7.553   3.511
 7165SOL    HW223393  14.029   7.456   3.601
 7166SOL     OW23394  12.094   8.360   0.677
 7166SOL    HW123395  12.163   8.424   0.658
 7166SOL    HW223396  12.034   8.406   0.735
 7167SOL     OW23397  10.444  11.081   6.906
 7167SOL    HW123398  10.366  11.078   6.850
 7167SOL    HW223399  10.514  11.046   6.851
 7168SOL     OW23400   7.830   8.805   4.011
 7168SOL    HW123401   7.746   8.810   4.056
 7168SOL    HW223402   7.810   8.831   3.921
 7169SOL     OW23403   5.683   5.809  11.578
 7169SOL    HW123404   5.648   5.795  11.490
 7169SOL    HW223405   5.773   5.836  11.564
 7170SOL     OW23406   8.361  12.745   3.469
 7170SOL    HW123407   8.289  12.717   3.413
 7170SOL    HW223408   8.431  12.771   3.408
 7171SOL     OW23409  13.381   2.398  14.603
 7171SOL    HW123410  13.289   2.411  14.579
 7171SOL    HW223411  13.393   2.303  14.602
 7172SOL     OW23412   3.045  14.426   9.147
 7172SOL    HW123413   3.047  14.417   9.051
 7172SOL    HW223414   2.959  14.463   9.166
 7173SOL     OW23415   8.047   5.858  11.663
 7173SOL    HW123416   8.117   5.855  11.728
 7173SOL    HW223417   7.972   5.817  11.707
 7174SOL     OW23418  11.522   2.220   2.323
 7174SOL    HW123419  11.500   2.243   2.233
 7174SOL    HW223420  11.524   2.125   2.324
 7175SOL     OW23421   6.162  14.249   3.104
 7175SOL    HW123422   6.232  14.238   3.168
 7175SOL    HW223423   6.102  14.311   3.145
 7176SOL     OW23424   3.636   1.095   4.878
 7176SOL    HW123425   3.614   1.113   4.969
 7176SOL    HW223426   3.711   1.152   4.859
 7177SOL     OW23427   9.618  13.276   2.816
 7177SOL    HW123428   9.700  13.252   2.772
 7177SOL    HW223429   9.568  13.194   2.819
 7178SOL     OW23430   5.949   3.583   3.291
 7178SOL    HW123431   5.858   3.557   3.306
 7178SOL    HW223432   5.943   3.673   3.259
 7179SOL     OW23433   9.834   1.290  14.676
 7179SOL    HW123434   9.814   1.326  14.590
 7179SOL    HW223435   9.881   1.359  14.721
 7180SOL     OW23436  13.556   0.152  10.430
 7180SOL    HW123437  13.584   0.154  10.521
 7180SOL    HW223438  13.601   0.075  10.393
 7181SOL     OW23439  12.076   1.593   0.018
 7181SOL    HW123440  12.002   1.559   0.068
 7181SOL    HW223441  12.136   1.519   0.011
 7182SOL     OW23442  12.675  10.135  13.185
 7182SOL    HW123443  12.737  10.190  13.232
 7182SOL    HW223444  12.605  10.120  13.248
 7183SOL     OW23445  14.564   4.641   4.394
 7183SOL    HW123446  14.480   4.681   4.372
 7183SOL    HW223447  14.595   4.602   4.312
 7184SOL     OW23448  12.509  11.343   2.330
 7184SOL    HW123449  12.497  11.344   2.425
 7184SOL    HW223450  12.523  11.434   2.306
 7185SOL     OW23451  12.870  10.684   1.198
 7185SOL    HW123452  12.822  10.619   1.249
 7185SOL    HW223453  12.807  10.713   1.132
 7186SOL     OW23454   5.545   2.338   9.584
 7186SOL    HW123455   5.523   2.419   9.629
 7186SOL    HW223456   5.569   2.277   9.654
 7187SOL     OW23457   7.718   6.091   8.254
 7187SOL    HW123458   7.643   6.037   8.281
 7187SOL    HW223459   7.711   6.097   8.159
 7188SOL     OW23460   7.606   3.250   0.185
 7188SOL    HW123461   7.541   3.281   0.121
 7188SOL    HW223462   7.680   3.310   0.175
 7189SOL     OW23463   2.348   7.690   8.422
 7189SOL    HW123464   2.284   7.715   8.354
 7189SOL    HW223465   2.376   7.773   8.460
 7190SOL     OW23466   7.484  14.801   8.615
 7190SOL    HW123467   7.436  14.800   8.532
 7190SOL    HW223468   7.439  14.735   8.669
 7191SOL     OW23469   0.522   4.181   4.980
 7191SOL    HW123470   0.551   4.139   4.898
 7191SOL    HW223471   0.575   4.260   4.986
 7192SOL     OW23472   8.953  12.607   2.932
 7192SOL    HW123473   8.911  12.676   2.984
 7192SOL    HW223474   8.898  12.530   2.947
 7193SOL     OW23475  14.843   8.558   6.205
 7193SOL    HW123476  14.778   8.501   6.164
 7193SOL    HW223477   0.059   8.522   6.177
 7194SOL     OW23478   0.660   3.876  12.148
 7194SOL    HW123479   0.661   3.969  12.170
 7194SOL    HW223480   0.617   3.872  12.063
 7195SOL     OW23481  11.511   1.173   5.139
 7195SOL    HW123482  11.429   1.212   5.169
 7195SOL    HW223483  11.518   1.091   5.187
 7196SOL     OW23484  12.103   8.981  10.053
 7196SOL    HW123485  12.039   9.050  10.073
 7196SOL    HW223486  12.188   9.025  10.056
 7197SOL     OW23487   0.024   3.292   6.528
 7197SOL    HW123488   0.111   3.289   6.488
 7197SOL    HW223489   0.037   3.261   6.617
 7198SOL     OW23490   8.449  12.740   9.940
 7198SOL    HW123491   8.489  12.826   9.930
 7198SOL    HW223492   8.494  12.701  10.015
 7199SOL     OW23493   0.677   5.719   4.726
 7199SOL    HW123494   0.595   5.676   4.751
 7199SOL    HW223495   0.672   5.806   4.767
 7200SOL     OW23496   7.557  12.984   4.230
 7200SOL    HW123497   7.499  12.910   4.211
 7200SOL    HW223498   7.619  12.950   4.295
 7201SOL     OW23499   2.429   1.351   3.413
 7201SOL    HW123500   2.387   1.430   3.447
 7201SOL    HW223501   2.418   1.358   3.318
 7202SOL     OW23502   8.641   9.522  13.366
 7202SOL    HW123503   8.647   9.427  13.382
 7202SOL    HW223504   8.689   9.535  13.284
 7203SOL     OW23505   0.136  10.337   5.342
 7203SOL    HW123506   0.149  10.387   5.261
 7203SOL    HW223507   0.050  10.365   5.374
 7204SOL     OW23508   3.831   3.673  14.344
 7204SOL    HW123509   3.806   3.617  14.418
 7204SOL    HW223510   3.783   3.637  14.270
 7205SOL     OW23511   2.234   2.796   8.590
 7205SOL    HW123512   2.264   2.887   8.591
 7205SOL    HW223513   2.274   2.757   8.668
 7206SOL     OW23514   6.365  14.800   8.840
 7206SOL    HW123515   6.281  14.761   8.864
 7206SOL    HW223516   6.393  14.847   8.919
 7207SOL     OW23517   3.758  11.240   6.319
 7207SOL    HW123518   3.804  11.246   6.403
 7207SOL    HW223519   3.706  11.320   6.315
 7208SOL     OW23520   0.809  11.859   8.880
 7208SOL    HW123521   0.803  11.902   8.966
 7208SOL    HW223522   0.855  11.777   8.898
 7209SOL     OW23523   6.984   2.487  12.739
 7209SOL    HW123524   6.966   2.459  12.829
 7209SOL    HW223525   7.003   2.580  12.746
 7210SOL     OW23526   6.492   9.745  14.380
 7210SOL    HW123527   6.514   9.775  14.292
 7210SOL    HW223528   6.540   9.804  14.438
 7211SOL     OW23529   2.247   8.711   4.137
 7211SOL    HW123530   2.235   8.772   4.210
 7211SOL    HW223531   2.243   8.766   4.059
 7212SOL     OW23532   0.954  10.809   4.595
 7212SOL    HW123533   0.945  10.814   4.499
 7212SOL    HW223534   0.885  10.866   4.629
 7213SOL     OW23535  10.841   1.175   9.666
 7213SOL    HW123536  10.900   1.102   9.686
 7213SOL    HW223537  10.757   1.147   9.703
 7214SOL     OW23538   1.741   2.120  14.229
 7214SOL    HW123539   1.671   2.056  14.222
 7214SOL    HW223540   1.726   2.164  14.312
 7215SOL     OW23541   7.974   0.062  12.433
 7215SOL    HW123542   7.942  14.852  12.479
 7215SOL    HW223543   8.057   0.083  12.475
 7216SOL     OW23544   3.967   4.455   8.671
 7216SOL    HW123545   4.041   4.462   8.731
 7216SOL    HW223546   3.915   4.383   8.705
 7217SOL     OW23547   3.702   7.669   6.760
 7217SOL    HW123548   3.777   7.692   6.705
 7217SOL    HW223549   3.741   7.642   6.843
 7218SOL     OW23550  13.305   1.361   2.715
 7218SOL    HW123551  13.288   1.378   2.808
 7218SOL    HW223552  13.377   1.420   2.693
 7219SOL     OW23553   4.957  10.065   9.252
 7219SOL    HW123554   4.948   9.972   9.272
 7219SOL    HW223555   5.047  10.075   9.222
 7220SOL     OW23556   2.469  12.822   8.179
 7220SOL    HW123557   2.393  12.824   8.120
 7220SOL    HW223558   2.477  12.730   8.205
 7221SOL     OW23559   9.537   7.968  10.552
 7221SOL    HW123560   9.453   7.929  10.575
 7221SOL    HW223561   9.599   7.929  10.613
 7222SOL     OW23562  12.822  14.511   5.823
 7222SOL    HW123563  12.829  14.500   5.918
 7222SOL    HW223564  12.913  14.504   5.792
 7223SOL     OW23565   5.778  13.472  13.001
 7223SOL    HW123566   5.813  13.476  13.090
 7223SOL    HW223567   5.698  13.421  13.009
 7224SOL     OW23568   9.395  12.201   3.977
 7224SOL    HW123569   9.414  12.121   4.027
 7224SOL    HW223570   9.465  12.262   4.001
 7225SOL     OW23571  10.026   7.661  13.771
 7225SOL    HW123572   9.952   7.655  13.831
 7225SOL    HW223573  10.025   7.578  13.723
 7226SOL     OW23574   0.448  13.470  10.738
 7226SOL    HW123575   0.459  13.482  10.644
 7226SOL    HW223576   0.514  13.404  10.762
 7227SOL     OW23577  13.697  10.159   1.469
 7227SOL    HW123578  13.627  10.141   1.531
 7227SOL    HW223579  13.692  10.254   1.453
 7228SOL     OW23580   6.924   3.792  14.125
 7228SOL    HW123581   6.899   3.716  14.073
 7228SOL    HW223582   6.854   3.855  14.111
 7229SOL     OW23583   7.680   0.114   3.784
 7229SOL    HW123584   7.726   0.060   3.720
 7229SOL    HW223585   7.592   0.075   3.789
 7230SOL     OW23586   0.167   3.664   9.408
 7230SOL    HW123587   0.102   3.691   9.473
 7230SOL    HW223588   0.240   3.724   9.421
 7231SOL     OW23589   7.052   8.048   9.357
 7231SOL    HW123590   7.114   8.115   9.386
 7231SOL    HW223591   6.983   8.097   9.313
 7232SOL     OW23592   9.111   4.932  11.945
 7232SOL    HW123593   9.113   4.855  12.002
 7232SOL    HW223594   9.129   5.005  12.004
 7233SOL     OW23595   2.813   3.495   5.891
 7233SOL    HW123596   2.848   3.582   5.873
 7233SOL    HW223597   2.737   3.510   5.947
 7234SOL     OW23598   7.692   0.059   4.824
 7234SOL    HW123599   7.737   0.116   4.886
 7234SOL    HW223600   7.650  14.860   4.879
 7235SOL     OW23601  12.279   1.926  10.295
 7235SOL    HW123602  12.270   2.016  10.265
 7235SOL    HW223603  12.254   1.873  10.219
 7236SOL     OW23604   4.863   7.930  10.513
 7236SOL    HW123605   4.949   7.890  10.497
 7236SOL    HW223606   4.842   7.974  10.431
 7237SOL     OW23607  13.234   3.909   0.057
 7237SOL    HW123608  13.252   3.939   0.146
 7237SOL    HW223609  13.184   3.980   0.017
 7238SOL     OW23610   2.714   2.948   5.101
 7238SOL    HW123611   2.791   2.989   5.141
 7238SOL    HW223612   2.742   2.925   5.013
 7239SOL     OW23613  12.961   4.280  14.636
 7239SOL    HW123614  13.024   4.318  14.575
 7239SOL    HW223615  12.909   4.220  14.583
 7240SOL     OW23616   5.976   5.671   2.991
 7240SOL    HW123617   5.886   5.705   2.996
 7240SOL    HW223618   5.970   5.596   2.932
 7241SOL     OW23619   4.211   1.131   1.853
 7241SOL    HW123620   4.287   1.163   1.804
 7241SOL    HW223621   4.136   1.162   1.803
 7242SOL     OW23622  10.018   3.065  13.221
 7242SOL    HW123623  10.114   3.061  13.229
 7242SOL    HW223624  10.002   3.079  13.128
 7243SOL     OW23625   1.090   4.108   0.869
 7243SOL    HW123626   1.083   4.060   0.786
 7243SOL    HW223627   1.184   4.114   0.885
 7244SOL     OW23628   6.715   7.182   0.833
 7244SOL    HW123629   6.633   7.208   0.790
 7244SOL    HW223630   6.726   7.090   0.809
 7245SOL     OW23631   6.353  11.780   3.445
 7245SOL    HW123632   6.433  11.812   3.487
 7245SOL    HW223633   6.283  11.803   3.506
 7246SOL     OW23634  10.983  12.756   6.076
 7246SOL    HW123635  11.014  12.817   6.008
 7246SOL    HW223636  10.891  12.779   6.089
 7247SOL     OW23637   8.464   1.894   0.252
 7247SOL    HW123638   8.505   1.809   0.235
 7247SOL    HW223639   8.527   1.940   0.308
 7248SOL     OW23640   5.861   2.009   2.086
 7248SOL    HW123641   5.880   2.035   1.996
 7248SOL    HW223642   5.789   1.946   2.079
 7249SOL     OW23643   7.177  12.772   6.778
 7249SOL    HW123644   7.148  12.717   6.850
 7249SOL    HW223645   7.194  12.711   6.706
 7250SOL     OW23646  12.836   9.888   3.310
 7250SOL    HW123647  12.780   9.926   3.242
 7250SOL    HW223648  12.882   9.817   3.266
 7251SOL     OW23649   2.207   7.126   6.836
 7251SOL    HW123650   2.211   7.109   6.930
 7251SOL    HW223651   2.114   7.142   6.819
 7252SOL     OW23652   9.752   0.380   1.615
 7252SOL    HW123653   9.779   0.350   1.702
 7252SOL    HW223654   9.657   0.374   1.615
 7253SOL     OW23655   8.082   1.366  11.571
 7253SOL    HW123656   8.129   1.435  11.619
 7253SOL    HW223657   8.144   1.339  11.503
 7254SOL     OW23658   7.489   9.268   9.508
 7254SOL    HW123659   7.484   9.360   9.536
 7254SOL    HW223660   7.559   9.230   9.560
 7255SOL     OW23661  13.619   6.086   5.950
 7255SOL    HW123662  13.619   6.056   5.859
 7255SOL    HW223663  13.534   6.058   5.984
 7256SOL     OW23664   0.404  10.755   6.556
 7256SOL    HW123665   0.470  10.794   6.613
 7256SOL    HW223666   0.419  10.795   6.470
 7257SOL     OW23667   2.922  11.092   5.443
 7257SOL    HW123668   2.859  11.155   5.478
 7257SOL    HW223669   2.994  11.092   5.506
 7258SOL     OW23670   5.497   8.389   2.859
 7258SOL    HW123671   5.555   8.313   2.866
 7258SOL    HW223672   5.551   8.464   2.885
 7259SOL     OW23673  10.215   8.552   0.555
 7259SOL    HW123674  10.221   8.458   0.538
 7259SOL    HW223675  10.296   8.574   0.600
 7260SOL     OW23676   4.278   2.440   4.687
 7260SOL    HW123677   4.363   2.434   4.644
 7260SOL    HW223678   4.290   2.506   4.755
 7261SOL     OW23679   5.801   9.083   1.296
 7261SOL    HW123680   5.880   9.129   1.324
 7261SOL    HW223681   5.772   9.131   1.218
 7262SOL     OW23682   2.418  13.695   0.775
 7262SOL    HW123683   2.368  13.635   0.720
 7262SOL    HW223684   2.357  13.719   0.845
 7263SOL     OW23685   5.323   4.541   5.328
 7263SOL    HW123686   5.233   4.531   5.296
 7263SOL    HW223687   5.348   4.630   5.303
 7264SOL     OW23688   0.097  11.388   5.414
 7264SOL    HW123689   0.018  11.378   5.467
 7264SOL    HW223690   0.123  11.298   5.393
 7265SOL     OW23691   9.551  12.107   6.371
 7265SOL    HW123692   9.602  12.124   6.450
 7265SOL    HW223693   9.593  12.030   6.332
 7266SOL     OW23694   9.359   7.693   9.569
 7266SOL    HW123695   9.338   7.712   9.478
 7266SOL    HW223696   9.333   7.601   9.580
 7267SOL     OW23697   4.063  11.188   3.563
 7267SOL    HW123698   3.989  11.246   3.542
 7267SOL    HW223699   4.047  11.161   3.654
 7268SOL     OW23700   1.051  11.356   3.952
 7268SOL    HW123701   1.012  11.418   4.013
 7268SOL    HW223702   1.109  11.301   4.006
 7269SOL     OW23703   5.701   0.809   6.377
 7269SOL    HW123704   5.741   0.738   6.427
 7269SOL    HW223705   5.687   0.772   6.290
 7270SOL     OW23706   6.269   1.237   7.925
 7270SOL    HW123707   6.357   1.271   7.907
 7270SOL    HW223708   6.213   1.315   7.923
 7271SOL     OW23709   7.496   1.970   0.462
 7271SOL    HW123710   7.495   2.024   0.383
 7271SOL    HW223711   7.537   1.888   0.434
 7272SOL     OW23712   8.615   6.194   1.426
 7272SOL    HW123713   8.625   6.185   1.332
 7272SOL    HW223714   8.648   6.282   1.446
 7273SOL     OW23715  11.609   9.117  12.466
 7273SOL    HW123716  11.597   9.192  12.524
 7273SOL    HW223717  11.602   9.041  12.525
 7274SOL     OW23718   7.576  10.449   1.139
 7274SOL    HW123719   7.544  10.444   1.229
 7274SOL    HW223720   7.508  10.408   1.086
 7275SOL     OW23721   6.131  13.501  13.331
 7275SOL    HW123722   6.116  13.595  13.319
 7275SOL    HW223723   6.098  13.461  13.251
 7276SOL     OW23724   4.592   1.318   6.123
 7276SOL    HW123725   4.530   1.346   6.190
 7276SOL    HW223726   4.537   1.293   6.049
 7277SOL     OW23727   5.907   6.749   8.286
 7277SOL    HW123728   5.937   6.818   8.345
 7277SOL    HW223729   5.897   6.793   8.201
 7278SOL     OW23730  12.268   0.193  10.768
 7278SOL    HW123731  12.355   0.168  10.737
 7278SOL    HW223732  12.278   0.285  10.794
 7279SOL     OW23733   2.938   0.245  10.514
 7279SOL    HW123734   2.991   0.321  10.490
 7279SOL    HW223735   3.001   0.184  10.553
 7280SOL     OW23736   0.433  11.667   7.535
 7280SOL    HW123737   0.388  11.735   7.485
 7280SOL    HW223738   0.376  11.590   7.527
 7281SOL     OW23739   9.699   1.286   6.579
 7281SOL    HW123740   9.608   1.264   6.596
 7281SOL    HW223741   9.695   1.367   6.529
 7282SOL     OW23742  11.730   7.744  12.176
 7282SOL    HW123743  11.714   7.675  12.241
 7282SOL    HW223744  11.675   7.817  12.205
 7283SOL     OW23745  12.021   5.454   0.184
 7283SOL    HW123746  11.953   5.471   0.249
 7283SOL    HW223747  12.084   5.525   0.195
 7284SOL     OW23748   1.184   8.522  13.470
 7284SOL    HW123749   1.175   8.521  13.375
 7284SOL    HW223750   1.278   8.525  13.486
 7285SOL     OW23751   3.617   8.988   3.308
 7285SOL    HW123752   3.585   8.952   3.225
 7285SOL    HW223753   3.538   9.020   3.352
 7286SOL     OW23754   8.446   6.700   7.700
 7286SOL    HW123755   8.361   6.689   7.743
 7286SOL    HW223756   8.504   6.637   7.744
 7287SOL     OW23757  12.671  14.108   1.365
 7287SOL    HW123758  12.616  14.078   1.437
 7287SOL    HW223759  12.616  14.098   1.287
 7288SOL     OW23760  12.978   8.842   1.480
 7288SOL    HW123761  12.991   8.770   1.542
 7288SOL    HW223762  12.883   8.844   1.465
 7289SOL     OW23763   7.374   5.116   3.801
 7289SOL    HW123764   7.362   5.026   3.830
 7289SOL    HW223765   7.330   5.169   3.868
 7290SOL     OW23766   1.926  14.694  10.197
 7290SOL    HW123767   1.844  14.725  10.237
 7290SOL    HW223768   1.938  14.606  10.232
 7291SOL     OW23769   1.526   4.625   5.058
 7291SOL    HW123770   1.484   4.554   5.106
 7291SOL    HW223771   1.615   4.630   5.094
 7292SOL     OW23772   4.353   7.467   7.366
 7292SOL    HW123773   4.340   7.423   7.449
 7292SOL    HW223774   4.313   7.409   7.301
 7293SOL     OW23775   4.733  12.242   1.151
 7293SOL    HW123776   4.745  12.303   1.223
 7293SOL    HW223777   4.800  12.267   1.087
 7294SOL     OW23778  10.385   6.563  12.024
 7294SOL    HW123779  10.406   6.558  11.931
 7294SOL    HW223780  10.429   6.486  12.062
 7295SOL     OW23781   3.656   7.192   3.917
 7295SOL    HW123782   3.673   7.174   4.010
 7295SOL    HW223783   3.615   7.112   3.885
 7296SOL     OW23784   8.638   6.663   2.201
 7296SOL    HW123785   8.681   6.604   2.138
 7296SOL    HW223786   8.693   6.657   2.280
 7297SOL     OW23787   7.427   8.173  14.072
 7297SOL    HW123788   7.390   8.160  13.985
 7297SOL    HW223789   7.474   8.092  14.091
 7298SOL     OW23790   9.103   6.345   3.464
 7298SOL    HW123791   9.155   6.381   3.392
 7298SOL    HW223792   9.026   6.306   3.421
 7299SOL     OW23793   7.359   0.019  14.128
 7299SOL    HW123794   7.341   0.056  14.042
 7299SOL    HW223795   7.314   0.078  14.189
 7300SOL     OW23796   9.767   0.145  14.012
 7300SOL    HW123797   9.761   0.167  13.919
 7300SOL    HW223798   9.717   0.214  14.056
 7301SOL     OW23799   6.007   3.530   9.420
 7301SOL    HW123800   6.041   3.478   9.493
 7301SOL    HW223801   6.055   3.612   9.425
 7302SOL     OW23802   2.672   6.118  10.264
 7302SOL    HW123803   2.638   6.174  10.334
 7302SOL    HW223804   2.695   6.036  10.308
 7303SOL     OW23805  12.681  12.646   4.865
 7303SOL    HW123806  12.724  12.564   4.839
 7303SOL    HW223807  12.616  12.619   4.930
 7304SOL     OW23808   0.528   0.869  12.010
 7304SOL    HW123809   0.460   0.804  11.988
 7304SOL    HW223810   0.522   0.879  12.105
 7305SOL     OW23811  10.282  11.916   0.864
 7305SOL    HW123812  10.203  11.968   0.854
 7305SOL    HW223813  10.354  11.978   0.851
 7306SOL     OW23814   1.747   5.500  14.486
 7306SOL    HW123815   1.766   5.408  14.506
 7306SOL    HW223816   1.752   5.545  14.570
 7307SOL     OW23817   1.790   7.501   5.667
 7307SOL    HW123818   1.855   7.447   5.623
 7307SOL    HW223819   1.705   7.466   5.639
 7308SOL     OW23820  12.434   8.091   5.424
 7308SOL    HW123821  12.381   8.060   5.350
 7308SOL    HW223822  12.472   8.173   5.394
 7309SOL     OW23823   5.016  12.639   4.988
 7309SOL    HW123824   5.110  12.655   4.998
 7309SOL    HW223825   4.976  12.688   5.059
 7310SOL     OW23826   2.494   0.644   0.242
 7310SOL    HW123827   2.530   0.600   0.165
 7310SOL    HW223828   2.403   0.616   0.245
 7311SOL     OW23829   6.112  13.835  14.812
 7311SOL    HW123830   6.017  13.824  14.807
 7311SOL    HW223831   6.125  13.928  14.831
 7312SOL     OW23832  11.928  13.012   8.003
 7312SOL    HW123833  11.864  13.049   7.943
 7312SOL    HW223834  11.958  12.932   7.960
 7313SOL     OW23835   5.982   3.886   9.427
 7313SOL    HW123836   6.025   3.912   9.508
 7313SOL    HW223837   6.052   3.881   9.362
 7314SOL     OW23838  10.461   1.743   6.893
 7314SOL    HW123839  10.530   1.728   6.829
 7314SOL    HW223840  10.432   1.655   6.918
 7315SOL     OW23841   2.068   6.922   8.013
 7315SOL    HW123842   2.066   6.972   8.094
 7315SOL    HW223843   2.137   6.964   7.961
 7316SOL     OW23844  10.519  14.312   0.652
 7316SOL    HW123845  10.515  14.218   0.637
 7316SOL    HW223846  10.506  14.351   0.566
 7317SOL     OW23847  10.277  11.792   6.246
 7317SOL    HW123848  10.371  11.799   6.260
 7317SOL    HW223849  10.245  11.740   6.319
 7318SOL     OW23850   6.886  11.274   8.333
 7318SOL    HW123851   6.811  11.317   8.293
 7318SOL    HW223852   6.867  11.274   8.427
 7319SOL     OW23853   5.506  11.368  10.693
 7319SOL    HW123854   5.593  11.367  10.734
 7319SOL    HW223855   5.466  11.285  10.719
 7320SOL     OW23856   6.385   3.568   8.626
 7320SOL    HW123857   6.378   3.494   8.686
 7320SOL    HW223858   6.473   3.560   8.589
 7321SOL     OW23859   3.997  10.014   0.906
 7321SOL    HW123860   4.026   9.989   0.818
 7321SOL    HW223861   3.930  10.080   0.891
 7322SOL     OW23862   7.420  12.040   9.392
 7322SOL    HW123863   7.455  11.984   9.323
 7322SOL    HW223864   7.426  12.129   9.356
 7323SOL     OW23865   3.866   4.477   1.616
 7323SOL    HW123866   3.892   4.385   1.621
 7323SOL    HW223867   3.837   4.499   1.704
 7324SOL     OW23868   2.469   3.183   3.778
 7324SOL    HW123869   2.390   3.237   3.781
 7324SOL    HW223870   2.509   3.193   3.864
 7325SOL     OW23871  11.235  10.108   7.121
 7325SOL    HW123872  11.213  10.133   7.031
 7325SOL    HW223873  11.323  10.141   7.135
 7326SOL     OW23874   9.325  12.065  13.221
 7326SOL    HW123875   9.238  12.030  13.202
 7326SOL    HW223876   9.322  12.090  13.314
 7327SOL     OW23877   1.943   5.614  11.932
 7327SOL    HW123878   2.039   5.614  11.927
 7327SOL    HW223879   1.922   5.693  11.982
 7328SOL     OW23880   8.166   7.847   5.025
 7328SOL    HW123881   8.152   7.802   4.941
 7328SOL    HW223882   8.079   7.878   5.050
 7329SOL     OW23883   4.371  14.106   9.971
 7329SOL    HW123884   4.353  14.200   9.968
 7329SOL    HW223885   4.466  14.099   9.983
 7330SOL     OW23886   6.894   5.877   2.704
 7330SOL    HW123887   6.874   5.835   2.621
 7330SOL    HW223888   6.960   5.943   2.683
 7331SOL     OW23889   8.464   4.450   9.795
 7331SOL    HW123890   8.409   4.524   9.768
 7331SOL    HW223891   8.493   4.472   9.883
 7332SOL     OW23892  14.262   6.944  13.489
 7332SOL    HW123893  14.295   6.996  13.561
 7332SOL    HW223894  14.305   6.859  13.498
 7333SOL     OW23895   6.665   4.240   7.967
 7333SOL    HW123896   6.677   4.262   8.060
 7333SOL    HW223897   6.745   4.194   7.943
 7334SOL     OW23898   4.989  11.915   1.866
 7334SOL    HW123899   5.046  11.877   1.933
 7334SOL    HW223900   4.963  12.000   1.903
 7335SOL     OW23901   3.604  11.074   0.820
 7335SOL    HW123902   3.524  11.123   0.798
 7335SOL    HW223903   3.598  10.994   0.768
 7336SOL     OW23904   1.964  10.907   3.521
 7336SOL    HW123905   2.014  10.906   3.603
 7336SOL    HW223906   1.898  10.976   3.534
 7337SOL     OW23907   8.975   0.780  13.093
 7337SOL    HW123908   9.026   0.739  13.023
 7337SOL    HW223909   9.001   0.734  13.173
 7338SOL     OW23910   2.231   6.555   3.193
 7338SOL    HW123911   2.248   6.477   3.140
 7338SOL    HW223912   2.144   6.539   3.231
 7339SOL     OW23913  14.475   2.823  13.282
 7339SOL    HW123914  14.539   2.823  13.352
 7339SOL    HW223915  14.396   2.860  13.321
 7340SOL     OW23916  12.892   2.422  10.643
 7340SOL    HW123917  12.890   2.481  10.719
 7340SOL    HW223918  12.949   2.351  10.669
 7341SOL     OW23919  13.447   3.894   8.363
 7341SOL    HW123920  13.533   3.888   8.320
 7341SOL    HW223921  13.396   3.951   8.306
 7342SOL     OW23922   2.864   6.304   7.167
 7342SOL    HW123923   2.844   6.228   7.222
 7342SOL    HW223924   2.890   6.372   7.229
 7343SOL     OW23925   2.435   0.154  10.863
 7343SOL    HW123926   2.433   0.058  10.861
 7343SOL    HW223927   2.371   0.178  10.929
 7344SOL     OW23928   6.343   9.278   7.090
 7344SOL    HW123929   6.279   9.234   7.148
 7344SOL    HW223930   6.427   9.238   7.113
 7345SOL     OW23931  13.190   7.738   5.412
 7345SOL    HW123932  13.116   7.700   5.365
 7345SOL    HW223933  13.238   7.662   5.446
 7346SOL     OW23934   8.083   3.369   2.958
 7346SOL    HW123935   8.079   3.414   2.873
 7346SOL    HW223936   8.125   3.285   2.938
 7347SOL     OW23937   2.933   7.349   0.134
 7347SOL    HW123938   2.916   7.427   0.082
 7347SOL    HW223939   2.992   7.378   0.204
 7348SOL     OW23940  12.195  12.307  14.359
 7348SOL    HW123941  12.231  12.268  14.279
 7348SOL    HW223942  12.244  12.266  14.430
 7349SOL     OW23943  12.036   6.256  13.859
 7349SOL    HW123944  12.011   6.247  13.951
 7349SOL    HW223945  12.124   6.293  13.862
 7350SOL     OW23946  11.679   7.888  10.806
 7350SOL    HW123947  11.648   7.950  10.740
 7350SOL    HW223948  11.732   7.940  10.866
 7351SOL     OW23949   4.623   8.085   8.768
 7351SOL    HW123950   4.593   8.017   8.708
 7351SOL    HW223951   4.575   8.069   8.849
 7352SOL     OW23952   2.815   7.158   7.531
 7352SOL    HW123953   2.833   7.245   7.496
 7352SOL    HW223954   2.761   7.116   7.465
 7353SOL     OW23955   1.381   3.952   1.948
 7353SOL    HW123956   1.318   3.921   1.883
 7353SOL    HW223957   1.459   3.898   1.934
 7354SOL     OW23958   4.017  12.259   0.830
 7354SOL    HW123959   3.986  12.169   0.837
 7354SOL    HW223960   4.108  12.251   0.802
 7355SOL     OW23961  12.548  13.301   5.862
 7355SOL    HW123962  12.560  13.380   5.810
 7355SOL    HW223963  12.539  13.333   5.952
 7356SOL     OW23964   6.996   6.887  10.430
 7356SOL    HW123965   6.960   6.873  10.342
 7356SOL    HW223966   6.932   6.944  10.473
 7357SOL     OW23967   4.316  13.904   6.406
 7357SOL    HW123968   4.401  13.862   6.414
 7357SOL    HW223969   4.335  13.996   6.391
 7358SOL     OW23970  13.121   7.261  10.456
 7358SOL    HW123971  13.214   7.285  10.454
 7358SOL    HW223972  13.084   7.317  10.525
 7359SOL     OW23973   6.168  13.578   7.247
 7359SOL    HW123974   6.096  13.575   7.310
 7359SOL    HW223975   6.170  13.669   7.217
 7360SOL     OW23976   0.933   8.687   3.644
 7360SOL    HW123977   0.915   8.781   3.638
 7360SOL    HW223978   0.853   8.651   3.683
 7361SOL     OW23979   4.552   5.581   4.363
 7361SOL    HW123980   4.624   5.623   4.410
 7361SOL    HW223981   4.521   5.648   4.302
 7362SOL     OW23982   3.699   9.026  10.008
 7362SOL    HW123983   3.731   8.941   9.977
 7362SOL    HW223984   3.619   9.006  10.056
 7363SOL     OW23985   2.031   4.590  12.665
 7363SOL    HW123986   1.965   4.628  12.723
 7363SOL    HW223987   2.045   4.657  12.597
 7364SOL     OW23988  13.509   3.513   1.781
 7364SOL    HW123989  13.590   3.471   1.754
 7364SOL    HW223990  13.455   3.441   1.813
 7365SOL     OW23991  13.872   4.748  14.374
 7365SOL    HW123992  13.932   4.822  14.389
 7365SOL    HW223993  13.807   4.755  14.444
 7366SOL     OW23994  11.351  12.266   4.561
 7366SOL    HW123995  11.311  12.311   4.636
 7366SOL    HW223996  11.417  12.209   4.600
 7367SOL     OW23997  11.818   8.111   1.705
 7367SOL    HW123998  11.791   8.197   1.736
 7367SOL    HW223999  11.740   8.056   1.715
 7368SOL     OW24000  12.072  13.124   6.793
 7368SOL    HW124001  12.010  13.062   6.830
 7368SOL    HW224002  12.132  13.071   6.741
 7369SOL     OW24003  11.558   8.853   6.945
 7369SOL    HW124004  11.654   8.851   6.948
 7369SOL    HW224005  11.538   8.901   6.864
 7370SOL     OW24006   5.231   2.334   1.071
 7370SOL    HW124007   5.235   2.429   1.062
 7370SOL    HW224008   5.290   2.301   1.003
 7371SOL     OW24009  11.614   5.151  11.252
 7371SOL    HW124010  11.614   5.129  11.159
 7371SOL    HW224011  11.599   5.245  11.255
 7372SOL     OW24012   7.880   0.558  14.003
 7372SOL    HW124013   7.930   0.636  14.027
 7372SOL    HW224014   7.874   0.560  13.908
 7373SOL     OW24015   3.873   1.283   0.239
 7373SOL    HW124016   3.922   1.351   0.194
 7373SOL    HW224017   3.807   1.330   0.290
 7374SOL     OW24018   1.823  12.292   9.140
 7374SOL    HW124019   1.765  12.258   9.207
 7374SOL    HW224020   1.765  12.336   9.078
 7375SOL     OW24021   5.369   4.752  13.587
 7375SOL    HW124022   5.318   4.766  13.508
 7375SOL    HW224023   5.382   4.657  13.592
 7376SOL     OW24024   7.025  12.516  10.291
 7376SOL    HW124025   6.959  12.461  10.334
 7376SOL    HW224026   6.987  12.604  10.291
 7377SOL     OW24027   9.921  12.010   4.816
 7377SOL    HW124028   9.832  12.036   4.790
 7377SOL    HW224029   9.935  11.926   4.773
 7378SOL     OW24030   1.351   8.442   9.716
 7378SOL    HW124031   1.430   8.422   9.666
 7378SOL    HW224032   1.280   8.407   9.663
 7379SOL     OW24033   6.120   1.913  11.358
 7379SOL    HW124034   6.211   1.942  11.362
 7379SOL    HW224035   6.118   1.848  11.288
 7380SOL     OW24036  10.969   5.170   2.360
 7380SOL    HW124037  10.941   5.235   2.296
 7380SOL    HW224038  11.041   5.123   2.317
 7381SOL     OW24039   6.506  11.832  14.144
 7381SOL    HW124040   6.472  11.798  14.061
 7381SOL    HW224041   6.599  11.808  14.142
 7382SOL     OW24042   8.572   3.205   8.092
 7382SOL    HW124043   8.539   3.136   8.149
 7382SOL    HW224044   8.527   3.192   8.009
 7383SOL     OW24045   1.797  14.684  13.045
 7383SOL    HW124046   1.864  14.618  13.026
 7383SOL    HW224047   1.764  14.710  12.960
 7384SOL     OW24048  11.883   1.880  13.584
 7384SOL    HW124049  11.901   1.911  13.495
 7384SOL    HW224050  11.815   1.814  13.573
 7385SOL     OW24051  11.615  14.012  11.697
 7385SOL    HW124052  11.626  14.087  11.638
 7385SOL    HW224053  11.653  14.040  11.780
 7386SOL     OW24054   3.105   7.571   8.923
 7386SOL    HW124055   3.013   7.594   8.920
 7386SOL    HW224056   3.135   7.604   9.008
 7387SOL     OW24057   4.663   7.289   6.153
 7387SOL    HW124058   4.707   7.250   6.228
 7387SOL    HW224059   4.571   7.266   6.165
 7388SOL     OW24060   2.688  10.135   5.061
 7388SOL    HW124061   2.744  10.209   5.087
 7388SOL    HW224062   2.750  10.065   5.040
 7389SOL     OW24063   6.927   8.449   4.857
 7389SOL    HW124064   6.986   8.523   4.840
 7389SOL    HW224065   6.919   8.406   4.772
 7390SOL     OW24066  13.166  12.455  14.490
 7390SOL    HW124067  13.206  12.370  14.509
 7390SOL    HW224068  13.196  12.476  14.401
 7391SOL     OW24069  12.753   3.561   6.717
 7391SOL    HW124070  12.809   3.514   6.655
 7391SOL    HW224071  12.812   3.620   6.763
 7392SOL     OW24072   8.710   4.876   4.502
 7392SOL    HW124073   8.752   4.956   4.532
 7392SOL    HW224074   8.690   4.828   4.582
 7393SOL     OW24075   9.902   6.640  10.509
 7393SOL    HW124076   9.903   6.545  10.517
 7393SOL    HW224077   9.966   6.659  10.440
 7394SOL     OW24078   4.538   3.015   8.693
 7394SOL    HW124079   4.533   3.107   8.719
 7394SOL    HW224080   4.505   2.967   8.769
 7395SOL     OW24081   8.770   4.476   1.571
 7395SOL    HW124082   8.683   4.438   1.566
 7395SOL    HW224083   8.814   4.428   1.641
 7396SOL     OW24084  10.592   7.471  13.835
 7396SOL    HW124085  10.575   7.384  13.800
 7396SOL    HW224086  10.646   7.455  13.913
 7397SOL     OW24087   7.350   2.966  10.860
 7397SOL    HW124088   7.433   2.922  10.874
 7397SOL    HW224089   7.371   3.040  10.803
 7398SOL     OW24090  12.696   0.711  12.660
 7398SOL    HW124091  12.755   0.651  12.705
 7398SOL    HW224092  12.704   0.793  12.708
 7399SOL     OW24093   0.026  13.438   0.074
 7399SOL    HW124094   0.101  13.460   0.131
 7399SOL    HW224095  14.818  13.475   0.119
 7400SOL     OW24096   1.594   0.686   4.585
 7400SOL    HW124097   1.564   0.611   4.636
 7400SOL    HW224098   1.571   0.665   4.495
 7401SOL     OW24099   7.126   8.737  12.383
 7401SOL    HW124100   7.104   8.816  12.433
 7401SOL    HW224101   7.125   8.667  12.447
 7402SOL     OW24102   6.995   7.658  12.202
 7402SOL    HW124103   6.962   7.631  12.288
 7402SOL    HW224104   7.050   7.734  12.221
 7403SOL     OW24105   1.336   1.230   7.790
 7403SOL    HW124106   1.352   1.136   7.779
 7403SOL    HW224107   1.330   1.264   7.701
 7404SOL     OW24108  11.978   2.460   0.726
 7404SOL    HW124109  12.003   2.507   0.646
 7404SOL    HW224110  12.020   2.374   0.717
 7405SOL     OW24111   1.749  10.453   4.820
 7405SOL    HW124112   1.726  10.545   4.823
 7405SOL    HW224113   1.843  10.450   4.839
 7406SOL     OW24114  11.151   9.234  12.500
 7406SOL    HW124115  11.117   9.146  12.513
 7406SOL    HW224116  11.133   9.254  12.409
 7407SOL     OW24117   6.455   7.281  13.124
 7407SOL    HW124118   6.500   7.281  13.039
 7407SOL    HW224119   6.406   7.362  13.126
 7408SOL     OW24120   5.995   8.808   1.444
 7408SOL    HW124121   6.060   8.870   1.411
 7408SOL    HW224122   5.943   8.859   1.506
 7409SOL     OW24123   3.745   4.933  10.311
 7409SOL    HW124124   3.686   4.936  10.236
 7409SOL    HW224125   3.762   5.025  10.332
 7410SOL     OW24126   0.281  13.732  11.651
 7410SOL    HW124127   0.344  13.794  11.689
 7410SOL    HW224128   0.261  13.671  11.723
 7411SOL     OW24129   0.136   3.276   4.569
 7411SOL    HW124130   0.158   3.297   4.479
 7411SOL    HW224131   0.041   3.289   4.574
 7412SOL     OW24132  14.313  10.976  10.090
 7412SOL    HW124133  14.377  11.045  10.069
 7412SOL    HW224134  14.365  10.895  10.092
 7413SOL     OW24135  10.798  14.339   0.661
 7413SOL    HW124136  10.710  14.302   0.650
 7413SOL    HW224137  10.784  14.415   0.718
 7414SOL     OW24138   5.078   6.653   3.610
 7414SOL    HW124139   5.083   6.742   3.645
 7414SOL    HW224140   5.062   6.664   3.517
 7415SOL     OW24141  11.012   5.985   4.628
 7415SOL    HW124142  11.047   5.983   4.539
 7415SOL    HW224143  11.082   5.950   4.683
 7416SOL     OW24144  13.795   3.465   9.464
 7416SOL    HW124145  13.814   3.516   9.386
 7416SOL    HW224146  13.751   3.386   9.430
 7417SOL     OW24147   7.770   0.967  14.048
 7417SOL    HW124148   7.832   1.033  14.079
 7417SOL    HW224149   7.807   0.883  14.076
 7418SOL     OW24150   0.090   5.572   7.909
 7418SOL    HW124151   0.050   5.652   7.877
 7418SOL    HW224152   0.077   5.508   7.839
 7419SOL     OW24153   9.500   0.575  11.413
 7419SOL    HW124154   9.472   0.541  11.498
 7419SOL    HW224155   9.447   0.653  11.400
 7420SOL     OW24156   9.401   9.357   3.670
 7420SOL    HW124157   9.472   9.353   3.734
 7420SOL    HW224158   9.444   9.373   3.586
 7421SOL     OW24159   7.225  11.924   9.690
 7421SOL    HW124160   7.244  11.856   9.754
 7421SOL    HW224161   7.228  11.879   9.605
 7422SOL     OW24162   8.471   4.184   8.071
 7422SOL    HW124163   8.450   4.091   8.065
 7422SOL    HW224164   8.566   4.188   8.066
 7423SOL     OW24165   4.113   7.717  12.863
 7423SOL    HW124166   4.112   7.623  12.842
 7423SOL    HW224167   4.029   7.734  12.904
 7424SOL     OW24168  12.909  13.642  10.035
 7424SOL    HW124169  12.954  13.708  10.088
 7424SOL    HW224170  12.947  13.652   9.947
 7425SOL     OW24171   8.567  12.576  10.146
 7425SOL    HW124172   8.499  12.604  10.207
 7425SOL    HW224173   8.645  12.568  10.199
 7426SOL     OW24174  12.694   3.446   8.448
 7426SOL    HW124175  12.622   3.463   8.387
 7426SOL    HW224176  12.726   3.533   8.472
 7427SOL     OW24177  10.594   5.378   8.125
 7427SOL    HW124178  10.670   5.395   8.069
 7427SOL    HW224179  10.555   5.464   8.140
 7428SOL     OW24180  11.572   0.670   6.310
 7428SOL    HW124181  11.521   0.750   6.306
 7428SOL    HW224182  11.543   0.627   6.391
 7429SOL     OW24183  12.373   6.344   9.337
 7429SOL    HW124184  12.342   6.257   9.313
 7429SOL    HW224185  12.454   6.355   9.287
 7430SOL     OW24186   1.458  12.219   7.396
 7430SOL    HW124187   1.480  12.224   7.489
 7430SOL    HW224188   1.541  12.235   7.350
 7431SOL     OW24189   9.838   2.956   6.985
 7431SOL    HW124190   9.931   2.937   6.997
 7431SOL    HW224191   9.815   3.012   7.059
 7432SOL     OW24192   6.094  13.136  14.552
 7432SOL    HW124193   6.171  13.101  14.506
 7432SOL    HW224194   6.089  13.083  14.632
 7433SOL     OW24195  11.863   3.187   9.572
 7433SOL    HW124196  11.784   3.214   9.525
 7433SOL    HW224197  11.856   3.091   9.578
 7434SOL     OW24198  12.772   4.410   2.284
 7434SOL    HW124199  12.723   4.418   2.366
 7434SOL    HW224200  12.825   4.489   2.280
 7435SOL     OW24201  12.046   9.546   8.879
 7435SOL    HW124202  12.013   9.635   8.885
 7435SOL    HW224203  12.141   9.555   8.888
 7436SOL     OW24204   5.435   5.445   1.428
 7436SOL    HW124205   5.383   5.421   1.351
 7436SOL    HW224206   5.372   5.478   1.491
 7437SOL     OW24207  14.216  14.145  13.341
 7437SOL    HW124208  14.267  14.224  13.358
 7437SOL    HW224209  14.281  14.078  13.321
 7438SOL     OW24210   4.849  14.611   0.287
 7438SOL    HW124211   4.775  14.566   0.328
 7438SOL    HW224212   4.816  14.639   0.202
 7439SOL     OW24213   3.764   4.322  11.820
 7439SOL    HW124214   3.697   4.380  11.857
 7439SOL    HW224215   3.802   4.372  11.748
 7440SOL     OW24216   1.891   6.112   7.480
 7440SOL    HW124217   1.940   6.035   7.451
 7440SOL    HW224218   1.844   6.141   7.402
 7441SOL     OW24219   1.432  14.367   4.690
 7441SOL    HW124220   1.409  14.458   4.671
 7441SOL    HW224221   1.356  14.333   4.738
 7442SOL     OW24222   9.304  13.220   6.652
 7442SOL    HW124223   9.284  13.310   6.679
 7442SOL    HW224224   9.300  13.222   6.557
 7443SOL     OW24225   4.233   0.145  12.519
 7443SOL    HW124226   4.169   0.173  12.454
 7443SOL    HW224227   4.206   0.057  12.544
 7444SOL     OW24228   8.546   6.873   6.102
 7444SOL    HW124229   8.623   6.907   6.147
 7444SOL    HW224230   8.502   6.951   6.068
 7445SOL     OW24231   3.489   8.199   6.594
 7445SOL    HW124232   3.522   8.199   6.504
 7445SOL    HW224233   3.518   8.115   6.630
 7446SOL     OW24234   6.028  11.769  12.896
 7446SOL    HW124235   5.998  11.730  12.813
 7446SOL    HW224236   6.120  11.746  12.901
 7447SOL     OW24237   8.478   3.565  10.204
 7447SOL    HW124238   8.544   3.631  10.182
 7447SOL    HW224239   8.452   3.587  10.294
 7448SOL     OW24240  11.259   3.355   6.070
 7448SOL    HW124241  11.191   3.422   6.058
 7448SOL    HW224242  11.217   3.287   6.122
 7449SOL     OW24243   3.205  13.091  14.573
 7449SOL    HW124244   3.214  12.996  14.583
 7449SOL    HW224245   3.126  13.113  14.622
 7450SOL     OW24246  13.159   8.509  13.683
 7450SOL    HW124247  13.070   8.526  13.715
 7450SOL    HW224248  13.152   8.425  13.638
 7451SOL     OW24249   6.043   2.853   6.458
 7451SOL    HW124250   6.114   2.823   6.400
 7451SOL    HW224251   6.073   2.830   6.546
 7452SOL     OW24252  12.379   6.151  13.581
 7452SOL    HW124253  12.413   6.231  13.621
 7452SOL    HW224254  12.439   6.083  13.610
 7453SOL     OW24255   4.592  14.152  11.586
 7453SOL    HW124256   4.576  14.180  11.676
 7453SOL    HW224257   4.553  14.221  11.532
 7454SOL     OW24258   8.478   9.828   6.375
 7454SOL    HW124259   8.504   9.768   6.305
 7454SOL    HW224260   8.560   9.854   6.416
 7455SOL     OW24261   5.360   7.799   5.034
 7455SOL    HW124262   5.302   7.853   5.087
 7455SOL    HW224263   5.368   7.847   4.951
 7456SOL     OW24264   6.126   6.793   4.061
 7456SOL    HW124265   6.085   6.707   4.064
 7456SOL    HW224266   6.052   6.854   4.055
 7457SOL     OW24267   6.961   0.569   6.419
 7457SOL    HW124268   6.919   0.508   6.357
 7457SOL    HW224269   6.968   0.651   6.371
 7458SOL     OW24270   7.879   2.747   9.295
 7458SOL    HW124271   7.940   2.709   9.231
 7458SOL    HW224272   7.900   2.702   9.377
 7459SOL     OW24273   5.725   1.630   6.063
 7459SOL    HW124274   5.753   1.549   6.019
 7459SOL    HW224275   5.763   1.624   6.150
 7460SOL     OW24276  11.179   6.831  12.300
 7460SOL    HW124277  11.178   6.819  12.205
 7460SOL    HW224278  11.260   6.879  12.317
 7461SOL     OW24279   5.743   6.247   3.526
 7461SOL    HW124280   5.663   6.263   3.575
 7461SOL    HW224281   5.714   6.229   3.436
 7462SOL     OW24282   2.470   5.789   5.838
 7462SOL    HW124283   2.387   5.814   5.798
 7462SOL    HW224284   2.474   5.841   5.919
 7463SOL     OW24285  12.693  12.351  13.946
 7463SOL    HW124286  12.756  12.334  13.876
 7463SOL    HW224287  12.639  12.272  13.948
 7464SOL     OW24288   2.686  12.441   1.363
 7464SOL    HW124289   2.780  12.450   1.351
 7464SOL    HW224290   2.673  12.446   1.458
 7465SOL     OW24291   8.444   4.558   7.049
 7465SOL    HW124292   8.514   4.614   7.083
 7465SOL    HW224293   8.443   4.577   6.955
 7466SOL     OW24294   8.433  14.441   8.011
 7466SOL    HW124295   8.485  14.459   7.933
 7466SOL    HW224296   8.468  14.502   8.077
 7467SOL     OW24297   1.303  10.822   9.892
 7467SOL    HW124298   1.237  10.883   9.860
 7467SOL    HW224299   1.256  10.740   9.906
 7468SOL     OW24300   0.185   5.987  14.590
 7468SOL    HW124301   0.270   5.983  14.633
 7468SOL    HW224302   0.155   5.896  14.588
 7469SOL     OW24303   9.703   5.495  12.622
 7469SOL    HW124304   9.609   5.479  12.617
 7469SOL    HW224305   9.711   5.576  12.672
 7470SOL     OW24306   7.362   0.652  10.815
 7470SOL    HW124307   7.306   0.694  10.879
 7470SOL    HW224308   7.332   0.685  10.730
 7471SOL     OW24309   9.453  14.149   8.231
 7471SOL    HW124310   9.374  14.120   8.277
 7471SOL    HW224311   9.494  14.069   8.200
 7472SOL     OW24312   6.142   7.604   3.531
 7472SOL    HW124313   6.061   7.622   3.485
 7472SOL    HW224314   6.151   7.676   3.593
 7473SOL     OW24315   8.887   8.546  14.143
 7473SOL    HW124316   8.952   8.476  14.141
 7473SOL    HW224317   8.938   8.627  14.137
 7474SOL     OW24318   2.783   2.425  13.907
 7474SOL    HW124319   2.727   2.370  13.961
 7474SOL    HW224320   2.824   2.486  13.969
 7475SOL     OW24321   9.868   8.904   6.540
 7475SOL    HW124322   9.774   8.898   6.558
 7475SOL    HW224323   9.874   8.911   6.445
 7476SOL     OW24324  13.664   1.192   6.233
 7476SOL    HW124325  13.724   1.125   6.200
 7476SOL    HW224326  13.577   1.154   6.221
 7477SOL     OW24327   2.685   3.523  10.731
 7477SOL    HW124328   2.736   3.581  10.789
 7477SOL    HW224329   2.606   3.573  10.712
 7478SOL     OW24330   4.935   5.097   3.677
 7478SOL    HW124331   4.985   5.138   3.606
 7478SOL    HW224332   4.856   5.151   3.685
 7479SOL     OW24333   1.391   1.051  12.089
 7479SOL    HW124334   1.381   0.961  12.057
 7479SOL    HW224335   1.468   1.084  12.043
 7480SOL     OW24336  10.599   5.957   6.977
 7480SOL    HW124337  10.608   5.879   7.032
 7480SOL    HW224338  10.513   5.993   6.999
 7481SOL     OW24339  13.702   8.061   4.938
 7481SOL    HW124340  13.748   7.995   4.990
 7481SOL    HW224341  13.642   8.011   4.883
 7482SOL     OW24342   0.045  11.677   3.699
 7482SOL    HW124343  14.826  11.683   3.660
 7482SOL    HW224344   0.070  11.585   3.688
 7483SOL     OW24345  11.212  11.125   6.960
 7483SOL    HW124346  11.243  11.205   6.916
 7483SOL    HW224347  11.117  11.134   6.961
 7484SOL     OW24348   9.205   4.507   5.715
 7484SOL    HW124349   9.187   4.581   5.774
 7484SOL    HW224350   9.226   4.548   5.631
 7485SOL     OW24351   0.149   0.121  14.245
 7485SOL    HW124352   0.069   0.113  14.193
 7485SOL    HW224353   0.129   0.190  14.309
 7486SOL     OW24354  14.352   9.434   4.185
 7486SOL    HW124355  14.377   9.441   4.277
 7486SOL    HW224356  14.396   9.508   4.143
 7487SOL     OW24357   1.066   4.526   4.786
 7487SOL    HW124358   1.122   4.449   4.782
 7487SOL    HW224359   1.020   4.527   4.702
 7488SOL     OW24360  11.484  14.749   3.105
 7488SOL    HW124361  11.432  14.827   3.085
 7488SOL    HW224362  11.573  14.771   3.078
 7489SOL     OW24363   4.464  13.227   5.321
 7489SOL    HW124364   4.544  13.200   5.276
 7489SOL    HW224365   4.409  13.262   5.252
 7490SOL     OW24366   5.540   2.753   8.068
 7490SOL    HW124367   5.489   2.822   8.024
 7490SOL    HW224368   5.522   2.675   8.016
 7491SOL     OW24369   4.896   0.643   3.092
 7491SOL    HW124370   4.968   0.689   3.135
 7491SOL    HW224371   4.825   0.644   3.156
 7492SOL     OW24372  11.864  13.907   6.254
 7492SOL    HW124373  11.810  13.930   6.179
 7492SOL    HW224374  11.846  13.814   6.269
 7493SOL     OW24375   4.345  12.397   6.415
 7493SOL    HW124376   4.311  12.405   6.326
 7493SOL    HW224377   4.277  12.350   6.463
 7494SOL     OW24378   6.513  14.717   5.896
 7494SOL    HW124379   6.425  14.678   5.895
 7494SOL    HW224380   6.519  14.766   5.814
 7495SOL     OW24381   8.967   8.837  14.090
 7495SOL    HW124382   8.994   8.860  14.179
 7495SOL    HW224383   9.045   8.851  14.037
 7496SOL     OW24384   7.184   2.216   3.036
 7496SOL    HW124385   7.093   2.214   3.008
 7496SOL    HW224386   7.186   2.163   3.116
 7497SOL     OW24387   3.142   0.192   5.239
 7497SOL    HW124388   3.171   0.222   5.325
 7497SOL    HW224389   3.122   0.272   5.191
 7498SOL     OW24390   3.115  12.149   5.724
 7498SOL    HW124391   3.096  12.237   5.692
 7498SOL    HW224392   3.079  12.090   5.657
 7499SOL     OW24393  13.044   0.367   7.597
 7499SOL    HW124394  13.123   0.340   7.550
 7499SOL    HW224395  13.072   0.376   7.688
 7500SOL     OW24396   2.261   3.819  10.108
 7500SOL    HW124397   2.246   3.757  10.036
 7500SOL    HW224398   2.354   3.842  10.100
 7501SOL     OW24399   4.987  10.498   9.505
 7501SOL    HW124400   4.926  10.444   9.455
 7501SOL    HW224401   5.073  10.469   9.476
 7502SOL     OW24402   2.511  13.256   5.721
 7502SOL    HW124403   2.494  13.235   5.629
 7502SOL    HW224404   2.468  13.185   5.770
 7503SOL     OW24405  12.961   4.309  10.893
 7503SOL    HW124406  13.007   4.386  10.924
 7503SOL    HW224407  13.030   4.245  10.874
 7504SOL     OW24408   7.217   3.711   0.851
 7504SOL    HW124409   7.267   3.648   0.902
 7504SOL    HW224410   7.282   3.776   0.823
 7505SOL     OW24411   0.878   0.145   2.611
 7505SOL    HW124412   0.972   0.150   2.630
 7505SOL    HW224413   0.869   0.184   2.524
 7506SOL     OW24414  14.532   8.834   2.471
 7506SOL    HW124415  14.509   8.751   2.514
 7506SOL    HW224416  14.452   8.862   2.428
 7507SOL     OW24417   2.143   5.359   2.266
 7507SOL    HW124418   2.193   5.429   2.224
 7507SOL    HW224419   2.205   5.286   2.271
 7508SOL     OW24420   8.212   2.475   6.932
 7508SOL    HW124421   8.138   2.469   6.872
 7508SOL    HW224422   8.283   2.429   6.888
 7509SOL     OW24423   8.251  11.081  14.711
 7509SOL    HW124424   8.232  11.158  14.658
 7509SOL    HW224425   8.219  11.007  14.659
 7510SOL     OW24426  12.740   0.882  11.493
 7510SOL    HW124427  12.675   0.842  11.434
 7510SOL    HW224428  12.763   0.965  11.450
 7511SOL     OW24429  14.695  14.203  14.001
 7511SOL    HW124430  14.702  14.229  14.093
 7511SOL    HW224431  14.749  14.125  13.994
 7512SOL     OW24432   2.758   2.173  10.670
 7512SOL    HW124433   2.791   2.245  10.724
 7512SOL    HW224434   2.831   2.152  10.611
 7513SOL     OW24435  13.450   1.559   7.109
 7513SOL    HW124436  13.541   1.545   7.132
 7513SOL    HW224437  13.438   1.654   7.112
 7514SOL     OW24438  10.087   7.426  11.139
 7514SOL    HW124439  10.035   7.383  11.207
 7514SOL    HW224440  10.172   7.383  11.144
 7515SOL     OW24441   1.966   9.459   3.934
 7515SOL    HW124442   2.032   9.493   3.873
 7515SOL    HW224443   1.952   9.369   3.905
 7516SOL     OW24444   6.026   0.417   4.436
 7516SOL    HW124445   6.014   0.510   4.416
 7516SOL    HW224446   6.120   0.405   4.439
 7517SOL     OW24447   6.796  14.792   7.698
 7517SOL    HW124448   6.854  14.749   7.761
 7517SOL    HW224449   6.826  14.761   7.613
 7518SOL     OW24450   8.438   1.391   1.156
 7518SOL    HW124451   8.369   1.458   1.155
 7518SOL    HW224452   8.449   1.367   1.064
 7519SOL     OW24453  13.426  11.400   8.183
 7519SOL    HW124454  13.331  11.397   8.188
 7519SOL    HW224455  13.450  11.484   8.223
 7520SOL     OW24456   2.585   2.170   9.824
 7520SOL    HW124457   2.549   2.258   9.812
 7520SOL    HW224458   2.509   2.114   9.836
 7521SOL     OW24459  11.227  14.744   2.267
 7521SOL    HW124460  11.242  14.665   2.318
 7521SOL    HW224461  11.277  14.812   2.313
 7522SOL     OW24462  13.571   7.015   8.993
 7522SOL    HW124463  13.659   7.011   9.033
 7522SOL    HW224464  13.574   6.951   8.922
 7523SOL     OW24465   7.574   1.107  12.157
 7523SOL    HW124466   7.563   1.181  12.216
 7523SOL    HW224467   7.658   1.069  12.181
 7524SOL     OW24468   1.980  10.202   4.841
 7524SOL    HW124469   2.018  10.281   4.803
 7524SOL    HW224470   1.964  10.225   4.933
 7525SOL     OW24471  14.051  14.119   7.440
 7525SOL    HW124472  14.076  14.157   7.524
 7525SOL    HW224473  14.028  14.028   7.460
 7526SOL     OW24474   0.191   9.379   6.559
 7526SOL    HW124475   0.142   9.382   6.477
 7526SOL    HW224476   0.138   9.428   6.621
 7527SOL     OW24477   6.599   9.514   7.468
 7527SOL    HW124478   6.627   9.456   7.538
 7527SOL    HW224479   6.679   9.530   7.417
 7528SOL     OW24480   4.967   7.824   7.335
 7528SOL    HW124481   5.036   7.778   7.383
 7528SOL    HW224482   4.986   7.806   7.243
 7529SOL     OW24483   4.853   3.092  12.442
 7529SOL    HW124484   4.882   3.100  12.533
 7529SOL    HW224485   4.757   3.096  12.447
 7530SOL     OW24486   7.233   3.746  12.131
 7530SOL    HW124487   7.262   3.830  12.095
 7530SOL    HW224488   7.140   3.758  12.150
 7531SOL     OW24489  14.042   7.306   8.772
 7531SOL    HW124490  14.111   7.368   8.794
 7531SOL    HW224491  14.061   7.279   8.682
 7532SOL     OW24492   9.645  11.779   2.534
 7532SOL    HW124493   9.736  11.751   2.539
 7532SOL    HW224494   9.596  11.699   2.514
 7533SOL     OW24495   3.383  12.407   1.988
 7533SOL    HW124496   3.394  12.380   2.079
 7533SOL    HW224497   3.455  12.364   1.942
 7534SOL     OW24498  11.148   0.618   6.958
 7534SOL    HW124499  11.188   0.700   6.931
 7534SOL    HW224500  11.218   0.553   6.951
 7535SOL     OW24501  13.285   7.982   5.315
 7535SOL    HW124502  13.287   7.892   5.347
 7535SOL    HW224503  13.327   7.977   5.229
 7536SOL     OW24504   4.524  10.861  10.479
 7536SOL    HW124505   4.446  10.808  10.495
 7536SOL    HW224506   4.585  10.836  10.549
 7537SOL     OW24507   2.697  12.654   8.840
 7537SOL    HW124508   2.696  12.689   8.750
 7537SOL    HW224509   2.784  12.678   8.873
 7538SOL     OW24510   9.088   3.351  11.368
 7538SOL    HW124511   9.017   3.365  11.306
 7538SOL    HW224512   9.047   3.357  11.454
 7539SOL     OW24513  11.541   1.858   7.233
 7539SOL    HW124514  11.520   1.937   7.284
 7539SOL    HW224515  11.458   1.832   7.193
 7540SOL     OW24516  14.147   4.514   7.090
 7540SOL    HW124517  14.159   4.597   7.043
 7540SOL    HW224518  14.220   4.459   7.060
 7541SOL     OW24519   8.677   6.973   2.820
 7541SOL    HW124520   8.654   6.905   2.884
 7541SOL    HW224521   8.614   6.960   2.749
 7542SOL     OW24522  14.068  12.050  14.621
 7542SOL    HW124523  14.159  12.022  14.607
 7542SOL    HW224524  14.049  12.024  14.712
 7543SOL     OW24525   1.229   7.522  11.648
 7543SOL    HW124526   1.207   7.446  11.701
 7543SOL    HW224527   1.322   7.512  11.628
 7544SOL     OW24528  11.040   9.265  14.027
 7544SOL    HW124529  10.951   9.269  13.992
 7544SOL    HW224530  11.069   9.176  14.006
 7545SOL     OW24531  12.250   8.519  11.652
 7545SOL    HW124532  12.290   8.512  11.739
 7545SOL    HW224533  12.238   8.613  11.638
 7546SOL     OW24534  13.496   2.821   6.638
 7546SOL    HW124535  13.521   2.904   6.597
 7546SOL    HW224536  13.571   2.763   6.623
 7547SOL     OW24537   9.742  13.951   4.565
 7547SOL    HW124538   9.663  13.899   4.579
 7547SOL    HW224539   9.731  13.988   4.477
 7548SOL     OW24540  12.487   2.433   9.456
 7548SOL    HW124541  12.415   2.372   9.474
 7548SOL    HW224542  12.561   2.377   9.434
 7549SOL     OW24543  10.206   7.767   7.874
 7549SOL    HW124544  10.244   7.683   7.848
 7549SOL    HW224545  10.281   7.823   7.893
 7550SOL     OW24546   9.288   9.682  11.706
 7550SOL    HW124547   9.256   9.698  11.617
 7550SOL    HW224548   9.384   9.687  11.698
 7551SOL     OW24549   7.179  11.511   3.221
 7551SOL    HW124550   7.167  11.443   3.287
 7551SOL    HW224551   7.274  11.520   3.213
 7552SOL     OW24552   8.884   2.247   6.921
 7552SOL    HW124553   8.858   2.165   6.962
 7552SOL    HW224554   8.850   2.241   6.832
 7553SOL     OW24555   1.948  14.614   5.215
 7553SOL    HW124556   1.983  14.540   5.264
 7553SOL    HW224557   1.853  14.599   5.214
 7554SOL     OW24558   7.139   7.756   7.550
 7554SOL    HW124559   7.101   7.839   7.578
 7554SOL    HW224560   7.064   7.699   7.535
 7555SOL     OW24561   8.192   1.719   2.102
 7555SOL    HW124562   8.101   1.690   2.099
 7555SOL    HW224563   8.200   1.764   2.187
 7556SOL     OW24564  12.019   7.892   8.386
 7556SOL    HW124565  11.977   7.977   8.398
 7556SOL    HW224566  12.095   7.911   8.330
 7557SOL     OW24567  13.349   0.715   4.972
 7557SOL    HW124568  13.296   0.764   5.035
 7557SOL    HW224569  13.439   0.744   4.988
 7558SOL     OW24570   7.029  14.335   7.738
 7558SOL    HW124571   6.963  14.290   7.791
 7558SOL    HW224572   6.979  14.400   7.689
 7559SOL     OW24573   2.716  14.398  13.022
 7559SOL    HW124574   2.780  14.440  13.080
 7559SOL    HW224575   2.657  14.351  13.080
 7560SOL     OW24576   0.748  14.566   8.564
 7560SOL    HW124577   0.795  14.502   8.509
 7560SOL    HW224578   0.730  14.518   8.645
 7561SOL     OW24579   2.075   8.192   7.006
 7561SOL    HW124580   2.001   8.131   6.999
 7561SOL    HW224581   2.086   8.225   6.916
 7562SOL     OW24582   1.047  12.627   5.857
 7562SOL    HW124583   1.015  12.708   5.816
 7562SOL    HW224584   1.097  12.584   5.788
 7563SOL     OW24585   9.923   5.094   2.404
 7563SOL    HW124586   9.970   5.151   2.343
 7563SOL    HW224587   9.906   5.014   2.354
 7564SOL     OW24588   2.734   7.277  12.535
 7564SOL    HW124589   2.804   7.320  12.487
 7564SOL    HW224590   2.776   7.245  12.616
 7565SOL     OW24591  12.753   6.254  11.999
 7565SOL    HW124592  12.680   6.221  12.052
 7565SOL    HW224593  12.740   6.214  11.913
 7566SOL     OW24594   1.744   7.480  14.691
 7566SOL    HW124595   1.755   7.400  14.639
 7566SOL    HW224596   1.777   7.550  14.634
 7567SOL     OW24597  14.056  13.846   5.077
 7567SOL    HW124598  14.080  13.754   5.072
 7567SOL    HW224599  13.965  13.849   5.047
 7568SOL     OW24600  14.206  11.466  11.238
 7568SOL    HW124601  14.241  11.468  11.327
 7568SOL    HW224602  14.139  11.535  11.237
 7569SOL     OW24603  14.738  12.015   0.359
 7569SOL    HW124604  14.696  11.963   0.291
 7569SOL    HW224605  14.818  11.966   0.379
 7570SOL     OW24606   1.352   9.061   2.443
 7570SOL    HW124607   1.274   9.030   2.489
 7570SOL    HW224608   1.323   9.138   2.395
 7571SOL     OW24609   9.232   2.292   1.690
 7571SOL    HW124610   9.170   2.254   1.752
 7571SOL    HW224611   9.291   2.220   1.669
 7572SOL     OW24612  10.172   1.292   1.260
 7572SOL    HW124613  10.124   1.244   1.327
 7572SOL    HW224614  10.264   1.268   1.275
 7573SOL     OW24615   0.124  10.198   6.612
 7573SOL    HW124616   0.209  10.217   6.572
 7573SOL    HW224617   0.108  10.106   6.592
 7574SOL     OW24618   4.051   3.047   6.034
 7574SOL    HW124619   4.070   3.062   5.942
 7574SOL    HW224620   3.956   3.034   6.037
 7575SOL     OW24621  10.279   6.213   4.373
 7575SOL    HW124622  10.298   6.123   4.398
 7575SOL    HW224623  10.331   6.266   4.433
 7576SOL     OW24624   7.756   2.355  12.138
 7576SOL    HW124625   7.800   2.430  12.098
 7576SOL    HW224626   7.663   2.376  12.131
 7577SOL     OW24627  10.665  13.628   2.148
 7577SOL    HW124628  10.641  13.616   2.239
 7577SOL    HW224629  10.761  13.629   2.148
 7578SOL     OW24630   2.480   9.999   5.831
 7578SOL    HW124631   2.431   9.963   5.757
 7578SOL    HW224632   2.502   9.923   5.884
 7579SOL     OW24633  12.433   3.007   3.072
 7579SOL    HW124634  12.355   2.999   3.127
 7579SOL    HW224635  12.402   2.988   2.984
 7580SOL     OW24636  11.392   9.407   4.085
 7580SOL    HW124637  11.364   9.335   4.028
 7580SOL    HW224638  11.462   9.449   4.036
 7581SOL     OW24639  14.745   2.875  13.960
 7581SOL    HW124640  14.832   2.860  13.996
 7581SOL    HW224641  14.705   2.937  14.021
 7582SOL     OW24642   7.291   0.687   4.787
 7582SOL    HW124643   7.263   0.651   4.703
 7582SOL    HW224644   7.370   0.737   4.766
 7583SOL     OW24645   2.939  11.733   1.725
 7583SOL    HW124646   2.909  11.685   1.648
 7583SOL    HW224647   3.018  11.687   1.753
 7584SOL     OW24648  10.356  10.304   5.436
 7584SOL    HW124649  10.341  10.240   5.506
 7584SOL    HW224650  10.277  10.300   5.383
 7585SOL     OW24651  11.279  12.839   0.632
 7585SOL    HW124652  11.298  12.746   0.646
 7585SOL    HW224653  11.206  12.839   0.570
 7586SOL     OW24654   6.717   7.904   4.843
 7586SOL    HW124655   6.628   7.869   4.855
 7586SOL    HW224656   6.720   7.929   4.751
 7587SOL     OW24657   9.478   6.115  10.108
 7587SOL    HW124658   9.401   6.155  10.069
 7587SOL    HW224659   9.446   6.034  10.147
 7588SOL     OW24660  14.690   0.295   8.420
 7588SOL    HW124661  14.601   0.263   8.414
 7588SOL    HW224662  14.690   0.377   8.371
 7589SOL     OW24663   1.558   2.677  11.756
 7589SOL    HW124664   1.636   2.654  11.706
 7589SOL    HW224665   1.590   2.696  11.844
 7590SOL     OW24666   7.791  12.813   7.172
 7590SOL    HW124667   7.744  12.849   7.097
 7590SOL    HW224668   7.882  12.837   7.157
 7591SOL     OW24669  12.338   4.106  14.722
 7591SOL    HW124670  12.287   4.041  14.770
 7591SOL    HW224671  12.369   4.166  14.789
 7592SOL     OW24672   0.589  13.583  12.360
 7592SOL    HW124673   0.619  13.589  12.270
 7592SOL    HW224674   0.535  13.504  12.363
 7593SOL     OW24675   7.845   4.167   6.715
 7593SOL    HW124676   7.819   4.164   6.623
 7593SOL    HW224677   7.881   4.080   6.732
 7594SOL     OW24678   3.717   6.741  14.251
 7594SOL    HW124679   3.683   6.819  14.207
 7594SOL    HW224680   3.653   6.723  14.319
 7595SOL     OW24681   6.272  13.874   9.465
 7595SOL    HW124682   6.284  13.783   9.494
 7595SOL    HW224683   6.359  13.902   9.437
 7596SOL     OW24684  10.263  12.426   1.345
 7596SOL    HW124685  10.240  12.348   1.294
 7596SOL    HW224686  10.330  12.470   1.293
 7597SOL     OW24687  11.761   8.163   8.500
 7597SOL    HW124688  11.682   8.112   8.483
 7597SOL    HW224689  11.730   8.248   8.530
 7598SOL     OW24690   6.512   8.936   3.137
 7598SOL    HW124691   6.509   8.982   3.221
 7598SOL    HW224692   6.421   8.913   3.119
 7599SOL     OW24693   4.526  11.734   4.558
 7599SOL    HW124694   4.467  11.755   4.485
 7599SOL    HW224695   4.470  11.687   4.620
 7600SOL     OW24696   9.966   7.717  13.492
 7600SOL    HW124697   9.880   7.699  13.455
 7600SOL    HW224698   9.959   7.687  13.583
 7601SOL     OW24699   1.486   3.776  11.614
 7601SOL    HW124700   1.480   3.780  11.519
 7601SOL    HW224701   1.396   3.765  11.644
 7602SOL     OW24702   7.807   2.794   8.928
 7602SOL    HW124703   7.730   2.790   8.985
 7602SOL    HW224704   7.849   2.709   8.939
 7603SOL     OW24705   6.531  12.869   3.842
 7603SOL    HW124706   6.526  12.935   3.773
 7603SOL    HW224707   6.538  12.786   3.795
 7604SOL     OW24708  14.102  12.966   3.965
 7604SOL    HW124709  14.024  12.981   3.911
 7604SOL    HW224710  14.148  13.050   3.964
 7605SOL     OW24711  10.843  14.348   2.159
 7605SOL    HW124712  10.838  14.406   2.082
 7605SOL    HW224713  10.774  14.284   2.145
 7606SOL     OW24714   3.887   6.125  14.482
 7606SOL    HW124715   3.795   6.104  14.469
 7606SOL    HW224716   3.892   6.220  14.471
 7607SOL     OW24717   9.220   1.285   1.880
 7607SOL    HW124718   9.264   1.344   1.941
 7607SOL    HW224719   9.289   1.254   1.822
 7608SOL     OW24720   8.228   5.532   8.206
 7608SOL    HW124721   8.280   5.573   8.275
 7608SOL    HW224722   8.275   5.451   8.185
 7609SOL     OW24723   4.342   8.457  14.186
 7609SOL    HW124724   4.436   8.448  14.201
 7609SOL    HW224725   4.312   8.368  14.167
 7610SOL     OW24726   6.931   7.599   3.504
 7610SOL    HW124727   6.852   7.653   3.512
 7610SOL    HW224728   6.968   7.624   3.419
 7611SOL     OW24729   9.308   5.431  11.987
 7611SOL    HW124730   9.364   5.497  11.946
 7611SOL    HW224731   9.238   5.417  11.923
 7612SOL     OW24732   2.030  10.215   9.006
 7612SOL    HW124733   2.033  10.157   9.082
 7612SOL    HW224734   1.937  10.227   8.988
 7613SOL     OW24735   3.377   9.983   0.842
 7613SOL    HW124736   3.422  10.054   0.795
 7613SOL    HW224737   3.288  10.016   0.853
 7614SOL     OW24738  12.735   1.465   6.622
 7614SOL    HW124739  12.772   1.506   6.544
 7614SOL    HW224740  12.718   1.374   6.596
 7615SOL     OW24741   0.029   5.498  11.360
 7615SOL    HW124742  14.820   5.442  11.371
 7615SOL    HW224743   0.064   5.474  11.274
 7616SOL     OW24744   1.237   7.912   1.754
 7616SOL    HW124745   1.234   7.820   1.779
 7616SOL    HW224746   1.250   7.910   1.659
 7617SOL     OW24747  12.432   5.939   1.621
 7617SOL    HW124748  12.362   5.875   1.631
 7617SOL    HW224749  12.478   5.936   1.705
 7618SOL     OW24750  12.055   2.033   3.980
 7618SOL    HW124751  11.997   2.106   4.003
 7618SOL    HW224752  12.136   2.051   4.027
 7619SOL     OW24753   2.453   5.657   8.379
 7619SOL    HW124754   2.524   5.694   8.326
 7619SOL    HW224755   2.413   5.733   8.422
 7620SOL     OW24756   3.748  13.759  14.423
 7620SOL    HW124757   3.688  13.758  14.498
 7620SOL    HW224758   3.787  13.846  14.425
 7621SOL     OW24759   1.414   5.972   4.232
 7621SOL    HW124760   1.338   6.016   4.270
 7621SOL    HW224761   1.463   5.939   4.308
 7622SOL     OW24762  13.250   5.529   1.085
 7622SOL    HW124763  13.334   5.487   1.100
 7622SOL    HW224764  13.270   5.623   1.085
 7623SOL     OW24765   0.761   8.518   4.608
 7623SOL    HW124766   0.783   8.474   4.526
 7623SOL    HW224767   0.696   8.462   4.649
 7624SOL     OW24768   1.885   8.981   0.796
 7624SOL    HW124769   1.932   9.051   0.840
 7624SOL    HW224770   1.948   8.946   0.733
 7625SOL     OW24771   7.625  10.379   8.190
 7625SOL    HW124772   7.609  10.347   8.279
 7625SOL    HW224773   7.572  10.322   8.134
 7626SOL     OW24774  14.747   6.916  14.691
 7626SOL    HW124775  14.725   6.972  14.617
 7626SOL    HW224776  14.747   6.828  14.656
 7627SOL     OW24777   4.154   1.797   3.450
 7627SOL    HW124778   4.146   1.752   3.534
 7627SOL    HW224779   4.066   1.833   3.435
 7628SOL     OW24780   2.562   4.774   1.737
 7628SOL    HW124781   2.644   4.817   1.715
 7628SOL    HW224782   2.515   4.766   1.654
 7629SOL     OW24783  10.808   6.538  10.306
 7629SOL    HW124784  10.835   6.456  10.348
 7629SOL    HW224785  10.890   6.583  10.286
 7630SOL     OW24786   7.459   7.092   5.264
 7630SOL    HW124787   7.493   7.003   5.273
 7630SOL    HW224788   7.390   7.084   5.198
 7631SOL     OW24789   2.715  12.110   2.643
 7631SOL    HW124790   2.669  12.160   2.575
 7631SOL    HW224791   2.748  12.177   2.703
 7632SOL     OW24792  11.032   0.421  11.977
 7632SOL    HW124793  10.999   0.331  11.977
 7632SOL    HW224794  11.115   0.417  12.024
 7633SOL     OW24795   8.531   4.733  12.602
 7633SOL    HW124796   8.573   4.768  12.681
 7633SOL    HW224797   8.572   4.647  12.590
 7634SOL     OW24798  11.421  10.012  14.426
 7634SOL    HW124799  11.396  10.048  14.341
 7634SOL    HW224800  11.516  10.016  14.428
 7635SOL     OW24801   7.224   6.475   1.989
 7635SOL    HW124802   7.208   6.559   2.033
 7635SOL    HW224803   7.137   6.436   1.983
 7636SOL     OW24804  12.688   4.711  13.714
 7636SOL    HW124805  12.731   4.756  13.642
 7636SOL    HW224806  12.656   4.781  13.771
 7637SOL     OW24807   4.104   1.886   8.408
 7637SOL    HW124808   4.125   1.977   8.430
 7637SOL    HW224809   4.016   1.891   8.371
 7638SOL     OW24810   4.748   8.229   2.920
 7638SOL    HW124811   4.727   8.170   2.992
 7638SOL    HW224812   4.840   8.251   2.933
 7639SOL     OW24813   2.082   2.687   4.181
 7639SOL    HW124814   2.042   2.774   4.184
 7639SOL    HW224815   2.050   2.649   4.099
 7640SOL     OW24816   7.300   7.771  14.645
 7640SOL    HW124817   7.329   7.756  14.555
 7640SOL    HW224818   7.292   7.866  14.652
 7641SOL     OW24819  10.106  12.299   2.932
 7641SOL    HW124820  10.164  12.342   2.995
 7641SOL    HW224821  10.165  12.244   2.879
 7642SOL     OW24822   4.314   2.662  13.833
 7642SOL    HW124823   4.252   2.735  13.833
 7642SOL    HW224824   4.302   2.620  13.748
 7643SOL     OW24825   4.538   0.691  10.896
 7643SOL    HW124826   4.600   0.699  10.969
 7643SOL    HW224827   4.455   0.726  10.931
 7644SOL     OW24828  10.266   4.716  13.719
 7644SOL    HW124829  10.226   4.754  13.797
 7644SOL    HW224830  10.306   4.634  13.750
 7645SOL     OW24831   0.804   6.529  11.448
 7645SOL    HW124832   0.828   6.563  11.535
 7645SOL    HW224833   0.818   6.435  11.454
 7646SOL     OW24834   4.753   5.184   0.449
 7646SOL    HW124835   4.663   5.152   0.450
 7646SOL    HW224836   4.763   5.229   0.533
 7647SOL     OW24837   9.902   7.280  14.077
 7647SOL    HW124838   9.978   7.337  14.072
 7647SOL    HW224839   9.922   7.219  14.148
 7648SOL     OW24840   8.893   6.409   8.265
 7648SOL    HW124841   8.984   6.383   8.250
 7648SOL    HW224842   8.842   6.333   8.235
 7649SOL     OW24843   7.238   5.551   4.268
 7649SOL    HW124844   7.155   5.525   4.307
 7649SOL    HW224845   7.214   5.610   4.196
 7650SOL     OW24846   7.944   2.561   2.890
 7650SOL    HW124847   7.951   2.588   2.798
 7650SOL    HW224848   7.956   2.467   2.889
 7651SOL     OW24849  11.064   4.800   5.789
 7651SOL    HW124850  11.153   4.764   5.797
 7651SOL    HW224851  11.008   4.724   5.774
 7652SOL     OW24852   3.946   3.541   8.354
 7652SOL    HW124853   4.029   3.493   8.353
 7652SOL    HW224854   3.904   3.518   8.271
 7653SOL     OW24855   8.754   5.079   7.802
 7653SOL    HW124856   8.717   5.146   7.745
 7653SOL    HW224857   8.849   5.090   7.794
 7654SOL     OW24858  10.829  11.856   9.698
 7654SOL    HW124859  10.753  11.836   9.753
 7654SOL    HW224860  10.800  11.925   9.639
 7655SOL     OW24861  11.488  12.703   0.011
 7655SOL    HW124862  11.438  12.783   0.028
 7655SOL    HW224863  11.514  12.710  14.788
 7656SOL     OW24864  13.062  14.544   2.802
 7656SOL    HW124865  13.004  14.541   2.878
 7656SOL    HW224866  13.017  14.491   2.736
 7657SOL     OW24867  12.528   6.454   6.576
 7657SOL    HW124868  12.586   6.527   6.600
 7657SOL    HW224869  12.537   6.448   6.480
 7658SOL     OW24870   0.643   8.528  14.661
 7658SOL    HW124871   0.666   8.500  14.573
 7658SOL    HW224872   0.688   8.611  14.673
 7659SOL     OW24873   9.665  12.563   4.873
 7659SOL    HW124874   9.744  12.602   4.835
 7659SOL    HW224875   9.601  12.633   4.874
 7660SOL     OW24876   9.064   4.346  13.264
 7660SOL    HW124877   9.040   4.436  13.283
 7660SOL    HW224878   9.122   4.352  13.188
 7661SOL     OW24879   0.146   4.006   2.925
 7661SOL    HW124880   0.135   4.011   3.020
 7661SOL    HW224881   0.229   3.960   2.913
 7662SOL     OW24882   6.829   0.122  10.686
 7662SOL    HW124883   6.734   0.128  10.685
 7662SOL    HW224884   6.849   0.059  10.755
 7663SOL     OW24885   8.480   2.487   4.920
 7663SOL    HW124886   8.499   2.578   4.942
 7663SOL    HW224887   8.566   2.445   4.917
 7664SOL     OW24888   1.204   1.736   2.739
 7664SOL    HW124889   1.208   1.642   2.720
 7664SOL    HW224890   1.119   1.748   2.783
 7665SOL     OW24891   3.097   1.226   9.566
 7665SOL    HW124892   3.101   1.138   9.604
 7665SOL    HW224893   3.015   1.262   9.599
 7666SOL     OW24894  13.827   3.342   6.149
 7666SOL    HW124895  13.820   3.437   6.163
 7666SOL    HW224896  13.744   3.319   6.107
 7667SOL     OW24897   1.110  14.730   8.200
 7667SOL    HW124898   1.069  14.645   8.218
 7667SOL    HW224899   1.047  14.794   8.233
 7668SOL     OW24900   1.308  10.630   4.493
 7668SOL    HW124901   1.277  10.704   4.547
 7668SOL    HW224902   1.381  10.666   4.444
 7669SOL     OW24903  13.792   4.818   3.781
 7669SOL    HW124904  13.763   4.752   3.845
 7669SOL    HW224905  13.864   4.863   3.825
 7670SOL     OW24906   5.348   2.986   7.020
 7670SOL    HW124907   5.320   2.991   6.928
 7670SOL    HW224908   5.365   2.893   7.035
 7671SOL     OW24909  10.888   8.827   1.043
 7671SOL    HW124910  10.929   8.742   1.025
 7671SOL    HW224911  10.861   8.858   0.956
 7672SOL     OW24912  10.401   8.046   8.640
 7672SOL    HW124913  10.391   7.951   8.632
 7672SOL    HW224914  10.339   8.070   8.709
 7673SOL     OW24915  13.991   8.920   9.280
 7673SOL    HW124916  13.964   8.885   9.195
 7673SOL    HW224917  13.909   8.935   9.327
 7674SOL     OW24918   9.207   9.225   0.498
 7674SOL    HW124919   9.143   9.283   0.458
 7674SOL    HW224920   9.233   9.270   0.578
 7675SOL     OW24921  11.446   6.890   8.076
 7675SOL    HW124922  11.526   6.875   8.027
 7675SOL    HW224923  11.474   6.893   8.168
 7676SOL     OW24924   4.647   9.305   2.378
 7676SOL    HW124925   4.647   9.301   2.474
 7676SOL    HW224926   4.734   9.274   2.353
 7677SOL     OW24927  10.307   9.958   8.251
 7677SOL    HW124928  10.296   9.870   8.287
 7677SOL    HW224929  10.265   9.954   8.165
 7678SOL     OW24930   8.615  12.059   0.196
 7678SOL    HW124931   8.686  12.124   0.199
 7678SOL    HW224932   8.655  11.983   0.155
 7679SOL     OW24933  10.740   5.002  13.839
 7679SOL    HW124934  10.686   5.032  13.913
 7679SOL    HW224935  10.811   5.065  13.834
 7680SOL     OW24936  13.579   9.257   6.184
 7680SOL    HW124937  13.589   9.330   6.123
 7680SOL    HW224938  13.485   9.248   6.196
 7681SOL     OW24939   3.191  14.686   5.778
 7681SOL    HW124940   3.115  14.743   5.783
 7681SOL    HW224941   3.243  14.708   5.855
 7682SOL     OW24942   6.532   9.153  10.654
 7682SOL    HW124943   6.585   9.228  10.681
 7682SOL    HW224944   6.485   9.183  10.576
 7683SOL     OW24945   1.030   2.037   7.864
 7683SOL    HW124946   1.036   1.963   7.924
 7683SOL    HW224947   1.103   2.094   7.888
 7684SOL     OW24948   8.701   6.723  10.858
 7684SOL    HW124949   8.727   6.804  10.903
 7684SOL    HW224950   8.672   6.665  10.929
 7685SOL     OW24951   2.799   0.901   9.691
 7685SOL    HW124952   2.761   0.968   9.635
 7685SOL    HW224953   2.738   0.894   9.765
 7686SOL     OW24954   9.860  14.573   2.601
 7686SOL    HW124955   9.795  14.572   2.671
 7686SOL    HW224956   9.833  14.645   2.544
 7687SOL     OW24957   6.117   6.037  13.042
 7687SOL    HW124958   6.202   5.994  13.047
 7687SOL    HW224959   6.106   6.079  13.127
 7688SOL     OW24960   3.090   7.693  13.714
 7688SOL    HW124961   3.037   7.677  13.791
 7688SOL    HW224962   3.159   7.753  13.744
 7689SOL     OW24963   4.633   7.577   5.307
 7689SOL    HW124964   4.641   7.497   5.360
 7689SOL    HW224965   4.695   7.638   5.346
 7690SOL     OW24966  10.946  11.109   8.447
 7690SOL    HW124967  11.004  11.169   8.494
 7690SOL    HW224968  10.882  11.080   8.512
 7691SOL     OW24969  10.705   8.090   7.174
 7691SOL    HW124970  10.703   8.151   7.100
 7691SOL    HW224971  10.663   8.137   7.245
 7692SOL     OW24972   8.496   5.720  11.555
 7692SOL    HW124973   8.470   5.810  11.537
 7692SOL    HW224974   8.416   5.669  11.540
 7693SOL     OW24975  12.851  13.494  12.542
 7693SOL    HW124976  12.805  13.548  12.478
 7693SOL    HW224977  12.805  13.410  12.539
 7694SOL     OW24978   6.464   2.319   2.057
 7694SOL    HW124979   6.398   2.301   1.990
 7694SOL    HW224980   6.423   2.384   2.114
 7695SOL     OW24981  11.067  13.188   8.442
 7695SOL    HW124982  11.124  13.165   8.515
 7695SOL    HW224983  11.125  13.193   8.366
 7696SOL     OW24984   9.290   5.992   6.422
 7696SOL    HW124985   9.309   5.981   6.515
 7696SOL    HW224986   9.230   6.067   6.419
 7697SOL     OW24987  12.928   8.791   9.623
 7697SOL    HW124988  12.889   8.714   9.582
 7697SOL    HW224989  13.022   8.783   9.606
 7698SOL     OW24990   5.880  14.235   3.170
 7698SOL    HW124991   5.797  14.231   3.218
 7698SOL    HW224992   5.856  14.261   3.082
 7699SOL     OW24993   4.418   7.926   0.378
 7699SOL    HW124994   4.337   7.876   0.388
 7699SOL    HW224995   4.488   7.863   0.396
 7700SOL     OW24996   0.350   5.035   2.530
 7700SOL    HW124997   0.328   4.973   2.461
 7700SOL    HW224998   0.374   5.115   2.483
 7701SOL     OW24999   5.011   7.222   5.721
 7701SOL    HW125000   5.095   7.251   5.684
 7701SOL    HW225001   5.005   7.266   5.805
 7702SOL     OW25002  12.279  11.726   1.745
 7702SOL    HW125003  12.207  11.664   1.736
 7702SOL    HW225004  12.355  11.672   1.768
 7703SOL     OW25005   0.065  11.092   0.430
 7703SOL    HW125006   0.011  11.027   0.476
 7703SOL    HW225007   0.144  11.044   0.405
 7704SOL     OW25008   7.150   0.666   2.708
 7704SOL    HW125009   7.149   0.752   2.666
 7704SOL    HW225010   7.078   0.618   2.667
 7705SOL     OW25011   4.082   2.993   7.480
 7705SOL    HW125012   4.177   3.000   7.471
 7705SOL    HW225013   4.050   3.083   7.468
 7706SOL     OW25014   0.771  14.577   9.932
 7706SOL    HW125015   0.819  14.523   9.995
 7706SOL    HW225016   0.836  14.603   9.868
 7707SOL     OW25017   2.227   8.860  13.413
 7707SOL    HW125018   2.215   8.785  13.471
 7707SOL    HW225019   2.141   8.902  13.409
 7708SOL     OW25020   3.777  11.609   0.820
 7708SOL    HW125021   3.793  11.548   0.748
 7708SOL    HW225022   3.682  11.614   0.827
 7709SOL     OW25023  14.029   7.774   7.132
 7709SOL    HW125024  13.986   7.740   7.211
 7709SOL    HW225025  14.058   7.862   7.157
 7710SOL     OW25026  13.574   2.576   8.243
 7710SOL    HW125027  13.481   2.558   8.228
 7710SOL    HW225028  13.614   2.566   8.157
 7711SOL     OW25029   3.669   8.258   7.823
 7711SOL    HW125030   3.578   8.287   7.824
 7711SOL    HW225031   3.693   8.251   7.915
 7712SOL     OW25032   5.355   8.023  12.230
 7712SOL    HW125033   5.292   8.092  12.209
 7712SOL    HW225034   5.387   7.992  12.145
 7713SOL     OW25035   2.731   8.544   6.033
 7713SOL    HW125036   2.791   8.519   6.103
 7713SOL    HW225037   2.674   8.468   6.021
 7714SOL     OW25038  14.002   3.440   4.325
 7714SOL    HW125039  14.005   3.445   4.230
 7714SOL    HW225040  14.075   3.383   4.349
 7715SOL     OW25041   9.261   8.763  10.547
 7715SOL    HW125042   9.318   8.688  10.562
 7715SOL    HW225043   9.181   8.726  10.508
 7716SOL     OW25044   3.532   2.557   6.728
 7716SOL    HW125045   3.476   2.631   6.754
 7716SOL    HW225046   3.604   2.560   6.790
 7717SOL     OW25047   0.127   7.806   5.676
 7717SOL    HW125048   0.187   7.858   5.623
 7717SOL    HW225049   0.070   7.870   5.719
 7718SOL     OW25050   1.064   7.429   0.663
 7718SOL    HW125051   1.144   7.431   0.612
 7718SOL    HW225052   1.030   7.340   0.650
 7719SOL     OW25053   3.850  12.205   2.626
 7719SOL    HW125054   3.916  12.215   2.694
 7719SOL    HW225055   3.824  12.113   2.631
 7720SOL     OW25056   5.386  12.749   0.586
 7720SOL    HW125057   5.475  12.783   0.601
 7720SOL    HW225058   5.356  12.793   0.507
 7721SOL     OW25059   8.077   7.109   4.109
 7721SOL    HW125060   8.145   7.128   4.044
 7721SOL    HW225061   8.115   7.041   4.165
 7722SOL     OW25062   8.274   2.434   4.754
 7722SOL    HW125063   8.349   2.470   4.802
 7722SOL    HW225064   8.204   2.499   4.767
 7723SOL     OW25065  11.462  13.860   7.589
 7723SOL    HW125066  11.518  13.932   7.560
 7723SOL    HW225067  11.523  13.798   7.629
 7724SOL     OW25068   4.686  11.280  10.835
 7724SOL    HW125069   4.640  11.325  10.906
 7724SOL    HW225070   4.616  11.252  10.776
 7725SOL     OW25071   8.376  12.199   8.828
 7725SOL    HW125072   8.426  12.229   8.904
 7725SOL    HW225073   8.285  12.206   8.855
 7726SOL     OW25074   5.767  14.774  13.501
 7726SOL    HW125075   5.689  14.765  13.555
 7726SOL    HW225076   5.732  14.796  13.414
 7727SOL     OW25077   2.495   2.961   9.042
 7727SOL    HW125078   2.453   2.876   9.057
 7727SOL    HW225079   2.532   2.953   8.953
 7728SOL     OW25080   5.262   2.415   1.862
 7728SOL    HW125081   5.205   2.441   1.790
 7728SOL    HW225082   5.328   2.359   1.822
 7729SOL     OW25083   0.354   1.139   6.536
 7729SOL    HW125084   0.404   1.179   6.465
 7729SOL    HW225085   0.263   1.161   6.517
 7730SOL     OW25086  11.438   6.831   5.061
 7730SOL    HW125087  11.455   6.877   5.144
 7730SOL    HW225088  11.463   6.894   4.993
 7731SOL     OW25089   6.637   3.488  10.465
 7731SOL    HW125090   6.630   3.544  10.543
 7731SOL    HW225091   6.688   3.541  10.403
 7732SOL     OW25092   7.521   1.943  14.319
 7732SOL    HW125093   7.531   2.029  14.278
 7732SOL    HW225094   7.573   1.949  14.399
 7733SOL     OW25095   0.181   8.522  13.300
 7733SOL    HW125096   0.241   8.569  13.357
 7733SOL    HW225097   0.187   8.431  13.329
 7734SOL     OW25098  10.652  10.924   0.754
 7734SOL    HW125099  10.606  10.904   0.673
 7734SOL    HW225100  10.745  10.925   0.730
 7735SOL     OW25101   6.388   0.591   5.390
 7735SOL    HW125102   6.358   0.675   5.355
 7735SOL    HW225103   6.399   0.606   5.484
 7736SOL     OW25104   7.754   4.553  14.702
 7736SOL    HW125105   7.766   4.536  14.608
 7736SOL    HW225106   7.840   4.582  14.732
 7737SOL     OW25107   8.443   8.915   8.207
 7737SOL    HW125108   8.400   8.884   8.127
 7737SOL    HW225109   8.371   8.950   8.260
 7738SOL     OW25110  13.735  11.323   9.917
 7738SOL    HW125111  13.665  11.259   9.904
 7738SOL    HW225112  13.798  11.304   9.848
 7739SOL     OW25113   8.352  11.534   7.200
 7739SOL    HW125114   8.399  11.527   7.116
 7739SOL    HW225115   8.392  11.610   7.243
 7740SOL     OW25116   8.580   1.603  11.589
 7740SOL    HW125117   8.617   1.652  11.516
 7740SOL    HW225118   8.550   1.521  11.550
 7741SOL     OW25119   3.279   4.258   4.165
 7741SOL    HW125120   3.322   4.326   4.216
 7741SOL    HW225121   3.255   4.300   4.083
 7742SOL     OW25122   2.978   8.633   5.835
 7742SOL    HW125123   2.961   8.658   5.744
 7742SOL    HW225124   2.897   8.657   5.881
 7743SOL     OW25125   9.562  13.698   7.187
 7743SOL    HW125126   9.518  13.649   7.118
 7743SOL    HW225127   9.632  13.746   7.142
 7744SOL     OW25128   9.301   4.728   5.213
 7744SOL    HW125129   9.393   4.722   5.190
 7744SOL    HW225130   9.273   4.814   5.183
 7745SOL     OW25131   6.926   0.826   8.071
 7745SOL    HW125132   6.855   0.762   8.071
 7745SOL    HW225133   6.957   0.828   8.161
 7746SOL     OW25134  10.984   8.552   1.024
 7746SOL    HW125135  10.969   8.460   1.047
 7746SOL    HW225136  11.072   8.570   1.057
 7747SOL     OW25137   0.700  10.785   7.332
 7747SOL    HW125138   0.657  10.700   7.326
 7747SOL    HW225139   0.748  10.794   7.250
 7748SOL     OW25140  13.424   7.566   9.701
 7748SOL    HW125141  13.436   7.548   9.794
 7748SOL    HW225142  13.362   7.499   9.672
 7749SOL     OW25143   9.005  14.557   4.010
 7749SOL    HW125144   8.914  14.583   4.024
 7749SOL    HW225145   9.011  14.539   3.916
 7750SOL     OW25146   4.834  11.577  10.935
 7750SOL    HW125147   4.777  11.547  10.864
 7750SOL    HW225148   4.775  11.624  10.994
 7751SOL     OW25149  13.808   0.904  11.621
 7751SOL    HW125150  13.761   0.825  11.592
 7751SOL    HW225151  13.844   0.941  11.541
 7752SOL     OW25152  12.667  10.946  14.704
 7752SOL    HW125153  12.716  10.864  14.713
 7752SOL    HW225154  12.663  10.960  14.610
 7753SOL     OW25155   3.673   3.143  10.194
 7753SOL    HW125156   3.726   3.217  10.221
 7753SOL    HW225157   3.698   3.072  10.254
 7754SOL     OW25158   1.063   0.723  12.046
 7754SOL    HW125159   1.045   0.629  12.041
 7754SOL    HW225160   0.981   0.764  12.022
 7755SOL     OW25161   2.494   4.954  11.255
 7755SOL    HW125162   2.573   4.971  11.204
 7755SOL    HW225163   2.523   4.958  11.346
 7756SOL     OW25164  12.610  12.212   5.729
 7756SOL    HW125165  12.621  12.234   5.636
 7756SOL    HW225166  12.531  12.259   5.755
 7757SOL     OW25167   3.124   8.112  14.834
 7757SOL    HW125168   3.177   8.191  14.825
 7757SOL    HW225169   3.088   8.117   0.054
 7758SOL     OW25170   6.922  11.593   5.521
 7758SOL    HW125171   7.013  11.574   5.498
 7758SOL    HW225172   6.871  11.527   5.474
 7759SOL     OW25173   7.442  10.926   5.396
 7759SOL    HW125174   7.425  10.869   5.321
 7759SOL    HW225175   7.450  11.014   5.358
 7760SOL     OW25176  14.817   8.243  14.240
 7760SOL    HW125177  14.790   8.181  14.308
 7760SOL    HW225178  14.794   8.198  14.158
 7761SOL     OW25179  12.248  12.032   6.570
 7761SOL    HW125180  12.288  12.069   6.491
 7761SOL    HW225181  12.247  12.104   6.633
 7762SOL     OW25182   4.527   1.388   8.986
 7762SOL    HW125183   4.488   1.436   9.060
 7762SOL    HW225184   4.508   1.296   9.004
 7763SOL     OW25185   3.729   6.993  12.888
 7763SOL    HW125186   3.806   7.027  12.843
 7763SOL    HW225187   3.740   7.022  12.979
 7764SOL     OW25188   4.271   0.773  12.322
 7764SOL    HW125189   4.274   0.858  12.278
 7764SOL    HW225190   4.283   0.709  12.252
 7765SOL     OW25191   8.443   9.957   2.696
 7765SOL    HW125192   8.453   9.899   2.621
 7765SOL    HW225193   8.446  10.045   2.658
 7766SOL     OW25194  12.600   7.901   2.384
 7766SOL    HW125195  12.531   7.919   2.320
 7766SOL    HW225196  12.598   7.805   2.395
 7767SOL     OW25197   3.220   1.829   4.170
 7767SOL    HW125198   3.172   1.824   4.253
 7767SOL    HW225199   3.312   1.839   4.197
 7768SOL     OW25200   5.935  12.031   7.891
 7768SOL    HW125201   5.970  12.010   7.804
 7768SOL    HW225202   6.009  12.065   7.940
 7769SOL     OW25203   0.696   3.578  13.829
 7769SOL    HW125204   0.731   3.528  13.903
 7769SOL    HW225205   0.694   3.668  13.861
 7770SOL     OW25206   5.732   7.525  11.855
 7770SOL    HW125207   5.778   7.456  11.903
 7770SOL    HW225208   5.661   7.480  11.810
 7771SOL     OW25209   7.461   8.410   6.259
 7771SOL    HW125210   7.526   8.454   6.205
 7771SOL    HW225211   7.403   8.366   6.197
 7772SOL     OW25212  13.245   9.500   3.796
 7772SOL    HW125213  13.202   9.585   3.788
 7772SOL    HW225214  13.179   9.437   3.766
 7773SOL     OW25215   2.341  10.944  13.926
 7773SOL    HW125216   2.299  10.958  13.841
 7773SOL    HW225217   2.298  10.866  13.962
 7774SOL     OW25218   9.594   8.986   8.767
 7774SOL    HW125219   9.550   8.992   8.682
 7774SOL    HW225220   9.624   9.075   8.785
 7775SOL     OW25221   0.238  10.440   4.767
 7775SOL    HW125222   0.297  10.365   4.764
 7775SOL    HW225223   0.193  10.439   4.682
 7776SOL     OW25224   4.442  10.321   1.959
 7776SOL    HW125225   4.420  10.234   1.925
 7776SOL    HW225226   4.460  10.306   2.052
 7777SOL     OW25227   5.237  12.752   8.589
 7777SOL    HW125228   5.325  12.714   8.589
 7777SOL    HW225229   5.240  12.821   8.523
 7778SOL     OW25230   7.033  10.995   3.031
 7778SOL    HW125231   7.050  11.078   2.987
 7778SOL    HW225232   6.938  10.993   3.042
 7779SOL     OW25233   6.863   0.902   6.386
 7779SOL    HW125234   6.938   0.891   6.327
 7779SOL    HW225235   6.789   0.862   6.340
 7780SOL     OW25236   7.301   5.893   4.941
 7780SOL    HW125237   7.336   5.879   4.853
 7780SOL    HW225238   7.312   5.987   4.956
 7781SOL     OW25239   3.946   5.899   3.615
 7781SOL    HW125240   3.909   5.971   3.565
 7781SOL    HW225241   4.032   5.931   3.643
 7782SOL     OW25242  10.399   9.640   3.227
 7782SOL    HW125243  10.447   9.609   3.303
 7782SOL    HW225244  10.458   9.701   3.184
 7783SOL     OW25245   8.416   8.908   4.528
 7783SOL    HW125246   8.347   8.846   4.503
 7783SOL    HW225247   8.492   8.883   4.475
 7784SOL     OW25248  13.474   4.327   9.562
 7784SOL    HW125249  13.549   4.365   9.515
 7784SOL    HW225250  13.434   4.401   9.608
 7785SOL     OW25251   4.372  12.430   2.314
 7785SOL    HW125252   4.433  12.445   2.387
 7785SOL    HW225253   4.426  12.393   2.245
 7786SOL     OW25254   7.162  11.391   0.993
 7786SOL    HW125255   7.238  11.358   1.040
 7786SOL    HW225256   7.174  11.486   0.992
 7787SOL     OW25257  12.182   3.673   1.007
 7787SOL    HW125258  12.243   3.693   0.937
 7787SOL    HW225259  12.236   3.669   1.086
 7788SOL     OW25260   0.887   6.260   7.326
 7788SOL    HW125261   0.932   6.344   7.315
 7788SOL    HW225262   0.903   6.213   7.244
 7789SOL     OW25263   0.719   9.719   0.567
 7789SOL    HW125264   0.723   9.662   0.644
 7789SOL    HW225265   0.808   9.755   0.560
 7790SOL     OW25266   7.524   0.561  14.843
 7790SOL    HW125267   7.598   0.570  14.783
 7790SOL    HW225268   7.564   0.534   0.058
 7791SOL     OW25269   8.854  14.626  13.975
 7791SOL    HW125270   8.805  14.575  14.040
 7791SOL    HW225271   8.899  14.693  14.026
 7792SOL     OW25272   8.997  14.527   6.192
 7792SOL    HW125273   9.083  14.552   6.227
 7792SOL    HW225274   8.939  14.597   6.222
 7793SOL     OW25275   1.372  14.137  13.134
 7793SOL    HW125276   1.326  14.054  13.122
 7793SOL    HW225277   1.434  14.120  13.204
 7794SOL     OW25278   8.316   8.603   5.084
 7794SOL    HW125279   8.299   8.553   5.004
 7794SOL    HW225280   8.344   8.689   5.053
 7795SOL     OW25281   2.394   7.917   2.943
 7795SOL    HW125282   2.342   7.996   2.925
 7795SOL    HW225283   2.455   7.912   2.869
 7796SOL     OW25284  12.427   3.550  12.009
 7796SOL    HW125285  12.366   3.485  11.973
 7796SOL    HW225286  12.407   3.630  11.960
 7797SOL     OW25287   0.193   5.877  11.266
 7797SOL    HW125288   0.261   5.810  11.280
 7797SOL    HW225289   0.232   5.936  11.201
 7798SOL     OW25290  12.840   8.036  10.551
 7798SOL    HW125291  12.831   8.124  10.515
 7798SOL    HW225292  12.796   8.040  10.637
 7799SOL     OW25293   1.938   2.328   9.183
 7799SOL    HW125294   1.900   2.267   9.246
 7799SOL    HW225295   1.929   2.284   9.099
 7800SOL     OW25296   9.061   1.808   3.112
 7800SOL    HW125297   9.098   1.769   3.032
 7800SOL    HW225298   9.115   1.886   3.128
 7801SOL     OW25299   7.399   7.396  14.419
 7801SOL    HW125300   7.444   7.415  14.336
 7801SOL    HW225301   7.387   7.301  14.419
 7802SOL     OW25302   6.882   7.860  10.025
 7802SOL    HW125303   6.975   7.847  10.042
 7802SOL    HW225304   6.876   7.952   9.998
 7803SOL     OW25305  13.824   5.415  13.452
 7803SOL    HW125306  13.892   5.357  13.416
 7803SOL    HW225307  13.873   5.491  13.485
 7804SOL     OW25308   6.233  12.486   5.182
 7804SOL    HW125309   6.309  12.450   5.227
 7804SOL    HW225310   6.167  12.417   5.187
 7805SOL     OW25311   5.304   1.819   2.690
 7805SOL    HW125312   5.233   1.763   2.658
 7805SOL    HW225313   5.361   1.761   2.740
 7806SOL     OW25314   6.901  12.984   0.087
 7806SOL    HW125315   6.926  12.893   0.070
 7806SOL    HW225316   6.950  13.035   0.023
 7807SOL     OW25317   3.595  12.812   2.498
 7807SOL    HW125318   3.502  12.824   2.516
 7807SOL    HW225319   3.634  12.792   2.583
 7808SOL     OW25320   7.359   7.915   1.672
 7808SOL    HW125321   7.323   7.858   1.740
 7808SOL    HW225322   7.309   7.892   1.593
 7809SOL     OW25323  11.477  10.495   8.600
 7809SOL    HW125324  11.394  10.537   8.580
 7809SOL    HW225325  11.543  10.558   8.572
 7810SOL     OW25326   3.722   7.675  14.254
 7810SOL    HW125327   3.656   7.745  14.259
 7810SOL    HW225328   3.794   7.706  14.309
 7811SOL     OW25329   0.334   5.256   6.231
 7811SOL    HW125330   0.298   5.329   6.281
 7811SOL    HW225331   0.425   5.280   6.216
 7812SOL     OW25332   1.439   5.229   1.308
 7812SOL    HW125333   1.363   5.254   1.255
 7812SOL    HW225334   1.486   5.166   1.254
 7813SOL     OW25335  11.339   5.530  10.949
 7813SOL    HW125336  11.263   5.574  10.912
 7813SOL    HW225337  11.320   5.436  10.938
 7814SOL     OW25338   8.902   8.023   0.596
 7814SOL    HW125339   8.865   7.979   0.520
 7814SOL    HW225340   8.931   8.108   0.563
 7815SOL     OW25341  12.723   3.420   2.981
 7815SOL    HW125342  12.661   3.349   2.997
 7815SOL    HW225343  12.807   3.376   2.966
 7816SOL     OW25344  12.405   4.227   7.743
 7816SOL    HW125345  12.422   4.136   7.717
 7816SOL    HW225346  12.489   4.271   7.733
 7817SOL     OW25347  12.749   2.866  10.008
 7817SOL    HW125348  12.658   2.884  10.032
 7817SOL    HW225349  12.798   2.879  10.089
 7818SOL     OW25350   9.270  10.600  10.858
 7818SOL    HW125351   9.353  10.552  10.861
 7818SOL    HW225352   9.239  10.587  10.768
 7819SOL     OW25353   7.828  13.962  11.633
 7819SOL    HW125354   7.835  13.890  11.695
 7819SOL    HW225355   7.869  14.036  11.677
 7820SOL     OW25356  13.222   9.847   5.460
 7820SOL    HW125357  13.287   9.782   5.434
 7820SOL    HW225358  13.230   9.916   5.394
 7821SOL     OW25359   4.676  12.972   8.269
 7821SOL    HW125360   4.601  13.029   8.254
 7821SOL    HW225361   4.641  12.899   8.320
 7822SOL     OW25362   9.054   9.324  13.085
 7822SOL    HW125363   8.983   9.363  13.033
 7822SOL    HW225364   9.022   9.237  13.107
 7823SOL     OW25365   2.298  12.697   7.282
 7823SOL    HW125366   2.336  12.696   7.194
 7823SOL    HW225367   2.368  12.664   7.338
 7824SOL     OW25368  10.265  10.099   2.735
 7824SOL    HW125369  10.253  10.179   2.683
 7824SOL    HW225370  10.328  10.125   2.802
 7825SOL     OW25371  10.529  13.920   6.821
 7825SOL    HW125372  10.565  13.996   6.868
 7825SOL    HW225373  10.435  13.924   6.837
 7826SOL     OW25374  11.481   3.258  10.239
 7826SOL    HW125375  11.400   3.224  10.202
 7826SOL    HW225376  11.514   3.318  10.172
 7827SOL     OW25377  11.944   3.785   0.955
 7827SOL    HW125378  12.011   3.718   0.969
 7827SOL    HW225379  11.993   3.866   0.944
 7828SOL     OW25380  14.313   4.903   9.327
 7828SOL    HW125381  14.279   4.980   9.372
 7828SOL    HW225382  14.353   4.850   9.397
 7829SOL     OW25383   2.340   1.297   4.755
 7829SOL    HW125384   2.309   1.388   4.763
 7829SOL    HW225385   2.426   1.298   4.796
 7830SOL     OW25386   0.056  14.244  12.975
 7830SOL    HW125387   0.017  14.319  13.018
 7830SOL    HW225388  14.860  14.218  12.908
 7831SOL     OW25389   8.597  13.457  13.310
 7831SOL    HW125390   8.589  13.547  13.279
 7831SOL    HW225391   8.517  13.442  13.361
 7832SOL     OW25392  13.230   1.407   2.366
 7832SOL    HW125393  13.152   1.354   2.355
 7832SOL    HW225394  13.199   1.490   2.403
 7833SOL     OW25395   0.221  12.147   4.386
 7833SOL    HW125396   0.208  12.240   4.367
 7833SOL    HW225397   0.293  12.145   4.449
 7834SOL     OW25398   8.281   6.426   7.322
 7834SOL    HW125399   8.293   6.469   7.406
 7834SOL    HW225400   8.282   6.332   7.343
 7835SOL     OW25401   7.574   8.778   5.960
 7835SOL    HW125402   7.656   8.745   5.923
 7835SOL    HW225403   7.597   8.865   5.993
 7836SOL     OW25404  14.573  11.533  14.442
 7836SOL    HW125405  14.492  11.542  14.392
 7836SOL    HW225406  14.615  11.619  14.435
 7837SOL     OW25407   2.297   6.095   6.710
 7837SOL    HW125408   2.256   6.179   6.691
 7837SOL    HW225409   2.384   6.118   6.745
 7838SOL     OW25410  13.165   3.734   4.168
 7838SOL    HW125411  13.217   3.773   4.238
 7838SOL    HW225412  13.227   3.718   4.098
 7839SOL     OW25413   5.123   3.164  13.758
 7839SOL    HW125414   5.085   3.114  13.686
 7839SOL    HW225415   5.212   3.130  13.767
 7840SOL     OW25416  10.185   6.371   7.209
 7840SOL    HW125417  10.265   6.369   7.156
 7840SOL    HW225418  10.210   6.330   7.292
 7841SOL     OW25419  10.195   8.945   3.678
 7841SOL    HW125420  10.289   8.959   3.691
 7841SOL    HW225421  10.154   8.989   3.753
 7842SOL     OW25422   3.522  10.771   7.742
 7842SOL    HW125423   3.572  10.700   7.783
 7842SOL    HW225424   3.433  10.738   7.737
 7843SOL     OW25425   4.870   0.373  11.671
 7843SOL    HW125426   4.847   0.322  11.748
 7843SOL    HW225427   4.912   0.310  11.612
 7844SOL     OW25428  11.283   0.767   9.060
 7844SOL    HW125429  11.221   0.756   9.131
 7844SOL    HW225430  11.277   0.686   9.009
 7845SOL     OW25431   7.347   4.605  12.207
 7845SOL    HW125432   7.296   4.686  12.207
 7845SOL    HW225433   7.394   4.606  12.290
 7846SOL     OW25434  14.618   2.062  10.664
 7846SOL    HW125435  14.597   2.117  10.739
 7846SOL    HW225436  14.597   1.973  10.692
 7847SOL     OW25437  12.955  13.683   6.529
 7847SOL    HW125438  13.016  13.680   6.603
 7847SOL    HW225439  12.869  13.667   6.567
 7848SOL     OW25440  12.064   7.902   5.120
 7848SOL    HW125441  12.017   7.926   5.200
 7848SOL    HW225442  12.023   7.821   5.091
 7849SOL     OW25443  11.146  10.106   9.936
 7849SOL    HW125444  11.163  10.131   9.846
 7849SOL    HW225445  11.064  10.150   9.959
 7850SOL     OW25446   8.773  13.522   0.462
 7850SOL    HW125447   8.798  13.609   0.431
 7850SOL    HW225448   8.794  13.523   0.556
 7851SOL     OW25449   8.278  10.777   8.502
 7851SOL    HW125450   8.353  10.792   8.559
 7851SOL    HW225451   8.226  10.710   8.546
 7852SOL     OW25452   5.549  10.981   6.412
 7852SOL    HW125453   5.603  10.918   6.365
 7852SOL    HW225454   5.459  10.958   6.389
 7853SOL     OW25455  11.234   8.348   5.078
 7853SOL    HW125456  11.253   8.403   5.002
 7853SOL    HW225457  11.230   8.408   5.152
 7854SOL     OW25458   7.596  14.376  12.136
 7854SOL    HW125459   7.506  14.399  12.157
 7854SOL    HW225460   7.623  14.440  12.070
 7855SOL     OW25461   1.195  13.984   2.284
 7855SOL    HW125462   1.147  13.956   2.362
 7855SOL    HW225463   1.285  13.957   2.301
 7856SOL     OW25464   7.812   6.180   6.323
 7856SOL    HW125465   7.791   6.210   6.412
 7856SOL    HW225466   7.903   6.206   6.310
 7857SOL     OW25467   8.631  10.292   3.815
 7857SOL    HW125468   8.604  10.201   3.829
 7857SOL    HW225469   8.645  10.298   3.720
 7858SOL     OW25470   7.660   2.675  12.223
 7858SOL    HW125471   7.587   2.619  12.252
 7858SOL    HW225472   7.626   2.764  12.227
 7859SOL     OW25473   6.600   7.483  12.028
 7859SOL    HW125474   6.559   7.559  11.987
 7859SOL    HW225475   6.692   7.507  12.037
 7860SOL     OW25476   5.167   4.193   7.514
 7860SOL    HW125477   5.073   4.172   7.514
 7860SOL    HW225478   5.204   4.139   7.445
 7861SOL     OW25479   0.721   0.627   0.247
 7861SOL    HW125480   0.764   0.634   0.332
 7861SOL    HW225481   0.707   0.718   0.220
 7862SOL     OW25482   0.832  11.634   0.139
 7862SOL    HW125483   0.884  11.627   0.059
 7862SOL    HW225484   0.831  11.545   0.175
 7863SOL     OW25485   3.420   6.091  12.926
 7863SOL    HW125486   3.400   6.148  12.852
 7863SOL    HW225487   3.394   6.004  12.897
 7864SOL     OW25488   3.641   9.331   4.948
 7864SOL    HW125489   3.653   9.282   4.867
 7864SOL    HW225490   3.673   9.419   4.928
 7865SOL     OW25491   7.202  13.699   6.767
 7865SOL    HW125492   7.278  13.732   6.816
 7865SOL    HW225493   7.142  13.668   6.835
 7866SOL     OW25494   8.341  14.412   4.009
 7866SOL    HW125495   8.417  14.449   3.963
 7866SOL    HW225496   8.307  14.485   4.062
 7867SOL     OW25497   6.275   2.501   6.421
 7867SOL    HW125498   6.191   2.482   6.380
 7867SOL    HW225499   6.322   2.417   6.421
 7868SOL     OW25500   3.839   0.296   8.736
 7868SOL    HW125501   3.758   0.275   8.783
 7868SOL    HW225502   3.864   0.214   8.693
 7869SOL     OW25503   2.080   4.303   1.664
 7869SOL    HW125504   2.050   4.369   1.726
 7869SOL    HW225505   2.175   4.315   1.660
 7870SOL     OW25506   9.715  13.285   9.490
 7870SOL    HW125507   9.682  13.374   9.475
 7870SOL    HW225508   9.805  13.287   9.457
 7871SOL     OW25509   9.866  11.823   6.368
 7871SOL    HW125510   9.867  11.898   6.428
 7871SOL    HW225511   9.886  11.748   6.424
 7872SOL     OW25512  12.223   5.090  10.268
 7872SOL    HW125513  12.137   5.053  10.286
 7872SOL    HW225514  12.226   5.098  10.172
 7873SOL     OW25515   5.345   0.625  13.658
 7873SOL    HW125516   5.404   0.573  13.604
 7873SOL    HW225517   5.337   0.709  13.613
 7874SOL     OW25518  10.540   0.436   4.505
 7874SOL    HW125519  10.545   0.474   4.418
 7874SOL    HW225520  10.451   0.454   4.535
 7875SOL     OW25521  12.038   7.608   9.941
 7875SOL    HW125522  12.123   7.649   9.959
 7875SOL    HW225523  12.020   7.630   9.850
 7876SOL     OW25524  10.395  12.127  12.942
 7876SOL    HW125525  10.333  12.108  13.011
 7876SOL    HW225526  10.451  12.196  12.978
 7877SOL     OW25527   9.964   7.673   3.825
 7877SOL    HW125528   9.957   7.769   3.830
 7877SOL    HW225529   9.967   7.655   3.731
 7878SOL     OW25530  12.259   8.639  12.615
 7878SOL    HW125531  12.248   8.544  12.612
 7878SOL    HW225532  12.310   8.655  12.694
 7879SOL     OW25533   9.673   5.114   2.952
 7879SOL    HW125534   9.684   5.072   2.867
 7879SOL    HW225535   9.650   5.204   2.932
 7880SOL     OW25536  11.520   1.394   3.462
 7880SOL    HW125537  11.502   1.487   3.478
 7880SOL    HW225538  11.486   1.350   3.540
 7881SOL     OW25539  10.581  12.254   4.968
 7881SOL    HW125540  10.504  12.310   4.961
 7881SOL    HW225541  10.617  12.251   4.879
 7882SOL     OW25542   4.626   6.987   8.588
 7882SOL    HW125543   4.616   7.072   8.546
 7882SOL    HW225544   4.680   7.004   8.665
 7883SOL     OW25545   8.480   6.455  10.580
 7883SOL    HW125546   8.518   6.403  10.651
 7883SOL    HW225547   8.552   6.469  10.519
 7884SOL     OW25548  12.423   6.179   2.818
 7884SOL    HW125549  12.508   6.214   2.847
 7884SOL    HW225550  12.445   6.096   2.777
 7885SOL     OW25551   5.997   0.373  12.201
 7885SOL    HW125552   5.931   0.308  12.223
 7885SOL    HW225553   6.020   0.355  12.110
 7886SOL     OW25554   2.038  10.853  13.821
 7886SOL    HW125555   2.019  10.944  13.844
 7886SOL    HW225556   2.031  10.806  13.904
 7887SOL     OW25557   8.444  11.359  12.847
 7887SOL    HW125558   8.523  11.318  12.810
 7887SOL    HW225559   8.376  11.292  12.839
 7888SOL     OW25560   4.490   9.730   8.631
 7888SOL    HW125561   4.511   9.681   8.711
 7888SOL    HW225562   4.437   9.670   8.579
 7889SOL     OW25563   5.610  13.568  12.177
 7889SOL    HW125564   5.535  13.566  12.118
 7889SOL    HW225565   5.686  13.552  12.121
 7890SOL     OW25566  12.622   4.561   4.542
 7890SOL    HW125567  12.675   4.636   4.516
 7890SOL    HW225568  12.576   4.535   4.462
 7891SOL     OW25569   8.878   0.909   1.933
 7891SOL    HW125570   8.902   1.000   1.948
 7891SOL    HW225571   8.941   0.878   1.867
 7892SOL     OW25572  12.427   0.446  14.837
 7892SOL    HW125573  12.477   0.480   0.044
 7892SOL    HW225574  12.377   0.521  14.806
 7893SOL     OW25575   8.017   7.686   6.188
 7893SOL    HW125576   8.102   7.656   6.155
 7893SOL    HW225577   7.957   7.678   6.114
 7894SOL     OW25578   9.610  13.367   4.961
 7894SOL    HW125579   9.557  13.329   4.890
 7894SOL    HW225580   9.669  13.427   4.917
 7895SOL     OW25581   1.534  13.067   3.513
 7895SOL    HW125582   1.568  13.081   3.601
 7895SOL    HW225583   1.445  13.102   3.515
 7896SOL     OW25584   8.587  12.140   7.945
 7896SOL    HW125585   8.676  12.143   7.980
 7896SOL    HW225586   8.551  12.227   7.960
 7897SOL     OW25587  12.084  10.859   5.853
 7897SOL    HW125588  12.053  10.840   5.765
 7897SOL    HW225589  12.023  10.925   5.887
 7898SOL     OW25590   2.451   6.531  13.593
 7898SOL    HW125591   2.417   6.571  13.513
 7898SOL    HW225592   2.513   6.465  13.563
 7899SOL     OW25593   9.909  13.924   5.043
 7899SOL    HW125594   9.972  13.853   5.055
 7899SOL    HW225595   9.858  13.898   4.966
 7900SOL     OW25596  13.924   9.610   2.520
 7900SOL    HW125597  13.963   9.553   2.454
 7900SOL    HW225598  13.997   9.665   2.549
 7901SOL     OW25599  11.002   8.824   0.405
 7901SOL    HW125600  11.080   8.777   0.377
 7901SOL    HW225601  11.017   8.915   0.379
 7902SOL     OW25602   1.464   9.309   6.222
 7902SOL    HW125603   1.369   9.324   6.219
 7902SOL    HW225604   1.481   9.283   6.312
 7903SOL     OW25605  10.613   7.786   0.279
 7903SOL    HW125606  10.689   7.826   0.320
 7903SOL    HW225607  10.565   7.860   0.240
 7904SOL     OW25608  13.539   5.561   8.271
 7904SOL    HW125609  13.474   5.565   8.341
 7904SOL    HW225610  13.559   5.468   8.261
 7905SOL     OW25611  12.075  14.816   8.070
 7905SOL    HW125612  12.078  14.801   8.165
 7905SOL    HW225613  12.025   0.030   8.060
 7906SOL     OW25614  14.026   6.936  10.311
 7906SOL    HW125615  14.079   7.010  10.339
 7906SOL    HW225616  13.942   6.974  10.286
 7907SOL     OW25617   4.248   2.591   6.008
 7907SOL    HW125618   4.249   2.666   6.068
 7907SOL    HW225619   4.155   2.572   5.994
 7908SOL     OW25620   4.056   4.988   7.332
 7908SOL    HW125621   4.069   5.012   7.424
 7908SOL    HW225622   4.061   5.071   7.285
 7909SOL     OW25623   1.306   2.758   8.613
 7909SOL    HW125624   1.290   2.729   8.523
 7909SOL    HW225625   1.291   2.852   8.611
 7910SOL     OW25626   3.167  14.484   2.830
 7910SOL    HW125627   3.104  14.555   2.838
 7910SOL    HW225628   3.118  14.413   2.789
 7911SOL     OW25629  14.380  12.220   2.719
 7911SOL    HW125630  14.440  12.195   2.789
 7911SOL    HW225631  14.305  12.163   2.730
 7912SOL     OW25632   0.993   4.521   0.871
 7912SOL    HW125633   1.017   4.582   0.941
 7912SOL    HW225634   0.994   4.575   0.792
 7913SOL     OW25635  13.752   7.503   7.784
 7913SOL    HW125636  13.695   7.564   7.736
 7913SOL    HW225637  13.826   7.487   7.725
 7914SOL     OW25638  10.319  12.446   9.178
 7914SOL    HW125639  10.291  12.477   9.092
 7914SOL    HW225640  10.372  12.369   9.160
 7915SOL     OW25641  10.457   8.704   3.677
 7915SOL    HW125642  10.535   8.748   3.643
 7915SOL    HW225643  10.482   8.677   3.765
 7916SOL     OW25644  11.749  13.374   4.901
 7916SOL    HW125645  11.836  13.334   4.909
 7916SOL    HW225646  11.725  13.395   4.991
 7917SOL     OW25647   4.727  10.550   7.289
 7917SOL    HW125648   4.682  10.573   7.208
 7917SOL    HW225649   4.727  10.631   7.340
 7918SOL     OW25650   4.254  10.751   8.270
 7918SOL    HW125651   4.296  10.791   8.194
 7918SOL    HW225652   4.328  10.727   8.327
 7919SOL     OW25653   2.788   2.645   8.696
 7919SOL    HW125654   2.815   2.610   8.781
 7919SOL    HW225655   2.783   2.568   8.639
 7920SOL     OW25656   5.235   5.722  11.440
 7920SOL    HW125657   5.305   5.658  11.432
 7920SOL    HW225658   5.172   5.697  11.372
 7921SOL     OW25659  13.057   7.477  14.671
 7921SOL    HW125660  13.089   7.389  14.649
 7921SOL    HW225661  13.133   7.534  14.659
 7922SOL     OW25662   5.405   0.289  12.768
 7922SOL    HW125663   5.326   0.240  12.790
 7922SOL    HW225664   5.446   0.240  12.697
 7923SOL     OW25665   7.122  10.366   3.287
 7923SOL    HW125666   7.096  10.432   3.352
 7923SOL    HW225667   7.210  10.339   3.315
 7924SOL     OW25668   8.610   0.232   3.182
 7924SOL    HW125669   8.614   0.227   3.277
 7924SOL    HW225670   8.546   0.166   3.157
 7925SOL     OW25671   1.286   3.121   5.454
 7925SOL    HW125672   1.307   3.034   5.419
 7925SOL    HW225673   1.369   3.168   5.455
 7926SOL     OW25674   3.563   2.786   5.218
 7926SOL    HW125675   3.494   2.847   5.190
 7926SOL    HW225676   3.635   2.843   5.245
 7927SOL     OW25677  13.468   9.694  10.712
 7927SOL    HW125678  13.563   9.692  10.706
 7927SOL    HW225679  13.450   9.743  10.792
 7928SOL     OW25680   1.785   0.192   6.784
 7928SOL    HW125681   1.722   0.232   6.724
 7928SOL    HW225682   1.845   0.262   6.805
 7929SOL     OW25683   9.789   5.728   6.508
 7929SOL    HW125684   9.803   5.761   6.420
 7929SOL    HW225685   9.857   5.771   6.561
 7930SOL     OW25686   5.707   5.718   2.252
 7930SOL    HW125687   5.801   5.734   2.241
 7930SOL    HW225688   5.695   5.628   2.222
 7931SOL     OW25689   6.780   7.568  11.606
 7931SOL    HW125690   6.711   7.585  11.670
 7931SOL    HW225691   6.785   7.648  11.555
 7932SOL     OW25692  13.209   1.033  13.118
 7932SOL    HW125693  13.272   1.086  13.167
 7932SOL    HW225694  13.125   1.076  13.131
 7933SOL     OW25695   0.980  13.302  11.325
 7933SOL    HW125696   0.922  13.229  11.302
 7933SOL    HW225697   0.935  13.348  11.395
 7934SOL     OW25698  13.005  14.074   1.960
 7934SOL    HW125699  13.014  14.082   1.865
 7934SOL    HW225700  13.058  14.145   1.995
 7935SOL     OW25701   3.479   6.697   4.533
 7935SOL    HW125702   3.512   6.766   4.591
 7935SOL    HW225703   3.412   6.740   4.480
 7936SOL     OW25704  12.468  10.427   1.813
 7936SOL    HW125705  12.504  10.339   1.801
 7936SOL    HW225706  12.413  10.440   1.736
 7937SOL     OW25707  11.946   4.493  12.986
 7937SOL    HW125708  11.894   4.425  12.944
 7937SOL    HW225709  11.985   4.451  13.062
 7938SOL     OW25710   0.879   2.206   1.091
 7938SOL    HW125711   0.954   2.262   1.072
 7938SOL    HW225712   0.860   2.162   1.008
 7939SOL     OW25713   9.145   3.433   8.665
 7939SOL    HW125714   9.217   3.372   8.684
 7939SOL    HW225715   9.179   3.491   8.597
 7940SOL     OW25716   5.692   3.398   1.694
 7940SOL    HW125717   5.610   3.349   1.683
 7940SOL    HW225718   5.707   3.438   1.608
 7941SOL     OW25719   2.322  14.009   8.251
 7941SOL    HW125720   2.387  13.946   8.221
 7941SOL    HW225721   2.238  13.976   8.217
 7942SOL     OW25722   9.337  13.111   4.571
 7942SOL    HW125723   9.378  13.137   4.488
 7942SOL    HW225724   9.256  13.067   4.545
 7943SOL     OW25725   1.578   6.494   5.832
 7943SOL    HW125726   1.626   6.460   5.757
 7943SOL    HW225727   1.607   6.438   5.905
 7944SOL     OW25728   1.895   1.483   7.318
 7944SOL    HW125729   1.822   1.510   7.374
 7944SOL    HW225730   1.877   1.524   7.233
 7945SOL     OW25731  12.723  11.871   4.372
 7945SOL    HW125732  12.801  11.911   4.333
 7945SOL    HW225733  12.652  11.933   4.352
 7946SOL     OW25734  11.468  14.187   6.078
 7946SOL    HW125735  11.409  14.130   6.029
 7946SOL    HW225736  11.548  14.191   6.025
 7947SOL     OW25737   7.916   4.238  12.766
 7947SOL    HW125738   7.979   4.226  12.837
 7947SOL    HW225739   7.838   4.192  12.795
 7948SOL     OW25740   9.790  13.837   9.355
 7948SOL    HW125741   9.835  13.841   9.439
 7948SOL    HW225742   9.849  13.786   9.299
 7949SOL     OW25743   4.868   8.175   2.042
 7949SOL    HW125744   4.899   8.245   1.985
 7949SOL    HW225745   4.885   8.207   2.131
 7950SOL     OW25746  13.887   7.515  13.103
 7950SOL    HW125747  13.808   7.554  13.066
 7950SOL    HW225748  13.858   7.431  13.139
 7951SOL     OW25749   1.741   4.641  11.034
 7951SOL    HW125750   1.804   4.646  11.106
 7951SOL    HW225751   1.785   4.587  10.968
 7952SOL     OW25752  13.783   9.995  12.732
 7952SOL    HW125753  13.799   9.918  12.787
 7952SOL    HW225754  13.688   9.994  12.717
 7953SOL     OW25755  10.933   2.857  14.270
 7953SOL    HW125756  10.871   2.891  14.334
 7953SOL    HW225757  11.017   2.895  14.296
 7954SOL     OW25758  11.855   4.510  11.725
 7954SOL    HW125759  11.799   4.443  11.765
 7954SOL    HW225760  11.902   4.464  11.656
 7955SOL     OW25761   9.026   8.437  13.533
 7955SOL    HW125762   9.077   8.503  13.486
 7955SOL    HW225763   9.092   8.380  13.573
 7956SOL     OW25764  10.994   2.270   9.811
 7956SOL    HW125765  11.022   2.294   9.899
 7956SOL    HW225766  10.937   2.195   9.824
 7957SOL     OW25767   9.377  10.352   7.400
 7957SOL    HW125768   9.365  10.292   7.326
 7957SOL    HW225769   9.363  10.439   7.363
 7958SOL     OW25770   2.904   0.681   7.122
 7958SOL    HW125771   2.840   0.622   7.162
 7958SOL    HW225772   2.953   0.625   7.061
 7959SOL     OW25773  14.651  14.695  11.674
 7959SOL    HW125774  14.623  14.680  11.765
 7959SOL    HW225775  14.610  14.625  11.624
 7960SOL     OW25776   9.433  12.447  11.749
 7960SOL    HW125777   9.438  12.510  11.820
 7960SOL    HW225778   9.450  12.362  11.790
 7961SOL     OW25779   8.585  13.321   0.585
 7961SOL    HW125780   8.506  13.319   0.531
 7961SOL    HW225781   8.635  13.395   0.551
 7962SOL     OW25782   3.091   4.691   4.660
 7962SOL    HW125783   3.042   4.610   4.677
 7962SOL    HW225784   3.039   4.759   4.702
 7963SOL     OW25785   9.744  14.853  13.574
 7963SOL    HW125786   9.834  14.857  13.607
 7963SOL    HW225787   9.749  14.793  13.500
 7964SOL     OW25788   1.073  11.746   1.825
 7964SOL    HW125789   1.038  11.789   1.747
 7964SOL    HW225790   1.026  11.662   1.829
 7965SOL     OW25791   8.274   9.990   4.809
 7965SOL    HW125792   8.334   9.978   4.883
 7965SOL    HW225793   8.284  10.082   4.785
 7966SOL     OW25794  11.135   6.772   9.976
 7966SOL    HW125795  11.042   6.778   9.956
 7966SOL    HW225796  11.177   6.827   9.910
 7967SOL     OW25797   8.448   5.461   9.325
 7967SOL    HW125798   8.429   5.513   9.403
 7967SOL    HW225799   8.519   5.403   9.352
 7968SOL     OW25800  11.362  12.843  12.584
 7968SOL    HW125801  11.442  12.799  12.557
 7968SOL    HW225802  11.316  12.780  12.640
 7969SOL     OW25803   1.851  12.013  11.042
 7969SOL    HW125804   1.860  11.918  11.037
 7969SOL    HW225805   1.873  12.043  10.954
 7970SOL     OW25806  13.244  12.206  12.187
 7970SOL    HW125807  13.211  12.277  12.241
 7970SOL    HW225808  13.199  12.216  12.103
 7971SOL     OW25809  11.408   7.199   8.634
 7971SOL    HW125810  11.429   7.272   8.691
 7971SOL    HW225811  11.316   7.179   8.652
 7972SOL     OW25812   7.735   1.701  11.990
 7972SOL    HW125813   7.772   1.786  11.966
 7972SOL    HW225814   7.798   1.664  12.053
 7973SOL     OW25815   0.083  13.098  12.953
 7973SOL    HW125816   0.121  13.024  13.001
 7973SOL    HW225817   0.096  13.173  13.012
 7974SOL     OW25818  10.581   7.755   2.650
 7974SOL    HW125819  10.630   7.716   2.722
 7974SOL    HW225820  10.503   7.700   2.642
 7975SOL     OW25821  13.320   1.039  11.358
 7975SOL    HW125822  13.255   1.023  11.427
 7975SOL    HW225823  13.302   1.129  11.330
 7976SOL     OW25824  14.598  12.168   7.826
 7976SOL    HW125825  14.527  12.116   7.789
 7976SOL    HW225826  14.583  12.256   7.793
 7977SOL     OW25827  10.136   9.379  12.605
 7977SOL    HW125828  10.176   9.332  12.678
 7977SOL    HW225829  10.136   9.315  12.533
 7978SOL     OW25830   2.453   5.806   9.766
 7978SOL    HW125831   2.390   5.866   9.726
 7978SOL    HW225832   2.442   5.818   9.861
 7979SOL     OW25833  14.613   7.103   5.156
 7979SOL    HW125834  14.703   7.098   5.125
 7979SOL    HW225835  14.568   7.031   5.111
 7980SOL     OW25836   3.062  12.308  11.616
 7980SOL    HW125837   3.114  12.294  11.537
 7980SOL    HW225838   3.114  12.269  11.686
 7981SOL     OW25839   2.804   3.070   7.510
 7981SOL    HW125840   2.760   3.145   7.470
 7981SOL    HW225841   2.864   3.039   7.442
 7982SOL     OW25842  13.021   6.863  11.395
 7982SOL    HW125843  12.965   6.885  11.321
 7982SOL    HW225844  13.098   6.919  11.385
 7983SOL     OW25845  12.462   7.277  10.035
 7983SOL    HW125846  12.408   7.198  10.033
 7983SOL    HW225847  12.403   7.347  10.005
 7984SOL     OW25848  12.493   2.800   2.818
 7984SOL    HW125849  12.438   2.865   2.774
 7984SOL    HW225850  12.583   2.825   2.797
 7985SOL     OW25851   8.227   1.874   2.343
 7985SOL    HW125852   8.229   1.944   2.408
 7985SOL    HW225853   8.229   1.793   2.394
 7986SOL     OW25854  11.804   9.052   4.260
 7986SOL    HW125855  11.817   9.108   4.183
 7986SOL    HW225856  11.851   8.972   4.239
 7987SOL     OW25857   6.036   9.901   4.262
 7987SOL    HW125858   6.010   9.853   4.341
 7987SOL    HW225859   6.038   9.993   4.291
 7988SOL     OW25860   2.135   4.739   7.033
 7988SOL    HW125861   2.109   4.752   7.124
 7988SOL    HW225862   2.158   4.827   7.002
 7989SOL     OW25863   9.539   8.743  12.432
 7989SOL    HW125864   9.632   8.764  12.429
 7989SOL    HW225865   9.528   8.673  12.368
 7990SOL     OW25866  11.912   4.188  12.929
 7990SOL    HW125867  11.949   4.225  12.849
 7990SOL    HW225868  11.877   4.103  12.904
 7991SOL     OW25869   1.526   6.739   2.453
 7991SOL    HW125870   1.517   6.681   2.377
 7991SOL    HW225871   1.596   6.799   2.429
 7992SOL     OW25872   0.275   6.382  12.928
 7992SOL    HW125873   0.348   6.441  12.948
 7992SOL    HW225874   0.197   6.436  12.936
 7993SOL     OW25875   4.945   6.940  14.001
 7993SOL    HW125876   4.998   7.014  14.032
 7993SOL    HW225877   4.961   6.939  13.906
 7994SOL     OW25878   2.058  13.466   7.841
 7994SOL    HW125879   2.096  13.550   7.864
 7994SOL    HW225880   2.112  13.401   7.887
 7995SOL     OW25881   6.356   9.511   7.644
 7995SOL    HW125882   6.354   9.587   7.701
 7995SOL    HW225883   6.449   9.492   7.633
 7996SOL     OW25884   6.269   5.852  14.477
 7996SOL    HW125885   6.180   5.820  14.493
 7996SOL    HW225886   6.261   5.907  14.399
 7997SOL     OW25887   4.897  13.708   9.803
 7997SOL    HW125888   4.918  13.723   9.895
 7997SOL    HW225889   4.827  13.644   9.804
 7998SOL     OW25890  10.691   0.961  11.005
 7998SOL    HW125891  10.700   0.932  11.095
 7998SOL    HW225892  10.780   0.983  10.977
 7999SOL     OW25893   2.036   5.275   6.544
 7999SOL    HW125894   1.974   5.203   6.539
 7999SOL    HW225895   2.104   5.252   6.481
 8000SOL     OW25896  11.535  10.334  11.815
 8000SOL    HW125897  11.629  10.315  11.803
 8000SOL    HW225898  11.524  10.339  11.910
 8001SOL     OW25899   2.169  11.117   4.547
 8001SOL    HW125900   2.173  11.050   4.615
 8001SOL    HW225901   2.133  11.194   4.591
 8002SOL     OW25902   3.812   0.921   3.036
 8002SOL    HW125903   3.861   0.876   2.967
 8002SOL    HW225904   3.872   0.923   3.110
 8003SOL     OW25905   7.103   2.522   2.283
 8003SOL    HW125906   7.052   2.557   2.210
 8003SOL    HW225907   7.056   2.549   2.361
 8004SOL     OW25908  12.700   4.090   1.526
 8004SOL    HW125909  12.719   4.024   1.593
 8004SOL    HW225910  12.783   4.099   1.478
 8005SOL     OW25911  10.389   8.237  11.007
 8005SOL    HW125912  10.433   8.155  10.986
 8005SOL    HW225913  10.414   8.296  10.936
 8006SOL     OW25914   0.549  11.593   1.814
 8006SOL    HW125915   0.576  11.607   1.723
 8006SOL    HW225916   0.454  11.589   1.810
 8007SOL     OW25917  12.128   3.198  10.435
 8007SOL    HW125918  12.086   3.140  10.371
 8007SOL    HW225919  12.098   3.285  10.411
 8008SOL     OW25920   1.597   5.988  11.425
 8008SOL    HW125921   1.554   6.021  11.347
 8008SOL    HW225922   1.528   5.982  11.491
 8009SOL     OW25923  11.966  10.033   9.463
 8009SOL    HW125924  11.977  10.052   9.556
 8009SOL    HW225925  11.969   9.938   9.456
 8010SOL     OW25926   4.177  10.122   0.407
 8010SOL    HW125927   4.179  10.211   0.371
 8010SOL    HW225928   4.242  10.123   0.478
 8011SOL     OW25929   6.412  12.110  14.568
 8011SOL    HW125930   6.476  12.177  14.544
 8011SOL    HW225931   6.331  12.137  14.525
 8012SOL     OW25932  13.735   4.178   1.121
 8012SOL    HW125933  13.818   4.151   1.080
 8012SOL    HW225934  13.753   4.173   1.215
 8013SOL     OW25935   1.938   0.921  11.308
 8013SOL    HW125936   1.991   0.930  11.387
 8013SOL    HW225937   1.945   0.828  11.286
 8014SOL     OW25938  13.794  14.374  10.456
 8014SOL    HW125939  13.858  14.306  10.479
 8014SOL    HW225940  13.817  14.400  10.367
 8015SOL     OW25941   1.258   0.600   1.593
 8015SOL    HW125942   1.274   0.608   1.687
 8015SOL    HW225943   1.185   0.660   1.576
 8016SOL     OW25944  11.200   1.576  10.381
 8016SOL    HW125945  11.246   1.599  10.462
 8016SOL    HW225946  11.112   1.551  10.409
 8017SOL     OW25947   6.405  11.845   3.765
 8017SOL    HW125948   6.493  11.807   3.765
 8017SOL    HW225949   6.404  11.904   3.841
 8018SOL     OW25950   9.391   9.523   8.700
 8018SOL    HW125951   9.455   9.551   8.635
 8018SOL    HW225952   9.306   9.538   8.657
 8019SOL     OW25953   7.723   5.397   6.948
 8019SOL    HW125954   7.641   5.414   6.901
 8019SOL    HW225955   7.705   5.426   7.038
 8020SOL     OW25956  14.435   1.250  12.194
 8020SOL    HW125957  14.421   1.156  12.188
 8020SOL    HW225958  14.401   1.285  12.112
 8021SOL     OW25959   3.486   1.565   2.118
 8021SOL    HW125960   3.427   1.490   2.118
 8021SOL    HW225961   3.437   1.635   2.076
 8022SOL     OW25962  12.699   2.619   2.033
 8022SOL    HW125963  12.745   2.545   1.994
 8022SOL    HW225964  12.640   2.579   2.097
 8023SOL     OW25965   9.228  14.344   5.338
 8023SOL    HW125966   9.302  14.287   5.319
 8023SOL    HW225967   9.191  14.310   5.419
 8024SOL     OW25968   1.630   7.286  14.854
 8024SOL    HW125969   1.712   7.247   0.018
 8024SOL    HW225970   1.657   7.364  14.807
 8025SOL     OW25971  11.600   9.381   1.045
 8025SOL    HW125972  11.631   9.460   1.001
 8025SOL    HW225973  11.562   9.413   1.127
 8026SOL     OW25974  13.252  11.515  10.445
 8026SOL    HW125975  13.262  11.610  10.454
 8026SOL    HW225976  13.203  11.504  10.363
 8027SOL     OW25977   2.178   5.577   8.725
 8027SOL    HW125978   2.160   5.504   8.784
 8027SOL    HW225979   2.176   5.655   8.781
 8028SOL     OW25980  13.374   3.523   5.035
 8028SOL    HW125981  13.406   3.603   4.994
 8028SOL    HW225982  13.449   3.464   5.034
 8029SOL     OW25983   7.591   4.921   2.213
 8029SOL    HW125984   7.509   4.929   2.261
 8029SOL    HW225985   7.609   4.827   2.212
 8030SOL     OW25986   0.780  13.605  11.153
 8030SOL    HW125987   0.749  13.669  11.089
 8030SOL    HW225988   0.707  13.594  11.214
 8031SOL     OW25989  11.491  14.775  12.364
 8031SOL    HW125990  11.453  14.721  12.433
 8031SOL    HW225991  11.533  14.848  12.409
 8032SOL     OW25992   5.574   0.872  12.294
 8032SOL    HW125993   5.620   0.832  12.369
 8032SOL    HW225994   5.481   0.857  12.312
 8033SOL     OW25995   1.441   9.942   1.545
 8033SOL    HW125996   1.384   9.875   1.584
 8033SOL    HW225997   1.396   9.968   1.465
 8034SOL     OW25998  10.921   3.017   4.972
 8034SOL    HW125999  11.010   3.007   5.007
 8034SOL    HW226000  10.934   3.018   4.877
 8035SOL     OW26001   3.912   6.312   9.299
 8035SOL    HW126002   3.836   6.297   9.356
 8035SOL    HW226003   3.975   6.358   9.355
 8036SOL     OW26004   8.390   3.850   2.893
 8036SOL    HW126005   8.417   3.930   2.938
 8036SOL    HW226006   8.301   3.833   2.924
 8037SOL     OW26007   2.780   6.589  13.925
 8037SOL    HW126008   2.847   6.627  13.983
 8037SOL    HW226009   2.820   6.591  13.838
 8038SOL     OW26010  11.681   3.248   3.754
 8038SOL    HW126011  11.737   3.320   3.726
 8038SOL    HW226012  11.677   3.190   3.678
 8039SOL     OW26013   0.191  13.518   9.108
 8039SOL    HW126014   0.268  13.573   9.090
 8039SOL    HW226015   0.129  13.539   9.039
 8040SOL     OW26016   1.390  10.142   4.385
 8040SOL    HW126017   1.401  10.052   4.415
 8040SOL    HW226018   1.356  10.189   4.461
 8041SOL     OW26019  12.321   6.051   3.688
 8041SOL    HW126020  12.331   6.137   3.647
 8041SOL    HW226021  12.227   6.033   3.682
 8042SOL     OW26022  10.113   4.214   8.475
 8042SOL    HW126023  10.054   4.194   8.548
 8042SOL    HW226024  10.099   4.144   8.412
 8043SOL     OW26025   1.799   0.087   2.176
 8043SOL    HW126026   1.832   0.176   2.184
 8043SOL    HW226027   1.878   0.033   2.168
 8044SOL     OW26028   0.909   7.226   7.070
 8044SOL    HW126029   0.875   7.247   7.156
 8044SOL    HW226030   0.969   7.297   7.049
 8045SOL     OW26031  12.646  14.236   5.908
 8045SOL    HW126032  12.663  14.270   5.820
 8045SOL    HW226033  12.732  14.229   5.948
 8046SOL     OW26034   9.575   5.415   3.945
 8046SOL    HW126035   9.657   5.448   3.980
 8046SOL    HW226036   9.508   5.450   4.003
 8047SOL     OW26037   8.727   7.801   9.074
 8047SOL    HW126038   8.683   7.858   9.011
 8047SOL    HW226039   8.811   7.842   9.090
 8048SOL     OW26040   8.060   8.873   5.853
 8048SOL    HW126041   8.066   8.943   5.917
 8048SOL    HW226042   7.979   8.890   5.805
 8049SOL     OW26043   7.538  11.310   9.209
 8049SOL    HW126044   7.581  11.393   9.186
 8049SOL    HW226045   7.540  11.258   9.129
 8050SOL     OW26046   7.173   9.283  14.129
 8050SOL    HW126047   7.194   9.191  14.145
 8050SOL    HW226048   7.209   9.329  14.204
 8051SOL     OW26049  12.708   4.267  11.476
 8051SOL    HW126050  12.746   4.186  11.510
 8051SOL    HW226051  12.662   4.305  11.551
 8052SOL     OW26052  14.396   5.286   2.015
 8052SOL    HW126053  14.353   5.294   1.930
 8052SOL    HW226054  14.337   5.230   2.067
 8053SOL     OW26055  13.545   3.584  11.111
 8053SOL    HW126056  13.524   3.632  11.032
 8053SOL    HW226057  13.639   3.596  11.122
 8054SOL     OW26058   9.164  11.937   1.527
 8054SOL    HW126059   9.158  11.846   1.497
 8054SOL    HW226060   9.091  11.981   1.483
 8055SOL     OW26061   3.521   5.076  12.245
 8055SOL    HW126062   3.496   4.987  12.267
 8055SOL    HW226063   3.617   5.073  12.237
 8056SOL     OW26064   7.567  13.495  13.732
 8056SOL    HW126065   7.564  13.476  13.826
 8056SOL    HW226066   7.516  13.575  13.722
 8057SOL     OW26067   8.612   6.988  14.297
 8057SOL    HW126068   8.595   6.914  14.239
 8057SOL    HW226069   8.525   7.021  14.320
 8058SOL     OW26070   4.210   7.310   1.641
 8058SOL    HW126071   4.300   7.281   1.624
 8058SOL    HW226072   4.196   7.293   1.734
 8059SOL     OW26073  12.904  13.161   7.014
 8059SOL    HW126074  12.955  13.193   7.088
 8059SOL    HW226075  12.854  13.087   7.049
 8060SOL     OW26076   7.501  14.221  10.486
 8060SOL    HW126077   7.479  14.143  10.538
 8060SOL    HW226078   7.536  14.283  10.550
 8061SOL     OW26079   9.567   3.242   5.792
 8061SOL    HW126080   9.649   3.271   5.751
 8061SOL    HW226081   9.528   3.183   5.727
 8062SOL     OW26082   5.424  12.493   7.454
 8062SOL    HW126083   5.468  12.578   7.444
 8062SOL    HW226084   5.496  12.430   7.460
 8063SOL     OW26085   2.261   6.725   0.609
 8063SOL    HW126086   2.276   6.811   0.647
 8063SOL    HW226087   2.264   6.665   0.683
 8064SOL     OW26088   0.170   6.774   3.051
 8064SOL    HW126089   0.198   6.691   3.089
 8064SOL    HW226090   0.141   6.827   3.125
 8065SOL     OW26091  12.961  11.159   2.628
 8065SOL    HW126092  12.920  11.126   2.708
 8065SOL    HW226093  13.049  11.121   2.629
 8066SOL     OW26094   4.056   1.758   4.481
 8066SOL    HW126095   4.038   1.803   4.564
 8066SOL    HW226096   3.973   1.757   4.435
 8067SOL     OW26097  14.643  10.419  10.601
 8067SOL    HW126098  14.550  10.426  10.625
 8067SOL    HW226099  14.685  10.384  10.680
 8068SOL     OW26100   2.901  11.982  12.448
 8068SOL    HW126101   2.926  11.975  12.540
 8068SOL    HW226102   2.835  11.914  12.435
 8069SOL     OW26103   0.484   7.396   4.629
 8069SOL    HW126104   0.521   7.390   4.541
 8069SOL    HW226105   0.474   7.489   4.645
 8070SOL     OW26106   7.066   0.245   5.013
 8070SOL    HW126107   7.079   0.246   5.108
 8070SOL    HW226108   7.092   0.333   4.985
 8071SOL     OW26109  14.546   8.941  14.096
 8071SOL    HW126110  14.574   8.863  14.049
 8071SOL    HW226111  14.543   8.915  14.187
 8072SOL     OW26112  10.067  10.010  10.514
 8072SOL    HW126113  10.090  10.088  10.464
 8072SOL    HW226114  10.117  10.018  10.596
 8073SOL     OW26115   1.309   0.096   9.560
 8073SOL    HW126116   1.377   0.090   9.627
 8073SOL    HW226117   1.357   0.116   9.479
 8074SOL     OW26118   9.129   0.354  11.161
 8074SOL    HW126119   9.132   0.435  11.212
 8074SOL    HW226120   9.098   0.382  11.075
 8075SOL     OW26121  14.369  11.277  12.182
 8075SOL    HW126122  14.283  11.303  12.215
 8075SOL    HW226123  14.350  11.214  12.112
 8076SOL     OW26124  11.048   9.342   7.458
 8076SOL    HW126125  10.958   9.314   7.439
 8076SOL    HW226126  11.078   9.281   7.525
 8077SOL     OW26127  11.237   9.056  14.069
 8077SOL    HW126128  11.287   9.136  14.084
 8077SOL    HW226129  11.296   8.986  14.095
 8078SOL     OW26130   9.862   0.449  12.138
 8078SOL    HW126131   9.919   0.524  12.156
 8078SOL    HW226132   9.819   0.431  12.222
 8079SOL     OW26133   5.707   1.404  14.170
 8079SOL    HW126134   5.646   1.374  14.237
 8079SOL    HW226135   5.767   1.330  14.158
 8080SOL     OW26136  13.272  12.025   5.681
 8080SOL    HW126137  13.319  11.944   5.663
 8080SOL    HW226138  13.206  12.002   5.746
 8081SOL     OW26139  11.930  10.330  14.586
 8081SOL    HW126140  11.929  10.309  14.492
 8081SOL    HW226141  11.976  10.414  14.591
 8082SOL     OW26142   2.328   9.965  13.095
 8082SOL    HW126143   2.367   9.901  13.155
 8082SOL    HW226144   2.402  10.016  13.063
 8083SOL     OW26145   3.696   7.909   5.125
 8083SOL    HW126146   3.672   7.877   5.212
 8083SOL    HW226147   3.756   7.844   5.091
 8084SOL     OW26148   8.663   6.850  11.482
 8084SOL    HW126149   8.746   6.871  11.524
 8084SOL    HW226150   8.665   6.755  11.469
 8085SOL     OW26151  10.417  11.696   2.009
 8085SOL    HW126152  10.399  11.636   1.936
 8085SOL    HW226153  10.367  11.775   1.988
 8086SOL     OW26154  10.600  12.522   6.140
 8086SOL    HW126155  10.587  12.444   6.193
 8086SOL    HW226156  10.528  12.520   6.077
 8087SOL     OW26157  13.721  13.601   8.630
 8087SOL    HW126158  13.714  13.682   8.580
 8087SOL    HW226159  13.668  13.616   8.708
 8088SOL     OW26160  13.184   5.143   4.970
 8088SOL    HW126161  13.187   5.221   5.026
 8088SOL    HW226162  13.091   5.121   4.964
 8089SOL     OW26163   2.135   3.945   2.973
 8089SOL    HW126164   2.214   3.902   3.006
 8089SOL    HW226165   2.125   4.022   3.028
 8090SOL     OW26166  10.253   1.142  11.047
 8090SOL    HW126167  10.252   1.052  11.013
 8090SOL    HW226168  10.201   1.192  10.984
 8091SOL     OW26169   4.833   1.644   5.933
 8091SOL    HW126170   4.764   1.587   5.898
 8091SOL    HW226171   4.845   1.711   5.866
 8092SOL     OW26172   7.815   8.341  10.555
 8092SOL    HW126173   7.788   8.256  10.521
 8092SOL    HW226174   7.887   8.321  10.615
 8093SOL     OW26175   6.242   9.614  10.664
 8093SOL    HW126176   6.227   9.656  10.579
 8093SOL    HW226177   6.232   9.521  10.646
 8094SOL     OW26178  11.245  12.227   3.131
 8094SOL    HW126179  11.162  12.205   3.173
 8094SOL    HW226180  11.309  12.224   3.203
 8095SOL     OW26181   4.431   0.935   9.519
 8095SOL    HW126182   4.501   0.987   9.480
 8095SOL    HW226183   4.392   0.993   9.585
 8096SOL     OW26184   6.090   1.898   3.545
 8096SOL    HW126185   6.130   1.961   3.485
 8096SOL    HW226186   6.160   1.836   3.565
 8097SOL     OW26187   3.168  10.256  11.566
 8097SOL    HW126188   3.133  10.182  11.517
 8097SOL    HW226189   3.125  10.333  11.529
 8098SOL     OW26190   9.151   0.042  10.963
 8098SOL    HW126191   9.166   0.118  11.019
 8098SOL    HW226192   9.180  14.835  11.015
 8099SOL     OW26193  14.016   8.266   3.340
 8099SOL    HW126194  14.109   8.275   3.317
 8099SOL    HW226195  14.016   8.266   3.436
 8100SOL     OW26196  12.991   3.945   4.196
 8100SOL    HW126197  13.048   4.021   4.185
 8100SOL    HW226198  13.049   3.870   4.182
 8101SOL     OW26199   9.175   4.697  12.693
 8101SOL    HW126200   9.123   4.659  12.763
 8101SOL    HW226201   9.126   4.774  12.665
 8102SOL     OW26202   6.420   2.970   6.309
 8102SOL    HW126203   6.505   2.940   6.342
 8102SOL    HW226204   6.358   2.905   6.342
 8103SOL     OW26205  12.667   2.938  12.136
 8103SOL    HW126206  12.738   2.989  12.175
 8103SOL    HW226207  12.689   2.933  12.044
 8104SOL     OW26208   7.737  14.354   1.623
 8104SOL    HW126209   7.731  14.340   1.528
 8104SOL    HW226210   7.650  14.333   1.656
 8105SOL     OW26211   2.159   2.517   7.940
 8105SOL    HW126212   2.229   2.582   7.931
 8105SOL    HW226213   2.119   2.512   7.853
 8106SOL     OW26214   4.945   5.701   6.985
 8106SOL    HW126215   4.954   5.731   7.075
 8106SOL    HW226216   4.869   5.749   6.951
 8107SOL     OW26217   3.284  12.116   2.615
 8107SOL    HW126218   3.292  12.066   2.696
 8107SOL    HW226219   3.190  12.121   2.599
 8108SOL     OW26220   6.731   0.133   0.328
 8108SOL    HW126221   6.700   0.169   0.411
 8108SOL    HW226222   6.680   0.053   0.316
 8109SOL     OW26223   2.568  13.574   3.140
 8109SOL    HW126224   2.595  13.621   3.218
 8109SOL    HW226225   2.620  13.612   3.069
 8110SOL     OW26226   0.557  14.120  10.234
 8110SOL    HW126227   0.650  14.102  10.249
 8110SOL    HW226228   0.555  14.161  10.147
 8111SOL     OW26229  11.205   8.145  13.020
 8111SOL    HW126230  11.145   8.128  13.094
 8111SOL    HW226231  11.245   8.229  13.042
 8112SOL     OW26232   4.706  14.273  12.540
 8112SOL    HW126233   4.740  14.212  12.606
 8112SOL    HW226234   4.627  14.310  12.579
 8113SOL     OW26235   6.819  11.630   1.380
 8113SOL    HW126236   6.883  11.591   1.320
 8113SOL    HW226237   6.747  11.658   1.323
 8114SOL     OW26238  12.826  11.529   2.878
 8114SOL    HW126239  12.832  11.492   2.966
 8114SOL    HW226240  12.915  11.519   2.842
 8115SOL     OW26241  11.508  11.554   3.503
 8115SOL    HW126242  11.582  11.499   3.479
 8115SOL    HW226243  11.537  11.643   3.485
 8116SOL     OW26244  11.274   2.067   8.655
 8116SOL    HW126245  11.318   2.152   8.647
 8116SOL    HW226246  11.335   2.005   8.616
 8117SOL     OW26247  14.398   3.454   4.690
 8117SOL    HW126248  14.468   3.417   4.744
 8117SOL    HW226249  14.401   3.548   4.708
 8118SOL     OW26250  11.244  12.376  13.929
 8118SOL    HW126251  11.289  12.292  13.937
 8118SOL    HW226252  11.175  12.361  13.864
 8119SOL     OW26253  14.449   0.142  11.674
 8119SOL    HW126254  14.443   0.097  11.590
 8119SOL    HW226255  14.365   0.124  11.717
 8120SOL     OW26256  10.747   1.801   6.494
 8120SOL    HW126257  10.812   1.775   6.559
 8120SOL    HW226258  10.663   1.783   6.536
 8121SOL     OW26259   3.457   8.201   3.151
 8121SOL    HW126260   3.452   8.288   3.191
 8121SOL    HW226261   3.533   8.205   3.092
 8122SOL     OW26262   6.431  13.336   7.780
 8122SOL    HW126263   6.420  13.359   7.688
 8122SOL    HW226264   6.477  13.410   7.819
 8123SOL     OW26265   9.528   1.773   7.956
 8123SOL    HW126266   9.593   1.705   7.942
 8123SOL    HW226267   9.479   1.777   7.874
 8124SOL     OW26268   7.824  10.233   8.974
 8124SOL    HW126269   7.819  10.211   9.067
 8124SOL    HW226270   7.751  10.186   8.935
 8125SOL     OW26271  12.468   2.496   1.822
 8125SOL    HW126272  12.415   2.474   1.899
 8125SOL    HW226273  12.404   2.525   1.756
 8126SOL     OW26274  10.165   8.888  11.808
 8126SOL    HW126275  10.211   8.845  11.737
 8126SOL    HW226276  10.213   8.970  11.823
 8127SOL     OW26277   7.107   9.570  12.065
 8127SOL    HW126278   7.123   9.663  12.075
 8127SOL    HW226279   7.077   9.560  11.974
 8128SOL     OW26280   2.810   4.982   7.925
 8128SOL    HW126281   2.832   4.889   7.920
 8128SOL    HW226282   2.762   5.000   7.845
 8129SOL     OW26283   9.185  12.172  12.088
 8129SOL    HW126284   9.157  12.090  12.130
 8129SOL    HW226285   9.111  12.196  12.031
 8130SOL     OW26286  14.086  10.662   0.954
 8130SOL    HW126287  14.154  10.663   1.021
 8130SOL    HW226288  14.029  10.736   0.977
 8131SOL     OW26289   8.445  14.151   1.553
 8131SOL    HW126290   8.372  14.125   1.498
 8131SOL    HW226291   8.488  14.068   1.577
 8132SOL     OW26292   3.107   2.597   6.790
 8132SOL    HW126293   3.179   2.539   6.814
 8132SOL    HW226294   3.098   2.586   6.695
 8133SOL     OW26295   0.895   5.733   5.378
 8133SOL    HW126296   0.845   5.655   5.353
 8133SOL    HW226297   0.867   5.801   5.316
 8134SOL     OW26298  13.538   4.283  13.245
 8134SOL    HW126299  13.526   4.378  13.248
 8134SOL    HW226300  13.479   4.248  13.311
 8135SOL     OW26301  12.290   5.690   5.287
 8135SOL    HW126302  12.251   5.628   5.348
 8135SOL    HW226303  12.343   5.637   5.228
 8136SOL     OW26304  14.507   1.796   4.354
 8136SOL    HW126305  14.547   1.877   4.323
 8136SOL    HW226306  14.546   1.782   4.440
 8137SOL     OW26307   4.753   7.192  12.334
 8137SOL    HW126308   4.672   7.225  12.293
 8137SOL    HW226309   4.773   7.111  12.287
 8138SOL     OW26310   0.647   4.077  10.339
 8138SOL    HW126311   0.714   4.061  10.406
 8138SOL    HW226312   0.665   4.166  10.310
 8139SOL     OW26313   8.293   2.832   4.911
 8139SOL    HW126314   8.289   2.921   4.877
 8139SOL    HW226315   8.377   2.827   4.955
 8140SOL     OW26316  11.261   8.318  14.580
 8140SOL    HW126317  11.316   8.396  14.584
 8140SOL    HW226318  11.307   8.253  14.633
 8141SOL     OW26319   3.062   6.821   2.828
 8141SOL    HW126320   3.091   6.821   2.737
 8141SOL    HW226321   2.968   6.835   2.823
 8142SOL     OW26322   9.442  12.145   4.276
 8142SOL    HW126323   9.535  12.140   4.257
 8142SOL    HW226324   9.408  12.060   4.249
 8143SOL     OW26325  14.844   9.597   9.751
 8143SOL    HW126326  14.829   9.504   9.768
 8143SOL    HW226327  14.853   9.636   9.838
 8144SOL     OW26328   0.167   6.088   3.098
 8144SOL    HW126329   0.183   6.046   3.013
 8144SOL    HW226330   0.073   6.073   3.114
 8145SOL     OW26331  11.977   9.962   3.003
 8145SOL    HW126332  11.919  10.024   3.047
 8145SOL    HW226333  12.045   9.943   3.067
 8146SOL     OW26334   8.970   0.485   9.554
 8146SOL    HW126335   8.898   0.536   9.592
 8146SOL    HW226336   8.998   0.537   9.478
 8147SOL     OW26337   4.889   2.117   3.646
 8147SOL    HW126338   4.927   2.099   3.560
 8147SOL    HW226339   4.947   2.072   3.708
 8148SOL     OW26340   8.628   3.684  14.360
 8148SOL    HW126341   8.547   3.729  14.382
 8148SOL    HW226342   8.610   3.591  14.374
 8149SOL     OW26343   6.713   2.154   4.144
 8149SOL    HW126344   6.684   2.191   4.228
 8149SOL    HW226345   6.685   2.218   4.079
 8150SOL     OW26346   8.616  10.705   8.631
 8150SOL    HW126347   8.558  10.697   8.707
 8150SOL    HW226348   8.684  10.766   8.659
 8151SOL     OW26349   1.601  14.091   8.499
 8151SOL    HW126350   1.601  14.122   8.409
 8151SOL    HW226351   1.660  14.150   8.545
 8152SOL     OW26352   8.783   7.813   7.062
 8152SOL    HW126353   8.725   7.748   7.101
 8152SOL    HW226354   8.794   7.879   7.130
 8153SOL     OW26355  12.572   6.880  13.518
 8153SOL    HW126356  12.630   6.954  13.500
 8153SOL    HW226357  12.573   6.828  13.438
 8154SOL     OW26358   8.790  11.375  14.624
 8154SOL    HW126359   8.727  11.349  14.690
 8154SOL    HW226360   8.859  11.421  14.673
 8155SOL     OW26361   0.687   2.549  11.308
 8155SOL    HW126362   0.756   2.521  11.367
 8155SOL    HW226363   0.654   2.631  11.347
 8156SOL     OW26364  13.215   8.650   0.420
 8156SOL    HW126365  13.265   8.569   0.417
 8156SOL    HW226366  13.148   8.639   0.352
 8157SOL     OW26367   4.954   2.561   2.546
 8157SOL    HW126368   5.033   2.609   2.570
 8157SOL    HW226369   4.953   2.563   2.450
 8158SOL     OW26370   6.356   2.146  14.039
 8158SOL    HW126371   6.331   2.153  13.947
 8158SOL    HW226372   6.308   2.070  14.072
 8159SOL     OW26373   7.816   1.351  13.816
 8159SOL    HW126374   7.842   1.343  13.724
 8159SOL    HW226375   7.721   1.340  13.815
 8160SOL     OW26376   5.381   0.559   0.368
 8160SOL    HW126377   5.369   0.653   0.354
 8160SOL    HW226378   5.470   0.542   0.337
 8161SOL     OW26379  10.940   0.362   3.683
 8161SOL    HW126380  10.887   0.386   3.760
 8161SOL    HW226381  11.030   0.366   3.714
 8162SOL     OW26382   6.166   6.066  10.501
 8162SOL    HW126383   6.247   6.016  10.486
 8162SOL    HW226384   6.108   6.004  10.545
 8163SOL     OW26385   3.473   8.477  10.166
 8163SOL    HW126386   3.426   8.442  10.242
 8163SOL    HW226387   3.415   8.458  10.092
 8164SOL     OW26388  12.676  14.809   1.799
 8164SOL    HW126389  12.639  14.859   1.727
 8164SOL    HW226390  12.600  14.779   1.849
 8165SOL     OW26391   5.703  11.499   0.037
 8165SOL    HW126392   5.777  11.558   0.025
 8165SOL    HW226393   5.638  11.550   0.084
 8166SOL     OW26394   4.813  10.400   8.314
 8166SOL    HW126395   4.890  10.400   8.372
 8166SOL    HW226396   4.845  10.437   8.232
 8167SOL     OW26397  10.608   4.390  14.111
 8167SOL    HW126398  10.624   4.301  14.079
 8167SOL    HW226399  10.519   4.411  14.082
 8168SOL     OW26400  12.706   7.339   8.565
 8168SOL    HW126401  12.658   7.417   8.592
 8168SOL    HW226402  12.656   7.266   8.601
 8169SOL     OW26403   5.238  13.181   6.816
 8169SOL    HW126404   5.172  13.115   6.792
 8169SOL    HW226405   5.197  13.265   6.794
 8170SOL     OW26406  13.521  12.145   1.827
 8170SOL    HW126407  13.580  12.160   1.901
 8170SOL    HW226408  13.525  12.226   1.776
 8171SOL     OW26409   7.794   9.283  10.394
 8171SOL    HW126410   7.830   9.219  10.455
 8171SOL    HW226411   7.736   9.337  10.446
 8172SOL     OW26412   8.912   1.634   6.011
 8172SOL    HW126413   8.864   1.693   5.953
 8172SOL    HW226414   8.988   1.607   5.960
 8173SOL     OW26415  12.312   8.379   3.168
 8173SOL    HW126416  12.389   8.333   3.201
 8173SOL    HW226417  12.345   8.465   3.140
 8174SOL     OW26418  11.367   1.157   4.644
 8174SOL    HW126419  11.297   1.134   4.705
 8174SOL    HW226420  11.447   1.134   4.691
 8175SOL     OW26421   7.997  14.317   9.319
 8175SOL    HW126422   7.944  14.359   9.251
 8175SOL    HW226423   7.950  14.335   9.400
 8176SOL     OW26424   4.178  12.521   0.667
 8176SOL    HW126425   4.206  12.431   0.680
 8176SOL    HW226426   4.254  12.564   0.627
 8177SOL     OW26427  12.144   8.680   5.744
 8177SOL    HW126428  12.108   8.591   5.733
 8177SOL    HW226429  12.207   8.671   5.816
 8178SOL     OW26430   3.125  11.080   3.158
 8178SOL    HW126431   3.149  11.016   3.224
 8178SOL    HW226432   3.050  11.041   3.113
 8179SOL     OW26433   1.648  13.827   9.070
 8179SOL    HW126434   1.619  13.894   9.008
 8179SOL    HW226435   1.576  13.817   9.131
 8180SOL     OW26436   2.174   3.487   1.520
 8180SOL    HW126437   2.093   3.450   1.557
 8180SOL    HW226438   2.157   3.494   1.427
 8181SOL     OW26439   4.383   1.656   7.353
 8181SOL    HW126440   4.362   1.702   7.434
 8181SOL    HW226441   4.473   1.627   7.364
 8182SOL     OW26442   2.637   0.311   5.910
 8182SOL    HW126443   2.548   0.330   5.883
 8182SOL    HW226444   2.631   0.226   5.955
 8183SOL     OW26445   2.431   8.006   8.534
 8183SOL    HW126446   2.477   7.991   8.452
 8183SOL    HW226447   2.356   8.061   8.511
 8184SOL     OW26448   2.726  10.999   1.726
 8184SOL    HW126449   2.821  10.988   1.733
 8184SOL    HW226450   2.714  11.094   1.714
 8185SOL     OW26451   3.414   9.411   0.154
 8185SOL    HW126452   3.505   9.438   0.147
 8185SOL    HW226453   3.387   9.390   0.065
 8186SOL     OW26454  11.045  13.337  14.564
 8186SOL    HW126455  11.071  13.251  14.534
 8186SOL    HW226456  10.956  13.348  14.531
 8187SOL     OW26457  11.344  12.581   0.652
 8187SOL    HW126458  11.337  12.512   0.587
 8187SOL    HW226459  11.370  12.536   0.733
 8188SOL     OW26460   4.744  12.399   8.040
 8188SOL    HW126461   4.755  12.305   8.029
 8188SOL    HW226462   4.725  12.431   7.952
 8189SOL     OW26463  11.427  11.489   0.025
 8189SOL    HW126464  11.360  11.547   0.063
 8189SOL    HW226465  11.456  11.434   0.098
 8190SOL     OW26466   6.668  12.153   6.772
 8190SOL    HW126467   6.640  12.219   6.709
 8190SOL    HW226468   6.610  12.165   6.847
 8191SOL     OW26469   7.231   4.084   2.362
 8191SOL    HW126470   7.242   3.991   2.384
 8191SOL    HW226471   7.150   4.086   2.310
 8192SOL     OW26472   3.363   3.430   3.945
 8192SOL    HW126473   3.445   3.397   3.906
 8192SOL    HW226474   3.334   3.359   4.001
 8193SOL     OW26475   6.535   5.837   6.958
 8193SOL    HW126476   6.487   5.919   6.966
 8193SOL    HW226477   6.513   5.788   7.038
 8194SOL     OW26478   1.832   9.609   5.605
 8194SOL    HW126479   1.913   9.592   5.653
 8194SOL    HW226480   1.817   9.703   5.616
 8195SOL     OW26481   5.173   8.953   3.203
 8195SOL    HW126482   5.108   8.882   3.212
 8195SOL    HW226483   5.211   8.939   3.117
 8196SOL     OW26484   1.075   8.585   5.024
 8196SOL    HW126485   1.090   8.640   4.948
 8196SOL    HW226486   1.163   8.556   5.051
 8197SOL     OW26487  11.077   0.419   4.032
 8197SOL    HW126488  11.047   0.510   4.031
 8197SOL    HW226489  10.996   0.368   4.025
 8198SOL     OW26490   8.540   3.424  14.334
 8198SOL    HW126491   8.492   3.459  14.258
 8198SOL    HW226492   8.473   3.377  14.384
 8199SOL     OW26493  13.528   1.275  11.556
 8199SOL    HW126494  13.603   1.255  11.611
 8199SOL    HW226495  13.542   1.225  11.476
 8200SOL     OW26496  10.482  12.793   4.785
 8200SOL    HW126497  10.414  12.734   4.752
 8200SOL    HW226498  10.555  12.735   4.807
 8201SOL     OW26499   3.053   8.159   5.519
 8201SOL    HW126500   2.983   8.097   5.498
 8201SOL    HW226501   3.134   8.109   5.507
 8202SOL     OW26502   7.780   6.417   2.193
 8202SOL    HW126503   7.740   6.463   2.267
 8202SOL    HW226504   7.832   6.348   2.232
 8203SOL     OW26505   4.990  10.517   4.265
 8203SOL    HW126506   4.920  10.458   4.238
 8203SOL    HW226507   5.037  10.469   4.333
 8204SOL     OW26508  13.654   8.283  11.393
 8204SOL    HW126509  13.570   8.280  11.440
 8204SOL    HW226510  13.637   8.341  11.318
 8205SOL     OW26511  11.836   7.976   4.097
 8205SOL    HW126512  11.882   8.052   4.061
 8205SOL    HW226513  11.785   8.012   4.170
 8206SOL     OW26514   6.626   4.556   1.802
 8206SOL    HW126515   6.716   4.584   1.814
 8206SOL    HW226516   6.606   4.576   1.711
 8207SOL     OW26517  13.879   6.302   6.040
 8207SOL    HW126518  13.799   6.283   6.089
 8207SOL    HW226519  13.895   6.395   6.055
 8208SOL     OW26520   4.228   5.746   3.942
 8208SOL    HW126521   4.184   5.828   3.962
 8208SOL    HW226522   4.222   5.738   3.847
 8209SOL     OW26523  14.469  11.914   9.045
 8209SOL    HW126524  14.460  11.850   9.116
 8209SOL    HW226525  14.507  11.864   8.973
 8210SOL     OW26526   3.831  14.775   9.997
 8210SOL    HW126527   3.771  14.840  10.035
 8210SOL    HW226528   3.851  14.809   9.910
 8211SOL     OW26529   6.814  14.123  11.705
 8211SOL    HW126530   6.754  14.129  11.630
 8211SOL    HW226531   6.871  14.199  11.696
 8212SOL     OW26532   6.618  13.993   3.248
 8212SOL    HW126533   6.613  14.077   3.202
 8212SOL    HW226534   6.711  13.971   3.247
 8213SOL     OW26535  10.209  13.767   0.938
 8213SOL    HW126536  10.148  13.831   0.974
 8213SOL    HW226537  10.246  13.723   1.015
 8214SOL     OW26538  10.333  13.308   6.273
 8214SOL    HW126539  10.396  13.275   6.209
 8214SOL    HW226540  10.384  13.365   6.330
 8215SOL     OW26541   3.768   9.460  13.131
 8215SOL    HW126542   3.839   9.473  13.193
 8215SOL    HW226543   3.734   9.547  13.114
 8216SOL     OW26544   0.088  12.566  12.861
 8216SOL    HW126545   0.019  12.562  12.928
 8216SOL    HW226546   0.045  12.536  12.781
 8217SOL     OW26547   3.222   5.316   5.055
 8217SOL    HW126548   3.304   5.361   5.032
 8217SOL    HW226549   3.195   5.273   4.974
 8218SOL     OW26550   5.595   3.498   3.974
 8218SOL    HW126551   5.671   3.534   4.020
 8218SOL    HW226552   5.614   3.404   3.967
 8219SOL     OW26553  10.887   3.899   7.269
 8219SOL    HW126554  10.939   3.819   7.266
 8219SOL    HW226555  10.876   3.916   7.363
 8220SOL     OW26556   9.279   9.235  11.921
 8220SOL    HW126557   9.358   9.228  11.868
 8220SOL    HW226558   9.244   9.322  11.900
 8221SOL     OW26559   8.920   0.196  10.759
 8221SOL    HW126560   8.924   0.196  10.663
 8221SOL    HW226561   8.880   0.113  10.781
 8222SOL     OW26562   7.095   8.392   5.828
 8222SOL    HW126563   7.146   8.438   5.761
 8222SOL    HW226564   7.035   8.336   5.777
 8223SOL     OW26565  10.565   3.872   3.973
 8223SOL    HW126566  10.641   3.926   3.997
 8223SOL    HW226567  10.490   3.919   4.010
 8224SOL     OW26568   0.164  12.895   8.593
 8224SOL    HW126569   0.226  12.886   8.664
 8224SOL    HW226570   0.218  12.911   8.515
 8225SOL     OW26571   4.472   1.196   5.462
 8225SOL    HW126572   4.522   1.198   5.381
 8225SOL    HW226573   4.516   1.260   5.518
 8226SOL     OW26574   3.443  11.969  11.066
 8226SOL    HW126575   3.465  11.924  10.985
 8226SOL    HW226576   3.479  11.913  11.135
 8227SOL     OW26577  14.000  13.698  10.312
 8227SOL    HW126578  13.921  13.659  10.349
 8227SOL    HW226579  14.060  13.706  10.386
 8228SOL     OW26580   0.503   5.887   5.145
 8228SOL    HW126581   0.528   5.928   5.063
 8228SOL    HW226582   0.557   5.809   5.151
 8229SOL     OW26583  12.854   7.198   3.220
 8229SOL    HW126584  12.906   7.266   3.263
 8229SOL    HW226585  12.862   7.122   3.277
 8230SOL     OW26586   3.458   6.484  11.334
 8230SOL    HW126587   3.492   6.399  11.308
 8230SOL    HW226588   3.457   6.535  11.253
 8231SOL     OW26589   5.094  13.563   6.488
 8231SOL    HW126590   5.065  13.643   6.442
 8231SOL    HW226591   5.161  13.526   6.431
 8232SOL     OW26592   5.804   9.711   6.176
 8232SOL    HW126593   5.877   9.665   6.136
 8232SOL    HW226594   5.739   9.718   6.106
 8233SOL     OW26595   0.138   0.386   6.830
 8233SOL    HW126596   0.105   0.442   6.759
 8233SOL    HW226597   0.168   0.307   6.786
 8234SOL     OW26598  13.554  13.906   2.953
 8234SOL    HW126599  13.516  13.818   2.960
 8234SOL    HW226600  13.527  13.950   3.033
 8235SOL     OW26601   1.156   1.661   0.153
 8235SOL    HW126602   1.186   1.750   0.173
 8235SOL    HW226603   1.205   1.605   0.212
 8236SOL     OW26604  14.538  13.195  11.229
 8236SOL    HW126605  14.534  13.110  11.273
 8236SOL    HW226606  14.613  13.189  11.170
 8237SOL     OW26607   9.675  12.303   2.020
 8237SOL    HW126608   9.761  12.342   2.007
 8237SOL    HW226609   9.656  12.318   2.113
 8238SOL     OW26610   1.864  12.573  12.645
 8238SOL    HW126611   1.951  12.611  12.635
 8238SOL    HW226612   1.820  12.590  12.562
 8239SOL     OW26613  13.750   6.504   8.883
 8239SOL    HW126614  13.803   6.447   8.938
 8239SOL    HW226615  13.661   6.496   8.919
 8240SOL     OW26616  14.315   7.039  10.045
 8240SOL    HW126617  14.278   7.123  10.071
 8240SOL    HW226618  14.399   7.034  10.091
 8241SOL     OW26619   3.071   1.157   6.481
 8241SOL    HW126620   3.079   1.157   6.386
 8241SOL    HW226621   3.039   1.244   6.503
 8242SOL     OW26622   0.469   4.953   4.913
 8242SOL    HW126623   0.537   5.018   4.929
 8242SOL    HW226624   0.517   4.873   4.892
 8243SOL     OW26625   0.885   8.575  11.423
 8243SOL    HW126626   0.865   8.547  11.334
 8243SOL    HW226627   0.968   8.622  11.415
 8244SOL     OW26628   8.406  12.728  10.781
 8244SOL    HW126629   8.339  12.793  10.761
 8244SOL    HW226630   8.437  12.698  10.695
 8245SOL     OW26631  13.589   5.215   2.150
 8245SOL    HW126632  13.547   5.297   2.127
 8245SOL    HW226633  13.670   5.213   2.099
 8246SOL     OW26634  10.001   7.506  13.285
 8246SOL    HW126635  10.018   7.575  13.221
 8246SOL    HW226636   9.980   7.553  13.366
 8247SOL     OW26637   1.546   1.700   7.240
 8247SOL    HW126638   1.609   1.683   7.169
 8247SOL    HW226639   1.576   1.782   7.279
 8248SOL     OW26640   7.307  14.066   4.991
 8248SOL    HW126641   7.234  14.025   5.038
 8248SOL    HW226642   7.294  14.042   4.900
 8249SOL     OW26643   5.481   2.849   7.297
 8249SOL    HW126644   5.499   2.827   7.206
 8249SOL    HW226645   5.557   2.900   7.325
 8250SOL     OW26646  10.034  14.067   7.892
 8250SOL    HW126647  10.061  14.027   7.975
 8250SOL    HW226648  10.029  13.995   7.830
 8251SOL     OW26649  12.254  14.006   9.929
 8251SOL    HW126650  12.335  13.956   9.926
 8251SOL    HW226651  12.211  13.976  10.009
 8252SOL     OW26652   5.925   7.240  12.444
 8252SOL    HW126653   5.992   7.230  12.375
 8252SOL    HW226654   5.885   7.153  12.450
 8253SOL     OW26655  10.983   9.383  14.277
 8253SOL    HW126656  11.023   9.377  14.190
 8253SOL    HW226657  11.048   9.429  14.330
 8254SOL     OW26658   7.818  12.973   3.272
 8254SOL    HW126659   7.792  13.058   3.307
 8254SOL    HW226660   7.748  12.949   3.212
 8255SOL     OW26661   9.825  13.231   9.158
 8255SOL    HW126662   9.755  13.185   9.204
 8255SOL    HW226663   9.850  13.171   9.087
 8256SOL     OW26664   9.268  10.944   1.629
 8256SOL    HW126665   9.177  10.928   1.656
 8256SOL    HW226666   9.298  10.859   1.598
 8257SOL     OW26667   6.993   4.985   6.601
 8257SOL    HW126668   6.899   4.992   6.613
 8257SOL    HW226669   7.003   4.928   6.524
 8258SOL     OW26670   6.303   8.242   1.525
 8258SOL    HW126671   6.220   8.286   1.542
 8258SOL    HW226672   6.280   8.173   1.463
 8259SOL     OW26673  14.746   2.736   1.328
 8259SOL    HW126674  14.711   2.822   1.351
 8259SOL    HW226675  14.787   2.705   1.409
 8260SOL     OW26676   1.262  12.343  12.237
 8260SOL    HW126677   1.280  12.338  12.330
 8260SOL    HW226678   1.343  12.314  12.195
 8261SOL     OW26679   8.049   1.809   1.570
 8261SOL    HW126680   8.005   1.761   1.640
 8261SOL    HW226681   8.074   1.892   1.611
 8262SOL     OW26682  13.853  13.687   9.496
 8262SOL    HW126683  13.872  13.775   9.464
 8262SOL    HW226684  13.804  13.646   9.425
 8263SOL     OW26685  11.280  12.167  14.779
 8263SOL    HW126686  11.223  12.211  14.716
 8263SOL    HW226687  11.219  12.122  14.838
 8264SOL     OW26688   5.185   8.865   2.471
 8264SOL    HW126689   5.201   8.946   2.520
 8264SOL    HW226690   5.104   8.830   2.509
 8265SOL     OW26691   3.719  12.498  10.372
 8265SOL    HW126692   3.772  12.439  10.426
 8265SOL    HW226693   3.631  12.460  10.374
 8266SOL     OW26694   1.868   0.114  12.849
 8266SOL    HW126695   1.832   0.033  12.811
 8266SOL    HW226696   1.792   0.159  12.886
 8267SOL     OW26697   1.107   1.159  14.431
 8267SOL    HW126698   1.124   1.251  14.413
 8267SOL    HW226699   1.083   1.122  14.346
 8268SOL     OW26700  10.981   5.192  13.915
 8268SOL    HW126701  11.011   5.283  13.914
 8268SOL    HW226702  11.035   5.149  13.848
 8269SOL     OW26703   0.814   9.982  12.398
 8269SOL    HW126704   0.769  10.052  12.447
 8269SOL    HW226705   0.743   9.932  12.358
 8270SOL     OW26706   7.801   5.357   1.603
 8270SOL    HW126707   7.844   5.284   1.557
 8270SOL    HW226708   7.732   5.315   1.655
 8271SOL     OW26709   3.769   4.227   9.369
 8271SOL    HW126710   3.780   4.151   9.426
 8271SOL    HW226711   3.855   4.269   9.367
 8272SOL     OW26712   8.199   2.208   7.376
 8272SOL    HW126713   8.152   2.137   7.332
 8272SOL    HW226714   8.232   2.169   7.457
 8273SOL     OW26715   5.208   0.666   9.920
 8273SOL    HW126716   5.159   0.590   9.889
 8273SOL    HW226717   5.151   0.707   9.985
 8274SOL     OW26718   3.526   3.540  12.171
 8274SOL    HW126719   3.513   3.523  12.265
 8274SOL    HW226720   3.556   3.457  12.136
 8275SOL     OW26721   9.271   6.263   0.943
 8275SOL    HW126722   9.324   6.269   1.022
 8275SOL    HW226723   9.193   6.215   0.970
 8276SOL     OW26724   3.985  11.283   6.549
 8276SOL    HW126725   3.956  11.222   6.617
 8276SOL    HW226726   4.070  11.250   6.521
 8277SOL     OW26727   3.028   6.447   4.767
 8277SOL    HW126728   2.960   6.443   4.834
 8277SOL    HW226729   3.000   6.517   4.708
 8278SOL     OW26730   5.858   5.066  10.357
 8278SOL    HW126731   5.810   5.146  10.375
 8278SOL    HW226732   5.795   5.010  10.311
 8279SOL     OW26733   6.408  12.190   5.507
 8279SOL    HW126734   6.475  12.194   5.576
 8279SOL    HW226735   6.351  12.118   5.533
 8280SOL     OW26736   7.622   0.530   5.292
 8280SOL    HW126737   7.536   0.487   5.287
 8280SOL    HW226738   7.602   0.620   5.318
 8281SOL     OW26739   8.468   1.240   3.507
 8281SOL    HW126740   8.407   1.301   3.466
 8281SOL    HW226741   8.551   1.256   3.462
 8282SOL     OW26742  10.843   8.931   2.232
 8282SOL    HW126743  10.855   8.894   2.145
 8282SOL    HW226744  10.844   8.855   2.291
 8283SOL     OW26745  14.055   5.020   5.463
 8283SOL    HW126746  14.065   5.107   5.425
 8283SOL    HW226747  14.041   5.036   5.556
 8284SOL     OW26748  12.116  11.867   0.878
 8284SOL    HW126749  12.205  11.835   0.889
 8284SOL    HW226750  12.065  11.791   0.850
 8285SOL     OW26751   9.070   9.109   5.153
 8285SOL    HW126752   9.056   9.109   5.058
 8285SOL    HW226753   9.152   9.156   5.164
 8286SOL     OW26754  11.723  10.365   5.112
 8286SOL    HW126755  11.690  10.293   5.058
 8286SOL    HW226756  11.801  10.329   5.154
 8287SOL     OW26757   0.168   0.847  13.427
 8287SOL    HW126758   0.139   0.763  13.393
 8287SOL    HW226759   0.099   0.908  13.401
 8288SOL     OW26760  11.421   1.617   9.211
 8288SOL    HW126761  11.434   1.667   9.292
 8288SOL    HW226762  11.326   1.607   9.205
 8289SOL     OW26763   6.122   5.735   4.764
 8289SOL    HW126764   6.070   5.811   4.792
 8289SOL    HW226765   6.061   5.684   4.711
 8290SOL     OW26766   3.788  12.453   9.571
 8290SOL    HW126767   3.733  12.392   9.523
 8290SOL    HW226768   3.731  12.490   9.638
 8291SOL     OW26769   1.051  11.935  13.001
 8291SOL    HW126770   1.131  11.902  12.961
 8291SOL    HW226771   1.052  11.901  13.091
 8292SOL     OW26772   3.569   0.245  13.488
 8292SOL    HW126773   3.587   0.317  13.429
 8292SOL    HW226774   3.481   0.216  13.465
 8293SOL     OW26775   0.705  13.763   5.915
 8293SOL    HW126776   0.717  13.792   6.005
 8293SOL    HW226777   0.704  13.844   5.863
 8294SOL     OW26778   4.684   9.143   2.691
 8294SOL    HW126779   4.684   9.205   2.764
 8294SOL    HW226780   4.600   9.157   2.647
 8295SOL     OW26781   3.562   1.904   4.425
 8295SOL    HW126782   3.521   1.985   4.456
 8295SOL    HW226783   3.489   1.850   4.395
 8296SOL     OW26784   4.344   8.245   3.539
 8296SOL    HW126785   4.437   8.266   3.528
 8296SOL    HW226786   4.334   8.158   3.500
 8297SOL     OW26787   9.697   6.574  10.792
 8297SOL    HW126788   9.705   6.645  10.728
 8297SOL    HW226789   9.625   6.520  10.759
 8298SOL     OW26790  10.802   7.365   1.819
 8298SOL    HW126791  10.843   7.451   1.825
 8298SOL    HW226792  10.837   7.317   1.894
 8299SOL     OW26793  10.044  12.117  11.554
 8299SOL    HW126794   9.970  12.103  11.496
 8299SOL    HW226795  10.121  12.104  11.499
 8300SOL     OW26796   9.040   8.259   6.551
 8300SOL    HW126797   9.061   8.352   6.543
 8300SOL    HW226798   8.964   8.256   6.609
 8301SOL     OW26799   9.853  12.805   4.911
 8301SOL    HW126800   9.829  12.897   4.918
 8301SOL    HW226801   9.849  12.786   4.818
 8302SOL     OW26802   7.982   3.968  12.636
 8302SOL    HW126803   7.999   4.062  12.625
 8302SOL    HW226804   7.918   3.963  12.707
 8303SOL     OW26805   8.784   8.252   1.846
 8303SOL    HW126806   8.724   8.191   1.888
 8303SOL    HW226807   8.738   8.282   1.768
 8304SOL     OW26808  10.788   9.256   7.401
 8304SOL    HW126809  10.759   9.347   7.391
 8304SOL    HW226810  10.756   9.211   7.323
 8305SOL     OW26811   4.746   8.231   5.036
 8305SOL    HW126812   4.668   8.269   4.994
 8305SOL    HW226813   4.719   8.214   5.126
 8306SOL     OW26814  14.713  12.354  11.078
 8306SOL    HW126815  14.657  12.317  11.010
 8306SOL    HW226816  14.721  12.447  11.056
 8307SOL     OW26817   0.431   3.504   4.586
 8307SOL    HW126818   0.341   3.512   4.554
 8307SOL    HW226819   0.485   3.503   4.508
 8308SOL     OW26820  10.648   7.569  11.677
 8308SOL    HW126821  10.630   7.635  11.744
 8308SOL    HW226822  10.695   7.616  11.608
 8309SOL     OW26823   1.020   1.568  13.216
 8309SOL    HW126824   1.022   1.609  13.129
 8309SOL    HW226825   0.970   1.487  13.202
 8310SOL     OW26826   5.115  11.209   1.030
 8310SOL    HW126827   5.120  11.290   1.082
 8310SOL    HW226828   5.192  11.212   0.973
 8311SOL     OW26829   3.499  12.340  10.440
 8311SOL    HW126830   3.406  12.319  10.431
 8311SOL    HW226831   3.531  12.282  10.508
 8312SOL     OW26832   1.307   5.396   7.456
 8312SOL    HW126833   1.257   5.464   7.503
 8312SOL    HW226834   1.329   5.437   7.372
 8313SOL     OW26835   2.374   5.333  12.810
 8313SOL    HW126836   2.468   5.327  12.826
 8313SOL    HW226837   2.340   5.246  12.831
 8314SOL     OW26838   2.667   5.136   7.726
 8314SOL    HW126839   2.647   5.163   7.636
 8314SOL    HW226840   2.588   5.156   7.775
 8315SOL     OW26841  14.663   6.839   1.600
 8315SOL    HW126842  14.755   6.865   1.591
 8315SOL    HW226843  14.656   6.802   1.688
 8316SOL     OW26844   8.474   2.254  13.006
 8316SOL    HW126845   8.516   2.171  13.028
 8316SOL    HW226846   8.480   2.306  13.086
 8317SOL     OW26847   1.159   5.630   9.684
 8317SOL    HW126848   1.108   5.628   9.602
 8317SOL    HW226849   1.196   5.542   9.691
 8318SOL     OW26850   3.544   6.418   7.670
 8318SOL    HW126851   3.458   6.459   7.673
 8318SOL    HW226852   3.605   6.491   7.680
 8319SOL     OW26853   7.416  13.528   2.031
 8319SOL    HW126854   7.325  13.513   2.007
 8319SOL    HW226855   7.424  13.624   2.034
 8320SOL     OW26856  14.865   3.437  12.709
 8320SOL    HW126857   0.000   3.359  12.764
 8320SOL    HW226858   0.083   3.478  12.719
 8321SOL     OW26859   7.335   0.973   2.412
 8321SOL    HW126860   7.403   0.925   2.364
 8321SOL    HW226861   7.346   1.064   2.383
 8322SOL     OW26862   9.744  13.804   5.557
 8322SOL    HW126863   9.831  13.768   5.574
 8322SOL    HW226864   9.713  13.756   5.480
 8323SOL     OW26865   9.616   2.885  10.359
 8323SOL    HW126866   9.661   2.878  10.443
 8323SOL    HW226867   9.678   2.850  10.295
 8324SOL     OW26868   8.213   6.936   4.306
 8324SOL    HW126869   8.243   7.026   4.313
 8324SOL    HW226870   8.287   6.884   4.337
 8325SOL     OW26871  14.193   5.109   6.136
 8325SOL    HW126872  14.100   5.089   6.123
 8325SOL    HW226873  14.235   5.024   6.142
 8326SOL     OW26874   8.881   6.941  10.895
 8326SOL    HW126875   8.866   6.917  10.986
 8326SOL    HW226876   8.930   6.866  10.860
 8327SOL     OW26877   8.055   2.580   9.126
 8327SOL    HW126878   8.130   2.634   9.150
 8327SOL    HW226879   8.088   2.490   9.126
 8328SOL     OW26880  11.225   2.507   2.535
 8328SOL    HW126881  11.186   2.576   2.481
 8328SOL    HW226882  11.317   2.505   2.509
 8329SOL     OW26883  14.683  12.265   9.778
 8329SOL    HW126884  14.651  12.300   9.861
 8329SOL    HW226885  14.705  12.343   9.726
 8330SOL     OW26886   3.898  12.126   1.810
 8330SOL    HW126887   3.974  12.069   1.806
 8330SOL    HW226888   3.823  12.067   1.813
 8331SOL     OW26889   0.140   4.185   5.549
 8331SOL    HW126890   0.048   4.189   5.574
 8331SOL    HW226891   0.144   4.114   5.486
 8332SOL     OW26892   3.574   2.016   7.589
 8332SOL    HW126893   3.483   2.039   7.572
 8332SOL    HW226894   3.603   2.076   7.658
 8333SOL     OW26895  10.577   6.677  10.350
 8333SOL    HW126896  10.657   6.627  10.363
 8333SOL    HW226897  10.552   6.659  10.259
 8334SOL     OW26898   5.504  13.367   8.328
 8334SOL    HW126899   5.417  13.348   8.295
 8334SOL    HW226900   5.490  13.438   8.391
 8335SOL     OW26901   9.393   6.322   1.182
 8335SOL    HW126902   9.333   6.308   1.256
 8335SOL    HW226903   9.412   6.416   1.183
 8336SOL     OW26904  13.418   1.275   5.434
 8336SOL    HW126905  13.512   1.263   5.423
 8336SOL    HW226906  13.409   1.359   5.478
 8337SOL     OW26907  10.915   8.890   6.136
 8337SOL    HW126908  10.891   8.927   6.221
 8337SOL    HW226909  10.967   8.959   6.095
 8338SOL     OW26910  14.412  13.100   9.345
 8338SOL    HW126911  14.497  13.114   9.305
 8338SOL    HW226912  14.349  13.132   9.280
 8339SOL     OW26913   5.057   1.434   4.272
 8339SOL    HW126914   5.122   1.430   4.202
 8339SOL    HW226915   4.975   1.411   4.230
 8340SOL     OW26916   2.615  10.002  11.491
 8340SOL    HW126917   2.634   9.948  11.414
 8340SOL    HW226918   2.699  10.045  11.511
 8341SOL     OW26919   5.286   4.535   3.145
 8341SOL    HW126920   5.340   4.489   3.209
 8341SOL    HW226921   5.213   4.476   3.127
 8342SOL     OW26922   2.338  12.487   6.147
 8342SOL    HW126923   2.414  12.528   6.106
 8342SOL    HW226924   2.362  12.395   6.155
 8343SOL     OW26925  12.093  13.052   8.416
 8343SOL    HW126926  12.150  13.122   8.385
 8343SOL    HW226927  12.004  13.085   8.400
 8344SOL     OW26928  12.322   6.934   9.102
 8344SOL    HW126929  12.394   6.977   9.056
 8344SOL    HW226930  12.243   6.968   9.060
 8345SOL     OW26931   3.099  14.479  13.898
 8345SOL    HW126932   3.143  14.521  13.973
 8345SOL    HW226933   3.101  14.385  13.919
 8346SOL     OW26934   8.943   1.420  11.364
 8346SOL    HW126935   9.032   1.451  11.380
 8346SOL    HW226936   8.904   1.414  11.451
 8347SOL     OW26937   6.878  11.557   9.117
 8347SOL    HW126938   6.826  11.603   9.051
 8347SOL    HW226939   6.815  11.506   9.167
 8348SOL     OW26940   8.633   8.065   0.247
 8348SOL    HW126941   8.673   8.139   0.202
 8348SOL    HW226942   8.578   8.024   0.181
 8349SOL     OW26943   0.142   3.684   5.134
 8349SOL    HW126944   0.237   3.675   5.134
 8349SOL    HW226945   0.110   3.599   5.103
 8350SOL     OW26946   1.914  12.804   9.174
 8350SOL    HW126947   2.007  12.796   9.195
 8350SOL    HW226948   1.873  12.730   9.220
 8351SOL     OW26949   9.704   8.709   9.448
 8351SOL    HW126950   9.718   8.804   9.449
 8351SOL    HW226951   9.751   8.679   9.369
 8352SOL     OW26952   5.685   8.140   7.725
 8352SOL    HW126953   5.695   8.123   7.631
 8352SOL    HW226954   5.701   8.056   7.766
 8353SOL     OW26955  12.848   6.305  12.620
 8353SOL    HW126956  12.895   6.343  12.694
 8353SOL    HW226957  12.820   6.219  12.652
 8354SOL     OW26958  12.624   3.310   5.898
 8354SOL    HW126959  12.639   3.332   5.806
 8354SOL    HW226960  12.534   3.277   5.901
 8355SOL     OW26961   4.756   0.365  10.193
 8355SOL    HW126962   4.725   0.322  10.113
 8355SOL    HW226963   4.799   0.444  10.163
 8356SOL     OW26964   2.353  14.566   7.890
 8356SOL    HW126965   2.332  14.530   7.804
 8356SOL    HW226966   2.448  14.554   7.898
 8357SOL     OW26967  13.016   4.594   2.045
 8357SOL    HW126968  13.038   4.502   2.031
 8357SOL    HW226969  12.985   4.597   2.135
 8358SOL     OW26970   6.418  12.386  10.991
 8358SOL    HW126971   6.465  12.351  11.067
 8358SOL    HW226972   6.334  12.417  11.027
 8359SOL     OW26973   2.060   1.530  14.775
 8359SOL    HW126974   2.154   1.543  14.766
 8359SOL    HW226975   2.047   1.508  14.868
 8360SOL     OW26976  13.417  11.513   5.652
 8360SOL    HW126977  13.486  11.490   5.589
 8360SOL    HW226978  13.446  11.473   5.734
 8361SOL     OW26979   6.991   2.303   4.688
 8361SOL    HW126980   7.059   2.369   4.699
 8361SOL    HW226981   6.944   2.328   4.609
 8362SOL     OW26982   6.719   5.334   4.218
 8362SOL    HW126983   6.780   5.404   4.197
 8362SOL    HW226984   6.632   5.372   4.205
 8363SOL     OW26985   4.929  11.604   9.683
 8363SOL    HW126986   4.939  11.687   9.731
 8363SOL    HW226987   4.922  11.630   9.591
 8364SOL     OW26988   7.530  10.870  13.519
 8364SOL    HW126989   7.465  10.800  13.529
 8364SOL    HW226990   7.568  10.855  13.433
 8365SOL     OW26991   0.561   0.013   8.240
 8365SOL    HW126992   0.516   0.065   8.307
 8365SOL    HW226993   0.574  14.795   8.281
 8366SOL     OW26994  12.003   3.537   8.907
 8366SOL    HW126995  11.973   3.472   8.843
 8366SOL    HW226996  11.923   3.571   8.946
 8367SOL     OW26997   7.159   5.228  13.630
 8367SOL    HW126998   7.068   5.229  13.600
 8367SOL    HW226999   7.208   5.266  13.558
 8368SOL     OW27000   3.755   2.513   4.951
 8368SOL    HW127001   3.846   2.530   4.928
 8368SOL    HW227002   3.748   2.417   4.951
 8369SOL     OW27003   4.544   2.713   7.372
 8369SOL    HW127004   4.568   2.648   7.306
 8369SOL    HW227005   4.596   2.790   7.348
 8370SOL     OW27006  14.154   6.923   3.344
 8370SOL    HW127007  14.146   6.994   3.409
 8370SOL    HW227008  14.149   6.843   3.396
 8371SOL     OW27009  10.067  11.426  10.477
 8371SOL    HW127010  10.028  11.342  10.452
 8371SOL    HW227011  10.153  11.425  10.436
 8372SOL     OW27012   7.185   8.444  13.097
 8372SOL    HW127013   7.221   8.446  13.008
 8372SOL    HW227014   7.095   8.413  13.086
 8373SOL     OW27015   2.965  13.863   3.677
 8373SOL    HW127016   2.957  13.897   3.588
 8373SOL    HW227017   3.025  13.789   3.669
 8374SOL     OW27018   3.061  10.363   2.817
 8374SOL    HW127019   3.010  10.283   2.798
 8374SOL    HW227020   3.150  10.340   2.791
 8375SOL     OW27021   2.675   1.088   5.054
 8375SOL    HW127022   2.754   1.035   5.048
 8375SOL    HW227023   2.617   1.038   5.111
 8376SOL     OW27024   4.714   2.880   8.017
 8376SOL    HW127025   4.728   2.884   8.111
 8376SOL    HW227026   4.769   2.950   7.982
 8377SOL     OW27027  10.963   8.088   1.877
 8377SOL    HW127028  11.027   8.151   1.844
 8377SOL    HW227029  10.879   8.119   1.843
 8378SOL     OW27030   8.519   4.769   4.334
 8378SOL    HW127031   8.590   4.787   4.396
 8378SOL    HW227032   8.451   4.727   4.385
 8379SOL     OW27033   0.892   6.968   9.779
 8379SOL    HW127034   0.927   6.891   9.734
 8379SOL    HW227035   0.963   7.031   9.775
 8380SOL     OW27036   7.243   7.399   4.148
 8380SOL    HW127037   7.309   7.376   4.082
 8380SOL    HW227038   7.211   7.315   4.180
 8381SOL     OW27039   9.974   3.089   9.931
 8381SOL    HW127040   9.886   3.096   9.895
 8381SOL    HW227041   9.994   3.175   9.966
 8382SOL     OW27042   0.528  14.235   9.977
 8382SOL    HW127043   0.448  14.250   9.926
 8382SOL    HW227044   0.599  14.263   9.920
 8383SOL     OW27045   1.524  10.078  10.095
 8383SOL    HW127046   1.467  10.036  10.031
 8383SOL    HW227047   1.603  10.024  10.095
 8384SOL     OW27048   6.190   0.573   3.581
 8384SOL    HW127049   6.263   0.620   3.622
 8384SOL    HW227050   6.192   0.601   3.489
 8385SOL     OW27051  14.532  11.179  13.770
 8385SOL    HW127052  14.468  11.247  13.791
 8385SOL    HW227053  14.485  11.097  13.785
 8386SOL     OW27054   2.649   0.348  12.602
 8386SOL    HW127055   2.608   0.296  12.671
 8386SOL    HW227056   2.690   0.421  12.649
 8387SOL     OW27057   5.612   8.072   1.772
 8387SOL    HW127058   5.617   7.980   1.744
 8387SOL    HW227059   5.519   8.087   1.787
 8388SOL     OW27060   9.517  11.750   2.800
 8388SOL    HW127061   9.574  11.692   2.850
 8388SOL    HW227062   9.574  11.787   2.733
 8389SOL     OW27063  13.899   2.421   1.942
 8389SOL    HW127064  13.902   2.395   2.034
 8389SOL    HW227065  13.814   2.389   1.911
 8390SOL     OW27066   9.733   4.514   0.452
 8390SOL    HW127067   9.747   4.550   0.540
 8390SOL    HW227068   9.817   4.523   0.408
 8391SOL     OW27069  14.742   6.531  13.592
 8391SOL    HW127070  14.739   6.501  13.683
 8391SOL    HW227071  14.677   6.601  13.587
 8392SOL     OW27072   4.425  12.937   0.618
 8392SOL    HW127073   4.437  12.842   0.617
 8392SOL    HW227074   4.351  12.951   0.677
 8393SOL     OW27075   0.602   2.632   8.730
 8393SOL    HW127076   0.527   2.659   8.783
 8393SOL    HW227077   0.593   2.537   8.723
 8394SOL     OW27078  14.565   5.243   3.692
 8394SOL    HW127079  14.584   5.172   3.754
 8394SOL    HW227080  14.597   5.321   3.736
 8395SOL     OW27081   3.033   6.242  13.590
 8395SOL    HW127082   3.062   6.151  13.578
 8395SOL    HW227083   3.076   6.289  13.519
 8396SOL     OW27084   0.743  12.184   0.868
 8396SOL    HW127085   0.822  12.193   0.815
 8396SOL    HW227086   0.715  12.094   0.854
 8397SOL     OW27087  13.306   5.102   3.659
 8397SOL    HW127088  13.249   5.102   3.582
 8397SOL    HW227089  13.279   5.026   3.710
 8398SOL     OW27090   3.339  11.684   2.902
 8398SOL    HW127091   3.244  11.674   2.911
 8398SOL    HW227092   3.375  11.626   2.969
 8399SOL     OW27093   3.253   8.545   8.405
 8399SOL    HW127094   3.207   8.597   8.339
 8399SOL    HW227095   3.313   8.490   8.355
 8400SOL     OW27096   0.772   1.884   0.730
 8400SOL    HW127097   0.759   1.803   0.780
 8400SOL    HW227098   0.683   1.913   0.708
 8401SOL     OW27099  11.491   3.192  11.032
 8401SOL    HW127100  11.541   3.166  11.109
 8401SOL    HW227101  11.495   3.288  11.032
 8402SOL     OW27102  11.105  13.281   7.057
 8402SOL    HW127103  11.041  13.221   7.018
 8402SOL    HW227104  11.185  13.229   7.062
 8403SOL     OW27105  12.612   1.167   7.732
 8403SOL    HW127106  12.567   1.222   7.668
 8403SOL    HW227107  12.541   1.118   7.775
 8404SOL     OW27108  12.427  10.530  14.223
 8404SOL    HW127109  12.514  10.516  14.185
 8404SOL    HW227110  12.384  10.591  14.162
 8405SOL     OW27111   9.761   8.288   9.270
 8405SOL    HW127112   9.792   8.202   9.241
 8405SOL    HW227113   9.721   8.272   9.356
 8406SOL     OW27114  12.396   9.843   8.296
 8406SOL    HW127115  12.304   9.817   8.295
 8406SOL    HW227116  12.444   9.761   8.310
 8407SOL     OW27117   4.066  13.273   6.060
 8407SOL    HW127118   3.985  13.259   6.109
 8407SOL    HW227119   4.097  13.359   6.089
 8408SOL     OW27120   9.429   8.580   5.758
 8408SOL    HW127121   9.362   8.640   5.725
 8408SOL    HW227122   9.428   8.593   5.853
 8409SOL     OW27123   3.945  11.392   1.769
 8409SOL    HW127124   3.984  11.427   1.689
 8409SOL    HW227125   3.879  11.330   1.738
 8410SOL     OW27126   4.299  11.613   1.112
 8410SOL    HW127127   4.346  11.692   1.140
 8410SOL    HW227128   4.316  11.549   1.181
 8411SOL     OW27129   9.860   9.877   7.456
 8411SOL    HW127130   9.863   9.957   7.508
 8411SOL    HW227131   9.826   9.906   7.371
 8412SOL     OW27132   7.875  13.856   9.067
 8412SOL    HW127133   7.948  13.879   9.010
 8412SOL    HW227134   7.896  13.899   9.150
 8413SOL     OW27135  11.992   8.695   1.267
 8413SOL    HW127136  12.049   8.619   1.268
 8413SOL    HW227137  12.051   8.770   1.276
 8414SOL     OW27138  11.974  12.410   2.305
 8414SOL    HW127139  11.893  12.460   2.308
 8414SOL    HW227140  12.036  12.467   2.260
 8415SOL     OW27141   6.791   6.350   7.867
 8415SOL    HW127142   6.786   6.269   7.816
 8415SOL    HW227143   6.717   6.345   7.927
 8416SOL     OW27144   6.292   6.482  11.607
 8416SOL    HW127145   6.303   6.414  11.673
 8416SOL    HW227146   6.381   6.513  11.589
 8417SOL     OW27147  14.153  14.558   4.389
 8417SOL    HW127148  14.242  14.548   4.424
 8417SOL    HW227149  14.166  14.599   4.304
 8418SOL     OW27150   9.040   0.067   5.948
 8418SOL    HW127151   9.040   0.105   5.860
 8418SOL    HW227152   8.949   0.072   5.976
 8419SOL     OW27153   2.480  12.026   0.655
 8419SOL    HW127154   2.443  12.067   0.577
 8419SOL    HW227155   2.572  12.054   0.656
 8420SOL     OW27156   5.197   5.878  14.295
 8420SOL    HW127157   5.171   5.958  14.341
 8420SOL    HW227158   5.115   5.839  14.266
 8421SOL     OW27159   6.942  12.588   5.495
 8421SOL    HW127160   6.880  12.541   5.439
 8421SOL    HW227161   7.005  12.521   5.522
 8422SOL     OW27162  13.665  12.039   7.910
 8422SOL    HW127163  13.747  12.041   7.960
 8422SOL    HW227164  13.598  12.064   7.972
 8423SOL     OW27165   2.221  13.919   0.873
 8423SOL    HW127166   2.131  13.923   0.906
 8423SOL    HW227167   2.213  13.873   0.789
 8424SOL     OW27168   6.667   6.581  13.582
 8424SOL    HW127169   6.757   6.554  13.565
 8424SOL    HW227170   6.660   6.582  13.677
 8425SOL     OW27171   9.116   9.252   9.988
 8425SOL    HW127172   9.183   9.196  10.028
 8425SOL    HW227173   9.044   9.192   9.968
 8426SOL     OW27174   8.089   2.898   5.861
 8426SOL    HW127175   8.059   2.985   5.885
 8426SOL    HW227176   8.181   2.910   5.835
 8427SOL     OW27177  14.238  12.821   0.527
 8427SOL    HW127178  14.158  12.830   0.474
 8427SOL    HW227179  14.309  12.820   0.463
 8428SOL     OW27180  12.621  11.151  12.325
 8428SOL    HW127181  12.531  11.181  12.312
 8428SOL    HW227182  12.612  11.058  12.347
 8429SOL     OW27183   7.103  12.801  13.620
 8429SOL    HW127184   7.162  12.816  13.694
 8429SOL    HW227185   7.016  12.818  13.654
 8430SOL     OW27186   7.719  10.888   8.066
 8430SOL    HW127187   7.794  10.905   8.123
 8430SOL    HW227188   7.707  10.793   8.070
 8431SOL     OW27189   6.512   6.097  14.118
 8431SOL    HW127190   6.524   6.086  14.024
 8431SOL    HW227191   6.440   6.037  14.140
 8432SOL     OW27192  10.810  10.111   9.489
 8432SOL    HW127193  10.793  10.098   9.583
 8432SOL    HW227194  10.751  10.182   9.464
 8433SOL     OW27195   9.866   2.482   9.632
 8433SOL    HW127196   9.778   2.491   9.594
 8433SOL    HW227197   9.877   2.559   9.687
 8434SOL     OW27198   7.699   7.134  13.636
 8434SOL    HW127199   7.774   7.075  13.644
 8434SOL    HW227200   7.645   7.115  13.712
 8435SOL     OW27201   1.296   3.343   3.776
 8435SOL    HW127202   1.276   3.400   3.850
 8435SOL    HW227203   1.337   3.400   3.711
 8436SOL     OW27204  11.299   2.085   7.354
 8436SOL    HW127205  11.236   2.141   7.400
 8436SOL    HW227206  11.271   2.087   7.262
 8437SOL     OW27207   3.475   3.950   8.078
 8437SOL    HW127208   3.513   3.982   8.160
 8437SOL    HW227209   3.413   3.883   8.105
 8438SOL     OW27210   5.469   0.490   1.964
 8438SOL    HW127211   5.432   0.578   1.960
 8438SOL    HW227212   5.410   0.437   1.911
 8439SOL     OW27213   5.049   1.297  10.251
 8439SOL    HW127214   5.103   1.249  10.314
 8439SOL    HW227215   5.112   1.343  10.195
 8440SOL     OW27216   6.222   0.930  13.420
 8440SOL    HW127217   6.215   0.935  13.325
 8440SOL    HW227218   6.153   0.988  13.452
 8441SOL     OW27219   7.105  10.311  12.266
 8441SOL    HW127220   7.103  10.226  12.221
 8441SOL    HW227221   7.088  10.290  12.358
 8442SOL     OW27222   2.759   1.585   5.334
 8442SOL    HW127223   2.830   1.521   5.333
 8442SOL    HW227224   2.682   1.535   5.361
 8443SOL     OW27225  11.433   1.171   5.613
 8443SOL    HW127226  11.443   1.234   5.541
 8443SOL    HW227227  11.521   1.161   5.649
 8444SOL     OW27228  11.763   4.927   9.340
 8444SOL    HW127229  11.845   4.956   9.300
 8444SOL    HW227230  11.697   4.935   9.271
 8445SOL     OW27231   6.225   1.958   7.867
 8445SOL    HW127232   6.235   2.003   7.951
 8445SOL    HW227233   6.270   2.014   7.804
 8446SOL     OW27234   9.958   9.059  11.362
 8446SOL    HW127235  10.025   9.108  11.410
 8446SOL    HW227236   9.908   9.015  11.430
 8447SOL     OW27237   7.673   8.391   7.035
 8447SOL    HW127238   7.726   8.330   6.984
 8447SOL    HW227239   7.599   8.412   6.977
 8448SOL     OW27240   0.220   2.914   6.064
 8448SOL    HW127241   0.295   2.948   6.113
 8448SOL    HW227242   0.212   2.823   6.093
 8449SOL     OW27243   0.082   8.593  10.081
 8449SOL    HW127244   0.069   8.611  10.174
 8449SOL    HW227245   0.134   8.667  10.049
 8450SOL     OW27246   3.768   2.217   6.877
 8450SOL    HW127247   3.781   2.281   6.807
 8450SOL    HW227248   3.806   2.258   6.954
 8451SOL     OW27249   3.974   9.661   8.116
 8451SOL    HW127250   4.027   9.588   8.083
 8451SOL    HW227251   4.013   9.738   8.074
 8452SOL     OW27252  11.939   9.454   7.667
 8452SOL    HW127253  11.845   9.472   7.673
 8452SOL    HW227254  11.944   9.364   7.636
 8453SOL     OW27255  10.920   8.402   2.562
 8453SOL    HW127256  10.956   8.394   2.650
 8453SOL    HW227257  10.831   8.367   2.569
 8454SOL     OW27258   4.841  14.223   2.119
 8454SOL    HW127259   4.750  14.242   2.142
 8454SOL    HW227260   4.883  14.309   2.117
 8455SOL     OW27261   9.940   5.784   3.610
 8455SOL    HW127262   9.906   5.855   3.665
 8455SOL    HW227263   9.863   5.751   3.563
 8456SOL     OW27264   6.288  14.028   2.428
 8456SOL    HW127265   6.362  13.967   2.431
 8456SOL    HW227266   6.329  14.114   2.424
 8457SOL     OW27267  13.126   6.130   3.005
 8457SOL    HW127268  13.114   6.193   3.076
 8457SOL    HW227269  13.214   6.148   2.973
 8458SOL     OW27270  13.343  10.522   0.463
 8458SOL    HW127271  13.400  10.543   0.390
 8458SOL    HW227272  13.391  10.552   0.541
 8459SOL     OW27273   9.945   5.707   5.589
 8459SOL    HW127274   9.894   5.719   5.509
 8459SOL    HW227275  10.012   5.643   5.566
 8460SOL     OW27276   7.637   9.660  11.268
 8460SOL    HW127277   7.667   9.747  11.240
 8460SOL    HW227278   7.585   9.628  11.195
 8461SOL     OW27279  13.667   1.044   6.750
 8461SOL    HW127280  13.730   1.104   6.708
 8461SOL    HW227281  13.715   0.962   6.758
 8462SOL     OW27282  11.528   9.352   6.946
 8462SOL    HW127283  11.468   9.286   6.981
 8462SOL    HW227284  11.494   9.370   6.858
 8463SOL     OW27285   7.313  11.763   9.227
 8463SOL    HW127286   7.388  11.713   9.195
 8463SOL    HW227287   7.244  11.748   9.162
 8464SOL     OW27288   6.931   0.372  11.989
 8464SOL    HW127289   6.945   0.306  12.056
 8464SOL    HW227290   6.944   0.326  11.906
 8465SOL     OW27291   6.002   9.977   7.922
 8465SOL    HW127292   6.082  10.018   7.890
 8465SOL    HW227293   5.980  10.025   8.002
 8466SOL     OW27294   1.852   1.443   5.511
 8466SOL    HW127295   1.859   1.355   5.473
 8466SOL    HW227296   1.930   1.452   5.565
 8467SOL     OW27297  14.826  13.977   8.604
 8467SOL    HW127298  14.844  14.032   8.528
 8467SOL    HW227299  14.848  14.032   8.679
 8468SOL     OW27300   4.936   7.892  12.373
 8468SOL    HW127301   4.967   7.890  12.463
 8468SOL    HW227302   4.917   7.984  12.355
 8469SOL     OW27303   4.973   2.637   9.943
 8469SOL    HW127304   5.068   2.632   9.941
 8469SOL    HW227305   4.946   2.577  10.012
 8470SOL     OW27306   8.823  12.990   4.421
 8470SOL    HW127307   8.811  12.916   4.480
 8470SOL    HW227308   8.817  12.952   4.333
 8471SOL     OW27309   7.565   7.532  12.906
 8471SOL    HW127310   7.568   7.617  12.951
 8471SOL    HW227311   7.503   7.480  12.957
 8472SOL     OW27312   1.332  12.847  12.800
 8472SOL    HW127313   1.270  12.850  12.728
 8472SOL    HW227314   1.322  12.931  12.845
 8473SOL     OW27315   3.371   9.768  10.204
 8473SOL    HW127316   3.310   9.707  10.245
 8473SOL    HW227317   3.344   9.771  10.112
 8474SOL     OW27318   7.514   9.000  14.866
 8474SOL    HW127319   7.551   8.919   0.034
 8474SOL    HW227320   7.576   9.068   0.025
 8475SOL     OW27321   6.957   3.262   1.603
 8475SOL    HW127322   6.904   3.267   1.524
 8475SOL    HW227323   6.921   3.188   1.652
 8476SOL     OW27324   2.416   4.104  10.041
 8476SOL    HW127325   2.405   4.013  10.011
 8476SOL    HW227326   2.511   4.114  10.051
 8477SOL     OW27327   2.268   6.669   4.413
 8477SOL    HW127328   2.274   6.752   4.461
 8477SOL    HW227329   2.316   6.684   4.332
 8478SOL     OW27330  10.472   2.968   5.737
 8478SOL    HW127331  10.390   2.925   5.763
 8478SOL    HW227332  10.534   2.896   5.725
 8479SOL     OW27333   4.863   9.267  11.866
 8479SOL    HW127334   4.892   9.358  11.873
 8479SOL    HW227335   4.924   9.228  11.804
 8480SOL     OW27336   1.355   5.831   9.609
 8480SOL    HW127337   1.398   5.872   9.683
 8480SOL    HW227338   1.286   5.777   9.648
 8481SOL     OW27339  11.136   0.202   6.252
 8481SOL    HW127340  11.228   0.202   6.279
 8481SOL    HW227341  11.123   0.287   6.210
 8482SOL     OW27342  13.145   9.413   1.487
 8482SOL    HW127343  13.202   9.484   1.517
 8482SOL    HW227344  13.080   9.457   1.432
 8483SOL     OW27345   2.721   5.255   5.894
 8483SOL    HW127346   2.745   5.163   5.880
 8483SOL    HW227347   2.800   5.304   5.870
 8484SOL     OW27348   8.059   7.434   7.149
 8484SOL    HW127349   7.964   7.431   7.137
 8484SOL    HW227350   8.093   7.462   7.064
 8485SOL     OW27351  13.090   6.120  10.039
 8485SOL    HW127352  13.135   6.147  10.118
 8485SOL    HW227353  13.006   6.165  10.042
 8486SOL     OW27354   9.779   6.388   6.585
 8486SOL    HW127355   9.697   6.344   6.609
 8486SOL    HW227356   9.848   6.325   6.606
 8487SOL     OW27357   6.522   4.683   4.170
 8487SOL    HW127358   6.604   4.683   4.122
 8487SOL    HW227359   6.460   4.639   4.112
 8488SOL     OW27360  10.696  14.831   9.258
 8488SOL    HW127361  10.725  14.857   9.345
 8488SOL    HW227362  10.636  14.758   9.273
 8489SOL     OW27363   4.478   9.582   4.804
 8489SOL    HW127364   4.554   9.525   4.819
 8489SOL    HW227365   4.459   9.572   4.710
 8490SOL     OW27366   1.958   1.443   3.910
 8490SOL    HW127367   2.007   1.504   3.966
 8490SOL    HW227368   1.952   1.363   3.961
 8491SOL     OW27369   5.065   7.520   1.536
 8491SOL    HW127370   5.004   7.459   1.578
 8491SOL    HW227371   5.129   7.463   1.492
 8492SOL     OW27372   6.612   2.795   2.964
 8492SOL    HW127373   6.579   2.724   2.910
 8492SOL    HW227374   6.696   2.763   2.998
 8493SOL     OW27375  10.095   3.763   8.656
 8493SOL    HW127376  10.009   3.781   8.619
 8493SOL    HW227377  10.156   3.777   8.583
 8494SOL     OW27378   0.965   5.860   2.724
 8494SOL    HW127379   0.973   5.851   2.819
 8494SOL    HW227380   1.030   5.925   2.700
 8495SOL     OW27381   5.293   4.542   3.697
 8495SOL    HW127382   5.370   4.508   3.650
 8495SOL    HW227383   5.250   4.464   3.732
 8496SOL     OW27384  13.660  10.985   8.383
 8496SOL    HW127385  13.699  10.987   8.470
 8496SOL    HW227386  13.716  11.041   8.330
 8497SOL     OW27387  10.806  13.029  13.072
 8497SOL    HW127388  10.763  12.944  13.079
 8497SOL    HW227389  10.899  13.009  13.080
 8498SOL     OW27390   2.191   1.159   0.049
 8498SOL    HW127391   2.162   1.150  14.827
 8498SOL    HW227392   2.114   1.141   0.102
 8499SOL     OW27393   0.442   3.838  14.310
 8499SOL    HW127394   0.432   3.930  14.335
 8499SOL    HW227395   0.353   3.804  14.303
 8500SOL     OW27396  10.685   6.889  11.283
 8500SOL    HW127397  10.772   6.894  11.322
 8500SOL    HW227398  10.660   6.979  11.265
 8501SOL     OW27399   5.021  11.739   8.887
 8501SOL    HW127400   5.085  11.775   8.947
 8501SOL    HW227401   5.069  11.674   8.835
 8502SOL     OW27402   0.239  11.058   4.859
 8502SOL    HW127403   0.280  11.117   4.921
 8502SOL    HW227404   0.279  11.080   4.775
 8503SOL     OW27405  10.910   2.594   0.615
 8503SOL    HW127406  10.975   2.587   0.545
 8503SOL    HW227407  10.918   2.511   0.662
 8504SOL     OW27408   7.951   1.854   6.653
 8504SOL    HW127409   8.042   1.858   6.682
 8504SOL    HW227410   7.956   1.854   6.557
 8505SOL     OW27411   4.002  11.109  11.552
 8505SOL    HW127412   4.052  11.028  11.549
 8505SOL    HW227413   4.011  11.140  11.642
 8506SOL     OW27414   8.776  11.384  13.613
 8506SOL    HW127415   8.708  11.318  13.599
 8506SOL    HW227416   8.848  11.337  13.653
 8507SOL     OW27417   0.894   8.101  10.480
 8507SOL    HW127418   0.898   8.045  10.402
 8507SOL    HW227419   0.931   8.184  10.451
 8508SOL     OW27420  11.970  10.391   7.469
 8508SOL    HW127421  11.998  10.443   7.545
 8508SOL    HW227422  12.018  10.309   7.477
 8509SOL     OW27423   1.440   7.582   4.778
 8509SOL    HW127424   1.498   7.654   4.803
 8509SOL    HW227425   1.483   7.542   4.703
 8510SOL     OW27426  13.813   7.715   5.703
 8510SOL    HW127427  13.743   7.746   5.645
 8510SOL    HW227428  13.805   7.620   5.703
 8511SOL     OW27429   6.944  12.039  13.802
 8511SOL    HW127430   6.961  11.949  13.829
 8511SOL    HW227431   7.026  12.069  13.763
 8512SOL     OW27432   5.124   4.641  11.359
 8512SOL    HW127433   5.143   4.556  11.318
 8512SOL    HW227434   5.040   4.628  11.402
 8513SOL     OW27435   6.148   0.877  12.838
 8513SOL    HW127436   6.242   0.896  12.847
 8513SOL    HW227437   6.114   0.947  12.783
 8514SOL     OW27438  13.342  10.044  12.040
 8514SOL    HW127439  13.384   9.969  11.997
 8514SOL    HW227440  13.294  10.088  11.970
 8515SOL     OW27441  14.575   4.219   4.036
 8515SOL    HW127442  14.572   4.249   3.945
 8515SOL    HW227443  14.518   4.142   4.037
 8516SOL     OW27444   6.260  11.226  11.666
 8516SOL    HW127445   6.181  11.278  11.677
 8516SOL    HW227446   6.245  11.148  11.719
 8517SOL     OW27447   9.624   1.003   7.163
 8517SOL    HW127448   9.531   0.984   7.172
 8517SOL    HW227449   9.659   0.930   7.112
 8518SOL     OW27450  10.991  12.600   6.847
 8518SOL    HW127451  10.994  12.517   6.799
 8518SOL    HW227452  11.070  12.598   6.902
 8519SOL     OW27453   4.077   6.390   9.519
 8519SOL    HW127454   4.008   6.402   9.584
 8519SOL    HW227455   4.153   6.362   9.569
 8520SOL     OW27456   9.857   7.890   1.999
 8520SOL    HW127457   9.833   7.797   1.990
 8520SOL    HW227458   9.855   7.923   1.910
 8521SOL     OW27459   3.488  12.286   9.590
 8521SOL    HW127460   3.416  12.273   9.652
 8521SOL    HW227461   3.496  12.381   9.581
 8522SOL     OW27462   8.954   4.057   8.179
 8522SOL    HW127463   8.971   4.006   8.099
 8522SOL    HW227464   8.859   4.068   8.181
 8523SOL     OW27465   1.841   2.223   5.962
 8523SOL    HW127466   1.860   2.148   6.018
 8523SOL    HW227467   1.923   2.272   5.959
 8524SOL     OW27468  10.151  11.331   3.886
 8524SOL    HW127469  10.170  11.243   3.919
 8524SOL    HW227470  10.200  11.336   3.804
 8525SOL     OW27471   7.596   6.056   1.756
 8525SOL    HW127472   7.536   5.983   1.771
 8525SOL    HW227473   7.543   6.121   1.710
 8526SOL     OW27474  14.193   7.957   4.566
 8526SOL    HW127475  14.249   7.902   4.620
 8526SOL    HW227476  14.128   7.897   4.530
 8527SOL     OW27477  14.134  11.609  13.102
 8527SOL    HW127478  14.202  11.543  13.088
 8527SOL    HW227479  14.068  11.591  13.036
 8528SOL     OW27480   2.821   5.806  14.550
 8528SOL    HW127481   2.779   5.845  14.626
 8528SOL    HW227482   2.870   5.878  14.510
 8529SOL     OW27483   5.822   4.063   1.714
 8529SOL    HW127484   5.854   4.023   1.633
 8529SOL    HW227485   5.901   4.087   1.762
 8530SOL     OW27486   0.301   5.288   1.698
 8530SOL    HW127487   0.339   5.350   1.636
 8530SOL    HW227488   0.339   5.203   1.673
 8531SOL     OW27489   2.505   2.230   2.294
 8531SOL    HW127490   2.440   2.252   2.227
 8531SOL    HW227491   2.489   2.293   2.364
 8532SOL     OW27492   1.208   6.015   2.720
 8532SOL    HW127493   1.293   6.023   2.762
 8532SOL    HW227494   1.224   5.957   2.645
 8533SOL     OW27495  10.918   0.388   1.042
 8533SOL    HW127496  10.859   0.317   1.068
 8533SOL    HW227497  10.982   0.347   0.985
 8534SOL     OW27498   0.504   0.882   0.846
 8534SOL    HW127499   0.579   0.828   0.823
 8534SOL    HW227500   0.443   0.822   0.887
 8535SOL     OW27501   5.374  11.373   6.474
 8535SOL    HW127502   5.363  11.367   6.380
 8535SOL    HW227503   5.294  11.414   6.506
 8536SOL     OW27504   0.471  12.409   4.231
 8536SOL    HW127505   0.558  12.411   4.272
 8536SOL    HW227506   0.454  12.316   4.216
 8537SOL     OW27507   9.045  12.862   6.839
 8537SOL    HW127508   9.123  12.809   6.824
 8537SOL    HW227509   8.972  12.804   6.820
 8538SOL     OW27510  14.260   9.311   3.972
 8538SOL    HW127511  14.185   9.256   3.995
 8538SOL    HW227512  14.281   9.359   4.052
 8539SOL     OW27513  11.741  11.004   6.275
 8539SOL    HW127514  11.768  11.067   6.342
 8539SOL    HW227515  11.686  11.055   6.216
 8540SOL     OW27516  14.783   9.491   9.156
 8540SOL    HW127517  14.852   9.542   9.197
 8540SOL    HW227518  14.767   9.418   9.216
 8541SOL     OW27519   7.773  11.408   5.954
 8541SOL    HW127520   7.830  11.435   6.027
 8541SOL    HW227521   7.822  11.338   5.910
 8542SOL     OW27522   7.089   3.520   7.961
 8542SOL    HW127523   7.148   3.504   7.887
 8542SOL    HW227524   7.008   3.550   7.920
 8543SOL     OW27525   4.821   8.957   7.834
 8543SOL    HW127526   4.884   8.897   7.795
 8543SOL    HW227527   4.864   9.042   7.834
 8544SOL     OW27528  12.617   3.380   1.903
 8544SOL    HW127529  12.555   3.328   1.954
 8544SOL    HW227530  12.655   3.318   1.840
 8545SOL     OW27531   2.018   8.077  13.786
 8545SOL    HW127532   2.076   8.057  13.712
 8545SOL    HW227533   1.970   7.995  13.802
 8546SOL     OW27534  12.929   8.768  12.496
 8546SOL    HW127535  12.970   8.707  12.434
 8546SOL    HW227536  12.981   8.759  12.576
 8547SOL     OW27537  11.118  11.071  11.973
 8547SOL    HW127538  11.061  11.077  11.896
 8547SOL    HW227539  11.060  11.090  12.047
 8548SOL     OW27540   5.548  13.097  10.236
 8548SOL    HW127541   5.637  13.076  10.209
 8548SOL    HW227542   5.524  13.174  10.185
 8549SOL     OW27543   1.793  13.011   0.808
 8549SOL    HW127544   1.716  12.978   0.855
 8549SOL    HW227545   1.759  13.038   0.723
 8550SOL     OW27546   3.946   4.287  14.062
 8550SOL    HW127547   3.984   4.223  14.121
 8550SOL    HW227548   3.896   4.345  14.119
 8551SOL     OW27549  13.080   0.284  13.390
 8551SOL    HW127550  13.069   0.224  13.464
 8551SOL    HW227551  13.073   0.371  13.429
 8552SOL     OW27552  10.253  11.667  10.150
 8552SOL    HW127553  10.207  11.595  10.107
 8552SOL    HW227554  10.279  11.631  10.235
 8553SOL     OW27555   1.807   1.574  14.101
 8553SOL    HW127556   1.840   1.527  14.178
 8553SOL    HW227557   1.753   1.644  14.138
 8554SOL     OW27558   8.934  10.591   9.874
 8554SOL    HW127559   8.858  10.592   9.815
 8554SOL    HW227560   8.942  10.500   9.901
 8555SOL     OW27561   0.303   6.833   3.306
 8555SOL    HW127562   0.297   6.754   3.254
 8555SOL    HW227563   0.392   6.831   3.343
 8556SOL     OW27564   9.930   6.321   8.395
 8556SOL    HW127565  10.025   6.316   8.408
 8556SOL    HW227566   9.910   6.414   8.407
 8557SOL     OW27567   8.335  12.653  12.687
 8557SOL    HW127568   8.329  12.685  12.597
 8557SOL    HW227569   8.296  12.723  12.740
 8558SOL     OW27570   9.002  11.272   2.562
 8558SOL    HW127571   8.983  11.225   2.644
 8558SOL    HW227572   9.095  11.258   2.548
 8559SOL     OW27573   5.203  10.754   8.791
 8559SOL    HW127574   5.132  10.710   8.837
 8559SOL    HW227575   5.279  10.697   8.805
 8560SOL     OW27576   6.173   4.635   4.572
 8560SOL    HW127577   6.168   4.540   4.580
 8560SOL    HW227578   6.263   4.652   4.543
 8561SOL     OW27579   3.554   4.116  14.127
 8561SOL    HW127580   3.525   4.202  14.099
 8561SOL    HW227581   3.630   4.097  14.071
 8562SOL     OW27582  12.815  12.604   1.484
 8562SOL    HW127583  12.722  12.599   1.506
 8562SOL    HW227584  12.819  12.660   1.407
 8563SOL     OW27585   2.769   6.512   7.829
 8563SOL    HW127586   2.727   6.504   7.914
 8563SOL    HW227587   2.844   6.570   7.844
 8564SOL     OW27588   5.444  11.494   3.996
 8564SOL    HW127589   5.353  11.478   4.021
 8564SOL    HW227590   5.485  11.407   3.995
 8565SOL     OW27591   0.834   3.968  10.812
 8565SOL    HW127592   0.782   3.965  10.732
 8565SOL    HW227593   0.809   4.051  10.854
 8566SOL     OW27594   1.303   5.162   4.399
 8566SOL    HW127595   1.386   5.208   4.388
 8566SOL    HW227596   1.280   5.175   4.491
 8567SOL     OW27597   0.406   8.021  13.895
 8567SOL    HW127598   0.433   7.991  13.809
 8567SOL    HW227599   0.454   7.965  13.957
 8568SOL     OW27600   1.269   9.791  12.345
 8568SOL    HW127601   1.254   9.699  12.324
 8568SOL    HW227602   1.208   9.838  12.288
 8569SOL     OW27603  13.318   3.879   6.561
 8569SOL    HW127604  13.273   3.924   6.632
 8569SOL    HW227605  13.262   3.893   6.484
 8570SOL     OW27606  12.766  14.599  14.159
 8570SOL    HW127607  12.822  14.561  14.227
 8570SOL    HW227608  12.684  14.551  14.166
 8571SOL     OW27609   0.213  10.478   5.112
 8571SOL    HW127610   0.163  10.542   5.062
 8571SOL    HW227611   0.305  10.500   5.097
 8572SOL     OW27612   6.234  10.888   2.220
 8572SOL    HW127613   6.242  10.798   2.251
 8572SOL    HW227614   6.319  10.927   2.239
 8573SOL     OW27615  13.400   5.420   7.310
 8573SOL    HW127616  13.488   5.387   7.326
 8573SOL    HW227617  13.410   5.484   7.239
 8574SOL     OW27618   4.839   6.413   0.627
 8574SOL    HW127619   4.852   6.358   0.704
 8574SOL    HW227620   4.900   6.378   0.562
 8575SOL     OW27621  14.473   6.934   6.850
 8575SOL    HW127622  14.435   6.960   6.934
 8575SOL    HW227623  14.420   6.859   6.823
 8576SOL     OW27624   4.328   4.397  11.707
 8576SOL    HW127625   4.418   4.429  11.694
 8576SOL    HW227626   4.308   4.349  11.626
 8577SOL     OW27627   0.391   3.921   7.934
 8577SOL    HW127628   0.416   3.828   7.936
 8577SOL    HW227629   0.472   3.967   7.955
 8578SOL     OW27630   1.726   3.232   7.191
 8578SOL    HW127631   1.674   3.179   7.131
 8578SOL    HW227632   1.677   3.229   7.273
 8579SOL     OW27633   1.821   8.957   9.946
 8579SOL    HW127634   1.747   8.914   9.990
 8579SOL    HW227635   1.780   9.020   9.887
 8580SOL     OW27636  13.073   6.637  10.432
 8580SOL    HW127637  13.082   6.728  10.403
 8580SOL    HW227638  13.031   6.643  10.518
 8581SOL     OW27639  11.389   4.192   7.113
 8581SOL    HW127640  11.325   4.122   7.095
 8581SOL    HW227641  11.393   4.242   7.031
 8582SOL     OW27642  10.638   0.213   7.894
 8582SOL    HW127643  10.700   0.150   7.930
 8582SOL    HW227644  10.553   0.169   7.902
 8583SOL     OW27645   4.768  14.276   8.919
 8583SOL    HW127646   4.747  14.361   8.882
 8583SOL    HW227647   4.702  14.263   8.987
 8584SOL     OW27648  11.252  14.705   1.988
 8584SOL    HW127649  11.172  14.742   1.949
 8584SOL    HW227650  11.271  14.763   2.062
 8585SOL     OW27651  13.372  11.041   5.342
 8585SOL    HW127652  13.426  10.962   5.332
 8585SOL    HW227653  13.336  11.035   5.431
 8586SOL     OW27654   7.839  12.214   9.395
 8586SOL    HW127655   7.793  12.190   9.476
 8586SOL    HW227656   7.843  12.132   9.345
 8587SOL     OW27657   7.497  13.963  10.593
 8587SOL    HW127658   7.475  13.890  10.651
 8587SOL    HW227659   7.490  13.926  10.505
 8588SOL     OW27660   2.212  12.920   3.655
 8588SOL    HW127661   2.234  12.915   3.748
 8588SOL    HW227662   2.296  12.939   3.612
 8589SOL     OW27663  10.593   3.819  12.557
 8589SOL    HW127664  10.560   3.883  12.495
 8589SOL    HW227665  10.518   3.763  12.577
 8590SOL     OW27666  13.180  14.791   1.393
 8590SOL    HW127667  13.240  14.738   1.340
 8590SOL    HW227668  13.152  14.862   1.335
 8591SOL     OW27669   4.151  10.873  11.552
 8591SOL    HW127670   4.111  10.802  11.502
 8591SOL    HW227671   4.237  10.840  11.577
 8592SOL     OW27672   5.791   8.661   3.554
 8592SOL    HW127673   5.823   8.617   3.632
 8592SOL    HW227674   5.703   8.690   3.576
 8593SOL     OW27675   5.246   8.630  13.385
 8593SOL    HW127676   5.333   8.668  13.397
 8593SOL    HW227677   5.259   8.536  13.394
 8594SOL     OW27678   5.635   9.643   8.764
 8594SOL    HW127679   5.685   9.561   8.759
 8594SOL    HW227680   5.672   9.689   8.840
 8595SOL     OW27681   6.910  13.303   4.977
 8595SOL    HW127682   7.001  13.273   4.984
 8595SOL    HW227683   6.859  13.231   5.014
 8596SOL     OW27684   7.174  11.046  13.713
 8596SOL    HW127685   7.148  11.114  13.775
 8596SOL    HW227686   7.231  10.988  13.764
 8597SOL     OW27687  10.828  13.020   3.276
 8597SOL    HW127688  10.821  13.109   3.309
 8597SOL    HW227689  10.818  12.965   3.354
 8598SOL     OW27690  11.378   7.799   2.107
 8598SOL    HW127691  11.393   7.754   2.190
 8598SOL    HW227692  11.448   7.863   2.101
 8599SOL     OW27693  12.199   0.101   4.265
 8599SOL    HW127694  12.263   0.103   4.335
 8599SOL    HW227695  12.246   0.129   4.187
 8600SOL     OW27696   6.218   2.353  12.394
 8600SOL    HW127697   6.202   2.418  12.463
 8600SOL    HW227698   6.149   2.288  12.405
 8601SOL     OW27699   5.617   5.016   7.160
 8601SOL    HW127700   5.710   5.001   7.147
 8601SOL    HW227701   5.608   5.112   7.161
 8602SOL     OW27702  13.223   5.109   6.476
 8602SOL    HW127703  13.208   5.197   6.511
 8602SOL    HW227704  13.204   5.117   6.383
 8603SOL     OW27705   9.000   7.959   7.655
 8603SOL    HW127706   8.983   7.873   7.694
 8603SOL    HW227707   8.951   8.020   7.711
 8604SOL     OW27708  11.206   5.636   6.808
 8604SOL    HW127709  11.202   5.702   6.877
 8604SOL    HW227710  11.115   5.626   6.779
 8605SOL     OW27711   3.970  13.925   0.130
 8605SOL    HW127712   4.062  13.943   0.149
 8605SOL    HW227713   3.945  13.858   0.194
 8606SOL     OW27714   8.837  13.556   8.376
 8606SOL    HW127715   8.799  13.639   8.405
 8606SOL    HW227716   8.787  13.489   8.422
 8607SOL     OW27717   5.724  11.081  12.285
 8607SOL    HW127718   5.809  11.101  12.246
 8607SOL    HW227719   5.707  11.154  12.344
 8608SOL     OW27720   3.820  14.038   5.262
 8608SOL    HW127721   3.781  13.989   5.190
 8608SOL    HW227722   3.900  13.989   5.284
 8609SOL     OW27723   5.446   9.599  12.765
 8609SOL    HW127724   5.401   9.680  12.788
 8609SOL    HW227725   5.376   9.535  12.751
 8610SOL     OW27726   0.310   6.759   4.590
 8610SOL    HW127727   0.364   6.711   4.527
 8610SOL    HW227728   0.247   6.807   4.536
 8611SOL     OW27729   2.078   4.027  13.823
 8611SOL    HW127730   2.167   4.060  13.811
 8611SOL    HW227731   2.044   4.077  13.898
 8612SOL     OW27732   2.625   3.266   8.997
 8612SOL    HW127733   2.655   3.189   9.045
 8612SOL    HW227734   2.532   3.274   9.020
 8613SOL     OW27735  11.014   0.378   4.921
 8613SOL    HW127736  10.993   0.358   4.830
 8613SOL    HW227737  11.000   0.296   4.968
 8614SOL     OW27738   6.343   3.848   0.208
 8614SOL    HW127739   6.438   3.839   0.199
 8614SOL    HW227740   6.327   3.842   0.302
 8615SOL     OW27741   8.724   1.625  12.449
 8615SOL    HW127742   8.780   1.661  12.381
 8615SOL    HW227743   8.661   1.570  12.403
 8616SOL     OW27744   7.867  11.497  12.190
 8616SOL    HW127745   7.777  11.488  12.219
 8616SOL    HW227746   7.902  11.408  12.189
 8617SOL     OW27747   4.432   1.802  11.562
 8617SOL    HW127748   4.369   1.784  11.492
 8617SOL    HW227749   4.471   1.886  11.539
 8618SOL     OW27750   7.665   1.537   7.450
 8618SOL    HW127751   7.684   1.621   7.492
 8618SOL    HW227752   7.750   1.497   7.434
 8619SOL     OW27753   5.111   3.207   6.006
 8619SOL    HW127754   5.120   3.291   5.960
 8619SOL    HW227755   5.024   3.176   5.983
 8620SOL     OW27756   0.445   0.713   8.112
 8620SOL    HW127757   0.528   0.666   8.114
 8620SOL    HW227758   0.417   0.709   8.021
 8621SOL     OW27759   8.048  12.340   6.395
 8621SOL    HW127760   8.078  12.265   6.446
 8621SOL    HW227761   8.057  12.414   6.455
 8622SOL     OW27762  11.903   1.746   1.223
 8622SOL    HW127763  11.879   1.660   1.190
 8622SOL    HW227764  11.890   1.805   1.149
 8623SOL     OW27765   0.022   5.200  13.690
 8623SOL    HW127766   0.043   5.210  13.783
 8623SOL    HW227767  14.837   5.120  13.686
 8624SOL     OW27768   0.747  14.816   6.643
 8624SOL    HW127769   0.833  14.822   6.684
 8624SOL    HW227770   0.758  14.752   6.573
 8625SOL     OW27771   0.773   1.214  12.119
 8625SOL    HW127772   0.789   1.300  12.156
 8625SOL    HW227773   0.681   1.196  12.139
 8626SOL     OW27774   6.348   4.501   6.432
 8626SOL    HW127775   6.407   4.433   6.466
 8626SOL    HW227776   6.396   4.583   6.444
 8627SOL     OW27777  13.091  14.834  10.298
 8627SOL    HW127778  13.026  14.785  10.349
 8627SOL    HW227779  13.081  14.800  10.209
 8628SOL     OW27780   4.314   5.107  12.808
 8628SOL    HW127781   4.240   5.099  12.747
 8628SOL    HW227782   4.343   5.198  12.798
 8629SOL     OW27783  14.783   9.071   9.088
 8629SOL    HW127784  14.728   8.995   9.105
 8629SOL    HW227785  14.807   9.104   9.174
 8630SOL     OW27786   2.275   0.827   6.442
 8630SOL    HW127787   2.244   0.766   6.375
 8630SOL    HW227788   2.203   0.890   6.452
 8631SOL     OW27789   6.184  13.922   4.132
 8631SOL    HW127790   6.217  13.961   4.051
 8631SOL    HW227791   6.091  13.943   4.132
 8632SOL     OW27792   9.372   5.019   0.226
 8632SOL    HW127793   9.389   5.089   0.290
 8632SOL    HW227794   9.419   5.046   0.147
 8633SOL     OW27795   1.235  11.643   9.137
 8633SOL    HW127796   1.153  11.655   9.185
 8633SOL    HW227797   1.223  11.562   9.089
 8634SOL     OW27798   2.499   9.111   6.069
 8634SOL    HW127799   2.537   9.043   6.014
 8634SOL    HW227800   2.540   9.192   6.040
 8635SOL     OW27801  14.812  10.452   6.554
 8635SOL    HW127802   0.007  10.384   6.577
 8635SOL    HW227803  14.836  10.527   6.609
 8636SOL     OW27804   5.375   1.547   6.172
 8636SOL    HW127805   5.464   1.513   6.162
 8636SOL    HW227806   5.346   1.512   6.256
 8637SOL     OW27807  13.009  12.357   5.474
 8637SOL    HW127808  13.051  12.276   5.447
 8637SOL    HW227809  13.055  12.384   5.553
 8638SOL     OW27810  12.058   1.113   1.937
 8638SOL    HW127811  12.097   1.038   1.981
 8638SOL    HW227812  12.078   1.100   1.844
 8639SOL     OW27813   8.100   5.041   2.371
 8639SOL    HW127814   8.036   4.977   2.341
 8639SOL    HW227815   8.176   4.989   2.396
 8640SOL     OW27816   0.691   2.521   7.027
 8640SOL    HW127817   0.625   2.482   6.970
 8640SOL    HW227818   0.678   2.615   7.018
 8641SOL     OW27819   0.453  13.873   4.851
 8641SOL    HW127820   0.535  13.853   4.895
 8641SOL    HW227821   0.390  13.811   4.887
 8642SOL     OW27822   3.999   1.322   2.792
 8642SOL    HW127823   4.019   1.358   2.705
 8642SOL    HW227824   4.071   1.351   2.847
 8643SOL     OW27825   3.553   6.442   1.953
 8643SOL    HW127826   3.632   6.480   1.992
 8643SOL    HW227827   3.585   6.399   1.873
 8644SOL     OW27828   2.871  10.070  11.588
 8644SOL    HW127829   2.931  10.079  11.514
 8644SOL    HW227830   2.868  10.157  11.627
 8645SOL     OW27831   3.619  12.147  13.579
 8645SOL    HW127832   3.701  12.195  13.566
 8645SOL    HW227833   3.566  12.169  13.503
 8646SOL     OW27834   2.936   4.968   6.524
 8646SOL    HW127835   2.993   4.905   6.569
 8646SOL    HW227836   2.912   5.031   6.591
 8647SOL     OW27837  10.039  10.018   0.487
 8647SOL    HW127838   9.965   9.965   0.515
 8647SOL    HW227839  10.112   9.955   0.482
 8648SOL     OW27840   1.760   8.512   4.523
 8648SOL    HW127841   1.758   8.599   4.483
 8648SOL    HW227842   1.801   8.456   4.455
 8649SOL     OW27843   4.744  13.210  11.123
 8649SOL    HW127844   4.699  13.127  11.138
 8649SOL    HW227845   4.812  13.212  11.191
 8650SOL     OW27846  12.201  13.539   6.233
 8650SOL    HW127847  12.223  13.614   6.289
 8650SOL    HW227848  12.275  13.532   6.172
 8651SOL     OW27849  14.402  10.900   3.299
 8651SOL    HW127850  14.390  10.908   3.393
 8651SOL    HW227851  14.495  10.882   3.288
 8652SOL     OW27852   1.369  10.634   2.078
 8652SOL    HW127853   1.372  10.615   2.172
 8652SOL    HW227854   1.285  10.597   2.049
 8653SOL     OW27855   1.126   8.499   6.213
 8653SOL    HW127856   1.054   8.495   6.151
 8653SOL    HW227857   1.138   8.593   6.230
 8654SOL     OW27858  13.646   6.889   8.168
 8654SOL    HW127859  13.708   6.902   8.096
 8654SOL    HW227860  13.588   6.819   8.138
 8655SOL     OW27861   0.755   3.632   5.357
 8655SOL    HW127862   0.701   3.700   5.317
 8655SOL    HW227863   0.700   3.553   5.355
 8656SOL     OW27864   8.540   9.410   5.688
 8656SOL    HW127865   8.486   9.440   5.761
 8656SOL    HW227866   8.626   9.447   5.704
 8657SOL     OW27867   3.761   6.298  12.808
 8657SOL    HW127868   3.734   6.296  12.900
 8657SOL    HW227869   3.687   6.259  12.761
 8658SOL     OW27870   7.288   4.018  12.085
 8658SOL    HW127871   7.267   4.062  12.167
 8658SOL    HW227872   7.217   4.042  12.025
 8659SOL     OW27873   4.008   7.987  13.898
 8659SOL    HW127874   3.979   7.933  13.824
 8659SOL    HW227875   4.039   7.924  13.963
 8660SOL     OW27876  10.210  11.736  14.153
 8660SOL    HW127877  10.116  11.742  14.174
 8660SOL    HW227878  10.212  11.704  14.063
 8661SOL     OW27879   3.513  12.933  14.692
 8661SOL    HW127880   3.587  12.872  14.687
 8661SOL    HW227881   3.551  13.018  14.670
 8662SOL     OW27882   5.226   8.348   4.046
 8662SOL    HW127883   5.170   8.339   4.123
 8662SOL    HW227884   5.310   8.313   4.074
 8663SOL     OW27885   1.201  12.518   6.257
 8663SOL    HW127886   1.158  12.594   6.218
 8663SOL    HW227887   1.240  12.551   6.338
 8664SOL     OW27888  12.242   0.340   9.680
 8664SOL    HW127889  12.188   0.323   9.758
 8664SOL    HW227890  12.313   0.276   9.687
 8665SOL     OW27891   0.489  14.460   9.326
 8665SOL    HW127892   0.496  14.377   9.374
 8665SOL    HW227893   0.487  14.526   9.395
 8666SOL     OW27894  13.970  14.422   7.027
 8666SOL    HW127895  13.990  14.446   6.937
 8666SOL    HW227896  13.971  14.505   7.075
 8667SOL     OW27897   1.913  12.882  12.506
 8667SOL    HW127898   1.907  12.969  12.546
 8667SOL    HW227899   1.898  12.898  12.413
 8668SOL     OW27900   2.846   8.473   2.676
 8668SOL    HW127901   2.819   8.562   2.650
 8668SOL    HW227902   2.776   8.417   2.642
 8669SOL     OW27903   7.146  14.070   8.400
 8669SOL    HW127904   7.235  14.101   8.418
 8669SOL    HW227905   7.135  14.082   8.306
 8670SOL     OW27906   6.260  10.368   2.282
 8670SOL    HW127907   6.244  10.353   2.189
 8670SOL    HW227908   6.250  10.281   2.322
 8671SOL     OW27909   5.494   5.708   0.814
 8671SOL    HW127910   5.403   5.718   0.843
 8671SOL    HW227911   5.518   5.795   0.782
 8672SOL     OW27912   8.564   2.899  12.447
 8672SOL    HW127913   8.620   2.854  12.510
 8672SOL    HW227914   8.617   2.904  12.368
 8673SOL     OW27915   7.742   8.995   6.983
 8673SOL    HW127916   7.647   8.994   6.990
 8673SOL    HW227917   7.764   8.909   6.946
 8674SOL     OW27918   6.969   3.478   1.776
 8674SOL    HW127919   6.875   3.475   1.795
 8674SOL    HW227920   6.982   3.408   1.712
 8675SOL     OW27921  10.261   5.879  11.897
 8675SOL    HW127922  10.191   5.923  11.849
 8675SOL    HW227923  10.216   5.813  11.950
 8676SOL     OW27924   8.230   2.342  10.784
 8676SOL    HW127925   8.188   2.305  10.861
 8676SOL    HW227926   8.270   2.424  10.815
 8677SOL     OW27927   2.081   5.575   8.017
 8677SOL    HW127928   1.988   5.591   8.000
 8677SOL    HW227929   2.094   5.606   8.107
 8678SOL     OW27930   9.172   0.056  13.936
 8678SOL    HW127931   9.239  14.856  13.942
 8678SOL    HW227932   9.102   0.026  13.993
 8679SOL     OW27933   0.786   8.469   3.465
 8679SOL    HW127934   0.771   8.377   3.440
 8679SOL    HW227935   0.816   8.464   3.555
 8680SOL     OW27936   3.053  10.336   0.031
 8680SOL    HW127937   3.026  10.428   0.023
 8680SOL    HW227938   3.101  10.319  14.818
 8681SOL     OW27939   8.267   6.088   7.179
 8681SOL    HW127940   8.182   6.133   7.182
 8681SOL    HW227941   8.308   6.111   7.263
 8682SOL     OW27942  14.109  11.200   3.842
 8682SOL    HW127943  14.158  11.176   3.920
 8682SOL    HW227944  14.070  11.285   3.864
 8683SOL     OW27945   5.016  14.759   1.740
 8683SOL    HW127946   4.947  14.697   1.764
 8683SOL    HW227947   5.078  14.757   1.813
 8684SOL     OW27948  13.466   2.820  10.816
 8684SOL    HW127949  13.465   2.849  10.907
 8684SOL    HW227950  13.436   2.896  10.765
 8685SOL     OW27951   3.986  10.192   4.027
 8685SOL    HW127952   4.002  10.171   4.119
 8685SOL    HW227953   3.965  10.108   3.986
 8686SOL     OW27954  11.000   9.535   7.976
 8686SOL    HW127955  11.071   9.588   7.939
 8686SOL    HW227956  11.007   9.547   8.070
 8687SOL     OW27957   6.331  10.866  14.311
 8687SOL    HW127958   6.252  10.817  14.287
 8687SOL    HW227959   6.340  10.932  14.242
 8688SOL     OW27960  13.088   7.271   7.648
 8688SOL    HW127961  13.022   7.340   7.647
 8688SOL    HW227962  13.145   7.294   7.722
 8689SOL     OW27963   0.196   8.342   8.939
 8689SOL    HW127964   0.216   8.250   8.923
 8689SOL    HW227965   0.260   8.370   9.004
 8690SOL     OW27966   5.979  13.138   3.710
 8690SOL    HW127967   5.954  13.077   3.779
 8690SOL    HW227968   5.967  13.224   3.749
 8691SOL     OW27969   7.679   3.491   9.004
 8691SOL    HW127970   7.671   3.428   8.932
 8691SOL    HW227971   7.769   3.522   8.998
 8692SOL     OW27972   7.896   6.864   7.610
 8692SOL    HW127973   7.895   6.811   7.530
 8692SOL    HW227974   7.847   6.812   7.673
 8693SOL     OW27975   8.124   3.901   1.093
 8693SOL    HW127976   8.197   3.928   1.037
 8693SOL    HW227977   8.081   3.830   1.044
 8694SOL     OW27978   3.011   2.492   3.882
 8694SOL    HW127979   2.935   2.455   3.926
 8694SOL    HW227980   3.039   2.423   3.821
 8695SOL     OW27981  10.829  12.145   7.891
 8695SOL    HW127982  10.914  12.188   7.879
 8695SOL    HW227983  10.768  12.198   7.840
 8696SOL     OW27984  12.763   5.014   7.426
 8696SOL    HW127985  12.678   4.986   7.459
 8696SOL    HW227986  12.826   4.971   7.485
 8697SOL     OW27987   9.784   0.758   0.997
 8697SOL    HW127988   9.835   0.768   1.078
 8697SOL    HW227989   9.709   0.815   1.009
 8698SOL     OW27990   7.628  13.526   9.166
 8698SOL    HW127991   7.659  13.561   9.250
 8698SOL    HW227992   7.584  13.444   9.188
 8699SOL     OW27993   4.664   0.355   1.719
 8699SOL    HW127994   4.592   0.291   1.714
 8699SOL    HW227995   4.731   0.311   1.772
 8700SOL     OW27996   0.782   2.342   0.097
 8700SOL    HW127997   0.807   2.431   0.071
 8700SOL    HW227998   0.859   2.308   0.144
 8701SOL     OW27999   5.058  14.016   3.314
 8701SOL    HW128000   4.979  14.070   3.311
 8701SOL    HW228001   5.042  13.948   3.248
 8702SOL     OW28002   1.909   0.790   1.406
 8702SOL    HW128003   1.852   0.713   1.400
 8702SOL    HW228004   1.997   0.754   1.421
 8703SOL     OW28005  12.956   4.151   3.547
 8703SOL    HW128006  13.014   4.102   3.489
 8703SOL    HW228007  13.003   4.232   3.566
 8704SOL     OW28008   1.450   6.006   6.550
 8704SOL    HW128009   1.499   6.076   6.592
 8704SOL    HW228010   1.516   5.940   6.526
 8705SOL     OW28011   1.469   1.970  14.222
 8705SOL    HW128012   1.402   1.906  14.200
 8705SOL    HW228013   1.422   2.038  14.270
 8706SOL     OW28014   6.652   1.386  13.450
 8706SOL    HW128015   6.681   1.413  13.363
 8706SOL    HW228016   6.699   1.305  13.468
 8707SOL     OW28017   4.026   8.066   3.178
 8707SOL    HW128018   4.044   7.983   3.134
 8707SOL    HW228019   4.053   8.133   3.115
 8708SOL     OW28020  12.940   5.332  14.798
 8708SOL    HW128021  12.851   5.319  14.829
 8708SOL    HW228022  12.975   5.401  14.854
 8709SOL     OW28023  12.133  11.081   2.460
 8709SOL    HW128024  12.039  11.075   2.443
 8709SOL    HW228025  12.164  11.145   2.397
 8710SOL     OW28026   6.937   2.016  13.396
 8710SOL    HW128027   6.881   2.060  13.459
 8710SOL    HW228028   6.995   2.085  13.363
 8711SOL     OW28029   4.213   7.331   7.159
 8711SOL    HW128030   4.167   7.392   7.102
 8711SOL    HW228031   4.292   7.308   7.111
 8712SOL     OW28032   6.809  12.181   2.065
 8712SOL    HW128033   6.810  12.228   1.981
 8712SOL    HW228034   6.868  12.107   2.051
 8713SOL     OW28035   3.405   2.284  12.422
 8713SOL    HW128036   3.483   2.244  12.383
 8713SOL    HW228037   3.424   2.286  12.516
 8714SOL     OW28038   7.409  10.749   3.766
 8714SOL    HW128039   7.368  10.679   3.715
 8714SOL    HW228040   7.472  10.788   3.706
 8715SOL     OW28041  11.602  10.811   5.250
 8715SOL    HW128042  11.532  10.804   5.185
 8715SOL    HW228043  11.563  10.777   5.331
 8716SOL     OW28044   2.320   0.170  11.125
 8716SOL    HW128045   2.403   0.141  11.164
 8716SOL    HW228046   2.320   0.265  11.140
 8717SOL     OW28047  14.624   0.324  14.052
 8717SOL    HW128048  14.685   0.258  14.085
 8717SOL    HW228049  14.621   0.390  14.121
 8718SOL     OW28050   6.620   9.254   6.149
 8718SOL    HW128051   6.691   9.197   6.118
 8718SOL    HW228052   6.552   9.247   6.083
 8719SOL     OW28053   7.388   6.675   3.825
 8719SOL    HW128054   7.420   6.589   3.854
 8719SOL    HW228055   7.323   6.700   3.892
 8720SOL     OW28056   7.988   6.651   4.323
 8720SOL    HW128057   7.962   6.717   4.387
 8720SOL    HW228058   7.965   6.690   4.238
 8721SOL     OW28059   2.123   1.221   7.982
 8721SOL    HW128060   2.146   1.310   7.956
 8721SOL    HW228061   2.107   1.176   7.899
 8722SOL     OW28062  13.074   8.681   2.157
 8722SOL    HW128063  13.096   8.633   2.236
 8722SOL    HW228064  13.033   8.762   2.188
 8723SOL     OW28065   6.397   3.823   4.396
 8723SOL    HW128066   6.391   3.752   4.460
 8723SOL    HW228067   6.416   3.901   4.448
 8724SOL     OW28068   5.796  10.254   7.581
 8724SOL    HW128069   5.812  10.195   7.654
 8724SOL    HW228070   5.705  10.237   7.556
 8725SOL     OW28071   2.018   3.964   9.212
 8725SOL    HW128072   2.030   3.933   9.122
 8725SOL    HW228073   2.041   4.056   9.209
 8726SOL     OW28074  14.807   4.898   0.593
 8726SOL    HW128075  14.729   4.860   0.553
 8726SOL    HW228076   0.006   4.829   0.586
 8727SOL     OW28077   8.540  10.580  10.694
 8727SOL    HW128078   8.587  10.544  10.619
 8727SOL    HW228079   8.605  10.579  10.765
 8728SOL     OW28080   4.579   1.918   0.070
 8728SOL    HW128081   4.608   1.855   0.004
 8728SOL    HW228082   4.502   1.878   0.109
 8729SOL     OW28083   1.241  13.955   3.451
 8729SOL    HW128084   1.257  14.031   3.396
 8729SOL    HW228085   1.329  13.923   3.474
 8730SOL     OW28086  13.547  11.529   7.886
 8730SOL    HW128087  13.511  11.544   7.973
 8730SOL    HW228088  13.482  11.473   7.843
 8731SOL     OW28089   8.979  12.501   4.801
 8731SOL    HW128090   9.036  12.426   4.781
 8731SOL    HW228091   9.039  12.576   4.803
 8732SOL     OW28092   1.424   1.958   3.578
 8732SOL    HW128093   1.399   1.932   3.490
 8732SOL    HW228094   1.369   1.905   3.635
 8733SOL     OW28095  12.048   8.006   8.744
 8733SOL    HW128096  12.120   7.945   8.727
 8733SOL    HW228097  12.003   7.968   8.820
 8734SOL     OW28098   1.026  10.741  12.507
 8734SOL    HW128099   0.939  10.705  12.528
 8734SOL    HW228100   1.079  10.722  12.584
 8735SOL     OW28101   1.928  11.423  11.618
 8735SOL    HW128102   1.898  11.397  11.705
 8735SOL    HW228103   1.944  11.517  11.626
 8736SOL     OW28104   4.648   0.221   9.973
 8736SOL    HW128105   4.662   0.128   9.992
 8736SOL    HW228106   4.599   0.222   9.891
 8737SOL     OW28107   9.909  14.322   2.497
 8737SOL    HW128108   9.938  14.311   2.588
 8737SOL    HW228109   9.831  14.377   2.504
 8738SOL     OW28110   7.800  10.120  10.556
 8738SOL    HW128111   7.859  10.069  10.501
 8738SOL    HW228112   7.740  10.163  10.495
 8739SOL     OW28113   7.035   4.302   5.058
 8739SOL    HW128114   7.118   4.268   5.090
 8739SOL    HW228115   7.015   4.250   4.981
 8740SOL     OW28116   2.277  14.537   2.756
 8740SOL    HW128117   2.302  14.513   2.845
 8740SOL    HW228118   2.359  14.568   2.716
 8741SOL     OW28119   9.004  13.962   4.928
 8741SOL    HW128120   8.966  13.877   4.952
 8741SOL    HW228121   9.056  13.943   4.849
 8742SOL     OW28122   7.947  13.333   6.039
 8742SOL    HW128123   8.024  13.366   6.086
 8742SOL    HW228124   7.970  13.244   6.015
 8743SOL     OW28125  13.598   3.839   7.968
 8743SOL    HW128126  13.603   3.848   8.063
 8743SOL    HW228127  13.614   3.927   7.935
 8744SOL     OW28128  10.504   8.865  10.477
 8744SOL    HW128129  10.566   8.806  10.519
 8744SOL    HW228130  10.493   8.830  10.389
 8745SOL     OW28131   8.576   4.586   5.785
 8745SOL    HW128132   8.611   4.613   5.871
 8745SOL    HW228133   8.489   4.626   5.782
 8746SOL     OW28134  10.370   2.100   8.348
 8746SOL    HW128135  10.283   2.135   8.370
 8746SOL    HW228136  10.355   2.044   8.272
 8747SOL     OW28137  12.946  13.422   3.217
 8747SOL    HW128138  12.978  13.333   3.200
 8747SOL    HW228139  12.912  13.452   3.133
 8748SOL     OW28140   2.172   2.023  11.648
 8748SOL    HW128141   2.168   2.004  11.554
 8748SOL    HW228142   2.262   2.049  11.663
 8749SOL     OW28143  10.342   5.487   2.105
 8749SOL    HW128144  10.305   5.402   2.084
 8749SOL    HW228145  10.353   5.530   2.020
 8750SOL     OW28146   7.141   9.294   6.195
 8750SOL    HW128147   7.055   9.336   6.202
 8750SOL    HW228148   7.132   9.212   6.245
 8751SOL     OW28149   6.535   1.963  14.497
 8751SOL    HW128150   6.565   1.881  14.538
 8751SOL    HW228151   6.578   1.964  14.412
 8752SOL     OW28152  13.501  14.413   7.513
 8752SOL    HW128153  13.511  14.343   7.577
 8752SOL    HW228154  13.511  14.493   7.565
 8753SOL     OW28155   7.659   6.379   9.929
 8753SOL    HW128156   7.693   6.316   9.866
 8753SOL    HW228157   7.564   6.372   9.922
 8754SOL     OW28158   0.121  11.299   8.667
 8754SOL    HW128159   0.135  11.300   8.572
 8754SOL    HW228160   0.046  11.357   8.680
 8755SOL     OW28161   7.625  11.530  12.537
 8755SOL    HW128162   7.704  11.577  12.564
 8755SOL    HW228163   7.643  11.503  12.447
 8756SOL     OW28164   9.568   8.360   2.330
 8756SOL    HW128165   9.558   8.341   2.424
 8756SOL    HW228166   9.520   8.441   2.317
 8757SOL     OW28167   3.961   2.956  10.769
 8757SOL    HW128168   4.008   2.879  10.801
 8757SOL    HW228169   3.961   3.016  10.843
 8758SOL     OW28170   6.544  14.685   3.695
 8758SOL    HW128171   6.536  14.718   3.605
 8758SOL    HW228172   6.620  14.628   3.694
 8759SOL     OW28173  14.453   2.250  14.832
 8759SOL    HW128174  14.518   2.183  14.853
 8759SOL    HW228175  14.494   2.302  14.762
 8760SOL     OW28176   3.516   1.332  14.417
 8760SOL    HW128177   3.570   1.411  14.420
 8760SOL    HW228178   3.541   1.283  14.495
 8761SOL     OW28179   5.935  11.721   6.117
 8761SOL    HW128180   5.993  11.714   6.041
 8761SOL    HW228181   5.966  11.799   6.163
 8762SOL     OW28182   9.970   3.133  12.589
 8762SOL    HW128183   9.929   3.079  12.521
 8762SOL    HW228184   9.979   3.073  12.664
 8763SOL     OW28185   4.161  14.308  11.189
 8763SOL    HW128186   4.170  14.399  11.163
 8763SOL    HW228187   4.070  14.286  11.168
 8764SOL     OW28188  13.087   7.963   5.541
 8764SOL    HW128189  12.992   7.962   5.529
 8764SOL    HW228190  13.117   7.884   5.496
 8765SOL     OW28191   7.926   7.737  12.108
 8765SOL    HW128192   7.898   7.651  12.140
 8765SOL    HW228193   7.871   7.753  12.032
 8766SOL     OW28194   0.722   9.665  10.222
 8766SOL    HW128195   0.728   9.753  10.184
 8766SOL    HW228196   0.678   9.613  10.154
 8767SOL     OW28197   7.937   3.134  12.484
 8767SOL    HW128198   7.965   3.225  12.473
 8767SOL    HW228199   7.920   3.125  12.577
 8768SOL     OW28200   1.172   4.461   6.485
 8768SOL    HW128201   1.107   4.503   6.540
 8768SOL    HW228202   1.203   4.529   6.426
 8769SOL     OW28203  11.893   7.737  11.242
 8769SOL    HW128204  11.857   7.649  11.248
 8769SOL    HW228205  11.967   7.737  11.303
 8770SOL     OW28206  13.516   1.863  13.081
 8770SOL    HW128207  13.447   1.806  13.046
 8770SOL    HW228208  13.468   1.934  13.124
 8771SOL     OW28209   0.658   8.444  13.558
 8771SOL    HW128210   0.701   8.529  13.559
 8771SOL    HW228211   0.719   8.387  13.511
 8772SOL     OW28212  10.686   7.444   3.997
 8772SOL    HW128213  10.776   7.445   3.968
 8772SOL    HW228214  10.692   7.431   4.092
 8773SOL     OW28215   4.869   2.214   8.380
 8773SOL    HW128216   4.882   2.306   8.356
 8773SOL    HW228217   4.798   2.215   8.445
 8774SOL     OW28218   4.455   3.553   4.816
 8774SOL    HW128219   4.444   3.642   4.849
 8774SOL    HW228220   4.433   3.496   4.889
 8775SOL     OW28221   3.707   9.091  14.326
 8775SOL    HW128222   3.724   9.033  14.252
 8775SOL    HW228223   3.794   9.112  14.360
 8776SOL     OW28224   2.574  14.167   6.046
 8776SOL    HW128225   2.491  14.208   6.072
 8776SOL    HW228226   2.553  14.119   5.966
 8777SOL     OW28227   7.745   0.246   6.013
 8777SOL    HW128228   7.674   0.277   5.956
 8777SOL    HW228229   7.736   0.151   6.013
 8778SOL     OW28230  13.653  13.100   6.579
 8778SOL    HW128231  13.564  13.065   6.578
 8778SOL    HW228232  13.676  13.110   6.486
 8779SOL     OW28233  11.162   9.410   5.530
 8779SOL    HW128234  11.091   9.403   5.467
 8779SOL    HW228235  11.120   9.399   5.615
 8780SOL     OW28236   9.384   3.840   5.587
 8780SOL    HW128237   9.317   3.772   5.591
 8780SOL    HW228238   9.389   3.863   5.495
 8781SOL     OW28239   8.567   5.598   4.616
 8781SOL    HW128240   8.647   5.631   4.575
 8781SOL    HW228241   8.590   5.510   4.647
 8782SOL     OW28242   5.378   7.541  11.493
 8782SOL    HW128243   5.343   7.455  11.468
 8782SOL    HW228244   5.405   7.581  11.410
 8783SOL     OW28245   8.907   7.325   8.458
 8783SOL    HW128246   8.872   7.414   8.454
 8783SOL    HW228247   8.950   7.312   8.374
 8784SOL     OW28248   6.402   5.344   8.033
 8784SOL    HW128249   6.357   5.305   7.958
 8784SOL    HW228250   6.350   5.317   8.109
 8785SOL     OW28251  10.437   6.823  12.055
 8785SOL    HW128252  10.432   6.727  12.045
 8785SOL    HW228253  10.481   6.836  12.139
 8786SOL     OW28254   2.153  13.401  12.027
 8786SOL    HW128255   2.126  13.323  12.076
 8786SOL    HW228256   2.123  13.384  11.938
 8787SOL     OW28257  12.445  12.160   1.084
 8787SOL    HW128258  12.407  12.172   0.997
 8787SOL    HW228259  12.528  12.207   1.081
 8788SOL     OW28260   2.213   1.685   6.800
 8788SOL    HW128261   2.290   1.728   6.835
 8788SOL    HW228262   2.173   1.749   6.741
 8789SOL     OW28263   4.709   7.719  13.074
 8789SOL    HW128264   4.651   7.678  13.010
 8789SOL    HW228265   4.714   7.810  13.047
 8790SOL     OW28266   1.785   9.875   6.870
 8790SOL    HW128267   1.759   9.819   6.797
 8790SOL    HW228268   1.759   9.963   6.844
 8791SOL     OW28269   6.627   2.156   0.942
 8791SOL    HW128270   6.686   2.084   0.918
 8791SOL    HW228271   6.681   2.214   0.997
 8792SOL     OW28272   5.573   1.704   1.797
 8792SOL    HW128273   5.667   1.714   1.787
 8792SOL    HW228274   5.563   1.641   1.870
 8793SOL     OW28275  12.958  11.126   3.321
 8793SOL    HW128276  12.863  11.119   3.329
 8793SOL    HW228277  12.990  11.139   3.410
 8794SOL     OW28278  10.571  12.523   9.347
 8794SOL    HW128279  10.515  12.499   9.274
 8794SOL    HW228280  10.659  12.523   9.311
 8795SOL     OW28281  13.528   5.560  10.684
 8795SOL    HW128282  13.443   5.601  10.673
 8795SOL    HW228283  13.563   5.552  10.596
 8796SOL     OW28284   7.728   8.184   9.896
 8796SOL    HW128285   7.824   8.184   9.898
 8796SOL    HW228286   7.705   8.092   9.909
 8797SOL     OW28287   9.444  14.554   7.051
 8797SOL    HW128288   9.483  14.522   7.132
 8797SOL    HW228289   9.489  14.507   6.981
 8798SOL     OW28290   2.367  14.273   8.585
 8798SOL    HW128291   2.380  14.293   8.492
 8798SOL    HW228292   2.276  14.243   8.591
 8799SOL     OW28293  14.262  14.675  11.142
 8799SOL    HW128294  14.337  14.631  11.104
 8799SOL    HW228295  14.188  14.616  11.126
 8800SOL     OW28296   2.111   9.608   3.782
 8800SOL    HW128297   2.095   9.698   3.810
 8800SOL    HW228298   2.205   9.605   3.764
 8801SOL     OW28299   1.234   9.266  12.006
 8801SOL    HW128300   1.280   9.294  12.085
 8801SOL    HW228301   1.149   9.310  12.010
 8802SOL     OW28302   9.896   7.004   9.225
 8802SOL    HW128303   9.937   6.973   9.144
 8802SOL    HW228304   9.838   6.932   9.251
 8803SOL     OW28305   8.549  10.979  11.177
 8803SOL    HW128306   8.607  11.055  11.169
 8803SOL    HW228307   8.464  11.011  11.145
 8804SOL     OW28308  14.721  14.490  12.563
 8804SOL    HW128309  14.796  14.545  12.537
 8804SOL    HW228310  14.649  14.552  12.573
 8805SOL     OW28311   6.241  14.609  12.426
 8805SOL    HW128312   6.290  14.601  12.344
 8805SOL    HW228313   6.272  14.691  12.464
 8806SOL     OW28314   5.402   8.526   8.380
 8806SOL    HW128315   5.308   8.523   8.363
 8806SOL    HW228316   5.442   8.511   8.295
 8807SOL     OW28317   1.743   5.863   1.516
 8807SOL    HW128318   1.666   5.859   1.573
 8807SOL    HW228319   1.747   5.777   1.475
 8808SOL     OW28320   4.771   0.106   6.701
 8808SOL    HW128321   4.852   0.098   6.650
 8808SOL    HW228322   4.780   0.040   6.770
 8809SOL     OW28323   6.898   5.551   6.211
 8809SOL    HW128324   6.980   5.595   6.235
 8809SOL    HW228325   6.893   5.561   6.116
 8810SOL     OW28326  12.089  11.432   3.078
 8810SOL    HW128327  12.046  11.347   3.084
 8810SOL    HW228328  12.077  11.458   2.987
 8811SOL     OW28329   9.683   6.527   0.466
 8811SOL    HW128330   9.756   6.507   0.408
 8811SOL    HW228331   9.711   6.604   0.515
 8812SOL     OW28332   1.452   0.848   4.157
 8812SOL    HW128333   1.457   0.921   4.219
 8812SOL    HW228334   1.497   0.880   4.079
 8813SOL     OW28335   5.544   0.738   4.760
 8813SOL    HW128336   5.506   0.652   4.773
 8813SOL    HW228337   5.624   0.722   4.709
 8814SOL     OW28338   7.445   8.917   9.543
 8814SOL    HW128339   7.505   8.918   9.618
 8814SOL    HW228340   7.451   8.827   9.510
 8815SOL     OW28341   8.833   5.078  12.274
 8815SOL    HW128342   8.844   5.154  12.218
 8815SOL    HW228343   8.922   5.057  12.303
 8816SOL     OW28344   3.262   1.723   0.562
 8816SOL    HW128345   3.220   1.801   0.598
 8816SOL    HW228346   3.355   1.733   0.585
 8817SOL     OW28347   0.596   2.857   2.964
 8817SOL    HW128348   0.517   2.865   2.911
 8817SOL    HW228349   0.591   2.931   3.025
 8818SOL     OW28350   3.109  10.717   2.314
 8818SOL    HW128351   3.128  10.652   2.381
 8818SOL    HW228352   3.158  10.795   2.341
 8819SOL     OW28353   1.546  13.183  10.656
 8819SOL    HW128354   1.610  13.113  10.643
 8819SOL    HW228355   1.599  13.263  10.660
 8820SOL     OW28356   8.035  13.817   2.541
 8820SOL    HW128357   8.096  13.872   2.591
 8820SOL    HW228358   7.972  13.786   2.606
 8821SOL     OW28359  12.621   7.693  11.382
 8821SOL    HW128360  12.676   7.640  11.324
 8821SOL    HW228361  12.590   7.632  11.449
 8822SOL     OW28362  14.032   0.730  13.347
 8822SOL    HW128363  14.039   0.762  13.437
 8822SOL    HW228364  14.107   0.767  13.302
 8823SOL     OW28365   8.383   4.207   0.303
 8823SOL    HW128366   8.327   4.158   0.244
 8823SOL    HW228367   8.350   4.187   0.391
 8824SOL     OW28368   3.085   6.215   0.125
 8824SOL    HW128369   3.125   6.164   0.055
 8824SOL    HW228370   3.159   6.262   0.165
 8825SOL     OW28371   6.295  13.019  14.384
 8825SOL    HW128372   6.350  12.947  14.414
 8825SOL    HW228373   6.255  12.986  14.303
 8826SOL     OW28374  11.606   3.979   7.800
 8826SOL    HW128375  11.615   4.000   7.707
 8826SOL    HW228376  11.659   3.901   7.812
 8827SOL     OW28377  13.856  10.923  13.456
 8827SOL    HW128378  13.908  10.931  13.376
 8827SOL    HW228379  13.908  10.868  13.514
 8828SOL     OW28380  12.318   3.379   9.582
 8828SOL    HW128381  12.245   3.376   9.644
 8828SOL    HW228382  12.392   3.344   9.631
 8829SOL     OW28383  13.844   8.201   6.083
 8829SOL    HW128384  13.925   8.151   6.073
 8829SOL    HW228385  13.854   8.274   6.022
 8830SOL     OW28386   9.175   8.962  10.694
 8830SOL    HW128387   9.089   8.966  10.651
 8830SOL    HW228388   9.219   8.888  10.651
 8831SOL     OW28389   2.686  10.682   6.019
 8831SOL    HW128390   2.710  10.766   5.980
 8831SOL    HW228391   2.760  10.659   6.075
 8832SOL     OW28392  12.534   7.388   9.099
 8832SOL    HW128393  12.489   7.349   9.024
 8832SOL    HW228394  12.465   7.427   9.152
 8833SOL     OW28395   1.444  14.380  14.574
 8833SOL    HW128396   1.493  14.388  14.655
 8833SOL    HW228397   1.509  14.392  14.505
 8834SOL     OW28398  13.451   6.073  14.339
 8834SOL    HW128399  13.537   6.056  14.302
 8834SOL    HW228400  13.442   6.169  14.336
 8835SOL     OW28401   7.705   3.877   0.191
 8835SOL    HW128402   7.649   3.799   0.188
 8835SOL    HW228403   7.649   3.948   0.159
 8836SOL     OW28404   8.956   1.869  12.765
 8836SOL    HW128405   8.990   1.956  12.783
 8836SOL    HW228406   8.890   1.855  12.834
 8837SOL     OW28407   6.759  10.150   9.750
 8837SOL    HW128408   6.731  10.154   9.658
 8837SOL    HW228409   6.854  10.157   9.747
 8838SOL     OW28410   2.629  12.361  10.740
 8838SOL    HW128411   2.636  12.345  10.835
 8838SOL    HW228412   2.538  12.388  10.727
 8839SOL     OW28413   4.975   3.166   0.355
 8839SOL    HW128414   4.923   3.202   0.283
 8839SOL    HW228415   4.964   3.071   0.348
 8840SOL     OW28416  11.377  13.670  11.780
 8840SOL    HW128417  11.472  13.681  11.786
 8840SOL    HW228418  11.366  13.577  11.757
 8841SOL     OW28419  11.735   9.714  14.656
 8841SOL    HW128420  11.682   9.680  14.584
 8841SOL    HW228421  11.671   9.747  14.719
 8842SOL     OW28422   0.088  12.595   8.587
 8842SOL    HW128423   0.114  12.686   8.604
 8842SOL    HW228424   0.055  12.564   8.671
 8843SOL     OW28425   9.039   8.926   6.124
 8843SOL    HW128426   8.962   8.874   6.149
 8843SOL    HW228427   9.033   9.004   6.179
 8844SOL     OW28428   4.695  12.994   2.719
 8844SOL    HW128429   4.630  12.925   2.707
 8844SOL    HW228430   4.761  12.955   2.776
 8845SOL     OW28431  10.966   9.173  11.594
 8845SOL    HW128432  10.984   9.201  11.684
 8845SOL    HW228433  10.988   9.080  11.594
 8846SOL     OW28434  12.402  11.927   1.235
 8846SOL    HW128435  12.378  11.970   1.318
 8846SOL    HW228436  12.380  11.991   1.168
 8847SOL     OW28437   0.476   8.536   8.946
 8847SOL    HW128438   0.531   8.459   8.934
 8847SOL    HW228439   0.423   8.515   9.023
 8848SOL     OW28440   7.737   9.903   4.926
 8848SOL    HW128441   7.705   9.989   4.954
 8848SOL    HW228442   7.793   9.921   4.851
 8849SOL     OW28443   9.332   0.395   3.253
 8849SOL    HW128444   9.354   0.450   3.178
 8849SOL    HW228445   9.238   0.379   3.244
 8850SOL     OW28446  10.803  14.099  10.179
 8850SOL    HW128447  10.756  14.150  10.114
 8850SOL    HW228448  10.764  14.012  10.174
 8851SOL     OW28449   6.583  11.126   1.371
 8851SOL    HW128450   6.502  11.166   1.340
 8851SOL    HW228451   6.650  11.194   1.361
 8852SOL     OW28452   5.998   3.943   6.400
 8852SOL    HW128453   5.905   3.941   6.420
 8852SOL    HW228454   6.021   4.036   6.402
 8853SOL     OW28455   3.838   6.846  11.338
 8853SOL    HW128456   3.778   6.880  11.272
 8853SOL    HW228457   3.920   6.891  11.322
 8854SOL     OW28458  10.344  12.266  14.694
 8854SOL    HW128459  10.264  12.258  14.746
 8854SOL    HW228460  10.313  12.272  14.603
 8855SOL     OW28461  14.756  10.333   9.757
 8855SOL    HW128462  14.742  10.310   9.849
 8855SOL    HW228463  14.832  10.281   9.730
 8856SOL     OW28464  14.395   8.516   8.785
 8856SOL    HW128465  14.399   8.599   8.738
 8856SOL    HW228466  14.353   8.537   8.868
 8857SOL     OW28467   1.299   8.115   3.659
 8857SOL    HW128468   1.217   8.095   3.704
 8857SOL    HW228469   1.297   8.060   3.580
 8858SOL     OW28470  12.869  13.218   1.843
 8858SOL    HW128471  12.910  13.244   1.926
 8858SOL    HW228472  12.776  13.217   1.862
 8859SOL     OW28473  10.201   1.507   0.162
 8859SOL    HW128474  10.123   1.471   0.204
 8859SOL    HW228475  10.178   1.599   0.145
 8860SOL     OW28476   0.078   6.747   7.661
 8860SOL    HW128477   0.050   6.797   7.737
 8860SOL    HW228478   0.094   6.813   7.593
 8861SOL     OW28479   6.821   9.806   2.096
 8861SOL    HW128480   6.782   9.787   2.011
 8861SOL    HW228481   6.748   9.802   2.157
 8862SOL     OW28482   9.943   0.837   8.980
 8862SOL    HW128483   9.967   0.901   8.913
 8862SOL    HW228484  10.011   0.848   9.048
 8863SOL     OW28485   4.052   9.530   3.023
 8863SOL    HW128486   4.059   9.552   3.116
 8863SOL    HW228487   3.959   9.511   3.010
 8864SOL     OW28488   7.473   1.178   8.071
 8864SOL    HW128489   7.463   1.218   7.985
 8864SOL    HW228490   7.560   1.206   8.100
 8865SOL     OW28491   2.048   0.175   0.183
 8865SOL    HW128492   1.967   0.225   0.193
 8865SOL    HW228493   2.030   0.091   0.226
 8866SOL     OW28494   4.711   1.122   4.392
 8866SOL    HW128495   4.736   1.127   4.484
 8866SOL    HW228496   4.688   1.212   4.369
 8867SOL     OW28497  12.256   0.307   2.234
 8867SOL    HW128498  12.286   0.236   2.291
 8867SOL    HW228499  12.335   0.343   2.196
 8868SOL     OW28500  13.995  11.009   8.773
 8868SOL    HW128501  14.013  10.949   8.700
 8868SOL    HW228502  13.912  11.051   8.749
 8869SOL     OW28503  11.683   8.137   3.152
 8869SOL    HW128504  11.682   8.220   3.103
 8869SOL    HW228505  11.757   8.145   3.212
 8870SOL     OW28506   0.373   0.409   8.120
 8870SOL    HW128507   0.313   0.482   8.105
 8870SOL    HW228508   0.345   0.372   8.204
 8871SOL     OW28509  12.236   8.417   4.641
 8871SOL    HW128510  12.272   8.382   4.723
 8871SOL    HW228511  12.254   8.350   4.576
 8872SOL     OW28512   9.966  14.449   6.233
 8872SOL    HW128513   9.890  14.488   6.189
 8872SOL    HW228514   9.934  14.364   6.265
 8873SOL     OW28515  11.882   4.664   1.982
 8873SOL    HW128516  11.841   4.729   1.925
 8873SOL    HW228517  11.972   4.696   1.993
 8874SOL     OW28518  14.230   7.845  10.895
 8874SOL    HW128519  14.190   7.884  10.973
 8874SOL    HW228520  14.164   7.855  10.826
 8875SOL     OW28521   9.246   7.430   3.324
 8875SOL    HW128522   9.311   7.468   3.264
 8875SOL    HW228523   9.172   7.408   3.269
 8876SOL     OW28524   2.607  11.350   7.567
 8876SOL    HW128525   2.627  11.277   7.509
 8876SOL    HW228526   2.524  11.385   7.534
 8877SOL     OW28527  13.371   2.582  12.767
 8877SOL    HW128528  13.395   2.513  12.705
 8877SOL    HW228529  13.285   2.611  12.739
 8878SOL     OW28530   7.182   5.937   1.057
 8878SOL    HW128531   7.244   5.967   0.990
 8878SOL    HW228532   7.205   5.986   1.135
 8879SOL     OW28533   7.341   2.781   1.270
 8879SOL    HW128534   7.315   2.859   1.222
 8879SOL    HW228535   7.279   2.714   1.240
 8880SOL     OW28536   5.571  13.137   7.535
 8880SOL    HW128537   5.614  13.159   7.618
 8880SOL    HW228538   5.632  13.167   7.468
 8881SOL     OW28539   7.993   7.062   6.437
 8881SOL    HW128540   8.080   7.096   6.416
 8881SOL    HW228541   7.956   7.036   6.353
 8882SOL     OW28542  14.153  11.046   5.957
 8882SOL    HW128543  14.246  11.026   5.956
 8882SOL    HW228544  14.135  11.081   5.870
 8883SOL     OW28545   3.485  10.074   3.194
 8883SOL    HW128546   3.425  10.118   3.134
 8883SOL    HW228547   3.509  10.142   3.258
 8884SOL     OW28548  12.661   6.506  10.934
 8884SOL    HW128549  12.639   6.598  10.918
 8884SOL    HW228550  12.671   6.500  11.029
 8885SOL     OW28551  13.808   7.500   3.621
 8885SOL    HW128552  13.811   7.527   3.713
 8885SOL    HW228553  13.802   7.582   3.572
 8886SOL     OW28554   5.441   0.958   7.452
 8886SOL    HW128555   5.424   1.024   7.385
 8886SOL    HW228556   5.380   0.887   7.432
 8887SOL     OW28557   6.182   6.550  10.398
 8887SOL    HW128558   6.253   6.504  10.353
 8887SOL    HW228559   6.225   6.594  10.471
 8888SOL     OW28560   4.243  10.341   8.625
 8888SOL    HW128561   4.308  10.328   8.694
 8888SOL    HW228562   4.255  10.267   8.566
 8889SOL     OW28563  10.883   3.171  14.257
 8889SOL    HW128564  10.792   3.201  14.266
 8889SOL    HW228565  10.915   3.166  14.347
 8890SOL     OW28566   9.960   7.439   2.485
 8890SOL    HW128567   9.944   7.352   2.450
 8890SOL    HW228568  10.005   7.424   2.569
 8891SOL     OW28569   2.380   4.977  10.124
 8891SOL    HW128570   2.430   5.059  10.125
 8891SOL    HW228571   2.422   4.923  10.191
 8892SOL     OW28572   4.957  14.419   1.042
 8892SOL    HW128573   5.033  14.406   0.985
 8892SOL    HW228574   4.994  14.429   1.130
 8893SOL     OW28575   9.456   3.328   9.643
 8893SOL    HW128576   9.497   3.257   9.693
 8893SOL    HW228577   9.453   3.296   9.553
 8894SOL     OW28578  10.356   1.296  13.235
 8894SOL    HW128579  10.374   1.322  13.145
 8894SOL    HW228580  10.411   1.219  13.249
 8895SOL     OW28581   4.526   7.415   8.955
 8895SOL    HW128582   4.558   7.379   8.873
 8895SOL    HW228583   4.527   7.342   9.016
 8896SOL     OW28584  14.314   8.618  13.060
 8896SOL    HW128585  14.321   8.609  12.965
 8896SOL    HW228586  14.405   8.624  13.090
 8897SOL     OW28587  11.073   5.985   0.766
 8897SOL    HW128588  11.016   5.931   0.711
 8897SOL    HW228589  11.061   5.950   0.855
 8898SOL     OW28590   8.721   6.712  14.146
 8898SOL    HW128591   8.734   6.647  14.078
 8898SOL    HW228592   8.809   6.735  14.175
 8899SOL     OW28593   9.557  12.701  13.381
 8899SOL    HW128594   9.565  12.641  13.307
 8899SOL    HW228595   9.552  12.644  13.458
 8900SOL     OW28596  13.970   3.146   5.758
 8900SOL    HW128597  14.026   3.151   5.681
 8900SOL    HW228598  13.902   3.212   5.743
 8901SOL     OW28599   2.843   7.270   2.808
 8901SOL    HW128600   2.847   7.346   2.867
 8901SOL    HW228601   2.809   7.199   2.863
 8902SOL     OW28602   3.271   0.569   3.891
 8902SOL    HW128603   3.177   0.568   3.908
 8902SOL    HW228604   3.294   0.476   3.880
 8903SOL     OW28605   7.198   0.589   4.257
 8903SOL    HW128606   7.117   0.566   4.211
 8903SOL    HW228607   7.265   0.586   4.189
 8904SOL     OW28608  14.558   2.010   1.138
 8904SOL    HW128609  14.554   1.915   1.153
 8904SOL    HW228610  14.528   2.048   1.221
 8905SOL     OW28611  14.828  10.115   8.866
 8905SOL    HW128612  14.790  10.169   8.935
 8905SOL    HW228613   0.009  10.047   8.912
 8906SOL     OW28614   2.776  10.727  14.717
 8906SOL    HW128615   2.736  10.640  14.718
 8906SOL    HW228616   2.743  10.768  14.637
 8907SOL     OW28617  13.966  10.155   4.707
 8907SOL    HW128618  13.886  10.144   4.759
 8907SOL    HW228619  13.983  10.249   4.708
 8908SOL     OW28620  14.375  13.732   4.933
 8908SOL    HW128621  14.444  13.794   4.907
 8908SOL    HW228622  14.333  13.709   4.850
 8909SOL     OW28623   6.143   1.994  11.810
 8909SOL    HW128624   6.101   2.036  11.885
 8909SOL    HW228625   6.191   2.064  11.766
 8910SOL     OW28626   7.634   3.988   2.958
 8910SOL    HW128627   7.723   3.977   2.925
 8910SOL    HW228628   7.579   3.942   2.894
 8911SOL     OW28629  10.093   1.617   9.509
 8911SOL    HW128630  10.043   1.549   9.464
 8911SOL    HW228631  10.051   1.626   9.594
 8912SOL     OW28632  14.514   3.831   6.662
 8912SOL    HW128633  14.510   3.812   6.568
 8912SOL    HW228634  14.464   3.912   6.672
 8913SOL     OW28635   7.714   1.287   7.682
 8913SOL    HW128636   7.686   1.278   7.591
 8913SOL    HW228637   7.795   1.236   7.687
 8914SOL     OW28638   6.073   2.335   4.240
 8914SOL    HW128639   6.006   2.282   4.284
 8914SOL    HW228640   6.092   2.287   4.160
 8915SOL     OW28641  13.570  12.197   5.143
 8915SOL    HW128642  13.571  12.104   5.166
 8915SOL    HW228643  13.524  12.200   5.060
 8916SOL     OW28644  14.173   7.867  11.830
 8916SOL    HW128645  14.125   7.786  11.812
 8916SOL    HW228646  14.205   7.896  11.744
 8917SOL     OW28647   0.649   2.866  10.845
 8917SOL    HW128648   0.670   2.792  10.902
 8917SOL    HW228649   0.679   2.943  10.893
 8918SOL     OW28650   1.539   7.674  14.169
 8918SOL    HW128651   1.622   7.719  14.180
 8918SOL    HW228652   1.540   7.604  14.235
 8919SOL     OW28653   7.778   3.193  13.254
 8919SOL    HW128654   7.845   3.259  13.236
 8919SOL    HW228655   7.819   3.134  13.317
 8920SOL     OW28656   7.845   2.336   5.509
 8920SOL    HW128657   7.813   2.416   5.550
 8920SOL    HW228658   7.926   2.362   5.465
 8921SOL     OW28659   2.340   1.424   2.323
 8921SOL    HW128660   2.364   1.454   2.235
 8921SOL    HW228661   2.413   1.449   2.379
 8922SOL     OW28662   7.327   0.605   3.194
 8922SOL    HW128663   7.309   0.612   3.101
 8922SOL    HW228664   7.382   0.527   3.203
 8923SOL     OW28665   0.492   2.925   8.441
 8923SOL    HW128666   0.545   2.846   8.452
 8923SOL    HW228667   0.408   2.894   8.408
 8924SOL     OW28668   2.436   4.472   2.937
 8924SOL    HW128669   2.345   4.443   2.926
 8924SOL    HW228670   2.479   4.399   2.981
 8925SOL     OW28671   5.041  14.081   9.470
 8925SOL    HW128672   5.009  14.123   9.550
 8925SOL    HW228673   5.075  14.153   9.417
 8926SOL     OW28674   0.480   3.647  11.606
 8926SOL    HW128675   0.562   3.697  11.612
 8926SOL    HW228676   0.458   3.647  11.513
 8927SOL     OW28677  10.330   6.696   2.012
 8927SOL    HW128678  10.333   6.654   2.097
 8927SOL    HW228679  10.253   6.660   1.969
 8928SOL     OW28680  13.061   4.627   3.030
 8928SOL    HW128681  12.985   4.569   3.039
 8928SOL    HW228682  13.112   4.588   2.959
 8929SOL     OW28683   7.725   5.303   2.478
 8929SOL    HW128684   7.746   5.391   2.445
 8929SOL    HW228685   7.743   5.308   2.572
 8930SOL     OW28686   1.488   4.606   8.630
 8930SOL    HW128687   1.430   4.670   8.590
 8930SOL    HW228688   1.493   4.631   8.722
 8931SOL     OW28689   3.335  10.582  14.637
 8931SOL    HW128690   3.279  10.524  14.584
 8931SOL    HW228691   3.383  10.523  14.694
 8932SOL     OW28692   2.208  11.590   1.545
 8932SOL    HW128693   2.219  11.495   1.537
 8932SOL    HW228694   2.114  11.602   1.557
 8933SOL     OW28695   9.380   6.169   1.644
 8933SOL    HW128696   9.380   6.248   1.698
 8933SOL    HW228697   9.328   6.193   1.567
 8934SOL     OW28698   0.106   5.253  13.950
 8934SOL    HW128699   0.112   5.286  14.039
 8934SOL    HW228700   0.197   5.241  13.922
 8935SOL     OW28701   8.987   8.588   9.960
 8935SOL    HW128702   8.960   8.513  10.013
 8935SOL    HW228703   8.909   8.643   9.954
 8936SOL     OW28704   3.150   0.619   5.922
 8936SOL    HW128705   3.229   0.566   5.926
 8936SOL    HW228706   3.180   0.706   5.896
 8937SOL     OW28707  14.491   2.651   7.394
 8937SOL    HW128708  14.583   2.646   7.365
 8937SOL    HW228709  14.450   2.710   7.331
 8938SOL     OW28710   6.786  11.453   2.269
 8938SOL    HW128711   6.727  11.492   2.334
 8938SOL    HW228712   6.734  11.383   2.230
 8939SOL     OW28713   6.310   5.504   0.601
 8939SOL    HW128714   6.269   5.419   0.620
 8939SOL    HW228715   6.307   5.511   0.506
 8940SOL     OW28716   4.969   2.561  14.059
 8940SOL    HW128717   4.902   2.581  13.993
 8940SOL    HW228718   5.043   2.527  14.008
 8941SOL     OW28719  13.053   7.972   8.801
 8941SOL    HW128720  13.102   8.032   8.745
 8941SOL    HW228721  12.962   7.981   8.772
 8942SOL     OW28722   5.368   0.383   2.387
 8942SOL    HW128723   5.434   0.390   2.318
 8942SOL    HW228724   5.382   0.460   2.442
 8943SOL     OW28725   3.787  13.287   4.745
 8943SOL    HW128726   3.810  13.379   4.730
 8943SOL    HW228727   3.832  13.264   4.826
 8944SOL     OW28728  13.358   6.383  12.984
 8944SOL    HW128729  13.287   6.320  12.969
 8944SOL    HW228730  13.361   6.394  13.079
 8945SOL     OW28731  12.253   0.841   6.411
 8945SOL    HW128732  12.258   0.746   6.408
 8945SOL    HW228733  12.298   0.865   6.493
 8946SOL     OW28734  14.214   8.337   6.186
 8946SOL    HW128735  14.156   8.388   6.241
 8946SOL    HW228736  14.257   8.275   6.245
 8947SOL     OW28737   4.139   1.524   1.602
 8947SOL    HW128738   4.194   1.587   1.649
 8947SOL    HW228739   4.066   1.577   1.570
 8948SOL     OW28740  11.504  11.222   7.354
 8948SOL    HW128741  11.438  11.292   7.355
 8948SOL    HW228742  11.453  11.141   7.352
 8949SOL     OW28743   6.549  12.542   9.875
 8949SOL    HW128744   6.539  12.623   9.825
 8949SOL    HW228745   6.550  12.569   9.966
 8950SOL     OW28746  12.117   3.460   4.057
 8950SOL    HW128747  12.122   3.552   4.032
 8950SOL    HW228748  12.065   3.419   3.988
 8951SOL     OW28749   0.579   2.582   1.101
 8951SOL    HW128750   0.586   2.511   1.037
 8951SOL    HW228751   0.601   2.661   1.052
 8952SOL     OW28752  11.048   0.194   9.297
 8952SOL    HW128753  11.019   0.203   9.206
 8952SOL    HW228754  10.967   0.183   9.347
 8953SOL     OW28755   2.098  14.601   5.763
 8953SOL    HW128756   2.118  14.646   5.844
 8953SOL    HW228757   2.003  14.610   5.753
 8954SOL     OW28758  13.173  12.825   2.433
 8954SOL    HW128759  13.151  12.838   2.341
 8954SOL    HW228760  13.140  12.738   2.454
 8955SOL     OW28761  14.774   7.208   7.964
 8955SOL    HW128762  14.708   7.221   8.032
 8955SOL    HW228763  14.852   7.251   7.999
 8956SOL     OW28764  14.045   8.430   1.118
 8956SOL    HW128765  14.051   8.372   1.194
 8956SOL    HW228766  14.002   8.377   1.051
 8957SOL     OW28767  13.637  12.533   2.781
 8957SOL    HW128768  13.545  12.523   2.808
 8957SOL    HW228769  13.632  12.571   2.694
 8958SOL     OW28770   8.963   7.560   7.930
 8958SOL    HW128771   8.905   7.581   7.857
 8958SOL    HW228772   9.005   7.643   7.952
 8959SOL     OW28773   9.777  13.163   2.173
 8959SOL    HW128774   9.767  13.258   2.173
 8959SOL    HW228775   9.738  13.134   2.091
 8960SOL     OW28776   5.273  10.456  13.439
 8960SOL    HW128777   5.186  10.484  13.411
 8960SOL    HW228778   5.257  10.376  13.489
 8961SOL     OW28779  11.865   1.769   8.550
 8961SOL    HW128780  11.911   1.687   8.532
 8961SOL    HW228781  11.829   1.795   8.466
 8962SOL     OW28782  13.011   0.250   2.007
 8962SOL    HW128783  13.027   0.335   1.968
 8962SOL    HW228784  13.031   0.262   2.100
 8963SOL     OW28785   2.310   4.909  14.549
 8963SOL    HW128786   2.263   4.836  14.509
 8963SOL    HW228787   2.340   4.962  14.475
 8964SOL     OW28788   5.588  11.514   5.935
 8964SOL    HW128789   5.536  11.576   5.986
 8964SOL    HW228790   5.536  11.500   5.855
 8965SOL     OW28791   5.465  10.448  12.629
 8965SOL    HW128792   5.431  10.480  12.545
 8965SOL    HW228793   5.556  10.479  12.631
 8966SOL     OW28794   0.423   3.826   4.395
 8966SOL    HW128795   0.448   3.789   4.311
 8966SOL    HW228796   0.368   3.902   4.373
 8967SOL     OW28797   3.392   8.708   1.587
 8967SOL    HW128798   3.407   8.658   1.507
 8967SOL    HW228799   3.475   8.753   1.604
 8968SOL     OW28800  11.436   8.882   7.770
 8968SOL    HW128801  11.449   8.854   7.679
 8968SOL    HW228802  11.344   8.861   7.788
 8969SOL     OW28803   6.210  11.773  13.667
 8969SOL    HW128804   6.197  11.680  13.646
 8969SOL    HW228805   6.252  11.809  13.589
 8970SOL     OW28806   9.288  13.769  14.267
 8970SOL    HW128807   9.272  13.780  14.360
 8970SOL    HW228808   9.363  13.709  14.262
 8971SOL     OW28809  13.300  12.767   6.784
 8971SOL    HW128810  13.212  12.801   6.798
 8971SOL    HW228811  13.315  12.709   6.859
 8972SOL     OW28812   2.384   8.085   5.467
 8972SOL    HW128813   2.456   8.137   5.432
 8972SOL    HW228814   2.306   8.138   5.452
 8973SOL     OW28815  10.035   0.275  11.735
 8973SOL    HW128816  10.048   0.187  11.699
 8973SOL    HW228817   9.974   0.262  11.808
 8974SOL     OW28818  13.443   0.154   8.772
 8974SOL    HW128819  13.415   0.081   8.827
 8974SOL    HW228820  13.385   0.150   8.696
 8975SOL     OW28821   0.089   8.004  14.706
 8975SOL    HW128822   0.177   7.971  14.689
 8975SOL    HW228823   0.031   7.933  14.679
 8976SOL     OW28824  13.136  10.995   4.867
 8976SOL    HW128825  13.157  11.022   4.956
 8976SOL    HW228826  13.101  10.907   4.876
 8977SOL     OW28827  13.208   5.446  14.327
 8977SOL    HW128828  13.117   5.463  14.350
 8977SOL    HW228829  13.225   5.356  14.355
 8978SOL     OW28830  10.010   5.593   0.187
 8978SOL    HW128831   9.917   5.601   0.165
 8978SOL    HW228832  10.035   5.680   0.216
 8979SOL     OW28833   3.339   2.467  11.097
 8979SOL    HW128834   3.414   2.520  11.069
 8979SOL    HW228835   3.367   2.377  11.080
 8980SOL     OW28836  10.524  13.477  13.205
 8980SOL    HW128837  10.581  13.455  13.131
 8980SOL    HW228838  10.550  13.565  13.230
 8981SOL     OW28839  12.424  14.381   7.887
 8981SOL    HW128840  12.404  14.391   7.794
 8981SOL    HW228841  12.356  14.323   7.920
 8982SOL     OW28842  13.509  10.870  14.272
 8982SOL    HW128843  13.464  10.841  14.193
 8982SOL    HW228844  13.462  10.949  14.299
 8983SOL     OW28845   7.382   2.879   8.692
 8983SOL    HW128846   7.407   2.955   8.745
 8983SOL    HW228847   7.465   2.833   8.677
 8984SOL     OW28848  10.144   4.066   5.167
 8984SOL    HW128849  10.127   4.054   5.074
 8984SOL    HW228850  10.233   4.033   5.180
 8985SOL     OW28851  14.481   1.153   9.483
 8985SOL    HW128852  14.549   1.148   9.416
 8985SOL    HW228853  14.402   1.120   9.440
 8986SOL     OW28854  10.191   8.659   6.281
 8986SOL    HW128855  10.148   8.619   6.357
 8986SOL    HW228856  10.131   8.642   6.208
 8987SOL     OW28857  12.730   7.556  11.666
 8987SOL    HW128858  12.808   7.602  11.634
 8987SOL    HW228859  12.661   7.623  11.664
 8988SOL     OW28860   9.477   8.404   1.509
 8988SOL    HW128861   9.493   8.316   1.475
 8988SOL    HW228862   9.435   8.390   1.594
 8989SOL     OW28863   7.999   3.733   7.819
 8989SOL    HW128864   8.004   3.823   7.788
 8989SOL    HW228865   8.080   3.720   7.868
 8990SOL     OW28866  11.052  11.842   1.585
 8990SOL    HW128867  11.047  11.767   1.526
 8990SOL    HW228868  10.990  11.905   1.549
 8991SOL     OW28869  12.768   1.512   8.536
 8991SOL    HW128870  12.799   1.427   8.567
 8991SOL    HW228871  12.841   1.546   8.483
 8992SOL     OW28872   3.265   0.810  14.172
 8992SOL    HW128873   3.358   0.813  14.193
 8992SOL    HW228874   3.249   0.720  14.145
 8993SOL     OW28875   0.462  11.370  10.483
 8993SOL    HW128876   0.385  11.345  10.432
 8993SOL    HW228877   0.512  11.290  10.492
 8994SOL     OW28878   8.571  13.045   4.651
 8994SOL    HW128879   8.629  12.974   4.623
 8994SOL    HW228880   8.523  13.008   4.726
 8995SOL     OW28881   5.875   0.218  13.037
 8995SOL    HW128882   5.951   0.210  13.094
 8995SOL    HW228883   5.886   0.302  12.994
 8996SOL     OW28884   0.913  14.424  10.129
 8996SOL    HW128885   0.912  14.504  10.181
 8996SOL    HW228886   0.897  14.354  10.192
 8997SOL     OW28887   2.402  13.737  13.750
 8997SOL    HW128888   2.345  13.791  13.694
 8997SOL    HW228889   2.443  13.799  13.809
 8998SOL     OW28890   1.780   3.520  13.431
 8998SOL    HW128891   1.691   3.552  13.450
 8998SOL    HW228892   1.783   3.433  13.472
 8999SOL     OW28893   6.491   5.658   0.041
 8999SOL    HW128894   6.424   5.682  14.844
 8999SOL    HW228895   6.510   5.566   0.023
 9000SOL     OW28896   9.127   0.645  11.110
 9000SOL    HW128897   9.127   0.628  11.016
 9000SOL    HW228898   9.209   0.606  11.142
 9001SOL     OW28899  10.887   0.561  12.451
 9001SOL    HW128900  10.942   0.499  12.404
 9001SOL    HW228901  10.868   0.518  12.534
 9002SOL     OW28902   4.136   3.736  14.264
 9002SOL    HW128903   4.160   3.735  14.171
 9002SOL    HW228904   4.041   3.750  14.263
 9003SOL     OW28905   4.262   9.916   1.908
 9003SOL    HW128906   4.302   9.847   1.856
 9003SOL    HW228907   4.194   9.953   1.852
 9004SOL     OW28908   6.042   5.077  14.567
 9004SOL    HW128909   6.085   5.131  14.502
 9004SOL    HW228910   6.082   4.991  14.557
 9005SOL     OW28911  14.175   6.934  14.301
 9005SOL    HW128912  14.234   6.884  14.358
 9005SOL    HW228913  14.227   7.011  14.275
 9006SOL     OW28914  14.075   2.881   8.753
 9006SOL    HW128915  14.023   2.903   8.676
 9006SOL    HW228916  14.165   2.905   8.729
 9007SOL     OW28917   7.094   2.212  11.872
 9007SOL    HW128918   7.015   2.262  11.852
 9007SOL    HW228919   7.122   2.176  11.787
 9008SOL     OW28920   7.886   3.682   0.044
 9008SOL    HW128921   7.967   3.703   0.091
 9008SOL    HW228922   7.825   3.753   0.067
 9009SOL     OW28923   3.522  10.414  10.372
 9009SOL    HW128924   3.605  10.460  10.382
 9009SOL    HW228925   3.523  10.381  10.282
 9010SOL     OW28926  12.997   3.753   9.321
 9010SOL    HW128927  12.958   3.690   9.382
 9010SOL    HW228928  12.964   3.838   9.351
 9011SOL     OW28929   5.534   3.494  13.867
 9011SOL    HW128930   5.612   3.459  13.824
 9011SOL    HW228931   5.535   3.455  13.954
 9012SOL     OW28932  10.994  12.045   3.258
 9012SOL    HW128933  10.982  12.130   3.299
 9012SOL    HW228934  11.065  12.004   3.308
 9013SOL     OW28935   5.907  14.815   5.241
 9013SOL    HW128936   5.965   0.011   5.283
 9013SOL    HW228937   5.928  14.822   5.147
 9014SOL     OW28938   5.501  14.026   1.163
 9014SOL    HW128939   5.551  14.107   1.146
 9014SOL    HW228940   5.453  14.045   1.243
 9015SOL     OW28941  13.920   5.718   0.089
 9015SOL    HW128942  14.010   5.739   0.067
 9015SOL    HW228943  13.919   5.712   0.185
 9016SOL     OW28944   4.667   2.159  11.464
 9016SOL    HW128945   4.741   2.216  11.445
 9016SOL    HW228946   4.703   2.088  11.517
 9017SOL     OW28947  12.642   9.637  11.858
 9017SOL    HW128948  12.607   9.723  11.836
 9017SOL    HW228949  12.662   9.642  11.951
 9018SOL     OW28950   2.930   0.598   2.695
 9018SOL    HW128951   3.018   0.600   2.656
 9018SOL    HW228952   2.881   0.537   2.639
 9019SOL     OW28953   0.875   1.019   4.194
 9019SOL    HW128954   0.890   0.925   4.181
 9019SOL    HW228955   0.895   1.034   4.286
 9020SOL     OW28956  14.559  11.597   9.870
 9020SOL    HW128957  14.476  11.608   9.917
 9020SOL    HW228958  14.550  11.652   9.792
 9021SOL     OW28959  11.763  10.438  11.211
 9021SOL    HW128960  11.802  10.460  11.127
 9021SOL    HW228961  11.688  10.382  11.190
 9022SOL     OW28962  10.447   3.547   4.254
 9022SOL    HW128963  10.389   3.480   4.292
 9022SOL    HW228964  10.434   3.540   4.160
 9023SOL     OW28965   6.277   4.734   3.927
 9023SOL    HW128966   6.281   4.808   3.988
 9023SOL    HW228967   6.345   4.753   3.862
 9024SOL     OW28968  14.270   6.197  13.697
 9024SOL    HW128969  14.175   6.188  13.710
 9024SOL    HW228970  14.291   6.129  13.633
 9025SOL     OW28971   9.705  12.032   3.285
 9025SOL    HW128972   9.675  12.071   3.203
 9025SOL    HW228973   9.672  12.091   3.353
 9026SOL     OW28974  13.555   1.145  14.764
 9026SOL    HW128975  13.460   1.159  14.764
 9026SOL    HW228976  13.568   1.069  14.708
 9027SOL     OW28977  13.042  14.034   0.086
 9027SOL    HW128978  13.119  14.090   0.076
 9027SOL    HW228979  13.034  13.990   0.001
 9028SOL     OW28980  13.607   9.934   2.738
 9028SOL    HW128981  13.549   9.963   2.667
 9028SOL    HW228982  13.690   9.979   2.721
 9029SOL     OW28983  13.455  10.209  13.643
 9029SOL    HW128984  13.411  10.289  13.613
 9029SOL    HW228985  13.516  10.187  13.573
 9030SOL     OW28986  12.380  11.844  11.068
 9030SOL    HW128987  12.329  11.765  11.047
 9030SOL    HW228988  12.398  11.884  10.983
 9031SOL     OW28989   6.150   6.115   4.576
 9031SOL    HW128990   6.123   6.178   4.643
 9031SOL    HW228991   6.172   6.170   4.500
 9032SOL     OW28992  10.984   8.666   0.774
 9032SOL    HW128993  10.956   8.628   0.857
 9032SOL    HW228994  11.078   8.649   0.770
 9033SOL     OW28995  11.395  11.636   0.760
 9033SOL    HW128996  11.472  11.649   0.814
 9033SOL    HW228997  11.332  11.594   0.819
 9034SOL     OW28998   7.539  13.230   5.527
 9034SOL    HW128999   7.513  13.244   5.618
 9034SOL    HW229000   7.548  13.319   5.491
 9035SOL     OW29001   7.991  13.332   4.418
 9035SOL    HW129002   8.038  13.391   4.358
 9035SOL    HW229003   8.051  13.259   4.432
 9036SOL     OW29004   0.916  11.881   7.373
 9036SOL    HW129005   0.932  11.872   7.467
 9036SOL    HW229006   0.951  11.800   7.335
 9037SOL     OW29007   5.954  13.490  11.068
 9037SOL    HW129008   5.978  13.482  11.160
 9037SOL    HW229009   5.891  13.419  11.053
 9038SOL     OW29010   4.446   3.902  11.343
 9038SOL    HW129011   4.458   3.840  11.271
 9038SOL    HW229012   4.426   3.846  11.419
 9039SOL     OW29013   2.412  10.284  13.250
 9039SOL    HW129014   2.453  10.218  13.194
 9039SOL    HW229015   2.475  10.299  13.320
 9040SOL     OW29016  10.339   8.353  14.803
 9040SOL    HW129017  10.319   8.430  14.857
 9040SOL    HW229018  10.427   8.370  14.769
 9041SOL     OW29019  10.812   3.756   2.156
 9041SOL    HW129020  10.863   3.723   2.083
 9041SOL    HW229021  10.808   3.683   2.218
 9042SOL     OW29022  12.143  10.609   6.630
 9042SOL    HW129023  12.113  10.522   6.658
 9042SOL    HW229024  12.221  10.591   6.577
 9043SOL     OW29025   3.078   0.382   5.030
 9043SOL    HW129026   3.048   0.473   5.033
 9043SOL    HW229027   2.999   0.331   5.009
 9044SOL     OW29028   0.580   1.335   8.567
 9044SOL    HW129029   0.493   1.375   8.567
 9044SOL    HW229030   0.575   1.267   8.499
 9045SOL     OW29031   8.458   3.546   1.833
 9045SOL    HW129032   8.408   3.498   1.766
 9045SOL    HW229033   8.475   3.631   1.793
 9046SOL     OW29034   3.941   7.023   3.776
 9046SOL    HW129035   4.024   6.978   3.791
 9046SOL    HW229036   3.876   6.966   3.816
 9047SOL     OW29037  14.701   8.891   4.221
 9047SOL    HW129038  14.656   8.945   4.156
 9047SOL    HW229039  14.648   8.812   4.229
 9048SOL     OW29040  11.372  13.106   5.977
 9048SOL    HW129041  11.438  13.083   5.912
 9048SOL    HW229042  11.341  13.192   5.950
 9049SOL     OW29043   9.629  14.271  12.865
 9049SOL    HW129044   9.647  14.196  12.808
 9049SOL    HW229045   9.711  14.319  12.869
 9050SOL     OW29046   7.946  14.786  11.780
 9050SOL    HW129047   7.900  14.726  11.722
 9050SOL    HW229048   8.033  14.796  11.741
 9051SOL     OW29049   2.344  11.170   9.936
 9051SOL    HW129050   2.406  11.111   9.892
 9051SOL    HW229051   2.391  11.202  10.012
 9052SOL     OW29052   1.148   5.904   1.069
 9052SOL    HW129053   1.147   5.995   1.100
 9052SOL    HW229054   1.175   5.910   0.978
 9053SOL     OW29055  14.080   5.446   4.739
 9053SOL    HW129056  14.168   5.482   4.752
 9053SOL    HW229057  14.088   5.354   4.763
 9054SOL     OW29058  12.913   5.031  13.784
 9054SOL    HW129059  12.898   4.981  13.864
 9054SOL    HW229060  12.972   5.101  13.810
 9055SOL     OW29061   5.493  14.387   6.598
 9055SOL    HW129062   5.449  14.450   6.655
 9055SOL    HW229063   5.453  14.400   6.512
 9056SOL     OW29064   3.150   6.706  13.776
 9056SOL    HW129065   3.233   6.745  13.749
 9056SOL    HW229066   3.141   6.730  13.868
 9057SOL     OW29067   9.302  12.866   3.129
 9057SOL    HW129068   9.365  12.938   3.123
 9057SOL    HW229069   9.334  12.800   3.068
 9058SOL     OW29070   5.098  13.518   8.161
 9058SOL    HW129071   5.140  13.548   8.080
 9058SOL    HW229072   5.140  13.434   8.180
 9059SOL     OW29073   2.278   7.971   0.524
 9059SOL    HW129074   2.247   8.028   0.594
 9059SOL    HW229075   2.244   8.011   0.444
 9060SOL     OW29076  14.047  11.370  12.520
 9060SOL    HW129077  14.083  11.374  12.432
 9060SOL    HW229078  13.957  11.400  12.512
 9061SOL     OW29079   2.971   1.258  13.637
 9061SOL    HW129080   2.932   1.244  13.550
 9061SOL    HW229081   2.899   1.241  13.697
 9062SOL     OW29082   0.612   8.828  11.685
 9062SOL    HW129083   0.621   8.869  11.599
 9062SOL    HW229084   0.637   8.737  11.672
 9063SOL     OW29085   0.613   1.762  14.660
 9063SOL    HW129086   0.560   1.802  14.592
 9063SOL    HW229087   0.598   1.815  14.738
 9064SOL     OW29088  10.409  13.874  12.157
 9064SOL    HW129089  10.343  13.840  12.218
 9064SOL    HW229090  10.441  13.954  12.199
 9065SOL     OW29091   1.092  14.081   5.208
 9065SOL    HW129092   1.072  14.170   5.180
 9065SOL    HW229093   1.019  14.029   5.175
 9066SOL     OW29094  11.136  10.237  14.792
 9066SOL    HW129095  11.093  10.161  14.831
 9066SOL    HW229096  11.136  10.219  14.698
 9067SOL     OW29097  12.507   9.209   8.032
 9067SOL    HW129098  12.469   9.159   7.960
 9067SOL    HW229099  12.526   9.145   8.099
 9068SOL     OW29100   7.846   6.764  12.598
 9068SOL    HW129101   7.828   6.695  12.535
 9068SOL    HW229102   7.939   6.756  12.617
 9069SOL     OW29103  13.591   5.742  13.839
 9069SOL    HW129104  13.562   5.764  13.751
 9069SOL    HW229105  13.621   5.826  13.876
 9070SOL     OW29106   4.196   5.528  13.623
 9070SOL    HW129107   4.232   5.440  13.637
 9070SOL    HW229108   4.125   5.515  13.560
 9071SOL     OW29109  10.685   0.397  12.194
 9071SOL    HW129110  10.603   0.428  12.230
 9071SOL    HW229111  10.671   0.304  12.177
 9072SOL     OW29112   8.037   8.313   7.404
 9072SOL    HW129113   8.080   8.228   7.415
 9072SOL    HW229114   7.956   8.293   7.356
 9073SOL     OW29115   0.725  10.226   0.278
 9073SOL    HW129116   0.664  10.248   0.207
 9073SOL    HW229117   0.709  10.133   0.295
 9074SOL     OW29118  14.267  10.003   2.805
 9074SOL    HW129119  14.311  10.017   2.889
 9074SOL    HW229120  14.186   9.958   2.828
 9075SOL     OW29121   5.872   8.038   9.166
 9075SOL    HW129122   5.778   8.023   9.175
 9075SOL    HW229123   5.912   7.985   9.235
 9076SOL     OW29124   8.201   7.872   5.960
 9076SOL    HW129125   8.199   7.840   5.870
 9076SOL    HW229126   8.141   7.946   5.960
 9077SOL     OW29127   6.054   4.311   9.828
 9077SOL    HW129128   6.110   4.234   9.812
 9077SOL    HW229129   5.967   4.283   9.801
 9078SOL     OW29130  11.615  14.788   1.537
 9078SOL    HW129131  11.630  14.818   1.448
 9078SOL    HW229132  11.700  14.755   1.566
 9079SOL     OW29133   0.185  11.735   7.256
 9079SOL    HW129134   0.182  11.692   7.171
 9079SOL    HW229135   0.215  11.824   7.237
 9080SOL     OW29136   3.073  14.032   4.784
 9080SOL    HW129137   3.141  13.997   4.727
 9080SOL    HW229138   2.995  13.980   4.763
 9081SOL     OW29139   1.664  12.351  14.613
 9081SOL    HW129140   1.682  12.350  14.519
 9081SOL    HW229141   1.744  12.315  14.653
 9082SOL     OW29142   1.504   7.186   6.594
 9082SOL    HW129143   1.467   7.103   6.625
 9082SOL    HW229144   1.491   7.184   6.499
 9083SOL     OW29145  14.087  12.015  10.256
 9083SOL    HW129146  14.082  12.033  10.163
 9083SOL    HW229147  14.025  12.077  10.296
 9084SOL     OW29148   0.603   0.862   7.696
 9084SOL    HW129149   0.682   0.818   7.666
 9084SOL    HW229150   0.552   0.878   7.617
 9085SOL     OW29151   0.785   3.170  14.458
 9085SOL    HW129152   0.803   3.199  14.369
 9085SOL    HW229153   0.782   3.075  14.453
 9086SOL     OW29154  14.750   0.961  12.688
 9086SOL    HW129155  14.733   1.001  12.773
 9086SOL    HW229156  14.824   1.010  12.653
 9087SOL     OW29157   8.781   5.584  12.024
 9087SOL    HW129158   8.798   5.672  11.991
 9087SOL    HW229159   8.691   5.589  12.058
 9088SOL     OW29160  13.835   3.252   2.485
 9088SOL    HW129161  13.896   3.325   2.473
 9088SOL    HW229162  13.879   3.196   2.549
 9089SOL     OW29163   3.532   6.714   3.284
 9089SOL    HW129164   3.553   6.807   3.273
 9089SOL    HW229165   3.436   6.712   3.288
 9090SOL     OW29166   8.732  13.814   7.784
 9090SOL    HW129167   8.680  13.766   7.848
 9090SOL    HW229168   8.675  13.823   7.708
 9091SOL     OW29169  13.075   8.438  10.965
 9091SOL    HW129170  13.075   8.524  10.923
 9091SOL    HW229171  13.056   8.456  11.057
 9092SOL     OW29172   1.590  12.546   3.343
 9092SOL    HW129173   1.593  12.636   3.373
 9092SOL    HW229174   1.529  12.502   3.403
 9093SOL     OW29175   6.324   8.234  12.344
 9093SOL    HW129176   6.317   8.184  12.426
 9093SOL    HW229177   6.332   8.167  12.276
 9094SOL     OW29178  11.111   5.276   0.499
 9094SOL    HW129179  11.062   5.196   0.484
 9094SOL    HW229180  11.050   5.334   0.545
 9095SOL     OW29181  10.074  13.397   6.703
 9095SOL    HW129182  10.030  13.330   6.651
 9095SOL    HW229183  10.010  13.421   6.770
 9096SOL     OW29184  14.664   7.256  11.341
 9096SOL    HW129185  14.713   7.174  11.342
 9096SOL    HW229186  14.572   7.229  11.342
 9097SOL     OW29187   1.736   4.287  12.574
 9097SOL    HW129188   1.725   4.200  12.612
 9097SOL    HW229189   1.830   4.305  12.584
 9098SOL     OW29190  10.382  13.775   3.512
 9098SOL    HW129191  10.477  13.791   3.515
 9098SOL    HW229192  10.374  13.680   3.502
 9099SOL     OW29193  10.366   5.806  12.618
 9099SOL    HW129194  10.399   5.867  12.684
 9099SOL    HW229195  10.442   5.752  12.595
 9100SOL     OW29196   3.869  10.917   2.381
 9100SOL    HW129197   3.894  10.825   2.396
 9100SOL    HW229198   3.910  10.965   2.453
 9101SOL     OW29199   5.384   0.492   2.665
 9101SOL    HW129200   5.322   0.564   2.654
 9101SOL    HW229201   5.462   0.533   2.703
 9102SOL     OW29202   1.157  12.354  14.177
 9102SOL    HW129203   1.221  12.283  14.185
 9102SOL    HW229204   1.162  12.380  14.085
 9103SOL     OW29205   0.661  12.485  10.143
 9103SOL    HW129206   0.631  12.576  10.139
 9103SOL    HW229207   0.745  12.490  10.188
 9104SOL     OW29208  12.019   6.052  11.766
 9104SOL    HW129209  12.005   5.997  11.690
 9104SOL    HW229210  12.094   6.014  11.811
 9105SOL     OW29211   6.832   8.272   3.344
 9105SOL    HW129212   6.844   8.354   3.295
 9105SOL    HW229213   6.921   8.246   3.368
 9106SOL     OW29214   7.878   8.772   1.680
 9106SOL    HW129215   7.944   8.704   1.669
 9106SOL    HW229216   7.913   8.847   1.632
 9107SOL     OW29217   7.032   5.712  14.795
 9107SOL    HW129218   7.087   5.791  14.795
 9107SOL    HW229219   6.966   5.729  14.863
 9108SOL     OW29220   2.886   5.454  14.314
 9108SOL    HW129221   2.829   5.409  14.251
 9108SOL    HW229222   2.917   5.531  14.267
 9109SOL     OW29223   0.140  12.162  11.030
 9109SOL    HW129224   0.112  12.158  10.939
 9109SOL    HW229225   0.103  12.083  11.071
 9110SOL     OW29226   1.103   7.292   2.051
 9110SOL    HW129227   1.129   7.344   2.127
 9110SOL    HW229228   1.180   7.290   1.995
 9111SOL     OW29229   0.401   9.283   0.664
 9111SOL    HW129230   0.409   9.349   0.595
 9111SOL    HW229231   0.338   9.320   0.726
 9112SOL     OW29232   9.604   5.463   4.871
 9112SOL    HW129233   9.514   5.444   4.896
 9112SOL    HW229234   9.644   5.377   4.856
 9113SOL     OW29235   4.708  12.481   6.958
 9113SOL    HW129236   4.758  12.548   7.005
 9113SOL    HW229237   4.762  12.460   6.881
 9114SOL     OW29238  13.036   9.461   0.073
 9114SOL    HW129239  13.129   9.441   0.082
 9114SOL    HW229240  13.025   9.484  14.848
 9115SOL     OW29241   1.429  10.067  10.555
 9115SOL    HW129242   1.382  10.097  10.633
 9115SOL    HW229243   1.425   9.971  10.560
 9116SOL     OW29244   7.269   6.016   3.919
 9116SOL    HW129245   7.219   5.979   3.992
 9116SOL    HW229246   7.280   5.943   3.859
 9117SOL     OW29247   5.294  11.699   8.418
 9117SOL    HW129248   5.200  11.701   8.404
 9117SOL    HW229249   5.306  11.725   8.509
 9118SOL     OW29250   8.577  10.635   0.892
 9118SOL    HW129251   8.553  10.603   0.805
 9118SOL    HW229252   8.564  10.730   0.887
 9119SOL     OW29253   4.653   7.963   2.349
 9119SOL    HW129254   4.660   7.971   2.444
 9119SOL    HW229255   4.590   8.030   2.324
 9120SOL     OW29256   0.239   4.320  14.059
 9120SOL    HW129257   0.326   4.306  14.022
 9120SOL    HW229258   0.240   4.271  14.141
 9121SOL     OW29259   3.281  11.271  11.311
 9121SOL    HW129260   3.256  11.339  11.249
 9121SOL    HW229261   3.324  11.318  11.383
 9122SOL     OW29262   9.901   6.340   4.877
 9122SOL    HW129263   9.817   6.294   4.884
 9122SOL    HW229264   9.886   6.406   4.809
 9123SOL     OW29265  11.805   9.812  10.468
 9123SOL    HW129266  11.744   9.772  10.530
 9123SOL    HW229267  11.794   9.761  10.388
 9124SOL     OW29268   6.703   9.771   2.859
 9124SOL    HW129269   6.717   9.739   2.948
 9124SOL    HW229270   6.622   9.728   2.831
 9125SOL     OW29271  12.559  11.955  12.031
 9125SOL    HW129272  12.645  11.945  11.990
 9125SOL    HW229273  12.578  11.973  12.123
 9126SOL     OW29274   1.540   1.284   6.670
 9126SOL    HW129275   1.535   1.377   6.692
 9126SOL    HW229276   1.450   1.260   6.649
 9127SOL     OW29277   5.819   2.739  10.069
 9127SOL    HW129278   5.868   2.769  10.146
 9127SOL    HW229279   5.859   2.786   9.996
 9128SOL     OW29280  12.468   7.274   1.611
 9128SOL    HW129281  12.504   7.283   1.523
 9128SOL    HW229282  12.378   7.307   1.604
 9129SOL     OW29283   7.930   2.926  14.818
 9129SOL    HW129284   7.866   2.992  14.844
 9129SOL    HW229285   7.880   2.864  14.765
 9130SOL     OW29286   5.552   0.061   5.749
 9130SOL    HW129287   5.629   0.030   5.702
 9130SOL    HW229288   5.481   0.006   5.716
 9131SOL     OW29289  11.464   7.361   0.716
 9131SOL    HW129290  11.393   7.334   0.774
 9131SOL    HW229291  11.423   7.375   0.631
 9132SOL     OW29292  10.769  10.944   3.753
 9132SOL    HW129293  10.712  10.970   3.826
 9132SOL    HW229294  10.780  10.850   3.763
 9133SOL     OW29295  12.239  13.274   0.786
 9133SOL    HW129296  12.227  13.352   0.732
 9133SOL    HW229297  12.333  13.255   0.781
 9134SOL     OW29298  10.527   1.661  10.613
 9134SOL    HW129299  10.507   1.689  10.702
 9134SOL    HW229300  10.456   1.697  10.560
 9135SOL     OW29301  14.576   8.320   9.327
 9135SOL    HW129302  14.483   8.311   9.349
 9135SOL    HW229303  14.583   8.283   9.239
 9136SOL     OW29304   9.058   0.456   4.061
 9136SOL    HW129305   9.007   0.459   4.142
 9136SOL    HW229306   9.149   0.465   4.090
 9137SOL     OW29307   8.937  10.356   2.545
 9137SOL    HW129308   8.879  10.295   2.591
 9137SOL    HW229309   8.959  10.311   2.463
 9138SOL     OW29310   9.250   6.725   8.682
 9138SOL    HW129311   9.211   6.812   8.679
 9138SOL    HW229312   9.274   6.706   8.591
 9139SOL     OW29313  12.918   3.666   5.327
 9139SOL    HW129314  12.966   3.624   5.398
 9139SOL    HW229315  12.932   3.760   5.340
 9140SOL     OW29316  10.030   0.242  10.861
 9140SOL    HW129317  10.023   0.242  10.956
 9140SOL    HW229318   9.946   0.278  10.831
 9141SOL     OW29319  10.314  11.684  13.319
 9141SOL    HW129320  10.385  11.748  13.315
 9141SOL    HW229321  10.309  11.647  13.231
 9142SOL     OW29322   3.200   5.236   2.259
 9142SOL    HW129323   3.249   5.163   2.220
 9142SOL    HW229324   3.245   5.315   2.229
 9143SOL     OW29325   1.437  12.431   8.351
 9143SOL    HW129326   1.343  12.434   8.368
 9143SOL    HW229327   1.475  12.402   8.434
 9144SOL     OW29328   4.291   3.642   9.853
 9144SOL    HW129329   4.382   3.671   9.848
 9144SOL    HW229330   4.246   3.714   9.898
 9145SOL     OW29331  14.742   1.528   4.106
 9145SOL    HW129332  14.834   1.511   4.088
 9145SOL    HW229333  14.719   1.470   4.178
 9146SOL     OW29334  11.346   1.691  12.678
 9146SOL    HW129335  11.403   1.667  12.605
 9146SOL    HW229336  11.309   1.776  12.653
 9147SOL     OW29337   7.118  10.747   7.305
 9147SOL    HW129338   7.191  10.719   7.359
 9147SOL    HW229339   7.117  10.684   7.233
 9148SOL     OW29340  10.143   8.106  12.318
 9148SOL    HW129341  10.153   8.078  12.228
 9148SOL    HW229342  10.181   8.035  12.370
 9149SOL     OW29343  12.935   7.160   8.884
 9149SOL    HW129344  12.935   7.240   8.831
 9149SOL    HW229345  12.870   7.104   8.842
 9150SOL     OW29346   4.813  14.664   1.140
 9150SOL    HW129347   4.834  14.575   1.112
 9150SOL    HW229348   4.735  14.687   1.090
 9151SOL     OW29349   4.953   2.719   3.225
 9151SOL    HW129350   4.954   2.627   3.249
 9151SOL    HW229351   4.861   2.744   3.227
 9152SOL     OW29352   1.712   8.534   9.821
 9152SOL    HW129353   1.778   8.601   9.799
 9152SOL    HW229354   1.676   8.562   9.905
 9153SOL     OW29355   9.839   2.578   1.118
 9153SOL    HW129356   9.909   2.634   1.085
 9153SOL    HW229357   9.820   2.518   1.046
 9154SOL     OW29358  13.472   8.423   4.979
 9154SOL    HW129359  13.496   8.359   5.046
 9154SOL    HW229360  13.556   8.459   4.949
 9155SOL     OW29361   1.060   6.473  12.299
 9155SOL    HW129362   1.109   6.480  12.218
 9155SOL    HW229363   1.020   6.560  12.311
 9156SOL     OW29364   9.752   0.262   7.913
 9156SOL    HW129365   9.769   0.182   7.863
 9156SOL    HW229366   9.804   0.253   7.992
 9157SOL     OW29367   6.148  14.667  13.633
 9157SOL    HW129368   6.129  14.756  13.662
 9157SOL    HW229369   6.174  14.677  13.541
 9158SOL     OW29370   4.309   4.313  11.447
 9158SOL    HW129371   4.335   4.338  11.358
 9158SOL    HW229372   4.302   4.218  11.444
 9159SOL     OW29373  14.327  14.420   0.702
 9159SOL    HW129374  14.253  14.480   0.709
 9159SOL    HW229375  14.339  14.408   0.608
 9160SOL     OW29376   4.483   8.913  10.053
 9160SOL    HW129377   4.420   8.854  10.011
 9160SOL    HW229378   4.447   8.928  10.140
 9161SOL     OW29379   3.604   1.108  13.634
 9161SOL    HW129380   3.685   1.062  13.657
 9161SOL    HW229381   3.561   1.125  13.718
 9162SOL     OW29382  10.969  12.030   4.449
 9162SOL    HW129383  11.064  12.037   4.459
 9162SOL    HW229384  10.935  12.037   4.538
 9163SOL     OW29385   6.451   2.160   3.532
 9163SOL    HW129386   6.458   2.249   3.565
 9163SOL    HW229387   6.363   2.155   3.495
 9164SOL     OW29388   4.069   5.376   8.042
 9164SOL    HW129389   4.050   5.469   8.026
 9164SOL    HW229390   4.100   5.344   7.957
 9165SOL     OW29391  13.447  14.808  12.335
 9165SOL    HW129392  13.393  14.730  12.320
 9165SOL    HW229393  13.386   0.013  12.324
 9166SOL     OW29394  13.248   0.610   9.639
 9166SOL    HW129395  13.194   0.636   9.714
 9166SOL    HW229396  13.273   0.520   9.658
 9167SOL     OW29397   4.904  13.386   8.493
 9167SOL    HW129398   4.982  13.334   8.475
 9167SOL    HW229399   4.875  13.416   8.407
 9168SOL     OW29400   3.332   7.004   0.595
 9168SOL    HW129401   3.381   6.926   0.621
 9168SOL    HW229402   3.242   6.986   0.623
 9169SOL     OW29403   7.897  14.583  11.604
 9169SOL    HW129404   7.944  14.516  11.553
 9169SOL    HW229405   7.902  14.552  11.694
 9170SOL     OW29406   0.321   5.907  10.171
 9170SOL    HW129407   0.257   5.836  10.183
 9170SOL    HW229408   0.372   5.907  10.252
 9171SOL     OW29409   3.658  13.780   9.773
 9171SOL    HW129410   3.604  13.729   9.713
 9171SOL    HW229411   3.666  13.866   9.732
 9172SOL     OW29412   4.127   7.703   2.728
 9172SOL    HW129413   4.199   7.740   2.677
 9172SOL    HW229414   4.123   7.756   2.807
 9173SOL     OW29415   4.236   5.288   9.748
 9173SOL    HW129416   4.179   5.317   9.677
 9173SOL    HW229417   4.325   5.305   9.716
 9174SOL     OW29418  14.590   2.509   3.686
 9174SOL    HW129419  14.516   2.450   3.699
 9174SOL    HW229420  14.574   2.549   3.600
 9175SOL     OW29421   0.713   3.695   4.991
 9175SOL    HW129422   0.723   3.601   5.009
 9175SOL    HW229423   0.652   3.699   4.917
 9176SOL     OW29424   9.718  14.374  12.498
 9176SOL    HW129425   9.735  14.283  12.521
 9176SOL    HW229426   9.623  14.382  12.496
 9177SOL     OW29427  12.188   8.713   6.199
 9177SOL    HW129428  12.216   8.680   6.284
 9177SOL    HW229429  12.118   8.775   6.219
 9178SOL     OW29430   3.053   4.810   0.218
 9178SOL    HW129431   3.056   4.846   0.129
 9178SOL    HW229432   3.021   4.882   0.272
 9179SOL     OW29433  12.684   5.339   6.479
 9179SOL    HW129434  12.642   5.324   6.394
 9179SOL    HW229435  12.616   5.315   6.543
 9180SOL     OW29436   3.963  10.121   1.610
 9180SOL    HW129437   4.036  10.148   1.554
 9180SOL    HW229438   3.954  10.193   1.674
 9181SOL     OW29439   9.731   3.918   6.365
 9181SOL    HW129440   9.784   3.935   6.443
 9181SOL    HW229441   9.660   3.982   6.370
 9182SOL     OW29442   6.287  10.592   5.147
 9182SOL    HW129443   6.332  10.653   5.206
 9182SOL    HW229444   6.330  10.605   5.063
 9183SOL     OW29445  13.196   3.724   3.287
 9183SOL    HW129446  13.281   3.721   3.244
 9183SOL    HW229447  13.166   3.633   3.289
 9184SOL     OW29448   6.644   2.136  10.668
 9184SOL    HW129449   6.613   2.226  10.674
 9184SOL    HW229450   6.569   2.083  10.696
 9185SOL     OW29451  12.019   5.162   0.917
 9185SOL    HW129452  12.083   5.205   0.860
 9185SOL    HW229453  11.942   5.219   0.913
 9186SOL     OW29454   6.510   8.321   2.678
 9186SOL    HW129455   6.484   8.397   2.626
 9186SOL    HW229456   6.603   8.334   2.694
 9187SOL     OW29457   2.279  11.668  10.788
 9187SOL    HW129458   2.254  11.724  10.862
 9187SOL    HW229459   2.220  11.695  10.717
 9188SOL     OW29460   1.588  12.344   0.747
 9188SOL    HW129461   1.606  12.429   0.707
 9188SOL    HW229462   1.527  12.363   0.818
 9189SOL     OW29463   8.758   9.566   5.809
 9189SOL    HW129464   8.741   9.647   5.761
 9189SOL    HW229465   8.759   9.593   5.901
 9190SOL     OW29466  13.991   2.975   7.901
 9190SOL    HW129467  14.087   2.966   7.898
 9190SOL    HW229468  13.976   3.052   7.957
 9191SOL     OW29469  11.607   2.976   1.595
 9191SOL    HW129470  11.540   3.040   1.618
 9191SOL    HW229471  11.690   3.019   1.614
 9192SOL     OW29472   3.300   0.822   5.857
 9192SOL    HW129473   3.255   0.901   5.826
 9192SOL    HW229474   3.390   0.851   5.872
 9193SOL     OW29475   8.712   3.073   6.235
 9193SOL    HW129476   8.756   3.130   6.298
 9193SOL    HW229477   8.622   3.067   6.267
 9194SOL     OW29478   1.262   7.047   2.958
 9194SOL    HW129479   1.347   7.002   2.960
 9194SOL    HW229480   1.271   7.111   2.887
 9195SOL     OW29481  12.543   8.647   7.805
 9195SOL    HW129482  12.638   8.653   7.814
 9195SOL    HW229483  12.519   8.568   7.853
 9196SOL     OW29484   4.450   3.316   9.872
 9196SOL    HW129485   4.376   3.259   9.893
 9196SOL    HW229486   4.454   3.316   9.777
 9197SOL     OW29487   2.238  11.461   8.703
 9197SOL    HW129488   2.278  11.534   8.656
 9197SOL    HW229489   2.145  11.484   8.710
 9198SOL     OW29490   0.425   5.888  12.048
 9198SOL    HW129491   0.513   5.924  12.048
 9198SOL    HW229492   0.368   5.965  12.048
 9199SOL     OW29493  13.134  14.181   9.641
 9199SOL    HW129494  13.163  14.240   9.571
 9199SOL    HW229495  13.119  14.097   9.597
 9200SOL     OW29496  12.595  11.228   5.318
 9200SOL    HW129497  12.670  11.257   5.372
 9200SOL    HW229498  12.627  11.150   5.273
 9201SOL     OW29499   1.552   0.236   2.908
 9201SOL    HW129500   1.622   0.183   2.870
 9201SOL    HW229501   1.482   0.173   2.926
 9202SOL     OW29502   0.010  13.393   8.667
 9202SOL    HW129503  14.791  13.368   8.699
 9202SOL    HW229504   0.006  13.382   8.572
 9203SOL     OW29505   9.925   3.371  13.132
 9203SOL    HW129506   9.968   3.310  13.072
 9203SOL    HW229507   9.852   3.320  13.169
 9204SOL     OW29508   9.282   7.324   8.889
 9204SOL    HW129509   9.242   7.247   8.930
 9204SOL    HW229510   9.376   7.313   8.903
 9205SOL     OW29511  10.222   7.905   3.048
 9205SOL    HW129512  10.267   7.862   2.975
 9205SOL    HW229513  10.158   7.963   3.006
 9206SOL     OW29514   9.577   3.012  13.331
 9206SOL    HW129515   9.556   3.017  13.424
 9206SOL    HW229516   9.672   3.002  13.329
 9207SOL     OW29517  14.706   9.033  11.480
 9207SOL    HW129518  14.763   8.971  11.526
 9207SOL    HW229519  14.766   9.089  11.431
 9208SOL     OW29520  14.287  13.922   5.535
 9208SOL    HW129521  14.252  13.999   5.580
 9208SOL    HW229522  14.282  13.852   5.599
 9209SOL     OW29523   2.243   1.635   1.283
 9209SOL    HW129524   2.219   1.728   1.275
 9209SOL    HW229525   2.336   1.637   1.306
 9210SOL     OW29526  10.102  10.661  13.316
 9210SOL    HW129527  10.114  10.734  13.376
 9210SOL    HW229528  10.099  10.584  13.372
 9211SOL     OW29529  14.132  13.190  14.015
 9211SOL    HW129530  14.073  13.208  14.088
 9211SOL    HW229531  14.197  13.259  14.018
 9212SOL     OW29532  11.439   7.041  13.463
 9212SOL    HW129533  11.345   7.061  13.459
 9212SOL    HW229534  11.475   7.078  13.382
 9213SOL     OW29535  11.438   7.650   1.861
 9213SOL    HW129536  11.395   7.708   1.924
 9213SOL    HW229537  11.471   7.578   1.915
 9214SOL     OW29538  13.345   6.925   7.031
 9214SOL    HW129539  13.371   6.853   6.974
 9214SOL    HW229540  13.287   6.885   7.096
 9215SOL     OW29541   9.457   8.036  11.245
 9215SOL    HW129542   9.480   8.113  11.296
 9215SOL    HW229543   9.494   7.963  11.294
 9216SOL     OW29544   9.623   0.748   0.240
 9216SOL    HW129545   9.558   0.707   0.298
 9216SOL    HW229546   9.592   0.729   0.152
 9217SOL     OW29547   9.782   0.301   0.661
 9217SOL    HW129548   9.841   0.350   0.720
 9217SOL    HW229549   9.712   0.270   0.718
 9218SOL     OW29550  10.053   9.149   4.881
 9218SOL    HW129551  10.132   9.137   4.828
 9218SOL    HW229552  10.048   9.243   4.896
 9219SOL     OW29553   6.588  11.648   1.997
 9219SOL    HW129554   6.561  11.685   1.913
 9219SOL    HW229555   6.666  11.596   1.977
 9220SOL     OW29556   1.335   4.886   7.838
 9220SOL    HW129557   1.375   4.963   7.798
 9220SOL    HW229558   1.401   4.817   7.830
 9221SOL     OW29559  10.052  13.660   4.699
 9221SOL    HW129560  10.046  13.744   4.654
 9221SOL    HW229561  10.071  13.597   4.630
 9222SOL     OW29562  11.069   2.571  11.906
 9222SOL    HW129563  11.131   2.639  11.878
 9222SOL    HW229564  11.009   2.616  11.964
 9223SOL     OW29565   3.034  11.504   0.023
 9223SOL    HW129566   3.035  11.499  14.796
 9223SOL    HW229567   2.946  11.536   0.044
 9224SOL     OW29568   6.515   3.048   3.637
 9224SOL    HW129569   6.431   3.048   3.593
 9224SOL    HW229570   6.580   3.051   3.567
 9225SOL     OW29571   8.110   0.215   3.390
 9225SOL    HW129572   8.183   0.159   3.417
 9225SOL    HW229573   8.093   0.190   3.299
 9226SOL     OW29574   3.758   2.896  11.372
 9226SOL    HW129575   3.819   2.858  11.309
 9226SOL    HW229576   3.671   2.883  11.333
 9227SOL     OW29577   8.091  13.858   2.046
 9227SOL    HW129578   8.170  13.902   2.016
 9227SOL    HW229579   8.020  13.915   2.016
 9228SOL     OW29580   4.151   2.894   1.624
 9228SOL    HW129581   4.233   2.907   1.673
 9228SOL    HW229582   4.100   2.973   1.643
 9229SOL     OW29583   7.597   3.734  12.888
 9229SOL    HW129584   7.522   3.674  12.879
 9229SOL    HW229585   7.672   3.682  12.860
 9230SOL     OW29586  10.354  13.161   8.789
 9230SOL    HW129587  10.261  13.153   8.766
 9230SOL    HW229588  10.354  13.165   8.885
 9231SOL     OW29589   2.175   9.905   9.457
 9231SOL    HW129590   2.134   9.819   9.450
 9231SOL    HW229591   2.132   9.946   9.531
 9232SOL     OW29592  12.455  12.885  13.828
 9232SOL    HW129593  12.490  12.853  13.745
 9232SOL    HW229594  12.360  12.876  13.818
 9233SOL     OW29595  12.194   3.005   1.725
 9233SOL    HW129596  12.191   3.077   1.788
 9233SOL    HW229597  12.194   2.926   1.779
 9234SOL     OW29598   7.637  14.584   0.541
 9234SOL    HW129599   7.676  14.637   0.611
 9234SOL    HW229600   7.658  14.494   0.565
 9235SOL     OW29601  13.754  10.641   3.290
 9235SOL    HW129602  13.768  10.666   3.381
 9235SOL    HW229603  13.797  10.556   3.282
 9236SOL     OW29604   1.704  10.849  13.725
 9236SOL    HW129605   1.612  10.821  13.725
 9236SOL    HW229606   1.753  10.770  13.701
 9237SOL     OW29607   6.879   2.380  11.498
 9237SOL    HW129608   6.839   2.352  11.416
 9237SOL    HW229609   6.867   2.475  11.499
 9238SOL     OW29610   4.186   6.176   5.932
 9238SOL    HW129611   4.126   6.250   5.922
 9238SOL    HW229612   4.147   6.123   6.002
 9239SOL     OW29613  11.126   3.302  12.525
 9239SOL    HW129614  11.103   3.330  12.437
 9239SOL    HW229615  11.189   3.367  12.555
 9240SOL     OW29616  14.256  11.697   4.597
 9240SOL    HW129617  14.203  11.625   4.564
 9240SOL    HW229618  14.304  11.728   4.520
 9241SOL     OW29619  14.252   6.592   1.467
 9241SOL    HW129620  14.337   6.635   1.458
 9241SOL    HW229621  14.253   6.523   1.401
 9242SOL     OW29622   6.933   2.548   1.165
 9242SOL    HW129623   7.006   2.569   1.107
 9242SOL    HW229624   6.966   2.563   1.253
 9243SOL     OW29625  12.467  11.490  10.192
 9243SOL    HW129626  12.532  11.532  10.137
 9243SOL    HW229627  12.411  11.562  10.223
 9244SOL     OW29628   8.996   4.726   4.090
 9244SOL    HW129629   9.013   4.766   4.005
 9244SOL    HW229630   8.951   4.793   4.140
 9245SOL     OW29631   3.041   3.356   2.266
 9245SOL    HW129632   3.071   3.276   2.310
 9245SOL    HW229633   3.018   3.415   2.338
 9246SOL     OW29634   6.673   2.491   9.422
 9246SOL    HW129635   6.696   2.426   9.355
 9246SOL    HW229636   6.663   2.573   9.374
 9247SOL     OW29637   1.309  10.880   5.261
 9247SOL    HW129638   1.217  10.859   5.243
 9247SOL    HW229639   1.305  10.954   5.321
 9248SOL     OW29640  12.834   9.766  13.311
 9248SOL    HW129641  12.911   9.822  13.322
 9248SOL    HW229642  12.778   9.815  13.249
 9249SOL     OW29643   0.067   7.887  13.447
 9249SOL    HW129644   0.009   7.848  13.382
 9249SOL    HW229645   0.027   7.864  13.531
 9250SOL     OW29646   0.777  10.678   7.795
 9250SOL    HW129647   0.705  10.740   7.787
 9250SOL    HW229648   0.839  10.704   7.727
 9251SOL     OW29649   0.186   6.761  13.307
 9251SOL    HW129650   0.185   6.718  13.392
 9251SOL    HW229651   0.096   6.793  13.296
 9252SOL     OW29652  12.523  12.493   8.478
 9252SOL    HW129653  12.429  12.476   8.476
 9252SOL    HW229654  12.534  12.562   8.543
 9253SOL     OW29655   8.082   2.774  11.539
 9253SOL    HW129656   8.108   2.866  11.533
 9253SOL    HW229657   8.155   2.726  11.500
 9254SOL     OW29658  11.839   8.054  10.994
 9254SOL    HW129659  11.806   8.011  11.073
 9254SOL    HW229660  11.929   8.077  11.015
 9255SOL     OW29661  12.434   0.688   5.858
 9255SOL    HW129662  12.428   0.771   5.811
 9255SOL    HW229663  12.360   0.637   5.826
 9256SOL     OW29664   8.173   6.331  13.456
 9256SOL    HW129665   8.110   6.366  13.520
 9256SOL    HW229666   8.142   6.365  13.372
 9257SOL     OW29667   4.238  13.253  13.248
 9257SOL    HW129668   4.304  13.185  13.261
 9257SOL    HW229669   4.208  13.241  13.158
 9258SOL     OW29670   2.106   1.279   1.439
 9258SOL    HW129671   2.131   1.270   1.530
 9258SOL    HW229672   2.025   1.228   1.431
 9259SOL     OW29673   3.462   7.987  11.712
 9259SOL    HW129674   3.375   7.969  11.678
 9259SOL    HW229675   3.499   8.052  11.652
 9260SOL     OW29676  11.695  12.980   0.408
 9260SOL    HW129677  11.753  12.969   0.333
 9260SOL    HW229678  11.697  13.074   0.426
 9261SOL     OW29679   5.523  13.948   0.753
 9261SOL    HW129680   5.550  13.857   0.767
 9261SOL    HW229681   5.570  13.975   0.675
 9262SOL     OW29682  11.347   3.336   7.785
 9262SOL    HW129683  11.422   3.343   7.726
 9262SOL    HW229684  11.270   3.348   7.729
 9263SOL     OW29685  14.014   4.711   4.160
 9263SOL    HW129686  14.066   4.727   4.081
 9263SOL    HW229687  13.998   4.798   4.196
 9264SOL     OW29688   0.074  13.829  13.249
 9264SOL    HW129689   0.161  13.850  13.284
 9264SOL    HW229690   0.035  13.914  13.229
 9265SOL     OW29691  13.438   3.924   5.983
 9265SOL    HW129692  13.508   3.944   6.045
 9265SOL    HW229693  13.380   4.000   5.986
 9266SOL     OW29694  10.339   5.170  13.063
 9266SOL    HW129695  10.332   5.103  12.995
 9266SOL    HW229696  10.400   5.234  13.027
 9267SOL     OW29697   2.237   9.245   8.630
 9267SOL    HW129698   2.193   9.187   8.568
 9267SOL    HW229699   2.328   9.215   8.630
 9268SOL     OW29700   3.577  12.056   3.855
 9268SOL    HW129701   3.560  11.995   3.783
 9268SOL    HW229702   3.540  12.139   3.825
 9269SOL     OW29703  14.801   8.946   3.138
 9269SOL    HW129704  14.747   8.868   3.123
 9269SOL    HW229705  14.739   9.019   3.134
 9270SOL     OW29706   1.407   9.888   9.264
 9270SOL    HW129707   1.345   9.899   9.191
 9270SOL    HW229708   1.374   9.947   9.332
 9271SOL     OW29709   2.334   0.648   7.865
 9271SOL    HW129710   2.329   0.742   7.849
 9271SOL    HW229711   2.415   0.622   7.822
 9272SOL     OW29712   4.830  14.470   1.666
 9272SOL    HW129713   4.797  14.525   1.595
 9272SOL    HW229714   4.761  14.406   1.681
 9273SOL     OW29715   8.184  12.514  11.884
 9273SOL    HW129716   8.273  12.544  11.866
 9273SOL    HW229717   8.191  12.418  11.882
 9274SOL     OW29718  12.670   5.605  13.275
 9274SOL    HW129719  12.634   5.640  13.194
 9274SOL    HW229720  12.658   5.675  13.339
 9275SOL     OW29721   5.062   6.805   4.297
 9275SOL    HW129722   5.087   6.827   4.207
 9275SOL    HW229723   5.145   6.792   4.342
 9276SOL     OW29724   4.809  13.180  10.838
 9276SOL    HW129725   4.758  13.106  10.805
 9276SOL    HW229726   4.800  13.176  10.933
 9277SOL     OW29727   1.862  11.196   1.124
 9277SOL    HW129728   1.937  11.255   1.110
 9277SOL    HW229729   1.901  11.117   1.162
 9278SOL     OW29730   5.091   3.727   7.352
 9278SOL    HW129731   5.180   3.699   7.372
 9278SOL    HW229732   5.061   3.667   7.284
 9279SOL     OW29733   9.324   7.183  11.403
 9279SOL    HW129734   9.399   7.123  11.407
 9279SOL    HW229735   9.338   7.233  11.323
 9280SOL     OW29736   3.019  12.525   5.410
 9280SOL    HW129737   3.061  12.607   5.436
 9280SOL    HW229738   3.003  12.535   5.316
 9281SOL     OW29739   6.989  10.358   0.492
 9281SOL    HW129740   6.908  10.318   0.524
 9281SOL    HW229741   7.036  10.384   0.572
 9282SOL     OW29742  14.867   8.136   8.340
 9282SOL    HW129743   0.044   8.207   8.295
 9282SOL    HW229744  14.846   8.172   8.427
 9283SOL     OW29745  12.341   5.863   4.699
 9283SOL    HW129746  12.422   5.914   4.710
 9283SOL    HW229747  12.343   5.799   4.769
 9284SOL     OW29748   0.751   2.667   1.366
 9284SOL    HW129749   0.715   2.626   1.288
 9284SOL    HW229750   0.804   2.599   1.407
 9285SOL     OW29751   8.107   2.549   5.921
 9285SOL    HW129752   8.102   2.641   5.947
 9285SOL    HW229753   8.132   2.503   6.001
 9286SOL     OW29754   8.647  13.707   9.970
 9286SOL    HW129755   8.685  13.632   9.924
 9286SOL    HW229756   8.706  13.779   9.949
 9287SOL     OW29757   6.359   7.184  13.345
 9287SOL    HW129758   6.404   7.103  13.367
 9287SOL    HW229759   6.391   7.207  13.258
 9288SOL     OW29760   0.668  13.504   9.635
 9288SOL    HW129761   0.700  13.453   9.561
 9288SOL    HW229762   0.655  13.440   9.705
 9289SOL     OW29763   2.112  11.307   2.486
 9289SOL    HW129764   2.096  11.227   2.536
 9289SOL    HW229765   2.202  11.330   2.506
 9290SOL     OW29766  14.744   9.890   7.210
 9290SOL    HW129767  14.674   9.901   7.145
 9290SOL    HW229768  14.712   9.821   7.268
 9291SOL     OW29769   0.852  10.263  11.540
 9291SOL    HW129770   0.915  10.216  11.486
 9291SOL    HW229771   0.897  10.278  11.623
 9292SOL     OW29772   2.403  14.815   7.593
 9292SOL    HW129773   2.384  14.721   7.593
 9292SOL    HW229774   2.454  14.829   7.513
 9293SOL     OW29775  10.630   2.811  12.547
 9293SOL    HW129776  10.622   2.906  12.550
 9293SOL    HW229777  10.553   2.782  12.498
 9294SOL     OW29778   2.336   2.353   7.052
 9294SOL    HW129779   2.275   2.286   7.085
 9294SOL    HW229780   2.421   2.309   7.052
 9295SOL     OW29781  13.619   4.326  11.788
 9295SOL    HW129782  13.653   4.236  11.787
 9295SOL    HW229783  13.670   4.369  11.857
 9296SOL     OW29784   2.547   4.331   8.905
 9296SOL    HW129785   2.636   4.321   8.940
 9296SOL    HW229786   2.557   4.315   8.811
 9297SOL     OW29787   4.315   8.290   2.311
 9297SOL    HW129788   4.373   8.230   2.358
 9297SOL    HW229789   4.228   8.252   2.321
 9298SOL     OW29790   0.602  14.808   0.022
 9298SOL    HW129791   0.511  14.835   0.029
 9298SOL    HW229792   0.634  14.852  14.811
 9299SOL     OW29793   1.934   2.675   2.425
 9299SOL    HW129794   1.838   2.685   2.426
 9299SOL    HW229795   1.967   2.765   2.427
 9300SOL     OW29796   4.622  13.118   0.399
 9300SOL    HW129797   4.571  13.181   0.450
 9300SOL    HW229798   4.587  13.033   0.422
 9301SOL     OW29799   6.397  12.953  12.127
 9301SOL    HW129800   6.373  13.015  12.058
 9301SOL    HW229801   6.338  12.879  12.115
 9302SOL     OW29802  14.266   1.847  12.767
 9302SOL    HW129803  14.171   1.859  12.764
 9302SOL    HW229804  14.280   1.790  12.843
 9303SOL     OW29805   0.982   3.164   3.285
 9303SOL    HW129806   1.074   3.179   3.263
 9303SOL    HW229807   0.941   3.137   3.203
 9304SOL     OW29808   5.516   0.789   5.392
 9304SOL    HW129809   5.571   0.859   5.427
 9304SOL    HW229810   5.569   0.710   5.402
 9305SOL     OW29811   4.726  10.132  10.614
 9305SOL    HW129812   4.753  10.171  10.531
 9305SOL    HW229813   4.685  10.049  10.589
 9306SOL     OW29814  10.682  13.242   7.274
 9306SOL    HW129815  10.691  13.149   7.253
 9306SOL    HW229816  10.668  13.284   7.189
 9307SOL     OW29817   8.816  12.057   1.984
 9307SOL    HW129818   8.895  12.102   2.013
 9307SOL    HW229819   8.779  12.114   1.916
 9308SOL     OW29820   9.416   0.594  11.676
 9308SOL    HW129821   9.385   0.505  11.696
 9308SOL    HW229822   9.369   0.650  11.738
 9309SOL     OW29823   2.471   2.654  12.078
 9309SOL    HW129824   2.475   2.604  12.159
 9309SOL    HW229825   2.473   2.589  12.008
 9310SOL     OW29826   6.924   6.296  14.103
 9310SOL    HW129827   6.846   6.323  14.152
 9310SOL    HW229828   6.910   6.202  14.087
 9311SOL     OW29829   7.030  14.535   1.518
 9311SOL    HW129830   7.020  14.458   1.574
 9311SOL    HW229831   6.942  14.573   1.514
 9312SOL     OW29832  12.578   3.416  10.981
 9312SOL    HW129833  12.650   3.353  10.979
 9312SOL    HW229834  12.521   3.390  10.908
 9313SOL     OW29835   5.744  12.479   7.266
 9313SOL    HW129836   5.694  12.512   7.340
 9313SOL    HW229837   5.689  12.410   7.229
 9314SOL     OW29838   7.951   7.814  14.619
 9314SOL    HW129839   8.008   7.887  14.595
 9314SOL    HW229840   7.963   7.804  14.713
 9315SOL     OW29841  12.067  10.338   9.781
 9315SOL    HW129842  12.078  10.375   9.693
 9315SOL    HW229843  12.085  10.245   9.770
 9316SOL     OW29844   4.882  13.263   0.334
 9316SOL    HW129845   4.795  13.228   0.352
 9316SOL    HW229846   4.942  13.201   0.377
 9317SOL     OW29847  10.732  12.538  14.578
 9317SOL    HW129848  10.639  12.525  14.598
 9317SOL    HW229849  10.777  12.466  14.621
 9318SOL     OW29850   8.270   0.163   4.735
 9318SOL    HW129851   8.236   0.210   4.659
 9318SOL    HW229852   8.225   0.203   4.810
 9319SOL     OW29853   5.173   7.351  13.169
 9319SOL    HW129854   5.090   7.303  13.175
 9319SOL    HW229855   5.240   7.283  13.168
 9320SOL     OW29856   0.950   0.508   4.298
 9320SOL    HW129857   0.934   0.433   4.355
 9320SOL    HW229858   1.036   0.540   4.323
 9321SOL     OW29859   7.597  11.187   0.595
 9321SOL    HW129860   7.551  11.252   0.542
 9321SOL    HW229861   7.544  11.108   0.588
 9322SOL     OW29862  12.649   7.275   6.558
 9322SOL    HW129863  12.575   7.297   6.501
 9322SOL    HW229864  12.612   7.214   6.622
 9323SOL     OW29865   3.993   3.545  10.430
 9323SOL    HW129866   3.961   3.521  10.517
 9323SOL    HW229867   3.971   3.638  10.422
 9324SOL     OW29868   6.491   6.803  12.706
 9324SOL    HW129869   6.408   6.850  12.704
 9324SOL    HW229870   6.558   6.872  12.708
 9325SOL     OW29871  13.482  12.725   8.885
 9325SOL    HW129872  13.540  12.679   8.825
 9325SOL    HW229873  13.397  12.682   8.875
 9326SOL     OW29874  13.528  13.475   0.340
 9326SOL    HW129875  13.457  13.509   0.286
 9326SOL    HW229876  13.557  13.550   0.391
 9327SOL     OW29877   6.993   9.832   0.340
 9327SOL    HW129878   6.956   9.749   0.311
 9327SOL    HW229879   6.928   9.898   0.314
 9328SOL     OW29880  13.184   7.089   3.705
 9328SOL    HW129881  13.172   7.157   3.771
 9328SOL    HW229882  13.218   7.135   3.628
 9329SOL     OW29883   5.655   2.183   8.866
 9329SOL    HW129884   5.699   2.265   8.843
 9329SOL    HW229885   5.595   2.207   8.936
 9330SOL     OW29886   5.357   8.843   0.261
 9330SOL    HW129887   5.406   8.825   0.341
 9330SOL    HW229888   5.354   8.759   0.215
 9331SOL     OW29889   2.984  12.307   2.423
 9331SOL    HW129890   3.070  12.302   2.381
 9331SOL    HW229891   2.983  12.232   2.484
 9332SOL     OW29892  11.209   0.166  13.018
 9332SOL    HW129893  11.245   0.220  12.948
 9332SOL    HW229894  11.117   0.192  13.023
 9333SOL     OW29895   1.091   8.850   7.570
 9333SOL    HW129896   1.049   8.764   7.581
 9333SOL    HW229897   1.098   8.860   7.475
 9334SOL     OW29898   2.668   1.922   7.154
 9334SOL    HW129899   2.735   1.989   7.137
 9334SOL    HW229900   2.588   1.972   7.169
 9335SOL     OW29901   4.389   3.880   3.849
 9335SOL    HW129902   4.483   3.868   3.836
 9335SOL    HW229903   4.358   3.795   3.880
 9336SOL     OW29904   5.517  14.276  12.828
 9336SOL    HW129905   5.597  14.305  12.872
 9336SOL    HW229906   5.479  14.356  12.792
 9337SOL     OW29907  14.250   4.155   6.946
 9337SOL    HW129908  14.248   4.249   6.928
 9337SOL    HW229909  14.176   4.141   7.004
 9338SOL     OW29910  11.859  10.201   4.547
 9338SOL    HW129911  11.776  10.189   4.594
 9338SOL    HW229912  11.847  10.284   4.500
 9339SOL     OW29913   5.777   3.688   6.252
 9339SOL    HW129914   5.865   3.665   6.283
 9339SOL    HW229915   5.756   3.769   6.298
 9340SOL     OW29916  13.568   5.555  11.322
 9340SOL    HW129917  13.645   5.599  11.287
 9340SOL    HW229918  13.541   5.494  11.253
 9341SOL     OW29919   7.102   2.751   5.370
 9341SOL    HW129920   7.037   2.683   5.354
 9341SOL    HW229921   7.185   2.703   5.376
 9342SOL     OW29922   1.178  10.969   0.118
 9342SOL    HW129923   1.219  10.969   0.205
 9342SOL    HW229924   1.230  10.906   0.067
 9343SOL     OW29925   7.624   8.442   7.410
 9343SOL    HW129926   7.667   8.408   7.489
 9343SOL    HW229927   7.547   8.387   7.398
 9344SOL     OW29928   6.879   4.569   5.885
 9344SOL    HW129929   6.809   4.617   5.841
 9344SOL    HW229930   6.906   4.626   5.957
 9345SOL     OW29931  13.977  11.350   2.339
 9345SOL    HW129932  13.931  11.301   2.270
 9345SOL    HW229933  14.000  11.284   2.403
 9346SOL     OW29934  10.627   1.674   2.234
 9346SOL    HW129935  10.622   1.705   2.143
 9346SOL    HW229936  10.700   1.723   2.272
 9347SOL     OW29937   7.144   3.806   2.225
 9347SOL    HW129938   7.167   3.740   2.160
 9347SOL    HW229939   7.064   3.846   2.192
 9348SOL     OW29940   9.559   7.122   9.228
 9348SOL    HW129941   9.481   7.103   9.176
 9348SOL    HW229942   9.625   7.148   9.164
 9349SOL     OW29943   7.167  10.922   1.238
 9349SOL    HW129944   7.169  10.941   1.144
 9349SOL    HW229945   7.244  10.868   1.253
 9350SOL     OW29946   7.511   0.480   6.192
 9350SOL    HW129947   7.541   0.477   6.101
 9350SOL    HW229948   7.479   0.391   6.209
 9351SOL     OW29949   1.435   5.692  13.069
 9351SOL    HW129950   1.421   5.743  13.149
 9351SOL    HW229951   1.367   5.624  13.072
 9352SOL     OW29952  10.735  10.734   3.248
 9352SOL    HW129953  10.826  10.723   3.278
 9352SOL    HW229954  10.689  10.769   3.323
 9353SOL     OW29955   8.437   0.521   5.385
 9353SOL    HW129956   8.531   0.515   5.402
 9353SOL    HW229957   8.430   0.563   5.300
 9354SOL     OW29958   5.293   8.127   1.853
 9354SOL    HW129959   5.316   8.217   1.831
 9354SOL    HW229960   5.219   8.106   1.795
 9355SOL     OW29961   7.396   1.126   7.548
 9355SOL    HW129962   7.475   1.167   7.513
 9355SOL    HW229963   7.333   1.199   7.556
 9356SOL     OW29964  11.037  11.832   7.816
 9356SOL    HW129965  10.966  11.818   7.755
 9356SOL    HW229966  10.997  11.821   7.903
 9357SOL     OW29967   2.487   7.501   1.690
 9357SOL    HW129968   2.511   7.578   1.742
 9357SOL    HW229969   2.486   7.429   1.752
 9358SOL     OW29970   9.371   7.879  11.715
 9358SOL    HW129971   9.307   7.809  11.715
 9358SOL    HW229972   9.331   7.948  11.662
 9359SOL     OW29973   3.880  10.901   7.239
 9359SOL    HW129974   3.965  10.915   7.198
 9359SOL    HW229975   3.833  10.844   7.178
 9360SOL     OW29976   6.100   6.214   1.608
 9360SOL    HW129977   6.112   6.230   1.701
 9360SOL    HW229978   6.188   6.205   1.573
 9361SOL     OW29979   2.566   0.341   8.812
 9361SOL    HW129980   2.550   0.387   8.730
 9361SOL    HW229981   2.497   0.373   8.871
 9362SOL     OW29982   2.829   4.815   6.334
 9362SOL    HW129983   2.864   4.884   6.391
 9362SOL    HW229984   2.761   4.773   6.387
 9363SOL     OW29985  12.835  12.285   2.561
 9363SOL    HW129986  12.850  12.205   2.611
 9363SOL    HW229987  12.833  12.256   2.470
 9364SOL     OW29988   2.882   0.459   3.917
 9364SOL    HW129989   2.886   0.426   4.006
 9364SOL    HW229990   2.910   0.551   3.924
 9365SOL     OW29991   6.486   3.292  13.187
 9365SOL    HW129992   6.392   3.274  13.174
 9365SOL    HW229993   6.503   3.267  13.278
 9366SOL     OW29994   9.603   4.672   9.820
 9366SOL    HW129995   9.528   4.727   9.840
 9366SOL    HW229996   9.606   4.608   9.892
 9367SOL     OW29997   5.920   0.719  14.456
 9367SOL    HW129998   6.015   0.703  14.456
 9367SOL    HW229999   5.884   0.645  14.407
 9368SOL     OW30000  12.991   6.896   3.643
 9368SOL    HW130001  13.040   6.824   3.605
 9368SOL    HW230002  13.058   6.954   3.679
 9369SOL     OW30003  11.785   0.291  10.530
 9369SOL    HW130004  11.843   0.262  10.459
 9369SOL    HW230005  11.800   0.228  10.600
 9370SOL     OW30006  14.325   3.674  11.125
 9370SOL    HW130007  14.329   3.613  11.052
 9370SOL    HW230008  14.281   3.625  11.195
 9371SOL     OW30009  13.027   2.504   7.672
 9371SOL    HW130010  13.112   2.500   7.628
 9371SOL    HW230011  13.008   2.413   7.693
 9372SOL     OW30012   6.215  12.873   0.131
 9372SOL    HW130013   6.260  12.809   0.185
 9372SOL    HW230014   6.253  12.957   0.156
 9373SOL     OW30015   5.597   6.929   4.533
 9373SOL    HW130016   5.539   6.979   4.591
 9373SOL    HW230017   5.565   6.839   4.540
 9374SOL     OW30018   1.708  14.583   3.325
 9374SOL    HW130019   1.753  14.499   3.316
 9374SOL    HW230020   1.648  14.571   3.398
 9375SOL     OW30021  12.108   5.350   8.913
 9375SOL    HW130022  12.142   5.263   8.892
 9375SOL    HW230023  12.054   5.374   8.837
 9376SOL     OW30024   6.436   0.745  13.373
 9376SOL    HW130025   6.371   0.801  13.414
 9376SOL    HW230026   6.520   0.789  13.389
 9377SOL     OW30027   5.933  13.144  13.594
 9377SOL    HW130028   5.877  13.072  13.565
 9377SOL    HW230029   5.885  13.185  13.665
 9378SOL     OW30030   7.782   9.663   6.422
 9378SOL    HW130031   7.786   9.593   6.487
 9378SOL    HW230032   7.761   9.742   6.473
 9379SOL     OW30033  14.727   4.513   3.403
 9379SOL    HW130034  14.654   4.558   3.445
 9379SOL    HW230035  14.688   4.442   3.354
 9380SOL     OW30036  12.685   7.641   2.325
 9380SOL    HW130037  12.739   7.701   2.376
 9380SOL    HW230038  12.708   7.554   2.358
 9381SOL     OW30039   7.553  14.617   3.390
 9381SOL    HW130040   7.491  14.616   3.463
 9381SOL    HW230041   7.498  14.629   3.312
 9382SOL     OW30042   7.517   5.934   6.873
 9382SOL    HW130043   7.430   5.973   6.876
 9382SOL    HW230044   7.559   5.973   6.796
 9383SOL     OW30045  14.673   2.151   7.908
 9383SOL    HW130046  14.748   2.142   7.850
 9383SOL    HW230047  14.711   2.157   7.995
 9384SOL     OW30048   3.979  11.837   2.871
 9384SOL    HW130049   4.005  11.769   2.810
 9384SOL    HW230050   3.929  11.899   2.818
 9385SOL     OW30051   4.015  12.487   6.866
 9385SOL    HW130052   4.071  12.409   6.862
 9385SOL    HW230053   3.926  12.454   6.854
 9386SOL     OW30054   9.521  12.578   3.436
 9386SOL    HW130055   9.563  12.615   3.358
 9386SOL    HW230056   9.580  12.507   3.462
 9387SOL     OW30057  10.148  10.763   5.415
 9387SOL    HW130058  10.167  10.855   5.396
 9387SOL    HW230059  10.234  10.722   5.419
 9388SOL     OW30060   5.261   4.061   9.727
 9388SOL    HW130061   5.279   4.082   9.819
 9388SOL    HW230062   5.347   4.042   9.690
 9389SOL     OW30063   0.459   6.461  12.427
 9389SOL    HW130064   0.464   6.388  12.489
 9389SOL    HW230065   0.550   6.480  12.405
 9390SOL     OW30066  13.355  13.641   0.766
 9390SOL    HW130067  13.293  13.568   0.767
 9390SOL    HW230068  13.313  13.708   0.819
 9391SOL     OW30069  12.938  11.448  14.513
 9391SOL    HW130070  12.946  11.430  14.607
 9391SOL    HW230071  13.020  11.417  14.476
 9392SOL     OW30072   1.038   5.541   7.853
 9392SOL    HW130073   1.085   5.596   7.915
 9392SOL    HW230074   0.946   5.566   7.862
 9393SOL     OW30075   4.141   9.275   7.135
 9393SOL    HW130076   4.116   9.361   7.102
 9393SOL    HW230077   4.065   9.245   7.185
 9394SOL     OW30078   6.881   4.784  10.856
 9394SOL    HW130079   6.817   4.854  10.841
 9394SOL    HW230080   6.916   4.802  10.943
 9395SOL     OW30081   7.873  13.547   5.362
 9395SOL    HW130082   7.891  13.627   5.412
 9395SOL    HW230083   7.889  13.476   5.424
 9396SOL     OW30084  12.450  11.328   6.407
 9396SOL    HW130085  12.449  11.326   6.312
 9396SOL    HW230086  12.468  11.237   6.433
 9397SOL     OW30087   4.776   4.248   0.951
 9397SOL    HW130088   4.785   4.179   0.885
 9397SOL    HW230089   4.783   4.330   0.901
 9398SOL     OW30090   7.846   3.426  10.401
 9398SOL    HW130091   7.894   3.508  10.411
 9398SOL    HW230092   7.904   3.359  10.436
 9399SOL     OW30093  10.602   8.715  10.213
 9399SOL    HW130094  10.649   8.679  10.289
 9399SOL    HW230095  10.670   8.730  10.147
 9400SOL     OW30096   6.974  14.095   3.658
 9400SOL    HW130097   6.951  14.188   3.649
 9400SOL    HW230098   7.069  14.093   3.643
 9401SOL     OW30099   4.653   2.132   9.583
 9401SOL    HW130100   4.619   2.175   9.661
 9401SOL    HW230101   4.733   2.181   9.561
 9402SOL     OW30102  10.246  12.829   1.509
 9402SOL    HW130103  10.213  12.841   1.420
 9402SOL    HW230104  10.227  12.912   1.554
 9403SOL     OW30105   9.746   5.169   4.152
 9403SOL    HW130106   9.660   5.131   4.134
 9403SOL    HW230107   9.751   5.246   4.094
 9404SOL     OW30108   6.318   3.064  14.317
 9404SOL    HW130109   6.236   3.039  14.275
 9404SOL    HW230110   6.383   3.063  14.247
 9405SOL     OW30111  11.676   7.138   1.799
 9405SOL    HW130112  11.617   7.180   1.862
 9405SOL    HW230113  11.667   7.044   1.816
 9406SOL     OW30114  12.455   2.273   2.227
 9406SOL    HW130115  12.374   2.301   2.270
 9406SOL    HW230116  12.436   2.185   2.195
 9407SOL     OW30117   3.250  14.491  13.148
 9407SOL    HW130118   3.311  14.541  13.202
 9407SOL    HW230119   3.234  14.410  13.197
 9408SOL     OW30120   0.585   3.863   9.567
 9408SOL    HW130121   0.604   3.956   9.569
 9408SOL    HW230122   0.522   3.850   9.638
 9409SOL     OW30123   2.044   8.261  14.657
 9409SOL    HW130124   1.975   8.283  14.719
 9409SOL    HW230125   2.083   8.345  14.633
 9410SOL     OW30126   8.776  13.932   3.655
 9410SOL    HW130127   8.774  14.028   3.664
 9410SOL    HW230128   8.852  13.905   3.707
 9411SOL     OW30129  11.085   7.618   2.878
 9411SOL    HW130130  11.048   7.597   2.792
 9411SOL    HW230131  11.039   7.560   2.939
 9412SOL     OW30132   8.547   6.574  11.027
 9412SOL    HW130133   8.573   6.544  11.114
 9412SOL    HW230134   8.451   6.568  11.027
 9413SOL     OW30135   7.090   1.730   0.909
 9413SOL    HW130136   7.103   1.822   0.930
 9413SOL    HW230137   7.035   1.697   0.980
 9414SOL     OW30138  10.266  13.739   6.281
 9414SOL    HW130139  10.171  13.746   6.276
 9414SOL    HW230140  10.281  13.658   6.329
 9415SOL     OW30141   0.971   9.647   4.446
 9415SOL    HW130142   0.906   9.645   4.516
 9415SOL    HW230143   0.950   9.726   4.396
 9416SOL     OW30144   1.018   1.714   2.496
 9416SOL    HW130145   0.991   1.622   2.505
 9416SOL    HW230146   0.945   1.755   2.449
 9417SOL     OW30147   0.851   3.405   0.540
 9417SOL    HW130148   0.888   3.391   0.628
 9417SOL    HW230149   0.855   3.319   0.499
 9418SOL     OW30150   1.647  12.051  14.072
 9418SOL    HW130151   1.729  12.094  14.094
 9418SOL    HW230152   1.664  11.957  14.085
 9419SOL     OW30153   0.119   3.571   4.236
 9419SOL    HW130154   0.197   3.517   4.224
 9419SOL    HW230155   0.050   3.509   4.262
 9420SOL     OW30156   2.803  10.620  13.533
 9420SOL    HW130157   2.820  10.715  13.532
 9420SOL    HW230158   2.773  10.602  13.622
 9421SOL     OW30159   7.490  10.880   2.144
 9421SOL    HW130160   7.574  10.911   2.177
 9421SOL    HW230161   7.512  10.805   2.089
 9422SOL     OW30162   1.794   0.003   5.368
 9422SOL    HW130163   1.884   0.006   5.336
 9422SOL    HW230164   1.796   0.049   5.452
 9423SOL     OW30165   4.969   1.354  11.999
 9423SOL    HW130166   5.044   1.368  12.058
 9423SOL    HW230167   4.938   1.442  11.979
 9424SOL     OW30168   3.009   6.235   6.952
 9424SOL    HW130169   3.088   6.288   6.968
 9424SOL    HW230170   2.956   6.248   7.030
 9425SOL     OW30171   4.732   4.936   7.702
 9425SOL    HW130172   4.780   4.997   7.758
 9425SOL    HW230173   4.793   4.915   7.631
 9426SOL     OW30174  11.382   8.325  10.719
 9426SOL    HW130175  11.342   8.327  10.632
 9426SOL    HW230176  11.393   8.231  10.738
 9427SOL     OW30177  11.284  14.466   0.156
 9427SOL    HW130178  11.330  14.404   0.099
 9427SOL    HW230179  11.206  14.418   0.186
 9428SOL     OW30180  14.161   0.803   8.485
 9428SOL    HW130181  14.217   0.838   8.416
 9428SOL    HW230182  14.133   0.718   8.452
 9429SOL     OW30183  10.324  10.935   6.526
 9429SOL    HW130184  10.357  11.003   6.585
 9429SOL    HW230185  10.377  10.945   6.447
 9430SOL     OW30186  13.361  10.464   4.045
 9430SOL    HW130187  13.411  10.544   4.030
 9430SOL    HW230188  13.398  10.400   3.984
 9431SOL     OW30189  14.220   6.244  14.353
 9431SOL    HW130190  14.280   6.258  14.426
 9431SOL    HW230191  14.252   6.164  14.310
 9432SOL     OW30192  13.032   8.966   6.957
 9432SOL    HW130193  12.996   9.044   7.001
 9432SOL    HW230194  13.045   8.903   7.028
 9433SOL     OW30195   0.948   2.416   2.728
 9433SOL    HW130196   0.937   2.507   2.754
 9433SOL    HW230197   0.973   2.371   2.809
 9434SOL     OW30198  10.487  10.770   6.238
 9434SOL    HW130199  10.579  10.794   6.222
 9434SOL    HW230200  10.438  10.850   6.220
 9435SOL     OW30201   3.447   0.333  10.207
 9435SOL    HW130202   3.511   0.369  10.146
 9435SOL    HW230203   3.500   0.301  10.280
 9436SOL     OW30204   3.433   2.080  14.385
 9436SOL    HW130205   3.369   2.055  14.452
 9436SOL    HW230206   3.493   2.140  14.430
 9437SOL     OW30207   8.040   9.053  12.223
 9437SOL    HW130208   8.053   9.140  12.260
 9437SOL    HW230209   8.122   9.007  12.243
 9438SOL     OW30210   4.969  11.622  13.351
 9438SOL    HW130211   5.056  11.613  13.391
 9438SOL    HW230212   4.910  11.636  13.426
 9439SOL     OW30213  12.664  13.983   8.904
 9439SOL    HW130214  12.663  13.957   8.812
 9439SOL    HW230215  12.628  14.072   8.905
 9440SOL     OW30216   2.032  12.799   7.866
 9440SOL    HW130217   2.003  12.879   7.822
 9440SOL    HW230218   2.030  12.731   7.799
 9441SOL     OW30219   2.259   5.201  14.743
 9441SOL    HW130220   2.213   5.117  14.742
 9441SOL    HW230221   2.211   5.255  14.680
 9442SOL     OW30222  11.197  11.864  10.323
 9442SOL    HW130223  11.118  11.863  10.377
 9442SOL    HW230224  11.265  11.831  10.381
 9443SOL     OW30225  14.528  13.480   9.855
 9443SOL    HW130226  14.476  13.529   9.791
 9443SOL    HW230227  14.613  13.525   9.855
 9444SOL     OW30228   2.856   8.326   4.877
 9444SOL    HW130229   2.809   8.376   4.810
 9444SOL    HW230230   2.938   8.373   4.890
 9445SOL     OW30231   9.985  12.056  12.583
 9445SOL    HW130232   9.901  12.013  12.568
 9445SOL    HW230233  10.030  11.998  12.645
 9446SOL     OW30234   9.070   2.919   3.494
 9446SOL    HW130235   9.104   2.984   3.556
 9446SOL    HW230236   9.048   2.970   3.416
 9447SOL     OW30237   7.974   8.527   6.072
 9447SOL    HW130238   8.048   8.580   6.100
 9447SOL    HW230239   8.012   8.441   6.052
 9448SOL     OW30240   5.365   2.900   9.285
 9448SOL    HW130241   5.299   2.840   9.251
 9448SOL    HW230242   5.421   2.846   9.341
 9449SOL     OW30243   7.282  12.572  13.227
 9449SOL    HW130244   7.332  12.653  13.229
 9449SOL    HW230245   7.323  12.517  13.294
 9450SOL     OW30246   7.785   9.394   3.871
 9450SOL    HW130247   7.743   9.473   3.838
 9450SOL    HW230248   7.783   9.404   3.966
 9451SOL     OW30249   0.979   3.068  13.654
 9451SOL    HW130250   0.993   3.009  13.580
 9451SOL    HW230251   0.941   3.013  13.722
 9452SOL     OW30252   2.061   1.848  12.590
 9452SOL    HW130253   2.063   1.754  12.578
 9452SOL    HW230254   2.041   1.883  12.503
 9453SOL     OW30255  11.038  13.390   7.463
 9453SOL    HW130256  11.059  13.299   7.442
 9453SOL    HW230257  11.033  13.392   7.559
 9454SOL     OW30258  12.412   3.367   3.386
 9454SOL    HW130259  12.488   3.330   3.432
 9454SOL    HW230260  12.435   3.363   3.294
 9455SOL     OW30261   3.166   8.895   1.641
 9455SOL    HW130262   3.233   8.840   1.603
 9455SOL    HW230263   3.121   8.934   1.566
 9456SOL     OW30264   1.374   0.393  13.410
 9456SOL    HW130265   1.387   0.434  13.495
 9456SOL    HW230266   1.318   0.454  13.362
 9457SOL     OW30267   6.988   1.424  12.932
 9457SOL    HW130268   7.029   1.432  12.846
 9457SOL    HW230269   6.894   1.420  12.914
 9458SOL     OW30270   7.532   6.212  13.259
 9458SOL    HW130271   7.499   6.290  13.304
 9458SOL    HW230272   7.466   6.193  13.193
 9459SOL     OW30273  13.048   2.420   8.528
 9459SOL    HW130274  13.122   2.475   8.554
 9459SOL    HW230275  13.060   2.405   8.435
 9460SOL     OW30276  11.487   9.101   9.756
 9460SOL    HW130277  11.427   9.152   9.701
 9460SOL    HW230278  11.476   9.138   9.843
 9461SOL     OW30279   2.333   7.259  11.606
 9461SOL    HW130280   2.321   7.316  11.681
 9461SOL    HW230281   2.402   7.302  11.554
 9462SOL     OW30282  14.427  13.596  13.751
 9462SOL    HW130283  14.490  13.669  13.749
 9462SOL    HW230284  14.396  13.589  13.661
 9463SOL     OW30285   2.150   2.392  13.143
 9463SOL    HW130286   2.161   2.423  13.053
 9463SOL    HW230287   2.158   2.297  13.137
 9464SOL     OW30288  13.211  13.900   5.945
 9464SOL    HW130289  13.258  13.967   5.994
 9464SOL    HW230290  13.260  13.819   5.962
 9465SOL     OW30291   5.583  11.764  10.790
 9465SOL    HW130292   5.643  11.690  10.797
 9465SOL    HW230293   5.539  11.767  10.875
 9466SOL     OW30294   2.027   2.048  14.275
 9466SOL    HW130295   1.947   2.102  14.273
 9466SOL    HW230296   2.088   2.094  14.218
 9467SOL     OW30297   4.971   2.220  12.214
 9467SOL    HW130298   4.943   2.130  12.233
 9467SOL    HW230299   5.067   2.215  12.213
 9468SOL     OW30300   1.100   9.867   5.617
 9468SOL    HW130301   1.030   9.813   5.579
 9468SOL    HW230302   1.135   9.916   5.543
 9469SOL     OW30303   0.354   8.363   0.525
 9469SOL    HW130304   0.326   8.419   0.453
 9469SOL    HW230305   0.386   8.423   0.592
 9470SOL     OW30306   5.227   2.193  12.212
 9470SOL    HW130307   5.241   2.243  12.132
 9470SOL    HW230308   5.268   2.108  12.196
 9471SOL     OW30309  10.958   9.706   3.788
 9471SOL    HW130310  10.923   9.795   3.789
 9471SOL    HW230311  11.005   9.700   3.705
 9472SOL     OW30312   6.705   7.781   6.780
 9472SOL    HW130313   6.731   7.851   6.721
 9472SOL    HW230314   6.627   7.814   6.825
 9473SOL     OW30315   5.854  13.268   1.713
 9473SOL    HW130316   5.818  13.271   1.624
 9473SOL    HW230317   5.778  13.248   1.768
 9474SOL     OW30318   4.109  12.419   7.673
 9474SOL    HW130319   4.024  12.453   7.644
 9474SOL    HW230320   4.106  12.326   7.649
 9475SOL     OW30321   9.930   6.785  14.622
 9475SOL    HW130322   9.842   6.746  14.614
 9475SOL    HW230323   9.950   6.817  14.535
 9476SOL     OW30324   4.863   7.300   3.286
 9476SOL    HW130325   4.806   7.231   3.252
 9476SOL    HW230326   4.804   7.357   3.335
 9477SOL     OW30327   7.406  11.954   0.270
 9477SOL    HW130328   7.419  11.933   0.362
 9477SOL    HW230329   7.416  12.049   0.265
 9478SOL     OW30330   1.941   7.814   2.774
 9478SOL    HW130331   2.002   7.888   2.774
 9478SOL    HW230332   1.976   7.755   2.841
 9479SOL     OW30333   9.936   4.645   7.979
 9479SOL    HW130334   9.968   4.562   8.016
 9479SOL    HW230335   9.974   4.648   7.891
 9480SOL     OW30336   6.326   3.984   6.675
 9480SOL    HW130337   6.410   4.019   6.646
 9480SOL    HW230338   6.299   3.924   6.606
 9481SOL     OW30339   0.762   6.702   0.978
 9481SOL    HW130340   0.731   6.793   0.977
 9481SOL    HW230341   0.683   6.649   0.967
 9482SOL     OW30342  12.321  11.061   1.662
 9482SOL    HW130343  12.256  11.053   1.591
 9482SOL    HW230344  12.287  11.131   1.717
 9483SOL     OW30345  10.399  10.921  12.261
 9483SOL    HW130346  10.350  10.842  12.238
 9483SOL    HW230347  10.462  10.931  12.190
 9484SOL     OW30348   9.666  14.373  13.311
 9484SOL    HW130349   9.623  14.459  13.312
 9484SOL    HW230350   9.626  14.328  13.237
 9485SOL     OW30351   8.462   6.678  10.743
 9485SOL    HW130352   8.546   6.693  10.786
 9485SOL    HW230353   8.474   6.598  10.693
 9486SOL     OW30354  13.559  11.603  10.261
 9486SOL    HW130355  13.576  11.560  10.345
 9486SOL    HW230356  13.466  11.627  10.265
 9487SOL     OW30357   2.370   4.331   3.418
 9487SOL    HW130358   2.461   4.357   3.401
 9487SOL    HW230359   2.348   4.373   3.501
 9488SOL     OW30360   0.846  14.437   5.945
 9488SOL    HW130361   0.782  14.482   5.890
 9488SOL    HW230362   0.888  14.508   5.994
 9489SOL     OW30363   1.238  12.013   8.455
 9489SOL    HW130364   1.332  12.029   8.451
 9489SOL    HW230365   1.199  12.099   8.448
 9490SOL     OW30366   8.612   5.058   8.624
 9490SOL    HW130367   8.675   5.074   8.554
 9490SOL    HW230368   8.568   4.977   8.599
 9491SOL     OW30369   3.730   3.640   3.838
 9491SOL    HW130370   3.780   3.650   3.757
 9491SOL    HW230371   3.656   3.585   3.813
 9492SOL     OW30372   4.433  11.803  11.605
 9492SOL    HW130373   4.348  11.783  11.645
 9492SOL    HW230374   4.486  11.725  11.621
 9493SOL     OW30375   1.417   1.569   6.278
 9493SOL    HW130376   1.493   1.512   6.270
 9493SOL    HW230377   1.350   1.513   6.320
 9494SOL     OW30378  11.018  13.812  14.200
 9494SOL    HW130379  11.095  13.847  14.244
 9494SOL    HW230380  11.026  13.841  14.109
 9495SOL     OW30381  12.533   4.644   0.364
 9495SOL    HW130382  12.544   4.697   0.443
 9495SOL    HW230383  12.515   4.708   0.295
 9496SOL     OW30384   1.440  13.101   4.599
 9496SOL    HW130385   1.392  13.157   4.538
 9496SOL    HW230386   1.512  13.066   4.547
 9497SOL     OW30387   1.190   0.583  13.321
 9497SOL    HW130388   1.136   0.651  13.362
 9497SOL    HW230389   1.225   0.626  13.242
 9498SOL     OW30390   3.533  14.437   9.822
 9498SOL    HW130391   3.445  14.415   9.793
 9498SOL    HW230392   3.578  14.467   9.743
 9499SOL     OW30393   3.955  13.876  11.000
 9499SOL    HW130394   3.863  13.849  10.991
 9499SOL    HW230395   3.978  13.912  10.915
 9500SOL     OW30396  13.938  11.748   3.217
 9500SOL    HW130397  13.966  11.697   3.140
 9500SOL    HW230398  13.846  11.724   3.228
 9501SOL     OW30399   2.086   6.005  10.423
 9501SOL    HW130400   2.174   5.976  10.444
 9501SOL    HW230401   2.081   6.095  10.457
 9502SOL     OW30402   5.953   9.480   0.659
 9502SOL    HW130403   5.867   9.474   0.617
 9502SOL    HW230404   5.941   9.443   0.746
 9503SOL     OW30405   6.619  13.400   3.224
 9503SOL    HW130406   6.699  13.443   3.254
 9503SOL    HW230407   6.650  13.328   3.169
 9504SOL     OW30408   4.875   2.490   8.282
 9504SOL    HW130409   4.872   2.561   8.346
 9504SOL    HW230410   4.945   2.515   8.222
 9505SOL     OW30411  12.294   6.606  10.768
 9505SOL    HW130412  12.277   6.513  10.782
 9505SOL    HW230413  12.216   6.638  10.723
 9506SOL     OW30414  11.279  11.290   1.788
 9506SOL    HW130415  11.343  11.345   1.833
 9506SOL    HW230416  11.194  11.329   1.811
 9507SOL     OW30417  11.860  12.945   6.933
 9507SOL    HW130418  11.842  13.030   6.971
 9507SOL    HW230419  11.790  12.889   6.966
 9508SOL     OW30420  13.674   0.510   2.220
 9508SOL    HW130421  13.669   0.414   2.212
 9508SOL    HW230422  13.661   0.527   2.313
 9509SOL     OW30423  12.307   0.257   6.882
 9509SOL    HW130424  12.359   0.336   6.888
 9509SOL    HW230425  12.243   0.265   6.953
 9510SOL     OW30426   8.291   3.514   5.340
 9510SOL    HW130427   8.318   3.605   5.323
 9510SOL    HW230428   8.207   3.523   5.384
 9511SOL     OW30429  10.971  13.551   3.523
 9511SOL    HW130430  10.933  13.515   3.603
 9511SOL    HW230431  11.056  13.586   3.550
 9512SOL     OW30432  13.597   1.473  10.100
 9512SOL    HW130433  13.615   1.513  10.015
 9512SOL    HW230434  13.625   1.539  10.164
 9513SOL     OW30435   0.191  13.276   6.010
 9513SOL    HW130436   0.168  13.207   6.072
 9513SOL    HW230437   0.112  13.331   6.005
 9514SOL     OW30438   4.775  10.815   9.941
 9514SOL    HW130439   4.697  10.837   9.991
 9514SOL    HW230440   4.741  10.769   9.863
 9515SOL     OW30441   7.502   4.053  11.476
 9515SOL    HW130442   7.421   4.040  11.524
 9515SOL    HW230443   7.507   3.978  11.416
 9516SOL     OW30444   3.193   4.115  10.879
 9516SOL    HW130445   3.209   4.183  10.813
 9516SOL    HW230446   3.107   4.080  10.857
 9517SOL     OW30447   8.006   5.960   4.890
 9517SOL    HW130448   7.928   6.001   4.854
 9517SOL    HW230449   7.975   5.915   4.969
 9518SOL     OW30450  12.229   9.579   1.942
 9518SOL    HW130451  12.312   9.608   1.979
 9518SOL    HW230452  12.165   9.597   2.010
 9519SOL     OW30453   1.999   1.123   9.856
 9519SOL    HW130454   2.091   1.140   9.872
 9519SOL    HW230455   1.971   1.068   9.930
 9520SOL     OW30456   0.074  12.551   3.944
 9520SOL    HW130457  14.862  12.540   3.894
 9520SOL    HW230458   0.044  12.578   4.031
 9521SOL     OW30459   4.276   9.866   9.095
 9521SOL    HW130460   4.201   9.909   9.056
 9521SOL    HW230461   4.295   9.793   9.036
 9522SOL     OW30462   1.759  14.073   4.523
 9522SOL    HW130463   1.760  14.037   4.434
 9522SOL    HW230464   1.721  14.003   4.576
 9523SOL     OW30465  10.081   4.662   3.955
 9523SOL    HW130466  10.128   4.693   3.878
 9523SOL    HW230467  10.097   4.730   4.021
 9524SOL     OW30468   5.339  11.433  13.278
 9524SOL    HW130469   5.320  11.508  13.334
 9524SOL    HW230470   5.387  11.372  13.334
 9525SOL     OW30471   5.499   7.308   0.896
 9525SOL    HW130472   5.478   7.255   0.819
 9525SOL    HW230473   5.508   7.397   0.862
 9526SOL     OW30474  12.827   6.986   1.438
 9526SOL    HW130475  12.812   7.054   1.372
 9526SOL    HW230476  12.895   7.022   1.494
 9527SOL     OW30477   6.801   4.827   7.777
 9527SOL    HW130478   6.749   4.838   7.857
 9527SOL    HW230479   6.800   4.914   7.737
 9528SOL     OW30480   7.884  13.378   2.023
 9528SOL    HW130481   7.850  13.424   2.100
 9528SOL    HW230482   7.808  13.331   1.988
 9529SOL     OW30483   6.756   2.606   4.251
 9529SOL    HW130484   6.852   2.610   4.245
 9529SOL    HW230485   6.728   2.590   4.161
 9530SOL     OW30486   3.813  12.840  11.230
 9530SOL    HW130487   3.857  12.807  11.309
 9530SOL    HW230488   3.773  12.923  11.258
 9531SOL     OW30489   9.385  13.964   1.175
 9531SOL    HW130490   9.389  13.868   1.175
 9531SOL    HW230491   9.471  13.991   1.142
 9532SOL     OW30492   0.075  11.560   8.885
 9532SOL    HW130493   0.143  11.493   8.877
 9532SOL    HW230494   0.090  11.619   8.811
 9533SOL     OW30495   3.744   2.794   9.994
 9533SOL    HW130496   3.821   2.746  10.023
 9533SOL    HW230497   3.777   2.856   9.929
 9534SOL     OW30498   4.413   7.339   2.288
 9534SOL    HW130499   4.468   7.373   2.358
 9534SOL    HW230500   4.327   7.326   2.329
 9535SOL     OW30501   1.885   4.937   8.039
 9535SOL    HW130502   1.929   5.012   8.078
 9535SOL    HW230503   1.808   4.974   7.996
 9536SOL     OW30504   1.189   9.442   7.199
 9536SOL    HW130505   1.171   9.439   7.105
 9536SOL    HW230506   1.284   9.444   7.205
 9537SOL     OW30507   0.763  11.216  10.337
 9537SOL    HW130508   0.749  11.308  10.360
 9537SOL    HW230509   0.695  11.169  10.384
 9538SOL     OW30510  13.110   1.454   7.964
 9538SOL    HW130511  13.126   1.492   7.878
 9538SOL    HW230512  13.049   1.515   8.006
 9539SOL     OW30513  13.409  12.468   7.848
 9539SOL    HW130514  13.324  12.446   7.885
 9539SOL    HW230515  13.416  12.413   7.770
 9540SOL     OW30516   3.571   8.726   5.252
 9540SOL    HW130517   3.590   8.756   5.163
 9540SOL    HW230518   3.647   8.673   5.276
 9541SOL     OW30519   6.831  12.926  12.888
 9541SOL    HW130520   6.829  12.885  12.802
 9541SOL    HW230521   6.740  12.946  12.908
 9542SOL     OW30522   6.709   5.081   0.073
 9542SOL    HW130523   6.784   5.070   0.132
 9542SOL    HW230524   6.633   5.084   0.132
 9543SOL     OW30525  10.720  13.547   6.581
 9543SOL    HW130526  10.779  13.550   6.505
 9543SOL    HW230527  10.684  13.635   6.587
 9544SOL     OW30528   4.288  14.352   9.971
 9544SOL    HW130529   4.324  14.432  10.010
 9544SOL    HW230530   4.194  14.367   9.968
 9545SOL     OW30531   3.724   4.732   6.116
 9545SOL    HW130532   3.703   4.824   6.100
 9545SOL    HW230533   3.697   4.687   6.036
 9546SOL     OW30534   0.766  11.429   2.927
 9546SOL    HW130535   0.736  11.412   3.016
 9546SOL    HW230536   0.725  11.512   2.904
 9547SOL     OW30537   0.015  13.614   1.932
 9547SOL    HW130538  14.827  13.682   1.894
 9547SOL    HW230539   0.064  13.580   1.857
 9548SOL     OW30540   1.090   9.923   0.019
 9548SOL    HW130541   1.123   9.934  14.798
 9548SOL    HW230542   0.995   9.930   0.012
 9549SOL     OW30543  10.814   4.159   7.189
 9549SOL    HW130544  10.773   4.138   7.105
 9549SOL    HW230545  10.869   4.082   7.208
 9550SOL     OW30546   8.241   8.686   7.538
 9550SOL    HW130547   8.322   8.719   7.499
 9550SOL    HW230548   8.241   8.592   7.518
 9551SOL     OW30549  12.333   2.470  10.661
 9551SOL    HW130550  12.412   2.522  10.672
 9551SOL    HW230551  12.340   2.433  10.574
 9552SOL     OW30552  10.801  13.112  12.743
 9552SOL    HW130553  10.748  13.041  12.779
 9552SOL    HW230554  10.752  13.142  12.666
 9553SOL     OW30555  10.206   6.953   5.222
 9553SOL    HW130556  10.218   6.873   5.171
 9553SOL    HW230557  10.208   7.023   5.156
 9554SOL     OW30558   7.522   3.683  12.111
 9554SOL    HW130559   7.512   3.750  12.044
 9554SOL    HW230560   7.440   3.685  12.161
 9555SOL     OW30561  14.830   8.801  10.447
 9555SOL    HW130562   0.013   8.802  10.366
 9555SOL    HW230563  14.866   8.727  10.497
 9556SOL     OW30564  11.377   1.061   7.514
 9556SOL    HW130565  11.299   1.102   7.551
 9556SOL    HW230566  11.345   1.010   7.440
 9557SOL     OW30567   3.827  14.600  12.905
 9557SOL    HW130568   3.760  14.653  12.862
 9557SOL    HW230569   3.862  14.546  12.834
 9558SOL     OW30570   3.601   3.314   1.193
 9558SOL    HW130571   3.597   3.276   1.105
 9558SOL    HW230572   3.694   3.314   1.215
 9559SOL     OW30573   7.780   5.947   8.956
 9559SOL    HW130574   7.710   5.888   8.932
 9559SOL    HW230575   7.860   5.894   8.951
 9560SOL     OW30576  11.160   7.390  13.931
 9560SOL    HW130577  11.091   7.413  13.869
 9560SOL    HW230578  11.229   7.352  13.877
 9561SOL     OW30579  10.607   3.660   0.249
 9561SOL    HW130580  10.638   3.588   0.303
 9561SOL    HW230581  10.684   3.717   0.239
 9562SOL     OW30582   6.051   9.012  11.334
 9562SOL    HW130583   6.018   9.070  11.266
 9562SOL    HW230584   6.146   9.014  11.323
 9563SOL     OW30585   7.410  14.222   9.793
 9563SOL    HW130586   7.465  14.291   9.755
 9563SOL    HW230587   7.472  14.155   9.821
 9564SOL     OW30588   6.782  11.838   4.534
 9564SOL    HW130589   6.810  11.929   4.544
 9564SOL    HW230590   6.826  11.808   4.454
 9565SOL     OW30591   5.517  12.798   1.549
 9565SOL    HW130592   5.517  12.839   1.462
 9565SOL    HW230593   5.425  12.793   1.574
 9566SOL     OW30594  11.403   8.532   6.112
 9566SOL    HW130595  11.318   8.522   6.068
 9566SOL    HW230596  11.380   8.564   6.200
 9567SOL     OW30597   8.471   3.375   0.713
 9567SOL    HW130598   8.538   3.435   0.745
 9567SOL    HW230599   8.408   3.369   0.784
 9568SOL     OW30600   3.664   1.780   3.944
 9568SOL    HW130601   3.680   1.871   3.970
 9568SOL    HW230602   3.744   1.734   3.968
 9569SOL     OW30603  11.319   5.834   1.930
 9569SOL    HW130604  11.379   5.841   1.856
 9569SOL    HW230605  11.308   5.924   1.960
 9570SOL     OW30606  13.856  14.026   8.676
 9570SOL    HW130607  13.896  14.026   8.763
 9570SOL    HW230608  13.931  14.026   8.616
 9571SOL     OW30609  14.243   4.010   9.699
 9571SOL    HW130610  14.279   3.975   9.780
 9571SOL    HW230611  14.187   3.940   9.665
 9572SOL     OW30612   0.657   3.723  14.414
 9572SOL    HW130613   0.735   3.719  14.359
 9572SOL    HW230614   0.599   3.785  14.370
 9573SOL     OW30615   9.402   6.559   2.690
 9573SOL    HW130616   9.450   6.547   2.772
 9573SOL    HW230617   9.383   6.470   2.660
 9574SOL     OW30618  14.048  11.107  10.773
 9574SOL    HW130619  14.002  11.158  10.840
 9574SOL    HW230620  14.136  11.095  10.808
 9575SOL     OW30621   4.760   8.751  10.797
 9575SOL    HW130622   4.800   8.789  10.719
 9575SOL    HW230623   4.667   8.746  10.776
 9576SOL     OW30624   8.473   9.286   3.707
 9576SOL    HW130625   8.546   9.348   3.715
 9576SOL    HW230626   8.472   9.239   3.790
 9577SOL     OW30627   1.304   3.183  14.447
 9577SOL    HW130628   1.330   3.149  14.532
 9577SOL    HW230629   1.374   3.244  14.423
 9578SOL     OW30630   8.704   1.856   7.480
 9578SOL    HW130631   8.611   1.834   7.479
 9578SOL    HW230632   8.746   1.777   7.514
 9579SOL     OW30633  10.097   6.898   3.196
 9579SOL    HW130634  10.110   6.817   3.244
 9579SOL    HW230635  10.169   6.954   3.223
 9580SOL     OW30636  10.133   6.305   9.809
 9580SOL    HW130637  10.201   6.281   9.871
 9580SOL    HW230638  10.169   6.284   9.723
 9581SOL     OW30639   6.174  10.142  11.538
 9581SOL    HW130640   6.250  10.085  11.524
 9581SOL    HW230641   6.120  10.130  11.460
 9582SOL     OW30642  13.044   0.822  14.142
 9582SOL    HW130643  13.075   0.912  14.150
 9582SOL    HW230644  13.095   0.774  14.208
 9583SOL     OW30645  10.234  13.121   5.638
 9583SOL    HW130646  10.190  13.205   5.624
 9583SOL    HW230647  10.278  13.131   5.722
 9584SOL     OW30648   1.474   3.338  12.224
 9584SOL    HW130649   1.395   3.297  12.260
 9584SOL    HW230650   1.443   3.391  12.150
 9585SOL     OW30651   1.471   9.468  10.859
 9585SOL    HW130652   1.395   9.483  10.802
 9585SOL    HW230653   1.492   9.376  10.846
 9586SOL     OW30654   3.100  13.543  13.003
 9586SOL    HW130655   3.045  13.524  12.928
 9586SOL    HW230656   3.181  13.495  12.987
 9587SOL     OW30657   2.537  14.288   1.626
 9587SOL    HW130658   2.592  14.355   1.583
 9587SOL    HW230659   2.482  14.254   1.556
 9588SOL     OW30660   7.871   0.538   9.105
 9588SOL    HW130661   7.904   0.504   9.022
 9588SOL    HW230662   7.777   0.521   9.102
 9589SOL     OW30663  12.552  10.027   0.080
 9589SOL    HW130664  12.478  10.040   0.140
 9589SOL    HW230665  12.539   9.938   0.046
 9590SOL     OW30666  13.423   0.060   1.287
 9590SOL    HW130667  13.391  14.839   1.279
 9590SOL    HW230668  13.502   0.053   1.340
 9591SOL     OW30669  13.473  11.644  10.976
 9591SOL    HW130670  13.496  11.551  10.979
 9591SOL    HW230671  13.502  11.679  11.060
 9592SOL     OW30672   9.485  10.258  13.955
 9592SOL    HW130673   9.519  10.338  13.915
 9592SOL    HW230674   9.552  10.192  13.937
 9593SOL     OW30675   3.200   8.685   0.997
 9593SOL    HW130676   3.188   8.596   0.963
 9593SOL    HW230677   3.147   8.740   0.941
 9594SOL     OW30678   2.103  12.677  12.617
 9594SOL    HW130679   2.060  12.750  12.573
 9594SOL    HW230680   2.190  12.672  12.577
 9595SOL     OW30681   4.411   6.491   0.242
 9595SOL    HW130682   4.368   6.576   0.232
 9595SOL    HW230683   4.370   6.436   0.176
 9596SOL     OW30684   2.247  14.690   3.559
 9596SOL    HW130685   2.246  14.597   3.538
 9596SOL    HW230686   2.186  14.730   3.497
 9597SOL     OW30687   2.282   7.659   1.258
 9597SOL    HW130688   2.358   7.644   1.314
 9597SOL    HW230689   2.236   7.733   1.298
 9598SOL     OW30690   4.970   6.235  10.843
 9598SOL    HW130691   4.965   6.162  10.781
 9598SOL    HW230692   5.016   6.304  10.796
 9599SOL     OW30693   5.313   9.156  11.999
 9599SOL    HW130694   5.296   9.201  11.917
 9599SOL    HW230695   5.409   9.154  12.007
 9600SOL     OW30696   4.651  12.824  11.420
 9600SOL    HW130697   4.626  12.883  11.491
 9600SOL    HW230698   4.569  12.781  11.395
 9601SOL     OW30699  13.913   4.140   2.866
 9601SOL    HW130700  13.923   4.159   2.772
 9601SOL    HW230701  13.940   4.220   2.910
 9602SOL     OW30702   6.058  10.623   8.596
 9602SOL    HW130703   6.091  10.663   8.515
 9602SOL    HW230704   6.060  10.529   8.579
 9603SOL     OW30705   4.860  10.067  14.868
 9603SOL    HW130706   4.774  10.036   0.027
 9603SOL    HW230707   4.847  10.102  14.779
 9604SOL     OW30708   6.789  10.585   4.052
 9604SOL    HW130709   6.764  10.631   4.132
 9604SOL    HW230710   6.768  10.494   4.069
 9605SOL     OW30711   3.221  12.324   5.983
 9605SOL    HW130712   3.222  12.287   6.072
 9605SOL    HW230713   3.290  12.277   5.937
 9606SOL     OW30714   8.760  12.367   5.489
 9606SOL    HW130715   8.823  12.406   5.427
 9606SOL    HW230716   8.814  12.311   5.545
 9607SOL     OW30717   2.032   5.377   5.155
 9607SOL    HW130718   2.008   5.299   5.205
 9607SOL    HW230719   2.009   5.450   5.213
 9608SOL     OW30720  13.450   9.036  11.860
 9608SOL    HW130721  13.468   9.017  11.768
 9608SOL    HW230722  13.476   8.957  11.907
 9609SOL     OW30723  10.963   7.127  10.379
 9609SOL    HW130724  10.993   7.196  10.319
 9609SOL    HW230725  10.961   7.170  10.464
 9610SOL     OW30726   9.723   6.852   5.337
 9610SOL    HW130727   9.799   6.908   5.323
 9610SOL    HW230728   9.754   6.764   5.316
 9611SOL     OW30729   2.598  10.740   8.160
 9611SOL    HW130730   2.576  10.647   8.151
 9611SOL    HW230731   2.667  10.741   8.226
 9612SOL     OW30732  14.757  11.566  10.076
 9612SOL    HW130733  14.715  11.535  10.157
 9612SOL    HW230734  14.684  11.594  10.021
 9613SOL     OW30735   2.854  12.029  14.685
 9613SOL    HW130736   2.762  12.030  14.656
 9613SOL    HW230737   2.853  11.980  14.767
 9614SOL     OW30738   7.374   3.602   5.533
 9614SOL    HW130739   7.413   3.646   5.608
 9614SOL    HW230740   7.432   3.625   5.460
 9615SOL     OW30741   1.635   3.372  12.770
 9615SOL    HW130742   1.650   3.280  12.792
 9615SOL    HW230743   1.665   3.379  12.679
 9616SOL     OW30744  14.046   4.364   0.812
 9616SOL    HW130745  13.992   4.382   0.735
 9616SOL    HW230746  14.022   4.433   0.874
 9617SOL     OW30747   8.419   4.967  14.863
 9617SOL    HW130748   8.340   5.008   0.031
 9617SOL    HW230749   8.467   4.937   0.073
 9618SOL     OW30750   0.424   3.815   9.358
 9618SOL    HW130751   0.452   3.850   9.443
 9618SOL    HW230752   0.493   3.752   9.335
 9619SOL     OW30753   5.922   9.227   7.697
 9619SOL    HW130754   5.838   9.191   7.669
 9619SOL    HW230755   5.923   9.214   7.792
 9620SOL     OW30756  12.560   3.642   0.443
 9620SOL    HW130757  12.497   3.573   0.464
 9620SOL    HW230758  12.641   3.613   0.484
 9621SOL     OW30759   7.518   7.306  10.259
 9621SOL    HW130760   7.433   7.340  10.231
 9621SOL    HW230761   7.573   7.384  10.269
 9622SOL     OW30762   6.880  14.661   5.018
 9622SOL    HW130763   6.965  14.703   5.000
 9622SOL    HW230764   6.849  14.705   5.098
 9623SOL     OW30765   8.293   6.276   6.934
 9623SOL    HW130766   8.236   6.311   7.003
 9623SOL    HW230767   8.304   6.184   6.957
 9624SOL     OW30768   4.034  13.246   8.289
 9624SOL    HW130769   4.086  13.252   8.209
 9624SOL    HW230770   3.981  13.326   8.288
 9625SOL     OW30771   7.193   5.685   5.867
 9625SOL    HW130772   7.274   5.720   5.830
 9625SOL    HW230773   7.124   5.739   5.827
 9626SOL     OW30774   5.332  10.831   9.486
 9626SOL    HW130775   5.324  10.918   9.446
 9626SOL    HW230776   5.243  10.809   9.515
 9627SOL     OW30777   4.660   6.669   9.457
 9627SOL    HW130778   4.707   6.590   9.486
 9627SOL    HW230779   4.631   6.648   9.368
 9628SOL     OW30780  11.652  14.348  14.254
 9628SOL    HW130781  11.632  14.258  14.229
 9628SOL    HW230782  11.656  14.346  14.350
 9629SOL     OW30783   2.903   8.342   3.796
 9629SOL    HW130784   2.875   8.432   3.813
 9629SOL    HW230785   2.886   8.329   3.702
 9630SOL     OW30786   4.709  10.481  10.665
 9630SOL    HW130787   4.729  10.483  10.572
 9630SOL    HW230788   4.759  10.407  10.699
 9631SOL     OW30789   2.386  10.851   3.813
 9631SOL    HW130790   2.443  10.927   3.829
 9631SOL    HW230791   2.344  10.871   3.729
 9632SOL     OW30792  14.244   6.125   1.232
 9632SOL    HW130793  14.322   6.089   1.274
 9632SOL    HW230794  14.172   6.102   1.290
 9633SOL     OW30795   1.848   7.198   0.097
 9633SOL    HW130796   1.922   7.138   0.103
 9633SOL    HW230797   1.884   7.283   0.122
 9634SOL     OW30798  14.229   6.237  10.486
 9634SOL    HW130799  14.159   6.300  10.470
 9634SOL    HW230800  14.212   6.167  10.423
 9635SOL     OW30801   6.628  11.007   1.133
 9635SOL    HW130802   6.710  11.004   1.084
 9635SOL    HW230803   6.645  11.064   1.207
 9636SOL     OW30804   6.939  12.119   4.209
 9636SOL    HW130805   7.032  12.123   4.230
 9636SOL    HW230806   6.932  12.050   4.143
 9637SOL     OW30807   4.450   0.494   0.349
 9637SOL    HW130808   4.407   0.421   0.306
 9637SOL    HW230809   4.432   0.481   0.443
 9638SOL     OW30810   6.469   0.255  10.019
 9638SOL    HW130811   6.528   0.325   9.990
 9638SOL    HW230812   6.422   0.292  10.093
 9639SOL     OW30813  11.210   2.018  11.134
 9639SOL    HW130814  11.147   2.091  11.135
 9639SOL    HW230815  11.155   1.940  11.124
 9640SOL     OW30816   9.201   2.419   9.612
 9640SOL    HW130817   9.173   2.328   9.598
 9640SOL    HW230818   9.295   2.412   9.629
 9641SOL     OW30819  10.850   9.694   3.322
 9641SOL    HW130820  10.851   9.617   3.265
 9641SOL    HW230821  10.925   9.683   3.380
 9642SOL     OW30822   3.004  10.992   1.720
 9642SOL    HW130823   3.051  11.001   1.802
 9642SOL    HW230824   3.057  11.039   1.656
 9643SOL     OW30825  12.534   5.329   3.793
 9643SOL    HW130826  12.468   5.298   3.731
 9643SOL    HW230827  12.534   5.424   3.781
 9644SOL     OW30828  12.976  11.162  13.044
 9644SOL    HW130829  12.991  11.125  13.131
 9644SOL    HW230830  13.001  11.254  13.053
 9645SOL     OW30831   9.969  10.483   6.745
 9645SOL    HW130832   9.919  10.479   6.664
 9645SOL    HW230833  10.061  10.478   6.717
 9646SOL     OW30834   5.463  12.716   2.575
 9646SOL    HW130835   5.372  12.717   2.545
 9646SOL    HW230836   5.477  12.804   2.610
 9647SOL     OW30837  11.847   7.033  13.553
 9647SOL    HW130838  11.874   6.958  13.500
 9647SOL    HW230839  11.760   7.009  13.585
 9648SOL     OW30840  10.793   6.424  11.955
 9648SOL    HW130841  10.706   6.393  11.981
 9648SOL    HW230842  10.848   6.346  11.958
 9649SOL     OW30843  13.020   4.528   0.626
 9649SOL    HW130844  13.061   4.481   0.553
 9649SOL    HW230845  12.981   4.459   0.680
 9650SOL     OW30846   5.658  13.712   3.059
 9650SOL    HW130847   5.714  13.636   3.045
 9650SOL    HW230848   5.655  13.724   3.154
 9651SOL     OW30849  12.840   7.958   4.874
 9651SOL    HW130850  12.930   7.988   4.861
 9651SOL    HW230851  12.844   7.863   4.863
 9652SOL     OW30852   1.400  14.191  14.282
 9652SOL    HW130853   1.413  14.151  14.368
 9652SOL    HW230854   1.340  14.264  14.298
 9653SOL     OW30855  14.046  11.318  11.504
 9653SOL    HW130856  14.094  11.399  11.516
 9653SOL    HW230857  13.975  11.340  11.444
 9654SOL     OW30858  14.387   9.642  12.063
 9654SOL    HW130859  14.390   9.671  12.155
 9654SOL    HW230860  14.438   9.708  12.016
 9655SOL     OW30861  12.874   7.274   1.511
 9655SOL    HW130862  12.874   7.369   1.527
 9655SOL    HW230863  12.832   7.264   1.426
 9656SOL     OW30864   6.362  13.803  10.146
 9656SOL    HW130865   6.295  13.800  10.077
 9656SOL    HW230866   6.430  13.860  10.111
 9657SOL     OW30867   3.212  14.798   1.130
 9657SOL    HW130868   3.283  14.739   1.156
 9657SOL    HW230869   3.157  14.806   1.208
 9658SOL     OW30870   3.200   8.009   3.795
 9658SOL    HW130871   3.268   7.945   3.773
 9658SOL    HW230872   3.145   7.964   3.860
 9659SOL     OW30873  11.860   6.608  12.632
 9659SOL    HW130874  11.784   6.611  12.691
 9659SOL    HW230875  11.829   6.562  12.554
 9660SOL     OW30876  12.708   0.141   7.039
 9660SOL    HW130877  12.651   0.185   6.976
 9660SOL    HW230878  12.748   0.069   6.989
 9661SOL     OW30879   6.442  12.281  12.542
 9661SOL    HW130880   6.351  12.289  12.514
 9661SOL    HW230881   6.450  12.340  12.617
 9662SOL     OW30882  11.176  12.076  14.024
 9662SOL    HW130883  11.096  12.043  13.983
 9662SOL    HW230884  11.156  12.083  14.117
 9663SOL     OW30885   1.262  10.680   5.434
 9663SOL    HW130886   1.324  10.631   5.380
 9663SOL    HW230887   1.287  10.772   5.423
 9664SOL     OW30888   4.507   1.988  12.459
 9664SOL    HW130889   4.491   2.040  12.538
 9664SOL    HW230890   4.480   2.046  12.388
 9665SOL     OW30891   7.951  12.570  13.495
 9665SOL    HW130892   7.993  12.521  13.566
 9665SOL    HW230893   8.023  12.618  13.454
 9666SOL     OW30894   4.300   5.243   7.323
 9666SOL    HW130895   4.251   5.306   7.375
 9666SOL    HW230896   4.334   5.181   7.386
 9667SOL     OW30897   6.390   2.215   5.509
 9667SOL    HW130898   6.436   2.264   5.577
 9667SOL    HW230899   6.457   2.157   5.473
 9668SOL     OW30900  14.239  10.626  13.306
 9668SOL    HW130901  14.281  10.570  13.371
 9668SOL    HW230902  14.152  10.643  13.342
 9669SOL     OW30903   1.496   6.978   7.573
 9669SOL    HW130904   1.420   6.920   7.563
 9669SOL    HW230905   1.572   6.922   7.554
 9670SOL     OW30906  12.412  13.487  11.688
 9670SOL    HW130907  12.489  13.432  11.670
 9670SOL    HW230908  12.442  13.551  11.752
 9671SOL     OW30909  12.680   4.331  13.700
 9671SOL    HW130910  12.664   4.355  13.608
 9671SOL    HW230911  12.597   4.348  13.744
 9672SOL     OW30912   0.274  11.330   3.283
 9672SOL    HW130913   0.245  11.240   3.270
 9672SOL    HW230914   0.347  11.323   3.344
 9673SOL     OW30915   2.931   4.654   2.518
 9673SOL    HW130916   2.940   4.580   2.578
 9673SOL    HW230917   3.011   4.704   2.530
 9674SOL     OW30918   7.657  11.374   3.229
 9674SOL    HW130919   7.696  11.305   3.282
 9674SOL    HW230920   7.731  11.425   3.197
 9675SOL     OW30921  12.049   4.721   9.177
 9675SOL    HW130922  12.019   4.810   9.161
 9675SOL    HW230923  12.144   4.727   9.176
 9676SOL     OW30924   2.116  12.008   6.878
 9676SOL    HW130925   2.152  11.993   6.790
 9676SOL    HW230926   2.126  11.924   6.922
 9677SOL     OW30927   6.874  10.134   9.235
 9677SOL    HW130928   6.829  10.159   9.154
 9677SOL    HW230929   6.924  10.211   9.260
 9678SOL     OW30930  10.418   9.096   1.988
 9678SOL    HW130931  10.363   9.091   1.911
 9678SOL    HW230932  10.405   9.185   2.022
 9679SOL     OW30933   1.413   2.764   5.514
 9679SOL    HW130934   1.465   2.733   5.588
 9679SOL    HW230935   1.472   2.759   5.439
 9680SOL     OW30936   1.429   1.995   6.006
 9680SOL    HW130937   1.430   2.085   6.038
 9680SOL    HW230938   1.509   1.956   6.043
 9681SOL     OW30939   2.012   0.128   9.805
 9681SOL    HW130940   1.945   0.082   9.856
 9681SOL    HW230941   2.033   0.068   9.734
 9682SOL     OW30942   1.278   1.450   1.888
 9682SOL    HW130943   1.348   1.386   1.899
 9682SOL    HW230944   1.315   1.517   1.830
 9683SOL     OW30945   6.548   1.975   7.918
 9683SOL    HW130946   6.469   2.010   7.959
 9683SOL    HW230947   6.554   2.022   7.835
 9684SOL     OW30948   2.047   6.224  10.586
 9684SOL    HW130949   2.028   6.316  10.603
 9684SOL    HW230950   2.058   6.185  10.673
 9685SOL     OW30951   8.758   5.782   4.220
 9685SOL    HW130952   8.814   5.826   4.285
 9685SOL    HW230953   8.711   5.716   4.271
 9686SOL     OW30954   6.485   0.537  11.311
 9686SOL    HW130955   6.408   0.502  11.355
 9686SOL    HW230956   6.459   0.545  11.220
 9687SOL     OW30957   1.919   4.623  11.245
 9687SOL    HW130958   1.985   4.690  11.264
 9687SOL    HW230959   1.873   4.611  11.329
 9688SOL     OW30960   9.967   7.785  12.330
 9688SOL    HW130961  10.043   7.726  12.339
 9688SOL    HW230962   9.961   7.828  12.415
 9689SOL     OW30963  11.002   6.795   2.337
 9689SOL    HW130964  10.995   6.871   2.394
 9689SOL    HW230965  10.941   6.732   2.374
 9690SOL     OW30966   7.642   6.395   9.387
 9690SOL    HW130967   7.701   6.321   9.378
 9690SOL    HW230968   7.558   6.356   9.410
 9691SOL     OW30969   7.841  13.594   1.289
 9691SOL    HW130970   7.909  13.599   1.222
 9691SOL    HW230971   7.882  13.547   1.362
 9692SOL     OW30972   5.780   0.956   2.063
 9692SOL    HW130973   5.873   0.933   2.059
 9692SOL    HW230974   5.764   1.006   1.983
 9693SOL     OW30975   0.443  12.763   3.445
 9693SOL    HW130976   0.490  12.752   3.527
 9693SOL    HW230977   0.495  12.827   3.396
 9694SOL     OW30978  13.726   7.299   9.268
 9694SOL    HW130979  13.811   7.336   9.292
 9694SOL    HW230980  13.682   7.370   9.220
 9695SOL     OW30981   0.780   5.664  13.911
 9695SOL    HW130982   0.792   5.632  13.822
 9695SOL    HW230983   0.777   5.760  13.902
 9696SOL     OW30984   4.841   7.094   6.058
 9696SOL    HW130985   4.769   7.157   6.062
 9696SOL    HW230986   4.908   7.130   6.116
 9697SOL     OW30987   8.178   9.166   3.845
 9697SOL    HW130988   8.176   9.080   3.803
 9697SOL    HW230989   8.158   9.227   3.774
 9698SOL     OW30990  10.150   0.378   4.971
 9698SOL    HW130991  10.234   0.347   4.937
 9698SOL    HW230992  10.163   0.384   5.066
 9699SOL     OW30993  10.748   6.955  11.838
 9699SOL    HW130994  10.678   6.891  11.849
 9699SOL    HW230995  10.787   6.934  11.753
 9700SOL     OW30996   8.093   6.940   5.475
 9700SOL    HW130997   8.056   6.852   5.473
 9700SOL    HW230998   8.171   6.933   5.530
 9701SOL     OW30999  13.838  10.871   5.071
 9701SOL    HW131000  13.876  10.885   4.985
 9701SOL    HW231001  13.746  10.898   5.061
 9702SOL     OW31002  11.399   8.177  14.318
 9702SOL    HW131003  11.466   8.119  14.354
 9702SOL    HW231004  11.341   8.196  14.392
 9703SOL     OW31005   5.052   3.272   0.811
 9703SOL    HW131006   5.052   3.339   0.742
 9703SOL    HW231007   5.062   3.189   0.764
 9704SOL     OW31008  13.622   2.984   6.888
 9704SOL    HW131009  13.706   2.938   6.886
 9704SOL    HW231010  13.584   2.968   6.801
 9705SOL     OW31011  11.303   8.078   5.417
 9705SOL    HW131012  11.246   8.119   5.482
 9705SOL    HW231013  11.243   8.030   5.359
 9706SOL     OW31014  12.053  14.304   5.586
 9706SOL    HW131015  12.066  14.395   5.560
 9706SOL    HW231016  12.047  14.307   5.681
 9707SOL     OW31017   3.825   1.056   0.110
 9707SOL    HW131018   3.849   1.143   0.140
 9707SOL    HW231019   3.902   1.002   0.126
 9708SOL     OW31020   4.119  10.932  12.529
 9708SOL    HW131021   4.165  10.865  12.479
 9708SOL    HW231022   4.163  10.932  12.615
 9709SOL     OW31023   4.767  14.181   8.015
 9709SOL    HW131024   4.851  14.134   8.024
 9709SOL    HW231025   4.770  14.218   7.927
 9710SOL     OW31026   1.898   6.006   6.427
 9710SOL    HW131027   1.856   6.003   6.513
 9710SOL    HW231028   1.950   5.927   6.422
 9711SOL     OW31029  11.204   8.602   4.967
 9711SOL    HW131030  11.201   8.697   4.977
 9711SOL    HW231031  11.246   8.588   4.882
 9712SOL     OW31032  10.011   3.239   2.121
 9712SOL    HW131033  10.040   3.158   2.079
 9712SOL    HW231034  10.067   3.307   2.083
 9713SOL     OW31035  14.629   6.603  11.859
 9713SOL    HW131036  14.613   6.666  11.929
 9713SOL    HW231037  14.696   6.544  11.894
 9714SOL     OW31038   4.049   8.205   5.455
 9714SOL    HW131039   4.029   8.189   5.363
 9714SOL    HW231040   4.142   8.182   5.463
 9715SOL     OW31041   5.368   4.270   2.819
 9715SOL    HW131042   5.298   4.321   2.778
 9715SOL    HW231043   5.427   4.248   2.747
 9716SOL     OW31044   2.297   7.223   2.975
 9716SOL    HW131045   2.380   7.238   2.930
 9716SOL    HW231046   2.231   7.227   2.905
 9717SOL     OW31047  10.600  12.312  13.009
 9717SOL    HW131048  10.583  12.369  12.934
 9717SOL    HW231049  10.649  12.367  13.070
 9718SOL     OW31050   5.514   2.881   2.629
 9718SOL    HW131051   5.459   2.927   2.566
 9718SOL    HW231052   5.458   2.871   2.706
 9719SOL     OW31053   4.106   9.807  12.115
 9719SOL    HW131054   4.028   9.860  12.129
 9719SOL    HW231055   4.155   9.853  12.048
 9720SOL     OW31056   4.966   4.532  14.537
 9720SOL    HW131057   4.878   4.565  14.521
 9720SOL    HW231058   4.958   4.437  14.532
 9721SOL     OW31059   6.048   0.107  13.394
 9721SOL    HW131060   6.064   0.013  13.381
 9721SOL    HW231061   6.025   0.115  13.487
 9722SOL     OW31062   6.470  12.263   3.673
 9722SOL    HW131063   6.513  12.322   3.611
 9722SOL    HW231064   6.383  12.249   3.637
 9723SOL     OW31065  14.658  12.280  11.696
 9723SOL    HW131066  14.641  12.297  11.604
 9723SOL    HW231067  14.588  12.326  11.742
 9724SOL     OW31068  13.888   5.268   2.225
 9724SOL    HW131069  13.832   5.275   2.302
 9724SOL    HW231070  13.939   5.188   2.240
 9725SOL     OW31071  14.014  14.792   0.311
 9725SOL    HW131072  14.072  14.851   0.359
 9725SOL    HW231073  13.971  14.848   0.246
 9726SOL     OW31074   6.280   7.346  11.051
 9726SOL    HW131075   6.358   7.371  11.102
 9726SOL    HW231076   6.215   7.412  11.075
 9727SOL     OW31077  12.829   8.854  12.961
 9727SOL    HW131078  12.744   8.838  13.001
 9727SOL    HW231079  12.880   8.898  13.029
 9728SOL     OW31080   2.894   6.053   0.694
 9728SOL    HW131081   2.889   6.106   0.615
 9728SOL    HW231082   2.840   6.101   0.758
 9729SOL     OW31083   0.262   6.140   7.424
 9729SOL    HW131084   0.247   6.234   7.420
 9729SOL    HW231085   0.258   6.119   7.517
 9730SOL     OW31086   9.804   7.246   8.012
 9730SOL    HW131087   9.899   7.248   8.025
 9730SOL    HW231088   9.786   7.158   7.979
 9731SOL     OW31089   2.700  14.418   0.218
 9731SOL    HW131090   2.717  14.324   0.215
 9731SOL    HW231091   2.720  14.449   0.129
 9732SOL     OW31092   9.917   2.165  11.080
 9732SOL    HW131093   9.910   2.156  10.985
 9732SOL    HW231094   9.912   2.259  11.097
 9733SOL     OW31095  14.265  12.122   5.539
 9733SOL    HW131096  14.227  12.114   5.627
 9733SOL    HW231097  14.320  12.200   5.544
 9734SOL     OW31098   3.345  11.643   4.280
 9734SOL    HW131099   3.283  11.692   4.226
 9734SOL    HW231100   3.374  11.706   4.346
 9735SOL     OW31101   4.304   7.701   9.570
 9735SOL    HW131102   4.262   7.621   9.538
 9735SOL    HW231103   4.358   7.672   9.643
 9736SOL     OW31104   0.028   5.825   9.609
 9736SOL    HW131105  14.830   5.777   9.560
 9736SOL    HW231106   0.111   5.789   9.580
 9737SOL     OW31107   2.489   1.256   8.688
 9737SOL    HW131108   2.465   1.171   8.724
 9737SOL    HW231109   2.410   1.288   8.645
 9738SOL     OW31110   0.424  13.256   8.283
 9738SOL    HW131111   0.411  13.337   8.334
 9738SOL    HW231112   0.501  13.274   8.230
 9739SOL     OW31113  10.414  11.596   8.801
 9739SOL    HW131114  10.459  11.617   8.719
 9739SOL    HW231115  10.321  11.609   8.780
 9740SOL     OW31116   2.447   9.514   8.771
 9740SOL    HW131117   2.468   9.548   8.858
 9740SOL    HW231118   2.498   9.570   8.711
 9741SOL     OW31119   5.835   2.648   0.432
 9741SOL    HW131120   5.827   2.553   0.421
 9741SOL    HW231121   5.858   2.680   0.345
 9742SOL     OW31122   7.970   7.918   9.359
 9742SOL    HW131123   8.032   7.932   9.430
 9742SOL    HW231124   7.887   7.899   9.402
 9743SOL     OW31125   3.886   1.373   9.190
 9743SOL    HW131126   3.949   1.323   9.139
 9743SOL    HW231127   3.897   1.463   9.159
 9744SOL     OW31128  14.838   1.903  13.960
 9744SOL    HW131129  14.798   1.915  14.046
 9744SOL    HW231130  14.824   1.811  13.939
 9745SOL     OW31131   4.927  11.313  10.962
 9745SOL    HW131132   4.843  11.271  10.944
 9745SOL    HW231133   4.909  11.407  10.955
 9746SOL     OW31134   7.092   9.165   4.720
 9746SOL    HW131135   7.075   9.129   4.632
 9746SOL    HW231136   7.086   9.089   4.778
 9747SOL     OW31137  11.873   6.089   6.474
 9747SOL    HW131138  11.852   6.181   6.486
 9747SOL    HW231139  11.812   6.043   6.531
 9748SOL     OW31140   8.803  11.838  14.509
 9748SOL    HW131141   8.845  11.756  14.532
 9748SOL    HW231142   8.820  11.895  14.584
 9749SOL     OW31143   4.075  10.689   3.881
 9749SOL    HW131144   4.057  10.635   3.804
 9749SOL    HW231145   4.152  10.740   3.857
 9750SOL     OW31146  10.703   5.483  14.010
 9750SOL    HW131147  10.754   5.407  14.038
 9750SOL    HW231148  10.663   5.457  13.928
 9751SOL     OW31149   6.298  11.552   0.716
 9751SOL    HW131150   6.228  11.537   0.653
 9751SOL    HW231151   6.378  11.551   0.663
 9752SOL     OW31152   8.311   2.750  12.435
 9752SOL    HW131153   8.378   2.817  12.446
 9752SOL    HW231154   8.352   2.685  12.377
 9753SOL     OW31155   4.513   7.391  13.809
 9753SOL    HW131156   4.555   7.471  13.839
 9753SOL    HW231157   4.460   7.362  13.884
 9754SOL     OW31158   6.502  12.523   7.714
 9754SOL    HW131159   6.516  12.593   7.778
 9754SOL    HW231160   6.418  12.543   7.674
 9755SOL     OW31161   7.312  11.469  12.914
 9755SOL    HW131162   7.349  11.461  12.826
 9755SOL    HW231163   7.375  11.524  12.961
 9756SOL     OW31164   2.152   1.817   0.928
 9756SOL    HW131165   2.082   1.756   0.951
 9756SOL    HW231166   2.231   1.777   0.962
 9757SOL     OW31167   3.689   5.349  12.987
 9757SOL    HW131168   3.726   5.299  13.060
 9757SOL    HW231169   3.719   5.439  13.000
 9758SOL     OW31170   1.938  11.825  13.953
 9758SOL    HW131171   2.012  11.881  13.929
 9758SOL    HW231172   1.963  11.787  14.037
 9759SOL     OW31173   6.600   5.873   4.664
 9759SOL    HW131174   6.571   5.911   4.747
 9759SOL    HW231175   6.520   5.868   4.611
 9760SOL     OW31176   6.528   4.051   6.484
 9760SOL    HW131177   6.597   3.989   6.462
 9760SOL    HW231178   6.484   4.068   6.401
 9761SOL     OW31179   2.675  12.825   6.544
 9761SOL    HW131180   2.601  12.809   6.486
 9761SOL    HW231181   2.680  12.920   6.552
 9762SOL     OW31182   9.627   7.406   7.177
 9762SOL    HW131183   9.582   7.352   7.242
 9762SOL    HW231184   9.687   7.346   7.134
 9763SOL     OW31185   1.927  11.219  12.988
 9763SOL    HW131186   2.018  11.248  12.989
 9763SOL    HW231187   1.926  11.141  13.044
 9764SOL     OW31188   9.921   3.925  13.283
 9764SOL    HW131189   9.869   3.991  13.238
 9764SOL    HW231190   9.867   3.846  13.279
 9765SOL     OW31191   8.985   1.711   4.970
 9765SOL    HW131192   8.926   1.646   5.009
 9765SOL    HW231193   9.014   1.671   4.888
 9766SOL     OW31194  10.584  13.184  14.788
 9766SOL    HW131195  10.511  13.143  14.741
 9766SOL    HW231196  10.662  13.157  14.740
 9767SOL     OW31197   3.595   8.862   9.754
 9767SOL    HW131198   3.613   8.768   9.761
 9767SOL    HW231199   3.505   8.871   9.786
 9768SOL     OW31200   1.183   3.358   7.046
 9768SOL    HW131201   1.108   3.333   7.099
 9768SOL    HW231202   1.153   3.435   6.997
 9769SOL     OW31203   9.799   3.105   8.271
 9769SOL    HW131204   9.757   3.081   8.353
 9769SOL    HW231205   9.745   3.065   8.203
 9770SOL     OW31206  11.706  12.048  14.786
 9770SOL    HW131207  11.682  11.984  14.719
 9770SOL    HW231208  11.719  11.996  14.865
 9771SOL     OW31209   8.356   0.114   6.727
 9771SOL    HW131210   8.399   0.112   6.642
 9771SOL    HW231211   8.395   0.190   6.772
 9772SOL     OW31212  13.446   9.624  14.859
 9772SOL    HW131213  13.505   9.622   0.066
 9772SOL    HW231214  13.427   9.531  14.841
 9773SOL     OW31215  13.788  14.634  14.590
 9773SOL    HW131216  13.720  14.592  14.538
 9773SOL    HW231217  13.748  14.715  14.621
 9774SOL     OW31218   0.346   7.543   5.439
 9774SOL    HW131219   0.375   7.592   5.362
 9774SOL    HW231220   0.358   7.602   5.512
 9775SOL     OW31221   4.451  10.827  13.006
 9775SOL    HW131222   4.400  10.814  12.926
 9775SOL    HW231223   4.542  10.833  12.977
 9776SOL     OW31224   4.229   2.611   6.665
 9776SOL    HW131225   4.219   2.605   6.760
 9776SOL    HW231226   4.320   2.586   6.649
 9777SOL     OW31227   0.971   8.881   2.150
 9777SOL    HW131228   0.948   8.899   2.241
 9777SOL    HW231229   1.051   8.828   2.156
 9778SOL     OW31230   2.379   3.593   7.349
 9778SOL    HW131231   2.344   3.608   7.437
 9778SOL    HW231232   2.312   3.626   7.290
 9779SOL     OW31233   8.910   5.109  14.002
 9779SOL    HW131234   9.001   5.084  13.984
 9779SOL    HW231235   8.889   5.175  13.936
 9780SOL     OW31236   6.961   9.126   7.247
 9780SOL    HW131237   7.020   9.200   7.263
 9780SOL    HW231238   6.972   9.106   7.154
 9781SOL     OW31239  12.870   0.483   8.998
 9781SOL    HW131240  12.957   0.442   9.004
 9781SOL    HW231241  12.825   0.433   8.930
 9782SOL     OW31242  10.957  11.934  10.152
 9782SOL    HW131243  10.991  11.845  10.142
 9782SOL    HW231244  11.015  11.975  10.215
 9783SOL     OW31245  14.192   4.539  12.249
 9783SOL    HW131246  14.107   4.541  12.205
 9783SOL    HW231247  14.172   4.509  12.338
 9784SOL     OW31248   6.264  13.057   7.379
 9784SOL    HW131249   6.340  13.044   7.323
 9784SOL    HW231250   6.193  13.010   7.335
 9785SOL     OW31251   1.836   7.668   8.221
 9785SOL    HW131252   1.889   7.612   8.278
 9785SOL    HW231253   1.790   7.726   8.282
 9786SOL     OW31254  10.927   4.290   1.587
 9786SOL    HW131255  11.011   4.313   1.626
 9786SOL    HW231256  10.868   4.279   1.662
 9787SOL     OW31257   7.984  14.060   9.218
 9787SOL    HW131258   8.060  14.069   9.161
 9787SOL    HW231259   7.966  14.148   9.248
 9788SOL     OW31260   8.010  14.281   7.340
 9788SOL    HW131261   8.008  14.272   7.245
 9788SOL    HW231262   7.939  14.224   7.371
 9789SOL     OW31263   9.232   8.455  10.914
 9789SOL    HW131264   9.199   8.387  10.855
 9789SOL    HW231265   9.258   8.408  10.993
 9790SOL     OW31266   0.063   0.772   6.883
 9790SOL    HW131267   0.105   0.738   6.962
 9790SOL    HW231268   0.134   0.810   6.832
 9791SOL     OW31269  10.062  13.788   1.400
 9791SOL    HW131270  10.071  13.814   1.308
 9791SOL    HW231271   9.987  13.839   1.432
 9792SOL     OW31272   9.676  14.776   3.644
 9792SOL    HW131273   9.756  14.821   3.671
 9792SOL    HW231274   9.605  14.834   3.672
 9793SOL     OW31275   9.903  14.365  13.890
 9793SOL    HW131276   9.824  14.329  13.850
 9793SOL    HW231277   9.976  14.326  13.842
 9794SOL     OW31278  13.315   4.490  11.964
 9794SOL    HW131279  13.231   4.533  11.951
 9794SOL    HW231280  13.377   4.562  11.979
 9795SOL     OW31281   5.306   9.000   3.799
 9795SOL    HW131282   5.280   8.981   3.708
 9795SOL    HW231283   5.292   8.918   3.845
 9796SOL     OW31284   7.283  11.808  11.066
 9796SOL    HW131285   7.368  11.767  11.086
 9796SOL    HW231286   7.219  11.754  11.113
 9797SOL     OW31287  10.908   5.870   7.223
 9797SOL    HW131288  10.903   5.951   7.274
 9797SOL    HW231289  10.997   5.838   7.239
 9798SOL     OW31290   9.386   0.049   1.397
 9798SOL    HW131291   9.342   0.065   1.313
 9798SOL    HW231292   9.448  14.846   1.379
 9799SOL     OW31293   1.837   7.258   9.920
 9799SOL    HW131294   1.833   7.214   9.835
 9799SOL    HW231295   1.840   7.352   9.898
 9800SOL     OW31296  12.762   7.480   5.045
 9800SOL    HW131297  12.703   7.464   4.972
 9800SOL    HW231298  12.737   7.567   5.078
 9801SOL     OW31299   8.107   0.519   5.346
 9801SOL    HW131300   8.135   0.609   5.333
 9801SOL    HW231301   8.188   0.468   5.350
 9802SOL     OW31302   6.615   3.425   4.625
 9802SOL    HW131303   6.564   3.432   4.545
 9802SOL    HW231304   6.699   3.389   4.597
 9803SOL     OW31305   9.875   0.737   4.016
 9803SOL    HW131306   9.880   0.681   4.093
 9803SOL    HW231307   9.853   0.678   3.944
 9804SOL     OW31308   4.228  11.129  11.033
 9804SOL    HW131309   4.267  11.215  11.016
 9804SOL    HW231310   4.135  11.148  11.046
 9805SOL     OW31311   9.778   9.268  12.540
 9805SOL    HW131312   9.790   9.357  12.573
 9805SOL    HW231313   9.865   9.229  12.546
 9806SOL     OW31314  12.803  10.942   4.858
 9806SOL    HW131315  12.889  10.899   4.861
 9806SOL    HW231316  12.741  10.871   4.879
 9807SOL     OW31317   3.885   1.478  10.193
 9807SOL    HW131318   3.920   1.486  10.104
 9807SOL    HW231319   3.900   1.386  10.216
 9808SOL     OW31320  12.358   1.813   3.402
 9808SOL    HW131321  12.382   1.879   3.467
 9808SOL    HW231322  12.326   1.863   3.327
 9809SOL     OW31323   2.722   4.563   8.261
 9809SOL    HW131324   2.677   4.502   8.319
 9809SOL    HW231325   2.682   4.549   8.175
 9810SOL     OW31326   3.292  13.681   7.810
 9810SOL    HW131327   3.222  13.635   7.762
 9810SOL    HW231328   3.252  13.763   7.837
 9811SOL     OW31329   3.298   6.256   3.287
 9811SOL    HW131330   3.361   6.241   3.358
 9811SOL    HW231331   3.327   6.198   3.217
 9812SOL     OW31332   1.888   8.194   1.611
 9812SOL    HW131333   1.949   8.230   1.676
 9812SOL    HW231334   1.806   8.185   1.659
 9813SOL     OW31335   0.875   0.638   9.881
 9813SOL    HW131336   0.958   0.685   9.871
 9813SOL    HW231337   0.902   0.547   9.897
 9814SOL     OW31338   3.805  14.628  14.464
 9814SOL    HW131339   3.851  14.660  14.542
 9814SOL    HW231340   3.735  14.573  14.499
 9815SOL     OW31341   3.692   5.758   6.462
 9815SOL    HW131342   3.743   5.679   6.443
 9815SOL    HW231343   3.731   5.792   6.543
 9816SOL     OW31344   9.336   1.132   3.999
 9816SOL    HW131345   9.360   1.100   3.912
 9816SOL    HW231346   9.257   1.082   4.022
 9817SOL     OW31347  12.668   4.619   1.016
 9817SOL    HW131348  12.596   4.561   0.990
 9817SOL    HW231349  12.684   4.674   0.940
 9818SOL     OW31350  11.144  10.372   7.946
 9818SOL    HW131351  11.085  10.364   8.021
 9818SOL    HW231352  11.231  10.380   7.986
 9819SOL     OW31353   8.810  11.082   3.403
 9819SOL    HW131354   8.753  11.109   3.331
 9819SOL    HW231355   8.806  11.153   3.466
 9820SOL     OW31356   6.406  10.908  11.380
 9820SOL    HW131357   6.342  10.979  11.369
 9820SOL    HW231358   6.484  10.939  11.334
 9821SOL     OW31359  12.834   3.998   8.845
 9821SOL    HW131360  12.760   3.938   8.833
 9821SOL    HW231361  12.866   3.979   8.933
 9822SOL     OW31362  10.171   0.891  10.316
 9822SOL    HW131363  10.258   0.930  10.331
 9822SOL    HW231364  10.123   0.959  10.269
 9823SOL     OW31365  11.263  12.643   1.208
 9823SOL    HW131366  11.326  12.681   1.147
 9823SOL    HW231367  11.200  12.714   1.224
 9824SOL     OW31368   4.299   4.053  13.424
 9824SOL    HW131369   4.214   4.082  13.458
 9824SOL    HW231370   4.342   4.133  13.396
 9825SOL     OW31371  14.571   3.054   9.052
 9825SOL    HW131372  14.516   2.975   9.048
 9825SOL    HW231373  14.508   3.127   9.047
 9826SOL     OW31374   3.312   9.669   1.800
 9826SOL    HW131375   3.323   9.734   1.730
 9826SOL    HW231376   3.234   9.619   1.774
 9827SOL     OW31377  12.228  13.182   2.969
 9827SOL    HW131378  12.264  13.192   2.881
 9827SOL    HW231379  12.223  13.271   3.003
 9828SOL     OW31380   1.433   2.344  14.547
 9828SOL    HW131381   1.348   2.358  14.588
 9828SOL    HW231382   1.413   2.298  14.466
 9829SOL     OW31383   5.962  10.689   3.429
 9829SOL    HW131384   5.939  10.760   3.370
 9829SOL    HW231385   5.897  10.694   3.500
 9830SOL     OW31386   9.685   1.346   1.665
 9830SOL    HW131387   9.693   1.263   1.713
 9830SOL    HW231388   9.594   1.346   1.635
 9831SOL     OW31389  14.156  12.082   2.655
 9831SOL    HW131390  14.094  12.014   2.628
 9831SOL    HW231391  14.140  12.094   2.748
 9832SOL     OW31392  13.365   9.638   8.584
 9832SOL    HW131393  13.331   9.640   8.495
 9832SOL    HW231394  13.444   9.584   8.579
 9833SOL     OW31395   1.093   0.237   7.349
 9833SOL    HW131396   1.173   0.254   7.300
 9833SOL    HW231397   1.046   0.173   7.296
 9834SOL     OW31398  11.675   3.795  11.919
 9834SOL    HW131399  11.760   3.832  11.894
 9834SOL    HW231400  11.621   3.870  11.940
 9835SOL     OW31401   0.108   3.485  13.981
 9835SOL    HW131402   0.194   3.515  13.951
 9835SOL    HW231403   0.105   3.510  14.073
 9836SOL     OW31404   5.718   6.870  13.545
 9836SOL    HW131405   5.706   6.965  13.541
 9836SOL    HW231406   5.650   6.840  13.605
 9837SOL     OW31407   9.774  14.701  13.359
 9837SOL    HW131408   9.699  14.642  13.344
 9837SOL    HW231409   9.760  14.772  13.297
 9838SOL     OW31410   5.071   3.455   6.430
 9838SOL    HW131411   4.980   3.457   6.461
 9838SOL    HW231412   5.094   3.547   6.416
 9839SOL     OW31413   7.581   9.252  14.715
 9839SOL    HW131414   7.615   9.338  14.690
 9839SOL    HW231415   7.488   9.255  14.691
 9840SOL     OW31416   0.307   5.413   2.862
 9840SOL    HW131417   0.222   5.401   2.821
 9840SOL    HW231418   0.290   5.403   2.956
 9841SOL     OW31419  10.086   3.405   7.024
 9841SOL    HW131420  10.010   3.443   6.981
 9841SOL    HW231421  10.159   3.462   6.999
 9842SOL     OW31422   6.897   5.322   8.932
 9842SOL    HW131423   6.895   5.411   8.896
 9842SOL    HW231424   6.811   5.285   8.912
 9843SOL     OW31425  14.611   5.888   5.493
 9843SOL    HW131426  14.661   5.929   5.423
 9843SOL    HW231427  14.572   5.811   5.452
 9844SOL     OW31428   2.894   8.671   5.582
 9844SOL    HW131429   2.856   8.747   5.537
 9844SOL    HW231430   2.819   8.617   5.606
 9845SOL     OW31431  10.678   6.942   1.559
 9845SOL    HW131432  10.720   6.995   1.491
 9845SOL    HW231433  10.586   6.967   1.556
 9846SOL     OW31434  11.040   7.677  12.086
 9846SOL    HW131435  11.097   7.601  12.071
 9846SOL    HW231436  11.094   7.737  12.138
 9847SOL     OW31437   3.761  14.443   2.415
 9847SOL    HW131438   3.705  14.369   2.392
 9847SOL    HW231439   3.776  14.489   2.333
 9848SOL     OW31440  10.812   1.354   0.744
 9848SOL    HW131441  10.836   1.387   0.830
 9848SOL    HW231442  10.718   1.337   0.749
 9849SOL     OW31443   5.748  13.466   8.908
 9849SOL    HW131444   5.700  13.445   8.989
 9849SOL    HW231445   5.737  13.388   8.853
 9850SOL     OW31446  13.585   1.895   8.990
 9850SOL    HW131447  13.681   1.896   8.983
 9850SOL    HW231448  13.568   1.831   9.060
 9851SOL     OW31449   2.084  14.024   2.195
 9851SOL    HW131450   1.998  14.014   2.153
 9851SOL    HW231451   2.098  14.118   2.197
 9852SOL     OW31452  10.680   5.411  12.401
 9852SOL    HW131453  10.704   5.351  12.330
 9852SOL    HW231454  10.601   5.455  12.369
 9853SOL     OW31455  11.277   1.297   8.159
 9853SOL    HW131456  11.350   1.279   8.100
 9853SOL    HW231457  11.217   1.350   8.108
 9854SOL     OW31458   8.619  13.822   7.489
 9854SOL    HW131459   8.588  13.907   7.458
 9854SOL    HW231460   8.668  13.786   7.415
 9855SOL     OW31461  12.603   7.722   0.756
 9855SOL    HW131462  12.674   7.757   0.702
 9855SOL    HW231463  12.523   7.754   0.714
 9856SOL     OW31464   6.908   7.058  13.397
 9856SOL    HW131465   6.844   7.048  13.467
 9856SOL    HW231466   6.856   7.086  13.321
 9857SOL     OW31467   2.907  11.366   5.219
 9857SOL    HW131468   2.889  11.274   5.197
 9857SOL    HW231469   2.847  11.416   5.163
 9858SOL     OW31470   6.364  11.268   1.306
 9858SOL    HW131471   6.341  11.358   1.328
 9858SOL    HW231472   6.289  11.235   1.258
 9859SOL     OW31473   2.920   0.556  11.837
 9859SOL    HW131474   2.904   0.531  11.928
 9859SOL    HW231475   2.851   0.511  11.788
 9860SOL     OW31476   6.700   8.458   6.198
 9860SOL    HW131477   6.696   8.480   6.105
 9860SOL    HW231478   6.626   8.505   6.237
 9861SOL     OW31479   8.634   1.759   2.076
 9861SOL    HW131480   8.578   1.683   2.091
 9861SOL    HW231481   8.625   1.812   2.155
 9862SOL     OW31482  12.545   3.617   3.609
 9862SOL    HW131483  12.540   3.628   3.514
 9862SOL    HW231484  12.635   3.641   3.631
 9863SOL     OW31485   3.709   1.707   8.552
 9863SOL    HW131486   3.621   1.690   8.584
 9863SOL    HW231487   3.744   1.775   8.610
 9864SOL     OW31488   4.898   0.143   5.524
 9864SOL    HW131489   4.804   0.140   5.545
 9864SOL    HW231490   4.939   0.084   5.588
 9865SOL     OW31491   7.812  11.080  10.177
 9865SOL    HW131492   7.759  11.022  10.232
 9865SOL    HW231493   7.863  11.132  10.240
 9866SOL     OW31494  12.015   2.389   6.172
 9866SOL    HW131495  12.073   2.392   6.096
 9866SOL    HW231496  11.940   2.443   6.147
 9867SOL     OW31497   8.768   6.392   5.343
 9867SOL    HW131498   8.823   6.369   5.418
 9867SOL    HW231499   8.828   6.432   5.280
 9868SOL     OW31500   1.643   1.967  11.586
 9868SOL    HW131501   1.670   2.058  11.594
 9868SOL    HW231502   1.708   1.928  11.528
 9869SOL     OW31503   6.218   6.740  11.253
 9869SOL    HW131504   6.189   6.830  11.239
 9869SOL    HW231505   6.143   6.696  11.293
 9870SOL     OW31506  14.504   3.731   4.751
 9870SOL    HW131507  14.498   3.797   4.820
 9870SOL    HW231508  14.493   3.780   4.669
 9871SOL     OW31509  14.556   6.564   5.973
 9871SOL    HW131510  14.619   6.501   5.937
 9871SOL    HW231511  14.600   6.649   5.965
 9872SOL     OW31512   7.576  14.009   9.149
 9872SOL    HW131513   7.601  13.939   9.089
 9872SOL    HW231514   7.503  14.053   9.106
 9873SOL     OW31515  10.701  12.002  10.162
 9873SOL    HW131516  10.795  11.981  10.160
 9873SOL    HW231517  10.694  12.083  10.110
 9874SOL     OW31518  11.859   7.966   4.492
 9874SOL    HW131519  11.809   7.924   4.562
 9874SOL    HW231520  11.798   8.029   4.453
 9875SOL     OW31521   7.209   3.434  14.753
 9875SOL    HW131522   7.213   3.530  14.752
 9875SOL    HW231523   7.124   3.414  14.790
 9876SOL     OW31524   9.612   8.368   6.158
 9876SOL    HW131525   9.640   8.396   6.245
 9876SOL    HW231526   9.573   8.282   6.171
 9877SOL     OW31527  14.201   3.748  13.690
 9877SOL    HW131528  14.269   3.730  13.625
 9877SOL    HW231529  14.240   3.722  13.773
 9878SOL     OW31530  12.829   4.707  10.368
 9878SOL    HW131531  12.829   4.754  10.451
 9878SOL    HW231532  12.918   4.672  10.360
 9879SOL     OW31533   4.297   4.969   4.729
 9879SOL    HW131534   4.370   4.916   4.696
 9879SOL    HW231535   4.298   4.955   4.823
 9880SOL     OW31536  14.460   7.488   8.965
 9880SOL    HW131537  14.469   7.426   9.037
 9880SOL    HW231538  14.527   7.461   8.901
 9881SOL     OW31539  11.081  13.759   8.730
 9881SOL    HW131540  11.126  13.733   8.650
 9881SOL    HW231541  11.100  13.689   8.792
 9882SOL     OW31542   3.315   8.726   8.822
 9882SOL    HW131543   3.315   8.664   8.896
 9882SOL    HW231544   3.282   8.676   8.748
 9883SOL     OW31545   8.056   8.681  11.150
 9883SOL    HW131546   8.104   8.688  11.233
 9883SOL    HW231547   8.011   8.598  11.156
 9884SOL     OW31548  13.069   7.475   9.056
 9884SOL    HW131549  13.147   7.532   9.055
 9884SOL    HW231550  13.034   7.483   8.967
 9885SOL     OW31551   1.736   4.009  11.966
 9885SOL    HW131552   1.752   4.097  12.001
 9885SOL    HW231553   1.817   3.987  11.920
 9886SOL     OW31554   4.109   8.726  10.264
 9886SOL    HW131555   4.057   8.749  10.340
 9886SOL    HW231556   4.084   8.636  10.243
 9887SOL     OW31557  11.628   4.444  11.040
 9887SOL    HW131558  11.694   4.376  11.028
 9887SOL    HW231559  11.573   4.413  11.111
 9888SOL     OW31560   7.148   1.571   3.880
 9888SOL    HW131561   7.173   1.479   3.883
 9888SOL    HW231562   7.074   1.579   3.940
 9889SOL     OW31563   1.308  12.453  12.567
 9889SOL    HW131564   1.239  12.515  12.592
 9889SOL    HW231565   1.387  12.506  12.564
 9890SOL     OW31566   6.775  13.580   0.703
 9890SOL    HW131567   6.682  13.600   0.705
 9890SOL    HW231568   6.780  13.486   0.724
 9891SOL     OW31569   1.319   4.849  10.070
 9891SOL    HW131570   1.400   4.808  10.102
 9891SOL    HW231571   1.311   4.818   9.979
 9892SOL     OW31572   8.375  13.532  12.536
 9892SOL    HW131573   8.410  13.505  12.621
 9892SOL    HW231574   8.294  13.578  12.556
 9893SOL     OW31575  12.575   9.672   7.757
 9893SOL    HW131576  12.586   9.582   7.788
 9893SOL    HW231577  12.522   9.713   7.824
 9894SOL     OW31578  13.223   0.477   1.706
 9894SOL    HW131579  13.299   0.428   1.736
 9894SOL    HW231580  13.175   0.497   1.786
 9895SOL     OW31581   2.842   3.919   1.818
 9895SOL    HW131582   2.749   3.908   1.799
 9895SOL    HW231583   2.848   3.915   1.914
 9896SOL     OW31584  13.727   3.597   7.921
 9896SOL    HW131585  13.698   3.688   7.919
 9896SOL    HW231586  13.647   3.546   7.912
 9897SOL     OW31587  10.837   7.176  12.127
 9897SOL    HW131588  10.835   7.210  12.038
 9897SOL    HW231589  10.849   7.082  12.116
 9898SOL     OW31590   6.447   0.419   1.561
 9898SOL    HW131591   6.487   0.490   1.611
 9898SOL    HW231592   6.406   0.463   1.486
 9899SOL     OW31593   1.314   1.083  10.431
 9899SOL    HW131594   1.381   1.053  10.494
 9899SOL    HW231595   1.332   1.177  10.422
 9900SOL     OW31596  13.089   0.693   5.460
 9900SOL    HW131597  13.070   0.782   5.489
 9900SOL    HW231598  13.173   0.673   5.500
 9901SOL     OW31599   6.818  14.089   1.142
 9901SOL    HW131600   6.844  14.171   1.101
 9901SOL    HW231601   6.853  14.021   1.084
 9902SOL     OW31602   4.433  10.818   6.351
 9902SOL    HW131603   4.412  10.745   6.293
 9902SOL    HW231604   4.517  10.851   6.320
 9903SOL     OW31605  11.119   8.544   1.865
 9903SOL    HW131606  11.199   8.586   1.895
 9903SOL    HW231607  11.055   8.562   1.934
 9904SOL     OW31608  14.523  11.290  11.586
 9904SOL    HW131609  14.575  11.365  11.615
 9904SOL    HW231610  14.587  11.229  11.550
 9905SOL     OW31611   9.979   3.417  11.802
 9905SOL    HW131612   9.889   3.389  11.785
 9905SOL    HW231613  10.019   3.341  11.844
 9906SOL     OW31614  14.122  11.860  11.855
 9906SOL    HW131615  14.194  11.885  11.796
 9906SOL    HW231616  14.146  11.773  11.887
 9907SOL     OW31617   9.714   9.874  11.966
 9907SOL    HW131618   9.678   9.914  11.887
 9907SOL    HW231619   9.689   9.782  11.960
 9908SOL     OW31620   4.609  11.913  11.919
 9908SOL    HW131621   4.637  12.003  11.905
 9908SOL    HW231622   4.551  11.894  11.846
 9909SOL     OW31623   2.203   8.538  13.550
 9909SOL    HW131624   2.219   8.456  13.503
 9909SOL    HW231625   2.145   8.513  13.622
 9910SOL     OW31626  14.352  13.536   3.038
 9910SOL    HW131627  14.343  13.441   3.050
 9910SOL    HW231628  14.336  13.572   3.125
 9911SOL     OW31629  12.965  13.205  11.767
 9911SOL    HW131630  13.035  13.144  11.793
 9911SOL    HW231631  12.884  13.156  11.782
 9912SOL     OW31632  11.726  12.557   6.933
 9912SOL    HW131633  11.746  12.465   6.951
 9912SOL    HW231634  11.671  12.555   6.854
 9913SOL     OW31635   9.692   3.616   0.009
 9913SOL    HW131636   9.680   3.592  14.785
 9913SOL    HW231637   9.751   3.550   0.043
 9914SOL     OW31638   7.301   7.705   7.020
 9914SOL    HW131639   7.230   7.762   7.050
 9914SOL    HW231640   7.371   7.766   6.996
 9915SOL     OW31641  12.692  10.299  13.598
 9915SOL    HW131642  12.732  10.284  13.684
 9915SOL    HW231643  12.731  10.233  13.541
 9916SOL     OW31644   0.279  13.144   5.802
 9916SOL    HW131645   0.369  13.171   5.782
 9916SOL    HW231646   0.255  13.195   5.879
 9917SOL     OW31647   8.135  14.822   0.859
 9917SOL    HW131648   8.159  14.759   0.791
 9917SOL    HW231649   8.218  14.856   0.891
 9918SOL     OW31650   7.467   4.623  11.227
 9918SOL    HW131651   7.423   4.538  11.221
 9918SOL    HW231652   7.404   4.680  11.270
 9919SOL     OW31653   8.667   2.918   8.684
 9919SOL    HW131654   8.580   2.912   8.645
 9919SOL    HW231655   8.652   2.956   8.771
 9920SOL     OW31656  11.487   1.784   2.530
 9920SOL    HW131657  11.427   1.847   2.570
 9920SOL    HW231658  11.540   1.751   2.602
 9921SOL     OW31659  12.169   0.232  12.133
 9921SOL    HW131660  12.176   0.162  12.198
 9921SOL    HW231661  12.077   0.230  12.107
 9922SOL     OW31662  13.056   1.396  13.334
 9922SOL    HW131663  13.141   1.393  13.378
 9922SOL    HW231664  13.058   1.322  13.273
 9923SOL     OW31665   8.413   4.120   4.571
 9923SOL    HW131666   8.462   4.166   4.639
 9923SOL    HW231667   8.481   4.073   4.522
 9924SOL     OW31668   3.334   5.458   2.200
 9924SOL    HW131669   3.309   5.543   2.163
 9924SOL    HW231670   3.363   5.477   2.289
 9925SOL     OW31671   0.500   9.244  10.538
 9925SOL    HW131672   0.467   9.317  10.485
 9925SOL    HW231673   0.422   9.195  10.564
 9926SOL     OW31674  11.045   6.474  13.646
 9926SOL    HW131675  10.994   6.521  13.712
 9926SOL    HW231676  11.005   6.388  13.641
 9927SOL     OW31677   4.988  14.681   8.992
 9927SOL    HW131678   4.946  14.759   8.956
 9927SOL    HW231679   4.919  14.638   9.042
 9928SOL     OW31680  11.274   5.036   8.516
 9928SOL    HW131681  11.342   5.104   8.520
 9928SOL    HW231682  11.289   4.983   8.595
 9929SOL     OW31683   3.496  11.812   8.505
 9929SOL    HW131684   3.532  11.724   8.495
 9929SOL    HW231685   3.467  11.815   8.596
 9930SOL     OW31686  13.732   9.390   1.507
 9930SOL    HW131687  13.640   9.363   1.511
 9930SOL    HW231688  13.763   9.358   1.423
 9931SOL     OW31689   0.602   3.637  10.779
 9931SOL    HW131690   0.631   3.571  10.716
 9931SOL    HW231691   0.680   3.690  10.796
 9932SOL     OW31692   8.704   9.096   5.024
 9932SOL    HW131693   8.623   9.116   4.977
 9932SOL    HW231694   8.712   9.167   5.088
 9933SOL     OW31695   8.564   8.414  11.260
 9933SOL    HW131696   8.504   8.359  11.311
 9933SOL    HW231697   8.651   8.379  11.279
 9934SOL     OW31698   3.934   0.819   5.832
 9934SOL    HW131699   4.029   0.821   5.825
 9934SOL    HW231700   3.907   0.741   5.784
 9935SOL     OW31701   8.817  12.012  10.879
 9935SOL    HW131702   8.723  12.002  10.892
 9935SOL    HW231703   8.855  12.007  10.967
 9936SOL     OW31704  13.268   8.368   1.312
 9936SOL    HW131705  13.306   8.362   1.224
 9936SOL    HW231706  13.344   8.377   1.370
 9937SOL     OW31707  14.582  11.810  13.548
 9937SOL    HW131708  14.643  11.874  13.512
 9937SOL    HW231709  14.522  11.791  13.476
 9938SOL     OW31710   4.239   3.265  13.791
 9938SOL    HW131711   4.148   3.235  13.787
 9938SOL    HW231712   4.235   3.359  13.773
 9939SOL     OW31713   5.347   3.209  13.112
 9939SOL    HW131714   5.380   3.254  13.034
 9939SOL    HW231715   5.415   3.146  13.135
 9940SOL     OW31716  10.138  10.131  12.004
 9940SOL    HW131717  10.215  10.091  12.044
 9940SOL    HW231718  10.129  10.088  11.919
 9941SOL     OW31719  13.799  13.071  11.477
 9941SOL    HW131720  13.829  13.017  11.551
 9941SOL    HW231721  13.866  13.058  11.410
 9942SOL     OW31722  11.763   7.676  11.908
 9942SOL    HW131723  11.858   7.665  11.899
 9942SOL    HW231724  11.753   7.728  11.988
 9943SOL     OW31725   9.831   0.393   2.428
 9943SOL    HW131726   9.902   0.400   2.365
 9943SOL    HW231727   9.870   0.349   2.503
 9944SOL     OW31728   9.017   7.594  11.043
 9944SOL    HW131729   8.944   7.638  10.998
 9944SOL    HW231730   9.082   7.663  11.056
 9945SOL     OW31731   9.051   3.381  14.663
 9945SOL    HW131732   9.020   3.435  14.590
 9945SOL    HW231733   9.004   3.298  14.653
 9946SOL     OW31734   6.632   3.568   6.988
 9946SOL    HW131735   6.670   3.491   7.031
 9946SOL    HW231736   6.574   3.532   6.921
 9947SOL     OW31737   2.467  14.056   1.307
 9947SOL    HW131738   2.410  14.011   1.244
 9947SOL    HW231739   2.555  14.045   1.271
 9948SOL     OW31740   5.156  14.591   4.155
 9948SOL    HW131741   5.106  14.520   4.115
 9948SOL    HW231742   5.191  14.553   4.236
 9949SOL     OW31743  14.669  10.722   6.139
 9949SOL    HW131744  14.738  10.781   6.169
 9949SOL    HW231745  14.660  10.658   6.209
 9950SOL     OW31746   4.753  13.187   2.113
 9950SOL    HW131747   4.770  13.136   2.193
 9950SOL    HW231748   4.674  13.148   2.077
 9951SOL     OW31749   9.486   4.888  13.659
 9951SOL    HW131750   9.410   4.942  13.681
 9951SOL    HW231751   9.492   4.893  13.563
 9952SOL     OW31752   9.411  12.983   3.818
 9952SOL    HW131753   9.384  12.902   3.860
 9952SOL    HW231754   9.453  12.956   3.736
 9953SOL     OW31755  11.848  13.094   0.046
 9953SOL    HW131756  11.885  13.137  14.837
 9953SOL    HW231757  11.922  13.050   0.087
 9954SOL     OW31758  14.014   4.964  11.819
 9954SOL    HW131759  13.956   5.037  11.840
 9954SOL    HW231760  13.990   4.939  11.730
 9955SOL     OW31761  13.909   0.007  14.734
 9955SOL    HW131762  13.825  14.868  14.690
 9955SOL    HW231763  13.973  14.846  14.669
 9956SOL     OW31764   0.323   1.067   4.163
 9956SOL    HW131765   0.304   1.112   4.245
 9956SOL    HW231766   0.275   1.116   4.097
 9957SOL     OW31767   3.907  10.766  14.015
 9957SOL    HW131768   3.836  10.826  14.040
 9957SOL    HW231769   3.886  10.740  13.926
 9958SOL     OW31770   1.898  11.333   9.062
 9958SOL    HW131771   1.992  11.321   9.051
 9958SOL    HW231772   1.882  11.317   9.155
 9959SOL     OW31773  12.536   9.750   3.633
 9959SOL    HW131774  12.452   9.772   3.671
 9959SOL    HW231775  12.547   9.812   3.561
 9960SOL     OW31776  14.623   5.603   3.489
 9960SOL    HW131777  14.666   5.660   3.552
 9960SOL    HW231778  14.642   5.643   3.404
 9961SOL     OW31779  13.596   4.729  12.333
 9961SOL    HW131780  13.603   4.765  12.422
 9961SOL    HW231781  13.502   4.725  12.317
 9962SOL     OW31782  13.967   4.263   9.554
 9962SOL    HW131783  14.035   4.254   9.621
 9962SOL    HW231784  13.902   4.196   9.578
 9963SOL     OW31785   5.604   9.313   7.080
 9963SOL    HW131786   5.553   9.252   7.027
 9963SOL    HW231787   5.625   9.263   7.159
 9964SOL     OW31788   2.280   6.476  14.285
 9964SOL    HW131789   2.294   6.396  14.235
 9964SOL    HW231790   2.192   6.505  14.259
 9965SOL     OW31791   8.259  12.537   9.637
 9965SOL    HW131792   8.329  12.506   9.694
 9965SOL    HW231793   8.286  12.509   9.549
 9966SOL     OW31794   4.035   5.925  12.013
 9966SOL    HW131795   4.096   5.863  11.973
 9966SOL    HW231796   4.064   5.932  12.104
 9967SOL     OW31797   8.221  10.887   0.190
 9967SOL    HW131798   8.275  10.881   0.268
 9967SOL    HW231799   8.208  10.981   0.177
 9968SOL     OW31800  14.503  11.810   6.200
 9968SOL    HW131801  14.468  11.840   6.116
 9968SOL    HW231802  14.524  11.890   6.247
 9969SOL     OW31803   8.435  13.006  10.160
 9969SOL    HW131804   8.456  12.998  10.068
 9969SOL    HW231805   8.385  13.088  10.166
 9970SOL     OW31806   5.913   6.025   1.556
 9970SOL    HW131807   5.964   6.100   1.587
 9970SOL    HW231808   5.858   6.061   1.486
 9971SOL     OW31809   4.909   3.493  12.071
 9971SOL    HW131810   4.926   3.574  12.023
 9971SOL    HW231811   4.930   3.423  12.009
 9972SOL     OW31812   3.593   1.577  12.274
 9972SOL    HW131813   3.559   1.563  12.363
 9972SOL    HW231814   3.525   1.540  12.217
 9973SOL     OW31815  13.518   9.301   3.188
 9973SOL    HW131816  13.603   9.295   3.145
 9973SOL    HW231817  13.511   9.392   3.215
 9974SOL     OW31818   2.087   2.397   8.690
 9974SOL    HW131819   2.122   2.415   8.602
 9974SOL    HW231820   2.081   2.483   8.731
 9975SOL     OW31821  11.896   9.540   6.215
 9975SOL    HW131822  11.986   9.513   6.233
 9975SOL    HW231823  11.847   9.516   6.294
 9976SOL     OW31824   2.403   6.993  11.693
 9976SOL    HW131825   2.348   7.064  11.661
 9976SOL    HW231826   2.424   7.018  11.783
 9977SOL     OW31827   6.364  13.399   1.344
 9977SOL    HW131828   6.309  13.447   1.406
 9977SOL    HW231829   6.372  13.458   1.269
 9978SOL     OW31830   1.199   1.536   9.837
 9978SOL    HW131831   1.264   1.503   9.774
 9978SOL    HW231832   1.244   1.533   9.921
 9979SOL     OW31833  12.529   9.317  13.526
 9979SOL    HW131834  12.553   9.225  13.533
 9979SOL    HW231835  12.553   9.341  13.436
 9980SOL     OW31836   0.328   0.356   6.154
 9980SOL    HW131837   0.338   0.390   6.065
 9980SOL    HW231838   0.353   0.264   6.147
 9981SOL     OW31839   3.505  13.679  13.932
 9981SOL    HW131840   3.450  13.740  13.982
 9981SOL    HW231841   3.595  13.708  13.950
 9982SOL     OW31842   0.999   5.124   6.487
 9982SOL    HW131843   0.948   5.076   6.553
 9982SOL    HW231844   1.020   5.058   6.421
 9983SOL     OW31845   4.332   8.252  13.057
 9983SOL    HW131846   4.282   8.282  12.981
 9983SOL    HW231847   4.307   8.312  13.128
 9984SOL     OW31848   8.322  12.041  12.572
 9984SOL    HW131849   8.285  12.128  12.560
 9984SOL    HW231850   8.251  11.981  12.549
 9985SOL     OW31851   4.792  11.455   6.200
 9985SOL    HW131852   4.835  11.504   6.130
 9985SOL    HW231853   4.706  11.432   6.164
 9986SOL     OW31854  14.129  12.215   4.887
 9986SOL    HW131855  14.064  12.165   4.838
 9986SOL    HW231856  14.112  12.192   4.979
 9987SOL     OW31857   1.229   5.875   9.218
 9987SOL    HW131858   1.205   5.902   9.130
 9987SOL    HW231859   1.320   5.904   9.228
 9988SOL     OW31860   0.098   1.115   0.966
 9988SOL    HW131861   0.191   1.094   0.954
 9988SOL    HW231862   0.097   1.210   0.977
 9989SOL     OW31863   0.227  13.840   6.212
 9989SOL    HW131864   0.286  13.887   6.153
 9989SOL    HW231865   0.283  13.776   6.256
 9990SOL     OW31866   4.040  11.467   2.436
 9990SOL    HW131867   4.023  11.402   2.369
 9990SOL    HW231868   4.005  11.549   2.399
 9991SOL     OW31869   3.508   1.375   9.139
 9991SOL    HW131870   3.441   1.352   9.074
 9991SOL    HW231871   3.579   1.313   9.123
 9992SOL     OW31872   3.107   5.326   1.786
 9992SOL    HW131873   3.070   5.407   1.821
 9992SOL    HW231874   3.160   5.353   1.712
 9993SOL     OW31875   3.968   0.853   3.288
 9993SOL    HW131876   4.061   0.878   3.284
 9993SOL    HW231877   3.937   0.891   3.370
 9994SOL     OW31878   4.188  13.304  14.240
 9994SOL    HW131879   4.230  13.292  14.155
 9994SOL    HW231880   4.190  13.399  14.255
 9995SOL     OW31881   5.856   4.256  14.397
 9995SOL    HW131882   5.878   4.163  14.384
 9995SOL    HW231883   5.801   4.278  14.322
 9996SOL     OW31884   4.586  11.334  14.299
 9996SOL    HW131885   4.550  11.422  14.304
 9996SOL    HW231886   4.566  11.295  14.384
 9997SOL     OW31887   4.673  11.588  10.403
 9997SOL    HW131888   4.684  11.493  10.408
 9997SOL    HW231889   4.593  11.600  10.351
 9998SOL     OW31890   9.980   8.525   4.139
 9998SOL    HW131891   9.962   8.589   4.208
 9998SOL    HW231892  10.061   8.483   4.166
 9999SOL     OW31893   0.012   5.132   5.003
 9999SOL    HW131894   0.017   5.069   4.930
 9999SOL    HW231895   0.096   5.176   5.002
10000SOL     OW31896   4.131   8.752   4.157
10000SOL    HW131897   4.209   8.709   4.193
10000SOL    HW231898   4.137   8.737   4.063
10001SOL     OW31899  14.828   5.537   4.476
10001SOL    HW131900  14.780   5.485   4.541
10001SOL    HW231901  14.811   5.628   4.501
10002SOL     OW31902   2.370   3.731  11.567
10002SOL    HW131903   2.274   3.725  11.573
10002SOL    HW231904   2.401   3.650  11.607
10003SOL     OW31905   7.744   2.719   8.181
10003SOL    HW131906   7.720   2.810   8.165
10003SOL    HW231907   7.672   2.668   8.146
10004SOL     OW31908   7.976  13.894   4.934
10004SOL    HW131909   7.961  13.855   5.020
10004SOL    HW231910   8.013  13.981   4.953
10005SOL     OW31911  10.604   0.656   2.953
10005SOL    HW131912  10.658   0.659   3.032
10005SOL    HW231913  10.550   0.735   2.957
10006SOL     OW31914  13.540   1.248  12.624
10006SOL    HW131915  13.464   1.195  12.600
10006SOL    HW231916  13.546   1.241  12.719
10007SOL     OW31917   4.178  13.529   6.066
10007SOL    HW131918   4.260  13.555   6.106
10007SOL    HW231919   4.192  13.543   5.972
10008SOL     OW31920   0.076   0.978   1.483
10008SOL    HW131921   0.088   1.015   1.570
10008SOL    HW231922   0.163   0.982   1.443
10009SOL     OW31923   6.695   2.744  13.911
10009SOL    HW131924   6.744   2.728  13.830
10009SOL    HW231925   6.720   2.833  13.937
10010SOL     OW31926  13.758   4.825  11.922
10010SOL    HW131927  13.746   4.870  12.006
10010SOL    HW231928  13.848   4.846  11.896
10011SOL     OW31929   8.355   4.028   9.324
10011SOL    HW131930   8.382   3.937   9.338
10011SOL    HW231931   8.286   4.043   9.388
10012SOL     OW31932   4.922   1.387   7.999
10012SOL    HW131933   4.996   1.359   8.053
10012SOL    HW231934   4.878   1.305   7.974
10013SOL     OW31935   0.781   6.831  12.074
10013SOL    HW131936   0.840   6.906  12.083
10013SOL    HW231937   0.696   6.863  12.103
10014SOL     OW31938  12.833  14.035   5.302
10014SOL    HW131939  12.805  14.047   5.393
10014SOL    HW231940  12.757  14.063   5.251
10015SOL     OW31941  11.949  14.190   8.028
10015SOL    HW131942  11.996  14.165   8.108
10015SOL    HW231943  11.923  14.106   7.989
10016SOL     OW31944  13.398  11.563   0.850
10016SOL    HW131945  13.442  11.558   0.935
10016SOL    HW231946  13.466  11.542   0.786
10017SOL     OW31947   9.499   7.011   2.636
10017SOL    HW131948   9.416   7.050   2.608
10017SOL    HW231949   9.490   7.003   2.731
10018SOL     OW31950  11.830   8.930  14.556
10018SOL    HW131951  11.859   9.020  14.539
10018SOL    HW231952  11.761   8.939  14.621
10019SOL     OW31953   5.962  13.214   2.412
10019SOL    HW131954   5.942  13.162   2.491
10019SOL    HW231955   5.905  13.290   2.419
10020SOL     OW31956   1.769   3.133  12.830
10020SOL    HW131957   1.844   3.190  12.816
10020SOL    HW231958   1.765   3.079  12.751
10021SOL     OW31959  13.114   1.145   8.384
10021SOL    HW131960  13.169   1.188   8.449
10021SOL    HW231961  13.170   1.076   8.347
10022SOL     OW31962   8.553  14.771   4.415
10022SOL    HW131963   8.551  14.835   4.486
10022SOL    HW231964   8.592  14.817   4.341
10023SOL     OW31965   1.043   7.610  11.366
10023SOL    HW131966   1.046   7.521  11.333
10023SOL    HW231967   0.958   7.617  11.409
10024SOL     OW31968   7.490   7.818   9.167
10024SOL    HW131969   7.526   7.868   9.094
10024SOL    HW231970   7.440   7.883   9.218
10025SOL     OW31971   7.639   9.275   9.971
10025SOL    HW131972   7.575   9.214  10.008
10025SOL    HW231973   7.719   9.258  10.020
10026SOL     OW31974  10.325   3.500   2.745
10026SOL    HW131975  10.397   3.476   2.802
10026SOL    HW231976  10.304   3.420   2.697
10027SOL     OW31977   5.720  10.886  14.290
10027SOL    HW131978   5.755  10.800  14.271
10027SOL    HW231979   5.673  10.875  14.373
10028SOL     OW31980   3.933   3.026   1.121
10028SOL    HW131981   3.990   3.066   1.186
10028SOL    HW231982   3.866   2.981   1.172
10029SOL     OW31983   6.919  13.711  10.477
10029SOL    HW131984   6.994  13.748  10.524
10029SOL    HW231985   6.952  13.694  10.389
10030SOL     OW31986   6.708   6.062  10.603
10030SOL    HW131987   6.798   6.039  10.626
10030SOL    HW231988   6.657   6.042  10.681
10031SOL     OW31989   7.261  12.859  13.818
10031SOL    HW131990   7.247  12.937  13.871
10031SOL    HW231991   7.339  12.877  13.767
10032SOL     OW31992  11.753   7.230   3.804
10032SOL    HW131993  11.713   7.304   3.850
10032SOL    HW231994  11.678   7.183   3.766
10033SOL     OW31995   2.583  12.898  11.913
10033SOL    HW131996   2.509  12.950  11.942
10033SOL    HW231997   2.589  12.914  11.819
10034SOL     OW31998   9.070   0.682   9.337
10034SOL    HW131999   9.092   0.772   9.361
10034SOL    HW232000   9.149   0.649   9.293
10035SOL     OW32001  12.182   3.921  11.119
10035SOL    HW132002  12.258   3.887  11.071
10035SOL    HW232003  12.190   3.882  11.207
10036SOL     OW32004   7.780   6.164   9.371
10036SOL    HW132005   7.864   6.134   9.338
10036SOL    HW232006   7.717   6.100   9.338
10037SOL     OW32007  11.708  14.064   3.786
10037SOL    HW132008  11.760  14.143   3.804
10037SOL    HW232009  11.617  14.092   3.796
10038SOL     OW32010  14.314   9.859   7.463
10038SOL    HW132011  14.318   9.778   7.515
10038SOL    HW232012  14.229   9.855   7.420
10039SOL     OW32013   6.152   8.269  14.324
10039SOL    HW132014   6.121   8.202  14.264
10039SOL    HW232015   6.085   8.274  14.392
10040SOL     OW32016   5.327  13.560  10.754
10040SOL    HW132017   5.330  13.478  10.705
10040SOL    HW232018   5.328  13.533  10.846
10041SOL     OW32019  13.848   1.261  11.979
10041SOL    HW132020  13.830   1.246  11.886
10041SOL    HW232021  13.899   1.185  12.007
10042SOL     OW32022   1.796   8.649   7.071
10042SOL    HW132023   1.714   8.665   7.025
10042SOL    HW232024   1.833   8.736   7.087
10043SOL     OW32025   4.305  13.804   3.715
10043SOL    HW132026   4.367  13.738   3.687
10043SOL    HW232027   4.237  13.805   3.647
10044SOL     OW32028   4.577  12.974  11.619
10044SOL    HW132029   4.570  13.031  11.696
10044SOL    HW232030   4.569  12.885  11.655
10045SOL     OW32031   7.139   4.070  11.850
10045SOL    HW132032   7.158   4.164  11.847
10045SOL    HW232033   7.144   4.041  11.759
10046SOL     OW32034  11.893   7.976   0.772
10046SOL    HW132035  11.983   8.005   0.754
10046SOL    HW232036  11.842   8.008   0.698
10047SOL     OW32037   0.310   2.944   2.393
10047SOL    HW132038   0.251   2.928   2.319
10047SOL    HW232039   0.345   3.032   2.376
10048SOL     OW32040   1.562   0.693   3.216
10048SOL    HW132041   1.521   0.712   3.131
10048SOL    HW232042   1.625   0.623   3.197
10049SOL     OW32043   6.886   1.598   7.607
10049SOL    HW132044   6.979   1.576   7.602
10049SOL    HW232045   6.885   1.690   7.633
10050SOL     OW32046  14.560   7.172   6.980
10050SOL    HW132047  14.535   7.130   6.897
10050SOL    HW232048  14.477   7.198   7.019
10051SOL     OW32049   8.916   4.055   5.946
10051SOL    HW132050   8.927   4.144   5.912
10051SOL    HW232051   8.997   4.038   5.995
10052SOL     OW32052   4.396   7.746   5.434
10052SOL    HW132053   4.345   7.670   5.405
10052SOL    HW232054   4.486   7.714   5.440
10053SOL     OW32055   8.436  11.251   4.818
10053SOL    HW132056   8.525  11.278   4.799
10053SOL    HW232057   8.383  11.293   4.750
10054SOL     OW32058   1.416   6.075   0.182
10054SOL    HW132059   1.413   6.047   0.274
10054SOL    HW232060   1.324   6.074   0.154
10055SOL     OW32061   9.908   7.925  11.693
10055SOL    HW132062   9.813   7.926  11.709
10055SOL    HW232063   9.917   7.880  11.609
10056SOL     OW32064  12.661  11.534   6.478
10056SOL    HW132065  12.744  11.488   6.464
10056SOL    HW232066  12.597  11.484   6.428
10057SOL     OW32067   1.978   8.142  12.587
10057SOL    HW132068   2.020   8.136  12.673
10057SOL    HW232069   1.897   8.093  12.597
10058SOL     OW32070   5.626  12.575   9.061
10058SOL    HW132071   5.609  12.552   9.152
10058SOL    HW232072   5.706  12.528   9.038
10059SOL     OW32073   0.707   2.491  14.620
10059SOL    HW132074   0.640   2.537  14.672
10059SOL    HW232075   0.659   2.457  14.545
10060SOL     OW32076   6.870  10.156   7.604
10060SOL    HW132077   6.926  10.082   7.627
10060SOL    HW232078   6.781  10.125   7.620
10061SOL     OW32079  12.493  12.895   5.795
10061SOL    HW132080  12.480  12.835   5.868
10061SOL    HW232081  12.552  12.963   5.829
10062SOL     OW32082  12.751   0.054  12.613
10062SOL    HW132083  12.790   0.135  12.578
10062SOL    HW232084  12.657   0.069  12.608
10063SOL     OW32085   1.694   4.953   2.649
10063SOL    HW132086   1.683   4.900   2.570
10063SOL    HW232087   1.743   5.030   2.620
10064SOL     OW32088   0.678   8.778   4.761
10064SOL    HW132089   0.689   8.859   4.812
10064SOL    HW232090   0.756   8.773   4.706
10065SOL     OW32091   0.718   9.026  10.335
10065SOL    HW132092   0.751   9.033  10.245
10065SOL    HW232093   0.713   9.117  10.365
10066SOL     OW32094  10.446  14.747   5.533
10066SOL    HW132095  10.354  14.725   5.548
10066SOL    HW232096  10.462  14.723   5.442
10067SOL     OW32097   7.318   7.318   7.284
10067SOL    HW132098   7.272   7.235   7.276
10067SOL    HW232099   7.319   7.337   7.378
10068SOL     OW32100   7.738   1.898   8.067
10068SOL    HW132101   7.681   1.961   8.110
10068SOL    HW232102   7.782   1.947   7.998
10069SOL     OW32103  12.843   2.062  12.855
10069SOL    HW132104  12.852   2.008  12.934
10069SOL    HW232105  12.886   2.144  12.878
10070SOL     OW32106   0.687   8.001   3.826
10070SOL    HW132107   0.670   8.028   3.735
10070SOL    HW232108   0.698   8.083   3.874
10071SOL     OW32109   6.053  13.114   7.204
10071SOL    HW132110   5.993  13.058   7.254
10071SOL    HW232111   6.111  13.053   7.159
10072SOL     OW32112  14.248   5.321   7.581
10072SOL    HW132113  14.220   5.396   7.634
10072SOL    HW232114  14.214   5.244   7.628
10073SOL     OW32115  12.959   3.726   5.994
10073SOL    HW132116  12.916   3.660   5.940
10073SOL    HW232117  12.992   3.678   6.070
10074SOL     OW32118  11.827   2.910   4.031
10074SOL    HW132119  11.805   2.832   3.981
10074SOL    HW232120  11.752   2.969   4.017
10075SOL     OW32121   3.804   3.256   4.487
10075SOL    HW132122   3.806   3.325   4.553
10075SOL    HW232123   3.896   3.238   4.467
10076SOL     OW32124  12.026   3.922   5.394
10076SOL    HW132125  11.988   3.989   5.450
10076SOL    HW232126  12.095   3.882   5.448
10077SOL     OW32127  13.199   6.544   5.354
10077SOL    HW132128  13.286   6.562   5.319
10077SOL    HW232129  13.206   6.457   5.393
10078SOL     OW32130   8.325   0.920   5.170
10078SOL    HW132131   8.355   0.980   5.238
10078SOL    HW232132   8.286   0.976   5.103
10079SOL     OW32133  13.355  11.151  12.171
10079SOL    HW132134  13.272  11.137  12.216
10079SOL    HW232135  13.329  11.173  12.081
10080SOL     OW32136   5.440  11.171  12.631
10080SOL    HW132137   5.463  11.250  12.680
10080SOL    HW232138   5.511  11.159  12.568
10081SOL     OW32139   6.982  10.912  13.944
10081SOL    HW132140   6.914  10.974  13.919
10081SOL    HW232141   7.061  10.965  13.955
10082SOL     OW32142   3.574   2.203   0.525
10082SOL    HW132143   3.490   2.240   0.497
10082SOL    HW232144   3.629   2.279   0.546
10083SOL     OW32145   9.561   6.879   9.645
10083SOL    HW132146   9.609   6.910   9.722
10083SOL    HW232147   9.493   6.945   9.630
10084SOL     OW32148   0.462  14.118   0.122
10084SOL    HW132149   0.469  14.210   0.147
10084SOL    HW232150   0.511  14.071   0.189
10085SOL     OW32151   6.813   2.236  13.566
10085SOL    HW132152   6.857   2.319  13.587
10085SOL    HW232153   6.724   2.247  13.601
10086SOL     OW32154  10.788   6.328  14.777
10086SOL    HW132155  10.816   6.398  14.835
10086SOL    HW232156  10.770   6.371  14.694
10087SOL     OW32157  11.371  14.232   4.733
10087SOL    HW132158  11.459  14.268   4.743
10087SOL    HW232159  11.384  14.148   4.688
10088SOL     OW32160   9.252   7.680  14.698
10088SOL    HW132161   9.242   7.622  14.773
10088SOL    HW232162   9.196   7.643  14.630
10089SOL     OW32163   2.400   9.485  14.250
10089SOL    HW132164   2.341   9.532  14.192
10089SOL    HW232165   2.348   9.467  14.328
10090SOL     OW32166  10.562   0.333  13.243
10090SOL    HW132167  10.515   0.409  13.277
10090SOL    HW232168  10.536   0.327  13.152
10091SOL     OW32169   8.812   9.896   2.942
10091SOL    HW132170   8.771   9.957   2.881
10091SOL    HW232171   8.770   9.914   3.026
10092SOL     OW32172   5.692   7.046  12.062
10092SOL    HW132173   5.597   7.049  12.052
10092SOL    HW232174   5.717   7.136  12.082
10093SOL     OW32175   8.964   4.246  14.539
10093SOL    HW132176   8.948   4.337  14.514
10093SOL    HW232177   8.884   4.200  14.514
10094SOL     OW32178  13.810   2.211   5.720
10094SOL    HW132179  13.840   2.125   5.690
10094SOL    HW232180  13.718   2.214   5.692
10095SOL     OW32181  13.460  10.133  10.926
10095SOL    HW132182  13.430  10.167  10.842
10095SOL    HW232183  13.470  10.211  10.982
10096SOL     OW32184   0.815   9.193   6.938
10096SOL    HW132185   0.755   9.267   6.941
10096SOL    HW232186   0.879   9.211   7.008
10097SOL     OW32187  10.260   2.470   0.150
10097SOL    HW132188  10.189   2.425   0.103
10097SOL    HW232189  10.228   2.477   0.240
10098SOL     OW32190   9.657   7.839   8.035
10098SOL    HW132191   9.683   7.759   8.081
10098SOL    HW232192   9.676   7.910   8.095
10099SOL     OW32193   1.437  13.026  11.094
10099SOL    HW132194   1.440  13.034  10.999
10099SOL    HW232195   1.354  12.984  11.113
10100SOL     OW32196  12.867  13.714  10.731
10100SOL    HW132197  12.783  13.732  10.773
10100SOL    HW232198  12.906  13.800  10.717
10101SOL     OW32199  13.882  11.130   2.200
10101SOL    HW132200  13.922  11.043   2.205
10101SOL    HW232201  13.812  11.121   2.135
10102SOL     OW32202   0.480   1.789   0.199
10102SOL    HW132203   0.407   1.844   0.170
10102SOL    HW232204   0.544   1.850   0.235
10103SOL     OW32205  12.911   7.508   8.216
10103SOL    HW132206  12.820   7.480   8.222
10103SOL    HW232207  12.950   7.486   8.300
10104SOL     OW32208  13.362   8.216  11.446
10104SOL    HW132209  13.311   8.235  11.525
10104SOL    HW232210  13.309   8.151  11.399
10105SOL     OW32211   1.421   4.626  11.239
10105SOL    HW132212   1.405   4.547  11.290
10105SOL    HW232213   1.403   4.698  11.298
10106SOL     OW32214   3.496   8.497   7.454
10106SOL    HW132215   3.537   8.567   7.404
10106SOL    HW232216   3.406   8.493   7.422
10107SOL     OW32217   8.615   7.043  12.367
10107SOL    HW132218   8.536   7.081  12.327
10107SOL    HW232219   8.595   6.950  12.375
10108SOL     OW32220   9.882   6.395   3.845
10108SOL    HW132221   9.802   6.448   3.852
10108SOL    HW232222   9.948   6.444   3.894
10109SOL     OW32223  10.798   9.849   5.313
10109SOL    HW132224  10.709   9.862   5.344
10109SOL    HW232225  10.837   9.936   5.314
10110SOL     OW32226   4.369   9.031   9.780
10110SOL    HW132227   4.445   9.078   9.813
10110SOL    HW232228   4.367   9.051   9.686
10111SOL     OW32229   4.716  14.803   5.499
10111SOL    HW132230   4.638  14.835   5.544
10111SOL    HW232231   4.753  14.737   5.558
10112SOL     OW32232   5.237   0.455   9.678
10112SOL    HW132233   5.259   0.423   9.591
10112SOL    HW232234   5.164   0.516   9.664
10113SOL     OW32235   3.465  10.909   4.256
10113SOL    HW132236   3.476  10.966   4.332
10113SOL    HW232237   3.389  10.944   4.211
10114SOL     OW32238   6.259   9.573   8.561
10114SOL    HW132239   6.170   9.540   8.566
10114SOL    HW232240   6.304   9.513   8.502
10115SOL     OW32241   7.329   0.717   8.804
10115SOL    HW132242   7.283   0.749   8.727
10115SOL    HW232243   7.397   0.783   8.821
10116SOL     OW32244   1.273  13.400   3.717
10116SOL    HW132245   1.215  13.476   3.718
10116SOL    HW232246   1.354  13.432   3.678
10117SOL     OW32247  12.164  12.428   9.296
10117SOL    HW132248  12.195  12.513   9.327
10117SOL    HW232249  12.244  12.381   9.272
10118SOL     OW32250   5.602   5.207   2.925
10118SOL    HW132251   5.598   5.144   2.998
10118SOL    HW232252   5.554   5.164   2.855
10119SOL     OW32253  11.456   4.687  14.113
10119SOL    HW132254  11.445   4.596  14.140
10119SOL    HW232255  11.501   4.728  14.187
10120SOL     OW32256  12.649  12.637   2.356
10120SOL    HW132257  12.662  12.726   2.388
10120SOL    HW232258  12.628  12.649   2.263
10121SOL     OW32259  13.850  14.457   3.645
10121SOL    HW132260  13.935  14.499   3.657
10121SOL    HW232261  13.826  14.475   3.554
10122SOL     OW32262   3.562  12.052   2.673
10122SOL    HW132263   3.553  11.987   2.743
10122SOL    HW232264   3.499  12.120   2.696
10123SOL     OW32265  10.457  10.096  14.312
10123SOL    HW132266  10.403  10.036  14.260
10123SOL    HW232267  10.423  10.086  14.401
10124SOL     OW32268   3.310   5.347   1.136
10124SOL    HW132269   3.228   5.379   1.173
10124SOL    HW232270   3.350   5.424   1.095
10125SOL     OW32271   1.949  14.853  12.418
10125SOL    HW132272   2.014   0.009  12.485
10125SOL    HW232273   1.919   0.068  12.382
10126SOL     OW32274  11.701   3.728  13.872
10126SOL    HW132275  11.779   3.675  13.860
10126SOL    HW232276  11.685   3.767  13.786
10127SOL     OW32277  14.335   5.705   7.955
10127SOL    HW132278  14.402   5.771   7.973
10127SOL    HW232279  14.332   5.651   8.033
10128SOL     OW32280  12.043  13.747   9.706
10128SOL    HW132281  12.046  13.697   9.624
10128SOL    HW232282  12.089  13.692   9.770
10129SOL     OW32283   1.652  14.450   9.325
10129SOL    HW132284   1.576  14.442   9.267
10129SOL    HW232285   1.683  14.361   9.336
10130SOL     OW32286   0.717   4.666   6.355
10130SOL    HW132287   0.794   4.675   6.299
10130SOL    HW232288   0.724   4.579   6.393
10131SOL     OW32289   2.584   9.324  13.259
10131SOL    HW132290   2.501   9.285  13.233
10131SOL    HW232291   2.651   9.265  13.224
10132SOL     OW32292   8.377   7.459   5.410
10132SOL    HW132293   8.342   7.493   5.328
10132SOL    HW232294   8.317   7.388   5.435
10133SOL     OW32295   2.021   1.354   7.527
10133SOL    HW132296   1.994   1.400   7.448
10133SOL    HW232297   1.945   1.302   7.553
10134SOL     OW32298  12.700   7.784  12.920
10134SOL    HW132299  12.759   7.768  12.847
10134SOL    HW232300  12.730   7.868  12.957
10135SOL     OW32301   4.774   8.133   4.205
10135SOL    HW132302   4.831   8.207   4.227
10135SOL    HW232303   4.794   8.114   4.113
10136SOL     OW32304   9.705   6.534   7.784
10136SOL    HW132305   9.631   6.582   7.747
10136SOL    HW232306   9.777   6.549   7.724
10137SOL     OW32307  10.657   8.546   6.562
10137SOL    HW132308  10.676   8.576   6.473
10137SOL    HW232309  10.588   8.605   6.593
10138SOL     OW32310   9.496   8.182  10.212
10138SOL    HW132311   9.444   8.134  10.148
10138SOL    HW232312   9.441   8.256  10.237
10139SOL     OW32313  12.713  13.646   8.292
10139SOL    HW132314  12.773  13.588   8.339
10139SOL    HW232315  12.757  13.732   8.295
10140SOL     OW32316   7.969  12.158   9.804
10140SOL    HW132317   7.968  12.175   9.898
10140SOL    HW232318   7.998  12.067   9.797
10141SOL     OW32319   6.410   9.815   6.688
10141SOL    HW132320   6.385   9.725   6.667
10141SOL    HW232321   6.456   9.845   6.610
10142SOL     OW32322  14.781   9.552   7.450
10142SOL    HW132323  14.738   9.488   7.507
10142SOL    HW232324  14.851   9.503   7.407
10143SOL     OW32325   9.843   6.242   2.604
10143SOL    HW132326   9.820   6.159   2.562
10143SOL    HW232327   9.938   6.249   2.592
10144SOL     OW32328   3.965   6.127   8.660
10144SOL    HW132329   3.887   6.100   8.708
10144SOL    HW232330   3.972   6.221   8.676
10145SOL     OW32331   6.189   3.989   5.466
10145SOL    HW132332   6.217   4.024   5.382
10145SOL    HW232333   6.181   4.066   5.523
10146SOL     OW32334   5.035  10.756   1.428
10146SOL    HW132335   5.082  10.838   1.438
10146SOL    HW232336   4.977  10.751   1.504
10147SOL     OW32337  14.829   0.831  14.585
10147SOL    HW132338  14.745   0.828  14.539
10147SOL    HW232339  14.806   0.848  14.676
10148SOL     OW32340   7.780   4.693   2.828
10148SOL    HW132341   7.705   4.653   2.783
10148SOL    HW232342   7.742   4.766   2.877
10149SOL     OW32343   9.960   1.181   9.273
10149SOL    HW132344  10.042   1.136   9.295
10149SOL    HW232345   9.892   1.122   9.305
10150SOL     OW32346  11.084   6.990   0.362
10150SOL    HW132347  11.054   7.046   0.433
10150SOL    HW232348  11.130   7.049   0.302
10151SOL     OW32349   2.143   8.440   4.462
10151SOL    HW132350   2.146   8.506   4.531
10151SOL    HW232351   2.194   8.367   4.498
10152SOL     OW32352   9.798  11.107   3.771
10152SOL    HW132353   9.749  11.025   3.763
10152SOL    HW232354   9.747  11.171   3.721
10153SOL     OW32355   3.571  13.276   1.044
10153SOL    HW132356   3.662  13.266   1.071
10153SOL    HW232357   3.576  13.305   0.953
10154SOL     OW32358  12.708  11.685   9.552
10154SOL    HW132359  12.769  11.737   9.604
10154SOL    HW232360  12.762  11.615   9.514
10155SOL     OW32361   4.571   5.041   0.081
10155SOL    HW132362   4.611   5.111   0.029
10155SOL    HW232363   4.481   5.035   0.048
10156SOL     OW32364   2.969   0.612  14.102
10156SOL    HW132365   3.054   0.587  14.068
10156SOL    HW232366   2.964   0.570  14.188
10157SOL     OW32367   4.530   0.191  12.517
10157SOL    HW132368   4.440   0.164  12.497
10157SOL    HW232369   4.544   0.269  12.463
10158SOL     OW32370  13.703   4.311   5.120
10158SOL    HW132371  13.649   4.291   5.196
10158SOL    HW232372  13.776   4.362   5.155
10159SOL     OW32373  10.722  14.717   7.544
10159SOL    HW132374  10.631  14.692   7.562
10159SOL    HW232375  10.716  14.795   7.489
10160SOL     OW32376   6.797   1.113   9.615
10160SOL    HW132377   6.723   1.160   9.653
10160SOL    HW232378   6.798   1.140   9.523
10161SOL     OW32379  13.683   6.110  11.483
10161SOL    HW132380  13.618   6.166  11.526
10161SOL    HW232381  13.733   6.071  11.555
10162SOL     OW32382  11.952  10.573   2.642
10162SOL    HW132383  12.005  10.651   2.658
10162SOL    HW232384  12.015  10.507   2.611
10163SOL     OW32385   4.366  12.942  10.076
10163SOL    HW132386   4.313  12.864  10.058
10163SOL    HW232387   4.445  12.930  10.024
10164SOL     OW32388  12.243   2.600   3.954
10164SOL    HW132389  12.223   2.648   3.874
10164SOL    HW232390  12.281   2.518   3.923
10165SOL     OW32391   9.134  14.509   5.118
10165SOL    HW132392   9.089  14.434   5.080
10165SOL    HW232393   9.191  14.472   5.186
10166SOL     OW32394   9.254  13.632   8.068
10166SOL    HW132395   9.260  13.661   7.977
10166SOL    HW232396   9.160  13.622   8.083
10167SOL     OW32397   6.700   0.621   0.091
10167SOL    HW132398   6.659   0.702   0.061
10167SOL    HW232399   6.670   0.555   0.029
10168SOL     OW32400   0.950  14.044   3.024
10168SOL    HW132401   1.039  14.012   3.007
10168SOL    HW232402   0.955  14.080   3.112
10169SOL     OW32403   5.573  14.055   6.471
10169SOL    HW132404   5.607  14.005   6.545
10169SOL    HW232405   5.484  14.079   6.496
10170SOL     OW32406   6.776   9.591   2.399
10170SOL    HW132407   6.753   9.684   2.393
10170SOL    HW232408   6.748   9.566   2.488
10171SOL     OW32409  12.762   8.642   2.234
10171SOL    HW132410  12.807   8.558   2.226
10171SOL    HW232411  12.822   8.705   2.196
10172SOL     OW32412  11.787  10.641  13.602
10172SOL    HW132413  11.748  10.584  13.535
10172SOL    HW232414  11.716  10.657  13.664
10173SOL     OW32415   1.460   2.677   2.184
10173SOL    HW132416   1.431   2.617   2.116
10173SOL    HW232417   1.393   2.671   2.252
10174SOL     OW32418  10.239   7.135   3.114
10174SOL    HW132419  10.195   7.058   3.076
10174SOL    HW232420  10.318   7.145   3.060
10175SOL     OW32421   4.228   5.536   0.104
10175SOL    HW132422   4.254   5.558   0.193
10175SOL    HW232423   4.310   5.528   0.056
10176SOL     OW32424  10.512   6.760   8.098
10176SOL    HW132425  10.564   6.805   8.164
10176SOL    HW232426  10.554   6.784   8.015
10177SOL     OW32427   0.959   4.817   6.918
10177SOL    HW132428   0.974   4.740   6.972
10177SOL    HW232429   0.895   4.869   6.966
10178SOL     OW32430   4.744  14.096   6.071
10178SOL    HW132431   4.713  14.171   6.123
10178SOL    HW232432   4.670  14.075   6.013
10179SOL     OW32433  13.897   8.925   1.446
10179SOL    HW132434  13.887   8.863   1.374
10179SOL    HW232435  13.985   8.908   1.480
10180SOL     OW32436  12.087   6.060   6.753
10180SOL    HW132437  12.061   5.971   6.776
10180SOL    HW232438  12.008   6.112   6.766
10181SOL     OW32439   2.978   1.981   9.852
10181SOL    HW132440   2.908   2.002   9.791
10181SOL    HW232441   3.055   2.025   9.816
10182SOL     OW32442   4.092  14.284   4.468
10182SOL    HW132443   4.138  14.272   4.385
10182SOL    HW232444   4.014  14.229   4.461
10183SOL     OW32445  13.358   7.954  14.244
10183SOL    HW132446  13.380   7.965  14.152
10183SOL    HW232447  13.389   8.035  14.286
10184SOL     OW32448   1.061  14.037   8.352
10184SOL    HW132449   1.107  13.959   8.321
10184SOL    HW232450   1.044  14.088   8.273
10185SOL     OW32451   6.930  12.880   5.323
10185SOL    HW132452   6.904  12.952   5.380
10185SOL    HW232453   6.990  12.827   5.376
10186SOL     OW32454   1.705   3.194   6.777
10186SOL    HW132455   1.683   3.101   6.785
10186SOL    HW232456   1.621   3.239   6.783
10187SOL     OW32457   5.918  11.697  12.396
10187SOL    HW132458   5.930  11.786  12.362
10187SOL    HW232459   5.880  11.710  12.483
10188SOL     OW32460  14.055   1.101   0.681
10188SOL    HW132461  13.970   1.070   0.651
10188SOL    HW232462  14.117   1.035   0.650
10189SOL     OW32463  11.899   0.555  13.431
10189SOL    HW132464  11.950   0.494  13.377
10189SOL    HW232465  11.966   0.608  13.475
10190SOL     OW32466   4.164   1.788   2.054
10190SOL    HW132467   4.242   1.837   2.031
10190SOL    HW232468   4.109   1.793   1.976
10191SOL     OW32469  10.827   3.440  13.705
10191SOL    HW132470  10.801   3.428  13.796
10191SOL    HW232471  10.858   3.531  13.701
10192SOL     OW32472  12.688   3.414   5.037
10192SOL    HW132473  12.705   3.488   4.979
10192SOL    HW232474  12.633   3.451   5.107
10193SOL     OW32475   6.650   2.479  14.316
10193SOL    HW132476   6.618   2.390  14.331
10193SOL    HW232477   6.745   2.472  14.323
10194SOL     OW32478   7.971  10.082   8.774
10194SOL    HW132479   7.932  10.011   8.825
10194SOL    HW232480   7.945  10.162   8.819
10195SOL     OW32481   5.199  11.408   5.394
10195SOL    HW132482   5.237  11.321   5.399
10195SOL    HW232483   5.258  11.464   5.443
10196SOL     OW32484   8.354   0.898   5.882
10196SOL    HW132485   8.444   0.874   5.902
10196SOL    HW232486   8.301   0.823   5.910
10197SOL     OW32487  12.253   6.136   8.588
10197SOL    HW132488  12.189   6.102   8.650
10197SOL    HW232489  12.263   6.067   8.523
10198SOL     OW32490   8.794   0.248   8.974
10198SOL    HW132491   8.788   0.264   9.068
10198SOL    HW232492   8.860   0.179   8.966
10199SOL     OW32493  14.265   1.662  13.570
10199SOL    HW132494  14.350   1.686  13.534
10199SOL    HW232495  14.253   1.571  13.545
10200SOL     OW32496  10.513  12.490  12.821
10200SOL    HW132497  10.485  12.433  12.750
10200SOL    HW232498  10.489  12.578  12.792
10201SOL     OW32499   2.248  14.858   4.060
10201SOL    HW132500   2.330   0.022   4.021
10201SOL    HW232501   2.267  14.853   4.154
10202SOL     OW32502  13.097  13.697   9.846
10202SOL    HW132503  13.147  13.657   9.775
10202SOL    HW232504  13.113  13.791   9.837
10203SOL     OW32505   1.217   4.086  10.838
10203SOL    HW132506   1.203   4.155  10.903
10203SOL    HW232507   1.308   4.097  10.810
10204SOL     OW32508  12.782   1.932  14.305
10204SOL    HW132509  12.767   1.999  14.371
10204SOL    HW232510  12.813   1.856  14.355
10205SOL     OW32511  11.242   0.167   2.007
10205SOL    HW132512  11.248   0.202   2.096
10205SOL    HW232513  11.330   0.132   1.990
10206SOL     OW32514   6.146   2.338   2.177
10206SOL    HW132515   6.151   2.363   2.085
10206SOL    HW232516   6.114   2.248   2.176
10207SOL     OW32517   7.875   7.600   0.177
10207SOL    HW132518   7.837   7.551   0.104
10207SOL    HW232519   7.905   7.533   0.238
10208SOL     OW32520   2.796   5.787   1.557
10208SOL    HW132521   2.874   5.767   1.505
10208SOL    HW232522   2.785   5.711   1.613
10209SOL     OW32523   3.178   3.826  11.480
10209SOL    HW132524   3.179   3.731  11.477
10209SOL    HW232525   3.249   3.849  11.540
10210SOL     OW32526  12.523   3.366  12.730
10210SOL    HW132527  12.574   3.388  12.652
10210SOL    HW232528  12.550   3.277  12.752
10211SOL     OW32529   1.383   6.514   6.128
10211SOL    HW132530   1.466   6.467   6.114
10211SOL    HW232531   1.393   6.553   6.215
10212SOL     OW32532   6.847   8.266  12.669
10212SOL    HW132533   6.871   8.329  12.601
10212SOL    HW232534   6.881   8.305  12.750
10213SOL     OW32535   6.624  11.385   8.308
10213SOL    HW132536   6.575  11.316   8.353
10213SOL    HW232537   6.597  11.466   8.352
10214SOL     OW32538   5.818  12.574   2.619
10214SOL    HW132539   5.896  12.621   2.648
10214SOL    HW232540   5.852  12.499   2.570
10215SOL     OW32541   6.522   0.416   4.779
10215SOL    HW132542   6.434   0.386   4.757
10215SOL    HW232543   6.576   0.385   4.706
10216SOL     OW32544   6.152   6.049  14.286
10216SOL    HW132545   6.183   5.986  14.221
10216SOL    HW232546   6.073   6.087  14.246
10217SOL     OW32547  11.193  11.827  12.166
10217SOL    HW132548  11.105  11.862  12.181
10217SOL    HW232549  11.198  11.814  12.071
10218SOL     OW32550   9.186   2.023   6.884
10218SOL    HW132551   9.170   2.105   6.931
10218SOL    HW232552   9.102   2.001   6.845
10219SOL     OW32553   3.829   8.628   2.723
10219SOL    HW132554   3.811   8.721   2.709
10219SOL    HW232555   3.911   8.627   2.773
10220SOL     OW32556   2.127  10.538   6.339
10220SOL    HW132557   2.080  10.609   6.296
10220SOL    HW232558   2.104  10.547   6.431
10221SOL     OW32559  11.658  11.049   5.873
10221SOL    HW132560  11.617  11.044   5.786
10221SOL    HW232561  11.698  11.135   5.876
10222SOL     OW32562  11.461  10.376   4.926
10222SOL    HW132563  11.443  10.410   4.839
10222SOL    HW232564  11.469  10.455   4.981
10223SOL     OW32565   2.602  10.387   9.877
10223SOL    HW132566   2.564  10.353   9.958
10223SOL    HW232567   2.694  10.360   9.881
10224SOL     OW32568  11.323   9.758   7.294
10224SOL    HW132569  11.313   9.744   7.200
10224SOL    HW232570  11.266   9.692   7.334
10225SOL     OW32571  13.110   8.036   8.102
10225SOL    HW132572  13.032   8.041   8.046
10225SOL    HW232573  13.182   8.018   8.041
10226SOL     OW32574   0.175   8.683   2.418
10226SOL    HW132575   0.228   8.658   2.494
10226SOL    HW232576   0.085   8.661   2.444
10227SOL     OW32577   2.091   6.145   3.747
10227SOL    HW132578   2.154   6.073   3.754
10227SOL    HW232579   2.052   6.151   3.835
10228SOL     OW32580   7.375   5.657  12.472
10228SOL    HW132581   7.400   5.630  12.560
10228SOL    HW232582   7.369   5.753  12.476
10229SOL     OW32583   3.080   1.114   7.455
10229SOL    HW132584   3.042   1.191   7.499
10229SOL    HW232585   3.093   1.143   7.365
10230SOL     OW32586   1.324   5.691  11.611
10230SOL    HW132587   1.402   5.677  11.665
10230SOL    HW232588   1.254   5.648  11.659
10231SOL     OW32589  12.514   0.756  11.729
10231SOL    HW132590  12.548   0.844  11.748
10231SOL    HW232591  12.575   0.720  11.665
10232SOL     OW32592   7.060   2.004  14.170
10232SOL    HW132593   6.998   2.058  14.219
10232SOL    HW232594   7.014   1.982  14.089
10233SOL     OW32595   6.728   3.747  10.305
10233SOL    HW132596   6.634   3.743  10.327
10233SOL    HW232597   6.771   3.766  10.389
10234SOL     OW32598   1.553   3.250   9.593
10234SOL    HW132599   1.630   3.303   9.613
10234SOL    HW232600   1.500   3.252   9.673
10235SOL     OW32601   8.739   5.861   5.289
10235SOL    HW132602   8.679   5.835   5.219
10235SOL    HW232603   8.698   5.938   5.328
10236SOL     OW32604  13.895  11.540   8.465
10236SOL    HW132605  13.823  11.587   8.507
10236SOL    HW232606  13.856  11.501   8.386
10237SOL     OW32607   5.968  13.406   3.836
10237SOL    HW132608   5.959  13.420   3.742
10237SOL    HW232609   6.056  13.437   3.856
10238SOL     OW32610  10.642  14.743  13.866
10238SOL    HW132611  10.632  14.754  13.772
10238SOL    HW232612  10.723  14.788  13.887
10239SOL     OW32613   8.246   9.401  11.332
10239SOL    HW132614   8.313   9.466  11.352
10239SOL    HW232615   8.237   9.351  11.413
10240SOL     OW32616   1.706   7.737  11.083
10240SOL    HW132617   1.664   7.764  11.164
10240SOL    HW232618   1.672   7.797  11.017
10241SOL     OW32619   5.055  14.709  10.817
10241SOL    HW132620   5.145  14.723  10.789
10241SOL    HW232621   5.008  14.787  10.787
10242SOL     OW32622   1.242   7.860   5.856
10242SOL    HW132623   1.161   7.839   5.903
10242SOL    HW232624   1.222   7.942   5.810
10243SOL     OW32625   7.904   7.004   0.246
10243SOL    HW132626   7.950   7.083   0.273
10243SOL    HW232627   7.961   6.964   0.180
10244SOL     OW32628   8.100   5.018   6.314
10244SOL    HW132629   8.091   4.943   6.373
10244SOL    HW232630   8.011   5.047   6.297
10245SOL     OW32631  14.800  13.582  11.851
10245SOL    HW132632  14.801  13.676  11.870
10245SOL    HW232633  14.836  13.575  11.763
10246SOL     OW32634   9.243   5.606   9.042
10246SOL    HW132635   9.257   5.699   9.063
10246SOL    HW232636   9.330   5.572   9.024
10247SOL     OW32637   3.014   1.427   6.559
10247SOL    HW132638   3.056   1.502   6.602
10247SOL    HW232639   2.945   1.401   6.620
10248SOL     OW32640   4.191   3.127  11.880
10248SOL    HW132641   4.162   3.216  11.860
10248SOL    HW232642   4.110   3.077  11.890
10249SOL     OW32643   2.269   6.324   5.581
10249SOL    HW132644   2.223   6.263   5.523
10249SOL    HW232645   2.220   6.320   5.663
10250SOL     OW32646   9.742   6.832   9.369
10250SOL    HW132647   9.690   6.856   9.445
10250SOL    HW232648   9.677   6.806   9.303
10251SOL     OW32649   5.255   0.129  13.676
10251SOL    HW132650   5.192   0.096  13.611
10251SOL    HW232651   5.330   0.157  13.623
10252SOL     OW32652   3.767  10.415   0.418
10252SOL    HW132653   3.786  10.327   0.386
10252SOL    HW232654   3.851  10.449   0.448
10253SOL     OW32655   8.371   4.391   4.969
10253SOL    HW132656   8.341   4.383   4.879
10253SOL    HW232657   8.456   4.434   4.963
10254SOL     OW32658   6.248   5.186  13.032
10254SOL    HW132659   6.334   5.192  12.991
10254SOL    HW232660   6.189   5.159  12.962
10255SOL     OW32661   9.647  12.564   9.205
10255SOL    HW132662   9.574  12.523   9.252
10255SOL    HW232663   9.723  12.548   9.260
10256SOL     OW32664   9.724   7.255   0.153
10256SOL    HW132665   9.761   7.336   0.189
10256SOL    HW232666   9.691   7.207   0.229
10257SOL     OW32667   3.958   3.235   7.726
10257SOL    HW132668   3.890   3.222   7.660
10257SOL    HW232669   3.909   3.244   7.809
10258SOL     OW32670   8.067   2.328   6.662
10258SOL    HW132671   8.037   2.283   6.583
10258SOL    HW232672   8.141   2.275   6.693
10259SOL     OW32673   6.316  11.929  12.777
10259SOL    HW132674   6.266  11.986  12.834
10259SOL    HW232675   6.268  11.929  12.694
10260SOL     OW32676   4.540   1.233  11.725
10260SOL    HW132677   4.530   1.328  11.720
10260SOL    HW232678   4.591   1.210  11.647
10261SOL     OW32679   3.702  13.552   7.470
10261SOL    HW132680   3.797  13.558   7.478
10261SOL    HW232681   3.678  13.479   7.528
10262SOL     OW32682   0.253   5.197  12.127
10262SOL    HW132683   0.237   5.229  12.038
10262SOL    HW232684   0.205   5.114  12.131
10263SOL     OW32685   7.589   0.121   9.444
10263SOL    HW132686   7.618   0.180   9.375
10263SOL    HW232687   7.498   0.101   9.422
10264SOL     OW32688  12.141  13.039   0.229
10264SOL    HW132689  12.171  13.052   0.139
10264SOL    HW232690  12.105  12.951   0.231
10265SOL     OW32691   0.509  10.763  14.065
10265SOL    HW132692   0.542  10.764  14.155
10265SOL    HW232693   0.463  10.680  14.056
10266SOL     OW32694  10.123   5.645  14.402
10266SOL    HW132695  10.179   5.567  14.402
10266SOL    HW232696  10.084   5.647  14.490
10267SOL     OW32697  12.017  10.100  11.412
10267SOL    HW132698  12.040  10.010  11.433
10267SOL    HW232699  12.037  10.109  11.319
10268SOL     OW32700  14.809  12.948   9.641
10268SOL    HW132701  14.783  12.953   9.733
10268SOL    HW232702  14.844  13.035   9.621
10269SOL     OW32703   2.689   3.832   1.180
10269SOL    HW132704   2.674   3.761   1.242
10269SOL    HW232705   2.649   3.802   1.099
10270SOL     OW32706   2.838  10.399  12.804
10270SOL    HW132707   2.883  10.323  12.768
10270SOL    HW232708   2.806  10.369  12.889
10271SOL     OW32709   2.966   7.365   3.968
10271SOL    HW132710   2.888   7.315   3.992
10271SOL    HW232711   2.932   7.446   3.930
10272SOL     OW32712   3.400  12.402   3.248
10272SOL    HW132713   3.424  12.416   3.157
10272SOL    HW232714   3.471  12.349   3.284
10273SOL     OW32715   2.377   4.400   4.496
10273SOL    HW132716   2.348   4.324   4.547
10273SOL    HW232717   2.441   4.365   4.434
10274SOL     OW32718   3.240   6.016  13.602
10274SOL    HW132719   3.258   5.922  13.601
10274SOL    HW232720   3.220   6.035  13.694
10275SOL     OW32721   5.320   5.568  12.617
10275SOL    HW132722   5.246   5.598  12.670
10275SOL    HW232723   5.302   5.604  12.530
10276SOL     OW32724   0.681  11.569   5.542
10276SOL    HW132725   0.680  11.483   5.501
10276SOL    HW232726   0.755  11.615   5.500
10277SOL     OW32727  12.209  14.566   6.688
10277SOL    HW132728  12.172  14.649   6.718
10277SOL    HW232729  12.205  14.508   6.763
10278SOL     OW32730   1.999   1.485   8.180
10278SOL    HW132731   1.954   1.554   8.132
10278SOL    HW232732   1.933   1.418   8.195
10279SOL     OW32733   7.427  10.706   8.763
10279SOL    HW132734   7.512  10.714   8.807
10279SOL    HW232735   7.384  10.632   8.807
10280SOL     OW32736   0.782   4.197  10.631
10280SOL    HW132737   0.853   4.225  10.688
10280SOL    HW232738   0.825   4.162  10.554
10281SOL     OW32739   8.725  12.161  10.606
10281SOL    HW132740   8.728  12.066  10.594
10281SOL    HW232741   8.699  12.172  10.698
10282SOL     OW32742   7.116  12.439   7.590
10282SOL    HW132743   7.193  12.388   7.566
10282SOL    HW232744   7.063  12.380   7.643
10283SOL     OW32745  12.783  12.078   6.707
10283SOL    HW132746  12.794  12.022   6.629
10283SOL    HW232747  12.866  12.069   6.754
10284SOL     OW32748   7.224   9.057  13.368
10284SOL    HW132749   7.252   9.084  13.280
10284SOL    HW232750   7.189   9.136  13.408
10285SOL     OW32751  13.637   0.757  13.077
10285SOL    HW132752  13.674   0.774  12.990
10285SOL    HW232753  13.610   0.666  13.074
10286SOL     OW32754   7.854   0.420   6.216
10286SOL    HW132755   7.923   0.358   6.238
10286SOL    HW232756   7.808   0.381   6.142
10287SOL     OW32757  13.656   8.952   2.798
10287SOL    HW132758  13.679   8.973   2.889
10287SOL    HW232759  13.692   8.865   2.783
10288SOL     OW32760   3.483   3.015   1.807
10288SOL    HW132761   3.565   3.016   1.856
10288SOL    HW232762   3.421   2.970   1.865
10289SOL     OW32763   2.743   1.239  14.542
10289SOL    HW132764   2.825   1.214  14.584
10289SOL    HW232765   2.758   1.224  14.449
10290SOL     OW32766   0.983   4.809   5.309
10290SOL    HW132767   1.066   4.763   5.304
10290SOL    HW232768   0.957   4.802   5.401
10291SOL     OW32769   4.452   8.902   7.169
10291SOL    HW132770   4.539   8.871   7.195
10291SOL    HW232771   4.452   8.995   7.191
10292SOL     OW32772   3.846  12.643  11.695
10292SOL    HW132773   3.759  12.632  11.656
10292SOL    HW232774   3.905  12.649  11.620
10293SOL     OW32775   2.950   8.446   9.649
10293SOL    HW132776   2.855   8.448   9.654
10293SOL    HW232777   2.974   8.357   9.675
10294SOL     OW32778   7.604   6.108   7.098
10294SOL    HW132779   7.575   6.024   7.064
10294SOL    HW232780   7.523   6.158   7.108
10295SOL     OW32781  13.738   6.496   9.468
10295SOL    HW132782  13.674   6.526   9.404
10295SOL    HW232783  13.723   6.551   9.545
10296SOL     OW32784   6.912   0.260  13.860
10296SOL    HW132785   6.934   0.349  13.889
10296SOL    HW232786   6.936   0.205  13.935
10297SOL     OW32787  14.526   5.342   3.233
10297SOL    HW132788  14.518   5.316   3.325
10297SOL    HW232789  14.471   5.420   3.225
10298SOL     OW32790   0.625  14.081   0.362
10298SOL    HW132791   0.705  14.131   0.343
10298SOL    HW232792   0.579  14.134   0.427
10299SOL     OW32793   2.620   8.500   3.841
10299SOL    HW132794   2.562   8.534   3.774
10299SOL    HW232795   2.630   8.407   3.819
10300SOL     OW32796   6.609  13.991  12.183
10300SOL    HW132797   6.528  13.982  12.132
10300SOL    HW232798   6.610  13.914  12.239
10301SOL     OW32799   0.262   1.297   0.754
10301SOL    HW132800   0.309   1.363   0.704
10301SOL    HW232801   0.312   1.216   0.740
10302SOL     OW32802  14.232   5.384  12.065
10302SOL    HW132803  14.250   5.470  12.026
10302SOL    HW232804  14.180   5.405  12.143
10303SOL     OW32805   4.554  10.715   0.697
10303SOL    HW132806   4.504  10.634   0.707
10303SOL    HW232807   4.492  10.784   0.722
10304SOL     OW32808   1.130   6.018   6.131
10304SOL    HW132809   1.175   6.047   6.052
10304SOL    HW232810   1.189   6.040   6.202
10305SOL     OW32811   7.726   2.101   6.182
10305SOL    HW132812   7.694   2.091   6.272
10305SOL    HW232813   7.803   2.044   6.178
10306SOL     OW32814  13.469  13.909  11.646
10306SOL    HW132815  13.487  13.884  11.737
10306SOL    HW232816  13.384  13.953  11.650
10307SOL     OW32817  14.571  13.889   5.404
10307SOL    HW132818  14.600  13.980   5.405
10307SOL    HW232819  14.488  13.890   5.452
10308SOL     OW32820   7.930   1.451  10.462
10308SOL    HW132821   7.881   1.368  10.465
10308SOL    HW232822   7.889   1.505  10.529
10309SOL     OW32823  11.452   4.301   7.804
10309SOL    HW132824  11.397   4.248   7.861
10309SOL    HW232825  11.476   4.241   7.733
10310SOL     OW32826   7.435  12.473   2.098
10310SOL    HW132827   7.391  12.511   2.022
10310SOL    HW232828   7.435  12.543   2.164
10311SOL     OW32829   8.266   9.981  11.983
10311SOL    HW132830   8.326   9.942  12.046
10311SOL    HW232831   8.320  10.044  11.935
10312SOL     OW32832   6.865   3.121   7.438
10312SOL    HW132833   6.786   3.166   7.467
10312SOL    HW232834   6.885   3.160   7.353
10313SOL     OW32835   0.864   5.380  12.199
10313SOL    HW132836   0.847   5.368  12.105
10313SOL    HW232837   0.937   5.321  12.217
10314SOL     OW32838   9.450   2.114   0.894
10314SOL    HW132839   9.444   2.062   0.814
10314SOL    HW232840   9.543   2.117   0.914
10315SOL     OW32841  11.080   9.048   5.992
10315SOL    HW132842  11.097   8.984   5.922
10315SOL    HW232843  11.150   9.112   5.983
10316SOL     OW32844   4.304   0.305  14.377
10316SOL    HW132845   4.225   0.318  14.325
10316SOL    HW232846   4.317   0.210  14.377
10317SOL     OW32847  12.712  13.066  10.672
10317SOL    HW132848  12.651  13.064  10.746
10317SOL    HW232849  12.695  12.984  10.625
10318SOL     OW32850   7.087  13.806   7.197
10318SOL    HW132851   7.145  13.872   7.159
10318SOL    HW232852   7.003  13.851   7.208
10319SOL     OW32853   9.801   3.306  14.054
10319SOL    HW132854   9.785   3.351  13.971
10319SOL    HW232855   9.893   3.324  14.073
10320SOL     OW32856  10.358   3.336   2.321
10320SOL    HW132857  10.379   3.259   2.373
10320SOL    HW232858  10.362   3.305   2.230
10321SOL     OW32859   4.429   3.833   5.412
10321SOL    HW132860   4.393   3.757   5.367
10321SOL    HW232861   4.353   3.880   5.445
10322SOL     OW32862   6.390  13.636   9.538
10322SOL    HW132863   6.482  13.658   9.527
10322SOL    HW232864   6.376  13.561   9.480
10323SOL     OW32865  14.831   7.541   8.287
10323SOL    HW132866  14.763   7.604   8.313
10323SOL    HW232867   0.014   7.527   8.367
10324SOL     OW32868   7.528   8.090   1.834
10324SOL    HW132869   7.621   8.087   1.811
10324SOL    HW232870   7.486   8.030   1.772
10325SOL     OW32871  10.639   6.580  14.221
10325SOL    HW132872  10.659   6.620  14.136
10325SOL    HW232873  10.562   6.526  14.203
10326SOL     OW32874  11.884   2.258   4.333
10326SOL    HW132875  11.945   2.242   4.406
10326SOL    HW232876  11.832   2.178   4.328
10327SOL     OW32877  14.508   5.823   4.173
10327SOL    HW132878  14.582   5.783   4.128
10327SOL    HW232879  14.461   5.749   4.212
10328SOL     OW32880  13.405   7.901   2.316
10328SOL    HW132881  13.448   7.877   2.234
10328SOL    HW232882  13.470   7.881   2.383
10329SOL     OW32883  14.105   1.322   4.047
10329SOL    HW132884  14.040   1.256   4.068
10329SOL    HW232885  14.103   1.383   4.121
10330SOL     OW32886   3.261   2.015   2.493
10330SOL    HW132887   3.348   2.016   2.531
10330SOL    HW232888   3.202   2.020   2.568
10331SOL     OW32889   1.353  12.146   5.698
10331SOL    HW132890   1.275  12.099   5.669
10331SOL    HW232891   1.365  12.120   5.789
10332SOL     OW32892   2.397   6.541  11.903
10332SOL    HW132893   2.469   6.555  11.964
10332SOL    HW232894   2.359   6.457  11.930
10333SOL     OW32895  11.873   0.874   4.051
10333SOL    HW132896  11.942   0.813   4.025
10333SOL    HW232897  11.839   0.839   4.133
10334SOL     OW32898   5.340  14.400   5.126
10334SOL    HW132899   5.249  14.421   5.103
10334SOL    HW232900   5.348  14.426   5.218
10335SOL     OW32901   6.335   6.323   0.085
10335SOL    HW132902   6.382   6.318   0.168
10335SOL    HW232903   6.400   6.359   0.024
10336SOL     OW32904   3.337   8.673   6.806
10336SOL    HW132905   3.340   8.735   6.733
10336SOL    HW232906   3.244   8.654   6.818
10337SOL     OW32907   9.851  13.519   1.400
10337SOL    HW132908   9.819  13.609   1.412
10337SOL    HW232909   9.941  13.529   1.371
10338SOL     OW32910  12.055   4.047   4.438
10338SOL    HW132911  12.033   4.038   4.531
10338SOL    HW232912  12.034   4.138   4.417
10339SOL     OW32913  13.615   0.261  12.374
10339SOL    HW132914  13.663   0.340  12.349
10339SOL    HW232915  13.574   0.231  12.293
10340SOL     OW32916  14.666   5.601   2.574
10340SOL    HW132917  14.610   5.527   2.599
10340SOL    HW232918  14.709   5.573   2.493
10341SOL     OW32919  10.171   6.138   9.106
10341SOL    HW132920  10.161   6.170   9.016
10341SOL    HW232921  10.199   6.215   9.156
10342SOL     OW32922  12.168  10.040   8.712
10342SOL    HW132923  12.209  10.102   8.772
10342SOL    HW232924  12.239  10.013   8.653
10343SOL     OW32925  10.055   3.520  14.663
10343SOL    HW132926   9.978   3.477  14.626
10343SOL    HW232927  10.020   3.584  14.724
10344SOL     OW32928   2.046   8.046  12.323
10344SOL    HW132929   2.016   8.091  12.401
10344SOL    HW232930   2.137   8.023  12.342
10345SOL     OW32931   4.922   6.615   0.908
10345SOL    HW132932   4.851   6.640   0.968
10345SOL    HW232933   4.887   6.539   0.860
10346SOL     OW32934  14.325   9.416   1.380
10346SOL    HW132935  14.268   9.472   1.433
10346SOL    HW232936  14.264   9.367   1.324
10347SOL     OW32937  12.260   8.111  11.797
10347SOL    HW132938  12.176   8.065  11.805
10347SOL    HW232939  12.325   8.048  11.829
10348SOL     OW32940  12.867   3.202   5.684
10348SOL    HW132941  12.860   3.197   5.588
10348SOL    HW232942  12.815   3.128   5.716
10349SOL     OW32943   8.562  11.030  10.200
10349SOL    HW132944   8.490  10.992  10.250
10349SOL    HW232945   8.582  11.112  10.245
10350SOL     OW32946   3.832   9.042  11.621
10350SOL    HW132947   3.847   9.059  11.528
10350SOL    HW232948   3.880   8.961  11.638
10351SOL     OW32949  12.011  10.695   6.969
10351SOL    HW132950  11.960  10.721   7.045
10351SOL    HW232951  12.031  10.602   6.984
10352SOL     OW32952   8.273   0.167  11.431
10352SOL    HW132953   8.292   0.233  11.498
10352SOL    HW232954   8.251   0.217  11.353
10353SOL     OW32955   7.698   8.189   6.116
10353SOL    HW132956   7.762   8.125   6.147
10353SOL    HW232957   7.613   8.147   6.129
10354SOL     OW32958   5.726   9.071   7.586
10354SOL    HW132959   5.736   9.006   7.656
10354SOL    HW232960   5.770   9.032   7.511
10355SOL     OW32961   4.794  10.548  13.060
10355SOL    HW132962   4.707  10.513  13.040
10355SOL    HW232963   4.785  10.589  13.146
10356SOL     OW32964  13.400  13.899   3.557
10356SOL    HW132965  13.484  13.878   3.599
10356SOL    HW232966  13.348  13.940   3.626
10357SOL     OW32967   6.296   3.052   2.806
10357SOL    HW132968   6.234   3.029   2.737
10357SOL    HW232969   6.381   3.025   2.772
10358SOL     OW32970   9.807   8.935   2.143
10358SOL    HW132971   9.815   9.029   2.157
10358SOL    HW232972   9.835   8.896   2.226
10359SOL     OW32973   5.813  13.984   5.199
10359SOL    HW132974   5.867  13.936   5.136
10359SOL    HW232975   5.852  13.963   5.284
10360SOL     OW32976   3.361   9.343  14.021
10360SOL    HW132977   3.332   9.424  13.978
10360SOL    HW232978   3.433   9.371  14.078
10361SOL     OW32979   0.548  11.205   5.776
10361SOL    HW132980   0.494  11.219   5.698
10361SOL    HW232981   0.495  11.239   5.848
10362SOL     OW32982   2.611   6.557  10.260
10362SOL    HW132983   2.610   6.644  10.220
10362SOL    HW232984   2.642   6.573  10.350
10363SOL     OW32985  11.023   6.688  10.219
10363SOL    HW132986  11.068   6.706  10.137
10363SOL    HW232987  11.094   6.677  10.283
10364SOL     OW32988   7.990   4.088  10.062
10364SOL    HW132989   8.085   4.099  10.051
10364SOL    HW232990   7.969   4.010  10.010
10365SOL     OW32991  11.385   4.322   6.402
10365SOL    HW132992  11.422   4.237   6.380
10365SOL    HW232993  11.387   4.326   6.497
10366SOL     OW32994   2.405   3.624   1.623
10366SOL    HW132995   2.342   3.565   1.580
10366SOL    HW232996   2.362   3.709   1.621
10367SOL     OW32997   0.191   9.123  13.629
10367SOL    HW132998   0.128   9.052  13.626
10367SOL    HW232999   0.209   9.136  13.722
10368SOL     OW33000   3.201  14.019   7.139
10368SOL    HW133001   3.122  13.975   7.108
10368SOL    HW233002   3.219  14.086   7.072
10369SOL     OW33003  14.118  12.984   6.033
10369SOL    HW133004  14.083  13.013   6.117
10369SOL    HW233005  14.046  12.935   5.993
10370SOL     OW33006   2.537   6.821  11.538
10370SOL    HW133007   2.521   6.866  11.455
10370SOL    HW233008   2.482   6.866  11.601
10371SOL     OW33009   4.319   2.078   5.123
10371SOL    HW133010   4.231   2.042   5.126
10371SOL    HW233011   4.311   2.155   5.067
10372SOL     OW33012  12.428  10.502   5.072
10372SOL    HW133013  12.377  10.566   5.023
10372SOL    HW233014  12.437  10.540   5.159
10373SOL     OW33015   6.360  10.523   1.126
10373SOL    HW133016   6.374  10.604   1.175
10373SOL    HW233017   6.302  10.549   1.055
10374SOL     OW33018   4.356   3.349  13.050
10374SOL    HW133019   4.347   3.422  13.112
10374SOL    HW233020   4.341   3.271  13.102
10375SOL     OW33021   4.543   7.268   4.459
10375SOL    HW133022   4.499   7.286   4.375
10375SOL    HW233023   4.478   7.289   4.525
10376SOL     OW33024  13.850   7.178  14.497
10376SOL    HW133025  13.802   7.223  14.427
10376SOL    HW233026  13.907   7.246  14.533
10377SOL     OW33027   3.861   3.387   9.190
10377SOL    HW133028   3.846   3.338   9.109
10377SOL    HW233029   3.909   3.326   9.246
10378SOL     OW33030   6.444  11.999   7.235
10378SOL    HW133031   6.426  12.043   7.318
10378SOL    HW233032   6.432  11.906   7.255
10379SOL     OW33033  14.199  14.695   2.127
10379SOL    HW133034  14.284  14.739   2.139
10379SOL    HW233035  14.140  14.765   2.099
10380SOL     OW33036  12.597   7.043  11.385
10380SOL    HW133037  12.515   7.092  11.392
10380SOL    HW233038  12.662   7.107  11.356
10381SOL     OW33039   2.730   6.785   2.265
10381SOL    HW133040   2.659   6.815   2.209
10381SOL    HW233041   2.706   6.696   2.290
10382SOL     OW33042   8.053  14.232  11.920
10382SOL    HW133043   8.109  14.172  11.969
10382SOL    HW233044   7.981  14.251  11.981
10383SOL     OW33045   8.449  11.627   3.416
10383SOL    HW133046   8.401  11.701   3.454
10383SOL    HW233047   8.404  11.549   3.449
10384SOL     OW33048   5.685  13.720   5.337
10384SOL    HW133049   5.628  13.669   5.395
10384SOL    HW233050   5.637  13.725   5.255
10385SOL     OW33051   0.134   5.323   7.827
10385SOL    HW133052   0.226   5.349   7.825
10385SOL    HW233053   0.122   5.273   7.747
10386SOL     OW33054   3.693   2.948   9.138
10386SOL    HW133055   3.622   2.899   9.180
10386SOL    HW233056   3.650   3.025   9.100
10387SOL     OW33057   6.144   4.138   5.949
10387SOL    HW133058   6.148   4.051   5.988
10387SOL    HW233059   6.073   4.131   5.885
10388SOL     OW33060   5.162   7.084   1.707
10388SOL    HW133061   5.216   7.103   1.630
10388SOL    HW233062   5.193   6.998   1.737
10389SOL     OW33063   0.243  11.794   6.647
10389SOL    HW133064   0.227  11.739   6.571
10389SOL    HW233065   0.213  11.742   6.722
10390SOL     OW33066   3.374   4.028   7.679
10390SOL    HW133067   3.432   3.956   7.653
10390SOL    HW233068   3.426   4.107   7.667
10391SOL     OW33069   1.567  14.743   8.952
10391SOL    HW133070   1.497  14.805   8.931
10391SOL    HW233071   1.579  14.752   9.047
10392SOL     OW33072   4.352   0.604   9.945
10392SOL    HW133073   4.409   0.631   9.873
10392SOL    HW233074   4.289   0.544   9.905
10393SOL     OW33075  13.035   4.749   7.972
10393SOL    HW133076  13.005   4.839   7.989
10393SOL    HW233077  13.106   4.760   7.908
10394SOL     OW33078  13.610   0.669   0.153
10394SOL    HW133079  13.692   0.716   0.139
10394SOL    HW233080  13.630   0.605   0.221
10395SOL     OW33081   8.645   9.790  13.145
10395SOL    HW133082   8.627   9.848  13.071
10395SOL    HW233083   8.626   9.843  13.223
10396SOL     OW33084   2.490   0.886   8.566
10396SOL    HW133085   2.536   0.801   8.570
10396SOL    HW233086   2.444   0.884   8.482
10397SOL     OW33087  14.698  13.419   9.508
10397SOL    HW133088  14.608  13.397   9.530
10397SOL    HW233089  14.749  13.385   9.582
10398SOL     OW33090   5.002   1.475  11.690
10398SOL    HW133091   5.009   1.485  11.595
10398SOL    HW233092   5.010   1.381  11.705
10399SOL     OW33093   6.055   3.804   0.590
10399SOL    HW133094   6.037   3.711   0.602
10399SOL    HW233095   5.978   3.838   0.545
10400SOL     OW33096   0.577   4.072  13.189
10400SOL    HW133097   0.504   4.050  13.133
10400SOL    HW233098   0.632   3.994  13.189
10401SOL     OW33099   6.344  11.936  11.446
10401SOL    HW133100   6.366  12.026  11.419
10401SOL    HW233101   6.418  11.910  11.502
10402SOL     OW33102   8.270   3.896   8.290
10402SOL    HW133103   8.275   3.801   8.282
10402SOL    HW233104   8.176   3.915   8.284
10403SOL     OW33105   6.711  14.646   9.193
10403SOL    HW133106   6.696  14.612   9.105
10403SOL    HW233107   6.785  14.707   9.183
10404SOL     OW33108   6.512   6.191  12.018
10404SOL    HW133109   6.590   6.208  12.070
10404SOL    HW233110   6.453   6.144  12.077
10405SOL     OW33111   3.308   7.517   2.613
10405SOL    HW133112   3.401   7.513   2.590
10405SOL    HW233113   3.307   7.525   2.708
10406SOL     OW33114  13.856   9.732   3.777
10406SOL    HW133115  13.809   9.789   3.837
10406SOL    HW233116  13.787   9.681   3.733
10407SOL     OW33117   2.047   5.333   8.329
10407SOL    HW133118   2.142   5.340   8.343
10407SOL    HW233119   2.011   5.406   8.380
10408SOL     OW33120  14.121   9.772  10.433
10408SOL    HW133121  14.187   9.744  10.497
10408SOL    HW233122  14.104   9.863  10.454
10409SOL     OW33123   1.367   6.735  10.587
10409SOL    HW133124   1.415   6.752  10.506
10409SOL    HW233125   1.426   6.763  10.656
10410SOL     OW33126   9.352   7.333   1.713
10410SOL    HW133127   9.317   7.244   1.722
10410SOL    HW233128   9.447   7.322   1.724
10411SOL     OW33129  11.373   6.078   1.791
10411SOL    HW133130  11.293   6.121   1.760
10411SOL    HW233131  11.426   6.150   1.827
10412SOL     OW33132   0.833   3.937   4.226
10412SOL    HW133133   0.848   3.843   4.219
10412SOL    HW233134   0.861   3.973   4.142
10413SOL     OW33135   0.604   7.111  10.450
10413SOL    HW133136   0.574   7.193  10.489
10413SOL    HW233137   0.554   7.102  10.369
10414SOL     OW33138   0.064   6.317   6.041
10414SOL    HW133139   0.025   6.320   6.129
10414SOL    HW233140   0.135   6.253   6.049
10415SOL     OW33141   7.924  10.643   9.572
10415SOL    HW133142   7.994  10.586   9.538
10415SOL    HW233143   7.969  10.705   9.629
10416SOL     OW33144   7.654   4.165   3.471
10416SOL    HW133145   7.633   4.250   3.432
10416SOL    HW233146   7.568   4.128   3.494
10417SOL     OW33147   9.232  11.442   2.387
10417SOL    HW133148   9.186  11.509   2.437
10417SOL    HW233149   9.231  11.475   2.297
10418SOL     OW33150   0.075  10.872   3.490
10418SOL    HW133151   0.028  10.838   3.566
10418SOL    HW233152   0.016  10.938   3.453
10419SOL     OW33153   2.084   6.042  11.504
10419SOL    HW133154   2.005   6.077  11.464
10419SOL    HW233155   2.053   5.987  11.576
10420SOL     OW33156  12.440   5.339   4.924
10420SOL    HW133157  12.349   5.324   4.900
10420SOL    HW233158  12.476   5.388   4.849
10421SOL     OW33159   4.592   3.089  12.132
10421SOL    HW133160   4.609   2.997  12.110
10421SOL    HW233161   4.570   3.087  12.225
10422SOL     OW33162   7.312   2.036  10.328
10422SOL    HW133163   7.319   2.109  10.389
10422SOL    HW233164   7.238   2.057  10.272
10423SOL     OW33165  14.466   8.802  10.155
10423SOL    HW133166  14.560   8.798  10.173
10423SOL    HW233167  14.454   8.889  10.117
10424SOL     OW33168  12.574   3.855   4.987
10424SOL    HW133169  12.615   3.789   4.931
10424SOL    HW233170  12.544   3.922   4.926
10425SOL     OW33171  10.057   6.977   7.171
10425SOL    HW133172  10.103   6.895   7.154
10425SOL    HW233173  10.099   7.041   7.113
10426SOL     OW33174  13.222   5.169  14.419
10426SOL    HW133175  13.182   5.112  14.485
10426SOL    HW233176  13.286   5.112  14.375
10427SOL     OW33177   7.019  14.507   6.564
10427SOL    HW133178   7.095  14.477   6.514
10427SOL    HW233179   7.030  14.602   6.570
10428SOL     OW33180   1.459  12.207   8.849
10428SOL    HW133181   1.430  12.220   8.940
10428SOL    HW233182   1.514  12.129   8.853
10429SOL     OW33183  12.538  13.027   9.207
10429SOL    HW133184  12.481  13.062   9.276
10429SOL    HW233185  12.589  13.103   9.179
10430SOL     OW33186   9.133   4.753   5.847
10430SOL    HW133187   9.142   4.828   5.788
10430SOL    HW233188   9.084   4.787   5.921
10431SOL     OW33189   0.636   5.551   6.658
10431SOL    HW133190   0.715   5.513   6.619
10431SOL    HW233191   0.578   5.568   6.583
10432SOL     OW33192   8.595  10.891   3.768
10432SOL    HW133193   8.683  10.867   3.738
10432SOL    HW233194   8.570  10.964   3.712
10433SOL     OW33195   2.827   3.023   2.319
10433SOL    HW133196   2.836   3.040   2.226
10433SOL    HW233197   2.913   3.046   2.356
10434SOL     OW33198   7.683  11.068   6.063
10434SOL    HW133199   7.647  11.117   5.988
10434SOL    HW233200   7.775  11.058   6.042
10435SOL     OW33201   3.616   9.138   6.005
10435SOL    HW133202   3.579   9.134   6.094
10435SOL    HW233203   3.710   9.142   6.019
10436SOL     OW33204  14.063  11.624   1.658
10436SOL    HW133205  14.030  11.651   1.744
10436SOL    HW233206  13.988  11.635   1.599
10437SOL     OW33207  14.468   7.980  13.093
10437SOL    HW133208  14.383   7.936  13.101
10437SOL    HW233209  14.447   8.071  13.076
10438SOL     OW33210   1.041   8.745  10.724
10438SOL    HW133211   1.136   8.747  10.733
10438SOL    HW233212   1.022   8.664  10.677
10439SOL     OW33213   1.294   4.440   0.765
10439SOL    HW133214   1.292   4.462   0.672
10439SOL    HW233215   1.208   4.400   0.782
10440SOL     OW33216   8.481   1.793  11.967
10440SOL    HW133217   8.559   1.801  12.022
10440SOL    HW233218   8.509   1.822  11.881
10441SOL     OW33219   6.455   9.422   3.128
10441SOL    HW133220   6.473   9.450   3.217
10441SOL    HW233221   6.361   9.408   3.126
10442SOL     OW33222   9.407  12.186   5.993
10442SOL    HW133223   9.480  12.145   6.040
10442SOL    HW233224   9.337  12.121   5.996
10443SOL     OW33225   3.716   6.449   7.250
10443SOL    HW133226   3.688   6.522   7.305
10443SOL    HW233227   3.811   6.454   7.251
10444SOL     OW33228  11.921  12.566  11.923
10444SOL    HW133229  11.955  12.597  11.839
10444SOL    HW233230  11.827  12.585  11.919
10445SOL     OW33231  12.703   0.883  10.020
10445SOL    HW133232  12.673   0.792  10.019
10445SOL    HW233233  12.663   0.922   9.942
10446SOL     OW33234   6.258  11.122  13.017
10446SOL    HW133235   6.204  11.199  13.031
10446SOL    HW233236   6.200  11.060  12.972
10447SOL     OW33237   8.242   5.390  10.971
10447SOL    HW133238   8.329   5.428  10.961
10447SOL    HW233239   8.187   5.437  10.908
10448SOL     OW33240   0.509   8.273   4.468
10448SOL    HW133241   0.602   8.289   4.449
10448SOL    HW233242   0.507   8.250   4.561
10449SOL     OW33243   1.179   6.293   5.536
10449SOL    HW133244   1.142   6.331   5.615
10449SOL    HW233245   1.127   6.215   5.519
10450SOL     OW33246  10.523   7.647   0.525
10450SOL    HW133247  10.539   7.685   0.438
10450SOL    HW233248  10.494   7.558   0.507
10451SOL     OW33249   0.823  13.999  13.023
10451SOL    HW133250   0.835  13.909  12.994
10451SOL    HW233251   0.793  14.045  12.944
10452SOL     OW33252   9.427   1.558   9.906
10452SOL    HW133253   9.488   1.505   9.957
10452SOL    HW233254   9.454   1.648   9.924
10453SOL     OW33255   4.735   7.225  14.778
10453SOL    HW133256   4.696   7.260  14.858
10453SOL    HW233257   4.741   7.301  14.720
10454SOL     OW33258   0.020   2.219   1.729
10454SOL    HW133259   0.100   2.269   1.715
10454SOL    HW233260   0.025   2.149   1.664
10455SOL     OW33261  13.389   7.549   5.535
10455SOL    HW133262  13.421   7.485   5.471
10455SOL    HW233263  13.408   7.510   5.620
10456SOL     OW33264  14.669   6.107  14.541
10456SOL    HW133265  14.719   6.183  14.571
10456SOL    HW233266  14.682   6.104  14.447
10457SOL     OW33267  11.902   8.855  13.877
10457SOL    HW133268  11.885   8.812  13.961
10457SOL    HW233269  11.968   8.801  13.835
10458SOL     OW33270  10.053  12.455   7.494
10458SOL    HW133271   9.995  12.518   7.536
10458SOL    HW233272  10.128  12.507   7.466
10459SOL     OW33273   1.603   6.716   1.706
10459SOL    HW133274   1.579   6.650   1.641
10459SOL    HW233275   1.539   6.786   1.693
10460SOL     OW33276   1.231   9.662   3.760
10460SOL    HW133277   1.324   9.687   3.766
10460SOL    HW233278   1.222   9.587   3.819
10461SOL     OW33279   5.900   1.041  12.088
10461SOL    HW133280   5.942   0.961  12.120
10461SOL    HW233281   5.951   1.112  12.126
10462SOL     OW33282  11.683   2.022   3.918
10462SOL    HW133283  11.601   1.979   3.942
10462SOL    HW233284  11.744   1.949   3.904
10463SOL     OW33285   6.559  12.525   1.155
10463SOL    HW133286   6.497  12.518   1.228
10463SOL    HW233287   6.567  12.619   1.139
10464SOL     OW33288   6.079   1.970  13.634
10464SOL    HW133289   6.097   1.877  13.620
10464SOL    HW233290   6.037   1.974  13.720
10465SOL     OW33291  13.394  10.215   8.519
10465SOL    HW133292  13.398  10.125   8.552
10465SOL    HW233293  13.480  10.252   8.540
10466SOL     OW33294  10.226  12.371   9.447
10466SOL    HW133295  10.174  12.291   9.452
10466SOL    HW233296  10.224  12.394   9.354
10467SOL     OW33297   3.702   3.746  13.826
10467SOL    HW133298   3.694   3.710  13.738
10467SOL    HW233299   3.711   3.841  13.812
10468SOL     OW33300  10.582   0.719   8.854
10468SOL    HW133301  10.611   0.751   8.939
10468SOL    HW233302  10.494   0.756   8.843
10469SOL     OW33303   0.298   2.506   2.646
10469SOL    HW133304   0.357   2.580   2.633
10469SOL    HW233305   0.225   2.543   2.696
10470SOL     OW33306   5.512  11.233   4.008
10470SOL    HW133307   5.466  11.164   3.960
10470SOL    HW233308   5.471  11.233   4.095
10471SOL     OW33309  10.507   1.869   4.372
10471SOL    HW133310  10.506   1.855   4.467
10471SOL    HW233311  10.442   1.938   4.358
10472SOL     OW33312   5.412  13.717  12.667
10472SOL    HW133313   5.464  13.659  12.613
10472SOL    HW233314   5.345  13.661  12.705
10473SOL     OW33315   6.519   2.609   0.343
10473SOL    HW133316   6.489   2.637   0.430
10473SOL    HW233317   6.531   2.514   0.352
10474SOL     OW33318   3.135   0.971   8.888
10474SOL    HW133319   3.144   1.051   8.938
10474SOL    HW233320   3.219   0.926   8.898
10475SOL     OW33321   1.615   6.895   7.188
10475SOL    HW133322   1.707   6.918   7.176
10475SOL    HW233323   1.594   6.836   7.116
10476SOL     OW33324  13.817  10.111   6.384
10476SOL    HW133325  13.775  10.170   6.447
10476SOL    HW233326  13.854  10.170   6.318
10477SOL     OW33327   2.322   7.545   2.899
10477SOL    HW133328   2.378   7.622   2.911
10477SOL    HW233329   2.368   7.475   2.945
10478SOL     OW33330  11.211  10.661  12.646
10478SOL    HW133331  11.172  10.577  12.620
10478SOL    HW233332  11.217  10.711  12.565
10479SOL     OW33333  11.923   6.947   1.075
10479SOL    HW133334  11.876   6.880   1.026
10479SOL    HW233335  12.012   6.912   1.085
10480SOL     OW33336  13.496  10.996   4.761
10480SOL    HW133337  13.499  10.907   4.726
10480SOL    HW233338  13.473  10.985   4.853
10481SOL     OW33339   4.197   9.886  10.336
10481SOL    HW133340   4.291   9.872  10.347
10481SOL    HW233341   4.190   9.950  10.264
10482SOL     OW33342  11.150   2.685   2.794
10482SOL    HW133343  11.208   2.654   2.725
10482SOL    HW233344  11.207   2.702   2.869
10483SOL     OW33345   3.410   0.419  14.712
10483SOL    HW133346   3.328   0.452  14.749
10483SOL    HW233347   3.441   0.490  14.656
10484SOL     OW33348  10.483   7.991  11.026
10484SOL    HW133349  10.469   7.897  11.024
10484SOL    HW233350  10.509   8.010  11.116
10485SOL     OW33351  14.454   7.155  11.695
10485SOL    HW133352  14.405   7.174  11.615
10485SOL    HW233353  14.403   7.085  11.737
10486SOL     OW33354   3.404   3.347   2.856
10486SOL    HW133355   3.362   3.433   2.861
10486SOL    HW233356   3.403   3.315   2.946
10487SOL     OW33357  14.856  12.224   5.640
10487SOL    HW133358   0.053  12.190   5.701
10487SOL    HW233359   0.037  12.241   5.560
10488SOL     OW33360   0.545  10.318   1.774
10488SOL    HW133361   0.634  10.284   1.773
10488SOL    HW233362   0.546  10.389   1.710
10489SOL     OW33363   7.841   1.496   6.617
10489SOL    HW133364   7.778   1.557   6.656
10489SOL    HW233365   7.802   1.409   6.630
10490SOL     OW33366   7.908   2.999   6.295
10490SOL    HW133367   7.968   2.942   6.246
10490SOL    HW233368   7.821   2.963   6.278
10491SOL     OW33369   2.080   8.262   7.289
10491SOL    HW133370   2.075   8.352   7.258
10491SOL    HW233371   2.062   8.209   7.211
10492SOL     OW33372   3.769   7.505   0.660
10492SOL    HW133373   3.730   7.573   0.605
10492SOL    HW233374   3.796   7.437   0.597
10493SOL     OW33375  14.288   3.478  14.653
10493SOL    HW133376  14.305   3.430  14.733
10493SOL    HW233377  14.312   3.418  14.582
10494SOL     OW33378   0.421   8.485  13.791
10494SOL    HW133379   0.352   8.501  13.854
10494SOL    HW233380   0.446   8.394  13.805
10495SOL     OW33381   0.377  12.077   7.646
10495SOL    HW133382   0.291  12.088   7.605
10495SOL    HW233383   0.363  12.007   7.711
10496SOL     OW33384   2.703  13.433   5.351
10496SOL    HW133385   2.697  13.347   5.392
10496SOL    HW233386   2.764  13.482   5.406
10497SOL     OW33387  11.563   0.786  12.056
10497SOL    HW133388  11.572   0.690  12.056
10497SOL    HW233389  11.653   0.818  12.056
10498SOL     OW33390  11.223   1.656  10.640
10498SOL    HW133391  11.262   1.730  10.687
10498SOL    HW233392  11.143   1.636  10.690
10499SOL     OW33393   0.876  10.244   0.858
10499SOL    HW133394   0.786  10.274   0.876
10499SOL    HW233395   0.907  10.212   0.943
10500SOL     OW33396  10.059   8.345   7.223
10500SOL    HW133397  10.038   8.287   7.296
10500SOL    HW233398  10.148   8.374   7.240
10501SOL     OW33399  11.639   4.026   0.123
10501SOL    HW133400  11.647   4.116   0.156
10501SOL    HW233401  11.681   3.972   0.190
10502SOL     OW33402   8.027   6.355   6.000
10502SOL    HW133403   7.967   6.426   5.979
10502SOL    HW233404   7.981   6.305   6.068
10503SOL     OW33405   5.794   9.917   8.771
10503SOL    HW133406   5.850   9.840   8.770
10503SOL    HW233407   5.825   9.968   8.847
10504SOL     OW33408   9.202   5.128   4.027
10504SOL    HW133409   9.276   5.168   3.981
10504SOL    HW233410   9.229   5.126   4.118
10505SOL     OW33411   3.152   7.014   8.592
10505SOL    HW133412   3.088   7.016   8.520
10505SOL    HW233413   3.117   7.072   8.658
10506SOL     OW33414   7.636   0.295  12.522
10506SOL    HW133415   7.685   0.348  12.584
10506SOL    HW233416   7.544   0.311  12.544
10507SOL     OW33417  14.697   5.865  13.980
10507SOL    HW133418  14.724   5.947  13.938
10507SOL    HW233419  14.651   5.817  13.911
10508SOL     OW33420   3.017   8.630   0.309
10508SOL    HW133421   2.936   8.677   0.286
10508SOL    HW233422   2.998   8.589   0.393
10509SOL     OW33423  11.579   0.532   1.780
10509SOL    HW133424  11.582   0.519   1.874
10509SOL    HW233425  11.559   0.445   1.744
10510SOL     OW33426   4.701   3.890  11.009
10510SOL    HW133427   4.608   3.870  11.016
10510SOL    HW233428   4.707   3.957  10.941
10511SOL     OW33429   4.188   0.574   6.058
10511SOL    HW133430   4.179   0.481   6.079
10511SOL    HW233431   4.160   0.581   5.967
10512SOL     OW33432  11.060   6.540   7.920
10512SOL    HW133433  10.997   6.564   7.989
10512SOL    HW233434  11.145   6.554   7.961
10513SOL     OW33435  10.901   5.271  13.550
10513SOL    HW133436  10.985   5.298  13.587
10513SOL    HW233437  10.924   5.212  13.478
10514SOL     OW33438   5.143  12.079  13.652
10514SOL    HW133439   5.124  12.082  13.558
10514SOL    HW233440   5.091  12.006  13.685
10515SOL     OW33441   0.611   7.544   2.452
10515SOL    HW133442   0.696   7.509   2.424
10515SOL    HW233443   0.620   7.556   2.546
10516SOL     OW33444  14.544   4.651   7.445
10516SOL    HW133445  14.529   4.588   7.515
10516SOL    HW233446  14.461   4.657   7.399
10517SOL     OW33447  11.290  13.585   7.031
10517SOL    HW133448  11.196  13.585   7.050
10517SOL    HW233449  11.310  13.676   7.010
10518SOL     OW33450   7.491  11.911   4.709
10518SOL    HW133451   7.472  12.001   4.682
10518SOL    HW233452   7.499  11.862   4.627
10519SOL     OW33453   8.098   7.300   3.578
10519SOL    HW133454   8.151   7.287   3.500
10519SOL    HW233455   8.028   7.235   3.571
10520SOL     OW33456   2.590   2.891  12.013
10520SOL    HW133457   2.676   2.885  11.972
10520SOL    HW233458   2.573   2.802  12.046
10521SOL     OW33459   7.415  10.550  11.001
10521SOL    HW133460   7.386  10.515  11.085
10521SOL    HW233461   7.336  10.590  10.963
10522SOL     OW33462   2.811   5.923   5.618
10522SOL    HW133463   2.892   5.947   5.573
10522SOL    HW233464   2.750   5.994   5.597
10523SOL     OW33465   9.165   8.728   5.654
10523SOL    HW133466   9.080   8.683   5.656
10523SOL    HW233467   9.163   8.787   5.729
10524SOL     OW33468   7.557   0.757   4.729
10524SOL    HW133469   7.586   0.843   4.761
10524SOL    HW233470   7.583   0.696   4.797
10525SOL     OW33471  12.355   2.702  10.330
10525SOL    HW133472  12.318   2.775  10.380
10525SOL    HW233473  12.432   2.675  10.380
10526SOL     OW33474  10.456  11.185  11.099
10526SOL    HW133475  10.438  11.091  11.105
10526SOL    HW233476  10.436  11.218  11.187
10527SOL     OW33477  13.899   9.434   7.550
10527SOL    HW133478  13.925   9.358   7.601
10527SOL    HW233479  13.838   9.481   7.607
10528SOL     OW33480   8.948  12.977   5.374
10528SOL    HW133481   8.864  12.956   5.415
10528SOL    HW233482   8.929  13.050   5.315
10529SOL     OW33483   3.770   8.966   7.932
10529SOL    HW133484   3.743   8.916   8.009
10529SOL    HW233485   3.840   8.913   7.893
10530SOL     OW33486   0.802   1.846   2.364
10530SOL    HW133487   0.719   1.811   2.396
10530SOL    HW233488   0.778   1.922   2.312
10531SOL     OW33489  12.189   1.621   9.779
10531SOL    HW133490  12.203   1.684   9.850
10531SOL    HW233491  12.187   1.535   9.823
10532SOL     OW33492  13.685  12.769  12.923
10532SOL    HW133493  13.607  12.823  12.935
10532SOL    HW233494  13.746  12.825  12.875
10533SOL     OW33495  10.493  11.430   3.199
10533SOL    HW133496  10.471  11.381   3.278
10533SOL    HW233497  10.569  11.384   3.163
10534SOL     OW33498   4.088   9.076  10.240
10534SOL    HW133499   4.093   9.148  10.302
10534SOL    HW233500   3.996   9.048  10.242
10535SOL     OW33501   8.991   2.150  13.085
10535SOL    HW133502   9.040   2.105  13.154
10535SOL    HW233503   9.003   2.243  13.103
10536SOL     OW33504   2.663  10.247   2.738
10536SOL    HW133505   2.723  10.319   2.758
10536SOL    HW233506   2.576  10.283   2.754
10537SOL     OW33507   6.955   9.190   9.912
10537SOL    HW133508   7.035   9.173   9.961
10537SOL    HW233509   6.917   9.104   9.896
10538SOL     OW33510  11.506   4.303   4.650
10538SOL    HW133511  11.485   4.215   4.620
10538SOL    HW233512  11.451   4.361   4.597
10539SOL     OW33513   5.304   9.715   6.078
10539SOL    HW133514   5.274   9.806   6.080
10539SOL    HW233515   5.347   9.705   5.994
10540SOL     OW33516  12.346  10.994   2.600
10540SOL    HW133517  12.425  11.023   2.555
10540SOL    HW233518  12.274  11.031   2.549
10541SOL     OW33519   0.983  12.639  10.758
10541SOL    HW133520   1.073  12.622  10.733
10541SOL    HW233521   0.938  12.660  10.676
10542SOL     OW33522   0.779   0.898   3.891
10542SOL    HW133523   0.688   0.907   3.920
10542SOL    HW233524   0.786   0.807   3.864
10543SOL     OW33525   5.684   5.056   0.150
10543SOL    HW133526   5.713   5.039   0.060
10543SOL    HW233527   5.621   5.128   0.141
10544SOL     OW33528  14.721   7.222   1.563
10544SOL    HW133529  14.793   7.163   1.582
10544SOL    HW233530  14.719   7.283   1.637
10545SOL     OW33531  12.476  13.717  11.345
10545SOL    HW133532  12.505  13.628  11.325
10545SOL    HW233533  12.446  13.713  11.436
10546SOL     OW33534  12.595   4.740   8.995
10546SOL    HW133535  12.682   4.700   8.998
10546SOL    HW233536  12.611   4.833   9.012
10547SOL     OW33537  10.785  10.489   5.240
10547SOL    HW133538  10.869  10.454   5.270
10547SOL    HW233539  10.719  10.440   5.290
10548SOL     OW33540   0.558  10.965  11.722
10548SOL    HW133541   0.553  10.870  11.720
10548SOL    HW233542   0.572  10.991  11.631
10549SOL     OW33543   9.221  13.103   9.868
10549SOL    HW133544   9.289  13.170   9.865
10549SOL    HW233545   9.268  13.020   9.863
10550SOL     OW33546   3.738   7.812   1.989
10550SOL    HW133547   3.746   7.821   1.894
10550SOL    HW233548   3.669   7.746   2.000
10551SOL     OW33549   7.118   9.632  11.732
10551SOL    HW133550   7.122   9.542  11.765
10551SOL    HW233551   7.206   9.667  11.747
10552SOL     OW33552   0.738  12.085  13.677
10552SOL    HW133553   0.732  12.060  13.770
10552SOL    HW233554   0.827  12.061  13.652
10553SOL     OW33555   3.256   1.123   2.916
10553SOL    HW133556   3.274   1.144   3.008
10553SOL    HW233557   3.288   1.034   2.904
10554SOL     OW33558   3.276  14.493  10.655
10554SOL    HW133559   3.199  14.441  10.675
10554SOL    HW233560   3.305  14.460  10.569
10555SOL     OW33561  12.950   7.123   0.840
10555SOL    HW133562  12.948   7.070   0.920
10555SOL    HW233563  12.950   7.059   0.769
10556SOL     OW33564   7.743   7.474  10.003
10556SOL    HW133565   7.837   7.482   9.986
10556SOL    HW233566   7.709   7.425   9.928
10557SOL     OW33567   2.874   2.508   2.215
10557SOL    HW133568   2.863   2.414   2.230
10557SOL    HW233569   2.957   2.530   2.257
10558SOL     OW33570  13.550   8.995  12.551
10558SOL    HW133571  13.560   9.086  12.578
10558SOL    HW233572  13.628   8.951  12.585
10559SOL     OW33573   7.087  13.480   8.935
10559SOL    HW133574   7.114  13.556   8.882
10559SOL    HW233575   7.170  13.445   8.969
10560SOL     OW33576   3.872   6.740  12.018
10560SOL    HW133577   3.816   6.802  12.065
10560SOL    HW233578   3.827   6.727  11.935
10561SOL     OW33579  14.152  14.176   2.094
10561SOL    HW133580  14.209  14.242   2.134
10561SOL    HW233581  14.095  14.149   2.165
10562SOL     OW33582   0.544   4.388  12.228
10562SOL    HW133583   0.496   4.306  12.239
10562SOL    HW233584   0.505   4.448  12.291
10563SOL     OW33585   4.529   6.096   8.957
10563SOL    HW133586   4.575   6.083   8.874
10563SOL    HW233587   4.591   6.144   9.011
10564SOL     OW33588   5.720  13.262  14.207
10564SOL    HW133589   5.811  13.287  14.226
10564SOL    HW233590   5.669  13.340  14.227
10565SOL     OW33591  12.066   6.725  11.562
10565SOL    HW133592  12.090   6.637  11.592
10565SOL    HW233593  11.974   6.734  11.588
10566SOL     OW33594   6.537   2.646   7.492
10566SOL    HW133595   6.499   2.672   7.576
10566SOL    HW233596   6.500   2.709   7.429
10567SOL     OW33597  10.849   0.978   4.950
10567SOL    HW133598  10.931   0.931   4.937
10567SOL    HW233599  10.847   0.999   5.043
10568SOL     OW33600  13.179   4.309  13.502
10568SOL    HW133601  13.191   4.404  13.512
10568SOL    HW233602  13.095   4.300  13.458
10569SOL     OW33603   1.496   7.065   7.819
10569SOL    HW133604   1.406   7.080   7.847
10569SOL    HW233605   1.490   7.053   7.724
10570SOL     OW33606   4.538   1.011  10.099
10570SOL    HW133607   4.572   1.081  10.043
10570SOL    HW233608   4.452   0.991  10.061
10571SOL     OW33609   9.816   3.902   0.097
10571SOL    HW133610   9.749   3.939   0.154
10571SOL    HW233611   9.893   3.892   0.153
10572SOL     OW33612   3.750  14.384   7.118
10572SOL    HW133613   3.764  14.442   7.043
10572SOL    HW233614   3.705  14.308   7.080
10573SOL     OW33615   3.510   6.500  10.711
10573SOL    HW133616   3.604   6.521  10.708
10573SOL    HW233617   3.508   6.404  10.714
10574SOL     OW33618  14.174   0.123  13.588
10574SOL    HW133619  14.164   0.059  13.658
10574SOL    HW233620  14.113   0.192  13.610
10575SOL     OW33621   6.469   7.905  13.939
10575SOL    HW133622   6.409   7.886  14.011
10575SOL    HW233623   6.478   7.823  13.892
10576SOL     OW33624  13.359   3.731   4.419
10576SOL    HW133625  13.305   3.655   4.442
10576SOL    HW233626  13.449   3.701   4.430
10577SOL     OW33627   0.310   9.749   2.453
10577SOL    HW133628   0.392   9.729   2.498
10577SOL    HW233629   0.280   9.830   2.494
10578SOL     OW33630   3.085   9.771   2.045
10578SOL    HW133631   3.142   9.738   1.976
10578SOL    HW233632   3.055   9.692   2.091
10579SOL     OW33633   1.120  10.665  12.742
10579SOL    HW133634   1.204  10.630  12.773
10579SOL    HW233635   1.059  10.649  12.814
10580SOL     OW33636   9.984  11.017   8.301
10580SOL    HW133637   9.918  10.949   8.284
10580SOL    HW233638   9.945  11.097   8.265
10581SOL     OW33639   4.802  10.469   9.232
10581SOL    HW133640   4.841  10.428   9.155
10581SOL    HW233641   4.791  10.397   9.294
10582SOL     OW33642  14.687   7.238   8.691
10582SOL    HW133643  14.592   7.248   8.693
10582SOL    HW233644  14.706   7.209   8.601
10583SOL     OW33645   9.736   2.164  14.826
10583SOL    HW133646   9.675   2.231  14.855
10583SOL    HW233647   9.727   2.164  14.731
10584SOL     OW33648   8.968  14.318  10.834
10584SOL    HW133649   8.984  14.226  10.855
10584SOL    HW233650   8.934  14.357  10.914
10585SOL     OW33651   1.690  14.233   5.930
10585SOL    HW133652   1.769  14.258   5.977
10585SOL    HW233653   1.709  14.255   5.839
10586SOL     OW33654   6.511   0.476  11.616
10586SOL    HW133655   6.539   0.493  11.526
10586SOL    HW233656   6.566   0.534  11.669
10587SOL     OW33657  13.311   3.750   2.233
10587SOL    HW133658  13.294   3.728   2.141
10587SOL    HW233659  13.226   3.743   2.276
10588SOL     OW33660  11.899   0.476   9.137
10588SOL    HW133661  11.994   0.473   9.148
10588SOL    HW233662  11.873   0.563   9.170
10589SOL     OW33663  11.380   2.553  10.892
10589SOL    HW133664  11.296   2.598  10.887
10589SOL    HW233665  11.376   2.502  10.973
10590SOL     OW33666  14.172   4.716   3.638
10590SOL    HW133667  14.202   4.682   3.553
10590SOL    HW233668  14.194   4.809   3.635
10591SOL     OW33669  10.333   0.072   6.100
10591SOL    HW133670  10.398   0.142   6.091
10591SOL    HW233671  10.250   0.112   6.073
10592SOL     OW33672   9.762  11.486   6.785
10592SOL    HW133673   9.838  11.463   6.731
10592SOL    HW233674   9.700  11.526   6.724
10593SOL     OW33675   2.783   6.001   5.322
10593SOL    HW133676   2.870   6.002   5.361
10593SOL    HW233677   2.799   5.977   5.230
10594SOL     OW33678   6.541  13.498  14.841
10594SOL    HW133679   6.461  13.501  14.788
10594SOL    HW233680   6.601  13.443  14.792
10595SOL     OW33681   4.554   4.294   2.083
10595SOL    HW133682   4.640   4.281   2.122
10595SOL    HW233683   4.570   4.293   1.988
10596SOL     OW33684   5.532   9.686   6.666
10596SOL    HW133685   5.477   9.655   6.738
10596SOL    HW233686   5.592   9.748   6.708
10597SOL     OW33687  14.562   6.921   2.070
10597SOL    HW133688  14.569   6.931   2.165
10597SOL    HW233689  14.626   6.982   2.034
10598SOL     OW33690  13.979   1.132   4.961
10598SOL    HW133691  13.909   1.189   4.931
10598SOL    HW233692  13.994   1.071   4.888
10599SOL     OW33693   3.051  11.386   8.788
10599SOL    HW133694   2.991  11.384   8.714
10599SOL    HW233695   3.015  11.322   8.850
10600SOL     OW33696   5.914   3.144   4.298
10600SOL    HW133697   5.874   3.130   4.383
10600SOL    HW233698   5.863   3.214   4.258
10601SOL     OW33699   4.486  13.846  12.354
10601SOL    HW133700   4.531  13.914  12.305
10601SOL    HW233701   4.470  13.884  12.441
10602SOL     OW33702   6.192  13.701   2.480
10602SOL    HW133703   6.125  13.763   2.451
10602SOL    HW233704   6.193  13.709   2.575
10603SOL     OW33705   7.140   2.974   5.089
10603SOL    HW133706   7.168   2.897   5.138
10603SOL    HW233707   7.114   2.940   5.003
10604SOL     OW33708   0.133   2.459   9.910
10604SOL    HW133709   0.124   2.392   9.978
10604SOL    HW233710   0.117   2.541   9.955
10605SOL     OW33711   9.230   7.506   0.320
10605SOL    HW133712   9.160   7.479   0.261
10605SOL    HW233713   9.251   7.427   0.371
10606SOL     OW33714   3.111   8.960  14.835
10606SOL    HW133715   3.202   8.933  14.821
10606SOL    HW233716   3.060   8.884  14.806
10607SOL     OW33717  11.935   4.992   3.529
10607SOL    HW133718  11.860   4.989   3.588
10607SOL    HW233719  11.941   4.903   3.494
10608SOL     OW33720   9.710   7.690  11.215
10608SOL    HW133721   9.781   7.752  11.230
10608SOL    HW233722   9.744   7.607  11.248
10609SOL     OW33723  13.283  11.364   7.111
10609SOL    HW133724  13.215  11.320   7.163
10609SOL    HW233725  13.296  11.307   7.035
10610SOL     OW33726  12.792   7.525   9.072
10610SOL    HW133727  12.713   7.478   9.100
10610SOL    HW233728  12.857   7.456   9.060
10611SOL     OW33729   7.916  14.717  10.023
10611SOL    HW133730   7.834  14.677   9.994
10611SOL    HW233731   7.900  14.811  10.016
10612SOL     OW33732  14.519   1.489  11.513
10612SOL    HW133733  14.511   1.419  11.448
10612SOL    HW233734  14.490   1.449  11.595
10613SOL     OW33735  13.646  11.456  13.434
10613SOL    HW133736  13.643  11.390  13.364
10613SOL    HW233737  13.710  11.520  13.403
10614SOL     OW33738   2.196   2.473   7.472
10614SOL    HW133739   2.176   2.381   7.489
10614SOL    HW233740   2.153   2.520   7.543
10615SOL     OW33741   2.578   2.930   3.701
10615SOL    HW133742   2.559   3.024   3.693
10615SOL    HW233743   2.514   2.898   3.764
10616SOL     OW33744   3.545   4.218   7.629
10616SOL    HW133745   3.625   4.167   7.629
10616SOL    HW233746   3.573   4.308   7.612
10617SOL     OW33747  14.653   7.012   4.189
10617SOL    HW133748  14.722   6.952   4.217
10617SOL    HW233749  14.573   6.979   4.230
10618SOL     OW33750  11.238   8.494   3.572
10618SOL    HW133751  11.211   8.425   3.633
10618SOL    HW233752  11.226   8.575   3.621
10619SOL     OW33753   3.552   8.154  10.852
10619SOL    HW133754   3.574   8.204  10.930
10619SOL    HW233755   3.529   8.067  10.884
10620SOL     OW33756  13.333  12.952   7.563
10620SOL    HW133757  13.256  12.980   7.613
10620SOL    HW233758  13.298  12.922   7.480
10621SOL     OW33759  10.056   5.226   5.145
10621SOL    HW133760  10.132   5.238   5.202
10621SOL    HW233761  10.065   5.137   5.111
10622SOL     OW33762   8.247   7.312  12.506
10622SOL    HW133763   8.316   7.374  12.528
10622SOL    HW233764   8.290   7.247  12.451
10623SOL     OW33765   8.753   0.155  13.523
10623SOL    HW133766   8.776   0.246  13.540
10623SOL    HW233767   8.773   0.109  13.605
10624SOL     OW33768   2.466  10.707   8.544
10624SOL    HW133769   2.437  10.795   8.568
10624SOL    HW233770   2.444  10.699   8.451
10625SOL     OW33771   0.784   6.799   0.590
10625SOL    HW133772   0.832   6.787   0.508
10625SOL    HW233773   0.803   6.720   0.641
10626SOL     OW33774   8.028   2.268  12.744
10626SOL    HW133775   7.999   2.177  12.744
10626SOL    HW233776   7.973   2.311  12.680
10627SOL     OW33777   9.840   6.522  14.231
10627SOL    HW133778   9.761   6.485  14.270
10627SOL    HW233779   9.833   6.499  14.138
10628SOL     OW33780  14.550  13.675   6.601
10628SOL    HW133781  14.535  13.687   6.694
10628SOL    HW233782  14.464  13.653   6.566
10629SOL     OW33783  14.755  13.217  11.956
10629SOL    HW133784  14.723  13.161  12.026
10629SOL    HW233785  14.696  13.293  11.957
10630SOL     OW33786   4.078   4.553   5.328
10630SOL    HW133787   4.031   4.470   5.330
10630SOL    HW233788   4.010   4.619   5.344
10631SOL     OW33789   7.259  13.106   8.605
10631SOL    HW133790   7.253  13.011   8.619
10631SOL    HW233791   7.349  13.120   8.577
10632SOL     OW33792   4.789   2.579   7.528
10632SOL    HW133793   4.783   2.531   7.610
10632SOL    HW233794   4.699   2.610   7.512
10633SOL     OW33795   3.426  14.406   1.107
10633SOL    HW133796   3.339  14.425   1.072
10633SOL    HW233797   3.477  14.484   1.087
10634SOL     OW33798   4.400   7.280   4.225
10634SOL    HW133799   4.462   7.306   4.158
10634SOL    HW233800   4.341   7.219   4.182
10635SOL     OW33801   6.499   3.544  14.319
10635SOL    HW133802   6.584   3.532  14.362
10635SOL    HW233803   6.522   3.571  14.229
10636SOL     OW33804  13.851   4.881   4.835
10636SOL    HW133805  13.765   4.922   4.843
10636SOL    HW233806  13.913   4.947   4.869
10637SOL     OW33807   5.712   2.376   5.880
10637SOL    HW133808   5.734   2.287   5.908
10637SOL    HW233809   5.744   2.382   5.790
10638SOL     OW33810   2.944  10.948   2.282
10638SOL    HW133811   2.859  10.952   2.325
10638SOL    HW233812   2.965  10.855   2.278
10639SOL     OW33813  13.781   6.919   0.595
10639SOL    HW133814  13.833   6.914   0.676
10639SOL    HW233815  13.697   6.879   0.618
10640SOL     OW33816   0.692   8.774   6.620
10640SOL    HW133817   0.759   8.719   6.579
10640SOL    HW233818   0.740   8.845   6.662
10641SOL     OW33819   1.787   0.589   7.909
10641SOL    HW133820   1.753   0.528   7.976
10641SOL    HW233821   1.878   0.564   7.897
10642SOL     OW33822   2.201   0.630   8.243
10642SOL    HW133823   2.192   0.541   8.275
10642SOL    HW233824   2.291   0.635   8.211
10643SOL     OW33825   7.449   1.878   5.575
10643SOL    HW133826   7.403   1.902   5.495
10643SOL    HW233827   7.477   1.787   5.561
10644SOL     OW33828   9.889   1.090   6.575
10644SOL    HW133829   9.818   1.153   6.572
10644SOL    HW233830   9.874   1.033   6.499
10645SOL     OW33831   0.485  13.671   3.484
10645SOL    HW133832   0.515  13.749   3.439
10645SOL    HW233833   0.390  13.673   3.475
10646SOL     OW33834  10.803   5.850  12.985
10646SOL    HW133835  10.765   5.926  13.030
10646SOL    HW233836  10.893   5.874  12.968
10647SOL     OW33837  13.593  13.657   8.864
10647SOL    HW133838  13.583  13.726   8.929
10647SOL    HW233839  13.532  13.589   8.891
10648SOL     OW33840  13.755   9.019   7.352
10648SOL    HW133841  13.694   8.989   7.285
10648SOL    HW233842  13.842   9.001   7.316
10649SOL     OW33843   8.995   3.236   5.493
10649SOL    HW133844   9.001   3.192   5.577
10649SOL    HW233845   9.066   3.300   5.494
10650SOL     OW33846   3.504   3.788   2.001
10650SOL    HW133847   3.447   3.715   2.026
10650SOL    HW233848   3.496   3.793   1.906
10651SOL     OW33849   4.769   0.027   8.645
10651SOL    HW133850   4.810   0.056   8.726
10651SOL    HW233851   4.842  14.860   8.593
10652SOL     OW33852   5.607   1.323   7.689
10652SOL    HW133853   5.545   1.329   7.616
10652SOL    HW233854   5.693   1.336   7.649
10653SOL     OW33855   8.744   8.655   5.505
10653SOL    HW133856   8.653   8.676   5.525
10653SOL    HW233857   8.771   8.723   5.442
10654SOL     OW33858  14.059  11.877  13.164
10654SOL    HW133859  13.967  11.866  13.137
10654SOL    HW233860  14.091  11.788  13.176
10655SOL     OW33861   3.800   4.835  10.015
10655SOL    HW133862   3.879   4.881  10.041
10655SOL    HW233863   3.784   4.772  10.086
10656SOL     OW33864   7.010   1.493  11.563
10656SOL    HW133865   6.944   1.532  11.620
10656SOL    HW233866   6.966   1.418  11.522
10657SOL     OW33867   6.854   8.156   0.803
10657SOL    HW133868   6.884   8.153   0.712
10657SOL    HW233869   6.900   8.085   0.846
10658SOL     OW33870  12.515   5.092   5.262
10658SOL    HW133871  12.553   5.005   5.274
10658SOL    HW233872  12.420   5.076   5.266
10659SOL     OW33873   2.514   7.560   8.125
10659SOL    HW133874   2.551   7.525   8.044
10659SOL    HW233875   2.586   7.604   8.169
10660SOL     OW33876  14.529   8.010  12.154
10660SOL    HW133877  14.520   8.058  12.071
10660SOL    HW233878  14.521   8.078  12.221
10661SOL     OW33879   3.453   8.328  12.587
10661SOL    HW133880   3.460   8.416  12.622
10661SOL    HW233881   3.521   8.278  12.633
10662SOL     OW33882   8.816   5.159  14.258
10662SOL    HW133883   8.815   5.064  14.268
10662SOL    HW233884   8.833   5.174  14.165
10663SOL     OW33885  12.118   8.174   8.962
10663SOL    HW133886  12.040   8.126   8.991
10663SOL    HW233887  12.124   8.155   8.868
10664SOL     OW33888  13.854   1.285   3.602
10664SOL    HW133889  13.801   1.226   3.549
10664SOL    HW233890  13.845   1.252   3.691
10665SOL     OW33891   6.612   6.693   4.099
10665SOL    HW133892   6.671   6.763   4.069
10665SOL    HW233893   6.600   6.638   4.021
10666SOL     OW33894   6.470   8.142   2.054
10666SOL    HW133895   6.428   8.119   1.972
10666SOL    HW233896   6.423   8.221   2.084
10667SOL     OW33897   1.966  14.735   8.051
10667SOL    HW133898   1.885  14.781   8.075
10667SOL    HW233899   1.938  14.645   8.032
10668SOL     OW33900  12.945  10.369   3.188
10668SOL    HW133901  12.850  10.374   3.196
10668SOL    HW233902  12.962  10.281   3.156
10669SOL     OW33903  13.914   5.004   9.206
10669SOL    HW133904  13.931   5.097   9.222
10669SOL    HW233905  13.986   4.977   9.148
10670SOL     OW33906  14.481   9.194   4.503
10670SOL    HW133907  14.475   9.205   4.408
10670SOL    HW233908  14.403   9.239   4.536
10671SOL     OW33909   8.090   2.974  11.803
10671SOL    HW133910   8.086   3.061  11.843
10671SOL    HW233911   8.013   2.970  11.746
10672SOL     OW33912   7.957   6.879   7.128
10672SOL    HW133913   7.867   6.907   7.146
10672SOL    HW233914   7.994   6.950   7.075
10673SOL     OW33915   5.137  14.669   8.786
10673SOL    HW133916   5.087  14.712   8.717
10673SOL    HW233917   5.072  14.648   8.853
10674SOL     OW33918   7.981   3.124  11.105
10674SOL    HW133919   8.026   3.059  11.159
10674SOL    HW233920   8.022   3.208  11.130
10675SOL     OW33921  12.362  13.624   5.824
10675SOL    HW133922  12.278  13.579   5.815
10675SOL    HW233923  12.339  13.708   5.863
10676SOL     OW33924   6.681   5.356  14.835
10676SOL    HW133925   6.659   5.269  14.868
10676SOL    HW233926   6.756   5.383   0.020
10677SOL     OW33927   7.070  12.367  14.771
10677SOL    HW133928   7.032  12.384  14.857
10677SOL    HW233929   7.133  12.296  14.786
10678SOL     OW33930   3.943   8.684   6.955
10678SOL    HW133931   3.905   8.646   7.033
10678SOL    HW233932   4.016   8.627   6.933
10679SOL     OW33933   5.476   0.918   9.499
10679SOL    HW133934   5.405   0.856   9.479
10679SOL    HW233935   5.536   0.868   9.554
10680SOL     OW33936   3.204   5.239   2.554
10680SOL    HW133937   3.117   5.248   2.593
10680SOL    HW233938   3.187   5.229   2.460
10681SOL     OW33939   7.626  14.351   9.686
10681SOL    HW133940   7.656  14.441   9.672
10681SOL    HW233941   7.706  14.304   9.712
10682SOL     OW33942   1.649   0.839   0.341
10682SOL    HW133943   1.693   0.767   0.296
10682SOL    HW233944   1.567   0.801   0.372
10683SOL     OW33945  10.166   4.413   9.892
10683SOL    HW133946  10.123   4.490   9.854
10683SOL    HW233947  10.107   4.385   9.962
10684SOL     OW33948   0.570   9.103   2.706
10684SOL    HW133949   0.554   9.137   2.794
10684SOL    HW233950   0.513   9.154   2.649
10685SOL     OW33951   1.268   2.730   1.058
10685SOL    HW133952   1.223   2.647   1.076
10685SOL    HW233953   1.347   2.726   1.112
10686SOL     OW33954   7.246   2.092   6.489
10686SOL    HW133955   7.305   2.165   6.508
10686SOL    HW233956   7.190   2.085   6.567
10687SOL     OW33957  14.582  11.730  13.803
10687SOL    HW133958  14.554  11.778  13.725
10687SOL    HW233959  14.677  11.728  13.797
10688SOL     OW33960   4.605  10.579   5.086
10688SOL    HW133961   4.646  10.529   5.158
10688SOL    HW233962   4.673  10.640   5.058
10689SOL     OW33963  14.717   5.453  13.918
10689SOL    HW133964  14.731   5.359  13.909
10689SOL    HW233965  14.680   5.480  13.834
10690SOL     OW33966   3.700   9.740  11.252
10690SOL    HW133967   3.681   9.674  11.318
10690SOL    HW233968   3.676   9.823  11.293
10691SOL     OW33969   7.790   6.448   4.624
10691SOL    HW133970   7.793   6.526   4.679
10691SOL    HW233971   7.697   6.432   4.610
10692SOL     OW33972  12.645  12.987  13.977
10692SOL    HW133973  12.568  12.964  13.925
10692SOL    HW233974  12.666  13.076  13.951
10693SOL     OW33975  13.701   6.097   3.543
10693SOL    HW133976  13.772   6.137   3.594
10693SOL    HW233977  13.710   6.003   3.559
10694SOL     OW33978   7.191   4.737  10.608
10694SOL    HW133979   7.208   4.726  10.701
10694SOL    HW233980   7.192   4.831  10.594
10695SOL     OW33981  11.358   4.578   2.827
10695SOL    HW133982  11.375   4.569   2.734
10695SOL    HW233983  11.405   4.506   2.868
10696SOL     OW33984   6.797   8.482   5.330
10696SOL    HW133985   6.889   8.453   5.328
10696SOL    HW233986   6.760   8.450   5.248
10697SOL     OW33987   9.034   1.417   7.993
10697SOL    HW133988   9.060   1.506   8.018
10697SOL    HW233989   9.070   1.404   7.906
10698SOL     OW33990   9.947   1.993   3.535
10698SOL    HW133991   9.979   1.905   3.555
10698SOL    HW233992   9.852   1.988   3.547
10699SOL     OW33993   0.843   9.531   5.294
10699SOL    HW133994   0.796   9.595   5.241
10699SOL    HW233995   0.842   9.451   5.242
10700SOL     OW33996   6.536  14.819   3.453
10700SOL    HW133997   6.621  14.858   3.474
10700SOL    HW233998   6.481   0.025   3.427
10701SOL     OW33999   7.569  10.664   2.705
10701SOL    HW134000   7.656  10.700   2.716
10701SOL    HW234001   7.519  10.733   2.663
10702SOL     OW34002   4.828   6.132   9.826
10702SOL    HW134003   4.789   6.046   9.844
10702SOL    HW234004   4.814   6.147   9.733
10703SOL     OW34005   5.087   6.922  10.397
10703SOL    HW134006   5.119   6.837  10.368
10703SOL    HW234007   5.116   6.929  10.488
10704SOL     OW34008   7.480  14.700   4.863
10704SOL    HW134009   7.405  14.642   4.872
10704SOL    HW234010   7.554  14.650   4.899
10705SOL     OW34011  12.703   4.538   2.018
10705SOL    HW134012  12.745   4.594   2.083
10705SOL    HW234013  12.774   4.512   1.959
10706SOL     OW34014   9.435   9.024   2.643
10706SOL    HW134015   9.374   9.072   2.586
10706SOL    HW234016   9.401   9.039   2.732
10707SOL     OW34017   5.916   7.674   0.076
10707SOL    HW134018   5.886   7.761   0.053
10707SOL    HW234019   5.845   7.616   0.050
10708SOL     OW34020   7.321   7.969   2.632
10708SOL    HW134021   7.311   8.038   2.565
10708SOL    HW234022   7.386   8.005   2.693
10709SOL     OW34023   9.823  13.648   7.964
10709SOL    HW134024   9.774  13.721   8.001
10709SOL    HW234025   9.910  13.656   8.002
10710SOL     OW34026   8.156  10.481   4.255
10710SOL    HW134027   8.206  10.559   4.277
10710SOL    HW234028   8.068  10.512   4.237
10711SOL     OW34029  10.446   8.841  10.909
10711SOL    HW134030  10.430   8.916  10.852
10711SOL    HW234031  10.540   8.843  10.926
10712SOL     OW34032  13.651  10.785   1.286
10712SOL    HW134033  13.700  10.769   1.205
10712SOL    HW234034  13.605  10.867   1.270
10713SOL     OW34035  14.826   5.227   0.875
10713SOL    HW134036  14.852   5.138   0.898
10713SOL    HW234037  14.769   5.217   0.799
10714SOL     OW34038   0.088   5.087   5.272
10714SOL    HW134039   0.154   5.029   5.234
10714SOL    HW234040   0.028   5.105   5.199
10715SOL     OW34041  14.847   6.111   5.850
10715SOL    HW134042  14.754   6.091   5.834
10715SOL    HW234043  14.847   6.199   5.888
10716SOL     OW34044   8.469   0.042   2.059
10716SOL    HW134045   8.498   0.016   1.972
10716SOL    HW234046   8.395   0.100   2.044
10717SOL     OW34047   5.605  13.833  13.388
10717SOL    HW134048   5.591  13.808  13.479
10717SOL    HW234049   5.615  13.929  13.390
10718SOL     OW34050   4.858  13.904   9.097
10718SOL    HW134051   4.940  13.918   9.145
10718SOL    HW234052   4.811  13.839   9.149
10719SOL     OW34053  10.254   1.688  10.534
10719SOL    HW134054  10.192   1.757  10.511
10719SOL    HW234055  10.238   1.672  10.627
10720SOL     OW34056   9.250   2.957  14.753
10720SOL    HW134057   9.223   2.905  14.829
10720SOL    HW234058   9.168   2.972  14.704
10721SOL     OW34059   6.459  12.383   7.345
10721SOL    HW134060   6.501  12.451   7.398
10721SOL    HW234061   6.477  12.301   7.391
10722SOL     OW34062   6.173  14.568   5.940
10722SOL    HW134063   6.136  14.482   5.918
10722SOL    HW234064   6.238  14.550   6.007
10723SOL     OW34065   4.029  12.509  13.655
10723SOL    HW134066   4.054  12.541  13.741
10723SOL    HW234067   4.049  12.581  13.596
10724SOL     OW34068  13.884  14.482   4.424
10724SOL    HW134069  13.887  14.512   4.515
10724SOL    HW234070  13.973  14.495   4.392
10725SOL     OW34071   3.766   6.723   9.736
10725SOL    HW134072   3.754   6.749   9.827
10725SOL    HW234073   3.831   6.653   9.740
10726SOL     OW34074   3.565  11.854   1.470
10726SOL    HW134075   3.490  11.903   1.436
10726SOL    HW234076   3.634  11.868   1.405
10727SOL     OW34077   8.141  12.045   4.857
10727SOL    HW134078   8.220  12.093   4.881
10727SOL    HW234079   8.173  11.967   4.812
10728SOL     OW34080  10.252   4.370   6.100
10728SOL    HW134081  10.298   4.362   6.183
10728SOL    HW234082  10.243   4.280   6.069
10729SOL     OW34083   1.221   7.946   6.294
10729SOL    HW134084   1.283   7.949   6.367
10729SOL    HW234085   1.238   7.862   6.251
10730SOL     OW34086   3.505  13.489  13.711
10730SOL    HW134087   3.502  13.556  13.779
10730SOL    HW234088   3.593  13.494  13.675
10731SOL     OW34089   3.565   6.901  14.056
10731SOL    HW134090   3.489   6.956  14.037
10731SOL    HW234091   3.557   6.827  13.995
10732SOL     OW34092  11.146   0.413  11.051
10732SOL    HW134093  11.178   0.364  11.127
10732SOL    HW234094  11.161   0.356  10.976
10733SOL     OW34095  14.675   3.492   7.199
10733SOL    HW134096  14.587   3.528   7.192
10733SOL    HW234097  14.732   3.569   7.208
10734SOL     OW34098   4.765   0.317   5.822
10734SOL    HW134099   4.841   0.350   5.869
10734SOL    HW234100   4.760   0.224   5.846
10735SOL     OW34101  14.713   1.176   3.432
10735SOL    HW134102  14.673   1.126   3.503
10735SOL    HW234103  14.680   1.135   3.352
10736SOL     OW34104   7.189   2.100   3.302
10736SOL    HW134105   7.231   2.043   3.367
10736SOL    HW234106   7.096   2.082   3.311
10737SOL     OW34107   9.965   9.697  14.370
10737SOL    HW134108   9.971   9.644  14.449
10737SOL    HW234109   9.985   9.786  14.399
10738SOL     OW34110   1.541   2.187  12.083
10738SOL    HW134111   1.500   2.251  12.025
10738SOL    HW234112   1.531   2.103  12.038
10739SOL     OW34113   9.827  13.225   5.321
10739SOL    HW134114   9.753  13.216   5.261
10739SOL    HW234115   9.879  13.297   5.285
10740SOL     OW34116   8.922  13.768  14.301
10740SOL    HW134117   8.986  13.838  14.293
10740SOL    HW234118   8.930  13.738  14.391
10741SOL     OW34119  12.410   7.443  13.831
10741SOL    HW134120  12.448   7.477  13.750
10741SOL    HW234121  12.429   7.349  13.828
10742SOL     OW34122   6.208   2.698   1.014
10742SOL    HW134123   6.302   2.710   1.008
10742SOL    HW234124   6.183   2.660   0.930
10743SOL     OW34125   0.920  13.706   4.289
10743SOL    HW134126   0.884  13.672   4.206
10743SOL    HW234127   0.950  13.794   4.267
10744SOL     OW34128   4.087   2.573   1.896
10744SOL    HW134129   4.075   2.668   1.901
10744SOL    HW234130   4.150   2.553   1.966
10745SOL     OW34131   1.355   1.116  14.801
10745SOL    HW134132   1.278   1.088  14.850
10745SOL    HW234133   1.361   1.210  14.817
10746SOL     OW34134  12.493   7.023   9.929
10746SOL    HW134135  12.444   7.005   9.849
10746SOL    HW234136  12.503   7.118   9.931
10747SOL     OW34137  12.467   6.927   7.127
10747SOL    HW134138  12.427   6.841   7.137
10747SOL    HW234139  12.491   6.933   7.035
10748SOL     OW34140   3.443   2.147  10.740
10748SOL    HW134141   3.528   2.167  10.701
10748SOL    HW234142   3.433   2.053  10.731
10749SOL     OW34143  12.345  14.120  11.469
10749SOL    HW134144  12.253  14.098  11.452
10749SOL    HW234145  12.392  14.037  11.457
10750SOL     OW34146  11.029   5.580   0.123
10750SOL    HW134147  11.022   5.556   0.031
10750SOL    HW234148  11.084   5.512   0.162
10751SOL     OW34149   3.613   8.425   9.322
10751SOL    HW134150   3.569   8.467   9.396
10751SOL    HW234151   3.701   8.405   9.354
10752SOL     OW34152   7.393   2.406   2.299
10752SOL    HW134153   7.392   2.315   2.330
10752SOL    HW234154   7.305   2.438   2.318
10753SOL     OW34155  12.774   8.779   9.858
10753SOL    HW134156  12.724   8.711   9.811
10753SOL    HW234157  12.851   8.794   9.804
10754SOL     OW34158  14.007   7.881  13.395
10754SOL    HW134159  13.989   7.788  13.379
10754SOL    HW234160  13.966   7.926  13.321
10755SOL     OW34161  10.097  10.146   6.704
10755SOL    HW134162  10.088  10.227   6.653
10755SOL    HW234163  10.147  10.087   6.647
10756SOL     OW34164  11.174   3.001   5.063
10756SOL    HW134165  11.268   3.002   5.080
10756SOL    HW234166  11.162   2.928   5.002
10757SOL     OW34167  13.902   3.648   0.546
10757SOL    HW134168  13.936   3.582   0.606
10757SOL    HW234169  13.980   3.679   0.498
10758SOL     OW34170   7.628   8.364   2.740
10758SOL    HW134171   7.695   8.418   2.697
10758SOL    HW234172   7.584   8.424   2.800
10759SOL     OW34173   2.545   4.369  10.834
10759SOL    HW134174   2.515   4.381  10.924
10759SOL    HW234175   2.570   4.277  10.829
10760SOL     OW34176   3.460   1.184   8.782
10760SOL    HW134177   3.548   1.222   8.791
10760SOL    HW234178   3.401   1.254   8.812
10761SOL     OW34179   3.500   1.933   8.482
10761SOL    HW134180   3.577   1.960   8.531
10761SOL    HW234181   3.434   1.999   8.502
10762SOL     OW34182   8.765  12.184  13.346
10762SOL    HW134183   8.776  12.101  13.298
10762SOL    HW234184   8.736  12.157  13.433
10763SOL     OW34185   0.355  12.772   6.868
10763SOL    HW134186   0.400  12.710   6.927
10763SOL    HW234187   0.352  12.727   6.784
10764SOL     OW34188  10.261   9.226   9.383
10764SOL    HW134189  10.319   9.207   9.310
10764SOL    HW234190  10.224   9.312   9.362
10765SOL     OW34191   8.958  11.541  14.108
10765SOL    HW134192   8.962  11.544  14.013
10765SOL    HW234193   8.876  11.584  14.130
10766SOL     OW34194   7.226  14.353  12.003
10766SOL    HW134195   7.216  14.310  11.918
10766SOL    HW234196   7.237  14.281  12.065
10767SOL     OW34197   8.917   7.234   1.948
10767SOL    HW134198   8.892   7.299   2.014
10767SOL    HW234199   9.010   7.250   1.932
10768SOL     OW34200  10.813   4.133   8.927
10768SOL    HW134201  10.816   4.065   8.860
10768SOL    HW234202  10.839   4.088   9.008
10769SOL     OW34203   4.520   9.363  14.003
10769SOL    HW134204   4.512   9.399  14.092
10769SOL    HW234205   4.446   9.303  13.995
10770SOL     OW34206   3.546   0.473   7.323
10770SOL    HW134207   3.605   0.397   7.320
10770SOL    HW234208   3.602   0.546   7.350
10771SOL     OW34209  12.212   4.636   2.770
10771SOL    HW134210  12.191   4.681   2.688
10771SOL    HW234211  12.293   4.678   2.801
10772SOL     OW34212   5.001  11.555   6.011
10772SOL    HW134213   4.961  11.534   5.927
10772SOL    HW234214   5.070  11.618   5.991
10773SOL     OW34215   0.739   9.706   5.105
10773SOL    HW134216   0.645   9.687   5.102
10773SOL    HW234217   0.750   9.785   5.052
10774SOL     OW34218  13.643   0.241   2.873
10774SOL    HW134219  13.577   0.306   2.897
10774SOL    HW234220  13.593   0.164   2.846
10775SOL     OW34221   3.296   5.312   3.037
10775SOL    HW134222   3.259   5.234   3.077
10775SOL    HW234223   3.384   5.319   3.075
10776SOL     OW34224  13.135  13.495   1.684
10776SOL    HW134225  13.187  13.479   1.763
10776SOL    HW234226  13.111  13.588   1.689
10777SOL     OW34227  13.005   7.704   1.683
10777SOL    HW134228  13.002   7.794   1.651
10777SOL    HW234229  13.082   7.701   1.740
10778SOL     OW34230   6.706   1.689   2.331
10778SOL    HW134231   6.733   1.714   2.420
10778SOL    HW234232   6.645   1.617   2.344
10779SOL     OW34233  14.208   6.758  12.537
10779SOL    HW134234  14.280   6.699  12.561
10779SOL    HW234235  14.173   6.721  12.456
10780SOL     OW34236   9.141   5.472   3.065
10780SOL    HW134237   9.138   5.379   3.087
10780SOL    HW234238   9.050   5.502   3.071
10781SOL     OW34239  12.706  12.820   8.110
10781SOL    HW134240  12.750  12.854   8.188
10781SOL    HW234241  12.654  12.894   8.078
10782SOL     OW34242   5.773   0.682   3.561
10782SOL    HW134243   5.815   0.765   3.583
10782SOL    HW234244   5.693   0.681   3.613
10783SOL     OW34245  14.682   9.987  10.802
10783SOL    HW134246  14.747  10.055  10.780
10783SOL    HW234247  14.601  10.017  10.760
10784SOL     OW34248   4.130   4.414   4.007
10784SOL    HW134249   4.200   4.350   3.990
10784SOL    HW234250   4.110   4.403   4.100
10785SOL     OW34251   2.747   2.599   6.524
10785SOL    HW134252   2.674   2.647   6.484
10785SOL    HW234253   2.818   2.663   6.529
10786SOL     OW34254  13.873  13.936  13.164
10786SOL    HW134255  13.911  14.023  13.177
10786SOL    HW234256  13.855  13.905  13.253
10787SOL     OW34257  10.810   3.514  12.183
10787SOL    HW134258  10.801   3.600  12.142
10787SOL    HW234259  10.722   3.493  12.214
10788SOL     OW34260   4.230  11.339  14.594
10788SOL    HW134261   4.158  11.282  14.566
10788SOL    HW234262   4.247  11.395  14.519
10789SOL     OW34263   1.524   6.863  14.478
10789SOL    HW134264   1.602   6.914  14.503
10789SOL    HW234265   1.457   6.928  14.461
10790SOL     OW34266   6.191   7.109   4.272
10790SOL    HW134267   6.102   7.144   4.269
10790SOL    HW234268   6.196   7.066   4.358
10791SOL     OW34269   0.372  14.010   1.084
10791SOL    HW134270   0.462  14.042   1.082
10791SOL    HW234271   0.350  14.005   1.177
10792SOL     OW34272   3.310   1.969   0.016
10792SOL    HW134273   3.219   1.947   0.034
10792SOL    HW234274   3.358   1.887   0.032
10793SOL     OW34275   0.850   9.623   2.010
10793SOL    HW134276   0.787   9.613   2.082
10793SOL    HW234277   0.814   9.694   1.957
10794SOL     OW34278  13.835  11.905   8.687
10794SOL    HW134279  13.900  11.854   8.637
10794SOL    HW234280  13.761  11.845   8.697
10795SOL     OW34281  13.516   9.571   7.088
10795SOL    HW134282  13.489   9.547   7.177
10795SOL    HW234283  13.558   9.656   7.098
10796SOL     OW34284   4.533   2.584   8.862
10796SOL    HW134285   4.603   2.529   8.897
10796SOL    HW234286   4.453   2.534   8.878
10797SOL     OW34287   9.505   2.457  12.024
10797SOL    HW134288   9.524   2.491  12.111
10797SOL    HW234289   9.510   2.362  12.034
10798SOL     OW34290   6.339  13.771  14.531
10798SOL    HW134291   6.330  13.857  14.489
10798SOL    HW234292   6.291  13.779  14.613
10799SOL     OW34293  11.210  11.335  13.611
10799SOL    HW134294  11.147  11.402  13.636
10799SOL    HW234295  11.202  11.328  13.516
10800SOL     OW34296   8.934   2.411   3.857
10800SOL    HW134297   8.859   2.409   3.916
10800SOL    HW234298   8.902   2.459   3.780
10801SOL     OW34299   3.721   6.578  10.399
10801SOL    HW134300   3.726   6.541  10.487
10801SOL    HW234301   3.682   6.508  10.347
10802SOL     OW34302   9.289   3.450   9.379
10802SOL    HW134303   9.206   3.401   9.379
10802SOL    HW234304   9.274   3.523   9.319
10803SOL     OW34305  13.286   4.635   6.203
10803SOL    HW134306  13.263   4.548   6.170
10803SOL    HW234307  13.325   4.618   6.288
10804SOL     OW34308  12.585   4.570   5.547
10804SOL    HW134309  12.547   4.613   5.625
10804SOL    HW234310  12.623   4.489   5.581
10805SOL     OW34311   2.818  12.154   0.763
10805SOL    HW134312   2.862  12.075   0.793
10805SOL    HW234313   2.805  12.140   0.669
10806SOL     OW34314   8.088  11.350   4.677
10806SOL    HW134315   8.140  11.323   4.600
10806SOL    HW234316   8.017  11.402   4.640
10807SOL     OW34317   8.066   9.109  14.434
10807SOL    HW134318   8.123   9.143  14.365
10807SOL    HW234319   7.980   9.099  14.392
10808SOL     OW34320  10.610   2.361   8.591
10808SOL    HW134321  10.516   2.348   8.598
10808SOL    HW234322  10.628   2.355   8.497
10809SOL     OW34323  13.549  14.172  13.390
10809SOL    HW134324  13.538  14.109  13.318
10809SOL    HW234325  13.610  14.237  13.355
10810SOL     OW34326   7.135   5.018   4.919
10810SOL    HW134327   7.218   5.033   4.965
10810SOL    HW234328   7.114   4.926   4.938
10811SOL     OW34329  10.598  13.715  12.910
10811SOL    HW134330  10.612  13.634  12.861
10811SOL    HW234331  10.504  13.731  12.902
10812SOL     OW34332   4.687   5.218   1.659
10812SOL    HW134333   4.691   5.135   1.708
10812SOL    HW234334   4.646   5.195   1.576
10813SOL     OW34335   8.737   2.992  11.794
10813SOL    HW134336   8.671   2.926  11.772
10813SOL    HW234337   8.725   3.060  11.727
10814SOL     OW34338   5.096  10.160   3.734
10814SOL    HW134339   5.130  10.131   3.819
10814SOL    HW234340   5.031  10.094   3.711
10815SOL     OW34341   8.054   2.453   0.230
10815SOL    HW134342   8.004   2.406   0.297
10815SOL    HW234343   8.138   2.407   0.226
10816SOL     OW34344   9.789   1.979   4.901
10816SOL    HW134345   9.872   1.990   4.856
10816SOL    HW234346   9.802   2.019   4.987
10817SOL     OW34347   2.609  14.594  10.484
10817SOL    HW134348   2.529  14.641  10.507
10817SOL    HW234349   2.580  14.525  10.424
10818SOL     OW34350   3.225   3.233   3.727
10818SOL    HW134351   3.275   3.195   3.800
10818SOL    HW234352   3.290   3.251   3.660
10819SOL     OW34353   6.727   3.490   8.218
10819SOL    HW134354   6.780   3.559   8.177
10819SOL    HW234355   6.636   3.519   8.204
10820SOL     OW34356  11.148   1.725   5.227
10820SOL    HW134357  11.113   1.792   5.286
10820SOL    HW234358  11.231   1.699   5.268
10821SOL     OW34359   3.064   2.854   2.251
10821SOL    HW134360   3.084   2.762   2.238
10821SOL    HW234361   3.001   2.875   2.182
10822SOL     OW34362   5.578  14.036   7.079
10822SOL    HW134363   5.572  14.033   7.174
10822SOL    HW234364   5.624  14.117   7.059
10823SOL     OW34365   4.714  13.326  14.815
10823SOL    HW134366   4.701  13.327   0.042
10823SOL    HW234367   4.675  13.408  14.785
10824SOL     OW34368   0.003   4.085   7.398
10824SOL    HW134369  14.826   4.000   7.398
10824SOL    HW234370  14.846   4.125   7.315
10825SOL     OW34371  13.761   5.296   2.469
10825SOL    HW134372  13.722   5.357   2.532
10825SOL    HW234373  13.765   5.213   2.515
10826SOL     OW34374   5.419  10.754   3.826
10826SOL    HW134375   5.392  10.730   3.915
10826SOL    HW234376   5.476  10.830   3.838
10827SOL     OW34377   3.384  11.118   2.609
10827SOL    HW134378   3.309  11.173   2.631
10827SOL    HW234379   3.396  11.062   2.685
10828SOL     OW34380   9.369   3.063   8.168
10828SOL    HW134381   9.319   3.145   8.166
10828SOL    HW234382   9.427   3.069   8.092
10829SOL     OW34383   9.911   1.697   4.439
10829SOL    HW134384   9.979   1.729   4.379
10829SOL    HW234385   9.832   1.693   4.385
10830SOL     OW34386   6.770   6.159   4.665
10830SOL    HW134387   6.828   6.085   4.679
10830SOL    HW234388   6.682   6.121   4.661
10831SOL     OW34389   4.660   2.399   5.439
10831SOL    HW134390   4.652   2.491   5.414
10831SOL    HW234391   4.689   2.355   5.358
10832SOL     OW34392  10.319   8.324   7.032
10832SOL    HW134393  10.415   8.326   7.033
10832SOL    HW234394  10.293   8.385   7.101
10833SOL     OW34395   3.938   8.228   5.683
10833SOL    HW134396   3.995   8.228   5.607
10833SOL    HW234397   3.852   8.202   5.649
10834SOL     OW34398   0.632   1.490  14.555
10834SOL    HW134399   0.727   1.479  14.544
10834SOL    HW234400   0.624   1.564  14.615
10835SOL     OW34401   0.894   5.285   8.011
10835SOL    HW134402   0.883   5.190   8.013
10835SOL    HW234403   0.806   5.321   8.005
10836SOL     OW34404   2.016   2.566  11.921
10836SOL    HW134405   2.053   2.492  11.874
10836SOL    HW234406   2.091   2.613  11.957
10837SOL     OW34407   2.196  11.081  11.337
10837SOL    HW134408   2.208  11.168  11.373
10837SOL    HW234409   2.109  11.054  11.367
10838SOL     OW34410  12.541   6.692   8.807
10838SOL    HW134411  12.593   6.677   8.886
10838SOL    HW234412  12.473   6.754   8.834
10839SOL     OW34413  10.336   0.783   9.240
10839SOL    HW134414  10.342   0.871   9.202
10839SOL    HW234415  10.257   0.787   9.295
10840SOL     OW34416   4.750   7.955  12.942
10840SOL    HW134417   4.785   7.970  12.854
10840SOL    HW234418   4.801   8.014  12.998
10841SOL     OW34419   4.895   1.982   5.175
10841SOL    HW134420   4.802   2.002   5.162
10841SOL    HW234421   4.895   1.910   5.238
10842SOL     OW34422  10.436   6.737  11.273
10842SOL    HW134423  10.513   6.793  11.261
10842SOL    HW234424  10.424   6.735  11.368
10843SOL     OW34425   6.162   9.126   0.736
10843SOL    HW134426   6.095   9.074   0.781
10843SOL    HW234427   6.113   9.176   0.670
10844SOL     OW34428   3.340   4.513  11.442
10844SOL    HW134429   3.435   4.525  11.439
10844SOL    HW234430   3.326   4.443  11.506
10845SOL     OW34431   2.719  12.263   9.897
10845SOL    HW134432   2.722  12.333   9.963
10845SOL    HW234433   2.742  12.306   9.815
10846SOL     OW34434  12.909   3.699  11.075
10846SOL    HW134435  12.944   3.668  11.159
10846SOL    HW234436  12.972   3.668  11.010
10847SOL     OW34437   3.606   9.133   7.210
10847SOL    HW134438   3.588   9.094   7.125
10847SOL    HW234439   3.561   9.077   7.273
10848SOL     OW34440   9.014  12.105  12.532
10848SOL    HW134441   9.097  12.144  12.505
10848SOL    HW234442   8.973  12.172  12.587
10849SOL     OW34443   5.017  14.698   3.679
10849SOL    HW134444   5.075  14.669   3.609
10849SOL    HW234445   5.076  14.728   3.749
10850SOL     OW34446   4.052   4.840   5.637
10850SOL    HW134447   4.018   4.906   5.698
10850SOL    HW234448   4.141   4.823   5.667
10851SOL     OW34449   6.098   0.010   1.966
10851SOL    HW134450   6.023  14.821   1.954
10851SOL    HW234451   6.135   0.020   1.878
10852SOL     OW34452   0.830  13.140   0.274
10852SOL    HW134453   0.801  13.160   0.185
10852SOL    HW234454   0.868  13.221   0.306
10853SOL     OW34455   4.813   7.480  12.339
10853SOL    HW134456   4.788   7.391  12.318
10853SOL    HW234457   4.902   7.488  12.305
10854SOL     OW34458  13.110  11.620   3.475
10854SOL    HW134459  13.152  11.672   3.407
10854SOL    HW234460  13.182  11.580   3.523
10855SOL     OW34461  12.379  13.025   3.153
10855SOL    HW134462  12.314  13.013   3.223
10855SOL    HW234463  12.329  13.065   3.082
10856SOL     OW34464   2.100  14.577   9.235
10856SOL    HW134465   2.075  14.493   9.194
10856SOL    HW234466   2.193  14.585   9.219
10857SOL     OW34467   3.131  12.726  13.353
10857SOL    HW134468   3.217  12.768  13.357
10857SOL    HW234469   3.069  12.798  13.360
10858SOL     OW34470   8.588   9.256   6.996
10858SOL    HW134471   8.506   9.218   6.964
10858SOL    HW234472   8.639   9.181   7.026
10859SOL     OW34473   4.185  11.901   2.537
10859SOL    HW134474   4.181  11.869   2.626
10859SOL    HW234475   4.278  11.895   2.513
10860SOL     OW34476   3.798  14.191   4.418
10860SOL    HW134477   3.823  14.111   4.373
10860SOL    HW234478   3.703  14.184   4.428
10861SOL     OW34479   3.854  13.532   2.383
10861SOL    HW134480   3.813  13.458   2.338
10861SOL    HW234481   3.921  13.492   2.438
10862SOL     OW34482   3.777   8.534   8.068
10862SOL    HW134483   3.860   8.531   8.021
10862SOL    HW234484   3.756   8.442   8.086
10863SOL     OW34485   9.678   0.529  11.744
10863SOL    HW134486   9.742   0.570  11.685
10863SOL    HW234487   9.593   0.558  11.711
10864SOL     OW34488  13.528   6.366   0.305
10864SOL    HW134489  13.457   6.404   0.357
10864SOL    HW234490  13.486   6.292   0.260
10865SOL     OW34491   8.038   0.606   9.328
10865SOL    HW134492   8.102   0.554   9.377
10865SOL    HW234493   8.042   0.570   9.239
10866SOL     OW34494   7.937  12.072   7.974
10866SOL    HW134495   7.909  12.012   8.043
10866SOL    HW234496   8.004  12.022   7.925
10867SOL     OW34497   1.975  10.087  11.495
10867SOL    HW134498   1.959  10.015  11.556
10867SOL    HW234499   1.970  10.046  11.409
10868SOL     OW34500   6.551   6.307   1.396
10868SOL    HW134501   6.556   6.402   1.409
10868SOL    HW234502   6.612   6.272   1.461
10869SOL     OW34503   1.362   4.885   1.680
10869SOL    HW134504   1.420   4.898   1.755
10869SOL    HW234505   1.362   4.969   1.634
10870SOL     OW34506   9.314   2.464   2.008
10870SOL    HW134507   9.236   2.510   2.038
10870SOL    HW234508   9.344   2.515   1.933
10871SOL     OW34509  11.489  14.700   4.419
10871SOL    HW134510  11.541  14.776   4.444
10871SOL    HW234511  11.502  14.637   4.490
10872SOL     OW34512   0.070  11.958  13.630
10872SOL    HW134513   0.124  12.002  13.696
10872SOL    HW234514   0.110  11.871  13.621
10873SOL     OW34515   7.475   7.501   4.592
10873SOL    HW134516   7.431   7.417   4.598
10873SOL    HW234517   7.405   7.564   4.575
10874SOL     OW34518   6.909   5.511   7.906
10874SOL    HW134519   6.827   5.558   7.896
10874SOL    HW234520   6.919   5.499   8.001
10875SOL     OW34521   7.987   1.233   1.668
10875SOL    HW134522   8.013   1.247   1.577
10875SOL    HW234523   8.069   1.217   1.714
10876SOL     OW34524   4.361   4.663   1.988
10876SOL    HW134525   4.377   4.617   1.906
10876SOL    HW234526   4.355   4.594   2.054
10877SOL     OW34527  11.462  13.110   2.225
10877SOL    HW134528  11.366  13.115   2.222
10877SOL    HW234529  11.482  13.108   2.319
10878SOL     OW34530   6.572   7.381   9.432
10878SOL    HW134531   6.661   7.374   9.398
10878SOL    HW234532   6.567   7.470   9.468
10879SOL     OW34533   7.614   7.840   1.299
10879SOL    HW134534   7.521   7.824   1.284
10879SOL    HW234535   7.618   7.927   1.338
10880SOL     OW34536   3.085  11.978   1.659
10880SOL    HW134537   3.031  11.906   1.626
10880SOL    HW234538   3.111  12.026   1.580
10881SOL     OW34539  11.197   6.127  14.775
10881SOL    HW134540  11.178   6.219  14.758
10881SOL    HW234541  11.263   6.104  14.711
10882SOL     OW34542   3.318   1.146  14.766
10882SOL    HW134543   3.310   1.082  14.837
10882SOL    HW234544   3.303   1.095  14.687
10883SOL     OW34545   9.278   3.552   2.576
10883SOL    HW134546   9.259   3.636   2.617
10883SOL    HW234547   9.362   3.525   2.614
10884SOL     OW34548   1.953   5.505   5.401
10884SOL    HW134549   2.035   5.467   5.431
10884SOL    HW234550   1.897   5.505   5.479
10885SOL     OW34551   4.727  11.982  12.884
10885SOL    HW134552   4.807  11.936  12.857
10885SOL    HW234553   4.694  11.932  12.958
10886SOL     OW34554   0.695   5.170   0.104
10886SOL    HW134555   0.613   5.190   0.150
10886SOL    HW234556   0.704   5.240   0.040
10887SOL     OW34557   7.990   9.592   4.895
10887SOL    HW134558   8.008   9.653   4.824
10887SOL    HW234559   8.052   9.521   4.882
10888SOL     OW34560   1.265  10.179  11.241
10888SOL    HW134561   1.253  10.265  11.200
10888SOL    HW234562   1.345  10.187  11.292
10889SOL     OW34563   8.199   2.952   3.929
10889SOL    HW134564   8.264   2.916   3.869
10889SOL    HW234565   8.183   2.882   3.992
10890SOL     OW34566  11.248  10.805  12.028
10890SOL    HW134567  11.285  10.845  12.107
10890SOL    HW234568  11.179  10.866  12.001
10891SOL     OW34569  11.404   7.374  11.834
10891SOL    HW134570  11.476   7.373  11.897
10891SOL    HW234571  11.444   7.344  11.752
10892SOL     OW34572   0.770   4.689  12.001
10892SOL    HW134573   0.685   4.721  11.972
10892SOL    HW234574   0.807   4.644  11.925
10893SOL     OW34575   8.410   7.577   1.806
10893SOL    HW134576   8.321   7.610   1.795
10893SOL    HW234577   8.461   7.624   1.740
10894SOL     OW34578  14.727  13.785   0.996
10894SOL    HW134579  14.780  13.786   0.916
10894SOL    HW234580  14.698  13.875   1.008
10895SOL     OW34581   5.926  10.572   0.481
10895SOL    HW134582   5.916  10.548   0.573
10895SOL    HW234583   5.839  10.560   0.443
10896SOL     OW34584   5.831   6.433  14.192
10896SOL    HW134585   5.842   6.339  14.182
10896SOL    HW234586   5.736   6.447  14.188
10897SOL     OW34587  10.047  14.067   1.347
10897SOL    HW134588  10.133  14.049   1.386
10897SOL    HW234589  10.046  14.162   1.335
10898SOL     OW34590   3.623   8.893   5.896
10898SOL    HW134591   3.528   8.881   5.887
10898SOL    HW234592   3.634   8.987   5.912
10899SOL     OW34593  11.967  13.912   6.914
10899SOL    HW134594  12.062  13.905   6.926
10899SOL    HW234595  11.930  13.859   6.984
10900SOL     OW34596   0.909   3.517  14.742
10900SOL    HW134597   0.874   3.575  14.810
10900SOL    HW234598   0.982   3.565  14.704
10901SOL     OW34599  14.537   4.257  11.381
10901SOL    HW134600  14.459   4.204  11.366
10901SOL    HW234601  14.505   4.331  11.433
10902SOL     OW34602   8.108   3.557   2.757
10902SOL    HW134603   8.180   3.496   2.772
10902SOL    HW234604   8.052   3.513   2.694
10903SOL     OW34605   0.655   7.910  11.898
10903SOL    HW134606   0.632   7.890  11.989
10903SOL    HW234607   0.696   7.830  11.865
10904SOL     OW34608   4.337  12.067   0.971
10904SOL    HW134609   4.407  12.117   0.929
10904SOL    HW234610   4.309  12.122   1.044
10905SOL     OW34611   6.556  12.371   8.401
10905SOL    HW134612   6.624  12.317   8.361
10905SOL    HW234613   6.592  12.397   8.486
10906SOL     OW34614   7.333   1.910   3.955
10906SOL    HW134615   7.260   1.941   4.008
10906SOL    HW234616   7.378   1.846   4.011
10907SOL     OW34617   4.720   0.864   9.350
10907SOL    HW134618   4.691   0.950   9.380
10907SOL    HW234619   4.697   0.863   9.257
10908SOL     OW34620   3.246   8.179   4.632
10908SOL    HW134621   3.287   8.209   4.551
10908SOL    HW234622   3.294   8.225   4.701
10909SOL     OW34623   8.348  11.378   6.235
10909SOL    HW134624   8.421  11.322   6.263
10909SOL    HW234625   8.357  11.382   6.140
10910SOL     OW34626   7.247  10.407   5.870
10910SOL    HW134627   7.298  10.483   5.898
10910SOL    HW234628   7.175  10.443   5.818
10911SOL     OW34629   4.639  11.409   6.537
10911SOL    HW134630   4.622  11.441   6.626
10911SOL    HW234631   4.583  11.333   6.528
10912SOL     OW34632   9.644   4.900  13.884
10912SOL    HW134633   9.615   4.926  13.796
10912SOL    HW234634   9.577   4.936  13.943
10913SOL     OW34635   3.732   0.916  14.196
10913SOL    HW134636   3.816   0.915  14.149
10913SOL    HW234637   3.717   1.008  14.218
10914SOL     OW34638   7.209  10.335   1.995
10914SOL    HW134639   7.246  10.423   1.990
10914SOL    HW234640   7.282  10.279   2.020
10915SOL     OW34641   3.867  11.286   7.903
10915SOL    HW134642   3.919  11.224   7.851
10915SOL    HW234643   3.930  11.326   7.963
10916SOL     OW34644   3.217  10.799   0.857
10916SOL    HW134645   3.173  10.747   0.924
10916SOL    HW234646   3.170  10.779   0.776
10917SOL     OW34647  10.043   3.055   4.526
10917SOL    HW134648   9.968   3.004   4.558
10917SOL    HW234649  10.011   3.099   4.448
10918SOL     OW34650   1.054   0.516   5.213
10918SOL    HW134651   1.028   0.600   5.252
10918SOL    HW234652   0.986   0.498   5.148
10919SOL     OW34653  12.766   7.527   2.996
10919SOL    HW134654  12.828   7.516   2.924
10919SOL    HW234655  12.775   7.618   3.022
10920SOL     OW34656  13.431   7.959  13.662
10920SOL    HW134657  13.468   8.042  13.693
10920SOL    HW234658  13.345   7.982  13.626
10921SOL     OW34659  10.085   9.805   3.756
10921SOL    HW134660  10.083   9.892   3.796
10921SOL    HW234661  10.095   9.744   3.829
10922SOL     OW34662  12.352   8.881  11.002
10922SOL    HW134663  12.363   8.810  10.939
10922SOL    HW234664  12.380   8.842  11.085
10923SOL     OW34665  11.831  14.648   6.969
10923SOL    HW134666  11.875  14.733   6.976
10923SOL    HW234667  11.866  14.596   7.041
10924SOL     OW34668   0.217  12.455  13.525
10924SOL    HW134669   0.201  12.364  13.499
10924SOL    HW234670   0.275  12.489  13.456
10925SOL     OW34671   4.428   0.746  11.739
10925SOL    HW134672   4.389   0.833  11.730
10925SOL    HW234673   4.375   0.703  11.806
10926SOL     OW34674  10.841  11.257   0.606
10926SOL    HW134675  10.825  11.199   0.531
10926SOL    HW234676  10.914  11.215   0.653
10927SOL     OW34677   0.853   0.311   9.724
10927SOL    HW134678   0.830   0.354   9.642
10927SOL    HW234679   0.770   0.278   9.758
10928SOL     OW34680  11.655   4.097  14.067
10928SOL    HW134681  11.746   4.126  14.054
10928SOL    HW234682  11.662   4.022  14.126
10929SOL     OW34683   8.904  12.893  12.767
10929SOL    HW134684   8.830  12.856  12.814
10929SOL    HW234685   8.981  12.864  12.816
10930SOL     OW34686   5.100   3.665   4.747
10930SOL    HW134687   5.009   3.661   4.776
10930SOL    HW234688   5.096   3.694   4.656
10931SOL     OW34689   8.920  10.021  10.657
10931SOL    HW134690   9.011  10.032  10.684
10931SOL    HW234691   8.925   9.994  10.565
10932SOL     OW34692   3.943   8.403   3.274
10932SOL    HW134693   4.005   8.429   3.342
10932SOL    HW234694   3.864   8.454   3.293
10933SOL     OW34695   1.505   0.962   7.375
10933SOL    HW134696   1.582   0.952   7.318
10933SOL    HW234697   1.435   0.917   7.329
10934SOL     OW34698   8.416  11.034   5.630
10934SOL    HW134699   8.361  10.973   5.580
10934SOL    HW234700   8.364  11.114   5.636
10935SOL     OW34701  10.890   6.677   6.400
10935SOL    HW134702  10.976   6.641   6.377
10935SOL    HW234703  10.829   6.605   6.386
10936SOL     OW34704  14.571   7.604   7.789
10936SOL    HW134705  14.570   7.590   7.884
10936SOL    HW234706  14.655   7.644   7.771
10937SOL     OW34707   3.571  10.503   6.848
10937SOL    HW134708   3.534  10.536   6.930
10937SOL    HW234709   3.662  10.532   6.850
10938SOL     OW34710   2.777   6.204  14.281
10938SOL    HW134711   2.771   6.222  14.187
10938SOL    HW234712   2.686   6.200  14.311
10939SOL     OW34713  13.451  11.322   4.016
10939SOL    HW134714  13.465  11.384   3.944
10939SOL    HW234715  13.502  11.244   3.991
10940SOL     OW34716   3.658   1.023   5.397
10940SOL    HW134717   3.707   1.081   5.455
10940SOL    HW234718   3.628   0.952   5.453
10941SOL     OW34719   8.123   7.492   1.533
10941SOL    HW134720   8.120   7.515   1.440
10941SOL    HW234721   8.096   7.573   1.577
10942SOL     OW34722  10.581   9.785  14.575
10942SOL    HW134723  10.547   9.821  14.657
10942SOL    HW234724  10.645   9.719  14.602
10943SOL     OW34725   0.381   3.618   8.044
10943SOL    HW134726   0.378   3.587   7.953
10943SOL    HW234727   0.469   3.654   8.054
10944SOL     OW34728  10.602   7.194  13.083
10944SOL    HW134729  10.598   7.238  12.998
10944SOL    HW234730  10.561   7.255  13.144
10945SOL     OW34731  14.828  11.972   0.991
10945SOL    HW134732  14.796  12.061   0.978
10945SOL    HW234733   0.053  11.977   0.968
10946SOL     OW34734   0.189  12.290   1.070
10946SOL    HW134735   0.166  12.265   1.160
10946SOL    HW234736   0.187  12.385   1.070
10947SOL     OW34737   6.320  10.121   8.979
10947SOL    HW134738   6.411  10.092   8.989
10947SOL    HW234739   6.267  10.047   9.008
10948SOL     OW34740  13.259  10.888  10.081
10948SOL    HW134741  13.184  10.934  10.043
10948SOL    HW234742  13.274  10.931  10.165
10949SOL     OW34743   5.585   7.280   9.966
10949SOL    HW134744   5.629   7.204   9.928
10949SOL    HW234745   5.624   7.289  10.053
10950SOL     OW34746   0.313  13.023  13.321
10950SOL    HW134747   0.227  13.014  13.363
10950SOL    HW234748   0.373  12.979  13.381
10951SOL     OW34749   0.918   4.116  13.043
10951SOL    HW134750   0.854   4.186  13.053
10951SOL    HW234751   0.981   4.150  12.979
10952SOL     OW34752  11.966   3.084   8.905
10952SOL    HW134753  11.975   3.148   8.976
10952SOL    HW234754  12.045   3.095   8.853
10953SOL     OW34755   5.209  11.787  11.263
10953SOL    HW134756   5.168  11.773  11.178
10953SOL    HW234757   5.255  11.705  11.281
10954SOL     OW34758   4.945   4.146   0.511
10954SOL    HW134759   4.918   4.222   0.459
10954SOL    HW234760   4.892   4.151   0.590
10955SOL     OW34761   2.794  11.172  14.776
10955SOL    HW134762   2.869  11.158  14.834
10955SOL    HW234763   2.727  11.112  14.808
10956SOL     OW34764  13.435  11.572   0.227
10956SOL    HW134765  13.367  11.610   0.282
10956SOL    HW234766  13.498  11.534   0.288
10957SOL     OW34767   5.673   9.761  13.065
10957SOL    HW134768   5.658   9.675  13.103
10957SOL    HW234769   5.597   9.813  13.092
10958SOL     OW34770   9.249   3.296  13.513
10958SOL    HW134771   9.280   3.260  13.596
10958SOL    HW234772   9.258   3.391  13.523
10959SOL     OW34773  14.606  14.458  10.440
10959SOL    HW134774  14.603  14.513  10.519
10959SOL    HW234775  14.661  14.507  10.379
10960SOL     OW34776   5.868   1.267   0.852
10960SOL    HW134777   5.947   1.279   0.799
10960SOL    HW234778   5.895   1.289   0.941
10961SOL     OW34779   9.529   6.014  11.688
10961SOL    HW134780   9.458   5.955  11.715
10961SOL    HW234781   9.587   5.960  11.635
10962SOL     OW34782   1.054  10.809  10.889
10962SOL    HW134783   1.024  10.770  10.971
10962SOL    HW234784   1.125  10.868  10.915
10963SOL     OW34785   2.193   4.618   7.596
10963SOL    HW134786   2.260   4.684   7.618
10963SOL    HW234787   2.132   4.620   7.670
10964SOL     OW34788  13.613   5.565  12.898
10964SOL    HW134789  13.626   5.651  12.937
10964SOL    HW234790  13.570   5.514  12.967
10965SOL     OW34791   6.161  10.392   5.276
10965SOL    HW134792   6.194  10.463   5.222
10965SOL    HW234793   6.231  10.326   5.275
10966SOL     OW34794   2.758  11.330   4.198
10966SOL    HW134795   2.716  11.350   4.114
10966SOL    HW234796   2.696  11.362   4.264
10967SOL     OW34797   5.519   6.139  12.401
10967SOL    HW134798   5.602   6.178  12.374
10967SOL    HW234799   5.533   6.113  12.492
10968SOL     OW34800   7.165   1.794   7.757
10968SOL    HW134801   7.241   1.803   7.699
10968SOL    HW234802   7.203   1.783   7.844
10969SOL     OW34803  13.049   8.613   0.190
10969SOL    HW134804  13.128   8.585   0.143
10969SOL    HW234805  12.983   8.548   0.167
10970SOL     OW34806   3.697  10.420  11.656
10970SOL    HW134807   3.738  10.425  11.743
10970SOL    HW234808   3.605  10.402  11.674
10971SOL     OW34809  10.128   9.205   7.896
10971SOL    HW134810  10.147   9.127   7.948
10971SOL    HW234811  10.202   9.264   7.912
10972SOL     OW34812  12.049  13.005  13.804
10972SOL    HW134813  12.075  13.005  13.711
10972SOL    HW234814  11.961  13.044  13.804
10973SOL     OW34815   4.862   3.950   5.614
10973SOL    HW134816   4.860   4.035   5.657
10973SOL    HW234817   4.791   3.900   5.655
10974SOL     OW34818   3.913   4.931  13.057
10974SOL    HW134819   3.818   4.941  13.070
10974SOL    HW234820   3.950   4.940  13.145
10975SOL     OW34821   5.327   3.358   9.983
10975SOL    HW134822   5.258   3.311   9.936
10975SOL    HW234823   5.284   3.391  10.062
10976SOL     OW34824   4.216  14.423  11.974
10976SOL    HW134825   4.299  14.389  12.008
10976SOL    HW234826   4.239  14.460  11.889
10977SOL     OW34827  13.267   9.228   5.159
10977SOL    HW134828  13.288   9.162   5.094
10977SOL    HW234829  13.187   9.270   5.127
10978SOL     OW34830   7.191   2.275   0.934
10978SOL    HW134831   7.100   2.256   0.915
10978SOL    HW234832   7.213   2.217   1.007
10979SOL     OW34833   8.331  13.976  14.075
10979SOL    HW134834   8.383  14.030  14.134
10979SOL    HW234835   8.366  13.887  14.086
10980SOL     OW34836   5.086  10.771   7.510
10980SOL    HW134837   5.143  10.750   7.584
10980SOL    HW234838   5.087  10.867   7.506
10981SOL     OW34839   4.831   3.112   8.895
10981SOL    HW134840   4.747   3.074   8.866
10981SOL    HW234841   4.893   3.040   8.888
10982SOL     OW34842  10.924   3.683  14.785
10982SOL    HW134843  10.991   3.738  14.745
10982SOL    HW234844  10.972   3.618  14.836
10983SOL     OW34845  12.837  11.264   1.431
10983SOL    HW134846  12.856  11.233   1.519
10983SOL    HW234847  12.867  11.354   1.430
10984SOL     OW34848   6.385  14.307   2.799
10984SOL    HW134849   6.440  14.353   2.862
10984SOL    HW234850   6.297  14.342   2.814
10985SOL     OW34851  12.442   0.143   9.786
10985SOL    HW134852  12.444   0.143   9.882
10985SOL    HW234853  12.408   0.056   9.763
10986SOL     OW34854   2.172   7.717   9.708
10986SOL    HW134855   2.086   7.729   9.667
10986SOL    HW234856   2.171   7.626   9.739
10987SOL     OW34857   4.962   0.372  12.055
10987SOL    HW134858   5.012   0.420  11.989
10987SOL    HW234859   5.007   0.287  12.061
10988SOL     OW34860   9.620   7.226  13.050
10988SOL    HW134861   9.661   7.141  13.035
10988SOL    HW234862   9.531   7.216  13.017
10989SOL     OW34863   9.658   7.786   0.690
10989SOL    HW134864   9.643   7.855   0.755
10989SOL    HW234865   9.684   7.834   0.611
10990SOL     OW34866   9.415  14.797   7.283
10990SOL    HW134867   9.349  14.787   7.351
10990SOL    HW234868   9.449  14.709   7.268
10991SOL     OW34869   1.928   0.355   8.033
10991SOL    HW134870   1.981   0.413   7.978
10991SOL    HW234871   1.977   0.272   8.034
10992SOL     OW34872   2.253  10.643  13.981
10992SOL    HW134873   2.280  10.604  13.898
10992SOL    HW234874   2.278  10.579  14.047
10993SOL     OW34875  13.040  10.480   6.098
10993SOL    HW134876  13.071  10.460   6.187
10993SOL    HW234877  12.991  10.402   6.072
10994SOL     OW34878   2.210   0.039   1.208
10994SOL    HW134879   2.117   0.060   1.201
10994SOL    HW234880   2.255   0.117   1.176
10995SOL     OW34881  11.010  12.502  11.761
10995SOL    HW134882  11.044  12.506  11.672
10995SOL    HW234883  10.947  12.430  11.760
10996SOL     OW34884   7.792   0.353   4.241
10996SOL    HW134885   7.790   0.342   4.336
10996SOL    HW234886   7.756   0.440   4.225
10997SOL     OW34887  14.809   9.239  13.938
10997SOL    HW134888  14.810   9.333  13.956
10997SOL    HW234889  14.767   9.232  13.851
10998SOL     OW34890   9.170   9.687   7.379
10998SOL    HW134891   9.171   9.773   7.421
10998SOL    HW234892   9.097   9.692   7.317
10999SOL     OW34893   5.753  11.559   0.900
10999SOL    HW134894   5.668  11.588   0.934
10999SOL    HW234895   5.812  11.569   0.975
11000SOL     OW34896   1.916   2.040   4.382
11000SOL    HW134897   1.864   2.005   4.310
11000SOL    HW234898   1.897   1.982   4.456
11001SOL     OW34899   4.374  10.343  10.002
11001SOL    HW134900   4.448  10.282  10.002
11001SOL    HW234901   4.323  10.320   9.925
11002SOL     OW34902   2.159  13.361   1.163
11002SOL    HW134903   2.255  13.356   1.168
11002SOL    HW234904   2.141  13.392   1.074
11003SOL     OW34905   2.390   0.092   9.330
11003SOL    HW134906   2.375   0.164   9.269
11003SOL    HW234907   2.485   0.092   9.345
11004SOL     OW34908   6.689  12.640  13.501
11004SOL    HW134909   6.645  12.582  13.440
11004SOL    HW234910   6.782  12.621  13.490
11005SOL     OW34911   6.708   3.876  14.500
11005SOL    HW134912   6.640   3.873  14.433
11005SOL    HW234913   6.788   3.854  14.454
11006SOL     OW34914  14.120   5.224   5.123
11006SOL    HW134915  14.059   5.232   5.197
11006SOL    HW234916  14.120   5.130   5.104
11007SOL     OW34917   5.829   6.481   0.470
11007SOL    HW134918   5.873   6.517   0.547
11007SOL    HW234919   5.900   6.455   0.411
11008SOL     OW34920  14.852   3.938   7.054
11008SOL    HW134921  14.798   4.006   7.014
11008SOL    HW234922  14.790   3.884   7.104
11009SOL     OW34923   8.641   6.623   2.604
11009SOL    HW134924   8.708   6.618   2.536
11009SOL    HW234925   8.690   6.636   2.685
11010SOL     OW34926   9.527  13.486   7.365
11010SOL    HW134927   9.524  13.548   7.292
11010SOL    HW234928   9.447  13.434   7.356
11011SOL     OW34929   5.737  14.426   4.733
11011SOL    HW134930   5.660  14.433   4.789
11011SOL    HW234931   5.791  14.358   4.774
11012SOL     OW34932  12.896  12.699  14.783
11012SOL    HW134933  12.818  12.668  14.738
11012SOL    HW234934  12.920  12.779  14.738
11013SOL     OW34935  11.105  14.253  11.339
11013SOL    HW134936  11.022  14.271  11.383
11013SOL    HW234937  11.110  14.318  11.269
11014SOL     OW34938   9.880  14.627   0.832
11014SOL    HW134939   9.881  14.650   0.925
11014SOL    HW234940   9.791  14.600   0.814
11015SOL     OW34941   0.814   8.985   9.236
11015SOL    HW134942   0.813   9.054   9.303
11015SOL    HW234943   0.792   9.030   9.155
11016SOL     OW34944  12.683   5.203  10.344
11016SOL    HW134945  12.734   5.280  10.369
11016SOL    HW234946  12.607   5.239  10.299
11017SOL     OW34947  14.256   8.998   8.491
11017SOL    HW134948  14.256   9.082   8.537
11017SOL    HW234949  14.304   9.015   8.410
11018SOL     OW34950   6.741  13.270   7.687
11018SOL    HW134951   6.697  13.266   7.772
11018SOL    HW234952   6.752  13.363   7.669
11019SOL     OW34953   3.906   2.376   4.093
11019SOL    HW134954   3.832   2.340   4.045
11019SOL    HW234955   3.974   2.390   4.026
11020SOL     OW34956   9.363   7.153  13.281
11020SOL    HW134957   9.416   7.170  13.358
11020SOL    HW234958   9.423   7.162  13.207
11021SOL     OW34959  12.201   6.225  10.094
11021SOL    HW134960  12.204   6.249  10.001
11021SOL    HW234961  12.209   6.130  10.095
11022SOL     OW34962  12.251   5.472  11.036
11022SOL    HW134963  12.275   5.514  11.118
11022SOL    HW234964  12.328   5.483  10.980
11023SOL     OW34965   8.910   5.270   1.987
11023SOL    HW134966   8.854   5.193   1.978
11023SOL    HW234967   8.901   5.317   1.904
11024SOL     OW34968   9.223   0.694  12.472
11024SOL    HW134969   9.135   0.729  12.489
11024SOL    HW234970   9.232   0.622  12.534
11025SOL     OW34971  13.416  14.404  13.217
11025SOL    HW134972  13.387  14.351  13.142
11025SOL    HW234973  13.509  14.383  13.227
11026SOL     OW34974   0.357   9.478   5.861
11026SOL    HW134975   0.444   9.447   5.888
11026SOL    HW234976   0.303   9.466   5.939
11027SOL     OW34977   9.499   7.555  11.468
11027SOL    HW134978   9.438   7.525  11.535
11027SOL    HW234979   9.584   7.557  11.512
11028SOL     OW34980   9.345   9.428   1.532
11028SOL    HW134981   9.393   9.361   1.482
11028SOL    HW234982   9.261   9.387   1.553
11029SOL     OW34983  10.184  11.500   6.060
11029SOL    HW134984  10.188  11.554   6.139
11029SOL    HW234985  10.109  11.535   6.011
11030SOL     OW34986   3.205  14.375  10.002
11030SOL    HW134987   3.216  14.288   9.962
11030SOL    HW234988   3.191  14.434   9.928
11031SOL     OW34989   1.320  14.847  13.820
11031SOL    HW134990   1.400  14.829  13.771
11031SOL    HW234991   1.271  14.765  13.819
11032SOL     OW34992   9.873   1.694  13.166
11032SOL    HW134993   9.872   1.651  13.251
11032SOL    HW234994   9.963   1.685  13.134
11033SOL     OW34995   4.549  10.580   1.901
11033SOL    HW134996   4.495  10.619   1.832
11033SOL    HW234997   4.496  10.507   1.935
11034SOL     OW34998   6.853   0.649   0.691
11034SOL    HW134999   6.918   0.717   0.709
11034SOL    HW235000   6.852   0.596   0.771
11035SOL     OW35001   5.442   6.690  13.374
11035SOL    HW135002   5.402   6.775  13.353
11035SOL    HW235003   5.368   6.635  13.402
11036SOL     OW35004   8.974  14.236  14.448
11036SOL    HW135005   8.971  14.289  14.368
11036SOL    HW235006   8.883  14.210  14.463
11037SOL     OW35007   4.793   6.085   3.952
11037SOL    HW135008   4.843   6.005   3.937
11037SOL    HW235009   4.766   6.114   3.865
11038SOL     OW35010   8.525   8.114   2.765
11038SOL    HW135011   8.602   8.069   2.730
11038SOL    HW235012   8.487   8.052   2.827
11039SOL     OW35013  11.153   4.638   7.471
11039SOL    HW135014  11.091   4.568   7.492
11039SOL    HW235015  11.239   4.596   7.474
11040SOL     OW35016   0.430  14.206   3.764
11040SOL    HW135017   0.500  14.153   3.727
11040SOL    HW235018   0.392  14.151   3.832
11041SOL     OW35019   0.435   3.668   5.417
11041SOL    HW135020   0.379   3.631   5.484
11041SOL    HW235021   0.462   3.753   5.453
11042SOL     OW35022   3.301   6.264  12.318
11042SOL    HW135023   3.328   6.173  12.324
11042SOL    HW235024   3.324   6.291  12.230
11043SOL     OW35025   5.338   7.171   0.288
11043SOL    HW135026   5.327   7.119   0.368
11043SOL    HW235027   5.336   7.107   0.217
11044SOL     OW35028   3.195  10.717   6.557
11044SOL    HW135029   3.256  10.790   6.544
11044SOL    HW235030   3.202  10.665   6.477
11045SOL     OW35031   3.574  11.946   6.722
11045SOL    HW135032   3.594  11.998   6.645
11045SOL    HW235033   3.648  11.886   6.730
11046SOL     OW35034   5.798   2.461   8.217
11046SOL    HW135035   5.803   2.452   8.121
11046SOL    HW235036   5.706   2.479   8.235
11047SOL     OW35037   4.007   5.819  11.631
11047SOL    HW135038   4.012   5.724  11.645
11047SOL    HW235039   4.054   5.833  11.548
11048SOL     OW35040   1.499   7.294   3.125
11048SOL    HW135041   1.516   7.204   3.154
11048SOL    HW235042   1.573   7.344   3.160
11049SOL     OW35043   1.145  10.298   5.893
11049SOL    HW135044   1.179  10.218   5.932
11049SOL    HW235045   1.219  10.358   5.892
11050SOL     OW35046   5.866   6.138  12.103
11050SOL    HW135047   5.901   6.160  12.017
11050SOL    HW235048   5.824   6.053  12.091
11051SOL     OW35049   4.469  12.739   2.293
11051SOL    HW135050   4.397  12.701   2.343
11051SOL    HW235051   4.434  12.749   2.205
11052SOL     OW35052   8.436  14.328   3.558
11052SOL    HW135053   8.402  14.408   3.518
11052SOL    HW235054   8.369  14.303   3.622
11053SOL     OW35055  12.571  13.448   0.681
11053SOL    HW135056  12.576  13.360   0.719
11053SOL    HW235057  12.662  13.469   0.659
11054SOL     OW35058   2.370   2.204  12.882
11054SOL    HW135059   2.440   2.157  12.837
11054SOL    HW235060   2.410   2.235  12.963
11055SOL     OW35061   8.721   4.546   8.534
11055SOL    HW135062   8.793   4.599   8.502
11055SOL    HW235063   8.654   4.609   8.560
11056SOL     OW35064  11.827   4.784  12.166
11056SOL    HW135065  11.882   4.728  12.111
11056SOL    HW235066  11.882   4.859  12.186
11057SOL     OW35067   0.547   6.550   6.117
11057SOL    HW135068   0.525   6.639   6.089
11057SOL    HW235069   0.475   6.496   6.083
11058SOL     OW35070  11.080  14.687  10.968
11058SOL    HW135071  11.025  14.657  10.896
11058SOL    HW235072  11.045  14.644  11.045
11059SOL     OW35073   5.317  14.140  10.658
11059SOL    HW135074   5.230  14.179  10.668
11059SOL    HW235075   5.317  14.065  10.717
11060SOL     OW35076   8.213  12.190   1.916
11060SOL    HW135077   8.291  12.220   1.869
11060SOL    HW235078   8.247  12.137   1.988
11061SOL     OW35079   9.114   5.156  13.355
11061SOL    HW135080   9.191   5.213  13.356
11061SOL    HW235081   9.071   5.173  13.439
11062SOL     OW35082   1.920  13.853   9.900
11062SOL    HW135083   1.935  13.946   9.881
11062SOL    HW235084   1.915  13.812   9.813
11063SOL     OW35085  12.938   0.233   7.385
11063SOL    HW135086  12.963   0.292   7.456
11063SOL    HW235087  13.015   0.229   7.328
11064SOL     OW35088   0.286   7.687  14.048
11064SOL    HW135089   0.306   7.772  14.008
11064SOL    HW235090   0.338   7.686  14.129
11065SOL     OW35091  12.812  11.811   5.713
11065SOL    HW135092  12.751  11.784   5.645
11065SOL    HW235093  12.764  11.873   5.767
11066SOL     OW35094   4.501   6.330   4.293
11066SOL    HW135095   4.531   6.420   4.276
11066SOL    HW235096   4.519   6.317   4.386
11067SOL     OW35097   0.546   6.045  14.692
11067SOL    HW135098   0.626   6.065  14.644
11067SOL    HW235099   0.525   5.955  14.668
11068SOL     OW35100   7.606  13.895   5.760
11068SOL    HW135101   7.580  13.829   5.824
11068SOL    HW235102   7.652  13.962   5.812
11069SOL     OW35103   7.761   8.969  13.380
11069SOL    HW135104   7.707   8.979  13.301
11069SOL    HW235105   7.700   8.940  13.448
11070SOL     OW35106   2.116  13.438   7.106
11070SOL    HW135107   2.145  13.527   7.086
11070SOL    HW235108   2.085  13.404   7.022
11071SOL     OW35109   1.451   5.665   0.865
11071SOL    HW135110   1.532   5.629   0.829
11071SOL    HW235111   1.401   5.693   0.788
11072SOL     OW35112   5.320  12.322   9.681
11072SOL    HW135113   5.293  12.264   9.610
11072SOL    HW235114   5.413  12.339   9.665
11073SOL     OW35115  13.432   4.768  14.413
11073SOL    HW135116  13.392   4.809  14.336
11073SOL    HW235117  13.391   4.682  14.420
11074SOL     OW35118  14.403   0.382  10.635
11074SOL    HW135119  14.398   0.405  10.542
11074SOL    HW235120  14.426   0.289  10.635
11075SOL     OW35121   1.562  11.019  11.106
11075SOL    HW135122   1.614  11.075  11.048
11075SOL    HW235123   1.598  11.036  11.194
11076SOL     OW35124  12.677   5.711  10.509
11076SOL    HW135125  12.594   5.663  10.507
11076SOL    HW235126  12.662   5.787  10.453
11077SOL     OW35127  12.867   0.321   1.291
11077SOL    HW135128  12.845   0.393   1.233
11077SOL    HW235129  12.809   0.249   1.264
11078SOL     OW35130   2.402  12.835   7.654
11078SOL    HW135131   2.317  12.877   7.668
11078SOL    HW235132   2.382  12.760   7.598
11079SOL     OW35133   5.748  11.373  11.692
11079SOL    HW135134   5.669  11.401  11.647
11079SOL    HW235135   5.814  11.437  11.667
11080SOL     OW35136   8.678   8.218   4.962
11080SOL    HW135137   8.689   8.222   4.867
11080SOL    HW235138   8.766   8.227   4.997
11081SOL     OW35139   7.710  12.446  10.813
11081SOL    HW135140   7.664  12.364  10.830
11081SOL    HW235141   7.647  12.499  10.764
11082SOL     OW35142   9.811   6.334   7.543
11082SOL    HW135143   9.857   6.314   7.462
11082SOL    HW235144   9.856   6.409   7.579
11083SOL     OW35145  12.594   9.333  11.416
11083SOL    HW135146  12.634   9.407  11.462
11083SOL    HW235147  12.503   9.359  11.402
11084SOL     OW35148   3.364   6.912   1.874
11084SOL    HW135149   3.344   6.853   1.947
11084SOL    HW235150   3.434   6.868   1.826
11085SOL     OW35151   4.499   9.742   9.255
11085SOL    HW135152   4.529   9.832   9.272
11085SOL    HW235153   4.531   9.722   9.167
11086SOL     OW35154  13.223  14.069   3.729
11086SOL    HW135155  13.178  14.052   3.812
11086SOL    HW235156  13.161  14.041   3.662
11087SOL     OW35157  12.115   7.683   5.506
11087SOL    HW135158  12.191   7.670   5.562
11087SOL    HW235159  12.066   7.754   5.548
11088SOL     OW35160   2.614   7.692   4.741
11088SOL    HW135161   2.587   7.635   4.813
11088SOL    HW235162   2.647   7.771   4.783
11089SOL     OW35163   7.436   5.090   3.041
11089SOL    HW135164   7.430   5.018   3.104
11089SOL    HW235165   7.394   5.057   2.962
11090SOL     OW35166  10.999   4.104  11.516
11090SOL    HW135167  10.989   4.012  11.489
11090SOL    HW235168  11.082   4.106  11.564
11091SOL     OW35169   7.767  10.680   3.939
11091SOL    HW135170   7.735  10.752   3.993
11091SOL    HW235171   7.855  10.708   3.911
11092SOL     OW35172   9.948   0.086  14.463
11092SOL    HW135173  10.007   0.144  14.416
11092SOL    HW235174  10.005   0.016  14.496
11093SOL     OW35175   5.742   3.821   1.185
11093SOL    HW135176   5.809   3.754   1.190
11093SOL    HW235177   5.665   3.776   1.149
11094SOL     OW35178   0.382   2.929   6.762
11094SOL    HW135179   0.350   2.870   6.830
11094SOL    HW235180   0.347   3.015   6.786
11095SOL     OW35181   1.798   6.922  14.541
11095SOL    HW135182   1.827   6.848  14.488
11095SOL    HW235183   1.837   6.907  14.627
11096SOL     OW35184  14.087  12.363   1.875
11096SOL    HW135185  14.177  12.370   1.845
11096SOL    HW235186  14.074  12.441   1.929
11097SOL     OW35187   8.487   3.890   7.111
11097SOL    HW135188   8.455   3.831   7.179
11097SOL    HW235189   8.416   3.894   7.047
11098SOL     OW35190   6.823   0.661   3.125
11098SOL    HW135191   6.832   0.754   3.105
11098SOL    HW235192   6.826   0.656   3.221
11099SOL     OW35193   4.185  10.537   2.479
11099SOL    HW135194   4.250  10.542   2.548
11099SOL    HW235195   4.111  10.588   2.512
11100SOL     OW35196   5.279  12.389   3.832
11100SOL    HW135197   5.337  12.390   3.755
11100SOL    HW235198   5.281  12.298   3.861
11101SOL     OW35199   9.994   8.565   9.572
11101SOL    HW135200  10.026   8.475   9.563
11101SOL    HW235201   9.899   8.556   9.572
11102SOL     OW35202  13.579   7.548   8.278
11102SOL    HW135203  13.582   7.454   8.260
11102SOL    HW235204  13.609   7.589   8.197
11103SOL     OW35205   9.949  10.357   1.079
11103SOL    HW135206   9.983  10.381   0.993
11103SOL    HW235207   9.863  10.319   1.061
11104SOL     OW35208   6.267   8.498   7.744
11104SOL    HW135209   6.173   8.486   7.746
11104SOL    HW235210   6.302   8.411   7.725
11105SOL     OW35211  11.181   7.087  11.108
11105SOL    HW135212  11.267   7.081  11.150
11105SOL    HW235213  11.124   7.034  11.163
11106SOL     OW35214   2.015   8.751  11.278
11106SOL    HW135215   2.067   8.722  11.354
11106SOL    HW235216   2.073   8.736  11.203
11107SOL     OW35217   3.231   0.658   2.632
11107SOL    HW135218   3.300   0.717   2.601
11107SOL    HW235219   3.246   0.652   2.726
11108SOL     OW35220   4.204  12.345   3.587
11108SOL    HW135221   4.258  12.303   3.654
11108SOL    HW235222   4.164  12.419   3.630
11109SOL     OW35223   0.573  10.658  10.071
11109SOL    HW135224   0.575  10.701   9.985
11109SOL    HW235225   0.590  10.566  10.052
11110SOL     OW35226  10.877   8.806   2.008
11110SOL    HW135227  10.831   8.730   2.044
11110SOL    HW235228  10.862   8.800   1.914
11111SOL     OW35229  12.869   6.467   1.948
11111SOL    HW135230  12.775   6.454   1.963
11111SOL    HW235231  12.873   6.544   1.892
11112SOL     OW35232   2.368   1.005   2.971
11112SOL    HW135233   2.302   1.070   2.946
11112SOL    HW235234   2.317   0.929   3.001
11113SOL     OW35235   2.647  12.931  11.655
11113SOL    HW135236   2.592  12.922  11.577
11113SOL    HW235237   2.731  12.963  11.621
11114SOL     OW35238  13.906  12.362   6.839
11114SOL    HW135239  13.823  12.383   6.795
11114SOL    HW235240  13.940  12.447   6.867
11115SOL     OW35241  14.717   0.904   3.717
11115SOL    HW135242  14.780   0.973   3.737
11115SOL    HW235243  14.676   0.883   3.801
11116SOL     OW35244   2.376  10.199   1.969
11116SOL    HW135245   2.434  10.260   1.923
11116SOL    HW235246   2.288  10.232   1.952
11117SOL     OW35247   8.608   6.239   2.040
11117SOL    HW135248   8.561   6.230   2.123
11117SOL    HW235249   8.659   6.158   2.033
11118SOL     OW35250   5.005  10.516   6.151
11118SOL    HW135251   5.018  10.438   6.206
11118SOL    HW235252   5.061  10.501   6.075
11119SOL     OW35253   4.317  12.287   1.860
11119SOL    HW135254   4.355  12.334   1.786
11119SOL    HW235255   4.297  12.355   1.924
11120SOL     OW35256  13.182   6.589   8.162
11120SOL    HW135257  13.095   6.620   8.188
11120SOL    HW235258  13.165   6.517   8.100
11121SOL     OW35259  14.779  14.607  14.158
11121SOL    HW135260  14.850  14.566  14.109
11121SOL    HW235261  14.733  14.661  14.093
11122SOL     OW35262   3.379  11.414   0.733
11122SOL    HW135263   3.386  11.344   0.668
11122SOL    HW235264   3.465  11.415   0.776
11123SOL     OW35265   4.939   7.091   5.390
11123SOL    HW135266   5.016   7.135   5.353
11123SOL    HW235267   4.879   7.162   5.411
11124SOL     OW35268   2.273  10.771  10.393
11124SOL    HW135269   2.292  10.746  10.302
11124SOL    HW235270   2.312  10.858  10.402
11125SOL     OW35271   4.325   4.357   0.670
11125SOL    HW135272   4.377   4.422   0.623
11125SOL    HW235273   4.253   4.406   0.708
11126SOL     OW35274   7.658  10.015  14.340
11126SOL    HW135275   7.680  10.106  14.363
11126SOL    HW235276   7.656   9.969  14.424
11127SOL     OW35277  10.708  10.248   8.145
11127SOL    HW135278  10.750  10.315   8.091
11127SOL    HW235279  10.755  10.167   8.124
11128SOL     OW35280   5.511   3.123  12.141
11128SOL    HW135281   5.417   3.133  12.129
11128SOL    HW235282   5.520   3.050  12.202
11129SOL     OW35283   6.583   5.396   3.767
11129SOL    HW135284   6.654   5.341   3.800
11129SOL    HW235285   6.617   5.485   3.774
11130SOL     OW35286  13.538   7.472   5.157
11130SOL    HW135287  13.594   7.404   5.118
11130SOL    HW235288  13.517   7.530   5.084
11131SOL     OW35289   0.182   5.063   6.166
11131SOL    HW135290   0.236   5.141   6.182
11131SOL    HW235291   0.246   4.992   6.157
11132SOL     OW35292  13.262   2.615   8.491
11132SOL    HW135293  13.339   2.653   8.533
11132SOL    HW235294  13.188   2.654   8.539
11133SOL     OW35295  14.127   5.592   1.585
11133SOL    HW135296  14.113   5.644   1.506
11133SOL    HW235297  14.218   5.610   1.611
11134SOL     OW35298  12.482   0.551  12.301
11134SOL    HW135299  12.490   0.602  12.220
11134SOL    HW235300  12.388   0.536  12.311
11135SOL     OW35301  12.394  12.530  13.791
11135SOL    HW135302  12.476  12.567  13.825
11135SOL    HW235303  12.328  12.551  13.857
11136SOL     OW35304  12.293   1.430  13.347
11136SOL    HW135305  12.328   1.493  13.409
11136SOL    HW235306  12.351   1.354  13.353
11137SOL     OW35307  12.458  11.288   8.891
11137SOL    HW135308  12.491  11.312   8.805
11137SOL    HW235309  12.445  11.372   8.936
11138SOL     OW35310  12.637   3.183   9.650
11138SOL    HW135311  12.665   3.104   9.697
11138SOL    HW235312  12.573   3.224   9.708
11139SOL     OW35313   1.414  12.538   3.793
11139SOL    HW135314   1.363  12.473   3.842
11139SOL    HW235315   1.495  12.547   3.843
11140SOL     OW35316   8.083   6.058   8.099
11140SOL    HW135317   8.162   6.069   8.152
11140SOL    HW235318   8.068   6.145   8.061
11141SOL     OW35319   9.229   0.252   7.826
11141SOL    HW135320   9.288   0.195   7.875
11141SOL    HW235321   9.155   0.196   7.803
11142SOL     OW35322   5.977  12.883   5.415
11142SOL    HW135323   5.939  12.921   5.336
11142SOL    HW235324   6.068  12.863   5.392
11143SOL     OW35325  13.555   5.163   9.293
11143SOL    HW135326  13.518   5.171   9.381
11143SOL    HW235327  13.640   5.207   9.298
11144SOL     OW35328  12.268   9.485   3.554
11144SOL    HW135329  12.247   9.535   3.633
11144SOL    HW235330  12.207   9.411   3.555
11145SOL     OW35331  11.844   3.863  11.660
11145SOL    HW135332  11.906   3.844  11.730
11145SOL    HW235333  11.833   3.780  11.614
11146SOL     OW35334   2.824   2.295   7.401
11146SOL    HW135335   2.906   2.311   7.448
11146SOL    HW235336   2.841   2.215   7.350
11147SOL     OW35337   1.446   2.871  13.057
11147SOL    HW135338   1.515   2.813  13.088
11147SOL    HW235339   1.387   2.880  13.132
11148SOL     OW35340   9.227   2.278  13.362
11148SOL    HW135341   9.141   2.314  13.384
11148SOL    HW235342   9.211   2.185  13.347
11149SOL     OW35343   9.897  10.109   4.727
11149SOL    HW135344   9.942  10.174   4.672
11149SOL    HW235345   9.816  10.090   4.680
11150SOL     OW35346  11.147  11.162   0.994
11150SOL    HW135347  11.097  11.134   0.918
11150SOL    HW235348  11.163  11.081   1.043
11151SOL     OW35349  10.544   7.208   5.718
11151SOL    HW135350  10.523   7.255   5.798
11151SOL    HW235351  10.638   7.218   5.707
11152SOL     OW35352   4.873  10.495   0.998
11152SOL    HW135353   4.839  10.531   0.916
11152SOL    HW235354   4.929  10.564   1.033
11153SOL     OW35355   8.654  11.294   7.012
11153SOL    HW135356   8.663  11.326   7.102
11153SOL    HW235357   8.741  11.262   6.989
11154SOL     OW35358   3.808   3.207   6.828
11154SOL    HW135359   3.752   3.233   6.755
11154SOL    HW235360   3.860   3.135   6.794
11155SOL     OW35361  10.452   6.995   7.134
11155SOL    HW135362  10.449   6.901   7.152
11155SOL    HW235363  10.540   7.022   7.161
11156SOL     OW35364   2.025   2.102  10.729
11156SOL    HW135365   2.109   2.147  10.734
11156SOL    HW235366   1.978   2.146  10.658
11157SOL     OW35367   3.325   2.987   5.959
11157SOL    HW135368   3.397   2.946   6.008
11157SOL    HW235369   3.299   2.921   5.895
11158SOL     OW35370  11.534   7.416  13.940
11158SOL    HW135371  11.587   7.496  13.938
11158SOL    HW235372  11.501   7.411  14.029
11159SOL     OW35373  14.111  14.148   5.318
11159SOL    HW135374  14.185  14.168   5.376
11159SOL    HW235375  14.151  14.110   5.240
11160SOL     OW35376   1.469   5.431   9.275
11160SOL    HW135377   1.498   5.523   9.272
11160SOL    HW235378   1.484   5.405   9.366
11161SOL     OW35379   3.166   7.778   5.248
11161SOL    HW135380   3.114   7.722   5.191
11161SOL    HW235381   3.248   7.791   5.200
11162SOL     OW35382  13.806   8.521  14.706
11162SOL    HW135383  13.845   8.496  14.790
11162SOL    HW235384  13.734   8.579  14.730
11163SOL     OW35385  12.942  13.122  12.657
11163SOL    HW135386  12.971  13.156  12.742
11163SOL    HW235387  12.860  13.167  12.640
11164SOL     OW35388   1.461  13.612   5.921
11164SOL    HW135389   1.539  13.668   5.918
11164SOL    HW235390   1.462  13.564   5.838
11165SOL     OW35391  10.188   0.005   5.179
11165SOL    HW135392  10.277  14.865   5.145
11165SOL    HW235393  10.169  14.786   5.215
11166SOL     OW35394   0.052   1.850   9.560
11166SOL    HW135395   0.082   1.835   9.471
11166SOL    HW235396   0.083   1.773   9.609
11167SOL     OW35397   6.017   0.028  11.113
11167SOL    HW135398   5.959   0.042  11.188
11167SOL    HW235399   6.075  14.824  11.141
11168SOL     OW35400   4.206  11.233   5.332
11168SOL    HW135401   4.201  11.147   5.375
11168SOL    HW235402   4.126  11.278   5.359
11169SOL     OW35403  13.242  12.579  11.873
11169SOL    HW135404  13.189  12.557  11.949
11169SOL    HW235405  13.267  12.671  11.887
11170SOL     OW35406   0.497   4.320   0.939
11170SOL    HW135407   0.447   4.267   0.878
11170SOL    HW235408   0.483   4.410   0.910
11171SOL     OW35409   8.492   6.282   1.140
11171SOL    HW135410   8.446   6.310   1.219
11171SOL    HW235411   8.425   6.240   1.086
11172SOL     OW35412   7.133   1.393  12.668
11172SOL    HW135413   7.116   1.393  12.574
11172SOL    HW235414   7.150   1.302  12.689
11173SOL     OW35415   5.662  13.879  14.654
11173SOL    HW135416   5.734  13.830  14.615
11173SOL    HW235417   5.659  13.848  14.745
11174SOL     OW35418   7.122   9.471   4.808
11174SOL    HW135419   7.179   9.409   4.764
11174SOL    HW235420   7.107   9.433   4.895
11175SOL     OW35421   8.084   1.278   1.422
11175SOL    HW135422   8.044   1.363   1.402
11175SOL    HW235423   8.104   1.240   1.336
11176SOL     OW35424   7.469   0.887   1.543
11176SOL    HW135425   7.453   0.946   1.616
11176SOL    HW235426   7.558   0.909   1.515
11177SOL     OW35427   4.544   6.127   4.945
11177SOL    HW135428   4.607   6.056   4.938
11177SOL    HW235429   4.477   6.094   5.006
11178SOL     OW35430   2.813   5.139  12.871
11178SOL    HW135431   2.746   5.083  12.833
11178SOL    HW235432   2.809   5.121  12.965
11179SOL     OW35433   1.436   2.276   8.400
11179SOL    HW135434   1.416   2.197   8.350
11179SOL    HW235435   1.431   2.249   8.492
11180SOL     OW35436  10.568  14.193  13.460
11180SOL    HW135437  10.603  14.210  13.372
11180SOL    HW235438  10.591  14.102  13.477
11181SOL     OW35439  10.696   6.199   6.919
11181SOL    HW135440  10.676   6.105   6.924
11181SOL    HW235441  10.761   6.206   6.848
11182SOL     OW35442   0.034  11.754  10.935
11182SOL    HW135443   0.026  11.819  10.865
11182SOL    HW235444   0.053  11.804  11.014
11183SOL     OW35445   8.762   8.886   4.709
11183SOL    HW135446   8.793   8.879   4.618
11183SOL    HW235447   8.780   8.799   4.746
11184SOL     OW35448   5.268   2.078   1.366
11184SOL    HW135449   5.278   1.988   1.396
11184SOL    HW235450   5.310   2.080   1.280
11185SOL     OW35451   3.224   5.143   5.594
11185SOL    HW135452   3.136   5.182   5.592
11185SOL    HW235453   3.242   5.128   5.686
11186SOL     OW35454   6.027   2.113   1.352
11186SOL    HW135455   5.980   2.146   1.275
11186SOL    HW235456   6.041   2.190   1.406
11187SOL     OW35457   0.156   7.227  13.676
11187SOL    HW135458   0.252   7.220  13.684
11187SOL    HW235459   0.124   7.227  13.766
11188SOL     OW35460   3.781  12.305   0.493
11188SOL    HW135461   3.813  12.228   0.539
11188SOL    HW235462   3.716  12.343   0.552
11189SOL     OW35463   5.783   7.680   8.707
11189SOL    HW135464   5.724   7.745   8.744
11189SOL    HW235465   5.847   7.663   8.776
11190SOL     OW35466   9.605  12.291  11.449
11190SOL    HW135467   9.612  12.364  11.386
11190SOL    HW235468   9.511  12.282  11.463
11191SOL     OW35469   7.584  12.421   7.400
11191SOL    HW135470   7.512  12.438   7.339
11191SOL    HW235471   7.663  12.427   7.346
11192SOL     OW35472  11.696   7.903   8.154
11192SOL    HW135473  11.724   7.823   8.199
11192SOL    HW235474  11.651   7.954   8.221
11193SOL     OW35475   0.315  13.302   3.686
11193SOL    HW135476   0.378  13.252   3.737
11193SOL    HW235477   0.315  13.389   3.726
11194SOL     OW35478   1.351   3.474   4.472
11194SOL    HW135479   1.416   3.472   4.402
11194SOL    HW235480   1.326   3.382   4.484
11195SOL     OW35481  11.799   6.514   0.014
11195SOL    HW135482  11.714   6.556   0.009
11195SOL    HW235483  11.780   6.421   0.027
11196SOL     OW35484   8.404   6.142   3.715
11196SOL    HW135485   8.386   6.079   3.785
11196SOL    HW235486   8.319   6.160   3.676
11197SOL     OW35487   9.798   2.563   1.915
11197SOL    HW135488   9.720   2.605   1.951
11197SOL    HW235489   9.766   2.481   1.877
11198SOL     OW35490  11.532  10.585   2.406
11198SOL    HW135491  11.468  10.513   2.406
11198SOL    HW235492  11.575  10.579   2.321
11199SOL     OW35493  10.386  14.268   9.146
11199SOL    HW135494  10.299  14.309   9.151
11199SOL    HW235495  10.371  14.188   9.096
11200SOL     OW35496   8.996  14.380   9.586
11200SOL    HW135497   8.966  14.289   9.582
11200SOL    HW235498   8.955  14.415   9.666
11201SOL     OW35499  11.803  11.537   1.039
11201SOL    HW135500  11.779  11.478   0.967
11201SOL    HW235501  11.744  11.512   1.110
11202SOL     OW35502  10.688   3.052   3.895
11202SOL    HW135503  10.720   3.140   3.874
11202SOL    HW235504  10.605   3.045   3.848
11203SOL     OW35505   5.170   9.157  12.662
11203SOL    HW135506   5.077   9.139  12.650
11203SOL    HW235507   5.212   9.071  12.654
11204SOL     OW35508   7.696  14.844  14.020
11204SOL    HW135509   7.678  14.846  13.926
11204SOL    HW235510   7.746  14.763  14.033
11205SOL     OW35511   6.754   3.417   2.720
11205SOL    HW135512   6.844   3.440   2.744
11205SOL    HW235513   6.714   3.388   2.802
11206SOL     OW35514   4.316  14.078  11.857
11206SOL    HW135515   4.404  14.113  11.870
11206SOL    HW235516   4.327  14.011  11.789
11207SOL     OW35517   1.826  12.574   5.441
11207SOL    HW135518   1.735  12.556   5.462
11207SOL    HW235519   1.827  12.666   5.415
11208SOL     OW35520   6.097   2.251  11.916
11208SOL    HW135521   6.111   2.345  11.911
11208SOL    HW235522   6.002   2.240  11.913
11209SOL     OW35523  11.568   0.459   0.386
11209SOL    HW135524  11.616   0.389   0.431
11209SOL    HW235525  11.481   0.457   0.425
11210SOL     OW35526   1.789   3.260   8.235
11210SOL    HW135527   1.794   3.197   8.307
11210SOL    HW235528   1.880   3.286   8.220
11211SOL     OW35529   2.497  13.178   9.705
11211SOL    HW135530   2.563  13.138   9.762
11211SOL    HW235531   2.543  13.195   9.623
11212SOL     OW35532   3.144   1.868  11.199
11212SOL    HW135533   3.228   1.889  11.158
11212SOL    HW235534   3.091   1.948  11.188
11213SOL     OW35535   5.535   9.625   1.419
11213SOL    HW135536   5.582   9.566   1.361
11213SOL    HW235537   5.524   9.576   1.500
11214SOL     OW35538   5.650   8.824   2.611
11214SOL    HW135539   5.601   8.833   2.530
11214SOL    HW235540   5.583   8.824   2.680
11215SOL     OW35541   1.333   2.877   5.931
11215SOL    HW135542   1.343   2.866   6.025
11215SOL    HW235543   1.291   2.796   5.902
11216SOL     OW35544   4.717  14.132   0.436
11216SOL    HW135545   4.716  14.198   0.367
11216SOL    HW235546   4.761  14.175   0.509
11217SOL     OW35547   4.305   1.627  14.699
11217SOL    HW135548   4.229   1.574  14.724
11217SOL    HW235549   4.272   1.683  14.628
11218SOL     OW35550   4.639   6.950  12.972
11218SOL    HW135551   4.669   7.034  12.936
11218SOL    HW235552   4.556   6.970  13.014
11219SOL     OW35553  12.185  11.464  12.346
11219SOL    HW135554  12.207  11.557  12.357
11219SOL    HW235555  12.142  11.439  12.428
11220SOL     OW35556  10.838   7.490  11.443
11220SOL    HW135557  10.761   7.546  11.435
11220SOL    HW235558  10.912   7.550  11.451
11221SOL     OW35559   6.019  12.388   7.981
11221SOL    HW135560   6.115  12.389   7.979
11221SOL    HW235561   5.993  12.423   7.896
11222SOL     OW35562   3.539  14.262   6.284
11222SOL    HW135563   3.494  14.299   6.207
11222SOL    HW235564   3.565  14.174   6.257
11223SOL     OW35565   0.939   9.287   0.784
11223SOL    HW135566   0.924   9.198   0.753
11223SOL    HW235567   0.869   9.339   0.744
11224SOL     OW35568   1.986   0.522   7.262
11224SOL    HW135569   2.032   0.440   7.279
11224SOL    HW235570   1.971   0.559   7.349
11225SOL     OW35571   3.232   0.973  14.542
11225SOL    HW135572   3.177   0.980  14.464
11225SOL    HW235573   3.256   0.881  14.546
11226SOL     OW35574  10.529   8.455  11.818
11226SOL    HW135575  10.481   8.378  11.789
11226SOL    HW235576  10.498   8.471  11.907
11227SOL     OW35577  14.219  14.684   3.089
11227SOL    HW135578  14.151  14.623   3.062
11227SOL    HW235579  14.214  14.756   3.026
11228SOL     OW35580   1.726   9.930  12.861
11228SOL    HW135581   1.785   9.905  12.932
11228SOL    HW235582   1.727   9.855  12.802
11229SOL     OW35583   8.932   8.464   6.802
11229SOL    HW135584   8.866   8.399   6.778
11229SOL    HW235585   8.990   8.469   6.726
11230SOL     OW35586   4.474  13.744   2.989
11230SOL    HW135587   4.553  13.743   2.936
11230SOL    HW235588   4.458  13.652   3.010
11231SOL     OW35589   2.751  10.429   0.129
11231SOL    HW135590   2.836  10.395   0.156
11231SOL    HW235591   2.729  10.495   0.195
11232SOL     OW35592   7.332   5.313  10.659
11232SOL    HW135593   7.401   5.250  10.640
11232SOL    HW235594   7.300   5.288  10.746
11233SOL     OW35595  10.955   7.208  11.878
11233SOL    HW135596  10.878   7.185  11.826
11233SOL    HW235597  10.983   7.292  11.842
11234SOL     OW35598   1.131  13.333   2.167
11234SOL    HW135599   1.222  13.303   2.177
11234SOL    HW235600   1.138  13.421   2.130
11235SOL     OW35601  14.496   9.006  14.587
11235SOL    HW135602  14.548   9.065  14.641
11235SOL    HW235603  14.441   8.958  14.649
11236SOL     OW35604  12.551   9.790   2.823
11236SOL    HW135605  12.631   9.804   2.773
11236SOL    HW235606  12.570   9.827   2.909
11237SOL     OW35607   0.051  14.083   2.116
11237SOL    HW135608   0.019  14.086   2.206
11237SOL    HW235609   0.064  14.174   2.092
11238SOL     OW35610   1.789   0.703   9.357
11238SOL    HW135611   1.801   0.615   9.320
11238SOL    HW235612   1.855   0.757   9.313
11239SOL     OW35613   1.955   5.021   3.039
11239SOL    HW135614   1.979   4.931   3.021
11239SOL    HW235615   1.984   5.070   2.962
11240SOL     OW35616   5.405   7.922  12.620
11240SOL    HW135617   5.381   8.002  12.574
11240SOL    HW235618   5.340   7.914  12.690
11241SOL     OW35619   7.016  11.555   4.069
11241SOL    HW135620   6.987  11.552   3.978
11241SOL    HW235621   6.996  11.644   4.098
11242SOL     OW35622   2.446  12.023   1.596
11242SOL    HW135623   2.406  11.940   1.568
11242SOL    HW235624   2.487  12.057   1.516
11243SOL     OW35625  11.249  11.172   3.619
11243SOL    HW135626  11.305  11.247   3.638
11243SOL    HW235627  11.254  11.118   3.698
11244SOL     OW35628   0.702  10.874   2.314
11244SOL    HW135629   0.747  10.937   2.371
11244SOL    HW235630   0.639  10.927   2.265
11245SOL     OW35631   8.919   1.009   4.790
11245SOL    HW135632   8.893   1.090   4.746
11245SOL    HW235633   9.010   0.997   4.766
11246SOL     OW35634   0.002   4.886  11.915
11246SOL    HW135635  14.833   4.800  11.933
11246SOL    HW235636  14.797   4.947  11.929
11247SOL     OW35637   1.844  12.378   0.143
11247SOL    HW135638   1.761  12.358   0.100
11247SOL    HW235639   1.853  12.308   0.209
11248SOL     OW35640   7.633   9.136   3.390
11248SOL    HW135641   7.594   9.053   3.362
11248SOL    HW235642   7.700   9.155   3.324
11249SOL     OW35643  10.156   1.006  14.050
11249SOL    HW135644  10.209   0.994  13.971
11249SOL    HW235645  10.131   0.918  14.076
11250SOL     OW35646  11.844  11.256   5.769
11250SOL    HW135647  11.930  11.221   5.744
11250SOL    HW235648  11.852  11.350   5.756
11251SOL     OW35649  10.700   1.143   1.910
11251SOL    HW135650  10.652   1.195   1.846
11251SOL    HW235651  10.773   1.106   1.861
11252SOL     OW35652  10.764  11.047   0.002
11252SOL    HW135653  10.733  11.110  14.805
11252SOL    HW235654  10.826  10.992  14.823
11253SOL     OW35655   2.452   9.672  12.074
11253SOL    HW135656   2.471   9.638  12.162
11253SOL    HW235657   2.517   9.631  12.018
11254SOL     OW35658  11.754   7.980   5.691
11254SOL    HW135659  11.719   7.979   5.780
11254SOL    HW235660  11.679   7.959   5.635
11255SOL     OW35661   4.362   1.930  11.992
11255SOL    HW135662   4.320   1.996  11.936
11255SOL    HW235663   4.322   1.944  12.078
11256SOL     OW35664   5.135  14.058  11.495
11256SOL    HW135665   5.063  13.996  11.505
11256SOL    HW235666   5.179  14.058  11.580
11257SOL     OW35667  12.789  12.137  10.928
11257SOL    HW135668  12.754  12.218  10.964
11257SOL    HW235669  12.868  12.120  10.979
11258SOL     OW35670  11.984  11.264   8.646
11258SOL    HW135671  11.927  11.282   8.721
11258SOL    HW235672  12.050  11.204   8.679
11259SOL     OW35673  12.415   2.226   2.970
11259SOL    HW135674  12.491   2.264   2.926
11259SOL    HW235675  12.348   2.295   2.968
11260SOL     OW35676   9.055  10.884   0.785
11260SOL    HW135677   9.012  10.810   0.827
11260SOL    HW235678   8.986  10.926   0.734
11261SOL     OW35679   5.892   0.644   3.985
11261SOL    HW135680   5.859   0.571   4.039
11261SOL    HW235681   5.899   0.607   3.897
11262SOL     OW35682   1.334  11.486  14.479
11262SOL    HW135683   1.399  11.492  14.549
11262SOL    HW235684   1.374  11.427  14.415
11263SOL     OW35685   4.097   1.312   0.754
11263SOL    HW135686   4.021   1.353   0.713
11263SOL    HW235687   4.066   1.284   0.841
11264SOL     OW35688   1.169   3.214  12.010
11264SOL    HW135689   1.209   3.297  11.987
11264SOL    HW235690   1.174   3.210  12.106
11265SOL     OW35691   3.431  10.649   4.896
11265SOL    HW135692   3.441  10.677   4.987
11265SOL    HW235693   3.502  10.586   4.882
11266SOL     OW35694   5.246   7.970   3.754
11266SOL    HW135695   5.238   7.903   3.822
11266SOL    HW235696   5.340   7.975   3.736
11267SOL     OW35697   5.794   9.321   1.829
11267SOL    HW135698   5.742   9.383   1.880
11267SOL    HW235699   5.872   9.305   1.882
11268SOL     OW35700   0.360   5.983   0.509
11268SOL    HW135701   0.409   5.901   0.510
11268SOL    HW235702   0.268   5.957   0.514
11269SOL     OW35703   4.965   5.562   6.368
11269SOL    HW135704   4.969   5.488   6.428
11269SOL    HW235705   5.048   5.559   6.320
11270SOL     OW35706   9.485   9.560   3.296
11270SOL    HW135707   9.508   9.526   3.382
11270SOL    HW235708   9.567   9.599   3.264
11271SOL     OW35709   4.269   1.117   9.955
11271SOL    HW135710   4.298   1.126   9.865
11271SOL    HW235711   4.265   1.023   9.970
11272SOL     OW35712   7.829   0.308   7.668
11272SOL    HW135713   7.873   0.389   7.694
11272SOL    HW235714   7.841   0.250   7.743
11273SOL     OW35715   6.360   4.941   9.352
11273SOL    HW135716   6.406   4.959   9.270
11273SOL    HW235717   6.376   5.018   9.407
11274SOL     OW35718   5.067  13.464  12.997
11274SOL    HW135719   5.027  13.470  13.083
11274SOL    HW235720   4.999  13.424  12.942
11275SOL     OW35721   6.478   7.767   7.565
11275SOL    HW135722   6.447   7.679   7.586
11275SOL    HW235723   6.398   7.819   7.556
11276SOL     OW35724   3.775   5.461   2.664
11276SOL    HW135725   3.808   5.541   2.622
11276SOL    HW235726   3.854   5.408   2.677
11277SOL     OW35727   8.665  14.166   3.948
11277SOL    HW135728   8.748  14.121   3.930
11277SOL    HW235729   8.678  14.255   3.915
11278SOL     OW35730   4.627   4.652  11.350
11278SOL    HW135731   4.648   4.736  11.310
11278SOL    HW235732   4.614   4.592  11.276
11279SOL     OW35733   8.979   5.792   9.120
11279SOL    HW135734   9.031   5.800   9.040
11279SOL    HW235735   8.950   5.882   9.138
11280SOL     OW35736   0.398   0.223   9.163
11280SOL    HW135737   0.432   0.205   9.075
11280SOL    HW235738   0.466   0.275   9.205
11281SOL     OW35739  12.559   9.097   9.460
11281SOL    HW135740  12.477   9.055   9.486
11281SOL    HW235741  12.599   9.126   9.542
11282SOL     OW35742   9.364   8.103   4.383
11282SOL    HW135743   9.416   8.098   4.463
11282SOL    HW235744   9.404   8.039   4.324
11283SOL     OW35745   2.788   8.466   7.389
11283SOL    HW135746   2.775   8.491   7.298
11283SOL    HW235747   2.860   8.521   7.419
11284SOL     OW35748   4.853   8.798  11.310
11284SOL    HW135749   4.905   8.825  11.235
11284SOL    HW235750   4.890   8.847  11.384
11285SOL     OW35751  11.352   4.433   5.441
11285SOL    HW135752  11.326   4.351   5.397
11285SOL    HW235753  11.402   4.405   5.517
11286SOL     OW35754   9.613   3.582   1.226
11286SOL    HW135755   9.633   3.672   1.252
11286SOL    HW235756   9.593   3.587   1.133
11287SOL     OW35757   5.011  12.449   4.326
11287SOL    HW135758   4.951  12.516   4.359
11287SOL    HW235759   5.036  12.398   4.403
11288SOL     OW35760  11.712   8.134  10.524
11288SOL    HW135761  11.777   8.147  10.594
11288SOL    HW235762  11.716   8.214  10.472
11289SOL     OW35763   0.785   7.398   3.058
11289SOL    HW135764   0.799   7.444   2.975
11289SOL    HW235765   0.722   7.330   3.038
11290SOL     OW35766  11.807   4.730   4.344
11290SOL    HW135767  11.828   4.653   4.291
11290SOL    HW235768  11.849   4.803   4.298
11291SOL     OW35769   7.420  10.447   5.601
11291SOL    HW135770   7.451  10.523   5.650
11291SOL    HW235771   7.361  10.402   5.662
11292SOL     OW35772   6.594  14.501  10.182
11292SOL    HW135773   6.665  14.565  10.178
11292SOL    HW235774   6.517  14.549  10.151
11293SOL     OW35775  12.816  12.672   8.574
11293SOL    HW135776  12.728  12.688   8.607
11293SOL    HW235777  12.862  12.630   8.646
11294SOL     OW35778   5.987   4.098   1.423
11294SOL    HW135779   6.016   4.137   1.341
11294SOL    HW235780   5.926   4.162   1.460
11295SOL     OW35781   1.110  12.618   3.662
11295SOL    HW135782   1.075  12.637   3.574
11295SOL    HW235783   1.183  12.679   3.672
11296SOL     OW35784   7.226  13.591   2.952
11296SOL    HW135785   7.302  13.546   2.914
11296SOL    HW235786   7.263  13.665   2.999
11297SOL     OW35787  13.390   8.821  12.925
11297SOL    HW135788  13.438   8.904  12.930
11297SOL    HW235789  13.352   8.810  13.012
11298SOL     OW35790   9.329   1.331   0.859
11298SOL    HW135791   9.418   1.296   0.870
11298SOL    HW235792   9.331   1.415   0.905
11299SOL     OW35793   0.573  10.683  14.335
11299SOL    HW135794   0.548  10.776  14.344
11299SOL    HW235795   0.658  10.677  14.378
11300SOL     OW35796   6.710   5.201   9.157
11300SOL    HW135797   6.743   5.287   9.184
11300SOL    HW235798   6.690   5.212   9.064
11301SOL     OW35799   1.135   5.312  11.357
11301SOL    HW135800   1.181   5.387  11.319
11301SOL    HW235801   1.186   5.236  11.329
11302SOL     OW35802  12.471   6.467   3.095
11302SOL    HW135803  12.457   6.529   3.024
11302SOL    HW235804  12.545   6.504   3.145
11303SOL     OW35805  14.187   4.815  12.606
11303SOL    HW135806  14.262   4.756  12.619
11303SOL    HW235807  14.225   4.902  12.610
11304SOL     OW35808   5.103  11.037   5.826
11304SOL    HW135809   5.060  10.974   5.884
11304SOL    HW235810   5.197  11.025   5.843
11305SOL     OW35811  14.141  13.457  10.426
11305SOL    HW135812  14.142  13.551  10.443
11305SOL    HW235813  14.158  13.449  10.332
11306SOL     OW35814   8.570   2.147   0.835
11306SOL    HW135815   8.512   2.222   0.851
11306SOL    HW235816   8.647   2.164   0.890
11307SOL     OW35817   9.644   1.846   2.214
11307SOL    HW135818   9.682   1.859   2.301
11307SOL    HW235819   9.667   1.756   2.192
11308SOL     OW35820   3.438  10.737  14.428
11308SOL    HW135821   3.397  10.706  14.508
11308SOL    HW235822   3.531  10.714  14.439
11309SOL     OW35823  14.326   6.744   9.755
11309SOL    HW135824  14.296   6.824   9.713
11309SOL    HW235825  14.406   6.720   9.707
11310SOL     OW35826   1.718  11.601  10.255
11310SOL    HW135827   1.693  11.693  10.256
11310SOL    HW235828   1.760  11.586  10.339
11311SOL     OW35829   1.468  10.026   0.201
11311SOL    HW135830   1.540   9.963   0.208
11311SOL    HW235831   1.508  10.111   0.221
11312SOL     OW35832   6.918   3.836  13.741
11312SOL    HW135833   6.983   3.801  13.679
11312SOL    HW235834   6.966   3.901  13.792
11313SOL     OW35835  12.152   6.445  14.139
11313SOL    HW135836  12.120   6.361  14.172
11313SOL    HW235837  12.082   6.478  14.083
11314SOL     OW35838   3.817   1.854  13.825
11314SOL    HW135839   3.837   1.765  13.795
11314SOL    HW235840   3.878   1.870  13.896
11315SOL     OW35841  11.316  14.237  13.939
11315SOL    HW135842  11.308  14.181  13.862
11315SOL    HW235843  11.305  14.178  14.013
11316SOL     OW35844  14.828  12.793   1.189
11316SOL    HW135845   0.021  12.803   1.261
11316SOL    HW235846  14.765  12.864   1.200
11317SOL     OW35847  10.805  10.222  14.353
11317SOL    HW135848  10.807  10.317  14.342
11317SOL    HW235849  10.780  10.209  14.444
11318SOL     OW35850  10.798   7.865   8.250
11318SOL    HW135851  10.870   7.928   8.248
11318SOL    HW235852  10.791   7.834   8.160
11319SOL     OW35853  10.248   5.645   9.244
11319SOL    HW135854  10.163   5.685   9.228
11319SOL    HW235855  10.229   5.571   9.302
11320SOL     OW35856   1.032   0.099   0.805
11320SOL    HW135857   1.083   0.097   0.724
11320SOL    HW235858   1.053   0.016   0.848
11321SOL     OW35859   9.848   7.509   8.566
11321SOL    HW135860   9.865   7.425   8.610
11321SOL    HW235861   9.754   7.523   8.576
11322SOL     OW35862   6.598  14.303  14.203
11322SOL    HW135863   6.517  14.349  14.182
11322SOL    HW235864   6.582  14.213  14.173
11323SOL     OW35865  10.056  12.008   5.819
11323SOL    HW135866  10.101  11.935   5.862
11323SOL    HW235867   9.983  11.966   5.772
11324SOL     OW35868   4.132  14.534  13.286
11324SOL    HW135869   4.102  14.444  13.283
11324SOL    HW235870   4.099  14.574  13.206
11325SOL     OW35871   8.020  10.470  14.771
11325SOL    HW135872   7.990  10.460  14.681
11325SOL    HW235873   8.116  10.467  14.764
11326SOL     OW35874   4.906  12.454  10.811
11326SOL    HW135875   4.828  12.418  10.855
11326SOL    HW235876   4.931  12.386  10.749
11327SOL     OW35877  13.338   0.742   1.242
11327SOL    HW135878  13.366   0.672   1.300
11327SOL    HW235879  13.370   0.715   1.156
11328SOL     OW35880   6.041  11.933   6.923
11328SOL    HW135881   6.073  11.994   6.856
11328SOL    HW235882   6.075  11.848   6.896
11329SOL     OW35883  13.275  11.243   6.604
11329SOL    HW135884  13.335  11.227   6.531
11329SOL    HW235885  13.332  11.267   6.677
11330SOL     OW35886  11.423   7.444   7.319
11330SOL    HW135887  11.403   7.384   7.391
11330SOL    HW235888  11.341   7.491   7.304
11331SOL     OW35889  13.756   7.851  10.702
11331SOL    HW135890  13.726   7.916  10.766
11331SOL    HW235891  13.694   7.778  10.711
11332SOL     OW35892   7.760  14.572   6.184
11332SOL    HW135893   7.837  14.578   6.240
11332SOL    HW235894   7.717  14.658   6.193
11333SOL     OW35895  10.417   8.702   8.761
11333SOL    HW135896  10.438   8.650   8.684
11333SOL    HW235897  10.501   8.739   8.788
11334SOL     OW35898   7.149  10.324   4.121
11334SOL    HW135899   7.230  10.325   4.070
11334SOL    HW235900   7.082  10.293   4.061
11335SOL     OW35901   5.696  10.251  14.716
11335SOL    HW135902   5.738  10.334  14.741
11335SOL    HW235903   5.747  10.220  14.642
11336SOL     OW35904  11.479  10.206   7.158
11336SOL    HW135905  11.540  10.229   7.089
11336SOL    HW235906  11.530  10.154   7.220
11337SOL     OW35907  12.916  13.978   5.722
11337SOL    HW135908  12.856  14.007   5.652
11337SOL    HW235909  12.859  13.951   5.793
11338SOL     OW35910  11.714   5.403   8.745
11338SOL    HW135911  11.667   5.345   8.804
11338SOL    HW235912  11.689   5.491   8.773
11339SOL     OW35913   7.342  12.071  12.346
11339SOL    HW135914   7.437  12.076  12.355
11339SOL    HW235915   7.313  12.015  12.418
11340SOL     OW35916   9.786  12.701  12.403
11340SOL    HW135917   9.840  12.763  12.355
11340SOL    HW235918   9.742  12.649  12.335
11341SOL     OW35919   0.417  10.791   2.795
11341SOL    HW135920   0.349  10.739   2.754
11341SOL    HW235921   0.424  10.756   2.884
11342SOL     OW35922   6.768  14.452   8.330
11342SOL    HW135923   6.701  14.521   8.336
11342SOL    HW235924   6.740  14.386   8.395
11343SOL     OW35925   7.753   7.622  13.665
11343SOL    HW135926   7.823   7.568  13.703
11343SOL    HW235927   7.700   7.559  13.616
11344SOL     OW35928   0.894   4.039  10.180
11344SOL    HW135929   0.957   3.994  10.123
11344SOL    HW235930   0.810   3.997  10.160
11345SOL     OW35931  11.415   8.840   4.953
11345SOL    HW135932  11.410   8.934   4.965
11345SOL    HW235933  11.428   8.805   5.041
11346SOL     OW35934  10.529  14.581   0.899
11346SOL    HW135935  10.623  14.585   0.884
11346SOL    HW235936  10.510  14.487   0.909
11347SOL     OW35937   9.138   3.805   1.918
11347SOL    HW135938   9.085   3.793   1.997
11347SOL    HW235939   9.159   3.899   1.918
11348SOL     OW35940  12.847   7.301  14.461
11348SOL    HW135941  12.879   7.211  14.464
11348SOL    HW235942  12.805   7.314  14.546
11349SOL     OW35943  11.141   8.384  12.567
11349SOL    HW135944  11.198   8.324  12.614
11349SOL    HW235945  11.197   8.423  12.500
11350SOL     OW35946  11.449   7.694   5.158
11350SOL    HW135947  11.420   7.632   5.092
11350SOL    HW235948  11.491   7.641   5.225
11351SOL     OW35949   8.455  12.219   1.158
11351SOL    HW135950   8.434  12.155   1.090
11351SOL    HW235951   8.373  12.267   1.172
11352SOL     OW35952  14.758   2.668   7.356
11352SOL    HW135953  14.785   2.712   7.437
11352SOL    HW235954  14.831   2.610   7.336
11353SOL     OW35955  12.516  11.533   0.905
11353SOL    HW135956  12.591  11.550   0.961
11353SOL    HW235957  12.547  11.469   0.841
11354SOL     OW35958   0.627   1.577   0.263
11354SOL    HW135959   0.571   1.650   0.238
11354SOL    HW235960   0.708   1.591   0.212
11355SOL     OW35961  13.576  12.448  10.177
11355SOL    HW135962  13.524  12.400  10.242
11355SOL    HW235963  13.528  12.436  10.095
11356SOL     OW35964   7.688   6.127  11.792
11356SOL    HW135965   7.685   6.038  11.827
11356SOL    HW235966   7.624   6.175  11.844
11357SOL     OW35967   2.751  12.198   8.878
11357SOL    HW135968   2.671  12.247   8.860
11357SOL    HW235969   2.821  12.253   8.842
11358SOL     OW35970   4.106  11.812  11.230
11358SOL    HW135971   4.146  11.764  11.303
11358SOL    HW235972   4.116  11.754  11.155
11359SOL     OW35973  10.017  14.098   5.655
11359SOL    HW135974  10.039  14.192   5.659
11359SOL    HW235975   9.923  14.096   5.637
11360SOL     OW35976  13.369   5.021   7.669
11360SOL    HW135977  13.428   5.089   7.701
11360SOL    HW235978  13.386   5.016   7.575
11361SOL     OW35979   9.371  10.096  12.102
11361SOL    HW135980   9.399  10.115  12.012
11361SOL    HW235981   9.452  10.074  12.148
11362SOL     OW35982   2.845   9.252   0.735
11362SOL    HW135983   2.820   9.164   0.706
11362SOL    HW235984   2.932   9.265   0.697
11363SOL     OW35985   2.318   5.142  10.991
11363SOL    HW135986   2.387   5.099  11.043
11363SOL    HW235987   2.260   5.071  10.965
11364SOL     OW35988  11.486   6.142   9.934
11364SOL    HW135989  11.533   6.165   9.854
11364SOL    HW235990  11.395   6.165   9.915
11365SOL     OW35991   9.125   6.763  12.956
11365SOL    HW135992   9.071   6.724  12.887
11365SOL    HW235993   9.118   6.857  12.942
11366SOL     OW35994   7.628  13.138   2.293
11366SOL    HW135995   7.711  13.186   2.285
11366SOL    HW235996   7.563  13.194   2.250
11367SOL     OW35997   0.626   6.037   2.377
11367SOL    HW135998   0.649   6.003   2.463
11367SOL    HW235999   0.535   6.009   2.364
11368SOL     OW36000   3.899   7.820   3.586
11368SOL    HW136001   3.976   7.869   3.613
11368SOL    HW236002   3.925   7.777   3.505
11369SOL     OW36003  12.332  11.162   7.263
11369SOL    HW136004  12.333  11.232   7.199
11369SOL    HW236005  12.294  11.088   7.217
11370SOL     OW36006   5.900  13.342  14.566
11370SOL    HW136007   5.956  13.268  14.588
11370SOL    HW236008   5.811  13.307  14.569
11371SOL     OW36009  14.723  12.589  12.408
11371SOL    HW136010  14.796  12.527  12.414
11371SOL    HW236011  14.645  12.535  12.420
11372SOL     OW36012   8.619   0.533   2.126
11372SOL    HW136013   8.671   0.528   2.206
11372SOL    HW236014   8.605   0.442   2.100
11373SOL     OW36015   3.172   7.426  10.549
11373SOL    HW136016   3.216   7.424  10.634
11373SOL    HW236017   3.141   7.336  10.536
11374SOL     OW36018   9.528  14.410  13.991
11374SOL    HW136019   9.575  14.490  13.966
11374SOL    HW236020   9.488  14.432  14.075
11375SOL     OW36021   2.493   5.781  14.557
11375SOL    HW136022   2.453   5.866  14.577
11375SOL    HW236023   2.545   5.798  14.478
11376SOL     OW36024   5.091   0.173  11.640
11376SOL    HW136025   5.031   0.146  11.570
11376SOL    HW236026   5.086   0.101  11.704
11377SOL     OW36027   2.745   1.428   4.031
11377SOL    HW136028   2.703   1.430   4.117
11377SOL    HW236029   2.839   1.432   4.050
11378SOL     OW36030   8.121  10.478  11.648
11378SOL    HW136031   8.098  10.495  11.740
11378SOL    HW236032   8.037  10.471  11.603
11379SOL     OW36033   2.192   9.479   1.789
11379SOL    HW136034   2.195   9.524   1.705
11379SOL    HW236035   2.184   9.386   1.768
11380SOL     OW36036  12.676   3.205  10.411
11380SOL    HW136037  12.634   3.169  10.489
11380SOL    HW236038  12.680   3.299  10.426
11381SOL     OW36039   7.837   2.455   2.346
11381SOL    HW136040   7.850   2.548   2.364
11381SOL    HW236041   7.863   2.444   2.254
11382SOL     OW36042   4.012   5.688   7.515
11382SOL    HW136043   3.991   5.745   7.441
11382SOL    HW236044   3.931   5.640   7.532
11383SOL     OW36045  11.659   9.028   9.437
11383SOL    HW136046  11.678   8.941   9.401
11383SOL    HW236047  11.687   9.022   9.529
11384SOL     OW36048   7.694   4.895   3.197
11384SOL    HW136049   7.678   4.978   3.242
11384SOL    HW236050   7.690   4.830   3.267
11385SOL     OW36051   9.813  14.110  13.729
11385SOL    HW136052   9.873  14.146  13.663
11385SOL    HW236053   9.730  14.155  13.713
11386SOL     OW36054   1.053   8.606   1.430
11386SOL    HW136055   1.123   8.665   1.401
11386SOL    HW236056   1.080   8.579   1.517
11387SOL     OW36057   8.254   9.935   5.413
11387SOL    HW136058   8.175   9.910   5.461
11387SOL    HW236059   8.325   9.889   5.458
11388SOL     OW36060  14.585   4.008   6.897
11388SOL    HW136061  14.553   4.055   6.974
11388SOL    HW236062  14.510   3.957   6.867
11389SOL     OW36063  12.169  10.458   3.770
11389SOL    HW136064  12.221  10.384   3.800
11389SOL    HW236065  12.082  10.443   3.805
11390SOL     OW36066   1.979   1.787  14.205
11390SOL    HW136067   2.060   1.740  14.225
11390SOL    HW236068   1.995   1.876  14.236
11391SOL     OW36069  11.562  14.113   8.377
11391SOL    HW136070  11.647  14.144   8.408
11391SOL    HW236071  11.547  14.032   8.426
11392SOL     OW36072   6.014  13.088   3.171
11392SOL    HW136073   5.944  13.150   3.193
11392SOL    HW236074   5.967  13.009   3.144
11393SOL     OW36075   0.591   8.475  12.115
11393SOL    HW136076   0.625   8.438  12.197
11393SOL    HW236077   0.543   8.554  12.143
11394SOL     OW36078   1.345  11.159   2.767
11394SOL    HW136079   1.252  11.165   2.790
11394SOL    HW236080   1.386  11.233   2.812
11395SOL     OW36081   8.517  10.378   7.612
11395SOL    HW136082   8.525  10.392   7.706
11395SOL    HW236083   8.426  10.401   7.592
11396SOL     OW36084   2.300   5.955   9.193
11396SOL    HW136085   2.334   5.894   9.127
11396SOL    HW236086   2.378   5.982   9.242
11397SOL     OW36087   4.083   4.534   6.446
11397SOL    HW136088   4.105   4.441   6.454
11397SOL    HW236089   4.013   4.536   6.380
11398SOL     OW36090   6.407  12.804  10.322
11398SOL    HW136091   6.493  12.797  10.364
11398SOL    HW236092   6.351  12.841  10.390
11399SOL     OW36093   5.894  14.363   8.766
11399SOL    HW136094   5.898  14.423   8.841
11399SOL    HW236095   5.856  14.283   8.801
11400SOL     OW36096  14.121   3.550  12.409
11400SOL    HW136097  14.204   3.552  12.361
11400SOL    HW236098  14.063   3.607  12.359
11401SOL     OW36099   6.871  12.422   3.883
11401SOL    HW136100   6.792  12.387   3.924
11401SOL    HW236101   6.874  12.513   3.911
11402SOL     OW36102   6.817  10.817  11.362
11402SOL    HW136103   6.880  10.877  11.402
11402SOL    HW236104   6.870  10.753  11.316
11403SOL     OW36105   2.118   3.557   3.384
11403SOL    HW136106   2.163   3.486   3.338
11403SOL    HW236107   2.184   3.626   3.393
11404SOL     OW36108   3.613   8.816   9.166
11404SOL    HW136109   3.703   8.813   9.197
11404SOL    HW236110   3.563   8.851   9.240
11405SOL     OW36111   3.163  11.911   6.950
11405SOL    HW136112   3.106  11.835   6.964
11405SOL    HW236113   3.167  11.954   7.036
11406SOL     OW36114  12.548   3.087  12.492
11406SOL    HW136115  12.596   3.138  12.427
11406SOL    HW236116  12.513   3.013  12.442
11407SOL     OW36117   2.822   1.551   9.407
11407SOL    HW136118   2.868   1.468   9.391
11407SOL    HW236119   2.865   1.588   9.483
11408SOL     OW36120   8.903   8.008   9.154
11408SOL    HW136121   8.873   8.099   9.153
11408SOL    HW236122   8.972   8.006   9.220
11409SOL     OW36123  10.738   2.593  14.825
11409SOL    HW136124  10.715   2.616  14.735
11409SOL    HW236125  10.663   2.623   0.009
11410SOL     OW36126  11.713  14.556  13.570
11410SOL    HW136127  11.722  14.558  13.475
11410SOL    HW236128  11.621  14.578  13.586
11411SOL     OW36129   5.346   8.841   7.069
11411SOL    HW136130   5.290   8.853   6.992
11411SOL    HW236131   5.297   8.779   7.123
11412SOL     OW36132   6.549   3.655   3.269
11412SOL    HW136133   6.642   3.656   3.249
11412SOL    HW236134   6.508   3.704   3.197
11413SOL     OW36135  14.410   0.462  13.058
11413SOL    HW136136  14.330   0.501  13.094
11413SOL    HW236137  14.447   0.411  13.130
11414SOL     OW36138  13.557  11.406  10.936
11414SOL    HW136139  13.627  11.387  10.873
11414SOL    HW236140  13.483  11.352  10.906
11415SOL     OW36141   7.463   8.654   0.573
11415SOL    HW136142   7.537   8.637   0.631
11415SOL    HW236143   7.463   8.580   0.512
11416SOL     OW36144   4.312   0.457   2.735
11416SOL    HW136145   4.319   0.513   2.812
11416SOL    HW236146   4.373   0.386   2.752
11417SOL     OW36147   1.853  13.166  12.893
11417SOL    HW136148   1.847  13.092  12.832
11417SOL    HW236149   1.821  13.131  12.976
11418SOL     OW36150   4.838  14.719   9.505
11418SOL    HW136151   4.871  14.802   9.469
11418SOL    HW236152   4.915  14.678   9.545
11419SOL     OW36153  13.484  13.537   5.425
11419SOL    HW136154  13.454  13.610   5.372
11419SOL    HW236155  13.416  13.470   5.416
11420SOL     OW36156  11.219   4.298  12.661
11420SOL    HW136157  11.277   4.348  12.604
11420SOL    HW236158  11.149   4.267  12.604
11421SOL     OW36159   9.512   6.933   6.600
11421SOL    HW136160   9.581   6.977   6.649
11421SOL    HW236161   9.495   6.853   6.648
11422SOL     OW36162   2.601   0.801  11.108
11422SOL    HW136163   2.553   0.869  11.061
11422SOL    HW236164   2.677   0.783  11.052
11423SOL     OW36165   1.828   5.048   3.796
11423SOL    HW136166   1.840   4.983   3.864
11423SOL    HW236167   1.917   5.080   3.778
11424SOL     OW36168  13.853   6.290   5.728
11424SOL    HW136169  13.887   6.311   5.815
11424SOL    HW236170  13.837   6.196   5.730
11425SOL     OW36171   9.450   5.220  12.698
11425SOL    HW136172   9.432   5.311  12.674
11425SOL    HW236173   9.401   5.169  12.634
11426SOL     OW36174   6.340   8.070   9.608
11426SOL    HW136175   6.266   8.093   9.552
11426SOL    HW236176   6.414   8.118   9.570
11427SOL     OW36177   7.430   1.246   2.380
11427SOL    HW136178   7.360   1.310   2.366
11427SOL    HW236179   7.468   1.270   2.465
11428SOL     OW36180   3.074   8.503   3.052
11428SOL    HW136181   3.111   8.500   2.964
11428SOL    HW236182   2.981   8.518   3.039
11429SOL     OW36183  12.490  12.316   7.894
11429SOL    HW136184  12.520  12.235   7.853
11429SOL    HW236185  12.462  12.290   7.982
11430SOL     OW36186   7.484   6.652  10.643
11430SOL    HW136187   7.447   6.727  10.690
11430SOL    HW236188   7.532   6.603  10.710
11431SOL     OW36189   9.425  13.280   9.829
11431SOL    HW136190   9.464  13.362   9.856
11431SOL    HW236191   9.499  13.227   9.800
11432SOL     OW36192   7.455   3.356  14.839
11432SOL    HW136193   7.460   3.312  14.754
11432SOL    HW236194   7.370   3.400  14.839
11433SOL     OW36195  11.724   3.213  14.773
11433SOL    HW136196  11.637   3.249  14.762
11433SOL    HW236197  11.731   3.146  14.704
11434SOL     OW36198   2.768   6.211   9.343
11434SOL    HW136199   2.805   6.264   9.273
11434SOL    HW236200   2.831   6.140   9.356
11435SOL     OW36201  10.805   2.480   4.305
11435SOL    HW136202  10.837   2.513   4.221
11435SOL    HW236203  10.775   2.391   4.285
11436SOL     OW36204   4.280   0.880   6.705
11436SOL    HW136205   4.360   0.832   6.725
11436SOL    HW236206   4.251   0.845   6.621
11437SOL     OW36207   0.693   4.568  11.127
11437SOL    HW136208   0.654   4.633  11.069
11437SOL    HW236209   0.619   4.518  11.160
11438SOL     OW36210   3.917   7.443   6.531
11438SOL    HW136211   3.949   7.515   6.585
11438SOL    HW236212   3.851   7.399   6.585
11439SOL     OW36213  13.039   8.183   5.406
11439SOL    HW136214  13.087   8.104   5.429
11439SOL    HW236215  13.093   8.255   5.440
11440SOL     OW36216   6.430   9.428  11.822
11440SOL    HW136217   6.404   9.419  11.914
11440SOL    HW236218   6.463   9.342  11.797
11441SOL     OW36219  11.659   2.825   9.060
11441SOL    HW136220  11.651   2.913   9.024
11441SOL    HW236221  11.568   2.799   9.078
11442SOL     OW36222   3.331   2.254   7.669
11442SOL    HW136223   3.334   2.344   7.701
11442SOL    HW236224   3.243   2.245   7.631
11443SOL     OW36225  10.574   7.354   1.072
11443SOL    HW136226  10.531   7.291   1.130
11443SOL    HW236227  10.667   7.349   1.096
11444SOL     OW36228  13.081  12.668   2.805
11444SOL    HW136229  13.001  12.620   2.783
11444SOL    HW236230  13.064  12.758   2.777
11445SOL     OW36231   4.526   2.028   6.297
11445SOL    HW136232   4.582   2.017   6.220
11445SOL    HW236233   4.479   2.110   6.282
11446SOL     OW36234   4.795   2.377   4.542
11446SOL    HW136235   4.824   2.416   4.459
11446SOL    HW236236   4.859   2.409   4.606
11447SOL     OW36237  12.027   9.327   2.922
11447SOL    HW136238  11.938   9.334   2.885
11447SOL    HW236239  12.071   9.407   2.893
11448SOL     OW36240   4.520   9.813   1.191
11448SOL    HW136241   4.454   9.749   1.164
11448SOL    HW236242   4.545   9.856   1.109
11449SOL     OW36243   0.158   4.398  12.152
11449SOL    HW136244   0.219   4.433  12.087
11449SOL    HW236245   0.126   4.317  12.113
11450SOL     OW36246   8.656   5.908  13.080
11450SOL    HW136247   8.722   5.880  13.016
11450SOL    HW236248   8.707   5.932  13.157
11451SOL     OW36249  10.971   8.521  11.681
11451SOL    HW136250  11.035   8.526  11.610
11451SOL    HW236251  10.998   8.588  11.744
11452SOL     OW36252   7.147   3.284  11.431
11452SOL    HW136253   7.109   3.340  11.364
11452SOL    HW236254   7.093   3.205  11.432
11453SOL     OW36255  12.542   1.610  14.534
11453SOL    HW136256  12.528   1.702  14.559
11453SOL    HW236257  12.573   1.568  14.614
11454SOL     OW36258   8.541   3.588   2.085
11454SOL    HW136259   8.533   3.575   1.991
11454SOL    HW236260   8.599   3.518   2.115
11455SOL     OW36261   5.191   0.589  11.191
11455SOL    HW136262   5.226   0.667  11.235
11455SOL    HW236263   5.242   0.582  11.110
11456SOL     OW36264   7.038   7.850   9.574
11456SOL    HW136265   7.052   7.874   9.482
11456SOL    HW236266   7.035   7.934   9.620
11457SOL     OW36267   0.265   1.933   0.087
11457SOL    HW136268   0.179   1.956   0.052
11457SOL    HW236269   0.327   1.989   0.040
11458SOL     OW36270   7.177   1.667   5.410
11458SOL    HW136271   7.084   1.644   5.404
11458SOL    HW236272   7.209   1.658   5.320
11459SOL     OW36273   1.399   5.006  10.576
11459SOL    HW136274   1.428   4.941  10.513
11459SOL    HW236275   1.431   4.974  10.661
11460SOL     OW36276   1.510  13.479   4.912
11460SOL    HW136277   1.550  13.395   4.887
11460SOL    HW236278   1.581  13.528   4.953
11461SOL     OW36279  13.690   2.847  12.294
11461SOL    HW136280  13.707   2.918  12.356
11461SOL    HW236281  13.776   2.812  12.272
11462SOL     OW36282  13.241  11.003   8.481
11462SOL    HW136283  13.295  10.927   8.458
11462SOL    HW236284  13.300  11.078   8.471
11463SOL     OW36285  12.306   6.641  11.760
11463SOL    HW136286  12.345   6.729  11.757
11463SOL    HW236287  12.380   6.582  11.757
11464SOL     OW36288  14.172  11.509   8.104
11464SOL    HW136289  14.095  11.454   8.089
11464SOL    HW236290  14.153  11.557   8.184
11465SOL     OW36291   3.114   2.890   8.670
11465SOL    HW136292   3.047   2.896   8.737
11465SOL    HW236293   3.194   2.867   8.717
11466SOL     OW36294   7.577  13.544   2.421
11466SOL    HW136295   7.486  13.557   2.394
11466SOL    HW236296   7.572  13.531   2.515
11467SOL     OW36297  10.912   2.072  14.036
11467SOL    HW136298  10.872   2.159  14.033
11467SOL    HW236299  10.843   2.012  14.007
11468SOL     OW36300   4.763   1.686   3.486
11468SOL    HW136301   4.680   1.710   3.528
11468SOL    HW236302   4.830   1.730   3.538
11469SOL     OW36303   6.686   5.434   1.074
11469SOL    HW136304   6.649   5.373   1.010
11469SOL    HW236305   6.671   5.521   1.035
11470SOL     OW36306   8.911  14.132  13.499
11470SOL    HW136307   8.953  14.216  13.513
11470SOL    HW236308   8.971  14.068  13.539
11471SOL     OW36309  14.543   6.104  13.731
11471SOL    HW136310  14.528   6.197  13.712
11471SOL    HW236311  14.586   6.070  13.653
11472SOL     OW36312   0.488   0.434   3.995
11472SOL    HW136313   0.573   0.410   4.032
11472SOL    HW236314   0.427   0.373   4.035
11473SOL     OW36315   0.730  13.191   5.331
11473SOL    HW136316   0.635  13.200   5.339
11473SOL    HW236317   0.744  13.100   5.305
11474SOL     OW36318  10.270  11.311   5.787
11474SOL    HW136319  10.182  11.323   5.825
11474SOL    HW236320  10.269  11.222   5.754
11475SOL     OW36321   9.116  13.751   2.619
11475SOL    HW136322   9.039  13.804   2.641
11475SOL    HW236323   9.127  13.693   2.694
11476SOL     OW36324   8.357  12.113  11.727
11476SOL    HW136325   8.412  12.036  11.738
11476SOL    HW236326   8.358  12.130  11.633
11477SOL     OW36327   5.111  12.136   8.802
11477SOL    HW136328   5.182  12.076   8.780
11477SOL    HW236329   5.093  12.120   8.894
11478SOL     OW36330   8.886   1.409   3.322
11478SOL    HW136331   8.805   1.358   3.319
11478SOL    HW236332   8.902   1.433   3.230
11479SOL     OW36333  11.444   6.024   2.196
11479SOL    HW136334  11.387   6.008   2.271
11479SOL    HW236335  11.414   6.108   2.161
11480SOL     OW36336   7.267   4.048   0.173
11480SOL    HW136337   7.303   4.004   0.096
11480SOL    HW236338   7.302   4.137   0.169
11481SOL     OW36339  14.771   1.149  10.697
11481SOL    HW136340  14.746   1.138  10.789
11481SOL    HW236341  14.764   1.243  10.681
11482SOL     OW36342  11.315   5.908  10.410
11482SOL    HW136343  11.264   5.833  10.442
11482SOL    HW236344  11.314   5.899  10.315
11483SOL     OW36345   0.921   6.648   3.481
11483SOL    HW136346   0.962   6.729   3.450
11483SOL    HW236347   0.974   6.579   3.442
11484SOL     OW36348   2.736  13.895   1.857
11484SOL    HW136349   2.651  13.865   1.888
11484SOL    HW236350   2.747  13.981   1.898
11485SOL     OW36351  13.783   0.739   4.804
11485SOL    HW136352  13.805   0.671   4.868
11485SOL    HW236353  13.760   0.690   4.725
11486SOL     OW36354   8.866  13.738   0.340
11486SOL    HW136355   8.828  13.721   0.254
11486SOL    HW236356   8.873  13.834   0.344
11487SOL     OW36357  13.087   1.251   4.022
11487SOL    HW136358  13.036   1.280   4.098
11487SOL    HW236359  13.028   1.190   3.977
11488SOL     OW36360  11.519   1.368  11.134
11488SOL    HW136361  11.612   1.346  11.136
11488SOL    HW236362  11.512   1.437  11.068
11489SOL     OW36363   2.373  10.004  12.744
11489SOL    HW136364   2.330   9.925  12.777
11489SOL    HW236365   2.458   9.973  12.712
11490SOL     OW36366   1.185  14.813  14.285
11490SOL    HW136367   1.194  14.759  14.363
11490SOL    HW236368   1.246   0.017  14.297
11491SOL     OW36369  12.866   4.361  10.495
11491SOL    HW136370  12.940   4.305  10.471
11491SOL    HW236371  12.798   4.340  10.431
11492SOL     OW36372   6.558  12.188   6.198
11492SOL    HW136373   6.584  12.139   6.276
11492SOL    HW236374   6.464  12.171   6.189
11493SOL     OW36375   6.708   1.650  13.528
11493SOL    HW136376   6.716   1.644  13.623
11493SOL    HW236377   6.634   1.593  13.506
11494SOL     OW36378   8.433  11.434  14.306
11494SOL    HW136379   8.389  11.349  14.304
11494SOL    HW236380   8.379  11.488  14.364
11495SOL     OW36381   3.254  13.399   4.176
11495SOL    HW136382   3.280  13.440   4.258
11495SOL    HW236383   3.273  13.465   4.109
11496SOL     OW36384   8.597   8.796   9.053
11496SOL    HW136385   8.630   8.841   9.131
11496SOL    HW236386   8.574   8.867   8.993
11497SOL     OW36387  11.160   9.126   7.626
11497SOL    HW136388  11.218   9.103   7.554
11497SOL    HW236389  11.169   9.054   7.688
11498SOL     OW36390   6.578  14.216  14.477
11498SOL    HW136391   6.583  14.237  14.384
11498SOL    HW236392   6.637  14.280  14.518
11499SOL     OW36393   7.754   3.102   8.298
11499SOL    HW136394   7.773   3.193   8.319
11499SOL    HW236395   7.827   3.053   8.336
11500SOL     OW36396  13.738   9.982   8.870
11500SOL    HW136397  13.673   9.995   8.801
11500SOL    HW236398  13.822  10.004   8.829
11501SOL     OW36399   4.507   8.183   5.927
11501SOL    HW136400   4.602   8.182   5.911
11501SOL    HW236401   4.469   8.150   5.846
11502SOL     OW36402   5.367  10.698  10.372
11502SOL    HW136403   5.381  10.606  10.347
11502SOL    HW236404   5.290  10.696  10.429
11503SOL     OW36405   9.940   7.786  11.454
11503SOL    HW136406   9.905   7.697  11.456
11503SOL    HW236407   9.916   7.819  11.368
11504SOL     OW36408  14.057  11.470   3.920
11504SOL    HW136409  14.056  11.512   3.833
11504SOL    HW236410  13.967  11.480   3.952
11505SOL     OW36411   9.241  10.156   6.076
11505SOL    HW136412   9.254  10.197   6.161
11505SOL    HW236413   9.151  10.177   6.052
11506SOL     OW36414  14.768   9.391   2.268
11506SOL    HW136415  14.844   9.447   2.250
11506SOL    HW236416  14.794   9.340   2.344
11507SOL     OW36417   8.491   3.749   9.802
11507SOL    HW136418   8.439   3.669   9.799
11507SOL    HW236419   8.569   3.726   9.852
11508SOL     OW36420  11.087   6.256   0.660
11508SOL    HW136421  11.062   6.214   0.577
11508SOL    HW236422  11.096   6.183   0.721
11509SOL     OW36423   7.603  11.102   6.490
11509SOL    HW136424   7.673  11.040   6.470
11509SOL    HW236425   7.539  11.090   6.419
11510SOL     OW36426   2.059   9.033   3.739
11510SOL    HW136427   2.064   8.967   3.671
11510SOL    HW236428   2.048   9.116   3.692
11511SOL     OW36429  14.443   4.917  12.079
11511SOL    HW136430  14.458   4.948  12.169
11511SOL    HW236431  14.381   4.844  12.089
11512SOL     OW36432   3.591   3.943   1.476
11512SOL    HW136433   3.558   3.896   1.553
11512SOL    HW236434   3.663   3.997   1.510
11513SOL     OW36435   6.527   2.991  14.148
11513SOL    HW136436   6.575   2.908  14.144
11513SOL    HW236437   6.558   3.041  14.072
11514SOL     OW36438  12.945   0.655  11.458
11514SOL    HW136439  12.891   0.707  11.399
11514SOL    HW236440  13.003   0.606  11.400
11515SOL     OW36441  13.762   0.819   2.328
11515SOL    HW136442  13.759   0.743   2.385
11515SOL    HW236443  13.739   0.786   2.242
11516SOL     OW36444   4.488   4.792   6.229
11516SOL    HW136445   4.445   4.837   6.302
11516SOL    HW236446   4.442   4.824   6.151
11517SOL     OW36447  11.589   9.551   0.528
11517SOL    HW136448  11.604   9.579   0.437
11517SOL    HW236449  11.537   9.621   0.566
11518SOL     OW36450   7.523  12.174  12.605
11518SOL    HW136451   7.617  12.191  12.600
11518SOL    HW236452   7.492  12.230  12.675
11519SOL     OW36453   0.377  11.219   0.465
11519SOL    HW136454   0.349  11.278   0.395
11519SOL    HW236455   0.335  11.136   0.444
11520SOL     OW36456  10.057   1.194   3.025
11520SOL    HW136457  10.047   1.196   3.121
11520SOL    HW236458   9.970   1.212   2.991
11521SOL     OW36459   5.568   7.406   3.508
11521SOL    HW136460   5.492   7.367   3.551
11521SOL    HW236461   5.536   7.491   3.476
11522SOL     OW36462   9.254  13.892  14.541
11522SOL    HW136463   9.197  13.822  14.573
11522SOL    HW236464   9.195  13.960  14.511
11523SOL     OW36465  14.089   1.510   8.487
11523SOL    HW136466  14.157   1.473   8.430
11523SOL    HW236467  14.138   1.561   8.552
11524SOL     OW36468  11.556   7.318   5.159
11524SOL    HW136469  11.524   7.321   5.249
11524SOL    HW236470  11.594   7.404   5.144
11525SOL     OW36471   4.511  14.127   0.962
11525SOL    HW136472   4.555  14.091   0.885
11525SOL    HW236473   4.578  14.181   1.004
11526SOL     OW36474  14.427   2.756   8.632
11526SOL    HW136475  14.507   2.744   8.683
11526SOL    HW236476  14.375   2.677   8.651
11527SOL     OW36477   1.387   6.662   6.767
11527SOL    HW136478   1.301   6.693   6.797
11527SOL    HW236479   1.366   6.588   6.709
11528SOL     OW36480   6.733   0.652  11.286
11528SOL    HW136481   6.751   0.560  11.268
11528SOL    HW236482   6.638   0.655  11.303
11529SOL     OW36483   2.308   9.736  12.827
11529SOL    HW136484   2.334   9.655  12.783
11529SOL    HW236485   2.267   9.706  12.909
11530SOL     OW36486   8.498  12.145  13.500
11530SOL    HW136487   8.519  12.064  13.548
11530SOL    HW236488   8.488  12.211  13.569
11531SOL     OW36489  11.974  10.773   3.367
11531SOL    HW136490  12.044  10.782   3.432
11531SOL    HW236491  12.008  10.817   3.289
11532SOL     OW36492  13.204  10.925   7.260
11532SOL    HW136493  13.203  10.866   7.185
11532SOL    HW236494  13.296  10.945   7.275
11533SOL     OW36495   8.430   3.048  14.645
11533SOL    HW136496   8.441   3.132  14.690
11533SOL    HW236497   8.502   3.045  14.582
11534SOL     OW36498   6.383   6.801  11.034
11534SOL    HW136499   6.335   6.770  11.110
11534SOL    HW236500   6.473   6.771  11.048
11535SOL     OW36501  10.932   2.353  12.498
11535SOL    HW136502  10.915   2.359  12.404
11535SOL    HW236503  10.882   2.426  12.536
11536SOL     OW36504   1.416  12.044  10.111
11536SOL    HW136505   1.379  11.965  10.151
11536SOL    HW236506   1.468  12.012  10.038
11537SOL     OW36507   9.402   8.649   6.354
11537SOL    HW136508   9.333   8.716   6.354
11537SOL    HW236509   9.355   8.568   6.332
11538SOL     OW36510   5.448   3.058   4.116
11538SOL    HW136511   5.490   3.047   4.201
11538SOL    HW236512   5.362   3.019   4.126
11539SOL     OW36513   8.392  11.551  11.315
11539SOL    HW136514   8.305  11.511  11.325
11539SOL    HW236515   8.380  11.642  11.340
11540SOL     OW36516   9.257   6.476   4.862
11540SOL    HW136517   9.175   6.483   4.814
11540SOL    HW236518   9.252   6.392   4.907
11541SOL     OW36519  14.196   4.338   3.301
11541SOL    HW136520  14.127   4.399   3.327
11541SOL    HW236521  14.154   4.252   3.304
11542SOL     OW36522   4.280   8.679  12.774
11542SOL    HW136523   4.313   8.750  12.719
11542SOL    HW236524   4.352   8.661  12.835
11543SOL     OW36525   5.767   5.960   5.213
11543SOL    HW136526   5.779   5.927   5.124
11543SOL    HW236527   5.851   5.998   5.237
11544SOL     OW36528  13.303   8.467   0.173
11544SOL    HW136529  13.340   8.460   0.262
11544SOL    HW236530  13.345   8.545   0.137
11545SOL     OW36531  14.270   3.266   2.174
11545SOL    HW136532  14.256   3.354   2.138
11545SOL    HW236533  14.361   3.266   2.203
11546SOL     OW36534   7.998   5.779  13.162
11546SOL    HW136535   8.064   5.821  13.218
11546SOL    HW236536   8.020   5.806  13.073
11547SOL     OW36537   5.731  11.153   9.346
11547SOL    HW136538   5.658  11.156   9.407
11547SOL    HW236539   5.809  11.169   9.400
11548SOL     OW36540   8.684  10.266   0.608
11548SOL    HW136541   8.773  10.232   0.619
11548SOL    HW236542   8.637  10.234   0.685
11549SOL     OW36543   9.758   2.586   7.633
11549SOL    HW136544   9.668   2.590   7.601
11549SOL    HW236545   9.760   2.508   7.689
11550SOL     OW36546   5.292  11.056  12.932
11550SOL    HW136547   5.260  11.147  12.933
11550SOL    HW236548   5.310  11.038  12.840
11551SOL     OW36549  10.311   5.732   5.344
11551SOL    HW136550  10.283   5.819   5.374
11551SOL    HW236551  10.287   5.674   5.417
11552SOL     OW36552   7.691   8.561  13.441
11552SOL    HW136553   7.765   8.593  13.493
11552SOL    HW236554   7.719   8.571  13.351
11553SOL     OW36555  10.990   7.547   2.630
11553SOL    HW136556  10.999   7.472   2.572
11553SOL    HW236557  11.029   7.620   2.581
11554SOL     OW36558   4.176   0.021  11.937
11554SOL    HW136559   4.270   0.029  11.951
11554SOL    HW236560   4.152   0.103  11.893
11555SOL     OW36561   6.280   3.697   5.005
11555SOL    HW136562   6.338   3.757   4.959
11555SOL    HW236563   6.201   3.749   5.023
11556SOL     OW36564   4.670   3.315   5.161
11556SOL    HW136565   4.691   3.224   5.183
11556SOL    HW236566   4.750   3.349   5.120
11557SOL     OW36567  11.610  10.032   2.530
11557SOL    HW136568  11.696   9.991   2.540
11557SOL    HW236569  11.628  10.125   2.516
11558SOL     OW36570   3.244   7.891  10.628
11558SOL    HW136571   3.247   7.818  10.566
11558SOL    HW236572   3.273   7.854  10.711
11559SOL     OW36573   8.457   3.932   1.092
11559SOL    HW136574   8.484   3.970   1.176
11559SOL    HW236575   8.440   3.840   1.112
11560SOL     OW36576  12.010   6.655  13.986
11560SOL    HW136577  11.945   6.703  14.037
11560SOL    HW236578  12.092   6.702  14.003
11561SOL     OW36579  12.127   0.618  13.955
11561SOL    HW136580  12.052   0.638  14.012
11561SOL    HW236581  12.161   0.535  13.989
11562SOL     OW36582  11.542   9.966   2.273
11562SOL    HW136583  11.548  10.000   2.363
11562SOL    HW236584  11.630   9.976   2.238
11563SOL     OW36585  11.131  13.649  12.838
11563SOL    HW136586  11.184  13.696  12.774
11563SOL    HW236587  11.194  13.613  12.901
11564SOL     OW36588   5.347   9.308   8.736
11564SOL    HW136589   5.275   9.371   8.728
11564SOL    HW236590   5.368   9.286   8.646
11565SOL     OW36591   5.745   2.366   3.999
11565SOL    HW136592   5.696   2.393   4.077
11565SOL    HW236593   5.825   2.418   4.001
11566SOL     OW36594  13.551   9.194   3.838
11566SOL    HW136595  13.524   9.263   3.778
11566SOL    HW236596  13.546   9.113   3.786
11567SOL     OW36597  14.856  10.678  12.630
11567SOL    HW136598   0.027  10.664  12.716
11567SOL    HW236599  14.765  10.701  12.648
11568SOL     OW36600   1.376   9.104  12.425
11568SOL    HW136601   1.408   9.023  12.465
11568SOL    HW236602   1.320   9.074  12.354
11569SOL     OW36603   1.359  13.792  11.439
11569SOL    HW136604   1.405  13.874  11.424
11569SOL    HW236605   1.312  13.804  11.521
11570SOL     OW36606   6.175   0.842   7.176
11570SOL    HW136607   6.209   0.846   7.266
11570SOL    HW236608   6.196   0.928   7.139
11571SOL     OW36609   5.620   4.432   5.401
11571SOL    HW136610   5.679   4.505   5.418
11571SOL    HW236611   5.538   4.473   5.373
11572SOL     OW36612  12.818  10.037  12.565
11572SOL    HW136613  12.826   9.956  12.514
11572SOL    HW236614  12.904  10.078  12.558
11573SOL     OW36615   8.645  12.893   5.396
11573SOL    HW136616   8.594  12.918   5.473
11573SOL    HW236617   8.669  12.802   5.413
11574SOL     OW36618   9.172   0.900   5.756
11574SOL    HW136619   9.251   0.847   5.757
11574SOL    HW236620   9.100   0.837   5.756
11575SOL     OW36621   5.480  10.063  10.158
11575SOL    HW136622   5.516   9.975  10.164
11575SOL    HW236623   5.385  10.050  10.158
11576SOL     OW36624  11.766   2.036  10.145
11576SOL    HW136625  11.692   1.975  10.151
11576SOL    HW236626  11.842   1.983  10.167
11577SOL     OW36627   2.805   1.851  12.119
11577SOL    HW136628   2.872   1.789  12.148
11577SOL    HW236629   2.830   1.934  12.160
11578SOL     OW36630  11.642   5.686   4.659
11578SOL    HW136631  11.688   5.607   4.629
11578SOL    HW236632  11.643   5.744   4.584
11579SOL     OW36633  13.073   9.624   5.387
11579SOL    HW136634  13.142   9.567   5.421
11579SOL    HW236635  13.102   9.713   5.408
11580SOL     OW36636  14.197  13.722   0.320
11580SOL    HW136637  14.175  13.747   0.230
11580SOL    HW236638  14.241  13.637   0.311
11581SOL     OW36639   6.950   9.130   6.956
11581SOL    HW136640   6.855   9.144   6.964
11581SOL    HW236641   6.968   9.149   6.864
11582SOL     OW36642  13.893  10.638   6.020
11582SOL    HW136643  13.817  10.640   5.962
11582SOL    HW236644  13.873  10.570   6.084
11583SOL     OW36645   9.293  11.282   0.084
11583SOL    HW136646   9.211  11.238   0.060
11583SOL    HW236647   9.267  11.348   0.148
11584SOL     OW36648   0.194   0.112   1.575
11584SOL    HW136649   0.112   0.139   1.535
11584SOL    HW236650   0.171   0.036   1.629
11585SOL     OW36651   4.994   4.166  11.538
11585SOL    HW136652   5.022   4.112  11.465
11585SOL    HW236653   5.071   4.219  11.560
11586SOL     OW36654   9.711  10.435   0.372
11586SOL    HW136655   9.692  10.454   0.464
11586SOL    HW236656   9.642  10.481   0.323
11587SOL     OW36657   7.737  11.270   9.385
11587SOL    HW136658   7.667  11.300   9.327
11587SOL    HW236659   7.740  11.335   9.455
11588SOL     OW36660  12.632   9.281   1.933
11588SOL    HW136661  12.611   9.193   1.901
11588SOL    HW236662  12.559   9.335   1.903
11589SOL     OW36663   8.023   0.328  12.018
11589SOL    HW136664   8.114   0.356  12.020
11589SOL    HW236665   7.978   0.397  11.968
11590SOL     OW36666  13.535   3.208  10.135
11590SOL    HW136667  13.613   3.197  10.080
11590SOL    HW236668  13.544   3.297  10.171
11591SOL     OW36669   2.428  14.543   8.906
11591SOL    HW136670   2.451  14.630   8.939
11591SOL    HW236671   2.341  14.554   8.869
11592SOL     OW36672   3.166   4.880   9.980
11592SOL    HW136673   3.155   4.795   9.937
11592SOL    HW236674   3.225   4.863  10.052
11593SOL     OW36675  11.174  11.875  13.105
11593SOL    HW136676  11.236  11.805  13.084
11593SOL    HW236677  11.167  11.926  13.025
11594SOL     OW36678  11.744  13.037   2.439
11594SOL    HW136679  11.801  13.111   2.418
11594SOL    HW236680  11.797  12.960   2.421
11595SOL     OW36681   7.809  11.849  10.634
11595SOL    HW136682   7.737  11.912  10.628
11595SOL    HW236683   7.830  11.845  10.727
11596SOL     OW36684   7.086   9.458  10.365
11596SOL    HW136685   7.048   9.412  10.440
11596SOL    HW236686   7.110   9.389  10.304
11597SOL     OW36687   5.594   6.189   1.733
11597SOL    HW136688   5.615   6.096   1.745
11597SOL    HW236689   5.507   6.189   1.695
11598SOL     OW36690   1.546  13.573  12.071
11598SOL    HW136691   1.625  13.540  12.030
11598SOL    HW236692   1.497  13.616  12.000
11599SOL     OW36693  11.826  11.862  10.055
11599SOL    HW136694  11.813  11.773  10.022
11599SOL    HW236695  11.744  11.884  10.098
11600SOL     OW36696   8.342  13.682  14.446
11600SOL    HW136697   8.298  13.708  14.526
11600SOL    HW236698   8.299  13.733  14.377
11601SOL     OW36699  10.835   0.841   2.150
11601SOL    HW136700  10.805   0.932   2.153
11601SOL    HW236701  10.757   0.789   2.172
11602SOL     OW36702   9.977   2.950   2.478
11602SOL    HW136703   9.893   2.994   2.493
11602SOL    HW236704   9.980   2.939   2.383
11603SOL     OW36705   4.657   9.864  14.638
11603SOL    HW136706   4.735   9.809  14.631
11603SOL    HW236707   4.691   9.954  14.645
11604SOL     OW36708   8.929  13.847   1.142
11604SOL    HW136709   8.844  13.890   1.154
11604SOL    HW236710   8.923  13.807   1.055
11605SOL     OW36711   0.198   2.315   7.601
11605SOL    HW136712   0.149   2.396   7.614
11605SOL    HW236713   0.261   2.335   7.532
11606SOL     OW36714   8.828  12.221  13.680
11606SOL    HW136715   8.799  12.133  13.702
11606SOL    HW236716   8.833  12.267  13.764
11607SOL     OW36717  13.489  13.480   9.447
11607SOL    HW136718  13.437  13.452   9.523
11607SOL    HW236719  13.549  13.408   9.431
11608SOL     OW36720   4.241   3.958   7.944
11608SOL    HW136721   4.182   3.946   8.018
11608SOL    HW236722   4.215   4.042   7.906
11609SOL     OW36723   6.129   1.256   5.691
11609SOL    HW136724   6.087   1.171   5.695
11609SOL    HW236725   6.057   1.319   5.690
11610SOL     OW36726  12.935   6.545   5.953
11610SOL    HW136727  12.981   6.511   5.876
11610SOL    HW236728  12.921   6.638   5.934
11611SOL     OW36729  14.371  13.494   0.452
11611SOL    HW136730  14.427  13.419   0.432
11611SOL    HW236731  14.298  13.457   0.501
11612SOL     OW36732   2.271   8.256   1.128
11612SOL    HW136733   2.218   8.207   1.191
11612SOL    HW236734   2.342   8.196   1.104
11613SOL     OW36735   3.665   6.838   6.467
11613SOL    HW136736   3.691   6.856   6.377
11613SOL    HW236737   3.720   6.764   6.493
11614SOL     OW36738  14.774   7.365   1.765
11614SOL    HW136739  14.859   7.393   1.730
11614SOL    HW236740  14.790   7.345   1.857
11615SOL     OW36741   1.762   0.856   4.239
11615SOL    HW136742   1.677   0.820   4.214
11615SOL    HW236743   1.816   0.780   4.259
11616SOL     OW36744   3.382   8.233   5.793
11616SOL    HW136745   3.292   8.243   5.825
11616SOL    HW236746   3.416   8.322   5.787
11617SOL     OW36747   8.280  10.463  10.719
11617SOL    HW136748   8.318  10.538  10.764
11617SOL    HW236749   8.355  10.407  10.698
11618SOL     OW36750  12.142  13.023  10.736
11618SOL    HW136751  12.216  12.994  10.790
11618SOL    HW236752  12.073  12.958  10.752
11619SOL     OW36753   9.075   7.192   9.007
11619SOL    HW136754   9.044   7.268   9.055
11619SOL    HW236755   8.996   7.147   8.978
11620SOL     OW36756  14.421   7.240   8.097
11620SOL    HW136757  14.445   7.263   8.007
11620SOL    HW236758  14.505   7.228   8.141
11621SOL     OW36759   7.745  14.222   7.248
11621SOL    HW136760   7.732  14.221   7.153
11621SOL    HW236761   7.709  14.305   7.277
11622SOL     OW36762  11.475   2.406   5.679
11622SOL    HW136763  11.471   2.409   5.775
11622SOL    HW236764  11.563   2.372   5.660
11623SOL     OW36765   3.205   5.717  13.951
11623SOL    HW136766   3.228   5.650  13.886
11623SOL    HW236767   3.213   5.673  14.035
11624SOL     OW36768  14.100   9.887  10.151
11624SOL    HW136769  14.074   9.813  10.096
11624SOL    HW236770  14.145   9.846  10.226
11625SOL     OW36771   0.820   6.283   6.495
11625SOL    HW136772   0.810   6.188   6.494
11625SOL    HW236773   0.782   6.312   6.412
11626SOL     OW36774   4.462  12.738  11.734
11626SOL    HW136775   4.400  12.773  11.670
11626SOL    HW236776   4.412  12.671  11.780
11627SOL     OW36777   1.464  10.713   0.316
11627SOL    HW136778   1.513  10.781   0.271
11627SOL    HW236779   1.410  10.759   0.379
11628SOL     OW36780   4.113   1.838  12.637
11628SOL    HW136781   4.063   1.759  12.658
11628SOL    HW236782   4.168   1.812  12.563
11629SOL     OW36783   1.952  10.641   0.763
11629SOL    HW136784   1.984  10.689   0.687
11629SOL    HW236785   1.898  10.704   0.811
11630SOL     OW36786   2.020   6.330   4.218
11630SOL    HW136787   2.015   6.425   4.226
11630SOL    HW236788   2.089   6.304   4.278
11631SOL     OW36789  14.054   0.657   4.186
11631SOL    HW136790  14.102   0.574   4.180
11631SOL    HW236791  14.037   0.668   4.280
11632SOL     OW36792   7.248   7.524   0.160
11632SOL    HW136793   7.343   7.539   0.152
11632SOL    HW236794   7.214   7.538   0.072
11633SOL     OW36795   1.986   0.103   1.667
11633SOL    HW136796   1.916   0.053   1.710
11633SOL    HW236797   1.946   0.134   1.586
11634SOL     OW36798  11.330  11.959   9.554
11634SOL    HW136799  11.369  11.954   9.467
11634SOL    HW236800  11.403  11.977   9.613
11635SOL     OW36801   5.544  12.893  14.574
11635SOL    HW136802   5.492  12.813  14.572
11635SOL    HW236803   5.581  12.900  14.486
11636SOL     OW36804   9.043  14.613   3.051
11636SOL    HW136805   9.024  14.613   2.957
11636SOL    HW236806   8.992  14.540   3.086
11637SOL     OW36807  14.713  10.175  14.732
11637SOL    HW136808  14.634  10.122  14.734
11637SOL    HW236809  14.726  10.203  14.823
11638SOL     OW36810   7.420  12.882   6.191
11638SOL    HW136811   7.373  12.811   6.235
11638SOL    HW236812   7.357  12.915   6.126
11639SOL     OW36813  12.916   5.839   5.479
11639SOL    HW136814  12.914   5.779   5.404
11639SOL    HW236815  12.857   5.910   5.454
11640SOL     OW36816  14.362  13.257  10.187
11640SOL    HW136817  14.369  13.352  10.194
11640SOL    HW236818  14.447  13.224  10.216
11641SOL     OW36819  11.033  13.251  12.151
11641SOL    HW136820  10.960  13.306  12.123
11641SOL    HW236821  11.029  13.252  12.247
11642SOL     OW36822  11.613   5.819   4.361
11642SOL    HW136823  11.538   5.872   4.336
11642SOL    HW236824  11.612   5.745   4.300
11643SOL     OW36825   0.432  12.521   8.925
11643SOL    HW136826   0.357  12.468   8.951
11643SOL    HW236827   0.486  12.527   9.005
11644SOL     OW36828  10.935  11.182  10.884
11644SOL    HW136829  10.946  11.277  10.871
11644SOL    HW236830  10.917  11.173  10.977
11645SOL     OW36831   7.313   7.843  12.835
11645SOL    HW136832   7.393   7.832  12.887
11645SOL    HW236833   7.294   7.756  12.802
11646SOL     OW36834   3.924   7.644  11.850
11646SOL    HW136835   3.911   7.738  11.842
11646SOL    HW236836   3.893   7.623  11.938
11647SOL     OW36837  12.673   0.113   6.076
11647SOL    HW136838  12.704   0.146   5.992
11647SOL    HW236839  12.586   0.153   6.086
11648SOL     OW36840   8.181   1.650  14.736
11648SOL    HW136841   8.249   1.660  14.802
11648SOL    HW236842   8.227   1.653  14.652
11649SOL     OW36843  11.410   1.346   5.408
11649SOL    HW136844  11.318   1.362   5.430
11649SOL    HW236845  11.457   1.421   5.443
11650SOL     OW36846  12.828   7.192  12.383
11650SOL    HW136847  12.742   7.210  12.346
11650SOL    HW236848  12.874   7.145  12.314
11651SOL     OW36849   7.414   4.279   0.754
11651SOL    HW136850   7.467   4.313   0.825
11651SOL    HW236851   7.365   4.354   0.721
11652SOL     OW36852   2.123   2.710   6.842
11652SOL    HW136853   2.102   2.620   6.868
11652SOL    HW236854   2.137   2.704   6.747
11653SOL     OW36855   4.743   6.698   1.353
11653SOL    HW136856   4.730   6.785   1.316
11653SOL    HW236857   4.737   6.638   1.279
11654SOL     OW36858   5.019   3.326   2.286
11654SOL    HW136859   5.018   3.390   2.215
11654SOL    HW236860   5.107   3.333   2.323
11655SOL     OW36861   4.219   3.745   2.698
11655SOL    HW136862   4.289   3.789   2.650
11655SOL    HW236863   4.156   3.720   2.631
11656SOL     OW36864   5.229  11.934   2.482
11656SOL    HW136865   5.198  12.015   2.441
11656SOL    HW236866   5.279  11.890   2.414
11657SOL     OW36867  11.021  12.355   6.660
11657SOL    HW136868  11.114  12.336   6.642
11657SOL    HW236869  10.991  12.402   6.582
11658SOL     OW36870  12.272   6.468   2.670
11658SOL    HW136871  12.236   6.434   2.588
11658SOL    HW236872  12.363   6.439   2.671
11659SOL     OW36873  11.803   4.494   8.042
11659SOL    HW136874  11.771   4.406   8.023
11659SOL    HW236875  11.724   4.549   8.038
11660SOL     OW36876   2.501   4.050   2.102
11660SOL    HW136877   2.433   4.066   2.037
11660SOL    HW236878   2.489   3.959   2.128
11661SOL     OW36879   7.730   4.179   9.057
11661SOL    HW136880   7.738   4.274   9.063
11661SOL    HW236881   7.820   4.148   9.045
11662SOL     OW36882   6.672   0.822   5.531
11662SOL    HW136883   6.753   0.847   5.576
11662SOL    HW236884   6.636   0.905   5.500
11663SOL     OW36885   6.078   1.572   2.021
11663SOL    HW136886   6.044   1.485   1.998
11663SOL    HW236887   6.044   1.588   2.109
11664SOL     OW36888  11.827   6.613   0.933
11664SOL    HW136889  11.755   6.631   0.872
11664SOL    HW236890  11.903   6.601   0.876
11665SOL     OW36891  11.940   6.975   2.925
11665SOL    HW136892  11.908   7.051   2.876
11665SOL    HW236893  11.870   6.910   2.915
11666SOL     OW36894   3.694  13.938   8.101
11666SOL    HW136895   3.739  14.006   8.051
11666SOL    HW236896   3.652  13.986   8.173
11667SOL     OW36897   7.898   8.280  10.280
11667SOL    HW136898   7.824   8.279  10.221
11667SOL    HW236899   7.866   8.325  10.359
11668SOL     OW36900   6.529  12.915   0.739
11668SOL    HW136901   6.475  12.960   0.804
11668SOL    HW236902   6.482  12.926   0.657
11669SOL     OW36903   3.477   5.300   8.348
11669SOL    HW136904   3.490   5.322   8.440
11669SOL    HW236905   3.562   5.317   8.307
11670SOL     OW36906   3.102   8.540  13.225
11670SOL    HW136907   3.069   8.585  13.147
11670SOL    HW236908   3.186   8.581  13.243
11671SOL     OW36909   6.195   8.412  11.312
11671SOL    HW136910   6.245   8.405  11.231
11671SOL    HW236911   6.130   8.342  11.306
11672SOL     OW36912  11.297   9.961   5.888
11672SOL    HW136913  11.223   9.915   5.928
11672SOL    HW236914  11.285   9.949   5.794
11673SOL     OW36915  13.371   5.370   6.710
11673SOL    HW136916  13.433   5.320   6.657
11673SOL    HW236917  13.409   5.457   6.717
11674SOL     OW36918   6.361   2.622   5.729
11674SOL    HW136919   6.420   2.620   5.805
11674SOL    HW236920   6.363   2.713   5.700
11675SOL     OW36921  12.601   2.692  12.242
11675SOL    HW136922  12.605   2.778  12.200
11675SOL    HW236923  12.680   2.688  12.296
11676SOL     OW36924   2.358  11.327   0.806
11676SOL    HW136925   2.418  11.280   0.748
11676SOL    HW236926   2.343  11.411   0.762
11677SOL     OW36927   8.152  12.411  14.082
11677SOL    HW136928   8.127  12.387  14.171
11677SOL    HW236929   8.071  12.445  14.043
11678SOL     OW36930   8.252   1.936   6.033
11678SOL    HW136931   8.160   1.917   6.054
11678SOL    HW236932   8.264   2.027   6.059
11679SOL     OW36933  13.020  14.333  14.769
11679SOL    HW136934  13.050  14.344  14.859
11679SOL    HW236935  13.100  14.325  14.717
11680SOL     OW36936   4.605  11.584  11.691
11680SOL    HW136937   4.617  11.599  11.785
11680SOL    HW236938   4.688  11.546  11.662
11681SOL     OW36939  14.720   2.715   5.196
11681SOL    HW136940  14.809   2.721   5.232
11681SOL    HW236941  14.715   2.788   5.134
11682SOL     OW36942  12.631  12.483  14.252
11682SOL    HW136943  12.637  12.515  14.162
11682SOL    HW236944  12.676  12.549  14.304
11683SOL     OW36945   8.928   6.301   0.390
11683SOL    HW136946   8.862   6.300   0.320
11683SOL    HW236947   8.877   6.297   0.471
11684SOL     OW36948   3.783   9.438   9.603
11684SOL    HW136949   3.800   9.464   9.694
11684SOL    HW236950   3.723   9.364   9.610
11685SOL     OW36951  13.629   5.815   4.743
11685SOL    HW136952  13.650   5.723   4.725
11685SOL    HW236953  13.577   5.813   4.823
11686SOL     OW36954   1.336   7.543   7.515
11686SOL    HW136955   1.367   7.494   7.592
11686SOL    HW236956   1.378   7.500   7.441
11687SOL     OW36957  11.607   0.505   4.619
11687SOL    HW136958  11.670   0.437   4.598
11687SOL    HW236959  11.659   0.585   4.626
11688SOL     OW36960  10.941   8.609  14.034
11688SOL    HW136961  10.852   8.571  14.030
11688SOL    HW236962  10.997   8.534  14.055
11689SOL     OW36963   2.497  14.111   3.717
11689SOL    HW136964   2.404  14.120   3.737
11689SOL    HW236965   2.540  14.175   3.773
11690SOL     OW36966   7.070   0.051   9.641
11690SOL    HW136967   7.042   0.055   9.733
11690SOL    HW236968   7.162   0.076   9.643
11691SOL     OW36969   3.302   8.981  13.208
11691SOL    HW136970   3.240   9.051  13.225
11691SOL    HW236971   3.376   8.999  13.266
11692SOL     OW36972  10.529  10.199   5.899
11692SOL    HW136973  10.440  10.233   5.908
11692SOL    HW236974  10.543  10.146   5.978
11693SOL     OW36975  14.398   3.823  14.682
11693SOL    HW136976  14.386   3.759  14.611
11693SOL    HW236977  14.344   3.790  14.753
11694SOL     OW36978   2.277   9.099  10.127
11694SOL    HW136979   2.270   9.148  10.045
11694SOL    HW236980   2.241   9.158  10.194
11695SOL     OW36981   2.248   5.018   8.644
11695SOL    HW136982   2.280   5.108   8.634
11695SOL    HW236983   2.176   5.012   8.582
11696SOL     OW36984  14.650   3.294   1.211
11696SOL    HW136985  14.574   3.303   1.268
11696SOL    HW236986  14.722   3.273   1.271
11697SOL     OW36987   7.982   3.790   3.270
11697SOL    HW136988   7.999   3.697   3.255
11697SOL    HW236989   8.027   3.834   3.198
11698SOL     OW36990   7.761   8.537  14.436
11698SOL    HW136991   7.843   8.503  14.402
11698SOL    HW236992   7.694   8.483  14.395
11699SOL     OW36993   5.273   8.802  12.163
11699SOL    HW136994   5.318   8.875  12.205
11699SOL    HW236995   5.181   8.827  12.163
11700SOL     OW36996   8.464   4.565   6.163
11700SOL    HW136997   8.495   4.547   6.251
11700SOL    HW236998   8.540   4.547   6.107
11701SOL     OW36999  13.075  10.072  11.299
11701SOL    HW137000  13.076   9.976  11.308
11701SOL    HW237001  13.141  10.103  11.361
11702SOL     OW37002  10.519  12.122  10.408
11702SOL    HW137003  10.497  12.052  10.347
11702SOL    HW237004  10.613  12.134  10.398
11703SOL     OW37005   5.743  10.374   2.697
11703SOL    HW137006   5.739  10.279   2.711
11703SOL    HW237007   5.702  10.411   2.775
11704SOL     OW37008  13.568   5.356  11.149
11704SOL    HW137009  13.481   5.316  11.159
11704SOL    HW237010  13.600   5.321  11.066
11705SOL     OW37011   4.172   3.866  10.296
11705SOL    HW137012   4.083   3.836  10.315
11705SOL    HW237013   4.222   3.786  10.283
11706SOL     OW37014  11.171   3.078   8.220
11706SOL    HW137015  11.077   3.062   8.231
11706SOL    HW237016  11.192   3.040   8.135
11707SOL     OW37017  11.395  10.377   1.261
11707SOL    HW137018  11.301  10.364   1.253
11707SOL    HW237019  11.405  10.436   1.336
11708SOL     OW37020  13.631   0.258   5.853
11708SOL    HW137021  13.678   0.176   5.840
11708SOL    HW237022  13.692   0.326   5.823
11709SOL     OW37023   9.377   2.534  13.988
11709SOL    HW137024   9.313   2.531  14.059
11709SOL    HW237025   9.341   2.595  13.924
11710SOL     OW37026   1.040   0.870   4.399
11710SOL    HW137027   0.977   0.878   4.471
11710SOL    HW237028   1.085   0.954   4.397
11711SOL     OW37029  10.961   1.892  11.728
11711SOL    HW137030  10.920   1.820  11.680
11711SOL    HW237031  10.966   1.861  11.819
11712SOL     OW37032  14.741   1.416   5.230
11712SOL    HW137033  14.692   1.494   5.204
11712SOL    HW237034  14.741   1.419   5.326
11713SOL     OW37035  14.201   1.318   0.620
11713SOL    HW137036  14.271   1.274   0.571
11713SOL    HW237037  14.146   1.247   0.652
11714SOL     OW37038  11.557   8.874   5.417
11714SOL    HW137039  11.650   8.889   5.399
11714SOL    HW237040  11.534   8.797   5.364
11715SOL     OW37041   0.053   3.483   0.224
11715SOL    HW137042   0.106   3.523   0.293
11715SOL    HW237043   0.088   3.394   0.215
11716SOL     OW37044  11.654   2.537   6.644
11716SOL    HW137045  11.692   2.452   6.622
11716SOL    HW237046  11.730   2.593   6.662
11717SOL     OW37047   6.201  13.364  10.522
11717SOL    HW137048   6.133  13.312  10.478
11717SOL    HW237049   6.155  13.442  10.552
11718SOL     OW37050  10.142   8.818  10.151
11718SOL    HW137051  10.171   8.732  10.180
11718SOL    HW237052  10.222   8.868  10.136
11719SOL     OW37053  11.359   4.490  11.229
11719SOL    HW137054  11.322   4.548  11.296
11719SOL    HW237055  11.426   4.542  11.186
11720SOL     OW37056   9.096   5.398  14.166
11720SOL    HW137057   9.145   5.343  14.227
11720SOL    HW237058   9.005   5.392  14.195
11721SOL     OW37059  12.589   4.690  14.008
11721SOL    HW137060  12.594   4.597  13.985
11721SOL    HW237061  12.657   4.702  14.075
11722SOL     OW37062  13.545   6.972   7.258
11722SOL    HW137063  13.526   6.966   7.164
11722SOL    HW237064  13.560   7.065   7.274
11723SOL     OW37065   1.503  13.463  13.623
11723SOL    HW137066   1.498  13.530  13.691
11723SOL    HW237067   1.430  13.483  13.564
11724SOL     OW37068   8.591   8.788   5.834
11724SOL    HW137069   8.560   8.806   5.746
11724SOL    HW237070   8.686   8.798   5.829
11725SOL     OW37071   7.377  10.819   7.733
11725SOL    HW137072   7.453  10.849   7.782
11725SOL    HW237073   7.316  10.787   7.800
11726SOL     OW37074   4.292   0.971   2.482
11726SOL    HW137075   4.275   0.927   2.399
11726SOL    HW237076   4.219   1.031   2.493
11727SOL     OW37077   1.067   9.775   7.180
11727SOL    HW137078   1.088   9.719   7.104
11727SOL    HW237079   1.053   9.862   7.142
11728SOL     OW37080   0.096  10.381  14.344
11728SOL    HW137081   0.144  10.304  14.374
11728SOL    HW237082   0.089  10.370  14.249
11729SOL     OW37083   5.292   5.609   4.344
11729SOL    HW137084   5.285   5.543   4.276
11729SOL    HW237085   5.257   5.567   4.423
11730SOL     OW37086  12.324   1.276   8.567
11730SOL    HW137087  12.365   1.324   8.639
11730SOL    HW237088  12.237   1.252   8.599
11731SOL     OW37089  11.506  13.912   2.759
11731SOL    HW137090  11.504  13.918   2.663
11731SOL    HW237091  11.453  13.986   2.788
11732SOL     OW37092   6.183  10.767   6.502
11732SOL    HW137093   6.268  10.811   6.502
11732SOL    HW237094   6.190  10.702   6.432
11733SOL     OW37095  11.181  12.983   8.042
11733SOL    HW137096  11.211  12.926   8.113
11733SOL    HW237097  11.145  12.923   7.977
11734SOL     OW37098  12.299  12.684   3.020
11734SOL    HW137099  12.298  12.699   3.115
11734SOL    HW237100  12.230  12.741   2.986
11735SOL     OW37101  13.481   2.592   4.714
11735SOL    HW137102  13.469   2.684   4.693
11735SOL    HW237103  13.473   2.587   4.809
11736SOL     OW37104   8.029  13.673   7.044
11736SOL    HW137105   8.124  13.689   7.040
11736SOL    HW237106   8.003  13.707   7.130
11737SOL     OW37107   8.569   4.818   9.762
11737SOL    HW137108   8.611   4.735   9.739
11737SOL    HW237109   8.601   4.880   9.696
11738SOL     OW37110   1.275  11.245   0.320
11738SOL    HW137111   1.190  11.268   0.356
11738SOL    HW237112   1.290  11.154   0.347
11739SOL     OW37113   9.309   7.230   0.722
11739SOL    HW137114   9.270   7.313   0.750
11739SOL    HW237115   9.291   7.169   0.793
11740SOL     OW37116  12.727  13.431   8.670
11740SOL    HW137117  12.768  13.403   8.752
11740SOL    HW237118  12.724  13.526   8.676
11741SOL     OW37119  13.705   7.217   4.001
11741SOL    HW137120  13.702   7.234   3.907
11741SOL    HW237121  13.666   7.130   4.012
11742SOL     OW37122   2.835   0.423  13.036
11742SOL    HW137123   2.795   0.472  12.964
11742SOL    HW237124   2.908   0.375  12.995
11743SOL     OW37125  10.229  12.604  13.277
11743SOL    HW137126  10.159  12.540  13.270
11743SOL    HW237127  10.190  12.678  13.325
11744SOL     OW37128  11.930  10.541   3.251
11744SOL    HW137129  11.929  10.626   3.296
11744SOL    HW237130  11.947  10.562   3.160
11745SOL     OW37131  13.506  12.194   4.834
11745SOL    HW137132  13.499  12.226   4.744
11745SOL    HW237133  13.416  12.177   4.861
11746SOL     OW37134   8.920   8.714   5.245
11746SOL    HW137135   8.891   8.624   5.263
11746SOL    HW237136   8.838   8.762   5.230
11747SOL     OW37137   7.444   5.721   9.735
11747SOL    HW137138   7.426   5.765   9.652
11747SOL    HW237139   7.359   5.714   9.778
11748SOL     OW37140   6.781   9.925  14.340
11748SOL    HW137141   6.871   9.956  14.350
11748SOL    HW237142   6.738   9.993  14.288
11749SOL     OW37143   1.329  10.185   3.924
11749SOL    HW137144   1.333  10.090   3.938
11749SOL    HW237145   1.260  10.197   3.859
11750SOL     OW37146  12.669  10.937   5.501
11750SOL    HW137147  12.630  10.956   5.587
11750SOL    HW237148  12.611  10.980   5.439
11751SOL     OW37149   6.534  10.875   4.983
11751SOL    HW137150   6.454  10.883   5.035
11751SOL    HW237151   6.605  10.873   5.047
11752SOL     OW37152   8.112   9.405   7.104
11752SOL    HW137153   8.046   9.337   7.118
11752SOL    HW237154   8.129   9.402   7.009
11753SOL     OW37155  10.235   2.537   7.962
11753SOL    HW137156  10.191   2.616   7.993
11753SOL    HW237157  10.176   2.466   7.987
11754SOL     OW37158  10.952   7.374   6.568
11754SOL    HW137159  11.012   7.334   6.631
11754SOL    HW237160  10.865   7.362   6.607
11755SOL     OW37161   5.017  11.562  12.342
11755SOL    HW137162   5.006  11.556  12.436
11755SOL    HW237163   5.109  11.540  12.327
11756SOL     OW37164   5.657   8.444   4.342
11756SOL    HW137165   5.701   8.445   4.256
11756SOL    HW237166   5.712   8.387   4.396
11757SOL     OW37167  13.190   2.492   0.984
11757SOL    HW137168  13.276   2.468   1.019
11757SOL    HW237169  13.132   2.422   1.012
11758SOL     OW37170   5.690  11.959   2.273
11758SOL    HW137171   5.655  11.943   2.185
11758SOL    HW237172   5.772  12.005   2.258
11759SOL     OW37173   0.063   3.440   9.777
11759SOL    HW137174   0.159   3.437   9.781
11759SOL    HW237175   0.040   3.531   9.797
11760SOL     OW37176  10.272   0.996   9.656
11760SOL    HW137177  10.244   1.030   9.741
11760SOL    HW237178  10.248   1.064   9.594
11761SOL     OW37179   9.980   1.295   7.767
11761SOL    HW137180   9.957   1.388   7.762
11761SOL    HW237181   9.963   1.271   7.858
11762SOL     OW37182   6.371   2.621  12.203
11762SOL    HW137183   6.277   2.634  12.206
11762SOL    HW237184   6.384   2.531  12.233
11763SOL     OW37185   2.895   0.728  14.560
11763SOL    HW137186   2.822   0.747  14.501
11763SOL    HW237187   2.964   0.696  14.502
11764SOL     OW37188   9.955   5.447   3.001
11764SOL    HW137189  10.042   5.477   2.974
11764SOL    HW237190   9.956   5.456   3.096
11765SOL     OW37191   7.948   5.673   7.080
11765SOL    HW137192   7.861   5.689   7.042
11765SOL    HW237193   8.001   5.746   7.049
11766SOL     OW37194  14.674   3.318   8.440
11766SOL    HW137195  14.621   3.339   8.518
11766SOL    HW237196  14.645   3.230   8.415
11767SOL     OW37197   3.803  11.912   8.457
11767SOL    HW137198   3.720  11.945   8.423
11767SOL    HW237199   3.824  11.837   8.401
11768SOL     OW37200   7.084   7.546   1.152
11768SOL    HW137201   7.108   7.520   1.241
11768SOL    HW237202   7.161   7.591   1.118
11769SOL     OW37203  12.186  11.788   7.222
11769SOL    HW137204  12.163  11.876   7.193
11769SOL    HW237205  12.118  11.731   7.184
11770SOL     OW37206  10.871   6.747   9.825
11770SOL    HW137207  10.848   6.792   9.744
11770SOL    HW237208  10.792   6.753   9.879
11771SOL     OW37209   7.627  14.140   7.757
11771SOL    HW137210   7.533  14.150   7.765
11771SOL    HW237211   7.662  14.228   7.773
11772SOL     OW37212  14.101  12.084  12.439
11772SOL    HW137213  14.057  12.077  12.524
11772SOL    HW237214  14.176  12.025  12.446
11773SOL     OW37215   3.799   3.378   5.446
11773SOL    HW137216   3.755   3.437   5.384
11773SOL    HW237217   3.727   3.328   5.486
11774SOL     OW37218  13.532   3.685  11.395
11774SOL    HW137219  13.442   3.708  11.371
11774SOL    HW237220  13.573   3.658  11.314
11775SOL     OW37221   7.101   2.822   0.693
11775SOL    HW137222   7.163   2.883   0.654
11775SOL    HW237223   7.092   2.752   0.629
11776SOL     OW37224   7.134   4.707   0.752
11776SOL    HW137225   7.175   4.701   0.839
11776SOL    HW237226   7.156   4.795   0.722
11777SOL     OW37227   3.142   8.433  11.028
11777SOL    HW137228   3.214   8.379  11.059
11777SOL    HW237229   3.071   8.417  11.091
11778SOL     OW37230  13.983   9.500  13.762
11778SOL    HW137231  14.046   9.540  13.822
11778SOL    HW237232  13.904   9.554  13.771
11779SOL     OW37233  10.516   0.726   7.018
11779SOL    HW137234  10.506   0.635   6.990
11779SOL    HW237235  10.453   0.736   7.090
11780SOL     OW37236   6.620  12.687   9.019
11780SOL    HW137237   6.596  12.762   9.074
11780SOL    HW237238   6.675  12.725   8.950
11781SOL     OW37239  10.238   5.077  13.619
11781SOL    HW137240  10.334   5.085  13.621
11781SOL    HW237241  10.218   5.057  13.528
11782SOL     OW37242   1.522  14.161   5.204
11782SOL    HW137243   1.560  14.182   5.119
11782SOL    HW237244   1.427  14.170   5.190
11783SOL     OW37245   7.176  13.803   9.743
11783SOL    HW137246   7.095  13.780   9.789
11783SOL    HW237247   7.168  13.761   9.658
11784SOL     OW37248   8.243   5.842   7.584
11784SOL    HW137249   8.335   5.819   7.570
11784SOL    HW237250   8.244   5.895   7.663
11785SOL     OW37251  11.393   3.349  13.844
11785SOL    HW137252  11.413   3.343  13.750
11785SOL    HW237253  11.331   3.421  13.851
11786SOL     OW37254   3.644  12.046   1.731
11786SOL    HW137255   3.554  12.078   1.740
11786SOL    HW237256   3.635  11.955   1.703
11787SOL     OW37257   6.179   3.767   7.566
11787SOL    HW137258   6.102   3.811   7.532
11787SOL    HW237259   6.146   3.710   7.636
11788SOL     OW37260  13.980  11.607   1.365
11788SOL    HW137261  13.984  11.671   1.294
11788SOL    HW237262  13.894  11.620   1.405
11789SOL     OW37263   1.167   4.187   6.541
11789SOL    HW137264   1.154   4.282   6.542
11789SOL    HW237265   1.258   4.176   6.569
11790SOL     OW37266   5.734   7.400  12.573
11790SOL    HW137267   5.717   7.483  12.527
11790SOL    HW237268   5.807   7.361  12.526
11791SOL     OW37269  12.385   6.789   2.692
11791SOL    HW137270  12.304   6.794   2.743
11791SOL    HW237271  12.379   6.704   2.648
11792SOL     OW37272   5.258   3.681   3.925
11792SOL    HW137273   5.337   3.660   3.875
11792SOL    HW237274   5.269   3.637   4.009
11793SOL     OW37275  12.343  10.084   3.096
11793SOL    HW137276  12.318  10.154   3.156
11793SOL    HW237277  12.297  10.007   3.130
11794SOL     OW37278  10.910   5.046  12.486
11794SOL    HW137279  10.881   5.053  12.577
11794SOL    HW237280  10.998   5.084  12.486
11795SOL     OW37281  13.039   5.033  12.518
11795SOL    HW137282  13.014   5.126  12.522
11795SOL    HW237283  13.129   5.034  12.487
11796SOL     OW37284   9.389   7.921   5.703
11796SOL    HW137285   9.358   7.989   5.763
11796SOL    HW237286   9.426   7.970   5.629
11797SOL     OW37287   3.843   1.033   1.167
11797SOL    HW137288   3.863   1.003   1.079
11797SOL    HW237289   3.751   1.009   1.181
11798SOL     OW37290   6.496   7.002  11.807
11798SOL    HW137291   6.401   7.001  11.805
11798SOL    HW237292   6.519   7.094  11.807
11799SOL     OW37293   7.160   7.783   0.622
11799SOL    HW137294   7.094   7.841   0.583
11799SOL    HW237295   7.112   7.703   0.643
11800SOL     OW37296   2.299   4.622   3.547
11800SOL    HW137297   2.222   4.671   3.576
11800SOL    HW237298   2.328   4.574   3.625
11801SOL     OW37299  11.019  12.935   5.244
11801SOL    HW137300  11.109  12.908   5.261
11801SOL    HW237301  11.026  13.028   5.222
11802SOL     OW37302   5.745  13.734   6.541
11802SOL    HW137303   5.672  13.698   6.592
11802SOL    HW237304   5.749  13.826   6.567
11803SOL     OW37305   7.996   7.263  12.390
11803SOL    HW137306   8.084   7.286  12.423
11803SOL    HW237307   8.009   7.181  12.344
11804SOL     OW37308  13.381  11.694   3.834
11804SOL    HW137309  13.408  11.676   3.924
11804SOL    HW237310  13.414  11.782   3.816
11805SOL     OW37311   9.291  10.183   3.011
11805SOL    HW137312   9.350  10.242   3.058
11805SOL    HW237313   9.342  10.153   2.936
11806SOL     OW37314  13.611   7.588  11.699
11806SOL    HW137315  13.657   7.663  11.737
11806SOL    HW237316  13.542   7.568  11.762
11807SOL     OW37317   8.092   2.199   3.456
11807SOL    HW137318   8.093   2.190   3.551
11807SOL    HW237319   8.115   2.111   3.423
11808SOL     OW37320   2.445   7.600   8.679
11808SOL    HW137321   2.388   7.611   8.756
11808SOL    HW237322   2.392   7.632   8.606
11809SOL     OW37323  13.320   1.278  11.200
11809SOL    HW137324  13.300   1.349  11.139
11809SOL    HW237325  13.332   1.201  11.145
11810SOL     OW37326  13.535   1.743   3.615
11810SOL    HW137327  13.508   1.692   3.691
11810SOL    HW237328  13.630   1.732   3.610
11811SOL     OW37329   1.131   6.134   0.592
11811SOL    HW137330   1.136   6.060   0.652
11811SOL    HW237331   1.109   6.094   0.507
11812SOL     OW37332   1.274  14.518   8.000
11812SOL    HW137333   1.315  14.533   7.916
11812SOL    HW237334   1.282  14.601   8.046
11813SOL     OW37335  12.184   9.696  13.487
11813SOL    HW137336  12.225   9.626  13.538
11813SOL    HW237337  12.220   9.685  13.399
11814SOL     OW37338  10.328  10.145   7.378
11814SOL    HW137339  10.418  10.175   7.374
11814SOL    HW237340  10.331  10.066   7.432
11815SOL     OW37341  14.789  13.735   7.959
11815SOL    HW137342  14.736  13.683   7.898
11815SOL    HW237343  14.741  13.732   8.042
11816SOL     OW37344   8.576  12.793   1.761
11816SOL    HW137345   8.576  12.888   1.776
11816SOL    HW237346   8.488  12.765   1.785
11817SOL     OW37347   2.901  11.849   2.764
11817SOL    HW137348   2.831  11.815   2.709
11817SOL    HW237349   2.981  11.835   2.714
11818SOL     OW37350   4.459   8.806   3.560
11818SOL    HW137351   4.404   8.779   3.633
11818SOL    HW237352   4.398   8.833   3.491
11819SOL     OW37353   3.690  10.671   8.681
11819SOL    HW137354   3.707  10.738   8.615
11819SOL    HW237355   3.655  10.720   8.756
11820SOL     OW37356   5.676   2.176  12.198
11820SOL    HW137357   5.764   2.212  12.191
11820SOL    HW237358   5.630   2.238  12.254
11821SOL     OW37359   0.596   1.628   8.944
11821SOL    HW137360   0.683   1.650   8.910
11821SOL    HW237361   0.563   1.562   8.883
11822SOL     OW37362  11.006  10.419   2.665
11822SOL    HW137363  10.922  10.429   2.708
11822SOL    HW237364  10.986  10.427   2.572
11823SOL     OW37365  13.110   9.436   6.107
11823SOL    HW137366  13.039   9.379   6.076
11823SOL    HW237367  13.188   9.382   6.100
11824SOL     OW37368  13.092  11.429   8.940
11824SOL    HW137369  13.081  11.334   8.939
11824SOL    HW237370  13.007  11.463   8.968
11825SOL     OW37371  11.912   5.695   2.164
11825SOL    HW137372  11.818   5.683   2.178
11825SOL    HW237373  11.919   5.735   2.078
11826SOL     OW37374   2.276   1.686   9.582
11826SOL    HW137375   2.267   1.652   9.493
11826SOL    HW237376   2.282   1.781   9.571
11827SOL     OW37377   1.981  13.411   4.395
11827SOL    HW137378   1.997  13.420   4.490
11827SOL    HW237379   2.066  13.431   4.355
11828SOL     OW37380  13.029   1.762   8.840
11828SOL    HW137381  12.936   1.748   8.826
11828SOL    HW237382  13.035   1.846   8.885
11829SOL     OW37383   4.888  13.049   3.793
11829SOL    HW137384   4.888  12.995   3.715
11829SOL    HW237385   4.937  13.127   3.768
11830SOL     OW37386   5.654  13.347   6.632
11830SOL    HW137387   5.623  13.257   6.629
11830SOL    HW237388   5.577  13.400   6.611
11831SOL     OW37389   7.393   5.242  13.804
11831SOL    HW137390   7.327   5.266  13.739
11831SOL    HW237391   7.443   5.322  13.818
11832SOL     OW37392   5.209  11.703   5.904
11832SOL    HW137393   5.280  11.671   5.960
11832SOL    HW237394   5.234  11.793   5.883
11833SOL     OW37395  11.721   8.347   3.866
11833SOL    HW137396  11.682   8.305   3.943
11833SOL    HW237397  11.815   8.340   3.881
11834SOL     OW37398   4.572  12.507   7.520
11834SOL    HW137399   4.654  12.459   7.507
11834SOL    HW237400   4.538  12.473   7.602
11835SOL     OW37401  14.274   8.470   9.065
11835SOL    HW137402  14.218   8.452   9.140
11835SOL    HW237403  14.239   8.550   9.026
11836SOL     OW37404  11.139   0.590   3.446
11836SOL    HW137405  11.170   0.612   3.358
11836SOL    HW237406  11.067   0.529   3.431
11837SOL     OW37407   1.018   1.912  13.746
11837SOL    HW137408   1.009   2.004  13.719
11837SOL    HW237409   0.928   1.882  13.759
11838SOL     OW37410   7.271  14.481   8.501
11838SOL    HW137411   7.267  14.527   8.417
11838SOL    HW237412   7.180  14.463   8.523
11839SOL     OW37413   1.808   4.061   1.366
11839SOL    HW137414   1.720   4.025   1.363
11839SOL    HW237415   1.865   3.984   1.355
11840SOL     OW37416   8.725   2.763  12.638
11840SOL    HW137417   8.789   2.704  12.599
11840SOL    HW237418   8.653   2.705  12.663
11841SOL     OW37419  10.188  11.090   4.503
11841SOL    HW137420  10.159  11.138   4.426
11841SOL    HW237421  10.120  11.107   4.569
11842SOL     OW37422   4.399  14.596  12.658
11842SOL    HW137423   4.466  14.664  12.648
11842SOL    HW237424   4.446  14.520  12.693
11843SOL     OW37425   9.315   5.523  13.552
11843SOL    HW137426   9.289   5.539  13.643
11843SOL    HW237427   9.409   5.537  13.551
11844SOL     OW37428   3.610   4.233   4.638
11844SOL    HW137429   3.648   4.162   4.690
11844SOL    HW237430   3.638   4.313   4.683
11845SOL     OW37431  13.127   4.465   9.713
11845SOL    HW137432  13.052   4.500   9.665
11845SOL    HW237433  13.200   4.522   9.688
11846SOL     OW37434   6.167   5.179   0.983
11846SOL    HW137435   6.179   5.273   0.989
11846SOL    HW237436   6.074   5.167   0.967
11847SOL     OW37437   4.055   8.368   9.663
11847SOL    HW137438   4.096   8.328   9.740
11847SOL    HW237439   3.980   8.416   9.699
11848SOL     OW37440   1.166  10.165  12.697
11848SOL    HW137441   1.184  10.147  12.789
11848SOL    HW237442   1.105  10.096  12.671
11849SOL     OW37443  14.486   1.520  13.192
11849SOL    HW137444  14.536   1.455  13.143
11849SOL    HW237445  14.415   1.544  13.133
11850SOL     OW37446   8.787  14.316  10.638
11850SOL    HW137447   8.875  14.303  10.674
11850SOL    HW237448   8.731  14.331  10.714
11851SOL     OW37449   5.672   6.356  13.059
11851SOL    HW137450   5.600   6.412  13.031
11851SOL    HW237451   5.679   6.289  12.991
11852SOL     OW37452   3.207  12.668   8.803
11852SOL    HW137453   3.284  12.705   8.759
11852SOL    HW237454   3.187  12.732   8.872
11853SOL     OW37455   0.329   1.631   2.250
11853SOL    HW137456   0.375   1.706   2.213
11853SOL    HW237457   0.398   1.580   2.293
11854SOL     OW37458  14.229   0.276   4.684
11854SOL    HW137459  14.264   0.305   4.768
11854SOL    HW237460  14.154   0.334   4.668
11855SOL     OW37461   9.777   8.979   3.124
11855SOL    HW137462   9.745   8.983   3.215
11855SOL    HW237463   9.807   9.067   3.105
11856SOL     OW37464   5.696   9.493   1.263
11856SOL    HW137465   5.775   9.453   1.300
11856SOL    HW237466   5.726   9.579   1.232
11857SOL     OW37467   8.662   0.086  12.337
11857SOL    HW137468   8.704   0.000  12.349
11857SOL    HW237469   8.595   0.070  12.270
11858SOL     OW37470   1.330  13.466  12.967
11858SOL    HW137471   1.248  13.433  13.005
11858SOL    HW237472   1.305  13.502  12.882
11859SOL     OW37473   9.364   4.115   9.685
11859SOL    HW137474   9.351   4.093   9.593
11859SOL    HW237475   9.289   4.075   9.729
11860SOL     OW37476   2.426   8.198   1.905
11860SOL    HW137477   2.468   8.143   1.838
11860SOL    HW237478   2.452   8.159   1.988
11861SOL     OW37479   9.308   0.917   0.045
11861SOL    HW137480   9.276   0.920  14.823
11861SOL    HW237481   9.228   0.922   0.098
11862SOL     OW37482   3.456   4.377  13.473
11862SOL    HW137483   3.499   4.410  13.395
11862SOL    HW237484   3.527   4.364  13.536
11863SOL     OW37485   8.902  12.944  13.458
11863SOL    HW137486   8.949  12.901  13.388
11863SOL    HW237487   8.969  12.991  13.508
11864SOL     OW37488   9.341   2.048   7.752
11864SOL    HW137489   9.280   2.088   7.690
11864SOL    HW237490   9.403   2.117   7.774
11865SOL     OW37491   8.679  10.992  13.448
11865SOL    HW137492   8.587  10.996  13.419
11865SOL    HW237493   8.722  11.064  13.401
11866SOL     OW37494   6.502  11.423  11.915
11866SOL    HW137495   6.454  11.418  11.997
11866SOL    HW237496   6.594  11.432  11.941
11867SOL     OW37497   2.108   4.426  11.464
11867SOL    HW137498   2.074   4.400  11.378
11867SOL    HW237499   2.030   4.454  11.512
11868SOL     OW37500   5.541  14.104   7.718
11868SOL    HW137501   5.504  14.017   7.703
11868SOL    HW237502   5.536  14.116   7.813
11869SOL     OW37503   2.675   2.255   7.630
11869SOL    HW137504   2.620   2.179   7.647
11869SOL    HW237505   2.679   2.261   7.534
11870SOL     OW37506  13.147   2.951   8.581
11870SOL    HW137507  13.127   3.005   8.657
11870SOL    HW237508  13.238   2.971   8.560
11871SOL     OW37509   9.850  14.163   2.266
11871SOL    HW137510   9.869  14.241   2.317
11871SOL    HW237511   9.835  14.196   2.177
11872SOL     OW37512   7.710  11.347  11.472
11872SOL    HW137513   7.638  11.316  11.526
11872SOL    HW237514   7.672  11.360  11.385
11873SOL     OW37515   8.518   7.519   2.586
11873SOL    HW137516   8.426   7.522   2.610
11873SOL    HW237517   8.546   7.610   2.584
11874SOL     OW37518   4.583  10.460   8.494
11874SOL    HW137519   4.577  10.364   8.488
11874SOL    HW237520   4.648  10.484   8.427
11875SOL     OW37521   7.616   1.256   7.414
11875SOL    HW137522   7.625   1.239   7.320
11875SOL    HW237523   7.603   1.351   7.419
11876SOL     OW37524   5.431   1.937  11.778
11876SOL    HW137525   5.526   1.938  11.767
11876SOL    HW237526   5.402   1.859  11.732
11877SOL     OW37527   5.143  14.715  12.173
11877SOL    HW137528   5.052  14.688  12.181
11877SOL    HW237529   5.194  14.639  12.203
11878SOL     OW37530   3.827   3.869  12.224
11878SOL    HW137531   3.841   3.962  12.242
11878SOL    HW237532   3.912   3.837  12.192
11879SOL     OW37533   9.174   9.613   8.977
11879SOL    HW137534   9.085   9.594   8.946
11879SOL    HW237535   9.217   9.528   8.980
11880SOL     OW37536  12.074  10.433  10.971
11880SOL    HW137537  12.039  10.497  11.032
11880SOL    HW237538  12.004  10.419  10.908
11881SOL     OW37539   5.672   6.382  13.609
11881SOL    HW137540   5.730   6.449  13.575
11881SOL    HW237541   5.689   6.304  13.555
11882SOL     OW37542   9.120   0.005   5.453
11882SOL    HW137543   9.179   0.066   5.409
11882SOL    HW237544   9.070  14.833   5.383
11883SOL     OW37545  10.677  13.884   3.006
11883SOL    HW137546  10.727  13.877   3.087
11883SOL    HW237547  10.672  13.978   2.990
11884SOL     OW37548  10.386  14.215   1.182
11884SOL    HW137549  10.413  14.251   1.098
11884SOL    HW237550  10.309  14.265   1.207
11885SOL     OW37551   2.380   3.157  10.744
11885SOL    HW137552   2.310   3.091  10.751
11885SOL    HW237553   2.445   3.117  10.686
11886SOL     OW37554  11.030   3.027   3.069
11886SOL    HW137555  11.056   3.060   3.155
11886SOL    HW237556  11.003   2.936   3.086
11887SOL     OW37557  12.629  11.960   8.002
11887SOL    HW137558  12.610  11.887   7.944
11887SOL    HW237559  12.661  11.919   8.083
11888SOL     OW37560   4.599   4.287   4.227
11888SOL    HW137561   4.603   4.229   4.151
11888SOL    HW237562   4.584   4.228   4.301
11889SOL     OW37563   6.742   5.002  14.678
11889SOL    HW137564   6.740   5.050  14.761
11889SOL    HW237565   6.813   5.044  14.628
11890SOL     OW37566   9.622  14.664  14.471
11890SOL    HW137567   9.714  14.650  14.451
11890SOL    HW237568   9.618  14.660  14.566
11891SOL     OW37569  14.495  14.685   5.097
11891SOL    HW137570  14.563  14.721   5.039
11891SOL    HW237571  14.421  14.743   5.086
11892SOL     OW37572  11.376   5.876  12.653
11892SOL    HW137573  11.314   5.821  12.605
11892SOL    HW237574  11.325   5.954  12.676
11893SOL     OW37575  11.321   0.536  10.871
11893SOL    HW137576  11.393   0.473  10.872
11893SOL    HW237577  11.271   0.516  10.951
11894SOL     OW37578   7.243   2.922   1.739
11894SOL    HW137579   7.301   2.875   1.679
11894SOL    HW237580   7.229   3.006   1.696
11895SOL     OW37581   8.702   4.344  12.233
11895SOL    HW137582   8.733   4.368  12.321
11895SOL    HW237583   8.690   4.428  12.188
11896SOL     OW37584   6.290  12.302  14.174
11896SOL    HW137585   6.198  12.283  14.158
11896SOL    HW237586   6.295  12.324  14.267
11897SOL     OW37587   7.864   6.642   1.634
11897SOL    HW137588   7.925   6.618   1.564
11897SOL    HW237589   7.817   6.561   1.653
11898SOL     OW37590   6.816  10.265   8.334
11898SOL    HW137591   6.817  10.254   8.239
11898SOL    HW237592   6.747  10.206   8.365
11899SOL     OW37593   5.136  10.431   7.160
11899SOL    HW137594   5.048  10.460   7.140
11899SOL    HW237595   5.191  10.470   7.092
11900SOL     OW37596   9.963   3.700   5.153
11900SOL    HW137597   9.868   3.708   5.163
11900SOL    HW237598   9.977   3.706   5.058
11901SOL     OW37599   8.505   1.816   6.947
11901SOL    HW137600   8.514   1.881   7.016
11901SOL    HW237601   8.581   1.830   6.890
11902SOL     OW37602  13.480  12.414  10.623
11902SOL    HW137603  13.447  12.499  10.652
11902SOL    HW237604  13.568  12.409  10.661
11903SOL     OW37605   2.034   4.367   7.867
11903SOL    HW137606   1.988   4.450   7.854
11903SOL    HW237607   2.063   4.341   7.779
11904SOL     OW37608  10.325   9.919   5.203
11904SOL    HW137609  10.250   9.924   5.263
11904SOL    HW237610  10.307   9.987   5.138
11905SOL     OW37611   1.996   6.620   0.531
11905SOL    HW137612   1.938   6.672   0.587
11905SOL    HW237613   2.084   6.651   0.552
11906SOL     OW37614  14.569  10.341   6.692
11906SOL    HW137615  14.648  10.313   6.739
11906SOL    HW237616  14.590  10.328   6.599
11907SOL     OW37617   4.627   0.612   5.259
11907SOL    HW137618   4.635   0.619   5.354
11907SOL    HW237619   4.540   0.574   5.245
11908SOL     OW37620   0.166   9.598   5.197
11908SOL    HW137621   0.250   9.579   5.238
11908SOL    HW237622   0.144   9.687   5.225
11909SOL     OW37623   1.598   9.054   5.476
11909SOL    HW137624   1.664   9.115   5.442
11909SOL    HW237625   1.584   8.992   5.405
11910SOL     OW37626  14.311   3.740  13.127
11910SOL    HW137627  14.372   3.813  13.136
11910SOL    HW237628  14.229   3.781  13.099
11911SOL     OW37629  13.251  13.318  14.419
11911SOL    HW137630  13.306  13.240  14.429
11911SOL    HW237631  13.164  13.289  14.449
11912SOL     OW37632   0.529   4.082  13.494
11912SOL    HW137633   0.597   4.134  13.452
11912SOL    HW237634   0.576   4.007  13.532
11913SOL     OW37635   4.229  12.922   0.285
11913SOL    HW137636   4.298  12.866   0.322
11913SOL    HW237637   4.149  12.893   0.329
11914SOL     OW37638   6.828   9.338  13.482
11914SOL    HW137639   6.775   9.290  13.546
11914SOL    HW237640   6.765   9.383  13.426
11915SOL     OW37641  14.039  11.546   3.670
11915SOL    HW137642  14.000  11.633   3.676
11915SOL    HW237643  13.973  11.492   3.626
11916SOL     OW37644   3.249   4.387   7.491
11916SOL    HW137645   3.221   4.353   7.576
11916SOL    HW237646   3.271   4.479   7.508
11917SOL     OW37647  11.784   7.949   7.364
11917SOL    HW137648  11.807   8.006   7.438
11917SOL    HW237649  11.707   7.901   7.393
11918SOL     OW37650   4.786  11.898   7.011
11918SOL    HW137651   4.842  11.966   7.049
11918SOL    HW237652   4.720  11.881   7.079
11919SOL     OW37653  10.521  11.150  11.869
11919SOL    HW137654  10.558  11.231  11.835
11919SOL    HW237655  10.582  11.123  11.938
11920SOL     OW37656   3.140   6.921   6.218
11920SOL    HW137657   3.166   6.995   6.164
11920SOL    HW237658   3.202   6.852   6.196
11921SOL     OW37659  12.565   9.024   4.516
11921SOL    HW137660  12.508   9.088   4.473
11921SOL    HW237661  12.652   9.062   4.509
11922SOL     OW37662   3.869   7.143  13.739
11922SOL    HW137663   3.818   7.206  13.791
11922SOL    HW237664   3.806   7.078  13.711
11923SOL     OW37665  14.506   4.302   4.734
11923SOL    HW137666  14.449   4.249   4.679
11923SOL    HW237667  14.566   4.344   4.673
11924SOL     OW37668  12.831   5.819   9.225
11924SOL    HW137669  12.839   5.772   9.308
11924SOL    HW237670  12.854   5.909   9.246
11925SOL     OW37671   5.959   2.508   1.923
11925SOL    HW137672   5.969   2.585   1.867
11925SOL    HW237673   6.049   2.483   1.946
11926SOL     OW37674   5.872  10.699   1.237
11926SOL    HW137675   5.826  10.619   1.264
11926SOL    HW237676   5.960  10.689   1.274
11927SOL     OW37677   3.181  14.059   1.482
11927SOL    HW137678   3.268  14.078   1.447
11927SOL    HW237679   3.189  13.973   1.522
11928SOL     OW37680   0.666   7.576   0.043
11928SOL    HW137681   0.630   7.570  14.823
11928SOL    HW237682   0.686   7.669   0.055
11929SOL     OW37683   4.486   6.928   5.499
11929SOL    HW137684   4.551   6.935   5.569
11929SOL    HW237685   4.509   7.000   5.439
11930SOL     OW37686   7.689   8.027   0.561
11930SOL    HW137687   7.668   8.108   0.609
11930SOL    HW237688   7.691   7.959   0.629
11931SOL     OW37689   1.595   3.001   7.061
11931SOL    HW137690   1.615   2.949   6.983
11931SOL    HW237691   1.500   2.994   7.070
11932SOL     OW37692   6.992  10.681  10.352
11932SOL    HW137693   7.025  10.592  10.344
11932SOL    HW237694   6.918  10.674  10.412
11933SOL     OW37695  14.417   3.806   6.144
11933SOL    HW137696  14.357   3.850   6.205
11933SOL    HW237697  14.362   3.739   6.102
11934SOL     OW37698   9.523   7.921   3.880
11934SOL    HW137699   9.553   7.833   3.902
11934SOL    HW237700   9.602   7.966   3.850
11935SOL     OW37701   0.285  14.377   6.501
11935SOL    HW137702   0.357  14.405   6.558
11935SOL    HW237703   0.220  14.447   6.508
11936SOL     OW37704   6.488  12.139   3.364
11936SOL    HW137705   6.554  12.204   3.389
11936SOL    HW237706   6.529  12.054   3.383
11937SOL     OW37707   3.045   0.044   9.816
11937SOL    HW137708   3.063   0.138   9.822
11937SOL    HW237709   3.107   0.004   9.877
11938SOL     OW37710  13.331  13.349   3.297
11938SOL    HW137711  13.263  13.292   3.334
11938SOL    HW237712  13.397  13.288   3.264
11939SOL     OW37713   0.699  12.883  10.738
11939SOL    HW137714   0.666  12.953  10.681
11939SOL    HW237715   0.646  12.807  10.716
11940SOL     OW37716  14.203  11.665  14.623
11940SOL    HW137717  14.151  11.736  14.661
11940SOL    HW237718  14.282  11.661  14.676
11941SOL     OW37719   0.871  13.384   4.840
11941SOL    HW137720   0.865  13.344   4.927
11941SOL    HW237721   0.933  13.456   4.851
11942SOL     OW37722  10.021   7.601   5.823
11942SOL    HW137723   9.961   7.527   5.825
11942SOL    HW237724  10.012   7.637   5.735
11943SOL     OW37725   5.919  13.219   4.420
11943SOL    HW137726   5.868  13.244   4.343
11943SOL    HW237727   5.918  13.297   4.476
11944SOL     OW37728   9.460   2.237   9.628
11944SOL    HW137729   9.527   2.278   9.682
11944SOL    HW237730   9.494   2.242   9.539
11945SOL     OW37731   2.679  14.415   2.813
11945SOL    HW137732   2.773  14.412   2.832
11945SOL    HW237733   2.663  14.340   2.756
11946SOL     OW37734  10.443   9.939   1.086
11946SOL    HW137735  10.475   9.981   1.166
11946SOL    HW237736  10.360   9.899   1.112
11947SOL     OW37737  11.663  14.288  12.102
11947SOL    HW137738  11.655  14.376  12.140
11947SOL    HW237739  11.624  14.230  12.168
11948SOL     OW37740   4.069  14.167   7.633
11948SOL    HW137741   4.094  14.075   7.630
11948SOL    HW237742   3.977  14.167   7.658
11949SOL     OW37743   6.280   2.503   8.684
11949SOL    HW137744   6.276   2.584   8.734
11949SOL    HW237745   6.347   2.450   8.728
11950SOL     OW37746  13.068  11.541   9.953
11950SOL    HW137747  12.973  11.544   9.968
11950SOL    HW237748  13.076  11.545   9.858
11951SOL     OW37749   2.174   7.632  14.087
11951SOL    HW137750   2.191   7.577  14.163
11951SOL    HW237751   2.259   7.641  14.045
11952SOL     OW37752   7.869  14.313   5.723
11952SOL    HW137753   7.855  14.360   5.805
11952SOL    HW237754   7.913  14.376   5.666
11953SOL     OW37755   8.941   9.987  10.022
11953SOL    HW137756   9.007  10.054  10.005
11953SOL    HW237757   8.857  10.031  10.008
11954SOL     OW37758  14.183   1.966   1.213
11954SOL    HW137759  14.216   1.948   1.125
11954SOL    HW237760  14.242   1.917   1.271
11955SOL     OW37761  13.053  10.714   7.430
11955SOL    HW137762  13.088  10.716   7.519
11955SOL    HW237763  13.114  10.768   7.379
11956SOL     OW37764   3.239   5.094  13.955
11956SOL    HW137765   3.263   5.118  13.865
11956SOL    HW237766   3.323   5.085  14.001
11957SOL     OW37767   1.411   7.224   4.837
11957SOL    HW137768   1.390   7.135   4.864
11957SOL    HW237769   1.356   7.239   4.760
11958SOL     OW37770  13.912   4.314   2.302
11958SOL    HW137771  13.919   4.277   2.389
11958SOL    HW237772  13.820   4.339   2.293
11959SOL     OW37773   6.718  12.706  10.172
11959SOL    HW137774   6.781  12.702  10.099
11959SOL    HW237775   6.703  12.800  10.185
11960SOL     OW37776   4.931  10.733  14.696
11960SOL    HW137777   4.973  10.688  14.769
11960SOL    HW237778   4.998  10.736  14.628
11961SOL     OW37779   7.974   1.327   5.079
11961SOL    HW137780   7.898   1.335   5.137
11961SOL    HW237781   8.049   1.347   5.134
11962SOL     OW37782  10.218   0.277  10.658
11962SOL    HW137783  10.282   0.220  10.700
11962SOL    HW237784  10.146   0.283  10.721
11963SOL     OW37785  10.000  10.120   6.019
11963SOL    HW137786   9.951  10.144   6.097
11963SOL    HW237787   9.946  10.053   5.977
11964SOL     OW37788   7.641   8.724   7.446
11964SOL    HW137789   7.592   8.642   7.457
11964SOL    HW237790   7.574   8.790   7.432
11965SOL     OW37791  10.102  11.200   0.997
11965SOL    HW137792  10.048  11.223   1.072
11965SOL    HW237793  10.178  11.256   1.004
11966SOL     OW37794  11.364  10.203   4.532
11966SOL    HW137795  11.293  10.138   4.531
11966SOL    HW237796  11.337  10.266   4.598
11967SOL     OW37797  10.168  10.433   9.581
11967SOL    HW137798  10.185  10.350   9.626
11967SOL    HW237799  10.088  10.418   9.531
11968SOL     OW37800   2.527   8.904   2.517
11968SOL    HW137801   2.502   8.814   2.534
11968SOL    HW237802   2.450   8.944   2.476
11969SOL     OW37803  10.803  13.664   8.039
11969SOL    HW137804  10.816  13.738   7.981
11969SOL    HW237805  10.733  13.613   7.998
11970SOL     OW37806   3.101  14.104   2.589
11970SOL    HW137807   3.076  14.015   2.562
11970SOL    HW237808   3.177  14.124   2.534
11971SOL     OW37809   4.610   5.627   5.095
11971SOL    HW137810   4.604   5.705   5.040
11971SOL    HW237811   4.684   5.578   5.059
11972SOL     OW37812  14.541   6.837   3.592
11972SOL    HW137813  14.613   6.828   3.530
11972SOL    HW237814  14.506   6.748   3.601
11973SOL     OW37815   6.050   4.725   6.210
11973SOL    HW137816   6.124   4.749   6.265
11973SOL    HW237817   5.976   4.721   6.271
11974SOL     OW37818  10.863   2.373   9.087
11974SOL    HW137819  10.895   2.460   9.110
11974SOL    HW237820  10.813   2.387   9.006
11975SOL     OW37821   7.634   3.327  10.245
11975SOL    HW137822   7.707   3.350  10.302
11975SOL    HW237823   7.670   3.263  10.183
11976SOL     OW37824   0.884  13.105  14.100
11976SOL    HW137825   0.977  13.117  14.120
11976SOL    HW237826   0.873  13.010  14.092
11977SOL     OW37827   0.794   4.785   0.157
11977SOL    HW137828   0.763   4.849   0.093
11977SOL    HW237829   0.873   4.824   0.193
11978SOL     OW37830   9.339  13.012   5.673
11978SOL    HW137831   9.257  12.995   5.719
11978SOL    HW237832   9.336  12.956   5.595
11979SOL     OW37833   1.756   0.748   3.574
11979SOL    HW137834   1.821   0.805   3.615
11979SOL    HW237835   1.803   0.667   3.557
11980SOL     OW37836   2.263  13.961   4.731
11980SOL    HW137837   2.174  13.934   4.713
11980SOL    HW237838   2.317  13.907   4.673
11981SOL     OW37839   8.718  11.755   7.430
11981SOL    HW137840   8.726  11.697   7.505
11981SOL    HW237841   8.762  11.709   7.359
11982SOL     OW37842  12.705  13.536  10.192
11982SOL    HW137843  12.728  13.542  10.285
11982SOL    HW237844  12.769  13.594  10.149
11983SOL     OW37845   6.855  10.030  13.848
11983SOL    HW137846   6.876  10.045  13.940
11983SOL    HW237847   6.887   9.942  13.830
11984SOL     OW37848   7.798  12.002   9.230
11984SOL    HW137849   7.813  11.908   9.235
11984SOL    HW237850   7.711  12.011   9.191
11985SOL     OW37851  12.774  10.302   1.261
11985SOL    HW137852  12.683  10.325   1.243
11985SOL    HW237853  12.783  10.312   1.356
11986SOL     OW37854  11.955   2.689   1.366
11986SOL    HW137855  11.873   2.640   1.376
11986SOL    HW237856  11.927   2.776   1.336
11987SOL     OW37857   7.837   1.345   1.226
11987SOL    HW137858   7.882   1.261   1.234
11987SOL    HW237859   7.899   1.400   1.177
11988SOL     OW37860   4.072   0.580   2.645
11988SOL    HW137861   4.028   0.522   2.582
11988SOL    HW237862   4.150   0.532   2.672
11989SOL     OW37863  13.157   5.524   6.551
11989SOL    HW137864  13.076   5.479   6.575
11989SOL    HW237865  13.222   5.490   6.613
11990SOL     OW37866   1.935   0.114   3.128
11990SOL    HW137867   1.941   0.154   3.041
11990SOL    HW237868   1.866   0.048   3.119
11991SOL     OW37869  13.986   7.459   9.180
11991SOL    HW137870  13.957   7.544   9.145
11991SOL    HW237871  14.075   7.450   9.148
11992SOL     OW37872   3.625  14.497   9.563
11992SOL    HW137873   3.538  14.535   9.559
11992SOL    HW237874   3.643  14.466   9.475
11993SOL     OW37875   3.041   8.314  14.625
11993SOL    HW137876   3.015   8.227  14.657
11993SOL    HW237877   3.077   8.358  14.702
11994SOL     OW37878   9.712   9.365   9.104
11994SOL    HW137879   9.713   9.386   9.198
11994SOL    HW237880   9.640   9.303   9.095
11995SOL     OW37881   6.817  10.355  12.719
11995SOL    HW137882   6.907  10.341  12.747
11995SOL    HW237883   6.818  10.338  12.625
11996SOL     OW37884   2.665   6.924   8.263
11996SOL    HW137885   2.715   6.991   8.216
11996SOL    HW237886   2.622   6.873   8.194
11997SOL     OW37887  11.958   4.883   7.517
11997SOL    HW137888  12.010   4.808   7.491
11997SOL    HW237889  11.884   4.846   7.566
11998SOL     OW37890   7.302   4.719  10.862
11998SOL    HW137891   7.289   4.631  10.897
11998SOL    HW237892   7.387   4.747  10.896
11999SOL     OW37893   9.614   7.603   5.148
11999SOL    HW137894   9.524   7.618   5.119
11999SOL    HW237895   9.645   7.531   5.094
12000SOL     OW37896   2.890   7.451   3.258
12000SOL    HW137897   2.808   7.440   3.305
12000SOL    HW237898   2.911   7.544   3.266
12001SOL     OW37899  12.792   0.102   5.446
12001SOL    HW137900  12.835   0.031   5.398
12001SOL    HW237901  12.703   0.103   5.413
12002SOL     OW37902  14.717   0.639   5.588
12002SOL    HW137903  14.790   0.692   5.555
12002SOL    HW237904  14.759   0.565   5.633
12003SOL     OW37905  13.860   3.147  10.483
12003SOL    HW137906  13.890   3.075  10.538
12003SOL    HW237907  13.907   3.224  10.515
12004SOL     OW37908   0.851   9.414   1.824
12004SOL    HW137909   0.778   9.367   1.863
12004SOL    HW237910   0.855   9.497   1.871
12005SOL     OW37911   0.943   6.666   6.710
12005SOL    HW137912   0.949   6.595   6.646
12005SOL    HW237913   0.850   6.688   6.713
12006SOL     OW37914   9.243  14.024   2.808
12006SOL    HW137915   9.219  14.013   2.901
12006SOL    HW237916   9.319  13.966   2.797
12007SOL     OW37917  12.009   2.895  13.706
12007SOL    HW137918  11.998   2.988  13.683
12007SOL    HW237919  12.013   2.895  13.801
12008SOL     OW37920   1.301  11.886   2.424
12008SOL    HW137921   1.352  11.945   2.368
12008SOL    HW237922   1.327  11.798   2.395
12009SOL     OW37923  13.294   4.321   6.568
12009SOL    HW137924  13.325   4.288   6.653
12009SOL    HW237925  13.352   4.280   6.504
12010SOL     OW37926  11.677  12.793   7.109
12010SOL    HW137927  11.707  12.715   7.061
12010SOL    HW237928  11.588  12.808   7.077
12011SOL     OW37929   4.786   0.359  12.247
12011SOL    HW137930   4.830   0.357  12.162
12011SOL    HW237931   4.800   0.448  12.279
12012SOL     OW37932  11.719  11.748  10.764
12012SOL    HW137933  11.795  11.704  10.801
12012SOL    HW237934  11.743  11.764  10.673
12013SOL     OW37935   6.309   6.204  10.784
12013SOL    HW137936   6.282   6.295  10.778
12013SOL    HW237937   6.227   6.155  10.789
12014SOL     OW37938   1.871  13.418  13.972
12014SOL    HW137939   1.786  13.375  13.977
12014SOL    HW237940   1.870  13.465  13.889
12015SOL     OW37941  12.864  14.044  14.293
12015SOL    HW137942  12.793  14.075  14.237
12015SOL    HW237943  12.824  13.976  14.348
12016SOL     OW37944   8.442  12.234   1.782
12016SOL    HW137945   8.435  12.322   1.746
12016SOL    HW237946   8.530  12.205   1.759
12017SOL     OW37947   2.096   0.515  10.113
12017SOL    HW137948   2.152   0.438  10.105
12017SOL    HW237949   2.056   0.507  10.200
12018SOL     OW37950  10.252   1.168   8.464
12018SOL    HW137951  10.279   1.152   8.554
12018SOL    HW237952  10.322   1.223   8.428
12019SOL     OW37953   0.682   7.596  14.622
12019SOL    HW137954   0.735   7.517  14.622
12019SOL    HW237955   0.740   7.665  14.589
12020SOL     OW37956   7.091   8.957  10.140
12020SOL    HW137957   7.005   8.926  10.168
12020SOL    HW237958   7.128   8.883  10.091
12021SOL     OW37959  11.313  11.573   9.108
12021SOL    HW137960  11.308  11.652   9.054
12021SOL    HW237961  11.394  11.531   9.081
12022SOL     OW37962   6.815   2.417   9.191
12022SOL    HW137963   6.804   2.325   9.166
12022SOL    HW237964   6.779   2.466   9.116
12023SOL     OW37965   5.412   9.712   7.939
12023SOL    HW137966   5.316   9.709   7.936
12023SOL    HW237967   5.440   9.682   7.852
12024SOL     OW37968  12.554   0.477   3.166
12024SOL    HW137969  12.648   0.486   3.148
12024SOL    HW237970  12.517   0.561   3.139
12025SOL     OW37971   8.261  10.036   7.081
12025SOL    HW137972   8.207  10.076   7.148
12025SOL    HW237973   8.295   9.956   7.121
12026SOL     OW37974  14.167   4.533  10.512
12026SOL    HW137975  14.201   4.619  10.538
12026SOL    HW237976  14.119   4.503  10.589
12027SOL     OW37977  13.652   4.978  13.019
12027SOL    HW137978  13.634   4.893  12.980
12027SOL    HW237979  13.585   4.988  13.087
12028SOL     OW37980   7.518   0.436   2.719
12028SOL    HW137981   7.587   0.401   2.662
12028SOL    HW237982   7.504   0.369   2.785
12029SOL     OW37983   3.861   4.387  10.566
12029SOL    HW137984   3.811   4.356  10.642
12029SOL    HW237985   3.899   4.308  10.528
12030SOL     OW37986   5.899   6.536  11.103
12030SOL    HW137987   5.919   6.574  11.189
12030SOL    HW237988   5.811   6.568  11.083
12031SOL     OW37989  13.975   0.017  13.357
12031SOL    HW137990  13.969   0.109  13.381
12031SOL    HW237991  13.997   0.018  13.264
12032SOL     OW37992   2.849  11.487  10.746
12032SOL    HW137993   2.760  11.521  10.757
12032SOL    HW237994   2.847  11.445  10.660
12033SOL     OW37995  11.971   8.733   4.680
12033SOL    HW137996  11.914   8.704   4.609
12033SOL    HW237997  11.932   8.815   4.711
12034SOL     OW37998  13.595   4.678   9.386
12034SOL    HW137999  13.616   4.745   9.321
12034SOL    HW238000  13.659   4.692   9.456
12035SOL     OW38001   2.164   2.047   9.275
12035SOL    HW138002   2.106   2.011   9.343
12035SOL    HW238003   2.209   1.971   9.239
12036SOL     OW38004  12.961   2.835  13.374
12036SOL    HW138005  13.010   2.849  13.292
12036SOL    HW238006  12.880   2.792  13.346
12037SOL     OW38007   1.340   6.846   4.466
12037SOL    HW138008   1.409   6.862   4.401
12037SOL    HW238009   1.350   6.754   4.489
12038SOL     OW38010   3.921   4.431  11.618
12038SOL    HW138011   3.930   4.353  11.563
12038SOL    HW238012   3.954   4.503  11.563
12039SOL     OW38013   3.036  14.684  13.707
12039SOL    HW138014   3.062  14.611  13.764
12039SOL    HW238015   3.071  14.661  13.621
12040SOL     OW38016   2.471   8.862   6.313
12040SOL    HW138017   2.403   8.914   6.269
12040SOL    HW238018   2.553   8.895   6.276
12041SOL     OW38019  10.435   7.469  12.095
12041SOL    HW138020  10.401   7.529  12.029
12041SOL    HW238021  10.367   7.402  12.106
12042SOL     OW38022  13.551  11.808  10.784
12042SOL    HW138023  13.541  11.747  10.857
12042SOL    HW238024  13.643  11.836  10.789
12043SOL     OW38025   2.871  14.064   7.813
12043SOL    HW138026   2.937  14.113   7.763
12043SOL    HW238027   2.908  14.057   7.901
12044SOL     OW38028  12.098   1.476   8.865
12044SOL    HW138029  12.143   1.391   8.856
12044SOL    HW238030  12.020   1.468   8.810
12045SOL     OW38031  13.662   6.759   3.342
12045SOL    HW138032  13.700   6.808   3.415
12045SOL    HW238033  13.737   6.723   3.295
12046SOL     OW38034  11.916   7.733   9.019
12046SOL    HW138035  11.986   7.708   8.958
12046SOL    HW238036  11.937   7.686   9.100
12047SOL     OW38037   7.263   1.991   8.049
12047SOL    HW138038   7.234   2.015   8.137
12047SOL    HW238039   7.227   1.903   8.035
12048SOL     OW38040   3.430   3.231   1.639
12048SOL    HW138041   3.494   3.291   1.677
12048SOL    HW238042   3.406   3.172   1.710
12049SOL     OW38043   9.704  12.863  14.813
12049SOL    HW138044   9.778  12.891  14.760
12049SOL    HW238045   9.632  12.854  14.750
12050SOL     OW38046   6.215  14.638   0.404
12050SOL    HW138047   6.281  14.699   0.438
12050SOL    HW238048   6.196  14.672   0.316
12051SOL     OW38049   0.394   7.112  12.601
12051SOL    HW138050   0.422   7.193  12.644
12051SOL    HW238051   0.298   7.113  12.608
12052SOL     OW38052  14.187  14.673  10.836
12052SOL    HW138053  14.202  14.693  10.744
12052SOL    HW238054  14.150  14.585  10.836
12053SOL     OW38055  11.122   1.352  11.636
12053SOL    HW138056  11.132   1.276  11.693
12053SOL    HW238057  11.195   1.410  11.661
12054SOL     OW38058  11.850  12.552   9.041
12054SOL    HW138059  11.897  12.485   9.091
12054SOL    HW238060  11.903  12.631   9.050
12055SOL     OW38061   5.245   7.595   8.597
12055SOL    HW138062   5.326   7.630   8.636
12055SOL    HW238063   5.252   7.500   8.607
12056SOL     OW38064   2.262  14.021   9.067
12056SOL    HW138065   2.247  14.103   9.019
12056SOL    HW238066   2.309  13.966   9.004
12057SOL     OW38067  13.708   7.298   6.795
12057SOL    HW138068  13.635   7.242   6.768
12057SOL    HW238069  13.759   7.311   6.715
12058SOL     OW38070   3.853   4.564   2.536
12058SOL    HW138071   3.873   4.656   2.523
12058SOL    HW238072   3.786   4.563   2.605
12059SOL     OW38073   8.917   2.991   8.604
12059SOL    HW138074   8.833   2.962   8.638
12059SOL    HW238075   8.976   2.990   8.679
12060SOL     OW38076  12.908   0.029   2.198
12060SOL    HW138077  12.958   0.069   2.127
12060SOL    HW238078  12.965   0.035   2.274
12061SOL     OW38079   3.223   9.657   3.078
12061SOL    HW138080   3.176   9.577   3.053
12061SOL    HW238081   3.311   9.627   3.100
12062SOL     OW38082   2.199   3.428   9.811
12062SOL    HW138083   2.195   3.519   9.782
12062SOL    HW238084   2.292   3.411   9.825
12063SOL     OW38085   0.760   4.557  11.744
12063SOL    HW138086   0.780   4.502  11.669
12063SOL    HW238087   0.729   4.640  11.706
12064SOL     OW38088   5.220  12.906   5.139
12064SOL    HW138089   5.172  12.905   5.222
12064SOL    HW238090   5.280  12.832   5.146
12065SOL     OW38091   2.531   2.696  12.714
12065SOL    HW138092   2.460   2.718  12.654
12065SOL    HW238093   2.578   2.779  12.726
12066SOL     OW38094   9.274   7.124   2.530
12066SOL    HW138095   9.280   7.173   2.449
12066SOL    HW238096   9.183   7.132   2.557
12067SOL     OW38097  11.934  10.977  10.842
12067SOL    HW138098  11.950  10.908  10.906
12067SOL    HW238099  12.018  11.023  10.834
12068SOL     OW38100   2.880   0.481   8.179
12068SOL    HW138101   2.936   0.498   8.103
12068SOL    HW238102   2.903   0.551   8.241
12069SOL     OW38103  10.269  10.633  12.587
12069SOL    HW138104  10.237  10.724  12.592
12069SOL    HW238105  10.346  10.638  12.531
12070SOL     OW38106   7.333   1.507   1.447
12070SOL    HW138107   7.336   1.446   1.374
12070SOL    HW238108   7.390   1.468   1.513
12071SOL     OW38109  12.073  11.793  13.593
12071SOL    HW138110  11.998  11.845  13.621
12071SOL    HW238111  12.087  11.820  13.502
12072SOL     OW38112  13.075   0.126   4.244
12072SOL    HW138113  13.020   0.057   4.206
12072SOL    HW238114  13.138   0.147   4.175
12073SOL     OW38115   3.066  10.581  14.840
12073SOL    HW138116   3.142  10.636  14.862
12073SOL    HW238117   3.007  10.640  14.793
12074SOL     OW38118  10.687  13.574   4.684
12074SOL    HW138119  10.735  13.571   4.602
12074SOL    HW238120  10.734  13.638   4.737
12075SOL     OW38121  14.539   8.897   3.354
12075SOL    HW138122  14.531   8.968   3.291
12075SOL    HW238123  14.506   8.934   3.437
12076SOL     OW38124   0.746   3.977   6.423
12076SOL    HW138125   0.770   4.025   6.343
12076SOL    HW238126   0.772   4.036   6.494
12077SOL     OW38127   2.163   7.485   0.111
12077SOL    HW138128   2.236   7.448   0.061
12077SOL    HW238129   2.086   7.467   0.058
12078SOL     OW38130  10.248  10.953  12.768
12078SOL    HW138131  10.224  10.892  12.837
12078SOL    HW238132  10.166  10.999  12.747
12079SOL     OW38133   2.129   1.116   7.734
12079SOL    HW138134   2.198   1.180   7.717
12079SOL    HW238135   2.087   1.102   7.649
12080SOL     OW38136  10.280   5.051   3.519
12080SOL    HW138137  10.337   5.058   3.596
12080SOL    HW238138  10.198   5.092   3.545
12081SOL     OW38139  14.319   8.268  13.594
12081SOL    HW138140  14.246   8.209  13.579
12081SOL    HW238141  14.338   8.306  13.508
12082SOL     OW38142   5.842  13.641   4.241
12082SOL    HW138143   5.935  13.615   4.238
12082SOL    HW238144   5.832  13.682   4.327
12083SOL     OW38145   5.465   3.778   8.886
12083SOL    HW138146   5.497   3.699   8.842
12083SOL    HW238147   5.370   3.774   8.875
12084SOL     OW38148   8.609   7.052   5.777
12084SOL    HW138149   8.631   7.145   5.782
12084SOL    HW238150   8.546   7.038   5.848
12085SOL     OW38151   6.317   9.537  14.008
12085SOL    HW138152   6.337   9.444  14.017
12085SOL    HW238153   6.324   9.572  14.097
12086SOL     OW38154   0.498   8.640   5.046
12086SOL    HW138155   0.575   8.583   5.053
12086SOL    HW238156   0.530   8.717   4.999
12087SOL     OW38157  13.242   4.264  10.332
12087SOL    HW138158  13.296   4.218  10.268
12087SOL    HW238159  13.258   4.357  10.315
12088SOL     OW38160  11.184  13.978   8.570
12088SOL    HW138161  11.114  13.975   8.505
12088SOL    HW238162  11.145  13.938   8.648
12089SOL     OW38163   7.990  11.328  10.682
12089SOL    HW138164   7.955  11.414  10.660
12089SOL    HW238165   7.941  11.301  10.760
12090SOL     OW38166   2.928   4.579  11.023
12090SOL    HW138167   2.847   4.577  10.971
12090SOL    HW238168   2.970   4.495  11.005
12091SOL     OW38169   7.606   5.985  11.141
12091SOL    HW138170   7.537   5.919  11.138
12091SOL    HW238171   7.675   5.945  11.194
12092SOL     OW38172   7.181   3.072   0.578
12092SOL    HW138173   7.273   3.055   0.560
12092SOL    HW238174   7.181   3.146   0.638
12093SOL     OW38175   0.398   3.550  10.953
12093SOL    HW138176   0.383   3.484  10.885
12093SOL    HW238177   0.464   3.608  10.915
12094SOL     OW38178   9.196  14.307   1.178
12094SOL    HW138179   9.210  14.235   1.117
12094SOL    HW238180   9.154  14.266   1.254
12095SOL     OW38181   9.547   1.917   0.144
12095SOL    HW138182   9.490   1.958   0.079
12095SOL    HW238183   9.508   1.942   0.228
12096SOL     OW38184  10.220   6.463   6.616
12096SOL    HW138185  10.233   6.432   6.527
12096SOL    HW238186  10.161   6.538   6.606
12097SOL     OW38187  10.674  11.240  14.692
12097SOL    HW138188  10.593  11.288  14.709
12097SOL    HW238189  10.650  11.175  14.625
12098SOL     OW38190   1.748  13.240   7.691
12098SOL    HW138191   1.655  13.245   7.669
12098SOL    HW238192   1.785  13.177   7.629
12099SOL     OW38193  12.321  10.423   0.818
12099SOL    HW138194  12.292  10.501   0.772
12099SOL    HW238195  12.270  10.422   0.898
12100SOL     OW38196   7.433  10.679  14.509
12100SOL    HW138197   7.504  10.620  14.533
12100SOL    HW238198   7.380  10.629  14.446
12101SOL     OW38199  14.146   3.705   8.949
12101SOL    HW138200  14.104   3.634   8.900
12101SOL    HW238201  14.075   3.749   8.994
12102SOL     OW38202  13.800  11.431   7.910
12102SOL    HW138203  13.731  11.466   7.853
12102SOL    HW238204  13.877  11.425   7.854
12103SOL     OW38205  10.984   4.909  10.755
12103SOL    HW138206  10.890   4.893  10.754
12103SOL    HW238207  11.004   4.946  10.669
12104SOL     OW38208   8.365   9.096  14.638
12104SOL    HW138209   8.392   9.047  14.715
12104SOL    HW238210   8.309   9.036  14.589
12105SOL     OW38211   9.669   3.335   4.481
12105SOL    HW138212   9.674   3.254   4.430
12105SOL    HW238213   9.628   3.398   4.421
12106SOL     OW38214   3.747   7.603   8.697
12106SOL    HW138215   3.747   7.697   8.715
12106SOL    HW238216   3.679   7.591   8.631
12107SOL     OW38217  11.465   5.836  12.121
12107SOL    HW138218  11.547   5.886  12.119
12107SOL    HW238219  11.478   5.773  12.192
12108SOL     OW38220   0.758   5.300   9.447
12108SOL    HW138221   0.754   5.360   9.521
12108SOL    HW238222   0.673   5.255   9.448
12109SOL     OW38223   1.368   9.398   4.298
12109SOL    HW138224   1.287   9.359   4.265
12109SOL    HW238225   1.438   9.341   4.266
12110SOL     OW38226   7.396   6.881  11.572
12110SOL    HW138227   7.458   6.912  11.506
12110SOL    HW238228   7.336   6.954  11.585
12111SOL     OW38229   5.988   5.206   0.121
12111SOL    HW138230   5.913   5.250   0.160
12111SOL    HW238231   5.950   5.152   0.051
12112SOL     OW38232   6.093   6.335  12.626
12112SOL    HW138233   6.003   6.303  12.637
12112SOL    HW238234   6.135   6.272  12.569
12113SOL     OW38235   2.715   1.153  12.220
12113SOL    HW138236   2.669   1.083  12.267
12113SOL    HW238237   2.650   1.187  12.159
12114SOL     OW38238   5.028   5.798   0.402
12114SOL    HW138239   4.989   5.750   0.328
12114SOL    HW238240   5.112   5.829   0.369
12115SOL     OW38241   7.196  14.677  14.477
12115SOL    HW138242   7.223  14.746  14.538
12115SOL    HW238243   7.110  14.649  14.509
12116SOL     OW38244  13.839   5.875   5.025
12116SOL    HW138245  13.836   5.793   5.073
12116SOL    HW238246  13.752   5.882   4.986
12117SOL     OW38247  14.019   5.596   4.502
12117SOL    HW138248  14.091   5.588   4.439
12117SOL    HW238249  14.043   5.536   4.573
12118SOL     OW38250   8.623   7.210   3.935
12118SOL    HW138251   8.716   7.200   3.917
12118SOL    HW238252   8.617   7.292   3.984
12119SOL     OW38253   7.389  13.293   5.162
12119SOL    HW138254   7.362  13.217   5.213
12119SOL    HW238255   7.432  13.351   5.225
12120SOL     OW38256   3.104   0.956   0.765
12120SOL    HW138257   3.110   0.980   0.672
12120SOL    HW238258   3.042   1.019   0.802
12121SOL     OW38259  13.519   9.449   5.481
12121SOL    HW138260  13.557   9.362   5.486
12121SOL    HW238261  13.594   9.508   5.476
12122SOL     OW38262   4.293   3.016   9.195
12122SOL    HW138263   4.274   3.089   9.254
12122SOL    HW238264   4.301   3.057   9.109
12123SOL     OW38265  14.011   3.364   8.202
12123SOL    HW138266  13.977   3.350   8.113
12123SOL    HW238267  14.087   3.306   8.207
12124SOL     OW38268   4.224   7.123   3.721
12124SOL    HW138269   4.287   7.174   3.772
12124SOL    HW238270   4.191   7.057   3.782
12125SOL     OW38271   5.383  14.284  12.330
12125SOL    HW138272   5.457  14.327  12.286
12125SOL    HW238273   5.383  14.195  12.296
12126SOL     OW38274   8.592  10.910  13.895
12126SOL    HW138275   8.585  10.830  13.842
12126SOL    HW238276   8.667  10.956  13.858
12127SOL     OW38277  11.479   1.373   0.803
12127SOL    HW138278  11.394   1.342   0.774
12127SOL    HW238279  11.495   1.451   0.750
12128SOL     OW38280  11.590   1.311  10.625
12128SOL    HW138281  11.567   1.312  10.532
12128SOL    HW238282  11.685   1.293  10.626
12129SOL     OW38283  12.953   1.320   6.167
12129SOL    HW138284  12.994   1.323   6.254
12129SOL    HW238285  12.966   1.230   6.137
12130SOL     OW38286   7.489   5.216  11.446
12130SOL    HW138287   7.418   5.201  11.509
12130SOL    HW238288   7.490   5.137  11.392
12131SOL     OW38289  12.477   7.880  11.719
12131SOL    HW138290  12.456   7.794  11.683
12131SOL    HW238291  12.463   7.941  11.647
12132SOL     OW38292  14.026   7.006   7.783
12132SOL    HW138293  13.989   6.920   7.802
12132SOL    HW238294  14.057   7.039   7.867
12133SOL     OW38295  10.089   1.201  10.635
12133SOL    HW138296  10.167   1.196  10.579
12133SOL    HW238297  10.106   1.277  10.692
12134SOL     OW38298  10.360  11.657  14.540
12134SOL    HW138299  10.317  11.578  14.509
12134SOL    HW238300  10.324  11.727  14.487
12135SOL     OW38301  11.167  11.788  12.719
12135SOL    HW138302  11.132  11.828  12.640
12135SOL    HW238303  11.187  11.862  12.777
12136SOL     OW38304   4.864   8.887   1.800
12136SOL    HW138305   4.769   8.884   1.804
12136SOL    HW238306   4.884   8.914   1.711
12137SOL     OW38307  12.704   5.731   8.992
12137SOL    HW138308  12.757   5.762   9.065
12137SOL    HW238309  12.662   5.809   8.958
12138SOL     OW38310   4.243   4.073  13.808
12138SOL    HW138311   4.280   3.990  13.778
12138SOL    HW238312   4.279   4.084  13.896
12139SOL     OW38313   2.292  11.726  13.098
12139SOL    HW138314   2.380  11.734  13.136
12139SOL    HW238315   2.249  11.660  13.152
12140SOL     OW38316  13.253   3.006   6.398
12140SOL    HW138317  13.159   3.014   6.380
12140SOL    HW238318  13.291   2.969   6.319
12141SOL     OW38319   1.421   6.492   3.557
12141SOL    HW138320   1.417   6.585   3.578
12141SOL    HW238321   1.515   6.475   3.544
12142SOL     OW38322   9.372   8.970   8.949
12142SOL    HW138323   9.422   8.995   8.871
12142SOL    HW238324   9.372   8.875   8.948
12143SOL     OW38325   5.134   4.820   7.202
12143SOL    HW138326   5.206   4.874   7.170
12143SOL    HW238327   5.165   4.787   7.286
12144SOL     OW38328   6.506  13.641   7.892
12144SOL    HW138329   6.521  13.712   7.954
12144SOL    HW238330   6.495  13.563   7.946
12145SOL     OW38331   2.084  14.573   1.957
12145SOL    HW138332   2.158  14.517   1.981
12145SOL    HW238333   2.109  14.612   1.874
12146SOL     OW38334  12.441   1.558   3.407
12146SOL    HW138335  12.418   1.651   3.398
12146SOL    HW238336  12.411   1.518   3.326
12147SOL     OW38337   7.269  11.905  13.806
12147SOL    HW138338   7.323  11.853  13.865
12147SOL    HW238339   7.300  11.882  13.718
12148SOL     OW38340   6.533  11.670   9.478
12148SOL    HW138341   6.465  11.618   9.435
12148SOL    HW238342   6.595  11.692   9.408
12149SOL     OW38343   9.712   5.995   8.029
12149SOL    HW138344   9.713   6.056   7.956
12149SOL    HW238345   9.673   5.915   7.994
12150SOL     OW38346   1.456  13.166  12.592
12150SOL    HW138347   1.363  13.186  12.586
12150SOL    HW238348   1.488  13.172  12.502
12151SOL     OW38349  13.532  11.188  13.611
12151SOL    HW138350  13.475  11.231  13.548
12151SOL    HW238351  13.525  11.241  13.691
12152SOL     OW38352   0.639   8.745   3.485
12152SOL    HW138353   0.654   8.656   3.515
12152SOL    HW238354   0.658   8.743   3.391
12153SOL     OW38355   6.390   2.493   1.707
12153SOL    HW138356   6.343   2.534   1.634
12153SOL    HW238357   6.450   2.431   1.666
12154SOL     OW38358  13.386  12.965   2.563
12154SOL    HW138359  13.424  12.905   2.627
12154SOL    HW238360  13.351  12.909   2.494
12155SOL     OW38361   9.523   8.196   2.094
12155SOL    HW138362   9.505   8.228   2.182
12155SOL    HW238363   9.610   8.156   2.101
12156SOL     OW38364   9.158  12.112   6.993
12156SOL    HW138365   9.130  12.031   6.950
12156SOL    HW238366   9.201  12.163   6.924
12157SOL     OW38367   5.814  13.721   1.478
12157SOL    HW138368   5.808  13.735   1.573
12157SOL    HW238369   5.724  13.733   1.447
12158SOL     OW38370   2.422   5.259   0.751
12158SOL    HW138371   2.449   5.196   0.684
12158SOL    HW238372   2.461   5.226   0.832
12159SOL     OW38373   9.110   7.466  13.879
12159SOL    HW138374   9.103   7.411  13.957
12159SOL    HW238375   9.170   7.418  13.822
12160SOL     OW38376   3.947  11.055   2.637
12160SOL    HW138377   3.859  11.088   2.658
12160SOL    HW238378   3.974  11.008   2.716
12161SOL     OW38379   4.518   4.490   3.868
12161SOL    HW138380   4.534   4.466   3.777
12161SOL    HW238381   4.439   4.544   3.865
12162SOL     OW38382   6.093   3.154   5.423
12162SOL    HW138383   6.145   3.211   5.366
12162SOL    HW238384   6.050   3.214   5.484
12163SOL     OW38385   1.465  12.691   5.821
12163SOL    HW138386   1.480  12.665   5.911
12163SOL    HW238387   1.456  12.786   5.824
12164SOL     OW38388  10.197   7.318   8.747
12164SOL    HW138389  10.228   7.376   8.816
12164SOL    HW238390  10.103   7.310   8.763
12165SOL     OW38391  14.413   7.234   2.191
12165SOL    HW138392  14.458   7.250   2.108
12165SOL    HW238393  14.422   7.316   2.239
12166SOL     OW38394   7.454   2.473  12.595
12166SOL    HW138395   7.430   2.550  12.544
12166SOL    HW238396   7.510   2.422  12.537
12167SOL     OW38397   2.646   8.843   3.661
12167SOL    HW138398   2.584   8.844   3.589
12167SOL    HW238399   2.592   8.833   3.739
12168SOL     OW38400   3.167   0.736   7.655
12168SOL    HW138401   3.141   0.670   7.591
12168SOL    HW238402   3.195   0.811   7.603
12169SOL     OW38403  11.020   4.691  14.732
12169SOL    HW138404  10.973   4.624  14.682
12169SOL    HW238405  10.970   4.700  14.813
12170SOL     OW38406   9.019   5.979   3.799
12170SOL    HW138407   9.051   6.063   3.765
12170SOL    HW238408   9.084   5.915   3.768
12171SOL     OW38409   6.075  13.586  11.937
12171SOL    HW138410   6.091  13.622  12.024
12171SOL    HW238411   6.115  13.648  11.877
12172SOL     OW38412   9.554   5.066  14.161
12172SOL    HW138413   9.570   5.055  14.255
12172SOL    HW238414   9.548   5.161  14.149
12173SOL     OW38415  10.150   7.928   7.061
12173SOL    HW138416  10.237   7.950   7.026
12173SOL    HW238417  10.091   7.941   6.987
12174SOL     OW38418   1.756  11.395  13.690
12174SOL    HW138419   1.837  11.389  13.638
12174SOL    HW238420   1.762  11.322  13.751
12175SOL     OW38421  12.687  14.353  12.400
12175SOL    HW138422  12.626  14.396  12.340
12175SOL    HW238423  12.631  14.297  12.454
12176SOL     OW38424   2.716  10.148   3.455
12176SOL    HW138425   2.702  10.136   3.549
12176SOL    HW238426   2.812  10.147   3.445
12177SOL     OW38427   9.963   9.746   9.851
12177SOL    HW138428  10.036   9.714   9.797
12177SOL    HW238429   9.891   9.685   9.832
12178SOL     OW38430  10.326   3.058   7.504
12178SOL    HW138431  10.416   3.039   7.479
12178SOL    HW238432  10.326   3.051   7.600
12179SOL     OW38433   9.776   5.584  11.466
12179SOL    HW138434   9.780   5.648  11.395
12179SOL    HW238435   9.799   5.500  11.425
12180SOL     OW38436   9.449  13.172   9.437
12180SOL    HW138437   9.531  13.219   9.455
12180SOL    HW238438   9.382  13.222   9.484
12181SOL     OW38439   6.866   1.365  11.915
12181SOL    HW138440   6.870   1.428  11.988
12181SOL    HW238441   6.856   1.420  11.837
12182SOL     OW38442   0.062  12.024   7.131
12182SOL    HW138443   0.123  12.092   7.158
12182SOL    HW238444   0.113  11.966   7.074
12183SOL     OW38445  14.519   3.413  10.977
12183SOL    HW138446  14.439   3.365  10.998
12183SOL    HW238447  14.490   3.487  10.924
12184SOL     OW38448   3.603  13.999   3.806
12184SOL    HW138449   3.623  13.981   3.714
12184SOL    HW238450   3.638  14.087   3.821
12185SOL     OW38451   7.989   7.710   1.636
12185SOL    HW138452   7.991   7.773   1.565
12185SOL    HW238453   7.977   7.762   1.715
12186SOL     OW38454  13.693   1.492  13.779
12186SOL    HW138455  13.697   1.539  13.862
12186SOL    HW238456  13.783   1.465  13.762
12187SOL     OW38457  13.528  14.136   9.616
12187SOL    HW138458  13.497  14.046   9.624
12187SOL    HW238459  13.520  14.157   9.523
12188SOL     OW38460   4.031   9.251  11.985
12188SOL    HW138461   4.069   9.197  11.915
12188SOL    HW238462   4.025   9.338  11.946
12189SOL     OW38463   4.796   8.552  14.831
12189SOL    HW138464   4.804   8.505  14.748
12189SOL    HW238465   4.723   8.511   0.008
12190SOL     OW38466  14.750  12.900  12.834
12190SOL    HW138467  14.814  12.968  12.854
12190SOL    HW238468  14.761  12.882  12.741
12191SOL     OW38469  13.151  13.942   6.332
12191SOL    HW138470  13.175  13.895   6.413
12191SOL    HW238471  13.080  14.000   6.358
12192SOL     OW38472  14.490   3.075  12.967
12192SOL    HW138473  14.447   3.083  12.881
12192SOL    HW238474  14.418   3.077  13.029
12193SOL     OW38475   3.554   0.934   8.235
12193SOL    HW138476   3.522   0.879   8.163
12193SOL    HW238477   3.479   0.943   8.294
12194SOL     OW38478  10.023   8.541   4.946
12194SOL    HW138479   9.936   8.580   4.942
12194SOL    HW238480  10.017   8.472   5.012
12195SOL     OW38481   9.585  11.153   2.130
12195SOL    HW138482   9.646  11.227   2.134
12195SOL    HW238483   9.570  11.140   2.036
12196SOL     OW38484   2.446   4.250   7.091
12196SOL    HW138485   2.432   4.325   7.150
12196SOL    HW238486   2.519   4.202   7.130
12197SOL     OW38487  10.737  10.663   9.627
12197SOL    HW138488  10.811  10.723   9.633
12197SOL    HW238489  10.772  10.587   9.581
12198SOL     OW38490   8.732   5.918   6.257
12198SOL    HW138491   8.757   6.002   6.296
12198SOL    HW238492   8.654   5.892   6.308
12199SOL     OW38493   9.856   4.704   3.702
12199SOL    HW138494   9.832   4.746   3.620
12199SOL    HW238495   9.895   4.774   3.754
12200SOL     OW38496  13.530  10.635  12.381
12200SOL    HW138497  13.481  10.616  12.461
12200SOL    HW238498  13.472  10.608  12.310
12201SOL     OW38499   4.987   2.596   4.925
12201SOL    HW138500   5.038   2.558   4.997
12201SOL    HW238501   4.939   2.668   4.965
12202SOL     OW38502  13.240   4.183   5.772
12202SOL    HW138503  13.210   4.209   5.859
12202SOL    HW238504  13.260   4.090   5.780
12203SOL     OW38505  10.995   2.758   3.154
12203SOL    HW138506  10.958   2.766   3.242
12203SOL    HW238507  10.954   2.679   3.119
12204SOL     OW38508   5.327   8.169   2.695
12204SOL    HW138509   5.361   8.207   2.613
12204SOL    HW238510   5.401   8.173   2.756
12205SOL     OW38511   8.034   7.095  12.915
12205SOL    HW138512   8.086   7.024  12.876
12205SOL    HW238513   8.046   7.169  12.855
12206SOL     OW38514   3.657   8.985  12.706
12206SOL    HW138515   3.596   8.911  12.707
12206SOL    HW238516   3.665   9.010  12.798
12207SOL     OW38517  13.736   9.188  11.588
12207SOL    HW138518  13.804   9.200  11.655
12207SOL    HW238519  13.783   9.155  11.512
12208SOL     OW38520   6.191   4.098   2.516
12208SOL    HW138521   6.116   4.121   2.461
12208SOL    HW238522   6.261   4.156   2.487
12209SOL     OW38523   6.049   1.417  14.173
12209SOL    HW138524   6.115   1.453  14.115
12209SOL    HW238525   6.070   1.324  14.180
12210SOL     OW38526   4.106  12.529  10.609
12210SOL    HW138527   4.038  12.482  10.561
12210SOL    HW238528   4.066  12.612  10.634
12211SOL     OW38529  13.930   0.080   5.642
12211SOL    HW138530  13.888   0.055   5.725
12211SOL    HW238531  13.937  14.865   5.594
12212SOL     OW38532   9.767   6.591  12.951
12212SOL    HW138533   9.758   6.642  13.031
12212SOL    HW238534   9.683   6.603  12.905
12213SOL     OW38535   8.341   1.763   4.046
12213SOL    HW138536   8.306   1.829   4.107
12213SOL    HW238537   8.264   1.735   3.996
12214SOL     OW38538  14.421   4.677   2.610
12214SOL    HW138539  14.334   4.680   2.571
12214SOL    HW238540  14.420   4.746   2.677
12215SOL     OW38541   4.088  13.231  10.278
12215SOL    HW138542   4.004  13.237  10.232
12215SOL    HW238543   4.120  13.321  10.282
12216SOL     OW38544   2.786   5.273  13.278
12216SOL    HW138545   2.842   5.201  13.248
12216SOL    HW238546   2.708   5.230  13.314
12217SOL     OW38547  14.245  11.411  10.250
12217SOL    HW138548  14.174  11.436  10.191
12217SOL    HW238549  14.267  11.492  10.296
12218SOL     OW38550   5.085   2.767   5.816
12218SOL    HW138551   5.007   2.781   5.763
12218SOL    HW238552   5.054   2.774   5.907
12219SOL     OW38553   2.493   7.113   2.597
12219SOL    HW138554   2.464   7.029   2.633
12219SOL    HW238555   2.435   7.177   2.638
12220SOL     OW38556  12.820   9.004  12.398
12220SOL    HW138557  12.771   8.989  12.318
12220SOL    HW238558  12.853   8.918  12.424
12221SOL     OW38559   9.008   7.359   9.377
12221SOL    HW138560   9.102   7.342   9.367
12221SOL    HW238561   8.991   7.346   9.470
12222SOL     OW38562   3.503   8.865  10.844
12222SOL    HW138563   3.450   8.884  10.767
12222SOL    HW238564   3.524   8.772  10.837
12223SOL     OW38565   3.438   8.922   0.306
12223SOL    HW138566   3.428   8.992   0.370
12223SOL    HW238567   3.359   8.927   0.252
12224SOL     OW38568   9.591   3.077  11.940
12224SOL    HW138569   9.599   3.143  12.009
12224SOL    HW238570   9.672   3.028  11.944
12225SOL     OW38571  10.377  12.895  13.876
12225SOL    HW138572  10.468  12.869  13.861
12225SOL    HW238573  10.354  12.948  13.799
12226SOL     OW38574  12.526   8.876  10.507
12226SOL    HW138575  12.616   8.908  10.507
12226SOL    HW238576  12.482   8.927  10.439
12227SOL     OW38577  11.756   8.516  10.030
12227SOL    HW138578  11.851   8.524  10.034
12227SOL    HW238579  11.737   8.490   9.940
12228SOL     OW38580   3.606   8.051  13.299
12228SOL    HW138581   3.615   7.978  13.360
12228SOL    HW238582   3.535   8.025  13.240
12229SOL     OW38583  11.094   4.022  11.176
12229SOL    HW138584  11.166   4.024  11.239
12229SOL    HW238585  11.029   3.965  11.218
12230SOL     OW38586   1.629  14.517   2.484
12230SOL    HW138587   1.542  14.549   2.462
12230SOL    HW238588   1.680  14.529   2.403
12231SOL     OW38589  11.909   2.091   4.873
12231SOL    HW138590  11.818   2.092   4.903
12231SOL    HW238591  11.958   2.134   4.943
12232SOL     OW38592   1.912   8.869   2.390
12232SOL    HW138593   1.985   8.925   2.418
12232SOL    HW238594   1.868   8.844   2.472
12233SOL     OW38595   7.545   0.468  13.753
12233SOL    HW138596   7.564   0.402  13.820
12233SOL    HW238597   7.599   0.441  13.678
12234SOL     OW38598  11.970   6.566   2.562
12234SOL    HW138599  12.032   6.637   2.546
12234SOL    HW238600  11.973   6.552   2.656
12235SOL     OW38601   0.809  13.669   6.637
12235SOL    HW138602   0.868  13.607   6.593
12235SOL    HW238603   0.733  13.616   6.661
12236SOL     OW38604  11.159   6.375   7.153
12236SOL    HW138605  11.164   6.417   7.067
12236SOL    HW238606  11.239   6.402   7.198
12237SOL     OW38607   5.038   6.610   3.317
12237SOL    HW138608   5.132   6.600   3.329
12237SOL    HW238609   5.024   6.705   3.312
12238SOL     OW38610  13.959  13.123   9.334
12238SOL    HW138611  13.889  13.088   9.279
12238SOL    HW238612  13.935  13.095   9.423
12239SOL     OW38613   9.711   3.251  12.894
12239SOL    HW138614   9.623   3.216  12.878
12239SOL    HW238615   9.722   3.318  12.827
12240SOL     OW38616  10.549  14.033   4.407
12240SOL    HW138617  10.568  14.114   4.455
12240SOL    HW238618  10.553  13.965   4.474
12241SOL     OW38619  10.893   4.600   4.663
12241SOL    HW138620  10.849   4.637   4.739
12241SOL    HW238621  10.854   4.646   4.588
12242SOL     OW38622   0.511  10.558  12.567
12242SOL    HW138623   0.597  10.600  12.575
12242SOL    HW238624   0.520  10.477  12.618
12243SOL     OW38625   3.375   0.976   4.583
12243SOL    HW138626   3.438   0.951   4.650
12243SOL    HW238627   3.428   1.012   4.512
12244SOL     OW38628  12.430   2.404   4.552
12244SOL    HW138629  12.340   2.436   4.565
12244SOL    HW238630  12.458   2.376   4.639
12245SOL     OW38631   7.087  10.392   0.783
12245SOL    HW138632   7.097  10.478   0.824
12245SOL    HW238633   7.032  10.343   0.843
12246SOL     OW38634   8.331   4.057  10.323
12246SOL    HW138635   8.266   3.987  10.333
12246SOL    HW238636   8.342   4.093  10.411
12247SOL     OW38637   6.508   2.204  12.120
12247SOL    HW138638   6.467   2.153  12.190
12247SOL    HW238639   6.520   2.291  12.158
12248SOL     OW38640   3.474   8.439   0.420
12248SOL    HW138641   3.419   8.509   0.456
12248SOL    HW238642   3.563   8.467   0.438
12249SOL     OW38643   0.528   9.226   1.026
12249SOL    HW138644   0.514   9.236   1.120
12249SOL    HW238645   0.444   9.247   0.986
12250SOL     OW38646  11.457   2.272   8.572
12250SOL    HW138647  11.425   2.360   8.553
12250SOL    HW238648  11.534   2.261   8.516
12251SOL     OW38649  10.273   3.681   4.419
12251SOL    HW138650  10.342   3.645   4.363
12251SOL    HW238651  10.192   3.652   4.378
12252SOL     OW38652   9.947  13.983  13.980
12252SOL    HW138653   9.984  14.048  14.040
12252SOL    HW238654   9.905  14.035  13.911
12253SOL     OW38655   6.026   7.174   8.046
12253SOL    HW138656   5.953   7.202   8.101
12253SOL    HW238657   6.104   7.202   8.094
12254SOL     OW38658  10.830   7.831  11.246
12254SOL    HW138659  10.924   7.848  11.253
12254SOL    HW238660  10.801   7.886  11.173
12255SOL     OW38661   9.995   6.676   6.624
12255SOL    HW138662   9.916   6.656   6.674
12255SOL    HW238663   9.965   6.734   6.553
12256SOL     OW38664   5.897   4.984   7.140
12256SOL    HW138665   5.968   4.921   7.153
12256SOL    HW238666   5.930   5.045   7.074
12257SOL     OW38667   0.879   2.749  13.253
12257SOL    HW138668   0.807   2.734  13.192
12257SOL    HW238669   0.958   2.736  13.201
12258SOL     OW38670  12.754  10.909  11.849
12258SOL    HW138671  12.731  10.967  11.776
12258SOL    HW238672  12.703  10.830  11.833
12259SOL     OW38673  14.522   8.862  14.359
12259SOL    HW138674  14.492   8.785  14.407
12259SOL    HW238675  14.511   8.934  14.422
12260SOL     OW38676  14.536   4.868  10.164
12260SOL    HW138677  14.560   4.955  10.197
12260SOL    HW238678  14.477   4.886  10.091
12261SOL     OW38679  12.296   1.638  10.459
12261SOL    HW138680  12.238   1.681  10.396
12261SOL    HW238681  12.284   1.545  10.443
12262SOL     OW38682   3.184  12.870  14.372
12262SOL    HW138683   3.274  12.859  14.402
12262SOL    HW238684   3.167  12.792  14.319
12263SOL     OW38685   5.440  14.746  11.308
12263SOL    HW138686   5.474  14.691  11.379
12263SOL    HW238687   5.385  14.688  11.256
12264SOL     OW38688   9.639   9.578   0.206
12264SOL    HW138689   9.619   9.652   0.264
12264SOL    HW238690   9.569   9.515   0.224
12265SOL     OW38691   4.592  12.626  12.955
12265SOL    HW138692   4.523  12.641  13.020
12265SOL    HW238693   4.617  12.534  12.968
12266SOL     OW38694   8.874   2.125   1.153
12266SOL    HW138695   8.869   2.167   1.239
12266SOL    HW238696   8.918   2.189   1.098
12267SOL     OW38697   1.054   1.010  14.170
12267SOL    HW138698   1.112   1.000  14.094
12267SOL    HW238699   1.045   0.922  14.206
12268SOL     OW38700   2.520  11.224   8.770
12268SOL    HW138701   2.467  11.220   8.690
12268SOL    HW238702   2.456  11.218   8.840
12269SOL     OW38703   5.053   2.442  12.382
12269SOL    HW138704   4.999   2.369  12.350
12269SOL    HW238705   5.114   2.459  12.310
12270SOL     OW38706  10.856   9.411   9.174
12270SOL    HW138707  10.831   9.369   9.256
12270SOL    HW238708  10.797   9.486   9.166
12271SOL     OW38709  13.362   9.079  13.775
12271SOL    HW138710  13.332   9.064  13.865
12271SOL    HW238711  13.383   9.173  13.772
12272SOL     OW38712  11.491  11.084   5.637
12272SOL    HW138713  11.566  11.099   5.580
12272SOL    HW238714  11.438  11.019   5.592
12273SOL     OW38715   0.418   7.617   8.236
12273SOL    HW138716   0.375   7.565   8.169
12273SOL    HW238717   0.426   7.557   8.311
12274SOL     OW38718   9.796   4.321  11.650
12274SOL    HW138719   9.798   4.302  11.744
12274SOL    HW238720   9.874   4.277  11.615
12275SOL     OW38721  10.877   1.240  12.756
12275SOL    HW138722  10.794   1.191  12.761
12275SOL    HW238723  10.944   1.174  12.772
12276SOL     OW38724  10.077  11.220   9.747
12276SOL    HW138725  10.154  11.256   9.702
12276SOL    HW238726  10.040  11.158   9.684
12277SOL     OW38727   5.703  12.807   8.625
12277SOL    HW138728   5.761  12.734   8.646
12277SOL    HW238729   5.642  12.810   8.698
12278SOL     OW38730  11.964   9.460  11.342
12278SOL    HW138731  12.008   9.430  11.421
12278SOL    HW238732  11.983   9.554  11.339
12279SOL     OW38733   7.162   9.705   6.623
12279SOL    HW138734   7.152   9.637   6.556
12279SOL    HW238735   7.130   9.785   6.581
12280SOL     OW38736   7.914   9.082   8.877
12280SOL    HW138737   7.903   9.075   8.782
12280SOL    HW238738   7.980   9.016   8.898
12281SOL     OW38739  13.933   3.893  12.571
12281SOL    HW138740  14.022   3.910  12.603
12281SOL    HW238741  13.876   3.944  12.629
12282SOL     OW38742   1.087   7.127  14.619
12282SOL    HW138743   1.099   7.138  14.714
12282SOL    HW238744   1.088   7.217  14.585
12283SOL     OW38745   0.544   1.034  13.662
12283SOL    HW138746   0.483   1.003  13.595
12283SOL    HW238747   0.519   1.125  13.678
12284SOL     OW38748   6.787   6.251   0.936
12284SOL    HW138749   6.782   6.173   0.991
12284SOL    HW238750   6.779   6.324   0.997
12285SOL     OW38751  11.879   8.035  14.084
12285SOL    HW138752  11.886   8.122  14.043
12285SOL    HW238753  11.961   8.025  14.132
12286SOL     OW38754   7.857   5.374   3.758
12286SOL    HW138755   7.928   5.438   3.762
12286SOL    HW238756   7.797   5.399   3.828
12287SOL     OW38757   7.966  11.885   9.699
12287SOL    HW138758   7.891  11.883   9.640
12287SOL    HW238759   7.942  11.826   9.771
12288SOL     OW38760   1.852   2.117   1.193
12288SOL    HW138761   1.873   2.085   1.106
12288SOL    HW238762   1.886   2.207   1.195
12289SOL     OW38763   3.169   3.280  11.998
12289SOL    HW138764   3.134   3.200  12.037
12289SOL    HW238765   3.258   3.257  11.971
12290SOL     OW38766   6.897  14.306   4.178
12290SOL    HW138767   6.885  14.265   4.093
12290SOL    HW238768   6.989  14.332   4.180
12291SOL     OW38769   4.670   5.985  10.328
12291SOL    HW138770   4.660   6.070  10.284
12291SOL    HW238771   4.736   5.939  10.276
12292SOL     OW38772   2.304  13.724   4.518
12292SOL    HW138773   2.382  13.675   4.544
12292SOL    HW238774   2.235  13.692   4.575
12293SOL     OW38775   8.225   6.638  10.881
12293SOL    HW138776   8.198   6.549  10.902
12293SOL    HW238777   8.316   6.629  10.851
12294SOL     OW38778   8.761  12.521   0.564
12294SOL    HW138779   8.686  12.580   0.554
12294SOL    HW238780   8.727  12.448   0.614
12295SOL     OW38781   4.556  10.399  12.945
12295SOL    HW138782   4.506  10.350  13.011
12295SOL    HW238783   4.498  10.402  12.869
12296SOL     OW38784   6.540  11.050   8.696
12296SOL    HW138785   6.624  11.009   8.676
12296SOL    HW238786   6.479  10.976   8.703
12297SOL     OW38787  14.597   0.819  12.084
12297SOL    HW138788  14.543   0.749  12.048
12297SOL    HW238789  14.684   0.803  12.048
12298SOL     OW38790  12.883   7.176   2.205
12298SOL    HW138791  12.960   7.177   2.148
12298SOL    HW238792  12.889   7.094   2.254
12299SOL     OW38793   9.294  12.740   8.958
12299SOL    HW138794   9.204  12.768   8.944
12299SOL    HW238795   9.287  12.660   9.010
12300SOL     OW38796   3.789   6.129   2.960
12300SOL    HW138797   3.876   6.094   2.939
12300SOL    HW238798   3.780   6.206   2.903
12301SOL     OW38799   3.216   7.527  13.359
12301SOL    HW138800   3.307   7.535  13.330
12301SOL    HW238801   3.173   7.605  13.324
12302SOL     OW38802   9.696  10.143  11.353
12302SOL    HW138803   9.646  10.210  11.308
12302SOL    HW238804   9.774  10.189  11.385
12303SOL     OW38805  14.774   0.191  14.547
12303SOL    HW138806  14.803   0.105  14.578
12303SOL    HW238807  14.715   0.172  14.474
12304SOL     OW38808   0.902  10.540   4.217
12304SOL    HW138809   0.991  10.572   4.227
12304SOL    HW238810   0.912  10.445   4.206
12305SOL     OW38811   8.096   9.400   1.786
12305SOL    HW138812   8.169   9.339   1.800
12305SOL    HW238813   8.021   9.358   1.828
12306SOL     OW38814   2.951   3.684   8.867
12306SOL    HW138815   2.959   3.621   8.795
12306SOL    HW238816   2.857   3.696   8.877
12307SOL     OW38817  10.775  12.653   3.247
12307SOL    HW138818  10.755  12.709   3.172
12307SOL    HW238819  10.728  12.571   3.229
12308SOL     OW38820   7.081  13.924  10.179
12308SOL    HW138821   7.088  14.010  10.138
12308SOL    HW238822   7.017  13.935  10.249
12309SOL     OW38823   6.245   8.492   8.575
12309SOL    HW138824   6.307   8.419   8.569
12309SOL    HW238825   6.207   8.498   8.487
12310SOL     OW38826   3.806   4.539   9.093
12310SOL    HW138827   3.805   4.612   9.030
12310SOL    HW238828   3.790   4.581   9.178
12311SOL     OW38829   7.787  12.050   5.734
12311SOL    HW138830   7.749  11.974   5.779
12311SOL    HW238831   7.742  12.053   5.649
12312SOL     OW38832   4.187   4.679  13.199
12312SOL    HW138833   4.225   4.707  13.116
12312SOL    HW238834   4.145   4.757  13.235
12313SOL     OW38835  10.665   1.482  12.144
12313SOL    HW138836  10.682   1.483  12.238
12313SOL    HW238837  10.599   1.413  12.132
12314SOL     OW38838  13.829   0.092   3.189
12314SOL    HW138839  13.801   0.184   3.198
12314SOL    HW238840  13.793   0.049   3.267
12315SOL     OW38841   9.499  10.463   6.809
12315SOL    HW138842   9.553  10.385   6.798
12315SOL    HW238843   9.435  10.458   6.738
12316SOL     OW38844   1.570   1.089  12.313
12316SOL    HW138845   1.614   1.151  12.371
12316SOL    HW238846   1.640   1.053  12.259
12317SOL     OW38847   8.904  11.228  14.211
12317SOL    HW138848   8.909  11.179  14.294
12317SOL    HW238849   8.911  11.320  14.238
12318SOL     OW38850   5.249  14.857   4.182
12318SOL    HW138851   5.224  14.765   4.193
12318SOL    HW238852   5.344  14.858   4.193
12319SOL     OW38853  12.162  11.059   8.720
12319SOL    HW138854  12.237  11.047   8.777
12319SOL    HW238855  12.149  10.973   8.679
12320SOL     OW38856   7.817  12.919   8.117
12320SOL    HW138857   7.833  12.850   8.053
12320SOL    HW238858   7.816  12.874   8.202
12321SOL     OW38859   1.229  14.824  14.574
12321SOL    HW138860   1.247  14.785  14.660
12321SOL    HW238861   1.161   0.021  14.591
12322SOL     OW38862   5.412  13.937   7.430
12322SOL    HW138863   5.486  13.994   7.409
12322SOL    HW238864   5.436  13.852   7.392
12323SOL     OW38865   7.085  14.691  13.614
12323SOL    HW138866   7.086  14.616  13.554
12323SOL    HW238867   7.086  14.653  13.701
12324SOL     OW38868  11.776  10.664  14.542
12324SOL    HW138869  11.708  10.600  14.561
12324SOL    HW238870  11.759  10.692  14.452
12325SOL     OW38871  12.965  14.171   8.032
12325SOL    HW138872  13.014  14.212   8.102
12325SOL    HW238873  12.989  14.221   7.953
12326SOL     OW38874   4.112  12.311  10.809
12326SOL    HW138875   4.109  12.371  10.883
12326SOL    HW238876   4.113  12.369  10.732
12327SOL     OW38877  10.071  11.156  10.365
12327SOL    HW138878   9.996  11.153  10.305
12327SOL    HW238879  10.136  11.098  10.325
12328SOL     OW38880   0.752   6.611  14.787
12328SOL    HW138881   0.780   6.702  14.798
12328SOL    HW238882   0.784   6.587  14.700
12329SOL     OW38883   9.568  10.936  12.092
12329SOL    HW138884   9.546  10.848  12.059
12329SOL    HW238885   9.497  10.992  12.060
12330SOL     OW38886   1.987   3.941   4.910
12330SOL    HW138887   1.978   4.027   4.952
12330SOL    HW238888   2.079   3.937   4.884
12331SOL     OW38889   0.257   6.543   2.039
12331SOL    HW138890   0.163   6.534   2.027
12331SOL    HW238891   0.272   6.638   2.041
12332SOL     OW38892   2.358   2.047   1.879
12332SOL    HW138893   2.399   2.109   1.818
12332SOL    HW238894   2.421   2.038   1.950
12333SOL     OW38895   0.271   5.218  13.090
12333SOL    HW138896   0.299   5.154  13.024
12333SOL    HW238897   0.331   5.204  13.163
12334SOL     OW38898  12.617   2.356   2.865
12334SOL    HW138899  12.674   2.283   2.838
12334SOL    HW238900  12.674   2.412   2.918
12335SOL     OW38901   3.187   4.369   5.933
12335SOL    HW138902   3.223   4.434   5.992
12335SOL    HW238903   3.111   4.334   5.979
12336SOL     OW38904   6.684  11.314   9.406
12336SOL    HW138905   6.678  11.321   9.311
12336SOL    HW238906   6.606  11.264   9.431
12337SOL     OW38907  10.226   6.448  11.488
12337SOL    HW138908  10.300   6.464  11.429
12337SOL    HW238909  10.189   6.365  11.457
12338SOL     OW38910   6.845  12.451   5.825
12338SOL    HW138911   6.940  12.461   5.824
12338SOL    HW238912   6.823  12.439   5.918
12339SOL     OW38913   6.330   0.075   5.697
12339SOL    HW138914   6.285   0.010   5.644
12339SOL    HW238915   6.406   0.101   5.645
12340SOL     OW38916   1.356   9.046   7.595
12340SOL    HW138917   1.357   9.115   7.529
12340SOL    HW238918   1.284   8.988   7.568
12341SOL     OW38919  10.333   0.118   7.035
12341SOL    HW138920  10.359   0.089   7.123
12341SOL    HW238921  10.281   0.045   7.001
12342SOL     OW38922   0.896  14.775   8.480
12342SOL    HW138923   0.972  14.732   8.519
12342SOL    HW238924   0.823  14.717   8.499
12343SOL     OW38925   9.943   5.051   5.667
12343SOL    HW138926  10.005   5.121   5.689
12343SOL    HW238927   9.969   4.977   5.722
12344SOL     OW38928   5.672   6.816   9.210
12344SOL    HW138929   5.763   6.791   9.228
12344SOL    HW238930   5.666   6.814   9.114
12345SOL     OW38931  13.264  14.375  11.593
12345SOL    HW138932  13.313  14.326  11.526
12345SOL    HW238933  13.332  14.409  11.652
12346SOL     OW38934   1.392   3.794  10.578
12346SOL    HW138935   1.371   3.744  10.656
12346SOL    HW238936   1.488   3.796  10.576
12347SOL     OW38937   4.931  10.800  10.663
12347SOL    HW138938   4.879  10.878  10.682
12347SOL    HW238939   4.883  10.756  10.592
12348SOL     OW38940   5.637   1.112   0.059
12348SOL    HW138941   5.621   1.173   0.131
12348SOL    HW238942   5.704   1.053   0.091
12349SOL     OW38943   9.025  10.712   8.132
12349SOL    HW138944   9.110  10.669   8.137
12349SOL    HW238945   8.983  10.695   8.216
12350SOL     OW38946  12.689   5.356   7.270
12350SOL    HW138947  12.645   5.394   7.346
12350SOL    HW238948  12.766   5.312   7.306
12351SOL     OW38949  10.041   5.707  14.675
12351SOL    HW138950  10.042   5.613  14.693
12351SOL    HW238951  10.112   5.743  14.729
12352SOL     OW38952  13.208   6.316   5.513
12352SOL    HW138953  13.288   6.269   5.537
12352SOL    HW238954  13.157   6.252   5.462
12353SOL     OW38955   4.322  14.134   6.048
12353SOL    HW138956   4.337  14.047   6.083
12353SOL    HW238957   4.229  14.151   6.065
12354SOL     OW38958  13.045   8.109  14.508
12354SOL    HW138959  13.041   8.186  14.451
12354SOL    HW238960  12.961   8.064  14.493
12355SOL     OW38961   3.236   8.906   2.145
12355SOL    HW138962   3.199   8.904   2.056
12355SOL    HW238963   3.186   8.975   2.190
12356SOL     OW38964   2.821   3.838   6.383
12356SOL    HW138965   2.784   3.754   6.410
12356SOL    HW238966   2.907   3.815   6.347
12357SOL     OW38967   8.692   0.910   1.060
12357SOL    HW138968   8.766   0.926   1.117
12357SOL    HW238969   8.687   0.815   1.051
12358SOL     OW38970  10.099   6.939   5.646
12358SOL    HW138971  10.172   7.001   5.641
12358SOL    HW238972  10.045   6.960   5.569
12359SOL     OW38973   3.619   4.916   4.234
12359SOL    HW138974   3.675   4.839   4.222
12359SOL    HW238975   3.530   4.881   4.238
12360SOL     OW38976   7.501   7.521   7.993
12360SOL    HW138977   7.406   7.528   8.007
12360SOL    HW238978   7.519   7.427   7.997
12361SOL     OW38979   5.065   5.070  14.616
12361SOL    HW138980   5.117   5.038  14.690
12361SOL    HW238981   4.977   5.038  14.634
12362SOL     OW38982   3.201   1.039   5.732
12362SOL    HW138983   3.213   1.115   5.789
12362SOL    HW238984   3.138   1.068   5.666
12363SOL     OW38985   7.080   1.014  12.888
12363SOL    HW138986   7.097   0.921  12.875
12363SOL    HW238987   7.107   1.031  12.978
12364SOL     OW38988  10.952   0.415   3.284
12364SOL    HW138989  10.908   0.366   3.354
12364SOL    HW238990  10.973   0.349   3.218
12365SOL     OW38991   6.905   4.477  13.005
12365SOL    HW138992   6.916   4.560  12.959
12365SOL    HW238993   6.982   4.425  12.982
12366SOL     OW38994  10.806   3.732   4.123
12366SOL    HW138995  10.816   3.827   4.114
12366SOL    HW238996  10.894   3.700   4.140
12367SOL     OW38997   1.685   6.254   0.549
12367SOL    HW138998   1.754   6.220   0.493
12367SOL    HW238999   1.608   6.257   0.493
12368SOL     OW39000   8.444   2.241   4.288
12368SOL    HW139001   8.415   2.228   4.379
12368SOL    HW239002   8.451   2.336   4.279
12369SOL     OW39003   5.932   1.683   5.773
12369SOL    HW139004   6.001   1.658   5.712
12369SOL    HW239005   5.932   1.779   5.771
12370SOL     OW39006   1.581   8.424   3.398
12370SOL    HW139007   1.536   8.508   3.396
12370SOL    HW239008   1.511   8.360   3.410
12371SOL     OW39009  14.657   0.451   8.649
12371SOL    HW139010  14.666   0.378   8.588
12371SOL    HW239011  14.733   0.443   8.707
12372SOL     OW39012   4.966  13.706   6.747
12372SOL    HW139013   4.976  13.661   6.663
12372SOL    HW239014   5.047  13.686   6.794
12373SOL     OW39015   1.050  11.574   1.033
12373SOL    HW139016   1.113  11.593   1.102
12373SOL    HW239017   1.065  11.482   1.012
12374SOL     OW39018   2.301  11.117   2.649
12374SOL    HW139019   2.393  11.127   2.625
12374SOL    HW239020   2.288  11.022   2.652
12375SOL     OW39021   0.902   7.642  13.041
12375SOL    HW139022   0.975   7.581  13.052
12375SOL    HW239023   0.860   7.644  13.127
12376SOL     OW39024  14.197   4.820   1.773
12376SOL    HW139025  14.240   4.827   1.688
12376SOL    HW239026  14.103   4.824   1.752
12377SOL     OW39027   4.003   2.840   4.039
12377SOL    HW139028   3.949   2.828   3.961
12377SOL    HW239029   4.072   2.775   4.031
12378SOL     OW39030  13.220  12.923   5.822
12378SOL    HW139031  13.254  13.008   5.795
12378SOL    HW239032  13.169  12.893   5.747
12379SOL     OW39033   6.117   9.969  13.665
12379SOL    HW139034   6.117  10.063  13.653
12379SOL    HW239035   6.208   9.947  13.684
12380SOL     OW39036   7.036  12.251   8.168
12380SOL    HW139037   7.127  12.269   8.143
12380SOL    HW239038   7.034  12.156   8.183
12381SOL     OW39039   5.145  14.336  13.517
12381SOL    HW139040   5.093  14.358  13.595
12381SOL    HW239041   5.094  14.373  13.444
12382SOL     OW39042   6.218   6.955  11.778
12382SOL    HW139043   6.191   6.974  11.688
12382SOL    HW239044   6.213   6.859  11.784
12383SOL     OW39045  10.922   2.408   4.740
12383SOL    HW139046  10.831   2.388   4.717
12383SOL    HW239047  10.947   2.340   4.802
12384SOL     OW39048  13.089  12.250   3.405
12384SOL    HW139049  13.037  12.170   3.411
12384SOL    HW239050  13.126  12.261   3.492
12385SOL     OW39051   3.470   6.308   4.663
12385SOL    HW139052   3.506   6.272   4.582
12385SOL    HW239053   3.380   6.333   4.640
12386SOL     OW39054   6.594   9.403   4.384
12386SOL    HW139055   6.530   9.342   4.346
12386SOL    HW239056   6.611   9.368   4.471
12387SOL     OW39057   7.964   2.544   6.417
12387SOL    HW139058   7.947   2.450   6.425
12387SOL    HW239059   7.947   2.563   6.325
12388SOL     OW39060   0.633   7.406   6.373
12388SOL    HW139061   0.694   7.366   6.311
12388SOL    HW239062   0.607   7.488   6.330
12389SOL     OW39063   8.169   2.197   1.324
12389SOL    HW139064   8.124   2.115   1.345
12389SOL    HW239065   8.216   2.179   1.242
12390SOL     OW39066   9.444  10.094   6.670
12390SOL    HW139067   9.358  10.126   6.699
12390SOL    HW239068   9.490  10.173   6.642
12391SOL     OW39069  13.238   7.924  13.348
12391SOL    HW139070  13.196   7.859  13.291
12391SOL    HW239071  13.278   7.986  13.288
12392SOL     OW39072  11.128   6.462   6.563
12392SOL    HW139073  11.165   6.547   6.540
12392SOL    HW239074  11.055   6.451   6.502
12393SOL     OW39075   7.369  13.934   2.262
12393SOL    HW139076   7.395  13.970   2.347
12393SOL    HW239077   7.364  13.840   2.276
12394SOL     OW39078   5.013   0.052   6.570
12394SOL    HW139079   4.988   0.077   6.481
12394SOL    HW239080   5.054  14.834   6.561
12395SOL     OW39081   4.903  11.060  11.663
12395SOL    HW139082   4.857  11.075  11.745
12395SOL    HW239083   4.981  11.010  11.688
12396SOL     OW39084   4.921  14.735  11.259
12396SOL    HW139085   4.831  14.712  11.280
12396SOL    HW239086   4.919  14.758  11.166
12397SOL     OW39087   8.920  12.974   9.580
12397SOL    HW139088   8.983  12.933   9.520
12397SOL    HW239089   8.837  12.969   9.534
12398SOL     OW39090  12.099  13.338  12.321
12398SOL    HW139091  12.185  13.300  12.305
12398SOL    HW239092  12.039  13.264  12.315
12399SOL     OW39093   5.164  12.172   7.628
12399SOL    HW139094   5.238  12.221   7.663
12399SOL    HW239095   5.089  12.201   7.681
12400SOL     OW39096   4.121   5.997   9.606
12400SOL    HW139097   4.042   5.945   9.590
12400SOL    HW239098   4.098   6.086   9.577
12401SOL     OW39099   2.159  12.975  11.279
12401SOL    HW139100   2.237  12.973  11.223
12401SOL    HW239101   2.187  12.934  11.361
12402SOL     OW39102   5.817   8.896  11.139
12402SOL    HW139103   5.881   8.877  11.208
12402SOL    HW239104   5.817   8.818  11.085
12403SOL     OW39105  14.844   2.038  10.199
12403SOL    HW139106  14.839   2.089  10.280
12403SOL    HW239107  14.822   2.101  10.130
12404SOL     OW39108  11.369   4.905   6.293
12404SOL    HW139109  11.424   4.977   6.324
12404SOL    HW239110  11.357   4.848   6.369
12405SOL     OW39111  13.502   5.817   0.974
12405SOL    HW139112  13.510   5.727   0.943
12405SOL    HW239113  13.474   5.867   0.897
12406SOL     OW39114   4.684   8.376   9.363
12406SOL    HW139115   4.591   8.364   9.343
12406SOL    HW239116   4.713   8.446   9.304
12407SOL     OW39117   1.890   1.786   4.550
12407SOL    HW139118   1.823   1.747   4.607
12407SOL    HW239119   1.972   1.775   4.599
12408SOL     OW39120   8.773  10.560   7.576
12408SOL    HW139121   8.735  10.483   7.535
12408SOL    HW239122   8.735  10.561   7.664
12409SOL     OW39123   8.912   9.320   2.215
12409SOL    HW139124   8.849   9.278   2.274
12409SOL    HW239125   8.859   9.358   2.146
12410SOL     OW39126   8.752   7.525   4.417
12410SOL    HW139127   8.712   7.593   4.472
12410SOL    HW239128   8.816   7.572   4.364
12411SOL     OW39129  14.373  12.335   7.706
12411SOL    HW139130  14.457  12.375   7.687
12411SOL    HW239131  14.366  12.263   7.644
12412SOL     OW39132   2.641   6.690   1.229
12412SOL    HW139133   2.688   6.612   1.199
12412SOL    HW239134   2.551   6.677   1.198
12413SOL     OW39135   6.835  12.568   6.200
12413SOL    HW139136   6.823  12.591   6.292
12413SOL    HW239137   6.795  12.640   6.151
12414SOL     OW39138  14.229   7.427   6.802
12414SOL    HW139139  14.323   7.444   6.809
12414SOL    HW239140  14.212   7.422   6.708
12415SOL     OW39141  13.450   1.524   7.440
12415SOL    HW139142  13.503   1.564   7.509
12415SOL    HW239143  13.368   1.573   7.441
12416SOL     OW39144   8.185   1.349   0.101
12416SOL    HW139145   8.181   1.270   0.047
12416SOL    HW239146   8.195   1.421   0.038
12417SOL     OW39147   0.355   9.622   5.416
12417SOL    HW139148   0.429   9.565   5.436
12417SOL    HW239149   0.390   9.710   5.426
12418SOL     OW39150   8.158   9.544   2.638
12418SOL    HW139151   8.161   9.635   2.668
12418SOL    HW239152   8.147   9.493   2.719
12419SOL     OW39153   5.665   1.633   6.671
12419SOL    HW139154   5.656   1.554   6.723
12419SOL    HW239155   5.642   1.606   6.582
12420SOL     OW39156   0.985   3.680   6.195
12420SOL    HW139157   0.950   3.692   6.284
12420SOL    HW239158   0.914   3.709   6.137
12421SOL     OW39159   9.160   7.229  10.079
12421SOL    HW139160   9.159   7.170  10.154
12421SOL    HW239161   9.074   7.272  10.081
12422SOL     OW39162   5.995  11.277   8.847
12422SOL    HW139163   5.926  11.319   8.899
12422SOL    HW239164   6.069  11.337   8.853
12423SOL     OW39165   9.322  12.753   2.743
12423SOL    HW139166   9.234  12.782   2.723
12423SOL    HW239167   9.376  12.788   2.672
12424SOL     OW39168  10.120   2.951   7.040
12424SOL    HW139169  10.140   3.038   7.005
12424SOL    HW239170  10.157   2.951   7.128
12425SOL     OW39171   1.999   3.973   3.655
12425SOL    HW139172   2.076   3.971   3.598
12425SOL    HW239173   2.031   3.944   3.740
12426SOL     OW39174  12.644  13.590   4.142
12426SOL    HW139175  12.590  13.619   4.216
12426SOL    HW239176  12.668  13.672   4.097
12427SOL     OW39177   2.725   1.585   2.277
12427SOL    HW139178   2.681   1.607   2.359
12427SOL    HW239179   2.672   1.515   2.239
12428SOL     OW39180  14.742   3.357  11.437
12428SOL    HW139181  14.719   3.397  11.353
12428SOL    HW239182  14.819   3.405  11.467
12429SOL     OW39183   5.929   8.932   8.626
12429SOL    HW139184   5.845   8.923   8.670
12429SOL    HW239185   5.938   8.851   8.576
12430SOL     OW39186   8.542  11.619   1.681
12430SOL    HW139187   8.539  11.574   1.766
12430SOL    HW239188   8.508  11.706   1.699
12431SOL     OW39189  13.529   8.317   5.223
12431SOL    HW139190  13.537   8.252   5.292
12431SOL    HW239191  13.446   8.361   5.240
12432SOL     OW39192   9.234   5.095   4.700
12432SOL    HW139193   9.188   5.020   4.662
12432SOL    HW239194   9.200   5.171   4.653
12433SOL     OW39195   7.905  12.038   8.968
12433SOL    HW139196   7.896  11.949   9.003
12433SOL    HW239197   7.880  12.095   9.040
12434SOL     OW39198   7.872   8.896  12.419
12434SOL    HW139199   7.805   8.859  12.361
12434SOL    HW239200   7.865   8.990  12.407
12435SOL     OW39201   5.596   8.715   7.688
12435SOL    HW139202   5.584   8.703   7.593
12435SOL    HW239203   5.509   8.740   7.719
12436SOL     OW39204   3.273   3.953   0.262
12436SOL    HW139205   3.323   3.955   0.344
12436SOL    HW239206   3.187   3.918   0.287
12437SOL     OW39207   8.377  12.014   7.606
12437SOL    HW139208   8.311  12.057   7.661
12437SOL    HW239209   8.341  12.016   7.518
12438SOL     OW39210   1.562  12.326   0.397
12438SOL    HW139211   1.561  12.420   0.414
12438SOL    HW239212   1.649  12.297   0.426
12439SOL     OW39213   6.437   7.073  11.434
12439SOL    HW139214   6.501   7.100  11.368
12439SOL    HW239215   6.451   7.134  11.507
12440SOL     OW39216   4.363  12.294  12.815
12440SOL    HW139217   4.359  12.223  12.879
12440SOL    HW239218   4.296  12.356  12.844
12441SOL     OW39219  11.269   8.140   9.175
12441SOL    HW139220  11.183   8.159   9.137
12441SOL    HW239221  11.253   8.064   9.231
12442SOL     OW39222  11.830   0.206  14.483
12442SOL    HW139223  11.919   0.212  14.520
12442SOL    HW239224  11.843   0.205  14.389
12443SOL     OW39225  12.325   8.360   7.099
12443SOL    HW139226  12.255   8.425   7.095
12443SOL    HW239227  12.280   8.277   7.113
12444SOL     OW39228  11.025   4.083   5.828
12444SOL    HW139229  11.016   4.170   5.865
12444SOL    HW239230  10.935   4.051   5.819
12445SOL     OW39231   8.346   7.167   2.226
12445SOL    HW139232   8.363   7.210   2.310
12445SOL    HW239233   8.410   7.096   2.221
12446SOL     OW39234  13.180  14.115  13.534
12446SOL    HW139235  13.106  14.174  13.551
12446SOL    HW239236  13.251  14.173  13.507
12447SOL     OW39237   8.659   5.704   9.827
12447SOL    HW139238   8.726   5.766   9.857
12447SOL    HW239239   8.576   5.740   9.859
12448SOL     OW39240  14.589   7.551  13.901
12448SOL    HW139241  14.628   7.638  13.909
12448SOL    HW239242  14.578   7.522  13.992
12449SOL     OW39243  12.902   6.759   8.495
12449SOL    HW139244  12.848   6.698   8.545
12449SOL    HW239245  12.905   6.722   8.407
12450SOL     OW39246   2.813   7.171   4.100
12450SOL    HW139247   2.829   7.093   4.047
12450SOL    HW239248   2.873   7.163   4.174
12451SOL     OW39249  13.554   8.244  10.308
12451SOL    HW139250  13.519   8.155  10.315
12451SOL    HW239251  13.523   8.288  10.387
12452SOL     OW39252   6.183   7.030   4.609
12452SOL    HW139253   6.265   7.034   4.560
12452SOL    HW239254   6.210   7.040   4.701
12453SOL     OW39255  10.467   3.319   3.130
12453SOL    HW139256  10.491   3.241   3.179
12453SOL    HW239257  10.423   3.375   3.194
12454SOL     OW39258   4.020  11.394  12.595
12454SOL    HW139259   3.943  11.427  12.548
12454SOL    HW239260   4.064  11.474  12.626
12455SOL     OW39261   0.900   8.681   6.423
12455SOL    HW139262   0.878   8.658   6.332
12455SOL    HW239263   0.970   8.621   6.447
12456SOL     OW39264   0.265   9.793   0.034
12456SOL    HW139265   0.301   9.876   0.065
12456SOL    HW239266   0.273   9.734   0.109
12457SOL     OW39267   1.141   5.689   5.764
12457SOL    HW139268   1.222   5.724   5.726
12457SOL    HW239269   1.081   5.683   5.690
12458SOL     OW39270  13.531   5.249   8.243
12458SOL    HW139271  13.583   5.215   8.316
12458SOL    HW239272  13.501   5.170   8.197
12459SOL     OW39273  13.357   4.940  13.835
12459SOL    HW139274  13.422   4.889  13.884
12459SOL    HW239275  13.277   4.930  13.886
12460SOL     OW39276  13.821  13.213   7.053
12460SOL    HW139277  13.843  13.150   7.121
12460SOL    HW239278  13.817  13.162   6.973
12461SOL     OW39279   4.420   6.980  10.067
12461SOL    HW139280   4.388   7.061  10.029
12461SOL    HW239281   4.498   6.958  10.016
12462SOL     OW39282   3.018   9.096   9.484
12462SOL    HW139283   2.927   9.083   9.507
12462SOL    HW239284   3.066   9.029   9.534
12463SOL     OW39285  14.448   0.878  13.833
12463SOL    HW139286  14.366   0.836  13.808
12463SOL    HW239287  14.436   0.901  13.925
12464SOL     OW39288   9.574   1.670   5.526
12464SOL    HW139289   9.531   1.751   5.552
12464SOL    HW239290   9.530   1.644   5.445
12465SOL     OW39291   9.310   2.607  10.689
12465SOL    HW139292   9.323   2.691  10.645
12465SOL    HW239293   9.331   2.542  10.623
12466SOL     OW39294   3.475   9.108   3.723
12466SOL    HW139295   3.495   9.167   3.650
12466SOL    HW239296   3.561   9.079   3.754
12467SOL     OW39297  11.230  11.735   6.709
12467SOL    HW139298  11.229  11.831   6.710
12467SOL    HW239299  11.138  11.710   6.700
12468SOL     OW39300   1.061   0.485   7.502
12468SOL    HW139301   1.083   0.421   7.434
12468SOL    HW239302   0.973   0.460   7.531
12469SOL     OW39303   6.854   8.805   8.920
12469SOL    HW139304   6.930   8.859   8.897
12469SOL    HW239305   6.868   8.722   8.875
12470SOL     OW39306  11.539   6.680  10.522
12470SOL    HW139307  11.560   6.773  10.508
12470SOL    HW239308  11.489   6.656  10.444
12471SOL     OW39309   2.902   0.941   8.037
12471SOL    HW139310   2.910   0.962   8.130
12471SOL    HW239311   2.813   0.905   8.029
12472SOL     OW39312  14.587   7.609   3.516
12472SOL    HW139313  14.617   7.611   3.606
12472SOL    HW239314  14.663   7.580   3.465
12473SOL     OW39315   4.711   3.322   9.887
12473SOL    HW139316   4.735   3.235   9.920
12473SOL    HW239317   4.615   3.321   9.885
12474SOL     OW39318  14.543   4.399   3.020
12474SOL    HW139319  14.604   4.328   3.001
12474SOL    HW239320  14.526   4.439   2.935
12475SOL     OW39321   0.957   4.840   7.396
12475SOL    HW139322   0.866   4.824   7.421
12475SOL    HW239323   0.951   4.885   7.312
12476SOL     OW39324   4.228   3.180   3.994
12476SOL    HW139325   4.175   3.236   3.937
12476SOL    HW239326   4.165   3.136   4.050
12477SOL     OW39327  12.638  13.376   3.061
12477SOL    HW139328  12.721  13.416   3.033
12477SOL    HW239329  12.656  13.282   3.063
12478SOL     OW39330   9.572   7.767  14.154
12478SOL    HW139331   9.585   7.747  14.247
12478SOL    HW239332   9.493   7.821  14.153
12479SOL     OW39333   7.715   6.803   8.091
12479SOL    HW139334   7.762   6.732   8.047
12479SOL    HW239335   7.772   6.880   8.081
12480SOL     OW39336   3.172   9.322  10.415
12480SOL    HW139337   3.086   9.308  10.375
12480SOL    HW239338   3.220   9.374  10.351
12481SOL     OW39339   6.656  13.361   4.050
12481SOL    HW139340   6.646  13.331   3.959
12481SOL    HW239341   6.737  13.320   4.080
12482SOL     OW39342   4.893   1.286  10.029
12482SOL    HW139343   4.928   1.314  10.113
12482SOL    HW239344   4.959   1.226   9.994
12483SOL     OW39345  14.313   4.986   3.021
12483SOL    HW139346  14.231   5.005   3.067
12483SOL    HW239347  14.377   4.971   3.090
12484SOL     OW39348   7.983   3.205   4.070
12484SOL    HW139349   8.054   3.189   4.132
12484SOL    HW239350   7.926   3.267   4.114
12485SOL     OW39351  13.498   6.897   5.430
12485SOL    HW139352  13.563   6.959   5.397
12485SOL    HW239353  13.415   6.946   5.429
12486SOL     OW39354   2.180   1.598  12.503
12486SOL    HW139355   2.239   1.607  12.428
12486SOL    HW239356   2.237   1.572  12.575
12487SOL     OW39357   5.840  11.714   4.984
12487SOL    HW139358   5.778  11.652   4.943
12487SOL    HW239359   5.797  11.799   4.974
12488SOL     OW39360   7.230   5.248   0.860
12488SOL    HW139361   7.286   5.301   0.918
12488SOL    HW239362   7.229   5.296   0.777
12489SOL     OW39363   0.726  14.056   5.228
12489SOL    HW139364   0.725  14.063   5.324
12489SOL    HW239365   0.653  13.997   5.208
12490SOL     OW39366   5.516  11.103   2.764
12490SOL    HW139367   5.465  11.022   2.755
12490SOL    HW239368   5.567  11.091   2.844
12491SOL     OW39369   6.130  13.617   8.648
12491SOL    HW139370   6.113  13.703   8.611
12491SOL    HW239371   6.072  13.612   8.724
12492SOL     OW39372   4.597  12.945   6.386
12492SOL    HW139373   4.504  12.942   6.409
12492SOL    HW239374   4.637  12.875   6.437
12493SOL     OW39375   3.130   0.014  11.948
12493SOL    HW139376   3.141   0.064  11.867
12493SOL    HW239377   3.213   0.026  11.994
12494SOL     OW39378   5.059   2.977   2.836
12494SOL    HW139379   4.979   2.941   2.799
12494SOL    HW239380   5.046   3.072   2.834
12495SOL     OW39381   0.774   8.603   5.284
12495SOL    HW139382   0.776   8.696   5.260
12495SOL    HW239383   0.706   8.598   5.351
12496SOL     OW39384   7.803   8.234  13.207
12496SOL    HW139385   7.789   8.205  13.297
12496SOL    HW239386   7.859   8.312  13.215
12497SOL     OW39387  11.415   7.566  11.132
12497SOL    HW139388  11.424   7.616  11.051
12497SOL    HW239389  11.322   7.575  11.155
12498SOL     OW39390   8.486  10.328   5.154
12498SOL    HW139391   8.424  10.255   5.161
12498SOL    HW239392   8.455  10.392   5.218
12499SOL     OW39393   3.394   1.131   7.313
12499SOL    HW139394   3.418   1.086   7.232
12499SOL    HW239395   3.321   1.188   7.288
12500SOL     OW39396   3.693  12.453   9.857
12500SOL    HW139397   3.766  12.501   9.896
12500SOL    HW239398   3.702  12.365   9.893
12501SOL     OW39399   5.322  10.998   5.213
12501SOL    HW139400   5.293  10.908   5.230
12501SOL    HW239401   5.289  11.018   5.126
12502SOL     OW39402  13.035   3.588  11.305
12502SOL    HW139403  13.097   3.631  11.364
12502SOL    HW239404  12.984   3.530  11.361
12503SOL     OW39405  13.473   1.288   4.283
12503SOL    HW139406  13.496   1.378   4.259
12503SOL    HW239407  13.525   1.270   4.361
12504SOL     OW39408  12.829   6.307   4.025
12504SOL    HW139409  12.914   6.306   4.071
12504SOL    HW239410  12.793   6.220   4.040
12505SOL     OW39411   0.012  13.315  13.222
12505SOL    HW139412   0.043  13.279  13.306
12505SOL    HW239413   0.044  13.405  13.222
12506SOL     OW39414   0.414   4.131   0.762
12506SOL    HW139415   0.466   4.052   0.776
12506SOL    HW239416   0.384   4.124   0.671
12507SOL     OW39417   1.776   7.703   7.893
12507SOL    HW139418   1.787   7.612   7.864
12507SOL    HW239419   1.689   7.706   7.931
12508SOL     OW39420   4.780   9.646  10.046
12508SOL    HW139421   4.736   9.646  10.130
12508SOL    HW239422   4.872   9.630  10.066
12509SOL     OW39423   2.748   9.374  12.605
12509SOL    HW139424   2.720   9.357  12.515
12509SOL    HW239425   2.669   9.363  12.658
12510SOL     OW39426  12.000  10.803   9.344
12510SOL    HW139427  12.025  10.812   9.436
12510SOL    HW239428  12.066  10.855   9.297
12511SOL     OW39429   0.580   2.049   6.628
12511SOL    HW139430   0.662   2.038   6.581
12511SOL    HW239431   0.515   2.002   6.575
12512SOL     OW39432  12.932   5.404   8.034
12512SOL    HW139433  12.974   5.332   7.987
12512SOL    HW239434  13.005   5.451   8.074
12513SOL     OW39435   9.823  13.425   0.049
12513SOL    HW139436   9.811  13.427   0.144
12513SOL    HW239437   9.846  13.515   0.025
12514SOL     OW39438   2.927  12.815   7.498
12514SOL    HW139439   2.887  12.808   7.412
12514SOL    HW239440   2.900  12.902   7.530
12515SOL     OW39441  11.000  14.176  12.309
12515SOL    HW139442  11.048  14.095  12.326
12515SOL    HW239443  10.933  14.152  12.245
12516SOL     OW39444   2.376   8.259   6.664
12516SOL    HW139445   2.354   8.284   6.574
12516SOL    HW239446   2.448   8.197   6.655
12517SOL     OW39447   5.494   6.892  10.400
12517SOL    HW139448   5.421   6.894  10.338
12517SOL    HW239449   5.512   6.799  10.414
12518SOL     OW39450   8.382  13.820   5.099
12518SOL    HW139451   8.381  13.898   5.044
12518SOL    HW239452   8.405  13.851   5.186
12519SOL     OW39453   3.409  13.481   0.757
12519SOL    HW139454   3.440  13.549   0.816
12519SOL    HW239455   3.359  13.421   0.812
12520SOL     OW39456  10.465   2.585  11.848
12520SOL    HW139457  10.533   2.581  11.915
12520SOL    HW239458  10.458   2.496  11.814
12521SOL     OW39459   6.116   4.410   5.382
12521SOL    HW139460   6.157   4.480   5.433
12521SOL    HW239461   6.047   4.376   5.439
12522SOL     OW39462  12.936   4.960  11.863
12522SOL    HW139463  12.895   5.045  11.877
12522SOL    HW239464  12.925   4.943  11.769
12523SOL     OW39465  11.333  12.365  10.486
12523SOL    HW139466  11.302  12.321  10.407
12523SOL    HW239467  11.428  12.371  10.473
12524SOL     OW39468  14.274   3.224   8.580
12524SOL    HW139469  14.181   3.237   8.565
12524SOL    HW239470  14.297   3.291   8.645
12525SOL     OW39471   1.601  14.336   8.746
12525SOL    HW139472   1.598  14.431   8.748
12525SOL    HW239473   1.644  14.315   8.663
12526SOL     OW39474   1.165  13.732   5.909
12526SOL    HW139475   1.223  13.669   5.951
12526SOL    HW239476   1.085  13.683   5.890
12527SOL     OW39477  12.117  14.649  10.514
12527SOL    HW139478  12.071  14.718  10.466
12527SOL    HW239479  12.169  14.604  10.448
12528SOL     OW39480  13.539   2.548  14.453
12528SOL    HW139481  13.458   2.517  14.494
12528SOL    HW239482  13.609   2.513  14.508
12529SOL     OW39483   4.465   1.723  10.405
12529SOL    HW139484   4.533   1.770  10.358
12529SOL    HW239485   4.512   1.662  10.462
12530SOL     OW39486   1.576  10.499  12.475
12530SOL    HW139487   1.516  10.571  12.495
12530SOL    HW239488   1.587  10.503  12.380
12531SOL     OW39489   9.506   6.946  10.284
12531SOL    HW139490   9.503   7.001  10.206
12531SOL    HW239491   9.523   6.858  10.251
12532SOL     OW39492  12.108   7.175   8.505
12532SOL    HW139493  12.032   7.231   8.490
12532SOL    HW239494  12.124   7.134   8.420
12533SOL     OW39495   7.583   2.268  10.507
12533SOL    HW139496   7.521   2.212  10.552
12533SOL    HW239497   7.648   2.207  10.471
12534SOL     OW39498  10.201  11.851   3.604
12534SOL    HW139499  10.192  11.762   3.637
12534SOL    HW239500  10.288  11.853   3.564
12535SOL     OW39501  10.160  13.001   8.974
12535SOL    HW139502  10.203  13.080   9.005
12535SOL    HW239503  10.066  13.018   8.985
12536SOL     OW39504   0.307   1.055  10.688
12536SOL    HW139505   0.297   0.960  10.679
12536SOL    HW239506   0.295   1.072  10.781
12537SOL     OW39507   9.867   5.197  13.791
12537SOL    HW139508   9.785   5.238  13.763
12537SOL    HW239509   9.862   5.107  13.760
12538SOL     OW39510   7.283  13.421  13.408
12538SOL    HW139511   7.317  13.405  13.321
12538SOL    HW239512   7.229  13.500  13.399
12539SOL     OW39513   6.214   3.776  10.878
12539SOL    HW139514   6.157   3.758  10.802
12539SOL    HW239515   6.155   3.814  10.943
12540SOL     OW39516   2.208  13.760  10.964
12540SOL    HW139517   2.198  13.812  11.044
12540SOL    HW239518   2.302  13.756  10.949
12541SOL     OW39519   1.527  13.479   0.086
12541SOL    HW139520   1.591  13.550   0.091
12541SOL    HW239521   1.571  13.411   0.035
12542SOL     OW39522  11.460  14.613  10.044
12542SOL    HW139523  11.386  14.556  10.065
12542SOL    HW239524  11.428  14.669   9.973
12543SOL     OW39525   7.504  13.229   3.131
12543SOL    HW139526   7.461  13.282   3.198
12543SOL    HW239527   7.551  13.292   3.077
12544SOL     OW39528   9.173  12.480  10.087
12544SOL    HW139529   9.216  12.495  10.002
12544SOL    HW239530   9.087  12.445  10.065
12545SOL     OW39531   4.438   2.276  13.574
12545SOL    HW139532   4.505   2.266  13.642
12545SOL    HW239533   4.390   2.355  13.600
12546SOL     OW39534  11.818  14.054   7.611
12546SOL    HW139535  11.873  14.024   7.683
12546SOL    HW239536  11.810  13.978   7.554
12547SOL     OW39537  10.416  13.544   2.982
12547SOL    HW139538  10.487  13.510   3.037
12547SOL    HW239539  10.344  13.560   3.043
12548SOL     OW39540  11.169  12.965   3.639
12548SOL    HW139541  11.186  12.885   3.688
12548SOL    HW239542  11.136  12.933   3.554
12549SOL     OW39543  10.468   0.720   3.758
12549SOL    HW139544  10.502   0.664   3.688
12549SOL    HW239545  10.428   0.660   3.820
12550SOL     OW39546   2.387   8.864  13.942
12550SOL    HW139547   2.418   8.947  13.979
12550SOL    HW239548   2.299   8.854  13.978
12551SOL     OW39549  12.253   4.902  11.517
12551SOL    HW139550  12.218   4.883  11.604
12551SOL    HW239551  12.177   4.929  11.466
12552SOL     OW39552   1.693   4.475   4.905
12552SOL    HW139553   1.631   4.507   4.971
12552SOL    HW239554   1.670   4.383   4.893
12553SOL     OW39555   0.008   7.963  11.293
12553SOL    HW139556   0.010   7.874  11.328
12553SOL    HW239557  14.809   7.961  11.224
12554SOL     OW39558   1.673  12.536   3.925
12554SOL    HW139559   1.687  12.543   4.020
12554SOL    HW239560   1.747  12.486   3.893
12555SOL     OW39561  14.660   4.620   8.572
12555SOL    HW139562  14.746   4.612   8.530
12555SOL    HW239563  14.610   4.676   8.513
12556SOL     OW39564   1.684  11.278  12.204
12556SOL    HW139565   1.717  11.310  12.288
12556SOL    HW239566   1.744  11.316  12.140
12557SOL     OW39567   7.379   0.703  14.226
12557SOL    HW139568   7.412   0.740  14.307
12557SOL    HW239569   7.428   0.622  14.214
12558SOL     OW39570   2.373   1.566  12.319
12558SOL    HW139571   2.464   1.596  12.321
12558SOL    HW239572   2.350   1.561  12.227
12559SOL     OW39573   7.136   9.588   8.765
12559SOL    HW139574   7.225   9.577   8.731
12559SOL    HW239575   7.080   9.548   8.699
12560SOL     OW39576   1.590  12.119   5.516
12560SOL    HW139577   1.591  12.122   5.421
12560SOL    HW239578   1.498  12.110   5.539
12561SOL     OW39579   3.202   7.031  11.519
12561SOL    HW139580   3.120   6.984  11.534
12561SOL    HW239581   3.235   7.050  11.607
12562SOL     OW39582   2.324   8.842   1.223
12562SOL    HW139583   2.337   8.923   1.174
12562SOL    HW239584   2.360   8.860   1.310
12563SOL     OW39585  10.817   0.227   7.023
12563SOL    HW139586  10.759   0.153   7.042
12563SOL    HW239587  10.847   0.257   7.109
12564SOL     OW39588   7.981   0.307   5.861
12564SOL    HW139589   7.910   0.282   5.921
12564SOL    HW239590   7.960   0.261   5.779
12565SOL     OW39591  10.387   7.571   7.043
12565SOL    HW139592  10.429   7.507   7.100
12565SOL    HW239593  10.293   7.563   7.061
12566SOL     OW39594  11.453  11.469   1.936
12566SOL    HW139595  11.487  11.423   2.012
12566SOL    HW239596  11.396  11.537   1.973
12567SOL     OW39597   6.175  10.359   0.773
12567SOL    HW139598   6.089  10.372   0.733
12567SOL    HW239599   6.232  10.332   0.701
12568SOL     OW39600   4.187   3.938   8.908
12568SOL    HW139601   4.278   3.969   8.914
12568SOL    HW239602   4.194   3.842   8.917
12569SOL     OW39603  13.471  10.521   0.207
12569SOL    HW139604  13.548  10.577   0.208
12569SOL    HW239605  13.459  10.498   0.115
12570SOL     OW39606  11.286  11.817   8.636
12570SOL    HW139607  11.253  11.780   8.718
12570SOL    HW239608  11.276  11.912   8.647
12571SOL     OW39609   1.441  10.209   7.561
12571SOL    HW139610   1.484  10.214   7.646
12571SOL    HW239611   1.350  10.189   7.581
12572SOL     OW39612   8.220   0.125  10.848
12572SOL    HW139613   8.164   0.179  10.905
12572SOL    HW239614   8.308   0.159  10.861
12573SOL     OW39615   7.111   0.182   9.946
12573SOL    HW139616   7.169   0.249   9.909
12573SOL    HW239617   7.029   0.227   9.962
12574SOL     OW39618  11.085   8.992  14.822
12574SOL    HW139619  11.075   8.897  14.816
12574SOL    HW239620  10.999   9.027  14.800
12575SOL     OW39621   3.623   7.759   2.854
12575SOL    HW139622   3.668   7.690   2.805
12575SOL    HW239623   3.691   7.793   2.913
12576SOL     OW39624   8.750  10.004  12.758
12576SOL    HW139625   8.735  10.095  12.783
12576SOL    HW239626   8.672   9.958  12.789
12577SOL     OW39627   9.115   2.482   3.212
12577SOL    HW139628   9.152   2.553   3.264
12577SOL    HW239629   9.170   2.406   3.231
12578SOL     OW39630   1.639   2.378   5.156
12578SOL    HW139631   1.577   2.422   5.098
12578SOL    HW239632   1.725   2.406   5.125
12579SOL     OW39633  14.768  11.618  14.136
12579SOL    HW139634  14.718  11.653  14.210
12579SOL    HW239635  14.778  11.692  14.077
12580SOL     OW39636   1.706  10.233   9.906
12580SOL    HW139637   1.739  10.172   9.840
12580SOL    HW239638   1.632  10.188   9.946
12581SOL     OW39639  12.313   8.037  10.008
12581SOL    HW139640  12.318   8.033  10.104
12581SOL    HW239641  12.374   8.107   9.984
12582SOL     OW39642   9.300  11.749   7.413
12582SOL    HW139643   9.312  11.726   7.321
12582SOL    HW239644   9.212  11.787   7.417
12583SOL     OW39645   4.009  10.786   8.695
12583SOL    HW139646   4.040  10.708   8.742
12583SOL    HW239647   4.028  10.859   8.754
12584SOL     OW39648   0.318   1.360  11.227
12584SOL    HW139649   0.251   1.331  11.288
12584SOL    HW239650   0.400   1.356  11.278
12585SOL     OW39651   6.913  11.807   9.465
12585SOL    HW139652   6.909  11.717   9.498
12585SOL    HW239653   6.842  11.811   9.400
12586SOL     OW39654   0.231   7.296  12.906
12586SOL    HW139655   0.161   7.345  12.863
12586SOL    HW239656   0.310   7.319  12.857
12587SOL     OW39657  13.082   9.577   8.009
12587SOL    HW139658  13.071   9.550   8.100
12587SOL    HW239659  13.036   9.661   8.004
12588SOL     OW39660  11.894   2.235  14.682
12588SOL    HW139661  11.891   2.186  14.600
12588SOL    HW239662  11.809   2.219  14.723
12589SOL     OW39663   8.267   7.743  13.816
12589SOL    HW139664   8.283   7.689  13.894
12589SOL    HW239665   8.180   7.782  13.832
12590SOL     OW39666  12.969   0.928  12.921
12590SOL    HW139667  12.990   0.894  12.834
12590SOL    HW239668  12.934   1.015  12.905
12591SOL     OW39669   7.318   6.710   7.201
12591SOL    HW139670   7.399   6.731   7.249
12591SOL    HW239671   7.310   6.615   7.210
12592SOL     OW39672  12.996   4.464  11.541
12592SOL    HW139673  12.908   4.487  11.571
12592SOL    HW239674  13.006   4.372  11.565
12593SOL     OW39675   0.539   1.172  12.935
12593SOL    HW139676   0.583   1.094  12.901
12593SOL    HW239677   0.477   1.197  12.867
12594SOL     OW39678   6.689   7.091   9.799
12594SOL    HW139679   6.732   7.173   9.825
12594SOL    HW239680   6.595   7.108   9.812
12595SOL     OW39681   3.345   2.268   0.376
12595SOL    HW139682   3.323   2.225   0.293
12595SOL    HW239683   3.288   2.344   0.380
12596SOL     OW39684  12.739   1.753   8.180
12596SOL    HW139685  12.805   1.816   8.209
12596SOL    HW239686  12.783   1.668   8.184
12597SOL     OW39687  10.834   2.807   5.331
12597SOL    HW139688  10.892   2.812   5.255
12597SOL    HW239689  10.790   2.892   5.333
12598SOL     OW39690   8.048  11.375   9.940
12598SOL    HW139691   8.068  11.469   9.945
12598SOL    HW239692   7.968  11.365   9.991
12599SOL     OW39693   1.963   4.614   0.060
12599SOL    HW139694   1.885   4.588   0.109
12599SOL    HW239695   1.945   4.703   0.030
12600SOL     OW39696   3.228   4.776  12.224
12600SOL    HW139697   3.184   4.861  12.215
12600SOL    HW239698   3.310   4.797  12.269
12601SOL     OW39699  10.034   6.572   2.749
12601SOL    HW139700   9.943   6.597   2.764
12601SOL    HW239701  10.085   6.646   2.783
12602SOL     OW39702   8.609   1.418   0.016
12602SOL    HW139703   8.641   1.380   0.098
12602SOL    HW239704   8.549   1.352  14.849
12603SOL     OW39705   5.086   1.093  11.423
12603SOL    HW139706   5.123   1.111  11.337
12603SOL    HW239707   5.161   1.088  11.482
12604SOL     OW39708   4.067  13.265   7.926
12604SOL    HW139709   3.989  13.211   7.910
12604SOL    HW239710   4.138  13.201   7.937
12605SOL     OW39711   4.200   4.026  11.440
12605SOL    HW139712   4.276   3.972  11.418
12605SOL    HW239713   4.126   3.965  11.439
12606SOL     OW39714  11.038   4.414   0.723
12606SOL    HW139715  10.994   4.393   0.640
12606SOL    HW239716  11.116   4.357   0.723
12607SOL     OW39717   5.198  10.857   2.900
12607SOL    HW139718   5.236  10.916   2.964
12607SOL    HW239719   5.260  10.857   2.827
12608SOL     OW39720   8.851   5.372   3.223
12608SOL    HW139721   8.800   5.310   3.171
12608SOL    HW239722   8.905   5.317   3.279
12609SOL     OW39723   7.882   0.990   7.362
12609SOL    HW139724   7.810   0.950   7.314
12609SOL    HW239725   7.916   1.057   7.303
12610SOL     OW39726   4.808   0.349   9.569
12610SOL    HW139727   4.773   0.321   9.484
12610SOL    HW239728   4.748   0.311   9.633
12611SOL     OW39729  11.053   8.208  11.590
12611SOL    HW139730  11.087   8.291  11.623
12611SOL    HW239731  11.007   8.231  11.509
12612SOL     OW39732   3.656  12.787   7.486
12612SOL    HW139733   3.661  12.718   7.421
12612SOL    HW239734   3.562  12.803   7.497
12613SOL     OW39735  14.018   9.629   4.982
12613SOL    HW139736  14.084   9.569   4.948
12613SOL    HW239737  13.972   9.660   4.904
12614SOL     OW39738   2.081  11.376   1.134
12614SOL    HW139739   2.158  11.333   1.172
12614SOL    HW239740   2.106  11.468   1.125
12615SOL     OW39741  13.103  13.964  11.337
12615SOL    HW139742  13.127  13.885  11.288
12615SOL    HW239743  13.010  13.954  11.356
12616SOL     OW39744   1.202   0.461   4.827
12616SOL    HW139745   1.192   0.550   4.860
12616SOL    HW239746   1.236   0.412   4.901
12617SOL     OW39747   5.836   7.354   2.437
12617SOL    HW139748   5.825   7.343   2.342
12617SOL    HW239749   5.889   7.279   2.464
12618SOL     OW39750  13.892   8.026  14.832
12618SOL    HW139751  13.878   7.970   0.040
12618SOL    HW239752  13.987   8.038  14.828
12619SOL     OW39753   6.846   5.157   9.864
12619SOL    HW139754   6.910   5.228   9.872
12619SOL    HW239755   6.770   5.197   9.822
12620SOL     OW39756   3.882  11.952  13.001
12620SOL    HW139757   3.906  12.038  13.035
12620SOL    HW239758   3.956  11.896  13.021
12621SOL     OW39759   0.024   1.205   4.560
12621SOL    HW139760   0.016   1.293   4.523
12621SOL    HW239761  14.857   1.212   4.649
12622SOL     OW39762   2.462   6.971  11.291
12622SOL    HW139763   2.437   7.063  11.287
12622SOL    HW239764   2.394   6.925  11.242
12623SOL     OW39765  12.394  11.981   9.633
12623SOL    HW139766  12.372  11.971   9.541
12623SOL    HW239767  12.487  12.003   9.634
12624SOL     OW39768   1.261  13.644   6.512
12624SOL    HW139769   1.206  13.583   6.462
12624SOL    HW239770   1.279  13.716   6.451
12625SOL     OW39771  10.190  10.169  13.271
12625SOL    HW139772  10.195  10.115  13.350
12625SOL    HW239773  10.131  10.121  13.213
12626SOL     OW39774   9.967  13.683   8.821
12626SOL    HW139775   9.915  13.602   8.820
12626SOL    HW239776  10.048  13.659   8.776
12627SOL     OW39777  12.789   8.221   5.316
12627SOL    HW139778  12.877   8.243   5.345
12627SOL    HW239779  12.793   8.223   5.221
12628SOL     OW39780   5.235   7.167   9.824
12628SOL    HW139781   5.143   7.170   9.852
12628SOL    HW239782   5.275   7.102   9.881
12629SOL     OW39783   4.940   0.082   9.410
12629SOL    HW139784   5.015   0.127   9.447
12629SOL    HW239785   4.929   0.122   9.323
12630SOL     OW39786   6.257   4.432  13.241
12630SOL    HW139787   6.318   4.360  13.257
12630SOL    HW239788   6.178   4.408  13.289
12631SOL     OW39789   0.672  12.064   3.980
12631SOL    HW139790   0.710  11.982   4.011
12631SOL    HW239791   0.654  12.049   3.887
12632SOL     OW39792   6.700   1.498   3.853
12632SOL    HW139793   6.706   1.424   3.913
12632SOL    HW239794   6.745   1.569   3.899
12633SOL     OW39795  12.102  12.576  14.053
12633SOL    HW139796  12.108  12.525  13.972
12633SOL    HW239797  12.116  12.667  14.025
12634SOL     OW39798   9.891   8.113   6.245
12634SOL    HW139799   9.829   8.084   6.311
12634SOL    HW239800   9.976   8.083   6.277
12635SOL     OW39801  11.774  11.217  10.834
12635SOL    HW139802  11.710  11.209  10.905
12635SOL    HW239803  11.824  11.135  10.838
12636SOL     OW39804   4.625  10.498  12.647
12636SOL    HW139805   4.570  10.442  12.592
12636SOL    HW239806   4.657  10.439  12.716
12637SOL     OW39807   9.954   1.510  14.793
12637SOL    HW139808   9.994   1.534  14.709
12637SOL    HW239809   9.985   1.576  14.854
12638SOL     OW39810   1.720   8.185  11.292
12638SOL    HW139811   1.807   8.208  11.325
12638SOL    HW239812   1.677   8.139  11.364
12639SOL     OW39813   1.576   5.188   4.890
12639SOL    HW139814   1.572   5.277   4.856
12639SOL    HW239815   1.666   5.161   4.875
12640SOL     OW39816  13.636  13.596  11.632
12640SOL    HW139817  13.626  13.575  11.725
12640SOL    HW239818  13.547  13.603  11.599
12641SOL     OW39819  14.042   5.048  13.148
12641SOL    HW139820  14.105   5.110  13.112
12641SOL    HW239821  14.018   4.993  13.073
12642SOL     OW39822   0.930  12.654   1.210
12642SOL    HW139823   1.014  12.695   1.191
12642SOL    HW239824   0.900  12.696   1.291
12643SOL     OW39825   4.478  12.190   6.882
12643SOL    HW139826   4.495  12.192   6.977
12643SOL    HW239827   4.520  12.109   6.852
12644SOL     OW39828   2.600   1.516   5.058
12644SOL    HW139829   2.506   1.517   5.079
12644SOL    HW239830   2.641   1.566   5.129
12645SOL     OW39831   3.736   5.965   5.716
12645SOL    HW139832   3.653   5.993   5.679
12645SOL    HW239833   3.800   6.028   5.683
12646SOL     OW39834   9.439   6.288  13.251
12646SOL    HW139835   9.355   6.322  13.283
12646SOL    HW239836   9.490   6.272  13.330
12647SOL     OW39837   6.179   7.080   4.896
12647SOL    HW139838   6.248   7.104   4.957
12647SOL    HW239839   6.098   7.108   4.938
12648SOL     OW39840  11.951  14.525   8.284
12648SOL    HW139841  12.015  14.492   8.221
12648SOL    HW239842  11.981  14.614   8.304
12649SOL     OW39843   5.577  14.864  12.764
12649SOL    HW139844   5.540  14.863  12.852
12649SOL    HW239845   5.669   0.020  12.776
12650SOL     OW39846   6.311   1.524  13.432
12650SOL    HW139847   6.252   1.466  13.480
12650SOL    HW239848   6.325   1.598  13.492
12651SOL     OW39849  13.611   8.824  13.953
12651SOL    HW139850  13.698   8.788  13.940
12651SOL    HW239851  13.621   8.886  14.026
12652SOL     OW39852   2.001  11.260  14.537
12652SOL    HW139853   2.055  11.181  14.532
12652SOL    HW239854   2.053  11.328  14.494
12653SOL     OW39855   8.974  10.657   4.348
12653SOL    HW139856   9.051  10.702   4.313
12653SOL    HW239857   8.904  10.722   4.344
12654SOL     OW39858  10.908   6.959   7.495
12654SOL    HW139859  10.885   7.023   7.428
12654SOL    HW239860  10.973   7.004   7.549
12655SOL     OW39861   3.055  11.020   5.822
12655SOL    HW139862   3.077  11.072   5.744
12655SOL    HW239863   2.969  11.051   5.849
12656SOL     OW39864   2.500   8.531   5.213
12656SOL    HW139865   2.594   8.550   5.220
12656SOL    HW239866   2.496   8.443   5.176
12657SOL     OW39867   9.284   6.527   5.673
12657SOL    HW139868   9.285   6.622   5.685
12657SOL    HW239869   9.322   6.493   5.754
12658SOL     OW39870  11.745   1.208   6.140
12658SOL    HW139871  11.671   1.255   6.179
12658SOL    HW239872  11.707   1.128   6.105
12659SOL     OW39873   4.322  11.548   9.865
12659SOL    HW139874   4.361  11.468   9.900
12659SOL    HW239875   4.244  11.562   9.919
12660SOL     OW39876   0.512   0.520   5.366
12660SOL    HW139877   0.538   0.568   5.445
12660SOL    HW239878   0.536   0.429   5.384
12661SOL     OW39879   3.983   4.934   6.115
12661SOL    HW139880   3.938   4.998   6.170
12661SOL    HW239881   3.955   4.954   6.026
12662SOL     OW39882   1.660   6.272   7.217
12662SOL    HW139883   1.594   6.307   7.276
12662SOL    HW239884   1.649   6.177   7.221
12663SOL     OW39885   0.858  12.840  10.375
12663SOL    HW139886   0.929  12.854  10.313
12663SOL    HW239887   0.885  12.887  10.454
12664SOL     OW39888   0.295   6.478  11.861
12664SOL    HW139889   0.382   6.461  11.826
12664SOL    HW239890   0.236   6.451  11.790
12665SOL     OW39891  10.334   8.730   1.499
12665SOL    HW139892  10.311   8.639   1.480
12665SOL    HW239893  10.430   8.730   1.496
12666SOL     OW39894  12.891   2.925  10.756
12666SOL    HW139895  12.875   2.914  10.850
12666SOL    HW239896  12.809   2.897  10.715
12667SOL     OW39897   6.378   5.295   5.071
12667SOL    HW139898   6.298   5.347   5.079
12667SOL    HW239899   6.449   5.356   5.095
12668SOL     OW39900   7.527   3.834   5.605
12668SOL    HW139901   7.602   3.786   5.568
12668SOL    HW239902   7.545   3.926   5.584
12669SOL     OW39903  11.932   5.872   7.767
12669SOL    HW139904  12.011   5.904   7.723
12669SOL    HW239905  11.929   5.779   7.745
12670SOL     OW39906   0.021   4.192  13.899
12670SOL    HW139907  14.852   4.155  13.979
12670SOL    HW239908   0.077   4.263  13.929
12671SOL     OW39909   4.705   0.627   2.398
12671SOL    HW139910   4.671   0.647   2.485
12671SOL    HW239911   4.668   0.696   2.342
12672SOL     OW39912  12.816   7.975   7.459
12672SOL    HW139913  12.802   7.923   7.379
12672SOL    HW239914  12.729   7.982   7.498
12673SOL     OW39915   9.059  11.059   9.583
12673SOL    HW139916   9.048  10.996   9.512
12673SOL    HW239917   9.083  11.141   9.539
12674SOL     OW39918  13.307   1.997   4.440
12674SOL    HW139919  13.247   1.999   4.366
12674SOL    HW239920  13.384   2.046   4.410
12675SOL     OW39921  10.726   7.459  10.392
12675SOL    HW139922  10.805   7.443  10.443
12675SOL    HW239923  10.669   7.508  10.451
12676SOL     OW39924  11.892  12.846  13.168
12676SOL    HW139925  11.896  12.941  13.181
12676SOL    HW239926  11.945  12.810  13.239
12677SOL     OW39927   3.857   2.987  13.832
12677SOL    HW139928   3.840   3.052  13.901
12677SOL    HW239929   3.821   3.026  13.753
12678SOL     OW39930   3.741  10.187  13.970
12678SOL    HW139931   3.695  10.109  14.001
12678SOL    HW239932   3.833  10.158  13.963
12679SOL     OW39933  12.058   1.980  14.670
12679SOL    HW139934  12.150   1.990  14.697
12679SOL    HW239935  12.011   2.048  14.718
12680SOL     OW39936  10.746   4.607   9.250
12680SOL    HW139937  10.748   4.533   9.190
12680SOL    HW239938  10.727   4.569   9.336
12681SOL     OW39939  12.217   9.735   9.631
12681SOL    HW139940  12.155   9.705   9.697
12681SOL    HW239941  12.164   9.785   9.570
12682SOL     OW39942  10.938   4.937   9.404
12682SOL    HW139943  10.843   4.945   9.396
12682SOL    HW239944  10.965   4.891   9.325
12683SOL     OW39945   3.252   1.228   4.907
12683SOL    HW139946   3.342   1.245   4.935
12683SOL    HW239947   3.232   1.141   4.943
12684SOL     OW39948   0.544   2.398  10.660
12684SOL    HW139949   0.540   2.450  10.581
12684SOL    HW239950   0.595   2.451  10.721
12685SOL     OW39951   4.282   6.322  14.015
12685SOL    HW139952   4.312   6.263  13.946
12685SOL    HW239953   4.362   6.346  14.062
12686SOL     OW39954  11.012   8.071  14.547
12686SOL    HW139955  11.092   8.040  14.503
12686SOL    HW239956  11.029   8.057  14.640
12687SOL     OW39957   2.583   9.642  12.312
12687SOL    HW139958   2.596   9.550  12.335
12687SOL    HW239959   2.671   9.678  12.307
12688SOL     OW39960   8.053   3.317  12.697
12688SOL    HW139961   8.028   3.340  12.786
12688SOL    HW239962   8.093   3.397  12.663
12689SOL     OW39963   5.042   6.174   5.290
12689SOL    HW139964   4.994   6.240   5.341
12689SOL    HW239965   5.130   6.174   5.328
12690SOL     OW39966   4.345   7.813   1.209
12690SOL    HW139967   4.326   7.876   1.279
12690SOL    HW239968   4.376   7.735   1.256
12691SOL     OW39969  14.406   2.174  14.466
12691SOL    HW139970  14.440   2.085  14.454
12691SOL    HW239971  14.476   2.220  14.512
12692SOL     OW39972   9.985   1.268  10.052
12692SOL    HW139973   9.915   1.295   9.993
12692SOL    HW239974   9.999   1.343  10.110
12693SOL     OW39975  14.822   0.713  13.288
12693SOL    HW139976  14.818   0.805  13.263
12693SOL    HW239977  14.784   0.667  13.213
12694SOL     OW39978   9.233   0.689  13.337
12694SOL    HW139979   9.287   0.741  13.278
12694SOL    HW239980   9.254   0.722  13.424
12695SOL     OW39981   4.363  13.923  11.645
12695SOL    HW139982   4.384  13.939  11.553
12695SOL    HW239983   4.381  13.830  11.658
12696SOL     OW39984  11.913  12.421   5.353
12696SOL    HW139985  11.961  12.360   5.297
12696SOL    HW239986  11.823  12.389   5.352
12697SOL     OW39987   6.104   6.822   7.088
12697SOL    HW139988   6.041   6.820   7.160
12697SOL    HW239989   6.077   6.896   7.034
12698SOL     OW39990   8.037  11.625   7.916
12698SOL    HW139991   8.018  11.715   7.890
12698SOL    HW239992   7.958  11.576   7.893
12699SOL     OW39993   7.295   9.165  14.387
12699SOL    HW139994   7.311   9.124  14.302
12699SOL    HW239995   7.347   9.113  14.448
12700SOL     OW39996   3.128   9.053   5.816
12700SOL    HW139997   3.210   9.025   5.858
12700SOL    HW239998   3.155   9.082   5.729
12701SOL     OW39999   4.719  11.238   1.386
12701SOL    HW140000   4.667  11.282   1.454
12701SOL    HW240001   4.746  11.309   1.328
12702SOL     OW40002   8.750   4.401   3.776
12702SOL    HW140003   8.703   4.340   3.719
12702SOL    HW240004   8.797   4.458   3.715
12703SOL     OW40005  13.940   5.581   7.291
12703SOL    HW140006  13.970   5.565   7.201
12703SOL    HW240007  13.867   5.642   7.281
12704SOL     OW40008   2.528  10.978  13.257
12704SOL    HW140009   2.551  11.017  13.342
12704SOL    HW240010   2.432  10.981  13.255
12705SOL     OW40011   0.641  12.818  11.125
12705SOL    HW140012   0.664  12.908  11.149
12705SOL    HW240013   0.721  12.768  11.144
12706SOL     OW40014   2.929   8.551  10.275
12706SOL    HW140015   2.994   8.621  10.279
12706SOL    HW240016   2.941   8.512  10.188
12707SOL     OW40017  10.707  11.777   1.939
12707SOL    HW140018  10.743  11.781   2.028
12707SOL    HW240019  10.612  11.767   1.952
12708SOL     OW40020  14.840   6.716  10.424
12708SOL    HW140021   0.031   6.791  10.431
12708SOL    HW240022  14.833   6.700  10.330
12709SOL     OW40023   0.130   9.884   4.173
12709SOL    HW140024   0.053   9.910   4.223
12709SOL    HW240025   0.164   9.967   4.138
12710SOL     OW40026   5.469   2.273   6.744
12710SOL    HW140027   5.534   2.333   6.780
12710SOL    HW240028   5.407   2.259   6.815
12711SOL     OW40029   0.344   0.025  13.720
12711SOL    HW140030   0.283   0.098  13.727
12711SOL    HW240031   0.366   0.020  13.627
12712SOL     OW40032  14.184  12.253   6.011
12712SOL    HW140033  14.130  12.195   6.064
12712SOL    HW240034  14.263  12.267   6.063
12713SOL     OW40035   9.232  14.094   3.328
12713SOL    HW140036   9.161  14.096   3.264
12713SOL    HW240037   9.275  14.179   3.320
12714SOL     OW40038  12.669   0.138  10.971
12714SOL    HW140039  12.646   0.049  10.996
12714SOL    HW240040  12.648   0.145  10.878
12715SOL     OW40041   7.852  12.887  14.844
12715SOL    HW140042   7.927  12.941   0.001
12715SOL    HW240043   7.882  12.838  14.768
12716SOL     OW40044   6.746  12.088   2.490
12716SOL    HW140045   6.652  12.071   2.478
12716SOL    HW240046   6.752  12.132   2.574
12717SOL     OW40047   3.291   6.055   8.725
12717SOL    HW140048   3.368   6.008   8.693
12717SOL    HW240049   3.277   6.126   8.662
12718SOL     OW40050  13.524   3.420   7.869
12718SOL    HW140051  13.523   3.399   7.775
12718SOL    HW240052  13.487   3.343   7.911
12719SOL     OW40053   9.891  13.352  12.394
12719SOL    HW140054   9.952  13.396  12.452
12719SOL    HW240055   9.848  13.287  12.449
12720SOL     OW40056  13.440  11.946  10.577
12720SOL    HW140057  13.426  12.037  10.604
12720SOL    HW240058  13.487  11.906  10.651
12721SOL     OW40059   0.660   6.088   1.631
12721SOL    HW140060   0.656   6.087   1.535
12721SOL    HW240061   0.753   6.104   1.650
12722SOL     OW40062  12.728   9.527   2.964
12722SOL    HW140063  12.668   9.453   2.954
12722SOL    HW240064  12.717   9.554   3.056
12723SOL     OW40065  11.063   3.930  12.913
12723SOL    HW140066  11.007   3.927  12.835
12723SOL    HW240067  11.018   3.874  12.977
12724SOL     OW40068   8.542   1.432   7.678
12724SOL    HW140069   8.620   1.406   7.727
12724SOL    HW240070   8.535   1.526   7.692
12725SOL     OW40071  10.918   2.788   1.221
12725SOL    HW140072  10.880   2.805   1.135
12725SOL    HW240073  10.999   2.839   1.222
12726SOL     OW40074   2.706  10.969  10.652
12726SOL    HW140075   2.702  10.902  10.584
12726SOL    HW240076   2.735  11.048  10.607
12727SOL     OW40077  13.030  11.098   8.011
12727SOL    HW140078  13.122  11.125   8.020
12727SOL    HW240079  13.020  11.081   7.917
12728SOL     OW40080   6.544   2.574   9.699
12728SOL    HW140081   6.519   2.610   9.614
12728SOL    HW240082   6.603   2.639   9.737
12729SOL     OW40083   7.809   8.548  11.899
12729SOL    HW140084   7.898   8.536  11.866
12729SOL    HW240085   7.817   8.538  11.994
12730SOL     OW40086   4.054   2.732   0.993
12730SOL    HW140087   4.007   2.658   1.032
12730SOL    HW240088   4.037   2.805   1.051
12731SOL     OW40089   6.418  14.415  13.296
12731SOL    HW140090   6.353  14.430  13.227
12731SOL    HW240091   6.368  14.377  13.368
12732SOL     OW40092   1.621   1.590  13.408
12732SOL    HW140093   1.565   1.520  13.441
12732SOL    HW240094   1.639   1.644  13.485
12733SOL     OW40095   1.860   7.532   9.898
12733SOL    HW140096   1.912   7.578   9.964
12733SOL    HW240097   1.777   7.514   9.942
12734SOL     OW40098   1.315  10.478   0.285
12734SOL    HW140099   1.389  10.419   0.298
12734SOL    HW240100   1.353  10.566   0.290
12735SOL     OW40101   2.017   5.403   4.512
12735SOL    HW140102   1.998   5.494   4.537
12735SOL    HW240103   2.099   5.383   4.557
12736SOL     OW40104   5.562  13.648   0.726
12736SOL    HW140105   5.524  13.649   0.814
12736SOL    HW240106   5.627  13.578   0.730
12737SOL     OW40107   7.319  12.818   4.254
12737SOL    HW140108   7.293  12.732   4.222
12737SOL    HW240109   7.240  12.872   4.244
12738SOL     OW40110   3.736   5.775   5.356
12738SOL    HW140111   3.814   5.793   5.408
12738SOL    HW240112   3.752   5.819   5.273
12739SOL     OW40113   9.607  14.545   0.796
12739SOL    HW140114   9.627  14.471   0.738
12739SOL    HW240115   9.583  14.616   0.736
12740SOL     OW40116  11.985  10.883   4.901
12740SOL    HW140117  11.991  10.832   4.981
12740SOL    HW240118  12.037  10.962   4.918
12741SOL     OW40119  10.126   8.282  13.949
12741SOL    HW140120  10.127   8.221  13.875
12741SOL    HW240121  10.033   8.295  13.967
12742SOL     OW40122   1.670   1.782   5.959
12742SOL    HW140123   1.701   1.753   5.873
12742SOL    HW240124   1.637   1.702   6.000
12743SOL     OW40125  10.828  11.306   6.603
12743SOL    HW140126  10.892  11.376   6.621
12743SOL    HW240127  10.853  11.235   6.662
12744SOL     OW40128  13.121   6.334  14.253
12744SOL    HW140129  13.113   6.370  14.342
12744SOL    HW240130  13.214   6.343  14.232
12745SOL     OW40131   7.692   3.581   9.852
12745SOL    HW140132   7.660   3.625   9.930
12745SOL    HW240133   7.613   3.565   9.800
12746SOL     OW40134   1.337  11.606   6.189
12746SOL    HW140135   1.373  11.610   6.278
12746SOL    HW240136   1.260  11.663   6.191
12747SOL     OW40137   9.155   6.107   9.166
12747SOL    HW140138   9.212   6.146   9.232
12747SOL    HW240139   9.068   6.108   9.205
12748SOL     OW40140   6.376   9.173  12.917
12748SOL    HW140141   6.322   9.113  12.968
12748SOL    HW240142   6.433   9.116  12.865
12749SOL     OW40143   7.659   2.792   7.748
12749SOL    HW140144   7.629   2.869   7.699
12749SOL    HW240145   7.633   2.809   7.838
12750SOL     OW40146  13.643   4.381   2.748
12750SOL    HW140147  13.709   4.450   2.739
12750SOL    HW240148  13.616   4.362   2.658
12751SOL     OW40149  14.103   7.617   5.455
12751SOL    HW140150  14.178   7.577   5.412
12751SOL    HW240151  14.139   7.661   5.532
12752SOL     OW40152   1.281   4.370  11.776
12752SOL    HW140153   1.336   4.306  11.822
12752SOL    HW240154   1.343   4.436  11.744
12753SOL     OW40155   0.516  10.640  13.523
12753SOL    HW140156   0.480  10.592  13.597
12753SOL    HW240157   0.546  10.571  13.463
12754SOL     OW40158   3.627   0.227  12.705
12754SOL    HW140159   3.559   0.294  12.701
12754SOL    HW240160   3.664   0.237  12.793
12755SOL     OW40161   8.242   9.708  10.229
12755SOL    HW140162   8.173   9.666  10.281
12755SOL    HW240163   8.298   9.636  10.202
12756SOL     OW40164   2.980   7.470   4.551
12756SOL    HW140165   3.034   7.391   4.540
12756SOL    HW240166   2.985   7.513   4.466
12757SOL     OW40167   2.253   5.634   0.889
12757SOL    HW140168   2.291   5.631   0.977
12757SOL    HW240169   2.158   5.638   0.904
12758SOL     OW40170   0.834  11.906  11.711
12758SOL    HW140171   0.741  11.921  11.724
12758SOL    HW240172   0.865  11.871  11.795
12759SOL     OW40173   5.191   4.298  13.477
12759SOL    HW140174   5.104   4.261  13.463
12759SOL    HW240175   5.178   4.393  13.476
12760SOL     OW40176   8.676   1.076  13.034
12760SOL    HW140177   8.693   1.001  12.977
12760SOL    HW240178   8.591   1.057  13.073
12761SOL     OW40179   3.331   0.572   2.145
12761SOL    HW140180   3.257   0.612   2.190
12761SOL    HW240181   3.386   0.645   2.117
12762SOL     OW40182   3.667  10.827  12.533
12762SOL    HW140183   3.756  10.803  12.505
12762SOL    HW240184   3.618  10.838  12.452
12763SOL     OW40185  12.696  14.653  12.575
12763SOL    HW140186  12.712  14.744  12.603
12763SOL    HW240187  12.774  14.606  12.605
12764SOL     OW40188   2.606   2.176  14.648
12764SOL    HW140189   2.634   2.217  14.730
12764SOL    HW240190   2.617   2.245  14.583
12765SOL     OW40191  10.356   5.775   0.869
12765SOL    HW140192  10.344   5.845   0.806
12765SOL    HW240193  10.319   5.697   0.827
12766SOL     OW40194   9.151  11.251   6.801
12766SOL    HW140195   9.175  11.217   6.715
12766SOL    HW240196   9.119  11.340   6.783
12767SOL     OW40197  12.594  14.178  14.269
12767SOL    HW140198  12.508  14.140  14.287
12767SOL    HW240199  12.577  14.247  14.206
12768SOL     OW40200   1.998   7.007   2.398
12768SOL    HW140201   2.081   6.970   2.427
12768SOL    HW240202   1.959   7.044   2.478
12769SOL     OW40203   1.735   5.145   6.594
12769SOL    HW140204   1.674   5.171   6.524
12769SOL    HW240205   1.717   5.052   6.607
12770SOL     OW40206   3.014   5.180  10.626
12770SOL    HW140207   3.021   5.266  10.668
12770SOL    HW240208   3.094   5.134  10.652
12771SOL     OW40209  14.541  14.812   4.116
12771SOL    HW140210  14.632  14.843   4.118
12771SOL    HW240211  14.495   0.008   4.061
12772SOL     OW40212   9.710   5.928   9.243
12772SOL    HW140213   9.747   5.962   9.162
12772SOL    HW240214   9.689   6.005   9.296
12773SOL     OW40215  14.060  12.535   0.547
12773SOL    HW140216  13.988  12.474   0.532
12773SOL    HW240217  14.124  12.485   0.598
12774SOL     OW40218   1.497  13.044   8.199
12774SOL    HW140219   1.589  13.030   8.219
12774SOL    HW240220   1.461  12.955   8.191
12775SOL     OW40221  11.821   8.906   3.038
12775SOL    HW140222  11.857   8.902   3.126
12775SOL    HW240223  11.864   8.834   2.991
12776SOL     OW40224   6.958   2.518   5.625
12776SOL    HW140225   6.917   2.525   5.538
12776SOL    HW240226   6.884   2.510   5.685
12777SOL     OW40227   3.182  12.539   4.597
12777SOL    HW140228   3.231  12.593   4.658
12777SOL    HW240229   3.239  12.531   4.520
12778SOL     OW40230   0.522   9.872   7.567
12778SOL    HW140231   0.510   9.777   7.577
12778SOL    HW240232   0.442   9.902   7.525
12779SOL     OW40233   2.751   2.725  13.874
12779SOL    HW140234   2.713   2.776  13.802
12779SOL    HW240235   2.777   2.791  13.939
12780SOL     OW40236  12.247  10.979   3.325
12780SOL    HW140237  12.194  11.058   3.334
12780SOL    HW240238  12.242  10.937   3.411
12781SOL     OW40239  13.671  13.969  11.029
12781SOL    HW140240  13.638  14.008  10.948
12781SOL    HW240241  13.593  13.957  11.083
12782SOL     OW40242  10.470   6.406  13.409
12782SOL    HW140243  10.454   6.380  13.319
12782SOL    HW240244  10.563   6.392  13.423
12783SOL     OW40245  11.525   8.753   3.968
12783SOL    HW140246  11.474   8.809   3.909
12783SOL    HW240247  11.535   8.670   3.920
12784SOL     OW40248   3.022  13.932   5.115
12784SOL    HW140249   2.981  13.928   5.202
12784SOL    HW240250   3.013  14.023   5.088
12785SOL     OW40251  12.009   8.822   6.793
12785SOL    HW140252  12.078   8.809   6.858
12785SOL    HW240253  12.056   8.834   6.711
12786SOL     OW40254   3.012   1.532   0.678
12786SOL    HW140255   3.091   1.586   0.679
12786SOL    HW240256   3.043   1.442   0.670
12787SOL     OW40257   6.319   4.585  12.023
12787SOL    HW140258   6.261   4.654  12.055
12787SOL    HW240259   6.376   4.628  11.960
12788SOL     OW40260  11.863   2.362  12.307
12788SOL    HW140261  11.826   2.451  12.312
12788SOL    HW240262  11.802   2.314  12.252
12789SOL     OW40263  10.372   0.791  12.849
12789SOL    HW140264  10.364   0.877  12.893
12789SOL    HW240265  10.291   0.745  12.873
12790SOL     OW40266   2.239   8.459   4.754
12790SOL    HW140267   2.310   8.475   4.817
12790SOL    HW240268   2.279   8.405   4.686
12791SOL     OW40269  14.576  14.485  13.321
12791SOL    HW140270  14.536  14.426  13.258
12791SOL    HW240271  14.669  14.484  13.299
12792SOL     OW40272   2.543  11.306  11.774
12792SOL    HW140273   2.613  11.247  11.745
12792SOL    HW240274   2.586  11.391  11.787
12793SOL     OW40275   6.523   6.479   9.787
12793SOL    HW140276   6.561   6.443   9.707
12793SOL    HW240277   6.539   6.412   9.853
12794SOL     OW40278  10.741   5.597  10.764
12794SOL    HW140279  10.802   5.532  10.798
12794SOL    HW240280  10.702   5.556  10.687
12795SOL     OW40281  12.858   3.134  13.789
12795SOL    HW140282  12.929   3.084  13.829
12795SOL    HW240283  12.851   3.098  13.700
12796SOL     OW40284   0.315   7.957   4.381
12796SOL    HW140285   0.264   7.877   4.395
12796SOL    HW240286   0.310   8.003   4.464
12797SOL     OW40287   4.815  12.079   9.172
12797SOL    HW140288   4.812  11.983   9.165
12797SOL    HW240289   4.740  12.102   9.226
12798SOL     OW40290   0.738   8.763  14.720
12798SOL    HW140291   0.692   8.816  14.655
12798SOL    HW240292   0.710   8.798  14.804
12799SOL     OW40293   4.618   8.054   9.968
12799SOL    HW140294   4.557   8.057  10.041
12799SOL    HW240295   4.616   7.963   9.938
12800SOL     OW40296  10.916   4.005  10.865
12800SOL    HW140297  10.918   4.100  10.871
12800SOL    HW240298  10.945   3.975  10.951
12801SOL     OW40299   5.811   9.426   3.611
12801SOL    HW140300   5.825   9.338   3.645
12801SOL    HW240301   5.719   9.445   3.628
12802SOL     OW40302   8.843  11.468  10.145
12802SOL    HW140303   8.786  11.412  10.198
12802SOL    HW240304   8.877  11.533  10.208
12803SOL     OW40305   3.193   1.262   7.213
12803SOL    HW140306   3.190   1.254   7.117
12803SOL    HW240307   3.121   1.321   7.234
12804SOL     OW40308  11.581  11.381  10.101
12804SOL    HW140309  11.541  11.299  10.130
12804SOL    HW240310  11.563  11.385  10.007
12805SOL     OW40311   1.370  10.942  10.538
12805SOL    HW140312   1.329  10.916  10.456
12805SOL    HW240313   1.449  10.888  10.543
12806SOL     OW40314   5.981  10.014   8.494
12806SOL    HW140315   5.969  10.103   8.528
12806SOL    HW240316   6.025   9.967   8.565
12807SOL     OW40317  13.169  14.325   3.948
12807SOL    HW140318  13.236  14.312   4.016
12807SOL    HW240319  13.152  14.237   3.915
12808SOL     OW40320   6.087   7.812  10.330
12808SOL    HW140321   6.102   7.725  10.293
12808SOL    HW240322   6.064   7.795  10.422
12809SOL     OW40323   2.384  10.182  13.994
12809SOL    HW140324   2.385  10.240  13.918
12809SOL    HW240325   2.410  10.096  13.959
12810SOL     OW40326   4.943   2.175   0.324
12810SOL    HW140327   5.023   2.178   0.377
12810SOL    HW240328   4.881   2.230   0.371
12811SOL     OW40329   8.110   8.596   3.329
12811SOL    HW140330   8.035   8.537   3.327
12811SOL    HW240331   8.083   8.667   3.387
12812SOL     OW40332  11.704   2.367  13.350
12812SOL    HW140333  11.745   2.333  13.429
12812SOL    HW240334  11.749   2.449  13.332
12813SOL     OW40335   0.637  11.478   8.593
12813SOL    HW140336   0.615  11.557   8.543
12813SOL    HW240337   0.572  11.413   8.565
12814SOL     OW40338  12.208   2.594   1.282
12814SOL    HW140339  12.122   2.614   1.318
12814SOL    HW240340  12.192   2.522   1.221
12815SOL     OW40341   8.549  14.600   7.185
12815SOL    HW140342   8.498  14.555   7.117
12815SOL    HW240343   8.630  14.550   7.191
12816SOL     OW40344  12.825   9.001  11.066
12816SOL    HW140345  12.828   9.095  11.085
12816SOL    HW240346  12.859   8.960  11.146
12817SOL     OW40347  13.752   5.343   6.692
12817SOL    HW140348  13.701   5.367   6.614
12817SOL    HW240349  13.737   5.249   6.701
12818SOL     OW40350   5.647   2.831  13.654
12818SOL    HW140351   5.649   2.765  13.723
12818SOL    HW240352   5.720   2.890  13.674
12819SOL     OW40353   2.811  12.418   7.754
12819SOL    HW140354   2.748  12.453   7.817
12819SOL    HW240355   2.871  12.490   7.737
12820SOL     OW40356  13.014   0.636   6.352
12820SOL    HW140357  12.926   0.625   6.316
12820SOL    HW240358  13.029   0.730   6.350
12821SOL     OW40359   3.780   5.970  11.490
12821SOL    HW140360   3.833   5.894  11.515
12821SOL    HW240361   3.824   6.004  11.412
12822SOL     OW40362   2.072   0.251  12.230
12822SOL    HW140363   2.084   0.301  12.149
12822SOL    HW240364   1.985   0.276  12.261
12823SOL     OW40365   3.613   3.090   1.513
12823SOL    HW140366   3.537   3.139   1.544
12823SOL    HW240367   3.595   2.999   1.539
12824SOL     OW40368   2.941  14.495   6.372
12824SOL    HW140369   2.978  14.512   6.459
12824SOL    HW240370   3.011  14.449   6.325
12825SOL     OW40371   4.172   7.802   1.972
12825SOL    HW140372   4.170   7.876   2.033
12825SOL    HW240373   4.102   7.745   2.002
12826SOL     OW40374   9.148  13.526   2.795
12826SOL    HW140375   9.146  13.460   2.725
12826SOL    HW240376   9.195  13.483   2.866
12827SOL     OW40377  11.967   3.416   2.984
12827SOL    HW140378  11.940   3.343   2.928
12827SOL    HW240379  11.927   3.493   2.944
12828SOL     OW40380   3.481   4.695   8.792
12828SOL    HW140381   3.570   4.723   8.813
12828SOL    HW240382   3.437   4.690   8.877
12829SOL     OW40383   1.982   3.173  14.359
12829SOL    HW140384   1.916   3.115  14.320
12829SOL    HW240385   1.932   3.248  14.391
12830SOL     OW40386  12.746   2.862   9.275
12830SOL    HW140387  12.830   2.827   9.245
12830SOL    HW240388  12.692   2.784   9.291
12831SOL     OW40389   9.698   0.980   5.326
12831SOL    HW140390   9.788   0.955   5.348
12831SOL    HW240391   9.660   0.901   5.289
12832SOL     OW40392   0.454   9.174   7.557
12832SOL    HW140393   0.465   9.258   7.602
12832SOL    HW240394   0.362   9.151   7.572
12833SOL     OW40395  13.611  10.807  12.838
12833SOL    HW140396  13.650  10.760  12.912
12833SOL    HW240397  13.545  10.748  12.803
12834SOL     OW40398   7.078   8.215  12.099
12834SOL    HW140399   7.094   8.267  12.178
12834SOL    HW240400   7.162   8.172  12.081
12835SOL     OW40401  14.020  10.673   9.548
12835SOL    HW140402  13.951  10.735   9.572
12835SOL    HW240403  14.072  10.720   9.483
12836SOL     OW40404   4.618  14.014   2.776
12836SOL    HW140405   4.710  14.039   2.779
12836SOL    HW240406   4.619  13.918   2.770
12837SOL     OW40407  11.765   8.622   3.253
12837SOL    HW140408  11.775   8.574   3.335
12837SOL    HW240409  11.854   8.645   3.228
12838SOL     OW40410   2.283   5.407  13.360
12838SOL    HW140411   2.204   5.452  13.391
12838SOL    HW240412   2.313   5.356  13.435
12839SOL     OW40413   1.944   2.377   1.177
12839SOL    HW140414   2.006   2.391   1.249
12839SOL    HW240415   1.991   2.406   1.099
12840SOL     OW40416   6.254  11.521   6.670
12840SOL    HW140417   6.323  11.562   6.618
12840SOL    HW240418   6.192  11.489   6.605
12841SOL     OW40419   7.048   2.791  14.778
12841SOL    HW140420   7.099   2.868  14.805
12841SOL    HW240421   6.960   2.806  14.815
12842SOL     OW40422   5.516   3.120  14.665
12842SOL    HW140423   5.474   3.122  14.751
12842SOL    HW240424   5.443   3.119  14.603
12843SOL     OW40425  10.290  12.459  13.005
12843SOL    HW140426  10.228  12.531  12.996
12843SOL    HW240427  10.344  12.464  12.926
12844SOL     OW40428   8.564   4.262   6.093
12844SOL    HW140429   8.517   4.196   6.144
12844SOL    HW240430   8.499   4.295   6.031
12845SOL     OW40431   1.621   0.608  11.199
12845SOL    HW140432   1.708   0.631  11.165
12845SOL    HW240433   1.566   0.599  11.121
12846SOL     OW40434  10.586   9.049   1.136
12846SOL    HW140435  10.523   9.077   1.069
12846SOL    HW240436  10.586   8.953   1.130
12847SOL     OW40437   5.634  11.478   6.523
12847SOL    HW140438   5.547  11.441   6.541
12847SOL    HW240439   5.683  11.405   6.484
12848SOL     OW40440  11.981   7.321   0.842
12848SOL    HW140441  12.043   7.383   0.804
12848SOL    HW240442  11.897   7.343   0.801
12849SOL     OW40443   9.152   3.230   6.630
12849SOL    HW140444   9.079   3.288   6.611
12849SOL    HW240445   9.230   3.285   6.623
12850SOL     OW40446  13.808  12.488   0.212
12850SOL    HW140447  13.753  12.474   0.289
12850SOL    HW240448  13.881  12.541   0.244
12851SOL     OW40449  12.976  14.180   4.190
12851SOL    HW140450  12.970  14.215   4.279
12851SOL    HW240451  12.897  14.212   4.146
12852SOL     OW40452  11.761   7.870  13.157
12852SOL    HW140453  11.727   7.875  13.067
12852SOL    HW240454  11.852   7.843  13.146
12853SOL     OW40455   4.953   0.540   7.785
12853SOL    HW140456   5.043   0.567   7.801
12853SOL    HW240457   4.960   0.468   7.723
12854SOL     OW40458   2.761   4.457  10.142
12854SOL    HW140459   2.751   4.389  10.209
12854SOL    HW240460   2.803   4.412  10.069
12855SOL     OW40461  12.053   8.777  14.596
12855SOL    HW140462  12.013   8.700  14.635
12855SOL    HW240463  11.978   8.829  14.564
12856SOL     OW40464   6.515  12.152   6.997
12856SOL    HW140465   6.515  12.111   7.084
12856SOL    HW240466   6.422  12.161   6.975
12857SOL     OW40467   9.714  14.489   5.587
12857SOL    HW140468   9.743  14.579   5.600
12857SOL    HW240469   9.689  14.485   5.494
12858SOL     OW40470  10.188   4.934   0.071
12858SOL    HW140471  10.122   4.935   0.002
12858SOL    HW240472  10.204   5.026   0.089
12859SOL     OW40473   2.175  11.481  10.057
12859SOL    HW140474   2.253  11.426  10.048
12859SOL    HW240475   2.209  11.567  10.080
12860SOL     OW40476   9.748  14.739  12.944
12860SOL    HW140477   9.684  14.752  13.014
12860SOL    HW240478   9.695  14.738  12.864
12861SOL     OW40479   6.450   2.386   3.314
12861SOL    HW140480   6.514   2.326   3.276
12861SOL    HW240481   6.375   2.330   3.337
12862SOL     OW40482  12.866   2.460   9.773
12862SOL    HW140483  12.771   2.455   9.783
12862SOL    HW240484  12.880   2.474   9.680
12863SOL     OW40485  11.574  13.631   6.858
12863SOL    HW140486  11.641  13.609   6.922
12863SOL    HW240487  11.576  13.726   6.853
12864SOL     OW40488  12.405  13.988   2.449
12864SOL    HW140489  12.467  13.993   2.522
12864SOL    HW240490  12.460  13.978   2.372
12865SOL     OW40491  12.470   3.772  13.781
12865SOL    HW140492  12.510   3.780  13.868
12865SOL    HW240493  12.504   3.690  13.746
12866SOL     OW40494   5.560  13.157  10.810
12866SOL    HW140495   5.479  13.167  10.759
12866SOL    HW240496   5.584  13.065  10.799
12867SOL     OW40497   4.887   1.124   6.429
12867SOL    HW140498   4.850   1.051   6.380
12867SOL    HW240499   4.859   1.202   6.381
12868SOL     OW40500  12.746  11.313   0.957
12868SOL    HW140501  12.815  11.277   1.013
12868SOL    HW240502  12.717  11.392   1.004
12869SOL     OW40503  13.756  12.080  10.071
12869SOL    HW140504  13.808  12.001  10.061
12869SOL    HW240505  13.674  12.061  10.024
12870SOL     OW40506   0.956   4.362  12.312
12870SOL    HW140507   0.951   4.279  12.359
12870SOL    HW240508   0.902   4.422  12.365
12871SOL     OW40509   8.119   1.132  14.471
12871SOL    HW140510   8.055   1.071  14.508
12871SOL    HW240511   8.102   1.130  14.377
12872SOL     OW40512   0.721   5.426  14.063
12872SOL    HW140513   0.658   5.412  13.992
12872SOL    HW240514   0.805   5.441  14.019
12873SOL     OW40515   3.175   1.835   4.819
12873SOL    HW140516   3.084   1.805   4.824
12873SOL    HW240517   3.227   1.755   4.817
12874SOL     OW40518   8.079   1.379   7.891
12874SOL    HW140519   8.112   1.304   7.842
12874SOL    HW240520   8.157   1.430   7.914
12875SOL     OW40521   2.365   7.384   2.681
12875SOL    HW140522   2.437   7.416   2.625
12875SOL    HW240523   2.349   7.455   2.743
12876SOL     OW40524  10.591   6.336   4.264
12876SOL    HW140525  10.543   6.261   4.300
12876SOL    HW240526  10.659   6.354   4.329
12877SOL     OW40527   5.682   9.489  10.480
12877SOL    HW140528   5.718   9.400  10.476
12877SOL    HW240529   5.744   9.543  10.431
12878SOL     OW40530  11.581   2.077  11.176
12878SOL    HW140531  11.599   2.124  11.258
12878SOL    HW240532  11.637   2.119  11.111
12879SOL     OW40533   3.959   3.846   9.263
12879SOL    HW140534   3.973   3.933   9.224
12879SOL    HW240535   3.950   3.863   9.356
12880SOL     OW40536   6.575   3.816   5.001
12880SOL    HW140537   6.541   3.824   4.912
12880SOL    HW240538   6.629   3.894   5.013
12881SOL     OW40539  10.629   6.015   7.482
12881SOL    HW140540  10.717   6.041   7.454
12881SOL    HW240541  10.578   6.011   7.400
12882SOL     OW40542  12.084   8.122   6.106
12882SOL    HW140543  11.997   8.148   6.077
12882SOL    HW240544  12.142   8.143   6.032
12883SOL     OW40545  10.458   9.460   7.050
12883SOL    HW140546  10.517   9.443   6.977
12883SOL    HW240547  10.424   9.548   7.032
12884SOL     OW40548  12.949  12.764  12.722
12884SOL    HW140549  12.924  12.805  12.805
12884SOL    HW240550  12.910  12.676  12.726
12885SOL     OW40551   3.626  13.416   5.243
12885SOL    HW140552   3.558  13.459   5.296
12885SOL    HW240553   3.678  13.366   5.307
12886SOL     OW40554   2.678  13.473   4.103
12886SOL    HW140555   2.707  13.564   4.106
12886SOL    HW240556   2.742  13.425   4.156
12887SOL     OW40557   9.887   8.616   8.463
12887SOL    HW140558   9.960   8.554   8.470
12887SOL    HW240559   9.835   8.585   8.389
12888SOL     OW40560   6.232   2.787   3.431
12888SOL    HW140561   6.313   2.755   3.389
12888SOL    HW240562   6.162   2.750   3.378
12889SOL     OW40563   0.250   7.205   1.304
12889SOL    HW140564   0.216   7.283   1.348
12889SOL    HW240565   0.173   7.161   1.268
12890SOL     OW40566   8.028   4.339   4.192
12890SOL    HW140567   8.104   4.380   4.233
12890SOL    HW240568   7.966   4.411   4.180
12891SOL     OW40569  10.658   2.132   0.085
12891SOL    HW140570  10.590   2.146   0.020
12891SOL    HW240571  10.727   2.194   0.062
12892SOL     OW40572   2.206   7.466   1.633
12892SOL    HW140573   2.197   7.431   1.544
12892SOL    HW240574   2.299   7.462   1.651
12893SOL     OW40575   0.913  14.482   8.186
12893SOL    HW140576   0.817  14.489   8.184
12893SOL    HW240577   0.935  14.427   8.111
12894SOL     OW40578   0.855   3.040  13.315
12894SOL    HW140579   0.759   3.049  13.317
12894SOL    HW240580   0.871   2.948  13.333
12895SOL     OW40581  10.067   7.582   7.350
12895SOL    HW140582  10.090   7.525   7.423
12895SOL    HW240583   9.977   7.609   7.367
12896SOL     OW40584   9.597  12.682   1.352
12896SOL    HW140585   9.685  12.712   1.375
12896SOL    HW240586   9.560  12.650   1.434
12897SOL     OW40587   4.894   6.001  13.961
12897SOL    HW140588   4.840   6.029  14.035
12897SOL    HW240589   4.974   6.053  13.968
12898SOL     OW40590   9.877  11.170   3.372
12898SOL    HW140591   9.829  11.197   3.294
12898SOL    HW240592   9.966  11.153   3.341
12899SOL     OW40593  12.481  14.411  11.894
12899SOL    HW140594  12.541  14.357  11.843
12899SOL    HW240595  12.395  14.395  11.856
12900SOL     OW40596   1.169  14.538   2.904
12900SOL    HW140597   1.086  14.535   2.856
12900SOL    HW240598   1.144  14.567   2.992
12901SOL     OW40599  11.834   7.274  11.130
12901SOL    HW140600  11.923   7.292  11.159
12901SOL    HW240601  11.822   7.329  11.053
12902SOL     OW40602   0.753   7.965  10.222
12902SOL    HW140603   0.682   7.969  10.159
12902SOL    HW240604   0.819   8.026  10.188
12903SOL     OW40605   7.292  14.051   3.634
12903SOL    HW140606   7.369  14.097   3.601
12903SOL    HW240607   7.323  13.963   3.655
12904SOL     OW40608   7.013   0.483   8.628
12904SOL    HW140609   6.987   0.408   8.575
12904SOL    HW240610   6.954   0.554   8.602
12905SOL     OW40611  11.813  12.095   2.858
12905SOL    HW140612  11.800  12.060   2.770
12905SOL    HW240613  11.907  12.115   2.862
12906SOL     OW40614  10.902   7.066   0.765
12906SOL    HW140615  10.813   7.063   0.799
12906SOL    HW240616  10.907   6.994   0.702
12907SOL     OW40617  13.211   4.636   3.867
12907SOL    HW140618  13.275   4.620   3.798
12907SOL    HW240619  13.236   4.578   3.938
12908SOL     OW40620  12.832  13.960  11.158
12908SOL    HW140621  12.817  14.009  11.077
12908SOL    HW240622  12.753  13.974  11.209
12909SOL     OW40623   4.684   7.949   9.350
12909SOL    HW140624   4.718   7.989   9.429
12909SOL    HW240625   4.741   7.981   9.280
12910SOL     OW40626  10.023   7.546   3.097
12910SOL    HW140627   9.996   7.481   3.033
12910SOL    HW240628   9.992   7.630   3.062
12911SOL     OW40629  12.546  11.481   0.375
12911SOL    HW140630  12.516  11.411   0.317
12911SOL    HW240631  12.473  11.496   0.435
12912SOL     OW40632   6.578  12.739  10.847
12912SOL    HW140633   6.635  12.668  10.818
12912SOL    HW240634   6.594  12.810  10.786
12913SOL     OW40635   2.095  13.364   2.228
12913SOL    HW140636   2.181  13.322   2.238
12913SOL    HW240637   2.065  13.335   2.141
12914SOL     OW40638   1.705   9.009  13.448
12914SOL    HW140639   1.668   9.080  13.500
12914SOL    HW240640   1.648   8.934  13.468
12915SOL     OW40641   9.992   1.576   0.458
12915SOL    HW140642   9.956   1.614   0.378
12915SOL    HW240643   9.916   1.539   0.503
12916SOL     OW40644   1.443  13.699  13.116
12916SOL    HW140645   1.535  13.676  13.100
12916SOL    HW240646   1.394  13.640  13.058
12917SOL     OW40647  12.229   9.438  12.997
12917SOL    HW140648  12.309   9.419  12.948
12917SOL    HW240649  12.160   9.393  12.948
12918SOL     OW40650   8.320   9.670   3.901
12918SOL    HW140651   8.255   9.642   3.966
12918SOL    HW240652   8.404   9.655   3.944
12919SOL     OW40653   1.908  11.019   7.809
12919SOL    HW140654   1.900  11.102   7.762
12919SOL    HW240655   1.996  11.021   7.847
12920SOL     OW40656  10.084  13.389   5.418
12920SOL    HW140657  10.165  13.369   5.371
12920SOL    HW240658  10.034  13.443   5.357
12921SOL     OW40659   7.862   6.454   9.256
12921SOL    HW140660   7.858   6.423   9.166
12921SOL    HW240661   7.771   6.456   9.286
12922SOL     OW40662  12.345   9.436   4.701
12922SOL    HW140663  12.413   9.493   4.665
12922SOL    HW240664  12.277   9.496   4.730
12923SOL     OW40665  12.593  14.300  12.808
12923SOL    HW140666  12.508  14.331  12.838
12923SOL    HW240667  12.641  14.279  12.888
12924SOL     OW40668  11.154   2.545   1.219
12924SOL    HW140669  11.123   2.468   1.265
12924SOL    HW240670  11.231   2.516   1.171
12925SOL     OW40671   8.514  14.867   3.336
12925SOL    HW140672   8.433   0.010   3.385
12925SOL    HW240673   8.579   0.048   3.388
12926SOL     OW40674  13.775  14.098  14.466
12926SOL    HW140675  13.679  14.101  14.476
12926SOL    HW240676  13.788  14.072  14.375
12927SOL     OW40677   8.542   6.885   6.779
12927SOL    HW140678   8.544   6.813   6.841
12927SOL    HW240679   8.583   6.958   6.825
12928SOL     OW40680  10.775   3.947   9.443
12928SOL    HW140681  10.802   4.032   9.479
12928SOL    HW240682  10.758   3.893   9.520
12929SOL     OW40683  12.954   7.908   1.491
12929SOL    HW140684  12.989   7.993   1.463
12929SOL    HW240685  12.860   7.914   1.472
12930SOL     OW40686   5.078  12.763  13.428
12930SOL    HW140687   5.155  12.713  13.403
12930SOL    HW240688   5.091  12.782  13.521
12931SOL     OW40689  11.852   5.901  11.396
12931SOL    HW140690  11.771   5.942  11.369
12931SOL    HW240691  11.920   5.964  11.372
12932SOL     OW40692   2.259   6.954   3.529
12932SOL    HW140693   2.298   6.894   3.592
12932SOL    HW240694   2.196   6.900   3.481
12933SOL     OW40695   9.061   6.117   8.896
12933SOL    HW140696   9.155   6.098   8.893
12933SOL    HW240697   9.041   6.127   8.989
12934SOL     OW40698   4.621  10.987   3.461
12934SOL    HW140699   4.633  11.005   3.554
12934SOL    HW240700   4.596  11.072   3.424
12935SOL     OW40701   0.909   9.046  11.670
12935SOL    HW140702   0.984   8.998  11.703
12935SOL    HW240703   0.912   9.032  11.575
12936SOL     OW40704  13.030  13.358  10.001
12936SOL    HW140705  13.015  13.452  10.012
12936SOL    HW240706  12.989  13.337   9.917
12937SOL     OW40707  13.668   8.942   5.722
12937SOL    HW140708  13.706   8.874   5.778
12937SOL    HW240709  13.576   8.919   5.715
12938SOL     OW40710  13.031   4.700  14.339
12938SOL    HW140711  13.080   4.680  14.419
12938SOL    HW240712  13.049   4.627  14.280
12939SOL     OW40713   7.853   5.905  10.591
12939SOL    HW140714   7.839   5.904  10.686
12939SOL    HW240715   7.798   5.977  10.560
12940SOL     OW40716  11.433  14.010   7.937
12940SOL    HW140717  11.443  14.068   7.861
12940SOL    HW240718  11.494  14.045   8.002
12941SOL     OW40719   2.758  10.174  11.980
12941SOL    HW140720   2.718  10.088  11.993
12941SOL    HW240721   2.709  10.232  12.038
12942SOL     OW40722   3.514   8.468   5.858
12942SOL    HW140723   3.457   8.540   5.831
12942SOL    HW240724   3.485   8.447   5.947
12943SOL     OW40725  11.017   9.127  14.427
12943SOL    HW140726  11.008   9.072  14.349
12943SOL    HW240727  11.002   9.216  14.396
12944SOL     OW40728  13.734   2.511   5.537
12944SOL    HW140729  13.788   2.590   5.534
12944SOL    HW240730  13.754   2.465   5.455
12945SOL     OW40731  11.084   0.977   2.104
12945SOL    HW140732  10.994   0.947   2.119
12945SOL    HW240733  11.107   1.025   2.184
12946SOL     OW40734   0.082   9.656   5.902
12946SOL    HW140735   0.117   9.681   5.817
12946SOL    HW240736   0.070   9.739   5.949
12947SOL     OW40737   9.450  11.586  14.076
12947SOL    HW140738   9.498  11.508  14.047
12947SOL    HW240739   9.511  11.630  14.136
12948SOL     OW40740   4.080   8.466  10.203
12948SOL    HW140741   4.052   8.397  10.143
12948SOL    HW240742   4.134   8.421  10.268
12949SOL     OW40743  14.738  13.724   8.996
12949SOL    HW140744  14.682  13.680   9.059
12949SOL    HW240745  14.791  13.655   8.958
12950SOL     OW40746  13.724  14.315   5.274
12950SOL    HW140747  13.657  14.292   5.337
12950SOL    HW240748  13.676  14.351   5.199
12951SOL     OW40749   6.215  10.656   4.609
12951SOL    HW140750   6.196  10.749   4.594
12951SOL    HW240751   6.130  10.618   4.631
12952SOL     OW40752  11.416  12.057  14.528
12952SOL    HW140753  11.465  12.138  14.510
12952SOL    HW240754  11.395  12.062  14.621
12953SOL     OW40755   1.516   1.302  11.495
12953SOL    HW140756   1.558   1.230  11.448
12953SOL    HW240757   1.486   1.263  11.577
12954SOL     OW40758   8.555   3.596   8.963
12954SOL    HW140759   8.517   3.557   8.884
12954SOL    HW240760   8.559   3.524   9.025
12955SOL     OW40761   1.687   5.313  11.310
12955SOL    HW140762   1.759   5.309  11.246
12955SOL    HW240763   1.690   5.403  11.343
12956SOL     OW40764   7.922   8.751   5.418
12956SOL    HW140765   7.977   8.798   5.355
12956SOL    HW240766   7.981   8.730   5.490
12957SOL     OW40767  10.641   9.940   1.651
12957SOL    HW140768  10.700   9.866   1.635
12957SOL    HW240769  10.565   9.901   1.695
12958SOL     OW40770  12.450   5.028  10.813
12958SOL    HW140771  12.512   5.101  10.809
12958SOL    HW240772  12.372   5.061  10.768
12959SOL     OW40773  11.619   0.451   1.418
12959SOL    HW140774  11.633   0.358   1.404
12959SOL    HW240775  11.524   0.463   1.412
12960SOL     OW40776  11.540   5.855   8.932
12960SOL    HW140777  11.500   5.886   8.850
12960SOL    HW240778  11.511   5.764   8.940
12961SOL     OW40779  14.434   9.377   4.976
12961SOL    HW140780  14.443   9.283   4.964
12961SOL    HW240781  14.492   9.398   5.050
12962SOL     OW40782   2.615   0.041  13.382
12962SOL    HW140783   2.534   0.068  13.425
12962SOL    HW240784   2.608   0.074  13.292
12963SOL     OW40785  10.279  11.601  13.053
12963SOL    HW140786  10.230  11.539  13.001
12963SOL    HW240787  10.371  11.585  13.030
12964SOL     OW40788   6.057   7.531  10.678
12964SOL    HW140789   6.148   7.509  10.698
12964SOL    HW240790   6.013   7.447  10.669
12965SOL     OW40791   7.796   0.089   9.219
12965SOL    HW140792   7.736   0.155   9.183
12965SOL    HW240793   7.883   0.118   9.191
12966SOL     OW40794  11.778  12.162   5.016
12966SOL    HW140795  11.791  12.245   5.063
12966SOL    HW240796  11.765  12.188   4.925
12967SOL     OW40797   5.483  14.844  13.026
12967SOL    HW140798   5.527   0.060  13.042
12967SOL    HW240799   5.413  14.841  13.091
12968SOL     OW40800   7.443   3.571   9.107
12968SOL    HW140801   7.528   3.531   9.088
12968SOL    HW240802   7.384   3.536   9.040
12969SOL     OW40803   8.167  14.336   7.977
12969SOL    HW140804   8.166  14.332   7.881
12969SOL    HW240805   8.259  14.350   8.000
12970SOL     OW40806   7.364  10.919   8.603
12970SOL    HW140807   7.345  10.985   8.670
12970SOL    HW240808   7.395  10.843   8.652
12971SOL     OW40809   5.430  13.504   5.306
12971SOL    HW140810   5.372  13.573   5.339
12971SOL    HW240811   5.458  13.535   5.220
12972SOL     OW40812   7.968  12.030   2.652
12972SOL    HW140813   7.874  12.015   2.662
12972SOL    HW240814   7.987  12.008   2.561
12973SOL     OW40815  10.127   1.415   3.580
12973SOL    HW140816  10.094   1.504   3.564
12973SOL    HW240817  10.203   1.428   3.637
12974SOL     OW40818  10.537   0.934   9.600
12974SOL    HW140819  10.448   0.960   9.624
12974SOL    HW240820  10.546   0.959   9.508
12975SOL     OW40821   4.805  10.817   5.292
12975SOL    HW140822   4.816  10.912   5.295
12975SOL    HW240823   4.778  10.799   5.202
12976SOL     OW40824   3.904   8.579   1.703
12976SOL    HW140825   3.961   8.524   1.758
12976SOL    HW240826   3.961   8.607   1.631
12977SOL     OW40827   1.048   0.040  10.149
12977SOL    HW140828   1.144   0.040  10.146
12977SOL    HW240829   1.025  14.824  10.190
12978SOL     OW40830   6.883   7.844   0.871
12978SOL    HW140831   6.873   7.771   0.932
12978SOL    HW240832   6.804   7.841   0.816
12979SOL     OW40833  11.141  10.049   4.451
12979SOL    HW140834  11.127  10.003   4.369
12979SOL    HW240835  11.187   9.986   4.507
12980SOL     OW40836   2.063   9.346   3.243
12980SOL    HW140837   2.112   9.274   3.284
12980SOL    HW240838   2.099   9.425   3.281
12981SOL     OW40839  12.830   8.322  10.982
12981SOL    HW140840  12.921   8.348  10.963
12981SOL    HW240841  12.789   8.315  10.895
12982SOL     OW40842  10.346   0.272   5.802
12982SOL    HW140843  10.374   0.329   5.730
12982SOL    HW240844  10.419   0.274   5.864
12983SOL     OW40845  14.643  12.202   9.114
12983SOL    HW140846  14.588  12.174   9.186
12983SOL    HW240847  14.628  12.297   9.108
12984SOL     OW40848   9.418   3.099  10.349
12984SOL    HW140849   9.484   3.032  10.330
12984SOL    HW240850   9.424   3.161  10.277
12985SOL     OW40851   7.525   4.912  12.128
12985SOL    HW140852   7.597   4.870  12.175
12985SOL    HW240853   7.563   4.937  12.044
12986SOL     OW40854  10.649   5.991   8.628
12986SOL    HW140855  10.708   6.065   8.615
12986SOL    HW240856  10.562   6.030   8.635
12987SOL     OW40857  11.893  13.402   2.406
12987SOL    HW140858  11.880  13.484   2.358
12987SOL    HW240859  11.894  13.428   2.498
12988SOL     OW40860  12.852   2.901  14.479
12988SOL    HW140861  12.818   2.863  14.398
12988SOL    HW240862  12.900   2.979  14.451
12989SOL     OW40863   1.767  14.529  12.006
12989SOL    HW140864   1.795  14.506  11.917
12989SOL    HW240865   1.828  14.481  12.063
12990SOL     OW40866  11.831   3.142   6.397
12990SOL    HW140867  11.771   3.098   6.337
12990SOL    HW240868  11.911   3.091   6.394
12991SOL     OW40869   0.370  11.856   1.791
12991SOL    HW140870   0.433  11.927   1.805
12991SOL    HW240871   0.413  11.778   1.827
12992SOL     OW40872   2.471  14.304   5.192
12992SOL    HW140873   2.500  14.246   5.262
12992SOL    HW240874   2.432  14.245   5.127
12993SOL     OW40875   9.917   7.371  10.912
12993SOL    HW140876   9.982   7.348  10.845
12993SOL    HW240877   9.969   7.405  10.985
12994SOL     OW40878   8.072  11.702   7.093
12994SOL    HW140879   8.144  11.682   7.153
12994SOL    HW240880   7.993  11.680   7.142
12995SOL     OW40881   3.208   9.832   4.279
12995SOL    HW140882   3.189   9.907   4.222
12995SOL    HW240883   3.236   9.763   4.218
12996SOL     OW40884   9.628   2.806   4.110
12996SOL    HW140885   9.598   2.823   4.021
12996SOL    HW240886   9.673   2.887   4.136
12997SOL     OW40887   0.560   8.394   6.740
12997SOL    HW140888   0.651   8.375   6.717
12997SOL    HW240889   0.509   8.352   6.671
12998SOL     OW40890  13.919   1.792   0.595
12998SOL    HW140891  13.932   1.700   0.617
12998SOL    HW240892  13.889   1.832   0.677
12999SOL     OW40893  13.229   2.418  10.696
12999SOL    HW140894  13.296   2.452  10.636
12999SOL    HW240895  13.209   2.492  10.753
13000SOL     OW40896   8.863   8.251  12.246
13000SOL    HW140897   8.886   8.173  12.295
13000SOL    HW240898   8.813   8.218  12.171
13001SOL     OW40899   8.370   3.685  10.457
13001SOL    HW140900   8.449   3.653  10.501
13001SOL    HW240901   8.351   3.768  10.500
13002SOL     OW40902  11.535  13.378   8.731
13002SOL    HW140903  11.574  13.328   8.803
13002SOL    HW240904  11.441  13.380   8.752
13003SOL     OW40905   7.086   8.331  14.370
13003SOL    HW140906   7.114   8.246  14.336
13003SOL    HW240907   7.168   8.376  14.392
13004SOL     OW40908   4.303   1.363   0.460
13004SOL    HW140909   4.242   1.341   0.389
13004SOL    HW240910   4.285   1.298   0.528
13005SOL     OW40911   8.214  10.432   0.256
13005SOL    HW140912   8.160  10.486   0.198
13005SOL    HW240913   8.297  10.423   0.210
13006SOL     OW40914   1.727   3.910  10.150
13006SOL    HW140915   1.751   3.822  10.121
13006SOL    HW240916   1.794   3.968  10.112
13007SOL     OW40917   0.365   9.269   4.408
13007SOL    HW140918   0.393   9.245   4.496
13007SOL    HW240919   0.373   9.364   4.405
13008SOL     OW40920   3.675   8.278   8.097
13008SOL    HW140921   3.582   8.284   8.121
13008SOL    HW240922   3.711   8.214   8.159
13009SOL     OW40923   4.294  14.332   9.397
13009SOL    HW140924   4.377  14.376   9.416
13009SOL    HW240925   4.312  14.239   9.408
13010SOL     OW40926   6.618   0.996  10.718
13010SOL    HW140927   6.634   1.074  10.771
13010SOL    HW240928   6.662   1.015  10.635
13011SOL     OW40929  14.849  14.471   1.188
13011SOL    HW140930  14.755  14.455   1.201
13011SOL    HW240931  14.857  14.491   1.095
13012SOL     OW40932  14.856  10.235   4.431
13012SOL    HW140933   0.003  10.169   4.364
13012SOL    HW240934  14.839  10.185   4.511
13013SOL     OW40935  14.007   0.369   9.283
13013SOL    HW140936  13.919   0.350   9.250
13013SOL    HW240937  14.009   0.464   9.294
13014SOL     OW40938   3.772  12.541  12.327
13014SOL    HW140939   3.678  12.538  12.307
13014SOL    HW240940   3.786  12.467  12.386
13015SOL     OW40941  11.756   4.763   3.714
13015SOL    HW140942  11.676   4.719   3.742
13015SOL    HW240943  11.777   4.723   3.630
13016SOL     OW40944   4.845   0.372   3.727
13016SOL    HW140945   4.781   0.334   3.668
13016SOL    HW240946   4.842   0.317   3.805
13017SOL     OW40947   3.511   2.579   0.162
13017SOL    HW140948   3.428   2.599   0.121
13017SOL    HW240949   3.534   2.492   0.130
13018SOL     OW40950   7.753   9.982   0.239
13018SOL    HW140951   7.825  10.044   0.222
13018SOL    HW240952   7.796   9.906   0.278
13019SOL     OW40953  12.423   3.567   8.387
13019SOL    HW140954  12.435   3.594   8.478
13019SOL    HW240955  12.331   3.540   8.381
13020SOL     OW40956   2.863   9.788   4.163
13020SOL    HW140957   2.787   9.771   4.217
13020SOL    HW240958   2.926   9.720   4.187
13021SOL     OW40959   9.030   1.360  12.301
13021SOL    HW140960   8.997   1.280  12.260
13021SOL    HW240961   9.018   1.427  12.234
13022SOL     OW40962   1.827  13.645   9.053
13022SOL    HW140963   1.807  13.611   9.140
13022SOL    HW240964   1.774  13.725   9.046
13023SOL     OW40965   8.253   3.261   9.908
13023SOL    HW140966   8.258   3.354   9.926
13023SOL    HW240967   8.316   3.247   9.836
13024SOL     OW40968   9.201   1.524  11.274
13024SOL    HW140969   9.198   1.619  11.285
13024SOL    HW240970   9.147   1.507  11.197
13025SOL     OW40971   6.999  11.467   1.509
13025SOL    HW140972   6.920  11.521   1.520
13025SOL    HW240973   7.004  11.451   1.415
13026SOL     OW40974   4.075   7.361   5.863
13026SOL    HW140975   4.150   7.334   5.810
13026SOL    HW240976   4.004   7.302   5.836
13027SOL     OW40977  11.254   0.009   3.294
13027SOL    HW140978  11.278   0.027   3.203
13027SOL    HW240979  11.251  14.781   3.300
13028SOL     OW40980   6.547  10.845  13.961
13028SOL    HW140981   6.619  10.867  14.020
13028SOL    HW240982   6.536  10.923  13.907
13029SOL     OW40983   3.622   2.169  12.274
13029SOL    HW140984   3.702   2.173  12.325
13029SOL    HW240985   3.651   2.159  12.183
13030SOL     OW40986  13.265   5.861  13.446
13030SOL    HW140987  13.223   5.903  13.521
13030SOL    HW240988  13.284   5.934  13.386
13031SOL     OW40989  13.276  13.249   8.724
13031SOL    HW140990  13.251  13.321   8.782
13031SOL    HW240991  13.338  13.288   8.662
13032SOL     OW40992   5.805   7.960   2.975
13032SOL    HW140993   5.783   7.925   3.061
13032SOL    HW240994   5.879   7.907   2.945
13033SOL     OW40995  11.872   6.463  11.752
13033SOL    HW140996  11.839   6.393  11.696
13033SOL    HW240997  11.846   6.544  11.708
13034SOL     OW40998  10.674   0.887   8.214
13034SOL    HW140999  10.675   0.791   8.211
13034SOL    HW241000  10.658   0.908   8.305
13035SOL     OW41001   0.054   7.190   0.637
13035SOL    HW141002  14.867   7.113   0.620
13035SOL    HW241003   0.099   7.206   0.555
13036SOL     OW41004   4.570   4.068  13.907
13036SOL    HW141005   4.626   4.113  13.970
13036SOL    HW241006   4.588   4.111  13.824
13037SOL     OW41007   9.296   9.745  12.949
13037SOL    HW141008   9.306   9.733  12.854
13037SOL    HW241009   9.290   9.656  12.984
13038SOL     OW41010   0.153   7.057  12.201
13038SOL    HW141011   0.237   7.035  12.241
13038SOL    HW241012   0.116   7.125  12.257
13039SOL     OW41013   2.651  13.754  13.932
13039SOL    HW141014   2.580  13.709  13.978
13039SOL    HW241015   2.623  13.846  13.929
13040SOL     OW41016   0.936   0.504  13.111
13040SOL    HW141017   0.932   0.462  13.197
13040SOL    HW241018   0.902   0.592  13.126
13041SOL     OW41019   6.489   6.782   8.526
13041SOL    HW141020   6.519   6.823   8.607
13041SOL    HW241021   6.441   6.704   8.556
13042SOL     OW41022  12.241   9.601   2.542
13042SOL    HW141023  12.234   9.535   2.472
13042SOL    HW241024  12.288   9.557   2.612
13043SOL     OW41025   2.647  11.715   3.589
13043SOL    HW141026   2.584  11.649   3.617
13043SOL    HW241027   2.709  11.666   3.535
13044SOL     OW41028   2.122   4.719  12.362
13044SOL    HW141029   2.211   4.751  12.381
13044SOL    HW241030   2.066   4.795  12.380
13045SOL     OW41031   5.744   4.962   8.023
13045SOL    HW141032   5.672   5.025   8.026
13045SOL    HW241033   5.743   4.929   7.934
13046SOL     OW41034  13.468  10.524   5.615
13046SOL    HW141035  13.468  10.522   5.710
13046SOL    HW241036  13.560  10.530   5.590
13047SOL     OW41037   3.829   3.562   6.757
13047SOL    HW141038   3.832   3.650   6.793
13047SOL    HW241039   3.910   3.520   6.788
13048SOL     OW41040   3.972  12.731   3.031
13048SOL    HW141041   3.879  12.751   3.018
13048SOL    HW241042   3.986  12.741   3.125
13049SOL     OW41043  14.733  12.927  13.659
13049SOL    HW141044  14.691  12.965  13.736
13049SOL    HW241045  14.744  12.834  13.681
13050SOL     OW41046  10.377   1.478   7.203
13050SOL    HW141047  10.374   1.554   7.261
13050SOL    HW241048  10.292   1.435   7.214
13051SOL     OW41049   6.037   0.289   8.746
13051SOL    HW141050   6.052   0.212   8.800
13051SOL    HW241051   6.106   0.286   8.680
13052SOL     OW41052  11.000  11.870   1.171
13052SOL    HW141053  11.014  11.953   1.217
13052SOL    HW241054  11.063  11.871   1.100
13053SOL     OW41055   1.418   9.341  12.229
13053SOL    HW141056   1.505   9.369  12.201
13053SOL    HW241057   1.434   9.281  12.302
13054SOL     OW41058  12.921   1.150   2.880
13054SOL    HW141059  12.845   1.144   2.822
13054SOL    HW241060  12.938   1.059   2.906
13055SOL     OW41061   1.774   9.818  10.910
13055SOL    HW141062   1.781   9.887  10.844
13055SOL    HW241063   1.773   9.865  10.994
13056SOL     OW41064  10.524   7.897   0.950
13056SOL    HW141065  10.557   7.918   0.863
13056SOL    HW241066  10.579   7.824   0.979
13057SOL     OW41067   1.968   3.556   1.060
13057SOL    HW141068   1.920   3.621   1.007
13057SOL    HW241069   1.915   3.477   1.054
13058SOL     OW41070  12.422   0.265  12.029
13058SOL    HW141071  12.339   0.241  12.070
13058SOL    HW241072  12.473   0.184  12.029
13059SOL     OW41073   5.558   1.468  11.036
13059SOL    HW141074   5.558   1.464  11.132
13059SOL    HW241075   5.644   1.504  11.013
13060SOL     OW41076   8.941   9.085   5.502
13060SOL    HW141077   8.970   9.123   5.586
13060SOL    HW241078   9.003   9.120   5.438
13061SOL     OW41079   3.098  14.221   4.240
13061SOL    HW141080   3.092  14.240   4.334
13061SOL    HW241081   3.008  14.235   4.208
13062SOL     OW41082   6.136  14.106  14.836
13062SOL    HW141083   6.152  14.187   0.017
13062SOL    HW241084   6.139  14.132  14.744
13063SOL     OW41085  13.110   5.248  11.692
13063SOL    HW141086  13.062   5.251  11.610
13063SOL    HW241087  13.063   5.308  11.750
13064SOL     OW41088   4.396   3.495   5.874
13064SOL    HW141089   4.411   3.404   5.850
13064SOL    HW241090   4.321   3.492   5.933
13065SOL     OW41091   1.340  14.842   8.721
13065SOL    HW141092   1.355  14.765   8.666
13065SOL    HW241093   1.303   0.039   8.661
13066SOL     OW41094   9.440   0.863   9.740
13066SOL    HW141095   9.376   0.885   9.672
13066SOL    HW241096   9.395   0.799   9.795
13067SOL     OW41097  12.165   9.729   5.966
13067SOL    HW141098  12.256   9.712   5.991
13067SOL    HW241099  12.139   9.803   6.021
13068SOL     OW41100   0.146   5.152   1.854
13068SOL    HW141101   0.203   5.212   1.805
13068SOL    HW241102   0.085   5.118   1.788
13069SOL     OW41103   0.426   0.159   2.633
13069SOL    HW141104   0.423   0.242   2.585
13069SOL    HW241105   0.514   0.157   2.673
13070SOL     OW41106   8.144  12.612   1.332
13070SOL    HW141107   8.145  12.679   1.263
13070SOL    HW241108   8.174  12.658   1.410
13071SOL     OW41109   4.759   0.248  12.674
13071SOL    HW141110   4.693   0.217  12.612
13071SOL    HW241111   4.719   0.238  12.760
13072SOL     OW41112   9.443   5.743   7.054
13072SOL    HW141113   9.430   5.674   6.989
13072SOL    HW241114   9.498   5.704   7.122
13073SOL     OW41115   8.870   2.943   5.869
13073SOL    HW141116   8.916   2.897   5.940
13073SOL    HW241117   8.777   2.931   5.890
13074SOL     OW41118   7.744   3.300   0.902
13074SOL    HW141119   7.798   3.225   0.878
13074SOL    HW241120   7.664   3.288   0.850
13075SOL     OW41121   6.256  11.174  12.555
13075SOL    HW141122   6.198  11.250  12.548
13075SOL    HW241123   6.315  11.195  12.627
13076SOL     OW41124   2.563  14.790  14.021
13076SOL    HW141125   2.471  14.773  14.045
13076SOL    HW241126   2.592  14.856  14.084
13077SOL     OW41127  11.439  10.044  13.177
13077SOL    HW141128  11.431  10.058  13.272
13077SOL    HW241129  11.375   9.976  13.157
13078SOL     OW41130   8.319   8.150   1.302
13078SOL    HW141131   8.292   8.237   1.332
13078SOL    HW241132   8.291   8.147   1.211
13079SOL     OW41133   7.656   4.349   6.958
13079SOL    HW141134   7.600   4.271   6.952
13079SOL    HW241135   7.595   4.422   6.948
13080SOL     OW41136  11.074   6.667   1.190
13080SOL    HW141137  11.153   6.709   1.156
13080SOL    HW241138  11.040   6.730   1.254
13081SOL     OW41139   1.099  13.521  12.520
13081SOL    HW141140   1.013  13.555  12.544
13081SOL    HW241141   1.108  13.541  12.427
13082SOL     OW41142   5.214  10.844  10.135
13082SOL    HW141143   5.304  10.876  10.139
13082SOL    HW241144   5.178  10.865  10.221
13083SOL     OW41145   2.336   7.628   7.596
13083SOL    HW141146   2.334   7.723   7.588
13083SOL    HW241147   2.247   7.605   7.624
13084SOL     OW41148   8.995   7.085   8.535
13084SOL    HW141149   8.971   7.178   8.527
13084SOL    HW241150   8.914   7.038   8.513
13085SOL     OW41151  11.845   8.783   6.039
13085SOL    HW141152  11.762   8.742   6.012
13085SOL    HW241153  11.818   8.866   6.079
13086SOL     OW41154   2.690   9.452   5.278
13086SOL    HW141155   2.768   9.402   5.303
13086SOL    HW241156   2.660   9.409   5.198
13087SOL     OW41157  10.157  14.468  11.320
13087SOL    HW141158  10.215  14.543  11.308
13087SOL    HW241159  10.214  14.392  11.310
13088SOL     OW41160   6.324   3.583   4.173
13088SOL    HW141161   6.347   3.657   4.118
13088SOL    HW241162   6.303   3.513   4.112
13089SOL     OW41163   5.936   0.966   4.344
13089SOL    HW141164   5.952   1.057   4.367
13089SOL    HW241165   5.846   0.950   4.373
13090SOL     OW41166   2.288  14.171  10.589
13090SOL    HW141167   2.334  14.228  10.651
13090SOL    HW241168   2.358  14.127  10.540
13091SOL     OW41169   3.932  12.975   8.815
13091SOL    HW141170   3.903  13.042   8.753
13091SOL    HW241171   4.027  12.987   8.820
13092SOL     OW41172   7.131  13.843   4.260
13092SOL    HW141173   7.157  13.862   4.350
13092SOL    HW241174   7.058  13.782   4.268
13093SOL     OW41175  12.310   4.620  10.984
13093SOL    HW141176  12.390   4.659  10.948
13093SOL    HW241177  12.246   4.628  10.913
13094SOL     OW41178   8.197   1.029   3.913
13094SOL    HW141179   8.209   0.934   3.908
13094SOL    HW241180   8.247   1.064   3.839
13095SOL     OW41181   2.248   1.815   4.374
13095SOL    HW141182   2.221   1.732   4.333
13095SOL    HW241183   2.327   1.840   4.325
13096SOL     OW41184   0.204  14.689  13.326
13096SOL    HW141185   0.248  14.755  13.379
13096SOL    HW241186   0.115  14.687  13.359
13097SOL     OW41187  10.322   6.383   9.336
13097SOL    HW141188  10.248   6.428   9.375
13097SOL    HW241189  10.333   6.304   9.388
13098SOL     OW41190  11.515   8.429  12.819
13098SOL    HW141191  11.579   8.493  12.853
13098SOL    HW241192  11.539   8.347  12.861
13099SOL     OW41193   1.707  13.804   0.815
13099SOL    HW141194   1.654  13.775   0.888
13099SOL    HW241195   1.694  13.899   0.812
13100SOL     OW41196  12.189   1.022   3.850
13100SOL    HW141197  12.170   1.088   3.916
13100SOL    HW241198  12.282   1.032   3.832
13101SOL     OW41199   2.722   8.744   8.895
13101SOL    HW141200   2.814   8.720   8.906
13101SOL    HW241201   2.682   8.665   8.858
13102SOL     OW41202   8.660   7.226  14.140
13102SOL    HW141203   8.647   7.172  14.218
13102SOL    HW241204   8.726   7.290  14.166
13103SOL     OW41205   0.968  11.144   5.677
13103SOL    HW141206   0.963  11.231   5.717
13103SOL    HW241207   1.030  11.096   5.731
13104SOL     OW41208  14.691  10.655  10.461
13104SOL    HW141209  14.691  10.586  10.528
13104SOL    HW241210  14.676  10.609  10.379
13105SOL     OW41211   2.912  12.381  11.244
13105SOL    HW141212   2.926  12.475  11.242
13105SOL    HW241213   2.839  12.366  11.184
13106SOL     OW41214  14.461   2.839  11.096
13106SOL    HW141215  14.412   2.865  11.174
13106SOL    HW241216  14.552   2.857  11.118
13107SOL     OW41217  12.584  14.574   2.939
13107SOL    HW141218  12.533  14.626   2.877
13107SOL    HW241219  12.582  14.485   2.904
13108SOL     OW41220   0.267   3.231   2.624
13108SOL    HW141221   0.337   3.186   2.670
13108SOL    HW241222   0.230   3.290   2.690
13109SOL     OW41223   5.257  11.118   6.161
13109SOL    HW141224   5.249  11.213   6.173
13109SOL    HW241225   5.174  11.092   6.123
13110SOL     OW41226   6.946  11.953   8.435
13110SOL    HW141227   6.854  11.962   8.460
13110SOL    HW241228   6.992  11.941   8.518
13111SOL     OW41229   2.651   6.325   2.585
13111SOL    HW141230   2.713   6.338   2.513
13111SOL    HW241231   2.699   6.271   2.648
13112SOL     OW41232   1.698  10.486   3.769
13112SOL    HW141233   1.660  10.519   3.687
13112SOL    HW241234   1.623  10.454   3.819
13113SOL     OW41235   2.434  10.742  12.941
13113SOL    HW141236   2.472  10.681  12.878
13113SOL    HW241237   2.364  10.692  12.983
13114SOL     OW41238   4.510  10.883   1.891
13114SOL    HW141239   4.504  10.978   1.888
13114SOL    HW241240   4.462  10.858   1.970
13115SOL     OW41241  10.969   7.974   7.225
13115SOL    HW141242  10.893   8.029   7.206
13115SOL    HW241243  10.965   7.904   7.159
13116SOL     OW41244   7.787   5.178  12.028
13116SOL    HW141245   7.744   5.219  12.102
13116SOL    HW241246   7.716   5.141  11.976
13117SOL     OW41247   9.986  12.776   5.594
13117SOL    HW141248   9.976  12.850   5.534
13117SOL    HW241249   9.939  12.704   5.551
13118SOL     OW41250   3.601   7.561   8.468
13118SOL    HW141251   3.506   7.557   8.457
13118SOL    HW241252   3.633   7.605   8.389
13119SOL     OW41253   8.012   6.027   9.260
13119SOL    HW141254   8.086   6.064   9.308
13119SOL    HW241255   8.046   5.948   9.219
13120SOL     OW41256   7.572   9.124   1.714
13120SOL    HW141257   7.532   9.210   1.703
13120SOL    HW241258   7.514   9.064   1.665
13121SOL     OW41259   1.774   4.503  13.417
13121SOL    HW141260   1.776   4.500  13.513
13121SOL    HW241261   1.730   4.585  13.397
13122SOL     OW41262   3.968   3.238  13.784
13122SOL    HW141263   3.927   3.325  13.787
13122SOL    HW241264   3.973   3.212  13.876
13123SOL     OW41265   2.591   8.877   5.230
13123SOL    HW141266   2.656   8.868   5.300
13123SOL    HW241267   2.513   8.908   5.275
13124SOL     OW41268   9.409   5.658  12.445
13124SOL    HW141269   9.368   5.624  12.366
13124SOL    HW241270   9.345   5.719  12.482
13125SOL     OW41271  14.286   4.589   7.326
13125SOL    HW141272  14.264   4.496   7.330
13125SOL    HW241273  14.273   4.613   7.234
13126SOL     OW41274   0.898   1.207  10.691
13126SOL    HW141275   0.957   1.153  10.639
13126SOL    HW241276   0.813   1.163  10.682
13127SOL     OW41277  10.282   6.542  10.676
13127SOL    HW141278  10.368   6.553  10.716
13127SOL    HW241279  10.296   6.483  10.602
13128SOL     OW41280  13.290   7.800   4.796
13128SOL    HW141281  13.260   7.764   4.713
13128SOL    HW241282  13.225   7.866   4.820
13129SOL     OW41283   3.531   5.590   7.040
13129SOL    HW141284   3.574   5.510   7.010
13129SOL    HW241285   3.586   5.621   7.111
13130SOL     OW41286   2.897   6.401   6.483
13130SOL    HW141287   2.963   6.340   6.516
13130SOL    HW241288   2.872   6.453   6.559
13131SOL     OW41289  11.045   1.364   9.549
13131SOL    HW141290  11.103   1.292   9.523
13131SOL    HW241291  10.977   1.322   9.601
13132SOL     OW41292  11.686   4.595   0.224
13132SOL    HW141293  11.615   4.635   0.274
13132SOL    HW241294  11.658   4.603   0.133
13133SOL     OW41295  12.454   0.577  11.258
13133SOL    HW141296  12.474   0.581  11.165
13133SOL    HW241297  12.495   0.655  11.295
13134SOL     OW41298  12.531   7.188   1.091
13134SOL    HW141299  12.560   7.190   1.000
13134SOL    HW241300  12.610   7.172   1.142
13135SOL     OW41301   8.542   4.654   6.769
13135SOL    HW141302   8.449   4.678   6.763
13135SOL    HW241303   8.586   4.714   6.708
13136SOL     OW41304   6.952   2.579   8.640
13136SOL    HW141305   6.995   2.662   8.659
13136SOL    HW241306   6.864   2.602   8.612
13137SOL     OW41307   3.916  11.047   7.443
13137SOL    HW141308   3.914  10.985   7.516
13137SOL    HW241309   3.900  10.993   7.365
13138SOL     OW41310  14.329  12.934   1.726
13138SOL    HW141311  14.400  12.874   1.701
13138SOL    HW241312  14.371  13.019   1.733
13139SOL     OW41313  10.688  14.771   1.636
13139SOL    HW141314  10.705  14.786   1.729
13139SOL    HW241315  10.774  14.751   1.599
13140SOL     OW41316  12.861  12.747   0.339
13140SOL    HW141317  12.796  12.751   0.268
13140SOL    HW241318  12.933  12.696   0.303
13141SOL     OW41319  11.816  10.962  11.537
13141SOL    HW141320  11.849  10.975  11.626
13141SOL    HW241321  11.721  10.954  11.548
13142SOL     OW41322   8.537  12.641   2.801
13142SOL    HW141323   8.500  12.564   2.759
13142SOL    HW241324   8.474  12.665   2.868
13143SOL     OW41325   2.052   6.570  14.113
13143SOL    HW141326   2.025   6.479  14.129
13143SOL    HW241327   2.098   6.566  14.029
13144SOL     OW41328   6.466  13.003   8.755
13144SOL    HW141329   6.540  12.960   8.798
13144SOL    HW241330   6.469  13.093   8.786
13145SOL     OW41331   4.550   3.528   5.455
13145SOL    HW141332   4.509   3.575   5.382
13145SOL    HW241333   4.511   3.440   5.451
13146SOL     OW41334  10.149   2.395   2.361
13146SOL    HW141335  10.117   2.321   2.308
13146SOL    HW241336  10.165   2.465   2.298
13147SOL     OW41337  10.226   3.055   8.829
13147SOL    HW141338  10.177   3.051   8.747
13147SOL    HW241339  10.264   3.142   8.831
13148SOL     OW41340  13.123  13.188   3.332
13148SOL    HW141341  13.067  13.155   3.262
13148SOL    HW241342  13.080  13.160   3.413
13149SOL     OW41343   6.056  11.065   1.939
13149SOL    HW141344   6.104  10.982   1.933
13149SOL    HW241345   6.018  11.063   2.028
13150SOL     OW41346   9.253   7.719  11.078
13150SOL    HW141347   9.243   7.780  11.150
13150SOL    HW241348   9.298   7.644  11.116
13151SOL     OW41349   2.122   1.850   9.039
13151SOL    HW141350   2.197   1.867   9.096
13151SOL    HW241351   2.078   1.774   9.079
13152SOL     OW41352   3.620   8.557   9.077
13152SOL    HW141353   3.595   8.485   9.134
13152SOL    HW241354   3.587   8.635   9.122
13153SOL     OW41355   2.638   6.568  10.539
13153SOL    HW141356   2.571   6.501  10.527
13153SOL    HW241357   2.599   6.630  10.601
13154SOL     OW41358   6.802   1.984   0.847
13154SOL    HW141359   6.876   1.936   0.809
13154SOL    HW241360   6.727   1.957   0.794
13155SOL     OW41361  13.028   8.975  13.138
13155SOL    HW141362  13.060   9.065  13.134
13155SOL    HW241363  13.104   8.923  13.162
13156SOL     OW41364   4.607   8.843  14.835
13156SOL    HW141365   4.597   8.770  14.774
13156SOL    HW241366   4.616   8.920  14.780
13157SOL     OW41367   4.906   1.893  10.465
13157SOL    HW141368   4.922   1.861  10.376
13157SOL    HW241369   4.878   1.984  10.453
13158SOL     OW41370   8.201   0.536   3.259
13158SOL    HW141371   8.106   0.531   3.259
13158SOL    HW241372   8.230   0.444   3.255
13159SOL     OW41373   1.102   8.596  10.434
13159SOL    HW141374   1.080   8.639  10.351
13159SOL    HW241375   1.018   8.572  10.472
13160SOL     OW41376  14.692   6.906  13.734
13160SOL    HW141377  14.606   6.863  13.736
13160SOL    HW241378  14.679   6.987  13.784
13161SOL     OW41379   2.587  10.711   2.571
13161SOL    HW141380   2.661  10.652   2.585
13161SOL    HW241381   2.521  10.657   2.528
13162SOL     OW41382   0.757   5.174  11.007
13162SOL    HW141383   0.841   5.220  11.006
13162SOL    HW241384   0.698   5.232  11.056
13163SOL     OW41385   4.970  11.194   9.249
13163SOL    HW141386   4.888  11.222   9.208
13163SOL    HW241387   5.023  11.164   9.175
13164SOL     OW41388  11.306  10.930  11.589
13164SOL    HW141389  11.250  10.929  11.512
13164SOL    HW241390  11.245  10.931  11.663
13165SOL     OW41391  13.808  11.465  12.122
13165SOL    HW141392  13.760  11.389  12.154
13165SOL    HW241393  13.888  11.429  12.083
13166SOL     OW41394  12.415  12.756   8.166
13166SOL    HW141395  12.478  12.699   8.121
13166SOL    HW241396  12.454  12.843   8.161
13167SOL     OW41397   0.266   6.562   3.945
13167SOL    HW141398   0.326   6.493   3.972
13167SOL    HW241399   0.322   6.629   3.906
13168SOL     OW41400   1.894   2.155   8.424
13168SOL    HW141401   1.979   2.146   8.383
13168SOL    HW241402   1.837   2.094   8.377
13169SOL     OW41403   6.595  10.198   8.913
13169SOL    HW141404   6.562  10.280   8.950
13169SOL    HW241405   6.686  10.193   8.940
13170SOL     OW41406  14.238   7.994   5.029
13170SOL    HW141407  14.168   8.055   5.004
13170SOL    HW241408  14.211   7.960   5.114
13171SOL     OW41409   8.891   2.619  13.835
13171SOL    HW141410   8.949   2.584  13.767
13171SOL    HW241411   8.823   2.666  13.787
13172SOL     OW41412  13.966   9.256   4.559
13172SOL    HW141413  13.985   9.200   4.634
13172SOL    HW241414  13.873   9.242   4.541
13173SOL     OW41415   1.355  11.598   5.753
13173SOL    HW141416   1.400  11.662   5.808
13173SOL    HW241417   1.272  11.583   5.798
13174SOL     OW41418  10.280   8.939   9.060
13174SOL    HW141419  10.302   8.876   8.990
13174SOL    HW241420  10.286   8.888   9.140
13175SOL     OW41421  10.622   9.900   1.356
13175SOL    HW141422  10.619   9.909   1.451
13175SOL    HW241423  10.708   9.861   1.338
13176SOL     OW41424   9.890   9.695   0.176
13176SOL    HW141425   9.803   9.660   0.157
13176SOL    HW241426   9.945   9.618   0.190
13177SOL     OW41427   5.830  12.495  12.433
13177SOL    HW141428   5.915  12.462  12.463
13177SOL    HW241429   5.845  12.589  12.418
13178SOL     OW41430  12.213   6.834   1.755
13178SOL    HW141431  12.191   6.768   1.822
13178SOL    HW241432  12.133   6.842   1.703
13179SOL     OW41433  11.825   1.236   4.323
13179SOL    HW141434  11.917   1.259   4.307
13179SOL    HW241435  11.799   1.187   4.244
13180SOL     OW41436   1.024   6.456   6.553
13180SOL    HW141437   0.946   6.409   6.524
13180SOL    HW241438   1.091   6.432   6.488
13181SOL     OW41439   8.038   0.958  10.738
13181SOL    HW141440   7.954   0.953  10.785
13181SOL    HW241441   8.033   0.886  10.674
13182SOL     OW41442  12.898   5.871  12.720
13182SOL    HW141443  12.911   5.872  12.625
13182SOL    HW241444  12.867   5.783  12.739
13183SOL     OW41445   3.661  14.396   9.333
13183SOL    HW141446   3.634  14.312   9.295
13183SOL    HW241447   3.733  14.425   9.277
13184SOL     OW41448  11.789  12.578   5.978
13184SOL    HW141449  11.744  12.571   6.062
13184SOL    HW241450  11.854  12.647   5.992
13185SOL     OW41451   6.498  12.462   4.782
13185SOL    HW141452   6.527  12.509   4.860
13185SOL    HW241453   6.580  12.433   4.741
13186SOL     OW41454   9.135  13.635   4.373
13186SOL    HW141455   9.040  13.638   4.381
13186SOL    HW241456   9.153  13.562   4.314
13187SOL     OW41457   8.459   9.395   2.870
13187SOL    HW141458   8.521   9.398   2.943
13187SOL    HW241459   8.435   9.487   2.855
13188SOL     OW41460   5.771   9.272   2.666
13188SOL    HW141461   5.720   9.239   2.592
13188SOL    HW241462   5.831   9.335   2.628
13189SOL     OW41463   6.159   1.730   3.175
13189SOL    HW141464   6.164   1.711   3.082
13189SOL    HW241465   6.071   1.700   3.201
13190SOL     OW41466   8.797   4.159  13.042
13190SOL    HW141467   8.867   4.142  12.980
13190SOL    HW241468   8.716   4.145  12.993
13191SOL     OW41469   4.399  10.492   0.588
13191SOL    HW141470   4.469  10.485   0.523
13191SOL    HW241471   4.385  10.402   0.618
13192SOL     OW41472   3.961   2.453  10.284
13192SOL    HW141473   4.027   2.445  10.214
13192SOL    HW241474   4.005   2.503  10.352
13193SOL     OW41475   4.977   8.021   3.606
13193SOL    HW141476   4.970   7.985   3.695
13193SOL    HW241477   5.067   8.053   3.600
13194SOL     OW41478   8.136   3.475   2.309
13194SOL    HW141479   8.084   3.541   2.354
13194SOL    HW241480   8.096   3.392   2.332
13195SOL     OW41481   5.503   3.959   5.240
13195SOL    HW141482   5.506   4.010   5.321
13195SOL    HW241483   5.594   3.935   5.223
13196SOL     OW41484   3.465  11.833  12.272
13196SOL    HW141485   3.445  11.752  12.320
13196SOL    HW241486   3.536  11.873  12.321
13197SOL     OW41487  12.793   9.263  11.095
13197SOL    HW141488  12.831   9.326  11.156
13197SOL    HW241489  12.699   9.270  11.109
13198SOL     OW41490   0.791   9.290  13.345
13198SOL    HW141491   0.782   9.242  13.427
13198SOL    HW241492   0.730   9.247  13.285
13199SOL     OW41493  10.670   7.489   8.897
13199SOL    HW141494  10.698   7.574   8.931
13199SOL    HW241495  10.723   7.426   8.946
13200SOL     OW41496   4.004   5.345   4.806
13200SOL    HW141497   3.981   5.431   4.770
13200SOL    HW241498   4.076   5.314   4.752
13201SOL     OW41499  11.718  13.236  14.646
13201SOL    HW141500  11.710  13.146  14.614
13201SOL    HW241501  11.705  13.291  14.568
13202SOL     OW41502  13.577  10.271  11.896
13202SOL    HW141503  13.532  10.263  11.812
13202SOL    HW241504  13.607  10.183  11.916
13203SOL     OW41505   9.913   9.782   1.259
13203SOL    HW141506   9.887   9.742   1.175
13203SOL    HW241507   9.839   9.763   1.318
13204SOL     OW41508   1.191   4.814   6.040
13204SOL    HW141509   1.248   4.792   5.966
13204SOL    HW241510   1.248   4.857   6.103
13205SOL     OW41511  10.120  11.292   6.911
13205SOL    HW141512  10.054  11.360   6.925
13205SOL    HW241513  10.093  11.220   6.968
13206SOL     OW41514  10.938  11.998  13.936
13206SOL    HW141515  10.904  12.083  13.965
13206SOL    HW241516  10.864  11.956  13.894
13207SOL     OW41517  10.479   2.667   8.914
13207SOL    HW141518  10.527   2.603   8.966
13207SOL    HW241519  10.524   2.750   8.930
13208SOL     OW41520  12.732   2.860  11.591
13208SOL    HW141521  12.823   2.873  11.567
13208SOL    HW241522  12.718   2.765  11.584
13209SOL     OW41523   0.485   5.305   0.283
13209SOL    HW141524   0.464   5.319   0.375
13209SOL    HW241525   0.451   5.383   0.239
13210SOL     OW41526   6.015   2.920   5.906
13210SOL    HW141527   5.970   2.854   5.853
13210SOL    HW241528   5.955   2.993   5.911
13211SOL     OW41529   2.607  13.628   5.752
13211SOL    HW141530   2.671  13.641   5.822
13211SOL    HW241531   2.661  13.616   5.673
13212SOL     OW41532  11.611  10.085   0.475
13212SOL    HW141533  11.599  10.002   0.428
13212SOL    HW241534  11.530  10.133   0.458
13213SOL     OW41535  10.609   0.433  10.577
13213SOL    HW141536  10.524   0.444  10.534
13213SOL    HW241537  10.669   0.412  10.505
13214SOL     OW41538   2.153   0.304   7.667
13214SOL    HW141539   2.219   0.278   7.732
13214SOL    HW241540   2.072   0.262   7.698
13215SOL     OW41541   9.681   2.611  13.246
13215SOL    HW141542   9.593   2.650  13.247
13215SOL    HW241543   9.737   2.675  13.291
13216SOL     OW41544   6.775  12.366   0.361
13216SOL    HW141545   6.793  12.316   0.441
13216SOL    HW241546   6.684  12.394   0.370
13217SOL     OW41547  11.778   0.454  14.141
13217SOL    HW141548  11.696   0.495  14.167
13217SOL    HW241549  11.841   0.526  14.139
13218SOL     OW41550  11.001   0.434  10.299
13218SOL    HW141551  11.065   0.439  10.228
13218SOL    HW241552  11.041   0.482  10.371
13219SOL     OW41553   1.567   8.164   6.098
13219SOL    HW141554   1.497   8.230   6.100
13219SOL    HW241555   1.534   8.093   6.154
13220SOL     OW41556   7.325   9.757  14.454
13220SOL    HW141557   7.253   9.720  14.504
13220SOL    HW241558   7.300   9.747  14.363
13221SOL     OW41559  10.838  13.853   5.225
13221SOL    HW141560  10.838  13.942   5.258
13221SOL    HW241561  10.751  13.841   5.187
13222SOL     OW41562   6.323   5.380  12.213
13222SOL    HW141563   6.230   5.403  12.216
13222SOL    HW241564   6.330   5.321  12.138
13223SOL     OW41565   2.477   5.147   8.783
13223SOL    HW141566   2.468   5.184   8.695
13223SOL    HW241567   2.395   5.171   8.826
13224SOL     OW41568  12.137   7.275   5.744
13224SOL    HW141569  12.123   7.275   5.649
13224SOL    HW241570  12.172   7.188   5.762
13225SOL     OW41571  12.472   1.178   1.912
13225SOL    HW141572  12.390   1.215   1.943
13225SOL    HW241573  12.535   1.197   1.982
13226SOL     OW41574  12.001   2.532  13.777
13226SOL    HW141575  11.930   2.534  13.842
13226SOL    HW241576  12.078   2.503  13.827
13227SOL     OW41577   3.726  13.517   5.595
13227SOL    HW141578   3.712  13.555   5.508
13227SOL    HW241579   3.773  13.584   5.643
13228SOL     OW41580   3.720   5.955   1.617
13228SOL    HW141581   3.638   5.914   1.590
13228SOL    HW241582   3.788   5.906   1.570
13229SOL     OW41583   8.341   3.713   5.049
13229SOL    HW141584   8.404   3.757   5.106
13229SOL    HW241585   8.278   3.782   5.027
13230SOL     OW41586   9.679   5.489   0.789
13230SOL    HW141587   9.651   5.580   0.794
13230SOL    HW241588   9.774   5.492   0.803
13231SOL     OW41589   1.813   7.258   7.320
13231SOL    HW141590   1.758   7.181   7.309
13231SOL    HW241591   1.755   7.323   7.360
13232SOL     OW41592   9.708  14.153   2.029
13232SOL    HW141593   9.681  14.065   2.004
13232SOL    HW241594   9.790  14.167   1.983
13233SOL     OW41595   2.822   1.710  14.201
13233SOL    HW141596   2.776   1.766  14.139
13233SOL    HW241597   2.792   1.622  14.181
13234SOL     OW41598  11.165   3.138   5.644
13234SOL    HW141599  11.197   3.227   5.654
13234SOL    HW241600  11.070   3.145   5.655
13235SOL     OW41601   0.190   9.370   3.682
13235SOL    HW141602   0.128   9.437   3.711
13235SOL    HW241603   0.267   9.383   3.737
13236SOL     OW41604   2.639   3.394  13.224
13236SOL    HW141605   2.573   3.433  13.281
13236SOL    HW241606   2.588   3.347  13.157
13237SOL     OW41607   7.890   0.040   3.962
13237SOL    HW141608   7.805   0.026   3.921
13237SOL    HW241609   7.883   0.000   4.049
13238SOL     OW41610  10.745  12.465  13.169
13238SOL    HW141611  10.822  12.428  13.211
13238SOL    HW241612  10.694  12.504  13.240
13239SOL     OW41613   8.733   2.804  11.383
13239SOL    HW141614   8.819   2.811  11.424
13239SOL    HW241615   8.750   2.817  11.290
13240SOL     OW41616  11.667   3.089   0.874
13240SOL    HW141617  11.580   3.053   0.853
13240SOL    HW241618  11.682   3.154   0.806
13241SOL     OW41619   0.937   8.469   3.217
13241SOL    HW141620   0.988   8.393   3.246
13241SOL    HW241621   0.902   8.507   3.298
13242SOL     OW41622   5.121   6.049   0.672
13242SOL    HW141623   5.182   6.008   0.611
13242SOL    HW241624   5.057   5.981   0.693
13243SOL     OW41625   6.822   6.959   2.230
13243SOL    HW141626   6.875   6.927   2.303
13243SOL    HW241627   6.871   7.035   2.197
13244SOL     OW41628   4.233   3.942   2.390
13244SOL    HW141629   4.267   3.931   2.301
13244SOL    HW241630   4.311   3.939   2.446
13245SOL     OW41631   3.662  14.295  12.671
13245SOL    HW141632   3.579  14.280  12.715
13245SOL    HW241633   3.641  14.292  12.578
13246SOL     OW41634  13.716  10.959   5.467
13246SOL    HW141635  13.762  11.043   5.461
13246SOL    HW241636  13.695  10.949   5.560
13247SOL     OW41637   7.308   7.436   2.865
13247SOL    HW141638   7.347   7.412   2.949
13247SOL    HW241639   7.377   7.420   2.801
13248SOL     OW41640   3.537  10.833   6.316
13248SOL    HW141641   3.514  10.745   6.285
13248SOL    HW241642   3.622  10.823   6.358
13249SOL     OW41643   4.365   7.202   8.303
13249SOL    HW141644   4.394   7.146   8.231
13249SOL    HW241645   4.289   7.247   8.268
13250SOL     OW41646   4.577   8.383  12.867
13250SOL    HW141647   4.631   8.359  12.792
13250SOL    HW241648   4.498   8.330  12.858
13251SOL     OW41649   5.446   3.655  13.647
13251SOL    HW141650   5.447   3.584  13.711
13251SOL    HW241651   5.504   3.722  13.685
13252SOL     OW41652   3.028   5.948   3.736
13252SOL    HW141653   2.942   5.948   3.777
13252SOL    HW241654   3.011   5.948   3.642
13253SOL     OW41655   0.524   0.287  13.535
13253SOL    HW141656   0.532   0.352  13.465
13253SOL    HW241657   0.524   0.203  13.489
13254SOL     OW41658   0.679  10.876   8.953
13254SOL    HW141659   0.738  10.801   8.950
13254SOL    HW241660   0.639  10.872   9.039
13255SOL     OW41661   2.187   1.701   6.132
13255SOL    HW141662   2.193   1.721   6.039
13255SOL    HW241663   2.097   1.725   6.156
13256SOL     OW41664   2.677   2.473  11.301
13256SOL    HW141665   2.739   2.411  11.339
13256SOL    HW241666   2.713   2.493  11.214
13257SOL     OW41667   0.832  12.276   0.336
13257SOL    HW141668   0.924  12.299   0.319
13257SOL    HW241669   0.784  12.322   0.267
13258SOL     OW41670   9.125   1.740   7.343
13258SOL    HW141671   9.134   1.829   7.310
13258SOL    HW241672   9.100   1.751   7.435
13259SOL     OW41673   9.319   0.082   2.774
13259SOL    HW141674   9.309   0.005   2.831
13259SOL    HW241675   9.412   0.103   2.777
13260SOL     OW41676  10.464   5.660   6.569
13260SOL    HW141677  10.397   5.656   6.637
13260SOL    HW241678  10.433   5.601   6.500
13261SOL     OW41679  11.668  11.771  14.678
13261SOL    HW141680  11.752  11.734  14.704
13261SOL    HW241681  11.612  11.694  14.662
13262SOL     OW41682   3.554  13.441  10.912
13262SOL    HW141683   3.566  13.414  10.821
13262SOL    HW241684   3.473  13.398  10.939
13263SOL     OW41685  11.833  10.398   9.051
13263SOL    HW141686  11.880  10.361   9.125
13263SOL    HW241687  11.825  10.326   8.989
13264SOL     OW41688  10.575   3.095   8.806
13264SOL    HW141689  10.652   3.063   8.758
13264SOL    HW241690  10.500   3.061   8.757
13265SOL     OW41691  10.899   4.732  13.086
13265SOL    HW141692  10.948   4.808  13.053
13265SOL    HW241693  10.905   4.667  13.016
13266SOL     OW41694  12.628  13.549   5.704
13266SOL    HW141695  12.536  13.576   5.715
13266SOL    HW241696  12.629  13.499   5.622
13267SOL     OW41697   9.456   3.923  13.819
13267SOL    HW141698   9.398   3.875  13.759
13267SOL    HW241699   9.498   3.988  13.764
13268SOL     OW41700   6.742  12.125   9.357
13268SOL    HW141701   6.770  12.107   9.446
13268SOL    HW241702   6.646  12.123   9.361
13269SOL     OW41703   1.488   7.421   7.285
13269SOL    HW141704   1.515   7.329   7.286
13269SOL    HW241705   1.422   7.425   7.215
13270SOL     OW41706   6.470   1.488   2.453
13270SOL    HW141707   6.539   1.424   2.440
13270SOL    HW241708   6.400   1.461   2.394
13271SOL     OW41709   6.119   0.333   7.578
13271SOL    HW141710   6.150   0.381   7.502
13271SOL    HW241711   6.105   0.244   7.547
13272SOL     OW41712  11.710   7.394   9.031
13272SOL    HW141713  11.710   7.420   8.938
13272SOL    HW241714  11.683   7.303   9.030
13273SOL     OW41715   6.293   5.330   0.126
13273SOL    HW141716   6.277   5.375   0.210
13273SOL    HW241717   6.214   5.347   0.075
13274SOL     OW41718  14.644   9.069   2.563
13274SOL    HW141719  14.712   9.085   2.498
13274SOL    HW241720  14.614   8.980   2.545
13275SOL     OW41721  13.543   2.652   8.933
13275SOL    HW141722  13.559   2.726   8.873
13275SOL    HW241723  13.552   2.690   9.020
13276SOL     OW41724   7.408   5.591   9.303
13276SOL    HW141725   7.323   5.553   9.327
13276SOL    HW241726   7.427   5.556   9.216
13277SOL     OW41727  11.899   2.479   4.891
13277SOL    HW141728  11.892   2.574   4.892
13277SOL    HW241729  11.888   2.455   4.799
13278SOL     OW41730  11.383   9.333  12.541
13278SOL    HW141731  11.371   9.389  12.464
13278SOL    HW241732  11.304   9.279  12.545
13279SOL     OW41733   0.347   4.010  11.200
13279SOL    HW141734   0.348   3.916  11.220
13279SOL    HW241735   0.255   4.035  11.208
13280SOL     OW41736   6.307  14.515   8.212
13280SOL    HW141737   6.297  14.477   8.299
13280SOL    HW241738   6.375  14.581   8.222
13281SOL     OW41739   2.879   7.877  10.843
13281SOL    HW141740   2.841   7.799  10.804
13281SOL    HW241741   2.919   7.924  10.770
13282SOL     OW41742  10.620   1.929   0.479
13282SOL    HW141743  10.554   1.875   0.522
13282SOL    HW241744  10.680   1.954   0.550
13283SOL     OW41745   8.192  13.635   1.870
13283SOL    HW141746   8.242  13.704   1.914
13283SOL    HW241747   8.147  13.680   1.799
13284SOL     OW41748  11.100   4.504  11.984
13284SOL    HW141749  11.073   4.584  12.028
13284SOL    HW241750  11.129   4.533  11.897
13285SOL     OW41751   1.064  11.114  12.978
13285SOL    HW141752   1.121  11.162  12.918
13285SOL    HW241753   0.989  11.172  12.992
13286SOL     OW41754   4.403  10.827   7.757
13286SOL    HW141755   4.435  10.742   7.727
13286SOL    HW241756   4.388  10.876   7.676
13287SOL     OW41757  13.739  14.778   5.405
13287SOL    HW141758  13.809  14.736   5.456
13287SOL    HW241759  13.724  14.719   5.332
13288SOL     OW41760  14.330  13.862   0.614
13288SOL    HW141761  14.314  13.884   0.522
13288SOL    HW241762  14.337  13.766   0.615
13289SOL     OW41763  10.285   2.569  11.634
13289SOL    HW141764  10.358   2.608  11.682
13289SOL    HW241765  10.312   2.479  11.616
13290SOL     OW41766   4.485   6.744   8.831
13290SOL    HW141767   4.391   6.750   8.844
13290SOL    HW241768   4.522   6.815   8.884
13291SOL     OW41769   2.378   2.712   7.945
13291SOL    HW141770   2.402   2.795   7.987
13291SOL    HW241771   2.460   2.677   7.912
13292SOL     OW41772   9.178   2.479   7.229
13292SOL    HW141773   9.111   2.520   7.174
13292SOL    HW241774   9.253   2.538   7.225
13293SOL     OW41775   4.835   6.581   8.428
13293SOL    HW141776   4.751   6.622   8.408
13293SOL    HW241777   4.842   6.508   8.365
13294SOL     OW41778  14.642   3.312  13.547
13294SOL    HW141779  14.611   3.267  13.468
13294SOL    HW241780  14.584   3.387  13.557
13295SOL     OW41781   2.754  12.002   4.058
13295SOL    HW141782   2.710  11.991   3.974
13295SOL    HW241783   2.691  12.051   4.112
13296SOL     OW41784  10.518   0.566  11.085
13296SOL    HW141785  10.471   0.485  11.102
13296SOL    HW241786  10.550   0.558  10.995
13297SOL     OW41787   2.613   0.455   9.251
13297SOL    HW141788   2.590   0.523   9.313
13297SOL    HW241789   2.707   0.464   9.238
13298SOL     OW41790   9.314   3.852   4.209
13298SOL    HW141791   9.344   3.938   4.238
13298SOL    HW241792   9.391   3.796   4.217
13299SOL     OW41793   5.498   1.516   9.753
13299SOL    HW141794   5.444   1.439   9.772
13299SOL    HW241795   5.583   1.480   9.729
13300SOL     OW41796   7.954   4.856   2.085
13300SOL    HW141797   7.947   4.836   2.178
13300SOL    HW241798   7.985   4.946   2.082
13301SOL     OW41799   0.814  14.620   7.297
13301SOL    HW141800   0.833  14.539   7.344
13301SOL    HW241801   0.740  14.598   7.240
13302SOL     OW41802   4.751  10.051  11.389
13302SOL    HW141803   4.672  10.012  11.427
13302SOL    HW241804   4.805   9.976  11.364
13303SOL     OW41805   3.843  12.353   5.474
13303SOL    HW141806   3.897  12.364   5.396
13303SOL    HW241807   3.804  12.439   5.490
13304SOL     OW41808   2.789   3.326   2.139
13304SOL    HW141809   2.880   3.343   2.165
13304SOL    HW241810   2.740   3.334   2.221
13305SOL     OW41811   1.204  13.095   8.749
13305SOL    HW141812   1.247  13.009   8.748
13305SOL    HW241813   1.155  13.096   8.832
13306SOL     OW41814   1.240   5.498  13.140
13306SOL    HW141815   1.147   5.499  13.164
13306SOL    HW241816   1.281   5.444  13.207
13307SOL     OW41817   9.747   2.539   5.824
13307SOL    HW141818   9.744   2.614   5.883
13307SOL    HW241819   9.840   2.527   5.805
13308SOL     OW41820  12.737  12.476   3.451
13308SOL    HW141821  12.782  12.482   3.535
13308SOL    HW241822  12.805  12.491   3.386
13309SOL     OW41823  14.455  10.397   4.699
13309SOL    HW141824  14.466  10.473   4.755
13309SOL    HW241825  14.367  10.405   4.662
13310SOL     OW41826   1.647   6.828   2.689
13310SOL    HW141827   1.726   6.833   2.635
13310SOL    HW241828   1.575   6.823   2.626
13311SOL     OW41829   1.381  10.395   2.860
13311SOL    HW141830   1.451  10.359   2.806
13311SOL    HW241831   1.380  10.488   2.838
13312SOL     OW41832  11.018   9.786   0.279
13312SOL    HW141833  11.086   9.849   0.254
13312SOL    HW241834  10.961   9.781   0.203
13313SOL     OW41835   6.027  13.764  13.531
13313SOL    HW141836   5.983  13.697  13.584
13313SOL    HW241837   6.110  13.779  13.576
13314SOL     OW41838   5.839   9.247  10.448
13314SOL    HW141839   5.820   9.154  10.463
13314SOL    HW241840   5.851   9.253  10.353
13315SOL     OW41841   3.186   5.866  14.416
13315SOL    HW141842   3.147   5.921  14.484
13315SOL    HW241843   3.162   5.777  14.442
13316SOL     OW41844   5.384  14.062   5.325
13316SOL    HW141845   5.318  14.026   5.384
13316SOL    HW241846   5.336  14.124   5.270
13317SOL     OW41847   5.256  14.110   0.238
13317SOL    HW141848   5.177  14.145   0.279
13317SOL    HW241849   5.308  14.076   0.311
13318SOL     OW41850   9.053  11.913   3.185
13318SOL    HW141851   8.962  11.938   3.170
13318SOL    HW241852   9.090  11.906   3.097
13319SOL     OW41853   3.576  13.337  10.649
13319SOL    HW141854   3.553  13.399  10.579
13319SOL    HW241855   3.658  13.297  10.618
13320SOL     OW41856  11.460  12.233  13.606
13320SOL    HW141857  11.449  12.141  13.584
13320SOL    HW241858  11.379  12.275  13.578
13321SOL     OW41859   5.126  12.774   6.546
13321SOL    HW141860   5.101  12.690   6.585
13321SOL    HW241861   5.045  12.809   6.509
13322SOL     OW41862  14.732   1.419   3.545
13322SOL    HW141863  14.722   1.331   3.509
13322SOL    HW241864  14.827   1.428   3.559
13323SOL     OW41865   7.119   3.738   7.419
13323SOL    HW141866   7.053   3.768   7.481
13323SOL    HW241867   7.132   3.813   7.360
13324SOL     OW41868   8.670   6.011   4.090
13324SOL    HW141869   8.603   5.944   4.099
13324SOL    HW241870   8.735   5.991   4.157
13325SOL     OW41871  11.105   1.049   3.709
13325SOL    HW141872  11.089   1.121   3.648
13325SOL    HW241873  11.200   1.034   3.703
13326SOL     OW41874   8.457   6.082   7.760
13326SOL    HW141875   8.453   6.033   7.842
13326SOL    HW241876   8.493   6.167   7.786
13327SOL     OW41877   5.478  13.232   0.737
13327SOL    HW141878   5.506  13.167   0.802
13327SOL    HW241879   5.419  13.184   0.679
13328SOL     OW41880  10.277   9.382  10.885
13328SOL    HW141881  10.256   9.448  10.819
13328SOL    HW241882  10.260   9.298  10.843
13329SOL     OW41883  12.326   6.656   5.640
13329SOL    HW141884  12.320   6.749   5.619
13329SOL    HW241885  12.236   6.624   5.638
13330SOL     OW41886   9.275   7.798   8.511
13330SOL    HW141887   9.273   7.732   8.581
13330SOL    HW241888   9.289   7.881   8.557
13331SOL     OW41889   0.981   2.978   7.121
13331SOL    HW141890   0.942   2.894   7.142
13331SOL    HW241891   0.938   3.006   7.041
13332SOL     OW41892   3.167   7.544  10.169
13332SOL    HW141893   3.233   7.583  10.113
13332SOL    HW241894   3.084   7.556  10.122
13333SOL     OW41895   5.554   9.084   8.163
13333SOL    HW141896   5.479   9.105   8.218
13333SOL    HW241897   5.628   9.083   8.224
13334SOL     OW41898   4.722   0.037   6.990
13334SOL    HW141899   4.641   0.032   7.040
13334SOL    HW241900   4.777  14.835   7.025
13335SOL     OW41901   1.546   2.722  14.146
13335SOL    HW141902   1.490   2.686  14.214
13335SOL    HW241903   1.535   2.817  14.154
13336SOL     OW41904   3.091   0.107  14.458
13336SOL    HW141905   3.040   0.173  14.506
13336SOL    HW241906   3.181   0.119  14.490
13337SOL     OW41907   9.295  11.439   4.044
13337SOL    HW141908   9.340  11.390   3.975
13337SOL    HW241909   9.344  11.419   4.124
13338SOL     OW41910   3.365   1.151  13.013
13338SOL    HW141911   3.396   1.186  13.096
13338SOL    HW241912   3.402   1.063  13.008
13339SOL     OW41913   2.232   1.405  10.624
13339SOL    HW141914   2.203   1.447  10.543
13339SOL    HW241915   2.178   1.445  10.692
13340SOL     OW41916   1.153  14.818  13.533
13340SOL    HW141917   1.122  14.739  13.577
13340SOL    HW241918   1.182  14.788  13.447
13341SOL     OW41919   4.055   8.626  11.246
13341SOL    HW141920   4.125   8.623  11.311
13341SOL    HW241921   3.982   8.580  11.288
13342SOL     OW41922   9.864   9.375  13.855
13342SOL    HW141923   9.775   9.346  13.875
13342SOL    HW241924   9.920   9.307  13.894
13343SOL     OW41925  13.755  12.406   7.563
13343SOL    HW141926  13.807  12.486   7.560
13343SOL    HW241927  13.777  12.366   7.647
13344SOL     OW41928   0.621   2.594   3.386
13344SOL    HW141929   0.633   2.628   3.297
13344SOL    HW241930   0.631   2.671   3.442
13345SOL     OW41931  13.732   6.793  12.112
13345SOL    HW141932  13.811   6.844  12.096
13345SOL    HW241933  13.740   6.766  12.204
13346SOL     OW41934  13.672  11.498  12.922
13346SOL    HW141935  13.618  11.422  12.945
13346SOL    HW241936  13.697  11.483  12.830
13347SOL     OW41937  14.689   4.404   7.306
13347SOL    HW141938  14.707   4.498   7.299
13347SOL    HW241939  14.712   4.381   7.396
13348SOL     OW41940   0.890   8.000   5.719
13348SOL    HW141941   0.826   7.988   5.649
13348SOL    HW241942   0.975   8.000   5.674
13349SOL     OW41943   5.661   1.331   7.269
13349SOL    HW141944   5.597   1.358   7.335
13349SOL    HW241945   5.703   1.253   7.306
13350SOL     OW41946   9.502  12.758   2.326
13350SOL    HW141947   9.583  12.730   2.368
13350SOL    HW241948   9.463  12.820   2.388
13351SOL     OW41949   5.262   1.316   6.042
13351SOL    HW141950   5.170   1.291   6.048
13351SOL    HW241951   5.267   1.401   6.087
13352SOL     OW41952   2.202  10.274   4.257
13352SOL    HW141953   2.156  10.251   4.338
13352SOL    HW241954   2.137  10.323   4.206
13353SOL     OW41955  12.176   1.541  14.096
13353SOL    HW141956  12.194   1.627  14.058
13353SOL    HW241957  12.242   1.530  14.164
13354SOL     OW41958  12.484   7.996  13.743
13354SOL    HW141959  12.468   7.922  13.684
13354SOL    HW241960  12.438   7.972  13.823
13355SOL     OW41961   0.303  11.534  13.945
13355SOL    HW141962   0.319  11.618  13.988
13355SOL    HW241963   0.255  11.482  14.009
13356SOL     OW41964   3.877   1.673   2.098
13356SOL    HW141965   3.825   1.673   2.179
13356SOL    HW241966   3.863   1.760   2.060
13357SOL     OW41967   3.795   8.488   3.671
13357SOL    HW141968   3.726   8.508   3.608
13357SOL    HW241969   3.862   8.554   3.655
13358SOL     OW41970   6.741   9.340  14.370
13358SOL    HW141971   6.755   9.398  14.295
13358SOL    HW241972   6.826   9.337  14.415
13359SOL     OW41973   1.136   0.848  12.326
13359SOL    HW141974   1.128   0.795  12.247
13359SOL    HW241975   1.154   0.937  12.295
13360SOL     OW41976  11.600  11.174  10.485
13360SOL    HW141977  11.674  11.131  10.441
13360SOL    HW241978  11.526  11.117  10.469
13361SOL     OW41979   7.042   4.851  10.309
13361SOL    HW141980   7.042   4.794  10.232
13361SOL    HW241981   6.976   4.814  10.367
13362SOL     OW41982   1.220   2.545   5.786
13362SOL    HW141983   1.217   2.577   5.696
13362SOL    HW241984   1.128   2.534   5.811
13363SOL     OW41985   9.421   8.753  10.260
13363SOL    HW141986   9.350   8.795  10.309
13363SOL    HW241987   9.492   8.817  10.262
13364SOL     OW41988   4.744   8.609  11.045
13364SOL    HW141989   4.737   8.536  10.983
13364SOL    HW241990   4.778   8.681  10.993
13365SOL     OW41991  14.593  12.817  10.935
13365SOL    HW141992  14.504  12.783  10.943
13365SOL    HW241993  14.604  12.833  10.841
13366SOL     OW41994   3.721   9.903  14.054
13366SOL    HW141995   3.814   9.927  14.055
13366SOL    HW241996   3.697   9.896  14.147
13367SOL     OW41997   5.599  14.101  14.471
13367SOL    HW141998   5.605  14.172  14.535
13367SOL    HW241999   5.622  14.022  14.520
13368SOL     OW42000   7.699  11.818   5.889
13368SOL    HW142001   7.628  11.782   5.942
13368SOL    HW242002   7.732  11.743   5.839
13369SOL     OW42003   1.988  13.644   0.181
13369SOL    HW142004   1.955  13.683   0.262
13369SOL    HW242005   2.066  13.595   0.208
13370SOL     OW42006   0.237   3.926  11.550
13370SOL    HW142007   0.172   3.915  11.481
13370SOL    HW242008   0.244   3.840  11.592
13371SOL     OW42009   3.904  13.661   6.482
13371SOL    HW142010   3.881  13.647   6.390
13371SOL    HW242011   3.995  13.690   6.479
13372SOL     OW42012   3.558  14.184   2.005
13372SOL    HW142013   3.522  14.264   1.965
13372SOL    HW242014   3.554  14.119   1.935
13373SOL     OW42015   8.356   1.418   4.502
13373SOL    HW142016   8.290   1.461   4.556
13373SOL    HW242017   8.339   1.450   4.414
13374SOL     OW42018   3.197   2.553  10.462
13374SOL    HW142019   3.243   2.470  10.451
13374SOL    HW242020   3.266   2.616  10.484
13375SOL     OW42021   6.090   0.168   5.827
13375SOL    HW142022   6.081   0.258   5.796
13375SOL    HW242023   6.183   0.160   5.849
13376SOL     OW42024  11.663  11.630   1.549
13376SOL    HW142025  11.667  11.597   1.638
13376SOL    HW242026  11.607  11.707   1.554
13377SOL     OW42027  13.436  12.179  10.747
13377SOL    HW142028  13.403  12.258  10.704
13377SOL    HW242029  13.400  12.182  10.835
13378SOL     OW42030   5.503   0.735   7.048
13378SOL    HW142031   5.424   0.760   7.096
13378SOL    HW242032   5.479   0.742   6.956
13379SOL     OW42033  14.650   0.704   2.779
13379SOL    HW142034  14.556   0.724   2.786
13379SOL    HW242035  14.681   0.700   2.870
13380SOL     OW42036   4.070   5.636   5.317
13380SOL    HW142037   4.062   5.576   5.391
13380SOL    HW242038   4.151   5.610   5.273
13381SOL     OW42039   7.256   9.192   5.533
13381SOL    HW142040   7.234   9.129   5.465
13381SOL    HW242041   7.233   9.277   5.495
13382SOL     OW42042  13.300  10.092   8.292
13382SOL    HW142043  13.285  10.170   8.345
13382SOL    HW242044  13.395  10.088   8.281
13383SOL     OW42045   9.365   2.077  12.487
13383SOL    HW142046   9.417   2.002  12.458
13383SOL    HW242047   9.307   2.095  12.414
13384SOL     OW42048  13.467   2.461   1.086
13384SOL    HW142049  13.529   2.521   1.046
13384SOL    HW242050  13.434   2.507   1.163
13385SOL     OW42051   7.463  13.189  12.967
13385SOL    HW142052   7.376  13.165  12.936
13385SOL    HW242053   7.516  13.197  12.888
13386SOL     OW42054   4.559   1.761   5.313
13386SOL    HW142055   4.515   1.829   5.364
13386SOL    HW242056   4.652   1.780   5.322
13387SOL     OW42057   7.295  13.787   3.788
13387SOL    HW142058   7.304  13.705   3.837
13387SOL    HW242059   7.224  13.770   3.726
13388SOL     OW42060  11.501   5.940  10.135
13388SOL    HW142061  11.439   5.946  10.209
13388SOL    HW242062  11.465   5.999  10.069
13389SOL     OW42063   3.959  11.821   1.815
13389SOL    HW142064   3.983  11.810   1.723
13389SOL    HW242065   3.993  11.742   1.858
13390SOL     OW42066  13.280  11.878  11.759
13390SOL    HW142067  13.278  11.967  11.792
13390SOL    HW242068  13.197  11.868  11.712
13391SOL     OW42069  13.951   4.457   7.777
13391SOL    HW142070  13.984   4.533   7.825
13391SOL    HW242071  13.945   4.487   7.686
13392SOL     OW42072  11.477   5.496   6.509
13392SOL    HW142073  11.462   5.499   6.604
13392SOL    HW242074  11.553   5.553   6.495
13393SOL     OW42075  14.070  12.747   4.665
13393SOL    HW142076  14.084  12.652   4.663
13393SOL    HW242077  14.013  12.763   4.590
13394SOL     OW42078  12.420   6.407  12.302
13394SOL    HW142079  12.453   6.465  12.233
13394SOL    HW242080  12.445   6.451  12.383
13395SOL     OW42081   8.710  12.931  14.843
13395SOL    HW142082   8.694  12.868  14.774
13395SOL    HW242083   8.624  12.945   0.016
13396SOL     OW42084   5.301   0.469   8.563
13396SOL    HW142085   5.373   0.421   8.603
13396SOL    HW242086   5.223   0.434   8.605
13397SOL     OW42087  11.781   9.451   3.050
13397SOL    HW142088  11.756   9.538   3.081
13397SOL    HW242089  11.831   9.468   2.970
13398SOL     OW42090   0.986   5.456   3.514
13398SOL    HW142091   1.006   5.484   3.425
13398SOL    HW242092   0.900   5.415   3.507
13399SOL     OW42093   6.445   0.806   9.935
13399SOL    HW142094   6.392   0.728   9.952
13399SOL    HW242095   6.535   0.775   9.933
13400SOL     OW42096   9.854   5.725   2.091
13400SOL    HW142097   9.815   5.697   2.174
13400SOL    HW242098   9.948   5.722   2.108
13401SOL     OW42099  11.523   9.841   5.741
13401SOL    HW142100  11.467   9.888   5.804
13401SOL    HW242101  11.500   9.879   5.656
13402SOL     OW42102  13.323  12.583   2.765
13402SOL    HW142103  13.239  12.628   2.767
13402SOL    HW242104  13.308  12.506   2.710
13403SOL     OW42105   8.038  10.549   7.791
13403SOL    HW142106   7.968  10.589   7.842
13403SOL    HW242107   8.040  10.599   7.709
13404SOL     OW42108   4.148   8.373   8.544
13404SOL    HW142109   4.192   8.289   8.552
13404SOL    HW242110   4.115   8.374   8.454
13405SOL     OW42111   5.663   5.167   4.448
13405SOL    HW142112   5.654   5.085   4.400
13405SOL    HW242113   5.657   5.142   4.540
13406SOL     OW42114   0.620   3.793  13.546
13406SOL    HW142115   0.635   3.698  13.550
13406SOL    HW242116   0.682   3.824  13.480
13407SOL     OW42117  11.780   7.726   3.471
13407SOL    HW142118  11.856   7.763   3.515
13407SOL    HW242119  11.717   7.707   3.541
13408SOL     OW42120   6.048  13.175   3.456
13408SOL    HW142121   6.022  13.123   3.379
13408SOL    HW242122   6.036  13.115   3.530
13409SOL     OW42123  14.666   4.494   5.954
13409SOL    HW142124  14.749   4.478   5.909
13409SOL    HW242125  14.686   4.565   6.016
13410SOL     OW42126   0.306  14.641   3.371
13410SOL    HW142127   0.343  14.671   3.454
13410SOL    HW242128   0.378  14.596   3.328
13411SOL     OW42129  10.691   0.354   6.449
13411SOL    HW142130  10.671   0.385   6.538
13411SOL    HW242131  10.786   0.350   6.446
13412SOL     OW42132  12.436  14.286   1.081
13412SOL    HW142133  12.375  14.358   1.089
13412SOL    HW242134  12.460  14.284   0.989
13413SOL     OW42135   4.775  14.250  14.590
13413SOL    HW142136   4.849  14.196  14.619
13413SOL    HW242137   4.698  14.200  14.614
13414SOL     OW42138  14.730   2.171   5.493
13414SOL    HW142139  14.766   2.118   5.564
13414SOL    HW242140  14.642   2.136   5.479
13415SOL     OW42141   0.259   4.751   4.075
13415SOL    HW142142   0.178   4.789   4.108
13415SOL    HW242143   0.231   4.676   4.023
13416SOL     OW42144   2.555   9.814  10.016
13416SOL    HW142145   2.609   9.822  10.095
13416SOL    HW242146   2.519   9.902  10.002
13417SOL     OW42147   2.727   1.071  13.228
13417SOL    HW142148   2.754   1.111  13.145
13417SOL    HW242149   2.637   1.042  13.212
13418SOL     OW42150   8.189   2.803   4.161
13418SOL    HW142151   8.119   2.828   4.222
13418SOL    HW242152   8.144   2.756   4.091
13419SOL     OW42153   3.635   6.025   9.189
13419SOL    HW142154   3.644   6.105   9.137
13419SOL    HW242155   3.570   5.973   9.140
13420SOL     OW42156  14.236   7.571   2.332
13420SOL    HW142157  14.192   7.496   2.291
13420SOL    HW242158  14.179   7.594   2.406
13421SOL     OW42159  12.984   1.714   1.549
13421SOL    HW142160  13.070   1.729   1.511
13421SOL    HW242161  12.922   1.733   1.479
13422SOL     OW42162   5.819   6.981  12.454
13422SOL    HW142163   5.822   6.891  12.421
13422SOL    HW242164   5.727   7.006  12.448
13423SOL     OW42165   2.745   1.474   2.784
13423SOL    HW142166   2.703   1.542   2.732
13423SOL    HW242167   2.710   1.486   2.872
13424SOL     OW42168  11.331   7.284  13.762
13424SOL    HW142169  11.312   7.192  13.780
13424SOL    HW242170  11.427   7.289  13.759
13425SOL     OW42171   6.010   5.639   1.253
13425SOL    HW142172   5.994   5.707   1.319
13425SOL    HW242173   6.104   5.626   1.255
13426SOL     OW42174  11.411   3.539   8.520
13426SOL    HW142175  11.496   3.570   8.489
13426SOL    HW242176  11.371   3.616   8.560
13427SOL     OW42177  11.539   4.979   7.946
13427SOL    HW142178  11.467   5.032   7.981
13427SOL    HW242179  11.500   4.928   7.875
13428SOL     OW42180   2.472   5.240   2.112
13428SOL    HW142181   2.429   5.197   2.186
13428SOL    HW242182   2.487   5.170   2.049
13429SOL     OW42183  10.577   6.368   9.847
13429SOL    HW142184  10.608   6.360   9.938
13429SOL    HW242185  10.513   6.438   9.850
13430SOL     OW42186  11.606  12.264   3.894
13430SOL    HW142187  11.578  12.329   3.958
13430SOL    HW242188  11.701  12.276   3.889
13431SOL     OW42189   0.309  10.558   1.267
13431SOL    HW142190   0.258  10.636   1.248
13431SOL    HW242191   0.248  10.498   1.309
13432SOL     OW42192  10.772  10.052   8.462
13432SOL    HW142193  10.758   9.971   8.510
13432SOL    HW242194  10.732  10.036   8.376
13433SOL     OW42195   5.170  11.841   4.292
13433SOL    HW142196   5.231  11.869   4.225
13433SOL    HW242197   5.086  11.836   4.248
13434SOL     OW42198  12.479   5.570   5.696
13434SOL    HW142199  12.401   5.624   5.679
13434SOL    HW242200  12.519   5.610   5.773
13435SOL     OW42201   6.545  10.016   9.201
13435SOL    HW142202   6.510   9.960   9.131
13435SOL    HW242203   6.566   9.954   9.272
13436SOL     OW42204   7.014  12.820   8.075
13436SOL    HW142205   6.968  12.758   8.019
13436SOL    HW242206   7.039  12.769   8.152
13437SOL     OW42207   2.066   3.978   2.255
13437SOL    HW142208   2.099   3.981   2.165
13437SOL    HW242209   2.145   3.984   2.309
13438SOL     OW42210   3.093  12.592  11.535
13438SOL    HW142211   3.092  12.501  11.564
13438SOL    HW242212   3.065  12.642  11.611
13439SOL     OW42213   2.391  12.735  12.659
13439SOL    HW142214   2.410  12.791  12.735
13439SOL    HW242215   2.436  12.653  12.678
13440SOL     OW42216  13.294   0.406   3.654
13440SOL    HW142217  13.358   0.356   3.704
13440SOL    HW242218  13.211   0.394   3.700
13441SOL     OW42219  12.817   2.477   6.587
13441SOL    HW142220  12.809   2.448   6.497
13441SOL    HW242221  12.727   2.482   6.619
13442SOL     OW42222   4.981   2.878   1.688
13442SOL    HW142223   4.918   2.945   1.713
13442SOL    HW242224   4.950   2.798   1.731
13443SOL     OW42225   1.312  12.212   2.807
13443SOL    HW142226   1.314  12.237   2.900
13443SOL    HW242227   1.308  12.117   2.808
13444SOL     OW42228  13.620   2.499   2.954
13444SOL    HW142229  13.623   2.524   3.047
13444SOL    HW242230  13.591   2.408   2.954
13445SOL     OW42231   5.490  13.208   9.201
13445SOL    HW142232   5.408  13.257   9.212
13445SOL    HW242233   5.470  13.121   9.235
13446SOL     OW42234   6.573  10.396   6.657
13446SOL    HW142235   6.580  10.315   6.607
13446SOL    HW242236   6.482  10.423   6.647
13447SOL     OW42237  12.205   7.471   4.816
13447SOL    HW142238  12.160   7.419   4.749
13447SOL    HW242239  12.206   7.560   4.781
13448SOL     OW42240   8.163   2.752   4.542
13448SOL    HW142241   8.084   2.761   4.488
13448SOL    HW242242   8.231   2.800   4.493
13449SOL     OW42243   1.130   8.330  10.694
13449SOL    HW142244   1.188   8.351  10.767
13449SOL    HW242245   1.049   8.300  10.736
13450SOL     OW42246   8.393   9.137   6.219
13450SOL    HW142247   8.383   9.057   6.167
13450SOL    HW242248   8.479   9.171   6.194
13451SOL     OW42249  11.476  10.693   3.923
13451SOL    HW142250  11.533  10.750   3.975
13451SOL    HW242251  11.420  10.753   3.873
13452SOL     OW42252   7.219   0.261  11.970
13452SOL    HW142253   7.287   0.239  12.033
13452SOL    HW242254   7.219   0.188  11.908
13453SOL     OW42255  14.703  11.545   7.334
13453SOL    HW142256  14.779  11.584   7.378
13453SOL    HW242257  14.627  11.577   7.384
13454SOL     OW42258   8.345   9.984   4.212
13454SOL    HW142259   8.413  10.040   4.173
13454SOL    HW242260   8.267  10.040   4.215
13455SOL     OW42261  11.669   4.701   5.384
13455SOL    HW142262  11.592   4.698   5.326
13455SOL    HW242263  11.743   4.712   5.324
13456SOL     OW42264  10.845   8.125   3.987
13456SOL    HW142265  10.828   8.060   4.055
13456SOL    HW242266  10.774   8.112   3.924
13457SOL     OW42267  11.691  14.071   7.277
13457SOL    HW142268  11.635  14.024   7.214
13457SOL    HW242269  11.648  14.155   7.289
13458SOL     OW42270   2.006  10.384   3.625
13458SOL    HW142271   2.023  10.439   3.548
13458SOL    HW242272   2.062  10.421   3.693
13459SOL     OW42273   3.596   2.218  14.559
13459SOL    HW142274   3.658   2.169  14.614
13459SOL    HW242275   3.574   2.295  14.610
13460SOL     OW42276   4.147   1.700  14.178
13460SOL    HW142277   4.085   1.646  14.227
13460SOL    HW242278   4.138   1.787  14.217
13461SOL     OW42279   7.987   0.016   2.029
13461SOL    HW142280   7.925  14.812   2.043
13461SOL    HW242281   8.061  14.863   2.086
13462SOL     OW42282   8.989   5.645   5.825
13462SOL    HW142283   8.916   5.632   5.765
13462SOL    HW242284   8.949   5.680   5.905
13463SOL     OW42285   2.047   3.383  11.994
13463SOL    HW142286   2.081   3.323  11.927
13463SOL    HW242287   1.954   3.394  11.971
13464SOL     OW42288  12.459   5.234   0.420
13464SOL    HW142289  12.498   5.165   0.366
13464SOL    HW242290  12.365   5.228   0.402
13465SOL     OW42291   9.875  14.613  14.440
13465SOL    HW142292   9.942  14.675  14.467
13465SOL    HW242293   9.924  14.540  14.402
13466SOL     OW42294   7.505  10.497   2.484
13466SOL    HW142295   7.547  10.549   2.415
13466SOL    HW242296   7.519  10.548   2.564
13467SOL     OW42297   0.249  12.414   2.255
13467SOL    HW142298   0.185  12.363   2.205
13467SOL    HW242299   0.294  12.467   2.189
13468SOL     OW42300   4.575   2.653   7.032
13468SOL    HW142301   4.521   2.731   7.028
13468SOL    HW242302   4.665   2.685   7.023
13469SOL     OW42303   2.149   1.554  11.823
13469SOL    HW142304   2.222   1.502  11.787
13469SOL    HW242305   2.184   1.643  11.829
13470SOL     OW42306   0.613   2.711   4.532
13470SOL    HW142307   0.608   2.636   4.592
13470SOL    HW242308   0.530   2.757   4.543
13471SOL     OW42309  13.333   6.566   1.081
13471SOL    HW142310  13.419   6.525   1.073
13471SOL    HW242311  13.278   6.517   1.020
13472SOL     OW42312   5.774  10.662   3.947
13472SOL    HW142313   5.769  10.680   4.041
13472SOL    HW242314   5.740  10.742   3.906
13473SOL     OW42315  11.076  11.166   9.009
13473SOL    HW142316  11.141  11.169   8.938
13473SOL    HW242317  10.996  11.137   8.966
13474SOL     OW42318   0.283   7.226  11.142
13474SOL    HW142319   0.260   7.136  11.117
13474SOL    HW242320   0.327   7.262  11.065
13475SOL     OW42321  11.253  13.827   0.501
13475SOL    HW142322  11.230  13.905   0.451
13475SOL    HW242323  11.340  13.802   0.468
13476SOL     OW42324  12.428  13.231   4.619
13476SOL    HW142325  12.448  13.160   4.557
13476SOL    HW242326  12.372  13.291   4.571
13477SOL     OW42327  12.891   5.306   1.913
13477SOL    HW142328  12.851   5.392   1.931
13477SOL    HW242329  12.847   5.246   1.973
13478SOL     OW42330   2.926  10.195   2.078
13478SOL    HW142331   2.933  10.258   2.150
13478SOL    HW242332   2.958  10.113   2.115
13479SOL     OW42333   4.308   9.134  12.163
13479SOL    HW142334   4.213   9.136  12.172
13479SOL    HW242335   4.336   9.220  12.195
13480SOL     OW42336   8.804   8.651   2.659
13480SOL    HW142337   8.786   8.585   2.591
13480SOL    HW242338   8.854   8.719   2.614
13481SOL     OW42339  13.277   5.572   9.511
13481SOL    HW142340  13.230   5.499   9.473
13481SOL    HW242341  13.357   5.579   9.459
13482SOL     OW42342   5.611  13.116  13.489
13482SOL    HW142343   5.621  13.211  13.491
13482SOL    HW242344   5.592  13.096  13.397
13483SOL     OW42345  14.576   3.424  14.758
13483SOL    HW142346  14.542   3.336  14.743
13483SOL    HW242347  14.671   3.412  14.767
13484SOL     OW42348  14.257   1.929   0.926
13484SOL    HW142349  14.194   1.952   0.857
13484SOL    HW242350  14.326   1.996   0.918
13485SOL     OW42351  12.699   0.846   4.799
13485SOL    HW142352  12.676   0.927   4.755
13485SOL    HW242353  12.746   0.795   4.733
13486SOL     OW42354   2.193   8.455   3.168
13486SOL    HW142355   2.196   8.532   3.111
13486SOL    HW242356   2.104   8.420   3.156
13487SOL     OW42357   5.920  12.204   7.137
13487SOL    HW142358   5.911  12.128   7.194
13487SOL    HW242359   5.931  12.278   7.196
13488SOL     OW42360   0.462  10.304  13.798
13488SOL    HW142361   0.371  10.289  13.825
13488SOL    HW242362   0.507  10.332  13.878
13489SOL     OW42363  11.024   1.154   5.305
13489SOL    HW142364  10.993   1.245   5.304
13489SOL    HW242365  10.945   1.103   5.325
13490SOL     OW42366  14.823  11.029  14.637
13490SOL    HW142367   0.038  11.054  14.597
13490SOL    HW242368  14.770  11.108  14.634
13491SOL     OW42369   9.860   3.090  14.802
13491SOL    HW142370   9.949   3.054  14.798
13491SOL    HW242371   9.834   3.079   0.025
13492SOL     OW42372   0.382   6.345   6.155
13492SOL    HW142373   0.398   6.312   6.243
13492SOL    HW242374   0.358   6.267   6.104
13493SOL     OW42375  10.871  14.700   7.070
13493SOL    HW142376  10.926  14.661   7.003
13493SOL    HW242377  10.862  14.632   7.136
13494SOL     OW42378   1.777   5.621   8.018
13494SOL    HW142379   1.728   5.590   8.094
13494SOL    HW242380   1.726   5.591   7.942
13495SOL     OW42381   5.387   1.030  12.797
13495SOL    HW142382   5.436   1.087  12.738
13495SOL    HW242383   5.296   1.038  12.767
13496SOL     OW42384  12.960   7.716   4.891
13496SOL    HW142385  12.920   7.629   4.893
13496SOL    HW242386  13.047   7.703   4.929
13497SOL     OW42387   0.385  11.851   1.230
13497SOL    HW142388   0.428  11.765   1.224
13497SOL    HW242389   0.303  11.840   1.182
13498SOL     OW42390   9.985   7.837   8.337
13498SOL    HW142391  10.021   7.835   8.426
13498SOL    HW242392   9.906   7.783   8.342
13499SOL     OW42393  12.593   9.882  11.744
13499SOL    HW142394  12.531   9.923  11.683
13499SOL    HW242395  12.628   9.956  11.794
13500SOL     OW42396   6.784   8.574   8.198
13500SOL    HW142397   6.726   8.626   8.254
13500SOL    HW242398   6.730   8.552   8.122
13501SOL     OW42399   5.087  10.625   4.903
13501SOL    HW142400   5.050  10.623   4.991
13501SOL    HW242401   5.099  10.533   4.881
13502SOL     OW42402  10.548   5.211   6.168
13502SOL    HW142403  10.497   5.139   6.205
13502SOL    HW242404  10.633   5.205   6.211
13503SOL     OW42405  12.560   8.297  12.360
13503SOL    HW142406  12.549   8.391  12.377
13503SOL    HW242407  12.480   8.272  12.314
13504SOL     OW42408   4.847   1.150  12.092
13504SOL    HW142409   4.882   1.233  12.063
13504SOL    HW242410   4.778   1.129  12.029
13505SOL     OW42411  11.966   9.779   4.865
13505SOL    HW142412  11.880   9.817   4.883
13505SOL    HW242413  11.981   9.718   4.938
13506SOL     OW42414  10.108   9.790   8.233
13506SOL    HW142415  10.061   9.840   8.300
13506SOL    HW242416  10.163   9.729   8.283
13507SOL     OW42417   4.779   4.047   8.691
13507SOL    HW142418   4.687   4.066   8.673
13507SOL    HW242419   4.801   4.102   8.766
13508SOL     OW42420   2.485   6.960   4.781
13508SOL    HW142421   2.411   6.909   4.815
13508SOL    HW242422   2.554   6.948   4.847
13509SOL     OW42423   0.383   4.480   1.583
13509SOL    HW142424   0.397   4.536   1.660
13509SOL    HW242425   0.305   4.429   1.605
13510SOL     OW42426  10.419   6.055   6.584
13510SOL    HW142427  10.479   5.995   6.539
13510SOL    HW242428  10.465   6.140   6.583
13511SOL     OW42429   5.766   3.127  10.492
13511SOL    HW142430   5.675   3.106  10.473
13511SOL    HW242431   5.786   3.201  10.434
13512SOL     OW42432   6.005   0.260   9.332
13512SOL    HW142433   5.914   0.249   9.304
13512SOL    HW242434   6.012   0.206   9.410
13513SOL     OW42435   5.286   4.212   5.473
13513SOL    HW142436   5.242   4.238   5.554
13513SOL    HW242437   5.270   4.284   5.413
13514SOL     OW42438  13.322   5.760   7.921
13514SOL    HW142439  13.413   5.733   7.930
13514SOL    HW242440  13.313   5.784   7.829
13515SOL     OW42441   0.987   2.444   3.211
13515SOL    HW142442   0.923   2.505   3.248
13515SOL    HW242443   1.044   2.498   3.157
13516SOL     OW42444   0.108   9.297  12.601
13516SOL    HW142445   0.162   9.324  12.527
13516SOL    HW242446   0.087   9.205  12.584
13517SOL     OW42447   0.791  13.556  10.191
13517SOL    HW142448   0.818  13.532  10.102
13517SOL    HW242449   0.705  13.515  10.202
13518SOL     OW42450   4.523   8.764  13.218
13518SOL    HW142451   4.527   8.764  13.123
13518SOL    HW242452   4.568   8.844  13.244
13519SOL     OW42453   0.859   1.221   2.277
13519SOL    HW142454   0.920   1.232   2.204
13519SOL    HW242455   0.913   1.192   2.350
13520SOL     OW42456  13.088   3.758  11.541
13520SOL    HW142457  13.176   3.735  11.511
13520SOL    HW242458  13.056   3.820  11.475
13521SOL     OW42459   0.969  14.680   2.128
13521SOL    HW142460   1.044  14.716   2.079
13521SOL    HW242461   0.914  14.640   2.061
13522SOL     OW42462   7.435  10.251   7.764
13522SOL    HW142463   7.440  10.330   7.710
13522SOL    HW242464   7.494  10.188   7.721
13523SOL     OW42465  14.429  12.952   5.495
13523SOL    HW142466  14.342  12.990   5.496
13523SOL    HW242467  14.450  12.942   5.402
13524SOL     OW42468   5.113   0.805   5.356
13524SOL    HW142469   5.139   0.897   5.359
13524SOL    HW242470   5.100   0.787   5.263
13525SOL     OW42471   2.164  12.436   8.098
13525SOL    HW142472   2.209  12.412   8.179
13525SOL    HW242473   2.094  12.495   8.125
13526SOL     OW42474   6.833   1.814   7.167
13526SOL    HW142475   6.856   1.905   7.148
13526SOL    HW242476   6.884   1.792   7.245
13527SOL     OW42477   4.466  10.104   9.869
13527SOL    HW142478   4.430  10.171   9.811
13527SOL    HW242479   4.502  10.038   9.809
13528SOL     OW42480   0.190  11.869   6.968
13528SOL    HW142481   0.263  11.917   6.928
13528SOL    HW242482   0.185  11.787   6.918
13529SOL     OW42483   5.436  13.532  11.584
13529SOL    HW142484   5.455  13.465  11.649
13529SOL    HW242485   5.364  13.583  11.622
13530SOL     OW42486   1.675   5.017  12.534
13530SOL    HW142487   1.607   5.038  12.471
13530SOL    HW242488   1.664   5.082  12.604
13531SOL     OW42489   8.230  10.858   5.835
13531SOL    HW142490   8.218  10.940   5.882
13531SOL    HW242491   8.235  10.791   5.903
13532SOL     OW42492   4.891   5.892   0.643
13532SOL    HW142493   4.796   5.886   0.635
13532SOL    HW242494   4.923   5.891   0.553
13533SOL     OW42495  11.480   1.589   0.191
13533SOL    HW142496  11.394   1.588   0.149
13533SOL    HW242497  11.533   1.527   0.141
13534SOL     OW42498   0.774   0.494   2.504
13534SOL    HW142499   0.763   0.465   2.594
13534SOL    HW242500   0.747   0.419   2.451
13535SOL     OW42501   5.614  10.264   4.634
13535SOL    HW142502   5.603  10.274   4.540
13535SOL    HW242503   5.529  10.287   4.671
13536SOL     OW42504  12.152  10.234   4.196
13536SOL    HW142505  12.071  10.209   4.150
13536SOL    HW242506  12.179  10.155   4.242
13537SOL     OW42507  13.148   7.602   8.566
13537SOL    HW142508  13.226   7.602   8.512
13537SOL    HW242509  13.089   7.539   8.525
13538SOL     OW42510   9.357   0.390   7.391
13538SOL    HW142511   9.399   0.311   7.358
13538SOL    HW242512   9.280   0.359   7.439
13539SOL     OW42513   0.770   0.840   4.484
13539SOL    HW142514   0.734   0.807   4.402
13539SOL    HW242515   0.693   0.860   4.537
13540SOL     OW42516   3.804  11.217  10.369
13540SOL    HW142517   3.893  11.248  10.349
13540SOL    HW242518   3.810  11.184  10.459
13541SOL     OW42519  13.186   7.761   0.544
13541SOL    HW142520  13.129   7.693   0.579
13541SOL    HW242521  13.168   7.762   0.450
13542SOL     OW42522   5.828   9.987  11.611
13542SOL    HW142523   5.837   9.967  11.518
13542SOL    HW242524   5.773   9.916  11.646
13543SOL     OW42525   5.940   9.298   3.833
13543SOL    HW142526   5.923   9.204   3.828
13543SOL    HW242527   5.859   9.335   3.869
13544SOL     OW42528   4.109  12.527  10.278
13544SOL    HW142529   4.117  12.449  10.333
13544SOL    HW242530   4.138  12.499  10.191
13545SOL     OW42531   3.796   8.208  12.652
13545SOL    HW142532   3.732   8.170  12.713
13545SOL    HW242533   3.858   8.137  12.634
13546SOL     OW42534  11.863   5.729  12.147
13546SOL    HW142535  11.786   5.784  12.159
13546SOL    HW242536  11.914   5.742  12.227
13547SOL     OW42537   6.852   9.609  10.408
13547SOL    HW142538   6.913   9.567  10.348
13547SOL    HW242539   6.805   9.537  10.450
13548SOL     OW42540  13.442   7.279  11.579
13548SOL    HW142541  13.348   7.278  11.596
13548SOL    HW242542  13.450   7.304  11.487
13549SOL     OW42543   8.994   5.837   6.533
13549SOL    HW142544   9.031   5.890   6.463
13549SOL    HW242545   8.979   5.899   6.605
13550SOL     OW42546   6.773  11.442  11.999
13550SOL    HW142547   6.779  11.347  11.988
13550SOL    HW242548   6.806  11.458  12.087
13551SOL     OW42549   4.505   1.001   3.841
13551SOL    HW142550   4.559   0.946   3.783
13551SOL    HW242551   4.429   1.024   3.788
13552SOL     OW42552  10.132   0.366  11.284
13552SOL    HW142553  10.046   0.368  11.324
13552SOL    HW242554  10.181   0.436  11.328
13553SOL     OW42555  14.569   8.517   4.934
13553SOL    HW142556  14.633   8.459   4.893
13553SOL    HW242557  14.618   8.596   4.955
13554SOL     OW42558  14.796   1.572   1.051
13554SOL    HW142559  14.860   1.501   1.044
13554SOL    HW242560  14.839   1.636   1.108
13555SOL     OW42561   9.660   4.430  12.014
13555SOL    HW142562   9.731   4.378  11.976
13555SOL    HW242563   9.596   4.439  11.944
13556SOL     OW42564   5.359  14.047   8.783
13556SOL    HW142565   5.274  14.013   8.811
13556SOL    HW242566   5.359  14.138   8.810
13557SOL     OW42567   9.137   4.877   2.277
13557SOL    HW142568   9.208   4.863   2.214
13557SOL    HW242569   9.176   4.858   2.362
13558SOL     OW42570   4.265   2.796   7.800
13558SOL    HW142571   4.199   2.865   7.792
13558SOL    HW242572   4.245   2.737   7.727
13559SOL     OW42573   2.551   7.955   9.677
13559SOL    HW142574   2.521   7.987   9.762
13559SOL    HW242575   2.582   8.032   9.631
13560SOL     OW42576  11.343   8.855   0.144
13560SOL    HW142577  11.293   8.911   0.086
13560SOL    HW242578  11.382   8.915   0.208
13561SOL     OW42579   3.058   9.669   6.235
13561SOL    HW142580   3.059   9.590   6.291
13561SOL    HW242581   2.981   9.718   6.265
13562SOL     OW42582  13.785  13.335   6.723
13562SOL    HW142583  13.818  13.268   6.784
13562SOL    HW242584  13.707  13.295   6.683
13563SOL     OW42585  10.217   7.156  12.042
13563SOL    HW142586  10.194   7.082  12.098
13563SOL    HW242587  10.299   7.130  12.000
13564SOL     OW42588   7.587   3.447   4.247
13564SOL    HW142589   7.527   3.447   4.173
13564SOL    HW242590   7.549   3.509   4.310
13565SOL     OW42591   8.052  13.597   8.322
13565SOL    HW142592   8.145  13.618   8.334
13565SOL    HW242593   8.040  13.514   8.368
13566SOL     OW42594  11.042   1.179   8.800
13566SOL    HW142595  10.995   1.184   8.883
13566SOL    HW242596  11.123   1.229   8.815
13567SOL     OW42597   1.240  11.301  12.872
13567SOL    HW142598   1.317  11.344  12.909
13567SOL    HW242599   1.167  11.358  12.896
13568SOL     OW42600   6.000  12.459   0.476
13568SOL    HW142601   6.095  12.460   0.481
13568SOL    HW242602   5.980  12.429   0.388
13569SOL     OW42603   0.438   1.373   3.927
13569SOL    HW142604   0.347   1.397   3.908
13569SOL    HW242605   0.490   1.438   3.881
13570SOL     OW42606   3.100   8.768   7.112
13570SOL    HW142607   3.140   8.687   7.143
13570SOL    HW242608   3.021   8.740   7.066
13571SOL     OW42609   7.004   1.748   6.805
13571SOL    HW142610   6.993   1.663   6.850
13571SOL    HW242611   7.029   1.725   6.716
13572SOL     OW42612  10.959   3.607  11.283
13572SOL    HW142613  10.879   3.622  11.333
13572SOL    HW242614  10.928   3.577  11.197
13573SOL     OW42615   5.370  10.746   2.346
13573SOL    HW142616   5.357  10.806   2.273
13573SOL    HW242617   5.282  10.718   2.370
13574SOL     OW42618   3.963   8.019  12.986
13574SOL    HW142619   3.915   8.102  12.983
13574SOL    HW242620   4.020   8.026  13.062
13575SOL     OW42621  11.440   1.480   2.461
13575SOL    HW142622  11.433   1.555   2.403
13575SOL    HW242623  11.431   1.517   2.549
13576SOL     OW42624   7.188  11.777   1.238
13576SOL    HW142625   7.115  11.809   1.185
13576SOL    HW242626   7.217  11.853   1.288
13577SOL     OW42627   5.721   4.938   1.956
13577SOL    HW142628   5.800   4.954   1.903
13577SOL    HW242629   5.653   4.990   1.913
13578SOL     OW42630   9.913   5.219   7.992
13578SOL    HW142631   9.847   5.201   8.059
13578SOL    HW242632   9.887   5.303   7.955
13579SOL     OW42633  12.690  12.560   0.741
13579SOL    HW142634  12.721  12.473   0.715
13579SOL    HW242635  12.718  12.570   0.832
13580SOL     OW42636  12.828   2.861   8.140
13580SOL    HW142637  12.856   2.816   8.219
13580SOL    HW242638  12.734   2.844   8.134
13581SOL     OW42639   0.561   5.430   6.217
13581SOL    HW142640   0.565   5.476   6.133
13581SOL    HW242641   0.537   5.497   6.280
13582SOL     OW42642  11.839   1.657   9.055
13582SOL    HW142643  11.859   1.574   9.011
13582SOL    HW242644  11.914   1.672   9.112
13583SOL     OW42645  14.256  14.419   3.236
13583SOL    HW142646  14.334  14.474   3.228
13583SOL    HW242647  14.186  14.480   3.258
13584SOL     OW42648  10.212   6.398   8.662
13584SOL    HW142649  10.236   6.486   8.690
13584SOL    HW242650  10.211   6.402   8.567
13585SOL     OW42651   9.458   1.898  13.786
13585SOL    HW142652   9.501   1.910  13.701
13585SOL    HW242653   9.399   1.823  13.772
13586SOL     OW42654   9.228   5.047  10.287
13586SOL    HW142655   9.240   5.068  10.194
13586SOL    HW242656   9.133   5.044  10.298
13587SOL     OW42657  14.457   3.230   2.561
13587SOL    HW142658  14.447   3.136   2.545
13587SOL    HW242659  14.371   3.258   2.592
13588SOL     OW42660   8.962  14.030  10.388
13588SOL    HW142661   8.982  13.959  10.328
13588SOL    HW242662   9.033  14.029  10.452
13589SOL     OW42663   0.713   3.051  11.287
13589SOL    HW142664   0.665   3.089  11.361
13589SOL    HW242665   0.710   2.957  11.303
13590SOL     OW42666   1.429   6.028  11.191
13590SOL    HW142667   1.448   5.942  11.153
13590SOL    HW242668   1.469   6.090  11.130
13591SOL     OW42669   8.527   4.010   5.415
13591SOL    HW142670   8.433   3.996   5.404
13591SOL    HW242671   8.533   4.089   5.469
13592SOL     OW42672   8.467  11.882   1.739
13592SOL    HW142673   8.504  11.882   1.828
13592SOL    HW242674   8.519  11.948   1.692
13593SOL     OW42675  14.560  14.711   1.382
13593SOL    HW142676  14.494  14.756   1.435
13593SOL    HW242677  14.643  14.732   1.424
13594SOL     OW42678   6.733   1.665   6.396
13594SOL    HW142679   6.686   1.585   6.418
13594SOL    HW242680   6.806   1.636   6.341
13595SOL     OW42681  12.201   0.667   8.543
13595SOL    HW142682  12.168   0.723   8.473
13595SOL    HW242683  12.292   0.695   8.555
13596SOL     OW42684  11.476   4.750   5.135
13596SOL    HW142685  11.385   4.718   5.138
13596SOL    HW242686  11.468   4.845   5.128
13597SOL     OW42687   3.906   4.709  14.782
13597SOL    HW142688   3.893   4.712   0.009
13597SOL    HW242689   3.924   4.616  14.764
13598SOL     OW42690  14.823   7.422   5.906
13598SOL    HW142691  14.816   7.356   5.837
13598SOL    HW242692  14.754   7.400   5.967
13599SOL     OW42693   1.319   2.511   7.246
13599SOL    HW142694   1.391   2.567   7.273
13599SOL    HW242695   1.312   2.524   7.152
13600SOL     OW42696   5.005   1.728   8.278
13600SOL    HW142697   4.946   1.653   8.277
13600SOL    HW242698   4.952   1.802   8.248
13601SOL     OW42699   7.306  11.925   4.378
13601SOL    HW142700   7.335  11.895   4.292
13601SOL    HW242701   7.341  11.860   4.439
13602SOL     OW42702  10.651   4.060   7.441
13602SOL    HW142703  10.576   4.012   7.475
13602SOL    HW242704  10.727   4.009   7.469
13603SOL     OW42705  10.353  13.935   7.144
13603SOL    HW142706  10.299  14.010   7.172
13603SOL    HW242707  10.330  13.923   7.052
13604SOL     OW42708  10.685   7.754  14.274
13604SOL    HW142709  10.696   7.671  14.321
13604SOL    HW242710  10.773   7.793  14.273
13605SOL     OW42711  12.812   4.306  11.221
13605SOL    HW142712  12.904   4.294  11.241
13605SOL    HW242713  12.767   4.293  11.305
13606SOL     OW42714  13.394  11.875  11.497
13606SOL    HW142715  13.356  11.870  11.584
13606SOL    HW242716  13.363  11.958  11.462
13607SOL     OW42717   5.548   2.877  11.356
13607SOL    HW142718   5.582   2.958  11.318
13607SOL    HW242719   5.625   2.819  11.360
13608SOL     OW42720   8.003  14.391   2.017
13608SOL    HW142721   8.052  14.412   1.938
13608SOL    HW242722   7.911  14.403   1.993
13609SOL     OW42723  12.013  12.162   7.739
13609SOL    HW142724  12.089  12.158   7.682
13609SOL    HW242725  11.954  12.094   7.708
13610SOL     OW42726   1.495   5.909   1.108
13610SOL    HW142727   1.472   5.828   1.061
13610SOL    HW242728   1.445   5.977   1.063
13611SOL     OW42729   5.655   0.459   6.327
13611SOL    HW142730   5.692   0.381   6.286
13611SOL    HW242731   5.676   0.530   6.266
13612SOL     OW42732  12.067   5.860   1.381
13612SOL    HW142733  12.086   5.896   1.467
13612SOL    HW242734  12.108   5.774   1.381
13613SOL     OW42735   3.830  14.382   9.684
13613SOL    HW142736   3.742  14.413   9.663
13613SOL    HW242737   3.864  14.347   9.602
13614SOL     OW42738   1.234  10.179  12.956
13614SOL    HW142739   1.228  10.259  13.008
13614SOL    HW242740   1.324  10.148  12.970
13615SOL     OW42741   7.553   4.296  11.752
13615SOL    HW142742   7.462   4.295  11.724
13615SOL    HW242743   7.576   4.389  11.753
13616SOL     OW42744   1.938   1.106   0.612
13616SOL    HW142745   1.853   1.090   0.571
13616SOL    HW242746   1.984   1.022   0.604
13617SOL     OW42747   4.741  13.711   3.260
13617SOL    HW142748   4.738  13.644   3.192
13617SOL    HW242749   4.833  13.715   3.286
13618SOL     OW42750  13.844  14.048   2.953
13618SOL    HW142751  13.769  13.989   2.960
13618SOL    HW242752  13.870  14.042   2.861
13619SOL     OW42753   6.768   4.268   7.076
13619SOL    HW142754   6.828   4.332   7.039
13619SOL    HW242755   6.821   4.190   7.091
13620SOL     OW42756   2.104  11.149  11.088
13620SOL    HW142757   2.082  11.057  11.069
13620SOL    HW242758   2.134  11.148  11.179
13621SOL     OW42759  12.005   9.792   2.342
13621SOL    HW142760  11.945   9.850   2.390
13621SOL    HW242761  12.092   9.814   2.376
13622SOL     OW42762   6.938   0.027   9.022
13622SOL    HW142763   7.011   0.088   9.025
13622SOL    HW242764   6.956  14.832   9.093
13623SOL     OW42765  10.376   7.197   6.475
13623SOL    HW142766  10.468   7.175   6.486
13623SOL    HW242767  10.369   7.287   6.507
13624SOL     OW42768   9.509   8.517  12.930
13624SOL    HW142769   9.417   8.531  12.908
13624SOL    HW242770   9.555   8.530  12.847
13625SOL     OW42771  11.622   6.624   4.035
13625SOL    HW142772  11.638   6.709   3.995
13625SOL    HW242773  11.586   6.570   3.963
13626SOL     OW42774  13.664   1.628   9.897
13626SOL    HW142775  13.581   1.649   9.854
13626SOL    HW242776  13.720   1.596   9.826
13627SOL     OW42777   4.335  13.559  14.631
13627SOL    HW142778   4.411  13.517  14.670
13627SOL    HW242779   4.266  13.493  14.634
13628SOL     OW42780   9.094   1.394   7.028
13628SOL    HW142781   9.008   1.391   6.988
13628SOL    HW242782   9.080   1.440   7.111
13629SOL     OW42783  12.090   3.804   4.269
13629SOL    HW142784  12.024   3.797   4.201
13629SOL    HW242785  12.060   3.874   4.326
13630SOL     OW42786   0.848   6.544   1.849
13630SOL    HW142787   0.890   6.601   1.912
13630SOL    HW242788   0.840   6.597   1.770
13631SOL     OW42789   5.723   9.349   9.907
13631SOL    HW142790   5.632   9.357   9.880
13631SOL    HW242791   5.728   9.266   9.953
13632SOL     OW42792  10.487   2.247   7.221
13632SOL    HW142793  10.445   2.204   7.146
13632SOL    HW242794  10.415   2.265   7.282
13633SOL     OW42795   8.077  10.400  12.326
13633SOL    HW142796   7.985  10.388  12.349
13633SOL    HW242797   8.123  10.334  12.378
13634SOL     OW42798   9.308   4.880   6.633
13634SOL    HW142799   9.257   4.945   6.585
13634SOL    HW242800   9.244   4.837   6.689
13635SOL     OW42801   1.976   4.026  11.828
13635SOL    HW142802   1.944   4.074  11.752
13635SOL    HW242803   2.071   4.019  11.813
13636SOL     OW42804   0.676   8.625  14.062
13636SOL    HW142805   0.757   8.675  14.046
13636SOL    HW242806   0.689   8.587  14.149
13637SOL     OW42807   1.259  10.420   9.641
13637SOL    HW142808   1.348  10.445   9.615
13637SOL    HW242809   1.203  10.487   9.601
13638SOL     OW42810  11.534  10.974  11.175
13638SOL    HW142811  11.580  11.022  11.243
13638SOL    HW242812  11.583  10.892  11.165
13639SOL     OW42813   3.623   6.875   4.214
13639SOL    HW142814   3.603   6.956   4.261
13639SOL    HW242815   3.541   6.826   4.215
13640SOL     OW42816   2.819   5.461   8.200
13640SOL    HW142817   2.778   5.479   8.284
13640SOL    HW242818   2.820   5.366   8.193
13641SOL     OW42819   1.909  12.394   3.871
13641SOL    HW142820   2.002  12.372   3.864
13641SOL    HW242821   1.867  12.344   3.801
13642SOL     OW42822  10.898   4.711   7.918
13642SOL    HW142823  10.966   4.645   7.906
13642SOL    HW242824  10.820   4.660   7.943
13643SOL     OW42825   8.535   3.117   0.792
13643SOL    HW142826   8.625   3.087   0.784
13643SOL    HW242827   8.536   3.206   0.756
13644SOL     OW42828   0.454  14.052   7.164
13644SOL    HW142829   0.372  14.038   7.212
13644SOL    HW242830   0.455  14.146   7.146
13645SOL     OW42831  10.279   8.599  12.563
13645SOL    HW142832  10.214   8.562  12.622
13645SOL    HW242833  10.233   8.604  12.478
13646SOL     OW42834   8.814   1.219   5.413
13646SOL    HW142835   8.746   1.270   5.369
13646SOL    HW242836   8.828   1.144   5.356
13647SOL     OW42837  10.163   0.950   2.985
13647SOL    HW142838  10.108   0.895   3.040
13647SOL    HW242839  10.127   1.038   2.994
13648SOL     OW42840   6.441  11.757  11.155
13648SOL    HW142841   6.493  11.756  11.235
13648SOL    HW242842   6.416  11.665  11.141
13649SOL     OW42843   6.408  12.761  10.051
13649SOL    HW142844   6.423  12.776  10.145
13649SOL    HW242845   6.469  12.820  10.007
13650SOL     OW42846   7.347  11.998   8.871
13650SOL    HW142847   7.369  11.909   8.842
13650SOL    HW242848   7.282  11.985   8.941
13651SOL     OW42849   5.966  14.698   7.846
13651SOL    HW142850   6.009  14.629   7.896
13651SOL    HW242851   5.876  14.667   7.836
13652SOL     OW42852   0.287   1.392   9.532
13652SOL    HW142853   0.366   1.386   9.584
13652SOL    HW242854   0.282   1.310   9.484
13653SOL     OW42855  12.446   9.161  10.915
13653SOL    HW142856  12.435   9.067  10.931
13653SOL    HW242857  12.486   9.194  10.995
13654SOL     OW42858  11.487   8.623   2.356
13654SOL    HW142859  11.392   8.634   2.352
13654SOL    HW242860  11.506   8.609   2.449
13655SOL     OW42861   6.325  10.334   8.060
13655SOL    HW142862   6.349  10.364   7.972
13655SOL    HW242863   6.358  10.403   8.118
13656SOL     OW42864   5.757   7.537   1.041
13656SOL    HW142865   5.768   7.496   0.955
13656SOL    HW242866   5.803   7.621   1.033
13657SOL     OW42867  12.079   2.545   2.554
13657SOL    HW142868  12.094   2.564   2.461
13657SOL    HW242869  12.067   2.631   2.594
13658SOL     OW42870   4.260   8.257   8.857
13658SOL    HW142871   4.231   8.167   8.873
13658SOL    HW242872   4.331   8.248   8.794
13659SOL     OW42873   1.422   1.884   2.702
13659SOL    HW142874   1.388   1.929   2.625
13659SOL    HW242875   1.357   1.817   2.722
13660SOL     OW42876  14.330  14.202   0.526
13660SOL    HW142877  14.309  14.124   0.475
13660SOL    HW242878  14.291  14.186   0.611
13661SOL     OW42879   4.210   7.465   8.365
13661SOL    HW142880   4.224   7.414   8.445
13661SOL    HW242881   4.295   7.464   8.321
13662SOL     OW42882  14.665  14.230  12.450
13662SOL    HW142883  14.570  14.230  12.434
13662SOL    HW242884  14.686  14.321  12.469
13663SOL     OW42885   5.194   4.635   5.649
13663SOL    HW142886   5.137   4.687   5.593
13663SOL    HW242887   5.279   4.677   5.644
13664SOL     OW42888   7.351   6.885   5.688
13664SOL    HW142889   7.427   6.865   5.633
13664SOL    HW242890   7.279   6.835   5.649
13665SOL     OW42891  11.658  11.442  12.845
13665SOL    HW142892  11.656  11.365  12.903
13665SOL    HW242893  11.598  11.419  12.774
13666SOL     OW42894  11.837  11.069   1.740
13666SOL    HW142895  11.761  11.013   1.752
13666SOL    HW242896  11.852  11.070   1.645
13667SOL     OW42897  12.347   0.645  10.122
13667SOL    HW142898  12.325   0.551  10.124
13667SOL    HW242899  12.442   0.647  10.122
13668SOL     OW42900   4.769  11.081   0.965
13668SOL    HW142901   4.753  11.172   0.989
13668SOL    HW242902   4.685  11.037   0.978
13669SOL     OW42903   9.864  11.315   4.497
13669SOL    HW142904   9.884  11.258   4.572
13669SOL    HW242905   9.909  11.274   4.423
13670SOL     OW42906   8.146   0.473   1.732
13670SOL    HW142907   8.239   0.454   1.732
13670SOL    HW242908   8.113   0.436   1.813
13671SOL     OW42909   1.053   4.731   3.318
13671SOL    HW142910   1.128   4.726   3.376
13671SOL    HW242911   1.087   4.706   3.232
13672SOL     OW42912  12.205   2.060  13.312
13672SOL    HW142913  12.222   2.049  13.406
13672SOL    HW242914  12.244   2.144  13.290
13673SOL     OW42915   7.428   7.092   6.834
13673SOL    HW142916   7.387   7.032   6.896
13673SOL    HW242917   7.358   7.116   6.774
13674SOL     OW42918  12.368  12.306   5.782
13674SOL    HW142919  12.393  12.362   5.708
13674SOL    HW242920  12.301  12.248   5.746
13675SOL     OW42921   5.544   2.777   5.094
13675SOL    HW142922   5.560   2.744   5.182
13675SOL    HW242923   5.452   2.758   5.077
13676SOL     OW42924   4.687   6.066   8.691
13676SOL    HW142925   4.766   6.045   8.641
13676SOL    HW242926   4.674   6.160   8.676
13677SOL     OW42927  12.913   5.307   7.080
13677SOL    HW142928  12.933   5.389   7.125
13677SOL    HW242929  12.823   5.287   7.106
13678SOL     OW42930   8.648   1.358   8.847
13678SOL    HW142931   8.714   1.292   8.828
13678SOL    HW242932   8.644   1.362   8.942
13679SOL     OW42933  14.518   6.101   3.916
13679SOL    HW142934  14.472   6.120   3.998
13679SOL    HW242935  14.568   6.022   3.935
13680SOL     OW42936   3.006   4.480  14.116
13680SOL    HW142937   2.946   4.495  14.043
13680SOL    HW242938   3.046   4.566  14.133
13681SOL     OW42939   1.853  11.524  12.917
13681SOL    HW142940   1.769  11.543  12.875
13681SOL    HW242941   1.832  11.510  13.009
13682SOL     OW42942   5.977   0.526   6.035
13682SOL    HW142943   6.046   0.532   6.101
13682SOL    HW242944   5.944   0.436   6.043
13683SOL     OW42945   4.568  14.683   0.949
13683SOL    HW142946   4.604  14.747   0.888
13683SOL    HW242947   4.474  14.681   0.929
13684SOL     OW42948   2.818  13.377   0.927
13684SOL    HW142949   2.747  13.439   0.916
13684SOL    HW242950   2.835  13.344   0.838
13685SOL     OW42951   5.392  14.116   9.423
13685SOL    HW142952   5.319  14.097   9.482
13685SOL    HW242953   5.352  14.141   9.340
13686SOL     OW42954   1.131   9.379   1.935
13686SOL    HW142955   1.093   9.388   1.847
13686SOL    HW242956   1.157   9.468   1.959
13687SOL     OW42957  13.767   2.873  10.204
13687SOL    HW142958  13.840   2.925  10.238
13687SOL    HW242959  13.696   2.886  10.267
13688SOL     OW42960   8.108  11.698   3.282
13688SOL    HW142961   8.086  11.789   3.262
13688SOL    HW242962   8.024  11.652   3.279
13689SOL     OW42963   6.648   4.516   5.084
13689SOL    HW142964   6.654   4.527   5.179
13689SOL    HW242965   6.591   4.588   5.055
13690SOL     OW42966   8.898   5.989  12.616
13690SOL    HW142967   8.905   6.052  12.688
13690SOL    HW242968   8.938   6.034  12.541
13691SOL     OW42969   3.406   1.401  14.733
13691SOL    HW142970   3.466   1.403  14.808
13691SOL    HW242971   3.371   1.312  14.732
13692SOL     OW42972   3.071  12.208   9.991
13692SOL    HW142973   2.989  12.245  10.023
13692SOL    HW242974   3.080  12.244   9.902
13693SOL     OW42975   8.311  11.235   2.495
13693SOL    HW142976   8.257  11.159   2.517
13693SOL    HW242977   8.252  11.293   2.446
13694SOL     OW42978  14.064   3.844   8.692
13694SOL    HW142979  14.109   3.923   8.721
13694SOL    HW242980  13.985   3.839   8.745
13695SOL     OW42981   8.252   9.747  11.314
13695SOL    HW142982   8.314   9.686  11.356
13695SOL    HW242983   8.177   9.749  11.374
13696SOL     OW42984   0.877  13.011   6.052
13696SOL    HW142985   0.946  13.071   6.022
13696SOL    HW242986   0.859  12.955   5.976
13697SOL     OW42987  13.264   5.184  12.485
13697SOL    HW142988  13.327   5.243  12.442
13697SOL    HW242989  13.202   5.243  12.528
13698SOL     OW42990  12.466   9.354   6.171
13698SOL    HW142991  12.452   9.314   6.257
13698SOL    HW242992  12.443   9.286   6.108
13699SOL     OW42993   2.822   7.421   7.382
13699SOL    HW142994   2.803   7.513   7.365
13699SOL    HW242995   2.910   7.408   7.346
13700SOL     OW42996   3.360   6.556   0.091
13700SOL    HW142997   3.302   6.506   0.148
13700SOL    HW242998   3.424   6.596   0.150
13701SOL     OW42999   1.017  14.579  12.898
13701SOL    HW143000   1.110  14.601  12.891
13701SOL    HW243001   0.983  14.643  12.961
13702SOL     OW43002   7.179   4.739   5.605
13702SOL    HW143003   7.145   4.826   5.626
13702SOL    HW243004   7.146   4.721   5.517
13703SOL     OW43005  11.597  12.608   8.917
13703SOL    HW143006  11.692  12.600   8.908
13703SOL    HW243007  11.570  12.527   8.961
13704SOL     OW43008   8.888   2.300  13.873
13704SOL    HW143009   8.916   2.370  13.814
13704SOL    HW243010   8.967   2.247  13.886
13705SOL     OW43011   7.293   7.166  11.937
13705SOL    HW143012   7.370   7.183  11.883
13705SOL    HW243013   7.272   7.252  11.976
13706SOL     OW43014   6.284  10.504   8.283
13706SOL    HW143015   6.369  10.547   8.294
13706SOL    HW243016   6.221  10.563   8.323
13707SOL     OW43017  12.872   7.630   2.096
13707SOL    HW143018  12.812   7.622   2.022
13707SOL    HW243019  12.815   7.629   2.173
13708SOL     OW43020   3.867  14.404   9.116
13708SOL    HW143021   3.875  14.464   9.042
13708SOL    HW243022   3.957  14.380   9.137
13709SOL     OW43023  12.186   0.668  13.111
13709SOL    HW143024  12.266   0.700  13.153
13709SOL    HW243025  12.163   0.589  13.160
13710SOL     OW43026  13.843  11.239  11.683
13710SOL    HW143027  13.863  11.328  11.656
13710SOL    HW243028  13.803  11.248  11.769
13711SOL     OW43029   2.192   5.318  10.062
13711SOL    HW143030   2.216   5.284   9.975
13711SOL    HW243031   2.097   5.330  10.057
13712SOL     OW43032   1.011   3.181   9.279
13712SOL    HW143033   1.077   3.125   9.320
13712SOL    HW243034   0.937   3.123   9.263
13713SOL     OW43035  12.195  11.092   6.390
13713SOL    HW143036  12.262  11.093   6.458
13713SOL    HW243037  12.124  11.040   6.426
13714SOL     OW43038  13.855  14.379  11.087
13714SOL    HW143039  13.774  14.378  11.036
13714SOL    HW243040  13.848  14.302  11.144
13715SOL     OW43041   8.314   6.412   5.801
13715SOL    HW143042   8.290   6.333   5.850
13715SOL    HW243043   8.278   6.483   5.853
13716SOL     OW43044  10.648   0.770   0.354
13716SOL    HW143045  10.718   0.823   0.392
13716SOL    HW243046  10.570   0.792   0.406
13717SOL     OW43047  10.486   1.566   4.302
13717SOL    HW143048  10.435   1.627   4.249
13717SOL    HW243049  10.573   1.567   4.261
13718SOL     OW43050  10.232   4.325  13.742
13718SOL    HW143051  10.287   4.247  13.745
13718SOL    HW243052  10.144   4.293  13.759
13719SOL     OW43053   9.990   2.756   1.937
13719SOL    HW143054   9.919   2.692   1.927
13719SOL    HW243055   9.960   2.833   1.887
13720SOL     OW43056   3.402   5.407   1.873
13720SOL    HW143057   3.319   5.359   1.878
13720SOL    HW243058   3.468   5.339   1.863
13721SOL     OW43059   6.006   9.626  11.211
13721SOL    HW143060   6.087   9.633  11.260
13721SOL    HW243061   5.978   9.535  11.224
13722SOL     OW43062  10.969  10.353   0.952
13722SOL    HW143063  10.887  10.402   0.947
13722SOL    HW243064  10.985  10.324   0.862
13723SOL     OW43065   5.937   5.846   5.602
13723SOL    HW143066   6.032   5.839   5.617
13723SOL    HW243067   5.922   5.939   5.585
13724SOL     OW43068  10.099   3.195  11.888
13724SOL    HW143069  10.080   3.155  11.803
13724SOL    HW243070  10.072   3.129  11.952
13725SOL     OW43071   6.932   7.916   5.740
13725SOL    HW143072   6.956   8.001   5.779
13725SOL    HW243073   6.976   7.851   5.794
13726SOL     OW43074  11.433   7.559   9.458
13726SOL    HW143075  11.472   7.602   9.534
13726SOL    HW243076  11.348   7.529   9.489
13727SOL     OW43077   2.342   1.973  11.100
13727SOL    HW143078   2.402   1.900  11.110
13727SOL    HW243079   2.386   2.032  11.039
13728SOL     OW43080   5.481   4.289  12.874
13728SOL    HW143081   5.436   4.207  12.893
13728SOL    HW243082   5.468   4.303  12.780
13729SOL     OW43083   9.146  12.468  10.557
13729SOL    HW143084   9.077  12.403  10.564
13729SOL    HW243085   9.107  12.549  10.590
13730SOL     OW43086   8.147  11.655   5.963
13730SOL    HW143087   8.180  11.657   6.052
13730SOL    HW243088   8.167  11.742   5.928
13731SOL     OW43089   4.947   0.151   3.408
13731SOL    HW143090   4.986   0.208   3.342
13731SOL    HW243091   5.021   0.123   3.463
13732SOL     OW43092   7.319  11.693   9.880
13732SOL    HW143093   7.374  11.628   9.837
13732SOL    HW243094   7.229  11.668   9.858
13733SOL     OW43095  13.724  13.379   0.967
13733SOL    HW143096  13.725  13.440   0.893
13733SOL    HW243097  13.754  13.431   1.042
13734SOL     OW43098   8.799   7.264   5.776
13734SOL    HW143099   8.839   7.322   5.712
13734SOL    HW243100   8.872   7.231   5.828
13735SOL     OW43101   5.269  10.285   0.878
13735SOL    HW143102   5.231  10.272   0.965
13735SOL    HW243103   5.256  10.202   0.833
13736SOL     OW43104   7.714  13.266   4.459
13736SOL    HW143105   7.630  13.300   4.429
13736SOL    HW243106   7.779  13.320   4.415
13737SOL     OW43107  12.929   0.137   0.971
13737SOL    HW143108  12.907   0.046   0.993
13737SOL    HW243109  12.895   0.149   0.883
13738SOL     OW43110  12.279   4.271   1.364
13738SOL    HW143111  12.321   4.321   1.294
13738SOL    HW243112  12.209   4.223   1.320
13739SOL     OW43113   1.836  12.285   0.627
13739SOL    HW143114   1.756  12.291   0.679
13739SOL    HW243115   1.898  12.240   0.683
13740SOL     OW43116  13.625   2.262  10.609
13740SOL    HW143117  13.658   2.240  10.696
13740SOL    HW243118  13.629   2.180  10.560
13741SOL     OW43119   8.639  10.681   6.624
13741SOL    HW143120   8.642  10.771   6.656
13741SOL    HW243121   8.597  10.687   6.538
13742SOL     OW43122   4.795   2.440   7.758
13742SOL    HW143123   4.883   2.430   7.721
13742SOL    HW243124   4.774   2.354   7.795
13743SOL     OW43125   8.090   7.522   7.445
13743SOL    HW143126   8.020   7.480   7.494
13743SOL    HW243127   8.098   7.471   7.365
13744SOL     OW43128   1.344   4.980  12.992
13744SOL    HW143129   1.351   4.987  12.897
13744SOL    HW243130   1.432   4.997  13.024
13745SOL     OW43131  12.032   9.988  13.159
13745SOL    HW143132  11.992  10.073  13.181
13745SOL    HW243133  12.009   9.931  13.232
13746SOL     OW43134  11.744   3.492  11.762
13746SOL    HW143135  11.698   3.520  11.841
13746SOL    HW243136  11.818   3.440  11.794
13747SOL     OW43137  14.537   7.527   5.735
13747SOL    HW143138  14.586   7.554   5.813
13747SOL    HW243139  14.596   7.547   5.662
13748SOL     OW43140   8.947   5.832   1.779
13748SOL    HW143141   8.991   5.870   1.703
13748SOL    HW243142   8.899   5.905   1.818
13749SOL     OW43143  10.910   3.231  10.071
13749SOL    HW143144  10.856   3.169  10.021
13749SOL    HW243145  10.998   3.194  10.067
13750SOL     OW43146   0.748   0.722  13.626
13750SOL    HW143147   0.787   0.806  13.599
13750SOL    HW243148   0.761   0.720  13.721
13751SOL     OW43149  10.620   4.070   3.765
13751SOL    HW143150  10.567   3.997   3.733
13751SOL    HW243151  10.579   4.148   3.729
13752SOL     OW43152  10.565   3.461  12.236
13752SOL    HW143153  10.519   3.379  12.258
13752SOL    HW243154  10.516   3.529  12.281
13753SOL     OW43155  10.289   1.800   5.933
13753SOL    HW143156  10.274   1.714   5.973
13753SOL    HW243157  10.327   1.780   5.848
13754SOL     OW43158   5.698   3.216   8.212
13754SOL    HW143159   5.777   3.164   8.198
13754SOL    HW243160   5.727   3.286   8.271
13755SOL     OW43161   8.611   4.717   7.213
13755SOL    HW143162   8.565   4.801   7.201
13755SOL    HW243163   8.658   4.728   7.296
13756SOL     OW43164   1.526   4.284   3.168
13756SOL    HW143165   1.533   4.192   3.145
13756SOL    HW243166   1.509   4.329   3.086
13757SOL     OW43167   4.585   0.940   5.947
13757SOL    HW143168   4.583   0.968   5.856
13757SOL    HW243169   4.557   0.849   5.945
13758SOL     OW43170  10.131   8.420   9.044
13758SOL    HW143171  10.121   8.405   8.950
13758SOL    HW243172  10.175   8.505   9.051
13759SOL     OW43173  14.683   1.428  13.855
13759SOL    HW143174  14.774   1.398  13.857
13759SOL    HW243175  14.657   1.422  13.763
13760SOL     OW43176   4.223   1.016   2.197
13760SOL    HW143177   4.301   0.999   2.144
13760SOL    HW243178   4.219   1.111   2.205
13761SOL     OW43179   4.299  14.729   3.168
13761SOL    HW143180   4.278  14.813   3.128
13761SOL    HW243181   4.264  14.735   3.257
13762SOL     OW43182   9.627   5.997  11.338
13762SOL    HW143183   9.554   6.038  11.385
13762SOL    HW243184   9.641   6.053  11.262
13763SOL     OW43185   8.405  11.872  10.652
13763SOL    HW143186   8.486  11.836  10.688
13763SOL    HW243187   8.402  11.962  10.684
13764SOL     OW43188   5.715  13.525   2.731
13764SOL    HW143189   5.659  13.545   2.657
13764SOL    HW243190   5.655  13.501   2.801
13765SOL     OW43191   9.106   9.857   8.027
13765SOL    HW143192   9.021   9.822   8.001
13765SOL    HW243193   9.167   9.822   7.962
13766SOL     OW43194  11.917   8.380   3.027
13766SOL    HW143195  11.962   8.338   3.101
13766SOL    HW243196  11.867   8.309   2.986
13767SOL     OW43197   7.619   6.882  13.475
13767SOL    HW143198   7.610   6.850  13.564
13767SOL    HW243199   7.712   6.872  13.456
13768SOL     OW43200   2.376  10.986   9.167
13768SOL    HW143201   2.425  11.067   9.184
13768SOL    HW243202   2.334  11.000   9.082
13769SOL     OW43203   2.633   4.340   3.382
13769SOL    HW143204   2.658   4.291   3.461
13769SOL    HW243205   2.716   4.372   3.347
13770SOL     OW43206  10.129  11.503  13.416
13770SOL    HW143207  10.161  11.433  13.359
13770SOL    HW243208  10.180  11.580  13.391
13771SOL     OW43209  11.628   4.729  13.904
13771SOL    HW143210  11.600   4.763  13.989
13771SOL    HW243211  11.722   4.712  13.914
13772SOL     OW43212   6.979   4.695  12.830
13772SOL    HW143213   6.898   4.745  12.837
13772SOL    HW243214   6.991   4.682  12.736
13773SOL     OW43215   1.211   4.093  10.035
13773SOL    HW143216   1.280   4.095   9.969
13773SOL    HW243217   1.228   4.014  10.086
13774SOL     OW43218  10.314   7.744   2.510
13774SOL    HW143219  10.218   7.741   2.501
13774SOL    HW243220  10.345   7.670   2.457
13775SOL     OW43221   9.491  10.276   8.139
13775SOL    HW143222   9.512  10.317   8.055
13775SOL    HW243223   9.399  10.300   8.155
13776SOL     OW43224   2.142  10.410   7.454
13776SOL    HW143225   2.061  10.460   7.445
13776SOL    HW243226   2.153  10.367   7.369
13777SOL     OW43227   0.172   7.545   3.280
13777SOL    HW143228   0.268   7.538   3.274
13777SOL    HW243229   0.153   7.636   3.260
13778SOL     OW43230   5.678  13.317   5.180
13778SOL    HW143231   5.633  13.397   5.207
13778SOL    HW243232   5.619  13.277   5.117
13779SOL     OW43233   9.548   6.465  10.268
13779SOL    HW143234   9.608   6.429  10.333
13779SOL    HW243235   9.587   6.442  10.184
13780SOL     OW43236   7.239   6.744  10.377
13780SOL    HW143237   7.157   6.790  10.396
13780SOL    HW243238   7.232   6.721  10.285
13781SOL     OW43239  12.252  12.561  13.477
13781SOL    HW143240  12.279  12.475  13.509
13781SOL    HW243241  12.333  12.611  13.469
13782SOL     OW43242   8.016  12.000   2.386
13782SOL    HW143243   7.934  12.047   2.372
13782SOL    HW243244   8.017  11.933   2.318
13783SOL     OW43245  11.063   8.355  14.393
13783SOL    HW143246  10.981   8.312  14.418
13783SOL    HW243247  11.125   8.330  14.461
13784SOL     OW43248  12.246   0.290   1.098
13784SOL    HW143249  12.276   0.298   1.189
13784SOL    HW243250  12.243   0.380   1.066
13785SOL     OW43251   5.816   5.355  11.109
13785SOL    HW143252   5.792   5.426  11.049
13785SOL    HW243253   5.762   5.371  11.186
13786SOL     OW43254   3.416   0.649   4.163
13786SOL    HW143255   3.447   0.731   4.127
13786SOL    HW243256   3.459   0.581   4.111
13787SOL     OW43257   4.742  13.782  10.749
13787SOL    HW143258   4.818  13.735  10.782
13787SOL    HW243259   4.670  13.720  10.757
13788SOL     OW43260  10.816   3.220   4.222
13788SOL    HW143261  10.842   3.135   4.188
13788SOL    HW243262  10.842   3.218   4.314
13789SOL     OW43263   9.227   9.597   5.694
13789SOL    HW143264   9.195   9.550   5.617
13789SOL    HW243265   9.155   9.654   5.719
13790SOL     OW43266   7.725  13.334   2.748
13790SOL    HW143267   7.664  13.261   2.744
13790SOL    HW243268   7.688  13.393   2.813
13791SOL     OW43269  12.096   2.919   6.392
13791SOL    HW143270  12.178   2.883   6.425
13791SOL    HW243271  12.117   2.948   6.303
13792SOL     OW43272   9.739   7.684   8.308
13792SOL    HW143273   9.768   7.631   8.233
13792SOL    HW243274   9.664   7.637   8.343
13793SOL     OW43275  10.517   2.662   0.078
13793SOL    HW143276  10.509   2.648   0.172
13793SOL    HW243277  10.435   2.704   0.053
13794SOL     OW43278   2.978   5.907  13.740
13794SOL    HW143279   2.907   5.923  13.802
13794SOL    HW243280   3.048   5.870  13.793
13795SOL     OW43281   9.170  10.049   4.802
13795SOL    HW143282   9.109  10.036   4.874
13795SOL    HW243283   9.165   9.968   4.751
13796SOL     OW43284  12.979   5.145   6.866
13796SOL    HW143285  12.922   5.204   6.915
13796SOL    HW243286  13.068   5.174   6.887
13797SOL     OW43287   9.212  14.033   6.111
13797SOL    HW143288   9.175  14.112   6.151
13797SOL    HW243289   9.140  13.995   6.062
13798SOL     OW43290  10.623   2.383   6.879
13798SOL    HW143291  10.710   2.407   6.911
13798SOL    HW243292  10.597   2.457   6.824
13799SOL     OW43293   8.937   2.438   2.089
13799SOL    HW143294   8.856   2.469   2.130
13799SOL    HW243295   8.984   2.518   2.065
13800SOL     OW43296   1.244  14.489   1.961
13800SOL    HW143297   1.198  14.439   2.028
13800SOL    HW243298   1.230  14.439   1.880
13801SOL     OW43299   9.837   9.773   4.466
13801SOL    HW143300   9.879   9.784   4.551
13801SOL    HW243301   9.896   9.717   4.416
13802SOL     OW43302   1.181   9.138   8.243
13802SOL    HW143303   1.198   9.217   8.192
13802SOL    HW243304   1.200   9.066   8.182
13803SOL     OW43305   3.216  10.604  11.434
13803SOL    HW143306   3.154  10.632  11.502
13803SOL    HW243307   3.164  10.549  11.375
13804SOL     OW43308  10.466   7.413  11.583
13804SOL    HW143309  10.531   7.483  11.584
13804SOL    HW243310  10.501   7.347  11.643
13805SOL     OW43311  14.630   8.180   0.381
13805SOL    HW143312  14.597   8.256   0.331
13805SOL    HW243313  14.725   8.183   0.369
13806SOL     OW43314  13.418   7.776   0.302
13806SOL    HW143315  13.425   7.871   0.294
13806SOL    HW243316  13.324   7.759   0.294
13807SOL     OW43317  12.101   3.866   5.987
13807SOL    HW143318  12.156   3.843   6.062
13807SOL    HW243319  12.081   3.959   6.000
13808SOL     OW43320   9.331   1.448  10.914
13808SOL    HW143321   9.298   1.450  10.824
13808SOL    HW243322   9.253   1.438  10.968
13809SOL     OW43323  13.876  10.925   1.467
13809SOL    HW143324  13.791  10.881   1.462
13809SOL    HW243325  13.879  10.962   1.555
13810SOL     OW43326  11.477   3.163  14.431
13810SOL    HW143327  11.483   3.255  14.457
13810SOL    HW243328  11.558   3.146  14.384
13811SOL     OW43329  12.124   8.141  10.229
13811SOL    HW143330  12.144   8.234  10.217
13811SOL    HW243331  12.209   8.097  10.220
13812SOL     OW43332  13.332  10.803   6.253
13812SOL    HW143333  13.309  10.872   6.190
13812SOL    HW243334  13.424  10.820   6.275
13813SOL     OW43335   5.918   6.145  13.432
13813SOL    HW143336   5.996   6.141  13.377
13813SOL    HW243337   5.848   6.175  13.374
13814SOL     OW43338   5.254  14.099   2.728
13814SOL    HW143339   5.282  14.141   2.810
13814SOL    HW243340   5.250  14.170   2.664
13815SOL     OW43341  12.150   9.916  14.575
13815SOL    HW143342  12.218   9.877  14.630
13815SOL    HW243343  12.180  10.006  14.560
13816SOL     OW43344   7.973   6.509   8.811
13816SOL    HW143345   7.963   6.583   8.752
13816SOL    HW243346   8.059   6.521   8.851
13817SOL     OW43347   7.718   9.194   5.121
13817SOL    HW143348   7.812   9.180   5.107
13817SOL    HW243349   7.704   9.286   5.100
13818SOL     OW43350   9.336   1.545   3.684
13818SOL    HW143351   9.295   1.464   3.654
13818SOL    HW243352   9.263   1.603   3.705
13819SOL     OW43353   7.555   1.570   2.344
13819SOL    HW143354   7.533   1.643   2.286
13819SOL    HW243355   7.474   1.554   2.394
13820SOL     OW43356  13.811  12.593  10.600
13820SOL    HW143357  13.829  12.535  10.674
13820SOL    HW243358  13.743  12.547  10.550
13821SOL     OW43359  10.841   7.750   7.495
13821SOL    HW143360  10.771   7.725   7.556
13821SOL    HW243361  10.895   7.671   7.489
13822SOL     OW43362   5.331   3.365   3.889
13822SOL    HW143363   5.287   3.311   3.954
13822SOL    HW243364   5.419   3.327   3.881
13823SOL     OW43365  11.516   5.755  10.956
13823SOL    HW143366  11.455   5.686  10.982
13823SOL    HW243367  11.565   5.717  10.883
13824SOL     OW43368   2.296   8.924   3.063
13824SOL    HW143369   2.359   8.918   2.992
13824SOL    HW243370   2.238   8.995   3.038
13825SOL     OW43371   2.152   4.120  12.467
13825SOL    HW143372   2.195   4.190  12.418
13825SOL    HW243373   2.091   4.166  12.525
13826SOL     OW43374   9.751   3.148   9.786
13826SOL    HW143375   9.763   3.220   9.723
13826SOL    HW243376   9.657   3.133   9.787
13827SOL     OW43377  13.421   7.351   6.598
13827SOL    HW143378  13.343   7.327   6.648
13827SOL    HW243379  13.410   7.445   6.580
13828SOL     OW43380   7.094   2.294  10.918
13828SOL    HW143381   7.161   2.362  10.909
13828SOL    HW243382   7.037   2.326  10.989
13829SOL     OW43383   2.324   4.861   0.909
13829SOL    HW143384   2.274   4.814   0.975
13829SOL    HW243385   2.273   4.850   0.828
13830SOL     OW43386   1.222  14.157   4.205
13830SOL    HW143387   1.305  14.142   4.161
13830SOL    HW243388   1.157  14.155   4.135
13831SOL     OW43389   2.273  10.877   3.237
13831SOL    HW143390   2.341  10.914   3.181
13831SOL    HW243391   2.265  10.786   3.209
13832SOL     OW43392   7.698  14.236   4.215
13832SOL    HW143393   7.629  14.190   4.168
13832SOL    HW243394   7.674  14.229   4.307
13833SOL     OW43395   3.746   5.095   0.407
13833SOL    HW143396   3.830   5.141   0.398
13833SOL    HW243397   3.681   5.165   0.414
13834SOL     OW43398   9.460   0.658   0.782
13834SOL    HW143399   9.515   0.690   0.710
13834SOL    HW243400   9.415   0.582   0.746
13835SOL     OW43401  11.081  11.234   8.683
13835SOL    HW143402  11.161  11.182   8.675
13835SOL    HW243403  11.111  11.321   8.710
13836SOL     OW43404   3.939  11.465  14.483
13836SOL    HW143405   3.890  11.542  14.513
13836SOL    HW243406   3.915  11.396  14.543
13837SOL     OW43407   1.414  13.910   4.977
13837SOL    HW143408   1.453  13.997   4.971
13837SOL    HW243409   1.337  13.914   4.921
13838SOL     OW43410   6.983  12.264   9.476
13838SOL    HW143411   6.980  12.168   9.478
13838SOL    HW243412   6.968  12.290   9.567
13839SOL     OW43413   7.827   4.749   4.302
13839SOL    HW143414   7.739   4.766   4.268
13839SOL    HW243415   7.867   4.836   4.307
13840SOL     OW43416   2.946   2.244  14.091
13840SOL    HW143417   2.965   2.193  14.170
13840SOL    HW243418   3.020   2.304  14.083
13841SOL     OW43419  11.952  10.698  11.563
13841SOL    HW143420  11.882  10.644  11.526
13841SOL    HW243421  11.913  10.785  11.570
13842SOL     OW43422   2.467   6.201  11.736
13842SOL    HW143423   2.477   6.106  11.732
13842SOL    HW243424   2.532   6.235  11.674
13843SOL     OW43425  11.510   1.761   1.327
13843SOL    HW143426  11.507   1.717   1.242
13843SOL    HW243427  11.514   1.690   1.391
13844SOL     OW43428   1.090  13.096  13.809
13844SOL    HW143429   1.113  13.030  13.744
13844SOL    HW243430   0.998  13.077  13.830
13845SOL     OW43431   9.427   5.131   7.334
13845SOL    HW143432   9.506   5.119   7.281
13845SOL    HW243433   9.355   5.113   7.274
13846SOL     OW43434   0.512  13.397  10.047
13846SOL    HW143435   0.450  13.358  10.109
13846SOL    HW243436   0.458  13.424   9.973
13847SOL     OW43437   9.965  14.429  13.008
13847SOL    HW143438   9.937  14.470  12.925
13847SOL    HW243439   9.887  14.435  13.064
13848SOL     OW43440  10.154  12.226   8.252
13848SOL    HW143441  10.236  12.238   8.299
13848SOL    HW243442  10.088  12.220   8.321
13849SOL     OW43443  13.033  10.813   5.993
13849SOL    HW143444  13.124  10.841   6.004
13849SOL    HW243445  13.039  10.731   5.944
13850SOL     OW43446  14.857  14.381  14.301
13850SOL    HW143447  14.806  14.357  14.379
13850SOL    HW243448  14.810  14.456  14.265
13851SOL     OW43449   5.834   9.866   7.590
13851SOL    HW143450   5.929   9.866   7.602
13851SOL    HW243451   5.817   9.943   7.536
13852SOL     OW43452   9.809   2.170   0.228
13852SOL    HW143453   9.885   2.116   0.248
13852SOL    HW243454   9.819   2.194   0.136
13853SOL     OW43455   9.822   4.895   4.145
13853SOL    HW143456   9.771   4.877   4.223
13853SOL    HW243457   9.805   4.987   4.125
13854SOL     OW43458   8.322   0.673   0.523
13854SOL    HW143459   8.403   0.716   0.494
13854SOL    HW243460   8.289   0.630   0.445
13855SOL     OW43461   2.390   3.567  11.868
13855SOL    HW143462   2.404   3.660  11.885
13855SOL    HW243463   2.308   3.564  11.818
13856SOL     OW43464   0.197  11.056  11.584
13856SOL    HW143465   0.251  11.064  11.663
13856SOL    HW243466   0.173  11.146  11.562
13857SOL     OW43467  11.847   2.670  10.095
13857SOL    HW143468  11.772   2.725  10.119
13857SOL    HW243469  11.919   2.733  10.082
13858SOL     OW43470  11.908   5.655  14.737
13858SOL    HW143471  11.869   5.579  14.782
13858SOL    HW243472  11.858   5.663  14.656
13859SOL     OW43473   2.893   5.129  10.005
13859SOL    HW143474   2.985   5.153   9.994
13859SOL    HW243475   2.851   5.207  10.040
13860SOL     OW43476  11.494   4.604   8.533
13860SOL    HW143477  11.423   4.667   8.539
13860SOL    HW243478  11.512   4.596   8.439
13861SOL     OW43479   7.499  13.950  11.833
13861SOL    HW143480   7.411  13.916  11.814
13861SOL    HW243481   7.497  13.971  11.926
13862SOL     OW43482  12.143  12.728   2.502
13862SOL    HW143483  12.136  12.751   2.410
13862SOL    HW243484  12.209  12.659   2.505
13863SOL     OW43485  14.597   8.397  12.112
13863SOL    HW143486  14.532   8.435  12.172
13863SOL    HW243487  14.647   8.472  12.080
13864SOL     OW43488  11.112   1.126  14.576
13864SOL    HW143489  11.034   1.175  14.599
13864SOL    HW243490  11.184   1.177  14.614
13865SOL     OW43491   7.531  12.188   2.807
13865SOL    HW143492   7.606  12.244   2.787
13865SOL    HW243493   7.478  12.190   2.727
13866SOL     OW43494  12.715   1.288   7.511
13866SOL    HW143495  12.742   1.215   7.566
13866SOL    HW243496  12.648   1.251   7.453
13867SOL     OW43497  13.513   7.056   3.638
13867SOL    HW143498  13.472   7.099   3.563
13867SOL    HW243499  13.444   7.051   3.704
13868SOL     OW43500  11.406  14.572   0.829
13868SOL    HW143501  11.440  14.598   0.743
13868SOL    HW243502  11.393  14.478   0.822
13869SOL     OW43503   5.242  14.646   4.915
13869SOL    HW143504   5.328  14.658   4.956
13869SOL    HW243505   5.183  14.702   4.966
13870SOL     OW43506  11.642   9.030  14.109
13870SOL    HW143507  11.717   8.998  14.160
13870SOL    HW243508  11.680   9.060  14.027
13871SOL     OW43509  13.134  11.204   7.265
13871SOL    HW143510  13.059  11.214   7.324
13871SOL    HW243511  13.152  11.110   7.266
13872SOL     OW43512  12.550  10.603   2.691
13872SOL    HW143513  12.550  10.513   2.724
13872SOL    HW243514  12.611  10.602   2.618
13873SOL     OW43515  11.738   8.960   8.166
13873SOL    HW143516  11.776   8.913   8.241
13873SOL    HW243517  11.644   8.943   8.173
13874SOL     OW43518   2.324  12.701   6.958
13874SOL    HW143519   2.288  12.621   6.917
13874SOL    HW243520   2.406  12.717   6.910
13875SOL     OW43521   1.227   3.051   3.000
13875SOL    HW143522   1.281   3.006   2.935
13875SOL    HW243523   1.170   3.108   2.949
13876SOL     OW43524  13.896   2.540  12.809
13876SOL    HW143525  13.864   2.531  12.719
13876SOL    HW243526  13.973   2.483  12.812
13877SOL     OW43527   4.400  14.393  12.464
13877SOL    HW143528   4.343  14.402  12.388
13877SOL    HW243529   4.361  14.449  12.531
13878SOL     OW43530  14.323  11.406  10.718
13878SOL    HW143531  14.382  11.480  10.702
13878SOL    HW243532  14.372  11.349  10.777
13879SOL     OW43533   9.894   5.031  12.906
13879SOL    HW143534   9.810   5.036  12.860
13879SOL    HW243535   9.883   4.958  12.967
13880SOL     OW43536   6.068   5.123   1.899
13880SOL    HW143537   6.124   5.054   1.935
13880SOL    HW243538   5.998   5.076   1.854
13881SOL     OW43539  12.733   8.910   3.597
13881SOL    HW143540  12.639   8.908   3.577
13881SOL    HW243541  12.740   8.966   3.674
13882SOL     OW43542   9.785   8.217  10.715
13882SOL    HW143543   9.691   8.219  10.735
13882SOL    HW243544   9.816   8.305  10.736
13883SOL     OW43545   4.668   8.769   0.578
13883SOL    HW143546   4.676   8.811   0.664
13883SOL    HW243547   4.681   8.676   0.595
13884SOL     OW43548  12.875   6.415   6.917
13884SOL    HW143549  12.864   6.395   7.010
13884SOL    HW243550  12.861   6.509   6.911
13885SOL     OW43551   5.402   9.449   2.396
13885SOL    HW143552   5.325   9.396   2.378
13885SOL    HW243553   5.445   9.404   2.469
13886SOL     OW43554   3.809  13.556   4.664
13886SOL    HW143555   3.814  13.587   4.574
13886SOL    HW243556   3.900  13.545   4.690
13887SOL     OW43557  14.128   0.998   1.193
13887SOL    HW143558  14.212   1.019   1.154
13887SOL    HW243559  14.067   1.063   1.157
13888SOL     OW43560   8.962   7.830   5.792
13888SOL    HW143561   8.941   7.923   5.780
13888SOL    HW243562   9.050   7.831   5.831
13889SOL     OW43563  13.167  14.728   3.458
13889SOL    HW143564  13.240  14.771   3.413
13889SOL    HW243565  13.171  14.637   3.430
13890SOL     OW43566   6.637   6.752   8.285
13890SOL    HW143567   6.619   6.779   8.375
13890SOL    HW243568   6.551   6.736   8.247
13891SOL     OW43569   8.631  11.316   7.393
13891SOL    HW143570   8.540  11.321   7.366
13891SOL    HW243571   8.637  11.372   7.470
13892SOL     OW43572   9.271  10.336   5.541
13892SOL    HW143573   9.267  10.424   5.503
13892SOL    HW243574   9.359  10.305   5.517
13893SOL     OW43575   5.074   6.491  13.219
13893SOL    HW143576   5.047   6.421  13.280
13893SOL    HW243577   5.159   6.461  13.185
13894SOL     OW43578  11.813   0.659  11.160
13894SOL    HW143579  11.872   0.733  11.174
13894SOL    HW243580  11.728   0.690  11.193
13895SOL     OW43581   2.849  13.702  10.336
13895SOL    HW143582   2.815  13.698  10.247
13895SOL    HW243583   2.905  13.780  10.336
13896SOL     OW43584   7.545   5.184   4.359
13896SOL    HW143585   7.466   5.238   4.353
13896SOL    HW243586   7.526   5.107   4.306
13897SOL     OW43587  12.111   6.225   6.367
13897SOL    HW143588  12.111   6.292   6.436
13897SOL    HW243589  12.088   6.144   6.412
13898SOL     OW43590  13.375   2.619   2.760
13898SOL    HW143591  13.307   2.574   2.810
13898SOL    HW243592  13.411   2.552   2.702
13899SOL     OW43593  10.394   9.121  11.694
13899SOL    HW143594  10.397   9.060  11.621
13899SOL    HW243595  10.478   9.167  11.690
13900SOL     OW43596  12.038   1.276  11.321
13900SOL    HW143597  12.090   1.349  11.286
13900SOL    HW243598  12.090   1.243  11.394
13901SOL     OW43599  11.950   7.003   4.781
13901SOL    HW143600  12.015   7.013   4.711
13901SOL    HW243601  11.866   6.994   4.735
13902SOL     OW43602   4.754  10.238   9.825
13902SOL    HW143603   4.698  10.305   9.865
13902SOL    HW243604   4.783  10.184   9.899
13903SOL     OW43605   6.826   9.865   2.434
13903SOL    HW143606   6.780   9.878   2.516
13903SOL    HW243607   6.820   9.951   2.390
13904SOL     OW43608  13.518   3.171  10.911
13904SOL    HW143609  13.469   3.248  10.939
13904SOL    HW243610  13.598   3.205  10.871
13905SOL     OW43611   9.680   0.781  12.749
13905SOL    HW143612   9.663   0.826  12.666
13905SOL    HW243613   9.620   0.823  12.811
13906SOL     OW43614   2.110   8.655   9.306
13906SOL    HW143615   2.202   8.636   9.327
13906SOL    HW243616   2.083   8.717   9.373
13907SOL     OW43617   6.780   3.110  13.144
13907SOL    HW143618   6.722   3.066  13.205
13907SOL    HW243619   6.780   3.055  13.066
13908SOL     OW43620   6.533  12.141   1.100
13908SOL    HW143621   6.448  12.179   1.123
13908SOL    HW243622   6.573  12.206   1.042
13909SOL     OW43623   0.108   6.004  14.107
13909SOL    HW143624   0.025   6.021  14.063
13909SOL    HW243625   0.119   5.909  14.101
13910SOL     OW43626   2.267   6.823  13.760
13910SOL    HW143627   2.301   6.898  13.810
13910SOL    HW243628   2.237   6.761  13.827
13911SOL     OW43629  14.480   8.286  11.375
13911SOL    HW143630  14.557   8.308  11.323
13911SOL    HW243631  14.495   8.328  11.459
13912SOL     OW43632  12.995   3.126  14.393
13912SOL    HW143633  12.942   3.191  14.348
13912SOL    HW243634  13.085   3.157  14.382
13913SOL     OW43635  10.355  13.744   7.347
13913SOL    HW143636  10.361  13.788   7.262
13913SOL    HW243637  10.278  13.688   7.340
13914SOL     OW43638  12.858  10.881   9.924
13914SOL    HW143639  12.868  10.786   9.920
13914SOL    HW243640  12.838  10.899  10.016
13915SOL     OW43641   3.298   7.300  10.165
13915SOL    HW143642   3.389   7.322  10.186
13915SOL    HW243643   3.252   7.383  10.164
13916SOL     OW43644   3.899   0.559   4.334
13916SOL    HW143645   3.916   0.632   4.275
13916SOL    HW243646   3.964   0.569   4.404
13917SOL     OW43647   0.726  14.327   5.230
13917SOL    HW143648   0.763  14.370   5.153
13917SOL    HW243649   0.727  14.234   5.209
13918SOL     OW43650  14.781   4.621   8.970
13918SOL    HW143651  14.770   4.687   8.901
13918SOL    HW243652  14.755   4.666   9.050
13919SOL     OW43653  11.779  11.883  11.409
13919SOL    HW143654  11.799  11.956  11.350
13919SOL    HW243655  11.759  11.925  11.493
13920SOL     OW43656  12.137   9.774   0.657
13920SOL    HW143657  12.168   9.708   0.594
13920SOL    HW243658  12.069   9.822   0.610
13921SOL     OW43659   8.942   9.336   4.869
13921SOL    HW143660   8.892   9.274   4.816
13921SOL    HW243661   9.033   9.308   4.858
13922SOL     OW43662   6.040  14.833   3.501
13922SOL    HW143663   6.008   0.042   3.549
13922SOL    HW243664   6.030  14.761   3.564
13923SOL     OW43665   6.879  10.263   2.602
13923SOL    HW143666   6.906  10.197   2.667
13923SOL    HW243667   6.851  10.211   2.527
13924SOL     OW43668  11.689   3.726   7.891
13924SOL    HW143669  11.601   3.701   7.917
13924SOL    HW243670  11.716   3.658   7.829
13925SOL     OW43671   2.868   0.329   5.796
13925SOL    HW143672   2.776   0.350   5.807
13925SOL    HW243673   2.905   0.335   5.884
13926SOL     OW43674  12.591  10.841   1.483
13926SOL    HW143675  12.628  10.826   1.570
13926SOL    HW243676  12.595  10.935   1.471
13927SOL     OW43677   4.222   5.175   5.961
13927SOL    HW143678   4.233   5.202   6.052
13927SOL    HW243679   4.268   5.241   5.910
13928SOL     OW43680   8.841  10.556   4.975
13928SOL    HW143681   8.769  10.494   4.984
13928SOL    HW243682   8.920  10.502   4.983
13929SOL     OW43683   7.872   0.847   9.494
13929SOL    HW143684   7.915   0.824   9.412
13929SOL    HW243685   7.851   0.940   9.484
13930SOL     OW43686   0.841  10.255  14.858
13930SOL    HW143687   0.771  10.314   0.018
13930SOL    HW243688   0.842  10.263  14.762
13931SOL     OW43689  10.327   4.934  11.405
13931SOL    HW143690  10.412   4.908  11.372
13931SOL    HW243691  10.346   5.002  11.469
13932SOL     OW43692  13.573   1.323   8.023
13932SOL    HW143693  13.667   1.334   8.013
13932SOL    HW243694  13.545   1.280   7.943
13933SOL     OW43695   0.547   1.718   3.092
13933SOL    HW143696   0.502   1.743   3.172
13933SOL    HW243697   0.478   1.714   3.026
13934SOL     OW43698  10.895   2.211   0.227
13934SOL    HW143699  10.925   2.170   0.146
13934SOL    HW243700  10.917   2.147   0.295
13935SOL     OW43701   7.737  12.193   6.811
13935SOL    HW143702   7.669  12.131   6.786
13935SOL    HW243703   7.708  12.277   6.776
13936SOL     OW43704   8.046   0.326  11.253
13936SOL    HW143705   8.003   0.277  11.322
13936SOL    HW243706   8.039   0.418  11.281
13937SOL     OW43707   4.137   5.821   8.464
13937SOL    HW143708   4.115   5.734   8.497
13937SOL    HW243709   4.212   5.807   8.406
13938SOL     OW43710   7.638   0.732   7.962
13938SOL    HW143711   7.568   0.790   7.933
13938SOL    HW243712   7.711   0.751   7.904
13939SOL     OW43713   1.627   4.607   0.809
13939SOL    HW143714   1.554   4.592   0.869
13939SOL    HW243715   1.691   4.539   0.830
13940SOL     OW43716   3.938   7.167   5.004
13940SOL    HW143717   3.998   7.178   5.078
13940SOL    HW243718   3.875   7.102   5.034
13941SOL     OW43719   6.409   4.325   5.694
13941SOL    HW143720   6.446   4.338   5.606
13941SOL    HW243721   6.344   4.396   5.703
13942SOL     OW43722   9.411   7.261   1.348
13942SOL    HW143723   9.327   7.253   1.394
13942SOL    HW243724   9.392   7.236   1.258
13943SOL     OW43725  11.971   1.047   7.854
13943SOL    HW143726  11.906   1.019   7.791
13943SOL    HW243727  11.930   1.033   7.940
13944SOL     OW43728  12.597  11.835   1.676
13944SOL    HW143729  12.551  11.791   1.747
13944SOL    HW243730  12.606  11.768   1.609
13945SOL     OW43731  13.355  13.987   2.132
13945SOL    HW143732  13.306  14.061   2.098
13945SOL    HW243733  13.388  14.016   2.217
13946SOL     OW43734   1.765   6.558  11.329
13946SOL    HW143735   1.700   6.491  11.346
13946SOL    HW243736   1.771   6.607  11.412
13947SOL     OW43737  11.399   0.022   2.456
13947SOL    HW143738  11.374   0.032   2.548
13947SOL    HW243739  11.466   0.089   2.442
13948SOL     OW43740  10.334  14.269  11.297
13948SOL    HW143741  10.371  14.319  11.225
13948SOL    HW243742  10.404  14.263  11.362
13949SOL     OW43743  13.229   2.029   5.300
13949SOL    HW143744  13.296   2.019   5.233
13949SOL    HW243745  13.275   2.065   5.376
13950SOL     OW43746  13.314  12.747   5.530
13950SOL    HW143747  13.347  12.702   5.608
13950SOL    HW243748  13.309  12.678   5.464
13951SOL     OW43749   2.042   4.169   5.062
13951SOL    HW143750   1.983   4.173   5.137
13951SOL    HW243751   2.015   4.241   5.006
13952SOL     OW43752  14.512  13.720   2.918
13952SOL    HW143753  14.575  13.676   2.860
13952SOL    HW243754  14.447  13.653   2.938
13953SOL     OW43755  14.295   9.306  10.910
13953SOL    HW143756  14.314   9.307  10.817
13953SOL    HW243757  14.249   9.224  10.925
13954SOL     OW43758   6.833   0.177   3.797
13954SOL    HW143759   6.783   0.120   3.856
13954SOL    HW243760   6.824   0.136   3.711
13955SOL     OW43761   2.056  13.438  10.419
13955SOL    HW143762   2.032  13.502  10.352
13955SOL    HW243763   2.144  13.409  10.394
13956SOL     OW43764   9.096  10.066  12.035
13956SOL    HW143765   9.098  10.029  11.947
13956SOL    HW243766   9.188  10.067  12.064
13957SOL     OW43767  12.692   7.489   6.231
13957SOL    HW143768  12.716   7.483   6.324
13957SOL    HW243769  12.673   7.582   6.217
13958SOL     OW43770   9.641  13.179   0.991
13958SOL    HW143771   9.571  13.242   1.007
13958SOL    HW243772   9.609  13.097   1.029
13959SOL     OW43773  11.198   5.689   1.526
13959SOL    HW143774  11.113   5.690   1.484
13959SOL    HW243775  11.259   5.664   1.457
13960SOL     OW43776   7.107   5.727  12.065
13960SOL    HW143777   7.147   5.711  12.150
13960SOL    HW243778   7.055   5.807  12.077
13961SOL     OW43779   4.917  10.605   5.443
13961SOL    HW143780   4.891  10.649   5.524
13961SOL    HW243781   4.901  10.670   5.374
13962SOL     OW43782  13.980  13.430   6.016
13962SOL    HW143783  13.945  13.443   6.105
13962SOL    HW243784  14.074  13.423   6.029
13963SOL     OW43785   3.097   7.996  13.300
13963SOL    HW143786   3.030   7.993  13.232
13963SOL    HW243787   3.129   8.086  13.298
13964SOL     OW43788  11.560   7.502   0.448
13964SOL    HW143789  11.479   7.451   0.439
13964SOL    HW243790  11.578   7.534   0.360
13965SOL     OW43791   8.078   4.029   9.678
13965SOL    HW143792   8.068   4.011   9.585
13965SOL    HW243793   8.072   3.944   9.721
13966SOL     OW43794   8.250  13.071   7.756
13966SOL    HW143795   8.265  13.043   7.846
13966SOL    HW243796   8.244  12.989   7.706
13967SOL     OW43797  12.539   3.297   2.263
13967SOL    HW143798  12.475   3.305   2.193
13967SOL    HW243799  12.592   3.377   2.256
13968SOL     OW43800  13.213   8.647  14.249
13968SOL    HW143801  13.130   8.610  14.220
13968SOL    HW243802  13.268   8.648  14.170
13969SOL     OW43803   2.944   4.342   8.414
13969SOL    HW143804   3.034   4.356   8.384
13969SOL    HW243805   2.907   4.281   8.350
13970SOL     OW43806   1.298  13.887   6.887
13970SOL    HW143807   1.242  13.819   6.849
13970SOL    HW243808   1.309  13.951   6.817
13971SOL     OW43809   2.711   9.520  14.522
13971SOL    HW143810   2.804   9.532  14.540
13971SOL    HW243811   2.670   9.519  14.609
13972SOL     OW43812  11.084   0.286   0.835
13972SOL    HW143813  11.050   0.275   0.746
13972SOL    HW243814  11.153   0.220   0.843
13973SOL     OW43815  12.270   8.113   7.613
13973SOL    HW143816  12.207   8.136   7.682
13973SOL    HW243817  12.342   8.071   7.660
13974SOL     OW43818   8.260   4.255  11.374
13974SOL    HW143819   8.349   4.290  11.374
13974SOL    HW243820   8.270   4.166  11.340
13975SOL     OW43821   2.593   9.870  12.615
13975SOL    HW143822   2.664   9.805  12.616
13975SOL    HW243823   2.573   9.882  12.522
13976SOL     OW43824   3.142   1.599   1.261
13976SOL    HW143825   3.186   1.614   1.177
13976SOL    HW243826   3.062   1.552   1.238
13977SOL     OW43827   2.886   6.133  13.380
13977SOL    HW143828   2.934   6.168  13.304
13977SOL    HW243829   2.922   6.180  13.455
13978SOL     OW43830  11.934   2.583   5.786
13978SOL    HW143831  11.896   2.500   5.814
13978SOL    HW243832  11.862   2.631   5.745
13979SOL     OW43833   3.390   8.410   6.737
13979SOL    HW143834   3.433   8.480   6.785
13979SOL    HW243835   3.458   8.342   6.727
13980SOL     OW43836   4.002   3.489  11.061
13980SOL    HW143837   4.058   3.461  10.989
13980SOL    HW243838   3.919   3.514  11.020
13981SOL     OW43839  13.672   9.850   5.162
13981SOL    HW143840  13.629   9.932   5.188
13981SOL    HW243841  13.662   9.847   5.067
13982SOL     OW43842  11.444   6.761   6.231
13982SOL    HW143843  11.467   6.693   6.294
13982SOL    HW243844  11.406   6.713   6.157
13983SOL     OW43845  13.006  11.115   3.586
13983SOL    HW143846  13.070  11.059   3.630
13983SOL    HW243847  12.963  11.163   3.656
13984SOL     OW43848   1.690   9.822   4.185
13984SOL    HW143849   1.770   9.778   4.156
13984SOL    HW243850   1.627   9.751   4.197
13985SOL     OW43851   4.645   3.888   6.167
13985SOL    HW143852   4.716   3.876   6.103
13985SOL    HW243853   4.565   3.889   6.115
13986SOL     OW43854  10.282  13.588   1.175
13986SOL    HW143855  10.219  13.519   1.198
13986SOL    HW243856  10.366  13.543   1.171
13987SOL     OW43857  13.542  12.192   8.564
13987SOL    HW143858  13.448  12.200   8.580
13987SOL    HW243859  13.549  12.130   8.491
13988SOL     OW43860  14.442  10.418   0.703
13988SOL    HW143861  14.509  10.427   0.771
13988SOL    HW243862  14.413  10.508   0.686
13989SOL     OW43863   0.036   2.489   0.428
13989SOL    HW143864   0.027   2.413   0.371
13989SOL    HW243865   0.128   2.489   0.455
13990SOL     OW43866  14.765   2.995   5.287
13990SOL    HW143867  14.836   2.936   5.310
13990SOL    HW243868  14.779   3.071   5.343
13991SOL     OW43869   9.558   1.239   5.959
13991SOL    HW143870   9.533   1.329   5.937
13991SOL    HW243871   9.596   1.246   6.046
13992SOL     OW43872   2.162   4.941  10.884
13992SOL    HW143873   2.246   4.895  10.873
13992SOL    HW243874   2.120   4.935  10.798
13993SOL     OW43875   0.995   8.473   5.442
13993SOL    HW143876   0.963   8.411   5.507
13993SOL    HW243877   0.917   8.511   5.402
13994SOL     OW43878  14.436   3.178  14.731
13994SOL    HW143879  14.349   3.171  14.769
13994SOL    HW243880  14.470   3.088  14.733
13995SOL     OW43881   4.515   7.812   4.195
13995SOL    HW143882   4.437   7.776   4.236
13995SOL    HW243883   4.528   7.897   4.239
13996SOL     OW43884   4.200   2.956  12.513
13996SOL    HW143885   4.176   3.023  12.577
13996SOL    HW243886   4.236   3.005  12.439
13997SOL     OW43887   4.030  12.736   3.321
13997SOL    HW143888   4.000  12.710   3.408
13997SOL    HW243889   4.110  12.685   3.307
13998SOL     OW43890   1.125  12.840  12.365
13998SOL    HW143891   1.210  12.878  12.385
13998SOL    HW243892   1.145  12.755  12.326
13999SOL     OW43893   8.807   2.598   2.696
13999SOL    HW143894   8.836   2.522   2.747
13999SOL    HW243895   8.793   2.666   2.762
14000SOL     OW43896   9.440   3.701   7.432
14000SOL    HW143897   9.359   3.690   7.483
14000SOL    HW243898   9.411   3.734   7.348
14001SOL     OW43899   2.659   4.104   4.008
14001SOL    HW143900   2.722   4.117   4.078
14001SOL    HW243901   2.592   4.047   4.045
14002SOL     OW43902   6.742  13.263  10.205
14002SOL    HW143903   6.785  13.277  10.290
14002SOL    HW243904   6.656  13.305  10.216
14003SOL     OW43905   8.314   5.953   6.831
14003SOL    HW143906   8.388   5.961   6.892
14003SOL    HW243907   8.345   5.996   6.751
14004SOL     OW43908   0.581   7.515  11.646
14004SOL    HW143909   0.663   7.465  11.652
14004SOL    HW243910   0.609   7.605  11.626
14005SOL     OW43911   7.262   2.914  13.797
14005SOL    HW143912   7.297   2.996  13.833
14005SOL    HW243913   7.334   2.878  13.745
14006SOL     OW43914  11.864   7.288   3.226
14006SOL    HW143915  11.902   7.208   3.261
14006SOL    HW243916  11.810   7.322   3.297
14007SOL     OW43917  10.946  11.186   6.943
14007SOL    HW143918  10.866  11.212   6.988
14007SOL    HW243919  10.916  11.145   6.862
14008SOL     OW43920   1.631   2.384   3.726
14008SOL    HW143921   1.724   2.370   3.710
14008SOL    HW243922   1.608   2.316   3.790
14009SOL     OW43923  11.923   2.457  11.079
14009SOL    HW143924  11.833   2.491  11.072
14009SOL    HW243925  11.961   2.504  11.153
14010SOL     OW43926   5.296  11.851  13.850
14010SOL    HW143927   5.379  11.804  13.859
14010SOL    HW243928   5.322  11.941  13.827
14011SOL     OW43929   7.069   3.300   9.553
14011SOL    HW143930   7.124   3.272   9.626
14011SOL    HW243931   7.124   3.362   9.505
14012SOL     OW43932   3.150   4.383   3.454
14012SOL    HW143933   3.219   4.320   3.472
14012SOL    HW243934   3.176   4.425   3.372
14013SOL     OW43935  14.085   9.669  12.860
14013SOL    HW143936  14.097   9.594  12.918
14013SOL    HW243937  14.162   9.667  12.803
14014SOL     OW43938   8.502   9.170  13.913
14014SOL    HW143939   8.510   9.115  13.835
14014SOL    HW243940   8.506   9.108  13.986
14015SOL     OW43941   6.630   0.220  11.703
14015SOL    HW143942   6.614   0.248  11.613
14015SOL    HW243943   6.600   0.294  11.756
14016SOL     OW43944  14.062  14.859  11.470
14016SOL    HW143945  14.070  14.766  11.448
14016SOL    HW243946  13.969   0.011  11.458
14017SOL     OW43947  10.703   8.797   3.599
14017SOL    HW143948  10.730   8.724   3.656
14017SOL    HW243949  10.773   8.862   3.609
14018SOL     OW43950  14.001   7.438   0.190
14018SOL    HW143951  14.022   7.359   0.241
14018SOL    HW243952  13.906   7.433   0.176
14019SOL     OW43953   7.601   1.024   0.301
14019SOL    HW143954   7.517   1.035   0.346
14019SOL    HW243955   7.652   1.101   0.326
14020SOL     OW43956   1.107  12.335   5.912
14020SOL    HW143957   1.155  12.373   5.839
14020SOL    HW243958   1.134  12.387   5.988
14021SOL     OW43959   9.695  10.810   7.949
14021SOL    HW143960   9.605  10.778   7.948
14021SOL    HW243961   9.728  10.790   7.861
14022SOL     OW43962  11.827   8.416  12.110
14022SOL    HW143963  11.833   8.511  12.097
14022SOL    HW243964  11.749   8.404  12.164
14023SOL     OW43965   5.506   6.607   2.915
14023SOL    HW143966   5.515   6.537   2.850
14023SOL    HW243967   5.562   6.677   2.882
14024SOL     OW43968   1.767   6.310  10.382
14024SOL    HW143969   1.676   6.331  10.404
14024SOL    HW243970   1.791   6.241  10.443
14025SOL     OW43971   3.641   6.749   1.797
14025SOL    HW143972   3.677   6.726   1.712
14025SOL    HW243973   3.672   6.680   1.856
14026SOL     OW43974   6.626   5.586   6.285
14026SOL    HW143975   6.674   5.562   6.205
14026SOL    HW243976   6.548   5.531   6.283
14027SOL     OW43977   0.137   5.879   2.095
14027SOL    HW143978   0.188   5.888   2.014
14027SOL    HW243979   0.128   5.969   2.127
14028SOL     OW43980   1.026   6.477   5.703
14028SOL    HW143981   0.963   6.437   5.643
14028SOL    HW243982   0.983   6.556   5.735
14029SOL     OW43983  13.365  11.548   7.357
14029SOL    HW143984  13.349  11.567   7.265
14029SOL    HW243985  13.459  11.564   7.368
14030SOL     OW43986  11.813   3.527  10.750
14030SOL    HW143987  11.789   3.495  10.664
14030SOL    HW243988  11.825   3.448  10.803
14031SOL     OW43989   3.467  13.592   5.631
14031SOL    HW143990   3.561  13.575   5.632
14031SOL    HW243991   3.428  13.507   5.652
14032SOL     OW43992   3.488  13.718  12.913
14032SOL    HW143993   3.482  13.759  12.999
14032SOL    HW243994   3.581  13.724  12.890
14033SOL     OW43995  14.860   6.489  12.518
14033SOL    HW143996   0.009   6.432  12.443
14033SOL    HW243997   0.066   6.550  12.519
14034SOL     OW43998   0.291  14.800   7.566
14034SOL    HW143999   0.212  14.842   7.601
14034SOL    HW244000   0.353   0.003   7.553
14035SOL     OW44001   0.127  10.196   5.740
14035SOL    HW144002   0.047  10.154   5.706
14035SOL    HW244003   0.169  10.127   5.791
14036SOL     OW44004   1.272   1.437  13.327
14036SOL    HW144005   1.259   1.361  13.270
14036SOL    HW244006   1.203   1.498  13.301
14037SOL     OW44007   6.517  14.161  10.529
14037SOL    HW144008   6.426  14.187  10.542
14037SOL    HW244009   6.549  14.218  10.459
14038SOL     OW44010  11.806   6.788  12.099
14038SOL    HW144011  11.797   6.824  12.011
14038SOL    HW244012  11.827   6.695  12.084
14039SOL     OW44013  12.202   1.841   6.492
14039SOL    HW144014  12.123   1.798   6.526
14039SOL    HW244015  12.248   1.772   6.445
14040SOL     OW44016  12.782   1.838   4.217
14040SOL    HW144017  12.704   1.831   4.161
14040SOL    HW244018  12.807   1.930   4.212
14041SOL     OW44019   1.069   7.025  14.087
14041SOL    HW144020   1.044   6.999  13.998
14041SOL    HW244021   1.109   6.947  14.125
14042SOL     OW44022   7.929  13.552   8.657
14042SOL    HW144023   7.988  13.608   8.707
14042SOL    HW244024   7.899  13.486   8.719
14043SOL     OW44025   3.102   4.438   4.886
14043SOL    HW144026   3.173   4.470   4.831
14043SOL    HW244027   3.142   4.372   4.942
14044SOL     OW44028   7.434   3.984   3.137
14044SOL    HW144029   7.510   3.994   3.080
14044SOL    HW244030   7.462   3.923   3.205
14045SOL     OW44031   3.876   3.763   2.722
14045SOL    HW144032   3.814   3.834   2.708
14045SOL    HW244033   3.856   3.731   2.810
14046SOL     OW44034   3.308   1.574  14.558
14046SOL    HW144035   3.254   1.639  14.604
14046SOL    HW244036   3.344   1.519  14.628
14047SOL     OW44037  11.936   7.083   6.445
14047SOL    HW144038  11.965   7.172   6.423
14047SOL    HW244039  11.949   7.033   6.364
14048SOL     OW44040  10.852  10.271   3.834
14048SOL    HW144041  10.832  10.290   3.926
14048SOL    HW244042  10.771  10.293   3.787
14049SOL     OW44043  12.352   7.109   1.884
14049SOL    HW144044  12.442   7.078   1.870
14049SOL    HW244045  12.363   7.193   1.931
14050SOL     OW44046   8.093   8.738   8.161
14050SOL    HW144047   8.072   8.780   8.244
14050SOL    HW244048   8.122   8.811   8.105
14051SOL     OW44049   1.733   8.533  11.864
14051SOL    HW144050   1.763   8.540  11.774
14051SOL    HW244051   1.774   8.607  11.909
14052SOL     OW44052   0.948   0.816  11.679
14052SOL    HW144053   0.900   0.793  11.599
14052SOL    HW244054   0.880   0.827  11.745
14053SOL     OW44055  12.332  14.848   7.142
14053SOL    HW144056  12.316   0.053   7.082
14053SOL    HW244057  12.370  14.780   7.086
14054SOL     OW44058  14.731   2.298   6.987
14054SOL    HW144059  14.699   2.320   7.075
14054SOL    HW244060  14.709   2.205   6.977
14055SOL     OW44061   0.395   9.565   0.530
14055SOL    HW144062   0.441   9.643   0.563
14055SOL    HW244063   0.303   9.590   0.529
14056SOL     OW44064   8.037  13.029   7.138
14056SOL    HW144065   8.064  13.115   7.107
14056SOL    HW244066   8.086  12.967   7.085
14057SOL     OW44067   5.681   2.804   3.741
14057SOL    HW144068   5.596   2.814   3.784
14057SOL    HW244069   5.737   2.764   3.807
14058SOL     OW44070  13.542   2.372   7.573
14058SOL    HW144071  13.615   2.433   7.588
14058SOL    HW244072  13.561   2.332   7.488
14059SOL     OW44073   5.052   3.631   4.427
14059SOL    HW144074   4.978   3.683   4.393
14059SOL    HW244075   5.125   3.693   4.429
14060SOL     OW44076   6.609  12.797  12.442
14060SOL    HW144077   6.638  12.730  12.380
14060SOL    HW244078   6.682  12.805  12.504
14061SOL     OW44079   6.008   7.804   2.878
14061SOL    HW144080   6.019   7.756   2.796
14061SOL    HW244081   6.061   7.756   2.941
14062SOL     OW44082   2.377   7.748   3.440
14062SOL    HW144083   2.463   7.731   3.403
14062SOL    HW244084   2.362   7.677   3.502
14063SOL     OW44085   2.953   4.270   3.933
14063SOL    HW144086   2.988   4.340   3.878
14063SOL    HW244087   2.863   4.296   3.951
14064SOL     OW44088   1.562   2.972   5.769
14064SOL    HW144089   1.476   2.960   5.809
14064SOL    HW244090   1.594   2.883   5.754
14065SOL     OW44091   2.682  11.323  11.198
14065SOL    HW144092   2.731  11.404  11.181
14065SOL    HW244093   2.751  11.257  11.208
14066SOL     OW44094  10.268   9.616  10.743
14066SOL    HW144095  10.191   9.581  10.698
14066SOL    HW244096  10.322   9.652  10.673
14067SOL     OW44097   7.612   6.670   2.239
14067SOL    HW144098   7.553   6.725   2.188
14067SOL    HW244099   7.651   6.610   2.175
14068SOL     OW44100   6.728   6.337   1.822
14068SOL    HW144101   6.644   6.382   1.834
14068SOL    HW244102   6.714   6.280   1.747
14069SOL     OW44103   1.838   4.042   8.236
14069SOL    HW144104   1.845   3.948   8.221
14069SOL    HW244105   1.744   4.061   8.229
14070SOL     OW44106  13.511  11.195   2.970
14070SOL    HW144107  13.519  11.124   3.035
14070SOL    HW244108  13.441  11.250   3.005
14071SOL     OW44109  12.753   6.281   0.682
14071SOL    HW144110  12.787   6.249   0.766
14071SOL    HW244111  12.813   6.244   0.617
14072SOL     OW44112   8.634   8.168   9.749
14072SOL    HW144113   8.565   8.145   9.688
14072SOL    HW244114   8.641   8.264   9.744
14073SOL     OW44115   6.972   5.967   4.644
14073SOL    HW144116   6.952   5.898   4.580
14073SOL    HW244117   7.021   5.923   4.713
14074SOL     OW44118   4.392   4.167   7.212
14074SOL    HW144119   4.488   4.162   7.207
14074SOL    HW244120   4.365   4.204   7.128
14075SOL     OW44121   6.279   3.008   5.120
14075SOL    HW144122   6.352   2.973   5.068
14075SOL    HW244123   6.285   3.103   5.108
14076SOL     OW44124   8.849   7.841  13.459
14076SOL    HW144125   8.807   7.757  13.442
14076SOL    HW244126   8.940   7.828  13.431
14077SOL     OW44127  12.350   9.149   2.857
14077SOL    HW144128  12.277   9.093   2.886
14077SOL    HW244129  12.329   9.169   2.766
14078SOL     OW44130   4.119  12.469   7.959
14078SOL    HW144131   4.198  12.425   7.989
14078SOL    HW244132   4.108  12.441   7.868
14079SOL     OW44133   4.851   3.929  12.125
14079SOL    HW144134   4.914   3.873  12.078
14079SOL    HW244135   4.896   3.953  12.206
14080SOL     OW44136  10.493   6.362  12.395
14080SOL    HW144137  10.485   6.366  12.299
14080SOL    HW244138  10.421   6.417  12.427
14081SOL     OW44139  13.878   7.371   6.592
14081SOL    HW144140  13.924   7.451   6.568
14081SOL    HW244141  13.904   7.307   6.525
14082SOL     OW44142   8.844   7.099   1.091
14082SOL    HW144143   8.876   7.021   1.136
14082SOL    HW244144   8.894   7.102   1.009
14083SOL     OW44145   9.644   2.400   4.262
14083SOL    HW144146   9.575   2.334   4.271
14083SOL    HW244147   9.677   2.387   4.173
14084SOL     OW44148   7.531   3.943  13.062
14084SOL    HW144149   7.526   3.878  12.993
14084SOL    HW244150   7.443   3.980  13.067
14085SOL     OW44151   8.299   2.649   7.510
14085SOL    HW144152   8.320   2.654   7.603
14085SOL    HW244153   8.255   2.731   7.491
14086SOL     OW44154  10.891   2.234  10.760
14086SOL    HW144155  10.825   2.218  10.828
14086SOL    HW244156  10.952   2.161  10.770
14087SOL     OW44157   0.158  14.101   2.880
14087SOL    HW144158   0.199  14.026   2.837
14087SOL    HW244159   0.211  14.116   2.958
14088SOL     OW44160   7.127   2.050   9.424
14088SOL    HW144161   7.117   1.955   9.419
14088SOL    HW244162   7.198   2.064   9.486
14089SOL     OW44163  10.463   7.218   0.235
14089SOL    HW144164  10.531   7.202   0.300
14089SOL    HW244165  10.511   7.240   0.155
14090SOL     OW44166  14.335   7.136   6.099
14090SOL    HW144167  14.344   7.227   6.129
14090SOL    HW244168  14.303   7.144   6.009
14091SOL     OW44169  10.610  12.170  13.405
14091SOL    HW144170  10.564  12.234  13.350
14091SOL    HW244171  10.544  12.141  13.468
14092SOL     OW44172   1.563  10.917   3.442
14092SOL    HW144173   1.503  10.987   3.416
14092SOL    HW244174   1.507  10.851   3.482
14093SOL     OW44175  10.673   8.698  13.828
14093SOL    HW144176  10.703   8.702  13.738
14093SOL    HW244177  10.709   8.617  13.863
14094SOL     OW44178  12.271   1.007  11.376
14094SOL    HW144179  12.338   1.063  11.414
14094SOL    HW244180  12.209   0.991  11.448
14095SOL     OW44181  13.085  10.006  14.217
14095SOL    HW144182  13.129  10.086  14.190
14095SOL    HW244183  13.046  10.027  14.302
14096SOL     OW44184   3.660  11.683   1.843
14096SOL    HW144185   3.697  11.608   1.890
14096SOL    HW244186   3.716  11.693   1.766
14097SOL     OW44187  11.223   0.228  11.731
14097SOL    HW144188  11.226   0.159  11.797
14097SOL    HW244189  11.153   0.202  11.671
14098SOL     OW44190  11.559   6.168   9.000
14098SOL    HW144191  11.498   6.169   8.926
14098SOL    HW244192  11.569   6.075   9.021
14099SOL     OW44193  13.860  13.967   4.731
14099SOL    HW144194  13.825  13.968   4.820
14099SOL    HW244195  13.907  13.883   4.725
14100SOL     OW44196  10.944   5.516  12.817
14100SOL    HW144197  10.986   5.577  12.757
14100SOL    HW244198  11.014   5.457  12.845
14101SOL     OW44199   9.846   1.397   8.504
14101SOL    HW144200   9.878   1.466   8.446
14101SOL    HW244201   9.774   1.356   8.455
14102SOL     OW44202   6.452  14.482   2.607
14102SOL    HW144203   6.442  14.568   2.649
14102SOL    HW244204   6.447  14.420   2.680
14103SOL     OW44205  13.822   2.586  12.133
14103SOL    HW144206  13.830   2.495  12.106
14103SOL    HW244207  13.731   2.594  12.163
14104SOL     OW44208   5.297   8.062  14.028
14104SOL    HW144209   5.268   8.113  14.104
14104SOL    HW244210   5.220   8.056  13.972
14105SOL     OW44211   6.402  10.241   5.627
14105SOL    HW144212   6.315  10.201   5.620
14105SOL    HW244213   6.429  10.224   5.717
14106SOL     OW44214  11.352   2.857   1.350
14106SOL    HW144215  11.340   2.786   1.414
14106SOL    HW244216  11.337   2.937   1.401
14107SOL     OW44217  13.125  14.666   9.100
14107SOL    HW144218  13.201  14.718   9.074
14107SOL    HW244219  13.122  14.595   9.036
14108SOL     OW44220  14.057  12.851  13.073
14108SOL    HW144221  14.000  12.822  13.144
14108SOL    HW244222  14.073  12.944  13.092
14109SOL     OW44223  13.902   0.800  12.950
14109SOL    HW144224  13.866   0.842  12.872
14109SOL    HW244225  13.980   0.851  12.971
14110SOL     OW44226   8.307   5.317   2.952
14110SOL    HW144227   8.390   5.337   2.995
14110SOL    HW244228   8.284   5.229   2.983
14111SOL     OW44229  10.931   2.739   3.440
14111SOL    HW144230  11.025   2.717   3.441
14111SOL    HW244231  10.887   2.655   3.449
14112SOL     OW44232   5.964   9.601  12.761
14112SOL    HW144233   6.003   9.655  12.830
14112SOL    HW244234   5.871   9.624  12.764
14113SOL     OW44235  11.233   3.703  11.107
14113SOL    HW144236  11.253   3.773  11.168
14113SOL    HW244237  11.165   3.651  11.151
14114SOL     OW44238  12.315  12.657   3.285
14114SOL    HW144239  12.245  12.704   3.331
14114SOL    HW244240  12.392  12.669   3.341
14115SOL     OW44241  11.191   0.578   4.896
14115SOL    HW144242  11.261   0.551   4.836
14115SOL    HW244243  11.131   0.504   4.897
14116SOL     OW44244  12.269  12.642   6.774
14116SOL    HW144245  12.336  12.706   6.799
14116SOL    HW244246  12.306  12.598   6.697
14117SOL     OW44247  10.370  12.469   8.695
14117SOL    HW144248  10.426  12.518   8.755
14117SOL    HW244249  10.393  12.501   8.608
14118SOL     OW44250  10.556   8.970  14.492
14118SOL    HW144251  10.563   8.966  14.587
14118SOL    HW244252  10.522   8.884  14.467
14119SOL     OW44253   9.299   0.549   9.481
14119SOL    HW144254   9.232   0.610   9.512
14119SOL    HW244255   9.358   0.538   9.555
14120SOL     OW44256   3.008  11.219  10.902
14120SOL    HW144257   2.994  11.296  10.958
14120SOL    HW244258   2.946  11.154  10.934
14121SOL     OW44259   5.097   2.891   0.436
14121SOL    HW144260   5.004   2.883   0.412
14121SOL    HW244261   5.139   2.922   0.355
14122SOL     OW44262   4.107  12.830   4.830
14122SOL    HW144263   4.150  12.810   4.913
14122SOL    HW244264   4.056  12.752   4.810
14123SOL     OW44265   1.099  14.613   3.157
14123SOL    HW144266   1.080  14.694   3.204
14123SOL    HW244267   1.016  14.565   3.155
14124SOL     OW44268  14.693   6.389  11.288
14124SOL    HW144269  14.632   6.459  11.264
14124SOL    HW244270  14.779   6.431  11.286
14125SOL     OW44271   1.729   6.838  11.054
14125SOL    HW144272   1.704   6.917  11.007
14125SOL    HW244273   1.647   6.804  11.089
14126SOL     OW44274   2.627   7.197   7.744
14126SOL    HW144275   2.690   7.178   7.675
14126SOL    HW244276   2.638   7.290   7.763
14127SOL     OW44277  13.430   1.902   7.947
14127SOL    HW144278  13.388   1.830   7.900
14127SOL    HW244279  13.359   1.948   7.990
14128SOL     OW44280   9.575  12.616   8.398
14128SOL    HW144281   9.560  12.618   8.493
14128SOL    HW244282   9.638  12.545   8.386
14129SOL     OW44283   8.333  10.924  11.866
14129SOL    HW144284   8.353  10.837  11.831
14129SOL    HW244285   8.237  10.930  11.863
14130SOL     OW44286  11.993   4.089   8.724
14130SOL    HW144287  11.921   4.141   8.687
14130SOL    HW244288  12.012   4.132   8.807
14131SOL     OW44289  13.296   4.393   2.129
14131SOL    HW144290  13.315   4.464   2.068
14131SOL    HW244291  13.219   4.350   2.092
14132SOL     OW44292   3.226   1.905   1.549
14132SOL    HW144293   3.146   1.953   1.528
14132SOL    HW244294   3.204   1.813   1.539
14133SOL     OW44295  14.083   7.899  13.896
14133SOL    HW144296  14.069   7.837  13.825
14133SOL    HW244297  14.175   7.924  13.890
14134SOL     OW44298  11.037   1.173   0.988
14134SOL    HW144299  11.035   1.137   0.899
14134SOL    HW244300  10.997   1.259   0.980
14135SOL     OW44301   5.283   1.630   2.095
14135SOL    HW144302   5.205   1.678   2.066
14135SOL    HW244303   5.260   1.598   2.182
14136SOL     OW44304  13.313  12.378   7.296
14136SOL    HW144305  13.328  12.412   7.384
14136SOL    HW244306  13.366  12.435   7.240
14137SOL     OW44307   2.534   1.886   4.458
14137SOL    HW144308   2.577   1.801   4.448
14137SOL    HW244309   2.548   1.930   4.374
14138SOL     OW44310   2.962   0.630   1.864
14138SOL    HW144311   2.927   0.562   1.806
14138SOL    HW244312   2.886   0.683   1.886
14139SOL     OW44313  12.063   0.383   7.368
14139SOL    HW144314  12.034   0.467   7.403
14139SOL    HW244315  12.148   0.401   7.329
14140SOL     OW44316   3.657   1.189   2.298
14140SOL    HW144317   3.604   1.262   2.330
14140SOL    HW244318   3.646   1.191   2.203
14141SOL     OW44319   0.710   7.438  12.246
14141SOL    HW144320   0.634   7.497  12.254
14141SOL    HW244321   0.775   7.474  12.307
14142SOL     OW44322  13.377   6.992  10.547
14142SOL    HW144323  13.408   7.074  10.586
14142SOL    HW244324  13.456   6.953  10.510
14143SOL     OW44325   7.099   0.553   4.990
14143SOL    HW144326   7.177   0.592   4.951
14143SOL    HW244327   7.094   0.592   5.077
14144SOL     OW44328   0.500   5.841   7.500
14144SOL    HW144329   0.466   5.915   7.549
14144SOL    HW244330   0.560   5.879   7.436
14145SOL     OW44331   5.678   0.634   5.870
14145SOL    HW144332   5.590   0.643   5.833
14145SOL    HW244333   5.737   0.656   5.798
14146SOL     OW44334  13.374   6.486   5.021
14146SOL    HW144335  13.405   6.560   5.073
14146SOL    HW244336  13.412   6.501   4.934
14147SOL     OW44337  14.073   1.555   4.180
14147SOL    HW144338  13.993   1.604   4.198
14147SOL    HW244339  14.113   1.602   4.107
14148SOL     OW44340   3.475   0.163   4.473
14148SOL    HW144341   3.431   0.232   4.523
14148SOL    HW244342   3.506   0.102   4.540
14149SOL     OW44343  14.809   4.020   2.753
14149SOL    HW144344  14.857   3.995   2.832
14149SOL    HW244345  14.846   3.966   2.683
14150SOL     OW44346   7.408  12.302   1.132
14150SOL    HW144347   7.369  12.387   1.111
14150SOL    HW244348   7.484  12.323   1.186
14151SOL     OW44349  11.682   0.890   2.937
14151SOL    HW144350  11.773   0.912   2.959
14151SOL    HW244351  11.676   0.904   2.843
14152SOL     OW44352  12.016  12.855   5.674
14152SOL    HW144353  12.044  12.781   5.728
14152SOL    HW244354  12.097  12.899   5.649
14153SOL     OW44355   3.402   4.458  12.089
14153SOL    HW144356   3.310   4.481  12.092
14153SOL    HW244357   3.429   4.477  12.000
14154SOL     OW44358   5.645  14.337  14.620
14154SOL    HW144359   5.738  14.333  14.639
14154SOL    HW244360   5.630  14.426  14.588
14155SOL     OW44361   0.686  11.153   3.606
14155SOL    HW144362   0.777  11.161   3.577
14155SOL    HW244363   0.685  11.073   3.659
14156SOL     OW44364  14.644   8.931   8.454
14156SOL    HW144365  14.647   8.972   8.367
14156SOL    HW244366  14.597   8.848   8.439
14157SOL     OW44367   0.466  10.683   5.701
14157SOL    HW144368   0.516  10.702   5.621
14157SOL    HW244369   0.514  10.612   5.742
14158SOL     OW44370  11.434   9.461   6.655
14158SOL    HW144371  11.346   9.499   6.652
14158SOL    HW244372  11.445   9.418   6.570
14159SOL     OW44373  10.812   2.017   3.216
14159SOL    HW144374  10.840   2.084   3.279
14159SOL    HW244375  10.751   2.063   3.158
14160SOL     OW44376   9.382   3.275   9.028
14160SOL    HW144377   9.306   3.227   9.061
14160SOL    HW244378   9.456   3.217   9.045
14161SOL     OW44379   9.238   5.030  13.689
14161SOL    HW144380   9.153   5.000  13.721
14161SOL    HW244381   9.219   5.114  13.648
14162SOL     OW44382   9.650   2.936   0.710
14162SOL    HW144383   9.647   2.845   0.738
14162SOL    HW244384   9.737   2.966   0.734
14163SOL     OW44385  10.011  10.029   2.747
14163SOL    HW144386  10.027   9.948   2.796
14163SOL    HW244387  10.099  10.063   2.728
14164SOL     OW44388   1.170  11.631  12.638
14164SOL    HW144389   1.127  11.600  12.558
14164SOL    HW244390   1.123  11.711  12.660
14165SOL     OW44391   5.918  12.161   2.754
14165SOL    HW144392   5.923  12.213   2.674
14165SOL    HW244393   5.827  12.131   2.757
14166SOL     OW44394   6.368   3.563   0.292
14166SOL    HW144395   6.431   3.524   0.231
14166SOL    HW244396   6.303   3.604   0.235
14167SOL     OW44397   9.811  14.226   4.991
14167SOL    HW144398   9.760  14.307   4.991
14167SOL    HW244399   9.799  14.190   5.080
14168SOL     OW44400   5.255  12.301   1.070
14168SOL    HW144401   5.276  12.392   1.050
14168SOL    HW244402   5.174  12.305   1.121
14169SOL     OW44403   8.891   5.605  14.761
14169SOL    HW144404   8.934   5.641  14.683
14169SOL    HW244405   8.854   5.522  14.731
14170SOL     OW44406   8.140   9.249   8.766
14170SOL    HW144407   8.091   9.318   8.722
14170SOL    HW244408   8.074   9.194   8.806
14171SOL     OW44409  14.183   6.765  11.961
14171SOL    HW144410  14.096   6.751  11.923
14171SOL    HW244411  14.242   6.756  11.886
14172SOL     OW44412  12.709  10.380   4.372
14172SOL    HW144413  12.619  10.360   4.395
14172SOL    HW244414  12.727  10.326   4.295
14173SOL     OW44415   1.211   6.471  12.064
14173SOL    HW144416   1.194   6.506  11.976
14173SOL    HW244417   1.277   6.403  12.050
14174SOL     OW44418   9.381  12.658   4.129
14174SOL    HW144419   9.357  12.572   4.164
14174SOL    HW244420   9.467  12.644   4.089
14175SOL     OW44421   3.166   3.430   6.376
14175SOL    HW144422   3.105   3.379   6.322
14175SOL    HW244423   3.189   3.505   6.322
14176SOL     OW44424  12.877  12.793   1.978
14176SOL    HW144425  12.817  12.818   2.049
14176SOL    HW244426  12.841  12.711   1.944
14177SOL     OW44427   7.683   0.628  10.200
14177SOL    HW144428   7.693   0.534  10.183
14177SOL    HW244429   7.600   0.635  10.247
14178SOL     OW44430  14.011   3.903   3.668
14178SOL    HW144431  13.948   3.926   3.600
14178SOL    HW244432  14.018   3.981   3.722
14179SOL     OW44433   6.426   6.987   4.463
14179SOL    HW144434   6.493   7.052   4.485
14179SOL    HW244435   6.475   6.908   4.442
14180SOL     OW44436   6.690   9.645   4.377
14180SOL    HW144437   6.650   9.700   4.444
14180SOL    HW244438   6.646   9.560   4.387
14181SOL     OW44439   9.269   1.207   2.512
14181SOL    HW144440   9.275   1.131   2.454
14181SOL    HW244441   9.186   1.248   2.489
14182SOL     OW44442  14.845  14.378   7.146
14182SOL    HW144443  14.752  14.389   7.127
14182SOL    HW244444  14.846  14.330   7.229
14183SOL     OW44445   9.650   4.452   8.277
14183SOL    HW144446   9.663   4.493   8.192
14183SOL    HW244447   9.697   4.369   8.271
14184SOL     OW44448   4.274   2.318   7.045
14184SOL    HW144449   4.308   2.232   7.022
14184SOL    HW244450   4.188   2.321   7.003
14185SOL     OW44451  11.954   0.899   1.353
14185SOL    HW144452  11.874   0.920   1.306
14185SOL    HW244453  11.947   0.946   1.436
14186SOL     OW44454   1.107   2.663   3.060
14186SOL    HW144455   1.170   2.687   3.128
14186SOL    HW244456   1.159   2.616   2.995
14187SOL     OW44457  11.133   8.473   3.070
14187SOL    HW144458  11.106   8.459   3.161
14187SOL    HW244459  11.216   8.426   3.063
14188SOL     OW44460  14.726   9.742  10.658
14188SOL    HW144461  14.719   9.828  10.699
14188SOL    HW244462  14.811   9.708  10.685
14189SOL     OW44463  10.504   5.739   1.592
14189SOL    HW144464  10.548   5.699   1.667
14189SOL    HW244465  10.416   5.760   1.624
14190SOL     OW44466   6.468   7.469   4.503
14190SOL    HW144467   6.454   7.442   4.412
14190SOL    HW244468   6.534   7.538   4.497
14191SOL     OW44469  14.733   3.134   9.258
14191SOL    HW144470  14.759   3.223   9.235
14191SOL    HW244471  14.689   3.101   9.181
14192SOL     OW44472   6.834   6.200  11.860
14192SOL    HW144473   6.764   6.199  11.795
14192SOL    HW244474   6.913   6.216  11.809
14193SOL     OW44475  14.194   3.257   3.868
14193SOL    HW144476  14.147   3.298   3.940
14193SOL    HW244477  14.267   3.211   3.910
14194SOL     OW44478   5.203  10.400   7.661
14194SOL    HW144479   5.299  10.406   7.657
14194SOL    HW244480   5.174  10.417   7.571
14195SOL     OW44481   6.154   5.587  10.660
14195SOL    HW144482   6.187   5.524  10.596
14195SOL    HW244483   6.201   5.566  10.741
14196SOL     OW44484   4.619  10.996   4.384
14196SOL    HW144485   4.551  11.026   4.324
14196SOL    HW244486   4.579  10.921   4.429
14197SOL     OW44487   8.069   5.282   5.383
14197SOL    HW144488   8.103   5.371   5.387
14197SOL    HW244489   8.084   5.255   5.292
14198SOL     OW44490   3.762   1.103   4.429
14198SOL    HW144491   3.801   1.071   4.511
14198SOL    HW244492   3.829   1.158   4.390
14199SOL     OW44493   9.079  12.151   3.366
14199SOL    HW144494   9.099  12.069   3.321
14199SOL    HW244495   9.160  12.174   3.412
14200SOL     OW44496  12.579   7.421  10.757
14200SOL    HW144497  12.655   7.444  10.810
14200SOL    HW244498  12.572   7.326  10.764
14201SOL     OW44499  13.120   9.954  12.784
14201SOL    HW144500  13.186  10.016  12.753
14201SOL    HW244501  13.157   9.868  12.767
14202SOL     OW44502  11.858  10.930   6.029
14202SOL    HW144503  11.806  10.946   5.950
14202SOL    HW244504  11.796  10.940   6.101
14203SOL     OW44505  13.484   5.722   1.934
14203SOL    HW144506  13.545   5.714   1.861
14203SOL    HW244507  13.536   5.761   2.005
14204SOL     OW44508  12.113   9.859  11.532
14204SOL    HW144509  12.057   9.812  11.594
14204SOL    HW244510  12.201   9.848  11.567
14205SOL     OW44511  11.214   3.773   2.853
14205SOL    HW144512  11.159   3.758   2.776
14205SOL    HW244513  11.303   3.781   2.817
14206SOL     OW44514  10.044   9.502   0.313
14206SOL    HW144515  10.089   9.476   0.393
14206SOL    HW244516  10.065   9.433   0.250
14207SOL     OW44517  11.792   0.916  12.025
14207SOL    HW144518  11.808   0.993  12.079
14207SOL    HW244519  11.871   0.906  11.973
14208SOL     OW44520   6.274   6.718   3.861
14208SOL    HW144521   6.213   6.732   3.788
14208SOL    HW244522   6.227   6.746   3.938
14209SOL     OW44523   6.852   2.101   6.144
14209SOL    HW144524   6.886   2.184   6.111
14209SOL    HW244525   6.915   2.074   6.211
14210SOL     OW44526   3.156   8.565   7.270
14210SOL    HW144527   3.101   8.556   7.348
14210SOL    HW244528   3.187   8.476   7.252
14211SOL     OW44529  13.205   0.809   6.743
14211SOL    HW144530  13.199   0.717   6.771
14211SOL    HW244531  13.121   0.846   6.769
14212SOL     OW44532  11.920   4.005  11.352
14212SOL    HW144533  11.941   3.998  11.445
14212SOL    HW244534  11.932   3.916  11.317
14213SOL     OW44535   9.235   5.943   6.145
14213SOL    HW144536   9.140   5.934   6.154
14213SOL    HW244537   9.264   5.964   6.234
14214SOL     OW44538   0.903  12.711  12.074
14214SOL    HW144539   0.934  12.798  12.048
14214SOL    HW244540   0.869  12.723  12.163
14215SOL     OW44541  11.763   5.174  14.354
14215SOL    HW144542  11.725   5.248  14.306
14215SOL    HW244543  11.789   5.210  14.438
14216SOL     OW44544  11.963   5.562   9.058
14216SOL    HW144545  12.039   5.512   9.027
14216SOL    HW244546  11.887   5.514   9.025
14217SOL     OW44547   0.473   5.023  14.083
14217SOL    HW144548   0.443   4.966  14.154
14217SOL    HW244549   0.526   4.967  14.027
14218SOL     OW44550   7.508  13.364  12.733
14218SOL    HW144551   7.566  13.415  12.789
14218SOL    HW244552   7.542  13.378  12.644
14219SOL     OW44553   7.364  10.437   6.219
14219SOL    HW144554   7.292  10.499   6.230
14219SOL    HW244555   7.410  10.466   6.141
14220SOL     OW44556   1.696   3.094   2.583
14220SOL    HW144557   1.765   3.094   2.517
14220SOL    HW244558   1.729   3.038   2.653
14221SOL     OW44559  11.773   1.603  14.778
14221SOL    HW144560  11.827   1.527  14.757
14221SOL    HW244561  11.698   1.567  14.826
14222SOL     OW44562  11.053  14.428   4.427
14222SOL    HW144563  11.139  14.430   4.384
14222SOL    HW244564  11.066  14.373   4.504
14223SOL     OW44565  14.385   7.827  12.011
14223SOL    HW144566  14.306   7.847  11.960
14223SOL    HW244567  14.406   7.910  12.055
14224SOL     OW44568  12.016  10.871   7.814
14224SOL    HW144569  12.053  10.859   7.902
14224SOL    HW244570  11.922  10.861   7.825
14225SOL     OW44571  10.283   6.082  11.160
14225SOL    HW144572  10.193   6.109  11.141
14225SOL    HW244573  10.336   6.136  11.102
14226SOL     OW44574   0.484   3.726   7.540
14226SOL    HW144575   0.390   3.736   7.554
14226SOL    HW244576   0.515   3.675   7.615
14227SOL     OW44577   2.455   3.823   3.949
14227SOL    HW144578   2.394   3.826   4.024
14227SOL    HW244579   2.536   3.789   3.986
14228SOL     OW44580   3.552  10.389  12.404
14228SOL    HW144581   3.570  10.296  12.393
14228SOL    HW244582   3.462  10.400  12.372
14229SOL     OW44583   3.686   5.343   1.168
14229SOL    HW144584   3.668   5.363   1.076
14229SOL    HW244585   3.712   5.251   1.168
14230SOL     OW44586  11.861   2.227   3.983
14230SOL    HW144587  11.828   2.311   4.016
14230SOL    HW244588  11.786   2.168   3.988
14231SOL     OW44589   2.546   3.703   2.057
14231SOL    HW144590   2.614   3.712   2.123
14231SOL    HW244591   2.465   3.727   2.102
14232SOL     OW44592   9.115   3.008   8.786
14232SOL    HW144593   9.130   3.094   8.826
14232SOL    HW244594   9.187   2.954   8.820
14233SOL     OW44595  11.229   1.945   0.556
14233SOL    HW144596  11.232   2.025   0.504
14233SOL    HW244597  11.292   1.960   0.626
14234SOL     OW44598   9.804  13.349   6.955
14234SOL    HW144599   9.820  13.444   6.955
14234SOL    HW244600   9.857  13.316   7.028
14235SOL     OW44601   7.082  14.415  10.626
14235SOL    HW144602   7.072  14.446  10.717
14235SOL    HW244603   7.007  14.454  10.580
14236SOL     OW44604   7.382   4.939   1.368
14236SOL    HW144605   7.371   5.010   1.304
14236SOL    HW244606   7.429   4.979   1.440
14237SOL     OW44607  10.966   6.403   6.302
14237SOL    HW144608  10.907   6.327   6.309
14237SOL    HW244609  11.022   6.382   6.227
14238SOL     OW44610  10.372  13.775   3.834
14238SOL    HW144611  10.437  13.742   3.896
14238SOL    HW244612  10.393  13.731   3.752
14239SOL     OW44613   6.537  14.252  10.292
14239SOL    HW144614   6.574  14.329  10.251
14239SOL    HW244615   6.449  14.245  10.255
14240SOL     OW44616  12.862   7.721   3.670
14240SOL    HW144617  12.769   7.738   3.683
14240SOL    HW244618  12.877   7.636   3.712
14241SOL     OW44619  10.916  10.114   1.046
14241SOL    HW144620  10.854  10.137   1.116
14241SOL    HW244621  10.940  10.198   1.008
14242SOL     OW44622   5.980  14.689  12.581
14242SOL    HW144623   5.951  14.690  12.489
14242SOL    HW244624   6.030  14.770  12.591
14243SOL     OW44625   8.624   3.031   3.731
14243SOL    HW144626   8.623   3.127   3.735
14243SOL    HW244627   8.626   3.012   3.638
14244SOL     OW44628  11.479   0.414   9.937
14244SOL    HW144629  11.452   0.498   9.900
14244SOL    HW244630  11.460   0.350   9.868
14245SOL     OW44631   8.353   2.919   2.774
14245SOL    HW144632   8.307   2.909   2.857
14245SOL    HW244633   8.290   2.964   2.717
14246SOL     OW44634   2.165   3.133   8.653
14246SOL    HW144635   2.254   3.103   8.669
14246SOL    HW244636   2.160   3.146   8.558
14247SOL     OW44637   1.198  13.664  10.937
14247SOL    HW144638   1.279  13.707  10.965
14247SOL    HW244639   1.172  13.611  11.011
14248SOL     OW44640   9.930  10.153   8.762
14248SOL    HW144641  10.004  10.213   8.769
14248SOL    HW244642   9.931  10.126   8.670
14249SOL     OW44643  12.042   0.978   0.566
14249SOL    HW144644  11.982   0.949   0.498
14249SOL    HW244645  12.030   0.915   0.637
14250SOL     OW44646   0.165  10.732  11.709
14250SOL    HW144647   0.102  10.789  11.754
14250SOL    HW244648   0.190  10.780  11.631
14251SOL     OW44649   2.451  11.139  14.531
14251SOL    HW144650   2.533  11.089  14.524
14251SOL    HW244651   2.440  11.155  14.624
14252SOL     OW44652  13.801   7.113  10.539
14252SOL    HW144653  13.846   7.096  10.456
14252SOL    HW244654  13.868   7.154  10.594
14253SOL     OW44655   4.196  10.984   7.600
14253SOL    HW144656   4.121  11.012   7.653
14253SOL    HW244657   4.162  10.912   7.548
14254SOL     OW44658   6.676   6.383   3.466
14254SOL    HW144659   6.618   6.454   3.494
14254SOL    HW244660   6.619   6.323   3.418
14255SOL     OW44661   3.975   1.324  11.387
14255SOL    HW144662   3.924   1.351  11.311
14255SOL    HW244663   4.044   1.389  11.394
14256SOL     OW44664   6.017   4.428   3.126
14256SOL    HW144665   5.941   4.370   3.123
14256SOL    HW244666   6.083   4.384   3.073
14257SOL     OW44667   6.652  14.339   9.335
14257SOL    HW144668   6.602  14.354   9.415
14257SOL    HW244669   6.586  14.341   9.265
14258SOL     OW44670   7.712   5.792   7.823
14258SOL    HW144671   7.662   5.711   7.831
14258SOL    HW244672   7.799   5.763   7.793
14259SOL     OW44673  13.008  13.059  13.805
14259SOL    HW144674  12.974  13.119  13.739
14259SOL    HW244675  12.985  13.101  13.888
14260SOL     OW44676  14.040   5.328   5.882
14260SOL    HW144677  14.130   5.301   5.902
14260SOL    HW244678  14.021   5.397   5.945
14261SOL     OW44679   9.797  11.587   1.617
14261SOL    HW144680   9.755  11.672   1.632
14261SOL    HW244681   9.876  11.608   1.568
14262SOL     OW44682   8.075  10.952  11.781
14262SOL    HW144683   8.021  11.027  11.809
14262SOL    HW244684   8.041  10.929  11.695
14263SOL     OW44685   4.233   5.730   6.535
14263SOL    HW144686   4.208   5.652   6.486
14263SOL    HW244687   4.328   5.723   6.545
14264SOL     OW44688   6.688  11.435   8.042
14264SOL    HW144689   6.647  11.420   8.127
14264SOL    HW244690   6.687  11.350   7.998
14265SOL     OW44691   4.561   0.257   0.722
14265SOL    HW144692   4.589   0.250   0.631
14265SOL    HW244693   4.507   0.336   0.724
14266SOL     OW44694   0.744   1.671   6.861
14266SOL    HW144695   0.783   1.628   6.938
14266SOL    HW244696   0.664   1.621   6.844
14267SOL     OW44697   5.000  14.003   5.140
14267SOL    HW144698   4.958  13.993   5.055
14267SOL    HW244699   5.040  14.090   5.137
14268SOL     OW44700  10.186   0.425  12.074
14268SOL    HW144701  10.276   0.448  12.051
14268SOL    HW244702  10.142   0.411  11.990
14269SOL     OW44703   0.678   3.471  10.135
14269SOL    HW144704   0.760   3.479  10.183
14269SOL    HW244705   0.674   3.380  10.107
14270SOL     OW44706  13.508   0.495   3.846
14270SOL    HW144707  13.521   0.400   3.841
14270SOL    HW244708  13.560   0.530   3.773
14271SOL     OW44709  10.239  13.278  13.632
14271SOL    HW144710  10.212  13.240  13.548
14271SOL    HW244711  10.275  13.364  13.608
14272SOL     OW44712  14.436  11.403   4.550
14272SOL    HW144713  14.453  11.496   4.564
14272SOL    HW244714  14.431  11.366   4.639
14273SOL     OW44715   3.717  13.660  10.949
14273SOL    HW144716   3.756  13.641  11.034
14273SOL    HW244717   3.684  13.576  10.919
14274SOL     OW44718   9.633  13.930  14.854
14274SOL    HW144719   9.538  13.927  14.841
14274SOL    HW244720   9.669  13.887  14.776
14275SOL     OW44721   5.793   8.404   6.933
14275SOL    HW144722   5.741   8.478   6.902
14275SOL    HW244723   5.735   8.359   6.995
14276SOL     OW44724   4.656  13.055   0.131
14276SOL    HW144725   4.641  13.089   0.218
14276SOL    HW244726   4.749  13.029   0.130
14277SOL     OW44727   0.685   1.250   8.161
14277SOL    HW144728   0.766   1.294   8.187
14277SOL    HW244729   0.675   1.271   8.068
14278SOL     OW44730   1.759   9.659  14.755
14278SOL    HW144731   1.794   9.670  14.667
14278SOL    HW244732   1.733   9.747  14.782
14279SOL     OW44733  13.639   0.566   0.420
14279SOL    HW144734  13.604   0.652   0.445
14279SOL    HW244735  13.709   0.550   0.484
14280SOL     OW44736  12.513   6.164  12.104
14280SOL    HW144737  12.459   6.181  12.027
14280SOL    HW244738  12.450   6.135  12.171
14281SOL     OW44739   4.835   0.463   6.252
14281SOL    HW144740   4.869   0.433   6.168
14281SOL    HW244741   4.896   0.532   6.279
14282SOL     OW44742  10.974  13.847   2.655
14282SOL    HW144743  11.045  13.801   2.611
14282SOL    HW244744  11.014  13.929   2.685
14283SOL     OW44745   8.280   9.647  10.921
14283SOL    HW144746   8.287   9.705  10.997
14283SOL    HW244747   8.258   9.561  10.958
14284SOL     OW44748  12.144  11.560   2.189
14284SOL    HW144749  12.077  11.550   2.121
14284SOL    HW244750  12.193  11.638   2.163
14285SOL     OW44751  11.826   0.245   5.280
14285SOL    HW144752  11.881   0.319   5.302
14285SOL    HW244753  11.803   0.258   5.187
14286SOL     OW44754   3.713   5.835   4.135
14286SOL    HW144755   3.678   5.886   4.062
14286SOL    HW244756   3.767   5.896   4.184
14287SOL     OW44757   6.705   4.703  10.658
14287SOL    HW144758   6.693   4.794  10.685
14287SOL    HW244759   6.776   4.671  10.713
14288SOL     OW44760   3.744   6.910   2.492
14288SOL    HW144761   3.825   6.960   2.488
14288SOL    HW244762   3.733   6.889   2.585
14289SOL     OW44763   6.288  13.019   5.987
14289SOL    HW144764   6.256  13.085   6.048
14289SOL    HW244765   6.213  13.001   5.930
14290SOL     OW44766   3.972   5.300  10.513
14290SOL    HW144767   4.029   5.330  10.584
14290SOL    HW244768   3.890   5.348  10.526
14291SOL     OW44769   9.981   1.309  13.746
14291SOL    HW144770   9.906   1.269  13.703
14291SOL    HW244771  10.043   1.326  13.675
14292SOL     OW44772  11.968   9.166  14.492
14292SOL    HW144773  12.048   9.216  14.476
14292SOL    HW244774  11.899   9.215  14.447
14293SOL     OW44775  14.582   0.147   1.297
14293SOL    HW144776  14.579   0.154   1.202
14293SOL    HW244777  14.491   0.160   1.325
14294SOL     OW44778  12.930   9.547   6.589
14294SOL    HW144779  12.889   9.571   6.506
14294SOL    HW244780  13.011   9.501   6.564
14295SOL     OW44781   7.320  13.240  10.622
14295SOL    HW144782   7.331  13.173  10.554
14295SOL    HW244783   7.284  13.192  10.696
14296SOL     OW44784   5.428  13.323  13.386
14296SOL    HW144785   5.465  13.372  13.459
14296SOL    HW244786   5.452  13.374  13.308
14297SOL     OW44787  13.786   5.982   1.571
14297SOL    HW144788  13.829   5.962   1.654
14297SOL    HW244789  13.859   6.002   1.511
14298SOL     OW44790  12.306   2.314  12.209
14298SOL    HW144791  12.239   2.281  12.149
14298SOL    HW244792  12.277   2.287  12.295
14299SOL     OW44793  10.840   4.379  12.234
14299SOL    HW144794  10.890   4.301  12.259
14299SOL    HW244795  10.826   4.425  12.317
14300SOL     OW44796   3.265   1.717   3.571
14300SOL    HW144797   3.274   1.705   3.666
14300SOL    HW244798   3.310   1.800   3.553
14301SOL     OW44799   7.905  12.681   0.647
14301SOL    HW144800   7.851  12.662   0.571
14301SOL    HW244801   7.866  12.760   0.685
14302SOL     OW44802   9.692   7.909  13.740
14302SOL    HW144803   9.777   7.894  13.699
14302SOL    HW244804   9.661   7.822  13.764
14303SOL     OW44805   6.265   8.900  13.510
14303SOL    HW144806   6.281   8.992  13.491
14303SOL    HW244807   6.320   8.880  13.585
14304SOL     OW44808   6.401  10.593  11.720
14304SOL    HW144809   6.374  10.649  11.647
14304SOL    HW244810   6.375  10.505  11.692
14305SOL     OW44811   3.598   1.096   6.008
14305SOL    HW144812   3.524   1.154   5.991
14305SOL    HW244813   3.673   1.139   5.966
14306SOL     OW44814   5.993  13.932   7.318
14306SOL    HW144815   5.945  14.008   7.351
14306SOL    HW244816   6.010  13.953   7.226
14307SOL     OW44817  13.455   9.042   4.490
14307SOL    HW144818  13.370   9.084   4.478
14307SOL    HW244819  13.434   8.952   4.516
14308SOL     OW44820   7.425  10.044   5.582
14308SOL    HW144821   7.393  10.065   5.670
14308SOL    HW244822   7.377  10.103   5.524
14309SOL     OW44823  10.928  13.647  13.894
14309SOL    HW144824  10.848  13.668  13.942
14309SOL    HW244825  10.957  13.732  13.859
14310SOL     OW44826   5.697   7.039   0.305
14310SOL    HW144827   5.606   7.020   0.283
14310SOL    HW244828   5.711   7.129   0.278
14311SOL     OW44829   5.718   4.262   7.180
14311SOL    HW144830   5.666   4.336   7.149
14311SOL    HW244831   5.684   4.186   7.133
14312SOL     OW44832   5.742   2.146   7.675
14312SOL    HW144833   5.764   2.088   7.748
14312SOL    HW244834   5.764   2.234   7.707
14313SOL     OW44835  10.994  13.876   5.598
14313SOL    HW144836  11.014  13.928   5.520
14313SOL    HW244837  10.904  13.847   5.586
14314SOL     OW44838   8.619  14.466   7.612
14314SOL    HW144839   8.690  14.525   7.585
14314SOL    HW244840   8.618  14.471   7.707
14315SOL     OW44841   9.897  10.906   6.050
14315SOL    HW144842   9.972  10.965   6.056
14315SOL    HW244843   9.923  10.842   5.983
14316SOL     OW44844  10.086   2.242   8.070
14316SOL    HW144845  10.121   2.288   8.146
14316SOL    HW244846   9.996   2.222   8.093
14317SOL     OW44847  10.152  14.627   4.565
14317SOL    HW144848  10.222  14.672   4.518
14317SOL    HW244849  10.156  14.661   4.654
14318SOL     OW44850   9.108   4.031  14.332
14318SOL    HW144851   9.037   3.991  14.383
14318SOL    HW244852   9.177   3.966  14.330
14319SOL     OW44853   1.285  11.367  12.162
14319SOL    HW144854   1.327  11.284  12.184
14319SOL    HW244855   1.251  11.354  12.073
14320SOL     OW44856   4.640   6.994   6.637
14320SOL    HW144857   4.595   6.920   6.678
14320SOL    HW244858   4.616   7.070   6.690
14321SOL     OW44859   0.788   2.021  12.573
14321SOL    HW144860   0.863   2.068  12.535
14321SOL    HW244861   0.797   1.932  12.541
14322SOL     OW44862   8.494   4.375   4.355
14322SOL    HW144863   8.438   4.362   4.278
14322SOL    HW244864   8.582   4.384   4.320
14323SOL     OW44865  10.112   0.183   2.038
14323SOL    HW144866  10.092   0.098   1.999
14323SOL    HW244867  10.035   0.206   2.089
14324SOL     OW44868   9.797   9.648   9.132
14324SOL    HW144869   9.750   9.606   9.060
14324SOL    HW244870   9.795   9.741   9.112
14325SOL     OW44871  13.018   4.092   1.061
14325SOL    HW144872  13.074   4.137   1.125
14325SOL    HW244873  12.944   4.151   1.048
14326SOL     OW44874   4.539   1.897   0.557
14326SOL    HW144875   4.630   1.880   0.532
14326SOL    HW244876   4.510   1.815   0.597
14327SOL     OW44877   4.241   7.004  14.457
14327SOL    HW144878   4.190   6.987  14.377
14327SOL    HW244879   4.320   7.047  14.426
14328SOL     OW44880  11.689   4.438   2.009
14328SOL    HW144881  11.767   4.494   2.009
14328SOL    HW244882  11.719   4.355   1.971
14329SOL     OW44883  12.936   6.068   9.268
14329SOL    HW144884  13.014   6.041   9.316
14329SOL    HW244885  12.970   6.118   9.193
14330SOL     OW44886   2.185  10.783   7.205
14330SOL    HW144887   2.113  10.826   7.251
14330SOL    HW244888   2.252  10.771   7.272
14331SOL     OW44889   9.265  11.327   0.973
14331SOL    HW144890   9.351  11.293   0.950
14331SOL    HW244891   9.213  11.249   0.992
14332SOL     OW44892   0.096   1.292   5.113
14332SOL    HW144893   0.111   1.386   5.114
14332SOL    HW244894   0.008   1.281   5.148
14333SOL     OW44895   3.420   8.521   3.321
14333SOL    HW144896   3.326   8.512   3.337
14333SOL    HW244897   3.427   8.537   3.227
14334SOL     OW44898  10.350   8.038  13.418
14334SOL    HW144899  10.259   8.066  13.409
14334SOL    HW244900  10.395   8.114  13.453
14335SOL     OW44901   1.880   2.445   0.636
14335SOL    HW144902   1.900   2.490   0.554
14335SOL    HW244903   1.899   2.353   0.618
14336SOL     OW44904   2.724   5.416   2.690
14336SOL    HW144905   2.820   5.411   2.692
14336SOL    HW244906   2.696   5.325   2.704
14337SOL     OW44907  13.565  11.171   4.554
14337SOL    HW144908  13.525  11.109   4.616
14337SOL    HW244909  13.501  11.241   4.546
14338SOL     OW44910  10.473  13.316   2.274
14338SOL    HW144911  10.540  13.319   2.205
14338SOL    HW244912  10.427  13.400   2.266
14339SOL     OW44913  13.061   3.063   7.924
14339SOL    HW144914  13.083   2.991   7.984
14339SOL    HW244915  12.986   3.106   7.965
14340SOL     OW44916   5.054  10.151   7.149
14340SOL    HW144917   4.963  10.172   7.167
14340SOL    HW244918   5.095  10.236   7.130
14341SOL     OW44919   1.328   1.271   0.836
14341SOL    HW144920   1.249   1.239   0.792
14341SOL    HW244921   1.311   1.364   0.850
14342SOL     OW44922   0.075   8.617  10.617
14342SOL    HW144923   0.130   8.541  10.634
14342SOL    HW244924   0.000   8.606  10.676
14343SOL     OW44925   1.139  13.989   6.160
14343SOL    HW144926   1.100  14.027   6.081
14343SOL    HW244927   1.228  14.023   6.161
14344SOL     OW44928   7.386   4.810   8.860
14344SOL    HW144929   7.318   4.797   8.794
14344SOL    HW244930   7.341   4.854   8.933
14345SOL     OW44931  10.564   5.706   4.298
14345SOL    HW144932  10.477   5.686   4.333
14345SOL    HW244933  10.550   5.715   4.204
14346SOL     OW44934   7.659  14.191   2.353
14346SOL    HW144935   7.682  14.274   2.394
14346SOL    HW244936   7.573  14.169   2.389
14347SOL     OW44937   7.184  12.421   0.757
14347SOL    HW144938   7.092  12.432   0.783
14347SOL    HW244939   7.179  12.378   0.671
14348SOL     OW44940   5.108   4.656   1.944
14348SOL    HW144941   5.141   4.746   1.949
14348SOL    HW244942   5.185   4.604   1.920
14349SOL     OW44943   0.804  14.447   3.411
14349SOL    HW144944   0.856  14.368   3.424
14349SOL    HW244945   0.716  14.423   3.442
14350SOL     OW44946  13.521   9.250   7.445
14350SOL    HW144947  13.589   9.184   7.430
14350SOL    HW244948  13.442   9.211   7.407
14351SOL     OW44949  13.407   7.979   3.324
14351SOL    HW144950  13.355   8.046   3.370
14351SOL    HW244951  13.344   7.909   3.307
14352SOL     OW44952   4.978   3.396  14.636
14352SOL    HW144953   4.923   3.319  14.649
14352SOL    HW244954   5.068   3.364  14.649
14353SOL     OW44955   8.926   4.335   7.916
14353SOL    HW144956   8.923   4.361   8.008
14353SOL    HW244957   8.847   4.283   7.903
14354SOL     OW44958  11.066   5.843  14.544
14354SOL    HW144959  11.064   5.937  14.527
14354SOL    HW244960  11.157   5.825  14.568
14355SOL     OW44961   1.654   3.693   1.598
14355SOL    HW144962   1.704   3.772   1.619
14355SOL    HW244963   1.718   3.633   1.559
14356SOL     OW44964   6.908   2.852   7.463
14356SOL    HW144965   6.926   2.945   7.451
14356SOL    HW244966   6.992   2.809   7.448
14357SOL     OW44967   4.212  13.990  10.453
14357SOL    HW144968   4.157  13.919  10.485
14357SOL    HW244969   4.245  13.959  10.369
14358SOL     OW44970   9.995   4.095   1.091
14358SOL    HW144971  10.082   4.127   1.116
14358SOL    HW244972   9.981   4.019   1.147
14359SOL     OW44973   9.440   5.980  13.348
14359SOL    HW144974   9.480   5.913  13.293
14359SOL    HW244975   9.360   5.939  13.382
14360SOL     OW44976  13.127   7.260  11.526
14360SOL    HW144977  13.071   7.273  11.603
14360SOL    HW244978  13.079   7.302  11.455
14361SOL     OW44979  11.992   5.799   6.810
14361SOL    HW144980  11.897   5.791   6.808
14361SOL    HW244981  12.022   5.726   6.863
14362SOL     OW44982   5.575   6.623   8.926
14362SOL    HW144983   5.536   6.536   8.939
14362SOL    HW244984   5.505   6.684   8.950
14363SOL     OW44985   8.393  12.769   7.369
14363SOL    HW144986   8.376  12.771   7.275
14363SOL    HW244987   8.430  12.855   7.388
14364SOL     OW44988   4.881   9.957  10.990
14364SOL    HW144989   4.786   9.962  11.000
14364SOL    HW244990   4.906   9.880  11.041
14365SOL     OW44991  10.703   5.365   2.955
14365SOL    HW144992  10.789   5.329   2.933
14365SOL    HW244993  10.671   5.404   2.874
14366SOL     OW44994  14.095   0.244  13.973
14366SOL    HW144995  14.148   0.294  14.034
14366SOL    HW244996  14.020   0.215  14.025
14367SOL     OW44997   9.108  10.204   3.381
14367SOL    HW144998   9.191  10.249   3.398
14367SOL    HW244999   9.134  10.114   3.359
14368SOL     OW45000   2.475  13.794   1.895
14368SOL    HW145001   2.435  13.877   1.918
14368SOL    HW245002   2.407  13.746   1.848
14369SOL     OW45003   7.274   7.870   6.091
14369SOL    HW145004   7.218   7.904   6.161
14369SOL    HW245005   7.309   7.788   6.126
14370SOL     OW45006  14.510   4.255  14.107
14370SOL    HW145007  14.420   4.263  14.138
14370SOL    HW245008  14.504   4.268  14.012
14371SOL     OW45009  11.673  12.897   4.386
14371SOL    HW145010  11.738  12.827   4.380
14371SOL    HW245011  11.709  12.958   4.451
14372SOL     OW45012   0.863   6.726   9.593
14372SOL    HW145013   0.895   6.652   9.541
14372SOL    HW245014   0.775   6.700   9.620
14373SOL     OW45015  13.253   6.046   1.578
14373SOL    HW145016  13.303   5.991   1.517
14373SOL    HW245017  13.248   6.131   1.536
14374SOL     OW45018   7.335   3.659  12.409
14374SOL    HW145019   7.282   3.628  12.335
14374SOL    HW245020   7.285   3.732  12.445
14375SOL     OW45021   9.249   6.160  12.590
14375SOL    HW145022   9.334   6.157  12.546
14375SOL    HW245023   9.190   6.113  12.531
14376SOL     OW45024   2.890  13.877   0.180
14376SOL    HW145025   2.914  13.924   0.260
14376SOL    HW245026   2.860  13.946   0.120
14377SOL     OW45027  11.969  12.036  13.806
14377SOL    HW145028  11.996  11.957  13.853
14377SOL    HW245029  11.873  12.034  13.809
14378SOL     OW45030   4.224   9.779   0.914
14378SOL    HW145031   4.260   9.727   0.985
14378SOL    HW245032   4.231   9.870   0.946
14379SOL     OW45033   7.651   9.618   1.852
14379SOL    HW145034   7.645   9.586   1.942
14379SOL    HW245035   7.745   9.615   1.832
14380SOL     OW45036   2.064   5.522  11.328
14380SOL    HW145037   1.993   5.460  11.347
14380SOL    HW245038   2.116   5.479  11.260
14381SOL     OW45039   6.643   9.840   9.395
14381SOL    HW145040   6.607   9.818   9.480
14381SOL    HW245041   6.656   9.756   9.351
14382SOL     OW45042  10.832   4.236  11.709
14382SOL    HW145043  10.886   4.313  11.723
14382SOL    HW245044  10.882   4.183  11.646
14383SOL     OW45045   0.935   7.735   7.030
14383SOL    HW145046   0.950   7.779   7.114
14383SOL    HW245047   0.998   7.774   6.971
14384SOL     OW45048   1.063  10.546   5.593
14384SOL    HW145049   1.042  10.629   5.551
14384SOL    HW245050   1.127  10.505   5.535
14385SOL     OW45051  10.421  13.794   4.555
14385SOL    HW145052  10.336  13.775   4.514
14385SOL    HW245053  10.468  13.711   4.554
14386SOL     OW45054   3.853   0.938  14.631
14386SOL    HW145055   3.898   1.019  14.654
14386SOL    HW245056   3.912   0.869  14.660
14387SOL     OW45057  13.784  12.734   6.645
14387SOL    HW145058  13.837  12.782   6.710
14387SOL    HW245059  13.754  12.656   6.691
14388SOL     OW45060   0.381   5.850   7.078
14388SOL    HW145061   0.380   5.824   6.985
14388SOL    HW245062   0.422   5.775   7.122
14389SOL     OW45063  13.351  10.078  10.374
14389SOL    HW145064  13.386  10.137  10.308
14389SOL    HW245065  13.426  10.057  10.429
14390SOL     OW45066  10.479   0.474   7.861
14390SOL    HW145067  10.411   0.430   7.812
14390SOL    HW245068  10.446   0.478   7.951
14391SOL     OW45069   3.129   4.840  13.946
14391SOL    HW145070   3.165   4.928  13.951
14391SOL    HW245071   3.092   4.824  14.033
14392SOL     OW45072   5.823  10.938   9.214
14392SOL    HW145073   5.912  10.964   9.191
14392SOL    HW245074   5.785  11.016   9.254
14393SOL     OW45075   5.549  11.100   8.122
14393SOL    HW145076   5.577  11.142   8.203
14393SOL    HW245077   5.502  11.021   8.151
14394SOL     OW45078  10.521   9.357   4.613
14394SOL    HW145079  10.499   9.362   4.520
14394SOL    HW245080  10.601   9.304   4.616
14395SOL     OW45081  11.539   3.958   6.722
14395SOL    HW145082  11.549   4.009   6.802
14395SOL    HW245083  11.461   3.905   6.737
14396SOL     OW45084  12.346  11.486   9.926
14396SOL    HW145085  12.389  11.441   9.854
14396SOL    HW245086  12.393  11.457  10.004
14397SOL     OW45087   0.332   7.078   2.013
14397SOL    HW145088   0.339   7.131   2.092
14397SOL    HW245089   0.409   7.102   1.961
14398SOL     OW45090  11.128   5.949  12.222
14398SOL    HW145091  11.165   5.927  12.136
14398SOL    HW245092  11.138   6.043  12.229
14399SOL     OW45093   8.380  11.594   7.550
14399SOL    HW145094   8.357  11.570   7.640
14399SOL    HW245095   8.476  11.603   7.551
14400SOL     OW45096   9.933   8.622  12.739
14400SOL    HW145097   9.949   8.562  12.665
14400SOL    HW245098   9.882   8.694  12.701
14401SOL     OW45099   9.546  10.235   5.493
14401SOL    HW145100   9.519  10.181   5.568
14401SOL    HW245101   9.628  10.196   5.463
14402SOL     OW45102   8.994   1.397   9.774
14402SOL    HW145103   9.063   1.439   9.722
14402SOL    HW245104   9.027   1.401   9.864
14403SOL     OW45105   3.444  10.336   0.476
14403SOL    HW145106   3.489  10.388   0.409
14403SOL    HW245107   3.434  10.250   0.436
14404SOL     OW45108   2.521   6.074   9.312
14404SOL    HW145109   2.608   6.114   9.312
14404SOL    HW245110   2.471   6.125   9.376
14405SOL     OW45111  12.593   1.916   7.987
14405SOL    HW145112  12.504   1.880   7.986
14405SOL    HW245113  12.639   1.865   8.055
14406SOL     OW45114   2.765  13.752   2.153
14406SOL    HW145115   2.780  13.838   2.192
14406SOL    HW245116   2.853  13.716   2.141
14407SOL     OW45117   9.639   6.347   4.514
14407SOL    HW145118   9.558   6.393   4.534
14407SOL    HW245119   9.612   6.259   4.489
14408SOL     OW45120   4.249   4.750   5.267
14408SOL    HW145121   4.187   4.677   5.266
14408SOL    HW245122   4.284   4.751   5.356
14409SOL     OW45123   0.476   5.441  12.109
14409SOL    HW145124   0.467   5.349  12.133
14409SOL    HW245125   0.447   5.489  12.186
14410SOL     OW45126   6.836   9.263  12.141
14410SOL    HW145127   6.765   9.219  12.187
14410SOL    HW245128   6.806   9.353  12.130
14411SOL     OW45129   7.831   8.642   6.872
14411SOL    HW145130   7.873   8.574   6.925
14411SOL    HW245131   7.884   8.648   6.793
14412SOL     OW45132   7.511   9.336   3.532
14412SOL    HW145133   7.545   9.275   3.467
14412SOL    HW245134   7.568   9.412   3.527
14413SOL     OW45135   3.669   6.699   0.933
14413SOL    HW145136   3.667   6.645   0.854
14413SOL    HW245137   3.726   6.773   0.910
14414SOL     OW45138   0.509  13.395   3.315
14414SOL    HW145139   0.425  13.351   3.331
14414SOL    HW245140   0.512  13.465   3.381
14415SOL     OW45141   8.397  12.035   6.182
14415SOL    HW145142   8.326  11.975   6.158
14415SOL    HW245143   8.355  12.121   6.184
14416SOL     OW45144  11.528   1.886   4.818
14416SOL    HW145145  11.447   1.881   4.766
14416SOL    HW245146  11.538   1.799   4.856
14417SOL     OW45147  10.298   7.847   4.880
14417SOL    HW145148  10.236   7.919   4.886
14417SOL    HW245149  10.330   7.835   4.969
14418SOL     OW45150  10.955   7.336   5.383
14418SOL    HW145151  11.008   7.395   5.436
14418SOL    HW245152  10.980   7.249   5.412
14419SOL     OW45153   4.875   9.794   7.595
14419SOL    HW145154   4.836   9.851   7.661
14419SOL    HW245155   4.918   9.853   7.534
14420SOL     OW45156   0.684   3.413   1.367
14420SOL    HW145157   0.712   3.404   1.276
14420SOL    HW245158   0.711   3.332   1.409
14421SOL     OW45159   9.785   5.176   7.387
14421SOL    HW145160   9.770   5.257   7.339
14421SOL    HW245161   9.771   5.200   7.479
14422SOL     OW45162   1.827   3.919   5.576
14422SOL    HW145163   1.803   3.923   5.483
14422SOL    HW245164   1.838   3.826   5.594
14423SOL     OW45165   5.940   4.450   0.413
14423SOL    HW145166   5.895   4.531   0.388
14423SOL    HW245167   5.985   4.422   0.333
14424SOL     OW45168   5.860   9.341   2.171
14424SOL    HW145169   5.941   9.376   2.135
14424SOL    HW245170   5.838   9.402   2.243
14425SOL     OW45171  10.685  12.478   8.477
14425SOL    HW145172  10.714  12.568   8.494
14425SOL    HW245173  10.612  12.488   8.416
14426SOL     OW45174   1.945   0.973   2.773
14426SOL    HW145175   1.965   0.886   2.739
14426SOL    HW245176   1.894   1.016   2.704
14427SOL     OW45177   4.288  13.442  12.353
14427SOL    HW145178   4.357  13.506  12.367
14427SOL    HW245179   4.228  13.483  12.291
14428SOL     OW45180   8.994   4.102   3.975
14428SOL    HW145181   8.994   4.019   4.022
14428SOL    HW245182   8.904   4.134   3.982
14429SOL     OW45183   1.586   1.813   3.092
14429SOL    HW145184   1.491   1.807   3.081
14429SOL    HW245185   1.622   1.757   3.022
14430SOL     OW45186  10.862   7.876   3.019
14430SOL    HW145187  10.864   7.782   3.038
14430SOL    HW245188  10.929   7.889   2.952
14431SOL     OW45189  13.734   0.413   1.274
14431SOL    HW145190  13.717   0.335   1.328
14431SOL    HW245191  13.812   0.390   1.224
14432SOL     OW45192   5.935   9.711   2.333
14432SOL    HW145193   5.941   9.806   2.340
14432SOL    HW245194   5.846   9.691   2.360
14433SOL     OW45195  12.889   9.538  13.721
14433SOL    HW145196  12.967   9.483  13.710
14433SOL    HW245197  12.817   9.475  13.730
14434SOL     OW45198   5.470  13.174  12.091
14434SOL    HW145199   5.541  13.117  12.060
14434SOL    HW245200   5.456  13.235  12.019
14435SOL     OW45201   6.026  14.373   9.082
14435SOL    HW145202   6.060  14.298   9.033
14435SOL    HW245203   6.101  14.403   9.133
14436SOL     OW45204   0.109  13.801  12.696
14436SOL    HW145205   0.203  13.796  12.681
14436SOL    HW245206   0.094  13.746  12.773
14437SOL     OW45207  14.292   5.094  10.618
14437SOL    HW145208  14.256   5.181  10.599
14437SOL    HW245209  14.280   5.084  10.712
14438SOL     OW45210   7.400  14.774  13.798
14438SOL    HW145211   7.489  14.764  13.765
14438SOL    HW245212   7.371  14.859  13.763
14439SOL     OW45213  12.414  13.949  13.262
14439SOL    HW145214  12.451  13.921  13.345
14439SOL    HW245215  12.467  13.905  13.196
14440SOL     OW45216   2.436  10.524   2.402
14440SOL    HW145217   2.482  10.443   2.382
14440SOL    HW245218   2.363  10.526   2.340
14441SOL     OW45219   6.739   5.979  12.477
14441SOL    HW145220   6.672   5.950  12.416
14441SOL    HW245221   6.745   6.074  12.464
14442SOL     OW45222   5.673   3.237   5.220
14442SOL    HW145223   5.619   3.290   5.278
14442SOL    HW245224   5.629   3.152   5.217
14443SOL     OW45225   8.243   4.860   8.085
14443SOL    HW145226   8.303   4.935   8.085
14443SOL    HW245227   8.157   4.898   8.068
14444SOL     OW45228   8.271   0.230   7.203
14444SOL    HW145229   8.241   0.207   7.115
14444SOL    HW245230   8.272   0.326   7.204
14445SOL     OW45231   4.329   4.045  10.461
14445SOL    HW145232   4.408   3.996  10.480
14445SOL    HW245233   4.275   3.985  10.409
14446SOL     OW45234  11.239   3.126   4.182
14446SOL    HW145235  11.249   3.146   4.089
14446SOL    HW245236  11.309   3.064   4.201
14447SOL     OW45237   0.050   2.519   3.849
14447SOL    HW145238   0.141   2.491   3.861
14447SOL    HW245239   0.017   2.466   3.777
14448SOL     OW45240  13.979   4.770   2.209
14448SOL    HW145241  13.935   4.812   2.135
14448SOL    HW245242  13.983   4.677   2.185
14449SOL     OW45243  14.737   4.637  11.937
14449SOL    HW145244  14.662   4.577  11.943
14449SOL    HW245245  14.801   4.590  11.884
14450SOL     OW45246  12.161   9.973   3.435
14450SOL    HW145247  12.225  10.020   3.489
14450SOL    HW245248  12.076  10.006   3.466
14451SOL     OW45249   9.022   3.957   7.940
14451SOL    HW145250   9.063   4.015   7.875
14451SOL    HW245251   9.049   3.869   7.913
14452SOL     OW45252   2.583   6.116   1.895
14452SOL    HW145253   2.577   6.209   1.919
14452SOL    HW245254   2.677   6.102   1.879
14453SOL     OW45255   4.589  12.152   6.221
14453SOL    HW145256   4.542  12.216   6.167
14453SOL    HW245257   4.615  12.202   6.299
14454SOL     OW45258   7.869   6.416   6.740
14454SOL    HW145259   7.868   6.490   6.679
14454SOL    HW245260   7.962   6.397   6.752
14455SOL     OW45261  11.245  10.378   6.899
14455SOL    HW145262  11.202  10.420   6.824
14455SOL    HW245263  11.276  10.450   6.953
14456SOL     OW45264   1.620   3.974  13.972
14456SOL    HW145265   1.581   3.893  13.940
14456SOL    HW245266   1.671   3.948  14.048
14457SOL     OW45267   7.224  12.531   9.568
14457SOL    HW145268   7.253  12.449   9.529
14457SOL    HW245269   7.137  12.546   9.530
14458SOL     OW45270   2.967  13.375   5.714
14458SOL    HW145271   3.020  13.405   5.788
14458SOL    HW245272   2.937  13.288   5.740
14459SOL     OW45273  13.813   4.969  14.722
14459SOL    HW145274  13.751   4.900  14.700
14459SOL    HW245275  13.898   4.935  14.695
14460SOL     OW45276   8.769   3.310   0.134
14460SOL    HW145277   8.813   3.393   0.153
14460SOL    HW245278   8.785   3.256   0.212
14461SOL     OW45279   1.720   9.301   0.122
14461SOL    HW145280   1.814   9.316   0.109
14461SOL    HW245281   1.707   9.210   0.097
14462SOL     OW45282  13.835   7.431  12.402
14462SOL    HW145283  13.859   7.443  12.310
14462SOL    HW245284  13.908   7.380  12.439
14463SOL     OW45285   0.075  11.904   4.445
14463SOL    HW145286   0.116  11.989   4.429
14463SOL    HW245287   0.092  11.886   4.538
14464SOL     OW45288   5.079  13.993   9.214
14464SOL    HW145289   5.062  14.007   9.307
14464SOL    HW245290   5.163  14.036   9.198
14465SOL     OW45291  13.561   5.198   1.097
14465SOL    HW145292  13.554   5.260   1.024
14465SOL    HW245293  13.641   5.224   1.142
14466SOL     OW45294   4.916   6.759   8.631
14466SOL    HW145295   4.889   6.698   8.562
14466SOL    HW245296   4.959   6.830   8.584
14467SOL     OW45297   0.295   5.058   5.787
14467SOL    HW145298   0.381   5.054   5.827
14467SOL    HW245299   0.310   5.094   5.700
14468SOL     OW45300   9.059   0.593   4.987
14468SOL    HW145301   9.054   0.659   4.917
14468SOL    HW245302   8.985   0.535   4.969
14469SOL     OW45303  13.201   8.710  12.314
14469SOL    HW145304  13.212   8.794  12.270
14469SOL    HW245305  13.260   8.651  12.267
14470SOL     OW45306   5.223   0.646   7.799
14470SOL    HW145307   5.187   0.719   7.848
14470SOL    HW245308   5.312   0.636   7.833
14471SOL     OW45309   8.431   2.984  10.790
14471SOL    HW145310   8.413   2.926  10.864
14471SOL    HW245311   8.368   2.958  10.723
14472SOL     OW45312   7.611   2.474   9.281
14472SOL    HW145313   7.668   2.437   9.215
14472SOL    HW245314   7.532   2.499   9.233
14473SOL     OW45315  13.119   6.045  12.807
14473SOL    HW145316  13.094   6.060  12.716
14473SOL    HW245317  13.069   5.967  12.833
14474SOL     OW45318   2.062  12.314   3.141
14474SOL    HW145319   2.017  12.238   3.104
14474SOL    HW245320   2.003  12.346   3.209
14475SOL     OW45321   0.644   8.654   3.232
14475SOL    HW145322   0.680   8.589   3.172
14475SOL    HW245323   0.558   8.675   3.196
14476SOL     OW45324  13.266   1.776  11.009
14476SOL    HW145325  13.226   1.765  10.923
14476SOL    HW245326  13.343   1.720  11.007
14477SOL     OW45327   0.560   8.246   1.538
14477SOL    HW145328   0.495   8.314   1.522
14477SOL    HW245329   0.514   8.164   1.518
14478SOL     OW45330  13.466   7.604   8.616
14478SOL    HW145331  13.441   7.602   8.524
14478SOL    HW245332  13.532   7.673   8.622
14479SOL     OW45333  14.549   9.149   8.177
14479SOL    HW145334  14.638   9.156   8.212
14479SOL    HW245335  14.557   9.169   8.084
14480SOL     OW45336  11.168   3.778   2.178
14480SOL    HW145337  11.195   3.713   2.113
14480SOL    HW245338  11.153   3.727   2.258
14481SOL     OW45339  12.233   1.004  12.712
14481SOL    HW145340  12.180   1.017  12.791
14481SOL    HW245341  12.169   1.005  12.641
14482SOL     OW45342   7.117   3.975   4.471
14482SOL    HW145343   7.140   4.059   4.511
14482SOL    HW245344   7.128   3.990   4.377
14483SOL     OW45345  14.641   8.814   5.231
14483SOL    HW145346  14.589   8.776   5.302
14483SOL    HW245347  14.701   8.874   5.275
14484SOL     OW45348   9.408   8.854   4.677
14484SOL    HW145349   9.421   8.769   4.634
14484SOL    HW245350   9.488   8.867   4.728
14485SOL     OW45351   3.006   0.416   6.049
14485SOL    HW145352   3.003   0.471   6.128
14485SOL    HW245353   3.042   0.474   5.981
14486SOL     OW45354  12.918  12.856   6.279
14486SOL    HW145355  12.874  12.807   6.349
14486SOL    HW245356  12.860  12.847   6.203
14487SOL     OW45357  13.164   6.296   9.232
14487SOL    HW145358  13.174   6.351   9.309
14487SOL    HW245359  13.081   6.324   9.193
14488SOL     OW45360   0.122   2.791   3.768
14488SOL    HW145361   0.082   2.713   3.807
14488SOL    HW245362   0.179   2.757   3.699
14489SOL     OW45363   4.333   3.894   3.593
14489SOL    HW145364   4.363   3.899   3.684
14489SOL    HW245365   4.279   3.816   3.590
14490SOL     OW45366  10.315  13.244   1.869
14490SOL    HW145367  10.251  13.288   1.813
14490SOL    HW245368  10.366  13.316   1.907
14491SOL     OW45369   0.250   0.232  10.337
14491SOL    HW145370   0.180   0.287  10.302
14491SOL    HW245371   0.281   0.279  10.414
14492SOL     OW45372   9.528  14.352   7.716
14492SOL    HW145373   9.610  14.336   7.669
14492SOL    HW245374   9.554  14.351   7.808
14493SOL     OW45375  14.211  12.408   6.392
14493SOL    HW145376  14.189  12.477   6.330
14493SOL    HW245377  14.169  12.330   6.358
14494SOL     OW45378   2.674   7.609   2.845
14494SOL    HW145379   2.614   7.619   2.920
14494SOL    HW245380   2.753   7.571   2.882
14495SOL     OW45381   4.353  10.561  13.532
14495SOL    HW145382   4.357  10.655  13.514
14495SOL    HW245383   4.437  10.541  13.573
14496SOL     OW45384   7.562  14.345   9.177
14496SOL    HW145385   7.534  14.277   9.115
14496SOL    HW245386   7.546  14.306   9.263
14497SOL     OW45387  14.485   0.720   6.854
14497SOL    HW145388  14.518   0.686   6.938
14497SOL    HW245389  14.521   0.808   6.847
14498SOL     OW45390   2.430   8.520  12.998
14498SOL    HW145391   2.398   8.602  13.034
14498SOL    HW245392   2.440   8.463  13.075
14499SOL     OW45393  12.183  12.034  11.531
14499SOL    HW145394  12.223  12.003  11.613
14499SOL    HW245395  12.159  11.955  11.484
14500SOL     OW45396   2.963   7.090   0.427
14500SOL    HW145397   3.033   7.112   0.365
14500SOL    HW245398   2.890   7.145   0.402
14501SOL     OW45399  12.936   5.384   6.623
14501SOL    HW145400  12.867   5.355   6.563
14501SOL    HW245401  12.950   5.309   6.682
14502SOL     OW45402  11.855  11.276   7.969
14502SOL    HW145403  11.889  11.197   8.013
14502SOL    HW245404  11.777  11.246   7.923
14503SOL     OW45405   5.915  11.266   1.099
14503SOL    HW145406   5.862  11.236   1.173
14503SOL    HW245407   5.913  11.362   1.105
14504SOL     OW45408   9.063   9.033   7.132
14504SOL    HW145409   8.998   9.019   7.064
14504SOL    HW245410   9.147   9.029   7.086
14505SOL     OW45411   9.305   6.434   3.849
14505SOL    HW145412   9.288   6.515   3.898
14505SOL    HW245413   9.239   6.372   3.880
14506SOL     OW45414   4.326  11.718  13.434
14506SOL    HW145415   4.421  11.716  13.450
14506SOL    HW245416   4.301  11.626  13.432
14507SOL     OW45417   7.138  13.741  10.767
14507SOL    HW145418   7.137  13.645  10.773
14507SOL    HW245419   7.183  13.759  10.684
14508SOL     OW45420   9.907   8.658   4.368
14508SOL    HW145421   9.846   8.729   4.390
14508SOL    HW245422   9.979   8.669   4.431
14509SOL     OW45423   7.007  12.282   2.989
14509SOL    HW145424   7.092  12.258   2.952
14509SOL    HW245425   6.992  12.219   3.059
14510SOL     OW45426   8.920   2.129   4.713
14510SOL    HW145427   8.922   2.076   4.793
14510SOL    HW245428   8.828   2.140   4.693
14511SOL     OW45429   6.192   3.870   4.220
14511SOL    HW145430   6.259   3.851   4.285
14511SOL    HW245431   6.240   3.875   4.137
14512SOL     OW45432  10.268  11.906   1.183
14512SOL    HW145433  10.357  11.928   1.210
14512SOL    HW245434  10.247  11.825   1.232
14513SOL     OW45435   5.292   8.939  11.732
14513SOL    HW145436   5.357   8.961  11.799
14513SOL    HW245437   5.227   9.010  11.738
14514SOL     OW45438   6.098   7.134   9.490
14514SOL    HW145439   6.119   7.104   9.401
14514SOL    HW245440   6.085   7.228   9.481
14515SOL     OW45441  12.170   4.667   3.485
14515SOL    HW145442  12.242   4.680   3.424
14515SOL    HW245443  12.163   4.572   3.494
14516SOL     OW45444  14.386  13.392   7.742
14516SOL    HW145445  14.464  13.440   7.717
14516SOL    HW245446  14.415  13.301   7.750
14517SOL     OW45447  10.542   7.211  13.763
14517SOL    HW145448  10.492   7.153  13.820
14517SOL    HW245449  10.503   7.199  13.677
14518SOL     OW45450  10.314  12.270  13.948
14518SOL    HW145451  10.316  12.293  13.856
14518SOL    HW245452  10.357  12.343  13.993
14519SOL     OW45453   3.830  10.897   5.023
14519SOL    HW145454   3.842  10.928   5.112
14519SOL    HW245455   3.861  10.806   5.025
14520SOL     OW45456  13.130  11.650   7.462
14520SOL    HW145457  13.073  11.675   7.390
14520SOL    HW245458  13.210  11.618   7.421
14521SOL     OW45459   6.789  11.231  11.252
14521SOL    HW145460   6.844  11.274  11.187
14521SOL    HW245461   6.704  11.275  11.245
14522SOL     OW45462  12.241   5.719  14.653
14522SOL    HW145463  12.259   5.804  14.694
14522SOL    HW245464  12.177   5.677  14.710
14523SOL     OW45465   0.460   5.712   9.943
14523SOL    HW145466   0.430   5.735   9.855
14523SOL    HW245467   0.471   5.796   9.987
14524SOL     OW45468   8.955   0.623   3.117
14524SOL    HW145469   9.005   0.609   3.037
14524SOL    HW245470   8.881   0.563   3.109
14525SOL     OW45471  12.162   9.460   8.029
14525SOL    HW145472  12.254   9.460   8.054
14525SOL    HW245473  12.117   9.497   8.104
14526SOL     OW45474  10.917  14.864   9.740
14526SOL    HW145475  10.925   0.024   9.648
14526SOL    HW245476  10.855   0.058   9.778
14527SOL     OW45477   2.206   4.257   6.950
14527SOL    HW145478   2.189   4.180   6.896
14527SOL    HW245479   2.292   4.240   6.988
14528SOL     OW45480  14.224   2.918   5.457
14528SOL    HW145481  14.162   2.869   5.512
14528SOL    HW245482  14.307   2.871   5.466
14529SOL     OW45483   9.430   9.792   5.790
14529SOL    HW145484   9.375   9.823   5.862
14529SOL    HW245485   9.378   9.724   5.748
14530SOL     OW45486   0.113   9.161   4.393
14530SOL    HW145487   0.201   9.188   4.368
14530SOL    HW245488   0.113   9.165   4.488
14531SOL     OW45489   6.959  14.531  11.934
14531SOL    HW145490   7.036  14.477  11.917
14531SOL    HW245491   6.894  14.469  11.968
14532SOL     OW45492   6.067   2.473   6.270
14532SOL    HW145493   5.981   2.433   6.262
14532SOL    HW245494   6.060   2.555   6.221
14533SOL     OW45495  10.904   7.956   3.270
14533SOL    HW145496  10.892   7.938   3.177
14533SOL    HW245497  10.900   8.052   3.276
14534SOL     OW45498   4.159  10.764   1.933
14534SOL    HW145499   4.252  10.782   1.945
14534SOL    HW245500   4.118  10.797   2.013
14535SOL     OW45501   5.212  11.487  13.926
14535SOL    HW145502   5.194  11.458  14.016
14535SOL    HW245503   5.303  11.518  13.928
14536SOL     OW45504   6.269   7.464   7.729
14536SOL    HW145505   6.253   7.522   7.654
14536SOL    HW245506   6.357   7.431   7.715
14537SOL     OW45507   8.678  10.467   3.313
14537SOL    HW145508   8.684  10.414   3.392
14537SOL    HW245509   8.767  10.470   3.278
14538SOL     OW45510  13.278   0.700  13.877
14538SOL    HW145511  13.185   0.720  13.866
14538SOL    HW245512  13.322   0.784  13.866
14539SOL     OW45513  11.883   8.300  14.245
14539SOL    HW145514  11.897   8.282  14.152
14539SOL    HW245515  11.970   8.292  14.284
14540SOL     OW45516   0.806   9.530  13.518
14540SOL    HW145517   0.817   9.449  13.468
14540SOL    HW245518   0.820   9.600  13.454
14541SOL     OW45519   9.479   2.735   2.387
14541SOL    HW145520   9.459   2.641   2.383
14541SOL    HW245521   9.417   2.775   2.327
14542SOL     OW45522   7.674   0.185   5.653
14542SOL    HW145523   7.641   0.258   5.705
14542SOL    HW245524   7.721   0.130   5.716
14543SOL     OW45525   4.179   6.673   2.960
14543SOL    HW145526   4.192   6.706   3.048
14543SOL    HW245527   4.258   6.700   2.912
14544SOL     OW45528   3.578   9.155   0.984
14544SOL    HW145529   3.582   9.238   1.032
14544SOL    HW245530   3.521   9.099   1.036
14545SOL     OW45531   4.434  11.463   5.895
14545SOL    HW145532   4.349  11.442   5.934
14545SOL    HW245533   4.413  11.522   5.822
14546SOL     OW45534  12.784   1.205   6.891
14546SOL    HW145535  12.864   1.256   6.899
14546SOL    HW245536  12.800   1.127   6.945
14547SOL     OW45537   4.357   6.186   1.684
14547SOL    HW145538   4.429   6.172   1.745
14547SOL    HW245539   4.400   6.190   1.598
14548SOL     OW45540   7.732   3.467   6.455
14548SOL    HW145541   7.650   3.502   6.490
14548SOL    HW245542   7.706   3.419   6.376
14549SOL     OW45543  11.173   3.180  13.213
14549SOL    HW145544  11.147   3.271  13.226
14549SOL    HW245545  11.147   3.159  13.123
14550SOL     OW45546   9.849  13.561  13.378
14550SOL    HW145547   9.883  13.482  13.335
14550SOL    HW245548   9.926  13.616  13.390
14551SOL     OW45549   8.943   3.711  10.887
14551SOL    HW145550   8.857   3.729  10.848
14551SOL    HW245551   8.950   3.773  10.959
14552SOL     OW45552   0.441  10.420   6.334
14552SOL    HW145553   0.466  10.348   6.276
14552SOL    HW245554   0.441  10.498   6.277
14553SOL     OW45555  10.798   9.539  13.098
14553SOL    HW145556  10.862   9.597  13.056
14553SOL    HW245557  10.836   9.451  13.087
14554SOL     OW45558   7.089   1.195   1.326
14554SOL    HW145559   7.023   1.194   1.395
14554SOL    HW245560   7.143   1.272   1.347
14555SOL     OW45561  11.086  14.339   2.868
14555SOL    HW145562  11.103  14.355   2.961
14555SOL    HW245563  11.147  14.397   2.822
14556SOL     OW45564   2.617   4.156  12.187
14556SOL    HW145565   2.628   4.235  12.132
14556SOL    HW245566   2.705   4.119  12.191
14557SOL     OW45567   9.231   3.701   7.639
14557SOL    HW145568   9.184   3.673   7.718
14557SOL    HW245569   9.235   3.796   7.645
14558SOL     OW45570  10.390   1.232   7.892
14558SOL    HW145571  10.443   1.164   7.933
14558SOL    HW245572  10.318   1.185   7.850
14559SOL     OW45573   2.059   8.937   1.760
14559SOL    HW145574   2.131   8.892   1.715
14559SOL    HW245575   2.007   8.866   1.797
14560SOL     OW45576   1.559   6.242   2.337
14560SOL    HW145577   1.587   6.323   2.295
14560SOL    HW245578   1.510   6.270   2.414
14561SOL     OW45579   5.284   5.323   8.827
14561SOL    HW145580   5.313   5.408   8.860
14561SOL    HW245581   5.214   5.296   8.887
14562SOL     OW45582   6.697   4.298   2.638
14562SOL    HW145583   6.634   4.369   2.656
14562SOL    HW245584   6.749   4.292   2.718
14563SOL     OW45585   3.727   6.779   5.899
14563SOL    HW145586   3.785   6.854   5.887
14563SOL    HW245587   3.782   6.702   5.884
14564SOL     OW45588  12.429  10.500   6.607
14564SOL    HW145589  12.509  10.477   6.655
14564SOL    HW245590  12.443  10.467   6.518
14565SOL     OW45591  13.466   7.480   7.942
14565SOL    HW145592  13.476   7.434   7.859
14565SOL    HW245593  13.384   7.446   7.979
14566SOL     OW45594  14.131   5.791  12.453
14566SOL    HW145595  14.216   5.802  12.408
14566SOL    HW245596  14.066   5.809  12.385
14567SOL     OW45597  11.490  11.485  13.846
14567SOL    HW145598  11.534  11.474  13.931
14567SOL    HW245599  11.426  11.414  13.844
14568SOL     OW45600  12.934  12.823  14.416
14568SOL    HW145601  12.931  12.837  14.321
14568SOL    HW245602  12.934  12.728  14.426
14569SOL     OW45603   9.756  10.758   7.688
14569SOL    HW145604   9.817  10.825   7.718
14569SOL    HW245605   9.704  10.801   7.620
14570SOL     OW45606   7.144   6.576   5.742
14570SOL    HW145607   7.211   6.621   5.794
14570SOL    HW245608   7.103   6.515   5.802
14571SOL     OW45609   1.912   4.196   2.308
14571SOL    HW145610   1.830   4.159   2.278
14571SOL    HW245611   1.969   4.121   2.324
14572SOL     OW45612   3.411   9.323   9.427
14572SOL    HW145613   3.383   9.353   9.341
14572SOL    HW245614   3.437   9.402   9.473
14573SOL     OW45615   5.256  13.683  11.747
14573SOL    HW145616   5.250  13.656  11.839
14573SOL    HW245617   5.215  13.769  11.744
14574SOL     OW45618   9.968   5.535  13.875
14574SOL    HW145619   9.935   5.447  13.889
14574SOL    HW245620  10.023   5.552  13.952
14575SOL     OW45621   7.826   6.558   8.003
14575SOL    HW145622   7.842   6.504   8.080
14575SOL    HW245623   7.751   6.517   7.960
14576SOL     OW45624   6.237   5.058   3.003
14576SOL    HW145625   6.234   5.070   2.908
14576SOL    HW245626   6.286   5.133   3.035
14577SOL     OW45627   0.128   4.988  10.799
14577SOL    HW145628   0.063   4.974  10.731
14577SOL    HW245629   0.147   4.901  10.834
14578SOL     OW45630   0.857   8.414   8.307
14578SOL    HW145631   0.776   8.438   8.352
14578SOL    HW245632   0.830   8.349   8.242
14579SOL     OW45633   6.798   8.771   1.551
14579SOL    HW145634   6.798   8.839   1.619
14579SOL    HW245635   6.710   8.734   1.555
14580SOL     OW45636  10.189   3.149   5.963
14580SOL    HW145637  10.098   3.176   5.962
14580SOL    HW245638  10.203   3.108   5.878
14581SOL     OW45639   4.009   5.349   2.796
14581SOL    HW145640   4.037   5.385   2.880
14581SOL    HW245641   4.015   5.254   2.807
14582SOL     OW45642   9.472   8.717   8.600
14582SOL    HW145643   9.461   8.729   8.506
14582SOL    HW245644   9.384   8.699   8.633
14583SOL     OW45645  11.645   1.682   4.955
14583SOL    HW145646  11.733   1.718   4.965
14583SOL    HW245647  11.639   1.613   5.022
14584SOL     OW45648  11.294   5.920  13.140
14584SOL    HW145649  11.338   5.924  13.225
14584SOL    HW245650  11.203   5.941  13.159
14585SOL     OW45651   0.091  13.902   9.074
14585SOL    HW145652   0.050  13.827   9.031
14585SOL    HW245653   0.020  13.966   9.083
14586SOL     OW45654   9.789  14.589  11.608
14586SOL    HW145655   9.718  14.646  11.579
14586SOL    HW245656   9.844  14.578  11.530
14587SOL     OW45657   9.958  11.109   4.673
14587SOL    HW145658  10.018  11.119   4.746
14587SOL    HW245659   9.925  11.019   4.681
14588SOL     OW45660  10.982   2.455   3.613
14588SOL    HW145661  11.073   2.457   3.583
14588SOL    HW245662  10.987   2.479   3.706
14589SOL     OW45663  11.254   1.492   8.537
14589SOL    HW145664  11.283   1.514   8.448
14589SOL    HW245665  11.247   1.396   8.536
14590SOL     OW45666   1.020  12.256   5.538
14590SOL    HW145667   1.073  12.292   5.466
14590SOL    HW245668   1.059  12.170   5.555
14591SOL     OW45669  13.131   1.037   8.689
14591SOL    HW145670  13.167   0.963   8.640
14591SOL    HW245671  13.037   1.028   8.680
14592SOL     OW45672   5.197   3.413  12.484
14592SOL    HW145673   5.123   3.425  12.424
14592SOL    HW245674   5.268   3.382  12.428
14593SOL     OW45675  14.539   0.850   3.184
14593SOL    HW145676  14.573   0.911   3.249
14593SOL    HW245677  14.444   0.867   3.183
14594SOL     OW45678   5.306  12.644   9.132
14594SOL    HW145679   5.260  12.656   9.049
14594SOL    HW245680   5.309  12.731   9.171
14595SOL     OW45681   2.429   5.046  14.316
14595SOL    HW145682   2.394   4.972  14.265
14595SOL    HW245683   2.518   5.020  14.337
14596SOL     OW45684  11.315   2.971   5.464
14596SOL    HW145685  11.327   2.987   5.370
14596SOL    HW245686  11.263   3.045   5.495
14597SOL     OW45687   5.937   1.856   3.331
14597SOL    HW145688   5.938   1.767   3.295
14597SOL    HW245689   5.976   1.847   3.418
14598SOL     OW45690  11.298   8.519  10.013
14598SOL    HW145691  11.374   8.576  10.020
14598SOL    HW245692  11.224   8.578   9.997
14599SOL     OW45693  13.481   2.942   1.356
14599SOL    HW145694  13.407   2.931   1.416
14599SOL    HW245695  13.452   2.902   1.274
14600SOL     OW45696   1.991   4.321  12.654
14600SOL    HW145697   2.024   4.411  12.652
14600SOL    HW245698   2.035   4.282  12.729
14601SOL     OW45699  14.350  10.170   4.465
14601SOL    HW145700  14.263  10.131   4.455
14601SOL    HW245701  14.339  10.234   4.536
14602SOL     OW45702   4.157   7.018   2.827
14602SOL    HW145703   4.214   6.941   2.839
14602SOL    HW245704   4.072   6.989   2.859
14603SOL     OW45705  13.921   2.396   4.653
14603SOL    HW145706  13.969   2.403   4.735
14603SOL    HW245707  13.900   2.303   4.646
14604SOL     OW45708  11.297   8.087   9.801
14604SOL    HW145709  11.213   8.079   9.755
14604SOL    HW245710  11.281   8.154   9.868
14605SOL     OW45711  12.864   2.660   5.217
14605SOL    HW145712  12.796   2.701   5.164
14605SOL    HW245713  12.942   2.660   5.160
14606SOL     OW45714   1.775   9.763   5.301
14606SOL    HW145715   1.802   9.692   5.242
14606SOL    HW245716   1.850   9.776   5.359
14607SOL     OW45717   4.288   3.033   4.884
14607SOL    HW145718   4.288   3.059   4.976
14607SOL    HW245719   4.195   3.030   4.861
14608SOL     OW45720   6.450   5.040   9.805
14608SOL    HW145721   6.355   5.033   9.805
14608SOL    HW245722   6.472   5.065   9.715
14609SOL     OW45723   2.873  11.490   8.283
14609SOL    HW145724   2.940  11.422   8.274
14609SOL    HW245725   2.792  11.448   8.254
14610SOL     OW45726  11.876   9.307   8.431
14610SOL    HW145727  11.865   9.220   8.469
14610SOL    HW245728  11.818   9.308   8.354
14611SOL     OW45729  10.473  13.329   0.219
14611SOL    HW145730  10.506  13.342   0.130
14611SOL    HW245731  10.407  13.398   0.231
14612SOL     OW45732   6.873  11.301  13.679
14612SOL    HW145733   6.950  11.356  13.690
14612SOL    HW245734   6.820  11.347  13.614
14613SOL     OW45735   6.772   2.387   3.622
14613SOL    HW145736   6.856   2.418   3.655
14613SOL    HW245737   6.781   2.386   3.527
14614SOL     OW45738   6.993   8.834   7.099
14614SOL    HW145739   7.081   8.870   7.099
14614SOL    HW245740   6.966   8.835   7.007
14615SOL     OW45741  14.866  10.229   9.324
14615SOL    HW145742  14.841  10.260   9.412
14615SOL    HW245743   0.003  10.134   9.333
14616SOL     OW45744  13.030   0.098   2.464
14616SOL    HW145745  12.985   0.170   2.508
14616SOL    HW245746  13.007   0.021   2.516
14617SOL     OW45747   3.316   7.669   1.153
14617SOL    HW145748   3.386   7.604   1.154
14617SOL    HW245749   3.331   7.722   1.232
14618SOL     OW45750   2.779   1.826   8.174
14618SOL    HW145751   2.715   1.792   8.111
14618SOL    HW245752   2.725   1.865   8.243
14619SOL     OW45753  14.520  13.386   3.998
14619SOL    HW145754  14.580  13.314   4.018
14619SOL    HW245755  14.450  13.378   4.063
14620SOL     OW45756   4.139  10.957  14.111
14620SOL    HW145757   4.095  10.926  14.031
14620SOL    HW245758   4.083  10.926  14.182
14621SOL     OW45759   7.433  11.783  10.492
14621SOL    HW145760   7.350  11.766  10.447
14621SOL    HW245761   7.460  11.869  10.460
14622SOL     OW45762   8.117  13.585  11.519
14622SOL    HW145763   8.113  13.516  11.586
14622SOL    HW245764   8.032  13.582  11.476
14623SOL     OW45765   7.045  14.721  10.914
14623SOL    HW145766   7.088  14.636  10.916
14623SOL    HW245767   7.112  14.780  10.878
14624SOL     OW45768   3.820   7.660  12.096
14624SOL    HW145769   3.853   7.744  12.126
14624SOL    HW245770   3.748   7.640  12.155
14625SOL     OW45771  13.881   8.892   0.646
14625SOL    HW145772  13.963   8.885   0.596
14625SOL    HW245773  13.900   8.848   0.729
14626SOL     OW45774   0.214   6.295   8.039
14626SOL    HW145775   0.172   6.315   8.123
14626SOL    HW245776   0.229   6.381   7.999
14627SOL     OW45777   4.985   2.487   4.687
14627SOL    HW145778   4.972   2.522   4.774
14627SOL    HW245779   5.058   2.537   4.651
14628SOL     OW45780  10.227  13.660   1.836
14628SOL    HW145781  10.318  13.688   1.838
14628SOL    HW245782  10.207  13.634   1.926
14629SOL     OW45783   7.047  13.764  13.179
14629SOL    HW145784   6.966  13.722  13.150
14629SOL    HW245785   7.109  13.748  13.108
14630SOL     OW45786  11.685  10.617   2.662
14630SOL    HW145787  11.647  10.573   2.586
14630SOL    HW245788  11.780  10.607   2.651
14631SOL     OW45789   8.049  10.237   1.371
14631SOL    HW145790   8.100  10.304   1.326
14631SOL    HW245791   8.047  10.265   1.462
14632SOL     OW45792   7.811   1.014   8.519
14632SOL    HW145793   7.882   0.951   8.532
14632SOL    HW245794   7.741   0.963   8.478
14633SOL     OW45795   6.584  14.175   5.533
14633SOL    HW145796   6.651  14.129   5.482
14633SOL    HW245797   6.631  14.247   5.574
14634SOL     OW45798   0.875   1.884  11.691
14634SOL    HW145799   0.967   1.898  11.668
14634SOL    HW245800   0.856   1.795  11.663
14635SOL     OW45801   7.135   3.696   5.712
14635SOL    HW145802   7.049   3.668   5.743
14635SOL    HW245803   7.148   3.649   5.630
14636SOL     OW45804   5.015  12.572   6.229
14636SOL    HW145805   5.103  12.575   6.191
14636SOL    HW245806   4.960  12.619   6.166
14637SOL     OW45807  11.484  12.230  11.497
14637SOL    HW145808  11.561  12.192  11.540
14637SOL    HW245809  11.426  12.253  11.570
14638SOL     OW45810   7.480   5.268   5.180
14638SOL    HW145811   7.532   5.279   5.260
14638SOL    HW245812   7.492   5.350   5.133
14639SOL     OW45813  13.091   9.673   2.092
14639SOL    HW145814  13.061   9.763   2.079
14639SOL    HW245815  13.174   9.681   2.138
14640SOL     OW45816   7.437   5.553   1.631
14640SOL    HW145817   7.456   5.461   1.650
14640SOL    HW245818   7.352   5.552   1.589
14641SOL     OW45819   9.569   2.696   1.980
14641SOL    HW145820   9.509   2.735   1.916
14641SOL    HW245821   9.519   2.693   2.061
14642SOL     OW45822  11.861   2.698   6.083
14642SOL    HW145823  11.939   2.690   6.138
14642SOL    HW245824  11.894   2.690   5.994
14643SOL     OW45825   1.432   1.189   1.886
14643SOL    HW145826   1.390   1.109   1.856
14643SOL    HW245827   1.463   1.232   1.806
14644SOL     OW45828   3.849   7.001  10.363
14644SOL    HW145829   3.932   6.998  10.410
14644SOL    HW245830   3.826   6.910  10.349
14645SOL     OW45831  14.853   7.607   0.398
14645SOL    HW145832   0.069   7.605   0.445
14645SOL    HW245833  14.792   7.648   0.459
14646SOL     OW45834   6.614   1.366   0.628
14646SOL    HW145835   6.692   1.325   0.667
14646SOL    HW245836   6.617   1.457   0.659
14647SOL     OW45837  13.399   3.077  11.806
14647SOL    HW145838  13.353   3.132  11.742
14647SOL    HW245839  13.349   2.995  11.807
14648SOL     OW45840   1.632  10.682   8.878
14648SOL    HW145841   1.641  10.714   8.968
14648SOL    HW245842   1.671  10.594   8.880
14649SOL     OW45843   9.067   8.655  10.399
14649SOL    HW145844   9.045   8.718  10.330
14649SOL    HW245845   8.999   8.588  10.393
14650SOL     OW45846   3.593   6.342   8.514
14650SOL    HW145847   3.644   6.347   8.433
14650SOL    HW245848   3.598   6.251   8.540
14651SOL     OW45849   5.759   1.527   3.492
14651SOL    HW145850   5.714   1.447   3.516
14651SOL    HW245851   5.692   1.581   3.449
14652SOL     OW45852   4.497  12.340   1.319
14652SOL    HW145853   4.570  12.289   1.286
14652SOL    HW245854   4.448  12.366   1.240
14653SOL     OW45855   1.537   1.448   4.348
14653SOL    HW145856   1.630   1.474   4.349
14653SOL    HW245857   1.519   1.430   4.256
14654SOL     OW45858   3.230   7.056   6.497
14654SOL    HW145859   3.153   7.106   6.526
14654SOL    HW245860   3.194   6.975   6.462
14655SOL     OW45861   5.964   3.290   2.096
14655SOL    HW145862   5.975   3.208   2.144
14655SOL    HW245863   6.004   3.356   2.152
14656SOL     OW45864   9.463   1.674  12.794
14656SOL    HW145865   9.427   1.610  12.733
14656SOL    HW245866   9.396   1.681  12.862
14657SOL     OW45867   2.329  14.249  11.379
14657SOL    HW145868   2.396  14.295  11.429
14657SOL    HW245869   2.322  14.163  11.422
14658SOL     OW45870   2.719  10.057   9.117
14658SOL    HW145871   2.675   9.973   9.133
14658SOL    HW245872   2.694  10.112   9.191
14659SOL     OW45873   8.828   4.342   6.182
14659SOL    HW145874   8.874   4.276   6.234
14659SOL    HW245875   8.740   4.306   6.171
14660SOL     OW45876   8.084   0.140   9.178
14660SOL    HW145877   8.127   0.215   9.138
14660SOL    HW245878   8.090   0.071   9.113
14661SOL     OW45879   0.824  13.567   4.070
14661SOL    HW145880   0.737  13.571   4.029
14661SOL    HW245881   0.880  13.617   4.010
14662SOL     OW45882   9.754   7.018   8.447
14662SOL    HW145883   9.836   7.067   8.443
14662SOL    HW245884   9.738   6.992   8.356
14663SOL     OW45885  14.375   3.161   1.697
14663SOL    HW145886  14.302   3.121   1.650
14663SOL    HW245887  14.389   3.104   1.773
14664SOL     OW45888   8.374   5.278   2.347
14664SOL    HW145889   8.426   5.258   2.425
14664SOL    HW245890   8.343   5.367   2.361
14665SOL     OW45891   3.292   0.217  13.476
14665SOL    HW145892   3.243   0.166  13.412
14665SOL    HW245893   3.248   0.302  13.480
14666SOL     OW45894   1.343   3.336  12.584
14666SOL    HW145895   1.395   3.400  12.535
14666SOL    HW245896   1.407   3.281  12.627
14667SOL     OW45897  13.240   4.401   8.066
14667SOL    HW145898  13.283   4.371   8.146
14667SOL    HW245899  13.303   4.383   7.996
14668SOL     OW45900   4.427  14.836   8.820
14668SOL    HW145901   4.468   0.001   8.741
14668SOL    HW245902   4.363   0.035   8.845
14669SOL     OW45903  12.234   1.612   9.357
14669SOL    HW145904  12.188   1.692   9.333
14669SOL    HW245905  12.172   1.542   9.340
14670SOL     OW45906  11.746  12.833   6.690
14670SOL    HW145907  11.764  12.887   6.767
14670SOL    HW245908  11.811  12.862   6.625
14671SOL     OW45909  14.455  10.827  12.954
14671SOL    HW145910  14.494  10.795  12.873
14671SOL    HW245911  14.379  10.878  12.926
14672SOL     OW45912  11.295   0.314  11.250
14672SOL    HW145913  11.218   0.309  11.307
14672SOL    HW245914  11.354   0.374  11.296
14673SOL     OW45915  11.537   0.968   1.920
14673SOL    HW145916  11.627   0.980   1.951
14673SOL    HW245917  11.494   0.919   1.991
14674SOL     OW45918   2.611   7.163   6.630
14674SOL    HW145919   2.585   7.127   6.714
14674SOL    HW245920   2.586   7.255   6.633
14675SOL     OW45921   3.578   2.256  11.279
14675SOL    HW145922   3.673   2.262  11.276
14675SOL    HW245923   3.560   2.165  11.302
14676SOL     OW45924   8.630   3.442  14.804
14676SOL    HW145925   8.680   3.405  14.732
14676SOL    HW245926   8.653   3.387   0.012
14677SOL     OW45927   5.154   7.347   2.165
14677SOL    HW145928   5.226   7.297   2.203
14677SOL    HW245929   5.080   7.287   2.167
14678SOL     OW45930  10.110   3.655   3.169
14678SOL    HW145931  10.031   3.650   3.116
14678SOL    HW245932  10.181   3.668   3.105
14679SOL     OW45933   9.135  11.039  11.041
14679SOL    HW145934   9.057  11.071  10.994
14679SOL    HW245935   9.128  10.943  11.035
14680SOL     OW45936   8.532   7.821   8.411
14680SOL    HW145937   8.599   7.833   8.343
14680SOL    HW245938   8.492   7.736   8.390
14681SOL     OW45939  13.493  12.843  11.671
14681SOL    HW145940  13.522  12.798  11.751
14681SOL    HW245941  13.501  12.936  11.692
14682SOL     OW45942   4.527   3.629  10.185
14682SOL    HW145943   4.519   3.709  10.134
14682SOL    HW245944   4.552   3.658  10.273
14683SOL     OW45945  12.855   4.416   5.372
14683SOL    HW145946  12.789   4.357   5.334
14683SOL    HW245947  12.939   4.375   5.350
14684SOL     OW45948   4.247  14.638   2.913
14684SOL    HW145949   4.278  14.667   2.999
14684SOL    HW245950   4.205  14.554   2.930
14685SOL     OW45951  13.306  12.533   2.242
14685SOL    HW145952  13.352  12.600   2.293
14685SOL    HW245953  13.309  12.566   2.152
14686SOL     OW45954   6.352   9.882  13.957
14686SOL    HW145955   6.299   9.817  13.912
14686SOL    HW245956   6.356   9.956  13.897
14687SOL     OW45957  10.599   4.821  14.323
14687SOL    HW145958  10.540   4.878  14.373
14687SOL    HW245959  10.541   4.766  14.271
14688SOL     OW45960  11.930   9.884   1.897
14688SOL    HW145961  11.891   9.966   1.868
14688SOL    HW245962  12.002   9.868   1.835
14689SOL     OW45963   6.835  12.469   8.418
14689SOL    HW145964   6.785  12.393   8.387
14689SOL    HW245965   6.914  12.431   8.456
14690SOL     OW45966  12.247   9.339   9.897
14690SOL    HW145967  12.202   9.343   9.981
14690SOL    HW245968  12.220   9.255   9.859
14691SOL     OW45969   6.194   9.032  13.055
14691SOL    HW145970   6.219   8.961  13.114
14691SOL    HW245971   6.124   9.078  13.102
14692SOL     OW45972  11.364   0.415  12.321
14692SOL    HW145973  11.421   0.454  12.387
14692SOL    HW245974  11.413   0.340  12.288
14693SOL     OW45975   4.661  11.732   5.190
14693SOL    HW145976   4.731  11.780   5.235
14693SOL    HW245977   4.658  11.770   5.102
14694SOL     OW45978   7.701   1.976   1.498
14694SOL    HW145979   7.740   1.913   1.559
14694SOL    HW245980   7.716   1.938   1.412
14695SOL     OW45981   3.119   6.193  10.222
14695SOL    HW145982   3.069   6.118  10.189
14695SOL    HW245983   3.052   6.255  10.251
14696SOL     OW45984   0.991   0.199   8.640
14696SOL    HW145985   0.953   0.260   8.577
14696SOL    HW245986   1.055   0.149   8.589
14697SOL     OW45987  14.476   1.198   3.735
14697SOL    HW145988  14.397   1.218   3.785
14697SOL    HW245989  14.540   1.263   3.764
14698SOL     OW45990   2.714  14.510   1.209
14698SOL    HW145991   2.733  14.596   1.247
14698SOL    HW245992   2.787  14.455   1.236
14699SOL     OW45993   0.717  11.519   6.161
14699SOL    HW145994   0.778  11.545   6.230
14699SOL    HW245995   0.773  11.488   6.090
14700SOL     OW45996  10.711   8.498  11.597
14700SOL    HW145997  10.661   8.482  11.677
14700SOL    HW245998  10.802   8.503  11.626
14701SOL     OW45999   4.003   3.514   3.346
14701SOL    HW146000   3.979   3.487   3.258
14701SOL    HW246001   4.097   3.531   3.341
14702SOL     OW46002   1.933   9.494  13.316
14702SOL    HW146003   1.869   9.456  13.376
14702SOL    HW246004   1.894   9.577  13.289
14703SOL     OW46005  12.453   2.618   3.079
14703SOL    HW146006  12.368   2.607   3.036
14703SOL    HW246007  12.499   2.682   3.026
14704SOL     OW46008   0.568   0.348  11.189
14704SOL    HW146009   0.536   0.438  11.179
14704SOL    HW246010   0.490   0.294  11.182
14705SOL     OW46011  11.210   3.296  10.031
14705SOL    HW146012  11.186   3.250  10.111
14705SOL    HW246013  11.271   3.237   9.987
14706SOL     OW46014   7.622   1.806  13.044
14706SOL    HW146015   7.652   1.897  13.047
14706SOL    HW246016   7.609   1.781  13.135
14707SOL     OW46017  14.821   9.094  11.058
14707SOL    HW146018  14.822   9.122  11.149
14707SOL    HW246019   0.002   9.163  11.012
14708SOL     OW46020   0.088   1.219  13.303
14708SOL    HW146021   0.153   1.214  13.374
14708SOL    HW246022   0.139   1.207  13.223
14709SOL     OW46023   1.048   3.268   7.449
14709SOL    HW146024   1.007   3.182   7.447
14709SOL    HW246025   0.978   3.328   7.472
14710SOL     OW46026   7.564  12.733   1.807
14710SOL    HW146027   7.632  12.800   1.806
14710SOL    HW246028   7.493  12.771   1.859
14711SOL     OW46029   2.809   4.687   4.400
14711SOL    HW146030   2.756   4.697   4.478
14711SOL    HW246031   2.856   4.770   4.392
14712SOL     OW46032   2.429   5.972   2.817
14712SOL    HW146033   2.435   6.052   2.868
14712SOL    HW246034   2.361   5.989   2.752
14713SOL     OW46035  14.059   3.291  12.361
14713SOL    HW146036  13.981   3.305  12.308
14713SOL    HW246037  14.088   3.379  12.385
14714SOL     OW46038   2.027   3.877   3.921
14714SOL    HW146039   2.022   3.784   3.898
14714SOL    HW246040   2.029   3.879   4.016
14715SOL     OW46041   8.422   9.686   5.445
14715SOL    HW146042   8.442   9.592   5.446
14715SOL    HW246043   8.414   9.711   5.537
14716SOL     OW46044  11.320  12.028   9.056
14716SOL    HW146045  11.307  12.062   8.968
14716SOL    HW246046  11.275  12.090   9.113
14717SOL     OW46047   5.387   5.485   2.264
14717SOL    HW146048   5.396   5.581   2.268
14717SOL    HW246049   5.476   5.454   2.245
14718SOL     OW46050  13.159   4.854   9.775
14718SOL    HW146051  13.110   4.810   9.845
14718SOL    HW246052  13.094   4.908   9.730
14719SOL     OW46053  13.004   1.281   0.451
14719SOL    HW146054  12.974   1.192   0.431
14719SOL    HW246055  13.034   1.276   0.541
14720SOL     OW46056  14.202   6.631   3.177
14720SOL    HW146057  14.243   6.659   3.095
14720SOL    HW246058  14.267   6.652   3.244
14721SOL     OW46059  13.823  12.128   7.474
14721SOL    HW146060  13.857  12.204   7.427
14721SOL    HW246061  13.741  12.158   7.512
14722SOL     OW46062  11.987   8.524  12.792
14722SOL    HW146063  12.048   8.491  12.859
14722SOL    HW246064  12.030   8.502  12.709
14723SOL     OW46065   0.604  11.946   3.727
14723SOL    HW146066   0.570  11.856   3.733
14723SOL    HW246067   0.694  11.935   3.698
14724SOL     OW46068   1.872   9.514   5.224
14724SOL    HW146069   1.955   9.512   5.271
14724SOL    HW246070   1.864   9.427   5.185
14725SOL     OW46071   2.869   4.005  14.769
14725SOL    HW146072   2.913   4.089  14.784
14725SOL    HW246073   2.940   3.945  14.748
14726SOL     OW46074  10.884   7.097  10.764
14726SOL    HW146075  10.963   7.144  10.738
14726SOL    HW246076  10.835   7.161  10.817
14727SOL     OW46077  11.499   9.664   8.175
14727SOL    HW146078  11.494   9.700   8.087
14727SOL    HW246079  11.418   9.693   8.218
14728SOL     OW46080  14.853   9.767   0.767
14728SOL    HW146081  14.857   9.672   0.774
14728SOL    HW246082  14.817   9.783   0.680
14729SOL     OW46083   7.297  13.091   6.841
14729SOL    HW146084   7.232  13.021   6.839
14729SOL    HW246085   7.376  13.051   6.805
14730SOL     OW46086   7.649   2.678   2.917
14730SOL    HW146087   7.738   2.700   2.947
14730SOL    HW246088   7.654   2.685   2.821
14731SOL     OW46089  14.046   6.022   5.648
14731SOL    HW146090  14.058   6.070   5.730
14731SOL    HW246091  13.951   6.009   5.642
14732SOL     OW46092   0.401   5.634   9.443
14732SOL    HW146093   0.475   5.628   9.503
14732SOL    HW246094   0.438   5.622   9.356
14733SOL     OW46095   4.366   0.396   1.047
14733SOL    HW146096   4.431   0.325   1.051
14733SOL    HW246097   4.319   0.390   1.130
14734SOL     OW46098   7.312   2.580   8.428
14734SOL    HW146099   7.228   2.620   8.448
14734SOL    HW246100   7.333   2.529   8.506
14735SOL     OW46101   9.248   5.385   1.409
14735SOL    HW146102   9.231   5.374   1.503
14735SOL    HW246103   9.323   5.444   1.405
14736SOL     OW46104   3.225  10.387   4.359
14736SOL    HW146105   3.226  10.472   4.404
14736SOL    HW246106   3.305  10.344   4.388
14737SOL     OW46107  13.649   1.453  10.519
14737SOL    HW146108  13.714   1.497  10.573
14737SOL    HW246109  13.678   1.469  10.429
14738SOL     OW46110   7.268  12.381   4.388
14738SOL    HW146111   7.245  12.299   4.343
14738SOL    HW246112   7.347  12.411   4.343
14739SOL     OW46113   9.424   0.722   1.936
14739SOL    HW146114   9.480   0.771   1.997
14739SOL    HW246115   9.427   0.632   1.969
14740SOL     OW46116  10.376   0.325  13.024
14740SOL    HW146117  10.344   0.410  13.052
14740SOL    HW246118  10.330   0.262  13.079
14741SOL     OW46119  12.344   2.615  12.129
14741SOL    HW146120  12.431   2.629  12.164
14741SOL    HW246121  12.329   2.520  12.138
14742SOL     OW46122   8.930   7.618   1.912
14742SOL    HW146123   8.965   7.707   1.900
14742SOL    HW246124   8.858   7.629   1.973
14743SOL     OW46125  10.841   7.964   4.874
14743SOL    HW146126  10.920   7.952   4.926
14743SOL    HW246127  10.856   7.911   4.795
14744SOL     OW46128   5.389   2.167   0.089
14744SOL    HW146129   5.315   2.224   0.068
14744SOL    HW246130   5.411   2.189   0.180
14745SOL     OW46131   2.700   2.413   8.047
14745SOL    HW146132   2.673   2.471   8.118
14745SOL    HW246133   2.653   2.445   7.970
14746SOL     OW46134  10.151  10.210  11.465
14746SOL    HW146135  10.233  10.185  11.507
14746SOL    HW246136  10.176  10.244  11.379
14747SOL     OW46137   4.348   6.384   7.894
14747SOL    HW146138   4.388   6.373   7.808
14747SOL    HW246139   4.389   6.463   7.930
14748SOL     OW46140  10.588   2.366   7.913
14748SOL    HW146141  10.525   2.372   7.985
14748SOL    HW246142  10.650   2.437   7.930
14749SOL     OW46143   6.696   5.502  10.832
14749SOL    HW146144   6.770   5.444  10.815
14749SOL    HW246145   6.644   5.500  10.752
14750SOL     OW46146  12.414   0.203   0.078
14750SOL    HW146147  12.343   0.192   0.140
14750SOL    HW246148  12.402   0.291   0.043
14751SOL     OW46149   2.314  11.514   5.322
14751SOL    HW146150   2.242  11.471   5.367
14751SOL    HW246151   2.335  11.590   5.376
14752SOL     OW46152   9.283  11.686  13.831
14752SOL    HW146153   9.242  11.767  13.859
14752SOL    HW246154   9.343  11.663  13.903
14753SOL     OW46155   9.071   3.182   9.571
14753SOL    HW146156   9.011   3.107   9.569
14753SOL    HW246157   9.057   3.222   9.657
14754SOL     OW46158   0.987   3.107   5.388
14754SOL    HW146159   0.971   3.198   5.411
14754SOL    HW246160   1.082   3.099   5.384
14755SOL     OW46161  11.275   1.784  14.703
14755SOL    HW146162  11.315   1.839  14.636
14755SOL    HW246163  11.276   1.837  14.782
14756SOL     OW46164  11.444  12.836   6.895
14756SOL    HW146165  11.368  12.777   6.898
14756SOL    HW246166  11.468  12.841   6.803
14757SOL     OW46167   1.560   6.337  10.148
14757SOL    HW146168   1.630   6.393  10.114
14757SOL    HW246169   1.601   6.285  10.217
14758SOL     OW46170   9.771  12.366  12.836
14758SOL    HW146171   9.786  12.453  12.799
14758SOL    HW246172   9.859  12.332  12.855
14759SOL     OW46173   4.322   7.527   6.270
14759SOL    HW146174   4.390   7.495   6.329
14759SOL    HW246175   4.304   7.616   6.300
14760SOL     OW46176   6.193  13.948   7.755
14760SOL    HW146177   6.231  13.893   7.824
14760SOL    HW246178   6.102  13.918   7.748
14761SOL     OW46179   9.720  14.246   4.153
14761SOL    HW146180   9.629  14.268   4.173
14761SOL    HW246181   9.718  14.219   4.061
14762SOL     OW46182   1.719  11.591  14.461
14762SOL    HW146183   1.707  11.528  14.389
14762SOL    HW246184   1.654  11.660  14.443
14763SOL     OW46185   3.496   1.306   1.550
14763SOL    HW146186   3.573   1.344   1.592
14763SOL    HW246187   3.531   1.254   1.478
14764SOL     OW46188  10.559   2.193   3.825
14764SOL    HW146189  10.625   2.258   3.849
14764SOL    HW246190  10.483   2.245   3.798
14765SOL     OW46191   7.149   8.501   1.089
14765SOL    HW146192   7.150   8.579   1.144
14765SOL    HW246193   7.212   8.519   1.020
14766SOL     OW46194   5.960   2.126   9.089
14766SOL    HW146195   5.890   2.107   9.151
14766SOL    HW246196   5.927   2.093   9.005
14767SOL     OW46197   3.993  10.554   7.393
14767SOL    HW146198   4.046  10.476   7.408
14767SOL    HW246199   3.921  10.546   7.456
14768SOL     OW46200   9.495  10.140   2.198
14768SOL    HW146201   9.512  10.049   2.221
14768SOL    HW246202   9.446  10.136   2.116
14769SOL     OW46203   7.250   2.158  11.647
14769SOL    HW146204   7.229   2.072  11.612
14769SOL    HW246205   7.321   2.190  11.592
14770SOL     OW46206   5.080  10.627  11.656
14770SOL    HW146207   5.033  10.644  11.574
14770SOL    HW246208   5.106  10.713  11.688
14771SOL     OW46209   1.342   2.323   1.630
14771SOL    HW146210   1.362   2.417   1.627
14771SOL    HW246211   1.416   2.286   1.678
14772SOL     OW46212   5.387   6.799   8.958
14772SOL    HW146213   5.392   6.811   9.052
14772SOL    HW246214   5.297   6.824   8.935
14773SOL     OW46215  11.491   5.095   9.107
14773SOL    HW146216  11.508   5.021   9.165
14773SOL    HW246217  11.445   5.158   9.163
14774SOL     OW46218  11.456  12.438   9.517
14774SOL    HW146219  11.366  12.416   9.540
14774SOL    HW246220  11.493  12.358   9.480
14775SOL     OW46221   2.581   8.518   3.276
14775SOL    HW146222   2.564   8.547   3.186
14775SOL    HW246223   2.504   8.467   3.300
14776SOL     OW46224   6.944   0.953   4.106
14776SOL    HW146225   6.921   0.890   4.175
14776SOL    HW246226   6.929   0.905   4.025
14777SOL     OW46227  12.412   5.719  13.694
14777SOL    HW146228  12.459   5.637  13.682
14777SOL    HW246229  12.322   5.694  13.713
14778SOL     OW46230   9.601  12.931   5.900
14778SOL    HW146231   9.556  12.855   5.936
14778SOL    HW246232   9.593  12.998   5.967
14779SOL     OW46233  10.725   7.908  12.259
14779SOL    HW146234  10.638   7.876  12.231
14779SOL    HW246235  10.779   7.829  12.260
14780SOL     OW46236  14.383  11.415   6.439
14780SOL    HW146237  14.324  11.376   6.374
14780SOL    HW246238  14.368  11.509   6.433
14781SOL     OW46239   9.564   6.793   1.054
14781SOL    HW146240   9.564   6.880   1.094
14781SOL    HW246241   9.595   6.807   0.965
14782SOL     OW46242  12.645   4.062  10.526
14782SOL    HW146243  12.708   4.001  10.564
14782SOL    HW246244  12.643   4.135  10.588
14783SOL     OW46245   7.574  14.822   9.807
14783SOL    HW146246   7.499  14.805   9.864
14783SOL    HW246247   7.556   0.039   9.767
14784SOL     OW46248  11.115   5.741   7.368
14784SOL    HW146249  11.207   5.727   7.393
14784SOL    HW246250  11.077   5.789   7.441
14785SOL     OW46251   8.990   1.635  13.105
14785SOL    HW146252   8.986   1.683  13.188
14785SOL    HW246253   9.020   1.547  13.130
14786SOL     OW46254   2.633  13.305  13.017
14786SOL    HW146255   2.584  13.227  12.993
14786SOL    HW246256   2.724  13.285  12.992
14787SOL     OW46257  14.846  10.632   7.532
14787SOL    HW146258   0.016  10.567   7.591
14787SOL    HW246259  14.752  10.627   7.549
14788SOL     OW46260  11.318  10.282   8.433
14788SOL    HW146261  11.392  10.307   8.488
14788SOL    HW246262  11.269  10.218   8.485
14789SOL     OW46263  13.757   2.988   5.966
14789SOL    HW146264  13.778   3.049   5.896
14789SOL    HW246265  13.842   2.955   5.996
14790SOL     OW46266  10.197   8.157   8.351
14790SOL    HW146267  10.183   8.151   8.446
14790SOL    HW246268  10.109   8.164   8.314
14791SOL     OW46269  12.975   5.431   4.732
14791SOL    HW146270  13.065   5.444   4.764
14791SOL    HW246271  12.974   5.341   4.699
14792SOL     OW46272   8.470  11.792   6.782
14792SOL    HW146273   8.441  11.716   6.832
14792SOL    HW246274   8.512  11.849   6.846
14793SOL     OW46275  11.371   7.794   3.394
14793SOL    HW146276  11.464   7.788   3.372
14793SOL    HW246277  11.360   7.885   3.424
14794SOL     OW46278   3.418   2.885   0.575
14794SOL    HW146279   3.378   2.836   0.503
14794SOL    HW246280   3.494   2.832   0.600
14795SOL     OW46281  11.922   7.250   1.999
14795SOL    HW146282  11.859   7.186   2.033
14795SOL    HW246283  11.973   7.202   1.934
14796SOL     OW46284   2.353   4.998   9.410
14796SOL    HW146285   2.270   4.953   9.391
14796SOL    HW246286   2.327   5.088   9.431
14797SOL     OW46287   3.926  12.093   6.187
14797SOL    HW146288   3.903  12.168   6.242
14797SOL    HW246289   3.854  12.086   6.124
14798SOL     OW46290   4.562  10.322   7.308
14798SOL    HW146291   4.631  10.383   7.282
14798SOL    HW246292   4.483  10.377   7.313
14799SOL     OW46293   5.609   7.450   4.062
14799SOL    HW146294   5.565   7.423   3.982
14799SOL    HW246295   5.544   7.438   4.131
14800SOL     OW46296   7.458   3.823   0.788
14800SOL    HW146297   7.512   3.891   0.829
14800SOL    HW246298   7.440   3.857   0.700
14801SOL     OW46299   4.414  14.698   7.785
14801SOL    HW146300   4.415  14.641   7.861
14801SOL    HW246301   4.468  14.773   7.810
14802SOL     OW46302   9.446   6.594   1.190
14802SOL    HW146303   9.359   6.635   1.199
14802SOL    HW246304   9.494   6.652   1.130
14803SOL     OW46305  14.678   4.030   7.775
14803SOL    HW146306  14.622   4.089   7.726
14803SOL    HW246307  14.733   4.087   7.828
14804SOL     OW46308   8.894   3.544   5.990
14804SOL    HW146309   8.853   3.630   5.987
14804SOL    HW246310   8.978   3.558   6.033
14805SOL     OW46311   6.572   1.144   1.590
14805SOL    HW146312   6.525   1.175   1.512
14805SOL    HW246313   6.563   1.048   1.585
14806SOL     OW46314  13.755   1.393   5.621
14806SOL    HW146315  13.775   1.304   5.592
14806SOL    HW246316  13.841   1.436   5.626
14807SOL     OW46317  13.994   3.496   9.648
14807SOL    HW146318  13.906   3.505   9.611
14807SOL    HW246319  14.045   3.454   9.578
14808SOL     OW46320  10.596   0.220  12.918
14808SOL    HW146321  10.509   0.245  12.949
14808SOL    HW246322  10.581   0.144  12.862
14809SOL     OW46323   2.666   3.218   0.894
14809SOL    HW146324   2.674   3.187   0.804
14809SOL    HW246325   2.628   3.306   0.886
14810SOL     OW46326  10.620   7.507   1.322
14810SOL    HW146327  10.695   7.476   1.269
14810SOL    HW246328  10.613   7.442   1.393
14811SOL     OW46329   3.613  10.290   9.664
14811SOL    HW146330   3.528  10.319   9.632
14811SOL    HW246331   3.676  10.328   9.601
14812SOL     OW46332  13.703  13.715   2.057
14812SOL    HW146333  13.795  13.714   2.029
14812SOL    HW246334  13.690  13.803   2.093
14813SOL     OW46335   3.096   2.572   9.990
14813SOL    HW146336   3.050   2.531  10.063
14813SOL    HW246337   3.136   2.650  10.028
14814SOL     OW46338   5.313   7.543   4.999
14814SOL    HW146339   5.333   7.633   5.022
14814SOL    HW246340   5.342   7.535   4.908
14815SOL     OW46341   8.272   7.117   7.437
14815SOL    HW146342   8.339   7.050   7.423
14815SOL    HW246343   8.216   7.111   7.360
14816SOL     OW46344   9.345   9.599  12.071
14816SOL    HW146345   9.312   9.548  11.997
14816SOL    HW246346   9.279   9.667  12.085
14817SOL     OW46347   7.506   5.002   5.903
14817SOL    HW146348   7.419   5.040   5.914
14817SOL    HW246349   7.565   5.068   5.940
14818SOL     OW46350   6.339   1.056  11.348
14818SOL    HW146351   6.293   0.972  11.336
14818SOL    HW246352   6.277   1.109  11.398
14819SOL     OW46353   3.108   7.877  14.651
14819SOL    HW146354   3.061   7.907  14.729
14819SOL    HW246355   3.105   7.952  14.591
14820SOL     OW46356  11.429   2.124   5.246
14820SOL    HW146357  11.450   2.031   5.247
14820SOL    HW246358  11.512   2.168   5.266
14821SOL     OW46359   3.760  12.272   9.334
14821SOL    HW146360   3.720  12.185   9.337
14821SOL    HW246361   3.714  12.317   9.263
14822SOL     OW46362  13.774   1.119   0.121
14822SOL    HW146363  13.708   1.117   0.052
14822SOL    HW246364  13.772   1.209   0.154
14823SOL     OW46365   6.828  12.937   8.443
14823SOL    HW146366   6.901  12.997   8.430
14823SOL    HW246367   6.855  12.857   8.398
14824SOL     OW46368  13.465  11.907  13.936
14824SOL    HW146369  13.417  11.824  13.936
14824SOL    HW246370  13.551  11.885  13.899
14825SOL     OW46371   5.558  12.287   0.553
14825SOL    HW146372   5.508  12.231   0.495
14825SOL    HW246373   5.575  12.366   0.502
14826SOL     OW46374   7.372   1.277   1.974
14826SOL    HW146375   7.383   1.188   2.007
14826SOL    HW246376   7.351   1.329   2.051
14827SOL     OW46377   4.469   2.875   8.915
14827SOL    HW146378   4.498   2.786   8.895
14827SOL    HW246379   4.376   2.876   8.894
14828SOL     OW46380   1.570   3.508   8.284
14828SOL    HW146381   1.578   3.504   8.189
14828SOL    HW246382   1.502   3.574   8.300
14829SOL     OW46383   1.664   6.680   4.863
14829SOL    HW146384   1.684   6.589   4.844
14829SOL    HW246385   1.616   6.677   4.946
14830SOL     OW46386  11.826   3.539   4.198
14830SOL    HW146387  11.823   3.630   4.227
14830SOL    HW246388  11.901   3.535   4.139
14831SOL     OW46389   7.623   9.336  10.980
14831SOL    HW146390   7.576   9.302  10.904
14831SOL    HW246391   7.710   9.359  10.946
14832SOL     OW46392  10.991   8.494   7.861
14832SOL    HW146393  11.056   8.492   7.931
14832SOL    HW246394  10.917   8.543   7.897
14833SOL     OW46395  14.553   7.882   1.469
14833SOL    HW146396  14.500   7.929   1.533
14833SOL    HW246397  14.587   7.806   1.518
14834SOL     OW46398   6.795   5.550   0.339
14834SOL    HW146399   6.885   5.583   0.337
14834SOL    HW246400   6.741   5.628   0.327
14835SOL     OW46401  14.326   5.278  10.277
14835SOL    HW146402  14.322   5.353  10.217
14835SOL    HW246403  14.317   5.316  10.364
14836SOL     OW46404  13.203   2.709   0.144
14836SOL    HW146405  13.232   2.679   0.230
14836SOL    HW246406  13.253   2.656   0.082
14837SOL     OW46407  10.319  13.232   4.637
14837SOL    HW146408  10.363  13.158   4.594
14837SOL    HW246409  10.391  13.286   4.671
14838SOL     OW46410   7.588   4.568   9.754
14838SOL    HW146411   7.524   4.534   9.691
14838SOL    HW246412   7.587   4.663   9.740
14839SOL     OW46413   0.308   3.017   7.026
14839SOL    HW146414   0.397   3.052   7.030
14839SOL    HW246415   0.257   3.075   7.082
14840SOL     OW46416  10.035   8.733  10.970
14840SOL    HW146417  10.009   8.693  11.053
14840SOL    HW246418  10.123   8.767  10.985
14841SOL     OW46419   5.623   3.938   7.190
14841SOL    HW146420   5.706   3.914   7.149
14841SOL    HW246421   5.607   3.869   7.255
14842SOL     OW46422   0.711   2.793   7.054
14842SOL    HW146423   0.745   2.806   6.966
14842SOL    HW246424   0.632   2.848   7.058
14843SOL     OW46425   0.301  12.618  13.730
14843SOL    HW146426   0.256  12.555  13.673
14843SOL    HW246427   0.287  12.703  13.688
14844SOL     OW46428   0.009  13.624  12.501
14844SOL    HW146429   0.100  13.628  12.474
14844SOL    HW246430  14.844  13.542  12.464
14845SOL     OW46431   1.148   9.821   8.540
14845SOL    HW146432   1.210   9.893   8.530
14845SOL    HW246433   1.062   9.864   8.540
14846SOL     OW46434  10.070   8.359   8.788
14846SOL    HW146435   9.978   8.339   8.802
14846SOL    HW246436  10.080   8.365   8.693
14847SOL     OW46437  11.230   2.563   7.758
14847SOL    HW146438  11.316   2.566   7.800
14847SOL    HW246439  11.175   2.619   7.812
14848SOL     OW46440   1.459   8.309   3.745
14848SOL    HW146441   1.394   8.375   3.766
14848SOL    HW246442   1.409   8.234   3.714
14849SOL     OW46443  14.348   5.725   2.534
14849SOL    HW146444  14.267   5.678   2.516
14849SOL    HW246445  14.385   5.681   2.610
14850SOL     OW46446  13.068   0.631   2.985
14850SOL    HW146447  13.116   0.608   3.065
14850SOL    HW246448  13.133   0.673   2.929
14851SOL     OW46449   8.033   1.144   1.976
14851SOL    HW146450   8.028   1.178   2.065
14851SOL    HW246451   7.980   1.205   1.924
14852SOL     OW46452   2.384   4.561  12.498
14852SOL    HW146453   2.473   4.546  12.532
14852SOL    HW246454   2.333   4.488  12.533
14853SOL     OW46455   1.663   8.513  10.130
14853SOL    HW146456   1.653   8.581  10.197
14853SOL    HW246457   1.742   8.466  10.154
14854SOL     OW46458  11.978   7.271   1.526
14854SOL    HW146459  11.888   7.281   1.494
14854SOL    HW246460  11.971   7.205   1.595
14855SOL     OW46461  13.661  14.659  10.483
14855SOL    HW146462  13.704  14.574  10.471
14855SOL    HW246463  13.690  14.711  10.407
14856SOL     OW46464   9.488  14.733  13.057
14856SOL    HW146465   9.464  14.650  13.016
14856SOL    HW246466   9.410  14.788  13.047
14857SOL     OW46467   1.089   6.767   5.276
14857SOL    HW146468   1.123   6.700   5.336
14857SOL    HW246469   1.137   6.846   5.300
14858SOL     OW46470   2.349   8.686   9.716
14858SOL    HW146471   2.365   8.730   9.632
14858SOL    HW246472   2.372   8.594   9.700
14859SOL     OW46473  11.882  11.261   4.997
14859SOL    HW146474  11.831  11.181   4.979
14859SOL    HW246475  11.966  11.245   4.955
14860SOL     OW46476   3.619   7.776   5.383
14860SOL    HW146477   3.584   7.689   5.400
14860SOL    HW246478   3.582   7.831   5.452
14861SOL     OW46479   1.583   2.876   4.694
14861SOL    HW146480   1.641   2.820   4.642
14861SOL    HW246481   1.640   2.916   4.760
14862SOL     OW46482   6.280   0.582  12.785
14862SOL    HW146483   6.318   0.500  12.814
14862SOL    HW246484   6.280   0.576  12.689
14863SOL     OW46485   9.803   2.912   6.617
14863SOL    HW146486   9.873   2.846   6.623
14863SOL    HW246487   9.727   2.869   6.656
14864SOL     OW46488   1.219   6.059   7.150
14864SOL    HW146489   1.237   5.965   7.146
14864SOL    HW246490   1.264   6.089   7.229
14865SOL     OW46491   6.039   8.274   4.616
14865SOL    HW146492   6.060   8.365   4.594
14865SOL    HW246493   5.949   8.262   4.585
14866SOL     OW46494   8.117   9.215  11.520
14866SOL    HW146495   8.174   9.179  11.589
14866SOL    HW246496   8.118   9.149  11.451
14867SOL     OW46497   6.297   7.885   0.166
14867SOL    HW146498   6.255   7.824   0.226
14867SOL    HW246499   6.245   7.878   0.085
14868SOL     OW46500  11.331  11.108  14.632
14868SOL    HW146501  11.264  11.127  14.697
14868SOL    HW246502  11.293  11.133  14.548
14869SOL     OW46503   4.681   5.493   9.246
14869SOL    HW146504   4.666   5.582   9.213
14869SOL    HW246505   4.625   5.487   9.323
14870SOL     OW46506   9.413   3.339   0.951
14870SOL    HW146507   9.404   3.323   0.857
14870SOL    HW246508   9.343   3.288   0.991
14871SOL     OW46509   8.013   0.376  12.345
14871SOL    HW146510   8.042   0.286  12.328
14871SOL    HW246511   8.006   0.416  12.258
14872SOL     OW46512   7.691   3.133   5.828
14872SOL    HW146513   7.683   3.047   5.788
14872SOL    HW246514   7.636   3.129   5.906
14873SOL     OW46515   8.166   0.476  12.804
14873SOL    HW146516   8.095   0.421  12.836
14873SOL    HW246517   8.244   0.420  12.807
14874SOL     OW46518   8.951   9.241  12.831
14874SOL    HW146519   8.954   9.171  12.896
14874SOL    HW246520   8.860   9.241  12.800
14875SOL     OW46521  11.365   3.210   4.518
14875SOL    HW146522  11.359   3.233   4.611
14875SOL    HW246523  11.420   3.131   4.517
14876SOL     OW46524   7.702   6.765  11.377
14876SOL    HW146525   7.694   6.751  11.282
14876SOL    HW246526   7.665   6.853  11.390
14877SOL     OW46527   5.340  14.016  12.857
14877SOL    HW146528   5.395  14.092  12.839
14877SOL    HW246529   5.259  14.054  12.893
14878SOL     OW46530  10.879   7.506   5.636
14878SOL    HW146531  10.883   7.531   5.728
14878SOL    HW246532  10.966   7.525   5.602
14879SOL     OW46533   0.357  13.992   6.515
14879SOL    HW146534   0.436  14.029   6.555
14879SOL    HW246535   0.346  13.907   6.557
14880SOL     OW46536   4.240   4.758   9.968
14880SOL    HW146537   4.262   4.719   9.883
14880SOL    HW246538   4.324   4.771  10.011
14881SOL     OW46539   9.075  10.985   5.163
14881SOL    HW146540   9.031  10.901   5.176
14881SOL    HW246541   9.004  11.050   5.163
14882SOL     OW46542   6.349   6.453   2.963
14882SOL    HW146543   6.309   6.367   2.973
14882SOL    HW246544   6.303   6.491   2.887
14883SOL     OW46545  14.326   0.935   8.992
14883SOL    HW146546  14.347   1.004   9.055
14883SOL    HW246547  14.409   0.916   8.949
14884SOL     OW46548  14.782  13.373   8.397
14884SOL    HW146549  14.705  13.316   8.387
14884SOL    HW246550  14.795  13.411   8.310
14885SOL     OW46551   3.371   9.854   7.634
14885SOL    HW146552   3.280   9.884   7.640
14885SOL    HW246553   3.376   9.808   7.551
14886SOL     OW46554   1.109   1.159  13.489
14886SOL    HW146555   1.063   1.240  13.469
14886SOL    HW246556   1.088   1.141  13.581
14887SOL     OW46557   3.230  13.631   1.893
14887SOL    HW146558   3.172  13.701   1.864
14887SOL    HW246559   3.233  13.571   1.818
14888SOL     OW46560   4.297  12.915   6.730
14888SOL    HW146561   4.255  12.988   6.775
14888SOL    HW246562   4.249  12.838   6.760
14889SOL     OW46563   9.737   9.293   4.098
14889SOL    HW146564   9.687   9.369   4.126
14889SOL    HW246565   9.783   9.263   4.177
14890SOL     OW46566   7.093   3.967   5.584
14890SOL    HW146567   7.045   3.931   5.510
14890SOL    HW246568   7.139   3.893   5.622
14891SOL     OW46569  10.486  13.900   6.377
14891SOL    HW146570  10.512  13.858   6.459
14891SOL    HW246571  10.402  13.861   6.356
14892SOL     OW46572   2.612  13.085  13.324
14892SOL    HW146573   2.650  13.042  13.400
14892SOL    HW246574   2.643  13.175  13.330
14893SOL     OW46575   0.870   8.697   0.201
14893SOL    HW146576   0.776   8.710   0.202
14893SOL    HW246577   0.903   8.756   0.269
14894SOL     OW46578   9.414   3.117  10.847
14894SOL    HW146579   9.361   3.153  10.918
14894SOL    HW246580   9.449   3.035  10.881
14895SOL     OW46581   2.910   6.777   7.274
14895SOL    HW146582   2.981   6.738   7.326
14895SOL    HW246583   2.834   6.774   7.331
14896SOL     OW46584   5.654   3.712   3.037
14896SOL    HW146585   5.644   3.757   3.121
14896SOL    HW246586   5.749   3.706   3.026
14897SOL     OW46587   6.647   1.330   1.803
14897SOL    HW146588   6.569   1.343   1.857
14897SOL    HW246589   6.619   1.354   1.714
14898SOL     OW46590   2.665   2.837  10.784
14898SOL    HW146591   2.608   2.761  10.785
14898SOL    HW246592   2.703   2.841  10.871
14899SOL     OW46593   5.573  10.448  14.209
14899SOL    HW146594   5.609  10.359  14.206
14899SOL    HW246595   5.480  10.436  14.229
14900SOL     OW46596  11.650  11.850   9.667
14900SOL    HW146597  11.734  11.842   9.712
14900SOL    HW246598  11.590  11.797   9.719
14901SOL     OW46599   2.361   0.383   4.028
14901SOL    HW146600   2.269   0.409   4.020
14901SOL    HW246601   2.367   0.342   4.114
14902SOL     OW46602  13.747  11.455   5.114
14902SOL    HW146603  13.723  11.452   5.021
14902SOL    HW246604  13.828  11.506   5.116
14903SOL     OW46605   2.820  11.025   7.081
14903SOL    HW146606   2.878  10.987   7.015
14903SOL    HW246607   2.863  11.006   7.164
14904SOL     OW46608  14.527   8.138   8.650
14904SOL    HW146609  14.586   8.195   8.601
14904SOL    HW246610  14.582   8.063   8.674
14905SOL     OW46611   9.313  14.539   1.357
14905SOL    HW146612   9.267  14.472   1.407
14905SOL    HW246613   9.291  14.520   1.266
14906SOL     OW46614   3.848   2.772   6.035
14906SOL    HW146615   3.900   2.698   6.004
14906SOL    HW246616   3.847   2.762   6.131
14907SOL     OW46617   6.973   1.780   7.390
14907SOL    HW146618   6.978   1.742   7.477
14907SOL    HW246619   7.060   1.765   7.352
14908SOL     OW46620   2.745   8.983   2.661
14908SOL    HW146621   2.763   9.074   2.686
14908SOL    HW246622   2.672   8.989   2.599
14909SOL     OW46623   4.360  13.230   0.821
14909SOL    HW146624   4.284  13.208   0.767
14909SOL    HW246625   4.425  13.162   0.801
14910SOL     OW46626  10.878   6.610   2.954
14910SOL    HW146627  10.798   6.612   3.006
14910SOL    HW246628  10.934   6.677   2.993
14911SOL     OW46629   0.838   3.269   1.569
14911SOL    HW146630   0.837   3.264   1.665
14911SOL    HW246631   0.882   3.189   1.542
14912SOL     OW46632   6.808   3.492   3.106
14912SOL    HW146633   6.891   3.456   3.139
14912SOL    HW246634   6.769   3.419   3.058
14913SOL     OW46635  10.216   1.562   0.784
14913SOL    HW146636  10.225   1.471   0.811
14913SOL    HW246637  10.125   1.584   0.803
14914SOL     OW46638   8.498  10.992   2.267
14914SOL    HW146639   8.499  10.950   2.353
14914SOL    HW246640   8.453  10.930   2.210
14915SOL     OW46641   0.905  14.800  13.009
14915SOL    HW146642   0.962  14.834  12.940
14915SOL    HW246643   0.816  14.814  12.975
14916SOL     OW46644   8.999   4.466   4.182
14916SOL    HW146645   9.054   4.409   4.129
14916SOL    HW246646   8.994   4.548   4.132
14917SOL     OW46647   8.286   0.586   9.928
14917SOL    HW146648   8.343   0.619   9.859
14917SOL    HW246649   8.290   0.491   9.919
14918SOL     OW46650  13.544  14.005   6.289
14918SOL    HW146651  13.519  13.977   6.377
14918SOL    HW246652  13.633  13.970   6.278
14919SOL     OW46653   4.630   3.729   5.039
14919SOL    HW146654   4.695   3.768   5.097
14919SOL    HW246655   4.555   3.710   5.095
14920SOL     OW46656  11.582  13.537  12.861
14920SOL    HW146657  11.641  13.573  12.795
14920SOL    HW246658  11.624  13.457  12.891
14921SOL     OW46659   1.403   3.506   8.788
14921SOL    HW146660   1.464   3.561   8.837
14921SOL    HW246661   1.322   3.508   8.839
14922SOL     OW46662   3.720   0.813  12.948
14922SOL    HW146663   3.635   0.850  12.925
14922SOL    HW246664   3.715   0.722  12.919
14923SOL     OW46665   2.283   0.657  12.814
14923SOL    HW146666   2.307   0.568  12.838
14923SOL    HW246667   2.275   0.703  12.897
14924SOL     OW46668   8.913  13.921  13.796
14924SOL    HW146669   8.987  13.872  13.761
14924SOL    HW246670   8.952  13.992  13.847
14925SOL     OW46671  13.020   5.882   8.437
14925SOL    HW146672  13.017   5.814   8.505
14925SOL    HW246673  13.099   5.933   8.457
14926SOL     OW46674   9.930  14.754   1.079
14926SOL    HW146675   9.842  14.777   1.108
14926SOL    HW246676   9.985  14.769   1.156
14927SOL     OW46677  13.178   7.115  14.351
14927SOL    HW146678  13.209   7.025  14.357
14927SOL    HW246679  13.095   7.116  14.400
14928SOL     OW46680  12.428   6.047  10.663
14928SOL    HW146681  12.397   6.081  10.748
14928SOL    HW246682  12.519   6.075  10.658
14929SOL     OW46683   6.030   6.533   4.118
14929SOL    HW146684   6.067   6.484   4.192
14929SOL    HW246685   6.048   6.478   4.042
14930SOL     OW46686  13.073   8.187   3.066
14930SOL    HW146687  13.161   8.222   3.053
14930SOL    HW246688  13.023   8.261   3.100
14931SOL     OW46689   5.258   1.478  11.323
14931SOL    HW146690   5.272   1.383  11.325
14931SOL    HW246691   5.182   1.492  11.379
14932SOL     OW46692   9.049   9.989   7.301
14932SOL    HW146693   9.026   9.975   7.393
14932SOL    HW246694   9.097  10.072   7.300
14933SOL     OW46695   1.987   6.869   9.822
14933SOL    HW146696   2.000   6.891   9.915
14933SOL    HW246697   1.997   6.774   9.818
14934SOL     OW46698  14.868  10.439   8.558
14934SOL    HW146699  14.799  10.384   8.521
14934SOL    HW246700   0.079  10.411   8.512
14935SOL     OW46701   7.969   4.557   2.148
14935SOL    HW146702   7.884   4.599   2.160
14935SOL    HW246703   7.971   4.488   2.214
14936SOL     OW46704  11.392   1.677   5.357
14936SOL    HW146705  11.466   1.664   5.299
14936SOL    HW246706  11.430   1.687   5.444
14937SOL     OW46707   6.243  14.266  10.549
14937SOL    HW146708   6.180  14.275  10.620
14937SOL    HW246709   6.218  14.334  10.486
14938SOL     OW46710   8.020   0.996   5.596
14938SOL    HW146711   7.987   0.968   5.682
14938SOL    HW246712   7.940   1.009   5.544
14939SOL     OW46713  13.074   8.126   7.715
14939SOL    HW146714  12.999   8.186   7.709
14939SOL    HW246715  13.037   8.040   7.696
14940SOL     OW46716  14.080   2.315   9.006
14940SOL    HW146717  14.091   2.225   8.977
14940SOL    HW246718  14.110   2.315   9.097
14941SOL     OW46719   1.779   4.840   4.217
14941SOL    HW146720   1.810   4.912   4.272
14941SOL    HW246721   1.785   4.763   4.274
14942SOL     OW46722  10.411   7.313   8.544
14942SOL    HW146723  10.393   7.406   8.532
14942SOL    HW246724  10.346   7.283   8.607
14943SOL     OW46725  12.694   9.585   3.233
14943SOL    HW146726  12.643   9.592   3.314
14943SOL    HW246727  12.784   9.568   3.264
14944SOL     OW46728   0.479   8.238   1.006
14944SOL    HW146729   0.523   8.297   1.067
14944SOL    HW246730   0.531   8.244   0.925
14945SOL     OW46731   4.030  13.174  13.507
14945SOL    HW146732   3.987  13.093  13.534
14945SOL    HW246733   3.997  13.189  13.418
14946SOL     OW46734   9.623   3.645   2.576
14946SOL    HW146735   9.563   3.697   2.522
14946SOL    HW246736   9.652   3.574   2.519
14947SOL     OW46737   5.290   7.964   4.822
14947SOL    HW146738   5.326   8.037   4.873
14947SOL    HW246739   5.233   8.006   4.758
14948SOL     OW46740   2.156   6.708   5.968
14948SOL    HW146741   2.185   6.623   6.001
14948SOL    HW246742   2.065   6.715   5.996
14949SOL     OW46743  10.985  13.607  11.522
14949SOL    HW146744  10.988  13.512  11.530
14949SOL    HW246745  11.035  13.639  11.597
14950SOL     OW46746  13.741  12.874   9.726
14950SOL    HW146747  13.670  12.902   9.784
14950SOL    HW246748  13.729  12.779   9.720
14951SOL     OW46749  11.480  13.554   1.608
14951SOL    HW146750  11.532  13.571   1.686
14951SOL    HW246751  11.415  13.623   1.606
14952SOL     OW46752  14.462  13.792  12.029
14952SOL    HW146753  14.451  13.733  11.954
14952SOL    HW246754  14.539  13.759  12.075
14953SOL     OW46755  13.345  12.112   7.216
14953SOL    HW146756  13.298  12.052   7.274
14953SOL    HW246757  13.348  12.195   7.264
14954SOL     OW46758   1.010   7.801   7.436
14954SOL    HW146759   0.972   7.867   7.494
14954SOL    HW246760   0.942   7.734   7.428
14955SOL     OW46761  14.487   6.085   1.336
14955SOL    HW146762  14.577   6.113   1.320
14955SOL    HW246763  14.495   6.022   1.408
14956SOL     OW46764   2.408  10.761  14.352
14956SOL    HW146765   2.442  10.804  14.273
14956SOL    HW246766   2.313  10.774  14.348
14957SOL     OW46767   9.849  10.625   0.880
14957SOL    HW146768   9.928  10.678   0.867
14957SOL    HW246769   9.851  10.562   0.809
14958SOL     OW46770   0.171  13.825   7.566
14958SOL    HW146771   0.093  13.879   7.557
14958SOL    HW246772   0.239  13.885   7.596
14959SOL     OW46773   7.753   3.441  13.026
14959SOL    HW146774   7.773   3.482  12.942
14959SOL    HW246775   7.663   3.409  13.016
14960SOL     OW46776   9.864   9.515   0.535
14960SOL    HW146777   9.898   9.426   0.537
14960SOL    HW246778   9.895   9.551   0.452
14961SOL     OW46779  14.214  12.580  10.334
14961SOL    HW146780  14.174  12.637  10.400
14961SOL    HW246781  14.142  12.523  10.306
14962SOL     OW46782   9.036   3.367   7.370
14962SOL    HW146783   9.070   3.284   7.403
14962SOL    HW246784   8.949   3.375   7.409
14963SOL     OW46785  14.758  10.849   3.736
14963SOL    HW146786  14.778  10.939   3.763
14963SOL    HW246787  14.832  10.797   3.767
14964SOL     OW46788  13.028   0.043   6.346
14964SOL    HW146789  12.945   0.010   6.313
14964SOL    HW246790  13.058   0.105   6.280
14965SOL     OW46791   1.269  14.637   4.160
14965SOL    HW146792   1.289  14.555   4.204
14965SOL    HW246793   1.305  14.626   4.072
14966SOL     OW46794   4.589   8.493   8.882
14966SOL    HW146795   4.642   8.447   8.817
14966SOL    HW246796   4.592   8.438   8.960
14967SOL     OW46797   0.289   3.274   6.586
14967SOL    HW146798   0.270   3.325   6.665
14967SOL    HW246799   0.243   3.192   6.598
14968SOL     OW46800  14.730   2.028  12.560
14968SOL    HW146801  14.648   2.044  12.514
14968SOL    HW246802  14.793   2.007  12.491
14969SOL     OW46803  14.385  10.922   3.565
14969SOL    HW146804  14.297  10.959   3.570
14969SOL    HW246805  14.392  10.865   3.641
14970SOL     OW46806   3.346   5.680   6.014
14970SOL    HW146807   3.411   5.698   5.946
14970SOL    HW246808   3.271   5.734   5.991
14971SOL     OW46809   5.645  12.509   8.690
14971SOL    HW146810   5.735  12.529   8.666
14971SOL    HW246811   5.618  12.581   8.747
14972SOL     OW46812  10.556  13.459   1.704
14972SOL    HW146813  10.535  13.380   1.755
14972SOL    HW246814  10.651  13.464   1.707
14973SOL     OW46815   8.986   5.460   4.363
14973SOL    HW146816   8.920   5.391   4.356
14973SOL    HW246817   8.957   5.514   4.436
14974SOL     OW46818   3.486  14.187   2.828
14974SOL    HW146819   3.496  14.281   2.840
14974SOL    HW246820   3.466  14.177   2.735
14975SOL     OW46821   5.089   5.034   4.764
14975SOL    HW146822   5.145   5.081   4.702
14975SOL    HW246823   5.103   4.942   4.745
14976SOL     OW46824  10.090   9.393   4.578
14976SOL    HW146825  10.119   9.435   4.497
14976SOL    HW246826  10.008   9.439   4.600
14977SOL     OW46827   6.255  14.809   4.708
14977SOL    HW146828   6.227  14.725   4.745
14977SOL    HW246829   6.216   0.007   4.765
14978SOL     OW46830  14.073  11.849  14.822
14978SOL    HW146831  14.081  11.930   0.005
14978SOL    HW246832  14.048  11.782   0.018
14979SOL     OW46833  13.075   6.094   5.378
14979SOL    HW146834  13.152   6.058   5.334
14979SOL    HW246835  13.001   6.065   5.324
14980SOL     OW46836  11.768   6.194   4.737
14980SOL    HW146837  11.692   6.169   4.684
14980SOL    HW246838  11.746   6.165   4.826
14981SOL     OW46839   6.832   9.246  11.403
14981SOL    HW146840   6.861   9.256  11.493
14981SOL    HW246841   6.745   9.207  11.410
14982SOL     OW46842   4.075   3.114   3.550
14982SOL    HW146843   4.142   3.181   3.562
14982SOL    HW246844   4.119   3.044   3.502
14983SOL     OW46845   6.103  12.846   2.420
14983SOL    HW146846   6.089  12.863   2.327
14983SOL    HW246847   6.138  12.929   2.454
14984SOL     OW46848   3.125   6.380   7.556
14984SOL    HW146849   3.030   6.377   7.553
14984SOL    HW246850   3.153   6.292   7.533
14985SOL     OW46851   8.229  12.080   1.619
14985SOL    HW146852   8.291  12.090   1.692
14985SOL    HW246853   8.283  12.046   1.547
14986SOL     OW46854   3.090   4.345  12.766
14986SOL    HW146855   3.182   4.320  12.757
14986SOL    HW246856   3.060   4.298  12.844
14987SOL     OW46857   2.661   3.335  11.040
14987SOL    HW146858   2.638   3.428  11.038
14987SOL    HW246859   2.754   3.333  11.017
14988SOL     OW46860   5.677   7.151  13.528
14988SOL    HW146861   5.624   7.164  13.449
14988SOL    HW246862   5.734   7.227  13.531
14989SOL     OW46863   1.281   2.860  13.815
14989SOL    HW146864   1.361   2.876  13.764
14989SOL    HW246865   1.252   2.948  13.842
14990SOL     OW46866   7.404   3.525   0.948
14990SOL    HW146867   7.478   3.573   0.985
14990SOL    HW246868   7.351   3.501   1.024
14991SOL     OW46869  10.651   1.769   1.392
14991SOL    HW146870  10.691   1.735   1.312
14991SOL    HW246871  10.595   1.840   1.362
14992SOL     OW46872  11.760  11.798   7.050
14992SOL    HW146873  11.770  11.827   7.140
14992SOL    HW246874  11.670  11.767   7.045
14993SOL     OW46875   9.283   6.795   9.429
14993SOL    HW146876   9.304   6.704   9.408
14993SOL    HW246877   9.275   6.838   9.344
14994SOL     OW46878   6.958   4.420   0.203
14994SOL    HW146879   6.985   4.338   0.244
14994SOL    HW246880   7.023   4.436   0.135
14995SOL     OW46881  10.175   7.769  14.128
14995SOL    HW146882  10.241   7.835  14.105
14995SOL    HW246883  10.140   7.799  14.212
14996SOL     OW46884   9.246  14.730   3.721
14996SOL    HW146885   9.295  14.656   3.756
14996SOL    HW246886   9.308  14.803   3.724
14997SOL     OW46887  13.874   0.059  12.187
14997SOL    HW146888  13.923   0.111  12.124
14997SOL    HW246889  13.902   0.091  12.272
14998SOL     OW46890  14.794   2.437   2.422
14998SOL    HW146891  14.837   2.377   2.361
14998SOL    HW246892  14.831   2.522   2.401
14999SOL     OW46893   6.627   0.888   0.039
14999SOL    HW146894   6.594   0.880   0.128
14999SOL    HW246895   6.549   0.900  14.853
15000SOL     OW46896  10.697  10.526   1.466
15000SOL    HW146897  10.632  10.508   1.534
15000SOL    HW246898  10.780  10.533   1.514
15001SOL     OW46899   7.699   7.360  13.096
15001SOL    HW146900   7.728   7.281  13.142
15001SOL    HW246901   7.663   7.327  13.013
15002SOL     OW46902   0.652   9.512   9.736
15002SOL    HW146903   0.680   9.441   9.794
15002SOL    HW246904   0.570   9.480   9.697
15003SOL     OW46905   3.575  11.939  14.257
15003SOL    HW146906   3.615  11.961  14.173
15003SOL    HW246907   3.489  11.980  14.254
15004SOL     OW46908   7.710   6.854  10.644
15004SOL    HW146909   7.797   6.890  10.626
15004SOL    HW246910   7.654   6.892  10.576
15005SOL     OW46911  11.069   6.050   2.291
15005SOL    HW146912  11.001   6.109   2.322
15005SOL    HW246913  11.059   6.050   2.195
15006SOL     OW46914   2.729   5.651   3.918
15006SOL    HW146915   2.735   5.560   3.945
15006SOL    HW246916   2.637   5.662   3.891
15007SOL     OW46917   7.881  11.281   2.622
15007SOL    HW146918   7.850  11.319   2.703
15007SOL    HW246919   7.952  11.339   2.593
15008SOL     OW46920  11.325   9.813   1.231
15008SOL    HW146921  11.314   9.871   1.156
15008SOL    HW246922  11.301   9.867   1.306
15009SOL     OW46923  14.609   6.460   3.338
15009SOL    HW146924  14.574   6.407   3.409
15009SOL    HW246925  14.562   6.429   3.260
15010SOL     OW46926   9.953   2.034   1.076
15010SOL    HW146927  10.043   2.063   1.062
15010SOL    HW246928   9.961   1.944   1.107
15011SOL     OW46929   2.393   9.298   0.210
15011SOL    HW146930   2.469   9.244   0.191
15011SOL    HW246931   2.352   9.256   0.285
15012SOL     OW46932   8.229   7.575   8.304
15012SOL    HW146933   8.260   7.665   8.312
15012SOL    HW246934   8.146   7.574   8.353
15013SOL     OW46935   5.739   7.883   0.589
15013SOL    HW146936   5.688   7.809   0.621
15013SOL    HW246937   5.820   7.844   0.558
15014SOL     OW46938   7.887   9.450  14.295
15014SOL    HW146939   7.887   9.537  14.335
15014SOL    HW246940   7.978   9.435  14.271
15015SOL     OW46941   8.180  12.355  14.605
15015SOL    HW146942   8.176  12.331  14.698
15015SOL    HW246943   8.187  12.272  14.559
15016SOL     OW46944   7.350  12.287   5.308
15016SOL    HW146945   7.272  12.234   5.299
15016SOL    HW246946   7.418  12.239   5.260
15017SOL     OW46947   0.504   3.288  11.075
15017SOL    HW146948   0.459   3.365  11.039
15017SOL    HW246949   0.572   3.325  11.131
15018SOL     OW46950  11.141  13.965  13.129
15018SOL    HW146951  11.066  13.910  13.106
15018SOL    HW246952  11.114  14.012  13.208
15019SOL     OW46953   2.592   5.916   1.419
15019SOL    HW146954   2.500   5.895   1.428
15019SOL    HW246955   2.638   5.845   1.465
15020SOL     OW46956   2.257   8.292   4.070
15020SOL    HW146957   2.174   8.331   4.098
15020SOL    HW246958   2.303   8.362   4.025
15021SOL     OW46959   1.991  11.214   8.682
15021SOL    HW146960   2.004  11.269   8.604
15021SOL    HW246961   1.913  11.249   8.724
15022SOL     OW46962   6.822   0.479   9.043
15022SOL    HW146963   6.795   0.387   9.040
15022SOL    HW246964   6.865   0.489   9.128
15023SOL     OW46965   0.092   5.461   9.177
15023SOL    HW146966   0.007   5.468   9.134
15023SOL    HW246967   0.152   5.507   9.119
15024SOL     OW46968   5.101  12.106   1.515
15024SOL    HW146969   5.131  12.016   1.528
15024SOL    HW246970   5.107  12.145   1.602
15025SOL     OW46971   6.318  12.656   6.006
15025SOL    HW146972   6.321  12.749   5.982
15025SOL    HW246973   6.405  12.637   6.039
15026SOL     OW46974  11.589  12.707   0.552
15026SOL    HW146975  11.577  12.795   0.517
15026SOL    HW246976  11.513  12.693   0.608
15027SOL     OW46977   8.044   2.143   3.738
15027SOL    HW146978   8.138   2.126   3.743
15027SOL    HW246979   8.005   2.081   3.800
15028SOL     OW46980   6.172   9.933   3.649
15028SOL    HW146981   6.189   9.904   3.560
15028SOL    HW246982   6.207   9.863   3.704
15029SOL     OW46983   0.203  14.217  11.116
15029SOL    HW146984   0.214  14.288  11.178
15029SOL    HW246985   0.172  14.259  11.036
15030SOL     OW46986   8.288  12.573  13.154
15030SOL    HW146987   8.371  12.608  13.187
15030SOL    HW246988   8.311  12.538  13.067
15031SOL     OW46989   6.590   7.826   4.133
15031SOL    HW146990   6.665   7.865   4.089
15031SOL    HW246991   6.613   7.733   4.140
15032SOL     OW46992  14.395  10.758   8.426
15032SOL    HW146993  14.353  10.726   8.505
15032SOL    HW246994  14.472  10.806   8.457
15033SOL     OW46995  10.532   6.321   3.717
15033SOL    HW146996  10.491   6.380   3.654
15033SOL    HW246997  10.624   6.322   3.694
15034SOL     OW46998   3.168   0.234   7.467
15034SOL    HW146999   3.105   0.176   7.509
15034SOL    HW247000   3.120   0.275   7.396
15035SOL     OW47001   5.999   9.595   9.080
15035SOL    HW147002   5.914   9.634   9.059
15035SOL    HW247003   6.010   9.526   9.013
15036SOL     OW47004   6.390  12.277  10.119
15036SOL    HW147005   6.325  12.323  10.066
15036SOL    HW247006   6.456  12.343  10.139
15037SOL     OW47007  11.265   6.119   3.026
15037SOL    HW147008  11.353   6.115   2.987
15037SOL    HW247009  11.227   6.199   2.991
15038SOL     OW47010   4.375   6.853  14.173
15038SOL    HW147011   4.400   6.850  14.081
15038SOL    HW247012   4.424   6.927  14.209
15039SOL     OW47013   6.592   4.608   7.657
15039SOL    HW147014   6.537   4.531   7.665
15039SOL    HW247015   6.642   4.611   7.739
15040SOL     OW47016   0.226   4.174   8.052
15040SOL    HW147017   0.280   4.112   8.003
15040SOL    HW247018   0.215   4.134   8.138
15041SOL     OW47019   4.398  12.073  11.600
15041SOL    HW147020   4.470  12.114  11.648
15041SOL    HW247021   4.427  11.984  11.583
15042SOL     OW47022   7.900  11.415   2.888
15042SOL    HW147023   7.880  11.459   2.970
15042SOL    HW247024   7.988  11.380   2.900
15043SOL     OW47025  14.625  14.021  11.544
15043SOL    HW147026  14.626  14.054  11.454
15043SOL    HW247027  14.559  14.075  11.587
15044SOL     OW47028   8.620   7.183   6.884
15044SOL    HW147029   8.604   7.128   6.961
15044SOL    HW247030   8.626   7.272   6.918
15045SOL     OW47031   4.622   5.597   8.529
15045SOL    HW147032   4.632   5.582   8.623
15045SOL    HW247033   4.592   5.688   8.523
15046SOL     OW47034   0.089   5.567   7.052
15046SOL    HW147035   0.034   5.499   7.014
15046SOL    HW247036   0.124   5.529   7.133
15047SOL     OW47037   2.447   8.292   3.069
15047SOL    HW147038   2.483   8.309   2.982
15047SOL    HW247039   2.392   8.368   3.088
15048SOL     OW47040   2.848  13.201   1.610
15048SOL    HW147041   2.878  13.229   1.524
15048SOL    HW247042   2.757  13.177   1.598
15049SOL     OW47043  12.040   6.599  12.816
15049SOL    HW147044  12.113   6.654  12.786
15049SOL    HW247045  11.970   6.616  12.753
15050SOL     OW47046   9.931   2.329  12.177
15050SOL    HW147047   9.911   2.249  12.128
15050SOL    HW247048  10.026   2.336  12.173
15051SOL     OW47049   0.823   4.860  13.538
15051SOL    HW147050   0.733   4.869  13.508
15051SOL    HW247051   0.836   4.765  13.546
15052SOL     OW47052   7.795   9.003   2.155
15052SOL    HW147053   7.837   9.088   2.168
15052SOL    HW247054   7.748   9.012   2.072
15053SOL     OW47055   5.962   7.092   8.769
15053SOL    HW147056   6.013   7.172   8.756
15053SOL    HW247057   6.025   7.021   8.753
15054SOL     OW47058  10.705  11.263   2.504
15054SOL    HW147059  10.702  11.267   2.409
15054SOL    HW247060  10.723  11.353   2.532
15055SOL     OW47061   4.792  14.568   6.818
15055SOL    HW147062   4.716  14.602   6.770
15055SOL    HW247063   4.833  14.506   6.757
15056SOL     OW47064  10.176   1.170   9.848
15056SOL    HW147065  10.196   1.164   9.941
15056SOL    HW247066  10.106   1.235   9.842
15057SOL     OW47067  11.657   0.249   8.161
15057SOL    HW147068  11.607   0.212   8.234
15057SOL    HW247069  11.648   0.344   8.172
15058SOL     OW47070   7.193  13.443   1.883
15058SOL    HW147071   7.197  13.368   1.943
15058SOL    HW247072   7.139  13.507   1.929
15059SOL     OW47073   4.767  13.984   0.801
15059SOL    HW147074   4.802  13.956   0.717
15059SOL    HW247075   4.816  14.063   0.824
15060SOL     OW47076   7.356   8.139   5.416
15060SOL    HW147077   7.381   8.204   5.481
15060SOL    HW247078   7.437   8.090   5.398
15061SOL     OW47079  14.459   6.900  10.901
15061SOL    HW147080  14.445   6.912  10.807
15061SOL    HW247081  14.371   6.897  10.938
15062SOL     OW47082   6.474  12.068   9.337
15062SOL    HW147083   6.401  12.126   9.313
15062SOL    HW247084   6.439  12.014   9.407
15063SOL     OW47085  11.606  14.276   1.052
15063SOL    HW147086  11.609  14.309   1.142
15063SOL    HW247087  11.551  14.198   1.057
15064SOL     OW47088  10.643  14.349   1.661
15064SOL    HW147089  10.626  14.376   1.751
15064SOL    HW247090  10.557  14.330   1.625
15065SOL     OW47091   2.880   0.181  11.673
15065SOL    HW147092   2.864   0.220  11.587
15065SOL    HW247093   2.836   0.096  11.669
15066SOL     OW47094  13.257  12.637  13.881
15066SOL    HW147095  13.326  12.620  13.945
15066SOL    HW247096  13.260  12.732  13.868
15067SOL     OW47097  12.539   3.736   4.094
15067SOL    HW147098  12.508   3.741   4.003
15067SOL    HW247099  12.527   3.644   4.118
15068SOL     OW47100   3.661   7.786  13.107
15068SOL    HW147101   3.666   7.798  13.202
15068SOL    HW247102   3.590   7.843  13.079
15069SOL     OW47103  10.578   0.616  14.663
15069SOL    HW147104  10.571   0.691  14.722
15069SOL    HW247105  10.582   0.655  14.576
15070SOL     OW47106  11.722   0.963   4.423
15070SOL    HW147107  11.744   1.049   4.459
15070SOL    HW247108  11.688   0.915   4.498
15071SOL     OW47109   3.063   9.199   1.430
15071SOL    HW147110   3.007   9.259   1.380
15071SOL    HW247111   3.139   9.251   1.454
15072SOL     OW47112   3.800  14.850   3.527
15072SOL    HW147113   3.775  14.820   3.440
15072SOL    HW247114   3.812  14.769   3.577
15073SOL     OW47115   2.515   9.854   4.571
15073SOL    HW147116   2.441   9.842   4.631
15073SOL    HW247117   2.579   9.788   4.597
15074SOL     OW47118  10.295  13.370  14.337
15074SOL    HW147119  10.283  13.398  14.428
15074SOL    HW247120  10.374  13.415  14.308
15075SOL     OW47121   9.743  14.704   0.534
15075SOL    HW147122   9.666  14.704   0.477
15075SOL    HW247123   9.720  14.764   0.605
15076SOL     OW47124   2.515   0.754  13.558
15076SOL    HW147125   2.477   0.666  13.565
15076SOL    HW247126   2.472   0.792  13.482
15077SOL     OW47127   9.931  12.891   2.166
15077SOL    HW147128   9.879  12.965   2.199
15077SOL    HW247129  10.014  12.930   2.138
15078SOL     OW47130   0.806  12.457  12.322
15078SOL    HW147131   0.834  12.546  12.304
15078SOL    HW247132   0.714  12.454  12.294
15079SOL     OW47133   2.561   4.169   6.422
15079SOL    HW147134   2.502   4.199   6.492
15079SOL    HW247135   2.526   4.084   6.397
15080SOL     OW47136   4.404   3.086   6.369
15080SOL    HW147137   4.329   3.034   6.398
15080SOL    HW247138   4.434   3.130   6.449
15081SOL     OW47139   0.140   7.437   7.719
15081SOL    HW147140   0.106   7.402   7.801
15081SOL    HW247141   0.063   7.472   7.674
15082SOL     OW47142   3.666   5.334   8.045
15082SOL    HW147143   3.605   5.353   7.974
15082SOL    HW247144   3.733   5.402   8.038
15083SOL     OW47145  13.288  12.309  10.134
15083SOL    HW147146  13.298  12.219  10.166
15083SOL    HW247147  13.221  12.347  10.191
15084SOL     OW47148   4.202   1.254  11.721
15084SOL    HW147149   4.120   1.302  11.706
15084SOL    HW247150   4.270   1.314  11.692
15085SOL     OW47151  14.031  14.429   6.775
15085SOL    HW147152  14.057  14.350   6.729
15085SOL    HW247153  14.107  14.487   6.769
15086SOL     OW47154  13.820   9.222   9.335
15086SOL    HW147155  13.878   9.246   9.262
15086SOL    HW247156  13.819   9.300   9.391
15087SOL     OW47157  10.413   6.828  10.494
15087SOL    HW147158  10.474   6.766  10.455
15087SOL    HW247159  10.328   6.785  10.487
15088SOL     OW47160   8.676  12.678  13.731
15088SOL    HW147161   8.676  12.588  13.764
15088SOL    HW247162   8.645  12.731  13.804
15089SOL     OW47163   2.779  11.489  13.500
15089SOL    HW147164   2.867  11.525  13.499
15089SOL    HW247165   2.723  11.562  13.528
15090SOL     OW47166   0.396   0.289   3.641
15090SOL    HW147167   0.356   0.247   3.564
15090SOL    HW247168   0.419   0.377   3.612
15091SOL     OW47169   2.364   5.757   1.384
15091SOL    HW147170   2.346   5.696   1.313
15091SOL    HW247171   2.288   5.751   1.441
15092SOL     OW47172  14.439   4.764  12.797
15092SOL    HW147173  14.475   4.760  12.708
15092SOL    HW247174  14.464   4.681  12.836
15093SOL     OW47175   4.599   8.597   1.637
15093SOL    HW147176   4.637   8.664   1.580
15093SOL    HW247177   4.573   8.644   1.716
15094SOL     OW47178   0.039   0.440  13.967
15094SOL    HW147179   0.024   0.513  13.907
15094SOL    HW247180   0.047   0.481  14.053
15095SOL     OW47181  13.364   4.897   5.465
15095SOL    HW147182  13.389   4.824   5.408
15095SOL    HW247183  13.437   4.905   5.527
15096SOL     OW47184  11.531   2.896   7.988
15096SOL    HW147185  11.451   2.946   8.009
15096SOL    HW247186  11.584   2.902   8.067
15097SOL     OW47187  14.863   5.149   1.611
15097SOL    HW147188   0.062   5.181   1.551
15097SOL    HW247189  14.833   5.227   1.658
15098SOL     OW47190   3.091   6.744  14.425
15098SOL    HW147191   3.006   6.783  14.405
15098SOL    HW247192   3.079   6.703  14.511
15099SOL     OW47193   8.392  12.459   5.971
15099SOL    HW147194   8.458  12.390   5.978
15099SOL    HW247195   8.334  12.431   5.901
15100SOL     OW47196   6.152   5.428  12.526
15100SOL    HW147197   6.144   5.333  12.535
15100SOL    HW247198   6.065   5.457  12.499
15101SOL     OW47199   6.064   6.457  11.940
15101SOL    HW147200   5.986   6.422  11.897
15101SOL    HW247201   6.073   6.405  12.019
15102SOL     OW47202   2.187  10.377  13.410
15102SOL    HW147203   2.245  10.323  13.356
15102SOL    HW247204   2.175  10.326  13.490
15103SOL     OW47205  13.192   8.798  10.840
15103SOL    HW147206  13.252   8.763  10.774
15103SOL    HW247207  13.205   8.893  10.836
15104SOL     OW47208   1.041   0.745  10.685
15104SOL    HW147209   1.084   0.667  10.722
15104SOL    HW247210   1.068   0.816  10.743
15105SOL     OW47211   0.676   3.352   4.160
15105SOL    HW147212   0.641   3.371   4.073
15105SOL    HW247213   0.641   3.421   4.216
15106SOL     OW47214   8.877   5.589   7.678
15106SOL    HW147215   8.811   5.525   7.705
15106SOL    HW247216   8.903   5.560   7.591
15107SOL     OW47217  10.579   5.731   2.236
15107SOL    HW147218  10.619   5.798   2.180
15107SOL    HW247219  10.499   5.772   2.268
15108SOL     OW47220   1.287   0.676   6.316
15108SOL    HW147221   1.313   0.592   6.277
15108SOL    HW247222   1.194   0.666   6.336
15109SOL     OW47223   7.704   8.132  14.314
15109SOL    HW147224   7.621   8.085  14.312
15109SOL    HW247225   7.716   8.156  14.406
15110SOL     OW47226   5.226   4.710   1.333
15110SOL    HW147227   5.197   4.788   1.380
15110SOL    HW247228   5.207   4.638   1.393
15111SOL     OW47229   7.416   6.779  11.086
15111SOL    HW147230   7.509   6.786  11.108
15111SOL    HW247231   7.413   6.788  10.991
15112SOL     OW47232  11.110   7.619  13.289
15112SOL    HW147233  11.162   7.684  13.241
15112SOL    HW247234  11.119   7.539  13.238
15113SOL     OW47235   2.493   1.813   4.922
15113SOL    HW147236   2.464   1.836   4.833
15113SOL    HW247237   2.587   1.829   4.921
15114SOL     OW47238  12.059   6.525   4.821
15114SOL    HW147239  12.040   6.596   4.883
15114SOL    HW247240  11.987   6.528   4.758
15115SOL     OW47241   0.912   1.649   6.326
15115SOL    HW147242   0.885   1.632   6.416
15115SOL    HW247243   0.916   1.745   6.321
15116SOL     OW47244   1.198  10.055   4.740
15116SOL    HW147245   1.190   9.987   4.673
15116SOL    HW247246   1.268  10.023   4.798
15117SOL     OW47247  13.561   3.775   1.880
15117SOL    HW147248  13.552   3.810   1.791
15117SOL    HW247249  13.574   3.681   1.868
15118SOL     OW47250  13.142  13.056  10.881
15118SOL    HW147251  13.160  13.018  10.795
15118SOL    HW247252  13.123  12.981  10.937
15119SOL     OW47253   4.253   1.827   0.477
15119SOL    HW147254   4.234   1.893   0.544
15119SOL    HW247255   4.261   1.745   0.526
15120SOL     OW47256   3.918  13.238   3.720
15120SOL    HW147257   4.005  13.208   3.746
15120SOL    HW247258   3.859  13.195   3.782
15121SOL     OW47259  11.633  13.954  10.246
15121SOL    HW147260  11.572  13.924  10.179
15121SOL    HW247261  11.578  13.994  10.313
15122SOL     OW47262  14.040   2.389   5.700
15122SOL    HW147263  14.058   2.421   5.789
15122SOL    HW247264  13.949   2.360   5.703
15123SOL     OW47265   6.889   8.864  10.322
15123SOL    HW147266   6.947   8.790  10.338
15123SOL    HW247267   6.816   8.827  10.272
15124SOL     OW47268   6.425   0.586  14.494
15124SOL    HW147269   6.437   0.513  14.433
15124SOL    HW247270   6.502   0.641  14.480
15125SOL     OW47271   8.456  11.460   5.963
15125SOL    HW147272   8.489  11.376   5.996
15125SOL    HW247273   8.407  11.437   5.884
15126SOL     OW47274   5.437   5.788  14.867
15126SOL    HW147275   5.366   5.847  14.844
15126SOL    HW247276   5.513   5.823  14.822
15127SOL     OW47277  13.934  13.372   7.930
15127SOL    HW147278  13.904  13.387   8.019
15127SOL    HW247279  13.871  13.417   7.875
15128SOL     OW47280  10.872  12.891   5.781
15128SOL    HW147281  10.889  12.962   5.843
15128SOL    HW247282  10.908  12.923   5.698
15129SOL     OW47283   1.700   5.002   8.570
15129SOL    HW147284   1.784   5.026   8.530
15129SOL    HW247285   1.664   4.935   8.512
15130SOL     OW47286   2.299   6.590   2.786
15130SOL    HW147287   2.334   6.538   2.714
15130SOL    HW247288   2.252   6.527   2.840
15131SOL     OW47289   8.972   2.006   2.133
15131SOL    HW147290   8.902   2.068   2.113
15131SOL    HW247291   8.953   1.976   2.222
15132SOL     OW47292  14.847  12.831   8.916
15132SOL    HW147293  14.832  12.841   8.822
15132SOL    HW247294  14.836  12.919   8.952
15133SOL     OW47295  11.548  12.818  12.138
15133SOL    HW147296  11.617  12.866  12.184
15133SOL    HW247297  11.469  12.833  12.189
15134SOL     OW47298   5.411   1.183   5.782
15134SOL    HW147299   5.361   1.175   5.864
15134SOL    HW247300   5.379   1.111   5.728
15135SOL     OW47301  14.623   7.997   8.323
15135SOL    HW147302  14.564   8.069   8.347
15135SOL    HW247303  14.707   8.039   8.308
15136SOL     OW47304   2.663  11.434   3.401
15136SOL    HW147305   2.647  11.349   3.441
15136SOL    HW247306   2.636  11.423   3.310
15137SOL     OW47307   6.773   6.273  13.226
15137SOL    HW147308   6.848   6.332  13.234
15137SOL    HW247309   6.698   6.330  13.210
15138SOL     OW47310   6.428   3.315  11.863
15138SOL    HW147311   6.341   3.276  11.865
15138SOL    HW247312   6.434   3.359  11.779
15139SOL     OW47313   3.214  13.415   2.711
15139SOL    HW147314   3.120  13.432   2.718
15139SOL    HW247315   3.252  13.501   2.691
15140SOL     OW47316   7.131   0.891   9.893
15140SOL    HW147317   7.053   0.886   9.837
15140SOL    HW247318   7.146   0.985   9.905
15141SOL     OW47319  13.077   1.714   1.823
15141SOL    HW147320  13.027   1.686   1.747
15141SOL    HW247321  13.083   1.809   1.814
15142SOL     OW47322   1.764   9.912   4.485
15142SOL    HW147323   1.681   9.929   4.441
15142SOL    HW247324   1.805   9.843   4.433
15143SOL     OW47325   2.223  11.749   1.846
15143SOL    HW147326   2.189  11.751   1.936
15143SOL    HW247327   2.156  11.791   1.793
15144SOL     OW47328  12.410   2.203   5.469
15144SOL    HW147329  12.498   2.214   5.433
15144SOL    HW247330  12.424   2.176   5.560
15145SOL     OW47331  11.293   3.008   7.134
15145SOL    HW147332  11.333   3.090   7.103
15145SOL    HW247333  11.336   2.940   7.083
15146SOL     OW47334   6.247   0.506  11.427
15146SOL    HW147335   6.214   0.459  11.504
15146SOL    HW247336   6.200   0.468  11.353
15147SOL     OW47337   3.022  11.475   3.546
15147SOL    HW147338   3.107  11.489   3.588
15147SOL    HW247339   2.983  11.403   3.595
15148SOL     OW47340  13.497  10.871   3.071
15148SOL    HW147341  13.587  10.879   3.102
15148SOL    HW247342  13.496  10.789   3.021
15149SOL     OW47343  11.179   3.763   0.176
15149SOL    HW147344  11.270   3.742   0.197
15149SOL    HW247345  11.175   3.763   0.081
15150SOL     OW47346  14.636   7.379   5.491
15150SOL    HW147347  14.588   7.340   5.418
15150SOL    HW247348  14.705   7.431   5.449
15151SOL     OW47349  14.266   8.358   9.403
15151SOL    HW147350  14.264   8.452   9.387
15151SOL    HW247351  14.235   8.348   9.493
15152SOL     OW47352  11.301   0.891   9.765
15152SOL    HW147353  11.395   0.897   9.751
15152SOL    HW247354  11.290   0.825   9.833
15153SOL     OW47355   9.514  10.519  12.387
15153SOL    HW147356   9.520  10.592  12.325
15153SOL    HW247357   9.563  10.549  12.464
15154SOL     OW47358   1.239   8.917   3.811
15154SOL    HW147359   1.254   8.827   3.782
15154SOL    HW247360   1.146   8.920   3.835
15155SOL     OW47361   9.453   9.785   4.766
15155SOL    HW147362   9.521   9.823   4.710
15155SOL    HW247363   9.412   9.861   4.808
15156SOL     OW47364  13.017   0.520   1.905
15156SOL    HW147365  12.950   0.510   1.838
15156SOL    HW247366  12.973   0.568   1.976
15157SOL     OW47367   5.304   7.423   9.104
15157SOL    HW147368   5.298   7.355   9.171
15157SOL    HW247369   5.393   7.457   9.112
15158SOL     OW47370   7.687   2.510  11.290
15158SOL    HW147371   7.727   2.490  11.375
15158SOL    HW247372   7.611   2.453  11.285
15159SOL     OW47373   4.928   6.314  12.965
15159SOL    HW147374   4.884   6.384  13.013
15159SOL    HW247375   4.912   6.235  13.018
15160SOL     OW47376   9.015   7.018  11.170
15160SOL    HW147377   9.075   6.946  11.147
15160SOL    HW247378   9.033   7.037  11.262
15161SOL     OW47379   0.606   7.352   4.362
15161SOL    HW147380   0.555   7.387   4.289
15161SOL    HW247381   0.581   7.260   4.367
15162SOL     OW47382  13.779  14.099   7.546
15162SOL    HW147383  13.783  14.136   7.458
15162SOL    HW247384  13.706  14.146   7.588
15163SOL     OW47385  14.205   1.274   5.017
15163SOL    HW147386  14.130   1.216   5.003
15163SOL    HW247387  14.252   1.235   5.092
15164SOL     OW47388   2.714  10.792  10.884
15164SOL    HW147389   2.787  10.773  10.824
15164SOL    HW247390   2.690  10.882  10.864
15165SOL     OW47391   1.240  12.551  13.422
15165SOL    HW147392   1.273  12.639  13.406
15165SOL    HW247393   1.281  12.497  13.355
15166SOL     OW47394   3.090   2.569   2.375
15166SOL    HW147395   3.175   2.601   2.407
15166SOL    HW247396   3.069   2.495   2.433
15167SOL     OW47397  13.513  11.223  10.306
15167SOL    HW147398  13.608  11.223  10.309
15167SOL    HW247399  13.486  11.254  10.392
15168SOL     OW47400   2.971   5.923   7.887
15168SOL    HW147401   3.015   5.983   7.948
15168SOL    HW247402   3.029   5.920   7.811
15169SOL     OW47403  12.330   7.960   3.693
15169SOL    HW147404  12.257   7.963   3.755
15169SOL    HW247405  12.304   7.895   3.628
15170SOL     OW47406   6.729   8.171   4.899
15170SOL    HW147407   6.697   8.081   4.891
15170SOL    HW247408   6.771   8.188   4.814
15171SOL     OW47409   0.745   1.422   6.525
15171SOL    HW147410   0.677   1.484   6.496
15171SOL    HW247411   0.810   1.477   6.569
15172SOL     OW47412   3.167  14.317   4.513
15172SOL    HW147413   3.169  14.413   4.512
15172SOL    HW247414   3.258  14.291   4.522
15173SOL     OW47415   1.880   8.666  14.846
15173SOL    HW147416   1.787   8.658  14.866
15173SOL    HW247417   1.920   8.690   0.061
15174SOL     OW47418   0.825  14.148   1.222
15174SOL    HW147419   0.874  14.148   1.304
15174SOL    HW247420   0.771  14.226   1.226
15175SOL     OW47421   9.576   4.489  11.089
15175SOL    HW147422   9.521   4.554  11.134
15175SOL    HW247423   9.587   4.524  11.001
15176SOL     OW47424   3.208   2.845   8.169
15176SOL    HW147425   3.222   2.868   8.261
15176SOL    HW247426   3.292   2.865   8.127
15177SOL     OW47427   2.364   0.948  12.758
15177SOL    HW147428   2.357   0.881  12.689
15177SOL    HW247429   2.298   1.013  12.735
15178SOL     OW47430   6.300  12.480   0.144
15178SOL    HW147431   6.328  12.568   0.168
15178SOL    HW247432   6.355  12.457   0.069
15179SOL     OW47433   9.038   1.318   8.892
15179SOL    HW147434   9.117   1.274   8.861
15179SOL    HW247435   9.013   1.376   8.820
15180SOL     OW47436  11.693   5.401   4.783
15180SOL    HW147437  11.739   5.397   4.699
15180SOL    HW247438  11.619   5.341   4.774
15181SOL     OW47439   0.045   7.109   1.150
15181SOL    HW147440  14.843   7.124   1.213
15181SOL    HW247441   0.007   7.050   1.085
15182SOL     OW47442   7.214  14.303   1.384
15182SOL    HW147443   7.267  14.365   1.334
15182SOL    HW247444   7.147  14.356   1.426
15183SOL     OW47445   6.782  10.582   3.588
15183SOL    HW147446   6.774  10.654   3.651
15183SOL    HW247447   6.691  10.556   3.571
15184SOL     OW47448   6.088   6.652   3.115
15184SOL    HW147449   6.106   6.569   3.158
15184SOL    HW247450   5.992   6.654   3.106
15185SOL     OW47451   1.606  11.067   7.170
15185SOL    HW147452   1.638  11.089   7.083
15185SOL    HW247453   1.555  10.987   7.157
15186SOL     OW47454   8.715   5.510   1.281
15186SOL    HW147455   8.738   5.551   1.197
15186SOL    HW247456   8.788   5.532   1.339
15187SOL     OW47457   2.960  10.205   4.377
15187SOL    HW147458   3.043  10.218   4.332
15187SOL    HW247459   2.978  10.229   4.468
15188SOL     OW47460  13.525  12.488   0.716
15188SOL    HW147461  13.616  12.493   0.745
15188SOL    HW247462  13.509  12.571   0.672
15189SOL     OW47463   5.031  12.234   0.311
15189SOL    HW147464   5.082  12.253   0.389
15189SOL    HW247465   4.942  12.263   0.333
15190SOL     OW47466  10.045   2.462   5.075
15190SOL    HW147467  10.017   2.408   5.149
15190SOL    HW247468  10.046   2.551   5.110
15191SOL     OW47469   8.334  10.252   4.739
15191SOL    HW147470   8.366  10.259   4.649
15191SOL    HW247471   8.315  10.343   4.764
15192SOL     OW47472   2.260   1.291   4.156
15192SOL    HW147473   2.239   1.309   4.064
15192SOL    HW247474   2.243   1.198   4.167
15193SOL     OW47475   8.906  12.985  11.493
15193SOL    HW147476   8.828  13.014  11.540
15193SOL    HW247477   8.965  12.955  11.562
15194SOL     OW47478   8.356  11.752  10.129
15194SOL    HW147479   8.373  11.824  10.190
15194SOL    HW247480   8.427  11.758  10.065
15195SOL     OW47481   9.059   4.254  10.199
15195SOL    HW147482   8.968   4.284  10.192
15195SOL    HW247483   9.104   4.326  10.244
15196SOL     OW47484   1.769  13.493  13.643
15196SOL    HW147485   1.767  13.577  13.688
15196SOL    HW247486   1.678  13.472  13.625
15197SOL     OW47487   7.577   9.231   3.858
15197SOL    HW147488   7.653   9.269   3.812
15197SOL    HW247489   7.523   9.307   3.881
15198SOL     OW47490   6.329   4.841   6.308
15198SOL    HW147491   6.275   4.871   6.381
15198SOL    HW247492   6.419   4.862   6.335
15199SOL     OW47493  11.127   6.911  13.249
15199SOL    HW147494  11.058   6.849  13.271
15199SOL    HW247495  11.135   6.967  13.327
15200SOL     OW47496   5.051   6.298   1.656
15200SOL    HW147497   5.112   6.229   1.680
15200SOL    HW247498   5.019   6.332   1.740
15201SOL     OW47499  12.753   2.607  10.072
15201SOL    HW147500  12.846   2.613  10.049
15201SOL    HW247501  12.718   2.694  10.053
15202SOL     OW47502   7.401   2.229  11.915
15202SOL    HW147503   7.306   2.230  11.906
15202SOL    HW247504   7.422   2.141  11.946
15203SOL     OW47505   3.291   5.509  11.733
15203SOL    HW147506   3.236   5.431  11.730
15203SOL    HW247507   3.282   5.548  11.646
15204SOL     OW47508  13.355   1.996  10.242
15204SOL    HW147509  13.323   1.988  10.332
15204SOL    HW247510  13.294   2.058  10.201
15205SOL     OW47511   3.793   0.735   7.029
15205SOL    HW147512   3.861   0.709   6.967
15205SOL    HW247513   3.714   0.744   6.976
15206SOL     OW47514   7.181  11.876  10.020
15206SOL    HW147515   7.120  11.831  10.078
15206SOL    HW247516   7.243  11.808   9.994
15207SOL     OW47517   6.510  14.642   8.638
15207SOL    HW147518   6.445  14.573   8.623
15207SOL    HW247519   6.464  14.709   8.688
15208SOL     OW47520  12.913   1.551   6.451
15208SOL    HW147521  12.905   1.647   6.448
15208SOL    HW247522  13.007   1.535   6.460
15209SOL     OW47523   0.048   3.498   3.667
15209SOL    HW147524   0.123   3.522   3.721
15209SOL    HW247525  14.846   3.480   3.730
15210SOL     OW47526  11.441   9.399   7.664
15210SOL    HW147527  11.403   9.418   7.578
15210SOL    HW247528  11.472   9.308   7.657
15211SOL     OW47529   8.852   9.772   1.710
15211SOL    HW147530   8.884   9.724   1.787
15211SOL    HW247531   8.840   9.705   1.643
15212SOL     OW47532   9.474   6.641   4.615
15212SOL    HW147533   9.548   6.667   4.560
15212SOL    HW247534   9.417   6.719   4.617
15213SOL     OW47535   3.301   1.883   0.946
15213SOL    HW147536   3.310   1.942   1.021
15213SOL    HW247537   3.315   1.938   0.869
15214SOL     OW47538   1.719   6.990   9.003
15214SOL    HW147539   1.715   7.039   9.085
15214SOL    HW247540   1.666   7.042   8.942
15215SOL     OW47541   6.330   1.248   4.334
15215SOL    HW147542   6.372   1.329   4.304
15215SOL    HW247543   6.280   1.217   4.258
15216SOL     OW47544   1.055   4.881  11.310
15216SOL    HW147545   1.096   4.885  11.397
15216SOL    HW247546   0.961   4.890  11.327
15217SOL     OW47547  12.481   1.712   6.915
15217SOL    HW147548  12.437   1.639   6.871
15217SOL    HW247549  12.564   1.721   6.869
15218SOL     OW47550   8.616   4.054  14.170
15218SOL    HW147551   8.686   4.120  14.170
15218SOL    HW247552   8.568   4.070  14.089
15219SOL     OW47553  13.219   5.957   0.001
15219SOL    HW147554  13.252   5.935  14.782
15219SOL    HW247555  13.235   5.879   0.054
15220SOL     OW47556   4.872   8.625  13.416
15220SOL    HW147557   4.801   8.582  13.465
15220SOL    HW247558   4.859   8.718  13.432
15221SOL     OW47559  13.212   7.339   5.922
15221SOL    HW147560  13.216   7.251   5.961
15221SOL    HW247561  13.284   7.386   5.963
15222SOL     OW47562   7.314   9.950   2.873
15222SOL    HW147563   7.273  10.033   2.895
15222SOL    HW247564   7.350   9.918   2.957
15223SOL     OW47565   6.040   1.014   6.519
15223SOL    HW147566   5.999   0.981   6.599
15223SOL    HW247567   5.967   1.025   6.458
15224SOL     OW47568   5.930   4.119  13.385
15224SOL    HW147569   5.842   4.094  13.412
15224SOL    HW247570   5.931   4.215  13.393
15225SOL     OW47571   9.643   2.800   8.012
15225SOL    HW147572   9.564   2.797   8.065
15225SOL    HW247573   9.679   2.712   8.017
15226SOL     OW47574   6.484   2.392  11.747
15226SOL    HW147575   6.531   2.353  11.821
15226SOL    HW247576   6.500   2.486  11.756
15227SOL     OW47577   0.845   6.462   7.847
15227SOL    HW147578   0.903   6.408   7.792
15227SOL    HW247579   0.898   6.485   7.923
15228SOL     OW47580  13.387   1.306  10.149
15228SOL    HW147581  13.469   1.352  10.133
15228SOL    HW247582  13.395   1.273  10.239
15229SOL     OW47583  13.235   1.633  14.368
15229SOL    HW147584  13.199   1.624  14.280
15229SOL    HW247585  13.293   1.557  14.378
15230SOL     OW47586   6.670  13.037  14.449
15230SOL    HW147587   6.681  12.943  14.461
15230SOL    HW247588   6.756  13.074  14.468
15231SOL     OW47589   2.173  11.566   2.741
15231SOL    HW147590   2.144  11.650   2.776
15231SOL    HW247591   2.222  11.525   2.813
15232SOL     OW47592  14.398  10.921   7.758
15232SOL    HW147593  14.410  10.870   7.678
15232SOL    HW247594  14.348  10.998   7.730
15233SOL     OW47595  11.216   7.796  10.300
15233SOL    HW147596  11.131   7.752  10.301
15233SOL    HW247597  11.198   7.881  10.259
15234SOL     OW47598   0.960  11.204   3.571
15234SOL    HW147599   1.052  11.188   3.589
15234SOL    HW247600   0.958  11.241   3.483
15235SOL     OW47601   0.365   7.379   0.900
15235SOL    HW147602   0.318   7.325   0.964
15235SOL    HW247603   0.331   7.467   0.913
15236SOL     OW47604  12.517  10.249   0.735
15236SOL    HW147605  12.476  10.314   0.793
15236SOL    HW247606  12.512  10.289   0.648
15237SOL     OW47607   5.770  10.163   0.165
15237SOL    HW147608   5.812  10.087   0.206
15237SOL    HW247609   5.743  10.132   0.079
15238SOL     OW47610  11.550   3.518   8.988
15238SOL    HW147611  11.484   3.583   9.013
15238SOL    HW247612  11.500   3.449   8.945
15239SOL     OW47613   3.204   1.020  12.623
15239SOL    HW147614   3.266   1.071  12.572
15239SOL    HW247615   3.173   0.952  12.563
15240SOL     OW47616   5.601  13.473   4.559
15240SOL    HW147617   5.560  13.558   4.544
15240SOL    HW247618   5.562  13.415   4.493
15241SOL     OW47619   8.265  11.069  11.088
15241SOL    HW147620   8.245  11.003  11.153
15241SOL    HW247621   8.182  11.088  11.046
15242SOL     OW47622  12.242   7.877  14.833
15242SOL    HW147623  12.312   7.872   0.030
15242SOL    HW247624  12.283   7.917  14.756
15243SOL     OW47625  10.676  12.252   7.442
15243SOL    HW147626  10.592  12.254   7.488
15243SOL    HW247627  10.680  12.164   7.404
15244SOL     OW47628  11.858   8.162  10.160
15244SOL    HW147629  11.942   8.151  10.203
15244SOL    HW247630  11.830   8.073  10.138
15245SOL     OW47631  13.868   2.854   6.818
15245SOL    HW147632  13.928   2.860   6.892
15245SOL    HW247633  13.916   2.805   6.752
15246SOL     OW47634  10.249   1.704   4.767
15246SOL    HW147635  10.161   1.734   4.745
15246SOL    HW247636  10.273   1.646   4.694
15247SOL     OW47637   0.993  12.172   2.946
15247SOL    HW147638   0.966  12.264   2.949
15247SOL    HW247639   1.073  12.172   2.893
15248SOL     OW47640   7.687   3.538   2.460
15248SOL    HW147641   7.648   3.523   2.546
15248SOL    HW247642   7.625   3.596   2.416
15249SOL     OW47643   0.929   0.043  14.328
15249SOL    HW147644   0.891   0.036  14.241
15249SOL    HW247645   1.024   0.037  14.313
15250SOL     OW47646  11.803   0.786  14.527
15250SOL    HW147647  11.814   0.702  14.573
15250SOL    HW247648  11.713   0.784  14.494
15251SOL     OW47649   2.448   5.744   2.240
15251SOL    HW147650   2.470   5.758   2.148
15251SOL    HW247651   2.437   5.649   2.248
15252SOL     OW47652  13.150   2.438   5.392
15252SOL    HW147653  13.166   2.498   5.464
15252SOL    HW247654  13.058   2.412   5.402
15253SOL     OW47655  10.279   3.048  14.320
15253SOL    HW147656  10.213   2.990  14.358
15253SOL    HW247657  10.330   3.079  14.394
15254SOL     OW47658   4.157  13.725   9.703
15254SOL    HW147659   4.228  13.773   9.746
15254SOL    HW247660   4.195  13.695   9.620
15255SOL     OW47661   1.382  13.983   4.669
15255SOL    HW147662   1.430  14.013   4.745
15255SOL    HW247663   1.396  13.888   4.667
15256SOL     OW47664   7.257   1.359   5.879
15256SOL    HW147665   7.171   1.345   5.919
15256SOL    HW247666   7.246   1.434   5.822
15257SOL     OW47667  12.159  14.684  11.985
15257SOL    HW147668  12.176  14.625  12.058
15257SOL    HW247669  12.064  14.699  11.987
15258SOL     OW47670  10.168   7.271   0.968
15258SOL    HW147671  10.208   7.321   1.039
15258SOL    HW247672  10.081   7.247   1.001
15259SOL     OW47673   3.534   4.716   4.827
15259SOL    HW147674   3.536   4.800   4.780
15259SOL    HW247675   3.442   4.691   4.827
15260SOL     OW47676   9.563   6.717   2.450
15260SOL    HW147677   9.592   6.738   2.538
15260SOL    HW247678   9.494   6.651   2.463
15261SOL     OW47679  13.171   0.764   7.857
15261SOL    HW147680  13.094   0.714   7.828
15261SOL    HW247681  13.190   0.729   7.944
15262SOL     OW47682   9.079   8.348   0.113
15262SOL    HW147683   9.151   8.304   0.158
15262SOL    HW247684   9.081   8.437   0.147
15263SOL     OW47685   7.430   4.036   3.566
15263SOL    HW147686   7.447   3.943   3.578
15263SOL    HW247687   7.375   4.040   3.488
15264SOL     OW47688   9.547   7.699  12.609
15264SOL    HW147689   9.640   7.696  12.586
15264SOL    HW247690   9.531   7.790  12.635
15265SOL     OW47691   9.285   3.960   6.598
15265SOL    HW147692   9.213   3.956   6.661
15265SOL    HW247693   9.320   4.049   6.607
15266SOL     OW47694  13.885   0.729   9.507
15266SOL    HW147695  13.935   0.701   9.430
15266SOL    HW247696  13.794   0.729   9.477
15267SOL     OW47697  14.031  11.642  14.380
15267SOL    HW147698  13.946  11.622  14.418
15267SOL    HW247699  14.094  11.622  14.450
15268SOL     OW47700   2.985   1.510   4.973
15268SOL    HW147701   2.934   1.439   5.013
15268SOL    HW247702   3.024   1.469   4.895
15269SOL     OW47703   7.411  11.352   1.786
15269SOL    HW147704   7.361  11.341   1.705
15269SOL    HW247705   7.352  11.322   1.855
15270SOL     OW47706   0.106   7.742   4.546
15270SOL    HW147707   0.033   7.804   4.549
15270SOL    HW247708   0.095   7.688   4.624
15271SOL     OW47709   7.288  10.384   6.954
15271SOL    HW147710   7.311  10.459   6.899
15271SOL    HW247711   7.194  10.373   6.943
15272SOL     OW47712   8.806   3.420   4.831
15272SOL    HW147713   8.815   3.354   4.899
15272SOL    HW247714   8.853   3.496   4.866
15273SOL     OW47715   0.470  12.708  12.296
15273SOL    HW147716   0.428  12.673  12.375
15273SOL    HW247717   0.443  12.648  12.226
15274SOL     OW47718   1.505   1.789  14.802
15274SOL    HW147719   1.598   1.777  14.818
15274SOL    HW247720   1.498   1.874  14.758
15275SOL     OW47721   3.300   7.079   6.757
15275SOL    HW147722   3.293   7.052   6.665
15275SOL    HW247723   3.301   7.175   6.754
15276SOL     OW47724   5.243   1.117   0.565
15276SOL    HW147725   5.231   1.100   0.471
15276SOL    HW247726   5.333   1.147   0.573
15277SOL     OW47727  10.296   8.338  12.317
15277SOL    HW147728  10.246   8.257  12.310
15277SOL    HW247729  10.364   8.320  12.381
15278SOL     OW47730  10.060   3.561  10.222
15278SOL    HW147731   9.993   3.591  10.161
15278SOL    HW247732  10.022   3.574  10.309
15279SOL     OW47733  11.513  14.645  14.498
15279SOL    HW147734  11.470  14.675  14.418
15279SOL    HW247735  11.543  14.725  14.540
15280SOL     OW47736  14.250   3.687  12.835
15280SOL    HW147737  14.299   3.611  12.802
15280SOL    HW247738  14.165   3.652  12.859
15281SOL     OW47739   7.749  13.302   3.329
15281SOL    HW147740   7.796  13.284   3.248
15281SOL    HW247741   7.815  13.338   3.388
15282SOL     OW47742   8.710  11.318   9.029
15282SOL    HW147743   8.638  11.304   8.968
15282SOL    HW247744   8.700  11.250   9.095
15283SOL     OW47745   1.710  11.922   0.416
15283SOL    HW147746   1.799  11.932   0.382
15283SOL    HW247747   1.658  11.986   0.366
15284SOL     OW47748   7.297  10.343  11.184
15284SOL    HW147749   7.382  10.327  11.224
15284SOL    HW247750   7.275  10.260  11.142
15285SOL     OW47751  12.393  13.540   0.065
15285SOL    HW147752  12.417  13.630   0.090
15285SOL    HW247753  12.328  13.551  14.863
15286SOL     OW47754   3.287   4.604   7.693
15286SOL    HW147755   3.310   4.516   7.722
15286SOL    HW247756   3.202   4.622   7.734
15287SOL     OW47757  12.211   5.889  10.968
15287SOL    HW147758  12.282   5.834  10.934
15287SOL    HW247759  12.250   5.938  11.040
15288SOL     OW47760  12.844   9.818   5.799
15288SOL    HW147761  12.813   9.727   5.790
15288SOL    HW247762  12.927   9.819   5.752
15289SOL     OW47763   0.193   9.471   0.742
15289SOL    HW147764   0.106   9.472   0.702
15289SOL    HW247765   0.176   9.473   0.836
15290SOL     OW47766   2.290   7.999   4.005
15290SOL    HW147767   2.196   8.016   4.000
15290SOL    HW247768   2.329   8.084   4.028
15291SOL     OW47769   8.635   2.134  10.903
15291SOL    HW147770   8.688   2.201  10.859
15291SOL    HW247771   8.695   2.094  10.966
15292SOL     OW47772  14.127  13.055  13.414
15292SOL    HW147773  14.110  13.029  13.505
15292SOL    HW247774  14.187  12.988  13.381
15293SOL     OW47775   9.025  12.832   4.138
15293SOL    HW147776   8.930  12.829   4.142
15293SOL    HW247777   9.044  12.883   4.059
15294SOL     OW47778  14.274  11.594   6.021
15294SOL    HW147779  14.276  11.499   6.007
15294SOL    HW247780  14.299  11.631   5.936
15295SOL     OW47781   3.834   3.203   0.185
15295SOL    HW147782   3.809   3.112   0.199
15295SOL    HW247783   3.922   3.199   0.147
15296SOL     OW47784   8.044   4.192   1.284
15296SOL    HW147785   8.075   4.282   1.294
15296SOL    HW247786   8.117   4.147   1.241
15297SOL     OW47787   7.398  14.288   3.277
15297SOL    HW147788   7.489  14.313   3.258
15297SOL    HW247789   7.345  14.348   3.224
15298SOL     OW47790  12.764   2.932  11.875
15298SOL    HW147791  12.740   2.865  11.810
15298SOL    HW247792  12.850   2.963  11.847
15299SOL     OW47793   9.843  13.193  12.023
15299SOL    HW147794   9.801  13.274  11.996
15299SOL    HW247795   9.773  13.140  12.060
15300SOL     OW47796   6.311  12.405   1.393
15300SOL    HW147797   6.285  12.485   1.346
15300SOL    HW247798   6.305  12.428   1.485
15301SOL     OW47799   0.790  12.012   9.126
15301SOL    HW147800   0.798  12.101   9.089
15301SOL    HW247801   0.704  12.010   9.166
15302SOL     OW47802   1.412   4.085   5.081
15302SOL    HW147803   1.448   4.002   5.050
15302SOL    HW247804   1.321   4.084   5.053
15303SOL     OW47805  10.032  13.763   6.506
15303SOL    HW147806   9.938  13.780   6.498
15303SOL    HW247807  10.041  13.670   6.486
15304SOL     OW47808  12.868   9.946   2.662
15304SOL    HW147809  12.876   9.888   2.585
15304SOL    HW247810  12.840  10.030   2.626
15305SOL     OW47811   3.776  14.825  10.600
15305SOL    HW147812   3.755  14.797  10.511
15305SOL    HW247813   3.859   0.004  10.591
15306SOL     OW47814   1.599   8.037   3.420
15306SOL    HW147815   1.569   8.101   3.485
15306SOL    HW247816   1.520   7.988   3.396
15307SOL     OW47817   0.451   3.644  12.491
15307SOL    HW147818   0.433   3.551  12.508
15307SOL    HW247819   0.444   3.652  12.396
15308SOL     OW47820  10.327  12.572   3.953
15308SOL    HW147821  10.347  12.559   4.046
15308SOL    HW247822  10.252  12.631   3.952
15309SOL     OW47823   0.254  14.173   8.043
15309SOL    HW147824   0.163  14.152   8.021
15309SOL    HW247825   0.306  14.115   7.987
15310SOL     OW47826   7.410   1.962   6.306
15310SOL    HW147827   7.445   1.894   6.362
15310SOL    HW247828   7.342   2.004   6.358
15311SOL     OW47829  10.156  14.236   9.972
15311SOL    HW147830  10.226  14.299   9.952
15311SOL    HW247831  10.099  14.237   9.896
15312SOL     OW47832   3.809   3.025  13.387
15312SOL    HW147833   3.844   3.112  13.406
15312SOL    HW247834   3.886   2.969  13.378
15313SOL     OW47835   0.147   5.276   6.831
15313SOL    HW147836   0.206   5.324   6.773
15313SOL    HW247837   0.124   5.197   6.781
15314SOL     OW47838   4.282   4.116   9.360
15314SOL    HW147839   4.265   4.029   9.395
15314SOL    HW247840   4.197   4.144   9.325
15315SOL     OW47841  10.072   3.727  11.474
15315SOL    HW147842  10.152   3.714  11.525
15315SOL    HW247843  10.018   3.784  11.529
15316SOL     OW47844  14.696  13.671   4.286
15316SOL    HW147845  14.681  13.698   4.196
15316SOL    HW247846  14.710  13.577   4.282
15317SOL     OW47847   4.049   0.078  14.293
15317SOL    HW147848   4.000   0.052  14.216
15317SOL    HW247849   4.118   0.012  14.301
15318SOL     OW47850   9.952  11.085  13.290
15318SOL    HW147851   9.990  11.093  13.203
15318SOL    HW247852  10.018  11.037  13.341
15319SOL     OW47853   6.366   2.333   2.869
15319SOL    HW147854   6.373   2.382   2.787
15319SOL    HW247855   6.392   2.396   2.936
15320SOL     OW47856   2.854  12.230  11.469
15320SOL    HW147857   2.901  12.271  11.543
15320SOL    HW247858   2.893  12.269  11.391
15321SOL     OW47859   8.512  13.616   8.663
15321SOL    HW147860   8.574  13.555   8.624
15321SOL    HW247861   8.437  13.561   8.688
15322SOL     OW47862   9.572   2.101   6.912
15322SOL    HW147863   9.544   2.044   6.984
15322SOL    HW247864   9.640   2.050   6.867
15323SOL     OW47865   1.919   7.793   1.615
15323SOL    HW147866   1.957   7.708   1.636
15323SOL    HW247867   1.955   7.852   1.682
15324SOL     OW47868   3.043   3.400  12.228
15324SOL    HW147869   3.078   3.482  12.262
15324SOL    HW247870   3.033   3.414  12.134
15325SOL     OW47871  10.430   5.201   5.141
15325SOL    HW147872  10.459   5.128   5.197
15325SOL    HW247873  10.466   5.181   5.055
15326SOL     OW47874   3.250   6.778   5.269
15326SOL    HW147875   3.333   6.794   5.313
15326SOL    HW247876   3.217   6.865   5.247
15327SOL     OW47877  13.159   8.620   8.675
15327SOL    HW147878  13.093   8.681   8.707
15327SOL    HW247879  13.189   8.573   8.753
15328SOL     OW47880   2.328  10.281  10.530
15328SOL    HW147881   2.405  10.252  10.481
15328SOL    HW247882   2.313  10.213  10.595
15329SOL     OW47883  12.458  14.636   3.850
15329SOL    HW147884  12.426  14.636   3.760
15329SOL    HW247885  12.379  14.652   3.903
15330SOL     OW47886   2.556   6.371   9.712
15330SOL    HW147887   2.648   6.349   9.700
15330SOL    HW247888   2.551   6.402   9.803
15331SOL     OW47889   3.127   8.741  11.176
15331SOL    HW147890   3.167   8.819  11.216
15331SOL    HW247891   3.197   8.675  11.177
15332SOL     OW47892  14.783   4.328   1.277
15332SOL    HW147893  14.827   4.301   1.358
15332SOL    HW247894  14.802   4.257   1.216
15333SOL     OW47895  13.591  10.929   2.307
15333SOL    HW147896  13.534  10.909   2.381
15333SOL    HW247897  13.668  10.970   2.346
15334SOL     OW47898  14.326   7.134   7.642
15334SOL    HW147899  14.411   7.179   7.642
15334SOL    HW247900  14.263   7.201   7.670
15335SOL     OW47901   9.428   5.957   0.776
15335SOL    HW147902   9.489   6.000   0.835
15335SOL    HW247903   9.375   6.028   0.739
15336SOL     OW47904   8.904  14.280  14.174
15336SOL    HW147905   8.816  14.289  14.137
15336SOL    HW247906   8.962  14.305  14.103
15337SOL     OW47907   2.058  14.832   6.475
15337SOL    HW147908   1.996  14.765   6.446
15337SOL    HW247909   2.049  14.833   6.571
15338SOL     OW47910  11.400  10.400   9.688
15338SOL    HW147911  11.383  10.490   9.714
15338SOL    HW247912  11.484  10.379   9.730
15339SOL     OW47913   0.702   5.095   4.978
15339SOL    HW147914   0.680   5.188   4.967
15339SOL    HW247915   0.772   5.080   4.914
15340SOL     OW47916   2.302   5.611   7.264
15340SOL    HW147917   2.259   5.552   7.202
15340SOL    HW247918   2.352   5.554   7.322
15341SOL     OW47919   1.274   8.156   1.323
15341SOL    HW147920   1.356   8.118   1.292
15341SOL    HW247921   1.299   8.244   1.352
15342SOL     OW47922   3.539  14.115   4.442
15342SOL    HW147923   3.468  14.076   4.391
15342SOL    HW247924   3.497  14.148   4.521
15343SOL     OW47925  10.219   2.694  10.634
15343SOL    HW147926  10.220   2.763  10.700
15343SOL    HW247927  10.129   2.695  10.601
15344SOL     OW47928  13.767   2.461   3.508
15344SOL    HW147929  13.812   2.388   3.550
15344SOL    HW247930  13.689   2.475   3.561
15345SOL     OW47931   8.950   9.658   7.179
15345SOL    HW147932   8.884   9.726   7.192
15345SOL    HW247933   8.903   9.587   7.135
15346SOL     OW47934  14.822   0.965  13.572
15346SOL    HW147935  14.846   0.873  13.585
15346SOL    HW247936  14.782   0.991  13.655
15347SOL     OW47937  11.654   9.934   0.124
15347SOL    HW147938  11.675   9.923   0.031
15347SOL    HW247939  11.642  10.029   0.135
15348SOL     OW47940   8.747   9.536  12.598
15348SOL    HW147941   8.839   9.530  12.573
15348SOL    HW247942   8.713   9.447  12.590
15349SOL     OW47943   8.811  12.398   1.652
15349SOL    HW147944   8.798  12.492   1.648
15349SOL    HW247945   8.902  12.386   1.676
15350SOL     OW47946   3.452   8.221  14.775
15350SOL    HW147947   3.409   8.221  14.861
15350SOL    HW247948   3.541   8.252  14.792
15351SOL     OW47949  10.455   9.605   0.546
15351SOL    HW147950  10.402   9.567   0.475
15351SOL    HW247951  10.545   9.585   0.521
15352SOL     OW47952   2.325   5.410   8.327
15352SOL    HW147953   2.375   5.371   8.256
15352SOL    HW247954   2.381   5.481   8.359
15353SOL     OW47955   9.476   8.847   3.191
15353SOL    HW147956   9.439   8.879   3.109
15353SOL    HW247957   9.523   8.767   3.168
15354SOL     OW47958  14.340   3.412   6.394
15354SOL    HW147959  14.312   3.438   6.306
15354SOL    HW247960  14.297   3.475   6.452
15355SOL     OW47961   9.825   7.084  14.822
15355SOL    HW147962   9.790   7.122   0.034
15355SOL    HW247963   9.907   7.043  14.849
15356SOL     OW47964   6.015  13.763  13.167
15356SOL    HW147965   6.053  13.754  13.080
15356SOL    HW247966   5.927  13.798  13.152
15357SOL     OW47967   7.740   2.439  13.199
15357SOL    HW147968   7.833   2.459  13.193
15357SOL    HW247969   7.716   2.413  13.111
15358SOL     OW47970   6.586   0.190   1.437
15358SOL    HW147971   6.664   0.241   1.416
15358SOL    HW247972   6.542   0.242   1.505
15359SOL     OW47973   3.938   3.239  13.482
15359SOL    HW147974   3.944   3.217  13.575
15359SOL    HW247975   4.029   3.238  13.452
15360SOL     OW47976   4.734   2.479   1.731
15360SOL    HW147977   4.799   2.416   1.765
15360SOL    HW247978   4.662   2.424   1.700
15361SOL     OW47979   5.766  11.343   7.568
15361SOL    HW147980   5.704  11.307   7.505
15361SOL    HW247981   5.847  11.296   7.551
15362SOL     OW47982  11.137   2.434   5.778
15362SOL    HW147983  11.183   2.365   5.730
15362SOL    HW247984  11.141   2.405   5.869
15363SOL     OW47985  10.452   0.502   2.782
15363SOL    HW147986  10.513   0.483   2.710
15363SOL    HW247987  10.503   0.557   2.842
15364SOL     OW47988   9.010   8.023  14.842
15364SOL    HW147989   9.065   7.982  14.775
15364SOL    HW247990   8.951   8.080  14.793
15365SOL     OW47991   5.219  10.887  13.970
15365SOL    HW147992   5.199  10.795  13.952
15365SOL    HW247993   5.309  10.899  13.938
15366SOL     OW47994  13.312   4.894   1.716
15366SOL    HW147995  13.224   4.900   1.754
15366SOL    HW247996  13.362   4.843   1.780
15367SOL     OW47997   6.046   6.759   6.214
15367SOL    HW147998   5.990   6.726   6.144
15367SOL    HW247999   6.134   6.735   6.187
15368SOL     OW48000   4.005   8.836  11.563
15368SOL    HW148001   4.049   8.872  11.487
15368SOL    HW248002   4.073   8.785  11.608
15369SOL     OW48003   8.905  14.061   4.201
15369SOL    HW148004   8.893  14.066   4.106
15369SOL    HW248005   8.933  14.149   4.226
15370SOL     OW48006  12.315   9.097  11.629
15370SOL    HW148007  12.369   9.047  11.568
15370SOL    HW248008  12.315   9.186  11.592
15371SOL     OW48009   5.135   8.440   0.748
15371SOL    HW148010   5.049   8.431   0.788
15371SOL    HW248011   5.125   8.403   0.661
15372SOL     OW48012   8.365  10.362  13.508
15372SOL    HW148013   8.277  10.400  13.514
15372SOL    HW248014   8.420  10.419  13.562
15373SOL     OW48015  13.056   7.304  14.000
15373SOL    HW148016  13.106   7.227  14.028
15373SOL    HW248017  13.038   7.351  14.082
15374SOL     OW48018   4.971   7.839   1.880
15374SOL    HW148019   5.024   7.777   1.829
15374SOL    HW248020   4.919   7.783   1.937
15375SOL     OW48021   4.606  10.976  14.535
15375SOL    HW148022   4.683  10.988  14.479
15375SOL    HW248023   4.633  10.909  14.599
15376SOL     OW48024   0.830  11.386   7.959
15376SOL    HW148025   0.823  11.292   7.943
15376SOL    HW248026   0.839  11.425   7.872
15377SOL     OW48027   4.014  11.020   6.900
15377SOL    HW148028   3.987  11.083   6.967
15377SOL    HW248029   4.097  11.055   6.867
15378SOL     OW48030   0.229   9.384  12.331
15378SOL    HW148031   0.152   9.344  12.291
15378SOL    HW248032   0.295   9.384  12.261
15379SOL     OW48033   8.100   6.429   6.470
15379SOL    HW148034   8.115   6.407   6.562
15379SOL    HW248035   8.103   6.524   6.468
15380SOL     OW48036   2.245  13.646   1.799
15380SOL    HW148037   2.270  13.561   1.835
15380SOL    HW248038   2.221  13.698   1.876
15381SOL     OW48039   4.027   1.878  11.008
15381SOL    HW148040   3.969   1.836  10.945
15381SOL    HW248041   4.115   1.850  10.982
15382SOL     OW48042   0.906  14.027   5.015
15382SOL    HW148043   0.831  14.015   5.073
15382SOL    HW248044   0.877  14.094   4.952
15383SOL     OW48045   5.649   4.532   7.472
15383SOL    HW148046   5.725   4.563   7.423
15383SOL    HW248047   5.576   4.585   7.440
15384SOL     OW48048   8.376   8.169   4.842
15384SOL    HW148049   8.318   8.136   4.773
15384SOL    HW248050   8.412   8.090   4.882
15385SOL     OW48051   5.097   1.159   9.691
15385SOL    HW148052   5.067   1.128   9.776
15385SOL    HW248053   5.036   1.230   9.669
15386SOL     OW48054   6.270  14.534  11.923
15386SOL    HW148055   6.269  14.614  11.976
15386SOL    HW248056   6.178  14.506  11.922
15387SOL     OW48057   9.559   9.216   9.365
15387SOL    HW148058   9.475   9.259   9.385
15387SOL    HW248059   9.547   9.179   9.278
15388SOL     OW48060  10.178  12.978   7.695
15388SOL    HW148061  10.156  12.885   7.700
15388SOL    HW248062  10.252  12.989   7.755
15389SOL     OW48063   2.920   3.536   9.826
15389SOL    HW148064   2.988   3.595   9.793
15389SOL    HW248065   2.857   3.528   9.754
15390SOL     OW48066  11.527  10.394   2.086
15390SOL    HW148067  11.478  10.329   2.136
15390SOL    HW248068  11.531  10.358   1.997
15391SOL     OW48069   5.425   1.298  13.665
15391SOL    HW148070   5.456   1.373  13.612
15391SOL    HW248071   5.345   1.330  13.707
15392SOL     OW48072   9.678   3.475   7.951
15392SOL    HW148073   9.704   3.498   7.862
15392SOL    HW248074   9.735   3.402   7.974
15393SOL     OW48075  13.321   6.894  12.156
15393SOL    HW148076  13.319   6.815  12.209
15393SOL    HW248077  13.378   6.954  12.203
15394SOL     OW48078   0.682   2.249   9.502
15394SOL    HW148079   0.753   2.299   9.541
15394SOL    HW248080   0.688   2.162   9.543
15395SOL     OW48081  10.682  10.621   1.797
15395SOL    HW148082  10.655  10.687   1.733
15395SOL    HW248083  10.685  10.667   1.880
15396SOL     OW48084  10.566   4.285   2.177
15396SOL    HW148085  10.515   4.358   2.141
15396SOL    HW248086  10.596   4.237   2.100
15397SOL     OW48087   2.679   1.650   3.756
15397SOL    HW148088   2.604   1.698   3.721
15397SOL    HW248089   2.643   1.568   3.789
15398SOL     OW48090   7.275   6.287  13.503
15398SOL    HW148091   7.222   6.244  13.436
15398SOL    HW248092   7.340   6.338  13.453
15399SOL     OW48093   0.593   3.075   5.280
15399SOL    HW148094   0.649   3.050   5.207
15399SOL    HW248095   0.535   2.999   5.293
15400SOL     OW48096   7.303   3.056  11.755
15400SOL    HW148097   7.356   3.013  11.823
15400SOL    HW248098   7.276   2.984  11.697
15401SOL     OW48099  11.889   1.143   2.362
15401SOL    HW148100  11.866   1.050   2.363
15401SOL    HW248101  11.831   1.182   2.297
15402SOL     OW48102  14.728   2.273  13.164
15402SOL    HW148103  14.746   2.209  13.233
15402SOL    HW248104  14.736   2.358  13.207
15403SOL     OW48105   7.137   4.335  11.915
15403SOL    HW148106   7.082   4.353  11.991
15403SOL    HW248107   7.223   4.371  11.938
15404SOL     OW48108   4.398   0.276   7.176
15404SOL    HW148109   4.342   0.352   7.194
15404SOL    HW248110   4.475   0.289   7.231
15405SOL     OW48111  12.843  11.424   3.156
15405SOL    HW148112  12.798  11.345   3.188
15405SOL    HW248113  12.845  11.482   3.232
15406SOL     OW48114   0.506   5.331   4.049
15406SOL    HW148115   0.434   5.290   4.002
15406SOL    HW248116   0.483   5.320   4.142
15407SOL     OW48117   7.730   9.317  12.311
15407SOL    HW148118   7.785   9.295  12.235
15407SOL    HW248119   7.666   9.379  12.276
15408SOL     OW48120   4.866   0.525   3.400
15408SOL    HW148121   4.796   0.461   3.410
15408SOL    HW248122   4.929   0.483   3.341
15409SOL     OW48123   8.521   9.674   0.535
15409SOL    HW148124   8.444   9.711   0.579
15409SOL    HW248125   8.564   9.621   0.602
15410SOL     OW48126  10.995   7.583   3.627
15410SOL    HW148127  11.060   7.514   3.646
15410SOL    HW248128  11.015   7.609   3.537
15411SOL     OW48129  13.335   8.191  13.269
15411SOL    HW148130  13.285   8.186  13.188
15411SOL    HW248131  13.336   8.284  13.292
15412SOL     OW48132  10.846   6.235   2.271
15412SOL    HW148133  10.762   6.231   2.316
15412SOL    HW248134  10.824   6.245   2.179
15413SOL     OW48135   1.521   5.641   8.608
15413SOL    HW148136   1.603   5.687   8.627
15413SOL    HW248137   1.491   5.680   8.526
15414SOL     OW48138   2.502   4.476   2.425
15414SOL    HW148139   2.473   4.447   2.512
15414SOL    HW248140   2.552   4.556   2.443
15415SOL     OW48141  10.326   6.639   8.756
15415SOL    HW148142  10.267   6.707   8.789
15415SOL    HW248143  10.407   6.686   8.734
15416SOL     OW48144   7.415   8.853   4.655
15416SOL    HW148145   7.418   8.845   4.750
15416SOL    HW248146   7.394   8.945   4.639
15417SOL     OW48147  10.281  14.660  12.677
15417SOL    HW148148  10.294  14.752  12.697
15417SOL    HW248149  10.281  14.617  12.763
15418SOL     OW48150  13.179   6.911   5.622
15418SOL    HW148151  13.250   6.861   5.661
15418SOL    HW248152  13.167   6.872   5.535
15419SOL     OW48153  12.233   0.418   4.600
15419SOL    HW148154  12.322   0.427   4.635
15419SOL    HW248155  12.176   0.423   4.677
15420SOL     OW48156  10.564   1.516  13.841
15420SOL    HW148157  10.512   1.436  13.835
15420SOL    HW248158  10.505   1.585  13.809
15421SOL     OW48159   8.254   9.119   2.992
15421SOL    HW148160   8.312   9.140   3.066
15421SOL    HW248161   8.167   9.143   3.022
15422SOL     OW48162  14.842   7.969   5.841
15422SOL    HW148163  14.746   7.973   5.835
15422SOL    HW248164  14.865   8.043   5.897
15423SOL     OW48165   3.535  12.836   7.173
15423SOL    HW148166   3.453  12.838   7.222
15423SOL    HW248167   3.522  12.767   7.108
15424SOL     OW48168   3.728   8.948   1.409
15424SOL    HW148169   3.693   8.912   1.327
15424SOL    HW248170   3.679   8.902   1.478
15425SOL     OW48171   8.089  10.989   4.800
15425SOL    HW148172   8.066  11.054   4.866
15425SOL    HW248173   8.152  10.931   4.843
15426SOL     OW48174   0.039   4.924  11.141
15426SOL    HW148175   0.062   4.897  11.230
15426SOL    HW248176  14.834   4.985  11.153
15427SOL     OW48177   2.114   4.017  10.223
15427SOL    HW148178   2.120   4.082  10.154
15427SOL    HW248179   2.141   3.935  10.182
15428SOL     OW48180   8.300   8.407   6.413
15428SOL    HW148181   8.204   8.405   6.420
15428SOL    HW248182   8.317   8.398   6.319
15429SOL     OW48183  13.487   7.780   5.853
15429SOL    HW148184  13.550   7.793   5.924
15429SOL    HW248185  13.403   7.769   5.898
15430SOL     OW48186   0.045  10.740   4.542
15430SOL    HW148187   0.069  10.829   4.516
15430SOL    HW248188   0.074  10.685   4.470
15431SOL     OW48189   2.272   2.763   9.405
15431SOL    HW148190   2.283   2.704   9.330
15431SOL    HW248191   2.178   2.764   9.421
15432SOL     OW48192   4.378   6.096   8.632
15432SOL    HW148193   4.435   6.020   8.620
15432SOL    HW248194   4.352   6.092   8.724
15433SOL     OW48195   9.927  14.529  11.137
15433SOL    HW148196  10.014  14.507  11.169
15433SOL    HW248197   9.873  14.454  11.161
15434SOL     OW48198   8.681  11.678   3.605
15434SOL    HW148199   8.623  11.652   3.533
15434SOL    HW248200   8.749  11.730   3.562
15435SOL     OW48201   4.939   0.484  11.062
15435SOL    HW148202   4.951   0.463  10.969
15435SOL    HW248203   5.023   0.523  11.088
15436SOL     OW48204   4.123  10.893   1.699
15436SOL    HW148205   4.111  10.854   1.785
15436SOL    HW248206   4.053  10.856   1.645
15437SOL     OW48207  12.096  12.126   2.786
15437SOL    HW148208  12.128  12.216   2.781
15437SOL    HW248209  12.174  12.073   2.803
15438SOL     OW48210  10.508   1.787   3.657
15438SOL    HW148211  10.515   1.874   3.697
15438SOL    HW248212  10.490   1.729   3.731
15439SOL     OW48213   7.906   5.843   8.120
15439SOL    HW148214   7.835   5.894   8.159
15439SOL    HW248215   7.981   5.902   8.121
15440SOL     OW48216  10.966  14.310   8.105
15440SOL    HW148217  11.040  14.276   8.056
15440SOL    HW248218  11.000  14.390   8.146
15441SOL     OW48219   1.138   1.836  10.897
15441SOL    HW148220   1.076   1.883  10.952
15441SOL    HW248221   1.096   1.751  10.880
15442SOL     OW48222   1.163   9.754  13.008
15442SOL    HW148223   1.147   9.705  12.927
15442SOL    HW248224   1.098   9.825  13.006
15443SOL     OW48225   6.924   7.015   5.350
15443SOL    HW148226   6.959   6.944   5.295
15443SOL    HW248227   6.995   7.080   5.353
15444SOL     OW48228   2.470   5.668   3.859
15444SOL    HW148229   2.449   5.702   3.772
15444SOL    HW248230   2.384   5.649   3.898
15445SOL     OW48231  13.479  10.929   9.106
15445SOL    HW148232  13.535  10.859   9.074
15445SOL    HW248233  13.444  10.969   9.026
15446SOL     OW48234   4.975  12.417  11.845
15446SOL    HW148235   4.953  12.507  11.866
15446SOL    HW248236   5.040  12.392  11.911
15447SOL     OW48237  14.715   5.112   4.169
15447SOL    HW148238  14.661   5.189   4.184
15447SOL    HW248239  14.785   5.143   4.111
15448SOL     OW48240  10.864  11.615  14.233
15448SOL    HW148241  10.778  11.644  14.203
15448SOL    HW248242  10.926  11.668  14.184
15449SOL     OW48243  13.038  10.342  10.091
15449SOL    HW148244  13.057  10.436  10.089
15449SOL    HW248245  13.070  10.314  10.177
15450SOL     OW48246   9.827   5.779   5.884
15450SOL    HW148247   9.887   5.834   5.934
15450SOL    HW248248   9.883   5.715   5.841
15451SOL     OW48249   1.057   9.088  12.881
15451SOL    HW148250   1.047   9.118  12.791
15451SOL    HW248251   1.130   9.026  12.878
15452SOL     OW48252   0.625   7.309   8.280
15452SOL    HW148253   0.696   7.248   8.260
15452SOL    HW248254   0.555   7.254   8.314
15453SOL     OW48255  14.421   7.991  14.548
15453SOL    HW148256  14.397   7.899  14.547
15453SOL    HW248257  14.372   8.028  14.621
15454SOL     OW48258   5.733   2.142   3.451
15454SOL    HW148259   5.743   2.058   3.497
15454SOL    HW248260   5.649   2.136   3.407
15455SOL     OW48261  14.652   8.992  11.804
15455SOL    HW148262  14.662   9.071  11.751
15455SOL    HW248263  14.734   8.944  11.791
15456SOL     OW48264   2.777   2.329   2.528
15456SOL    HW148265   2.764   2.355   2.436
15456SOL    HW248266   2.781   2.412   2.576
15457SOL     OW48267   4.259  11.938  12.019
15457SOL    HW148268   4.216  11.941  11.933
15457SOL    HW248269   4.305  12.021  12.026
15458SOL     OW48270   2.972   7.884  12.329
15458SOL    HW148271   3.018   7.917  12.253
15458SOL    HW248272   2.925   7.806  12.298
15459SOL     OW48273  11.355   4.351   6.893
15459SOL    HW148274  11.387   4.427   6.942
15459SOL    HW248275  11.265   4.374   6.870
15460SOL     OW48276   9.956   0.510  13.045
15460SOL    HW148277   9.925   0.425  13.016
15460SOL    HW248278   9.927   0.517  13.136
15461SOL     OW48279   6.024  10.748   5.098
15461SOL    HW148280   5.968  10.748   5.175
15461SOL    HW248281   6.047  10.656   5.085
15462SOL     OW48282   1.546  11.850  14.426
15462SOL    HW148283   1.468  11.895  14.390
15462SOL    HW248284   1.576  11.908  14.496
15463SOL     OW48285  10.084   7.184   8.098
15463SOL    HW148286  10.142   7.257   8.119
15463SOL    HW248287  10.141   7.119   8.057
15464SOL     OW48288   9.156   0.114   3.333
15464SOL    HW148289   9.123   0.188   3.283
15464SOL    HW248290   9.171   0.149   3.421
15465SOL     OW48291   1.935   2.267  13.370
15465SOL    HW148292   1.998   2.295  13.303
15465SOL    HW248293   1.868   2.335  13.371
15466SOL     OW48294  14.844   2.592   6.165
15466SOL    HW148295  14.785   2.640   6.106
15466SOL    HW248296  14.794   2.515   6.191
15467SOL     OW48297   5.101   5.843  12.901
15467SOL    HW148298   5.045   5.858  12.825
15467SOL    HW248299   5.126   5.931  12.930
15468SOL     OW48300   0.763  10.983  12.829
15468SOL    HW148301   0.690  10.973  12.768
15468SOL    HW248302   0.771  10.897  12.871
15469SOL     OW48303   7.552   3.589   0.711
15469SOL    HW148304   7.514   3.676   0.717
15469SOL    HW248305   7.513   3.541   0.784
15470SOL     OW48306   6.257   6.893  14.707
15470SOL    HW148307   6.257   6.873  14.613
15470SOL    HW248308   6.204   6.823  14.746
15471SOL     OW48309   1.423   7.912   5.149
15471SOL    HW148310   1.419   7.960   5.066
15471SOL    HW248311   1.492   7.847   5.136
15472SOL     OW48312  13.248   6.112   8.479
15472SOL    HW148313  13.312   6.164   8.430
15472SOL    HW248314  13.291   6.094   8.563
15473SOL     OW48315   3.221   7.492   2.226
15473SOL    HW148316   3.170   7.482   2.307
15473SOL    HW248317   3.222   7.404   2.188
15474SOL     OW48318   3.183   0.516  14.814
15474SOL    HW148319   3.204   0.460   0.020
15474SOL    HW248320   3.087   0.511  14.806
15475SOL     OW48321   5.687  12.552   1.265
15475SOL    HW148322   5.652  12.464   1.254
15475SOL    HW248323   5.718  12.555   1.355
15476SOL     OW48324   1.050   2.607  11.302
15476SOL    HW148325   0.988   2.648  11.241
15476SOL    HW248326   0.996   2.551  11.358
15477SOL     OW48327   7.729  13.204   1.787
15477SOL    HW148328   7.790  13.190   1.714
15477SOL    HW248329   7.657  13.255   1.749
15478SOL     OW48330  12.554   5.634   0.121
15478SOL    HW148331  12.529   5.726   0.131
15478SOL    HW248332  12.649   5.635   0.117
15479SOL     OW48333  11.972  11.923   3.653
15479SOL    HW148334  12.013  11.840   3.629
15479SOL    HW248335  11.936  11.956   3.570
15480SOL     OW48336  13.097   2.179   8.618
15480SOL    HW148337  13.088   2.264   8.576
15480SOL    HW248338  13.108   2.117   8.545
15481SOL     OW48339  14.593  11.377  13.583
15481SOL    HW148340  14.681  11.352  13.554
15481SOL    HW248341  14.563  11.302  13.634
15482SOL     OW48342   8.170  13.333   1.656
15482SOL    HW148343   8.202  13.388   1.585
15482SOL    HW248344   8.217  13.362   1.733
15483SOL     OW48345   4.313   4.622   4.720
15483SOL    HW148346   4.339   4.712   4.698
15483SOL    HW248347   4.396   4.575   4.732
15484SOL     OW48348   2.479   9.242  14.768
15484SOL    HW148349   2.527   9.278  14.842
15484SOL    HW248350   2.456   9.153  14.795
15485SOL     OW48351   3.747   3.575  14.035
15485SOL    HW148352   3.744   3.621  13.951
15485SOL    HW248353   3.730   3.644  14.100
15486SOL     OW48354   6.766   4.486   2.355
15486SOL    HW148355   6.732   4.572   2.380
15486SOL    HW248356   6.712   4.458   2.282
15487SOL     OW48357   9.281   8.594   4.615
15487SOL    HW148358   9.265   8.544   4.535
15487SOL    HW248359   9.220   8.558   4.679
15488SOL     OW48360  11.401   9.703   8.815
15488SOL    HW148361  11.328   9.645   8.836
15488SOL    HW248362  11.479   9.653   8.840
15489SOL     OW48363   5.181  13.245  13.581
15489SOL    HW148364   5.130  13.222  13.503
15489SOL    HW248365   5.244  13.173  13.590
15490SOL     OW48366   5.416   3.836   8.509
15490SOL    HW148367   5.421   3.911   8.569
15490SOL    HW248368   5.329   3.845   8.469
15491SOL     OW48369   4.654   7.883   9.675
15491SOL    HW148370   4.629   7.882   9.768
15491SOL    HW248371   4.688   7.971   9.660
15492SOL     OW48372   6.253  13.098  13.013
15492SOL    HW148373   6.276  13.191  13.025
15492SOL    HW248374   6.281  13.056  13.095
15493SOL     OW48375  13.445   0.592   5.335
15493SOL    HW148376  13.429   0.596   5.241
15493SOL    HW248377  13.427   0.681   5.367
15494SOL     OW48378   8.307  11.195  14.236
15494SOL    HW148379   8.310  11.108  14.274
15494SOL    HW248380   8.344  11.184  14.148
15495SOL     OW48381   5.398   3.381  13.385
15495SOL    HW148382   5.363   3.333  13.310
15495SOL    HW248383   5.433   3.313  13.443
15496SOL     OW48384   0.356  11.666   2.090
15496SOL    HW148385   0.290  11.615   2.043
15496SOL    HW248386   0.306  11.728   2.143
15497SOL     OW48387   5.995  14.357   1.460
15497SOL    HW148388   6.080  14.327   1.493
15497SOL    HW248389   5.938  14.354   1.537
15498SOL     OW48390   6.608   1.053  12.655
15498SOL    HW148391   6.702   1.039  12.649
15498SOL    HW248392   6.573   0.968  12.682
15499SOL     OW48393  12.801  13.687   7.798
15499SOL    HW148394  12.781  13.600   7.763
15499SOL    HW248395  12.728  13.742   7.768
15500SOL     OW48396   6.679   7.213   5.809
15500SOL    HW148397   6.653   7.270   5.882
15500SOL    HW248398   6.600   7.164   5.787
15501SOL     OW48399   3.280   1.327   8.189
15501SOL    HW148400   3.293   1.241   8.148
15501SOL    HW248401   3.265   1.387   8.116
15502SOL     OW48402  13.702  13.933   3.603
15502SOL    HW148403  13.709  14.009   3.662
15502SOL    HW248404  13.661  13.865   3.657
15503SOL     OW48405   6.268   3.632   5.691
15503SOL    HW148406   6.213   3.678   5.755
15503SOL    HW248407   6.257   3.540   5.712
15504SOL     OW48408   4.615   7.664  11.044
15504SOL    HW148409   4.680   7.683  10.977
15504SOL    HW248410   4.657   7.690  11.126
15505SOL     OW48411   6.390   0.932   2.682
15505SOL    HW148412   6.339   0.862   2.723
15505SOL    HW248413   6.432   0.890   2.606
15506SOL     OW48414   3.805  10.223  14.546
15506SOL    HW148415   3.846  10.147  14.504
15506SOL    HW248416   3.718  10.230  14.505
15507SOL     OW48417  11.690   3.018   2.049
15507SOL    HW148418  11.670   3.099   2.002
15507SOL    HW248419  11.728   3.048   2.132
15508SOL     OW48420   2.822   5.486  11.799
15508SOL    HW148421   2.763   5.412  11.810
15508SOL    HW248422   2.847   5.483  11.707
15509SOL     OW48423   4.509   5.049   9.281
15509SOL    HW148424   4.500   4.983   9.212
15509SOL    HW248425   4.595   5.032   9.320
15510SOL     OW48426   8.096   7.817   3.272
15510SOL    HW148427   8.044   7.876   3.327
15510SOL    HW248428   8.031   7.756   3.236
15511SOL     OW48429  11.349   4.042   0.914
15511SOL    HW148430  11.318   4.109   0.975
15511SOL    HW248431  11.350   3.961   0.965
15512SOL     OW48432   9.705  13.102   4.254
15512SOL    HW148433   9.700  13.180   4.309
15512SOL    HW248434   9.618  13.062   4.262
15513SOL     OW48435  11.212  10.820  12.878
15513SOL    HW148436  11.219  10.759  12.805
15513SOL    HW248437  11.121  10.814  12.907
15514SOL     OW48438  11.145   5.309   0.006
15514SOL    HW148439  11.213   5.335  14.813
15514SOL    HW248440  11.180   5.331   0.093
15515SOL     OW48441   8.831   2.501  12.151
15515SOL    HW148442   8.843   2.485  12.245
15515SOL    HW248443   8.736   2.505  12.140
15516SOL     OW48444  11.731   0.653  11.704
15516SOL    HW148445  11.736   0.748  11.694
15516SOL    HW248446  11.650   0.628  11.660
15517SOL     OW48447   3.686   4.879  13.287
15517SOL    HW148448   3.674   4.800  13.235
15517SOL    HW248449   3.597   4.906  13.310
15518SOL     OW48450   4.711   3.108  11.685
15518SOL    HW148451   4.724   3.164  11.609
15518SOL    HW248452   4.616   3.108  11.698
15519SOL     OW48453   8.549  11.556   9.060
15519SOL    HW148454   8.489  11.542   8.987
15519SOL    HW248455   8.630  11.514   9.033
15520SOL     OW48456   0.059  13.871  12.256
15520SOL    HW148457   0.038  13.919  12.337
15520SOL    HW248458   0.154  13.866  12.255
15521SOL     OW48459  13.766   0.654  14.240
15521SOL    HW148460  13.716   0.658  14.158
15521SOL    HW248461  13.738   0.732  14.288
15522SOL     OW48462   3.796   1.376   3.004
15522SOL    HW148463   3.841   1.334   2.931
15522SOL    HW248464   3.826   1.467   3.002
15523SOL     OW48465   8.008  11.406   5.173
15523SOL    HW148466   7.941  11.417   5.241
15523SOL    HW248467   8.084  11.454   5.206
15524SOL     OW48468   1.687  11.919   4.809
15524SOL    HW148469   1.754  11.909   4.741
15524SOL    HW248470   1.605  11.897   4.765
15525SOL     OW48471   3.291  11.396   4.666
15525SOL    HW148472   3.232  11.358   4.601
15525SOL    HW248473   3.274  11.490   4.661
15526SOL     OW48474  11.077   3.163   4.395
15526SOL    HW148475  11.141   3.156   4.324
15526SOL    HW248476  11.128   3.197   4.469
15527SOL     OW48477   3.876   8.756   3.121
15527SOL    HW148478   3.971   8.750   3.126
15527SOL    HW248479   3.847   8.668   3.097
15528SOL     OW48480  10.724   9.706  10.767
15528SOL    HW148481  10.774   9.683  10.688
15528SOL    HW248482  10.747   9.637  10.830
15529SOL     OW48483  13.614  10.296   3.609
15529SOL    HW148484  13.554  10.288   3.683
15529SOL    HW248485  13.562  10.342   3.542
15530SOL     OW48486  14.668  12.855   3.770
15530SOL    HW148487  14.575  12.869   3.751
15530SOL    HW248488  14.680  12.891   3.858
15531SOL     OW48489  12.699   2.779   5.591
15531SOL    HW148490  12.646   2.775   5.511
15531SOL    HW248491  12.668   2.857   5.637
15532SOL     OW48492   4.709   5.477  11.608
15532SOL    HW148493   4.756   5.394  11.593
15532SOL    HW248494   4.679   5.503  11.521
15533SOL     OW48495  10.274  10.667   5.994
15533SOL    HW148496  10.309  10.688   5.907
15533SOL    HW248497  10.300  10.741   6.049
15534SOL     OW48498  12.870  13.856   8.278
15534SOL    HW148499  12.911  13.845   8.192
15534SOL    HW248500  12.864  13.951   8.290
15535SOL     OW48501  11.036  12.055   0.004
15535SOL    HW148502  10.955  12.016  14.837
15535SOL    HW248503  11.007  12.109   0.077
15536SOL     OW48504  12.960  14.850   4.474
15536SOL    HW148505  13.011  14.779   4.512
15536SOL    HW248506  13.025   0.042   4.437
15537SOL     OW48507   3.309  11.992   2.303
15537SOL    HW148508   3.347  12.024   2.222
15537SOL    HW248509   3.279  12.070   2.348
15538SOL     OW48510   9.103   0.704   6.157
15538SOL    HW148511   9.118   0.699   6.252
15538SOL    HW248512   9.065   0.791   6.143
15539SOL     OW48513   4.342   0.234   2.539
15539SOL    HW148514   4.413   0.289   2.506
15539SOL    HW248515   4.263   0.271   2.501
15540SOL     OW48516   6.753   7.378   7.846
15540SOL    HW148517   6.828   7.319   7.852
15540SOL    HW248518   6.767   7.441   7.917
15541SOL     OW48519   9.248   6.914   7.956
15541SOL    HW148520   9.179   6.980   7.949
15541SOL    HW248521   9.219   6.857   8.026
15542SOL     OW48522   0.937   3.580   4.829
15542SOL    HW148523   0.871   3.511   4.838
15542SOL    HW248524   0.971   3.592   4.918
15543SOL     OW48525   9.333   2.175   7.468
15543SOL    HW148526   9.419   2.154   7.504
15543SOL    HW248527   9.344   2.165   7.373
15544SOL     OW48528   0.804   7.625   4.215
15544SOL    HW148529   0.836   7.536   4.202
15544SOL    HW248530   0.773   7.627   4.306
15545SOL     OW48531   1.153  10.365   5.272
15545SOL    HW148532   1.245  10.353   5.297
15545SOL    HW248533   1.107  10.292   5.313
15546SOL     OW48534   5.331   8.776   4.232
15546SOL    HW148535   5.261   8.719   4.198
15546SOL    HW248536   5.296   8.811   4.313
15547SOL     OW48537  10.573   3.232   6.552
15547SOL    HW148538  10.541   3.248   6.463
15547SOL    HW248539  10.661   3.268   6.553
15548SOL     OW48540   8.870   3.388  13.000
15548SOL    HW148541   8.907   3.324  13.061
15548SOL    HW248542   8.931   3.387  12.925
15549SOL     OW48543   6.448   0.584   2.006
15549SOL    HW148544   6.481   0.617   2.089
15549SOL    HW248545   6.366   0.539   2.028
15550SOL     OW48546   0.297   2.812   7.988
15550SOL    HW148547   0.366   2.774   8.042
15550SOL    HW248548   0.261   2.883   8.042
15551SOL     OW48549   1.248  11.444   9.380
15551SOL    HW148550   1.232  11.404   9.465
15551SOL    HW248551   1.303  11.381   9.334
15552SOL     OW48552   5.649   5.586   0.399
15552SOL    HW148553   5.599   5.557   0.476
15552SOL    HW248554   5.585   5.585   0.328
15553SOL     OW48555   4.017   0.660   8.101
15553SOL    HW148556   4.073   0.586   8.079
15553SOL    HW248557   3.963   0.629   8.173
15554SOL     OW48558  12.757  10.725  14.128
15554SOL    HW148559  12.681  10.764  14.084
15554SOL    HW248560  12.781  10.651  14.073
15555SOL     OW48561   1.036  13.147   0.607
15555SOL    HW148562   1.019  13.075   0.546
15555SOL    HW248563   1.131  13.159   0.604
15556SOL     OW48564   1.612   3.529   2.696
15556SOL    HW148565   1.528   3.538   2.652
15556SOL    HW248566   1.628   3.435   2.699
15557SOL     OW48567  11.782  11.809   5.773
15557SOL    HW148568  11.831  11.848   5.846
15557SOL    HW248569  11.840  11.741   5.738
15558SOL     OW48570   7.251   2.041   7.398
15558SOL    HW148571   7.188   2.092   7.346
15558SOL    HW248572   7.308   2.000   7.333
15559SOL     OW48573  14.466  12.953   7.256
15559SOL    HW148574  14.470  12.861   7.282
15559SOL    HW248575  14.549  12.969   7.211
15560SOL     OW48576   5.912   4.180  11.087
15560SOL    HW148577   5.840   4.243  11.095
15560SOL    HW248578   5.939   4.186  10.995
15561SOL     OW48579  11.346  14.646  11.459
15561SOL    HW148580  11.415  14.601  11.410
15561SOL    HW248581  11.336  14.595  11.539
15562SOL     OW48582   4.898   8.463   8.959
15562SOL    HW148583   4.823   8.462   9.018
15562SOL    HW248584   4.863   8.493   8.876
15563SOL     OW48585  10.838   4.841   3.066
15563SOL    HW148586  10.891   4.805   3.137
15563SOL    HW248587  10.782   4.905   3.109
15564SOL     OW48588   4.278   7.450  11.076
15564SOL    HW148589   4.304   7.452  11.168
15564SOL    HW248590   4.358   7.424  11.029
15565SOL     OW48591   1.310   1.185  10.813
15565SOL    HW148592   1.234   1.242  10.801
15565SOL    HW248593   1.385   1.244  10.812
15566SOL     OW48594  11.200   0.300  14.145
15566SOL    HW148595  11.243   0.284  14.229
15566SOL    HW248596  11.109   0.276  14.160
15567SOL     OW48597   8.943  10.584   2.321
15567SOL    HW148598   8.973  10.530   2.248
15567SOL    HW248599   8.944  10.525   2.396
15568SOL     OW48600   1.036  13.612  11.212
15568SOL    HW148601   1.030  13.585  11.304
15568SOL    HW248602   0.948  13.599  11.178
15569SOL     OW48603   5.495   5.861  13.736
15569SOL    HW148604   5.539   5.786  13.774
15569SOL    HW248605   5.557   5.933  13.745
15570SOL     OW48606   4.650   7.769   1.663
15570SOL    HW148607   4.677   7.851   1.703
15570SOL    HW248608   4.574   7.741   1.715
15571SOL     OW48609   3.282   2.882  12.804
15571SOL    HW148610   3.198   2.913  12.836
15571SOL    HW248611   3.292   2.795  12.843
15572SOL     OW48612  11.852  12.351   6.645
15572SOL    HW148613  11.855  12.256   6.649
15572SOL    HW248614  11.803  12.370   6.565
15573SOL     OW48615  10.962   2.714  12.155
15573SOL    HW148616  10.914   2.778  12.207
15573SOL    HW248617  11.051   2.718  12.188
15574SOL     OW48618   7.288   5.525   3.824
15574SOL    HW148619   7.373   5.557   3.855
15574SOL    HW248620   7.302   5.510   3.730
15575SOL     OW48621  13.738   7.255   8.369
15575SOL    HW148622  13.659   7.253   8.316
15575SOL    HW248623  13.802   7.302   8.315
15576SOL     OW48624  12.976   3.379   8.323
15576SOL    HW148625  13.001   3.458   8.371
15576SOL    HW248626  12.963   3.409   8.233
15577SOL     OW48627   2.200   4.669   9.618
15577SOL    HW148628   2.258   4.671   9.541
15577SOL    HW248629   2.114   4.695   9.583
15578SOL     OW48630   7.567   5.101  11.905
15578SOL    HW148631   7.475   5.095  11.933
15578SOL    HW248632   7.571   5.047  11.826
15579SOL     OW48633   1.477   1.684   5.395
15579SOL    HW148634   1.463   1.765   5.444
15579SOL    HW248635   1.429   1.697   5.313
15580SOL     OW48636  12.452   8.344   5.182
15580SOL    HW148637  12.363   8.336   5.148
15580SOL    HW248638  12.504   8.287   5.125
15581SOL     OW48639   4.512   5.774   6.598
15581SOL    HW148640   4.531   5.864   6.574
15581SOL    HW248641   4.589   5.724   6.569
15582SOL     OW48642  14.582   6.030  12.327
15582SOL    HW148643  14.618   6.046  12.240
15582SOL    HW248644  14.658   6.031  12.385
15583SOL     OW48645  10.533   1.205  14.403
15583SOL    HW148646  10.591   1.253  14.462
15583SOL    HW248647  10.467   1.166  14.460
15584SOL     OW48648   4.271  11.974   0.091
15584SOL    HW148649   4.210  11.986   0.019
15584SOL    HW248650   4.257  11.884   0.120
15585SOL     OW48651   2.625  13.548  12.379
15585SOL    HW148652   2.588  13.538  12.291
15585SOL    HW248653   2.694  13.614  12.368
15586SOL     OW48654   3.281   1.121  12.235
15586SOL    HW148655   3.214   1.159  12.178
15586SOL    HW248656   3.296   1.187  12.303
15587SOL     OW48657   3.023   6.104  10.552
15587SOL    HW148658   3.085   6.053  10.604
15587SOL    HW248659   3.052   6.195  10.561
15588SOL     OW48660   7.615   7.690   4.814
15588SOL    HW148661   7.593   7.745   4.739
15588SOL    HW248662   7.547   7.622   4.814
15589SOL     OW48663   3.501  13.361  12.038
15589SOL    HW148664   3.547  13.308  12.103
15589SOL    HW248665   3.416  13.318  12.027
15590SOL     OW48666   1.835   7.518   2.738
15590SOL    HW148667   1.891   7.540   2.812
15590SOL    HW248668   1.749   7.554   2.761
15591SOL     OW48669   3.211  12.484   9.284
15591SOL    HW148670   3.258  12.538   9.347
15591SOL    HW248671   3.154  12.546   9.238
15592SOL     OW48672  13.476   5.457  10.041
15592SOL    HW148673  13.465   5.457   9.946
15592SOL    HW248674  13.500   5.547  10.062
15593SOL     OW48675   1.587   5.285   8.811
15593SOL    HW148676   1.674   5.321   8.827
15593SOL    HW248677   1.551   5.270   8.898
15594SOL     OW48678  14.348   3.868   2.247
15594SOL    HW148679  14.411   3.905   2.309
15594SOL    HW248680  14.325   3.940   2.189
15595SOL     OW48681   9.800  13.584  10.108
15595SOL    HW148682   9.757  13.533  10.176
15595SOL    HW248683   9.882  13.538  10.091
15596SOL     OW48684  11.309   0.687   0.765
15596SOL    HW148685  11.329   0.597   0.738
15596SOL    HW248686  11.218   0.683   0.796
15597SOL     OW48687   0.482  13.991  14.428
15597SOL    HW148688   0.508  13.973  14.337
15597SOL    HW248689   0.556  13.960  14.480
15598SOL     OW48690   9.739   1.650   6.745
15598SOL    HW148691   9.831   1.649   6.771
15598SOL    HW248692   9.696   1.588   6.804
15599SOL     OW48693   1.030   9.912   1.403
15599SOL    HW148694   1.021   9.947   1.492
15599SOL    HW248695   0.964   9.842   1.399
15600SOL     OW48696  14.302   2.482   7.485
15600SOL    HW148697  14.375   2.535   7.454
15600SOL    HW248698  14.243   2.477   7.410
15601SOL     OW48699   8.462   9.332   0.768
15601SOL    HW148700   8.530   9.364   0.709
15601SOL    HW248701   8.490   9.360   0.855
15602SOL     OW48702   0.488   6.230   5.672
15602SOL    HW148703   0.399   6.264   5.674
15602SOL    HW248704   0.537   6.286   5.733
15603SOL     OW48705   8.861   6.275   4.524
15603SOL    HW148706   8.788   6.298   4.582
15603SOL    HW248707   8.854   6.337   4.452
15604SOL     OW48708   8.938   5.572   2.550
15604SOL    HW148709   8.932   5.666   2.563
15604SOL    HW248710   8.964   5.562   2.458
15605SOL     OW48711   1.083  12.068  11.624
15605SOL    HW148712   1.026  11.990  11.628
15605SOL    HW248713   1.022  12.141  11.634
15606SOL     OW48714   5.994  10.019  12.587
15606SOL    HW148715   6.067  10.043  12.531
15606SOL    HW248716   5.957   9.941  12.545
15607SOL     OW48717  14.542   5.145   2.405
15607SOL    HW148718  14.526   5.114   2.494
15607SOL    HW248719  14.457   5.178   2.375
15608SOL     OW48720  10.504  11.713   1.038
15608SOL    HW148721  10.466  11.792   0.999
15608SOL    HW248722  10.529  11.660   0.963
15609SOL     OW48723  13.298   5.156   7.392
15609SOL    HW148724  13.360   5.084   7.379
15609SOL    HW248725  13.320   5.219   7.323
15610SOL     OW48726   0.280   9.594   4.836
15610SOL    HW148727   0.252   9.502   4.835
15610SOL    HW248728   0.217   9.639   4.780
15611SOL     OW48729   7.808   5.590   6.174
15611SOL    HW148730   7.785   5.643   6.250
15611SOL    HW248731   7.846   5.510   6.210
15612SOL     OW48732  14.376  10.483  13.517
15612SOL    HW148733  14.387  10.498  13.611
15612SOL    HW248734  14.426  10.402  13.500
15613SOL     OW48735   4.810   5.463   4.340
15613SOL    HW148736   4.772   5.537   4.387
15613SOL    HW248737   4.756   5.455   4.261
15614SOL     OW48738   4.081   1.957   6.028
15614SOL    HW148739   3.997   1.991   5.996
15614SOL    HW248740   4.069   1.862   6.027
15615SOL     OW48741   6.732   4.415   4.129
15615SOL    HW148742   6.640   4.401   4.151
15615SOL    HW248743   6.759   4.334   4.085
15616SOL     OW48744   1.850  11.711   6.968
15616SOL    HW148745   1.815  11.754   6.890
15616SOL    HW248746   1.945  11.724   6.961
15617SOL     OW48747  12.293   3.495   5.327
15617SOL    HW148748  12.314   3.418   5.379
15617SOL    HW248749  12.214   3.531   5.368
15618SOL     OW48750   0.867  13.975  13.883
15618SOL    HW148751   0.933  13.934  13.940
15618SOL    HW248752   0.817  13.902  13.848
15619SOL     OW48753  11.900   7.340  10.321
15619SOL    HW148754  11.878   7.284  10.247
15619SOL    HW248755  11.912   7.427  10.282
15620SOL     OW48756  14.316   7.679   2.014
15620SOL    HW148757  14.254   7.620   2.056
15620SOL    HW248758  14.401   7.653   2.048
15621SOL     OW48759  13.933   3.091   2.712
15621SOL    HW148760  13.867   3.131   2.767
15621SOL    HW248761  13.982   3.033   2.770
15622SOL     OW48762  12.286  12.554   3.964
15622SOL    HW148763  12.259  12.532   4.054
15622SOL    HW248764  12.377  12.583   3.973
15623SOL     OW48765  12.211   0.097  10.293
15623SOL    HW148766  12.176   0.153  10.224
15623SOL    HW248767  12.134   0.061  10.337
15624SOL     OW48768   4.650   1.614   7.407
15624SOL    HW148769   4.626   1.588   7.496
15624SOL    HW248770   4.728   1.668   7.418
15625SOL     OW48771   6.609   5.517   8.827
15625SOL    HW148772   6.522   5.557   8.836
15625SOL    HW248773   6.591   5.423   8.821
15626SOL     OW48774   7.827   7.207   9.382
15626SOL    HW148775   7.875   7.129   9.353
15626SOL    HW248776   7.817   7.195   9.477
15627SOL     OW48777  10.002   2.357   4.083
15627SOL    HW148778   9.949   2.281   4.107
15627SOL    HW248779   9.939   2.429   4.077
15628SOL     OW48780  12.080   1.263   7.484
15628SOL    HW148781  12.092   1.307   7.568
15628SOL    HW248782  12.063   1.334   7.422
15629SOL     OW48783   3.456   6.399   2.224
15629SOL    HW148784   3.382   6.340   2.237
15629SOL    HW248785   3.488   6.379   2.136
15630SOL     OW48786   8.803  13.673   0.095
15630SOL    HW148787   8.877  13.634   0.049
15630SOL    HW248788   8.729  13.615   0.078
15631SOL     OW48789   8.007   5.377   7.612
15631SOL    HW148790   8.036   5.288   7.591
15631SOL    HW248791   8.087   5.428   7.617
15632SOL     OW48792   0.109   2.978  11.261
15632SOL    HW148793   0.126   2.884  11.271
15632SOL    HW248794   0.193   3.014  11.232
15633SOL     OW48795  13.974  12.199   3.553
15633SOL    HW148796  14.027  12.124   3.580
15633SOL    HW248797  13.897  12.160   3.511
15634SOL     OW48798   6.381  10.117   3.299
15634SOL    HW148799   6.369  10.152   3.387
15634SOL    HW248800   6.443  10.177   3.258
15635SOL     OW48801  11.606   3.918   8.210
15635SOL    HW148802  11.640   4.003   8.184
15635SOL    HW248803  11.660   3.855   8.162
15636SOL     OW48804   5.424   3.932   6.992
15636SOL    HW148805   5.430   4.023   6.961
15636SOL    HW248806   5.487   3.928   7.065
15637SOL     OW48807   3.876   0.472  13.510
15637SOL    HW148808   3.970   0.472  13.526
15637SOL    HW248809   3.837   0.500  13.593
15638SOL     OW48810   3.025  12.130   1.431
15638SOL    HW148811   3.010  12.211   1.382
15638SOL    HW248812   2.940  12.109   1.470
15639SOL     OW48813  14.714  13.705   3.394
15639SOL    HW148814  14.763  13.692   3.475
15639SOL    HW248815  14.726  13.623   3.345
15640SOL     OW48816   1.220  11.856   2.007
15640SOL    HW148817   1.155  11.817   1.949
15640SOL    HW248818   1.234  11.944   1.970
15641SOL     OW48819   0.761   9.586  11.100
15641SOL    HW148820   0.732   9.674  11.124
15641SOL    HW248821   0.833   9.567  11.160
15642SOL     OW48822   1.252  12.350   4.541
15642SOL    HW148823   1.242  12.369   4.448
15642SOL    HW248824   1.285  12.260   4.544
15643SOL     OW48825  12.210  12.376   2.667
15643SOL    HW148826  12.140  12.370   2.602
15643SOL    HW248827  12.266  12.447   2.637
15644SOL     OW48828   3.304   5.367   5.821
15644SOL    HW148829   3.247   5.428   5.774
15644SOL    HW248830   3.376   5.350   5.761
15645SOL     OW48831   6.368   4.289  10.182
15645SOL    HW148832   6.416   4.260  10.260
15645SOL    HW248833   6.295   4.340  10.216
15646SOL     OW48834   5.774   0.039   3.413
15646SOL    HW148835   5.705  14.843   3.428
15646SOL    HW248836   5.855  14.854   3.411
15647SOL     OW48837   8.709  14.748  11.485
15647SOL    HW148838   8.769  14.679  11.457
15647SOL    HW248839   8.648  14.705  11.544
15648SOL     OW48840   3.306   3.002   2.995
15648SOL    HW148841   3.224   3.026   2.951
15648SOL    HW248842   3.286   2.920   3.041
15649SOL     OW48843  13.815   7.552   8.593
15649SOL    HW148844  13.793   7.529   8.683
15649SOL    HW248845  13.755   7.624   8.571
15650SOL     OW48846  14.864   0.700   1.886
15650SOL    HW148847  14.799   0.764   1.856
15650SOL    HW248848  14.856   0.627   1.824
15651SOL     OW48849   2.516   1.472  13.160
15651SOL    HW148850   2.610   1.489  13.164
15651SOL    HW248851   2.475   1.553  13.190
15652SOL     OW48852  11.768   4.134   8.204
15652SOL    HW148853  11.752   4.175   8.119
15652SOL    HW248854  11.762   4.206   8.267
15653SOL     OW48855   0.679   7.261   2.608
15653SOL    HW148856   0.770   7.240   2.588
15653SOL    HW248857   0.675   7.265   2.704
15654SOL     OW48858  14.865  12.267  11.311
15654SOL    HW148859  14.802  12.326  11.351
15654SOL    HW248860  14.839  12.263  11.219
15655SOL     OW48861   4.902   2.671   5.457
15655SOL    HW148862   4.915   2.761   5.487
15655SOL    HW248863   4.809   2.669   5.431
15656SOL     OW48864   1.788   8.043  11.881
15656SOL    HW148865   1.722   8.085  11.826
15656SOL    HW248866   1.804   7.959  11.840
15657SOL     OW48867   6.315  13.611   9.802
15657SOL    HW148868   6.294  13.590   9.711
15657SOL    HW248869   6.403  13.576   9.815
15658SOL     OW48870   3.646   4.651   9.347
15658SOL    HW148871   3.584   4.578   9.346
15658SOL    HW248872   3.645   4.683   9.437
15659SOL     OW48873   8.767  14.328   2.449
15659SOL    HW148874   8.735  14.360   2.364
15659SOL    HW248875   8.695  14.346   2.509
15660SOL     OW48876   4.214  11.207   3.207
15660SOL    HW148877   4.198  11.246   3.293
15660SOL    HW248878   4.146  11.141   3.197
15661SOL     OW48879   8.326  14.209  10.164
15661SOL    HW148880   8.318  14.145  10.094
15661SOL    HW248881   8.330  14.157  10.244
15662SOL     OW48882  12.921  13.389  11.552
15662SOL    HW148883  12.922  13.329  11.627
15662SOL    HW248884  13.007  13.376  11.511
15663SOL     OW48885   3.546   6.341   5.902
15663SOL    HW148886   3.623   6.334   5.845
15663SOL    HW248887   3.551   6.265   5.959
15664SOL     OW48888   2.270   4.287   8.752
15664SOL    HW148889   2.248   4.375   8.723
15664SOL    HW248890   2.358   4.295   8.789
15665SOL     OW48891   0.373  10.308   0.686
15665SOL    HW148892   0.395  10.295   0.778
15665SOL    HW248893   0.442  10.262   0.638
15666SOL     OW48894  13.301   5.957  11.929
15666SOL    HW148895  13.290   5.901  11.852
15666SOL    HW248896  13.369   6.020  11.904
15667SOL     OW48897  12.555   3.034   7.512
15667SOL    HW148898  12.617   2.990   7.454
15667SOL    HW248899  12.557   2.982   7.592
15668SOL     OW48900  10.238  14.262   4.016
15668SOL    HW148901  10.258  14.318   3.941
15668SOL    HW248902  10.291  14.184   4.003
15669SOL     OW48903   9.767   8.903   2.776
15669SOL    HW148904   9.771   8.839   2.848
15669SOL    HW248905   9.724   8.855   2.705
15670SOL     OW48906   7.889  13.369   6.959
15670SOL    HW148907   7.912  13.461   6.970
15670SOL    HW248908   7.961  13.321   6.999
15671SOL     OW48909   4.361   4.248  12.989
15671SOL    HW148910   4.428   4.263  13.055
15671SOL    HW248911   4.402   4.190  12.925
15672SOL     OW48912   5.157   7.219   8.345
15672SOL    HW148913   5.064   7.199   8.352
15672SOL    HW248914   5.161   7.305   8.305
15673SOL     OW48915   0.606   9.392   5.926
15673SOL    HW148916   0.628   9.312   5.973
15673SOL    HW248917   0.671   9.397   5.856
15674SOL     OW48918  10.909  10.128  11.948
15674SOL    HW148919  10.905  10.222  11.932
15674SOL    HW248920  10.820  10.096  11.932
15675SOL     OW48921  11.130   2.706   7.111
15675SOL    HW148922  11.047   2.753   7.110
15675SOL    HW248923  11.144   2.679   7.020
15676SOL     OW48924   0.083   2.881   2.616
15676SOL    HW148925   0.104   2.811   2.678
15676SOL    HW248926   0.145   2.869   2.544
15677SOL     OW48927   9.958  14.134   6.626
15677SOL    HW148928   9.869  14.106   6.604
15677SOL    HW248929   9.967  14.220   6.584
15678SOL     OW48930   6.863   9.192   4.451
15678SOL    HW148931   6.944   9.140   4.448
15678SOL    HW248932   6.796   9.128   4.475
15679SOL     OW48933   8.325   5.804   0.324
15679SOL    HW148934   8.272   5.800   0.244
15679SOL    HW248935   8.333   5.898   0.342
15680SOL     OW48936   4.199  10.335   7.114
15680SOL    HW148937   4.138  10.333   7.040
15680SOL    HW248938   4.223  10.244   7.128
15681SOL     OW48939   2.249   0.097  10.377
15681SOL    HW148940   2.168   0.140  10.351
15681SOL    HW248941   2.253   0.109  10.472
15682SOL     OW48942   9.347   1.392   2.726
15682SOL    HW148943   9.266   1.394   2.777
15682SOL    HW248944   9.325   1.342   2.648
15683SOL     OW48945   7.634  12.902  11.170
15683SOL    HW148946   7.634  12.944  11.256
15683SOL    HW248947   7.636  12.975  11.108
15684SOL     OW48948   0.100   2.353  11.177
15684SOL    HW148949   0.048   2.355  11.257
15684SOL    HW248950   0.038   2.372  11.107
15685SOL     OW48951  13.530   7.926   4.748
15685SOL    HW148952  13.443   7.893   4.772
15685SOL    HW248953  13.559   7.867   4.678
15686SOL     OW48954   3.152   6.816  12.794
15686SOL    HW148955   3.200   6.881  12.743
15686SOL    HW248956   3.101   6.767  12.730
15687SOL     OW48957   0.457   3.496  13.670
15687SOL    HW148958   0.437   3.404  13.651
15687SOL    HW248959   0.542   3.493  13.713
15688SOL     OW48960   3.178  14.123   9.828
15688SOL    HW148961   3.216  14.144   9.743
15688SOL    HW248962   3.084  14.116   9.812
15689SOL     OW48963   7.352   8.001  12.569
15689SOL    HW148964   7.335   7.926  12.625
15689SOL    HW248965   7.421   8.049  12.615
15690SOL     OW48966   8.293   6.891  14.657
15690SOL    HW148967   8.377   6.845  14.650
15690SOL    HW248968   8.249   6.871  14.575
15691SOL     OW48969  11.903   5.481  13.221
15691SOL    HW148970  11.897   5.572  13.251
15691SOL    HW248971  11.869   5.483  13.132
15692SOL     OW48972  13.273   7.004   1.048
15692SOL    HW148973  13.319   7.086   1.065
15692SOL    HW248974  13.238   7.014   0.959
15693SOL     OW48975   9.248   8.177   6.768
15693SOL    HW148976   9.259   8.218   6.683
15693SOL    HW248977   9.247   8.083   6.750
15694SOL     OW48978  12.605   4.642  11.420
15694SOL    HW148979  12.583   4.736  11.416
15694SOL    HW248980  12.557   4.604  11.346
15695SOL     OW48981  10.497   5.140   5.783
15695SOL    HW148982  10.444   5.092   5.719
15695SOL    HW248983  10.478   5.232   5.765
15696SOL     OW48984   1.797  11.110  10.970
15696SOL    HW148985   1.839  11.115  10.884
15696SOL    HW248986   1.807  11.198  11.006
15697SOL     OW48987   4.208  12.888  12.356
15697SOL    HW148988   4.118  12.878  12.323
15697SOL    HW248989   4.203  12.960  12.418
15698SOL     OW48990   9.769  10.301   3.998
15698SOL    HW148991   9.747  10.238   3.929
15698SOL    HW248992   9.685  10.332   4.031
15699SOL     OW48993   5.365   2.452   1.416
15699SOL    HW148994   5.405   2.518   1.473
15699SOL    HW248995   5.278   2.438   1.453
15700SOL     OW48996   4.179   3.521   4.623
15700SOL    HW148997   4.113   3.570   4.671
15700SOL    HW248998   4.211   3.456   4.685
15701SOL     OW48999   5.277  13.929   5.093
15701SOL    HW149000   5.183  13.924   5.110
15701SOL    HW249001   5.288  14.009   5.041
15702SOL     OW49002   6.992   3.222  13.984
15702SOL    HW149003   7.032   3.273  13.913
15702SOL    HW249004   6.985   3.284  14.057
15703SOL     OW49005   4.615   2.410  14.572
15703SOL    HW149006   4.709   2.426  14.586
15703SOL    HW249007   4.593   2.341  14.634
15704SOL     OW49008   7.273   5.375  11.933
15704SOL    HW149009   7.190   5.375  11.980
15704SOL    HW249010   7.307   5.286  11.943
15705SOL     OW49011   3.946  11.286   2.234
15705SOL    HW149012   4.002  11.309   2.160
15705SOL    HW249013   3.867  11.249   2.194
15706SOL     OW49014   0.805   6.141   5.803
15706SOL    HW149015   0.755   6.210   5.759
15706SOL    HW249016   0.762   6.060   5.778
15707SOL     OW49017   3.255   3.605   3.334
15707SOL    HW149018   3.324   3.538   3.331
15707SOL    HW249019   3.225   3.604   3.425
15708SOL     OW49020   4.247   5.542   9.262
15708SOL    HW149021   4.304   5.495   9.323
15708SOL    HW249022   4.265   5.635   9.278
15709SOL     OW49023   0.265   8.112  11.487
15709SOL    HW149024   0.171   8.130  11.491
15709SOL    HW249025   0.271   8.016  11.488
15710SOL     OW49026   8.419   0.703   3.248
15710SOL    HW149027   8.338   0.653   3.255
15710SOL    HW249028   8.480   0.658   3.308
15711SOL     OW49029  12.268   0.835   7.177
15711SOL    HW149030  12.262   0.810   7.269
15711SOL    HW249031  12.210   0.910   7.168
15712SOL     OW49032   3.973  14.746   6.933
15712SOL    HW149033   3.973  14.807   7.007
15712SOL    HW249034   4.037  14.783   6.872
15713SOL     OW49035   4.272  13.512   0.789
15713SOL    HW149036   4.226  13.431   0.811
15713SOL    HW249037   4.361  13.498   0.820
15714SOL     OW49038   5.036   2.729   1.162
15714SOL    HW149039   5.056   2.810   1.114
15714SOL    HW249040   4.966   2.688   1.111
15715SOL     OW49041  10.926   6.101   7.448
15715SOL    HW149042  10.999   6.119   7.507
15715SOL    HW249043  10.922   6.177   7.390
15716SOL     OW49044  14.551   6.433   8.511
15716SOL    HW149045  14.631   6.387   8.486
15716SOL    HW249046  14.563   6.453   8.604
15717SOL     OW49047   9.921   4.794   8.934
15717SOL    HW149048  10.000   4.834   8.969
15717SOL    HW249049   9.947   4.705   8.909
15718SOL     OW49050   1.958   0.365   5.055
15718SOL    HW149051   2.019   0.416   5.109
15718SOL    HW249052   1.911   0.431   5.004
15719SOL     OW49053   1.761   3.312  11.727
15719SOL    HW149054   1.772   3.322  11.822
15719SOL    HW249055   1.724   3.395  11.698
15720SOL     OW49056   1.179   3.575   9.854
15720SOL    HW149057   1.248   3.547   9.915
15720SOL    HW249058   1.178   3.670   9.862
15721SOL     OW49059   7.847  13.559   0.253
15721SOL    HW149060   7.909  13.631   0.238
15721SOL    HW249061   7.903  13.483   0.270
15722SOL     OW49062   0.609   3.159   1.209
15722SOL    HW149063   0.694   3.200   1.191
15722SOL    HW249064   0.629   3.092   1.274
15723SOL     OW49065   0.735  11.255   2.365
15723SOL    HW149066   0.664  11.203   2.325
15723SOL    HW249067   0.774  11.196   2.430
15724SOL     OW49068  12.595  14.182  11.249
15724SOL    HW149069  12.576  14.113  11.312
15724SOL    HW249070  12.682  14.213  11.273
15725SOL     OW49071   1.873   9.934   8.912
15725SOL    HW149072   1.864   9.996   8.983
15725SOL    HW249073   1.921   9.981   8.844
15726SOL     OW49074   8.105   9.750   6.109
15726SOL    HW149075   8.078   9.670   6.154
15726SOL    HW249076   8.117   9.814   6.180
15727SOL     OW49077   3.773   5.747   6.716
15727SOL    HW149078   3.686   5.786   6.720
15727SOL    HW249079   3.798   5.736   6.808
15728SOL     OW49080   6.296   8.530  14.195
15728SOL    HW149081   6.285   8.446  14.240
15728SOL    HW249082   6.391   8.546  14.198
15729SOL     OW49083  10.647   4.011  12.061
15729SOL    HW149084  10.644   3.930  12.112
15729SOL    HW249085  10.700   3.990  11.985
15730SOL     OW49086  10.633   1.599  14.163
15730SOL    HW149087  10.613   1.572  14.252
15730SOL    HW249088  10.565   1.558  14.110
15731SOL     OW49089   3.441   9.856   5.913
15731SOL    HW149090   3.459   9.772   5.870
15731SOL    HW249091   3.388   9.904   5.849
15732SOL     OW49092   1.116  11.158   4.836
15732SOL    HW149093   1.123  11.123   4.747
15732SOL    HW249094   1.068  11.091   4.884
15733SOL     OW49095   5.109   2.989   7.592
15733SOL    HW149096   5.051   3.065   7.592
15733SOL    HW249097   5.070   2.929   7.656
15734SOL     OW49098  10.445   3.080   2.866
15734SOL    HW149099  10.470   3.170   2.887
15734SOL    HW249100  10.528   3.033   2.862
15735SOL     OW49101   3.567   1.954   1.882
15735SOL    HW149102   3.537   1.874   1.838
15735SOL    HW249103   3.507   1.964   1.956
15736SOL     OW49104  11.998  13.602   9.464
15736SOL    HW149105  12.075  13.615   9.408
15736SOL    HW249106  11.985  13.507   9.465
15737SOL     OW49107   4.694  14.000   5.306
15737SOL    HW149108   4.705  13.987   5.212
15737SOL    HW249109   4.721  14.091   5.321
15738SOL     OW49110   7.603   2.904  14.154
15738SOL    HW149111   7.633   2.871  14.070
15738SOL    HW249112   7.650   2.988  14.164
15739SOL     OW49113   2.188  13.024   3.136
15739SOL    HW149114   2.114  12.980   3.094
15739SOL    HW249115   2.149  13.076   3.206
15740SOL     OW49116   6.206  13.189   8.525
15740SOL    HW149117   6.289  13.234   8.541
15740SOL    HW249118   6.161  13.244   8.462
15741SOL     OW49119  13.200   8.933  12.112
15741SOL    HW149120  13.294   8.940  12.097
15741SOL    HW249121  13.174   9.020  12.142
15742SOL     OW49122  12.894  10.304   2.801
15742SOL    HW149123  12.942  10.365   2.856
15742SOL    HW249124  12.863  10.236   2.861
15743SOL     OW49125   8.650  11.029   7.462
15743SOL    HW149126   8.570  10.996   7.502
15743SOL    HW249127   8.644  11.124   7.470
15744SOL     OW49128   4.412   6.699  10.656
15744SOL    HW149129   4.391   6.791  10.672
15744SOL    HW249130   4.331   6.652  10.677
15745SOL     OW49131   4.028  11.976   6.722
15745SOL    HW149132   3.976  11.931   6.788
15745SOL    HW249133   4.068  11.906   6.671
15746SOL     OW49134   8.181   7.242  12.759
15746SOL    HW149135   8.267   7.240  12.800
15746SOL    HW249136   8.197   7.276  12.671
15747SOL     OW49137   0.555  11.911  11.794
15747SOL    HW149138   0.560  11.870  11.880
15747SOL    HW249139   0.471  11.957  11.794
15748SOL     OW49140  13.675   8.359   4.102
15748SOL    HW149141  13.721   8.438   4.073
15748SOL    HW249142  13.698   8.350   4.195
15749SOL     OW49143   0.448  11.177   2.652
15749SOL    HW149144   0.398  11.256   2.630
15749SOL    HW249145   0.409  11.108   2.597
15750SOL     OW49146   1.622   1.761  14.213
15750SOL    HW149147   1.553   1.820  14.244
15750SOL    HW249148   1.663   1.807  14.140
15751SOL     OW49149  10.881   7.071   2.449
15751SOL    HW149150  10.797   7.053   2.408
15751SOL    HW249151  10.859   7.119   2.529
15752SOL     OW49152   7.201  11.937  14.663
15752SOL    HW149153   7.173  11.894  14.582
15752SOL    HW249154   7.120  11.961  14.708
15753SOL     OW49155   8.582   7.877   6.547
15753SOL    HW149156   8.608   7.799   6.595
15753SOL    HW249157   8.621   7.950   6.597
15754SOL     OW49158   6.577   7.700  11.767
15754SOL    HW149159   6.618   7.775  11.810
15754SOL    HW249160   6.491   7.693  11.807
15755SOL     OW49161   1.480   4.704  14.238
15755SOL    HW149162   1.438   4.704  14.152
15755SOL    HW249163   1.569   4.673  14.222
15756SOL     OW49164  14.235  10.820   7.155
15756SOL    HW149165  14.296  10.812   7.082
15756SOL    HW249166  14.239  10.912   7.180
15757SOL     OW49167   6.186   9.352   9.455
15757SOL    HW149168   6.154   9.359   9.544
15757SOL    HW249169   6.123   9.402   9.403
15758SOL     OW49170   6.459  10.983   7.562
15758SOL    HW149171   6.542  10.950   7.528
15758SOL    HW249172   6.420  10.907   7.607
15759SOL     OW49173   6.096  10.517  12.212
15759SOL    HW149174   6.158  10.524  12.284
15759SOL    HW249175   6.133  10.450  12.154
15760SOL     OW49176   2.631   9.039   3.339
15760SOL    HW149177   2.615   8.969   3.276
15760SOL    HW249178   2.700   9.004   3.396
15761SOL     OW49179   7.847   7.954  10.951
15761SOL    HW149180   7.932   7.989  10.978
15761SOL    HW249181   7.867   7.864  10.922
15762SOL     OW49182  11.285  13.558   1.262
15762SOL    HW149183  11.268  13.653   1.262
15762SOL    HW249184  11.268  13.532   1.171
15763SOL     OW49185   8.170   2.280   2.350
15763SOL    HW149186   8.218   2.321   2.278
15763SOL    HW249187   8.152   2.352   2.411
15764SOL     OW49188  11.020   3.969   0.792
15764SOL    HW149189  10.969   3.944   0.870
15764SOL    HW249190  11.109   3.941   0.813
15765SOL     OW49191   5.115  10.920  12.118
15765SOL    HW149192   5.089  10.877  12.199
15765SOL    HW249193   5.210  10.932  12.126
15766SOL     OW49194   3.516   7.950   3.500
15766SOL    HW149195   3.559   8.036   3.498
15766SOL    HW249196   3.461   7.949   3.421
15767SOL     OW49197   6.914  11.975   5.277
15767SOL    HW149198   6.950  11.954   5.190
15767SOL    HW249199   6.844  11.912   5.289
15768SOL     OW49200   7.328   5.548   6.410
15768SOL    HW149201   7.359   5.464   6.376
15768SOL    HW249202   7.335   5.540   6.505
15769SOL     OW49203   2.920   3.457   8.700
15769SOL    HW149204   2.833   3.416   8.702
15769SOL    HW249205   2.979   3.385   8.677
15770SOL     OW49206  13.787  14.424   6.295
15770SOL    HW149207  13.787  14.507   6.341
15770SOL    HW249208  13.699  14.389   6.307
15771SOL     OW49209  12.017   7.908  10.639
15771SOL    HW149210  12.059   7.909  10.726
15771SOL    HW249211  11.997   7.816  10.624
15772SOL     OW49212  10.031   4.880  12.647
15772SOL    HW149213   9.993   4.883  12.559
15772SOL    HW249214  10.040   4.972  12.672
15773SOL     OW49215  12.239  13.933   4.857
15773SOL    HW149216  12.199  13.918   4.943
15773SOL    HW249217  12.319  13.881   4.858
15774SOL     OW49218  11.117   4.899  12.978
15774SOL    HW149219  11.170   4.948  12.915
15774SOL    HW249220  11.169   4.821  12.997
15775SOL     OW49221   9.093  10.347  14.664
15775SOL    HW149222   9.168  10.366  14.607
15775SOL    HW249223   9.042  10.282  14.617
15776SOL     OW49224  12.002   3.288   1.158
15776SOL    HW149225  11.978   3.195   1.158
15776SOL    HW249226  12.097   3.288   1.171
15777SOL     OW49227   1.230   3.857  11.472
15777SOL    HW149228   1.228   3.762  11.472
15777SOL    HW249229   1.183   3.883  11.392
15778SOL     OW49230   6.502  12.013  12.474
15778SOL    HW149231   6.415  11.975  12.466
15778SOL    HW249232   6.488  12.097  12.519
15779SOL     OW49233  10.327  13.728  12.837
15779SOL    HW149234  10.350  13.818  12.811
15779SOL    HW249235  10.301  13.686  12.755
15780SOL     OW49236   7.276  12.203   3.014
15780SOL    HW149237   7.282  12.175   2.923
15780SOL    HW249238   7.337  12.276   3.021
15781SOL     OW49239   5.978   6.987   0.121
15781SOL    HW149240   5.976   7.001   0.216
15781SOL    HW249241   6.062   6.943   0.106
15782SOL     OW49242   2.367   6.403   4.252
15782SOL    HW149243   2.408   6.373   4.333
15782SOL    HW249244   2.389   6.496   4.247
15783SOL     OW49245   5.378  12.498  13.056
15783SOL    HW149246   5.333  12.418  13.085
15783SOL    HW249247   5.433  12.469  12.982
15784SOL     OW49248  12.837   0.757  13.060
15784SOL    HW149249  12.901   0.706  13.108
15784SOL    HW249250  12.889   0.818  13.008
15785SOL     OW49251  14.408   0.138   6.916
15785SOL    HW149252  14.471   0.187   6.968
15785SOL    HW249253  14.405   0.183   6.832
15786SOL     OW49254  10.044   3.692   7.851
15786SOL    HW149255   9.986   3.735   7.789
15786SOL    HW249256   9.986   3.664   7.922
15787SOL     OW49257   4.690   3.216  13.603
15787SOL    HW149258   4.734   3.133  13.584
15787SOL    HW249259   4.762   3.279  13.611
15788SOL     OW49260  10.850   8.926   2.981
15788SOL    HW149261  10.920   8.940   3.045
15788SOL    HW249262  10.769   8.941   3.030
15789SOL     OW49263   8.897  10.014   7.554
15789SOL    HW149264   8.902   9.945   7.621
15789SOL    HW249265   8.804  10.037   7.551
15790SOL     OW49266   3.590  12.739   8.925
15790SOL    HW149267   3.614  12.826   8.958
15790SOL    HW249268   3.660  12.716   8.864
15791SOL     OW49269   8.667   7.278   4.832
15791SOL    HW149270   8.693   7.255   4.921
15791SOL    HW249271   8.745   7.263   4.779
15792SOL     OW49272   1.482   1.469   5.131
15792SOL    HW149273   1.415   1.404   5.109
15792SOL    HW249274   1.512   1.445   5.218
15793SOL     OW49275  11.978  12.957   2.315
15793SOL    HW149276  12.008  13.041   2.280
15793SOL    HW249277  11.927  12.918   2.245
15794SOL     OW49278   6.822   4.908   0.940
15794SOL    HW149279   6.851   4.993   0.972
15794SOL    HW249280   6.741   4.926   0.893
15795SOL     OW49281   7.929  10.889  10.020
15795SOL    HW149282   7.869  10.938  10.077
15795SOL    HW249283   8.010  10.941  10.021
15796SOL     OW49284  13.584   2.258   9.608
15796SOL    HW149285  13.612   2.340   9.649
15796SOL    HW249286  13.527   2.286   9.536
15797SOL     OW49287  11.240   6.690   6.453
15797SOL    HW149288  11.199   6.735   6.379
15797SOL    HW249289  11.278   6.760   6.506
15798SOL     OW49290   1.580  10.561   7.596
15798SOL    HW149291   1.492  10.542   7.564
15798SOL    HW249292   1.572  10.646   7.640
15799SOL     OW49293   4.927   9.414   0.665
15799SOL    HW149294   4.926   9.383   0.574
15799SOL    HW249295   4.994   9.361   0.708
15800SOL     OW49296   9.364   1.761   2.203
15800SOL    HW149297   9.459   1.772   2.208
15800SOL    HW249298   9.333   1.782   2.291
15801SOL     OW49299   6.496   6.751   5.652
15801SOL    HW149300   6.403   6.771   5.653
15801SOL    HW249301   6.538   6.833   5.625
15802SOL     OW49302   2.222  13.914   8.700
15802SOL    HW149303   2.272  13.996   8.690
15802SOL    HW249304   2.272  13.864   8.764
15803SOL     OW49305   3.775   6.064   0.360
15803SOL    HW149306   3.823   5.995   0.315
15803SOL    HW249307   3.844   6.122   0.395
15804SOL     OW49308  12.074   5.174  11.722
15804SOL    HW149309  12.061   5.121  11.800
15804SOL    HW249310  11.995   5.160  11.670
15805SOL     OW49311   9.385   3.027   2.542
15805SOL    HW149312   9.383   3.015   2.637
15805SOL    HW249313   9.336   2.953   2.507
15806SOL     OW49314   7.630   7.808   8.827
15806SOL    HW149315   7.592   7.875   8.770
15806SOL    HW249316   7.724   7.813   8.811
15807SOL     OW49317   2.852  10.180  14.629
15807SOL    HW149318   2.855  10.264  14.582
15807SOL    HW249319   2.778  10.189  14.688
15808SOL     OW49320   1.365   8.143   8.393
15808SOL    HW149321   1.309   8.176   8.463
15808SOL    HW249322   1.454   8.167   8.420
15809SOL     OW49323  11.540  11.580  10.315
15809SOL    HW149324  11.488  11.540  10.384
15809SOL    HW249325  11.553  11.509  10.251
15810SOL     OW49326   1.611   9.566  12.015
15810SOL    HW149327   1.666   9.645  12.018
15810SOL    HW249328   1.522   9.600  12.012
15811SOL     OW49329   1.059   0.415   2.665
15811SOL    HW149330   1.146   0.393   2.698
15811SOL    HW249331   0.999   0.372   2.725
15812SOL     OW49332  12.982   6.054   2.152
15812SOL    HW149333  13.006   5.976   2.203
15812SOL    HW249334  12.988   6.126   2.215
15813SOL     OW49335   2.306   0.481   0.652
15813SOL    HW149336   2.393   0.473   0.613
15813SOL    HW249337   2.246   0.472   0.578
15814SOL     OW49338  11.806   3.622   9.041
15814SOL    HW149339  11.808   3.608   9.135
15814SOL    HW249340  11.724   3.583   9.012
15815SOL     OW49341  13.382  13.219   2.932
15815SOL    HW149342  13.368  13.282   2.861
15815SOL    HW249343  13.446  13.157   2.897
15816SOL     OW49344  13.611   2.950   4.475
15816SOL    HW149345  13.655   3.009   4.414
15816SOL    HW249346  13.535   2.918   4.427
15817SOL     OW49347  11.579   1.838   8.435
15817SOL    HW149348  11.485   1.854   8.442
15817SOL    HW249349  11.592   1.752   8.475
15818SOL     OW49350  12.900   4.251  11.858
15818SOL    HW149351  12.920   4.239  11.766
15818SOL    HW249352  12.887   4.345  11.868
15819SOL     OW49353   1.368   1.216   5.957
15819SOL    HW149354   1.456   1.240   5.986
15819SOL    HW249355   1.364   1.246   5.866
15820SOL     OW49356  12.983   0.368   9.848
15820SOL    HW149357  13.011   0.285   9.885
15820SOL    HW249358  12.999   0.360   9.754
15821SOL     OW49359   8.808   3.848   4.310
15821SOL    HW149360   8.829   3.754   4.313
15821SOL    HW249361   8.802   3.874   4.401
15822SOL     OW49362   3.009   3.829   7.425
15822SOL    HW149363   3.098   3.834   7.391
15822SOL    HW249364   3.002   3.741   7.462
15823SOL     OW49365  14.392  11.711  13.350
15823SOL    HW149366  14.440  11.629  13.335
15823SOL    HW249367  14.336  11.693  13.426
15824SOL     OW49368   2.324   1.379  14.832
15824SOL    HW149369   2.418   1.380  14.848
15824SOL    HW249370   2.292   1.307   0.019
15825SOL     OW49371   9.218   3.883   6.343
15825SOL    HW149372   9.238   3.899   6.436
15825SOL    HW249373   9.198   3.790   6.339
15826SOL     OW49374   5.435  11.686   2.081
15826SOL    HW149375   5.437  11.600   2.039
15826SOL    HW249376   5.495  11.740   2.028
15827SOL     OW49377   4.138  14.669   1.070
15827SOL    HW149378   4.111  14.752   1.109
15827SOL    HW249379   4.169  14.693   0.982
15828SOL     OW49380  12.274  10.889  10.923
15828SOL    HW149381  12.361  10.873  10.886
15828SOL    HW249382  12.288  10.956  10.989
15829SOL     OW49383   9.263   7.456   9.596
15829SOL    HW149384   9.310   7.396   9.654
15829SOL    HW249385   9.251   7.407   9.515
15830SOL     OW49386   4.495   6.966   4.481
15830SOL    HW149387   4.568   6.941   4.538
15830SOL    HW249388   4.499   7.062   4.478
15831SOL     OW49389   4.593  14.111   7.746
15831SOL    HW149390   4.506  14.148   7.740
15831SOL    HW249391   4.648  14.182   7.779
15832SOL     OW49392  11.713   6.858   5.742
15832SOL    HW149393  11.657   6.929   5.773
15832SOL    HW249394  11.667   6.778   5.765
15833SOL     OW49395   8.376   1.216   8.088
15833SOL    HW149396   8.406   1.300   8.124
15833SOL    HW249397   8.451   1.183   8.038
15834SOL     OW49398   5.768   1.114   1.843
15834SOL    HW149399   5.848   1.165   1.835
15834SOL    HW249400   5.739   1.100   1.753
15835SOL     OW49401   2.225   7.693   6.467
15835SOL    HW149402   2.286   7.688   6.394
15835SOL    HW249403   2.269   7.749   6.531
15836SOL     OW49404  10.715   0.672   4.527
15836SOL    HW149405  10.643   0.628   4.573
15836SOL    HW249406  10.762   0.720   4.595
15837SOL     OW49407   8.599   1.436  14.094
15837SOL    HW149408   8.543   1.377  14.042
15837SOL    HW249409   8.558   1.437  14.181
15838SOL     OW49410   6.754  13.539   8.088
15838SOL    HW149411   6.744  13.625   8.047
15838SOL    HW249412   6.833  13.547   8.142
15839SOL     OW49413  12.710  13.558   9.768
15839SOL    HW149414  12.663  13.537   9.687
15839SOL    HW249415  12.693  13.651   9.782
15840SOL     OW49416   3.407   3.778   5.693
15840SOL    HW149417   3.433   3.831   5.768
15840SOL    HW249418   3.463   3.701   5.697
15841SOL     OW49419   2.980   7.594   8.336
15841SOL    HW149420   3.009   7.684   8.348
15841SOL    HW249421   3.037   7.558   8.269
15842SOL     OW49422   3.413  13.540   7.312
15842SOL    HW149423   3.361  13.484   7.370
15842SOL    HW249424   3.473  13.479   7.268
15843SOL     OW49425  10.933  12.426   5.419
15843SOL    HW149426  10.918  12.497   5.357
15843SOL    HW249427  10.934  12.468   5.505
15844SOL     OW49428   6.987   3.883   5.136
15844SOL    HW149429   6.997   3.939   5.059
15844SOL    HW249430   7.022   3.798   5.108
15845SOL     OW49431  11.649  13.116  11.874
15845SOL    HW149432  11.646  13.123  11.969
15845SOL    HW249433  11.559  13.091  11.849
15846SOL     OW49434   5.614   8.848   6.166
15846SOL    HW149435   5.607   8.765   6.119
15846SOL    HW249436   5.708   8.860   6.180
15847SOL     OW49437   0.109   1.493   7.128
15847SOL    HW149438   0.013   1.488   7.124
15847SOL    HW249439   0.130   1.475   7.219
15848SOL     OW49440  13.320   1.868  13.978
15848SOL    HW149441  13.404   1.882  14.023
15848SOL    HW249442  13.289   1.957  13.958
15849SOL     OW49443  11.473   5.269  14.098
15849SOL    HW149444  11.446   5.256  14.007
15849SOL    HW249445  11.568   5.281  14.092
15850SOL     OW49446   7.732  10.321   3.508
15850SOL    HW149447   7.774  10.238   3.485
15850SOL    HW249448   7.780  10.387   3.458
15851SOL     OW49449   3.158   7.983   6.233
15851SOL    HW149450   3.204   8.064   6.253
15851SOL    HW249451   3.216   7.914   6.267
15852SOL     OW49452   8.736   6.226   6.178
15852SOL    HW149453   8.719   6.320   6.184
15852SOL    HW249454   8.816   6.218   6.127
15853SOL     OW49455   6.879   9.320  11.680
15853SOL    HW149456   6.973   9.333  11.686
15853SOL    HW249457   6.842   9.385  11.741
15854SOL     OW49458   7.273  11.229  11.286
15854SOL    HW149459   7.352  11.224  11.231
15854SOL    HW249460   7.267  11.143  11.328
15855SOL     OW49461   9.137   0.564  10.822
15855SOL    HW149462   9.228   0.542  10.804
15855SOL    HW249463   9.111   0.619  10.748
15856SOL     OW49464   2.630   9.658   7.959
15856SOL    HW149465   2.666   9.685   7.874
15856SOL    HW249466   2.703   9.671   8.021
15857SOL     OW49467   7.399   6.597   7.980
15857SOL    HW149468   7.370   6.604   8.071
15857SOL    HW249469   7.317   6.599   7.929
15858SOL     OW49470   2.443   6.480   7.002
15858SOL    HW149471   2.438   6.549   7.068
15858SOL    HW249472   2.441   6.398   7.052
15859SOL     OW49473   3.616   4.529  11.399
15859SOL    HW149474   3.637   4.517  11.306
15859SOL    HW249475   3.680   4.593  11.429
15860SOL     OW49476   8.434   7.918   6.867
15860SOL    HW149477   8.345   7.899   6.837
15860SOL    HW249478   8.482   7.836   6.856
15861SOL     OW49479   0.271   3.962   1.161
15861SOL    HW149480   0.309   3.990   1.078
15861SOL    HW249481   0.343   3.967   1.223
15862SOL     OW49482   0.560   3.810   6.306
15862SOL    HW149483   0.630   3.848   6.253
15862SOL    HW249484   0.565   3.856   6.389
15863SOL     OW49485   1.851  11.401   2.630
15863SOL    HW149486   1.919  11.342   2.596
15863SOL    HW249487   1.811  11.352   2.702
15864SOL     OW49488   8.150   2.561   9.848
15864SOL    HW149489   8.142   2.481   9.901
15864SOL    HW249490   8.062   2.599   9.850
15865SOL     OW49491   1.401  12.991   0.588
15865SOL    HW149492   1.355  12.981   0.505
15865SOL    HW249493   1.379  13.079   0.618
15866SOL     OW49494  13.191   7.202   8.304
15866SOL    HW149495  13.209   7.187   8.397
15866SOL    HW249496  13.238   7.131   8.259
15867SOL     OW49497   9.719   6.769  11.406
15867SOL    HW149498   9.715   6.674  11.419
15867SOL    HW249499   9.804   6.794  11.441
15868SOL     OW49500   8.131  10.114  10.687
15868SOL    HW149501   8.079  10.174  10.740
15868SOL    HW249502   8.068  10.048  10.657
15869SOL     OW49503  12.691  13.698   4.996
15869SOL    HW149504  12.713  13.606   4.982
15869SOL    HW249505  12.654  13.700   5.084
15870SOL     OW49506  12.422   1.661   4.421
15870SOL    HW149507  12.486   1.715   4.466
15870SOL    HW249508  12.344   1.717   4.414
15871SOL     OW49509   6.432   9.606   4.227
15871SOL    HW149510   6.424   9.525   4.177
15871SOL    HW249511   6.520   9.637   4.208
15872SOL     OW49512  14.681   5.395   7.212
15872SOL    HW149513  14.622   5.466   7.190
15872SOL    HW249514  14.717   5.367   7.128
15873SOL     OW49515  10.681   7.410   8.638
15873SOL    HW149516  10.653   7.464   8.712
15873SOL    HW249517  10.600   7.377   8.600
15874SOL     OW49518  14.064   3.966   8.448
15874SOL    HW149519  14.074   3.910   8.525
15874SOL    HW249520  13.997   4.029   8.472
15875SOL     OW49521  13.105   8.963   9.084
15875SOL    HW149522  13.088   9.052   9.053
15875SOL    HW249523  13.093   8.968   9.179
15876SOL     OW49524  10.009  12.888   2.850
15876SOL    HW149525   9.920  12.856   2.862
15876SOL    HW249526  10.037  12.912   2.939
15877SOL     OW49527   9.611   8.590  12.694
15877SOL    HW149528   9.671   8.539  12.640
15877SOL    HW249529   9.605   8.675  12.650
15878SOL     OW49530  13.786   0.803   6.743
15878SOL    HW149531  13.747   0.745   6.678
15878SOL    HW249532  13.853   0.750   6.787
15879SOL     OW49533   3.565   9.331   5.234
15879SOL    HW149534   3.558   9.333   5.139
15879SOL    HW249535   3.649   9.289   5.252
15880SOL     OW49536   2.601   9.495   3.995
15880SOL    HW149537   2.615   9.493   4.090
15880SOL    HW249538   2.683   9.530   3.960
15881SOL     OW49539   4.548  13.710   7.176
15881SOL    HW149540   4.482  13.646   7.149
15881SOL    HW249541   4.498  13.789   7.196
15882SOL     OW49542   7.133   4.337   1.991
15882SOL    HW149543   7.091   4.389   2.059
15882SOL    HW249544   7.091   4.251   1.996
15883SOL     OW49545   4.925   5.805  14.174
15883SOL    HW149546   4.896   5.715  14.183
15883SOL    HW249547   4.912   5.825  14.081
15884SOL     OW49548   9.587  14.298   5.718
15884SOL    HW149549   9.660  14.355   5.692
15884SOL    HW249550   9.521  14.359   5.753
15885SOL     OW49551   1.965   1.208  13.734
15885SOL    HW149552   1.993   1.254  13.813
15885SOL    HW249553   1.894   1.262  13.699
15886SOL     OW49554   1.398   6.199   3.434
15886SOL    HW149555   1.344   6.261   3.482
15886SOL    HW249556   1.470   6.178   3.494
15887SOL     OW49557   9.375   0.503   2.442
15887SOL    HW149558   9.412   0.475   2.526
15887SOL    HW249559   9.451   0.512   2.384
15888SOL     OW49560  14.618   9.218  10.688
15888SOL    HW149561  14.707   9.191  10.669
15888SOL    HW249562  14.615   9.310  10.660
15889SOL     OW49563  12.617  10.766   1.091
15889SOL    HW149564  12.524  10.769   1.117
15889SOL    HW249565  12.618  10.710   1.013
15890SOL     OW49566   7.671   8.237   7.598
15890SOL    HW149567   7.600   8.191   7.553
15890SOL    HW249568   7.736   8.168   7.614
15891SOL     OW49569   9.823  14.610   7.368
15891SOL    HW149570   9.872  14.535   7.401
15891SOL    HW249571   9.891  14.674   7.344
15892SOL     OW49572   2.467  12.214   9.983
15892SOL    HW149573   2.561  12.222   9.972
15892SOL    HW249574   2.432  12.223   9.894
15893SOL     OW49575   3.873   9.761   9.863
15893SOL    HW149576   3.961   9.778   9.896
15893SOL    HW249577   3.816   9.814   9.919
15894SOL     OW49578   7.895   2.211   1.488
15894SOL    HW149579   7.848   2.239   1.409
15894SOL    HW249580   7.834   2.151   1.531
15895SOL     OW49581   6.424  11.803   6.921
15895SOL    HW149582   6.417  11.873   6.986
15895SOL    HW249583   6.511  11.815   6.882
15896SOL     OW49584   6.579   4.342   9.726
15896SOL    HW149585   6.568   4.302   9.640
15896SOL    HW249586   6.535   4.281   9.786
15897SOL     OW49587  10.966   5.479  10.040
15897SOL    HW149588  10.875   5.470  10.012
15897SOL    HW249589  10.986   5.395  10.083
15898SOL     OW49590   3.170  12.143   4.908
15898SOL    HW149591   3.123  12.208   4.856
15898SOL    HW249592   3.234  12.106   4.848
15899SOL     OW49593   0.997   7.692  14.316
15899SOL    HW149594   1.025   7.760  14.378
15899SOL    HW249595   0.905   7.676  14.338
15900SOL     OW49596  14.502  11.396  14.091
15900SOL    HW149597  14.461  11.311  14.073
15900SOL    HW249598  14.554  11.415  14.013
15901SOL     OW49599   7.110  10.675   2.734
15901SOL    HW149600   7.086  10.728   2.658
15901SOL    HW249601   7.111  10.585   2.701
15902SOL     OW49602  14.375   5.937   3.231
15902SOL    HW149603  14.405   5.957   3.143
15902SOL    HW249604  14.281   5.955   3.229
15903SOL     OW49605   2.289   2.511   5.441
15903SOL    HW149606   2.342   2.431   5.438
15903SOL    HW249607   2.218   2.495   5.380
15904SOL     OW49608   8.057   2.483   0.661
15904SOL    HW149609   8.009   2.565   0.675
15904SOL    HW249610   8.080   2.453   0.749
15905SOL     OW49611   7.032  14.195   5.659
15905SOL    HW149612   7.100  14.220   5.722
15905SOL    HW249613   6.952  14.187   5.712
15906SOL     OW49614   6.546   0.075  14.857
15906SOL    HW149615   6.581   0.136   0.053
15906SOL    HW249616   6.577   0.108  14.772
15907SOL     OW49617   8.703   2.911   0.327
15907SOL    HW149618   8.624   2.937   0.279
15907SOL    HW249619   8.674   2.905   0.418
15908SOL     OW49620  10.044  10.043  11.236
15908SOL    HW149621  10.041  10.043  11.331
15908SOL    HW249622  10.084  10.127  11.213
15909SOL     OW49623   9.601  11.025  14.144
15909SOL    HW149624   9.674  10.970  14.172
15909SOL    HW249625   9.589  11.086  14.217
15910SOL     OW49626   8.755  14.085   7.813
15910SOL    HW149627   8.717  14.130   7.888
15910SOL    HW249628   8.757  13.993   7.838
15911SOL     OW49629  11.622  11.259  14.271
15911SOL    HW149630  11.695  11.222  14.322
15911SOL    HW249631  11.663  11.292  14.192
15912SOL     OW49632   8.058   8.583   5.175
15912SOL    HW149633   8.004   8.575   5.096
15912SOL    HW249634   8.146   8.602   5.143
15913SOL     OW49635   4.286   7.087   1.139
15913SOL    HW149636   4.303   7.015   1.200
15913SOL    HW249637   4.368   7.097   1.090
15914SOL     OW49638   3.811  13.360  11.212
15914SOL    HW149639   3.774  13.446  11.230
15914SOL    HW249640   3.775  13.336  11.126
15915SOL     OW49641   2.969   0.512   8.666
15915SOL    HW149642   3.014   0.522   8.582
15915SOL    HW249643   2.943   0.420   8.668
15916SOL     OW49644   7.013  12.497  10.927
15916SOL    HW149645   7.033  12.548  11.006
15916SOL    HW249646   7.013  12.562  10.856
15917SOL     OW49647  14.439   6.609  12.547
15917SOL    HW149648  14.525   6.632  12.582
15917SOL    HW249649  14.440   6.514  12.542
15918SOL     OW49650   9.680  14.179   6.588
15918SOL    HW149651   9.587  14.197   6.576
15918SOL    HW249652   9.685  14.136   6.673
15919SOL     OW49653   9.628  14.122  14.555
15919SOL    HW149654   9.713  14.098  14.518
15919SOL    HW249655   9.565  14.067  14.509
15920SOL     OW49656   7.563   7.799   7.911
15920SOL    HW149657   7.544   7.806   7.817
15920SOL    HW249658   7.519   7.719   7.938
15921SOL     OW49659  14.284   9.191   5.559
15921SOL    HW149660  14.262   9.266   5.503
15921SOL    HW249661  14.232   9.119   5.524
15922SOL     OW49662   3.722  10.462  14.013
15922SOL    HW149663   3.687  10.501  13.932
15922SOL    HW249664   3.741  10.372  13.989
15923SOL     OW49665   0.797  12.601  10.494
15923SOL    HW149666   0.787  12.677  10.436
15923SOL    HW249667   0.736  12.536  10.460
15924SOL     OW49668   0.617   1.199   7.017
15924SOL    HW149669   0.560   1.127   6.989
15924SOL    HW249670   0.558   1.264   7.053
15925SOL     OW49671  13.501  12.903   1.418
15925SOL    HW149672  13.534  12.951   1.342
15925SOL    HW249673  13.506  12.966   1.490
15926SOL     OW49674   1.519   3.006   2.261
15926SOL    HW149675   1.604   2.963   2.253
15926SOL    HW249676   1.539   3.100   2.259
15927SOL     OW49677   6.668   9.009  11.025
15927SOL    HW149678   6.740   9.027  10.965
15927SOL    HW249679   6.651   8.915  11.016
15928SOL     OW49680  10.006   0.732  14.569
15928SOL    HW149681  10.040   0.755  14.483
15928SOL    HW249682   9.993   0.816  14.614
15929SOL     OW49683   8.298   2.416  12.572
15929SOL    HW149684   8.250   2.341  12.609
15929SOL    HW249685   8.249   2.492  12.603
15930SOL     OW49686   9.613   0.603   8.050
15930SOL    HW149687   9.528   0.614   8.093
15930SOL    HW249688   9.663   0.547   8.109
15931SOL     OW49689   8.342   1.895   5.778
15931SOL    HW149690   8.292   1.920   5.856
15931SOL    HW249691   8.275   1.869   5.714
15932SOL     OW49692   1.730   6.050   8.522
15932SOL    HW149693   1.738   6.108   8.447
15932SOL    HW249694   1.761   6.102   8.596
15933SOL     OW49695   9.736  14.018   8.621
15933SOL    HW149696   9.761  13.973   8.541
15933SOL    HW249697   9.673  13.959   8.664
15934SOL     OW49698   8.570  14.065  13.039
15934SOL    HW149699   8.562  13.982  12.990
15934SOL    HW249700   8.665  14.077  13.049
15935SOL     OW49701  13.325   4.563  14.280
15935SOL    HW149702  13.371   4.584  14.198
15935SOL    HW249703  13.333   4.467  14.288
15936SOL     OW49704   8.131   2.193   4.030
15936SOL    HW149705   8.165   2.266   3.979
15936SOL    HW249706   8.037   2.211   4.039
15937SOL     OW49707   8.964   2.275   3.561
15937SOL    HW149708   8.904   2.206   3.534
15937SOL    HW249709   9.021   2.234   3.626
15938SOL     OW49710  14.286  14.695  13.305
15938SOL    HW149711  14.374  14.734  13.303
15938SOL    HW249712  14.264  14.691  13.398
15939SOL     OW49713  13.072   0.990   0.235
15939SOL    HW149714  13.055   0.896   0.224
15939SOL    HW249715  13.011   1.017   0.304
15940SOL     OW49716   7.167   2.242   7.021
15940SOL    HW149717   7.126   2.243   6.934
15940SOL    HW249718   7.187   2.333   7.039
15941SOL     OW49719   7.347   2.203   1.939
15941SOL    HW149720   7.377   2.239   1.856
15941SOL    HW249721   7.419   2.220   2.000
15942SOL     OW49722  10.705   1.299   4.841
15942SOL    HW149723  10.766   1.309   4.768
15942SOL    HW249724  10.673   1.388   4.857
15943SOL     OW49725   9.002  12.105  14.055
15943SOL    HW149726   8.962  12.192  14.049
15943SOL    HW249727   9.069  12.114  14.123
15944SOL     OW49728   1.394   7.788  11.382
15944SOL    HW149729   1.386   7.692  11.385
15944SOL    HW249730   1.484   7.803  11.352
15945SOL     OW49731  13.835  14.605  13.322
15945SOL    HW149732  13.864  14.685  13.278
15945SOL    HW249733  13.905  14.585  13.385
15946SOL     OW49734   9.545   3.861  14.771
15946SOL    HW149735   9.537   3.802  14.696
15946SOL    HW249736   9.613   3.821  14.825
15947SOL     OW49737   0.697  12.584  14.244
15947SOL    HW149738   0.629  12.645  14.274
15947SOL    HW249739   0.666  12.555  14.158
15948SOL     OW49740  11.293   6.405  12.526
15948SOL    HW149741  11.285   6.489  12.570
15948SOL    HW249742  11.207   6.389  12.488
15949SOL     OW49743   4.355  11.598  10.240
15949SOL    HW149744   4.427  11.553  10.196
15949SOL    HW249745   4.276  11.559  10.204
15950SOL     OW49746   2.114  11.423   3.673
15950SOL    HW149747   2.093  11.514   3.695
15950SOL    HW249748   2.029  11.383   3.656
15951SOL     OW49749  13.912   7.921   9.376
15951SOL    HW149750  13.921   7.871   9.295
15951SOL    HW249751  13.989   7.978   9.378
15952SOL     OW49752   6.542   6.703   0.986
15952SOL    HW149753   6.601   6.699   1.061
15952SOL    HW249754   6.508   6.792   0.986
15953SOL     OW49755   7.163   3.886   8.914
15953SOL    HW149756   7.218   3.964   8.923
15953SOL    HW249757   7.160   3.870   8.819
15954SOL     OW49758   3.283  11.864   5.571
15954SOL    HW149759   3.258  11.930   5.506
15954SOL    HW249760   3.254  11.781   5.533
15955SOL     OW49761   0.739   3.729   6.031
15955SOL    HW149762   0.682   3.744   5.956
15955SOL    HW249763   0.686   3.678   6.092
15956SOL     OW49764  10.475  10.310  14.118
15956SOL    HW149765  10.385  10.322  14.088
15956SOL    HW249766  10.469  10.243  14.186
15957SOL     OW49767   9.018   9.836  12.388
15957SOL    HW149768   9.107   9.806  12.365
15957SOL    HW249769   9.027   9.931  12.398
15958SOL     OW49770   6.095  14.569   3.634
15958SOL    HW149771   6.036  14.502   3.670
15958SOL    HW249772   6.150  14.594   3.708
15959SOL     OW49773  12.892   5.742   8.241
15959SOL    HW149774  12.938   5.798   8.303
15959SOL    HW249775  12.931   5.656   8.251
15960SOL     OW49776   8.417  14.147   8.100
15960SOL    HW149777   8.452  14.210   8.037
15960SOL    HW249778   8.407  14.066   8.050
15961SOL     OW49779   4.729   0.867   7.256
15961SOL    HW149780   4.771   0.879   7.171
15961SOL    HW249781   4.666   0.939   7.263
15962SOL     OW49782   4.324   6.729   5.380
15962SOL    HW149783   4.296   6.681   5.458
15962SOL    HW249784   4.385   6.795   5.413
15963SOL     OW49785  11.535  14.582   8.028
15963SOL    HW149786  11.536  14.488   8.009
15963SOL    HW249787  11.627  14.603   8.048
15964SOL     OW49788   7.390  14.083   5.619
15964SOL    HW149789   7.441  14.003   5.633
15964SOL    HW249790   7.431  14.148   5.677
15965SOL     OW49791  13.597   0.085  13.766
15965SOL    HW149792  13.634   0.163  13.806
15965SOL    HW249793  13.604   0.101  13.672
15966SOL     OW49794   5.076   7.145   3.130
15966SOL    HW149795   5.074   7.235   3.163
15966SOL    HW249796   5.109   7.153   3.040
15967SOL     OW49797   6.867  10.688   2.081
15967SOL    HW149798   6.793  10.676   2.021
15967SOL    HW249799   6.904  10.601   2.091
15968SOL     OW49800   4.243   1.142  11.342
15968SOL    HW149801   4.221   1.078  11.410
15968SOL    HW249802   4.255   1.224  11.390
15969SOL     OW49803   1.749   4.569   9.500
15969SOL    HW149804   1.814   4.500   9.509
15969SOL    HW249805   1.797   4.650   9.517
15970SOL     OW49806   6.469   6.315   0.332
15970SOL    HW149807   6.555   6.350   0.355
15970SOL    HW249808   6.474   6.222   0.355
15971SOL     OW49809   0.446   5.183  12.367
15971SOL    HW149810   0.420   5.267  12.405
15971SOL    HW249811   0.397   5.177  12.285
15972SOL     OW49812  14.492  14.094   8.986
15972SOL    HW149813  14.446  14.166   9.029
15972SOL    HW249814  14.467  14.016   9.036
15973SOL     OW49815   9.970   7.637   3.549
15973SOL    HW149816   9.974   7.588   3.467
15973SOL    HW249817   9.897   7.698   3.537
15974SOL     OW49818  12.477   3.389   3.767
15974SOL    HW149819  12.505   3.477   3.742
15974SOL    HW249820  12.556   3.335   3.759
15975SOL     OW49821   0.786   7.629   1.619
15975SOL    HW149822   0.765   7.689   1.547
15975SOL    HW249823   0.715   7.565   1.619
15976SOL     OW49824   8.447  11.340  10.593
15976SOL    HW149825   8.442  11.306  10.683
15976SOL    HW249826   8.406  11.426  10.598
15977SOL     OW49827  11.026   4.354   5.938
15977SOL    HW149828  11.012   4.392   5.851
15977SOL    HW249829  10.992   4.419   5.999
15978SOL     OW49830  14.245   6.171   2.281
15978SOL    HW149831  14.240   6.082   2.245
15978SOL    HW249832  14.320   6.210   2.236
15979SOL     OW49833   8.120   3.642   8.864
15979SOL    HW149834   8.151   3.730   8.884
15979SOL    HW249835   8.191   3.603   8.813
15980SOL     OW49836  13.059   4.720   9.435
15980SOL    HW149837  13.135   4.716   9.493
15980SOL    HW249838  13.015   4.801   9.460
15981SOL     OW49839   2.142  12.559   9.595
15981SOL    HW149840   2.212  12.622   9.577
15981SOL    HW249841   2.065  12.613   9.611
15982SOL     OW49842   9.787  12.032   5.251
15982SOL    HW149843   9.845  12.030   5.175
15982SOL    HW249844   9.735  11.952   5.243
15983SOL     OW49845   5.833   4.185   5.125
15983SOL    HW149846   5.928   4.201   5.118
15983SOL    HW249847   5.795   4.273   5.126
15984SOL     OW49848  13.194  10.689   0.015
15984SOL    HW149849  13.241  10.644  14.813
15984SOL    HW249850  13.123  10.628   0.039
15985SOL     OW49851  10.890   4.822   8.906
15985SOL    HW149852  10.909   4.776   8.824
15985SOL    HW249853  10.938   4.905   8.898
15986SOL     OW49854  14.012  13.507   9.662
15986SOL    HW149855  13.956  13.554   9.600
15986SOL    HW249856  13.954  13.444   9.703
15987SOL     OW49857   2.893   3.032   5.835
15987SOL    HW149858   2.863   2.948   5.868
15987SOL    HW249859   2.848   3.043   5.751
15988SOL     OW49860  12.192  12.337   5.524
15988SOL    HW149861  12.103  12.371   5.540
15988SOL    HW249862  12.230  12.399   5.462
15989SOL     OW49863   2.860   1.430  12.945
15989SOL    HW149864   2.804   1.507  12.954
15989SOL    HW249865   2.948   1.463  12.962
15990SOL     OW49866   6.406  13.198   2.219
15990SOL    HW149867   6.320  13.157   2.222
15990SOL    HW249868   6.399  13.273   2.278
15991SOL     OW49869   1.897   6.703   3.987
15991SOL    HW149870   1.901   6.777   3.926
15991SOL    HW249871   1.928   6.628   3.937
15992SOL     OW49872   3.345   2.083  12.146
15992SOL    HW149873   3.384   2.162  12.108
15992SOL    HW249874   3.419   2.031  12.174
15993SOL     OW49875   2.026   2.177   5.689
15993SOL    HW149876   2.054   2.230   5.615
15993SOL    HW249877   2.011   2.240   5.760
15994SOL     OW49878   2.334   6.208   0.782
15994SOL    HW149879   2.354   6.118   0.807
15994SOL    HW249880   2.316   6.253   0.865
15995SOL     OW49881   6.684   3.887   5.705
15995SOL    HW149882   6.670   3.981   5.694
15995SOL    HW249883   6.616   3.860   5.766
15996SOL     OW49884  13.362  10.375   4.696
15996SOL    HW149885  13.272  10.383   4.663
15996SOL    HW249886  13.351  10.346   4.787
15997SOL     OW49887   3.257  12.666   5.521
15997SOL    HW149888   3.319  12.739   5.518
15997SOL    HW249889   3.277  12.621   5.603
15998SOL     OW49890   9.507   3.984   4.400
15998SOL    HW149891   9.566   3.914   4.429
15998SOL    HW249892   9.564   4.052   4.366
15999SOL     OW49893   2.914   9.721   7.068
15999SOL    HW149894   2.868   9.743   7.149
15999SOL    HW249895   2.998   9.766   7.076
16000SOL     OW49896   8.581   8.288   8.385
16000SOL    HW149897   8.497   8.315   8.423
16000SOL    HW249898   8.558   8.255   8.298
16001SOL     OW49899   2.806   8.776   6.562
16001SOL    HW149900   2.760   8.720   6.500
16001SOL    HW249901   2.765   8.862   6.551
16002SOL     OW49902   1.604  11.480   7.743
16002SOL    HW149903   1.570  11.437   7.665
16002SOL    HW249904   1.533  11.471   7.807
16003SOL     OW49905   4.867   4.039   3.694
16003SOL    HW149906   4.958   4.014   3.707
16003SOL    HW249907   4.868   4.095   3.617
16004SOL     OW49908   3.720   0.474  14.444
16004SOL    HW149909   3.789   0.409  14.452
16004SOL    HW249910   3.646   0.427  14.407
16005SOL     OW49911   9.948   5.819   6.779
16005SOL    HW149912   9.896   5.900   6.781
16005SOL    HW249913   9.888   5.751   6.809
16006SOL     OW49914   0.276  11.074  10.427
16006SOL    HW149915   0.194  11.114  10.398
16006SOL    HW249916   0.248  10.995  10.473
16007SOL     OW49917   1.307   3.859   6.175
16007SOL    HW149918   1.294   3.784   6.233
16007SOL    HW249919   1.221   3.898   6.166
16008SOL     OW49920  10.281   7.368   9.193
16008SOL    HW149921  10.307   7.327   9.110
16008SOL    HW249922  10.353   7.347   9.253
16009SOL     OW49923   4.079   4.072   1.552
16009SOL    HW149924   4.143   4.073   1.481
16009SOL    HW249925   4.132   4.067   1.632
16010SOL     OW49926  10.331   3.668   0.418
16010SOL    HW149927  10.393   3.698   0.352
16010SOL    HW249928  10.351   3.720   0.496
16011SOL     OW49929   0.233   6.999  14.509
16011SOL    HW149930   0.225   7.058  14.584
16011SOL    HW249931   0.264   6.917  14.547
16012SOL     OW49932  12.507   8.573  12.437
16012SOL    HW149933  12.551   8.632  12.498
16012SOL    HW249934  12.415   8.597  12.441
16013SOL     OW49935   0.831   5.297  11.951
16013SOL    HW149936   0.894   5.257  11.891
16013SOL    HW249937   0.760   5.327  11.894
16014SOL     OW49938   6.340  14.479   6.126
16014SOL    HW149939   6.375  14.395   6.095
16014SOL    HW249940   6.383  14.493   6.210
16015SOL     OW49941  10.750   2.294  14.041
16015SOL    HW149942  10.753   2.383  14.075
16015SOL    HW249943  10.659   2.281  14.014
16016SOL     OW49944   9.523   9.116   9.110
16016SOL    HW149945   9.469   9.065   9.050
16016SOL    HW249946   9.612   9.108   9.075
16017SOL     OW49947  12.505  14.462  12.200
16017SOL    HW149948  12.427  14.503  12.161
16017SOL    HW249949  12.547  14.416  12.128
16018SOL     OW49950  11.446   2.428   5.979
16018SOL    HW149951  11.357   2.461   5.990
16018SOL    HW249952  11.499   2.506   5.965
16019SOL     OW49953   0.765  12.813   3.971
16019SOL    HW149954   0.833  12.757   3.934
16019SOL    HW249955   0.693  12.753   3.991
16020SOL     OW49956   6.274   8.593   2.903
16020SOL    HW149957   6.245   8.667   2.849
16020SOL    HW249958   6.250   8.515   2.852
16021SOL     OW49959   4.137   3.407  11.794
16021SOL    HW149960   4.187   3.442  11.869
16021SOL    HW249961   4.179   3.445  11.717
16022SOL     OW49962  13.753  10.662   1.757
16022SOL    HW149963  13.725  10.740   1.806
16022SOL    HW249964  13.695  10.659   1.681
16023SOL     OW49965   3.474   3.431   0.467
16023SOL    HW149966   3.486   3.339   0.443
16023SOL    HW249967   3.433   3.428   0.554
16024SOL     OW49968  11.698   3.111   9.980
16024SOL    HW149969  11.655   3.164   9.912
16024SOL    HW249970  11.753   3.173  10.027
16025SOL     OW49971   3.095   4.306  12.081
16025SOL    HW149972   3.099   4.367  12.155
16025SOL    HW249973   3.032   4.345  12.020
16026SOL     OW49974  14.309   1.420   4.321
16026SOL    HW149975  14.226   1.460   4.294
16026SOL    HW249976  14.375   1.468   4.272
16027SOL     OW49977   0.360   8.531  14.425
16027SOL    HW149978   0.340   8.467  14.356
16027SOL    HW249979   0.291   8.517  14.490
16028SOL     OW49980   0.942   5.895   2.986
16028SOL    HW149981   0.976   5.811   3.018
16028SOL    HW249982   0.890   5.929   3.059
16029SOL     OW49983   9.700  13.161  14.593
16029SOL    HW149984   9.624  13.155  14.651
16029SOL    HW249985   9.774  13.136  14.649
16030SOL     OW49986   4.664   7.482   1.676
16030SOL    HW149987   4.585   7.447   1.716
16030SOL    HW249988   4.652   7.577   1.679
16031SOL     OW49989   0.558  12.152  10.364
16031SOL    HW149990   0.591  12.241  10.369
16031SOL    HW249991   0.620  12.100  10.415
16032SOL     OW49992   9.714   7.347  11.083
16032SOL    HW149993   9.794   7.345  11.030
16032SOL    HW249994   9.646   7.377  11.022
16033SOL     OW49995  13.487  11.333  14.230
16033SOL    HW149996  13.527  11.293  14.153
16033SOL    HW249997  13.501  11.427  14.217
16034SOL     OW49998   0.230   2.231  11.887
16034SOL    HW149999   0.174   2.163  11.924
16034SOL    HW250000   0.213   2.226  11.793
16035SOL     OW50001  14.118  14.557   6.053
16035SOL    HW150002  14.206  14.565   6.015
16035SOL    HW250003  14.123  14.608   6.134
16036SOL     OW50004   7.820  12.515   7.628
16036SOL    HW150005   7.908  12.534   7.595
16036SOL    HW250006   7.768  12.591   7.601
16037SOL     OW50007   4.027   3.760   1.677
16037SOL    HW150008   3.939   3.774   1.713
16037SOL    HW250009   4.012   3.710   1.597
16038SOL     OW50010  14.256  11.628  11.932
16038SOL    HW150011  14.323  11.662  11.872
16038SOL    HW250012  14.273  11.534  11.934
16039SOL     OW50013   4.530   2.701   9.512
16039SOL    HW150014   4.506   2.694   9.419
16039SOL    HW250015   4.462   2.756   9.550
16040SOL     OW50016   9.912   5.434  10.140
16040SOL    HW150017   9.968   5.461  10.067
16040SOL    HW250018   9.862   5.360  10.105
16041SOL     OW50019   8.212  11.448   3.482
16041SOL    HW150020   8.124  11.478   3.459
16041SOL    HW250021   8.213  11.355   3.460
16042SOL     OW50022   2.511   3.053  11.323
16042SOL    HW150023   2.445   3.055  11.254
16042SOL    HW250024   2.547   3.142  11.324
16043SOL     OW50025   1.171   7.704   9.650
16043SOL    HW150026   1.236   7.764   9.614
16043SOL    HW250027   1.215   7.620   9.654
16044SOL     OW50028   4.501   5.408   2.508
16044SOL    HW150029   4.440   5.458   2.562
16044SOL    HW250030   4.582   5.406   2.559
16045SOL     OW50031  13.929  12.894  12.159
16045SOL    HW150032  13.844  12.920  12.123
16045SOL    HW250033  13.957  12.821  12.104
16046SOL     OW50034   2.349   3.315   9.091
16046SOL    HW150035   2.340   3.398   9.044
16046SOL    HW250036   2.332   3.249   9.024
16047SOL     OW50037   8.239  13.738   9.784
16047SOL    HW150038   8.170  13.672   9.791
16047SOL    HW250039   8.205  13.802   9.721
16048SOL     OW50040   3.783   4.476   8.194
16048SOL    HW150041   3.734   4.557   8.185
16048SOL    HW250042   3.874   4.503   8.202
16049SOL     OW50043   4.615   8.533  11.703
16049SOL    HW150044   4.590   8.624  11.717
16049SOL    HW250045   4.590   8.488  11.783
16050SOL     OW50046  10.051   2.219   3.429
16050SOL    HW150047   9.976   2.240   3.373
16050SOL    HW250048  10.033   2.130   3.461
16051SOL     OW50049   6.486  10.061  12.475
16051SOL    HW150050   6.569  10.031  12.511
16051SOL    HW250051   6.445   9.982  12.439
16052SOL     OW50052   0.305  14.693   9.617
16052SOL    HW150053   0.261  14.764   9.664
16052SOL    HW250054   0.372  14.736   9.564
16053SOL     OW50055  14.342   7.097  13.714
16053SOL    HW150056  14.374   7.187  13.723
16053SOL    HW250057  14.415   7.043  13.744
16054SOL     OW50058   3.367  10.569  11.704
16054SOL    HW150059   3.333  10.573  11.614
16054SOL    HW250060   3.403  10.657  11.719
16055SOL     OW50061   6.999  11.836   6.329
16055SOL    HW150062   7.000  11.900   6.258
16055SOL    HW250063   6.912  11.843   6.367
16056SOL     OW50064   1.626   1.117  11.308
16056SOL    HW150065   1.702   1.079  11.263
16056SOL    HW250066   1.578   1.163  11.239
16057SOL     OW50067  11.023   6.065  13.126
16057SOL    HW150068  11.016   6.044  13.220
16057SOL    HW250069  10.932   6.077  13.098
16058SOL     OW50070  11.066   5.442   7.633
16058SOL    HW150071  11.002   5.486   7.688
16058SOL    HW250072  11.032   5.353   7.622
16059SOL     OW50073   1.440   3.433  13.891
16059SOL    HW150074   1.467   3.493  13.822
16059SOL    HW250075   1.385   3.486  13.949
16060SOL     OW50076   4.206  11.114  11.949
16060SOL    HW150077   4.273  11.053  11.980
16060SOL    HW250078   4.219  11.193  12.001
16061SOL     OW50079   1.355   7.561   5.072
16061SOL    HW150080   1.407   7.504   5.015
16061SOL    HW250081   1.295   7.605   5.013
16062SOL     OW50082  13.531  11.905  12.585
16062SOL    HW150083  13.570  11.868  12.664
16062SOL    HW250084  13.462  11.843  12.561
16063SOL     OW50085   9.584   5.685   6.692
16063SOL    HW150086   9.574   5.591   6.676
16063SOL    HW250087   9.640   5.716   6.620
16064SOL     OW50088  12.299   6.102   8.072
16064SOL    HW150089  12.309   6.061   7.986
16064SOL    HW250090  12.323   6.035   8.135
16065SOL     OW50091  14.453   8.300   2.820
16065SOL    HW150092  14.501   8.354   2.757
16065SOL    HW250093  14.398   8.244   2.766
16066SOL     OW50094   5.061   1.761   4.999
16066SOL    HW150095   5.014   1.692   5.045
16066SOL    HW250096   5.070   1.831   5.063
16067SOL     OW50097   6.665   2.508   2.872
16067SOL    HW150098   6.664   2.501   2.967
16067SOL    HW250099   6.741   2.457   2.845
16068SOL     OW50100   0.280  13.555  11.879
16068SOL    HW150101   0.223  13.632  11.887
16068SOL    HW250102   0.221  13.480  11.881
16069SOL     OW50103   2.958  13.859  11.648
16069SOL    HW150104   3.013  13.840  11.723
16069SOL    HW250105   2.943  13.774  11.606
16070SOL     OW50106  10.750   6.797   8.249
16070SOL    HW150107  10.771   6.709   8.217
16070SOL    HW250108  10.822   6.851   8.217
16071SOL     OW50109  12.098  11.882  13.328
16071SOL    HW150110  12.144  11.939  13.266
16071SOL    HW250111  12.009  11.877  13.295
16072SOL     OW50112  12.948  10.050  11.631
16072SOL    HW150113  12.933  10.076  11.722
16072SOL    HW250114  13.018   9.985  11.636
16073SOL     OW50115  13.977   1.317   1.511
16073SOL    HW150116  13.902   1.267   1.480
16073SOL    HW250117  14.028   1.336   1.432
16074SOL     OW50118   9.192   0.715  12.941
16074SOL    HW150119   9.243   0.761  13.008
16074SOL    HW250120   9.186   0.625  12.973
16075SOL     OW50121  11.261   6.828   4.629
16075SOL    HW150122  11.180   6.800   4.672
16075SOL    HW250123  11.324   6.758   4.649
16076SOL     OW50124  14.448  14.501   6.352
16076SOL    HW150125  14.427  14.591   6.326
16076SOL    HW250126  14.380  14.448   6.309
16077SOL     OW50127   5.307   8.344  12.278
16077SOL    HW150128   5.249   8.415  12.305
16077SOL    HW250129   5.350   8.316  12.359
16078SOL     OW50130   4.738  10.051   0.325
16078SOL    HW150131   4.816   9.996   0.323
16078SOL    HW250132   4.687  10.023   0.249
16079SOL     OW50133   6.779   8.469  13.818
16079SOL    HW150134   6.749   8.502  13.733
16079SOL    HW250135   6.714   8.403  13.842
16080SOL     OW50136   8.034  11.946  14.036
16080SOL    HW150137   7.987  12.030  14.031
16080SOL    HW250138   7.973  11.887  14.081
16081SOL     OW50139  13.002   3.990   5.151
16081SOL    HW150140  13.073   3.940   5.111
16081SOL    HW250141  12.925   3.969   5.097
16082SOL     OW50142  12.498   2.918  10.033
16082SOL    HW150143  12.433   2.934   9.963
16082SOL    HW250144  12.483   2.989  10.095
16083SOL     OW50145  11.403   6.000   3.919
16083SOL    HW150146  11.411   6.080   3.866
16083SOL    HW250147  11.325   5.956   3.884
16084SOL     OW50148  13.424  13.244   4.670
16084SOL    HW150149  13.490  13.177   4.687
16084SOL    HW250150  13.456  13.322   4.714
16085SOL     OW50151  10.166  14.064   7.545
16085SOL    HW150152  10.198  13.974   7.539
16085SOL    HW250153  10.071  14.056   7.534
16086SOL     OW50154   2.611   9.145   0.145
16086SOL    HW150155   2.703   9.153   0.120
16086SOL    HW250156   2.610   9.073   0.208
16087SOL     OW50157   2.938   6.713  12.625
16087SOL    HW150158   2.848   6.692  12.651
16087SOL    HW250159   2.931   6.798  12.583
16088SOL     OW50160  10.588  10.367  12.215
16088SOL    HW150161  10.557  10.410  12.135
16088SOL    HW250162  10.581  10.434  12.283
16089SOL     OW50163  12.288   5.435   7.654
16089SOL    HW150164  12.248   5.521   7.641
16089SOL    HW250165  12.379   5.454   7.677
16090SOL     OW50166   6.854   8.675   3.407
16090SOL    HW150167   6.786   8.645   3.467
16090SOL    HW250168   6.901   8.743   3.455
16091SOL     OW50169  14.296   0.053  11.025
16091SOL    HW150170  14.276   0.006  11.106
16091SOL    HW250171  14.286  14.856  10.956
16092SOL     OW50172   1.728   8.187   4.774
16092SOL    HW150173   1.810   8.225   4.743
16092SOL    HW250174   1.659   8.242   4.737
16093SOL     OW50175   1.835  14.343   3.327
16093SOL    HW150176   1.862  14.369   3.415
16093SOL    HW250177   1.800  14.255   3.338
16094SOL     OW50178  10.433   2.202   6.851
16094SOL    HW150179  10.469   2.129   6.902
16094SOL    HW250180  10.497   2.273   6.861
16095SOL     OW50181  12.016   4.295   4.338
16095SOL    HW150182  12.074   4.328   4.269
16095SOL    HW250183  12.024   4.358   4.409
16096SOL     OW50184  12.262   2.950   0.347
16096SOL    HW150185  12.348   2.971   0.311
16096SOL    HW250186  12.200   2.991   0.286
16097SOL     OW50187  11.425   0.871   9.420
16097SOL    HW150188  11.447   0.946   9.364
16097SOL    HW250189  11.459   0.796   9.372
16098SOL     OW50190  10.848   6.972   5.127
16098SOL    HW150191  10.805   6.903   5.178
16098SOL    HW250192  10.929   6.931   5.095
16099SOL     OW50193  14.161   4.363   4.940
16099SOL    HW150194  14.245   4.400   4.968
16099SOL    HW250195  14.176   4.336   4.849
16100SOL     OW50196   0.181   4.814   8.386
16100SOL    HW150197   0.261   4.861   8.408
16100SOL    HW250198   0.123   4.881   8.350
16101SOL     OW50199  12.200  10.811  13.837
16101SOL    HW150200  12.247  10.814  13.754
16101SOL    HW250201  12.172  10.720  13.845
16102SOL     OW50202  14.653  14.206  13.314
16102SOL    HW150203  14.562  14.179  13.304
16102SOL    HW250204  14.666  14.210  13.409
16103SOL     OW50205   2.657   4.271  11.087
16103SOL    HW150206   2.586   4.207  11.081
16103SOL    HW250207   2.704   4.247  11.167
16104SOL     OW50208   3.850  11.171   1.558
16104SOL    HW150209   3.911  11.190   1.486
16104SOL    HW250210   3.785  11.241   1.554
16105SOL     OW50211  10.834  13.163  10.525
16105SOL    HW150212  10.914  13.198  10.566
16105SOL    HW250213  10.863  13.135  10.438
16106SOL     OW50214   7.933   6.218   4.675
16106SOL    HW150215   7.974   6.179   4.598
16106SOL    HW250216   7.881   6.290   4.641
16107SOL     OW50217  13.638   0.800   7.090
16107SOL    HW150218  13.606   0.715   7.119
16107SOL    HW250219  13.567   0.836   7.037
16108SOL     OW50220  12.341   3.423  13.241
16108SOL    HW150221  12.268   3.392  13.295
16108SOL    HW250222  12.330   3.518  13.239
16109SOL     OW50223   4.133   3.680   2.228
16109SOL    HW150224   4.056   3.624   2.216
16109SOL    HW250225   4.138   3.693   2.323
16110SOL     OW50226   0.639  12.710   8.638
16110SOL    HW150227   0.700  12.698   8.564
16110SOL    HW250228   0.570  12.647   8.622
16111SOL     OW50229   2.042  13.667  13.616
16111SOL    HW150230   2.017  13.615  13.540
16111SOL    HW250231   2.083  13.745  13.578
16112SOL     OW50232   5.157   5.317   0.953
16112SOL    HW150233   5.152   5.312   0.857
16112SOL    HW250234   5.092   5.383   0.977
16113SOL     OW50235   4.472  12.597   8.294
16113SOL    HW150236   4.453  12.504   8.285
16113SOL    HW250237   4.563  12.606   8.265
16114SOL     OW50238  14.431  14.018   0.006
16114SOL    HW150239  14.521  13.984   0.008
16114SOL    HW250240  14.420  14.049  14.784
16115SOL     OW50241  10.681   9.972  14.398
16115SOL    HW150242  10.598  10.009  14.369
16115SOL    HW250243  10.656   9.891  14.444
16116SOL     OW50244   9.175  11.451   3.066
16116SOL    HW150245   9.212  11.517   3.009
16116SOL    HW250246   9.124  11.394   3.008
16117SOL     OW50247   9.375   3.932   1.728
16117SOL    HW150248   9.402   3.840   1.729
16117SOL    HW250249   9.319   3.940   1.651
16118SOL     OW50250   3.840   4.661  13.471
16118SOL    HW150251   3.824   4.731  13.408
16118SOL    HW250252   3.876   4.590  13.418
16119SOL     OW50253  13.405  14.484  10.845
16119SOL    HW150254  13.368  14.548  10.906
16119SOL    HW250255  13.328  14.446  10.801
16120SOL     OW50256  10.667  14.364   7.190
16120SOL    HW150257  10.717  14.444   7.206
16120SOL    HW250258  10.579  14.385   7.222
16121SOL     OW50259   0.318   4.857   7.200
16121SOL    HW150260   0.409   4.839   7.178
16121SOL    HW250261   0.286   4.776   7.239
16122SOL     OW50262   6.879   2.756   8.375
16122SOL    HW150263   6.973   2.766   8.387
16122SOL    HW250264   6.870   2.708   8.293
16123SOL     OW50265  13.686   7.768   8.850
16123SOL    HW150266  13.699   7.834   8.782
16123SOL    HW250267  13.676   7.819   8.931
16124SOL     OW50268  12.238   3.406   2.488
16124SOL    HW150269  12.165   3.468   2.481
16124SOL    HW250270  12.286   3.435   2.565
16125SOL     OW50271   8.768   1.291   4.904
16125SOL    HW150272   8.690   1.238   4.887
16125SOL    HW250273   8.826   1.274   4.830
16126SOL     OW50274   2.540  11.032  12.876
16126SOL    HW150275   2.609  11.094  12.899
16126SOL    HW250276   2.569  10.949  12.913
16127SOL     OW50277   3.266   5.322   8.681
16127SOL    HW150278   3.299   5.329   8.771
16127SOL    HW250279   3.345   5.321   8.627
16128SOL     OW50280   9.144   9.237   4.098
16128SOL    HW150281   9.176   9.295   4.029
16128SOL    HW250282   9.110   9.160   4.051
16129SOL     OW50283   2.303   8.151   2.495
16129SOL    HW150284   2.261   8.150   2.581
16129SOL    HW250285   2.328   8.060   2.479
16130SOL     OW50286  13.492   5.698   0.214
16130SOL    HW150287  13.504   5.772   0.155
16130SOL    HW250288  13.565   5.704   0.276
16131SOL     OW50289   3.836   2.514   2.187
16131SOL    HW150290   3.882   2.430   2.185
16131SOL    HW250291   3.906   2.579   2.187
16132SOL     OW50292  12.362   8.734   8.562
16132SOL    HW150293  12.419   8.790   8.614
16132SOL    HW250294  12.417   8.660   8.537
16133SOL     OW50295  11.811   9.468   0.654
16133SOL    HW150296  11.821   9.536   0.720
16133SOL    HW250297  11.728   9.487   0.610
16134SOL     OW50298  14.231   7.887  13.214
16134SOL    HW150299  14.157   7.898  13.272
16134SOL    HW250300  14.274   7.807  13.243
16135SOL     OW50301  14.406   5.638   2.799
16135SOL    HW150302  14.381   5.640   2.892
16135SOL    HW250303  14.449   5.553   2.788
16136SOL     OW50304  13.410  11.312  10.560
16136SOL    HW150305  13.364  11.393  10.538
16136SOL    HW250306  13.389  11.298  10.653
16137SOL     OW50307   4.081   8.020  11.127
16137SOL    HW150308   4.133   7.988  11.053
16137SOL    HW250309   4.067   8.113  11.109
16138SOL     OW50310   4.479  10.219  11.435
16138SOL    HW150311   4.487  10.290  11.498
16138SOL    HW250312   4.537  10.244  11.363
16139SOL     OW50313   6.553   4.493   2.750
16139SOL    HW150314   6.487   4.554   2.717
16139SOL    HW250315   6.504   4.431   2.803
16140SOL     OW50316   1.015  10.836  14.265
16140SOL    HW150317   0.940  10.816  14.210
16140SOL    HW250318   1.015  10.767  14.332
16141SOL     OW50319   3.980  12.872   5.556
16141SOL    HW150320   4.024  12.843   5.636
16141SOL    HW250321   4.049  12.870   5.490
16142SOL     OW50322   5.243   2.549   7.126
16142SOL    HW150323   5.241   2.592   7.211
16142SOL    HW250324   5.317   2.588   7.081
16143SOL     OW50325   1.916   7.648   2.308
16143SOL    HW150326   1.961   7.568   2.338
16143SOL    HW250327   1.887   7.690   2.389
16144SOL     OW50328   9.199   6.053   1.925
16144SOL    HW150329   9.214   5.969   1.967
16144SOL    HW250330   9.178   6.032   1.834
16145SOL     OW50331   0.510  10.888  13.640
16145SOL    HW150332   0.439  10.875  13.704
16145SOL    HW250333   0.531  10.800  13.610
16146SOL     OW50334   4.044  10.571   8.515
16146SOL    HW150335   4.057  10.513   8.590
16146SOL    HW250336   3.999  10.647   8.551
16147SOL     OW50337  11.531   6.483   5.481
16147SOL    HW150338  11.544   6.470   5.575
16147SOL    HW250339  11.441   6.456   5.466
16148SOL     OW50340   7.895  11.772   1.191
16148SOL    HW150341   7.938  11.820   1.262
16148SOL    HW250342   7.934  11.806   1.111
16149SOL     OW50343   8.920   3.290  14.119
16149SOL    HW150344   8.870   3.316  14.196
16149SOL    HW250345   8.916   3.366  14.061
16150SOL     OW50346   5.279   5.475  13.033
16150SOL    HW150347   5.324   5.554  13.064
16150SOL    HW250348   5.349   5.414  13.011
16151SOL     OW50349   3.447   0.623   1.630
16151SOL    HW150350   3.448   0.529   1.612
16151SOL    HW250351   3.416   0.630   1.720
16152SOL     OW50352   5.574   4.118   8.064
16152SOL    HW150353   5.493   4.117   8.113
16152SOL    HW250354   5.551   4.158   7.980
16153SOL     OW50355  12.402   7.619  14.077
16153SOL    HW150356  12.406   7.605  13.982
16153SOL    HW250357  12.493   7.629  14.103
16154SOL     OW50358  10.499   1.098   3.974
16154SOL    HW150359  10.543   1.036   3.916
16154SOL    HW250360  10.418   1.120   3.929
16155SOL     OW50361   8.911   0.859   2.680
16155SOL    HW150362   8.913   0.807   2.599
16155SOL    HW250363   8.846   0.927   2.662
16156SOL     OW50364  10.951  14.533  14.156
16156SOL    HW150365  10.958  14.441  14.180
16156SOL    HW250366  10.898  14.533  14.076
16157SOL     OW50367   4.474  12.705  13.657
16157SOL    HW150368   4.487  12.658  13.739
16157SOL    HW250369   4.558  12.748  13.640
16158SOL     OW50370   4.358   1.832   8.447
16158SOL    HW150371   4.383   1.875   8.365
16158SOL    HW250372   4.263   1.830   8.445
16159SOL     OW50373   6.007   0.737  13.644
16159SOL    HW150374   6.037   0.694  13.563
16159SOL    HW250375   5.912   0.739  13.636
16160SOL     OW50376  13.006   5.300  12.565
16160SOL    HW150377  13.061   5.342  12.632
16160SOL    HW250378  12.924   5.281  12.610
16161SOL     OW50379  11.127   9.411   3.153
16161SOL    HW150380  11.037   9.413   3.185
16161SOL    HW250381  11.120   9.377   3.064
16162SOL     OW50382   4.619   6.029   6.623
16162SOL    HW150383   4.680   6.014   6.696
16162SOL    HW250384   4.664   6.092   6.566
16163SOL     OW50385   4.874  10.484   3.145
16163SOL    HW150386   4.801  10.490   3.206
16163SOL    HW250387   4.836  10.504   3.060
16164SOL     OW50388   9.044  11.810   7.401
16164SOL    HW150389   9.026  11.902   7.384
16164SOL    HW250390   8.972  11.763   7.360
16165SOL     OW50391   9.301   8.245  13.905
16165SOL    HW150392   9.213   8.271  13.879
16165SOL    HW250393   9.340   8.207  13.826
16166SOL     OW50394  10.669   4.818   9.942
16166SOL    HW150395  10.646   4.797   9.851
16166SOL    HW250396  10.732   4.750   9.967
16167SOL     OW50397   7.363   1.743  14.659
16167SOL    HW150398   7.417   1.688  14.715
16167SOL    HW250399   7.273   1.721  14.683
16168SOL     OW50400   0.379   0.721  12.412
16168SOL    HW150401   0.442   0.652  12.392
16168SOL    HW250402   0.344   0.746  12.326
16169SOL     OW50403   3.244  12.968   7.337
16169SOL    HW150404   3.298  13.036   7.296
16169SOL    HW250405   3.267  12.887   7.291
16170SOL     OW50406   7.287   1.936  10.601
16170SOL    HW150407   7.305   1.940  10.507
16170SOL    HW250408   7.259   1.845  10.617
16171SOL     OW50409   2.361  12.671   8.990
16171SOL    HW150410   2.297  12.611   8.954
16171SOL    HW250411   2.443  12.621   8.992
16172SOL     OW50412  10.164   7.691  11.004
16172SOL    HW150413  10.106   7.624  11.039
16172SOL    HW250414  10.236   7.697  11.067
16173SOL     OW50415   4.319   3.503  14.621
16173SOL    HW150416   4.384   3.438  14.650
16173SOL    HW250417   4.235   3.467  14.648
16174SOL     OW50418  12.140   0.401   4.868
16174SOL    HW150419  12.160   0.481   4.917
16174SOL    HW250420  12.202   0.336   4.902
16175SOL     OW50421   1.084  11.894   4.621
16175SOL    HW150422   1.141  11.905   4.545
16175SOL    HW250423   1.127  11.826   4.674
16176SOL     OW50424   7.991   3.338  11.543
16176SOL    HW150425   7.941   3.407  11.499
16176SOL    HW250426   7.926   3.270  11.562
16177SOL     OW50427  13.046   7.126   5.538
16177SOL    HW150428  13.088   7.190   5.597
16177SOL    HW250429  13.080   7.042   5.567
16178SOL     OW50430  10.085  10.251   4.572
16178SOL    HW150431  10.102  10.335   4.528
16178SOL    HW250432  10.127  10.186   4.516
16179SOL     OW50433   0.997  10.012   1.652
16179SOL    HW150434   0.989   9.930   1.700
16179SOL    HW250435   1.079  10.051   1.683
16180SOL     OW50436  10.956   5.035   0.468
16180SOL    HW150437  10.895   5.034   0.395
16180SOL    HW250438  10.903   5.060   0.544
16181SOL     OW50439   9.941  14.184   8.952
16181SOL    HW150440   9.985  14.143   9.025
16181SOL    HW250441   9.945  14.119   8.882
16182SOL     OW50442  14.722  12.974   7.128
16182SOL    HW150443  14.791  13.040   7.136
16182SOL    HW250444  14.705  12.969   7.035
16183SOL     OW50445  11.848   5.654   8.685
16183SOL    HW150446  11.851   5.720   8.616
16183SOL    HW250447  11.801   5.580   8.647
16184SOL     OW50448   1.292   2.680   0.218
16184SOL    HW150449   1.255   2.592   0.209
16184SOL    HW250450   1.385   2.669   0.196
16185SOL     OW50451  12.042   6.727   0.508
16185SOL    HW150452  11.966   6.723   0.450
16185SOL    HW250453  12.107   6.778   0.460
16186SOL     OW50454   9.121   4.799   6.825
16186SOL    HW150455   9.122   4.705   6.844
16186SOL    HW250456   9.089   4.839   6.905
16187SOL     OW50457  11.263   6.787   2.054
16187SOL    HW150458  11.266   6.879   2.026
16187SOL    HW250459  11.283   6.790   2.147
16188SOL     OW50460   9.188  10.359  12.900
16188SOL    HW150461   9.205  10.266  12.915
16188SOL    HW250462   9.252  10.385  12.835
16189SOL     OW50463  14.068  12.661   8.760
16189SOL    HW150464  14.035  12.663   8.670
16189SOL    HW250465  14.099  12.571   8.772
16190SOL     OW50466  11.713   3.554   7.116
16190SOL    HW150467  11.757   3.639   7.105
16190SOL    HW250468  11.669   3.539   7.033
16191SOL     OW50469  13.432   0.368  13.169
16191SOL    HW150470  13.432   0.439  13.234
16191SOL    HW250471  13.522   0.367  13.136
16192SOL     OW50472  13.718   7.860  11.316
16192SOL    HW150473  13.717   7.766  11.335
16192SOL    HW250474  13.754   7.901  11.395
16193SOL     OW50475   4.433   0.349  11.774
16193SOL    HW150476   4.480   0.369  11.693
16193SOL    HW250477   4.393   0.433  11.798
16194SOL     OW50478   9.551  11.994  13.072
16194SOL    HW150479   9.501  12.013  13.151
16194SOL    HW250480   9.489  11.952  13.013
16195SOL     OW50481  10.099   4.634   1.076
16195SOL    HW150482  10.172   4.682   1.036
16195SOL    HW250483  10.079   4.565   1.013
16196SOL     OW50484  12.769  12.813   6.070
16196SOL    HW150485  12.776  12.799   5.976
16196SOL    HW250486  12.722  12.737   6.103
16197SOL     OW50487  11.538   0.006  13.761
16197SOL    HW150488  11.571   0.089  13.794
16197SOL    HW250489  11.551   0.011  13.666
16198SOL     OW50490  12.713   7.311  14.712
16198SOL    HW150491  12.618   7.322  14.710
16198SOL    HW250492  12.728   7.251  14.785
16199SOL     OW50493  10.371   2.067  13.280
16199SOL    HW150494  10.374   2.131  13.351
16199SOL    HW250495  10.280   2.067  13.251
16200SOL     OW50496   9.512   7.525   3.641
16200SOL    HW150497   9.441   7.471   3.607
16200SOL    HW250498   9.589   7.496   3.592
16201SOL     OW50499   8.901   5.106  11.379
16201SOL    HW150500   8.924   5.085  11.289
16201SOL    HW250501   8.896   5.021  11.423
16202SOL     OW50502   6.918   7.599   8.877
16202SOL    HW150503   6.869   7.616   8.797
16202SOL    HW250504   7.009   7.619   8.854
16203SOL     OW50505   1.384   4.677   5.841
16203SOL    HW150506   1.461   4.689   5.785
16203SOL    HW250507   1.374   4.582   5.849
16204SOL     OW50508  11.867   5.214   7.945
16204SOL    HW150509  11.893   5.124   7.922
16204SOL    HW250510  11.902   5.227   8.033
16205SOL     OW50511   7.594   7.840   4.586
16205SOL    HW150512   7.646   7.920   4.585
16205SOL    HW250513   7.622   7.793   4.507
16206SOL     OW50514   6.921   4.341   1.575
16206SOL    HW150515   6.838   4.295   1.559
16206SOL    HW250516   6.906   4.429   1.541
16207SOL     OW50517  12.065  14.169  12.795
16207SOL    HW150518  12.041  14.220  12.717
16207SOL    HW250519  11.986  14.118  12.815
16208SOL     OW50520   4.284  10.423   2.869
16208SOL    HW150521   4.260  10.453   2.957
16208SOL    HW250522   4.338  10.345   2.884
16209SOL     OW50523   8.059   5.134   5.699
16209SOL    HW150524   8.130   5.152   5.637
16209SOL    HW250525   8.040   5.218   5.739
16210SOL     OW50526   1.245  11.430   0.677
16210SOL    HW150527   1.293  11.495   0.729
16210SOL    HW250528   1.158  11.428   0.717
16211SOL     OW50529   9.499   7.014  13.921
16211SOL    HW150530   9.461   7.061  13.996
16211SOL    HW250531   9.574   7.068  13.895
16212SOL     OW50532   7.725   5.693  10.335
16212SOL    HW150533   7.802   5.712  10.387
16212SOL    HW250534   7.664   5.651  10.396
16213SOL     OW50535  10.078   8.825   8.176
16213SOL    HW150536  10.148   8.887   8.159
16213SOL    HW250537  10.010   8.848   8.113
16214SOL     OW50538   9.953   3.406   6.507
16214SOL    HW150539   9.911   3.325   6.535
16214SOL    HW250540   9.959   3.398   6.412
16215SOL     OW50541  11.749   6.762   4.520
16215SOL    HW150542  11.685   6.706   4.565
16215SOL    HW250543  11.820   6.702   4.496
16216SOL     OW50544   4.014   6.251   2.651
16216SOL    HW150545   3.931   6.290   2.624
16216SOL    HW250546   4.040   6.301   2.729
16217SOL     OW50547   7.849  11.716   9.908
16217SOL    HW150548   7.917  11.671   9.958
16217SOL    HW250549   7.773  11.659   9.915
16218SOL     OW50550  10.226  13.578  13.587
16218SOL    HW150551  10.290  13.649  13.583
16218SOL    HW250552  10.142  13.622  13.594
16219SOL     OW50553  10.827   5.714   6.138
16219SOL    HW150554  10.809   5.807   6.123
16219SOL    HW250555  10.921   5.706   6.124
16220SOL     OW50556  12.483   5.636   4.452
16220SOL    HW150557  12.521   5.614   4.367
16220SOL    HW250558  12.462   5.730   4.445
16221SOL     OW50559  12.558   7.981   7.521
16221SOL    HW150560  12.491   8.026   7.470
16221SOL    HW250561  12.511   7.910   7.565
16222SOL     OW50562   1.739  12.489   8.523
16222SOL    HW150563   1.724  12.568   8.470
16222SOL    HW250564   1.652  12.450   8.531
16223SOL     OW50565   0.427   0.724   8.436
16223SOL    HW150566   0.448   0.744   8.345
16223SOL    HW250567   0.510   0.737   8.483
16224SOL     OW50568   0.135  13.062   4.449
16224SOL    HW150569   0.039  13.066   4.446
16224SOL    HW250570   0.158  13.005   4.375
16225SOL     OW50571   9.730  12.181   6.848
16225SOL    HW150572   9.744  12.272   6.821
16225SOL    HW250573   9.663  12.186   6.916
16226SOL     OW50574   5.020   0.889   7.027
16226SOL    HW150575   4.932   0.891   6.989
16226SOL    HW250576   5.063   0.966   6.991
16227SOL     OW50577   8.170   1.644  11.559
16227SOL    HW150578   8.236   1.713  11.567
16227SOL    HW250579   8.184   1.607  11.472
16228SOL     OW50580  11.961  11.875  10.944
16228SOL    HW150581  11.876  11.900  10.905
16228SOL    HW250582  11.992  11.803  10.889
16229SOL     OW50583   1.822  12.026   6.959
16229SOL    HW150584   1.839  12.038   6.866
16229SOL    HW250585   1.898  12.064   7.003
16230SOL     OW50586  13.939   0.592  11.710
16230SOL    HW150587  13.903   0.505  11.692
16230SOL    HW250588  13.977   0.620  11.627
16231SOL     OW50589   0.388  14.652   5.655
16231SOL    HW150590   0.437  14.686   5.729
16231SOL    HW250591   0.297  14.647   5.686
16232SOL     OW50592  10.539   2.264   8.894
16232SOL    HW150593  10.482   2.220   8.831
16232SOL    HW250594  10.591   2.193   8.932
16233SOL     OW50595   2.941   5.624   4.933
16233SOL    HW150596   2.874   5.567   4.897
16233SOL    HW250597   3.014   5.618   4.872
16234SOL     OW50598  12.732  14.424  14.841
16234SOL    HW150599  12.719  14.420   0.068
16234SOL    HW250600  12.819  14.385  14.828
16235SOL     OW50601   5.016   8.054  10.811
16235SOL    HW150602   4.940   8.070  10.868
16235SOL    HW250603   4.991   8.092  10.727
16236SOL     OW50604  10.718  12.539  11.519
16236SOL    HW150605  10.631  12.580  11.525
16236SOL    HW250606  10.707  12.454  11.561
16237SOL     OW50607  13.414   8.946   3.053
16237SOL    HW150608  13.413   8.913   2.963
16237SOL    HW250609  13.473   9.021   3.050
16238SOL     OW50610   8.789  12.736   3.104
16238SOL    HW150611   8.792  12.650   3.145
16238SOL    HW250612   8.716  12.780   3.147
16239SOL     OW50613   6.455  11.541  10.381
16239SOL    HW150614   6.431  11.501  10.298
16239SOL    HW250615   6.439  11.635  10.369
16240SOL     OW50616  12.184   3.333  13.951
16240SOL    HW150617  12.273   3.303  13.969
16240SOL    HW250618  12.131   3.292  14.020
16241SOL     OW50619   0.604   6.454   7.920
16241SOL    HW150620   0.697   6.468   7.906
16241SOL    HW250621   0.563   6.481   7.838
16242SOL     OW50622   4.583  13.090  11.859
16242SOL    HW150623   4.660  13.121  11.908
16242SOL    HW250624   4.524  13.057  11.927
16243SOL     OW50625   2.467  10.862   0.506
16243SOL    HW150626   2.472  10.907   0.422
16243SOL    HW250627   2.503  10.925   0.569
16244SOL     OW50628  14.675  11.654   0.822
16244SOL    HW150629  14.685  11.561   0.841
16244SOL    HW250630  14.759  11.680   0.783
16245SOL     OW50631   9.208   4.877   8.831
16245SOL    HW150632   9.205   4.908   8.922
16245SOL    HW250633   9.260   4.797   8.834
16246SOL     OW50634   8.895   4.310   9.315
16246SOL    HW150635   8.904   4.304   9.410
16246SOL    HW250636   8.815   4.361   9.301
16247SOL     OW50637   4.094   0.804   8.419
16247SOL    HW150638   4.085   0.758   8.336
16247SOL    HW250639   4.047   0.887   8.406
16248SOL     OW50640  13.448   1.320   6.705
16248SOL    HW150641  13.522   1.342   6.647
16248SOL    HW250642  13.393   1.262   6.652
16249SOL     OW50643   9.794  12.585   5.540
16249SOL    HW150644   9.818  12.589   5.632
16249SOL    HW250645   9.764  12.495   5.527
16250SOL     OW50646  11.135  10.931   2.090
16250SOL    HW150647  11.208  10.911   2.149
16250SOL    HW250648  11.097  10.846   2.070
16251SOL     OW50649  10.842   2.956   7.410
16251SOL    HW150650  10.906   2.993   7.471
16251SOL    HW250651  10.781   2.908   7.467
16252SOL     OW50652   3.610   6.522   1.274
16252SOL    HW150653   3.617   6.616   1.255
16252SOL    HW250654   3.678   6.482   1.219
16253SOL     OW50655  13.552  13.847  13.591
16253SOL    HW150656  13.545  13.763  13.636
16253SOL    HW250657  13.462  13.871  13.569
16254SOL     OW50658  11.682   9.769   9.248
16254SOL    HW150659  11.637   9.853   9.246
16254SOL    HW250660  11.619   9.708   9.210
16255SOL     OW50661  11.335  14.012  11.760
16255SOL    HW150662  11.367  13.927  11.791
16255SOL    HW250663  11.410  14.050  11.714
16256SOL     OW50664  13.409  10.549  12.628
16256SOL    HW150665  13.323  10.549  12.588
16256SOL    HW250666  13.405  10.479  12.694
16257SOL     OW50667   5.316  14.759   9.480
16257SOL    HW150668   5.294  14.746   9.387
16257SOL    HW250669   5.320  14.670   9.516
16258SOL     OW50670   1.913   4.035  13.626
16258SOL    HW150671   1.980   4.020  13.692
16258SOL    HW250672   1.923   3.961  13.565
16259SOL     OW50673   4.897   9.201   2.363
16259SOL    HW150674   4.977   9.221   2.315
16259SOL    HW250675   4.891   9.106   2.362
16260SOL     OW50676  12.500  13.983   3.876
16260SOL    HW150677  12.536  13.987   3.787
16260SOL    HW250678  12.574  13.956   3.930
16261SOL     OW50679   7.449  13.579   0.446
16261SOL    HW150680   7.383  13.602   0.510
16261SOL    HW250681   7.434  13.486   0.428
16262SOL     OW50682   9.506  11.823   0.613
16262SOL    HW150683   9.449  11.858   0.683
16262SOL    HW250684   9.484  11.730   0.610
16263SOL     OW50685   8.788  11.998   3.141
16263SOL    HW150686   8.703  11.962   3.118
16263SOL    HW250687   8.793  12.082   3.097
16264SOL     OW50688   2.759   3.334  11.983
16264SOL    HW150689   2.832   3.351  11.923
16264SOL    HW250690   2.793   3.268  12.043
16265SOL     OW50691   7.022   4.712  13.679
16265SOL    HW150692   7.040   4.707  13.585
16265SOL    HW250693   6.928   4.723  13.685
16266SOL     OW50694  14.500  12.430   9.442
16266SOL    HW150695  14.444  12.496   9.484
16266SOL    HW250696  14.531  12.472   9.362
16267SOL     OW50697   0.707   6.189   7.052
16267SOL    HW150698   0.631   6.166   7.105
16267SOL    HW250699   0.757   6.108   7.044
16268SOL     OW50700  12.145   5.836   3.894
16268SOL    HW150701  12.120   5.834   3.801
16268SOL    HW250702  12.202   5.912   3.902
16269SOL     OW50703   7.865   1.301   6.353
16269SOL    HW150704   7.795   1.365   6.350
16269SOL    HW250705   7.832   1.227   6.301
16270SOL     OW50706  10.946   5.973  13.917
16270SOL    HW150707  10.876   5.969  13.982
16270SOL    HW250708  10.995   6.052  13.939
16271SOL     OW50709   2.573   4.479   5.211
16271SOL    HW150710   2.565   4.423   5.134
16271SOL    HW250711   2.639   4.544   5.186
16272SOL     OW50712   5.111   5.030   5.504
16272SOL    HW150713   5.022   4.995   5.513
16272SOL    HW250714   5.099   5.125   5.506
16273SOL     OW50715   0.326   0.926   7.202
16273SOL    HW150716   0.412   0.952   7.233
16273SOL    HW250717   0.266   0.956   7.271
16274SOL     OW50718   6.812  11.153   0.763
16274SOL    HW150719   6.763  11.234   0.776
16274SOL    HW250720   6.780  11.118   0.680
16275SOL     OW50721  13.281  13.464   3.643
16275SOL    HW150722  13.311  13.540   3.594
16275SOL    HW250723  13.338  13.460   3.720
16276SOL     OW50724  10.853  12.993   7.716
16276SOL    HW150725  10.837  13.048   7.640
16276SOL    HW250726  10.904  13.047   7.775
16277SOL     OW50727   1.776   8.353   3.668
16277SOL    HW150728   1.869   8.351   3.648
16277SOL    HW250729   1.736   8.396   3.592
16278SOL     OW50730  13.972   9.294   9.131
16278SOL    HW150731  13.892   9.312   9.081
16278SOL    HW250732  14.033   9.259   9.066
16279SOL     OW50733   9.045   9.741   6.720
16279SOL    HW150734   8.988   9.670   6.750
16279SOL    HW250735   9.000   9.776   6.643
16280SOL     OW50736  14.737  14.123   0.735
16280SOL    HW150737  14.713  14.047   0.788
16280SOL    HW250738  14.718  14.199   0.791
16281SOL     OW50739   7.412   3.977   2.124
16281SOL    HW150740   7.384   3.949   2.037
16281SOL    HW250741   7.333   3.975   2.177
16282SOL     OW50742   8.966   5.012  10.222
16282SOL    HW150743   8.910   4.957  10.277
16282SOL    HW250744   8.906   5.068  10.173
16283SOL     OW50745   1.465  10.263   7.838
16283SOL    HW150746   1.546  10.260   7.888
16283SOL    HW250747   1.400  10.223   7.896
16284SOL     OW50748   3.320   3.908  10.949
16284SOL    HW150749   3.304   3.924  11.042
16284SOL    HW250750   3.273   3.977  10.904
16285SOL     OW50751   0.197  14.038   3.607
16285SOL    HW150752   0.176  14.081   3.524
16285SOL    HW250753   0.127  14.065   3.666
16286SOL     OW50754  12.358   6.835   0.682
16286SOL    HW150755  12.401   6.805   0.762
16286SOL    HW250756  12.309   6.760   0.651
16287SOL     OW50757  14.102   8.405   5.954
16287SOL    HW150758  14.141   8.379   6.037
16287SOL    HW250759  14.122   8.332   5.894
16288SOL     OW50760   2.680   8.067   3.569
16288SOL    HW150761   2.689   8.048   3.476
16288SOL    HW250762   2.639   7.988   3.606
16289SOL     OW50763   0.001   7.499  13.275
16289SOL    HW150764   0.033   7.420  13.319
16289SOL    HW250765   0.072   7.525  13.217
16290SOL     OW50766  14.848   7.702   7.811
16290SOL    HW150767  14.863   7.748   7.729
16290SOL    HW250768   0.063   7.710   7.858
16291SOL     OW50769  13.279  10.981   6.023
16291SOL    HW150770  13.368  11.017   6.020
16291SOL    HW250771  13.223  11.051   5.990
16292SOL     OW50772  13.176   5.082   5.401
16292SOL    HW150773  13.231   5.004   5.401
16292SOL    HW250774  13.162   5.101   5.494
16293SOL     OW50775   9.711   8.202  13.275
16293SOL    HW150776   9.674   8.222  13.189
16293SOL    HW250777   9.670   8.120  13.300
16294SOL     OW50778   3.838   0.055   4.240
16294SOL    HW150779   3.914   0.099   4.201
16294SOL    HW250780   3.803  14.868   4.170
16295SOL     OW50781  14.645   1.959  10.993
16295SOL    HW150782  14.637   2.045  10.952
16295SOL    HW250783  14.555   1.931  11.009
16296SOL     OW50784  14.097   3.698   9.349
16296SOL    HW150785  14.148   3.779   9.359
16296SOL    HW250786  14.163   3.629   9.342
16297SOL     OW50787   6.316  14.600   1.713
16297SOL    HW150788   6.242  14.550   1.745
16297SOL    HW250789   6.386  14.583   1.775
16298SOL     OW50790   5.874   4.987   2.193
16298SOL    HW150791   5.822   4.975   2.113
16298SOL    HW250792   5.933   4.912   2.195
16299SOL     OW50793   8.096   9.201   9.233
16299SOL    HW150794   8.037   9.188   9.308
16299SOL    HW250795   8.074   9.129   9.173
16300SOL     OW50796  10.052   5.092   7.734
16300SOL    HW150797  10.060   5.026   7.666
16300SOL    HW250798   9.958   5.096   7.753
16301SOL     OW50799  14.140   6.791   0.756
16301SOL    HW150800  14.218   6.846   0.751
16301SOL    HW250801  14.156   6.721   0.693
16302SOL     OW50802  10.951   0.045   7.571
16302SOL    HW150803  10.875   0.035   7.514
16302SOL    HW250804  10.929   0.120   7.627
16303SOL     OW50805   5.260   5.553  11.707
16303SOL    HW150806   5.197   5.485  11.733
16303SOL    HW250807   5.250   5.559  11.612
16304SOL     OW50808  13.190   3.593   2.592
16304SOL    HW150809  13.191   3.682   2.557
16304SOL    HW250810  13.148   3.602   2.678
16305SOL     OW50811  12.251  13.256   2.425
16305SOL    HW150812  12.267  13.203   2.347
16305SOL    HW250813  12.240  13.345   2.391
16306SOL     OW50814   4.301  10.055   8.018
16306SOL    HW150815   4.282  10.041   8.111
16306SOL    HW250816   4.301  10.150   8.007
16307SOL     OW50817  13.477  14.525  12.938
16307SOL    HW150818  13.519  14.584  13.001
16307SOL    HW250819  13.528  14.444  12.944
16308SOL     OW50820   1.747  12.821  10.228
16308SOL    HW150821   1.662  12.849  10.194
16308SOL    HW250822   1.759  12.733  10.193
16309SOL     OW50823   1.418   9.647   6.741
16309SOL    HW150824   1.511   9.669   6.743
16309SOL    HW250825   1.375   9.729   6.719
16310SOL     OW50826   1.144   0.624  13.872
16310SOL    HW150827   1.061   0.575  13.874
16310SOL    HW250828   1.208   0.564  13.909
16311SOL     OW50829   0.955  10.098   0.513
16311SOL    HW150830   0.864  10.114   0.490
16311SOL    HW250831   0.984  10.178   0.556
16312SOL     OW50832   2.694   1.357  11.179
16312SOL    HW150833   2.680   1.432  11.237
16312SOL    HW250834   2.789   1.352  11.169
16313SOL     OW50835   7.696  10.204   1.339
16313SOL    HW150836   7.694  10.199   1.243
16313SOL    HW250837   7.604  10.205   1.365
16314SOL     OW50838  11.925   6.659  13.689
16314SOL    HW150839  12.000   6.709  13.655
16314SOL    HW250840  11.946   6.645  13.781
16315SOL     OW50841   1.740  13.383   4.073
16315SOL    HW150842   1.816  13.385   4.015
16315SOL    HW250843   1.667  13.359   4.016
16316SOL     OW50844  11.072   6.200   2.835
16316SOL    HW150845  11.103   6.277   2.884
16316SOL    HW250846  11.025   6.148   2.899
16317SOL     OW50847  14.231   3.832  11.995
16317SOL    HW150848  14.221   3.738  12.011
16317SOL    HW250849  14.175   3.874  12.060
16318SOL     OW50850  11.203   1.356   7.460
16318SOL    HW150851  11.189   1.344   7.366
16318SOL    HW250852  11.290   1.396   7.467
16319SOL     OW50853   2.017   8.101   2.994
16319SOL    HW150854   1.999   8.174   3.053
16319SOL    HW250855   2.001   8.136   2.907
16320SOL     OW50856   3.263  12.910   3.201
16320SOL    HW150857   3.234  12.938   3.288
16320SOL    HW250858   3.284  12.992   3.155
16321SOL     OW50859   4.050   1.092   3.921
16321SOL    HW150860   4.035   1.168   3.866
16321SOL    HW250861   4.141   1.099   3.947
16322SOL     OW50862  11.536   1.180  14.383
16322SOL    HW150863  11.528   1.101  14.330
16322SOL    HW250864  11.629   1.184  14.406
16323SOL     OW50865   5.630   8.912  12.695
16323SOL    HW150866   5.720   8.893  12.723
16323SOL    HW250867   5.608   8.840  12.636
16324SOL     OW50868  12.903   1.846   6.738
16324SOL    HW150869  12.851   1.926   6.746
16324SOL    HW250870  12.967   1.852   6.809
16325SOL     OW50871   1.355  13.594  14.036
16325SOL    HW150872   1.326  13.591  13.945
16325SOL    HW250873   1.415  13.668  14.040
16326SOL     OW50874  10.549   6.862   1.929
16326SOL    HW150875  10.604   6.841   2.005
16326SOL    HW250876  10.470   6.809   1.941
16327SOL     OW50877   3.424   6.657  14.724
16327SOL    HW150878   3.396   6.604  14.799
16327SOL    HW250879   3.468   6.595  14.666
16328SOL     OW50880   2.191  12.162  13.561
16328SOL    HW150881   2.231  12.207  13.636
16328SOL    HW250882   2.160  12.079  13.597
16329SOL     OW50883   9.977  10.094  13.617
16329SOL    HW150884  10.049  10.101  13.680
16329SOL    HW250885   9.979  10.002  13.589
16330SOL     OW50886  13.164   2.915   4.152
16330SOL    HW150887  13.086   2.957   4.187
16330SOL    HW250888  13.176   2.955   4.065
16331SOL     OW50889   9.328   2.559   1.713
16331SOL    HW150890   9.294   2.470   1.708
16331SOL    HW250891   9.419   2.552   1.684
16332SOL     OW50892   7.613   7.930  10.799
16332SOL    HW150893   7.541   7.989  10.819
16332SOL    HW250894   7.690   7.973  10.836
16333SOL     OW50895   6.939  11.469  10.268
16333SOL    HW150896   6.875  11.405  10.300
16333SOL    HW250897   6.943  11.454  10.174
16334SOL     OW50898   3.830  14.619   5.966
16334SOL    HW150899   3.903  14.575   5.923
16334SOL    HW250900   3.853  14.711   5.966
16335SOL     OW50901   6.418  10.591   2.745
16335SOL    HW150902   6.350  10.657   2.728
16335SOL    HW250903   6.415  10.578   2.840
16336SOL     OW50904   8.409  13.282   7.078
16336SOL    HW150905   8.493  13.324   7.095
16336SOL    HW250906   8.393  13.228   7.156
16337SOL     OW50907   6.045   5.872   2.027
16337SOL    HW150908   5.977   5.829   1.977
16337SOL    HW250909   6.062   5.814   2.101
16338SOL     OW50910   5.742   2.140   8.134
16338SOL    HW150911   5.765   2.208   8.070
16338SOL    HW250912   5.695   2.187   8.202
16339SOL     OW50913  10.576   6.228   7.796
16339SOL    HW150914  10.589   6.201   7.887
16339SOL    HW250915  10.661   6.213   7.754
16340SOL     OW50916  13.235  12.331   9.646
16340SOL    HW150917  13.272  12.244   9.663
16340SOL    HW250918  13.181  12.319   9.568
16341SOL     OW50919   0.045   8.410   5.705
16341SOL    HW150920   0.141   8.413   5.709
16341SOL    HW250921   0.025   8.343   5.639
16342SOL     OW50922   2.722   6.734  10.923
16342SOL    HW150923   2.748   6.696  11.007
16342SOL    HW250924   2.804   6.739  10.873
16343SOL     OW50925   6.402  10.115  13.825
16343SOL    HW150926   6.470  10.169  13.864
16343SOL    HW250927   6.424  10.111  13.732
16344SOL     OW50928   6.841   7.836   1.253
16344SOL    HW150929   6.896   7.802   1.324
16344SOL    HW250930   6.893   7.906   1.214
16345SOL     OW50931   4.098   0.103   9.096
16345SOL    HW150932   4.067   0.016   9.124
16345SOL    HW250933   4.091   0.158   9.174
16346SOL     OW50934   8.981  10.681   3.614
16346SOL    HW150935   9.036  10.688   3.536
16346SOL    HW250936   8.905  10.736   3.595
16347SOL     OW50937  10.535   1.837   7.501
16347SOL    HW150938  10.530   1.778   7.577
16347SOL    HW250939  10.627   1.836   7.476
16348SOL     OW50940   9.742   5.173   6.764
16348SOL    HW150941   9.768   5.230   6.691
16348SOL    HW250942   9.661   5.132   6.733
16349SOL     OW50943   0.711  10.820   1.719
16349SOL    HW150944   0.766  10.892   1.689
16349SOL    HW250945   0.637  10.818   1.659
16350SOL     OW50946   7.302   5.115  11.950
16350SOL    HW150947   7.284   5.127  12.043
16350SOL    HW250948   7.243   5.045  11.922
16351SOL     OW50949   8.379   8.243   8.588
16351SOL    HW150950   8.433   8.316   8.616
16351SOL    HW250951   8.337   8.212   8.668
16352SOL     OW50952   2.085   8.732  11.576
16352SOL    HW150953   2.111   8.755  11.665
16352SOL    HW250954   2.021   8.661  11.588
16353SOL     OW50955  13.752   8.568   4.691
16353SOL    HW150956  13.758   8.612   4.607
16353SOL    HW250957  13.672   8.516   4.686
16354SOL     OW50958   4.762   5.920   3.610
16354SOL    HW150959   4.815   5.993   3.577
16354SOL    HW250960   4.784   5.916   3.703
16355SOL     OW50961  11.593   5.790   5.606
16355SOL    HW150962  11.551   5.721   5.658
16355SOL    HW250963  11.533   5.805   5.533
16356SOL     OW50964  11.188  14.063  14.646
16356SOL    HW150965  11.194  14.040  14.739
16356SOL    HW250966  11.116  14.126  14.641
16357SOL     OW50967   9.429  12.258   0.688
16357SOL    HW150968   9.405  12.220   0.603
16357SOL    HW250969   9.346  12.271   0.733
16358SOL     OW50970  12.827  13.340  10.726
16358SOL    HW150971  12.906  13.320  10.676
16358SOL    HW250972  12.767  13.269  10.706
16359SOL     OW50973  12.504   9.594   5.087
16359SOL    HW150974  12.596   9.569   5.085
16359SOL    HW250975  12.500   9.675   5.037
16360SOL     OW50976  11.746  11.265   4.607
16360SOL    HW150977  11.817  11.214   4.568
16360SOL    HW250978  11.703  11.204   4.667
16361SOL     OW50979   6.700   8.690   3.689
16361SOL    HW150980   6.667   8.604   3.715
16361SOL    HW250981   6.783   8.699   3.736
16362SOL     OW50982   3.894   6.671   6.495
16362SOL    HW150983   3.967   6.728   6.474
16362SOL    HW250984   3.903   6.597   6.435
16363SOL     OW50985  13.524   7.244  11.839
16363SOL    HW150986  13.503   7.255  11.746
16363SOL    HW250987  13.465   7.175  11.868
16364SOL     OW50988   1.708   4.282   2.045
16364SOL    HW150989   1.628   4.233   2.067
16364SOL    HW250990   1.715   4.348   2.114
16365SOL     OW50991   4.211  14.552  11.041
16365SOL    HW150992   4.169  14.526  10.959
16365SOL    HW250993   4.211  14.648  11.038
16366SOL     OW50994   6.070   9.321  13.585
16366SOL    HW150995   6.133   9.390  13.604
16366SOL    HW250996   6.012   9.358  13.518
16367SOL     OW50997   9.221   0.178  13.525
16367SOL    HW150998   9.249   0.168  13.434
16367SOL    HW250999   9.133   0.141  13.527
16368SOL     OW51000   9.380   4.835  12.497
16368SOL    HW151001   9.339   4.758  12.535
16368SOL    HW251002   9.469   4.835  12.532
16369SOL     OW51003   4.358   8.607   7.754
16369SOL    HW151004   4.302   8.636   7.682
16369SOL    HW251005   4.440   8.655   7.741
16370SOL     OW51006   4.650   7.293   9.294
16370SOL    HW151007   4.594   7.369   9.314
16370SOL    HW251008   4.605   7.250   9.221
16371SOL     OW51009   8.011   9.061   6.307
16371SOL    HW151010   8.081   9.015   6.353
16371SOL    HW251011   7.948   9.084   6.375
16372SOL     OW51012  14.098   6.344  13.102
16372SOL    HW151013  14.189   6.363  13.078
16372SOL    HW251014  14.102   6.324  13.196
16373SOL     OW51015   7.127   3.756  13.595
16373SOL    HW151016   7.117   3.711  13.511
16373SOL    HW251017   7.221   3.772  13.603
16374SOL     OW51018   4.146   8.544  12.426
16374SOL    HW151019   4.114   8.488  12.497
16374SOL    HW251020   4.241   8.540  12.433
16375SOL     OW51021  13.629   3.473   1.488
16375SOL    HW151022  13.676   3.479   1.571
16375SOL    HW251023  13.586   3.558   1.478
16376SOL     OW51024   6.034  14.404  12.576
16376SOL    HW151025   6.064  14.375  12.490
16376SOL    HW251026   6.034  14.499  12.570
16377SOL     OW51027  12.823  12.836   5.801
16377SOL    HW151028  12.850  12.827   5.709
16377SOL    HW251029  12.794  12.927   5.809
16378SOL     OW51030  10.598  12.085   4.516
16378SOL    HW151031  10.621  12.003   4.558
16378SOL    HW251032  10.568  12.060   4.429
16379SOL     OW51033  13.736   4.884  12.181
16379SOL    HW151034  13.781   4.947  12.238
16379SOL    HW251035  13.698   4.820  12.242
16380SOL     OW51036   8.263  13.481   3.849
16380SOL    HW151037   8.206  13.536   3.795
16380SOL    HW251038   8.202  13.429   3.902
16381SOL     OW51039   1.600   8.770   0.100
16381SOL    HW151040   1.596   8.850   0.047
16381SOL    HW251041   1.572   8.798   0.187
16382SOL     OW51042  14.597  12.877   1.676
16382SOL    HW151043  14.654  12.813   1.634
16382SOL    HW251044  14.649  12.913   1.748
16383SOL     OW51045   1.607   5.548   5.908
16383SOL    HW151046   1.527   5.498   5.893
16383SOL    HW251047   1.653   5.501   5.978
16384SOL     OW51048   6.996  10.576   9.789
16384SOL    HW151049   7.007  10.666   9.820
16384SOL    HW251050   6.940  10.535   9.855
16385SOL     OW51051   4.657  14.862  11.430
16385SOL    HW151052   4.614   0.020  11.512
16385SOL    HW251053   4.591   0.010  11.363
16386SOL     OW51054   3.327   8.243  14.107
16386SOL    HW151055   3.361   8.285  14.186
16386SOL    HW251056   3.301   8.317  14.051
16387SOL     OW51057  14.400   1.374  14.572
16387SOL    HW151058  14.423   1.326  14.652
16387SOL    HW251059  14.386   1.464  14.600
16388SOL     OW51060   4.209   8.651   5.074
16388SOL    HW151061   4.154   8.614   5.143
16388SOL    HW251062   4.152   8.713   5.028
16389SOL     OW51063   9.333   0.155   6.620
16389SOL    HW151064   9.255   0.200   6.588
16389SOL    HW251065   9.300   0.090   6.683
16390SOL     OW51066  14.580   8.090   6.917
16390SOL    HW151067  14.503   8.080   6.972
16390SOL    HW251068  14.567   8.028   6.845
16391SOL     OW51069   9.919   3.635   1.490
16391SOL    HW151070   9.934   3.542   1.504
16391SOL    HW251071   9.975   3.658   1.416
16392SOL     OW51072  14.461   1.050   7.477
16392SOL    HW151073  14.527   1.006   7.423
16392SOL    HW251074  14.491   1.035   7.567
16393SOL     OW51075   6.641   3.221   7.134
16393SOL    HW151076   6.641   3.130   7.103
16393SOL    HW251077   6.731   3.236   7.164
16394SOL     OW51078   7.345   6.634   0.416
16394SOL    HW151079   7.418   6.647   0.477
16394SOL    HW251080   7.381   6.658   0.331
16395SOL     OW51081  10.850   2.918  12.322
16395SOL    HW151082  10.863   3.011  12.304
16395SOL    HW251083  10.754   2.907  12.324
16396SOL     OW51084   8.580   9.509  11.655
16396SOL    HW151085   8.511   9.563  11.696
16396SOL    HW251086   8.646   9.499  11.724
16397SOL     OW51087   6.538  12.022   1.902
16397SOL    HW151088   6.620  12.010   1.853
16397SOL    HW251089   6.516  12.114   1.889
16398SOL     OW51090   0.819   7.373   1.896
16398SOL    HW151091   0.833   7.461   1.860
16398SOL    HW251092   0.813   7.387   1.991
16399SOL     OW51093  13.384   8.341   2.027
16399SOL    HW151094  13.290   8.349   2.015
16399SOL    HW251095  13.408   8.417   2.081
16400SOL     OW51096   6.251  13.273  12.446
16400SOL    HW151097   6.329  13.219  12.438
16400SOL    HW251098   6.209  13.266  12.360
16401SOL     OW51099   6.749  10.670   0.529
16401SOL    HW151100   6.698  10.704   0.455
16401SOL    HW251101   6.840  10.684   0.504
16402SOL     OW51102   1.528   7.471   4.556
16402SOL    HW151103   1.605   7.415   4.549
16402SOL    HW251104   1.534   7.530   4.481
16403SOL     OW51105   1.453  14.633   1.802
16403SOL    HW151106   1.431  14.594   1.886
16403SOL    HW251107   1.548  14.649   1.806
16404SOL     OW51108   7.749   5.628  14.749
16404SOL    HW151109   7.812   5.594  14.685
16404SOL    HW251110   7.729   5.716  14.717
16405SOL     OW51111   7.511   4.582  13.065
16405SOL    HW151112   7.550   4.663  13.032
16405SOL    HW251113   7.436   4.611  13.116
16406SOL     OW51114  11.712  13.837  12.179
16406SOL    HW151115  11.800  13.840  12.143
16406SOL    HW251116  11.706  13.754  12.224
16407SOL     OW51117   9.634   1.541  11.533
16407SOL    HW151118   9.661   1.472  11.473
16407SOL    HW251119   9.586   1.496  11.602
16408SOL     OW51120  14.266   4.086   5.582
16408SOL    HW151121  14.330   4.028   5.623
16408SOL    HW251122  14.263   4.163   5.638
16409SOL     OW51123  10.931  12.756   5.415
16409SOL    HW151124  10.980  12.802   5.483
16409SOL    HW251125  10.962  12.794   5.333
16410SOL     OW51126   9.744   3.186   3.360
16410SOL    HW151127   9.729   3.217   3.271
16410SOL    HW251128   9.803   3.111   3.350
16411SOL     OW51129   3.730  11.099   4.304
16411SOL    HW151130   3.662  11.108   4.237
16411SOL    HW251131   3.804  11.060   4.258
16412SOL     OW51132   7.124  12.714   0.990
16412SOL    HW151133   7.099  12.680   0.905
16412SOL    HW251134   7.107  12.642   1.051
16413SOL     OW51135   6.230   7.399   1.613
16413SOL    HW151136   6.304   7.348   1.579
16413SOL    HW251137   6.271   7.471   1.661
16414SOL     OW51138  11.832   3.919   2.323
16414SOL    HW151139  11.766   3.894   2.387
16414SOL    HW251140  11.911   3.870   2.348
16415SOL     OW51141   6.901  10.437   6.036
16415SOL    HW151142   6.958  10.512   6.016
16415SOL    HW251143   6.905  10.383   5.957
16416SOL     OW51144   9.641  14.037  13.230
16416SOL    HW151145   9.573  14.012  13.293
16416SOL    HW251146   9.599  14.103  13.174
16417SOL     OW51147  14.546  11.840  10.743
16417SOL    HW151148  14.491  11.883  10.678
16417SOL    HW251149  14.493  11.841  10.823
16418SOL     OW51150   0.821  12.537  12.925
16418SOL    HW151151   0.916  12.544  12.916
16418SOL    HW251152   0.802  12.578  13.010
16419SOL     OW51153   6.097  12.960   8.323
16419SOL    HW151154   6.137  13.008   8.396
16419SOL    HW251155   6.075  13.028   8.259
16420SOL     OW51156  12.502  11.056   4.427
16420SOL    HW151157  12.516  11.075   4.519
16420SOL    HW251158  12.414  11.017   4.424
16421SOL     OW51159   7.603   7.000  11.406
16421SOL    HW151160   7.625   7.063  11.338
16421SOL    HW251161   7.614   7.048  11.488
16422SOL     OW51162   3.967  14.088   5.595
16422SOL    HW151163   4.003  14.014   5.546
16422SOL    HW251164   3.873  14.081   5.584
16423SOL     OW51165   0.810   2.006   9.874
16423SOL    HW151166   0.883   2.065   9.852
16423SOL    HW251167   0.740   2.065   9.902
16424SOL     OW51168   5.232  10.745   5.545
16424SOL    HW151169   5.219  10.739   5.451
16424SOL    HW251170   5.152  10.786   5.578
16425SOL     OW51171  11.011  12.268   7.142
16425SOL    HW151172  10.924  12.293   7.111
16425SOL    HW251173  10.999  12.245   7.234
16426SOL     OW51174  10.989  12.239   8.756
16426SOL    HW151175  10.898  12.240   8.726
16426SOL    HW251176  11.024  12.323   8.727
16427SOL     OW51177   4.120   9.226   0.886
16427SOL    HW151178   4.166   9.244   0.968
16427SOL    HW251179   4.149   9.139   0.861
16428SOL     OW51180  12.627   0.000   0.207
16428SOL    HW151181  12.575   0.066   0.161
16428SOL    HW251182  12.670  14.818   0.138
16429SOL     OW51183   0.437   8.183   3.326
16429SOL    HW151184   0.477   8.207   3.242
16429SOL    HW251185   0.411   8.266   3.364
16430SOL     OW51186  13.035   7.533   6.747
16430SOL    HW151187  12.950   7.551   6.787
16430SOL    HW251188  13.015   7.514   6.655
16431SOL     OW51189  13.094  11.776   4.515
16431SOL    HW151190  13.072  11.865   4.545
16431SOL    HW251191  13.062  11.773   4.425
16432SOL     OW51192   4.963   2.053   0.087
16432SOL    HW151193   4.978   2.097   0.170
16432SOL    HW251194   4.887   2.097   0.050
16433SOL     OW51195   6.255   5.813  12.736
16433SOL    HW151196   6.265   5.849  12.824
16433SOL    HW251197   6.343   5.818  12.699
16434SOL     OW51198   3.188  10.532   6.352
16434SOL    HW151199   3.158  10.485   6.274
16434SOL    HW251200   3.246  10.469   6.396
16435SOL     OW51201   2.993   5.088   5.833
16435SOL    HW151202   3.070   5.044   5.869
16435SOL    HW251203   2.986   5.169   5.884
16436SOL     OW51204  11.890   2.430   8.196
16436SOL    HW151205  11.974   2.410   8.156
16436SOL    HW251206  11.833   2.453   8.123
16437SOL     OW51207   0.273   1.913  14.571
16437SOL    HW151208   0.355   1.892  14.526
16437SOL    HW251209   0.227   1.829  14.579
16438SOL     OW51210  10.090   0.415   3.245
16438SOL    HW151211  10.082   0.352   3.173
16438SOL    HW251212  10.127   0.493   3.204
16439SOL     OW51213  11.047   3.615  13.022
16439SOL    HW151214  11.136   3.591  12.998
16439SOL    HW251215  10.995   3.537  13.004
16440SOL     OW51216  14.040  11.810   8.585
16440SOL    HW151217  14.111  11.861   8.545
16440SOL    HW251218  14.085  11.741   8.633
16441SOL     OW51219   2.323  11.729   6.780
16441SOL    HW151220   2.349  11.646   6.737
16441SOL    HW251221   2.269  11.773   6.715
16442SOL     OW51222  13.006  12.294  11.849
16442SOL    HW151223  12.926  12.258  11.887
16442SOL    HW251224  12.978  12.372  11.802
16443SOL     OW51225   3.847  12.054  14.619
16443SOL    HW151226   3.753  12.038  14.620
16443SOL    HW251227   3.866  12.084  14.530
16444SOL     OW51228   0.206  12.117   0.292
16444SOL    HW151229   0.174  12.205   0.307
16444SOL    HW251230   0.269  12.101   0.363
16445SOL     OW51231  10.507   5.431   8.738
16445SOL    HW151232  10.422   5.403   8.771
16445SOL    HW251233  10.502   5.526   8.735
16446SOL     OW51234   1.148   0.890   2.555
16446SOL    HW151235   1.236   0.882   2.518
16446SOL    HW251236   1.106   0.806   2.537
16447SOL     OW51237   4.906   6.101  14.577
16447SOL    HW151238   4.840   6.146  14.629
16447SOL    HW251239   4.985   6.154  14.588
16448SOL     OW51240   8.732   3.742   9.111
16448SOL    HW151241   8.681   3.693   9.047
16448SOL    HW251242   8.690   3.828   9.114
16449SOL     OW51243   0.545   3.906   5.515
16449SOL    HW151244   0.613   3.948   5.462
16449SOL    HW251245   0.504   3.978   5.563
16450SOL     OW51246  13.678   0.136   7.022
16450SOL    HW151247  13.655   0.224   6.991
16450SOL    HW251248  13.773   0.138   7.031
16451SOL     OW51249  12.643  10.567   1.957
16451SOL    HW151250  12.717  10.507   1.953
16451SOL    HW251251  12.571  10.520   1.915
16452SOL     OW51252   3.356   4.476   0.121
16452SOL    HW151253   3.310   4.401   0.158
16452SOL    HW251254   3.443   4.474   0.162
16453SOL     OW51255  14.328   1.787   2.471
16453SOL    HW151256  14.363   1.822   2.553
16453SOL    HW251257  14.360   1.847   2.403
16454SOL     OW51258   8.786  12.995   9.068
16454SOL    HW151259   8.804  13.071   9.124
16454SOL    HW251260   8.691  12.984   9.073
16455SOL     OW51261   3.807   6.983   5.624
16455SOL    HW151262   3.814   6.889   5.609
16455SOL    HW251263   3.722   7.007   5.586
16456SOL     OW51264  13.851  14.686  11.642
16456SOL    HW151265  13.823  14.659  11.554
16456SOL    HW251266  13.772  14.721  11.682
16457SOL     OW51267  13.279   2.462   7.588
16457SOL    HW151268  13.265   2.402   7.514
16457SOL    HW251269  13.372   2.455   7.607
16458SOL     OW51270   2.096   4.753   1.815
16458SOL    HW151271   2.073   4.821   1.751
16458SOL    HW251272   2.187   4.771   1.838
16459SOL     OW51273   0.855  10.700   0.221
16459SOL    HW151274   0.804  10.747   0.287
16459SOL    HW251275   0.867  10.612   0.259
16460SOL     OW51276  10.274   0.226  12.235
16460SOL    HW151277  10.225   0.298  12.195
16460SOL    HW251278  10.337   0.270  12.293
16461SOL     OW51279  12.161   1.480  13.081
16461SOL    HW151280  12.199   1.458  13.166
16461SOL    HW251281  12.102   1.407  13.062
16462SOL     OW51282   6.269   5.691   5.018
16462SOL    HW151283   6.280   5.764   4.958
16462SOL    HW251284   6.228   5.622   4.965
16463SOL     OW51285   5.475   9.428  10.113
16463SOL    HW151286   5.511   9.466  10.033
16463SOL    HW251287   5.399   9.377  10.084
16464SOL     OW51288   6.774  14.760  14.841
16464SOL    HW151289   6.745  14.685  14.788
16464SOL    HW251290   6.694  14.810  14.858
16465SOL     OW51291   0.694  12.981  11.691
16465SOL    HW151292   0.669  13.005  11.780
16465SOL    HW251293   0.783  13.016  11.681
16466SOL     OW51294  12.125  11.380   4.421
16466SOL    HW151295  12.214  11.401   4.392
16466SOL    HW251296  12.085  11.465   4.440
16467SOL     OW51297   9.892   3.729  10.033
16467SOL    HW151298   9.896   3.692   9.945
16467SOL    HW251299   9.945   3.809  10.027
16468SOL     OW51300   7.553  11.715   5.275
16468SOL    HW151301   7.609  11.708   5.352
16468SOL    HW251302   7.588  11.790   5.227
16469SOL     OW51303   3.345   7.587   4.642
16469SOL    HW151304   3.381   7.577   4.730
16469SOL    HW251305   3.306   7.674   4.641
16470SOL     OW51306   0.016   8.885   7.083
16470SOL    HW151307   0.081   8.934   7.132
16470SOL    HW251308   0.002   8.936   7.004
16471SOL     OW51309  12.088  10.113   6.457
16471SOL    HW151310  12.016  10.150   6.407
16471SOL    HW251311  12.120  10.040   6.404
16472SOL     OW51312   8.147   9.017   9.821
16472SOL    HW151313   8.157   9.103   9.781
16472SOL    HW251314   8.218   9.011   9.884
16473SOL     OW51315   0.216   9.198   5.072
16473SOL    HW151316   0.203   9.120   5.018
16473SOL    HW251317   0.248   9.164   5.155
16474SOL     OW51318   2.008   3.562   1.879
16474SOL    HW151319   2.084   3.510   1.907
16474SOL    HW251320   2.019   3.647   1.921
16475SOL     OW51321   5.246  13.090   7.770
16475SOL    HW151322   5.166  13.041   7.783
16475SOL    HW251323   5.287  13.050   7.693
16476SOL     OW51324   9.470   7.495   9.922
16476SOL    HW151325   9.534   7.562   9.898
16476SOL    HW251326   9.489   7.422   9.863
16477SOL     OW51327  11.736  11.525   3.944
16477SOL    HW151328  11.708  11.494   4.030
16477SOL    HW251329  11.780  11.450   3.904
16478SOL     OW51330   8.895  11.804  13.495
16478SOL    HW151331   8.909  11.819  13.589
16478SOL    HW251332   8.913  11.710  13.483
16479SOL     OW51333   9.894  13.120   1.454
16479SOL    HW151334   9.850  13.052   1.403
16479SOL    HW251335   9.975  13.137   1.406
16480SOL     OW51336   7.167   5.069   7.217
16480SOL    HW151337   7.141   5.018   7.294
16480SOL    HW251338   7.200   5.152   7.253
16481SOL     OW51339  13.789  11.219  12.686
16481SOL    HW151340  13.799  11.291  12.624
16481SOL    HW251341  13.701  11.185  12.669
16482SOL     OW51342   3.518  10.907  10.933
16482SOL    HW151343   3.485  10.930  11.020
16482SOL    HW251344   3.440  10.874  10.887
16483SOL     OW51345   6.882   5.772   9.767
16483SOL    HW151346   6.866   5.693   9.819
16483SOL    HW251347   6.977   5.783   9.770
16484SOL     OW51348   8.410   5.765  14.475
16484SOL    HW151349   8.414   5.677  14.511
16484SOL    HW251350   8.317   5.786  14.471
16485SOL     OW51351   0.039   3.660   0.039
16485SOL    HW151352   0.028   3.617  14.822
16485SOL    HW251353   0.043   3.588   0.102
16486SOL     OW51354   7.672  13.876  10.195
16486SOL    HW151355   7.663  13.967  10.222
16486SOL    HW251356   7.766  13.862  10.186
16487SOL     OW51357  12.493  13.541  12.094
16487SOL    HW151358  12.446  13.483  12.154
16487SOL    HW251359  12.500  13.624  12.142
16488SOL     OW51360   2.641   7.517   6.582
16488SOL    HW151361   2.625   7.570   6.661
16488SOL    HW251362   2.728   7.544   6.552
16489SOL     OW51363  14.316   7.552   3.373
16489SOL    HW151364  14.271   7.515   3.449
16489SOL    HW251365  14.400   7.583   3.407
16490SOL     OW51366  14.349   2.302   8.792
16490SOL    HW151367  14.417   2.259   8.741
16490SOL    HW251368  14.279   2.237   8.800
16491SOL     OW51369   1.533  11.283   4.067
16491SOL    HW151370   1.617  11.285   4.022
16491SOL    HW251371   1.541  11.212   4.131
16492SOL     OW51372   1.537   8.778   7.002
16492SOL    HW151373   1.502   8.866   6.993
16492SOL    HW251374   1.462   8.725   7.030
16493SOL     OW51375   8.429   1.784   3.082
16493SOL    HW151376   8.403   1.796   2.990
16493SOL    HW251377   8.518   1.820   3.086
16494SOL     OW51378   4.303   5.383   2.094
16494SOL    HW151379   4.320   5.436   2.016
16494SOL    HW251380   4.257   5.306   2.061
16495SOL     OW51381   9.409  10.423  12.009
16495SOL    HW151382   9.425  10.348  11.953
16495SOL    HW251383   9.497  10.453  12.035
16496SOL     OW51384   0.817   2.333   6.814
16496SOL    HW151385   0.854   2.371   6.894
16496SOL    HW251386   0.750   2.396   6.788
16497SOL     OW51387   3.749  13.387   6.798
16497SOL    HW151388   3.743  13.297   6.830
16497SOL    HW251389   3.842  13.401   6.783
16498SOL     OW51390   2.017  12.683  14.287
16498SOL    HW151391   2.093  12.734  14.260
16498SOL    HW251392   1.973  12.660  14.204
16499SOL     OW51393  10.987   1.548  11.468
16499SOL    HW151394  11.052   1.548  11.397
16499SOL    HW251395  11.019   1.482  11.530
16500SOL     OW51396   4.157   3.577  13.008
16500SOL    HW151397   4.100   3.641  12.965
16500SOL    HW251398   4.241   3.621  13.016
16501SOL     OW51399  11.406  13.993  10.002
16501SOL    HW151400  11.482  13.995   9.943
16501SOL    HW251401  11.353  13.920   9.969
16502SOL     OW51402   4.688   6.319  13.473
16502SOL    HW151403   4.782   6.312  13.490
16502SOL    HW251404   4.647   6.303  13.558
16503SOL     OW51405   6.931   1.765   1.836
16503SOL    HW151406   6.859   1.747   1.897
16503SOL    HW251407   6.951   1.858   1.850
16504SOL     OW51408   2.004   3.011  14.049
16504SOL    HW151409   1.947   2.933  14.045
16504SOL    HW251410   2.093   2.975  14.051
16505SOL     OW51411   7.424   0.306   3.708
16505SOL    HW151412   7.500   0.292   3.652
16505SOL    HW251413   7.386   0.388   3.676
16506SOL     OW51414  10.895  12.719   7.658
16506SOL    HW151415  10.856  12.804   7.674
16506SOL    HW251416  10.948  12.732   7.579
16507SOL     OW51417  14.299  11.380   8.528
16507SOL    HW151418  14.221  11.365   8.580
16507SOL    HW251419  14.276  11.349   8.440
16508SOL     OW51420   8.113  13.392   0.564
16508SOL    HW151421   8.089  13.393   0.656
16508SOL    HW251422   8.118  13.484   0.539
16509SOL     OW51423   8.036   1.094  14.198
16509SOL    HW151424   8.072   1.166  14.145
16509SOL    HW251425   7.953   1.129  14.232
16510SOL     OW51426   2.545  11.806   9.744
16510SOL    HW151427   2.602  11.879   9.768
16510SOL    HW251428   2.464  11.847   9.714
16511SOL     OW51429   0.716  11.479  10.406
16511SOL    HW151430   0.724  11.522  10.491
16511SOL    HW251431   0.626  11.448  10.404
16512SOL     OW51432   0.844   0.873  10.081
16512SOL    HW151433   0.765   0.863  10.134
16512SOL    HW251434   0.831   0.815  10.006
16513SOL     OW51435   4.760  13.271  10.469
16513SOL    HW151436   4.764  13.338  10.537
16513SOL    HW251437   4.683  13.294  10.417
16514SOL     OW51438   0.639   2.513   5.267
16514SOL    HW151439   0.569   2.498   5.330
16514SOL    HW251440   0.594   2.533   5.185
16515SOL     OW51441  12.727   1.768   1.416
16515SOL    HW151442  12.784   1.828   1.367
16515SOL    HW251443  12.695   1.706   1.349
16516SOL     OW51444   4.178   9.779   9.599
16516SOL    HW151445   4.206   9.804   9.512
16516SOL    HW251446   4.089   9.745   9.587
16517SOL     OW51447   3.909   0.195   0.754
16517SOL    HW151448   3.834   0.141   0.728
16517SOL    HW251449   3.870   0.271   0.797
16518SOL     OW51450  12.254  10.023  11.226
16518SOL    HW151451  12.205  10.100  11.197
16518SOL    HW251452  12.336  10.059  11.262
16519SOL     OW51453   7.428   6.733  13.958
16519SOL    HW151454   7.384   6.730  13.873
16519SOL    HW251455   7.357   6.732  14.022
16520SOL     OW51456   1.625  12.422   8.989
16520SOL    HW151457   1.677  12.483   8.937
16520SOL    HW251458   1.577  12.370   8.924
16521SOL     OW51459   6.704  12.993   6.313
16521SOL    HW151460   6.637  12.968   6.376
16521SOL    HW251461   6.657  13.004   6.230
16522SOL     OW51462   8.077   7.290   1.165
16522SOL    HW151463   8.139   7.354   1.197
16522SOL    HW251464   8.118   7.205   1.182
16523SOL     OW51465   7.418   5.891   1.655
16523SOL    HW151466   7.369   5.809   1.653
16523SOL    HW251467   7.354   5.958   1.633
16524SOL     OW51468  14.231  14.127  11.028
16524SOL    HW151469  14.269  14.112  11.115
16524SOL    HW251470  14.262  14.215  11.004
16525SOL     OW51471  12.595   6.492   2.003
16525SOL    HW151472  12.572   6.581   1.975
16525SOL    HW251473  12.530   6.471   2.070
16526SOL     OW51474   6.840  14.241  12.424
16526SOL    HW151475   6.817  14.208  12.337
16526SOL    HW251476   6.899  14.314  12.408
16527SOL     OW51477   0.660   3.307  13.555
16527SOL    HW151478   0.753   3.309  13.532
16527SOL    HW251479   0.622   3.382  13.509
16528SOL     OW51480   5.321   1.743  11.253
16528SOL    HW151481   5.301   1.653  11.279
16528SOL    HW251482   5.238   1.790  11.264
16529SOL     OW51483  11.660   0.923   0.745
16529SOL    HW151484  11.596   0.918   0.673
16529SOL    HW251485  11.693   0.833   0.753
16530SOL     OW51486   5.595  12.912   7.236
16530SOL    HW151487   5.623  12.988   7.186
16530SOL    HW251488   5.512  12.886   7.195
16531SOL     OW51489  12.308  13.961  11.023
16531SOL    HW151490  12.295  13.955  11.118
16531SOL    HW251491  12.220  13.959  10.986
16532SOL     OW51492   5.696   1.937   0.812
16532SOL    HW151493   5.695   1.994   0.734
16532SOL    HW251494   5.756   1.980   0.872
16533SOL     OW51495   7.547   7.345   6.965
16533SOL    HW151496   7.503   7.278   6.912
16533SOL    HW251497   7.477   7.403   6.994
16534SOL     OW51498   7.453   2.720   8.222
16534SOL    HW151499   7.487   2.792   8.275
16534SOL    HW251500   7.400   2.669   8.282
16535SOL     OW51501   2.424  11.690  14.258
16535SOL    HW151502   2.496  11.753  14.255
16535SOL    HW251503   2.427  11.647  14.173
16536SOL     OW51504   3.576  12.611   1.431
16536SOL    HW151505   3.633  12.617   1.354
16536SOL    HW251506   3.631  12.570   1.497
16537SOL     OW51507  13.858  10.841   9.670
16537SOL    HW151508  13.920  10.912   9.686
16537SOL    HW251509  13.827  10.817   9.757
16538SOL     OW51510   3.597  14.453  10.508
16538SOL    HW151511   3.652  14.383  10.473
16538SOL    HW251512   3.656  14.505  10.562
16539SOL     OW51513  14.389  10.590  13.801
16539SOL    HW151514  14.355  10.677  13.821
16539SOL    HW251515  14.315  10.531  13.819
16540SOL     OW51516   2.820  11.807   0.499
16540SOL    HW151517   2.835  11.722   0.457
16540SOL    HW251518   2.745  11.844   0.453
16541SOL     OW51519   3.291   2.882   9.487
16541SOL    HW151520   3.203   2.892   9.452
16541SOL    HW251521   3.297   2.790   9.513
16542SOL     OW51522   1.054  12.831  13.399
16542SOL    HW151523   1.145  12.855  13.419
16542SOL    HW251524   1.001  12.886  13.457
16543SOL     OW51525   6.327   7.494   1.891
16543SOL    HW151526   6.368   7.576   1.867
16543SOL    HW251527   6.257   7.519   1.952
16544SOL     OW51528   3.915   3.208  14.486
16544SOL    HW151529   3.830   3.238  14.516
16544SOL    HW251530   3.978   3.259  14.537
16545SOL     OW51531  11.705  10.416   6.812
16545SOL    HW151532  11.658  10.379   6.737
16545SOL    HW251533  11.750  10.492   6.777
16546SOL     OW51534   4.168   0.960  10.504
16546SOL    HW151535   4.203   1.023  10.441
16546SOL    HW251536   4.224   0.970  10.581
16547SOL     OW51537   9.787   2.560   3.829
16547SOL    HW151538   9.766   2.639   3.779
16547SOL    HW251539   9.709   2.505   3.821
16548SOL     OW51540  10.957   4.056  10.341
16548SOL    HW151541  10.865   4.029  10.338
16548SOL    HW251542  10.970   4.087  10.430
16549SOL     OW51543   3.118  12.219  13.451
16549SOL    HW151544   3.100  12.312  13.463
16549SOL    HW251545   3.132  12.208  13.357
16550SOL     OW51546   6.005   3.127   9.669
16550SOL    HW151547   5.948   3.058   9.635
16550SOL    HW251548   5.951   3.173   9.732
16551SOL     OW51549   8.556  12.323   2.297
16551SOL    HW151550   8.615  12.292   2.228
16551SOL    HW251551   8.494  12.380   2.252
16552SOL     OW51552   9.493   7.628  13.246
16552SOL    HW151553   9.460   7.683  13.175
16552SOL    HW251554   9.426   7.634  13.314
16553SOL     OW51555  10.687   2.447   6.191
16553SOL    HW151556  10.648   2.516   6.138
16553SOL    HW251557  10.615   2.389   6.213
16554SOL     OW51558  13.119   8.806  13.924
16554SOL    HW151559  13.148   8.855  14.002
16554SOL    HW251560  13.151   8.717  13.939
16555SOL     OW51561  13.218  12.104   4.791
16555SOL    HW151562  13.136  12.069   4.827
16555SOL    HW251563  13.255  12.031   4.741
16556SOL     OW51564   0.989   7.450  12.101
16556SOL    HW151565   1.033   7.366  12.088
16556SOL    HW251566   0.903   7.427  12.138
16557SOL     OW51567  11.176   8.393   2.218
16557SOL    HW151568  11.234   8.360   2.150
16557SOL    HW251569  11.145   8.314   2.263
16558SOL     OW51570   4.084  13.071   0.138
16558SOL    HW151571   4.134  13.005   0.185
16558SOL    HW251572   4.149  13.138   0.114
16559SOL     OW51573   9.447   7.287  12.563
16559SOL    HW151574   9.486   7.315  12.645
16559SOL    HW251575   9.459   7.361  12.504
16560SOL     OW51576   6.837   2.278   8.087
16560SOL    HW151577   6.885   2.260   8.167
16560SOL    HW251578   6.894   2.247   8.017
16561SOL     OW51579  11.961  12.011   9.864
16561SOL    HW151580  11.957  11.955   9.787
16561SOL    HW251581  11.949  11.952   9.938
16562SOL     OW51582  13.575  14.489  14.171
16562SOL    HW151583  13.647  14.456  14.118
16562SOL    HW251584  13.514  14.416  14.179
16563SOL     OW51585  12.879   4.998   9.222
16563SOL    HW151586  12.867   4.925   9.161
16563SOL    HW251587  12.830   4.972   9.300
16564SOL     OW51588  12.527   5.834  12.549
16564SOL    HW151589  12.557   5.924  12.537
16564SOL    HW251590  12.441   5.832  12.505
16565SOL     OW51591  11.567   9.368  14.014
16565SOL    HW151592  11.653   9.327  14.011
16565SOL    HW251593  11.509   9.306  13.969
16566SOL     OW51594   9.451   0.902   8.424
16566SOL    HW151595   9.393   0.825   8.424
16566SOL    HW251596   9.433   0.946   8.341
16567SOL     OW51597   6.837  12.523   1.939
16567SOL    HW151598   6.919  12.491   1.978
16567SOL    HW251599   6.865  12.584   1.871
16568SOL     OW51600   5.759   0.424   9.657
16568SOL    HW151601   5.796   0.508   9.628
16568SOL    HW251602   5.677   0.416   9.608
16569SOL     OW51603   0.299  12.984  10.581
16569SOL    HW151604   0.227  13.031  10.539
16569SOL    HW251605   0.341  13.050  10.637
16570SOL     OW51606  11.502   3.319  12.316
16570SOL    HW151607  11.541   3.231  12.320
16570SOL    HW251608  11.485   3.342  12.407
16571SOL     OW51609   4.635  13.033  12.686
16571SOL    HW151610   4.589  13.076  12.614
16571SOL    HW251611   4.596  12.945  12.690
16572SOL     OW51612   1.008   7.650  13.936
16572SOL    HW151613   1.081   7.682  13.989
16572SOL    HW251614   1.048   7.627  13.852
16573SOL     OW51615   0.558  12.646   4.063
16573SOL    HW151616   0.557  12.571   4.122
16573SOL    HW251617   0.470  12.647   4.025
16574SOL     OW51618  12.179   2.747   9.166
16574SOL    HW151619  12.221   2.740   9.252
16574SOL    HW251620  12.153   2.657   9.145
16575SOL     OW51621   2.932  13.188   2.347
16575SOL    HW151622   2.859  13.193   2.284
16575SOL    HW251623   3.004  13.151   2.296
16576SOL     OW51624  14.481  14.198   4.030
16576SOL    HW151625  14.458  14.177   3.939
16576SOL    HW251626  14.404  14.241   4.065
16577SOL     OW51627   5.053   4.026  12.897
16577SOL    HW151628   5.111   4.049  12.970
16577SOL    HW251629   4.999   4.104  12.883
16578SOL     OW51630  13.842  11.635  13.890
16578SOL    HW151631  13.844  11.574  13.817
16578SOL    HW251632  13.859  11.581  13.967
16579SOL     OW51633   6.677   7.954   9.529
16579SOL    HW151634   6.744   8.019   9.511
16579SOL    HW251635   6.672   7.902   9.449
16580SOL     OW51636  13.111   6.674   3.492
16580SOL    HW151637  13.127   6.626   3.573
16580SOL    HW251638  13.199   6.690   3.456
16581SOL     OW51639  11.267  11.484   7.622
16581SOL    HW151640  11.258  11.576   7.644
16581SOL    HW251641  11.226  11.438   7.695
16582SOL     OW51642   6.878  10.062  11.878
16582SOL    HW151643   6.870   9.995  11.946
16582SOL    HW251644   6.908  10.013  11.801
16583SOL     OW51645   1.789   7.824   6.791
16583SOL    HW151646   1.804   7.860   6.703
16583SOL    HW251647   1.857   7.758   6.801
16584SOL     OW51648   0.042   1.074   6.718
16584SOL    HW151649  14.844   1.009   6.743
16584SOL    HW251650   0.011   1.156   6.757
16585SOL     OW51651  14.403   6.245  14.562
16585SOL    HW151652  14.468   6.191  14.516
16585SOL    HW251653  14.424   6.234  14.655
16586SOL     OW51654   7.518   5.960   7.681
16586SOL    HW151655   7.569   5.892   7.724
16586SOL    HW251656   7.450   5.913   7.632
16587SOL     OW51657   6.172  12.043   8.503
16587SOL    HW151658   6.126  12.017   8.583
16587SOL    HW251659   6.183  12.137   8.510
16588SOL     OW51660   6.206   0.729  10.643
16588SOL    HW151661   6.264   0.804  10.651
16588SOL    HW251662   6.125   0.757  10.685
16589SOL     OW51663   3.927   4.637  14.270
16589SOL    HW151664   3.868   4.590  14.329
16589SOL    HW251665   3.870   4.700  14.225
16590SOL     OW51666   4.120   0.262   6.854
16590SOL    HW151667   4.065   0.322   6.904
16590SOL    HW251668   4.207   0.273   6.893
16591SOL     OW51669  14.516   1.906   5.700
16591SOL    HW151670  14.606   1.936   5.706
16591SOL    HW251671  14.467   1.982   5.668
16592SOL     OW51672  13.790   1.347   4.913
16592SOL    HW151673  13.700   1.318   4.926
16592SOL    HW251674  13.808   1.403   4.988
16593SOL     OW51675   3.008  11.007   4.589
16593SOL    HW151676   2.998  11.038   4.679
16593SOL    HW251677   3.103  10.997   4.578
16594SOL     OW51678   1.442   6.518   2.881
16594SOL    HW151679   1.471   6.429   2.860
16594SOL    HW251680   1.521   6.560   2.916
16595SOL     OW51681   7.182   3.492   6.272
16595SOL    HW151682   7.088   3.488   6.287
16595SOL    HW251683   7.199   3.583   6.251
16596SOL     OW51684   7.781   6.448   5.878
16596SOL    HW151685   7.825   6.524   5.915
16596SOL    HW251686   7.728   6.413   5.949
16597SOL     OW51687  14.373   3.684   7.663
16597SOL    HW151688  14.438   3.650   7.602
16597SOL    HW251689  14.381   3.627   7.740
16598SOL     OW51690   3.681   7.885  14.019
16598SOL    HW151691   3.619   7.848  14.082
16598SOL    HW251692   3.694   7.975  14.048
16599SOL     OW51693  14.740   8.088   1.585
16599SOL    HW151694  14.825   8.103   1.545
16599SOL    HW251695  14.677   8.102   1.514
16600SOL     OW51696  12.674   9.056  14.167
16600SOL    HW151697  12.675   9.151  14.179
16600SOL    HW251698  12.664   9.021  14.256
16601SOL     OW51699   7.662  10.661   7.364
16601SOL    HW151700   7.696  10.701   7.444
16601SOL    HW251701   7.596  10.723   7.333
16602SOL     OW51702   6.682   5.923   1.492
16602SOL    HW151703   6.689   5.858   1.562
16602SOL    HW251704   6.606   5.896   1.441
16603SOL     OW51705   8.670   6.938   4.206
16603SOL    HW151706   8.670   6.935   4.110
16603SOL    HW251707   8.725   7.013   4.228
16604SOL     OW51708   6.786   6.232   8.744
16604SOL    HW151709   6.714   6.204   8.689
16604SOL    HW251710   6.838   6.153   8.759
16605SOL     OW51711  14.038   3.348  14.437
16605SOL    HW151712  14.071   3.373  14.351
16605SOL    HW251713  13.945   3.327  14.423
16606SOL     OW51714   4.883  11.604  13.809
16606SOL    HW151715   4.947  11.672  13.831
16606SOL    HW251716   4.833  11.591  13.889
16607SOL     OW51717   8.278  13.476   1.446
16607SOL    HW151718   8.283  13.538   1.373
16607SOL    HW251719   8.306  13.392   1.408
16608SOL     OW51720   7.375   7.817   2.382
16608SOL    HW151721   7.327   7.892   2.416
16608SOL    HW251722   7.415   7.776   2.459
16609SOL     OW51723   5.028   8.888  12.196
16609SOL    HW151724   4.967   8.863  12.266
16609SOL    HW251725   5.008   8.980  12.179
16610SOL     OW51726   9.394   8.001   1.666
16610SOL    HW151727   9.393   7.999   1.762
16610SOL    HW251728   9.332   7.934   1.640
16611SOL     OW51729   9.588  13.510   1.720
16611SOL    HW151730   9.625  13.434   1.674
16611SOL    HW251731   9.631  13.509   1.805
16612SOL     OW51732   8.341   3.889   0.124
16612SOL    HW151733   8.374   3.976   0.144
16612SOL    HW251734   8.418   3.840   0.093
16613SOL     OW51735  12.644   3.706   1.420
16613SOL    HW151736  12.623   3.792   1.384
16613SOL    HW251737  12.558   3.664   1.434
16614SOL     OW51738  10.756   6.867   4.446
16614SOL    HW151739  10.715   6.953   4.446
16614SOL    HW251740  10.788   6.856   4.356
16615SOL     OW51741   3.362   1.708   4.397
16615SOL    HW151742   3.355   1.655   4.317
16615SOL    HW251743   3.400   1.648   4.461
16616SOL     OW51744  12.780  13.802  10.303
16616SOL    HW151745  12.721  13.875  10.323
16616SOL    HW251746  12.838  13.836  10.235
16617SOL     OW51747  10.144  13.871   2.449
16617SOL    HW151748  10.112  13.961   2.460
16617SOL    HW251749  10.239  13.879   2.455
16618SOL     OW51750   3.797   2.642  14.830
16618SOL    HW151751   3.790   2.645   0.058
16618SOL    HW251752   3.728   2.582  14.802
16619SOL     OW51753   7.678   5.602   0.142
16619SOL    HW151754   7.663   5.508   0.128
16619SOL    HW251755   7.689   5.637   0.053
16620SOL     OW51756   2.053   4.691   3.684
16620SOL    HW151757   2.077   4.707   3.776
16620SOL    HW251758   1.987   4.758   3.664
16621SOL     OW51759  13.182  12.366   9.007
16621SOL    HW151760  13.192  12.393   9.099
16621SOL    HW251761  13.094  12.329   9.003
16622SOL     OW51762   0.026  11.251   4.056
16622SOL    HW151763   0.080  11.254   3.977
16622SOL    HW251764   0.049  11.168   4.098
16623SOL     OW51765   1.363   6.144  13.617
16623SOL    HW151766   1.437   6.204  13.621
16623SOL    HW251767   1.287   6.197  13.641
16624SOL     OW51768   7.491  14.655   2.888
16624SOL    HW151769   7.563  14.670   2.827
16624SOL    HW251770   7.491  14.560   2.902
16625SOL     OW51771  14.800   3.518   5.392
16625SOL    HW151772   0.012   3.558   5.427
16625SOL    HW251773  14.748   3.591   5.360
16626SOL     OW51774   4.442   6.947   8.175
16626SOL    HW151775   4.520   6.935   8.121
16626SOL    HW251776   4.471   6.930   8.265
16627SOL     OW51777   4.309   9.446   3.127
16627SOL    HW151778   4.388   9.392   3.136
16627SOL    HW251779   4.338   9.523   3.078
16628SOL     OW51780   6.771   1.352   8.821
16628SOL    HW151781   6.791   1.272   8.870
16628SOL    HW251782   6.820   1.421   8.868
16629SOL     OW51783  11.147   6.317   8.821
16629SOL    HW151784  11.232   6.273   8.825
16629SOL    HW251785  11.167   6.406   8.792
16630SOL     OW51786  13.119   0.149  12.587
16630SOL    HW151787  13.207   0.171  12.617
16630SOL    HW251788  13.108   0.057  12.610
16631SOL     OW51789   9.626   6.147  14.399
16631SOL    HW151790   9.641   6.242  14.389
16631SOL    HW251791   9.584   6.138  14.485
16632SOL     OW51792  10.931  10.210  11.157
16632SOL    HW151793  10.924  10.185  11.249
16632SOL    HW251794  10.887  10.139  11.110
16633SOL     OW51795   6.909  11.255   0.218
16633SOL    HW151796   6.918  11.312   0.294
16633SOL    HW251797   6.988  11.200   0.220
16634SOL     OW51798  14.492   5.722   0.523
16634SOL    HW151799  14.420   5.668   0.556
16634SOL    HW251800  14.544   5.742   0.601
16635SOL     OW51801   0.832   4.170   0.444
16635SOL    HW151802   0.798   4.172   0.533
16635SOL    HW251803   0.925   4.154   0.454
16636SOL     OW51804  11.670  14.848  14.177
16636SOL    HW151805  11.602   0.046  14.186
16636SOL    HW251806  11.750   0.030  14.160
16637SOL     OW51807   9.195  10.340   1.272
16637SOL    HW151808   9.204  10.419   1.326
16637SOL    HW251809   9.209  10.268   1.333
16638SOL     OW51810   6.811   3.686   5.103
16638SOL    HW151811   6.735   3.704   5.048
16638SOL    HW251812   6.850   3.771   5.119
16639SOL     OW51813  12.880   6.208  14.287
16639SOL    HW151814  12.966   6.247  14.271
16639SOL    HW251815  12.880   6.128  14.234
16640SOL     OW51816   1.817  14.423  12.381
16640SOL    HW151817   1.880  14.406  12.311
16640SOL    HW251818   1.740  14.458  12.335
16641SOL     OW51819   7.406   3.925   7.388
16641SOL    HW151820   7.322   3.969   7.398
16641SOL    HW251821   7.410   3.902   7.295
16642SOL     OW51822   0.355  14.154   5.284
16642SOL    HW151823   0.391  14.200   5.360
16642SOL    HW251824   0.273  14.200   5.265
16643SOL     OW51825   5.495  10.395   9.519
16643SOL    HW151826   5.465  10.357   9.602
16643SOL    HW251827   5.504  10.321   9.460
16644SOL     OW51828  12.577   4.726   7.064
16644SOL    HW151829  12.622   4.806   7.092
16644SOL    HW251830  12.571   4.735   6.969
16645SOL     OW51831  12.219   5.297  13.636
16645SOL    HW151832  12.314   5.299  13.623
16645SOL    HW251833  12.208   5.299  13.731
16646SOL     OW51834   6.732  10.624  13.082
16646SOL    HW151835   6.717  10.678  13.159
16646SOL    HW251836   6.697  10.675  13.009
16647SOL     OW51837   2.109  10.494   4.592
16647SOL    HW151838   2.177  10.521   4.530
16647SOL    HW251839   2.158  10.455   4.665
16648SOL     OW51840  14.458   0.481   3.278
16648SOL    HW151841  14.473   0.466   3.185
16648SOL    HW251842  14.538   0.450   3.321
16649SOL     OW51843   7.558  10.439  12.298
16649SOL    HW151844   7.493  10.411  12.363
16649SOL    HW251845   7.530  10.527  12.273
16650SOL     OW51846   2.892   7.468   2.979
16650SOL    HW151847   2.867   7.460   3.072
16650SOL    HW251848   2.986   7.487   2.981
16651SOL     OW51849  12.986  12.458  14.060
16651SOL    HW151850  12.974  12.407  13.980
16651SOL    HW251851  12.957  12.400  14.131
16652SOL     OW51852   9.826  12.316  11.635
16652SOL    HW151853   9.899  12.277  11.587
16652SOL    HW251854   9.753  12.315  11.572
16653SOL     OW51855  13.984  12.574  13.372
16653SOL    HW151856  13.936  12.520  13.309
16653SOL    HW251857  14.073  12.540  13.370
16654SOL     OW51858   5.961   8.295   4.282
16654SOL    HW151859   6.044   8.271   4.240
16654SOL    HW251860   5.977   8.384   4.314
16655SOL     OW51861   4.318  12.597   4.894
16655SOL    HW151862   4.362  12.512   4.899
16655SOL    HW251863   4.227  12.575   4.875
16656SOL     OW51864   5.551  13.117   8.431
16656SOL    HW151865   5.558  13.210   8.411
16656SOL    HW251866   5.588  13.109   8.519
16657SOL     OW51867   8.422   8.754  14.075
16657SOL    HW151868   8.362   8.737  14.003
16657SOL    HW251869   8.502   8.707  14.052
16658SOL     OW51870   7.008   9.812   6.322
16658SOL    HW151871   7.033   9.884   6.381
16658SOL    HW251872   7.089   9.763   6.309
16659SOL     OW51873  12.136   6.615  11.152
16659SOL    HW151874  12.188   6.535  11.152
16659SOL    HW251875  12.094   6.617  11.066
16660SOL     OW51876  13.082   8.387   4.086
16660SOL    HW151877  12.990   8.406   4.068
16660SOL    HW251878  13.101   8.433   4.167
16661SOL     OW51879  10.856   1.585  11.087
16661SOL    HW151880  10.830   1.635  11.165
16661SOL    HW251881  10.869   1.496  11.119
16662SOL     OW51882  11.135   0.817  10.924
16662SOL    HW151883  11.097   0.747  10.976
16662SOL    HW251884  11.229   0.813  10.944
16663SOL     OW51885   1.824   3.717  12.074
16663SOL    HW151886   1.788   3.638  12.113
16663SOL    HW251887   1.772   3.788  12.110
16664SOL     OW51888   6.359   9.586   5.982
16664SOL    HW151889   6.352   9.491   5.985
16664SOL    HW251890   6.390   9.606   5.894
16665SOL     OW51891  10.120  14.136   5.036
16665SOL    HW151892  10.089  14.055   4.995
16665SOL    HW251893  10.043  14.170   5.083
16666SOL     OW51894   3.219   5.382   1.486
16666SOL    HW151895   3.208   5.388   1.392
16666SOL    HW251896   3.299   5.330   1.498
16667SOL     OW51897  11.363  11.421  13.017
16667SOL    HW151898  11.273  11.399  13.041
16667SOL    HW251899  11.378  11.372  12.936
16668SOL     OW51900  11.863   1.891   8.773
16668SOL    HW151901  11.882   1.853   8.687
16668SOL    HW251902  11.865   1.817   8.833
16669SOL     OW51903  13.493   7.624  13.642
16669SOL    HW151904  13.451   7.695  13.692
16669SOL    HW251905  13.569   7.599  13.695
16670SOL     OW51906   0.648   9.555  11.619
16670SOL    HW151907   0.720   9.550  11.682
16670SOL    HW251908   0.676   9.498  11.547
16671SOL     OW51909  13.475  14.053   7.865
16671SOL    HW151910  13.427  14.046   7.782
16671SOL    HW251911  13.408  14.071   7.930
16672SOL     OW51912   8.403   3.904   9.587
16672SOL    HW151913   8.421   3.996   9.606
16672SOL    HW251914   8.434   3.857   9.665
16673SOL     OW51915  14.124   3.689   5.767
16673SOL    HW151916  14.033   3.661   5.754
16673SOL    HW251917  14.119   3.759   5.832
16674SOL     OW51918  13.327   6.936   4.691
16674SOL    HW151919  13.386   6.995   4.644
16674SOL    HW251920  13.253   6.991   4.716
16675SOL     OW51921  11.066  11.495   3.222
16675SOL    HW151922  11.029  11.407   3.229
16675SOL    HW251923  11.134  11.498   3.289
16676SOL     OW51924  10.674   9.581   9.002
16676SOL    HW151925  10.731   9.657   9.000
16676SOL    HW251926  10.690   9.537   8.918
16677SOL     OW51927   2.784   5.892  14.112
16677SOL    HW151928   2.856   5.955  14.115
16677SOL    HW251929   2.759   5.889  14.020
16678SOL     OW51930   9.714   2.427   7.316
16678SOL    HW151931   9.627   2.460   7.337
16678SOL    HW251932   9.751   2.493   7.257
16679SOL     OW51933   4.934   2.042  12.808
16679SOL    HW151934   5.008   1.987  12.783
16679SOL    HW251935   4.892   2.065  12.724
16680SOL     OW51936   7.461   9.110   6.260
16680SOL    HW151937   7.453   9.182   6.322
16680SOL    HW251938   7.388   9.052   6.281
16681SOL     OW51939   8.568  10.323   5.451
16681SOL    HW151940   8.600  10.298   5.538
16681SOL    HW251941   8.478  10.290   5.448
16682SOL     OW51942  11.368   6.903   6.573
16682SOL    HW151943  11.464   6.910   6.574
16682SOL    HW251944  11.339   6.977   6.520
16683SOL     OW51945  13.332  13.373   2.099
16683SOL    HW151946  13.345  13.420   2.017
16683SOL    HW251947  13.351  13.282   2.078
16684SOL     OW51948   2.920  14.698   6.696
16684SOL    HW151949   2.936  14.741   6.613
16684SOL    HW251950   2.996  14.719   6.750
16685SOL     OW51951   1.291   9.056  14.216
16685SOL    HW151952   1.355   9.120  14.247
16685SOL    HW251953   1.325   8.972  14.246
16686SOL     OW51954  11.206   1.891  11.563
16686SOL    HW151955  11.115   1.899  11.593
16686SOL    HW251956  11.205   1.923  11.473
16687SOL     OW51957   8.915   4.321   6.675
16687SOL    HW151958   8.857   4.257   6.635
16687SOL    HW251959   8.859   4.371   6.735
16688SOL     OW51960   4.459   3.704   8.990
16688SOL    HW151961   4.525   3.726   8.925
16688SOL    HW251962   4.463   3.776   9.054
16689SOL     OW51963   9.387   1.764   7.720
16689SOL    HW151964   9.345   1.850   7.720
16689SOL    HW251965   9.389   1.739   7.627
16690SOL     OW51966   9.537   8.523   5.421
16690SOL    HW151967   9.505   8.604   5.461
16690SOL    HW251968   9.481   8.511   5.344
16691SOL     OW51969   8.603   6.000  10.535
16691SOL    HW151970   8.695   5.981  10.516
16691SOL    HW251971   8.569   5.917  10.570
16692SOL     OW51972   6.251   3.871   3.304
16692SOL    HW151973   6.240   3.928   3.380
16692SOL    HW251974   6.275   3.930   3.233
16693SOL     OW51975   7.693  13.329  10.259
16693SOL    HW151976   7.626  13.340  10.326
16693SOL    HW251977   7.748  13.407  10.266
16694SOL     OW51978   3.463   3.365   8.178
16694SOL    HW151979   3.489   3.453   8.206
16694SOL    HW251980   3.456   3.371   8.083
16695SOL     OW51981  11.554   2.449   6.935
16695SOL    HW151982  11.596   2.502   7.002
16695SOL    HW251983  11.626   2.408   6.887
16696SOL     OW51984   6.328   6.136   8.762
16696SOL    HW151985   6.338   6.210   8.702
16696SOL    HW251986   6.239   6.103   8.746
16697SOL     OW51987  13.966  14.265   4.150
16697SOL    HW151988  13.904  14.261   4.222
16697SOL    HW251989  13.986  14.173   4.131
16698SOL     OW51990  11.608  10.137  13.876
16698SOL    HW151991  11.587  10.090  13.957
16698SOL    HW251992  11.654  10.072  13.822
16699SOL     OW51993   3.724   8.029  12.434
16699SOL    HW151994   3.727   8.007  12.341
16699SOL    HW251995   3.802   8.083  12.448
16700SOL     OW51996  10.971   1.590  10.813
16700SOL    HW151997  10.891   1.547  10.783
16700SOL    HW251998  10.959   1.601  10.907
16701SOL     OW51999   4.023  13.017   5.040
16701SOL    HW152000   3.943  12.974   5.070
16701SOL    HW252001   4.056  12.960   4.971
16702SOL     OW52002   3.062   0.923   9.581
16702SOL    HW152003   3.050   0.920   9.486
16702SOL    HW252004   2.974   0.933   9.617
16703SOL     OW52005  10.427  14.145   9.713
16703SOL    HW152006  10.472  14.066   9.682
16703SOL    HW252007  10.402  14.124   9.803
16704SOL     OW52008  13.994  10.415   4.775
16704SOL    HW152009  13.915  10.430   4.827
16704SOL    HW252010  14.001  10.492   4.718
16705SOL     OW52011  12.718   6.471  10.041
16705SOL    HW152012  12.727   6.421   9.960
16705SOL    HW252013  12.794   6.529  10.042
16706SOL     OW52014   8.205  14.708   2.099
16706SOL    HW152015   8.237  14.746   2.181
16706SOL    HW252016   8.205  14.614   2.114
16707SOL     OW52017   0.848   4.517  13.811
16707SOL    HW152018   0.839   4.554  13.899
16707SOL    HW252019   0.849   4.423  13.824
16708SOL     OW52020  14.337  10.954  12.173
16708SOL    HW152021  14.333  11.009  12.095
16708SOL    HW252022  14.329  10.864  12.140
16709SOL     OW52023   2.925   6.745   1.892
16709SOL    HW152024   2.961   6.767   1.978
16709SOL    HW252025   2.841   6.702   1.911
16710SOL     OW52026   0.782  14.011  13.302
16710SOL    HW152027   0.769  14.013  13.207
16710SOL    HW252028   0.876  14.026  13.314
16711SOL     OW52029   9.696   0.978  11.017
16711SOL    HW152030   9.719   0.999  10.926
16711SOL    HW252031   9.770   1.010  11.068
16712SOL     OW52032   7.287   9.965   7.488
16712SOL    HW152033   7.340   9.889   7.511
16712SOL    HW252034   7.285   9.965   7.393
16713SOL     OW52035   4.977   1.189   5.864
16713SOL    HW152036   4.981   1.126   5.792
16713SOL    HW252037   4.900   1.163   5.915
16714SOL     OW52038   3.988   9.649   6.007
16714SOL    HW152039   3.992   9.742   6.029
16714SOL    HW252040   4.023   9.643   5.919
16715SOL     OW52041   5.581   4.259   9.330
16715SOL    HW152042   5.649   4.252   9.263
16715SOL    HW252043   5.577   4.352   9.349
16716SOL     OW52044   5.843  10.134  11.861
16716SOL    HW152045   5.934  10.136  11.889
16716SOL    HW252046   5.847  10.105  11.770
16717SOL     OW52047   1.352   0.037   2.924
16717SOL    HW152048   1.263   0.007   2.940
16717SOL    HW252049   1.396  14.830   2.885
16718SOL     OW52050   4.935   3.012   6.306
16718SOL    HW152051   4.966   3.009   6.215
16718SOL    HW252052   4.846   2.978   6.303
16719SOL     OW52053   5.964  14.332   9.981
16719SOL    HW152054   6.029  14.395   9.952
16719SOL    HW252055   5.914  14.378  10.048
16720SOL     OW52056   6.897   6.855  10.183
16720SOL    HW152057   6.956   6.895  10.120
16720SOL    HW252058   6.843   6.795  10.131
16721SOL     OW52059  13.111   2.591   9.951
16721SOL    HW152060  13.093   2.679   9.919
16721SOL    HW252061  13.040   2.538   9.914
16722SOL     OW52062  10.589  11.371   6.129
16722SOL    HW152063  10.563  11.435   6.061
16722SOL    HW252064  10.679  11.348   6.107
16723SOL     OW52065   6.672  10.237   5.134
16723SOL    HW152066   6.704  10.320   5.101
16723SOL    HW252067   6.643  10.256   5.224
16724SOL     OW52068   8.071   3.290   4.720
16724SOL    HW152069   8.119   3.338   4.788
16724SOL    HW252070   8.071   3.199   4.750
16725SOL     OW52071   0.972   7.282   2.679
16725SOL    HW152072   0.992   7.244   2.765
16725SOL    HW252073   1.021   7.229   2.617
16726SOL     OW52074  13.714   0.768  12.450
16726SOL    HW152075  13.807   0.779  12.432
16726SOL    HW252076  13.687   0.851  12.491
16727SOL     OW52077   1.254  10.900   3.279
16727SOL    HW152078   1.287  10.816   3.311
16727SOL    HW252079   1.230  10.883   3.188
16728SOL     OW52080   6.065  11.414   8.019
16728SOL    HW152081   6.080  11.331   8.064
16728SOL    HW252082   5.970  11.429   8.026
16729SOL     OW52083   7.197   1.965   1.997
16729SOL    HW152084   7.245   2.048   2.001
16729SOL    HW252085   7.209   1.935   1.907
16730SOL     OW52086  13.046   5.237   7.819
16730SOL    HW152087  12.985   5.166   7.836
16730SOL    HW252088  13.006   5.286   7.746
16731SOL     OW52089   3.201   1.095  11.702
16731SOL    HW152090   3.217   1.082  11.796
16731SOL    HW252091   3.265   1.038  11.659
16732SOL     OW52092  10.202  14.264   7.816
16732SOL    HW152093  10.136  14.198   7.836
16732SOL    HW252094  10.280  14.215   7.792
16733SOL     OW52095   4.358  12.683   1.316
16733SOL    HW152096   4.279  12.635   1.291
16733SOL    HW252097   4.378  12.738   1.240
16734SOL     OW52098   2.226   6.268  11.075
16734SOL    HW152099   2.225   6.210  11.151
16734SOL    HW252100   2.160   6.334  11.094
16735SOL     OW52101   2.454   2.461   0.801
16735SOL    HW152102   2.433   2.374   0.835
16735SOL    HW252103   2.412   2.465   0.716
16736SOL     OW52104   2.198   4.384   2.002
16736SOL    HW152105   2.277   4.386   1.949
16736SOL    HW252106   2.230   4.373   2.092
16737SOL     OW52107   9.999   1.354   2.195
16737SOL    HW152108   9.948   1.412   2.137
16737SOL    HW252109   9.979   1.386   2.283
16738SOL     OW52110   1.631   5.006  12.973
16738SOL    HW152111   1.684   5.042  13.045
16738SOL    HW252112   1.643   5.068  12.901
16739SOL     OW52113   3.959   9.955  14.525
16739SOL    HW152114   3.937   9.977  14.615
16739SOL    HW252115   3.977   9.861  14.527
16740SOL     OW52116   0.161   8.598  10.366
16740SOL    HW152117   0.157   8.591  10.461
16740SOL    HW252118   0.214   8.676  10.349
16741SOL     OW52119  10.052  14.088  12.076
16741SOL    HW152120  10.053  14.169  12.025
16741SOL    HW252121  10.069  14.019  12.012
16742SOL     OW52122   8.579   0.565   3.409
16742SOL    HW152123   8.508   0.501   3.418
16742SOL    HW252124   8.659   0.516   3.428
16743SOL     OW52125   5.901   2.030   5.017
16743SOL    HW152126   5.950   2.054   5.096
16743SOL    HW252127   5.969   2.002   4.955
16744SOL     OW52128   4.944   2.304  14.263
16744SOL    HW152129   4.927   2.394  14.289
16744SOL    HW252130   5.009   2.273  14.326
16745SOL     OW52131   3.128   7.768   1.583
16745SOL    HW152132   3.209   7.802   1.543
16745SOL    HW252133   3.107   7.831   1.652
16746SOL     OW52134   2.351   6.550  14.571
16746SOL    HW152135   2.291   6.485  14.536
16746SOL    HW252136   2.426   6.549  14.512
16747SOL     OW52137  11.764   8.924  11.486
16747SOL    HW152138  11.768   9.014  11.518
16747SOL    HW252139  11.677   8.916  11.447
16748SOL     OW52140   1.866   0.620   4.547
16748SOL    HW152141   1.792   0.673   4.576
16748SOL    HW252142   1.836   0.579   4.466
16749SOL     OW52143   2.778   0.578   1.008
16749SOL    HW152144   2.690   0.614   1.025
16749SOL    HW252145   2.829   0.653   0.976
16750SOL     OW52146   2.674   3.935   6.609
16750SOL    HW152147   2.730   3.922   6.686
16750SOL    HW252148   2.726   3.903   6.536
16751SOL     OW52149   6.467   8.703   4.398
16751SOL    HW152150   6.490   8.629   4.455
16751SOL    HW252151   6.456   8.777   4.457
16752SOL     OW52152   8.193   4.025   7.495
16752SOL    HW152153   8.285   4.024   7.470
16752SOL    HW252154   8.162   4.112   7.469
16753SOL     OW52155   8.664   0.186   4.861
16753SOL    HW152156   8.657   0.144   4.947
16753SOL    HW252157   8.750   0.228   4.861
16754SOL     OW52158   3.847   0.881   5.288
16754SOL    HW152159   3.823   0.791   5.269
16754SOL    HW252160   3.765   0.923   5.314
16755SOL     OW52161   1.952  10.640   9.046
16755SOL    HW152162   1.946  10.725   9.088
16755SOL    HW252163   2.045  10.616   9.052
16756SOL     OW52164   2.478   5.099   3.949
16756SOL    HW152165   2.554   5.090   4.007
16756SOL    HW252166   2.501   5.049   3.871
16757SOL     OW52167   2.308   4.311   4.913
16757SOL    HW152168   2.277   4.399   4.892
16757SOL    HW252169   2.233   4.269   4.956
16758SOL     OW52170  14.217  12.377   2.262
16758SOL    HW152171  14.159  12.306   2.290
16758SOL    HW252172  14.264  12.402   2.341
16759SOL     OW52173  13.875   9.532   4.605
16759SOL    HW152174  13.789   9.504   4.636
16759SOL    HW252175  13.921   9.450   4.585
16760SOL     OW52176   6.385   7.212  10.086
16760SOL    HW152177   6.301   7.245  10.119
16760SOL    HW252178   6.383   7.118  10.106
16761SOL     OW52179   8.550  13.779  13.455
16761SOL    HW152180   8.506  13.863  13.471
16761SOL    HW252181   8.592  13.757  13.538
16762SOL     OW52182   3.645  13.369  10.169
16762SOL    HW152183   3.671  13.354  10.078
16762SOL    HW252184   3.721  13.342  10.221
16763SOL     OW52185   5.491   1.453   2.449
16763SOL    HW152186   5.493   1.398   2.371
16763SOL    HW252187   5.555   1.413   2.508
16764SOL     OW52188   3.048   1.488   2.316
16764SOL    HW152189   2.996   1.537   2.380
16764SOL    HW252190   3.139   1.510   2.337
16765SOL     OW52191  10.545  11.447   6.934
16765SOL    HW152192  10.481  11.515   6.952
16765SOL    HW252193  10.497  11.380   6.884
16766SOL     OW52194   9.869   4.232   5.091
16766SOL    HW152195   9.911   4.195   5.013
16766SOL    HW252196   9.823   4.309   5.060
16767SOL     OW52197   3.431   2.884  10.298
16767SOL    HW152198   3.503   2.823  10.312
16767SOL    HW252199   3.413   2.920  10.385
16768SOL     OW52200   3.970   5.170  13.551
16768SOL    HW152201   3.908   5.151  13.481
16768SOL    HW252202   3.932   5.130  13.629
16769SOL     OW52203   9.269   2.849  14.303
16769SOL    HW152204   9.196   2.865  14.243
16769SOL    HW252205   9.232   2.794  14.372
16770SOL     OW52206   6.674  13.512   7.524
16770SOL    HW152207   6.608  13.530   7.458
16770SOL    HW252208   6.685  13.595   7.571
16771SOL     OW52209  11.377   7.997   8.949
16771SOL    HW152210  11.366   8.069   9.010
16771SOL    HW252211  11.370   7.918   9.003
16772SOL     OW52212  13.606   0.823   0.504
16772SOL    HW152213  13.644   0.884   0.441
16772SOL    HW252214  13.648   0.844   0.587
16773SOL     OW52215   4.399   7.148   7.276
16773SOL    HW152216   4.430   7.190   7.195
16773SOL    HW252217   4.317   7.105   7.251
16774SOL     OW52218  13.924   8.896   7.798
16774SOL    HW152219  13.851   8.918   7.856
16774SOL    HW252220  14.002   8.924   7.845
16775SOL     OW52221  11.850   4.086   4.673
16775SOL    HW152222  11.804   4.149   4.617
16775SOL    HW252223  11.823   4.108   4.762
16776SOL     OW52224   7.016  12.936  12.514
16776SOL    HW152225   7.098  12.914  12.558
16776SOL    HW252226   7.042  12.965  12.427
16777SOL     OW52227   6.292  14.610   5.519
16777SOL    HW152228   6.341  14.548   5.465
16777SOL    HW252229   6.213  14.563   5.544
16778SOL     OW52230   8.700   6.309   2.534
16778SOL    HW152231   8.759   6.345   2.600
16778SOL    HW252232   8.612   6.317   2.572
16779SOL     OW52233  13.359   4.563   4.578
16779SOL    HW152234  13.409   4.640   4.606
16779SOL    HW252235  13.410   4.488   4.611
16780SOL     OW52236   4.224   8.068   2.041
16780SOL    HW152237   4.235   8.055   1.947
16780SOL    HW252238   4.176   8.151   2.049
16781SOL     OW52239   5.230  11.526   9.228
16781SOL    HW152240   5.205  11.468   9.156
16781SOL    HW252241   5.311  11.567   9.199
16782SOL     OW52242  12.371  13.488  12.618
16782SOL    HW152243  12.316  13.514  12.692
16782SOL    HW252244  12.434  13.559  12.608
16783SOL     OW52245   1.592  12.537   7.449
16783SOL    HW152246   1.618  12.628   7.434
16783SOL    HW252247   1.577  12.531   7.543
16784SOL     OW52248  10.360   6.631   2.623
16784SOL    HW152249  10.271   6.601   2.607
16784SOL    HW252250  10.354   6.727   2.618
16785SOL     OW52251  12.217  11.956   9.042
16785SOL    HW152252  12.178  11.917   9.121
16785SOL    HW252253  12.151  12.014   9.008
16786SOL     OW52254   1.369   1.030   3.634
16786SOL    HW152255   1.277   1.004   3.641
16786SOL    HW252256   1.416   0.949   3.613
16787SOL     OW52257   8.438  11.176   3.864
16787SOL    HW152258   8.517  11.135   3.830
16787SOL    HW252259   8.398  11.219   3.787
16788SOL     OW52260   2.901  14.501   3.481
16788SOL    HW152261   2.855  14.484   3.398
16788SOL    HW252262   2.976  14.441   3.479
16789SOL     OW52263   6.792  10.507   9.934
16789SOL    HW152264   6.734  10.490   9.860
16789SOL    HW252265   6.744  10.474  10.010
16790SOL     OW52266  13.917   4.959   0.506
16790SOL    HW152267  13.833   4.917   0.525
16790SOL    HW252268  13.930   4.945   0.412
16791SOL     OW52269  10.640   2.362   2.148
16791SOL    HW152270  10.660   2.389   2.237
16791SOL    HW252271  10.545   2.365   2.142
16792SOL     OW52272   1.404  14.615  11.563
16792SOL    HW152273   1.429  14.679  11.629
16792SOL    HW252274   1.323  14.649  11.526
16793SOL     OW52275   9.302   0.403   4.171
16793SOL    HW152276   9.341   0.459   4.238
16793SOL    HW252277   9.374   0.383   4.111
16794SOL     OW52278   5.062   8.807  10.744
16794SOL    HW152279   5.151   8.782  10.770
16794SOL    HW252280   5.005   8.767  10.811
16795SOL     OW52281  12.997   0.177   6.643
16795SOL    HW152282  13.025   0.116   6.711
16795SOL    HW252283  12.987   0.123   6.565
16796SOL     OW52284   6.206   4.442  14.746
16796SOL    HW152285   6.241   4.478  14.828
16796SOL    HW252286   6.249   4.494  14.678
16797SOL     OW52287   8.509   3.227   4.441
16797SOL    HW152288   8.427   3.259   4.404
16797SOL    HW252289   8.490   3.214   4.534
16798SOL     OW52290   8.253   7.367   5.903
16798SOL    HW152291   8.227   7.446   5.950
16798SOL    HW252292   8.207   7.296   5.949
16799SOL     OW52293   4.482   2.286  13.881
16799SOL    HW152294   4.567   2.288  13.837
16799SOL    HW252295   4.486   2.208  13.937
16800SOL     OW52296   9.025   8.769  10.156
16800SOL    HW152297   9.015   8.710  10.081
16800SOL    HW252298   8.979   8.849  10.129
16801SOL     OW52299   9.822   8.789   5.161
16801SOL    HW152300   9.749   8.834   5.205
16801SOL    HW252301   9.887   8.858   5.147
16802SOL     OW52302  14.287   2.112   6.026
16802SOL    HW152303  14.215   2.104   6.088
16802SOL    HW252304  14.269   2.193   5.978
16803SOL     OW52305   9.460   6.525  13.776
16803SOL    HW152306   9.434   6.617  13.789
16803SOL    HW252307   9.436   6.506  13.686
16804SOL     OW52308   6.176  13.697  12.955
16804SOL    HW152309   6.241  13.671  13.020
16804SOL    HW252310   6.211  13.665  12.871
16805SOL     OW52311  11.376   7.669  14.294
16805SOL    HW152312  11.350   7.621  14.216
16805SOL    HW252313  11.387   7.759  14.264
16806SOL     OW52314   8.909   9.274   1.485
16806SOL    HW152315   8.888   9.192   1.529
16806SOL    HW252316   8.946   9.247   1.401
16807SOL     OW52317  10.279  14.734  11.202
16807SOL    HW152318  10.347  14.791  11.167
16807SOL    HW252319  10.233  14.788  11.266
16808SOL     OW52320   9.922   3.757  12.499
16808SOL    HW152321   9.846   3.709  12.468
16808SOL    HW252322   9.888   3.841  12.528
16809SOL     OW52323   2.116   7.699   0.503
16809SOL    HW152324   2.159   7.746   0.574
16809SOL    HW252325   2.181   7.635   0.474
16810SOL     OW52326  14.126  10.125   3.444
16810SOL    HW152327  14.051  10.183   3.431
16810SOL    HW252328  14.088  10.044   3.477
16811SOL     OW52329  11.681  13.375   5.184
16811SOL    HW152330  11.643  13.459   5.212
16811SOL    HW252331  11.717  13.337   5.264
16812SOL     OW52332   7.071   7.492   4.471
16812SOL    HW152333   7.005   7.504   4.403
16812SOL    HW252334   7.107   7.405   4.455
16813SOL     OW52335   7.046   4.449  12.390
16813SOL    HW152336   7.026   4.495  12.308
16813SOL    HW252337   7.052   4.518  12.455
16814SOL     OW52338  12.625   4.909   3.137
16814SOL    HW152339  12.535   4.908   3.105
16814SOL    HW252340  12.666   4.983   3.093
16815SOL     OW52341  14.292   5.921  11.664
16815SOL    HW152342  14.260   5.927  11.573
16815SOL    HW252343  14.218   5.885  11.712
16816SOL     OW52344  13.149   3.880  14.107
16816SOL    HW152345  13.197   3.805  14.141
16816SOL    HW252346  13.209   3.919  14.042
16817SOL     OW52347   3.832   8.080  11.701
16817SOL    HW152348   3.824   8.036  11.785
16817SOL    HW252349   3.899   8.031  11.654
16818SOL     OW52350   5.717   9.706  10.715
16818SOL    HW152351   5.724   9.666  10.628
16818SOL    HW252352   5.807   9.706  10.748
16819SOL     OW52353  14.409   8.096  14.215
16819SOL    HW152354  14.327   8.103  14.166
16819SOL    HW252355  14.407   8.171  14.275
16820SOL     OW52356   9.094   3.565   3.739
16820SOL    HW152357   9.094   3.472   3.762
16820SOL    HW252358   9.059   3.608   3.817
16821SOL     OW52359   9.787   1.049   9.411
16821SOL    HW152360   9.710   1.057   9.355
16821SOL    HW252361   9.782   0.960   9.446
16822SOL     OW52362  13.492   7.807   1.191
16822SOL    HW152363  13.399   7.795   1.173
16822SOL    HW252364  13.499   7.896   1.224
16823SOL     OW52365  14.675   5.022   6.755
16823SOL    HW152366  14.668   5.110   6.717
16823SOL    HW252367  14.750   4.983   6.710
16824SOL     OW52368   7.651  14.705  13.721
16824SOL    HW152369   7.741  14.682  13.748
16824SOL    HW252370   7.656  14.716  13.626
16825SOL     OW52371   6.226   3.104   8.768
16825SOL    HW152372   6.208   3.032   8.707
16825SOL    HW252373   6.163   3.091   8.839
16826SOL     OW52374  12.539   9.646   4.639
16826SOL    HW152375  12.526   9.694   4.720
16826SOL    HW252376  12.603   9.699   4.590
16827SOL     OW52377   5.080   5.332  11.775
16827SOL    HW152378   5.096   5.238  11.769
16827SOL    HW252379   5.042   5.355  11.690
16828SOL     OW52380   0.484   0.996   2.700
16828SOL    HW152381   0.537   0.918   2.685
16828SOL    HW252382   0.442   0.980   2.785
16829SOL     OW52383  13.020   1.858  11.751
16829SOL    HW152384  13.092   1.803  11.719
16829SOL    HW252385  12.977   1.889  11.671
16830SOL     OW52386   3.431  14.687   8.722
16830SOL    HW152387   3.513  14.718   8.761
16830SOL    HW252388   3.443  14.592   8.716
16831SOL     OW52389   4.377   8.855   1.274
16831SOL    HW152390   4.460   8.883   1.313
16831SOL    HW252391   4.391   8.861   1.180
16832SOL     OW52392  10.893   8.141  10.743
16832SOL    HW152393  10.835   8.194  10.688
16832SOL    HW252394  10.957   8.203  10.777
16833SOL     OW52395   2.675   6.377   0.721
16833SOL    HW152396   2.639   6.434   0.789
16833SOL    HW252397   2.755   6.422   0.693
16834SOL     OW52398  10.275   0.154  14.657
16834SOL    HW152399  10.366   0.186  14.656
16834SOL    HW252400  10.272   0.090  14.586
16835SOL     OW52401   3.651   8.658   7.281
16835SOL    HW152402   3.608   8.719   7.220
16835SOL    HW252403   3.742   8.654   7.250
16836SOL     OW52404   8.760  13.889   2.505
16836SOL    HW152405   8.794  13.810   2.462
16836SOL    HW252406   8.787  13.961   2.449
16837SOL     OW52407  10.936  10.185  13.941
16837SOL    HW152408  10.957  10.188  14.034
16837SOL    HW252409  10.889  10.102  13.929
16838SOL     OW52410   0.086   3.463  11.593
16838SOL    HW152411   0.165   3.462  11.539
16838SOL    HW252412   0.110   3.417  11.673
16839SOL     OW52413  10.427   9.069  10.774
16839SOL    HW152414  10.335   9.088  10.757
16839SOL    HW252415  10.467   9.063  10.687
16840SOL     OW52416   1.907  10.924   3.095
16840SOL    HW152417   1.975  10.960   3.153
16840SOL    HW252418   1.832  10.982   3.108
16841SOL     OW52419   8.838  13.748   8.111
16841SOL    HW152420   8.806  13.731   8.200
16841SOL    HW252421   8.765  13.724   8.054
16842SOL     OW52422   7.640  10.755  12.726
16842SOL    HW152423   7.600  10.764  12.813
16842SOL    HW252424   7.599  10.824  12.674
16843SOL     OW52425  14.115   3.868   4.514
16843SOL    HW152426  14.060   3.790   4.515
16843SOL    HW252427  14.096   3.909   4.429
16844SOL     OW52428   4.643   5.365   1.001
16844SOL    HW152429   4.555   5.387   1.033
16844SOL    HW252430   4.688   5.328   1.077
16845SOL     OW52431  14.105  14.668   6.307
16845SOL    HW152432  14.027  14.720   6.324
16845SOL    HW252433  14.177  14.731   6.312
16846SOL     OW52434   7.153  13.741  11.480
16846SOL    HW152435   7.245  13.757  11.501
16846SOL    HW252436   7.153  13.658  11.432
16847SOL     OW52437   5.290   3.969  14.822
16847SOL    HW152438   5.377   3.993  14.852
16847SOL    HW252439   5.235   4.044  14.842
16848SOL     OW52440   2.409  10.731  12.354
16848SOL    HW152441   2.428  10.799  12.289
16848SOL    HW252442   2.410  10.776  12.438
16849SOL     OW52443   5.192   0.290   0.752
16849SOL    HW152444   5.194   0.198   0.724
16849SOL    HW252445   5.171   0.287   0.845
16850SOL     OW52446  14.232   0.464  13.865
16850SOL    HW152447  14.315   0.431  13.901
16850SOL    HW252448  14.175   0.387  13.862
16851SOL     OW52449   6.584  10.151   7.407
16851SOL    HW152450   6.639  10.121   7.335
16851SOL    HW252451   6.600  10.245   7.412
16852SOL     OW52452   4.986   6.716  14.130
16852SOL    HW152453   4.980   6.797  14.079
16852SOL    HW252454   5.041   6.738  14.205
16853SOL     OW52455   1.803   4.975  14.209
16853SOL    HW152456   1.841   5.015  14.131
16853SOL    HW252457   1.722   4.933  14.177
16854SOL     OW52458   0.927   9.321  11.756
16854SOL    HW152459   0.921   9.226  11.753
16854SOL    HW252460   0.895   9.345  11.843
16855SOL     OW52461   4.336   4.052   3.352
16855SOL    HW152462   4.252   4.095   3.366
16855SOL    HW252463   4.356   4.010   3.435
16856SOL     OW52464  13.318   8.336   9.357
16856SOL    HW152465  13.343   8.343   9.449
16856SOL    HW252466  13.249   8.270   9.357
16857SOL     OW52467   9.482   3.098   9.813
16857SOL    HW152468   9.395   3.060   9.807
16857SOL    HW252469   9.520   3.058   9.892
16858SOL     OW52470  11.637   7.102  10.579
16858SOL    HW152471  11.703   7.050  10.532
16858SOL    HW252472  11.558   7.048  10.578
16859SOL     OW52473   4.882  12.072  12.179
16859SOL    HW152474   4.916  12.105  12.262
16859SOL    HW252475   4.828  12.142  12.144
16860SOL     OW52476   7.739   5.912   8.520
16860SOL    HW152477   7.689   5.880   8.445
16860SOL    HW252478   7.674   5.943   8.582
16861SOL     OW52479   7.669   2.812   6.267
16861SOL    HW152480   7.666   2.851   6.354
16861SOL    HW252481   7.579   2.816   6.236
16862SOL     OW52482  14.283   7.390   8.479
16862SOL    HW152483  14.202   7.341   8.493
16862SOL    HW252484  14.254   7.474   8.442
16863SOL     OW52485  13.151  12.382  11.173
16863SOL    HW152486  13.175  12.431  11.251
16863SOL    HW252487  13.205  12.420  11.103
16864SOL     OW52488   6.364   5.535  12.878
16864SOL    HW152489   6.268   5.537  12.884
16864SOL    HW252490   6.382   5.520  12.785
16865SOL     OW52491   9.449  11.028   2.556
16865SOL    HW152492   9.478  10.962   2.494
16865SOL    HW252493   9.372  11.067   2.516
16866SOL     OW52494   1.289   8.717  11.007
16866SOL    HW152495   1.223   8.692  10.942
16866SOL    HW252496   1.299   8.811  10.996
16867SOL     OW52497   1.820   8.241   0.702
16867SOL    HW152498   1.733   8.201   0.708
16867SOL    HW252499   1.861   8.198   0.627
16868SOL     OW52500  13.816   9.337   7.987
16868SOL    HW152501  13.730   9.339   8.029
16868SOL    HW252502  13.799   9.296   7.901
16869SOL     OW52503   0.894  12.079   6.987
16869SOL    HW152504   0.959  12.030   7.038
16869SOL    HW252505   0.929  12.080   6.898
16870SOL     OW52506   7.622   5.353   8.917
16870SOL    HW152507   7.712   5.384   8.923
16870SOL    HW252508   7.625   5.264   8.951
16871SOL     OW52509   6.848   4.986   4.914
16871SOL    HW152510   6.936   5.023   4.906
16871SOL    HW252511   6.790   5.063   4.914
16872SOL     OW52512   0.439   0.005  12.580
16872SOL    HW152513   0.515   0.050  12.615
16872SOL    HW252514   0.472  14.828  12.502
16873SOL     OW52515  10.013  10.318  12.312
16873SOL    HW152516  10.107  10.332  12.300
16873SOL    HW252517  10.006  10.255  12.383
16874SOL     OW52518  13.947   2.055  10.855
16874SOL    HW152519  14.024   2.082  10.904
16874SOL    HW252520  13.916   2.135  10.813
16875SOL     OW52521   2.360   4.235   1.008
16875SOL    HW152522   2.387   4.322   1.037
16875SOL    HW252523   2.299   4.204   1.075
16876SOL     OW52524   5.417   5.238   8.448
16876SOL    HW152525   5.476   5.170   8.482
16876SOL    HW252526   5.441   5.246   8.356
16877SOL     OW52527   5.439   5.797   3.730
16877SOL    HW152528   5.420   5.881   3.690
16877SOL    HW252529   5.489   5.819   3.809
16878SOL     OW52530   6.017   3.141   3.183
16878SOL    HW152531   5.997   3.225   3.140
16878SOL    HW252532   6.112   3.141   3.191
16879SOL     OW52533   3.448   4.634   6.345
16879SOL    HW152534   3.527   4.590   6.312
16879SOL    HW252535   3.481   4.695   6.411
16880SOL     OW52536   7.965  14.842   9.682
16880SOL    HW152537   7.902  14.822   9.612
16880SOL    HW252538   8.042  14.790   9.661
16881SOL     OW52539   4.210   3.237  13.407
16881SOL    HW152540   4.264   3.308  13.442
16881SOL    HW252541   4.269   3.187  13.352
16882SOL     OW52542   5.882   8.459  11.159
16882SOL    HW152543   5.858   8.390  11.098
16882SOL    HW252544   5.865   8.541  11.112
16883SOL     OW52545   1.550   8.847   0.371
16883SOL    HW152546   1.641   8.848   0.400
16883SOL    HW252547   1.508   8.782   0.427
16884SOL     OW52548   8.618  13.576  11.097
16884SOL    HW152549   8.604  13.663  11.061
16884SOL    HW252550   8.543  13.525  11.066
16885SOL     OW52551  13.129   4.287   6.959
16885SOL    HW152552  13.096   4.205   6.996
16885SOL    HW252553  13.079   4.355   7.004
16886SOL     OW52554   1.103   8.001   3.802
16886SOL    HW152555   1.100   7.909   3.776
16886SOL    HW252556   1.066   8.002   3.890
16887SOL     OW52557  14.139   3.420   3.571
16887SOL    HW152558  14.153   3.513   3.589
16887SOL    HW252559  14.126   3.380   3.657
16888SOL     OW52560   0.854   2.295   3.737
16888SOL    HW152561   0.782   2.265   3.793
16888SOL    HW252562   0.923   2.231   3.752
16889SOL     OW52563   0.787  11.738   1.857
16889SOL    HW152564   0.701  11.726   1.816
16889SOL    HW252565   0.823  11.650   1.864
16890SOL     OW52566   1.506   4.253  13.519
16890SOL    HW152567   1.565   4.308  13.569
16890SOL    HW252568   1.464   4.312  13.457
16891SOL     OW52569  12.170   8.839   6.538
16891SOL    HW152570  12.262   8.821   6.522
16891SOL    HW252571  12.132   8.849   6.451
16892SOL     OW52572   5.715   1.939   6.563
16892SOL    HW152573   5.672   1.910   6.644
16892SOL    HW252574   5.661   1.902   6.493
16893SOL     OW52575  12.659   3.333   0.418
16893SOL    HW152576  12.586   3.322   0.478
16893SOL    HW252577  12.618   3.336   0.331
16894SOL     OW52578   4.900   7.946  11.220
16894SOL    HW152579   4.840   7.976  11.152
16894SOL    HW252580   4.869   7.859  11.243
16895SOL     OW52581   6.185   9.475   3.186
16895SOL    HW152582   6.168   9.563   3.153
16895SOL    HW252583   6.166   9.480   3.280
16896SOL     OW52584   9.237   5.738   5.168
16896SOL    HW152585   9.257   5.709   5.258
16896SOL    HW252586   9.323   5.742   5.126
16897SOL     OW52587   7.118   2.918  11.430
16897SOL    HW152588   7.142   2.844  11.486
16897SOL    HW252589   7.057   2.880  11.366
16898SOL     OW52590   5.019   7.755  10.086
16898SOL    HW152591   5.057   7.700  10.018
16898SOL    HW252592   5.071   7.736  10.164
16899SOL     OW52593  11.155   2.849  13.716
16899SOL    HW152594  11.203   2.784  13.766
16899SOL    HW252595  11.222   2.903  13.675
16900SOL     OW52596   2.357   6.359   0.133
16900SOL    HW152597   2.266   6.331   0.140
16900SOL    HW252598   2.383   6.380   0.223
16901SOL     OW52599   8.468   4.710   4.990
16901SOL    HW152600   8.487   4.667   5.074
16901SOL    HW252601   8.395   4.769   5.009
16902SOL     OW52602  14.386   2.822   3.219
16902SOL    HW152603  14.322   2.760   3.182
16902SOL    HW252604  14.374   2.902   3.169
16903SOL     OW52605  14.396  14.629   9.310
16903SOL    HW152606  14.402  14.660   9.401
16903SOL    HW252607  14.319  14.572   9.310
16904SOL     OW52608   1.848   9.533  14.171
16904SOL    HW152609   1.902   9.599  14.129
16904SOL    HW252610   1.899   9.503  14.246
16905SOL     OW52611   0.696   6.253  10.181
16905SOL    HW152612   0.628   6.318  10.195
16905SOL    HW252613   0.666   6.202  10.106
16906SOL     OW52614  14.184   6.989   4.774
16906SOL    HW152615  14.264   7.042   4.770
16906SOL    HW252616  14.171   6.972   4.867
16907SOL     OW52617   1.901   1.207  12.272
16907SOL    HW152618   1.885   1.298  12.297
16907SOL    HW252619   1.969   1.212  12.204
16908SOL     OW52620   6.001   8.610   7.395
16908SOL    HW152621   5.974   8.539   7.453
16908SOL    HW252622   5.996   8.573   7.307
16909SOL     OW52623  10.983  13.246   0.288
16909SOL    HW152624  11.053  13.277   0.230
16909SOL    HW252625  10.989  13.303   0.364
16910SOL     OW52626   3.098   4.603  10.672
16910SOL    HW152627   3.082   4.668  10.604
16910SOL    HW252628   3.137   4.653  10.744
16911SOL     OW52629  14.653   5.474   1.164
16911SOL    HW152630  14.747   5.484   1.177
16911SOL    HW252631  14.635   5.383   1.187
16912SOL     OW52632   7.122  11.247   2.597
16912SOL    HW152633   7.086  11.334   2.613
16912SOL    HW252634   7.200  11.262   2.544
16913SOL     OW52635   8.097   5.505   8.712
16913SOL    HW152636   8.137   5.567   8.772
16913SOL    HW252637   8.050   5.560   8.648
16914SOL     OW52638  10.038   4.316   5.840
16914SOL    HW152639   9.988   4.370   5.900
16914SOL    HW252640  10.077   4.248   5.896
16915SOL     OW52641  11.145  11.013  10.809
16915SOL    HW152642  11.184  10.994  10.895
16915SOL    HW252643  11.066  11.063  10.829
16916SOL     OW52644  10.158   5.235   2.972
16916SOL    HW152645  10.139   5.269   2.885
16916SOL    HW252646  10.075   5.242   3.019
16917SOL     OW52647   7.666  12.663   4.265
16917SOL    HW152648   7.696  12.695   4.350
16917SOL    HW252649   7.583  12.619   4.285
16918SOL     OW52650  12.862   5.298   2.266
16918SOL    HW152651  12.825   5.368   2.212
16918SOL    HW252652  12.862   5.221   2.209
16919SOL     OW52653  11.991  11.847   4.377
16919SOL    HW152654  12.003  11.918   4.314
16919SOL    HW252655  11.936  11.783   4.331
16920SOL     OW52656   6.520   1.795  11.986
16920SOL    HW152657   6.452   1.776  11.922
16920SOL    HW252658   6.480   1.776  12.070
16921SOL     OW52659   6.493  13.094   5.294
16921SOL    HW152660   6.501  13.059   5.383
16921SOL    HW252661   6.580  13.083   5.256
16922SOL     OW52662  12.177   6.876   0.331
16922SOL    HW152663  12.149   6.876   0.240
16922SOL    HW252664  12.246   6.810   0.335
16923SOL     OW52665  11.972   0.848  10.320
16923SOL    HW152666  12.042   0.884  10.265
16923SOL    HW252667  11.893   0.894  10.292
16924SOL     OW52668   5.802   9.830   9.374
16924SOL    HW152669   5.846   9.751   9.406
16924SOL    HW252670   5.874   9.887   9.346
16925SOL     OW52671  10.568   2.489  13.842
16925SOL    HW152672  10.500   2.467  13.907
16925SOL    HW252673  10.541   2.441  13.763
16926SOL     OW52674  13.714   2.167   6.427
16926SOL    HW152675  13.770   2.235   6.464
16926SOL    HW252676  13.740   2.087   6.474
16927SOL     OW52677  11.402  12.864   8.674
16927SOL    HW152678  11.445  12.842   8.591
16927SOL    HW252679  11.449  12.812   8.740
16928SOL     OW52680   2.216  14.188   3.564
16928SOL    HW152681   2.289  14.196   3.502
16928SOL    HW252682   2.138  14.190   3.509
16929SOL     OW52683   8.064  11.165   1.019
16929SOL    HW152684   8.153  11.186   1.048
16929SOL    HW252685   8.050  11.075   1.050
16930SOL     OW52686   1.819   4.090   0.080
16930SOL    HW152687   1.756   4.161   0.090
16930SOL    HW252688   1.887   4.126   0.022
16931SOL     OW52689   6.191   0.047   6.503
16931SOL    HW152690   6.141   0.062   6.583
16931SOL    HW252691   6.235  14.831   6.517
16932SOL     OW52692   9.070   7.811   7.949
16932SOL    HW152693   9.153   7.780   7.986
16932SOL    HW252694   9.095   7.878   7.886
16933SOL     OW52695  10.799  12.916   4.502
16933SOL    HW152696  10.812  12.940   4.593
16933SOL    HW252697  10.727  12.971   4.472
16934SOL     OW52698  10.828   9.927  11.600
16934SOL    HW152699  10.775   9.994  11.643
16934SOL    HW252700  10.768   9.888  11.536
16935SOL     OW52701   4.941  11.265   7.407
16935SOL    HW152702   4.963  11.336   7.468
16935SOL    HW252703   4.859  11.292   7.367
16936SOL     OW52704   3.611   8.827   8.883
16936SOL    HW152705   3.588   8.820   8.975
16936SOL    HW252706   3.536   8.871   8.843
16937SOL     OW52707   0.990  11.907   5.862
16937SOL    HW152708   1.031  11.955   5.934
16937SOL    HW252709   0.937  11.840   5.906
16938SOL     OW52710  10.785   9.078  10.658
16938SOL    HW152711  10.786   9.163  10.615
16938SOL    HW252712  10.810   9.097  10.749
16939SOL     OW52713   6.794   0.475   0.487
16939SOL    HW152714   6.832   0.477   0.399
16939SOL    HW252715   6.857   0.523   0.541
16940SOL     OW52716   1.285  10.724  11.119
16940SOL    HW152717   1.349  10.771  11.066
16940SOL    HW252718   1.259  10.650  11.064
16941SOL     OW52719  10.224   9.606   8.882
16941SOL    HW152720  10.162   9.679   8.880
16941SOL    HW252721  10.208   9.559   8.800
16942SOL     OW52722   0.232   0.265   3.287
16942SOL    HW152723   0.197   0.186   3.327
16942SOL    HW252724   0.170   0.334   3.312
16943SOL     OW52725   0.253   1.125   2.613
16943SOL    HW152726   0.192   1.116   2.686
16943SOL    HW252727   0.328   1.070   2.637
16944SOL     OW52728   7.844   4.661  14.359
16944SOL    HW152729   7.936   4.654  14.336
16944SOL    HW252730   7.822   4.576  14.396
16945SOL     OW52731   0.051   5.194   4.383
16945SOL    HW152732   0.021   5.130   4.318
16945SOL    HW252733   0.042   5.279   4.338
16946SOL     OW52734   7.760  14.009   8.348
16946SOL    HW152735   7.774  13.942   8.415
16946SOL    HW252736   7.828  14.074   8.364
16947SOL     OW52737   0.380  11.194   7.231
16947SOL    HW152738   0.369  11.289   7.228
16947SOL    HW252739   0.291  11.159   7.222
16948SOL     OW52740   3.435  12.333  13.030
16948SOL    HW152741   3.427  12.241  13.055
16948SOL    HW252742   3.374  12.344  12.957
16949SOL     OW52743  10.059   4.607   6.499
16949SOL    HW152744  10.142   4.645   6.468
16949SOL    HW252745  10.047   4.530   6.444
16950SOL     OW52746  13.651   7.116   9.581
16950SOL    HW152747  13.665   7.210   9.587
16950SOL    HW252748  13.613   7.102   9.495
16951SOL     OW52749   9.399   9.770  13.648
16951SOL    HW152750   9.437   9.802  13.566
16951SOL    HW252751   9.305   9.788  13.638
16952SOL     OW52752   0.131  13.106  10.230
16952SOL    HW152753   0.048  13.110  10.182
16952SOL    HW252754   0.197  13.098  10.161
16953SOL     OW52755  14.297   5.652   1.304
16953SOL    HW152756  14.219   5.707   1.314
16953SOL    HW252757  14.335   5.680   1.221
16954SOL     OW52758  10.406   8.020  14.519
16954SOL    HW152759  10.490   7.975  14.529
16954SOL    HW252760  10.399   8.037  14.425
16955SOL     OW52761   8.323  13.945   1.871
16955SOL    HW152762   8.376  14.004   1.926
16955SOL    HW252763   8.388  13.892   1.825
16956SOL     OW52764   9.882   2.565   1.578
16956SOL    HW152765   9.864   2.631   1.511
16956SOL    HW252766   9.941   2.609   1.639
16957SOL     OW52767   4.706   0.612   7.325
16957SOL    HW152768   4.745   0.578   7.244
16957SOL    HW252769   4.703   0.707   7.311
16958SOL     OW52770  13.885   8.991   6.878
16958SOL    HW152771  13.853   9.065   6.827
16958SOL    HW252772  13.884   9.022   6.968
16959SOL     OW52773   7.003  13.458   4.082
16959SOL    HW152774   7.048  13.515   4.144
16959SOL    HW252775   6.959  13.393   4.137
16960SOL     OW52776   0.043   8.088   3.564
16960SOL    HW152777   0.127   8.089   3.518
16960SOL    HW252778   0.016   7.997   3.565
16961SOL     OW52779   3.338   7.716   7.441
16961SOL    HW152780   3.314   7.639   7.389
16961SOL    HW252781   3.381   7.774   7.378
16962SOL     OW52782  11.216   8.583   9.137
16962SOL    HW152783  11.302   8.621   9.157
16962SOL    HW252784  11.180   8.639   9.069
16963SOL     OW52785   1.468  12.811  14.331
16963SOL    HW152786   1.386  12.848  14.361
16963SOL    HW252787   1.483  12.735  14.387
16964SOL     OW52788   8.948   8.575   7.420
16964SOL    HW152789   8.959   8.485   7.450
16964SOL    HW252790   8.975   8.575   7.329
16965SOL     OW52791   2.132  10.782   9.345
16965SOL    HW152792   2.088  10.699   9.366
16965SOL    HW252793   2.060  10.843   9.328
16966SOL     OW52794  11.892   1.745  10.567
16966SOL    HW152795  11.915   1.832  10.599
16966SOL    HW252796  11.911   1.687  10.640
16967SOL     OW52797  14.845   3.340  14.789
16967SOL    HW152798   0.020   3.323   0.005
16967SOL    HW252799  14.828   3.253  14.753
16968SOL     OW52800   3.230  11.053   0.781
16968SOL    HW152801   3.313  11.064   0.736
16968SOL    HW252802   3.225  10.960   0.802
16969SOL     OW52803  14.120   6.249  13.355
16969SOL    HW152804  14.208   6.230  13.324
16969SOL    HW252805  14.133   6.293  13.439
16970SOL     OW52806  14.779   6.382   4.587
16970SOL    HW152807  14.745   6.395   4.676
16970SOL    HW252808  14.702   6.385   4.531
16971SOL     OW52809  13.253   9.625   1.678
16971SOL    HW152810  13.325   9.646   1.619
16971SOL    HW252811  13.295   9.612   1.763
16972SOL     OW52812   3.068   4.826   8.684
16972SOL    HW152813   3.160   4.850   8.677
16972SOL    HW252814   3.021   4.909   8.679
16973SOL     OW52815   5.790   5.694  11.270
16973SOL    HW152816   5.763   5.657  11.186
16973SOL    HW252817   5.879   5.725  11.256
16974SOL     OW52818   9.603  12.608  10.558
16974SOL    HW152819   9.600  12.555  10.478
16974SOL    HW252820   9.519  12.654  10.559
16975SOL     OW52821   1.369  10.489   3.688
16975SOL    HW152822   1.397  10.415   3.633
16975SOL    HW252823   1.398  10.465   3.776
16976SOL     OW52824   6.303   1.945   5.771
16976SOL    HW152825   6.254   2.025   5.755
16976SOL    HW252826   6.258   1.903   5.845
16977SOL     OW52827   6.167   7.961   5.160
16977SOL    HW152828   6.160   8.052   5.190
16977SOL    HW252829   6.078   7.939   5.131
16978SOL     OW52830  14.666  14.721  12.772
16978SOL    HW152831  14.607  14.650  12.795
16978SOL    HW252832  14.648  14.789  12.837
16979SOL     OW52833  11.486   4.019   5.153
16979SOL    HW152834  11.417   3.993   5.091
16979SOL    HW252835  11.557   3.957   5.138
16980SOL     OW52836  14.468   8.786   8.148
16980SOL    HW152837  14.545   8.787   8.091
16980SOL    HW252838  14.503   8.777   8.236
16981SOL     OW52839   2.696   1.777   5.592
16981SOL    HW152840   2.752   1.750   5.519
16981SOL    HW252841   2.674   1.868   5.574
16982SOL     OW52842   1.097  11.389   1.640
16982SOL    HW152843   1.050  11.428   1.566
16982SOL    HW252844   1.057  11.302   1.650
16983SOL     OW52845   7.435  11.507   3.276
16983SOL    HW152846   7.429  11.542   3.365
16983SOL    HW252847   7.517  11.457   3.276
16984SOL     OW52848   2.183   7.620   5.791
16984SOL    HW152849   2.235   7.690   5.831
16984SOL    HW252850   2.122   7.665   5.733
16985SOL     OW52851  14.241   4.595   0.730
16985SOL    HW152852  14.181   4.668   0.747
16985SOL    HW252853  14.189   4.517   0.750
16986SOL     OW52854  11.895   8.035   8.005
16986SOL    HW152855  11.934   8.074   8.083
16986SOL    HW252856  11.811   8.000   8.036
16987SOL     OW52857  13.238   5.511  14.660
16987SOL    HW152858  13.304   5.556  14.607
16987SOL    HW252859  13.265   5.527  14.750
16988SOL     OW52860   8.329   3.258  12.401
16988SOL    HW152861   8.347   3.238  12.493
16988SOL    HW252862   8.241   3.295  12.400
16989SOL     OW52863   4.871   0.486  14.491
16989SOL    HW152864   4.955   0.443  14.475
16989SOL    HW252865   4.806   0.416  14.485
16990SOL     OW52866   7.820   5.869  11.263
16990SOL    HW152867   7.905   5.876  11.307
16990SOL    HW252868   7.835   5.807  11.192
16991SOL     OW52869   6.082  13.525   7.862
16991SOL    HW152870   5.988  13.533   7.849
16991SOL    HW252871   6.110  13.457   7.801
16992SOL     OW52872   6.826   6.249   8.427
16992SOL    HW152873   6.776   6.285   8.353
16992SOL    HW252874   6.807   6.155   8.425
16993SOL     OW52875   1.403  12.649   9.738
16993SOL    HW152876   1.455  12.727   9.719
16993SOL    HW252877   1.466  12.577   9.731
16994SOL     OW52878  10.841   6.434   8.258
16994SOL    HW152879  10.933   6.441   8.285
16994SOL    HW252880  10.792   6.435   8.340
16995SOL     OW52881   8.832   0.269   4.251
16995SOL    HW152882   8.805   0.262   4.343
16995SOL    HW252883   8.912   0.217   4.246
16996SOL     OW52884   3.058  13.508  10.818
16996SOL    HW152885   2.984  13.501  10.757
16996SOL    HW252886   3.132  13.473  10.768
16997SOL     OW52887  12.839   1.567  14.689
16997SOL    HW152888  12.799   1.633  14.745
16997SOL    HW252889  12.839   1.487  14.742
16998SOL     OW52890   3.537   5.245   2.205
16998SOL    HW152891   3.552   5.222   2.296
16998SOL    HW252892   3.474   5.316   2.208
16999SOL     OW52893  11.723   6.541  11.025
16999SOL    HW152894  11.636   6.578  11.010
16999SOL    HW252895  11.713   6.448  11.006
17000SOL     OW52896   7.925   0.170   0.205
17000SOL    HW152897   7.886   0.215   0.131
17000SOL    HW252898   7.979   0.236   0.249
17001SOL     OW52899   6.060  11.916  10.871
17001SOL    HW152900   6.082  11.882  10.958
17001SOL    HW252901   6.011  11.845  10.830
17002SOL     OW52902   8.588   7.280   9.057
17002SOL    HW152903   8.500   7.264   9.093
17002SOL    HW252904   8.647   7.264   9.131
17003SOL     OW52905  11.499  13.713   7.318
17003SOL    HW152906  11.493  13.618   7.305
17003SOL    HW252907  11.410  13.739   7.345
17004SOL     OW52908   9.504   5.974  12.105
17004SOL    HW152909   9.543   5.950  12.190
17004SOL    HW252910   9.503   6.070  12.105
17005SOL     OW52911   2.232   5.753  10.814
17005SOL    HW152912   2.193   5.689  10.873
17005SOL    HW252913   2.173   5.828  10.818
17006SOL     OW52914   6.792   0.730   3.420
17006SOL    HW152915   6.887   0.729   3.437
17006SOL    HW252916   6.774   0.821   3.395
17007SOL     OW52917  14.368   4.150   0.346
17007SOL    HW152918  14.342   4.210   0.275
17007SOL    HW252919  14.359   4.063   0.308
17008SOL     OW52920  14.416  12.786   2.540
17008SOL    HW152921  14.457  12.865   2.576
17008SOL    HW252922  14.381  12.740   2.616
17009SOL     OW52923  10.659  13.488  11.452
17009SOL    HW152924  10.689  13.448  11.533
17009SOL    HW252925  10.739  13.501  11.400
17010SOL     OW52926  13.188   9.217   1.682
17010SOL    HW152927  13.180   9.136   1.631
17010SOL    HW252928  13.137   9.281   1.634
17011SOL     OW52929   0.601  10.735   5.424
17011SOL    HW152930   0.520  10.769   5.387
17011SOL    HW252931   0.585  10.642   5.436
17012SOL     OW52932   5.756   1.890   3.096
17012SOL    HW152933   5.823   1.833   3.060
17012SOL    HW252934   5.794   1.924   3.176
17013SOL     OW52935   2.474   9.632  13.767
17013SOL    HW152936   2.508   9.659  13.853
17013SOL    HW252937   2.551   9.602  13.719
17014SOL     OW52938   4.276  11.162   4.929
17014SOL    HW152939   4.255  11.087   4.984
17014SOL    HW252940   4.267  11.130   4.839
17015SOL     OW52941  10.161   7.280  11.416
17015SOL    HW152942  10.066   7.281  11.422
17015SOL    HW252943  10.184   7.188  11.402
17016SOL     OW52944   0.277   9.822  11.295
17016SOL    HW152945   0.253   9.900  11.244
17016SOL    HW252946   0.249   9.842  11.384
17017SOL     OW52947  14.340   8.573   6.541
17017SOL    HW152948  14.428   8.569   6.504
17017SOL    HW252949  14.316   8.482   6.557
17018SOL     OW52950   9.275  14.419   3.028
17018SOL    HW152951   9.246  14.352   3.090
17018SOL    HW252952   9.315  14.486   3.083
17019SOL     OW52953   4.503  11.199   7.805
17019SOL    HW152954   4.437  11.195   7.736
17019SOL    HW252955   4.495  11.288   7.840
17020SOL     OW52956   8.531  11.539   1.165
17020SOL    HW152957   8.495  11.454   1.139
17020SOL    HW252958   8.557  11.527   1.256
17021SOL     OW52959   8.300   5.058   3.047
17021SOL    HW152960   8.260   5.102   3.122
17021SOL    HW252961   8.297   4.965   3.069
17022SOL     OW52962   0.345   5.076  10.195
17022SOL    HW152963   0.313   5.120  10.116
17022SOL    HW252964   0.348   4.983  10.171
17023SOL     OW52965  10.152   2.565   1.281
17023SOL    HW152966  10.130   2.487   1.231
17023SOL    HW252967  10.084   2.570   1.349
17024SOL     OW52968   3.788   9.559  14.337
17024SOL    HW152969   3.760   9.480  14.290
17024SOL    HW252970   3.836   9.610  14.272
17025SOL     OW52971   9.117  12.952  11.711
17025SOL    HW152972   9.181  13.017  11.683
17025SOL    HW252973   9.158  12.868  11.693
17026SOL     OW52974   5.242   0.710   1.118
17026SOL    HW152975   5.149   0.713   1.097
17026SOL    HW252976   5.272   0.801   1.106
17027SOL     OW52977   9.154   3.616   6.045
17027SOL    HW152978   9.182   3.693   5.996
17027SOL    HW252979   9.167   3.640   6.137
17028SOL     OW52980   9.745   7.431   3.519
17028SOL    HW152981   9.740   7.492   3.445
17028SOL    HW252982   9.833   7.394   3.514
17029SOL     OW52983  11.202   9.359   0.998
17029SOL    HW152984  11.264   9.338   0.929
17029SOL    HW252985  11.180   9.452   0.984
17030SOL     OW52986   7.491   1.231   6.843
17030SOL    HW152987   7.492   1.146   6.798
17030SOL    HW252988   7.400   1.261   6.833
17031SOL     OW52989   6.384   4.785   3.096
17031SOL    HW152990   6.465   4.835   3.107
17031SOL    HW252991   6.325   4.820   3.163
17032SOL     OW52992   8.139   9.833   9.417
17032SOL    HW152993   8.062   9.790   9.455
17032SOL    HW252994   8.189   9.762   9.378
17033SOL     OW52995   4.963   5.492   1.896
17033SOL    HW152996   4.886   5.434   1.889
17033SOL    HW252997   4.985   5.491   1.989
17034SOL     OW52998   6.042  13.893   7.008
17034SOL    HW152999   6.097  13.969   7.023
17034SOL    HW253000   6.098  13.831   6.962
17035SOL     OW53001   1.751   6.800   5.256
17035SOL    HW153002   1.742   6.816   5.350
17035SOL    HW253003   1.718   6.879   5.214
17036SOL     OW53004   0.198   2.305   5.418
17036SOL    HW153005   0.145   2.348   5.485
17036SOL    HW253006   0.135   2.279   5.351
17037SOL     OW53007  12.210  11.557   9.343
17037SOL    HW153008  12.166  11.532   9.424
17037SOL    HW253009  12.292  11.507   9.343
17038SOL     OW53010   8.189   6.656   9.950
17038SOL    HW153011   8.099   6.625   9.958
17038SOL    HW253012   8.184   6.749   9.975
17039SOL     OW53013   8.820   4.323   2.924
17039SOL    HW153014   8.906   4.331   2.964
17039SOL    HW253015   8.812   4.402   2.869
17040SOL     OW53016   9.033   2.477   7.710
17040SOL    HW153017   8.943   2.510   7.713
17040SOL    HW253018   9.054   2.472   7.617
17041SOL     OW53019  13.812   0.899   7.400
17041SOL    HW153020  13.734   0.943   7.433
17041SOL    HW253021  13.810   0.914   7.305
17042SOL     OW53022   3.964   3.549   5.688
17042SOL    HW153023   3.916   3.486   5.634
17042SOL    HW253024   4.056   3.534   5.667
17043SOL     OW53025   1.768  13.557   5.968
17043SOL    HW153026   1.722  13.564   5.884
17043SOL    HW253027   1.833  13.627   5.965
17044SOL     OW53028   1.676   1.143   1.508
17044SOL    HW153029   1.588   1.141   1.471
17044SOL    HW253030   1.713   1.226   1.478
17045SOL     OW53031   1.790  12.417  11.709
17045SOL    HW153032   1.851  12.395  11.780
17045SOL    HW253033   1.704  12.405  11.749
17046SOL     OW53034   0.667   0.200  12.819
17046SOL    HW153035   0.688   0.107  12.825
17046SOL    HW253036   0.730   0.243  12.877
17047SOL     OW53037  11.995   4.084   3.889
17047SOL    HW153038  11.903   4.096   3.865
17047SOL    HW253039  12.040   4.160   3.851
17048SOL     OW53040   3.613   3.912   7.837
17048SOL    HW153041   3.675   3.982   7.818
17048SOL    HW253042   3.578   3.934   7.924
17049SOL     OW53043  12.596  12.120   8.298
17049SOL    HW153044  12.622  12.031   8.274
17049SOL    HW253045  12.540  12.149   8.225
17050SOL     OW53046   9.073   6.422   8.564
17050SOL    HW153047   9.027   6.380   8.637
17050SOL    HW253048   9.150   6.367   8.549
17051SOL     OW53049  11.011  13.938  10.988
17051SOL    HW153050  10.920  13.968  10.989
17051SOL    HW253051  11.046  13.963  11.073
17052SOL     OW53052   8.241   8.742   4.050
17052SOL    HW153053   8.288   8.824   4.032
17052SOL    HW253054   8.260   8.687   3.974
17053SOL     OW53055  13.670   6.780   8.819
17053SOL    HW153056  13.687   6.692   8.784
17053SOL    HW253057  13.731   6.788   8.892
17054SOL     OW53058   5.332   9.520  14.471
17054SOL    HW153059   5.379   9.451  14.519
17054SOL    HW253060   5.257   9.542  14.526
17055SOL     OW53061   3.349  14.760   0.897
17055SOL    HW153062   3.279  14.763   0.962
17055SOL    HW253063   3.309  14.792   0.816
17056SOL     OW53064  14.205  13.905   4.682
17056SOL    HW153065  14.112  13.924   4.692
17056SOL    HW253066  14.212  13.810   4.697
17057SOL     OW53067   6.969  10.371   5.286
17057SOL    HW153068   6.969  10.326   5.371
17057SOL    HW253069   6.901  10.438   5.295
17058SOL     OW53070   6.835  10.598   7.678
17058SOL    HW153071   6.751  10.612   7.723
17058SOL    HW253072   6.868  10.686   7.663
17059SOL     OW53073   5.053   5.800  13.549
17059SOL    HW153074   5.119   5.756  13.495
17059SOL    HW253075   5.103   5.834  13.624
17060SOL     OW53076   9.670   6.031   0.007
17060SOL    HW153077   9.749   6.033  14.820
17060SOL    HW253078   9.685   5.959   0.068
17061SOL     OW53079  14.020   9.897  13.750
17061SOL    HW153080  14.053   9.880  13.838
17061SOL    HW253081  14.092   9.940  13.704
17062SOL     OW53082   8.632  12.023   7.713
17062SOL    HW153083   8.618  12.072   7.794
17062SOL    HW253084   8.546  12.020   7.672
17063SOL     OW53085   1.907  13.319  14.593
17063SOL    HW153086   1.950  13.318  14.679
17063SOL    HW253087   1.867  13.233  14.584
17064SOL     OW53088  12.522   1.717   0.803
17064SOL    HW153089  12.464   1.668   0.746
17064SOL    HW253090  12.546   1.655   0.872
17065SOL     OW53091   4.129   1.335   6.339
17065SOL    HW153092   4.106   1.387   6.416
17065SOL    HW253093   4.122   1.244   6.369
17066SOL     OW53094  10.414   0.519   1.378
17066SOL    HW153095  10.421   0.475   1.463
17066SOL    HW253096  10.356   0.594   1.395
17067SOL     OW53097  14.569  10.197   9.608
17067SOL    HW153098  14.548  10.131   9.675
17067SOL    HW253099  14.608  10.269   9.657
17068SOL     OW53100  13.575  10.087   0.186
17068SOL    HW153101  13.576  10.162   0.246
17068SOL    HW253102  13.555  10.012   0.241
17069SOL     OW53103   3.583  11.376   0.944
17069SOL    HW153104   3.535  11.302   0.982
17069SOL    HW253105   3.563  11.450   1.001
17070SOL     OW53106  10.196  13.554   8.469
17070SOL    HW153107  10.237  13.531   8.553
17070SOL    HW253108  10.106  13.576   8.491
17071SOL     OW53109  14.650   4.465  13.700
17071SOL    HW153110  14.603   4.397  13.748
17071SOL    HW253111  14.639   4.442  13.608
17072SOL     OW53112  10.495  10.761  13.063
17072SOL    HW153113  10.452  10.761  13.148
17072SOL    HW253114  10.433  10.717  13.005
17073SOL     OW53115   8.502   0.759  13.480
17073SOL    HW153116   8.462   0.833  13.435
17073SOL    HW253117   8.504   0.689  13.414
17074SOL     OW53118  12.372   8.249   4.019
17074SOL    HW153119  12.439   8.185   3.995
17074SOL    HW253120  12.307   8.198   4.067
17075SOL     OW53121   7.466   0.245   3.428
17075SOL    HW153122   7.438   0.292   3.349
17075SOL    HW253123   7.387   0.199   3.458
17076SOL     OW53124  10.617  14.354  13.055
17076SOL    HW153125  10.638  14.433  13.006
17076SOL    HW253126  10.543  14.378  13.110
17077SOL     OW53127  12.975   1.542  10.821
17077SOL    HW153128  13.044   1.605  10.798
17077SOL    HW253129  12.982   1.474  10.753
17078SOL     OW53130  10.906  14.442   1.691
17078SOL    HW153131  10.893  14.444   1.596
17078SOL    HW253132  10.821  14.419   1.727
17079SOL     OW53133   0.058   4.120  11.211
17079SOL    HW153134   0.061   4.072  11.294
17079SOL    HW253135  14.837   4.107  11.178
17080SOL     OW53136   1.949  14.341  12.140
17080SOL    HW153137   1.923  14.254  12.171
17080SOL    HW253138   2.011  14.324  12.069
17081SOL     OW53139   5.108   6.163   2.235
17081SOL    HW153140   5.104   6.200   2.323
17081SOL    HW253141   5.020   6.128   2.220
17082SOL     OW53142   7.748   2.095  10.385
17082SOL    HW153143   7.797   2.041  10.447
17082SOL    HW253144   7.690   2.034  10.340
17083SOL     OW53145   6.628   4.024  12.913
17083SOL    HW153146   6.674   4.039  12.996
17083SOL    HW253147   6.667   3.944  12.878
17084SOL     OW53148   9.431   3.509  13.680
17084SOL    HW153149   9.347   3.492  13.722
17084SOL    HW253150   9.490   3.443  13.716
17085SOL     OW53151   1.359   8.070  13.147
17085SOL    HW153152   1.314   8.128  13.086
17085SOL    HW253153   1.408   8.130  13.205
17086SOL     OW53154   5.919   5.517  11.675
17086SOL    HW153155   5.965   5.574  11.736
17086SOL    HW253156   5.984   5.450  11.651
17087SOL     OW53157   5.206   1.343  13.822
17087SOL    HW153158   5.113   1.320  13.832
17087SOL    HW253159   5.217   1.420  13.878
17088SOL     OW53160   0.373   6.117   0.846
17088SOL    HW153161   0.377   6.023   0.832
17088SOL    HW253162   0.375   6.155   0.758
17089SOL     OW53163  13.981   9.744  11.813
17089SOL    HW153164  13.994   9.681  11.742
17089SOL    HW253165  14.024   9.824  11.782
17090SOL     OW53166   5.795  11.121   3.349
17090SOL    HW153167   5.868  11.175   3.318
17090SOL    HW253168   5.796  11.132   3.444
17091SOL     OW53169  13.059   4.756  11.496
17091SOL    HW153170  13.025   4.674  11.531
17091SOL    HW253171  13.044   4.820  11.566
17092SOL     OW53172   4.985   0.996  14.851
17092SOL    HW153173   4.938   0.949   0.052
17092SOL    HW253174   4.994   0.931  14.781
17093SOL     OW53175   9.219  11.906   5.109
17093SOL    HW153176   9.247  11.907   5.017
17093SOL    HW253177   9.141  11.850   5.109
17094SOL     OW53178   1.495  13.650   1.787
17094SOL    HW153179   1.547  13.571   1.801
17094SOL    HW253180   1.444  13.632   1.708
17095SOL     OW53181   3.114   5.554   8.776
17095SOL    HW153182   3.151   5.474   8.740
17095SOL    HW253183   3.144   5.623   8.717
17096SOL     OW53184  10.478   1.009  10.528
17096SOL    HW153185  10.482   1.030  10.621
17096SOL    HW253186  10.439   0.921  10.525
17097SOL     OW53187   5.871   0.535  12.632
17097SOL    HW153188   5.868   0.511  12.725
17097SOL    HW253189   5.807   0.478  12.591
17098SOL     OW53190   3.264  14.728  11.737
17098SOL    HW153191   3.253  14.633  11.742
17098SOL    HW253192   3.217  14.762  11.813
17099SOL     OW53193   5.045   9.803  14.360
17099SOL    HW153194   4.973   9.821  14.299
17099SOL    HW253195   5.123   9.832  14.313
17100SOL     OW53196   4.716  11.450   8.343
17100SOL    HW153197   4.666  11.368   8.331
17100SOL    HW253198   4.803  11.429   8.309
17101SOL     OW53199  14.132  10.980  14.036
17101SOL    HW153200  14.075  11.027  14.097
17101SOL    HW253201  14.076  10.912  13.999
17102SOL     OW53202  10.611   8.755   3.339
17102SOL    HW153203  10.659   8.782   3.417
17102SOL    HW253204  10.546   8.692   3.371
17103SOL     OW53205   2.960   4.888   1.838
17103SOL    HW153206   2.923   4.953   1.897
17103SOL    HW253207   2.988   4.938   1.761
17104SOL     OW53208  14.118  10.210  13.222
17104SOL    HW153209  14.042  10.185  13.169
17104SOL    HW253210  14.125  10.141  13.288
17105SOL     OW53211  11.427   5.740   1.677
17105SOL    HW153212  11.360   5.741   1.609
17105SOL    HW253213  11.504   5.780   1.636
17106SOL     OW53214   7.675   0.443  12.276
17106SOL    HW153215   7.632   0.527  12.296
17106SOL    HW253216   7.661   0.389  12.353
17107SOL     OW53217   2.850   2.841   8.516
17107SOL    HW153218   2.818   2.772   8.575
17107SOL    HW253219   2.946   2.833   8.521
17108SOL     OW53220   2.692   1.268   8.210
17108SOL    HW153221   2.653   1.293   8.293
17108SOL    HW253222   2.619   1.268   8.148
17109SOL     OW53223  12.294   6.971  12.073
17109SOL    HW153224  12.219   6.920  12.041
17109SOL    HW253225  12.366   6.945  12.015
17110SOL     OW53226  12.480   3.090  10.241
17110SOL    HW153227  12.557   3.143  10.265
17110SOL    HW253228  12.432   3.078  10.323
17111SOL     OW53229   6.991   3.881   1.668
17111SOL    HW153230   6.989   3.976   1.658
17111SOL    HW253231   6.916   3.850   1.616
17112SOL     OW53232   4.535   3.517   8.645
17112SOL    HW153233   4.462   3.577   8.636
17112SOL    HW253234   4.610   3.573   8.665
17113SOL     OW53235  11.087   0.784   3.714
17113SOL    HW153236  11.092   0.879   3.722
17113SOL    HW253237  11.136   0.764   3.634
17114SOL     OW53238   8.294   0.929   9.196
17114SOL    HW153239   8.313   0.930   9.102
17114SOL    HW253240   8.352   0.995   9.233
17115SOL     OW53241  13.726  10.028   7.706
17115SOL    HW153242  13.792   9.985   7.653
17115SOL    HW253243  13.762  10.031   7.794
17116SOL     OW53244  14.089  12.155   0.803
17116SOL    HW153245  14.170  12.132   0.848
17116SOL    HW253246  14.103  12.246   0.775
17117SOL     OW53247   0.734   3.813  13.999
17117SOL    HW153248   0.765   3.775  14.081
17117SOL    HW253249   0.677   3.885  14.025
17118SOL     OW53250   1.860   8.583   8.112
17118SOL    HW153251   1.766   8.598   8.126
17118SOL    HW253252   1.892   8.549   8.195
17119SOL     OW53253   3.796   1.437  12.079
17119SOL    HW153254   3.734   1.489  12.130
17119SOL    HW253255   3.830   1.498  12.014
17120SOL     OW53256   7.123   5.502  13.768
17120SOL    HW153257   7.126   5.406  13.778
17120SOL    HW253258   7.125   5.535  13.857
17121SOL     OW53259   6.361   5.943   9.529
17121SOL    HW153260   6.431   5.910   9.585
17121SOL    HW253261   6.380   5.906   9.443
17122SOL     OW53262   0.004  12.334   6.179
17122SOL    HW153263  14.864  12.273   6.253
17122SOL    HW253264  14.827  12.413   6.208
17123SOL     OW53265   8.078   3.421   8.284
17123SOL    HW153266   8.124   3.372   8.352
17123SOL    HW253267   8.097   3.372   8.203
17124SOL     OW53268   3.356   7.310  11.860
17124SOL    HW153269   3.293   7.345  11.797
17124SOL    HW253270   3.402   7.241  11.812
17125SOL     OW53271   2.778   9.913   5.715
17125SOL    HW153272   2.784   9.877   5.627
17125SOL    HW253273   2.728   9.994   5.705
17126SOL     OW53274   4.935  13.372   2.538
17126SOL    HW153275   4.871  13.439   2.514
17126SOL    HW253276   4.888  13.289   2.525
17127SOL     OW53277  11.641   5.759   3.013
17127SOL    HW153278  11.561   5.767   2.961
17127SOL    HW253279  11.639   5.834   3.072
17128SOL     OW53280   8.669   5.635   3.549
17128SOL    HW153281   8.628   5.549   3.540
17128SOL    HW253282   8.608   5.685   3.602
17129SOL     OW53283  10.317   8.615   1.742
17129SOL    HW153284  10.326   8.674   1.666
17129SOL    HW253285  10.237   8.566   1.724
17130SOL     OW53286   3.978  13.720   5.111
17130SOL    HW153287   4.061  13.676   5.129
17130SOL    HW253288   3.915  13.649   5.101
17131SOL     OW53289   9.977   8.443   8.050
17131SOL    HW153290  10.059   8.419   8.005
17131SOL    HW253291   9.976   8.538   8.048
17132SOL     OW53292  14.103   5.437   2.158
17132SOL    HW153293  14.027   5.411   2.209
17132SOL    HW253294  14.068   5.493   2.089
17133SOL     OW53295   0.399   4.030   7.546
17133SOL    HW153296   0.475   4.046   7.602
17133SOL    HW253297   0.324   4.046   7.603
17134SOL     OW53298  11.486   7.937   0.469
17134SOL    HW153299  11.396   7.918   0.446
17134SOL    HW253300  11.512   7.865   0.527
17135SOL     OW53301   4.738   9.727  10.752
17135SOL    HW153302   4.693   9.812  10.757
17135SOL    HW253303   4.796   9.735  10.677
17136SOL     OW53304   7.556   2.908   5.808
17136SOL    HW153305   7.581   2.851   5.880
17136SOL    HW253306   7.461   2.919   5.817
17137SOL     OW53307   5.130   0.263   4.516
17137SOL    HW153308   5.162   0.259   4.426
17137SOL    HW253309   5.132   0.356   4.539
17138SOL     OW53310   8.928  11.442   9.308
17138SOL    HW153311   8.884  11.527   9.315
17138SOL    HW253312   8.858  11.380   9.290
17139SOL     OW53313   7.152   2.199   5.018
17139SOL    HW153314   7.211   2.198   4.943
17139SOL    HW253315   7.206   2.173   5.092
17140SOL     OW53316  11.493   9.861   0.330
17140SOL    HW153317  11.409   9.825   0.302
17140SOL    HW253318  11.542   9.874   0.248
17141SOL     OW53319   0.132   5.408   0.072
17141SOL    HW153320   0.043   5.402   0.108
17141SOL    HW253321   0.168   5.320   0.081
17142SOL     OW53322   0.990  10.597   3.938
17142SOL    HW153323   0.914  10.589   3.881
17142SOL    HW253324   0.962  10.558   4.021
17143SOL     OW53325  14.355   4.970   7.767
17143SOL    HW153326  14.450   4.959   7.769
17143SOL    HW253327  14.328   4.924   7.687
17144SOL     OW53328   3.642  10.689   8.378
17144SOL    HW153329   3.708  10.758   8.380
17144SOL    HW253330   3.690  10.609   8.356
17145SOL     OW53331   1.324  11.256   7.154
17145SOL    HW153332   1.401  11.299   7.116
17145SOL    HW253333   1.328  11.166   7.122
17146SOL     OW53334   5.305   6.874   1.487
17146SOL    HW153335   5.377   6.881   1.549
17146SOL    HW253336   5.238   6.824   1.533
17147SOL     OW53337   6.036   6.642  10.156
17147SOL    HW153338   6.053   6.716  10.214
17147SOL    HW253339   6.027   6.567  10.215
17148SOL     OW53340   1.720  12.828  10.631
17148SOL    HW153341   1.631  12.797  10.615
17148SOL    HW253342   1.739  12.800  10.720
17149SOL     OW53343  11.119   5.334   6.843
17149SOL    HW153344  11.196   5.288   6.812
17149SOL    HW253345  11.138   5.427   6.827
17150SOL     OW53346   0.421   0.662   2.411
17150SOL    HW153347   0.333   0.697   2.424
17150SOL    HW253348   0.479   0.723   2.456
17151SOL     OW53349  10.449   9.406   8.633
17151SOL    HW153350  10.375   9.415   8.693
17151SOL    HW253351  10.453   9.313   8.613
17152SOL     OW53352   7.667   9.282  14.254
17152SOL    HW153353   7.666   9.205  14.312
17152SOL    HW253354   7.745   9.331  14.280
17153SOL     OW53355  13.491   3.714  10.876
17153SOL    HW153356  13.526   3.796  10.910
17153SOL    HW253357  13.426   3.740  10.811
17154SOL     OW53358  10.597  10.994   2.131
17154SOL    HW153359  10.569  10.906   2.155
17154SOL    HW253360  10.542  11.017   2.056
17155SOL     OW53361   0.068   6.912  10.674
17155SOL    HW153362   0.081   6.999  10.712
17155SOL    HW253363   0.085   6.852  10.747
17156SOL     OW53364   6.764   7.776   0.336
17156SOL    HW153365   6.841   7.733   0.297
17156SOL    HW253366   6.747   7.850   0.278
17157SOL     OW53367   5.413   6.232   1.303
17157SOL    HW153368   5.363   6.252   1.383
17157SOL    HW253369   5.492   6.189   1.334
17158SOL     OW53370   0.372  12.368   3.151
17158SOL    HW153371   0.460  12.395   3.175
17158SOL    HW253372   0.345  12.310   3.223
17159SOL     OW53373   6.216   2.338   0.023
17159SOL    HW153374   6.262   2.303   0.099
17159SOL    HW253375   6.284   2.345  14.824
17160SOL     OW53376   8.818  11.541   9.890
17160SOL    HW153377   8.790  11.512   9.977
17160SOL    HW253378   8.742  11.525   9.835
17161SOL     OW53379  14.423  10.201   7.968
17161SOL    HW153380  14.349  10.172   7.915
17161SOL    HW253381  14.417  10.296   7.967
17162SOL     OW53382  10.642   9.010   0.125
17162SOL    HW153383  10.621   8.924   0.162
17162SOL    HW253384  10.572   9.028   0.063
17163SOL     OW53385  11.925   1.122   3.534
17163SOL    HW153386  11.995   1.187   3.539
17163SOL    HW253387  11.931   1.076   3.618
17164SOL     OW53388   5.714   6.655   4.022
17164SOL    HW153389   5.730   6.731   3.966
17164SOL    HW253390   5.777   6.664   4.093
17165SOL     OW53391  10.330  13.487  14.594
17165SOL    HW153392  10.324  13.407  14.645
17165SOL    HW253393  10.393  13.541  14.641
17166SOL     OW53394   8.497   7.676  11.034
17166SOL    HW153395   8.540   7.597  11.065
17166SOL    HW253396   8.454   7.650  10.952
17167SOL     OW53397   5.608  10.093  10.506
17167SOL    HW153398   5.691  10.048  10.521
17167SOL    HW253399   5.630  10.165  10.447
17168SOL     OW53400   6.542  10.187  10.319
17168SOL    HW153401   6.449  10.200  10.337
17168SOL    HW253402   6.576  10.145  10.398
17169SOL     OW53403   2.173   1.513   2.002
17169SOL    HW153404   2.257   1.555   2.018
17169SOL    HW253405   2.186   1.463   1.922
17170SOL     OW53406   2.427   5.284   0.324
17170SOL    HW153407   2.367   5.332   0.267
17170SOL    HW253408   2.476   5.353   0.369
17171SOL     OW53409   4.731   8.349   1.135
17171SOL    HW153410   4.716   8.443   1.139
17171SOL    HW253411   4.748   8.322   1.225
17172SOL     OW53412  13.594  14.698  13.148
17172SOL    HW153413  13.572  14.723  13.238
17172SOL    HW253414  13.686  14.671  13.153
17173SOL     OW53415  11.811   0.112  11.260
17173SOL    HW153416  11.828   0.160  11.341
17173SOL    HW253417  11.716   0.117  11.249
17174SOL     OW53418   7.946   3.666  14.178
17174SOL    HW153419   7.911   3.737  14.125
17174SOL    HW253420   7.996   3.612  14.117
17175SOL     OW53421   0.985   8.348   0.033
17175SOL    HW153422   0.966   8.374   0.123
17175SOL    HW253423   0.989   8.430  14.852
17176SOL     OW53424   3.386  11.989   7.200
17176SOL    HW153425   3.417  12.016   7.113
17176SOL    HW253426   3.383  12.070   7.250
17177SOL     OW53427   0.486   8.413   3.877
17177SOL    HW153428   0.421   8.481   3.860
17177SOL    HW253429   0.447   8.333   3.842
17178SOL     OW53430   7.710   1.856   4.863
17178SOL    HW153431   7.638   1.892   4.811
17178SOL    HW253432   7.734   1.775   4.818
17179SOL     OW53433  11.518  12.799   8.439
17179SOL    HW153434  11.520  12.847   8.357
17179SOL    HW253435  11.599  12.747   8.438
17180SOL     OW53436  14.242   3.670   1.876
17180SOL    HW153437  14.175   3.675   1.808
17180SOL    HW253438  14.325   3.679   1.830
17181SOL     OW53439   4.164  13.447   3.881
17181SOL    HW153440   4.222  13.422   3.953
17181SOL    HW253441   4.116  13.522   3.913
17182SOL     OW53442   2.273   2.887  10.802
17182SOL    HW153443   2.274   2.791  10.794
17182SOL    HW253444   2.186   2.913  10.774
17183SOL     OW53445  14.397   1.430   1.322
17183SOL    HW153446  14.451   1.371   1.270
17183SOL    HW253447  14.412   1.402   1.412
17184SOL     OW53448   7.252  14.693   5.098
17184SOL    HW153449   7.235  14.642   5.018
17184SOL    HW253450   7.200  14.772   5.087
17185SOL     OW53451   3.057   9.413  12.089
17185SOL    HW153452   3.044   9.363  12.008
17185SOL    HW253453   2.997   9.487  12.082
17186SOL     OW53454   9.662   8.385  14.620
17186SOL    HW153455   9.673   8.345  14.533
17186SOL    HW253456   9.629   8.473  14.602
17187SOL     OW53457   4.197   9.673   5.147
17187SOL    HW153458   4.112   9.634   5.129
17187SOL    HW253459   4.260   9.618   5.099
17188SOL     OW53460  14.284   8.501   5.703
17188SOL    HW153461  14.198   8.498   5.745
17188SOL    HW253462  14.266   8.512   5.610
17189SOL     OW53463   2.204   2.355   1.724
17189SOL    HW153464   2.150   2.338   1.802
17189SOL    HW253465   2.238   2.269   1.700
17190SOL     OW53466   7.468  14.283   9.459
17190SOL    HW153467   7.521  14.267   9.537
17190SOL    HW253468   7.474  14.378   9.445
17191SOL     OW53469   5.751  11.864   7.724
17191SOL    HW153470   5.775  11.771   7.716
17191SOL    HW253471   5.812  11.898   7.790
17192SOL     OW53472  10.035  12.775   8.519
17192SOL    HW153473   9.943  12.802   8.514
17192SOL    HW253474  10.078  12.822   8.447
17193SOL     OW53475   3.707   7.966   7.607
17193SOL    HW153476   3.636   8.011   7.562
17193SOL    HW253477   3.782   8.025   7.599
17194SOL     OW53478   8.651   6.153   1.689
17194SOL    HW153479   8.582   6.217   1.701
17194SOL    HW253480   8.667   6.153   1.594
17195SOL     OW53481  14.026   9.875   8.329
17195SOL    HW153482  14.007   9.813   8.399
17195SOL    HW253483  14.086   9.938   8.369
17196SOL     OW53484   7.049   0.987   1.637
17196SOL    HW153485   6.974   1.021   1.685
17196SOL    HW253486   7.124   1.032   1.674
17197SOL     OW53487   4.073   2.225   9.334
17197SOL    HW153488   3.998   2.195   9.283
17197SOL    HW253489   4.047   2.310   9.369
17198SOL     OW53490  10.298  10.585   3.075
17198SOL    HW153491  10.354  10.653   3.037
17198SOL    HW253492  10.213  10.627   3.087
17199SOL     OW53493  10.544  13.229   1.401
17199SOL    HW153494  10.483  13.179   1.347
17199SOL    HW253495  10.512  13.319   1.396
17200SOL     OW53496   0.870   3.871   4.670
17200SOL    HW153497   0.924   3.926   4.613
17200SOL    HW253498   0.785   3.867   4.627
17201SOL     OW53499   7.671   9.709   3.377
17201SOL    HW153500   7.685   9.631   3.430
17201SOL    HW253501   7.757   9.752   3.374
17202SOL     OW53502  10.454  12.956   6.565
17202SOL    HW153503  10.369  12.922   6.592
17202SOL    HW253504  10.512  12.937   6.638
17203SOL     OW53505   9.760   8.248   2.903
17203SOL    HW153506   9.678   8.258   2.953
17203SOL    HW253507   9.817   8.316   2.939
17204SOL     OW53508   3.767   9.747  12.020
17204SOL    HW153509   3.796   9.805  11.950
17204SOL    HW253510   3.673   9.735  12.004
17205SOL     OW53511  12.038   9.536   5.803
17205SOL    HW153512  11.973   9.484   5.851
17205SOL    HW253513  12.072   9.597   5.869
17206SOL     OW53514   7.624   8.779   0.127
17206SOL    HW153515   7.655   8.811   0.212
17206SOL    HW253516   7.668   8.695   0.116
17207SOL     OW53517   7.951   2.606   9.516
17207SOL    HW153518   8.006   2.658   9.574
17207SOL    HW253519   7.989   2.519   9.519
17208SOL     OW53520   4.652   3.500   5.713
17208SOL    HW153521   4.602   3.502   5.631
17208SOL    HW253522   4.590   3.465   5.777
17209SOL     OW53523   6.281   6.946   1.736
17209SOL    HW153524   6.307   7.004   1.665
17209SOL    HW253525   6.247   7.003   1.804
17210SOL     OW53526  11.180   5.705  10.597
17210SOL    HW153527  11.179   5.694  10.692
17210SOL    HW253528  11.088   5.696  10.571
17211SOL     OW53529  10.001  13.577  14.420
17211SOL    HW153530   9.917  13.564  14.377
17211SOL    HW253531  10.066  13.570  14.350
17212SOL     OW53532  11.962   4.813  10.973
17212SOL    HW153533  12.014   4.767  10.907
17212SOL    HW253534  11.910   4.876  10.922
17213SOL     OW53535   0.458   9.815   8.495
17213SOL    HW153536   0.455   9.745   8.430
17213SOL    HW253537   0.548   9.814   8.528
17214SOL     OW53538  13.568   1.644   1.085
17214SOL    HW153539  13.642   1.634   1.144
17214SOL    HW253540  13.531   1.555   1.079
17215SOL     OW53541   4.947   9.320  13.186
17215SOL    HW153542   4.953   9.381  13.112
17215SOL    HW253543   5.031   9.329  13.232
17216SOL     OW53544  12.692   4.410  14.047
17216SOL    HW153545  12.702   4.322  14.011
17216SOL    HW253546  12.616   4.403  14.104
17217SOL     OW53547   4.377   9.382  10.877
17217SOL    HW153548   4.316   9.453  10.858
17217SOL    HW253549   4.462   9.424  10.883
17218SOL     OW53550  10.927   5.238   6.992
17218SOL    HW153551  10.952   5.147   7.005
17218SOL    HW253552  10.996   5.274   6.936
17219SOL     OW53553  10.531  11.444   5.385
17219SOL    HW153554  10.520  11.397   5.303
17219SOL    HW253555  10.445  11.439   5.428
17220SOL     OW53556  12.543   4.401   2.882
17220SOL    HW153557  12.505   4.436   2.962
17220SOL    HW253558  12.632   4.376   2.907
17221SOL     OW53559  10.747  11.022  12.904
17221SOL    HW153560  10.654  11.014  12.926
17221SOL    HW253561  10.755  11.110  12.867
17222SOL     OW53562   5.742   6.484   6.142
17222SOL    HW153563   5.753   6.396   6.104
17222SOL    HW253564   5.703   6.469   6.228
17223SOL     OW53565   6.900   3.562  10.533
17223SOL    HW153566   6.843   3.628  10.572
17223SOL    HW253567   6.877   3.481  10.579
17224SOL     OW53568   2.946  11.809  13.613
17224SOL    HW153569   2.971  11.895  13.578
17224SOL    HW253570   3.028  11.766  13.635
17225SOL     OW53571   1.628   2.208   7.246
17225SOL    HW153572   1.616   2.264   7.322
17225SOL    HW253573   1.608   2.264   7.171
17226SOL     OW53574   0.166   4.053   3.696
17226SOL    HW153575   0.079   4.091   3.705
17226SOL    HW253576   0.171   4.025   3.605
17227SOL     OW53577  11.079   3.095   0.298
17227SOL    HW153578  11.067   3.118   0.206
17227SOL    HW253579  10.997   3.123   0.340
17228SOL     OW53580   8.201  11.914   3.775
17228SOL    HW153581   8.196  11.825   3.811
17228SOL    HW253582   8.291  11.942   3.792
17229SOL     OW53583   2.171   1.569  14.223
17229SOL    HW153584   2.250   1.607  14.185
17229SOL    HW253585   2.199   1.483  14.255
17230SOL     OW53586  11.573   0.362   0.125
17230SOL    HW153587  11.559   0.375   0.219
17230SOL    HW253588  11.531   0.438   0.084
17231SOL     OW53589  14.507   4.904   3.222
17231SOL    HW153590  14.582   4.960   3.239
17231SOL    HW253591  14.539   4.839   3.160
17232SOL     OW53592   8.523  10.465   4.256
17232SOL    HW153593   8.432  10.491   4.242
17232SOL    HW253594   8.572  10.547   4.259
17233SOL     OW53595  10.734  12.262   0.828
17233SOL    HW153596  10.825  12.232   0.836
17233SOL    HW253597  10.736  12.353   0.858
17234SOL     OW53598  11.469  14.199   2.818
17234SOL    HW153599  11.518  14.246   2.886
17234SOL    HW253600  11.476  14.255   2.740
17235SOL     OW53601  11.042   6.140  12.488
17235SOL    HW153602  11.084   6.109  12.408
17235SOL    HW253603  11.113   6.139  12.553
17236SOL     OW53604   7.354  11.870   2.823
17236SOL    HW153605   7.283  11.900   2.880
17236SOL    HW253606   7.312  11.854   2.738
17237SOL     OW53607   0.237   8.826   4.128
17237SOL    HW153608   0.200   8.909   4.096
17237SOL    HW253609   0.197   8.759   4.072
17238SOL     OW53610  13.443   4.850  12.770
17238SOL    HW153611  13.483   4.850  12.683
17238SOL    HW253612  13.453   4.759  12.801
17239SOL     OW53613  14.464  12.444  11.237
17239SOL    HW153614  14.465  12.390  11.316
17239SOL    HW253615  14.540  12.416  11.186
17240SOL     OW53616   5.577  11.888  14.536
17240SOL    HW153617   5.554  11.943  14.461
17240SOL    HW253618   5.561  11.799  14.507
17241SOL     OW53619  12.215   5.128   6.569
17241SOL    HW153620  12.172   5.107   6.487
17241SOL    HW253621  12.171   5.207   6.601
17242SOL     OW53622   9.536   3.923  12.423
17242SOL    HW153623   9.608   3.945  12.363
17242SOL    HW253624   9.463   3.979  12.395
17243SOL     OW53625   2.570   1.342  12.758
17243SOL    HW153626   2.584   1.376  12.669
17243SOL    HW253627   2.654   1.357  12.803
17244SOL     OW53628   3.370   5.712   6.858
17244SOL    HW153629   3.411   5.657   6.924
17244SOL    HW253630   3.414   5.689   6.776
17245SOL     OW53631   9.732  12.859  12.613
17245SOL    HW153632   9.639  12.850  12.633
17245SOL    HW253633   9.746  12.800  12.539
17246SOL     OW53634  14.322   9.621  10.205
17246SOL    HW153635  14.375   9.563  10.151
17246SOL    HW253636  14.240   9.573  10.220
17247SOL     OW53637  14.775   5.377   6.941
17247SOL    HW153638  14.815   5.368   6.855
17247SOL    HW253639  14.682   5.359   6.927
17248SOL     OW53640   5.987   8.280  12.240
17248SOL    HW153641   6.063   8.223  12.246
17248SOL    HW253642   5.940   8.250  12.163
17249SOL     OW53643   7.941  12.357   9.057
17249SOL    HW153644   7.864  12.327   9.106
17249SOL    HW253645   7.923  12.449   9.039
17250SOL     OW53646  10.895   2.586   2.856
17250SOL    HW153647  10.906   2.492   2.871
17250SOL    HW253648  10.985   2.618   2.847
17251SOL     OW53649   9.535   4.417  12.977
17251SOL    HW153650   9.507   4.475  12.906
17251SOL    HW253651   9.508   4.330  12.948
17252SOL     OW53652  11.393   3.300   8.840
17252SOL    HW153653  11.406   3.207   8.821
17252SOL    HW253654  11.414   3.345   8.758
17253SOL     OW53655   1.459  14.777   1.171
17253SOL    HW153656   1.501  14.692   1.158
17253SOL    HW253657   1.391  14.760   1.236
17254SOL     OW53658   6.296   1.139   7.069
17254SOL    HW153659   6.365   1.192   7.029
17254SOL    HW253660   6.294   1.168   7.160
17255SOL     OW53661   4.147   5.590   4.215
17255SOL    HW153662   4.172   5.607   4.125
17255SOL    HW253663   4.107   5.672   4.245
17256SOL     OW53664   5.527  11.600   4.468
17256SOL    HW153665   5.457  11.537   4.484
17256SOL    HW253666   5.512  11.631   4.379
17257SOL     OW53667   6.810   0.865   0.477
17257SOL    HW153668   6.770   0.793   0.525
17257SOL    HW253669   6.904   0.850   0.484
17258SOL     OW53670   9.972  11.435   0.482
17258SOL    HW153671   9.985  11.391   0.565
17258SOL    HW253672   9.937  11.368   0.424
17259SOL     OW53673   2.430  13.124   3.313
17259SOL    HW153674   2.435  13.104   3.406
17259SOL    HW253675   2.377  13.053   3.276
17260SOL     OW53676   3.808   8.312  14.511
17260SOL    HW153677   3.782   8.290  14.601
17260SOL    HW253678   3.885   8.257  14.495
17261SOL     OW53679   0.615  10.185  10.843
17261SOL    HW153680   0.710  10.187  10.846
17261SOL    HW253681   0.587  10.245  10.912
17262SOL     OW53682   7.121   8.204   8.222
17262SOL    HW153683   7.188   8.262   8.257
17262SOL    HW253684   7.094   8.244   8.139
17263SOL     OW53685   6.569   5.226   6.040
17263SOL    HW153686   6.580   5.132   6.047
17263SOL    HW253687   6.658   5.261   6.043
17264SOL     OW53688  10.123   6.745   7.683
17264SOL    HW153689  10.175   6.681   7.636
17264SOL    HW253690  10.186   6.809   7.715
17265SOL     OW53691   2.710  12.143   9.165
17265SOL    HW153692   2.799  12.169   9.190
17265SOL    HW253693   2.703  12.168   9.073
17266SOL     OW53694   0.237   4.363  14.831
17266SOL    HW153695   0.316   4.340  14.781
17266SOL    HW253696   0.182   4.285  14.826
17267SOL     OW53697   2.688   6.486  11.925
17267SOL    HW153698   2.736   6.521  11.999
17267SOL    HW253699   2.658   6.399  11.954
17268SOL     OW53700   3.921   1.038   5.031
17268SOL    HW153701   3.894   0.993   5.111
17268SOL    HW253702   3.948   0.967   4.972
17269SOL     OW53703   4.252   3.876  12.786
17269SOL    HW153704   4.172   3.825  12.769
17269SOL    HW253705   4.243   3.905  12.877
17270SOL     OW53706   9.596   5.186  13.339
17270SOL    HW153707   9.643   5.187  13.423
17270SOL    HW253708   9.665   5.171  13.274
17271SOL     OW53709   8.675   5.408  12.917
17271SOL    HW153710   8.769   5.393  12.922
17271SOL    HW253711   8.660   5.443  12.830
17272SOL     OW53712   1.025   0.631   3.619
17272SOL    HW153713   1.093   0.564   3.624
17272SOL    HW253714   1.007   0.653   3.710
17273SOL     OW53715   5.337   5.347  12.117
17273SOL    HW153716   5.333   5.414  12.184
17273SOL    HW253717   5.247   5.336  12.087
17274SOL     OW53718   6.815   6.461   0.021
17274SOL    HW153719   6.756   6.393  14.855
17274SOL    HW253720   6.852   6.501  14.810
17275SOL     OW53721  13.928  11.856  10.049
17275SOL    HW153722  13.911  11.796   9.977
17275SOL    HW253723  14.019  11.884  10.038
17276SOL     OW53724  14.507   5.568  13.483
17276SOL    HW153725  14.511   5.628  13.409
17276SOL    HW253726  14.458   5.493  13.451
17277SOL     OW53727  13.090   3.791  13.316
17277SOL    HW153728  13.053   3.879  13.307
17277SOL    HW253729  13.030   3.746  13.376
17278SOL     OW53730  13.285   6.661   5.729
17278SOL    HW153731  13.291   6.702   5.815
17278SOL    HW253732  13.193   6.636   5.721
17279SOL     OW53733   7.622  11.914  11.091
17279SOL    HW153734   7.697  11.925  11.033
17279SOL    HW253735   7.595  12.004  11.112
17280SOL     OW53736  13.798   1.835   2.911
17280SOL    HW153737  13.774   1.786   2.990
17280SOL    HW253738  13.751   1.918   2.919
17281SOL     OW53739  12.689   6.076  10.619
17281SOL    HW153740  12.668   6.079  10.526
17281SOL    HW253741  12.779   6.109  10.624
17282SOL     OW53742  12.426  13.248  14.859
17282SOL    HW153743  12.514  13.287  14.862
17282SOL    HW253744  12.373  13.305   0.047
17283SOL     OW53745   4.284   6.623  11.282
17283SOL    HW153746   4.215   6.619  11.348
17283SOL    HW253747   4.299   6.717  11.269
17284SOL     OW53748  11.403  11.560   8.539
17284SOL    HW153749  11.491  11.559   8.577
17284SOL    HW253750  11.354  11.622   8.592
17285SOL     OW53751   2.559   2.989   8.136
17285SOL    HW153752   2.570   3.069   8.084
17285SOL    HW253753   2.531   3.021   8.222
17286SOL     OW53754   9.262   4.169  10.715
17286SOL    HW153755   9.194   4.236  10.716
17286SOL    HW253756   9.233   4.104  10.779
17287SOL     OW53757  13.080   1.348  14.203
17287SOL    HW153758  13.039   1.410  14.263
17287SOL    HW253759  13.127   1.403  14.141
17288SOL     OW53760   3.946  14.297   7.285
17288SOL    HW153761   3.882  14.335   7.225
17288SOL    HW253762   3.920  14.328   7.371
17289SOL     OW53763   5.715   2.672   3.477
17289SOL    HW153764   5.654   2.618   3.426
17289SOL    HW253765   5.660   2.726   3.533
17290SOL     OW53766   9.625   2.168   7.443
17290SOL    HW153767   9.613   2.255   7.404
17290SOL    HW253768   9.688   2.124   7.386
17291SOL     OW53769   8.179  11.703   8.317
17291SOL    HW153770   8.253  11.753   8.351
17291SOL    HW253771   8.187  11.709   8.222
17292SOL     OW53772  11.006   3.632   3.864
17292SOL    HW153773  10.910   3.637   3.866
17292SOL    HW253774  11.033   3.666   3.950
17293SOL     OW53775   4.843  10.370   4.841
17293SOL    HW153776   4.771  10.335   4.895
17293SOL    HW253777   4.800  10.433   4.783
17294SOL     OW53778   0.208   8.291   5.959
17294SOL    HW153779   0.191   8.378   5.995
17294SOL    HW253780   0.150   8.233   6.007
17295SOL     OW53781   5.668  11.579   7.652
17295SOL    HW153782   5.681  11.557   7.745
17295SOL    HW253783   5.710  11.508   7.605
17296SOL     OW53784  10.912   9.794  13.283
17296SOL    HW153785  10.959   9.854  13.341
17296SOL    HW253786  10.955   9.710  13.295
17297SOL     OW53787  10.166   7.901  11.851
17297SOL    HW153788  10.244   7.954  11.833
17297SOL    HW253789  10.103   7.929  11.785
17298SOL     OW53790   8.476   7.618  14.808
17298SOL    HW153791   8.402   7.662  14.766
17298SOL    HW253792   8.457   7.525  14.800
17299SOL     OW53793   4.144  14.264   5.403
17299SOL    HW153794   4.072  14.208   5.430
17299SOL    HW253795   4.107  14.352   5.399
17300SOL     OW53796  11.471   5.432   8.060
17300SOL    HW153797  11.517   5.348   8.059
17300SOL    HW253798  11.435   5.441   7.972
17301SOL     OW53799   7.914   8.095   0.885
17301SOL    HW153800   7.860   8.109   0.963
17301SOL    HW253801   7.944   8.004   0.894
17302SOL     OW53802  14.297   0.857  14.545
17302SOL    HW153803  14.330   0.928  14.490
17302SOL    HW253804  14.249   0.901  14.616
17303SOL     OW53805   7.348   4.282   6.046
17303SOL    HW153806   7.422   4.249   5.995
17303SOL    HW253807   7.273   4.230   6.015
17304SOL     OW53808  13.352  10.429   8.248
17304SOL    HW153809  13.400  10.356   8.209
17304SOL    HW253810  13.421  10.490   8.275
17305SOL     OW53811   3.529  13.255   7.110
17305SOL    HW153812   3.565  13.342   7.129
17305SOL    HW253813   3.446  13.273   7.066
17306SOL     OW53814   2.057   8.482   0.039
17306SOL    HW153815   1.973   8.436   0.046
17306SOL    HW253816   2.033   8.568   0.005
17307SOL     OW53817   9.274   6.678   6.175
17307SOL    HW153818   9.346   6.688   6.112
17307SOL    HW253819   9.283   6.753   6.233
17308SOL     OW53820   3.084   2.662  11.940
17308SOL    HW153821   3.095   2.583  11.888
17308SOL    HW253822   3.067   2.731  11.876
17309SOL     OW53823   2.102   2.006   1.940
17309SOL    HW153824   2.194   2.006   1.914
17309SOL    HW253825   2.098   2.063   2.016
17310SOL     OW53826   1.271   2.132   1.452
17310SOL    HW153827   1.301   2.209   1.501
17310SOL    HW253828   1.205   2.091   1.507
17311SOL     OW53829  13.361  10.354   6.649
17311SOL    HW153830  13.417  10.278   6.666
17311SOL    HW253831  13.411  10.406   6.587
17312SOL     OW53832   0.561   7.627   6.264
17312SOL    HW153833   0.528   7.662   6.181
17312SOL    HW253834   0.650   7.662   6.270
17313SOL     OW53835   7.828   5.247   4.063
17313SOL    HW153836   7.826   5.291   4.148
17313SOL    HW253837   7.739   5.254   4.030
17314SOL     OW53838  13.858  14.658   4.976
17314SOL    HW153839  13.766  14.683   4.976
17314SOL    HW253840  13.905  14.740   4.993
17315SOL     OW53841   5.749  11.360   1.513
17315SOL    HW153842   5.834  11.386   1.550
17315SOL    HW253843   5.767  11.278   1.468
17316SOL     OW53844  10.724  13.346   2.657
17316SOL    HW153845  10.793  13.388   2.708
17316SOL    HW253846  10.643  13.372   2.700
17317SOL     OW53847   5.861   7.463   3.159
17317SOL    HW153848   5.915   7.453   3.081
17317SOL    HW253849   5.787   7.404   3.144
17318SOL     OW53850   5.337  11.220   3.723
17318SOL    HW153851   5.299  11.150   3.775
17318SOL    HW253852   5.429  11.198   3.716
17319SOL     OW53853   4.514   0.380   2.120
17319SOL    HW153854   4.570   0.358   2.046
17319SOL    HW253855   4.435   0.328   2.106
17320SOL     OW53856  14.169   8.616  10.417
17320SOL    HW153857  14.139   8.622  10.508
17320SOL    HW253858  14.264   8.625  10.422
17321SOL     OW53859  14.691   9.611   5.870
17321SOL    HW153860  14.683   9.550   5.797
17321SOL    HW253861  14.785   9.629   5.876
17322SOL     OW53862   2.174   9.825   6.029
17322SOL    HW153863   2.170   9.800   5.937
17322SOL    HW253864   2.240   9.767   6.067
17323SOL     OW53865   0.515   9.515  12.680
17323SOL    HW153866   0.515   9.526  12.775
17323SOL    HW253867   0.604   9.488  12.658
17324SOL     OW53868  12.987   6.262   1.255
17324SOL    HW153869  12.978   6.175   1.294
17324SOL    HW253870  12.983   6.322   1.329
17325SOL     OW53871   4.271   5.000   2.312
17325SOL    HW153872   4.333   5.073   2.321
17325SOL    HW253873   4.204   5.017   2.378
17326SOL     OW53874   8.901  13.265   0.911
17326SOL    HW153875   8.853  13.184   0.928
17326SOL    HW253876   8.865  13.327   0.974
17327SOL     OW53877   5.963   5.469   2.244
17327SOL    HW153878   5.930   5.486   2.155
17327SOL    HW253879   5.983   5.376   2.245
17328SOL     OW53880  11.410   8.809   4.220
17328SOL    HW153881  11.351   8.752   4.269
17328SOL    HW253882  11.404   8.777   4.130
17329SOL     OW53883  14.042  10.160   9.823
17329SOL    HW153884  14.134  10.156   9.849
17329SOL    HW253885  14.043  10.202   9.737
17330SOL     OW53886   1.628   2.023   8.010
17330SOL    HW153887   1.596   2.106   8.046
17330SOL    HW253888   1.552   1.965   8.012
17331SOL     OW53889   1.850   7.738  11.903
17331SOL    HW153890   1.800   7.695  11.973
17331SOL    HW253891   1.940   7.707  11.915
17332SOL     OW53892   3.808   8.636  10.869
17332SOL    HW153893   3.745   8.577  10.910
17332SOL    HW253894   3.873   8.652  10.937
17333SOL     OW53895  14.360  10.650  11.525
17333SOL    HW153896  14.335  10.704  11.599
17333SOL    HW253897  14.352  10.560  11.557
17334SOL     OW53898  13.175  10.832   5.475
17334SOL    HW153899  13.255  10.872   5.508
17334SOL    HW253900  13.197  10.740   5.464
17335SOL     OW53901  11.891   8.128   7.564
17335SOL    HW153902  11.800   8.158   7.568
17335SOL    HW253903  11.943   8.208   7.568
17336SOL     OW53904   0.561  13.863   5.148
17336SOL    HW153905   0.575  13.802   5.221
17336SOL    HW253906   0.466  13.867   5.138
17337SOL     OW53907  14.596   5.117  13.746
17337SOL    HW153908  14.570   5.025  13.736
17337SOL    HW253909  14.540   5.164  13.684
17338SOL     OW53910  11.876  11.170  14.328
17338SOL    HW153911  11.926  11.088  14.324
17338SOL    HW253912  11.942  11.237  14.344
17339SOL     OW53913   5.427  12.974   9.311
17339SOL    HW153914   5.367  12.968   9.237
17339SOL    HW253915   5.374  12.951   9.387
17340SOL     OW53916   7.746  13.857   6.195
17340SOL    HW153917   7.751  13.921   6.124
17340SOL    HW253918   7.667  13.880   6.243
17341SOL     OW53919  11.864   5.232   6.190
17341SOL    HW153920  11.798   5.167   6.215
17341SOL    HW253921  11.815   5.298   6.140
17342SOL     OW53922  12.621   4.930   0.997
17342SOL    HW153923  12.657   4.887   0.920
17342SOL    HW253924  12.528   4.908   0.997
17343SOL     OW53925   0.426   4.131   8.566
17343SOL    HW153926   0.458   4.222   8.564
17343SOL    HW253927   0.351   4.134   8.625
17344SOL     OW53928  13.877  10.322   1.103
17344SOL    HW153929  13.946  10.351   1.162
17344SOL    HW253930  13.886  10.226   1.101
17345SOL     OW53931   8.546   8.840  10.396
17345SOL    HW153932   8.468   8.895  10.384
17345SOL    HW253933   8.525   8.783  10.470
17346SOL     OW53934   8.968   7.579  11.321
17346SOL    HW153935   8.981   7.582  11.226
17346SOL    HW253936   8.897   7.515  11.333
17347SOL     OW53937   5.598   7.107   8.934
17347SOL    HW153938   5.505   7.092   8.955
17347SOL    HW253939   5.611   7.057   8.853
17348SOL     OW53940   5.032   9.275   0.912
17348SOL    HW153941   5.094   9.210   0.946
17348SOL    HW253942   5.028   9.341   0.981
17349SOL     OW53943   2.375   6.016   5.593
17349SOL    HW153944   2.361   6.054   5.680
17349SOL    HW253945   2.469   6.002   5.588
17350SOL     OW53946   0.870   2.323   7.540
17350SOL    HW153947   0.963   2.301   7.542
17350SOL    HW253948   0.828   2.251   7.587
17351SOL     OW53949   6.753   4.525   5.578
17351SOL    HW153950   6.692   4.570   5.636
17351SOL    HW253951   6.749   4.434   5.605
17352SOL     OW53952   5.820   7.483  14.499
17352SOL    HW153953   5.762   7.495  14.424
17352SOL    HW253954   5.831   7.388  14.505
17353SOL     OW53955   6.931   1.552   7.084
17353SOL    HW153956   6.981   1.509   7.153
17353SOL    HW253957   6.885   1.623   7.128
17354SOL     OW53958   9.764  10.539   4.206
17354SOL    HW153959   9.694  10.502   4.153
17354SOL    HW253960   9.829  10.569   4.142
17355SOL     OW53961   2.838  13.587  14.687
17355SOL    HW153962   2.775  13.659  14.674
17355SOL    HW253963   2.817  13.525  14.617
17356SOL     OW53964   8.374   3.237   0.979
17356SOL    HW153965   8.309   3.167   0.989
17356SOL    HW253966   8.446   3.195   0.932
17357SOL     OW53967  11.530  14.654   5.589
17357SOL    HW153968  11.439  14.628   5.604
17357SOL    HW253969  11.577  14.625   5.668
17358SOL     OW53970  11.067  12.657  13.132
17358SOL    HW153971  11.056  12.637  13.039
17358SOL    HW253972  11.090  12.572  13.171
17359SOL     OW53973  10.172   3.406   1.966
17359SOL    HW153974  10.243   3.422   2.029
17359SOL    HW253975  10.138   3.493   1.945
17360SOL     OW53976  12.770  10.262   5.598
17360SOL    HW153977  12.775  10.324   5.671
17360SOL    HW253978  12.851  10.211   5.604
17361SOL     OW53979  11.366   5.062   0.174
17361SOL    HW153980  11.320   4.982   0.147
17361SOL    HW253981  11.313   5.097   0.245
17362SOL     OW53982  13.984  11.054  11.272
17362SOL    HW153983  13.986  10.960  11.259
17362SOL    HW253984  14.070  11.085  11.245
17363SOL     OW53985   7.932   9.074   0.922
17363SOL    HW153986   7.985   9.008   0.878
17363SOL    HW253987   7.992   9.117   0.982
17364SOL     OW53988   6.824   9.760  10.915
17364SOL    HW153989   6.856   9.802  10.995
17364SOL    HW253990   6.827   9.666  10.935
17365SOL     OW53991  11.481   7.198   4.162
17365SOL    HW153992  11.430   7.122   4.190
17365SOL    HW253993  11.440   7.225   4.079
17366SOL     OW53994  11.764   5.270   7.041
17366SOL    HW153995  11.839   5.259   6.983
17366SOL    HW253996  11.769   5.196   7.101
17367SOL     OW53997   2.214  11.081   5.904
17367SOL    HW153998   2.274  11.066   5.830
17367SOL    HW253999   2.265  11.134   5.965
17368SOL     OW54000   2.924   9.303   7.681
17368SOL    HW154001   2.852   9.268   7.629
17368SOL    HW254002   2.980   9.347   7.617
17369SOL     OW54003   4.807   2.221   7.361
17369SOL    HW154004   4.898   2.246   7.347
17369SOL    HW254005   4.756   2.289   7.319
17370SOL     OW54006  12.330   6.079   4.069
17370SOL    HW154007  12.391   6.024   4.118
17370SOL    HW254008  12.383   6.116   3.998
17371SOL     OW54009   0.888   5.485   4.091
17371SOL    HW154010   0.824   5.458   4.025
17371SOL    HW254011   0.955   5.533   4.042
17372SOL     OW54012  12.946  14.417   6.366
17372SOL    HW154013  13.033  14.378   6.353
17372SOL    HW254014  12.964  14.495   6.418
17373SOL     OW54015  12.503   4.552   1.357
17373SOL    HW154016  12.491   4.642   1.325
17373SOL    HW254017  12.529   4.564   1.449
17374SOL     OW54018   4.571  12.517   2.539
17374SOL    HW154019   4.496  12.483   2.587
17374SOL    HW254020   4.647  12.486   2.588
17375SOL     OW54021   1.647  10.473   9.820
17375SOL    HW154022   1.688  10.391   9.848
17375SOL    HW254023   1.591  10.498   9.893
17376SOL     OW54024  12.838  14.467  10.617
17376SOL    HW154025  12.761  14.484  10.564
17376SOL    HW254026  12.816  14.389  10.668
17377SOL     OW54027   9.942   4.553  13.268
17377SOL    HW154028   9.898   4.594  13.193
17377SOL    HW254029   9.874   4.547  13.335
17378SOL     OW54030   3.517   7.346   6.148
17378SOL    HW154031   3.579   7.276   6.167
17378SOL    HW254032   3.568   7.427   6.155
17379SOL     OW54033   3.821  10.442   3.750
17379SOL    HW154034   3.795  10.423   3.840
17379SOL    HW254035   3.908  10.482   3.758
17380SOL     OW54036  13.639   3.837   2.344
17380SOL    HW154037  13.589   3.756   2.340
17380SOL    HW254038  13.620   3.882   2.262
17381SOL     OW54039   2.629   2.288   5.239
17381SOL    HW154040   2.656   2.304   5.329
17381SOL    HW254041   2.614   2.376   5.203
17382SOL     OW54042   9.626   6.236   7.889
17382SOL    HW154043   9.582   6.250   7.805
17382SOL    HW254044   9.719   6.229   7.867
17383SOL     OW54045   6.551  11.013   9.731
17383SOL    HW154046   6.583  10.928   9.762
17383SOL    HW254047   6.562  11.009   9.636
17384SOL     OW54048   8.144   3.239   8.476
17384SOL    HW154049   8.239   3.236   8.488
17384SOL    HW254050   8.110   3.254   8.565
17385SOL     OW54051   5.115  10.097  12.711
17385SOL    HW154052   5.195  10.147  12.724
17385SOL    HW254053   5.095  10.060  12.797
17386SOL     OW54054   9.804  11.041   1.770
17386SOL    HW154055   9.838  11.046   1.859
17386SOL    HW254056   9.711  11.062   1.778
17387SOL     OW54057   8.587  10.468   6.194
17387SOL    HW154058   8.661  10.409   6.208
17387SOL    HW254059   8.527  10.419   6.138
17388SOL     OW54060   8.296   7.250   5.663
17388SOL    HW154061   8.280   7.295   5.746
17388SOL    HW254062   8.228   7.283   5.604
17389SOL     OW54063  13.898   8.031   5.386
17389SOL    HW154064  13.884   8.123   5.362
17389SOL    HW254065  13.814   7.989   5.370
17390SOL     OW54066   9.904  14.239   2.826
17390SOL    HW154067   9.991  14.241   2.787
17390SOL    HW254068   9.892  14.148   2.854
17391SOL     OW54069  10.198  11.983  14.816
17391SOL    HW154070  10.289  11.953  14.824
17391SOL    HW254071  10.150  11.926   0.008
17392SOL     OW54072   6.391   1.735   4.096
17392SOL    HW154073   6.355   1.725   4.184
17392SOL    HW254074   6.374   1.827   4.074
17393SOL     OW54075   4.416   5.868   7.459
17393SOL    HW154076   4.419   5.773   7.469
17393SOL    HW254077   4.487   5.900   7.515
17394SOL     OW54078   7.234   8.383  12.252
17394SOL    HW154079   7.228   8.455  12.189
17394SOL    HW254080   7.190   8.416  12.330
17395SOL     OW54081  11.277  12.488   3.390
17395SOL    HW154082  11.197  12.512   3.343
17395SOL    HW254083  11.318  12.572   3.412
17396SOL     OW54084   8.205   8.984   6.607
17396SOL    HW154085   8.195   8.945   6.694
17396SOL    HW254086   8.198   8.910   6.547
17397SOL     OW54087   4.272  13.966  11.327
17397SOL    HW154088   4.367  13.953  11.330
17397SOL    HW254089   4.257  14.010  11.243
17398SOL     OW54090   7.230   6.867   1.868
17398SOL    HW154091   7.230   6.878   1.773
17398SOL    HW254092   7.156   6.808   1.884
17399SOL     OW54093   3.363   9.459  11.261
17399SOL    HW154094   3.292   9.413  11.305
17399SOL    HW254095   3.319   9.514  11.196
17400SOL     OW54096  12.191   1.912   0.977
17400SOL    HW154097  12.116   1.963   0.946
17400SOL    HW254098  12.160   1.822   0.979
17401SOL     OW54099   6.139   1.529   4.451
17401SOL    HW154100   6.116   1.622   4.441
17401SOL    HW254101   6.131   1.493   4.362
17402SOL     OW54102   0.348  10.524  14.035
17402SOL    HW154103   0.409  10.451  14.044
17402SOL    HW254104   0.263  10.482  14.021
17403SOL     OW54105   4.318   4.676  12.292
17403SOL    HW154106   4.383   4.681  12.222
17403SOL    HW254107   4.268   4.597  12.272
17404SOL     OW54108  12.154   7.822   0.539
17404SOL    HW154109  12.138   7.905   0.494
17404SOL    HW254110  12.086   7.817   0.607
17405SOL     OW54111  14.703   0.853   6.254
17405SOL    HW154112  14.611   0.866   6.234
17405SOL    HW254113  14.707   0.768   6.298
17406SOL     OW54114  14.822   2.955  12.309
17406SOL    HW154115  14.781   3.037  12.336
17406SOL    HW254116  14.846   2.912  12.391
17407SOL     OW54117  13.984   6.125  14.275
17407SOL    HW154118  13.997   6.142  14.182
17407SOL    HW254119  14.057   6.170  14.318
17408SOL     OW54120   8.809  13.516  14.586
17408SOL    HW154121   8.762  13.439  14.555
17408SOL    HW254122   8.747  13.588  14.575
17409SOL     OW54123   4.192   9.994   7.713
17409SOL    HW154124   4.110   9.949   7.692
17409SOL    HW254125   4.257   9.924   7.721
17410SOL     OW54126  14.432   0.604   3.652
17410SOL    HW154127  14.365   0.597   3.719
17410SOL    HW254128  14.510   0.633   3.699
17411SOL     OW54129   2.824   0.280   7.067
17411SOL    HW154130   2.903   0.303   7.017
17411SOL    HW254131   2.755   0.332   7.026
17412SOL     OW54132   5.668   7.404   5.075
17412SOL    HW154133   5.672   7.378   5.167
17412SOL    HW254134   5.646   7.497   5.077
17413SOL     OW54135   7.535  11.639   7.232
17413SOL    HW154136   7.485  11.585   7.293
17413SOL    HW254137   7.616  11.590   7.218
17414SOL     OW54138   7.718  13.497  14.594
17414SOL    HW154139   7.696  13.590  14.591
17414SOL    HW254140   7.720  13.475  14.687
17415SOL     OW54141   6.900  12.391   0.109
17415SOL    HW154142   6.817  12.346   0.093
17415SOL    HW254143   6.908  12.395   0.204
17416SOL     OW54144  10.090   0.829   9.362
17416SOL    HW154145  10.096   0.925   9.363
17416SOL    HW254146  10.057   0.807   9.449
17417SOL     OW54147   7.675   3.492   7.072
17417SOL    HW154148   7.688   3.586   7.075
17417SOL    HW254149   7.676   3.464   7.164
17418SOL     OW54150   1.091   3.419  12.326
17418SOL    HW154151   1.085   3.460  12.412
17418SOL    HW254152   1.036   3.473  12.270
17419SOL     OW54153  11.376   7.035   3.360
17419SOL    HW154154  11.465   7.034   3.395
17419SOL    HW254155  11.344   7.124   3.378
17420SOL     OW54156  13.227   6.222   2.422
17420SOL    HW154157  13.266   6.159   2.484
17420SOL    HW254158  13.281   6.300   2.431
17421SOL     OW54159  10.456  11.902  14.834
17421SOL    HW154160  10.518  11.891  14.762
17421SOL    HW254161  10.509  11.932   0.040
17422SOL     OW54162   9.516  10.711   2.834
17422SOL    HW154163   9.569  10.635   2.857
17422SOL    HW254164   9.546  10.780   2.893
17423SOL     OW54165   2.734   2.811   3.472
17423SOL    HW154166   2.701   2.768   3.394
17423SOL    HW254167   2.668   2.794   3.539
17424SOL     OW54168   4.991   8.494  14.193
17424SOL    HW154169   4.966   8.404  14.172
17424SOL    HW254170   5.020   8.490  14.284
17425SOL     OW54171   7.877   8.086   8.337
17425SOL    HW154172   7.850   8.176   8.355
17425SOL    HW254173   7.972   8.086   8.349
17426SOL     OW54174   5.197   7.165  10.989
17426SOL    HW154175   5.183   7.117  10.907
17426SOL    HW254176   5.141   7.120  11.052
17427SOL     OW54177   2.132   3.589   1.257
17427SOL    HW154178   2.198   3.653   1.234
17427SOL    HW254179   2.072   3.587   1.182
17428SOL     OW54180   7.650   8.603   4.945
17428SOL    HW154181   7.575   8.662   4.951
17428SOL    HW254182   7.705   8.641   4.876
17429SOL     OW54183   7.134   2.307  11.376
17429SOL    HW154184   7.213   2.344  11.416
17429SOL    HW254185   7.065   2.320  11.441
17430SOL     OW54186  10.491   1.197   4.677
17430SOL    HW154187  10.567   1.211   4.733
17430SOL    HW254188  10.498   1.105   4.651
17431SOL     OW54189   4.181   4.919   1.750
17431SOL    HW154190   4.225   4.837   1.771
17431SOL    HW254191   4.218   4.945   1.666
17432SOL     OW54192  14.396   1.356   7.014
17432SOL    HW154193  14.387   1.269   7.053
17432SOL    HW254194  14.456   1.343   6.941
17433SOL     OW54195   8.284   3.532   7.719
17433SOL    HW154196   8.238   3.449   7.711
17433SOL    HW254197   8.347   3.532   7.647
17434SOL     OW54198   2.441  11.495  12.926
17434SOL    HW154199   2.351  11.464  12.931
17434SOL    HW254200   2.441  11.557  12.852
17435SOL     OW54201  11.353  14.561   9.620
17435SOL    HW154202  11.424  14.619   9.595
17435SOL    HW254203  11.275  14.617   9.621
17436SOL     OW54204  11.176  11.575   0.185
17436SOL    HW154205  11.173  11.670   0.173
17436SOL    HW254206  11.094  11.554   0.229
17437SOL     OW54207   0.266   9.983   7.786
17437SOL    HW154208   0.256   9.983   7.690
17437SOL    HW254209   0.304  10.068   7.807
17438SOL     OW54210  11.865   3.219  13.703
17438SOL    HW154211  11.808   3.293  13.726
17438SOL    HW254212  11.836   3.192  13.616
17439SOL     OW54213   6.857   7.619   9.678
17439SOL    HW154214   6.876   7.702   9.635
17439SOL    HW254215   6.908   7.622   9.759
17440SOL     OW54216  11.195   5.057  13.768
17440SOL    HW154217  11.245   4.999  13.711
17440SOL    HW254218  11.195   5.014  13.853
17441SOL     OW54219   7.879   6.927  13.697
17441SOL    HW154220   7.836   6.857  13.745
17441SOL    HW254221   7.906   6.887  13.614
17442SOL     OW54222  14.532   2.782   5.430
17442SOL    HW154223  14.584   2.807   5.354
17442SOL    HW254224  14.589   2.725   5.481
17443SOL     OW54225   1.261  11.510   3.450
17443SOL    HW154226   1.220  11.494   3.535
17443SOL    HW254227   1.297  11.598   3.457
17444SOL     OW54228   3.804  14.116   7.646
17444SOL    HW154229   3.776  14.025   7.637
17444SOL    HW254230   3.727  14.168   7.624
17445SOL     OW54231   2.255  13.164   2.911
17445SOL    HW154232   2.242  13.126   2.998
17445SOL    HW254233   2.169  13.156   2.868
17446SOL     OW54234   7.704   8.831  12.207
17446SOL    HW154235   7.617   8.866  12.223
17446SOL    HW254236   7.689   8.744  12.171
17447SOL     OW54237   5.643   3.260   1.951
17447SOL    HW154238   5.679   3.180   1.912
17447SOL    HW254239   5.646   3.325   1.881
17448SOL     OW54240  11.689   0.949  11.733
17448SOL    HW154241  11.670   1.043  11.732
17448SOL    HW254242  11.707   0.930  11.825
17449SOL     OW54243  12.222   5.892  11.905
17449SOL    HW154244  12.173   5.811  11.892
17449SOL    HW254245  12.285   5.895  11.833
17450SOL     OW54246   5.124  10.121   0.480
17450SOL    HW154247   5.081  10.159   0.403
17450SOL    HW254248   5.099  10.028   0.478
17451SOL     OW54249  12.485  13.390   0.287
17451SOL    HW154250  12.421  13.427   0.348
17451SOL    HW254251  12.472  13.440   0.206
17452SOL     OW54252  13.186   6.732  11.004
17452SOL    HW154253  13.258   6.729  11.067
17452SOL    HW254254  13.225   6.766  10.924
17453SOL     OW54255   2.859   8.653  11.156
17453SOL    HW154256   2.943   8.699  11.159
17453SOL    HW254257   2.793   8.723  11.149
17454SOL     OW54258   1.305   4.937   0.132
17454SOL    HW154259   1.386   4.913   0.086
17454SOL    HW254260   1.329   4.934   0.225
17455SOL     OW54261   9.680   9.343   0.801
17455SOL    HW154262   9.709   9.334   0.892
17455SOL    HW254263   9.637   9.428   0.798
17456SOL     OW54264  13.859   8.867   2.125
17456SOL    HW154265  13.809   8.786   2.122
17456SOL    HW254266  13.815   8.926   2.064
17457SOL     OW54267   1.623  13.433  10.756
17457SOL    HW154268   1.617  13.522  10.723
17457SOL    HW254269   1.562  13.430  10.829
17458SOL     OW54270   3.163  11.218   1.165
17458SOL    HW154271   3.167  11.313   1.160
17458SOL    HW254272   3.154  11.199   1.259
17459SOL     OW54273   6.499  12.282   1.952
17459SOL    HW154274   6.486  12.329   2.034
17459SOL    HW254275   6.530  12.348   1.890
17460SOL     OW54276   4.146   9.574  11.642
17460SOL    HW154277   4.240   9.583  11.629
17460SOL    HW254278   4.110   9.659  11.619
17461SOL     OW54279   8.830   2.017  11.021
17461SOL    HW154280   8.895   2.075  11.062
17461SOL    HW254281   8.858   2.011  10.930
17462SOL     OW54282  13.587   4.994   0.168
17462SOL    HW154283  13.515   4.995   0.105
17462SOL    HW254284  13.550   5.031   0.248
17463SOL     OW54285  11.443  10.934   1.555
17463SOL    HW154286  11.502  10.928   1.629
17463SOL    HW254287  11.356  10.916   1.591
17464SOL     OW54288   5.863  12.802  13.365
17464SOL    HW154289   5.885  12.890  13.336
17464SOL    HW254290   5.830  12.814  13.454
17465SOL     OW54291   9.826   2.947  12.433
17465SOL    HW154292   9.791   2.928  12.346
17465SOL    HW254293   9.875   2.869  12.457
17466SOL     OW54294   8.678  14.072  10.147
17466SOL    HW154295   8.606  14.100  10.090
17466SOL    HW254296   8.698  14.150  10.199
17467SOL     OW54297   2.090   0.502   4.002
17467SOL    HW154298   2.020   0.514   3.937
17467SOL    HW254299   2.062   0.554   4.077
17468SOL     OW54300   2.899  11.174   7.706
17468SOL    HW154301   2.975  11.232   7.714
17468SOL    HW254302   2.843  11.216   7.641
17469SOL     OW54303   2.496   9.286  12.741
17469SOL    HW154304   2.438   9.362  12.732
17469SOL    HW254305   2.481   9.255  12.830
17470SOL     OW54306   0.867  14.197   3.525
17470SOL    HW154307   0.788  14.143   3.516
17470SOL    HW254308   0.888  14.193   3.618
17471SOL     OW54309   0.487   9.552  14.649
17471SOL    HW154310   0.479   9.460  14.675
17471SOL    HW254311   0.552   9.551  14.579
17472SOL     OW54312   3.874   5.859   9.871
17472SOL    HW154313   3.947   5.832   9.927
17472SOL    HW254314   3.883   5.805   9.792
17473SOL     OW54315   8.029   4.960   5.893
17473SOL    HW154316   8.047   4.883   5.947
17473SOL    HW254317   7.946   4.940   5.849
17474SOL     OW54318  11.108   2.845   0.140
17474SOL    HW154319  11.060   2.801   0.070
17474SOL    HW254320  11.096   2.938   0.123
17475SOL     OW54321   9.398  11.114  11.981
17475SOL    HW154322   9.307  11.133  11.958
17475SOL    HW254323   9.447  11.190  11.948
17476SOL     OW54324   8.774   4.588   9.661
17476SOL    HW154325   8.826   4.643   9.603
17476SOL    HW254326   8.815   4.502   9.655
17477SOL     OW54327  10.147   4.206   7.165
17477SOL    HW154328  10.155   4.237   7.075
17477SOL    HW254329  10.155   4.111   7.158
17478SOL     OW54330   0.369   0.952   1.456
17478SOL    HW154331   0.436   1.001   1.409
17478SOL    HW254332   0.412   0.924   1.537
17479SOL     OW54333   9.174  14.216  12.953
17479SOL    HW154334   9.240  14.147  12.948
17479SOL    HW254335   9.216  14.286  13.003
17480SOL     OW54336  11.622   2.439   4.908
17480SOL    HW154337  11.717   2.441   4.901
17480SOL    HW254338  11.597   2.352   4.878
17481SOL     OW54339   4.616   6.344  13.739
17481SOL    HW154340   4.574   6.279  13.795
17481SOL    HW254341   4.684   6.382  13.794
17482SOL     OW54342  10.087  14.708  12.482
17482SOL    HW154343  10.089  14.798  12.448
17482SOL    HW254344  10.159  14.705  12.545
17483SOL     OW54345   4.270   5.673   4.588
17483SOL    HW154346   4.348   5.657   4.641
17483SOL    HW254347   4.303   5.718   4.510
17484SOL     OW54348   0.130   9.617   9.316
17484SOL    HW154349   0.158   9.568   9.393
17484SOL    HW254350   0.212   9.650   9.277
17485SOL     OW54351   2.101   5.537  12.224
17485SOL    HW154352   2.148   5.613  12.189
17485SOL    HW254353   2.141   5.462  12.180
17486SOL     OW54354   3.557   1.907   9.141
17486SOL    HW154355   3.491   1.865   9.195
17486SOL    HW254356   3.547   1.866   9.055
17487SOL     OW54357   7.119   2.481   8.834
17487SOL    HW154358   7.052   2.486   8.765
17487SOL    HW254359   7.152   2.570   8.841
17488SOL     OW54360   3.636   8.782   4.992
17488SOL    HW154361   3.648   8.741   4.906
17488SOL    HW254362   3.709   8.843   5.000
17489SOL     OW54363   7.938   0.339  10.289
17489SOL    HW154364   7.893   0.296  10.362
17489SOL    HW254365   7.867   0.381  10.239
17490SOL     OW54366   7.938   3.888  13.399
17490SOL    HW154367   7.855   3.907  13.355
17490SOL    HW254368   7.912   3.845  13.480
17491SOL     OW54369   5.280  11.380   8.677
17491SOL    HW154370   5.298  11.383   8.583
17491SOL    HW254371   5.190  11.413   8.685
17492SOL     OW54372   2.330   4.350  11.291
17492SOL    HW154373   2.261   4.376  11.351
17492SOL    HW254374   2.314   4.257  11.274
17493SOL     OW54375   7.555   9.407   7.377
17493SOL    HW154376   7.555   9.471   7.306
17493SOL    HW254377   7.467   9.413   7.414
17494SOL     OW54378   0.680  13.904  14.561
17494SOL    HW154379   0.730  13.985  14.549
17494SOL    HW254380   0.743  13.842  14.597
17495SOL     OW54381  14.567  10.708  12.722
17495SOL    HW154382  14.543  10.616  12.736
17495SOL    HW254383  14.492  10.746  12.677
17496SOL     OW54384   1.854  12.799   3.510
17496SOL    HW154385   1.828  12.885   3.476
17496SOL    HW254386   1.809  12.792   3.594
17497SOL     OW54387   7.256  12.673   3.470
17497SOL    HW154388   7.275  12.746   3.529
17497SOL    HW254389   7.223  12.714   3.390
17498SOL     OW54390   0.892   1.633   6.627
17498SOL    HW154391   0.832   1.642   6.701
17498SOL    HW254392   0.979   1.646   6.665
17499SOL     OW54393   8.767   7.487   6.757
17499SOL    HW154394   8.859   7.472   6.739
17499SOL    HW254395   8.758   7.476   6.852
17500SOL     OW54396  10.003   2.138   9.911
17500SOL    HW154397  10.008   2.168   9.820
17500SOL    HW254398  10.075   2.184   9.955
17501SOL     OW54399   2.659   0.989   9.991
17501SOL    HW154400   2.589   0.928  10.016
17501SOL    HW254401   2.738   0.952  10.030
17502SOL     OW54402  10.123   0.325   4.635
17502SOL    HW154403  10.184   0.253   4.651
17502SOL    HW254404  10.038   0.292   4.666
17503SOL     OW54405   4.625   6.421   9.777
17503SOL    HW154406   4.674   6.392   9.701
17503SOL    HW254407   4.648   6.359   9.846
17504SOL     OW54408  13.771  10.660   8.194
17504SOL    HW154409  13.844  10.648   8.134
17504SOL    HW254410  13.697  10.680   8.138
17505SOL     OW54411   4.002  10.569  10.149
17505SOL    HW154412   4.030  10.520  10.226
17505SOL    HW254413   3.918  10.607  10.173
17506SOL     OW54414   7.289   0.037   0.669
17506SOL    HW154415   7.365   0.075   0.711
17506SOL    HW254416   7.229   0.017   0.741
17507SOL     OW54417   0.628  11.759   1.600
17507SOL    HW154418   0.672  11.835   1.638
17507SOL    HW254419   0.641  11.769   1.505
17508SOL     OW54420   6.630   5.076  13.048
17508SOL    HW154421   6.571   5.026  13.105
17508SOL    HW254422   6.626   5.031  12.964
17509SOL     OW54423   3.607   0.151  10.362
17509SOL    HW154424   3.572   0.063  10.375
17509SOL    HW254425   3.652   0.170  10.445
17510SOL     OW54426   2.175   3.517  11.038
17510SOL    HW154427   2.251   3.488  11.089
17510SOL    HW254428   2.110   3.542  11.104
17511SOL     OW54429  14.721   8.006  10.424
17511SOL    HW154430  14.809   7.972  10.440
17511SOL    HW254431  14.691   8.037  10.509
17512SOL     OW54432   4.810  10.744   6.049
17512SOL    HW154433   4.831  10.668   6.103
17512SOL    HW254434   4.866  10.735   5.972
17513SOL     OW54435   8.974   7.773   5.536
17513SOL    HW154436   8.963   7.798   5.627
17513SOL    HW254437   8.901   7.714   5.518
17514SOL     OW54438  11.638  14.308  13.674
17514SOL    HW154439  11.677  14.392  13.649
17514SOL    HW254440  11.576  14.329  13.743
17515SOL     OW54441   2.540   6.570   0.853
17515SOL    HW154442   2.588   6.652   0.847
17515SOL    HW254443   2.452   6.595   0.882
17516SOL     OW54444  12.650  13.901  11.749
17516SOL    HW154445  12.681  13.846  11.677
17516SOL    HW254446  12.704  13.980  11.744
17517SOL     OW54447  11.859   2.750  14.846
17517SOL    HW154448  11.868   2.834   0.023
17517SOL    HW254449  11.946   2.712  14.847
17518SOL     OW54450   5.126   3.712   0.341
17518SOL    HW154451   5.074   3.681   0.267
17518SOL    HW254452   5.085   3.795   0.366
17519SOL     OW54453  10.898   3.070   8.205
17519SOL    HW154454  10.840   3.097   8.133
17519SOL    HW254455  10.874   3.128   8.278
17520SOL     OW54456  10.349   8.221  12.680
17520SOL    HW154457  10.410   8.167  12.629
17520SOL    HW254458  10.393   8.306  12.687
17521SOL     OW54459   7.436   6.361  13.756
17521SOL    HW154460   7.358   6.322  13.715
17521SOL    HW254461   7.418   6.357  13.850
17522SOL     OW54462   6.785  13.574   3.356
17522SOL    HW154463   6.772  13.658   3.401
17522SOL    HW254464   6.880  13.562   3.356
17523SOL     OW54465   2.354   7.726  14.679
17523SOL    HW154466   2.368   7.814  14.645
17523SOL    HW254467   2.372   7.733  14.773
17524SOL     OW54468  12.657   6.434   0.326
17524SOL    HW154469  12.680   6.363   0.266
17524SOL    HW254470  12.726   6.500   0.313
17525SOL     OW54471   0.343   4.966   1.926
17525SOL    HW154472   0.289   4.886   1.925
17525SOL    HW254473   0.280   5.037   1.932
17526SOL     OW54474   6.041   9.892  12.030
17526SOL    HW154475   6.000   9.974  12.056
17526SOL    HW254476   6.041   9.894  11.935
17527SOL     OW54477   8.563  12.870   6.750
17527SOL    HW154478   8.473  12.893   6.728
17527SOL    HW254479   8.574  12.902   6.840
17528SOL     OW54480  10.947   9.455   1.148
17528SOL    HW154481  10.955   9.365   1.179
17528SOL    HW254482  10.996   9.507   1.212
17529SOL     OW54483   7.190   8.745  10.000
17529SOL    HW154484   7.184   8.649  10.001
17529SOL    HW254485   7.280   8.762   9.971
17530SOL     OW54486   9.023   6.846   4.027
17530SOL    HW154487   9.012   6.791   4.105
17530SOL    HW254488   8.949   6.826   3.971
17531SOL     OW54489   9.424   4.501   0.663
17531SOL    HW154490   9.472   4.584   0.655
17531SOL    HW254491   9.393   4.501   0.754
17532SOL     OW54492  12.270   6.599   0.858
17532SOL    HW154493  12.289   6.520   0.908
17532SOL    HW254494  12.262   6.668   0.924
17533SOL     OW54495  14.055   8.175   6.712
17533SOL    HW154496  14.092   8.153   6.798
17533SOL    HW254497  14.116   8.240   6.676
17534SOL     OW54498   3.484  11.473   0.417
17534SOL    HW154499   3.565  11.507   0.381
17534SOL    HW254500   3.473  11.388   0.375
17535SOL     OW54501   7.268  14.425   7.804
17535SOL    HW154502   7.195  14.364   7.797
17535SOL    HW254503   7.285  14.453   7.714
17536SOL     OW54504   2.618  10.714   1.820
17536SOL    HW154505   2.641  10.803   1.795
17536SOL    HW254506   2.565  10.682   1.746
17537SOL     OW54507   0.081   3.621  13.223
17537SOL    HW154508   0.001   3.612  13.170
17537SOL    HW254509   0.072   3.706  13.265
17538SOL     OW54510  14.548   0.470   5.926
17538SOL    HW154511  14.533   0.463   6.020
17538SOL    HW254512  14.594   0.553   5.915
17539SOL     OW54513  14.688  10.117   0.518
17539SOL    HW154514  14.736  10.190   0.479
17539SOL    HW254515  14.709  10.122   0.611
17540SOL     OW54516   3.318   1.581  11.698
17540SOL    HW154517   3.303   1.488  11.715
17540SOL    HW254518   3.412   1.593  11.710
17541SOL     OW54519   0.983   0.807   7.348
17541SOL    HW154520   0.930   0.824   7.270
17541SOL    HW254521   0.938   0.735   7.393
17542SOL     OW54522   9.106   0.662   1.389
17542SOL    HW154523   9.138   0.745   1.425
17542SOL    HW254524   9.024   0.647   1.435
17543SOL     OW54525   3.498   7.119   4.484
17543SOL    HW154526   3.528   7.063   4.555
17543SOL    HW254527   3.510   7.208   4.517
17544SOL     OW54528   4.689   1.529  10.831
17544SOL    HW154529   4.762   1.577  10.793
17544SOL    HW254530   4.698   1.542  10.925
17545SOL     OW54531   8.192  14.796   0.295
17545SOL    HW154532   8.277  14.784   0.254
17545SOL    HW254533   8.207  14.861   0.364
17546SOL     OW54534   7.146   9.109   1.471
17546SOL    HW154535   7.194   9.157   1.538
17546SOL    HW254536   7.150   9.018   1.499
17547SOL     OW54537   6.111   2.082   3.197
17547SOL    HW154538   6.082   1.997   3.231
17547SOL    HW254539   6.054   2.146   3.240
17548SOL     OW54540   3.969   1.435   1.963
17548SOL    HW154541   3.920   1.509   2.000
17548SOL    HW254542   4.060   1.465   1.961
17549SOL     OW54543  11.103   5.394   4.507
17549SOL    HW154544  11.125   5.487   4.504
17549SOL    HW254545  11.023   5.387   4.454
17550SOL     OW54546  10.225   0.550   6.161
17550SOL    HW154547  10.238   0.470   6.212
17550SOL    HW254548  10.223   0.620   6.226
17551SOL     OW54549  14.716   0.373  11.955
17551SOL    HW154550  14.713   0.285  11.918
17551SOL    HW254551  14.755   0.427  11.886
17552SOL     OW54552  13.013  13.202  10.245
17552SOL    HW154553  13.003  13.211  10.150
17552SOL    HW254554  13.098  13.242  10.264
17553SOL     OW54555  13.203   3.125   6.627
17553SOL    HW154556  13.121   3.081   6.650
17553SOL    HW254557  13.231   3.081   6.547
17554SOL     OW54558   8.707  12.242   2.685
17554SOL    HW154559   8.635  12.233   2.623
17554SOL    HW254560   8.735  12.152   2.702
17555SOL     OW54561   4.241  14.744  14.298
17555SOL    HW154562   4.209  14.655  14.279
17555SOL    HW254563   4.334  14.741  14.277
17556SOL     OW54564   2.620   4.238   8.672
17556SOL    HW154565   2.636   4.144   8.664
17556SOL    HW254566   2.562   4.259   8.598
17557SOL     OW54567   5.918   3.895   4.616
17557SOL    HW154568   5.836   3.859   4.651
17557SOL    HW254569   5.976   3.819   4.609
17558SOL     OW54570   7.569   3.289   4.715
17558SOL    HW154571   7.648   3.327   4.676
17558SOL    HW254572   7.574   3.312   4.808
17559SOL     OW54573   6.011   7.607   8.904
17559SOL    HW154574   5.991   7.684   8.957
17559SOL    HW254575   5.993   7.532   8.961
17560SOL     OW54576  13.124   7.709  13.177
17560SOL    HW154577  13.188   7.647  13.211
17560SOL    HW254578  13.056   7.654  13.138
17561SOL     OW54579   7.659   9.165   4.240
17561SOL    HW154580   7.581   9.113   4.222
17561SOL    HW254581   7.656   9.183   4.334
17562SOL     OW54582   2.454  10.201  11.395
17562SOL    HW154583   2.529  10.142  11.395
17562SOL    HW254584   2.444  10.227  11.487
17563SOL     OW54585   7.627  13.625   6.929
17563SOL    HW154586   7.689  13.697   6.923
17563SOL    HW254587   7.650  13.581   7.011
17564SOL     OW54588   3.932   5.946   0.179
17564SOL    HW154589   3.904   5.968   0.090
17564SOL    HW254590   4.027   5.944   0.175
17565SOL     OW54591   5.027   2.168   4.759
17565SOL    HW154592   4.970   2.243   4.775
17565SOL    HW254593   5.102   2.204   4.713
17566SOL     OW54594   6.207  12.029   4.373
17566SOL    HW154595   6.218  12.084   4.451
17566SOL    HW254596   6.296  12.004   4.349
17567SOL     OW54597   8.564   5.492   1.644
17567SOL    HW154598   8.545   5.500   1.551
17567SOL    HW254599   8.518   5.413   1.672
17568SOL     OW54600   0.452   9.820   0.623
17568SOL    HW154601   0.422   9.783   0.706
17568SOL    HW254602   0.548   9.821   0.630
17569SOL     OW54603   7.623   7.304   7.296
17569SOL    HW154604   7.639   7.212   7.273
17569SOL    HW254605   7.528   7.314   7.288
17570SOL     OW54606   0.056   1.800  11.454
17570SOL    HW154607   0.010   1.877  11.421
17570SOL    HW254608   0.011   1.726  11.414
17571SOL     OW54609   8.312   0.065   3.494
17571SOL    HW154610   8.236   0.051   3.550
17571SOL    HW254611   8.384   0.082   3.555
17572SOL     OW54612   9.551   9.512   5.360
17572SOL    HW154613   9.552   9.590   5.415
17572SOL    HW254614   9.464   9.475   5.373
17573SOL     OW54615   2.724   8.715   5.007
17573SOL    HW154616   2.765   8.631   5.030
17573SOL    HW254617   2.702   8.754   5.091
17574SOL     OW54618   1.818  10.017  11.132
17574SOL    HW154619   1.821  10.109  11.108
17574SOL    HW254620   1.898  10.003  11.183
17575SOL     OW54621   0.429   5.761   2.656
17575SOL    HW154622   0.333   5.753   2.664
17575SOL    HW254623   0.452   5.830   2.718
17576SOL     OW54624   8.155   4.410   4.723
17576SOL    HW154625   8.065   4.398   4.752
17576SOL    HW254626   8.160   4.363   4.640
17577SOL     OW54627   9.813   8.240  10.047
17577SOL    HW154628   9.766   8.163  10.080
17577SOL    HW254629   9.762   8.314  10.081
17578SOL     OW54630   1.934   0.138   9.484
17578SOL    HW154631   1.998   0.068   9.470
17578SOL    HW254632   1.987   0.214   9.508
17579SOL     OW54633  10.877   7.301  11.250
17579SOL    HW154634  10.953   7.316  11.193
17579SOL    HW254635  10.877   7.376  11.309
17580SOL     OW54636   8.723   9.012  11.579
17580SOL    HW154637   8.700   9.071  11.650
17580SOL    HW254638   8.689   9.054  11.500
17581SOL     OW54639   2.536   2.051  10.435
17581SOL    HW154640   2.508   2.012  10.519
17581SOL    HW254641   2.632   2.044  10.437
17582SOL     OW54642   1.461   9.168  11.784
17582SOL    HW154643   1.530   9.152  11.720
17582SOL    HW254644   1.381   9.171  11.731
17583SOL     OW54645   4.466   6.520   5.330
17583SOL    HW154646   4.554   6.553   5.350
17583SOL    HW254647   4.407   6.588   5.361
17584SOL     OW54648   9.971  10.320  14.805
17584SOL    HW154649   9.989  10.244  14.860
17584SOL    HW254650   9.928  10.382  14.863
17585SOL     OW54651  10.215   6.145   6.823
17585SOL    HW154652  10.252   6.118   6.739
17585SOL    HW254653  10.120   6.135   6.813
17586SOL     OW54654   6.582  10.307   3.883
17586SOL    HW154655   6.604  10.327   3.974
17586SOL    HW254656   6.487  10.301   3.881
17587SOL     OW54657   2.273  11.772   4.305
17587SOL    HW154658   2.179  11.767   4.318
17587SOL    HW254659   2.294  11.864   4.319
17588SOL     OW54660  14.467   8.435   0.769
17588SOL    HW154661  14.554   8.423   0.808
17588SOL    HW254662  14.415   8.361   0.802
17589SOL     OW54663  12.850   4.770  12.049
17589SOL    HW154664  12.782   4.800  12.109
17589SOL    HW254665  12.861   4.842  11.987
17590SOL     OW54666   3.431   3.169  11.923
17590SOL    HW154667   3.410   3.157  11.831
17590SOL    HW254668   3.508   3.227  11.924
17591SOL     OW54669   1.043   8.122   6.385
17591SOL    HW154670   0.958   8.115   6.341
17591SOL    HW254671   1.094   8.048   6.351
17592SOL     OW54672   8.949   1.552   1.235
17592SOL    HW154673   8.934   1.481   1.298
17592SOL    HW254674   8.892   1.531   1.161
17593SOL     OW54675   2.079   6.538   3.647
17593SOL    HW154676   1.991   6.510   3.669
17593SOL    HW254677   2.134   6.501   3.715
17594SOL     OW54678  11.570  11.751   0.968
17594SOL    HW154679  11.665  11.762   0.971
17594SOL    HW254680  11.546  11.732   1.058
17595SOL     OW54681  14.411   0.987   0.204
17595SOL    HW154682  14.484   0.937   0.242
17595SOL    HW254683  14.453   1.051   0.147
17596SOL     OW54684   2.971  12.261   0.282
17596SOL    HW154685   3.044  12.311   0.319
17596SOL    HW254686   2.915  12.327   0.241
17597SOL     OW54687   2.909   9.230   4.889
17597SOL    HW154688   2.985   9.175   4.905
17597SOL    HW254689   2.940   9.319   4.902
17598SOL     OW54690  14.537   5.878   2.747
17598SOL    HW154691  14.497   5.791   2.759
17598SOL    HW254692  14.497   5.912   2.667
17599SOL     OW54693   8.753   2.772   2.899
17599SOL    HW154694   8.703   2.838   2.852
17599SOL    HW254695   8.712   2.768   2.985
17600SOL     OW54696   5.810   5.540   1.479
17600SOL    HW154697   5.735   5.599   1.476
17600SOL    HW254698   5.886   5.597   1.488
17601SOL     OW54699   5.969   7.812  12.422
17601SOL    HW154700   5.999   7.878  12.484
17601SOL    HW254701   6.030   7.819  12.348
17602SOL     OW54702   4.522  13.952  12.621
17602SOL    HW154703   4.615  13.950  12.600
17602SOL    HW254704   4.515  13.905  12.704
17603SOL     OW54705  11.804  11.723   3.783
17603SOL    HW154706  11.776  11.662   3.852
17603SOL    HW254707  11.755  11.803   3.801
17604SOL     OW54708   5.217   3.368  11.423
17604SOL    HW154709   5.261   3.350  11.340
17604SOL    HW254710   5.216   3.284  11.469
17605SOL     OW54711   9.369  10.716  11.438
17605SOL    HW154712   9.374  10.799  11.390
17605SOL    HW254713   9.344  10.652  11.372
17606SOL     OW54714   6.777  12.422  11.426
17606SOL    HW154715   6.743  12.423  11.336
17606SOL    HW254716   6.867  12.455  11.418
17607SOL     OW54717  13.764  10.079   0.817
17607SOL    HW154718  13.746  10.063   0.910
17607SOL    HW254719  13.852  10.116   0.816
17608SOL     OW54720  14.831   5.640   0.579
17608SOL    HW154721  14.788   5.598   0.504
17608SOL    HW254722   0.048   5.595   0.586
17609SOL     OW54723   4.256   2.739  10.230
17609SOL    HW154724   4.298   2.672  10.176
17609SOL    HW254725   4.320   2.811  10.233
17610SOL     OW54726  10.170   6.148   6.127
17610SOL    HW154727  10.097   6.188   6.080
17610SOL    HW254728  10.147   6.156   6.219
17611SOL     OW54729  12.524   0.293   9.536
17611SOL    HW154730  12.576   0.345   9.475
17611SOL    HW254731  12.575   0.214   9.549
17612SOL     OW54732  10.736  10.660   6.449
17612SOL    HW154733  10.645  10.678   6.473
17612SOL    HW254734  10.757  10.726   6.384
17613SOL     OW54735   1.966   9.519   7.105
17613SOL    HW154736   2.047   9.555   7.072
17613SOL    HW254737   1.946   9.571   7.183
17614SOL     OW54738   6.112   7.527  11.236
17614SOL    HW154739   6.108   7.558  11.146
17614SOL    HW254740   6.027   7.551  11.273
17615SOL     OW54741   1.826   7.653  13.336
17615SOL    HW154742   1.831   7.637  13.242
17615SOL    HW254743   1.916   7.652  13.366
17616SOL     OW54744   7.295   9.398  12.762
17616SOL    HW154745   7.351   9.418  12.837
17616SOL    HW254746   7.207   9.392  12.798
17617SOL     OW54747  14.549   0.837  10.739
17617SOL    HW154748  14.563   0.747  10.766
17617SOL    HW254749  14.633   0.881  10.755
17618SOL     OW54750   6.264   0.262   3.809
17618SOL    HW154751   6.279   0.170   3.832
17618SOL    HW254752   6.222   0.299   3.886
17619SOL     OW54753  12.195   0.381  11.181
17619SOL    HW154754  12.278   0.339  11.159
17619SOL    HW254755  12.220   0.460  11.230
17620SOL     OW54756   4.977   2.077   1.731
17620SOL    HW154757   5.020   1.993   1.748
17620SOL    HW254758   5.042   2.129   1.685
17621SOL     OW54759  13.938   0.288  14.586
17621SOL    HW154760  13.979   0.325  14.664
17621SOL    HW254761  13.844   0.295  14.603
17622SOL     OW54762  13.246   2.819  12.216
17622SOL    HW154763  13.243   2.832  12.311
17622SOL    HW254764  13.329   2.857  12.189
17623SOL     OW54765  10.744   8.297   9.548
17623SOL    HW154766  10.756   8.386   9.515
17623SOL    HW254767  10.656   8.298   9.587
17624SOL     OW54768   8.658   8.082  11.488
17624SOL    HW154769   8.617   8.142  11.551
17624SOL    HW254770   8.586   8.025  11.460
17625SOL     OW54771   6.173   5.196   3.561
17625SOL    HW154772   6.244   5.227   3.618
17625SOL    HW254773   6.093   5.215   3.610
17626SOL     OW54774   9.706   6.145   5.911
17626SOL    HW154775   9.726   6.083   5.841
17626SOL    HW254776   9.624   6.115   5.948
17627SOL     OW54777   5.995   8.679   8.029
17627SOL    HW154778   6.028   8.742   7.965
17627SOL    HW254779   5.910   8.652   7.994
17628SOL     OW54780  11.515   8.009  10.196
17628SOL    HW154781  11.553   8.077  10.141
17628SOL    HW254782  11.457   7.961  10.137
17629SOL     OW54783   5.040   6.229   8.582
17629SOL    HW154784   5.133   6.205   8.588
17629SOL    HW254785   5.037   6.319   8.613
17630SOL     OW54786   5.235   1.883   8.923
17630SOL    HW154787   5.313   1.934   8.905
17630SOL    HW254788   5.198   1.922   9.002
17631SOL     OW54789  13.982  10.638  12.745
17631SOL    HW154790  13.965  10.680  12.661
17631SOL    HW254791  14.031  10.559  12.724
17632SOL     OW54792   3.327  11.006   5.846
17632SOL    HW154793   3.378  11.035   5.771
17632SOL    HW254794   3.241  10.986   5.810
17633SOL     OW54795  11.626   3.702   3.491
17633SOL    HW154796  11.681   3.665   3.421
17633SOL    HW254797  11.688   3.745   3.550
17634SOL     OW54798   1.292  14.633   8.895
17634SOL    HW154799   1.266  14.685   8.972
17634SOL    HW254800   1.301  14.697   8.825
17635SOL     OW54801  13.308   2.875   5.109
17635SOL    HW154802  13.328   2.909   5.196
17635SOL    HW254803  13.282   2.952   5.058
17636SOL     OW54804  12.160  11.183   5.943
17636SOL    HW154805  12.117  11.209   6.024
17636SOL    HW254806  12.224  11.117   5.970
17637SOL     OW54807  11.997   6.914  13.106
17637SOL    HW154808  11.983   7.009  13.101
17637SOL    HW254809  12.071   6.896  13.049
17638SOL     OW54810  10.035  10.837   9.400
17638SOL    HW154811   9.967  10.772   9.418
17638SOL    HW254812  10.114  10.786   9.387
17639SOL     OW54813   6.198   3.813  10.021
17639SOL    HW154814   6.109   3.798  10.050
17639SOL    HW254815   6.214   3.906  10.039
17640SOL     OW54816   3.375   5.750   4.608
17640SOL    HW154817   3.359   5.844   4.603
17640SOL    HW254818   3.329   5.713   4.532
17641SOL     OW54819   5.221   3.941   1.795
17641SOL    HW154820   5.218   3.977   1.884
17641SOL    HW254821   5.231   4.017   1.738
17642SOL     OW54822   3.502   9.455   5.464
17642SOL    HW154823   3.541   9.411   5.388
17642SOL    HW254824   3.577   9.484   5.516
17643SOL     OW54825   7.947   2.245   8.912
17643SOL    HW154826   7.957   2.180   8.843
17643SOL    HW254827   7.923   2.194   8.989
17644SOL     OW54828   6.681  13.306   3.775
17644SOL    HW154829   6.775  13.310   3.757
17644SOL    HW254830   6.640  13.314   3.689
17645SOL     OW54831   3.891   1.476   7.277
17645SOL    HW154832   3.844   1.496   7.196
17645SOL    HW254833   3.873   1.550   7.335
17646SOL     OW54834   7.826   9.439  10.817
17646SOL    HW154835   7.821   9.534  10.821
17646SOL    HW254836   7.796   9.416  10.729
17647SOL     OW54837  11.490   1.541   8.975
17647SOL    HW154838  11.485   1.564   9.067
17647SOL    HW254839  11.398   1.527   8.949
17648SOL     OW54840  10.154   6.343  14.101
17648SOL    HW154841  10.066   6.327  14.068
17648SOL    HW254842  10.212   6.302  14.037
17649SOL     OW54843  13.370   6.155   2.054
17649SOL    HW154844  13.287   6.190   2.087
17649SOL    HW254845  13.344   6.097   1.983
17650SOL     OW54846   0.601   1.870  12.717
17650SOL    HW154847   0.643   1.879  12.631
17650SOL    HW254848   0.665   1.823  12.770
17651SOL     OW54849   2.642   8.310   2.407
17651SOL    HW154850   2.715   8.355   2.364
17651SOL    HW254851   2.571   8.374   2.408
17652SOL     OW54852   4.741   1.268   6.696
17652SOL    HW154853   4.646   1.253   6.696
17652SOL    HW254854   4.750   1.363   6.704
17653SOL     OW54855   2.282   5.084   4.654
17653SOL    HW154856   2.336   5.110   4.728
17653SOL    HW254857   2.260   5.167   4.611
17654SOL     OW54858   2.505   3.570  14.470
17654SOL    HW154859   2.434   3.631  14.487
17654SOL    HW254860   2.501   3.553  14.376
17655SOL     OW54861   9.503  12.221  14.591
17655SOL    HW154862   9.463  12.303  14.563
17655SOL    HW254863   9.439  12.183  14.652
17656SOL     OW54864  12.274  12.189  12.817
17656SOL    HW154865  12.206  12.237  12.863
17656SOL    HW254866  12.338  12.166  12.884
17657SOL     OW54867   6.226   7.211  14.025
17657SOL    HW154868   6.200   7.301  14.007
17657SOL    HW254869   6.149   7.170  14.064
17658SOL     OW54870   5.342   6.218   2.531
17658SOL    HW154871   5.334   6.309   2.561
17658SOL    HW254872   5.384   6.172   2.604
17659SOL     OW54873   7.543  14.189   1.926
17659SOL    HW154874   7.516  14.191   1.834
17659SOL    HW254875   7.462  14.183   1.975
17660SOL     OW54876  11.356   3.785  12.567
17660SOL    HW154877  11.330   3.865  12.519
17660SOL    HW254878  11.430   3.813  12.621
17661SOL     OW54879   6.651  14.151  12.874
17661SOL    HW154880   6.658  14.234  12.920
17661SOL    HW254881   6.651  14.175  12.781
17662SOL     OW54882   5.224  11.809   9.398
17662SOL    HW154883   5.230  11.723   9.358
17662SOL    HW254884   5.308  11.850   9.382
17663SOL     OW54885   0.177   1.492   8.753
17663SOL    HW154886   0.216   1.579   8.745
17663SOL    HW254887   0.114   1.501   8.825
17664SOL     OW54888  10.808  14.574   0.875
17664SOL    HW154889  10.851  14.660   0.872
17664SOL    HW254890  10.870  14.518   0.922
17665SOL     OW54891  10.603  10.773   7.622
17665SOL    HW154892  10.540  10.821   7.569
17665SOL    HW254893  10.586  10.681   7.602
17666SOL     OW54894   4.894  12.886   1.908
17666SOL    HW154895   4.830  12.953   1.930
17666SOL    HW254896   4.907  12.894   1.814
17667SOL     OW54897  13.415  11.840  14.772
17667SOL    HW154898  13.465  11.762  14.751
17667SOL    HW254899  13.441  11.905  14.706
17668SOL     OW54900   0.908   2.804   0.360
17668SOL    HW154901   0.860   2.839   0.435
17668SOL    HW254902   0.850   2.820   0.285
17669SOL     OW54903   2.793   8.607   7.115
17669SOL    HW154904   2.806   8.570   7.028
17669SOL    HW254905   2.710   8.654   7.109
17670SOL     OW54906   8.051   8.042  12.093
17670SOL    HW154907   7.985   7.974  12.080
17670SOL    HW254908   8.011   8.121  12.057
17671SOL     OW54909   7.936  10.621   5.885
17671SOL    HW154910   7.928  10.689   5.952
17671SOL    HW254911   8.007  10.652   5.828
17672SOL     OW54912  14.856  14.782   2.972
17672SOL    HW154913   0.020  14.707   3.023
17672SOL    HW254914   0.068  14.829   2.947
17673SOL     OW54915   4.729   4.410  14.040
17673SOL    HW154916   4.729   4.316  14.057
17673SOL    HW254917   4.641   4.439  14.063
17674SOL     OW54918   8.924   8.285   0.851
17674SOL    HW154919   8.921   8.290   0.756
17674SOL    HW254920   8.994   8.222   0.870
17675SOL     OW54921   4.906   3.707  14.708
17675SOL    HW154922   4.813   3.685  14.715
17675SOL    HW254923   4.942   3.641  14.649
17676SOL     OW54924   9.645   5.958   7.300
17676SOL    HW154925   9.633   5.982   7.392
17676SOL    HW254926   9.556   5.958   7.264
17677SOL     OW54927   8.424   8.470   4.084
17677SOL    HW154928   8.490   8.415   4.126
17677SOL    HW254929   8.470   8.516   4.015
17678SOL     OW54930   5.178   2.770  12.346
17678SOL    HW154931   5.090   2.801  12.328
17678SOL    HW254932   5.219   2.841  12.396
17679SOL     OW54933  12.172  13.863   5.161
17679SOL    HW154934  12.136  13.778   5.137
17679SOL    HW254935  12.128  13.885   5.243
17680SOL     OW54936   4.830   0.364   1.072
17680SOL    HW154937   4.881   0.431   1.026
17680SOL    HW254938   4.893   0.294   1.089
17681SOL     OW54939  13.736  12.915  10.913
17681SOL    HW154940  13.772  12.999  10.883
17681SOL    HW254941  13.657  12.939  10.961
17682SOL     OW54942  13.879   1.121   9.450
17682SOL    HW154943  13.853   1.184   9.383
17682SOL    HW254944  13.843   1.038   9.420
17683SOL     OW54945  11.222   2.217  13.342
17683SOL    HW154946  11.296   2.180  13.390
17683SOL    HW254947  11.145   2.174  13.379
17684SOL     OW54948  13.310  11.994   3.150
17684SOL    HW154949  13.224  12.028   3.126
17684SOL    HW254950  13.371  12.041   3.092
17685SOL     OW54951   0.983   7.070   1.488
17685SOL    HW154952   0.898   7.074   1.444
17685SOL    HW254953   0.969   7.116   1.571
17686SOL     OW54954   0.854  14.497   1.422
17686SOL    HW154955   0.845  14.552   1.500
17686SOL    HW254956   0.809  14.546   1.354
17687SOL     OW54957   7.077   4.532  10.490
17687SOL    HW154958   7.089   4.614  10.539
17687SOL    HW254959   7.154   4.527  10.433
17688SOL     OW54960   2.817   1.784   6.406
17688SOL    HW154961   2.770   1.701   6.401
17688SOL    HW254962   2.871   1.787   6.327
17689SOL     OW54963   7.097  10.158   8.323
17689SOL    HW154964   7.130  10.248   8.323
17689SOL    HW254965   7.002  10.168   8.333
17690SOL     OW54966  11.480  13.657   0.387
17690SOL    HW154967  11.471  13.592   0.317
17690SOL    HW254968  11.522  13.732   0.345
17691SOL     OW54969   8.009   0.854   8.951
17691SOL    HW154970   7.949   0.871   9.023
17691SOL    HW254971   8.088   0.905   8.973
17692SOL     OW54972   1.641   1.728  11.115
17692SOL    HW154973   1.584   1.805  11.123
17692SOL    HW254974   1.584   1.659  11.081
17693SOL     OW54975  10.472   8.112   8.402
17693SOL    HW154976  10.383   8.142   8.380
17693SOL    HW254977  10.467   8.090   8.495
17694SOL     OW54978   1.699   2.600  14.414
17694SOL    HW154979   1.751   2.627  14.338
17694SOL    HW254980   1.610   2.591  14.381
17695SOL     OW54981   4.593  10.620   3.130
17695SOL    HW154982   4.557  10.662   3.208
17695SOL    HW254983   4.602  10.690   3.066
17696SOL     OW54984   8.044   7.936   2.323
17696SOL    HW154985   8.096   7.996   2.269
17696SOL    HW254986   8.006   7.991   2.391
17697SOL     OW54987   7.845   9.692  10.050
17697SOL    HW154988   7.794   9.646   9.983
17697SOL    HW254989   7.853   9.628  10.122
17698SOL     OW54990   0.509  14.683  14.193
17698SOL    HW154991   0.486  14.744  14.264
17698SOL    HW254992   0.451  14.708  14.121
17699SOL     OW54993   6.244   3.978   3.576
17699SOL    HW154994   6.261   4.065   3.613
17699SOL    HW254995   6.326   3.953   3.534
17700SOL     OW54996   4.153   9.482   2.570
17700SOL    HW154997   4.155   9.451   2.661
17700SOL    HW254998   4.243   9.511   2.553
17701SOL     OW54999   9.070   1.369   0.119
17701SOL    HW155000   9.141   1.430   0.099
17701SOL    HW255001   9.069   1.308   0.045
17702SOL     OW55002  13.745   6.752  14.391
17702SOL    HW155003  13.812   6.795  14.337
17702SOL    HW255004  13.695   6.699  14.328
17703SOL     OW55005   5.569   4.495  13.574
17703SOL    HW155006   5.500   4.474  13.637
17703SOL    HW255007   5.621   4.415  13.567
17704SOL     OW55008  10.004  10.744   6.965
17704SOL    HW155009   9.974  10.750   6.875
17704SOL    HW255010   9.955  10.671   7.002
17705SOL     OW55011  10.777   9.565   4.310
17705SOL    HW155012  10.760   9.479   4.272
17705SOL    HW255013  10.872   9.576   4.303
17706SOL     OW55014   9.009   0.564   8.274
17706SOL    HW155015   9.064   0.509   8.217
17706SOL    HW255016   8.925   0.569   8.228
17707SOL     OW55017   0.581   0.948   8.213
17707SOL    HW155018   0.545   0.992   8.136
17707SOL    HW255019   0.570   0.855   8.195
17708SOL     OW55020  13.870   2.224   2.491
17708SOL    HW155021  13.906   2.275   2.563
17708SOL    HW255022  13.947   2.183   2.450
17709SOL     OW55023   8.114  10.134  13.674
17709SOL    HW155024   8.185  10.070  13.671
17709SOL    HW255025   8.042  10.087  13.717
17710SOL     OW55026   9.806   9.438   5.539
17710SOL    HW155027   9.879   9.499   5.547
17710SOL    HW255028   9.753   9.472   5.466
17711SOL     OW55029   5.278  10.194   5.869
17711SOL    HW155030   5.216  10.160   5.805
17711SOL    HW255031   5.345  10.238   5.816
17712SOL     OW55032   2.658   7.624   8.505
17712SOL    HW155033   2.656   7.545   8.452
17712SOL    HW255034   2.662   7.592   8.595
17713SOL     OW55035   9.003   4.944  13.803
17713SOL    HW155036   9.023   4.876  13.867
17713SOL    HW255037   8.914   4.971  13.823
17714SOL     OW55038   4.558   5.772  12.583
17714SOL    HW155039   4.577   5.815  12.500
17714SOL    HW255040   4.569   5.840  12.649
17715SOL     OW55041   6.800   3.960   6.104
17715SOL    HW155042   6.869   3.894   6.097
17715SOL    HW255043   6.791   3.995   6.016
17716SOL     OW55044  13.445   6.541  12.353
17716SOL    HW155045  13.358   6.529  12.392
17716SOL    HW255046  13.458   6.636  12.355
17717SOL     OW55047   2.199   5.209   6.049
17717SOL    HW155048   2.135   5.138   6.050
17717SOL    HW255049   2.266   5.181   6.111
17718SOL     OW55050   3.776  12.008   3.059
17718SOL    HW155051   3.871  12.001   3.049
17718SOL    HW255052   3.751  11.930   3.109
17719SOL     OW55053   9.197  11.869  13.543
17719SOL    HW155054   9.119  11.916  13.515
17719SOL    HW255055   9.166  11.780  13.561
17720SOL     OW55056   2.996  10.332  12.042
17720SOL    HW155057   3.007  10.280  12.121
17720SOL    HW255058   2.961  10.271  11.977
17721SOL     OW55059  14.106   0.476  11.009
17721SOL    HW155060  14.135   0.500  11.098
17721SOL    HW255061  14.186   0.482  10.956
17722SOL     OW55062   0.876  13.108   7.940
17722SOL    HW155063   0.875  13.203   7.954
17722SOL    HW255064   0.918  13.073   8.018
17723SOL     OW55065  13.769  11.458  12.529
17723SOL    HW155066  13.789  11.540  12.574
17723SOL    HW255067  13.709  11.483  12.459
17724SOL     OW55068  11.338   7.553  10.353
17724SOL    HW155069  11.282   7.628  10.331
17724SOL    HW255070  11.427   7.589  10.352
17725SOL     OW55071   6.759  14.764   5.250
17725SOL    HW155072   6.788  14.787   5.338
17725SOL    HW255073   6.716  14.844   5.217
17726SOL     OW55074   9.966  11.443  12.961
17726SOL    HW155075   9.926  11.371  13.011
17726SOL    HW255076   9.896  11.508  12.952
17727SOL     OW55077   2.858  10.677   9.639
17727SOL    HW155078   2.820  10.592   9.617
17727SOL    HW255079   2.844  10.731   9.560
17728SOL     OW55080   9.170  10.613   8.580
17728SOL    HW155081   9.230  10.668   8.529
17728SOL    HW255082   9.149  10.540   8.523
17729SOL     OW55083   9.177   4.326  14.660
17729SOL    HW155084   9.179   4.418  14.635
17729SOL    HW255085   9.097   4.292  14.621
17730SOL     OW55086   9.334  12.588   7.558
17730SOL    HW155087   9.398  12.569   7.627
17730SOL    HW255088   9.250  12.566   7.598
17731SOL     OW55089   7.326   9.786  12.449
17731SOL    HW155090   7.372   9.868  12.471
17731SOL    HW255091   7.244   9.791  12.498
17732SOL     OW55092  13.255  12.497   5.296
17732SOL    HW155093  13.321  12.525   5.233
17732SOL    HW255094  13.176  12.484   5.244
17733SOL     OW55095  11.573  10.023   9.292
17733SOL    HW155096  11.608  10.110   9.312
17733SOL    HW255097  11.488  10.021   9.337
17734SOL     OW55098   9.714  11.637   7.102
17734SOL    HW155099   9.701  11.700   7.173
17734SOL    HW255100   9.730  11.691   7.025
17735SOL     OW55101  14.296   3.703   5.130
17735SOL    HW155102  14.381   3.671   5.100
17735SOL    HW255103  14.303   3.799   5.124
17736SOL     OW55104  10.186   8.848   5.203
17736SOL    HW155105  10.099   8.887   5.191
17736SOL    HW255106  10.225   8.898   5.275
17737SOL     OW55107  11.322  10.221   8.943
17737SOL    HW155108  11.306  10.198   9.035
17737SOL    HW255109  11.346  10.138   8.902
17738SOL     OW55110   3.324   6.410   4.226
17738SOL    HW155111   3.336   6.315   4.224
17738SOL    HW255112   3.245   6.425   4.174
17739SOL     OW55113   2.059   5.017  14.640
17739SOL    HW155114   2.141   4.968  14.641
17739SOL    HW255115   2.023   5.004  14.553
17740SOL     OW55116   8.413   0.985   3.288
17740SOL    HW155117   8.448   0.978   3.377
17740SOL    HW255118   8.408   0.895   3.256
17741SOL     OW55119   1.147  13.371  13.721
17741SOL    HW155120   1.241  13.373  13.704
17741SOL    HW255121   1.128  13.280  13.742
17742SOL     OW55122   7.340   8.882   7.686
17742SOL    HW155123   7.400   8.915   7.619
17742SOL    HW255124   7.397   8.838   7.750
17743SOL     OW55125  14.748   0.703   3.045
17743SOL    HW155126  14.684   0.759   3.089
17743SOL    HW255127  14.717   0.614   3.059
17744SOL     OW55128   6.958   2.061   4.349
17744SOL    HW155129   6.958   2.145   4.395
17744SOL    HW255130   6.869   2.027   4.360
17745SOL     OW55131  13.653  11.639   3.646
17745SOL    HW155132  13.587  11.707   3.635
17745SOL    HW255133  13.737  11.686   3.646
17746SOL     OW55134   0.820   6.461   9.454
17746SOL    HW155135   0.768   6.391   9.492
17746SOL    HW255136   0.904   6.420   9.434
17747SOL     OW55137   9.257   2.677   5.684
17747SOL    HW155138   9.306   2.603   5.723
17747SOL    HW255139   9.197   2.636   5.622
17748SOL     OW55140  10.899   2.257   3.330
17748SOL    HW155141  10.927   2.214   3.411
17748SOL    HW255142  10.979   2.295   3.294
17749SOL     OW55143  13.383  12.407   4.383
17749SOL    HW155144  13.405  12.402   4.476
17749SOL    HW255145  13.413  12.324   4.347
17750SOL     OW55146   2.209   0.956  10.845
17750SOL    HW155147   2.202   0.879  10.902
17750SOL    HW255148   2.278   1.009  10.885
17751SOL     OW55149   4.763  14.080   7.293
17751SOL    HW155150   4.729  14.038   7.371
17751SOL    HW255151   4.796  14.008   7.239
17752SOL     OW55152  14.760  12.721   9.493
17752SOL    HW155153  14.788  12.798   9.544
17752SOL    HW255154  14.699  12.756   9.428
17753SOL     OW55155   6.713   0.088   7.028
17753SOL    HW155156   6.757   0.152   7.084
17753SOL    HW255157   6.779   0.019   7.015
17754SOL     OW55158  14.360   5.592   3.950
17754SOL    HW155159  14.381   5.644   3.872
17754SOL    HW255160  14.281   5.632   3.985
17755SOL     OW55161   9.817  10.448   6.517
17755SOL    HW155162   9.875  10.412   6.449
17755SOL    HW255163   9.751  10.497   6.468
17756SOL     OW55164   1.164  13.872   5.635
17756SOL    HW155165   1.191  13.790   5.677
17756SOL    HW255166   1.229  13.887   5.567
17757SOL     OW55167  11.126   4.130  10.552
17757SOL    HW155168  11.163   4.114  10.639
17757SOL    HW255169  11.177   4.073  10.494
17758SOL     OW55170  13.646  11.893   0.350
17758SOL    HW155171  13.613  11.951   0.419
17758SOL    HW255172  13.732  11.929   0.328
17759SOL     OW55173   0.150   2.833   5.183
17759SOL    HW155174   0.224   2.820   5.243
17759SOL    HW255175   0.125   2.745   5.155
17760SOL     OW55176   5.021   2.377   5.970
17760SOL    HW155177   5.077   2.341   5.901
17760SOL    HW255178   5.080   2.388   6.045
17761SOL     OW55179  14.485  12.625  11.569
17761SOL    HW155180  14.537  12.702  11.591
17761SOL    HW255181  14.415  12.659  11.513
17762SOL     OW55182  11.948   0.305  14.858
17762SOL    HW155183  11.892   0.367  14.811
17762SOL    HW255184  11.993   0.359   0.055
17763SOL     OW55185   0.869  10.945   9.506
17763SOL    HW155186   0.908  10.907   9.584
17763SOL    HW255187   0.795  10.997   9.539
17764SOL     OW55188   2.853   6.891  14.366
17764SOL    HW155189   2.855   6.982  14.394
17764SOL    HW255190   2.805   6.845  14.435
17765SOL     OW55191  10.729  11.611  14.862
17765SOL    HW155192  10.771  11.526  14.855
17765SOL    HW255193  10.643  11.598  14.822
17766SOL     OW55194  13.216  14.509   6.941
17766SOL    HW155195  13.277  14.513   6.866
17766SOL    HW255196  13.271  14.484   7.015
17767SOL     OW55197  12.958   3.060   4.277
17767SOL    HW155198  12.916   3.042   4.361
17767SOL    HW255199  12.892   3.108   4.227
17768SOL     OW55200  14.632  13.699   8.172
17768SOL    HW155201  14.661  13.717   8.261
17768SOL    HW255202  14.539  13.722   8.172
17769SOL     OW55203  12.882   0.993  12.438
17769SOL    HW155204  12.974   0.989  12.411
17769SOL    HW255205  12.839   0.923  12.389
17770SOL     OW55206   3.090   3.486   0.254
17770SOL    HW155207   3.079   3.415   0.317
17770SOL    HW255208   3.184   3.492   0.241
17771SOL     OW55209   8.728  10.258  14.485
17771SOL    HW155210   8.731  10.330  14.548
17771SOL    HW255211   8.764  10.183  14.533
17772SOL     OW55212   8.962   8.382   4.562
17772SOL    HW155213   9.001   8.385   4.649
17772SOL    HW255214   9.036   8.368   4.503
17773SOL     OW55215  10.425   6.092   7.323
17773SOL    HW155216  10.363   6.056   7.260
17773SOL    HW255217  10.496   6.127   7.269
17774SOL     OW55218  10.276  12.429   3.095
17774SOL    HW155219  10.266  12.414   3.189
17774SOL    HW255220  10.232  12.512   3.079
17775SOL     OW55221   2.008   5.967   1.727
17775SOL    HW155222   2.002   6.023   1.805
17775SOL    HW255223   1.929   5.988   1.676
17776SOL     OW55224   9.636  13.433  13.766
17776SOL    HW155225   9.687  13.380  13.829
17776SOL    HW255226   9.691  13.509  13.749
17777SOL     OW55227   7.938  14.105   4.638
17777SOL    HW155228   7.877  14.071   4.573
17777SOL    HW255229   7.927  14.047   4.714
17778SOL     OW55230   9.119  10.477  14.040
17778SOL    HW155231   9.068  10.445  13.966
17778SOL    HW255232   9.180  10.406  14.061
17779SOL     OW55233   3.505  10.199  13.122
17779SOL    HW155234   3.523  10.293  13.130
17779SOL    HW255235   3.413  10.195  13.094
17780SOL     OW55236  10.328  10.895   8.580
17780SOL    HW155237  10.335  10.963   8.647
17780SOL    HW255238  10.370  10.933   8.503
17781SOL     OW55239   6.318   8.894   2.486
17781SOL    HW155240   6.252   8.886   2.416
17781SOL    HW255241   6.392   8.938   2.444
17782SOL     OW55242  12.736  14.008  12.987
17782SOL    HW155243  12.736  14.103  12.973
17782SOL    HW255244  12.828  13.984  12.990
17783SOL     OW55245   1.653   7.761   7.010
17783SOL    HW155246   1.718   7.782   6.943
17783SOL    HW255247   1.697   7.780   7.093
17784SOL     OW55248   2.170   8.197  14.086
17784SOL    HW155249   2.214   8.264  14.138
17784SOL    HW255250   2.082   8.232  14.070
17785SOL     OW55251   4.023   6.529   1.515
17785SOL    HW155252   4.106   6.534   1.466
17785SOL    HW255253   4.050   6.518   1.606
17786SOL     OW55254   7.375  14.462   3.972
17786SOL    HW155255   7.301  14.515   4.002
17786SOL    HW255256   7.450  14.520   3.974
17787SOL     OW55257  14.151  11.766   2.961
17787SOL    HW155258  14.238  11.749   2.924
17787SOL    HW255259  14.104  11.811   2.891
17788SOL     OW55260  12.752  14.321   0.845
17788SOL    HW155261  12.786  14.257   0.908
17788SOL    HW255262  12.831  14.365   0.811
17789SOL     OW55263  12.012   6.323   6.632
17789SOL    HW155264  11.998   6.327   6.727
17789SOL    HW255265  12.071   6.395   6.613
17790SOL     OW55266   3.513   4.893   5.447
17790SOL    HW155267   3.433   4.870   5.496
17790SOL    HW255268   3.523   4.987   5.461
17791SOL     OW55269   7.538  10.490   9.901
17791SOL    HW155270   7.624  10.491   9.942
17791SOL    HW255271   7.509  10.399   9.906
17792SOL     OW55272   4.184   6.864  10.239
17792SOL    HW155273   4.226   6.877  10.154
17792SOL    HW255274   4.256   6.872  10.302
17793SOL     OW55275  13.507  10.292  12.706
17793SOL    HW155276  13.514  10.319  12.615
17793SOL    HW255277  13.588  10.323  12.746
17794SOL     OW55278   9.589   2.840  14.865
17794SOL    HW155279   9.653   2.800  14.806
17794SOL    HW255280   9.539   2.766   0.032
17795SOL     OW55281   1.295  11.962  11.447
17795SOL    HW155282   1.243  11.920  11.515
17795SOL    HW255283   1.231  12.007  11.392
17796SOL     OW55284   8.986  14.051   9.215
17796SOL    HW155285   9.041  14.129   9.210
17796SOL    HW255286   9.036  13.988   9.266
17797SOL     OW55287  14.224   0.813   3.804
17797SOL    HW155288  14.265   0.828   3.719
17797SOL    HW255289  14.219   0.900   3.844
17798SOL     OW55290  11.818   5.523  13.797
17798SOL    HW155291  11.768   5.441  13.801
17798SOL    HW255292  11.851   5.526  13.707
17799SOL     OW55293  13.097  12.169   6.558
17799SOL    HW155294  13.092  12.131   6.646
17799SOL    HW255295  13.191  12.180   6.542
17800SOL     OW55296   7.089   2.176   9.162
17800SOL    HW155297   7.101   2.119   9.238
17800SOL    HW255298   7.088   2.265   9.198
17801SOL     OW55299   5.404  12.114  13.473
17801SOL    HW155300   5.341  12.069  13.530
17801SOL    HW255301   5.445  12.180  13.529
17802SOL     OW55302   0.359   3.091  11.185
17802SOL    HW155303   0.404   3.007  11.195
17802SOL    HW255304   0.428   3.154  11.168
17803SOL     OW55305   0.917   8.917  11.401
17803SOL    HW155306   0.998   8.866  11.408
17803SOL    HW255307   0.873   8.882  11.324
17804SOL     OW55308   5.593   9.511  11.633
17804SOL    HW155309   5.655   9.498  11.562
17804SOL    HW255310   5.618   9.446  11.699
17805SOL     OW55311   0.401   9.668   3.922
17805SOL    HW155312   0.308   9.688   3.927
17805SOL    HW255313   0.404   9.575   3.899
17806SOL     OW55314  10.626   8.101   3.849
17806SOL    HW155315  10.658   8.013   3.827
17806SOL    HW255316  10.593   8.135   3.766
17807SOL     OW55317  10.194   6.727   5.088
17807SOL    HW155318  10.251   6.675   5.031
17807SOL    HW255319  10.128   6.664   5.118
17808SOL     OW55320  14.164  14.746  13.798
17808SOL    HW155321  14.091  14.736  13.736
17808SOL    HW255322  14.129  14.715  13.881
17809SOL     OW55323   2.685  10.023   4.411
17809SOL    HW155324   2.767  10.010   4.458
17809SOL    HW255325   2.617  10.011   4.477
17810SOL     OW55326   3.209   4.012  10.041
17810SOL    HW155327   3.301   4.033  10.023
17810SOL    HW255328   3.185   4.069  10.114
17811SOL     OW55329   7.511  13.167   8.912
17811SOL    HW155330   7.591  13.152   8.962
17811SOL    HW255331   7.506  13.093   8.851
17812SOL     OW55332   3.783   7.472  14.703
17812SOL    HW155333   3.752   7.387  14.673
17812SOL    HW255334   3.704   7.526  14.708
17813SOL     OW55335   3.168   6.359  13.792
17813SOL    HW155336   3.132   6.317  13.714
17813SOL    HW255337   3.219   6.432  13.758
17814SOL     OW55338   7.941  10.652   0.991
17814SOL    HW155339   7.870  10.588   0.996
17814SOL    HW255340   7.924  10.700   0.909
17815SOL     OW55341   5.434   1.542   2.749
17815SOL    HW155342   5.478   1.527   2.666
17815SOL    HW255343   5.472   1.478   2.809
17816SOL     OW55344   5.303   1.957   0.642
17816SOL    HW155345   5.397   1.963   0.659
17816SOL    HW255346   5.264   1.934   0.726
17817SOL     OW55347   9.117   4.066  13.762
17817SOL    HW155348   9.180   3.995  13.750
17817SOL    HW255349   9.167   4.146  13.746
17818SOL     OW55350   1.071   2.913  13.466
17818SOL    HW155351   1.086   2.829  13.422
17818SOL    HW255352   1.159   2.949  13.477
17819SOL     OW55353   8.756  11.128   9.227
17819SOL    HW155354   8.764  11.039   9.261
17819SOL    HW255355   8.717  11.178   9.298
17820SOL     OW55356   7.320  13.686   9.021
17820SOL    HW155357   7.276  13.620   9.075
17820SOL    HW255358   7.249  13.724   8.969
17821SOL     OW55359  12.222   1.644  10.182
17821SOL    HW155360  12.209   1.696  10.103
17821SOL    HW255361  12.134   1.621  10.211
17822SOL     OW55362   0.006   4.808   1.346
17822SOL    HW155363  14.820   4.862   1.404
17822SOL    HW255364  14.834   4.721   1.351
17823SOL     OW55365   2.112   0.723   3.642
17823SOL    HW155366   2.062   0.802   3.620
17823SOL    HW255367   2.169   0.709   3.567
17824SOL     OW55368   8.521   2.224   1.967
17824SOL    HW155369   8.494   2.282   1.896
17824SOL    HW255370   8.445   2.169   1.984
17825SOL     OW55371   9.736  14.749   5.612
17825SOL    HW155372   9.807  14.780   5.668
17825SOL    HW255373   9.660  14.742   5.670
17826SOL     OW55374  12.950   1.262   0.966
17826SOL    HW155375  12.997   1.247   1.048
17826SOL    HW255376  12.930   1.175   0.934
17827SOL     OW55377   6.927   4.075   1.042
17827SOL    HW155378   6.912   4.104   1.132
17827SOL    HW255379   6.956   4.154   0.996
17828SOL     OW55380  11.018   1.552   6.922
17828SOL    HW155381  10.946   1.495   6.950
17828SOL    HW255382  11.094   1.494   6.917
17829SOL     OW55383  11.652   2.750   9.556
17829SOL    HW155384  11.698   2.822   9.600
17829SOL    HW255385  11.722   2.701   9.512
17830SOL     OW55386   8.852   0.871   7.132
17830SOL    HW155387   8.934   0.823   7.147
17830SOL    HW255388   8.878   0.946   7.079
17831SOL     OW55389   8.318   6.880  10.339
17831SOL    HW155390   8.333   6.884  10.434
17831SOL    HW255391   8.390   6.930  10.301
17832SOL     OW55392   4.305  14.472   1.134
17832SOL    HW155393   4.255  14.436   1.207
17832SOL    HW255394   4.255  14.548   1.105
17833SOL     OW55395   4.725   8.358  10.883
17833SOL    HW155396   4.730   8.265  10.905
17833SOL    HW255397   4.721   8.359  10.787
17834SOL     OW55398   0.780  12.666   0.416
17834SOL    HW155399   0.748  12.753   0.441
17834SOL    HW255400   0.814  12.629   0.498
17835SOL     OW55401  11.937   4.171   2.568
17835SOL    HW155402  11.934   4.250   2.515
17835SOL    HW255403  11.850   4.132   2.557
17836SOL     OW55404  13.409   9.621  11.061
17836SOL    HW155405  13.441   9.697  11.012
17836SOL    HW255406  13.363   9.659  11.136
17837SOL     OW55407  10.345   3.961   9.650
17837SOL    HW155408  10.324   3.909   9.728
17837SOL    HW255409  10.304   4.045   9.666
17838SOL     OW55410   3.057   4.446   1.886
17838SOL    HW155411   3.107   4.399   1.819
17838SOL    HW255412   2.977   4.395   1.896
17839SOL     OW55413   2.248   5.789  14.184
17839SOL    HW155414   2.335   5.821  14.162
17839SOL    HW255415   2.193   5.813  14.110
17840SOL     OW55416  10.437   6.254  14.322
17840SOL    HW155417  10.347   6.252  14.352
17840SOL    HW255418  10.480   6.320  14.376
17841SOL     OW55419   1.031   8.695   9.677
17841SOL    HW155420   1.041   8.619   9.621
17841SOL    HW255421   1.067   8.668   9.762
17842SOL     OW55422  11.768   7.164   1.161
17842SOL    HW155423  11.858   7.196   1.161
17842SOL    HW255424  11.774   7.071   1.140
17843SOL     OW55425  12.355   9.503  13.896
17843SOL    HW155426  12.285   9.438  13.889
17843SOL    HW255427  12.432   9.452  13.920
17844SOL     OW55428   6.488  10.277   9.198
17844SOL    HW155429   6.396  10.283   9.174
17844SOL    HW255430   6.509  10.184   9.193
17845SOL     OW55431   5.468  12.060  12.063
17845SOL    HW155432   5.507  12.147  12.059
17845SOL    HW255433   5.457  12.042  12.156
17846SOL     OW55434   3.980   5.250   0.337
17846SOL    HW155435   4.062   5.208   0.309
17846SOL    HW255436   3.970   5.325   0.278
17847SOL     OW55437   2.486  11.083   5.436
17847SOL    HW155438   2.551  11.038   5.383
17847SOL    HW255439   2.477  11.170   5.396
17848SOL     OW55440  11.844   9.539   7.005
17848SOL    HW155441  11.766   9.564   6.955
17848SOL    HW255442  11.903   9.614   6.997
17849SOL     OW55443   4.158  11.744   2.020
17849SOL    HW155444   4.248  11.750   2.051
17849SOL    HW255445   4.130  11.835   2.008
17850SOL     OW55446   4.890   6.321  12.396
17850SOL    HW155447   4.867   6.394  12.339
17850SOL    HW255448   4.949   6.267  12.343
17851SOL     OW55449   2.831   0.909  12.753
17851SOL    HW155450   2.750   0.954  12.730
17851SOL    HW255451   2.863   0.953  12.832
17852SOL     OW55452   6.462   7.138   0.695
17852SOL    HW155453   6.373   7.170   0.683
17852SOL    HW255454   6.506   7.157   0.612
17853SOL     OW55455   1.667  13.220  10.192
17853SOL    HW155456   1.692  13.249  10.279
17853SOL    HW255457   1.612  13.143  10.207
17854SOL     OW55458   4.883   7.363   4.428
17854SOL    HW155459   4.917   7.300   4.492
17854SOL    HW255460   4.846   7.309   4.359
17855SOL     OW55461   8.830   7.131   4.352
17855SOL    HW155462   8.881   7.186   4.293
17855SOL    HW255463   8.895   7.070   4.388
17856SOL     OW55464  10.136  11.133   1.917
17856SOL    HW155465  10.108  11.154   1.828
17856SOL    HW255466  10.181  11.212   1.947
17857SOL     OW55467   1.871  12.566  13.707
17857SOL    HW155468   1.832  12.652  13.722
17857SOL    HW255469   1.950  12.585  13.656
17858SOL     OW55470  14.228   8.707   8.932
17858SOL    HW155471  14.152   8.746   8.975
17858SOL    HW255472  14.289   8.780   8.922
17859SOL     OW55473   7.444   0.840  13.991
17859SOL    HW155474   7.387   0.803  14.059
17859SOL    HW255475   7.533   0.820  14.022
17860SOL     OW55476   8.929   9.549  12.042
17860SOL    HW155477   8.969   9.521  12.124
17860SOL    HW255478   8.875   9.625  12.067
17861SOL     OW55479  14.728   3.165   3.495
17861SOL    HW155480  14.779   3.146   3.574
17861SOL    HW255481  14.772   3.241   3.457
17862SOL     OW55482   7.816   0.258   2.776
17862SOL    HW155483   7.819   0.311   2.856
17862SOL    HW255484   7.798   0.321   2.707
17863SOL     OW55485  11.995   6.697   9.151
17863SOL    HW155486  12.054   6.622   9.149
17863SOL    HW255487  12.037   6.759   9.210
17864SOL     OW55488   4.329   6.798  13.057
17864SOL    HW155489   4.254   6.857  13.047
17864SOL    HW255490   4.374   6.829  13.135
17865SOL     OW55491   1.117   3.053   0.001
17865SOL    HW155492   1.036   3.094   0.031
17865SOL    HW255493   1.164   3.030   0.081
17866SOL     OW55494   3.221   1.118  13.458
17866SOL    HW155495   3.162   1.177  13.506
17866SOL    HW255496   3.187   1.030  13.475
17867SOL     OW55497   8.672  14.743  11.953
17867SOL    HW155498   8.753  14.774  11.912
17867SOL    HW255499   8.627  14.696  11.883
17868SOL     OW55500   0.399   7.251   3.326
17868SOL    HW155501   0.476   7.196   3.310
17868SOL    HW255502   0.383   7.294   3.242
17869SOL     OW55503   0.562   8.998   8.848
17869SOL    HW155504   0.556   9.010   8.753
17869SOL    HW255505   0.494   9.056   8.883
17870SOL     OW55506   4.566   1.831   3.202
17870SOL    HW155507   4.508   1.854   3.274
17870SOL    HW255508   4.508   1.820   3.127
17871SOL     OW55509   6.913   1.172   7.194
17871SOL    HW155510   6.892   1.140   7.282
17871SOL    HW255511   6.964   1.252   7.210
17872SOL     OW55512   5.744  10.097   5.536
17872SOL    HW155513   5.763  10.190   5.547
17872SOL    HW255514   5.815  10.065   5.480
17873SOL     OW55515   6.480  13.741   7.389
17873SOL    HW155516   6.539  13.806   7.428
17873SOL    HW255517   6.413  13.728   7.455
17874SOL     OW55518   0.904   2.204   6.603
17874SOL    HW155519   0.879   2.278   6.659
17874SOL    HW255520   0.821   2.163   6.580
17875SOL     OW55521   8.118   9.794  12.531
17875SOL    HW155522   8.205   9.824  12.556
17875SOL    HW255523   8.096   9.726  12.595
17876SOL     OW55524  13.327   5.753   3.788
17876SOL    HW155525  13.249   5.807   3.776
17876SOL    HW255526  13.311   5.705   3.869
17877SOL     OW55527   3.439  12.166  13.910
17877SOL    HW155528   3.370  12.225  13.880
17877SOL    HW255529   3.516  12.188  13.858
17878SOL     OW55530   9.359   5.658  10.675
17878SOL    HW155531   9.334   5.702  10.757
17878SOL    HW255532   9.276   5.624  10.640
17879SOL     OW55533  13.094   4.247   5.229
17879SOL    HW155534  13.172   4.237   5.175
17879SOL    HW255535  13.062   4.158   5.243
17880SOL     OW55536   4.688  14.072  10.561
17880SOL    HW155537   4.705  14.026  10.478
17880SOL    HW255538   4.602  14.040  10.588
17881SOL     OW55539  14.429  14.757   0.790
17881SOL    HW155540  14.336  14.775   0.805
17881SOL    HW255541  14.444  14.673   0.834
17882SOL     OW55542  13.109  10.740   6.713
17882SOL    HW155543  13.026  10.769   6.674
17882SOL    HW255544  13.162  10.712   6.638
17883SOL     OW55545   5.191   9.983  11.942
17883SOL    HW155546   5.144  10.040  12.003
17883SOL    HW255547   5.175  10.021  11.856
17884SOL     OW55548  12.311  14.856   0.594
17884SOL    HW155549  12.255  14.785   0.561
17884SOL    HW255550  12.315  14.843   0.688
17885SOL     OW55551  10.950   8.367  14.647
17885SOL    HW155552  10.914   8.292  14.693
17885SOL    HW255553  11.045   8.358  14.657
17886SOL     OW55554   8.436   0.193   9.851
17886SOL    HW155555   8.462   0.102   9.866
17886SOL    HW255556   8.442   0.204   9.756
17887SOL     OW55557   8.086   6.597   5.719
17887SOL    HW155558   8.054   6.625   5.805
17887SOL    HW255559   8.013   6.616   5.660
17888SOL     OW55560  12.351   1.349  12.301
17888SOL    HW155561  12.384   1.267  12.265
17888SOL    HW255562  12.287   1.380  12.237
17889SOL     OW55563  13.588   2.115  10.356
17889SOL    HW155564  13.528   2.054  10.313
17889SOL    HW255565  13.540   2.198  10.356
17890SOL     OW55566  14.410   0.112  12.762
17890SOL    HW155567  14.450   0.147  12.841
17890SOL    HW255568  14.323   0.084  12.790
17891SOL     OW55569   0.866  12.151  11.929
17891SOL    HW155570   0.939  12.152  11.992
17891SOL    HW255571   0.879  12.231  11.877
17892SOL     OW55572   0.657   6.894   3.022
17892SOL    HW155573   0.630   6.805   3.002
17892SOL    HW255574   0.742   6.904   2.979
17893SOL     OW55575   8.959  13.089  14.223
17893SOL    HW155576   8.884  13.036  14.197
17893SOL    HW255577   8.922  13.173  14.248
17894SOL     OW55578   0.213   3.509   3.913
17894SOL    HW155579   0.134   3.491   3.963
17894SOL    HW255580   0.284   3.479   3.970
17895SOL     OW55581  12.817  12.639   6.501
17895SOL    HW155582  12.828  12.612   6.593
17895SOL    HW255583  12.816  12.557   6.452
17896SOL     OW55584   7.076   8.688   8.530
17896SOL    HW155585   7.022   8.767   8.525
17896SOL    HW255586   7.141   8.699   8.461
17897SOL     OW55587  10.589  11.752   3.641
17897SOL    HW155588  10.624  11.696   3.572
17897SOL    HW255589  10.527  11.810   3.597
17898SOL     OW55590   9.841  11.490   1.219
17898SOL    HW155591   9.853  11.551   1.146
17898SOL    HW255592   9.810  11.544   1.291
17899SOL     OW55593   0.073  10.945   2.289
17899SOL    HW155594   0.022  10.994   2.224
17899SOL    HW255595   0.062  10.854   2.265
17900SOL     OW55596   8.559  13.875  10.321
17900SOL    HW155597   8.494  13.917  10.376
17900SOL    HW255598   8.605  13.947  10.278
17901SOL     OW55599  14.176  12.870   2.093
17901SOL    HW155600  14.211  12.916   2.169
17901SOL    HW255601  14.250  12.822   2.058
17902SOL     OW55602   3.681   2.189  11.563
17902SOL    HW155603   3.774   2.175  11.580
17902SOL    HW255604   3.640   2.105  11.587
17903SOL     OW55605   3.150   0.467  11.304
17903SOL    HW155606   3.212   0.418  11.250
17903SOL    HW255607   3.165   0.434  11.393
17904SOL     OW55608   4.980   1.562  13.260
17904SOL    HW155609   4.973   1.480  13.310
17904SOL    HW255610   4.999   1.534  13.170
17905SOL     OW55611  14.415  10.496   2.280
17905SOL    HW155612  14.367  10.494   2.197
17905SOL    HW255613  14.454  10.408   2.287
17906SOL     OW55614  13.968   0.571   8.975
17906SOL    HW155615  13.949   0.481   9.000
17906SOL    HW255616  14.054   0.589   9.013
17907SOL     OW55617   1.167   5.238  12.761
17907SOL    HW155618   1.158   5.144  12.776
17907SOL    HW255619   1.197   5.245  12.670
17908SOL     OW55620  11.921   6.696   8.634
17908SOL    HW155621  11.839   6.648   8.646
17908SOL    HW255622  11.988   6.636   8.666
17909SOL     OW55623   7.661   8.546  14.006
17909SOL    HW155624   7.595   8.579  14.067
17909SOL    HW255625   7.619   8.472  13.963
17910SOL     OW55626   1.484   7.513  11.390
17910SOL    HW155627   1.512   7.500  11.299
17910SOL    HW255628   1.479   7.425  11.426
17911SOL     OW55629   7.360   7.027  12.561
17911SOL    HW155630   7.381   7.114  12.597
17911SOL    HW255631   7.438   6.975  12.579
17912SOL     OW55632   0.423   7.478   8.469
17912SOL    HW155633   0.397   7.502   8.558
17912SOL    HW255634   0.438   7.384   8.472
17913SOL     OW55635   9.921   9.030  14.088
17913SOL    HW155636   9.872   9.045  14.169
17913SOL    HW255637  10.012   9.024  14.115
17914SOL     OW55638   8.237   3.878   1.352
17914SOL    HW155639   8.191   3.873   1.268
17914SOL    HW255640   8.168   3.893   1.416
17915SOL     OW55641   1.795   3.932   1.686
17915SOL    HW155642   1.807   3.940   1.780
17915SOL    HW255643   1.875   3.892   1.654
17916SOL     OW55644   2.369  11.824   8.675
17916SOL    HW155645   2.407  11.746   8.635
17916SOL    HW255646   2.437  11.891   8.666
17917SOL     OW55647  11.383  12.089   4.214
17917SOL    HW155648  11.316  12.139   4.260
17917SOL    HW255649  11.384  12.127   4.125
17918SOL     OW55650   1.075   3.867   4.371
17918SOL    HW155651   1.000   3.843   4.316
17918SOL    HW255652   1.044   3.939   4.425
17919SOL     OW55653   8.302  13.795   4.169
17919SOL    HW155654   8.354  13.808   4.248
17919SOL    HW255655   8.364  13.809   4.097
17920SOL     OW55656   7.572   9.647   8.536
17920SOL    HW155657   7.649   9.604   8.574
17920SOL    HW255658   7.608   9.700   8.465
17921SOL     OW55659  14.214   5.591  11.027
17921SOL    HW155660  14.236   5.570  10.937
17921SOL    HW255661  14.275   5.538  11.079
17922SOL     OW55662   6.917   9.499   7.614
17922SOL    HW155663   6.862   9.434   7.657
17922SOL    HW255664   6.910   9.479   7.520
17923SOL     OW55665   2.100   5.182   3.910
17923SOL    HW155666   2.056   5.179   3.995
17923SOL    HW255667   2.076   5.267   3.874
17924SOL     OW55668   3.664   8.494   9.974
17924SOL    HW155669   3.605   8.482  10.049
17924SOL    HW255670   3.714   8.573   9.995
17925SOL     OW55671  10.951  14.550  11.182
17925SOL    HW155672  10.954  14.564  11.276
17925SOL    HW255673  10.864  14.579  11.156
17926SOL     OW55674  14.221   0.873   9.660
17926SOL    HW155675  14.138   0.861   9.707
17926SOL    HW255676  14.256   0.785   9.651
17927SOL     OW55677   4.651  14.200  14.336
17927SOL    HW155678   4.572  14.208  14.389
17927SOL    HW255679   4.714  14.156  14.393
17928SOL     OW55680   7.495   0.504   8.317
17928SOL    HW155681   7.441   0.580   8.297
17928SOL    HW255682   7.543   0.487   8.236
17929SOL     OW55683   5.085   3.950   3.326
17929SOL    HW155684   5.167   3.993   3.350
17929SOL    HW255685   5.110   3.886   3.260
17930SOL     OW55686   7.206   9.735  14.188
17930SOL    HW155687   7.206   9.670  14.117
17930SOL    HW255688   7.125   9.720  14.235
17931SOL     OW55689  10.536   2.194   0.904
17931SOL    HW155690  10.505   2.169   0.817
17931SOL    HW255691  10.510   2.286   0.913
17932SOL     OW55692  14.649   0.088   6.417
17932SOL    HW155693  14.561   0.113   6.390
17932SOL    HW255694  14.696   0.074   6.334
17933SOL     OW55695   6.676  10.770   8.286
17933SOL    HW155696   6.661  10.851   8.237
17933SOL    HW255697   6.763  10.779   8.323
17934SOL     OW55698  13.868   5.314  12.334
17934SOL    HW155699  13.862   5.226  12.297
17934SOL    HW255700  13.917   5.303  12.415
17935SOL     OW55701   5.140   0.079  10.157
17935SOL    HW155702   5.095   0.061  10.074
17935SOL    HW255703   5.071   0.111  10.215
17936SOL     OW55704  14.228  14.356  14.541
17936SOL    HW155705  14.270  14.372  14.625
17936SOL    HW255706  14.134  14.357  14.559
17937SOL     OW55707   0.112  12.731  14.193
17937SOL    HW155708   0.202  12.722  14.225
17937SOL    HW255709   0.119  12.716  14.099
17938SOL     OW55710   1.829   3.654  10.151
17938SOL    HW155711   1.924   3.645  10.139
17938SOL    HW255712   1.817   3.660  10.245
17939SOL     OW55713   1.544   0.467   8.060
17939SOL    HW155714   1.480   0.413   8.015
17939SOL    HW255715   1.544   0.434   8.150
17940SOL     OW55716  13.285  12.100  10.350
17940SOL    HW155717  13.255  12.080  10.438
17940SOL    HW255718  13.363  12.154  10.363
17941SOL     OW55719   8.882   0.862   6.281
17941SOL    HW155720   8.871   0.861   6.376
17941SOL    HW255721   8.961   0.915   6.267
17942SOL     OW55722  11.836  14.727  13.132
17942SOL    HW155723  11.904  14.793  13.148
17942SOL    HW255724  11.756  14.778  13.121
17943SOL     OW55725   3.445   4.680  13.746
17943SOL    HW155726   3.429   4.674  13.840
17943SOL    HW255727   3.539   4.695  13.738
17944SOL     OW55728  11.763  13.909  13.730
17944SOL    HW155729  11.772  13.915  13.635
17944SOL    HW255730  11.702  13.836  13.744
17945SOL     OW55731  14.448  14.297   0.901
17945SOL    HW155732  14.399  14.358   0.847
17945SOL    HW255733  14.400  14.214   0.894
17946SOL     OW55734  13.705   1.095   2.580
17946SOL    HW155735  13.678   1.067   2.492
17946SOL    HW255736  13.701   1.015   2.632
17947SOL     OW55737  11.826   2.849   6.377
17947SOL    HW155738  11.806   2.887   6.292
17947SOL    HW255739  11.921   2.850   6.383
17948SOL     OW55740  13.215   3.175   1.621
17948SOL    HW155741  13.175   3.239   1.680
17948SOL    HW255742  13.282   3.225   1.574
17949SOL     OW55743  13.781  11.206   0.975
17949SOL    HW155744  13.755  11.169   1.060
17949SOL    HW255745  13.874  11.227   0.986
17950SOL     OW55746  12.608  12.371   9.049
17950SOL    HW155747  12.621  12.337   8.960
17950SOL    HW255748  12.696  12.391   9.080
17951SOL     OW55749   2.695   6.283   5.816
17951SOL    HW155750   2.659   6.343   5.751
17951SOL    HW255751   2.618   6.244   5.858
17952SOL     OW55752   9.363   2.465   5.439
17952SOL    HW155753   9.280   2.443   5.482
17952SOL    HW255754   9.351   2.436   5.349
17953SOL     OW55755  12.225   0.589   1.861
17953SOL    HW155756  12.224   0.643   1.940
17953SOL    HW255757  12.148   0.617   1.812
17954SOL     OW55758  10.079   0.970   2.070
17954SOL    HW155759  10.121   0.952   2.154
17954SOL    HW255760  10.102   0.895   2.015
17955SOL     OW55761   2.511   1.347  11.555
17955SOL    HW155762   2.537   1.420  11.498
17955SOL    HW255763   2.512   1.271  11.497
17956SOL     OW55764   5.325   2.444   4.933
17956SOL    HW155765   5.262   2.477   4.996
17956SOL    HW255766   5.400   2.416   4.986
17957SOL     OW55767  12.545   0.760   7.513
17957SOL    HW155768  12.546   0.849   7.479
17957SOL    HW255769  12.607   0.712   7.457
17958SOL     OW55770   7.260   0.916   6.922
17958SOL    HW155771   7.294   0.853   6.985
17958SOL    HW255772   7.173   0.885   6.901
17959SOL     OW55773  13.892   2.820   7.236
17959SOL    HW155774  13.948   2.816   7.314
17959SOL    HW255775  13.869   2.912   7.228
17960SOL     OW55776   7.240   4.296   9.660
17960SOL    HW155777   7.195   4.295   9.744
17960SOL    HW255778   7.172   4.318   9.596
17961SOL     OW55779   2.345   4.225  12.064
17961SOL    HW155780   2.266   4.172  12.065
17961SOL    HW255781   2.411   4.170  12.021
17962SOL     OW55782   9.163   6.362  12.106
17962SOL    HW155783   9.083   6.369  12.159
17962SOL    HW255784   9.141   6.296  12.040
17963SOL     OW55785   2.412  14.290  10.793
17963SOL    HW155786   2.443  14.338  10.870
17963SOL    HW255787   2.489  14.244  10.761
17964SOL     OW55788  11.642   6.690  12.797
17964SOL    HW155789  11.580   6.653  12.859
17964SOL    HW255790  11.682   6.763  12.843
17965SOL     OW55791  12.996   2.834   9.882
17965SOL    HW155792  13.015   2.922   9.914
17965SOL    HW255793  12.905   2.817   9.908
17966SOL     OW55794   3.568  12.172  10.684
17966SOL    HW155795   3.647  12.119  10.676
17966SOL    HW255796   3.599  12.260  10.704
17967SOL     OW55797   0.886   2.978   8.019
17967SOL    HW155798   0.907   3.064   8.054
17967SOL    HW255799   0.811   2.948   8.070
17968SOL     OW55800  11.787   1.808  14.233
17968SOL    HW155801  11.694   1.784  14.235
17968SOL    HW255802  11.828   1.752  14.298
17969SOL     OW55803   6.722   8.197   8.103
17969SOL    HW155804   6.774   8.121   8.079
17969SOL    HW255805   6.758   8.226   8.186
17970SOL     OW55806   9.252   8.180   0.308
17970SOL    HW155807   9.192   8.107   0.298
17970SOL    HW255808   9.239   8.209   0.399
17971SOL     OW55809   1.169   2.764  14.433
17971SOL    HW155810   1.162   2.800  14.521
17971SOL    HW255811   1.106   2.692  14.431
17972SOL     OW55812   3.300   0.741   0.678
17972SOL    HW155813   3.375   0.782   0.636
17972SOL    HW255814   3.250   0.814   0.716
17973SOL     OW55815   6.305  11.133   3.294
17973SOL    HW155816   6.233  11.195   3.286
17973SOL    HW255817   6.308  11.111   3.387
17974SOL     OW55818   3.416   4.915  13.393
17974SOL    HW155819   3.338   4.897  13.341
17974SOL    HW255820   3.417   4.846  13.459
17975SOL     OW55821  11.064  11.103   0.432
17975SOL    HW155822  11.049  11.104   0.338
17975SOL    HW255823  11.152  11.140   0.443
17976SOL     OW55824   3.509   1.886   1.355
17976SOL    HW155825   3.432   1.849   1.399
17976SOL    HW255826   3.551   1.811   1.313
17977SOL     OW55827  12.450   8.230   3.650
17977SOL    HW155828  12.423   8.139   3.663
17977SOL    HW255829  12.545   8.227   3.643
17978SOL     OW55830  11.543  13.901  11.965
17978SOL    HW155831  11.611  13.889  12.031
17978SOL    HW255832  11.589  13.900  11.881
17979SOL     OW55833   5.135   0.148   3.111
17979SOL    HW155834   5.182   0.126   3.031
17979SOL    HW255835   5.200   0.137   3.181
17980SOL     OW55836   7.432  14.646  12.650
17980SOL    HW155837   7.366  14.714  12.639
17980SOL    HW255838   7.435  14.602  12.565
17981SOL     OW55839   2.928   9.922   6.369
17981SOL    HW155840   2.936   9.906   6.275
17981SOL    HW255841   2.838   9.897   6.389
17982SOL     OW55842   8.969  10.569  12.694
17982SOL    HW155843   9.063  10.585  12.705
17982SOL    HW255844   8.944  10.514  12.768
17983SOL     OW55845  13.012  10.276   3.823
17983SOL    HW155846  13.022  10.191   3.779
17983SOL    HW255847  12.986  10.253   3.913
17984SOL     OW55848  14.350   2.551   2.858
17984SOL    HW155849  14.370   2.507   2.775
17984SOL    HW255850  14.268   2.511   2.887
17985SOL     OW55851   7.887   6.038  10.853
17985SOL    HW155852   7.911   6.098  10.782
17985SOL    HW255853   7.850   6.094  10.921
17986SOL     OW55854   2.630   5.911   0.530
17986SOL    HW155855   2.658   5.863   0.453
17986SOL    HW255856   2.600   5.995   0.495
17987SOL     OW55857   2.295  13.164  12.947
17987SOL    HW155858   2.241  13.211  13.010
17987SOL    HW255859   2.259  13.076  12.946
17988SOL     OW55860   3.982   2.995   7.092
17988SOL    HW155861   3.922   3.057   7.133
17988SOL    HW255862   3.961   2.910   7.131
17989SOL     OW55863   4.444  12.050   8.274
17989SOL    HW155864   4.475  12.027   8.187
17989SOL    HW255865   4.516  12.027   8.333
17990SOL     OW55866   1.585   2.922   1.922
17990SOL    HW155867   1.549   2.837   1.896
17990SOL    HW255868   1.540   2.985   1.866
17991SOL     OW55869  13.193   5.103   0.898
17991SOL    HW155870  13.206   5.118   0.992
17991SOL    HW255871  13.185   5.191   0.861
17992SOL     OW55872   5.144   9.517   8.727
17992SOL    HW155873   5.113   9.560   8.648
17992SOL    HW255874   5.103   9.565   8.799
17993SOL     OW55875   3.081   1.805   9.365
17993SOL    HW155876   3.047   1.744   9.299
17993SOL    HW255877   3.027   1.789   9.443
17994SOL     OW55878  11.167   9.850   1.532
17994SOL    HW155879  11.200   9.766   1.564
17994SOL    HW255880  11.072   9.844   1.543
17995SOL     OW55881  14.431   4.886   7.138
17995SOL    HW155882  14.486   4.951   7.095
17995SOL    HW255883  14.353   4.880   7.082
17996SOL     OW55884  11.005   5.655   9.326
17996SOL    HW155885  10.947   5.685   9.396
17996SOL    HW255886  10.975   5.704   9.249
17997SOL     OW55887   5.005   1.026  14.461
17997SOL    HW155888   4.977   1.116  14.476
17997SOL    HW255889   5.100   1.029  14.471
17998SOL     OW55890   5.793  11.861   0.192
17998SOL    HW155891   5.811  11.924   0.122
17998SOL    HW255892   5.754  11.786   0.148
17999SOL     OW55893  11.484   4.870   7.329
17999SOL    HW155894  11.470   4.964   7.342
17999SOL    HW255895  11.542   4.863   7.254
18000SOL     OW55896  11.591  12.890  13.009
18000SOL    HW155897  11.599  12.810  12.956
18000SOL    HW255898  11.572  12.958  12.945
18001SOL     OW55899   7.973   8.801  13.333
18001SOL    HW155900   8.051   8.853  13.350
18001SOL    HW255901   7.900   8.860  13.350
18002SOL     OW55902   2.513   8.220   0.513
18002SOL    HW155903   2.506   8.306   0.472
18002SOL    HW255904   2.557   8.166   0.448
18003SOL     OW55905   1.485   3.459   4.247
18003SOL    HW155906   1.546   3.444   4.175
18003SOL    HW255907   1.414   3.397   4.231
18004SOL     OW55908   3.511   7.953   4.651
18004SOL    HW155909   3.593   7.914   4.683
18004SOL    HW255910   3.538   8.001   4.572
18005SOL     OW55911  10.564   7.048   7.620
18005SOL    HW155912  10.575   7.130   7.572
18005SOL    HW255913  10.544   6.983   7.553
18006SOL     OW55914  14.077  10.130  13.495
18006SOL    HW155915  14.126  10.089  13.567
18006SOL    HW255916  14.073  10.222  13.518
18007SOL     OW55917  11.788  12.649   2.438
18007SOL    HW155918  11.719  12.661   2.504
18007SOL    HW255919  11.869  12.644   2.490
18008SOL     OW55920  13.470   6.747   7.369
18008SOL    HW155921  13.458   6.709   7.282
18008SOL    HW255922  13.505   6.834   7.353
18009SOL     OW55923   0.657  13.927  10.701
18009SOL    HW155924   0.694  14.015  10.695
18009SOL    HW255925   0.568  13.936  10.666
18010SOL     OW55926   6.171  12.421   3.524
18010SOL    HW155927   6.184  12.441   3.432
18010SOL    HW255928   6.166  12.325   3.528
18011SOL     OW55929   1.850  10.783   2.643
18011SOL    HW155930   1.880  10.845   2.577
18011SOL    HW255931   1.756  10.774   2.627
18012SOL     OW55932   6.942   5.046  10.577
18012SOL    HW155933   6.881   5.117  10.557
18012SOL    HW255934   6.912   4.973  10.522
18013SOL     OW55935   8.825   5.509  10.552
18013SOL    HW155936   8.857   5.566  10.621
18013SOL    HW255937   8.753   5.461  10.592
18014SOL     OW55938   9.952   4.798   9.206
18014SOL    HW155939   9.930   4.855   9.133
18014SOL    HW255940  10.022   4.742   9.173
18015SOL     OW55941   2.099   0.267   7.358
18015SOL    HW155942   2.178   0.214   7.359
18015SOL    HW255943   2.063   0.259   7.447
18016SOL     OW55944  10.748  13.191   8.754
18016SOL    HW155945  10.669  13.196   8.700
18016SOL    HW255946  10.783  13.280   8.754
18017SOL     OW55947  12.755   4.154   8.137
18017SOL    HW155948  12.683   4.144   8.199
18017SOL    HW255949  12.716   4.139   8.051
18018SOL     OW55950  10.681   8.204   8.657
18018SOL    HW155951  10.698   8.287   8.612
18018SOL    HW255952  10.603   8.221   8.710
18019SOL     OW55953   1.414  14.422   5.396
18019SOL    HW155954   1.359  14.345   5.414
18019SOL    HW255955   1.378  14.458   5.315
18020SOL     OW55956   2.761  12.083   1.536
18020SOL    HW155957   2.708  12.095   1.457
18020SOL    HW255958   2.747  11.991   1.560
18021SOL     OW55959   4.933   5.972   1.775
18021SOL    HW155960   5.012   6.026   1.778
18021SOL    HW255961   4.897   5.977   1.863
18022SOL     OW55962  10.002   8.504   0.296
18022SOL    HW155963   9.952   8.425   0.279
18022SOL    HW255964  10.082   8.493   0.245
18023SOL     OW55965   8.832  10.665  10.123
18023SOL    HW155966   8.863  10.613  10.049
18023SOL    HW255967   8.911  10.697  10.165
18024SOL     OW55968   1.999   3.432   3.584
18024SOL    HW155969   2.014   3.480   3.502
18024SOL    HW255970   1.975   3.500   3.647
18025SOL     OW55971   5.481   4.459   8.133
18025SOL    HW155972   5.540   4.534   8.136
18025SOL    HW255973   5.504   4.414   8.052
18026SOL     OW55974   9.907   0.833   5.431
18026SOL    HW155975   9.948   0.770   5.372
18026SOL    HW255976   9.972   0.845   5.501
18027SOL     OW55977   9.356   7.900  14.826
18027SOL    HW155978   9.317   7.830  14.773
18027SOL    HW255979   9.283   7.958  14.847
18028SOL     OW55980   4.684  12.645  11.032
18028SOL    HW155981   4.682  12.551  11.013
18028SOL    HW255982   4.630  12.685  10.963
18029SOL     OW55983   3.224  12.667  13.097
18029SOL    HW155984   3.144  12.674  13.044
18029SOL    HW255985   3.197  12.619  13.175
18030SOL     OW55986   4.848  10.112   6.466
18030SOL    HW155987   4.873  10.137   6.555
18030SOL    HW255988   4.873  10.020   6.459
18031SOL     OW55989  11.458   4.728  10.620
18031SOL    HW155990  11.369   4.718  10.654
18031SOL    HW255991  11.508   4.660  10.665
18032SOL     OW55992  10.346   9.829  12.768
18032SOL    HW155993  10.401   9.756  12.739
18032SOL    HW255994  10.369   9.841  12.860
18033SOL     OW55995   1.400   6.176   9.505
18033SOL    HW155996   1.385   6.263   9.468
18033SOL    HW255997   1.416   6.192   9.598
18034SOL     OW55998   9.747   5.407   7.235
18034SOL    HW155999   9.788   5.392   7.149
18034SOL    HW256000   9.686   5.480   7.220
18035SOL     OW56001   0.053  12.737   5.632
18035SOL    HW156002   0.037  12.661   5.688
18035SOL    HW256003   0.084  12.805   5.692
18036SOL     OW56004  11.964   7.646  12.520
18036SOL    HW156005  11.993   7.734  12.546
18036SOL    HW256006  11.968   7.595  12.600
18037SOL     OW56007  10.188  11.878  13.623
18037SOL    HW156008  10.266  11.857  13.674
18037SOL    HW256009  10.220  11.927  13.548
18038SOL     OW56010   1.744  14.697   1.524
18038SOL    HW156011   1.742  14.758   1.598
18038SOL    HW256012   1.733  14.753   1.447
18039SOL     OW56013   7.613  11.647   2.559
18039SOL    HW156014   7.695  11.603   2.580
18039SOL    HW256015   7.546  11.595   2.605
18040SOL     OW56016   5.546   9.884   0.363
18040SOL    HW156017   5.640   9.890   0.349
18040SOL    HW256018   5.508   9.895   0.276
18041SOL     OW56019   3.812   4.920   6.376
18041SOL    HW156020   3.716   4.922   6.371
18041SOL    HW256021   3.833   4.829   6.400
18042SOL     OW56022  14.198   3.183   5.566
18042SOL    HW156023  14.192   3.095   5.530
18042SOL    HW256024  14.220   3.239   5.492
18043SOL     OW56025  14.586  14.322   1.231
18043SOL    HW156026  14.626  14.322   1.318
18043SOL    HW256027  14.510  14.264   1.240
18044SOL     OW56028   3.106   1.284   0.654
18044SOL    HW156029   3.106   1.251   0.564
18044SOL    HW256030   3.140   1.212   0.706
18045SOL     OW56031   5.822   1.175   9.108
18045SOL    HW156032   5.803   1.245   9.170
18045SOL    HW256033   5.746   1.117   9.113
18046SOL     OW56034   9.807  12.085   8.742
18046SOL    HW156035   9.806  12.166   8.794
18046SOL    HW256036   9.715  12.058   8.738
18047SOL     OW56037   4.202  10.839   9.845
18047SOL    HW156038   4.187  10.839   9.750
18047SOL    HW256039   4.217  10.747   9.867
18048SOL     OW56040  10.383  13.276   8.407
18048SOL    HW156041  10.398  13.211   8.339
18048SOL    HW256042  10.303  13.247   8.451
18049SOL     OW56043   7.756   4.443   1.868
18049SOL    HW156044   7.750   4.386   1.791
18049SOL    HW256045   7.835   4.495   1.853
18050SOL     OW56046   1.250   0.031   8.034
18050SOL    HW156047   1.189  14.847   8.086
18050SOL    HW256048   1.236   0.002   7.944
18051SOL     OW56049   1.472   0.268   0.776
18051SOL    HW156050   1.419   0.346   0.794
18051SOL    HW256051   1.530   0.260   0.852
18052SOL     OW56052   6.113   4.160  14.854
18052SOL    HW156053   6.138   4.237  14.803
18052SOL    HW256054   6.169   4.164   0.064
18053SOL     OW56055  11.197   2.339  12.001
18053SOL    HW156056  11.253   2.285  11.946
18053SOL    HW256057  11.173   2.414  11.946
18054SOL     OW56058  10.750   7.413   9.304
18054SOL    HW156059  10.776   7.334   9.351
18054SOL    HW256060  10.744   7.481   9.372
18055SOL     OW56061   5.375   9.831   2.794
18055SOL    HW156062   5.384   9.893   2.722
18055SOL    HW256063   5.335   9.882   2.865
18056SOL     OW56064  14.184   9.754   2.646
18056SOL    HW156065  14.264   9.805   2.630
18056SOL    HW256066  14.211   9.684   2.705
18057SOL     OW56067  10.469   4.933   6.223
18057SOL    HW156068  10.563   4.954   6.225
18057SOL    HW256069  10.460   4.859   6.282
18058SOL     OW56070   6.642   8.783   9.602
18058SOL    HW156071   6.650   8.875   9.630
18058SOL    HW256072   6.591   8.788   9.521
18059SOL     OW56073   2.414   8.453  14.527
18059SOL    HW156074   2.438   8.361  14.520
18059SOL    HW256075   2.367   8.459  14.611
18060SOL     OW56076   2.020   4.597   3.004
18060SOL    HW156077   1.939   4.610   3.052
18060SOL    HW256078   2.079   4.555   3.067
18061SOL     OW56079   0.726  11.440   4.184
18061SOL    HW156080   0.675  11.493   4.122
18061SOL    HW256081   0.793  11.500   4.217
18062SOL     OW56082   4.301   6.704   8.198
18062SOL    HW156083   4.292   6.799   8.198
18062SOL    HW256084   4.215   6.672   8.225
18063SOL     OW56085   7.615   4.686  12.730
18063SOL    HW156086   7.668   4.609  12.748
18063SOL    HW256087   7.538   4.653  12.684
18064SOL     OW56088   8.322   0.526   2.309
18064SOL    HW156089   8.309   0.535   2.403
18064SOL    HW256090   8.347   0.613   2.279
18065SOL     OW56091   9.128   4.780   3.114
18065SOL    HW156092   9.069   4.750   3.045
18065SOL    HW256093   9.171   4.857   3.078
18066SOL     OW56094  13.090   6.106  14.045
18066SOL    HW156095  13.182   6.129  14.035
18066SOL    HW256096  13.090   6.036  14.111
18067SOL     OW56097   5.444   4.677   4.990
18067SOL    HW156098   5.458   4.587   4.961
18067SOL    HW256099   5.350   4.682   5.007
18068SOL     OW56100   2.572  11.383   7.257
18068SOL    HW156101   2.590  11.476   7.270
18068SOL    HW256102   2.652  11.339   7.283
18069SOL     OW56103  14.617   2.244   2.486
18069SOL    HW156104  14.677   2.308   2.450
18069SOL    HW256105  14.530   2.270   2.454
18070SOL     OW56106   0.514   5.566   5.982
18070SOL    HW156107   0.548   5.626   5.915
18070SOL    HW256108   0.492   5.623   6.056
18071SOL     OW56109   8.007   7.485   5.081
18071SOL    HW156110   7.966   7.428   5.146
18071SOL    HW256111   7.937   7.544   5.053
18072SOL     OW56112   4.634   9.865   2.621
18072SOL    HW156113   4.714   9.844   2.572
18072SOL    HW256114   4.617   9.787   2.674
18073SOL     OW56115   6.326   9.804   4.719
18073SOL    HW156116   6.302   9.755   4.641
18073SOL    HW256117   6.389   9.869   4.688
18074SOL     OW56118   8.611  13.995   5.696
18074SOL    HW156119   8.547  14.043   5.748
18074SOL    HW256120   8.689  14.051   5.695
18075SOL     OW56121  11.085  11.876  14.515
18075SOL    HW156122  11.169  11.849  14.552
18075SOL    HW256123  11.020  11.846  14.578
18076SOL     OW56124  14.382   0.795   2.827
18076SOL    HW156125  14.320   0.853   2.782
18076SOL    HW256126  14.348   0.789   2.917
18077SOL     OW56127   8.207   0.273   4.507
18077SOL    HW156128   8.245   0.216   4.440
18077SOL    HW256129   8.231   0.362   4.480
18078SOL     OW56130   6.573   5.543  11.960
18078SOL    HW156131   6.580   5.573  11.869
18078SOL    HW256132   6.481   5.519  11.970
18079SOL     OW56133   2.953  11.792   7.060
18079SOL    HW156134   2.947  11.822   7.151
18079SOL    HW256135   2.899  11.713   7.057
18080SOL     OW56136   0.434  12.447   6.673
18080SOL    HW156137   0.374  12.405   6.612
18080SOL    HW256138   0.519  12.408   6.654
18081SOL     OW56139   2.103   0.484   0.406
18081SOL    HW156140   2.153   0.541   0.347
18081SOL    HW256141   2.013   0.491   0.376
18082SOL     OW56142   3.529  13.675   7.098
18082SOL    HW156143   3.474  13.661   7.175
18082SOL    HW256144   3.585  13.598   7.095
18083SOL     OW56145   3.136   9.695  12.782
18083SOL    HW156146   3.106   9.628  12.844
18083SOL    HW256147   3.227   9.673  12.765
18084SOL     OW56148  12.725   5.939   5.789
18084SOL    HW156149  12.710   5.946   5.694
18084SOL    HW256150  12.637   5.934   5.826
18085SOL     OW56151   9.845   4.119   8.611
18085SOL    HW156152   9.764   4.167   8.595
18085SOL    HW256153   9.817   4.029   8.624
18086SOL     OW56154   5.613   9.971   7.767
18086SOL    HW156155   5.559   9.894   7.749
18086SOL    HW256156   5.701   9.947   7.737
18087SOL     OW56157  11.313  14.649   7.899
18087SOL    HW156158  11.289  14.559   7.877
18087SOL    HW256159  11.395  14.640   7.949
18088SOL     OW56160   6.480  13.440   2.920
18088SOL    HW156161   6.432  13.389   2.985
18088SOL    HW256162   6.494  13.525   2.962
18089SOL     OW56163   3.584  13.944   8.788
18089SOL    HW156164   3.503  13.942   8.840
18089SOL    HW256165   3.647  13.895   8.840
18090SOL     OW56166   7.938   4.814   3.670
18090SOL    HW156167   7.915   4.817   3.763
18090SOL    HW256168   7.873   4.756   3.630
18091SOL     OW56169   0.121  11.257   2.048
18091SOL    HW156170   0.044  11.221   2.091
18091SOL    HW256171   0.106  11.352   2.048
18092SOL     OW56172  12.734  13.598   6.696
18092SOL    HW156173  12.737  13.623   6.789
18092SOL    HW256174  12.751  13.503   6.697
18093SOL     OW56175  12.507   5.531   7.925
18093SOL    HW156176  12.477   5.613   7.887
18093SOL    HW256177  12.602   5.533   7.916
18094SOL     OW56178  11.833   8.682  12.044
18094SOL    HW156179  11.875   8.715  12.123
18094SOL    HW256180  11.751   8.732  12.038
18095SOL     OW56181   5.999  10.924  11.242
18095SOL    HW156182   5.994  10.878  11.326
18095SOL    HW256183   5.983  10.856  11.177
18096SOL     OW56184   5.757  11.590  13.742
18096SOL    HW156185   5.781  11.542  13.821
18096SOL    HW256186   5.772  11.528  13.671
18097SOL     OW56187   4.706   1.424  10.357
18097SOL    HW156188   4.642   1.456  10.421
18097SOL    HW256189   4.771   1.494  10.351
18098SOL     OW56190   7.959  10.649  12.533
18098SOL    HW156191   7.988  10.579  12.475
18098SOL    HW256192   7.871  10.671  12.502
18099SOL     OW56193   8.231  13.578   0.894
18099SOL    HW156194   8.305  13.549   0.840
18099SOL    HW256195   8.172  13.504   0.895
18100SOL     OW56196  13.028   2.673   4.115
18100SOL    HW156197  13.097   2.621   4.158
18100SOL    HW256198  13.059   2.763   4.120
18101SOL     OW56199  13.446   4.315  11.396
18101SOL    HW156200  13.514   4.377  11.422
18101SOL    HW256201  13.387   4.366  11.340
18102SOL     OW56202   5.083   6.999   7.458
18102SOL    HW156203   5.140   6.978   7.384
18102SOL    HW256204   5.139   6.986   7.535
18103SOL     OW56205  13.215   9.422   1.929
18103SOL    HW156206  13.176   9.383   1.851
18103SOL    HW256207  13.140   9.454   1.980
18104SOL     OW56208   3.542   5.794   5.863
18104SOL    HW156209   3.543   5.871   5.806
18104SOL    HW256210   3.608   5.736   5.826
18105SOL     OW56211  11.477  11.075   6.478
18105SOL    HW156212  11.534  11.018   6.529
18105SOL    HW256213  11.524  11.159   6.475
18106SOL     OW56214  13.156  12.278   2.741
18106SOL    HW156215  13.170  12.344   2.808
18106SOL    HW256216  13.195  12.315   2.662
18107SOL     OW56217   8.605  14.837   2.799
18107SOL    HW156218   8.662   0.033   2.843
18107SOL    HW256219   8.649  14.820   2.715
18108SOL     OW56220  12.135  11.443   3.901
18108SOL    HW156221  12.120  11.508   3.832
18108SOL    HW256222  12.066  11.378   3.888
18109SOL     OW56223  14.469   5.758  10.230
18109SOL    HW156224  14.415   5.817  10.282
18109SOL    HW256225  14.547   5.743  10.282
18110SOL     OW56226  11.652   8.973  14.790
18110SOL    HW156227  11.697   9.011  14.865
18110SOL    HW256228  11.589   9.041  14.764
18111SOL     OW56229   9.316   8.323   7.022
18111SOL    HW156230   9.268   8.283   6.950
18111SOL    HW256231   9.297   8.268   7.097
18112SOL     OW56232   5.747   1.479   1.734
18112SOL    HW156233   5.776   1.412   1.671
18112SOL    HW256234   5.658   1.452   1.758
18113SOL     OW56235  13.077  12.280   0.027
18113SOL    HW156236  13.081  12.368  14.857
18113SOL    HW256237  13.161  12.240   0.002
18114SOL     OW56238   9.164   9.370   1.840
18114SOL    HW156239   9.209   9.307   1.897
18114SOL    HW256240   9.197   9.350   1.753
18115SOL     OW56241   2.703   3.747  14.366
18115SOL    HW156242   2.649   3.686  14.417
18115SOL    HW256243   2.706   3.827  14.418
18116SOL     OW56244   0.273  11.953   4.184
18116SOL    HW156245   0.266  12.026   4.247
18116SOL    HW256246   0.195  11.962   4.129
18117SOL     OW56247   8.842   3.036   6.469
18117SOL    HW156248   8.935   3.046   6.449
18117SOL    HW256249   8.811   2.970   6.407
18118SOL     OW56250  11.339  11.977   3.000
18118SOL    HW156251  11.298  12.062   3.013
18118SOL    HW256252  11.293  11.919   3.061
18119SOL     OW56253   3.132   8.730  12.454
18119SOL    HW156254   3.037   8.716  12.449
18119SOL    HW256255   3.142   8.814  12.498
18120SOL     OW56256   4.306  12.219   0.216
18120SOL    HW156257   4.256  12.146   0.178
18120SOL    HW256258   4.254  12.297   0.195
18121SOL     OW56259   5.206  11.875   1.603
18121SOL    HW156260   5.269  11.835   1.543
18121SOL    HW256261   5.133  11.813   1.605
18122SOL     OW56262   2.424   7.315   4.889
18122SOL    HW156263   2.491   7.270   4.838
18122SOL    HW256264   2.352   7.329   4.827
18123SOL     OW56265   4.564  11.992  14.076
18123SOL    HW156266   4.623  11.992  14.001
18123SOL    HW256267   4.607  11.937  14.141
18124SOL     OW56268   8.963   8.054   3.706
18124SOL    HW156269   8.986   8.002   3.629
18124SOL    HW256270   8.951   8.143   3.673
18125SOL     OW56271   3.580  12.114   2.399
18125SOL    HW156272   3.674  12.125   2.414
18125SOL    HW256273   3.549  12.067   2.476
18126SOL     OW56274   5.021  10.613  13.422
18126SOL    HW156275   5.038  10.655  13.507
18126SOL    HW256276   5.008  10.686  13.362
18127SOL     OW56277   4.365   3.446  11.635
18127SOL    HW156278   4.339   3.357  11.611
18127SOL    HW256279   4.429   3.434  11.705
18128SOL     OW56280   5.436   3.350   6.571
18128SOL    HW156281   5.492   3.288   6.523
18128SOL    HW256282   5.430   3.426   6.513
18129SOL     OW56283   4.345   0.981   4.821
18129SOL    HW156284   4.337   1.061   4.873
18129SOL    HW256285   4.255   0.951   4.809
18130SOL     OW56286   3.862   8.927   7.077
18130SOL    HW156287   3.880   8.841   7.041
18130SOL    HW256288   3.906   8.988   7.017
18131SOL     OW56289  10.892  14.822  14.293
18131SOL    HW156290  10.919  14.752  14.233
18131SOL    HW256291  10.970  14.839  14.346
18132SOL     OW56292   1.962   2.496  10.865
18132SOL    HW156293   1.971   2.590  10.873
18132SOL    HW256294   2.051   2.463  10.854
18133SOL     OW56295  10.863  14.464   2.415
18133SOL    HW156296  10.933  14.406   2.446
18133SOL    HW256297  10.861  14.450   2.320
18134SOL     OW56298   7.095   3.512   9.155
18134SOL    HW156299   7.041   3.435   9.135
18134SOL    HW256300   7.085   3.569   9.078
18135SOL     OW56301   0.361   7.828  10.360
18135SOL    HW156302   0.407   7.789  10.435
18135SOL    HW256303   0.271   7.795  10.367
18136SOL     OW56304   0.233   8.013  10.015
18136SOL    HW156305   0.237   7.918  10.008
18136SOL    HW256306   0.297   8.034  10.083
18137SOL     OW56307   6.594   7.214   0.086
18137SOL    HW156308   6.657   7.144   0.102
18137SOL    HW256309   6.523   7.172   0.038
18138SOL     OW56310   8.679   4.225   1.213
18138SOL    HW156311   8.746   4.179   1.164
18138SOL    HW256312   8.707   4.217   1.305
18139SOL     OW56313   3.156   3.922  14.331
18139SOL    HW156314   3.172   3.849  14.390
18139SOL    HW256315   3.112   3.988  14.386
18140SOL     OW56316   8.391   1.123  10.178
18140SOL    HW156317   8.377   1.128  10.272
18140SOL    HW256318   8.306   1.147  10.140
18141SOL     OW56319   0.387   4.991   4.492
18141SOL    HW156320   0.417   4.904   4.466
18141SOL    HW256321   0.468   5.038   4.517
18142SOL     OW56322  11.279  13.263   1.271
18142SOL    HW156323  11.292  13.282   1.364
18142SOL    HW256324  11.308  13.342   1.226
18143SOL     OW56325  13.325   4.562   7.156
18143SOL    HW156326  13.340   4.629   7.223
18143SOL    HW256327  13.286   4.610   7.083
18144SOL     OW56328   8.344   7.936   5.477
18144SOL    HW156329   8.351   8.029   5.456
18144SOL    HW256330   8.434   7.905   5.480
18145SOL     OW56331   0.585   5.967   6.716
18145SOL    HW156332   0.588   5.890   6.773
18145SOL    HW256333   0.532   6.030   6.765
18146SOL     OW56334  13.204   5.153  10.477
18146SOL    HW156335  13.218   5.111  10.392
18146SOL    HW256336  13.112   5.135  10.497
18147SOL     OW56337  12.760  12.272  12.269
18147SOL    HW156338  12.731  12.315  12.189
18147SOL    HW256339  12.746  12.179  12.253
18148SOL     OW56340  11.525   9.217  11.018
18148SOL    HW156341  11.558   9.218  10.928
18148SOL    HW256342  11.555   9.301  11.055
18149SOL     OW56343  10.642  11.494   4.668
18149SOL    HW156344  10.574  11.560   4.660
18149SOL    HW256345  10.693  11.503   4.587
18150SOL     OW56346   0.413   8.356   5.356
18150SOL    HW156347   0.410   8.443   5.317
18150SOL    HW256348   0.332   8.313   5.326
18151SOL     OW56349  13.475  10.044   2.987
18151SOL    HW156350  13.498   9.979   2.920
18151SOL    HW256351  13.533  10.024   3.061
18152SOL     OW56352   6.961   6.496   7.726
18152SOL    HW156353   6.904   6.538   7.662
18152SOL    HW256354   6.909   6.424   7.761
18153SOL     OW56355   8.698   8.907   3.382
18153SOL    HW156356   8.701   8.974   3.451
18153SOL    HW256357   8.618   8.925   3.334
18154SOL     OW56358   8.554   5.215   1.998
18154SOL    HW156359   8.472   5.179   2.032
18154SOL    HW256360   8.607   5.231   2.076
18155SOL     OW56361   5.400  14.514  13.297
18155SOL    HW156362   5.385  14.491  13.389
18155SOL    HW256363   5.458  14.590  13.301
18156SOL     OW56364   0.730  14.548   7.000
18156SOL    HW156365   0.668  14.599   6.948
18156SOL    HW256366   0.816  14.578   6.971
18157SOL     OW56367   9.777   3.799   6.131
18157SOL    HW156368   9.749   3.836   6.215
18157SOL    HW256369   9.718   3.725   6.116
18158SOL     OW56370  14.189   4.939   0.529
18158SOL    HW156371  14.095   4.952   0.545
18158SOL    HW256372  14.194   4.859   0.477
18159SOL     OW56373  10.264  13.233  14.763
18159SOL    HW156374  10.302  13.199  14.844
18159SOL    HW256375  10.171  13.244  14.782
18160SOL     OW56376   8.199   6.413  10.599
18160SOL    HW156377   8.201   6.373  10.685
18160SOL    HW256378   8.289   6.439  10.582
18161SOL     OW56379   4.479   9.118   0.412
18161SOL    HW156380   4.448   9.090   0.498
18161SOL    HW256381   4.559   9.068   0.398
18162SOL     OW56382  12.865  11.081  12.045
18162SOL    HW156383  12.829  11.015  11.986
18162SOL    HW256384  12.841  11.051  12.133
18163SOL     OW56385   0.101  14.462   2.298
18163SOL    HW156386   0.105  14.473   2.203
18163SOL    HW256387   0.166  14.525   2.332
18164SOL     OW56388  11.383   2.664   8.713
18164SOL    HW156389  11.455   2.716   8.748
18164SOL    HW256390  11.351   2.613   8.787
18165SOL     OW56391   0.956  12.926   8.766
18165SOL    HW156392   0.927  12.972   8.688
18165SOL    HW256393   1.022  12.864   8.734
18166SOL     OW56394  14.057   1.945   8.717
18166SOL    HW156395  13.995   1.897   8.661
18166SOL    HW256396  14.105   2.002   8.657
18167SOL     OW56397  11.038   9.612  12.433
18167SOL    HW156398  10.958   9.663  12.447
18167SOL    HW256399  11.052   9.617  12.338
18168SOL     OW56400  10.171  11.648   8.628
18168SOL    HW156401  10.171  11.734   8.586
18168SOL    HW256402  10.216  11.591   8.566
18169SOL     OW56403   2.129  13.444  11.593
18169SOL    HW156404   2.190  13.379  11.629
18169SOL    HW256405   2.049  13.432  11.643
18170SOL     OW56406  10.682   8.436   8.899
18170SOL    HW156407  10.617   8.437   8.828
18170SOL    HW256408  10.639   8.485   8.970
18171SOL     OW56409   2.562   3.264   5.283
18171SOL    HW156410   2.493   3.201   5.263
18171SOL    HW256411   2.631   3.213   5.324
18172SOL     OW56412  13.742   5.401   3.132
18172SOL    HW156413  13.720   5.333   3.196
18172SOL    HW256414  13.753   5.355   3.050
18173SOL     OW56415  13.566  10.442  10.911
18173SOL    HW156416  13.549  10.452  11.005
18173SOL    HW256417  13.615  10.520  10.887
18174SOL     OW56418   7.039   4.024   1.419
18174SOL    HW156419   7.020   3.932   1.404
18174SOL    HW256420   6.991   4.071   1.351
18175SOL     OW56421   2.878   8.746   1.495
18175SOL    HW156422   2.934   8.812   1.453
18175SOL    HW256423   2.935   8.704   1.560
18176SOL     OW56424   1.677  11.390   0.219
18176SOL    HW156425   1.686  11.361   0.310
18176SOL    HW256426   1.768  11.396   0.188
18177SOL     OW56427   1.924  13.307  12.265
18177SOL    HW156428   1.885  13.351  12.340
18177SOL    HW256429   1.996  13.255  12.303
18178SOL     OW56430  12.933   2.599  11.864
18178SOL    HW156431  12.981   2.530  11.910
18178SOL    HW256432  12.948   2.678  11.916
18179SOL     OW56433  11.471   8.451   0.829
18179SOL    HW156434  11.560   8.420   0.811
18179SOL    HW256435  11.448   8.409   0.912
18180SOL     OW56436   2.737   5.146   2.658
18180SOL    HW156437   2.701   5.058   2.650
18180SOL    HW256438   2.736   5.181   2.569
18181SOL     OW56439  11.562   0.088   8.360
18181SOL    HW156440  11.507   0.027   8.310
18181SOL    HW256441  11.508   0.113   8.435
18182SOL     OW56442  10.191   7.768   4.169
18182SOL    HW156443  10.113   7.721   4.198
18182SOL    HW256444  10.157   7.845   4.124
18183SOL     OW56445   3.827  13.621  10.592
18183SOL    HW156446   3.845  13.559  10.663
18183SOL    HW256447   3.742  13.659  10.614
18184SOL     OW56448  11.922  10.105   5.621
18184SOL    HW156449  11.866  10.043   5.668
18184SOL    HW256450  11.941  10.061   5.538
18185SOL     OW56451   7.250   5.060   1.681
18185SOL    HW156452   7.315   4.992   1.665
18185SOL    HW256453   7.238   5.061   1.776
18186SOL     OW56454  11.000   6.774   9.059
18186SOL    HW156455  11.004   6.679   9.046
18186SOL    HW256456  10.938   6.785   9.130
18187SOL     OW56457   3.759   5.911  12.924
18187SOL    HW156458   3.815   5.940  12.852
18187SOL    HW256459   3.788   5.964  12.999
18188SOL     OW56460  10.044   1.255  14.007
18188SOL    HW156461  10.080   1.277  13.921
18188SOL    HW256462  10.071   1.164  14.021
18189SOL     OW56463   1.456  12.960  13.754
18189SOL    HW156464   1.530  12.914  13.795
18189SOL    HW256465   1.391  12.968  13.823
18190SOL     OW56466   8.649  12.108   5.362
18190SOL    HW156467   8.668  12.186   5.414
18190SOL    HW256468   8.728  12.094   5.309
18191SOL     OW56469  11.545   9.603  12.462
18191SOL    HW156470  11.473   9.620  12.522
18191SOL    HW256471  11.511   9.537  12.402
18192SOL     OW56472   0.042   2.876  12.590
18192SOL    HW156473   0.062   2.851  12.680
18192SOL    HW256474   0.072   2.967  12.583
18193SOL     OW56475   6.024  10.917  14.817
18193SOL    HW156476   6.014  10.836  14.867
18193SOL    HW256477   5.980  10.984   0.001
18194SOL     OW56478   7.763   2.019  10.741
18194SOL    HW156479   7.679   1.979  10.720
18194SOL    HW256480   7.742   2.086  10.806
18195SOL     OW56481   4.441  14.286  10.380
18195SOL    HW156482   4.518  14.277  10.436
18195SOL    HW256483   4.398  14.200  10.385
18196SOL     OW56484  10.358  12.498   5.924
18196SOL    HW156485  10.285  12.542   5.881
18196SOL    HW256486  10.358  12.410   5.887
18197SOL     OW56487  13.369   5.644  11.049
18197SOL    HW156488  13.386   5.572  10.988
18197SOL    HW256489  13.444   5.702  11.040
18198SOL     OW56490   0.218   9.042  11.971
18198SOL    HW156491   0.301   9.082  11.995
18198SOL    HW256492   0.154   9.113  11.977
18199SOL     OW56493  14.845   6.004   6.367
18199SOL    HW156494  14.827   5.919   6.326
18199SOL    HW256495  14.785   6.065   6.324
18200SOL     OW56496   4.051   3.808  11.398
18200SOL    HW156497   4.047   3.721  11.436
18200SOL    HW256498   4.031   3.795  11.305
18201SOL     OW56499  13.324   0.815  10.269
18201SOL    HW156500  13.365   0.804  10.183
18201SOL    HW256501  13.230   0.811  10.251
18202SOL     OW56502  12.759   3.592   5.844
18202SOL    HW156503  12.706   3.562   5.770
18202SOL    HW256504  12.715   3.672   5.873
18203SOL     OW56505   2.550  11.238   0.096
18203SOL    HW156506   2.576  11.330   0.098
18203SOL    HW256507   2.618  11.193   0.145
18204SOL     OW56508  10.888  13.633  14.724
18204SOL    HW156509  10.840  13.660  14.802
18204SOL    HW256510  10.821  13.629  14.655
18205SOL     OW56511   9.569   9.104   7.270
18205SOL    HW156512   9.610   9.189   7.281
18205SOL    HW256513   9.520   9.090   7.351
18206SOL     OW56514   3.076   0.660   6.214
18206SOL    HW156515   3.067   0.754   6.232
18206SOL    HW256516   3.061   0.653   6.120
18207SOL     OW56517  13.462   5.714  13.560
18207SOL    HW156518  13.429   5.625  13.571
18207SOL    HW256519  13.388   5.763  13.524
18208SOL     OW56520   1.017   2.784  12.819
18208SOL    HW156521   0.981   2.863  12.779
18208SOL    HW256522   0.975   2.712  12.771
18209SOL     OW56523  13.110  11.586   7.724
18209SOL    HW156524  13.117  11.665   7.777
18209SOL    HW256525  13.115  11.617   7.633
18210SOL     OW56526   4.979   1.212   1.055
18210SOL    HW156527   5.042   1.284   1.068
18210SOL    HW256528   5.034   1.135   1.037
18211SOL     OW56529   2.181   1.817   3.519
18211SOL    HW156530   2.129   1.738   3.532
18211SOL    HW256531   2.170   1.838   3.426
18212SOL     OW56532   3.432  10.115  12.600
18212SOL    HW156533   3.498  10.092  12.535
18212SOL    HW256534   3.440  10.047  12.667
18213SOL     OW56535  11.264   1.928   3.271
18213SOL    HW156536  11.203   1.854   3.271
18213SOL    HW256537  11.233   1.985   3.342
18214SOL     OW56538  14.550   2.140  10.100
18214SOL    HW156539  14.564   2.059  10.149
18214SOL    HW256540  14.636   2.161  10.065
18215SOL     OW56541   3.549   1.343   3.160
18215SOL    HW156542   3.563   1.432   3.193
18215SOL    HW256543   3.611   1.334   3.088
18216SOL     OW56544   5.892   4.060   8.921
18216SOL    HW156545   5.868   4.091   8.834
18216SOL    HW256546   5.812   4.019   8.955
18217SOL     OW56547   6.158   7.069   0.599
18217SOL    HW156548   6.195   7.024   0.523
18217SOL    HW256549   6.158   7.162   0.575
18218SOL     OW56550   5.478  13.174   1.205
18218SOL    HW156551   5.455  13.265   1.186
18218SOL    HW256552   5.401  13.139   1.249
18219SOL     OW56553  12.890   9.419  10.532
18219SOL    HW156554  12.916   9.431  10.623
18219SOL    HW256555  12.967   9.443  10.482
18220SOL     OW56556   2.642   6.144  11.118
18220SOL    HW156557   2.590   6.205  11.171
18220SOL    HW256558   2.732   6.160  11.145
18221SOL     OW56559   2.184  12.946  10.261
18221SOL    HW156560   2.164  12.865  10.214
18221SOL    HW256561   2.099  12.976  10.295
18222SOL     OW56562   9.896  12.413  12.193
18222SOL    HW156563   9.810  12.381  12.167
18222SOL    HW256564   9.893  12.413  12.289
18223SOL     OW56565   3.480   7.366   5.862
18223SOL    HW156566   3.568   7.351   5.827
18223SOL    HW256567   3.493   7.371   5.957
18224SOL     OW56568   3.314   2.582   9.556
18224SOL    HW156569   3.250   2.594   9.626
18224SOL    HW256570   3.395   2.558   9.601
18225SOL     OW56571   1.798  10.149   4.634
18225SOL    HW156572   1.856  10.139   4.710
18225SOL    HW256573   1.790  10.061   4.599
18226SOL     OW56574   9.588   8.119   1.121
18226SOL    HW156575   9.668   8.088   1.162
18226SOL    HW256576   9.519   8.093   1.183
18227SOL     OW56577   0.067  12.285  12.446
18227SOL    HW156578   0.074  12.190  12.436
18227SOL    HW256579   0.031  12.298  12.533
18228SOL     OW56580  10.590   2.602   4.442
18228SOL    HW156581  10.657   2.556   4.392
18228SOL    HW256582  10.524   2.626   4.376
18229SOL     OW56583   3.711   2.555   6.968
18229SOL    HW156584   3.714   2.644   6.931
18229SOL    HW256585   3.705   2.569   7.062
18230SOL     OW56586   6.088   7.973  11.990
18230SOL    HW156587   6.039   7.921  11.926
18230SOL    HW256588   6.027   8.042  12.017
18231SOL     OW56589   3.069   4.524   9.334
18231SOL    HW156590   3.022   4.581   9.274
18231SOL    HW256591   3.078   4.441   9.287
18232SOL     OW56592  12.030   2.507   7.225
18232SOL    HW156593  12.076   2.468   7.300
18232SOL    HW256594  12.020   2.599   7.248
18233SOL     OW56595   3.580  12.553  12.872
18233SOL    HW156596   3.514  12.512  12.928
18233SOL    HW256597   3.541  12.636  12.845
18234SOL     OW56598  10.974   0.755   8.457
18234SOL    HW156599  10.975   0.659   8.459
18234SOL    HW256600  10.931   0.780   8.539
18235SOL     OW56601   7.051   0.157  12.347
18235SOL    HW156602   6.984   0.149  12.278
18235SOL    HW256603   7.109   0.225  12.315
18236SOL     OW56604  10.685   7.404   0.653
18236SOL    HW156605  10.737   7.338   0.607
18236SOL    HW256606  10.605   7.413   0.601
18237SOL     OW56607   0.440   0.893   2.164
18237SOL    HW156608   0.376   0.960   2.188
18237SOL    HW256609   0.524   0.939   2.162
18238SOL     OW56610  11.297   8.571  12.964
18238SOL    HW156611  11.230   8.576  12.895
18238SOL    HW256612  11.369   8.623  12.930
18239SOL     OW56613   9.764   6.763   0.548
18239SOL    HW156614   9.825   6.803   0.610
18239SOL    HW256615   9.779   6.810   0.466
18240SOL     OW56616   7.604   1.705  13.651
18240SOL    HW156617   7.565   1.788  13.680
18240SOL    HW256618   7.530   1.650  13.627
18241SOL     OW56619  12.863  14.001   0.295
18241SOL    HW156620  12.778  13.993   0.251
18241SOL    HW256621  12.927  13.985   0.227
18242SOL     OW56622  13.723   5.749  13.348
18242SOL    HW156623  13.749   5.764  13.439
18242SOL    HW256624  13.722   5.836  13.309
18243SOL     OW56625   9.039   2.763   6.811
18243SOL    HW156626   9.040   2.733   6.720
18243SOL    HW256627   8.997   2.849   6.807
18244SOL     OW56628   1.860  13.175   4.301
18244SOL    HW156629   1.914  13.248   4.331
18244SOL    HW256630   1.858  13.183   4.206
18245SOL     OW56631  11.994  11.628   8.324
18245SOL    HW156632  11.962  11.571   8.254
18245SOL    HW256633  11.967  11.716   8.297
18246SOL     OW56634  10.498   7.079   2.624
18246SOL    HW156635  10.552   7.063   2.547
18246SOL    HW256636  10.482   7.174   2.623
18247SOL     OW56637  11.353   0.146   8.543
18247SOL    HW156638  11.340   0.053   8.524
18247SOL    HW256639  11.316   0.158   8.630
18248SOL     OW56640   5.863   6.350   3.023
18248SOL    HW156641   5.857   6.393   3.108
18248SOL    HW256642   5.894   6.262   3.043
18249SOL     OW56643  10.433   0.720   5.832
18249SOL    HW156644  10.489   0.702   5.908
18249SOL    HW256645  10.475   0.673   5.760
18250SOL     OW56646  14.752  10.027   2.277
18250SOL    HW156647  14.766  10.122   2.281
18250SOL    HW256648  14.789  10.001   2.193
18251SOL     OW56649  11.054   8.598  13.166
18251SOL    HW156650  11.092   8.629  13.249
18251SOL    HW256651  11.127   8.604  13.104
18252SOL     OW56652  10.078   9.551   5.542
18252SOL    HW156653  10.147   9.486   5.530
18252SOL    HW256654  10.124   9.635   5.546
18253SOL     OW56655   3.105   5.836   2.856
18253SOL    HW156656   3.184   5.860   2.808
18253SOL    HW256657   3.136   5.778   2.925
18254SOL     OW56658   1.277  11.788   6.685
18254SOL    HW156659   1.234  11.704   6.696
18254SOL    HW256660   1.257  11.836   6.766
18255SOL     OW56661   4.605  13.548  14.734
18255SOL    HW156662   4.674  13.608  14.707
18255SOL    HW256663   4.544  13.602  14.784
18256SOL     OW56664  12.775   9.146  12.620
18256SOL    HW156665  12.699   9.108  12.664
18256SOL    HW256666  12.779   9.101  12.536
18257SOL     OW56667   2.848   0.120   9.082
18257SOL    HW156668   2.919   0.176   9.112
18257SOL    HW256669   2.889   0.035   9.064
18258SOL     OW56670   2.801   1.336   5.096
18258SOL    HW156671   2.754   1.257   5.070
18258SOL    HW256672   2.741   1.407   5.075
18259SOL     OW56673   3.309   4.006  14.605
18259SOL    HW156674   3.358   4.088  14.610
18259SOL    HW256675   3.310   3.973  14.695
18260SOL     OW56676   2.283  11.335  13.365
18260SOL    HW156677   2.337  11.320  13.287
18260SOL    HW256678   2.262  11.429  13.361
18261SOL     OW56679   9.434   8.831  14.619
18261SOL    HW156680   9.341   8.806  14.612
18261SOL    HW256681   9.436   8.898  14.687
18262SOL     OW56682   0.670  13.550   4.777
18262SOL    HW156683   0.755  13.505   4.779
18262SOL    HW256684   0.612  13.492   4.828
18263SOL     OW56685  11.503   8.718  14.831
18263SOL    HW156686  11.457   8.761   0.035
18263SOL    HW256687  11.567   8.783  14.801
18264SOL     OW56688   4.199   9.134  13.420
18264SOL    HW156689   4.206   9.143  13.515
18264SOL    HW256690   4.118   9.180  13.397
18265SOL     OW56691   9.817   5.325  12.435
18265SOL    HW156692   9.775   5.372  12.507
18265SOL    HW256693   9.908   5.354  12.437
18266SOL     OW56694  11.927   5.606   7.732
18266SOL    HW156695  11.971   5.578   7.652
18266SOL    HW256696  11.861   5.538   7.748
18267SOL     OW56697   4.168   6.984   6.756
18267SOL    HW156698   4.073   6.982   6.754
18267SOL    HW256699   4.195   6.892   6.746
18268SOL     OW56700  12.152  10.814   5.220
18268SOL    HW156701  12.061  10.809   5.191
18268SOL    HW256702  12.172  10.725   5.251
18269SOL     OW56703   5.759  10.218  14.176
18269SOL    HW156704   5.800  10.285  14.122
18269SOL    HW256705   5.828  10.154  14.191
18270SOL     OW56706   3.996   7.611   5.983
18270SOL    HW156707   4.028   7.528   5.948
18270SOL    HW256708   4.003   7.672   5.910
18271SOL     OW56709   4.155   8.341   6.755
18271SOL    HW156710   4.219   8.323   6.686
18271SOL    HW256711   4.198   8.405   6.811
18272SOL     OW56712   7.272   7.581  12.719
18272SOL    HW156713   7.217   7.520  12.767
18272SOL    HW256714   7.241   7.575  12.629
18273SOL     OW56715  13.275  10.899  10.555
18273SOL    HW156716  13.249  10.927  10.643
18273SOL    HW256717  13.193  10.871  10.514
18274SOL     OW56718   4.775   2.493  13.855
18274SOL    HW156719   4.705   2.488  13.790
18274SOL    HW256720   4.852   2.459  13.810
18275SOL     OW56721  12.295  14.314   8.900
18275SOL    HW156722  12.232  14.248   8.870
18275SOL    HW256723  12.371  14.263   8.930
18276SOL     OW56724   1.392   7.167  13.956
18276SOL    HW156725   1.362   7.147  14.045
18276SOL    HW256726   1.473   7.216  13.968
18277SOL     OW56727   6.836  14.187   5.833
18277SOL    HW156728   6.838  14.201   5.928
18277SOL    HW256729   6.756  14.136   5.818
18278SOL     OW56730   0.898  12.986   4.794
18278SOL    HW156731   0.915  13.056   4.857
18278SOL    HW256732   0.897  13.030   4.709
18279SOL     OW56733  11.992   4.417   2.277
18279SOL    HW156734  11.932   4.363   2.225
18279SOL    HW256735  12.010   4.493   2.222
18280SOL     OW56736   2.268   9.484   5.912
18280SOL    HW156737   2.286   9.452   6.000
18280SOL    HW256738   2.334   9.442   5.857
18281SOL     OW56739   3.226  11.511  11.214
18281SOL    HW156740   3.149  11.564  11.231
18281SOL    HW256741   3.287  11.571  11.169
18282SOL     OW56742   0.066   5.743   5.957
18282SOL    HW156743   0.094   5.652   5.952
18282SOL    HW256744  14.850   5.745   5.912
18283SOL     OW56745   4.632  13.514   6.529
18283SOL    HW156746   4.678  13.488   6.609
18283SOL    HW256747   4.689  13.486   6.458
18284SOL     OW56748   9.050   6.219   9.858
18284SOL    HW156749   9.038   6.146   9.797
18284SOL    HW256750   8.973   6.274   9.846
18285SOL     OW56751  13.912  13.452   1.904
18285SOL    HW156752  13.915  13.542   1.936
18285SOL    HW256753  14.003  13.432   1.882
18286SOL     OW56754  13.821   8.880   5.467
18286SOL    HW156755  13.758   8.923   5.524
18286SOL    HW256756  13.892   8.853   5.525
18287SOL     OW56757   1.831  12.947   6.953
18287SOL    HW156758   1.884  12.868   6.960
18287SOL    HW256759   1.871  12.995   6.880
18288SOL     OW56760   1.956  13.140  13.260
18288SOL    HW156761   1.871  13.113  13.225
18288SOL    HW256762   1.940  13.227  13.296
18289SOL     OW56763   5.281   4.642   9.131
18289SOL    HW156764   5.286   4.551   9.102
18289SOL    HW256765   5.308   4.693   9.054
18290SOL     OW56766   6.581  12.892   0.127
18290SOL    HW156767   6.648  12.836   0.088
18290SOL    HW256768   6.518  12.906   0.057
18291SOL     OW56769   3.465   6.037   5.714
18291SOL    HW156770   3.416   6.081   5.784
18291SOL    HW256771   3.401   6.026   5.644
18292SOL     OW56772   4.124  10.937   5.326
18292SOL    HW156773   4.176  10.931   5.245
18292SOL    HW256774   4.150  10.859   5.376
18293SOL     OW56775   2.035  10.556   9.805
18293SOL    HW156776   1.973  10.621   9.772
18293SOL    HW256777   2.109  10.608   9.837
18294SOL     OW56778  10.569   1.140  11.964
18294SOL    HW156779  10.532   1.173  12.047
18294SOL    HW256780  10.575   1.218  11.909
18295SOL     OW56781  13.190  14.248   7.511
18295SOL    HW156782  13.147  14.330   7.534
18295SOL    HW256783  13.118  14.188   7.492
18296SOL     OW56784   3.261   8.619   4.696
18296SOL    HW156785   3.283   8.687   4.633
18296SOL    HW256786   3.330   8.625   4.762
18297SOL     OW56787   6.148  12.312  10.289
18297SOL    HW156788   6.218  12.254  10.259
18297SOL    HW256789   6.185  12.400  10.282
18298SOL     OW56790   9.784  14.237   6.325
18298SOL    HW156791   9.861  14.187   6.301
18298SOL    HW256792   9.748  14.192   6.401
18299SOL     OW56793   4.635   8.779   2.956
18299SOL    HW156794   4.540   8.789   2.946
18299SOL    HW256795   4.648   8.764   3.050
18300SOL     OW56796   0.403  14.799  12.863
18300SOL    HW156797   0.364  14.727  12.913
18300SOL    HW256798   0.339  14.818  12.795
18301SOL     OW56799   1.927  14.418   2.078
18301SOL    HW156800   1.887  14.363   2.010
18301SOL    HW256801   1.982  14.479   2.030
18302SOL     OW56802   8.182   3.368   7.007
18302SOL    HW156803   8.150   3.427   7.076
18302SOL    HW256804   8.113   3.303   6.998
18303SOL     OW56805  13.465   0.755  10.762
18303SOL    HW156806  13.401   0.779  10.695
18303SOL    HW256807  13.549   0.787  10.727
18304SOL     OW56808   5.531   1.334   1.108
18304SOL    HW156809   5.564   1.424   1.104
18304SOL    HW256810   5.461   1.332   1.042
18305SOL     OW56811   0.912   5.068   5.218
18305SOL    HW156812   0.874   5.021   5.144
18305SOL    HW256813   0.978   5.009   5.253
18306SOL     OW56814   8.263   4.237  13.360
18306SOL    HW156815   8.328   4.255  13.292
18306SOL    HW256816   8.247   4.143  13.353
18307SOL     OW56817   7.680   2.101   2.207
18307SOL    HW156818   7.625   2.168   2.249
18307SOL    HW256819   7.753   2.089   2.268
18308SOL     OW56820   2.732  12.261   6.561
18308SOL    HW156821   2.682  12.323   6.613
18308SOL    HW256822   2.816  12.254   6.606
18309SOL     OW56823   8.641   6.021   4.777
18309SOL    HW156824   8.656   6.034   4.684
18309SOL    HW256825   8.560   6.069   4.796
18310SOL     OW56826   9.107   7.018  10.636
18310SOL    HW156827   9.169   6.989  10.570
18310SOL    HW256828   9.062   7.092  10.596
18311SOL     OW56829   9.472   1.575   5.266
18311SOL    HW156830   9.411   1.645   5.246
18311SOL    HW256831   9.546   1.590   5.206
18312SOL     OW56832   7.701   3.454  10.639
18312SOL    HW156833   7.715   3.361  10.657
18312SOL    HW256834   7.747   3.470  10.557
18313SOL     OW56835   3.011  11.581  12.899
18313SOL    HW156836   2.981  11.662  12.857
18313SOL    HW256837   3.043  11.527  12.827
18314SOL     OW56838   7.703  12.368   1.256
18314SOL    HW156839   7.788  12.385   1.297
18314SOL    HW256840   7.673  12.454   1.226
18315SOL     OW56841   1.105   1.141   2.871
18315SOL    HW156842   1.087   1.100   2.955
18315SOL    HW256843   1.029   1.120   2.817
18316SOL     OW56844   3.286  13.978   2.357
18316SOL    HW156845   3.273  13.883   2.368
18316SOL    HW256846   3.379  13.987   2.337
18317SOL     OW56847   6.204   5.207  13.803
18317SOL    HW156848   6.218   5.260  13.881
18317SOL    HW256849   6.156   5.130  13.834
18318SOL     OW56850   8.081  13.112   2.512
18318SOL    HW156851   8.067  13.047   2.443
18318SOL    HW256852   8.005  13.170   2.507
18319SOL     OW56853   3.334  14.062   4.944
18319SOL    HW156854   3.336  14.003   5.020
18319SOL    HW256855   3.250  14.043   4.902
18320SOL     OW56856  13.282   5.803   7.075
18320SOL    HW156857  13.282   5.869   7.145
18320SOL    HW256858  13.334   5.842   7.005
18321SOL     OW56859   2.159   0.619   6.862
18321SOL    HW156860   2.172   0.654   6.951
18321SOL    HW256861   2.140   0.696   6.809
18322SOL     OW56862  11.822   0.856   0.445
18322SOL    HW156863  11.756   0.916   0.481
18322SOL    HW256864  11.771   0.783   0.410
18323SOL     OW56865  12.021   5.723   5.032
18323SOL    HW156866  12.001   5.758   5.119
18323SOL    HW256867  11.938   5.686   5.002
18324SOL     OW56868   2.145  10.131   0.235
18324SOL    HW156869   2.163  10.150   0.143
18324SOL    HW256870   2.100  10.046   0.233
18325SOL     OW56871   6.957   0.582   3.700
18325SOL    HW156872   7.012   0.571   3.623
18325SOL    HW256873   6.977   0.506   3.755
18326SOL     OW56874  14.300  13.078   6.367
18326SOL    HW156875  14.312  13.103   6.276
18326SOL    HW256876  14.368  13.012   6.382
18327SOL     OW56877   2.377  14.439   1.823
18327SOL    HW156878   2.386  14.394   1.739
18327SOL    HW256879   2.297  14.491   1.814
18328SOL     OW56880  14.450   6.200   5.496
18328SOL    HW156881  14.398   6.120   5.496
18328SOL    HW256882  14.439   6.236   5.584
18329SOL     OW56883   3.085   5.844  11.588
18329SOL    HW156884   3.119   5.905  11.522
18329SOL    HW256885   3.156   5.782  11.602
18330SOL     OW56886   0.420   1.258  12.701
18330SOL    HW156887   0.365   1.336  12.698
18330SOL    HW256888   0.359   1.185  12.685
18331SOL     OW56889   5.783   4.374   1.915
18331SOL    HW156890   5.832   4.411   1.988
18331SOL    HW256891   5.722   4.444   1.889
18332SOL     OW56892  14.467  11.456   1.459
18332SOL    HW156893  14.400  11.432   1.523
18332SOL    HW256894  14.434  11.536   1.418
18333SOL     OW56895   7.233   1.916   5.830
18333SOL    HW156896   7.311   1.959   5.795
18333SOL    HW256897   7.225   1.952   5.919
18334SOL     OW56898   8.933   5.612   1.517
18334SOL    HW156899   8.989   5.584   1.589
18334SOL    HW256900   8.989   5.608   1.439
18335SOL     OW56901   5.434  12.577   8.352
18335SOL    HW156902   5.494  12.652   8.347
18335SOL    HW256903   5.492  12.501   8.352
18336SOL     OW56904   2.960   1.099   6.716
18336SOL    HW156905   2.923   1.025   6.669
18336SOL    HW256906   3.029   1.132   6.659
18337SOL     OW56907  13.393  11.851   4.685
18337SOL    HW156908  13.317  11.845   4.742
18337SOL    HW256909  13.364  11.809   4.603
18338SOL     OW56910   6.014   4.974   3.914
18338SOL    HW156911   6.103   4.970   3.948
18338SOL    HW256912   5.963   4.918   3.973
18339SOL     OW56913  11.052   2.418   8.416
18339SOL    HW156914  11.034   2.360   8.489
18339SOL    HW256915  11.016   2.373   8.340
18340SOL     OW56916  10.526  14.368   7.619
18340SOL    HW156917  10.600  14.405   7.668
18340SOL    HW256918  10.541  14.274   7.621
18341SOL     OW56919   2.292   1.396   8.559
18341SOL    HW156920   2.248   1.399   8.474
18341SOL    HW256921   2.308   1.487   8.581
18342SOL     OW56922   3.491   6.844   8.936
18342SOL    HW156923   3.482   6.928   8.891
18342SOL    HW256924   3.411   6.837   8.989
18343SOL     OW56925   6.731  10.780   9.848
18343SOL    HW156926   6.678  10.728   9.907
18343SOL    HW256927   6.819  10.744   9.856
18344SOL     OW56928   6.885  13.775  12.203
18344SOL    HW156929   6.924  13.756  12.289
18344SOL    HW256930   6.792  13.786  12.221
18345SOL     OW56931   4.410   7.717   1.843
18345SOL    HW156932   4.322   7.741   1.871
18345SOL    HW256933   4.397   7.649   1.777
18346SOL     OW56934   0.870   3.593  13.556
18346SOL    HW156935   0.886   3.621  13.646
18346SOL    HW256936   0.878   3.497  13.559
18347SOL     OW56937   9.066   2.941  13.404
18347SOL    HW156938   9.137   3.002  13.381
18347SOL    HW256939   9.034   2.909  13.320
18348SOL     OW56940   3.097   5.825   4.703
18348SOL    HW156941   3.132   5.904   4.744
18348SOL    HW256942   3.137   5.753   4.751
18349SOL     OW56943  10.089   7.886  10.798
18349SOL    HW156944  10.109   7.957  10.859
18349SOL    HW256945  10.122   7.807  10.843
18350SOL     OW56946  14.407   9.559   3.283
18350SOL    HW156947  14.448   9.473   3.292
18350SOL    HW256948  14.366   9.576   3.367
18351SOL     OW56949   2.601   3.030  10.607
18351SOL    HW156950   2.694   3.053  10.607
18351SOL    HW256951   2.592   2.966  10.679
18352SOL     OW56952   5.258   6.404  14.248
18352SOL    HW156953   5.324   6.458  14.203
18352SOL    HW256954   5.204   6.368  14.178
18353SOL     OW56955   3.212   7.754   6.592
18353SOL    HW156956   3.216   7.711   6.677
18353SOL    HW256957   3.165   7.836   6.609
18354SOL     OW56958   4.561  11.014   7.478
18354SOL    HW156959   4.629  11.025   7.544
18354SOL    HW256960   4.504  11.090   7.490
18355SOL     OW56961   3.984  14.614   4.026
18355SOL    HW156962   4.004  14.602   3.933
18355SOL    HW256963   4.058  14.576   4.072
18356SOL     OW56964  12.635  11.567   8.630
18356SOL    HW156965  12.630  11.472   8.630
18356SOL    HW256966  12.544  11.596   8.640
18357SOL     OW56967  10.236   8.859   4.203
18357SOL    HW156968  10.189   8.896   4.278
18357SOL    HW256969  10.301   8.800   4.241
18358SOL     OW56970   0.902   4.762   7.714
18358SOL    HW156971   0.809   4.768   7.732
18358SOL    HW256972   0.922   4.669   7.717
18359SOL     OW56973  12.969   2.001   3.283
18359SOL    HW156974  13.019   2.081   3.298
18359SOL    HW256975  12.879   2.025   3.308
18360SOL     OW56976  10.456   2.057   5.977
18360SOL    HW156977  10.462   2.112   5.899
18360SOL    HW256978  10.408   1.979   5.947
18361SOL     OW56979  14.422   2.595  10.657
18361SOL    HW156980  14.453   2.541  10.729
18361SOL    HW256981  14.378   2.533  10.598
18362SOL     OW56982   6.002   4.836   7.602
18362SOL    HW156983   6.095   4.838   7.582
18362SOL    HW256984   5.978   4.929   7.610
18363SOL     OW56985   2.534   7.676  10.214
18363SOL    HW156986   2.543   7.702  10.306
18363SOL    HW256987   2.570   7.588  10.210
18364SOL     OW56988   4.576  14.277   9.115
18364SOL    HW156989   4.653  14.301   9.166
18364SOL    HW256990   4.530  14.360   9.102
18365SOL     OW56991  14.103   5.503   2.807
18365SOL    HW156992  14.122   5.479   2.717
18365SOL    HW256993  14.008   5.517   2.809
18366SOL     OW56994  14.051  12.921   2.506
18366SOL    HW156995  14.080  12.908   2.597
18366SOL    HW256996  14.029  12.833   2.476
18367SOL     OW56997   0.362   6.074  14.195
18367SOL    HW156998   0.380   5.986  14.230
18367SOL    HW256999   0.274   6.067  14.158
18368SOL     OW57000   5.593   3.246   0.732
18368SOL    HW157001   5.505   3.213   0.717
18368SOL    HW257002   5.639   3.234   0.649
18369SOL     OW57003   0.057  12.001  14.004
18369SOL    HW157004   0.141  12.021  13.963
18369SOL    HW257005   0.059  12.048  14.088
18370SOL     OW57006   5.219  12.138   4.236
18370SOL    HW157007   5.266  12.218   4.261
18370SOL    HW257008   5.223  12.136   4.141
18371SOL     OW57009   5.320   2.642   1.195
18371SOL    HW157010   5.225   2.649   1.184
18371SOL    HW257011   5.331   2.586   1.272
18372SOL     OW57012   9.160   1.551   9.980
18372SOL    HW157013   9.249   1.575   9.955
18372SOL    HW257014   9.170   1.472  10.033
18373SOL     OW57015   9.669  13.401  11.923
18373SOL    HW157016   9.626  13.471  11.973
18373SOL    HW257017   9.652  13.321  11.972
18374SOL     OW57018   8.024   3.609  10.490
18374SOL    HW157019   8.062   3.553  10.558
18374SOL    HW257020   8.071   3.692  10.498
18375SOL     OW57021   0.970   1.252   3.468
18375SOL    HW157022   0.933   1.259   3.380
18375SOL    HW257023   0.944   1.334   3.511
18376SOL     OW57024  10.663   9.190   9.582
18376SOL    HW157025  10.710   9.248   9.523
18376SOL    HW257026  10.729   9.161   9.645
18377SOL     OW57027   9.139   1.161   2.961
18377SOL    HW157028   9.127   1.234   2.900
18377SOL    HW257029   9.149   1.085   2.905
18378SOL     OW57030   8.383   3.624   0.345
18378SOL    HW157031   8.438   3.630   0.267
18378SOL    HW257032   8.433   3.670   0.413
18379SOL     OW57033   2.240   6.651   1.708
18379SOL    HW157034   2.213   6.737   1.742
18379SOL    HW257035   2.310   6.671   1.646
18380SOL     OW57036   8.254   9.348   2.263
18380SOL    HW157037   8.163   9.322   2.279
18380SOL    HW257038   8.255   9.380   2.172
18381SOL     OW57039  10.792  11.575  14.521
18381SOL    HW157040  10.857  11.517  14.562
18381SOL    HW257041  10.842  11.625  14.456
18382SOL     OW57042  10.528   9.075   7.620
18382SOL    HW157043  10.505   9.036   7.536
18382SOL    HW257044  10.482   9.022   7.685
18383SOL     OW57045   1.739   9.939   3.592
18383SOL    HW157046   1.781   9.963   3.510
18383SOL    HW257047   1.769  10.004   3.655
18384SOL     OW57048  13.241   2.253   5.940
18384SOL    HW157049  13.283   2.336   5.918
18384SOL    HW257050  13.259   2.242   6.034
18385SOL     OW57051  13.050   6.867   9.982
18385SOL    HW157052  13.140   6.850   9.952
18385SOL    HW257053  13.051   6.841  10.074
18386SOL     OW57054   1.922   1.620  13.515
18386SOL    HW157055   1.880   1.586  13.436
18386SOL    HW257056   1.935   1.713  13.498
18387SOL     OW57057  10.168   4.583  11.806
18387SOL    HW157058  10.120   4.532  11.871
18387SOL    HW257059  10.101   4.608  11.742
18388SOL     OW57060   1.918   2.024  11.897
18388SOL    HW157061   1.942   2.053  11.809
18388SOL    HW257062   1.844   1.965  11.883
18389SOL     OW57063  13.478   4.255   4.399
18389SOL    HW157064  13.470   4.297   4.313
18389SOL    HW257065  13.391   4.262   4.438
18390SOL     OW57066   8.126  13.135   3.811
18390SOL    HW157067   8.139  13.142   3.717
18390SOL    HW257068   8.082  13.050   3.823
18391SOL     OW57069   0.335   8.159   9.390
18391SOL    HW157070   0.247   8.176   9.357
18391SOL    HW257071   0.322   8.134   9.481
18392SOL     OW57072  12.055   3.408   0.865
18392SOL    HW157073  11.986   3.436   0.805
18392SOL    HW257074  12.071   3.484   0.921
18393SOL     OW57075   1.568  12.620  12.544
18393SOL    HW157076   1.555  12.678  12.469
18393SOL    HW257077   1.598  12.678  12.614
18394SOL     OW57078   0.928  11.491   1.406
18394SOL    HW157079   0.882  11.569   1.375
18394SOL    HW257080   0.859  11.425   1.412
18395SOL     OW57081   5.099   0.098   7.664
18395SOL    HW157082   5.139   0.133   7.584
18395SOL    HW257083   5.135   0.010   7.672
18396SOL     OW57084   6.407  14.566  12.210
18396SOL    HW157085   6.461  14.593  12.136
18396SOL    HW257086   6.429  14.474  12.223
18397SOL     OW57087  12.102   7.124  14.490
18397SOL    HW157088  12.097   7.094  14.400
18397SOL    HW257089  12.085   7.045  14.542
18398SOL     OW57090   1.919   6.458  10.646
18398SOL    HW157091   1.936   6.485  10.556
18398SOL    HW257092   1.832   6.493  10.666
18399SOL     OW57093  13.695   2.212   4.878
18399SOL    HW157094  13.675   2.259   4.959
18399SOL    HW257095  13.610   2.199   4.835
18400SOL     OW57096   8.960   8.725   2.003
18400SOL    HW157097   8.964   8.649   1.945
18400SOL    HW257098   8.867   8.743   2.012
18401SOL     OW57099   8.262   9.628   9.271
18401SOL    HW157100   8.346   9.583   9.261
18401SOL    HW257101   8.228   9.637   9.182
18402SOL     OW57102  10.555   9.247  10.987
18402SOL    HW157103  10.508   9.325  10.957
18402SOL    HW257104  10.544   9.184  10.916
18403SOL     OW57105  13.352   7.108  13.085
18403SOL    HW157106  13.282   7.166  13.054
18403SOL    HW257107  13.430   7.164  13.088
18404SOL     OW57108   1.308   6.665   8.384
18404SOL    HW157109   1.289   6.647   8.476
18404SOL    HW257110   1.386   6.612   8.365
18405SOL     OW57111  11.193  13.149   4.016
18405SOL    HW157112  11.252  13.095   4.068
18405SOL    HW257113  11.129  13.088   3.979
18406SOL     OW57114  13.684   0.333   6.599
18406SOL    HW157115  13.656   0.242   6.614
18406SOL    HW257116  13.780   0.328   6.595
18407SOL     OW57117  11.955   2.278   0.110
18407SOL    HW157118  11.927   2.310   0.025
18407SOL    HW257119  11.922   2.342   0.172
18408SOL     OW57120   6.089  13.068  12.737
18408SOL    HW157121   6.059  13.110  12.657
18408SOL    HW257122   6.183  13.088  12.741
18409SOL     OW57123   8.669   8.696   9.478
18409SOL    HW157124   8.721   8.732   9.550
18409SOL    HW257125   8.689   8.752   9.403
18410SOL     OW57126   0.965   0.091  11.524
18410SOL    HW157127   0.895   0.033  11.494
18410SOL    HW257128   0.978   0.152  11.451
18411SOL     OW57129  12.071  11.314   7.799
18411SOL    HW157130  12.016  11.283   7.871
18411SOL    HW257131  12.009  11.337   7.729
18412SOL     OW57132   5.030   8.369   2.896
18412SOL    HW157133   5.100   8.430   2.872
18412SOL    HW257134   5.029   8.305   2.825
18413SOL     OW57135   3.263   0.890   9.757
18413SOL    HW157136   3.237   0.810   9.803
18413SOL    HW257137   3.181   0.922   9.719
18414SOL     OW57138  13.304   2.109   2.389
18414SOL    HW157139  13.321   2.150   2.304
18414SOL    HW257140  13.366   2.037   2.394
18415SOL     OW57141   8.517   3.778  12.409
18415SOL    HW157142   8.596   3.726  12.394
18415SOL    HW257143   8.447   3.730  12.365
18416SOL     OW57144   1.253  10.542  13.287
18416SOL    HW157145   1.278  10.598  13.214
18416SOL    HW257146   1.265  10.597  13.365
18417SOL     OW57147  12.426   1.068  11.137
18417SOL    HW157148  12.476   1.140  11.175
18417SOL    HW257149  12.335   1.088  11.158
18418SOL     OW57150   9.120   2.743  14.854
18418SOL    HW157151   9.034   2.703  14.841
18418SOL    HW257152   9.146   2.714   0.074
18419SOL     OW57153   4.664  12.574  11.699
18419SOL    HW157154   4.587  12.623  11.729
18419SOL    HW257155   4.739  12.628  11.722
18420SOL     OW57156   9.136  11.013  13.730
18420SOL    HW157157   9.055  10.987  13.774
18420SOL    HW257158   9.145  10.952  13.657
18421SOL     OW57159  10.285   5.360  11.112
18421SOL    HW157160  10.262   5.344  11.020
18421SOL    HW257161  10.265   5.277  11.155
18422SOL     OW57162  14.655  11.329  10.293
18422SOL    HW157163  14.597  11.260  10.325
18422SOL    HW257164  14.743  11.298  10.314
18423SOL     OW57165   1.556   6.358   7.623
18423SOL    HW157166   1.613   6.400   7.687
18423SOL    HW257167   1.556   6.265   7.649
18424SOL     OW57168   2.069   7.808   5.349
18424SOL    HW157169   2.162   7.828   5.358
18424SOL    HW257170   2.042   7.778   5.436
18425SOL     OW57171   4.624   1.651  14.140
18425SOL    HW157172   4.546   1.610  14.103
18425SOL    HW257173   4.593   1.732  14.179
18426SOL     OW57174   1.907   6.034  14.211
18426SOL    HW157175   1.918   6.102  14.145
18426SOL    HW257176   1.847   5.971  14.171
18427SOL     OW57177  12.484   7.678   4.687
18427SOL    HW157178  12.550   7.700   4.621
18427SOL    HW257179  12.412   7.640   4.636
18428SOL     OW57180   8.472   6.967   5.043
18428SOL    HW157181   8.472   7.060   5.065
18428SOL    HW257182   8.387   6.935   5.075
18429SOL     OW57183  12.012   4.779   1.157
18429SOL    HW157184  12.018   4.750   1.066
18429SOL    HW257185  11.959   4.858   1.155
18430SOL     OW57186  14.657  11.404   4.185
18430SOL    HW157187  14.698  11.318   4.172
18430SOL    HW257188  14.724  11.466   4.157
18431SOL     OW57189   5.798  10.895   6.248
18431SOL    HW157190   5.787  10.891   6.153
18431SOL    HW257191   5.818  10.987   6.266
18432SOL     OW57192   4.815   3.474  10.524
18432SOL    HW157193   4.850   3.547  10.473
18432SOL    HW257194   4.868   3.474  10.604
18433SOL     OW57195   2.075   3.868  14.426
18433SOL    HW157196   2.144   3.809  14.457
18433SOL    HW257197   2.098   3.884  14.334
18434SOL     OW57198   1.103  14.576   4.446
18434SOL    HW157199   1.136  14.507   4.504
18434SOL    HW257200   1.040  14.532   4.389
18435SOL     OW57201   8.799   3.894  11.156
18435SOL    HW157202   8.711   3.858  11.172
18435SOL    HW257203   8.815   3.952  11.230
18436SOL     OW57204   7.236   5.884  13.267
18436SOL    HW157205   7.182   5.889  13.347
18436SOL    HW257206   7.191   5.942  13.205
18437SOL     OW57207  12.884   3.573   1.229
18437SOL    HW157208  12.930   3.643   1.182
18437SOL    HW257209  12.881   3.604   1.319
18438SOL     OW57210   8.163   3.115  10.613
18438SOL    HW157211   8.243   3.138  10.661
18438SOL    HW257212   8.104   3.080  10.680
18439SOL     OW57213  11.958   7.356   9.328
18439SOL    HW157214  11.897   7.424   9.300
18439SOL    HW257215  11.901   7.288   9.366
18440SOL     OW57216  13.066   7.025  12.539
18440SOL    HW157217  12.997   6.976  12.493
18440SOL    HW257218  13.144   6.971  12.530
18441SOL     OW57219   5.033   1.638   7.893
18441SOL    HW157220   5.031   1.552   7.936
18441SOL    HW257221   4.971   1.691   7.944
18442SOL     OW57222  13.315  11.689   1.477
18442SOL    HW157223  13.301  11.605   1.433
18442SOL    HW257224  13.331  11.665   1.569
18443SOL     OW57225   0.871   1.394   4.491
18443SOL    HW157226   0.882   1.402   4.585
18443SOL    HW257227   0.777   1.406   4.477
18444SOL     OW57228  11.544  14.097  12.699
18444SOL    HW157229  11.595  14.146  12.634
18444SOL    HW257230  11.499  14.164  12.750
18445SOL     OW57231   6.487  13.845   9.738
18445SOL    HW157232   6.412  13.785   9.735
18445SOL    HW257233   6.551  13.807   9.678
18446SOL     OW57234   5.074   0.873  13.217
18446SOL    HW157235   5.016   0.820  13.271
18446SOL    HW257236   5.157   0.826  13.216
18447SOL     OW57237  10.147   4.806  10.165
18447SOL    HW157238  10.078   4.865  10.196
18447SOL    HW257239  10.217   4.865  10.137
18448SOL     OW57240   8.622  14.822   6.420
18448SOL    HW157241   8.705  14.817   6.373
18448SOL    HW257242   8.631  14.761   6.493
18449SOL     OW57243   1.173  13.727  14.867
18449SOL    HW157244   1.181  13.644  14.820
18449SOL    HW257245   1.078  13.742   0.003
18450SOL     OW57246  11.838   8.619   0.769
18450SOL    HW157247  11.877   8.605   0.855
18450SOL    HW257248  11.903   8.671   0.721
18451SOL     OW57249   2.332   2.557   4.941
18451SOL    HW157250   2.368   2.502   4.871
18451SOL    HW257251   2.316   2.497   5.013
18452SOL     OW57252  10.499   3.538   2.080
18452SOL    HW157253  10.424   3.597   2.077
18452SOL    HW257254  10.473   3.469   2.141
18453SOL     OW57255   3.447   9.316   4.239
18453SOL    HW157256   3.531   9.285   4.273
18453SOL    HW257257   3.395   9.336   4.317
18454SOL     OW57258   6.220   1.144   3.536
18454SOL    HW157259   6.267   1.061   3.532
18454SOL    HW257260   6.247   1.184   3.619
18455SOL     OW57261   8.452   7.607  13.315
18455SOL    HW157262   8.399   7.647  13.385
18455SOL    HW257263   8.476   7.521  13.349
18456SOL     OW57264  11.289   2.664   1.546
18456SOL    HW157265  11.211   2.643   1.494
18456SOL    HW257266  11.255   2.694   1.630
18457SOL     OW57267   8.752   5.336  10.859
18457SOL    HW157268   8.812   5.271  10.821
18457SOL    HW257269   8.802   5.375  10.930
18458SOL     OW57270   2.907   4.036  10.821
18458SOL    HW157271   2.956   3.971  10.871
18458SOL    HW257272   2.855   4.083  10.887
18459SOL     OW57273   5.198   6.635   5.528
18459SOL    HW157274   5.202   6.673   5.616
18459SOL    HW257275   5.174   6.708   5.471
18460SOL     OW57276   7.266  10.215   5.438
18460SOL    HW157277   7.174  10.189   5.433
18460SOL    HW257278   7.275  10.282   5.369
18461SOL     OW57279  10.197  10.952   0.378
18461SOL    HW157280  10.222  10.874   0.329
18461SOL    HW257281  10.273  11.010   0.372
18462SOL     OW57282   0.307  14.796  12.074
18462SOL    HW157283   0.358  14.868  12.036
18462SOL    HW257284   0.296  14.734  12.002
18463SOL     OW57285   2.900   9.309  11.184
18463SOL    HW157286   2.826   9.330  11.242
18463SOL    HW257287   2.862   9.310  11.096
18464SOL     OW57288  12.894  11.580   2.243
18464SOL    HW157289  12.807  11.579   2.283
18464SOL    HW257290  12.941  11.508   2.285
18465SOL     OW57291   7.678   7.098   6.557
18465SOL    HW157292   7.684   7.186   6.594
18465SOL    HW257293   7.731   7.103   6.477
18466SOL     OW57294   5.951   5.258   6.520
18466SOL    HW157295   5.906   5.285   6.440
18466SOL    HW257296   6.044   5.261   6.497
18467SOL     OW57297  14.063   1.498   7.276
18467SOL    HW157298  14.111   1.521   7.197
18467SOL    HW257299  14.128   1.502   7.346
18468SOL     OW57300   6.885   9.346   0.259
18468SOL    HW157301   6.792   9.322   0.260
18468SOL    HW257302   6.928   9.271   0.217
18469SOL     OW57303  11.269   8.552   5.291
18469SOL    HW157304  11.178   8.582   5.290
18469SOL    HW257305  11.267   8.471   5.342
18470SOL     OW57306   0.892  10.521   4.714
18470SOL    HW157307   0.866  10.605   4.676
18470SOL    HW257308   0.888  10.459   4.641
18471SOL     OW57309   7.395   4.259   1.573
18471SOL    HW157310   7.491   4.257   1.580
18471SOL    HW257311   7.365   4.212   1.650
18472SOL     OW57312  14.691   1.670  14.095
18472SOL    HW157313  14.775   1.639  14.061
18472SOL    HW257314  14.696   1.654  14.189
18473SOL     OW57315   5.467  11.106  13.163
18473SOL    HW157316   5.414  11.119  13.084
18473SOL    HW257317   5.423  11.036  13.210
18474SOL     OW57318  10.211   2.568   1.871
18474SOL    HW157319  10.175   2.502   1.813
18474SOL    HW257320  10.135   2.620   1.898
18475SOL     OW57321   8.324   4.093  10.870
18475SOL    HW157322   8.330   4.032  10.944
18475SOL    HW257323   8.325   4.179  10.911
18476SOL     OW57324   9.044   9.724   2.660
18476SOL    HW157325   9.022   9.711   2.568
18476SOL    HW257326   9.070   9.816   2.666
18477SOL     OW57327  12.207   5.006   3.458
18477SOL    HW157328  12.114   4.997   3.440
18477SOL    HW257329  12.237   5.072   3.395
18478SOL     OW57330  11.274   0.633   5.680
18478SOL    HW157331  11.244   0.586   5.758
18478SOL    HW257332  11.270   0.726   5.704
18479SOL     OW57333  13.580  12.297  14.305
18479SOL    HW157334  13.647  12.331  14.246
18479SOL    HW257335  13.527  12.238  14.252
18480SOL     OW57336   5.164  12.322   2.565
18480SOL    HW157337   5.245  12.368   2.547
18480SOL    HW257338   5.160  12.316   2.661
18481SOL     OW57339  13.071   2.632   7.920
18481SOL    HW157340  13.013   2.708   7.910
18481SOL    HW257341  13.046   2.573   7.849
18482SOL     OW57342  13.256   8.327   3.615
18482SOL    HW157343  13.160   8.334   3.612
18482SOL    HW257344  13.275   8.298   3.704
18483SOL     OW57345   3.993  11.329   1.053
18483SOL    HW157346   3.973  11.282   1.134
18483SOL    HW257347   3.930  11.295   0.989
18484SOL     OW57348   7.387   3.345   2.348
18484SOL    HW157349   7.460   3.308   2.299
18484SOL    HW257350   7.400   3.316   2.438
18485SOL     OW57351   7.050  10.502   7.488
18485SOL    HW157352   6.972  10.554   7.468
18485SOL    HW257353   7.120  10.566   7.500
18486SOL     OW57354   1.917   6.477   0.293
18486SOL    HW157355   1.920   6.387   0.324
18486SOL    HW257356   1.965   6.527   0.359
18487SOL     OW57357   4.984   1.118   5.400
18487SOL    HW157358   5.076   1.109   5.375
18487SOL    HW257359   4.938   1.131   5.317
18488SOL     OW57360   0.214  11.119   6.940
18488SOL    HW157361   0.140  11.147   6.995
18488SOL    HW257362   0.216  11.024   6.950
18489SOL     OW57363   6.954  12.910   6.140
18489SOL    HW157364   6.892  12.920   6.212
18489SOL    HW257365   6.909  12.852   6.078
18490SOL     OW57366   9.030  10.136   8.059
18490SOL    HW157367   9.085  10.175   7.991
18490SOL    HW257368   9.060  10.045   8.066
18491SOL     OW57369   9.646   4.935   8.814
18491SOL    HW157370   9.738   4.933   8.838
18491SOL    HW257371   9.608   4.859   8.860
18492SOL     OW57372   1.933   8.948   5.026
18492SOL    HW157373   1.888   8.972   5.107
18492SOL    HW257374   1.940   9.031   4.978
18493SOL     OW57375  11.589   0.126   3.243
18493SOL    HW157376  11.625   0.214   3.256
18493SOL    HW257377  11.507   0.141   3.196
18494SOL     OW57378   7.479   9.124   5.242
18494SOL    HW157379   7.552   9.167   5.196
18494SOL    HW257380   7.522   9.073   5.311
18495SOL     OW57381  12.878   1.763   0.260
18495SOL    HW157382  12.884   1.859   0.254
18495SOL    HW257383  12.921   1.742   0.343
18496SOL     OW57384   7.014   3.939  10.406
18496SOL    HW157385   6.951   4.004  10.438
18496SOL    HW257386   6.971   3.899  10.331
18497SOL     OW57387   5.876   9.165   9.352
18497SOL    HW157388   5.960   9.126   9.376
18497SOL    HW257389   5.900   9.248   9.311
18498SOL     OW57390   7.948  10.990   3.203
18498SOL    HW157391   7.970  10.928   3.272
18498SOL    HW257392   8.026  10.993   3.147
18499SOL     OW57393   8.175  12.656  13.384
18499SOL    HW157394   8.233  12.603  13.438
18499SOL    HW257395   8.199  12.635  13.294
18500SOL     OW57396   0.270   4.147   0.499
18500SOL    HW157397   0.316   4.126   0.418
18500SOL    HW257398   0.180   4.163   0.472
18501SOL     OW57399   2.266   1.313   8.931
18501SOL    HW157400   2.314   1.353   9.003
18501SOL    HW257401   2.242   1.386   8.874
18502SOL     OW57402  11.822  12.276   0.508
18502SOL    HW157403  11.741  12.319   0.533
18502SOL    HW257404  11.842  12.311   0.421
18503SOL     OW57405  10.669   6.945   3.817
18503SOL    HW157406  10.714   7.014   3.768
18503SOL    HW257407  10.665   6.871   3.757
18504SOL     OW57408   5.027   7.694   2.211
18504SOL    HW157409   5.068   7.644   2.282
18504SOL    HW257410   5.039   7.786   2.236
18505SOL     OW57411   9.793  12.087   0.900
18505SOL    HW157412   9.764  12.032   0.973
18505SOL    HW257413   9.763  12.040   0.822
18506SOL     OW57414   2.973   6.126   2.006
18506SOL    HW157415   3.066   6.131   2.028
18506SOL    HW257416   2.931   6.191   2.062
18507SOL     OW57417   8.143   1.015   4.350
18507SOL    HW157418   8.120   1.073   4.278
18507SOL    HW257419   8.119   1.063   4.429
18508SOL     OW57420   4.693   3.997  14.604
18508SOL    HW157421   4.670   3.906  14.623
18508SOL    HW257422   4.620   4.048  14.639
18509SOL     OW57423   6.493   3.823   0.910
18509SOL    HW157424   6.584   3.845   0.892
18509SOL    HW257425   6.453   3.813   0.823
18510SOL     OW57426  14.723   9.144   1.307
18510SOL    HW157427  14.629   9.130   1.303
18510SOL    HW257428  14.743   9.193   1.227
18511SOL     OW57429   9.869  14.249   1.204
18511SOL    HW157430   9.959  14.259   1.171
18511SOL    HW257431   9.814  14.272   1.130
18512SOL     OW57432   2.756   4.969   5.844
18512SOL    HW157433   2.845   5.003   5.828
18512SOL    HW257434   2.764   4.919   5.925
18513SOL     OW57435  14.834  11.322   2.949
18513SOL    HW157436   0.010  11.376   3.015
18513SOL    HW257437  14.840  11.373   2.869
18514SOL     OW57438  10.229   4.976   9.884
18514SOL    HW157439  10.252   4.886   9.860
18514SOL    HW257440  10.299   5.030   9.847
18515SOL     OW57441   0.877   4.084   3.988
18515SOL    HW157442   0.893   4.132   3.907
18515SOL    HW257443   0.839   4.149   4.047
18516SOL     OW57444  12.295   3.019  11.393
18516SOL    HW157445  12.381   3.018  11.435
18516SOL    HW257446  12.254   2.936  11.419
18517SOL     OW57447   1.241  14.404   7.339
18517SOL    HW157448   1.212  14.324   7.294
18517SOL    HW257449   1.176  14.416   7.409
18518SOL     OW57450   7.387   2.989  11.437
18518SOL    HW157451   7.377   3.073  11.482
18518SOL    HW257452   7.307   2.941  11.457
18519SOL     OW57453   1.571  11.946  12.107
18519SOL    HW157454   1.559  11.940  12.202
18519SOL    HW257455   1.610  11.862  12.083
18520SOL     OW57456   0.582   6.433  14.509
18520SOL    HW157457   0.522   6.449  14.582
18520SOL    HW257458   0.666   6.414  14.552
18521SOL     OW57459  14.346   0.833   7.250
18521SOL    HW157460  14.274   0.860   7.306
18521SOL    HW257461  14.378   0.915   7.211
18522SOL     OW57462  13.619  11.020   4.304
18522SOL    HW157463  13.600  11.114   4.302
18522SOL    HW257464  13.559  10.985   4.370
18523SOL     OW57465   8.036   7.394   9.601
18523SOL    HW157466   8.057   7.461   9.536
18523SOL    HW257467   7.946   7.368   9.580
18524SOL     OW57468  13.433   9.970  13.784
18524SOL    HW157469  13.420  10.047  13.730
18524SOL    HW257470  13.361   9.973  13.848
18525SOL     OW57471  10.793   5.666   2.912
18525SOL    HW157472  10.719   5.717   2.946
18525SOL    HW257473  10.796   5.588   2.968
18526SOL     OW57474   0.663   2.331  11.070
18526SOL    HW157475   0.676   2.400  11.134
18526SOL    HW257476   0.568   2.321  11.064
18527SOL     OW57477  14.536   2.066   7.059
18527SOL    HW157478  14.570   2.022   7.137
18527SOL    HW257479  14.441   2.051   7.063
18528SOL     OW57480   1.234   4.665  10.354
18528SOL    HW157481   1.189   4.707  10.428
18528SOL    HW257482   1.176   4.681  10.280
18529SOL     OW57483  10.151   9.423  10.208
18529SOL    HW157484  10.089   9.378  10.266
18529SOL    HW257485  10.096   9.464  10.141
18530SOL     OW57486   4.403  14.447   6.998
18530SOL    HW157487   4.493  14.439   7.027
18530SOL    HW257488   4.353  14.460   7.079
18531SOL     OW57489   5.004   9.279  14.161
18531SOL    HW157490   5.047   9.268  14.077
18531SOL    HW257491   5.049   9.353  14.202
18532SOL     OW57492  13.372  12.555   4.682
18532SOL    HW157493  13.386  12.464   4.708
18532SOL    HW257494  13.456  12.583   4.646
18533SOL     OW57495   5.137   6.108   6.710
18533SOL    HW157496   5.120   6.015   6.697
18533SOL    HW257497   5.185   6.112   6.792
18534SOL     OW57498  13.319  13.751   5.318
18534SOL    HW157499  13.353  13.828   5.363
18534SOL    HW257500  13.366  13.748   5.235
18535SOL     OW57501   9.055   8.539   4.782
18535SOL    HW157502   9.052   8.517   4.875
18535SOL    HW257503   8.965   8.561   4.759
18536SOL     OW57504  10.548  10.817  10.679
18536SOL    HW157505  10.561  10.900  10.724
18536SOL    HW257506  10.458  10.821  10.646
18537SOL     OW57507   4.454  13.489   5.464
18537SOL    HW157508   4.452  13.400   5.428
18537SOL    HW257509   4.363  13.519   5.459
18538SOL     OW57510  13.106   6.042   4.996
18538SOL    HW157511  13.170   6.113   5.002
18538SOL    HW257512  13.068   6.051   4.908
18539SOL     OW57513  13.178   8.084   9.334
18539SOL    HW157514  13.162   7.997   9.297
18539SOL    HW257515  13.272   8.084   9.354
18540SOL     OW57516   4.861   0.669  11.614
18540SOL    HW157517   4.897   0.585  11.641
18540SOL    HW257518   4.927   0.706  11.555
18541SOL     OW57519   6.317   3.128  12.637
18541SOL    HW157520   6.378   3.171  12.697
18541SOL    HW257521   6.271   3.201  12.594
18542SOL     OW57522  14.775   6.592   9.297
18542SOL    HW157523  14.750   6.516   9.244
18542SOL    HW257524  14.734   6.577   9.382
18543SOL     OW57525  12.558   2.871   0.723
18543SOL    HW157526  12.626   2.804   0.729
18543SOL    HW257527  12.476   2.822   0.725
18544SOL     OW57528  12.462   5.173   7.210
18544SOL    HW157529  12.374   5.135   7.217
18544SOL    HW257530  12.468   5.231   7.286
18545SOL     OW57531   6.779   4.205   5.431
18545SOL    HW157532   6.811   4.241   5.348
18545SOL    HW257533   6.802   4.112   5.428
18546SOL     OW57534  12.407   8.878   9.156
18546SOL    HW157535  12.437   8.969   9.146
18546SOL    HW257536  12.311   8.885   9.156
18547SOL     OW57537   5.192   1.389   0.576
18547SOL    HW157538   5.187   1.295   0.559
18547SOL    HW257539   5.276   1.400   0.622
18548SOL     OW57540  14.686   7.263   6.257
18548SOL    HW157541  14.709   7.211   6.180
18548SOL    HW257542  14.682   7.353   6.225
18549SOL     OW57543   7.017   2.485   3.757
18549SOL    HW157544   7.060   2.502   3.841
18549SOL    HW257545   6.955   2.558   3.747
18550SOL     OW57546  10.019   2.707  14.653
18550SOL    HW157547  10.099   2.661  14.627
18550SOL    HW257548   9.999   2.673  14.740
18551SOL     OW57549   7.971  10.979   7.676
18551SOL    HW157550   7.904  11.024   7.625
18551SOL    HW257551   8.045  11.040   7.679
18552SOL     OW57552   0.643   5.704   1.466
18552SOL    HW157553   0.644   5.800   1.459
18552SOL    HW257554   0.736   5.680   1.472
18553SOL     OW57555  11.518  12.144   7.034
18553SOL    HW157556  11.438  12.164   6.985
18553SOL    HW257557  11.557  12.229   7.051
18554SOL     OW57558   5.000   1.217  13.996
18554SOL    HW157559   4.910   1.190  14.010
18554SOL    HW257560   5.042   1.142  13.954
18555SOL     OW57561   0.908  11.834   1.369
18555SOL    HW157562   0.998  11.849   1.339
18555SOL    HW257563   0.905  11.873   1.456
18556SOL     OW57564   5.991   6.725  12.641
18556SOL    HW157565   6.009   6.742  12.734
18556SOL    HW257566   6.049   6.653  12.617
18557SOL     OW57567  10.993   6.255  10.720
18557SOL    HW157568  11.039   6.216  10.794
18557SOL    HW257569  11.030   6.344  10.713
18558SOL     OW57570   8.451   4.077   3.088
18558SOL    HW157571   8.503   4.106   3.013
18558SOL    HW257572   8.508   4.091   3.164
18559SOL     OW57573   1.271   8.922   8.093
18559SOL    HW157574   1.361   8.922   8.062
18559SOL    HW257575   1.222   8.876   8.024
18560SOL     OW57576   3.775   8.383  12.464
18560SOL    HW157577   3.775   8.319  12.535
18560SOL    HW257578   3.721   8.455  12.497
18561SOL     OW57579   2.773   7.265   9.473
18561SOL    HW157580   2.748   7.342   9.524
18561SOL    HW257581   2.868   7.263   9.478
18562SOL     OW57582  11.482   4.927   7.037
18562SOL    HW157583  11.446   5.013   7.056
18562SOL    HW257584  11.452   4.907   6.948
18563SOL     OW57585  14.339  12.763  12.251
18563SOL    HW157586  14.280  12.720  12.313
18563SOL    HW257587  14.339  12.855  12.277
18564SOL     OW57588   7.080  12.570   9.825
18564SOL    HW157589   7.130  12.595   9.746
18564SOL    HW257590   7.035  12.490   9.800
18565SOL     OW57591  12.146  10.391   1.827
18565SOL    HW157592  12.138  10.473   1.778
18565SOL    HW257593  12.181  10.417   1.912
18566SOL     OW57594   3.778  14.406  11.725
18566SOL    HW157595   3.691  14.380  11.694
18566SOL    HW257596   3.836  14.338  11.691
18567SOL     OW57597   5.102  13.908  11.760
18567SOL    HW157598   5.094  13.891  11.854
18567SOL    HW257599   5.041  13.980  11.743
18568SOL     OW57600   1.117   6.671  13.853
18568SOL    HW157601   1.032   6.628  13.853
18568SOL    HW257602   1.177   6.605  13.818
18569SOL     OW57603  10.810   1.742   0.895
18569SOL    HW157604  10.878   1.769   0.834
18569SOL    HW257605  10.737   1.716   0.839
18570SOL     OW57606   0.101  11.674   5.192
18570SOL    HW157607   0.048  11.632   5.260
18570SOL    HW257608   0.175  11.712   5.240
18571SOL     OW57609   3.926  13.952   1.455
18571SOL    HW157610   4.014  13.918   1.443
18571SOL    HW257611   3.936  14.025   1.516
18572SOL     OW57612  13.547   7.475   9.091
18572SOL    HW157613  13.513   7.387   9.109
18572SOL    HW257614  13.568   7.473   8.997
18573SOL     OW57615   7.075  11.635   9.779
18573SOL    HW157616   7.091  11.628   9.685
18573SOL    HW257617   7.001  11.696   9.786
18574SOL     OW57618   7.983   0.113  13.609
18574SOL    HW157619   8.037   0.075  13.678
18574SOL    HW257620   8.037   0.182  13.571
18575SOL     OW57621   6.738   9.774   8.178
18575SOL    HW157622   6.653   9.769   8.135
18575SOL    HW257623   6.787   9.840   8.128
18576SOL     OW57624   1.336  12.239   9.095
18576SOL    HW157625   1.305  12.263   9.182
18576SOL    HW257626   1.394  12.164   9.111
18577SOL     OW57627   7.965   9.784   5.896
18577SOL    HW157628   8.035   9.792   5.831
18577SOL    HW257629   8.010   9.771   5.979
18578SOL     OW57630  14.390  12.598  14.044
18578SOL    HW157631  14.315  12.629  14.095
18578SOL    HW257632  14.464  12.607  14.103
18579SOL     OW57633  12.986   0.798   0.643
18579SOL    HW157634  12.925   0.732   0.676
18579SOL    HW257635  13.043   0.819   0.717
18580SOL     OW57636   7.392  12.851   4.534
18580SOL    HW157637   7.384  12.877   4.443
18580SOL    HW257638   7.350  12.765   4.539
18581SOL     OW57639  12.782   6.603  13.941
18581SOL    HW157640  12.777   6.539  14.012
18581SOL    HW257641  12.702   6.655  13.950
18582SOL     OW57642  14.045  12.103  12.714
18582SOL    HW157643  14.117  12.059  12.759
18582SOL    HW257644  14.033  12.185  12.762
18583SOL     OW57645  12.825   1.172   9.040
18583SOL    HW157646  12.808   1.251   8.988
18583SOL    HW257647  12.747   1.118   9.026
18584SOL     OW57648   2.978   8.814   5.268
18584SOL    HW157649   3.053   8.788   5.216
18584SOL    HW257650   3.015   8.841   5.352
18585SOL     OW57651   4.093   0.992   5.357
18585SOL    HW157652   4.008   0.956   5.332
18585SOL    HW257653   4.085   1.086   5.341
18586SOL     OW57654  10.971  11.825   8.860
18586SOL    HW157655  10.968  11.745   8.809
18586SOL    HW257656  11.004  11.891   8.799
18587SOL     OW57657  14.601   5.668   2.116
18587SOL    HW157658  14.604   5.755   2.075
18587SOL    HW257659  14.508   5.654   2.136
18588SOL     OW57660   5.715   4.525   0.153
18588SOL    HW157661   5.786   4.467   0.126
18588SOL    HW257662   5.750   4.575   0.226
18589SOL     OW57663  11.515   2.407   7.311
18589SOL    HW157664  11.438   2.452   7.276
18589SOL    HW257665  11.522   2.439   7.401
18590SOL     OW57666   5.108   1.780  13.726
18590SOL    HW157667   5.074   1.809  13.641
18590SOL    HW257668   5.062   1.698  13.743
18591SOL     OW57669   3.195   0.708  11.404
18591SOL    HW157670   3.179   0.689  11.497
18591SOL    HW257671   3.166   0.629  11.358
18592SOL     OW57672   6.962   9.644   4.629
18592SOL    HW157673   6.892   9.683   4.682
18592SOL    HW257674   6.974   9.556   4.666
18593SOL     OW57675   5.462   2.560   5.758
18593SOL    HW157676   5.522   2.629   5.732
18593SOL    HW257677   5.519   2.487   5.785
18594SOL     OW57678  10.349   2.463   5.707
18594SOL    HW157679  10.297   2.481   5.629
18594SOL    HW257680  10.286   2.461   5.779
18595SOL     OW57681   7.926   5.738   9.915
18595SOL    HW157682   7.853   5.681   9.940
18595SOL    HW257683   7.894   5.827   9.935
18596SOL     OW57684  10.778  13.407  13.022
18596SOL    HW157685  10.754  13.333  12.967
18596SOL    HW257686  10.775  13.483  12.964
18597SOL     OW57687   5.882   9.718  10.975
18597SOL    HW157688   5.887   9.625  10.995
18597SOL    HW257689   5.829   9.756  11.045
18598SOL     OW57690   9.613  14.679   0.196
18598SOL    HW157691   9.626  14.758   0.143
18598SOL    HW257692   9.598  14.609   0.132
18599SOL     OW57693  10.921   2.593   2.555
18599SOL    HW157694  10.962   2.510   2.577
18599SOL    HW257695  10.911   2.637   2.639
18600SOL     OW57696  11.966   4.469   1.704
18600SOL    HW157697  11.931   4.555   1.681
18600SOL    HW257698  11.973   4.422   1.620
18601SOL     OW57699   5.158   5.193   5.863
18601SOL    HW157700   5.080   5.245   5.846
18601SOL    HW257701   5.124   5.105   5.881
18602SOL     OW57702  12.499   7.935   4.857
18602SOL    HW157703  12.466   7.848   4.878
18602SOL    HW257704  12.571   7.920   4.796
18603SOL     OW57705   7.131  13.653  13.440
18603SOL    HW157706   7.086  13.671  13.358
18603SOL    HW257707   7.200  13.719  13.445
18604SOL     OW57708  12.025  13.571   8.697
18604SOL    HW157709  11.950  13.578   8.638
18604SOL    HW257710  12.024  13.480   8.726
18605SOL     OW57711   0.064   9.517   6.777
18605SOL    HW157712  14.840   9.499   6.796
18605SOL    HW257713   0.091   9.577   6.846
18606SOL     OW57714   9.263  10.736   1.280
18606SOL    HW157715   9.344  10.775   1.249
18606SOL    HW257716   9.207  10.730   1.202
18607SOL     OW57717  11.450   1.993  10.629
18607SOL    HW157718  11.425   1.947  10.548
18607SOL    HW257719  11.441   2.086  10.608
18608SOL     OW57720  13.341  14.768   0.075
18608SOL    HW157721  13.274  14.836   0.084
18608SOL    HW257722  13.363  14.769  14.850
18609SOL     OW57723   1.980   0.368   4.614
18609SOL    HW157724   1.899   0.329   4.648
18609SOL    HW257725   1.956   0.457   4.591
18610SOL     OW57726   5.905  13.493   2.515
18610SOL    HW157727   5.990  13.471   2.554
18610SOL    HW257728   5.852  13.524   2.589
18611SOL     OW57729   1.102  13.317   1.343
18611SOL    HW157730   1.155  13.337   1.265
18611SOL    HW257731   1.144  13.240   1.381
18612SOL     OW57732   7.816  13.832   4.714
18612SOL    HW157733   7.727  13.818   4.748
18612SOL    HW257734   7.871  13.835   4.793
18613SOL     OW57735  10.753   9.528   2.694
18613SOL    HW157736  10.845   9.505   2.678
18613SOL    HW257737  10.707   9.497   2.616
18614SOL     OW57738   5.457  14.691   3.900
18614SOL    HW157739   5.514  14.620   3.869
18614SOL    HW257740   5.500  14.725   3.978
18615SOL     OW57741  12.813   8.671   4.888
18615SOL    HW157742  12.843   8.581   4.905
18615SOL    HW257743  12.862   8.697   4.810
18616SOL     OW57744  13.018   3.712   6.499
18616SOL    HW157745  13.048   3.791   6.453
18616SOL    HW257746  13.022   3.736   6.592
18617SOL     OW57747  12.991   0.609   5.977
18617SOL    HW157748  13.033   0.552   6.041
18617SOL    HW257749  12.946   0.550   5.917
18618SOL     OW57750   1.754  11.896  12.480
18618SOL    HW157751   1.779  11.964  12.417
18618SOL    HW257752   1.771  11.936  12.566
18619SOL     OW57753  10.356   8.545  13.518
18619SOL    HW157754  10.279   8.491  13.536
18619SOL    HW257755  10.320   8.631  13.496
18620SOL     OW57756   6.384  11.368   9.077
18620SOL    HW157757   6.293  11.388   9.055
18620SOL    HW257758   6.395  11.276   9.053
18621SOL     OW57759   8.366   3.093  10.235
18621SOL    HW157760   8.418   3.144  10.174
18621SOL    HW257761   8.280   3.136  10.236
18622SOL     OW57762   2.465  11.510  14.806
18622SOL    HW157763   2.379  11.474  14.785
18622SOL    HW257764   2.528  11.447  14.771
18623SOL     OW57765   3.455   1.903  10.581
18623SOL    HW157766   3.375   1.852  10.594
18623SOL    HW257767   3.523   1.838  10.564
18624SOL     OW57768   0.365   5.926  14.862
18624SOL    HW157769   0.384   5.961   0.081
18624SOL    HW257770   0.273   5.900  14.867
18625SOL     OW57771   8.016   0.263   2.363
18625SOL    HW157772   7.996   0.189   2.420
18625SOL    HW257773   8.109   0.252   2.340
18626SOL     OW57774   3.264  14.313   7.570
18626SOL    HW157775   3.309  14.397   7.560
18626SOL    HW257776   3.293  14.262   7.494
18627SOL     OW57777  10.544  14.393   1.909
18627SOL    HW157778  10.551  14.363   1.999
18627SOL    HW257779  10.452  14.383   1.887
18628SOL     OW57780   3.024   5.583   1.882
18628SOL    HW157781   2.990   5.572   1.971
18628SOL    HW257782   3.007   5.675   1.862
18629SOL     OW57783   5.146  12.769  14.498
18629SOL    HW157784   5.077  12.836  14.497
18629SOL    HW257785   5.121  12.707  14.429
18630SOL     OW57786   9.908   4.978   0.811
18630SOL    HW157787   9.880   4.941   0.895
18630SOL    HW257788   9.828   5.005   0.768
18631SOL     OW57789   2.180  13.810   0.634
18631SOL    HW157790   2.218  13.778   0.552
18631SOL    HW257791   2.087  13.787   0.628
18632SOL     OW57792  12.079  11.986  12.583
18632SOL    HW157793  12.064  12.080  12.590
18632SOL    HW257794  12.147  11.967  12.648
18633SOL     OW57795   2.622   8.832  13.443
18633SOL    HW157796   2.677   8.756  13.462
18633SOL    HW257797   2.617   8.880  13.526
18634SOL     OW57798   1.898  10.927  10.658
18634SOL    HW157799   1.960  10.874  10.608
18634SOL    HW257800   1.936  11.015  10.659
18635SOL     OW57801  11.383  11.075   1.959
18635SOL    HW157802  11.403  11.091   2.051
18635SOL    HW257803  11.329  11.149   1.933
18636SOL     OW57804   6.555   3.268   0.485
18636SOL    HW157805   6.504   3.205   0.536
18636SOL    HW257806   6.547   3.350   0.533
18637SOL     OW57807   8.512   4.082  13.187
18637SOL    HW157808   8.495   4.155  13.127
18637SOL    HW257809   8.494   4.119  13.274
18638SOL     OW57810   5.708  14.103  10.503
18638SOL    HW157811   5.789  14.106  10.453
18638SOL    HW257812   5.707  14.017  10.544
18639SOL     OW57813   3.937   9.479   5.457
18639SOL    HW157814   3.950   9.390   5.424
18639SOL    HW257815   3.884   9.467   5.536
18640SOL     OW57816   0.868  10.369   3.269
18640SOL    HW157817   0.819  10.411   3.198
18640SOL    HW257818   0.917  10.299   3.226
18641SOL     OW57819   9.695  13.792   0.355
18641SOL    HW157820   9.734  13.878   0.342
18641SOL    HW257821   9.696  13.779   0.450
18642SOL     OW57822   7.089   7.768  11.116
18642SOL    HW157823   7.139   7.688  11.102
18642SOL    HW257824   7.080   7.774  11.212
18643SOL     OW57825  12.819   0.184  11.918
18643SOL    HW157826  12.835   0.093  11.941
18643SOL    HW257827  12.735   0.205  11.957
18644SOL     OW57828  10.173   4.194   2.854
18644SOL    HW157829  10.134   4.135   2.919
18644SOL    HW257830  10.173   4.144   2.773
18645SOL     OW57831  11.840  13.898  12.493
18645SOL    HW157832  11.873  13.844  12.421
18645SOL    HW257833  11.859  13.988  12.467
18646SOL     OW57834  12.122  14.094   0.443
18646SOL    HW157835  12.045  14.133   0.402
18646SOL    HW257836  12.116  14.001   0.421
18647SOL     OW57837  12.939  11.607  13.388
18647SOL    HW157838  12.865  11.666  13.400
18647SOL    HW257839  12.899  11.525  13.359
18648SOL     OW57840  11.879  11.321   1.336
18648SOL    HW157841  11.808  11.368   1.291
18648SOL    HW257842  11.956  11.335   1.280
18649SOL     OW57843   6.014   0.797  10.220
18649SOL    HW157844   5.970   0.793  10.306
18649SOL    HW257845   5.943   0.813  10.158
18650SOL     OW57846   8.994   1.378   3.879
18650SOL    HW157847   9.087   1.391   3.900
18650SOL    HW257848   8.950   1.380   3.964
18651SOL     OW57849   1.836   5.296   8.602
18651SOL    HW157850   1.758   5.306   8.547
18651SOL    HW257851   1.883   5.378   8.592
18652SOL     OW57852   2.649   5.380   1.942
18652SOL    HW157853   2.586   5.384   1.870
18652SOL    HW257854   2.597   5.357   2.019
18653SOL     OW57855   6.373   4.376   6.783
18653SOL    HW157856   6.418   4.366   6.699
18653SOL    HW257857   6.288   4.413   6.760
18654SOL     OW57858   4.945   2.195   2.809
18654SOL    HW157859   4.976   2.271   2.857
18654SOL    HW257860   4.992   2.121   2.849
18655SOL     OW57861   8.858  12.126   0.554
18655SOL    HW157862   8.804  12.205   0.562
18655SOL    HW257863   8.873  12.098   0.644
18656SOL     OW57864   6.535  12.181  10.768
18656SOL    HW157865   6.602  12.208  10.831
18656SOL    HW257866   6.454  12.181  10.819
18657SOL     OW57867  10.694   5.817  10.174
18657SOL    HW157868  10.676   5.747  10.111
18657SOL    HW257869  10.725   5.772  10.252
18658SOL     OW57870   9.054  11.280  13.631
18658SOL    HW157871   9.109  11.355  13.654
18658SOL    HW257872   9.108  11.204  13.651
18659SOL     OW57873  13.961  14.670   7.134
18659SOL    HW157874  13.868  14.681   7.153
18659SOL    HW257875  13.981  14.736   7.068
18660SOL     OW57876   3.907   4.234  14.830
18660SOL    HW157877   3.843   4.302  14.809
18660SOL    HW257878   3.856   4.153  14.826
18661SOL     OW57879   5.874   0.639  14.726
18661SOL    HW157880   5.845   0.716  14.775
18661SOL    HW257881   5.881   0.670  14.635
18662SOL     OW57882   1.861  10.474  12.572
18662SOL    HW157883   1.777  10.488  12.530
18662SOL    HW257884   1.863  10.380  12.591
18663SOL     OW57885   8.157   8.000  14.599
18663SOL    HW157886   8.139   8.070  14.537
18663SOL    HW257887   8.200   8.044  14.672
18664SOL     OW57888   1.799   4.169   9.210
18664SOL    HW157889   1.870   4.216   9.165
18664SOL    HW257890   1.722   4.225   9.196
18665SOL     OW57891   0.435   4.158   1.991
18665SOL    HW157892   0.472   4.072   2.010
18665SOL    HW257893   0.375   4.175   2.064
18666SOL     OW57894   7.349   3.731   9.335
18666SOL    HW157895   7.435   3.772   9.345
18666SOL    HW257896   7.354   3.686   9.251
18667SOL     OW57897   9.353  12.614   8.584
18667SOL    HW157898   9.352  12.543   8.648
18667SOL    HW257899   9.261  12.623   8.558
18668SOL     OW57900   8.091   0.062   3.145
18668SOL    HW157901   8.054  14.854   3.191
18668SOL    HW257902   8.075   0.044   3.053
18669SOL     OW57903   0.240   9.904   8.655
18669SOL    HW157904   0.305   9.877   8.591
18669SOL    HW257905   0.228   9.827   8.711
18670SOL     OW57906   0.570  13.922   4.096
18670SOL    HW157907   0.544  13.831   4.114
18670SOL    HW257908   0.566  13.965   4.181
18671SOL     OW57909   7.612   9.368   0.625
18671SOL    HW157910   7.579   9.436   0.685
18671SOL    HW257911   7.695   9.340   0.664
18672SOL     OW57912  12.377   2.483   8.433
18672SOL    HW157913  12.298   2.434   8.408
18672SOL    HW257914  12.356   2.574   8.410
18673SOL     OW57915   5.501   7.984  11.233
18673SOL    HW157916   5.407   7.972  11.218
18673SOL    HW257917   5.509   8.074  11.265
18674SOL     OW57918   6.497   1.395   7.027
18674SOL    HW157919   6.577   1.343   7.023
18674SOL    HW257920   6.463   1.395   6.937
18675SOL     OW57921   8.259   6.277   0.729
18675SOL    HW157922   8.242   6.296   0.821
18675SOL    HW257923   8.191   6.324   0.681
18676SOL     OW57924   0.634   7.223   8.591
18676SOL    HW157925   0.668   7.153   8.536
18676SOL    HW257926   0.542   7.199   8.605
18677SOL     OW57927  13.643   1.652  14.253
18677SOL    HW157928  13.724   1.694  14.281
18677SOL    HW257929  13.593   1.722  14.211
18678SOL     OW57930   9.506   2.076   6.090
18678SOL    HW157931   9.517   2.119   6.175
18678SOL    HW257932   9.571   2.005   6.090
18679SOL     OW57933   8.157   4.090   0.236
18679SOL    HW157934   8.133   4.179   0.261
18679SOL    HW257935   8.100   4.070   0.162
18680SOL     OW57936   7.339  11.350   1.170
18680SOL    HW157937   7.431  11.364   1.148
18680SOL    HW257938   7.317  11.421   1.230
18681SOL     OW57939   3.802  10.008   6.574
18681SOL    HW157940   3.736   9.951   6.614
18681SOL    HW257941   3.832   9.961   6.497
18682SOL     OW57942  11.885  12.815  10.695
18682SOL    HW157943  11.906  12.727  10.662
18682SOL    HW257944  11.810  12.801  10.753
18683SOL     OW57945  10.801  12.550   4.628
18683SOL    HW157946  10.859  12.481   4.660
18683SOL    HW257947  10.739  12.565   4.700
18684SOL     OW57948   5.875   6.859  11.970
18684SOL    HW157949   5.893   6.929  11.907
18684SOL    HW257950   5.800   6.891  12.020
18685SOL     OW57951  10.396  13.189   9.325
18685SOL    HW157952  10.353  13.182   9.410
18685SOL    HW257953  10.439  13.105   9.312
18686SOL     OW57954   8.335   2.356   3.120
18686SOL    HW157955   8.414   2.344   3.066
18686SOL    HW257956   8.263   2.336   3.060
18687SOL     OW57957   8.654  11.652   6.590
18687SOL    HW157958   8.595  11.644   6.665
18687SOL    HW257959   8.701  11.569   6.587
18688SOL     OW57960   1.913   7.350   6.970
18688SOL    HW157961   1.963   7.348   6.889
18688SOL    HW257962   1.837   7.294   6.953
18689SOL     OW57963   0.497  12.786  13.317
18689SOL    HW157964   0.567  12.799  13.381
18689SOL    HW257965   0.439  12.723  13.358
18690SOL     OW57966   6.967  14.262  12.905
18690SOL    HW157967   6.986  14.207  12.829
18690SOL    HW257968   6.872  14.257  12.915
18691SOL     OW57969  10.329   9.352   4.207
18691SOL    HW157970  10.410   9.314   4.242
18691SOL    HW257971  10.281   9.277   4.171
18692SOL     OW57972   5.686  14.621  10.709
18692SOL    HW157973   5.693  14.532  10.674
18692SOL    HW257974   5.766  14.665  10.678
18693SOL     OW57975   4.433  13.975  10.599
18693SOL    HW157976   4.427  13.960  10.694
18693SOL    HW257977   4.342  13.980  10.570
18694SOL     OW57978   5.426   4.572  14.017
18694SOL    HW157979   5.377   4.627  14.078
18694SOL    HW257980   5.409   4.483  14.046
18695SOL     OW57981  13.336   8.662  14.771
18695SOL    HW157982  13.349   8.749  14.732
18695SOL    HW257983  13.357   8.674  14.863
18696SOL     OW57984   2.303  10.916   3.542
18696SOL    HW157985   2.234  10.977   3.568
18696SOL    HW257986   2.286  10.901   3.449
18697SOL     OW57987   6.202   4.445   7.650
18697SOL    HW157988   6.176   4.438   7.559
18697SOL    HW257989   6.146   4.382   7.696
18698SOL     OW57990   3.552   4.359   2.191
18698SOL    HW157991   3.534   4.377   2.283
18698SOL    HW257992   3.466   4.346   2.151
18699SOL     OW57993  14.296   1.999  13.217
18699SOL    HW157994  14.321   2.091  13.206
18699SOL    HW257995  14.286   1.988  13.312
18700SOL     OW57996   7.569   2.227   4.645
18700SOL    HW157997   7.644   2.215   4.703
18700SOL    HW257998   7.549   2.139   4.614
18701SOL     OW57999   6.262  14.066   2.138
18701SOL    HW158000   6.251  14.024   2.224
18701SOL    HW258001   6.218  14.007   2.077
18702SOL     OW58002   4.872   5.271  12.190
18702SOL    HW158003   4.787   5.228  12.200
18702SOL    HW258004   4.917   5.218  12.124
18703SOL     OW58005   3.079   2.151   7.105
18703SOL    HW158006   3.127   2.205   7.169
18703SOL    HW258007   3.007   2.113   7.155
18704SOL     OW58008   7.885   7.924   3.437
18704SOL    HW158009   7.811   7.866   3.452
18704SOL    HW258010   7.857   7.982   3.366
18705SOL     OW58011  14.595   5.907   2.016
18705SOL    HW158012  14.514   5.955   1.999
18705SOL    HW258013  14.664   5.971   2.000
18706SOL     OW58014   0.594   7.279   0.631
18706SOL    HW158015   0.556   7.193   0.617
18706SOL    HW258016   0.625   7.278   0.722
18707SOL     OW58017   9.038   5.609  10.877
18707SOL    HW158018   9.076   5.525  10.901
18707SOL    HW258019   9.039   5.610  10.781
18708SOL     OW58020  11.044   1.897   5.397
18708SOL    HW158021  10.999   1.978   5.375
18708SOL    HW258022  10.996   1.862   5.472
18709SOL     OW58023   7.681   9.536   6.731
18709SOL    HW158024   7.645   9.487   6.658
18709SOL    HW258025   7.660   9.483   6.808
18710SOL     OW58026  13.151   9.396  11.843
18710SOL    HW158027  13.182   9.306  11.852
18710SOL    HW258028  13.087   9.407  11.914
18711SOL     OW58029  12.401  11.368   1.494
18711SOL    HW158030  12.451  11.395   1.417
18711SOL    HW258031  12.327  11.320   1.459
18712SOL     OW58032   8.211  12.983   4.140
18712SOL    HW158033   8.181  12.948   4.056
18712SOL    HW258034   8.258  12.910   4.180
18713SOL     OW58035   3.735   3.993  10.525
18713SOL    HW158036   3.771   4.080  10.537
18713SOL    HW258037   3.641   4.007  10.516
18714SOL     OW58038  14.288   4.913   8.028
18714SOL    HW158039  14.359   4.965   8.065
18714SOL    HW258040  14.304   4.915   7.934
18715SOL     OW58041  10.591   4.946   4.567
18715SOL    HW158042  10.622   4.994   4.490
18715SOL    HW258043  10.501   4.922   4.545
18716SOL     OW58044  10.795   3.774   9.124
18716SOL    HW158045  10.785   3.801   9.033
18716SOL    HW258046  10.843   3.846   9.165
18717SOL     OW58047   4.518   8.215   2.505
18717SOL    HW158048   4.564   8.296   2.525
18717SOL    HW258049   4.570   8.147   2.548
18718SOL     OW58050  14.634   2.165   4.166
18718SOL    HW158051  14.662   2.085   4.210
18718SOL    HW258052  14.570   2.204   4.225
18719SOL     OW58053   7.289   0.552   4.549
18719SOL    HW158054   7.370   0.511   4.578
18719SOL    HW258055   7.292   0.547   4.453
18720SOL     OW58056  10.814   7.970  12.008
18720SOL    HW158057  10.881   7.979  12.075
18720SOL    HW258058  10.747   8.034  12.031
18721SOL     OW58059  11.351  12.890   7.578
18721SOL    HW158060  11.440  12.856   7.570
18721SOL    HW258061  11.295  12.813   7.572
18722SOL     OW58062   2.037  10.366  13.848
18722SOL    HW158063   2.046  10.449  13.801
18722SOL    HW258064   1.988  10.388  13.927
18723SOL     OW58065   8.114   3.593  13.157
18723SOL    HW158066   8.185   3.529  13.151
18723SOL    HW258067   8.154   3.676  13.131
18724SOL     OW58068  13.152   4.192  13.001
18724SOL    HW158069  13.201   4.199  12.919
18724SOL    HW258070  13.214   4.155  13.063
18725SOL     OW58071  14.271   1.524   7.437
18725SOL    HW158072  14.244   1.504   7.526
18725SOL    HW258073  14.359   1.487   7.429
18726SOL     OW58074   8.911  14.666   8.358
18726SOL    HW158075   8.937  14.659   8.266
18726SOL    HW258076   8.867  14.750   8.364
18727SOL     OW58077   0.795  12.858  14.192
18727SOL    HW158078   0.709  12.886  14.223
18727SOL    HW258079   0.790  12.762  14.192
18728SOL     OW58080   8.855  10.567  11.654
18728SOL    HW158081   8.911  10.519  11.716
18728SOL    HW258082   8.850  10.655  11.691
18729SOL     OW58083   6.260   2.359   8.140
18729SOL    HW158084   6.246   2.420   8.067
18729SOL    HW258085   6.177   2.361   8.188
18730SOL     OW58086   8.303   4.699   0.837
18730SOL    HW158087   8.335   4.779   0.796
18730SOL    HW258088   8.233   4.669   0.779
18731SOL     OW58089   7.353   8.169   3.562
18731SOL    HW158090   7.287   8.127   3.617
18731SOL    HW258091   7.422   8.196   3.622
18732SOL     OW58092  13.794  13.854   2.705
18732SOL    HW158093  13.830  13.768   2.729
18732SOL    HW258094  13.706  13.835   2.672
18733SOL     OW58095   0.253   3.732   1.876
18733SOL    HW158096   0.188   3.791   1.913
18733SOL    HW258097   0.287   3.683   1.950
18734SOL     OW58098   7.446   3.623  10.011
18734SOL    HW158099   7.407   3.633   9.925
18734SOL    HW258100   7.372   3.614  10.071
18735SOL     OW58101   8.825   5.707   8.049
18735SOL    HW158102   8.905   5.674   8.091
18735SOL    HW258103   8.779   5.754   8.119
18736SOL     OW58104   0.455   2.389   3.357
18736SOL    HW158105   0.515   2.315   3.360
18736SOL    HW258106   0.512   2.466   3.359
18737SOL     OW58107   6.490  14.057   6.421
18737SOL    HW158108   6.404  14.078   6.457
18737SOL    HW258109   6.473  14.034   6.330
18738SOL     OW58110   6.125  11.023   8.856
18738SOL    HW158111   6.074  11.103   8.869
18738SOL    HW258112   6.079  10.977   8.786
18739SOL     OW58113  11.154  13.202  13.923
18739SOL    HW158114  11.164  13.202  14.018
18739SOL    HW258115  11.101  13.280  13.905
18740SOL     OW58116   2.063   1.913   6.699
18740SOL    HW158117   2.071   1.936   6.792
18740SOL    HW258118   2.089   1.992   6.653
18741SOL     OW58119   9.912   2.765   9.093
18741SOL    HW158120   9.922   2.832   9.026
18741SOL    HW258121   9.939   2.808   9.174
18742SOL     OW58122  13.099  11.171   6.920
18742SOL    HW158123  13.064  11.088   6.885
18742SOL    HW258124  13.025  11.209   6.967
18743SOL     OW58125   3.659   0.304   6.417
18743SOL    HW158126   3.701   0.382   6.454
18743SOL    HW258127   3.682   0.233   6.477
18744SOL     OW58128  12.593   9.023   1.086
18744SOL    HW158129  12.679   8.981   1.078
18744SOL    HW258130  12.597   9.070   1.169
18745SOL     OW58131   1.243  10.398   5.001
18745SOL    HW158132   1.206  10.378   5.087
18745SOL    HW258133   1.337  10.402   5.015
18746SOL     OW58134   2.263   3.494  12.145
18746SOL    HW158135   2.192   3.483  12.081
18746SOL    HW258136   2.334   3.440  12.110
18747SOL     OW58137   2.044  11.705   5.870
18747SOL    HW158138   2.064  11.796   5.891
18747SOL    HW258139   1.955  11.707   5.836
18748SOL     OW58140  13.414  11.255  11.342
18748SOL    HW158141  13.321  11.241  11.326
18748SOL    HW258142  13.455  11.251  11.255
18749SOL     OW58143   0.756   7.901  10.846
18749SOL    HW158144   0.846   7.930  10.834
18749SOL    HW258145   0.762   7.833  10.913
18750SOL     OW58146  14.312  11.955  14.666
18750SOL    HW158147  14.294  11.987  14.755
18750SOL    HW258148  14.370  11.881  14.678
18751SOL     OW58149   2.111   8.945   3.988
18751SOL    HW158150   2.170   9.012   4.022
18751SOL    HW258151   2.086   8.977   3.901
18752SOL     OW58152  11.394   2.980   0.790
18752SOL    HW158153  11.338   2.902   0.790
18752SOL    HW258154  11.362   3.033   0.862
18753SOL     OW58155   3.890   7.497   3.305
18753SOL    HW158156   3.811   7.535   3.268
18753SOL    HW258157   3.868   7.481   3.397
18754SOL     OW58158   8.429   6.724  10.145
18754SOL    HW158159   8.369   6.767  10.207
18754SOL    HW258160   8.439   6.787  10.074
18755SOL     OW58161   3.993   0.254   5.580
18755SOL    HW158162   3.908   0.214   5.601
18755SOL    HW258163   3.971   0.339   5.543
18756SOL     OW58164   4.134   9.852   9.917
18756SOL    HW158165   4.106   9.928   9.865
18756SOL    HW258166   4.229   9.860   9.922
18757SOL     OW58167   3.049   9.028   4.442
18757SOL    HW158168   3.118   9.026   4.375
18757SOL    HW258169   3.086   9.081   4.512
18758SOL     OW58170   0.841   4.484  11.493
18758SOL    HW158171   0.868   4.560  11.441
18758SOL    HW258172   0.913   4.421  11.482
18759SOL     OW58173  10.735   2.136   1.066
18759SOL    HW158174  10.669   2.163   1.003
18759SOL    HW258175  10.811   2.191   1.047
18760SOL     OW58176   1.950   2.035   0.953
18760SOL    HW158177   1.912   2.047   0.866
18760SOL    HW258178   2.023   1.975   0.940
18761SOL     OW58179  12.833  11.377  13.893
18761SOL    HW158180  12.788  11.294  13.877
18761SOL    HW258181  12.801  11.405  13.979
18762SOL     OW58182   7.526   5.623   5.991
18762SOL    HW158183   7.607   5.608   6.040
18762SOL    HW258184   7.482   5.694   6.038
18763SOL     OW58185   5.335   0.824   0.309
18763SOL    HW158186   5.250   0.787   0.284
18763SOL    HW258187   5.389   0.817   0.231
18764SOL     OW58188   0.256  13.241   7.802
18764SOL    HW158189   0.290  13.223   7.890
18764SOL    HW258190   0.313  13.192   7.743
18765SOL     OW58191   6.530   6.018  10.819
18765SOL    HW158192   6.488   5.940  10.784
18765SOL    HW258193   6.458   6.079  10.835
18766SOL     OW58194   4.412   3.411  13.470
18766SOL    HW158195   4.484   3.369  13.515
18766SOL    HW258196   4.453   3.457  13.396
18767SOL     OW58197   6.310   1.368   6.821
18767SOL    HW158198   6.216   1.354   6.820
18767SOL    HW258199   6.320   1.462   6.840
18768SOL     OW58200   9.713   5.323   7.614
18768SOL    HW158201   9.617   5.321   7.609
18768SOL    HW258202   9.739   5.396   7.557
18769SOL     OW58203   2.737   1.575   1.706
18769SOL    HW158204   2.657   1.577   1.758
18769SOL    HW258205   2.760   1.667   1.694
18770SOL     OW58206   7.451   6.718   0.179
18770SOL    HW158207   7.546   6.708   0.187
18770SOL    HW258208   7.434   6.722   0.085
18771SOL     OW58209   8.298  11.344   0.025
18771SOL    HW158210   8.267  11.407  14.827
18771SOL    HW258211   8.367  11.391   0.072
18772SOL     OW58212   5.339   6.936   6.432
18772SOL    HW158213   5.383   6.988   6.500
18772SOL    HW258214   5.253   6.977   6.422
18773SOL     OW58215   8.970   3.609   5.284
18773SOL    HW158216   8.994   3.696   5.253
18773SOL    HW258217   8.877   3.600   5.262
18774SOL     OW58218   0.817  13.930   6.561
18774SOL    HW158219   0.910  13.946   6.542
18774SOL    HW258220   0.813  13.837   6.582
18775SOL     OW58221   0.399   0.135   1.243
18775SOL    HW158222   0.357   0.191   1.178
18775SOL    HW258223   0.429   0.195   1.311
18776SOL     OW58224  10.191  14.282   8.419
18776SOL    HW158225  10.239  14.364   8.433
18776SOL    HW258226  10.121  14.284   8.485
18777SOL     OW58227  13.516   4.101   1.798
18777SOL    HW158228  13.449   4.033   1.803
18777SOL    HW258229  13.514   4.130   1.707
18778SOL     OW58230   4.963   5.660   5.988
18778SOL    HW158231   4.896   5.672   5.920
18778SOL    HW258232   5.028   5.603   5.947
18779SOL     OW58233   4.752  10.083   9.600
18779SOL    HW158234   4.788  10.005   9.641
18779SOL    HW258235   4.737  10.144   9.673
18780SOL     OW58236   0.855   5.895   5.639
18780SOL    HW158237   0.927   5.954   5.613
18780SOL    HW258238   0.846   5.836   5.565
18781SOL     OW58239   8.609   8.327  10.271
18781SOL    HW158240   8.677   8.270  10.234
18781SOL    HW258241   8.570   8.275  10.341
18782SOL     OW58242   0.928   3.792   8.359
18782SOL    HW158243   0.920   3.885   8.340
18782SOL    HW258244   0.956   3.752   8.276
18783SOL     OW58245   0.181  12.979   5.236
18783SOL    HW158246   0.133  12.910   5.281
18783SOL    HW258247   0.262  12.937   5.207
18784SOL     OW58248   6.678   4.290   1.492
18784SOL    HW158249   6.655   4.360   1.430
18784SOL    HW258250   6.595   4.251   1.517
18785SOL     OW58251   7.235   0.332   1.822
18785SOL    HW158252   7.167   0.359   1.884
18785SOL    HW258253   7.307   0.394   1.837
18786SOL     OW58254  12.311  13.249  14.532
18786SOL    HW158255  12.351  13.327  14.573
18786SOL    HW258256  12.347  13.248  14.443
18787SOL     OW58257   2.025   7.054  12.689
18787SOL    HW158258   1.951   7.043  12.630
18787SOL    HW258259   2.002   7.128  12.744
18788SOL     OW58260   8.825   2.505  12.456
18788SOL    HW158261   8.768   2.429  12.461
18788SOL    HW258262   8.913   2.471  12.473
18789SOL     OW58263   8.042   7.504  14.729
18789SOL    HW158264   8.048   7.474  14.820
18789SOL    HW258265   7.954   7.540  14.722
18790SOL     OW58266   7.400   2.399  10.096
18790SOL    HW158267   7.330   2.376  10.034
18790SOL    HW258268   7.380   2.489  10.122
18791SOL     OW58269   6.039   4.829   1.570
18791SOL    HW158270   6.006   4.764   1.509
18791SOL    HW258271   6.064   4.903   1.515
18792SOL     OW58272  14.641  13.390  14.212
18792SOL    HW158273  14.649  13.378  14.118
18792SOL    HW258274  14.666  13.305  14.249
18793SOL     OW58275   5.086   9.599   6.185
18793SOL    HW158276   5.159   9.629   6.130
18793SOL    HW258277   5.072   9.670   6.247
18794SOL     OW58278  12.699  14.082   4.086
18794SOL    HW158279  12.711  14.113   4.176
18794SOL    HW258280  12.639  14.146   4.047
18795SOL     OW58281   7.915   2.402   4.036
18795SOL    HW158282   7.820   2.402   4.027
18795SOL    HW258283   7.931   2.363   4.122
18796SOL     OW58284   2.821  14.766  14.196
18796SOL    HW158285   2.825  14.735  14.105
18796SOL    HW258286   2.836  14.861  14.189
18797SOL     OW58287   0.579   7.512   4.898
18797SOL    HW158288   0.642   7.441   4.881
18797SOL    HW258289   0.538   7.528   4.812
18798SOL     OW58290   9.103   8.258   7.434
18798SOL    HW158291   9.128   8.322   7.368
18798SOL    HW258292   9.161   8.183   7.419
18799SOL     OW58293  14.567   2.195  10.897
18799SOL    HW158294  14.493   2.252  10.919
18799SOL    HW258295  14.641   2.255  10.886
18800SOL     OW58296  13.611   8.981   1.417
18800SOL    HW158297  13.702   8.956   1.433
18800SOL    HW258298  13.616   9.070   1.384
18801SOL     OW58299   7.092  12.370   5.561
18801SOL    HW158300   7.121  12.312   5.490
18801SOL    HW258301   7.168  12.423   5.581
18802SOL     OW58302  10.144  13.264   5.905
18802SOL    HW158303  10.164  13.321   5.831
18802SOL    HW258304  10.056  13.291   5.933
18803SOL     OW58305  10.222   5.314   0.528
18803SOL    HW158306  10.306   5.357   0.544
18803SOL    HW258307  10.211   5.318   0.433
18804SOL     OW58308  12.690   8.323  10.044
18804SOL    HW158309  12.719   8.283  10.126
18804SOL    HW258310  12.746   8.399  10.033
18805SOL     OW58311   3.584  12.543   6.388
18805SOL    HW158312   3.670  12.507   6.408
18805SOL    HW258313   3.598  12.596   6.309
18806SOL     OW58314  14.234   6.335   4.894
18806SOL    HW158315  14.214   6.251   4.935
18806SOL    HW258316  14.192   6.400   4.950
18807SOL     OW58317   0.142   8.190  11.777
18807SOL    HW158318   0.129   8.100  11.745
18807SOL    HW258319   0.174   8.179  11.867
18808SOL     OW58320  13.327  13.477   6.185
18808SOL    HW158321  13.243  13.515   6.210
18808SOL    HW258322  13.343  13.410   6.252
18809SOL     OW58323   1.408   0.650   3.807
18809SOL    HW158324   1.461   0.576   3.838
18809SOL    HW258325   1.364   0.682   3.885
18810SOL     OW58326  11.704  13.594  11.197
18810SOL    HW158327  11.615  13.628  11.185
18810SOL    HW258328  11.691  13.500  11.212
18811SOL     OW58329  12.228  12.646   1.936
18811SOL    HW158330  12.177  12.629   1.857
18811SOL    HW258331  12.223  12.740   1.948
18812SOL     OW58332   8.008   7.356  14.512
18812SOL    HW158333   7.956   7.283  14.544
18812SOL    HW258334   8.034   7.403  14.592
18813SOL     OW58335   6.776   8.770   1.933
18813SOL    HW158336   6.860   8.752   1.890
18813SOL    HW258337   6.747   8.685   1.966
18814SOL     OW58338   6.641   9.609   3.686
18814SOL    HW158339   6.592   9.623   3.605
18814SOL    HW258340   6.608   9.676   3.746
18815SOL     OW58341   3.465   8.106  14.518
18815SOL    HW158342   3.523   8.031  14.534
18815SOL    HW258343   3.473   8.159  14.597
18816SOL     OW58344  10.220   8.928  14.800
18816SOL    HW158345  10.270   8.857  14.760
18816SOL    HW258346  10.151   8.885  14.851
18817SOL     OW58347   3.470   5.107  10.615
18817SOL    HW158348   3.461   5.118  10.520
18817SOL    HW258349   3.520   5.026  10.625
18818SOL     OW58350   6.099   1.999   0.164
18818SOL    HW158351   6.121   1.978   0.073
18818SOL    HW258352   6.046   2.079   0.158
18819SOL     OW58353  12.876  12.454   2.778
18819SOL    HW158354  12.808  12.516   2.752
18819SOL    HW258355  12.872  12.385   2.712
18820SOL     OW58356  14.429   2.256   7.593
18820SOL    HW158357  14.398   2.335   7.549
18820SOL    HW258358  14.434   2.190   7.524
18821SOL     OW58359   8.599   4.318   3.410
18821SOL    HW158360   8.545   4.265   3.469
18821SOL    HW258361   8.667   4.258   3.379
18822SOL     OW58362  13.296  11.878   4.203
18822SOL    HW158363  13.338  11.845   4.124
18822SOL    HW258364  13.208  11.840   4.201
18823SOL     OW58365   4.928   2.544  14.437
18823SOL    HW158366   4.978   2.599  14.376
18823SOL    HW258367   4.893   2.606  14.501
18824SOL     OW58368   2.952   0.278   0.047
18824SOL    HW158369   2.880   0.338   0.067
18824SOL    HW258370   3.026   0.311   0.098
18825SOL     OW58371  10.445   8.676   4.270
18825SOL    HW158372  10.387   8.603   4.289
18825SOL    HW258373  10.530   8.650   4.307
18826SOL     OW58374   9.566   0.162   4.313
18826SOL    HW158375   9.580   0.207   4.397
18826SOL    HW258376   9.472   0.148   4.309
18827SOL     OW58377  10.269   5.239  10.124
18827SOL    HW158378  10.278   5.145  10.111
18827SOL    HW258379  10.276   5.252  10.218
18828SOL     OW58380   7.321  11.867  12.540
18828SOL    HW158381   7.311  11.912  12.624
18828SOL    HW258382   7.246  11.807  12.536
18829SOL     OW58383  13.337   9.370   0.016
18829SOL    HW158384  13.306   9.323   0.094
18829SOL    HW258385  13.309   9.315  14.811
18830SOL     OW58386   7.323   5.957  11.570
18830SOL    HW158387   7.340   5.871  11.607
18830SOL    HW258388   7.279   5.939  11.486
18831SOL     OW58389   2.718   2.143   6.482
18831SOL    HW158390   2.651   2.075   6.483
18831SOL    HW258391   2.755   2.138   6.394
18832SOL     OW58392   0.752  10.700  12.589
18832SOL    HW158393   0.770  10.779  12.640
18832SOL    HW258394   0.749  10.730  12.498
18833SOL     OW58395  12.167  13.651   7.637
18833SOL    HW158396  12.095  13.617   7.691
18833SOL    HW258397  12.239  13.664   7.699
18834SOL     OW58398   3.088  13.035  13.235
18834SOL    HW158399   3.177  13.057  13.206
18834SOL    HW258400   3.032  13.061  13.162
18835SOL     OW58401   4.851   8.042   6.172
18835SOL    HW158402   4.928   8.098   6.181
18835SOL    HW258403   4.781   8.090   6.217
18836SOL     OW58404   1.676   9.490  13.950
18836SOL    HW158405   1.710   9.509  14.038
18836SOL    HW258406   1.582   9.509  13.956
18837SOL     OW58407   7.343   8.648   1.417
18837SOL    HW158408   7.380   8.639   1.505
18837SOL    HW258409   7.411   8.616   1.359
18838SOL     OW58410   3.424  10.031   6.087
18838SOL    HW158411   3.513  10.044   6.120
18838SOL    HW258412   3.433   9.966   6.017
18839SOL     OW58413   3.184  11.405   5.267
18839SOL    HW158414   3.094  11.375   5.258
18839SOL    HW258415   3.231  11.330   5.303
18840SOL     OW58416   9.671  14.690  11.185
18840SOL    HW158417   9.698  14.716  11.097
18840SOL    HW258418   9.729  14.738  11.243
18841SOL     OW58419  10.048   3.214   4.967
18841SOL    HW158420  10.107   3.259   5.026
18841SOL    HW258421   9.989   3.282   4.935
18842SOL     OW58422   5.540  12.160   2.107
18842SOL    HW158423   5.491  12.191   2.183
18842SOL    HW258424   5.631  12.157   2.138
18843SOL     OW58425   4.991  10.357  14.269
18843SOL    HW158426   4.967  10.432  14.323
18843SOL    HW258427   5.029  10.294  14.330
18844SOL     OW58428   9.153   7.040   3.601
18844SOL    HW158429   9.201   7.007   3.525
18844SOL    HW258430   9.062   7.021   3.581
18845SOL     OW58431  10.585  14.297  11.444
18845SOL    HW158432  10.567  14.390  11.446
18845SOL    HW258433  10.579  14.269  11.536
18846SOL     OW58434   1.763  14.464  11.734
18846SOL    HW158435   1.717  14.414  11.666
18846SOL    HW258436   1.747  14.556  11.711
18847SOL     OW58437   8.598   3.421   6.823
18847SOL    HW158438   8.628   3.464   6.903
18847SOL    HW258439   8.509   3.454   6.810
18848SOL     OW58440   3.352  10.992   7.287
18848SOL    HW158441   3.427  10.995   7.227
18848SOL    HW258442   3.290  11.055   7.251
18849SOL     OW58443  11.276   9.528   2.744
18849SOL    HW158444  11.322   9.488   2.670
18849SOL    HW258445  11.192   9.557   2.708
18850SOL     OW58446  11.237   7.209  12.855
18850SOL    HW158447  11.295   7.137  12.833
18850SOL    HW258448  11.197   7.184  12.938
18851SOL     OW58449   7.960   3.109   0.755
18851SOL    HW158450   7.933   3.071   0.672
18851SOL    HW258451   8.014   3.184   0.732
18852SOL     OW58452   0.839   5.161   3.921
18852SOL    HW158453   0.821   5.067   3.930
18852SOL    HW258454   0.934   5.166   3.914
18853SOL     OW58455   2.977  10.802   6.709
18853SOL    HW158456   2.991  10.856   6.787
18853SOL    HW258457   3.063  10.797   6.667
18854SOL     OW58458  10.214   7.788   5.279
18854SOL    HW158459  10.138   7.836   5.248
18854SOL    HW258460  10.211   7.799   5.374
18855SOL     OW58461  12.136  10.045  10.764
18855SOL    HW158462  12.076  10.036  10.838
18855SOL    HW258463  12.198  10.112  10.792
18856SOL     OW58464  11.777  14.446   3.147
18856SOL    HW158465  11.829  14.525   3.135
18856SOL    HW258466  11.841  14.378   3.172
18857SOL     OW58467  13.347  11.560   3.600
18857SOL    HW158468  13.429  11.510   3.592
18857SOL    HW258469  13.347  11.592   3.690
18858SOL     OW58470   4.237   1.052   8.896
18858SOL    HW158471   4.260   1.117   8.830
18858SOL    HW258472   4.162   1.005   8.860
18859SOL     OW58473  10.568   0.997   9.336
18859SOL    HW158474  10.555   1.059   9.264
18859SOL    HW258475  10.590   0.915   9.293
18860SOL     OW58476  13.605   0.097  13.004
18860SOL    HW158477  13.584   0.043  13.080
18860SOL    HW258478  13.525   0.148  12.989
18861SOL     OW58479   7.362  12.011  12.781
18861SOL    HW158480   7.404  12.030  12.865
18861SOL    HW258481   7.425  12.042  12.715
18862SOL     OW58482   6.111   5.647   7.939
18862SOL    HW158483   6.076   5.606   8.019
18862SOL    HW258484   6.074   5.735   7.939
18863SOL     OW58485   9.308   9.069  12.651
18863SOL    HW158486   9.234   9.128  12.638
18863SOL    HW258487   9.382   9.115  12.610
18864SOL     OW58488   6.518   8.583  12.129
18864SOL    HW158489   6.581   8.529  12.177
18864SOL    HW258490   6.572   8.635  12.070
18865SOL     OW58491  12.586   7.557   0.420
18865SOL    HW158492  12.639   7.498   0.366
18865SOL    HW258493  12.536   7.498   0.477
18866SOL     OW58494   4.509   6.034   0.659
18866SOL    HW158495   4.591   5.987   0.645
18866SOL    HW258496   4.447   5.965   0.685
18867SOL     OW58497   9.618   1.740  11.349
18867SOL    HW158498   9.615   1.675  11.420
18867SOL    HW258499   9.614   1.825  11.395
18868SOL     OW58500  12.106   8.550   9.963
18868SOL    HW158501  12.128   8.633  10.005
18868SOL    HW258502  12.095   8.488  10.035
18869SOL     OW58503   6.572  13.864   5.918
18869SOL    HW158504   6.666  13.880   5.928
18869SOL    HW258505   6.565  13.770   5.904
18870SOL     OW58506   7.486  12.877  13.653
18870SOL    HW158507   7.537  12.802  13.623
18870SOL    HW258508   7.444  12.911  13.574
18871SOL     OW58509   4.063  14.491  11.708
18871SOL    HW158510   4.050  14.396  11.704
18871SOL    HW258511   3.997  14.527  11.648
18872SOL     OW58512   7.467  12.600   9.835
18872SOL    HW158513   7.494  12.544   9.763
18872SOL    HW258514   7.407  12.663   9.796
18873SOL     OW58515   1.283   3.483  14.339
18873SOL    HW158516   1.285   3.411  14.275
18873SOL    HW258517   1.282   3.439  14.424
18874SOL     OW58518  14.331  13.201  11.818
18874SOL    HW158519  14.351  13.114  11.852
18874SOL    HW258520  14.405  13.222  11.761
18875SOL     OW58521   9.857   6.960  13.323
18875SOL    HW158522   9.934   6.922  13.363
18875SOL    HW258523   9.821   7.019  13.390
18876SOL     OW58524  13.355   4.114   9.201
18876SOL    HW158525  13.296   4.111   9.276
18876SOL    HW258526  13.433   4.065   9.229
18877SOL     OW58527  10.656  12.667   0.007
18877SOL    HW158528  10.599  12.592   0.025
18877SOL    HW258529  10.601  12.728  14.827
18878SOL     OW58530   7.231   5.332   0.258
18878SOL    HW158531   7.168   5.296   0.319
18878SOL    HW258532   7.222   5.278   0.179
18879SOL     OW58533   2.796   8.395  12.301
18879SOL    HW158534   2.722   8.339  12.278
18879SOL    HW258535   2.848   8.342  12.361
18880SOL     OW58536   5.587   8.492  14.076
18880SOL    HW158537   5.616   8.535  13.995
18880SOL    HW258538   5.495   8.473  14.061
18881SOL     OW58539   4.616  11.917   1.948
18881SOL    HW158540   4.589  11.977   2.017
18881SOL    HW258541   4.658  11.844   1.994
18882SOL     OW58542   0.776   7.145  13.630
18882SOL    HW158543   0.784   7.229  13.675
18882SOL    HW258544   0.731   7.088  13.693
18883SOL     OW58545  12.921  11.885   7.440
18883SOL    HW158546  13.011  11.914   7.425
18883SOL    HW258547  12.870  11.924   7.369
18884SOL     OW58548   8.275   0.700  12.287
18884SOL    HW158549   8.327   0.771  12.324
18884SOL    HW258550   8.249   0.647  12.363
18885SOL     OW58551   1.386   9.369   0.233
18885SOL    HW158552   1.455   9.341   0.292
18885SOL    HW258553   1.305   9.353   0.282
18886SOL     OW58554  14.432  10.690  14.589
18886SOL    HW158555  14.352  10.732  14.558
18886SOL    HW258556  14.477  10.757  14.641
18887SOL     OW58557   5.823  14.840   9.945
18887SOL    HW158558   5.774  14.814  10.022
18887SOL    HW258559   5.841   0.065   9.957
18888SOL     OW58560   8.538   0.087   7.211
18888SOL    HW158561   8.449   0.121   7.200
18888SOL    HW258562   8.556   0.039   7.130
18889SOL     OW58563  10.881  10.304   7.013
18889SOL    HW158564  10.917  10.365   7.077
18889SOL    HW258565  10.947  10.299   6.944
18890SOL     OW58566   2.816   8.592   3.359
18890SOL    HW158567   2.724   8.565   3.357
18890SOL    HW258568   2.814   8.684   3.335
18891SOL     OW58569   5.046  10.702   9.915
18891SOL    HW158570   5.113  10.758   9.955
18891SOL    HW258571   4.963  10.745   9.938
18892SOL     OW58572  13.042   2.306   9.899
18892SOL    HW158573  13.118   2.322   9.844
18892SOL    HW258574  12.972   2.357   9.858
18893SOL     OW58575   8.385   8.178  12.739
18893SOL    HW158576   8.291   8.187  12.724
18893SOL    HW258577   8.395   8.087  12.769
18894SOL     OW58578   9.025   5.841  13.687
18894SOL    HW158579   9.013   5.816  13.778
18894SOL    HW258580   9.120   5.842  13.674
18895SOL     OW58581   9.903   0.937   0.366
18895SOL    HW158582   9.951   0.958   0.447
18895SOL    HW258583   9.820   0.985   0.375
18896SOL     OW58584  12.587   8.305   2.080
18896SOL    HW158585  12.540   8.388   2.091
18896SOL    HW258586  12.620   8.284   2.167
18897SOL     OW58587   7.885  11.983   4.940
18897SOL    HW158588   7.953  11.931   4.984
18897SOL    HW258589   7.930  12.063   4.913
18898SOL     OW58590   6.348   0.657   8.051
18898SOL    HW158591   6.357   0.610   7.968
18898SOL    HW258592   6.395   0.739   8.037
18899SOL     OW58593   8.584  11.917   8.143
18899SOL    HW158594   8.614  11.975   8.073
18899SOL    HW258595   8.506  11.959   8.178
18900SOL     OW58596   9.669   9.758  13.793
18900SOL    HW158597   9.612   9.682  13.785
18900SOL    HW258598   9.609   9.832  13.805
18901SOL     OW58599   5.975   5.780  12.164
18901SOL    HW158600   6.012   5.722  12.098
18901SOL    HW258601   6.051   5.815  12.210
18902SOL     OW58602  11.892  11.250   2.191
18902SOL    HW158603  11.984  11.269   2.212
18902SOL    HW258604  11.887  11.154   2.191
18903SOL     OW58605   2.318   0.450  11.173
18903SOL    HW158606   2.368   0.527  11.200
18903SOL    HW258607   2.232   0.461  11.213
18904SOL     OW58608  13.137   6.160  13.750
18904SOL    HW158609  13.100   6.176  13.837
18904SOL    HW258610  13.206   6.226  13.741
18905SOL     OW58611  10.365   1.929   6.562
18905SOL    HW158612  10.420   1.994   6.606
18905SOL    HW258613  10.280   1.973   6.553
18906SOL     OW58614  13.484   9.289   5.767
18906SOL    HW158615  13.406   9.338   5.741
18906SOL    HW258616  13.554   9.354   5.767
18907SOL     OW58617  14.732   6.093   9.585
18907SOL    HW158618  14.782   6.032   9.640
18907SOL    HW258619  14.641   6.078   9.609
18908SOL     OW58620  11.861   5.795   5.697
18908SOL    HW158621  11.924   5.858   5.663
18908SOL    HW258622  11.777   5.822   5.660
18909SOL     OW58623   3.080   9.514   3.593
18909SOL    HW158624   3.135   9.572   3.540
18909SOL    HW258625   3.114   9.524   3.682
18910SOL     OW58626  12.638  10.298  12.685
18910SOL    HW158627  12.720  10.268  12.645
18910SOL    HW258628  12.589  10.217  12.703
18911SOL     OW58629   9.373   2.840   2.095
18911SOL    HW158630   9.293   2.808   2.136
18911SOL    HW258631   9.345   2.879   2.012
18912SOL     OW58632  13.771  11.964   3.517
18912SOL    HW158633  13.708  11.966   3.445
18912SOL    HW258634  13.727  12.010   3.589
18913SOL     OW58635   6.098  12.762  12.340
18913SOL    HW158636   6.083  12.745  12.433
18913SOL    HW258637   6.193  12.756  12.330
18914SOL     OW58638   3.702   8.290   1.653
18914SOL    HW158639   3.690   8.357   1.586
18914SOL    HW258640   3.695   8.338   1.736
18915SOL     OW58641   7.148   1.286   1.642
18915SOL    HW158642   7.140   1.249   1.730
18915SOL    HW258643   7.153   1.381   1.656
18916SOL     OW58644   6.323  11.542  11.752
18916SOL    HW158645   6.378  11.535  11.830
18916SOL    HW258646   6.249  11.483  11.769
18917SOL     OW58647   4.497  12.872   3.260
18917SOL    HW158648   4.584  12.874   3.220
18917SOL    HW258649   4.437  12.868   3.186
18918SOL     OW58650   7.290  13.233  12.579
18918SOL    HW158651   7.199  13.237  12.609
18918SOL    HW258652   7.336  13.297  12.633
18919SOL     OW58653  13.519  11.012   0.907
18919SOL    HW158654  13.453  10.945   0.892
18919SOL    HW258655  13.585  10.997   0.839
18920SOL     OW58656  12.484   9.673  14.518
18920SOL    HW158657  12.468   9.760  14.481
18920SOL    HW258658  12.579   9.662  14.512
18921SOL     OW58659   2.328  12.540   7.905
18921SOL    HW158660   2.261  12.502   7.962
18921SOL    HW258661   2.343  12.472   7.839
18922SOL     OW58662  11.908   9.538  14.812
18922SOL    HW158663  11.872   9.563   0.029
18922SOL    HW258664  11.850   9.579  14.748
18923SOL     OW58665   4.932  14.320   6.910
18923SOL    HW158666   4.919  14.332   6.816
18923SOL    HW258667   4.857  14.267   6.938
18924SOL     OW58668   3.506  12.502   5.887
18924SOL    HW158669   3.467  12.415   5.891
18924SOL    HW258670   3.438  12.556   5.844
18925SOL     OW58671  13.676   6.049  13.298
18925SOL    HW158672  13.677   6.137  13.334
18925SOL    HW258673  13.605   6.050  13.234
18926SOL     OW58674   0.652   6.820   2.142
18926SOL    HW158675   0.721   6.754   2.146
18926SOL    HW258676   0.680   6.887   2.205
18927SOL     OW58677   3.645   2.095   1.267
18927SOL    HW158678   3.596   2.019   1.299
18927SOL    HW258679   3.610   2.169   1.317
18928SOL     OW58680   8.141   4.474  14.479
18928SOL    HW158681   8.093   4.455  14.560
18928SOL    HW258682   8.226   4.507  14.508
18929SOL     OW58683  10.171   0.773   4.137
18929SOL    HW158684  10.264   0.774   4.113
18929SOL    HW258685  10.144   0.865   4.127
18930SOL     OW58686  10.070   8.140   3.649
18930SOL    HW158687  10.028   8.188   3.578
18930SOL    HW258688  10.137   8.087   3.605
18931SOL     OW58689   9.750   9.556   8.249
18931SOL    HW158690   9.832   9.549   8.201
18931SOL    HW258691   9.700   9.623   8.203
18932SOL     OW58692   4.833   4.358   4.723
18932SOL    HW158693   4.891   4.431   4.747
18932SOL    HW258694   4.854   4.340   4.631
18933SOL     OW58695   1.711  10.580  10.839
18933SOL    HW158696   1.783  10.518  10.853
18933SOL    HW258697   1.745  10.664  10.871
18934SOL     OW58698   4.691   7.229   1.017
18934SOL    HW158699   4.615   7.181   0.984
18934SOL    HW258700   4.748   7.161   1.052
18935SOL     OW58701   9.635   0.273   5.907
18935SOL    HW158702   9.688   0.266   5.986
18935SOL    HW258703   9.550   0.307   5.937
18936SOL     OW58704  10.108   7.448   3.882
18936SOL    HW158705  10.051   7.525   3.886
18936SOL    HW258706  10.053   7.380   3.844
18937SOL     OW58707   9.030   0.643  11.808
18937SOL    HW158708   8.964   0.674  11.746
18937SOL    HW258709   9.104   0.703  11.795
18938SOL     OW58710   4.685   9.864  10.507
18938SOL    HW158711   4.641   9.779  10.513
18938SOL    HW258712   4.768   9.845  10.463
18939SOL     OW58713   0.632   3.539   4.375
18939SOL    HW158714   0.719   3.546   4.415
18939SOL    HW258715   0.626   3.615   4.318
18940SOL     OW58716  14.781   8.774   7.342
18940SOL    HW158717  14.711   8.729   7.294
18940SOL    HW258718  14.809   8.844   7.283
18941SOL     OW58719   0.278   6.490   6.646
18941SOL    HW158720   0.343   6.481   6.577
18941SOL    HW258721   0.318   6.549   6.710
18942SOL     OW58722  12.126  11.904  12.868
18942SOL    HW158723  12.152  11.815  12.844
18942SOL    HW258724  12.042  11.918  12.824
18943SOL     OW58725   1.664   3.925   6.379
18943SOL    HW158726   1.599   3.929   6.449
18943SOL    HW258727   1.682   3.832   6.368
18944SOL     OW58728   1.664   4.351   0.104
18944SOL    HW158729   1.665   4.430   0.051
18944SOL    HW258730   1.583   4.307   0.079
18945SOL     OW58731   7.585   4.480   0.848
18945SOL    HW158732   7.642   4.446   0.778
18945SOL    HW258733   7.637   4.470   0.928
18946SOL     OW58734   4.568   3.768   9.581
18946SOL    HW158735   4.495   3.713   9.554
18946SOL    HW258736   4.530   3.828   9.646
18947SOL     OW58737   4.292   0.312  12.074
18947SOL    HW158738   4.381   0.289  12.101
18947SOL    HW258739   4.303   0.364  11.995
18948SOL     OW58740   9.315  11.115   7.880
18948SOL    HW158741   9.268  11.161   7.810
18948SOL    HW258742   9.379  11.179   7.912
18949SOL     OW58743  11.695   9.912  13.676
18949SOL    HW158744  11.682   9.824  13.711
18949SOL    HW258745  11.772   9.904  13.620
18950SOL     OW58746   0.709  11.331  12.810
18950SOL    HW158747   0.705  11.237  12.793
18950SOL    HW258748   0.763  11.366  12.740
18951SOL     OW58749   1.108   2.627  12.036
18951SOL    HW158750   1.077   2.603  12.123
18951SOL    HW258751   1.174   2.561  12.015
18952SOL     OW58752   1.139   4.082   2.043
18952SOL    HW158753   1.077   4.012   2.062
18952SOL    HW258754   1.211   4.038   1.997
18953SOL     OW58755   1.163   1.670   2.139
18953SOL    HW158756   1.174   1.595   2.081
18953SOL    HW258757   1.071   1.667   2.165
18954SOL     OW58758  14.841   0.306   6.068
18954SOL    HW158759   0.043   0.348   6.018
18954SOL    HW258760  14.838   0.355   6.150
18955SOL     OW58761   7.288  13.545   4.442
18955SOL    HW158762   7.265  13.597   4.519
18955SOL    HW258763   7.258  13.456   4.463
18956SOL     OW58764   4.578  13.089  14.737
18956SOL    HW158765   4.571  13.065  14.829
18956SOL    HW258766   4.624  13.173  14.738
18957SOL     OW58767   1.580  10.301   4.677
18957SOL    HW158768   1.630  10.358   4.735
18957SOL    HW258769   1.640  10.229   4.658
18958SOL     OW58770  11.793  13.650   5.089
18958SOL    HW158771  11.774  13.609   5.005
18958SOL    HW258772  11.762  13.740   5.080
18959SOL     OW58773   1.342   1.903  10.718
18959SOL    HW158774   1.284   1.902  10.795
18959SOL    HW258775   1.361   1.811  10.702
18960SOL     OW58776   7.447   9.154   6.533
18960SOL    HW158777   7.456   9.058   6.534
18960SOL    HW258778   7.401   9.174   6.614
18961SOL     OW58779   9.297   7.375   7.553
18961SOL    HW158780   9.359   7.312   7.591
18961SOL    HW258781   9.240   7.399   7.626
18962SOL     OW58782   5.366   1.047   3.932
18962SOL    HW158783   5.302   0.992   3.887
18962SOL    HW258784   5.448   1.032   3.886
18963SOL     OW58785  10.885   3.738   0.282
18963SOL    HW158786  10.943   3.723   0.208
18963SOL    HW258787  10.924   3.812   0.329
18964SOL     OW58788  14.721   0.924  11.312
18964SOL    HW158789  14.806   0.882  11.297
18964SOL    HW258790  14.738   1.017  11.298
18965SOL     OW58791   4.603   8.587  10.375
18965SOL    HW158792   4.555   8.522  10.426
18965SOL    HW258793   4.559   8.586  10.289
18966SOL     OW58794   2.058   3.825   8.975
18966SOL    HW158795   2.087   3.914   8.953
18966SOL    HW258796   2.138   3.773   8.977
18967SOL     OW58797   8.029  12.197  10.283
18967SOL    HW158798   8.028  12.249  10.363
18967SOL    HW258799   7.936  12.189  10.259
18968SOL     OW58800   6.019   0.882   3.279
18968SOL    HW158801   5.956   0.810   3.286
18968SOL    HW258802   6.101   0.844   3.311
18969SOL     OW58803   0.234   8.544   6.048
18969SOL    HW158804   0.271   8.583   6.127
18969SOL    HW258805   0.257   8.604   5.978
18970SOL     OW58806  13.423  10.597   1.086
18970SOL    HW158807  13.504  10.556   1.115
18970SOL    HW258808  13.360  10.525   1.079
18971SOL     OW58809  10.910  13.178   8.183
18971SOL    HW158810  10.950  13.128   8.254
18971SOL    HW258811  10.977  13.243   8.160
18972SOL     OW58812   7.255   5.394   8.337
18972SOL    HW158813   7.254   5.489   8.326
18972SOL    HW258814   7.346   5.368   8.319
18973SOL     OW58815  14.845   3.076   0.109
18973SOL    HW158816  14.782   3.074   0.037
18973SOL    HW258817  14.798   3.036   0.183
18974SOL     OW58818   3.643   9.560   0.067
18974SOL    HW158819   3.715   9.517   0.113
18974SOL    HW258820   3.661   9.653   0.076
18975SOL     OW58821   6.719  11.403   1.077
18975SOL    HW158822   6.666  11.378   1.001
18975SOL    HW258823   6.660  11.455   1.131
18976SOL     OW58824   8.834   3.452   6.673
18976SOL    HW158825   8.895   3.430   6.744
18976SOL    HW258826   8.747   3.445   6.712
18977SOL     OW58827   9.478  12.696   0.295
18977SOL    HW158828   9.411  12.671   0.232
18977SOL    HW258829   9.560  12.688   0.247
18978SOL     OW58830   8.868   9.888   9.629
18978SOL    HW158831   8.804   9.889   9.700
18978SOL    HW258832   8.821   9.926   9.555
18979SOL     OW58833  10.513  13.780   9.585
18979SOL    HW158834  10.575  13.851   9.601
18979SOL    HW258835  10.566  13.712   9.543
18980SOL     OW58836   4.438  10.894  11.936
18980SOL    HW158837   4.516  10.940  11.904
18980SOL    HW258838   4.448  10.893  12.031
18981SOL     OW58839   1.501   2.966   0.048
18981SOL    HW158840   1.589   3.002   0.037
18981SOL    HW258841   1.512   2.872   0.032
18982SOL     OW58842   1.833   5.930   0.314
18982SOL    HW158843   1.882   5.882   0.247
18982SOL    HW258844   1.759   5.874   0.336
18983SOL     OW58845  11.544   9.631   5.408
18983SOL    HW158846  11.486   9.558   5.388
18983SOL    HW258847  11.489   9.709   5.404
18984SOL     OW58848   2.445   4.236  12.378
18984SOL    HW158849   2.369   4.257  12.324
18984SOL    HW258850   2.512   4.208  12.315
18985SOL     OW58851  14.102   0.862  11.621
18985SOL    HW158852  14.026   0.859  11.680
18985SOL    HW258853  14.106   0.953  11.592
18986SOL     OW58854   0.970   6.294  13.414
18986SOL    HW158855   0.929   6.210  13.390
18986SOL    HW258856   1.001   6.330  13.331
18987SOL     OW58857   8.241  10.282   4.428
18987SOL    HW158858   8.220  10.346   4.359
18987SOL    HW258859   8.156  10.256   4.463
18988SOL     OW58860  10.079  12.106   0.802
18988SOL    HW158861  10.011  12.078   0.864
18988SOL    HW258862  10.062  12.200   0.789
18989SOL     OW58863   2.785  10.486   7.599
18989SOL    HW158864   2.744  10.445   7.675
18989SOL    HW258865   2.815  10.413   7.545
18990SOL     OW58866   1.330   4.353   2.140
18990SOL    HW158867   1.353   4.409   2.214
18990SOL    HW258868   1.236   4.367   2.127
18991SOL     OW58869   1.120   2.191  13.964
18991SOL    HW158870   1.169   2.265  13.928
18991SOL    HW258871   1.171   2.114  13.939
18992SOL     OW58872   8.198   1.671   0.783
18992SOL    HW158873   8.235   1.656   0.696
18992SOL    HW258874   8.125   1.608   0.789
18993SOL     OW58875  13.146   7.949   7.449
18993SOL    HW158876  13.050   7.946   7.445
18993SOL    HW258877  13.173   7.857   7.452
18994SOL     OW58878  11.277  12.722  10.311
18994SOL    HW158879  11.206  12.778  10.281
18994SOL    HW258880  11.234  12.651  10.358
18995SOL     OW58881  12.666  10.422   3.090
18995SOL    HW158882  12.678  10.487   3.020
18995SOL    HW258883  12.605  10.462   3.151
18996SOL     OW58884  10.269   0.353   2.682
18996SOL    HW158885  10.333   0.302   2.632
18996SOL    HW258886  10.320   0.425   2.720
18997SOL     OW58887   1.927   8.867   7.156
18997SOL    HW158888   1.905   8.947   7.203
18997SOL    HW258889   1.983   8.896   7.084
18998SOL     OW58890   3.813   8.850  11.856
18998SOL    HW158891   3.731   8.820  11.895
18998SOL    HW258892   3.823   8.939  11.889
18999SOL     OW58893   4.469  14.842   6.791
18999SOL    HW158894   4.424  14.853   6.875
18999SOL    HW258895   4.553   0.019   6.804
19000SOL     OW58896   3.433   3.766   6.399
19000SOL    HW158897   3.400   3.853   6.376
19000SOL    HW258898   3.427   3.763   6.495
19001SOL     OW58899   7.384   3.452   8.651
19001SOL    HW158900   7.434   3.529   8.678
19001SOL    HW258901   7.425   3.423   8.569
19002SOL     OW58902  12.887   2.659   7.494
19002SOL    HW158903  12.909   2.626   7.581
19002SOL    HW258904  12.846   2.584   7.450
19003SOL     OW58905  13.736   3.638  14.860
19003SOL    HW158906  13.690   3.707  14.814
19003SOL    HW258907  13.829   3.656  14.845
19004SOL     OW58908   3.044  10.985  12.564
19004SOL    HW158909   3.124  11.008  12.517
19004SOL    HW258910   3.051  11.032  12.647
19005SOL     OW58911   2.034  12.418  14.830
19005SOL    HW158912   1.958  12.426   0.019
19005SOL    HW258913   2.015  12.476  14.756
19006SOL     OW58914  13.822  11.930  12.702
19006SOL    HW158915  13.910  11.967  12.706
19006SOL    HW258916  13.771  11.984  12.762
19007SOL     OW58917   7.710   7.885   2.411
19007SOL    HW158918   7.705   7.977   2.435
19007SOL    HW258919   7.633   7.845   2.452
19008SOL     OW58920  10.021   1.873   7.825
19008SOL    HW158921  10.088   1.921   7.777
19008SOL    HW258922  10.022   1.911   7.913
19009SOL     OW58923   4.347   5.826  11.533
19009SOL    HW158924   4.346   5.858  11.623
19009SOL    HW258925   4.265   5.857  11.495
19010SOL     OW58926  11.658   5.388   9.273
19010SOL    HW158927  11.715   5.364   9.200
19010SOL    HW258928  11.578   5.339   9.259
19011SOL     OW58929   5.920   5.493   5.827
19011SOL    HW158930   5.868   5.418   5.798
19011SOL    HW258931   5.855   5.562   5.842
19012SOL     OW58932   5.223   9.771   0.934
19012SOL    HW158933   5.266   9.848   0.896
19012SOL    HW258934   5.285   9.740   1.000
19013SOL     OW58935   1.005   4.046   3.640
19013SOL    HW158936   1.094   4.036   3.674
19013SOL    HW258937   0.970   4.121   3.688
19014SOL     OW58938  12.453   5.374  10.667
19014SOL    HW158939  12.405   5.451  10.636
19014SOL    HW258940  12.421   5.302  10.612
19015SOL     OW58941  14.236   8.666   4.526
19015SOL    HW158942  14.199   8.589   4.570
19015SOL    HW258943  14.317   8.684   4.573
19016SOL     OW58944  10.606  12.938   0.544
19016SOL    HW158945  10.608  13.022   0.499
19016SOL    HW258946  10.653  12.953   0.626
19017SOL     OW58947  10.810   8.208   3.313
19017SOL    HW158948  10.722   8.246   3.311
19017SOL    HW258949  10.855   8.255   3.383
19018SOL     OW58950   2.743  12.060   2.287
19018SOL    HW158951   2.667  12.062   2.230
19018SOL    HW258952   2.817  12.040   2.229
19019SOL     OW58953  10.648   0.019   7.105
19019SOL    HW158954  10.567   0.010   7.055
19019SOL    HW258955  10.701  14.812   7.079
19020SOL     OW58956   6.881   1.953  13.065
19020SOL    HW158957   6.827   2.031  13.075
19020SOL    HW258958   6.861   1.921  12.977
19021SOL     OW58959  14.716   4.165   4.947
19021SOL    HW158960  14.689   4.081   4.909
19021SOL    HW258961  14.639   4.221   4.939
19022SOL     OW58962   7.190   0.937   3.548
19022SOL    HW158963   7.249   1.008   3.572
19022SOL    HW258964   7.245   0.874   3.503
19023SOL     OW58965   4.199   2.122  13.570
19023SOL    HW158966   4.142   2.193  13.599
19023SOL    HW258967   4.285   2.142  13.608
19024SOL     OW58968   7.202  14.241  13.227
19024SOL    HW158969   7.177  14.151  13.247
19024SOL    HW258970   7.285  14.234  13.180
19025SOL     OW58971  13.718   4.675  13.736
19025SOL    HW158972  13.695   4.597  13.686
19025SOL    HW258973  13.794   4.711  13.690
19026SOL     OW58974   6.005   5.124  11.828
19026SOL    HW158975   6.004   5.030  11.845
19026SOL    HW258976   5.914   5.146  11.810
19027SOL     OW58977   2.994   7.168   3.736
19027SOL    HW158978   3.015   7.155   3.644
19027SOL    HW258979   3.078   7.192   3.776
19028SOL     OW58980   2.832  10.586  12.052
19028SOL    HW158981   2.742  10.598  12.082
19028SOL    HW258982   2.860  10.504  12.092
19029SOL     OW58983  13.186   1.345   3.256
19029SOL    HW158984  13.190   1.408   3.328
19029SOL    HW258985  13.266   1.294   3.262
19030SOL     OW58986   7.768  14.091  12.671
19030SOL    HW158987   7.792  14.156  12.605
19030SOL    HW258988   7.740  14.015  12.621
19031SOL     OW58989  14.005   1.617   7.625
19031SOL    HW158990  13.977   1.526   7.637
19031SOL    HW258991  14.049   1.639   7.707
19032SOL     OW58992   2.579  10.422  11.153
19032SOL    HW158993   2.572  10.517  11.162
19032SOL    HW258994   2.495  10.388  11.183
19033SOL     OW58995   3.197   9.212   7.520
19033SOL    HW158996   3.186   9.121   7.548
19033SOL    HW258997   3.145   9.218   7.439
19034SOL     OW58998   5.163  11.386  11.315
19034SOL    HW158999   5.142  11.314  11.256
19034SOL    HW259000   5.109  11.459  11.285
19035SOL     OW59001  12.788  13.390   4.248
19035SOL    HW159002  12.712  13.336   4.268
19035SOL    HW259003  12.752  13.477   4.231
19036SOL     OW59004   3.092  10.946   8.805
19036SOL    HW159005   3.159  10.923   8.870
19036SOL    HW259006   3.014  10.898   8.833
19037SOL     OW59007   9.340  13.412   5.604
19037SOL    HW159008   9.278  13.365   5.548
19037SOL    HW259009   9.314  13.504   5.597
19038SOL     OW59010   2.921  14.566  11.840
19038SOL    HW159011   2.977  14.515  11.899
19038SOL    HW259012   2.973  14.574  11.760
19039SOL     OW59013  11.722  12.049   5.613
19039SOL    HW159014  11.670  12.012   5.541
19039SOL    HW259015  11.750  11.973   5.664
19040SOL     OW59016   1.530   4.801   3.201
19040SOL    HW159017   1.597   4.848   3.151
19040SOL    HW259018   1.508   4.725   3.146
19041SOL     OW59019   8.836  10.598   3.859
19041SOL    HW159020   8.878  10.612   3.774
19041SOL    HW259021   8.876  10.517   3.892
19042SOL     OW59022  12.158   1.133   2.448
19042SOL    HW159023  12.155   1.129   2.543
19042SOL    HW259024  12.067   1.133   2.421
19043SOL     OW59025   3.078  14.326   6.206
19043SOL    HW159026   3.122  14.276   6.138
19043SOL    HW259027   2.984  14.311   6.191
19044SOL     OW59028  10.016   4.784   0.222
19044SOL    HW159029   9.988   4.721   0.155
19044SOL    HW259030  10.063   4.851   0.173
19045SOL     OW59031   6.565   8.575   4.863
19045SOL    HW159032   6.639   8.573   4.924
19045SOL    HW259033   6.510   8.502   4.890
19046SOL     OW59034  12.774   8.222   4.236
19046SOL    HW159035  12.869   8.223   4.252
19046SOL    HW259036  12.741   8.153   4.293
19047SOL     OW59037   1.386   6.189   0.498
19047SOL    HW159038   1.366   6.246   0.424
19047SOL    HW259039   1.304   6.183   0.547
19048SOL     OW59040  11.897   9.407   8.689
19048SOL    HW159041  11.908   9.380   8.598
19048SOL    HW259042  11.978   9.452   8.711
19049SOL     OW59043   5.401   0.237   1.269
19049SOL    HW159044   5.455   0.308   1.236
19049SOL    HW259045   5.312   0.272   1.267
19050SOL     OW59046  10.943   4.555   5.717
19050SOL    HW159047  10.850   4.567   5.699
19050SOL    HW259048  10.963   4.467   5.684
19051SOL     OW59049  11.612   7.804   1.111
19051SOL    HW159050  11.668   7.875   1.078
19051SOL    HW259051  11.669   7.728   1.114
19052SOL     OW59052   3.678   6.667   7.988
19052SOL    HW159053   3.688   6.674   7.893
19052SOL    HW259054   3.583   6.669   8.002
19053SOL     OW59055   9.035  12.316   8.721
19053SOL    HW159056   9.003  12.270   8.798
19053SOL    HW259057   9.042  12.407   8.748
19054SOL     OW59058   4.159   2.229   2.984
19054SOL    HW159059   4.140   2.321   2.963
19054SOL    HW259060   4.166   2.228   3.079
19055SOL     OW59061   1.051   8.462  13.830
19055SOL    HW159062   1.032   8.396  13.763
19055SOL    HW259063   1.108   8.525  13.785
19056SOL     OW59064   8.613   9.775  13.473
19056SOL    HW159065   8.666   9.844  13.432
19056SOL    HW259066   8.627   9.698  13.419
19057SOL     OW59067  11.846  13.159   8.425
19057SOL    HW159068  11.787  13.134   8.496
19057SOL    HW259069  11.846  13.254   8.426
19058SOL     OW59070  10.104  10.720   7.842
19058SOL    HW159071  10.100  10.672   7.760
19058SOL    HW259072  10.053  10.667   7.904
19059SOL     OW59073  11.798  13.600  13.862
19059SOL    HW159074  11.846  13.520  13.887
19059SOL    HW259075  11.800  13.654  13.941
19060SOL     OW59076   8.199   4.895  12.468
19060SOL    HW159077   8.274   4.953  12.459
19060SOL    HW259078   8.148   4.909  12.387
19061SOL     OW59079   6.994   3.480   1.288
19061SOL    HW159080   7.061   3.485   1.220
19061SOL    HW259081   6.964   3.389   1.286
19062SOL     OW59082  14.262   4.988   2.447
19062SOL    HW159083  14.249   5.052   2.517
19062SOL    HW259084  14.201   4.917   2.468
19063SOL     OW59085  11.834   3.864   5.727
19063SOL    HW159086  11.741   3.886   5.733
19063SOL    HW259087  11.844   3.828   5.638
19064SOL     OW59088   5.833   6.903   6.603
19064SOL    HW159089   5.826   6.958   6.524
19064SOL    HW259090   5.912   6.852   6.589
19065SOL     OW59091   6.112  11.281  10.789
19065SOL    HW159092   6.065  11.364  10.793
19065SOL    HW259093   6.147  11.277  10.700
19066SOL     OW59094   9.421  13.087   2.303
19066SOL    HW159095   9.365  13.158   2.271
19066SOL    HW259096   9.510  13.117   2.288
19067SOL     OW59097   6.568   2.511   2.597
19067SOL    HW159098   6.565   2.505   2.693
19067SOL    HW259099   6.618   2.434   2.571
19068SOL     OW59100   0.427   5.442   2.625
19068SOL    HW159101   0.361   5.433   2.694
19068SOL    HW259102   0.455   5.533   2.629
19069SOL     OW59103   5.616  11.355  12.477
19069SOL    HW159104   5.665  11.394  12.550
19069SOL    HW259105   5.648  11.402  12.400
19070SOL     OW59106   6.626   0.880   3.767
19070SOL    HW159107   6.678   0.953   3.734
19070SOL    HW259108   6.691   0.812   3.786
19071SOL     OW59109   6.785   1.056  10.485
19071SOL    HW159110   6.840   1.113  10.539
19071SOL    HW259111   6.839   0.979  10.468
19072SOL     OW59112   5.073   6.915   1.169
19072SOL    HW159113   5.105   6.970   1.241
19072SOL    HW259114   5.051   6.832   1.211
19073SOL     OW59115   6.085   7.130   9.785
19073SOL    HW159116   6.085   7.088   9.698
19073SOL    HW259117   6.048   7.064   9.843
19074SOL     OW59118  14.279   2.557   8.322
19074SOL    HW159119  14.237   2.560   8.236
19074SOL    HW259120  14.215   2.514   8.379
19075SOL     OW59121   3.668  14.520   0.993
19075SOL    HW159122   3.680  14.438   0.946
19075SOL    HW259123   3.728  14.516   1.067
19076SOL     OW59124  12.733   0.358   9.182
19076SOL    HW159125  12.649   0.400   9.167
19076SOL    HW259126  12.796   0.414   9.137
19077SOL     OW59127   1.120   2.374  10.782
19077SOL    HW159128   1.051   2.389  10.847
19077SOL    HW259129   1.158   2.460  10.768
19078SOL     OW59130   9.676  14.609   7.975
19078SOL    HW159131   9.770  14.620   7.983
19078SOL    HW259132   9.661  14.515   7.988
19079SOL     OW59133   6.122   6.468   9.605
19079SOL    HW159134   6.066   6.521   9.548
19079SOL    HW259135   6.209   6.476   9.567
19080SOL     OW59136   1.794   5.108   0.700
19080SOL    HW159137   1.792   5.013   0.702
19080SOL    HW259138   1.772   5.130   0.609
19081SOL     OW59139   3.042  10.493  13.564
19081SOL    HW159140   3.074  10.488  13.474
19081SOL    HW259141   2.973  10.561  13.560
19082SOL     OW59142   0.900  11.587   6.356
19082SOL    HW159143   0.992  11.609   6.374
19082SOL    HW259144   0.852  11.628   6.428
19083SOL     OW59145   6.452   2.927   7.383
19083SOL    HW159146   6.410   3.000   7.336
19083SOL    HW259147   6.530   2.907   7.331
19084SOL     OW59148   2.598  13.813  13.501
19084SOL    HW159149   2.552  13.841  13.579
19084SOL    HW259150   2.649  13.889  13.474
19085SOL     OW59151  12.448   7.110   0.649
19085SOL    HW159152  12.373   7.170   0.642
19085SOL    HW259153  12.408   7.025   0.671
19086SOL     OW59154   4.431   5.676   3.523
19086SOL    HW159155   4.407   5.604   3.464
19086SOL    HW259156   4.373   5.665   3.598
19087SOL     OW59157  14.416  14.609   7.119
19087SOL    HW159158  14.426  14.680   7.183
19087SOL    HW259159  14.435  14.650   7.035
19088SOL     OW59160   2.476   0.430   9.932
19088SOL    HW159161   2.571   0.436   9.926
19088SOL    HW259162   2.455   0.345   9.894
19089SOL     OW59163  14.512  10.200   2.779
19089SOL    HW159164  14.443  10.236   2.835
19089SOL    HW259165  14.582  10.175   2.840
19090SOL     OW59166   2.417   7.497   5.743
19090SOL    HW159167   2.330   7.536   5.753
19090SOL    HW259168   2.466   7.561   5.690
19091SOL     OW59169   3.380   9.870   4.812
19091SOL    HW159170   3.465   9.851   4.773
19091SOL    HW259171   3.369   9.803   4.879
19092SOL     OW59172  12.758   4.573   5.163
19092SOL    HW159173  12.802   4.515   5.225
19092SOL    HW259174  12.668   4.577   5.195
19093SOL     OW59175   2.810  12.165   5.549
19093SOL    HW159176   2.843  12.253   5.562
19093SOL    HW259177   2.797  12.158   5.454
19094SOL     OW59178   4.410   8.182   3.168
19094SOL    HW159179   4.382   8.107   3.220
19094SOL    HW259180   4.494   8.208   3.206
19095SOL     OW59181  13.668   8.002   0.462
19095SOL    HW159182  13.612   7.945   0.514
19095SOL    HW259183  13.686   8.077   0.518
19096SOL     OW59184  12.936   9.738   7.089
19096SOL    HW159185  12.989   9.818   7.090
19096SOL    HW259186  12.882   9.746   7.010
19097SOL     OW59187  13.920  11.488  10.825
19097SOL    HW159188  13.936  11.415  10.884
19097SOL    HW259189  13.844  11.461  10.774
19098SOL     OW59190  12.392  13.563   8.885
19098SOL    HW159191  12.467  13.622   8.880
19098SOL    HW259192  12.419  13.484   8.838
19099SOL     OW59193   4.003   3.243  11.553
19099SOL    HW159194   3.917   3.242  11.510
19099SOL    HW259195   3.999   3.317  11.613
19100SOL     OW59196   0.732   6.471  12.794
19100SOL    HW159197   0.825   6.458  12.779
19100SOL    HW259198   0.723   6.470  12.889
19101SOL     OW59199   5.050  14.313  11.868
19101SOL    HW159200   5.124  14.297  11.926
19101SOL    HW259201   5.088  14.324  11.781
19102SOL     OW59202  14.007   9.734  13.459
19102SOL    HW159203  13.958   9.793  13.516
19102SOL    HW259204  14.046   9.792  13.393
19103SOL     OW59205  10.327   3.857   6.006
19103SOL    HW159206  10.237   3.825   5.998
19103SOL    HW259207  10.356   3.827   6.092
19104SOL     OW59208   4.016   1.785   1.805
19104SOL    HW159209   4.007   1.834   1.723
19104SOL    HW259210   3.938   1.731   1.809
19105SOL     OW59211   7.644   5.877   5.909
19105SOL    HW159212   7.561   5.921   5.892
19105SOL    HW259213   7.638   5.850   6.001
19106SOL     OW59214   3.062   4.352  11.032
19106SOL    HW159215   3.051   4.303  11.113
19106SOL    HW259216   3.152   4.382  11.034
19107SOL     OW59217   8.691   9.717  10.950
19107SOL    HW159218   8.740   9.655  10.897
19107SOL    HW259219   8.690   9.797  10.898
19108SOL     OW59220   5.196   1.724   4.077
19108SOL    HW159221   5.198   1.628   4.080
19108SOL    HW259222   5.267   1.748   4.018
19109SOL     OW59223  14.303   0.318   1.153
19109SOL    HW159224  14.379   0.366   1.121
19109SOL    HW259225  14.331   0.283   1.238
19110SOL     OW59226   7.378   0.118   4.519
19110SOL    HW159227   7.453   0.067   4.489
19110SOL    HW259228   7.389   0.122   4.614
19111SOL     OW59229  10.012  14.854  12.866
19111SOL    HW159230   9.961   0.036  12.802
19111SOL    HW259231   9.954  14.783  12.892
19112SOL     OW59232   1.630   7.127   9.462
19112SOL    HW159233   1.637   7.043   9.507
19112SOL    HW259234   1.680   7.116   9.381
19113SOL     OW59235  11.437   7.397  14.797
19113SOL    HW159236  11.434   7.474  14.854
19113SOL    HW259237  11.527   7.394  14.766
19114SOL     OW59238  12.664   0.882  10.297
19114SOL    HW159239  12.585   0.832  10.318
19114SOL    HW259240  12.668   0.882  10.202
19115SOL     OW59241  10.083   8.299   2.179
19115SOL    HW159242  10.045   8.236   2.117
19115SOL    HW259243  10.007   8.341   2.219
19116SOL     OW59244   4.420  14.296  13.460
19116SOL    HW159245   4.410  14.332  13.372
19116SOL    HW259246   4.435  14.202  13.446
19117SOL     OW59247   2.885   7.250   5.146
19117SOL    HW159248   2.873   7.235   5.240
19117SOL    HW259249   2.911   7.165   5.111
19118SOL     OW59250   5.592  14.273   5.548
19118SOL    HW159251   5.651  14.308   5.482
19118SOL    HW259252   5.651  14.236   5.615
19119SOL     OW59253   2.578  12.427   1.612
19119SOL    HW159254   2.486  12.441   1.590
19119SOL    HW259255   2.585  12.452   1.704
19120SOL     OW59256   1.126  11.444   8.985
19120SOL    HW159257   1.176  11.371   8.948
19120SOL    HW259258   1.071  11.404   9.052
19121SOL     OW59259   4.534  11.975   6.414
19121SOL    HW159260   4.527  12.018   6.329
19121SOL    HW259261   4.562  11.886   6.393
19122SOL     OW59262   1.117   1.193   0.677
19122SOL    HW159263   1.031   1.151   0.681
19122SOL    HW259264   1.100   1.279   0.637
19123SOL     OW59265  12.711   7.878  10.192
19123SOL    HW159266  12.732   7.860  10.101
19123SOL    HW259267  12.640   7.817  10.213
19124SOL     OW59268   6.511   3.948  11.656
19124SOL    HW159269   6.504   3.991  11.741
19124SOL    HW259270   6.452   3.873  11.661
19125SOL     OW59271  13.994   7.497  12.728
19125SOL    HW159272  13.996   7.526  12.820
19125SOL    HW259273  14.020   7.574  12.678
19126SOL     OW59274   5.351  11.416   4.563
19126SOL    HW159275   5.286  11.470   4.517
19126SOL    HW259276   5.349  11.447   4.653
19127SOL     OW59277   6.768  13.315   6.171
19127SOL    HW159278   6.793  13.381   6.105
19127SOL    HW259279   6.836  13.247   6.163
19128SOL     OW59280  12.949   5.384  13.771
19128SOL    HW159281  12.877   5.396  13.833
19128SOL    HW259282  12.998   5.466  13.774
19129SOL     OW59283   6.449  13.140   1.230
19129SOL    HW159284   6.545  13.146   1.238
19129SOL    HW259285   6.419  13.230   1.233
19130SOL     OW59286   8.106   4.727   3.347
19130SOL    HW159287   8.163   4.727   3.424
19130SOL    HW259288   8.039   4.662   3.367
19131SOL     OW59289   4.623   2.766   3.237
19131SOL    HW159290   4.570   2.774   3.316
19131SOL    HW259291   4.614   2.850   3.193
19132SOL     OW59292  12.532   9.814  12.374
19132SOL    HW159293  12.615   9.772  12.351
19132SOL    HW259294  12.539   9.835  12.467
19133SOL     OW59295   9.463   0.133   7.666
19133SOL    HW159296   9.551   0.098   7.682
19133SOL    HW259297   9.453   0.201   7.733
19134SOL     OW59298   6.280  13.298   3.976
19134SOL    HW159299   6.336  13.221   3.993
19134SOL    HW259300   6.290  13.314   3.882
19135SOL     OW59301   0.727   5.248   3.485
19135SOL    HW159302   0.686   5.161   3.486
19135SOL    HW259303   0.818   5.231   3.507
19136SOL     OW59304  13.107   8.094   2.787
19136SOL    HW159305  13.040   8.057   2.730
19136SOL    HW259306  13.058   8.153   2.846
19137SOL     OW59307   9.266  10.182  14.417
19137SOL    HW159308   9.205  10.137  14.474
19137SOL    HW259309   9.351  10.170  14.458
19138SOL     OW59310   6.483   0.630  10.358
19138SOL    HW159311   6.390   0.634  10.334
19138SOL    HW259312   6.502   0.717  10.394
19139SOL     OW59313   2.810   9.450   2.758
19139SOL    HW159314   2.746   9.477   2.823
19139SOL    HW259315   2.879   9.515   2.763
19140SOL     OW59316   9.569  14.425   2.475
19140SOL    HW159317   9.587  14.393   2.564
19140SOL    HW259318   9.474  14.413   2.465
19141SOL     OW59319  11.438   8.942  11.413
19141SOL    HW159320  11.366   8.956  11.474
19141SOL    HW259321  11.448   9.025  11.368
19142SOL     OW59322   3.495   2.878   9.325
19142SOL    HW159323   3.413   2.882   9.374
19142SOL    HW259324   3.562   2.859   9.392
19143SOL     OW59325   9.654  13.927  13.847
19143SOL    HW159326   9.707  13.999  13.815
19143SOL    HW259327   9.698  13.848  13.815
19144SOL     OW59328   0.163  14.750   6.235
19144SOL    HW159329   0.193  14.742   6.326
19144SOL    HW259330   0.119  14.667   6.217
19145SOL     OW59331   1.786  12.408  11.444
19145SOL    HW159332   1.806  12.432  11.534
19145SOL    HW259333   1.795  12.313  11.442
19146SOL     OW59334   4.789  13.241  12.967
19146SOL    HW159335   4.828  13.170  12.916
19146SOL    HW259336   4.752  13.197  13.044
19147SOL     OW59337   6.271   3.161   3.217
19147SOL    HW159338   6.317   3.238   3.184
19147SOL    HW259339   6.330   3.088   3.199
19148SOL     OW59340   4.664  12.938  10.796
19148SOL    HW159341   4.598  12.875  10.825
19148SOL    HW259342   4.645  12.951  10.703
19149SOL     OW59343  13.976  10.450   9.177
19149SOL    HW159344  13.914  10.392   9.133
19149SOL    HW259345  13.921  10.522   9.209
19150SOL     OW59346   9.772   0.270  10.255
19150SOL    HW159347   9.807   0.189  10.219
19150SOL    HW259348   9.847   0.330  10.256
19151SOL     OW59349   9.403   2.330  13.180
19151SOL    HW159350   9.350   2.292  13.250
19151SOL    HW259351   9.347   2.327  13.103
19152SOL     OW59352   6.601  11.884   3.536
19152SOL    HW159353   6.647  11.952   3.585
19152SOL    HW259354   6.633  11.801   3.572
19153SOL     OW59355  14.793  10.048   1.807
19153SOL    HW159356  14.723   9.983   1.806
19153SOL    HW259357  14.796  10.080   1.897
19154SOL     OW59358   4.100   9.695   0.212
19154SOL    HW159359   4.102   9.787   0.186
19154SOL    HW259360   4.102   9.646   0.130
19155SOL     OW59361   9.632  12.363   4.441
19155SOL    HW159362   9.640  12.356   4.537
19155SOL    HW259363   9.538  12.351   4.424
19156SOL     OW59364  13.630   8.066   9.979
19156SOL    HW159365  13.665   8.076  10.068
19156SOL    HW259366  13.679   8.129   9.926
19157SOL     OW59367  14.355   2.930  12.704
19157SOL    HW159368  14.346   2.907  12.612
19157SOL    HW259369  14.271   2.907  12.743
19158SOL     OW59370   2.878   5.890   6.839
19158SOL    HW159371   2.842   5.870   6.752
19158SOL    HW259372   2.936   5.964   6.824
19159SOL     OW59373  12.341   8.431   6.616
19159SOL    HW159374  12.372   8.409   6.705
19159SOL    HW259375  12.421   8.437   6.564
19160SOL     OW59376   0.935  13.517   9.284
19160SOL    HW159377   0.890  13.590   9.326
19160SOL    HW259378   0.941  13.542   9.192
19161SOL     OW59379  11.868   5.098   7.375
19161SOL    HW159380  11.907   5.024   7.422
19161SOL    HW259381  11.801   5.058   7.319
19162SOL     OW59382  12.784  12.153   5.247
19162SOL    HW159383  12.790  12.158   5.342
19162SOL    HW259384  12.770  12.059   5.229
19163SOL     OW59385  10.951   9.374   0.510
19163SOL    HW159386  10.991   9.293   0.478
19163SOL    HW259387  10.946   9.431   0.433
19164SOL     OW59388   0.093   1.499   7.403
19164SOL    HW159389   0.020   1.561   7.403
19164SOL    HW259390   0.164   1.546   7.448
19165SOL     OW59391   9.620   9.984   8.441
19165SOL    HW159392   9.532   9.948   8.449
19165SOL    HW259393   9.633   9.994   8.347
19166SOL     OW59394   1.283   7.011   9.588
19166SOL    HW159395   1.226   7.078   9.551
19166SOL    HW259396   1.304   7.042   9.676
19167SOL     OW59397  12.014   0.957   9.122
19167SOL    HW159398  11.961   0.921   9.193
19167SOL    HW259399  12.072   0.885   9.097
19168SOL     OW59400   5.770   5.309   5.710
19168SOL    HW159401   5.778   5.217   5.686
19168SOL    HW259402   5.809   5.357   5.636
19169SOL     OW59403  11.422   6.181   5.624
19169SOL    HW159404  11.509   6.148   5.599
19169SOL    HW259405  11.361   6.130   5.571
19170SOL     OW59406   2.783   5.909   8.100
19170SOL    HW159407   2.869   5.926   8.062
19170SOL    HW259408   2.728   5.888   8.024
19171SOL     OW59409  12.693   0.071   4.557
19171SOL    HW159410  12.785   0.052   4.539
19171SOL    HW259411  12.687   0.073   4.653
19172SOL     OW59412   9.080   3.145   1.861
19172SOL    HW159413   9.052   3.083   1.794
19172SOL    HW259414   9.010   3.211   1.864
19173SOL     OW59415   9.733   5.134   7.775
19173SOL    HW159416   9.682   5.147   7.855
19173SOL    HW259417   9.730   5.219   7.731
19174SOL     OW59418   4.263   0.769  11.461
19174SOL    HW159419   4.261   0.823  11.540
19174SOL    HW259420   4.326   0.812  11.404
19175SOL     OW59421  13.426  10.827   5.645
19175SOL    HW159422  13.515  10.839   5.678
19175SOL    HW259423  13.392  10.751   5.693
19176SOL     OW59424   1.880   0.375  10.922
19176SOL    HW159425   1.803   0.410  10.876
19176SOL    HW259426   1.849   0.361  11.011
19177SOL     OW59427  12.851   2.520   6.878
19177SOL    HW159428  12.791   2.556   6.944
19177SOL    HW259429  12.796   2.506   6.801
19178SOL     OW59430   8.120   2.979   6.812
19178SOL    HW159431   8.199   3.011   6.769
19178SOL    HW259432   8.049   3.005   6.753
19179SOL     OW59433   6.786   8.565   2.769
19179SOL    HW159434   6.857   8.626   2.788
19179SOL    HW259435   6.831   8.486   2.739
19180SOL     OW59436   2.346  10.166   6.902
19180SOL    HW159437   2.369  10.110   6.827
19180SOL    HW259438   2.382  10.119   6.978
19181SOL     OW59439   5.247  12.139   6.087
19181SOL    HW159440   5.327  12.165   6.132
19181SOL    HW259441   5.233  12.048   6.114
19182SOL     OW59442  10.048   1.372   4.439
19182SOL    HW159443   9.985   1.401   4.505
19182SOL    HW259444  10.019   1.284   4.415
19183SOL     OW59445   1.255   2.357   9.552
19183SOL    HW159446   1.245   2.281   9.609
19183SOL    HW259447   1.265   2.431   9.612
19184SOL     OW59448   6.859  10.944   5.890
19184SOL    HW159449   6.833  10.943   5.982
19184SOL    HW259450   6.942  10.993   5.889
19185SOL     OW59451   3.301  10.380   9.660
19185SOL    HW159452   3.284  10.298   9.613
19185SOL    HW259453   3.261  10.447   9.605
19186SOL     OW59454   2.644   7.459   3.399
19186SOL    HW159455   2.608   7.377   3.367
19186SOL    HW259456   2.619   7.461   3.492
19187SOL     OW59457   9.551  10.558   9.786
19187SOL    HW159458   9.501  10.527   9.862
19187SOL    HW259459   9.487  10.559   9.715
19188SOL     OW59460  13.314  12.114  11.376
19188SOL    HW159461  13.300  12.195  11.425
19188SOL    HW259462  13.227  12.077  11.365
19189SOL     OW59463  12.450   1.543  12.968
19189SOL    HW159464  12.362   1.508  12.978
19189SOL    HW259465  12.504   1.488  13.024
19190SOL     OW59466   7.798  11.995  13.306
19190SOL    HW159467   7.856  12.026  13.376
19190SOL    HW259468   7.777  11.904  13.330
19191SOL     OW59469   4.587  11.652  13.484
19191SOL    HW159470   4.673  11.692  13.473
19191SOL    HW259471   4.600  11.587  13.553
19192SOL     OW59472  10.343   0.174   4.063
19192SOL    HW159473  10.324   0.199   3.972
19192SOL    HW259474  10.276   0.219   4.114
19193SOL     OW59475   7.507   1.943   6.063
19193SOL    HW159476   7.459   1.971   6.141
19193SOL    HW259477   7.598   1.967   6.080
19194SOL     OW59478  13.401   2.900  11.370
19194SOL    HW159479  13.356   2.832  11.420
19194SOL    HW259480  13.375   2.982  11.413
19195SOL     OW59481   0.349   7.132   6.973
19195SOL    HW159482   0.316   7.066   6.913
19195SOL    HW259483   0.304   7.213   6.947
19196SOL     OW59484   3.104   2.359   0.791
19196SOL    HW159485   3.146   2.428   0.841
19196SOL    HW259486   3.174   2.299   0.767
19197SOL     OW59487   1.103   6.015   2.236
19197SOL    HW159488   1.045   5.984   2.305
19197SOL    HW259489   1.050   6.076   2.186
19198SOL     OW59490   7.774   5.290  10.107
19198SOL    HW159491   7.845   5.314  10.167
19198SOL    HW259492   7.760   5.197  10.124
19199SOL     OW59493   9.815   0.040   8.099
19199SOL    HW159494   9.804  14.852   8.022
19199SOL    HW259495   9.906   0.027   8.126
19200SOL     OW59496  14.347   2.880  12.421
19200SOL    HW159497  14.254   2.869  12.402
19200SOL    HW259498  14.382   2.791  12.420
19201SOL     OW59499  13.319   3.343  13.610
19201SOL    HW159500  13.246   3.361  13.551
19201SOL    HW259501  13.309   3.251  13.635
19202SOL     OW59502   1.357  13.835   7.594
19202SOL    HW159503   1.317  13.920   7.611
19202SOL    HW259504   1.433  13.855   7.539
19203SOL     OW59505  14.145   8.937   1.542
19203SOL    HW159506  14.123   9.029   1.558
19203SOL    HW259507  14.227   8.939   1.493
19204SOL     OW59508   5.669   2.371   7.119
19204SOL    HW159509   5.670   2.408   7.031
19204SOL    HW259510   5.710   2.285   7.109
19205SOL     OW59511   9.869   5.334   4.393
19205SOL    HW159512   9.831   5.294   4.315
19205SOL    HW259513   9.793   5.355   4.448
19206SOL     OW59514  10.564   1.413   9.788
19206SOL    HW159515  10.494   1.449   9.842
19206SOL    HW259516  10.644   1.437   9.834
19207SOL     OW59517   7.230   8.158   5.169
19207SOL    HW159518   7.151   8.211   5.174
19207SOL    HW259519   7.265   8.158   5.258
19208SOL     OW59520   9.760  12.831   8.428
19208SOL    HW159521   9.677  12.801   8.389
19208SOL    HW259522   9.744  12.831   8.522
19209SOL     OW59523   6.081   3.591   3.683
19209SOL    HW159524   6.149   3.592   3.751
19209SOL    HW259525   6.084   3.679   3.645
19210SOL     OW59526   1.782  10.972   8.529
19210SOL    HW159527   1.805  11.027   8.454
19210SOL    HW259528   1.866  10.937   8.560
19211SOL     OW59529   3.378   0.323  13.744
19211SOL    HW159530   3.335   0.261  13.803
19211SOL    HW259531   3.372   0.282  13.658
19212SOL     OW59532   9.172   2.772   5.442
19212SOL    HW159533   9.261   2.742   5.455
19212SOL    HW259534   9.174   2.864   5.467
19213SOL     OW59535   0.099   8.666   1.406
19213SOL    HW159536   0.053   8.743   1.373
19213SOL    HW259537   0.188   8.696   1.422
19214SOL     OW59538   8.427  14.011   9.448
19214SOL    HW159539   8.447  14.096   9.410
19214SOL    HW259540   8.509  13.984   9.490
19215SOL     OW59541   7.384   2.387   8.605
19215SOL    HW159542   7.331   2.363   8.681
19215SOL    HW259543   7.470   2.349   8.622
19216SOL     OW59544  10.466   5.432   6.014
19216SOL    HW159545  10.555   5.465   6.009
19216SOL    HW259546  10.472   5.353   6.068
19217SOL     OW59547   6.204   6.821   1.072
19217SOL    HW159548   6.250   6.894   1.030
19217SOL    HW259549   6.254   6.806   1.153
19218SOL     OW59550   5.303   4.659   4.418
19218SOL    HW159551   5.261   4.707   4.489
19218SOL    HW259552   5.341   4.582   4.461
19219SOL     OW59553  13.371   7.160   1.412
19219SOL    HW159554  13.283   7.164   1.450
19219SOL    HW259555  13.404   7.074   1.436
19220SOL     OW59556  14.035  11.824  11.519
19220SOL    HW159557  13.982  11.812  11.597
19220SOL    HW259558  14.090  11.900  11.538
19221SOL     OW59559   6.222   8.121  11.063
19221SOL    HW159560   6.317   8.130  11.063
19221SOL    HW259561   6.204   8.049  11.003
19222SOL     OW59562   5.750   5.371  12.787
19222SOL    HW159563   5.756   5.282  12.821
19222SOL    HW259564   5.725   5.360  12.695
19223SOL     OW59565   3.466   2.328   4.323
19223SOL    HW159566   3.552   2.300   4.355
19223SOL    HW259567   3.458   2.418   4.353
19224SOL     OW59568   3.980   8.307   7.884
19224SOL    HW159569   3.903   8.261   7.851
19224SOL    HW259570   4.045   8.298   7.815
19225SOL     OW59571  14.265  14.189  13.773
19225SOL    HW159572  14.337  14.216  13.830
19225SOL    HW259573  14.281  14.237  13.691
19226SOL     OW59574  11.726  13.658   0.643
19226SOL    HW159575  11.640  13.683   0.608
19226SOL    HW259576  11.776  13.631   0.566
19227SOL     OW59577   5.800   4.517  13.292
19227SOL    HW159578   5.755   4.457  13.232
19227SOL    HW259579   5.774   4.605  13.262
19228SOL     OW59580   6.814   4.651   4.026
19228SOL    HW159581   6.861   4.655   3.943
19228SOL    HW259582   6.777   4.562   4.028
19229SOL     OW59583   5.246   4.694   8.092
19229SOL    HW159584   5.211   4.671   8.007
19229SOL    HW259585   5.320   4.751   8.073
19230SOL     OW59586   0.052   3.201   1.360
19230SOL    HW159587   0.145   3.207   1.336
19230SOL    HW259588   0.048   3.236   1.448
19231SOL     OW59589   4.424   5.030  11.615
19231SOL    HW159590   4.358   5.098  11.604
19231SOL    HW259591   4.403   4.964  11.549
19232SOL     OW59592  12.599  10.540   0.913
19232SOL    HW159593  12.553  10.510   0.991
19232SOL    HW259594  12.691  10.529   0.933
19233SOL     OW59595  13.579   7.762   6.489
19233SOL    HW159596  13.553   7.839   6.539
19233SOL    HW259597  13.601   7.697   6.556
19234SOL     OW59598  14.568   9.659   2.789
19234SOL    HW159599  14.587   9.747   2.757
19234SOL    HW259600  14.653   9.616   2.791
19235SOL     OW59601   7.543  12.488  10.080
19235SOL    HW159602   7.532  12.535   9.997
19235SOL    HW259603   7.604  12.417  10.058
19236SOL     OW59604  11.370   2.521   8.479
19236SOL    HW159605  11.276   2.516   8.463
19236SOL    HW259606  11.379   2.583   8.551
19237SOL     OW59607  12.687   0.153  11.366
19237SOL    HW159608  12.640   0.227  11.404
19237SOL    HW259609  12.778   0.182  11.362
19238SOL     OW59610   0.258  14.616   4.020
19238SOL    HW159611   0.253  14.521   4.024
19238SOL    HW259612   0.174  14.643   3.983
19239SOL     OW59613   3.481   2.167   3.590
19239SOL    HW159614   3.484   2.207   3.677
19239SOL    HW259615   3.567   2.127   3.578
19240SOL     OW59616   6.287  10.953  11.802
19240SOL    HW159617   6.306  10.941  11.895
19240SOL    HW259618   6.195  10.927  11.794
19241SOL     OW59619   9.205  12.946   6.558
19241SOL    HW159620   9.259  12.940   6.637
19241SOL    HW259621   9.267  12.945   6.486
19242SOL     OW59622   4.271   2.485  13.614
19242SOL    HW159623   4.230   2.566  13.584
19242SOL    HW259624   4.203   2.419  13.604
19243SOL     OW59625   9.959   0.599   9.253
19243SOL    HW159626   9.937   0.587   9.345
19243SOL    HW259627  10.030   0.664   9.253
19244SOL     OW59628   8.649   4.051   7.275
19244SOL    HW159629   8.582   4.002   7.227
19244SOL    HW259630   8.633   4.142   7.251
19245SOL     OW59631   4.842  12.720  10.264
19245SOL    HW159632   4.913  12.781  10.245
19245SOL    HW259633   4.774  12.773  10.305
19246SOL     OW59634  13.218   2.288   0.428
19246SOL    HW159635  13.207   2.303   0.334
19246SOL    HW259636  13.268   2.207   0.433
19247SOL     OW59637   6.105   4.909  11.320
19247SOL    HW159638   6.114   4.956  11.237
19247SOL    HW259639   6.193   4.906  11.356
19248SOL     OW59640  12.199   3.212   1.530
19248SOL    HW159641  12.258   3.148   1.571
19248SOL    HW259642  12.150   3.161   1.466
19249SOL     OW59643   0.577   5.726   2.069
19249SOL    HW159644   0.513   5.661   2.098
19249SOL    HW259645   0.524   5.794   2.028
19250SOL     OW59646   5.805  13.242   5.812
19250SOL    HW159647   5.723  13.292   5.816
19250SOL    HW259648   5.776  13.150   5.814
19251SOL     OW59649   6.543   4.549  14.724
19251SOL    HW159650   6.616   4.608  14.702
19251SOL    HW259651   6.476   4.570  14.660
19252SOL     OW59652   2.951  12.604   4.458
19252SOL    HW159653   2.878  12.560   4.502
19252SOL    HW259654   3.029  12.566   4.500
19253SOL     OW59655  11.104   8.374  14.120
19253SOL    HW159656  11.176   8.313  14.105
19253SOL    HW259657  11.105   8.389  14.214
19254SOL     OW59658   7.224  14.706   1.472
19254SOL    HW159659   7.182  14.770   1.414
19254SOL    HW259660   7.156  14.642   1.491
19255SOL     OW59661   4.617   8.360   1.494
19255SOL    HW159662   4.622   8.431   1.557
19255SOL    HW259663   4.706   8.349   1.462
19256SOL     OW59664   2.353  11.590   4.772
19256SOL    HW159665   2.369  11.607   4.864
19256SOL    HW259666   2.368  11.496   4.761
19257SOL     OW59667   6.222  14.012   1.689
19257SOL    HW159668   6.219  13.976   1.600
19257SOL    HW259669   6.273  13.947   1.738
19258SOL     OW59670  12.917  12.813   7.865
19258SOL    HW159671  13.006  12.786   7.844
19258SOL    HW259672  12.927  12.881   7.932
19259SOL     OW59673   8.999   4.989  10.883
19259SOL    HW159674   8.946   4.939  10.820
19259SOL    HW259675   9.048   5.051  10.829
19260SOL     OW59676  14.151  14.174  14.842
19260SOL    HW159677  14.197  14.091  14.858
19260SOL    HW259678  14.130  14.207   0.061
19261SOL     OW59679   7.159  14.418   2.877
19261SOL    HW159680   7.254  14.409   2.888
19261SOL    HW259681   7.145  14.513   2.870
19262SOL     OW59682   6.198   9.385   3.516
19262SOL    HW159683   6.110   9.375   3.480
19262SOL    HW259684   6.225   9.296   3.540
19263SOL     OW59685   5.035   7.307   9.619
19263SOL    HW159686   4.953   7.268   9.588
19263SOL    HW259687   5.101   7.240   9.603
19264SOL     OW59688  10.118  13.621   7.767
19264SOL    HW159689  10.153  13.545   7.720
19264SOL    HW259690  10.169  13.624   7.848
19265SOL     OW59691  13.505   4.141  13.732
19265SOL    HW159692  13.550   4.195  13.667
19265SOL    HW259693  13.568   4.073  13.755
19266SOL     OW59694  11.095   8.796   3.713
19266SOL    HW159695  11.123   8.740   3.786
19266SOL    HW259696  11.024   8.848   3.748
19267SOL     OW59697   8.465   3.412  10.961
19267SOL    HW159698   8.501   3.379  11.043
19267SOL    HW259699   8.536   3.402  10.898
19268SOL     OW59700   6.181  11.705   3.687
19268SOL    HW159701   6.259  11.756   3.708
19268SOL    HW259702   6.151  11.672   3.772
19269SOL     OW59703   0.698   6.809   6.995
19269SOL    HW159704   0.670   6.808   6.904
19269SOL    HW259705   0.624   6.847   7.042
19270SOL     OW59706  14.151   9.373   8.538
19270SOL    HW159707  14.178   9.314   8.468
19270SOL    HW259708  14.222   9.438   8.543
19271SOL     OW59709  10.793   0.690  10.925
19271SOL    HW159710  10.780   0.783  10.908
19271SOL    HW259711  10.843   0.688  11.007
19272SOL     OW59712   9.691  12.539   7.914
19272SOL    HW159713   9.699  12.634   7.906
19272SOL    HW259714   9.781  12.507   7.906
19273SOL     OW59715  13.996  10.736  10.226
19273SOL    HW159716  13.914  10.688  10.243
19273SOL    HW259717  13.975  10.827  10.245
19274SOL     OW59718   8.662   7.094   8.280
19274SOL    HW159719   8.650   7.137   8.364
19274SOL    HW259720   8.733   7.031   8.295
19275SOL     OW59721   4.493   2.405   4.117
19275SOL    HW159722   4.539   2.489   4.125
19275SOL    HW259723   4.432   2.405   4.191
19276SOL     OW59724   3.494   6.017   7.858
19276SOL    HW159725   3.435   6.032   7.784
19276SOL    HW259726   3.568   5.970   7.820
19277SOL     OW59727  10.826   6.925   1.812
19277SOL    HW159728  10.788   6.931   1.724
19277SOL    HW259729  10.757   6.888   1.866
19278SOL     OW59730   2.047   9.874   0.741
19278SOL    HW159731   2.021   9.935   0.810
19278SOL    HW259732   2.012   9.913   0.660
19279SOL     OW59733  14.735  12.233  13.301
19279SOL    HW159734  14.676  12.223  13.226
19279SOL    HW259735  14.719  12.156  13.355
19280SOL     OW59736   7.476  12.738   3.805
19280SOL    HW159737   7.388  12.720   3.838
19280SOL    HW259738   7.462  12.776   3.718
19281SOL     OW59739   7.745   9.115   9.383
19281SOL    HW159740   7.699   9.171   9.446
19281SOL    HW259741   7.836   9.115   9.413
19282SOL     OW59742   0.064   4.726   0.112
19282SOL    HW159743   0.024   4.668   0.046
19282SOL    HW259744   0.031   4.813   0.090
19283SOL     OW59745   5.066   4.483   5.247
19283SOL    HW159746   4.999   4.490   5.314
19283SOL    HW259747   5.045   4.402   5.200
19284SOL     OW59748   1.596  14.291  14.135
19284SOL    HW159749   1.551  14.337  14.064
19284SOL    HW259750   1.529  14.232  14.172
19285SOL     OW59751   9.355  11.117   8.673
19285SOL    HW159752   9.315  11.040   8.713
19285SOL    HW259753   9.441  11.123   8.714
19286SOL     OW59754  12.369   4.090   9.588
19286SOL    HW159755  12.323   4.023   9.537
19286SOL    HW259756  12.411   4.145   9.522
19287SOL     OW59757   5.260   3.073   5.142
19287SOL    HW159758   5.200   3.089   5.069
19287SOL    HW259759   5.216   3.111   5.218
19288SOL     OW59760   4.311  14.269   3.564
19288SOL    HW159761   4.357  14.185   3.562
19288SOL    HW259762   4.253  14.266   3.487
19289SOL     OW59763   8.226   0.490   3.828
19289SOL    HW159764   8.233   0.477   3.734
19289SOL    HW259765   8.165   0.421   3.857
19290SOL     OW59766   4.263   0.684   0.777
19290SOL    HW159767   4.299   0.760   0.822
19290SOL    HW259768   4.208   0.721   0.708
19291SOL     OW59769   4.582   2.509   6.319
19291SOL    HW159770   4.633   2.460   6.255
19291SOL    HW259771   4.534   2.443   6.367
19292SOL     OW59772   0.126   6.490   9.810
19292SOL    HW159773   0.091   6.436   9.738
19292SOL    HW259774   0.099   6.444   9.889
19293SOL     OW59775   2.721   2.268   9.503
19293SOL    HW159776   2.760   2.300   9.584
19293SOL    HW259777   2.794   2.262   9.441
19294SOL     OW59778   5.931  10.450  11.144
19294SOL    HW159779   5.921  10.508  11.219
19294SOL    HW259780   5.889  10.368  11.170
19295SOL     OW59781  12.054  13.340   0.234
19295SOL    HW159782  12.094  13.401   0.296
19295SOL    HW259783  12.090  13.255   0.257
19296SOL     OW59784   3.473  11.992   0.905
19296SOL    HW159785   3.509  12.040   0.830
19296SOL    HW259786   3.383  12.024   0.912
19297SOL     OW59787   4.145  11.758   4.460
19297SOL    HW159788   4.180  11.714   4.537
19297SOL    HW259789   4.075  11.701   4.430
19298SOL     OW59790  11.770   9.996   7.586
19298SOL    HW159791  11.758   9.911   7.627
19298SOL    HW259792  11.720  10.056   7.641
19299SOL     OW59793   7.794   1.744   1.675
19299SOL    HW159794   7.856   1.677   1.703
19299SOL    HW259795   7.727   1.745   1.742
19300SOL     OW59796   0.072   1.919   1.558
19300SOL    HW159797   0.083   1.965   1.475
19300SOL    HW259798  14.846   1.926   1.577
19301SOL     OW59799   6.443   2.864  11.331
19301SOL    HW159800   6.450   2.911  11.414
19301SOL    HW259801   6.488   2.781  11.346
19302SOL     OW59802   9.629   3.373   6.860
19302SOL    HW159803   9.625   3.281   6.884
19302SOL    HW259804   9.583   3.378   6.776
19303SOL     OW59805   0.185  13.979   1.422
19303SOL    HW159806   0.196  13.945   1.511
19303SOL    HW259807   0.244  13.926   1.369
19304SOL     OW59808  12.706  14.548   4.202
19304SOL    HW159809  12.707  14.624   4.144
19304SOL    HW259810  12.756  14.576   4.279
19305SOL     OW59811   5.482   0.777   1.956
19305SOL    HW159812   5.492   0.783   1.861
19305SOL    HW259813   5.459   0.865   1.984
19306SOL     OW59814   3.553   8.908  13.647
19306SOL    HW159815   3.594   8.839  13.594
19306SOL    HW259816   3.494   8.953  13.587
19307SOL     OW59817   4.010  10.307   1.805
19307SOL    HW159818   3.942  10.361   1.844
19307SOL    HW259819   4.087  10.364   1.801
19308SOL     OW59820   6.446   2.270   0.788
19308SOL    HW159821   6.523   2.283   0.732
19308SOL    HW259822   6.476   2.211   0.857
19309SOL     OW59823   0.798  11.321   8.393
19309SOL    HW159824   0.713  11.351   8.424
19309SOL    HW259825   0.791  11.226   8.394
19310SOL     OW59826   0.734   7.905   4.318
19310SOL    HW159827   0.732   7.917   4.223
19310SOL    HW259828   0.717   7.811   4.330
19311SOL     OW59829   2.295   1.999   0.798
19311SOL    HW159830   2.250   1.935   0.853
19311SOL    HW259831   2.228   2.031   0.738
19312SOL     OW59832  11.556  11.524  14.659
19312SOL    HW159833  11.482  11.484  14.614
19312SOL    HW259834  11.533  11.518  14.752
19313SOL     OW59835   9.915   1.138  11.800
19313SOL    HW159836   9.842   1.082  11.775
19313SOL    HW259837   9.973   1.080  11.850
19314SOL     OW59838   7.078   0.113  13.251
19314SOL    HW159839   7.018   0.127  13.325
19314SOL    HW259840   7.146   0.056  13.286
19315SOL     OW59841  10.229  13.170   2.607
19315SOL    HW159842  10.321  13.188   2.589
19315SOL    HW259843  10.202  13.238   2.669
19316SOL     OW59844   1.232  14.820   9.160
19316SOL    HW159845   1.272   0.022   9.109
19316SOL    HW259846   1.293  14.806   9.233
19317SOL     OW59847   7.300   3.200   8.298
19317SOL    HW159848   7.297   3.242   8.385
19317SOL    HW259849   7.209   3.177   8.280
19318SOL     OW59850   9.546  13.890  10.417
19318SOL    HW159851   9.566  13.840  10.338
19318SOL    HW259852   9.460  13.859  10.445
19319SOL     OW59853  10.134  11.259  11.047
19319SOL    HW159854  10.154  11.293  11.135
19319SOL    HW259855  10.186  11.313  10.988
19320SOL     OW59856  13.416  12.220   1.070
19320SOL    HW159857  13.360  12.242   1.145
19320SOL    HW259858  13.417  12.299   1.017
19321SOL     OW59859   7.638   9.343   1.399
19321SOL    HW159860   7.721   9.305   1.427
19321SOL    HW259861   7.623   9.306   1.312
19322SOL     OW59862   0.720  10.293   6.973
19322SOL    HW159863   0.633  10.289   7.013
19322SOL    HW259864   0.735  10.203   6.941
19323SOL     OW59865   3.623   3.530  14.770
19323SOL    HW159866   3.637   3.445  14.810
19323SOL    HW259867   3.569   3.512  14.693
19324SOL     OW59868  10.120   2.158  12.779
19324SOL    HW159869  10.185   2.202  12.834
19324SOL    HW259870  10.064   2.228  12.746
19325SOL     OW59871  13.039  13.994  13.967
19325SOL    HW159872  13.035  13.899  13.971
19325SOL    HW259873  12.948  14.021  13.951
19326SOL     OW59874   0.937  14.450   2.768
19326SOL    HW159875   0.860  14.452   2.826
19326SOL    HW259876   0.923  14.373   2.713
19327SOL     OW59877   7.298   5.025   2.164
19327SOL    HW159878   7.301   4.969   2.241
19327SOL    HW259879   7.362   5.094   2.182
19328SOL     OW59880   5.645   7.092   2.371
19328SOL    HW159881   5.612   7.154   2.436
19328SOL    HW259882   5.738   7.082   2.392
19329SOL     OW59883   8.331   4.572   3.007
19329SOL    HW159884   8.390   4.561   3.081
19329SOL    HW259885   8.367   4.646   2.958
19330SOL     OW59886   8.319   1.169   3.702
19330SOL    HW159887   8.274   1.250   3.729
19330SOL    HW259888   8.371   1.195   3.626
19331SOL     OW59889   2.702   7.835  12.041
19331SOL    HW159890   2.733   7.748  12.063
19331SOL    HW259891   2.782   7.885  12.024
19332SOL     OW59892  11.579   3.757  11.378
19332SOL    HW159893  11.606   3.780  11.289
19332SOL    HW259894  11.618   3.671  11.393
19333SOL     OW59895   4.073   3.486  12.234
19333SOL    HW159896   4.018   3.424  12.187
19333SOL    HW259897   4.040   3.485  12.324
19334SOL     OW59898   2.508   5.396  10.603
19334SOL    HW159899   2.464   5.375  10.686
19334SOL    HW259900   2.590   5.437  10.629
19335SOL     OW59901   4.641  12.594   1.732
19335SOL    HW159902   4.584  12.530   1.691
19335SOL    HW259903   4.582  12.663   1.761
19336SOL     OW59904   7.360  14.308   5.473
19336SOL    HW159905   7.336  14.218   5.496
19336SOL    HW259906   7.412  14.298   5.392
19337SOL     OW59907   6.652   1.140   0.847
19337SOL    HW159908   6.667   1.048   0.869
19337SOL    HW259909   6.729   1.185   0.879
19338SOL     OW59910  14.866   8.348   9.998
19338SOL    HW159911   0.017   8.441  10.000
19338SOL    HW259912   0.027   8.315  10.083
19339SOL     OW59913   1.852   0.674   3.019
19339SOL    HW159914   1.817   0.590   3.050
19339SOL    HW259915   1.823   0.679   2.928
19340SOL     OW59916   4.903   3.819   0.533
19340SOL    HW159917   4.829   3.880   0.533
19340SOL    HW259918   4.960   3.851   0.603
19341SOL     OW59919   0.574  10.721   1.952
19341SOL    HW159920   0.658  10.686   1.983
19341SOL    HW259921   0.595  10.761   1.867
19342SOL     OW59922   4.088  10.272   7.388
19342SOL    HW159923   4.100  10.261   7.293
19342SOL    HW259924   4.029  10.202   7.413
19343SOL     OW59925  10.840   4.580  10.229
19343SOL    HW159926  10.926   4.586  10.187
19343SOL    HW259927  10.828   4.487  10.247
19344SOL     OW59928   2.412   4.583  14.502
19344SOL    HW159929   2.322   4.610  14.521
19344SOL    HW259930   2.428   4.510  14.562
19345SOL     OW59931   1.102   6.138   1.233
19345SOL    HW159932   1.066   6.186   1.158
19345SOL    HW259933   1.197   6.144   1.222
19346SOL     OW59934   9.965  12.479   2.451
19346SOL    HW159935   9.995  12.389   2.440
19346SOL    HW259936   9.955  12.512   2.362
19347SOL     OW59937   6.272  13.491   2.333
19347SOL    HW159938   6.203  13.475   2.268
19347SOL    HW259939   6.249  13.575   2.371
19348SOL     OW59940  12.013  14.252   4.061
19348SOL    HW159941  12.016  14.257   4.157
19348SOL    HW259942  12.092  14.299   4.032
19349SOL     OW59943  13.702   5.979  14.286
19349SOL    HW159944  13.686   5.886  14.270
19349SOL    HW259945  13.796   5.984  14.304
19350SOL     OW59946   9.935   5.523  11.742
19350SOL    HW159947  10.005   5.587  11.754
19350SOL    HW259948   9.968   5.464  11.675
19351SOL     OW59949   4.975  11.574  11.240
19351SOL    HW159950   4.972  11.634  11.314
19351SOL    HW259951   4.970  11.630  11.163
19352SOL     OW59952  11.609   1.075   8.595
19352SOL    HW159953  11.603   1.030   8.680
19352SOL    HW259954  11.653   1.012   8.538
19353SOL     OW59955   9.348   8.043   8.990
19353SOL    HW159956   9.437   8.073   8.970
19353SOL    HW259957   9.292   8.092   8.928
19354SOL     OW59958   7.989  12.276   6.808
19354SOL    HW159959   7.908  12.227   6.797
19354SOL    HW259960   8.049  12.240   6.742
19355SOL     OW59961  12.518   6.578   4.702
19355SOL    HW159962  12.464   6.530   4.639
19355SOL    HW259963  12.535   6.514   4.771
19356SOL     OW59964   0.293   4.285   9.791
19356SOL    HW159965   0.333   4.294   9.878
19356SOL    HW259966   0.355   4.229   9.742
19357SOL     OW59967  10.461   9.484   1.749
19357SOL    HW159968  10.410   9.404   1.750
19357SOL    HW259969  10.400   9.551   1.718
19358SOL     OW59970   9.207   2.525   9.356
19358SOL    HW159971   9.261   2.597   9.322
19358SOL    HW259972   9.229   2.520   9.449
19359SOL     OW59973   7.543   6.479   6.453
19359SOL    HW159974   7.593   6.558   6.474
19359SOL    HW259975   7.488   6.504   6.379
19360SOL     OW59976   4.980  13.688   0.392
19360SOL    HW159977   4.900  13.645   0.361
19360SOL    HW259978   5.040  13.616   0.411
19361SOL     OW59979   9.487  14.237   7.056
19361SOL    HW159980   9.409  14.184   7.045
19361SOL    HW259981   9.500  14.242   7.151
19362SOL     OW59982   0.986   5.355   9.994
19362SOL    HW159983   0.941   5.327  10.074
19362SOL    HW259984   0.943   5.307   9.924
19363SOL     OW59985  14.679  10.763   2.321
19363SOL    HW159986  14.606  10.780   2.261
19363SOL    HW259987  14.708  10.674   2.299
19364SOL     OW59988   0.718   3.070   4.553
19364SOL    HW159989   0.781   3.142   4.559
19364SOL    HW259990   0.744   3.010   4.624
19365SOL     OW59991   7.645   4.196   4.199
19365SOL    HW159992   7.667   4.195   4.292
19365SOL    HW259993   7.622   4.287   4.180
19366SOL     OW59994   9.985   5.194   1.498
19366SOL    HW159995   9.951   5.118   1.545
19366SOL    HW259996   9.910   5.254   1.492
19367SOL     OW59997   4.293   1.939  10.404
19367SOL    HW159998   4.326   1.853  10.380
19367SOL    HW259999   4.371   1.992  10.419
19368SOL     OW60000   3.229   9.111  13.661
19368SOL    HW160001   3.165   9.155  13.717
19368SOL    HW260002   3.257   9.035  13.711
19369SOL     OW60003   3.611  12.559   8.086
19369SOL    HW160004   3.609  12.573   7.991
19369SOL    HW260005   3.653  12.638   8.121
19370SOL     OW60006   0.279  14.127   6.756
19370SOL    HW160007   0.247  14.047   6.797
19370SOL    HW260008   0.315  14.099   6.672
19371SOL     OW60009   6.631   3.762   0.187
19371SOL    HW160010   6.726   3.760   0.179
19371SOL    HW260011   6.605   3.670   0.178
19372SOL     OW60012   1.707  13.284   9.293
19372SOL    HW160013   1.639  13.244   9.239
19372SOL    HW260014   1.744  13.212   9.343
19373SOL     OW60015  12.448   7.650   6.714
19373SOL    HW160016  12.525   7.655   6.658
19373SOL    HW260017  12.418   7.740   6.723
19374SOL     OW60018   5.002   3.946   5.056
19374SOL    HW160019   5.005   3.981   4.967
19374SOL    HW260020   5.085   3.899   5.067
19375SOL     OW60021  10.975   0.488  13.574
19375SOL    HW160022  11.050   0.432  13.554
19375SOL    HW260023  11.006   0.547  13.642
19376SOL     OW60024  14.472   5.653   3.158
19376SOL    HW160025  14.438   5.735   3.195
19376SOL    HW260026  14.399   5.619   3.106
19377SOL     OW60027   1.696   8.387   8.774
19377SOL    HW160028   1.785   8.419   8.790
19377SOL    HW260029   1.665   8.440   8.701
19378SOL     OW60030   8.924   4.867  14.542
19378SOL    HW160031   8.879   4.821  14.613
19378SOL    HW260032   8.935   4.800  14.474
19379SOL     OW60033   3.596   9.879   0.983
19379SOL    HW160034   3.525   9.917   0.932
19379SOL    HW260035   3.554   9.847   1.064
19380SOL     OW60036   1.141   6.126   6.606
19380SOL    HW160037   1.087   6.182   6.662
19380SOL    HW260038   1.213   6.098   6.663
19381SOL     OW60039  11.689  13.121   9.380
19381SOL    HW160040  11.754  13.081   9.323
19381SOL    HW260041  11.634  13.047   9.408
19382SOL     OW60042  13.427   2.400   3.263
19382SOL    HW160043  13.371   2.335   3.221
19382SOL    HW260044  13.419   2.382   3.357
19383SOL     OW60045  14.254  10.177   2.204
19383SOL    HW160046  14.320  10.108   2.208
19383SOL    HW260047  14.176  10.138   2.244
19384SOL     OW60048   1.069  11.502  12.887
19384SOL    HW160049   1.122  11.534  12.813
19384SOL    HW260050   1.000  11.567  12.896
19385SOL     OW60051   3.483   2.012  11.883
19385SOL    HW160052   3.460   1.977  11.797
19385SOL    HW260053   3.403   2.004  11.935
19386SOL     OW60054  13.722   3.356   8.508
19386SOL    HW160055  13.636   3.315   8.496
19386SOL    HW260056  13.726   3.422   8.438
19387SOL     OW60057   8.802   2.248  14.312
19387SOL    HW160058   8.757   2.177  14.266
19387SOL    HW260059   8.739   2.320  14.311
19388SOL     OW60060  12.950  10.215  11.921
19388SOL    HW160061  12.898  10.150  11.970
19388SOL    HW260062  12.997  10.263  11.989
19389SOL     OW60063  11.201  10.871  14.506
19389SOL    HW160064  11.280  10.907  14.466
19389SOL    HW260065  11.226  10.850  14.596
19390SOL     OW60066   8.147   7.927  10.111
19390SOL    HW160067   8.141   7.833  10.129
19390SOL    HW260068   8.230   7.953  10.152
19391SOL     OW60069   9.113  11.471   6.329
19391SOL    HW160070   9.087  11.563   6.331
19391SOL    HW260071   9.152  11.459   6.243
19392SOL     OW60072  13.940   9.143   5.434
19392SOL    HW160073  13.942   9.213   5.368
19392SOL    HW260074  13.847   9.129   5.451
19393SOL     OW60075   5.335   1.145  14.028
19393SOL    HW160076   5.288   1.186  13.955
19393SOL    HW260077   5.428   1.156  14.006
19394SOL     OW60078   9.169   9.903  13.791
19394SOL    HW160079   9.129   9.860  13.716
19394SOL    HW260080   9.184   9.993  13.762
19395SOL     OW60081  14.760   0.714   6.657
19395SOL    HW160082  14.842   0.714   6.708
19395SOL    HW260083  14.717   0.796   6.681
19396SOL     OW60084   0.990   2.930  10.060
19396SOL    HW160085   0.897   2.950  10.072
19396SOL    HW260086   1.013   2.876  10.135
19397SOL     OW60087   7.720  14.267   0.111
19397SOL    HW160088   7.726  14.361   0.098
19397SOL    HW260089   7.668  14.256   0.191
19398SOL     OW60090   1.928   8.180   4.524
19398SOL    HW160091   1.878   8.109   4.484
19398SOL    HW260092   1.919   8.253   4.462
19399SOL     OW60093   5.917   0.544  11.447
19399SOL    HW160094   5.927   0.519  11.539
19399SOL    HW260095   5.920   0.460  11.399
19400SOL     OW60096   4.709  14.239  13.222
19400SOL    HW160097   4.671  14.322  13.251
19400SOL    HW260098   4.670  14.225  13.135
19401SOL     OW60099   2.867  14.476  14.557
19401SOL    HW160100   2.881  14.456  14.464
19401SOL    HW260101   2.874  14.571  14.562
19402SOL     OW60102  10.969   4.610   1.670
19402SOL    HW160103  11.024   4.685   1.690
19402SOL    HW260104  10.983   4.593   1.577
19403SOL     OW60105   1.546  13.672   0.999
19403SOL    HW160106   1.502  13.726   1.064
19403SOL    HW260107   1.514  13.583   1.015
19404SOL     OW60108   5.264   3.773   3.168
19404SOL    HW160109   5.305   3.809   3.090
19404SOL    HW260110   5.330   3.716   3.206
19405SOL     OW60111   5.213  12.650  10.143
19405SOL    HW160112   5.278  12.719  10.151
19405SOL    HW260113   5.131  12.690  10.172
19406SOL     OW60114  11.447   9.802   2.592
19406SOL    HW160115  11.459   9.896   2.577
19406SOL    HW260116  11.357   9.785   2.566
19407SOL     OW60117  13.787  13.282   7.386
19407SOL    HW160118  13.809  13.369   7.353
19407SOL    HW260119  13.693  13.285   7.403
19408SOL     OW60120   3.968   8.706  13.111
19408SOL    HW160121   3.939   8.772  13.047
19408SOL    HW260122   3.999   8.757  13.185
19409SOL     OW60123   4.636   6.426   1.419
19409SOL    HW160124   4.589   6.509   1.412
19409SOL    HW260125   4.714   6.448   1.470
19410SOL     OW60126   9.015  13.465   5.093
19410SOL    HW160127   9.024  13.527   5.020
19410SOL    HW260128   8.973  13.515   5.162
19411SOL     OW60129   7.827   5.404   9.834
19411SOL    HW160130   7.763   5.468   9.802
19411SOL    HW260131   7.809   5.396   9.928
19412SOL     OW60132   0.308  14.384   1.203
19412SOL    HW160133   0.398  14.415   1.199
19412SOL    HW260134   0.260  14.442   1.144
19413SOL     OW60135   2.506  14.442  12.399
19413SOL    HW160136   2.546  14.420  12.315
19413SOL    HW260137   2.435  14.378  12.409
19414SOL     OW60138   6.891   0.906   2.561
19414SOL    HW160139   6.978   0.929   2.529
19414SOL    HW260140   6.831   0.950   2.501
19415SOL     OW60141   2.063  13.653  11.384
19415SOL    HW160142   2.027  13.656  11.473
19415SOL    HW260143   2.030  13.571  11.348
19416SOL     OW60144   3.486   4.690   8.429
19416SOL    HW160145   3.461   4.742   8.505
19416SOL    HW260146   3.526   4.754   8.369
19417SOL     OW60147  10.244   7.646   1.151
19417SOL    HW160148  10.166   7.652   1.207
19417SOL    HW260149  10.294   7.572   1.188
19418SOL     OW60150   0.140   1.005  10.965
19418SOL    HW160151   0.211   1.058  10.999
19418SOL    HW260152   0.148   0.922  11.012
19419SOL     OW60153  13.352   1.308   6.065
19419SOL    HW160154  13.300   1.372   6.016
19419SOL    HW260155  13.435   1.304   6.017
19420SOL     OW60156  10.454   3.759   1.100
19420SOL    HW160157  10.402   3.764   1.181
19420SOL    HW260158  10.435   3.672   1.065
19421SOL     OW60159  13.725  14.324   6.982
19421SOL    HW160160  13.652  14.353   7.037
19421SOL    HW260161  13.802  14.369   7.017
19422SOL     OW60162  11.252   7.904   8.722
19422SOL    HW160163  11.270   7.810   8.723
19422SOL    HW260164  11.267   7.933   8.811
19423SOL     OW60165   2.976   7.623  13.020
19423SOL    HW160166   2.981   7.692  12.954
19423SOL    HW260167   2.951   7.668  13.100
19424SOL     OW60168   5.157   8.600  12.335
19424SOL    HW160169   5.077   8.644  12.363
19424SOL    HW260170   5.208   8.667  12.291
19425SOL     OW60171   2.267  12.936   0.963
19425SOL    HW160172   2.186  12.929   0.912
19425SOL    HW260173   2.316  13.006   0.919
19426SOL     OW60174   3.580  14.792  12.027
19426SOL    HW160175   3.631  14.742  11.963
19426SOL    HW260176   3.592  14.744  12.109
19427SOL     OW60177   5.995  12.981  11.507
19427SOL    HW160178   6.068  12.993  11.447
19427SOL    HW260179   5.944  12.910  11.469
19428SOL     OW60180   1.367   2.167  13.337
19428SOL    HW160181   1.449   2.157  13.288
19428SOL    HW260182   1.395   2.177  13.428
19429SOL     OW60183  12.418   7.356  14.179
19429SOL    HW160184  12.381   7.385  14.262
19429SOL    HW260185  12.423   7.435  14.126
19430SOL     OW60186   7.693   5.328   4.862
19430SOL    HW160187   7.711   5.266   4.931
19430SOL    HW260188   7.607   5.365   4.884
19431SOL     OW60189   1.577   6.556   3.871
19431SOL    HW160190   1.488   6.522   3.876
19431SOL    HW260191   1.567   6.644   3.833
19432SOL     OW60192  12.881   3.698  11.702
19432SOL    HW160193  12.803   3.745  11.674
19432SOL    HW260194  12.949   3.725  11.640
19433SOL     OW60195   5.484   1.500   9.395
19433SOL    HW160196   5.421   1.448   9.346
19433SOL    HW260197   5.431   1.547   9.460
19434SOL     OW60198   7.469  11.880   3.614
19434SOL    HW160199   7.450  11.898   3.522
19434SOL    HW260200   7.467  11.966   3.657
19435SOL     OW60201   0.787   6.100  13.268
19435SOL    HW160202   0.847   6.117  13.195
19435SOL    HW260203   0.710   6.154  13.249
19436SOL     OW60204   2.017  10.716   1.085
19436SOL    HW160205   2.038  10.799   1.043
19436SOL    HW260206   2.098  10.665   1.080
19437SOL     OW60207   8.956   7.161   0.429
19437SOL    HW160208   8.910   7.109   0.364
19437SOL    HW260209   8.887   7.199   0.483
19438SOL     OW60210  14.858   3.377   9.240
19438SOL    HW160211  14.851   3.351   9.332
19438SOL    HW260212  14.817   3.463   9.236
19439SOL     OW60213   5.898   6.805   2.242
19439SOL    HW160214   5.879   6.869   2.310
19439SOL    HW260215   5.913   6.857   2.163
19440SOL     OW60216   4.634  14.089  10.001
19440SOL    HW160217   4.655  14.174   9.964
19440SOL    HW260218   4.714  14.037   9.990
19441SOL     OW60219  13.921  11.645   2.738
19441SOL    HW160220  13.997  11.660   2.682
19441SOL    HW260221  13.863  11.590   2.685
19442SOL     OW60222   7.326   2.286   6.239
19442SOL    HW160223   7.364   2.371   6.215
19442SOL    HW260224   7.394   2.243   6.291
19443SOL     OW60225  11.016   4.892  14.152
19443SOL    HW160226  10.986   4.983  14.155
19443SOL    HW260227  10.984   4.854  14.234
19444SOL     OW60228  13.436   5.377  12.383
19444SOL    HW160229  13.492   5.383  12.305
19444SOL    HW260230  13.496   5.391  12.456
19445SOL     OW60231   8.009   3.799   5.452
19445SOL    HW160232   7.985   3.799   5.360
19445SOL    HW260233   7.927   3.818   5.498
19446SOL     OW60234   5.892   0.243   1.661
19446SOL    HW160235   5.808   0.198   1.673
19446SOL    HW260236   5.926   0.210   1.579
19447SOL     OW60237   7.595   4.492  13.354
19447SOL    HW160238   7.534   4.529  13.418
19447SOL    HW260239   7.576   4.540  13.273
19448SOL     OW60240  10.384  10.543   0.207
19448SOL    HW160241  10.318  10.577   0.268
19448SOL    HW260242  10.400  10.453   0.237
19449SOL     OW60243  10.871   3.168   1.334
19449SOL    HW160244  10.927   3.144   1.260
19449SOL    HW260245  10.809   3.095   1.341
19450SOL     OW60246   0.331   1.387   2.585
19450SOL    HW160247   0.241   1.393   2.615
19450SOL    HW260248   0.345   1.293   2.569
19451SOL     OW60249  13.212  10.328   3.334
19451SOL    HW160250  13.255  10.296   3.254
19451SOL    HW260251  13.127  10.358   3.303
19452SOL     OW60252   3.557  10.608   0.660
19452SOL    HW160253   3.631  10.554   0.689
19452SOL    HW260254   3.566  10.612   0.565
19453SOL     OW60255   2.336   7.896   6.655
19453SOL    HW160256   2.370   7.881   6.742
19453SOL    HW260257   2.263   7.957   6.667
19454SOL     OW60258  14.189   4.962  11.485
19454SOL    HW160259  14.191   4.915  11.402
19454SOL    HW260260  14.112   4.929  11.530
19455SOL     OW60261  14.399   8.028   1.667
19455SOL    HW160262  14.436   8.080   1.738
19455SOL    HW260263  14.376   7.944   1.708
19456SOL     OW60264   2.341   3.180   6.636
19456SOL    HW160265   2.379   3.096   6.664
19456SOL    HW260266   2.285   3.205   6.709
19457SOL     OW60267   6.229   1.476   7.543
19457SOL    HW160268   6.236   1.468   7.638
19457SOL    HW260269   6.267   1.561   7.523
19458SOL     OW60270   0.318   4.721   1.437
19458SOL    HW160271   0.366   4.657   1.490
19458SOL    HW260272   0.281   4.782   1.501
19459SOL     OW60273  14.064   2.951   2.912
19459SOL    HW160274  14.143   2.906   2.882
19459SOL    HW260275  14.086   2.980   3.001
19460SOL     OW60276  11.831   3.842   7.304
19460SOL    HW160277  11.862   3.931   7.323
19460SOL    HW260278  11.821   3.839   7.209
19461SOL     OW60279   3.018   6.154   2.560
19461SOL    HW160280   3.029   6.192   2.647
19461SOL    HW260281   3.049   6.222   2.500
19462SOL     OW60282  11.804   9.571  12.571
19462SOL    HW160283  11.850   9.502  12.524
19462SOL    HW260284  11.726   9.589  12.520
19463SOL     OW60285   7.658   0.729  11.063
19463SOL    HW160286   7.636   0.640  11.093
19463SOL    HW260287   7.642   0.784  11.139
19464SOL     OW60288   1.298   5.797   7.171
19464SOL    HW160289   1.238   5.722   7.167
19464SOL    HW260290   1.369   5.768   7.228
19465SOL     OW60291  13.067  10.902   6.417
19465SOL    HW160292  13.016  10.821   6.426
19465SOL    HW260293  13.156  10.878   6.443
19466SOL     OW60294  13.992   8.385   9.181
19466SOL    HW160295  13.957   8.377   9.269
19466SOL    HW260296  13.966   8.304   9.137
19467SOL     OW60297   8.236  14.865  12.868
19467SOL    HW160298   8.165   0.001  12.932
19467SOL    HW260299   8.302  14.808  12.908
19468SOL     OW60300  13.969   8.067  10.930
19468SOL    HW160301  13.897   8.008  10.954
19468SOL    HW260302  13.991   8.112  11.012
19469SOL     OW60303   8.296  14.357   1.828
19469SOL    HW160304   8.384  14.339   1.862
19469SOL    HW260305   8.289  14.452   1.829
19470SOL     OW60306  14.454  12.017  13.866
19470SOL    HW160307  14.441  12.102  13.823
19470SOL    HW260308  14.457  11.954  13.794
19471SOL     OW60309   1.845  11.990   3.860
19471SOL    HW160310   1.872  11.900   3.841
19471SOL    HW260311   1.783  11.982   3.932
19472SOL     OW60312  10.998   6.728   3.994
19472SOL    HW160313  11.006   6.693   4.082
19472SOL    HW260314  10.944   6.663   3.947
19473SOL     OW60315   6.857   6.598   8.281
19473SOL    HW160316   6.796   6.525   8.271
19473SOL    HW260317   6.802   6.675   8.290
19474SOL     OW60318  14.671   8.622   1.596
19474SOL    HW160319  14.704   8.703   1.635
19474SOL    HW260320  14.656   8.564   1.670
19475SOL     OW60321   1.019  11.122   4.552
19475SOL    HW160322   0.986  11.206   4.582
19475SOL    HW260323   0.941  11.068   4.540
19476SOL     OW60324   6.864   7.461  12.081
19476SOL    HW160325   6.930   7.394  12.097
19476SOL    HW260326   6.891   7.534  12.137
19477SOL     OW60327   7.191   8.368  10.514
19477SOL    HW160328   7.121   8.355  10.449
19477SOL    HW260329   7.147   8.408  10.588
19478SOL     OW60330   2.904   1.850   7.683
19478SOL    HW160331   2.846   1.848   7.760
19478SOL    HW260332   2.962   1.925   7.698
19479SOL     OW60333   5.159   9.908  14.781
19479SOL    HW160334   5.196   9.825  14.750
19479SOL    HW260335   5.181   9.911   0.006
19480SOL     OW60336   3.149   5.770  10.114
19480SOL    HW160337   3.226   5.822  10.089
19480SOL    HW260338   3.076   5.811  10.068
19481SOL     OW60339  13.920   4.381   3.888
19481SOL    HW160340  13.886   4.419   3.807
19481SOL    HW260341  13.889   4.440   3.957
19482SOL     OW60342   0.339  11.275   5.573
19482SOL    HW160343   0.361  11.355   5.525
19482SOL    HW260344   0.266  11.237   5.524
19483SOL     OW60345   5.665   4.865   3.698
19483SOL    HW160346   5.729   4.864   3.628
19483SOL    HW260347   5.665   4.776   3.734
19484SOL     OW60348  10.099   4.022  14.682
19484SOL    HW160349  10.114   4.085  14.611
19484SOL    HW260350  10.110   4.074  14.762
19485SOL     OW60351   4.530   2.341  10.885
19485SOL    HW160352   4.498   2.257  10.919
19485SOL    HW260353   4.456   2.376  10.834
19486SOL     OW60354   5.244  10.591  13.929
19486SOL    HW160355   5.236  10.543  14.012
19486SOL    HW260356   5.337  10.583  13.906
19487SOL     OW60357   4.539  10.812  10.088
19487SOL    HW160358   4.484  10.871  10.140
19487SOL    HW260359   4.504  10.725  10.106
19488SOL     OW60360   8.115   7.232   4.629
19488SOL    HW160361   8.136   7.301   4.692
19488SOL    HW260362   8.115   7.276   4.544
19489SOL     OW60363   9.660   2.069  14.288
19489SOL    HW160364   9.586   2.023  14.248
19489SOL    HW260365   9.660   2.155  14.245
19490SOL     OW60366   3.211   4.957   5.964
19490SOL    HW160367   3.163   4.904   6.028
19490SOL    HW260368   3.303   4.934   5.977
19491SOL     OW60369  11.925   3.253  10.833
19491SOL    HW160370  11.995   3.297  10.785
19491SOL    HW260371  11.869   3.216  10.764
19492SOL     OW60372  14.000   0.668   6.865
19492SOL    HW160373  14.028   0.754   6.897
19492SOL    HW260374  14.079   0.614   6.871
19493SOL     OW60375   3.810   2.946  12.677
19493SOL    HW160376   3.829   3.039  12.660
19493SOL    HW260377   3.803   2.907  12.590
19494SOL     OW60378   0.722   8.468   0.499
19494SOL    HW160379   0.666   8.453   0.575
19494SOL    HW260380   0.743   8.561   0.502
19495SOL     OW60381  10.653   4.319   7.597
19495SOL    HW160382  10.659   4.253   7.527
19495SOL    HW260383  10.596   4.279   7.663
19496SOL     OW60384  10.670   2.931   2.856
19496SOL    HW160385  10.648   2.851   2.903
19496SOL    HW260386  10.683   2.903   2.765
19497SOL     OW60387   2.335   6.553  10.347
19497SOL    HW160388   2.373   6.498  10.416
19497SOL    HW260389   2.409   6.573  10.289
19498SOL     OW60390  13.845  12.155   4.493
19498SOL    HW160391  13.826  12.146   4.587
19498SOL    HW260392  13.772  12.206   4.459
19499SOL     OW60393   4.943  10.478  12.254
19499SOL    HW160394   4.883  10.546  12.286
19499SOL    HW260395   5.031  10.514  12.271
19500SOL     OW60396   7.413   7.354  13.434
19500SOL    HW160397   7.467   7.285  13.396
19500SOL    HW260398   7.386   7.408  13.360
19501SOL     OW60399   5.372   5.796  13.452
19501SOL    HW160400   5.439   5.857  13.484
19501SOL    HW260401   5.410   5.709  13.467
19502SOL     OW60402   9.711   9.455   6.064
19502SOL    HW160403   9.796   9.419   6.092
19502SOL    HW260404   9.709   9.439   5.969
19503SOL     OW60405  11.168   3.817  14.125
19503SOL    HW160406  11.138   3.744  14.070
19503SOL    HW260407  11.177   3.890  14.064
19504SOL     OW60408  14.644  12.436   7.690
19504SOL    HW160409  14.645  12.477   7.604
19504SOL    HW260410  14.609  12.503   7.749
19505SOL     OW60411  12.850  12.775  11.214
19505SOL    HW160412  12.902  12.705  11.254
19505SOL    HW260413  12.897  12.855  11.236
19506SOL     OW60414   2.377   8.471   0.929
19506SOL    HW160415   2.348   8.430   1.010
19506SOL    HW260416   2.311   8.448   0.865
19507SOL     OW60417   0.180  12.446   0.639
19507SOL    HW160418   0.201  12.384   0.709
19507SOL    HW260419   0.258  12.448   0.584
19508SOL     OW60420  11.592   2.857  13.303
19508SOL    HW160421  11.642   2.788  13.346
19508SOL    HW260422  11.504   2.822  13.296
19509SOL     OW60423   2.855   1.205   0.238
19509SOL    HW160424   2.763   1.181   0.228
19509SOL    HW260425   2.894   1.187   0.153
19510SOL     OW60426   5.590   2.069   8.495
19510SOL    HW160427   5.567   2.106   8.409
19510SOL    HW260428   5.516   2.092   8.551
19511SOL     OW60429   4.783   4.306   3.108
19511SOL    HW160430   4.714   4.253   3.070
19511SOL    HW260431   4.842   4.243   3.149
19512SOL     OW60432  14.615   0.181   7.815
19512SOL    HW160433  14.705   0.195   7.844
19512SOL    HW260434  14.567   0.257   7.847
19513SOL     OW60435   7.328   0.709   8.201
19513SOL    HW160436   7.357   0.737   8.115
19513SOL    HW260437   7.237   0.736   8.207
19514SOL     OW60438  12.077   9.433   6.397
19514SOL    HW160439  12.070   9.375   6.473
19514SOL    HW260440  12.158   9.482   6.413
19515SOL     OW60441   5.436   1.765  12.382
19515SOL    HW160442   5.526   1.735  12.397
19515SOL    HW260443   5.403   1.789  12.469
19516SOL     OW60444  11.008  14.019  12.712
19516SOL    HW160445  11.004  14.115  12.709
19516SOL    HW260446  10.925  13.993  12.754
19517SOL     OW60447   2.953   4.063   6.740
19517SOL    HW160448   3.037   4.074   6.696
19517SOL    HW260449   2.891   4.111   6.685
19518SOL     OW60450   7.043   7.135   2.218
19518SOL    HW160451   7.037   7.221   2.260
19518SOL    HW260452   7.121   7.095   2.256
19519SOL     OW60453  13.602   4.142   9.821
19519SOL    HW160454  13.586   4.089   9.899
19519SOL    HW260455  13.625   4.228   9.855
19520SOL     OW60456   0.709  13.519   1.329
19520SOL    HW160457   0.746  13.439   1.364
19520SOL    HW260458   0.778  13.556   1.274
19521SOL     OW60459   9.794   7.630   5.398
19521SOL    HW160460   9.775   7.720   5.423
19521SOL    HW260461   9.730   7.610   5.330
19522SOL     OW60462   9.259   2.965  13.917
19522SOL    HW160463   9.221   2.911  13.986
19522SOL    HW260464   9.250   3.055  13.950
19523SOL     OW60465   4.503  13.758   1.267
19523SOL    HW160466   4.542  13.836   1.228
19523SOL    HW260467   4.539  13.685   1.217
19524SOL     OW60468   8.195   9.749  12.265
19524SOL    HW160469   8.187   9.768  12.358
19524SOL    HW260470   8.124   9.688  12.246
19525SOL     OW60471  12.993   0.266   6.090
19525SOL    HW160472  12.946   0.311   6.020
19525SOL    HW260473  13.072   0.232   6.047
19526SOL     OW60474  14.767   8.501   5.930
19526SOL    HW160475  14.827   8.474   5.860
19526SOL    HW260476  14.708   8.564   5.888
19527SOL     OW60477  10.904  14.459   9.490
19527SOL    HW160478  10.894  14.364   9.494
19527SOL    HW260479  10.863  14.491   9.570
19528SOL     OW60480   1.004  10.918   4.921
19528SOL    HW160481   0.937  10.952   4.861
19528SOL    HW260482   0.958  10.906   5.004
19529SOL     OW60483   0.997   9.635   2.358
19529SOL    HW160484   1.057   9.606   2.427
19529SOL    HW260485   0.983   9.557   2.304
19530SOL     OW60486   1.854   6.994  13.760
19530SOL    HW160487   1.886   7.073  13.716
19530SOL    HW260488   1.837   6.932  13.689
19531SOL     OW60489  14.323   6.984   1.939
19531SOL    HW160490  14.375   6.966   2.018
19531SOL    HW260491  14.389   7.003   1.872
19532SOL     OW60492   9.556   4.966  11.362
19532SOL    HW160493   9.601   4.964  11.446
19532SOL    HW260494   9.479   5.020  11.378
19533SOL     OW60495   2.155   3.080  12.534
19533SOL    HW160496   2.193   3.005  12.579
19533SOL    HW260497   2.200   3.156  12.571
19534SOL     OW60498  12.056   7.440   3.823
19534SOL    HW160499  12.031   7.367   3.767
19534SOL    HW260500  12.148   7.455   3.804
19535SOL     OW60501   1.686  13.954   2.316
19535SOL    HW160502   1.722  13.993   2.395
19535SOL    HW260503   1.748  13.978   2.247
19536SOL     OW60504   8.162  13.941   9.569
19536SOL    HW160505   8.240  13.926   9.516
19536SOL    HW260506   8.139  14.033   9.553
19537SOL     OW60507  12.360   0.167   6.638
19537SOL    HW160508  12.279   0.185   6.592
19537SOL    HW260509  12.345   0.201   6.727
19538SOL     OW60510  12.858  12.842   4.763
19538SOL    HW160511  12.869  12.817   4.671
19538SOL    HW260512  12.796  12.778   4.798
19539SOL     OW60513  11.300   1.679   4.047
19539SOL    HW160514  11.292   1.621   4.122
19539SOL    HW260515  11.256   1.632   3.976
19540SOL     OW60516   8.301  10.590   5.585
19540SOL    HW160517   8.344  10.525   5.641
19540SOL    HW260518   8.208  10.583   5.607
19541SOL     OW60519  12.809   7.244   9.126
19541SOL    HW160520  12.819   7.188   9.049
19541SOL    HW260521  12.759   7.192   9.188
19542SOL     OW60522   2.368  13.176  10.991
19542SOL    HW160523   2.357  13.234  10.916
19542SOL    HW260524   2.355  13.088  10.956
19543SOL     OW60525   3.185   2.846  11.252
19543SOL    HW160526   3.188   2.754  11.278
19543SOL    HW260527   3.092   2.862  11.234
19544SOL     OW60528   3.340   3.272   3.104
19544SOL    HW160529   3.362   3.292   3.194
19544SOL    HW260530   3.364   3.179   3.093
19545SOL     OW60531   3.404   4.337  13.817
19545SOL    HW160532   3.438   4.248  13.821
19545SOL    HW260533   3.466   4.384  13.760
19546SOL     OW60534   0.434   7.156   2.552
19546SOL    HW160535   0.446   7.105   2.632
19546SOL    HW260536   0.511   7.211   2.547
19547SOL     OW60537   6.964   9.449   2.038
19547SOL    HW160538   6.985   9.360   2.010
19547SOL    HW260539   6.873   9.443   2.069
19548SOL     OW60540   6.627   9.497  10.532
19548SOL    HW160541   6.617   9.592  10.543
19548SOL    HW260542   6.588   9.459  10.610
19549SOL     OW60543  14.168   8.257  14.051
19549SOL    HW160544  14.131   8.228  13.967
19549SOL    HW260545  14.103   8.232  14.116
19550SOL     OW60546  10.775   1.379  10.291
19550SOL    HW160547  10.686   1.405  10.313
19550SOL    HW260548  10.775   1.284  10.301
19551SOL     OW60549   7.717   7.243  12.450
19551SOL    HW160550   7.807   7.247  12.483
19551SOL    HW260551   7.715   7.162  12.399
19552SOL     OW60552   7.482   6.029   1.172
19552SOL    HW160553   7.468   5.959   1.236
19552SOL    HW260554   7.566   6.007   1.131
19553SOL     OW60555  12.599  11.763   3.191
19553SOL    HW160556  12.564  11.827   3.253
19553SOL    HW260557  12.568  11.679   3.222
19554SOL     OW60558  10.186   6.291   3.413
19554SOL    HW160559  10.187   6.274   3.319
19554SOL    HW260560  10.108   6.245   3.445
19555SOL     OW60561  13.799  13.568   7.319
19555SOL    HW160562  13.769  13.621   7.394
19555SOL    HW260563  13.750  13.603   7.245
19556SOL     OW60564   1.873   8.596  13.981
19556SOL    HW160565   1.785   8.579  14.015
19556SOL    HW260566   1.858   8.646  13.901
19557SOL     OW60567  12.915   8.867  13.724
19557SOL    HW160568  12.993   8.916  13.697
19557SOL    HW260569  12.942   8.821  13.804
19558SOL     OW60570   6.530   2.393   6.064
19558SOL    HW160571   6.436   2.376   6.075
19558SOL    HW260572   6.565   2.311   6.028
19559SOL     OW60573  11.311  12.802   1.474
19559SOL    HW160574  11.316  12.862   1.399
19559SOL    HW260575  11.396  12.812   1.517
19560SOL     OW60576   7.772  14.825   8.336
19560SOL    HW160577   7.868  14.827   8.345
19560SOL    HW260578   7.754   0.004   8.255
19561SOL     OW60579   1.715  13.811   3.636
19561SOL    HW160580   1.770  13.767   3.571
19561SOL    HW260581   1.754  13.788   3.720
19562SOL     OW60582   6.410   7.392  14.397
19562SOL    HW160583   6.416   7.482  14.366
19562SOL    HW260584   6.491   7.378  14.446
19563SOL     OW60585  12.085   5.828   3.170
19563SOL    HW160586  12.027   5.825   3.094
19563SOL    HW260587  12.029   5.809   3.245
19564SOL     OW60588  11.833  13.945   7.875
19564SOL    HW160589  11.903  13.892   7.914
19564SOL    HW260590  11.753  13.898   7.897
19565SOL     OW60591   8.054   9.813   9.116
19565SOL    HW160592   8.015   9.733   9.153
19565SOL    HW260593   8.125   9.834   9.177
19566SOL     OW60594  11.660  13.520  12.234
19566SOL    HW160595  11.731  13.489  12.291
19566SOL    HW260596  11.682  13.485  12.148
19567SOL     OW60597   4.200  11.370   4.400
19567SOL    HW160598   4.107  11.371   4.423
19567SOL    HW260599   4.244  11.337   4.478
19568SOL     OW60600   6.685   7.979   4.575
19568SOL    HW160601   6.711   8.020   4.493
19568SOL    HW260602   6.594   7.953   4.561
19569SOL     OW60603   4.035  10.691   0.669
19569SOL    HW160604   4.034  10.705   0.764
19569SOL    HW260605   3.969  10.752   0.635
19570SOL     OW60606   2.218   4.452   8.029
19570SOL    HW160607   2.293   4.417   7.980
19570SOL    HW260608   2.142   4.424   7.978
19571SOL     OW60609   2.987   5.186  13.969
19571SOL    HW160610   3.023   5.256  14.023
19571SOL    HW260611   3.060   5.128  13.952
19572SOL     OW60612   4.915   9.658   2.581
19572SOL    HW160613   4.902   9.714   2.505
19572SOL    HW260614   4.975   9.708   2.637
19573SOL     OW60615   1.990   0.592   9.549
19573SOL    HW160616   1.911   0.636   9.516
19573SOL    HW260617   2.015   0.643   9.626
19574SOL     OW60618   9.412   9.177   7.973
19574SOL    HW160619   9.482   9.236   8.001
19574SOL    HW260620   9.408   9.187   7.878
19575SOL     OW60621   6.716   9.892  11.461
19575SOL    HW160622   6.694   9.807  11.424
19575SOL    HW260623   6.689   9.885  11.553
19576SOL     OW60624   1.212   6.159   4.357
19576SOL    HW160625   1.279   6.228   4.354
19576SOL    HW260626   1.168   6.165   4.272
19577SOL     OW60627   3.416  11.517   9.418
19577SOL    HW160628   3.435  11.431   9.456
19577SOL    HW260629   3.350  11.499   9.351
19578SOL     OW60630   4.613  11.136  12.900
19578SOL    HW160631   4.593  11.137  12.807
19578SOL    HW260632   4.529  11.114  12.942
19579SOL     OW60633   3.254   9.062   9.909
19579SOL    HW160634   3.283   8.971   9.897
19579SOL    HW260635   3.335   9.111   9.924
19580SOL     OW60636  10.266   0.991  11.367
19580SOL    HW160637  10.310   0.951  11.291
19580SOL    HW260638  10.275   0.926  11.437
19581SOL     OW60639   6.327  10.870   8.771
19581SOL    HW160640   6.264  10.815   8.726
19581SOL    HW260641   6.274  10.924   8.830
19582SOL     OW60642   6.234   8.843  13.242
19582SOL    HW160643   6.255   8.903  13.314
19582SOL    HW260644   6.226   8.757  13.284
19583SOL     OW60645   6.674   8.572   9.894
19583SOL    HW160646   6.689   8.535   9.806
19583SOL    HW260647   6.580   8.588   9.898
19584SOL     OW60648  12.030  14.106   5.074
19584SOL    HW160649  12.077  14.028   5.105
19584SOL    HW260650  12.028  14.164   5.150
19585SOL     OW60651   5.859  12.686   1.858
19585SOL    HW160652   5.804  12.751   1.814
19585SOL    HW260653   5.797  12.624   1.896
19586SOL     OW60654   1.372  13.180   3.940
19586SOL    HW160655   1.418  13.247   3.889
19586SOL    HW260656   1.282  13.212   3.946
19587SOL     OW60657   2.741  11.231   0.732
19587SOL    HW160658   2.776  11.192   0.813
19587SOL    HW260659   2.725  11.323   0.755
19588SOL     OW60660   2.520   9.499  11.123
19588SOL    HW160661   2.538   9.501  11.029
19588SOL    HW260662   2.567   9.422  11.155
19589SOL     OW60663   8.110   5.745   1.139
19589SOL    HW160664   8.155   5.737   1.223
19589SOL    HW260665   8.080   5.836   1.136
19590SOL     OW60666   8.382   7.785   7.851
19590SOL    HW160667   8.390   7.693   7.826
19590SOL    HW260668   8.293   7.793   7.885
19591SOL     OW60669   1.908  14.009  10.321
19591SOL    HW160670   1.828  14.027  10.371
19591SOL    HW260671   1.920  13.914  10.329
19592SOL     OW60672  11.913   6.646   9.494
19592SOL    HW160673  11.849   6.582   9.464
19592SOL    HW260674  11.964   6.668   9.416
19593SOL     OW60675   5.233  13.730   7.046
19593SOL    HW160676   5.154  13.748   7.097
19593SOL    HW260677   5.258  13.642   7.070
19594SOL     OW60678   4.805   7.322   5.191
19594SOL    HW160679   4.840   7.400   5.234
19594SOL    HW260680   4.877   7.291   5.136
19595SOL     OW60681   0.412   7.434  14.744
19595SOL    HW160682   0.345   7.384  14.790
19595SOL    HW260683   0.364   7.503  14.699
19596SOL     OW60684   7.337  12.852   1.890
19596SOL    HW160685   7.373  12.918   1.949
19596SOL    HW260686   7.277  12.900   1.834
19597SOL     OW60687   9.036   0.994   6.075
19597SOL    HW160688   9.080   0.984   5.991
19597SOL    HW260689   9.071   1.075   6.111
19598SOL     OW60690   9.970   1.757   4.712
19598SOL    HW160691   9.946   1.768   4.620
19598SOL    HW260692  10.009   1.842   4.736
19599SOL     OW60693  12.181   2.465   4.568
19599SOL    HW160694  12.181   2.551   4.525
19599SOL    HW260695  12.092   2.433   4.558
19600SOL     OW60696   3.485  11.329   0.006
19600SOL    HW160697   3.532  11.261  14.826
19600SOL    HW260698   3.396  11.325  14.840
19601SOL     OW60699   1.210   4.954  14.014
19601SOL    HW160700   1.233   4.906  14.094
19601SOL    HW260701   1.123   4.989  14.032
19602SOL     OW60702  11.638   7.183   6.307
19602SOL    HW160703  11.681   7.152   6.227
19602SOL    HW260704  11.622   7.276   6.290
19603SOL     OW60705   5.839   5.253   0.899
19603SOL    HW160706   5.771   5.319   0.884
19603SOL    HW260707   5.802   5.194   0.965
19604SOL     OW60708  14.244   3.668   0.226
19604SOL    HW160709  14.265   3.585   0.270
19604SOL    HW260710  14.311   3.677   0.159
19605SOL     OW60711  10.999   4.347   4.420
19605SOL    HW160712  10.942   4.391   4.357
19605SOL    HW260713  11.087   4.377   4.396
19606SOL     OW60714   6.734   7.202  13.236
19606SOL    HW160715   6.646   7.238  13.232
19606SOL    HW260716   6.755   7.180  13.145
19607SOL     OW60717   6.775   3.057   1.393
19607SOL    HW160718   6.737   3.059   1.306
19607SOL    HW260719   6.722   3.118   1.445
19608SOL     OW60720  10.259  11.605   3.719
19608SOL    HW160721  10.325  11.615   3.788
19608SOL    HW260722  10.299  11.544   3.657
19609SOL     OW60723   5.344   0.794   6.121
19609SOL    HW160724   5.371   0.756   6.204
19609SOL    HW260725   5.426   0.824   6.081
19610SOL     OW60726   3.643   7.970   1.268
19610SOL    HW160727   3.721   7.997   1.220
19610SOL    HW260728   3.657   8.002   1.357
19611SOL     OW60729   4.587   7.695   4.785
19611SOL    HW160730   4.556   7.785   4.793
19611SOL    HW260731   4.615   7.671   4.873
19612SOL     OW60732  10.896  10.994  10.620
19612SOL    HW160733  10.851  11.025  10.699
19612SOL    HW260734  10.870  11.055  10.552
19613SOL     OW60735  11.364  11.514   7.366
19613SOL    HW160736  11.338  11.502   7.457
19613SOL    HW260737  11.442  11.570   7.369
19614SOL     OW60738   2.139  10.522  12.475
19614SOL    HW160739   2.047  10.513  12.497
19614SOL    HW260740   2.140  10.582  12.401
19615SOL     OW60741   6.216   2.052   4.366
19615SOL    HW160742   6.207   2.144   4.389
19615SOL    HW260743   6.182   2.047   4.276
19616SOL     OW60744   8.650  10.859   8.249
19616SOL    HW160745   8.605  10.790   8.298
19616SOL    HW260746   8.602  10.939   8.269
19617SOL     OW60747  11.169   2.014  13.676
19617SOL    HW160748  11.183   1.924  13.706
19617SOL    HW260749  11.132   2.059  13.753
19618SOL     OW60750   5.889   6.786   5.600
19618SOL    HW160751   5.838   6.849   5.651
19618SOL    HW260752   5.881   6.704   5.648
19619SOL     OW60753  11.232   0.003   7.020
19619SOL    HW160754  11.152   0.014   6.968
19619SOL    HW260755  11.262   0.092   7.037
19620SOL     OW60756   9.208   7.134  12.706
19620SOL    HW160757   9.149   7.205  12.731
19620SOL    HW260758   9.268   7.174  12.643
19621SOL     OW60759   3.934   8.154   6.153
19621SOL    HW160760   3.888   8.096   6.092
19621SOL    HW260761   3.888   8.238   6.146
19622SOL     OW60762   7.180  12.848   3.256
19622SOL    HW160763   7.179  12.937   3.220
19622SOL    HW260764   7.124  12.798   3.197
19623SOL     OW60765  14.698   7.660  12.088
19623SOL    HW160766  14.665   7.644  12.176
19623SOL    HW260767  14.627   7.706  12.044
19624SOL     OW60768  13.922  13.618   3.599
19624SOL    HW160769  13.841  13.647   3.556
19624SOL    HW260770  13.947  13.691   3.656
19625SOL     OW60771   8.547   2.562   0.440
19625SOL    HW160772   8.530   2.468   0.434
19625SOL    HW260773   8.499   2.600   0.366
19626SOL     OW60774   2.067   8.439  13.761
19626SOL    HW160775   1.995   8.442  13.823
19626SOL    HW260776   2.143   8.411  13.813
19627SOL     OW60777  12.433  14.269   7.607
19627SOL    HW160778  12.425  14.339   7.543
19627SOL    HW260779  12.526  14.264   7.626
19628SOL     OW60780  13.686   4.076   7.875
19628SOL    HW160781  13.697   4.158   7.827
19628SOL    HW260782  13.712   4.096   7.965
19629SOL     OW60783  13.183   7.366   7.030
19629SOL    HW160784  13.141   7.389   7.113
19629SOL    HW260785  13.200   7.450   6.987
19630SOL     OW60786   0.584   2.467   9.845
19630SOL    HW160787   0.591   2.373   9.861
19630SOL    HW260788   0.645   2.506   9.908
19631SOL     OW60789  11.651   9.447   1.458
19631SOL    HW160790  11.660   9.483   1.370
19631SOL    HW260791  11.733   9.399   1.472
19632SOL     OW60792   5.696   5.537  12.092
19632SOL    HW160793   5.649   5.474  12.147
19632SOL    HW260794   5.763   5.485  12.049
19633SOL     OW60795   9.491   5.025   1.674
19633SOL    HW160796   9.478   5.023   1.769
19633SOL    HW260797   9.533   4.941   1.654
19634SOL     OW60798   9.707   0.044  14.354
19634SOL    HW160799   9.702  14.836  14.412
19634SOL    HW260800   9.799   0.070  14.356
19635SOL     OW60801   2.268   3.351   8.055
19635SOL    HW160802   2.227   3.270   8.087
19635SOL    HW260803   2.339   3.369   8.117
19636SOL     OW60804   2.488   4.675   7.750
19636SOL    HW160805   2.522   4.739   7.812
19636SOL    HW260806   2.502   4.714   7.664
19637SOL     OW60807  11.983   6.601   7.315
19637SOL    HW160808  11.952   6.680   7.271
19637SOL    HW260809  12.051   6.632   7.375
19638SOL     OW60810   2.368   3.261  13.984
19638SOL    HW160811   2.319   3.311  13.918
19638SOL    HW260812   2.329   3.288  14.068
19639SOL     OW60813   8.919   0.522   8.552
19639SOL    HW160814   8.892   0.431   8.549
19639SOL    HW260815   8.959   0.539   8.466
19640SOL     OW60816  11.316  14.019   1.876
19640SOL    HW160817  11.355  14.008   1.962
19640SOL    HW260818  11.387  14.001   1.815
19641SOL     OW60819  11.332   3.353  14.135
19641SOL    HW160820  11.365   3.338  14.046
19641SOL    HW260821  11.297   3.269  14.163
19642SOL     OW60822   2.106   6.761   3.464
19642SOL    HW160823   2.103   6.691   3.529
19642SOL    HW260824   2.061   6.724   3.388
19643SOL     OW60825   3.026   0.331   9.599
19643SOL    HW160826   3.057   0.406   9.547
19643SOL    HW260827   3.017   0.365   9.688
19644SOL     OW60828   4.659  12.783   0.697
19644SOL    HW160829   4.613  12.715   0.746
19644SOL    HW260830   4.743  12.792   0.743
19645SOL     OW60831   2.932   0.189  12.876
19645SOL    HW160832   2.981   0.245  12.816
19645SOL    HW260833   2.877   0.136  12.819
19646SOL     OW60834   8.679  10.550  12.059
19646SOL    HW160835   8.680  10.643  12.036
19646SOL    HW260836   8.770  10.523  12.051
19647SOL     OW60837   9.718  14.805   5.307
19647SOL    HW160838   9.746   0.001   5.241
19647SOL    HW260839   9.772  14.826   5.384
19648SOL     OW60840  13.486  13.184   0.439
19648SOL    HW160841  13.408  13.130   0.448
19648SOL    HW260842  13.453  13.271   0.416
19649SOL     OW60843   6.915   1.608  13.180
19649SOL    HW160844   6.912   1.588  13.086
19649SOL    HW260845   6.868   1.535  13.221
19650SOL     OW60846   9.935  14.791   0.000
19650SOL    HW160847  10.031  14.794   0.002
19650SOL    HW260848   9.914  14.700   0.021
19651SOL     OW60849  10.247   5.558   3.060
19651SOL    HW160850  10.248   5.652   3.080
19651SOL    HW260851  10.313   5.520   3.118
19652SOL     OW60852   1.588   0.256  10.016
19652SOL    HW160853   1.601   0.220   9.928
19652SOL    HW260854   1.494   0.242  10.033
19653SOL     OW60855   4.085  11.478   5.042
19653SOL    HW160856   4.065  11.419   4.969
19653SOL    HW260857   4.175  11.458   5.066
19654SOL     OW60858   4.898  13.429  13.521
19654SOL    HW160859   4.873  13.505  13.574
19654SOL    HW260860   4.994  13.431  13.521
19655SOL     OW60861   5.927   3.784  12.453
19655SOL    HW160862   5.908   3.872  12.485
19655SOL    HW260863   6.018   3.789  12.424
19656SOL     OW60864  10.524   0.180  13.816
19656SOL    HW160865  10.519   0.123  13.892
19656SOL    HW260866  10.456   0.147  13.757
19657SOL     OW60867   0.025  11.626  13.414
19657SOL    HW160868   0.062  11.662  13.334
19657SOL    HW260869  14.828  11.690  13.442
19658SOL     OW60870   3.883   8.736   4.229
19658SOL    HW160871   3.969   8.745   4.190
19658SOL    HW260872   3.891   8.777   4.315
19659SOL     OW60873   7.154   5.367   2.868
19659SOL    HW160874   7.139   5.415   2.949
19659SOL    HW260875   7.193   5.432   2.809
19660SOL     OW60876   2.850   7.532   1.685
19660SOL    HW160877   2.877   7.459   1.740
19660SOL    HW260878   2.882   7.610   1.731
19661SOL     OW60879   4.518   8.602   4.860
19661SOL    HW160880   4.484   8.551   4.786
19661SOL    HW260881   4.599   8.641   4.827
19662SOL     OW60882   9.716   5.471   6.428
19662SOL    HW160883   9.685   5.475   6.338
19662SOL    HW260884   9.747   5.560   6.447
19663SOL     OW60885   7.482  10.265   2.364
19663SOL    HW160886   7.481  10.187   2.421
19663SOL    HW260887   7.493  10.338   2.425
19664SOL     OW60888   8.635   5.143  11.436
19664SOL    HW160889   8.726   5.144  11.409
19664SOL    HW260890   8.606   5.234  11.429
19665SOL     OW60891   4.013   4.830   1.285
19665SOL    HW160892   3.986   4.841   1.194
19665SOL    HW260893   3.978   4.744   1.310
19666SOL     OW60894   3.845   7.614   9.376
19666SOL    HW160895   3.752   7.590   9.385
19666SOL    HW260896   3.848   7.707   9.396
19667SOL     OW60897   7.342   1.740   4.415
19667SOL    HW160898   7.249   1.760   4.419
19667SOL    HW260899   7.348   1.648   4.442
19668SOL     OW60900   3.108   7.746   2.403
19668SOL    HW160901   3.174   7.816   2.400
19668SOL    HW260902   3.086   7.738   2.496
19669SOL     OW60903   6.127  13.369   6.852
19669SOL    HW160904   6.049  13.348   6.904
19669SOL    HW260905   6.092  13.392   6.766
19670SOL     OW60906   5.374   1.232   8.829
19670SOL    HW160907   5.382   1.286   8.751
19670SOL    HW260908   5.454   1.251   8.879
19671SOL     OW60909   3.077  12.347   9.516
19671SOL    HW160910   3.117  12.402   9.448
19671SOL    HW260911   3.107  12.258   9.497
19672SOL     OW60912   5.614  11.928  13.650
19672SOL    HW160913   5.698  11.948  13.608
19672SOL    HW260914   5.560  11.891  13.580
19673SOL     OW60915   2.550  12.445  14.553
19673SOL    HW160916   2.641  12.476  14.556
19673SOL    HW260917   2.501  12.518  14.517
19674SOL     OW60918   8.584   5.291   3.093
19674SOL    HW160919   8.601   5.199   3.071
19674SOL    HW260920   8.620   5.340   3.020
19675SOL     OW60921   4.009   1.238   0.993
19675SOL    HW160922   4.064   1.216   1.068
19675SOL    HW260923   3.934   1.179   1.000
19676SOL     OW60924  12.055  13.522   5.379
19676SOL    HW160925  12.088  13.478   5.301
19676SOL    HW260926  11.978  13.471   5.405
19677SOL     OW60927  14.623   6.746   1.865
19677SOL    HW160928  14.559   6.676   1.850
19677SOL    HW260929  14.592   6.790   1.945
19678SOL     OW60930  10.583  10.752   0.539
19678SOL    HW160931  10.522  10.679   0.537
19678SOL    HW260932  10.580  10.789   0.451
19679SOL     OW60933   1.028   4.658  10.174
19679SOL    HW160934   0.967   4.585  10.171
19679SOL    HW260935   1.045   4.680  10.082
19680SOL     OW60936   4.170  12.935   5.344
19680SOL    HW160937   4.229  12.905   5.413
19680SOL    HW260938   4.227  12.984   5.284
19681SOL     OW60939   3.100   3.364   4.755
19681SOL    HW160940   3.018   3.394   4.794
19681SOL    HW260941   3.133   3.440   4.706
19682SOL     OW60942  14.038   2.787   1.609
19682SOL    HW160943  14.038   2.694   1.588
19682SOL    HW260944  13.955   2.819   1.575
19683SOL     OW60945   8.763  14.219   7.574
19683SOL    HW160946   8.736  14.167   7.649
19683SOL    HW260947   8.693  14.284   7.562
19684SOL     OW60948   8.398  10.188  10.095
19684SOL    HW160949   8.452  10.261  10.124
19684SOL    HW260950   8.430  10.113  10.146
19685SOL     OW60951  13.416   2.338   3.542
19685SOL    HW160952  13.465   2.257   3.560
19685SOL    HW260953  13.453   2.402   3.602
19686SOL     OW60954  12.989   0.916   4.532
19686SOL    HW160955  13.014   1.008   4.541
19686SOL    HW260956  12.972   0.887   4.622
19687SOL     OW60957   7.060  11.027   1.878
19687SOL    HW160958   7.075  10.994   1.790
19687SOL    HW260959   7.077  10.952   1.935
19688SOL     OW60960   0.099   7.524   9.543
19688SOL    HW160961   0.110   7.429   9.543
19688SOL    HW260962   0.015   7.538   9.587
19689SOL     OW60963   3.291   6.353   6.412
19689SOL    HW160964   3.377   6.351   6.369
19689SOL    HW260965   3.294   6.431   6.467
19690SOL     OW60966   3.665   4.584  10.481
19690SOL    HW160967   3.631   4.641  10.550
19690SOL    HW260968   3.737   4.537  10.522
19691SOL     OW60969  12.619   2.866  11.276
19691SOL    HW160970  12.685   2.810  11.317
19691SOL    HW260971  12.594   2.928  11.345
19692SOL     OW60972  14.695   5.694  10.393
19692SOL    HW160973  14.736   5.644  10.323
19692SOL    HW260974  14.755   5.684  10.467
19693SOL     OW60975  13.215   3.620   0.488
19693SOL    HW160976  13.156   3.597   0.416
19693SOL    HW260977  13.183   3.704   0.521
19694SOL     OW60978   3.345  12.521  14.506
19694SOL    HW160979   3.250  12.516  14.499
19694SOL    HW260980   3.365  12.615  14.509
19695SOL     OW60981   3.888  12.759   1.753
19695SOL    HW160982   3.802  12.799   1.747
19695SOL    HW260983   3.948  12.833   1.768
19696SOL     OW60984   5.057   2.559   1.370
19696SOL    HW160985   5.077   2.478   1.323
19696SOL    HW260986   5.020   2.617   1.303
19697SOL     OW60987  10.622   1.575   0.524
19697SOL    HW160988  10.561   1.519   0.476
19697SOL    HW260989  10.707   1.558   0.483
19698SOL     OW60990   4.398  10.810  11.670
19698SOL    HW160991   4.490  10.794  11.692
19698SOL    HW260992   4.360  10.845  11.751
19699SOL     OW60993   1.778  12.875   4.656
19699SOL    HW160994   1.716  12.841   4.721
19699SOL    HW260995   1.751  12.832   4.574
19700SOL     OW60996  14.336  10.693   0.786
19700SOL    HW160997  14.323  10.717   0.694
19700SOL    HW260998  14.249  10.667   0.816
19701SOL     OW60999  13.920   2.033   9.399
19701SOL    HW161000  13.848   2.060   9.342
19701SOL    HW261001  13.907   2.084   9.479
19702SOL     OW61002  14.250   4.426  11.959
19702SOL    HW161003  14.165   4.399  11.995
19702SOL    HW261004  14.229   4.498  11.900
19703SOL     OW61005  10.291   4.413  14.271
19703SOL    HW161006  10.369   4.396  14.324
19703SOL    HW261007  10.229   4.455  14.331
19704SOL     OW61008   8.083  14.523   8.816
19704SOL    HW161009   8.116  14.495   8.902
19704SOL    HW261010   8.004  14.573   8.837
19705SOL     OW61011  10.559  11.595  12.932
19705SOL    HW161012  10.628  11.641  12.885
19705SOL    HW261013  10.535  11.521  12.875
19706SOL     OW61014  12.437   4.471   6.604
19706SOL    HW161015  12.410   4.388   6.564
19706SOL    HW261016  12.432   4.534   6.532
19707SOL     OW61017   2.464   0.094   3.921
19707SOL    HW161018   2.528   0.157   3.886
19707SOL    HW261019   2.403   0.080   3.848
19708SOL     OW61020   4.345   5.995  14.784
19708SOL    HW161021   4.321   6.021  14.695
19708SOL    HW261022   4.427   6.041  14.800
19709SOL     OW61023   7.536   2.661   5.964
19709SOL    HW161024   7.497   2.625   5.885
19709SOL    HW261025   7.517   2.596   6.032
19710SOL     OW61026  11.765   6.279   2.864
19710SOL    HW161027  11.781   6.369   2.894
19710SOL    HW261028  11.840   6.260   2.808
19711SOL     OW61029   6.679   0.265   0.553
19711SOL    HW161030   6.709   0.350   0.520
19711SOL    HW261031   6.696   0.269   0.648
19712SOL     OW61032   8.963   8.594  12.133
19712SOL    HW161033   8.986   8.554  12.050
19712SOL    HW261034   9.030   8.661  12.147
19713SOL     OW61035   0.166   3.809  14.184
19713SOL    HW161036   0.157   3.835  14.092
19713SOL    HW261037   0.076   3.803  14.216
19714SOL     OW61038   3.473  13.353  14.086
19714SOL    HW161039   3.432  13.385  14.006
19714SOL    HW261040   3.466  13.258  14.081
19715SOL     OW61041   4.653   5.584   3.842
19715SOL    HW161042   4.714   5.594   3.769
19715SOL    HW261043   4.585   5.526   3.809
19716SOL     OW61044   8.884   7.642   0.136
19716SOL    HW161045   8.802   7.676   0.100
19716SOL    HW261046   8.909   7.572   0.075
19717SOL     OW61047   1.485   6.616   7.516
19717SOL    HW161048   1.436   6.638   7.437
19717SOL    HW261049   1.489   6.521   7.517
19718SOL     OW61050   1.498  13.933  14.392
19718SOL    HW161051   1.575  13.901  14.439
19718SOL    HW261052   1.432  13.946  14.461
19719SOL     OW61053   2.071  12.299   9.459
19719SOL    HW161054   2.103  12.308   9.369
19719SOL    HW261055   2.108  12.375   9.505
19720SOL     OW61056  14.492  13.961  12.311
19720SOL    HW161057  14.558  13.898  12.285
19720SOL    HW261058  14.483  14.020  12.236
19721SOL     OW61059   8.208   8.382   2.610
19721SOL    HW161060   8.259   8.417   2.683
19721SOL    HW261061   8.247   8.297   2.592
19722SOL     OW61062   5.133   5.127  14.364
19722SOL    HW161063   5.102   5.079  14.441
19722SOL    HW261064   5.223   5.151  14.385
19723SOL     OW61065  12.706   5.201   0.023
19723SOL    HW161066  12.742   5.194   0.111
19723SOL    HW261067  12.644   5.274   0.029
19724SOL     OW61068   6.085   7.752   9.536
19724SOL    HW161069   6.013   7.703   9.575
19724SOL    HW261070   6.126   7.796   9.611
19725SOL     OW61071  14.423   0.151   9.338
19725SOL    HW161072  14.424   0.080   9.274
19725SOL    HW261073  14.334   0.151   9.373
19726SOL     OW61074   9.801  14.045   4.312
19726SOL    HW161075   9.765  14.123   4.272
19726SOL    HW261076   9.896  14.058   4.309
19727SOL     OW61077   2.247   5.208   8.902
19727SOL    HW161078   2.163   5.184   8.863
19727SOL    HW261079   2.248   5.162   8.986
19728SOL     OW61080  13.528   9.111   8.071
19728SOL    HW161081  13.502   9.187   8.019
19728SOL    HW261082  13.472   9.040   8.040
19729SOL     OW61083   1.497   9.377   7.189
19729SOL    HW161084   1.557   9.395   7.116
19729SOL    HW261085   1.486   9.462   7.232
19730SOL     OW61086  12.308   1.723   8.649
19730SOL    HW161087  12.289   1.789   8.581
19730SOL    HW261088  12.281   1.640   8.609
19731SOL     OW61089   2.386  12.647  10.415
19731SOL    HW161090   2.471  12.604  10.410
19731SOL    HW261091   2.406  12.739  10.433
19732SOL     OW61092  12.423   3.923   8.597
19732SOL    HW161093  12.341   3.967   8.574
19732SOL    HW261094  12.483   3.994   8.619
19733SOL     OW61095   0.861   6.017   6.042
19733SOL    HW161096   0.948   5.978   6.044
19733SOL    HW261097   0.845   6.037   5.949
19734SOL     OW61098   4.881  10.939  13.785
19734SOL    HW161099   4.950  10.928  13.719
19734SOL    HW261100   4.900  11.024  13.826
19735SOL     OW61101   2.671   2.938  12.351
19735SOL    HW161102   2.744   2.879  12.333
19735SOL    HW261103   2.593   2.886  12.331
19736SOL     OW61104   2.676   8.183   1.465
19736SOL    HW161105   2.642   8.208   1.379
19736SOL    HW261106   2.750   8.242   1.479
19737SOL     OW61107  10.558   1.290   0.819
19737SOL    HW161108  10.581   1.313   0.910
19737SOL    HW261109  10.463   1.294   0.817
19738SOL     OW61110   8.002  11.312  13.468
19738SOL    HW161111   7.907  11.310  13.464
19738SOL    HW261112   8.031  11.273  13.385
19739SOL     OW61113   3.543   2.322   5.239
19739SOL    HW161114   3.495   2.291   5.316
19739SOL    HW261115   3.492   2.289   5.164
19740SOL     OW61116  11.177  13.594   5.467
19740SOL    HW161117  11.089  13.619   5.440
19740SOL    HW261118  11.185  13.502   5.440
19741SOL     OW61119  11.647   4.974   0.763
19741SOL    HW161120  11.589   4.948   0.691
19741SOL    HW261121  11.592   4.966   0.841
19742SOL     OW61122   5.905   8.871   2.788
19742SOL    HW161123   5.922   8.794   2.842
19742SOL    HW261124   5.855   8.837   2.714
19743SOL     OW61125   0.147   6.984   5.816
19743SOL    HW161126   0.152   6.974   5.911
19743SOL    HW261127   0.180   7.072   5.799
19744SOL     OW61128   5.730   2.337   5.360
19744SOL    HW161129   5.749   2.329   5.267
19744SOL    HW261130   5.682   2.257   5.381
19745SOL     OW61131   8.150  12.410  12.939
19745SOL    HW161132   8.135  12.336  12.997
19745SOL    HW261133   8.070  12.463  12.945
19746SOL     OW61134   2.980   9.914   5.258
19746SOL    HW161135   3.064   9.959   5.258
19746SOL    HW261136   2.926   9.964   5.319
19747SOL     OW61137   5.320   4.782  12.016
19747SOL    HW161138   5.331   4.792  11.921
19747SOL    HW261139   5.390   4.835  12.054
19748SOL     OW61140   1.181  13.072   8.195
19748SOL    HW161141   1.267  13.085   8.235
19748SOL    HW261142   1.200  13.027   8.112
19749SOL     OW61143  10.783   3.913   5.087
19749SOL    HW161144  10.732   3.977   5.038
19749SOL    HW261145  10.832   3.966   5.151
19750SOL     OW61146   2.994  13.938   4.037
19750SOL    HW161147   2.993  13.997   3.962
19750SOL    HW261148   2.930  13.975   4.097
19751SOL     OW61149  14.247   0.090  10.711
19751SOL    HW161150  14.205   0.170  10.679
19751SOL    HW261151  14.243   0.097  10.807
19752SOL     OW61152   9.962   0.824   3.207
19752SOL    HW161153  10.015   0.877   3.265
19752SOL    HW261154   9.915   0.764   3.264
19753SOL     OW61155   3.427   8.327  12.314
19753SOL    HW161156   3.412   8.313  12.407
19753SOL    HW261157   3.507   8.380  12.311
19754SOL     OW61158   2.651  12.588   7.528
19754SOL    HW161159   2.662  12.578   7.623
19754SOL    HW261160   2.738  12.569   7.492
19755SOL     OW61161   7.527  10.563   3.108
19755SOL    HW161162   7.518  10.485   3.163
19755SOL    HW261163   7.468  10.548   3.034
19756SOL     OW61164   7.561  12.138  11.283
19756SOL    HW161165   7.628  12.205  11.292
19756SOL    HW261166   7.484  12.185  11.250
19757SOL     OW61167   7.023  13.183   6.123
19757SOL    HW161168   7.014  13.087   6.124
19757SOL    HW261169   7.092  13.201   6.186
19758SOL     OW61170   4.832  13.869   4.702
19758SOL    HW161171   4.832  13.878   4.797
19758SOL    HW261172   4.794  13.951   4.669
19759SOL     OW61173   8.865   3.700   8.334
19759SOL    HW161174   8.949   3.731   8.369
19759SOL    HW261175   8.843   3.625   8.390
19760SOL     OW61176   6.092   1.650  12.463
19760SOL    HW161177   6.048   1.619  12.543
19760SOL    HW261178   6.024   1.646  12.395
19761SOL     OW61179  10.710  13.129   9.799
19761SOL    HW161180  10.633  13.109   9.854
19761SOL    HW261181  10.711  13.224   9.794
19762SOL     OW61182  14.594   4.014   8.183
19762SOL    HW161183  14.601   4.029   8.277
19762SOL    HW261184  14.601   3.919   8.173
19763SOL     OW61185  10.364   4.535   4.442
19763SOL    HW161186  10.353   4.552   4.535
19763SOL    HW261187  10.454   4.504   4.433
19764SOL     OW61188  14.797   3.615  10.290
19764SOL    HW161189  14.857   3.689  10.293
19764SOL    HW261190  14.783   3.591  10.382
19765SOL     OW61191   3.957  14.392   9.410
19765SOL    HW161192   4.053  14.401   9.409
19765SOL    HW261193   3.926  14.462   9.352
19766SOL     OW61194   3.911   1.474   8.312
19766SOL    HW161195   3.854   1.462   8.236
19766SOL    HW261196   3.957   1.556   8.296
19767SOL     OW61197   4.762   9.444  12.769
19767SOL    HW161198   4.734   9.536  12.763
19767SOL    HW261199   4.694   9.402  12.821
19768SOL     OW61200  14.697   4.934   1.529
19768SOL    HW161201  14.734   5.006   1.581
19768SOL    HW261202  14.688   4.862   1.592
19769SOL     OW61203   0.585   1.517  13.872
19769SOL    HW161204   0.635   1.597  13.856
19769SOL    HW261205   0.553   1.526  13.961
19770SOL     OW61206   3.214   0.880   4.212
19770SOL    HW161207   3.305   0.859   4.232
19770SOL    HW261208   3.212   0.894   4.117
19771SOL     OW61209   5.979   8.255   6.458
19771SOL    HW161210   5.889   8.242   6.488
19771SOL    HW261211   6.033   8.219   6.528
19772SOL     OW61212  10.902   1.195   9.051
19772SOL    HW161213  10.854   1.261   9.101
19772SOL    HW261214  10.965   1.159   9.113
19773SOL     OW61215   4.294   4.887  13.696
19773SOL    HW161216   4.321   4.795  13.688
19773SOL    HW261217   4.292   4.919  13.606
19774SOL     OW61218   7.637   9.038   6.031
19774SOL    HW161219   7.616   9.048   6.124
19774SOL    HW261220   7.580   9.102   5.987
19775SOL     OW61221  14.567   1.235   8.717
19775SOL    HW161222  14.559   1.216   8.624
19775SOL    HW261223  14.638   1.178   8.747
19776SOL     OW61224   1.659  14.080   6.661
19776SOL    HW161225   1.678  14.156   6.716
19776SOL    HW261226   1.661  14.006   6.722
19777SOL     OW61227   3.409   1.797   8.280
19777SOL    HW161228   3.457   1.822   8.359
19777SOL    HW261229   3.462   1.727   8.241
19778SOL     OW61230   6.819  13.422   6.501
19778SOL    HW161231   6.806  13.452   6.591
19778SOL    HW261232   6.914  13.418   6.490
19779SOL     OW61233   2.284   3.264  14.257
19779SOL    HW161234   2.201   3.217  14.250
19779SOL    HW261235   2.348   3.197  14.281
19780SOL     OW61236  12.217  13.916   1.966
19780SOL    HW161237  12.248  13.962   2.044
19780SOL    HW261238  12.211  13.984   1.899
19781SOL     OW61239   3.089   1.657   2.941
19781SOL    HW161240   3.151   1.641   3.012
19781SOL    HW261241   3.066   1.569   2.910
19782SOL     OW61242   0.254   9.795  12.245
19782SOL    HW161243   0.306   9.798  12.325
19782SOL    HW261244   0.291   9.863  12.189
19783SOL     OW61245   7.222   9.138  12.653
19783SOL    HW161246   7.264   9.128  12.567
19783SOL    HW261247   7.253   9.222  12.686
19784SOL     OW61248   0.759   1.430   9.155
19784SOL    HW161249   0.746   1.426   9.249
19784SOL    HW261250   0.851   1.404   9.142
19785SOL     OW61251   3.423  12.664   4.827
19785SOL    HW161252   3.343  12.634   4.870
19785SOL    HW261253   3.444  12.746   4.871
19786SOL     OW61254   6.128   1.335  13.502
19786SOL    HW161255   6.095   1.347  13.413
19786SOL    HW261256   6.117   1.241  13.519
19787SOL     OW61257  10.018  12.072   8.578
19787SOL    HW161258   9.946  12.052   8.638
19787SOL    HW261259   9.986  12.144   8.525
19788SOL     OW61260   9.716   4.957   4.757
19788SOL    HW161261   9.788   4.906   4.793
19788SOL    HW261262   9.647   4.951   4.822
19789SOL     OW61263   5.675   1.036   5.462
19789SOL    HW161264   5.710   1.095   5.394
19789SOL    HW261265   5.652   1.094   5.534
19790SOL     OW61266   8.726   0.624   6.282
19790SOL    HW161267   8.765   0.711   6.281
19790SOL    HW261268   8.799   0.565   6.262
19791SOL     OW61269   0.428  11.597  14.701
19791SOL    HW161270   0.371  11.674  14.695
19791SOL    HW261271   0.469  11.590  14.615
19792SOL     OW61272   2.884   8.438  11.913
19792SOL    HW161273   2.794   8.405  11.918
19792SOL    HW261274   2.894   8.467  11.823
19793SOL     OW61275  14.698   1.068   8.333
19793SOL    HW161276  14.764   1.061   8.402
19793SOL    HW261277  14.623   1.019   8.367
19794SOL     OW61278   4.518  10.664  10.695
19794SOL    HW161279   4.450  10.638  10.756
19794SOL    HW261280   4.586  10.597  10.704
19795SOL     OW61281  14.449  13.012   3.053
19795SOL    HW161282  14.417  13.090   3.099
19795SOL    HW261283  14.401  13.013   2.970
19796SOL     OW61284   6.522   6.426   7.566
19796SOL    HW161285   6.476   6.343   7.579
19796SOL    HW261286   6.495   6.480   7.640
19797SOL     OW61287  13.871   3.835  10.431
19797SOL    HW161288  13.954   3.882  10.431
19797SOL    HW261289  13.811   3.892  10.383
19798SOL     OW61290   6.526   2.093   9.085
19798SOL    HW161291   6.527   2.065   9.177
19798SOL    HW261292   6.604   2.147   9.075
19799SOL     OW61293   1.106   8.349   2.950
19799SOL    HW161294   1.018   8.354   2.914
19799SOL    HW261295   1.153   8.422   2.911
19800SOL     OW61296   7.316  12.735  12.512
19800SOL    HW161297   7.276  12.787  12.443
19800SOL    HW261298   7.288  12.777  12.593
19801SOL     OW61299  10.942  12.627   1.644
19801SOL    HW161300  11.035  12.631   1.667
19801SOL    HW261301  10.938  12.565   1.571
19802SOL     OW61302  13.417   8.656  10.316
19802SOL    HW161303  13.387   8.566  10.323
19802SOL    HW261304  13.511   8.648  10.295
19803SOL     OW61305   8.162  11.819   0.747
19803SOL    HW161306   8.078  11.799   0.789
19803SOL    HW261307   8.180  11.909   0.772
19804SOL     OW61308   8.689   6.122  14.519
19804SOL    HW161309   8.778   6.155  14.518
19804SOL    HW261310   8.674   6.096  14.610
19805SOL     OW61311   4.656   6.584   6.455
19805SOL    HW161312   4.563   6.609   6.460
19805SOL    HW261313   4.665   6.543   6.369
19806SOL     OW61314   0.442   1.775   3.335
19806SOL    HW161315   0.348   1.786   3.345
19806SOL    HW261316   0.465   1.705   3.397
19807SOL     OW61317   4.141   4.092   6.732
19807SOL    HW161318   4.170   4.088   6.823
19807SOL    HW261319   4.114   4.002   6.711
19808SOL     OW61320   9.917   8.455  13.784
19808SOL    HW161321   9.874   8.408  13.714
19808SOL    HW261322   9.870   8.428  13.864
19809SOL     OW61323   6.139   4.098   0.621
19809SOL    HW161324   6.078   4.026   0.608
19809SOL    HW261325   6.142   4.111   0.715
19810SOL     OW61326  13.539   3.020   8.132
19810SOL    HW161327  13.489   3.063   8.063
19810SOL    HW261328  13.601   2.964   8.085
19811SOL     OW61329  12.305   5.677   3.151
19811SOL    HW161330  12.230   5.736   3.163
19811SOL    HW261331  12.368   5.706   3.217
19812SOL     OW61332   9.412   4.949   9.390
19812SOL    HW161333   9.453   5.034   9.372
19812SOL    HW261334   9.354   4.966   9.463
19813SOL     OW61335   5.699   6.034  11.200
19813SOL    HW161336   5.755   6.108  11.176
19813SOL    HW261337   5.739   5.958  11.157
19814SOL     OW61338   3.219  12.097  14.351
19814SOL    HW161339   3.281  12.111  14.279
19814SOL    HW261340   3.267  12.123  14.429
19815SOL     OW61341  10.956   0.310  13.001
19815SOL    HW161342  10.864   0.289  12.985
19815SOL    HW261343  10.963   0.402  12.974
19816SOL     OW61344   2.443   4.498  10.281
19816SOL    HW161345   2.514   4.518  10.342
19816SOL    HW261346   2.392   4.429  10.324
19817SOL     OW61347   6.129   8.291   7.283
19817SOL    HW161348   6.208   8.345   7.282
19817SOL    HW261349   6.160   8.204   7.306
19818SOL     OW61350   9.264   3.436  14.143
19818SOL    HW161351   9.200   3.507  14.138
19818SOL    HW261352   9.346   3.479  14.165
19819SOL     OW61353  11.682   4.773   8.089
19819SOL    HW161354  11.620   4.826   8.039
19819SOL    HW261355  11.765   4.819   8.080
19820SOL     OW61356   8.489  11.336  14.637
19820SOL    HW161357   8.481  11.432  14.638
19820SOL    HW261358   8.398  11.305  14.629
19821SOL     OW61359   3.322   3.169  12.894
19821SOL    HW161360   3.394   3.119  12.856
19821SOL    HW261361   3.253   3.105  12.908
19822SOL     OW61362  10.008   7.450  13.609
19822SOL    HW161363  10.045   7.426  13.524
19822SOL    HW261364   9.953   7.375  13.634
19823SOL     OW61365  12.432  12.201  12.154
19823SOL    HW161366  12.359  12.142  12.175
19823SOL    HW261367  12.415  12.280  12.204
19824SOL     OW61368   7.093  14.540   9.832
19824SOL    HW161369   7.014  14.494   9.859
19824SOL    HW261370   7.081  14.630   9.864
19825SOL     OW61371  11.760   7.142   4.196
19825SOL    HW161372  11.751   7.214   4.258
19825SOL    HW261373  11.675   7.139   4.151
19826SOL     OW61374   6.558  13.349   5.691
19826SOL    HW161375   6.467  13.342   5.663
19826SOL    HW261376   6.577  13.265   5.732
19827SOL     OW61377   0.482   1.078   0.405
19827SOL    HW161378   0.391   1.106   0.408
19827SOL    HW261379   0.529   1.152   0.368
19828SOL     OW61380  10.521   7.853  13.956
19828SOL    HW161381  10.450   7.790  13.951
19828SOL    HW261382  10.556   7.856  13.867
19829SOL     OW61383  14.166   9.720   2.123
19829SOL    HW161384  14.236   9.779   2.094
19829SOL    HW261385  14.122   9.694   2.042
19830SOL     OW61386   5.112   6.758  13.160
19830SOL    HW161387   5.167   6.760  13.082
19830SOL    HW261388   5.083   6.667  13.167
19831SOL     OW61389   2.160   3.564  11.715
19831SOL    HW161390   2.100   3.639  11.713
19831SOL    HW261391   2.103   3.489  11.731
19832SOL     OW61392   1.531   5.065   9.944
19832SOL    HW161393   1.520   5.025  10.031
19832SOL    HW261394   1.567   5.151   9.963
19833SOL     OW61395  14.802   2.001   6.564
19833SOL    HW161396  14.747   2.028   6.637
19833SOL    HW261397  14.837   2.083   6.528
19834SOL     OW61398   4.411   5.590   7.512
19834SOL    HW161399   4.495   5.544   7.522
19834SOL    HW261400   4.387   5.578   7.420
19835SOL     OW61401   5.557   7.134   4.079
19835SOL    HW161402   5.574   7.057   4.025
19835SOL    HW261403   5.582   7.208   4.024
19836SOL     OW61404   4.656   9.582  11.430
19836SOL    HW161405   4.742   9.586  11.470
19836SOL    HW261406   4.639   9.488  11.418
19837SOL     OW61407   8.492   3.307  10.105
19837SOL    HW161408   8.480   3.320  10.011
19837SOL    HW261409   8.500   3.396  10.141
19838SOL     OW61410   6.196  14.277   5.632
19838SOL    HW161411   6.170  14.206   5.573
19838SOL    HW261412   6.137  14.349   5.609
19839SOL     OW61413   0.299   6.966  13.807
19839SOL    HW161414   0.366   7.016  13.760
19839SOL    HW261415   0.285   6.889  13.752
19840SOL     OW61416  11.726  12.390   9.288
19840SOL    HW161417  11.666  12.321   9.316
19840SOL    HW261418  11.674  12.446   9.230
19841SOL     OW61419   1.715  14.690  11.370
19841SOL    HW161420   1.659  14.617  11.342
19841SOL    HW261421   1.753  14.723  11.288
19842SOL     OW61422  11.960   7.019   9.532
19842SOL    HW161423  11.988   7.109   9.517
19842SOL    HW261424  11.887   7.006   9.473
19843SOL     OW61425  12.369   9.055  10.089
19843SOL    HW161426  12.396   9.096  10.170
19843SOL    HW261427  12.450   9.026  10.048
19844SOL     OW61428   4.108   4.836  14.616
19844SOL    HW161429   4.112   4.793  14.531
19844SOL    HW261430   4.026   4.806  14.654
19845SOL     OW61431  12.876   7.675  14.630
19845SOL    HW161432  12.928   7.595  14.636
19845SOL    HW261433  12.799   7.650  14.578
19846SOL     OW61434   8.780  13.484   4.673
19846SOL    HW161435   8.736  13.446   4.748
19846SOL    HW261436   8.793  13.411   4.613
19847SOL     OW61437  10.578  10.466   4.090
19847SOL    HW161438  10.671  10.448   4.099
19847SOL    HW261439  10.563  10.544   4.144
19848SOL     OW61440   5.161  10.476   3.919
19848SOL    HW161441   5.219  10.545   3.952
19848SOL    HW261442   5.121  10.439   3.998
19849SOL     OW61443   2.498   4.497   1.894
19849SOL    HW161444   2.557   4.571   1.877
19849SOL    HW261445   2.522   4.466   1.981
19850SOL     OW61446   3.709   0.423   9.283
19850SOL    HW161447   3.654   0.364   9.334
19850SOL    HW261448   3.687   0.511   9.314
19851SOL     OW61449  14.235   4.266   5.780
19851SOL    HW161450  14.290   4.252   5.857
19851SOL    HW261451  14.145   4.261   5.814
19852SOL     OW61452   3.084   2.433   8.867
19852SOL    HW161453   3.086   2.508   8.927
19852SOL    HW261454   3.009   2.381   8.896
19853SOL     OW61455   9.961   3.656   0.421
19853SOL    HW161456   9.980   3.692   0.507
19853SOL    HW261457   9.895   3.588   0.437
19854SOL     OW61458   0.181  12.998  11.031
19854SOL    HW161459   0.115  12.981  11.099
19854SOL    HW261460   0.147  13.075  10.984
19855SOL     OW61461   7.160   1.727   2.153
19855SOL    HW161462   7.160   1.774   2.236
19855SOL    HW261463   7.136   1.794   2.088
19856SOL     OW61464   3.800   6.214   4.722
19856SOL    HW161465   3.853   6.168   4.787
19856SOL    HW261466   3.748   6.145   4.680
19857SOL     OW61467   6.540  13.583   3.946
19857SOL    HW161468   6.575  13.572   3.857
19857SOL    HW261469   6.565  13.503   3.991
19858SOL     OW61470  10.291   4.725   6.401
19858SOL    HW161471  10.385   4.719   6.417
19858SOL    HW261472  10.262   4.797   6.457
19859SOL     OW61473   6.304   6.740  10.575
19859SOL    HW161474   6.270   6.797  10.644
19859SOL    HW261475   6.386   6.782  10.548
19860SOL     OW61476   5.914  12.643   6.766
19860SOL    HW161477   5.904  12.736   6.746
19860SOL    HW261478   5.952  12.605   6.687
19861SOL     OW61479  10.682  10.345  13.878
19861SOL    HW161480  10.730  10.352  13.961
19861SOL    HW261481  10.620  10.274  13.893
19862SOL     OW61482   1.271   4.284   9.535
19862SOL    HW161483   1.363   4.304   9.553
19862SOL    HW261484   1.225   4.365   9.558
19863SOL     OW61485   0.954   4.280  12.761
19863SOL    HW161486   1.003   4.342  12.815
19863SOL    HW261487   0.868   4.275  12.803
19864SOL     OW61488  13.022  12.977   8.281
19864SOL    HW161489  13.094  12.921   8.253
19864SOL    HW261490  13.056  13.023   8.358
19865SOL     OW61491   6.997   1.948   8.663
19865SOL    HW161492   7.085   1.918   8.688
19865SOL    HW261493   7.000   1.953   8.567
19866SOL     OW61494  14.321  10.730  10.314
19866SOL    HW161495  14.249  10.673  10.284
19866SOL    HW261496  14.281  10.785  10.382
19867SOL     OW61497   1.651  12.208   3.088
19867SOL    HW161498   1.559  12.181   3.086
19867SOL    HW261499   1.683  12.179   3.173
19868SOL     OW61500  10.666   6.707  13.446
19868SOL    HW161501  10.599   6.762  13.406
19868SOL    HW261502  10.678   6.744  13.534
19869SOL     OW61503  11.794  14.823   0.580
19869SOL    HW161504  11.839  14.766   0.518
19869SOL    HW261505  11.818  14.790   0.666
19870SOL     OW61506   1.694  13.529   0.717
19870SOL    HW161507   1.677  13.623   0.718
19870SOL    HW261508   1.787  13.521   0.735
19871SOL     OW61509   7.091  10.288  12.530
19871SOL    HW161510   7.125  10.338  12.604
19871SOL    HW261511   7.095  10.197  12.559
19872SOL     OW61512   2.185   4.194   3.121
19872SOL    HW161513   2.267   4.244   3.119
19872SOL    HW261514   2.149   4.210   3.208
19873SOL     OW61515  12.152   3.154  14.179
19873SOL    HW161516  12.240   3.137  14.210
19873SOL    HW261517  12.095   3.103  14.238
19874SOL     OW61518   3.811   5.045  12.296
19874SOL    HW161519   3.789   5.073  12.386
19874SOL    HW261520   3.872   5.112  12.265
19875SOL     OW61521  14.337   8.989   7.325
19875SOL    HW161522  14.400   8.918   7.313
19875SOL    HW261523  14.265   8.967   7.266
19876SOL     OW61524   3.712   8.657   6.062
19876SOL    HW161525   3.776   8.624   5.999
19876SOL    HW261526   3.652   8.710   6.009
19877SOL     OW61527  10.859  12.326  14.697
19877SOL    HW161528  10.781  12.272  14.711
19877SOL    HW261529  10.921  12.268  14.655
19878SOL     OW61530   0.109  11.100   2.943
19878SOL    HW161531   0.066  11.185   2.943
19878SOL    HW261532   0.048  11.042   2.897
19879SOL     OW61533  10.310   2.876   7.756
19879SOL    HW161534  10.226   2.841   7.727
19879SOL    HW261535  10.365   2.798   7.769
19880SOL     OW61536   0.784   3.390   9.610
19880SOL    HW161537   0.698   3.387   9.570
19880SOL    HW261538   0.819   3.301   9.600
19881SOL     OW61539   6.718  11.818   3.833
19881SOL    HW161540   6.674  11.877   3.895
19881SOL    HW261541   6.760  11.876   3.770
19882SOL     OW61542   2.367  12.462   3.659
19882SOL    HW161543   2.355  12.555   3.640
19882SOL    HW261544   2.349  12.418   3.575
19883SOL     OW61545   8.268   6.154   1.026
19883SOL    HW161546   8.196   6.111   1.071
19883SOL    HW261547   8.318   6.082   0.987
19884SOL     OW61548   8.346   7.403   1.122
19884SOL    HW161549   8.392   7.336   1.073
19884SOL    HW261550   8.351   7.375   1.213
19885SOL     OW61551   4.791  12.291   3.590
19885SOL    HW161552   4.719  12.330   3.640
19885SOL    HW261553   4.766  12.304   3.498
19886SOL     OW61554   1.373  13.379   5.652
19886SOL    HW161555   1.381  13.354   5.744
19886SOL    HW261556   1.300  13.441   5.650
19887SOL     OW61557   8.315  11.691   1.118
19887SOL    HW161558   8.295  11.637   1.042
19887SOL    HW261559   8.398  11.656   1.151
19888SOL     OW61560  14.375   9.967   6.600
19888SOL    HW161561  14.390  10.061   6.594
19888SOL    HW261562  14.283   9.959   6.627
19889SOL     OW61563   7.970   4.366   2.344
19889SOL    HW161564   7.904   4.297   2.343
19889SOL    HW261565   7.978   4.392   2.436
19890SOL     OW61566  14.588   0.983  12.466
19890SOL    HW161567  14.602   0.906  12.411
19890SOL    HW261568  14.646   0.970  12.541
19891SOL     OW61569   5.594  14.792   4.123
19891SOL    HW161570   5.663  14.727   4.136
19891SOL    HW261571   5.640   0.002   4.092
19892SOL     OW61572   4.655   8.577   4.159
19892SOL    HW161573   4.615   8.501   4.200
19892SOL    HW261574   4.727   8.540   4.107
19893SOL     OW61575   0.555   5.085   0.576
19893SOL    HW161576   0.487   5.018   0.578
19893SOL    HW261577   0.619   5.052   0.512
19894SOL     OW61578   5.368  14.577   7.595
19894SOL    HW161579   5.389  14.543   7.682
19894SOL    HW261580   5.389  14.504   7.536
19895SOL     OW61581   0.077  14.632   8.620
19895SOL    HW161582   0.138  14.667   8.686
19895SOL    HW261583   0.009  14.588   8.671
19896SOL     OW61584   5.496   7.989  14.724
19896SOL    HW161585   5.516   8.010  14.633
19896SOL    HW261586   5.552   8.048  14.776
19897SOL     OW61587   1.165   9.251   2.345
19897SOL    HW161588   1.157   9.190   2.271
19897SOL    HW261589   1.200   9.331   2.305
19898SOL     OW61590   3.610   7.489   3.891
19898SOL    HW161591   3.604   7.534   3.807
19898SOL    HW261592   3.628   7.398   3.869
19899SOL     OW61593   9.633   3.516   7.383
19899SOL    HW161594   9.612   3.501   7.291
19899SOL    HW261595   9.570   3.582   7.412
19900SOL     OW61596   4.818   5.003  13.834
19900SOL    HW161597   4.726   5.004  13.810
19900SOL    HW261598   4.832   4.916  13.872
19901SOL     OW61599   4.822   1.372  13.621
19901SOL    HW161600   4.857   1.298  13.672
19901SOL    HW261601   4.729   1.351  13.611
19902SOL     OW61602   7.670  14.020  13.722
19902SOL    HW161603   7.592  14.039  13.775
19902SOL    HW261604   7.705  13.940  13.759
19903SOL     OW61605  10.526   5.439   3.152
19903SOL    HW161606  10.490   5.363   3.197
19903SOL    HW261607  10.587   5.402   3.088
19904SOL     OW61608  14.114  11.938   9.682
19904SOL    HW161609  14.162  11.904   9.607
19904SOL    HW261610  14.024  11.909   9.668
19905SOL     OW61611  13.462  10.071  11.713
19905SOL    HW161612  13.382  10.108  11.752
19905SOL    HW261613  13.469   9.984  11.754
19906SOL     OW61614   2.885  11.040   8.003
19906SOL    HW161615   2.904  11.091   7.924
19906SOL    HW261616   2.790  11.047   8.014
19907SOL     OW61617  11.479  13.259  10.138
19907SOL    HW161618  11.517  13.182  10.181
19907SOL    HW261619  11.458  13.229  10.049
19908SOL     OW61620  11.986   6.274   2.681
19908SOL    HW161621  12.030   6.324   2.614
19908SOL    HW261622  12.053   6.257   2.747
19909SOL     OW61623  13.891   0.125   0.113
19909SOL    HW161624  13.900   0.081   0.028
19909SOL    HW261625  13.939   0.207   0.103
19910SOL     OW61626   1.657   8.887   9.657
19910SOL    HW161627   1.575   8.838   9.664
19910SOL    HW261628   1.641   8.968   9.704
19911SOL     OW61629  10.011   6.067   4.217
19911SOL    HW161630  10.042   6.101   4.133
19911SOL    HW261631  10.022   6.139   4.278
19912SOL     OW61632   7.553  12.913   9.360
19912SOL    HW161633   7.540  12.944   9.449
19912SOL    HW261634   7.513  12.826   9.358
19913SOL     OW61635   9.762  13.770  11.530
19913SOL    HW161636   9.747  13.684  11.492
19913SOL    HW261637   9.782  13.753  11.622
19914SOL     OW61638   4.193   0.446   7.984
19914SOL    HW161639   4.137   0.399   7.923
19914SOL    HW261640   4.206   0.385   8.057
19915SOL     OW61641   5.765  12.920  13.600
19915SOL    HW161642   5.727  12.841  13.640
19915SOL    HW261643   5.698  12.987  13.613
19916SOL     OW61644   8.285  11.074   4.360
19916SOL    HW161645   8.304  11.057   4.453
19916SOL    HW261646   8.205  11.026   4.342
19917SOL     OW61647   4.568   3.067  10.623
19917SOL    HW161648   4.584   3.044  10.532
19917SOL    HW261649   4.655   3.088  10.658
19918SOL     OW61650   8.183   9.799   3.226
19918SOL    HW161651   8.158   9.798   3.133
19918SOL    HW261652   8.236   9.720   3.238
19919SOL     OW61653   9.362   1.310  13.520
19919SOL    HW161654   9.361   1.366  13.598
19919SOL    HW261655   9.309   1.234  13.545
19920SOL     OW61656  13.443   9.230   0.594
19920SOL    HW161657  13.476   9.314   0.627
19920SOL    HW261658  13.510   9.167   0.621
19921SOL     OW61659   4.628   3.676   1.452
19921SOL    HW161660   4.632   3.748   1.515
19921SOL    HW261661   4.627   3.719   1.366
19922SOL     OW61662  10.194   3.839   2.581
19922SOL    HW161663  10.132   3.787   2.630
19922SOL    HW261664  10.279   3.800   2.601
19923SOL     OW61665   2.461   0.985   4.459
19923SOL    HW161666   2.460   0.957   4.367
19923SOL    HW261667   2.539   0.946   4.496
19924SOL     OW61668   2.171  11.679   7.799
19924SOL    HW161669   2.163  11.714   7.711
19924SOL    HW261670   2.218  11.747   7.848
19925SOL     OW61671   1.315   9.068   2.831
19925SOL    HW161672   1.282   9.089   2.919
19925SOL    HW261673   1.407   9.094   2.833
19926SOL     OW61674  12.797   6.930   4.803
19926SOL    HW161675  12.838   6.891   4.880
19926SOL    HW261676  12.834   7.018   4.797
19927SOL     OW61677   1.952   3.757   7.206
19927SOL    HW161678   1.906   3.804   7.276
19927SOL    HW261679   1.902   3.677   7.195
19928SOL     OW61680   9.310  13.553  12.839
19928SOL    HW161681   9.270  13.614  12.776
19928SOL    HW261682   9.247  13.547  12.910
19929SOL     OW61683   6.765  11.431   7.666
19929SOL    HW161684   6.685  11.382   7.688
19929SOL    HW261685   6.785  11.405   7.576
19930SOL     OW61686   3.659   0.615   0.019
19930SOL    HW161687   3.594   0.681  14.863
19930SOL    HW261688   3.712   0.658   0.086
19931SOL     OW61689   8.788  12.247  14.710
19931SOL    HW161690   8.879  12.224  14.728
19931SOL    HW261691   8.737  12.199  14.776
19932SOL     OW61692  14.360  12.105  11.510
19932SOL    HW161693  14.268  12.093  11.488
19932SOL    HW261694  14.404  12.120  11.426
19933SOL     OW61695   4.333  14.229   7.667
19933SOL    HW161696   4.369  14.242   7.579
19933SOL    HW261697   4.249  14.186   7.652
19934SOL     OW61698   0.866   7.462  11.852
19934SOL    HW161699   0.860   7.556  11.841
19934SOL    HW261700   0.898   7.450  11.942
19935SOL     OW61701  12.534   6.974   3.049
19935SOL    HW161702  12.518   7.002   2.959
19935SOL    HW261703  12.624   7.001   3.067
19936SOL     OW61704   0.645   4.127   1.038
19936SOL    HW161705   0.737   4.151   1.054
19936SOL    HW261706   0.604   4.208   1.010
19937SOL     OW61707   9.983   2.513  10.035
19937SOL    HW161708   9.958   2.513  10.128
19937SOL    HW261709  10.070   2.553  10.034
19938SOL     OW61710   9.358   4.302  11.488
19938SOL    HW161711   9.312   4.358  11.426
19938SOL    HW261712   9.442   4.346  11.503
19939SOL     OW61713   7.044   1.635   5.866
19939SOL    HW161714   6.994   1.661   5.788
19939SOL    HW261715   7.100   1.711   5.885
19940SOL     OW61716   4.359  10.930  10.806
19940SOL    HW161717   4.320  10.845  10.825
19940SOL    HW261718   4.292  10.994  10.831
19941SOL     OW61719   9.910   4.710  10.812
19941SOL    HW161720   9.997   4.703  10.774
19941SOL    HW261721   9.924   4.746  10.900
19942SOL     OW61722  11.171  10.171  14.529
19942SOL    HW161723  11.208  10.244  14.479
19942SOL    HW261724  11.165  10.100  14.465
19943SOL     OW61725  10.234   3.409   7.260
19943SOL    HW161726  10.309   3.391   7.203
19943SOL    HW261727  10.158   3.398   7.203
19944SOL     OW61728   9.891   8.570   0.996
19944SOL    HW161729   9.846   8.640   1.042
19944SOL    HW261730   9.872   8.491   1.048
19945SOL     OW61731   3.149  10.134   0.872
19945SOL    HW161732   3.102  10.202   0.824
19945SOL    HW261733   3.097  10.055   0.860
19946SOL     OW61734   5.802   2.667   9.611
19946SOL    HW161735   5.802   2.586   9.560
19946SOL    HW261736   5.791   2.638   9.702
19947SOL     OW61737   7.103  12.108  13.176
19947SOL    HW161738   7.100  12.073  13.087
19947SOL    HW261739   7.019  12.084  13.215
19948SOL     OW61740   5.537   8.452   0.370
19948SOL    HW161741   5.445   8.427   0.362
19948SOL    HW261742   5.580   8.411   0.296
19949SOL     OW61743   1.271   7.306  12.842
19949SOL    HW161744   1.189   7.274  12.879
19949SOL    HW261745   1.292   7.384  12.894
19950SOL     OW61746   6.605   5.196   2.280
19950SOL    HW161747   6.672   5.189   2.212
19950SOL    HW261748   6.551   5.119   2.268
19951SOL     OW61749   6.713   2.032   5.414
19951SOL    HW161750   6.770   2.090   5.465
19951SOL    HW261751   6.699   2.079   5.332
19952SOL     OW61752   7.999   1.303   0.311
19952SOL    HW161753   8.028   1.285   0.400
19952SOL    HW261754   8.078   1.335   0.266
19953SOL     OW61755   3.914   8.609   7.224
19953SOL    HW161756   4.008   8.615   7.205
19953SOL    HW261757   3.910   8.548   7.298
19954SOL     OW61758   8.049   1.271   6.973
19954SOL    HW161759   8.045   1.207   6.902
19954SOL    HW261760   7.968   1.321   6.966
19955SOL     OW61761   1.368  14.738   8.220
19955SOL    HW161762   1.365  14.801   8.147
19955SOL    HW261763   1.277  14.713   8.234
19956SOL     OW61764   1.134  10.283   0.710
19956SOL    HW161765   1.061  10.243   0.755
19956SOL    HW261766   1.107  10.374   0.696
19957SOL     OW61767   4.616   1.226  12.874
19957SOL    HW161768   4.584   1.203  12.787
19957SOL    HW261769   4.585   1.316  12.887
19958SOL     OW61770   8.171   7.224   8.823
19958SOL    HW161771   8.145   7.135   8.800
19958SOL    HW261772   8.089   7.266   8.852
19959SOL     OW61773   6.567   9.065   7.493
19959SOL    HW161774   6.630   9.016   7.441
19959SOL    HW261775   6.555   9.012   7.572
19960SOL     OW61776   8.706  12.748  14.634
19960SOL    HW161777   8.779  12.703  14.591
19960SOL    HW261778   8.632  12.737  14.574
19961SOL     OW61779  11.888   8.578   9.240
19961SOL    HW161780  11.857   8.537   9.160
19961SOL    HW261781  11.983   8.570   9.236
19962SOL     OW61782  10.706  10.753   2.486
19962SOL    HW161783  10.721  10.798   2.403
19962SOL    HW261784  10.713  10.823   2.552
19963SOL     OW61785  14.056   1.026  11.100
19963SOL    HW161786  14.009   1.087  11.156
19963SOL    HW261787  14.003   0.946  11.103
19964SOL     OW61788   4.282   2.502  12.571
19964SOL    HW161789   4.240   2.565  12.513
19964SOL    HW261790   4.374   2.501  12.544
19965SOL     OW61791   8.359   8.797   9.482
19965SOL    HW161792   8.418   8.722   9.485
19965SOL    HW261793   8.286   8.772   9.539
19966SOL     OW61794   0.383  12.071   0.498
19966SOL    HW161795   0.341  12.006   0.555
19966SOL    HW261796   0.464  12.094   0.544
19967SOL     OW61797   0.140   3.297   0.758
19967SOL    HW161798   0.141   3.281   0.852
19967SOL    HW261799   0.049   3.322   0.739
19968SOL     OW61800   3.477   9.104   5.585
19968SOL    HW161801   3.529   9.184   5.589
19968SOL    HW261802   3.522   9.049   5.520
19969SOL     OW61803  12.887   3.140  13.253
19969SOL    HW161804  12.962   3.133  13.193
19969SOL    HW261805  12.811   3.116  13.200
19970SOL     OW61806   2.740  10.745   2.182
19970SOL    HW161807   2.773  10.697   2.106
19970SOL    HW261808   2.657  10.782   2.154
19971SOL     OW61809   7.671   1.544   6.346
19971SOL    HW161810   7.595   1.506   6.391
19971SOL    HW261811   7.634   1.590   6.271
19972SOL     OW61812   1.802  10.063   9.601
19972SOL    HW161813   1.739  10.030   9.665
19972SOL    HW261814   1.828  10.149   9.636
19973SOL     OW61815   7.415  13.197  12.108
19973SOL    HW161816   7.335  13.211  12.159
19973SOL    HW261817   7.476  13.156  12.169
19974SOL     OW61818   4.799  14.411   3.797
19974SOL    HW161819   4.807  14.349   3.869
19974SOL    HW261820   4.872  14.390   3.738
19975SOL     OW61821   4.621  13.818   1.023
19975SOL    HW161822   4.542  13.791   0.976
19975SOL    HW261823   4.665  13.878   0.962
19976SOL     OW61824  10.606   5.508   2.053
19976SOL    HW161825  10.602   5.554   2.137
19976SOL    HW261826  10.538   5.442   2.059
19977SOL     OW61827   4.197   4.209   9.724
19977SOL    HW161828   4.273   4.151   9.721
19977SOL    HW261829   4.190   4.235   9.816
19978SOL     OW61830  11.949   5.725   9.316
19978SOL    HW161831  11.927   5.713   9.224
19978SOL    HW261832  12.019   5.662   9.332
19979SOL     OW61833   6.618  14.854  11.809
19979SOL    HW161834   6.705  14.837  11.844
19979SOL    HW261835   6.621   0.078  11.781
19980SOL     OW61836   7.514  13.681  14.345
19980SOL    HW161837   7.557  13.714  14.424
19980SOL    HW261838   7.477  13.597  14.371
19981SOL     OW61839   6.363   1.152  13.762
19981SOL    HW161840   6.282   1.144  13.813
19981SOL    HW261841   6.432   1.156  13.827
19982SOL     OW61842  14.684   0.507   0.746
19982SOL    HW161843  14.640   0.433   0.788
19982SOL    HW261844  14.736   0.548   0.815
19983SOL     OW61845   2.878   9.547  10.792
19983SOL    HW161846   2.940   9.577  10.858
19983SOL    HW261847   2.901   9.596  10.712
19984SOL     OW61848   8.825   3.649   8.032
19984SOL    HW161849   8.852   3.656   8.123
19984SOL    HW261850   8.765   3.722   8.019
19985SOL     OW61851   4.785  12.081  12.627
19985SOL    HW161852   4.773  11.994  12.587
19985SOL    HW261853   4.773  12.066  12.721
19986SOL     OW61854   3.134   2.841  13.733
19986SOL    HW161855   3.197   2.887  13.679
19986SOL    HW261856   3.133   2.751  13.700
19987SOL     OW61857  10.862  11.134  10.381
19987SOL    HW161858  10.857  11.209  10.440
19987SOL    HW261859  10.940  11.150  10.329
19988SOL     OW61860   2.427  12.188  13.412
19988SOL    HW161861   2.339  12.178  13.448
19988SOL    HW261862   2.421  12.261  13.351
19989SOL     OW61863  14.001   5.570   5.714
19989SOL    HW161864  13.981   5.479   5.733
19989SOL    HW261865  14.087   5.585   5.752
19990SOL     OW61866   1.786   6.500   7.455
19990SOL    HW161867   1.763   6.488   7.363
19990SOL    HW261868   1.712   6.464   7.504
19991SOL     OW61869   3.179   5.661   9.202
19991SOL    HW161870   3.096   5.644   9.247
19991SOL    HW261871   3.242   5.670   9.273
19992SOL     OW61872  12.113  13.199  11.181
19992SOL    HW161873  12.053  13.182  11.108
19992SOL    HW261874  12.087  13.286  11.213
19993SOL     OW61875  12.529   2.773   8.831
19993SOL    HW161876  12.490   2.700   8.782
19993SOL    HW261877  12.458   2.837   8.840
19994SOL     OW61878   0.972  10.292  11.798
19994SOL    HW161879   0.947  10.203  11.826
19994SOL    HW261880   1.043  10.316  11.857
19995SOL     OW61881   0.358   1.745   9.038
19995SOL    HW161882   0.338   1.718   8.949
19995SOL    HW261883   0.417   1.677   9.071
19996SOL     OW61884  10.658   6.963   9.576
19996SOL    HW161885  10.746   6.939   9.602
19996SOL    HW261886  10.612   6.880   9.562
19997SOL     OW61887   2.954   9.648   5.470
19997SOL    HW161888   2.922   9.732   5.438
19997SOL    HW261889   2.883   9.615   5.525
19998SOL     OW61890   9.581   3.733   5.896
19998SOL    HW161891   9.605   3.786   5.972
19998SOL    HW261892   9.631   3.771   5.824
19999SOL     OW61893   9.767   1.691   3.098
19999SOL    HW161894   9.685   1.711   3.143
19999SOL    HW261895   9.770   1.596   3.094
20000SOL     OW61896  11.984  11.585  11.527
20000SOL    HW161897  11.944  11.609  11.443
20000SOL    HW261898  11.914  11.542  11.576
20001SOL     OW61899   0.711   6.591   4.654
20001SOL    HW161900   0.787   6.545   4.616
20001SOL    HW261901   0.656   6.612   4.578
20002SOL     OW61902   6.080   4.663   6.820
20002SOL    HW161903   6.106   4.605   6.891
20002SOL    HW261904   6.161   4.702   6.789
20003SOL     OW61905   0.447  10.435   3.499
20003SOL    HW161906   0.529  10.386   3.496
20003SOL    HW261907   0.426  10.451   3.407
20004SOL     OW61908   5.422  11.413   6.841
20004SOL    HW161909   5.350  11.362   6.804
20004SOL    HW261910   5.410  11.500   6.803
20005SOL     OW61911   9.180   2.755   9.955
20005SOL    HW161912   9.205   2.832  10.006
20005SOL    HW261913   9.214   2.681  10.006
20006SOL     OW61914  12.036  12.480   8.049
20006SOL    HW161915  12.005  12.537   8.120
20006SOL    HW261916  12.053  12.396   8.091
20007SOL     OW61917  10.208   6.920   8.389
20007SOL    HW161918  10.190   6.951   8.477
20007SOL    HW261919  10.121   6.906   8.350
20008SOL     OW61920   5.689   0.711   4.291
20008SOL    HW161921   5.624   0.654   4.334
20008SOL    HW261922   5.689   0.681   4.200
20009SOL     OW61923   1.472   9.276   8.949
20009SOL    HW161924   1.470   9.302   9.041
20009SOL    HW261925   1.530   9.339   8.907
20010SOL     OW61926   6.753   9.804   6.280
20010SOL    HW161927   6.845   9.796   6.307
20010SOL    HW261928   6.744   9.744   6.207
20011SOL     OW61929   3.757   0.866   0.612
20011SOL    HW161930   3.828   0.905   0.663
20011SOL    HW261931   3.743   0.928   0.540
20012SOL     OW61932   2.848  12.809   1.144
20012SOL    HW161933   2.911  12.745   1.178
20012SOL    HW261934   2.841  12.787   1.051
20013SOL     OW61935   2.621  10.951   2.742
20013SOL    HW161936   2.593  11.018   2.679
20013SOL    HW261937   2.616  10.869   2.693
20014SOL     OW61938  11.551   3.441   1.756
20014SOL    HW161939  11.520   3.486   1.677
20014SOL    HW261940  11.646   3.456   1.755
20015SOL     OW61941  14.802   1.461  11.466
20015SOL    HW161942  14.710   1.483  11.480
20015SOL    HW261943  14.827   1.509  11.387
20016SOL     OW61944   4.896   0.895  12.216
20016SOL    HW161945   4.930   0.967  12.270
20016SOL    HW261946   4.849   0.938  12.145
20017SOL     OW61947   5.050   3.211  12.298
20017SOL    HW161948   4.989   3.284  12.285
20017SOL    HW261949   5.000   3.146  12.347
20018SOL     OW61950  12.104  13.500   9.173
20018SOL    HW161951  12.175  13.544   9.218
20018SOL    HW261952  12.101  13.540   9.087
20019SOL     OW61953  10.619   0.206   0.642
20019SOL    HW161954  10.633   0.277   0.580
20019SOL    HW261955  10.525   0.187   0.635
20020SOL     OW61956  11.518  13.819  14.574
20020SOL    HW161957  11.500  13.793  14.664
20020SOL    HW261958  11.613  13.811  14.565
20021SOL     OW61959   1.497   6.478   8.888
20021SOL    HW161960   1.446   6.520   8.958
20021SOL    HW261961   1.581   6.524   8.889
20022SOL     OW61962   5.643   4.993   3.953
20022SOL    HW161963   5.666   4.954   3.869
20022SOL    HW261964   5.655   4.923   4.017
20023SOL     OW61965  12.593   7.263   2.134
20023SOL    HW161966  12.553   7.214   2.206
20023SOL    HW261967  12.687   7.249   2.144
20024SOL     OW61968   2.739   2.570  11.945
20024SOL    HW161969   2.828   2.547  11.969
20024SOL    HW261970   2.689   2.490  11.958
20025SOL     OW61971   7.124  10.863   8.070
20025SOL    HW161972   7.189  10.927   8.100
20025SOL    HW261973   7.047  10.879   8.125
20026SOL     OW61974   0.942   6.582   8.796
20026SOL    HW161975   0.981   6.572   8.883
20026SOL    HW261976   0.863   6.633   8.810
20027SOL     OW61977   8.447  12.157  14.508
20027SOL    HW161978   8.479  12.097  14.440
20027SOL    HW261979   8.495  12.132  14.587
20028SOL     OW61980   4.022  12.898  14.001
20028SOL    HW161981   4.041  12.968  13.938
20028SOL    HW261982   4.069  12.924  14.080
20029SOL     OW61983   9.040   7.478   9.761
20029SOL    HW161984   9.110   7.491   9.697
20029SOL    HW261985   8.986   7.409   9.724
20030SOL     OW61986  12.407   4.015  14.191
20030SOL    HW161987  12.461   4.062  14.255
20030SOL    HW261988  12.470   3.965  14.139
20031SOL     OW61989  14.027   8.821   5.636
20031SOL    HW161990  14.100   8.823   5.573
20031SOL    HW261991  14.066   8.845   5.719
20032SOL     OW61992   8.682  10.119   9.906
20032SOL    HW161993   8.630  10.048   9.943
20032SOL    HW261994   8.638  10.140   9.823
20033SOL     OW61995   5.861   5.744   3.927
20033SOL    HW161996   5.865   5.812   3.859
20033SOL    HW261997   5.769   5.720   3.931
20034SOL     OW61998   0.388   5.753  12.526
20034SOL    HW161999   0.468   5.720  12.568
20034SOL    HW262000   0.413   5.839  12.493
20035SOL     OW62001   2.277   5.681  11.106
20035SOL    HW162002   2.340   5.713  11.170
20035SOL    HW262003   2.192   5.706  11.143
20036SOL     OW62004   6.455  13.301   8.583
20036SOL    HW162005   6.532  13.257   8.547
20036SOL    HW262006   6.470  13.303   8.678
20037SOL     OW62007  14.487  10.104   4.725
20037SOL    HW162008  14.480  10.054   4.806
20037SOL    HW262009  14.487  10.195   4.753
20038SOL     OW62010   6.945  13.753  12.700
20038SOL    HW162011   6.935  13.676  12.644
20038SOL    HW262012   6.900  13.823  12.653
20039SOL     OW62013   1.026   2.449  13.022
20039SOL    HW162014   0.934   2.471  13.037
20039SOL    HW262015   1.038   2.364  13.065
20040SOL     OW62016  13.831   0.388  12.695
20040SOL    HW162017  13.777   0.318  12.659
20040SOL    HW262018  13.774   0.464  12.698
20041SOL     OW62019  14.322   4.975   7.380
20041SOL    HW162020  14.374   4.914   7.328
20041SOL    HW262021  14.303   4.928   7.461
20042SOL     OW62022   7.736   2.581   3.670
20042SOL    HW162023   7.771   2.493   3.684
20042SOL    HW262024   7.813   2.638   3.665
20043SOL     OW62025  13.068   4.736   5.043
20043SOL    HW162026  13.011   4.812   5.029
20043SOL    HW262027  13.020   4.663   5.003
20044SOL     OW62028  11.516   5.575   5.731
20044SOL    HW162029  11.506   5.529   5.815
20044SOL    HW262030  11.535   5.506   5.668
20045SOL     OW62031  10.844  11.035   9.882
20045SOL    HW162032  10.841  11.130   9.869
20045SOL    HW262033  10.859  11.000   9.794
20046SOL     OW62034  11.148  11.858  10.914
20046SOL    HW162035  11.082  11.921  10.944
20046SOL    HW262036  11.103  11.804  10.849
20047SOL     OW62037   8.953   7.313   3.620
20047SOL    HW162038   8.940   7.277   3.533
20047SOL    HW262039   9.041   7.351   3.617
20048SOL     OW62040   5.943   7.759  14.196
20048SOL    HW162041   5.980   7.838  14.236
20048SOL    HW262042   5.994   7.687  14.233
20049SOL     OW62043   3.154   9.286   0.848
20049SOL    HW162044   3.129   9.361   0.794
20049SOL    HW262045   3.233   9.252   0.805
20050SOL     OW62046   3.820   5.267   7.657
20050SOL    HW162047   3.891   5.205   7.677
20050SOL    HW262048   3.742   5.227   7.696
20051SOL     OW62049   4.228   6.712   0.073
20051SOL    HW162050   4.140   6.676   0.077
20051SOL    HW262051   4.220   6.790   0.018
20052SOL     OW62052   9.551   1.120   4.935
20052SOL    HW162053   9.644   1.129   4.914
20052SOL    HW262054   9.549   1.112   5.031
20053SOL     OW62055   2.966   1.808   2.767
20053SOL    HW162056   2.875   1.797   2.796
20053SOL    HW262057   3.018   1.766   2.835
20054SOL     OW62058  12.351   7.029  14.832
20054SOL    HW162059  12.426   7.069   0.007
20054SOL    HW262060  12.382   7.008  14.744
20055SOL     OW62061   4.418  10.726  13.973
20055SOL    HW162062   4.496  10.757  13.928
20055SOL    HW262063   4.347  10.744  13.912
20056SOL     OW62064  12.435   1.221   0.047
20056SOL    HW162065  12.512   1.206   0.101
20056SOL    HW262066  12.362   1.193   0.101
20057SOL     OW62067   6.255  14.633  10.065
20057SOL    HW162068   6.324  14.689  10.028
20057SOL    HW262069   6.185  14.693  10.087
20058SOL     OW62070  14.429  11.899   5.598
20058SOL    HW162071  14.402  11.990   5.583
20058SOL    HW262072  14.524  11.900   5.586
20059SOL     OW62073  12.560  11.360  14.719
20059SOL    HW162074  12.466  11.372  14.731
20059SOL    HW262075  12.568  11.321  14.632
20060SOL     OW62076   7.252   8.895  12.835
20060SOL    HW162077   7.242   8.980  12.793
20060SOL    HW262078   7.330   8.904  12.890
20061SOL     OW62079   2.128  10.232   2.323
20061SOL    HW162080   2.194  10.176   2.283
20061SOL    HW262081   2.153  10.236   2.415
20062SOL     OW62082   1.050   1.040   3.603
20062SOL    HW162083   1.043   1.106   3.672
20062SOL    HW262084   1.047   1.090   3.522
20063SOL     OW62085  11.479   6.462  11.779
20063SOL    HW162086  11.448   6.513  11.703
20063SOL    HW262087  11.446   6.510  11.855
20064SOL     OW62088  12.738   4.376   6.574
20064SOL    HW162089  12.685   4.436   6.627
20064SOL    HW262090  12.822   4.372   6.620
20065SOL     OW62091   6.296  12.484   0.515
20065SOL    HW162092   6.313  12.418   0.582
20065SOL    HW262093   6.305  12.568   0.561
20066SOL     OW62094  11.725   8.809   9.316
20066SOL    HW162095  11.806   8.761   9.295
20066SOL    HW262096  11.655   8.754   9.281
20067SOL     OW62097  13.045   9.316   3.712
20067SOL    HW162098  12.958   9.281   3.729
20067SOL    HW262099  13.090   9.246   3.665
20068SOL     OW62100   8.102  11.813  10.769
20068SOL    HW162101   8.130  11.903  10.749
20068SOL    HW262102   8.117  11.765  10.687
20069SOL     OW62103   0.281   8.423   3.166
20069SOL    HW162104   0.289   8.417   3.261
20069SOL    HW262105   0.277   8.517   3.148
20070SOL     OW62106  14.466   2.488   1.970
20070SOL    HW162107  14.499   2.450   1.889
20070SOL    HW262108  14.373   2.504   1.952
20071SOL     OW62109  13.511  13.564  12.675
20071SOL    HW162110  13.428  13.545  12.717
20071SOL    HW262111  13.509  13.515  12.592
20072SOL     OW62112   0.455   8.769  11.921
20072SOL    HW162113   0.496   8.765  11.835
20072SOL    HW262114   0.396   8.694  11.924
20073SOL     OW62115  13.059  10.632  10.995
20073SOL    HW162116  13.046  10.567  11.063
20073SOL    HW262117  13.127  10.594  10.938
20074SOL     OW62118   0.628  10.891  13.354
20074SOL    HW162119   0.624  10.811  13.405
20074SOL    HW262120   0.547  10.892  13.304
20075SOL     OW62121   0.998   3.981   7.674
20075SOL    HW162122   1.014   3.912   7.609
20075SOL    HW262123   1.068   4.044   7.661
20076SOL     OW62124  13.088  10.961   7.739
20076SOL    HW162125  13.025  10.906   7.693
20076SOL    HW262126  13.127  10.903   7.805
20077SOL     OW62127  14.082  12.506   5.241
20077SOL    HW162128  14.110  12.428   5.289
20077SOL    HW262129  14.063  12.475   5.153
20078SOL     OW62130   6.380  13.984   5.406
20078SOL    HW162131   6.441  14.050   5.438
20078SOL    HW262132   6.436  13.909   5.382
20079SOL     OW62133  13.529  14.132   1.599
20079SOL    HW162134  13.556  14.209   1.649
20079SOL    HW262135  13.605  14.073   1.602
20080SOL     OW62136   4.773   2.641  12.261
20080SOL    HW162137   4.711   2.615  12.330
20080SOL    HW262138   4.813   2.559  12.232
20081SOL     OW62139   9.245   2.423  11.489
20081SOL    HW162140   9.163   2.464  11.516
20081SOL    HW262141   9.312   2.462  11.545
20082SOL     OW62142   8.717  14.551  14.199
20082SOL    HW162143   8.638  14.604  14.188
20082SOL    HW262144   8.687  14.474  14.247
20083SOL     OW62145   1.981   6.120   4.800
20083SOL    HW162146   1.934   6.155   4.876
20083SOL    HW262147   1.915   6.071   4.752
20084SOL     OW62148   6.514   1.326  14.455
20084SOL    HW162149   6.599   1.347  14.416
20084SOL    HW262150   6.510   1.380  14.533
20085SOL     OW62151   1.421   1.278   2.902
20085SOL    HW162152   1.497   1.232   2.938
20085SOL    HW262153   1.365   1.208   2.869
20086SOL     OW62154  14.527   2.942   2.496
20086SOL    HW162155  14.490   2.941   2.584
20086SOL    HW262156  14.485   2.869   2.451
20087SOL     OW62157  10.950  10.543  13.135
20087SOL    HW162158  10.927  10.466  13.187
20087SOL    HW262159  11.002  10.509  13.063
20088SOL     OW62160  10.432   3.393   8.624
20088SOL    HW162161  10.421   3.365   8.533
20088SOL    HW262162  10.376   3.334   8.674
20089SOL     OW62163  14.167  12.808   2.734
20089SOL    HW162164  14.168  12.718   2.700
20089SOL    HW262165  14.132  12.800   2.823
20090SOL     OW62166   0.401   8.500   9.687
20090SOL    HW162167   0.358   8.508   9.602
20090SOL    HW262168   0.376   8.414   9.719
20091SOL     OW62169  14.294  13.636   3.287
20091SOL    HW162170  14.360  13.658   3.354
20091SOL    HW262171  14.222  13.597   3.337
20092SOL     OW62172   3.125  10.867   2.827
20092SOL    HW162173   3.078  10.919   2.761
20092SOL    HW262174   3.193  10.926   2.859
20093SOL     OW62175  11.791   3.176   1.695
20093SOL    HW162176  11.850   3.130   1.636
20093SOL    HW262177  11.722   3.211   1.639
20094SOL     OW62178   9.499   6.429   5.155
20094SOL    HW162179   9.559   6.392   5.090
20094SOL    HW262180   9.434   6.360   5.169
20095SOL     OW62181   1.747  14.234  12.865
20095SOL    HW162182   1.682  14.304  12.859
20095SOL    HW262183   1.785  14.228  12.777
20096SOL     OW62184   9.542   4.650   0.943
20096SOL    HW162185   9.604   4.674   1.012
20096SOL    HW262186   9.476   4.598   0.988
20097SOL     OW62187   2.904  11.441   0.953
20097SOL    HW162188   2.915  11.471   1.043
20097SOL    HW262189   2.876  11.350   0.961
20098SOL     OW62190  13.138   0.075   0.057
20098SOL    HW162191  13.167   0.161   0.088
20098SOL    HW262192  13.043   0.077   0.065
20099SOL     OW62193  11.483   8.234   2.333
20099SOL    HW162194  11.433   8.174   2.389
20099SOL    HW262195  11.493   8.313   2.386
20100SOL     OW62196   6.928   8.664   6.530
20100SOL    HW162197   6.908   8.577   6.494
20100SOL    HW262198   6.860   8.679   6.596
20101SOL     OW62199  13.741  11.814   6.064
20101SOL    HW162200  13.702  11.875   6.001
20101SOL    HW262201  13.688  11.824   6.143
20102SOL     OW62202   0.174   2.047   1.349
20102SOL    HW162203   0.143   2.103   1.278
20102SOL    HW262204   0.265   2.071   1.361
20103SOL     OW62205   2.274   7.225   5.707
20103SOL    HW162206   2.296   7.306   5.752
20103SOL    HW262207   2.303   7.239   5.617
20104SOL     OW62208   9.579   6.755  14.136
20104SOL    HW162209   9.636   6.820  14.177
20104SOL    HW262210   9.637   6.707  14.076
20105SOL     OW62211   8.450  12.413   9.822
20105SOL    HW162212   8.483  12.452   9.903
20105SOL    HW262213   8.388  12.346   9.851
20106SOL     OW62214   8.482   5.884   2.101
20106SOL    HW162215   8.542   5.882   2.026
20106SOL    HW262216   8.534   5.920   2.173
20107SOL     OW62217   6.520   6.616  12.905
20107SOL    HW162218   6.496   6.674  12.833
20107SOL    HW262219   6.560   6.540  12.863
20108SOL     OW62220  14.807   5.485   9.646
20108SOL    HW162221  14.814   5.396   9.681
20108SOL    HW262222   0.005   5.489   9.577
20109SOL     OW62223  13.691  13.348  10.198
20109SOL    HW162224  13.619  13.288  10.219
20109SOL    HW262225  13.754  13.335  10.270
20110SOL     OW62226   0.846   1.182   3.958
20110SOL    HW162227   0.809   1.111   3.906
20110SOL    HW262228   0.842   1.150   4.049
20111SOL     OW62229   5.130   2.040  14.474
20111SOL    HW162230   5.116   2.007  14.563
20111SOL    HW262231   5.125   2.135  14.483
20112SOL     OW62232   0.114   5.733  14.196
20112SOL    HW162233   0.066   5.701  14.273
20112SOL    HW262234   0.088   5.674  14.126
20113SOL     OW62235  13.058   0.635  11.694
20113SOL    HW162236  13.024   0.616  11.607
20113SOL    HW262237  12.984   0.625  11.753
20114SOL     OW62238  13.178  12.668   9.426
20114SOL    HW162239  13.204  12.668   9.334
20114SOL    HW262240  13.238  12.728   9.469
20115SOL     OW62241   4.849  13.287   5.286
20115SOL    HW162242   4.941  13.304   5.268
20115SOL    HW262243   4.807  13.373   5.283
20116SOL     OW62244   0.045   7.918  14.256
20116SOL    HW162245   0.020   7.841  14.307
20116SOL    HW262246   0.135   7.937  14.284
20117SOL     OW62247   0.021   9.603  12.225
20117SOL    HW162248   0.085   9.624  12.293
20117SOL    HW262249  14.815   9.564  12.272
20118SOL     OW62250  12.715  12.779   0.127
20118SOL    HW162251  12.781  12.789   0.058
20118SOL    HW262252  12.657  12.854   0.115
20119SOL     OW62253  11.318   0.636  14.296
20119SOL    HW162254  11.265   0.567  14.336
20119SOL    HW262255  11.365   0.676  14.369
20120SOL     OW62256   5.062   6.468  11.915
20120SOL    HW162257   5.121   6.530  11.957
20120SOL    HW262258   5.045   6.403  11.983
20121SOL     OW62259  12.646  11.365   3.959
20121SOL    HW162260  12.678  11.450   3.930
20121SOL    HW262261  12.717  11.330   4.013
20122SOL     OW62262  12.080   3.492   1.796
20122SOL    HW162263  12.129   3.501   1.877
20122SOL    HW262264  12.137   3.441   1.738
20123SOL     OW62265  12.678  10.406  13.011
20123SOL    HW162266  12.665  10.330  13.068
20123SOL    HW262267  12.605  10.402  12.950
20124SOL     OW62268   7.914   1.837  10.880
20124SOL    HW162269   7.851   1.891  10.832
20124SOL    HW262270   7.977   1.899  10.915
20125SOL     OW62271   3.344   8.901   3.817
20125SOL    HW162272   3.350   8.932   3.907
20125SOL    HW262273   3.396   8.964   3.767
20126SOL     OW62274  11.312   2.248  14.225
20126SOL    HW162275  11.406   2.258  14.243
20126SOL    HW262276  11.298   2.302  14.147
20127SOL     OW62277   1.964   2.928   8.796
20127SOL    HW162278   2.002   3.015   8.808
20127SOL    HW262279   1.875   2.944   8.766
20128SOL     OW62280   6.466  12.068   5.818
20128SOL    HW162281   6.456  11.989   5.872
20128SOL    HW262282   6.392  12.123   5.841
20129SOL     OW62283  11.023   3.481  14.081
20129SOL    HW162284  11.108   3.492  14.039
20129SOL    HW262285  11.040   3.491  14.175
20130SOL     OW62286   7.049   5.457  12.082
20130SOL    HW162287   7.014   5.477  12.169
20130SOL    HW262288   7.087   5.540  12.052
20131SOL     OW62289   3.036  12.146  12.267
20131SOL    HW162290   2.989  12.107  12.341
20131SOL    HW262291   3.126  12.116  12.277
20132SOL     OW62292   0.017  11.182   5.009
20132SOL    HW162293  14.864  11.162   5.100
20132SOL    HW262294   0.099  11.137   4.992
20133SOL     OW62295   1.370   3.307  11.100
20133SOL    HW162296   1.314   3.342  11.031
20133SOL    HW262297   1.447   3.273  11.054
20134SOL     OW62298  14.547   0.045  12.179
20134SOL    HW162299  14.614  14.853  12.213
20134SOL    HW262300  14.486   0.055  12.252
20135SOL     OW62301  13.704   8.186   7.895
20135SOL    HW162302  13.693   8.151   7.983
20135SOL    HW262303  13.667   8.274   7.899
20136SOL     OW62304  14.390   1.054  10.832
20136SOL    HW162305  14.442   0.974  10.838
20136SOL    HW262306  14.299   1.025  10.830
20137SOL     OW62307   7.491  12.115   5.792
20137SOL    HW162308   7.455  12.026   5.797
20137SOL    HW262309   7.586  12.102   5.785
20138SOL     OW62310   1.038   3.393   2.094
20138SOL    HW162311   0.987   3.321   2.131
20138SOL    HW262312   1.129   3.363   2.096
20139SOL     OW62313   4.449   7.153   5.882
20139SOL    HW162314   4.525   7.205   5.856
20139SOL    HW262315   4.455   7.148   5.977
20140SOL     OW62316   5.667   1.820   8.199
20140SOL    HW162317   5.575   1.844   8.204
20140SOL    HW262318   5.714   1.904   8.201
20141SOL     OW62319   8.958  13.978  11.954
20141SOL    HW162320   9.025  13.956  11.889
20141SOL    HW262321   8.888  14.020  11.903
20142SOL     OW62322   2.345   8.851  10.192
20142SOL    HW162323   2.317   8.793  10.121
20142SOL    HW262324   2.305   8.935  10.172
20143SOL     OW62325  12.532   4.655   7.542
20143SOL    HW162326  12.463   4.719   7.557
20143SOL    HW262327  12.511   4.614   7.459
20144SOL     OW62328  12.087  11.804   9.215
20144SOL    HW162329  12.139  11.726   9.234
20144SOL    HW262330  12.065  11.840   9.301
20145SOL     OW62331   5.851   1.471   5.474
20145SOL    HW162332   5.933   1.521   5.479
20145SOL    HW262333   5.790   1.520   5.529
20146SOL     OW62334   3.944  10.293  14.197
20146SOL    HW162335   3.908  10.204  14.207
20146SOL    HW262336   4.037  10.283  14.218
20147SOL     OW62337  13.722   9.713   6.743
20147SOL    HW162338  13.626   9.717   6.748
20147SOL    HW262339  13.741   9.711   6.649
20148SOL     OW62340   6.391   6.728   8.146
20148SOL    HW162341   6.341   6.739   8.066
20148SOL    HW262342   6.443   6.649   8.133
20149SOL     OW62343   1.818   7.989   0.912
20149SOL    HW162344   1.863   7.992   0.827
20149SOL    HW262345   1.888   8.002   0.976
20150SOL     OW62346   0.022  11.026   4.688
20150SOL    HW162347   0.087  11.028   4.758
20150SOL    HW262348   0.074  11.033   4.607
20151SOL     OW62349   5.765  12.603   4.798
20151SOL    HW162350   5.856  12.627   4.779
20151SOL    HW262351   5.716  12.682   4.777
20152SOL     OW62352   8.611  11.856   2.633
20152SOL    HW162353   8.676  11.865   2.703
20152SOL    HW262354   8.539  11.809   2.674
20153SOL     OW62355   9.829   0.162  12.651
20153SOL    HW162356   9.851   0.223  12.581
20153SOL    HW262357   9.737   0.180  12.672
20154SOL     OW62358   9.281  13.023   0.575
20154SOL    HW162359   9.244  12.941   0.609
20154SOL    HW262360   9.339  12.995   0.504
20155SOL     OW62361  11.891  13.530  14.410
20155SOL    HW162362  11.910  13.501  14.320
20155SOL    HW262363  11.813  13.481  14.435
20156SOL     OW62364   0.047   5.000  12.821
20156SOL    HW162365   0.014   4.931  12.765
20156SOL    HW262366   0.064   5.074  12.762
20157SOL     OW62367   5.494  13.216   2.820
20157SOL    HW162368   5.562  13.170   2.869
20157SOL    HW262369   5.491  13.303   2.860
20158SOL     OW62370   5.887   5.526  12.456
20158SOL    HW162371   5.797   5.526  12.489
20158SOL    HW262372   5.911   5.618  12.451
20159SOL     OW62373  13.814   2.453  10.310
20159SOL    HW162374  13.831   2.452  10.404
20159SOL    HW262375  13.722   2.478  10.302
20160SOL     OW62376   0.932   8.337   4.962
20160SOL    HW162377   0.971   8.416   5.001
20160SOL    HW262378   1.006   8.278   4.950
20161SOL     OW62379  10.201   6.514  12.211
20161SOL    HW162380  10.254   6.530  12.133
20161SOL    HW262381  10.161   6.428  12.196
20162SOL     OW62382   5.582  10.733   4.819
20162SOL    HW162383   5.493  10.698   4.812
20162SOL    HW262384   5.618  10.690   4.897
20163SOL     OW62385   0.283   9.348   7.131
20163SOL    HW162386   0.322   9.433   7.109
20163SOL    HW262387   0.358   9.292   7.152
20164SOL     OW62388   6.102   1.717   4.705
20164SOL    HW162389   6.106   1.750   4.615
20164SOL    HW262390   6.185   1.670   4.716
20165SOL     OW62391  12.107   8.536   9.651
20165SOL    HW162392  12.024   8.565   9.613
20165SOL    HW262393  12.089   8.528   9.744
20166SOL     OW62394  12.787  13.223  13.015
20166SOL    HW162395  12.777  13.159  13.085
20166SOL    HW262396  12.698  13.248  12.991
20167SOL     OW62397   1.142   5.581   8.669
20167SOL    HW162398   1.123   5.653   8.609
20167SOL    HW262399   1.234   5.560   8.652
20168SOL     OW62400  10.447   8.391  11.216
20168SOL    HW162401  10.490   8.466  11.176
20168SOL    HW262402  10.416   8.338  11.142
20169SOL     OW62403   5.823   3.204  10.076
20169SOL    HW162404   5.754   3.154  10.121
20169SOL    HW262405   5.809   3.294  10.105
20170SOL     OW62406   3.059   9.058   9.196
20170SOL    HW162407   3.038   9.109   9.274
20170SOL    HW262408   3.077   8.970   9.230
20171SOL     OW62409  13.030   0.180  14.289
20171SOL    HW162410  12.960   0.217  14.235
20171SOL    HW262411  12.998   0.094  14.316
20172SOL     OW62412  13.838   1.919   5.707
20172SOL    HW162413  13.787   1.841   5.685
20172SOL    HW262414  13.829   1.927   5.802
20173SOL     OW62415   6.941   8.093   0.277
20173SOL    HW162416   6.939   8.021   0.214
20173SOL    HW262417   6.945   8.172   0.223
20174SOL     OW62418  14.862   4.761  12.676
20174SOL    HW162419  14.773   4.727  12.664
20174SOL    HW262420   0.033   4.760  12.588
20175SOL     OW62421  12.134   4.011   0.908
20175SOL    HW162422  12.171   4.097   0.891
20175SOL    HW262423  12.210   3.953   0.914
20176SOL     OW62424   7.438   4.204  10.085
20176SOL    HW162425   7.442   4.227   9.992
20176SOL    HW262426   7.527   4.175  10.106
20177SOL     OW62427   5.287   9.867   1.967
20177SOL    HW162428   5.311   9.821   1.887
20177SOL    HW262429   5.322   9.955   1.956
20178SOL     OW62430   8.156   9.291  12.313
20178SOL    HW162431   8.127   9.269  12.402
20178SOL    HW262432   8.228   9.352  12.326
20179SOL     OW62433  10.700   2.378  13.330
20179SOL    HW162434  10.677   2.331  13.250
20179SOL    HW262435  10.708   2.309  13.396
20180SOL     OW62436  12.284  12.952   4.994
20180SOL    HW162437  12.303  12.865   5.029
20180SOL    HW262438  12.367  12.981   4.955
20181SOL     OW62439   4.683   8.712  14.567
20181SOL    HW162440   4.775   8.719  14.541
20181SOL    HW262441   4.648   8.800  14.555
20182SOL     OW62442  11.957   6.867  12.700
20182SOL    HW162443  11.959   6.947  12.648
20182SOL    HW262444  11.902   6.807  12.650
20183SOL     OW62445   3.680   9.695   5.515
20183SOL    HW162446   3.611   9.749   5.479
20183SOL    HW262447   3.748   9.694   5.448
20184SOL     OW62448   0.898  12.495   8.048
20184SOL    HW162449   0.812  12.524   8.018
20184SOL    HW262450   0.920  12.422   7.991
20185SOL     OW62451   3.079   1.737   7.114
20185SOL    HW162452   3.028   1.726   7.194
20185SOL    HW262453   3.169   1.719   7.140
20186SOL     OW62454   9.186   7.508   1.987
20186SOL    HW162455   9.098   7.517   1.951
20186SOL    HW262456   9.183   7.553   2.071
20187SOL     OW62457   3.399   2.736   5.732
20187SOL    HW162458   3.402   2.646   5.766
20187SOL    HW262459   3.309   2.746   5.700
20188SOL     OW62460   6.677   4.972  10.771
20188SOL    HW162461   6.688   5.045  10.710
20188SOL    HW262462   6.640   5.012  10.849
20189SOL     OW62463   3.106  12.091   3.212
20189SOL    HW162464   3.100  12.180   3.178
20189SOL    HW262465   3.155  12.043   3.145
20190SOL     OW62466  12.463   4.244   1.582
20190SOL    HW162467  12.417   4.251   1.499
20190SOL    HW262468  12.536   4.184   1.564
20191SOL     OW62469   2.261   6.113  14.346
20191SOL    HW162470   2.195   6.044  14.353
20191SOL    HW262471   2.244   6.171  14.420
20192SOL     OW62472   2.503   6.401   4.527
20192SOL    HW162473   2.486   6.323   4.581
20192SOL    HW262474   2.597   6.398   4.509
20193SOL     OW62475  13.538   6.708  11.391
20193SOL    HW162476  13.625   6.725  11.427
20193SOL    HW262477  13.479   6.712  11.467
20194SOL     OW62478   1.131   8.309   9.619
20194SOL    HW162479   1.145   8.214   9.617
20194SOL    HW262480   1.039   8.320   9.592
20195SOL     OW62481   4.085   1.333   9.036
20195SOL    HW162482   4.175   1.319   9.067
20195SOL    HW262483   4.090   1.416   8.988
20196SOL     OW62484   2.710   8.206   8.915
20196SOL    HW162485   2.653   8.134   8.941
20196SOL    HW262486   2.747   8.179   8.831
20197SOL     OW62487  13.367   0.058   8.168
20197SOL    HW162488  13.453   0.099   8.165
20197SOL    HW262489  13.314   0.116   8.222
20198SOL     OW62490  12.464  10.309   7.209
20198SOL    HW162491  12.544  10.262   7.186
20198SOL    HW262492  12.397  10.241   7.218
20199SOL     OW62493  12.431  12.934   4.423
20199SOL    HW162494  12.439  12.896   4.510
20199SOL    HW262495  12.482  12.876   4.367
20200SOL     OW62496   3.896  14.255  14.440
20200SOL    HW162497   3.944  14.310  14.378
20200SOL    HW262498   3.925  14.284  14.526
20201SOL     OW62499  12.242  12.411   2.998
20201SOL    HW162500  12.274  12.500   3.010
20201SOL    HW262501  12.310  12.356   3.038
20202SOL     OW62502   1.638   0.292   6.035
20202SOL    HW162503   1.642   0.256   6.124
20202SOL    HW262504   1.617   0.217   5.980
20203SOL     OW62505   2.423  14.524  10.070
20203SOL    HW162506   2.379  14.566  10.144
20203SOL    HW262507   2.489  14.588  10.042
20204SOL     OW62508   5.746   4.113   8.621
20204SOL    HW162509   5.653   4.111   8.640
20204SOL    HW262510   5.754   4.175   8.548
20205SOL     OW62511   1.268   3.576   9.365
20205SOL    HW162512   1.259   3.646   9.430
20205SOL    HW262513   1.192   3.520   9.381
20206SOL     OW62514  14.075   7.505   4.709
20206SOL    HW162515  14.157   7.523   4.755
20206SOL    HW262516  14.047   7.420   4.741
20207SOL     OW62517  13.622   8.499   6.031
20207SOL    HW162518  13.712   8.522   6.005
20207SOL    HW262519  13.566   8.553   5.975
20208SOL     OW62520   8.503   9.873   0.995
20208SOL    HW162521   8.500   9.922   1.077
20208SOL    HW262522   8.445   9.921   0.936
20209SOL     OW62523  11.883   1.034  11.439
20209SOL    HW162524  11.944   1.107  11.430
20209SOL    HW262525  11.800   1.068  11.403
20210SOL     OW62526  12.808   1.555   6.201
20210SOL    HW162527  12.842   1.466   6.188
20210SOL    HW262528  12.840   1.580   6.288
20211SOL     OW62529   7.217   1.540   8.873
20211SOL    HW162530   7.191   1.617   8.823
20211SOL    HW262531   7.238   1.475   8.806
20212SOL     OW62532  12.504   3.510  13.727
20212SOL    HW162533  12.599   3.496  13.733
20212SOL    HW262534  12.467   3.422  13.725
20213SOL     OW62535  10.895   5.358   2.202
20213SOL    HW162536  10.859   5.368   2.114
20213SOL    HW262537  10.975   5.411   2.201
20214SOL     OW62538  13.597   3.523   6.365
20214SOL    HW162539  13.535   3.539   6.294
20214SOL    HW262540  13.683   3.541   6.327
20215SOL     OW62541   1.397   6.794   3.507
20215SOL    HW162542   1.314   6.822   3.544
20215SOL    HW262543   1.460   6.859   3.538
20216SOL     OW62544  14.216  11.405   6.710
20216SOL    HW162545  14.310  11.420   6.703
20216SOL    HW262546  14.197  11.339   6.643
20217SOL     OW62547   2.516  11.759  11.020
20217SOL    HW162548   2.535  11.843  10.979
20217SOL    HW262549   2.422  11.763  11.041
20218SOL     OW62550  12.040  12.287   3.549
20218SOL    HW162551  12.042  12.327   3.636
20218SOL    HW262552  11.954  12.311   3.513
20219SOL     OW62553   8.625   5.394   4.064
20219SOL    HW162554   8.665   5.368   4.147
20219SOL    HW262555   8.554   5.331   4.051
20220SOL     OW62556  11.705   5.996   2.642
20220SOL    HW162557  11.686   6.002   2.548
20220SOL    HW262558  11.619   6.000   2.684
20221SOL     OW62559   5.207   4.031   4.328
20221SOL    HW162560   5.215   4.064   4.417
20221SOL    HW262561   5.119   4.057   4.300
20222SOL     OW62562  14.312   8.985   9.902
20222SOL    HW162563  14.300   9.080   9.908
20222SOL    HW262564  14.227   8.948   9.925
20223SOL     OW62565  12.061   8.590   4.134
20223SOL    HW162566  12.028   8.676   4.160
20223SOL    HW262567  12.129   8.569   4.198
20224SOL     OW62568   6.109   6.350   0.941
20224SOL    HW162569   6.076   6.361   0.851
20224SOL    HW262570   6.177   6.417   0.949
20225SOL     OW62571   2.314   0.322   1.156
20225SOL    HW162572   2.394   0.339   1.205
20225SOL    HW262573   2.252   0.388   1.187
20226SOL     OW62574   5.277  14.372  10.895
20226SOL    HW162575   5.195  14.354  10.851
20226SOL    HW262576   5.338  14.397  10.825
20227SOL     OW62577   7.760  14.028   4.456
20227SOL    HW162578   7.678  14.043   4.409
20227SOL    HW262579   7.788  13.941   4.426
20228SOL     OW62580   4.053  11.883   9.472
20228SOL    HW162581   4.035  11.851   9.384
20228SOL    HW262582   4.141  11.849   9.492
20229SOL     OW62583  14.152   3.588   5.322
20229SOL    HW162584  14.128   3.656   5.384
20229SOL    HW262585  14.209   3.632   5.259
20230SOL     OW62586   4.700  13.457   3.065
20230SOL    HW162587   4.606  13.454   3.049
20230SOL    HW262588   4.739  13.448   2.979
20231SOL     OW62589   7.115  11.216   2.887
20231SOL    HW162590   7.155  11.303   2.889
20231SOL    HW262591   7.096  11.200   2.795
20232SOL     OW62592   1.336  11.654  10.750
20232SOL    HW162593   1.366  11.729  10.698
20232SOL    HW262594   1.255  11.684  10.790
20233SOL     OW62595   5.239   6.043   1.190
20233SOL    HW162596   5.302   6.089   1.246
20233SOL    HW262597   5.257   6.076   1.102
20234SOL     OW62598   3.221   5.633   3.024
20234SOL    HW162599   3.200   5.572   2.953
20234SOL    HW262600   3.171   5.601   3.099
20235SOL     OW62601   3.489   6.632   6.385
20235SOL    HW162602   3.430   6.585   6.444
20235SOL    HW262603   3.561   6.662   6.442
20236SOL     OW62604  12.733   0.540  13.699
20236SOL    HW162605  12.661   0.486  13.665
20236SOL    HW262606  12.692   0.622  13.725
20237SOL     OW62607   1.323   7.856  12.985
20237SOL    HW162608   1.360   7.944  12.991
20237SOL    HW262609   1.228   7.869  12.984
20238SOL     OW62610   3.941   6.065  11.741
20238SOL    HW162611   3.982   5.986  11.776
20238SOL    HW262612   3.916   6.042  11.652
20239SOL     OW62613   7.064   9.083   3.926
20239SOL    HW162614   7.075   9.165   3.974
20239SOL    HW262615   6.972   9.058   3.942
20240SOL     OW62616   0.358  14.549   0.490
20240SOL    HW162617   0.308  14.469   0.502
20240SOL    HW262618   0.292  14.616   0.472
20241SOL     OW62619   7.688   1.298   1.466
20241SOL    HW162620   7.728   1.308   1.379
20241SOL    HW262621   7.600   1.337   1.456
20242SOL     OW62622  10.285   0.786  14.742
20242SOL    HW162623  10.306   0.724  14.812
20242SOL    HW262624  10.253   0.730  14.670
20243SOL     OW62625  10.629   0.011   9.542
20243SOL    HW162626  10.536   0.031   9.548
20243SOL    HW262627  10.656  14.859   9.631
20244SOL     OW62628   9.114   3.614   6.325
20244SOL    HW162629   9.152   3.527   6.337
20244SOL    HW262630   9.020   3.601   6.342
20245SOL     OW62631  11.530  12.171   4.740
20245SOL    HW162632  11.612  12.219   4.752
20245SOL    HW262633  11.484  12.181   4.824
20246SOL     OW62634   6.486   5.559  13.549
20246SOL    HW162635   6.476   5.465  13.535
20246SOL    HW262636   6.405   5.597  13.516
20247SOL     OW62637   1.873   3.282   6.556
20247SOL    HW162638   1.911   3.365   6.585
20247SOL    HW262639   1.805   3.263   6.620
20248SOL     OW62640   0.281  11.230   1.211
20248SOL    HW162641   0.246  11.316   1.187
20248SOL    HW262642   0.374  11.235   1.190
20249SOL     OW62643   9.917   5.721  13.695
20249SOL    HW162644   9.823   5.731  13.711
20249SOL    HW262645   9.943   5.647  13.751
20250SOL     OW62646   8.748   6.397   4.763
20250SOL    HW162647   8.674   6.455   4.744
20250SOL    HW262648   8.720   6.346   4.839
20251SOL     OW62649  11.738   8.094   0.579
20251SOL    HW162650  11.651   8.088   0.539
20251SOL    HW262651  11.744   8.184   0.609
20252SOL     OW62652  14.276   3.656  13.987
20252SOL    HW162653  14.354   3.711  13.975
20252SOL    HW262654  14.300   3.596  14.058
20253SOL     OW62655   5.630  12.034   2.871
20253SOL    HW162656   5.587  11.951   2.851
20253SOL    HW262657   5.672  12.019   2.956
20254SOL     OW62658   8.132   3.504  13.520
20254SOL    HW162659   8.185   3.424  13.522
20254SOL    HW262660   8.159   3.549  13.440
20255SOL     OW62661   4.466   8.376  10.534
20255SOL    HW162662   4.376   8.373  10.564
20255SOL    HW262663   4.483   8.289  10.498
20256SOL     OW62664   9.231   9.412  13.678
20256SOL    HW162665   9.287   9.382  13.750
20256SOL    HW262666   9.196   9.331  13.641
20257SOL     OW62667   4.877   2.777   7.708
20257SOL    HW162668   4.866   2.720   7.632
20257SOL    HW262669   4.803   2.838   7.702
20258SOL     OW62670   7.946   6.666   1.053
20258SOL    HW162671   7.969   6.648   1.144
20258SOL    HW262672   7.853   6.642   1.047
20259SOL     OW62673  13.419  12.193   8.853
20259SOL    HW162674  13.459  12.195   8.940
20259SOL    HW262675  13.429  12.282   8.819
20260SOL     OW62676  12.139   2.330   8.102
20260SOL    HW162677  12.169   2.312   8.191
20260SOL    HW262678  12.202   2.394   8.068
20261SOL     OW62679   4.735   3.978   7.852
20261SOL    HW162680   4.652   3.996   7.896
20261SOL    HW262681   4.745   4.050   7.790
20262SOL     OW62682   8.715   0.731  11.435
20262SOL    HW162683   8.676   0.644  11.446
20262SOL    HW262684   8.643   0.784  11.401
20263SOL     OW62685   5.083   3.508   5.946
20263SOL    HW162686   5.038   3.548   5.872
20263SOL    HW262687   5.016   3.502   6.014
20264SOL     OW62688  10.932   7.872  10.479
20264SOL    HW162689  10.849   7.905  10.514
20264SOL    HW262690  10.973   7.949  10.438
20265SOL     OW62691  14.852   6.563  12.135
20265SOL    HW162692  14.844   6.536  12.044
20265SOL    HW262693  14.762   6.566  12.167
20266SOL     OW62694   6.591   0.494  14.131
20266SOL    HW162695   6.527   0.457  14.192
20266SOL    HW262696   6.674   0.453  14.155
20267SOL     OW62697   7.717  14.282   4.668
20267SOL    HW162698   7.731  14.374   4.645
20267SOL    HW262699   7.791  14.236   4.629
20268SOL     OW62700  13.485   6.981   5.818
20268SOL    HW162701  13.400   6.988   5.861
20268SOL    HW262702  13.534   6.918   5.871
20269SOL     OW62703   7.892   8.815   2.794
20269SOL    HW162704   7.932   8.728   2.791
20269SOL    HW262705   7.803   8.799   2.826
20270SOL     OW62706   0.093  13.970   9.711
20270SOL    HW162707   0.126  13.930   9.792
20270SOL    HW262708   0.063  13.896   9.659
20271SOL     OW62709   1.287   0.174   6.010
20271SOL    HW162710   1.265   0.267   5.999
20271SOL    HW262711   1.202   0.130   6.013
20272SOL     OW62712   5.704   2.446   6.863
20272SOL    HW162713   5.717   2.521   6.805
20272SOL    HW262714   5.754   2.375   6.822
20273SOL     OW62715   0.623   7.231   2.882
20273SOL    HW162716   0.614   7.137   2.866
20273SOL    HW262717   0.548   7.253   2.938
20274SOL     OW62718   7.760   5.800   1.109
20274SOL    HW162719   7.829   5.825   1.047
20274SOL    HW262720   7.784   5.844   1.190
20275SOL     OW62721   5.566   7.625   9.766
20275SOL    HW162722   5.506   7.567   9.814
20275SOL    HW262723   5.652   7.604   9.803
20276SOL     OW62724  12.109   7.060  14.195
20276SOL    HW162725  12.053   7.036  14.121
20276SOL    HW262726  12.188   7.007  14.182
20277SOL     OW62727   8.140   9.100  13.730
20277SOL    HW162728   8.056   9.119  13.686
20277SOL    HW262729   8.132   9.143  13.815
20278SOL     OW62730   7.802   5.300   4.351
20278SOL    HW162731   7.708   5.289   4.339
20278SOL    HW262732   7.811   5.336   4.439
20279SOL     OW62733   9.971  13.177   4.852
20279SOL    HW162734   9.995  13.173   4.759
20279SOL    HW262735   9.880  13.147   4.854
20280SOL     OW62736  12.884  13.403   0.236
20280SOL    HW162737  12.929  13.370   0.158
20280SOL    HW262738  12.803  13.440   0.202
20281SOL     OW62739   8.131   5.279   1.780
20281SOL    HW162740   8.058   5.334   1.806
20281SOL    HW262741   8.154   5.309   1.692
20282SOL     OW62742   9.759   2.452   2.455
20282SOL    HW162743   9.678   2.450   2.404
20282SOL    HW262744   9.825   2.414   2.397
20283SOL     OW62745   3.982  11.851  10.496
20283SOL    HW162746   3.952  11.760  10.492
20283SOL    HW262747   4.031  11.863  10.415
20284SOL     OW62748   1.900   9.546   4.715
20284SOL    HW162749   1.979   9.587   4.681
20284SOL    HW262750   1.839   9.618   4.728
20285SOL     OW62751   1.395   0.645  10.031
20285SOL    HW162752   1.471   0.613   9.982
20285SOL    HW262753   1.405   0.740  10.032
20286SOL     OW62754   0.970   7.460  14.662
20286SOL    HW162755   1.054   7.497  14.636
20286SOL    HW262756   0.925   7.442  14.580
20287SOL     OW62757   6.925  10.254  10.075
20287SOL    HW162758   6.944  10.258   9.982
20287SOL    HW262759   6.848  10.198  10.081
20288SOL     OW62760   1.649  14.576   8.215
20288SOL    HW162761   1.555  14.578   8.232
20288SOL    HW262762   1.657  14.530   8.132
20289SOL     OW62763  11.000  12.280   9.809
20289SOL    HW162764  10.905  12.279   9.799
20289SOL    HW262765  11.023  12.188   9.827
20290SOL     OW62766   1.299   0.325   5.041
20290SOL    HW162767   1.281   0.232   5.057
20290SOL    HW262768   1.378   0.343   5.092
20291SOL     OW62769   6.471   2.169  11.124
20291SOL    HW162770   6.422   2.246  11.155
20291SOL    HW262771   6.539   2.206  11.068
20292SOL     OW62772  12.828  12.110   0.305
20292SOL    HW162773  12.783  12.122   0.388
20292SOL    HW262774  12.867  12.195   0.286
20293SOL     OW62775  14.738  10.561  13.820
20293SOL    HW162776  14.644  10.578  13.828
20293SOL    HW262777  14.773  10.577  13.908
20294SOL     OW62778   9.419   1.097   1.461
20294SOL    HW162779   9.372   1.141   1.390
20294SOL    HW262780   9.399   1.004   1.448
20295SOL     OW62781  11.584  11.340   2.153
20295SOL    HW162782  11.668  11.294   2.160
20295SOL    HW262783  11.593  11.415   2.212
20296SOL     OW62784  14.255   5.676  11.806
20296SOL    HW162785  14.221   5.696  11.893
20296SOL    HW262786  14.300   5.756  11.779
20297SOL     OW62787  10.723   0.348  14.467
20297SOL    HW162788  10.716   0.280  14.400
20297SOL    HW262789  10.653   0.328  14.529
20298SOL     OW62790   2.767   2.960   1.577
20298SOL    HW162791   2.730   2.893   1.519
20298SOL    HW262792   2.693   3.014   1.603
20299SOL     OW62793   4.583   1.655  11.279
20299SOL    HW162794   4.617   1.609  11.203
20299SOL    HW262795   4.596   1.748  11.260
20300SOL     OW62796   2.242   7.867   2.389
20300SOL    HW162797   2.207   7.832   2.307
20300SOL    HW262798   2.170   7.921   2.424
20301SOL     OW62799   7.401   8.726   3.698
20301SOL    HW162800   7.359   8.659   3.753
20301SOL    HW262801   7.390   8.807   3.747
20302SOL     OW62802   4.017  14.083   6.628
20302SOL    HW162803   4.093  14.029   6.605
20302SOL    HW262804   4.050  14.145   6.693
20303SOL     OW62805   6.471  13.735   6.611
20303SOL    HW162806   6.407  13.784   6.559
20303SOL    HW262807   6.453  13.643   6.591
20304SOL     OW62808  10.172   9.361   1.441
20304SOL    HW162809  10.238   9.308   1.486
20304SOL    HW262810  10.136   9.417   1.510
20305SOL     OW62811  10.290   9.476  13.171
20305SOL    HW162812  10.270   9.427  13.250
20305SOL    HW262813  10.324   9.560  13.203
20306SOL     OW62814   0.459   6.765   9.972
20306SOL    HW162815   0.365   6.757   9.989
20306SOL    HW262816   0.468   6.847   9.924
20307SOL     OW62817   4.791   2.842   3.664
20307SOL    HW162818   4.779   2.934   3.684
20307SOL    HW262819   4.809   2.800   3.749
20308SOL     OW62820  11.374  14.253   1.271
20308SOL    HW162821  11.447  14.200   1.303
20308SOL    HW262822  11.404  14.343   1.280
20309SOL     OW62823   7.090  14.616   2.640
20309SOL    HW162824   7.076  14.707   2.668
20309SOL    HW262825   7.003  14.583   2.620
20310SOL     OW62826   3.190  10.123  10.325
20310SOL    HW162827   3.160  10.206  10.288
20310SOL    HW262828   3.286  10.129  10.323
20311SOL     OW62829  10.241   6.217   0.526
20311SOL    HW162830  10.279   6.140   0.484
20311SOL    HW262831  10.150   6.192   0.543
20312SOL     OW62832   1.336   3.988  13.235
20312SOL    HW162833   1.422   4.018  13.265
20312SOL    HW262834   1.303   4.059  13.181
20313SOL     OW62835  14.861   0.014   6.594
20313SOL    HW162836  14.800   0.039   6.524
20313SOL    HW262837   0.012  14.790   6.576
20314SOL     OW62838  13.253   8.286   4.871
20314SOL    HW162839  13.321   8.328   4.923
20314SOL    HW262840  13.246   8.342   4.793
20315SOL     OW62841   5.387   2.382  14.515
20315SOL    HW162842   5.468   2.393  14.466
20315SOL    HW262843   5.368   2.469  14.549
20316SOL     OW62844   7.417   5.014   4.157
20316SOL    HW162845   7.394   4.923   4.177
20316SOL    HW262846   7.499   5.007   4.108
20317SOL     OW62847  14.146   6.244  14.019
20317SOL    HW162848  14.195   6.175  14.063
20317SOL    HW262849  14.153   6.320  14.077
20318SOL     OW62850   8.444  12.156   5.187
20318SOL    HW162851   8.464  12.076   5.139
20318SOL    HW262852   8.516  12.164   5.251
20319SOL     OW62853   7.355   9.453   1.410
20319SOL    HW162854   7.431   9.395   1.401
20319SOL    HW262855   7.306   9.418   1.484
20320SOL     OW62856   9.145  11.272   9.404
20320SOL    HW162857   9.197  11.247   9.328
20320SOL    HW262858   9.082  11.336   9.369
20321SOL     OW62859   8.976   9.982   4.978
20321SOL    HW162860   8.910   9.949   4.917
20321SOL    HW262861   8.946  10.070   5.000
20322SOL     OW62862   7.153   2.047   6.114
20322SOL    HW162863   7.152   2.136   6.148
20322SOL    HW262864   7.121   1.993   6.186
20323SOL     OW62865  13.843   4.032   6.978
20323SOL    HW162866  13.851   4.010   6.885
20323SOL    HW262867  13.805   3.954   7.018
20324SOL     OW62868   8.069   5.849  11.382
20324SOL    HW162869   8.077   5.872  11.475
20324SOL    HW262870   8.128   5.775  11.370
20325SOL     OW62871   8.578   6.441  14.529
20325SOL    HW162872   8.567   6.382  14.603
20325SOL    HW262873   8.655   6.407  14.483
20326SOL     OW62874   4.022   2.213   5.661
20326SOL    HW162875   4.089   2.243   5.722
20326SOL    HW262876   3.963   2.159   5.713
20327SOL     OW62877   7.917  14.512   0.402
20327SOL    HW162878   7.936  14.598   0.364
20327SOL    HW262879   7.900  14.530   0.494
20328SOL     OW62880   4.457  14.241   0.080
20328SOL    HW162881   4.487  14.270  14.862
20328SOL    HW262882   4.526  14.269   0.140
20329SOL     OW62883  13.320   0.053   4.535
20329SOL    HW162884  13.309   0.140   4.495
20329SOL    HW262885  13.404   0.022   4.504
20330SOL     OW62886   7.058   8.716  13.622
20330SOL    HW162887   7.144   8.674  13.623
20330SOL    HW262888   6.996   8.644  13.615
20331SOL     OW62889   9.380   0.306  14.628
20331SOL    HW162890   9.407   0.397  14.642
20331SOL    HW262891   9.402   0.288  14.537
20332SOL     OW62892  12.649   1.828   4.465
20332SOL    HW162893  12.682   1.909   4.504
20332SOL    HW262894  12.694   1.821   4.381
20333SOL     OW62895  13.158   2.189   4.562
20333SOL    HW162896  13.194   2.276   4.578
20333SOL    HW262897  13.230   2.140   4.522
20334SOL     OW62898   7.594   3.778   7.795
20334SOL    HW162899   7.640   3.859   7.817
20334SOL    HW262900   7.570   3.741   7.880
20335SOL     OW62901   4.812   8.244  11.309
20335SOL    HW162902   4.760   8.288  11.375
20335SOL    HW262903   4.865   8.313  11.269
20336SOL     OW62904  13.909   6.984   6.268
20336SOL    HW162905  13.891   6.928   6.192
20336SOL    HW262906  13.932   6.922   6.338
20337SOL     OW62907   7.469  11.045  13.036
20337SOL    HW162908   7.393  11.043  13.095
20337SOL    HW262909   7.480  11.138  13.014
20338SOL     OW62910   3.174   0.290   2.169
20338SOL    HW162911   3.255   0.297   2.118
20338SOL    HW262912   3.180   0.358   2.235
20339SOL     OW62913   3.985  12.768   8.638
20339SOL    HW162914   3.956  12.835   8.700
20339SOL    HW262915   4.076  12.751   8.662
20340SOL     OW62916   7.290   8.066  12.008
20340SOL    HW162917   7.268   7.989  11.956
20340SOL    HW262918   7.347   8.034  12.077
20341SOL     OW62919   2.147   3.577  14.746
20341SOL    HW162920   2.156   3.485  14.723
20341SOL    HW262921   2.068   3.605  14.698
20342SOL     OW62922  10.043  13.039  12.227
20342SOL    HW162923  10.075  13.112  12.280
20342SOL    HW262924   9.962  13.072  12.188
20343SOL     OW62925  10.548   8.512   9.127
20343SOL    HW162926  10.579   8.593   9.168
20343SOL    HW262927  10.482   8.478   9.187
20344SOL     OW62928  10.003  13.902   4.564
20344SOL    HW162929  10.041  13.931   4.481
20344SOL    HW262930   9.913  13.933   4.562
20345SOL     OW62931   6.789   3.617   5.372
20345SOL    HW162932   6.803   3.642   5.280
20345SOL    HW262933   6.704   3.574   5.372
20346SOL     OW62934   5.728   6.952   0.005
20346SOL    HW162935   5.810   6.958   0.053
20346SOL    HW262936   5.680   7.031   0.030
20347SOL     OW62937   0.157   2.671  13.361
20347SOL    HW162938   0.187   2.630  13.280
20347SOL    HW262939   0.089   2.732  13.333
20348SOL     OW62940  11.902   2.906  12.328
20348SOL    HW162941  11.861   2.819  12.331
20348SOL    HW262942  11.902   2.936  12.418
20349SOL     OW62943   3.054  10.371   5.431
20349SOL    HW162944   3.047  10.461   5.462
20349SOL    HW262945   3.148  10.356   5.424
20350SOL     OW62946  12.680   3.118   3.028
20350SOL    HW162947  12.617   3.075   3.085
20350SOL    HW262948  12.638   3.119   2.942
20351SOL     OW62949   3.201   5.135   3.607
20351SOL    HW162950   3.114   5.101   3.589
20351SOL    HW262951   3.189   5.197   3.679
20352SOL     OW62952   7.903  13.860   6.437
20352SOL    HW162953   7.850  13.810   6.499
20352SOL    HW262954   7.862  13.844   6.352
20353SOL     OW62955   5.588  12.716  11.978
20353SOL    HW162956   5.651  12.652  12.010
20353SOL    HW262957   5.529  12.731  12.052
20354SOL     OW62958  12.473   8.032  14.114
20354SOL    HW162959  12.454   8.123  14.134
20354SOL    HW262960  12.511   7.997  14.194
20355SOL     OW62961   2.366  11.009   5.689
20355SOL    HW162962   2.391  11.042   5.603
20355SOL    HW262963   2.386  10.916   5.687
20356SOL     OW62964   6.050   5.366   6.030
20356SOL    HW162965   6.100   5.306   5.974
20356SOL    HW262966   6.004   5.423   5.969
20357SOL     OW62967   1.577   2.236   8.144
20357SOL    HW162968   1.597   2.330   8.147
20357SOL    HW262969   1.533   2.218   8.227
20358SOL     OW62970  12.299   4.894  13.378
20358SOL    HW162971  12.250   4.877  13.459
20358SOL    HW262972  12.253   4.968  13.338
20359SOL     OW62973  11.407   1.639   3.479
20359SOL    HW162974  11.378   1.696   3.550
20359SOL    HW262975  11.332   1.635   3.419
20360SOL     OW62976   4.027  10.164   7.891
20360SOL    HW162977   4.115  10.143   7.861
20360SOL    HW262978   3.969  10.129   7.823
20361SOL     OW62979   9.736   9.802  13.244
20361SOL    HW162980   9.648   9.816  13.210
20361SOL    HW262981   9.762   9.888  13.277
20362SOL     OW62982  11.599   7.702   3.662
20362SOL    HW162983  11.645   7.776   3.700
20362SOL    HW262984  11.506   7.721   3.675
20363SOL     OW62985   0.391   7.551  13.684
20363SOL    HW162986   0.448   7.478  13.708
20363SOL    HW262987   0.319   7.546  13.748
20364SOL     OW62988  10.710  12.039   1.139
20364SOL    HW162989  10.758  12.119   1.158
20364SOL    HW262990  10.618  12.067   1.133
20365SOL     OW62991  14.038   9.531   3.421
20365SOL    HW162992  14.084   9.458   3.379
20365SOL    HW262993  14.108   9.583   3.462
20366SOL     OW62994  10.430   1.615  13.537
20366SOL    HW162995  10.478   1.584  13.461
20366SOL    HW262996  10.457   1.706  13.548
20367SOL     OW62997  12.388   5.294   2.635
20367SOL    HW162998  12.304   5.331   2.611
20367SOL    HW262999  12.433   5.364   2.682
20368SOL     OW63000   9.424   1.359   5.102
20368SOL    HW163001   9.505   1.325   5.141
20368SOL    HW263002   9.399   1.432   5.159
20369SOL     OW63003   9.545   8.232  14.819
20369SOL    HW163004   9.558   8.314  14.868
20369SOL    HW263005   9.583   8.250  14.733
20370SOL     OW63006  13.254  12.022   8.758
20370SOL    HW163007  13.306  12.099   8.778
20370SOL    HW263008  13.222  12.037   8.669
20371SOL     OW63009   4.658   5.719   2.473
20371SOL    HW163010   4.593   5.682   2.533
20371SOL    HW263011   4.612   5.729   2.390
20372SOL     OW63012   7.049  13.140   9.763
20372SOL    HW163013   7.099  13.060   9.781
20372SOL    HW263014   7.042  13.184   9.848
20373SOL     OW63015   9.200   5.218  14.493
20373SOL    HW163016   9.247   5.138  14.467
20373SOL    HW263017   9.246   5.249  14.570
20374SOL     OW63018   3.509  13.544   3.784
20374SOL    HW163019   3.547  13.623   3.823
20374SOL    HW263020   3.537  13.548   3.692
20375SOL     OW63021   1.103   9.476   9.169
20375SOL    HW163022   1.198   9.463   9.158
20375SOL    HW263023   1.096   9.557   9.219
20376SOL     OW63024  10.841   3.158   2.926
20376SOL    HW163025  10.912   3.118   2.978
20376SOL    HW263026  10.788   3.083   2.899
20377SOL     OW63027   0.493   2.782   5.628
20377SOL    HW163028   0.520   2.857   5.680
20377SOL    HW263029   0.413   2.750   5.671
20378SOL     OW63030   6.322   1.671   6.824
20378SOL    HW163031   6.401   1.669   6.877
20378SOL    HW263032   6.354   1.689   6.735
20379SOL     OW63033  10.951  11.514   6.717
20379SOL    HW163034  11.019  11.518   6.784
20379SOL    HW263035  10.917  11.604   6.711
20380SOL     OW63036   8.863   1.934   2.924
20380SOL    HW163037   8.900   1.874   2.989
20380SOL    HW263038   8.821   2.002   2.976
20381SOL     OW63039   4.642  14.528   4.387
20381SOL    HW163040   4.619  14.599   4.446
20381SOL    HW263041   4.737  14.535   4.378
20382SOL     OW63042   2.692   5.633   1.096
20382SOL    HW163043   2.714   5.545   1.125
20382SOL    HW263044   2.637   5.621   1.019
20383SOL     OW63045   1.256   0.394   1.412
20383SOL    HW163046   1.232   0.322   1.471
20383SOL    HW263047   1.273   0.468   1.470
20384SOL     OW63048   9.295   6.051  13.089
20384SOL    HW163049   9.340   6.082  13.167
20384SOL    HW263050   9.204   6.042  13.115
20385SOL     OW63051   9.022  11.989   6.586
20385SOL    HW163052   8.929  11.981   6.564
20385SOL    HW263053   9.063  12.013   6.504
20386SOL     OW63054   5.919  10.399   7.042
20386SOL    HW163055   5.887  10.323   6.994
20386SOL    HW263056   5.999  10.369   7.085
20387SOL     OW63057   5.688  14.669   3.681
20387SOL    HW163058   5.694  14.658   3.587
20387SOL    HW263059   5.642  14.590   3.712
20388SOL     OW63060   6.859   2.284   1.109
20388SOL    HW163061   6.883   2.298   1.017
20388SOL    HW263062   6.881   2.367   1.152
20389SOL     OW63063   8.744  14.100  14.403
20389SOL    HW163064   8.784  14.034  14.347
20389SOL    HW263065   8.694  14.050  14.467
20390SOL     OW63066   3.482   0.497  14.189
20390SOL    HW163067   3.501   0.589  14.207
20390SOL    HW263068   3.542   0.473  14.118
20391SOL     OW63069   8.796   5.762  12.503
20391SOL    HW163070   8.832   5.825  12.566
20391SOL    HW263071   8.841   5.782  12.421
20392SOL     OW63072   9.973  13.789   5.771
20392SOL    HW163073  10.025  13.708   5.778
20392SOL    HW263074  10.039  13.857   5.756
20393SOL     OW63075   0.107  10.769   0.995
20393SOL    HW163076   0.176  10.819   1.038
20393SOL    HW263077   0.031  10.826   0.997
20394SOL     OW63078   0.609  10.352  12.722
20394SOL    HW163079   0.683  10.412  12.716
20394SOL    HW263080   0.604  10.328  12.814
20395SOL     OW63081   9.202   9.931   7.552
20395SOL    HW163082   9.265   9.889   7.609
20395SOL    HW263083   9.132   9.961   7.611
20396SOL     OW63084   8.334   5.973   3.916
20396SOL    HW163085   8.391   5.924   3.975
20396SOL    HW263086   8.249   5.974   3.961
20397SOL     OW63087  14.680   8.718   0.358
20397SOL    HW163088  14.742   8.655   0.321
20397SOL    HW263089  14.627   8.667   0.418
20398SOL     OW63090  10.074  13.157   4.551
20398SOL    HW163091  10.165  13.178   4.570
20398SOL    HW263092  10.078  13.100   4.474
20399SOL     OW63093   4.123   2.179   2.081
20399SOL    HW163094   4.161   2.235   2.014
20399SOL    HW263095   4.045   2.142   2.041
20400SOL     OW63096   7.097  13.583   4.676
20400SOL    HW163097   7.014  13.535   4.675
20400SOL    HW263098   7.081  13.659   4.731
20401SOL     OW63099   7.530   7.273   0.225
20401SOL    HW163100   7.507   7.303   0.137
20401SOL    HW263101   7.533   7.353   0.278
20402SOL     OW63102  10.517   6.582   6.518
20402SOL    HW163103  10.422   6.580   6.500
20402SOL    HW263104  10.556   6.609   6.435
20403SOL     OW63105   4.459  14.138   2.607
20403SOL    HW163106   4.502  14.074   2.663
20403SOL    HW263107   4.515  14.216   2.611
20404SOL     OW63108   7.692   7.244   5.360
20404SOL    HW163109   7.617   7.188   5.338
20404SOL    HW263110   7.653   7.331   5.374
20405SOL     OW63111   3.406   3.192  14.502
20405SOL    HW163112   3.424   3.098  14.499
20405SOL    HW263113   3.368   3.212  14.416
20406SOL     OW63114   2.629   3.469  14.154
20406SOL    HW163115   2.673   3.548  14.123
20406SOL    HW263116   2.697   3.403  14.158
20407SOL     OW63117   6.515  11.236  12.944
20407SOL    HW163118   6.430  11.203  12.973
20407SOL    HW263119   6.496  11.281  12.862
20408SOL     OW63120   5.248   2.139  13.467
20408SOL    HW163121   5.231   2.226  13.504
20408SOL    HW263122   5.189   2.133  13.392
20409SOL     OW63123   2.911   0.313   4.173
20409SOL    HW163124   2.881   0.325   4.263
20409SOL    HW263125   3.007   0.308   4.180
20410SOL     OW63126  14.769   2.575  10.706
20410SOL    HW163127  14.830   2.648  10.710
20410SOL    HW263128  14.724   2.585  10.622
20411SOL     OW63129  14.609  10.776  11.085
20411SOL    HW163130  14.697  10.739  11.083
20411SOL    HW263131  14.586  10.781  11.178
20412SOL     OW63132   7.427  10.452  10.203
20412SOL    HW163133   7.489  10.525  10.202
20412SOL    HW263134   7.366  10.471  10.132
20413SOL     OW63135   4.456   8.750   8.774
20413SOL    HW163136   4.377   8.733   8.722
20413SOL    HW263137   4.522   8.691   8.737
20414SOL     OW63138   5.426  10.049   8.222
20414SOL    HW163139   5.429  10.050   8.126
20414SOL    HW263140   5.363  10.117   8.245
20415SOL     OW63141  11.500   9.455  13.529
20415SOL    HW163142  11.485   9.385  13.465
20415SOL    HW263143  11.436   9.439  13.598
20416SOL     OW63144  11.589   2.166  13.195
20416SOL    HW163145  11.641   2.226  13.248
20416SOL    HW263146  11.526   2.128  13.256
20417SOL     OW63147   9.474  10.664  11.090
20417SOL    HW163148   9.393  10.628  11.126
20417SOL    HW263149   9.492  10.611  11.013
20418SOL     OW63150  12.162   0.941   3.547
20418SOL    HW163151  12.256   0.956   3.537
20418SOL    HW263152  12.142   0.972   3.636
20419SOL     OW63153   2.653   4.605   2.836
20419SOL    HW163154   2.583   4.553   2.875
20419SOL    HW263155   2.713   4.622   2.909
20420SOL     OW63156  12.544  10.434   8.833
20420SOL    HW163157  12.535  10.403   8.924
20420SOL    HW263158  12.624  10.391   8.802
20421SOL     OW63159   2.996  14.848   4.332
20421SOL    HW163160   3.077   0.028   4.312
20421SOL    HW263161   2.975   0.005   4.422
20422SOL     OW63162  14.554   8.668   5.462
20422SOL    HW163163  14.511   8.617   5.393
20422SOL    HW263164  14.482   8.702   5.515
20423SOL     OW63165  11.195   2.771  12.262
20423SOL    HW163166  11.179   2.814  12.346
20423SOL    HW263167  11.265   2.708  12.280
20424SOL     OW63168  12.698   7.960  11.402
20424SOL    HW163169  12.697   7.866  11.416
20424SOL    HW263170  12.614   7.991  11.435
20425SOL     OW63171   2.469   0.143  11.523
20425SOL    HW163172   2.503   0.221  11.479
20425SOL    HW263173   2.546   0.090  11.542
20426SOL     OW63174   9.469  14.440  14.414
20426SOL    HW163175   9.534  14.509  14.430
20426SOL    HW263176   9.407  14.448  14.486
20427SOL     OW63177  11.650  13.200   1.762
20427SOL    HW163178  11.716  13.135   1.738
20427SOL    HW263179  11.688  13.283   1.733
20428SOL     OW63180   5.175   5.188   2.333
20428SOL    HW163181   5.091   5.164   2.373
20428SOL    HW263182   5.230   5.213   2.407
20429SOL     OW63183  13.374  12.275  14.474
20429SOL    HW163184  13.442  12.308  14.415
20429SOL    HW263185  13.407  12.191  14.506
20430SOL     OW63186   1.217   8.906  13.990
20430SOL    HW163187   1.199   8.837  14.055
20430SOL    HW263188   1.277   8.966  14.035
20431SOL     OW63189   3.275  12.090   3.642
20431SOL    HW163190   3.244  12.074   3.553
20431SOL    HW263191   3.353  12.145   3.629
20432SOL     OW63192  12.219  13.597   4.308
20432SOL    HW163193  12.194  13.537   4.378
20432SOL    HW263194  12.139  13.610   4.257
20433SOL     OW63195  13.306  10.446  11.917
20433SOL    HW163196  13.242  10.518  11.921
20433SOL    HW263197  13.388  10.489  11.889
20434SOL     OW63198   7.214   0.062   3.142
20434SOL    HW163199   7.122   0.073   3.165
20434SOL    HW263200   7.240   0.146   3.104
20435SOL     OW63201   9.171   9.434   8.140
20435SOL    HW163202   9.227   9.470   8.209
20435SOL    HW263203   9.210   9.465   8.058
20436SOL     OW63204   4.280   0.759   2.662
20436SOL    HW163205   4.286   0.836   2.605
20436SOL    HW263206   4.228   0.696   2.612
20437SOL     OW63207   1.161   7.150  11.733
20437SOL    HW163208   1.141   7.141  11.640
20437SOL    HW263209   1.079   7.131  11.778
20438SOL     OW63210   9.493  11.818   9.896
20438SOL    HW163211   9.529  11.730   9.894
20438SOL    HW263212   9.429  11.817   9.967
20439SOL     OW63213  11.514  11.346   5.492
20439SOL    HW163214  11.579  11.275   5.498
20439SOL    HW263215  11.517  11.388   5.578
20440SOL     OW63216   7.866   1.013   9.883
20440SOL    HW163217   7.844   0.956   9.957
20440SOL    HW263218   7.824   0.972   9.808
20441SOL     OW63219   2.831  10.845  12.403
20441SOL    HW163220   2.771  10.914  12.373
20441SOL    HW263221   2.891  10.891  12.463
20442SOL     OW63222   3.192  14.829   6.241
20442SOL    HW163223   3.228  14.830   6.152
20442SOL    HW263224   3.125   0.029   6.241
20443SOL     OW63225  13.521  13.390  13.006
20443SOL    HW163226  13.492  13.341  12.929
20443SOL    HW263227  13.440  13.424  13.045
20444SOL     OW63228   0.896  11.603  12.250
20444SOL    HW163229   0.847  11.684  12.235
20444SOL    HW263230   0.841  11.552  12.310
20445SOL     OW63231   8.436   0.519  14.363
20445SOL    HW163232   8.519   0.559  14.389
20445SOL    HW263233   8.442   0.429  14.395
20446SOL     OW63234   5.402  13.094  14.723
20446SOL    HW163235   5.432  13.041  14.649
20446SOL    HW263236   5.462  13.169  14.725
20447SOL     OW63237  10.287   7.559   0.346
20447SOL    HW163238  10.357   7.505   0.381
20447SOL    HW263239  10.231   7.579   0.421
20448SOL     OW63240   9.024   1.093   9.103
20448SOL    HW163241   9.026   1.012   9.052
20448SOL    HW263242   9.022   1.163   9.037
20449SOL     OW63243  13.996   2.947   2.112
20449SOL    HW163244  13.938   2.927   2.185
20449SOL    HW263245  13.951   2.914   2.035
20450SOL     OW63246  10.172   2.363  13.338
20450SOL    HW163247  10.179   2.456  13.360
20450SOL    HW263248  10.089   2.355  13.291
20451SOL     OW63249   3.701  13.883  11.274
20451SOL    HW163250   3.672  13.863  11.363
20451SOL    HW263251   3.777  13.940  11.286
20452SOL     OW63252   7.457   6.369  11.758
20452SOL    HW163253   7.413   6.450  11.733
20452SOL    HW263254   7.447   6.312  11.682
20453SOL     OW63255   3.892   1.663   3.026
20453SOL    HW163256   3.976   1.655   2.981
20453SOL    HW263257   3.912   1.638   3.117
20454SOL     OW63258   0.131   0.962   5.704
20454SOL    HW163259   0.168   1.040   5.662
20454SOL    HW263260   0.066   0.996   5.765
20455SOL     OW63261   0.216   1.080   2.343
20455SOL    HW163262   0.137   1.029   2.323
20455SOL    HW263263   0.210   1.098   2.437
20456SOL     OW63264   1.196  12.611  12.241
20456SOL    HW163265   1.169  12.520  12.253
20456SOL    HW263266   1.291  12.607  12.231
20457SOL     OW63267   2.469   9.177   3.175
20457SOL    HW163268   2.492   9.144   3.088
20457SOL    HW263269   2.550   9.167   3.226
20458SOL     OW63270  10.037   6.788   5.894
20458SOL    HW163271  10.062   6.869   5.848
20458SOL    HW263272   9.964   6.753   5.843
20459SOL     OW63273   9.399   4.544   0.065
20459SOL    HW163274   9.445   4.603   0.005
20459SOL    HW263275   9.435   4.565   0.151
20460SOL     OW63276   4.545   9.644  10.583
20460SOL    HW163277   4.458   9.642  10.622
20460SOL    HW263278   4.604   9.664  10.655
20461SOL     OW63279  11.140   2.349   3.261
20461SOL    HW163280  11.138   2.294   3.183
20461SOL    HW263281  11.174   2.433   3.230
20462SOL     OW63282   3.773   3.620  11.051
20462SOL    HW163283   3.706   3.552  11.053
20462SOL    HW263284   3.727   3.697  11.018
20463SOL     OW63285  10.730   2.236   7.574
20463SOL    HW163286  10.723   2.185   7.493
20463SOL    HW263287  10.720   2.171   7.644
20464SOL     OW63288   2.336   8.906  12.607
20464SOL    HW163289   2.283   8.832  12.637
20464SOL    HW263290   2.302   8.981  12.655
20465SOL     OW63291  10.018   5.816   5.196
20465SOL    HW163292   9.926   5.811   5.221
20465SOL    HW263293  10.045   5.725   5.186
20466SOL     OW63294  11.943   3.292   5.284
20466SOL    HW163295  11.985   3.311   5.200
20466SOL    HW263296  12.011   3.248   5.335
20467SOL     OW63297   1.435   5.766  12.810
20467SOL    HW163298   1.376   5.700  12.773
20467SOL    HW263299   1.444   5.741  12.902
20468SOL     OW63300   2.492  14.805   8.152
20468SOL    HW163301   2.413  14.823   8.101
20468SOL    HW263302   2.506   0.015   8.204
20469SOL     OW63303  11.021  13.115   6.827
20469SOL    HW163304  11.105  13.083   6.794
20469SOL    HW263305  10.999  13.189   6.769
20470SOL     OW63306   7.452   8.973   7.209
20470SOL    HW163307   7.370   8.960   7.161
20470SOL    HW263308   7.510   8.905   7.174
20471SOL     OW63309  11.169   5.918   9.314
20471SOL    HW163310  11.094   5.931   9.372
20471SOL    HW263311  11.214   5.842   9.350
20472SOL     OW63312  13.772   7.258   8.811
20472SOL    HW163313  13.721   7.338   8.822
20472SOL    HW263314  13.861   7.289   8.793
20473SOL     OW63315   9.320   6.856   1.823
20473SOL    HW163316   9.383   6.832   1.891
20473SOL    HW263317   9.252   6.788   1.828
20474SOL     OW63318  10.233   6.838  11.600
20474SOL    HW163319  10.147   6.831  11.642
20474SOL    HW263320  10.264   6.925  11.624
20475SOL     OW63321   0.038   8.158  13.628
20475SOL    HW163322   0.081   8.178  13.711
20475SOL    HW263323   0.009   8.067  13.638
20476SOL     OW63324   1.173   0.220  13.387
20476SOL    HW163325   1.228   0.268  13.450
20476SOL    HW263326   1.156   0.136  13.429
20477SOL     OW63327   7.005  12.391  10.041
20477SOL    HW163328   7.008  12.409  10.135
20477SOL    HW263329   7.047  12.466  10.001
20478SOL     OW63330  10.303  13.731  10.153
20478SOL    HW163331  10.247  13.809  10.157
20478SOL    HW263332  10.375  13.755  10.095
20479SOL     OW63333   4.409   7.946  13.736
20479SOL    HW163334   4.350   7.885  13.691
20479SOL    HW263335   4.350   8.007  13.780
20480SOL     OW63336  10.702  10.533  10.030
20480SOL    HW163337  10.650  10.457  10.001
20480SOL    HW263338  10.752  10.500  10.105
20481SOL     OW63339   0.730   5.328   1.503
20481SOL    HW163340   0.822   5.320   1.480
20481SOL    HW263341   0.728   5.316   1.598
20482SOL     OW63342   9.866   5.926   1.870
20482SOL    HW163343   9.865   5.834   1.895
20482SOL    HW263344   9.959   5.950   1.872
20483SOL     OW63345   0.929  13.666  11.990
20483SOL    HW163346   0.964  13.585  12.027
20483SOL    HW263347   0.929  13.651  11.895
20484SOL     OW63348  14.696  13.948  14.516
20484SOL    HW163349  14.679  14.008  14.443
20484SOL    HW263350  14.612  13.941  14.561
20485SOL     OW63351   0.706   3.657   9.423
20485SOL    HW163352   0.693   3.596   9.495
20485SOL    HW263353   0.660   3.737   9.450
20486SOL     OW63354   5.310   7.560   2.093
20486SOL    HW163355   5.255   7.611   2.033
20486SOL    HW263356   5.250   7.498   2.134
20487SOL     OW63357   8.388  11.486  13.922
20487SOL    HW163358   8.471  11.441  13.940
20487SOL    HW263359   8.349  11.436  13.851
20488SOL     OW63360   8.428   0.315  10.188
20488SOL    HW163361   8.344   0.269  10.200
20488SOL    HW263362   8.491   0.245  10.171
20489SOL     OW63363  12.817  14.782   1.305
20489SOL    HW163364  12.773  14.867   1.301
20489SOL    HW263365  12.844  14.764   1.215
20490SOL     OW63366   6.505   5.643   7.462
20490SOL    HW163367   6.522   5.727   7.504
20490SOL    HW263368   6.483   5.584   7.533
20491SOL     OW63369  12.254   5.578   0.636
20491SOL    HW163370  12.183   5.628   0.675
20491SOL    HW263371  12.255   5.496   0.684
20492SOL     OW63372   8.564   7.051   8.825
20492SOL    HW163373   8.519   7.085   8.748
20492SOL    HW263374   8.581   7.128   8.878
20493SOL     OW63375   5.750   2.318   5.099
20493SOL    HW163376   5.658   2.321   5.073
20493SOL    HW263377   5.797   2.299   5.018
20494SOL     OW63378   7.669  14.740   5.462
20494SOL    HW163379   7.734  14.735   5.393
20494SOL    HW263380   7.585  14.731   5.417
20495SOL     OW63381   8.136  13.260   7.040
20495SOL    HW163382   8.227  13.277   7.064
20495SOL    HW263383   8.135  13.266   6.945
20496SOL     OW63384   1.568   2.012  14.622
20496SOL    HW163385   1.628   2.085  14.636
20496SOL    HW263386   1.604   1.965  14.547
20497SOL     OW63387  11.614   5.785   0.429
20497SOL    HW163388  11.683   5.838   0.470
20497SOL    HW263389  11.607   5.820   0.340
20498SOL     OW63390   9.816  10.513   6.967
20498SOL    HW163391   9.726  10.481   6.960
20498SOL    HW263392   9.854  10.496   6.880
20499SOL     OW63393  14.602   9.804   8.739
20499SOL    HW163394  14.550   9.843   8.669
20499SOL    HW263395  14.549   9.817   8.818
20500SOL     OW63396  11.342   4.687  12.987
20500SOL    HW163397  11.433   4.669  13.012
20500SOL    HW263398  11.310   4.604  12.952
20501SOL     OW63399  14.059   7.817  13.004
20501SOL    HW163400  14.102   7.856  13.080
20501SOL    HW263401  14.130   7.773  12.956
20502SOL     OW63402  11.385  13.410  12.030
20502SOL    HW163403  11.320  13.340  12.037
20502SOL    HW263404  11.375  13.442  11.940
20503SOL     OW63405   4.640   5.314  11.168
20503SOL    HW163406   4.677   5.330  11.081
20503SOL    HW263407   4.679   5.231  11.196
20504SOL     OW63408  13.580  10.270   8.872
20504SOL    HW163409  13.610  10.267   8.781
20504SOL    HW263410  13.522  10.195   8.881
20505SOL     OW63411  12.103   6.848   9.349
20505SOL    HW163412  12.060   6.827   9.432
20505SOL    HW263413  12.153   6.927   9.367
20506SOL     OW63414  12.305   9.076   8.599
20506SOL    HW163415  12.304   9.043   8.509
20506SOL    HW263416  12.373   9.025   8.643
20507SOL     OW63417   2.581   9.299   3.810
20507SOL    HW163418   2.628   9.321   3.730
20507SOL    HW263419   2.597   9.372   3.869
20508SOL     OW63420  10.442   2.486  11.200
20508SOL    HW163421  10.412   2.397  11.218
20508SOL    HW263422  10.453   2.527  11.286
20509SOL     OW63423   9.035   0.297   1.752
20509SOL    HW163424   9.074   0.215   1.722
20509SOL    HW263425   9.028   0.287   1.847
20510SOL     OW63426   8.140  11.204   7.815
20510SOL    HW163427   8.174  11.276   7.868
20510SOL    HW263428   8.180  11.125   7.853
20511SOL     OW63429   2.904   6.647  13.673
20511SOL    HW163430   2.918   6.611  13.586
20511SOL    HW263431   2.992   6.664  13.707
20512SOL     OW63432   8.808  14.090  13.249
20512SOL    HW163433   8.849  14.104  13.335
20512SOL    HW263434   8.820  13.996  13.232
20513SOL     OW63435   1.373  13.966   8.618
20513SOL    HW163436   1.298  14.025   8.608
20513SOL    HW263437   1.442  14.007   8.566
20514SOL     OW63438   1.480  10.768   1.641
20514SOL    HW163439   1.477  10.838   1.576
20514SOL    HW263440   1.557  10.787   1.694
20515SOL     OW63441   9.291   5.131   0.823
20515SOL    HW163442   9.380   5.145   0.853
20515SOL    HW263443   9.247   5.088   0.896
20516SOL     OW63444   6.759  11.777  14.042
20516SOL    HW163445   6.807  11.842  14.095
20516SOL    HW263446   6.815  11.761  13.966
20517SOL     OW63447  12.031  11.883   7.930
20517SOL    HW163448  11.989  11.947   7.873
20517SOL    HW263449  11.968  11.812   7.939
20518SOL     OW63450  12.648   9.149   9.710
20518SOL    HW163451  12.736   9.162   9.746
20518SOL    HW263452  12.601   9.104   9.781
20519SOL     OW63453   9.301  12.645  14.328
20519SOL    HW163454   9.245  12.692  14.390
20519SOL    HW263455   9.327  12.712  14.264
20520SOL     OW63456   2.756   3.901   6.131
20520SOL    HW163457   2.775   3.995   6.127
20520SOL    HW263458   2.760   3.880   6.224
20521SOL     OW63459   5.766  11.722   1.588
20521SOL    HW163460   5.841  11.662   1.594
20521SOL    HW263461   5.742  11.721   1.495
20522SOL     OW63462  11.418   2.519   5.261
20522SOL    HW163463  11.469   2.438   5.260
20522SOL    HW263464  11.378   2.521   5.348
20523SOL     OW63465  13.194   3.780   8.376
20523SOL    HW163466  13.184   3.721   8.301
20523SOL    HW263467  13.288   3.797   8.382
20524SOL     OW63468  14.593   3.418  14.328
20524SOL    HW163469  14.508   3.380  14.305
20524SOL    HW263470  14.630   3.356  14.390
20525SOL     OW63471   0.915  13.457   1.921
20525SOL    HW163472   0.922  13.484   2.013
20525SOL    HW263473   0.863  13.526   1.879
20526SOL     OW63474   3.882   9.750   7.428
20526SOL    HW163475   3.921   9.664   7.444
20526SOL    HW263476   3.894   9.764   7.335
20527SOL     OW63477   7.413   4.931   8.305
20527SOL    HW163478   7.406   4.846   8.349
20527SOL    HW263479   7.455   4.911   8.221
20528SOL     OW63480   0.532  13.850   0.474
20528SOL    HW163481   0.523  13.940   0.442
20528SOL    HW263482   0.453  13.835   0.526
20529SOL     OW63483   7.873   9.748   6.698
20529SOL    HW163484   7.850   9.783   6.784
20529SOL    HW263485   7.830   9.663   6.694
20530SOL     OW63486  12.728   5.117   8.128
20530SOL    HW163487  12.636   5.109   8.155
20530SOL    HW263488  12.767   5.174   8.194
20531SOL     OW63489  13.916   6.317   9.367
20531SOL    HW163490  13.864   6.392   9.397
20531SOL    HW263491  13.860   6.241   9.384
20532SOL     OW63492   7.236   1.138  12.702
20532SOL    HW163493   7.283   1.057  12.680
20532SOL    HW263494   7.181   1.114  12.777
20533SOL     OW63495   0.705  10.082  11.876
20533SOL    HW163496   0.800  10.073  11.882
20533SOL    HW263497   0.674   9.993  11.860
20534SOL     OW63498   6.166  10.105   9.481
20534SOL    HW163499   6.134  10.191   9.450
20534SOL    HW263500   6.147  10.046   9.408
20535SOL     OW63501   8.459   6.477   6.843
20535SOL    HW163502   8.415   6.398   6.873
20535SOL    HW263503   8.452   6.473   6.747
20536SOL     OW63504   0.887   4.946   7.991
20536SOL    HW163505   0.903   4.855   8.017
20536SOL    HW263506   0.932   4.954   7.906
20537SOL     OW63507   7.871   7.024   8.259
20537SOL    HW163508   7.804   7.020   8.327
20537SOL    HW263509   7.835   7.083   8.193
20538SOL     OW63510   2.592   0.232   3.496
20538SOL    HW163511   2.589   0.162   3.430
20538SOL    HW263512   2.503   0.234   3.532
20539SOL     OW63513  12.962   8.426   2.272
20539SOL    HW163514  13.035   8.462   2.321
20539SOL    HW263515  12.958   8.334   2.298
20540SOL     OW63516  10.174   4.337  12.448
20540SOL    HW163517  10.222   4.376  12.375
20540SOL    HW263518  10.188   4.398  12.521
20541SOL     OW63519   6.610   1.858   1.312
20541SOL    HW163520   6.597   1.930   1.374
20541SOL    HW263521   6.704   1.839   1.316
20542SOL     OW63522   6.437   5.790   1.084
20542SOL    HW163523   6.456   5.881   1.064
20542SOL    HW263524   6.393   5.757   1.006
20543SOL     OW63525  14.023  13.091  11.308
20543SOL    HW163526  14.054  13.176  11.341
20543SOL    HW263527  14.102  13.038  11.300
20544SOL     OW63528   3.017  13.454   9.810
20544SOL    HW163529   2.953  13.472   9.742
20544SOL    HW263530   2.966  13.423   9.885
20545SOL     OW63531   5.070  12.236   9.353
20545SOL    HW163532   4.978  12.248   9.375
20545SOL    HW263533   5.099  12.322   9.324
20546SOL     OW63534   8.710  12.161   1.743
20546SOL    HW163535   8.767  12.108   1.688
20546SOL    HW263536   8.735  12.251   1.723
20547SOL     OW63537   8.769   2.198   2.093
20547SOL    HW163538   8.680   2.231   2.083
20547SOL    HW263539   8.823   2.276   2.102
20548SOL     OW63540  11.912  10.539   4.985
20548SOL    HW163541  11.997  10.533   5.030
20548SOL    HW263542  11.870  10.454   5.002
20549SOL     OW63543   7.798   8.586  10.739
20549SOL    HW163544   7.888   8.554  10.752
20549SOL    HW263545   7.758   8.581  10.826
20550SOL     OW63546   6.169   7.101   6.888
20550SOL    HW163547   6.080   7.077   6.914
20550SOL    HW263548   6.168   7.196   6.885
20551SOL     OW63549  11.764  11.962   1.758
20551SOL    HW163550  11.797  11.902   1.826
20551SOL    HW263551  11.835  12.026   1.747
20552SOL     OW63552  10.461  10.952  12.593
20552SOL    HW163553  10.391  10.954  12.658
20552SOL    HW263554  10.439  11.021  12.531
20553SOL     OW63555   9.181   5.801   2.564
20553SOL    HW163556   9.195   5.785   2.657
20553SOL    HW263557   9.247   5.866   2.540
20554SOL     OW63558   8.870  14.601   5.908
20554SOL    HW163559   8.866  14.663   5.980
20554SOL    HW263560   8.799  14.628   5.850
20555SOL     OW63561   9.804   9.311   1.824
20555SOL    HW163562   9.734   9.250   1.848
20555SOL    HW263563   9.867   9.257   1.776
20556SOL     OW63564   3.712  12.882  10.372
20556SOL    HW163565   3.730  12.821  10.444
20556SOL    HW263566   3.795  12.925  10.355
20557SOL     OW63567   5.868  10.241   1.742
20557SOL    HW163568   5.822  10.311   1.695
20557SOL    HW263569   5.958  10.245   1.710
20558SOL     OW63570   0.379   3.181  13.842
20558SOL    HW163571   0.350   3.186  13.751
20558SOL    HW263572   0.299   3.168  13.892
20559SOL     OW63573   8.224  10.991   9.824
20559SOL    HW163574   8.306  11.017   9.867
20559SOL    HW263575   8.156  11.009   9.888
20560SOL     OW63576   8.099   8.493   9.139
20560SOL    HW163577   8.146   8.466   9.218
20560SOL    HW263578   8.026   8.545   9.171
20561SOL     OW63579   6.095  11.568  10.753
20561SOL    HW163580   6.137  11.577  10.838
20561SOL    HW263581   6.165  11.541  10.694
20562SOL     OW63582  12.635   4.022   0.428
20562SOL    HW163583  12.715   4.030   0.481
20562SOL    HW263584  12.577   3.968   0.482
20563SOL     OW63585  13.585  14.830   4.548
20563SOL    HW163586  13.633  14.786   4.477
20563SOL    HW263587  13.558  14.759   4.606
20564SOL     OW63588   3.073   8.647  14.276
20564SOL    HW163589   2.997   8.588  14.287
20564SOL    HW263590   3.061   8.714  14.343
20565SOL     OW63591  10.587  10.955   8.823
20565SOL    HW163592  10.512  10.924   8.874
20565SOL    HW263593  10.574  11.049   8.814
20566SOL     OW63594   0.345  12.416   3.620
20566SOL    HW163595   0.271  12.355   3.618
20566SOL    HW263596   0.307  12.499   3.592
20567SOL     OW63597  10.261   5.084   2.257
20567SOL    HW163598  10.263   5.148   2.185
20567SOL    HW263599  10.351   5.051   2.262
20568SOL     OW63600   0.872   3.701  12.257
20568SOL    HW163601   0.799   3.743  12.211
20568SOL    HW263602   0.832   3.624  12.298
20569SOL     OW63603  13.840   9.968  13.433
20569SOL    HW163604  13.860   9.987  13.341
20569SOL    HW263605  13.918   9.997  13.481
20570SOL     OW63606   5.448   9.147   3.034
20570SOL    HW163607   5.515   9.135   3.100
20570SOL    HW263608   5.377   9.193   3.079
20571SOL     OW63609   1.826   9.018  11.831
20571SOL    HW163610   1.768   9.008  11.755
20571SOL    HW263611   1.841   9.112  11.838
20572SOL     OW63612   2.227  10.228   3.971
20572SOL    HW163613   2.240  10.151   4.026
20572SOL    HW263614   2.271  10.206   3.889
20573SOL     OW63615   2.075   0.933   7.492
20573SOL    HW163616   2.066   0.932   7.397
20573SOL    HW263617   2.147   0.873   7.510
20574SOL     OW63618   2.768   3.183   2.966
20574SOL    HW163619   2.818   3.187   3.047
20574SOL    HW263620   2.755   3.090   2.950
20575SOL     OW63621  11.376  11.370  12.347
20575SOL    HW163622  11.291  11.403  12.376
20575SOL    HW263623  11.358  11.281  12.316
20576SOL     OW63624  13.274  11.579   0.515
20576SOL    HW163625  13.221  11.641   0.464
20576SOL    HW263626  13.362  11.616   0.512
20577SOL     OW63627   9.419   9.527  14.766
20577SOL    HW163628   9.514   9.527  14.780
20577SOL    HW263629   9.405   9.591  14.696
20578SOL     OW63630   4.674   5.393   4.769
20578SOL    HW163631   4.681   5.297   4.765
20578SOL    HW263632   4.701   5.416   4.858
20579SOL     OW63633   3.417   0.274   0.696
20579SOL    HW163634   3.323   0.293   0.685
20579SOL    HW263635   3.454   0.358   0.724
20580SOL     OW63636   1.058  12.606   7.147
20580SOL    HW163637   1.061  12.637   7.238
20580SOL    HW263638   1.050  12.511   7.154
20581SOL     OW63639   5.099   0.687  12.552
20581SOL    HW163640   5.020   0.741  12.547
20581SOL    HW263641   5.136   0.706  12.638
20582SOL     OW63642   0.014   4.503  14.505
20582SOL    HW163643   0.096   4.501  14.456
20582SOL    HW263644  14.818   4.460  14.447
20583SOL     OW63645   0.237   7.728   8.980
20583SOL    HW163646   0.201   7.805   9.025
20583SOL    HW263647   0.311   7.701   9.035
20584SOL     OW63648   1.461   3.010   4.094
20584SOL    HW163649   1.467   2.919   4.065
20584SOL    HW263650   1.543   3.050   4.064
20585SOL     OW63651   0.045   0.402  10.230
20585SOL    HW163652  14.833   0.415  10.179
20585SOL    HW263653   0.111   0.456  10.185
20586SOL     OW63654   5.049   2.402   5.545
20586SOL    HW163655   5.039   2.354   5.463
20586SOL    HW263656   5.101   2.479   5.521
20587SOL     OW63657   0.775  10.553  11.810
20587SOL    HW163658   0.863  10.549  11.772
20587SOL    HW263659   0.784  10.509  11.894
20588SOL     OW63660   5.300   7.876  13.193
20588SOL    HW163661   5.359   7.904  13.263
20588SOL    HW263662   5.292   7.781  13.204
20589SOL     OW63663   4.174   5.339   0.795
20589SOL    HW163664   4.084   5.352   0.824
20589SOL    HW263665   4.167   5.293   0.711
20590SOL     OW63666  14.251   4.199   2.986
20590SOL    HW163667  14.295   4.115   2.974
20590SOL    HW263668  14.171   4.178   3.034
20591SOL     OW63669   0.610   7.990   8.600
20591SOL    HW163670   0.668   7.932   8.551
20591SOL    HW263671   0.553   8.028   8.534
20592SOL     OW63672  11.134   1.088  12.994
20592SOL    HW163673  11.226   1.088  12.968
20592SOL    HW263674  11.086   1.086  12.912
20593SOL     OW63675  14.322   8.683   4.887
20593SOL    HW163676  14.385   8.615   4.864
20593SOL    HW263677  14.373   8.747   4.937
20594SOL     OW63678   2.346   2.298   3.398
20594SOL    HW163679   2.431   2.255   3.396
20594SOL    HW263680   2.364   2.387   3.369
20595SOL     OW63681  10.185   1.537   5.952
20595SOL    HW163682  10.139   1.456   5.976
20595SOL    HW263683  10.278   1.515   5.960
20596SOL     OW63684  13.591   9.341   9.781
20596SOL    HW163685  13.663   9.392   9.819
20596SOL    HW263686  13.520   9.404   9.770
20597SOL     OW63687   6.743   1.530   9.660
20597SOL    HW163688   6.772   1.609   9.614
20597SOL    HW263689   6.671   1.558   9.715
20598SOL     OW63690  12.430   8.802   1.088
20598SOL    HW163691  12.496   8.871   1.085
20598SOL    HW263692  12.459   8.743   1.156
20599SOL     OW63693   7.819   8.242   5.739
20599SOL    HW163694   7.763   8.185   5.791
20599SOL    HW263695   7.831   8.195   5.657
20600SOL     OW63696   6.179   1.654  11.622
20600SOL    HW163697   6.219   1.601  11.691
20600SOL    HW263698   6.251   1.704  11.584
20601SOL     OW63699  14.072   5.539  12.236
20601SOL    HW163700  14.007   5.516  12.169
20601SOL    HW263701  14.019   5.567  12.311
20602SOL     OW63702  10.671  12.134   3.185
20602SOL    HW163703  10.687  12.046   3.219
20602SOL    HW263704  10.745  12.151   3.126
20603SOL     OW63705   6.784  10.371   4.503
20603SOL    HW163706   6.838  10.295   4.480
20603SOL    HW263707   6.826  10.407   4.581
20604SOL     OW63708   8.043  13.754   1.623
20604SOL    HW163709   8.001  13.809   1.556
20604SOL    HW263710   8.132  13.740   1.590
20605SOL     OW63711   0.680   1.596   8.583
20605SOL    HW163712   0.711   1.603   8.493
20605SOL    HW263713   0.659   1.503   8.594
20606SOL     OW63714   0.836   4.455   5.253
20606SOL    HW163715   0.914   4.465   5.308
20606SOL    HW263716   0.763   4.462   5.314
20607SOL     OW63717   0.561   3.931   1.694
20607SOL    HW163718   0.474   3.965   1.715
20607SOL    HW263719   0.544   3.851   1.644
20608SOL     OW63720  11.345   1.884   2.996
20608SOL    HW163721  11.341   1.930   3.080
20608SOL    HW263722  11.258   1.898   2.958
20609SOL     OW63723   0.542   2.938   5.828
20609SOL    HW163724   0.633   2.910   5.829
20609SOL    HW263725   0.517   2.942   5.921
20610SOL     OW63726   6.568  11.544   0.564
20610SOL    HW163727   6.579  11.461   0.610
20610SOL    HW263728   6.642  11.597   0.593
20611SOL     OW63729   3.424   6.185  11.007
20611SOL    HW163730   3.492   6.141  10.956
20611SOL    HW263731   3.379   6.115  11.053
20612SOL     OW63732  11.875   4.371   5.115
20612SOL    HW163733  11.826   4.397   5.193
20612SOL    HW263734  11.952   4.326   5.149
20613SOL     OW63735   3.183   3.262   2.032
20613SOL    HW163736   3.210   3.343   1.989
20613SOL    HW263737   3.134   3.291   2.109
20614SOL     OW63738   4.330  11.561  10.790
20614SOL    HW163739   4.298  11.521  10.871
20614SOL    HW263740   4.385  11.634  10.820
20615SOL     OW63741   7.342  14.677  11.492
20615SOL    HW163742   7.316  14.629  11.413
20615SOL    HW263743   7.365  14.608  11.554
20616SOL     OW63744   3.941  11.309   4.447
20616SOL    HW163745   3.922  11.215   4.439
20616SOL    HW263746   3.872  11.352   4.397
20617SOL     OW63747  11.926   1.488  11.861
20617SOL    HW163748  11.838   1.503  11.825
20617SOL    HW263749  11.948   1.569  11.907
20618SOL     OW63750   9.353  12.708   1.911
20618SOL    HW163751   9.369  12.770   1.983
20618SOL    HW263752   9.349  12.623   1.953
20619SOL     OW63753   8.173  11.863   6.155
20619SOL    HW163754   8.247  11.803   6.164
20619SOL    HW263755   8.099  11.816   6.193
20620SOL     OW63756  13.786   8.462  12.536
20620SOL    HW163757  13.828   8.537  12.495
20620SOL    HW263758  13.825   8.386  12.493
20621SOL     OW63759   1.051  11.944  13.369
20621SOL    HW163760   0.999  11.960  13.448
20621SOL    HW263761   1.020  11.859  13.337
20622SOL     OW63762   3.085  11.840  12.691
20622SOL    HW163763   3.087  11.756  12.646
20622SOL    HW263764   3.005  11.838  12.743
20623SOL     OW63765   1.624   8.103   2.104
20623SOL    HW163766   1.566   8.062   2.040
20623SOL    HW263767   1.570   8.115   2.181
20624SOL     OW63768   0.496   8.711  12.183
20624SOL    HW163769   0.463   8.728  12.095
20624SOL    HW263770   0.495   8.796  12.226
20625SOL     OW63771   6.654   7.056   2.827
20625SOL    HW163772   6.634   7.000   2.902
20625SOL    HW263773   6.599   7.133   2.841
20626SOL     OW63774   3.376   0.928  11.600
20626SOL    HW163775   3.456   0.980  11.593
20626SOL    HW263776   3.407   0.838  11.613
20627SOL     OW63777   7.004   4.300  13.874
20627SOL    HW163778   7.020   4.375  13.931
20627SOL    HW263779   6.908   4.295  13.867
20628SOL     OW63780  11.560   8.156  12.920
20628SOL    HW163781  11.648   8.151  12.956
20628SOL    HW263782  11.509   8.094  12.973
20629SOL     OW63783   3.519  12.567   5.378
20629SOL    HW163784   3.433  12.608   5.387
20629SOL    HW263785   3.570  12.629   5.326
20630SOL     OW63786  11.220  13.865  12.698
20630SOL    HW163787  11.212  13.860  12.603
20630SOL    HW263788  11.155  13.930  12.724
20631SOL     OW63789   4.877   5.843  14.445
20631SOL    HW163790   4.895   5.936  14.459
20631SOL    HW263791   4.905   5.827  14.354
20632SOL     OW63792   8.140   1.563  13.781
20632SOL    HW163793   8.115   1.603  13.864
20632SOL    HW263794   8.067   1.505  13.759
20633SOL     OW63795  10.751   1.049   5.774
20633SOL    HW163796  10.821   1.031   5.711
20633SOL    HW263797  10.792   1.034   5.860
20634SOL     OW63798  13.888   0.782  11.054
20634SOL    HW163799  13.934   0.758  10.973
20634SOL    HW263800  13.836   0.704  11.075
20635SOL     OW63801   2.419  12.414   3.126
20635SOL    HW163802   2.457  12.501   3.113
20635SOL    HW263803   2.455  12.361   3.055
20636SOL     OW63804   8.277   0.754   7.855
20636SOL    HW163805   8.279   0.662   7.828
20636SOL    HW263806   8.311   0.753   7.944
20637SOL     OW63807  11.103   2.083  10.173
20637SOL    HW163808  11.090   2.162  10.121
20637SOL    HW263809  11.140   2.019  10.112
20638SOL     OW63810  14.209   7.496   6.549
20638SOL    HW163811  14.268   7.562   6.512
20638SOL    HW263812  14.122   7.528   6.527
20639SOL     OW63813   5.842   8.251   5.331
20639SOL    HW163814   5.821   8.262   5.238
20639SOL    HW263815   5.798   8.324   5.374
20640SOL     OW63816  14.478   1.742  11.784
20640SOL    HW163817  14.454   1.832  11.806
20640SOL    HW263818  14.572   1.746  11.767
20641SOL     OW63819  14.201   6.163   6.280
20641SOL    HW163820  14.186   6.198   6.192
20641SOL    HW263821  14.296   6.164   6.291
20642SOL     OW63822   7.026  12.493   0.480
20642SOL    HW163823   6.938  12.510   0.448
20642SOL    HW263824   7.067  12.442   0.410
20643SOL     OW63825  12.960   6.044   3.881
20643SOL    HW163826  12.977   6.129   3.922
20643SOL    HW263827  12.925   5.990   3.953
20644SOL     OW63828  11.484   3.768  10.471
20644SOL    HW163829  11.469   3.796  10.561
20644SOL    HW263830  11.405   3.795  10.423
20645SOL     OW63831  11.973   1.696  12.068
20645SOL    HW163832  12.038   1.739  12.124
20645SOL    HW263833  11.888   1.719  12.107
20646SOL     OW63834   8.039   8.505   0.480
20646SOL    HW163835   8.115   8.542   0.525
20646SOL    HW263836   7.965   8.554   0.515
20647SOL     OW63837   8.303   7.358  13.850
20647SOL    HW163838   8.361   7.435  13.848
20647SOL    HW263839   8.255   7.363  13.768
20648SOL     OW63840   6.874   8.128  11.121
20648SOL    HW163841   6.966   8.103  11.134
20648SOL    HW263842   6.850   8.173  11.202
20649SOL     OW63843   9.603   5.208   8.837
20649SOL    HW163844   9.672   5.238   8.896
20649SOL    HW263845   9.615   5.113   8.833
20650SOL     OW63846   3.411   3.709   4.826
20650SOL    HW163847   3.431   3.652   4.752
20650SOL    HW263848   3.321   3.688   4.849
20651SOL     OW63849   4.121  14.241   5.777
20651SOL    HW163850   4.091  14.330   5.760
20651SOL    HW263851   4.061  14.186   5.726
20652SOL     OW63852   2.415   7.306   2.404
20652SOL    HW163853   2.393   7.273   2.317
20652SOL    HW263854   2.454   7.231   2.450
20653SOL     OW63855  10.072  10.374   8.844
20653SOL    HW163856  10.111  10.397   8.928
20653SOL    HW263857   9.985  10.412   8.846
20654SOL     OW63858   9.029  11.425   7.942
20654SOL    HW163859   9.004  11.333   7.941
20654SOL    HW263860   9.120  11.426   7.969
20655SOL     OW63861   7.397  14.276   8.061
20655SOL    HW163862   7.344  14.196   8.063
20655SOL    HW263863   7.365  14.324   7.985
20656SOL     OW63864  14.607   1.441   9.169
20656SOL    HW163865  14.545   1.436   9.095
20656SOL    HW263866  14.575   1.515   9.221
20657SOL     OW63867   1.232   2.679  10.085
20657SOL    HW163868   1.206   2.734  10.158
20657SOL    HW263869   1.165   2.611  10.080
20658SOL     OW63870   0.107  13.059   3.401
20658SOL    HW163871   0.166  12.992   3.366
20658SOL    HW263872   0.115  13.052   3.496
20659SOL     OW63873  10.344  14.160  13.816
20659SOL    HW163874  10.439  14.151  13.817
20659SOL    HW263875  10.321  14.170  13.908
20660SOL     OW63876   6.311   6.832   5.163
20660SOL    HW163877   6.277   6.743   5.166
20660SOL    HW263878   6.388   6.826   5.106
20661SOL     OW63879   9.568  10.914   7.478
20661SOL    HW163880   9.623  10.971   7.423
20661SOL    HW263881   9.499  10.972   7.510
20662SOL     OW63882   6.752   2.326   2.088
20662SOL    HW163883   6.658   2.308   2.087
20662SOL    HW263884   6.769   2.356   2.178
20663SOL     OW63885   6.181   9.879   4.990
20663SOL    HW163886   6.160   9.808   5.051
20663SOL    HW263887   6.130   9.953   5.022
20664SOL     OW63888   0.201  13.545   9.826
20664SOL    HW163889   0.260  13.558   9.752
20664SOL    HW263890   0.203  13.451   9.842
20665SOL     OW63891  11.097   5.816   3.065
20665SOL    HW163892  11.101   5.822   2.970
20665SOL    HW263893  11.189   5.813   3.093
20666SOL     OW63894  12.781  14.520   7.440
20666SOL    HW163895  12.790  14.610   7.406
20666SOL    HW263896  12.692  14.516   7.473
20667SOL     OW63897  12.818   9.173   9.394
20667SOL    HW163898  12.730   9.137   9.403
20667SOL    HW263899  12.845   9.150   9.305
20668SOL     OW63900  14.493   8.014   8.054
20668SOL    HW163901  14.539   8.007   8.138
20668SOL    HW263902  14.495   8.107   8.033
20669SOL     OW63903   6.160   3.604  13.089
20669SOL    HW163904   6.109   3.552  13.152
20669SOL    HW263905   6.117   3.689  13.088
20670SOL     OW63906  12.239   0.069  14.034
20670SOL    HW163907  12.172   0.005  14.008
20670SOL    HW263908  12.321   0.031  14.004
20671SOL     OW63909   2.817   0.637  12.333
20671SOL    HW163910   2.858   0.706  12.283
20671SOL    HW263911   2.842   0.654  12.424
20672SOL     OW63912   5.791   1.092   8.222
20672SOL    HW163913   5.779   1.186   8.216
20672SOL    HW263914   5.883   1.078   8.201
20673SOL     OW63915  10.466  11.250   4.768
20673SOL    HW163916  10.453  11.336   4.809
20673SOL    HW263917  10.558  11.251   4.739
20674SOL     OW63918   3.280  13.582   1.623
20674SOL    HW163919   3.282  13.487   1.640
20674SOL    HW263920   3.319  13.591   1.536
20675SOL     OW63921   5.773   5.917   4.144
20675SOL    HW163922   5.777   5.994   4.087
20675SOL    HW263923   5.832   5.853   4.104
20676SOL     OW63924  10.084   5.974   2.265
20676SOL    HW163925  10.094   5.887   2.228
20676SOL    HW263926  10.071   5.960   2.359
20677SOL     OW63927  10.468  14.539  12.417
20677SOL    HW163928  10.388  14.531  12.364
20677SOL    HW263929  10.437  14.534  12.507
20678SOL     OW63930   0.983   3.037   1.136
20678SOL    HW163931   1.024   3.024   1.051
20678SOL    HW263932   0.929   3.115   1.125
20679SOL     OW63933   9.534  13.839   4.927
20679SOL    HW163934   9.623  13.817   4.900
20679SOL    HW263935   9.521  13.930   4.899
20680SOL     OW63936  10.307  13.989   4.267
20680SOL    HW163937  10.341  14.026   4.186
20680SOL    HW263938  10.381  13.993   4.328
20681SOL     OW63939   4.823   7.495  14.025
20681SOL    HW163940   4.783   7.521  14.108
20681SOL    HW263941   4.749   7.483  13.965
20682SOL     OW63942   8.784   3.805  13.373
20682SOL    HW163943   8.825   3.854  13.444
20682SOL    HW263944   8.808   3.852  13.294
20683SOL     OW63945  10.849  10.509  14.386
20683SOL    HW163946  10.918  10.559  14.430
20683SOL    HW263947  10.769  10.534  14.433
20684SOL     OW63948   9.531  14.607  13.298
20684SOL    HW163949   9.464  14.656  13.344
20684SOL    HW263950   9.535  14.646  13.210
20685SOL     OW63951  11.384   8.488   6.707
20685SOL    HW163952  11.305   8.485   6.761
20685SOL    HW263953  11.452   8.519   6.767
20686SOL     OW63954  14.329   5.706  13.631
20686SOL    HW163955  14.254   5.652  13.656
20686SOL    HW263956  14.376   5.653  13.567
20687SOL     OW63957   2.450   6.859   2.764
20687SOL    HW163958   2.387   6.788   2.774
20687SOL    HW263959   2.469   6.887   2.854
20688SOL     OW63960   2.776   2.585   2.596
20688SOL    HW163961   2.832   2.651   2.555
20688SOL    HW263962   2.687   2.617   2.582
20689SOL     OW63963   3.316   7.599  11.718
20689SOL    HW163964   3.369   7.576  11.641
20689SOL    HW263965   3.243   7.537  11.717
20690SOL     OW63966   8.442  13.341   5.292
20690SOL    HW163967   8.492  13.259   5.284
20690SOL    HW263968   8.420  13.346   5.385
20691SOL     OW63969  14.475   6.296   0.078
20691SOL    HW163970  14.397   6.351   0.084
20691SOL    HW263971  14.544   6.347   0.120
20692SOL     OW63972   7.405  14.435   4.531
20692SOL    HW163973   7.465  14.482   4.589
20692SOL    HW263974   7.345  14.390   4.590
20693SOL     OW63975   8.101   6.839  12.846
20693SOL    HW163976   8.102   6.806  12.756
20693SOL    HW263977   8.150   6.774  12.896
20694SOL     OW63978  13.407  12.156   2.852
20694SOL    HW163979  13.363  12.239   2.873
20694SOL    HW263980  13.340  12.103   2.811
20695SOL     OW63981  11.259   4.340   3.375
20695SOL    HW163982  11.269   4.309   3.465
20695SOL    HW263983  11.318   4.416   3.368
20696SOL     OW63984   6.366   4.110   6.281
20696SOL    HW163985   6.350   4.032   6.228
20696SOL    HW263986   6.279   4.138   6.309
20697SOL     OW63987   9.836   5.592   9.017
20697SOL    HW163988   9.915   5.644   9.035
20697SOL    HW263989   9.814   5.612   8.926
20698SOL     OW63990   2.983   5.978   3.466
20698SOL    HW163991   3.040   6.054   3.452
20698SOL    HW263992   3.012   5.914   3.402
20699SOL     OW63993  11.835  14.772   5.200
20699SOL    HW163994  11.829  14.677   5.201
20699SOL    HW263995  11.759  14.802   5.250
20700SOL     OW63996   5.015  13.501   5.447
20700SOL    HW163997   5.066  13.426   5.479
20700SOL    HW263998   4.924  13.476   5.461
20701SOL     OW63999  11.786   2.146   7.038
20701SOL    HW164000  11.741   2.146   7.122
20701SOL    HW264001  11.869   2.191   7.056
20702SOL     OW64002   7.010  10.952   5.544
20702SOL    HW164003   6.983  11.043   5.533
20702SOL    HW264004   7.002  10.913   5.457
20703SOL     OW64005   3.154  10.731   9.988
20703SOL    HW164006   3.187  10.793   9.923
20703SOL    HW264007   3.177  10.645   9.952
20704SOL     OW64008  13.141   2.641   4.773
20704SOL    HW164009  13.194   2.672   4.846
20704SOL    HW264010  13.113   2.721   4.728
20705SOL     OW64011   8.714  10.773   4.842
20705SOL    HW164012   8.767  10.740   4.769
20705SOL    HW264013   8.715  10.703   4.907
20706SOL     OW64014  12.560   2.465   7.807
20706SOL    HW164015  12.499   2.505   7.869
20706SOL    HW264016  12.633   2.435   7.861
20707SOL     OW64017   1.130   2.836  11.689
20707SOL    HW164018   1.209   2.825  11.743
20707SOL    HW264019   1.161   2.829  11.599
20708SOL     OW64020  13.715   4.982   4.461
20708SOL    HW164021  13.795   5.003   4.413
20708SOL    HW264022  13.687   5.066   4.498
20709SOL     OW64023  13.088   4.366   3.661
20709SOL    HW164024  13.085   4.461   3.648
20709SOL    HW264025  13.144   4.354   3.737
20710SOL     OW64026  12.842   5.215  11.952
20710SOL    HW164027  12.754   5.245  11.972
20710SOL    HW264028  12.882   5.287  11.903
20711SOL     OW64029   6.863  13.984   5.147
20711SOL    HW164030   6.806  13.907   5.151
20711SOL    HW264031   6.854  14.017   5.058
20712SOL     OW64032  14.263   1.678   0.089
20712SOL    HW164033  14.182   1.729   0.081
20712SOL    HW264034  14.247   1.600   0.035
20713SOL     OW64035  13.752  11.296   9.100
20713SOL    HW164036  13.670  11.309   9.052
20713SOL    HW264037  13.786  11.385   9.114
20714SOL     OW64038   7.762   3.919   3.616
20714SOL    HW164039   7.823   3.960   3.679
20714SOL    HW264040   7.676   3.926   3.658
20715SOL     OW64041   2.041  13.949   4.381
20715SOL    HW164042   2.017  13.897   4.305
20715SOL    HW264043   2.061  14.036   4.346
20716SOL     OW64044   0.720  14.210   0.973
20716SOL    HW164045   0.754  14.164   1.049
20716SOL    HW264046   0.704  14.299   1.004
20717SOL     OW64047  12.833  12.730   2.587
20717SOL    HW164048  12.914  12.701   2.544
20717SOL    HW264049  12.791  12.786   2.522
20718SOL     OW64050   4.777   1.132   8.008
20718SOL    HW164051   4.810   1.105   8.094
20718SOL    HW264052   4.681   1.128   8.017
20719SOL     OW64053   9.325   9.315   0.746
20719SOL    HW164054   9.390   9.385   0.744
20719SOL    HW264055   9.257   9.345   0.806
20720SOL     OW64056   9.370   3.600   9.644
20720SOL    HW164057   9.378   3.563   9.732
20720SOL    HW264058   9.419   3.539   9.589
20721SOL     OW64059  10.652   0.479   1.033
20721SOL    HW164060  10.727   0.476   0.974
20721SOL    HW264061  10.619   0.389   1.034
20722SOL     OW64062  14.644  14.395   4.345
20722SOL    HW164063  14.658  14.489   4.339
20722SOL    HW264064  14.696  14.358   4.274
20723SOL     OW64065   6.075   6.163  14.551
20723SOL    HW164066   6.091   6.185  14.643
20723SOL    HW264067   6.154   6.191  14.506
20724SOL     OW64068   9.144  11.828   5.483
20724SOL    HW164069   9.194  11.778   5.419
20724SOL    HW264070   9.055  11.797   5.474
20725SOL     OW64071  13.397  10.199   7.564
20725SOL    HW164072  13.492  10.211   7.564
20725SOL    HW264073  13.368  10.235   7.480
20726SOL     OW64074  11.776   6.138   1.770
20726SOL    HW164075  11.858   6.185   1.782
20726SOL    HW264076  11.711   6.191   1.814
20727SOL     OW64077  12.629  14.743  10.938
20727SOL    HW164078  12.712  14.706  10.908
20727SOL    HW264079  12.564  14.676  10.918
20728SOL     OW64080  14.078   5.603   0.353
20728SOL    HW164081  14.095   5.548   0.429
20728SOL    HW264082  14.047   5.686   0.390
20729SOL     OW64083  11.595   0.788  11.277
20729SOL    HW164084  11.555   0.856  11.224
20729SOL    HW264085  11.569   0.809  11.367
20730SOL     OW64086   5.109  12.480  12.278
20730SOL    HW164087   5.083  12.572  12.287
20730SOL    HW264088   5.037  12.431  12.317
20731SOL     OW64089  11.503  10.200   3.526
20731SOL    HW164090  11.419  10.242   3.506
20731SOL    HW264091  11.503  10.121   3.472
20732SOL     OW64092   4.086   7.053   0.047
20732SOL    HW164093   4.049   7.010   0.123
20732SOL    HW264094   4.025   7.034  14.844
20733SOL     OW64095   3.550  13.856  11.045
20733SOL    HW164096   3.617  13.868  11.111
20733SOL    HW264097   3.587  13.791  10.984
20734SOL     OW64098  12.860  14.043  10.480
20734SOL    HW164099  12.954  14.027  10.489
20734SOL    HW264100  12.819  13.978  10.536
20735SOL     OW64101   3.687  10.635   7.989
20735SOL    HW164102   3.627  10.578   8.036
20735SOL    HW264103   3.695  10.713   8.044
20736SOL     OW64104   0.876   6.525   0.128
20736SOL    HW164105   0.802   6.489   0.176
20736SOL    HW264106   0.840   6.548   0.042
20737SOL     OW64107  12.760   4.904   8.323
20737SOL    HW164108  12.666   4.890   8.334
20737SOL    HW264109  12.769   4.936   8.233
20738SOL     OW64110  10.468   3.527   9.927
20738SOL    HW164111  10.392   3.487   9.885
20738SOL    HW264112  10.517   3.566   9.855
20739SOL     OW64113   9.126   8.824  11.108
20739SOL    HW164114   9.214   8.804  11.077
20739SOL    HW264115   9.134   8.907  11.154
20740SOL     OW64116   4.848   2.081   0.672
20740SOL    HW164117   4.800   2.076   0.754
20740SOL    HW264118   4.825   2.000   0.626
20741SOL     OW64119   2.082  10.535  14.717
20741SOL    HW164120   2.046  10.607  14.665
20741SOL    HW264121   2.008  10.475  14.729
20742SOL     OW64122   1.182   7.355  10.441
20742SOL    HW164123   1.268   7.380  10.405
20742SOL    HW264124   1.163   7.271  10.400
20743SOL     OW64125  14.856   6.356  10.062
20743SOL    HW164126   0.028   6.302  10.130
20743SOL    HW264127  14.784   6.302  10.029
20744SOL     OW64128  10.261   6.696   5.611
20744SOL    HW164129  10.320   6.688   5.687
20744SOL    HW264130  10.220   6.781   5.622
20745SOL     OW64131  12.609   8.976   2.881
20745SOL    HW164132  12.536   9.034   2.900
20745SOL    HW264133  12.648   8.956   2.966
20746SOL     OW64134   1.219   0.475   7.737
20746SOL    HW164135   1.184   0.466   7.648
20746SOL    HW264136   1.232   0.569   7.749
20747SOL     OW64137   9.683   8.895   9.829
20747SOL    HW164138   9.680   8.990   9.834
20747SOL    HW264139   9.715   8.876   9.741
20748SOL     OW64140   1.382   8.940   1.880
20748SOL    HW164141   1.332   8.994   1.819
20748SOL    HW264142   1.450   8.999   1.913
20749SOL     OW64143   4.815   7.408   3.641
20749SOL    HW164144   4.746   7.420   3.706
20749SOL    HW264145   4.769   7.380   3.562
20750SOL     OW64146   9.290   3.620  14.722
20750SOL    HW164147   9.273   3.560  14.649
20750SOL    HW264148   9.240   3.698  14.700
20751SOL     OW64149   0.009   5.768   2.589
20751SOL    HW164150   0.016   5.796   2.498
20751SOL    HW264151  14.793   5.721   2.594
20752SOL     OW64152   1.369   8.323   0.496
20752SOL    HW164153   1.428   8.255   0.464
20752SOL    HW264154   1.291   8.315   0.442
20753SOL     OW64155  13.530   5.601   9.394
20753SOL    HW164156  13.600   5.554   9.350
20753SOL    HW264157  13.574   5.651   9.462
20754SOL     OW64158   7.972   8.476  14.261
20754SOL    HW164159   7.979   8.384  14.235
20754SOL    HW264160   7.966   8.523  14.177
20755SOL     OW64161  12.536  13.624   4.609
20755SOL    HW164162  12.630  13.615   4.594
20755SOL    HW264163  12.503  13.659   4.526
20756SOL     OW64164   1.479   5.277  14.440
20756SOL    HW164165   1.574   5.293  14.438
20756SOL    HW264166   1.470   5.195  14.488
20757SOL     OW64167  11.441  13.172  10.904
20757SOL    HW164168  11.366  13.187  10.846
20757SOL    HW264169  11.482  13.258  10.914
20758SOL     OW64170   5.460  13.746   4.492
20758SOL    HW164171   5.375  13.715   4.523
20758SOL    HW264172   5.459  13.840   4.511
20759SOL     OW64173   1.221  12.496   0.341
20759SOL    HW164174   1.185  12.418   0.383
20759SOL    HW264175   1.194  12.569   0.398
20760SOL     OW64176  12.955   6.259  10.349
20760SOL    HW164177  13.021   6.276  10.416
20760SOL    HW264178  12.873   6.292  10.386
20761SOL     OW64179  12.671  14.299   9.406
20761SOL    HW164180  12.585  14.340   9.414
20761SOL    HW264181  12.657  14.207   9.431
20762SOL     OW64182   7.634   4.838  14.207
20762SOL    HW164183   7.611   4.796  14.124
20762SOL    HW264184   7.687   4.772  14.252
20763SOL     OW64185  11.100   6.946  10.508
20763SOL    HW164186  11.158   6.950  10.432
20763SOL    HW264187  11.025   7.001  10.484
20764SOL     OW64188   4.396  12.373   5.862
20764SOL    HW164189   4.431  12.297   5.815
20764SOL    HW264190   4.441  12.371   5.947
20765SOL     OW64191   6.630  12.977  10.723
20765SOL    HW164192   6.538  13.002  10.737
20765SOL    HW264193   6.660  13.034  10.653
20766SOL     OW64194   6.551   8.947  14.175
20766SOL    HW164195   6.607   8.929  14.250
20766SOL    HW264196   6.597   9.015  14.126
20767SOL     OW64197   1.675   2.806  11.179
20767SOL    HW164198   1.730   2.729  11.163
20767SOL    HW264199   1.592   2.784  11.137
20768SOL     OW64200   7.924   7.836   1.879
20768SOL    HW164201   7.860   7.823   1.949
20768SOL    HW264202   8.007   7.806   1.916
20769SOL     OW64203  14.136   4.117  13.291
20769SOL    HW164204  14.127   4.028  13.325
20769SOL    HW264205  14.226   4.141  13.311
20770SOL     OW64206   9.217   0.587   9.035
20770SOL    HW164207   9.226   0.679   9.061
20770SOL    HW264208   9.128   0.582   9.000
20771SOL     OW64209   5.979  10.782  10.012
20771SOL    HW164210   6.048  10.846  10.028
20771SOL    HW264211   6.017  10.698  10.040
20772SOL     OW64212  13.352   5.372   3.711
20772SOL    HW164213  13.338   5.278   3.702
20772SOL    HW264214  13.378   5.401   3.623
20773SOL     OW64215  11.299  12.402   7.713
20773SOL    HW164216  11.246  12.473   7.752
20773SOL    HW264217  11.312  12.429   7.623
20774SOL     OW64218   1.641   1.597  12.189
20774SOL    HW164219   1.560   1.647  12.177
20774SOL    HW264220   1.683   1.598  12.103
20775SOL     OW64221   1.311  12.944   7.591
20775SOL    HW164222   1.270  13.025   7.621
20775SOL    HW264223   1.305  12.948   7.496
20776SOL     OW64224  12.629   1.308   5.635
20776SOL    HW164225  12.656   1.220   5.663
20776SOL    HW264226  12.545   1.295   5.591
20777SOL     OW64227  13.963   9.921   3.561
20777SOL    HW164228  13.895   9.896   3.498
20777SOL    HW264229  13.927   9.898   3.646
20778SOL     OW64230   3.052  13.101   0.031
20778SOL    HW164231   3.145  13.087   0.048
20778SOL    HW264232   3.016  13.128   0.115
20779SOL     OW64233   0.285  14.494  12.913
20779SOL    HW164234   0.201  14.537  12.896
20779SOL    HW264235   0.274  14.454  12.999
20780SOL     OW64236   7.431  11.670   1.087
20780SOL    HW164237   7.488  11.688   1.161
20780SOL    HW264238   7.343  11.689   1.119
20781SOL     OW64239  10.711   9.300   4.184
20781SOL    HW164240  10.797   9.259   4.169
20781SOL    HW264241  10.662   9.283   4.104
20782SOL     OW64242   3.214   8.281   1.800
20782SOL    HW164243   3.233   8.365   1.842
20782SOL    HW264244   3.249   8.289   1.711
20783SOL     OW64245  13.061  10.497   0.376
20783SOL    HW164246  12.997  10.439   0.418
20783SOL    HW264247  13.132  10.503   0.440
20784SOL     OW64248  12.647   0.969   0.486
20784SOL    HW164249  12.617   0.915   0.559
20784SOL    HW264250  12.570   1.022   0.463
20785SOL     OW64251   0.979   1.202  12.530
20785SOL    HW164252   1.026   1.202  12.447
20785SOL    HW264253   0.987   1.112  12.562
20786SOL     OW64254   5.513  14.528   0.464
20786SOL    HW164255   5.550  14.502   0.380
20786SOL    HW264256   5.510  14.624   0.461
20787SOL     OW64257   1.118   1.383  11.565
20787SOL    HW164258   1.140   1.410  11.476
20787SOL    HW264259   1.119   1.287  11.562
20788SOL     OW64260   7.867  11.797   8.226
20788SOL    HW164261   7.895  11.708   8.248
20788SOL    HW264262   7.933  11.854   8.265
20789SOL     OW64263  12.355   2.843  13.129
20789SOL    HW164264  12.406   2.782  13.076
20789SOL    HW264265  12.264   2.825  13.105
20790SOL     OW64266   2.570  13.318   2.415
20790SOL    HW164267   2.517  13.313   2.336
20790SOL    HW264268   2.558  13.233   2.457
20791SOL     OW64269  12.186   6.367   8.486
20791SOL    HW164270  12.202   6.287   8.536
20791SOL    HW264271  12.196   6.438   8.550
20792SOL     OW64272  13.696   0.520  11.332
20792SOL    HW164273  13.645   0.440  11.318
20792SOL    HW264274  13.731   0.542  11.245
20793SOL     OW64275  10.601  13.479   7.915
20793SOL    HW164276  10.567  13.519   7.835
20793SOL    HW264277  10.523  13.454   7.964
20794SOL     OW64278  13.433   1.691   9.764
20794SOL    HW164279  13.419   1.726   9.851
20794SOL    HW264280  13.382   1.610   9.761
20795SOL     OW64281   4.312  13.154   9.891
20795SOL    HW164282   4.324  13.130   9.799
20795SOL    HW264283   4.347  13.080   9.940
20796SOL     OW64284   0.209   9.069   7.652
20796SOL    HW164285   0.154   8.991   7.649
20796SOL    HW264286   0.156   9.138   7.612
20797SOL     OW64287   9.088  11.597  12.361
20797SOL    HW164288   9.141  11.530  12.405
20797SOL    HW264289   9.080  11.667  12.426
20798SOL     OW64290   4.255  13.338   8.783
20798SOL    HW164291   4.278  13.306   8.871
20798SOL    HW264292   4.247  13.433   8.794
20799SOL     OW64293  11.164   8.451   8.245
20799SOL    HW164294  11.179   8.503   8.166
20799SOL    HW264295  11.134   8.366   8.213
20800SOL     OW64296   1.495   8.200   8.159
20800SOL    HW164297   1.445   8.188   8.239
20800SOL    HW264298   1.437   8.253   8.103
20801SOL     OW64299   8.759  11.017   9.980
20801SOL    HW164300   8.802  11.102   9.967
20801SOL    HW264301   8.714  11.026  10.064
20802SOL     OW64302   3.315   7.833  13.358
20802SOL    HW164303   3.242   7.888  13.328
20802SOL    HW264304   3.350   7.879  13.434
20803SOL     OW64305   3.229  12.516   5.774
20803SOL    HW164306   3.236  12.450   5.843
20803SOL    HW264307   3.222  12.465   5.693
20804SOL     OW64308   7.181  11.160  12.465
20804SOL    HW164309   7.113  11.094  12.474
20804SOL    HW264310   7.230  11.156  12.548
20805SOL     OW64311   9.788   0.906  11.470
20805SOL    HW164312   9.742   0.852  11.406
20805SOL    HW264313   9.720   0.935  11.530
20806SOL     OW64314   7.156   6.064   2.385
20806SOL    HW164315   7.248   6.042   2.368
20806SOL    HW264316   7.144   6.044   2.478
20807SOL     OW64317   4.376   8.692  13.768
20807SOL    HW164318   4.366   8.757  13.698
20807SOL    HW264319   4.389   8.610  13.721
20808SOL     OW64320   0.727   7.881   2.371
20808SOL    HW164321   0.800   7.884   2.433
20808SOL    HW264322   0.762   7.920   2.291
20809SOL     OW64323  10.322   4.969   0.435
20809SOL    HW164324  10.270   4.923   0.369
20809SOL    HW264325  10.273   4.956   0.516
20810SOL     OW64326  12.643   6.922   5.575
20810SOL    HW164327  12.589   6.907   5.498
20810SOL    HW264328  12.685   7.006   5.558
20811SOL     OW64329   9.476  13.602   3.909
20811SOL    HW164330   9.391  13.620   3.949
20811SOL    HW264331   9.519  13.543   3.971
20812SOL     OW64332   0.867   3.007   1.850
20812SOL    HW164333   0.854   2.944   1.921
20812SOL    HW264334   0.779   3.041   1.833
20813SOL     OW64335   0.325   3.224   2.345
20813SOL    HW164336   0.250   3.250   2.291
20813SOL    HW264337   0.290   3.216   2.433
20814SOL     OW64338   6.664   9.145   5.327
20814SOL    HW164339   6.646   9.077   5.392
20814SOL    HW264340   6.711   9.213   5.375
20815SOL     OW64341  13.870   1.748  14.331
20815SOL    HW164342  13.952   1.774  14.289
20815SOL    HW264343  13.891   1.747  14.425
20816SOL     OW64344   5.191  10.100   2.425
20816SOL    HW164345   5.134  10.063   2.358
20816SOL    HW264346   5.273  10.118   2.380
20817SOL     OW64347   4.414   1.907   3.398
20817SOL    HW164348   4.466   1.883   3.475
20817SOL    HW264349   4.324   1.883   3.422
20818SOL     OW64350   0.974   4.288   7.853
20818SOL    HW164351   1.049   4.241   7.889
20818SOL    HW264352   0.909   4.288   7.923
20819SOL     OW64353   0.694   3.054   2.174
20819SOL    HW164354   0.663   3.143   2.158
20819SOL    HW264355   0.789   3.060   2.164
20820SOL     OW64356   6.933   3.887   5.390
20820SOL    HW164357   6.964   3.900   5.300
20820SOL    HW264358   6.857   3.829   5.381
20821SOL     OW64359  11.967   8.552   7.732
20821SOL    HW164360  11.979   8.495   7.656
20821SOL    HW264361  11.906   8.505   7.789
20822SOL     OW64362  10.459   1.004   0.998
20822SOL    HW164363  10.541   1.052   1.009
20822SOL    HW264364  10.456   0.980   0.906
20823SOL     OW64365   7.298   9.045   4.284
20823SOL    HW164366   7.231   9.111   4.263
20823SOL    HW264367   7.350   9.037   4.204
20824SOL     OW64368   7.624   5.550   7.886
20824SOL    HW164369   7.572   5.506   7.954
20824SOL    HW264370   7.714   5.528   7.906
20825SOL     OW64371   0.252  13.699   9.344
20825SOL    HW164372   0.188  13.646   9.296
20825SOL    HW264373   0.273  13.646   9.421
20826SOL     OW64374   9.804   8.096   3.179
20826SOL    HW164375   9.826   8.187   3.163
20826SOL    HW264376   9.764   8.096   3.266
20827SOL     OW64377   6.818   4.106   4.318
20827SOL    HW164378   6.813   4.011   4.321
20827SOL    HW264379   6.800   4.129   4.227
20828SOL     OW64380   6.053   4.423   0.701
20828SOL    HW164381   6.131   4.477   0.709
20828SOL    HW264382   6.022   4.438   0.612
20829SOL     OW64383  12.177   8.712   0.411
20829SOL    HW164384  12.172   8.802   0.380
20829SOL    HW264385  12.225   8.666   0.343
20830SOL     OW64386   3.067  12.123  14.855
20830SOL    HW164387   3.030  12.206  14.825
20830SOL    HW264388   3.045  12.061  14.786
20831SOL     OW64389  13.653   8.420   3.626
20831SOL    HW164390  13.587   8.464   3.679
20831SOL    HW264391  13.603   8.373   3.559
20832SOL     OW64392  14.586  10.803   7.369
20832SOL    HW164393  14.572  10.875   7.307
20832SOL    HW264394  14.621  10.732   7.314
20833SOL     OW64395  12.157  14.459  12.576
20833SOL    HW164396  12.202  14.390  12.527
20833SOL    HW264397  12.219  14.531  12.577
20834SOL     OW64398   1.411  13.060  10.824
20834SOL    HW164399   1.322  13.087  10.803
20834SOL    HW264400   1.465  13.106  10.760
20835SOL     OW64401  10.588  13.182   0.411
20835SOL    HW164402  10.643  13.258   0.429
20835SOL    HW264403  10.533  13.210   0.337
20836SOL     OW64404   9.132  13.889   4.683
20836SOL    HW164405   9.056  13.831   4.679
20836SOL    HW264406   9.138  13.928   4.596
20837SOL     OW64407   8.137  14.151   1.757
20837SOL    HW164408   8.175  14.235   1.783
20837SOL    HW264409   8.207  14.087   1.773
20838SOL     OW64410   1.016   3.398   0.804
20838SOL    HW164411   1.097   3.442   0.779
20838SOL    HW264412   0.962   3.467   0.844
20839SOL     OW64413   3.520   8.973  10.238
20839SOL    HW164414   3.452   9.028  10.276
20839SOL    HW264415   3.567   8.937  10.314
20840SOL     OW64416   1.899   8.239   8.429
20840SOL    HW164417   1.853   8.223   8.346
20840SOL    HW264418   1.943   8.156   8.448
20841SOL     OW64419   7.399  10.528   1.413
20841SOL    HW164420   7.304  10.538   1.417
20841SOL    HW264421   7.425  10.509   1.503
20842SOL     OW64422   6.591   0.722   6.437
20842SOL    HW164423   6.593   0.816   6.455
20842SOL    HW264424   6.560   0.683   6.519
20843SOL     OW64425   7.121   3.528   7.112
20843SOL    HW164426   7.043   3.510   7.059
20843SOL    HW264427   7.093   3.597   7.172
20844SOL     OW64428  14.213  10.380   4.051
20844SOL    HW164429  14.163  10.400   4.130
20844SOL    HW264430  14.173  10.435   3.983
20845SOL     OW64431   3.582   8.448  11.346
20845SOL    HW164432   3.653   8.389  11.321
20845SOL    HW264433   3.601   8.472  11.436
20846SOL     OW64434   2.509   3.286   0.614
20846SOL    HW164435   2.513   3.274   0.519
20846SOL    HW264436   2.419   3.263   0.637
20847SOL     OW64437   3.018   8.015   0.230
20847SOL    HW164438   3.021   8.067   0.311
20847SOL    HW264439   3.020   7.924   0.260
20848SOL     OW64440   3.658  11.651  12.125
20848SOL    HW164441   3.612  11.719  12.175
20848SOL    HW264442   3.651  11.573  12.180
20849SOL     OW64443  12.508   1.758   2.651
20849SOL    HW164444  12.518   1.839   2.700
20849SOL    HW264445  12.598   1.729   2.635
20850SOL     OW64446   9.807   7.539   8.093
20850SOL    HW164447   9.819   7.597   8.018
20850SOL    HW264448   9.801   7.451   8.056
20851SOL     OW64449   6.952   0.053   0.536
20851SOL    HW164450   6.900   0.082   0.462
20851SOL    HW264451   6.967  14.828   0.520
20852SOL     OW64452  12.664  13.296   8.012
20852SOL    HW164453  12.630  13.378   8.048
20852SOL    HW264454  12.751  13.287   8.049
20853SOL     OW64455  13.724  11.118  11.076
20853SOL    HW164456  13.629  11.103  11.073
20853SOL    HW264457  13.761  11.035  11.103
20854SOL     OW64458   7.077  13.735   8.873
20854SOL    HW164459   7.066  13.813   8.928
20854SOL    HW264460   7.088  13.770   8.784
20855SOL     OW64461   2.943  12.192   3.388
20855SOL    HW164462   3.016  12.156   3.338
20855SOL    HW264463   2.877  12.123   3.386
20856SOL     OW64464  11.601   6.043   9.363
20856SOL    HW164465  11.508   6.065   9.369
20856SOL    HW264466  11.603   5.963   9.309
20857SOL     OW64467   7.337   1.146  10.877
20857SOL    HW164468   7.413   1.187  10.920
20857SOL    HW264469   7.374   1.099  10.803
20858SOL     OW64470  12.304   5.985   0.767
20858SOL    HW164471  12.327   5.998   0.859
20858SOL    HW264472  12.344   5.901   0.744
20859SOL     OW64473   8.378   1.542  12.789
20859SOL    HW164474   8.439   1.610  12.759
20859SOL    HW264475   8.417   1.460  12.759
20860SOL     OW64476   7.517  14.303  13.847
20860SOL    HW164477   7.442  14.326  13.793
20860SOL    HW264478   7.494  14.220  13.887
20861SOL     OW64479   2.742  12.653   8.332
20861SOL    HW164480   2.655  12.615   8.318
20861SOL    HW264481   2.798  12.579   8.355
20862SOL     OW64482   4.697  10.141   8.758
20862SOL    HW164483   4.706  10.048   8.778
20862SOL    HW264484   4.753  10.186   8.821
20863SOL     OW64485   4.164   4.477   3.338
20863SOL    HW164486   4.091   4.516   3.289
20863SOL    HW264487   4.242   4.515   3.298
20864SOL     OW64488   0.535   9.037  10.005
20864SOL    HW164489   0.553   8.945   9.985
20864SOL    HW264490   0.622   9.077  10.015
20865SOL     OW64491   7.668  11.209   0.126
20865SOL    HW164492   7.663  11.253   0.041
20865SOL    HW264493   7.756  11.230   0.159
20866SOL     OW64494   5.019   9.857   2.789
20866SOL    HW164495   5.004   9.896   2.875
20866SOL    HW264496   5.089   9.909   2.751
20867SOL     OW64497  10.673   3.122   2.213
20867SOL    HW164498  10.727   3.192   2.178
20867SOL    HW264499  10.690   3.122   2.307
20868SOL     OW64500   8.261   8.234   4.387
20868SOL    HW164501   8.309   8.234   4.470
20868SOL    HW264502   8.328   8.250   4.320
20869SOL     OW64503   4.364   6.898   7.128
20869SOL    HW164504   4.376   6.807   7.102
20869SOL    HW264505   4.387   6.948   7.050
20870SOL     OW64506  11.542   6.558  13.569
20870SOL    HW164507  11.615   6.522  13.518
20870SOL    HW264508  11.537   6.650  13.541
20871SOL     OW64509   3.459   8.811  12.659
20871SOL    HW164510   3.379   8.859  12.681
20871SOL    HW264511   3.462   8.810  12.564
20872SOL     OW64512   1.813  12.784  13.869
20872SOL    HW164513   1.808  12.880  13.873
20872SOL    HW264514   1.904  12.767  13.842
20873SOL     OW64515  11.456  10.924  13.731
20873SOL    HW164516  11.523  10.963  13.675
20873SOL    HW264517  11.399  10.877  13.670
20874SOL     OW64518   4.578   7.382  11.567
20874SOL    HW164519   4.604   7.474  11.570
20874SOL    HW264520   4.605   7.353  11.480
20875SOL     OW64521   7.400  14.668   7.972
20875SOL    HW164522   7.370  14.599   7.914
20875SOL    HW264523   7.470  14.627   8.024
20876SOL     OW64524  14.580  10.856  14.787
20876SOL    HW164525  14.564  10.947  14.762
20876SOL    HW264526  14.596  10.861   0.014
20877SOL     OW64527   2.210   1.918  13.347
20877SOL    HW164528   2.242   1.858  13.415
20877SOL    HW264529   2.283   1.927  13.286
20878SOL     OW64530  13.233   5.740   1.833
20878SOL    HW164531  13.217   5.665   1.775
20878SOL    HW264532  13.321   5.726   1.867
20879SOL     OW64533  11.794   5.292  10.535
20879SOL    HW164534  11.724   5.345  10.574
20879SOL    HW264535  11.750   5.212  10.507
20880SOL     OW64536   0.297   0.790   4.643
20880SOL    HW164537   0.250   0.820   4.565
20880SOL    HW264538   0.372   0.742   4.607
20881SOL     OW64539   8.692   1.451   9.106
20881SOL    HW164540   8.729   1.539   9.116
20881SOL    HW264541   8.696   1.413   9.194
20882SOL     OW64542   9.355  11.827  10.600
20882SOL    HW164543   9.408  11.907  10.604
20882SOL    HW264544   9.267  11.855  10.627
20883SOL     OW64545   9.202   8.657  12.743
20883SOL    HW164546   9.143   8.601  12.793
20883SOL    HW264547   9.213   8.610  12.660
20884SOL     OW64548   1.963  10.833  10.318
20884SOL    HW164549   1.903  10.766  10.349
20884SOL    HW264550   2.048  10.789  10.313
20885SOL     OW64551   9.915  10.948   7.783
20885SOL    HW164552   9.923  11.013   7.853
20885SOL    HW264553   9.982  10.883   7.804
20886SOL     OW64554   5.009   9.529   6.940
20886SOL    HW164555   4.944   9.584   6.983
20886SOL    HW264556   5.033   9.578   6.862
20887SOL     OW64557  11.215   9.310   1.651
20887SOL    HW164558  11.220   9.228   1.602
20887SOL    HW264559  11.306   9.342   1.653
20888SOL     OW64560   2.113  10.218  11.985
20888SOL    HW164561   2.106  10.190  11.893
20888SOL    HW264562   2.189  10.169  12.019
20889SOL     OW64563  14.531   8.217   5.676
20889SOL    HW164564  14.624   8.203   5.660
20889SOL    HW264565  14.491   8.213   5.589
20890SOL     OW64566  12.912  13.285  13.294
20890SOL    HW164567  12.963  13.312  13.217
20890SOL    HW264568  12.904  13.190  13.285
20891SOL     OW64569  10.134  12.180   0.369
20891SOL    HW164570  10.183  12.117   0.423
20891SOL    HW264571  10.097  12.242   0.432
20892SOL     OW64572  14.184   5.900   8.893
20892SOL    HW164573  14.129   5.978   8.906
20892SOL    HW264574  14.196   5.894   8.799
20893SOL     OW64575  11.862  12.271  13.496
20893SOL    HW164576  11.906  12.317  13.567
20893SOL    HW264577  11.799  12.213  13.539
20894SOL     OW64578   9.007   2.097  10.366
20894SOL    HW164579   9.019   2.066  10.276
20894SOL    HW264580   8.915   2.123  10.370
20895SOL     OW64581  13.257  13.541   7.157
20895SOL    HW164582  13.305  13.623   7.144
20895SOL    HW264583  13.324  13.473   7.151
20896SOL     OW64584  12.451   8.618   6.246
20896SOL    HW164585  12.544   8.625   6.227
20896SOL    HW264586  12.446   8.572   6.329
20897SOL     OW64587  14.688   2.650   0.457
20897SOL    HW164588  14.775   2.612   0.468
20897SOL    HW264589  14.638   2.615   0.530
20898SOL     OW64590   5.685   5.380   4.960
20898SOL    HW164591   5.662   5.321   4.888
20898SOL    HW264592   5.709   5.462   4.917
20899SOL     OW64593  10.203   4.394   7.819
20899SOL    HW164594  10.233   4.332   7.753
20899SOL    HW264595  10.178   4.339   7.894
20900SOL     OW64596   1.641   4.213   4.920
20900SOL    HW164597   1.582   4.155   4.969
20900SOL    HW264598   1.677   4.157   4.850
20901SOL     OW64599  12.665  13.201   0.325
20901SOL    HW164600  12.739  13.244   0.368
20901SOL    HW264601  12.601  13.271   0.313
20902SOL     OW64602   4.558   1.133  11.412
20902SOL    HW164603   4.652   1.118  11.405
20902SOL    HW264604   4.547   1.227  11.396
20903SOL     OW64605   9.513  11.391  11.021
20903SOL    HW164606   9.566  11.390  10.941
20903SOL    HW264607   9.559  11.331  11.080
20904SOL     OW64608   7.293  12.224   2.041
20904SOL    HW164609   7.220  12.268   1.998
20904SOL    HW264610   7.362  12.291   2.045
20905SOL     OW64611   6.854   3.359  10.707
20905SOL    HW164612   6.866   3.270  10.674
20905SOL    HW264613   6.764   3.360  10.741
20906SOL     OW64614   1.167   8.344  14.697
20906SOL    HW164615   1.121   8.389  14.626
20906SOL    HW264616   1.106   8.347  14.771
20907SOL     OW64617  13.643  13.294   0.203
20907SOL    HW164618  13.572  13.240   0.238
20907SOL    HW264619  13.622  13.383   0.234
20908SOL     OW64620   0.048  10.318   0.437
20908SOL    HW164621   0.000  10.401   0.435
20908SOL    HW264622   0.140  10.343   0.424
20909SOL     OW64623  10.956  10.577   8.617
20909SOL    HW164624  10.932  10.666   8.591
20909SOL    HW264625  10.945  10.526   8.537
20910SOL     OW64626   7.348  12.646   7.565
20910SOL    HW164627   7.271  12.615   7.518
20910SOL    HW264628   7.365  12.733   7.529
20911SOL     OW64629   3.014  13.078   2.843
20911SOL    HW164630   2.927  13.045   2.863
20911SOL    HW264631   3.009  13.172   2.859
20912SOL     OW64632   9.387   0.304   5.063
20912SOL    HW164633   9.324   0.236   5.039
20912SOL    HW264634   9.419   0.277   5.149
20913SOL     OW64635   3.122  10.718   3.768
20913SOL    HW164636   3.044  10.672   3.736
20913SOL    HW264637   3.195  10.676   3.722
20914SOL     OW64638   5.808   3.731   5.443
20914SOL    HW164639   5.866   3.791   5.489
20914SOL    HW264640   5.740   3.787   5.406
20915SOL     OW64641  10.464  12.629  11.644
20915SOL    HW164642  10.452  12.622  11.739
20915SOL    HW264643  10.426  12.548  11.609
20916SOL     OW64644   1.566   1.285  11.974
20916SOL    HW164645   1.508   1.322  12.040
20916SOL    HW264646   1.622   1.357  11.947
20917SOL     OW64647  11.094   7.384   0.152
20917SOL    HW164648  11.099   7.391   0.056
20917SOL    HW264649  11.120   7.294   0.171
20918SOL     OW64650  13.639   3.193   3.546
20918SOL    HW164651  13.702   3.180   3.476
20918SOL    HW264652  13.665   3.132   3.614
20919SOL     OW64653   9.235  12.556  13.126
20919SOL    HW164654   9.173  12.622  13.095
20919SOL    HW264655   9.232  12.487  13.059
20920SOL     OW64656   2.260  10.441  12.035
20920SOL    HW164657   2.289  10.391  12.111
20920SOL    HW264658   2.195  10.385  11.993
20921SOL     OW64659   6.422  14.713  14.009
20921SOL    HW164660   6.341  14.764  14.003
20921SOL    HW264661   6.463  14.723  13.923
20922SOL     OW64662  11.861   3.251   7.189
20922SOL    HW164663  11.870   3.307   7.113
20922SOL    HW264664  11.793   3.293   7.242
20923SOL     OW64665  10.552   4.147   1.912
20923SOL    HW164666  10.478   4.087   1.900
20923SOL    HW264667  10.628   4.090   1.924
20924SOL     OW64668   2.325  10.324  12.993
20924SOL    HW164669   2.255  10.263  12.974
20924SOL    HW264670   2.342  10.314  13.087
20925SOL     OW64671   1.372  12.488  11.775
20925SOL    HW164672   1.321  12.535  11.841
20925SOL    HW264673   1.342  12.523  11.692
20926SOL     OW64674   4.439  11.645   2.629
20926SOL    HW164675   4.501  11.577   2.654
20926SOL    HW264676   4.492  11.725   2.623
20927SOL     OW64677  14.513  10.920   9.811
20927SOL    HW164678  14.543  10.968   9.889
20927SOL    HW264679  14.565  10.955   9.739
20928SOL     OW64680  10.666   1.113   2.855
20928SOL    HW164681  10.648   1.037   2.910
20928SOL    HW264682  10.639   1.086   2.767
20929SOL     OW64683   1.346   9.846   2.678
20929SOL    HW164684   1.275   9.906   2.656
20929SOL    HW264685   1.362   9.797   2.598
20930SOL     OW64686  13.019  10.809   3.916
20930SOL    HW164687  12.924  10.803   3.904
20930SOL    HW264688  13.050  10.719   3.905
20931SOL     OW64689   6.021  14.653  11.694
20931SOL    HW164690   6.070  14.732  11.673
20931SOL    HW264691   5.950  14.683  11.750
20932SOL     OW64692  10.426  12.084   1.652
20932SOL    HW164693  10.423  12.138   1.731
20932SOL    HW264694  10.516  12.093   1.620
20933SOL     OW64695   6.751   5.209   8.608
20933SOL    HW164696   6.780   5.140   8.667
20933SOL    HW264697   6.672   5.244   8.649
20934SOL     OW64698   6.533   7.502   6.231
20934SOL    HW164699   6.518   7.480   6.323
20934SOL    HW264700   6.542   7.597   6.230
20935SOL     OW64701   9.134   0.375   6.415
20935SOL    HW164702   9.127   0.412   6.503
20935SOL    HW264703   9.043   0.370   6.384
20936SOL     OW64704   9.533   3.705   6.233
20936SOL    HW164705   9.540   3.725   6.327
20936SOL    HW264706   9.500   3.785   6.194
20937SOL     OW64707  13.871  10.503   0.897
20937SOL    HW164708  13.954  10.551   0.899
20937SOL    HW264709  13.889  10.421   0.942
20938SOL     OW64710   7.851   0.075   0.452
20938SOL    HW164711   7.899  14.860   0.444
20938SOL    HW264712   7.853   0.112   0.363
20939SOL     OW64713  12.789   1.959   2.030
20939SOL    HW164714  12.707   2.008   2.024
20939SOL    HW264715  12.777   1.901   2.105
20940SOL     OW64716  12.645  11.597  11.021
20940SOL    HW164717  12.649  11.666  11.087
20940SOL    HW264718  12.719  11.541  11.040
20941SOL     OW64719   7.625  11.354   5.216
20941SOL    HW164720   7.666  11.286   5.162
20941SOL    HW264721   7.559  11.393   5.159
20942SOL     OW64722   9.689  10.411  14.106
20942SOL    HW164723   9.724  10.494  14.139
20942SOL    HW264724   9.666  10.429  14.015
20943SOL     OW64725   5.211  13.154  12.807
20943SOL    HW164726   5.203  13.064  12.778
20943SOL    HW264727   5.180  13.153  12.898
20944SOL     OW64728   3.381   8.959  14.601
20944SOL    HW164729   3.393   8.992  14.690
20944SOL    HW264730   3.457   8.904  14.585
20945SOL     OW64731   4.583  12.921   7.684
20945SOL    HW164732   4.605  12.915   7.777
20945SOL    HW264733   4.487  12.927   7.683
20946SOL     OW64734  13.036   7.516   7.258
20946SOL    HW164735  12.951   7.527   7.216
20946SOL    HW264736  13.019   7.465   7.336
20947SOL     OW64737  12.639  14.121   6.948
20947SOL    HW164738  12.567  14.058   6.951
20947SOL    HW264739  12.668  14.119   6.857
20948SOL     OW64740   7.653   4.993   3.611
20948SOL    HW164741   7.718   5.025   3.674
20948SOL    HW264742   7.666   4.898   3.611
20949SOL     OW64743  13.136   9.153   9.403
20949SOL    HW164744  13.056   9.105   9.426
20949SOL    HW264745  13.206   9.105   9.447
20950SOL     OW64746   0.187   5.934   5.733
20950SOL    HW164747   0.098   5.905   5.755
20950SOL    HW264748   0.239   5.910   5.809
20951SOL     OW64749   2.643  10.493   6.989
20951SOL    HW164750   2.648  10.528   7.078
20951SOL    HW264751   2.734  10.490   6.959
20952SOL     OW64752   1.977  13.252   2.863
20952SOL    HW164753   1.909  13.311   2.896
20952SOL    HW264754   2.004  13.292   2.780
20953SOL     OW64755  13.180   8.835   3.099
20953SOL    HW164756  13.227   8.756   3.071
20953SOL    HW264757  13.245   8.905   3.097
20954SOL     OW64758   2.803  12.539  10.943
20954SOL    HW164759   2.750  12.472  10.985
20954SOL    HW264760   2.855  12.492  10.878
20955SOL     OW64761   1.921   1.589   3.166
20955SOL    HW164762   1.852   1.622   3.223
20955SOL    HW264763   2.001   1.596   3.218
20956SOL     OW64764   7.745   7.765   7.100
20956SOL    HW164765   7.771   7.740   7.189
20956SOL    HW264766   7.826   7.765   7.050
20957SOL     OW64767  11.487   3.950  10.714
20957SOL    HW164768  11.573   3.930  10.752
20957SOL    HW264769  11.454   4.022  10.767
20958SOL     OW64770   8.871  13.451   2.931
20958SOL    HW164771   8.878  13.416   3.020
20958SOL    HW264772   8.960  13.444   2.896
20959SOL     OW64773  12.599   2.339   6.411
20959SOL    HW164774  12.618   2.245   6.405
20959SOL    HW264775  12.527   2.345   6.473
20960SOL     OW64776   0.675  10.790   9.223
20960SOL    HW164777   0.602  10.835   9.266
20960SOL    HW264778   0.711  10.733   9.291
20961SOL     OW64779  13.890  12.442   4.870
20961SOL    HW164780  13.889  12.385   4.793
20961SOL    HW264781  13.847  12.391   4.939
20962SOL     OW64782   7.132   1.310   0.079
20962SOL    HW164783   7.040   1.322   0.103
20962SOL    HW264784   7.133   1.226   0.033
20963SOL     OW64785  14.282   5.907   5.635
20963SOL    HW164786  14.297   5.885   5.543
20963SOL    HW264787  14.191   5.936   5.638
20964SOL     OW64788   2.664  14.811   1.627
20964SOL    HW164789   2.745  14.853   1.657
20964SOL    HW264790   2.641  14.752   1.699
20965SOL     OW64791  13.213  11.788  10.481
20965SOL    HW164792  13.303  11.820  10.482
20965SOL    HW264793  13.160  11.866  10.500
20966SOL     OW64794   1.487   0.435  13.095
20966SOL    HW164795   1.480   0.520  13.052
20966SOL    HW264796   1.515   0.455  13.184
20967SOL     OW64797  12.247  14.399   3.997
20967SOL    HW164798  12.339  14.401   4.024
20967SOL    HW264799  12.217  14.490   4.006
20968SOL     OW64800  13.832   7.181   1.089
20968SOL    HW164801  13.813   7.118   1.020
20968SOL    HW264802  13.746   7.204   1.125
20969SOL     OW64803   6.760  12.371   1.310
20969SOL    HW164804   6.700  12.439   1.279
20969SOL    HW264805   6.788  12.400   1.397
20970SOL     OW64806   7.541   4.120  12.842
20970SOL    HW164807   7.553   4.207  12.878
20970SOL    HW264808   7.564   4.060  12.913
20971SOL     OW64809  13.010   7.467   1.251
20971SOL    HW164810  12.952   7.497   1.182
20971SOL    HW264811  12.978   7.511   1.330
20972SOL     OW64812   5.364   6.551  12.477
20972SOL    HW164813   5.274   6.584  12.478
20972SOL    HW264814   5.369   6.498  12.397
20973SOL     OW64815   4.194   0.509  10.934
20973SOL    HW164816   4.280   0.529  10.899
20973SOL    HW264817   4.133   0.556  10.877
20974SOL     OW64818   7.043  14.805  10.223
20974SOL    HW164819   6.989  14.864  10.170
20974SOL    HW264820   6.991  14.726  10.232
20975SOL     OW64821  13.858   1.900   5.998
20975SOL    HW164822  13.942   1.892   6.043
20975SOL    HW264823  13.830   1.809   5.982
20976SOL     OW64824   5.176  14.308   5.934
20976SOL    HW164825   5.189  14.376   5.868
20976SOL    HW264826   5.083  14.311   5.955
20977SOL     OW64827   4.568   1.313   3.351
20977SOL    HW164828   4.661   1.300   3.369
20977SOL    HW264829   4.526   1.232   3.379
20978SOL     OW64830   0.788  14.195   3.796
20978SOL    HW164831   0.744  14.110   3.802
20978SOL    HW264832   0.738  14.252   3.854
20979SOL     OW64833   3.183  10.300   6.622
20979SOL    HW164834   3.164  10.207   6.611
20979SOL    HW264835   3.098  10.343   6.611
20980SOL     OW64836   1.944   8.700   2.818
20980SOL    HW164837   1.876   8.696   2.750
20980SOL    HW264838   1.944   8.791   2.847
20981SOL     OW64839   5.871  12.396   5.380
20981SOL    HW164840   5.781  12.409   5.352
20981SOL    HW264841   5.917  12.369   5.300
20982SOL     OW64842   3.410  12.479   4.428
20982SOL    HW164843   3.389  12.552   4.371
20982SOL    HW264844   3.479  12.431   4.382
20983SOL     OW64845   7.305   5.691   3.323
20983SOL    HW164846   7.377   5.704   3.261
20983SOL    HW264847   7.294   5.596   3.328
20984SOL     OW64848  13.169   5.543   0.505
20984SOL    HW164849  13.147   5.633   0.484
20984SOL    HW264850  13.158   5.537   0.600
20985SOL     OW64851   5.804   3.111  14.074
20985SOL    HW164852   5.878   3.161  14.109
20985SOL    HW264853   5.789   3.043  14.139
20986SOL     OW64854   8.184   5.462   6.876
20986SOL    HW164855   8.105   5.483   6.826
20986SOL    HW264856   8.253   5.516   6.837
20987SOL     OW64857  14.686  11.491   2.280
20987SOL    HW164858  14.658  11.518   2.367
20987SOL    HW264859  14.621  11.529   2.221
20988SOL     OW64860   8.507   6.507   4.653
20988SOL    HW164861   8.464   6.592   4.643
20988SOL    HW264862   8.552   6.493   4.570
20989SOL     OW64863  12.610   1.021  10.515
20989SOL    HW164864  12.670   0.994  10.446
20989SOL    HW264865  12.662   1.081  10.569
20990SOL     OW64866  14.499   2.435   6.543
20990SOL    HW164867  14.564   2.505   6.541
20990SOL    HW264868  14.548   2.357   6.570
20991SOL     OW64869  11.631   4.031   5.415
20991SOL    HW164870  11.698   3.982   5.367
20991SOL    HW264871  11.551   4.018   5.364
20992SOL     OW64872   3.743   7.208   9.523
20992SOL    HW164873   3.734   7.142   9.592
20992SOL    HW264874   3.818   7.260   9.549
20993SOL     OW64875   9.272   0.428  13.212
20993SOL    HW164876   9.327   0.497  13.248
20993SOL    HW264877   9.219   0.472  13.146
20994SOL     OW64878   7.494  11.942   6.971
20994SOL    HW164879   7.572  11.887   6.970
20994SOL    HW264880   7.502  11.993   7.052
20995SOL     OW64881   5.755   5.224  11.822
20995SOL    HW164882   5.718   5.161  11.760
20995SOL    HW264883   5.680   5.256  11.873
20996SOL     OW64884  13.972   6.807   9.737
20996SOL    HW164885  13.947   6.715   9.749
20996SOL    HW264886  14.033   6.825   9.808
20997SOL     OW64887   8.786   5.631   3.296
20997SOL    HW164888   8.746   5.651   3.381
20997SOL    HW264889   8.784   5.536   3.291
20998SOL     OW64890   4.461   9.903  10.356
20998SOL    HW164891   4.473   9.926  10.264
20998SOL    HW264892   4.543   9.930  10.398
20999SOL     OW64893   2.492   2.698   4.326
20999SOL    HW164894   2.402   2.667   4.333
20999SOL    HW264895   2.501   2.761   4.397
21000SOL     OW64896  13.401  12.007   0.896
21000SOL    HW164897  13.440  12.055   0.969
21000SOL    HW264898  13.308  12.026   0.902
21001SOL     OW64899   9.333  13.950  14.816
21001SOL    HW164900   9.253  14.001  14.811
21001SOL    HW264901   9.352  13.927  14.725
21002SOL     OW64902   8.706   6.255   8.579
21002SOL    HW164903   8.777   6.229   8.520
21002SOL    HW264904   8.688   6.177   8.631
21003SOL     OW64905   2.781   5.846   1.223
21003SOL    HW164906   2.704   5.873   1.273
21003SOL    HW264907   2.749   5.776   1.166
21004SOL     OW64908  10.405  13.092  12.235
21004SOL    HW164909  10.336  13.139  12.281
21004SOL    HW264910  10.364  13.065  12.152
21005SOL     OW64911  14.387   1.756  12.530
21005SOL    HW164912  14.334   1.802  12.595
21005SOL    HW264913  14.443   1.824  12.492
21006SOL     OW64914   8.140  12.718   0.002
21006SOL    HW164915   8.156  12.795   0.056
21006SOL    HW264916   8.177  12.741  14.784
21007SOL     OW64917   1.389   7.525   9.596
21007SOL    HW164918   1.462   7.544   9.655
21007SOL    HW264919   1.394   7.430   9.582
21008SOL     OW64920  12.160   1.635   1.011
21008SOL    HW164921  12.199   1.606   0.928
21008SOL    HW264922  12.068   1.649   0.990
21009SOL     OW64923   6.402   8.724  14.656
21009SOL    HW164924   6.451   8.726  14.739
21009SOL    HW264925   6.353   8.806  14.655
21010SOL     OW64926  13.574   3.308  13.877
21010SOL    HW164927  13.591   3.218  13.850
21010SOL    HW264928  13.581   3.359  13.796
21011SOL     OW64929   9.386  13.211  11.906
21011SOL    HW164930   9.373  13.190  11.813
21011SOL    HW264931   9.319  13.160  11.952
21012SOL     OW64932   8.979  12.768   6.102
21012SOL    HW164933   8.980  12.733   6.191
21012SOL    HW264934   8.963  12.692   6.047
21013SOL     OW64935  11.261   2.574   4.076
21013SOL    HW164936  11.346   2.532   4.059
21013SOL    HW264937  11.213   2.510   4.128
21014SOL     OW64938  11.171   7.363   3.176
21014SOL    HW164939  11.097   7.337   3.121
21014SOL    HW264940  11.248   7.343   3.123
21015SOL     OW64941   7.184   4.582   2.263
21015SOL    HW164942   7.229   4.570   2.347
21015SOL    HW264943   7.131   4.503   2.253
21016SOL     OW64944   9.519  12.388   9.900
21016SOL    HW164945   9.436  12.344   9.884
21016SOL    HW264946   9.585  12.327   9.868
21017SOL     OW64947  13.537  12.182  14.001
21017SOL    HW164948  13.494  12.096  14.001
21017SOL    HW264949  13.626  12.164  14.030
21018SOL     OW64950  13.544   4.014   3.128
21018SOL    HW164951  13.560   4.061   3.047
21018SOL    HW264952  13.479   4.067   3.174
21019SOL     OW64953  12.842  14.397  14.361
21019SOL    HW164954  12.937  14.391  14.351
21019SOL    HW264955  12.807  14.325  14.309
21020SOL     OW64956  10.433   2.107   7.542
21020SOL    HW164957  10.488   2.033   7.518
21020SOL    HW264958  10.367   2.112   7.472
21021SOL     OW64959   2.948  14.650  12.767
21021SOL    HW164960   3.002  14.680  12.840
21021SOL    HW264961   2.882  14.718  12.757
21022SOL     OW64962  11.154  13.443   9.147
21022SOL    HW164963  11.221  13.491   9.098
21022SOL    HW264964  11.088  13.420   9.082
21023SOL     OW64965   0.026   6.624  14.055
21023SOL    HW164966   0.073   6.705  14.033
21023SOL    HW264967  14.807   6.635  14.017
21024SOL     OW64968   5.308   3.406   9.326
21024SOL    HW164969   5.261   3.489   9.316
21024SOL    HW264970   5.339   3.385   9.238
21025SOL     OW64971   4.551   8.501   2.318
21025SOL    HW164972   4.468   8.456   2.335
21025SOL    HW264973   4.591   8.453   2.245
21026SOL     OW64974   9.535   5.439   1.209
21026SOL    HW164975   9.495   5.352   1.200
21026SOL    HW264976   9.570   5.440   1.298
21027SOL     OW64977  10.440   4.512   2.589
21027SOL    HW164978  10.494   4.456   2.645
21027SOL    HW264979  10.354   4.471   2.590
21028SOL     OW64980   6.885  11.161   6.540
21028SOL    HW164981   6.796  11.196   6.532
21028SOL    HW264982   6.916  11.155   6.449
21029SOL     OW64983   5.155   6.336   2.013
21029SOL    HW164984   5.076   6.385   1.991
21029SOL    HW264985   5.133   6.290   2.094
21030SOL     OW64986   3.546  14.320   4.266
21030SOL    HW164987   3.514  14.255   4.329
21030SOL    HW264988   3.484  14.317   4.194
21031SOL     OW64989   3.465   7.804   5.965
21031SOL    HW164990   3.561   7.795   5.966
21031SOL    HW264991   3.442   7.824   6.056
21032SOL     OW64992   7.093   8.361   5.033
21032SOL    HW164993   7.078   8.444   5.078
21032SOL    HW264994   7.030   8.362   4.961
21033SOL     OW64995   7.588  14.239   6.256
21033SOL    HW164996   7.682  14.239   6.276
21033SOL    HW264997   7.570  14.328   6.225
21034SOL     OW64998   7.333  14.528   8.252
21034SOL    HW164999   7.424  14.553   8.263
21034SOL    HW265000   7.336  14.435   8.230
21035SOL     OW65001  10.537   6.819  12.917
21035SOL    HW165002  10.549   6.864  12.834
21035SOL    HW265003  10.449   6.845  12.946
21036SOL     OW65004  13.184   5.769   9.324
21036SOL    HW165005  13.163   5.849   9.372
21036SOL    HW265006  13.216   5.708   9.390
21037SOL     OW65007   3.810  11.936   2.667
21037SOL    HW165008   3.824  11.909   2.576
21037SOL    HW265009   3.722  11.904   2.688
21038SOL     OW65010   0.855  13.080  12.160
21038SOL    HW165011   0.779  13.029  12.132
21038SOL    HW265012   0.927  13.017  12.159
21039SOL     OW65013  12.587   0.158   8.524
21039SOL    HW165014  12.606   0.078   8.474
21039SOL    HW265015  12.655   0.160   8.591
21040SOL     OW65016   6.716   3.951  13.625
21040SOL    HW165017   6.744   4.016  13.561
21040SOL    HW265018   6.796   3.905  13.650
21041SOL     OW65019  12.128   1.623   8.345
21041SOL    HW165020  12.211   1.602   8.387
21041SOL    HW265021  12.149   1.688   8.279
21042SOL     OW65022   1.212  14.174   1.316
21042SOL    HW165023   1.166  14.256   1.331
21042SOL    HW265024   1.229  14.138   1.403
21043SOL     OW65025   6.461   9.759   1.217
21043SOL    HW165026   6.550   9.746   1.249
21043SOL    HW265027   6.467   9.837   1.162
21044SOL     OW65028  14.364   9.718  10.902
21044SOL    HW165029  14.402   9.777  10.967
21044SOL    HW265030  14.303   9.664  10.951
21045SOL     OW65031   5.400  14.815   2.559
21045SOL    HW165032   5.349  14.829   2.480
21045SOL    HW265033   5.477   0.003   2.549
21046SOL     OW65034  13.319  12.804   0.391
21046SOL    HW165035  13.299  12.898   0.395
21046SOL    HW265036  13.357  12.784   0.476
21047SOL     OW65037  11.547   1.202   1.167
21047SOL    HW165038  11.453   1.210   1.153
21047SOL    HW265039  11.586   1.253   1.096
21048SOL     OW65040   6.650   4.405   0.229
21048SOL    HW165041   6.565   4.362   0.221
21048SOL    HW265042   6.712   4.334   0.239
21049SOL     OW65043  10.244   9.873  10.909
21049SOL    HW165044  10.234   9.784  10.873
21049SOL    HW265045  10.283   9.859  10.995
21050SOL     OW65046   6.495   7.683  14.237
21050SOL    HW165047   6.474   7.631  14.159
21050SOL    HW265048   6.587   7.707  14.226
21051SOL     OW65049   8.735  13.325   3.363
21051SOL    HW165050   8.787  13.301   3.287
21051SOL    HW265051   8.694  13.242   3.391
21052SOL     OW65052  14.249   2.072   6.383
21052SOL    HW165053  14.277   1.984   6.407
21052SOL    HW265054  14.166   2.059   6.337
21053SOL     OW65055   2.273  10.338   8.524
21053SOL    HW165056   2.243  10.267   8.579
21053SOL    HW265057   2.290  10.297   8.439
21054SOL     OW65058   6.547  10.565  14.428
21054SOL    HW165059   6.572  10.562  14.335
21054SOL    HW265060   6.619  10.611  14.471
21055SOL     OW65061   5.683   5.827  14.159
21055SOL    HW165062   5.595   5.863  14.144
21055SOL    HW265063   5.683   5.744  14.110
21056SOL     OW65064  10.900   7.722   1.438
21056SOL    HW165065  10.980   7.691   1.396
21056SOL    HW265066  10.919   7.813   1.460
21057SOL     OW65067   0.347   1.925   5.006
21057SOL    HW165068   0.433   1.963   5.024
21057SOL    HW265069   0.363   1.859   4.939
21058SOL     OW65070   2.553  14.848  13.760
21058SOL    HW165071   2.461  14.849  13.734
21058SOL    HW265072   2.550  14.844  13.856
21059SOL     OW65073   4.711  12.706   5.495
21059SOL    HW165074   4.771  12.639   5.461
21059SOL    HW265075   4.626  12.661   5.501
21060SOL     OW65076  10.813   6.397  11.486
21060SOL    HW165077  10.817   6.452  11.564
21060SOL    HW265078  10.807   6.459  11.413
21061SOL     OW65079   6.015   4.576   4.801
21061SOL    HW165080   6.041   4.626   4.724
21061SOL    HW265081   6.027   4.636   4.874
21062SOL     OW65082   9.372  14.291  11.335
21062SOL    HW165083   9.395  14.301  11.427
21062SOL    HW265084   9.441  14.339  11.288
21063SOL     OW65085  12.802   3.604   0.627
21063SOL    HW165086  12.816   3.547   0.703
21063SOL    HW265087  12.810   3.693   0.662
21064SOL     OW65088   6.744  12.628  12.258
21064SOL    HW165089   6.671  12.596  12.206
21064SOL    HW265090   6.806  12.554  12.260
21065SOL     OW65091  12.423   2.665  13.752
21065SOL    HW165092  12.387   2.652  13.664
21065SOL    HW265093  12.362   2.621  13.810
21066SOL     OW65094   1.155   6.379  14.595
21066SOL    HW165095   1.151   6.442  14.523
21066SOL    HW265096   1.180   6.297  14.554
21067SOL     OW65097   9.175  11.094  14.645
21067SOL    HW165098   9.126  11.039  14.584
21067SOL    HW265099   9.263  11.054  14.647
21068SOL     OW65100   1.139   5.812  14.615
21068SOL    HW165101   1.181   5.754  14.679
21068SOL    HW265102   1.086   5.871  14.668
21069SOL     OW65103  11.665   5.870   9.164
21069SOL    HW165104  11.628   5.837   9.082
21069SOL    HW265105  11.662   5.794   9.223
21070SOL     OW65106  13.252  12.658   3.734
21070SOL    HW165107  13.176  12.648   3.677
21070SOL    HW265108  13.316  12.705   3.681
21071SOL     OW65109   8.598   0.915   7.978
21071SOL    HW165110   8.608   0.860   7.900
21071SOL    HW265111   8.628   1.001   7.951
21072SOL     OW65112   0.444   2.351  13.790
21072SOL    HW165113   0.403   2.283  13.738
21072SOL    HW265114   0.377   2.419  13.799
21073SOL     OW65115  13.105   3.705   1.677
21073SOL    HW165116  13.010   3.710   1.688
21073SOL    HW265117  13.117   3.676   1.587
21074SOL     OW65118  10.026  14.414  13.313
21074SOL    HW165119  10.055  14.493  13.358
21074SOL    HW265120   9.973  14.446  13.240
21075SOL     OW65121   3.804  13.386   8.193
21075SOL    HW165122   3.765  13.319   8.137
21075SOL    HW265123   3.745  13.461   8.185
21076SOL     OW65124   1.255   7.860   4.805
21076SOL    HW165125   1.289   7.914   4.733
21076SOL    HW265126   1.290   7.900   4.884
21077SOL     OW65127  10.097   1.838   2.400
21077SOL    HW165128  10.075   1.777   2.470
21077SOL    HW265129  10.193   1.835   2.395
21078SOL     OW65130   0.942   9.426   2.169
21078SOL    HW165131   0.904   9.491   2.110
21078SOL    HW265132   1.008   9.381   2.116
21079SOL     OW65133  12.300  10.470   8.207
21079SOL    HW165134  12.372  10.412   8.231
21079SOL    HW265135  12.275  10.513   8.289
21080SOL     OW65136  10.552   7.216   4.709
21080SOL    HW165137  10.464   7.191   4.736
21080SOL    HW265138  10.607   7.141   4.733
21081SOL     OW65139   9.090   9.829  14.040
21081SOL    HW165140   9.167   9.844  14.095
21081SOL    HW265141   9.120   9.848  13.951
21082SOL     OW65142   1.842   0.615   8.845
21082SOL    HW165143   1.870   0.706   8.835
21082SOL    HW265144   1.898   0.580   8.914
21083SOL     OW65145   5.417   6.856  10.958
21083SOL    HW165146   5.403   6.830  10.867
21083SOL    HW265147   5.511   6.847  10.972
21084SOL     OW65148   5.324   9.456   1.968
21084SOL    HW165149   5.300   9.534   2.019
21084SOL    HW265150   5.245   9.436   1.917
21085SOL     OW65151   7.494   5.321   6.327
21085SOL    HW165152   7.551   5.396   6.348
21085SOL    HW265153   7.549   5.245   6.344
21086SOL     OW65154  11.885   8.220  12.289
21086SOL    HW165155  11.890   8.302  12.239
21086SOL    HW265156  11.848   8.246  12.373
21087SOL     OW65157   1.501   3.316   5.436
21087SOL    HW165158   1.549   3.354   5.363
21087SOL    HW265159   1.557   3.330   5.512
21088SOL     OW65160   2.445   3.762   5.020
21088SOL    HW165161   2.385   3.702   5.063
21088SOL    HW265162   2.513   3.781   5.085
21089SOL     OW65163  11.887   4.771  12.983
21089SOL    HW165164  11.959   4.830  12.961
21089SOL    HW265165  11.920   4.684  12.960
21090SOL     OW65166   1.582   7.631  11.659
21090SOL    HW165167   1.609   7.569  11.726
21090SOL    HW265168   1.580   7.580  11.578
21091SOL     OW65169   5.855   0.045  12.818
21091SOL    HW165170   5.896   0.084  12.895
21091SOL    HW265171   5.881  14.821  12.822
21092SOL     OW65172   4.663  12.636   6.436
21092SOL    HW165173   4.617  12.611   6.356
21092SOL    HW265174   4.627  12.577   6.503
21093SOL     OW65175   7.583   5.572  12.672
21093SOL    HW165176   7.544   5.532  12.749
21093SOL    HW265177   7.622   5.653  12.704
21094SOL     OW65178   6.253  11.702   5.278
21094SOL    HW165179   6.212  11.634   5.225
21094SOL    HW265180   6.211  11.694   5.364
21095SOL     OW65181   0.946   9.150   8.763
21095SOL    HW165182   1.034   9.143   8.800
21095SOL    HW265183   0.948   9.094   8.685
21096SOL     OW65184   1.564  13.315   0.799
21096SOL    HW165185   1.607  13.393   0.765
21096SOL    HW265186   1.622  13.243   0.775
21097SOL     OW65187  12.740   3.745   0.210
21097SOL    HW165188  12.754   3.656   0.179
21097SOL    HW265189  12.647   3.748   0.234
21098SOL     OW65190   5.848  11.716   2.292
21098SOL    HW165191   5.834  11.777   2.365
21098SOL    HW265192   5.935  11.737   2.259
21099SOL     OW65193   9.195   9.573   4.853
21099SOL    HW165194   9.125   9.601   4.912
21099SOL    HW265195   9.191   9.477   4.855
21100SOL     OW65196  10.134   0.872   5.573
21100SOL    HW165197  10.168   0.940   5.631
21100SOL    HW265198  10.209   0.847   5.518
21101SOL     OW65199   6.065   2.442  13.359
21101SOL    HW165200   5.984   2.417  13.404
21101SOL    HW265201   6.088   2.526  13.397
21102SOL     OW65202   0.354  11.534   3.785
21102SOL    HW165203   0.346  11.456   3.839
21102SOL    HW265204   0.274  11.535   3.732
21103SOL     OW65205   0.495  10.168   7.574
21103SOL    HW165206   0.483  10.202   7.663
21103SOL    HW265207   0.533  10.081   7.587
21104SOL     OW65208   7.039   3.368   3.244
21104SOL    HW165209   7.113   3.308   3.253
21104SOL    HW265210   6.975   3.337   3.309
21105SOL     OW65211   6.857  14.167   1.614
21105SOL    HW165212   6.789  14.157   1.549
21105SOL    HW265213   6.904  14.084   1.613
21106SOL     OW65214   9.290   7.569  10.854
21106SOL    HW165215   9.200   7.560  10.823
21106SOL    HW265216   9.286   7.636  10.922
21107SOL     OW65217   8.551   8.178  10.705
21107SOL    HW165218   8.534   8.266  10.740
21107SOL    HW265219   8.528   8.119  10.776
21108SOL     OW65220   4.943   5.165  13.010
21108SOL    HW165221   4.945   5.242  13.067
21108SOL    HW265222   5.000   5.188  12.937
21109SOL     OW65223   6.883  12.292   3.599
21109SOL    HW165224   6.968  12.248   3.589
21109SOL    HW265225   6.899  12.358   3.667
21110SOL     OW65226   3.308  13.805   3.618
21110SOL    HW165227   3.261  13.826   3.699
21110SOL    HW265228   3.400  13.813   3.641
21111SOL     OW65229   1.667   7.721   5.640
21111SOL    HW165230   1.716   7.639   5.639
21111SOL    HW265231   1.642   7.735   5.549
21112SOL     OW65232  14.279   7.669   5.668
21112SOL    HW165233  14.313   7.749   5.707
21112SOL    HW265234  14.350   7.606   5.675
21113SOL     OW65235   7.821  11.741   3.541
21113SOL    HW165236   7.766  11.746   3.464
21113SOL    HW265237   7.898  11.691   3.513
21114SOL     OW65238  12.319  14.013   7.696
21114SOL    HW165239  12.227  13.989   7.700
21114SOL    HW265240  12.319  14.103   7.661
21115SOL     OW65241   2.829   6.781  14.121
21115SOL    HW165242   2.750   6.799  14.070
21115SOL    HW265243   2.817   6.832  14.201
21116SOL     OW65244   6.295   3.202   6.364
21116SOL    HW165245   6.211   3.167   6.396
21116SOL    HW265246   6.343   3.124   6.335
21117SOL     OW65247   0.677   7.835  12.168
21117SOL    HW165248   0.725   7.825  12.250
21117SOL    HW265249   0.606   7.771  12.174
21118SOL     OW65250  13.892  13.364  10.016
21118SOL    HW165251  13.966  13.320  10.059
21118SOL    HW265252  13.815  13.331  10.062
21119SOL     OW65253   5.912   7.663   2.617
21119SOL    HW165254   5.836   7.708   2.581
21119SOL    HW265255   5.925   7.588   2.559
21120SOL     OW65256   2.455  10.190   4.574
21120SOL    HW165257   2.488  10.200   4.485
21120SOL    HW265258   2.389  10.120   4.567
21121SOL     OW65259  12.344   8.264   4.860
21121SOL    HW165260  12.284   8.310   4.918
21121SOL    HW265261  12.340   8.173   4.888
21122SOL     OW65262  12.137   2.134   5.808
21122SOL    HW165263  12.144   2.186   5.728
21122SOL    HW265264  12.094   2.192   5.871
21123SOL     OW65265  11.549   5.228   8.899
21123SOL    HW165266  11.482   5.215   8.832
21123SOL    HW265267  11.525   5.166   8.968
21124SOL     OW65268   4.309  10.794  12.388
21124SOL    HW165269   4.360  10.779  12.467
21124SOL    HW265270   4.295  10.707  12.351
21125SOL     OW65271   9.590   2.854   8.741
21125SOL    HW165272   9.556   2.777   8.697
21125SOL    HW265273   9.682   2.833   8.758
21126SOL     OW65274   8.766   9.833   4.160
21126SOL    HW165275   8.726   9.746   4.159
21126SOL    HW265276   8.701   9.888   4.204
21127SOL     OW65277   0.856   0.012   3.647
21127SOL    HW165278   0.886   0.092   3.604
21127SOL    HW265279   0.778  14.854   3.598
21128SOL     OW65280   4.238   8.059   0.675
21128SOL    HW165281   4.205   8.043   0.764
21128SOL    HW265282   4.206   7.985   0.624
21129SOL     OW65283   0.270   6.797  11.924
21129SOL    HW165284   0.253   6.793  12.018
21129SOL    HW265285   0.258   6.707  11.893
21130SOL     OW65286   4.484   6.796   1.702
21130SOL    HW165287   4.428   6.719   1.709
21130SOL    HW265288   4.550   6.785   1.771
21131SOL     OW65289   6.722   8.975   3.004
21131SOL    HW165290   6.784   8.975   3.076
21131SOL    HW265291   6.637   8.958   3.045
21132SOL     OW65292  14.587   9.452  11.785
21132SOL    HW165293  14.491   9.445  11.784
21132SOL    HW265294  14.617   9.364  11.763
21133SOL     OW65295   0.222   2.146   8.203
21133SOL    HW165296   0.249   2.062   8.240
21133SOL    HW265297   0.155   2.178   8.262
21134SOL     OW65298  10.873   9.062   6.753
21134SOL    HW165299  10.890   8.980   6.706
21134SOL    HW265300  10.778   9.064   6.767
21135SOL     OW65301  10.177   1.792   7.194
21135SOL    HW165302  10.159   1.791   7.100
21135SOL    HW265303  10.099   1.756   7.235
21136SOL     OW65304   2.847  12.510  12.267
21136SOL    HW165305   2.763  12.483  12.232
21136SOL    HW265306   2.843  12.605  12.271
21137SOL     OW65307  10.717   5.787  14.044
21137SOL    HW165308  10.732   5.694  14.028
21137SOL    HW265309  10.765   5.806  14.125
21138SOL     OW65310   2.000  13.489  12.476
21138SOL    HW165311   2.005  13.581  12.501
21138SOL    HW265312   1.912  13.461  12.502
21139SOL     OW65313  13.524  14.866  10.952
21139SOL    HW165314  13.567  14.797  11.003
21139SOL    HW265315  13.549  14.849  10.861
21140SOL     OW65316  11.286  12.843  11.218
21140SOL    HW165317  11.338  12.781  11.167
21140SOL    HW265318  11.319  12.833  11.308
21141SOL     OW65319   8.504  14.632   0.545
21141SOL    HW165320   8.477  14.604   0.457
21141SOL    HW265321   8.556  14.559   0.578
21142SOL     OW65322   1.553  10.220  11.095
21142SOL    HW165323   1.511  10.144  11.055
21142SOL    HW265324   1.538  10.210  11.189
21143SOL     OW65325  12.555   7.655   5.160
21143SOL    HW165326  12.524   7.702   5.238
21143SOL    HW265327  12.524   7.708   5.087
21144SOL     OW65328   2.991   6.435  12.464
21144SOL    HW165329   3.074   6.464  12.502
21144SOL    HW265330   3.003   6.443  12.369
21145SOL     OW65331   0.823   8.955   0.363
21145SOL    HW165332   0.836   9.029   0.303
21145SOL    HW265333   0.741   8.975   0.409
21146SOL     OW65334   8.433   5.179   3.646
21146SOL    HW165335   8.363   5.123   3.680
21146SOL    HW265336   8.502   5.173   3.711
21147SOL     OW65337   5.025   4.116  10.220
21147SOL    HW165338   5.075   4.035  10.219
21147SOL    HW265339   5.064   4.167  10.291
21148SOL     OW65340   2.176   6.552   7.461
21148SOL    HW165341   2.106   6.577   7.521
21148SOL    HW265342   2.138   6.484   7.406
21149SOL     OW65343  14.817   4.628   5.702
21149SOL    HW165344   0.002   4.594   5.774
21149SOL    HW265345  14.761   4.555   5.678
21150SOL     OW65346  13.525   7.056  11.178
21150SOL    HW165347  13.558   7.072  11.090
21150SOL    HW265348  13.460   6.987  11.167
21151SOL     OW65349   0.953  13.486   6.474
21151SOL    HW165350   1.028  13.429   6.456
21151SOL    HW265351   0.877  13.429   6.464
21152SOL     OW65352  12.487  12.039   1.848
21152SOL    HW165353  12.527  11.967   1.897
21152SOL    HW265354  12.536  12.043   1.766
21153SOL     OW65355  13.745  10.144   4.864
21153SOL    HW165356  13.706  10.229   4.843
21153SOL    HW265357  13.799  10.161   4.942
21154SOL     OW65358   3.548  12.876  12.564
21154SOL    HW165359   3.483  12.881  12.494
21154SOL    HW265360   3.592  12.792  12.550
21155SOL     OW65361   1.868   0.046   5.038
21155SOL    HW165362   1.870  14.818   5.036
21155SOL    HW265363   1.953   0.071   5.074
21156SOL     OW65364   6.258   6.186   9.777
21156SOL    HW165365   6.336   6.240   9.763
21156SOL    HW265366   6.247   6.183   9.872
21157SOL     OW65367   4.703   9.019   0.968
21157SOL    HW165368   4.749   9.059   0.895
21157SOL    HW265369   4.743   9.059   1.046
21158SOL     OW65370   4.346  11.502   9.269
21158SOL    HW165371   4.405  11.428   9.284
21158SOL    HW265372   4.259  11.467   9.291
21159SOL     OW65373   0.512  10.108   0.587
21159SOL    HW165374   0.522  10.082   0.679
21159SOL    HW265375   0.475  10.031   0.545
21160SOL     OW65376   2.215   2.325  10.355
21160SOL    HW165377   2.309   2.333  10.343
21160SOL    HW265378   2.200   2.233  10.376
21161SOL     OW65379   1.055   8.666   3.050
21161SOL    HW165380   1.017   8.592   3.096
21161SOL    HW265381   0.981   8.725   3.033
21162SOL     OW65382  10.250  11.010   0.841
21162SOL    HW165383  10.179  11.068   0.868
21162SOL    HW265384  10.299  10.993   0.922
21163SOL     OW65385   3.524   8.024   8.139
21163SOL    HW165386   3.569   7.962   8.197
21163SOL    HW265387   3.525   7.981   8.053
21164SOL     OW65388   1.248  12.844   0.131
21164SOL    HW165389   1.278  12.927   0.092
21164SOL    HW265390   1.172  12.869   0.183
21165SOL     OW65391  13.967   8.616  10.250
21165SOL    HW165392  14.010   8.591  10.168
21165SOL    HW265393  14.034   8.603  10.317
21166SOL     OW65394  10.022   6.870   0.445
21166SOL    HW165395  10.071   6.872   0.363
21166SOL    HW265396  10.061   6.940   0.498
21167SOL     OW65397   5.779   4.789   3.449
21167SOL    HW165398   5.699   4.746   3.421
21167SOL    HW265399   5.849   4.740   3.407
21168SOL     OW65400   1.565  13.923   3.039
21168SOL    HW165401   1.509  13.855   3.002
21168SOL    HW265402   1.516  14.004   3.025
21169SOL     OW65403   9.872  10.803   1.638
21169SOL    HW165404   9.837  10.878   1.685
21169SOL    HW265405   9.966  10.821   1.630
21170SOL     OW65406   1.865  11.354   9.754
21170SOL    HW165407   1.782  11.402   9.754
21170SOL    HW265408   1.930  11.419   9.726
21171SOL     OW65409  12.118   8.202   7.846
21171SOL    HW165410  12.050   8.145   7.882
21171SOL    HW265411  12.166   8.234   7.923
21172SOL     OW65412  14.597   4.695  12.565
21172SOL    HW165413  14.630   4.608  12.541
21172SOL    HW265414  14.542   4.720  12.490
21173SOL     OW65415  14.245   2.036  12.418
21173SOL    HW165416  14.219   1.961  12.363
21173SOL    HW265417  14.338   2.048  12.398
21174SOL     OW65418   8.242  12.316   5.673
21174SOL    HW165419   8.263  12.230   5.635
21174SOL    HW265420   8.146  12.322   5.666
21175SOL     OW65421  11.641  13.368  11.471
21175SOL    HW165422  11.710  13.322  11.517
21175SOL    HW265423  11.562  13.317  11.488
21176SOL     OW65424   9.649  14.284   8.607
21176SOL    HW165425   9.574  14.284   8.667
21176SOL    HW265426   9.694  14.201   8.626
21177SOL     OW65427  12.742  12.304   9.819
21177SOL    HW165428  12.716  12.241   9.885
21177SOL    HW265429  12.828  12.335   9.847
21178SOL     OW65430   7.195   2.648  11.477
21178SOL    HW165431   7.285   2.674  11.460
21178SOL    HW265432   7.199   2.597  11.558
21179SOL     OW65433  11.002   5.140   8.070
21179SOL    HW165434  11.005   5.213   8.007
21179SOL    HW265435  11.067   5.163   8.136
21180SOL     OW65436  14.434   2.819   8.998
21180SOL    HW165437  14.368   2.766   8.954
21180SOL    HW265438  14.516   2.801   8.951
21181SOL     OW65439   2.977   1.817   8.678
21181SOL    HW165440   2.925   1.737   8.673
21181SOL    HW265441   2.922   1.885   8.641
21182SOL     OW65442   5.242   2.824   8.373
21182SOL    HW165443   5.320   2.862   8.331
21182SOL    HW265444   5.230   2.875   8.453
21183SOL     OW65445   0.357   9.694   9.167
21183SOL    HW165446   0.405   9.743   9.100
21183SOL    HW265447   0.390   9.605   9.160
21184SOL     OW65448   3.267   3.273  14.228
21184SOL    HW165449   3.288   3.359  14.191
21184SOL    HW265450   3.220   3.227  14.159
21185SOL     OW65451  13.991   3.069   4.792
21185SOL    HW165452  13.905   3.081   4.751
21185SOL    HW265453  14.028   3.157   4.797
21186SOL     OW65454   7.275   2.914  12.664
21186SOL    HW165455   7.293   3.005  12.640
21186SOL    HW265456   7.352   2.887  12.713
21187SOL     OW65457   4.874   2.998  11.922
21187SOL    HW165458   4.837   2.991  11.835
21187SOL    HW265459   4.817   2.944  11.977
21188SOL     OW65460  14.196   6.870   1.032
21188SOL    HW165461  14.176   6.824   0.951
21188SOL    HW265462  14.145   6.826   1.099
21189SOL     OW65463   3.985   2.122   7.535
21189SOL    HW165464   3.968   2.216   7.535
21189SOL    HW265465   4.061   2.111   7.592
21190SOL     OW65466   2.119   1.081  11.782
21190SOL    HW165467   2.053   1.035  11.731
21190SOL    HW265468   2.116   1.039  11.868
21191SOL     OW65469  10.348   6.273  10.466
21191SOL    HW165470  10.279   6.256  10.402
21191SOL    HW265471  10.421   6.306  10.413
21192SOL     OW65472  10.189  12.336  14.195
21192SOL    HW165473  10.209  12.314  14.104
21192SOL    HW265474  10.119  12.401  14.189
21193SOL     OW65475  11.836   2.791   0.676
21193SOL    HW165476  11.867   2.868   0.628
21193SOL    HW265477  11.910   2.730   0.675
21194SOL     OW65478   6.195   0.205   9.153
21194SOL    HW165479   6.130   0.210   9.224
21194SOL    HW265480   6.277   0.183   9.198
21195SOL     OW65481   5.251  13.069   1.603
21195SOL    HW165482   5.274  13.065   1.510
21195SOL    HW265483   5.324  13.116   1.643
21196SOL     OW65484   0.591   8.591   8.176
21196SOL    HW165485   0.548   8.583   8.261
21196SOL    HW265486   0.521   8.621   8.117
21197SOL     OW65487  12.296   2.547  14.161
21197SOL    HW165488  12.220   2.546  14.220
21197SOL    HW265489  12.335   2.634  14.174
21198SOL     OW65490   6.717   1.342  10.171
21198SOL    HW165491   6.652   1.324  10.238
21198SOL    HW265492   6.675   1.408  10.115
21199SOL     OW65493   8.624   2.110   4.855
21199SOL    HW165494   8.606   2.037   4.915
21199SOL    HW265495   8.575   2.088   4.776
21200SOL     OW65496  13.670   9.905  14.243
21200SOL    HW165497  13.747   9.947  14.282
21200SOL    HW265498  13.600   9.922  14.305
21201SOL     OW65499   4.648   9.968  11.823
21201SOL    HW165500   4.584   9.904  11.794
21201SOL    HW265501   4.732   9.935  11.790
21202SOL     OW65502  12.516  14.230   2.197
21202SOL    HW165503  12.504  14.287   2.273
21202SOL    HW265504  12.606  14.248   2.169
21203SOL     OW65505   9.420   5.553   6.436
21203SOL    HW165506   9.345   5.495   6.441
21203SOL    HW265507   9.390   5.635   6.473
21204SOL     OW65508   5.899   3.368  10.368
21204SOL    HW165509   5.900   3.446  10.313
21204SOL    HW265510   5.921   3.400  10.456
21205SOL     OW65511  10.840  12.126   8.993
21205SOL    HW165512  10.888  12.175   8.926
21205SOL    HW265513  10.895  12.050   9.011
21206SOL     OW65514   0.366   1.051   0.676
21206SOL    HW165515   0.409   0.978   0.721
21206SOL    HW265516   0.404   1.051   0.588
21207SOL     OW65517   0.589   8.961   5.326
21207SOL    HW165518   0.515   8.969   5.385
21207SOL    HW265519   0.552   8.978   5.239
21208SOL     OW65520   1.335   1.993   2.433
21208SOL    HW165521   1.249   2.026   2.407
21208SOL    HW265522   1.327   1.898   2.428
21209SOL     OW65523  13.742   1.774   6.856
21209SOL    HW165524  13.792   1.844   6.897
21209SOL    HW265525  13.663   1.818   6.822
21210SOL     OW65526  12.984  12.127  13.094
21210SOL    HW165527  13.053  12.062  13.084
21210SOL    HW265528  12.915  12.082  13.143
21211SOL     OW65529  13.825  11.561   9.171
21211SOL    HW165530  13.874  11.595   9.096
21211SOL    HW265531  13.806  11.639   9.224
21212SOL     OW65532  12.913   5.986   1.311
21212SOL    HW165533  12.964   5.916   1.352
21212SOL    HW265534  12.859   5.941   1.246
21213SOL     OW65535   0.083  12.050  11.458
21213SOL    HW165536  14.859  12.044  11.487
21213SOL    HW265537   0.084  12.124  11.397
21214SOL     OW65538   6.581   6.460   7.234
21214SOL    HW165539   6.551   6.423   7.317
21214SOL    HW265540   6.610   6.549   7.256
21215SOL     OW65541   5.453   8.602  11.546
21215SOL    HW165542   5.529   8.589  11.602
21215SOL    HW265543   5.390   8.647  11.601
21216SOL     OW65544  12.182  13.479  10.448
21216SOL    HW165545  12.151  13.570  10.447
21216SOL    HW265546  12.119  13.432  10.393
21217SOL     OW65547  10.143   2.506   7.264
21217SOL    HW165548  10.170   2.545   7.180
21217SOL    HW265549  10.189   2.558   7.330
21218SOL     OW65550  10.626   7.367   6.335
21218SOL    HW165551  10.681   7.440   6.307
21218SOL    HW265552  10.551   7.409   6.378
21219SOL     OW65553  12.558   2.236   7.093
21219SOL    HW165554  12.590   2.323   7.068
21219SOL    HW265555  12.577   2.181   7.017
21220SOL     OW65556  11.502   2.503   9.023
21220SOL    HW165557  11.472   2.431   8.968
21220SOL    HW265558  11.597   2.508   9.008
21221SOL     OW65559  10.779   0.990  14.772
21221SOL    HW165560  10.720   1.008  14.698
21221SOL    HW265561  10.845   1.059  14.766
21222SOL     OW65562   3.418   6.283  14.807
21222SOL    HW165563   3.472   6.329  14.741
21222SOL    HW265564   3.480   6.257   0.006
21223SOL     OW65565   1.484   2.331   9.432
21223SOL    HW165566   1.395   2.351   9.462
21223SOL    HW265567   1.522   2.417   9.412
21224SOL     OW65568  10.914   0.155  10.644
21224SOL    HW165569  10.987   0.096  10.627
21224SOL    HW265570  10.889   0.189  10.558
21225SOL     OW65571   0.049   4.653   9.871
21225SOL    HW165572   0.111   4.588   9.907
21225SOL    HW265573  14.844   4.653   9.934
21226SOL     OW65574   0.466   4.450   2.286
21226SOL    HW165575   0.515   4.498   2.220
21226SOL    HW265576   0.417   4.385   2.236
21227SOL     OW65577  13.843   7.190  14.840
21227SOL    HW165578  13.807   7.145   0.048
21227SOL    HW265579  13.937   7.175  14.845
21228SOL     OW65580  12.690   6.812   5.052
21228SOL    HW165581  12.646   6.761   5.120
21228SOL    HW265582  12.624   6.824   4.985
21229SOL     OW65583  10.020   7.654   1.694
21229SOL    HW165584  10.089   7.689   1.750
21229SOL    HW265585   9.965   7.603   1.753
21230SOL     OW65586   5.831   1.737   0.108
21230SOL    HW165587   5.892   1.775   0.045
21230SOL    HW265588   5.767   1.807   0.125
21231SOL     OW65589  12.023  12.406   3.775
21231SOL    HW165590  11.947  12.460   3.797
21231SOL    HW265591  12.096  12.448   3.820
21232SOL     OW65592   0.962   4.914  11.913
21232SOL    HW165593   0.886   4.890  11.860
21232SOL    HW265594   0.935   4.993  11.959
21233SOL     OW65595  10.562   8.792   4.648
21233SOL    HW165596  10.563   8.820   4.557
21233SOL    HW265597  10.482   8.740   4.657
21234SOL     OW65598   0.333   3.226   1.171
21234SOL    HW165599   0.309   3.313   1.137
21234SOL    HW265600   0.426   3.234   1.191
21235SOL     OW65601   0.532   7.457   9.759
21235SOL    HW165602   0.474   7.528   9.731
21235SOL    HW265603   0.615   7.500   9.779
21236SOL     OW65604   6.564   5.364   3.499
21236SOL    HW165605   6.508   5.439   3.519
21236SOL    HW265606   6.611   5.347   3.581
21237SOL     OW65607   8.944   6.872   0.752
21237SOL    HW165608   8.935   6.966   0.769
21237SOL    HW265609   8.856   6.845   0.726
21238SOL     OW65610   0.147   2.971  14.637
21238SOL    HW165611   0.175   2.922  14.714
21238SOL    HW265612   0.228   3.004  14.598
21239SOL     OW65613   1.528   2.517   4.044
21239SOL    HW165614   1.461   2.468   4.091
21239SOL    HW265615   1.611   2.483   4.078
21240SOL     OW65616   9.797   1.001   7.787
21240SOL    HW165617   9.887   0.982   7.813
21240SOL    HW265618   9.743   0.964   7.857
21241SOL     OW65619   0.200   9.004   3.145
21241SOL    HW165620   0.113   8.965   3.145
21241SOL    HW265621   0.198   9.070   3.076
21242SOL     OW65622  10.855   6.029  10.652
21242SOL    HW165623  10.925   6.017  10.588
21242SOL    HW265624  10.863   6.120  10.680
21243SOL     OW65625   0.622   4.566   2.096
21243SOL    HW165626   0.712   4.596   2.099
21243SOL    HW265627   0.612   4.528   2.009
21244SOL     OW65628   8.944   0.988  11.524
21244SOL    HW165629   8.936   0.919  11.590
21244SOL    HW265630   8.956   0.940  11.441
21245SOL     OW65631   3.582  13.510   3.499
21245SOL    HW165632   3.521  13.439   3.481
21245SOL    HW265633   3.668  13.469   3.503
21246SOL     OW65634   0.526   9.212  11.485
21246SOL    HW165635   0.549   9.119  11.483
21246SOL    HW265636   0.431   9.214  11.471
21247SOL     OW65637  10.797   9.050   4.811
21247SOL    HW165638  10.761   8.972   4.854
21247SOL    HW265639  10.872   9.074   4.865
21248SOL     OW65640  13.331  12.005   7.606
21248SOL    HW165641  13.426  12.012   7.614
21248SOL    HW265642  13.299  12.093   7.628
21249SOL     OW65643  11.953   1.350  13.488
21249SOL    HW165644  11.981   1.430  13.443
21249SOL    HW265645  12.027   1.290  13.478
21250SOL     OW65646   2.724  10.051   4.711
21250SOL    HW165647   2.730  10.144   4.693
21250SOL    HW265648   2.630  10.032   4.710
21251SOL     OW65649  14.575  14.711   6.076
21251SOL    HW165650  14.655  14.697   6.025
21251SOL    HW265651  14.605  14.718   6.167
21252SOL     OW65652   1.339   8.548   1.724
21252SOL    HW165653   1.262   8.523   1.775
21252SOL    HW265654   1.374   8.465   1.692
21253SOL     OW65655   8.932   6.132  13.475
21253SOL    HW165656   8.950   6.169  13.562
21253SOL    HW265657   9.012   6.085  13.452
21254SOL     OW65658   4.793  12.810  14.181
21254SOL    HW165659   4.805  12.791  14.274
21254SOL    HW265660   4.729  12.880  14.178
21255SOL     OW65661   7.401   7.202   4.916
21255SOL    HW165662   7.495   7.184   4.918
21255SOL    HW265663   7.383   7.224   4.824
21256SOL     OW65664   9.168   4.876   0.944
21256SOL    HW165665   9.103   4.868   0.875
21256SOL    HW265666   9.183   4.786   0.974
21257SOL     OW65667   2.981  12.986   7.113
21257SOL    HW165668   2.993  12.891   7.104
21257SOL    HW265669   2.944  13.013   7.028
21258SOL     OW65670  14.318  10.519   9.698
21258SOL    HW165671  14.252  10.451   9.683
21258SOL    HW265672  14.372  10.518   9.619
21259SOL     OW65673  14.158   1.886   5.712
21259SOL    HW165674  14.099   1.889   5.636
21259SOL    HW265675  14.220   1.958   5.697
21260SOL     OW65676  10.598  10.140  13.256
21260SOL    HW165677  10.604  10.234  13.274
21260SOL    HW265678  10.608  10.133  13.161
21261SOL     OW65679   7.769   7.871   2.136
21261SOL    HW165680   7.691   7.917   2.103
21261SOL    HW265681   7.758   7.871   2.231
21262SOL     OW65682  12.415  14.042   6.226
21262SOL    HW165683  12.366  14.080   6.299
21262SOL    HW265684  12.441  14.117   6.173
21263SOL     OW65685  14.005   4.976  14.275
21263SOL    HW165686  14.025   5.068  14.292
21263SOL    HW265687  13.972   4.974  14.185
21264SOL     OW65688   7.651   0.027  12.529
21264SOL    HW165689   7.650   0.122  12.526
21264SOL    HW265690   7.667   0.006  12.621
21265SOL     OW65691   8.422   8.995  13.054
21265SOL    HW165692   8.369   8.953  12.986
21265SOL    HW265693   8.388   8.960  13.136
21266SOL     OW65694   6.690   2.123   0.446
21266SOL    HW165695   6.603   2.084   0.458
21266SOL    HW265696   6.746   2.050   0.422
21267SOL     OW65697  11.192  11.647   4.958
21267SOL    HW165698  11.227  11.591   5.028
21267SOL    HW265699  11.165  11.586   4.890
21268SOL     OW65700   0.730  12.329   2.212
21268SOL    HW165701   0.800  12.306   2.273
21268SOL    HW265702   0.769  12.319   2.126
21269SOL     OW65703  11.064   4.159   7.517
21269SOL    HW165704  11.047   4.212   7.439
21269SOL    HW265705  11.156   4.132   7.508
21270SOL     OW65706   8.854  13.873   5.463
21270SOL    HW165707   8.903  13.942   5.418
21270SOL    HW265708   8.771  13.915   5.487
21271SOL     OW65709   6.378   5.715   5.626
21271SOL    HW165710   6.351   5.664   5.702
21271SOL    HW265711   6.473   5.711   5.627
21272SOL     OW65712   8.689   0.235   4.477
21272SOL    HW165713   8.709   0.295   4.549
21272SOL    HW265714   8.613   0.186   4.507
21273SOL     OW65715   4.131   7.843   7.781
21273SOL    HW165716   4.090   7.757   7.789
21273SOL    HW265717   4.119   7.866   7.688
21274SOL     OW65718  11.291  14.816   1.382
21274SOL    HW165719  11.292   0.044   1.385
21274SOL    HW265720  11.312  14.790   1.472
21275SOL     OW65721  14.517  13.260   5.666
21275SOL    HW165722  14.544  13.208   5.742
21275SOL    HW265723  14.431  13.294   5.690
21276SOL     OW65724  14.189   4.050   8.808
21276SOL    HW165725  14.171   4.076   8.899
21276SOL    HW265726  14.243   4.121   8.773
21277SOL     OW65727  14.756  12.583   0.379
21277SOL    HW165728  14.756  12.530   0.459
21277SOL    HW265729  14.798  12.665   0.404
21278SOL     OW65730  14.785   6.094  11.640
21278SOL    HW165731  14.707   6.080  11.586
21278SOL    HW265732  14.843   6.021  11.619
21279SOL     OW65733   0.357   2.658   9.878
21279SOL    HW165734   0.451   2.654   9.860
21279SOL    HW265735   0.332   2.567   9.893
21280SOL     OW65736   5.722   5.742   1.095
21280SOL    HW165737   5.758   5.762   1.009
21280SOL    HW265738   5.774   5.793   1.157
21281SOL     OW65739   8.506   5.013   2.815
21281SOL    HW165740   8.412   5.025   2.826
21281SOL    HW265741   8.531   5.078   2.750
21282SOL     OW65742   5.517   5.956   3.938
21282SOL    HW165743   5.440   5.962   3.995
21282SOL    HW265744   5.564   6.038   3.952
21283SOL     OW65745  13.126   6.939   4.437
21283SOL    HW165746  13.078   7.021   4.429
21283SOL    HW265747  13.206   6.954   4.386
21284SOL     OW65748   5.485   5.950   6.651
21284SOL    HW165749   5.469   5.863   6.687
21284SOL    HW265750   5.469   6.010   6.724
21285SOL     OW65751   8.161   9.053   4.553
21285SOL    HW165752   8.204   8.974   4.521
21285SOL    HW265753   8.092   9.070   4.490
21286SOL     OW65754   1.159   6.281  14.848
21286SOL    HW165755   1.248   6.272   0.013
21286SOL    HW265756   1.167   6.336  14.770
21287SOL     OW65757   9.095   6.830   2.524
21287SOL    HW165758   9.009   6.843   2.484
21287SOL    HW265759   9.157   6.849   2.453
21288SOL     OW65760   4.399  12.806  13.420
21288SOL    HW165761   4.416  12.770  13.507
21288SOL    HW265762   4.377  12.730  13.366
21289SOL     OW65763  10.027  11.458  11.535
21289SOL    HW165764  10.021  11.460  11.630
21289SOL    HW265765  10.110  11.500  11.515
21290SOL     OW65766   6.031   6.841   5.031
21290SOL    HW165767   6.044   6.900   5.106
21290SOL    HW265768   6.116   6.839   4.988
21291SOL     OW65769   7.603  13.654   1.744
21291SOL    HW165770   7.571  13.655   1.834
21291SOL    HW265771   7.698  13.659   1.752
21292SOL     OW65772   6.488   4.389   3.400
21292SOL    HW165773   6.571   4.429   3.375
21292SOL    HW265774   6.429   4.410   3.327
21293SOL     OW65775   6.996  13.941   0.942
21293SOL    HW165776   6.984  13.950   0.848
21293SOL    HW265777   7.021  13.849   0.955
21294SOL     OW65778   0.682  11.918   7.008
21294SOL    HW165779   0.734  11.997   7.021
21294SOL    HW265780   0.738  11.847   7.040
21295SOL     OW65781   1.238  11.895   5.234
21295SOL    HW165782   1.216  11.861   5.147
21295SOL    HW265783   1.295  11.970   5.216
21296SOL     OW65784   8.207  14.118   8.543
21296SOL    HW165785   8.162  14.182   8.598
21296SOL    HW265786   8.233  14.049   8.605
21297SOL     OW65787  14.047   4.496   8.686
21297SOL    HW165788  14.050   4.462   8.776
21297SOL    HW265789  14.132   4.473   8.649
21298SOL     OW65790   9.007   4.638   7.529
21298SOL    HW165791   9.085   4.668   7.576
21298SOL    HW265792   8.955   4.593   7.595
21299SOL     OW65793   8.288  11.536   6.473
21299SOL    HW165794   8.212  11.576   6.431
21299SOL    HW265795   8.326  11.480   6.405
21300SOL     OW65796   1.429   0.009   8.438
21300SOL    HW165797   1.411  14.822   8.362
21300SOL    HW265798   1.497  14.830   8.486
21301SOL     OW65799  12.802  10.261   1.563
21301SOL    HW165800  12.721  10.224   1.600
21301SOL    HW265801  12.863  10.188   1.563
21302SOL     OW65802   5.751   6.928  11.626
21302SOL    HW165803   5.752   6.920  11.531
21302SOL    HW265804   5.773   7.020  11.642
21303SOL     OW65805   2.287   5.321   1.093
21303SOL    HW165806   2.333   5.241   1.068
21303SOL    HW265807   2.245   5.300   1.176
21304SOL     OW65808   5.097   2.965  11.554
21304SOL    HW165809   5.087   3.031  11.623
21304SOL    HW265810   5.168   2.998  11.499
21305SOL     OW65811   0.637  14.775  10.740
21305SOL    HW165812   0.645  14.680  10.751
21305SOL    HW265813   0.648  14.789  10.646
21306SOL     OW65814  12.990  12.109   1.758
21306SOL    HW165815  12.916  12.161   1.789
21306SOL    HW265816  12.973  12.096   1.665
21307SOL     OW65817   0.067   5.240   0.364
21307SOL    HW165818   0.131   5.180   0.325
21307SOL    HW265819   0.071   5.221   0.458
21308SOL     OW65820  13.824   3.854   7.743
21308SOL    HW165821  13.780   3.937   7.759
21308SOL    HW265822  13.886   3.845   7.815
21309SOL     OW65823   6.082   2.851  12.245
21309SOL    HW165824   6.168   2.857  12.285
21309SOL    HW265825   6.036   2.931  12.273
21310SOL     OW65826   9.172   0.284   0.950
21310SOL    HW165827   9.113   0.230   1.002
21310SOL    HW265828   9.156   0.257   0.859
21311SOL     OW65829   2.064   6.477  13.094
21311SOL    HW165830   2.028   6.533  13.163
21311SOL    HW265831   2.111   6.408  13.142
21312SOL     OW65832   8.056   1.855   4.304
21312SOL    HW165833   7.981   1.909   4.281
21312SOL    HW265834   8.129   1.893   4.255
21313SOL     OW65835  14.180   5.707   9.784
21313SOL    HW165836  14.189   5.803   9.785
21313SOL    HW265837  14.156   5.685   9.873
21314SOL     OW65838   3.033  13.223   3.199
21314SOL    HW165839   3.068  13.304   3.236
21314SOL    HW265840   3.039  13.236   3.104
21315SOL     OW65841   3.314   2.403   6.869
21315SOL    HW165842   3.338   2.364   6.785
21315SOL    HW265843   3.376   2.365   6.931
21316SOL     OW65844   5.419  12.051  12.591
21316SOL    HW165845   5.435  11.957  12.592
21316SOL    HW265846   5.504  12.090  12.611
21317SOL     OW65847  13.939  14.118   7.753
21317SOL    HW165848  13.891  14.190   7.795
21317SOL    HW265849  13.902  14.113   7.665
21318SOL     OW65850   4.512  11.185   7.225
21318SOL    HW165851   4.602  11.153   7.237
21318SOL    HW265852   4.510  11.268   7.273
21319SOL     OW65853  11.869   4.525   1.092
21319SOL    HW165854  11.908   4.590   1.034
21319SOL    HW265855  11.861   4.569   1.176
21320SOL     OW65856   7.284   2.722   3.825
21320SOL    HW165857   7.368   2.754   3.857
21320SOL    HW265858   7.299   2.631   3.802
21321SOL     OW65859  13.899  14.468  10.069
21321SOL    HW165860  13.930  14.393  10.018
21321SOL    HW265861  13.957  14.471  10.145
21322SOL     OW65862   5.184  10.671   0.835
21322SOL    HW165863   5.256  10.701   0.780
21322SOL    HW265864   5.221  10.602   0.889
21323SOL     OW65865   6.929   5.794   0.595
21323SOL    HW165866   6.840   5.816   0.623
21323SOL    HW265867   6.920   5.778   0.501
21324SOL     OW65868   4.577  10.235   4.921
21324SOL    HW165869   4.610  10.165   4.864
21324SOL    HW265870   4.583  10.198   5.009
21325SOL     OW65871   8.700  14.211   6.745
21325SOL    HW165872   8.630  14.189   6.683
21325SOL    HW265873   8.698  14.140   6.809
21326SOL     OW65874   0.951   3.979  13.886
21326SOL    HW165875   0.920   3.905  13.939
21326SOL    HW265876   0.947   3.947  13.796
21327SOL     OW65877   1.416  13.464  14.312
21327SOL    HW165878   1.379  13.537  14.263
21327SOL    HW265879   1.381  13.474  14.400
21328SOL     OW65880   5.491   9.059   0.152
21328SOL    HW165881   5.429   8.988   0.169
21328SOL    HW265882   5.471   9.124   0.220
21329SOL     OW65883  10.094   9.457   1.691
21329SOL    HW165884  10.001   9.441   1.672
21329SOL    HW265885  10.115   9.395   1.761
21330SOL     OW65886  10.633   8.318  11.402
21330SOL    HW165887  10.662   8.390  11.458
21330SOL    HW265888  10.548   8.346  11.368
21331SOL     OW65889  11.713   4.634  13.483
21331SOL    HW165890  11.653   4.561  13.497
21331SOL    HW265891  11.667   4.710  13.519
21332SOL     OW65892  11.385  10.496   8.866
21332SOL    HW165893  11.365  10.405   8.888
21332SOL    HW265894  11.369  10.501   8.772
21333SOL     OW65895   9.196   6.199   7.191
21333SOL    HW165896   9.100   6.198   7.196
21333SOL    HW265897   9.222   6.116   7.231
21334SOL     OW65898  11.608   7.679  13.625
21334SOL    HW165899  11.543   7.701  13.558
21334SOL    HW265900  11.573   7.717  13.706
21335SOL     OW65901   2.471   9.376   6.237
21335SOL    HW165902   2.531   9.347   6.167
21335SOL    HW265903   2.405   9.307   6.241
21336SOL     OW65904   0.096   5.973   6.066
21336SOL    HW165905   0.055   6.015   5.991
21336SOL    HW265906   0.083   5.879   6.051
21337SOL     OW65907   3.794  13.069   5.215
21337SOL    HW165908   3.800  12.990   5.267
21337SOL    HW265909   3.812  13.140   5.276
21338SOL     OW65910  12.521   1.776  13.120
21338SOL    HW165911  12.451   1.841  13.114
21338SOL    HW265912  12.489   1.701  13.070
21339SOL     OW65913  14.452  12.486   0.979
21339SOL    HW165914  14.358  12.493   0.993
21339SOL    HW265915  14.476  12.400   1.015
21340SOL     OW65916   7.459   5.481   4.899
21340SOL    HW165917   7.394   5.509   4.834
21340SOL    HW265918   7.426   5.516   4.982
21341SOL     OW65919   3.203   6.877  10.054
21341SOL    HW165920   3.134   6.944  10.058
21341SOL    HW265921   3.284   6.925  10.074
21342SOL     OW65922   6.285  11.513   3.394
21342SOL    HW165923   6.354  11.449   3.411
21342SOL    HW265924   6.329  11.598   3.406
21343SOL     OW65925   2.198   6.674  11.772
21343SOL    HW165926   2.202   6.625  11.690
21343SOL    HW265927   2.272   6.642  11.823
21344SOL     OW65928   1.003  14.318  13.371
21344SOL    HW165929   0.935  14.254  13.393
21344SOL    HW265930   1.043  14.284  13.291
21345SOL     OW65931  14.663   1.291   9.670
21345SOL    HW165932  14.615   1.358   9.720
21345SOL    HW265933  14.611   1.280   9.591
21346SOL     OW65934  14.735   2.332  12.455
21346SOL    HW165935  14.675   2.351  12.527
21346SOL    HW265936  14.800   2.273  12.493
21347SOL     OW65937   1.345  10.028  11.033
21347SOL    HW165938   1.272  10.041  11.095
21347SOL    HW265939   1.310   9.967  10.968
21348SOL     OW65940  14.122  13.826   9.262
21348SOL    HW165941  14.063  13.789   9.196
21348SOL    HW265942  14.200  13.852   9.213
21349SOL     OW65943  10.196  12.943   7.418
21349SOL    HW165944  10.109  12.921   7.385
21349SOL    HW265945  10.180  12.984   7.503
21350SOL     OW65946   6.309   5.511  11.915
21350SOL    HW165947   6.236   5.568  11.893
21350SOL    HW265948   6.271   5.424  11.922
21351SOL     OW65949   5.981   4.681   9.828
21351SOL    HW165950   5.930   4.611   9.788
21351SOL    HW265951   5.943   4.762   9.793
21352SOL     OW65952   0.722  12.846  12.579
21352SOL    HW165953   0.646  12.901  12.600
21352SOL    HW265954   0.720  12.778  12.646
21353SOL     OW65955   3.026  11.697   7.603
21353SOL    HW165956   2.936  11.668   7.584
21353SOL    HW265957   3.081  11.643   7.547
21354SOL     OW65958   7.491   6.272   5.819
21354SOL    HW165959   7.520   6.349   5.769
21354SOL    HW265960   7.532   6.282   5.905
21355SOL     OW65961   8.742   3.333   6.007
21355SOL    HW165962   8.771   3.292   5.925
21355SOL    HW265963   8.814   3.392   6.031
21356SOL     OW65964  13.291   0.505   9.183
21356SOL    HW165965  13.329   0.536   9.101
21356SOL    HW265966  13.216   0.452   9.156
21357SOL     OW65967  10.673   9.621  10.347
21357SOL    HW165968  10.627   9.645  10.267
21357SOL    HW265969  10.656   9.528  10.358
21358SOL     OW65970   3.434   0.997   9.977
21358SOL    HW165971   3.384   1.001  10.058
21358SOL    HW265972   3.384   0.938   9.920
21359SOL     OW65973  13.429  11.327   1.511
21359SOL    HW165974  13.366  11.308   1.581
21359SOL    HW265975  13.435  11.246   1.461
21360SOL     OW65976   2.703   0.114   4.432
21360SOL    HW165977   2.678   0.052   4.363
21360SOL    HW265978   2.633   0.107   4.497
21361SOL     OW65979   4.774  11.671   2.983
21361SOL    HW165980   4.725  11.745   2.946
21361SOL    HW265981   4.720  11.595   2.963
21362SOL     OW65982   6.648   3.272   7.529
21362SOL    HW165983   6.610   3.356   7.504
21362SOL    HW265984   6.577   3.225   7.573
21363SOL     OW65985   8.291  11.955   9.923
21363SOL    HW165986   8.255  11.975  10.010
21363SOL    HW265987   8.327  11.867   9.931
21364SOL     OW65988  10.516  13.243  11.683
21364SOL    HW165989  10.542  13.155  11.658
21364SOL    HW265990  10.429  13.255  11.644
21365SOL     OW65991   9.306   5.581   5.959
21365SOL    HW165992   9.231   5.567   6.017
21365SOL    HW265993   9.278   5.651   5.900
21366SOL     OW65994   2.688   8.925  12.189
21366SOL    HW165995   2.735   8.848  12.155
21366SOL    HW265996   2.601   8.918  12.151
21367SOL     OW65997  10.492   5.612   3.610
21367SOL    HW165998  10.504   5.643   3.520
21367SOL    HW265999  10.438   5.680   3.652
21368SOL     OW66000  14.006   9.977  11.652
21368SOL    HW166001  14.044   9.943  11.571
21368SOL    HW266002  13.911   9.967  11.640
21369SOL     OW66003  10.484  11.927  12.413
21369SOL    HW166004  10.403  11.884  12.386
21369SOL    HW266005  10.501  11.894  12.501
21370SOL     OW66006  10.729  11.067   8.190
21370SOL    HW166007  10.729  11.100   8.280
21370SOL    HW266008  10.646  11.019   8.182
21371SOL     OW66009   0.778   7.814  13.519
21371SOL    HW166010   0.784   7.909  13.524
21371SOL    HW266011   0.748   7.796  13.430
21372SOL     OW66012   4.445  14.417   5.092
21372SOL    HW166013   4.455  14.484   5.024
21372SOL    HW266014   4.461  14.463   5.174
21373SOL     OW66015  12.093  10.183  11.775
21373SOL    HW166016  12.001  10.197  11.750
21373SOL    HW266017  12.093  10.097  11.818
21374SOL     OW66018   2.904   5.747   7.494
21374SOL    HW166019   2.852   5.698   7.558
21374SOL    HW266020   2.840   5.776   7.428
21375SOL     OW66021  10.205   3.380   0.720
21375SOL    HW166022  10.288   3.418   0.750
21375SOL    HW266023  10.176   3.325   0.793
21376SOL     OW66024   6.771   2.120   7.106
21376SOL    HW166025   6.823   2.171   7.168
21376SOL    HW266026   6.700   2.083   7.158
21377SOL     OW66027   0.605  10.699   3.589
21377SOL    HW166028   0.540  10.651   3.537
21377SOL    HW266029   0.663  10.739   3.525
21378SOL     OW66030   8.853   2.727   4.521
21378SOL    HW166031   8.843   2.822   4.520
21378SOL    HW266032   8.914   2.709   4.449
21379SOL     OW66033  11.227  12.662   8.848
21379SOL    HW166034  11.248  12.647   8.940
21379SOL    HW266035  11.310  12.650   8.802
21380SOL     OW66036  11.148  13.028   3.194
21380SOL    HW166037  11.090  13.036   3.119
21380SOL    HW266038  11.157  13.118   3.226
21381SOL     OW66039   7.001   7.991   7.628
21381SOL    HW166040   6.997   8.080   7.664
21381SOL    HW266041   6.920   7.949   7.658
21382SOL     OW66042  11.308  14.501   2.786
21382SOL    HW166043  11.358  14.583   2.781
21382SOL    HW266044  11.370  14.434   2.757
21383SOL     OW66045  12.990   2.910   5.368
21383SOL    HW166046  13.064   2.889   5.424
21383SOL    HW266047  12.953   2.825   5.344
21384SOL     OW66048  11.904  10.535   4.708
21384SOL    HW166049  11.897  10.539   4.804
21384SOL    HW266050  11.994  10.506   4.693
21385SOL     OW66051   7.878  10.540   4.909
21385SOL    HW166052   7.787  10.538   4.879
21385SOL    HW266053   7.913  10.623   4.874
21386SOL     OW66054  10.213   3.856  11.256
21386SOL    HW166055  10.206   3.800  11.333
21386SOL    HW266056  10.193   3.799  11.182
21387SOL     OW66057  14.276   6.846  10.412
21387SOL    HW166058  14.181   6.844  10.404
21387SOL    HW266059  14.307   6.782  10.348
21388SOL     OW66060  11.890  14.812   4.817
21388SOL    HW166061  11.826  14.855   4.873
21388SOL    HW266062  11.975  14.834   4.854
21389SOL     OW66063   2.670   7.568  13.958
21389SOL    HW166064   2.707   7.563  13.870
21389SOL    HW266065   2.709   7.494  14.004
21390SOL     OW66066   6.404   4.800   7.747
21390SOL    HW166067   6.482   4.754   7.779
21390SOL    HW266068   6.393   4.770   7.657
21391SOL     OW66069   7.738   5.186   5.067
21391SOL    HW166070   7.756   5.218   5.156
21391SOL    HW266071   7.686   5.107   5.081
21392SOL     OW66072  13.983   2.257   2.184
21392SOL    HW166073  14.021   2.326   2.239
21392SOL    HW266074  14.057   2.202   2.159
21393SOL     OW66075  14.781  13.267   5.912
21393SOL    HW166076  14.813  13.180   5.936
21393SOL    HW266077  14.768  13.262   5.817
21394SOL     OW66078   6.384   9.514   6.289
21394SOL    HW166079   6.385   9.570   6.211
21394SOL    HW266080   6.302   9.465   6.282
21395SOL     OW66081  13.262   5.477   6.122
21395SOL    HW166082  13.187   5.530   6.097
21395SOL    HW266083  13.311   5.464   6.041
21396SOL     OW66084   8.837   6.016   4.467
21396SOL    HW166085   8.844   6.104   4.504
21396SOL    HW266086   8.926   5.980   4.474
21397SOL     OW66087   2.760   8.277  11.658
21397SOL    HW166088   2.670   8.307  11.673
21397SOL    HW266089   2.770   8.201  11.715
21398SOL     OW66090   8.679  13.250  13.029
21398SOL    HW166091   8.607  13.230  13.089
21398SOL    HW266092   8.737  13.174  13.035
21399SOL     OW66093  13.576  14.270   6.487
21399SOL    HW166094  13.634  14.196   6.504
21399SOL    HW266095  13.515  14.238   6.420
21400SOL     OW66096   1.409  13.829   0.357
21400SOL    HW166097   1.374  13.759   0.302
21400SOL    HW266098   1.489  13.792   0.395
21401SOL     OW66099   5.358  13.839   2.726
21401SOL    HW166100   5.335  13.930   2.710
21401SOL    HW266101   5.449  13.842   2.754
21402SOL     OW66102   2.734   5.911  13.851
21402SOL    HW166103   2.730   5.838  13.789
21402SOL    HW266104   2.659   5.966  13.827
21403SOL     OW66105   6.506  13.523   0.345
21403SOL    HW166106   6.566  13.456   0.377
21403SOL    HW266107   6.524  13.529   0.251
21404SOL     OW66108  11.772   6.331   8.720
21404SOL    HW166109  11.803   6.245   8.692
21404SOL    HW266110  11.824   6.351   8.797
21405SOL     OW66111  13.566   7.186  10.705
21405SOL    HW166112  13.611   7.218  10.783
21405SOL    HW266113  13.636   7.167  10.643
21406SOL     OW66114  14.604  10.964   0.231
21406SOL    HW166115  14.650  11.046   0.247
21406SOL    HW266116  14.670  10.896   0.243
21407SOL     OW66117   7.578  13.302   6.931
21407SOL    HW166118   7.585  13.281   7.024
21407SOL    HW266119   7.669  13.313   6.902
21408SOL     OW66120   2.411   0.604  14.659
21408SOL    HW166121   2.385   0.596  14.568
21408SOL    HW266122   2.349   0.665  14.698
21409SOL     OW66123   5.548   7.688  12.555
21409SOL    HW166124   5.559   7.655  12.644
21409SOL    HW266125   5.513   7.777  12.567
21410SOL     OW66126  11.399   6.189   0.917
21410SOL    HW166127  11.432   6.278   0.901
21410SOL    HW266128  11.368   6.160   0.831
21411SOL     OW66129   1.089   6.841  10.587
21411SOL    HW166130   1.088   6.807  10.498
21411SOL    HW266131   1.181   6.841  10.613
21412SOL     OW66132   4.595   1.003  13.404
21412SOL    HW166133   4.683   1.004  13.367
21412SOL    HW266134   4.607   1.020  13.497
21413SOL     OW66135   4.661   0.571  11.931
21413SOL    HW166136   4.612   0.636  11.881
21413SOL    HW266137   4.742   0.558  11.881
21414SOL     OW66138   2.247   6.927   2.392
21414SOL    HW166139   2.277   6.947   2.304
21414SOL    HW266140   2.278   6.838   2.408
21415SOL     OW66141   4.106   6.806   9.906
21415SOL    HW166142   4.173   6.869   9.882
21415SOL    HW266143   4.128   6.727   9.857
21416SOL     OW66144   2.294  12.044   7.555
21416SOL    HW166145   2.286  12.116   7.493
21416SOL    HW266146   2.216  11.991   7.541
21417SOL     OW66147   4.763   0.045   4.374
21417SOL    HW166148   4.804  14.858   4.307
21417SOL    HW266149   4.737  14.851   4.442
21418SOL     OW66150   6.390   8.147   3.424
21418SOL    HW166151   6.374   8.231   3.466
21418SOL    HW266152   6.430   8.169   3.339
21419SOL     OW66153   3.713   5.298   1.766
21419SOL    HW166154   3.772   5.258   1.829
21419SOL    HW266155   3.640   5.237   1.759
21420SOL     OW66156   6.658   5.383   9.803
21420SOL    HW166157   6.664   5.459   9.860
21420SOL    HW266158   6.564   5.366   9.794
21421SOL     OW66159   8.200   1.072   8.651
21421SOL    HW166160   8.206   1.027   8.567
21421SOL    HW266161   8.152   1.152   8.632
21422SOL     OW66162   5.152  10.981   9.306
21422SOL    HW166163   5.209  11.055   9.330
21422SOL    HW266164   5.069  10.999   9.349
21423SOL     OW66165   7.428   1.140   9.006
21423SOL    HW166166   7.452   1.222   8.964
21423SOL    HW266167   7.470   1.143   9.092
21424SOL     OW66168   6.509   7.923   3.183
21424SOL    HW166169   6.417   7.940   3.165
21424SOL    HW266170   6.538   7.998   3.235
21425SOL     OW66171  12.520  13.852   4.820
21425SOL    HW166172  12.543  13.812   4.737
21425SOL    HW266173  12.569  13.803   4.886
21426SOL     OW66174   7.520  12.549  12.500
21426SOL    HW166175   7.511  12.476  12.439
21426SOL    HW266176   7.441  12.601  12.486
21427SOL     OW66177  11.556   4.116   8.507
21427SOL    HW166178  11.464   4.104   8.532
21427SOL    HW266179  11.553   4.141   8.415
21428SOL     OW66180   9.907  14.367   3.840
21428SOL    HW166181   9.938  14.441   3.891
21428SOL    HW266182   9.815  14.387   3.822
21429SOL     OW66183   9.375  12.218   8.437
21429SOL    HW166184   9.343  12.140   8.482
21429SOL    HW266185   9.311  12.286   8.459
21430SOL     OW66186   6.872   9.397   3.009
21430SOL    HW166187   6.891   9.315   2.965
21430SOL    HW266188   6.921   9.463   2.959
21431SOL     OW66189   9.334   3.974   2.232
21431SOL    HW166190   9.401   4.021   2.183
21431SOL    HW266191   9.251   4.013   2.205
21432SOL     OW66192   6.323   5.569   1.235
21432SOL    HW166193   6.359   5.631   1.171
21432SOL    HW266194   6.400   5.539   1.284
21433SOL     OW66195  10.946   4.036   9.140
21433SOL    HW166196  11.030   4.021   9.096
21433SOL    HW266197  10.970   4.075   9.224
21434SOL     OW66198   5.151   0.215  13.097
21434SOL    HW166199   5.181   0.293  13.050
21434SOL    HW266200   5.069   0.191  13.054
21435SOL     OW66201  13.458  14.381   6.202
21435SOL    HW166202  13.505  14.324   6.142
21435SOL    HW266203  13.401  14.433   6.145
21436SOL     OW66204  14.685  12.339   1.271
21436SOL    HW166205  14.705  12.358   1.363
21436SOL    HW266206  14.594  12.311   1.272
21437SOL     OW66207  10.553   3.277   7.587
21437SOL    HW166208  10.614   3.231   7.528
21437SOL    HW266209  10.493   3.323   7.527
21438SOL     OW66210   1.273   8.382   4.348
21438SOL    HW166211   1.182   8.371   4.376
21438SOL    HW266212   1.293   8.474   4.364
21439SOL     OW66213   0.987  14.191  13.773
21439SOL    HW166214   0.962  14.111  13.819
21439SOL    HW266215   1.018  14.249  13.843
21440SOL     OW66216   1.916   1.128  10.133
21440SOL    HW166217   1.861   1.089  10.200
21440SOL    HW266218   1.857   1.182  10.081
21441SOL     OW66219   4.549   1.127   9.099
21441SOL    HW166220   4.586   1.045   9.067
21441SOL    HW266221   4.623   1.174   9.137
21442SOL     OW66222   0.897   4.940  11.059
21442SOL    HW166223   0.914   4.892  11.140
21442SOL    HW266224   0.834   5.008  11.083
21443SOL     OW66225   5.727   4.585   3.694
21443SOL    HW166226   5.663   4.551   3.632
21443SOL    HW266227   5.808   4.538   3.674
21444SOL     OW66228   5.584  11.153   7.512
21444SOL    HW166229   5.585  11.110   7.426
21444SOL    HW266230   5.548  11.088   7.572
21445SOL     OW66231  10.512   5.958  14.257
21445SOL    HW166232  10.516   5.955  14.162
21445SOL    HW266233  10.455   6.032  14.277
21446SOL     OW66234   4.607   7.628  13.906
21446SOL    HW166235   4.609   7.702  13.846
21446SOL    HW266236   4.591   7.668  13.992
21447SOL     OW66237   8.793   7.236   9.261
21447SOL    HW166238   8.836   7.160   9.222
21447SOL    HW266239   8.864   7.299   9.276
21448SOL     OW66240  10.286   9.672   1.623
21448SOL    HW166241  10.239   9.730   1.564
21448SOL    HW266242  10.228   9.597   1.635
21449SOL     OW66243  12.441   7.776  14.503
21449SOL    HW166244  12.496   7.837  14.454
21449SOL    HW266245  12.459   7.797  14.595
21450SOL     OW66246   6.162   8.818   9.594
21450SOL    HW166247   6.181   8.816   9.687
21450SOL    HW266248   6.117   8.735   9.576
21451SOL     OW66249   2.818   2.299  11.732
21451SOL    HW166250   2.796   2.351  11.809
21451SOL    HW266251   2.853   2.217  11.767
21452SOL     OW66252   0.179   2.224   9.102
21452SOL    HW166253   0.203   2.174   9.180
21452SOL    HW266254   0.085   2.239   9.110
21453SOL     OW66255   3.456  12.894   0.811
21453SOL    HW166256   3.492  12.809   0.786
21453SOL    HW266257   3.458  12.894   0.907
21454SOL     OW66258   5.540   5.987  12.693
21454SOL    HW166259   5.576   5.972  12.780
21454SOL    HW266260   5.450   5.955  12.699
21455SOL     OW66261  14.172   5.865   8.585
21455SOL    HW166262  14.255   5.817   8.578
21455SOL    HW266263  14.186   5.944   8.533
21456SOL     OW66264   3.230   7.940  11.582
21456SOL    HW166265   3.218   7.854  11.541
21456SOL    HW266266   3.182   8.001  11.526
21457SOL     OW66267   8.706   5.298  11.721
21457SOL    HW166268   8.762   5.221  11.732
21457SOL    HW266269   8.632   5.281  11.779
21458SOL     OW66270   2.995  13.923  10.308
21458SOL    HW166271   3.013  13.992  10.371
21458SOL    HW266272   3.066  13.931  10.244
21459SOL     OW66273   8.681   5.654   3.965
21459SOL    HW166274   8.679   5.708   4.044
21459SOL    HW266275   8.656   5.566   3.995
21460SOL     OW66276   5.611  11.212   6.851
21460SOL    HW166277   5.579  11.172   6.770
21460SOL    HW266278   5.564  11.296   6.856
21461SOL     OW66279  10.631   5.622  12.619
21461SOL    HW166280  10.574   5.553  12.653
21461SOL    HW266281  10.652   5.594  12.530
21462SOL     OW66282  12.297  12.553   5.343
21462SOL    HW166283  12.364  12.514   5.287
21462SOL    HW266284  12.311  12.647   5.337
21463SOL     OW66285   5.885   4.497   6.826
21463SOL    HW166286   5.798   4.528   6.850
21463SOL    HW266287   5.941   4.574   6.829
21464SOL     OW66288   4.351   6.202   4.117
21464SOL    HW166289   4.413   6.143   4.074
21464SOL    HW266290   4.403   6.245   4.185
21465SOL     OW66291   6.624   8.473   5.566
21465SOL    HW166292   6.680   8.494   5.491
21465SOL    HW266293   6.574   8.553   5.582
21466SOL     OW66294   7.482  13.212   8.470
21466SOL    HW166295   7.505  13.267   8.395
21466SOL    HW266296   7.476  13.273   8.543
21467SOL     OW66297  14.164  10.635  11.273
21467SOL    HW166298  14.218  10.649  11.350
21467SOL    HW266299  14.074  10.644  11.305
21468SOL     OW66300   6.417  14.007   7.255
21468SOL    HW166301   6.397  13.937   7.316
21468SOL    HW266302   6.500  13.982   7.214
21469SOL     OW66303   1.202  12.312   7.379
21469SOL    HW166304   1.174  12.324   7.470
21469SOL    HW266305   1.297  12.305   7.384
21470SOL     OW66306   5.942   1.471   0.422
21470SOL    HW166307   5.992   1.390   0.433
21470SOL    HW266308   5.949   1.515   0.507
21471SOL     OW66309   5.238   0.770   7.124
21471SOL    HW166310   5.216   0.739   7.211
21471SOL    HW266311   5.159   0.817   7.095
21472SOL     OW66312  12.784   7.550   0.012
21472SOL    HW166313  12.821   7.526  14.795
21472SOL    HW266314  12.690   7.533   0.003
21473SOL     OW66315  13.457  11.540   6.513
21473SOL    HW166316  13.498  11.457   6.489
21473SOL    HW266317  13.529  11.604   6.508
21474SOL     OW66318  14.863  12.919   3.117
21474SOL    HW166319   0.082  12.902   3.154
21474SOL    HW266320  14.861  13.014   3.104
21475SOL     OW66321  12.138   4.178   0.243
21475SOL    HW166322  12.179   4.211   0.162
21475SOL    HW266323  12.168   4.088   0.249
21476SOL     OW66324   1.134  10.057   2.425
21476SOL    HW166325   1.119  10.094   2.512
21476SOL    HW266326   1.134  10.133   2.367
21477SOL     OW66327  13.285   4.285   8.321
21477SOL    HW166328  13.365   4.333   8.339
21477SOL    HW266329  13.314   4.202   8.284
21478SOL     OW66330  14.159  13.670   7.511
21478SOL    HW166331  14.128  13.755   7.542
21478SOL    HW266332  14.198  13.688   7.426
21479SOL     OW66333   1.552   0.923  10.028
21479SOL    HW166334   1.554   1.007  10.076
21479SOL    HW266335   1.644   0.901  10.016
21480SOL     OW66336   3.207   8.490  13.636
21480SOL    HW166337   3.159   8.485  13.718
21480SOL    HW266338   3.183   8.410  13.588
21481SOL     OW66339   3.784   3.826   3.384
21481SOL    HW166340   3.849   3.895   3.372
21481SOL    HW266341   3.701   3.872   3.387
21482SOL     OW66342   4.675   6.015   1.314
21482SOL    HW166343   4.615   5.948   1.281
21482SOL    HW266344   4.737   5.967   1.369
21483SOL     OW66345  12.294   8.212  12.260
21483SOL    HW166346  12.275   8.121  12.282
21483SOL    HW266347  12.284   8.216  12.165
21484SOL     OW66348   8.820  14.156  11.097
21484SOL    HW166349   8.726  14.146  11.108
21484SOL    HW266350   8.840  14.110  11.016
21485SOL     OW66351   9.798  12.745   6.232
21485SOL    HW166352   9.879  12.699   6.254
21485SOL    HW266353   9.738  12.721   6.302
21486SOL     OW66354  13.455   1.017   6.166
21486SOL    HW166355  13.399   1.089   6.196
21486SOL    HW266356  13.394   0.957   6.123
21487SOL     OW66357  10.679  12.796  13.135
21487SOL    HW166358  10.600  12.743  13.127
21487SOL    HW266359  10.706  12.785  13.226
21488SOL     OW66360   1.755  10.068   2.591
21488SOL    HW166361   1.842  10.028   2.585
21488SOL    HW266362   1.759  10.142   2.530
21489SOL     OW66363   1.601   3.709   4.186
21489SOL    HW166364   1.529   3.646   4.185
21489SOL    HW266365   1.557   3.795   4.189
21490SOL     OW66366  14.382  11.237  10.943
21490SOL    HW166367  14.347  11.169  10.885
21490SOL    HW266368  14.453  11.194  10.990
21491SOL     OW66369   0.871   1.395  14.062
21491SOL    HW166370   0.860   1.305  14.031
21491SOL    HW266371   0.803   1.406  14.129
21492SOL     OW66372   3.096  14.229   6.936
21492SOL    HW166373   3.048  14.150   6.913
21492SOL    HW266374   3.182  14.217   6.896
21493SOL     OW66375   4.773   5.704   4.480
21493SOL    HW166376   4.815   5.689   4.564
21493SOL    HW266377   4.815   5.782   4.445
21494SOL     OW66378  13.219   9.146   4.460
21494SOL    HW166379  13.173   9.230   4.464
21494SOL    HW266380  13.153   9.084   4.432
21495SOL     OW66381   6.634  12.416   5.620
21495SOL    HW166382   6.687  12.394   5.544
21495SOL    HW266383   6.694  12.410   5.694
21496SOL     OW66384   0.835  10.647   8.992
21496SOL    HW166385   0.924  10.682   8.991
21496SOL    HW266386   0.826  10.604   9.077
21497SOL     OW66387   1.623   1.701   2.626
21497SOL    HW166388   1.670   1.708   2.543
21497SOL    HW266389   1.562   1.775   2.625
21498SOL     OW66390  14.749   6.470   6.335
21498SOL    HW166391  14.738   6.564   6.320
21498SOL    HW266392  14.813   6.465   6.406
21499SOL     OW66393   2.138  11.053   0.566
21499SOL    HW166394   2.186  10.981   0.607
21499SOL    HW266395   2.168  11.132   0.611
21500SOL     OW66396   5.351   2.626   0.261
21500SOL    HW166397   5.425   2.637   0.202
21500SOL    HW266398   5.347   2.532   0.278
21501SOL     OW66399  11.704  11.113   8.923
21501SOL    HW166400  11.764  11.039   8.919
21501SOL    HW266401  11.630  11.082   8.975
21502SOL     OW66402   3.187   7.335   5.884
21502SOL    HW166403   3.280   7.327   5.864
21502SOL    HW266404   3.169   7.429   5.877
21503SOL     OW66405   8.275  12.896  11.759
21503SOL    HW166406   8.304  12.846  11.682
21503SOL    HW266407   8.201  12.845  11.794
21504SOL     OW66408  11.291   6.533   8.729
21504SOL    HW166409  11.351   6.521   8.803
21504SOL    HW266410  11.257   6.621   8.739
21505SOL     OW66411  13.001   2.240  13.020
21505SOL    HW166412  13.089   2.213  12.992
21505SOL    HW266413  12.976   2.174  13.085
21506SOL     OW66414   6.987  10.661  14.054
21506SOL    HW166415   7.076  10.631  14.070
21506SOL    HW266416   6.997  10.753  14.028
21507SOL     OW66417   4.026  14.375   6.344
21507SOL    HW166418   4.012  14.428   6.423
21507SOL    HW266419   3.996  14.287   6.369
21508SOL     OW66420  12.623  12.093  13.578
21508SOL    HW166421  12.669  12.009  13.590
21508SOL    HW266422  12.543  12.069  13.531
21509SOL     OW66423  12.138  12.009  12.186
21509SOL    HW166424  12.046  11.980  12.188
21509SOL    HW266425  12.163  12.013  12.279
21510SOL     OW66426   4.102   9.426  14.126
21510SOL    HW166427   4.087   9.338  14.091
21510SOL    HW266428   4.026   9.442  14.182
21511SOL     OW66429   7.412   9.375   4.432
21511SOL    HW166430   7.414   9.381   4.337
21511SOL    HW266431   7.334   9.425   4.458
21512SOL     OW66432   5.258   1.432   3.424
21512SOL    HW166433   5.328   1.489   3.456
21512SOL    HW266434   5.251   1.452   3.331
21513SOL     OW66435  10.085   1.304   0.605
21513SOL    HW166436  10.016   1.248   0.568
21513SOL    HW266437  10.086   1.381   0.548
21514SOL     OW66438   5.536   8.458   3.504
21514SOL    HW166439   5.562   8.549   3.495
21514SOL    HW266440   5.618   8.411   3.520
21515SOL     OW66441   0.568   3.572   6.176
21515SOL    HW166442   0.527   3.641   6.227
21515SOL    HW266443   0.604   3.511   6.241
21516SOL     OW66444   0.064   8.036  12.840
21516SOL    HW166445  14.849   7.987  12.842
21516SOL    HW266446   0.052   8.106  12.904
21517SOL     OW66447   5.012  12.038  11.896
21517SOL    HW166448   4.989  12.082  11.978
21517SOL    HW266449   4.983  11.947  11.909
21518SOL     OW66450   2.898   2.253  13.721
21518SOL    HW166451   2.832   2.267  13.653
21518SOL    HW266452   2.875   2.315  13.790
21519SOL     OW66453  12.833   4.723   9.122
21519SOL    HW166454  12.913   4.680   9.092
21519SOL    HW266455  12.795   4.662   9.185
21520SOL     OW66456   5.197   0.423   1.013
21520SOL    HW166457   5.204   0.423   1.109
21520SOL    HW266458   5.286   0.408   0.982
21521SOL     OW66459   3.068   8.521   7.546
21521SOL    HW166460   3.076   8.558   7.634
21521SOL    HW266461   3.129   8.448   7.545
21522SOL     OW66462   0.061   6.546  11.248
21522SOL    HW166463   0.056   6.611  11.177
21522SOL    HW266464   0.148   6.508  11.239
21523SOL     OW66465   3.982   5.366  12.693
21523SOL    HW166466   4.021   5.432  12.751
21523SOL    HW266467   3.888   5.385  12.697
21524SOL     OW66468  10.180   5.721   8.928
21524SOL    HW166469  10.133   5.712   9.011
21524SOL    HW266470  10.253   5.779   8.948
21525SOL     OW66471   9.977  10.198   2.182
21525SOL    HW166472   9.990  10.289   2.155
21525SOL    HW266473  10.054  10.151   2.149
21526SOL     OW66474  13.592   7.872  14.587
21526SOL    HW166475  13.561   7.931  14.655
21526SOL    HW266476  13.653   7.813  14.632
21527SOL     OW66477   6.895  12.249   4.844
21527SOL    HW166478   6.990  12.258   4.837
21527SOL    HW266479   6.880  12.222   4.934
21528SOL     OW66480   9.570   2.591   0.123
21528SOL    HW166481   9.646   2.563   0.174
21528SOL    HW266482   9.537   2.510   0.083
21529SOL     OW66483  10.584  11.863  12.989
21529SOL    HW166484  10.597  11.768  13.000
21529SOL    HW266485  10.530  11.888  13.064
21530SOL     OW66486   7.907   3.850   4.173
21530SOL    HW166487   7.868   3.862   4.260
21530SOL    HW266488   7.972   3.920   4.167
21531SOL     OW66489   9.034  11.990   9.185
21531SOL    HW166490   9.004  11.936   9.258
21531SOL    HW266491   9.111  11.944   9.151
21532SOL     OW66492   2.776   1.215   7.147
21532SOL    HW166493   2.828   1.156   7.092
21532SOL    HW266494   2.722   1.264   7.085
21533SOL     OW66495  13.291  14.211  11.400
21533SOL    HW166496  13.266  14.120  11.383
21533SOL    HW266497  13.243  14.262  11.335
21534SOL     OW66498  10.650   0.100  12.123
21534SOL    HW166499  10.739   0.079  12.152
21534SOL    HW266500  10.596   0.030  12.159
21535SOL     OW66501   1.427  12.579   6.058
21535SOL    HW166502   1.468  12.497   6.084
21535SOL    HW266503   1.367  12.600   6.129
21536SOL     OW66504  14.539   0.207  10.948
21536SOL    HW166505  14.607   0.197  11.015
21536SOL    HW266506  14.461   0.167  10.987
21537SOL     OW66507   3.217   6.864   0.183
21537SOL    HW166508   3.163   6.817   0.120
21537SOL    HW266509   3.189   6.830   0.268
21538SOL     OW66510   4.856   0.197   1.897
21538SOL    HW166511   4.910   0.273   1.875
21538SOL    HW266512   4.914   0.141   1.949
21539SOL     OW66513   8.512   8.621  12.728
21539SOL    HW166514   8.480   8.709  12.748
21539SOL    HW266515   8.574   8.602  12.798
21540SOL     OW66516   0.081   2.019   4.846
21540SOL    HW166517   0.139   1.981   4.912
21540SOL    HW266518   0.139   2.069   4.790
21541SOL     OW66519   8.607  11.184  13.635
21541SOL    HW166520   8.626  11.105  13.585
21541SOL    HW266521   8.517  11.207  13.611
21542SOL     OW66522   3.199  12.432   3.745
21542SOL    HW166523   3.203  12.516   3.699
21542SOL    HW266524   3.156  12.372   3.684
21543SOL     OW66525   5.022   7.163  14.795
21543SOL    HW166526   5.025   7.087  14.853
21543SOL    HW266527   4.931   7.194  14.800
21544SOL     OW66528   3.302   9.996   5.726
21544SOL    HW166529   3.324  10.082   5.761
21544SOL    HW266530   3.208   9.987   5.741
21545SOL     OW66531  13.684   3.686   0.920
21545SOL    HW166532  13.683   3.599   0.880
21545SOL    HW266533  13.728   3.742   0.856
21546SOL     OW66534  13.805  14.863  12.857
21546SOL    HW166535  13.733   0.029  12.911
21546SOL    HW266536  13.884   0.031  12.896
21547SOL     OW66537  11.751  10.047  13.371
21547SOL    HW166538  11.668  10.082  13.402
21547SOL    HW266539  11.789  10.117  13.319
21548SOL     OW66540  14.701  12.751   2.612
21548SOL    HW166541  14.728  12.750   2.521
21548SOL    HW266542  14.650  12.831   2.622
21549SOL     OW66543   0.848   4.735   5.932
21549SOL    HW166544   0.787   4.716   5.861
21549SOL    HW266545   0.809   4.808   5.979
21550SOL     OW66546   2.664   5.273  11.753
21550SOL    HW166547   2.685   5.298  11.663
21550SOL    HW266548   2.746   5.236  11.787
21551SOL     OW66549   4.303   1.848   5.880
21551SOL    HW166550   4.245   1.900   5.936
21551SOL    HW266551   4.243   1.797   5.825
21552SOL     OW66552  11.958  11.188   3.100
21552SOL    HW166553  12.002  11.170   3.184
21552SOL    HW266554  11.866  11.199   3.124
21553SOL     OW66555   8.246  13.443   3.338
21553SOL    HW166556   8.308  13.511   3.363
21553SOL    HW266557   8.296  13.382   3.284
21554SOL     OW66558   4.003  11.678   5.348
21554SOL    HW166559   3.973  11.753   5.297
21554SOL    HW266560   4.097  11.693   5.359
21555SOL     OW66561  11.073  11.854  11.647
21555SOL    HW166562  11.090  11.826  11.558
21555SOL    HW266563  11.142  11.917  11.667
21556SOL     OW66564   8.983   3.919   4.911
21556SOL    HW166565   9.024   3.948   4.993
21556SOL    HW266566   9.057   3.897   4.854
21557SOL     OW66567   3.807   5.528   8.312
21557SOL    HW166568   3.831   5.452   8.365
21557SOL    HW266569   3.885   5.549   8.262
21558SOL     OW66570  14.727   1.642   7.460
21558SOL    HW166571  14.684   1.726   7.440
21558SOL    HW266572  14.679   1.608   7.535
21559SOL     OW66573   2.455  10.554   7.803
21559SOL    HW166574   2.533  10.498   7.797
21559SOL    HW266575   2.399  10.511   7.867
21560SOL     OW66576   5.223   2.458   4.456
21560SOL    HW166577   5.270   2.536   4.427
21560SOL    HW266578   5.257   2.442   4.545
21561SOL     OW66579  10.804   4.949   6.258
21561SOL    HW166580  10.826   5.042   6.249
21561SOL    HW266581  10.821   4.912   6.171
21562SOL     OW66582  10.676  11.542  10.780
21562SOL    HW166583  10.770  11.539  10.765
21562SOL    HW266584  10.659  11.476  10.847
21563SOL     OW66585   5.125   5.082  11.636
21563SOL    HW166586   5.203   5.082  11.580
21563SOL    HW266587   5.072   5.009  11.602
21564SOL     OW66588  13.334   4.680  12.358
21564SOL    HW166589  13.262   4.651  12.301
21564SOL    HW266590  13.292   4.738  12.422
21565SOL     OW66591   0.284  12.334   6.487
21565SOL    HW166592   0.284  12.239   6.477
21565SOL    HW266593   0.192  12.357   6.501
21566SOL     OW66594   0.952   5.182  13.873
21566SOL    HW166595   1.020   5.233  13.830
21566SOL    HW266596   0.974   5.186  13.966
21567SOL     OW66597  13.697  12.130   8.796
21567SOL    HW166598  13.646  12.166   8.724
21567SOL    HW266599  13.763  12.075   8.755
21568SOL     OW66600   0.929   1.815   8.342
21568SOL    HW166601   0.894   1.877   8.406
21568SOL    HW266602   0.859   1.751   8.330
21569SOL     OW66603  14.083   0.728  10.200
21569SOL    HW166604  14.106   0.785  10.273
21569SOL    HW266605  14.167   0.693  10.169
21570SOL     OW66606  10.005  10.760   7.298
21570SOL    HW166607  10.036  10.758   7.208
21570SOL    HW266608  10.055  10.692   7.343
21571SOL     OW66609  11.627   9.934   3.777
21571SOL    HW166610  11.594   9.996   3.841
21571SOL    HW266611  11.559   9.866   3.773
21572SOL     OW66612   7.124   0.471   6.896
21572SOL    HW166613   7.105   0.495   6.987
21572SOL    HW266614   7.062   0.400   6.877
21573SOL     OW66615  11.567   7.353  10.610
21573SOL    HW166616  11.539   7.346  10.701
21573SOL    HW266617  11.595   7.265  10.587
21574SOL     OW66618   4.479   9.366   3.866
21574SOL    HW166619   4.470   9.413   3.949
21574SOL    HW266620   4.571   9.338   3.865
21575SOL     OW66621  14.216   0.486  13.601
21575SOL    HW166622  14.227   0.522  13.689
21575SOL    HW266623  14.303   0.454  13.577
21576SOL     OW66624   4.392   3.566   7.636
21576SOL    HW166625   4.369   3.618   7.713
21576SOL    HW266626   4.333   3.490   7.640
21577SOL     OW66627   7.264   7.370   9.385
21577SOL    HW166628   7.270   7.430   9.310
21577SOL    HW266629   7.338   7.310   9.374
21578SOL     OW66630   6.269   5.719   0.298
21578SOL    HW166631   6.270   5.815   0.297
21578SOL    HW266632   6.347   5.694   0.249
21579SOL     OW66633   3.735  14.169   1.678
21579SOL    HW166634   3.830  14.162   1.682
21579SOL    HW266635   3.715  14.185   1.586
21580SOL     OW66636   9.162   0.932   9.354
21580SOL    HW166637   9.258   0.925   9.355
21580SOL    HW266638   9.140   0.956   9.264
21581SOL     OW66639   9.560  14.220  13.653
21581SOL    HW166640   9.554  14.315  13.640
21581SOL    HW266641   9.507  14.204  13.732
21582SOL     OW66642  14.469   8.545   2.609
21582SOL    HW166643  14.516   8.490   2.545
21582SOL    HW266644  14.377   8.526   2.593
21583SOL     OW66645  12.268   0.928  12.205
21583SOL    HW166646  12.258   0.939  12.110
21583SOL    HW266647  12.346   0.979  12.227
21584SOL     OW66648   5.579  14.247   0.022
21584SOL    HW166649   5.644  14.185   0.055
21584SOL    HW266650   5.606  14.264  14.799
21585SOL     OW66651  11.960  10.471   4.215
21585SOL    HW166652  12.018  10.405   4.253
21585SOL    HW266653  12.018  10.546   4.199
21586SOL     OW66654   5.307   4.299   9.481
21586SOL    HW166655   5.377   4.356   9.450
21586SOL    HW266656   5.277   4.340   9.562
21587SOL     OW66657   8.720   3.218   4.293
21587SOL    HW166658   8.645   3.227   4.350
21587SOL    HW266659   8.684   3.182   4.212
21588SOL     OW66660  10.560  14.340   6.366
21588SOL    HW166661  10.644  14.297   6.381
21588SOL    HW266662  10.582  14.418   6.315
21589SOL     OW66663   8.499   5.536   7.719
21589SOL    HW166664   8.409   5.525   7.688
21589SOL    HW266665   8.525   5.623   7.688
21590SOL     OW66666   0.141   9.948   8.985
21590SOL    HW166667   0.180   9.871   8.942
21590SOL    HW266668   0.215   9.997   9.019
21591SOL     OW66669   9.637   7.279   7.703
21591SOL    HW166670   9.655   7.241   7.788
21591SOL    HW266671   9.545   7.258   7.686
21592SOL     OW66672   3.847   2.289  13.807
21592SOL    HW166673   3.923   2.232  13.814
21592SOL    HW266674   3.879   2.376  13.830
21593SOL     OW66675  13.870  12.434  11.844
21593SOL    HW166676  13.853  12.420  11.751
21593SOL    HW266677  13.787  12.411  11.887
21594SOL     OW66678   8.032   7.054   4.959
21594SOL    HW166679   7.983   6.979   4.991
21594SOL    HW266680   7.966   7.119   4.939
21595SOL     OW66681  12.912  11.316  10.414
21595SOL    HW166682  12.848  11.295  10.481
21595SOL    HW266683  12.912  11.412  10.409
21596SOL     OW66684  10.027  11.735  11.661
21596SOL    HW166685  10.039  11.798  11.732
21596SOL    HW266686  10.016  11.789  11.582
21597SOL     OW66687   1.081   3.478   7.776
21597SOL    HW166688   0.992   3.490   7.743
21597SOL    HW266689   1.128   3.557   7.747
21598SOL     OW66690  11.079  14.028   5.369
21598SOL    HW166691  11.074  14.094   5.438
21598SOL    HW266692  11.023  14.062   5.299
21599SOL     OW66693   6.824   7.830  13.844
21599SOL    HW166694   6.906   7.782  13.831
21599SOL    HW266695   6.756   7.762  13.841
21600SOL     OW66696   0.288   0.846   1.201
21600SOL    HW166697   0.318   0.900   1.128
21600SOL    HW266698   0.305   0.898   1.279
21601SOL     OW66699   9.544   5.772   5.857
21601SOL    HW166700   9.528   5.821   5.938
21601SOL    HW266701   9.639   5.768   5.850
21602SOL     OW66702   8.266  12.899   4.646
21602SOL    HW166703   8.189  12.936   4.689
21602SOL    HW266704   8.338  12.916   4.706
21603SOL     OW66705  13.293  13.584  14.396
21603SOL    HW166706  13.383  13.611  14.378
21603SOL    HW266707  13.302  13.494  14.428
21604SOL     OW66708  13.892   1.789   9.568
21604SOL    HW166709  13.920   1.867   9.521
21604SOL    HW266710  13.958   1.778   9.637
21605SOL     OW66711  11.579   1.530   4.237
21605SOL    HW166712  11.616   1.485   4.313
21605SOL    HW266713  11.594   1.470   4.164
21606SOL     OW66714  14.663   7.039   7.390
21606SOL    HW166715  14.570   7.019   7.396
21606SOL    HW266716  14.690   7.003   7.306
21607SOL     OW66717  10.129   1.768   8.089
21607SOL    HW166718  10.192   1.713   8.042
21607SOL    HW266719  10.179   1.844   8.117
21608SOL     OW66720   0.146   7.351  14.829
21608SOL    HW166721   0.119   7.259  14.835
21608SOL    HW266722   0.127   7.387   0.048
21609SOL     OW66723   3.665   7.023   6.090
21609SOL    HW166724   3.721   6.965   6.039
21609SOL    HW266725   3.721   7.099   6.109
21610SOL     OW66726   7.333   2.971  12.033
21610SOL    HW166727   7.302   3.054  12.069
21610SOL    HW266728   7.253   2.922  12.012
21611SOL     OW66729  10.279  11.472   9.914
21611SOL    HW166730  10.267  11.502   9.824
21611SOL    HW266731  10.193  11.438   9.940
21612SOL     OW66732   8.537   4.293   2.577
21612SOL    HW166733   8.593   4.351   2.525
21612SOL    HW266734   8.448   4.328   2.565
21613SOL     OW66735  12.046   6.645  14.452
21613SOL    HW166736  12.041   6.558  14.493
21613SOL    HW266737  12.125   6.641  14.399
21614SOL     OW66738   7.966   5.876   3.884
21614SOL    HW166739   7.943   5.903   3.795
21614SOL    HW266740   7.985   5.957   3.930
21615SOL     OW66741   9.328   8.979  11.772
21615SOL    HW166742   9.256   8.986  11.709
21615SOL    HW266743   9.404   8.956  11.719
21616SOL     OW66744   7.649   4.369   5.142
21616SOL    HW166745   7.580   4.303   5.134
21616SOL    HW266746   7.699   4.341   5.219
21617SOL     OW66747   8.404  12.421   2.713
21617SOL    HW166748   8.346  12.397   2.785
21617SOL    HW266749   8.415  12.339   2.664
21618SOL     OW66750   0.787   1.439   4.032
21618SOL    HW166751   0.819   1.356   3.998
21618SOL    HW266752   0.823   1.505   3.972
21619SOL     OW66753   4.826   3.198  10.654
21619SOL    HW166754   4.861   3.230  10.737
21619SOL    HW266755   4.817   3.276  10.600
21620SOL     OW66756   3.288  10.384   6.984
21620SOL    HW166757   3.261  10.475   6.997
21620SOL    HW266758   3.288  10.373   6.889
21621SOL     OW66759  13.368   2.058   7.451
21621SOL    HW166760  13.356   2.153   7.447
21621SOL    HW266761  13.410   2.043   7.535
21622SOL     OW66762   0.429  14.068  14.696
21622SOL    HW166763   0.481  14.016  14.756
21622SOL    HW266764   0.469  14.052  14.610
21623SOL     OW66765   8.521  13.064   2.976
21623SOL    HW166766   8.438  13.017   2.989
21623SOL    HW266767   8.554  13.032   2.892
21624SOL     OW66768   1.094   8.726  11.869
21624SOL    HW166769   1.047   8.690  11.793
21624SOL    HW266770   1.120   8.814  11.841
21625SOL     OW66771   1.635   9.237  13.658
21625SOL    HW166772   1.607   9.234  13.749
21625SOL    HW266773   1.554   9.238  13.608
21626SOL     OW66774   4.076   0.583   4.570
21626SOL    HW166775   4.164   0.550   4.557
21626SOL    HW266776   4.060   0.572   4.664
21627SOL     OW66777  10.327   2.399   3.743
21627SOL    HW166778  10.295   2.374   3.656
21627SOL    HW266779  10.248   2.430   3.789
21628SOL     OW66780  12.326   4.483   9.545
21628SOL    HW166781  12.393   4.419   9.520
21628SOL    HW266782  12.243   4.434   9.539
21629SOL     OW66783   0.496   1.513   1.043
21629SOL    HW166784   0.434   1.559   0.987
21629SOL    HW266785   0.502   1.567   1.122
21630SOL     OW66786  14.414   9.054   7.797
21630SOL    HW166787  14.358   9.047   7.719
21630SOL    HW266788  14.355   9.036   7.870
21631SOL     OW66789   2.789   9.788   0.720
21631SOL    HW166790   2.758   9.865   0.769
21631SOL    HW266791   2.743   9.793   0.636
21632SOL     OW66792  13.095  12.920   4.874
21632SOL    HW166793  13.162  12.854   4.887
21632SOL    HW266794  13.023  12.874   4.831
21633SOL     OW66795   3.018   4.725   5.825
21633SOL    HW166796   3.114   4.731   5.825
21633SOL    HW266797   2.991   4.773   5.904
21634SOL     OW66798  14.240   2.883  13.416
21634SOL    HW166799  14.233   2.895  13.511
21634SOL    HW266800  14.168   2.934  13.380
21635SOL     OW66801  10.215  14.162   7.226
21635SOL    HW166802  10.234  14.252   7.203
21635SOL    HW266803  10.192  14.165   7.319
21636SOL     OW66804  11.440   4.042   2.509
21636SOL    HW166805  11.428   4.013   2.418
21636SOL    HW266806  11.372   4.109   2.521
21637SOL     OW66807   1.863   7.074   6.330
21637SOL    HW166808   1.825   7.146   6.280
21637SOL    HW266809   1.853   7.101   6.422
21638SOL     OW66810  14.554   3.188  13.331
21638SOL    HW166811  14.543   3.274  13.291
21638SOL    HW266812  14.515   3.127  13.269
21639SOL     OW66813   5.463   1.455   4.496
21639SOL    HW166814   5.432   1.481   4.583
21639SOL    HW266815   5.557   1.442   4.507
21640SOL     OW66816   5.936  11.604   4.377
21640SOL    HW166817   5.965  11.687   4.339
21640SOL    HW266818   5.886  11.562   4.307
21641SOL     OW66819   7.354   1.289   9.859
21641SOL    HW166820   7.298   1.213   9.845
21641SOL    HW266821   7.391   1.308   9.773
21642SOL     OW66822  13.713   5.742   6.624
21642SOL    HW166823  13.718   5.734   6.528
21642SOL    HW266824  13.698   5.835   6.639
21643SOL     OW66825   3.026  14.497   9.648
21643SOL    HW166826   2.978  14.506   9.730
21643SOL    HW266827   3.027  14.585   9.611
21644SOL     OW66828   0.589   3.083  13.401
21644SOL    HW166829   0.613   3.017  13.466
21644SOL    HW266830   0.577   3.163  13.452
21645SOL     OW66831  10.411  13.008   3.415
21645SOL    HW166832  10.420  12.934   3.476
21645SOL    HW266833  10.425  12.969   3.328
21646SOL     OW66834   5.870   7.128   9.049
21646SOL    HW166835   5.779   7.104   9.062
21646SOL    HW266836   5.893   7.091   8.963
21647SOL     OW66837   2.023   2.166   0.634
21647SOL    HW166838   1.990   2.086   0.675
21647SOL    HW266839   2.071   2.135   0.557
21648SOL     OW66840  11.803   6.724   3.772
21648SOL    HW166841  11.828   6.653   3.713
21648SOL    HW266842  11.876   6.730   3.834
21649SOL     OW66843   5.335  10.641  13.180
21649SOL    HW166844   5.372  10.596  13.255
21649SOL    HW266845   5.258  10.589  13.156
21650SOL     OW66846  12.700  13.819   4.009
21650SOL    HW166847  12.699  13.910   4.037
21650SOL    HW266848  12.785  13.807   3.967
21651SOL     OW66849   9.251   6.541   7.980
21651SOL    HW166850   9.341   6.538   8.012
21651SOL    HW266851   9.242   6.461   7.928
21652SOL     OW66852  10.874   9.497  10.886
21652SOL    HW166853  10.808   9.433  10.913
21652SOL    HW266854  10.948   9.443  10.858
21653SOL     OW66855   8.165   6.408   1.591
21653SOL    HW166856   8.188   6.462   1.667
21653SOL    HW266857   8.136   6.325   1.628
21654SOL     OW66858   6.939   9.728   3.985
21654SOL    HW166859   6.970   9.701   4.071
21654SOL    HW266860   7.017   9.729   3.930
21655SOL     OW66861   5.610   1.496   5.266
21655SOL    HW166862   5.675   1.429   5.244
21655SOL    HW266863   5.640   1.531   5.349
21656SOL     OW66864   7.895   8.440   4.233
21656SOL    HW166865   7.981   8.464   4.199
21656SOL    HW266866   7.833   8.481   4.172
21657SOL     OW66867   6.203   8.846   8.860
21657SOL    HW166868   6.122   8.885   8.826
21657SOL    HW266869   6.245   8.918   8.908
21658SOL     OW66870   9.255   6.629   4.012
21658SOL    HW166871   9.193   6.695   4.043
21658SOL    HW266872   9.300   6.600   4.092
21659SOL     OW66873   7.483   8.905   0.905
21659SOL    HW166874   7.550   8.950   0.853
21659SOL    HW266875   7.467   8.962   0.980
21660SOL     OW66876   8.953   5.046   3.925
21660SOL    HW166877   8.905   5.127   3.907
21660SOL    HW266878   9.037   5.076   3.960
21661SOL     OW66879   6.967   9.954  11.665
21661SOL    HW166880   7.056   9.917  11.665
21661SOL    HW266881   6.924   9.914  11.590
21662SOL     OW66882   9.368   6.128   6.969
21662SOL    HW166883   9.382   6.217   7.001
21662SOL    HW266884   9.378   6.073   7.047
21663SOL     OW66885   2.421  10.058   7.712
21663SOL    HW166886   2.374  10.009   7.644
21663SOL    HW266887   2.387  10.147   7.706
21664SOL     OW66888   3.028   1.436   6.085
21664SOL    HW166889   2.979   1.430   6.168
21664SOL    HW266890   3.096   1.500   6.102
21665SOL     OW66891   9.161   5.663   8.597
21665SOL    HW166892   9.089   5.621   8.549
21665SOL    HW266893   9.172   5.609   8.675
21666SOL     OW66894   8.419  12.497   2.157
21666SOL    HW166895   8.472  12.549   2.097
21666SOL    HW266896   8.349  12.557   2.185
21667SOL     OW66897  14.736   7.895   4.561
21667SOL    HW166898  14.644   7.918   4.553
21667SOL    HW266899  14.781   7.957   4.504
21668SOL     OW66900   9.308   6.012   4.459
21668SOL    HW166901   9.369   6.030   4.531
21668SOL    HW266902   9.240   6.078   4.468
21669SOL     OW66903  11.113   4.876   1.728
21669SOL    HW166904  11.067   4.898   1.808
21669SOL    HW266905  11.087   4.944   1.666
21670SOL     OW66906   3.839   2.558   1.156
21670SOL    HW166907   3.881   2.478   1.186
21670SOL    HW266908   3.787   2.587   1.231
21671SOL     OW66909  11.494   8.574   7.939
21671SOL    HW166910  11.510   8.630   7.863
21671SOL    HW266911  11.581   8.549   7.969
21672SOL     OW66912   3.250   4.078  12.549
21672SOL    HW166913   3.162   4.068  12.585
21672SOL    HW266914   3.237   4.103  12.458
21673SOL     OW66915  13.732   9.601   7.688
21673SOL    HW166916  13.730   9.636   7.777
21673SOL    HW266917  13.642   9.611   7.657
21674SOL     OW66918   4.494   5.345   0.099
21674SOL    HW166919   4.487   5.384   0.011
21674SOL    HW266920   4.513   5.419   0.157
21675SOL     OW66921   0.964  12.487   9.866
21675SOL    HW166922   0.938  12.578   9.879
21675SOL    HW266923   0.996  12.459   9.952
21676SOL     OW66924   9.435   4.395   6.888
21676SOL    HW166925   9.426   4.323   6.951
21676SOL    HW266926   9.524   4.428   6.902
21677SOL     OW66927   6.541   5.286   1.967
21677SOL    HW166928   6.627   5.277   1.927
21677SOL    HW266929   6.480   5.257   1.899
21678SOL     OW66930  11.397   8.039  12.317
21678SOL    HW166931  11.442   8.103  12.372
21678SOL    HW266932  11.410   7.955  12.361
21679SOL     OW66933  14.325   4.825   1.366
21679SOL    HW166934  14.257   4.761   1.342
21679SOL    HW266935  14.373   4.839   1.285
21680SOL     OW66936   3.452   1.498  12.075
21680SOL    HW166937   3.481   1.520  11.987
21680SOL    HW266938   3.411   1.412  12.067
21681SOL     OW66939   6.809   8.005   8.380
21681SOL    HW166940   6.804   8.100   8.372
21681SOL    HW266941   6.901   7.986   8.395
21682SOL     OW66942   2.801   2.197  12.940
21682SOL    HW166943   2.787   2.281  12.895
21682SOL    HW266944   2.774   2.213  13.030
21683SOL     OW66945   6.629  10.256   0.793
21683SOL    HW166946   6.634  10.284   0.702
21683SOL    HW266947   6.541  10.282   0.821
21684SOL     OW66948   8.773   1.994  13.436
21684SOL    HW166949   8.765   1.959  13.525
21684SOL    HW266950   8.772   2.089  13.447
21685SOL     OW66951   7.782   4.539   6.478
21685SOL    HW166952   7.871   4.545   6.442
21685SOL    HW266953   7.760   4.446   6.472
21686SOL     OW66954  12.082  14.857  14.484
21686SOL    HW166955  12.118   0.033  14.408
21686SOL    HW266956  11.999  14.821  14.454
21687SOL     OW66957   4.657   9.117   3.801
21687SOL    HW166958   4.680   9.036   3.756
21687SOL    HW266959   4.662   9.185   3.733
21688SOL     OW66960   5.998   1.009  11.538
21688SOL    HW166961   5.952   0.954  11.473
21688SOL    HW266962   6.026   1.086  11.489
21689SOL     OW66963   6.962  11.853   1.509
21689SOL    HW166964   6.874  11.883   1.486
21689SOL    HW266965   6.958  11.758   1.498
21690SOL     OW66966   6.618   6.625   2.127
21690SOL    HW166967   6.604   6.689   2.197
21690SOL    HW266968   6.553   6.648   2.060
21691SOL     OW66969  12.776  13.310  14.134
21691SOL    HW166970  12.700  13.265  14.097
21691SOL    HW266971  12.781  13.280  14.224
21692SOL     OW66972   0.432  10.983   3.224
21692SOL    HW166973   0.364  11.047   3.204
21692SOL    HW266974   0.471  10.962   3.140
21693SOL     OW66975   5.325  13.324  14.209
21693SOL    HW166976   5.304  13.256  14.144
21693SOL    HW266977   5.357  13.275  14.285
21694SOL     OW66978   5.531   1.504  11.306
21694SOL    HW166979   5.440   1.506  11.335
21694SOL    HW266980   5.541   1.586  11.257
21695SOL     OW66981  10.352   4.600  12.916
21695SOL    HW166982  10.359   4.599  13.012
21695SOL    HW266983  10.408   4.672  12.889
21696SOL     OW66984   9.519   9.925  10.939
21696SOL    HW166985   9.567   9.922  11.022
21696SOL    HW266986   9.583   9.899  10.873
21697SOL     OW66987   0.907   3.684   0.868
21697SOL    HW166988   0.824   3.710   0.828
21697SOL    HW266989   0.949   3.767   0.893
21698SOL     OW66990  11.015  11.146   4.658
21698SOL    HW166991  11.082  11.166   4.593
21698SOL    HW266992  11.036  11.057   4.688
21699SOL     OW66993   9.164   6.452   7.066
21699SOL    HW166994   9.160   6.360   7.092
21699SOL    HW266995   9.075   6.473   7.038
21700SOL     OW66996   7.591   4.836   7.196
21700SOL    HW166997   7.523   4.779   7.234
21700SOL    HW266998   7.558   4.925   7.211
21701SOL     OW66999  13.848   2.315  14.321
21701SOL    HW167000  13.866   2.274  14.237
21701SOL    HW267001  13.771   2.268  14.354
21702SOL     OW67002  10.785   0.809   8.674
21702SOL    HW167003  10.704   0.776   8.712
21702SOL    HW267004  10.850   0.803   8.744
21703SOL     OW67005  13.573   1.348   9.177
21703SOL    HW167006  13.504   1.358   9.111
21703SOL    HW267007  13.526   1.351   9.261
21704SOL     OW67008  13.580   4.443   7.209
21704SOL    HW167009  13.487   4.465   7.198
21704SOL    HW267010  13.612   4.430   7.119
21705SOL     OW67011   9.781   3.690  13.212
21705SOL    HW167012   9.755   3.598  13.211
21705SOL    HW267013   9.735   3.729  13.138
21706SOL     OW67014  10.577   4.635   8.752
21706SOL    HW167015  10.555   4.609   8.663
21706SOL    HW267016  10.672   4.641   8.753
21707SOL     OW67017   1.525   8.895   8.232
21707SOL    HW167018   1.503   8.985   8.256
21707SOL    HW267019   1.475   8.841   8.293
21708SOL     OW67020  11.461   6.558   4.396
21708SOL    HW167021  11.544   6.547   4.349
21708SOL    HW267022  11.487   6.578   4.485
21709SOL     OW67023   2.037   3.033  13.516
21709SOL    HW167024   2.030   3.055  13.608
21709SOL    HW267025   2.111   2.972  13.511
21710SOL     OW67026   4.028  13.126   4.032
21710SOL    HW167027   4.059  13.145   4.120
21710SOL    HW267028   3.963  13.193   4.014
21711SOL     OW67029   7.422   6.577   4.414
21711SOL    HW167030   7.343   6.630   4.408
21711SOL    HW267031   7.486   6.623   4.359
21712SOL     OW67032   2.961   6.491  11.348
21712SOL    HW167033   3.043   6.533  11.375
21712SOL    HW267034   2.896   6.561  11.353
21713SOL     OW67035   6.170  10.916   5.852
21713SOL    HW167036   6.257  10.941   5.823
21713SOL    HW267037   6.142  10.987   5.910
21714SOL     OW67038  13.111   3.998   9.717
21714SOL    HW167039  13.073   4.081   9.746
21714SOL    HW267040  13.198   4.022   9.683
21715SOL     OW67041   0.582   8.603  11.509
21715SOL    HW167042   0.609   8.511  11.514
21715SOL    HW267043   0.655   8.647  11.465
21716SOL     OW67044   8.295   0.532   0.059
21716SOL    HW167045   8.356   0.515  14.855
21716SOL    HW267046   8.212   0.493   0.029
21717SOL     OW67047  12.288   4.879   1.120
21717SOL    HW167048  12.222   4.814   1.145
21717SOL    HW267049  12.298   4.868   1.026
21718SOL     OW67050  13.919   4.578  13.423
21718SOL    HW167051  13.864   4.507  13.457
21718SOL    HW267052  13.937   4.633  13.499
21719SOL     OW67053   7.297  11.105  12.729
21719SOL    HW167054   7.251  11.050  12.792
21719SOL    HW267055   7.372  11.141  12.777
21720SOL     OW67056   5.821   5.601   5.233
21720SOL    HW167057   5.913   5.626   5.224
21720SOL    HW267058   5.773   5.675   5.195
21721SOL     OW67059  12.232   2.214  10.181
21721SOL    HW167060  12.310   2.185  10.134
21721SOL    HW267061  12.181   2.262  10.115
21722SOL     OW67062  11.158   1.356   2.450
21722SOL    HW167063  11.238   1.408   2.440
21722SOL    HW267064  11.095   1.396   2.390
21723SOL     OW67065   7.465  12.893   5.675
21723SOL    HW167066   7.494  12.866   5.588
21723SOL    HW267067   7.540  12.940   5.712
21724SOL     OW67068  11.230   7.635  12.327
21724SOL    HW167069  11.311   7.589  12.303
21724SOL    HW267070  11.237   7.720  12.283
21725SOL     OW67071  13.179   0.917  14.556
21725SOL    HW167072  13.192   1.003  14.596
21725SOL    HW267073  13.201   0.854  14.624
21726SOL     OW67074   6.728   3.707   2.022
21726SOL    HW167075   6.658   3.668   2.074
21726SOL    HW267076   6.769   3.633   1.977
21727SOL     OW67077   4.774   6.360   4.968
21727SOL    HW167078   4.733   6.445   4.953
21727SOL    HW267079   4.713   6.314   5.026
21728SOL     OW67080   3.993   6.401   8.775
21728SOL    HW167081   4.062   6.429   8.835
21728SOL    HW267082   3.924   6.466   8.785
21729SOL     OW67083   0.479   9.085   8.526
21729SOL    HW167084   0.542   9.016   8.544
21729SOL    HW267085   0.507   9.122   8.442
21730SOL     OW67086   9.959   7.792   9.721
21730SOL    HW167087  10.025   7.764   9.785
21730SOL    HW267088   9.920   7.870   9.760
21731SOL     OW67089  13.599   9.670  10.397
21731SOL    HW167090  13.618   9.644  10.307
21731SOL    HW267091  13.517   9.625  10.419
21732SOL     OW67092  12.441   4.138  13.336
21732SOL    HW167093  12.415   4.197  13.265
21732SOL    HW267094  12.398   4.174  13.414
21733SOL     OW67095   4.786  10.047   1.639
21733SOL    HW167096   4.696  10.078   1.630
21733SOL    HW267097   4.831  10.080   1.561
21734SOL     OW67098   1.582   0.314   6.677
21734SOL    HW167099   1.507   0.263   6.707
21734SOL    HW267100   1.555   0.405   6.691
21735SOL     OW67101   7.294   4.507   7.100
21735SOL    HW167102   7.315   4.413   7.097
21735SOL    HW267103   7.208   4.511   7.141
21736SOL     OW67104   0.898   7.347   9.188
21736SOL    HW167105   0.897   7.425   9.243
21736SOL    HW267106   0.830   7.290   9.224
21737SOL     OW67107  10.601   7.903  13.691
21737SOL    HW167108  10.590   7.991  13.727
21737SOL    HW267109  10.639   7.916  13.605
21738SOL     OW67110   1.458  14.320   6.057
21738SOL    HW167111   1.494  14.395   6.105
21738SOL    HW267112   1.533  14.285   6.008
21739SOL     OW67113   7.715   0.318   1.835
21739SOL    HW167114   7.678   0.311   1.747
21739SOL    HW267115   7.713   0.412   1.854
21740SOL     OW67116   1.684   8.961   4.777
21740SOL    HW167117   1.681   9.054   4.754
21740SOL    HW267118   1.765   8.929   4.737
21741SOL     OW67119   6.982  12.376   9.078
21741SOL    HW167120   6.978  12.435   9.003
21741SOL    HW267121   6.898  12.388   9.123
21742SOL     OW67122   9.689   7.127   9.802
21742SOL    HW167123   9.705   7.221   9.816
21742SOL    HW267124   9.759   7.099   9.744
21743SOL     OW67125  14.378   1.299   4.623
21743SOL    HW167126  14.419   1.378   4.656
21743SOL    HW267127  14.318   1.329   4.555
21744SOL     OW67128   6.989   0.586  10.328
21744SOL    HW167129   6.905   0.559  10.365
21744SOL    HW267130   7.054   0.545  10.385
21745SOL     OW67131   7.606   7.734  14.635
21745SOL    HW167132   7.655   7.816  14.631
21745SOL    HW267133   7.521   7.759  14.671
21746SOL     OW67134   0.479   4.552   7.173
21746SOL    HW167135   0.473   4.464   7.138
21746SOL    HW267136   0.394   4.567   7.214
21747SOL     OW67137   0.425   9.240   4.677
21747SOL    HW167138   0.397   9.196   4.757
21747SOL    HW267139   0.462   9.323   4.708
21748SOL     OW67140  12.043  14.320   8.465
21748SOL    HW167141  12.036  14.414   8.449
21748SOL    HW267142  12.055  14.313   8.560
21749SOL     OW67143   0.305   3.728   3.617
21749SOL    HW167144   0.371   3.662   3.596
21749SOL    HW267145   0.338   3.769   3.697
21750SOL     OW67146  12.513  11.237  11.628
21750SOL    HW167147  12.443  11.171  11.633
21750SOL    HW267148  12.474  11.315  11.668
21751SOL     OW67149   7.727  12.915   0.760
21751SOL    HW167150   7.712  12.960   0.844
21751SOL    HW267151   7.641  12.881   0.737
21752SOL     OW67152   8.619   3.376   8.357
21752SOL    HW167153   8.570   3.341   8.282
21752SOL    HW267154   8.687   3.311   8.373
21753SOL     OW67155   8.322   6.285   8.283
21753SOL    HW167156   8.264   6.331   8.222
21753SOL    HW267157   8.323   6.339   8.361
21754SOL     OW67158   7.946   2.706  14.458
21754SOL    HW167159   7.931   2.625  14.409
21754SOL    HW267160   8.012   2.753  14.407
21755SOL     OW67161   3.378   2.900   7.106
21755SOL    HW167162   3.397   2.944   7.023
21755SOL    HW267163   3.321   2.961   7.152
21756SOL     OW67164   1.093  14.353   7.043
21756SOL    HW167165   1.159  14.307   6.991
21756SOL    HW267166   1.045  14.406   6.979
21757SOL     OW67167   7.643  13.951   4.174
21757SOL    HW167168   7.561  13.938   4.222
21757SOL    HW267169   7.698  13.876   4.199
21758SOL     OW67170  13.140   1.522   3.534
21758SOL    HW167171  13.048   1.528   3.560
21758SOL    HW267172  13.179   1.604   3.566
21759SOL     OW67173   0.487   4.496  13.940
21759SOL    HW167174   0.540   4.418  13.958
21759SOL    HW267175   0.503   4.554  14.014
21760SOL     OW67176   9.938   9.068   0.363
21760SOL    HW167177   9.880   9.050   0.436
21760SOL    HW267178  10.026   9.052   0.398
21761SOL     OW67179  13.635   5.830   3.255
21761SOL    HW167180  13.702   5.762   3.251
21761SOL    HW267181  13.618   5.842   3.349
21762SOL     OW67182   0.356   6.673  13.798
21762SOL    HW167183   0.424   6.720  13.846
21762SOL    HW267184   0.404   6.621  13.733
21763SOL     OW67185  10.518   5.367  12.996
21763SOL    HW167186  10.535   5.448  13.045
21763SOL    HW267187  10.603   5.343  12.959
21764SOL     OW67188   0.249   8.730   5.854
21764SOL    HW167189   0.188   8.804   5.856
21764SOL    HW267190   0.230   8.686   5.772
21765SOL     OW67191   5.176   6.742   6.561
21765SOL    HW167192   5.101   6.801   6.570
21765SOL    HW267193   5.251   6.793   6.590
21766SOL     OW67194  13.361   8.906   0.715
21766SOL    HW167195  13.390   8.956   0.791
21766SOL    HW267196  13.269   8.929   0.705
21767SOL     OW67197  11.501   5.420   1.696
21767SOL    HW167198  11.460   5.506   1.709
21767SOL    HW267199  11.442   5.358   1.739
21768SOL     OW67200   6.245  13.825   3.841
21768SOL    HW167201   6.301  13.849   3.767
21768SOL    HW267202   6.297  13.763   3.891
21769SOL     OW67203   9.597  11.064   5.051
21769SOL    HW167204   9.510  11.104   5.057
21769SOL    HW267205   9.627  11.085   4.963
21770SOL     OW67206   8.865  14.476   3.190
21770SOL    HW167207   8.786  14.503   3.145
21770SOL    HW267208   8.876  14.384   3.166
21771SOL     OW67209   6.827   3.066   1.776
21771SOL    HW167210   6.771   3.076   1.853
21771SOL    HW267211   6.825   2.972   1.757
21772SOL     OW67212   5.435   6.380   8.735
21772SOL    HW167213   5.445   6.455   8.676
21772SOL    HW267214   5.384   6.414   8.809
21773SOL     OW67215  12.451   7.592   9.635
21773SOL    HW167216  12.418   7.548   9.556
21773SOL    HW267217  12.542   7.612   9.615
21774SOL     OW67218   7.190   1.577   3.424
21774SOL    HW167219   7.220   1.617   3.343
21774SOL    HW267220   7.109   1.623   3.445
21775SOL     OW67221   6.396   2.703  14.375
21775SOL    HW167222   6.395   2.797  14.390
21775SOL    HW267223   6.447   2.691  14.294
21776SOL     OW67224   2.541  12.653   4.453
21776SOL    HW167225   2.459  12.701   4.446
21776SOL    HW267226   2.515  12.566   4.484
21777SOL     OW67227   2.184   2.571  13.888
21777SOL    HW167228   2.174   2.643  13.826
21777SOL    HW267229   2.175   2.612  13.974
21778SOL     OW67230   0.987  12.111   9.304
21778SOL    HW167231   1.063  12.053   9.299
21778SOL    HW267232   0.922  12.070   9.247
21779SOL     OW67233   8.136   2.309  10.538
21779SOL    HW167234   8.127   2.323  10.632
21779SOL    HW267235   8.214   2.360  10.513
21780SOL     OW67236   5.202   9.115   7.121
21780SOL    HW167237   5.169   9.025   7.132
21780SOL    HW267238   5.138   9.169   7.167
21781SOL     OW67239   2.254  13.847  12.867
21781SOL    HW167240   2.334  13.874  12.823
21781SOL    HW267241   2.269  13.866  12.959
21782SOL     OW67242  10.489   7.146   8.944
21782SOL    HW167243  10.515   7.142   9.036
21782SOL    HW267244  10.569   7.168   8.897
21783SOL     OW67245   5.684  13.884   2.105
21783SOL    HW167246   5.672  13.871   2.011
21783SOL    HW267247   5.658  13.975   2.120
21784SOL     OW67248  11.650   1.162  11.345
21784SOL    HW167249  11.572   1.158  11.401
21784SOL    HW267250  11.616   1.151  11.256
21785SOL     OW67251   3.436   5.460  13.385
21785SOL    HW167252   3.348   5.463  13.422
21785SOL    HW267253   3.464   5.369  13.397
21786SOL     OW67254   9.407  13.701   1.235
21786SOL    HW167255   9.427  13.689   1.328
21786SOL    HW267256   9.422  13.615   1.196
21787SOL     OW67257   0.821  11.237  13.061
21787SOL    HW167258   0.800  11.296  12.989
21787SOL    HW267259   0.739  11.190  13.078
21788SOL     OW67260   3.490   7.699   0.872
21788SOL    HW167261   3.456   7.752   0.800
21788SOL    HW267262   3.543   7.759   0.924
21789SOL     OW67263   4.302  13.848   9.915
21789SOL    HW167264   4.348  13.932   9.910
21789SOL    HW267265   4.241  13.858   9.988
21790SOL     OW67266  13.301  12.112   4.328
21790SOL    HW167267  13.212  12.108   4.364
21790SOL    HW267268  13.314  12.027   4.286
21791SOL     OW67269  11.246   8.357   1.496
21791SOL    HW167270  11.257   8.302   1.418
21791SOL    HW267271  11.321   8.336   1.551
21792SOL     OW67272   6.238   0.919   6.375
21792SOL    HW167273   6.313   0.977   6.389
21792SOL    HW267274   6.166   0.960   6.422
21793SOL     OW67275  11.219   8.102  12.747
21793SOL    HW167276  11.219   8.136  12.836
21793SOL    HW267277  11.139   8.050  12.742
21794SOL     OW67278  10.434   7.072   5.353
21794SOL    HW167279  10.358   7.060   5.295
21794SOL    HW267280  10.416   7.016   5.428
21795SOL     OW67281   3.694  13.452   9.571
21795SOL    HW167282   3.742  13.534   9.582
21795SOL    HW267283   3.733  13.411   9.494
21796SOL     OW67284   8.355   4.135   4.985
21796SOL    HW167285   8.354   4.230   4.997
21796SOL    HW267286   8.265   4.113   4.961
21797SOL     OW67287   5.665   4.579   3.095
21797SOL    HW167288   5.661   4.621   3.009
21797SOL    HW267289   5.757   4.552   3.104
21798SOL     OW67290  11.290   0.886   7.309
21798SOL    HW167291  11.204   0.853   7.338
21798SOL    HW267292  11.339   0.808   7.286
21799SOL     OW67293   5.791  10.507   3.203
21799SOL    HW167294   5.872  10.526   3.155
21799SOL    HW267295   5.821  10.477   3.289
21800SOL     OW67296  13.506  10.463   9.321
21800SOL    HW167297  13.571  10.393   9.319
21800SOL    HW267298  13.550  10.533   9.370
21801SOL     OW67299   6.179  11.513   3.139
21801SOL    HW167300   6.195  11.606   3.125
21801SOL    HW267301   6.222  11.493   3.222
21802SOL     OW67302   1.947   0.156   7.747
21802SOL    HW167303   1.920   0.065   7.752
21802SOL    HW267304   1.867   0.206   7.761
21803SOL     OW67305  14.361  14.422  10.118
21803SOL    HW167306  14.276  14.436  10.077
21803SOL    HW267307  14.348  14.446  10.210
21804SOL     OW67308   2.781   0.786   5.831
21804SOL    HW167309   2.842   0.738   5.774
21804SOL    HW267310   2.740   0.718   5.885
21805SOL     OW67311  10.438   0.727   4.082
21805SOL    HW167312  10.482   0.647   4.054
21805SOL    HW267313  10.502   0.773   4.136
21806SOL     OW67314  13.883  12.089   8.071
21806SOL    HW167315  13.843  12.151   8.132
21806SOL    HW267316  13.929  12.026   8.127
21807SOL     OW67317   3.386   0.535   8.497
21807SOL    HW167318   3.421   0.612   8.542
21807SOL    HW267319   3.447   0.464   8.520
21808SOL     OW67320   8.974  13.830   3.807
21808SOL    HW167321   8.943  13.752   3.762
21808SOL    HW267322   9.065  13.811   3.829
21809SOL     OW67323   7.506   9.794   5.555
21809SOL    HW167324   7.421   9.765   5.589
21809SOL    HW267325   7.498   9.889   5.547
21810SOL     OW67326  13.290   6.155  11.449
21810SOL    HW167327  13.304   6.072  11.404
21810SOL    HW267328  13.212   6.141  11.502
21811SOL     OW67329  12.814   0.642   4.967
21811SOL    HW167330  12.743   0.700   4.941
21811SOL    HW267331  12.893   0.696   4.960
21812SOL     OW67332   5.462  14.244   9.674
21812SOL    HW167333   5.536  14.224   9.732
21812SOL    HW267334   5.441  14.161   9.632
21813SOL     OW67335   2.897  14.147   9.111
21813SOL    HW167336   2.946  14.065   9.103
21813SOL    HW267337   2.889  14.161   9.205
21814SOL     OW67338   2.485   9.883   3.763
21814SOL    HW167339   2.556   9.874   3.827
21814SOL    HW267340   2.460   9.975   3.769
21815SOL     OW67341   1.962  11.114   6.025
21815SOL    HW167342   2.046  11.095   5.983
21815SOL    HW267343   1.897  11.082   5.963
21816SOL     OW67344   7.264  12.131   6.877
21816SOL    HW167345   7.282  12.096   6.964
21816SOL    HW267346   7.248  12.224   6.891
21817SOL     OW67347   0.889   1.672   2.150
21817SOL    HW167348   0.823   1.607   2.130
21817SOL    HW267349   0.847   1.731   2.213
21818SOL     OW67350  10.678   9.535   8.252
21818SOL    HW167351  10.725   9.458   8.218
21818SOL    HW267352  10.590   9.527   8.216
21819SOL     OW67353   6.538   3.335   6.398
21819SOL    HW167354   6.582   3.251   6.384
21819SOL    HW267355   6.445   3.312   6.405
21820SOL     OW67356   4.502   4.569   4.509
21820SOL    HW167357   4.511   4.564   4.414
21820SOL    HW267358   4.497   4.478   4.538
21821SOL     OW67359   8.155  12.006   4.409
21821SOL    HW167360   8.195  12.063   4.475
21821SOL    HW267361   8.086  12.060   4.370
21822SOL     OW67362   7.198   9.538   4.518
21822SOL    HW167363   7.111   9.555   4.552
21822SOL    HW267364   7.258   9.563   4.588
21823SOL     OW67365   0.107   0.515   4.367
21823SOL    HW167366   0.163   0.572   4.313
21823SOL    HW267367   0.027   0.506   4.316
21824SOL     OW67368  10.889   7.659   1.107
21824SOL    HW167369  10.804   7.691   1.138
21824SOL    HW267370  10.951   7.690   1.173
21825SOL     OW67371  14.619   9.577   6.150
21825SOL    HW167372  14.524   9.573   6.152
21825SOL    HW267373  14.642   9.562   6.058
21826SOL     OW67374   9.111   9.518   2.130
21826SOL    HW167375   9.144   9.587   2.187
21826SOL    HW267376   9.052   9.467   2.185
21827SOL     OW67377   1.926   7.209   4.265
21827SOL    HW167378   1.909   7.124   4.223
21827SOL    HW267379   1.839   7.239   4.293
21828SOL     OW67380   8.241   0.870  14.276
21828SOL    HW167381   8.206   0.849  14.362
21828SOL    HW267382   8.164   0.873  14.219
21829SOL     OW67383   0.821   5.037   1.803
21829SOL    HW167384   0.758   4.991   1.857
21829SOL    HW267385   0.832   4.981   1.726
21830SOL     OW67386   0.217  14.745  14.282
21830SOL    HW167387   0.187  14.833  14.261
21830SOL    HW267388   0.228  14.745  14.377
21831SOL     OW67389  11.152   5.344  10.608
21831SOL    HW167390  11.124   5.435  10.602
21831SOL    HW267391  11.100   5.308  10.680
21832SOL     OW67392   8.274   8.541  11.778
21832SOL    HW167393   8.262   8.509  11.868
21832SOL    HW267394   8.289   8.635  11.788
21833SOL     OW67395   8.926  11.091   1.437
21833SOL    HW167396   9.006  11.042   1.414
21833SOL    HW267397   8.865  11.024   1.466
21834SOL     OW67398   7.317   9.718  13.522
21834SOL    HW167399   7.402   9.680  13.497
21834SOL    HW267400   7.332   9.753  13.609
21835SOL     OW67401  14.685   3.886  10.010
21835SOL    HW167402  14.654   3.967   9.969
21835SOL    HW267403  14.647   3.886  10.097
21836SOL     OW67404   6.474  11.303   5.644
21836SOL    HW167405   6.490  11.371   5.708
21836SOL    HW267406   6.561  11.270   5.621
21837SOL     OW67407  12.638  13.696   2.637
21837SOL    HW167408  12.734  13.699   2.634
21837SOL    HW267409  12.615  13.748   2.713
21838SOL     OW67410  10.489   9.781   6.341
21838SOL    HW167411  10.447   9.745   6.419
21838SOL    HW267412  10.416   9.800   6.281
21839SOL     OW67413   4.914   9.427   9.190
21839SOL    HW167414   4.895   9.386   9.274
21839SOL    HW267415   5.000   9.396   9.165
21840SOL     OW67416  12.114   0.694   9.091
21840SOL    HW167417  12.123   0.599   9.089
21840SOL    HW267418  12.201   0.727   9.069
21841SOL     OW67419  13.917   1.250  11.150
21841SOL    HW167420  13.827   1.257  11.119
21841SOL    HW267421  13.966   1.310  11.095
21842SOL     OW67422   1.762  11.671   9.901
21842SOL    HW167423   1.731  11.602   9.960
21842SOL    HW267424   1.857  11.673   9.913
21843SOL     OW67425   1.006   1.777  11.947
21843SOL    HW167426   1.041   1.814  11.866
21843SOL    HW267427   0.970   1.693  11.921
21844SOL     OW67428  12.234  11.514  14.238
21844SOL    HW167429  12.321  11.509  14.200
21844SOL    HW267430  12.203  11.602  14.216
21845SOL     OW67431   5.356   6.492  10.679
21845SOL    HW167432   5.364   6.414  10.625
21845SOL    HW267433   5.276   6.479  10.729
21846SOL     OW67434  12.681   3.627   4.872
21846SOL    HW167435  12.658   3.631   4.779
21846SOL    HW267436  12.776   3.644   4.873
21847SOL     OW67437  12.543   3.207   5.165
21847SOL    HW167438  12.525   3.250   5.249
21847SOL    HW267439  12.600   3.267   5.118
21848SOL     OW67440  11.146   9.998   6.188
21848SOL    HW167441  11.200  10.050   6.247
21848SOL    HW267442  11.201   9.983   6.112
21849SOL     OW67443  12.594   0.581  13.395
21849SOL    HW167444  12.643   0.499  13.392
21849SOL    HW267445  12.574   0.600  13.303
21850SOL     OW67446   5.211   4.630   2.569
21850SOL    HW167447   5.274   4.695   2.602
21850SOL    HW267448   5.166   4.675   2.497
21851SOL     OW67449   1.804   5.490   3.375
21851SOL    HW167450   1.877   5.429   3.379
21851SOL    HW267451   1.727   5.435   3.369
21852SOL     OW67452   1.521   3.379   1.665
21852SOL    HW167453   1.599   3.368   1.720
21852SOL    HW267454   1.502   3.473   1.669
21853SOL     OW67455   9.398  10.314   7.672
21853SOL    HW167456   9.412  10.388   7.731
21853SOL    HW267457   9.381  10.354   7.586
21854SOL     OW67458   5.404   6.133   9.809
21854SOL    HW167459   5.413   6.050   9.856
21854SOL    HW267460   5.310   6.140   9.790
21855SOL     OW67461   1.338   3.801  13.029
21855SOL    HW167462   1.341   3.871  12.963
21855SOL    HW267463   1.357   3.844  13.112
21856SOL     OW67464  14.002   6.094   5.904
21856SOL    HW167465  13.962   6.166   5.953
21856SOL    HW267466  13.958   6.015   5.936
21857SOL     OW67467   4.766   1.248   0.536
21857SOL    HW167468   4.832   1.186   0.567
21857SOL    HW267469   4.801   1.280   0.453
21858SOL     OW67470   5.464   7.517  10.985
21858SOL    HW167471   5.442   7.425  10.995
21858SOL    HW267472   5.400   7.551  10.923
21859SOL     OW67473  12.255  10.245  11.523
21859SOL    HW167474  12.177  10.273  11.571
21859SOL    HW267475  12.230  10.161  11.483
21860SOL     OW67476   0.579   0.753   4.293
21860SOL    HW167477   0.491   0.780   4.319
21860SOL    HW267478   0.579   0.658   4.304
21861SOL     OW67479   2.622   3.395   2.364
21861SOL    HW167480   2.529   3.398   2.340
21861SOL    HW267481   2.622   3.379   2.458
21862SOL     OW67482  10.668   4.982   9.383
21862SOL    HW167483  10.653   5.037   9.460
21862SOL    HW267484  10.595   4.920   9.383
21863SOL     OW67485   5.018   0.102   0.468
21863SOL    HW167486   5.096   0.143   0.505
21863SOL    HW267487   4.945   0.153   0.505
21864SOL     OW67488  11.777   8.904  10.356
21864SOL    HW167489  11.749   8.822  10.314
21864SOL    HW267490  11.827   8.875  10.433
21865SOL     OW67491   3.483  12.002   4.880
21865SOL    HW167492   3.445  11.922   4.915
21865SOL    HW267493   3.440  12.014   4.796
21866SOL     OW67494  13.443  12.308   6.249
21866SOL    HW167495  13.535  12.330   6.232
21866SOL    HW267496  13.394  12.367   6.192
21867SOL     OW67497  11.019   9.805   4.113
21867SOL    HW167498  11.024   9.799   4.018
21867SOL    HW267499  11.094   9.858   4.138
21868SOL     OW67500   2.851   2.935   2.746
21868SOL    HW167501   2.892   2.896   2.669
21868SOL    HW267502   2.924   2.952   2.805
21869SOL     OW67503  14.775   7.678   1.865
21869SOL    HW167504  14.811   7.767   1.863
21869SOL    HW267505  14.851   7.623   1.884
21870SOL     OW67506   3.281   4.515   5.289
21870SOL    HW167507   3.320   4.547   5.371
21870SOL    HW267508   3.194   4.485   5.314
21871SOL     OW67509   7.297   5.181   1.203
21871SOL    HW167510   7.350   5.245   1.250
21871SOL    HW267511   7.295   5.214   1.113
21872SOL     OW67512   3.140   4.523   8.650
21872SOL    HW167513   3.151   4.618   8.656
21872SOL    HW267514   3.097   4.499   8.732
21873SOL     OW67515   0.454  11.363  12.190
21873SOL    HW167516   0.422  11.273  12.186
21873SOL    HW267517   0.398  11.406  12.254
21874SOL     OW67518   9.398  11.677   3.935
21874SOL    HW167519   9.443  11.690   4.018
21874SOL    HW267520   9.336  11.606   3.951
21875SOL     OW67521   6.424   8.438   5.835
21875SOL    HW167522   6.392   8.527   5.818
21875SOL    HW267523   6.344   8.386   5.845
21876SOL     OW67524   9.629   0.450  11.998
21876SOL    HW167525   9.642   0.473  11.906
21876SOL    HW267526   9.717   0.434  12.032
21877SOL     OW67527  11.104   6.532   0.596
21877SOL    HW167528  11.079   6.594   0.665
21877SOL    HW267529  11.116   6.449   0.643
21878SOL     OW67530   1.666  13.988   5.607
21878SOL    HW167531   1.591  14.046   5.617
21878SOL    HW267532   1.694  14.000   5.517
21879SOL     OW67533  11.198  14.601  14.136
21879SOL    HW167534  11.206  14.580  14.043
21879SOL    HW267535  11.109  14.574  14.158
21880SOL     OW67536  10.683  12.668  11.889
21880SOL    HW167537  10.588  12.660  11.890
21880SOL    HW267538  10.715  12.581  11.865
21881SOL     OW67539   2.998   3.450   5.681
21881SOL    HW167540   2.951   3.407   5.753
21881SOL    HW267541   3.088   3.457   5.713
21882SOL     OW67542   8.574  12.321  11.783
21882SOL    HW167543   8.630  12.259  11.829
21882SOL    HW267544   8.518  12.266  11.727
21883SOL     OW67545   4.948   1.201  10.880
21883SOL    HW167546   5.009   1.216  10.808
21883SOL    HW267547   4.926   1.108  10.875
21884SOL     OW67548  14.375   4.200   7.982
21884SOL    HW167549  14.439   4.180   8.050
21884SOL    HW267550  14.316   4.124   7.981
21885SOL     OW67551   0.163  14.619   6.561
21885SOL    HW167552   0.221  14.685   6.600
21885SOL    HW267553   0.105  14.593   6.632
21886SOL     OW67554   3.593   6.236   5.472
21886SOL    HW167555   3.622   6.256   5.383
21886SOL    HW267556   3.622   6.310   5.525
21887SOL     OW67557  12.923   7.436   9.788
21887SOL    HW167558  12.988   7.405   9.724
21887SOL    HW267559  12.915   7.364   9.850
21888SOL     OW67560   7.441  14.667   6.474
21888SOL    HW167561   7.359  14.689   6.518
21888SOL    HW267562   7.456  14.575   6.495
21889SOL     OW67563   8.549   1.346   4.076
21889SOL    HW167564   8.597   1.267   4.054
21889SOL    HW267565   8.553   1.401   3.997
21890SOL     OW67566  13.659   8.925  11.304
21890SOL    HW167567  13.661   8.844  11.354
21890SOL    HW267568  13.745   8.965  11.318
21891SOL     OW67569  13.114  14.179  12.919
21891SOL    HW167570  13.057  14.222  12.855
21891SOL    HW267571  13.082  14.089  12.921
21892SOL     OW67572   1.467   3.047   6.533
21892SOL    HW167573   1.551   3.032   6.490
21892SOL    HW267574   1.468   2.988   6.609
21893SOL     OW67575   8.766  11.769   1.618
21893SOL    HW167576   8.683  11.723   1.621
21893SOL    HW267577   8.829  11.703   1.590
21894SOL     OW67578   9.384   6.387   3.299
21894SOL    HW167579   9.455   6.356   3.356
21894SOL    HW267580   9.404   6.480   3.286
21895SOL     OW67581   1.589   8.806  12.027
21895SOL    HW167582   1.568   8.900  12.030
21895SOL    HW267583   1.680   8.802  12.000
21896SOL     OW67584  13.724   8.311   4.802
21896SOL    HW167585  13.774   8.372   4.856
21896SOL    HW267586  13.725   8.228   4.851
21897SOL     OW67587   3.201   8.234  12.850
21897SOL    HW167588   3.283   8.206  12.892
21897SOL    HW267589   3.139   8.244  12.922
21898SOL     OW67590  13.100  12.501   1.283
21898SOL    HW167591  13.161  12.559   1.237
21898SOL    HW267592  13.083  12.546   1.366
21899SOL     OW67593  14.846   9.730   3.538
21899SOL    HW167594   0.046   9.744   3.473
21899SOL    HW267595  14.815   9.640   3.521
21900SOL     OW67596   9.177  10.909   8.345
21900SOL    HW167597   9.188  10.943   8.256
21900SOL    HW267598   9.167  10.987   8.399
21901SOL     OW67599   9.534   2.782   3.829
21901SOL    HW167600   9.610   2.789   3.772
21901SOL    HW267601   9.520   2.688   3.839
21902SOL     OW67602  14.475  13.257  11.597
21902SOL    HW167603  14.553  13.312  11.597
21902SOL    HW267604  14.410  13.307  11.547
21903SOL     OW67605   9.867   5.152   6.126
21903SOL    HW167606   9.936   5.214   6.104
21903SOL    HW267607   9.907   5.066   6.112
21904SOL     OW67608   0.407   0.201   6.435
21904SOL    HW167609   0.500   0.181   6.447
21904SOL    HW267610   0.407   0.282   6.384
21905SOL     OW67611   8.291   3.596   1.397
21905SOL    HW167612   8.255   3.684   1.402
21905SOL    HW267613   8.219   3.543   1.362
21906SOL     OW67614  11.552   5.550   3.193
21906SOL    HW167615  11.575   5.619   3.131
21906SOL    HW267616  11.462   5.526   3.170
21907SOL     OW67617   3.232   5.766   8.647
21907SOL    HW167618   3.227   5.813   8.564
21907SOL    HW267619   3.187   5.822   8.710
21908SOL     OW67620  14.147   7.019   3.100
21908SOL    HW167621  14.152   6.983   3.189
21908SOL    HW267622  14.210   6.967   3.050
21909SOL     OW67623  12.254  10.984   4.425
21909SOL    HW167624  12.187  10.920   4.401
21909SOL    HW267625  12.246  11.053   4.359
21910SOL     OW67626   1.334   5.011  12.640
21910SOL    HW167627   1.287   4.928  12.629
21910SOL    HW267628   1.380   5.024  12.557
21911SOL     OW67629   8.107  12.495   5.370
21911SOL    HW167630   8.038  12.554   5.402
21911SOL    HW267631   8.158  12.549   5.311
21912SOL     OW67632   2.645   6.943  12.473
21912SOL    HW167633   2.585   7.016  12.490
21912SOL    HW267634   2.732   6.978  12.489
21913SOL     OW67635  10.590   3.237  13.175
21913SOL    HW167636  10.559   3.260  13.087
21913SOL    HW267637  10.685   3.228  13.164
21914SOL     OW67638   1.871  10.511   7.204
21914SOL    HW167639   1.906  10.557   7.280
21914SOL    HW267640   1.866  10.419   7.231
21915SOL     OW67641   6.682   9.467  13.861
21915SOL    HW167642   6.763   9.518  13.864
21915SOL    HW267643   6.706   9.382  13.898
21916SOL     OW67644   4.210   2.723  12.398
21916SOL    HW167645   4.240   2.709  12.308
21916SOL    HW267646   4.182   2.815  12.400
21917SOL     OW67647   9.532  10.022   4.952
21917SOL    HW167648   9.558   9.931   4.939
21917SOL    HW267649   9.527  10.032   5.047
21918SOL     OW67650   4.315  10.020  12.799
21918SOL    HW167651   4.409  10.017  12.820
21918SOL    HW267652   4.312  10.039  12.705
21919SOL     OW67653   2.600   8.193   9.260
21919SOL    HW167654   2.593   8.279   9.219
21919SOL    HW267655   2.567   8.132   9.194
21920SOL     OW67656   9.793   0.287  14.585
21920SOL    HW167657   9.841   0.364  14.615
21920SOL    HW267658   9.861   0.227  14.554
21921SOL     OW67659  12.787  10.232   8.022
21921SOL    HW167660  12.776  10.220   7.928
21921SOL    HW267661  12.765  10.147   8.061
21922SOL     OW67662   7.872  13.601   8.127
21922SOL    HW167663   7.923  13.608   8.208
21922SOL    HW267664   7.936  13.614   8.058
21923SOL     OW67665   5.136   1.645   8.797
21923SOL    HW167666   5.167   1.733   8.821
21923SOL    HW267667   5.150   1.592   8.876
21924SOL     OW67668   3.636   4.668   7.988
21924SOL    HW167669   3.708   4.674   7.925
21924SOL    HW267670   3.575   4.737   7.960
21925SOL     OW67671   4.150  13.727   6.513
21925SOL    HW167672   4.207  13.797   6.480
21925SOL    HW267673   4.205  13.649   6.515
21926SOL     OW67674  14.385  13.601  14.506
21926SOL    HW167675  14.480  13.596  14.506
21926SOL    HW267676  14.356  13.532  14.446
21927SOL     OW67677   3.431  11.906   8.100
21927SOL    HW167678   3.456  11.835   8.158
21927SOL    HW267679   3.440  11.985   8.153
21928SOL     OW67680  11.990   0.209   4.412
21928SOL    HW167681  12.039   0.172   4.339
21928SOL    HW267682  11.965   0.133   4.465
21929SOL     OW67683   6.609   2.241  13.254
21929SOL    HW167684   6.635   2.179  13.186
21929SOL    HW267685   6.641   2.326  13.224
21930SOL     OW67686   7.825  13.356   5.581
21930SOL    HW167687   7.751  13.310   5.620
21930SOL    HW267688   7.852  13.419   5.648
21931SOL     OW67689  14.317   3.846   3.560
21931SOL    HW167690  14.347   3.808   3.478
21931SOL    HW267691  14.258   3.781   3.597
21932SOL     OW67692  11.511   0.989   3.977
21932SOL    HW167693  11.495   0.955   4.066
21932SOL    HW267694  11.603   1.014   3.977
21933SOL     OW67695  11.741  14.476   8.464
21933SOL    HW167696  11.739  14.566   8.494
21933SOL    HW267697  11.804  14.475   8.392
21934SOL     OW67698   5.769   8.598  14.296
21934SOL    HW167699   5.689   8.598  14.243
21934SOL    HW267700   5.744   8.641  14.378
21935SOL     OW67701   3.676   7.793   6.159
21935SOL    HW167702   3.689   7.702   6.134
21935SOL    HW267703   3.694   7.796   6.253
21936SOL     OW67704  10.699   9.796   0.186
21936SOL    HW167705  10.648   9.731   0.138
21936SOL    HW267706  10.636   9.836   0.247
21937SOL     OW67707  11.987   1.401   4.792
21937SOL    HW167708  11.892   1.412   4.793
21937SOL    HW267709  12.012   1.397   4.884
21938SOL     OW67710   2.234   0.793  11.734
21938SOL    HW167711   2.193   0.731  11.795
21938SOL    HW267712   2.277   0.857  11.790
21939SOL     OW67713   9.480   5.752   2.769
21939SOL    HW167714   9.445   5.839   2.791
21939SOL    HW267715   9.486   5.707   2.853
21940SOL     OW67716   9.353   9.453   2.648
21940SOL    HW167717   9.290   9.409   2.705
21940SOL    HW267718   9.425   9.391   2.639
21941SOL     OW67719  12.409   9.036  14.071
21941SOL    HW167720  12.501   9.055  14.050
21941SOL    HW267721  12.400   9.059  14.163
21942SOL     OW67722   4.086  14.585   0.770
21942SOL    HW167723   4.046  14.650   0.828
21942SOL    HW267724   4.066  14.501   0.811
21943SOL     OW67725   3.445   5.453   4.935
21943SOL    HW167726   3.521   5.432   4.990
21943SOL    HW267727   3.467   5.415   4.850
21944SOL     OW67728  14.512  11.344   7.462
21944SOL    HW167729  14.598  11.373   7.432
21944SOL    HW267730  14.531  11.283   7.534
21945SOL     OW67731   2.772   6.406   4.872
21945SOL    HW167732   2.700   6.462   4.901
21945SOL    HW267733   2.752   6.320   4.910
21946SOL     OW67734   8.811  14.180   8.893
21946SOL    HW167735   8.887  14.124   8.904
21946SOL    HW267736   8.795  14.181   8.799
21947SOL     OW67737  11.474   7.814  12.443
21947SOL    HW167738  11.481   7.849  12.532
21947SOL    HW267739  11.534   7.739  12.443
21948SOL     OW67740   9.560   3.948   8.653
21948SOL    HW167741   9.476   3.906   8.636
21948SOL    HW267742   9.581   3.924   8.743
21949SOL     OW67743   3.575   9.532   4.126
21949SOL    HW167744   3.634   9.527   4.202
21949SOL    HW267745   3.522   9.453   4.133
21950SOL     OW67746   2.922   2.560  13.619
21950SOL    HW167747   2.913   2.585  13.711
21950SOL    HW267748   3.006   2.598  13.592
21951SOL     OW67749  12.745  13.668  12.364
21951SOL    HW167750  12.673  13.659  12.301
21951SOL    HW267751  12.769  13.761  12.360
21952SOL     OW67752   1.825   8.265  13.726
21952SOL    HW167753   1.892   8.214  13.772
21952SOL    HW267754   1.760   8.286  13.794
21953SOL     OW67755   6.657   9.524  14.548
21953SOL    HW167756   6.667   9.451  14.486
21953SOL    HW267757   6.622   9.596  14.495
21954SOL     OW67758   6.360   5.974   7.302
21954SOL    HW167759   6.331   5.964   7.393
21954SOL    HW267760   6.382   5.885   7.274
21955SOL     OW67761   1.386   8.514  10.100
21955SOL    HW167762   1.389   8.608  10.119
21955SOL    HW267763   1.474   8.482  10.118
21956SOL     OW67764   2.475   5.668   8.719
21956SOL    HW167765   2.494   5.591   8.772
21956SOL    HW267766   2.397   5.644   8.669
21957SOL     OW67767   9.678  11.932   6.213
21957SOL    HW167768   9.716  12.017   6.190
21957SOL    HW267769   9.749  11.884   6.255
21958SOL     OW67770   4.386   1.852  10.684
21958SOL    HW167771   4.357   1.849  10.592
21958SOL    HW267772   4.474   1.890  10.680
21959SOL     OW67773   9.491   1.869  14.188
21959SOL    HW167774   9.452   1.825  14.264
21959SOL    HW267775   9.559   1.809  14.157
21960SOL     OW67776  11.613   5.405   5.545
21960SOL    HW167777  11.605   5.411   5.450
21960SOL    HW267778  11.706   5.423   5.561
21961SOL     OW67779   9.768   6.956   0.308
21961SOL    HW167780   9.838   6.996   0.360
21961SOL    HW267781   9.813   6.924   0.230
21962SOL     OW67782  14.650   3.580   4.571
21962SOL    HW167783  14.634   3.602   4.662
21962SOL    HW267784  14.693   3.657   4.534
21963SOL     OW67785  13.589  13.071  13.074
21963SOL    HW167786  13.638  13.115  13.143
21963SOL    HW267787  13.572  13.140  13.009
21964SOL     OW67788   6.629  11.193   7.960
21964SOL    HW167789   6.595  11.209   7.872
21964SOL    HW267790   6.655  11.101   7.960
21965SOL     OW67791   0.817   7.937  11.422
21965SOL    HW167792   0.802   7.950  11.328
21965SOL    HW267793   0.911   7.924  11.430
21966SOL     OW67794  13.645   2.815  11.509
21966SOL    HW167795  13.652   2.725  11.540
21966SOL    HW267796  13.598   2.808  11.426
21967SOL     OW67797   3.541   5.328  12.354
21967SOL    HW167798   3.477   5.341  12.424
21967SOL    HW267799   3.540   5.234  12.337
21968SOL     OW67800  10.390   0.679   4.594
21968SOL    HW167801  10.323   0.654   4.657
21968SOL    HW267802  10.343   0.696   4.513
21969SOL     OW67803   0.040   2.632   9.291
21969SOL    HW167804   0.000   2.592   9.214
21969SOL    HW267805   0.134   2.628   9.275
21970SOL     OW67806   3.995   2.478   0.695
21970SOL    HW167807   3.952   2.516   0.772
21970SOL    HW267808   3.989   2.547   0.629
21971SOL     OW67809   3.495  12.822  12.836
21971SOL    HW167810   3.414  12.811  12.786
21971SOL    HW267811   3.563  12.835  12.770
21972SOL     OW67812  14.413  14.240   5.917
21972SOL    HW167813  14.351  14.244   5.844
21972SOL    HW267814  14.441  14.149   5.920
21973SOL     OW67815   9.056  12.694   8.503
21973SOL    HW167816   9.008  12.704   8.586
21973SOL    HW267817   9.110  12.773   8.498
21974SOL     OW67818  14.570   7.929   5.761
21974SOL    HW167819  14.559   7.901   5.670
21974SOL    HW267820  14.538   8.019   5.763
21975SOL     OW67821   8.638   1.740   0.622
21975SOL    HW167822   8.686   1.658   0.607
21975SOL    HW267823   8.659   1.795   0.547
21976SOL     OW67824   6.705   5.709  13.634
21976SOL    HW167825   6.687   5.803  13.640
21976SOL    HW267826   6.622   5.671  13.606
21977SOL     OW67827   1.334   7.429   7.070
21977SOL    HW167828   1.369   7.470   6.991
21977SOL    HW267829   1.239   7.434   7.059
21978SOL     OW67830   7.656   5.966   9.228
21978SOL    HW167831   7.666   5.971   9.133
21978SOL    HW267832   7.568   5.929   9.240
21979SOL     OW67833  10.661   4.153   5.046
21979SOL    HW167834  10.735   4.213   5.036
21979SOL    HW267835  10.605   4.171   4.971
21980SOL     OW67836   4.888  11.490   5.792
21980SOL    HW167837   4.909  11.438   5.714
21980SOL    HW267838   4.854  11.572   5.757
21981SOL     OW67839   7.715   8.979   1.894
21981SOL    HW167840   7.704   9.049   1.831
21981SOL    HW267841   7.633   8.929   1.890
21982SOL     OW67842   1.371   9.960   8.497
21982SOL    HW167843   1.353  10.026   8.563
21982SOL    HW267844   1.432   9.900   8.539
21983SOL     OW67845   6.305   8.302   1.187
21983SOL    HW167846   6.291   8.313   1.093
21983SOL    HW267847   6.340   8.387   1.216
21984SOL     OW67848  14.163   7.276  13.580
21984SOL    HW167849  14.229   7.324  13.530
21984SOL    HW267850  14.201   7.189  13.594
21985SOL     OW67851  13.367  13.933  10.663
21985SOL    HW167852  13.318  13.889  10.593
21985SOL    HW267853  13.344  13.884  10.742
21986SOL     OW67854  11.988   7.333   1.122
21986SOL    HW167855  12.082   7.350   1.132
21986SOL    HW267856  11.973   7.342   1.028
21987SOL     OW67857   0.962   5.561   7.022
21987SOL    HW167858   0.978   5.530   6.933
21987SOL    HW267859   0.943   5.654   7.012
21988SOL     OW67860  13.333   2.047   7.178
21988SOL    HW167861  13.361   2.045   7.269
21988SOL    HW267862  13.279   2.126   7.171
21989SOL     OW67863   6.022  10.155   3.446
21989SOL    HW167864   5.957  10.150   3.516
21989SOL    HW267865   6.106  10.151   3.490
21990SOL     OW67866   1.426  13.750   9.252
21990SOL    HW167867   1.399  13.686   9.319
21990SOL    HW267868   1.394  13.834   9.284
21991SOL     OW67869   3.202  12.837   4.727
21991SOL    HW167870   3.113  12.861   4.750
21991SOL    HW267871   3.235  12.789   4.803
21992SOL     OW67872  11.190   8.397   9.330
21992SOL    HW167873  11.198   8.467   9.264
21992SOL    HW267874  11.156   8.322   9.281
21993SOL     OW67875   4.221  13.304   5.842
21993SOL    HW167876   4.309  13.268   5.857
21993SOL    HW267877   4.172  13.282   5.921
21994SOL     OW67878  14.292   5.473  10.078
21994SOL    HW167879  14.384   5.476  10.050
21994SOL    HW267880  14.264   5.564  10.078
21995SOL     OW67881   7.062   5.339   2.437
21995SOL    HW167882   7.006   5.261   2.436
21995SOL    HW267883   7.014   5.402   2.491
21996SOL     OW67884  14.494   4.296  10.522
21996SOL    HW167885  14.533   4.210  10.537
21996SOL    HW267886  14.437   4.284  10.446
21997SOL     OW67887  12.108   3.734   4.619
21997SOL    HW167888  12.178   3.765   4.562
21997SOL    HW267889  12.150   3.676   4.682
21998SOL     OW67890  11.305   4.551   8.807
21998SOL    HW167891  11.399   4.569   8.815
21998SOL    HW267892  11.299   4.486   8.738
21999SOL     OW67893   3.532  13.075  11.707
21999SOL    HW167894   3.438  13.059  11.714
21999SOL    HW267895   3.539  13.169  11.690
22000SOL     OW67896   8.874   2.864   0.100
22000SOL    HW167897   8.863   2.927   0.030
22000SOL    HW267898   8.795   2.873   0.154
22001SOL     OW67899  11.945  11.758   4.085
22001SOL    HW167900  11.893  11.694   4.037
22001SOL    HW267901  11.962  11.828   4.022
22002SOL     OW67902   0.346   4.408   5.737
22002SOL    HW167903   0.399   4.480   5.772
22002SOL    HW267904   0.337   4.429   5.644
22003SOL     OW67905   2.407  10.242   2.872
22003SOL    HW167906   2.389  10.161   2.919
22003SOL    HW267907   2.321  10.272   2.842
22004SOL     OW67908  13.364  10.548   1.478
22004SOL    HW167909  13.293  10.541   1.414
22004SOL    HW267910  13.321  10.582   1.557
22005SOL     OW67911  14.805  14.020   6.010
22005SOL    HW167912  14.717  14.041   5.977
22005SOL    HW267913  14.819  13.929   5.983
22006SOL     OW67914   9.607   3.102   6.913
22006SOL    HW167915   9.691   3.061   6.892
22006SOL    HW267916   9.558   3.033   6.958
22007SOL     OW67917  10.564   4.305  12.761
22007SOL    HW167918  10.640   4.304  12.704
22007SOL    HW267919  10.599   4.325  12.848
22008SOL     OW67920  13.216  14.247   2.037
22008SOL    HW167921  13.204  14.328   1.987
22008SOL    HW267922  13.225  14.277   2.128
22009SOL     OW67923  10.611   8.783   1.413
22009SOL    HW167924  10.596   8.784   1.318
22009SOL    HW267925  10.674   8.712   1.427
22010SOL     OW67926  14.431   5.406   3.515
22010SOL    HW167927  14.500   5.472   3.527
22010SOL    HW267928  14.431   5.356   3.596
22011SOL     OW67929  12.927   3.649   7.005
22011SOL    HW167930  13.018   3.677   7.009
22011SOL    HW267931  12.931   3.553   7.005
22012SOL     OW67932  14.779  12.981   6.006
22012SOL    HW167933  14.839  12.954   5.936
22012SOL    HW267934  14.725  12.904   6.022
22013SOL     OW67935   1.914   5.278  11.182
22013SOL    HW167936   1.996   5.299  11.138
22013SOL    HW267937   1.911   5.182  11.180
22014SOL     OW67938   0.864   1.175   8.522
22014SOL    HW167939   0.888   1.135   8.438
22014SOL    HW267940   0.851   1.267   8.501
22015SOL     OW67941   0.167   7.411   1.691
22015SOL    HW167942   0.177   7.445   1.780
22015SOL    HW267943   0.230   7.340   1.685
22016SOL     OW67944   4.123   5.943  11.389
22016SOL    HW167945   4.146   6.033  11.364
22016SOL    HW267946   4.121   5.895  11.307
22017SOL     OW67947   4.776   0.234  11.869
22017SOL    HW167948   4.773   0.162  11.933
22017SOL    HW267949   4.684   0.255  11.854
22018SOL     OW67950   9.834  10.056   0.831
22018SOL    HW167951   9.765  10.122   0.831
22018SOL    HW267952   9.851  10.039   0.924
22019SOL     OW67953   0.197   5.255  10.339
22019SOL    HW167954   0.249   5.258  10.420
22019SOL    HW267955   0.248   5.201  10.280
22020SOL     OW67956   6.852   9.619   0.273
22020SOL    HW167957   6.757   9.625   0.279
22020SOL    HW267958   6.871   9.526   0.273
22021SOL     OW67959   6.090  11.376   7.301
22021SOL    HW167960   6.127  11.427   7.372
22021SOL    HW267961   6.113  11.285   7.322
22022SOL     OW67962  12.128   5.371   5.854
22022SOL    HW167963  12.180   5.329   5.922
22022SOL    HW267964  12.139   5.464   5.869
22023SOL     OW67965   2.806   0.096   2.847
22023SOL    HW167966   2.839   0.105   2.757
22023SOL    HW267967   2.842   0.172   2.893
22024SOL     OW67968  10.059   3.587  13.236
22024SOL    HW167969  10.039   3.494  13.231
22024SOL    HW267970   9.974   3.631  13.229
22025SOL     OW67971   3.557   9.339   1.489
22025SOL    HW167972   3.491   9.312   1.425
22025SOL    HW267973   3.544   9.280   1.563
22026SOL     OW67974   5.442   2.993   8.299
22026SOL    HW167975   5.531   2.963   8.315
22026SOL    HW267976   5.452   3.069   8.242
22027SOL     OW67977   7.953   0.115   7.187
22027SOL    HW167978   8.039   0.137   7.151
22027SOL    HW267979   7.960   0.136   7.280
22028SOL     OW67980   4.485   3.687   7.027
22028SOL    HW167981   4.523   3.604   6.999
22028SOL    HW267982   4.559   3.734   7.066
22029SOL     OW67983   4.589  14.028   1.256
22029SOL    HW167984   4.653  14.098   1.270
22029SOL    HW267985   4.558  14.041   1.167
22030SOL     OW67986  14.157  13.407  12.963
22030SOL    HW167987  14.175  13.496  12.932
22030SOL    HW267988  14.233  13.356  12.936
22031SOL     OW67989   4.955   0.588   3.650
22031SOL    HW167990   4.948   0.583   3.554
22031SOL    HW267991   4.916   0.507   3.681
22032SOL     OW67992   9.691   2.307   8.766
22032SOL    HW167993   9.758   2.300   8.698
22032SOL    HW267994   9.737   2.287   8.848
22033SOL     OW67995  13.848  12.590  10.141
22033SOL    HW167996  13.767  12.541  10.137
22033SOL    HW267997  13.912  12.529  10.179
22034SOL     OW67998   6.825   2.628  10.571
22034SOL    HW167999   6.907   2.661  10.535
22034SOL    HW268000   6.771   2.707  10.582
22035SOL     OW68001   7.397   3.453   1.642
22035SOL    HW168002   7.465   3.421   1.701
22035SOL    HW268003   7.402   3.548   1.648
22036SOL     OW68004   9.594   0.948   1.999
22036SOL    HW168005   9.620   1.006   2.070
22036SOL    HW268006   9.641   0.981   1.922
22037SOL     OW68007   2.005   7.927   1.831
22037SOL    HW168008   2.048   8.007   1.862
22037SOL    HW268009   1.970   7.886   1.910
22038SOL     OW68010   7.547  12.397   7.883
22038SOL    HW168011   7.488  12.393   7.808
22038SOL    HW268012   7.562  12.490   7.897
22039SOL     OW68013  12.202  10.245   2.810
22039SOL    HW168014  12.284  10.198   2.827
22039SOL    HW268015  12.230  10.330   2.776
22040SOL     OW68016   9.510   6.669   7.446
22040SOL    HW168017   9.555   6.751   7.466
22040SOL    HW268018   9.468   6.685   7.362
22041SOL     OW68019   6.007  11.046  11.796
22041SOL    HW168020   5.949  11.074  11.866
22041SOL    HW268021   5.963  11.074  11.715
22042SOL     OW68022   3.115   9.801  11.938
22042SOL    HW168023   3.082   9.885  11.970
22042SOL    HW268024   3.191   9.782  11.993
22043SOL     OW68025   3.582  14.641  12.723
22043SOL    HW168026   3.653  14.677  12.670
22043SOL    HW268027   3.538  14.578  12.666
22044SOL     OW68028   4.979   6.720  14.421
22044SOL    HW168029   4.995   6.765  14.504
22044SOL    HW268030   4.919   6.649  14.444
22045SOL     OW68031   4.517   6.010   3.983
22045SOL    HW168032   4.496   5.931   4.033
22045SOL    HW268033   4.612   6.009   3.975
22046SOL     OW68034   9.457   1.796  11.133
22046SOL    HW168035   9.528   1.799  11.198
22046SOL    HW268036   9.378   1.783  11.185
22047SOL     OW68037   4.491   6.896   9.546
22047SOL    HW168038   4.565   6.837   9.560
22047SOL    HW268039   4.461   6.918   9.634
22048SOL     OW68040   6.153  14.841  10.880
22048SOL    HW168041   6.088  14.852  10.949
22048SOL    HW268042   6.236  14.865  10.920
22049SOL     OW68043   6.919  10.591   9.281
22049SOL    HW168044   6.934  10.541   9.361
22049SOL    HW268045   6.849  10.543   9.236
22050SOL     OW68046  10.966  10.536   5.714
22050SOL    HW168047  10.976  10.539   5.810
22050SOL    HW268048  10.874  10.561   5.699
22051SOL     OW68049  10.711  11.854   5.049
22051SOL    HW168050  10.687  11.921   5.113
22051SOL    HW268051  10.807  11.852   5.051
22052SOL     OW68052   1.596   9.707   7.613
22052SOL    HW168053   1.636   9.620   7.607
22052SOL    HW268054   1.513   9.692   7.658
22053SOL     OW68055   5.487   1.998  11.064
22053SOL    HW168056   5.557   2.050  11.104
22053SOL    HW268057   5.407   2.045  11.088
22054SOL     OW68058   0.525  14.233   0.575
22054SOL    HW168059   0.436  14.266   0.581
22054SOL    HW268060   0.538  14.183   0.655
22055SOL     OW68061  10.531  10.019  13.831
22055SOL    HW168062  10.598   9.951  13.832
22055SOL    HW268063  10.541  10.062  13.746
22056SOL     OW68064   9.831  14.033  10.990
22056SOL    HW168065   9.895  14.078  11.045
22056SOL    HW268066   9.882  14.000  10.916
22057SOL     OW68067   2.894  10.654  10.713
22057SOL    HW168068   2.981  10.653  10.675
22057SOL    HW268069   2.836  10.681  10.641
22058SOL     OW68070  14.841   3.965   0.802
22058SOL    HW168071  14.775   3.987   0.737
22058SOL    HW268072  14.823   3.875   0.826
22059SOL     OW68073   7.369  11.459   8.922
22059SOL    HW168074   7.284  11.464   8.877
22059SOL    HW268075   7.383  11.365   8.936
22060SOL     OW68076   1.316   8.498   0.770
22060SOL    HW168077   1.225   8.494   0.799
22060SOL    HW268078   1.352   8.575   0.814
22061SOL     OW68079   5.317   5.026   9.283
22061SOL    HW168080   5.268   5.004   9.203
22061SOL    HW268081   5.315   5.121   9.286
22062SOL     OW68082   5.552   0.998  13.021
22062SOL    HW168083   5.523   0.915  13.058
22062SOL    HW268084   5.511   1.002  12.934
22063SOL     OW68085   6.417   8.285   6.769
22063SOL    HW168086   6.324   8.303   6.785
22063SOL    HW268087   6.437   8.213   6.829
22064SOL     OW68088   9.355   3.419   6.616
22064SOL    HW168089   9.327   3.454   6.700
22064SOL    HW268090   9.447   3.445   6.608
22065SOL     OW68091   6.762  11.143   6.850
22065SOL    HW168092   6.841  11.168   6.896
22065SOL    HW268093   6.740  11.219   6.796
22066SOL     OW68094  12.117  12.371   0.320
22066SOL    HW168095  12.157  12.403   0.402
22066SOL    HW268096  12.154  12.427   0.252
22067SOL     OW68097  10.603   8.774   1.144
22067SOL    HW168098  10.522   8.732   1.115
22067SOL    HW268099  10.669   8.705   1.138
22068SOL     OW68100   7.837  13.047   6.247
22068SOL    HW168101   7.810  13.131   6.285
22068SOL    HW268102   7.757  12.995   6.242
22069SOL     OW68103   1.151   8.012  10.352
22069SOL    HW168104   1.099   8.089  10.376
22069SOL    HW268105   1.229   8.048  10.311
22070SOL     OW68106  12.433   1.986   0.897
22070SOL    HW168107  12.353   1.965   0.944
22070SOL    HW268108  12.443   1.916   0.833
22071SOL     OW68109  11.951   9.984  13.540
22071SOL    HW168110  12.001   9.917  13.494
22071SOL    HW268111  11.886  10.014  13.476
22072SOL     OW68112   1.362  14.836   2.173
22072SOL    HW168113   1.387  14.747   2.199
22072SOL    HW268114   1.317  14.825   2.089
22073SOL     OW68115  11.020   3.385  12.279
22073SOL    HW168116  11.083   3.363  12.211
22073SOL    HW268117  10.948   3.428  12.233
22074SOL     OW68118  13.796   0.290   4.733
22074SOL    HW168119  13.791   0.222   4.666
22074SOL    HW268120  13.837   0.365   4.688
22075SOL     OW68121   8.628   9.629   7.926
22075SOL    HW168122   8.589   9.564   7.867
22075SOL    HW268123   8.559   9.648   7.989
22076SOL     OW68124   6.561   2.696  13.259
22076SOL    HW168125   6.618   2.772  13.266
22076SOL    HW268126   6.474   2.733  13.245
22077SOL     OW68127  12.011   0.732   1.729
22077SOL    HW168128  12.009   0.817   1.685
22077SOL    HW268129  11.963   0.673   1.672
22078SOL     OW68130   4.381  11.793   4.303
22078SOL    HW168131   4.384  11.850   4.226
22078SOL    HW268132   4.302  11.820   4.350
22079SOL     OW68133   6.247  10.946   0.341
22079SOL    HW168134   6.208  10.878   0.396
22079SOL    HW268135   6.225  10.920   0.252
22080SOL     OW68136   2.831  14.065  14.829
22080SOL    HW168137   2.743  14.098  14.848
22080SOL    HW268138   2.823  14.025  14.742
22081SOL     OW68139   4.077   8.105  14.556
22081SOL    HW168140   4.158   8.085  14.604
22081SOL    HW268141   4.095   8.188  14.513
22082SOL     OW68142   2.409   3.019  14.363
22082SOL    HW168143   2.463   2.943  14.342
22082SOL    HW268144   2.335   2.982  14.411
22083SOL     OW68145  14.543  14.809  13.326
22083SOL    HW168146  14.586  14.771  13.403
22083SOL    HW268147  14.503   0.021  13.359
22084SOL     OW68148   8.664   7.640  11.375
22084SOL    HW168149   8.717   7.664  11.451
22084SOL    HW268150   8.678   7.545  11.365
22085SOL     OW68151   7.082   5.163   3.391
22085SOL    HW168152   7.122   5.250   3.392
22085SOL    HW268153   7.061   5.144   3.482
22086SOL     OW68154   9.937   6.317  13.326
22086SOL    HW168155   9.944   6.385  13.393
22086SOL    HW268156   9.969   6.359  13.246
22087SOL     OW68157   1.649   9.955   9.789
22087SOL    HW168158   1.671   9.929   9.878
22087SOL    HW268159   1.584   9.890   9.761
22088SOL     OW68160  10.221  12.623   0.557
22088SOL    HW168161  10.281  12.676   0.610
22088SOL    HW268162  10.143  12.615   0.611
22089SOL     OW68163  12.113   2.544   5.597
22089SOL    HW168164  12.048   2.553   5.667
22089SOL    HW268165  12.119   2.449   5.582
22090SOL     OW68166   6.593   1.466   4.367
22090SOL    HW168167   6.514   1.518   4.377
22090SOL    HW268168   6.663   1.531   4.353
22091SOL     OW68169   2.877   8.789   7.351
22091SOL    HW168170   2.874   8.877   7.314
22091SOL    HW268171   2.853   8.732   7.278
22092SOL     OW68172  13.528   3.680  10.423
22092SOL    HW168173  13.494   3.768  10.440
22092SOL    HW268174  13.513   3.632  10.505
22093SOL     OW68175  12.018  11.797   0.235
22093SOL    HW168176  11.973  11.873   0.272
22093SOL    HW268177  11.953  11.726   0.239
22094SOL     OW68178  11.525  10.166  12.961
22094SOL    HW168179  11.606  10.123  12.933
22094SOL    HW268180  11.504  10.126  13.045
22095SOL     OW68181   2.910   8.113   2.208
22095SOL    HW168182   2.970   8.173   2.164
22095SOL    HW268183   2.921   8.133   2.301
22096SOL     OW68184  10.781   8.750   4.955
22096SOL    HW168185  10.718   8.758   5.027
22096SOL    HW268186  10.798   8.656   4.949
22097SOL     OW68187   7.289   7.273   7.585
22097SOL    HW168188   7.349   7.203   7.558
22097SOL    HW268189   7.342   7.332   7.638
22098SOL     OW68190  12.624   7.919   5.720
22098SOL    HW168191  12.639   7.992   5.660
22098SOL    HW268192  12.709   7.875   5.725
22099SOL     OW68193   3.873   7.206   1.726
22099SOL    HW168194   3.801   7.163   1.679
22099SOL    HW268195   3.952   7.162   1.695
22100SOL     OW68196   5.341   9.228   0.297
22100SOL    HW168197   5.286   9.150   0.290
22100SOL    HW268198   5.301   9.278   0.368
22101SOL     OW68199  11.468   7.444   5.708
22101SOL    HW168200  11.474   7.427   5.802
22101SOL    HW268201  11.547   7.404   5.672
22102SOL     OW68202   7.986   2.613   0.029
22102SOL    HW168203   7.974   2.689   0.085
22102SOL    HW268204   8.020   2.545   0.088
22103SOL     OW68205   7.266   2.701   2.500
22103SOL    HW168206   7.236   2.657   2.580
22103SOL    HW268207   7.188   2.748   2.469
22104SOL     OW68208   2.627   7.333   1.977
22104SOL    HW168209   2.604   7.412   2.027
22104SOL    HW268210   2.679   7.281   2.037
22105SOL     OW68211   7.380  10.139   3.528
22105SOL    HW168212   7.299  10.139   3.578
22105SOL    HW268213   7.427  10.216   3.559
22106SOL     OW68214  13.185   4.315   7.606
22106SOL    HW168215  13.199   4.369   7.528
22106SOL    HW268216  13.227   4.232   7.585
22107SOL     OW68217   6.356   1.487   0.769
22107SOL    HW168218   6.341   1.580   0.751
22107SOL    HW268219   6.331   1.442   0.688
22108SOL     OW68220   1.872  13.355   5.540
22108SOL    HW168221   1.905  13.434   5.499
22108SOL    HW268222   1.805  13.385   5.600
22109SOL     OW68223  11.359  12.442  10.911
22109SOL    HW168224  11.366  12.403  10.998
22109SOL    HW268225  11.351  12.367  10.852
22110SOL     OW68226   3.458   3.789   9.311
22110SOL    HW168227   3.489   3.875   9.284
22110SOL    HW268228   3.537   3.737   9.324
22111SOL     OW68229   0.244  13.280  10.396
22111SOL    HW168230   0.226  13.194  10.360
22111SOL    HW268231   0.217  13.341  10.327
22112SOL     OW68232   4.373   7.192   2.815
22112SOL    HW168233   4.385   7.237   2.899
22112SOL    HW268234   4.295   7.137   2.828
22113SOL     OW68235  13.651   9.263  11.884
22113SOL    HW168236  13.575   9.224  11.840
22113SOL    HW268237  13.724   9.207  11.860
22114SOL     OW68238  11.007   8.957  11.365
22114SOL    HW168239  11.074   8.905  11.321
22114SOL    HW268240  10.985   9.026  11.302
22115SOL     OW68241   6.387  12.323   9.500
22115SOL    HW168242   6.364  12.339   9.592
22115SOL    HW268243   6.463  12.266   9.504
22116SOL     OW68244   4.101   7.818   1.711
22116SOL    HW168245   4.137   7.809   1.800
22116SOL    HW268246   4.045   7.741   1.700
22117SOL     OW68247   8.541  11.319   3.421
22117SOL    HW168248   8.488  11.282   3.350
22117SOL    HW268249   8.576  11.400   3.385
22118SOL     OW68250   3.500   1.699   6.557
22118SOL    HW168251   3.439   1.758   6.513
22118SOL    HW268252   3.488   1.717   6.650
22119SOL     OW68253  12.022   4.500   9.023
22119SOL    HW168254  11.928   4.513   9.030
22119SOL    HW268255  12.060   4.584   9.050
22120SOL     OW68256   1.443   1.942  12.007
22120SOL    HW168257   1.355   1.979  12.005
22120SOL    HW268258   1.437   1.869  12.068
22121SOL     OW68259  14.797   2.320  10.823
22121SOL    HW168260  14.789   2.411  10.793
22121SOL    HW268261  14.852   2.278  10.758
22122SOL     OW68262   8.089   6.062  13.553
22122SOL    HW168263   7.997   6.051  13.575
22122SOL    HW268264   8.097   6.153  13.527
22123SOL     OW68265  13.062   5.810   1.430
22123SOL    HW168266  13.155   5.831   1.426
22123SOL    HW268267  13.043   5.805   1.524
22124SOL     OW68268   0.296   3.165   2.910
22124SOL    HW168269   0.356   3.221   2.960
22124SOL    HW268270   0.272   3.095   2.972
22125SOL     OW68271   9.310   8.934   2.298
22125SOL    HW168272   9.238   8.956   2.239
22125SOL    HW268273   9.385   8.918   2.240
22126SOL     OW68274  14.766   6.187   3.533
22126SOL    HW168275  14.819   6.123   3.486
22126SOL    HW268276  14.822   6.218   3.604
22127SOL     OW68277  11.878   1.642   7.962
22127SOL    HW168278  11.819   1.598   7.902
22127SOL    HW268279  11.865   1.598   8.046
22128SOL     OW68280  13.493   1.239  10.401
22128SOL    HW168281  13.549   1.314  10.420
22128SOL    HW268282  13.553   1.164  10.399
22129SOL     OW68283   7.438   3.928   8.279
22129SOL    HW168284   7.421   3.859   8.343
22129SOL    HW268285   7.501   3.889   8.218
22130SOL     OW68286   3.775   7.047  13.160
22130SOL    HW168287   3.704   7.110  13.173
22130SOL    HW268288   3.813   7.036  13.247
22131SOL     OW68289   4.123   9.739   0.570
22131SOL    HW168290   4.216   9.731   0.591
22131SOL    HW268291   4.080   9.678   0.631
22132SOL     OW68292   5.849  14.273  11.762
22132SOL    HW168293   5.941  14.250  11.748
22132SOL    HW268294   5.831  14.342  11.698
22133SOL     OW68295   6.539   7.243  10.405
22133SOL    HW168296   6.627   7.279  10.403
22133SOL    HW268297   6.544   7.163  10.353
22134SOL     OW68298   9.878  12.731   1.354
22134SOL    HW168299   9.951  12.696   1.303
22134SOL    HW268300   9.917  12.751   1.440
22135SOL     OW68301   5.035  12.301   2.192
22135SOL    HW168302   4.978  12.276   2.120
22135SOL    HW268303   5.005  12.389   2.218
22136SOL     OW68304   6.482  13.119   3.681
22136SOL    HW168305   6.546  13.169   3.631
22136SOL    HW268306   6.476  13.163   3.766
22137SOL     OW68307   7.338   8.401   4.772
22137SOL    HW168308   7.355   8.434   4.860
22137SOL    HW268309   7.419   8.355   4.749
22138SOL     OW68310   7.933  11.654   2.763
22138SOL    HW168311   7.928  11.724   2.829
22138SOL    HW268312   7.916  11.574   2.813
22139SOL     OW68313   1.622   6.954   4.708
22139SOL    HW168314   1.693   6.894   4.730
22139SOL    HW268315   1.543   6.913   4.743
22140SOL     OW68316  11.736   0.456   6.669
22140SOL    HW168317  11.649   0.483   6.642
22140SOL    HW268318  11.749   0.497   6.754
22141SOL     OW68319   8.140   2.650   4.797
22141SOL    HW168320   8.201   2.706   4.844
22141SOL    HW268321   8.145   2.681   4.706
22142SOL     OW68322   7.820   3.845  10.314
22142SOL    HW168323   7.785   3.834  10.402
22142SOL    HW268324   7.758   3.798  10.258
22143SOL     OW68325   1.012  14.611   9.509
22143SOL    HW168326   1.001  14.628   9.415
22143SOL    HW268327   1.106  14.617   9.523
22144SOL     OW68328   9.683   7.221  14.605
22144SOL    HW168329   9.686   7.187  14.694
22144SOL    HW268330   9.758   7.280  14.599
22145SOL     OW68331   9.125   7.156  14.354
22145SOL    HW168332   9.049   7.104  14.381
22145SOL    HW268333   9.143   7.214  14.428
22146SOL     OW68334  10.828   6.319   6.609
22146SOL    HW168335  10.900   6.270   6.648
22146SOL    HW268336  10.807   6.272   6.528
22147SOL     OW68337  12.690  14.405   0.261
22147SOL    HW168338  12.637  14.340   0.307
22147SOL    HW268339  12.698  14.478   0.322
22148SOL     OW68340   5.540   9.152  14.769
22148SOL    HW168341   5.546   9.124  14.861
22148SOL    HW268342   5.457   9.115  14.738
22149SOL     OW68343   3.087   9.304   9.639
22149SOL    HW168344   3.068   9.242   9.568
22149SOL    HW268345   3.121   9.250   9.710
22150SOL     OW68346   8.695   9.561   4.221
22150SOL    HW168347   8.713   9.560   4.315
22150SOL    HW268348   8.725   9.477   4.189
22151SOL     OW68349  10.376  14.528  12.110
22151SOL    HW168350  10.314  14.594  12.079
22151SOL    HW268351  10.347  14.447  12.067
22152SOL     OW68352   6.203  12.057   8.993
22152SOL    HW168353   6.220  12.081   9.084
22152SOL    HW268354   6.168  12.136   8.953
22153SOL     OW68355   6.317   3.864  11.181
22153SOL    HW168356   6.254   3.891  11.248
22153SOL    HW268357   6.345   3.946  11.140
22154SOL     OW68358   1.172   5.912   8.955
22154SOL    HW168359   1.196   5.982   8.894
22154SOL    HW268360   1.214   5.833   8.919
22155SOL     OW68361   1.375   0.175   1.229
22155SOL    HW168362   1.427   0.096   1.217
22155SOL    HW268363   1.395   0.204   1.318
22156SOL     OW68364  11.405   8.210   6.666
22156SOL    HW168365  11.309   8.215   6.671
22156SOL    HW268366  11.435   8.299   6.681
22157SOL     OW68367   3.721  10.875  10.766
22157SOL    HW168368   3.653  10.904  10.827
22157SOL    HW268369   3.743  10.786  10.794
22158SOL     OW68370   2.757  11.630  14.369
22158SOL    HW168371   2.724  11.716  14.391
22158SOL    HW268372   2.833  11.646  14.313
22159SOL     OW68373   7.987  14.069  12.832
22159SOL    HW168374   7.939  14.073  12.749
22159SOL    HW268375   7.932  14.117  12.894
22160SOL     OW68376  10.632   2.169  13.567
22160SOL    HW168377  10.697   2.199  13.630
22160SOL    HW268378  10.563   2.235  13.570
22161SOL     OW68379   2.970   1.642   9.608
22161SOL    HW168380   2.936   1.705   9.672
22161SOL    HW268381   3.018   1.578   9.661
22162SOL     OW68382   5.317  10.572   6.998
22162SOL    HW168383   5.285  10.506   6.936
22162SOL    HW268384   5.392  10.531   7.040
22163SOL     OW68385   3.263   5.224  13.522
22163SOL    HW168386   3.309   5.178  13.592
22163SOL    HW268387   3.180   5.249  13.562
22164SOL     OW68388  10.525   4.901  10.816
22164SOL    HW168389  10.553   4.811  10.833
22164SOL    HW268390  10.435   4.904  10.849
22165SOL     OW68391   1.528  13.505   8.264
22165SOL    HW168392   1.497  13.579   8.316
22165SOL    HW268393   1.587  13.458   8.324
22166SOL     OW68394   5.869  14.678   9.692
22166SOL    HW168395   5.788  14.627   9.701
22166SOL    HW268396   5.862  14.746   9.759
22167SOL     OW68397   8.037   5.611   8.010
22167SOL    HW168398   8.120   5.624   8.056
22167SOL    HW268399   7.986   5.689   8.031
22168SOL     OW68400  10.622  11.358  14.393
22168SOL    HW168401  10.666  11.436  14.428
22168SOL    HW268402  10.676  11.285  14.423
22169SOL     OW68403   1.115   1.052   1.704
22169SOL    HW168404   1.068   0.984   1.751
22169SOL    HW268405   1.079   1.134   1.739
22170SOL     OW68406  11.911   6.595   6.906
22170SOL    HW168407  11.986   6.570   6.960
22170SOL    HW268408  11.878   6.511   6.872
22171SOL     OW68409  14.118   5.978   7.754
22171SOL    HW168410  14.149   6.068   7.743
22171SOL    HW268411  14.116   5.941   7.666
22172SOL     OW68412  13.530   2.904   1.676
22172SOL    HW168413  13.502   2.979   1.728
22172SOL    HW268414  13.451   2.854   1.661
22173SOL     OW68415   1.832   8.605   3.404
22173SOL    HW168416   1.838   8.696   3.433
22173SOL    HW268417   1.772   8.607   3.330
22174SOL     OW68418   2.680   3.124  10.218
22174SOL    HW168419   2.762   3.095  10.256
22174SOL    HW268420   2.673   3.073  10.136
22175SOL     OW68421   9.807   0.638   5.802
22175SOL    HW168422   9.850   0.724   5.796
22175SOL    HW268423   9.714   0.658   5.803
22176SOL     OW68424   5.783  12.989  14.725
22176SOL    HW168425   5.793  13.082  14.744
22176SOL    HW268426   5.691  12.979  14.699
22177SOL     OW68427   0.253   6.511  10.214
22177SOL    HW168428   0.271   6.463  10.133
22177SOL    HW268429   0.236   6.443  10.279
22178SOL     OW68430   3.424   7.012   6.186
22178SOL    HW168431   3.513   7.006   6.154
22178SOL    HW268432   3.389   6.923   6.176
22179SOL     OW68433   7.378  13.312   0.346
22179SOL    HW168434   7.400  13.219   0.342
22179SOL    HW268435   7.369  13.338   0.254
22180SOL     OW68436  10.243  14.037  11.159
22180SOL    HW168437  10.335  14.043  11.132
22180SOL    HW268438  10.219  14.127  11.181
22181SOL     OW68439   7.922  11.042   0.782
22181SOL    HW168440   7.841  10.999   0.809
22181SOL    HW268441   7.971  11.053   0.863
22182SOL     OW68442   1.827   4.103  10.926
22182SOL    HW168443   1.765   4.032  10.943
22182SOL    HW268444   1.819   4.161  11.001
22183SOL     OW68445  11.726   5.599   9.693
22183SOL    HW168446  11.652   5.640   9.739
22183SOL    HW268447  11.696   5.511   9.673
22184SOL     OW68448   8.796  12.242   3.044
22184SOL    HW168449   8.857  12.289   3.101
22184SOL    HW268450   8.755  12.310   2.991
22185SOL     OW68451   4.966   2.283  13.402
22185SOL    HW168452   5.051   2.326  13.406
22185SOL    HW268453   4.906   2.344  13.445
22186SOL     OW68454   9.510  11.688  13.595
22186SOL    HW168455   9.526  11.595  13.614
22186SOL    HW268456   9.447  11.715  13.662
22187SOL     OW68457   1.914   7.861   8.782
22187SOL    HW168458   1.880   7.779   8.819
22187SOL    HW268459   1.859   7.929   8.821
22188SOL     OW68460   3.513  11.927  10.493
22188SOL    HW168461   3.576  11.915  10.564
22188SOL    HW268462   3.567  11.946  10.416
22189SOL     OW68463   4.023   5.224   1.122
22189SOL    HW168464   4.005   5.185   1.208
22189SOL    HW268465   3.938   5.256   1.092
22190SOL     OW68466  13.761  14.732   4.373
22190SOL    HW168467  13.825  14.767   4.311
22190SOL    HW268468  13.781  14.638   4.378
22191SOL     OW68469   2.672   7.859  14.541
22191SOL    HW168470   2.668   7.916  14.618
22191SOL    HW268471   2.737   7.901  14.484
22192SOL     OW68472   7.968   7.344   0.923
22192SOL    HW168473   8.025   7.349   1.000
22192SOL    HW268474   7.917   7.264   0.936
22193SOL     OW68475   3.451   2.687   8.383
22193SOL    HW168476   3.386   2.617   8.390
22193SOL    HW268477   3.507   2.675   8.460
22194SOL     OW68478   7.085   2.213   5.838
22194SOL    HW168479   7.136   2.154   5.782
22194SOL    HW268480   7.142   2.289   5.851
22195SOL     OW68481   0.405   7.457  13.377
22195SOL    HW168482   0.317   7.460  13.339
22195SOL    HW268483   0.398   7.508  13.458
22196SOL     OW68484  14.012  13.155   7.777
22196SOL    HW168485  13.966  13.223   7.827
22196SOL    HW268486  13.962  13.149   7.695
22197SOL     OW68487   3.164   4.205  10.228
22197SOL    HW168488   3.098   4.272  10.247
22197SOL    HW268489   3.186   4.167  10.313
22198SOL     OW68490   3.133  10.549   9.524
22198SOL    HW168491   3.058  10.609   9.519
22198SOL    HW268492   3.131  10.500   9.442
22199SOL     OW68493   7.436   1.052   2.780
22199SOL    HW168494   7.355   1.016   2.744
22199SOL    HW268495   7.407   1.109   2.851
22200SOL     OW68496   5.724   3.277   3.160
22200SOL    HW168497   5.803   3.269   3.215
22200SOL    HW268498   5.654   3.296   3.222
22201SOL     OW68499   0.841   4.834  10.478
22201SOL    HW168500   0.909   4.886  10.520
22201SOL    HW268501   0.843   4.750  10.525
22202SOL     OW68502   2.447   9.209  11.472
22202SOL    HW168503   2.357   9.242  11.468
22202SOL    HW268504   2.437   9.114  11.464
22203SOL     OW68505   6.233   3.080   8.261
22203SOL    HW168506   6.324   3.109   8.269
22203SOL    HW268507   6.239   2.994   8.220
22204SOL     OW68508  14.741   9.610   5.249
22204SOL    HW168509  14.779   9.560   5.176
22204SOL    HW268510  14.754   9.554   5.325
22205SOL     OW68511  12.701  12.351   8.795
22205SOL    HW168512  12.777  12.308   8.755
22205SOL    HW268513  12.728  12.442   8.807
22206SOL     OW68514   1.100   1.684   0.987
22206SOL    HW168515   1.119   1.776   0.967
22206SOL    HW268516   1.012   1.670   0.953
22207SOL     OW68517  12.210   4.277   9.917
22207SOL    HW168518  12.292   4.280   9.967
22207SOL    HW268519  12.223   4.340   9.846
22208SOL     OW68520   2.403   4.956  12.664
22208SOL    HW168521   2.354   5.007  12.729
22208SOL    HW268522   2.493   4.988  12.672
22209SOL     OW68523   7.861   9.857   7.071
22209SOL    HW168524   7.780   9.905   7.091
22209SOL    HW268525   7.912   9.862   7.151
22210SOL     OW68526   1.501   0.568   6.702
22210SOL    HW168527   1.589   0.602   6.712
22210SOL    HW268528   1.448   0.644   6.678
22211SOL     OW68529   4.486   8.291  14.488
22211SOL    HW168530   4.448   8.329  14.567
22211SOL    HW268531   4.470   8.197  14.497
22212SOL     OW68532  12.035  10.126   2.405
22212SOL    HW168533  12.102  10.109   2.339
22212SOL    HW268534  12.013  10.219   2.393
22213SOL     OW68535   9.629   3.734   9.302
22213SOL    HW168536   9.608   3.736   9.395
22213SOL    HW268537   9.647   3.641   9.284
22214SOL     OW68538   5.288   6.414  11.723
22214SOL    HW168539   5.217   6.443  11.781
22214SOL    HW268540   5.303   6.323  11.748
22215SOL     OW68541   7.516   1.660  13.287
22215SOL    HW168542   7.517   1.583  13.343
22215SOL    HW268543   7.431   1.656  13.242
22216SOL     OW68544  12.565  11.434   7.967
22216SOL    HW168545  12.482  11.408   7.927
22216SOL    HW268546  12.632  11.397   7.911
22217SOL     OW68547   7.754   7.673   7.381
22217SOL    HW168548   7.660   7.682   7.395
22217SOL    HW268549   7.771   7.579   7.392
22218SOL     OW68550  12.117   7.657   8.580
22218SOL    HW168551  12.160   7.582   8.537
22218SOL    HW268552  12.086   7.711   8.507
22219SOL     OW68553   0.426   5.226   9.419
22219SOL    HW168554   0.485   5.264   9.353
22219SOL    HW268555   0.347   5.204   9.371
22220SOL     OW68556  13.265  11.008   2.951
22220SOL    HW168557  13.198  11.024   3.017
22220SOL    HW268558  13.347  11.003   3.001
22221SOL     OW68559   4.182  10.535   9.556
22221SOL    HW168560   4.225  10.468   9.503
22221SOL    HW268561   4.220  10.618   9.526
22222SOL     OW68562   3.565   2.550   2.760
22222SOL    HW168563   3.566   2.646   2.768
22222SOL    HW268564   3.649   2.523   2.797
22223SOL     OW68565   8.205  10.546   3.393
22223SOL    HW168566   8.168  10.586   3.472
22223SOL    HW268567   8.299  10.541   3.411
22224SOL     OW68568  14.169  13.445   3.849
22224SOL    HW168569  14.226  13.461   3.774
22224SOL    HW268570  14.173  13.526   3.899
22225SOL     OW68571   0.062   5.484   3.907
22225SOL    HW168572  14.845   5.445   3.883
22225SOL    HW268573   0.082   5.544   3.835
22226SOL     OW68574  13.835   9.284  10.279
22226SOL    HW168575  13.741   9.281  10.261
22226SOL    HW268576  13.874   9.228  10.213
22227SOL     OW68577  13.135   5.393   7.496
22227SOL    HW168578  13.162   5.468   7.443
22227SOL    HW268579  13.203   5.328   7.481
22228SOL     OW68580  10.735   3.084  13.912
22228SOL    HW168581  10.780   3.081  13.828
22228SOL    HW268582  10.791   3.137  13.968
22229SOL     OW68583   5.335   0.423   3.747
22229SOL    HW168584   5.303   0.499   3.795
22229SOL    HW268585   5.255   0.373   3.725
22230SOL     OW68586  12.810  13.064   2.662
22230SOL    HW168587  12.737  13.034   2.715
22230SOL    HW268588  12.783  13.150   2.630
22231SOL     OW68589  12.717   9.555  12.789
22231SOL    HW168590  12.754   9.550  12.877
22231SOL    HW268591  12.788   9.528  12.731
22232SOL     OW68592   1.192  11.250   8.263
22232SOL    HW168593   1.124  11.296   8.311
22232SOL    HW268594   1.186  11.285   8.174
22233SOL     OW68595   1.470  13.406   6.443
22233SOL    HW168596   1.456  13.483   6.497
22233SOL    HW268597   1.506  13.439   6.361
22234SOL     OW68598   6.716   6.394   0.422
22234SOL    HW168599   6.721   6.381   0.517
22234SOL    HW268600   6.765   6.474   0.406
22235SOL     OW68601   7.824  14.273   1.087
22235SOL    HW168602   7.730  14.288   1.078
22235SOL    HW268603   7.861  14.302   1.003
22236SOL     OW68604  10.872  14.441   6.376
22236SOL    HW168605  10.950  14.397   6.409
22236SOL    HW268606  10.857  14.403   6.289
22237SOL     OW68607  10.747   6.105   9.402
22237SOL    HW168608  10.773   6.120   9.493
22237SOL    HW268609  10.814   6.149   9.351
22238SOL     OW68610   9.979  13.245   9.422
22238SOL    HW168611   9.943  13.159   9.399
22238SOL    HW268612  10.054  13.225   9.479
22239SOL     OW68613  10.476   7.545   9.896
22239SOL    HW168614  10.393   7.499   9.886
22239SOL    HW268615  10.450   7.636   9.913
22240SOL     OW68616   6.690   4.594   0.745
22240SOL    HW168617   6.776   4.628   0.720
22240SOL    HW268618   6.666   4.535   0.674
22241SOL     OW68619  10.551   2.559   9.986
22241SOL    HW168620  10.627   2.505  10.008
22241SOL    HW268621  10.539   2.548   9.892
22242SOL     OW68622   8.483  14.162   5.862
22242SOL    HW168623   8.514  14.206   5.940
22242SOL    HW268624   8.447  14.232   5.808
22243SOL     OW68625  13.953   4.848   1.699
22243SOL    HW168626  13.943   4.761   1.661
22243SOL    HW268627  13.892   4.903   1.650
22244SOL     OW68628   3.538  13.110   0.330
22244SOL    HW168629   3.498  13.131   0.246
22244SOL    HW268630   3.497  13.169   0.393
22245SOL     OW68631  11.947  12.652  11.661
22245SOL    HW168632  12.003  12.717  11.619
22245SOL    HW268633  11.862  12.696  11.669
22246SOL     OW68634   0.376   2.280   4.058
22246SOL    HW168635   0.367   2.374   4.041
22246SOL    HW268636   0.326   2.238   3.989
22247SOL     OW68637   7.299   6.454   1.707
22247SOL    HW168638   7.233   6.479   1.641
22247SOL    HW268639   7.250   6.449   1.789
22248SOL     OW68640   5.652  10.803   2.411
22248SOL    HW168641   5.571  10.792   2.360
22248SOL    HW268642   5.649  10.894   2.441
22249SOL     OW68643   9.917   9.562   2.318
22249SOL    HW168644   9.897   9.499   2.387
22249SOL    HW268645   9.876   9.526   2.239
22250SOL     OW68646   8.754   8.030   6.076
22250SOL    HW168647   8.743   7.940   6.105
22250SOL    HW268648   8.836   8.058   6.116
22251SOL     OW68649   4.755   9.597  13.411
22251SOL    HW168650   4.720   9.514  13.379
22251SOL    HW268651   4.771   9.582  13.505
22252SOL     OW68652  11.564  13.121   8.860
22252SOL    HW168653  11.500  13.146   8.927
22252SOL    HW268654  11.563  13.025   8.860
22253SOL     OW68655   1.401  12.118   2.298
22253SOL    HW168656   1.384  12.155   2.211
22253SOL    HW268657   1.334  12.156   2.354
22254SOL     OW68658   7.249   0.402   5.970
22254SOL    HW168659   7.223   0.344   6.042
22254SOL    HW268660   7.345   0.403   5.973
22255SOL     OW68661  12.424   4.598  13.591
22255SOL    HW168662  12.369   4.533  13.547
22255SOL    HW268663  12.502   4.604  13.537
22256SOL     OW68664  11.223   6.429   3.239
22256SOL    HW168665  11.288   6.477   3.289
22256SOL    HW268666  11.190   6.363   3.299
22257SOL     OW68667  10.506  11.415  12.749
22257SOL    HW168668  10.573  11.352  12.723
22257SOL    HW268669  10.433  11.398  12.689
22258SOL     OW68670   9.718  12.994  10.777
22258SOL    HW168671   9.750  12.960  10.693
22258SOL    HW268672   9.789  13.049  10.809
22259SOL     OW68673  12.973  10.072   6.545
22259SOL    HW168674  12.969   9.979   6.567
22259SOL    HW268675  12.913  10.114   6.606
22260SOL     OW68676   9.025   3.676   7.855
22260SOL    HW168677   8.993   3.727   7.781
22260SOL    HW268678   8.945   3.642   7.896
22261SOL     OW68679   6.311  13.530   8.446
22261SOL    HW168680   6.369  13.459   8.473
22261SOL    HW268681   6.242  13.530   8.512
22262SOL     OW68682   2.464   9.539  10.428
22262SOL    HW168683   2.487   9.516  10.338
22262SOL    HW268684   2.406   9.469  10.457
22263SOL     OW68685   2.425   5.261  13.540
22263SOL    HW168686   2.453   5.353  13.539
22263SOL    HW268687   2.455   5.228  13.625
22264SOL     OW68688   9.174  13.990  13.604
22264SOL    HW168689   9.211  13.902  13.600
22264SOL    HW268690   9.217  14.032  13.678
22265SOL     OW68691   6.426  12.749   7.451
22265SOL    HW168692   6.331  12.750   7.456
22265SOL    HW268693   6.447  12.818   7.388
22266SOL     OW68694   5.030  13.073  10.718
22266SOL    HW168695   5.024  13.115  10.632
22266SOL    HW268696   4.952  13.102  10.764
22267SOL     OW68697   6.920  13.247   8.242
22267SOL    HW168698   6.935  13.217   8.152
22267SOL    HW268699   6.833  13.213   8.264
22268SOL     OW68700   3.778   8.099  13.574
22268SOL    HW168701   3.792   8.181  13.621
22268SOL    HW268702   3.729   8.044  13.635
22269SOL     OW68703   9.647   3.499  12.668
22269SOL    HW168704   9.606   3.545  12.594
22269SOL    HW268705   9.732   3.471  12.634
22270SOL     OW68706  12.207   3.511   4.312
22270SOL    HW168707  12.175   3.486   4.225
22270SOL    HW268708  12.184   3.603   4.320
22271SOL     OW68709   2.808  13.799   9.384
22271SOL    HW168710   2.824  13.731   9.319
22271SOL    HW268711   2.713  13.805   9.390
22272SOL     OW68712   3.311   4.907  14.217
22272SOL    HW168713   3.223   4.939  14.238
22272SOL    HW268714   3.363   4.986  14.205
22273SOL     OW68715  12.386   3.093  12.151
22273SOL    HW168716  12.452   3.116  12.216
22273SOL    HW268717  12.424   3.021  12.101
22274SOL     OW68718   1.292   6.729   4.921
22274SOL    HW168719   1.361   6.775   4.970
22274SOL    HW268720   1.272   6.788   4.848
22275SOL     OW68721  11.225   7.703  10.651
22275SOL    HW168722  11.219   7.797  10.635
22275SOL    HW268723  11.317   7.682  10.635
22276SOL     OW68724   9.837   0.686   1.301
22276SOL    HW168725   9.764   0.624   1.312
22276SOL    HW268726   9.915   0.634   1.317
22277SOL     OW68727  11.492  13.325  13.889
22277SOL    HW168728  11.458  13.266  13.956
22277SOL    HW268729  11.423  13.390  13.877
22278SOL     OW68730  10.344  10.617  12.870
22278SOL    HW168731  10.267  10.597  12.922
22278SOL    HW268732  10.314  10.612  12.780
22279SOL     OW68733   1.611   8.999   7.520
22279SOL    HW168734   1.533   9.038   7.561
22279SOL    HW268735   1.628   8.920   7.571
22280SOL     OW68736   1.724  10.822   3.731
22280SOL    HW168737   1.680  10.777   3.658
22280SOL    HW268738   1.811  10.783   3.734
22281SOL     OW68739   5.443  13.957  13.871
22281SOL    HW168740   5.468  14.049  13.862
22281SOL    HW268741   5.520  13.915  13.911
22282SOL     OW68742  11.961  12.540   1.444
22282SOL    HW168743  11.918  12.612   1.398
22282SOL    HW268744  12.000  12.487   1.374
22283SOL     OW68745   0.751  10.602   1.418
22283SOL    HW168746   0.819  10.669   1.412
22283SOL    HW268747   0.797  10.520   1.404
22284SOL     OW68748   2.168   8.684   2.986
22284SOL    HW168749   2.129   8.709   2.903
22284SOL    HW268750   2.200   8.766   3.024
22285SOL     OW68751  12.761  13.901  13.995
22285SOL    HW168752  12.760  13.835  13.926
22285SOL    HW268753  12.796  13.856  14.072
22286SOL     OW68754  10.078   9.181   5.434
22286SOL    HW168755  10.116   9.255   5.482
22286SOL    HW268756  10.043   9.221   5.354
22287SOL     OW68757   2.329   4.203   7.689
22287SOL    HW168758   2.410   4.223   7.642
22287SOL    HW268759   2.342   4.240   7.776
22288SOL     OW68760  14.717   0.099  11.172
22288SOL    HW168761  14.742   0.014  11.208
22288SOL    HW268762  14.656   0.135  11.237
22289SOL     OW68763  14.344   0.809   4.216
22289SOL    HW168764  14.416   0.843   4.269
22289SOL    HW268765  14.288   0.763   4.278
22290SOL     OW68766   6.492   8.110  11.766
22290SOL    HW168767   6.538   8.193  11.779
22290SOL    HW268768   6.503   8.064  11.849
22291SOL     OW68769  13.301   7.572   7.620
22291SOL    HW168770  13.345   7.487   7.622
22291SOL    HW268771  13.207   7.551   7.622
22292SOL     OW68772   2.143   6.736   6.507
22292SOL    HW168773   2.184   6.817   6.537
22292SOL    HW268774   2.114   6.755   6.418
22293SOL     OW68775   8.338   2.911  13.433
22293SOL    HW168776   8.369   2.907  13.523
22293SOL    HW268777   8.418   2.915  13.380
22294SOL     OW68778   0.093  10.375  12.669
22294SOL    HW168779   0.003  10.353  12.693
22294SOL    HW268780   0.116  10.449  12.725
22295SOL     OW68781  10.674   1.505   7.367
22295SOL    HW168782  10.628   1.448   7.429
22295SOL    HW268783  10.605   1.557   7.326
22296SOL     OW68784  10.847   5.367  10.816
22296SOL    HW168785  10.836   5.311  10.893
22296SOL    HW268786  10.866   5.307  10.744
22297SOL     OW68787   9.921   3.379   8.845
22297SOL    HW168788   9.864   3.449   8.878
22297SOL    HW268789   9.866   3.331   8.783
22298SOL     OW68790   7.414   4.310   9.267
22298SOL    HW168791   7.355   4.385   9.262
22298SOL    HW268792   7.447   4.299   9.178
22299SOL     OW68793   0.833  12.821   5.826
22299SOL    HW168794   0.844  12.837   5.732
22299SOL    HW268795   0.751  12.771   5.832
22300SOL     OW68796   7.112   6.302   3.698
22300SOL    HW168797   7.136   6.328   3.609
22300SOL    HW268798   7.030   6.348   3.714
22301SOL     OW68799   5.111  14.238   5.233
22301SOL    HW168800   5.112  14.229   5.329
22301SOL    HW268801   5.091  14.330   5.217
22302SOL     OW68802   7.460   1.300   8.432
22302SOL    HW168803   7.552   1.297   8.456
22302SOL    HW268804   7.443   1.215   8.390
22303SOL     OW68805   9.840  11.038  12.072
22303SOL    HW168806   9.822  11.131  12.078
22303SOL    HW268807   9.754  10.996  12.076
22304SOL     OW68808  10.744  13.832   1.927
22304SOL    HW168809  10.815  13.783   1.884
22304SOL    HW268810  10.733  13.788   2.011
22305SOL     OW68811   7.303   4.796  14.740
22305SOL    HW168812   7.252   4.770  14.663
22305SOL    HW268813   7.387   4.753  14.728
22306SOL     OW68814  14.842   5.610   7.617
22306SOL    HW168815   0.033   5.636   7.546
22306SOL    HW268816  14.804   5.528   7.588
22307SOL     OW68817   4.104   4.683   6.107
22307SOL    HW168818   4.077   4.629   6.032
22307SOL    HW268819   4.049   4.761   6.102
22308SOL     OW68820   6.226   0.839   4.954
22308SOL    HW168821   6.213   0.845   4.860
22308SOL    HW268822   6.264   0.923   4.979
22309SOL     OW68823   9.206   7.787   4.486
22309SOL    HW168824   9.114   7.783   4.461
22309SOL    HW268825   9.207   7.840   4.566
22310SOL     OW68826   5.397  13.739  14.648
22310SOL    HW168827   5.480  13.786  14.651
22310SOL    HW268828   5.384  13.706  14.737
22311SOL     OW68829   3.340   1.670   7.156
22311SOL    HW168830   3.413   1.730   7.142
22311SOL    HW268831   3.362   1.623   7.236
22312SOL     OW68832   6.650   9.231   2.528
22312SOL    HW168833   6.555   9.230   2.540
22312SOL    HW268834   6.672   9.324   2.521
22313SOL     OW68835  10.743  12.201  13.996
22313SOL    HW168836  10.728  12.186  14.089
22313SOL    HW268837  10.769  12.293  13.990
22314SOL     OW68838   1.655   6.334   9.762
22314SOL    HW168839   1.598   6.370   9.830
22314SOL    HW268840   1.655   6.240   9.778
22315SOL     OW68841   4.209  13.063   6.937
22315SOL    HW168842   4.117  13.037   6.928
22315SOL    HW268843   4.235  13.027   7.022
22316SOL     OW68844   1.884   8.139  14.274
22316SOL    HW168845   1.845   8.221  14.306
22316SOL    HW268846   1.937   8.166  14.199
22317SOL     OW68847   6.103  12.469  10.653
22317SOL    HW168848   6.187  12.490  10.693
22317SOL    HW268849   6.062  12.408  10.714
22318SOL     OW68850   5.941  11.666   4.638
22318SOL    HW168851   5.939  11.636   4.547
22318SOL    HW268852   5.853  11.699   4.655
22319SOL     OW68853   1.875   3.639   5.563
22319SOL    HW168854   1.806   3.671   5.505
22319SOL    HW268855   1.862   3.545   5.566
22320SOL     OW68856   9.162   0.450  14.461
22320SOL    HW168857   9.188   0.359  14.446
22320SOL    HW268858   9.228   0.501  14.415
22321SOL     OW68859  13.396   6.152   0.205
22321SOL    HW168860  13.408   6.092   0.131
22321SOL    HW268861  13.443   6.110   0.277
22322SOL     OW68862   3.244  14.180  11.187
22322SOL    HW168863   3.158  14.219  11.205
22322SOL    HW268864   3.301  14.254  11.170
22323SOL     OW68865  13.120   5.141   9.209
22323SOL    HW168866  13.033   5.106   9.225
22323SOL    HW268867  13.133   5.133   9.115
22324SOL     OW68868  10.140  12.918  14.861
22324SOL    HW168869  10.057  12.949   0.028
22324SOL    HW268870  10.128  12.919  14.766
22325SOL     OW68871  12.994   2.925  11.507
22325SOL    HW168872  13.041   3.000  11.469
22325SOL    HW268873  13.035   2.849  11.465
22326SOL     OW68874   5.446  12.404   3.626
22326SOL    HW168875   5.508  12.331   3.620
22326SOL    HW268876   5.468  12.461   3.552
22327SOL     OW68877  11.188  11.556   5.690
22327SOL    HW168878  11.112  11.609   5.667
22327SOL    HW268879  11.212  11.511   5.609
22328SOL     OW68880   2.061   9.390   7.569
22328SOL    HW168881   2.113   9.358   7.644
22328SOL    HW268882   1.978   9.344   7.577
22329SOL     OW68883   5.708   9.648  14.116
22329SOL    HW168884   5.706   9.589  14.041
22329SOL    HW268885   5.672   9.597  14.188
22330SOL     OW68886   6.462   3.043   6.026
22330SOL    HW168887   6.444   3.023   6.117
22330SOL    HW268888   6.547   3.005   6.008
22331SOL     OW68889   8.933   7.698   2.986
22331SOL    HW168890   8.909   7.697   3.079
22331SOL    HW268891   9.024   7.728   2.985
22332SOL     OW68892   2.538   6.915  13.670
22332SOL    HW168893   2.468   6.849  13.675
22332SOL    HW268894   2.572   6.906  13.581
22333SOL     OW68895   4.023   4.488   9.388
22333SOL    HW168896   4.071   4.488   9.471
22333SOL    HW268897   3.931   4.490   9.414
22334SOL     OW68898   6.405   5.721   8.091
22334SOL    HW168899   6.344   5.655   8.058
22334SOL    HW268900   6.350   5.784   8.138
22335SOL     OW68901  10.904   0.329  14.210
22335SOL    HW168902  10.882   0.372  14.293
22335SOL    HW268903  10.828   0.274  14.190
22336SOL     OW68904  10.136  10.517   7.323
22336SOL    HW168905  10.093  10.473   7.249
22336SOL    HW268906  10.137  10.452   7.393
22337SOL     OW68907   4.993  14.011   6.701
22337SOL    HW168908   5.028  14.029   6.789
22337SOL    HW268909   4.998  13.916   6.693
22338SOL     OW68910  10.213  12.385  14.462
22338SOL    HW168911  10.136  12.441  14.452
22338SOL    HW268912  10.243  12.370  14.373
22339SOL     OW68913   1.194   5.712  10.950
22339SOL    HW168914   1.171   5.804  10.938
22339SOL    HW268915   1.283   5.704  10.916
22340SOL     OW68916   9.928  12.375  14.662
22340SOL    HW168917  10.005  12.319  14.669
22340SOL    HW268918   9.957  12.459  14.697
22341SOL     OW68919  12.816   2.080  10.399
22341SOL    HW168920  12.733   2.107  10.440
22341SOL    HW268921  12.828   2.142  10.328
22342SOL     OW68922   1.056   8.201  12.168
22342SOL    HW168923   1.078   8.291  12.192
22342SOL    HW268924   1.138   8.153  12.180
22343SOL     OW68925   9.711   9.824   6.447
22343SOL    HW168926   9.672   9.739   6.465
22343SOL    HW268927   9.637   9.882   6.430
22344SOL     OW68928  14.829   0.695   4.113
22344SOL    HW168929   0.041   0.643   4.104
22344SOL    HW268930  14.762   0.632   4.138
22345SOL     OW68931   4.783  13.753  13.854
22345SOL    HW168932   4.828  13.703  13.923
22345SOL    HW268933   4.814  13.843  13.865
22346SOL     OW68934   9.460   0.552   9.674
22346SOL    HW168935   9.547   0.543   9.712
22346SOL    HW268936   9.400   0.520   9.742
22347SOL     OW68937   5.369  14.492   8.677
22347SOL    HW168938   5.434  14.524   8.740
22347SOL    HW268939   5.291  14.544   8.695
22348SOL     OW68940  10.238   5.796  12.260
22348SOL    HW168941  10.209   5.740  12.187
22348SOL    HW268942  10.159   5.838  12.291
22349SOL     OW68943   0.850   4.270   1.862
22349SOL    HW168944   0.895   4.280   1.946
22349SOL    HW268945   0.806   4.185   1.868
22350SOL     OW68946   5.366   3.481   2.071
22350SOL    HW168947   5.349   3.546   2.140
22350SOL    HW268948   5.379   3.533   1.992
22351SOL     OW68949   8.062  11.453   2.492
22351SOL    HW168950   8.057  11.548   2.503
22351SOL    HW268951   8.006  11.435   2.417
22352SOL     OW68952   6.522  10.116  13.565
22352SOL    HW168953   6.502  10.023  13.560
22352SOL    HW268954   6.510  10.148  13.476
22353SOL     OW68955   7.179   7.443   9.649
22353SOL    HW168956   7.206   7.412   9.562
22353SOL    HW268957   7.105   7.387   9.672
22354SOL     OW68958   6.807  11.982   7.087
22354SOL    HW168959   6.749  11.910   7.111
22354SOL    HW268960   6.749  12.046   7.045
22355SOL     OW68961  11.127  12.717  10.676
22355SOL    HW168962  11.088  12.767  10.748
22355SOL    HW268963  11.115  12.772  10.599
22356SOL     OW68964   3.749   3.388   7.020
22356SOL    HW168965   3.765   3.322   6.953
22356SOL    HW268966   3.836   3.411   7.053
22357SOL     OW68967   4.406   2.414   5.229
22357SOL    HW168968   4.461   2.392   5.154
22357SOL    HW268969   4.397   2.333   5.278
22358SOL     OW68970   5.752   1.593  10.608
22358SOL    HW168971   5.837   1.552  10.623
22358SOL    HW268972   5.717   1.608  10.696
22359SOL     OW68973   8.963   2.345  10.015
22359SOL    HW168974   8.903   2.332  10.089
22359SOL    HW268975   8.907   2.377   9.945
22360SOL     OW68976  11.919   9.969   7.226
22360SOL    HW168977  11.886  10.056   7.201
22360SOL    HW268978  11.848   9.909   7.205
22361SOL     OW68979  12.490  12.377   0.354
22361SOL    HW168980  12.527  12.465   0.358
22361SOL    HW268981  12.447  12.373   0.269
22362SOL     OW68982   1.430   1.327  12.216
22362SOL    HW168983   1.460   1.375  12.293
22362SOL    HW268984   1.457   1.236  12.233
22363SOL     OW68985   4.293  13.269  14.589
22363SOL    HW168986   4.357  13.257  14.519
22363SOL    HW268987   4.341  13.251  14.669
22364SOL     OW68988   7.818   4.872  11.957
22364SOL    HW168989   7.855   4.951  11.920
22364SOL    HW268990   7.883   4.842  12.021
22365SOL     OW68991   0.451   6.026  12.461
22365SOL    HW168992   0.392   6.060  12.393
22365SOL    HW268993   0.537   6.022  12.418
22366SOL     OW68994   1.228   0.087  11.888
22366SOL    HW168995   1.243   0.182  11.885
22366SOL    HW268996   1.168   0.075  11.961
22367SOL     OW68997  11.636  11.352   6.681
22367SOL    HW168998  11.612  11.367   6.590
22367SOL    HW268999  11.590  11.422   6.729
22368SOL     OW69000   1.589  11.854   3.118
22368SOL    HW169001   1.662  11.869   3.059
22368SOL    HW269002   1.512  11.882   3.069
22369SOL     OW69003   8.576   3.314  10.486
22369SOL    HW169004   8.522   3.244  10.523
22369SOL    HW269005   8.636   3.269  10.426
22370SOL     OW69006   4.881  14.822  10.060
22370SOL    HW169007   4.873  14.858   9.972
22370SOL    HW269008   4.802  14.769  10.072
22371SOL     OW69009  14.131   9.619   4.414
22371SOL    HW169010  14.224   9.606   4.429
22371SOL    HW269011  14.096   9.647   4.499
22372SOL     OW69012  12.297   1.790  14.033
22372SOL    HW169013  12.221   1.834  14.071
22372SOL    HW269014  12.372   1.823  14.083
22373SOL     OW69015   2.240  14.722   9.602
22373SOL    HW169016   2.191  14.749   9.524
22373SOL    HW269017   2.304  14.791   9.615
22374SOL     OW69018   2.233   9.847   1.711
22374SOL    HW169019   2.148   9.890   1.709
22374SOL    HW269020   2.268   9.866   1.798
22375SOL     OW69021   0.232   6.705  12.183
22375SOL    HW169022   0.263   6.677  12.269
22375SOL    HW269023   0.158   6.647  12.164
22376SOL     OW69024   0.253   7.026   0.776
22376SOL    HW169025   0.294   6.974   0.708
22376SOL    HW269026   0.197   7.088   0.729
22377SOL     OW69027  11.098   0.304   4.415
22377SOL    HW169028  11.174   0.250   4.395
22377SOL    HW269029  11.031   0.276   4.352
22378SOL     OW69030  14.219   7.548   4.452
22378SOL    HW169031  14.286   7.501   4.503
22378SOL    HW269032  14.168   7.479   4.411
22379SOL     OW69033   3.243   1.861  14.327
22379SOL    HW169034   3.229   1.934  14.266
22379SOL    HW269035   3.299   1.897  14.396
22380SOL     OW69036   0.739  10.286   0.537
22380SOL    HW169037   0.743  10.297   0.442
22380SOL    HW269038   0.668  10.222   0.551
22381SOL     OW69039   8.504   7.082  13.921
22381SOL    HW169040   8.568   7.088  13.992
22381SOL    HW269041   8.420   7.100  13.962
22382SOL     OW69042   3.102  13.805   3.220
22382SOL    HW169043   3.074  13.816   3.129
22382SOL    HW269044   3.153  13.723   3.220
22383SOL     OW69045  13.142  13.586   2.354
22383SOL    HW169046  13.190  13.663   2.323
22383SOL    HW269047  13.148  13.524   2.282
22384SOL     OW69048  10.900   7.310  10.058
22384SOL    HW169049  10.953   7.348  10.128
22384SOL    HW269050  10.816   7.355  10.064
22385SOL     OW69051  12.656   6.750  13.272
22385SOL    HW169052  12.663   6.779  13.181
22385SOL    HW269053  12.746   6.755  13.305
22386SOL     OW69054   2.636   1.642   2.611
22386SOL    HW169055   2.547   1.612   2.630
22386SOL    HW269056   2.630   1.737   2.615
22387SOL     OW69057  10.862   0.300  10.958
22387SOL    HW169058  10.882   0.344  11.042
22387SOL    HW269059  10.895   0.360  10.892
22388SOL     OW69060   7.000  14.791   9.924
22388SOL    HW169061   7.049  14.857   9.973
22388SOL    HW269062   6.908  14.814   9.938
22389SOL     OW69063   6.783   6.701  12.645
22389SOL    HW169064   6.824   6.780  12.608
22389SOL    HW269065   6.697   6.698  12.603
22390SOL     OW69066   8.570   2.859  10.004
22390SOL    HW169067   8.511   2.854   9.929
22390SOL    HW269068   8.514   2.839  10.079
22391SOL     OW69069  10.118   5.250   8.184
22391SOL    HW169070  10.051   5.212   8.126
22391SOL    HW269071  10.201   5.224   8.143
22392SOL     OW69072   8.751   7.236   0.654
22392SOL    HW169073   8.712   7.265   0.736
22392SOL    HW269074   8.677   7.227   0.593
22393SOL     OW69075  14.385  13.970   6.589
22393SOL    HW169076  14.379  14.047   6.533
22393SOL    HW269077  14.334  13.903   6.542
22394SOL     OW69078   8.396   2.943   8.630
22394SOL    HW169079   8.395   2.947   8.534
22394SOL    HW269080   8.360   2.857   8.651
22395SOL     OW69081  13.417   3.204   5.732
22395SOL    HW169082  13.497   3.160   5.704
22395SOL    HW269083  13.352   3.179   5.668
22396SOL     OW69084   1.711  14.671   1.918
22396SOL    HW169085   1.717  14.716   2.002
22396SOL    HW269086   1.764  14.592   1.929
22397SOL     OW69087   6.593   8.136  12.460
22397SOL    HW169088   6.665   8.112  12.519
22397SOL    HW269089   6.514   8.121  12.513
22398SOL     OW69090   8.835   4.139   4.291
22398SOL    HW169091   8.857   4.047   4.277
22398SOL    HW269092   8.834   4.177   4.203
22399SOL     OW69093   8.510   6.954   8.095
22399SOL    HW169094   8.579   6.952   8.162
22399SOL    HW269095   8.459   7.032   8.117
22400SOL     OW69096   6.841   2.995   8.969
22400SOL    HW169097   6.847   3.050   8.891
22400SOL    HW269098   6.813   2.910   8.936
22401SOL     OW69099   2.933   6.241   6.042
22401SOL    HW169100   2.964   6.243   5.951
22401SOL    HW269101   2.884   6.323   6.052
22402SOL     OW69102   2.631   8.933  10.818
22402SOL    HW169103   2.673   8.973  10.742
22402SOL    HW269104   2.613   8.843  10.791
22403SOL     OW69105  11.022   7.186  12.609
22403SOL    HW169106  11.049   7.261  12.663
22403SOL    HW269107  11.001   7.118  12.673
22404SOL     OW69108  13.586  13.727  13.085
22404SOL    HW169109  13.570  13.820  13.104
22404SOL    HW269110  13.559  13.681  13.164
22405SOL     OW69111  14.835   6.988   7.787
22405SOL    HW169112  14.756   6.973   7.736
22405SOL    HW269113  14.814   7.061   7.845
22406SOL     OW69114  11.239   1.265   4.257
22406SOL    HW169115  11.324   1.256   4.301
22406SOL    HW269116  11.250   1.220   4.173
22407SOL     OW69117  14.428   5.427  13.779
22407SOL    HW169118  14.438   5.370  13.856
22407SOL    HW269119  14.430   5.366  13.705
22408SOL     OW69120  11.866  14.113   0.721
22408SOL    HW169121  11.909  14.037   0.761
22408SOL    HW269122  11.938  14.165   0.684
22409SOL     OW69123  11.039  11.034   4.324
22409SOL    HW169124  11.041  11.119   4.368
22409SOL    HW269125  10.969  11.042   4.259
22410SOL     OW69126   3.309   3.622   7.128
22410SOL    HW169127   3.307   3.530   7.154
22410SOL    HW269128   3.393   3.633   7.085
22411SOL     OW69129   8.351   0.992  11.561
22411SOL    HW169130   8.329   1.023  11.649
22411SOL    HW269131   8.267   0.991  11.514
22412SOL     OW69132  11.700  10.336  14.745
22412SOL    HW169133  11.665  10.410  14.695
22412SOL    HW269134  11.787  10.321  14.707
22413SOL     OW69135  11.612   9.261   6.101
22413SOL    HW169136  11.589   9.295   6.188
22413SOL    HW269137  11.550   9.303   6.042
22414SOL     OW69138   7.943   2.298   0.471
22414SOL    HW169139   7.922   2.206   0.489
22414SOL    HW269140   7.989   2.328   0.549
22415SOL     OW69141   4.077  13.979   5.220
22415SOL    HW169142   4.038  13.892   5.212
22415SOL    HW269143   4.169  13.962   5.243
22416SOL     OW69144  11.817   8.445   2.668
22416SOL    HW169145  11.797   8.485   2.584
22416SOL    HW269146  11.904   8.406   2.656
22417SOL     OW69147  12.305  13.145   8.945
22417SOL    HW169148  12.386  13.178   8.906
22417SOL    HW269149  12.287  13.206   9.017
22418SOL     OW69150   6.656  11.530  12.846
22418SOL    HW169151   6.641  11.524  12.941
22418SOL    HW269152   6.608  11.607  12.819
22419SOL     OW69153  11.492   1.530   7.418
22419SOL    HW169154  11.494   1.581   7.499
22419SOL    HW269155  11.544   1.451   7.438
22420SOL     OW69156   7.519   9.896   9.232
22420SOL    HW169157   7.548   9.949   9.306
22420SOL    HW269158   7.485   9.816   9.272
22421SOL     OW69159   3.521   9.967   7.158
22421SOL    HW169160   3.441   9.943   7.204
22421SOL    HW269161   3.516  10.062   7.149
22422SOL     OW69162  12.587  11.568   5.802
22422SOL    HW169163  12.511  11.520   5.838
22422SOL    HW269164  12.555  11.602   5.719
22423SOL     OW69165  13.376   5.654  14.437
22423SOL    HW169166  13.464   5.650  14.399
22423SOL    HW269167  13.321   5.605  14.375
22424SOL     OW69168   2.631   2.129   5.971
22424SOL    HW169169   2.599   2.041   5.994
22424SOL    HW269170   2.551   2.180   5.956
22425SOL     OW69171  12.669   5.528   2.881
22425SOL    HW169172  12.625   5.613   2.876
22425SOL    HW269173  12.618   5.471   2.824
22426SOL     OW69174  11.381   6.599   7.694
22426SOL    HW169175  11.378   6.597   7.598
22426SOL    HW269176  11.338   6.680   7.718
22427SOL     OW69177   4.455  14.424  11.493
22427SOL    HW169178   4.383  14.472  11.451
22427SOL    HW269179   4.517  14.492  11.519
22428SOL     OW69180  11.080   0.226   8.424
22428SOL    HW169181  11.042   0.149   8.468
22428SOL    HW269182  11.174   0.216   8.434
22429SOL     OW69183   8.738   1.996   5.070
22429SOL    HW169184   8.828   1.968   5.053
22429SOL    HW269185   8.691   1.915   5.089
22430SOL     OW69186  12.314  12.963   1.563
22430SOL    HW169187  12.405  12.970   1.531
22430SOL    HW269188  12.299  13.045   1.610
22431SOL     OW69189   3.088  13.375   5.956
22431SOL    HW169190   3.129  13.304   6.007
22431SOL    HW269191   3.162  13.426   5.923
22432SOL     OW69192   5.170   8.766   6.880
22432SOL    HW169193   5.101   8.827   6.906
22432SOL    HW269194   5.132   8.679   6.892
22433SOL     OW69195   6.206   4.384   9.217
22433SOL    HW169196   6.123   4.364   9.260
22433SOL    HW269197   6.227   4.473   9.244
22434SOL     OW69198  12.809  14.153   0.537
22434SOL    HW169199  12.823  14.105   0.455
22434SOL    HW269200  12.817  14.245   0.513
22435SOL     OW69201   9.957   4.664  11.660
22435SOL    HW169202   9.865   4.687  11.656
22435SOL    HW269203   9.970   4.608  11.583
22436SOL     OW69204   0.013  14.290  13.762
22436SOL    HW169205   0.079  14.225  13.788
22436SOL    HW269206  14.842  14.319  13.845
22437SOL     OW69207   3.895   5.951   6.515
22437SOL    HW169208   3.958   5.917   6.579
22437SOL    HW269209   3.878   5.877   6.457
22438SOL     OW69210   9.800   2.571  13.799
22438SOL    HW169211   9.726   2.511  13.789
22438SOL    HW269212   9.761   2.651  13.834
22439SOL     OW69213  11.892  14.137   9.214
22439SOL    HW169214  11.946  14.067   9.251
22439SOL    HW269215  11.877  14.111   9.124
22440SOL     OW69216  12.813   4.259   2.907
22440SOL    HW169217  12.886   4.213   2.865
22440SOL    HW269218  12.755   4.190   2.938
22441SOL     OW69219  13.787   0.939   0.349
22441SOL    HW169220  13.849   0.873   0.317
22441SOL    HW269221  13.776   0.999   0.276
22442SOL     OW69222  11.070  13.749  12.073
22442SOL    HW169223  11.016  13.682  12.032
22442SOL    HW269224  11.160  13.716  12.065
22443SOL     OW69225   3.065  14.853   2.398
22443SOL    HW169226   3.042  14.806   2.318
22443SOL    HW269227   3.145  14.811   2.429
22444SOL     OW69228   6.925   4.986   0.676
22444SOL    HW169229   6.909   5.009   0.768
22444SOL    HW269230   6.894   4.896   0.668
22445SOL     OW69231  10.034  14.396   8.050
22445SOL    HW169232  10.126  14.422   8.058
22445SOL    HW269233  10.030  14.309   8.088
22446SOL     OW69234  12.661   0.288   6.810
22446SOL    HW169235  12.610   0.363   6.842
22446SOL    HW269236  12.736   0.327   6.765
22447SOL     OW69237   9.775   1.379   3.111
22447SOL    HW169238   9.684   1.379   3.141
22447SOL    HW269239   9.811   1.296   3.142
22448SOL     OW69240   4.792  10.303  12.856
22448SOL    HW169241   4.844  10.365  12.906
22448SOL    HW269242   4.704  10.309  12.893
22449SOL     OW69243  14.725   1.385  13.480
22449SOL    HW169244  14.816   1.413  13.475
22449SOL    HW269245  14.705   1.352  13.392
22450SOL     OW69246   1.620   8.297   9.549
22450SOL    HW169247   1.600   8.382   9.508
22450SOL    HW269248   1.611   8.234   9.478
22451SOL     OW69249   5.526   3.318   9.497
22451SOL    HW169250   5.511   3.355   9.584
22451SOL    HW269251   5.465   3.366   9.440
22452SOL     OW69252   8.140   1.666   8.055
22452SOL    HW169253   8.089   1.671   8.136
22452SOL    HW269254   8.231   1.664   8.084
22453SOL     OW69255  12.677   4.910   4.460
22453SOL    HW169256  12.721   4.882   4.379
22453SOL    HW269257  12.747   4.917   4.524
22454SOL     OW69258   9.272   8.404   8.969
22454SOL    HW169259   9.358   8.420   9.008
22454SOL    HW269260   9.212   8.400   9.043
22455SOL     OW69261   2.784   0.244   5.167
22455SOL    HW169262   2.805   0.179   5.100
22455SOL    HW269263   2.694   0.224   5.192
22456SOL     OW69264  12.142  12.548   6.417
22456SOL    HW169265  12.098  12.613   6.472
22456SOL    HW269266  12.211  12.512   6.473
22457SOL     OW69267  13.129   5.918   5.936
22457SOL    HW169268  13.139   5.850   5.869
22457SOL    HW269269  13.180   5.886   6.010
22458SOL     OW69270   7.688   4.344   2.477
22458SOL    HW169271   7.707   4.252   2.464
22458SOL    HW269272   7.596   4.354   2.452
22459SOL     OW69273  14.284   8.294  11.949
22459SOL    HW169274  14.266   8.326  12.037
22459SOL    HW269275  14.361   8.239  11.958
22460SOL     OW69276   2.491  10.788   1.206
22460SOL    HW169277   2.470  10.719   1.143
22460SOL    HW269278   2.424  10.780   1.274
22461SOL     OW69279   9.469   7.246   6.715
22461SOL    HW169280   9.429   7.227   6.630
22461SOL    HW269281   9.562   7.228   6.703
22462SOL     OW69282   8.676  14.474   5.593
22462SOL    HW169283   8.758  14.494   5.548
22462SOL    HW269284   8.702  14.452   5.683
22463SOL     OW69285   6.224   8.271  13.544
22463SOL    HW169286   6.144   8.253  13.594
22463SOL    HW269287   6.289   8.293  13.610
22464SOL     OW69288   2.308   5.625  10.593
22464SOL    HW169289   2.380   5.569  10.620
22464SOL    HW269290   2.277   5.667  10.673
22465SOL     OW69291   5.716  14.191   8.173
22465SOL    HW169292   5.687  14.144   8.094
22465SOL    HW269293   5.749  14.275   8.140
22466SOL     OW69294   6.419   2.579   2.337
22466SOL    HW169295   6.329   2.557   2.363
22466SOL    HW269296   6.472   2.555   2.412
22467SOL     OW69297   5.269   5.205   1.570
22467SOL    HW169298   5.198   5.255   1.611
22467SOL    HW269299   5.349   5.253   1.594
22468SOL     OW69300   7.548   4.447   7.665
22468SOL    HW169301   7.598   4.393   7.605
22468SOL    HW269302   7.567   4.537   7.639
22469SOL     OW69303   7.921   6.472   8.472
22469SOL    HW169304   7.924   6.566   8.457
22469SOL    HW269305   7.909   6.433   8.386
22470SOL     OW69306   4.443  10.811   8.057
22470SOL    HW169307   4.503  10.738   8.074
22470SOL    HW269308   4.440  10.817   7.961
22471SOL     OW69309  12.278   4.951   5.263
22471SOL    HW169310  12.247   4.909   5.183
22471SOL    HW269311  12.247   4.894   5.333
22472SOL     OW69312   1.548   1.534   6.771
22472SOL    HW169313   1.588   1.604   6.720
22472SOL    HW269314   1.454   1.547   6.760
22473SOL     OW69315   5.593   8.157   3.255
22473SOL    HW169316   5.505   8.186   3.232
22473SOL    HW269317   5.643   8.238   3.264
22474SOL     OW69318   0.748   8.974  12.097
22474SOL    HW169319   0.715   8.986  12.008
22474SOL    HW269320   0.783   8.885  12.099
22475SOL     OW69321  13.863   8.790   4.943
22475SOL    HW169322  13.858   8.867   4.998
22475SOL    HW269323  13.935   8.738   4.980
22476SOL     OW69324   3.062  11.136  12.788
22476SOL    HW169325   3.140  11.129  12.842
22476SOL    HW269326   2.998  11.180  12.843
22477SOL     OW69327   3.803   2.919  11.644
22477SOL    HW169328   3.784   2.953  11.556
22477SOL    HW269329   3.717   2.903  11.683
22478SOL     OW69330   9.275   9.375  10.653
22478SOL    HW169331   9.221   9.439  10.607
22478SOL    HW269332   9.297   9.310  10.587
22479SOL     OW69333   1.624  11.924   9.947
22479SOL    HW169334   1.697  11.977   9.978
22479SOL    HW269335   1.652  11.833   9.959
22480SOL     OW69336   8.339  10.882   4.905
22480SOL    HW169337   8.408  10.892   4.839
22480SOL    HW269338   8.366  10.806   4.957
22481SOL     OW69339   4.686  14.589  11.540
22481SOL    HW169340   4.752  14.574  11.608
22481SOL    HW269341   4.685  14.684  11.527
22482SOL     OW69342  14.329   8.612  14.495
22482SOL    HW169343  14.317   8.562  14.415
22482SOL    HW269344  14.241   8.638  14.521
22483SOL     OW69345   0.635   6.181   8.004
22483SOL    HW169346   0.614   6.260   7.954
22483SOL    HW269347   0.687   6.128   7.945
22484SOL     OW69348   5.535   0.169  12.074
22484SOL    HW169349   5.473   0.137  12.139
22484SOL    HW269350   5.573   0.247  12.114
22485SOL     OW69351  12.653   4.338   0.362
22485SOL    HW169352  12.596   4.264   0.342
22485SOL    HW269353  12.595   4.414   0.366
22486SOL     OW69354   7.477  13.138   6.316
22486SOL    HW169355   7.457  13.052   6.279
22486SOL    HW269356   7.546  13.121   6.380
22487SOL     OW69357   3.457  14.646   4.805
22487SOL    HW169358   3.368  14.633   4.772
22487SOL    HW269359   3.446  14.661   4.899
22488SOL     OW69360  13.305   1.580   5.377
22488SOL    HW169361  13.359   1.553   5.451
22488SOL    HW269362  13.259   1.658   5.408
22489SOL     OW69363   9.153   1.645   6.812
22489SOL    HW169364   9.161   1.552   6.832
22489SOL    HW269365   9.236   1.683   6.839
22490SOL     OW69366   0.758   1.163  11.245
22490SOL    HW169367   0.823   1.136  11.310
22490SOL    HW269368   0.808   1.213  11.181
22491SOL     OW69369   2.477  12.550   0.569
22491SOL    HW169370   2.411  12.546   0.500
22491SOL    HW269371   2.508  12.640   0.568
22492SOL     OW69372   1.290   1.251   2.455
22492SOL    HW169373   1.318   1.204   2.377
22492SOL    HW269374   1.195   1.237   2.459
22493SOL     OW69375   7.921  10.369   5.978
22493SOL    HW169376   7.931  10.457   5.943
22493SOL    HW269377   7.890  10.382   6.068
22494SOL     OW69378  13.004  11.902   3.213
22494SOL    HW169379  13.059  11.964   3.165
22494SOL    HW269380  12.958  11.854   3.145
22495SOL     OW69381   9.135  12.389   6.081
22495SOL    HW169382   9.086  12.411   6.160
22495SOL    HW269383   9.215  12.442   6.086
22496SOL     OW69384  10.838   7.327   9.070
22496SOL    HW169385  10.897   7.398   9.044
22496SOL    HW269386  10.813   7.348   9.159
22497SOL     OW69387   9.876   2.400   0.680
22497SOL    HW169388   9.909   2.310   0.690
22497SOL    HW269389   9.803   2.391   0.619
22498SOL     OW69390   3.134   8.153   0.885
22498SOL    HW169391   3.165   8.169   0.974
22498SOL    HW269392   3.042   8.128   0.895
22499SOL     OW69393   3.987   4.669  10.360
22499SOL    HW169394   4.076   4.632  10.359
22499SOL    HW269395   3.968   4.683  10.453
22500SOL     OW69396  12.881   3.464   8.694
22500SOL    HW169397  12.893   3.457   8.789
22500SOL    HW269398  12.969   3.473   8.658
22501SOL     OW69399  13.377  13.409   6.848
22501SOL    HW169400  13.335  13.495   6.853
22501SOL    HW269401  13.439  13.418   6.775
22502SOL     OW69402  11.579   3.015  10.334
22502SOL    HW169403  11.544   3.098  10.302
22502SOL    HW269404  11.505   2.971  10.375
22503SOL     OW69405   6.996   1.713   3.565
22503SOL    HW169406   7.066   1.703   3.630
22503SOL    HW269407   6.954   1.796   3.586
22504SOL     OW69408  10.714   2.834  10.820
22504SOL    HW169409  10.690   2.856  10.730
22504SOL    HW269410  10.744   2.744  10.816
22505SOL     OW69411   8.947   9.499   0.693
22505SOL    HW169412   8.992   9.424   0.731
22505SOL    HW269413   8.982   9.575   0.740
22506SOL     OW69414  13.584   4.727   1.581
22506SOL    HW169415  13.550   4.709   1.669
22506SOL    HW269416  13.506   4.726   1.526
22507SOL     OW69417  11.069   8.987  10.370
22507SOL    HW169418  11.117   9.016  10.292
22507SOL    HW269419  10.980   8.971  10.339
22508SOL     OW69420  11.981   4.762   3.282
22508SOL    HW169421  12.073   4.778   3.303
22508SOL    HW269422  11.969   4.668   3.298
22509SOL     OW69423   0.597  10.403   6.710
22509SOL    HW169424   0.513  10.386   6.753
22509SOL    HW269425   0.631  10.316   6.689
22510SOL     OW69426  10.628   8.721   2.888
22510SOL    HW169427  10.680   8.723   2.969
22510SOL    HW269428  10.538   8.706   2.918
22511SOL     OW69429  11.704  10.590   5.479
22511SOL    HW169430  11.741  10.514   5.525
22511SOL    HW269431  11.652  10.551   5.408
22512SOL     OW69432   4.748   3.026   2.528
22512SOL    HW169433   4.742   2.932   2.509
22512SOL    HW269434   4.665   3.062   2.495
22513SOL     OW69435   1.365  11.770   3.504
22513SOL    HW169436   1.323  11.856   3.513
22513SOL    HW269437   1.415  11.760   3.584
22514SOL     OW69438   6.237  10.775   6.086
22514SOL    HW169439   6.174  10.833   6.044
22514SOL    HW269440   6.321  10.795   6.044
22515SOL     OW69441  10.286   8.980   5.422
22515SOL    HW169442  10.345   9.045   5.384
22515SOL    HW269443  10.203   9.026   5.434
22516SOL     OW69444   9.860   3.377   4.904
22516SOL    HW169445   9.766   3.396   4.903
22516SOL    HW269446   9.894   3.417   4.824
22517SOL     OW69447   9.470   1.407  11.699
22517SOL    HW169448   9.409   1.465  11.744
22517SOL    HW269449   9.416   1.334  11.668
22518SOL     OW69450   1.769   5.134   9.117
22518SOL    HW169451   1.817   5.211   9.148
22518SOL    HW269452   1.689   5.169   9.079
22519SOL     OW69453   7.709  13.927   9.376
22519SOL    HW169454   7.658  13.971   9.308
22519SOL    HW269455   7.800  13.948   9.355
22520SOL     OW69456   9.460   0.010  10.834
22520SOL    HW169457   9.381   0.003  10.781
22520SOL    HW269458   9.515   0.072  10.787
22521SOL     OW69459  11.212  10.883   9.796
22521SOL    HW169460  11.295  10.918   9.826
22521SOL    HW269461  11.203  10.916   9.706
22522SOL     OW69462   6.372   4.220   2.095
22522SOL    HW169463   6.340   4.208   2.006
22522SOL    HW269464   6.468   4.217   2.087
22523SOL     OW69465   7.559   7.153   3.918
22523SOL    HW169466   7.551   7.124   3.827
22523SOL    HW269467   7.653   7.146   3.936
22524SOL     OW69468   6.556   6.472   2.456
22524SOL    HW169469   6.487   6.526   2.419
22524SOL    HW269470   6.612   6.449   2.382
22525SOL     OW69471  11.229   9.397   8.896
22525SOL    HW169472  11.171   9.321   8.891
22525SOL    HW269473  11.306   9.372   8.845
22526SOL     OW69474  12.295   9.890   9.241
22526SOL    HW169475  12.347   9.810   9.229
22526SOL    HW269476  12.206   9.864   9.217
22527SOL     OW69477  12.654  11.396   0.686
22527SOL    HW169478  12.689  11.363   0.603
22527SOL    HW269479  12.700  11.345   0.753
22528SOL     OW69480  11.809   9.729   3.162
22528SOL    HW169481  11.751   9.798   3.130
22528SOL    HW269482  11.894   9.749   3.124
22529SOL     OW69483  11.037  12.272  12.250
22529SOL    HW169484  10.956  12.274  12.300
22529SOL    HW269485  11.060  12.364  12.238
22530SOL     OW69486   8.844   9.605  10.444
22530SOL    HW169487   8.781   9.581  10.512
22530SOL    HW269488   8.814   9.558  10.366
22531SOL     OW69489  10.745  11.541   4.403
22531SOL    HW169490  10.772  11.463   4.355
22531SOL    HW269491  10.728  11.606   4.335
22532SOL     OW69492  11.256   4.200   8.358
22532SOL    HW169493  11.167   4.228   8.333
22532SOL    HW269494  11.289   4.271   8.412
22533SOL     OW69495   4.863  13.747   8.292
22533SOL    HW169496   4.864  13.773   8.384
22533SOL    HW269497   4.952  13.762   8.262
22534SOL     OW69498   7.023   6.523   4.368
22534SOL    HW169499   7.089   6.455   4.353
22534SOL    HW269500   6.983   6.499   4.452
22535SOL     OW69501   9.771   7.112  10.248
22535SOL    HW169502   9.706   7.046  10.224
22535SOL    HW269503   9.825   7.123  10.170
22536SOL     OW69504   1.287   4.005   8.415
22536SOL    HW169505   1.332   3.983   8.334
22536SOL    HW269506   1.357   4.030   8.475
22537SOL     OW69507   5.627   0.475  10.646
22537SOL    HW169508   5.650   0.455  10.737
22537SOL    HW269509   5.694   0.431  10.594
22538SOL     OW69510  13.393  10.749  14.030
22538SOL    HW169511  13.387  10.668  13.979
22538SOL    HW269512  13.302  10.771  14.050
22539SOL     OW69513  11.685  10.514  14.303
22539SOL    HW169514  11.607  10.460  14.317
22539SOL    HW269515  11.655  10.584  14.245
22540SOL     OW69516   3.506   5.870   9.033
22540SOL    HW169517   3.548   5.810   8.971
22540SOL    HW269518   3.424   5.896   8.990
22541SOL     OW69519   9.590   6.293   3.464
22541SOL    HW169520   9.568   6.283   3.557
22541SOL    HW269521   9.656   6.225   3.448
22542SOL     OW69522   9.333  11.792   9.640
22542SOL    HW169523   9.292  11.706   9.632
22542SOL    HW269524   9.354  11.799   9.733
22543SOL     OW69525  10.646  10.700   8.705
22543SOL    HW169526  10.703  10.714   8.629
22543SOL    HW269527  10.634  10.788   8.742
22544SOL     OW69528   7.816   2.691  14.691
22544SOL    HW169529   7.870   2.707  14.614
22544SOL    HW269530   7.877   2.657  14.756
22545SOL     OW69531   5.441  13.167  11.315
22545SOL    HW169532   5.416  13.177  11.223
22545SOL    HW269533   5.494  13.088  11.317
22546SOL     OW69534   2.197   0.990  12.172
22546SOL    HW169535   2.213   0.961  12.262
22546SOL    HW269536   2.221   1.083  12.172
22547SOL     OW69537   9.568  13.795   8.406
22547SOL    HW169538   9.489  13.840   8.435
22547SOL    HW269539   9.536  13.720   8.356
22548SOL     OW69540   8.596   9.905  10.064
22548SOL    HW169541   8.615   9.813  10.082
22548SOL    HW269542   8.536   9.932  10.134
22549SOL     OW69543   7.526   3.996   9.118
22549SOL    HW169544   7.467   4.066   9.090
22549SOL    HW269545   7.611   4.039   9.128
22550SOL     OW69546   0.053   0.091   8.659
22550SOL    HW169547   0.132   0.037   8.661
22550SOL    HW269548   0.076   0.164   8.601
22551SOL     OW69549  13.295  12.728   1.992
22551SOL    HW169550  13.280  12.736   1.898
22551SOL    HW269551  13.225  12.781   2.032
22552SOL     OW69552   1.011   8.711   5.753
22552SOL    HW169553   1.059   8.766   5.814
22552SOL    HW269554   1.058   8.628   5.753
22553SOL     OW69555   9.921   4.686  13.636
22553SOL    HW169556   9.884   4.774  13.645
22553SOL    HW269557  10.013   4.701  13.614
22554SOL     OW69558  12.536  11.836   5.072
22554SOL    HW169559  12.497  11.762   5.026
22554SOL    HW269560  12.525  11.910   5.012
22555SOL     OW69561   3.011  12.810   7.954
22555SOL    HW169562   2.982  12.783   8.041
22555SOL    HW269563   2.992  12.904   7.950
22556SOL     OW69564  12.130   5.379   6.612
22556SOL    HW169565  12.184   5.426   6.675
22556SOL    HW269566  12.069   5.445   6.578
22557SOL     OW69567   8.781   0.857  13.430
22557SOL    HW169568   8.696   0.816  13.444
22557SOL    HW269569   8.761   0.943  13.395
22558SOL     OW69570  14.159   0.756   1.072
22558SOL    HW169571  14.127   0.842   1.099
22558SOL    HW269572  14.171   0.764   0.977
22559SOL     OW69573  10.470   3.170   6.266
22559SOL    HW169574  10.523   3.162   6.187
22559SOL    HW269575  10.469   3.082   6.305
22560SOL     OW69576  13.619   1.822  12.175
22560SOL    HW169577  13.618   1.835  12.270
22560SOL    HW269578  13.543   1.871  12.144
22561SOL     OW69579   4.141   8.142   0.002
22561SOL    HW169580   4.217   8.125  14.814
22561SOL    HW269581   4.117   8.233  14.851
22562SOL     OW69582   3.272   4.449   3.918
22562SOL    HW169583   3.300   4.538   3.898
22562SOL    HW269584   3.202   4.431   3.855
22563SOL     OW69585   9.579  11.554   2.965
22563SOL    HW169586   9.555  11.462   2.977
22563SOL    HW269587   9.648  11.570   3.028
22564SOL     OW69588  12.903   2.821   2.978
22564SOL    HW169589  12.924   2.905   3.019
22564SOL    HW269590  12.860   2.844   2.895
22565SOL     OW69591   6.587  13.475   2.163
22565SOL    HW169592   6.555  13.559   2.196
22565SOL    HW269593   6.594  13.420   2.241
22566SOL     OW69594   1.251  14.801  12.543
22566SOL    HW169595   1.165  14.761  12.526
22566SOL    HW269596   1.230   0.018  12.581
22567SOL     OW69597   3.930  13.521   1.823
22567SOL    HW169598   4.007  13.572   1.848
22567SOL    HW269599   3.881  13.509   1.905
22568SOL     OW69600  12.239   7.201   7.883
22568SOL    HW169601  12.153   7.168   7.910
22568SOL    HW269602  12.289   7.123   7.860
22569SOL     OW69603  10.667   7.693  11.408
22569SOL    HW169604  10.581   7.734  11.398
22569SOL    HW269605  10.715   7.721  11.330
22570SOL     OW69606   8.116  14.053  10.786
22570SOL    HW169607   8.196  14.009  10.757
22570SOL    HW269608   8.120  14.140  10.746
22571SOL     OW69609  13.138  14.309  13.765
22571SOL    HW169610  13.188  14.248  13.711
22571SOL    HW269611  13.203  14.349  13.823
22572SOL     OW69612   7.083   4.352   9.458
22572SOL    HW169613   6.996   4.341   9.495
22572SOL    HW269614   7.081   4.439   9.418
22573SOL     OW69615  12.368   0.474  14.345
22573SOL    HW169616  12.428   0.541  14.378
22573SOL    HW269617  12.283   0.498  14.382
22574SOL     OW69618  12.634   7.197  14.125
22574SOL    HW169619  12.634   7.133  14.196
22574SOL    HW269620  12.547   7.236  14.128
22575SOL     OW69621   1.403   4.520  10.202
22575SOL    HW169622   1.322   4.554  10.240
22575SOL    HW269623   1.412   4.568  10.119
22576SOL     OW69624   3.394   9.658   6.109
22576SOL    HW169625   3.420   9.745   6.079
22576SOL    HW269626   3.445   9.598   6.057
22577SOL     OW69627   3.143   1.429   4.752
22577SOL    HW169628   3.213   1.436   4.687
22577SOL    HW269629   3.173   1.362   4.813
22578SOL     OW69630  11.014   3.049   7.190
22578SOL    HW169631  10.967   2.967   7.203
22578SOL    HW269632  11.105   3.027   7.208
22579SOL     OW69633   9.714   1.739  14.051
22579SOL    HW169634   9.785   1.778  14.000
22579SOL    HW269635   9.665   1.686  13.988
22580SOL     OW69636   6.046   1.991   5.267
22580SOL    HW169637   6.141   1.998   5.269
22580SOL    HW269638   6.028   1.899   5.287
22581SOL     OW69639   4.344   6.374   8.698
22581SOL    HW169640   4.338   6.409   8.609
22581SOL    HW269641   4.379   6.285   8.686
22582SOL     OW69642   7.573  11.487   2.875
22582SOL    HW169643   7.620  11.406   2.857
22582SOL    HW269644   7.506  11.462   2.939
22583SOL     OW69645   6.323   7.864   2.966
22583SOL    HW169646   6.388   7.822   2.910
22583SOL    HW269647   6.261   7.795   2.987
22584SOL     OW69648  13.245   9.427   9.475
22584SOL    HW169649  13.239   9.358   9.409
22584SOL    HW269650  13.181   9.402   9.542
22585SOL     OW69651  10.432  14.839   5.067
22585SOL    HW169652  10.453   0.062   5.091
22585SOL    HW269653  10.490  14.819   4.994
22586SOL     OW69654   5.275   7.309  11.414
22586SOL    HW169655   5.312   7.232  11.371
22586SOL    HW269656   5.242   7.276  11.497
22587SOL     OW69657  13.830  12.007  11.040
22587SOL    HW169658  13.887  11.943  10.999
22587SOL    HW269659  13.753  11.957  11.067
22588SOL     OW69660   3.869   0.867   7.919
22588SOL    HW169661   3.867   0.857   7.824
22588SOL    HW269662   3.930   0.800   7.949
22589SOL     OW69663   0.407  10.000   6.388
22589SOL    HW169664   0.381  10.074   6.443
22589SOL    HW269665   0.328   9.947   6.381
22590SOL     OW69666   1.750   9.424  13.503
22590SOL    HW169667   1.727   9.363  13.573
22590SOL    HW269668   1.687   9.496  13.512
22591SOL     OW69669   0.871   3.740  14.226
22591SOL    HW169670   0.873   3.647  14.202
22591SOL    HW269671   0.960   3.759  14.254
22592SOL     OW69672   3.802   8.148   8.679
22592SOL    HW169673   3.877   8.137   8.620
22592SOL    HW269674   3.840   8.164   8.765
22593SOL     OW69675   8.219   5.051  13.069
22593SOL    HW169676   8.178   5.070  12.985
22593SOL    HW269677   8.310   5.080  13.059
22594SOL     OW69678  13.967   1.643   2.315
22594SOL    HW169679  13.912   1.600   2.249
22594SOL    HW269680  14.056   1.616   2.294
22595SOL     OW69681   7.394  13.967   0.863
22595SOL    HW169682   7.488  13.951   0.873
22595SOL    HW269683   7.358  13.881   0.840
22596SOL     OW69684  13.027   9.194   7.928
22596SOL    HW169685  12.993   9.281   7.911
22596SOL    HW269686  13.056   9.162   7.843
22597SOL     OW69687   8.310  10.860   5.451
22597SOL    HW169688   8.230  10.856   5.400
22597SOL    HW269689   8.329  10.768   5.474
22598SOL     OW69690  12.645  10.286  12.222
22598SOL    HW169691  12.584  10.326  12.161
22598SOL    HW269692  12.590  10.245  12.289
22599SOL     OW69693  10.564   1.322  14.651
22599SOL    HW169694  10.525   1.410  14.653
22599SOL    HW269695  10.631   1.324  14.719
22600SOL     OW69696   2.498  10.015   7.071
22600SOL    HW169697   2.562  10.082   7.096
22600SOL    HW269698   2.550   9.937   7.056
22601SOL     OW69699  13.411   2.739   8.671
22601SOL    HW169700  13.357   2.785   8.736
22601SOL    HW269701  13.501   2.754   8.700
22602SOL     OW69702  13.187  12.543   9.794
22602SOL    HW169703  13.237  12.606   9.742
22602SOL    HW269704  13.186  12.464   9.739
22603SOL     OW69705   3.502   4.363  10.622
22603SOL    HW169706   3.527   4.285  10.573
22603SOL    HW269707   3.461   4.420  10.557
22604SOL     OW69708   1.896   5.403   0.342
22604SOL    HW169709   1.921   5.487   0.382
22604SOL    HW269710   1.920   5.413   0.250
22605SOL     OW69711   1.713   2.090   3.675
22605SOL    HW169712   1.808   2.093   3.686
22605SOL    HW269713   1.682   2.036   3.747
22606SOL     OW69714   4.822   2.233   6.392
22606SOL    HW169715   4.760   2.279   6.335
22606SOL    HW269716   4.776   2.222   6.475
22607SOL     OW69717   7.679   0.131   1.501
22607SOL    HW169718   7.648   0.215   1.537
22607SOL    HW269719   7.739   0.098   1.568
22608SOL     OW69720   7.364   0.665  12.910
22608SOL    HW169721   7.348   0.698  12.998
22608SOL    HW269722   7.335   0.574  12.912
22609SOL     OW69723   2.187  11.626   9.462
22609SOL    HW169724   2.182  11.531   9.450
22609SOL    HW269725   2.258  11.654   9.405
22610SOL     OW69726  10.548  10.075   0.439
22610SOL    HW169727  10.633  10.034   0.455
22610SOL    HW269728  10.500  10.063   0.521
22611SOL     OW69729  14.277   4.660   6.821
22611SOL    HW169730  14.346   4.694   6.764
22611SOL    HW269731  14.208   4.726   6.817
22612SOL     OW69732   0.328   0.383  14.371
22612SOL    HW169733   0.262   0.417  14.310
22612SOL    HW269734   0.376   0.461  14.400
22613SOL     OW69735   1.354  11.717  13.102
22613SOL    HW169736   1.352  11.767  13.021
22613SOL    HW269737   1.394  11.776  13.166
22614SOL     OW69738  11.031   4.287   8.541
22614SOL    HW169739  11.000   4.197   8.531
22614SOL    HW269740  11.006   4.311   8.631
22615SOL     OW69741   2.466   6.184  10.063
22615SOL    HW169742   2.500   6.138  10.140
22615SOL    HW269743   2.524   6.157   9.991
22616SOL     OW69744   7.450   7.108  14.632
22616SOL    HW169745   7.377   7.058  14.596
22616SOL    HW269746   7.528   7.068  14.592
22617SOL     OW69747   5.394   0.636   8.369
22617SOL    HW169748   5.479   0.663   8.404
22617SOL    HW269749   5.360   0.575   8.434
22618SOL     OW69750   7.673   9.074   8.986
22618SOL    HW169751   7.764   9.083   8.956
22618SOL    HW269752   7.630   9.024   8.916
22619SOL     OW69753   1.101   6.799   9.995
22619SOL    HW169754   1.039   6.727   9.995
22619SOL    HW269755   1.123   6.812   9.903
22620SOL     OW69756   5.702  10.846  13.484
22620SOL    HW169757   5.729  10.754  13.486
22620SOL    HW269758   5.631  10.851  13.548
22621SOL     OW69759  10.069  13.835  11.059
22621SOL    HW169760  10.015  13.841  11.138
22621SOL    HW269761  10.127  13.911  11.064
22622SOL     OW69762   7.042   8.988   0.383
22622SOL    HW169763   7.127   9.027   0.404
22622SOL    HW269764   6.998   8.979   0.467
22623SOL     OW69765   2.891   2.844   3.123
22623SOL    HW169766   2.816   2.898   3.098
22623SOL    HW269767   2.854   2.771   3.171
22624SOL     OW69768   1.877  14.493   1.656
22624SOL    HW169769   1.783  14.489   1.638
22624SOL    HW269770   1.906  14.574   1.613
22625SOL     OW69771   7.067   5.238   4.448
22625SOL    HW169772   7.076   5.143   4.443
22625SOL    HW269773   6.996   5.252   4.511
22626SOL     OW69774   5.091  12.295   1.283
22626SOL    HW169775   5.059  12.280   1.371
22626SOL    HW269776   5.113  12.388   1.281
22627SOL     OW69777  10.520   5.980   3.117
22627SOL    HW169778  10.550   5.892   3.096
22627SOL    HW269779  10.539   6.031   3.038
22628SOL     OW69780  13.765   7.585   9.746
22628SOL    HW169781  13.695   7.643   9.776
22628SOL    HW269782  13.836   7.644   9.724
22629SOL     OW69783  12.148   3.227  12.185
22629SOL    HW169784  12.104   3.161  12.130
22629SOL    HW269785  12.239   3.199  12.188
22630SOL     OW69786   5.691   2.604   1.809
22630SOL    HW169787   5.640   2.603   1.889
22630SOL    HW269788   5.725   2.514   1.801
22631SOL     OW69789  11.096  11.843   0.193
22631SOL    HW169790  11.012  11.873   0.228
22631SOL    HW269791  11.081  11.836   0.099
22632SOL     OW69792   3.669   6.388   1.031
22632SOL    HW169793   3.734   6.444   0.988
22632SOL    HW269794   3.611   6.359   0.960
22633SOL     OW69795  14.865   8.872  10.760
22633SOL    HW169796   0.086   8.852  10.733
22633SOL    HW269797  14.851   8.822  10.840
22634SOL     OW69798   6.024   3.268  11.617
22634SOL    HW169799   5.940   3.225  11.634
22634SOL    HW269800   6.002   3.348  11.570
22635SOL     OW69801  12.433   0.582   2.464
22635SOL    HW169802  12.480   0.511   2.421
22635SOL    HW269803  12.484   0.661   2.443
22636SOL     OW69804  10.649   6.163   7.190
22636SOL    HW169805  10.692   6.202   7.114
22636SOL    HW269806  10.660   6.229   7.259
22637SOL     OW69807   1.739   0.120   4.083
22637SOL    HW169808   1.809   0.061   4.051
22637SOL    HW269809   1.732   0.100   4.176
22638SOL     OW69810  14.744  13.927  10.280
22638SOL    HW169811  14.721  13.946  10.189
22638SOL    HW269812  14.726  14.009  10.327
22639SOL     OW69813   7.281   4.575  14.314
22639SOL    HW169814   7.247   4.654  14.272
22639SOL    HW269815   7.251   4.581  14.405
22640SOL     OW69816   7.712   4.790   0.680
22640SOL    HW169817   7.715   4.883   0.703
22640SOL    HW269818   7.778   4.749   0.735
22641SOL     OW69819   7.380  12.622   6.938
22641SOL    HW169820   7.397  12.682   6.865
22641SOL    HW269821   7.345  12.678   7.008
22642SOL     OW69822  10.855   1.599  13.543
22642SOL    HW169823  10.944   1.625  13.519
22642SOL    HW269824  10.842   1.634  13.631
22643SOL     OW69825  13.561   5.978   7.980
22643SOL    HW169826  13.537   6.013   8.066
22643SOL    HW269827  13.637   5.923   7.998
22644SOL     OW69828   0.286   3.273   3.366
22644SOL    HW169829   0.362   3.285   3.423
22644SOL    HW269830   0.277   3.178   3.358
22645SOL     OW69831  12.487  13.964  11.954
22645SOL    HW169832  12.404  13.968  11.906
22645SOL    HW269833  12.547  13.919  11.896
22646SOL     OW69834   7.085  13.381  12.793
22646SOL    HW169835   7.073  13.427  12.711
22646SOL    HW269836   7.039  13.298  12.781
22647SOL     OW69837   5.177   3.698   6.548
22647SOL    HW169838   5.231   3.774   6.570
22647SOL    HW269839   5.150   3.663   6.632
22648SOL     OW69840  11.445   0.879   5.221
22648SOL    HW169841  11.392   0.833   5.155
22648SOL    HW269842  11.383   0.900   5.291
22649SOL     OW69843   6.992  13.920   2.410
22649SOL    HW169844   6.948  13.970   2.479
22649SOL    HW269845   7.069  13.883   2.453
22650SOL     OW69846  14.264  12.777   7.812
22650SOL    HW169847  14.228  12.689   7.825
22650SOL    HW269848  14.217  12.832   7.874
22651SOL     OW69849   5.047   9.066   1.243
22651SOL    HW169850   5.093   9.147   1.223
22651SOL    HW269851   4.955   9.088   1.235
22652SOL     OW69852   5.219   9.069   0.999
22652SOL    HW169853   5.224   8.980   0.964
22652SOL    HW269854   5.261   9.064   1.085
22653SOL     OW69855   3.603   3.023   2.064
22653SOL    HW169856   3.670   2.988   2.122
22653SOL    HW269857   3.645   3.098   2.022
22654SOL     OW69858   5.527   3.179   7.061
22654SOL    HW169859   5.440   3.138   7.055
22654SOL    HW269860   5.577   3.140   6.989
22655SOL     OW69861   7.228   5.024   6.280
22655SOL    HW169862   7.292   4.963   6.244
22655SOL    HW269863   7.237   5.103   6.225
22656SOL     OW69864   4.254   7.960   9.540
22656SOL    HW169865   4.260   7.865   9.536
22656SOL    HW269866   4.315   7.990   9.472
22657SOL     OW69867  13.059  12.423  10.831
22657SOL    HW169868  13.144  12.433  10.874
22657SOL    HW269869  12.997  12.466  10.890
22658SOL     OW69870  11.152  14.068   0.844
22658SOL    HW169871  11.145  14.087   0.938
22658SOL    HW269872  11.227  14.009   0.837
22659SOL     OW69873   8.848   4.911   0.341
22659SOL    HW169874   8.832   4.979   0.407
22659SOL    HW269875   8.922   4.944   0.290
22660SOL     OW69876   2.011  10.006   5.175
22660SOL    HW169877   2.034   9.931   5.230
22660SOL    HW269878   2.072  10.001   5.101
22661SOL     OW69879   3.397   5.576   5.242
22661SOL    HW169880   3.472   5.520   5.263
22661SOL    HW269881   3.320   5.522   5.262
22662SOL     OW69882   5.911   9.753   1.026
22662SOL    HW169883   5.990   9.723   0.982
22662SOL    HW269884   5.928   9.736   1.119
22663SOL     OW69885   0.142   0.967   4.475
22663SOL    HW169886   0.075   0.966   4.407
22663SOL    HW269887   0.107   1.026   4.543
22664SOL     OW69888  13.053  14.575   4.179
22664SOL    HW169889  13.002  14.531   4.248
22664SOL    HW269890  13.139  14.535   4.185
22665SOL     OW69891  10.330   7.725   0.705
22665SOL    HW169892  10.410   7.709   0.655
22665SOL    HW269893  10.336   7.666   0.780
22666SOL     OW69894  13.913  10.461   1.853
22666SOL    HW169895  13.959  10.472   1.936
22666SOL    HW269896  13.844  10.528   1.856
22667SOL     OW69897   3.092  12.728  10.705
22667SOL    HW169898   3.169  12.719  10.650
22667SOL    HW269899   3.045  12.803  10.668
22668SOL     OW69900   9.164   2.629   0.589
22668SOL    HW169901   9.229   2.614   0.658
22668SOL    HW269902   9.214   2.661   0.515
22669SOL     OW69903   9.691   6.114   9.687
22669SOL    HW169904   9.597   6.116   9.703
22669SOL    HW269905   9.730   6.119   9.774
22670SOL     OW69906   8.498   8.622   8.437
22670SOL    HW169907   8.581   8.666   8.415
22670SOL    HW269908   8.463   8.593   8.353
22671SOL     OW69909  14.223  14.243   4.446
22671SOL    HW169910  14.190  14.333   4.433
22671SOL    HW269911  14.317  14.253   4.459
22672SOL     OW69912   2.719   5.399  13.786
22672SOL    HW169913   2.748   5.352  13.708
22672SOL    HW269914   2.787   5.465  13.801
22673SOL     OW69915   6.054   2.221   3.855
22673SOL    HW169916   6.014   2.307   3.869
22673SOL    HW269917   5.981   2.164   3.834
22674SOL     OW69918  10.055  11.114  12.741
22674SOL    HW169919  10.035  11.155  12.657
22674SOL    HW269920   9.970  11.099  12.781
22675SOL     OW69921  13.472  13.560   7.914
22675SOL    HW169922  13.377  13.561   7.897
22675SOL    HW269923  13.480  13.521   8.001
22676SOL     OW69924  10.504   2.796   3.732
22676SOL    HW169925  10.457   2.731   3.680
22676SOL    HW269926  10.597   2.778   3.713
22677SOL     OW69927   6.366   4.790   0.749
22677SOL    HW169928   6.325   4.708   0.724
22677SOL    HW269929   6.441   4.798   0.690
22678SOL     OW69930  12.230   5.716   5.736
22678SOL    HW169931  12.198   5.701   5.647
22678SOL    HW269932  12.153   5.700   5.791
22679SOL     OW69933   7.089   3.207  13.510
22679SOL    HW169934   7.146   3.250  13.574
22679SOL    HW269935   7.145   3.192  13.433
22680SOL     OW69936  14.101   6.698  11.226
22680SOL    HW169937  14.196   6.714  11.230
22680SOL    HW269938  14.093   6.603  11.221
22681SOL     OW69939   4.706   6.773   0.703
22681SOL    HW169940   4.756   6.748   0.781
22681SOL    HW269941   4.648   6.698   0.687
22682SOL     OW69942  11.843   5.799   5.231
22682SOL    HW169943  11.753   5.824   5.207
22682SOL    HW269944  11.885   5.882   5.255
22683SOL     OW69945   6.518  10.858  11.631
22683SOL    HW169946   6.455  10.895  11.693
22683SOL    HW269947   6.484  10.880  11.545
22684SOL     OW69948  10.883  14.272  11.484
22684SOL    HW169949  10.827  14.248  11.558
22684SOL    HW269950  10.871  14.367  11.476
22685SOL     OW69951   0.031   6.122   4.686
22685SOL    HW169952  14.841   6.106   4.761
22685SOL    HW269953   0.010   6.211   4.658
22686SOL     OW69954   0.505   8.830  14.033
22686SOL    HW169955   0.541   8.743  14.048
22686SOL    HW269956   0.528   8.850  13.942
22687SOL     OW69957   4.844  12.762   7.742
22687SOL    HW169958   4.891  12.846   7.747
22687SOL    HW269959   4.762  12.778   7.787
22688SOL     OW69960  11.177   0.537   3.063
22688SOL    HW169961  11.094   0.585   3.060
22688SOL    HW269962  11.243   0.600   3.033
22689SOL     OW69963   9.885  11.255   3.989
22689SOL    HW169964   9.860  11.196   3.919
22689SOL    HW269965   9.958  11.306   3.953
22690SOL     OW69966   6.955  14.373   1.759
22690SOL    HW169967   6.920  14.303   1.704
22690SOL    HW269968   6.936  14.344   1.849
22691SOL     OW69969   7.580   4.455   8.316
22691SOL    HW169970   7.539   4.463   8.402
22691SOL    HW269971   7.586   4.361   8.300
22692SOL     OW69972   8.349  12.336   7.144
22692SOL    HW169973   8.272  12.280   7.148
22692SOL    HW269974   8.384  12.336   7.233
22693SOL     OW69975   8.057   5.186  10.485
22693SOL    HW169976   8.041   5.248  10.414
22693SOL    HW269977   8.119   5.123  10.449
22694SOL     OW69978   7.899   2.211   8.049
22694SOL    HW169979   7.895   2.238   7.957
22694SOL    HW269980   7.823   2.253   8.090
22695SOL     OW69981   7.443  13.858  10.323
22695SOL    HW169982   7.520  13.861  10.265
22695SOL    HW269983   7.370  13.881  10.267
22696SOL     OW69984   2.354   7.382  14.830
22696SOL    HW169985   2.416   7.312  14.851
22696SOL    HW269986   2.318   7.356  14.745
22697SOL     OW69987   7.294  11.725   5.182
22697SOL    HW169988   7.252  11.777   5.251
22697SOL    HW269989   7.368  11.682   5.226
22698SOL     OW69990   8.413   4.429  11.611
22698SOL    HW169991   8.462   4.404  11.533
22698SOL    HW269992   8.411   4.525  11.608
22699SOL     OW69993  12.313  14.756   0.199
22699SOL    HW169994  12.398  14.791   0.169
22699SOL    HW269995  12.278  14.710   0.122
22700SOL     OW69996   3.659   1.655  10.062
22700SOL    HW169997   3.698   1.737  10.093
22700SOL    HW269998   3.719   1.623   9.995
22701SOL     OW69999   9.691   8.276   1.858
22701SOL    HW170000   9.606   8.298   1.895
22701SOL    HW270001   9.733   8.361   1.843
22702SOL     OW70002   9.361   6.403  12.310
22702SOL    HW170003   9.433   6.455  12.272
22702SOL    HW270004   9.322   6.359  12.235
22703SOL     OW70005  14.258   2.616   6.530
22703SOL    HW170006  14.241   2.633   6.438
22703SOL    HW270007  14.244   2.522   6.541
22704SOL     OW70008   2.484   0.032   5.192
22704SOL    HW170009   2.405  14.866   5.149
22704SOL    HW270010   2.554   0.016   5.130
22705SOL     OW70011   1.666  14.779   7.722
22705SOL    HW170012   1.645  14.868   7.751
22705SOL    HW270013   1.761  14.776   7.719
22706SOL     OW70014   1.743  10.502  11.356
22706SOL    HW170015   1.680  10.532  11.290
22706SOL    HW270016   1.692  10.443  11.412
22707SOL     OW70017   3.172   3.565  11.430
22707SOL    HW170018   3.134   3.478  11.421
22707SOL    HW270019   3.206   3.586  11.343
22708SOL     OW70020  13.340   0.070   3.336
22708SOL    HW170021  13.287   0.148   3.322
22708SOL    HW270022  13.388   0.059   3.255
22709SOL     OW70023   3.066   8.003   1.767
22709SOL    HW170024   3.134   8.034   1.827
22709SOL    HW270025   3.039   8.081   1.719
22710SOL     OW70026  13.334   7.488   1.302
22710SOL    HW170027  13.386   7.520   1.229
22710SOL    HW270028  13.243   7.499   1.274
22711SOL     OW70029  11.841  11.820   8.212
22711SOL    HW170030  11.756  11.795   8.248
22711SOL    HW270031  11.823  11.838   8.119
22712SOL     OW70032  13.903  11.885  13.982
22712SOL    HW170033  13.896  11.797  13.945
22712SOL    HW270034  13.909  11.871  14.077
22713SOL     OW70035  14.470  11.380   1.825
22713SOL    HW170036  14.418  11.384   1.744
22713SOL    HW270037  14.552  11.339   1.799
22714SOL     OW70038   4.106  12.195  14.591
22714SOL    HW170039   4.113  12.113  14.640
22714SOL    HW270040   4.196  12.228  14.586
22715SOL     OW70041  11.640   1.817   0.498
22715SOL    HW170042  11.708   1.782   0.441
22715SOL    HW270043  11.612   1.897   0.454
22716SOL     OW70044   9.586   1.897   4.747
22716SOL    HW170045   9.654   1.931   4.805
22716SOL    HW270046   9.607   1.804   4.738
22717SOL     OW70047   6.590   7.607   1.282
22717SOL    HW170048   6.609   7.514   1.268
22717SOL    HW270049   6.596   7.646   1.195
22718SOL     OW70050  13.152   5.054   2.902
22718SOL    HW170051  13.102   4.996   2.959
22718SOL    HW270052  13.133   5.023   2.813
22719SOL     OW70053   7.288   2.932   5.904
22719SOL    HW170054   7.258   2.852   5.947
22719SOL    HW270055   7.234   2.939   5.825
22720SOL     OW70056   9.174  11.445   5.721
22720SOL    HW170057   9.117  11.394   5.778
22720SOL    HW270058   9.127  11.449   5.637
22721SOL     OW70059  13.411   6.327   8.440
22721SOL    HW170060  13.464   6.396   8.400
22721SOL    HW270061  13.452   6.310   8.525
22722SOL     OW70062  11.214   5.768  11.653
22722SOL    HW170063  11.280   5.794  11.589
22722SOL    HW270064  11.141   5.735  11.600
22723SOL     OW70065  14.609   5.386   0.162
22723SOL    HW170066  14.526   5.338   0.153
22723SOL    HW270067  14.671   5.338   0.108
22724SOL     OW70068  10.290   3.679  11.022
22724SOL    HW170069  10.203   3.687  10.982
22724SOL    HW270070  10.276   3.625  11.100
22725SOL     OW70071  11.150   4.310  11.102
22725SOL    HW170072  11.120   4.351  11.183
22725SOL    HW270073  11.162   4.217  11.125
22726SOL     OW70074   7.892   7.706  10.863
22726SOL    HW170075   7.804   7.668  10.854
22726SOL    HW270076   7.945   7.659  10.799
22727SOL     OW70077   6.386   1.795   0.863
22727SOL    HW170078   6.294   1.815   0.848
22727SOL    HW270079   6.394   1.790   0.958
22728SOL     OW70080   9.075  13.816   7.926
22728SOL    HW170081   9.012  13.766   7.980
22728SOL    HW270082   9.091  13.896   7.976
22729SOL     OW70083  12.539  13.264   2.373
22729SOL    HW170084  12.460  13.275   2.426
22729SOL    HW270085  12.514  13.204   2.303
22730SOL     OW70086   3.368   2.163  13.805
22730SOL    HW170087   3.460   2.154  13.831
22730SOL    HW270088   3.355   2.092  13.742
22731SOL     OW70089   6.327   7.198  13.741
22731SOL    HW170090   6.336   7.157  13.655
22731SOL    HW270091   6.239   7.174  13.771
22732SOL     OW70092   9.771   2.371   6.616
22732SOL    HW170093   9.742   2.460   6.597
22732SOL    HW270094   9.819   2.378   6.699
22733SOL     OW70095   8.847   3.757  14.211
22733SOL    HW170096   8.771   3.736  14.265
22733SOL    HW270097   8.848   3.853  14.206
22734SOL     OW70098  10.056   6.496  14.406
22734SOL    HW170099   9.988   6.503  14.339
22734SOL    HW270100  10.073   6.402  14.413
22735SOL     OW70101   0.251  13.872  14.520
22735SOL    HW170102   0.331  13.923  14.509
22735SOL    HW270103   0.247  13.816  14.442
22736SOL     OW70104  12.341  12.065  13.759
22736SOL    HW170105  12.374  11.976  13.746
22736SOL    HW270106  12.404  12.105  13.818
22737SOL     OW70107   2.153  12.576   5.949
22737SOL    HW170108   2.206  12.541   5.877
22737SOL    HW270109   2.196  12.543   6.028
22738SOL     OW70110  11.527   4.584   8.281
22738SOL    HW170111  11.464   4.547   8.218
22738SOL    HW270112  11.574   4.651   8.231
22739SOL     OW70113   6.019   3.160  13.042
22739SOL    HW170114   6.070   3.176  12.963
22739SOL    HW270115   5.943   3.217  13.033
22740SOL     OW70116  13.210   6.818   2.844
22740SOL    HW170117  13.217   6.864   2.760
22740SOL    HW270118  13.287   6.845   2.893
22741SOL     OW70119  14.538   5.513  10.678
22741SOL    HW170120  14.455   5.529  10.722
22741SOL    HW270121  14.580   5.599  10.673
22742SOL     OW70122   8.760  10.348   8.389
22742SOL    HW170123   8.745  10.254   8.400
22742SOL    HW270124   8.693  10.376   8.328
22743SOL     OW70125   9.148   0.303   9.694
22743SOL    HW170126   9.183   0.351   9.769
22743SOL    HW270127   9.089   0.365   9.651
22744SOL     OW70128  13.415   1.107  11.009
22744SOL    HW170129  13.359   1.031  10.996
22744SOL    HW270130  13.495   1.087  10.960
22745SOL     OW70131   4.388  10.974  11.215
22745SOL    HW170132   4.311  11.018  11.178
22745SOL    HW270133   4.447  11.045  11.239
22746SOL     OW70134   7.710   4.782   6.069
22746SOL    HW170135   7.776   4.812   6.006
22746SOL    HW270136   7.646   4.735   6.016
22747SOL     OW70137   7.234  12.407   2.678
22747SOL    HW170138   7.173  12.348   2.723
22747SOL    HW270139   7.310  12.353   2.658
22748SOL     OW70140   5.593  12.419   9.772
22748SOL    HW170141   5.612  12.354   9.704
22748SOL    HW270142   5.649  12.394   9.845
22749SOL     OW70143   0.928  13.365   6.083
22749SOL    HW170144   0.857  13.425   6.064
22749SOL    HW270145   0.889  13.299   6.140
22750SOL     OW70146   3.399   9.667   1.414
22750SOL    HW170147   3.368   9.755   1.436
22750SOL    HW270148   3.319   9.619   1.393
22751SOL     OW70149   7.623  13.129   3.883
22751SOL    HW170150   7.656  13.070   3.816
22751SOL    HW270151   7.601  13.072   3.957
22752SOL     OW70152   9.965   4.982  13.652
22752SOL    HW170153   9.932   5.027  13.574
22752SOL    HW270154  10.057   5.008  13.657
22753SOL     OW70155   6.138   0.597  14.850
22753SOL    HW170156   6.049   0.633  14.844
22753SOL    HW270157   6.127   0.503  14.835
22754SOL     OW70158  13.640   9.011  10.300
22754SOL    HW170159  13.665   9.103  10.296
22754SOL    HW270160  13.545   9.011  10.302
22755SOL     OW70161  11.157   9.564  14.434
22755SOL    HW170162  11.229   9.606  14.387
22755SOL    HW270163  11.181   9.572  14.526
22756SOL     OW70164   1.116   8.433   5.762
22756SOL    HW170165   1.052   8.366   5.736
22756SOL    HW270166   1.201   8.389   5.757
22757SOL     OW70167   3.761   7.146   9.093
22757SOL    HW170168   3.735   7.054   9.102
22757SOL    HW270169   3.775   7.158   8.999
22758SOL     OW70170   2.873   4.449  10.629
22758SOL    HW170171   2.932   4.519  10.656
22758SOL    HW270172   2.849   4.405  10.711
22759SOL     OW70173  12.912   2.543  14.366
22759SOL    HW170174  12.857   2.614  14.335
22759SOL    HW270175  12.974   2.527  14.295
22760SOL     OW70176   3.444  14.391   4.614
22760SOL    HW170177   3.426  14.397   4.707
22760SOL    HW270178   3.539  14.401   4.607
22761SOL     OW70179  10.782   2.766   9.460
22761SOL    HW170180  10.876   2.783   9.463
22761SOL    HW270181  10.755   2.763   9.552
22762SOL     OW70182   8.557  12.262   5.712
22762SOL    HW170183   8.507  12.342   5.693
22762SOL    HW270184   8.628  12.263   5.648
22763SOL     OW70185   5.145  10.608  10.608
22763SOL    HW170186   5.197  10.607  10.689
22763SOL    HW270187   5.068  10.660  10.629
22764SOL     OW70188  11.811   0.649   8.784
22764SOL    HW170189  11.904   0.625   8.782
22764SOL    HW270190  11.765   0.567   8.802
22765SOL     OW70191   8.109   3.409   0.792
22765SOL    HW170192   8.104   3.503   0.779
22765SOL    HW270193   8.125   3.397   0.885
22766SOL     OW70194   9.718  11.744   0.287
22766SOL    HW170195   9.725  11.662   0.239
22766SOL    HW270196   9.761  11.727   0.370
22767SOL     OW70197   3.168   5.503   6.153
22767SOL    HW170198   3.243   5.542   6.108
22767SOL    HW270199   3.091   5.539   6.108
22768SOL     OW70200   3.059  14.303   4.762
22768SOL    HW170201   3.075  14.310   4.668
22768SOL    HW270202   3.048  14.209   4.777
22769SOL     OW70203   6.135   8.182   9.402
22769SOL    HW170204   6.149   8.259   9.347
22769SOL    HW270205   6.057   8.140   9.366
22770SOL     OW70206   6.235  14.113  13.301
22770SOL    HW170207   6.275  14.146  13.381
22770SOL    HW270208   6.150  14.156  13.296
22771SOL     OW70209  13.075  10.785   0.946
22771SOL    HW170210  13.070  10.707   1.001
22771SOL    HW270211  12.995  10.783   0.894
22772SOL     OW70212   9.576   7.043   8.661
22772SOL    HW170213   9.632   7.043   8.583
22772SOL    HW270214   9.491   7.013   8.630
22773SOL     OW70215   3.873   8.578  13.385
22773SOL    HW170216   3.899   8.547  13.298
22773SOL    HW270217   3.845   8.499  13.431
22774SOL     OW70218   1.271  10.926  13.780
22774SOL    HW170219   1.222  10.918  13.862
22774SOL    HW270220   1.267  11.019  13.758
22775SOL     OW70221  11.925   0.400   6.452
22775SOL    HW170222  11.889   0.345   6.383
22775SOL    HW270223  11.848   0.434   6.498
22776SOL     OW70224   2.176   8.458  11.844
22776SOL    HW170225   2.107   8.465  11.778
22776SOL    HW270226   2.236   8.529  11.822
22777SOL     OW70227   9.991  10.675   5.202
22777SOL    HW170228   9.953  10.592   5.233
22777SOL    HW270229  10.043  10.707   5.276
22778SOL     OW70230   0.181   6.216   5.053
22778SOL    HW170231   0.223   6.239   4.971
22778SOL    HW270232   0.238   6.253   5.121
22779SOL     OW70233  10.357   4.607   1.828
22779SOL    HW170234  10.396   4.543   1.888
22779SOL    HW270235  10.319   4.674   1.885
22780SOL     OW70236   0.187   1.225   9.193
22780SOL    HW170237   0.263   1.280   9.174
22780SOL    HW270238   0.185   1.219   9.289
22781SOL     OW70239  10.138   0.205   8.299
22781SOL    HW170240  10.112   0.113   8.296
22781SOL    HW270241  10.206   0.209   8.366
22782SOL     OW70242   0.572   5.567   1.022
22782SOL    HW170243   0.654   5.522   1.041
22782SOL    HW270244   0.505   5.513   1.066
22783SOL     OW70245   5.035  10.418   2.140
22783SOL    HW170246   5.118  10.392   2.179
22783SOL    HW270247   5.047  10.510   2.115
22784SOL     OW70248   1.151   8.269   7.728
22784SOL    HW170249   1.197   8.241   7.649
22784SOL    HW270250   1.152   8.364   7.724
22785SOL     OW70251   2.959   3.209  11.756
22785SOL    HW170252   3.039   3.160  11.775
22785SOL    HW270253   2.890   3.143  11.753
22786SOL     OW70254   2.925   8.034   0.551
22786SOL    HW170255   2.852   7.983   0.586
22786SOL    HW270256   3.002   8.001   0.598
22787SOL     OW70257  13.586   6.240   8.888
22787SOL    HW170258  13.502   6.276   8.919
22787SOL    HW270259  13.579   6.146   8.905
22788SOL     OW70260   2.992   2.006   8.082
22788SOL    HW170261   3.077   1.961   8.089
22788SOL    HW270262   2.931   1.949   8.129
22789SOL     OW70263   3.805   6.966   3.005
22789SOL    HW170264   3.824   6.892   3.064
22789SOL    HW270265   3.807   7.043   3.062
22790SOL     OW70266   8.889   9.902   8.587
22790SOL    HW170267   8.910   9.922   8.679
22790SOL    HW270268   8.796   9.880   8.589
22791SOL     OW70269   7.634  14.587   3.902
22791SOL    HW170270   7.660  14.633   3.822
22791SOL    HW270271   7.691  14.624   3.969
22792SOL     OW70272   4.599   4.429   6.057
22792SOL    HW170273   4.583   4.370   5.984
22792SOL    HW270274   4.623   4.372   6.130
22793SOL     OW70275   2.796   8.976  12.453
22793SOL    HW170276   2.774   8.971  12.360
22793SOL    HW270277   2.728   9.032  12.491
22794SOL     OW70278   1.791   4.831   9.100
22794SOL    HW170279   1.835   4.808   9.018
22794SOL    HW270280   1.812   4.923   9.114
22795SOL     OW70281   5.813   9.485  11.498
22795SOL    HW170282   5.859   9.461  11.578
22795SOL    HW270283   5.872   9.545  11.453
22796SOL     OW70284   7.173   4.544   5.266
22796SOL    HW170285   7.106   4.499   5.318
22796SOL    HW270286   7.139   4.634   5.256
22797SOL     OW70287   4.239  12.077   2.282
22797SOL    HW170288   4.154  12.100   2.318
22797SOL    HW270289   4.287  12.040   2.356
22798SOL     OW70290   2.392   3.896   1.331
22798SOL    HW170291   2.435   3.814   1.305
22798SOL    HW270292   2.323   3.908   1.266
22799SOL     OW70293   8.028   2.868  13.031
22799SOL    HW170294   8.096   2.869  12.963
22799SOL    HW270295   7.988   2.954  13.026
22800SOL     OW70296  14.767  13.599   5.134
22800SOL    HW170297  14.826  13.600   5.209
22800SOL    HW270298  14.716  13.519   5.144
22801SOL     OW70299  11.250   5.773  13.681
22801SOL    HW170300  11.315   5.824  13.730
22801SOL    HW270301  11.301   5.705  13.637
22802SOL     OW70302   0.685   6.163   2.730
22802SOL    HW170303   0.658   6.076   2.701
22802SOL    HW270304   0.759   6.146   2.789
22803SOL     OW70305   9.307   4.016   4.604
22803SOL    HW170306   9.218   4.034   4.575
22803SOL    HW270307   9.357   4.004   4.523
22804SOL     OW70308  14.508   6.476  11.021
22804SOL    HW170309  14.570   6.404  11.026
22804SOL    HW270310  14.562   6.555  11.027
22805SOL     OW70311  11.684   9.733   4.444
22805SOL    HW170312  11.747   9.805   4.453
22805SOL    HW270313  11.727   9.669   4.388
22806SOL     OW70314   5.427   0.153   8.354
22806SOL    HW170315   5.366   0.204   8.301
22806SOL    HW270316   5.508   0.152   8.304
22807SOL     OW70317  12.359   2.425   9.914
22807SOL    HW170318  12.445   2.385   9.926
22807SOL    HW270319  12.353   2.491   9.983
22808SOL     OW70320  13.197  12.471  13.552
22808SOL    HW170321  13.279  12.455  13.506
22808SOL    HW270322  13.208  12.428  13.637
22809SOL     OW70323   8.291  10.062  12.969
22809SOL    HW170324   8.246  10.142  12.997
22809SOL    HW270325   8.250  10.040  12.885
22810SOL     OW70326   4.917  10.170   2.513
22810SOL    HW170327   5.007  10.139   2.507
22810SOL    HW270328   4.917  10.229   2.589
22811SOL     OW70329   8.834  10.172  11.522
22811SOL    HW170330   8.917  10.133  11.551
22811SOL    HW270331   8.791  10.103  11.472
22812SOL     OW70332   0.700   0.058  11.963
22812SOL    HW170333   0.652  14.848  11.934
22812SOL    HW270334   0.782   0.055  11.914
22813SOL     OW70335  12.892  13.094   8.993
22813SOL    HW170336  12.847  13.050   8.921
22813SOL    HW270337  12.909  13.024   9.056
22814SOL     OW70338   6.448  12.068  12.033
22814SOL    HW170339   6.359  12.092  12.058
22814SOL    HW270340   6.466  12.121  11.955
22815SOL     OW70341   4.008   6.404   8.523
22815SOL    HW170342   4.061   6.325   8.517
22815SOL    HW270343   3.985   6.411   8.616
22816SOL     OW70344   5.580   7.820  13.762
22816SOL    HW170345   5.518   7.804  13.834
22816SOL    HW270346   5.637   7.743  13.763
22817SOL     OW70347  10.915  11.338   4.289
22817SOL    HW170348  11.006  11.347   4.318
22817SOL    HW270349  10.921  11.303   4.200
22818SOL     OW70350   3.811  14.226   2.777
22818SOL    HW170351   3.886  14.248   2.722
22818SOL    HW270352   3.756  14.171   2.722
22819SOL     OW70353  14.860   7.681   9.892
22819SOL    HW170354  14.846   7.766   9.932
22819SOL    HW270355   0.085   7.663   9.908
22820SOL     OW70356   3.007   1.152   0.017
22820SOL    HW170357   3.088   1.140   0.066
22820SOL    HW270358   3.030   1.211  14.814
22821SOL     OW70359   9.521  13.894   8.755
22821SOL    HW170360   9.473  13.973   8.778
22821SOL    HW270361   9.453  13.829   8.735
22822SOL     OW70362   8.549   6.707   6.966
22822SOL    HW170363   8.525   6.627   6.919
22822SOL    HW270364   8.547   6.682   7.058
22823SOL     OW70365   9.296   8.672  14.312
22823SOL    HW170366   9.297   8.767  14.304
22823SOL    HW270367   9.256   8.641  14.230
22824SOL     OW70368  13.750   4.990   6.376
22824SOL    HW170369  13.675   4.950   6.331
22824SOL    HW270370  13.715   5.069   6.416
22825SOL     OW70371  12.424   7.876  12.293
22825SOL    HW170372  12.460   7.868  12.205
22825SOL    HW270373  12.358   7.807  12.299
22826SOL     OW70374   9.402  13.309   3.212
22826SOL    HW170375   9.308  13.325   3.206
22826SOL    HW270376   9.418  13.292   3.304
22827SOL     OW70377   3.839   9.021  11.026
22827SOL    HW170378   3.801   9.097  11.070
22827SOL    HW270379   3.902   9.058  10.964
22828SOL     OW70380   4.088   4.443  11.826
22828SOL    HW170381   4.025   4.449  11.754
22828SOL    HW270382   4.173   4.433  11.783
22829SOL     OW70383   9.179  11.662   8.861
22829SOL    HW170384   9.134  11.586   8.824
22829SOL    HW270385   9.237  11.692   8.791
22830SOL     OW70386   0.444  11.542   7.047
22830SOL    HW170387   0.398  11.533   7.130
22830SOL    HW270388   0.405  11.474   6.991
22831SOL     OW70389  14.310   1.374   6.645
22831SOL    HW170390  14.331   1.303   6.706
22831SOL    HW270391  14.394   1.411   6.621
22832SOL     OW70392   9.184  14.824   4.377
22832SOL    HW170393   9.175  14.730   4.392
22832SOL    HW270394   9.095  14.858   4.379
22833SOL     OW70395   8.767  14.378  12.529
22833SOL    HW170396   8.783  14.354  12.620
22833SOL    HW270397   8.810  14.309  12.478
22834SOL     OW70398  12.062  13.347   6.372
22834SOL    HW170399  12.104  13.415   6.318
22834SOL    HW270400  11.999  13.395   6.426
22835SOL     OW70401  13.366   1.105   3.701
22835SOL    HW170402  13.324   1.102   3.787
22835SOL    HW270403  13.395   1.196   3.692
22836SOL     OW70404  12.592  12.420   2.866
22836SOL    HW170405  12.607  12.459   2.780
22836SOL    HW270406  12.522  12.356   2.852
22837SOL     OW70407  11.390  12.227   8.016
22837SOL    HW170408  11.408  12.142   8.055
22837SOL    HW270409  11.303  12.252   8.049
22838SOL     OW70410   6.024   2.275  14.656
22838SOL    HW170411   6.000   2.184  14.641
22838SOL    HW270412   5.987   2.323  14.582
22839SOL     OW70413   9.658   0.489   8.326
22839SOL    HW170414   9.610   0.518   8.404
22839SOL    HW270415   9.729   0.435   8.361
22840SOL     OW70416   6.289   3.850   0.470
22840SOL    HW170417   6.330   3.911   0.532
22840SOL    HW270418   6.218   3.809   0.520
22841SOL     OW70419  12.995   1.186  13.184
22841SOL    HW170420  12.911   1.148  13.155
22841SOL    HW270421  13.009   1.260  13.125
22842SOL     OW70422  12.623   6.238  11.550
22842SOL    HW170423  12.708   6.279  11.534
22842SOL    HW270424  12.618   6.167  11.487
22843SOL     OW70425   9.277  13.561   4.098
22843SOL    HW170426   9.188  13.571   4.063
22843SOL    HW270427   9.286  13.467   4.114
22844SOL     OW70428   7.506   8.720   6.318
22844SOL    HW170429   7.596   8.686   6.310
22844SOL    HW270430   7.452   8.641   6.323
22845SOL     OW70431  14.134   7.940   7.439
22845SOL    HW170432  14.095   7.976   7.359
22845SOL    HW270433  14.105   7.998   7.509
22846SOL     OW70434  10.054  14.403  10.233
22846SOL    HW170435  10.067  14.333  10.297
22846SOL    HW270436   9.960  14.423  10.238
22847SOL     OW70437  11.807   1.484   1.139
22847SOL    HW170438  11.874   1.465   1.204
22847SOL    HW270439  11.792   1.401   1.095
22848SOL     OW70440   5.973  11.401  13.339
22848SOL    HW170441   5.944  11.311  13.327
22848SOL    HW270442   6.067  11.394  13.355
22849SOL     OW70443   3.584   2.611   7.689
22849SOL    HW170444   3.561   2.544   7.624
22849SOL    HW270445   3.631   2.563   7.757
22850SOL     OW70446   3.429  14.469   2.836
22850SOL    HW170447   3.478  14.509   2.764
22850SOL    HW270448   3.337  14.488   2.816
22851SOL     OW70449  13.171  13.615   7.900
22851SOL    HW170450  13.127  13.572   7.827
22851SOL    HW270451  13.129  13.578   7.978
22852SOL     OW70452   6.972   5.547   2.565
22852SOL    HW170453   7.006   5.589   2.644
22852SOL    HW270454   6.897   5.600   2.539
22853SOL     OW70455   7.877  13.142  14.689
22853SOL    HW170456   7.794  13.144  14.642
22853SOL    HW270457   7.856  13.174  14.777
22854SOL     OW70458   7.096   1.693  11.407
22854SOL    HW170459   7.088   1.609  11.452
22854SOL    HW270460   7.167   1.680  11.344
22855SOL     OW70461   1.617  12.151  11.006
22855SOL    HW170462   1.684  12.099  11.051
22855SOL    HW270463   1.651  12.240  11.007
22856SOL     OW70464   8.021  14.121   2.013
22856SOL    HW170465   8.013  14.210   2.046
22856SOL    HW270466   8.075  14.129   1.934
22857SOL     OW70467   0.434   1.183   7.582
22857SOL    HW170468   0.527   1.168   7.600
22857SOL    HW270469   0.431   1.199   7.487
22858SOL     OW70470   7.987   8.799  12.092
22858SOL    HW170471   7.893   8.778  12.090
22858SOL    HW270472   7.998   8.852  12.171
22859SOL     OW70473   7.558   1.448   1.639
22859SOL    HW170474   7.600   1.510   1.698
22859SOL    HW270475   7.629   1.393   1.607
22860SOL     OW70476  13.636   7.441   7.491
22860SOL    HW170477  13.619   7.533   7.470
22860SOL    HW270478  13.723   7.424   7.454
22861SOL     OW70479   7.214   6.015   1.375
22861SOL    HW170480   7.207   6.098   1.329
22861SOL    HW270481   7.223   6.039   1.468
22862SOL     OW70482   1.891   2.908   1.229
22862SOL    HW170483   1.877   2.816   1.206
22862SOL    HW270484   1.923   2.906   1.319
22863SOL     OW70485   8.440   5.023   9.202
22863SOL    HW170486   8.518   5.036   9.256
22863SOL    HW270487   8.432   5.105   9.153
22864SOL     OW70488   0.223  11.797   7.986
22864SOL    HW170489   0.204  11.713   7.945
22864SOL    HW270490   0.137  11.839   7.996
22865SOL     OW70491   1.465   5.010   6.873
22865SOL    HW170492   1.386   4.973   6.913
22865SOL    HW270493   1.536   4.986   6.933
22866SOL     OW70494   5.223  13.091   6.276
22866SOL    HW170495   5.281  13.143   6.220
22866SOL    HW270496   5.273  13.076   6.356
22867SOL     OW70497   3.388   6.858  13.745
22867SOL    HW170498   3.441   6.911  13.686
22867SOL    HW270499   3.356   6.919  13.811
22868SOL     OW70500   4.881   7.737   6.014
22868SOL    HW170501   4.909   7.804   6.076
22868SOL    HW270502   4.812   7.689   6.060
22869SOL     OW70503  14.787   5.936   1.105
22869SOL    HW170504   0.014   5.947   1.100
22869SOL    HW270505  14.774   5.845   1.128
22870SOL     OW70506   7.753   2.873   3.993
22870SOL    HW170507   7.775   2.952   3.944
22870SOL    HW270508   7.734   2.904   4.082
22871SOL     OW70509   8.242  11.844  14.506
22871SOL    HW170510   8.211  11.853  14.416
22871SOL    HW270511   8.337  11.835  14.498
22872SOL     OW70512   7.404   7.651   3.093
22872SOL    HW170513   7.356   7.683   3.170
22872SOL    HW270514   7.428   7.561   3.115
22873SOL     OW70515  14.544  12.642   3.542
22873SOL    HW170516  14.550  12.738   3.547
22873SOL    HW270517  14.484  12.625   3.471
22874SOL     OW70518  11.073   9.825   5.968
22874SOL    HW170519  10.988   9.786   5.989
22874SOL    HW270520  11.118   9.760   5.915
22875SOL     OW70521   2.410   5.815   8.944
22875SOL    HW170522   2.433   5.781   8.858
22875SOL    HW270523   2.479   5.781   9.002
22876SOL     OW70524   9.548  12.702   0.593
22876SOL    HW170525   9.486  12.691   0.665
22876SOL    HW270526   9.493  12.720   0.517
22877SOL     OW70527   6.558  13.966   9.970
22877SOL    HW170528   6.540  14.060   9.967
22877SOL    HW270529   6.539  13.935   9.881
22878SOL     OW70530   2.652   4.841   6.960
22878SOL    HW170531   2.661   4.936   6.974
22878SOL    HW270532   2.736   4.814   6.924
22879SOL     OW70533  12.267   8.826   5.482
22879SOL    HW170534  12.342   8.768   5.470
22879SOL    HW270535  12.222   8.791   5.559
22880SOL     OW70536   1.788  12.999   1.729
22880SOL    HW170537   1.744  13.028   1.810
22880SOL    HW270538   1.804  12.906   1.743
22881SOL     OW70539  13.506  10.183   5.907
22881SOL    HW170540  13.541  10.271   5.898
22881SOL    HW270541  13.582  10.125   5.900
22882SOL     OW70542   0.964   5.027   4.344
22882SOL    HW170543   0.892   5.039   4.283
22882SOL    HW270544   1.016   5.107   4.337
22883SOL     OW70545  12.352   4.745  12.510
22883SOL    HW170546  12.260   4.771  12.509
22883SOL    HW270547  12.398   4.819  12.471
22884SOL     OW70548   2.222   9.533   3.322
22884SOL    HW170549   2.223   9.628   3.334
22884SOL    HW270550   2.239   9.498   3.409
22885SOL     OW70551   3.479  14.238  13.302
22885SOL    HW170552   3.532  14.170  13.259
22885SOL    HW270553   3.525  14.256  13.384
22886SOL     OW70554  10.963  11.157  12.413
22886SOL    HW170555  10.932  11.227  12.469
22886SOL    HW270556  10.962  11.194  12.325
22887SOL     OW70557   9.297  10.190   7.184
22887SOL    HW170558   9.299  10.097   7.159
22887SOL    HW270559   9.217  10.224   7.144
22888SOL     OW70560  12.348  11.659   7.026
22888SOL    HW170561  12.305  11.688   7.106
22888SOL    HW270562  12.442  11.665   7.045
22889SOL     OW70563  11.352   7.890   3.072
22889SOL    HW170564  11.371   7.902   3.165
22889SOL    HW270565  11.280   7.951   3.054
22890SOL     OW70566   6.609  12.570  11.992
22890SOL    HW170567   6.646  12.504  11.933
22890SOL    HW270568   6.625  12.653  11.948
22891SOL     OW70569   3.054   9.870  10.308
22891SOL    HW170570   3.089   9.944  10.357
22891SOL    HW270571   3.030   9.906  10.222
22892SOL     OW70572  12.459   8.177  13.508
22892SOL    HW170573  12.519   8.251  13.496
22892SOL    HW270574  12.446   8.170  13.602
22893SOL     OW70575   1.724   2.768   4.254
22893SOL    HW170576   1.788   2.836   4.233
22893SOL    HW270577   1.665   2.766   4.178
22894SOL     OW70578   6.564  12.615  11.395
22894SOL    HW170579   6.651  12.654  11.390
22894SOL    HW270580   6.578  12.533  11.442
22895SOL     OW70581   2.068   0.816   8.631
22895SOL    HW170582   2.046   0.832   8.539
22895SOL    HW270583   2.034   0.893   8.677
22896SOL     OW70584   3.815   2.111   2.298
22896SOL    HW170585   3.821   2.182   2.362
22896SOL    HW270586   3.726   2.117   2.264
22897SOL     OW70587   1.862  13.766   1.377
22897SOL    HW170588   1.920  13.812   1.438
22897SOL    HW270589   1.880  13.673   1.392
22898SOL     OW70590   6.728   5.758   4.162
22898SOL    HW170591   6.677   5.679   4.140
22898SOL    HW270592   6.798   5.760   4.096
22899SOL     OW70593   1.982   0.803   1.054
22899SOL    HW170594   2.014   0.754   1.130
22899SOL    HW270595   1.889   0.819   1.073
22900SOL     OW70596  12.155   4.349   8.091
22900SOL    HW170597  12.233   4.363   8.039
22900SOL    HW270598  12.098   4.424   8.071
22901SOL     OW70599   5.649  13.677   3.385
22901SOL    HW170600   5.679  13.751   3.437
22901SOL    HW270601   5.554  13.688   3.379
22902SOL     OW70602  14.232   8.778  11.425
22902SOL    HW170603  14.304   8.715  11.435
22902SOL    HW270604  14.168   8.731  11.371
22903SOL     OW70605  10.992   7.830  12.676
22903SOL    HW170606  10.963   7.914  12.712
22903SOL    HW270607  11.015   7.778  12.753
22904SOL     OW70608   4.701  12.493  13.500
22904SOL    HW170609   4.615  12.475  13.462
22904SOL    HW270610   4.682  12.538  13.582
22905SOL     OW70611  13.553  12.614   1.726
22905SOL    HW170612  13.622  12.673   1.695
22905SOL    HW270613  13.547  12.631   1.820
22906SOL     OW70614   5.235  10.437   3.573
22906SOL    HW170615   5.329  10.429   3.558
22906SOL    HW270616   5.204  10.493   3.502
22907SOL     OW70617   3.427   5.736   4.069
22907SOL    HW170618   3.487   5.661   4.074
22907SOL    HW270619   3.425   5.758   3.976
22908SOL     OW70620   1.953   2.483  14.445
22908SOL    HW170621   1.876   2.538  14.432
22908SOL    HW270622   1.962   2.434  14.364
22909SOL     OW70623  10.216  11.040  13.482
22909SOL    HW170624  10.202  11.064  13.574
22909SOL    HW270625  10.239  11.123  13.439
22910SOL     OW70626  11.598   7.081  11.739
22910SOL    HW170627  11.534   7.075  11.810
22910SOL    HW270628  11.551   7.049  11.662
22911SOL     OW70629   8.431   5.445   3.274
22911SOL    HW170630   8.484   5.394   3.213
22911SOL    HW270631   8.362   5.385   3.303
22912SOL     OW70632   2.062   5.708   1.744
22912SOL    HW170633   1.975   5.669   1.754
22912SOL    HW270634   2.046   5.802   1.737
22913SOL     OW70635   0.417   6.446   0.115
22913SOL    HW170636   0.440   6.361   0.077
22913SOL    HW270637   0.466   6.449   0.197
22914SOL     OW70638   5.742   5.354   0.105
22914SOL    HW170639   5.734   5.395   0.019
22914SOL    HW270640   5.690   5.273   0.098
22915SOL     OW70641  13.056  10.456  11.210
22915SOL    HW170642  12.966  10.461  11.243
22915SOL    HW270643  13.111  10.478  11.285
22916SOL     OW70644   5.874  13.872   7.757
22916SOL    HW170645   5.867  13.850   7.850
22916SOL    HW270646   5.813  13.812   7.713
22917SOL     OW70647  11.884   5.736  12.761
22917SOL    HW170648  11.952   5.762  12.698
22917SOL    HW270649  11.804   5.731  12.709
22918SOL     OW70650   4.462  11.439   3.522
22918SOL    HW170651   4.393  11.471   3.464
22918SOL    HW270652   4.515  11.381   3.468
22919SOL     OW70653   0.026   8.458  12.885
22919SOL    HW170654   0.047   8.423  12.798
22919SOL    HW270655   0.045   8.386  12.945
22920SOL     OW70656   9.508   6.992  12.519
22920SOL    HW170657   9.486   7.085  12.515
22920SOL    HW270658   9.454   6.958  12.591
22921SOL     OW70659  14.164   8.099   1.910
22921SOL    HW170660  14.105   8.122   1.983
22921SOL    HW270661  14.183   8.007   1.923
22922SOL     OW70662   5.952   0.882   7.820
22922SOL    HW170663   6.040   0.920   7.820
22922SOL    HW270664   5.897   0.946   7.776
22923SOL     OW70665   6.603   4.579  12.041
22923SOL    HW170666   6.509   4.596  12.048
22923SOL    HW270667   6.624   4.530  12.121
22924SOL     OW70668  14.484   6.507   1.818
22924SOL    HW170669  14.446   6.460   1.744
22924SOL    HW270670  14.551   6.448   1.853
22925SOL     OW70671   4.610   6.567  13.397
22925SOL    HW170672   4.531   6.545  13.347
22925SOL    HW270673   4.645   6.482  13.424
22926SOL     OW70674  13.518   5.498   1.153
22926SOL    HW170675  13.533   5.511   1.247
22926SOL    HW270676  13.593   5.538   1.110
22927SOL     OW70677   9.228   8.346   4.433
22927SOL    HW170678   9.232   8.251   4.445
22927SOL    HW270679   9.294   8.365   4.367
22928SOL     OW70680  14.710   8.447   0.961
22928SOL    HW170681  14.681   8.530   0.997
22928SOL    HW270682  14.725   8.391   1.037
22929SOL     OW70683  11.741   1.555  12.394
22929SOL    HW170684  11.695   1.633  12.426
22929SOL    HW270685  11.778   1.582  12.309
22930SOL     OW70686  13.532   3.744   1.625
22930SOL    HW170687  13.507   3.668   1.677
22930SOL    HW270688  13.453   3.798   1.622
22931SOL     OW70689  12.293  13.386   7.856
22931SOL    HW170690  12.310  13.327   7.783
22931SOL    HW270691  12.258  13.330   7.925
22932SOL     OW70692   8.735   2.073  11.550
22932SOL    HW170693   8.663   2.114  11.502
22932SOL    HW270694   8.814   2.100  11.502
22933SOL     OW70695  13.934  11.250  10.966
22933SOL    HW170696  13.844  11.223  10.981
22933SOL    HW270697  13.981  11.223  11.045
22934SOL     OW70698   0.536   3.975   3.466
22934SOL    HW170699   0.534   3.879   3.463
22934SOL    HW270700   0.623   3.997   3.498
22935SOL     OW70701   1.590   1.535  14.456
22935SOL    HW170702   1.618   1.443  14.455
22935SOL    HW270703   1.665   1.583  14.491
22936SOL     OW70704   7.202   4.571   6.798
22936SOL    HW170705   7.146   4.590   6.874
22936SOL    HW270706   7.208   4.655   6.752
22937SOL     OW70707  14.599  10.089  12.398
22937SOL    HW170708  14.666  10.143  12.359
22937SOL    HW270709  14.643  10.046  12.472
22938SOL     OW70710   5.323   6.305   3.028
22938SOL    HW170711   5.354   6.282   2.941
22938SOL    HW270712   5.229   6.288   3.025
22939SOL     OW70713   5.876  10.222   7.316
22939SOL    HW170714   5.874  10.306   7.270
22939SOL    HW270715   5.864  10.245   7.408
22940SOL     OW70716  10.923   7.820   1.935
22940SOL    HW170717  10.829   7.821   1.953
22940SOL    HW270718  10.941   7.906   1.897
22941SOL     OW70719   3.419   8.533   1.370
22941SOL    HW170720   3.456   8.488   1.294
22941SOL    HW270721   3.325   8.517   1.364
22942SOL     OW70722  10.333  14.847  12.182
22942SOL    HW170723  10.328   0.073  12.199
22942SOL    HW270724  10.293  14.807  12.259
22943SOL     OW70725   8.902  11.087   2.359
22943SOL    HW170726   8.969  11.019   2.370
22943SOL    HW270727   8.902  11.134   2.442
22944SOL     OW70728   9.126  11.965  11.265
22944SOL    HW170729   9.148  11.880  11.227
22944SOL    HW270730   9.204  12.018  11.252
22945SOL     OW70731   0.822   1.159   6.065
22945SOL    HW170732   0.858   1.115   6.141
22945SOL    HW270733   0.898   1.200   6.023
22946SOL     OW70734  11.043  14.809   1.183
22946SOL    HW170735  11.083  14.722   1.182
22946SOL    HW270736  11.111  14.866   1.217
22947SOL     OW70737   9.752  14.012   1.298
22947SOL    HW170738   9.667  14.050   1.319
22947SOL    HW270739   9.812  14.087   1.296
22948SOL     OW70740  12.414   2.066   6.359
22948SOL    HW170741  12.451   2.020   6.434
22948SOL    HW270742  12.482   2.062   6.292
22949SOL     OW70743   0.792   6.867   6.028
22949SOL    HW170744   0.761   6.947   6.070
22949SOL    HW270745   0.715   6.810   6.024
22950SOL     OW70746  11.650   2.889  12.141
22950SOL    HW170747  11.730   2.932  12.110
22950SOL    HW270748  11.638   2.921  12.230
22951SOL     OW70749   6.493   4.073   3.798
22951SOL    HW170750   6.463   4.078   3.708
22951SOL    HW270751   6.521   4.163   3.819
22952SOL     OW70752  11.319   7.915  13.869
22952SOL    HW170753  11.321   7.821  13.850
22952SOL    HW270754  11.307   7.920  13.963
22953SOL     OW70755   7.063   2.065  10.172
22953SOL    HW170756   7.062   1.978  10.132
22953SOL    HW270757   6.974   2.079  10.203
22954SOL     OW70758  13.306  14.814   5.554
22954SOL    HW170759  13.217  14.800   5.585
22954SOL    HW270760  13.331  14.730   5.515
22955SOL     OW70761   4.831   3.943  10.252
22955SOL    HW170762   4.809   3.925  10.161
22955SOL    HW270763   4.893   4.017  10.247
22956SOL     OW70764   2.680   3.936   1.426
22956SOL    HW170765   2.681   3.925   1.331
22956SOL    HW270766   2.596   3.899   1.454
22957SOL     OW70767   3.679   4.406   1.024
22957SOL    HW170768   3.636   4.381   1.106
22957SOL    HW270769   3.669   4.329   0.967
22958SOL     OW70770  14.212  10.725   7.864
22958SOL    HW170771  14.175  10.803   7.823
22958SOL    HW270772  14.307  10.740   7.863
22959SOL     OW70773   9.163  14.200   5.885
22959SOL    HW170774   9.077  14.177   5.920
22959SOL    HW270775   9.216  14.122   5.899
22960SOL     OW70776   5.951  10.874  10.369
22960SOL    HW170777   5.961  10.912  10.282
22960SOL    HW270778   5.998  10.934  10.427
22961SOL     OW70779  13.732   1.573   9.418
22961SOL    HW170780  13.687   1.622   9.350
22961SOL    HW270781  13.774   1.640   9.472
22962SOL     OW70782  14.392   2.013   9.480
22962SOL    HW170783  14.327   1.991   9.414
22962SOL    HW270784  14.344   2.012   9.563
22963SOL     OW70785   5.037   0.001   8.532
22963SOL    HW170786   5.057   0.009   8.439
22963SOL    HW270787   5.121  14.848   8.574
22964SOL     OW70788   1.520   4.395  12.145
22964SOL    HW170789   1.483   4.397  12.057
22964SOL    HW270790   1.604   4.350  12.134
22965SOL     OW70791   1.804   7.035  12.522
22965SOL    HW170792   1.788   6.944  12.495
22965SOL    HW270793   1.792   7.086  12.441
22966SOL     OW70794  14.379  14.816  11.341
22966SOL    HW170795  14.364  14.760  11.417
22966SOL    HW270796  14.340  14.769  11.268
22967SOL     OW70797   2.762  10.556  11.791
22967SOL    HW170798   2.713  10.637  11.780
22967SOL    HW270799   2.795  10.560  11.881
22968SOL     OW70800   8.727   3.557  10.361
22968SOL    HW170801   8.686   3.471  10.365
22968SOL    HW270802   8.708   3.597  10.446
22969SOL     OW70803  11.448   6.125   2.728
22969SOL    HW170804  11.466   6.199   2.669
22969SOL    HW270805  11.355   6.106   2.714
22970SOL     OW70806  13.240  11.347   2.980
22970SOL    HW170807  13.161  11.299   3.004
22970SOL    HW270808  13.209  11.433   2.953
22971SOL     OW70809   2.114   7.560   4.515
22971SOL    HW170810   2.207   7.576   4.530
22971SOL    HW270811   2.110   7.525   4.426
22972SOL     OW70812   3.333  10.732  12.273
22972SOL    HW170813   3.347  10.638  12.273
22972SOL    HW270814   3.345  10.759  12.182
22973SOL     OW70815  11.622   7.425  11.999
22973SOL    HW170816  11.662   7.511  11.987
22973SOL    HW270817  11.677   7.365  11.948
22974SOL     OW70818  12.145   0.712   5.554
22974SOL    HW170819  12.112   0.629   5.521
22974SOL    HW270820  12.102   0.722   5.639
22975SOL     OW70821   4.518   0.816  14.183
22975SOL    HW170822   4.458   0.875  14.138
22975SOL    HW270823   4.590   0.872  14.212
22976SOL     OW70824   0.758  13.244   3.766
22976SOL    HW170825   0.741  13.333   3.736
22976SOL    HW270826   0.671  13.210   3.790
22977SOL     OW70827  11.944   1.324  12.797
22977SOL    HW170828  11.871   1.292  12.851
22977SOL    HW270829  11.906   1.395  12.746
22978SOL     OW70830   9.540   2.657   4.348
22978SOL    HW170831   9.568   2.710   4.274
22978SOL    HW270832   9.572   2.569   4.329
22979SOL     OW70833   9.070  10.119   5.342
22979SOL    HW170834   9.080  10.166   5.425
22979SOL    HW270835   8.991  10.157   5.303
22980SOL     OW70836  10.436   1.493   6.082
22980SOL    HW170837  10.514   1.534   6.045
22980SOL    HW270838  10.465   1.405   6.106
22981SOL     OW70839   2.485  13.737   3.894
22981SOL    HW170840   2.575  13.746   3.864
22981SOL    HW270841   2.473  13.812   3.953
22982SOL     OW70842  13.227  13.546  13.047
22982SOL    HW170843  13.146  13.583  13.011
22982SOL    HW270844  13.200  13.509  13.131
22983SOL     OW70845  11.580   3.580  12.917
22983SOL    HW170846  11.586   3.498  12.966
22983SOL    HW270847  11.668   3.595  12.883
22984SOL     OW70848  13.412   7.216   9.084
22984SOL    HW170849  13.483   7.161   9.050
22984SOL    HW270850  13.345   7.214   9.016
22985SOL     OW70851   9.016   4.528   5.352
22985SOL    HW170852   9.065   4.463   5.302
22985SOL    HW270853   8.947   4.478   5.395
22986SOL     OW70854   0.431   2.978   6.202
22986SOL    HW170855   0.502   3.039   6.223
22986SOL    HW270856   0.468   2.891   6.217
22987SOL     OW70857  12.535  10.294   4.601
22987SOL    HW170858  12.593  10.218   4.600
22987SOL    HW270859  12.549  10.334   4.686
22988SOL     OW70860   6.325  10.689  14.517
22988SOL    HW170861   6.317  10.780  14.486
22988SOL    HW270862   6.407  10.658  14.478
22989SOL     OW70863  12.129   9.489  10.182
22989SOL    HW170864  12.123   9.464  10.274
22989SOL    HW270865  12.174   9.574  10.184
22990SOL     OW70866   5.378  14.679   2.805
22990SOL    HW170867   5.385  14.733   2.727
22990SOL    HW270868   5.458  14.626   2.806
22991SOL     OW70869   2.119   1.066   4.747
22991SOL    HW170870   2.093   1.106   4.830
22991SOL    HW270871   2.162   1.136   4.699
22992SOL     OW70872  14.703  11.923   5.593
22992SOL    HW170873  14.725  12.009   5.629
22992SOL    HW270874  14.751  11.861   5.648
22993SOL     OW70875   9.457   3.673   8.715
22993SOL    HW170876   9.493   3.715   8.792
22993SOL    HW270877   9.370   3.711   8.705
22994SOL     OW70878   3.932   8.591   4.720
22994SOL    HW170879   3.954   8.508   4.678
22994SOL    HW270880   4.009   8.646   4.707
22995SOL     OW70881   5.326   0.303  11.917
22995SOL    HW170882   5.415   0.276  11.940
22995SOL    HW270883   5.271   0.267  11.987
22996SOL     OW70884   6.651   2.425  10.326
22996SOL    HW170885   6.658   2.442  10.232
22996SOL    HW270886   6.742   2.421  10.356
22997SOL     OW70887   7.275  11.733  13.221
22997SOL    HW170888   7.233  11.803  13.271
22997SOL    HW270889   7.202  11.683  13.184
22998SOL     OW70890   7.232   1.468  14.302
22998SOL    HW170891   7.216   1.424  14.385
22998SOL    HW270892   7.316   1.434  14.272
22999SOL     OW70893   4.395   5.333   7.975
22999SOL    HW170894   4.329   5.279   7.932
22999SOL    HW270895   4.395   5.415   7.925
23000SOL     OW70896   4.739   1.956   9.998
23000SOL    HW170897   4.674   1.949   9.929
23000SOL    HW270898   4.744   2.050  10.016
23001SOL     OW70899   0.858  14.358  11.817
23001SOL    HW170900   0.834  14.265  11.813
23001SOL    HW270901   0.913  14.365  11.895
23002SOL     OW70902   1.046  14.862   7.817
23002SOL    HW170903   0.960   0.028   7.843
23002SOL    HW270904   1.029  14.772   7.791
23003SOL     OW70905   1.680   7.437   9.180
23003SOL    HW170906   1.706   7.519   9.221
23003SOL    HW270907   1.593   7.420   9.215
23004SOL     OW70908   0.784   9.977   9.877
23004SOL    HW170909   0.785   9.886   9.850
23004SOL    HW270910   0.820  10.025   9.803
23005SOL     OW70911  12.740   2.334   4.777
23005SOL    HW170912  12.786   2.397   4.833
23005SOL    HW270913  12.809   2.275   4.747
23006SOL     OW70914   7.331   3.644  13.201
23006SOL    HW170915   7.322   3.687  13.116
23006SOL    HW270916   7.414   3.676  13.236
23007SOL     OW70917  10.161   0.802  13.153
23007SOL    HW170918  10.194   0.871  13.096
23007SOL    HW270919  10.204   0.817  13.237
23008SOL     OW70920  12.366   3.330   2.039
23008SOL    HW170921  12.323   3.414   2.055
23008SOL    HW270922  12.300   3.278   1.993
23009SOL     OW70923   8.463  13.596   9.506
23009SOL    HW170924   8.532  13.649   9.545
23009SOL    HW270925   8.510  13.540   9.443
23010SOL     OW70926   4.927   4.247   0.216
23010SOL    HW170927   4.951   4.304   0.142
23010SOL    HW270928   4.838   4.274   0.239
23011SOL     OW70929  10.751  10.419   2.750
23011SOL    HW170930  10.727  10.482   2.818
23011SOL    HW270931  10.685  10.432   2.681
23012SOL     OW70932   2.529   7.449   7.853
23012SOL    HW170933   2.438   7.421   7.840
23012SOL    HW270934   2.528   7.542   7.828
23013SOL     OW70935   7.953   4.895  13.029
23013SOL    HW170936   7.898   4.916  12.953
23013SOL    HW270937   7.997   4.977  13.049
23014SOL     OW70938  10.229   6.663   6.047
23014SOL    HW170939  10.220   6.688   6.139
23014SOL    HW270940  10.167   6.720   6.002
23015SOL     OW70941  13.693   9.258   8.257
23015SOL    HW170942  13.633   9.331   8.271
23015SOL    HW270943  13.642   9.193   8.209
23016SOL     OW70944   5.798   0.882   8.426
23016SOL    HW170945   5.802   0.906   8.519
23016SOL    HW270946   5.811   0.965   8.380
23017SOL     OW70947   1.444   0.543   9.262
23017SOL    HW170948   1.474   0.617   9.210
23017SOL    HW270949   1.450   0.468   9.203
23018SOL     OW70950   7.248   4.782  12.910
23018SOL    HW170951   7.247   4.868  12.953
23018SOL    HW270952   7.159   4.773  12.874
23019SOL     OW70953  11.519  14.497   3.271
23019SOL    HW170954  11.604  14.469   3.237
23019SOL    HW270955  11.502  14.581   3.229
23020SOL     OW70956  12.460  11.980   7.718
23020SOL    HW170957  12.406  11.933   7.781
23020SOL    HW270958  12.542  11.930   7.715
23021SOL     OW70959   9.669  12.259  12.100
23021SOL    HW170960   9.649  12.221  12.186
23021SOL    HW270961   9.601  12.325  12.087
23022SOL     OW70962   0.004   9.146  10.670
23022SOL    HW170963  14.862   9.057  10.706
23022SOL    HW270964   0.076   9.184  10.721
23023SOL     OW70965  10.426   4.833   0.007
23023SOL    HW170966  10.499   4.882   0.043
23023SOL    HW270967  10.348   4.874   0.045
23024SOL     OW70968   9.382   9.224   6.347
23024SOL    HW170969   9.442   9.238   6.274
23024SOL    HW270970   9.415   9.281   6.416
23025SOL     OW70971   4.659   2.818  12.073
23025SOL    HW170972   4.646   2.739  12.020
23025SOL    HW270973   4.711   2.788  12.148
23026SOL     OW70974   8.350   4.812   6.118
23026SOL    HW170975   8.414   4.851   6.058
23026SOL    HW270976   8.378   4.721   6.127
23027SOL     OW70977   9.522   8.607   2.760
23027SOL    HW170978   9.446   8.664   2.761
23027SOL    HW270979   9.580   8.643   2.827
23028SOL     OW70980  13.883   3.872   2.258
23028SOL    HW170981  13.828   3.889   2.182
23028SOL    HW270982  13.822   3.868   2.332
23029SOL     OW70983  10.491  13.756   9.188
23029SOL    HW170984  10.414  13.743   9.244
23029SOL    HW270985  10.564  13.724   9.241
23030SOL     OW70986   9.890   5.452  12.046
23030SOL    HW170987   9.883   5.357  12.057
23030SOL    HW270988   9.888   5.464  11.951
23031SOL     OW70989   2.761   0.808   6.882
23031SOL    HW170990   2.673   0.801   6.918
23031SOL    HW270991   2.818   0.813   6.959
23032SOL     OW70992   4.568   9.315  11.597
23032SOL    HW170993   4.634   9.371  11.638
23032SOL    HW270994   4.565   9.237  11.653
23033SOL     OW70995   9.649   6.966   4.046
23033SOL    HW170996   9.687   6.935   4.128
23033SOL    HW270997   9.647   7.061   4.055
23034SOL     OW70998   4.011   5.712   1.998
23034SOL    HW170999   3.951   5.644   2.029
23034SOL    HW271000   3.961   5.760   1.932
23035SOL     OW71001   8.674   3.466   3.499
23035SOL    HW171002   8.741   3.403   3.471
23035SOL    HW271003   8.636   3.498   3.417
23036SOL     OW71004   3.732  10.444  13.194
23036SOL    HW171005   3.733  10.354  13.159
23036SOL    HW271006   3.745  10.499  13.117
23037SOL     OW71007   6.887   9.964   3.078
23037SOL    HW171008   6.912  10.054   3.098
23037SOL    HW271009   6.962   9.911   3.108
23038SOL     OW71010  12.681   1.252   2.056
23038SOL    HW171011  12.717   1.308   1.987
23038SOL    HW271012  12.736   1.269   2.132
23039SOL     OW71013   7.415   6.826   2.087
23039SOL    HW171014   7.340   6.812   2.028
23039SOL    HW271015   7.480   6.870   2.032
23040SOL     OW71016   9.928   1.952   5.464
23040SOL    HW171017   9.976   1.875   5.495
23040SOL    HW271018   9.994   2.008   5.424
23041SOL     OW71019   2.052  12.639   3.910
23041SOL    HW171020   2.102  12.702   3.962
23041SOL    HW271021   1.973  12.623   3.962
23042SOL     OW71022   1.398   6.811   8.889
23042SOL    HW171023   1.357   6.756   8.822
23042SOL    HW271024   1.492   6.792   8.881
23043SOL     OW71025   2.820   9.653   0.401
23043SOL    HW171026   2.881   9.695   0.341
23043SOL    HW271027   2.743   9.711   0.402
23044SOL     OW71028   9.094   1.930   6.508
23044SOL    HW171029   9.089   1.904   6.416
23044SOL    HW271030   9.187   1.950   6.522
23045SOL     OW71031   7.611   7.613  12.236
23045SOL    HW171032   7.622   7.705  12.258
23045SOL    HW271033   7.700   7.582  12.219
23046SOL     OW71034   4.834   2.102  10.785
23046SOL    HW171035   4.891   2.100  10.861
23046SOL    HW271036   4.876   2.164  10.725
23047SOL     OW71037   5.329   3.933  13.828
23047SOL    HW171038   5.317   3.968  13.740
23047SOL    HW271039   5.420   3.904  13.831
23048SOL     OW71040  12.056   1.662  10.856
23048SOL    HW171041  12.095   1.662  10.943
23048SOL    HW271042  11.977   1.610  10.865
23049SOL     OW71043  14.531  10.355   0.223
23049SOL    HW171044  14.472  10.428   0.202
23049SOL    HW271045  14.494  10.280   0.176
23050SOL     OW71046   5.474  14.139   8.317
23050SOL    HW171047   5.509  14.088   8.390
23050SOL    HW271048   5.549  14.189   8.284
23051SOL     OW71049   1.998   9.994   1.009
23051SOL    HW171050   2.020   9.925   1.071
23051SOL    HW271051   1.971  10.068   1.064
23052SOL     OW71052  13.511  11.917   8.729
23052SOL    HW171053  13.429  11.962   8.708
23052SOL    HW271054  13.553  11.974   8.793
23053SOL     OW71055   3.013   0.912  13.635
23053SOL    HW171056   2.949   0.965  13.683
23053SOL    HW271057   3.064   0.868  13.703
23054SOL     OW71058  12.676   2.339   0.777
23054SOL    HW171059  12.661   2.283   0.700
23054SOL    HW271060  12.755   2.304   0.817
23055SOL     OW71061  13.749   6.499   6.936
23055SOL    HW171062  13.799   6.495   7.018
23055SOL    HW271063  13.799   6.558   6.880
23056SOL     OW71064   7.675   4.057   5.131
23056SOL    HW171065   7.591   4.077   5.089
23056SOL    HW271066   7.653   4.041   5.222
23057SOL     OW71067  11.659  12.133   9.633
23057SOL    HW171068  11.665  12.041   9.659
23057SOL    HW271069  11.656  12.181   9.716
23058SOL     OW71070  12.746  13.735   6.029
23058SOL    HW171071  12.713  13.797   5.964
23058SOL    HW271072  12.824  13.775   6.064
23059SOL     OW71073   2.949   5.987   9.402
23059SOL    HW171074   2.973   5.966   9.492
23059SOL    HW271075   3.030   6.018   9.362
23060SOL     OW71076   5.534  13.746   1.259
23060SOL    HW171077   5.468  13.767   1.324
23060SOL    HW271078   5.563  13.831   1.226
23061SOL     OW71079   3.470   6.014   0.621
23061SOL    HW171080   3.446   5.983   0.534
23061SOL    HW271081   3.411   5.967   0.680
23062SOL     OW71082  14.126   9.512   1.575
23062SOL    HW171083  14.043   9.488   1.617
23062SOL    HW271084  14.131   9.607   1.584
23063SOL     OW71085  10.007  14.592   6.901
23063SOL    HW171086  10.036  14.583   6.992
23063SOL    HW271087   9.917  14.562   6.901
23064SOL     OW71088  11.575   5.399  13.486
23064SOL    HW171089  11.585   5.350  13.404
23064SOL    HW271090  11.613   5.485  13.468
23065SOL     OW71091   3.798   2.305  14.298
23065SOL    HW171092   3.742   2.312  14.375
23065SOL    HW271093   3.761   2.366  14.235
23066SOL     OW71094  14.176   6.315   0.229
23066SOL    HW171095  14.241   6.328   0.298
23066SOL    HW271096  14.102   6.370   0.255
23067SOL     OW71097   4.314   8.423   7.955
23067SOL    HW171098   4.348   8.491   7.897
23067SOL    HW271099   4.331   8.341   7.909
23068SOL     OW71100   9.508   8.448   6.866
23068SOL    HW171101   9.444   8.395   6.913
23068SOL    HW271102   9.584   8.451   6.924
23069SOL     OW71103   8.904   0.080   1.077
23069SOL    HW171104   8.861   0.151   1.126
23069SOL    HW271105   8.896   0.004   1.134
23070SOL     OW71106  12.752   3.886   1.738
23070SOL    HW171107  12.681   3.904   1.799
23070SOL    HW271108  12.770   3.793   1.748
23071SOL     OW71109   4.860  13.569   1.495
23071SOL    HW171110   4.879  13.554   1.588
23071SOL    HW271111   4.795  13.639   1.495
23072SOL     OW71112   4.461  10.360  13.220
23072SOL    HW171113   4.375  10.326  13.245
23072SOL    HW271114   4.449  10.454  13.216
23073SOL     OW71115  13.810   3.900   8.817
23073SOL    HW171116  13.755   3.883   8.740
23073SOL    HW271117  13.786   3.988   8.845
23074SOL     OW71118   2.805   5.540  10.337
23074SOL    HW171119   2.889   5.509  10.372
23074SOL    HW271120   2.758   5.572  10.414
23075SOL     OW71121  13.628   3.733   5.922
23075SOL    HW171122  13.549   3.787   5.926
23075SOL    HW271123  13.691   3.786   5.872
23076SOL     OW71124   6.268  12.641   2.296
23076SOL    HW171125   6.185  12.658   2.340
23076SOL    HW271126   6.333  12.637   2.366
23077SOL     OW71127   0.485   0.661   3.031
23077SOL    HW171128   0.419   0.724   3.002
23077SOL    HW271129   0.439   0.605   3.093
23078SOL     OW71130   5.612   1.481  13.156
23078SOL    HW171131   5.596   1.405  13.100
23078SOL    HW271132   5.668   1.448  13.226
23079SOL     OW71133   5.017   1.874   8.481
23079SOL    HW171134   5.034   1.829   8.398
23079SOL    HW271135   4.925   1.856   8.500
23080SOL     OW71136   1.410   8.319   1.039
23080SOL    HW171137   1.414   8.402   0.991
23080SOL    HW271138   1.378   8.344   1.126
23081SOL     OW71139  12.514   3.741   3.839
23081SOL    HW171140  12.514   3.701   3.752
23081SOL    HW271141  12.469   3.825   3.826
23082SOL     OW71142   4.157  10.615  11.105
23082SOL    HW171143   4.194  10.544  11.158
23082SOL    HW271144   4.145  10.687  11.167
23083SOL     OW71145  11.310  13.746  13.940
23083SOL    HW171146  11.315  13.666  13.889
23083SOL    HW271147  11.225  13.741  13.985
23084SOL     OW71148   0.517   7.606  12.286
23084SOL    HW171149   0.530   7.652  12.369
23084SOL    HW271150   0.425   7.580  12.287
23085SOL     OW71151  14.193   8.729   8.293
23085SOL    HW171152  14.203   8.653   8.350
23085SOL    HW271153  14.282   8.758   8.274
23086SOL     OW71154  10.198   3.480   3.696
23086SOL    HW171155  10.178   3.547   3.631
23086SOL    HW271156  10.294   3.482   3.704
23087SOL     OW71157  13.067   1.520   6.732
23087SOL    HW171158  12.997   1.562   6.682
23087SOL    HW271159  13.123   1.592   6.761
23088SOL     OW71160   5.224  12.652   7.680
23088SOL    HW171161   5.190  12.706   7.609
23088SOL    HW271162   5.299  12.607   7.641
23089SOL     OW71163   5.835  13.040   3.985
23089SOL    HW171164   5.848  12.964   4.042
23089SOL    HW271165   5.902  13.103   4.013
23090SOL     OW71166  13.623   6.400   5.830
23090SOL    HW171167  13.705   6.380   5.785
23090SOL    HW271168  13.591   6.315   5.861
23091SOL     OW71169  11.426  13.711  10.382
23091SOL    HW171170  11.423  13.644  10.313
23091SOL    HW271171  11.506  13.692  10.430
23092SOL     OW71172   3.068   0.161   3.759
23092SOL    HW171173   2.980   0.131   3.782
23092SOL    HW271174   3.097   0.101   3.690
23093SOL     OW71175  11.637   7.117   9.032
23093SOL    HW171176  11.632   7.050   8.964
23093SOL    HW271177  11.706   7.086   9.091
23094SOL     OW71178   7.836   8.100   5.495
23094SOL    HW171179   7.796   8.120   5.411
23094SOL    HW271180   7.915   8.051   5.473
23095SOL     OW71181   3.610   7.660   0.455
23095SOL    HW171182   3.566   7.575   0.456
23095SOL    HW271183   3.555   7.715   0.399
23096SOL     OW71184   7.092   1.544   9.456
23096SOL    HW171185   7.187   1.531   9.462
23096SOL    HW271186   7.081   1.629   9.414
23097SOL     OW71187   9.982   4.016   5.670
23097SOL    HW171188   9.957   4.007   5.578
23097SOL    HW271189  10.028   4.100   5.675
23098SOL     OW71190  13.064   7.249  13.120
23098SOL    HW171191  13.022   7.279  13.039
23098SOL    HW271192  13.120   7.322  13.146
23099SOL     OW71193   3.706  10.598  12.299
23099SOL    HW171194   3.655  10.532  12.346
23099SOL    HW271195   3.744  10.551  12.225
23100SOL     OW71196   3.472   6.744   7.139
23100SOL    HW171197   3.490   6.798   7.062
23100SOL    HW271198   3.493   6.800   7.214
23101SOL     OW71199  11.177   5.570   3.356
23101SOL    HW171200  11.202   5.498   3.414
23101SOL    HW271201  11.203   5.649   3.403
23102SOL     OW71202   3.368  12.088   1.704
23102SOL    HW171203   3.308  12.014   1.696
23102SOL    HW271204   3.331  12.155   1.647
23103SOL     OW71205   7.330  11.881  13.558
23103SOL    HW171206   7.337  11.939  13.483
23103SOL    HW271207   7.334  11.793  13.520
23104SOL     OW71208   8.024   4.915   7.532
23104SOL    HW171209   7.943   4.893   7.486
23104SOL    HW271210   8.089   4.857   7.493
23105SOL     OW71211   6.098   1.805   4.427
23105SOL    HW171212   6.044   1.791   4.350
23105SOL    HW271213   6.139   1.891   4.413
23106SOL     OW71214   2.160   5.486   1.536
23106SOL    HW171215   2.166   5.566   1.588
23106SOL    HW271216   2.073   5.490   1.495
23107SOL     OW71217  13.139   5.382   4.098
23107SOL    HW171218  13.153   5.446   4.167
23107SOL    HW271219  13.105   5.305   4.143
23108SOL     OW71220   7.842   9.309   3.250
23108SOL    HW171221   7.753   9.336   3.227
23108SOL    HW271222   7.897   9.383   3.227
23109SOL     OW71223   9.203   2.753  10.879
23109SOL    HW171224   9.201   2.825  10.815
23109SOL    HW271225   9.254   2.684  10.836
23110SOL     OW71226   8.442   5.941   9.882
23110SOL    HW171227   8.380   5.986   9.939
23110SOL    HW271228   8.414   5.849   9.884
23111SOL     OW71229  13.806  11.926   4.261
23111SOL    HW171230  13.870  11.905   4.193
23111SOL    HW271231  13.822  12.018   4.282
23112SOL     OW71232   1.341   9.094  11.315
23112SOL    HW171233   1.296   9.176  11.333
23112SOL    HW271234   1.416   9.120  11.261
23113SOL     OW71235   9.222  14.409   2.493
23113SOL    HW171236   9.222  14.455   2.576
23113SOL    HW271237   9.225  14.316   2.517
23114SOL     OW71238  10.766   5.323   7.663
23114SOL    HW171239  10.777   5.418   7.668
23114SOL    HW271240  10.684   5.310   7.615
23115SOL     OW71241   8.232  10.672  14.377
23115SOL    HW171242   8.234  10.628  14.462
23115SOL    HW271243   8.198  10.607  14.317
23116SOL     OW71244   6.741   8.979   7.321
23116SOL    HW171245   6.819   9.033   7.305
23116SOL    HW271246   6.766   8.892   7.290
23117SOL     OW71247   6.299  12.468   3.001
23117SOL    HW171248   6.351  12.392   3.027
23117SOL    HW271249   6.345  12.543   3.039
23118SOL     OW71250   7.874  10.785   7.845
23118SOL    HW171251   7.905  10.843   7.775
23118SOL    HW271252   7.808  10.836   7.891
23119SOL     OW71253   0.375  11.895   6.175
23119SOL    HW171254   0.432  11.870   6.102
23119SOL    HW271255   0.372  11.816   6.230
23120SOL     OW71256   3.818   7.265  10.956
23120SOL    HW171257   3.753   7.232  10.893
23120SOL    HW271258   3.799   7.358  10.964
23121SOL     OW71259   5.656  11.560   3.769
23121SOL    HW171260   5.738  11.573   3.816
23121SOL    HW271261   5.619  11.479   3.805
23122SOL     OW71262   0.817   4.187   0.131
23122SOL    HW171263   0.868   4.243   0.073
23122SOL    HW271264   0.878   4.163   0.202
23123SOL     OW71265   2.329  10.232  10.841
23123SOL    HW171266   2.405  10.287  10.821
23123SOL    HW271267   2.349  10.148  10.802
23124SOL     OW71268   5.682   7.531  13.102
23124SOL    HW171269   5.755   7.480  13.067
23124SOL    HW271270   5.719   7.618  13.117
23125SOL     OW71271  13.169   3.792   5.018
23125SOL    HW171272  13.144   3.714   4.968
23125SOL    HW271273  13.254   3.818   4.982
23126SOL     OW71274   8.289  14.111  12.710
23126SOL    HW171275   8.255  14.023  12.726
23126SOL    HW271276   8.301  14.149  12.797
23127SOL     OW71277   1.471   1.531   2.150
23127SOL    HW171278   1.427   1.592   2.210
23127SOL    HW271279   1.414   1.454   2.148
23128SOL     OW71280  11.152   4.504   9.219
23128SOL    HW171281  11.116   4.494   9.307
23128SOL    HW271282  11.243   4.473   9.227
23129SOL     OW71283   7.956  13.651   6.195
23129SOL    HW171284   8.045  13.682   6.179
23129SOL    HW271285   7.901  13.729   6.187
23130SOL     OW71286   6.902   4.292   6.576
23130SOL    HW171287   6.886   4.203   6.608
23130SOL    HW271288   6.956   4.279   6.498
23131SOL     OW71289  11.883   1.978   6.596
23131SOL    HW171290  11.828   1.942   6.665
23131SOL    HW271291  11.838   1.954   6.515
23132SOL     OW71292  14.022  12.476  14.387
23132SOL    HW171293  14.006  12.495  14.294
23132SOL    HW271294  14.021  12.562  14.429
23133SOL     OW71295  12.052  14.205  11.186
23133SOL    HW171296  12.024  14.295  11.202
23133SOL    HW271297  11.979  14.166  11.137
23134SOL     OW71298   9.470   8.373  13.339
23134SOL    HW171299   9.459   8.449  13.282
23134SOL    HW271300   9.542   8.323  13.300
23135SOL     OW71301   1.306   2.347   3.067
23135SOL    HW171302   1.312   2.267   3.120
23135SOL    HW271303   1.329   2.417   3.128
23136SOL     OW71304   3.469  14.332   8.193
23136SOL    HW171305   3.519  14.318   8.274
23136SOL    HW271306   3.394  14.385   8.219
23137SOL     OW71307   5.770  12.964  12.631
23137SOL    HW171308   5.839  12.984  12.568
23137SOL    HW271309   5.816  12.934  12.709
23138SOL     OW71310   5.198   5.561   3.222
23138SOL    HW171311   5.273   5.512   3.257
23138SOL    HW271312   5.125   5.538   3.280
23139SOL     OW71313   5.230   9.644  13.217
23139SOL    HW171314   5.277   9.585  13.276
23139SOL    HW271315   5.225   9.595  13.135
23140SOL     OW71316   5.597   6.447   4.621
23140SOL    HW171317   5.656   6.472   4.549
23140SOL    HW271318   5.585   6.527   4.671
23141SOL     OW71319   7.764   6.894   2.570
23141SOL    HW171320   7.682   6.906   2.523
23141SOL    HW271321   7.814   6.832   2.516
23142SOL     OW71322   8.053   4.845   5.610
23142SOL    HW171323   8.107   4.877   5.537
23142SOL    HW271324   8.063   4.911   5.678
23143SOL     OW71325   3.849  10.651  14.808
23143SOL    HW171326   3.902  10.721  14.846
23143SOL    HW271327   3.912  10.592  14.767
23144SOL     OW71328   8.059   8.468  10.469
23144SOL    HW171329   7.990   8.530  10.448
23144SOL    HW271330   8.021   8.382  10.453
23145SOL     OW71331  11.984  13.221   4.458
23145SOL    HW171332  11.889  13.223   4.452
23145SOL    HW271333  12.003  13.163   4.531
23146SOL     OW71334  13.340  14.641   3.780
23146SOL    HW171335  13.427  14.606   3.763
23146SOL    HW271336  13.282  14.566   3.774
23147SOL     OW71337  10.277   7.754  13.869
23147SOL    HW171338  10.241   7.685  13.813
23147SOL    HW271339  10.201   7.784  13.920
23148SOL     OW71340   6.700   8.263  13.495
23148SOL    HW171341   6.765   8.239  13.561
23148SOL    HW271342   6.629   8.200  13.508
23149SOL     OW71343   0.395  14.568   9.870
23149SOL    HW171344   0.354  14.481   9.867
23149SOL    HW271345   0.392  14.599   9.779
23150SOL     OW71346   9.739  12.980  14.380
23150SOL    HW171347   9.747  13.023  14.465
23150SOL    HW271348   9.814  13.013  14.330
23151SOL     OW71349   9.213   7.069   0.908
23151SOL    HW171350   9.192   6.975   0.910
23151SOL    HW271351   9.129   7.112   0.892
23152SOL     OW71352   3.421   9.754   9.429
23152SOL    HW171353   3.486   9.815   9.396
23152SOL    HW271354   3.337   9.796   9.412
23153SOL     OW71355  11.375   3.876   0.692
23153SOL    HW171356  11.304   3.825   0.730
23153SOL    HW271357  11.395   3.943   0.758
23154SOL     OW71358   2.222  12.068   5.678
23154SOL    HW171359   2.225  12.138   5.612
23154SOL    HW271360   2.159  12.099   5.743
23155SOL     OW71361   6.075  13.251  11.253
23155SOL    HW171362   6.162  13.266  11.215
23155SOL    HW271363   6.029  13.199  11.187
23156SOL     OW71364   6.381   7.758   5.138
23156SOL    HW171365   6.450   7.691   5.135
23156SOL    HW271366   6.341   7.755   5.052
23157SOL     OW71367   9.785   9.397  13.585
23157SOL    HW171368   9.852   9.408  13.653
23157SOL    HW271369   9.720   9.464  13.605
23158SOL     OW71370  11.703   5.303   1.883
23158SOL    HW171371  11.641   5.231   1.893
23158SOL    HW271372  11.667   5.355   1.811
23159SOL     OW71373  13.342   4.879   2.406
23159SOL    HW171374  13.419   4.934   2.390
23159SOL    HW271375  13.376   4.803   2.453
23160SOL     OW71376   4.743   8.587   9.154
23160SOL    HW171377   4.671   8.641   9.122
23160SOL    HW271378   4.779   8.637   9.227
23161SOL     OW71379   8.387   3.394   6.386
23161SOL    HW171380   8.441   3.371   6.462
23161SOL    HW271381   8.428   3.348   6.313
23162SOL     OW71382   2.281  10.608   3.154
23162SOL    HW171383   2.227  10.590   3.077
23162SOL    HW271384   2.370  10.585   3.128
23163SOL     OW71385   7.572  10.214   6.140
23163SOL    HW171386   7.545  10.303   6.163
23163SOL    HW271387   7.602  10.221   6.049
23164SOL     OW71388   5.998   1.316   4.678
23164SOL    HW171389   5.959   1.229   4.689
23164SOL    HW271390   5.979   1.361   4.760
23165SOL     OW71391   7.771   2.211   7.776
23165SOL    HW171392   7.778   2.306   7.781
23165SOL    HW271393   7.805   2.188   7.690
23166SOL     OW71394   2.931   7.489  13.413
23166SOL    HW171395   2.933   7.581  13.442
23166SOL    HW271396   3.022   7.468  13.394
23167SOL     OW71397   8.192   0.965   3.001
23167SOL    HW171398   8.151   0.907   3.065
23167SOL    HW271399   8.132   0.967   2.927
23168SOL     OW71400  14.393   6.928   7.416
23168SOL    HW171401  14.444   6.862   7.463
23168SOL    HW271402  14.319   6.946   7.474
23169SOL     OW71403  13.450   1.823  11.830
23169SOL    HW171404  13.382   1.804  11.895
23169SOL    HW271405  13.402   1.854  11.753
23170SOL     OW71406  14.827   0.450  11.285
23170SOL    HW171407  14.799   0.369  11.327
23170SOL    HW271408  14.761   0.515  11.310
23171SOL     OW71409   5.084   6.842   9.972
23171SOL    HW171410   5.063   6.812  10.061
23171SOL    HW271411   5.044   6.778   9.915
23172SOL     OW71412  10.188   2.662  12.451
23172SOL    HW171413  10.149   2.673  12.364
23172SOL    HW271414  10.115   2.678  12.511
23173SOL     OW71415   8.861   1.026   8.244
23173SOL    HW171416   8.774   0.996   8.219
23173SOL    HW271417   8.898   0.954   8.295
23174SOL     OW71418   1.307   9.809   8.212
23174SOL    HW171419   1.251   9.732   8.202
23174SOL    HW271420   1.250   9.876   8.248
23175SOL     OW71421   3.946  13.191  14.369
23175SOL    HW171422   4.024  13.221  14.322
23175SOL    HW271423   3.893  13.270  14.379
23176SOL     OW71424   6.709  13.455  13.453
23176SOL    HW171425   6.734  13.367  13.425
23176SOL    HW271426   6.629  13.474  13.403
23177SOL     OW71427  13.540  11.273  13.281
23177SOL    HW171428  13.545  11.297  13.189
23177SOL    HW271429  13.542  11.177  13.282
23178SOL     OW71430   9.800   8.322  14.016
23178SOL    HW171431   9.708   8.348  14.002
23178SOL    HW271432   9.795   8.229  14.039
23179SOL     OW71433   0.608   0.046   6.141
23179SOL    HW171434   0.512   0.044   6.137
23179SOL    HW271435   0.633   0.092   6.061
23180SOL     OW71436   8.043  12.983   6.389
23180SOL    HW171437   8.112  12.954   6.330
23180SOL    HW271438   7.964  12.986   6.335
23181SOL     OW71439   2.858   4.776  13.330
23181SOL    HW171440   2.769   4.811  13.322
23181SOL    HW271441   2.888   4.768  13.239
23182SOL     OW71442   7.798   1.723   0.092
23182SOL    HW171443   7.805   1.815   0.066
23182SOL    HW271444   7.757   1.681   0.016
23183SOL     OW71445   4.899   2.049   6.168
23183SOL    HW171446   4.854   2.091   6.241
23183SOL    HW271447   4.968   2.110   6.143
23184SOL     OW71448   1.179   4.807   3.062
23184SOL    HW171449   1.242   4.737   3.078
23184SOL    HW271450   1.141   4.787   2.977
23185SOL     OW71451   8.537   8.678   4.400
23185SOL    HW171452   8.581   8.678   4.315
23185SOL    HW271453   8.472   8.609   4.393
23186SOL     OW71454  11.378   5.540   9.162
23186SOL    HW171455  11.297   5.496   9.186
23186SOL    HW271456  11.404   5.588   9.241
23187SOL     OW71457   5.063   4.716   2.358
23187SOL    HW171458   5.008   4.648   2.320
23187SOL    HW271459   5.143   4.715   2.305
23188SOL     OW71460   3.191   6.813   4.656
23188SOL    HW171461   3.215   6.722   4.639
23188SOL    HW271462   3.265   6.849   4.704
23189SOL     OW71463   9.635   7.649   2.908
23189SOL    HW171464   9.578   7.673   2.835
23189SOL    HW271465   9.647   7.731   2.956
23190SOL     OW71466  12.363   7.846   9.667
23190SOL    HW171467  12.379   7.752   9.656
23190SOL    HW271468  12.427   7.873   9.733
23191SOL     OW71469  12.378   9.066   7.825
23191SOL    HW171470  12.291   9.067   7.785
23191SOL    HW271471  12.412   8.979   7.808
23192SOL     OW71472  11.515  11.870  11.877
23192SOL    HW171473  11.488  11.907  11.961
23192SOL    HW271474  11.560  11.788  11.900
23193SOL     OW71475  13.048   3.088  12.504
23193SOL    HW171476  12.981   3.147  12.541
23193SOL    HW271477  13.081   3.135  12.428
23194SOL     OW71478   0.418  12.756  14.576
23194SOL    HW171479   0.405  12.769  14.670
23194SOL    HW271480   0.405  12.843  14.538
23195SOL     OW71481  11.893  13.051   1.735
23195SOL    HW171482  11.896  12.971   1.788
23195SOL    HW271483  11.933  13.118   1.791
23196SOL     OW71484  13.849  13.592  11.944
23196SOL    HW171485  13.940  13.580  11.971
23196SOL    HW271486  13.855  13.630  11.856
23197SOL     OW71487   8.437   8.904   6.391
23197SOL    HW171488   8.460   8.952   6.471
23197SOL    HW271489   8.404   8.971   6.331
23198SOL     OW71490  11.764   7.478   8.777
23198SOL    HW171491  11.776   7.392   8.736
23198SOL    HW271492  11.774   7.540   8.706
23199SOL     OW71493   9.151   5.953  13.409
23199SOL    HW171494   9.200   5.909  13.478
23199SOL    HW271495   9.093   5.886  13.373
23200SOL     OW71496  13.441   8.912   9.002
23200SOL    HW171497  13.428   8.930   9.096
23200SOL    HW271498  13.466   8.820   8.999
23201SOL     OW71499   9.254   1.008   8.243
23201SOL    HW171500   9.192   1.027   8.173
23201SOL    HW271501   9.201   1.004   8.322
23202SOL     OW71502   4.468   3.671   0.800
23202SOL    HW171503   4.463   3.678   0.705
23202SOL    HW271504   4.423   3.749   0.833
23203SOL     OW71505   1.300   0.418  13.988
23203SOL    HW171506   1.360   0.371  14.046
23203SOL    HW271507   1.267   0.350  13.929
23204SOL     OW71508  13.571   8.333   6.579
23204SOL    HW171509  13.487   8.379   6.583
23204SOL    HW271510  13.624   8.376   6.646
23205SOL     OW71511  13.619   8.793   7.781
23205SOL    HW171512  13.538   8.746   7.758
23205SOL    HW271513  13.608   8.818   7.873
23206SOL     OW71514  11.777  10.088   1.153
23206SOL    HW171515  11.689  10.110   1.122
23206SOL    HW271516  11.820  10.173   1.164
23207SOL     OW71517   8.485   4.012   5.907
23207SOL    HW171518   8.431   4.091   5.909
23207SOL    HW271519   8.550   4.026   5.976
23208SOL     OW71520   0.334  10.756   2.418
23208SOL    HW171521   0.424  10.727   2.431
23208SOL    HW271522   0.324  10.763   2.323
23209SOL     OW71523  13.830   1.721   4.253
23209SOL    HW171524  13.884   1.752   4.326
23209SOL    HW271525  13.741   1.748   4.276
23210SOL     OW71526  13.703   8.212   2.968
23210SOL    HW171527  13.775   8.149   2.971
23210SOL    HW271528  13.631   8.169   3.014
23211SOL     OW71529   0.601   3.666  11.252
23211SOL    HW171530   0.616   3.572  11.264
23211SOL    HW271531   0.507   3.673  11.236
23212SOL     OW71532   4.439   0.621  13.993
23212SOL    HW171533   4.535   0.622  13.994
23212SOL    HW271534   4.413   0.670  14.071
23213SOL     OW71535   3.124   9.513   1.390
23213SOL    HW171536   3.164   9.474   1.468
23213SOL    HW271537   3.163   9.465   1.317
23214SOL     OW71538   3.074  11.365   6.870
23214SOL    HW171539   3.158  11.342   6.830
23214SOL    HW271540   3.094  11.377   6.963
23215SOL     OW71541   5.215   2.933   4.197
23215SOL    HW171542   5.237   2.841   4.215
23215SOL    HW271543   5.171   2.963   4.277
23216SOL     OW71544   0.410   4.100  14.395
23216SOL    HW171545   0.417   4.155  14.473
23216SOL    HW271546   0.329   4.128  14.353
23217SOL     OW71547   0.683   1.720   1.795
23217SOL    HW171548   0.664   1.808   1.762
23217SOL    HW271549   0.769   1.729   1.838
23218SOL     OW71550   8.806   3.453  14.322
23218SOL    HW171551   8.787   3.540  14.286
23218SOL    HW271552   8.720   3.416  14.341
23219SOL     OW71553   4.482   1.086  13.151
23219SOL    HW171554   4.574   1.079  13.125
23219SOL    HW271555   4.477   1.038  13.234
23220SOL     OW71556   4.271  12.905   4.215
23220SOL    HW171557   4.310  12.836   4.269
23220SOL    HW271558   4.228  12.963   4.277
23221SOL     OW71559   9.504   7.166   3.179
23221SOL    HW171560   9.501   7.257   3.207
23221SOL    HW271561   9.564   7.123   3.241
23222SOL     OW71562   6.227   4.352   8.903
23222SOL    HW171563   6.244   4.356   8.997
23222SOL    HW271564   6.255   4.438   8.870
23223SOL     OW71565   4.116   4.930   8.059
23223SOL    HW171566   4.201   4.974   8.068
23223SOL    HW271567   4.114   4.900   7.969
23224SOL     OW71568  12.385  12.816  10.270
23224SOL    HW171569  12.445  12.890  10.261
23224SOL    HW271570  12.302  12.856  10.296
23225SOL     OW71571   8.095  14.314   2.863
23225SOL    HW171572   8.093  14.371   2.940
23225SOL    HW271573   8.122  14.229   2.898
23226SOL     OW71574   9.859   2.294   3.631
23226SOL    HW171575   9.871   2.337   3.715
23226SOL    HW271576   9.914   2.216   3.636
23227SOL     OW71577   0.129   0.975   7.382
23227SOL    HW171578   0.093   0.886   7.380
23227SOL    HW271579   0.083   1.019   7.453
23228SOL     OW71580   0.711  12.232   6.778
23228SOL    HW171581   0.800  12.252   6.751
23228SOL    HW271582   0.705  12.267   6.867
23229SOL     OW71583   9.752   5.277   2.308
23229SOL    HW171584   9.796   5.204   2.350
23229SOL    HW271585   9.752   5.255   2.215
23230SOL     OW71586   8.770  14.176  12.095
23230SOL    HW171587   8.747  14.130  12.014
23230SOL    HW271588   8.722  14.129  12.163
23231SOL     OW71589  11.251  14.080   3.621
23231SOL    HW171590  11.236  14.002   3.569
23231SOL    HW271591  11.229  14.153   3.562
23232SOL     OW71592   3.305   7.104   9.908
23232SOL    HW171593   3.374   7.060   9.859
23232SOL    HW271594   3.233   7.113   9.846
23233SOL     OW71595  12.512   9.786   9.940
23233SOL    HW171596  12.460   9.822   9.869
23233SOL    HW271597  12.547   9.863   9.986
23234SOL     OW71598   0.955   9.283  13.858
23234SOL    HW171599   0.986   9.356  13.806
23234SOL    HW271600   0.860   9.282  13.844
23235SOL     OW71601   6.884  11.160   5.355
23235SOL    HW171602   6.793  11.173   5.382
23235SOL    HW271603   6.880  11.157   5.259
23236SOL     OW71604   8.330   7.790   3.856
23236SOL    HW171605   8.257   7.852   3.858
23236SOL    HW271606   8.393   7.826   3.918
23237SOL     OW71607  12.536   5.043  13.576
23237SOL    HW171608  12.543   5.007  13.664
23237SOL    HW271609  12.461   4.999  13.537
23238SOL     OW71610  12.261   6.240  10.818
23238SOL    HW171611  12.248   6.316  10.761
23238SOL    HW271612  12.196   6.177  10.789
23239SOL     OW71613  12.930   6.886  12.207
23239SOL    HW171614  12.856   6.907  12.264
23239SOL    HW271615  12.933   6.958  12.144
23240SOL     OW71616   8.749  11.401  11.678
23240SOL    HW171617   8.826  11.388  11.623
23240SOL    HW271618   8.706  11.478  11.641
23241SOL     OW71619  11.553  11.736   7.386
23241SOL    HW171620  11.620  11.775   7.329
23241SOL    HW271621  11.565  11.778   7.471
23242SOL     OW71622   2.612   2.557   2.108
23242SOL    HW171623   2.543   2.517   2.160
23242SOL    HW271624   2.692   2.544   2.159
23243SOL     OW71625   1.702  13.065  12.677
23243SOL    HW171626   1.617  13.105  12.661
23243SOL    HW271627   1.690  12.972  12.658
23244SOL     OW71628   3.421   2.104   1.602
23244SOL    HW171629   3.351   2.059   1.554
23244SOL    HW271630   3.420   2.064   1.689
23245SOL     OW71631   4.466   4.538   8.697
23245SOL    HW171632   4.384   4.496   8.669
23245SOL    HW271633   4.453   4.631   8.679
23246SOL     OW71634  12.327  13.300  11.303
23246SOL    HW171635  12.276  13.229  11.264
23246SOL    HW271636  12.342  13.361  11.231
23247SOL     OW71637  13.724   9.162   7.036
23247SOL    HW171638  13.738   9.170   6.942
23247SOL    HW271639  13.778   9.231   7.074
23248SOL     OW71640   9.871  10.880  14.094
23248SOL    HW171641   9.817  10.815  14.138
23248SOL    HW271642   9.954  10.836  14.077
23249SOL     OW71643   0.318   6.179   3.607
23249SOL    HW171644   0.400   6.131   3.619
23249SOL    HW271645   0.290   6.157   3.518
23250SOL     OW71646  12.446   8.616  13.812
23250SOL    HW171647  12.477   8.611  13.722
23250SOL    HW271648  12.525   8.622  13.865
23251SOL     OW71649  10.766   8.686   3.117
23251SOL    HW171650  10.860   8.694   3.135
23251SOL    HW271651  10.724   8.716   3.198
23252SOL     OW71652   5.649   8.225   2.131
23252SOL    HW171653   5.739   8.192   2.130
23252SOL    HW271654   5.601   8.161   2.184
23253SOL     OW71655  13.259   9.395   0.304
23253SOL    HW171656  13.190   9.420   0.364
23253SOL    HW271657  13.332   9.369   0.360
23254SOL     OW71658   1.136   9.323   3.253
23254SOL    HW171659   1.109   9.346   3.164
23254SOL    HW271660   1.201   9.389   3.276
23255SOL     OW71661   7.779  13.876  14.761
23255SOL    HW171662   7.778  13.889  14.856
23255SOL    HW271663   7.762  13.963  14.725
23256SOL     OW71664   9.252   8.286   2.381
23256SOL    HW171665   9.286   8.371   2.412
23256SOL    HW271666   9.200   8.308   2.303
23257SOL     OW71667   2.346   1.215   5.433
23257SOL    HW171668   2.297   1.210   5.351
23257SOL    HW271669   2.374   1.125   5.450
23258SOL     OW71670   9.148   8.493  13.193
23258SOL    HW171671   9.055   8.513  13.204
23258SOL    HW271672   9.194   8.565  13.236
23259SOL     OW71673  11.309   5.475   3.077
23259SOL    HW171674  11.220   5.506   3.066
23259SOL    HW271675  11.324   5.416   3.004
23260SOL     OW71676   1.838  10.388   3.053
23260SOL    HW171677   1.847  10.334   3.132
23260SOL    HW271678   1.839  10.325   2.981
23261SOL     OW71679   4.743   1.526   9.283
23261SOL    HW171680   4.712   1.573   9.361
23261SOL    HW271681   4.718   1.582   9.210
23262SOL     OW71682  10.713   3.726  14.486
23262SOL    HW171683  10.727   3.682  14.570
23262SOL    HW271684  10.722   3.656  14.420
23263SOL     OW71685   3.851  13.247   1.966
23263SOL    HW171686   3.802  13.308   1.911
23263SOL    HW271687   3.901  13.194   1.904
23264SOL     OW71688   0.738  14.507  10.700
23264SOL    HW171689   0.804  14.527  10.635
23264SOL    HW271690   0.694  14.429  10.667
23265SOL     OW71691   3.555  13.869  14.833
23265SOL    HW171692   3.538  13.905   0.052
23265SOL    HW271693   3.596  13.942  14.785
23266SOL     OW71694   2.921   3.297   4.484
23266SOL    HW171695   3.010   3.333   4.479
23266SOL    HW271696   2.907   3.280   4.577
23267SOL     OW71697   1.465   5.407  13.726
23267SOL    HW171698   1.499   5.384  13.812
23267SOL    HW271699   1.410   5.333  13.702
23268SOL     OW71700   2.244   7.110   7.094
23268SOL    HW171701   2.327   7.089   7.138
23268SOL    HW271702   2.200   7.169   7.154
23269SOL     OW71703   7.151   7.697   7.871
23269SOL    HW171704   7.071   7.710   7.820
23269SOL    HW271705   7.134   7.618   7.922
23270SOL     OW71706   7.689   9.491  14.646
23270SOL    HW171707   7.656   9.529  14.564
23270SOL    HW271708   7.748   9.558  14.681
23271SOL     OW71709   7.294   6.380  10.260
23271SOL    HW171710   7.317   6.431  10.338
23271SOL    HW271711   7.346   6.300  10.267
23272SOL     OW71712   2.180  11.512   6.422
23272SOL    HW171713   2.168  11.424   6.458
23272SOL    HW271714   2.255  11.546   6.471
23273SOL     OW71715   7.990   2.787  10.787
23273SOL    HW171716   7.993   2.708  10.840
23273SOL    HW271717   7.950   2.759  10.704
23274SOL     OW71718   7.198  10.737   9.489
23274SOL    HW171719   7.121  10.780   9.526
23274SOL    HW271720   7.224  10.673   9.555
23275SOL     OW71721   0.778  10.390   8.838
23275SOL    HW171722   0.685  10.405   8.855
23275SOL    HW271723   0.822  10.464   8.880
23276SOL     OW71724   3.307  10.240   8.245
23276SOL    HW171725   3.266  10.299   8.307
23276SOL    HW271726   3.236  10.183   8.216
23277SOL     OW71727  12.952   3.415   3.603
23277SOL    HW171728  13.041   3.441   3.625
23277SOL    HW271729  12.906   3.498   3.588
23278SOL     OW71730   0.902   2.910   0.851
23278SOL    HW171731   0.920   2.982   0.790
23278SOL    HW271732   0.976   2.850   0.839
23279SOL     OW71733   3.250   2.284   1.867
23279SOL    HW171734   3.272   2.367   1.909
23279SOL    HW271735   3.269   2.298   1.775
23280SOL     OW71736   3.478   0.957   0.604
23280SOL    HW171737   3.470   1.016   0.679
23280SOL    HW271738   3.567   0.920   0.611
23281SOL     OW71739  11.414   5.921  13.832
23281SOL    HW171740  11.508   5.926  13.817
23281SOL    HW271741  11.399   5.975  13.909
23282SOL     OW71742   6.831  14.466   6.058
23282SOL    HW171743   6.785  14.440   5.978
23282SOL    HW271744   6.887  14.539   6.031
23283SOL     OW71745   8.711   0.954  11.867
23283SOL    HW171746   8.735   0.945  11.959
23283SOL    HW271747   8.672   1.042  11.862
23284SOL     OW71748  11.680   7.317   5.595
23284SOL    HW171749  11.730   7.251   5.547
23284SOL    HW271750  11.740   7.392   5.602
23285SOL     OW71751  14.686   6.812  11.327
23285SOL    HW171752  14.664   6.763  11.248
23285SOL    HW271753  14.634   6.771  11.396
23286SOL     OW71754   6.579   1.022   6.693
23286SOL    HW171755   6.526   1.002   6.771
23286SOL    HW271756   6.645   1.084   6.725
23287SOL     OW71757   3.502   5.012   7.110
23287SOL    HW171758   3.568   4.943   7.103
23287SOL    HW271759   3.450   4.988   7.187
23288SOL     OW71760  10.995  13.320   4.511
23288SOL    HW171761  10.997  13.236   4.466
23288SOL    HW271762  11.063  13.372   4.468
23289SOL     OW71763   8.361   4.689  12.402
23289SOL    HW171764   8.437   4.706  12.457
23289SOL    HW271765   8.301   4.762  12.420
23290SOL     OW71766   7.388  13.427  11.236
23290SOL    HW171767   7.435  13.501  11.198
23290SOL    HW271768   7.366  13.371  11.162
23291SOL     OW71769   7.268   4.612  13.171
23291SOL    HW171770   7.237   4.538  13.223
23291SOL    HW271771   7.254   4.585  13.080
23292SOL     OW71772  11.983  12.586   3.466
23292SOL    HW171773  11.923  12.643   3.417
23292SOL    HW271774  12.056  12.643   3.490
23293SOL     OW71775   6.080   5.630   9.326
23293SOL    HW171776   6.096   5.586   9.409
23293SOL    HW271777   6.011   5.578   9.284
23294SOL     OW71778  10.240  12.081   5.182
23294SOL    HW171779  10.277  12.164   5.212
23294SOL    HW271780  10.227  12.030   5.262
23295SOL     OW71781  10.326   4.523   8.055
23295SOL    HW171782  10.401   4.475   8.020
23295SOL    HW271783  10.282   4.559   7.979
23296SOL     OW71784   5.144   6.063   7.340
23296SOL    HW171785   5.215   6.034   7.284
23296SOL    HW271786   5.187   6.090   7.421
23297SOL     OW71787   1.994   0.709   5.300
23297SOL    HW171788   2.039   0.634   5.261
23297SOL    HW271789   1.957   0.756   5.226
23298SOL     OW71790   7.439  10.200   1.443
23298SOL    HW171791   7.347  10.227   1.443
23298SOL    HW271792   7.456  10.174   1.534
23299SOL     OW71793   1.783   7.340   1.761
23299SOL    HW171794   1.801   7.248   1.746
23299SOL    HW271795   1.782   7.350   1.856
23300SOL     OW71796  14.406   7.864  12.443
23300SOL    HW171797  14.445   7.820  12.367
23300SOL    HW271798  14.449   7.949  12.446
23301SOL     OW71799   7.881   1.251   2.606
23301SOL    HW171800   7.921   1.326   2.561
23301SOL    HW271801   7.895   1.268   2.699
23302SOL     OW71802   1.711   8.662   4.058
23302SOL    HW171803   1.709   8.618   3.973
23302SOL    HW271804   1.771   8.735   4.047
23303SOL     OW71805  12.328   1.383  13.920
23303SOL    HW171806  12.278   1.451  13.965
23303SOL    HW271807  12.332   1.412  13.829
23304SOL     OW71808   8.172   1.217   1.095
23304SOL    HW171809   8.260   1.236   1.062
23304SOL    HW271810   8.126   1.300   1.087
23305SOL     OW71811   9.130   1.891   9.286
23305SOL    HW171812   9.117   1.829   9.215
23305SOL    HW271813   9.179   1.963   9.247
23306SOL     OW71814   9.470   9.872  14.480
23306SOL    HW171815   9.468   9.955  14.528
23306SOL    HW271816   9.563   9.850  14.473
23307SOL     OW71817   6.481  14.800   7.434
23307SOL    HW171818   6.516  14.819   7.521
23307SOL    HW271819   6.485  14.704   7.427
23308SOL     OW71820  12.148  13.526   1.154
23308SOL    HW171821  12.053  13.517   1.159
23308SOL    HW271822  12.180  13.438   1.134
23309SOL     OW71823   9.353   2.308   9.215
23309SOL    HW171824   9.299   2.380   9.249
23309SOL    HW271825   9.354   2.321   9.120
23310SOL     OW71826   7.405  14.103   8.419
23310SOL    HW171827   7.475  14.169   8.423
23310SOL    HW271828   7.429  14.046   8.346
23311SOL     OW71829   3.261  10.131  12.008
23311SOL    HW171830   3.167  10.146  12.015
23311SOL    HW271831   3.290  10.192  11.940
23312SOL     OW71832  12.875  12.211   2.313
23312SOL    HW171833  12.904  12.294   2.274
23312SOL    HW271834  12.956  12.163   2.329
23313SOL     OW71835  10.798  14.194   5.678
23313SOL    HW171836  10.874  14.179   5.622
23313SOL    HW271837  10.790  14.289   5.684
23314SOL     OW71838  14.784  12.725   4.147
23314SOL    HW171839  14.720  12.672   4.100
23314SOL    HW271840  14.781  12.693   4.237
23315SOL     OW71841  13.001  14.303   5.738
23315SOL    HW171842  12.990  14.280   5.830
23315SOL    HW271843  12.935  14.250   5.692
23316SOL     OW71844   7.431  14.598  10.558
23316SOL    HW171845   7.512  14.558  10.526
23316SOL    HW271846   7.415  14.556  10.643
23317SOL     OW71847  13.997  14.099   0.467
23317SOL    HW171848  13.907  14.068   0.475
23317SOL    HW271849  14.051  14.020   0.469
23318SOL     OW71850   1.478   5.527   1.286
23318SOL    HW171851   1.412   5.565   1.228
23318SOL    HW271852   1.446   5.439   1.305
23319SOL     OW71853  12.299  14.468   8.364
23319SOL    HW171854  12.287  14.450   8.271
23319SOL    HW271855  12.255  14.552   8.378
23320SOL     OW71856   4.471   3.826   6.746
23320SOL    HW171857   4.466   3.846   6.839
23320SOL    HW271858   4.398   3.874   6.707
23321SOL     OW71859   7.047  10.955   7.083
23321SOL    HW171860   7.073  10.999   7.164
23321SOL    HW271861   7.090  10.870   7.086
23322SOL     OW71862   3.702  14.624  10.965
23322SOL    HW171863   3.779  14.580  11.002
23322SOL    HW271864   3.713  14.716  10.989
23323SOL     OW71865  11.983   4.131   2.833
23323SOL    HW171866  11.975   4.221   2.863
23323SOL    HW271867  11.977   4.136   2.738
23324SOL     OW71868   4.343   5.365   4.285
23324SOL    HW171869   4.401   5.412   4.344
23324SOL    HW271870   4.268   5.423   4.274
23325SOL     OW71871  10.076   6.333  12.939
23325SOL    HW171872  10.118   6.249  12.959
23325SOL    HW271873  10.138   6.378  12.881
23326SOL     OW71874   0.015   9.390   5.112
23326SOL    HW171875   0.079   9.321   5.128
23326SOL    HW271876   0.060   9.471   5.134
23327SOL     OW71877   0.114   8.429   1.263
23327SOL    HW171878   0.041   8.369   1.246
23327SOL    HW271879   0.074   8.500   1.313
23328SOL     OW71880   5.212   1.670  11.744
23328SOL    HW171881   5.219   1.687  11.650
23328SOL    HW271882   5.180   1.580  11.750
23329SOL     OW71883   1.471   6.479   0.917
23329SOL    HW171884   1.407   6.518   0.977
23329SOL    HW271885   1.493   6.550   0.857
23330SOL     OW71886  12.647   9.785  14.853
23330SOL    HW171887  12.633   9.736  14.771
23330SOL    HW271888  12.608   9.729   0.052
23331SOL     OW71889   2.533   0.951  12.347
23331SOL    HW171890   2.441   0.958  12.370
23331SOL    HW271891   2.552   0.857  12.352
23332SOL     OW71892  14.011  14.046   1.011
23332SOL    HW171893  13.917  14.030   1.000
23332SOL    HW271894  14.019  14.142   1.009
23333SOL     OW71895   7.998  14.454  11.387
23333SOL    HW171896   8.003  14.490  11.299
23333SOL    HW271897   7.968  14.364  11.375
23334SOL     OW71898   2.750  10.850   0.419
23334SOL    HW171899   2.787  10.935   0.444
23334SOL    HW271900   2.673  10.873   0.367
23335SOL     OW71901   7.259  14.146   3.889
23335SOL    HW171902   7.212  14.224   3.859
23335SOL    HW271903   7.303  14.113   3.811
23336SOL     OW71904   5.621   8.272  10.118
23336SOL    HW171905   5.586   8.354  10.085
23336SOL    HW271906   5.713   8.290  10.136
23337SOL     OW71907  10.016   0.401   0.433
23337SOL    HW171908  10.052   0.413   0.345
23337SOL    HW271909   9.937   0.454   0.434
23338SOL     OW71910   9.338   1.101   5.162
23338SOL    HW171911   9.368   1.104   5.253
23338SOL    HW271912   9.327   1.193   5.137
23339SOL     OW71913   5.409   3.626   5.334
23339SOL    HW171914   5.462   3.694   5.376
23339SOL    HW271915   5.472   3.572   5.285
23340SOL     OW71916  11.372   8.917   2.522
23340SOL    HW171917  11.341   8.891   2.609
23340SOL    HW271918  11.450   8.864   2.507
23341SOL     OW71919  12.445   0.139   1.007
23341SOL    HW171920  12.495   0.174   0.934
23341SOL    HW271921  12.360   0.183   1.001
23342SOL     OW71922  11.728  10.767  12.687
23342SOL    HW171923  11.798  10.777  12.622
23342SOL    HW271924  11.656  10.726  12.639
23343SOL     OW71925   2.800   1.851  14.590
23343SOL    HW171926   2.848   1.798  14.526
23343SOL    HW271927   2.856   1.926  14.605
23344SOL     OW71928  11.731  14.435  11.309
23344SOL    HW171929  11.728  14.519  11.354
23344SOL    HW271930  11.824  14.423  11.286
23345SOL     OW71931   8.588  13.872   6.732
23345SOL    HW171932   8.609  13.834   6.817
23345SOL    HW271933   8.645  13.825   6.670
23346SOL     OW71934   2.602  14.604   9.769
23346SOL    HW171935   2.536  14.537   9.788
23346SOL    HW271936   2.684  14.555   9.758
23347SOL     OW71937  13.886   9.150  14.777
23347SOL    HW171938  13.842   9.111  14.701
23347SOL    HW271939  13.959   9.200  14.739
23348SOL     OW71940  13.744   8.946   7.995
23348SOL    HW171941  13.713   9.036   8.006
23348SOL    HW271942  13.785   8.924   8.078
23349SOL     OW71943   1.722   0.673   1.892
23349SOL    HW171944   1.686   0.741   1.835
23349SOL    HW271945   1.767   0.720   1.961
23350SOL     OW71946   8.006   0.931   1.617
23350SOL    HW171947   8.097   0.944   1.591
23350SOL    HW271948   8.003   0.961   1.708
23351SOL     OW71949   7.035   3.484   5.387
23351SOL    HW171950   7.069   3.479   5.298
23351SOL    HW271951   6.944   3.510   5.376
23352SOL     OW71952   4.057  11.555   3.461
23352SOL    HW171953   4.034  11.606   3.384
23352SOL    HW271954   4.061  11.618   3.533
23353SOL     OW71955   2.551   5.065   9.224
23353SOL    HW171956   2.515   5.019   9.300
23353SOL    HW271957   2.553   5.157   9.251
23354SOL     OW71958   7.833   4.852   7.104
23354SOL    HW171959   7.836   4.942   7.070
23354SOL    HW271960   7.745   4.843   7.141
23355SOL     OW71961   7.110   9.124  13.104
23355SOL    HW171962   7.071   9.053  13.053
23355SOL    HW271963   7.053   9.133  13.180
23356SOL     OW71964   4.852   8.027   9.167
23356SOL    HW171965   4.941   7.993   9.174
23356SOL    HW271966   4.842   8.049   9.074
23357SOL     OW71967   4.075   4.695   2.117
23357SOL    HW171968   4.025   4.628   2.163
23357SOL    HW271969   4.092   4.657   2.031
23358SOL     OW71970  11.411  10.447  11.098
23358SOL    HW171971  11.321  10.418  11.110
23358SOL    HW271972  11.421  10.521  11.157
23359SOL     OW71973   1.585  11.954   0.944
23359SOL    HW171974   1.495  11.945   0.973
23359SOL    HW271975   1.582  11.938   0.849
23360SOL     OW71976   0.175   6.653   5.496
23360SOL    HW171977   0.212   6.686   5.414
23360SOL    HW271978   0.122   6.725   5.529
23361SOL     OW71979   9.628   5.454   5.135
23361SOL    HW171980   9.619   5.488   5.046
23361SOL    HW271981   9.540   5.425   5.158
23362SOL     OW71982  11.720   6.832  14.407
23362SOL    HW171983  11.661   6.769  14.446
23362SOL    HW271984  11.691   6.917  14.441
23363SOL     OW71985   2.140   3.107   8.075
23363SOL    HW171986   2.174   3.017   8.069
23363SOL    HW271987   2.130   3.135   7.984
23364SOL     OW71988  11.787  11.188   7.395
23364SOL    HW171989  11.791  11.159   7.304
23364SOL    HW271990  11.696  11.215   7.408
23365SOL     OW71991   7.339   1.399   9.365
23365SOL    HW171992   7.283   1.323   9.349
23365SOL    HW271993   7.347   1.441   9.279
23366SOL     OW71994   3.156   0.710   2.294
23366SOL    HW171995   3.137   0.756   2.212
23366SOL    HW271996   3.107   0.759   2.360
23367SOL     OW71997  10.765   9.060   2.760
23367SOL    HW171998  10.706   8.997   2.719
23367SOL    HW271999  10.786   9.021   2.845
23368SOL     OW72000   9.288  10.045  11.098
23368SOL    HW172001   9.255  10.085  11.018
23368SOL    HW272002   9.348   9.977  11.069
23369SOL     OW72003   8.553   2.718   7.363
23369SOL    HW172004   8.528   2.734   7.454
23369SOL    HW272005   8.640   2.757   7.355
23370SOL     OW72006   3.248   8.541  12.020
23370SOL    HW172007   3.213   8.567  11.935
23370SOL    HW272008   3.190   8.470  12.049
23371SOL     OW72009   4.362  14.487  13.640
23371SOL    HW172010   4.305  14.548  13.592
23371SOL    HW272011   4.375  14.414  13.579
23372SOL     OW72012  13.118  11.433   5.587
23372SOL    HW172013  13.210  11.456   5.596
23372SOL    HW272014  13.071  11.512   5.614
23373SOL     OW72015  12.046   8.490   1.991
23373SOL    HW172016  12.127   8.439   1.982
23373SOL    HW272017  12.040   8.508   2.085
23374SOL     OW72018  10.310   8.629   9.022
23374SOL    HW172019  10.371   8.665   9.086
23374SOL    HW272020  10.351   8.648   8.937
23375SOL     OW72021   5.367   8.759   1.428
23375SOL    HW172022   5.417   8.683   1.457
23375SOL    HW272023   5.362   8.815   1.505
23376SOL     OW72024   0.283   0.740  11.096
23376SOL    HW172025   0.358   0.682  11.110
23376SOL    HW272026   0.243   0.708  11.015
23377SOL     OW72027   9.357   6.837   0.429
23377SOL    HW172028   9.289   6.889   0.474
23377SOL    HW272029   9.392   6.897   0.363
23378SOL     OW72030   6.366   5.050  14.484
23378SOL    HW172031   6.414   5.034  14.565
23378SOL    HW272032   6.431   5.085  14.423
23379SOL     OW72033   7.800   9.498  14.007
23379SOL    HW172034   7.881   9.549  14.003
23379SOL    HW272035   7.804   9.451  14.090
23380SOL     OW72036   6.720  10.339  13.114
23380SOL    HW172037   6.738  10.291  13.033
23380SOL    HW272038   6.732  10.431  13.091
23381SOL     OW72039  13.854   2.338   5.973
23381SOL    HW172040  13.829   2.301   5.889
23381SOL    HW272041  13.819   2.277   6.038
23382SOL     OW72042   1.369  10.900   2.138
23382SOL    HW172043   1.371  10.813   2.099
23382SOL    HW272044   1.291  10.941   2.101
23383SOL     OW72045  10.697   4.853   7.451
23383SOL    HW172046  10.746   4.872   7.531
23383SOL    HW272047  10.691   4.757   7.449
23384SOL     OW72048   4.022   5.813   8.964
23384SOL    HW172049   4.064   5.735   9.000
23384SOL    HW272050   3.950   5.831   9.025
23385SOL     OW72051  11.596  11.536  14.105
23385SOL    HW172052  11.559  11.621  14.083
23385SOL    HW272053  11.549  11.510  14.185
23386SOL     OW72054   8.432   7.353  13.463
23386SOL    HW172055   8.376   7.298  13.408
23386SOL    HW272056   8.460   7.295  13.534
23387SOL     OW72057   9.230  14.195  12.123
23387SOL    HW172058   9.205  14.262  12.060
23387SOL    HW272059   9.216  14.112  12.078
23388SOL     OW72060   2.241  10.349   0.479
23388SOL    HW172061   2.274  10.426   0.526
23388SOL    HW272062   2.254  10.371   0.387
23389SOL     OW72063  14.464   1.808  13.809
23389SOL    HW172064  14.449   1.714  13.796
23389SOL    HW272065  14.526   1.813  13.881
23390SOL     OW72066   0.125   9.873   5.395
23390SOL    HW172067   0.183   9.945   5.369
23390SOL    HW272068   0.174   9.825   5.461
23391SOL     OW72069  13.445   2.941  13.183
23391SOL    HW172070  13.374   2.972  13.239
23391SOL    HW272071  13.452   3.007  13.114
23392SOL     OW72072   8.153  12.504  10.389
23392SOL    HW172073   8.138  12.555  10.310
23392SOL    HW272074   8.092  12.540  10.453
23393SOL     OW72075  13.197  11.254   0.609
23393SOL    HW172076  13.102  11.263   0.598
23393SOL    HW272077  13.210  11.159   0.619
23394SOL     OW72078   4.166   0.021  11.624
23394SOL    HW172079   4.242   0.073  11.652
23394SOL    HW272080   4.092   0.059  11.672
23395SOL     OW72081  11.932   6.857   6.807
23395SOL    HW172082  11.943   6.767   6.839
23395SOL    HW272083  11.838   6.866   6.793
23396SOL     OW72084   9.303   3.660   4.545
23396SOL    HW172085   9.282   3.592   4.609
23396SOL    HW272086   9.219   3.700   4.524
23397SOL     OW72087   2.773   5.351  11.519
23397SOL    HW172088   2.818   5.278  11.474
23397SOL    HW272089   2.830   5.426  11.503
23398SOL     OW72090  10.728   2.735   4.908
23398SOL    HW172091  10.729   2.727   4.813
23398SOL    HW272092  10.806   2.788   4.929
23399SOL     OW72093  12.385   2.558   8.016
23399SOL    HW172094  12.301   2.603   8.014
23399SOL    HW272095  12.436   2.605   8.082
23400SOL     OW72096  11.748   4.733   3.001
23400SOL    HW172097  11.711   4.680   2.930
23400SOL    HW272098  11.834   4.695   3.017
23401SOL     OW72099   4.507  11.225  11.285
23401SOL    HW172100   4.502  11.314  11.322
23401SOL    HW272101   4.600  11.210  11.272
23402SOL     OW72102  11.757  13.817   7.384
23402SOL    HW172103  11.736  13.906   7.356
23402SOL    HW272104  11.676  13.767   7.368
23403SOL     OW72105   4.984   6.724  10.195
23403SOL    HW172106   4.915   6.686  10.141
23403SOL    HW272107   5.044   6.651  10.211
23404SOL     OW72108   2.550   6.851  13.975
23404SOL    HW172109   2.536   6.787  13.905
23404SOL    HW272110   2.492   6.924  13.953
23405SOL     OW72111   2.176   1.943   8.615
23405SOL    HW172112   2.112   1.921   8.683
23405SOL    HW272113   2.242   1.995   8.660
23406SOL     OW72114   9.870  11.075   9.220
23406SOL    HW172115   9.933  11.012   9.256
23406SOL    HW272116   9.852  11.135   9.292
23407SOL     OW72117   6.168   6.523   3.434
23407SOL    HW172118   6.147   6.453   3.496
23407SOL    HW272119   6.186   6.478   3.352
23408SOL     OW72120   4.096  11.310  14.090
23408SOL    HW172121   4.073  11.224  14.125
23408SOL    HW272122   4.021  11.335  14.036
23409SOL     OW72123   8.244   7.524   2.584
23409SOL    HW172124   8.201   7.578   2.518
23409SOL    HW272125   8.190   7.445   2.588
23410SOL     OW72126   5.131   2.540   1.667
23410SOL    HW172127   5.200   2.606   1.658
23410SOL    HW272128   5.065   2.566   1.603
23411SOL     OW72129  14.291   8.761   5.239
23411SOL    HW172130  14.329   8.674   5.249
23411SOL    HW272131  14.351   8.807   5.180
23412SOL     OW72132  11.534   4.814  12.245
23412SOL    HW172133  11.546   4.785  12.336
23412SOL    HW272134  11.614   4.787  12.200
23413SOL     OW72135   1.094   0.575  12.695
23413SOL    HW172136   1.119   0.515  12.765
23413SOL    HW272137   1.142   0.656  12.715
23414SOL     OW72138  14.753   0.854   8.129
23414SOL    HW172139  14.720   0.942   8.150
23414SOL    HW272140  14.847   0.861   8.143
23415SOL     OW72141  11.639   8.973   4.731
23415SOL    HW172142  11.656   9.037   4.800
23415SOL    HW272143  11.652   9.022   4.649
23416SOL     OW72144  11.493  10.765  10.598
23416SOL    HW172145  11.507  10.844  10.651
23416SOL    HW272146  11.571  10.758  10.544
23417SOL     OW72147   1.200   8.627   3.571
23417SOL    HW172148   1.225   8.578   3.650
23417SOL    HW272149   1.105   8.638   3.580
23418SOL     OW72150   2.901   0.868   0.362
23418SOL    HW172151   2.814   0.838   0.387
23418SOL    HW272152   2.902   0.865   0.267
23419SOL     OW72153   7.887  10.881   6.642
23419SOL    HW172154   7.939  10.826   6.701
23419SOL    HW272155   7.797  10.866   6.669
23420SOL     OW72156   0.110   1.953   3.566
23420SOL    HW172157   0.169   2.023   3.538
23420SOL    HW272158   0.148   1.922   3.648
23421SOL     OW72159   1.244   0.078   5.647
23421SOL    HW172160   1.170   0.136   5.632
23421SOL    HW272161   1.207  14.858   5.638
23422SOL     OW72162   0.737  11.550   1.027
23422SOL    HW172163   0.832  11.558   1.033
23422SOL    HW272164   0.716  11.475   1.083
23423SOL     OW72165   0.877   1.647   0.113
23423SOL    HW172166   0.898   1.562   0.075
23423SOL    HW272167   0.958   1.675   0.156
23424SOL     OW72168   9.255  10.587   2.469
23424SOL    HW172169   9.340  10.615   2.504
23424SOL    HW272170   9.206  10.557   2.546
23425SOL     OW72171   5.698   2.751  13.965
23425SOL    HW172172   5.651   2.682  14.012
23425SOL    HW272173   5.751   2.794  14.032
23426SOL     OW72174   2.761   9.726   5.190
23426SOL    HW172175   2.855   9.740   5.183
23426SOL    HW272176   2.751   9.668   5.266
23427SOL     OW72177   5.340   0.434   6.209
23427SOL    HW172178   5.407   0.367   6.223
23427SOL    HW272179   5.375   0.513   6.250
23428SOL     OW72180  12.268  14.030  11.719
23428SOL    HW172181  12.310  14.074  11.645
23428SOL    HW272182  12.192  13.986  11.681
23429SOL     OW72183   7.409   8.314   6.525
23429SOL    HW172184   7.314   8.310   6.528
23429SOL    HW272185   7.431   8.327   6.433
23430SOL     OW72186   9.423  12.403   3.169
23430SOL    HW172187   9.412  12.326   3.224
23430SOL    HW272188   9.488  12.377   3.104
23431SOL     OW72189   7.904   6.791  11.558
23431SOL    HW172190   7.823   6.799  11.506
23431SOL    HW272191   7.964   6.743  11.500
23432SOL     OW72192   4.146  13.818   1.297
23432SOL    HW172193   4.160  13.755   1.227
23432SOL    HW272194   4.129  13.901   1.253
23433SOL     OW72195  13.098   9.398   8.802
23433SOL    HW172196  13.107   9.461   8.730
23433SOL    HW272197  13.187   9.375   8.825
23434SOL     OW72198   7.797  10.221   9.349
23434SOL    HW172199   7.711  10.241   9.312
23434SOL    HW272200   7.825  10.141   9.305
23435SOL     OW72201  13.672   4.658   9.097
23435SOL    HW172202  13.761   4.665   9.061
23435SOL    HW272203  13.654   4.745   9.132
23436SOL     OW72204  13.001  11.433   0.287
23436SOL    HW172205  13.000  11.515   0.238
23436SOL    HW272206  13.077  11.386   0.253
23437SOL     OW72207  14.033   5.244   6.705
23437SOL    HW172208  14.007   5.221   6.616
23437SOL    HW272209  13.952   5.275   6.746
23438SOL     OW72210   4.495   4.819   6.562
23438SOL    HW172211   4.405   4.827   6.530
23438SOL    HW272212   4.509   4.724   6.571
23439SOL     OW72213  11.107   2.208   4.002
23439SOL    HW172214  11.118   2.231   4.094
23439SOL    HW272215  11.040   2.269   3.970
23440SOL     OW72216   3.887  12.709   4.524
23440SOL    HW172217   3.825  12.722   4.596
23440SOL    HW272218   3.857  12.629   4.481
23441SOL     OW72219   7.119   6.996  11.796
23441SOL    HW172220   7.108   7.015  11.702
23441SOL    HW272221   7.177   7.065  11.828
23442SOL     OW72222  11.697  11.888   5.087
23442SOL    HW172223  11.710  11.836   5.008
23442SOL    HW272224  11.736  11.973   5.067
23443SOL     OW72225   4.929   8.788  12.440
23443SOL    HW172226   4.914   8.738  12.520
23443SOL    HW272227   4.931   8.879  12.468
23444SOL     OW72228  10.369  13.251   7.899
23444SOL    HW172229  10.348  13.323   7.959
23444SOL    HW272230  10.369  13.292   7.812
23445SOL     OW72231  11.723   7.829  10.454
23445SOL    HW172232  11.725   7.922  10.479
23445SOL    HW272233  11.762   7.784  10.529
23446SOL     OW72234   0.431   6.621   6.918
23446SOL    HW172235   0.450   6.527   6.919
23446SOL    HW272236   0.483   6.657   6.989
23447SOL     OW72237   5.797  12.085   4.217
23447SOL    HW172238   5.720  12.141   4.202
23447SOL    HW272239   5.871  12.137   4.184
23448SOL     OW72240  14.142   9.261  14.077
23448SOL    HW172241  14.194   9.180  14.072
23448SOL    HW272242  14.167   9.310  13.998
23449SOL     OW72243   7.970  10.795   6.086
23449SOL    HW172244   7.976  10.785   6.181
23449SOL    HW272245   7.989  10.888   6.071
23450SOL     OW72246   9.132   7.907   6.528
23450SOL    HW172247   9.161   7.947   6.446
23450SOL    HW272248   9.210   7.903   6.583
23451SOL     OW72249   0.001   4.443   4.913
23451SOL    HW172250  14.834   4.359   4.944
23451SOL    HW272251   0.037   4.424   4.827
23452SOL     OW72252  14.243   8.267   7.486
23452SOL    HW172253  14.245   8.245   7.393
23452SOL    HW272254  14.156   8.306   7.500
23453SOL     OW72255   0.324   4.202   4.376
23453SOL    HW172256   0.417   4.219   4.391
23453SOL    HW272257   0.322   4.139   4.304
23454SOL     OW72258   3.598   3.901   2.723
23454SOL    HW172259   3.626   3.959   2.794
23454SOL    HW272260   3.619   3.949   2.643
23455SOL     OW72261   3.479  13.991   0.224
23455SOL    HW172262   3.387  14.015   0.210
23455SOL    HW272263   3.520  14.072   0.255
23456SOL     OW72264   6.497   9.027   5.854
23456SOL    HW172265   6.446   8.962   5.806
23456SOL    HW272266   6.526   8.982   5.933
23457SOL     OW72267   5.894   8.719   4.855
23457SOL    HW172268   5.879   8.650   4.791
23457SOL    HW272269   5.964   8.686   4.911
23458SOL     OW72270   4.767   8.661   7.465
23458SOL    HW172271   4.849   8.649   7.513
23458SOL    HW272272   4.703   8.608   7.512
23459SOL     OW72273   3.939  12.423  11.321
23459SOL    HW172274   4.007  12.470  11.370
23459SOL    HW272275   3.905  12.359  11.384
23460SOL     OW72276   0.700   7.175   9.263
23460SOL    HW172277   0.641   7.191   9.189
23460SOL    HW272278   0.688   7.083   9.284
23461SOL     OW72279   9.868  13.098   6.046
23461SOL    HW172280   9.884  13.031   5.979
23461SOL    HW272281   9.882  13.181   6.000
23462SOL     OW72282   1.707  13.603   5.694
23462SOL    HW172283   1.672  13.688   5.723
23462SOL    HW272284   1.795  13.624   5.662
23463SOL     OW72285   0.142   5.972   8.533
23463SOL    HW172286   0.056   5.965   8.574
23463SOL    HW272287   0.163   6.065   8.536
23464SOL     OW72288   0.971  14.009   7.584
23464SOL    HW172289   0.977  13.989   7.491
23464SOL    HW272290   1.061  14.009   7.615
23465SOL     OW72291   6.440  14.668   9.291
23465SOL    HW172292   6.419  14.721   9.368
23465SOL    HW272293   6.535  14.674   9.283
23466SOL     OW72294  10.726  12.394  10.098
23466SOL    HW172295  10.794  12.397  10.030
23466SOL    HW272296  10.652  12.351  10.056
23467SOL     OW72297  13.670   5.245  13.934
23467SOL    HW172298  13.731   5.274  13.866
23467SOL    HW272299  13.712   5.270  14.017
23468SOL     OW72300  14.724   6.769   5.921
23468SOL    HW172301  14.777   6.827   5.976
23468SOL    HW272302  14.784   6.700   5.895
23469SOL     OW72303   9.865   3.872  14.595
23469SOL    HW172304   9.911   3.943  14.640
23469SOL    HW272305   9.935   3.822  14.553
23470SOL     OW72306  10.133   6.730   6.320
23470SOL    HW172307  10.192   6.779   6.377
23470SOL    HW272308  10.069   6.691   6.380
23471SOL     OW72309   3.162  11.160   7.171
23471SOL    HW172310   3.169  11.250   7.138
23471SOL    HW272311   3.093  11.164   7.236
23472SOL     OW72312   7.111  10.942  10.323
23472SOL    HW172313   7.057  10.941  10.244
23472SOL    HW272314   7.074  10.871  10.377
23473SOL     OW72315  10.508  12.778   3.801
23473SOL    HW172316  10.593  12.746   3.831
23473SOL    HW272317  10.445  12.723   3.847
23474SOL     OW72318   0.666   3.353   0.900
23474SOL    HW172319   0.651   3.269   0.859
23474SOL    HW272320   0.602   3.412   0.860
23475SOL     OW72321  13.133   4.859  13.983
23475SOL    HW172322  13.044   4.892  14.002
23475SOL    HW272323  13.125   4.764  13.991
23476SOL     OW72324   3.329   5.728   3.450
23476SOL    HW172325   3.363   5.749   3.363
23476SOL    HW272326   3.306   5.636   3.445
23477SOL     OW72327   2.198  14.234   9.766
23477SOL    HW172328   2.195  14.281   9.683
23477SOL    HW272329   2.290  14.205   9.774
23478SOL     OW72330  14.087   2.007   7.574
23478SOL    HW172331  14.112   2.065   7.647
23478SOL    HW272332  14.010   1.961   7.606
23479SOL     OW72333  12.993   6.622  12.094
23479SOL    HW172334  12.960   6.712  12.101
23479SOL    HW272335  12.923   6.567  12.128
23480SOL     OW72336   6.402   4.842  14.112
23480SOL    HW172337   6.392   4.749  14.092
23480SOL    HW272338   6.312   4.876  14.109
23481SOL     OW72339   9.788  10.122   1.643
23481SOL    HW172340   9.705  10.141   1.599
23481SOL    HW272341   9.773  10.146   1.734
23482SOL     OW72342   1.847  13.555   4.231
23482SOL    HW172343   1.787  13.490   4.195
23482SOL    HW272344   1.901  13.506   4.294
23483SOL     OW72345   4.996   2.212   9.256
23483SOL    HW172346   4.987   2.278   9.325
23483SOL    HW272347   4.909   2.207   9.216
23484SOL     OW72348   3.122   4.840   2.214
23484SOL    HW172349   3.108   4.792   2.133
23484SOL    HW272350   3.174   4.917   2.189
23485SOL     OW72351   7.683   4.313   2.743
23485SOL    HW172352   7.714   4.301   2.654
23485SOL    HW272353   7.588   4.305   2.737
23486SOL     OW72354  12.780   7.367   2.406
23486SOL    HW172355  12.810   7.313   2.333
23486SOL    HW272356  12.711   7.314   2.447
23487SOL     OW72357   8.301  10.525   3.791
23487SOL    HW172358   8.310  10.438   3.830
23487SOL    HW272359   8.355  10.581   3.847
23488SOL     OW72360   0.643  11.786  14.815
23488SOL    HW172361   0.555  11.750  14.825
23488SOL    HW272362   0.691  11.756   0.024
23489SOL     OW72363   5.991   0.781   2.449
23489SOL    HW172364   6.061   0.746   2.393
23489SOL    HW272365   5.961   0.859   2.403
23490SOL     OW72366   2.758   5.221   9.542
23490SOL    HW172367   2.718   5.225   9.455
23490SOL    HW272368   2.830   5.158   9.533
23491SOL     OW72369  12.562   7.541   7.813
23491SOL    HW172370  12.530   7.553   7.903
23491SOL    HW272371  12.485   7.557   7.759
23492SOL     OW72372  10.422  12.287   7.530
23492SOL    HW172373  10.385  12.350   7.469
23492SOL    HW272374  10.404  12.324   7.617
23493SOL     OW72375   5.902  11.513  14.145
23493SOL    HW172376   5.957  11.472  14.212
23493SOL    HW272377   5.861  11.587  14.189
23494SOL     OW72378   9.881   5.275   6.535
23494SOL    HW172379   9.968   5.304   6.562
23494SOL    HW272380   9.846   5.347   6.483
23495SOL     OW72381   6.111   9.551   4.431
23495SOL    HW172382   6.044   9.619   4.435
23495SOL    HW272383   6.066   9.475   4.393
23496SOL     OW72384   0.127   1.421  12.948
23496SOL    HW172385   0.123   1.344  13.004
23496SOL    HW272386   0.051   1.413  12.891
23497SOL     OW72387   4.637  11.740   5.498
23497SOL    HW172388   4.709  11.788   5.456
23497SOL    HW272389   4.600  11.687   5.427
23498SOL     OW72390   2.982  12.681  12.923
23498SOL    HW172391   3.014  12.771  12.919
23498SOL    HW272392   2.898  12.683  12.877
23499SOL     OW72393   9.346   7.739   3.156
23499SOL    HW172394   9.338   7.645   3.138
23499SOL    HW272395   9.261   7.763   3.194
23500SOL     OW72396   4.126   5.985   4.021
23500SOL    HW172397   4.042   5.987   4.067
23500SOL    HW272398   4.190   6.012   4.087
23501SOL     OW72399   3.168  13.690  14.066
23501SOL    HW172400   3.081  13.707  14.031
23501SOL    HW272401   3.202  13.619  14.011
23502SOL     OW72402  10.289   0.730   4.999
23502SOL    HW172403  10.220   0.779   4.954
23502SOL    HW272404  10.325   0.672   4.932
23503SOL     OW72405  10.748  11.376  11.672
23503SOL    HW172406  10.656  11.389  11.695
23503SOL    HW272407  10.790  11.458  11.696
23504SOL     OW72408   5.372   5.989  14.547
23504SOL    HW172409   5.328   5.932  14.610
23504SOL    HW272410   5.301   6.030  14.498
23505SOL     OW72411  13.391  14.179   4.084
23505SOL    HW172412  13.422  14.089   4.074
23505SOL    HW272413  13.412  14.201   4.175
23506SOL     OW72414   9.731  11.121  11.407
23506SOL    HW172415   9.700  11.031  11.412
23506SOL    HW272416   9.723  11.143  11.314
23507SOL     OW72417   0.705   5.384   3.885
23507SOL    HW172418   0.752   5.300   3.889
23507SOL    HW272419   0.626   5.369   3.937
23508SOL     OW72420   0.478   6.190   1.146
23508SOL    HW172421   0.389   6.222   1.161
23508SOL    HW272422   0.489   6.195   1.051
23509SOL     OW72423   0.361   7.864  10.901
23509SOL    HW172424   0.380   7.946  10.856
23509SOL    HW272425   0.289   7.885  10.960
23510SOL     OW72426  11.187   2.816   6.518
23510SOL    HW172427  11.184   2.744   6.456
23510SOL    HW272428  11.120   2.877   6.488
23511SOL     OW72429   6.901   6.215  11.330
23511SOL    HW172430   6.811   6.200  11.301
23511SOL    HW272431   6.944   6.255  11.255
23512SOL     OW72432   1.291   1.812   1.287
23512SOL    HW172433   1.286   1.897   1.244
23512SOL    HW272434   1.276   1.749   1.216
23513SOL     OW72435   6.086  13.625   9.336
23513SOL    HW172436   6.166  13.678   9.330
23513SOL    HW272437   6.103  13.565   9.408
23514SOL     OW72438   7.072   3.648  13.339
23514SOL    HW172439   7.005   3.584  13.315
23514SOL    HW272440   7.131   3.651  13.263
23515SOL     OW72441   9.214   7.929   4.719
23515SOL    HW172442   9.216   8.025   4.725
23515SOL    HW272443   9.297   7.901   4.757
23516SOL     OW72444  11.284  11.382  11.942
23516SOL    HW172445  11.373  11.349  11.926
23516SOL    HW272446  11.296  11.458  11.999
23517SOL     OW72447  11.349   4.502   8.108
23517SOL    HW172448  11.325   4.410   8.099
23517SOL    HW272449  11.265   4.548   8.109
23518SOL     OW72450   0.233  11.437  12.367
23518SOL    HW172451   0.151  11.481  12.390
23518SOL    HW272452   0.231  11.355  12.416
23519SOL     OW72453  11.603   7.707   9.274
23519SOL    HW172454  11.551   7.640   9.320
23519SOL    HW272455  11.573   7.790   9.311
23520SOL     OW72456   5.916   2.406  12.874
23520SOL    HW172457   5.931   2.408  12.969
23520SOL    HW272458   5.962   2.327  12.845
23521SOL     OW72459   5.495  10.185   9.907
23521SOL    HW172460   5.574  10.239   9.912
23521SOL    HW272461   5.479  10.157   9.997
23522SOL     OW72462   6.355   9.612   9.900
23522SOL    HW172463   6.387   9.663   9.974
23522SOL    HW272464   6.288   9.667   9.860
23523SOL     OW72465   1.742   9.986  12.505
23523SOL    HW172466   1.662   9.960  12.459
23523SOL    HW272467   1.779   9.904  12.537
23524SOL     OW72468   2.172  10.931   8.431
23524SOL    HW172469   2.135  11.006   8.385
23524SOL    HW272470   2.117  10.921   8.509
23525SOL     OW72471   1.532   2.561   9.254
23525SOL    HW172472   1.450   2.545   9.206
23525SOL    HW272473   1.601   2.552   9.189
23526SOL     OW72474  14.587   9.627   7.245
23526SOL    HW172475  14.629   9.588   7.322
23526SOL    HW272476  14.655   9.625   7.178
23527SOL     OW72477  12.079   2.086   6.441
23527SOL    HW172478  12.159   2.035   6.456
23527SOL    HW272479  12.015   2.050   6.503
23528SOL     OW72480   5.237  12.723   8.860
23528SOL    HW172481   5.226  12.704   8.767
23528SOL    HW272482   5.149  12.714   8.897
23529SOL     OW72483   7.238  14.299   5.169
23529SOL    HW172484   7.257  14.237   5.099
23529SOL    HW272485   7.182  14.251   5.230
23530SOL     OW72486  10.843   9.755   1.321
23530SOL    HW172487  10.831   9.687   1.388
23530SOL    HW272488  10.807   9.716   1.241
23531SOL     OW72489   1.157  10.296   0.385
23531SOL    HW172490   1.215  10.368   0.359
23531SOL    HW272491   1.132  10.254   0.303
23532SOL     OW72492   8.333   6.667   1.354
23532SOL    HW172493   8.398   6.696   1.418
23532SOL    HW272494   8.255   6.719   1.373
23533SOL     OW72495   5.835  14.377   7.995
23533SOL    HW172496   5.918  14.406   8.033
23533SOL    HW272497   5.860  14.308   7.933
23534SOL     OW72498   4.085   9.577  13.664
23534SOL    HW172499   4.081   9.491  13.706
23534SOL    HW272500   4.025   9.570  13.590
23535SOL     OW72501  14.399   9.530   4.479
23535SOL    HW172502  14.351   9.477   4.542
23535SOL    HW272503  14.483   9.549   4.521
23536SOL     OW72504  11.781   9.146  13.509
23536SOL    HW172505  11.752   9.117  13.595
23536SOL    HW272506  11.861   9.196  13.526
23537SOL     OW72507   4.357   5.487  14.501
23537SOL    HW172508   4.441   5.441  14.509
23537SOL    HW272509   4.291   5.418  14.508
23538SOL     OW72510   0.445   2.677  11.622
23538SOL    HW172511   0.382   2.671  11.694
23538SOL    HW272512   0.462   2.586  11.597
23539SOL     OW72513  10.630   3.434   2.416
23539SOL    HW172514  10.691   3.390   2.476
23539SOL    HW272515  10.573   3.363   2.385
23540SOL     OW72516   4.551  12.457   9.983
23540SOL    HW172517   4.536  12.425  10.072
23540SOL    HW272518   4.595  12.384   9.938
23541SOL     OW72519   6.007   4.349   7.156
23541SOL    HW172520   6.063   4.314   7.088
23541SOL    HW272521   5.936   4.286   7.164
23542SOL     OW72522   2.771  14.851   9.775
23542SOL    HW172523   2.735   0.005   9.860
23542SOL    HW272524   2.858   0.023   9.774
23543SOL     OW72525  11.441   5.187  14.769
23543SOL    HW172526  11.394   5.151  14.844
23543SOL    HW272527  11.387   5.163  14.693
23544SOL     OW72528   3.582   2.839   1.609
23544SOL    HW172529   3.655   2.818   1.668
23544SOL    HW272530   3.516   2.880   1.666
23545SOL     OW72531   2.282   5.962   7.873
23545SOL    HW172532   2.193   5.996   7.868
23545SOL    HW272533   2.336   6.040   7.888
23546SOL     OW72534   2.059   9.312   6.710
23546SOL    HW172535   1.973   9.348   6.735
23546SOL    HW272536   2.040   9.250   6.641
23547SOL     OW72537   4.435   5.083   5.104
23547SOL    HW172538   4.402   5.140   5.174
23547SOL    HW272539   4.361   5.026   5.084
23548SOL     OW72540   8.835  12.705   8.330
23548SOL    HW172541   8.925  12.709   8.360
23548SOL    HW272542   8.824  12.615   8.299
23549SOL     OW72543   2.777  11.634  14.698
23549SOL    HW172544   2.835  11.652  14.625
23549SOL    HW272545   2.714  11.570  14.663
23550SOL     OW72546  13.772   8.734   4.470
23550SOL    HW172547  13.689   8.712   4.426
23550SOL    HW272548  13.802   8.813   4.426
23551SOL     OW72549   3.460   0.854  12.032
23551SOL    HW172550   3.412   0.778  11.999
23551SOL    HW272551   3.394   0.922  12.042
23552SOL     OW72552   8.680   6.574  11.581
23552SOL    HW172553   8.774   6.593  11.583
23552SOL    HW272554   8.671   6.492  11.630
23553SOL     OW72555  14.802   0.952   1.140
23553SOL    HW172556  14.734   0.970   1.075
23553SOL    HW272557   0.012   0.997   1.107
23554SOL     OW72558   7.873   6.857   5.692
23554SOL    HW172559   7.951   6.875   5.745
23554SOL    HW272560   7.863   6.935   5.638
23555SOL     OW72561   7.717   6.404   1.062
23555SOL    HW172562   7.739   6.316   1.093
23555SOL    HW272563   7.642   6.391   1.004
23556SOL     OW72564  10.495   9.067  14.775
23556SOL    HW172565  10.466   9.154  14.748
23556SOL    HW272566  10.418   9.011  14.762
23557SOL     OW72567   8.583   8.016   8.570
23557SOL    HW172568   8.611   8.081   8.506
23557SOL    HW272569   8.547   7.944   8.518
23558SOL     OW72570   5.381   6.857   4.297
23558SOL    HW172571   5.423   6.934   4.335
23558SOL    HW272572   5.389   6.789   4.364
23559SOL     OW72573   1.175  14.693  13.288
23559SOL    HW172574   1.181  14.607  13.245
23559SOL    HW272575   1.214  14.754  13.225
23560SOL     OW72576  13.352  14.514   0.188
23560SOL    HW172577  13.353  14.605   0.157
23560SOL    HW272578  13.332  14.521   0.281
23561SOL     OW72579   6.803   0.747  10.582
23561SOL    HW172580   6.793   0.656  10.557
23561SOL    HW272581   6.813   0.746  10.677
23562SOL     OW72582  12.647   6.970   6.058
23562SOL    HW172583  12.666   7.064   6.054
23562SOL    HW272584  12.616   6.948   5.970
23563SOL     OW72585  10.578   2.648   6.012
23563SOL    HW172586  10.566   2.743   6.018
23563SOL    HW272587  10.630   2.636   5.933
23564SOL     OW72588  14.490  13.281   8.662
23564SOL    HW172589  14.508  13.250   8.573
23564SOL    HW272590  14.511  13.207   8.718
23565SOL     OW72591   4.652   6.070  12.098
23565SOL    HW172592   4.637   6.165  12.100
23565SOL    HW272593   4.564   6.033  12.084
23566SOL     OW72594   5.895   4.964   1.342
23566SOL    HW172595   5.910   4.889   1.284
23566SOL    HW272596   5.982   4.992   1.369
23567SOL     OW72597   5.162   4.403   7.894
23567SOL    HW172598   5.249   4.396   7.854
23567SOL    HW272599   5.179   4.406   7.988
23568SOL     OW72600   4.465  10.161   0.853
23568SOL    HW172601   4.537  10.214   0.818
23568SOL    HW272602   4.502  10.072   0.857
23569SOL     OW72603   1.923  11.364  10.017
23569SOL    HW172604   2.005  11.411  10.030
23569SOL    HW272605   1.923  11.342   9.924
23570SOL     OW72606   1.425  11.050  13.113
23570SOL    HW172607   1.354  11.106  13.082
23570SOL    HW272608   1.409  11.039  13.207
23571SOL     OW72609  10.716   1.759   3.152
23571SOL    HW172610  10.638   1.751   3.207
23571SOL    HW272611  10.757   1.841   3.181
23572SOL     OW72612   3.470   7.925   0.700
23572SOL    HW172613   3.534   7.856   0.681
23572SOL    HW272614   3.502   8.001   0.652
23573SOL     OW72615  12.431   7.806   0.153
23573SOL    HW172616  12.427   7.838   0.244
23573SOL    HW272617  12.466   7.718   0.160
23574SOL     OW72618  10.082   6.606   8.285
23574SOL    HW172619  10.158   6.642   8.239
23574SOL    HW272620  10.111   6.598   8.376
23575SOL     OW72621   4.764   0.934   4.205
23575SOL    HW172622   4.743   1.001   4.271
23575SOL    HW272623   4.736   0.852   4.245
23576SOL     OW72624  13.496  11.073  11.519
23576SOL    HW172625  13.463  11.149  11.471
23576SOL    HW272626  13.590  11.073  11.502
23577SOL     OW72627   9.205  11.856   0.190
23577SOL    HW172628   9.269  11.828   0.256
23577SOL    HW272629   9.144  11.912   0.239
23578SOL     OW72630   5.251   7.925   8.729
23578SOL    HW172631   5.312   7.997   8.710
23578SOL    HW272632   5.288   7.882   8.806
23579SOL     OW72633   0.049   6.820   9.232
23579SOL    HW172634   0.116   6.793   9.169
23579SOL    HW272635   0.014   6.738   9.267
23580SOL     OW72636  12.553   6.039  14.392
23580SOL    HW172637  12.562   6.107  14.325
23580SOL    HW272638  12.472   5.994  14.370
23581SOL     OW72639   5.944   5.972   6.507
23581SOL    HW172640   5.958   5.888   6.552
23581SOL    HW272641   5.978   6.038   6.568
23582SOL     OW72642   8.955   7.497   3.940
23582SOL    HW172643   8.967   7.441   3.864
23582SOL    HW272644   8.860   7.505   3.949
23583SOL     OW72645  12.594   1.018   4.351
23583SOL    HW172646  12.626   1.082   4.288
23583SOL    HW272647  12.662   0.951   4.356
23584SOL     OW72648  13.552  13.744   9.385
23584SOL    HW172649  13.611  13.726   9.312
23584SOL    HW272650  13.499  13.665   9.393
23585SOL     OW72651  11.567  14.725  13.262
23585SOL    HW172652  11.493  14.669  13.238
23585SOL    HW272653  11.641  14.665  13.270
23586SOL     OW72654   2.448   6.733  12.426
23586SOL    HW172655   2.440   6.690  12.512
23586SOL    HW272656   2.502   6.810  12.443
23587SOL     OW72657  12.770   8.135  10.256
23587SOL    HW172658  12.863   8.117  10.241
23587SOL    HW272659  12.730   8.048  10.263
23588SOL     OW72660   6.705   0.741   9.934
23588SOL    HW172661   6.750   0.820   9.904
23588SOL    HW272662   6.727   0.735  10.027
23589SOL     OW72663   7.192   7.444  14.591
23589SOL    HW172664   7.259   7.429  14.524
23589SOL    HW272665   7.168   7.357  14.622
23590SOL     OW72666  14.026   0.258   0.704
23590SOL    HW172667  13.963   0.326   0.727
23590SOL    HW272668  14.104   0.306   0.675
23591SOL     OW72669   9.107  14.691   1.681
23591SOL    HW172670   9.084  14.640   1.604
23591SOL    HW272671   9.124  14.625   1.749
23592SOL     OW72672   8.730  10.649   4.151
23592SOL    HW172673   8.774  10.580   4.200
23592SOL    HW272674   8.717  10.613   4.064
23593SOL     OW72675  14.354   4.637  14.256
23593SOL    HW172676  14.447   4.622  14.236
23593SOL    HW272677  14.317   4.549  14.266
23594SOL     OW72678   3.407   2.344   6.592
23594SOL    HW172679   3.428   2.434   6.615
23594SOL    HW272680   3.384   2.347   6.499
23595SOL     OW72681  11.532   2.270   8.838
23595SOL    HW172682  11.512   2.262   8.745
23595SOL    HW272683  11.612   2.218   8.850
23596SOL     OW72684   7.908   5.714  11.036
23596SOL    HW172685   7.957   5.759  10.968
23596SOL    HW272686   7.967   5.645  11.068
23597SOL     OW72687  12.501   8.109   1.892
23597SOL    HW172688  12.514   8.162   1.970
23597SOL    HW272689  12.547   8.027   1.911
23598SOL     OW72690   5.241   5.736   2.717
23598SOL    HW172691   5.153   5.768   2.695
23598SOL    HW272692   5.268   5.790   2.792
23599SOL     OW72693   2.357   0.864  11.964
23599SOL    HW172694   2.320   0.924  12.029
23599SOL    HW272695   2.426   0.816  12.011
23600SOL     OW72696   3.212   9.950  12.223
23600SOL    HW172697   3.198  10.015  12.292
23600SOL    HW272698   3.260   9.996  12.155
23601SOL     OW72699  11.624   1.367   4.448
23601SOL    HW172700  11.630   1.362   4.543
23601SOL    HW272701  11.705   1.327   4.417
23602SOL     OW72702  12.423   6.480  14.465
23602SOL    HW172703  12.417   6.509  14.374
23602SOL    HW272704  12.336   6.496  14.502
23603SOL     OW72705   4.109  12.560   1.310
23603SOL    HW172706   4.115  12.492   1.243
23603SOL    HW272707   4.051  12.626   1.272
23604SOL     OW72708   4.523  13.329   9.989
23604SOL    HW172709   4.482  13.270  10.053
23604SOL    HW272710   4.464  13.327   9.914
23605SOL     OW72711   1.933   2.245   0.289
23605SOL    HW172712   1.865   2.198   0.239
23605SOL    HW272713   1.934   2.332   0.250
23606SOL     OW72714   6.198  11.737   9.111
23606SOL    HW172715   6.200  11.731   9.206
23606SOL    HW272716   6.159  11.823   9.093
23607SOL     OW72717   2.937   8.808   7.609
23607SOL    HW172718   2.944   8.775   7.519
23607SOL    HW272719   2.970   8.736   7.663
23608SOL     OW72720   2.160  14.057   2.661
23608SOL    HW172721   2.251  14.074   2.685
23608SOL    HW272722   2.166  13.996   2.587
23609SOL     OW72723   5.430  10.323   8.719
23609SOL    HW172724   5.346  10.315   8.766
23609SOL    HW272725   5.485  10.254   8.757
23610SOL     OW72726   0.934   0.525   8.876
23610SOL    HW172727   0.995   0.597   8.860
23610SOL    HW272728   0.848   0.567   8.881
23611SOL     OW72729   1.396  14.620   5.197
23611SOL    HW172730   1.336  14.678   5.243
23611SOL    HW272731   1.361  14.615   5.108
23612SOL     OW72732   5.057  12.759   3.761
23612SOL    HW172733   5.059  12.782   3.854
23612SOL    HW272734   5.089  12.669   3.758
23613SOL     OW72735   5.727  10.235  13.270
23613SOL    HW172736   5.805  10.193  13.306
23613SOL    HW272737   5.760  10.293  13.201
23614SOL     OW72738   3.880   1.136   7.929
23614SOL    HW172739   3.971   1.161   7.946
23614SOL    HW272740   3.884   1.041   7.914
23615SOL     OW72741   8.460   2.306  13.795
23615SOL    HW172742   8.530   2.250  13.827
23615SOL    HW272743   8.476   2.313  13.700
23616SOL     OW72744  13.206   9.827  13.600
23616SOL    HW172745  13.137   9.844  13.663
23616SOL    HW272746  13.214   9.909  13.551
23617SOL     OW72747   3.523  13.222   9.468
23617SOL    HW172748   3.564  13.141   9.438
23617SOL    HW272749   3.590  13.264   9.522
23618SOL     OW72750   2.112   4.796  11.381
23618SOL    HW172751   2.188   4.745  11.408
23618SOL    HW272752   2.149   4.874  11.339
23619SOL     OW72753   8.681   4.281   5.071
23619SOL    HW172754   8.665   4.190   5.045
23619SOL    HW272755   8.638   4.289   5.157
23620SOL     OW72756   2.261   6.652   9.730
23620SOL    HW172757   2.165   6.645   9.724
23620SOL    HW272758   2.291   6.637   9.640
23621SOL     OW72759   6.553  12.442   9.118
23621SOL    HW172760   6.622  12.420   9.180
23621SOL    HW272761   6.584  12.522   9.074
23622SOL     OW72762   7.381   7.403  11.521
23622SOL    HW172763   7.357   7.483  11.567
23622SOL    HW272764   7.471   7.416  11.495
23623SOL     OW72765  14.113  13.639  12.094
23623SOL    HW172766  14.140  13.573  12.030
23623SOL    HW272767  14.129  13.723  12.050
23624SOL     OW72768   4.981   6.869   3.157
23624SOL    HW172769   4.996   6.962   3.173
23624SOL    HW272770   4.907   6.866   3.096
23625SOL     OW72771   8.326   6.939   2.742
23625SOL    HW172772   8.364   6.872   2.798
23625SOL    HW272773   8.383   6.941   2.665
23626SOL     OW72774  12.377   4.937  14.760
23626SOL    HW172775  12.373   5.020  14.808
23626SOL    HW272776  12.470   4.915  14.760
23627SOL     OW72777  13.993   5.512  11.170
23627SOL    HW172778  14.014   5.437  11.225
23627SOL    HW272779  14.078   5.540  11.135
23628SOL     OW72780   2.690   3.643   1.818
23628SOL    HW172781   2.644   3.641   1.902
23628SOL    HW272782   2.642   3.708   1.766
23629SOL     OW72783   3.575   6.313   6.318
23629SOL    HW172784   3.649   6.357   6.276
23629SOL    HW272785   3.574   6.226   6.278
23630SOL     OW72786   2.960   2.880  13.287
23630SOL    HW172787   2.868   2.855  13.299
23630SOL    HW272788   2.956   2.965  13.243
23631SOL     OW72789   6.214   1.920   2.477
23631SOL    HW172790   6.278   1.858   2.443
23631SOL    HW272791   6.192   1.976   2.402
23632SOL     OW72792   5.022  14.226   3.826
23632SOL    HW172793   5.028  14.236   3.731
23632SOL    HW272794   4.991  14.136   3.839
23633SOL     OW72795   4.166  12.439  12.071
23633SOL    HW172796   4.221  12.397  12.137
23633SOL    HW272797   4.126  12.367  12.023
23634SOL     OW72798   1.910   2.580   3.026
23634SOL    HW172799   1.999   2.551   3.006
23634SOL    HW272800   1.898   2.560   3.119
23635SOL     OW72801   1.075   7.114   2.459
23635SOL    HW172802   1.024   7.042   2.496
23635SOL    HW272803   1.166   7.082   2.460
23636SOL     OW72804  13.244   5.761  11.729
23636SOL    HW172805  13.257   5.666  11.724
23636SOL    HW272806  13.149   5.771  11.736
23637SOL     OW72807   6.938   4.560  11.476
23637SOL    HW172808   6.873   4.613  11.428
23637SOL    HW272809   6.910   4.567  11.567
23638SOL     OW72810   4.128  12.156  14.051
23638SOL    HW172811   4.055  12.094  14.063
23638SOL    HW272812   4.123  12.214  14.127
23639SOL     OW72813  12.652   4.406  11.030
23639SOL    HW172814  12.721   4.357  11.074
23639SOL    HW272815  12.616   4.463  11.098
23640SOL     OW72816   2.760   8.186   9.664
23640SOL    HW172817   2.807   8.150   9.589
23640SOL    HW272818   2.823   8.182   9.736
23641SOL     OW72819  13.132   3.322   6.353
23641SOL    HW172820  13.085   3.243   6.324
23641SOL    HW272821  13.214   3.320   6.303
23642SOL     OW72822   5.845   1.916  11.302
23642SOL    HW172823   5.938   1.900  11.317
23642SOL    HW272824   5.802   1.835  11.330
23643SOL     OW72825   7.316   9.982  10.591
23643SOL    HW172826   7.366   9.915  10.637
23643SOL    HW272827   7.330  10.062  10.642
23644SOL     OW72828  10.025   0.851  11.061
23644SOL    HW172829   9.977   0.856  10.978
23644SOL    HW272830  10.014   0.760  11.089
23645SOL     OW72831  10.319   9.164   0.550
23645SOL    HW172832  10.405   9.207   0.553
23645SOL    HW272833  10.328   9.091   0.611
23646SOL     OW72834  14.442   6.780   5.854
23646SOL    HW172835  14.415   6.715   5.918
23646SOL    HW272836  14.458   6.859   5.906
23647SOL     OW72837   5.692   0.657   9.284
23647SOL    HW172838   5.767   0.629   9.337
23647SOL    HW272839   5.705   0.613   9.200
23648SOL     OW72840   8.390   7.347   7.376
23648SOL    HW172841   8.336   7.277   7.414
23648SOL    HW272842   8.336   7.383   7.305
23649SOL     OW72843   0.361  10.247   0.940
23649SOL    HW172844   0.394  10.159   0.961
23649SOL    HW272845   0.379  10.299   1.018
23650SOL     OW72846   9.665   7.903   3.021
23650SOL    HW172847   9.706   7.978   3.065
23650SOL    HW272848   9.582   7.937   2.989
23651SOL     OW72849   0.687   0.122   9.264
23651SOL    HW172850   0.697   0.075   9.347
23651SOL    HW272851   0.696   0.055   9.197
23652SOL     OW72852   6.290   4.255   7.008
23652SOL    HW172853   6.334   4.303   6.938
23652SOL    HW272854   6.360   4.219   7.061
23653SOL     OW72855   8.318   7.808   7.092
23653SOL    HW172856   8.234   7.812   7.047
23653SOL    HW272857   8.358   7.894   7.075
23654SOL     OW72858   8.676   5.310   9.402
23654SOL    HW172859   8.686   5.367   9.478
23654SOL    HW272860   8.709   5.362   9.328
23655SOL     OW72861   5.892  11.307   8.261
23655SOL    HW172862   5.827  11.326   8.195
23655SOL    HW272863   5.944  11.235   8.224
23656SOL     OW72864   1.749   0.059   6.541
23656SOL    HW172865   1.754   0.071   6.636
23656SOL    HW272866   1.657   0.073   6.519
23657SOL     OW72867   6.111   8.925   3.551
23657SOL    HW172868   6.146   8.836   3.540
23657SOL    HW272869   6.052   8.937   3.477
23658SOL     OW72870  14.247   0.218   2.768
23658SOL    HW172871  14.215   0.295   2.722
23658SOL    HW272872  14.207   0.223   2.855
23659SOL     OW72873   9.292   2.154   5.361
23659SOL    HW172874   9.216   2.112   5.402
23659SOL    HW272875   9.351   2.172   5.434
23660SOL     OW72876   8.155   1.961   2.943
23660SOL    HW172877   8.093   1.943   2.872
23660SOL    HW272878   8.140   1.891   3.007
23661SOL     OW72879   5.498   1.191   9.480
23661SOL    HW172880   5.495   1.099   9.505
23661SOL    HW272881   5.524   1.237   9.560
23662SOL     OW72882  14.409   1.690   5.561
23662SOL    HW172883  14.464   1.759   5.599
23662SOL    HW272884  14.400   1.716   5.469
23663SOL     OW72885   7.447   6.002  12.159
23663SOL    HW172886   7.356   6.026  12.178
23663SOL    HW272887   7.475   6.064  12.092
23664SOL     OW72888  13.667   6.105   7.557
23664SOL    HW172889  13.593   6.102   7.617
23664SOL    HW272890  13.727   6.037   7.589
23665SOL     OW72891   1.571  11.659   4.550
23665SOL    HW172892   1.624  11.634   4.625
23665SOL    HW272893   1.496  11.598   4.553
23666SOL     OW72894  13.714  13.961   9.340
23666SOL    HW172895  13.728  13.945   9.247
23666SOL    HW272896  13.633  13.915   9.360
23667SOL     OW72897   2.104   4.754  10.113
23667SOL    HW172898   2.086   4.843  10.084
23667SOL    HW272899   2.133   4.709  10.034
23668SOL     OW72900  12.452   3.658  14.202
23668SOL    HW172901  12.411   3.685  14.284
23668SOL    HW272902  12.378   3.640  14.144
23669SOL     OW72903  10.628  11.557   0.255
23669SOL    HW172904  10.701  11.565   0.194
23669SOL    HW272905  10.665  11.511   0.331
23670SOL     OW72906  12.298   7.617   5.906
23670SOL    HW172907  12.387   7.642   5.930
23670SOL    HW272908  12.301   7.522   5.896
23671SOL     OW72909  11.049   9.790   3.502
23671SOL    HW172910  11.087   9.762   3.419
23671SOL    HW272911  11.097   9.869   3.525
23672SOL     OW72912   1.122   6.014  12.648
23672SOL    HW172913   1.145   5.960  12.723
23672SOL    HW272914   1.177   5.982  12.576
23673SOL     OW72915  11.852   8.293   7.281
23673SOL    HW172916  11.893   8.226   7.225
23673SOL    HW272917  11.769   8.313   7.238
23674SOL     OW72918   4.486  10.560  14.716
23674SOL    HW172919   4.530  10.645  14.724
23674SOL    HW272920   4.418  10.574  14.650
23675SOL     OW72921  12.098   1.331   0.098
23675SOL    HW172922  12.057   1.268   0.039
23675SOL    HW272923  12.144   1.277   0.163
23676SOL     OW72924   3.313  10.253  13.527
23676SOL    HW172925   3.342  10.306  13.453
23676SOL    HW272926   3.224  10.226  13.504
23677SOL     OW72927  10.378   6.473   0.526
23677SOL    HW172928  10.356   6.381   0.539
23677SOL    HW272929  10.470   6.480   0.550
23678SOL     OW72930   5.719   5.761  12.250
23678SOL    HW172931   5.694   5.679  12.207
23678SOL    HW272932   5.814   5.765  12.240
23679SOL     OW72933   7.666  10.452  13.485
23679SOL    HW172934   7.699  10.492  13.565
23679SOL    HW272935   7.731  10.386  13.462
23680SOL     OW72936   3.046   4.957  13.050
23680SOL    HW172937   2.976   5.018  13.072
23680SOL    HW272938   3.079   4.988  12.966
23681SOL     OW72939   4.562   7.640   8.788
23681SOL    HW172940   4.636   7.648   8.848
23681SOL    HW272941   4.527   7.552   8.804
23682SOL     OW72942  10.797   2.282  11.268
23682SOL    HW172943  10.778   2.246  11.354
23682SOL    HW272944  10.831   2.208  11.218
23683SOL     OW72945   9.941   1.361  12.444
23683SOL    HW172946   9.948   1.285  12.386
23683SOL    HW272947   9.979   1.433  12.394
23684SOL     OW72948   8.063   1.549  11.254
23684SOL    HW172949   7.988   1.519  11.305
23684SOL    HW272950   8.043   1.640  11.233
23685SOL     OW72951  14.779   7.213  12.929
23685SOL    HW172952  14.715   7.235  12.996
23685SOL    HW272953  14.792   7.295  12.881
23686SOL     OW72954   4.542   4.131   4.453
23686SOL    HW172955   4.490   4.051   4.460
23686SOL    HW272956   4.544   4.166   4.542
23687SOL     OW72957  14.201   6.807   9.355
23687SOL    HW172958  14.120   6.852   9.330
23687SOL    HW272959  14.171   6.729   9.401
23688SOL     OW72960   1.505   4.265  12.856
23688SOL    HW172961   1.575   4.329  12.864
23688SOL    HW272962   1.496   4.251  12.762
23689SOL     OW72963   1.639   3.351   8.959
23689SOL    HW172964   1.680   3.363   8.874
23689SOL    HW272965   1.624   3.441   8.991
23690SOL     OW72966   4.228   1.233   4.884
23690SOL    HW172967   4.200   1.191   4.966
23690SOL    HW272968   4.183   1.317   4.883
23691SOL     OW72969  14.415   1.569   5.978
23691SOL    HW172970  14.334   1.557   5.928
23691SOL    HW272971  14.434   1.663   5.970
23692SOL     OW72972   1.692  13.418   8.464
23692SOL    HW172973   1.781  13.421   8.428
23692SOL    HW272974   1.685  13.499   8.515
23693SOL     OW72975   9.255  13.677   7.116
23693SOL    HW172976   9.240  13.723   7.033
23693SOL    HW272977   9.261  13.585   7.092
23694SOL     OW72978   3.835   7.432  12.741
23694SOL    HW172979   3.801   7.426  12.830
23694SOL    HW272980   3.813   7.347  12.701
23695SOL     OW72981   4.262   9.739   6.169
23695SOL    HW172982   4.169   9.761   6.158
23695SOL    HW272983   4.268   9.647   6.145
23696SOL     OW72984   1.719   0.872   7.228
23696SOL    HW172985   1.727   0.784   7.264
23696SOL    HW272986   1.810   0.901   7.218
23697SOL     OW72987   4.924  11.025  11.988
23697SOL    HW172988   4.900  11.099  12.044
23697SOL    HW272989   5.003  10.988  12.028
23698SOL     OW72990   5.409  13.528   1.585
23698SOL    HW172991   5.358  13.608   1.597
23698SOL    HW272992   5.479  13.534   1.649
23699SOL     OW72993  13.208  12.333   5.980
23699SOL    HW172994  13.228  12.240   5.982
23699SOL    HW272995  13.126  12.339   5.931
23700SOL     OW72996  12.927   0.650   7.900
23700SOL    HW172997  12.900   0.639   7.991
23700SOL    HW272998  12.867   0.716   7.865
23701SOL     OW72999   0.534  12.356   2.687
23701SOL    HW173000   0.459  12.384   2.634
23701SOL    HW273001   0.599  12.425   2.676
23702SOL     OW73002   9.053   3.905   4.150
23702SOL    HW173003   8.990   3.847   4.193
23702SOL    HW273004   9.138   3.876   4.181
23703SOL     OW73005  12.754   4.537   7.188
23703SOL    HW173006  12.767   4.591   7.266
23703SOL    HW273007  12.668   4.563   7.156
23704SOL     OW73008   8.293  11.225   6.888
23704SOL    HW173009   8.257  11.288   6.826
23704SOL    HW273010   8.242  11.145   6.874
23705SOL     OW73011   0.230   2.271  11.598
23705SOL    HW173012   0.170   2.302  11.530
23705SOL    HW273013   0.213   2.177  11.604
23706SOL     OW73014   0.477  13.108   8.901
23706SOL    HW173015   0.448  13.056   8.826
23706SOL    HW273016   0.564  13.140   8.876
23707SOL     OW73017   7.464   4.938   0.396
23707SOL    HW173018   7.488   5.001   0.463
23707SOL    HW273019   7.526   4.954   0.325
23708SOL     OW73020  12.143  11.732   9.978
23708SOL    HW173021  12.213  11.668   9.967
23708SOL    HW273022  12.102  11.708  10.061
23709SOL     OW73023   3.216   4.690   2.462
23709SOL    HW173024   3.201   4.741   2.382
23709SOL    HW273025   3.209   4.598   2.434
23710SOL     OW73026  13.085  11.723   5.466
23710SOL    HW173027  13.123  11.712   5.378
23710SOL    HW273028  13.158  11.750   5.520
23711SOL     OW73029   8.647   6.291  11.621
23711SOL    HW173030   8.553   6.296  11.605
23711SOL    HW273031   8.655   6.234  11.698
23712SOL     OW73032  13.898   2.949   0.764
23712SOL    HW173033  13.841   2.895   0.709
23712SOL    HW273034  13.947   3.004   0.703
23713SOL     OW73035   5.450  10.702   2.994
23713SOL    HW173036   5.507  10.635   3.033
23713SOL    HW273037   5.508  10.776   2.978
23714SOL     OW73038   8.460  14.864   1.457
23714SOL    HW173039   8.542  14.851   1.505
23714SOL    HW273040   8.488   0.021   1.369
23715SOL     OW73041  11.721   1.469   6.268
23715SOL    HW173042  11.692   1.561   6.268
23715SOL    HW273043  11.798   1.468   6.211
23716SOL     OW73044   4.705   9.390   6.805
23716SOL    HW173045   4.619   9.407   6.844
23716SOL    HW273046   4.711   9.452   6.732
23717SOL     OW73047   8.456   1.935  14.444
23717SOL    HW173048   8.380   1.993  14.444
23717SOL    HW273049   8.499   1.952  14.360
23718SOL     OW73050   1.313   0.941  13.967
23718SOL    HW173051   1.349   0.972  13.884
23718SOL    HW273052   1.242   0.882  13.942
23719SOL     OW73053   2.090   9.004  11.499
23719SOL    HW173054   2.134   9.041  11.576
23719SOL    HW273055   2.069   8.914  11.524
23720SOL     OW73056   8.153  14.588   8.519
23720SOL    HW173057   8.135  14.579   8.613
23720SOL    HW273058   8.089  14.652   8.488
23721SOL     OW73059  12.904   6.649   7.757
23721SOL    HW173060  12.986   6.607   7.734
23721SOL    HW273061  12.930   6.724   7.811
23722SOL     OW73062  11.618   4.320   0.528
23722SOL    HW173063  11.534   4.340   0.568
23722SOL    HW273064  11.632   4.227   0.544
23723SOL     OW73065   9.640  13.036   0.148
23723SOL    HW173066   9.718  12.983   0.132
23723SOL    HW273067   9.590  13.030   0.067
23724SOL     OW73068  10.811  13.574   0.687
23724SOL    HW173069  10.889  13.629   0.679
23724SOL    HW273070  10.739  13.635   0.696
23725SOL     OW73071   5.066  11.169   7.732
23725SOL    HW173072   5.077  11.111   7.657
23725SOL    HW273073   5.144  11.225   7.730
23726SOL     OW73074  12.575   0.359  10.385
23726SOL    HW173075  12.650   0.379  10.329
23726SOL    HW273076  12.540   0.445  10.410
23727SOL     OW73077   7.522   8.500  10.088
23727SOL    HW173078   7.489   8.566  10.148
23727SOL    HW273079   7.566   8.436  10.145
23728SOL     OW73080   5.076   6.498   8.675
23728SOL    HW173081   5.158   6.532   8.712
23728SOL    HW273082   5.033   6.574   8.637
23729SOL     OW73083   3.345   3.128   1.216
23729SOL    HW173084   3.411   3.127   1.147
23729SOL    HW273085   3.377   3.192   1.279
23730SOL     OW73086   9.775   8.268   0.603
23730SOL    HW173087   9.816   8.352   0.623
23730SOL    HW273088   9.681   8.287   0.603
23731SOL     OW73089   6.979   7.230   7.962
23731SOL    HW173090   7.015   7.160   7.908
23731SOL    HW273091   6.919   7.185   8.022
23732SOL     OW73092   3.558   5.410   5.612
23732SOL    HW173093   3.572   5.435   5.521
23732SOL    HW273094   3.605   5.477   5.663
23733SOL     OW73095  11.605   0.545  13.026
23733SOL    HW173096  11.653   0.477  13.074
23733SOL    HW273097  11.513   0.525  13.043
23734SOL     OW73098  14.239  14.274   3.001
23734SOL    HW173099  14.230  14.320   3.084
23734SOL    HW273100  14.281  14.191   3.024
23735SOL     OW73101  11.791   1.427   7.742
23735SOL    HW173102  11.872   1.387   7.774
23735SOL    HW273103  11.820   1.485   7.672
23736SOL     OW73104  10.710   0.972  13.639
23736SOL    HW173105  10.771   0.906  13.674
23736SOL    HW273106  10.766   1.036  13.596
23737SOL     OW73107  14.419   0.366   5.723
23737SOL    HW173108  14.336   0.412   5.733
23737SOL    HW273109  14.466   0.384   5.804
23738SOL     OW73110   0.071   6.114  13.196
23738SOL    HW173111   0.110   6.059  13.264
23738SOL    HW273112   0.139   6.177  13.173
23739SOL     OW73113   7.449  12.296   9.278
23739SOL    HW173114   7.508  12.350   9.331
23739SOL    HW273115   7.365  12.342   9.281
23740SOL     OW73116   5.081   2.056   7.327
23740SOL    HW173117   5.131   2.024   7.402
23740SOL    HW273118   5.088   2.151   7.332
23741SOL     OW73119   1.780  11.883   2.888
23741SOL    HW173120   1.772  11.791   2.863
23741SOL    HW273121   1.732  11.931   2.820
23742SOL     OW73122   6.388   1.821   1.125
23742SOL    HW173123   6.436   1.804   1.206
23742SOL    HW273124   6.376   1.916   1.124
23743SOL     OW73125   3.478   2.915  12.077
23743SOL    HW173126   3.505   2.942  12.164
23743SOL    HW273127   3.466   2.998  12.029
23744SOL     OW73128   5.977  14.466   9.489
23744SOL    HW173129   5.957  14.526   9.417
23744SOL    HW273130   5.895  14.457   9.538
23745SOL     OW73131   3.154   7.111  13.676
23745SOL    HW173132   3.135   7.204  13.658
23745SOL    HW273133   3.083   7.083  13.733
23746SOL     OW73134   0.737   6.692   1.605
23746SOL    HW173135   0.739   6.672   1.511
23746SOL    HW273136   0.652   6.735   1.618
23747SOL     OW73137   8.962   6.007   3.271
23747SOL    HW173138   8.940   5.977   3.359
23747SOL    HW273139   9.007   5.933   3.230
23748SOL     OW73140   6.769   9.633   5.235
23748SOL    HW173141   6.863   9.636   5.216
23748SOL    HW273142   6.765   9.606   5.327
23749SOL     OW73143   0.645  13.880   2.880
23749SOL    HW173144   0.726  13.921   2.850
23749SOL    HW273145   0.640  13.798   2.830
23750SOL     OW73146  10.044   4.421   4.543
23750SOL    HW173147  10.009   4.405   4.455
23750SOL    HW273148  10.067   4.334   4.576
23751SOL     OW73149   4.766   5.065   8.212
23751SOL    HW173150   4.717   5.141   8.181
23751SOL    HW273151   4.722   5.040   8.294
23752SOL     OW73152   4.566   2.030  14.025
23752SOL    HW173153   4.640   2.049  13.968
23752SOL    HW273154   4.527   1.951  13.987
23753SOL     OW73155   9.678   2.601   6.481
23753SOL    HW173156   9.683   2.543   6.405
23753SOL    HW273157   9.734   2.676   6.457
23754SOL     OW73158   4.772   2.747  10.648
23754SOL    HW173159   4.795   2.755  10.556
23754SOL    HW273160   4.711   2.673  10.650
23755SOL     OW73161   4.875  12.264  10.139
23755SOL    HW173162   4.889  12.323  10.065
23755SOL    HW273163   4.849  12.322  10.211
23756SOL     OW73164   2.270   6.285  11.992
23756SOL    HW173165   2.323   6.271  12.071
23756SOL    HW273166   2.231   6.199  11.974
23757SOL     OW73167   6.964   3.733  12.752
23757SOL    HW173168   7.001   3.761  12.668
23757SOL    HW273169   6.887   3.682  12.728
23758SOL     OW73170  12.457  12.634   0.654
23758SOL    HW173171  12.525  12.588   0.703
23758SOL    HW273172  12.481  12.624   0.562
23759SOL     OW73173   7.967  13.869   5.792
23759SOL    HW173174   7.916  13.876   5.873
23759SOL    HW273175   7.946  13.949   5.744
23760SOL     OW73176   2.176   2.177   4.932
23760SOL    HW173177   2.150   2.117   4.862
23760SOL    HW273178   2.266   2.201   4.911
23761SOL     OW73179   2.168   4.476   5.519
23761SOL    HW173180   2.159   4.567   5.547
23761SOL    HW273181   2.254   4.474   5.476
23762SOL     OW73182   9.376  14.293  13.422
23762SOL    HW173183   9.404  14.327  13.507
23762SOL    HW273184   9.410  14.203  13.420
23763SOL     OW73185  11.912   2.164   7.940
23763SOL    HW173186  11.963   2.175   7.859
23763SOL    HW273187  11.963   2.210   8.006
23764SOL     OW73188   8.462   0.329   0.249
23764SOL    HW173189   8.367   0.323   0.245
23764SOL    HW273190   8.488   0.265   0.316
23765SOL     OW73191   2.853  11.869   0.752
23765SOL    HW173192   2.819  11.853   0.664
23765SOL    HW273193   2.792  11.822   0.810
23766SOL     OW73194   5.146   3.500  12.753
23766SOL    HW173195   5.175   3.486  12.663
23766SOL    HW273196   5.073   3.561  12.745
23767SOL     OW73197  10.510   3.878  11.123
23767SOL    HW173198  10.557   3.825  11.058
23767SOL    HW273199  10.427   3.833  11.135
23768SOL     OW73200   7.059   5.611  13.534
23768SOL    HW173201   6.976   5.564  13.542
23768SOL    HW273202   7.108   5.587  13.613
23769SOL     OW73203  11.085   8.271   0.338
23769SOL    HW173204  11.074   8.192   0.390
23769SOL    HW273205  11.027   8.336   0.380
23770SOL     OW73206  14.598  12.332   2.197
23770SOL    HW173207  14.595  12.403   2.262
23770SOL    HW273208  14.541  12.362   2.126
23771SOL     OW73209   1.670   6.529   1.484
23771SOL    HW173210   1.609   6.455   1.489
23771SOL    HW273211   1.656   6.567   1.397
23772SOL     OW73212  12.425   7.003   7.398
23772SOL    HW173213  12.497   6.971   7.453
23772SOL    HW273214  12.453   6.981   7.308
23773SOL     OW73215  11.740   8.445   8.493
23773SOL    HW173216  11.687   8.474   8.419
23773SOL    HW273217  11.829   8.438   8.458
23774SOL     OW73218  13.562   6.807  11.912
23774SOL    HW173219  13.622   6.784  11.983
23774SOL    HW273220  13.505   6.731  11.903
23775SOL     OW73221   3.795   0.649  11.936
23775SOL    HW173222   3.767   0.647  11.845
23775SOL    HW273223   3.754   0.728  11.972
23776SOL     OW73224   1.825   8.420  10.565
23776SOL    HW173225   1.734   8.431  10.593
23776SOL    HW273226   1.848   8.331  10.593
23777SOL     OW73227  13.854   4.750   7.902
23777SOL    HW173228  13.792   4.773   7.972
23777SOL    HW273229  13.802   4.704   7.837
23778SOL     OW73230  11.182  10.888   8.517
23778SOL    HW173231  11.149  10.892   8.607
23778SOL    HW273232  11.179  10.979   8.487
23779SOL     OW73233  11.320   5.977   1.126
23779SOL    HW173234  11.345   6.010   1.040
23779SOL    HW273235  11.396   5.996   1.182
23780SOL     OW73236  14.750   3.341  10.306
23780SOL    HW173237  14.656   3.355  10.309
23780SOL    HW273238  14.783   3.383  10.386
23781SOL     OW73239   1.374   4.571   1.909
23781SOL    HW173240   1.333   4.625   1.842
23781SOL    HW273241   1.370   4.482   1.873
23782SOL     OW73242   6.645  13.182   9.271
23782SOL    HW173243   6.723  13.228   9.302
23782SOL    HW273244   6.579  13.250   9.264
23783SOL     OW73245  14.345   8.865   0.118
23783SOL    HW173246  14.352   8.807   0.193
23783SOL    HW273247  14.258   8.905   0.126
23784SOL     OW73248   6.537   0.250  10.773
23784SOL    HW173249   6.454   0.282  10.737
23784SOL    HW273250   6.522   0.157  10.790
23785SOL     OW73251   8.436   2.109  10.318
23785SOL    HW173252   8.467   2.019  10.307
23785SOL    HW273253   8.427   2.142  10.229
23786SOL     OW73254   8.738  11.200  11.432
23786SOL    HW173255   8.813  11.212  11.490
23786SOL    HW273256   8.677  11.270  11.455
23787SOL     OW73257   1.502  11.897   4.412
23787SOL    HW173258   1.532  11.980   4.449
23787SOL    HW273259   1.546  11.830   4.465
23788SOL     OW73260   2.373  14.019  12.295
23788SOL    HW173261   2.440  14.064  12.348
23788SOL    HW273262   2.423  13.975  12.227
23789SOL     OW73263   3.304   2.162   9.585
23789SOL    HW173264   3.316   2.108   9.507
23789SOL    HW273265   3.222   2.208   9.569
23790SOL     OW73266   0.492   2.423  13.150
23790SOL    HW173267   0.564   2.371  13.114
23790SOL    HW273268   0.501   2.414  13.245
23791SOL     OW73269   6.208   7.411   4.996
23791SOL    HW173270   6.263   7.373   5.065
23791SOL    HW273271   6.266   7.420   4.921
23792SOL     OW73272   9.173  14.281   9.386
23792SOL    HW173273   9.138  14.324   9.464
23792SOL    HW273274   9.267  14.273   9.403
23793SOL     OW73275  10.134   4.386  10.617
23793SOL    HW173276  10.165   4.352  10.701
23793SOL    HW273277  10.041   4.402  10.630
23794SOL     OW73278   2.074   1.643   1.526
23794SOL    HW173279   2.028   1.627   1.444
23794SOL    HW273280   2.146   1.702   1.501
23795SOL     OW73281   4.053   0.237   0.528
23795SOL    HW173282   4.023   0.225   0.618
23795SOL    HW273283   3.981   0.282   0.484
23796SOL     OW73284   2.516  13.857   0.348
23796SOL    HW173285   2.566  13.790   0.301
23796SOL    HW273286   2.553  13.857   0.436
23797SOL     OW73287   2.178   4.315  12.302
23797SOL    HW173288   2.157   4.280  12.215
23797SOL    HW273289   2.137   4.402  12.303
23798SOL     OW73290   3.179  12.851   0.968
23798SOL    HW173291   3.126  12.852   0.888
23798SOL    HW273292   3.153  12.930   1.015
23799SOL     OW73293   3.454   5.952   9.514
23799SOL    HW173294   3.443   6.046   9.500
23799SOL    HW273295   3.421   5.911   9.434
23800SOL     OW73296   7.781   9.405   0.301
23800SOL    HW173297   7.852   9.453   0.258
23800SOL    HW273298   7.715   9.472   0.319
23801SOL     OW73299  13.747   7.473   4.481
23801SOL    HW173300  13.768   7.388   4.441
23801SOL    HW273301  13.810   7.533   4.441
23802SOL     OW73302  14.724   6.700   4.227
23802SOL    HW173303  14.791   6.764   4.251
23802SOL    HW273304  14.761   6.655   4.151
23803SOL     OW73305   5.007  10.726   1.155
23803SOL    HW173306   4.988  10.820   1.151
23803SOL    HW273307   5.021  10.708   1.248
23804SOL     OW73308   1.166   7.794   9.920
23804SOL    HW173309   1.202   7.756   9.839
23804SOL    HW273310   1.202   7.739   9.990
23805SOL     OW73311   6.426   4.521   3.654
23805SOL    HW173312   6.414   4.498   3.562
23805SOL    HW273313   6.389   4.608   3.662
23806SOL     OW73314   7.165   6.394   8.796
23806SOL    HW173315   7.171   6.431   8.884
23806SOL    HW273316   7.083   6.429   8.761
23807SOL     OW73317   2.291   7.005  13.964
23807SOL    HW173318   2.267   6.954  14.042
23807SOL    HW273319   2.211   7.053  13.942
23808SOL     OW73320   4.120   2.617   5.701
23808SOL    HW173321   4.062   2.573   5.763
23808SOL    HW273322   4.062   2.676   5.653
23809SOL     OW73323   9.204  10.289   9.207
23809SOL    HW173324   9.250  10.372   9.198
23809SOL    HW273325   9.161  10.276   9.123
23810SOL     OW73326   5.194   2.092   6.114
23810SOL    HW173327   5.204   1.999   6.135
23810SOL    HW273328   5.269   2.113   6.059
23811SOL     OW73329   9.281   5.125  11.085
23811SOL    HW173330   9.358   5.177  11.112
23811SOL    HW273331   9.272   5.060  11.154
23812SOL     OW73332  11.097   0.858  13.531
23812SOL    HW173333  11.097   0.954  13.539
23812SOL    HW273334  11.176   0.830  13.577
23813SOL     OW73335  13.297   1.122   0.205
23813SOL    HW173336  13.214   1.075   0.217
23813SOL    HW273337  13.355   1.058   0.164
23814SOL     OW73338   7.055  12.705   8.649
23814SOL    HW173339   7.138  12.681   8.608
23814SOL    HW273340   7.068  12.795   8.677
23815SOL     OW73341   9.383  10.222   9.400
23815SOL    HW173342   9.340  10.230   9.485
23815SOL    HW273343   9.312  10.228   9.337
23816SOL     OW73344   7.233   3.437  11.181
23816SOL    HW173345   7.312   3.457  11.132
23816SOL    HW273346   7.162   3.471  11.127
23817SOL     OW73347   6.491   6.398   4.163
23817SOL    HW173348   6.478   6.315   4.209
23817SOL    HW273349   6.570   6.435   4.202
23818SOL     OW73350  14.040   1.470  12.649
23818SOL    HW173351  13.962   1.416  12.657
23818SOL    HW273352  14.113   1.409  12.661
23819SOL     OW73353   2.536   1.974   5.468
23819SOL    HW173354   2.447   1.969   5.435
23819SOL    HW273355   2.587   1.919   5.408
23820SOL     OW73356   2.247   3.831   1.701
23820SOL    HW173357   2.178   3.766   1.687
23820SOL    HW273358   2.202   3.904   1.744
23821SOL     OW73359   6.541   5.926   2.789
23821SOL    HW173360   6.457   5.914   2.833
23821SOL    HW273361   6.520   5.921   2.695
23822SOL     OW73362   2.564   6.132   3.678
23822SOL    HW173363   2.488   6.178   3.642
23822SOL    HW273364   2.625   6.126   3.605
23823SOL     OW73365   0.674  14.795  12.863
23823SOL    HW173366   0.579  14.800  12.849
23823SOL    HW273367   0.688  14.709  12.902
23824SOL     OW73368   5.859   5.791   0.245
23824SOL    HW173369   5.898   5.708   0.271
23824SOL    HW273370   5.781   5.766   0.196
23825SOL     OW73371   5.238   7.592  11.977
23825SOL    HW173372   5.301   7.603  11.906
23825SOL    HW273373   5.265   7.656  12.043
23826SOL     OW73374   1.575  11.310  10.294
23826SOL    HW173375   1.635  11.279  10.363
23826SOL    HW273376   1.612  11.394  10.266
23827SOL     OW73377  11.514  10.640   4.478
23827SOL    HW173378  11.533  10.733   4.491
23827SOL    HW273379  11.499  10.632   4.383
23828SOL     OW73380   9.761   3.252   8.656
23828SOL    HW173381   9.679   3.300   8.643
23828SOL    HW273382   9.769   3.196   8.580
23829SOL     OW73383   6.718  10.426  11.519
23829SOL    HW173384   6.627  10.416  11.490
23829SOL    HW273385   6.728  10.520  11.537
23830SOL     OW73386   0.632   3.306   9.177
23830SOL    HW173387   0.715   3.352   9.191
23830SOL    HW273388   0.583   3.362   9.117
23831SOL     OW73389   8.006  10.225   6.978
23831SOL    HW173390   8.080  10.275   6.943
23831SOL    HW273391   8.035  10.197   7.065
23832SOL     OW73392  13.188  12.432   2.968
23832SOL    HW173393  13.137  12.455   3.046
23832SOL    HW273394  13.217  12.517   2.933
23833SOL     OW73395   0.133  11.876  10.324
23833SOL    HW173396   0.205  11.937  10.309
23833SOL    HW273397   0.056  11.931  10.338
23834SOL     OW73398   9.078   5.013   7.495
23834SOL    HW173399   9.165   4.975   7.488
23834SOL    HW273400   9.020   4.947   7.457
23835SOL     OW73401   4.214   8.182  10.142
23835SOL    HW173402   4.255   8.176  10.229
23835SOL    HW273403   4.173   8.097  10.129
23836SOL     OW73404  12.103   3.689  10.098
23836SOL    HW173405  12.126   3.621  10.035
23836SOL    HW273406  12.026   3.655  10.144
23837SOL     OW73407   2.187   8.715  12.725
23837SOL    HW173408   2.206   8.635  12.676
23837SOL    HW273409   2.102   8.698  12.766
23838SOL     OW73410   9.575   5.547  10.093
23838SOL    HW173411   9.645   5.523  10.032
23838SOL    HW273412   9.532   5.465  10.115
23839SOL     OW73413   5.962   2.178   5.449
23839SOL    HW173414   5.989   2.113   5.384
23839SOL    HW273415   6.039   2.232   5.463
23840SOL     OW73416  10.047   6.818  13.463
23840SOL    HW173417  10.067   6.871  13.540
23840SOL    HW273418  10.111   6.746  13.466
23841SOL     OW73419   6.944   6.707   4.058
23841SOL    HW173420   6.895   6.713   4.140
23841SOL    HW273421   6.963   6.614   4.048
23842SOL     OW73422   3.709   1.268   7.429
23842SOL    HW173423   3.673   1.305   7.348
23842SOL    HW273424   3.792   1.313   7.442
23843SOL     OW73425   2.316  11.426   8.243
23843SOL    HW173426   2.405  11.421   8.280
23843SOL    HW273427   2.325  11.481   8.166
23844SOL     OW73428   5.650  10.373   3.711
23844SOL    HW173429   5.665  10.317   3.788
23844SOL    HW273430   5.565  10.413   3.726
23845SOL     OW73431   6.288  13.061  10.054
23845SOL    HW173432   6.302  13.029  10.143
23845SOL    HW273433   6.357  13.019  10.002
23846SOL     OW73434  11.947   3.622  13.796
23846SOL    HW173435  11.913   3.588  13.713
23846SOL    HW273436  12.023   3.674  13.770
23847SOL     OW73437  14.085   9.737   1.153
23847SOL    HW173438  14.097   9.801   1.082
23847SOL    HW273439  14.100   9.652   1.111
23848SOL     OW73440   8.747   4.637  12.082
23848SOL    HW173441   8.749   4.620  11.988
23848SOL    HW273442   8.676   4.701  12.094
23849SOL     OW73443   3.355   5.921  14.203
23849SOL    HW173444   3.332   6.013  14.191
23849SOL    HW273445   3.289   5.887  14.264
23850SOL     OW73446   6.337   2.423  12.735
23850SOL    HW173447   6.417   2.475  12.732
23850SOL    HW273448   6.268   2.481  12.704
23851SOL     OW73449  11.626   0.855  13.540
23851SOL    HW173450  11.564   0.893  13.602
23851SOL    HW273451  11.702   0.912  13.544
23852SOL     OW73452   4.647  10.873  10.958
23852SOL    HW173453   4.559  10.903  10.936
23852SOL    HW273454   4.634  10.785  10.993
23853SOL     OW73455  10.434   3.059   3.743
23853SOL    HW173456  10.457   2.970   3.716
23853SOL    HW273457  10.339   3.061   3.740
23854SOL     OW73458  14.064  13.920   6.961
23854SOL    HW173459  14.016  13.845   6.995
23854SOL    HW273460  14.078  13.976   7.038
23855SOL     OW73461  10.345   1.353   1.712
23855SOL    HW173462  10.280   1.421   1.727
23855SOL    HW273463  10.385   1.338   1.798
23856SOL     OW73464   7.836   3.359   4.246
23856SOL    HW173465   7.887   3.433   4.279
23856SOL    HW273466   7.745   3.390   4.246
23857SOL     OW73467  12.492  10.623   4.107
23857SOL    HW173468  12.431  10.652   4.039
23857SOL    HW273469  12.441  10.565   4.163
23858SOL     OW73470   8.144   4.272  12.475
23858SOL    HW173471   8.225   4.264  12.525
23858SOL    HW273472   8.084   4.319  12.533
23859SOL     OW73473  14.461  11.975  14.447
23859SOL    HW173474  14.406  11.933  14.381
23859SOL    HW273475  14.403  11.986  14.523
23860SOL     OW73476   8.043   9.701  10.512
23860SOL    HW173477   8.037   9.795  10.494
23860SOL    HW273478   8.116   9.694  10.574
23861SOL     OW73479   8.350   2.727  10.241
23861SOL    HW173480   8.289   2.773  10.299
23861SOL    HW273481   8.315   2.639  10.235
23862SOL     OW73482  12.080  12.081   3.380
23862SOL    HW173483  12.090  12.119   3.293
23862SOL    HW273484  12.086  12.155   3.440
23863SOL     OW73485  10.784   3.777   3.771
23863SOL    HW173486  10.742   3.833   3.835
23863SOL    HW273487  10.722   3.773   3.698
23864SOL     OW73488  13.000   5.165   4.673
23864SOL    HW173489  13.072   5.107   4.646
23864SOL    HW273490  12.959   5.119   4.747
23865SOL     OW73491   5.660  11.705  12.967
23865SOL    HW173492   5.730  11.640  12.970
23865SOL    HW273493   5.704  11.789  12.972
23866SOL     OW73494   2.666   7.930   8.011
23866SOL    HW173495   2.725   7.866   8.051
23866SOL    HW273496   2.652   7.996   8.080
23867SOL     OW73497   1.379   3.705   1.533
23867SOL    HW173498   1.345   3.667   1.451
23867SOL    HW273499   1.474   3.693   1.528
23868SOL     OW73500   4.718   4.363   2.705
23868SOL    HW173501   4.669   4.446   2.710
23868SOL    HW273502   4.797   4.386   2.656
23869SOL     OW73503  13.917   2.267   7.041
23869SOL    HW173504  13.902   2.290   7.132
23869SOL    HW273505  13.829   2.262   7.002
23870SOL     OW73506   2.450  12.485   1.217
23870SOL    HW173507   2.535  12.473   1.259
23870SOL    HW273508   2.402  12.543   1.276
23871SOL     OW73509   7.332  11.758  11.703
23871SOL    HW173510   7.244  11.794  11.708
23871SOL    HW273511   7.381  11.820  11.649
23872SOL     OW73512   1.971  11.841  12.198
23872SOL    HW173513   1.989  11.845  12.104
23872SOL    HW273514   1.978  11.748  12.220
23873SOL     OW73515  13.546  12.016  13.587
23873SOL    HW173516  13.509  12.089  13.637
23873SOL    HW273517  13.607  11.974  13.648
23874SOL     OW73518  12.967  12.634  13.860
23874SOL    HW173519  13.059  12.646  13.836
23874SOL    HW273520  12.968  12.571  13.932
23875SOL     OW73521  10.008  11.470   9.946
23875SOL    HW173522   9.955  11.419  10.008
23875SOL    HW273523   9.976  11.442   9.860
23876SOL     OW73524   2.418   8.589  12.278
23876SOL    HW173525   2.496   8.573  12.331
23876SOL    HW273526   2.386   8.674  12.308
23877SOL     OW73527   1.006  13.408  12.108
23877SOL    HW173528   0.971  13.339  12.052
23877SOL    HW273529   1.082  13.368  12.151
23878SOL     OW73530  14.320  12.278  12.885
23878SOL    HW173531  14.333  12.269  12.791
23878SOL    HW273532  14.274  12.199  12.911
23879SOL     OW73533  12.534  14.626   3.215
23879SOL    HW173534  12.538  14.611   3.121
23879SOL    HW273535  12.563  14.717   3.227
23880SOL     OW73536   7.309  14.737  13.049
23880SOL    HW173537   7.218  14.737  13.019
23880SOL    HW273538   7.328  14.645  13.067
23881SOL     OW73539  12.340   2.975   0.989
23881SOL    HW173540  12.272   3.025   0.944
23881SOL    HW273541  12.411   3.037   1.003
23882SOL     OW73542  10.164  12.499  11.867
23882SOL    HW173543  10.230  12.516  11.799
23882SOL    HW273544  10.096  12.449  11.822
23883SOL     OW73545  14.337  12.040  10.900
23883SOL    HW173546  14.307  11.959  10.859
23883SOL    HW273547  14.285  12.109  10.859
23884SOL     OW73548  12.203  12.437   5.974
23884SOL    HW173549  12.254  12.416   5.895
23884SOL    HW273550  12.269  12.455   6.041
23885SOL     OW73551   6.367   1.084   2.321
23885SOL    HW173552   6.284   1.088   2.272
23885SOL    HW273553   6.353   1.142   2.395
23886SOL     OW73554   7.321  10.270   2.728
23886SOL    HW173555   7.360  10.347   2.769
23886SOL    HW273556   7.260  10.236   2.793
23887SOL     OW73557   8.467  10.822   1.383
23887SOL    HW173558   8.436  10.769   1.309
23887SOL    HW273559   8.394  10.823   1.445
23888SOL     OW73560   2.260   5.528  10.333
23888SOL    HW173561   2.269   5.570  10.418
23888SOL    HW273562   2.282   5.436  10.349
23889SOL     OW73563   8.513  11.155   2.903
23889SOL    HW173564   8.476  11.209   2.832
23889SOL    HW273565   8.557  11.218   2.960
23890SOL     OW73566   5.828   5.540   4.787
23890SOL    HW173567   5.842   5.548   4.693
23890SOL    HW273568   5.913   5.514   4.822
23891SOL     OW73569   5.251   6.640  14.081
23891SOL    HW173570   5.156   6.632  14.068
23891SOL    HW273571   5.267   6.734  14.084
23892SOL     OW73572   0.892  11.743   2.540
23892SOL    HW173573   0.861  11.653   2.525
23892SOL    HW273574   0.982  11.743   2.509
23893SOL     OW73575  10.455   0.348  11.513
23893SOL    HW173576  10.458   0.440  11.539
23893SOL    HW273577  10.372   0.316  11.549
23894SOL     OW73578  14.634  11.027   9.570
23894SOL    HW173579  14.638  10.937   9.539
23894SOL    HW273580  14.574  11.071   9.509
23895SOL     OW73581   0.915   8.315  10.832
23895SOL    HW173582   0.847   8.287  10.770
23895SOL    HW273583   0.885   8.401  10.862
23896SOL     OW73584  13.757   3.382  11.838
23896SOL    HW173585  13.678   3.371  11.785
23896SOL    HW273586  13.725   3.404  11.925
23897SOL     OW73587  10.974  13.934   0.633
23897SOL    HW173588  11.024  13.998   0.685
23897SOL    HW273589  11.019  13.851   0.647
23898SOL     OW73590  13.804   7.072   1.751
23898SOL    HW173591  13.800   7.112   1.838
23898SOL    HW273592  13.896   7.050   1.739
23899SOL     OW73593   5.120   0.481   7.142
23899SOL    HW173594   5.102   0.455   7.052
23899SOL    HW273595   5.205   0.526   7.138
23900SOL     OW73596  12.432   3.313  14.356
23900SOL    HW173597  12.348   3.309  14.401
23900SOL    HW273598  12.463   3.222  14.355
23901SOL     OW73599   8.983   6.389   1.651
23901SOL    HW173600   8.981   6.294   1.634
23901SOL    HW273601   9.036   6.398   1.730
23902SOL     OW73602   7.085   0.538   0.522
23902SOL    HW173603   7.126   0.470   0.469
23902SOL    HW273604   7.072   0.497   0.608
23903SOL     OW73605   7.098  11.224   7.550
23903SOL    HW173606   7.041  11.237   7.627
23903SOL    HW273607   7.091  11.306   7.501
23904SOL     OW73608  12.841   3.833   0.840
23904SOL    HW173609  12.764   3.841   0.897
23904SOL    HW273610  12.906   3.789   0.893
23905SOL     OW73611   8.028   3.757   2.120
23905SOL    HW173612   7.991   3.819   2.057
23905SOL    HW273613   8.045   3.809   2.198
23906SOL     OW73614   8.306   8.639  10.261
23906SOL    HW173615   8.311   8.601  10.348
23906SOL    HW273616   8.395   8.635  10.227
23907SOL     OW73617  11.153   8.016   4.240
23907SOL    HW173618  11.161   8.081   4.310
23907SOL    HW273619  11.104   7.944   4.281
23908SOL     OW73620   0.151   1.915   5.709
23908SOL    HW173621   0.185   1.884   5.625
23908SOL    HW273622   0.228   1.924   5.764
23909SOL     OW73623  14.742   4.883  14.574
23909SOL    HW173624  14.760   4.976  14.562
23909SOL    HW273625  14.722   4.851  14.486
23910SOL     OW73626   1.558  12.562  13.619
23910SOL    HW173627   1.629  12.516  13.666
23910SOL    HW273628   1.588  12.653  13.614
23911SOL     OW73629  13.282   8.136  10.356
23911SOL    HW173630  13.331   8.057  10.335
23911SOL    HW273631  13.220   8.109  10.424
23912SOL     OW73632  12.634   1.919   7.689
23912SOL    HW173633  12.656   1.900   7.781
23912SOL    HW273634  12.633   2.014   7.684
23913SOL     OW73635   3.061   0.197   8.341
23913SOL    HW173636   2.967   0.205   8.354
23913SOL    HW273637   3.097   0.278   8.377
23914SOL     OW73638   7.015   0.793   6.930
23914SOL    HW173639   7.010   0.822   7.021
23914SOL    HW273640   6.969   0.709   6.929
23915SOL     OW73641  10.028  11.102   2.169
23915SOL    HW173642   9.966  11.175   2.164
23915SOL    HW273643  10.070  11.100   2.083
23916SOL     OW73644   9.944   7.180   4.983
23916SOL    HW173645   9.877   7.112   4.979
23916SOL    HW273646   9.962   7.191   5.076
23917SOL     OW73647  11.178  13.537   5.748
23917SOL    HW173648  11.184  13.562   5.655
23917SOL    HW273649  11.267  13.510   5.770
23918SOL     OW73650   7.494   6.320   4.826
23918SOL    HW173651   7.551   6.358   4.892
23918SOL    HW273652   7.525   6.357   4.743
23919SOL     OW73653   8.122   2.409   7.187
23919SOL    HW173654   8.178   2.347   7.234
23919SOL    HW273655   8.174   2.434   7.110
23920SOL     OW73656   0.363  10.990  12.900
23920SOL    HW173657   0.403  10.920  12.848
23920SOL    HW273658   0.360  11.065  12.841
23921SOL     OW73659   6.179   2.281   0.748
23921SOL    HW173660   6.275   2.277   0.751
23921SOL    HW273661   6.160   2.329   0.668
23922SOL     OW73662   1.350   4.536   0.069
23922SOL    HW173663   1.364   4.602   0.002
23922SOL    HW273664   1.415   4.556   0.137
23923SOL     OW73665   2.784   3.511  13.709
23923SOL    HW173666   2.693   3.485  13.701
23923SOL    HW273667   2.783   3.607  13.699
23924SOL     OW73668   3.237  14.488  11.459
23924SOL    HW173669   3.287  14.458  11.535
23924SOL    HW273670   3.147  14.495  11.491
23925SOL     OW73671   0.649  12.675   1.798
23925SOL    HW173672   0.657  12.697   1.891
23925SOL    HW273673   0.585  12.605   1.796
23926SOL     OW73674   8.071   7.279  11.740
23926SOL    HW173675   8.049   7.240  11.656
23926SOL    HW273676   8.114   7.209  11.789
23927SOL     OW73677   8.870  12.775  13.187
23927SOL    HW173678   8.945  12.745  13.239
23927SOL    HW273679   8.858  12.707  13.121
23928SOL     OW73680   6.101   9.900   7.593
23928SOL    HW173681   6.161   9.938   7.658
23928SOL    HW273682   6.153   9.895   7.513
23929SOL     OW73683  13.752   6.649   3.054
23929SOL    HW173684  13.815   6.719   3.069
23929SOL    HW273685  13.773   6.583   3.121
23930SOL     OW73686  10.149   9.079  12.141
23930SOL    HW173687  10.226   9.108  12.093
23930SOL    HW273688  10.082   9.144  12.121
23931SOL     OW73689  14.196   8.933   4.558
23931SOL    HW173690  14.182   8.851   4.511
23931SOL    HW273691  14.266   8.977   4.509
23932SOL     OW73692   9.900   4.340  12.700
23932SOL    HW173693   9.856   4.368  12.780
23932SOL    HW273694   9.843   4.370  12.629
23933SOL     OW73695   6.466  11.818  11.951
23933SOL    HW173696   6.470  11.905  11.991
23933SOL    HW273697   6.555  11.784  11.956
23934SOL     OW73698   2.514  11.689   5.848
23934SOL    HW173699   2.576  11.658   5.783
23934SOL    HW273700   2.447  11.736   5.798
23935SOL     OW73701  10.034  11.859   4.262
23935SOL    HW173702  10.056  11.772   4.230
23935SOL    HW273703  10.119  11.899   4.284
23936SOL     OW73704   7.675   0.191   4.590
23936SOL    HW173705   7.667   0.136   4.667
23936SOL    HW273706   7.770   0.196   4.574
23937SOL     OW73707   4.975  10.987   1.088
23937SOL    HW173708   5.028  11.066   1.088
23937SOL    HW273709   4.891  11.015   1.051
23938SOL     OW73710  13.303   5.146  13.393
23938SOL    HW173711  13.247   5.085  13.441
23938SOL    HW273712  13.249   5.224  13.383
23939SOL     OW73713  10.483   1.037  10.816
23939SOL    HW173714  10.463   0.943  10.820
23939SOL    HW273715  10.549   1.050  10.884
23940SOL     OW73716  10.242   6.681   4.642
23940SOL    HW173717  10.262   6.774   4.633
23940SOL    HW273718  10.243   6.666   4.737
23941SOL     OW73719   2.200   3.516  13.271
23941SOL    HW173720   2.114   3.531  13.232
23941SOL    HW273721   2.199   3.423  13.296
23942SOL     OW73722   5.335  11.285   1.560
23942SOL    HW173723   5.258  11.233   1.581
23942SOL    HW273724   5.401  11.257   1.624
23943SOL     OW73725  14.568   9.939   6.976
23943SOL    HW173726  14.566   9.843   6.975
23943SOL    HW273727  14.628   9.962   6.905
23944SOL     OW73728  13.519   0.202  12.109
23944SOL    HW173729  13.559   0.256  12.041
23944SOL    HW273730  13.475   0.132  12.062
23945SOL     OW73731  12.928   7.956  12.142
23945SOL    HW173732  12.855   8.009  12.174
23945SOL    HW273733  12.974   7.928  12.222
23946SOL     OW73734  13.958   6.645   6.827
23946SOL    HW173735  14.047   6.668   6.855
23946SOL    HW273736  13.934   6.713   6.764
23947SOL     OW73737  10.982  13.404   1.909
23947SOL    HW173738  10.989  13.341   1.981
23947SOL    HW273739  11.072  13.417   1.881
23948SOL     OW73740   0.595  11.830  10.315
23948SOL    HW173741   0.508  11.856  10.285
23948SOL    HW273742   0.588  11.829  10.411
23949SOL     OW73743  10.484   1.449   5.716
23949SOL    HW173744  10.478   1.354   5.728
23949SOL    HW273745  10.531   1.480   5.793
23950SOL     OW73746   0.786  11.679   3.114
23950SOL    HW173747   0.834  11.755   3.082
23950SOL    HW273748   0.854  11.617   3.141
23951SOL     OW73749   2.154   3.985  14.173
23951SOL    HW173750   2.201   3.910  14.136
23951SOL    HW273751   2.213   4.059  14.160
23952SOL     OW73752   9.147   1.748  12.611
23952SOL    HW173753   9.084   1.799  12.663
23952SOL    HW273754   9.152   1.664  12.655
23953SOL     OW73755  12.802  12.074   9.413
23953SOL    HW173756  12.843  12.082   9.327
23953SOL    HW273757  12.824  12.156   9.458
23954SOL     OW73758   4.092   7.137   4.725
23954SOL    HW173759   4.091   7.154   4.819
23954SOL    HW273760   4.016   7.183   4.691
23955SOL     OW73761   3.585   7.193   4.193
23955SOL    HW173762   3.571   7.288   4.198
23955SOL    HW273763   3.580   7.163   4.284
23956SOL     OW73764   9.882   9.988   1.080
23956SOL    HW173765   9.898   9.930   1.153
23956SOL    HW273766   9.808  10.043   1.108
23957SOL     OW73767   2.176   9.615   4.645
23957SOL    HW173768   2.177   9.641   4.553
23957SOL    HW273769   2.234   9.678   4.688
23958SOL     OW73770   1.002  14.160   8.114
23958SOL    HW173771   0.913  14.186   8.137
23958SOL    HW273772   1.036  14.233   8.063
23959SOL     OW73773  13.612   2.320   8.614
23959SOL    HW173774  13.592   2.229   8.635
23959SOL    HW273775  13.589   2.368   8.694
23960SOL     OW73776   5.791   8.882  13.676
23960SOL    HW173777   5.784   8.976  13.662
23960SOL    HW273778   5.885   8.864  13.673
23961SOL     OW73779  11.033  11.438  10.321
23961SOL    HW173780  11.112  11.385  10.333
23961SOL    HW273781  11.017  11.437  10.227
23962SOL     OW73782   1.540   6.471  12.238
23962SOL    HW173783   1.635   6.469  12.243
23962SOL    HW273784   1.515   6.548  12.290
23963SOL     OW73785  14.423   7.524   4.840
23963SOL    HW173786  14.479   7.474   4.900
23963SOL    HW273787  14.441   7.487   4.754
23964SOL     OW73788   0.294   0.111   5.466
23964SOL    HW173789   0.372   0.091   5.415
23964SOL    HW273790   0.249   0.027   5.474
23965SOL     OW73791  12.376  12.080   6.343
23965SOL    HW173792  12.453  12.136   6.350
23965SOL    HW273793  12.348  12.089   6.252
23966SOL     OW73794   5.110   3.989   0.383
23966SOL    HW173795   5.040   4.010   0.322
23966SOL    HW273796   5.075   4.013   0.469
23967SOL     OW73797  12.037   1.236  13.075
23967SOL    HW173798  11.979   1.187  13.016
23967SOL    HW273799  12.121   1.192  13.067
23968SOL     OW73800  13.793  13.609  14.446
23968SOL    HW173801  13.865  13.602  14.384
23968SOL    HW273802  13.829  13.657  14.520
23969SOL     OW73803   2.872  13.246  13.523
23969SOL    HW173804   2.882  13.302  13.600
23969SOL    HW273805   2.829  13.301  13.458
23970SOL     OW73806   7.404  10.107   6.338
23970SOL    HW173807   7.408  10.013   6.319
23970SOL    HW273808   7.463  10.147   6.274
23971SOL     OW73809   6.580   2.505  14.578
23971SOL    HW173810   6.554   2.505  14.486
23971SOL    HW273811   6.506   2.546  14.624
23972SOL     OW73812  11.388  14.494   6.071
23972SOL    HW173813  11.316  14.498   6.134
23972SOL    HW273814  11.407  14.400   6.062
23973SOL     OW73815  11.487  10.907   6.046
23973SOL    HW173816  11.439  10.947   6.118
23973SOL    HW273817  11.498  10.976   5.982
23974SOL     OW73818   8.295  12.687   6.090
23974SOL    HW173819   8.322  12.600   6.060
23974SOL    HW273820   8.278  12.736   6.009
23975SOL     OW73821   2.335   2.261   1.441
23975SOL    HW173822   2.304   2.194   1.503
23975SOL    HW273823   2.420   2.229   1.412
23976SOL     OW73824   0.446  12.244   8.557
23976SOL    HW173825   0.417  12.187   8.485
23976SOL    HW273826   0.373  12.245   8.618
23977SOL     OW73827  10.689   4.437   0.080
23977SOL    HW173828  10.690   4.402  14.859
23977SOL    HW273829  10.637   4.375   0.131
23978SOL     OW73830  13.153   2.014   4.208
23978SOL    HW173831  13.066   2.009   4.169
23978SOL    HW273832  13.189   1.926   4.199
23979SOL     OW73833   5.870   5.815   5.926
23979SOL    HW173834   5.862   5.804   5.831
23979SOL    HW273835   5.933   5.887   5.936
23980SOL     OW73836   5.184   3.254   8.711
23980SOL    HW173837   5.212   3.227   8.623
23980SOL    HW273838   5.248   3.319   8.738
23981SOL     OW73839  12.445   4.404  14.193
23981SOL    HW173840  12.408   4.349  14.262
23981SOL    HW273841  12.372   4.419  14.133
23982SOL     OW73842   9.850   2.110   5.119
23982SOL    HW173843   9.922   2.055   5.151
23982SOL    HW273844   9.879   2.199   5.137
23983SOL     OW73845   4.810   6.908  10.350
23983SOL    HW173846   4.811   6.826  10.399
23983SOL    HW273847   4.901   6.937  10.350
23984SOL     OW73848   3.127   2.304  12.661
23984SOL    HW173849   3.210   2.257  12.659
23984SOL    HW273850   3.063   2.237  12.687
23985SOL     OW73851   3.117   5.153  13.284
23985SOL    HW173852   3.169   5.175  13.361
23985SOL    HW273853   3.138   5.061  13.267
23986SOL     OW73854   4.754   6.541   7.351
23986SOL    HW173855   4.782   6.624   7.389
23986SOL    HW273856   4.835   6.489   7.346
23987SOL     OW73857   8.510   8.335   9.487
23987SOL    HW173858   8.418   8.346   9.463
23987SOL    HW273859   8.519   8.241   9.504
23988SOL     OW73860   4.383   4.538   9.074
23988SOL    HW173861   4.364   4.596   9.000
23988SOL    HW273862   4.377   4.595   9.151
23989SOL     OW73863  11.000   9.874  10.923
23989SOL    HW173864  10.930   9.820  10.960
23989SOL    HW273865  11.073   9.863  10.983
23990SOL     OW73866   1.990   1.844  11.095
23990SOL    HW173867   1.955   1.755  11.102
23990SOL    HW273868   2.069   1.844  11.149
23991SOL     OW73869  14.632  13.807  13.919
23991SOL    HW173870  14.715  13.851  13.938
23991SOL    HW273871  14.614  13.756  13.998
23992SOL     OW73872   8.185  10.971   6.818
23992SOL    HW173873   8.129  10.893   6.816
23992SOL    HW273874   8.271  10.938   6.846
23993SOL     OW73875  12.645  12.153   6.319
23993SOL    HW173876  12.677  12.071   6.357
23993SOL    HW273877  12.710  12.218   6.347
23994SOL     OW73878   7.662   4.754   1.128
23994SOL    HW173879   7.600   4.809   1.080
23994SOL    HW273880   7.738   4.810   1.142
23995SOL     OW73881   9.232   3.608   9.952
23995SOL    HW173882   9.250   3.532   9.897
23995SOL    HW273883   9.256   3.579  10.041
23996SOL     OW73884   0.430   7.637   9.161
23996SOL    HW173885   0.451   7.708   9.222
23996SOL    HW273886   0.408   7.563   9.218
23997SOL     OW73887   9.947  10.192  10.158
23997SOL    HW173888   9.936  10.103  10.123
23997SOL    HW273889   9.969  10.245  10.082
23998SOL     OW73890   2.750   8.214  14.298
23998SOL    HW173891   2.701   8.224  14.216
23998SOL    HW273892   2.829   8.166  14.272
23999SOL     OW73893   2.034   7.558  10.477
23999SOL    HW173894   2.048   7.628  10.541
23999SOL    HW273895   2.122   7.524  10.460
24000SOL     OW73896  13.081   0.184  12.942
24000SOL    HW173897  13.018   0.132  12.892
24000SOL    HW273898  13.028   0.245  12.993
24001SOL     OW73899  14.501   3.705  13.527
24001SOL    HW173900  14.574   3.754  13.489
24001SOL    HW273901  14.423   3.751  13.495
24002SOL     OW73902  14.558  12.884   2.126
24002SOL    HW173903  14.537  12.819   2.193
24002SOL    HW273904  14.630  12.935   2.164
24003SOL     OW73905   6.187  12.983  11.336
24003SOL    HW173906   6.252  12.926  11.293
24003SOL    HW273907   6.221  13.071  11.325
24004SOL     OW73908   6.933  14.198   2.215
24004SOL    HW173909   6.994  14.125   2.206
24004SOL    HW273910   6.956  14.239   2.299
24005SOL     OW73911   8.817   9.760  12.213
24005SOL    HW173912   8.884   9.787  12.276
24005SOL    HW273913   8.760   9.702  12.263
24006SOL     OW73914   5.424   5.891  10.804
24006SOL    HW173915   5.332   5.903  10.780
24006SOL    HW273916   5.421   5.852  10.892
24007SOL     OW73917   9.504  14.096   5.571
24007SOL    HW173918   9.466  14.036   5.635
24007SOL    HW273919   9.516  14.178   5.618
24008SOL     OW73920  11.163   0.566  13.810
24008SOL    HW173921  11.244   0.522  13.835
24008SOL    HW273922  11.190   0.644  13.763
24009SOL     OW73923   0.017  11.974  11.937
24009SOL    HW173924  14.861  12.037  12.006
24009SOL    HW273925   0.023  12.027  11.858
24010SOL     OW73926   6.870   9.677  12.942
24010SOL    HW173927   6.937   9.738  12.975
24010SOL    HW273928   6.871   9.605  13.005
24011SOL     OW73929   5.397   9.110   0.592
24011SOL    HW173930   5.313   9.094   0.633
24011SOL    HW273931   5.389   9.197   0.552
24012SOL     OW73932  10.534   5.352  10.860
24012SOL    HW173933  10.598   5.366  10.791
24012SOL    HW273934  10.586   5.343  10.940
24013SOL     OW73935   1.297  14.608   8.592
24013SOL    HW173936   1.337  14.578   8.510
24013SOL    HW273937   1.206  14.581   8.586
24014SOL     OW73938   3.008   7.473   5.052
24014SOL    HW173939   2.946   7.546   5.046
24014SOL    HW273940   2.952   7.396   5.061
24015SOL     OW73941   0.713   9.285   9.867
24015SOL    HW173942   0.808   9.286   9.861
24015SOL    HW273943   0.684   9.241   9.787
24016SOL     OW73944  12.792  10.086  13.464
24016SOL    HW173945  12.719  10.035  13.430
24016SOL    HW273946  12.868  10.057  13.413
24017SOL     OW73947  10.511   6.199   5.510
24017SOL    HW173948  10.459   6.219   5.589
24017SOL    HW273949  10.446   6.167   5.447
24018SOL     OW73950   8.880   2.138   8.087
24018SOL    HW173951   8.932   2.193   8.028
24018SOL    HW273952   8.790   2.168   8.074
24019SOL     OW73953  13.124   8.230   6.674
24019SOL    HW173954  13.213   8.256   6.697
24019SOL    HW273955  13.125   8.135   6.675
24020SOL     OW73956   7.268   4.436  11.186
24020SOL    HW173957   7.220   4.423  11.104
24020SOL    HW273958   7.298   4.349  11.211
24021SOL     OW73959  13.686   7.171   0.495
24021SOL    HW173960  13.682   7.087   0.540
24021SOL    HW273961  13.745   7.224   0.548
24022SOL     OW73962   5.489   9.388   0.867
24022SOL    HW173963   5.584   9.377   0.872
24022SOL    HW273964   5.457   9.364   0.954
24023SOL     OW73965   3.884   4.679   3.852
24023SOL    HW173966   3.910   4.607   3.795
24023SOL    HW273967   3.939   4.753   3.825
24024SOL     OW73968   4.839   5.951   9.125
24024SOL    HW173969   4.751   5.917   9.138
24024SOL    HW273970   4.870   5.973   9.213
24025SOL     OW73971   5.594   8.040  10.772
24025SOL    HW173972   5.639   7.958  10.792
24025SOL    HW273973   5.540   8.020  10.695
24026SOL     OW73974   2.800   5.120  10.290
24026SOL    HW173975   2.866   5.066  10.247
24026SOL    HW273976   2.849   5.193  10.329
24027SOL     OW73977  14.710  12.482   9.236
24027SOL    HW173978  14.646  12.504   9.169
24027SOL    HW273979  14.790  12.527   9.209
24028SOL     OW73980  14.500   6.438   8.777
24028SOL    HW173981  14.432   6.493   8.737
24028SOL    HW273982  14.554   6.500   8.825
24029SOL     OW73983   2.982   8.542   6.465
24029SOL    HW173984   2.971   8.634   6.488
24029SOL    HW273985   2.897   8.502   6.483
24030SOL     OW73986   1.003  14.358   7.460
24030SOL    HW173987   0.981  14.398   7.544
24030SOL    HW273988   0.921  14.357   7.411
24031SOL     OW73989   3.313   1.347  10.540
24031SOL    HW173990   3.289   1.264  10.583
24031SOL    HW273991   3.262   1.413  10.586
24032SOL     OW73992  12.196  12.766  12.744
24032SOL    HW173993  12.195  12.857  12.715
24032SOL    HW273994  12.157  12.769  12.831
24033SOL     OW73995   0.907   0.588  11.332
24033SOL    HW173996   0.922   0.515  11.391
24033SOL    HW273997   0.936   0.557  11.247
24034SOL     OW73998   8.011  10.790   3.364
24034SOL    HW173999   7.933  10.762   3.411
24034SOL    HW274000   8.082  10.778   3.427
24035SOL     OW74001   0.763   4.378   6.490
24035SOL    HW174002   0.804   4.303   6.446
24035SOL    HW274003   0.801   4.378   6.578
24036SOL     OW74004  11.640   3.991   1.479
24036SOL    HW174005  11.675   4.035   1.402
24036SOL    HW274006  11.615   4.062   1.538
24037SOL     OW74007   3.291   6.007   3.044
24037SOL    HW174008   3.302   5.978   2.953
24037SOL    HW274009   3.375   6.048   3.067
24038SOL     OW74010  12.027   2.777   9.577
24038SOL    HW174011  12.112   2.799   9.538
24038SOL    HW274012  12.004   2.692   9.540
24039SOL     OW74013  13.513   0.742   7.428
24039SOL    HW174014  13.432   0.767   7.384
24039SOL    HW274015  13.535   0.817   7.484
24040SOL     OW74016   6.437   6.634   0.275
24040SOL    HW174017   6.417   6.664   0.364
24040SOL    HW274018   6.514   6.579   0.286
24041SOL     OW74019   4.437   2.697   2.340
24041SOL    HW174020   4.435   2.782   2.383
24041SOL    HW274021   4.476   2.638   2.404
24042SOL     OW74022   2.569  14.863   6.639
24042SOL    HW174023   2.483  14.838   6.671
24042SOL    HW274024   2.630  14.812   6.693
24043SOL     OW74025   4.301  11.216   2.816
24043SOL    HW174026   4.317  11.215   2.722
24043SOL    HW274027   4.225  11.274   2.827
24044SOL     OW74028   5.179   3.026   8.142
24044SOL    HW174029   5.261   3.019   8.191
24044SOL    HW274030   5.174   2.945   8.091
24045SOL     OW74031  13.545   3.638  11.818
24045SOL    HW174032  13.591   3.568  11.771
24045SOL    HW274033  13.493   3.682  11.750
24046SOL     OW74034   5.640  14.377   1.393
24046SOL    HW174035   5.671  14.411   1.477
24046SOL    HW274036   5.687  14.294   1.382
24047SOL     OW74037   9.598  11.904   9.288
24047SOL    HW174038   9.557  11.942   9.211
24047SOL    HW274039   9.609  11.811   9.267
24048SOL     OW74040   8.751   6.830  11.141
24048SOL    HW174041   8.712   6.757  11.189
24048SOL    HW274042   8.834   6.846  11.186
24049SOL     OW74043  13.506  12.277   7.616
24049SOL    HW174044  13.561  12.327   7.556
24049SOL    HW274045  13.553  12.195   7.630
24050SOL     OW74046   4.146  13.453  13.557
24050SOL    HW174047   4.155  13.434  13.650
24050SOL    HW274048   4.149  13.367  13.515
24051SOL     OW74049  11.366   8.990   3.521
24051SOL    HW174050  11.429   9.024   3.458
24051SOL    HW274051  11.352   8.899   3.494
24052SOL     OW74052   6.979  11.431   1.216
24052SOL    HW174053   7.047  11.396   1.158
24052SOL    HW274054   6.896  11.408   1.173
24053SOL     OW74055  14.620  13.795  13.557
24053SOL    HW174056  14.631  13.809  13.463
24053SOL    HW274057  14.567  13.870  13.586
24054SOL     OW74058  11.150   0.412   8.618
24054SOL    HW174059  11.129   0.361   8.539
24054SOL    HW274060  11.191   0.348   8.677
24055SOL     OW74061  13.885   6.817   2.332
24055SOL    HW174062  13.921   6.799   2.419
24055SOL    HW274063  13.880   6.731   2.290
24056SOL     OW74064  10.901  10.139   6.100
24056SOL    HW174065  10.982  10.089   6.109
24056SOL    HW274066  10.873  10.156   6.190
24057SOL     OW74067  13.904   4.272  14.440
24057SOL    HW174068  13.810   4.269  14.456
24057SOL    HW274069  13.914   4.332  14.366
24058SOL     OW74070   1.105   8.292  10.410
24058SOL    HW174071   1.140   8.360  10.353
24058SOL    HW274072   1.127   8.322  10.499
24059SOL     OW74073  11.960   6.252  13.077
24059SOL    HW174074  11.955   6.347  13.069
24059SOL    HW274075  12.022   6.236  13.148
24060SOL     OW74076  11.149   9.751  14.021
24060SOL    HW174077  11.181   9.776  14.108
24060SOL    HW274078  11.053   9.755  14.029
24061SOL     OW74079   3.029   5.453   7.576
24061SOL    HW174080   2.970   5.428   7.648
24061SOL    HW274081   2.990   5.413   7.499
24062SOL     OW74082   0.094   1.180   0.067
24062SOL    HW174083   0.030   1.209   0.002
24062SOL    HW274084   0.178   1.185   0.021
24063SOL     OW74085   3.988   4.310   8.387
24063SOL    HW174086   3.974   4.379   8.322
24063SOL    HW274087   3.970   4.352   8.471
24064SOL     OW74088   7.996  12.397   2.343
24064SOL    HW174089   7.934  12.369   2.275
24064SOL    HW274090   8.075  12.346   2.325
24065SOL     OW74091  12.623  11.034   2.070
24065SOL    HW174092  12.614  11.042   1.975
24065SOL    HW274093  12.604  10.942   2.089
24066SOL     OW74094   1.928   7.016  10.370
24066SOL    HW174095   1.964   7.075  10.304
24066SOL    HW274096   1.985   7.028  10.446
24067SOL     OW74097  10.957   9.487   2.118
24067SOL    HW174098  11.019   9.556   2.094
24067SOL    HW274099  11.010   9.406   2.118
24068SOL     OW74100   4.450   6.077   2.552
24068SOL    HW174101   4.408   5.996   2.523
24068SOL    HW274102   4.420   6.143   2.489
24069SOL     OW74103   5.398   6.626   3.885
24069SOL    HW174104   5.378   6.716   3.909
24069SOL    HW274105   5.468   6.600   3.944
24070SOL     OW74106   0.445  12.141  12.539
24070SOL    HW174107   0.491  12.091  12.471
24070SOL    HW274108   0.370  12.086  12.562
24071SOL     OW74109   0.115  10.046  12.116
24071SOL    HW174110   0.189  10.027  12.058
24071SOL    HW274111   0.050   9.980  12.094
24072SOL     OW74112   5.588   5.487  14.455
24072SOL    HW174113   5.561   5.575  14.481
24072SOL    HW274114   5.519   5.457  14.396
24073SOL     OW74115   6.978   1.057   1.110
24073SOL    HW174116   7.019   0.974   1.134
24073SOL    HW274117   6.991   1.114   1.186
24074SOL     OW74118  14.485  10.119   5.200
24074SOL    HW174119  14.410  10.123   5.141
24074SOL    HW274120  14.559  10.094   5.145
24075SOL     OW74121  13.629  13.100   3.926
24075SOL    HW174122  13.575  13.178   3.937
24075SOL    HW274123  13.595  13.038   3.991
24076SOL     OW74124   8.371  11.696  13.119
24076SOL    HW174125   8.430  11.652  13.179
24076SOL    HW274126   8.426  11.758  13.071
24077SOL     OW74127   4.542  11.188   2.647
24077SOL    HW174128   4.565  11.096   2.661
24077SOL    HW274129   4.471  11.186   2.584
24078SOL     OW74130   4.778   2.383   6.147
24078SOL    HW174131   4.862   2.366   6.104
24078SOL    HW274132   4.716   2.396   6.075
24079SOL     OW74133   0.680   4.576   4.075
24079SOL    HW174134   0.719   4.624   4.147
24079SOL    HW274135   0.699   4.628   3.997
24080SOL     OW74136   3.484   1.270  14.112
24080SOL    HW174137   3.459   1.289  14.202
24080SOL    HW274138   3.578   1.256  14.115
24081SOL     OW74139   4.761   6.492  13.143
24081SOL    HW174140   4.718   6.521  13.224
24081SOL    HW274141   4.690   6.469  13.084
24082SOL     OW74142   4.418  11.670  14.705
24082SOL    HW174143   4.471  11.717  14.770
24082SOL    HW274144   4.464  11.586  14.694
24083SOL     OW74145   7.831  10.908   5.745
24083SOL    HW174146   7.760  10.844   5.733
24083SOL    HW274147   7.907  10.866   5.706
24084SOL     OW74148   5.463  10.944  10.082
24084SOL    HW174149   5.449  10.911   9.994
24084SOL    HW274150   5.545  10.903  10.111
24085SOL     OW74151  10.878   3.701  10.229
24085SOL    HW174152  10.788   3.726  10.208
24085SOL    HW274153  10.898   3.629  10.169
24086SOL     OW74154  10.946   8.032  14.158
24086SOL    HW174155  10.983   8.114  14.125
24086SOL    HW274156  10.860   8.026  14.117
24087SOL     OW74157  13.384   5.758   5.671
24087SOL    HW174158  13.298   5.731   5.637
24087SOL    HW274159  13.378   5.742   5.765
24088SOL     OW74160  11.458   8.016   4.161
24088SOL    HW174161  11.393   7.960   4.204
24088SOL    HW274162  11.418   8.038   4.077
24089SOL     OW74163   6.912  13.825  14.018
24089SOL    HW174164   6.818  13.832  14.034
24089SOL    HW274165   6.921  13.834  13.923
24090SOL     OW74166  11.390  10.879  14.003
24090SOL    HW174167  11.400  10.960  14.053
24090SOL    HW274168  11.410  10.904  13.913
24091SOL     OW74169   7.142   5.443   7.598
24091SOL    HW174170   7.159   5.350   7.609
24091SOL    HW274171   7.174   5.484   7.679
24092SOL     OW74172  13.941   9.749   9.325
24092SOL    HW174173  13.937   9.726   9.233
24092SOL    HW274174  13.853   9.733   9.358
24093SOL     OW74175   5.121   7.876  14.276
24093SOL    HW174176   5.095   7.851  14.187
24093SOL    HW274177   5.041   7.865  14.328
24094SOL     OW74178  11.444   4.600   2.565
24094SOL    HW174179  11.458   4.688   2.529
24094SOL    HW274180  11.370   4.565   2.516
24095SOL     OW74181  11.184  10.535   5.120
24095SOL    HW174182  11.161  10.451   5.080
24095SOL    HW274183  11.244  10.512   5.191
24096SOL     OW74184  13.858  10.502   8.877
24096SOL    HW174185  13.912  10.510   8.955
24096SOL    HW274186  13.885  10.418   8.838
24097SOL     OW74187   4.116   7.365   9.406
24097SOL    HW174188   4.188   7.383   9.466
24097SOL    HW274189   4.039   7.360   9.461
24098SOL     OW74190   1.646   0.273   3.316
24098SOL    HW174191   1.555   0.262   3.289
24098SOL    HW274192   1.644   0.346   3.379
24099SOL     OW74193   1.557   6.194  10.995
24099SOL    HW174194   1.536   6.287  10.990
24099SOL    HW274195   1.653   6.190  10.990
24100SOL     OW74196  13.395   0.796   3.147
24100SOL    HW174197  13.470   0.836   3.191
24100SOL    HW274198  13.423   0.785   3.056
24101SOL     OW74199   7.309   4.870   2.855
24101SOL    HW174200   7.225   4.825   2.852
24101SOL    HW274201   7.361   4.819   2.918
24102SOL     OW74202   1.565   3.828   5.630
24102SOL    HW174203   1.643   3.880   5.612
24102SOL    HW274204   1.523   3.873   5.704
24103SOL     OW74205   4.910   7.300  13.269
24103SOL    HW174206   4.836   7.315  13.328
24103SOL    HW274207   4.900   7.365  13.199
24104SOL     OW74208  11.363   7.885   7.417
24104SOL    HW174209  11.281   7.909   7.458
24104SOL    HW274210  11.382   7.957   7.356
24105SOL     OW74211   5.949   6.987   6.947
24105SOL    HW174212   5.913   7.029   7.025
24105SOL    HW274213   5.872   6.952   6.901
24106SOL     OW74214   8.788   6.494  10.055
24106SOL    HW174215   8.701   6.502  10.094
24106SOL    HW274216   8.773   6.499   9.961
24107SOL     OW74217   3.654   1.295  11.581
24107SOL    HW174218   3.657   1.388  11.558
24107SOL    HW274219   3.626   1.293  11.672
24108SOL     OW74220  13.174   6.035  13.217
24108SOL    HW174221  13.251   6.079  13.253
24108SOL    HW274222  13.156   6.080  13.135
24109SOL     OW74223   7.088   0.539   2.361
24109SOL    HW174224   7.098   0.452   2.323
24109SOL    HW274225   7.178   0.570   2.373
24110SOL     OW74226   3.926   7.579  10.111
24110SOL    HW174227   3.902   7.487  10.099
24110SOL    HW274228   3.983   7.600  10.037
24111SOL     OW74229   9.268  13.970  14.054
24111SOL    HW174230   9.282  13.904  13.986
24111SOL    HW274231   9.286  13.924  14.136
24112SOL     OW74232  14.176  14.424   2.237
24112SOL    HW174233  14.158  14.394   2.326
24112SOL    HW274234  14.193  14.518   2.246
24113SOL     OW74235   5.308   8.343  11.523
24113SOL    HW174236   5.303   8.334  11.618
24113SOL    HW274237   5.368   8.416  11.509
24114SOL     OW74238  14.659   9.676   8.150
24114SOL    HW174239  14.591   9.731   8.188
24114SOL    HW274240  14.737   9.695   8.202
24115SOL     OW74241   7.730   3.822  10.570
24115SOL    HW174242   7.735   3.742  10.623
24115SOL    HW274243   7.648   3.863  10.596
24116SOL     OW74244  13.485  10.379   9.766
24116SOL    HW174245  13.580  10.375   9.775
24116SOL    HW274246  13.459  10.458   9.815
24117SOL     OW74247  12.142  11.989   0.560
24117SOL    HW174248  12.060  11.941   0.571
24117SOL    HW274249  12.153  12.038   0.641
24118SOL     OW74250  14.670  13.530   6.409
24118SOL    HW174251  14.623  13.561   6.487
24118SOL    HW274252  14.633  13.580   6.337
24119SOL     OW74253   0.383  14.128  13.177
24119SOL    HW174254   0.334  14.078  13.242
24119SOL    HW274255   0.324  14.135  13.103
24120SOL     OW74256   6.421   7.767  11.104
24120SOL    HW174257   6.495   7.722  11.062
24120SOL    HW274258   6.461   7.827  11.166
24121SOL     OW74259   6.219   9.958   6.804
24121SOL    HW174260   6.295   9.921   6.760
24121SOL    HW274261   6.146   9.902   6.779
24122SOL     OW74262   5.891   7.927   4.648
24122SOL    HW174263   5.817   7.977   4.613
24122SOL    HW274264   5.856   7.838   4.658
24123SOL     OW74265  11.765   4.966   7.090
24123SOL    HW174266  11.677   4.952   7.056
24123SOL    HW274267  11.823   4.945   7.017
24124SOL     OW74268  13.373   0.051  14.662
24124SOL    HW174269  13.361   0.143  14.685
24124SOL    HW274270  13.286   0.021  14.635
24125SOL     OW74271   2.698   3.884  10.996
24125SOL    HW174272   2.746   3.892  11.079
24125SOL    HW274273   2.665   3.794  10.996
24126SOL     OW74274  14.056  14.566  12.485
24126SOL    HW174275  13.974  14.617  12.487
24126SOL    HW274276  14.034  14.484  12.530
24127SOL     OW74277  11.719  11.122   1.097
24127SOL    HW174278  11.814  11.109   1.103
24127SOL    HW274279  11.685  11.088   1.180
24128SOL     OW74280   9.440  13.577  10.439
24128SOL    HW174281   9.378  13.634  10.483
24128SOL    HW274282   9.499  13.546  10.508
24129SOL     OW74283   7.359   1.619   9.775
24129SOL    HW174284   7.392   1.543   9.726
24129SOL    HW274285   7.424   1.687   9.761
24130SOL     OW74286  10.440  14.415   7.326
24130SOL    HW174287  10.356  14.383   7.361
24130SOL    HW274288  10.492  14.437   7.404
24131SOL     OW74289   2.087   5.030   1.355
24131SOL    HW174290   2.166   5.007   1.306
24131SOL    HW274291   2.092   4.976   1.434
24132SOL     OW74292   4.209   7.556  13.202
24132SOL    HW174293   4.279   7.583  13.142
24132SOL    HW274294   4.133   7.608  13.175
24133SOL     OW74295   2.596   4.065  10.770
24133SOL    HW174296   2.657   4.019  10.827
24133SOL    HW274297   2.616   4.032  10.682
24134SOL     OW74298   6.694   3.238   8.587
24134SOL    HW174299   6.602   3.250   8.563
24134SOL    HW274300   6.743   3.269   8.510
24135SOL     OW74301  14.602  11.952  13.034
24135SOL    HW174302  14.529  11.980  13.091
24135SOL    HW274303  14.559  11.928  12.952
24136SOL     OW74304   0.104   3.810   6.325
24136SOL    HW174305   0.072   3.735   6.274
24136SOL    HW274306   0.103   3.780   6.415
24137SOL     OW74307   5.224   8.311   1.568
24137SOL    HW174308   5.307   8.347   1.598
24137SOL    HW274309   5.248   8.236   1.514
24138SOL     OW74310  11.579  13.688   3.304
24138SOL    HW174311  11.637  13.760   3.329
24138SOL    HW274312  11.545  13.713   3.218
24139SOL     OW74313   8.069   0.757  13.897
24139SOL    HW174314   8.086   0.785  13.807
24139SOL    HW274315   8.073   0.839  13.948
24140SOL     OW74316   2.635  12.056   3.803
24140SOL    HW174317   2.554  12.067   3.754
24140SOL    HW274318   2.653  12.143   3.839
24141SOL     OW74319   6.057  12.379  12.930
24141SOL    HW174320   6.046  12.413  12.841
24141SOL    HW274321   5.995  12.430  12.983
24142SOL     OW74322  10.903   4.879  12.773
24142SOL    HW174323  10.968   4.835  12.827
24142SOL    HW274324  10.909   4.971  12.798
24143SOL     OW74325   9.928   4.203  12.394
24143SOL    HW174326   9.881   4.258  12.331
24143SOL    HW274327  10.012   4.248  12.407
24144SOL     OW74328   3.728  10.482   7.493
24144SOL    HW174329   3.689  10.487   7.580
24144SOL    HW274330   3.708  10.566   7.453
24145SOL     OW74331   5.484  10.585   5.867
24145SOL    HW174332   5.453  10.516   5.925
24145SOL    HW274333   5.563  10.549   5.827
24146SOL     OW74334  10.914  12.163  11.926
24146SOL    HW174335  10.840  12.223  11.920
24146SOL    HW274336  10.903  12.104  11.852
24147SOL     OW74337   5.934   0.705   5.331
24147SOL    HW174338   5.953   0.726   5.239
24147SOL    HW274339   5.987   0.628   5.350
24148SOL     OW74340   6.981  13.005  10.459
24148SOL    HW174341   7.021  13.071  10.403
24148SOL    HW274342   6.898  13.044  10.488
24149SOL     OW74343   9.883   0.626  12.755
24149SOL    HW174344   9.820   0.697  12.757
24149SOL    HW274345   9.933   0.635  12.836
24150SOL     OW74346  12.343   5.904   0.226
24150SOL    HW174347  12.300   5.899   0.141
24150SOL    HW274348  12.429   5.943   0.208
24151SOL     OW74349   8.019   8.281   6.007
24151SOL    HW174350   8.031   8.243   6.093
24151SOL    HW274351   7.994   8.207   5.951
24152SOL     OW74352   6.999  13.139  12.734
24152SOL    HW174353   6.915  13.108  12.765
24152SOL    HW274354   7.023  13.078  12.664
24153SOL     OW74355   0.835   2.098   8.422
24153SOL    HW174356   0.837   2.116   8.517
24153SOL    HW274357   0.836   2.185   8.382
24154SOL     OW74358   4.805   5.632   7.697
24154SOL    HW174359   4.740   5.684   7.744
24154SOL    HW274360   4.870   5.609   7.763
24155SOL     OW74361  12.084   9.791   4.624
24155SOL    HW174362  12.059   9.792   4.717
24155SOL    HW274363  12.053   9.707   4.592
24156SOL     OW74364   0.888  10.942  13.252
24156SOL    HW174365   0.908  10.864  13.304
24156SOL    HW274366   0.794  10.956  13.265
24157SOL     OW74367   2.131   6.767  10.604
24157SOL    HW174368   2.102   6.677  10.590
24157SOL    HW274369   2.198   6.761  10.672
24158SOL     OW74370  13.973   6.214  11.878
24158SOL    HW174371  13.948   6.165  11.800
24158SOL    HW274372  13.890   6.238  11.919
24159SOL     OW74373  10.319  13.262   3.318
24159SOL    HW174374  10.336  13.171   3.339
24159SOL    HW274375  10.406  13.300   3.305
24160SOL     OW74376   8.718   8.887  13.305
24160SOL    HW174377   8.700   8.980  13.294
24160SOL    HW274378   8.632   8.846  13.308
24161SOL     OW74379   7.775   0.967   3.952
24161SOL    HW174380   7.804   0.883   3.918
24161SOL    HW274381   7.744   1.015   3.875
24162SOL     OW74382   1.265  10.653   2.373
24162SOL    HW174383   1.258  10.609   2.457
24162SOL    HW274384   1.183  10.700   2.364
24163SOL     OW74385   5.841  13.644   9.212
24163SOL    HW174386   5.807  13.563   9.174
24163SOL    HW274387   5.931  13.624   9.236
24164SOL     OW74388   6.611   4.486   6.897
24164SOL    HW174389   6.564   4.418   6.849
24164SOL    HW274390   6.596   4.566   6.846
24165SOL     OW74391   5.659   9.909   9.766
24165SOL    HW174392   5.703   9.985   9.803
24165SOL    HW274393   5.723   9.838   9.772
24166SOL     OW74394   1.203   8.345  12.873
24166SOL    HW174395   1.227   8.319  12.784
24166SOL    HW274396   1.283   8.330  12.924
24167SOL     OW74397   6.756   9.052   8.355
24167SOL    HW174398   6.712   9.043   8.270
24167SOL    HW274399   6.849   9.039   8.335
24168SOL     OW74400   1.934  11.237  10.749
24168SOL    HW174401   2.025  11.227  10.720
24168SOL    HW274402   1.932  11.324  10.790
24169SOL     OW74403   3.700  13.331  13.265
24169SOL    HW174404   3.618  13.299  13.226
24169SOL    HW274405   3.699  13.425  13.248
24170SOL     OW74406  10.720  14.440  12.789
24170SOL    HW174407  10.627  14.419  12.787
24170SOL    HW274408  10.764  14.356  12.803
24171SOL     OW74409   4.823   4.960   8.875
24171SOL    HW174410   4.899   4.907   8.896
24171SOL    HW274411   4.823   5.030   8.941
24172SOL     OW74412   0.695   6.416   9.857
24172SOL    HW174413   0.653   6.493   9.820
24172SOL    HW274414   0.789   6.436   9.854
24173SOL     OW74415   3.314   3.964   3.317
24173SOL    HW174416   3.359   3.916   3.387
24173SOL    HW274417   3.238   3.910   3.297
24174SOL     OW74418   4.659   5.273  13.417
24174SOL    HW174419   4.609   5.230  13.348
24174SOL    HW274420   4.750   5.244  13.402
24175SOL     OW74421  10.351   3.323   3.498
24175SOL    HW174422  10.348   3.232   3.527
24175SOL    HW274423  10.444   3.346   3.497
24176SOL     OW74424   6.024  12.640  10.905
24176SOL    HW174425   6.050  12.627  10.814
24176SOL    HW274426   6.002  12.552  10.936
24177SOL     OW74427   1.245   1.117   9.084
24177SOL    HW174428   1.279   1.205   9.068
24177SOL    HW274429   1.303   1.059   9.034
24178SOL     OW74430   9.974   6.754   8.030
24178SOL    HW174431  10.062   6.724   8.006
24178SOL    HW274432   9.982   6.781   8.121
24179SOL     OW74433  13.366   4.395  12.442
24179SOL    HW174434  13.365   4.490  12.453
24179SOL    HW274435  13.315   4.380  12.362
24180SOL     OW74436   8.707  12.676   8.719
24180SOL    HW174437   8.757  12.612   8.668
24180SOL    HW274438   8.713  12.644   8.809
24181SOL     OW74439  12.830  12.087  11.940
24181SOL    HW174440  12.885  12.016  11.905
24181SOL    HW274441  12.821  12.067  12.033
24182SOL     OW74442  14.707  11.045   5.476
24182SOL    HW174443  14.618  11.011   5.479
24182SOL    HW274444  14.747  11.016   5.558
24183SOL     OW74445  11.318   5.773   3.195
24183SOL    HW174446  11.365   5.801   3.273
24183SOL    HW274447  11.293   5.682   3.212
24184SOL     OW74448  10.578  13.166   3.590
24184SOL    HW174449  10.655  13.206   3.548
24184SOL    HW274450  10.547  13.101   3.528
24185SOL     OW74451   2.950   3.407   8.989
24185SOL    HW174452   3.044   3.420   8.998
24185SOL    HW274453   2.916   3.493   8.963
24186SOL     OW74454   7.180   7.138   4.176
24186SOL    HW174455   7.261   7.095   4.206
24186SOL    HW274456   7.170   7.110   4.085
24187SOL     OW74457   2.530   5.561   5.042
24187SOL    HW174458   2.574   5.519   5.116
24187SOL    HW274459   2.561   5.651   5.043
24188SOL     OW74460   5.424   4.090   5.012
24188SOL    HW174461   5.513   4.118   4.992
24188SOL    HW274462   5.432   4.035   5.089
24189SOL     OW74463   9.507   3.855  14.077
24189SOL    HW174464   9.548   3.940  14.094
24189SOL    HW274465   9.490   3.855  13.983
24190SOL     OW74466   8.227   1.881  10.452
24190SOL    HW174467   8.292   1.915  10.513
24190SOL    HW274468   8.146   1.927  10.474
24191SOL     OW74469   0.450   1.875   7.127
24191SOL    HW174470   0.541   1.900   7.142
24191SOL    HW274471   0.398   1.943   7.171
24192SOL     OW74472  10.536   2.212   9.521
24192SOL    HW174473  10.625   2.182   9.500
24192SOL    HW274474  10.531   2.300   9.484
24193SOL     OW74475  12.804   5.314  14.517
24193SOL    HW174476  12.848   5.345  14.438
24193SOL    HW274477  12.859   5.346  14.589
24194SOL     OW74478   1.493   4.622   4.675
24194SOL    HW174479   1.584   4.647   4.690
24194SOL    HW274480   1.490   4.529   4.697
24195SOL     OW74481   2.655   2.872  14.124
24195SOL    HW174482   2.595   2.930  14.077
24195SOL    HW274483   2.717   2.931  14.167
24196SOL     OW74484   6.019  14.611  14.665
24196SOL    HW174485   6.019  14.566  14.580
24196SOL    HW274486   5.959  14.685  14.652
24197SOL     OW74487   6.016   2.839   5.121
24197SOL    HW174488   5.944   2.902   5.118
24197SOL    HW274489   6.095   2.893   5.133
24198SOL     OW74490  10.877   6.136   9.961
24198SOL    HW174491  10.787   6.157   9.983
24198SOL    HW274492  10.880   6.041   9.955
24199SOL     OW74493   3.859   7.182   6.978
24199SOL    HW174494   3.918   7.149   7.046
24199SOL    HW274495   3.784   7.216   7.027
24200SOL     OW74496  14.199  10.903  12.847
24200SOL    HW174497  14.115  10.878  12.885
24200SOL    HW274498  14.180  10.916  12.754
24201SOL     OW74499   8.603   6.149  11.856
24201SOL    HW174500   8.654   6.069  11.840
24201SOL    HW274501   8.513   6.124  11.836
24202SOL     OW74502  10.189  10.648   3.640
24202SOL    HW174503  10.221  10.586   3.575
24202SOL    HW274504  10.095  10.634   3.643
24203SOL     OW74505   1.807  12.434  12.857
24203SOL    HW174506   1.834  12.495  12.788
24203SOL    HW274507   1.715  12.416  12.838
24204SOL     OW74508   9.717  10.700  14.209
24204SOL    HW174509   9.671  10.684  14.291
24204SOL    HW274510   9.648  10.709  14.144
24205SOL     OW74511   2.680   4.094  12.697
24205SOL    HW174512   2.770   4.068  12.719
24205SOL    HW274513   2.633   4.012  12.686
24206SOL     OW74514  11.945   0.215  11.964
24206SOL    HW174515  11.920   0.305  11.988
24206SOL    HW274516  11.960   0.219  11.870
24207SOL     OW74517  11.158  12.236   8.169
24207SOL    HW174518  11.068  12.204   8.173
24207SOL    HW274519  11.203  12.188   8.238
24208SOL     OW74520   9.753   3.775   3.759
24208SOL    HW174521   9.803   3.834   3.702
24208SOL    HW274522   9.703   3.720   3.698
24209SOL     OW74523   0.419   8.330   8.295
24209SOL    HW174524   0.504   8.288   8.283
24209SOL    HW274525   0.439   8.416   8.330
24210SOL     OW74526   7.049   9.707   2.004
24210SOL    HW174527   7.020   9.616   2.013
24210SOL    HW274528   6.983   9.757   2.051
24211SOL     OW74529   9.374  11.414   9.055
24211SOL    HW174530   9.449  11.456   9.014
24211SOL    HW274531   9.412  11.341   9.105
24212SOL     OW74532  10.428  12.747  11.101
24212SOL    HW174533  10.333  12.739  11.105
24212SOL    HW274534  10.444  12.812  11.033
24213SOL     OW74535   2.681  11.065   8.451
24213SOL    HW174536   2.670  11.040   8.359
24213SOL    HW274537   2.602  11.033   8.494
24214SOL     OW74538   5.038   6.893   5.790
24214SOL    HW174539   5.111   6.922   5.735
24214SOL    HW274540   4.960   6.915   5.738
24215SOL     OW74541   9.089   2.715   8.974
24215SOL    HW174542   9.133   2.742   9.055
24215SOL    HW274543   9.159   2.713   8.908
24216SOL     OW74544  14.209   1.072   8.531
24216SOL    HW174545  14.152   1.105   8.600
24216SOL    HW274546  14.175   0.984   8.512
24217SOL     OW74547   9.540   9.725   5.527
24217SOL    HW174548   9.600   9.772   5.583
24217SOL    HW274549   9.468   9.787   5.511
24218SOL     OW74550  11.278   8.562  10.854
24218SOL    HW174551  11.283   8.494  10.786
24218SOL    HW274552  11.337   8.631  10.823
24219SOL     OW74553   4.798  12.668   9.459
24219SOL    HW174554   4.752  12.587   9.477
24219SOL    HW274555   4.830  12.698   9.544
24220SOL     OW74556   7.267   5.415   3.574
24220SOL    HW174557   7.179   5.422   3.537
24220SOL    HW274558   7.313   5.356   3.514
24221SOL     OW74559  14.667  10.135   2.980
24221SOL    HW174560  14.682  10.172   3.067
24221SOL    HW274561  14.752  10.101   2.953
24222SOL     OW74562   4.052   6.688  13.839
24222SOL    HW174563   4.049   6.592  13.830
24222SOL    HW274564   4.036   6.720  13.750
24223SOL     OW74565   4.162   1.570   6.524
24223SOL    HW174566   4.138   1.610   6.441
24223SOL    HW274567   4.226   1.630   6.562
24224SOL     OW74568   5.633   8.540  13.781
24224SOL    HW174569   5.722   8.573  13.788
24224SOL    HW274570   5.583   8.613  13.746
24225SOL     OW74571   9.009   6.436   0.915
24225SOL    HW174572   9.019   6.527   0.941
24225SOL    HW274573   9.075   6.388   0.965
24226SOL     OW74574   4.133   3.177   2.216
24226SOL    HW174575   4.179   3.229   2.149
24226SOL    HW274576   4.202   3.126   2.258
24227SOL     OW74577  10.918  13.302   6.660
24227SOL    HW174578  10.896  13.338   6.574
24227SOL    HW274579  10.834  13.294   6.705
24228SOL     OW74580   0.258  12.670   3.599
24228SOL    HW174581   0.311  12.718   3.535
24228SOL    HW274582   0.175  12.717   3.602
24229SOL     OW74583  12.271   4.139  10.658
24229SOL    HW174584  12.176   4.147  10.663
24229SOL    HW274585  12.295   4.190  10.580
24230SOL     OW74586   2.132   8.783   7.382
24230SOL    HW174587   2.086   8.773   7.466
24230SOL    HW274588   2.085   8.853   7.337
24231SOL     OW74589  10.362   6.527   4.879
24231SOL    HW174590  10.285   6.479   4.851
24231SOL    HW274591  10.436   6.469   4.858
24232SOL     OW74592   7.072  11.930   6.712
24232SOL    HW174593   7.075  11.941   6.807
24232SOL    HW274594   7.146  11.872   6.693
24233SOL     OW74595   6.877   2.004   3.086
24233SOL    HW174596   6.880   1.975   3.177
24233SOL    HW274597   6.819   2.081   3.087
24234SOL     OW74598   7.833   4.526  12.822
24234SOL    HW174599   7.882   4.581  12.882
24234SOL    HW274600   7.794   4.458  12.877
24235SOL     OW74601  13.090   4.959   1.866
24235SOL    HW174602  13.115   5.029   1.927
24235SOL    HW274603  13.007   4.926   1.901
24236SOL     OW74604   5.477   9.998   1.049
24236SOL    HW174605   5.512  10.047   1.123
24236SOL    HW274606   5.519   9.913   1.053
24237SOL     OW74607   2.958   4.876   7.236
24237SOL    HW174608   2.875   4.881   7.283
24237SOL    HW274609   2.979   4.967   7.213
24238SOL     OW74610   5.960   7.391   0.003
24238SOL    HW174611   6.034   7.357  14.821
24238SOL    HW274612   5.884   7.377  14.815
24239SOL     OW74613   7.341   1.132  13.690
24239SOL    HW174614   7.284   1.114  13.615
24239SOL    HW274615   7.287   1.183  13.749
24240SOL     OW74616   0.581  14.285   5.638
24240SOL    HW174617   0.494  14.318   5.656
24240SOL    HW274618   0.610  14.245   5.720
24241SOL     OW74619   6.607   1.411   1.117
24241SOL    HW174620   6.671   1.343   1.139
24241SOL    HW274621   6.559   1.375   1.042
24242SOL     OW74622  13.264   3.295  11.656
24242SOL    HW174623  13.194   3.319  11.716
24242SOL    HW274624  13.299   3.379  11.625
24243SOL     OW74625   5.016   0.842   4.435
24243SOL    HW174626   5.090   0.845   4.374
24243SOL    HW274627   4.954   0.782   4.394
24244SOL     OW74628   0.305  13.814  11.393
24244SOL    HW174629   0.309  13.793  11.486
24244SOL    HW274630   0.236  13.880  11.387
24245SOL     OW74631   6.933  13.252   2.233
24245SOL    HW174632   6.923  13.264   2.328
24245SOL    HW274633   6.846  13.224   2.203
24246SOL     OW74634   2.508  11.448  10.592
24246SOL    HW174635   2.514  11.375  10.654
24246SOL    HW274636   2.527  11.526  10.645
24247SOL     OW74637  11.548   4.633   3.856
24247SOL    HW174638  11.555   4.643   3.951
24247SOL    HW274639  11.473   4.577   3.843
24248SOL     OW74640   3.980   8.786   8.364
24248SOL    HW174641   3.985   8.848   8.437
24248SOL    HW274642   3.953   8.703   8.405
24249SOL     OW74643  12.060  11.549   8.962
24249SOL    HW174644  11.995  11.515   8.900
24249SOL    HW274645  12.015  11.551   9.046
24250SOL     OW74646  11.464  10.947  14.336
24250SOL    HW174647  11.442  10.983  14.251
24250SOL    HW274648  11.544  10.993  14.362
24251SOL     OW74649  12.667  10.661  14.367
24251SOL    HW174650  12.687  10.662  14.273
24251SOL    HW274651  12.744  10.620  14.407
24252SOL     OW74652   6.930   8.854  11.421
24252SOL    HW174653   6.980   8.930  11.450
24252SOL    HW274654   6.945   8.850  11.326
24253SOL     OW74655   0.480  14.478   0.128
24253SOL    HW174656   0.564  14.517   0.149
24253SOL    HW274657   0.495  14.429   0.047
24254SOL     OW74658   3.134  14.336   1.307
24254SOL    HW174659   3.139  14.242   1.288
24254SOL    HW274660   3.142  14.378   1.221
24255SOL     OW74661   4.876   8.464   2.636
24255SOL    HW174662   4.935   8.392   2.613
24255SOL    HW274663   4.932   8.541   2.640
24256SOL     OW74664   5.411   1.835  12.622
24256SOL    HW174665   5.486   1.815  12.679
24256SOL    HW274666   5.405   1.930  12.623
24257SOL     OW74667   3.418   4.612  10.156
24257SOL    HW174668   3.367   4.692  10.167
24257SOL    HW274669   3.425   4.600  10.061
24258SOL     OW74670   9.651  10.753   5.979
24258SOL    HW174671   9.602  10.713   5.907
24258SOL    HW274672   9.743  10.741   5.956
24259SOL     OW74673   6.711   8.335   2.246
24259SOL    HW174674   6.797   8.346   2.286
24259SOL    HW274675   6.729   8.292   2.163
24260SOL     OW74676   0.331   0.374   6.999
24260SOL    HW174677   0.255   0.364   6.941
24260SOL    HW274678   0.293   0.391   7.085
24261SOL     OW74679   8.328   8.424   3.577
24261SOL    HW174680   8.408   8.374   3.558
24261SOL    HW274681   8.283   8.430   3.493
24262SOL     OW74682   8.655  11.221   2.041
24262SOL    HW174683   8.649  11.183   2.129
24262SOL    HW274684   8.738  11.267   2.040
24263SOL     OW74685   5.940   9.096  10.825
24263SOL    HW174686   6.008   9.065  10.765
24263SOL    HW274687   5.858   9.074  10.783
24264SOL     OW74688   9.842  12.715  11.804
24264SOL    HW174689   9.810  12.801  11.778
24264SOL    HW274690   9.783  12.687  11.874
24265SOL     OW74691   4.063   0.460   4.805
24265SOL    HW174692   3.989   0.405   4.780
24265SOL    HW274693   4.132   0.399   4.829
24266SOL     OW74694   0.748  11.145  12.316
24266SOL    HW174695   0.766  11.237  12.336
24266SOL    HW274696   0.832  11.101  12.326
24267SOL     OW74697  10.448   8.351   8.728
24267SOL    HW174698  10.420   8.296   8.802
24267SOL    HW274699  10.377   8.415   8.718
24268SOL     OW74700   0.171   9.672  12.776
24268SOL    HW174701   0.154   9.585  12.812
24268SOL    HW274702   0.185   9.657  12.682
24269SOL     OW74703   9.166   1.656   0.196
24269SOL    HW174704   9.155   1.700   0.112
24269SOL    HW274705   9.082   1.613   0.212
24270SOL     OW74706  14.421   2.794   0.486
24270SOL    HW174707  14.444   2.812   0.577
24270SOL    HW274708  14.364   2.718   0.490
24271SOL     OW74709   5.210   7.323   4.395
24271SOL    HW174710   5.258   7.373   4.461
24271SOL    HW274711   5.159   7.259   4.444
24272SOL     OW74712   0.345   4.042   1.499
24272SOL    HW174713   0.314   4.080   1.582
24272SOL    HW274714   0.342   4.115   1.437
24273SOL     OW74715   0.399  14.064  11.218
24273SOL    HW174716   0.341  14.110  11.157
24273SOL    HW274717   0.381  14.103  11.303
24274SOL     OW74718   9.651  10.495  12.062
24274SOL    HW174719   9.736  10.527  12.092
24274SOL    HW274720   9.664  10.475  11.970
24275SOL     OW74721   8.238  13.198   3.548
24275SOL    HW174722   8.251  13.180   3.455
24275SOL    HW274723   8.315  13.248   3.574
24276SOL     OW74724   1.674   9.488   6.538
24276SOL    HW174725   1.625   9.442   6.469
24276SOL    HW274726   1.761   9.501   6.501
24277SOL     OW74727   1.033  13.984   3.636
24277SOL    HW174728   1.103  13.991   3.572
24277SOL    HW274729   1.067  14.027   3.715
24278SOL     OW74730  14.580   6.362  14.167
24278SOL    HW174731  14.639   6.299  14.208
24278SOL    HW274732  14.558   6.323  14.082
24279SOL     OW74733   1.162   2.677   4.071
24279SOL    HW174734   1.212   2.729   4.008
24279SOL    HW274735   1.123   2.742   4.130
24280SOL     OW74736   3.985  10.286   8.727
24280SOL    HW174737   4.077  10.264   8.709
24280SOL    HW274738   3.935  10.231   8.667
24281SOL     OW74739   8.320   5.468  10.390
24281SOL    HW174740   8.323   5.387  10.339
24281SOL    HW274741   8.365   5.532  10.335
24282SOL     OW74742  10.561  11.945   6.207
24282SOL    HW174743  10.578  11.867   6.154
24282SOL    HW274744  10.645  11.992   6.207
24283SOL     OW74745   0.954   9.047  11.003
24283SOL    HW174746   0.905   8.973  11.039
24283SOL    HW274747   0.954   9.113  11.072
24284SOL     OW74748  14.127   8.655  10.971
24284SOL    HW174749  14.065   8.727  10.962
24284SOL    HW274750  14.114   8.622  11.059
24285SOL     OW74751  11.081   3.037   9.951
24285SOL    HW174752  11.157   3.025   9.893
24285SOL    HW274753  11.027   3.102   9.906
24286SOL     OW74754   0.806  14.693  14.132
24286SOL    HW174755   0.788  14.602  14.109
24286SOL    HW274756   0.720  14.734  14.139
24287SOL     OW74757   1.803  14.292   4.175
24287SOL    HW174758   1.725  14.274   4.122
24287SOL    HW274759   1.838  14.206   4.198
24288SOL     OW74760  13.873  12.026   9.357
24288SOL    HW174761  13.862  12.121   9.354
24288SOL    HW274762  13.865  12.004   9.450
24289SOL     OW74763   4.607  14.674  12.887
24289SOL    HW174764   4.667  14.688  12.960
24289SOL    HW274765   4.623  14.748  12.828
24290SOL     OW74766  10.924   5.143   3.309
24290SOL    HW174767  10.920   5.094   3.391
24290SOL    HW274768  10.845   5.117   3.262
24291SOL     OW74769   2.354   0.021  14.808
24291SOL    HW174770   2.268  14.862  14.775
24291SOL    HW274771   2.335   0.094  14.867
24292SOL     OW74772  11.942   8.491  11.546
24292SOL    HW174773  12.034   8.490  11.574
24292SOL    HW274774  11.896   8.533  11.619
24293SOL     OW74775   5.084   9.881  11.443
24293SOL    HW174776   5.037   9.820  11.387
24293SOL    HW274777   5.045   9.966  11.423
24294SOL     OW74778   5.799  11.072   8.675
24294SOL    HW174779   5.883  11.109   8.701
24294SOL    HW274780   5.804  11.067   8.580
24295SOL     OW74781   0.026  12.578  11.894
24295SOL    HW174782  14.799  12.589  11.894
24295SOL    HW274783   0.059  12.651  11.946
24296SOL     OW74784   3.800   1.022   9.290
24296SOL    HW174785   3.863   0.959   9.253
24296SOL    HW274786   3.842   1.054   9.369
24297SOL     OW74787   1.928   9.213   4.955
24297SOL    HW174788   1.857   9.271   4.979
24297SOL    HW274789   1.939   9.226   4.861
24298SOL     OW74790   0.378  10.638   6.160
24298SOL    HW174791   0.463  10.595   6.153
24298SOL    HW274792   0.386  10.716   6.105
24299SOL     OW74793   2.753   7.954  13.351
24299SOL    HW174794   2.686   7.940  13.284
24299SOL    HW274795   2.777   7.866  13.380
24300SOL     OW74796   2.037   0.105  14.038
24300SOL    HW174797   2.069   0.172  14.098
24300SOL    HW274798   1.942   0.115  14.039
24301SOL     OW74799   4.072   1.459  14.744
24301SOL    HW174800   4.068   1.380  14.689
24301SOL    HW274801   4.009   1.519  14.703
24302SOL     OW74802   0.606   1.559  12.562
24302SOL    HW174803   0.531   1.502  12.581
24302SOL    HW274804   0.668   1.541  12.633
24303SOL     OW74805  14.151   2.087  14.419
24303SOL    HW174806  14.087   2.127  14.478
24303SOL    HW274807  14.235   2.121  14.448
24304SOL     OW74808   5.190  14.219   7.774
24304SOL    HW174809   5.248  14.160   7.726
24304SOL    HW274810   5.239  14.239   7.854
24305SOL     OW74811   9.841  14.403   4.373
24305SOL    HW174812   9.803  14.345   4.308
24305SOL    HW274813   9.930  14.419   4.342
24306SOL     OW74814   7.513   5.492   2.693
24306SOL    HW174815   7.606   5.472   2.704
24306SOL    HW274816   7.482   5.509   2.782
24307SOL     OW74817  10.447   2.249  10.101
24307SOL    HW174818  10.521   2.300  10.067
24307SOL    HW274819  10.435   2.280  10.190
24308SOL     OW74820   9.779   8.009   8.212
24308SOL    HW174821   9.855   7.967   8.253
24308SOL    HW274822   9.799   8.103   8.214
24309SOL     OW74823   0.245   9.363  10.406
24309SOL    HW174824   0.167   9.418  10.410
24309SOL    HW274825   0.313   9.420  10.370
24310SOL     OW74826   2.132  14.828   9.357
24310SOL    HW174827   2.132  14.742   9.315
24310SOL    HW274828   2.187   0.015   9.300
24311SOL     OW74829   0.298  10.246  11.696
24311SOL    HW174830   0.363  10.287  11.639
24311SOL    HW274831   0.349  10.209  11.768
24312SOL     OW74832   6.978  13.349   6.799
24312SOL    HW174833   6.957  13.360   6.891
24312SOL    HW274834   7.074  13.352   6.795
24313SOL     OW74835  13.277   8.470   8.946
24313SOL    HW174836  13.192   8.466   8.990
24313SOL    HW274837  13.333   8.411   8.997
24314SOL     OW74838   9.930   4.945   5.416
24314SOL    HW174839   9.874   5.018   5.389
24314SOL    HW274840   9.944   4.959   5.510
24315SOL     OW74841   8.949   9.259   6.437
24315SOL    HW174842   8.942   9.231   6.528
24315SOL    HW274843   8.860   9.254   6.403
24316SOL     OW74844   4.345   8.635   0.070
24316SOL    HW174845   4.307   8.703   0.013
24316SOL    HW274846   4.303   8.648   0.155
24317SOL     OW74847   9.238  13.799   3.639
24317SOL    HW174848   9.164  13.740   3.654
24317SOL    HW274849   9.286  13.798   3.721
24318SOL     OW74850   9.890  10.516   1.568
24318SOL    HW174851   9.899  10.587   1.631
24318SOL    HW274852   9.964  10.458   1.588
24319SOL     OW74853   4.729   3.998   1.891
24319SOL    HW174854   4.810   3.981   1.938
24319SOL    HW274855   4.706   4.088   1.914
24320SOL     OW74856   5.399  13.040   6.469
24320SOL    HW174857   5.410  12.945   6.476
24320SOL    HW274858   5.463  13.076   6.530
24321SOL     OW74859  12.994  11.865  11.043
24321SOL    HW174860  13.060  11.800  11.019
24321SOL    HW274861  13.040  11.927  11.098
24322SOL     OW74862   4.373   5.065   3.922
24322SOL    HW174863   4.397   5.141   3.975
24322SOL    HW274864   4.427   5.074   3.843
24323SOL     OW74865   6.087   8.015  10.132
24323SOL    HW174866   6.090   7.947  10.200
24323SOL    HW274867   6.141   8.086  10.166
24324SOL     OW74868   8.403  12.843   3.861
24324SOL    HW174869   8.321  12.860   3.815
24324SOL    HW274870   8.442  12.930   3.873
24325SOL     OW74871  11.277  13.030   7.081
24325SOL    HW174872  11.284  12.935   7.071
24325SOL    HW274873  11.316  13.048   7.167
24326SOL     OW74874   9.459  11.469   9.630
24326SOL    HW174875   9.497  11.437   9.549
24326SOL    HW274876   9.372  11.502   9.605
24327SOL     OW74877  10.237   3.014   2.237
24327SOL    HW174878  10.272   3.061   2.312
24327SOL    HW274879  10.143   3.010   2.253
24328SOL     OW74880   7.901  11.477   7.529
24328SOL    HW174881   7.995  11.488   7.512
24328SOL    HW274882   7.886  11.383   7.518
24329SOL     OW74883  14.473  13.121   6.794
24329SOL    HW174884  14.553  13.074   6.815
24329SOL    HW274885  14.466  13.190   6.860
24330SOL     OW74886   7.463   9.787  14.125
24330SOL    HW174887   7.368   9.774  14.134
24330SOL    HW274888   7.501   9.705  14.155
24331SOL     OW74889   5.738   9.445   3.958
24331SOL    HW174890   5.790   9.481   4.030
24331SOL    HW274891   5.741   9.512   3.890
24332SOL     OW74892   4.911   2.023   5.844
24332SOL    HW174893   4.884   1.959   5.778
24332SOL    HW274894   4.981   1.980   5.893
24333SOL     OW74895  14.836   5.620  10.999
24333SOL    HW174896  14.772   5.611  11.070
24333SOL    HW274897   0.037   5.558  11.022
24334SOL     OW74898  14.062  10.052   2.401
24334SOL    HW174899  14.009  10.013   2.470
24334SOL    HW274900  14.136  10.091   2.447
24335SOL     OW74901   9.894   2.086  12.031
24335SOL    HW174902   9.910   1.994  12.055
24335SOL    HW274903   9.945   2.099  11.950
24336SOL     OW74904   1.174   6.667   5.991
24336SOL    HW174905   1.119   6.604   5.946
24336SOL    HW274906   1.241   6.614   6.035
24337SOL     OW74907  12.633  10.013   7.486
24337SOL    HW174908  12.713  10.064   7.497
24337SOL    HW274909  12.663   9.926   7.463
24338SOL     OW74910   4.069   6.185   1.257
24338SOL    HW174911   3.980   6.197   1.291
24338SOL    HW274912   4.098   6.102   1.294
24339SOL     OW74913   9.855  10.766  10.637
24339SOL    HW174914   9.938  10.808  10.659
24339SOL    HW274915   9.868  10.674  10.659
24340SOL     OW74916   4.340   7.341   1.148
24340SOL    HW174917   4.288   7.261   1.143
24340SOL    HW274918   4.275   7.411   1.149
24341SOL     OW74919  13.844   5.893   4.047
24341SOL    HW174920  13.918   5.857   3.998
24341SOL    HW274921  13.774   5.901   3.982
24342SOL     OW74922   4.805   4.344  13.362
24342SOL    HW174923   4.794   4.375  13.272
24342SOL    HW274924   4.865   4.269  13.354
24343SOL     OW74925   4.667   4.142   4.783
24343SOL    HW174926   4.720   4.213   4.820
24343SOL    HW274927   4.577   4.172   4.793
24344SOL     OW74928   6.989  10.618  11.264
24344SOL    HW174929   7.042  10.540  11.277
24344SOL    HW274930   6.980  10.625  11.169
24345SOL     OW74931  13.679   4.067  11.763
24345SOL    HW174932  13.758   4.068  11.817
24345SOL    HW274933  13.616   4.014  11.813
24346SOL     OW74934   5.791  11.124   1.346
24346SOL    HW174935   5.762  11.035   1.327
24346SOL    HW274936   5.862  11.113   1.410
24347SOL     OW74937   5.303  13.267   3.910
24347SOL    HW174938   5.312  13.179   3.874
24347SOL    HW274939   5.339  13.324   3.843
24348SOL     OW74940   3.065   1.457  14.070
24348SOL    HW174941   3.131   1.471  14.138
24348SOL    HW274942   2.983   1.445  14.118
24349SOL     OW74943   8.069   1.244   2.948
24349SOL    HW174944   8.131   1.265   3.018
24349SOL    HW274945   8.119   1.257   2.867
24350SOL     OW74946  14.165   4.311   9.767
24350SOL    HW174947  14.218   4.375   9.815
24350SOL    HW274948  14.229   4.261   9.717
24351SOL     OW74949  12.199   3.151   3.593
24351SOL    HW174950  12.152   3.200   3.661
24351SOL    HW274951  12.233   3.219   3.535
24352SOL     OW74952   5.643  10.073   1.310
24352SOL    HW174953   5.639   9.990   1.359
24352SOL    HW274954   5.690  10.051   1.229
24353SOL     OW74955   9.063   6.411  13.012
24353SOL    HW174956   9.138   6.375  12.965
24353SOL    HW274957   8.987   6.368  12.970
24354SOL     OW74958   2.853  14.193  11.900
24354SOL    HW174959   2.822  14.193  11.809
24354SOL    HW274960   2.933  14.245  11.898
24355SOL     OW74961  10.597   8.656   6.927
24355SOL    HW174962  10.541   8.666   6.850
24355SOL    HW274963  10.682   8.628   6.891
24356SOL     OW74964   2.626  14.348  13.297
24356SOL    HW174965   2.581  14.427  13.326
24356SOL    HW274966   2.638  14.296  13.377
24357SOL     OW74967   1.658   1.678   4.653
24357SOL    HW174968   1.612   1.603   4.692
24357SOL    HW274969   1.597   1.711   4.586
24358SOL     OW74970   3.396  14.775   3.938
24358SOL    HW174971   3.359  14.732   4.015
24358SOL    HW274972   3.326  14.833   3.907
24359SOL     OW74973   1.050   5.955   7.369
24359SOL    HW174974   1.136   5.914   7.367
24359SOL    HW274975   1.058   6.026   7.433
24360SOL     OW74976   4.273   2.000   0.687
24360SOL    HW174977   4.238   2.039   0.767
24360SOL    HW274978   4.348   2.055   0.664
24361SOL     OW74979   3.036   8.208   8.930
24361SOL    HW174980   2.988   8.284   8.898
24361SOL    HW274981   3.050   8.153   8.852
24362SOL     OW74982   7.962   8.556   7.518
24362SOL    HW174983   7.989   8.484   7.461
24362SOL    HW274984   7.967   8.634   7.462
24363SOL     OW74985   5.560   9.075  14.174
24363SOL    HW174986   5.623   9.142  14.200
24363SOL    HW274987   5.587   9.050  14.086
24364SOL     OW74988   4.648   7.961   8.017
24364SOL    HW174989   4.569   8.013   8.003
24364SOL    HW274990   4.679   7.988   8.103
24365SOL     OW74991   6.869  11.207   5.084
24365SOL    HW174992   6.781  11.174   5.066
24365SOL    HW274993   6.866  11.299   5.056
24366SOL     OW74994  13.885   8.526   1.502
24366SOL    HW174995  13.919   8.439   1.481
24366SOL    HW274996  13.960   8.574   1.536
24367SOL     OW74997   5.318   6.401  13.152
24367SOL    HW174998   5.327   6.425  13.060
24367SOL    HW274999   5.331   6.307  13.155
24368SOL     OW75000  11.923  13.142  13.165
24368SOL    HW175001  11.893  13.214  13.110
24368SOL    HW275002  11.919  13.175  13.254
24369SOL     OW75003   2.976  11.857   7.319
24369SOL    HW175004   3.052  11.834   7.372
24369SOL    HW275005   2.912  11.892   7.382
24370SOL     OW75006   2.426   0.739  11.510
24370SOL    HW175007   2.512   0.726  11.549
24370SOL    HW275008   2.369   0.762  11.584
24371SOL     OW75009   8.715   5.033  12.495
24371SOL    HW175010   8.754   5.056  12.411
24371SOL    HW275011   8.721   4.938  12.499
24372SOL     OW75012   2.947   0.596   5.712
24372SOL    HW175013   2.999   0.605   5.792
24372SOL    HW275014   2.936   0.501   5.702
24373SOL     OW75015  10.213   1.855  12.839
24373SOL    HW175016  10.234   1.908  12.763
24373SOL    HW275017  10.123   1.826  12.824
24374SOL     OW75018   6.198   0.057   7.840
24374SOL    HW175019   6.143   0.005   7.899
24374SOL    HW275020   6.136   0.114   7.793
24375SOL     OW75021   3.060   2.633   7.638
24375SOL    HW175022   3.044   2.710   7.583
24375SOL    HW275023   2.988   2.634   7.701
24376SOL     OW75024   3.827   3.219  12.634
24376SOL    HW175025   3.902   3.237  12.691
24376SOL    HW275026   3.754   3.267  12.674
24377SOL     OW75027  14.246   4.373  14.256
24377SOL    HW175028  14.179   4.442  14.260
24377SOL    HW275029  14.215   4.307  14.317
24378SOL     OW75030   2.903  14.025   9.786
24378SOL    HW175031   2.823  14.069   9.817
24378SOL    HW275032   2.916  13.953   9.848
24379SOL     OW75033   1.785   4.368  10.408
24379SOL    HW175034   1.709   4.335  10.456
24379SOL    HW275035   1.831   4.423  10.471
24380SOL     OW75036  11.149   4.797   2.636
24380SOL    HW175037  11.136   4.776   2.729
24380SOL    HW275038  11.142   4.892   2.632
24381SOL     OW75039   9.478   6.277   2.602
24381SOL    HW175040   9.451   6.213   2.536
24381SOL    HW275041   9.547   6.328   2.560
24382SOL     OW75042   8.547   4.329   5.720
24382SOL    HW175043   8.543   4.422   5.740
24382SOL    HW275044   8.636   4.303   5.742
24383SOL     OW75045   8.426  12.494   1.710
24383SOL    HW175046   8.454  12.542   1.632
24383SOL    HW275047   8.407  12.562   1.775
24384SOL     OW75048   3.315   6.901   2.661
24384SOL    HW175049   3.385   6.843   2.632
24384SOL    HW275050   3.245   6.887   2.597
24385SOL     OW75051   2.279  11.639  12.696
24385SOL    HW175052   2.272  11.556  12.649
24385SOL    HW275053   2.191  11.676  12.693
24386SOL     OW75054   7.421   3.093   4.260
24386SOL    HW175055   7.402   3.029   4.329
24386SOL    HW275056   7.359   3.072   4.190
24387SOL     OW75057  10.410  12.504   7.019
24387SOL    HW175058  10.470  12.494   6.945
24387SOL    HW275059  10.439  12.438   7.082
24388SOL     OW75060   3.506   9.860   9.829
24388SOL    HW175061   3.530   9.953   9.824
24388SOL    HW275062   3.420   9.860   9.870
24389SOL     OW75063   6.661  13.200  14.733
24389SOL    HW175064   6.727  13.230  14.796
24389SOL    HW275065   6.672  13.257  14.657
24390SOL     OW75066   1.176  12.238   0.408
24390SOL    HW175067   1.129  12.155   0.417
24390SOL    HW275068   1.263  12.212   0.378
24391SOL     OW75069  10.521   5.078  14.048
24391SOL    HW175070  10.553   5.057  14.135
24391SOL    HW275071  10.465   5.155  14.061
24392SOL     OW75072   3.955   1.975   2.893
24392SOL    HW175073   3.870   2.019   2.896
24392SOL    HW275074   3.968   1.955   2.800
24393SOL     OW75075  11.533   3.029   2.342
24393SOL    HW175076  11.608   2.997   2.393
24393SOL    HW275077  11.561   3.113   2.308
24394SOL     OW75078  12.559   3.042  11.460
24394SOL    HW175079  12.616   3.119  11.468
24394SOL    HW275080  12.597   2.978  11.520
24395SOL     OW75081   7.100   1.060  13.566
24395SOL    HW175082   7.117   1.124  13.497
24395SOL    HW275083   7.007   1.039  13.557
24396SOL     OW75084   8.022   8.447  12.338
24396SOL    HW175085   8.111   8.481  12.344
24396SOL    HW275086   8.033   8.353  12.323
24397SOL     OW75087  10.785   4.046   6.346
24397SOL    HW175088  10.712   4.096   6.381
24397SOL    HW275089  10.863   4.099   6.366
24398SOL     OW75090   6.368  11.142  10.508
24398SOL    HW175091   6.405  11.096  10.432
24398SOL    HW275092   6.439  11.143  10.572
24399SOL     OW75093   0.147   4.989   1.214
24399SOL    HW175094   0.121   4.907   1.257
24399SOL    HW275095   0.161   4.964   1.123
24400SOL     OW75096   3.429   6.776   7.574
24400SOL    HW175097   3.433   6.808   7.484
24400SOL    HW275098   3.380   6.843   7.621
24401SOL     OW75099   0.448  12.657   7.536
24401SOL    HW175100   0.363  12.700   7.549
24401SOL    HW275101   0.509  12.707   7.591
24402SOL     OW75102   3.540   0.757  14.272
24402SOL    HW175103   3.588   0.822  14.221
24402SOL    HW275104   3.550   0.786  14.363
24403SOL     OW75105   3.246   5.794   5.354
24403SOL    HW175106   3.331   5.819   5.389
24403SOL    HW275107   3.265   5.724   5.292
24404SOL     OW75108   0.725  12.775   8.246
24404SOL    HW175109   0.711  12.838   8.317
24404SOL    HW275110   0.792  12.815   8.191
24405SOL     OW75111   2.875   9.323   4.436
24405SOL    HW175112   2.946   9.367   4.482
24405SOL    HW275113   2.909   9.308   4.348
24406SOL     OW75114   0.985   9.702  13.295
24406SOL    HW175115   1.057   9.644  13.320
24406SOL    HW275116   1.028   9.787  13.278
24407SOL     OW75117  10.610   1.118   9.069
24407SOL    HW175118  10.598   1.188   9.005
24407SOL    HW275119  10.694   1.078   9.045
24408SOL     OW75120   6.185  14.721   3.047
24408SOL    HW175121   6.174  14.757   3.135
24408SOL    HW275122   6.185  14.798   2.990
24409SOL     OW75123   0.246  13.573   4.541
24409SOL    HW175124   0.268  13.556   4.633
24409SOL    HW275125   0.263  13.489   4.497
24410SOL     OW75126  14.554   2.805   6.838
24410SOL    HW175127  14.551   2.870   6.908
24410SOL    HW275128  14.483   2.830   6.779
24411SOL     OW75129   6.787   3.935  11.749
24411SOL    HW175130   6.839   3.958  11.672
24411SOL    HW275131   6.697   3.926  11.715
24412SOL     OW75132  10.743  10.464  11.830
24412SOL    HW175133  10.817  10.436  11.776
24412SOL    HW275134  10.697  10.528  11.775
24413SOL     OW75135  10.416   5.019  10.394
24413SOL    HW175136  10.449   5.093  10.446
24413SOL    HW275137  10.321   5.026  10.399
24414SOL     OW75138   1.960   1.425   1.677
24414SOL    HW175139   2.037   1.380   1.710
24414SOL    HW275140   1.994   1.506   1.637
24415SOL     OW75141  10.399  14.189  14.171
24415SOL    HW175142  10.494  14.184  14.183
24415SOL    HW275143  10.369  14.249  14.240
24416SOL     OW75144  10.702   1.082   4.413
24416SOL    HW175145  10.745   1.029   4.346
24416SOL    HW275146  10.623   1.115   4.370
24417SOL     OW75147   3.959   7.798   1.004
24417SOL    HW175148   3.933   7.729   1.065
24417SOL    HW275149   4.053   7.784   0.992
24418SOL     OW75150   1.053   5.138  13.511
24418SOL    HW175151   1.130   5.161  13.563
24418SOL    HW275152   1.011   5.068  13.561
24419SOL     OW75153  10.703   7.206  12.598
24419SOL    HW175154  10.652   7.267  12.653
24419SOL    HW275155  10.794   7.233  12.610
24420SOL     OW75156   7.754   7.407   7.713
24420SOL    HW175157   7.774   7.406   7.619
24420SOL    HW275158   7.838   7.397   7.756
24421SOL     OW75159   7.901   8.771  14.470
24421SOL    HW175160   7.867   8.783  14.558
24421SOL    HW275161   7.866   8.687  14.442
24422SOL     OW75162   4.368   3.256  10.885
24422SOL    HW175163   4.421   3.190  10.842
24422SOL    HW275164   4.430   3.305  10.940
24423SOL     OW75165   1.782  10.452   8.526
24423SOL    HW175166   1.859  10.434   8.471
24423SOL    HW275167   1.805  10.530   8.575
24424SOL     OW75168   9.013   6.007   4.083
24424SOL    HW175169   9.015   6.006   3.987
24424SOL    HW275170   9.085   5.949   4.109
24425SOL     OW75171   3.952   9.871   7.751
24425SOL    HW175172   3.943   9.779   7.726
24425SOL    HW275173   3.873   9.890   7.802
24426SOL     OW75174  11.500  12.339   5.530
24426SOL    HW175175  11.478  12.299   5.614
24426SOL    HW275176  11.475  12.431   5.540
24427SOL     OW75177   5.289   4.515   4.676
24427SOL    HW175178   5.278   4.452   4.605
24427SOL    HW275179   5.319   4.463   4.751
24428SOL     OW75180   6.255  12.916   3.212
24428SOL    HW175181   6.206  12.991   3.179
24428SOL    HW275182   6.291  12.946   3.295
24429SOL     OW75183   8.058  13.785  12.205
24429SOL    HW175184   8.131  13.846  12.202
24429SOL    HW275185   8.098  13.698  12.199
24430SOL     OW75186   6.192  11.562   4.747
24430SOL    HW175187   6.165  11.484   4.796
24430SOL    HW275188   6.110  11.604   4.723
24431SOL     OW75189  11.990   3.681   0.216
24431SOL    HW175190  12.009   3.773   0.199
24431SOL    HW275191  11.994   3.640   0.129
24432SOL     OW75192  11.499   8.968   0.883
24432SOL    HW175193  11.430   8.956   0.948
24432SOL    HW275194  11.551   8.888   0.887
24433SOL     OW75195   2.718   0.607  13.433
24433SOL    HW175196   2.772   0.559  13.495
24433SOL    HW275197   2.663   0.663  13.487
24434SOL     OW75198   3.195   4.464   7.236
24434SOL    HW175199   3.199   4.402   7.309
24434SOL    HW275200   3.134   4.424   7.174
24435SOL     OW75201   5.373   6.460   9.016
24435SOL    HW175202   5.289   6.456   8.971
24435SOL    HW275203   5.351   6.482   9.107
24436SOL     OW75204   2.804   8.563   7.909
24436SOL    HW175205   2.785   8.504   7.836
24436SOL    HW275206   2.793   8.651   7.872
24437SOL     OW75207   0.448  12.754  10.659
24437SOL    HW175208   0.405  12.839  10.665
24437SOL    HW275209   0.400  12.708  10.590
24438SOL     OW75210   2.493  11.732   1.997
24438SOL    HW175211   2.525  11.650   1.959
24438SOL    HW275212   2.430  11.765   1.932
24439SOL     OW75213   6.795   5.354  12.535
24439SOL    HW175214   6.838   5.430  12.495
24439SOL    HW275215   6.710   5.348  12.490
24440SOL     OW75216  13.081  13.297   6.275
24440SOL    HW175217  13.060  13.383   6.240
24440SOL    HW275218  13.096  13.242   6.198
24441SOL     OW75219  13.255   6.263   7.344
24441SOL    HW175220  13.344   6.230   7.357
24441SOL    HW275221  13.254   6.349   7.386
24442SOL     OW75222   7.058   0.011   2.736
24442SOL    HW175223   7.142   0.008   2.780
24442SOL    HW275224   7.014   0.088   2.773
24443SOL     OW75225  14.519  13.615   0.622
24443SOL    HW175226  14.455  13.561   0.575
24443SOL    HW275227  14.566  13.661   0.553
24444SOL     OW75228  11.637   7.246   9.716
24444SOL    HW175229  11.662   7.180   9.781
24444SOL    HW275230  11.652   7.330   9.760
24445SOL     OW75231   5.913   8.811   3.355
24445SOL    HW175232   5.879   8.730   3.393
24445SOL    HW275233   5.903   8.800   3.261
24446SOL     OW75234  13.291   6.090   6.968
24446SOL    HW175235  13.363   6.128   7.018
24446SOL    HW275236  13.266   6.158   6.906
24447SOL     OW75237   0.577   2.699   3.844
24447SOL    HW175238   0.584   2.794   3.860
24447SOL    HW275239   0.650   2.680   3.785
24448SOL     OW75240  13.126   7.483  11.041
24448SOL    HW175241  13.172   7.555  10.998
24448SOL    HW275242  13.150   7.405  10.991
24449SOL     OW75243  12.837   4.092  14.468
24449SOL    HW175244  12.808   4.002  14.482
24449SOL    HW275245  12.911   4.084  14.407
24450SOL     OW75246   0.339  14.404  10.245
24450SOL    HW175247   0.384  14.394  10.329
24450SOL    HW275248   0.404  14.446  10.188
24451SOL     OW75249  13.976  11.817   1.962
24451SOL    HW175250  13.988  11.722   1.962
24451SOL    HW275251  13.940  11.837   2.048
24452SOL     OW75252   6.807   2.360   9.662
24452SOL    HW175253   6.739   2.419   9.630
24452SOL    HW275254   6.805   2.285   9.602
24453SOL     OW75255  11.211   5.929   1.390
24453SOL    HW175256  11.267   5.856   1.364
24453SOL    HW275257  11.211   5.987   1.314
24454SOL     OW75258  11.535  14.684  14.820
24454SOL    HW175259  11.574  14.766  14.849
24454SOL    HW275260  11.441  14.697  14.833
24455SOL     OW75261  11.820   0.116   9.658
24455SOL    HW175262  11.852   0.197   9.700
24455SOL    HW275263  11.734   0.140   9.623
24456SOL     OW75264   5.309  14.543  10.164
24456SOL    HW175265   5.214  14.549  10.174
24456SOL    HW275266   5.345  14.596  10.235
24457SOL     OW75267  10.061   8.286  11.940
24457SOL    HW175268  10.146   8.244  11.956
24457SOL    HW275269  10.043   8.269  11.848
24458SOL     OW75270   6.339  11.196  13.494
24458SOL    HW175271   6.284  11.118  13.498
24458SOL    HW275272   6.428  11.164  13.512
24459SOL     OW75273  13.364  10.218   2.126
24459SOL    HW175274  13.457  10.227   2.144
24459SOL    HW275275  13.344  10.127   2.147
24460SOL     OW75276   5.575   4.878  13.760
24460SOL    HW175277   5.528   4.940  13.815
24460SOL    HW275278   5.512   4.854  13.691
24461SOL     OW75279   2.531   1.122  11.320
24461SOL    HW175280   2.455   1.069  11.346
24461SOL    HW275281   2.518   1.138  11.227
24462SOL     OW75282   8.753  11.947  13.218
24462SOL    HW175283   8.759  11.854  13.196
24462SOL    HW275284   8.659  11.963  13.227
24463SOL     OW75285   0.335   7.255  14.096
24463SOL    HW175286   0.400   7.324  14.106
24463SOL    HW275287   0.309   7.233  14.185
24464SOL     OW75288   6.881   8.722   7.321
24464SOL    HW175289   6.917   8.780   7.253
24464SOL    HW275290   6.957   8.684   7.364
24465SOL     OW75291  11.137   7.178  12.047
24465SOL    HW175292  11.097   7.154  12.131
24465SOL    HW275293  11.064   7.178  11.985
24466SOL     OW75294   4.947   0.321  13.985
24466SOL    HW175295   5.006   0.384  13.944
24466SOL    HW275296   4.881   0.375  14.029
24467SOL     OW75297   4.606   6.609   2.647
24467SOL    HW175298   4.585   6.614   2.740
24467SOL    HW275299   4.664   6.683   2.631
24468SOL     OW75300   4.825  12.450   2.614
24468SOL    HW175301   4.845  12.398   2.692
24468SOL    HW275302   4.856  12.397   2.541
24469SOL     OW75303   7.432   5.533  14.788
24469SOL    HW175304   7.340   5.507  14.788
24469SOL    HW275305   7.436   5.604  14.852
24470SOL     OW75306   5.963   7.198   5.004
24470SOL    HW175307   5.874   7.211   4.974
24470SOL    HW275308   5.959   7.210   5.099
24471SOL     OW75309   3.615  12.404   4.910
24471SOL    HW175310   3.617  12.352   4.830
24471SOL    HW275311   3.532  12.452   4.906
24472SOL     OW75312   1.926   1.202   8.951
24472SOL    HW175313   2.019   1.213   8.968
24472SOL    HW275314   1.885   1.205   9.038
24473SOL     OW75315   5.964  13.511   0.928
24473SOL    HW175316   5.981  13.551   0.843
24473SOL    HW275317   5.877  13.541   0.953
24474SOL     OW75318  11.176  10.781   5.251
24474SOL    HW175319  11.162  10.699   5.204
24474SOL    HW275320  11.191  10.754   5.341
24475SOL     OW75321   1.805   5.597  10.831
24475SOL    HW175322   1.732   5.594  10.770
24475SOL    HW275323   1.844   5.510  10.828
24476SOL     OW75324  11.423   0.176   3.797
24476SOL    HW175325  11.357   0.154   3.731
24476SOL    HW275326  11.375   0.224   3.864
24477SOL     OW75327  14.681   3.552   7.832
24477SOL    HW175328  14.592   3.517   7.833
24477SOL    HW275329  14.672   3.641   7.866
24478SOL     OW75330  12.475   1.667   5.130
24478SOL    HW175331  12.417   1.593   5.113
24478SOL    HW275332  12.424   1.744   5.107
24479SOL     OW75333   0.374   9.083   0.307
24479SOL    HW175334   0.398   9.064   0.216
24479SOL    HW275335   0.301   9.145   0.300
24480SOL     OW75336   1.090   3.385   5.094
24480SOL    HW175337   1.173   3.367   5.137
24480SOL    HW275338   1.025   3.381   5.165
24481SOL     OW75339   8.687   3.583  13.544
24481SOL    HW175340   8.718   3.653  13.487
24481SOL    HW275341   8.592   3.594  13.547
24482SOL     OW75342   9.793   1.807   7.089
24482SOL    HW175343   9.738   1.821   7.166
24482SOL    HW275344   9.786   1.714   7.071
24483SOL     OW75345   0.799  10.269   5.971
24483SOL    HW175346   0.733  10.267   5.902
24483SOL    HW275347   0.883  10.270   5.924
24484SOL     OW75348   3.077  14.527   6.906
24484SOL    HW175349   3.124  14.458   6.952
24484SOL    HW275350   2.985  14.504   6.914
24485SOL     OW75351   6.874   8.212   7.483
24485SOL    HW175352   6.821   8.169   7.416
24485SOL    HW275353   6.815   8.219   7.559
24486SOL     OW75354   3.711  13.597  11.281
24486SOL    HW175355   3.630  13.573  11.326
24486SOL    HW275356   3.734  13.683  11.317
24487SOL     OW75357   3.045   3.229   5.523
24487SOL    HW175358   3.073   3.276   5.445
24487SOL    HW275359   3.040   3.296   5.591
24488SOL     OW75360   1.546   8.323   4.617
24488SOL    HW175361   1.537   8.389   4.686
24488SOL    HW275362   1.613   8.360   4.559
24489SOL     OW75363   1.913   4.870  12.445
24489SOL    HW175364   1.978   4.928  12.484
24489SOL    HW275365   1.829   4.903  12.475
24490SOL     OW75366  10.546  10.224   2.049
24490SOL    HW175367  10.547  10.207   2.143
24490SOL    HW275368  10.458  10.198   2.020
24491SOL     OW75369   1.866   6.023   4.541
24491SOL    HW175370   1.817   6.092   4.497
24491SOL    HW275371   1.933   5.997   4.478
24492SOL     OW75372   5.054  13.687   0.017
24492SOL    HW175373   5.015  13.613   0.063
24492SOL    HW275374   5.071  13.752   0.085
24493SOL     OW75375   3.952   6.504  10.881
24493SOL    HW175376   4.019   6.451  10.925
24493SOL    HW275377   3.915   6.558  10.951
24494SOL     OW75378   1.937   8.926   4.617
24494SOL    HW175379   1.943   8.961   4.529
24494SOL    HW275380   2.023   8.941   4.656
24495SOL     OW75381   1.362   2.850  11.798
24495SOL    HW175382   1.434   2.787  11.803
24495SOL    HW275383   1.379   2.900  11.718
24496SOL     OW75384  11.166   8.715   6.796
24496SOL    HW175385  11.248   8.737   6.752
24496SOL    HW275386  11.168   8.766   6.877
24497SOL     OW75387  14.637   0.422   1.359
24497SOL    HW175388  14.637   0.328   1.343
24497SOL    HW275389  14.572   0.435   1.428
24498SOL     OW75390   1.326   6.940   4.717
24498SOL    HW175391   1.340   6.908   4.628
24498SOL    HW275392   1.294   7.030   4.707
24499SOL     OW75393   6.557  10.082   1.335
24499SOL    HW175394   6.551  10.173   1.308
24499SOL    HW275395   6.468  10.058   1.360
24500SOL     OW75396  13.151   4.707   6.793
24500SOL    HW175397  13.113   4.635   6.742
24500SOL    HW275398  13.124   4.786   6.747
24501SOL     OW75399   4.043   9.574   0.804
24501SOL    HW175400   4.106   9.598   0.873
24501SOL    HW275401   3.959   9.569   0.849
24502SOL     OW75402   6.885   7.057   3.071
24502SOL    HW175403   6.821   7.000   3.112
24502SOL    HW275404   6.934   7.095   3.143
24503SOL     OW75405   1.028  12.555   6.740
24503SOL    HW175406   1.029  12.593   6.652
24503SOL    HW275407   0.980  12.473   6.730
24504SOL     OW75408   6.936   9.521   3.769
24504SOL    HW175409   6.923   9.462   3.695
24504SOL    HW275410   6.855   9.571   3.775
24505SOL     OW75411   1.089   4.040  11.287
24505SOL    HW175412   1.000   4.074  11.278
24505SOL    HW275413   1.145   4.117  11.283
24506SOL     OW75414   8.394   3.327  14.703
24506SOL    HW175415   8.359   3.372  14.780
24506SOL    HW275416   8.479   3.369  14.688
24507SOL     OW75417   6.874   2.337   3.367
24507SOL    HW175418   6.959   2.370   3.397
24507SOL    HW275419   6.879   2.242   3.380
24508SOL     OW75420   6.274  13.517   6.026
24508SOL    HW175421   6.269  13.588   6.091
24508SOL    HW275422   6.245  13.557   5.944
24509SOL     OW75423   3.733   5.242   0.728
24509SOL    HW175424   3.739   5.146   0.730
24509SOL    HW275425   3.716   5.264   0.636
24510SOL     OW75426   8.282   3.316   5.174
24510SOL    HW175427   8.362   3.320   5.122
24510SOL    HW275428   8.282   3.397   5.225
24511SOL     OW75429  11.584   6.354  11.223
24511SOL    HW175430  11.606   6.409  11.298
24511SOL    HW275431  11.489   6.346  11.226
24512SOL     OW75432   1.382   5.827  10.503
24512SOL    HW175433   1.469   5.788  10.490
24512SOL    HW275434   1.332   5.798  10.427
24513SOL     OW75435   5.763   8.107  10.428
24513SOL    HW175436   5.733   8.067  10.347
24513SOL    HW275437   5.858   8.091  10.430
24514SOL     OW75438   7.585  10.469   4.991
24514SOL    HW175439   7.506  10.418   4.972
24514SOL    HW275440   7.578  10.546   4.935
24515SOL     OW75441   1.753  14.689   7.338
24515SOL    HW175442   1.804  14.755   7.292
24515SOL    HW275443   1.789  14.688   7.427
24516SOL     OW75444   5.452  14.667   2.078
24516SOL    HW175445   5.543  14.638   2.086
24516SOL    HW275446   5.430  14.651   1.986
24517SOL     OW75447  11.870  10.766  12.928
24517SOL    HW175448  11.859  10.678  12.964
24517SOL    HW275449  11.808  10.769  12.855
24518SOL     OW75450   6.090  13.826   8.464
24518SOL    HW175451   6.048  13.898   8.511
24518SOL    HW275452   6.018  13.780   8.421
24519SOL     OW75453   0.536   6.764   5.350
24519SOL    HW175454   0.471   6.830   5.371
24519SOL    HW275455   0.619   6.810   5.351
24520SOL     OW75456  14.842   1.106   9.068
24520SOL    HW175457   0.038   1.169   9.101
24520SOL    HW275458  14.797   1.074   9.146
24521SOL     OW75459   1.251   9.944  14.636
24521SOL    HW175460   1.288   9.857  14.652
24521SOL    HW275461   1.316  10.005  14.671
24522SOL     OW75462  12.964   1.900  10.619
24522SOL    HW175463  12.937   1.943  10.700
24522SOL    HW275464  12.950   1.965  10.551
24523SOL     OW75465  10.743   6.909   6.871
24523SOL    HW175466  10.772   6.895   6.781
24523SOL    HW275467  10.702   6.827   6.896
24524SOL     OW75468   8.101  12.517   6.597
24524SOL    HW175469   8.183  12.566   6.603
24524SOL    HW275470   8.110  12.446   6.661
24525SOL     OW75471   5.467  11.589   5.305
24525SOL    HW175472   5.447  11.659   5.367
24525SOL    HW275473   5.524  11.529   5.353
24526SOL     OW75474  14.056  11.794  13.564
24526SOL    HW175475  14.045  11.729  13.495
24526SOL    HW275476  14.025  11.876  13.525
24527SOL     OW75477  10.296   7.716   8.949
24527SOL    HW175478  10.321   7.744   8.861
24527SOL    HW275479  10.322   7.789   9.005
24528SOL     OW75480   6.497   7.793  10.003
24528SOL    HW175481   6.519   7.873  10.051
24528SOL    HW275482   6.504   7.817   9.911
24529SOL     OW75483   8.819  12.676   1.717
24529SOL    HW175484   8.813  12.633   1.803
24529SOL    HW275485   8.742  12.733   1.714
24530SOL     OW75486   7.176   9.366   2.208
24530SOL    HW175487   7.098   9.387   2.157
24530SOL    HW275488   7.171   9.424   2.284
24531SOL     OW75489   1.534   5.037   7.324
24531SOL    HW175490   1.531   5.013   7.231
24531SOL    HW275491   1.586   5.117   7.326
24532SOL     OW75492   8.140  11.307   1.729
24532SOL    HW175493   8.045  11.310   1.724
24532SOL    HW275494   8.164  11.389   1.773
24533SOL     OW75495  12.722   4.938   7.938
24533SOL    HW175496  12.646   4.957   7.883
24533SOL    HW275497  12.726   5.010   8.000
24534SOL     OW75498   1.807  12.346   7.455
24534SOL    HW175499   1.730  12.400   7.437
24534SOL    HW275500   1.792  12.266   7.405
24535SOL     OW75501  12.985   2.418  12.343
24535SOL    HW175502  12.977   2.462  12.428
24535SOL    HW275503  12.912   2.357  12.341
24536SOL     OW75504   5.345  12.896   0.343
24536SOL    HW175505   5.377  12.978   0.381
24536SOL    HW275506   5.420  12.863   0.293
24537SOL     OW75507   5.423  11.999   4.625
24537SOL    HW175508   5.346  11.967   4.578
24537SOL    HW275509   5.491  12.006   4.559
24538SOL     OW75510  10.948   9.367  14.699
24538SOL    HW175511  10.971   9.429  14.630
24538SOL    HW275512  10.870   9.322  14.667
24539SOL     OW75513   5.511   0.294   3.924
24539SOL    HW175514   5.468   0.318   3.842
24539SOL    HW275515   5.440   0.261   3.980
24540SOL     OW75516  14.819   0.674   0.235
24540SOL    HW175517   0.017   0.690   0.167
24540SOL    HW275518  14.783   0.588   0.213
24541SOL     OW75519  13.952   9.421  11.360
24541SOL    HW175520  13.974   9.466  11.279
24541SOL    HW275521  13.923   9.334  11.332
24542SOL     OW75522   5.749   7.850   5.266
24542SOL    HW175523   5.695   7.927   5.253
24542SOL    HW275524   5.820   7.880   5.323
24543SOL     OW75525   0.519   0.323   1.415
24543SOL    HW175526   0.467   0.397   1.448
24543SOL    HW275527   0.590   0.315   1.478
24544SOL     OW75528   1.640  10.323  13.022
24544SOL    HW175529   1.676  10.251  13.074
24544SOL    HW275530   1.707  10.341  12.956
24545SOL     OW75531   6.664   1.501   8.570
24545SOL    HW175532   6.678   1.464   8.657
24545SOL    HW275533   6.579   1.546   8.577
24546SOL     OW75534   3.906   5.964   2.374
24546SOL    HW175535   3.881   6.055   2.389
24546SOL    HW275536   3.901   5.954   2.279
24547SOL     OW75537   4.381   7.655  12.998
24547SOL    HW175538   4.305   7.672  12.942
24547SOL    HW275539   4.454   7.698  12.954
24548SOL     OW75540   4.968  13.642   2.870
24548SOL    HW175541   5.058  13.668   2.888
24548SOL    HW275542   4.957  13.656   2.776
24549SOL     OW75543   5.167   9.238  14.489
24549SOL    HW175544   5.139   9.319  14.448
24549SOL    HW275545   5.243   9.209  14.437
24550SOL     OW75546   4.350   0.322   9.576
24550SOL    HW175547   4.318   0.295   9.490
24550SOL    HW275548   4.407   0.397   9.558
24551SOL     OW75549   8.097   3.733   6.990
24551SOL    HW175550   8.007   3.755   7.013
24551SOL    HW275551   8.091   3.688   6.906
24552SOL     OW75552   3.575   3.444   9.149
24552SOL    HW175553   3.664   3.423   9.119
24552SOL    HW275554   3.581   3.446   9.244
24553SOL     OW75555   1.791   5.386   2.634
24553SOL    HW175556   1.797   5.474   2.672
24553SOL    HW275557   1.697   5.368   2.631
24554SOL     OW75558   1.917   5.174  14.019
24554SOL    HW175559   2.009   5.149  14.030
24554SOL    HW275560   1.898   5.232  14.093
24555SOL     OW75561   6.438  12.350   5.284
24555SOL    HW175562   6.423  12.286   5.354
24555SOL    HW275563   6.505  12.408   5.319
24556SOL     OW75564   8.881   6.926  11.639
24556SOL    HW175565   8.974   6.909  11.624
24556SOL    HW275566   8.870   6.913  11.734
24557SOL     OW75567   7.357   6.247   0.691
24557SOL    HW175568   7.399   6.192   0.624
24557SOL    HW275569   7.296   6.302   0.642
24558SOL     OW75570   1.569  11.335   2.417
24558SOL    HW175571   1.584  11.354   2.324
24558SOL    HW275572   1.626  11.396   2.463
24559SOL     OW75573   0.326   6.307   5.256
24559SOL    HW175574   0.372   6.386   5.285
24559SOL    HW275575   0.287   6.272   5.336
24560SOL     OW75576  10.231   5.308   1.553
24560SOL    HW175577  10.145   5.271   1.535
24560SOL    HW275578  10.229   5.395   1.513
24561SOL     OW75579   7.022  14.299   2.437
24561SOL    HW175580   7.034  14.234   2.507
24561SOL    HW275581   7.111  14.331   2.420
24562SOL     OW75582   4.071   6.311   3.758
24562SOL    HW175583   4.155   6.353   3.738
24562SOL    HW275584   4.053   6.337   3.849
24563SOL     OW75585  10.085   9.075  13.383
24563SOL    HW175586  10.090   9.061  13.478
24563SOL    HW275587   9.993   9.098  13.367
24564SOL     OW75588  12.412   6.663   9.899
24564SOL    HW175589  12.507   6.657   9.903
24564SOL    HW275590  12.388   6.622   9.816
24565SOL     OW75591   7.185  11.057   9.248
24565SOL    HW175592   7.145  10.971   9.234
24565SOL    HW275593   7.273  11.038   9.280
24566SOL     OW75594   4.188  13.205   2.311
24566SOL    HW175595   4.160  13.265   2.380
24566SOL    HW275596   4.204  13.261   2.235
24567SOL     OW75597  10.751   7.590   8.051
24567SOL    HW175598  10.697   7.579   7.973
24567SOL    HW275599  10.708   7.537   8.118
24568SOL     OW75600   7.643   0.363  10.154
24568SOL    HW175601   7.596   0.280  10.153
24568SOL    HW275602   7.643   0.392  10.063
24569SOL     OW75603   8.009   4.855   9.691
24569SOL    HW175604   7.976   4.765   9.697
24569SOL    HW275605   7.979   4.897   9.771
24570SOL     OW75606  11.566   5.592  10.220
24570SOL    HW175607  11.657   5.616  10.240
24570SOL    HW275608  11.515   5.635  10.289
24571SOL     OW75609   0.531   8.655  13.233
24571SOL    HW175610   0.533   8.561  13.253
24571SOL    HW275611   0.495   8.695  13.312
24572SOL     OW75612   9.390   5.054   9.691
24572SOL    HW175613   9.431   5.124   9.639
24572SOL    HW275614   9.301   5.085   9.708
24573SOL     OW75615   3.769  11.656  12.608
24573SOL    HW175616   3.809  11.740  12.585
24573SOL    HW275617   3.790  11.644  12.700
24574SOL     OW75618  11.837   7.513   0.323
24574SOL    HW175619  11.870   7.456   0.253
24574SOL    HW275620  11.792   7.584   0.277
24575SOL     OW75621   3.593  10.404   2.505
24575SOL    HW175622   3.669  10.371   2.553
24575SOL    HW275623   3.569  10.333   2.446
24576SOL     OW75624  14.402   1.856   5.945
24576SOL    HW175625  14.450   1.863   5.862
24576SOL    HW275626  14.354   1.939   5.952
24577SOL     OW75627  13.838   9.964  10.697
24577SOL    HW175628  13.811  10.014  10.774
24577SOL    HW275629  13.895  10.024  10.648
24578SOL     OW75630   0.432  10.526   3.940
24578SOL    HW175631   0.517  10.568   3.929
24578SOL    HW275632   0.412  10.489   3.855
24579SOL     OW75633  12.249  11.334   1.761
24579SOL    HW175634  12.199  11.415   1.770
24579SOL    HW275635  12.333  11.361   1.725
24580SOL     OW75636  10.292  12.426   0.365
24580SOL    HW175637  10.277  12.485   0.440
24580SOL    HW275638  10.207  12.387   0.348
24581SOL     OW75639  13.943  10.727   5.313
24581SOL    HW175640  13.955  10.810   5.360
24581SOL    HW275641  13.869  10.742   5.256
24582SOL     OW75642  10.087   9.494  12.267
24582SOL    HW175643  10.118   9.584  12.258
24582SOL    HW275644   9.992   9.502  12.279
24583SOL     OW75645  13.378   1.410   9.394
24583SOL    HW175646  13.388   1.495   9.438
24583SOL    HW275647  13.314   1.426   9.325
24584SOL     OW75648   7.469   5.689  13.206
24584SOL    HW175649   7.487   5.702  13.113
24584SOL    HW275650   7.415   5.764  13.231
24585SOL     OW75651   2.685   6.180   7.895
24585SOL    HW175652   2.774   6.196   7.864
24585SOL    HW275653   2.674   6.085   7.889
24586SOL     OW75654   2.243   6.223   1.633
24586SOL    HW175655   2.177   6.204   1.566
24586SOL    HW275656   2.299   6.145   1.634
24587SOL     OW75657   3.301  12.695   7.209
24587SOL    HW175658   3.219  12.661   7.173
24587SOL    HW275659   3.343  12.619   7.249
24588SOL     OW75660   8.743  10.086  10.274
24588SOL    HW175661   8.792  10.020  10.323
24588SOL    HW275662   8.737  10.051  10.185
24589SOL     OW75663   2.514   1.621   4.380
24589SOL    HW175664   2.568   1.591   4.453
24589SOL    HW275665   2.436   1.566   4.384
24590SOL     OW75666   4.700   0.642   1.072
24590SOL    HW175667   4.794   0.629   1.077
24590SOL    HW275668   4.662   0.567   1.117
24591SOL     OW75669  11.966   3.994   3.102
24591SOL    HW175670  12.004   4.005   3.015
24591SOL    HW275671  11.873   4.013   3.090
24592SOL     OW75672   6.364  12.700  12.515
24592SOL    HW175673   6.454  12.730  12.504
24592SOL    HW275674   6.371  12.608  12.538
24593SOL     OW75675   8.783  10.688  12.517
24593SOL    HW175676   8.843  10.648  12.580
24593SOL    HW275677   8.840  10.725  12.450
24594SOL     OW75678   6.298   1.643  10.991
24594SOL    HW175679   6.340   1.718  10.949
24594SOL    HW275680   6.251   1.599  10.920
24595SOL     OW75681  11.141  14.791   4.471
24595SOL    HW175682  11.052  14.783   4.438
24595SOL    HW275683  11.177  14.868   4.425
24596SOL     OW75684   3.920   9.963  13.008
24596SOL    HW175685   4.009   9.937  12.985
24596SOL    HW275686   3.918   9.960  13.104
24597SOL     OW75687   0.811   0.825  11.440
24597SOL    HW175688   0.719   0.813  11.416
24597SOL    HW275689   0.854   0.744  11.411
24598SOL     OW75690   0.377  13.355  12.290
24598SOL    HW175691   0.300  13.302  12.268
24598SOL    HW275692   0.386  13.348  12.385
24599SOL     OW75693   2.713   4.687  14.843
24599SOL    HW175694   2.634   4.635  14.861
24599SOL    HW275695   2.689   4.739  14.766
24600SOL     OW75696   1.771   7.385   8.152
24600SOL    HW175697   1.863   7.360   8.162
24600SOL    HW275698   1.774   7.477   8.126
24601SOL     OW75699  10.653  12.499   5.558
24601SOL    HW175700  10.600  12.440   5.612
24601SOL    HW275701  10.714  12.539   5.620
24602SOL     OW75702   3.039   5.508   3.532
24602SOL    HW175703   3.023   5.421   3.495
24602SOL    HW275704   2.952   5.543   3.549
24603SOL     OW75705   7.681   6.156  10.600
24603SOL    HW175706   7.763   6.201  10.617
24603SOL    HW275707   7.613   6.214  10.634
24604SOL     OW75708   0.962  13.085   7.319
24604SOL    HW175709   0.927  12.999   7.341
24604SOL    HW275710   0.892  13.146   7.342
24605SOL     OW75711   1.937   2.975   5.346
24605SOL    HW175712   1.858   2.981   5.400
24605SOL    HW275713   1.993   2.914   5.393
24606SOL     OW75714   8.208   7.826   5.687
24606SOL    HW175715   8.230   7.867   5.603
24606SOL    HW275716   8.266   7.751   5.694
24607SOL     OW75717   9.360  12.431   7.323
24607SOL    HW175718   9.452  12.404   7.323
24607SOL    HW275719   9.351  12.482   7.404
24608SOL     OW75720   0.175   2.906  14.065
24608SOL    HW175721   0.158   2.999  14.047
24608SOL    HW275722   0.245   2.883  14.003
24609SOL     OW75723   5.480   5.638   6.497
24609SOL    HW175724   5.474   5.651   6.402
24609SOL    HW275725   5.564   5.677   6.521
24610SOL     OW75726   9.252   7.029   6.568
24610SOL    HW175727   9.187   6.960   6.552
24610SOL    HW275728   9.334   6.982   6.584
24611SOL     OW75729   7.784   2.890  11.983
24611SOL    HW175730   7.879   2.900  11.993
24611SOL    HW275731   7.749   2.976  12.004
24612SOL     OW75732   1.696  13.030   8.784
24612SOL    HW175733   1.650  12.983   8.854
24612SOL    HW275734   1.656  12.997   8.703
24613SOL     OW75735  12.523  14.547   7.508
24613SOL    HW175736  12.479  14.629   7.532
24613SOL    HW275737  12.506  14.538   7.414
24614SOL     OW75738   3.030  13.082   5.150
24614SOL    HW175739   3.022  13.000   5.197
24614SOL    HW275740   2.967  13.140   5.193
24615SOL     OW75741   9.003   6.060   7.661
24615SOL    HW175742   9.018   6.029   7.572
24615SOL    HW275743   8.995   5.980   7.713
24616SOL     OW75744   7.828   9.547  12.480
24616SOL    HW175745   7.815   9.464  12.435
24616SOL    HW275746   7.770   9.543  12.555
24617SOL     OW75747   0.846   9.398   5.787
24617SOL    HW175748   0.901   9.320   5.797
24617SOL    HW275749   0.905   9.463   5.748
24618SOL     OW75750   5.508   0.696  11.836
24618SOL    HW175751   5.450   0.691  11.911
24618SOL    HW275752   5.548   0.610  11.830
24619SOL     OW75753  12.057   1.352   1.073
24619SOL    HW175754  12.084   1.427   1.022
24619SOL    HW275755  12.072   1.378   1.164
24620SOL     OW75756   1.324   3.329   7.457
24620SOL    HW175757   1.353   3.333   7.365
24620SOL    HW275758   1.231   3.308   7.452
24621SOL     OW75759   2.449   0.396   9.617
24621SOL    HW175760   2.445   0.341   9.695
24621SOL    HW275761   2.529   0.448   9.629
24622SOL     OW75762  10.088   2.973   6.375
24622SOL    HW175763  10.086   2.906   6.307
24622SOL    HW275764  10.001   3.011   6.374
24623SOL     OW75765   1.037  11.388   8.488
24623SOL    HW175766   0.963  11.400   8.428
24623SOL    HW275767   1.040  11.469   8.539
24624SOL     OW75768   8.012   8.201   9.896
24624SOL    HW175769   8.051   8.270   9.950
24624SOL    HW275770   8.086   8.145   9.872
24625SOL     OW75771  12.332   1.986   6.680
24625SOL    HW175772  12.282   1.940   6.613
24625SOL    HW275773  12.296   1.955   6.763
24626SOL     OW75774  12.593   5.918   3.520
24626SOL    HW175775  12.655   5.854   3.556
24626SOL    HW275776  12.630   6.003   3.544
24627SOL     OW75777   6.349   7.962   8.587
24627SOL    HW175778   6.420   7.987   8.646
24627SOL    HW275779   6.388   7.964   8.500
24628SOL     OW75780   2.107   0.373   9.274
24628SOL    HW175781   2.198   0.372   9.244
24628SOL    HW275782   2.110   0.335   9.362
24629SOL     OW75783   3.813  11.197   5.175
24629SOL    HW175784   3.874  11.185   5.102
24629SOL    HW275785   3.833  11.125   5.235
24630SOL     OW75786   0.861  13.347   5.671
24630SOL    HW175787   0.887  13.256   5.664
24630SOL    HW275788   0.855  13.363   5.766
24631SOL     OW75789  11.226   7.022  13.836
24631SOL    HW175790  11.212   6.938  13.793
24631SOL    HW275791  11.275   7.001  13.915
24632SOL     OW75792   2.573   8.600  12.502
24632SOL    HW175793   2.567   8.575  12.595
24632SOL    HW275794   2.667   8.615  12.488
24633SOL     OW75795   7.897   3.040   2.624
24633SOL    HW175796   7.819   3.022   2.572
24633SOL    HW275797   7.866   3.046   2.714
24634SOL     OW75798  11.679   9.371   2.213
24634SOL    HW175799  11.679   9.461   2.245
24634SOL    HW275800  11.765   9.360   2.173
24635SOL     OW75801   9.525   1.426  10.600
24635SOL    HW175802   9.555   1.497  10.657
24635SOL    HW275803   9.430   1.428  10.607
24636SOL     OW75804  12.361  14.465  13.820
24636SOL    HW175805  12.282  14.411  13.819
24636SOL    HW275806  12.397  14.457  13.732
24637SOL     OW75807  10.856   4.176   3.811
24637SOL    HW175808  10.769   4.135   3.806
24637SOL    HW275809  10.867   4.218   3.726
24638SOL     OW75810   0.096   8.237   2.247
24638SOL    HW175811   0.171   8.293   2.267
24638SOL    HW275812   0.133   8.161   2.203
24639SOL     OW75813  11.564   6.276   8.541
24639SOL    HW175814  11.583   6.323   8.621
24639SOL    HW275815  11.650   6.260   8.501
24640SOL     OW75816   7.630   1.654   9.361
24640SOL    HW175817   7.713   1.692   9.390
24640SOL    HW275818   7.637   1.561   9.385
24641SOL     OW75819   2.384   2.783   5.446
24641SOL    HW175820   2.378   2.687   5.442
24641SOL    HW275821   2.414   2.809   5.359
24642SOL     OW75822   9.215   8.649   2.092
24642SOL    HW175823   9.144   8.700   2.053
24642SOL    HW275824   9.173   8.604   2.166
24643SOL     OW75825   6.205   8.493   8.879
24643SOL    HW175826   6.114   8.491   8.911
24643SOL    HW275827   6.255   8.446   8.946
24644SOL     OW75828   7.078   6.323   2.927
24644SOL    HW175829   7.044   6.323   2.837
24644SOL    HW275830   7.014   6.375   2.976
24645SOL     OW75831  14.559  13.876   7.217
24645SOL    HW175832  14.502  13.940   7.259
24645SOL    HW275833  14.581  13.915   7.132
24646SOL     OW75834   2.605  13.392   1.874
24646SOL    HW175835   2.586  13.459   1.941
24646SOL    HW275836   2.662  13.436   1.811
24647SOL     OW75837   1.133   6.085   7.630
24647SOL    HW175838   1.186   6.126   7.699
24647SOL    HW275839   1.140   5.991   7.647
24648SOL     OW75840   6.914  13.436  11.893
24648SOL    HW175841   6.905  13.527  11.919
24648SOL    HW275842   6.959  13.439  11.808
24649SOL     OW75843   1.954   3.518   9.086
24649SOL    HW175844   1.901   3.593   9.113
24649SOL    HW275845   1.895   3.443   9.092
24650SOL     OW75846  10.638   9.421  12.394
24650SOL    HW175847  10.733   9.408  12.388
24650SOL    HW275848  10.622   9.437  12.487
24651SOL     OW75849   1.204   1.841   6.517
24651SOL    HW175850   1.261   1.918   6.516
24651SOL    HW275851   1.116   1.875   6.506
24652SOL     OW75852   0.568  13.541   0.400
24652SOL    HW175853   0.536  13.631   0.407
24652SOL    HW275854   0.508  13.490   0.454
24653SOL     OW75855   8.241  14.409  10.870
24653SOL    HW175856   8.261  14.383  10.960
24653SOL    HW275857   8.294  14.487  10.855
24654SOL     OW75858   7.317   2.054  12.509
24654SOL    HW175859   7.287   1.998  12.437
24654SOL    HW275860   7.319   2.142  12.472
24655SOL     OW75861   8.035   5.591  13.749
24655SOL    HW175862   8.031   5.686  13.743
24655SOL    HW275863   8.082   5.573  13.830
24656SOL     OW75864   3.284   0.534   3.580
24656SOL    HW175865   3.292   0.623   3.614
24656SOL    HW275866   3.193   0.510   3.596
24657SOL     OW75867  14.318   0.829   7.975
24657SOL    HW175868  14.276   0.914   7.958
24657SOL    HW275869  14.246   0.766   7.966
24658SOL     OW75870   1.541  10.508  14.374
24658SOL    HW175871   1.501  10.425  14.400
24658SOL    HW275872   1.472  10.555  14.328
24659SOL     OW75873  13.279   0.471  14.026
24659SOL    HW175874  13.189   0.441  14.036
24659SOL    HW275875  13.271   0.559  13.988
24660SOL     OW75876  13.512   8.449   1.441
24660SOL    HW175877  13.511   8.544   1.454
24660SOL    HW275878  13.566   8.416   1.513
24661SOL     OW75879   9.233   0.854  13.564
24661SOL    HW175880   9.261   0.930  13.615
24661SOL    HW275881   9.139   0.849  13.579
24662SOL     OW75882   1.687   0.684   2.795
24662SOL    HW175883   1.726   0.749   2.736
24662SOL    HW275884   1.695   0.601   2.748
24663SOL     OW75885   5.486   7.206   4.996
24663SOL    HW175886   5.545   7.279   5.015
24663SOL    HW275887   5.474   7.163   5.081
24664SOL     OW75888   4.173   1.889   9.873
24664SOL    HW175889   4.078   1.890   9.863
24664SOL    HW275890   4.187   1.863   9.964
24665SOL     OW75891   6.239  11.157  11.017
24665SOL    HW175892   6.183  11.174  10.942
24665SOL    HW275893   6.179  11.123  11.084
24666SOL     OW75894   4.252   7.824  12.176
24666SOL    HW175895   4.260   7.750  12.116
24666SOL    HW275896   4.159   7.827  12.198
24667SOL     OW75897   3.890   7.773   6.587
24667SOL    HW175898   3.893   7.865   6.613
24667SOL    HW275899   3.968   7.760   6.534
24668SOL     OW75900   6.095  12.350   4.458
24668SOL    HW175901   6.134  12.379   4.376
24668SOL    HW275902   6.128  12.412   4.523
24669SOL     OW75903   0.384   4.481   0.198
24669SOL    HW175904   0.474   4.510   0.213
24669SOL    HW275905   0.364   4.511   0.109
24670SOL     OW75906   6.867   2.286  10.430
24670SOL    HW175907   6.821   2.208  10.460
24670SOL    HW275908   6.900   2.327  10.510
24671SOL     OW75909   8.846   8.423   6.081
24671SOL    HW175910   8.823   8.500   6.134
24671SOL    HW275911   8.800   8.436   5.999
24672SOL     OW75912   7.079  13.946   3.998
24672SOL    HW175913   7.102  13.921   4.088
24672SOL    HW275914   7.154  13.996   3.967
24673SOL     OW75915  13.460   9.897  13.271
24673SOL    HW175916  13.518   9.836  13.225
24673SOL    HW275917  13.424   9.845  13.343
24674SOL     OW75918   5.933   5.076   7.686
24674SOL    HW175919   5.934   5.117   7.600
24674SOL    HW275920   5.851   5.106   7.726
24675SOL     OW75921  11.882   3.092   5.093
24675SOL    HW175922  11.928   3.155   5.149
24675SOL    HW275923  11.789   3.113   5.104
24676SOL     OW75924   8.414   4.729  11.457
24676SOL    HW175925   8.319   4.733  11.441
24676SOL    HW275926   8.451   4.795  11.398
24677SOL     OW75927   5.811   4.331   7.589
24677SOL    HW175928   5.746   4.261   7.591
24677SOL    HW275929   5.770   4.401   7.539
24678SOL     OW75930  14.071  13.828  11.899
24678SOL    HW175931  14.009  13.784  11.841
24678SOL    HW275932  14.134  13.869  11.840
24679SOL     OW75933  14.754   4.521   0.681
24679SOL    HW175934  14.678   4.571   0.712
24679SOL    HW275935  14.745   4.435   0.720
24680SOL     OW75936   9.233   7.164   4.602
24680SOL    HW175937   9.140   7.142   4.596
24680SOL    HW275938   9.247   7.183   4.695
24681SOL     OW75939   4.394   5.808   5.670
24681SOL    HW175940   4.345   5.861   5.607
24681SOL    HW275941   4.335   5.799   5.745
24682SOL     OW75942   1.870   4.048   6.778
24682SOL    HW175943   1.928   4.010   6.843
24682SOL    HW275944   1.797   3.986   6.771
24683SOL     OW75945   3.636   4.587   3.928
24683SOL    HW175946   3.607   4.654   3.990
24683SOL    HW275947   3.728   4.607   3.911
24684SOL     OW75948   3.167  11.072   4.113
24684SOL    HW175949   3.121  11.064   4.197
24684SOL    HW275950   3.097  11.070   4.047
24685SOL     OW75951   3.374  14.404  10.367
24685SOL    HW175952   3.420  14.435  10.289
24685SOL    HW275953   3.442  14.363  10.420
24686SOL     OW75954  11.555   3.319  13.291
24686SOL    HW175955  11.572   3.225  13.299
24686SOL    HW275956  11.564   3.338  13.197
24687SOL     OW75957  11.020   3.598  10.611
24687SOL    HW175958  11.066   3.514  10.598
24687SOL    HW275959  10.938   3.574  10.653
24688SOL     OW75960  13.672   1.841   7.799
24688SOL    HW175961  13.598   1.846   7.860
24688SOL    HW275962  13.680   1.748   7.778
24689SOL     OW75963   7.786   6.872   5.961
24689SOL    HW175964   7.791   6.837   5.872
24689SOL    HW275965   7.705   6.923   5.962
24690SOL     OW75966   8.249  12.923   8.007
24690SOL    HW175967   8.217  12.960   8.089
24690SOL    HW275968   8.328  12.874   8.032
24691SOL     OW75969   4.308   2.687   7.211
24691SOL    HW175970   4.354   2.731   7.283
24691SOL    HW275971   4.336   2.735   7.133
24692SOL     OW75972   5.041   7.167   2.631
24692SOL    HW175973   4.999   7.151   2.716
24692SOL    HW275974   5.113   7.103   2.628
24693SOL     OW75975  11.055  10.597  13.408
24693SOL    HW175976  11.049  10.589  13.313
24693SOL    HW275977  11.136  10.552  13.432
24694SOL     OW75978   4.702   2.710  13.218
24694SOL    HW175979   4.612   2.741  13.225
24694SOL    HW275980   4.723   2.716  13.125
24695SOL     OW75981  10.982   1.068   3.958
24695SOL    HW175982  11.032   1.081   3.878
24695SOL    HW275983  11.041   1.023   4.017
24696SOL     OW75984   8.823   4.926   6.909
24696SOL    HW175985   8.730   4.944   6.916
24696SOL    HW275986   8.849   4.964   6.826
24697SOL     OW75987   5.932  14.614  13.312
24697SOL    HW175988   5.864  14.603  13.378
24697SOL    HW275989   5.894  14.578  13.232
24698SOL     OW75990   4.468  14.769  10.748
24698SOL    HW175991   4.460  14.826  10.824
24698SOL    HW275992   4.471  14.680  10.785
24699SOL     OW75993   0.324  14.177   4.848
24699SOL    HW175994   0.287  14.194   4.761
24699SOL    HW275995   0.269  14.109   4.886
24700SOL     OW75996   2.648   9.124   9.567
24700SOL    HW175997   2.714   9.096   9.631
24700SOL    HW275998   2.588   9.180   9.616
24701SOL     OW75999   9.981   1.717   0.182
24701SOL    HW176000  10.042   1.768   0.129
24701SOL    HW276001   9.896   1.759   0.168
24702SOL     OW76002   1.498  11.031   4.741
24702SOL    HW176003   1.505  10.945   4.698
24702SOL    HW276004   1.580  11.075   4.718
24703SOL     OW76005  13.077   3.127   7.583
24703SOL    HW176006  13.173   3.127   7.586
24703SOL    HW276007  13.050   3.135   7.675
24704SOL     OW76008   6.219  13.878  12.638
24704SOL    HW176009   6.302  13.912  12.670
24704SOL    HW276010   6.243  13.815  12.570
24705SOL     OW76011   4.047  13.467   0.010
24705SOL    HW176012   4.038  13.523  14.801
24705SOL    HW276013   4.011  13.382  14.851
24706SOL     OW76014  13.820  10.984   8.989
24706SOL    HW176015  13.902  10.980   8.939
24706SOL    HW276016  13.753  11.003   8.923
24707SOL     OW76017  12.025  13.399  14.809
24707SOL    HW176018  12.025  13.325  14.748
24707SOL    HW276019  12.061  13.363   0.023
24708SOL     OW76020  13.114   8.353  12.329
24708SOL    HW176021  13.192   8.408  12.343
24708SOL    HW276022  13.139   8.294  12.258
24709SOL     OW76023   3.745   4.179  10.761
24709SOL    HW176024   3.669   4.121  10.756
24709SOL    HW276025   3.820   4.121  10.766
24710SOL     OW76026   9.149   7.814   1.332
24710SOL    HW176027   9.077   7.754   1.351
24710SOL    HW276028   9.177   7.846   1.418
24711SOL     OW76029   8.428  13.253  14.428
24711SOL    HW176030   8.412  13.167  14.388
24711SOL    HW276031   8.351  13.305  14.404
24712SOL     OW76032   7.322  11.837   8.191
24712SOL    HW176033   7.330  11.783   8.112
24712SOL    HW276034   7.409  11.873   8.205
24713SOL     OW76035  12.695  11.790   9.107
24713SOL    HW176036  12.683  11.744   9.024
24713SOL    HW276037  12.625  11.757   9.163
24714SOL     OW76038   6.381   6.736   0.519
24714SOL    HW176039   6.444   6.806   0.503
24714SOL    HW276040   6.417   6.688   0.594
24715SOL     OW76041   7.075  12.264  12.787
24715SOL    HW176042   7.154  12.316  12.774
24715SOL    HW276043   7.105  12.187  12.836
24716SOL     OW76044   3.639   0.520  10.028
24716SOL    HW176045   3.594   0.596  10.064
24716SOL    HW276046   3.680   0.479  10.104
24717SOL     OW76047  10.389   0.236   4.962
24717SOL    HW176048  10.435   0.250   5.045
24717SOL    HW276049  10.453   0.259   4.895
24718SOL     OW76050   6.700  14.115   2.349
24718SOL    HW176051   6.777  14.130   2.294
24718SOL    HW276052   6.636  14.178   2.318
24719SOL     OW76053   4.639   1.778   1.986
24719SOL    HW176054   4.600   1.694   1.962
24719SOL    HW276055   4.667   1.816   1.903
24720SOL     OW76056   9.731  10.217   3.278
24720SOL    HW176057   9.775  10.287   3.231
24720SOL    HW276058   9.739  10.141   3.220
24721SOL     OW76059  11.108   6.287   1.860
24721SOL    HW176060  11.138   6.344   1.931
24721SOL    HW276061  11.018   6.316   1.842
24722SOL     OW76062   4.573   1.034   5.689
24722SOL    HW176063   4.656   0.998   5.659
24722SOL    HW276064   4.529   1.062   5.609
24723SOL     OW76065   8.460   2.779   1.002
24723SOL    HW176066   8.425   2.692   0.983
24723SOL    HW276067   8.548   2.778   0.963
24724SOL     OW76068   5.599  14.669  13.699
24724SOL    HW176069   5.598  14.701  13.790
24724SOL    HW276070   5.562  14.581  13.704
24725SOL     OW76071   5.538   0.553   3.619
24725SOL    HW176072   5.570   0.463   3.609
24725SOL    HW276073   5.448   0.544   3.650
24726SOL     OW76074   4.883   6.735   2.172
24726SOL    HW176075   4.861   6.789   2.248
24726SOL    HW276076   4.978   6.744   2.163
24727SOL     OW76077   3.274   9.233   3.421
24727SOL    HW176078   3.252   9.222   3.514
24727SOL    HW276079   3.332   9.308   3.419
24728SOL     OW76080  13.033   5.039   0.049
24728SOL    HW176081  13.117   5.041   0.096
24728SOL    HW276082  12.974   5.089   0.105
24729SOL     OW76083   8.312   4.943   1.744
24729SOL    HW176084   8.299   4.905   1.831
24729SOL    HW276085   8.364   4.879   1.697
24730SOL     OW76086   1.932   1.733   0.280
24730SOL    HW176087   1.919   1.715   0.373
24730SOL    HW276088   1.952   1.648   0.241
24731SOL     OW76089  14.480   2.896   6.415
24731SOL    HW176090  14.433   2.948   6.349
24731SOL    HW276091  14.495   2.812   6.372
24732SOL     OW76092  11.134  11.748  11.386
24732SOL    HW176093  11.196  11.731  11.315
24732SOL    HW276094  11.170  11.701  11.461
24733SOL     OW76095   9.557   5.699   1.673
24733SOL    HW176096   9.566   5.689   1.767
24733SOL    HW276097   9.587   5.788   1.655
24734SOL     OW76098   7.410   2.781  14.485
24734SOL    HW176099   7.336   2.812  14.537
24734SOL    HW276100   7.408   2.686  14.496
24735SOL     OW76101   6.389  14.324   7.581
24735SOL    HW176102   6.429  14.301   7.666
24735SOL    HW276103   6.333  14.399   7.600
24736SOL     OW76104   3.068  14.168   7.346
24736SOL    HW176105   2.996  14.226   7.321
24736SOL    HW276106   3.103  14.135   7.263
24737SOL     OW76107   7.299   8.680  10.902
24737SOL    HW176108   7.342   8.762  10.925
24737SOL    HW276109   7.219   8.706  10.856
24738SOL     OW76110   8.422   1.848  12.394
24738SOL    HW176111   8.514   1.871  12.389
24738SOL    HW276112   8.379   1.905  12.330
24739SOL     OW76113   4.176   5.656   3.687
24739SOL    HW176114   4.119   5.665   3.611
24739SOL    HW276115   4.134   5.589   3.741
24740SOL     OW76116  14.692   0.921   4.728
24740SOL    HW176117  14.662   1.006   4.761
24740SOL    HW276118  14.741   0.883   4.801
24741SOL     OW76119   4.487  13.659   8.725
24741SOL    HW176120   4.524  13.579   8.761
24741SOL    HW276121   4.514  13.659   8.633
24742SOL     OW76122  11.865   2.524   7.631
24742SOL    HW176123  11.926   2.584   7.675
24742SOL    HW276124  11.832   2.574   7.557
24743SOL     OW76125   7.207  10.694  10.883
24743SOL    HW176126   7.155  10.710  10.804
24743SOL    HW276127   7.289  10.741  10.867
24744SOL     OW76128   5.713  11.779  11.557
24744SOL    HW176129   5.671  11.753  11.475
24744SOL    HW276130   5.660  11.852  11.590
24745SOL     OW76131  13.619   8.928  11.017
24745SOL    HW176132  13.587   9.006  10.973
24745SOL    HW276133  13.556   8.912  11.088
24746SOL     OW76134  14.014  11.351  14.748
24746SOL    HW176135  13.934  11.306  14.775
24746SOL    HW276136  14.032  11.413  14.818
24747SOL     OW76137  13.893   6.409  13.563
24747SOL    HW176138  13.915   6.481  13.623
24747SOL    HW276139  13.861   6.453  13.484
24748SOL     OW76140  12.275   3.811   7.336
24748SOL    HW176141  12.360   3.839   7.304
24748SOL    HW276142  12.259   3.865   7.413
24749SOL     OW76143  10.401   0.903   8.603
24749SOL    HW176144  10.479   0.955   8.586
24749SOL    HW276145  10.401   0.891   8.698
24750SOL     OW76146  11.758   6.796   7.272
24750SOL    HW176147  11.784   6.865   7.211
24750SOL    HW276148  11.713   6.731   7.217
24751SOL     OW76149   3.277   8.748   4.434
24751SOL    HW176150   3.235   8.789   4.358
24751SOL    HW276151   3.341   8.688   4.397
24752SOL     OW76152   7.227  13.380   0.550
24752SOL    HW176153   7.155  13.427   0.510
24752SOL    HW276154   7.277  13.344   0.476
24753SOL     OW76155  14.762  10.880  12.838
24753SOL    HW176156  14.790  10.817  12.905
24753SOL    HW276157  14.693  10.835  12.790
24754SOL     OW76158  10.326  14.470   2.766
24754SOL    HW176159  10.304  14.501   2.854
24754SOL    HW276160  10.422  14.466   2.766
24755SOL     OW76161  14.215   9.238   9.004
24755SOL    HW176162  14.309   9.238   8.987
24755SOL    HW276163  14.206   9.199   9.091
24756SOL     OW76164   3.047  11.017   6.940
24756SOL    HW176165   3.124  10.986   6.894
24756SOL    HW276166   3.081  11.064   7.016
24757SOL     OW76167  14.441   5.647   9.283
24757SOL    HW176168  14.489   5.566   9.267
24757SOL    HW276169  14.356   5.619   9.316
24758SOL     OW76170   0.364  10.255  13.385
24758SOL    HW176171   0.284  10.214  13.419
24758SOL    HW276172   0.334  10.302  13.307
24759SOL     OW76173   4.503   6.304   1.157
24759SOL    HW176174   4.473   6.353   1.233
24759SOL    HW276175   4.485   6.212   1.178
24760SOL     OW76176  13.398   6.109  12.782
24760SOL    HW176177  13.309   6.081  12.765
24760SOL    HW276178  13.389   6.198  12.818
24761SOL     OW76179   9.727   4.413  12.506
24761SOL    HW176180   9.757   4.436  12.418
24761SOL    HW276181   9.656   4.351  12.491
24762SOL     OW76182  12.535   2.902   5.948
24762SOL    HW176183  12.606   2.936   6.003
24762SOL    HW276184  12.527   2.810   5.971
24763SOL     OW76185   3.597   8.119  11.508
24763SOL    HW176186   3.675   8.116  11.564
24763SOL    HW276187   3.571   8.211  11.509
24764SOL     OW76188  10.488   0.145   6.405
24764SOL    HW176189  10.576   0.182   6.415
24764SOL    HW276190  10.434   0.219   6.379
24765SOL     OW76191  10.494   7.447   3.789
24765SOL    HW176192  10.453   7.396   3.859
24765SOL    HW276193  10.570   7.487   3.831
24766SOL     OW76194   8.105   6.556   4.575
24766SOL    HW176195   8.076   6.565   4.485
24766SOL    HW276196   8.063   6.629   4.621
24767SOL     OW76197   9.614   7.639   7.667
24767SOL    HW176198   9.522   7.654   7.691
24767SOL    HW276199   9.623   7.544   7.664
24768SOL     OW76200   7.673   6.931   3.441
24768SOL    HW176201   7.665   6.915   3.347
24768SOL    HW276202   7.697   6.846   3.479
24769SOL     OW76203  11.760  14.673  11.477
24769SOL    HW176204  11.809  14.716  11.407
24769SOL    HW276205  11.793  14.713  11.558
24770SOL     OW76206   9.204   2.645   8.247
24770SOL    HW176207   9.192   2.568   8.192
24770SOL    HW276208   9.120   2.691   8.243
24771SOL     OW76209   5.345   3.060   7.476
24771SOL    HW176210   5.257   3.058   7.513
24771SOL    HW276211   5.365   2.968   7.457
24772SOL     OW76212   2.036  13.557  14.551
24772SOL    HW176213   2.005  13.597  14.632
24772SOL    HW276214   1.984  13.477  14.543
24773SOL     OW76215   4.382   4.208   4.709
24773SOL    HW176216   4.292   4.240   4.720
24773SOL    HW276217   4.435   4.274   4.753
24774SOL     OW76218   8.920   0.617  14.460
24774SOL    HW176219   8.951   0.527  14.455
24774SOL    HW276220   9.000   0.670  14.465
24775SOL     OW76221   3.274   9.805   2.469
24775SOL    HW176222   3.315   9.745   2.530
24775SOL    HW276223   3.184   9.774   2.461
24776SOL     OW76224   3.709  11.910  12.374
24776SOL    HW176225   3.765  11.960  12.433
24776SOL    HW276226   3.768  11.850  12.329
24777SOL     OW76227   8.393   8.511  13.579
24777SOL    HW176228   8.343   8.431  13.592
24777SOL    HW276229   8.409   8.514  13.485
24778SOL     OW76230   3.892   6.166   8.287
24778SOL    HW176231   3.856   6.254   8.289
24778SOL    HW276232   3.896   6.143   8.194
24779SOL     OW76233  12.286   3.069  13.585
24779SOL    HW176234  12.347   3.131  13.545
24779SOL    HW276235  12.234   3.122  13.645
24780SOL     OW76236   1.008   5.072   3.181
24780SOL    HW176237   1.077   5.110   3.236
24780SOL    HW276238   1.020   4.978   3.190
24781SOL     OW76239  13.042  13.388   7.391
24781SOL    HW176240  12.959  13.426   7.362
24781SOL    HW276241  13.106  13.457   7.375
24782SOL     OW76242   7.033  12.148  12.471
24782SOL    HW176243   7.099  12.208  12.437
24782SOL    HW276244   6.958  12.204  12.492
24783SOL     OW76245   5.579   7.190   0.051
24783SOL    HW176246   5.575   7.257   0.120
24783SOL    HW276247   5.496   7.197   0.005
24784SOL     OW76248   1.361   0.285   7.276
24784SOL    HW176249   1.358   0.208   7.332
24784SOL    HW276250   1.411   0.257   7.200
24785SOL     OW76251  12.603   6.393   5.936
24785SOL    HW176252  12.681   6.391   5.880
24785SOL    HW276253  12.612   6.316   5.992
24786SOL     OW76254   8.188  11.650   2.180
24786SOL    HW176255   8.105  11.634   2.225
24786SOL    HW276256   8.234  11.713   2.235
24787SOL     OW76257  14.386   6.212  13.412
24787SOL    HW176258  14.367   6.124  13.446
24787SOL    HW276259  14.413   6.198  13.321
24788SOL     OW76260   4.799  13.953  12.456
24788SOL    HW176261   4.792  13.862  12.429
24788SOL    HW276262   4.776  14.003  12.377
24789SOL     OW76263  11.536   6.208   6.955
24789SOL    HW176264  11.541   6.211   6.860
24789SOL    HW276265  11.469   6.142   6.974
24790SOL     OW76266   6.836  11.296   3.833
24790SOL    HW176267   6.863  11.289   3.924
24790SOL    HW276268   6.865  11.383   3.805
24791SOL     OW76269   7.294   4.088  13.790
24791SOL    HW176270   7.346   4.050  13.860
24791SOL    HW276271   7.207   4.048  13.800
24792SOL     OW76272   4.285  11.971  13.809
24792SOL    HW176273   4.290  11.968  13.905
24792SOL    HW276274   4.356  12.031  13.783
24793SOL     OW76275  12.887  14.691  11.599
24793SOL    HW176276  12.885  14.717  11.508
24793SOL    HW276277  12.803  14.648  11.615
24794SOL     OW76278  14.601   9.350  14.388
24794SOL    HW176279  14.659   9.425  14.372
24794SOL    HW276280  14.591   9.309  14.302
24795SOL     OW76281  10.126  14.378   9.091
24795SOL    HW176282  10.050  14.436   9.095
24795SOL    HW276283  10.103  14.313   9.024
24796SOL     OW76284   2.848  13.186   3.389
24796SOL    HW176285   2.902  13.118   3.431
24796SOL    HW276286   2.892  13.205   3.307
24797SOL     OW76287   8.284   7.953   1.880
24797SOL    HW176288   8.307   7.913   1.796
24797SOL    HW276289   8.270   8.045   1.860
24798SOL     OW76290   3.377  13.610  11.084
24798SOL    HW176291   3.417  13.669  11.147
24798SOL    HW276292   3.444  13.596  11.017
24799SOL     OW76293   3.586   8.549   4.378
24799SOL    HW176294   3.651   8.493   4.335
24799SOL    HW276295   3.506   8.536   4.327
24800SOL     OW76296   1.137   5.464  11.879
24800SOL    HW176297   1.054   5.484  11.922
24800SOL    HW276298   1.112   5.438  11.790
24801SOL     OW76299   9.812   3.770   8.263
24801SOL    HW176300   9.751   3.696   8.260
24801SOL    HW276301   9.835   3.779   8.355
24802SOL     OW76302   1.720  12.118   8.648
24802SOL    HW176303   1.804  12.148   8.614
24802SOL    HW276304   1.739  12.089   8.737
24803SOL     OW76305   9.294   3.162  11.614
24803SOL    HW176306   9.205   3.134  11.637
24803SOL    HW276307   9.289   3.257  11.611
24804SOL     OW76308  11.091  13.664   0.644
24804SOL    HW176309  11.154  13.617   0.697
24804SOL    HW276310  11.144  13.719   0.586
24805SOL     OW76311  10.827  10.013  12.925
24805SOL    HW176312  10.892  10.072  12.884
24805SOL    HW276313  10.743  10.056  12.910
24806SOL     OW76314   4.533   3.832  12.313
24806SOL    HW176315   4.619   3.812  12.350
24806SOL    HW276316   4.549   3.843  12.219
24807SOL     OW76317   8.431   9.979  10.260
24807SOL    HW176318   8.481   9.987  10.341
24807SOL    HW276319   8.364   9.913  10.280
24808SOL     OW76320   0.705   1.984   9.559
24808SOL    HW176321   0.769   1.994   9.630
24808SOL    HW276322   0.759   1.969   9.481
24809SOL     OW76323   6.426   5.076   0.162
24809SOL    HW176324   6.414   5.091   0.256
24809SOL    HW276325   6.375   5.144   0.120
24810SOL     OW76326   7.729  11.578   0.886
24810SOL    HW176327   7.666  11.588   0.958
24810SOL    HW276328   7.786  11.507   0.914
24811SOL     OW76329   2.419   0.175  13.539
24811SOL    HW176330   2.397   0.248  13.480
24811SOL    HW276331   2.430   0.216  13.624
24812SOL     OW76332  12.233   2.895   8.951
24812SOL    HW176333  12.199   2.837   9.020
24812SOL    HW276334  12.299   2.949   8.995
24813SOL     OW76335   3.541  11.178   4.486
24813SOL    HW176336   3.582  11.214   4.564
24813SOL    HW276337   3.613  11.167   4.424
24814SOL     OW76338   8.547   4.151  10.559
24814SOL    HW176339   8.455   4.177  10.572
24814SOL    HW276340   8.584   4.221  10.505
24815SOL     OW76341   0.687  11.336  14.403
24815SOL    HW176342   0.710  11.258  14.453
24815SOL    HW276343   0.704  11.409  14.462
24816SOL     OW76344  12.123   2.804   2.623
24816SOL    HW176345  12.093   2.871   2.561
24816SOL    HW276346  12.218   2.813   2.624
24817SOL     OW76347  14.174   3.376   1.875
24817SOL    HW176348  14.241   3.355   1.809
24817SOL    HW276349  14.212   3.447   1.926
24818SOL     OW76350   7.681   5.539   5.197
24818SOL    HW176351   7.690   5.576   5.286
24818SOL    HW276352   7.626   5.602   5.150
24819SOL     OW76353  13.739  14.132   1.013
24819SOL    HW176354  13.687  14.116   1.092
24819SOL    HW276355  13.696  14.207   0.971
24820SOL     OW76356   7.206   5.214  14.314
24820SOL    HW176357   7.181   5.146  14.251
24820SOL    HW276358   7.291   5.186  14.347
24821SOL     OW76359   4.604   3.049  13.318
24821SOL    HW176360   4.661   2.980  13.351
24821SOL    HW276361   4.641   3.130  13.355
24822SOL     OW76362   2.152   2.658  12.593
24822SOL    HW176363   2.109   2.644  12.508
24822SOL    HW276364   2.197   2.576  12.611
24823SOL     OW76365  14.571  14.594   5.347
24823SOL    HW176366  14.501  14.645   5.388
24823SOL    HW276367  14.565  14.617   5.254
24824SOL     OW76368   8.861   0.253   6.156
24824SOL    HW176369   8.888   0.265   6.246
24824SOL    HW276370   8.767   0.238   6.160
24825SOL     OW76371  12.913  14.458   8.191
24825SOL    HW176372  13.002  14.486   8.214
24825SOL    HW276373  12.894  14.385   8.250
24826SOL     OW76374   8.776   6.337   3.907
24826SOL    HW176375   8.790   6.294   3.992
24826SOL    HW276376   8.822   6.421   3.915
24827SOL     OW76377  14.561   4.484  13.422
24827SOL    HW176378  14.516   4.440  13.350
24827SOL    HW276379  14.587   4.568  13.386
24828SOL     OW76380  10.378  10.145  11.593
24828SOL    HW176381  10.445  10.162  11.527
24828SOL    HW276382  10.401  10.203  11.666
24829SOL     OW76383   5.204   9.355   9.139
24829SOL    HW176384   5.294   9.329   9.157
24829SOL    HW276385   5.212   9.432   9.083
24830SOL     OW76386   9.062   0.253  10.254
24830SOL    HW176387   9.088   0.218  10.339
24830SOL    HW276388   9.023   0.178  10.209
24831SOL     OW76389   7.333   3.157  13.029
24831SOL    HW176390   7.305   3.223  12.965
24831SOL    HW276391   7.406   3.198  13.075
24832SOL     OW76392  14.497  11.826   9.640
24832SOL    HW176393  14.449  11.875   9.707
24832SOL    HW276394  14.569  11.884   9.614
24833SOL     OW76395   1.719   5.667   2.633
24833SOL    HW176396   1.785   5.700   2.694
24833SOL    HW276397   1.720   5.730   2.560
24834SOL     OW76398   6.880  12.910  13.408
24834SOL    HW176399   6.891  12.815  13.412
24834SOL    HW276400   6.924  12.942  13.487
24835SOL     OW76401  14.334   3.026   3.010
24835SOL    HW176402  14.336   3.115   2.977
24835SOL    HW276403  14.359   2.972   2.935
24836SOL     OW76404  11.288  13.134  12.128
24836SOL    HW176405  11.197  13.160  12.140
24836SOL    HW276406  11.295  13.050  12.172
24837SOL     OW76407   2.330   5.788   1.816
24837SOL    HW176408   2.375   5.814   1.735
24837SOL    HW276409   2.237   5.800   1.797
24838SOL     OW76410   8.459   4.033   6.252
24838SOL    HW176411   8.534   4.057   6.307
24838SOL    HW276412   8.423   3.954   6.294
24839SOL     OW76413   9.257   5.795   2.062
24839SOL    HW176414   9.343   5.764   2.093
24839SOL    HW276415   9.207   5.811   2.142
24840SOL     OW76416   6.987   7.884   3.099
24840SOL    HW176417   6.905   7.929   3.082
24840SOL    HW276418   7.046   7.914   3.029
24841SOL     OW76419   2.008  11.801   7.211
24841SOL    HW176420   2.014  11.770   7.302
24841SOL    HW276421   1.917  11.829   7.201
24842SOL     OW76422  14.524   0.376   7.145
24842SOL    HW176423  14.590   0.342   7.206
24842SOL    HW276424  14.544   0.469   7.138
24843SOL     OW76425  13.541   1.526   5.507
24843SOL    HW176426  13.604   1.459   5.534
24843SOL    HW276427  13.580   1.566   5.430
24844SOL     OW76428   6.897   8.821  10.889
24844SOL    HW176429   6.978   8.849  10.845
24844SOL    HW276430   6.828   8.870  10.844
24845SOL     OW76431  13.033   5.782   7.365
24845SOL    HW176432  12.954   5.795   7.313
24845SOL    HW276433  13.103   5.823   7.314
24846SOL     OW76434   0.297   2.314   1.737
24846SOL    HW176435   0.391   2.335   1.733
24846SOL    HW276436   0.256   2.396   1.766
24847SOL     OW76437  12.764   0.073  13.976
24847SOL    HW176438  12.808   0.008  14.031
24847SOL    HW276439  12.835   0.127  13.942
24848SOL     OW76440   4.436   9.286   6.924
24848SOL    HW176441   4.395   9.269   7.009
24848SOL    HW276442   4.445   9.199   6.885
24849SOL     OW76443  10.564  10.098  12.251
24849SOL    HW176444  10.560  10.192  12.233
24849SOL    HW276445  10.473  10.068  12.246
24850SOL     OW76446   6.871   8.979   0.608
24850SOL    HW176447   6.876   8.901   0.553
24850SOL    HW276448   6.778   8.992   0.623
24851SOL     OW76449   8.661   6.612  11.286
24851SOL    HW176450   8.652   6.517  11.288
24851SOL    HW276451   8.748   6.628  11.322
24852SOL     OW76452   4.360   1.465   1.458
24852SOL    HW176453   4.331   1.374   1.458
24852SOL    HW276454   4.310   1.506   1.528
24853SOL     OW76455   2.281   5.871   8.457
24853SOL    HW176456   2.285   5.947   8.398
24853SOL    HW276457   2.189   5.865   8.481
24854SOL     OW76458   4.355   0.208  10.282
24854SOL    HW176459   4.397   0.251  10.357
24854SOL    HW276460   4.363   0.270  10.210
24855SOL     OW76461  10.493  14.441   8.643
24855SOL    HW176462  10.438  14.499   8.591
24855SOL    HW276463  10.520  14.372   8.582
24856SOL     OW76464   6.580  11.703   2.692
24856SOL    HW176465   6.557  11.633   2.753
24856SOL    HW276466   6.546  11.783   2.732
24857SOL     OW76467  13.314   9.611  11.954
24857SOL    HW176468  13.304   9.653  12.040
24857SOL    HW276469  13.229   9.572  11.936
24858SOL     OW76470   3.288   9.179   7.139
24858SOL    HW176471   3.211   9.236   7.140
24858SOL    HW276472   3.261   9.102   7.189
24859SOL     OW76473   3.202   1.741   8.485
24859SOL    HW176474   3.258   1.766   8.412
24859SOL    HW276475   3.166   1.824   8.517
24860SOL     OW76476   9.633   0.479  10.524
24860SOL    HW176477   9.669   0.470  10.435
24860SOL    HW276478   9.542   0.453  10.516
24861SOL     OW76479  10.719   7.711  11.947
24861SOL    HW176480  10.747   7.802  11.945
24861SOL    HW276481  10.741   7.681  12.035
24862SOL     OW76482  11.575   3.120   2.857
24862SOL    HW176483  11.627   3.159   2.927
24862SOL    HW276484  11.485   3.125   2.889
24863SOL     OW76485  12.467   6.806   6.472
24863SOL    HW176486  12.423   6.890   6.459
24863SOL    HW276487  12.488   6.776   6.384
24864SOL     OW76488  10.803  12.383   9.152
24864SOL    HW176489  10.848  12.339   9.080
24864SOL    HW276490  10.728  12.427   9.111
24865SOL     OW76491   3.999  11.025   4.467
24865SOL    HW176492   4.089  10.992   4.476
24865SOL    HW276493   3.949  10.975   4.532
24866SOL     OW76494   9.308   5.221   0.421
24866SOL    HW176495   9.360   5.237   0.500
24866SOL    HW276496   9.264   5.138   0.439
24867SOL     OW76497  13.922   8.182   0.235
24867SOL    HW176498  13.877   8.099   0.246
24867SOL    HW276499  13.852   8.244   0.214
24868SOL     OW76500   4.333  11.209   2.486
24868SOL    HW176501   4.331  11.297   2.448
24868SOL    HW276502   4.245  11.175   2.472
24869SOL     OW76503  12.011   9.141   2.618
24869SOL    HW176504  11.917   9.138   2.634
24869SOL    HW276505  12.048   9.077   2.678
24870SOL     OW76506   8.854   7.967   1.083
24870SOL    HW176507   8.836   8.001   0.995
24870SOL    HW276508   8.943   7.932   1.077
24871SOL     OW76509   2.817   3.403   1.103
24871SOL    HW176510   2.806   3.308   1.100
24871SOL    HW276511   2.894   3.419   1.048
24872SOL     OW76512   8.758  10.318   9.433
24872SOL    HW176513   8.730  10.274   9.352
24872SOL    HW276514   8.829  10.375   9.406
24873SOL     OW76515  11.459   9.587   9.132
24873SOL    HW176516  11.406   9.666   9.124
24873SOL    HW276517  11.396   9.517   9.150
24874SOL     OW76518  10.355  14.812   0.310
24874SOL    HW176519  10.345  14.827   0.216
24874SOL    HW276520  10.438  14.854   0.332
24875SOL     OW76521  10.034  13.245   0.004
24875SOL    HW176522   9.967  13.303  14.836
24875SOL    HW276523  10.056  13.284   0.089
24876SOL     OW76524   5.309   9.057  14.648
24876SOL    HW176525   5.305   9.011  14.564
24876SOL    HW276526   5.259   9.137  14.634
24877SOL     OW76527   4.394   4.141   5.275
24877SOL    HW176528   4.320   4.106   5.325
24877SOL    HW276529   4.390   4.235   5.288
24878SOL     OW76530   1.643  10.526   6.148
24878SOL    HW176531   1.568  10.586   6.145
24878SOL    HW276532   1.688  10.548   6.230
24879SOL     OW76533   8.109  13.936   2.310
24879SOL    HW176534   8.084  13.867   2.371
24879SOL    HW276535   8.100  13.895   2.223
24880SOL     OW76536   1.749  10.725  13.041
24880SOL    HW176537   1.681  10.678  13.088
24880SOL    HW276538   1.734  10.817  13.063
24881SOL     OW76539   6.641   6.132  11.158
24881SOL    HW176540   6.553   6.166  11.140
24881SOL    HW276541   6.675   6.107  11.072
24882SOL     OW76542   2.492   2.439   1.685
24882SOL    HW176543   2.399   2.434   1.705
24882SOL    HW276544   2.528   2.498   1.752
24883SOL     OW76545   3.627   1.554   5.493
24883SOL    HW176546   3.623   1.602   5.576
24883SOL    HW276547   3.573   1.606   5.433
24884SOL     OW76548   1.796   1.754   7.392
24884SOL    HW176549   1.846   1.834   7.407
24884SOL    HW276550   1.761   1.731   7.479
24885SOL     OW76551   3.103   7.431  11.735
24885SOL    HW176552   3.074   7.481  11.658
24885SOL    HW276553   3.071   7.342  11.719
24886SOL     OW76554  11.001   0.683   4.070
24886SOL    HW176555  10.944   0.712   3.998
24886SOL    HW276556  10.944   0.683   4.147
24887SOL     OW76557  12.614   8.935   6.345
24887SOL    HW176558  12.556   8.934   6.269
24887SOL    HW276559  12.697   8.969   6.312
24888SOL     OW76560   6.612   0.780  14.387
24888SOL    HW176561   6.623   0.868  14.349
24888SOL    HW276562   6.645   0.788  14.476
24889SOL     OW76563   0.468   9.902   8.999
24889SOL    HW176564   0.490   9.860   8.916
24889SOL    HW276565   0.493   9.993   8.987
24890SOL     OW76566  13.124   8.924   5.441
24890SOL    HW176567  13.181   8.911   5.365
24890SOL    HW276568  13.180   8.906   5.517
24891SOL     OW76569   1.039   9.451  10.089
24891SOL    HW176570   0.963   9.478  10.140
24891SOL    HW276571   1.058   9.526  10.033
24892SOL     OW76572   6.498   3.090   8.359
24892SOL    HW176573   6.482   3.014   8.414
24892SOL    HW276574   6.584   3.073   8.320
24893SOL     OW76575   2.769   1.262   0.484
24893SOL    HW176576   2.810   1.240   0.400
24893SOL    HW276577   2.830   1.228   0.550
24894SOL     OW76578   5.130  12.550  12.893
24894SOL    HW176579   5.205  12.562  12.951
24894SOL    HW276580   5.083  12.476  12.930
24895SOL     OW76581  14.020   0.596   4.449
24895SOL    HW176582  13.952   0.531   4.431
24895SOL    HW276583  14.049   0.575   4.538
24896SOL     OW76584  10.129   1.478  12.105
24896SOL    HW176585  10.177   1.555  12.134
24896SOL    HW276586  10.082   1.507  12.027
24897SOL     OW76587   1.676  10.462  12.209
24897SOL    HW176588   1.658  10.370  12.190
24897SOL    HW276589   1.607  10.510  12.164
24898SOL     OW76590   2.993  12.523   0.632
24898SOL    HW176591   3.004  12.468   0.554
24898SOL    HW276592   2.907  12.498   0.666
24899SOL     OW76593  12.451   0.051   1.408
24899SOL    HW176594  12.385   0.118   1.390
24899SOL    HW276595  12.440   0.032   1.501
24900SOL     OW76596  13.490   6.480   6.845
24900SOL    HW176597  13.455   6.547   6.787
24900SOL    HW276598  13.580   6.507   6.863
24901SOL     OW76599   4.105  11.056   4.209
24901SOL    HW176600   4.095  11.065   4.304
24901SOL    HW276601   4.017  11.040   4.177
24902SOL     OW76602  14.266  10.823   2.516
24902SOL    HW176603  14.289  10.852   2.605
24902SOL    HW276604  14.303  10.891   2.459
24903SOL     OW76605  14.502   9.068  12.029
24903SOL    HW176606  14.543   9.146  12.068
24903SOL    HW276607  14.531   9.069  11.938
24904SOL     OW76608  10.868   7.623  14.640
24904SOL    HW176609  10.942   7.679  14.617
24904SOL    HW276610  10.827   7.666  14.714
24905SOL     OW76611  11.952   2.447  10.228
24905SOL    HW176612  11.942   2.395  10.148
24905SOL    HW276613  11.910   2.531  10.208
24906SOL     OW76614   8.185  13.443   4.208
24906SOL    HW176615   8.209  13.374   4.146
24906SOL    HW276616   8.266  13.463   4.255
24907SOL     OW76617   2.183   9.752   8.081
24907SOL    HW176618   2.270   9.786   8.103
24907SOL    HW276619   2.175   9.765   7.987
24908SOL     OW76620   1.356   2.882  12.204
24908SOL    HW176621   1.423   2.814  12.215
24908SOL    HW276622   1.324   2.870  12.115
24909SOL     OW76623   3.075   5.552  12.663
24909SOL    HW176624   3.091   5.484  12.730
24909SOL    HW276625   3.152   5.609  12.670
24910SOL     OW76626   2.022  11.335   3.043
24910SOL    HW176627   1.963  11.260   3.037
24910SOL    HW276628   2.044  11.356   2.953
24911SOL     OW76629   1.897   0.529   3.442
24911SOL    HW176630   1.987   0.498   3.434
24911SOL    HW276631   1.844   0.462   3.399
24912SOL     OW76632   2.819   8.418   4.299
24912SOL    HW176633   2.845   8.336   4.255
24912SOL    HW276634   2.801   8.478   4.227
24913SOL     OW76635   0.095  13.419   8.040
24913SOL    HW176636   0.131  13.330   8.044
24913SOL    HW276637   0.007  13.407   8.002
24914SOL     OW76638   8.974   0.799   5.449
24914SOL    HW176639   9.064   0.823   5.428
24914SOL    HW276640   8.975   0.787   5.544
24915SOL     OW76641   6.330  12.699   0.306
24915SOL    HW176642   6.295  12.638   0.372
24915SOL    HW276643   6.421  12.711   0.330
24916SOL     OW76644   1.761   8.101   9.395
24916SOL    HW176645   1.702   8.142   9.331
24916SOL    HW276646   1.841   8.085   9.346
24917SOL     OW76647   0.874   6.346   4.732
24917SOL    HW176648   0.819   6.316   4.659
24917SOL    HW276649   0.938   6.404   4.691
24918SOL     OW76650  13.752   1.123   8.399
24918SOL    HW176651  13.704   1.103   8.479
24918SOL    HW276652  13.714   1.066   8.333
24919SOL     OW76653  14.386  13.272   6.568
24919SOL    HW176654  14.352  13.222   6.493
24919SOL    HW276655  14.437  13.208   6.618
24920SOL     OW76656   8.782  13.428   1.897
24920SOL    HW176657   8.800  13.334   1.906
24920SOL    HW276658   8.744  13.453   1.981
24921SOL     OW76659   4.017   1.867   7.827
24921SOL    HW176660   4.056   1.783   7.852
24921SOL    HW276661   3.973   1.849   7.744
24922SOL     OW76662  11.890   1.527   3.947
24922SOL    HW176663  11.900   1.622   3.941
24922SOL    HW276664  11.980   1.493   3.944
24923SOL     OW76665   8.631   7.828  14.197
24923SOL    HW176666   8.601   7.911  14.234
24923SOL    HW276667   8.725   7.837  14.189
24924SOL     OW76668   5.984   8.466  11.601
24924SOL    HW176669   5.996   8.423  11.686
24924SOL    HW276670   6.066   8.514  11.586
24925SOL     OW76671  13.202  14.310   6.398
24925SOL    HW176672  13.218  14.243   6.332
24925SOL    HW276673  13.289  14.332   6.431
24926SOL     OW76674   5.675   1.317   9.707
24926SOL    HW176675   5.707   1.338   9.795
24926SOL    HW276676   5.752   1.282   9.661
24927SOL     OW76677   7.158  10.209   6.196
24927SOL    HW176678   7.210  10.248   6.267
24927SOL    HW276679   7.218  10.206   6.122
24928SOL     OW76680  13.500  13.750  14.359
24928SOL    HW176681  13.493  13.844  14.379
24928SOL    HW276682  13.567  13.718  14.419
24929SOL     OW76683   6.964   3.562   2.307
24929SOL    HW176684   7.040   3.598   2.352
24929SOL    HW276685   6.889   3.588   2.362
24930SOL     OW76686  14.235   1.599  14.542
24930SOL    HW176687  14.151   1.554  14.547
24930SOL    HW276688  14.222   1.667  14.475
24931SOL     OW76689  14.775   2.014   4.598
24931SOL    HW176690  14.808   2.093   4.556
24931SOL    HW276691  14.830   2.003   4.676
24932SOL     OW76692   2.011   3.063  10.151
24932SOL    HW176693   2.017   2.986  10.208
24932SOL    HW276694   2.065   3.129  10.193
24933SOL     OW76695  11.706   1.195   1.693
24933SOL    HW176696  11.683   1.275   1.740
24933SOL    HW276697  11.654   1.198   1.613
24934SOL     OW76698   4.253  13.129   9.444
24934SOL    HW176699   4.182  13.084   9.400
24934SOL    HW276700   4.303  13.170   9.374
24935SOL     OW76701   5.330   8.360   9.092
24935SOL    HW176702   5.294   8.272   9.092
24935SOL    HW276703   5.365   8.372   9.181
24936SOL     OW76704   1.096   4.284   6.081
24936SOL    HW176705   1.038   4.355   6.055
24936SOL    HW276706   1.170   4.289   6.021
24937SOL     OW76707   6.274   5.861   2.649
24937SOL    HW176708   6.359   5.850   2.606
24937SOL    HW276709   6.211   5.827   2.586
24938SOL     OW76710  12.880   6.755   2.047
24938SOL    HW176711  12.878   6.774   1.954
24938SOL    HW276712  12.788   6.738   2.070
24939SOL     OW76713   7.291   1.927   1.095
24939SOL    HW176714   7.346   1.849   1.104
24939SOL    HW276715   7.229   1.920   1.167
24940SOL     OW76716   9.178   2.161   4.612
24940SOL    HW176717   9.097   2.152   4.661
24940SOL    HW276718   9.238   2.097   4.651
24941SOL     OW76719  10.151  10.396   1.532
24941SOL    HW176720  10.198  10.334   1.477
24941SOL    HW276721  10.179  10.374   1.621
24942SOL     OW76722  10.689   8.373   4.194
24942SOL    HW176723  10.647   8.424   4.262
24942SOL    HW276724  10.776   8.352   4.229
24943SOL     OW76725  10.630   7.821   6.060
24943SOL    HW176726  10.695   7.822   6.131
24943SOL    HW276727  10.551   7.786   6.100
24944SOL     OW76728   2.452   0.193  11.912
24944SOL    HW176729   2.417   0.192  11.823
24944SOL    HW276730   2.392   0.249  11.961
24945SOL     OW76731  10.615  13.502  14.310
24945SOL    HW176732  10.686  13.557  14.275
24945SOL    HW276733  10.558  13.487  14.235
24946SOL     OW76734   7.961   9.701   9.605
24946SOL    HW176735   8.022   9.678   9.676
24946SOL    HW276736   7.876   9.675   9.639
24947SOL     OW76737   3.202   4.409   5.662
24947SOL    HW176738   3.252   4.479   5.620
24947SOL    HW276739   3.194   4.437   5.753
24948SOL     OW76740   1.604   9.074   2.746
24948SOL    HW176741   1.650   8.997   2.713
24948SOL    HW276742   1.605   9.135   2.672
24949SOL     OW76743   0.204   8.817  13.355
24949SOL    HW176744   0.250   8.862  13.284
24949SOL    HW276745   0.274   8.773  13.403
24950SOL     OW76746   4.548   2.052  10.442
24950SOL    HW176747   4.584   2.050  10.530
24950SOL    HW276748   4.625   2.057  10.385
24951SOL     OW76749  11.616   4.540  10.782
24951SOL    HW176750  11.616   4.536  10.877
24951SOL    HW276751  11.696   4.587  10.760
24952SOL     OW76752   0.540  11.418  13.093
24952SOL    HW176753   0.538  11.323  13.089
24952SOL    HW276754   0.529  11.447  13.003
24953SOL     OW76755  12.018   3.701   9.616
24953SOL    HW176756  11.938   3.649   9.617
24953SOL    HW276757  12.040   3.712   9.524
24954SOL     OW76758  13.845  14.085   5.219
24954SOL    HW176759  13.934  14.094   5.255
24954SOL    HW276760  13.803  14.168   5.240
24955SOL     OW76761   5.739   6.109  14.035
24955SOL    HW176762   5.742   6.023  13.993
24955SOL    HW276763   5.802   6.103  14.106
24956SOL     OW76764  13.930   1.864   9.832
24956SOL    HW176765  13.980   1.913   9.897
24956SOL    HW276766  13.847   1.911   9.825
24957SOL     OW76767   3.897   9.949  11.851
24957SOL    HW176768   3.968   9.927  11.791
24957SOL    HW276769   3.906  10.043  11.867
24958SOL     OW76770   3.577   4.205   5.977
24958SOL    HW176771   3.671   4.222   5.976
24958SOL    HW276772   3.563   4.153   6.055
24959SOL     OW76773  13.563   2.390   8.881
24959SOL    HW176774  13.552   2.485   8.892
24959SOL    HW276775  13.598   2.360   8.965
24960SOL     OW76776   6.540   1.701   6.980
24960SOL    HW176777   6.584   1.621   7.008
24960SOL    HW276778   6.526   1.751   7.061
24961SOL     OW76779  13.563   1.606   1.907
24961SOL    HW176780  13.569   1.700   1.927
24961SOL    HW276781  13.551   1.565   1.993
24962SOL     OW76782  11.329  10.408   9.408
24962SOL    HW176783  11.371  10.420   9.493
24962SOL    HW276784  11.385  10.454   9.346
24963SOL     OW76785   6.414   8.181   4.694
24963SOL    HW176786   6.493   8.235   4.691
24963SOL    HW276787   6.444   8.095   4.723
24964SOL     OW76788   2.032  14.017  11.409
24964SOL    HW176789   2.040  14.112  11.399
24964SOL    HW276790   1.987  14.005  11.493
24965SOL     OW76791   0.652   2.959   4.825
24965SOL    HW176792   0.596   2.886   4.798
24965SOL    HW276793   0.598   3.037   4.813
24966SOL     OW76794   0.886   3.055   7.492
24966SOL    HW176795   0.822   3.002   7.446
24966SOL    HW276796   0.853   3.060   7.582
24967SOL     OW76797  10.987   1.843   8.933
24967SOL    HW176798  11.050   1.779   8.900
24967SOL    HW276799  11.007   1.924   8.886
24968SOL     OW76800   1.957   7.505   5.914
24968SOL    HW176801   2.040   7.552   5.912
24968SOL    HW276802   1.906   7.542   5.842
24969SOL     OW76803   5.650   1.390   3.885
24969SOL    HW176804   5.689   1.326   3.944
24969SOL    HW276805   5.577   1.343   3.843
24970SOL     OW76806   8.268  10.338  11.883
24970SOL    HW176807   8.350  10.382  11.864
24970SOL    HW276808   8.231  10.385  11.958
24971SOL     OW76809   3.630   3.845   7.280
24971SOL    HW176810   3.605   3.915   7.220
24971SOL    HW276811   3.718   3.820   7.254
24972SOL     OW76812   7.127   3.942   7.227
24972SOL    HW176813   7.058   3.894   7.180
24972SOL    HW276814   7.089   4.027   7.245
24973SOL     OW76815  13.650  11.654  11.887
24973SOL    HW176816  13.683  11.566  11.904
24973SOL    HW276817  13.557  11.650  11.910
24974SOL     OW76818  12.303  11.520   0.517
24974SOL    HW176819  12.297  11.487   0.607
24974SOL    HW276820  12.268  11.609   0.522
24975SOL     OW76821   1.638  11.474   9.629
24975SOL    HW176822   1.607  11.506   9.545
24975SOL    HW276823   1.577  11.511   9.693
24976SOL     OW76824   4.854   7.606   0.209
24976SOL    HW176825   4.861   7.520   0.166
24976SOL    HW276826   4.798   7.590   0.285
24977SOL     OW76827  14.112   4.932   1.185
24977SOL    HW176828  14.141   4.845   1.215
24977SOL    HW276829  14.030   4.948   1.232
24978SOL     OW76830  12.965   7.654  12.764
24978SOL    HW176831  12.950   7.716  12.692
24978SOL    HW276832  13.029   7.592  12.728
24979SOL     OW76833   9.774   7.379  11.906
24979SOL    HW176834   9.827   7.459  11.898
24979SOL    HW276835   9.799   7.343  11.991
24980SOL     OW76836   8.562   7.397   2.232
24980SOL    HW176837   8.622   7.329   2.201
24980SOL    HW276838   8.533   7.367   2.318
24981SOL     OW76839  14.859   0.271  13.782
24981SOL    HW176840  14.841   0.182  13.814
24981SOL    HW276841   0.018   0.320  13.860
24982SOL     OW76842  14.159   6.529   7.888
24982SOL    HW176843  14.179   6.587   7.962
24982SOL    HW276844  14.244   6.498   7.857
24983SOL     OW76845   4.268  11.733  12.211
24983SOL    HW176846   4.277  11.806  12.150
24983SOL    HW276847   4.321  11.663  12.173
24984SOL     OW76848   2.304   5.020   5.872
24984SOL    HW176849   2.261   5.094   5.914
24984SOL    HW276850   2.349   5.057   5.797
24985SOL     OW76851  14.067   6.714   1.876
24985SOL    HW176852  14.072   6.807   1.898
24985SOL    HW276853  13.986   6.684   1.918
24986SOL     OW76854   5.411  14.416   5.692
24986SOL    HW176855   5.445  14.366   5.618
24986SOL    HW276856   5.447  14.504   5.680
24987SOL     OW76857  12.222  12.039  10.051
24987SOL    HW176858  12.178  11.965  10.009
24987SOL    HW276859  12.215  12.110   9.987
24988SOL     OW76860   9.109  12.933   5.061
24988SOL    HW176861   9.174  12.884   5.012
24988SOL    HW276862   9.158  12.970   5.135
24989SOL     OW76863   3.556   0.828   0.897
24989SOL    HW176864   3.635   0.775   0.884
24989SOL    HW276865   3.498   0.771   0.947
24990SOL     OW76866   3.284   8.666   5.976
24990SOL    HW176867   3.325   8.628   5.899
24990SOL    HW276868   3.192   8.643   5.969
24991SOL     OW76869   3.732   9.297  10.423
24991SOL    HW176870   3.728   9.256  10.509
24991SOL    HW276871   3.704   9.387  10.438
24992SOL     OW76872  13.298  14.852   9.004
24992SOL    HW176873  13.386   0.021   9.018
24992SOL    HW276874  13.241   0.036   9.061
24993SOL     OW76875   4.191  14.462   4.123
24993SOL    HW176876   4.222  14.428   4.039
24993SOL    HW276877   4.271  14.482   4.171
24994SOL     OW76878   5.498   9.095   5.292
24994SOL    HW176879   5.422   9.038   5.276
24994SOL    HW276880   5.573   9.041   5.270
24995SOL     OW76881   0.605  10.163  12.201
24995SOL    HW176882   0.562  10.236  12.245
24995SOL    HW276883   0.696  10.192  12.188
24996SOL     OW76884   6.440  14.731   0.115
24996SOL    HW176885   6.473  14.812   0.075
24996SOL    HW276886   6.372  14.700   0.055
24997SOL     OW76887   8.586  11.842   9.146
24997SOL    HW176888   8.529  11.919   9.152
24997SOL    HW276889   8.526  11.768   9.138
24998SOL     OW76890   7.588   2.094   2.672
24998SOL    HW176891   7.592   2.162   2.605
24998SOL    HW276892   7.543   2.136   2.745
24999SOL     OW76893   5.674   2.855   0.935
24999SOL    HW176894   5.719   2.833   1.017
24999SOL    HW276895   5.641   2.944   0.950
25000SOL     OW76896   4.845   9.573   1.577
25000SOL    HW176897   4.804   9.486   1.579
25000SOL    HW276898   4.832   9.607   1.666
25001SOL     OW76899   1.123   5.607   7.254
25001SOL    HW176900   1.102   5.518   7.281
25001SOL    HW276901   1.073   5.620   7.173
25002SOL     OW76902   6.924   9.558  13.724
25002SOL    HW176903   7.007   9.574  13.679
25002SOL    HW276904   6.878   9.496  13.669
25003SOL     OW76905   9.669   3.808   1.430
25003SOL    HW176906   9.740   3.785   1.490
25003SOL    HW276907   9.592   3.817   1.486
25004SOL     OW76908   2.417   1.026   1.083
25004SOL    HW176909   2.321   1.018   1.081
25004SOL    HW276910   2.444   1.021   0.992
25005SOL     OW76911   3.403   2.843   1.212
25005SOL    HW176912   3.315   2.808   1.230
25005SOL    HW276913   3.399   2.934   1.241
25006SOL     OW76914   4.274   3.791   1.438
25006SOL    HW176915   4.329   3.793   1.360
25006SOL    HW276916   4.324   3.838   1.505
25007SOL     OW76917   7.251   5.653  10.745
25007SOL    HW176918   7.179   5.625  10.802
25007SOL    HW276919   7.222   5.629  10.657
25008SOL     OW76920   6.219   1.008  10.577
25008SOL    HW176921   6.233   1.096  10.542
25008SOL    HW276922   6.124   1.003  10.592
25009SOL     OW76923   0.223  11.707   8.695
25009SOL    HW176924   0.288  11.660   8.643
25009SOL    HW276925   0.275  11.757   8.758
25010SOL     OW76926   4.879   1.683   2.110
25010SOL    HW176927   4.859   1.594   2.081
25010SOL    HW276928   4.799   1.732   2.092
25011SOL     OW76929   2.720   8.795   1.719
25011SOL    HW176930   2.651   8.862   1.718
25011SOL    HW276931   2.732   8.771   1.628
25012SOL     OW76932  11.915   7.968   5.333
25012SOL    HW176933  11.947   7.924   5.411
25012SOL    HW276934  11.820   7.956   5.335
25013SOL     OW76935   6.857   4.558  14.549
25013SOL    HW176936   6.829   4.624  14.612
25013SOL    HW276937   6.807   4.480  14.572
25014SOL     OW76938   6.844  11.627   7.905
25014SOL    HW176939   6.775  11.565   7.931
25014SOL    HW276940   6.926  11.578   7.918
25015SOL     OW76941   7.765   6.610   9.551
25015SOL    HW176942   7.701   6.569   9.493
25015SOL    HW276943   7.713   6.645   9.623
25016SOL     OW76944   1.848   7.593   0.693
25016SOL    HW176945   1.793   7.620   0.619
25016SOL    HW276946   1.808   7.513   0.725
25017SOL     OW76947   9.021  11.818   9.558
25017SOL    HW176948   8.983  11.731   9.565
25017SOL    HW276949   9.041  11.843   9.649
25018SOL     OW76950  12.947   4.174   1.423
25018SOL    HW176951  13.019   4.113   1.408
25018SOL    HW276952  12.974   4.225   1.499
25019SOL     OW76953   4.390   7.439  10.270
25019SOL    HW176954   4.320   7.399  10.322
25019SOL    HW276955   4.354   7.440  10.181
25020SOL     OW76956  11.067   8.220   5.494
25020SOL    HW176957  11.009   8.215   5.571
25020SOL    HW276958  11.016   8.179   5.424
25021SOL     OW76959   4.107   6.312  11.639
25021SOL    HW176960   4.091   6.405  11.658
25021SOL    HW276961   4.047   6.266  11.697
25022SOL     OW76962  14.023   4.439  11.274
25022SOL    HW176963  13.930   4.420  11.288
25022SOL    HW276964  14.032   4.448  11.179
25023SOL     OW76965   5.804   2.411   9.469
25023SOL    HW176966   5.866   2.396   9.540
25023SOL    HW276967   5.742   2.339   9.476
25024SOL     OW76968   5.060   7.866   3.332
25024SOL    HW176969   5.115   7.907   3.399
25024SOL    HW276970   4.994   7.818   3.382
25025SOL     OW76971   7.331   5.828   7.163
25025SOL    HW176972   7.392   5.759   7.136
25025SOL    HW276973   7.244   5.792   7.145
25026SOL     OW76974   3.295   8.825   5.479
25026SOL    HW176975   3.334   8.857   5.398
25026SOL    HW276976   3.220   8.883   5.495
25027SOL     OW76977   8.861  11.007   3.043
25027SOL    HW176978   8.774  11.035   3.071
25027SOL    HW276979   8.863  10.913   3.058
25028SOL     OW76980   0.907   9.343   0.404
25028SOL    HW176981   0.969   9.285   0.449
25028SOL    HW276982   0.822   9.321   0.444
25029SOL     OW76983  12.408  12.112   2.523
25029SOL    HW176984  12.413  12.202   2.492
25029SOL    HW276985  12.447  12.114   2.611
25030SOL     OW76986   3.080   2.367   7.598
25030SOL    HW176987   3.100   2.461   7.597
25030SOL    HW276988   3.011   2.359   7.664
25031SOL     OW76989  11.073  10.877   4.695
25031SOL    HW176990  11.164  10.848   4.700
25031SOL    HW276991  11.038  10.835   4.616
25032SOL     OW76992   1.231   2.901   4.490
25032SOL    HW176993   1.225   2.845   4.567
25032SOL    HW276994   1.321   2.892   4.460
25033SOL     OW76995  12.800   0.949   8.142
25033SOL    HW176996  12.735   0.879   8.152
25033SOL    HW276997  12.786   0.981   8.053
25034SOL     OW76998  14.638   0.855   2.201
25034SOL    HW176999  14.580   0.787   2.235
25034SOL    HW277000  14.581   0.929   2.182
25035SOL     OW77001   0.994   6.008  10.243
25035SOL    HW177002   1.066   6.035  10.300
25035SOL    HW277003   0.971   6.088  10.194
25036SOL     OW77004  12.517   1.570   2.039
25036SOL    HW177005  12.597   1.620   2.023
25036SOL    HW277006  12.480   1.555   1.951
25037SOL     OW77007  12.163   7.027  12.326
25037SOL    HW177008  12.217   7.010  12.249
25037SOL    HW277009  12.091   6.963  12.319
25038SOL     OW77010   3.460  11.942   0.011
25038SOL    HW177011   3.531  11.896  14.835
25038SOL    HW277012   3.431  11.881   0.079
25039SOL     OW77013  14.196   2.171  14.823
25039SOL    HW177014  14.289   2.195  14.813
25039SOL    HW277015  14.149   2.239  14.774
25040SOL     OW77016   5.589   8.837   8.051
25040SOL    HW177017   5.556   8.923   8.077
25040SOL    HW277018   5.510   8.784   8.038
25041SOL     OW77019   7.097  13.201   8.833
25041SOL    HW177020   7.153  13.209   8.755
25041SOL    HW277021   7.079  13.292   8.858
25042SOL     OW77022   1.983  13.778   4.158
25042SOL    HW177023   1.930  13.702   4.180
25042SOL    HW277024   2.062  13.742   4.117
25043SOL     OW77025   0.442  10.582  13.777
25043SOL    HW177026   0.409  10.617  13.860
25043SOL    HW277027   0.370  10.530  13.742
25044SOL     OW77028   9.156   7.988  13.734
25044SOL    HW177029   9.070   8.019  13.761
25044SOL    HW277030   9.173   7.913  13.790
25045SOL     OW77031  14.566   9.769  11.389
25045SOL    HW177032  14.526   9.696  11.436
25045SOL    HW277033  14.570   9.740  11.298
25046SOL     OW77034   9.973  11.525  14.835
25046SOL    HW177035  10.038  11.480   0.019
25046SOL    HW277036   9.892  11.519   0.018
25047SOL     OW77037   5.645  10.910   3.868
25047SOL    HW177038   5.717  10.973   3.864
25047SOL    HW277039   5.620  10.909   3.960
25048SOL     OW77040  11.501   6.363   4.051
25048SOL    HW177041  11.412   6.337   4.074
25048SOL    HW277042  11.520   6.438   4.108
25049SOL     OW77043  11.910  12.339  12.860
25049SOL    HW177044  11.815  12.351  12.851
25049SOL    HW277045  11.923  12.323  12.953
25050SOL     OW77046  13.172  12.356   2.435
25050SOL    HW177047  13.188  12.395   2.349
25050SOL    HW277048  13.115  12.282   2.418
25051SOL     OW77049  14.776  13.313  13.679
25051SOL    HW177050  14.714  13.321  13.752
25051SOL    HW277051  14.784  13.402  13.645
25052SOL     OW77052   4.014   2.248   6.057
25052SOL    HW177053   3.925   2.236   6.090
25052SOL    HW277054   4.023   2.182   5.988
25053SOL     OW77055   2.877   4.540   0.147
25053SOL    HW177056   2.969   4.564   0.156
25053SOL    HW277057   2.840   4.605   0.087
25054SOL     OW77058  13.587  12.447  10.903
25054SOL    HW177059  13.681  12.444  10.882
25054SOL    HW277060  13.575  12.531  10.946
25055SOL     OW77061   2.127   1.160   2.914
25055SOL    HW177062   2.127   1.224   2.843
25055SOL    HW277063   2.050   1.105   2.897
25056SOL     OW77064  14.303  13.265  14.823
25056SOL    HW177065  14.210  13.262  14.802
25056SOL    HW277066  14.313  13.342   0.011
25057SOL     OW77067   1.966   7.204   6.708
25057SOL    HW177068   2.016   7.226   6.629
25057SOL    HW277069   1.922   7.123   6.686
25058SOL     OW77070   6.507   6.291  10.001
25058SOL    HW177071   6.457   6.284  10.083
25058SOL    HW277072   6.579   6.229  10.012
25059SOL     OW77073   7.681   7.321  10.936
25059SOL    HW177074   7.775   7.340  10.941
25059SOL    HW277075   7.665   7.304  10.843
25060SOL     OW77076   2.021  11.093  14.085
25060SOL    HW177077   2.073  11.019  14.116
25060SOL    HW277078   2.076  11.169  14.100
25061SOL     OW77079  14.537  12.924   8.315
25061SOL    HW177080  14.538  12.857   8.246
25061SOL    HW277081  14.557  12.875   8.395
25062SOL     OW77082  10.652  11.377   3.833
25062SOL    HW177083  10.703  11.458   3.825
25062SOL    HW277084  10.718  11.308   3.840
25063SOL     OW77085   9.589   7.999   7.392
25063SOL    HW177086   9.561   7.908   7.384
25063SOL    HW277087   9.684   7.994   7.404
25064SOL     OW77088   1.278   6.858  10.184
25064SOL    HW177089   1.226   6.839  10.105
25064SOL    HW277090   1.302   6.772  10.218
25065SOL     OW77091   0.304  14.481   8.458
25065SOL    HW177092   0.299  14.413   8.391
25065SOL    HW277093   0.215  14.488   8.493
25066SOL     OW77094   9.661   6.597   3.848
25066SOL    HW177095   9.658   6.624   3.756
25066SOL    HW277096   9.690   6.676   3.894
25067SOL     OW77097   8.699   4.180   7.849
25067SOL    HW177098   8.647   4.260   7.857
25067SOL    HW277099   8.717   4.172   7.755
25068SOL     OW77100   1.529   0.558   0.529
25068SOL    HW177101   1.503   0.646   0.501
25068SOL    HW277102   1.528   0.506   0.449
25069SOL     OW77103  12.817  14.241   2.954
25069SOL    HW177104  12.866  14.261   2.874
25069SOL    HW277105  12.850  14.155   2.981
25070SOL     OW77106   9.763   8.068  14.067
25070SOL    HW177107   9.753   8.063  14.162
25070SOL    HW277108   9.674   8.059  14.033
25071SOL     OW77109   3.253   3.631   2.350
25071SOL    HW177110   3.281   3.627   2.258
25071SOL    HW277111   3.166   3.670   2.347
25072SOL     OW77112   2.753  14.798  11.774
25072SOL    HW177113   2.704  14.799  11.692
25072SOL    HW277114   2.790  14.710  11.779
25073SOL     OW77115   0.208  12.964  12.440
25073SOL    HW177116   0.133  12.996  12.390
25073SOL    HW277117   0.212  12.871  12.420
25074SOL     OW77118  10.446   7.404   0.516
25074SOL    HW177119  10.465   7.311   0.500
25074SOL    HW277120  10.377   7.403   0.582
25075SOL     OW77121   7.576   0.189  14.138
25075SOL    HW177122   7.494   0.140  14.137
25075SOL    HW277123   7.638   0.134  14.090
25076SOL     OW77124   0.393   8.293   9.141
25076SOL    HW177125   0.345   8.217   9.175
25076SOL    HW277126   0.476   8.292   9.190
25077SOL     OW77127  12.344   8.751   8.913
25077SOL    HW177128  12.417   8.703   8.875
25077SOL    HW277129  12.385   8.814   8.973
25078SOL     OW77130   0.193  10.161   7.134
25078SOL    HW177131   0.264  10.221   7.159
25078SOL    HW277132   0.116  10.217   7.127
25079SOL     OW77133   2.711   4.514   6.621
25079SOL    HW177134   2.660   4.558   6.554
25079SOL    HW277135   2.655   4.514   6.699
25080SOL     OW77136   2.024   0.321   3.277
25080SOL    HW177137   1.981   0.247   3.233
25080SOL    HW277138   2.057   0.375   3.205
25081SOL     OW77139   4.235  14.355  13.878
25081SOL    HW177140   4.158  14.363  13.821
25081SOL    HW277141   4.309  14.378  13.821
25082SOL     OW77142  12.868   8.001   7.936
25082SOL    HW177143  12.791   8.032   7.889
25082SOL    HW277144  12.834   7.939   8.000
25083SOL     OW77145  11.509   5.295  12.152
25083SOL    HW177146  11.564   5.327  12.224
25083SOL    HW277147  11.420   5.319  12.178
25084SOL     OW77148  10.293  13.561  10.371
25084SOL    HW177149  10.285  13.615  10.293
25084SOL    HW277150  10.210  13.512  10.374
25085SOL     OW77151  10.370   3.735   6.262
25085SOL    HW177152  10.376   3.782   6.345
25085SOL    HW277153  10.454   3.690   6.253
25086SOL     OW77154   5.694  12.927  11.837
25086SOL    HW177155   5.663  12.845  11.877
25086SOL    HW277156   5.634  12.943  11.764
25087SOL     OW77157  12.630   1.024   2.506
25087SOL    HW177158  12.710   0.994   2.550
25087SOL    HW277159  12.609   1.107   2.549
25088SOL     OW77160  12.041   0.163   2.459
25088SOL    HW177161  11.966   0.186   2.404
25088SOL    HW277162  12.105   0.233   2.443
25089SOL     OW77163   7.945  13.917   3.387
25089SOL    HW177164   7.906  13.843   3.433
25089SOL    HW277165   8.040  13.904   3.396
25090SOL     OW77166   2.454   4.419   9.459
25090SOL    HW177167   2.524   4.477   9.489
25090SOL    HW277168   2.381   4.478   9.440
25091SOL     OW77169   4.335  13.014  14.276
25091SOL    HW177170   4.313  13.057  14.194
25091SOL    HW277171   4.374  13.082  14.330
25092SOL     OW77172  11.393   2.703   7.600
25092SOL    HW177173  11.314   2.653   7.620
25092SOL    HW277174  11.383   2.785   7.649
25093SOL     OW77175   9.172  13.897   6.619
25093SOL    HW177176   9.131  13.981   6.639
25093SOL    HW277177   9.120  13.863   6.546
25094SOL     OW77178   0.608  10.569   4.625
25094SOL    HW177179   0.646  10.608   4.546
25094SOL    HW277180   0.571  10.643   4.673
25095SOL     OW77181   1.627   6.217   4.832
25095SOL    HW177182   1.709   6.230   4.879
25095SOL    HW277183   1.581   6.300   4.842
25096SOL     OW77184   9.468   4.457   4.018
25096SOL    HW177185   9.509   4.544   4.015
25096SOL    HW277186   9.379   4.472   3.986
25097SOL     OW77187  13.192  12.850  10.304
25097SOL    HW177188  13.282  12.879  10.315
25097SOL    HW277189  13.195  12.754  10.312
25098SOL     OW77190   0.821   6.060   7.831
25098SOL    HW177191   0.796   5.988   7.774
25098SOL    HW277192   0.801   6.139   7.781
25099SOL     OW77193  14.261   4.828  13.173
25099SOL    HW177194  14.279   4.909  13.126
25099SOL    HW277195  14.173   4.804  13.146
25100SOL     OW77196  11.615   2.247  14.558
25100SOL    HW177197  11.594   2.174  14.500
25100SOL    HW277198  11.559   2.234  14.635
25101SOL     OW77199   0.468  12.085   2.765
25101SOL    HW177200   0.533  12.054   2.828
25101SOL    HW277201   0.472  12.180   2.772
25102SOL     OW77202   0.330   8.279   1.806
25102SOL    HW177203   0.374   8.356   1.770
25102SOL    HW277204   0.402   8.226   1.842
25103SOL     OW77205  11.862   1.459   8.708
25103SOL    HW177206  11.899   1.473   8.621
25103SOL    HW277207  11.772   1.430   8.692
25104SOL     OW77208   8.535   8.138  13.756
25104SOL    HW177209   8.614   8.185  13.783
25104SOL    HW277210   8.555   8.108  13.667
25105SOL     OW77211  13.767   4.135  11.504
25105SOL    HW177212  13.756   4.119  11.598
25105SOL    HW277213  13.720   4.062  11.462
25106SOL     OW77214  14.493   9.702  10.407
25106SOL    HW177215  14.448   9.759  10.470
25106SOL    HW277216  14.422   9.661  10.357
25107SOL     OW77217  10.738   7.709  14.836
25107SOL    HW177218  10.770   7.682   0.054
25107SOL    HW277219  10.655   7.753  14.854
25108SOL     OW77220   0.080   9.598  10.439
25108SOL    HW177221   0.160   9.601  10.491
25108SOL    HW277222   0.027   9.671  10.472
25109SOL     OW77223   7.996   9.747   8.655
25109SOL    HW177224   7.956   9.779   8.736
25109SOL    HW277225   7.964   9.806   8.587
25110SOL     OW77226  12.824   4.579   8.834
25110SOL    HW177227  12.792   4.493   8.860
25110SOL    HW277228  12.913   4.584   8.868
25111SOL     OW77229  11.253   3.099  10.566
25111SOL    HW177230  11.241   3.015  10.610
25111SOL    HW277231  11.341   3.127  10.592
25112SOL     OW77232  12.143   4.789   8.014
25112SOL    HW177233  12.172   4.758   8.099
25112SOL    HW277234  12.121   4.709   7.965
25113SOL     OW77235  10.235   5.223   0.086
25113SOL    HW177236  10.224   5.274   0.166
25113SOL    HW277237  10.255   5.289   0.019
25114SOL     OW77238   5.032   3.155  13.379
25114SOL    HW177239   5.039   3.246  13.349
25114SOL    HW277240   4.938   3.139  13.384
25115SOL     OW77241   2.678   7.273   1.462
25115SOL    HW177242   2.670   7.292   1.555
25115SOL    HW277243   2.719   7.187   1.458
25116SOL     OW77244   4.083  12.212  13.785
25116SOL    HW177245   4.086  12.204  13.881
25116SOL    HW277246   4.159  12.266  13.764
25117SOL     OW77247  10.679   8.296  10.614
25117SOL    HW177248  10.729   8.310  10.534
25117SOL    HW277249  10.588   8.291  10.585
25118SOL     OW77250   1.318   2.451   9.110
25118SOL    HW177251   1.343   2.423   9.022
25118SOL    HW277252   1.259   2.383   9.141
25119SOL     OW77253   2.567   0.614  13.902
25119SOL    HW177254   2.522   0.570  13.974
25119SOL    HW277255   2.532   0.703  13.903
25120SOL     OW77256   7.987   8.443   8.652
25120SOL    HW177257   8.005   8.407   8.739
25120SOL    HW277258   7.967   8.535   8.667
25121SOL     OW77259   1.779  10.888   4.292
25121SOL    HW177260   1.863  10.927   4.316
25121SOL    HW277261   1.803  10.807   4.247
25122SOL     OW77262   5.213   3.545   4.157
25122SOL    HW177263   5.198   3.453   4.133
25122SOL    HW277264   5.163   3.557   4.238
25123SOL     OW77265  12.434   2.127  10.034
25123SOL    HW177266  12.487   2.207  10.029
25123SOL    HW277267  12.497   2.057  10.048
25124SOL     OW77268   2.481   7.299   0.499
25124SOL    HW177269   2.566   7.343   0.509
25124SOL    HW277270   2.453   7.281   0.589
25125SOL     OW77271   7.340   5.420  13.146
25125SOL    HW177272   7.262   5.366  13.132
25125SOL    HW277273   7.308   5.496  13.195
25126SOL     OW77274   9.134   2.562   6.075
25126SOL    HW177275   9.198   2.504   6.116
25126SOL    HW277276   9.063   2.503   6.047
25127SOL     OW77277   1.394  12.999  14.147
25127SOL    HW177278   1.442  12.931  14.195
25127SOL    HW277279   1.462  13.061  14.120
25128SOL     OW77280   4.592  12.807   4.247
25128SOL    HW177281   4.600  12.712   4.242
25128SOL    HW277282   4.681  12.840   4.233
25129SOL     OW77283  11.844   4.261   1.846
25129SOL    HW177284  11.907   4.193   1.871
25129SOL    HW277285  11.899   4.332   1.812
25130SOL     OW77286   3.584  12.280  11.099
25130SOL    HW177287   3.541  12.195  11.088
25130SOL    HW277288   3.512  12.344  11.094
25131SOL     OW77289  14.066  10.407  10.096
25131SOL    HW177290  14.059  10.483  10.038
25131SOL    HW277291  14.108  10.340  10.041
25132SOL     OW77292  12.755  12.363  11.522
25132SOL    HW177293  12.741  12.445  11.569
25132SOL    HW277294  12.742  12.295  11.587
25133SOL     OW77295   8.695   9.684   0.072
25133SOL    HW177296   8.672   9.718   0.158
25133SOL    HW277297   8.731   9.597   0.089
25134SOL     OW77298  11.178   1.900   2.391
25134SOL    HW177299  11.263   1.916   2.430
25134SOL    HW277300  11.149   1.817   2.429
25135SOL     OW77301  14.855   4.242   9.297
25135SOL    HW177302  14.857   4.148   9.279
25135SOL    HW277303  14.832   4.282   9.213
25136SOL     OW77304  10.049   8.797   5.648
25136SOL    HW177305  10.035   8.887   5.677
25136SOL    HW277306   9.965   8.770   5.612
25137SOL     OW77307  11.805  13.038   4.920
25137SOL    HW177308  11.808  13.051   5.015
25137SOL    HW277309  11.891  13.066   4.890
25138SOL     OW77310   0.754  11.947  13.955
25138SOL    HW177311   0.721  12.018  14.011
25138SOL    HW277312   0.839  11.924  13.993
25139SOL     OW77313   2.771   7.242  11.049
25139SOL    HW177314   2.737   7.158  11.081
25139SOL    HW277315   2.704   7.274  10.988
25140SOL     OW77316   9.064   6.763   3.752
25140SOL    HW177317   9.084   6.786   3.842
25140SOL    HW277318   9.146   6.729   3.716
25141SOL     OW77319  13.308   1.716   4.854
25141SOL    HW177320  13.246   1.648   4.828
25141SOL    HW277321  13.253   1.784   4.893
25142SOL     OW77322   4.250   0.951   2.852
25142SOL    HW177323   4.251   0.881   2.787
25142SOL    HW277324   4.161   0.951   2.887
25143SOL     OW77325  10.042   1.339  10.977
25143SOL    HW177326   9.955   1.342  10.937
25143SOL    HW277327  10.059   1.429  11.005
25144SOL     OW77328   4.721  10.859  12.134
25144SOL    HW177329   4.773  10.939  12.138
25144SOL    HW277330   4.639  10.881  12.179
25145SOL     OW77331  14.791  12.432  12.704
25145SOL    HW177332  14.701  12.460  12.686
25145SOL    HW277333  14.781  12.364  12.772
25146SOL     OW77334  13.616   4.966   4.008
25146SOL    HW177335  13.701   4.954   3.966
25146SOL    HW277336  13.606   4.890   4.064
25147SOL     OW77337  11.523   9.077   6.744
25147SOL    HW177338  11.435   9.095   6.777
25147SOL    HW277339  11.546   9.156   6.694
25148SOL     OW77340   1.209  13.370   6.388
25148SOL    HW177341   1.299  13.378   6.421
25148SOL    HW277342   1.205  13.283   6.349
25149SOL     OW77343  13.855   6.463   3.236
25149SOL    HW177344  13.940   6.437   3.201
25149SOL    HW277345  13.817   6.381   3.268
25150SOL     OW77346  11.631   6.699  13.936
25150SOL    HW177347  11.703   6.737  13.986
25150SOL    HW277348  11.641   6.734  13.847
25151SOL     OW77349  11.383   7.066  11.924
25151SOL    HW177350  11.315   7.115  11.971
25151SOL    HW277351  11.450   7.049  11.990
25152SOL     OW77352   4.256   5.139  12.355
25152SOL    HW177353   4.331   5.195  12.334
25152SOL    HW277354   4.273   5.057  12.311
25153SOL     OW77355   3.725   1.732   4.645
25153SOL    HW177356   3.783   1.804   4.668
25153SOL    HW277357   3.666   1.770   4.578
25154SOL     OW77358   9.517  11.306   2.617
25154SOL    HW177359   9.459  11.313   2.693
25154SOL    HW277360   9.508  11.215   2.589
25155SOL     OW77361   0.295   5.238   9.915
25155SOL    HW177362   0.323   5.249   9.824
25155SOL    HW277363   0.323   5.318   9.959
25156SOL     OW77364   0.276   8.320   1.480
25156SOL    HW177365   0.259   8.361   1.395
25156SOL    HW277366   0.219   8.368   1.541
25157SOL     OW77367   8.761  14.472  10.948
25157SOL    HW177368   8.681  14.509  10.909
25157SOL    HW277369   8.789  14.538  11.012
25158SOL     OW77370   0.248  11.447   8.013
25158SOL    HW177371   0.324  11.468   8.068
25158SOL    HW277372   0.201  11.380   8.063
25159SOL     OW77373   8.787   5.557   5.231
25159SOL    HW177374   8.836   5.589   5.155
25159SOL    HW277375   8.750   5.636   5.270
25160SOL     OW77376  14.186  12.435  10.691
25160SOL    HW177377  14.138  12.484  10.757
25160SOL    HW277378  14.218  12.501  10.630
25161SOL     OW77379   1.136   2.675   2.490
25161SOL    HW177380   1.231   2.671   2.482
25161SOL    HW277381   1.121   2.700   2.581
25162SOL     OW77382   0.072  14.238   5.506
25162SOL    HW177383   0.104  14.325   5.532
25162SOL    HW277384   0.109  14.179   5.572
25163SOL     OW77385   0.622  12.906  14.798
25163SOL    HW177386   0.558  12.843  14.832
25163SOL    HW277387   0.581  12.992  14.813
25164SOL     OW77388   5.761   5.964  13.147
25164SOL    HW177389   5.824   5.921  13.089
25164SOL    HW277390   5.799   6.050  13.164
25165SOL     OW77391   8.251   1.516   2.624
25165SOL    HW177392   8.291   1.577   2.562
25165SOL    HW277393   8.161   1.547   2.632
25166SOL     OW77394  11.617   2.797   1.387
25166SOL    HW177395  11.646   2.862   1.450
25166SOL    HW277396  11.539   2.834   1.348
25167SOL     OW77397  11.674   1.595  11.493
25167SOL    HW177398  11.658   1.621  11.402
25167SOL    HW277399  11.709   1.506  11.486
25168SOL     OW77400   5.852   4.174   2.312
25168SOL    HW177401   5.849   4.101   2.374
25168SOL    HW277402   5.766   4.216   2.322
25169SOL     OW77403   8.925   6.005   6.725
25169SOL    HW177404   8.920   6.077   6.661
25169SOL    HW277405   8.987   6.036   6.791
25170SOL     OW77406   6.560   6.910   0.374
25170SOL    HW177407   6.608   6.861   0.307
25170SOL    HW277408   6.535   6.992   0.331
25171SOL     OW77409  14.680  13.772   7.437
25171SOL    HW177410  14.732  13.830   7.492
25171SOL    HW277411  14.639  13.830   7.373
25172SOL     OW77412   6.603   3.154   2.606
25172SOL    HW177413   6.618   3.065   2.572
25172SOL    HW277414   6.608   3.144   2.701
25173SOL     OW77415   6.789   5.833   2.960
25173SOL    HW177416   6.699   5.864   2.961
25173SOL    HW277417   6.817   5.841   2.869
25174SOL     OW77418  10.747  11.457   1.359
25174SOL    HW177419  10.834  11.417   1.370
25174SOL    HW277420  10.765  11.550   1.346
25175SOL     OW77421  10.232   1.655   5.218
25175SOL    HW177422  10.225   1.566   5.252
25175SOL    HW277423  10.252   1.643   5.125
25176SOL     OW77424   9.893  12.455   1.982
25176SOL    HW177425   9.867  12.546   1.993
25176SOL    HW277426   9.951  12.455   1.906
25177SOL     OW77427   1.620  13.177   6.490
25177SOL    HW177428   1.684  13.231   6.536
25177SOL    HW277429   1.546  13.234   6.476
25178SOL     OW77430  14.232   6.036  10.037
25178SOL    HW177431  14.151   6.078  10.064
25178SOL    HW277432  14.232   6.040   9.942
25179SOL     OW77433   5.716  13.186   6.208
25179SOL    HW177434   5.716  13.096   6.176
25179SOL    HW277435   5.785  13.229   6.157
25180SOL     OW77436  11.454  12.482   2.501
25180SOL    HW177437  11.441  12.391   2.472
25180SOL    HW277438  11.542  12.482   2.539
25181SOL     OW77439   6.021  11.982   2.937
25181SOL    HW177440   5.940  12.015   2.896
25181SOL    HW277441   5.999  11.893   2.965
25182SOL     OW77442  13.597  10.380  12.131
25182SOL    HW177443  13.688  10.351  12.141
25182SOL    HW277444  13.576  10.362  12.039
25183SOL     OW77445   4.036   8.065   8.563
25183SOL    HW177446   4.059   7.979   8.599
25183SOL    HW277447   4.024   8.050   8.469
25184SOL     OW77448  10.973   5.153   7.625
25184SOL    HW177449  10.888   5.195   7.634
25184SOL    HW277450  10.976   5.089   7.696
25185SOL     OW77451   9.213  12.913   8.531
25185SOL    HW177452   9.170  12.977   8.474
25185SOL    HW277453   9.253  12.966   8.600
25186SOL     OW77454  14.811  12.896   8.055
25186SOL    HW177455  14.839  12.943   7.977
25186SOL    HW277456  14.776  12.963   8.113
25187SOL     OW77457   6.133   6.977  11.184
25187SOL    HW177458   6.057   7.010  11.138
25187SOL    HW277459   6.207   7.024  11.146
25188SOL     OW77460  13.941   6.799   3.192
25188SOL    HW177461  13.970   6.880   3.233
25188SOL    HW277462  14.012   6.737   3.209
25189SOL     OW77463   6.142   0.819   8.472
25189SOL    HW177464   6.238   0.826   8.471
25189SOL    HW277465   6.122   0.754   8.405
25190SOL     OW77466   2.048  13.972  11.710
25190SOL    HW177467   2.016  13.991  11.799
25190SOL    HW277468   2.091  13.887  11.718
25191SOL     OW77469   4.089   7.387   2.665
25191SOL    HW177470   4.071   7.475   2.698
25191SOL    HW277471   4.074   7.330   2.740
25192SOL     OW77472   3.347  11.552  11.999
25192SOL    HW177473   3.293  11.562  11.921
25192SOL    HW277474   3.333  11.632  12.049
25193SOL     OW77475  14.778   2.787   2.163
25193SOL    HW177476  14.697   2.761   2.119
25193SOL    HW277477  14.754   2.863   2.216
25194SOL     OW77478   2.207   8.904   5.902
25194SOL    HW177479   2.260   8.894   5.982
25194SOL    HW277480   2.229   8.991   5.870
25195SOL     OW77481   6.638   4.009   0.306
25195SOL    HW177482   6.617   3.927   0.261
25195SOL    HW277483   6.733   4.008   0.314
25196SOL     OW77484   4.703   4.141  14.124
25196SOL    HW177485   4.668   4.111  14.208
25196SOL    HW277486   4.794   4.161  14.142
25197SOL     OW77487  14.844   6.769   1.232
25197SOL    HW177488   0.050   6.825   1.255
25197SOL    HW277489  14.770   6.829   1.226
25198SOL     OW77490  12.500  13.806  14.298
25198SOL    HW177491  12.474  13.728  14.347
25198SOL    HW277492  12.596  13.802  14.298
25199SOL     OW77493   2.820   1.337   6.740
25199SOL    HW177494   2.852   1.248   6.722
25199SOL    HW277495   2.750   1.325   6.803
25200SOL     OW77496  13.849   1.022   6.145
25200SOL    HW177497  13.842   0.968   6.066
25200SOL    HW277498  13.941   1.050   6.147
25201SOL     OW77499   4.775  10.834  13.525
25201SOL    HW177500   4.767  10.881  13.608
25201SOL    HW277501   4.856  10.785  13.533
25202SOL     OW77502   3.054  10.995   2.583
25202SOL    HW177503   3.149  11.000   2.577
25202SOL    HW277504   3.026  10.973   2.494
25203SOL     OW77505   2.897  13.678   6.192
25203SOL    HW177506   2.978  13.628   6.205
25203SOL    HW277507   2.916  13.765   6.226
25204SOL     OW77508   4.047   6.567  11.426
25204SOL    HW177509   4.036   6.598  11.516
25204SOL    HW277510   3.960   6.535  11.401
25205SOL     OW77511  11.099   7.613   6.865
25205SOL    HW177512  11.033   7.553   6.901
25205SOL    HW277513  11.152   7.638   6.940
25206SOL     OW77514   0.137  11.040  10.956
25206SOL    HW177515   0.102  10.955  10.927
25206SOL    HW277516   0.203  11.062  10.890
25207SOL     OW77517  14.486  14.748   9.556
25207SOL    HW177518  14.464  14.840   9.572
25207SOL    HW277519  14.481  14.707   9.642
25208SOL     OW77520   1.572  10.876  10.210
25208SOL    HW177521   1.578  10.783  10.234
25208SOL    HW277522   1.654  10.914  10.241
25209SOL     OW77523   0.936   5.787   6.476
25209SOL    HW177524   0.906   5.699   6.495
25209SOL    HW277525   1.018   5.776   6.429
25210SOL     OW77526   5.182  10.289   4.142
25210SOL    HW177527   5.109  10.241   4.182
25210SOL    HW277528   5.250  10.223   4.129
25211SOL     OW77529   5.936  14.722   6.353
25211SOL    HW177530   5.964  14.631   6.347
25211SOL    HW277531   5.905  14.732   6.443
25212SOL     OW77532   8.103  14.024   4.247
25212SOL    HW177533   8.163  14.080   4.197
25212SOL    HW277534   8.045  13.986   4.180
25213SOL     OW77535   6.185   2.916   8.561
25213SOL    HW177536   6.149   2.992   8.516
25213SOL    HW277537   6.117   2.849   8.554
25214SOL     OW77538  12.788  11.401   0.450
25214SOL    HW177539  12.854  11.406   0.381
25214SOL    HW277540  12.705  11.416   0.405
25215SOL     OW77541  11.115  10.912   7.936
25215SOL    HW177542  11.203  10.947   7.939
25215SOL    HW277543  11.076  10.950   7.857
25216SOL     OW77544  12.232   5.784  12.199
25216SOL    HW177545  12.272   5.700  12.178
25216SOL    HW277546  12.218   5.826  12.114
25217SOL     OW77547   6.870   3.290   8.030
25217SOL    HW177548   6.905   3.352   7.966
25217SOL    HW277549   6.827   3.345   8.096
25218SOL     OW77550   3.060   3.754   5.551
25218SOL    HW177551   2.998   3.681   5.556
25218SOL    HW277552   3.083   3.772   5.643
25219SOL     OW77553   6.670  12.012   5.538
25219SOL    HW177554   6.723  12.091   5.548
25219SOL    HW277555   6.697  11.956   5.611
25220SOL     OW77556   1.627   3.076  11.671
25220SOL    HW177557   1.687   3.010  11.638
25220SOL    HW277558   1.683   3.152  11.689
25221SOL     OW77559   2.756   1.221  11.696
25221SOL    HW177560   2.668   1.253  11.682
25221SOL    HW277561   2.779   1.177  11.614
25222SOL     OW77562  13.563   5.397  13.107
25222SOL    HW177563  13.637   5.336  13.104
25222SOL    HW277564  13.566   5.434  13.196
25223SOL     OW77565  13.042   8.636   7.770
25223SOL    HW177566  13.036   8.663   7.862
25223SOL    HW277567  12.956   8.599   7.751
25224SOL     OW77568   9.278   4.495   6.081
25224SOL    HW177569   9.304   4.432   6.013
25224SOL    HW277570   9.350   4.492   6.144
25225SOL     OW77571   9.125   8.358   7.690
25225SOL    HW177572   9.134   8.325   7.600
25225SOL    HW277573   9.031   8.352   7.709
25226SOL     OW77574   9.618   7.493   0.394
25226SOL    HW177575   9.663   7.443   0.461
25226SOL    HW277576   9.533   7.450   0.385
25227SOL     OW77577   3.827   4.529   0.648
25227SOL    HW177578   3.737   4.558   0.640
25227SOL    HW277579   3.871   4.565   0.571
25228SOL     OW77580   9.208   9.941   3.619
25228SOL    HW177581   9.237   9.904   3.536
25228SOL    HW277582   9.280   9.998   3.647
25229SOL     OW77583   9.982  11.695  13.678
25229SOL    HW177584  10.053  11.757  13.664
25229SOL    HW277585  10.027  11.613  13.702
25230SOL     OW77586  10.339  10.605  10.963
25230SOL    HW177587  10.248  10.608  10.991
25230SOL    HW277588  10.335  10.582  10.870
25231SOL     OW77589  10.193   8.472  13.112
25231SOL    HW177590  10.209   8.522  13.032
25231SOL    HW277591  10.098   8.474  13.123
25232SOL     OW77592   9.530   9.832   0.341
25232SOL    HW177593   9.437   9.811   0.333
25232SOL    HW277594   9.558   9.789   0.422
25233SOL     OW77595   8.933   9.508   6.881
25233SOL    HW177596   8.851   9.477   6.841
25233SOL    HW277597   8.963   9.435   6.934
25234SOL     OW77598  11.857   0.819  13.785
25234SOL    HW177599  11.833   0.770  13.706
25234SOL    HW277600  11.922   0.882  13.755
25235SOL     OW77601  11.677   2.080   8.688
25235SOL    HW177602  11.736   2.016   8.728
25235SOL    HW277603  11.596   2.031   8.671
25236SOL     OW77604   1.207   5.719  10.259
25236SOL    HW177605   1.121   5.689  10.227
25236SOL    HW277606   1.241   5.645  10.309
25237SOL     OW77607   1.731   3.369  11.998
25237SOL    HW177608   1.719   3.419  12.078
25237SOL    HW277609   1.647   3.326  11.984
25238SOL     OW77610  12.072   2.264   3.764
25238SOL    HW177611  12.156   2.301   3.791
25238SOL    HW277612  12.018   2.266   3.843
25239SOL     OW77613   4.889   8.383  11.998
25239SOL    HW177614   4.974   8.371  11.956
25239SOL    HW277615   4.838   8.308  11.970
25240SOL     OW77616   6.667  12.695  10.473
25240SOL    HW177617   6.683  12.719  10.382
25240SOL    HW277618   6.740  12.733  10.521
25241SOL     OW77619   3.605  10.101  12.357
25241SOL    HW177620   3.649  10.017  12.373
25241SOL    HW277621   3.618  10.118  12.264
25242SOL     OW77622   6.389  10.404   1.921
25242SOL    HW177623   6.411  10.333   1.982
25242SOL    HW277624   6.298  10.425   1.941
25243SOL     OW77625   0.799   8.726   0.509
25243SOL    HW177626   0.750   8.787   0.454
25243SOL    HW277627   0.875   8.777   0.539
25244SOL     OW77628   6.760   3.867   7.959
25244SOL    HW177629   6.813   3.941   7.928
25244SOL    HW277630   6.673   3.884   7.923
25245SOL     OW77631  11.664   8.542   1.403
25245SOL    HW177632  11.693   8.569   1.490
25245SOL    HW277633  11.732   8.482   1.373
25246SOL     OW77634   3.134   3.216   8.347
25246SOL    HW177635   3.049   3.207   8.304
25246SOL    HW277636   3.151   3.310   8.349
25247SOL     OW77637   1.749   8.982   8.571
25247SOL    HW177638   1.810   8.951   8.637
25247SOL    HW277639   1.677   9.021   8.620
25248SOL     OW77640   8.579   5.825   3.765
25248SOL    HW177641   8.591   5.782   3.850
25248SOL    HW277642   8.637   5.901   3.768
25249SOL     OW77643   1.589   5.632  13.416
25249SOL    HW177644   1.532   5.709  13.422
25249SOL    HW277645   1.546   5.566  13.470
25250SOL     OW77646  10.464   0.667   8.434
25250SOL    HW177647  10.443   0.747   8.481
25250SOL    HW277648  10.448   0.597   8.497
25251SOL     OW77649   4.068   9.355   1.567
25251SOL    HW177650   3.994   9.318   1.518
25251SOL    HW277651   4.041   9.445   1.588
25252SOL     OW77652  12.321   8.669   5.149
25252SOL    HW177653  12.400   8.723   5.149
25252SOL    HW277654  12.322   8.625   5.064
25253SOL     OW77655   6.700   2.872  10.551
25253SOL    HW177656   6.761   2.935  10.589
25253SOL    HW277657   6.654   2.921  10.483
25254SOL     OW77658   9.995  11.037  10.639
25254SOL    HW177659   9.932  11.107  10.654
25254SOL    HW277660  10.022  11.048  10.547
25255SOL     OW77661   1.116   6.292   7.121
25255SOL    HW177662   1.166   6.213   7.141
25255SOL    HW277663   1.159   6.329   7.043
25256SOL     OW77664  14.467   6.643   0.139
25256SOL    HW177665  14.421   6.683   0.065
25256SOL    HW277666  14.558   6.672   0.129
25257SOL     OW77667   9.566   6.743   9.195
25257SOL    HW177668   9.533   6.789   9.118
25257SOL    HW277669   9.497   6.681   9.217
25258SOL     OW77670   9.659  11.388   8.342
25258SOL    HW177671   9.584  11.329   8.348
25258SOL    HW277672   9.715  11.361   8.415
25259SOL     OW77673   0.480   6.099   7.165
25259SOL    HW177674   0.430   6.165   7.117
25259SOL    HW277675   0.435   6.017   7.147
25260SOL     OW77676   8.608  11.769   1.975
25260SOL    HW177677   8.612  11.683   2.015
25260SOL    HW277678   8.620  11.830   2.048
25261SOL     OW77679   5.556   9.662   3.952
25261SOL    HW177680   5.591   9.647   4.040
25261SOL    HW277681   5.513   9.580   3.930
25262SOL     OW77682   0.058  14.815   1.089
25262SOL    HW177683   0.037   0.025   1.139
25262SOL    HW277684  14.842  14.773   1.071
25263SOL     OW77685   3.270  10.171   4.760
25263SOL    HW177686   3.262  10.143   4.668
25263SOL    HW277687   3.357  10.140   4.787
25264SOL     OW77688  10.898  11.278  13.717
25264SOL    HW177689  10.912  11.371  13.698
25264SOL    HW277690  10.931  11.267  13.807
25265SOL     OW77691   0.288   5.955   9.766
25265SOL    HW177692   0.312   5.936   9.676
25265SOL    HW277693   0.305   6.048   9.777
25266SOL     OW77694   3.950  12.407  14.628
25266SOL    HW177695   3.992  12.450  14.554
25266SOL    HW277696   3.991  12.321  14.632
25267SOL     OW77697   8.009   5.664   3.279
25267SOL    HW177698   7.951   5.737   3.257
25267SOL    HW277699   8.034   5.680   3.370
25268SOL     OW77700  13.564   1.984   6.093
25268SOL    HW177701  13.532   1.982   6.002
25268SOL    HW277702  13.585   1.893   6.113
25269SOL     OW77703   7.894   2.547  12.000
25269SOL    HW177704   7.867   2.638  11.990
25269SOL    HW277705   7.939   2.526  11.918
25270SOL     OW77706   2.013   0.509   9.034
25270SOL    HW177707   2.024   0.451   9.109
25270SOL    HW277708   2.102   0.518   8.998
25271SOL     OW77709   1.753  14.751  12.746
25271SOL    HW177710   1.791  14.677  12.699
25271SOL    HW277711   1.715  14.806  12.677
25272SOL     OW77712  10.980  11.001   0.802
25272SOL    HW177713  11.004  10.947   0.727
25272SOL    HW277714  10.956  10.938   0.870
25273SOL     OW77715   8.395  14.384   5.361
25273SOL    HW177716   8.342  14.422   5.290
25273SOL    HW277717   8.484  14.412   5.341
25274SOL     OW77718  12.527   9.792   1.387
25274SOL    HW177719  12.602   9.781   1.446
25274SOL    HW277720  12.464   9.843   1.436
25275SOL     OW77721   4.875   1.909   7.176
25275SOL    HW177722   4.905   1.996   7.201
25275SOL    HW277723   4.900   1.853   7.250
25276SOL     OW77724   0.874   6.803   5.101
25276SOL    HW177725   0.872   6.747   5.024
25276SOL    HW277726   0.962   6.792   5.137
25277SOL     OW77727  11.464   4.116  13.483
25277SOL    HW177728  11.396   4.127  13.416
25277SOL    HW277729  11.422   4.144  13.564
25278SOL     OW77730   4.938   3.972   0.120
25278SOL    HW177731   4.949   4.067   0.110
25278SOL    HW277732   4.964   3.935   0.036
25279SOL     OW77733  12.961  13.442   5.828
25279SOL    HW177734  12.964  13.481   5.740
25279SOL    HW277735  13.051  13.451   5.861
25280SOL     OW77736   6.227  12.742  12.039
25280SOL    HW177737   6.214  12.689  11.960
25280SOL    HW277738   6.144  12.788  12.051
25281SOL     OW77739  11.490   0.923  13.318
25281SOL    HW177740  11.546   0.869  13.373
25281SOL    HW277741  11.430   0.862  13.276
25282SOL     OW77742  11.831   3.101   6.697
25282SOL    HW177743  11.779   3.021   6.686
25282SOL    HW277744  11.831   3.142   6.611
25283SOL     OW77745  14.623   1.212   7.287
25283SOL    HW177746  14.565   1.137   7.297
25283SOL    HW277747  14.708   1.173   7.264
25284SOL     OW77748   6.228   6.825  12.498
25284SOL    HW177749   6.147   6.786  12.532
25284SOL    HW277750   6.240   6.904  12.550
25285SOL     OW77751   1.189   8.454  11.789
25285SOL    HW177752   1.096   8.447  11.767
25285SOL    HW277753   1.197   8.534  11.840
25286SOL     OW77754  10.021  13.679   8.173
25286SOL    HW177755  10.097  13.713   8.125
25286SOL    HW277756   9.990  13.753   8.225
25287SOL     OW77757  13.411   3.705  14.855
25287SOL    HW177758  13.415   3.654   0.068
25287SOL    HW277759  13.334   3.760  14.864
25288SOL     OW77760   8.758   9.283   7.480
25288SOL    HW177761   8.682   9.335   7.504
25288SOL    HW277762   8.833   9.334   7.512
25289SOL     OW77763   9.977  12.154  11.162
25289SOL    HW177764  10.008  12.221  11.102
25289SOL    HW277765  10.057  12.122  11.205
25290SOL     OW77766  11.944   0.299   3.276
25290SOL    HW177767  11.908   0.333   3.357
25290SOL    HW277768  12.021   0.354   3.258
25291SOL     OW77769  11.514  10.457   0.781
25291SOL    HW177770  11.442  10.419   0.831
25291SOL    HW277771  11.537  10.537   0.829
25292SOL     OW77772   3.223   4.824  11.134
25292SOL    HW177773   3.256   4.904  11.095
25292SOL    HW277774   3.256   4.826  11.224
25293SOL     OW77775   5.322  11.669   0.331
25293SOL    HW177776   5.273  11.606   0.385
25293SOL    HW277777   5.376  11.716   0.393
25294SOL     OW77778  12.734   6.043   5.440
25294SOL    HW177779  12.654   6.017   5.395
25294SOL    HW277780  12.715   6.130   5.476
25295SOL     OW77781  10.320  14.146   6.539
25295SOL    HW177782  10.263  14.081   6.580
25295SOL    HW277783  10.387  14.094   6.494
25296SOL     OW77784  11.930  12.329   2.009
25296SOL    HW177785  11.946  12.284   1.927
25296SOL    HW277786  11.842  12.301   2.036
25297SOL     OW77787   8.290   1.987  11.281
25297SOL    HW177788   8.344   1.928  11.229
25297SOL    HW277789   8.303   1.959  11.371
25298SOL     OW77790   3.419  11.202   1.098
25298SOL    HW177791   3.328  11.226   1.117
25298SOL    HW277792   3.414  11.109   1.074
25299SOL     OW77793   0.699  14.244  12.437
25299SOL    HW177794   0.780  14.210  12.400
25299SOL    HW277795   0.705  14.339  12.425
25300SOL     OW77796  13.269   9.615   8.326
25300SOL    HW177797  13.187   9.569   8.311
25300SOL    HW277798  13.257   9.700   8.282
25301SOL     OW77799   0.406   4.919   0.168
25301SOL    HW177800   0.390   4.836   0.212
25301SOL    HW277801   0.475   4.900   0.104
25302SOL     OW77802   0.176   8.145   3.128
25302SOL    HW177803   0.265   8.129   3.160
25302SOL    HW277804   0.129   8.181   3.202
25303SOL     OW77805   6.376   3.180   0.696
25303SOL    HW177806   6.357   3.248   0.761
25303SOL    HW277807   6.418   3.110   0.746
25304SOL     OW77808   6.602   7.561   4.157
25304SOL    HW177809   6.568   7.481   4.198
25304SOL    HW277810   6.607   7.540   4.064
25305SOL     OW77811   7.435  13.302   7.958
25305SOL    HW177812   7.452  13.213   7.926
25305SOL    HW277813   7.519  13.347   7.951
25306SOL     OW77814   5.001   0.855   9.533
25306SOL    HW177815   4.962   0.896   9.610
25306SOL    HW277816   4.935   0.862   9.465
25307SOL     OW77817   4.519   2.390   4.600
25307SOL    HW177818   4.533   2.303   4.637
25307SOL    HW277819   4.605   2.417   4.568
25308SOL     OW77820   9.955   1.038   2.388
25308SOL    HW177821   9.942   1.037   2.293
25308SOL    HW277822   9.999   0.955   2.407
25309SOL     OW77823  12.390   7.959   2.194
25309SOL    HW177824  12.347   7.907   2.125
25309SOL    HW277825  12.326   8.025   2.217
25310SOL     OW77826   7.764   2.069  14.175
25310SOL    HW177827   7.837   2.056  14.114
25310SOL    HW277828   7.744   1.981  14.208
25311SOL     OW77829  10.571   8.942   0.589
25311SOL    HW177830  10.588   9.009   0.523
25311SOL    HW277831  10.650   8.889   0.592
25312SOL     OW77832   3.943  13.882  13.608
25312SOL    HW177833   3.917  13.919  13.692
25312SOL    HW277834   4.013  13.820  13.630
25313SOL     OW77835  12.595   2.073   6.176
25313SOL    HW177836  12.683   2.109   6.183
25313SOL    HW277837  12.600   2.010   6.104
25314SOL     OW77838  11.502   2.047   1.264
25314SOL    HW177839  11.525   1.954   1.255
25314SOL    HW277840  11.442   2.050   1.338
25315SOL     OW77841   0.646   0.017  13.520
25315SOL    HW177842   0.716  14.867  13.457
25315SOL    HW277843   0.680  14.855  13.604
25316SOL     OW77844  12.770   9.758  10.541
25316SOL    HW177845  12.753   9.745  10.448
25316SOL    HW277846  12.705   9.705  10.586
25317SOL     OW77847   0.391   3.083  12.453
25317SOL    HW177848   0.477   3.122  12.466
25317SOL    HW277849   0.363   3.113  12.366
25318SOL     OW77850   1.347  11.459   2.974
25318SOL    HW177851   1.293  11.458   2.895
25318SOL    HW277852   1.295  11.509   3.037
25319SOL     OW77853   0.142   4.492   2.273
25319SOL    HW177854   0.214   4.491   2.336
25319SOL    HW277855   0.177   4.540   2.197
25320SOL     OW77856   6.647   5.345   7.426
25320SOL    HW177857   6.707   5.357   7.500
25320SOL    HW277858   6.615   5.255   7.436
25321SOL     OW77859  11.562   0.481   4.126
25321SOL    HW177860  11.531   0.519   4.044
25321SOL    HW277861  11.588   0.556   4.179
25322SOL     OW77862   9.460  12.724   1.117
25322SOL    HW177863   9.512  12.698   1.193
25322SOL    HW277864   9.466  12.650   1.056
25323SOL     OW77865  10.219  13.655   5.833
25323SOL    HW177866  10.274  13.635   5.909
25323SOL    HW277867  10.232  13.748   5.818
25324SOL     OW77868   3.774  11.765   8.163
25324SOL    HW177869   3.726  11.843   8.134
25324SOL    HW277870   3.737  11.693   8.111
25325SOL     OW77871   4.882  14.514   7.948
25325SOL    HW177872   4.948  14.536   8.014
25325SOL    HW277873   4.803  14.559   7.976
25326SOL     OW77874  11.631   1.680   2.734
25326SOL    HW177875  11.560   1.664   2.796
25326SOL    HW277876  11.685   1.601   2.739
25327SOL     OW77877   1.043  11.200  12.202
25327SOL    HW177878   1.098  11.268  12.239
25327SOL    HW277879   1.016  11.147  12.278
25328SOL     OW77880  10.457   3.917  10.505
25328SOL    HW177881  10.448   3.911  10.600
25328SOL    HW277882  10.551   3.925  10.490
25329SOL     OW77883   9.665   1.033   3.782
25329SOL    HW177884   9.631   0.950   3.815
25329SOL    HW277885   9.603   1.060   3.714
25330SOL     OW77886  13.902   7.487   5.903
25330SOL    HW177887  13.876   7.469   5.993
25330SOL    HW277888  13.835   7.446   5.850
25331SOL     OW77889   0.178   0.700   7.140
25331SOL    HW177890   0.239   0.772   7.156
25331SOL    HW277891   0.224   0.622   7.170
25332SOL     OW77892   2.827   8.290   0.321
25332SOL    HW177893   2.856   8.264   0.408
25332SOL    HW277894   2.767   8.362   0.336
25333SOL     OW77895   2.643   0.100   0.956
25333SOL    HW177896   2.686   0.069   0.877
25333SOL    HW277897   2.593   0.025   0.988
25334SOL     OW77898  14.211   3.581   2.708
25334SOL    HW177899  14.259   3.526   2.770
25334SOL    HW277900  14.277   3.639   2.671
25335SOL     OW77901   1.799   2.671   1.178
25335SOL    HW177902   1.799   2.605   1.109
25335SOL    HW277903   1.813   2.621   1.259
25336SOL     OW77904   0.743   0.312  12.598
25336SOL    HW177905   0.711   0.268  12.676
25336SOL    HW277906   0.720   0.404  12.611
25337SOL     OW77907   0.654   9.112   3.974
25337SOL    HW177908   0.661   9.114   4.070
25337SOL    HW277909   0.563   9.135   3.956
25338SOL     OW77910   2.582   6.682   2.566
25338SOL    HW177911   2.509   6.625   2.543
25338SOL    HW277912   2.541   6.761   2.601
25339SOL     OW77913  12.176   1.359  10.712
25339SOL    HW177914  12.128   1.403  10.642
25339SOL    HW277915  12.250   1.417  10.731
25340SOL     OW77916  14.849  12.936  11.863
25340SOL    HW177917   0.067  12.942  11.906
25340SOL    HW277918  14.811  13.024  11.873
25341SOL     OW77919  12.155  14.471   1.515
25341SOL    HW177920  12.198  14.386   1.512
25341SOL    HW277921  12.065  14.455   1.488
25342SOL     OW77922   3.050   3.882   6.951
25342SOL    HW177923   3.140   3.851   6.957
25342SOL    HW277924   3.046   3.929   6.868
25343SOL     OW77925  12.062   1.815   4.763
25343SOL    HW177926  12.035   1.902   4.734
25343SOL    HW277927  12.049   1.759   4.686
25344SOL     OW77928  10.313  14.516   6.721
25344SOL    HW177929  10.284  14.558   6.640
25344SOL    HW277930  10.233  14.499   6.769
25345SOL     OW77931   4.197   6.150  13.181
25345SOL    HW177932   4.155   6.074  13.220
25345SOL    HW277933   4.274   6.166  13.236
25346SOL     OW77934  10.040  13.737   5.229
25346SOL    HW177935  10.136  13.741   5.221
25346SOL    HW277936  10.016  13.817   5.275
25347SOL     OW77937  10.470  10.248   8.001
25347SOL    HW177938  10.547  10.234   8.056
25347SOL    HW277939  10.489  10.327   7.952
25348SOL     OW77940   8.828   1.724   8.602
25348SOL    HW177941   8.865   1.657   8.658
25348SOL    HW277942   8.869   1.710   8.517
25349SOL     OW77943   0.228  12.118  12.175
25349SOL    HW177944   0.175  12.182  12.125
25349SOL    HW277945   0.311  12.114  12.128
25350SOL     OW77946   8.118  12.252   8.864
25350SOL    HW177947   8.086  12.162   8.877
25350SOL    HW277948   8.056  12.306   8.913
25351SOL     OW77949   4.135   4.453  10.633
25351SOL    HW177950   4.044   4.446  10.604
25351SOL    HW277951   4.137   4.409  10.718
25352SOL     OW77952   1.251  12.409   3.309
25352SOL    HW177953   1.263  12.498   3.276
25352SOL    HW277954   1.302  12.406   3.390
25353SOL     OW77955   2.851  11.101   0.482
25353SOL    HW177956   2.808  11.155   0.548
25353SOL    HW277957   2.942  11.130   0.483
25354SOL     OW77958  10.262   0.352   6.862
25354SOL    HW177959  10.244   0.430   6.914
25354SOL    HW277960  10.279   0.283   6.926
25355SOL     OW77961   6.954  14.050   7.521
25355SOL    HW177962   6.963  13.998   7.601
25355SOL    HW277963   6.859  14.058   7.509
25356SOL     OW77964   1.246   9.901   6.691
25356SOL    HW177965   1.214   9.985   6.725
25356SOL    HW277966   1.239   9.910   6.596
25357SOL     OW77967   3.121  10.401   7.432
25357SOL    HW177968   3.110  10.365   7.520
25357SOL    HW277969   3.090  10.491   7.439
25358SOL     OW77970   2.947  13.749   9.650
25358SOL    HW177971   3.024  13.730   9.596
25358SOL    HW277972   2.876  13.699   9.610
25359SOL     OW77973  10.172  10.216   9.763
25359SOL    HW177974  10.132  10.129   9.767
25359SOL    HW277975  10.263  10.199   9.739
25360SOL     OW77976  11.242   6.134  12.710
25360SOL    HW177977  11.310   6.196  12.734
25360SOL    HW277978  11.178   6.139  12.781
25361SOL     OW77979  13.126   0.319   5.345
25361SOL    HW177980  13.152   0.405   5.313
25361SOL    HW277981  13.045   0.299   5.298
25362SOL     OW77982  11.447   3.077  13.212
25362SOL    HW177983  11.441   2.987  13.244
25362SOL    HW277984  11.360   3.114  13.227
25363SOL     OW77985   6.410  11.016   6.099
25363SOL    HW177986   6.318  11.018   6.126
25363SOL    HW277987   6.420  11.091   6.041
25364SOL     OW77988  11.502  12.779   5.203
25364SOL    HW177989  11.482  12.692   5.237
25364SOL    HW277990  11.517  12.765   5.109
25365SOL     OW77991  14.418  14.149  10.057
25365SOL    HW177992  14.333  14.136  10.015
25365SOL    HW277993  14.417  14.241  10.084
25366SOL     OW77994   5.191   0.896   2.973
25366SOL    HW177995   5.134   0.921   2.900
25366SOL    HW277996   5.145   0.927   3.051
25367SOL     OW77997   9.035   3.122  11.744
25367SOL    HW177998   8.952   3.121  11.696
25367SOL    HW277999   9.056   3.030  11.757
25368SOL     OW78000   2.944   2.331   7.891
25368SOL    HW178001   3.007   2.342   7.962
25368SOL    HW278002   2.869   2.384   7.918
25369SOL     OW78003  12.682   6.307   0.037
25369SOL    HW178004  12.644   6.355  14.831
25369SOL    HW278005  12.679   6.215   0.010
25370SOL     OW78006   0.400  11.341   9.882
25370SOL    HW178007   0.389  11.332   9.977
25370SOL    HW278008   0.359  11.425   9.861
25371SOL     OW78009   0.772   8.503   9.498
25371SOL    HW178010   0.844   8.448   9.469
25371SOL    HW278011   0.762   8.568   9.429
25372SOL     OW78012  11.139  13.951  12.319
25372SOL    HW178013  11.158  13.866  12.278
25372SOL    HW278014  11.220  13.974  12.365
25373SOL     OW78015   6.531   2.495   0.094
25373SOL    HW178016   6.526   2.528   0.183
25373SOL    HW278017   6.525   2.573   0.039
25374SOL     OW78018   0.748   5.185  13.438
25374SOL    HW178019   0.756   5.096  13.402
25374SOL    HW278020   0.752   5.174  13.533
25375SOL     OW78021   1.387   1.699  12.525
25375SOL    HW178022   1.316   1.753  12.559
25375SOL    HW278023   1.451   1.761  12.491
25376SOL     OW78024  10.855   0.763   0.063
25376SOL    HW178025  10.874   0.814  14.852
25376SOL    HW278026  10.761   0.746   0.059
25377SOL     OW78027  14.024   3.073  13.364
25377SOL    HW178028  13.952   3.068  13.302
25377SOL    HW278029  13.999   3.011  13.433
25378SOL     OW78030   9.502   4.023   6.837
25378SOL    HW178031   9.566   4.055   6.901
25378SOL    HW278032   9.488   3.931   6.861
25379SOL     OW78033   1.641   0.873  13.621
25379SOL    HW178034   1.737   0.869  13.623
25379SOL    HW278035   1.615   0.798  13.568
25380SOL     OW78036  14.798   7.587   5.191
25380SOL    HW178037  14.775   7.620   5.278
25380SOL    HW278038  14.817   7.665   5.140
25381SOL     OW78039  10.218  10.400  14.099
25381SOL    HW178040  10.229  10.435  14.187
25381SOL    HW278041  10.190  10.475  14.046
25382SOL     OW78042   0.810  13.676  12.991
25382SOL    HW178043   0.897  13.647  13.020
25382SOL    HW278044   0.750  13.641  13.057
25383SOL     OW78045  14.050  13.987   9.667
25383SOL    HW178046  14.018  13.906   9.706
25383SOL    HW278047  14.085  14.037   9.741
25384SOL     OW78048   3.182  13.533   0.349
25384SOL    HW178049   3.202  13.590   0.275
25384SOL    HW278050   3.092  13.555   0.373
25385SOL     OW78051   4.090  14.623   5.847
25385SOL    HW178052   4.148  14.624   5.924
25385SOL    HW278053   4.074  14.716   5.828
25386SOL     OW78054  14.101  10.976   7.780
25386SOL    HW178055  14.020  10.979   7.831
25386SOL    HW278056  14.147  11.056   7.804
25387SOL     OW78057   9.376   3.398  10.992
25387SOL    HW178058   9.297   3.362  10.953
25387SOL    HW278059   9.383   3.486  10.956
25388SOL     OW78060  13.846  11.595   8.880
25388SOL    HW178061  13.808  11.531   8.820
25388SOL    HW278062  13.779  11.662   8.890
25389SOL     OW78063   8.124  14.649   7.004
25389SOL    HW178064   8.029  14.652   7.015
25389SOL    HW278065   8.141  14.705   6.928
25390SOL     OW78066   6.406   2.108   6.889
25390SOL    HW178067   6.392   2.081   6.980
25390SOL    HW278068   6.405   2.204   6.892
25391SOL     OW78069   8.507  11.960   5.015
25391SOL    HW178070   8.576  11.928   4.957
25391SOL    HW278071   8.426  11.932   4.974
25392SOL     OW78072  12.714   7.214  11.207
25392SOL    HW178073  12.697   7.308  11.220
25392SOL    HW278074  12.728   7.205  11.112
25393SOL     OW78075   1.923  13.988   5.666
25393SOL    HW178076   1.943  14.023   5.752
25393SOL    HW278077   1.828  13.995   5.658
25394SOL     OW78078  10.004   9.083   9.764
25394SOL    HW178079   9.922   9.068   9.810
25394SOL    HW278080  10.007   9.017   9.695
25395SOL     OW78081   6.396   1.365  12.902
25395SOL    HW178082   6.308   1.328  12.909
25395SOL    HW278083   6.383   1.447  12.855
25396SOL     OW78084   1.337  10.195   8.658
25396SOL    HW178085   1.362  10.267   8.600
25396SOL    HW278086   1.415  10.180   8.711
25397SOL     OW78087   6.927   5.058  12.198
25397SOL    HW178088   6.891   5.125  12.141
25397SOL    HW278089   6.879   4.978  12.175
25398SOL     OW78090  11.153   5.399   5.246
25398SOL    HW178091  11.144   5.443   5.162
25398SOL    HW278092  11.116   5.312   5.231
25399SOL     OW78093  11.526  13.954   4.790
25399SOL    HW178094  11.448  13.938   4.844
25399SOL    HW278095  11.491  13.964   4.701
25400SOL     OW78096  10.010  11.848  11.405
25400SOL    HW178097  10.080  11.865  11.342
25400SOL    HW278098   9.939  11.811  11.353
25401SOL     OW78099   2.301   8.419   7.007
25401SOL    HW178100   2.391   8.394   6.988
25401SOL    HW278101   2.278   8.369   7.085
25402SOL     OW78102   6.004   9.687   9.498
25402SOL    HW178103   5.988   9.619   9.563
25402SOL    HW278104   6.079   9.735   9.533
25403SOL     OW78105  14.422   5.337   6.316
25403SOL    HW178106  14.471   5.408   6.357
25403SOL    HW278107  14.331   5.352   6.344
25404SOL     OW78108  14.484  12.134   9.388
25404SOL    HW178109  14.551  12.086   9.436
25404SOL    HW278110  14.461  12.207   9.445
25405SOL     OW78111  13.090   9.375   6.428
25405SOL    HW178112  13.072   9.294   6.380
25405SOL    HW278113  13.116   9.346   6.516
25406SOL     OW78114   3.157   2.733   5.976
25406SOL    HW178115   3.130   2.799   6.040
25406SOL    HW278116   3.111   2.757   5.896
25407SOL     OW78117   0.589   7.526   1.090
25407SOL    HW178118   0.566   7.435   1.105
25407SOL    HW278119   0.521   7.576   1.134
25408SOL     OW78120  11.162  13.135   6.284
25408SOL    HW178121  11.213  13.164   6.359
25408SOL    HW278122  11.157  13.211   6.227
25409SOL     OW78123   0.416   6.334  14.092
25409SOL    HW178124   0.385   6.250  14.128
25409SOL    HW278125   0.497   6.352  14.139
25410SOL     OW78126  12.961   3.874   2.498
25410SOL    HW178127  13.028   3.817   2.536
25410SOL    HW278128  12.978   3.871   2.404
25411SOL     OW78129   7.568  14.279  12.592
25411SOL    HW178130   7.584  14.259  12.499
25411SOL    HW278131   7.610  14.207  12.639
25412SOL     OW78132  11.598   6.017   4.577
25412SOL    HW178133  11.517   5.997   4.530
25412SOL    HW278134  11.668   5.999   4.514
25413SOL     OW78135  12.414   9.409   0.251
25413SOL    HW178136  12.368   9.492   0.265
25413SOL    HW278137  12.351   9.343   0.279
25414SOL     OW78138   1.412   1.855  11.710
25414SOL    HW178139   1.454   1.887  11.630
25414SOL    HW278140   1.461   1.776  11.733
25415SOL     OW78141   4.391  10.090   6.603
25415SOL    HW178142   4.371   9.997   6.591
25415SOL    HW278143   4.473  10.103   6.555
25416SOL     OW78144   8.691   5.641   7.026
25416SOL    HW178145   8.671   5.555   6.991
25416SOL    HW278146   8.740   5.624   7.107
25417SOL     OW78147   8.211   8.528   3.056
25417SOL    HW178148   8.198   8.435   3.069
25417SOL    HW278149   8.179   8.569   3.137
25418SOL     OW78150   6.696   5.754   6.651
25418SOL    HW178151   6.723   5.680   6.597
25418SOL    HW278152   6.606   5.772   6.624
25419SOL     OW78153   4.264   8.894   8.010
25419SOL    HW178154   4.178   8.858   8.031
25419SOL    HW278155   4.245   8.978   7.967
25420SOL     OW78156  10.877   2.892   9.118
25420SOL    HW178157  10.837   2.860   9.037
25420SOL    HW278158  10.902   2.814   9.166
25421SOL     OW78159   1.326   7.698   6.431
25421SOL    HW178160   1.330   7.684   6.526
25421SOL    HW278161   1.352   7.614   6.393
25422SOL     OW78162  12.028   0.454   9.484
25422SOL    HW178163  11.935   0.455   9.507
25422SOL    HW278164  12.071   0.411   9.558
25423SOL     OW78165  12.701   9.140  11.636
25423SOL    HW178166  12.689   9.189  11.554
25423SOL    HW278167  12.779   9.178  11.675
25424SOL     OW78168   4.403   4.461  13.202
25424SOL    HW178169   4.332   4.523  13.217
25424SOL    HW278170   4.449   4.495  13.125
25425SOL     OW78171   9.249   4.606   7.251
25425SOL    HW178172   9.229   4.649   7.334
25425SOL    HW278173   9.176   4.547   7.236
25426SOL     OW78174   9.119   9.916   8.299
25426SOL    HW178175   9.112   9.893   8.206
25426SOL    HW278176   9.059   9.856   8.343
25427SOL     OW78177   1.746   1.555  10.329
25427SOL    HW178178   1.827   1.536  10.280
25427SOL    HW278179   1.747   1.650  10.340
25428SOL     OW78180   1.711   2.129  11.062
25428SOL    HW178181   1.698   2.149  10.969
25428SOL    HW278182   1.806   2.124  11.073
25429SOL     OW78183   2.635  12.183   7.589
25429SOL    HW178184   2.604  12.210   7.503
25429SOL    HW278185   2.715  12.235   7.602
25430SOL     OW78186   4.339   2.866  10.822
25430SOL    HW178187   4.387   2.901  10.897
25430SOL    HW278188   4.353   2.930  10.752
25431SOL     OW78189   1.886   2.562   0.894
25431SOL    HW178190   1.888   2.544   0.800
25431SOL    HW278191   1.949   2.632   0.907
25432SOL     OW78192  10.413  13.237   7.400
25432SOL    HW178193  10.488  13.293   7.380
25432SOL    HW278194  10.383  13.205   7.315
25433SOL     OW78195  14.661  13.166   1.727
25433SOL    HW178196  14.608  13.089   1.709
25433SOL    HW278197  14.648  13.223   1.651
25434SOL     OW78198  10.115  10.184  13.869
25434SOL    HW178199  10.029  10.199  13.911
25434SOL    HW278200  10.178  10.218  13.933
25435SOL     OW78201  10.193   4.985   2.817
25435SOL    HW178202  10.234   5.071   2.814
25435SOL    HW278203  10.266   4.924   2.830
25436SOL     OW78204   0.017  11.373  13.556
25436SOL    HW178205   0.043  11.416  13.637
25436SOL    HW278206  14.853  11.445  13.500
25437SOL     OW78207   0.075   8.558   9.727
25437SOL    HW178208   0.063   8.482   9.783
25437SOL    HW278209  14.857   8.601   9.726
25438SOL     OW78210  12.367   3.723   2.910
25438SOL    HW178211  12.394   3.771   2.832
25438SOL    HW278212  12.449   3.705   2.956
25439SOL     OW78213   7.147   6.763   5.564
25439SOL    HW178214   7.136   6.684   5.617
25439SOL    HW278215   7.058   6.790   5.540
25440SOL     OW78216   8.698   3.720   9.986
25440SOL    HW178217   8.637   3.779  10.031
25440SOL    HW278218   8.778   3.724  10.039
25441SOL     OW78219  10.141   3.419  11.582
25441SOL    HW178220  10.110   3.390  11.496
25441SOL    HW278221  10.067   3.405  11.641
25442SOL     OW78222  11.492   1.696   6.714
25442SOL    HW178223  11.554   1.666   6.780
25442SOL    HW278224  11.501   1.791   6.713
25443SOL     OW78225   2.124   4.330   6.079
25443SOL    HW178226   2.132   4.252   6.024
25443SOL    HW278227   2.096   4.297   6.164
25444SOL     OW78228   2.142   6.770  14.433
25444SOL    HW178229   2.210   6.703  14.435
25444SOL    HW278230   2.063   6.724  14.462
25445SOL     OW78231   4.958   3.233   7.057
25445SOL    HW178232   4.910   3.202   6.980
25445SOL    HW278233   5.039   3.270   7.021
25446SOL     OW78234   7.940  14.659  13.845
25446SOL    HW178235   7.959  14.583  13.790
25446SOL    HW278236   8.024  14.704  13.852
25447SOL     OW78237  13.550   7.262   1.162
25447SOL    HW178238  13.492   7.253   1.238
25447SOL    HW278239  13.549   7.356   1.142
25448SOL     OW78240   3.901   6.667   3.632
25448SOL    HW178241   3.820   6.623   3.608
25448SOL    HW278242   3.955   6.663   3.553
25449SOL     OW78243   7.902  10.351   1.743
25449SOL    HW178244   7.872  10.272   1.697
25449SOL    HW278245   7.994  10.360   1.718
25450SOL     OW78246   3.545  11.453   7.717
25450SOL    HW178247   3.463  11.499   7.735
25450SOL    HW278248   3.612  11.508   7.758
25451SOL     OW78249   6.459   0.607   5.062
25451SOL    HW178250   6.405   0.606   5.141
25451SOL    HW278251   6.424   0.536   5.008
25452SOL     OW78252   8.483  13.509  14.248
25452SOL    HW178253   8.465  13.416  14.259
25452SOL    HW278254   8.423  13.553  14.309
25453SOL     OW78255  13.356   2.201  13.367
25453SOL    HW178256  13.309   2.171  13.445
25453SOL    HW278257  13.310   2.159  13.294
25454SOL     OW78258   8.839  12.136   8.070
25454SOL    HW178259   8.904  12.156   8.137
25454SOL    HW278260   8.891  12.128   7.989
25455SOL     OW78261  12.084   0.342   8.318
25455SOL    HW178262  12.076   0.276   8.250
25455SOL    HW278263  12.004   0.394   8.309
25456SOL     OW78264   9.622   7.239  13.613
25456SOL    HW178265   9.655   7.257  13.701
25456SOL    HW278266   9.617   7.325  13.572
25457SOL     OW78267  14.323  11.148   9.011
25457SOL    HW178268  14.296  11.239   9.023
25457SOL    HW278269  14.300  11.105   9.094
25458SOL     OW78270   1.330   6.007   5.198
25458SOL    HW178271   1.255   5.978   5.147
25458SOL    HW278272   1.404   6.004   5.136
25459SOL     OW78273  14.174   6.767   6.998
25459SOL    HW178274  14.187   6.718   7.079
25459SOL    HW278275  14.234   6.727   6.935
25460SOL     OW78276  11.643  12.851   1.372
25460SOL    HW178277  11.659  12.788   1.442
25460SOL    HW278278  11.594  12.922   1.414
25461SOL     OW78279   2.748   4.119   6.928
25461SOL    HW178280   2.677   4.156   6.875
25461SOL    HW278281   2.787   4.052   6.872
25462SOL     OW78282   2.007  13.942   8.962
25462SOL    HW178283   1.981  14.009   8.900
25462SOL    HW278284   2.093  13.970   8.994
25463SOL     OW78285   8.180   0.871  13.685
25463SOL    HW178286   8.253   0.923  13.718
25463SOL    HW278287   8.179   0.888  13.590
25464SOL     OW78288   2.558   9.160   9.944
25464SOL    HW178289   2.643   9.157   9.901
25464SOL    HW278290   2.548   9.074   9.984
25465SOL     OW78291   1.827  14.486   1.327
25465SOL    HW178292   1.830  14.516   1.418
25465SOL    HW278293   1.912  14.445   1.312
25466SOL     OW78294   4.369   3.308   5.487
25466SOL    HW178295   4.401   3.230   5.441
25466SOL    HW278296   4.384   3.289   5.579
25467SOL     OW78297   7.566  10.099   7.521
25467SOL    HW178298   7.562  10.005   7.537
25467SOL    HW278299   7.658  10.122   7.533
25468SOL     OW78300   5.640   1.635   3.745
25468SOL    HW178301   5.654   1.544   3.772
25468SOL    HW278302   5.663   1.686   3.823
25469SOL     OW78303   8.402   2.070   2.783
25469SOL    HW178304   8.443   2.148   2.822
25469SOL    HW278305   8.335   2.044   2.846
25470SOL     OW78306   2.342   7.766   0.125
25470SOL    HW178307   2.337   7.788   0.218
25470SOL    HW278308   2.252   7.742   0.101
25471SOL     OW78309  12.629   1.148   2.827
25471SOL    HW178310  12.545   1.180   2.859
25471SOL    HW278311  12.631   1.172   2.734
25472SOL     OW78312   2.004  13.141  12.613
25472SOL    HW178313   2.084  13.192  12.623
25472SOL    HW278314   1.937  13.194  12.656
25473SOL     OW78315   2.526  12.159   4.610
25473SOL    HW178316   2.598  12.145   4.671
25473SOL    HW278317   2.555  12.118   4.528
25474SOL     OW78318   1.992   5.889  10.842
25474SOL    HW178319   1.946   5.835  10.778
25474SOL    HW278320   1.942   5.876  10.923
25475SOL     OW78321   6.140   7.713   9.970
25475SOL    HW178322   6.139   7.798   9.928
25475SOL    HW278323   6.227   7.678   9.953
25476SOL     OW78324   9.828   6.313  14.017
25476SOL    HW178325   9.823   6.256  14.094
25476SOL    HW278326   9.742   6.305  13.975
25477SOL     OW78327   9.829  10.344   1.364
25477SOL    HW178328   9.816  10.396   1.443
25477SOL    HW278329   9.880  10.401   1.307
25478SOL     OW78330   4.703  12.211   3.038
25478SOL    HW178331   4.613  12.240   3.054
25478SOL    HW278332   4.716  12.140   3.101
25479SOL     OW78333   3.990   2.533   4.662
25479SOL    HW178334   4.078   2.508   4.632
25479SOL    HW278335   4.006   2.585   4.741
25480SOL     OW78336   6.899   1.109  12.718
25480SOL    HW178337   6.949   1.065  12.787
25480SOL    HW278338   6.933   1.072  12.637
25481SOL     OW78339   6.654   6.333   2.166
25481SOL    HW178340   6.720   6.302   2.104
25481SOL    HW278341   6.622   6.415   2.128
25482SOL     OW78342   0.985   1.423   8.941
25482SOL    HW178343   0.945   1.494   8.891
25482SOL    HW278344   0.960   1.343   8.894
25483SOL     OW78345   7.183   4.328  10.165
25483SOL    HW178346   7.216   4.399  10.219
25483SOL    HW278347   7.261   4.280  10.138
25484SOL     OW78348   4.785  11.405   5.332
25484SOL    HW178349   4.775  11.421   5.238
25484SOL    HW278350   4.873  11.435   5.353
25485SOL     OW78351  12.233   8.013  13.201
25485SOL    HW178352  12.319   8.012  13.243
25485SOL    HW278353  12.172   8.026  13.274
25486SOL     OW78354  14.381  13.276  13.241
25486SOL    HW178355  14.441  13.255  13.170
25486SOL    HW278356  14.386  13.371  13.249
25487SOL     OW78357   3.182   2.225  10.656
25487SOL    HW178358   3.248   2.172  10.701
25487SOL    HW278359   3.231   2.270  10.587
25488SOL     OW78360  10.690   5.221   9.201
25488SOL    HW178361  10.680   5.127   9.214
25488SOL    HW278362  10.627   5.261   9.261
25489SOL     OW78363  14.025   9.183   4.103
25489SOL    HW178364  13.949   9.242   4.093
25489SOL    HW278365  13.986   9.097   4.119
25490SOL     OW78366  10.083  14.768   0.616
25490SOL    HW178367  10.110  14.749   0.706
25490SOL    HW278368   9.987  14.767   0.620
25491SOL     OW78369   6.901   3.417   7.635
25491SOL    HW178370   6.816   3.384   7.604
25491SOL    HW278371   6.958   3.415   7.558
25492SOL     OW78372   9.752   8.642   4.630
25492SOL    HW178373   9.708   8.691   4.699
25492SOL    HW278374   9.797   8.570   4.676
25493SOL     OW78375   6.883  12.104  10.105
25493SOL    HW178376   6.922  12.192  10.105
25493SOL    HW278377   6.794  12.118  10.137
25494SOL     OW78378  10.574   3.362   0.660
25494SOL    HW178379  10.654   3.310   0.662
25494SOL    HW278380  10.519   3.319   0.594
25495SOL     OW78381   6.737   3.485  14.449
25495SOL    HW178382   6.691   3.530  14.520
25495SOL    HW278383   6.807   3.436  14.492
25496SOL     OW78384   3.560   7.256  10.051
25496SOL    HW178385   3.567   7.292   9.962
25496SOL    HW278386   3.481   7.203  10.049
25497SOL     OW78387  11.079   1.952   5.065
25497SOL    HW178388  10.995   1.996   5.060
25497SOL    HW278389  11.061   1.871   5.113
25498SOL     OW78390   0.077   2.187   4.448
25498SOL    HW178391   0.152   2.139   4.415
25498SOL    HW278392   0.076   2.269   4.399
25499SOL     OW78393   3.217   6.898   5.911
25499SOL    HW178394   3.156   6.831   5.879
25499SOL    HW278395   3.303   6.858   5.904
25500SOL     OW78396   6.009   1.718   5.210
25500SOL    HW178397   6.017   1.655   5.138
25500SOL    HW278398   6.034   1.668   5.288
25501SOL     OW78399   0.837  11.810   6.109
25501SOL    HW178400   0.786  11.883   6.145
25501SOL    HW278401   0.817  11.736   6.167
25502SOL     OW78402  12.649   7.711  14.130
25502SOL    HW178403  12.678   7.683  14.216
25502SOL    HW278404  12.700   7.789  14.111
25503SOL     OW78405   2.914   4.395   2.648
25503SOL    HW178406   2.966   4.383   2.728
25503SOL    HW278407   2.917   4.309   2.605
25504SOL     OW78408  10.486   7.333   2.462
25504SOL    HW178409  10.503   7.287   2.380
25504SOL    HW278410  10.434   7.409   2.436
25505SOL     OW78411  14.661  10.038   8.203
25505SOL    HW178412  14.643   9.944   8.204
25505SOL    HW278413  14.739  10.048   8.257
25506SOL     OW78414   6.460   6.246   3.383
25506SOL    HW178415   6.436   6.167   3.431
25506SOL    HW278416   6.376   6.287   3.361
25507SOL     OW78417  14.097  14.603   0.728
25507SOL    HW178418  14.024  14.617   0.668
25507SOL    HW278419  14.106  14.686   0.775
25508SOL     OW78420   3.391   3.532  13.763
25508SOL    HW178421   3.407   3.539  13.669
25508SOL    HW278422   3.370   3.621  13.790
25509SOL     OW78423  11.588   0.332  11.943
25509SOL    HW178424  11.615   0.310  11.853
25509SOL    HW278425  11.659   0.387  11.976
25510SOL     OW78426   2.529   1.022   9.240
25510SOL    HW178427   2.558   1.028   9.331
25510SOL    HW278428   2.445   0.978   9.244
25511SOL     OW78429   8.607   5.293  10.367
25511SOL    HW178430   8.514   5.284  10.348
25511SOL    HW278431   8.616   5.381  10.405
25512SOL     OW78432   4.567   3.046   4.819
25512SOL    HW178433   4.614   3.129   4.831
25512SOL    HW278434   4.475   3.070   4.826
25513SOL     OW78435   0.745   9.696   4.586
25513SOL    HW178436   0.692   9.745   4.523
25513SOL    HW278437   0.719   9.732   4.671
25514SOL     OW78438  11.171   6.236  11.095
25514SOL    HW178439  11.215   6.285  11.025
25514SOL    HW278440  11.219   6.261  11.175
25515SOL     OW78441  10.917   5.299   9.089
25515SOL    HW178442  10.876   5.316   9.004
25515SOL    HW278443  10.845   5.273   9.146
25516SOL     OW78444   6.737   2.021   2.780
25516SOL    HW178445   6.712   2.043   2.869
25516SOL    HW278446   6.691   2.085   2.725
25517SOL     OW78447   8.442  13.062   2.490
25517SOL    HW178448   8.413  13.087   2.402
25517SOL    HW278449   8.451  12.966   2.486
25518SOL     OW78450  11.579   2.661   3.629
25518SOL    HW178451  11.573   2.753   3.605
25518SOL    HW278452  11.587   2.615   3.545
25519SOL     OW78453   5.731   6.515   4.400
25519SOL    HW178454   5.805   6.467   4.362
25519SOL    HW278455   5.743   6.605   4.371
25520SOL     OW78456  12.430   0.410   2.056
25520SOL    HW178457  12.396   0.363   1.979
25520SOL    HW278458  12.525   0.410   2.043
25521SOL     OW78459   0.406  12.105  10.000
25521SOL    HW178460   0.366  12.021  10.020
25521SOL    HW278461   0.499  12.092  10.016
25522SOL     OW78462   6.540   6.496   9.330
25522SOL    HW178463   6.566   6.551   9.257
25522SOL    HW278464   6.564   6.407   9.303
25523SOL     OW78465   0.054   0.210   5.293
25523SOL    HW178466   0.088   0.121   5.301
25523SOL    HW278467   0.043   0.240   5.383
25524SOL     OW78468  14.474   4.136   7.161
25524SOL    HW178469  14.392   4.162   7.119
25524SOL    HW278470  14.447   4.078   7.232
25525SOL     OW78471  11.246   4.066   9.620
25525SOL    HW178472  11.323   4.010   9.629
25525SOL    HW278473  11.273   4.135   9.560
25526SOL     OW78474   1.322   7.793   0.388
25526SOL    HW178475   1.229   7.781   0.407
25526SOL    HW278476   1.367   7.771   0.470
25527SOL     OW78477   7.354  14.104   7.722
25527SOL    HW178478   7.309  14.066   7.797
25527SOL    HW278479   7.294  14.170   7.688
25528SOL     OW78480   5.216  14.836   5.438
25528SOL    HW178481   5.169  14.843   5.521
25528SOL    HW278482   5.150  14.857   5.372
25529SOL     OW78483   4.556   9.552   2.251
25529SOL    HW178484   4.595   9.486   2.308
25529SOL    HW278485   4.517   9.502   2.179
25530SOL     OW78486   6.890   0.826   5.237
25530SOL    HW178487   6.863   0.777   5.159
25530SOL    HW278488   6.811   0.831   5.291
25531SOL     OW78489  10.687  12.698   7.262
25531SOL    HW178490  10.706  12.692   7.169
25531SOL    HW278491  10.727  12.781   7.289
25532SOL     OW78492   2.673   1.734  11.867
25532SOL    HW178493   2.602   1.743  11.930
25532SOL    HW278494   2.749   1.773  11.911
25533SOL     OW78495   2.340  10.826   2.611
25533SOL    HW178496   2.431  10.806   2.589
25533SOL    HW278497   2.289  10.762   2.562
25534SOL     OW78498   3.319   6.645   0.986
25534SOL    HW178499   3.266   6.712   1.028
25534SOL    HW278500   3.397   6.637   1.041
25535SOL     OW78501  14.005   6.642   4.009
25535SOL    HW178502  14.042   6.684   4.087
25535SOL    HW278503  13.951   6.571   4.044
25536SOL     OW78504   2.963   1.097   5.546
25536SOL    HW178505   2.932   1.181   5.578
25536SOL    HW278506   2.888   1.038   5.554
25537SOL     OW78507  13.216  10.428   4.265
25537SOL    HW178508  13.274  10.451   4.192
25537SOL    HW278509  13.133  10.405   4.223
25538SOL     OW78510  11.927  14.548  12.121
25538SOL    HW178511  11.863  14.577  12.185
25538SOL    HW278512  11.895  14.580  12.037
25539SOL     OW78513   7.496   7.838   3.367
25539SOL    HW178514   7.417   7.787   3.347
25539SOL    HW278515   7.557   7.775   3.403
25540SOL     OW78516   4.645  12.323  12.869
25540SOL    HW178517   4.653  12.246  12.926
25540SOL    HW278518   4.555  12.322  12.839
25541SOL     OW78519   6.051   5.734   6.617
25541SOL    HW178520   6.082   5.655   6.573
25541SOL    HW278521   6.130   5.787   6.629
25542SOL     OW78522  14.098  11.463   4.562
25542SOL    HW178523  14.147  11.444   4.642
25542SOL    HW278524  14.057  11.380   4.539
25543SOL     OW78525   8.530   9.579   6.687
25543SOL    HW178526   8.591   9.515   6.724
25543SOL    HW278527   8.550   9.660   6.734
25544SOL     OW78528  10.061   6.545   4.496
25544SOL    HW178529   9.972   6.557   4.529
25544SOL    HW278530  10.110   6.617   4.536
25545SOL     OW78531   8.065   8.914   3.202
25545SOL    HW178532   8.098   8.942   3.287
25545SOL    HW278533   8.124   8.845   3.174
25546SOL     OW78534   3.077   4.813   6.127
25546SOL    HW178535   3.012   4.878   6.151
25546SOL    HW278536   3.054   4.736   6.179
25547SOL     OW78537  14.771   4.204   7.141
25547SOL    HW178538  14.691   4.172   7.100
25547SOL    HW278539  14.742   4.272   7.202
25548SOL     OW78540   0.688  10.920  10.617
25548SOL    HW178541   0.778  10.934  10.647
25548SOL    HW278542   0.688  10.830  10.584
25549SOL     OW78543   8.447   8.368   2.786
25549SOL    HW178544   8.427   8.397   2.875
25549SOL    HW278545   8.476   8.277   2.796
25550SOL     OW78546  10.973   5.996  10.201
25550SOL    HW178547  10.917   5.919  10.198
25550SOL    HW278548  10.918   6.067  10.167
25551SOL     OW78549  12.676  11.865  11.720
25551SOL    HW178550  12.719  11.793  11.766
25551SOL    HW278551  12.615  11.822  11.661
25552SOL     OW78552   5.373   2.735  13.275
25552SOL    HW178553   5.378   2.785  13.193
25552SOL    HW278554   5.391   2.645  13.249
25553SOL     OW78555   9.364   8.900  12.285
25553SOL    HW178556   9.449   8.865  12.313
25553SOL    HW278557   9.383   8.990  12.259
25554SOL     OW78558   0.370   7.329   3.026
25554SOL    HW178559   0.337   7.242   3.052
25554SOL    HW278560   0.332   7.344   2.940
25555SOL     OW78561   0.379   1.603  11.358
25555SOL    HW178562   0.326   1.524  11.345
25555SOL    HW278563   0.435   1.608  11.281
25556SOL     OW78564   3.388   6.381   1.196
25556SOL    HW178565   3.393   6.395   1.101
25556SOL    HW278566   3.470   6.418   1.230
25557SOL     OW78567   8.520  10.449  11.843
25557SOL    HW178568   8.560  10.459  11.930
25557SOL    HW278569   8.592  10.418  11.788
25558SOL     OW78570  10.662   1.651   6.281
25558SOL    HW178571  10.697   1.698   6.357
25558SOL    HW278572  10.677   1.711   6.207
25559SOL     OW78573  10.231   3.599   8.064
25559SOL    HW178574  10.171   3.616   7.991
25559SOL    HW278575  10.296   3.539   8.027
25560SOL     OW78576  11.866   2.290  10.001
25560SOL    HW178577  11.831   2.201  10.001
25560SOL    HW278578  11.901   2.302   9.913
25561SOL     OW78579   7.212   0.956   2.644
25561SOL    HW178580   7.174   1.043   2.651
25561SOL    HW278581   7.274   0.962   2.572
25562SOL     OW78582   5.098  10.858  12.444
25562SOL    HW178583   5.168  10.879  12.506
25562SOL    HW278584   5.017  10.875  12.492
25563SOL     OW78585   3.760   8.357  10.670
25563SOL    HW178586   3.740   8.296  10.741
25563SOL    HW278587   3.784   8.301  10.597
25564SOL     OW78588  11.096   8.137  13.869
25564SOL    HW178589  11.099   8.059  13.813
25564SOL    HW278590  11.155   8.117  13.942
25565SOL     OW78591   9.702  11.788   7.367
25565SOL    HW178592   9.700  11.776   7.462
25565SOL    HW278593   9.790  11.818   7.348
25566SOL     OW78594   5.723   8.046  12.696
25566SOL    HW178595   5.710   8.084  12.609
25566SOL    HW278596   5.654   8.085  12.749
25567SOL     OW78597  12.591  10.330   2.753
25567SOL    HW178598  12.569  10.283   2.834
25567SOL    HW278599  12.626  10.262   2.695
25568SOL     OW78600   2.984  13.974  14.061
25568SOL    HW178601   2.907  14.013  14.102
25568SOL    HW278602   2.964  13.881  14.055
25569SOL     OW78603   3.159   0.446  10.443
25569SOL    HW178604   3.237   0.396  10.466
25569SOL    HW278605   3.161   0.521  10.504
25570SOL     OW78606  12.067   2.969  11.915
25570SOL    HW178607  12.094   3.014  11.835
25570SOL    HW278608  12.080   2.876  11.896
25571SOL     OW78609  12.786  10.226  10.703
25571SOL    HW178610  12.749  10.138  10.714
25571SOL    HW278611  12.864  10.226  10.759
25572SOL     OW78612   1.615   2.612   7.631
25572SOL    HW178613   1.631   2.583   7.720
25572SOL    HW278614   1.600   2.707   7.639
25573SOL     OW78615  14.498   6.632   0.888
25573SOL    HW178616  14.480   6.543   0.857
25573SOL    HW278617  14.587   6.628   0.922
25574SOL     OW78618  10.415   9.942  14.055
25574SOL    HW178619  10.449   9.992  13.981
25574SOL    HW278620  10.325   9.921  14.031
25575SOL     OW78621  13.692   9.873   4.848
25575SOL    HW178622  13.767   9.845   4.796
25575SOL    HW278623  13.700   9.968   4.853
25576SOL     OW78624   5.135   3.520  10.138
25576SOL    HW178625   5.078   3.451  10.173
25576SOL    HW278626   5.181   3.555  10.214
25577SOL     OW78627  13.343  10.050   0.592
25577SOL    HW178628  13.250  10.028   0.581
25577SOL    HW278629  13.387   9.965   0.596
25578SOL     OW78630   5.176   0.451   0.523
25578SOL    HW178631   5.252   0.494   0.484
25578SOL    HW278632   5.213   0.390   0.587
25579SOL     OW78633   6.327   0.542   1.333
25579SOL    HW178634   6.380   0.599   1.277
25579SOL    HW278635   6.277   0.489   1.272
25580SOL     OW78636   0.194   1.776   5.458
25580SOL    HW178637   0.202   1.822   5.375
25580SOL    HW278638   0.230   1.688   5.441
25581SOL     OW78639   3.603  12.272  14.327
25581SOL    HW178640   3.660  12.260  14.403
25581SOL    HW278641   3.657  12.321  14.264
25582SOL     OW78642  11.261  11.032   4.899
25582SOL    HW178643  11.263  11.104   4.836
25582SOL    HW278644  11.203  11.062   4.968
25583SOL     OW78645   3.680   4.849  14.736
25583SOL    HW178646   3.629   4.884  14.809
25583SOL    HW278647   3.767   4.835  14.772
25584SOL     OW78648   8.574   7.497   5.087
25584SOL    HW178649   8.483   7.487   5.115
25584SOL    HW278650   8.624   7.447   5.151
25585SOL     OW78651  10.924   9.261   0.220
25585SOL    HW178652  10.991   9.294   0.160
25585SOL    HW278653  10.842   9.295   0.184
25586SOL     OW78654   3.787  11.134   6.697
25586SOL    HW178655   3.723  11.072   6.662
25586SOL    HW278656   3.851  11.080   6.743
25587SOL     OW78657  12.272   4.831   4.119
25587SOL    HW178658  12.259   4.779   4.040
25587SOL    HW278659  12.213   4.905   4.109
25588SOL     OW78660   0.597   2.181   9.932
25588SOL    HW178661   0.537   2.189   9.858
25588SOL    HW278662   0.576   2.096   9.972
25589SOL     OW78663   9.704   3.053   2.860
25589SOL    HW178664   9.692   2.968   2.904
25589SOL    HW278665   9.713   3.031   2.768
25590SOL     OW78666   7.671   6.121   2.382
25590SOL    HW178667   7.674   6.101   2.288
25590SOL    HW278668   7.751   6.080   2.417
25591SOL     OW78669  12.196  10.811  12.825
25591SOL    HW178670  12.126  10.799  12.889
25591SOL    HW278671  12.272  10.768  12.863
25592SOL     OW78672   1.452   4.098  11.076
25592SOL    HW178673   1.544   4.082  11.058
25592SOL    HW278674   1.411   4.012  11.070
25593SOL     OW78675   1.987   5.068   0.979
25593SOL    HW178676   2.012   5.139   0.919
25593SOL    HW278677   2.039   4.993   0.950
25594SOL     OW78678   4.237   9.587  14.844
25594SOL    HW178679   4.328   9.566  14.860
25594SOL    HW278680   4.210   9.527  14.775
25595SOL     OW78681  10.949   6.441   4.841
25595SOL    HW178682  10.857   6.467   4.845
25595SOL    HW278683  10.992   6.510   4.791
25596SOL     OW78684   3.847  13.022   8.304
25596SOL    HW178685   3.917  13.087   8.292
25596SOL    HW278686   3.850  13.001   8.397
25597SOL     OW78687  11.197   3.332   2.401
25597SOL    HW178688  11.104   3.309   2.406
25597SOL    HW278689  11.241   3.266   2.454
25598SOL     OW78690   7.001  13.001  11.645
25598SOL    HW178691   7.091  13.034  11.650
25598SOL    HW278692   6.949  13.077  11.620
25599SOL     OW78693   7.104   8.475   1.633
25599SOL    HW178694   7.186   8.522   1.621
25599SOL    HW278695   7.124   8.404   1.693
25600SOL     OW78696   0.324   3.718  11.209
25600SOL    HW178697   0.263   3.682  11.145
25600SOL    HW278698   0.271   3.735  11.287
25601SOL     OW78699  13.944   3.532  14.643
25601SOL    HW178700  13.897   3.545  14.561
25601SOL    HW278701  14.035   3.517  14.616
25602SOL     OW78702   1.430   0.882   9.259
25602SOL    HW178703   1.347   0.931   9.265
25602SOL    HW278704   1.443   0.845   9.346
25603SOL     OW78705   7.597  13.748  14.583
25603SOL    HW178706   7.665  13.800  14.625
25603SOL    HW278707   7.524  13.809  14.569
25604SOL     OW78708   4.802   4.930   6.168
25604SOL    HW178709   4.715   4.929   6.209
25604SOL    HW278710   4.828   4.838   6.166
25605SOL     OW78711   0.792   4.779   8.403
25605SOL    HW178712   0.840   4.834   8.464
25605SOL    HW278713   0.703   4.774   8.439
25606SOL     OW78714   1.096  14.612  11.640
25606SOL    HW178715   1.161  14.681  11.633
25606SOL    HW278716   1.038  14.625  11.565
25607SOL     OW78717   3.105   4.486  10.143
25607SOL    HW178718   3.110   4.519  10.053
25607SOL    HW278719   3.103   4.564  10.198
25608SOL     OW78720   3.290   0.144  11.478
25608SOL    HW178721   3.378   0.135  11.514
25608SOL    HW278722   3.302   0.187  11.393
25609SOL     OW78723   1.314  13.815   9.934
25609SOL    HW178724   1.244  13.781   9.879
25609SOL    HW278725   1.296  13.780  10.021
25610SOL     OW78726  14.045   1.272  10.580
25610SOL    HW178727  14.015   1.291  10.668
25610SOL    HW278728  14.006   1.341  10.526
25611SOL     OW78729  14.283   0.754  11.020
25611SOL    HW178730  14.366   0.794  11.044
25611SOL    HW278731  14.306   0.666  10.992
25612SOL     OW78732   9.414   5.540   4.530
25612SOL    HW178733   9.424   5.576   4.618
25612SOL    HW278734   9.475   5.466   4.527
25613SOL     OW78735   6.141  12.664  11.804
25613SOL    HW178736   6.127  12.758  11.793
25613SOL    HW278737   6.154  12.631  11.715
25614SOL     OW78738  11.779   2.515   8.911
25614SOL    HW178739  11.740   2.544   8.829
25614SOL    HW278740  11.845   2.451   8.885
25615SOL     OW78741  11.713   7.482   0.807
25615SOL    HW178742  11.629   7.444   0.780
25615SOL    HW278743  11.760   7.498   0.726
25616SOL     OW78744  11.979   9.806  13.339
25616SOL    HW178745  12.040   9.751  13.389
25616SOL    HW278746  11.942   9.748  13.274
25617SOL     OW78747   5.161   6.840   2.239
25617SOL    HW178748   5.245   6.872   2.271
25617SOL    HW278749   5.135   6.903   2.172
25618SOL     OW78750   1.044   7.164  12.914
25618SOL    HW178751   1.099   7.120  12.978
25618SOL    HW278752   1.001   7.093  12.866
25619SOL     OW78753  12.014  14.304  12.177
25619SOL    HW178754  12.004  14.391  12.138
25619SOL    HW278755  12.075  14.259  12.119
25620SOL     OW78756  12.697   9.614   9.054
25620SOL    HW178757  12.746   9.545   9.098
25620SOL    HW278758  12.611   9.614   9.096
25621SOL     OW78759   1.721  10.814   1.742
25621SOL    HW178760   1.769  10.894   1.720
25621SOL    HW278761   1.786  10.744   1.736
25622SOL     OW78762   7.101  10.414   2.642
25622SOL    HW178763   7.028  10.355   2.621
25622SOL    HW278764   7.176  10.356   2.651
25623SOL     OW78765   7.989  10.747   0.713
25623SOL    HW178766   8.009  10.810   0.644
25623SOL    HW278767   8.056  10.679   0.704
25624SOL     OW78768   4.854  11.086   7.879
25624SOL    HW178769   4.930  11.124   7.835
25624SOL    HW278770   4.881  10.997   7.902
25625SOL     OW78771   1.235   3.088   9.753
25625SOL    HW178772   1.252   3.156   9.688
25625SOL    HW278773   1.181   3.132   9.820
25626SOL     OW78774  13.501  14.301  10.295
25626SOL    HW178775  13.521  14.225  10.350
25626SOL    HW278776  13.568  14.300  10.227
25627SOL     OW78777  12.008   0.054   3.360
25627SOL    HW178778  11.990   0.146   3.340
25627SOL    HW278779  11.950   0.033   3.433
25628SOL     OW78780   4.871   8.712   6.740
25628SOL    HW178781   4.899   8.758   6.819
25628SOL    HW278782   4.952   8.685   6.697
25629SOL     OW78783   3.784   0.659  11.668
25629SOL    HW178784   3.825   0.601  11.605
25629SOL    HW278785   3.841   0.736  11.670
25630SOL     OW78786   8.568   9.371   5.431
25630SOL    HW178787   8.583   9.276   5.425
25630SOL    HW278788   8.563   9.388   5.525
25631SOL     OW78789  14.615   5.485   3.806
25631SOL    HW178790  14.578   5.553   3.862
25631SOL    HW278791  14.696   5.523   3.772
25632SOL     OW78792   6.911   5.646  12.563
25632SOL    HW178793   6.871   5.704  12.628
25632SOL    HW278794   6.977   5.597  12.611
25633SOL     OW78795   4.694   4.993  13.053
25633SOL    HW178796   4.783   5.017  13.077
25633SOL    HW278797   4.694   4.993  12.957
25634SOL     OW78798   0.563   2.440   4.651
25634SOL    HW178799   0.641   2.394   4.683
25634SOL    HW278800   0.548   2.404   4.564
25635SOL     OW78801  12.828  12.878   7.231
25635SOL    HW178802  12.812  12.964   7.271
25635SOL    HW278803  12.842  12.820   7.305
25636SOL     OW78804  11.359   4.772   1.704
25636SOL    HW178805  11.380   4.694   1.755
25636SOL    HW278806  11.273   4.799   1.737
25637SOL     OW78807   4.073   8.325   4.728
25637SOL    HW178808   4.139   8.321   4.658
25637SOL    HW278809   4.011   8.255   4.707
25638SOL     OW78810   5.758   7.703  13.396
25638SOL    HW178811   5.787   7.774  13.454
25638SOL    HW278812   5.747   7.746  13.311
25639SOL     OW78813   6.771   4.264   4.534
25639SOL    HW178814   6.784   4.209   4.456
25639SOL    HW278815   6.793   4.352   4.505
25640SOL     OW78816   6.001   3.395   7.420
25640SOL    HW178817   5.953   3.334   7.363
25640SOL    HW278818   6.091   3.365   7.417
25641SOL     OW78819   2.687   8.206  11.021
25641SOL    HW178820   2.778   8.174  11.014
25641SOL    HW278821   2.686   8.287  10.970
25642SOL     OW78822   4.098  14.049  13.971
25642SOL    HW178823   4.065  13.991  13.902
25642SOL    HW278824   4.188  14.069  13.944
25643SOL     OW78825   0.062   7.423  12.154
25643SOL    HW178826   0.066   7.412  12.059
25643SOL    HW278827   0.009   7.350  12.184
25644SOL     OW78828  10.378  14.672  10.729
25644SOL    HW178829  10.308  14.611  10.708
25644SOL    HW278830  10.398  14.715  10.646
25645SOL     OW78831  10.217   6.104  13.572
25645SOL    HW178832  10.241   6.013  13.592
25645SOL    HW278833  10.141   6.096  13.514
25646SOL     OW78834   4.274   3.539   1.552
25646SOL    HW178835   4.360   3.501   1.539
25646SOL    HW278836   4.284   3.631   1.528
25647SOL     OW78837  11.564   5.374   3.388
25647SOL    HW178838  11.591   5.433   3.458
25647SOL    HW278839  11.586   5.421   3.307
25648SOL     OW78840   6.294  12.943  10.530
25648SOL    HW178841   6.210  12.989  10.524
25648SOL    HW278842   6.326  12.962  10.618
25649SOL     OW78843  13.100   9.786   9.393
25649SOL    HW178844  13.035   9.799   9.324
25649SOL    HW278845  13.055   9.734   9.459
25650SOL     OW78846   1.674   1.958  13.702
25650SOL    HW178847   1.609   1.892  13.679
25650SOL    HW278848   1.757   1.910  13.707
25651SOL     OW78849  14.040   9.045   7.288
25651SOL    HW178850  14.088   9.105   7.344
25651SOL    HW278851  14.026   9.093   7.207
25652SOL     OW78852   4.873   1.077  12.606
25652SOL    HW178853   4.785   1.038  12.603
25652SOL    HW278854   4.897   1.087  12.514
25653SOL     OW78855  14.557   1.251  13.636
25653SOL    HW178856  14.599   1.173  13.671
25653SOL    HW278857  14.614   1.279  13.563
25654SOL     OW78858  13.904  14.659   5.894
25654SOL    HW178859  13.976  14.631   5.951
25654SOL    HW278860  13.901  14.592   5.825
25655SOL     OW78861   1.795   6.425   5.640
25655SOL    HW178862   1.847   6.495   5.601
25655SOL    HW278863   1.763   6.375   5.565
25656SOL     OW78864   0.628   5.473  10.904
25656SOL    HW178865   0.705   5.445  10.854
25656SOL    HW278866   0.663   5.531  10.972
25657SOL     OW78867   1.125   4.234   3.469
25657SOL    HW178868   1.046   4.264   3.425
25657SOL    HW278869   1.118   4.138   3.467
25658SOL     OW78870   2.566  10.448   5.864
25658SOL    HW178871   2.648  10.493   5.843
25658SOL    HW278872   2.567  10.440   5.959
25659SOL     OW78873   8.212   5.509   1.000
25659SOL    HW178874   8.185   5.577   1.062
25659SOL    HW278875   8.290   5.470   1.041
25660SOL     OW78876   1.404  14.780   4.371
25660SOL    HW178877   1.357  14.726   4.307
25660SOL    HW278878   1.335  14.828   4.417
25661SOL     OW78879   5.314   6.056   0.926
25661SOL    HW178880   5.293   6.026   0.837
25661SOL    HW278881   5.400   6.098   0.917
25662SOL     OW78882   0.767   6.412   4.353
25662SOL    HW178883   0.776   6.505   4.372
25662SOL    HW278884   0.791   6.368   4.434
25663SOL     OW78885   4.331   8.882   6.584
25663SOL    HW178886   4.427   8.887   6.591
25663SOL    HW278887   4.316   8.840   6.499
25664SOL     OW78888   3.885  10.483   8.319
25664SOL    HW178889   3.938  10.485   8.399
25664SOL    HW278890   3.902  10.397   8.281
25665SOL     OW78891   4.330   4.627   9.703
25665SOL    HW178892   4.372   4.684   9.639
25665SOL    HW278893   4.400   4.571   9.736
25666SOL     OW78894  14.043   4.208   5.141
25666SOL    HW178895  14.063   4.228   5.050
25666SOL    HW278896  13.999   4.287   5.174
25667SOL     OW78897  12.931   8.571  12.944
25667SOL    HW178898  12.992   8.621  12.997
25667SOL    HW278899  12.981   8.543  12.868
25668SOL     OW78900   3.272  11.047  12.960
25668SOL    HW178901   3.259  10.980  13.028
25668SOL    HW278902   3.315  11.001  12.889
25669SOL     OW78903  10.766  14.235   6.633
25669SOL    HW178904  10.687  14.248   6.580
25669SOL    HW278905  10.801  14.323   6.647
25670SOL     OW78906   0.032   2.026   0.022
25670SOL    HW178907  14.815   2.042   0.064
25670SOL    HW278908   0.013   2.025  14.796
25671SOL     OW78909  14.759   5.312  10.143
25671SOL    HW178910  14.829   5.279  10.087
25671SOL    HW278911  14.733   5.237  10.196
25672SOL     OW78912   3.007   0.781   4.746
25672SOL    HW178913   3.055   0.861   4.722
25672SOL    HW278914   3.019   0.723   4.670
25673SOL     OW78915   6.563   7.470   7.677
25673SOL    HW178916   6.632   7.427   7.727
25673SOL    HW278917   6.515   7.523   7.742
25674SOL     OW78918   3.371   3.717   6.673
25674SOL    HW178919   3.398   3.655   6.741
25674SOL    HW278920   3.281   3.741   6.696
25675SOL     OW78921   2.880   4.569   5.410
25675SOL    HW178922   2.942   4.497   5.397
25675SOL    HW278923   2.885   4.589   5.504
25676SOL     OW78924  10.369   5.752   2.810
25676SOL    HW178925  10.329   5.839   2.818
25676SOL    HW278926  10.459   5.770   2.782
25677SOL     OW78927  12.095   2.827   8.706
25677SOL    HW178928  12.053   2.744   8.682
25677SOL    HW278929  12.135   2.809   8.791
25678SOL     OW78930  14.775   9.508  10.234
25678SOL    HW178931  14.767   9.412  10.238
25678SOL    HW278932  14.785   9.535  10.325
25679SOL     OW78933   5.318   9.966  11.586
25679SOL    HW178934   5.254   9.937  11.521
25679SOL    HW278935   5.266  10.007  11.654
25680SOL     OW78936   2.080   7.615  13.389
25680SOL    HW178937   2.118   7.586  13.306
25680SOL    HW278938   2.097   7.542  13.450
25681SOL     OW78939  13.750   3.589   2.129
25681SOL    HW178940  13.822   3.549   2.079
25681SOL    HW278941  13.738   3.675   2.088
25682SOL     OW78942   5.012   6.525   3.867
25682SOL    HW178943   4.995   6.577   3.789
25682SOL    HW278944   5.088   6.471   3.845
25683SOL     OW78945  11.832   0.691   6.195
25683SOL    HW178946  11.906   0.637   6.168
25683SOL    HW278947  11.758   0.630   6.197
25684SOL     OW78948   2.642  14.809   5.414
25684SOL    HW178949   2.596  14.834   5.334
25684SOL    HW278950   2.640  14.714   5.414
25685SOL     OW78951  10.027  13.635  10.299
25685SOL    HW178952   9.980  13.693  10.358
25685SOL    HW278953  10.037  13.686  10.218
25686SOL     OW78954  10.003   0.467   8.209
25686SOL    HW178955  10.054   0.391   8.180
25686SOL    HW278956   9.948   0.433   8.280
25687SOL     OW78957   7.528  11.872   2.420
25687SOL    HW178958   7.528  11.788   2.467
25687SOL    HW278959   7.575  11.854   2.339
25688SOL     OW78960   7.251  11.915   6.478
25688SOL    HW178961   7.241  11.991   6.535
25688SOL    HW278962   7.162  11.897   6.447
25689SOL     OW78963  13.677   3.510   7.250
25689SOL    HW178964  13.684   3.447   7.178
25689SOL    HW278965  13.756   3.563   7.243
25690SOL     OW78966  12.910   0.742   5.239
25690SOL    HW178967  12.976   0.677   5.216
25690SOL    HW278968  12.947   0.825   5.210
25691SOL     OW78969   8.066   3.111   5.584
25691SOL    HW178970   8.150   3.135   5.624
25691SOL    HW278971   8.029   3.194   5.553
25692SOL     OW78972  12.047  11.355  10.790
25692SOL    HW178973  11.978  11.306  10.746
25692SOL    HW278974  12.128  11.311  10.764
25693SOL     OW78975  14.450  13.964   5.889
25693SOL    HW178976  14.424  13.938   5.978
25693SOL    HW278977  14.439  13.885   5.837
25694SOL     OW78978   6.299   7.459  10.802
25694SOL    HW178979   6.297   7.439  10.895
25694SOL    HW278980   6.363   7.398  10.766
25695SOL     OW78981  10.780  12.355   0.405
25695SOL    HW178982  10.780  12.410   0.483
25695SOL    HW278983  10.693  12.368   0.366
25696SOL     OW78984   2.671   8.994   7.494
25696SOL    HW178985   2.760   8.970   7.520
25696SOL    HW278986   2.616   8.928   7.537
25697SOL     OW78987   7.684  13.408   7.994
25697SOL    HW178988   7.751  13.475   8.012
25697SOL    HW278989   7.725  13.325   8.018
25698SOL     OW78990   2.985   8.001  10.617
25698SOL    HW178991   2.993   8.094  10.593
25698SOL    HW278992   3.075   7.970  10.624
25699SOL     OW78993  13.117  11.445   9.385
25699SOL    HW178994  13.061  11.390   9.330
25699SOL    HW278995  13.146  11.515   9.326
25700SOL     OW78996   1.953   5.100  10.183
25700SOL    HW178997   1.859   5.096  10.200
25700SOL    HW278998   1.968   5.190  10.153
25701SOL     OW78999   5.521   2.478   8.724
25701SOL    HW179000   5.608   2.446   8.748
25701SOL    HW279001   5.467   2.399   8.719
25702SOL     OW79002   6.850   9.737   3.378
25702SOL    HW179003   6.803   9.654   3.371
25702SOL    HW279004   6.786   9.804   3.353
25703SOL     OW79005   4.189   0.722  13.917
25703SOL    HW179006   4.215   0.795  13.860
25703SOL    HW279007   4.271   0.679  13.939
25704SOL     OW79008   0.425   2.642   5.100
25704SOL    HW179009   0.385   2.631   5.014
25704SOL    HW279010   0.405   2.732   5.125
25705SOL     OW79011  10.175   7.095  12.546
25705SOL    HW179012  10.194   7.041  12.623
25705SOL    HW279013  10.257   7.140  12.527
25706SOL     OW79014   2.805  13.915   8.585
25706SOL    HW179015   2.867  13.956   8.645
25706SOL    HW279016   2.743  13.984   8.563
25707SOL     OW79017   1.174   0.957   1.267
25707SOL    HW179018   1.186   1.027   1.203
25707SOL    HW279019   1.110   0.898   1.227
25708SOL     OW79020  13.933  10.793   6.694
25708SOL    HW179021  13.943  10.706   6.734
25708SOL    HW279022  14.020  10.833   6.701
25709SOL     OW79023   0.947  13.507  13.918
25709SOL    HW179024   0.967  13.433  13.859
25709SOL    HW279025   0.994  13.486  13.999
25710SOL     OW79026  14.591  13.421  11.880
25710SOL    HW179027  14.564  13.423  11.788
25710SOL    HW279028  14.664  13.483  11.885
25711SOL     OW79029   1.088   1.383   2.773
25711SOL    HW179030   1.169   1.408   2.728
25711SOL    HW279031   1.110   1.300   2.816
25712SOL     OW79032  14.115   4.034   2.264
25712SOL    HW179033  14.136   4.113   2.314
25712SOL    HW279034  14.034   4.001   2.303
25713SOL     OW79035   1.493   2.162   5.003
25713SOL    HW179036   1.573   2.203   5.034
25713SOL    HW279037   1.445   2.138   5.083
25714SOL     OW79038   5.901   1.450   4.208
25714SOL    HW179039   5.986   1.408   4.199
25714SOL    HW279040   5.838   1.382   4.183
25715SOL     OW79041   5.885  10.126   8.134
25715SOL    HW179042   5.834  10.061   8.182
25715SOL    HW279043   5.940  10.167   8.200
25716SOL     OW79044  12.715  10.506   8.391
25716SOL    HW179045  12.710  10.585   8.338
25716SOL    HW279046  12.806  10.501   8.419
25717SOL     OW79047   0.592  12.412  11.965
25717SOL    HW179048   0.681  12.442  11.981
25717SOL    HW279049   0.570  12.448  11.879
25718SOL     OW79050   2.393   1.394  11.804
25718SOL    HW179051   2.422   1.411  11.714
25718SOL    HW279052   2.397   1.299  11.813
25719SOL     OW79053   8.531   2.486   4.587
25719SOL    HW179054   8.473   2.450   4.654
25719SOL    HW279055   8.552   2.574   4.617
25720SOL     OW79056   5.494   3.415   9.752
25720SOL    HW179057   5.536   3.499   9.772
25720SOL    HW279058   5.412   3.417   9.801
25721SOL     OW79059   1.013  14.698   5.030
25721SOL    HW179060   1.000  14.686   4.935
25721SOL    HW279061   0.928  14.676   5.068
25722SOL     OW79062   2.167  11.639  13.712
25722SOL    HW179063   2.259  11.634  13.689
25722SOL    HW279064   2.162  11.707  13.779
25723SOL     OW79065  12.412   6.000   9.858
25723SOL    HW179066  12.360   6.079   9.846
25723SOL    HW279067  12.417   5.961   9.771
25724SOL     OW79068   5.062  14.837   8.025
25724SOL    HW179069   5.047  14.748   8.054
25724SOL    HW279070   5.008  14.847   7.947
25725SOL     OW79071   8.763  10.768  13.254
25725SOL    HW179072   8.839  10.824  13.239
25725SOL    HW279073   8.690  10.814  13.212
25726SOL     OW79074   3.135  10.008   8.511
25726SOL    HW179075   3.065  10.004   8.575
25726SOL    HW279076   3.155  10.101   8.502
25727SOL     OW79077   5.417  11.056  11.342
25727SOL    HW179078   5.336  11.096  11.374
25727SOL    HW279079   5.407  10.962  11.360
25728SOL     OW79080   9.523   2.118  10.963
25728SOL    HW179081   9.430   2.136  10.951
25728SOL    HW279082   9.567   2.189  10.916
25729SOL     OW79083  11.008  11.783  14.073
25729SOL    HW179084  10.958  11.843  14.018
25729SOL    HW279085  11.098  11.791  14.040
25730SOL     OW79086  12.557   5.257   7.812
25730SOL    HW179087  12.557   5.300   7.897
25730SOL    HW279088  12.649   5.257   7.785
25731SOL     OW79089  14.429   8.690  10.676
25731SOL    HW179090  14.499   8.755  10.670
25731SOL    HW279091  14.438   8.638  10.596
25732SOL     OW79092   3.002   7.948   5.945
25732SOL    HW179093   3.003   7.857   5.915
25732SOL    HW279094   3.030   7.943   6.037
25733SOL     OW79095   8.884  11.862   7.672
25733SOL    HW179096   8.904  11.771   7.692
25733SOL    HW279097   8.882  11.905   7.758
25734SOL     OW79098   4.450   7.749  10.671
25734SOL    HW179099   4.421   7.658  10.672
25734SOL    HW279100   4.530   7.747  10.619
25735SOL     OW79101   2.252   2.747   5.900
25735SOL    HW179102   2.159   2.766   5.909
25735SOL    HW279103   2.257   2.684   5.829
25736SOL     OW79104   7.168   9.008   1.802
25736SOL    HW179105   7.139   8.921   1.828
25736SOL    HW279106   7.247   8.992   1.751
25737SOL     OW79107   0.487   2.424  11.454
25737SOL    HW179108   0.428   2.352  11.432
25737SOL    HW279109   0.575   2.389  11.439
25738SOL     OW79110   2.524   7.417   0.970
25738SOL    HW179111   2.565   7.489   1.017
25738SOL    HW279112   2.488   7.360   1.038
25739SOL     OW79113   0.554   6.431   8.667
25739SOL    HW179114   0.488   6.361   8.671
25739SOL    HW279115   0.626   6.392   8.617
25740SOL     OW79116  13.196  13.702   4.703
25740SOL    HW179117  13.217  13.795   4.690
25740SOL    HW279118  13.154  13.699   4.789
25741SOL     OW79119   1.518   1.559   6.018
25741SOL    HW179120   1.454   1.582   6.085
25741SOL    HW279121   1.554   1.475   6.047
25742SOL     OW79122   1.136  13.809   2.089
25742SOL    HW179123   1.217  13.807   2.038
25742SOL    HW279124   1.152  13.875   2.157
25743SOL     OW79125  10.379   2.843   3.241
25743SOL    HW179126  10.463   2.799   3.234
25743SOL    HW279127  10.350   2.856   3.151
25744SOL     OW79128  14.640   8.330   5.260
25744SOL    HW179129  14.639   8.262   5.192
25744SOL    HW279130  14.714   8.386   5.237
25745SOL     OW79131   1.099  13.131   9.609
25745SOL    HW179132   1.191  13.108   9.601
25745SOL    HW279133   1.058  13.095   9.531
25746SOL     OW79134  11.735   8.593   8.087
25746SOL    HW179135  11.807   8.646   8.123
25746SOL    HW279136  11.684   8.568   8.164
25747SOL     OW79137  14.471   4.470   2.780
25747SOL    HW179138  14.452   4.547   2.727
25747SOL    HW279139  14.520   4.412   2.722
25748SOL     OW79140  13.065   1.291   6.876
25748SOL    HW179141  13.092   1.260   6.790
25748SOL    HW279142  13.062   1.386   6.868
25749SOL     OW79143   2.024   5.923   6.189
25749SOL    HW179144   2.100   5.977   6.163
25749SOL    HW279145   1.965   5.984   6.233
25750SOL     OW79146   4.882   0.226   7.267
25750SOL    HW179147   4.956   0.278   7.300
25750SOL    HW279148   4.893   0.140   7.308
25751SOL     OW79149  11.600  12.174  10.254
25751SOL    HW179150  11.645  12.095  10.286
25751SOL    HW279151  11.664  12.217  10.198
25752SOL     OW79152   3.835  14.697   9.302
25752SOL    HW179153   3.801  14.743   9.379
25752SOL    HW279154   3.757  14.683   9.247
25753SOL     OW79155  13.319   6.931  12.502
25753SOL    HW179156  13.338   6.956  12.593
25753SOL    HW279157  13.377   6.857  12.486
25754SOL     OW79158   9.838  13.713  14.768
25754SOL    HW179159   9.919  13.674  14.734
25754SOL    HW279160   9.862  13.746  14.854
25755SOL     OW79161  14.718   9.076  10.409
25755SOL    HW179162  14.718   9.063  10.504
25755SOL    HW279163  14.705   8.989  10.372
25756SOL     OW79164  10.716   6.819  13.126
25756SOL    HW179165  10.641   6.820  13.066
25756SOL    HW279166  10.683   6.774  13.204
25757SOL     OW79167   1.870   8.633   4.800
25757SOL    HW179168   1.785   8.664   4.768
25757SOL    HW279169   1.873   8.541   4.776
25758SOL     OW79170  13.625   6.815   5.189
25758SOL    HW179171  13.551   6.818   5.249
25758SOL    HW279172  13.672   6.735   5.213
25759SOL     OW79173  12.970   5.290  10.672
25759SOL    HW179174  12.957   5.211  10.620
25759SOL    HW279175  12.888   5.338  10.665
25760SOL     OW79176   4.188  14.477   7.200
25760SOL    HW179177   4.177  14.524   7.282
25760SOL    HW279178   4.129  14.402   7.206
25761SOL     OW79179   9.864   2.672   9.835
25761SOL    HW179180   9.770   2.656   9.842
25761SOL    HW279181   9.905   2.597   9.879
25762SOL     OW79182  11.505  10.315   5.297
25762SOL    HW179183  11.460  10.284   5.218
25762SOL    HW279184  11.573  10.374   5.265
25763SOL     OW79185  13.572   5.978   8.922
25763SOL    HW179186  13.561   5.914   8.992
25763SOL    HW279187  13.497   5.965   8.864
25764SOL     OW79188  13.525  13.120   3.208
25764SOL    HW179189  13.500  13.151   3.121
25764SOL    HW279190  13.481  13.035   3.216
25765SOL     OW79191   8.592   1.791   9.377
25765SOL    HW179192   8.677   1.825   9.349
25765SOL    HW279193   8.547   1.770   9.295
25766SOL     OW79194  12.950  10.312   8.213
25766SOL    HW179195  12.869  10.302   8.164
25766SOL    HW279196  13.019  10.306   8.148
25767SOL     OW79197  13.743  13.267   3.239
25767SOL    HW179198  13.660  13.220   3.235
25767SOL    HW279199  13.785  13.236   3.319
25768SOL     OW79200   7.439   7.021   6.429
25768SOL    HW179201   7.382   7.098   6.422
25768SOL    HW279202   7.497   7.041   6.503
25769SOL     OW79203   3.948   6.942   5.994
25769SOL    HW179204   4.027   6.896   5.968
25769SOL    HW279205   3.975   7.000   6.065
25770SOL     OW79206   5.649   7.494  10.436
25770SOL    HW179207   5.672   7.586  10.421
25770SOL    HW279208   5.628   7.490  10.529
25771SOL     OW79209  14.660   7.805  13.879
25771SOL    HW179210  14.731   7.829  13.820
25771SOL    HW279211  14.661   7.873  13.946
25772SOL     OW79212   9.181   7.778   6.227
25772SOL    HW179213   9.107   7.717   6.238
25772SOL    HW279214   9.144   7.852   6.180
25773SOL     OW79215   9.324   2.540  13.423
25773SOL    HW179216   9.295   2.465  13.372
25773SOL    HW279217   9.333   2.611  13.359
25774SOL     OW79218  12.096   2.845   3.031
25774SOL    HW179219  12.001   2.859   3.024
25774SOL    HW279220  12.108   2.752   3.013
25775SOL     OW79221   9.320  12.598  14.742
25775SOL    HW179222   9.315  12.655  14.819
25775SOL    HW279223   9.413  12.578  14.733
25776SOL     OW79224   5.922   2.961   8.917
25776SOL    HW179225   5.989   2.964   8.986
25776SOL    HW279226   5.918   2.868   8.893
25777SOL     OW79227   2.166  13.791  10.007
25777SOL    HW179228   2.073  13.810  10.011
25777SOL    HW279229   2.190  13.810   9.916
25778SOL     OW79230   7.388  12.511  13.922
25778SOL    HW179231   7.341  12.464  13.991
25778SOL    HW279232   7.480  12.492  13.939
25779SOL     OW79233   0.207   8.287   1.032
25779SOL    HW179234   0.198   8.348   1.105
25779SOL    HW279235   0.301   8.268   1.027
25780SOL     OW79236  12.042  12.088   8.844
25780SOL    HW179237  12.103  12.161   8.850
25780SOL    HW279238  11.963  12.120   8.887
25781SOL     OW79239   0.812   8.086  13.523
25781SOL    HW179240   0.737   8.116  13.573
25781SOL    HW279241   0.797   8.119  13.434
25782SOL     OW79242   3.342   8.375   2.145
25782SOL    HW179243   3.247   8.374   2.132
25782SOL    HW279244   3.353   8.402   2.237
25783SOL     OW79245  14.672   0.961   2.595
25783SOL    HW179246  14.671   1.043   2.546
25783SOL    HW279247  14.662   0.988   2.687
25784SOL     OW79248  13.556  12.085   2.185
25784SOL    HW179249  13.605  12.096   2.266
25784SOL    HW279250  13.585  12.157   2.129
25785SOL     OW79251   5.737   8.188  12.455
25785SOL    HW179252   5.771   8.275  12.476
25785SOL    HW279253   5.731   8.187  12.360
25786SOL     OW79254   6.103   0.090   6.211
25786SOL    HW179255   6.078   0.033   6.284
25786SOL    HW279256   6.050   0.060   6.137
25787SOL     OW79257  10.713   5.038   5.934
25787SOL    HW179258  10.719   5.104   6.003
25787SOL    HW279259  10.650   5.074   5.872
25788SOL     OW79260  12.934   1.496  13.692
25788SOL    HW179261  12.998   1.430  13.720
25788SOL    HW279262  12.931   1.559  13.764
25789SOL     OW79263   0.922  10.791  13.746
25789SOL    HW179264   0.904  10.862  13.684
25789SOL    HW279265   0.847  10.733  13.740
25790SOL     OW79266  11.687   1.181   3.776
25790SOL    HW179267  11.666   1.127   3.700
25790SOL    HW279268  11.652   1.267   3.756
25791SOL     OW79269  11.156   2.862   7.368
25791SOL    HW179270  11.180   2.769   7.365
25791SOL    HW279271  11.217   2.905   7.308
25792SOL     OW79272   3.829  13.002   1.440
25792SOL    HW179273   3.815  13.089   1.478
25792SOL    HW279274   3.744  12.959   1.448
25793SOL     OW79275   5.087  13.748   9.607
25793SOL    HW179276   5.035  13.814   9.562
25793SOL    HW279277   5.032  13.721   9.681
25794SOL     OW79278   0.754   2.927  14.736
25794SOL    HW179279   0.747   2.898  14.645
25794SOL    HW279280   0.814   3.002  14.733
25795SOL     OW79281   4.952   1.950   4.599
25795SOL    HW179282   5.033   1.903   4.583
25795SOL    HW279283   4.978   2.027   4.649
25796SOL     OW79284  11.609  13.933   5.367
25796SOL    HW179285  11.652  13.851   5.345
25796SOL    HW279286  11.528  13.933   5.316
25797SOL     OW79287   7.800   7.603   5.989
25797SOL    HW179288   7.751   7.619   5.909
25797SOL    HW279289   7.739   7.624   6.060
25798SOL     OW79290   5.365   1.081   6.983
25798SOL    HW179291   5.286   1.067   6.930
25798SOL    HW279292   5.333   1.086   7.073
25799SOL     OW79293   1.860   2.846   0.078
25799SOL    HW179294   1.802   2.855   0.153
25799SOL    HW279295   1.879   2.935   0.050
25800SOL     OW79296   8.561   6.051  10.130
25800SOL    HW179297   8.469   6.050  10.101
25800SOL    HW279298   8.561   6.108  10.207
25801SOL     OW79299   9.800   5.266   1.139
25801SOL    HW179300   9.744   5.208   1.191
25801SOL    HW279301   9.776   5.247   1.048
25802SOL     OW79302   1.912  11.682  14.222
25802SOL    HW179303   1.855  11.756  14.243
25802SOL    HW279304   1.997  11.706  14.261
25803SOL     OW79305  13.697   1.769  13.295
25803SOL    HW179306  13.790   1.770  13.273
25803SOL    HW279307  13.652   1.764  13.210
25804SOL     OW79308   6.979   9.190   1.956
25804SOL    HW179309   7.065   9.151   1.939
25804SOL    HW279310   6.932   9.183   1.873
25805SOL     OW79311   4.819   0.350   0.247
25805SOL    HW179312   4.851   0.290   0.180
25805SOL    HW279313   4.725   0.336   0.249
25806SOL     OW79314  14.666  14.861   0.421
25806SOL    HW179315  14.655   0.082   0.453
25806SOL    HW279316  14.752  14.862   0.378
25807SOL     OW79317  12.768   5.531   7.869
25807SOL    HW179318  12.821   5.474   7.924
25807SOL    HW279319  12.827   5.602   7.844
25808SOL     OW79320  13.447  10.840   7.087
25808SOL    HW179321  13.454  10.754   7.047
25808SOL    HW279322  13.395  10.892   7.025
25809SOL     OW79323   4.018   7.840  12.614
25809SOL    HW179324   4.076   7.793  12.674
25809SOL    HW279325   3.936   7.792  12.616
25810SOL     OW79326   1.911   1.223   4.089
25810SOL    HW179327   1.819   1.196   4.088
25810SOL    HW279328   1.940   1.204   4.179
25811SOL     OW79329  10.014   1.671   6.352
25811SOL    HW179330  10.106   1.674   6.324
25811SOL    HW279331   9.996   1.578   6.366
25812SOL     OW79332   4.854   8.404  10.296
25812SOL    HW179333   4.780   8.430  10.242
25812SOL    HW279334   4.858   8.469  10.366
25813SOL     OW79335   1.887   2.691  14.256
25813SOL    HW179336   1.949   2.760  14.279
25813SOL    HW279337   1.923   2.652  14.177
25814SOL     OW79338  12.150   6.788   6.636
25814SOL    HW179339  12.060   6.803   6.664
25814SOL    HW279340  12.189   6.735   6.706
25815SOL     OW79341   3.610   3.163   9.877
25815SOL    HW179342   3.615   3.156   9.972
25815SOL    HW279343   3.528   3.118   9.854
25816SOL     OW79344  12.148  10.077   0.992
25816SOL    HW179345  12.150  10.121   0.907
25816SOL    HW279346  12.098   9.997   0.975
25817SOL     OW79347   7.004  11.561  14.345
25817SOL    HW179348   7.071  11.611  14.299
25817SOL    HW279349   7.049  11.484  14.379
25818SOL     OW79350  11.675   4.305  11.867
25818SOL    HW179351  11.608   4.265  11.923
25818SOL    HW279352  11.677   4.250  11.789
25819SOL     OW79353  14.361  10.167   0.807
25819SOL    HW179354  14.385  10.132   0.893
25819SOL    HW279355  14.403  10.253   0.805
25820SOL     OW79356   5.745   9.885  14.293
25820SOL    HW179357   5.651   9.894  14.311
25820SOL    HW279358   5.750   9.815  14.228
25821SOL     OW79359  14.474  14.746   1.790
25821SOL    HW179360  14.517  14.821   1.830
25821SOL    HW279361  14.545  14.695   1.752
25822SOL     OW79362   7.851  14.842  14.764
25822SOL    HW179363   7.771  14.853  14.816
25822SOL    HW279364   7.825  14.864  14.675
25823SOL     OW79365  11.063  10.303   1.602
25823SOL    HW179366  11.145  10.313   1.552
25823SOL    HW279367  11.004  10.259   1.541
25824SOL     OW79368  14.788  10.515   1.689
25824SOL    HW179369  14.781  10.607   1.665
25824SOL    HW279370   0.007  10.507   1.729
25825SOL     OW79371  11.131   3.773   9.617
25825SOL    HW179372  11.193   3.814   9.556
25825SOL    HW279373  11.178   3.696   9.650
25826SOL     OW79374   9.671  13.768  11.235
25826SOL    HW179375   9.742  13.832  11.226
25826SOL    HW279376   9.715  13.687  11.261
25827SOL     OW79377  14.353  11.273   9.758
25827SOL    HW179378  14.351  11.354   9.707
25827SOL    HW279379  14.421  11.288   9.824
25828SOL     OW79380  12.467   3.775   5.409
25828SOL    HW179381  12.376   3.786   5.436
25828SOL    HW279382  12.513   3.753   5.490
25829SOL     OW79383   6.213   4.302  14.251
25829SOL    HW179384   6.156   4.224  14.247
25829SOL    HW279385   6.295   4.273  14.212
25830SOL     OW79386   0.588   9.477   7.318
25830SOL    HW179387   0.601   9.463   7.412
25830SOL    HW279388   0.645   9.551   7.297
25831SOL     OW79389  14.230  12.063   1.037
25831SOL    HW179390  14.158  12.127   1.038
25831SOL    HW279391  14.256  12.055   1.129
25832SOL     OW79392  14.856   6.586   2.005
25832SOL    HW179393  14.828   6.609   1.917
25832SOL    HW279394  14.796   6.632   2.063
25833SOL     OW79395   7.210   9.348   7.057
25833SOL    HW179396   7.201   9.389   6.971
25833SOL    HW279397   7.300   9.316   7.059
25834SOL     OW79398   3.291   6.675  11.098
25834SOL    HW179399   3.210   6.627  11.079
25834SOL    HW279400   3.265   6.742  11.161
25835SOL     OW79401  10.526   6.893   1.043
25835SOL    HW179402  10.491   6.803   1.042
25835SOL    HW279403  10.611   6.885   1.086
25836SOL     OW79404   8.907  14.246   0.248
25836SOL    HW179405   8.995  14.208   0.252
25836SOL    HW279406   8.877  14.228   0.159
25837SOL     OW79407   9.264   6.723   4.995
25837SOL    HW179408   9.234   6.637   4.966
25837SOL    HW279409   9.192   6.757   5.048
25838SOL     OW79410   1.869   6.668  12.228
25838SOL    HW179411   1.855   6.574  12.222
25838SOL    HW279412   1.958   6.682  12.196
25839SOL     OW79413   1.018  13.833   8.606
25839SOL    HW179414   0.993  13.858   8.696
25839SOL    HW279415   1.084  13.899   8.581
25840SOL     OW79416   3.615   8.867  14.529
25840SOL    HW179417   3.680   8.937  14.528
25840SOL    HW279418   3.659   8.794  14.573
25841SOL     OW79419   5.005   5.323   5.128
25841SOL    HW179420   5.048   5.246   5.091
25841SOL    HW279421   5.074   5.389   5.132
25842SOL     OW79422   3.101   8.257   8.049
25842SOL    HW179423   3.037   8.322   8.077
25842SOL    HW279424   3.156   8.242   8.126
25843SOL     OW79425  11.240   7.236   2.807
25843SOL    HW179426  11.147   7.233   2.826
25843SOL    HW279427  11.263   7.328   2.812
25844SOL     OW79428  14.463   2.675  14.177
25844SOL    HW179429  14.400   2.637  14.237
25844SOL    HW279430  14.420   2.753  14.143
25845SOL     OW79431  10.191   9.783   1.181
25845SOL    HW179432  10.243   9.705   1.159
25845SOL    HW279433  10.103   9.750   1.195
25846SOL     OW79434   3.222   9.367   1.172
25846SOL    HW179435   3.259   9.431   1.111
25846SOL    HW279436   3.224   9.284   1.123
25847SOL     OW79437  11.948   7.672   4.994
25847SOL    HW179438  11.932   7.633   4.908
25847SOL    HW279439  11.982   7.600   5.047
25848SOL     OW79440   3.085   8.205   3.041
25848SOL    HW179441   3.110   8.296   3.025
25848SOL    HW279442   3.069   8.201   3.135
25849SOL     OW79443   5.785  10.393  11.643
25849SOL    HW179444   5.715  10.352  11.694
25849SOL    HW279445   5.850  10.419  11.708
25850SOL     OW79446   1.672   6.219  12.631
25850SOL    HW179447   1.744   6.277  12.656
25850SOL    HW279448   1.679   6.145  12.691
25851SOL     OW79449   5.330  11.266   7.697
25851SOL    HW179450   5.331  11.312   7.613
25851SOL    HW279451   5.411  11.295   7.740
25852SOL     OW79452  10.014  12.355   5.639
25852SOL    HW179453   9.972  12.368   5.724
25852SOL    HW279454   9.956  12.295   5.593
25853SOL     OW79455  13.586  10.125  11.411
25853SOL    HW179456  13.647  10.193  11.440
25853SOL    HW279457  13.499  10.161  11.430
25854SOL     OW79458   0.396  11.385  10.815
25854SOL    HW179459   0.334  11.444  10.859
25854SOL    HW279460   0.480  11.403  10.858
25855SOL     OW79461   6.916  12.012   0.398
25855SOL    HW179462   6.929  11.918   0.381
25855SOL    HW279463   6.990  12.037   0.453
25856SOL     OW79464   1.142   8.570   8.692
25856SOL    HW179465   1.141   8.664   8.674
25856SOL    HW279466   1.126   8.529   8.606
25857SOL     OW79467  10.027   3.430  10.829
25857SOL    HW179468  10.078   3.454  10.751
25857SOL    HW279469  10.041   3.336  10.839
25858SOL     OW79470  10.563   7.462   5.047
25858SOL    HW179471  10.473   7.479   5.073
25858SOL    HW279472  10.595   7.398   5.111
25859SOL     OW79473  12.505   2.560   5.369
25859SOL    HW179474  12.486   2.528   5.457
25859SOL    HW279475  12.469   2.649   5.368
25860SOL     OW79476   8.382  14.482  13.680
25860SOL    HW179477   8.395  14.387  13.687
25860SOL    HW279478   8.453  14.519  13.733
25861SOL     OW79479  14.064   1.330   4.482
25861SOL    HW179480  14.094   1.241   4.499
25861SOL    HW279481  14.134   1.370   4.432
25862SOL     OW79482   9.338  11.552   1.622
25862SOL    HW179483   9.325  11.493   1.697
25862SOL    HW279484   9.351  11.494   1.548
25863SOL     OW79485   5.101  12.078   9.072
25863SOL    HW179486   5.139  12.108   9.154
25863SOL    HW279487   5.007  12.071   9.089
25864SOL     OW79488  14.298   3.480   3.135
25864SOL    HW179489  14.298   3.447   3.045
25864SOL    HW279490  14.208   3.466   3.165
25865SOL     OW79491  11.667  11.136   7.862
25865SOL    HW179492  11.575  11.110   7.855
25865SOL    HW279493  11.709  11.096   7.786
25866SOL     OW79494   2.555   7.877  13.591
25866SOL    HW179495   2.561   7.788  13.559
25866SOL    HW279496   2.642   7.897  13.625
25867SOL     OW79497   8.377   4.398  14.842
25867SOL    HW179498   8.312   4.332  14.817
25867SOL    HW279499   8.342   4.436   0.055
25868SOL     OW79500  10.506  14.735   8.688
25868SOL    HW179501  10.594  14.759   8.719
25868SOL    HW279502  10.495  14.644   8.716
25869SOL     OW79503   1.203   8.852   1.393
25869SOL    HW179504   1.112   8.874   1.413
25869SOL    HW279505   1.250   8.935   1.398
25870SOL     OW79506  12.115   1.967   6.903
25870SOL    HW179507  12.115   1.873   6.921
25870SOL    HW279508  12.026   1.995   6.925
25871SOL     OW79509   6.973   5.170   2.981
25871SOL    HW179510   6.952   5.214   3.064
25871SOL    HW279511   7.019   5.236   2.930
25872SOL     OW79512   4.985   8.166  11.616
25872SOL    HW179513   4.964   8.250  11.657
25872SOL    HW279514   5.034   8.118  11.683
25873SOL     OW79515   0.696   0.668   8.959
25873SOL    HW179516   0.700   0.756   8.922
25873SOL    HW279517   0.639   0.620   8.900
25874SOL     OW79518   9.968   1.546   8.303
25874SOL    HW179519  10.060   1.529   8.323
25874SOL    HW279520   9.963   1.543   8.208
25875SOL     OW79521   4.730  11.878   7.650
25875SOL    HW179522   4.721  11.866   7.555
25875SOL    HW279523   4.761  11.968   7.660
25876SOL     OW79524   8.741   1.837   4.537
25876SOL    HW179525   8.834   1.846   4.558
25876SOL    HW279526   8.725   1.743   4.536
25877SOL     OW79527   9.898   2.986   4.817
25877SOL    HW179528   9.810   3.021   4.805
25877SOL    HW279529   9.944   3.054   4.866
25878SOL     OW79530   0.748   8.391   1.070
25878SOL    HW179531   0.751   8.451   1.145
25878SOL    HW279532   0.810   8.322   1.092
25879SOL     OW79533   1.762  11.886   1.898
25879SOL    HW179534   1.742  11.960   1.956
25879SOL    HW279535   1.846  11.854   1.928
25880SOL     OW79536  12.229  13.189   1.685
25880SOL    HW179537  12.154  13.236   1.721
25880SOL    HW279538  12.301  13.253   1.688
25881SOL     OW79539   5.951  11.151   5.522
25881SOL    HW179540   5.940  11.242   5.493
25881SOL    HW279541   6.046  11.139   5.528
25882SOL     OW79542   1.449   8.120   0.327
25882SOL    HW179543   1.449   8.194   0.266
25882SOL    HW279544   1.457   8.043   0.271
25883SOL     OW79545   5.414   4.369  14.765
25883SOL    HW179546   5.397   4.461  14.745
25883SOL    HW279547   5.429   4.366  14.859
25884SOL     OW79548   2.586   6.230  11.976
25884SOL    HW179549   2.520   6.235  11.907
25884SOL    HW279550   2.663   6.193  11.934
25885SOL     OW79551   2.508   1.399  13.687
25885SOL    HW179552   2.554   1.437  13.612
25885SOL    HW279553   2.426   1.365  13.651
25886SOL     OW79554  11.308  10.069   6.591
25886SOL    HW179555  11.302  10.117   6.508
25886SOL    HW279556  11.227  10.091   6.638
25887SOL     OW79557   4.299   2.145  10.184
25887SOL    HW179558   4.310   2.078  10.252
25887SOL    HW279559   4.366   2.126  10.119
25888SOL     OW79560   9.998  12.170  13.843
25888SOL    HW179561  10.018  12.205  13.929
25888SOL    HW279562  10.010  12.075  13.852
25889SOL     OW79563   9.570   5.414   6.662
25889SOL    HW179564   9.479   5.386   6.668
25889SOL    HW279565   9.584   5.434   6.569
25890SOL     OW79566  10.972  10.208   1.354
25890SOL    HW179567  10.879  10.193   1.375
25890SOL    HW279568  11.002  10.124   1.319
25891SOL     OW79569   7.346   5.579   2.501
25891SOL    HW179570   7.403   5.547   2.570
25891SOL    HW279571   7.258   5.555   2.530
25892SOL     OW79572   9.668  11.627  10.879
25892SOL    HW179573   9.665  11.532  10.889
25892SOL    HW279574   9.745  11.654  10.931
25893SOL     OW79575   8.644  12.200   4.618
25893SOL    HW179576   8.653  12.278   4.674
25893SOL    HW279577   8.732  12.161   4.618
25894SOL     OW79578  13.015   3.288  11.868
25894SOL    HW179579  12.997   3.199  11.837
25894SOL    HW279580  12.943   3.341  11.832
25895SOL     OW79581  11.139   9.676   4.523
25895SOL    HW179582  11.197   9.731   4.576
25895SOL    HW279583  11.196   9.640   4.455
25896SOL     OW79584   4.685   9.036   7.361
25896SOL    HW179585   4.616   8.976   7.390
25896SOL    HW279586   4.686   9.106   7.427
25897SOL     OW79587   6.489  11.656   4.130
25897SOL    HW179588   6.508  11.625   4.219
25897SOL    HW279589   6.521  11.586   4.073
25898SOL     OW79590   6.368   4.942  12.384
25898SOL    HW179591   6.429   4.977  12.319
25898SOL    HW279592   6.342   5.018  12.436
25899SOL     OW79593   3.809   3.168   7.205
25899SOL    HW179594   3.754   3.232   7.159
25899SOL    HW279595   3.760   3.086   7.198
25900SOL     OW79596   9.978   0.154  13.671
25900SOL    HW179597   9.893   0.196  13.690
25900SOL    HW279598  10.034   0.182  13.743
25901SOL     OW79599   4.281   1.201   1.429
25901SOL    HW179600   4.314   1.194   1.339
25901SOL    HW279601   4.265   1.110   1.455
25902SOL     OW79602  10.695   2.041   1.817
25902SOL    HW179603  10.760   2.085   1.872
25902SOL    HW279604  10.617   2.095   1.824
25903SOL     OW79605   4.153  11.542   9.519
25903SOL    HW179606   4.196  11.457   9.522
25903SOL    HW279607   4.220  11.605   9.545
25904SOL     OW79608   6.655  11.182  13.567
25904SOL    HW179609   6.729  11.211  13.620
25904SOL    HW279610   6.694  11.123  13.502
25905SOL     OW79611   3.706   4.826   6.640
25905SOL    HW179612   3.636   4.854   6.581
25905SOL    HW279613   3.707   4.892   6.709
25906SOL     OW79614   9.549   4.327   2.905
25906SOL    HW179615   9.628   4.273   2.918
25906SOL    HW279616   9.574   4.413   2.938
25907SOL     OW79617  14.418  14.577   0.169
25907SOL    HW179618  14.455  14.580   0.257
25907SOL    HW279619  14.325  14.556   0.183
25908SOL     OW79620  10.028   5.740   0.775
25908SOL    HW179621   9.997   5.814   0.827
25908SOL    HW279622  10.028   5.772   0.685
25909SOL     OW79623   8.508   0.001   1.802
25909SOL    HW179624   8.451   0.027   1.729
25909SOL    HW279625   8.595   0.029   1.777
25910SOL     OW79626   6.615   3.880  12.072
25910SOL    HW179627   6.617   3.869  12.167
25910SOL    HW279628   6.608   3.975  12.059
25911SOL     OW79629   0.214   1.866   3.111
25911SOL    HW179630   0.220   1.949   3.158
25911SOL    HW279631   0.187   1.803   3.178
25912SOL     OW79632   0.906  10.107   9.681
25912SOL    HW179633   0.888  10.151   9.598
25912SOL    HW279634   0.974  10.160   9.723
25913SOL     OW79635   6.570   7.696  13.008
25913SOL    HW179636   6.646   7.706  12.952
25913SOL    HW279637   6.499   7.673  12.948
25914SOL     OW79638   7.630   6.584   4.240
25914SOL    HW179639   7.602   6.502   4.201
25914SOL    HW279640   7.710   6.607   4.193
25915SOL     OW79641   1.596   0.133   1.411
25915SOL    HW179642   1.643   0.209   1.445
25915SOL    HW279643   1.664   0.077   1.373
25916SOL     OW79644  11.773   7.080   2.214
25916SOL    HW179645  11.812   7.079   2.302
25916SOL    HW279646  11.703   7.145   2.219
25917SOL     OW79647  14.436  12.285  14.654
25917SOL    HW179648  14.471  12.220  14.715
25917SOL    HW279649  14.488  12.273  14.575
25918SOL     OW79650  13.959   0.104   7.002
25918SOL    HW179651  14.013   0.154   7.063
25918SOL    HW279652  14.020   0.042   6.961
25919SOL     OW79653  10.172   0.739  13.627
25919SOL    HW179654  10.201   0.740  13.718
25919SOL    HW279655  10.130   0.653  13.616
25920SOL     OW79656  12.851  14.626  12.232
25920SOL    HW179657  12.826  14.541  12.196
25920SOL    HW279658  12.769  14.662  12.267
25921SOL     OW79659  13.430   6.467   6.541
25921SOL    HW179660  13.399   6.547   6.583
25921SOL    HW279661  13.366   6.400   6.565
25922SOL     OW79662   6.717  14.652  11.639
25922SOL    HW179663   6.794  14.668  11.585
25922SOL    HW279664   6.697  14.736  11.679
25923SOL     OW79665   6.890   6.226   4.421
25923SOL    HW179666   6.835   6.304   4.408
25923SOL    HW279667   6.857   6.186   4.502
25924SOL     OW79668   2.034   0.714   9.273
25924SOL    HW179669   2.090   0.658   9.327
25924SOL    HW279670   2.033   0.671   9.188
25925SOL     OW79671   4.599   1.329  12.112
25925SOL    HW179672   4.594   1.389  12.038
25925SOL    HW279673   4.630   1.247  12.074
25926SOL     OW79674   7.766  10.353  13.176
25926SOL    HW179675   7.799  10.373  13.089
25926SOL    HW279676   7.713  10.430  13.200
25927SOL     OW79677   1.384   9.712  14.755
25927SOL    HW179678   1.431   9.692  14.674
25927SOL    HW279679   1.435   9.668  14.823
25928SOL     OW79680   9.928   1.911   6.241
25928SOL    HW179681   9.954   1.827   6.278
25928SOL    HW279682  10.011   1.954   6.220
25929SOL     OW79683   9.309  10.439  10.312
25929SOL    HW179684   9.253  10.362  10.305
25929SOL    HW279685   9.388  10.415  10.263
25930SOL     OW79686   1.826   8.277   3.353
25930SOL    HW179687   1.752   8.331   3.381
25930SOL    HW279688   1.792   8.188   3.357
25931SOL     OW79689   5.997  14.463   8.363
25931SOL    HW179690   6.041  14.489   8.444
25931SOL    HW279691   5.908  14.496   8.373
25932SOL     OW79692   0.352  12.474   0.410
25932SOL    HW179693   0.361  12.538   0.339
25932SOL    HW279694   0.439  12.468   0.448
25933SOL     OW79695  12.533   5.615   8.773
25933SOL    HW179696  12.527   5.606   8.868
25933SOL    HW279697  12.445   5.644   8.746
25934SOL     OW79698   1.348   1.738  12.837
25934SOL    HW179699   1.377   1.743  12.928
25934SOL    HW279700   1.403   1.671  12.798
25935SOL     OW79701   5.557   0.428  11.716
25935SOL    HW179702   5.584   0.474  11.636
25935SOL    HW279703   5.471   0.391  11.694
25936SOL     OW79704   1.583   5.408  10.472
25936SOL    HW179705   1.580   5.492  10.516
25936SOL    HW279706   1.532   5.349  10.528
25937SOL     OW79707   8.084  12.599  10.137
25937SOL    HW179708   8.136  12.632  10.064
25937SOL    HW279709   7.993  12.619  10.114
25938SOL     OW79710   2.626   4.893   8.404
25938SOL    HW179711   2.636   4.814   8.457
25938SOL    HW279712   2.707   4.942   8.418
25939SOL     OW79713   3.033   4.972   4.424
25939SOL    HW179714   3.114   5.022   4.418
25939SOL    HW279715   3.003   4.964   4.333
25940SOL     OW79716   5.253  14.678  11.694
25940SOL    HW179717   5.288  14.767  11.691
25940SOL    HW279718   5.214  14.665  11.608
25941SOL     OW79719   2.157   1.804  11.319
25941SOL    HW179720   2.197   1.881  11.359
25941SOL    HW279721   2.210   1.730  11.349
25942SOL     OW79722   9.708   7.090  11.167
25942SOL    HW179723   9.717   7.181  11.139
25942SOL    HW279724   9.694   7.042  11.085
25943SOL     OW79725  12.900  14.763  11.343
25943SOL    HW179726  12.830  14.713  11.301
25943SOL    HW279727  12.875  14.855  11.332
25944SOL     OW79728   0.001   3.804   9.597
25944SOL    HW179729  14.854   3.853   9.677
25944SOL    HW279730   0.046   3.865   9.539
25945SOL     OW79731   2.581   3.117  13.578
25945SOL    HW179732   2.493   3.148  13.597
25945SOL    HW279733   2.630   3.134  13.658
25946SOL     OW79734  11.703   2.257  11.015
25946SOL    HW179735  11.789   2.231  10.981
25946SOL    HW279736  11.675   2.328  10.958
25947SOL     OW79737   0.736   6.382  12.095
25947SOL    HW179738   0.798   6.395  12.023
25947SOL    HW279739   0.650   6.394  12.054
25948SOL     OW79740   5.674  11.753   6.217
25948SOL    HW179741   5.676  11.840   6.258
25948SOL    HW279742   5.748  11.754   6.156
25949SOL     OW79743  11.553  13.286  14.236
25949SOL    HW179744  11.518  13.209  14.191
25949SOL    HW279745  11.637  13.302  14.193
25950SOL     OW79746   0.111  12.915  14.633
25950SOL    HW179747   0.085  12.879  14.548
25950SOL    HW279748   0.086  12.849  14.696
25951SOL     OW79749   3.477  13.304   4.641
25951SOL    HW179750   3.569  13.298   4.669
25951SOL    HW279751   3.443  13.215   4.650
25952SOL     OW79752   3.849   6.463  12.094
25952SOL    HW179753   3.871   6.554  12.073
25952SOL    HW279754   3.929   6.427  12.131
25953SOL     OW79755   2.170   4.758   5.345
25953SOL    HW179756   2.086   4.790   5.313
25953SOL    HW279757   2.196   4.822   5.412
25954SOL     OW79758   6.523   0.683   4.706
25954SOL    HW179759   6.540   0.601   4.753
25954SOL    HW279760   6.439   0.669   4.663
25955SOL     OW79761   6.894   8.959   5.514
25955SOL    HW179762   6.800   8.976   5.518
25955SOL    HW279763   6.909   8.888   5.576
25956SOL     OW79764  13.331   7.010   4.278
25956SOL    HW179765  13.328   7.043   4.188
25956SOL    HW279766  13.407   7.055   4.317
25957SOL     OW79767  13.772  13.334  12.885
25957SOL    HW179768  13.690  13.372  12.918
25957SOL    HW279769  13.841  13.386  12.926
25958SOL     OW79770   7.087   0.041   6.279
25958SOL    HW179771   7.016   0.023   6.341
25958SOL    HW279772   7.043   0.078   6.202
25959SOL     OW79773   2.083  12.783  10.885
25959SOL    HW179774   1.988  12.779  10.897
25959SOL    HW279775   2.119  12.746  10.966
25960SOL     OW79776   0.377   8.267   6.469
25960SOL    HW179777   0.312   8.337   6.477
25960SOL    HW279778   0.401   8.268   6.376
25961SOL     OW79779   0.830   6.605  14.128
25961SOL    HW179780   0.790   6.602  14.041
25961SOL    HW279781   0.788   6.679  14.171
25962SOL     OW79782   6.896   7.926   0.066
25962SOL    HW179783   6.908   7.988  14.862
25962SOL    HW279784   6.823   7.871   0.039
25963SOL     OW79785  13.950  13.942  11.124
25963SOL    HW179786  13.874  13.917  11.072
25963SOL    HW279787  13.916  13.961  11.211
25964SOL     OW79788  10.460   9.140  11.246
25964SOL    HW179789  10.507   9.176  11.171
25964SOL    HW279790  10.413   9.214  11.283
25965SOL     OW79791   1.430   4.366   6.623
25965SOL    HW179792   1.506   4.423   6.635
25965SOL    HW279793   1.371   4.416   6.567
25966SOL     OW79794   4.142   2.438   8.058
25966SOL    HW179795   4.193   2.514   8.030
25966SOL    HW279796   4.207   2.380   8.098
25967SOL     OW79797  14.805   1.303  14.782
25967SOL    HW179798  14.739   1.372  14.793
25967SOL    HW279799  14.782   1.262  14.698
25968SOL     OW79800  12.054  12.272   7.179
25968SOL    HW179801  12.113  12.346   7.163
25968SOL    HW279802  12.033  12.240   7.092
25969SOL     OW79803  13.313   9.827   2.484
25969SOL    HW179804  13.339   9.752   2.538
25969SOL    HW279805  13.252   9.876   2.538
25970SOL     OW79806   0.615   2.731   2.012
25970SOL    HW179807   0.700   2.776   2.009
25970SOL    HW279808   0.555   2.795   2.049
25971SOL     OW79809   1.484   5.318   2.717
25971SOL    HW179810   1.520   5.375   2.649
25971SOL    HW279811   1.554   5.312   2.782
25972SOL     OW79812  12.185   4.718   4.780
25972SOL    HW179813  12.251   4.716   4.710
25972SOL    HW279814  12.101   4.721   4.734
25973SOL     OW79815  14.748   1.246   6.075
25973SOL    HW179816  14.764   1.312   6.007
25973SOL    HW279817  14.698   1.293   6.142
25974SOL     OW79818   6.454  12.581  11.740
25974SOL    HW179819   6.518  12.642  11.704
25974SOL    HW279820   6.424  12.622  11.820
25975SOL     OW79821   2.972   9.936   4.425
25975SOL    HW179822   2.961  10.026   4.393
25975SOL    HW279823   3.066   9.926   4.435
25976SOL     OW79824   4.682   1.046  13.644
25976SOL    HW179825   4.655   0.970  13.697
25976SOL    HW279826   4.753   1.086  13.694
25977SOL     OW79827  10.620   1.283  13.543
25977SOL    HW179828  10.649   1.253  13.457
25977SOL    HW279829  10.557   1.353  13.525
25978SOL     OW79830  11.666  13.922   6.052
25978SOL    HW179831  11.680  13.840   6.004
25978SOL    HW279832  11.595  13.966   6.004
25979SOL     OW79833   2.397   0.310  14.583
25979SOL    HW179834   2.360   0.390  14.621
25979SOL    HW279835   2.355   0.303  14.497
25980SOL     OW79836   6.042   9.386   8.902
25980SOL    HW179837   6.045   9.292   8.916
25980SOL    HW279838   5.984   9.398   8.827
25981SOL     OW79839   5.763   3.440   1.438
25981SOL    HW179840   5.853   3.421   1.410
25981SOL    HW279841   5.710   3.375   1.393
25982SOL     OW79842  13.128  11.016   9.192
25982SOL    HW179843  13.199  11.048   9.248
25982SOL    HW279844  13.092  10.941   9.239
25983SOL     OW79845   1.306  10.698  13.508
25983SOL    HW179846   1.385  10.692  13.561
25983SOL    HW279847   1.234  10.701  13.571
25984SOL     OW79848  12.301   0.217   5.001
25984SOL    HW179849  12.308   0.151   5.069
25984SOL    HW279850  12.384   0.265   5.006
25985SOL     OW79851  10.771   1.109   6.631
25985SOL    HW179852  10.803   1.196   6.658
25985SOL    HW279853  10.765   1.060   6.713
25986SOL     OW79854   4.605  10.680   8.769
25986SOL    HW179855   4.624  10.610   8.833
25986SOL    HW279856   4.535  10.731   8.811
25987SOL     OW79857   7.908   6.315  13.610
25987SOL    HW179858   7.861   6.353  13.536
25987SOL    HW279859   7.862   6.233  13.628
25988SOL     OW79860   9.733  11.941   9.940
25988SOL    HW179861   9.779  11.860   9.917
25988SOL    HW279862   9.641  11.922   9.922
25989SOL     OW79863   9.605   3.491   1.999
25989SOL    HW179864   9.567   3.403   2.007
25989SOL    HW279865   9.634   3.495   1.908
25990SOL     OW79866   1.688  11.509   9.308
25990SOL    HW179867   1.734  11.426   9.311
25990SOL    HW279868   1.753  11.572   9.276
25991SOL     OW79869   6.653   8.172   7.658
25991SOL    HW179870   6.597   8.120   7.601
25991SOL    HW279871   6.609   8.170   7.743
25992SOL     OW79872  13.041   4.803   8.629
25992SOL    HW179873  12.975   4.830   8.693
25992SOL    HW279874  13.069   4.716   8.658
25993SOL     OW79875   7.819   1.795   9.911
25993SOL    HW179876   7.902   1.828   9.946
25993SOL    HW279877   7.772   1.762   9.987
25994SOL     OW79878   1.095   7.633   1.865
25994SOL    HW179879   1.014   7.614   1.912
25994SOL    HW279880   1.070   7.635   1.773
25995SOL     OW79881   4.670   0.649   1.349
25995SOL    HW179882   4.731   0.693   1.290
25995SOL    HW279883   4.584   0.685   1.326
25996SOL     OW79884  14.617  10.184   1.259
25996SOL    HW179885  14.706  10.160   1.233
25996SOL    HW279886  14.627  10.235   1.339
25997SOL     OW79887  12.863  12.781   5.369
25997SOL    HW179888  12.771  12.758   5.354
25997SOL    HW279889  12.890  12.824   5.289
25998SOL     OW79890  10.181   2.672   8.493
25998SOL    HW179891  10.159   2.682   8.586
25998SOL    HW279892  10.096   2.663   8.450
25999SOL     OW79893  13.387   0.386   2.960
25999SOL    HW179894  13.326   0.320   2.928
25999SOL    HW279895  13.342   0.426   3.034
26000SOL     OW79896   1.350  10.497   7.430
26000SOL    HW179897   1.425  10.455   7.387
26000SOL    HW279898   1.276  10.440   7.409
26001SOL     OW79899   8.981   2.237  11.106
26001SOL    HW179900   9.014   2.204  11.190
26001SOL    HW279901   9.003   2.330  11.106
26002SOL     OW79902  14.119   4.025   1.997
26002SOL    HW179903  14.104   4.021   2.091
26002SOL    HW279904  14.211   4.002   1.986
26003SOL     OW79905  10.702  12.454   2.146
26003SOL    HW179906  10.721  12.361   2.160
26003SOL    HW279907  10.758  12.479   2.073
26004SOL     OW79908   5.333   3.816   1.324
26004SOL    HW179909   5.258   3.823   1.265
26004SOL    HW279910   5.388   3.891   1.301
26005SOL     OW79911   2.457   2.995   9.563
26005SOL    HW179912   2.445   2.960   9.475
26005SOL    HW279913   2.396   3.069   9.568
26006SOL     OW79914   3.634   5.119   9.156
26006SOL    HW179915   3.625   5.025   9.145
26006SOL    HW279916   3.728   5.135   9.150
26007SOL     OW79917  12.881  14.293   3.387
26007SOL    HW179918  12.915  14.332   3.307
26007SOL    HW279919  12.794  14.333   3.398
26008SOL     OW79920   9.630   1.079   2.236
26008SOL    HW179921   9.605   1.101   2.325
26008SOL    HW279922   9.634   1.163   2.190
26009SOL     OW79923   2.597   8.663   4.298
26009SOL    HW179924   2.536   8.593   4.321
26009SOL    HW279925   2.643   8.630   4.220
26010SOL     OW79926  12.301   6.727   7.146
26010SOL    HW179927  12.328   6.648   7.192
26010SOL    HW279928  12.206   6.729   7.154
26011SOL     OW79929   9.040  10.480  13.372
26011SOL    HW179930   9.121  10.522  13.402
26011SOL    HW279931   9.062  10.448  13.285
26012SOL     OW79932   7.319  10.971  11.882
26012SOL    HW179933   7.224  10.959  11.877
26012SOL    HW279934   7.333  11.061  11.854
26013SOL     OW79935   6.287   8.412   6.490
26013SOL    HW179936   6.239   8.361   6.425
26013SOL    HW279937   6.242   8.393   6.573
26014SOL     OW79938   0.654   4.123  14.266
26014SOL    HW179939   0.641   4.114  14.171
26014SOL    HW279940   0.567   4.111  14.304
26015SOL     OW79941   4.203   0.767   7.032
26015SOL    HW179942   4.237   0.699   6.974
26015SOL    HW279943   4.264   0.840   7.021
26016SOL     OW79944   1.476  13.472  10.411
26016SOL    HW179945   1.453  13.481  10.503
26016SOL    HW279946   1.569  13.495  10.407
26017SOL     OW79947   2.071   8.905  13.749
26017SOL    HW179948   2.042   8.860  13.669
26017SOL    HW279949   2.006   8.879  13.815
26018SOL     OW79950   6.566   9.816   3.842
26018SOL    HW179951   6.537   9.901   3.808
26018SOL    HW279952   6.508   9.799   3.916
26019SOL     OW79953   7.086   8.214   0.993
26019SOL    HW179954   7.077   8.284   1.058
26019SOL    HW279955   7.089   8.259   0.909
26020SOL     OW79956   0.165  13.807   9.916
26020SOL    HW179957   0.207  13.761   9.989
26020SOL    HW279958   0.127  13.738   9.863
26021SOL     OW79959   2.736  12.199   8.412
26021SOL    HW179960   2.794  12.124   8.425
26021SOL    HW279961   2.660  12.163   8.367
26022SOL     OW79962  13.788  11.683   1.534
26022SOL    HW179963  13.752  11.615   1.591
26022SOL    HW279964  13.758  11.765   1.573
26023SOL     OW79965   8.466   5.145  13.939
26023SOL    HW179966   8.524   5.148  13.862
26023SOL    HW279967   8.510   5.199  14.004
26024SOL     OW79968  10.118   5.813   3.908
26024SOL    HW179969  10.041   5.832   3.854
26024SOL    HW279970  10.113   5.876   3.980
26025SOL     OW79971   7.834   5.388   4.610
26025SOL    HW179972   7.789   5.399   4.694
26025SOL    HW279973   7.927   5.394   4.631
26026SOL     OW79974  14.510   0.252  13.783
26026SOL    HW179975  14.447   0.180  13.787
26026SOL    HW279976  14.550   0.253  13.870
26027SOL     OW79977   4.831   0.666   4.610
26027SOL    HW179978   4.793   0.707   4.532
26027SOL    HW279979   4.859   0.740   4.665
26028SOL     OW79980   3.411   8.702   5.729
26028SOL    HW179981   3.343   8.732   5.668
26028SOL    HW279982   3.493   8.723   5.685
26029SOL     OW79983  12.839  10.331   9.089
26029SOL    HW179984  12.828  10.381   9.008
26029SOL    HW279985  12.927  10.353   9.120
26030SOL     OW79986   2.652   2.382  10.934
26030SOL    HW179987   2.730   2.327  10.944
26030SOL    HW279988   2.678   2.468  10.969
26031SOL     OW79989   6.329  11.387   5.325
26031SOL    HW179990   6.233  11.386   5.334
26031SOL    HW279991   6.344  11.379   5.231
26032SOL     OW79992  14.334   5.913   6.447
26032SOL    HW179993  14.272   5.959   6.504
26032SOL    HW279994  14.405   5.975   6.435
26033SOL     OW79995  13.783   2.358  12.349
26033SOL    HW179996  13.839   2.350  12.271
26033SOL    HW279997  13.695   2.367  12.314
26034SOL     OW79998  13.225  10.861   8.721
26034SOL    HW179999  13.196  10.779   8.681
26034SOL    HW280000  13.198  10.928   8.659
26035SOL     OW80001   7.852   3.062   1.440
26035SOL    HW180002   7.866   2.996   1.372
26035SOL    HW280003   7.856   3.145   1.394
26036SOL     OW80004   6.057  14.202   4.562
26036SOL    HW180005   5.992  14.152   4.512
26036SOL    HW280006   6.103  14.135   4.613
26037SOL     OW80007   7.311   5.012  10.793
26037SOL    HW180008   7.309   4.925  10.833
26037SOL    HW280009   7.266   5.000  10.709
26038SOL     OW80010   0.988   3.600   3.906
26038SOL    HW180011   0.920   3.665   3.886
26038SOL    HW280012   1.060   3.621   3.847
26039SOL     OW80013   2.662  10.390   6.144
26039SOL    HW180014   2.730  10.452   6.169
26039SOL    HW280015   2.588  10.411   6.202
26040SOL     OW80016  11.660   2.778   8.661
26040SOL    HW180017  11.723   2.821   8.604
26040SOL    HW280018  11.690   2.688   8.666
26041SOL     OW80019   7.329   4.528   0.637
26041SOL    HW180020   7.399   4.566   0.583
26041SOL    HW280021   7.330   4.581   0.717
26042SOL     OW80022   4.418   5.342   4.719
26042SOL    HW180023   4.497   5.396   4.720
26042SOL    HW280024   4.447   5.258   4.683
26043SOL     OW80025   1.710   7.705   0.465
26043SOL    HW180026   1.694   7.647   0.390
26043SOL    HW280027   1.623   7.725   0.499
26044SOL     OW80028  12.306  13.625   1.521
26044SOL    HW180029  12.307  13.708   1.568
26044SOL    HW280030  12.393  13.618   1.482
26045SOL     OW80031  13.285   3.276   3.837
26045SOL    HW180032  13.307   3.303   3.926
26045SOL    HW280033  13.263   3.357   3.791
26046SOL     OW80034   2.276   0.724   4.578
26046SOL    HW180035   2.259   0.687   4.665
26046SOL    HW280036   2.370   0.741   4.578
26047SOL     OW80037   3.750   2.699   0.223
26047SOL    HW180038   3.668   2.650   0.230
26047SOL    HW280039   3.750   2.755   0.301
26048SOL     OW80040  11.547   6.699  12.231
26048SOL    HW180041  11.501   6.661  12.156
26048SOL    HW280042  11.489   6.768  12.262
26049SOL     OW80043  12.955   1.451   5.909
26049SOL    HW180044  12.928   1.406   5.990
26049SOL    HW280045  12.880   1.505   5.886
26050SOL     OW80046  11.914  13.611   8.260
26050SOL    HW180047  11.824  13.624   8.288
26050SOL    HW280048  11.928  13.675   8.191
26051SOL     OW80049   1.398  11.458  12.603
26051SOL    HW180050   1.323  11.512  12.626
26051SOL    HW280051   1.399  11.457  12.508
26052SOL     OW80052   3.184  14.851  12.579
26052SOL    HW180053   3.152  14.817  12.662
26052SOL    HW280054   3.280  14.845  12.585
26053SOL     OW80055  12.355  12.451  10.085
26053SOL    HW180056  12.363  12.436   9.991
26053SOL    HW280057  12.444  12.448  10.118
26054SOL     OW80058   2.161   3.705   0.113
26054SOL    HW180059   2.167   3.696   0.018
26054SOL    HW280060   2.075   3.670   0.135
26055SOL     OW80061   0.710   4.482   9.085
26055SOL    HW180062   0.746   4.455   9.170
26055SOL    HW280063   0.759   4.430   9.021
26056SOL     OW80064   6.407  11.743  12.217
26056SOL    HW180065   6.388  11.752  12.123
26056SOL    HW280066   6.403  11.649  12.233
26057SOL     OW80067   8.724   7.328  12.618
26057SOL    HW180068   8.698   7.259  12.679
26057SOL    HW280069   8.760   7.282  12.542
26058SOL     OW80070   5.005   0.309   1.489
26058SOL    HW180071   5.065   0.237   1.505
26058SOL    HW280072   4.930   0.269   1.445
26059SOL     OW80073  13.021  12.619   7.671
26059SOL    HW180074  12.986  12.534   7.699
26059SOL    HW280075  13.083  12.642   7.740
26060SOL     OW80076  10.696   5.422   6.533
26060SOL    HW180077  10.662   5.337   6.562
26060SOL    HW280078  10.688   5.478   6.610
26061SOL     OW80079  10.408   0.359   0.790
26061SOL    HW180080  10.469   0.411   0.738
26061SOL    HW280081  10.323   0.375   0.749
26062SOL     OW80082   7.162   6.417   5.503
26062SOL    HW180083   7.134   6.508   5.508
26062SOL    HW280084   7.185   6.393   5.593
26063SOL     OW80085   8.440   0.262   2.699
26063SOL    HW180086   8.488   0.226   2.624
26063SOL    HW280087   8.492   0.236   2.775
26064SOL     OW80088   5.301   2.269   7.790
26064SOL    HW180089   5.214   2.260   7.830
26064SOL    HW280090   5.338   2.181   7.794
26065SOL     OW80091  14.685   7.544   6.175
26065SOL    HW180092  14.673   7.598   6.097
26065SOL    HW280093  14.635   7.588   6.243
26066SOL     OW80094  12.869  11.419   5.737
26066SOL    HW180095  12.803  11.480   5.769
26066SOL    HW280096  12.877  11.353   5.806
26067SOL     OW80097   9.097  11.611   3.815
26067SOL    HW180098   9.190  11.617   3.794
26067SOL    HW280099   9.056  11.586   3.732
26068SOL     OW80100  11.479   3.460  10.993
26068SOL    HW180101  11.445   3.478  11.080
26068SOL    HW280102  11.460   3.539  10.943
26069SOL     OW80103   1.903   1.519  12.564
26069SOL    HW180104   1.984   1.544  12.518
26069SOL    HW280105   1.836   1.575  12.527
26070SOL     OW80106  11.064  12.506   0.381
26070SOL    HW180107  11.086  12.598   0.390
26070SOL    HW280108  10.978  12.505   0.340
26071SOL     OW80109   8.784  11.577   8.102
26071SOL    HW180110   8.878  11.578   8.083
26071SOL    HW280111   8.758  11.485   8.092
26072SOL     OW80112   3.496  14.582   6.717
26072SOL    HW180113   3.474  14.514   6.653
26072SOL    HW280114   3.546  14.646   6.667
26073SOL     OW80115   6.864   2.697   6.436
26073SOL    HW180116   6.919   2.633   6.392
26073SOL    HW280117   6.859   2.666   6.527
26074SOL     OW80118   4.054   2.847  12.799
26074SOL    HW180119   3.981   2.903  12.774
26074SOL    HW280120   4.067   2.790  12.723
26075SOL     OW80121   7.967  11.806  14.664
26075SOL    HW180122   7.996  11.785  14.575
26075SOL    HW280123   7.936  11.896  14.658
26076SOL     OW80124   8.320  10.708   4.341
26076SOL    HW180125   8.395  10.711   4.400
26076SOL    HW280126   8.304  10.800   4.317
26077SOL     OW80127   2.970  11.863   9.235
26077SOL    HW180128   2.905  11.793   9.228
26077SOL    HW280129   3.039  11.837   9.174
26078SOL     OW80130   0.326   5.964   2.379
26078SOL    HW180131   0.319   5.888   2.321
26078SOL    HW280132   0.283   6.035   2.330
26079SOL     OW80133  12.348   9.526   6.445
26079SOL    HW180134  12.405   9.576   6.386
26079SOL    HW280135  12.359   9.435   6.418
26080SOL     OW80136  11.201   9.876   8.029
26080SOL    HW180137  11.213   9.971   8.037
26080SOL    HW280138  11.192   9.845   8.119
26081SOL     OW80139  11.973   9.769   9.466
26081SOL    HW180140  11.978   9.717   9.386
26081SOL    HW280141  11.956   9.704   9.535
26082SOL     OW80142  11.254   5.436  12.028
26082SOL    HW180143  11.251   5.472  12.117
26082SOL    HW280144  11.273   5.512  11.972
26083SOL     OW80145   4.624  11.339   3.698
26083SOL    HW180146   4.562  11.389   3.644
26083SOL    HW280147   4.590  11.347   3.787
26084SOL     OW80148   2.256   1.314  13.574
26084SOL    HW180149   2.167   1.277  13.572
26084SOL    HW280150   2.298   1.282  13.495
26085SOL     OW80151  11.204   4.906  11.279
26085SOL    HW180152  11.121   4.955  11.279
26085SOL    HW280153  11.225   4.893  11.187
26086SOL     OW80154  10.439  12.631  14.259
26086SOL    HW180155  10.471  12.563  14.200
26086SOL    HW280156  10.426  12.708  14.202
26087SOL     OW80157   2.026  11.040   4.333
26087SOL    HW180158   2.074  11.081   4.405
26087SOL    HW280159   2.053  10.948   4.335
26088SOL     OW80160   2.090   9.168   1.289
26088SOL    HW180161   2.067   9.133   1.376
26088SOL    HW280162   2.154   9.105   1.255
26089SOL     OW80163  12.719   8.727  14.003
26089SOL    HW180164  12.653   8.712  14.071
26089SOL    HW280165  12.703   8.816  13.973
26090SOL     OW80166   7.044  12.618   3.019
26090SOL    HW180167   6.981  12.563   2.973
26090SOL    HW280168   7.083  12.560   3.085
26091SOL     OW80169   7.450   4.511  13.593
26091SOL    HW180170   7.358   4.521  13.617
26091SOL    HW280171   7.498   4.560  13.660
26092SOL     OW80172   7.651   8.982   5.450
26092SOL    HW180173   7.579   8.965   5.510
26092SOL    HW280174   7.675   8.895   5.417
26093SOL     OW80175   5.507  10.984  13.696
26093SOL    HW180176   5.435  11.044  13.677
26093SOL    HW280177   5.499  10.964  13.789
26094SOL     OW80178   3.230  10.595   5.868
26094SOL    HW180179   3.289  10.549   5.808
26094SOL    HW280180   3.219  10.535   5.942
26095SOL     OW80181  11.100  12.859   1.281
26095SOL    HW180182  11.083  12.946   1.245
26095SOL    HW280183  11.144  12.876   1.364
26096SOL     OW80184   6.722   1.384   8.052
26096SOL    HW180185   6.718   1.443   7.977
26096SOL    HW280186   6.704   1.439   8.128
26097SOL     OW80187   2.342   6.941   1.290
26097SOL    HW180188   2.349   6.882   1.216
26097SOL    HW280189   2.269   6.999   1.267
26098SOL     OW80190   9.780   3.454   5.678
26098SOL    HW180191   9.718   3.521   5.651
26098SOL    HW280192   9.866   3.497   5.675
26099SOL     OW80193   5.044   1.660  14.184
26099SOL    HW180194   5.136   1.684  14.180
26099SOL    HW280195   5.018   1.679  14.274
26100SOL     OW80196   3.100   0.971  10.346
26100SOL    HW180197   3.166   1.015  10.293
26100SOL    HW280198   3.106   0.879  10.320
26101SOL     OW80199   5.906   1.079   5.686
26101SOL    HW180200   5.812   1.096   5.677
26101SOL    HW280201   5.923   1.009   5.622
26102SOL     OW80202   0.335   4.432   8.890
26102SOL    HW180203   0.325   4.527   8.899
26102SOL    HW280204   0.426   4.420   8.864
26103SOL     OW80205   5.149  11.084   9.993
26103SOL    HW180206   5.192  11.000  10.010
26103SOL    HW280207   5.185  11.114   9.910
26104SOL     OW80208   7.494   9.381   1.788
26104SOL    HW180209   7.453   9.344   1.866
26104SOL    HW280210   7.494   9.475   1.803
26105SOL     OW80211   2.999  10.667  11.592
26105SOL    HW180212   2.983  10.760  11.579
26105SOL    HW280213   2.990  10.654  11.687
26106SOL     OW80214   1.572   1.076   2.378
26106SOL    HW180215   1.594   1.081   2.285
26106SOL    HW280216   1.576   1.167   2.408
26107SOL     OW80217   5.674   3.562  13.515
26107SOL    HW180218   5.667   3.470  13.542
26107SOL    HW280219   5.593   3.602  13.548
26108SOL     OW80220  11.152  13.070  10.112
26108SOL    HW180221  11.206  13.103  10.040
26108SOL    HW280222  11.086  13.015  10.070
26109SOL     OW80223   1.573   0.608   0.815
26109SOL    HW180224   1.495   0.568   0.853
26109SOL    HW280225   1.553   0.616   0.721
26110SOL     OW80226   8.447   7.536   0.901
26110SOL    HW180227   8.412   7.517   0.988
26110SOL    HW280228   8.395   7.482   0.841
26111SOL     OW80229   7.035   7.930   1.059
26111SOL    HW180230   7.051   8.017   1.022
26111SOL    HW280231   7.000   7.879   0.986
26112SOL     OW80232   8.275   9.571   8.285
26112SOL    HW180233   8.296   9.645   8.228
26112SOL    HW280234   8.305   9.494   8.237
26113SOL     OW80235  14.813   3.301   7.869
26113SOL    HW180236  14.839   3.339   7.952
26113SOL    HW280237  14.724   3.335   7.854
26114SOL     OW80238  13.016  13.745  11.186
26114SOL    HW180239  12.955  13.674  11.207
26114SOL    HW280240  12.961  13.824  11.187
26115SOL     OW80241   2.134   4.929   1.609
26115SOL    HW180242   2.227   4.923   1.590
26115SOL    HW280243   2.129   4.982   1.689
26116SOL     OW80244   7.749  12.167   9.648
26116SOL    HW180245   7.831  12.158   9.696
26116SOL    HW280246   7.685  12.119   9.699
26117SOL     OW80247  11.905  10.267   1.702
26117SOL    HW180248  11.987  10.299   1.739
26117SOL    HW280249  11.841  10.277   1.773
26118SOL     OW80250   9.121   7.613  12.414
26118SOL    HW180251   9.147   7.705  12.409
26118SOL    HW280252   9.076   7.605  12.498
26119SOL     OW80253   5.603   0.268   8.134
26119SOL    HW180254   5.569   0.353   8.107
26119SOL    HW280255   5.632   0.227   8.052
26120SOL     OW80256  10.937   6.460   9.565
26120SOL    HW180257  10.883   6.476   9.488
26120SOL    HW280258  10.956   6.366   9.561
26121SOL     OW80259   8.277   3.786  13.003
26121SOL    HW180260   8.286   3.881  13.010
26121SOL    HW280261   8.360   3.757  12.966
26122SOL     OW80262   1.703  12.350   4.913
26122SOL    HW180263   1.758  12.326   4.987
26122SOL    HW280264   1.696  12.445   4.917
26123SOL     OW80265   8.919   9.681   0.953
26123SOL    HW180266   8.892   9.752   1.011
26123SOL    HW280267   8.994   9.717   0.905
26124SOL     OW80268  11.059   9.741   9.057
26124SOL    HW180269  10.964   9.755   9.058
26124SOL    HW280270  11.072   9.676   8.988
26125SOL     OW80271   9.096  12.993   0.255
26125SOL    HW180272   9.140  13.028   0.178
26125SOL    HW280273   9.135  13.039   0.329
26126SOL     OW80274   2.459   3.644   9.438
26126SOL    HW180275   2.382   3.700   9.434
26126SOL    HW280276   2.526   3.699   9.480
26127SOL     OW80277   7.112  10.061   0.183
26127SOL    HW180278   7.123  10.002   0.257
26127SOL    HW280279   7.199  10.100   0.170
26128SOL     OW80280  10.195   9.501  14.145
26128SOL    HW180281  10.119   9.552  14.119
26128SOL    HW280282  10.250   9.562  14.194
26129SOL     OW80283   3.185  12.800   1.702
26129SOL    HW180284   3.107  12.770   1.655
26129SOL    HW280285   3.258  12.766   1.650
26130SOL     OW80286   0.343  10.552   3.238
26130SOL    HW180287   0.411  10.616   3.259
26130SOL    HW280288   0.262  10.594   3.268
26131SOL     OW80289  10.171  13.577  11.055
26131SOL    HW180290  10.153  13.556  10.964
26131SOL    HW280291  10.177  13.672  11.058
26132SOL     OW80292  13.667   4.336   6.247
26132SOL    HW180293  13.650   4.285   6.326
26132SOL    HW280294  13.581   4.368   6.219
26133SOL     OW80295  11.571   7.107   7.848
26133SOL    HW180296  11.550   7.132   7.938
26133SOL    HW280297  11.602   7.017   7.855
26134SOL     OW80298   9.305   2.809   1.238
26134SOL    HW180299   9.219   2.770   1.225
26134SOL    HW280300   9.343   2.761   1.311
26135SOL     OW80301   6.936   9.950  12.136
26135SOL    HW180302   6.916   9.986  12.222
26135SOL    HW280303   7.031   9.957  12.129
26136SOL     OW80304  14.172   3.362   9.051
26136SOL    HW180305  14.091   3.338   9.096
26136SOL    HW280306  14.214   3.426   9.108
26137SOL     OW80307   5.233   0.938   3.445
26137SOL    HW180308   5.287   0.952   3.367
26137SOL    HW280309   5.292   0.895   3.507
26138SOL     OW80310   1.486  10.076  11.932
26138SOL    HW180311   1.532  10.158  11.914
26138SOL    HW280312   1.552  10.008  11.922
26139SOL     OW80313  13.373   2.990   1.935
26139SOL    HW180314  13.409   3.054   1.995
26139SOL    HW280315  13.401   2.905   1.970
26140SOL     OW80316  10.042   5.366  10.391
26140SOL    HW180317   9.996   5.362  10.307
26140SOL    HW280318   9.987   5.317  10.452
26141SOL     OW80319   5.205   2.212   0.533
26141SOL    HW180320   5.241   2.139   0.583
26141SOL    HW280321   5.158   2.265   0.598
26142SOL     OW80322  13.760   2.413   0.208
26142SOL    HW180323  13.854   2.396   0.215
26142SOL    HW280324  13.733   2.362   0.131
26143SOL     OW80325   3.767   5.326   6.367
26143SOL    HW180326   3.756   5.262   6.437
26143SOL    HW280327   3.758   5.275   6.286
26144SOL     OW80328   9.208  10.162  10.361
26144SOL    HW180329   9.202  10.124  10.273
26144SOL    HW280330   9.298  10.144  10.389
26145SOL     OW80331   3.923  14.562   1.428
26145SOL    HW180332   3.894  14.488   1.481
26145SOL    HW280333   3.912  14.638   1.485
26146SOL     OW80334   2.690  14.301   8.995
26146SOL    HW180335   2.614  14.266   9.041
26146SOL    HW280336   2.764  14.251   9.029
26147SOL     OW80337   2.227  14.622   0.565
26147SOL    HW180338   2.260  14.654   0.481
26147SOL    HW280339   2.152  14.677   0.584
26148SOL     OW80340  13.450   7.670   0.823
26148SOL    HW180341  13.359   7.647   0.808
26148SOL    HW280342  13.460   7.756   0.780
26149SOL     OW80343   9.115   7.792  14.150
26149SOL    HW180344   9.047   7.748  14.098
26149SOL    HW280345   9.174   7.829  14.085
26150SOL     OW80346  13.521   3.051   6.527
26150SOL    HW180347  13.431   3.040   6.494
26150SOL    HW280348  13.548   3.136   6.493
26151SOL     OW80349  10.663   0.509   5.112
26151SOL    HW180350  10.615   0.589   5.130
26151SOL    HW280351  10.749   0.521   5.154
26152SOL     OW80352  13.226  14.859   9.778
26152SOL    HW180353  13.205   0.034   9.694
26152SOL    HW280354  13.151   0.010   9.834
26153SOL     OW80355   4.903   2.913   9.185
26153SOL    HW180356   4.987   2.956   9.170
26153SOL    HW280357   4.904   2.890   9.278
26154SOL     OW80358   8.091   3.014  10.856
26154SOL    HW180359   8.044   2.938  10.823
26154SOL    HW280360   8.138   2.981  10.934
26155SOL     OW80361   6.584  13.496   1.511
26155SOL    HW180362   6.513  13.485   1.448
26155SOL    HW280363   6.663  13.503   1.457
26156SOL     OW80364  13.769  13.931   5.006
26156SOL    HW180365  13.797  13.965   5.090
26156SOL    HW280366  13.678  13.960   4.998
26157SOL     OW80367   7.435  12.151   4.560
26157SOL    HW180368   7.526  12.180   4.562
26157SOL    HW280369   7.421  12.121   4.470
26158SOL     OW80370   2.181   8.156  14.410
26158SOL    HW180371   2.122   8.175  14.483
26158SOL    HW280372   2.125   8.121  14.342
26159SOL     OW80373  10.785  10.105  10.275
26159SOL    HW180374  10.791  10.178  10.336
26159SOL    HW280375  10.787  10.027  10.331
26160SOL     OW80376   5.774  12.555   6.406
26160SOL    HW180377   5.858  12.510   6.416
26160SOL    HW280378   5.750  12.541   6.315
26161SOL     OW80379  11.030   7.831   4.377
26161SOL    HW180380  11.009   7.740   4.395
26161SOL    HW280381  11.016   7.876   4.461
26162SOL     OW80382   0.437   7.027   1.429
26162SOL    HW180383   0.394   6.941   1.429
26162SOL    HW280384   0.388   7.078   1.364
26163SOL     OW80385  14.715   2.552   2.688
26163SOL    HW180386  14.740   2.472   2.640
26163SOL    HW280387  14.622   2.562   2.670
26164SOL     OW80388   2.721  12.793  10.853
26164SOL    HW180389   2.630  12.806  10.827
26164SOL    HW280390   2.726  12.702  10.880
26165SOL     OW80391   5.655   3.771   8.280
26165SOL    HW180392   5.565   3.803   8.286
26165SOL    HW280393   5.698   3.804   8.360
26166SOL     OW80394   2.044  10.895   5.779
26166SOL    HW180395   2.107  10.956   5.817
26166SOL    HW280396   2.073  10.886   5.688
26167SOL     OW80397   3.640   2.346   9.425
26167SOL    HW180398   3.704   2.414   9.447
26167SOL    HW280399   3.604   2.319   9.510
26168SOL     OW80400   9.113   3.791  12.730
26168SOL    HW180401   9.075   3.793  12.818
26168SOL    HW280402   9.047   3.747  12.676
26169SOL     OW80403   5.202   0.035   2.350
26169SOL    HW180404   5.134   0.100   2.335
26169SOL    HW280405   5.270   0.056   2.285
26170SOL     OW80406   8.194  13.303  13.581
26170SOL    HW180407   8.167  13.361  13.652
26170SOL    HW280408   8.246  13.235  13.623
26171SOL     OW80409   2.155   1.107   3.909
26171SOL    HW180410   2.077   1.062   3.942
26171SOL    HW280411   2.122   1.170   3.846
26172SOL     OW80412  12.711  10.259   7.083
26172SOL    HW180413  12.665  10.184   7.043
26172SOL    HW280414  12.803  10.234   7.080
26173SOL     OW80415   0.807  14.686   1.633
26173SOL    HW180416   0.799  14.749   1.705
26173SOL    HW280417   0.726  14.635   1.638
26174SOL     OW80418  10.762  12.066  12.962
26174SOL    HW180419  10.697  12.133  12.982
26174SOL    HW280420  10.716  11.983  12.976
26175SOL     OW80421   5.181  14.737   3.893
26175SOL    HW180422   5.164  14.693   3.977
26175SOL    HW280423   5.274  14.723   3.877
26176SOL     OW80424   4.946   9.200  11.210
26176SOL    HW180425   5.001   9.178  11.135
26176SOL    HW280426   4.866   9.151  11.197
26177SOL     OW80427  11.395   6.211   3.454
26177SOL    HW180428  11.415   6.139   3.394
26177SOL    HW280429  11.479   6.250   3.475
26178SOL     OW80430   9.207  13.657   8.845
26178SOL    HW180431   9.248  13.720   8.904
26178SOL    HW280432   9.257  13.576   8.858
26179SOL     OW80433   0.907   2.275   4.301
26179SOL    HW180434   0.864   2.359   4.290
26179SOL    HW280435   0.986   2.280   4.246
26180SOL     OW80436  12.637   4.212   4.037
26180SOL    HW180437  12.660   4.301   4.065
26180SOL    HW280438  12.635   4.161   4.118
26181SOL     OW80439  13.172   2.804   5.563
26181SOL    HW180440  13.183   2.713   5.591
26181SOL    HW280441  13.190   2.856   5.641
26182SOL     OW80442   9.591   5.985   8.443
26182SOL    HW180443   9.519   5.931   8.412
26182SOL    HW280444   9.641   6.008   8.365
26183SOL     OW80445   8.827   9.490   4.484
26183SOL    HW180446   8.765   9.549   4.526
26183SOL    HW280447   8.903   9.489   4.542
26184SOL     OW80448  10.945  10.879   8.232
26184SOL    HW180449  10.876  10.933   8.193
26184SOL    HW280450  10.967  10.816   8.163
26185SOL     OW80451   0.878   9.900   7.890
26185SOL    HW180452   0.812   9.901   7.960
26185SOL    HW280453   0.883   9.808   7.864
26186SOL     OW80454   0.627   6.356   6.752
26186SOL    HW180455   0.691   6.366   6.822
26186SOL    HW280456   0.677   6.318   6.679
26187SOL     OW80457   3.889  10.398   2.193
26187SOL    HW180458   3.926  10.399   2.105
26187SOL    HW280459   3.956  10.354   2.247
26188SOL     OW80460   6.735   1.116   4.220
26188SOL    HW180461   6.794   1.053   4.180
26188SOL    HW280462   6.676   1.064   4.273
26189SOL     OW80463   7.239  11.655  10.747
26189SOL    HW180464   7.181  11.620  10.815
26189SOL    HW280465   7.200  11.739  10.723
26190SOL     OW80466   8.928  10.073  13.872
26190SOL    HW180467   9.020  10.048  13.861
26190SOL    HW280468   8.887   9.997  13.914
26191SOL     OW80469   9.688   9.524  14.654
26191SOL    HW180470   9.775   9.554  14.630
26191SOL    HW280471   9.686   9.432  14.628
26192SOL     OW80472   8.054   5.320   8.327
26192SOL    HW180473   8.080   5.410   8.309
26192SOL    HW280474   7.982   5.328   8.389
26193SOL     OW80475  12.210   0.495  12.272
26193SOL    HW180476  12.213   0.413  12.223
26193SOL    HW280477  12.165   0.557  12.214
26194SOL     OW80478  13.137   8.756   6.420
26194SOL    HW180479  13.154   8.670   6.457
26194SOL    HW280480  13.124   8.813   6.496
26195SOL     OW80481  14.092   9.414   2.398
26195SOL    HW180482  14.100   9.341   2.459
26195SOL    HW280483  14.177   9.458   2.400
26196SOL     OW80484   3.491   0.617   6.605
26196SOL    HW180485   3.418   0.576   6.559
26196SOL    HW280486   3.491   0.708   6.574
26197SOL     OW80487  12.765   8.274  13.160
26197SOL    HW180488  12.731   8.318  13.237
26197SOL    HW280489  12.745   8.181  13.175
26198SOL     OW80490   6.380   9.933   8.643
26198SOL    HW180491   6.465   9.944   8.684
26198SOL    HW280492   6.399   9.897   8.556
26199SOL     OW80493   8.316   1.599  14.267
26199SOL    HW180494   8.401   1.564  14.294
26199SOL    HW280495   8.277   1.529  14.214
26200SOL     OW80496   0.689  12.453   9.846
26200SOL    HW180497   0.785  12.449   9.856
26200SOL    HW280498   0.655  12.417   9.927
26201SOL     OW80499  13.678  10.215   2.828
26201SOL    HW180500  13.584  10.199   2.817
26201SOL    HW280501  13.705  10.152   2.895
26202SOL     OW80502   7.006  11.571  13.376
26202SOL    HW180503   7.071  11.504  13.352
26202SOL    HW280504   7.057  11.651  13.386
26203SOL     OW80505  10.056   1.561   1.426
26203SOL    HW180506  10.045   1.513   1.508
26203SOL    HW280507  10.071   1.493   1.360
26204SOL     OW80508   3.751   2.400   5.803
26204SOL    HW180509   3.721   2.441   5.722
26204SOL    HW280510   3.681   2.339   5.826
26205SOL     OW80511   9.413  13.027   4.983
26205SOL    HW180512   9.438  13.050   5.072
26205SOL    HW280513   9.408  13.111   4.937
26206SOL     OW80514   3.452  14.799   1.847
26206SOL    HW180515   3.411  14.779   1.931
26206SOL    HW280516   3.380  14.804   1.785
26207SOL     OW80517  11.560  13.404   5.653
26207SOL    HW180518  11.494  13.336   5.667
26207SOL    HW280519  11.514  13.470   5.600
26208SOL     OW80520   1.982  14.286  11.397
26208SOL    HW180521   1.938  14.265  11.480
26208SOL    HW280522   1.915  14.269  11.330
26209SOL     OW80523   3.065   8.550  13.888
26209SOL    HW180524   3.075   8.603  13.967
26209SOL    HW280525   2.976   8.513  13.895
26210SOL     OW80526  12.877   8.115   0.145
26210SOL    HW180527  12.856   8.031   0.185
26210SOL    HW280528  12.958   8.143   0.187
26211SOL     OW80529   7.454   9.519  12.445
26211SOL    HW180530   7.451   9.609  12.477
26211SOL    HW280531   7.488   9.526  12.355
26212SOL     OW80532   6.713   1.827  13.311
26212SOL    HW180533   6.712   1.766  13.385
26212SOL    HW280534   6.649   1.894  13.336
26213SOL     OW80535  14.239   2.049   4.304
26213SOL    HW180536  14.232   1.991   4.380
26213SOL    HW280537  14.218   1.993   4.230
26214SOL     OW80538  12.901   0.533   8.145
26214SOL    HW180539  12.891   0.447   8.106
26214SOL    HW280540  12.938   0.516   8.232
26215SOL     OW80541   8.329   8.481  10.486
26215SOL    HW180542   8.369   8.395  10.499
26215SOL    HW280543   8.234   8.463  10.489
26216SOL     OW80544   3.004   1.427   3.170
26216SOL    HW180545   2.942   1.499   3.157
26216SOL    HW280546   3.065   1.460   3.236
26217SOL     OW80547   4.660   4.556   7.868
26217SOL    HW180548   4.713   4.523   7.941
26217SOL    HW280549   4.596   4.613   7.910
26218SOL     OW80550  10.594   4.987   5.245
26218SOL    HW180551  10.549   4.919   5.195
26218SOL    HW280552  10.679   4.948   5.269
26219SOL     OW80553  13.182   4.124  10.876
26219SOL    HW180554  13.205   4.147  10.786
26219SOL    HW280555  13.135   4.041  10.868
26220SOL     OW80556   1.905   4.623  13.074
26220SOL    HW180557   1.897   4.544  13.127
26220SOL    HW280558   1.997   4.622  13.045
26221SOL     OW80559  11.507   6.368   2.630
26221SOL    HW180560  11.552   6.421   2.564
26221SOL    HW280561  11.568   6.367   2.704
26222SOL     OW80562  13.450   6.688   1.302
26222SOL    HW180563  13.398   6.653   1.230
26222SOL    HW280564  13.488   6.611   1.344
26223SOL     OW80565  13.935  13.184   0.421
26223SOL    HW180566  13.896  13.096   0.421
26223SOL    HW280567  13.943  13.206   0.328
26224SOL     OW80568   1.125  12.750   6.112
26224SOL    HW180569   1.162  12.832   6.081
26224SOL    HW280570   1.108  12.699   6.032
26225SOL     OW80571   5.657   2.192   1.502
26225SOL    HW180572   5.626   2.235   1.423
26225SOL    HW280573   5.680   2.103   1.473
26226SOL     OW80574   9.038   3.060   9.998
26226SOL    HW180575   8.959   3.045  10.051
26226SOL    HW280576   9.107   3.077  10.063
26227SOL     OW80577   6.924   2.331   6.020
26227SOL    HW180578   6.966   2.295   5.942
26227SOL    HW280579   6.907   2.423   5.998
26228SOL     OW80580   2.903  10.842  12.028
26228SOL    HW180581   2.953  10.838  12.109
26228SOL    HW280582   2.869  10.753  12.017
26229SOL     OW80583   0.021   8.448   5.243
26229SOL    HW180584   0.003   8.491   5.327
26229SOL    HW280585   0.088   8.503   5.202
26230SOL     OW80586  12.347  10.135  10.110
26230SOL    HW180587  12.255  10.107  10.102
26230SOL    HW280588  12.345  10.203  10.178
26231SOL     OW80589  10.140   1.380  12.648
26231SOL    HW180590  10.100   1.448  12.703
26231SOL    HW280591  10.072   1.358  12.584
26232SOL     OW80592   1.890  10.684   5.863
26232SOL    HW180593   1.856  10.654   5.779
26232SOL    HW280594   1.931  10.768   5.844
26233SOL     OW80595   9.502  13.259   2.037
26233SOL    HW180596   9.541  13.333   2.083
26233SOL    HW280597   9.409  13.264   2.057
26234SOL     OW80598  13.665  12.314   4.372
26234SOL    HW180599  13.645  12.289   4.281
26234SOL    HW280600  13.662  12.410   4.371
26235SOL     OW80601   9.687   3.664   0.957
26235SOL    HW180602   9.724   3.752   0.954
26235SOL    HW280603   9.600   3.673   0.919
26236SOL     OW80604   8.853   5.691   2.010
26236SOL    HW180605   8.780   5.640   1.973
26236SOL    HW280606   8.883   5.746   1.938
26237SOL     OW80607  13.049  12.683   3.568
26237SOL    HW180608  12.974  12.720   3.520
26237SOL    HW280609  13.125  12.703   3.513
26238SOL     OW80610   3.321   9.004   3.266
26238SOL    HW180611   3.247   8.949   3.290
26238SOL    HW280612   3.304   9.087   3.310
26239SOL     OW80613   4.674   2.117   4.535
26239SOL    HW180614   4.711   2.204   4.550
26239SOL    HW280615   4.730   2.079   4.467
26240SOL     OW80616   5.261   2.274   3.758
26240SOL    HW180617   5.256   2.198   3.699
26240SOL    HW280618   5.195   2.334   3.725
26241SOL     OW80619  14.019   6.017   6.467
26241SOL    HW180620  13.940   6.066   6.442
26241SOL    HW280621  14.091   6.070   6.434
26242SOL     OW80622  13.595  11.046   9.568
26242SOL    HW180623  13.546  10.999   9.500
26242SOL    HW280624  13.644  10.978   9.614
26243SOL     OW80625  12.259   8.412   9.443
26243SOL    HW180626  12.212   8.455   9.515
26243SOL    HW280627  12.274   8.323   9.475
26244SOL     OW80628  11.471  14.619   1.866
26244SOL    HW180629  11.535  14.565   1.911
26244SOL    HW280630  11.392  14.616   1.921
26245SOL     OW80631  10.761   0.502   5.911
26245SOL    HW180632  10.819   0.565   5.868
26245SOL    HW280633  10.744   0.436   5.844
26246SOL     OW80634   3.912  11.656   2.274
26246SOL    HW180635   3.861  11.582   2.241
26246SOL    HW280636   3.886  11.730   2.220
26247SOL     OW80637  13.170   3.346  11.314
26247SOL    HW180638  13.090   3.296  11.327
26247SOL    HW280639  13.140   3.437  11.305
26248SOL     OW80640  14.215   7.671  11.385
26248SOL    HW180641  14.182   7.751  11.343
26248SOL    HW280642  14.290   7.646  11.331
26249SOL     OW80643   8.916  11.522   6.103
26249SOL    HW180644   9.001  11.550   6.068
26249SOL    HW280645   8.931  11.432   6.133
26250SOL     OW80646   6.207   6.602   6.967
26250SOL    HW180647   6.184   6.668   7.033
26250SOL    HW280648   6.129   6.548   6.959
26251SOL     OW80649   2.162   9.018   4.763
26251SOL    HW180650   2.188   9.073   4.837
26251SOL    HW280651   2.244   8.975   4.736
26252SOL     OW80652  12.445   7.526   3.095
26252SOL    HW180653  12.515   7.460   3.091
26252SOL    HW280654  12.458   7.578   3.015
26253SOL     OW80655   5.493  14.538  12.950
26253SOL    HW180656   5.469  14.631  12.959
26253SOL    HW280657   5.568  14.538  12.891
26254SOL     OW80658   9.930   2.382   8.530
26254SOL    HW180659   9.917   2.446   8.460
26254SOL    HW280660   9.989   2.426   8.592
26255SOL     OW80661   6.133   7.824  13.670
26255SOL    HW180662   6.159   7.907  13.710
26255SOL    HW280663   6.138   7.840  13.576
26256SOL     OW80664   0.963  10.981  14.675
26256SOL    HW180665   1.021  11.055  14.689
26256SOL    HW280666   0.944  10.948  14.763
26257SOL     OW80667   8.210   3.509   4.607
26257SOL    HW180668   8.222   3.447   4.535
26257SOL    HW280669   8.174   3.456   4.678
26258SOL     OW80670  14.300   2.888   5.843
26258SOL    HW180671  14.277   2.920   5.930
26258SOL    HW280672  14.394   2.904   5.836
26259SOL     OW80673   2.468   9.647   2.049
26259SOL    HW180674   2.387   9.696   2.033
26259SOL    HW280675   2.538   9.712   2.039
26260SOL     OW80676   0.711  10.374   2.861
26260SOL    HW180677   0.806  10.382   2.873
26260SOL    HW280678   0.676  10.458   2.891
26261SOL     OW80679  11.525   5.079   1.924
26261SOL    HW180680  11.512   5.043   2.012
26261SOL    HW280681  11.436   5.092   1.891
26262SOL     OW80682   7.454   0.476   6.494
26262SOL    HW180683   7.468   0.383   6.480
26262SOL    HW280684   7.371   0.481   6.542
26263SOL     OW80685   7.717   5.402   5.805
26263SOL    HW180686   7.700   5.495   5.816
26263SOL    HW280687   7.795   5.397   5.749
26264SOL     OW80688   7.008   8.538   3.216
26264SOL    HW180689   6.957   8.562   3.294
26264SOL    HW280690   7.001   8.614   3.158
26265SOL     OW80691  14.314   3.215   4.975
26265SOL    HW180692  14.358   3.131   4.992
26265SOL    HW280693  14.385   3.278   4.967
26266SOL     OW80694   1.564   1.238   7.511
26266SOL    HW180695   1.473   1.261   7.525
26266SOL    HW280696   1.561   1.148   7.478
26267SOL     OW80697   0.277  10.101   4.061
26267SOL    HW180698   0.278  10.190   4.097
26267SOL    HW280699   0.253  10.113   3.969
26268SOL     OW80700   7.605   6.721  12.071
26268SOL    HW180701   7.530   6.779  12.083
26268SOL    HW280702   7.679   6.768  12.110
26269SOL     OW80703  11.453   1.177  10.913
26269SOL    HW180704  11.521   1.159  10.849
26269SOL    HW280705  11.382   1.218  10.863
26270SOL     OW80706   1.586   0.036  11.115
26270SOL    HW180707   1.668  14.855  11.104
26270SOL    HW280708   1.552   0.006  11.199
26271SOL     OW80709  13.665   5.662   9.623
26271SOL    HW180710  13.735   5.651   9.688
26271SOL    HW280711  13.599   5.597   9.648
26272SOL     OW80712  13.482   3.795   7.600
26272SOL    HW180713  13.441   3.737   7.663
26272SOL    HW280714  13.438   3.777   7.517
26273SOL     OW80715  11.500   1.560  14.560
26273SOL    HW180716  11.520   1.621  14.490
26273SOL    HW280717  11.584   1.545  14.604
26274SOL     OW80718   7.942  10.955   2.809
26274SOL    HW180719   7.937  10.866   2.774
26274SOL    HW280720   8.027  10.959   2.853
26275SOL     OW80721  13.826   3.225   1.348
26275SOL    HW180722  13.755   3.189   1.294
26275SOL    HW280723  13.786   3.244   1.432
26276SOL     OW80724  11.544   1.718  10.996
26276SOL    HW180725  11.549   1.658  10.921
26276SOL    HW280726  11.593   1.795  10.967
26277SOL     OW80727  12.947  14.413   0.171
26277SOL    HW180728  13.008  14.431   0.243
26277SOL    HW280729  12.861  14.416   0.213
26278SOL     OW80730   3.803  13.763   6.865
26278SOL    HW180731   3.897  13.754   6.848
26278SOL    HW280732   3.763  13.696   6.810
26279SOL     OW80733   0.385   8.054  10.673
26279SOL    HW180734   0.422   8.105  10.601
26279SOL    HW280735   0.326   7.991  10.630
26280SOL     OW80736   2.133   2.532  12.913
26280SOL    HW180737   2.082   2.537  12.833
26280SOL    HW280738   2.075   2.567  12.981
26281SOL     OW80739   7.648   5.547   9.682
26281SOL    HW180740   7.654   5.557   9.587
26281SOL    HW280741   7.585   5.613   9.709
26282SOL     OW80742   8.113   3.667   0.928
26282SOL    HW180743   8.176   3.701   0.865
26282SOL    HW280744   8.151   3.585   0.959
26283SOL     OW80745  10.293   7.688  10.166
26283SOL    HW180746  10.337   7.616  10.211
26283SOL    HW280747  10.206   7.691  10.205
26284SOL     OW80748   2.814   0.762  13.960
26284SOL    HW180749   2.776   0.697  13.901
26284SOL    HW280750   2.884   0.715  14.005
26285SOL     OW80751  10.108  11.933   9.755
26285SOL    HW180752  10.175  11.987   9.714
26285SOL    HW280753  10.049  11.909   9.684
26286SOL     OW80754  10.793   4.263  12.605
26286SOL    HW180755  10.870   4.208  12.592
26286SOL    HW280756  10.744   4.254  12.523
26287SOL     OW80757   7.598  10.420  14.851
26287SOL    HW180758   7.579  10.512   0.003
26287SOL    HW280759   7.554  10.371   0.051
26288SOL     OW80760   6.599  14.251   1.799
26288SOL    HW180761   6.686  14.282   1.826
26288SOL    HW280762   6.598  14.159   1.825
26289SOL     OW80763  13.348   8.056  12.673
26289SOL    HW180764  13.255   8.074  12.686
26289SOL    HW280765  13.362   7.970  12.714
26290SOL     OW80766   6.776  10.876  13.659
26290SOL    HW180767   6.776  10.916  13.746
26290SOL    HW280768   6.868  10.854  13.644
26291SOL     OW80769   2.493   9.495   2.295
26291SOL    HW180770   2.478   9.559   2.225
26291SOL    HW280771   2.409   9.487   2.339
26292SOL     OW80772   7.030   2.912   9.523
26292SOL    HW180773   6.990   2.833   9.559
26292SOL    HW280774   7.105   2.928   9.580
26293SOL     OW80775   9.576   3.742   4.738
26293SOL    HW180776   9.513   3.802   4.778
26293SOL    HW280777   9.559   3.658   4.780
26294SOL     OW80778   1.277   8.021  11.344
26294SOL    HW180779   1.341   7.962  11.384
26294SOL    HW280780   1.192   7.982  11.365
26295SOL     OW80781  11.821   6.967  11.166
26295SOL    HW180782  11.893   6.923  11.122
26295SOL    HW280783  11.809   7.049  11.117
26296SOL     OW80784  11.685   8.375   9.808
26296SOL    HW180785  11.755   8.349   9.748
26296SOL    HW280786  11.618   8.414   9.753
26297SOL     OW80787   1.997  13.417   2.613
26297SOL    HW180788   2.029  13.494   2.661
26297SOL    HW280789   2.075  13.379   2.574
26298SOL     OW80790   3.743   8.378   6.163
26298SOL    HW180791   3.728   8.346   6.074
26298SOL    HW280792   3.732   8.472   6.156
26299SOL     OW80793  12.996   1.411  11.328
26299SOL    HW180794  13.082   1.412  11.370
26299SOL    HW280795  13.016   1.417  11.234
26300SOL     OW80796   9.739   9.813   8.066
26300SOL    HW180797   9.677   9.798   7.995
26300SOL    HW280798   9.696   9.876   8.123
26301SOL     OW80799  10.525  11.754   6.007
26301SOL    HW180800  10.610  11.751   5.963
26301SOL    HW280801  10.477  11.679   5.972
26302SOL     OW80802   7.437   1.434   5.084
26302SOL    HW180803   7.470   1.465   5.000
26302SOL    HW280804   7.368   1.496   5.107
26303SOL     OW80805   8.241   2.113   4.766
26303SOL    HW180806   8.173   2.094   4.830
26303SOL    HW280807   8.278   2.197   4.796
26304SOL     OW80808   4.644   1.674   4.315
26304SOL    HW180809   4.634   1.738   4.244
26304SOL    HW280810   4.727   1.696   4.356
26305SOL     OW80811  11.384   4.378   3.918
26305SOL    HW180812  11.447   4.329   3.970
26305SOL    HW280813  11.301   4.367   3.964
26306SOL     OW80814   0.637  10.366  10.022
26306SOL    HW180815   0.685  10.392  10.101
26306SOL    HW280816   0.620  10.273  10.034
26307SOL     OW80817  13.387   8.613  11.140
26307SOL    HW180818  13.316   8.677  11.136
26307SOL    HW280819  13.397   8.582  11.050
26308SOL     OW80820   0.481  10.244   2.051
26308SOL    HW180821   0.548  10.235   1.983
26308SOL    HW280822   0.405  10.280   2.004
26309SOL     OW80823  11.062   3.869   1.165
26309SOL    HW180824  10.996   3.853   1.097
26309SOL    HW280825  11.012   3.876   1.246
26310SOL     OW80826   0.735   2.008   5.699
26310SOL    HW180827   0.827   2.017   5.673
26310SOL    HW280828   0.734   1.937   5.763
26311SOL     OW80829   8.130   6.852   0.067
26311SOL    HW180830   8.137   6.783   0.133
26311SOL    HW280831   8.219   6.862   0.034
26312SOL     OW80832  13.062   5.365   1.534
26312SOL    HW180833  12.996   5.434   1.527
26312SOL    HW280834  13.016   5.293   1.577
26313SOL     OW80835  13.765  11.180   3.422
26313SOL    HW180836  13.776  11.274   3.435
26313SOL    HW280837  13.775  11.167   3.328
26314SOL     OW80838   6.316   7.685  12.853
26314SOL    HW180839   6.306   7.630  12.776
26314SOL    HW280840   6.263   7.763  12.834
26315SOL     OW80841  11.603  14.796   3.894
26315SOL    HW180842  11.611  14.836   3.981
26315SOL    HW280843  11.553  14.860   3.843
26316SOL     OW80844  12.900   3.748  13.509
26316SOL    HW180845  12.940   3.673  13.551
26316SOL    HW280846  12.812   3.719  13.484
26317SOL     OW80847  12.301   9.162  14.319
26317SOL    HW180848  12.278   9.073  14.344
26317SOL    HW280849  12.316   9.207  14.402
26318SOL     OW80850   3.809   7.643   7.023
26318SOL    HW180851   3.830   7.733   7.000
26318SOL    HW280852   3.752   7.650   7.100
26319SOL     OW80853  11.763   3.238   4.160
26319SOL    HW180854  11.736   3.329   4.172
26319SOL    HW280855  11.718   3.210   4.080
26320SOL     OW80856  10.383   0.550  13.174
26320SOL    HW180857  10.436   0.627  13.153
26320SOL    HW280858  10.388   0.543  13.269
26321SOL     OW80859   7.686   5.888  12.203
26321SOL    HW180860   7.721   5.877  12.114
26321SOL    HW280861   7.591   5.895  12.190
26322SOL     OW80862  12.968   7.562  13.014
26322SOL    HW180863  12.888   7.512  13.034
26322SOL    HW280864  12.951   7.598  12.927
26323SOL     OW80865   5.806  11.349   9.052
26323SOL    HW180866   5.730  11.406   9.042
26323SOL    HW280867   5.777  11.281   9.113
26324SOL     OW80868  14.218   1.753   9.657
26324SOL    HW180869  14.285   1.731   9.721
26324SOL    HW280870  14.211   1.848   9.662
26325SOL     OW80871   8.325   4.661   3.546
26325SOL    HW180872   8.373   4.584   3.516
26325SOL    HW280873   8.390   4.713   3.594
26326SOL     OW80874  10.911  14.803   5.244
26326SOL    HW180875  11.004  14.786   5.228
26326SOL    HW280876  10.865  14.733   5.197
26327SOL     OW80877   8.968   4.274   4.715
26327SOL    HW180878   9.010   4.236   4.638
26327SOL    HW280879   8.929   4.356   4.684
26328SOL     OW80880  10.950  11.380   2.699
26328SOL    HW180881  11.005  11.422   2.765
26328SOL    HW280882  10.891  11.324   2.749
26329SOL     OW80883   7.161   8.192   8.616
26329SOL    HW180884   7.102   8.267   8.604
26329SOL    HW280885   7.147   8.138   8.537
26330SOL     OW80886   5.106   4.420   2.739
26330SOL    HW180887   5.128   4.424   2.832
26330SOL    HW280888   5.163   4.485   2.698
26331SOL     OW80889  12.228  10.600  13.254
26331SOL    HW180890  12.139  10.571  13.274
26331SOL    HW280891  12.237  10.683  13.302
26332SOL     OW80892   9.547   0.370   0.898
26332SOL    HW180893   9.489   0.386   0.825
26332SOL    HW280894   9.541   0.276   0.914
26333SOL     OW80895   6.934   3.440   8.759
26333SOL    HW180896   6.941   3.468   8.668
26333SOL    HW280897   6.979   3.508   8.809
26334SOL     OW80898   1.724  12.622   9.439
26334SOL    HW180899   1.714  12.580   9.525
26334SOL    HW280900   1.637  12.657   9.419
26335SOL     OW80901  11.359   1.313  12.519
26335SOL    HW180902  11.353   1.332  12.612
26335SOL    HW280903  11.362   1.217  12.514
26336SOL     OW80904   3.763  13.344  12.561
26336SOL    HW180905   3.789  13.256  12.534
26336SOL    HW280906   3.845  13.393  12.565
26337SOL     OW80907   8.070   7.727  13.431
26337SOL    HW180908   8.038   7.637  13.435
26337SOL    HW280909   8.039   7.760  13.347
26338SOL     OW80910  11.717   5.683  10.745
26338SOL    HW180911  11.811   5.696  10.758
26338SOL    HW280912  11.687   5.762  10.701
26339SOL     OW80913   6.575  11.256  12.183
26339SOL    HW180914   6.665  11.282  12.201
26339SOL    HW280915   6.562  11.178  12.238
26340SOL     OW80916   6.087   3.532   0.463
26340SOL    HW180917   6.163   3.478   0.486
26340SOL    HW280918   6.113   3.576   0.382
26341SOL     OW80919   0.422   2.967   2.041
26341SOL    HW180920   0.488   3.027   2.078
26341SOL    HW280921   0.343   2.983   2.093
26342SOL     OW80922   8.860  12.017   1.555
26342SOL    HW180923   8.836  11.927   1.576
26342SOL    HW280924   8.806  12.039   1.479
26343SOL     OW80925   2.596  14.289   3.906
26343SOL    HW180926   2.667  14.280   3.969
26343SOL    HW280927   2.563  14.378   3.920
26344SOL     OW80928   3.978   3.480   7.128
26344SOL    HW180929   4.020   3.481   7.042
26344SOL    HW280930   3.939   3.568   7.136
26345SOL     OW80931  14.843   8.151   7.646
26345SOL    HW180932  14.812   8.238   7.668
26345SOL    HW280933  14.769   8.109   7.601
26346SOL     OW80934   2.203   9.829  12.107
26346SOL    HW180935   2.279   9.772  12.096
26346SOL    HW280936   2.138   9.773  12.152
26347SOL     OW80937  10.553  11.280   3.448
26347SOL    HW180938  10.544  11.243   3.535
26347SOL    HW280939  10.579  11.206   3.393
26348SOL     OW80940  14.343  14.179   6.420
26348SOL    HW180941  14.303  14.260   6.389
26348SOL    HW280942  14.399  14.150   6.347
26349SOL     OW80943   3.553  10.831   2.645
26349SOL    HW180944   3.608  10.909   2.659
26349SOL    HW280945   3.615  10.761   2.628
26350SOL     OW80946  10.947   1.021  10.936
26350SOL    HW180947  10.997   1.091  10.980
26350SOL    HW280948  11.014   0.957  10.911
26351SOL     OW80949   9.024  11.378   2.860
26351SOL    HW180950   8.990  11.289   2.848
26351SOL    HW280951   9.025  11.416   2.773
26352SOL     OW80952   2.780  13.712   8.368
26352SOL    HW180953   2.776  13.745   8.458
26352SOL    HW280954   2.850  13.762   8.327
26353SOL     OW80955   5.858   2.917   5.669
26353SOL    HW180956   5.813   2.993   5.634
26353SOL    HW280957   5.932   2.903   5.610
26354SOL     OW80958   5.391   0.564   7.597
26354SOL    HW180959   5.386   0.471   7.617
26354SOL    HW280960   5.323   0.604   7.651
26355SOL     OW80961   1.324   9.398   5.037
26355SOL    HW180962   1.319   9.480   5.085
26355SOL    HW280963   1.242   9.353   5.059
26356SOL     OW80964  13.464   0.263  14.023
26356SOL    HW180965  13.519   0.276  13.946
26356SOL    HW280966  13.423   0.348  14.038
26357SOL     OW80967  14.045  11.037  10.160
26357SOL    HW180968  14.124  11.008  10.115
26357SOL    HW280969  14.000  11.093  10.097
26358SOL     OW80970  13.633   3.190   1.553
26358SOL    HW180971  13.567   3.130   1.519
26358SOL    HW280972  13.595   3.277   1.541
26359SOL     OW80973  14.086   6.921  10.680
26359SOL    HW180974  14.094   6.898  10.773
26359SOL    HW280975  14.166   6.970  10.660
26360SOL     OW80976   3.680  13.334   0.139
26360SOL    HW180977   3.590  13.336   0.106
26360SOL    HW280978   3.722  13.264   0.089
26361SOL     OW80979   4.379   1.839   7.563
26361SOL    HW180980   4.324   1.883   7.627
26361SOL    HW280981   4.422   1.910   7.514
26362SOL     OW80982   1.057   5.189   2.185
26362SOL    HW180983   1.081   5.220   2.097
26362SOL    HW280984   1.009   5.107   2.168
26363SOL     OW80985  10.349   8.229   9.109
26363SOL    HW180986  10.277   8.281   9.072
26363SOL    HW280987  10.358   8.261   9.199
26364SOL     OW80988   7.569   4.074   0.068
26364SOL    HW180989   7.507   4.147   0.075
26364SOL    HW280990   7.568   4.051  14.843
26365SOL     OW80991  12.105  13.492  11.912
26365SOL    HW180992  12.053  13.509  11.834
26365SOL    HW280993  12.164  13.421  11.887
26366SOL     OW80994   2.445   3.092   2.889
26366SOL    HW180995   2.418   3.183   2.873
26366SOL    HW280996   2.376   3.056   2.945
26367SOL     OW80997  11.172   3.614   3.248
26367SOL    HW180998  11.146   3.685   3.188
26367SOL    HW280999  11.250   3.647   3.292
26368SOL     OW81000   6.981  12.980   8.719
26368SOL    HW181001   7.066  13.023   8.732
26368SOL    HW281002   6.932  13.039   8.663
26369SOL     OW81003   0.544  14.716   0.379
26369SOL    HW181004   0.622  14.700   0.325
26369SOL    HW281005   0.491  14.637   0.367
26370SOL     OW81006  10.413   6.846  12.449
26370SOL    HW181007  10.421   6.882  12.537
26370SOL    HW281008  10.503   6.825  12.423
26371SOL     OW81009   0.253  10.212  10.608
26371SOL    HW181010   0.165  10.179  10.593
26371SOL    HW281011   0.296  10.143  10.659
26372SOL     OW81012   9.395   7.094   7.091
26372SOL    HW181013   9.338   7.082   7.015
26372SOL    HW281014   9.479   7.123   7.053
26373SOL     OW81015  14.821   7.525  12.381
26373SOL    HW181016  14.853   7.515  12.291
26373SOL    HW281017   0.026   7.499  12.436
26374SOL     OW81018   6.696  13.307   7.025
26374SOL    HW181019   6.737  13.223   7.004
26374SOL    HW281020   6.605  13.298   6.996
26375SOL     OW81021  14.568  11.003   8.289
26375SOL    HW181022  14.598  10.963   8.370
26375SOL    HW281023  14.567  10.931   8.225
26376SOL     OW81024   9.555   5.549  13.367
26376SOL    HW181025   9.642   5.519  13.391
26376SOL    HW281026   9.545   5.633  13.413
26377SOL     OW81027  14.360   8.634   7.939
26377SOL    HW181028  14.420   8.679   7.998
26377SOL    HW281029  14.367   8.542   7.965
26378SOL     OW81030   6.768  11.735  11.930
26378SOL    HW181031   6.743  11.644  11.918
26378SOL    HW281032   6.794  11.765  11.843
26379SOL     OW81033   9.345   5.627  11.155
26379SOL    HW181034   9.266   5.580  11.183
26379SOL    HW281035   9.377   5.669  11.235
26380SOL     OW81036   2.994   7.864  12.839
26380SOL    HW181037   2.967   7.930  12.776
26380SOL    HW281038   3.034   7.795  12.786
26381SOL     OW81039   8.556  11.851  12.990
26381SOL    HW181040   8.523  11.821  12.906
26381SOL    HW281041   8.649  11.831  12.989
26382SOL     OW81042  12.167  12.608  11.999
26382SOL    HW181043  12.072  12.608  12.013
26382SOL    HW281044  12.184  12.524  11.955
26383SOL     OW81045   1.049   0.568   1.260
26383SOL    HW181046   1.101   0.576   1.340
26383SOL    HW281047   0.999   0.487   1.271
26384SOL     OW81048  14.598   2.962   7.485
26384SOL    HW181049  14.547   2.904   7.429
26384SOL    HW281050  14.684   2.965   7.445
26385SOL     OW81051  14.486  10.092  10.470
26385SOL    HW181052  14.490  10.072  10.563
26385SOL    HW281053  14.570  10.131  10.449
26386SOL     OW81054   8.622   7.776   3.725
26386SOL    HW181055   8.544   7.776   3.780
26386SOL    HW281056   8.612   7.853   3.670
26387SOL     OW81057   3.932  10.131   4.282
26387SOL    HW181058   3.968  10.127   4.370
26387SOL    HW281059   3.880  10.050   4.274
26388SOL     OW81060   1.996  13.479   9.660
26388SOL    HW181061   2.059  13.432   9.606
26388SOL    HW281062   1.959  13.412   9.718
26389SOL     OW81063   9.754   9.253   7.841
26389SOL    HW181064   9.801   9.300   7.772
26389SOL    HW281065   9.808   9.177   7.860
26390SOL     OW81066  11.466   2.394  12.140
26390SOL    HW181067  11.417   2.454  12.197
26390SOL    HW281068  11.401   2.359  12.079
26391SOL     OW81069  13.519  12.990   4.172
26391SOL    HW181070  13.454  12.935   4.128
26391SOL    HW281071  13.516  12.961   4.264
26392SOL     OW81072  12.556   2.530   2.266
26392SOL    HW181073  12.592   2.522   2.354
26392SOL    HW281074  12.543   2.439   2.238
26393SOL     OW81075  13.754  10.106  10.917
26393SOL    HW181076  13.761  10.109  11.013
26393SOL    HW281077  13.661  10.091  10.900
26394SOL     OW81078   3.054   5.738  10.570
26394SOL    HW181079   3.096   5.707  10.489
26394SOL    HW281080   2.996   5.667  10.596
26395SOL     OW81081   1.067   9.961  13.230
26395SOL    HW181082   1.157   9.986  13.248
26395SOL    HW281083   1.053   9.986  13.139
26396SOL     OW81084   2.102   8.090  13.203
26396SOL    HW181085   2.097   7.996  13.182
26396SOL    HW281086   2.165   8.125  13.141
26397SOL     OW81087   6.901   0.901   5.652
26397SOL    HW181088   6.910   0.995   5.671
26397SOL    HW281089   6.981   0.879   5.605
26398SOL     OW81090  12.538  13.265  13.214
26398SOL    HW181091  12.443  13.259  13.204
26398SOL    HW281092  12.562  13.184  13.260
26399SOL     OW81093   5.717  13.354   3.966
26399SOL    HW181094   5.810  13.370   3.950
26399SOL    HW281095   5.692  13.286   3.904
26400SOL     OW81096   7.430   7.015   4.152
26400SOL    HW181097   7.471   7.028   4.066
26400SOL    HW281098   7.498   6.970   4.204
26401SOL     OW81099   0.017  13.449  12.853
26401SOL    HW181100   0.092  13.444  12.794
26401SOL    HW281101   0.009  13.543  12.873
26402SOL     OW81102  12.142   1.434   4.564
26402SOL    HW181103  12.073   1.433   4.630
26402SOL    HW281104  12.219   1.465   4.612
26403SOL     OW81105   1.910   4.042  14.108
26403SOL    HW181106   1.884   3.959  14.148
26403SOL    HW281107   2.000   4.056  14.137
26404SOL     OW81108  10.394   9.284   0.286
26404SOL    HW181109  10.458   9.234   0.236
26404SOL    HW281110  10.365   9.225   0.355
26405SOL     OW81111   4.815   7.661   4.393
26405SOL    HW181112   4.849   7.735   4.444
26405SOL    HW281113   4.850   7.584   4.437
26406SOL     OW81114   8.599  12.053   7.345
26406SOL    HW181115   8.505  12.039   7.339
26406SOL    HW281116   8.616  12.127   7.287
26407SOL     OW81117  13.173   9.824   3.471
26407SOL    HW181118  13.225   9.897   3.438
26407SOL    HW281119  13.102   9.814   3.408
26408SOL     OW81120  12.538   5.535   1.234
26408SOL    HW181121  12.574   5.524   1.145
26408SOL    HW281122  12.449   5.500   1.229
26409SOL     OW81123   4.711   5.638   1.846
26409SOL    HW181124   4.651   5.639   1.920
26409SOL    HW281125   4.794   5.610   1.884
26410SOL     OW81126   6.401   6.352  10.306
26410SOL    HW181127   6.429   6.319  10.391
26410SOL    HW281128   6.318   6.306  10.290
26411SOL     OW81129  12.303   0.729   2.658
26411SOL    HW181130  12.335   0.666   2.593
26411SOL    HW281131  12.320   0.815   2.619
26412SOL     OW81132   5.353   8.341  13.866
26412SOL    HW181133   5.353   8.429  13.830
26412SOL    HW281134   5.378   8.284  13.793
26413SOL     OW81135   5.816   1.358   2.272
26413SOL    HW181136   5.799   1.444   2.309
26413SOL    HW281137   5.792   1.296   2.341
26414SOL     OW81138  10.513   0.225   8.654
26414SOL    HW181139  10.586   0.276   8.617
26414SOL    HW281140  10.540   0.208   8.744
26415SOL     OW81141   4.499   2.457   9.742
26415SOL    HW181142   4.479   2.370   9.778
26415SOL    HW281143   4.516   2.440   9.649
26416SOL     OW81144   9.929   1.379  11.697
26416SOL    HW181145   9.954   1.332  11.617
26416SOL    HW281146   9.900   1.310  11.756
26417SOL     OW81147   6.250   2.763   6.311
26417SOL    HW181148   6.263   2.675   6.345
26417SOL    HW281149   6.274   2.757   6.218
26418SOL     OW81150  13.736   1.101  12.268
26418SOL    HW181151  13.791   1.056  12.204
26418SOL    HW281152  13.669   1.145  12.215
26419SOL     OW81153   3.400   0.724   4.519
26419SOL    HW181154   3.459   0.737   4.445
26419SOL    HW281155   3.367   0.811   4.540
26420SOL     OW81156   8.796   3.459   9.897
26420SOL    HW181157   8.859   3.517   9.854
26420SOL    HW281158   8.738   3.518   9.944
26421SOL     OW81159   1.044   1.702  12.758
26421SOL    HW181160   1.120   1.754  12.732
26421SOL    HW281161   1.006   1.672  12.676
26422SOL     OW81162  13.577  13.696   5.837
26422SOL    HW181163  13.497  13.703   5.889
26422SOL    HW281164  13.603  13.604   5.846
26423SOL     OW81165  12.148   2.381   5.312
26423SOL    HW181166  12.116   2.471   5.324
26423SOL    HW281167  12.237   2.392   5.277
26424SOL     OW81168   0.277  13.693  14.328
26424SOL    HW181169   0.373  13.692  14.327
26424SOL    HW281170   0.252  13.636  14.255
26425SOL     OW81171  12.821   4.347   3.310
26425SOL    HW181172  12.743   4.385   3.349
26425SOL    HW281173  12.815   4.253   3.330
26426SOL     OW81174   5.286   6.468   3.709
26426SOL    HW181175   5.326   6.519   3.779
26426SOL    HW281176   5.228   6.529   3.665
26427SOL     OW81177  12.234  13.915   6.064
26427SOL    HW181178  12.180  13.960   6.130
26427SOL    HW281179  12.322  13.916   6.101
26428SOL     OW81180   9.751   2.765   1.417
26428SOL    HW181181   9.781   2.777   1.326
26428SOL    HW281182   9.735   2.854   1.449
26429SOL     OW81183  11.655   6.213   7.457
26429SOL    HW181184  11.659   6.170   7.542
26429SOL    HW281185  11.618   6.147   7.399
26430SOL     OW81186   3.556   2.761   4.922
26430SOL    HW181187   3.633   2.723   4.963
26430SOL    HW281188   3.488   2.758   4.990
26431SOL     OW81189   9.730  12.200   1.270
26431SOL    HW181190   9.743  12.294   1.267
26431SOL    HW281191   9.687  12.184   1.354
26432SOL     OW81192  10.998  12.022  14.267
26432SOL    HW181193  11.017  11.988  14.354
26432SOL    HW281194  11.001  11.945  14.210
26433SOL     OW81195  12.907   3.041   1.778
26433SOL    HW181196  12.872   3.013   1.863
26433SOL    HW281197  12.998   3.065   1.796
26434SOL     OW81198   5.383   8.887   1.945
26434SOL    HW181199   5.298   8.853   1.919
26434SOL    HW281200   5.419   8.819   2.003
26435SOL     OW81201   5.398   1.059   1.965
26435SOL    HW181202   5.439   1.070   2.050
26435SOL    HW281203   5.322   1.117   1.967
26436SOL     OW81204   7.724   4.808   9.050
26436SOL    HW181205   7.634   4.776   9.043
26436SOL    HW281206   7.715   4.903   9.052
26437SOL     OW81207   0.631   9.854  12.636
26437SOL    HW181208   0.553   9.859  12.692
26437SOL    HW281209   0.683   9.930  12.661
26438SOL     OW81210  10.911  12.820  12.536
26438SOL    HW181211  10.986  12.878  12.518
26438SOL    HW281212  10.844  12.848  12.474
26439SOL     OW81213  13.693   4.514  12.616
26439SOL    HW181214  13.682   4.473  12.530
26439SOL    HW281215  13.615   4.488  12.665
26440SOL     OW81216   2.936   2.135   3.863
26440SOL    HW181217   2.876   2.138   3.788
26440SOL    HW281218   2.878   2.133   3.940
26441SOL     OW81219  13.537   3.901  11.904
26441SOL    HW181220  13.554   3.813  11.870
26441SOL    HW281221  13.449   3.896  11.940
26442SOL     OW81222   9.967   3.659   6.603
26442SOL    HW181223   9.893   3.684   6.658
26442SOL    HW281224   9.951   3.568   6.580
26443SOL     OW81225  14.033   2.614   4.444
26443SOL    HW181226  13.946   2.649   4.462
26443SOL    HW281227  14.018   2.529   4.405
26444SOL     OW81228  12.694  12.967   0.420
26444SOL    HW181229  12.772  12.930   0.379
26444SOL    HW281230  12.678  13.048   0.373
26445SOL     OW81231  11.798   5.659   7.044
26445SOL    HW181232  11.878   5.612   7.022
26445SOL    HW281233  11.827   5.726   7.107
26446SOL     OW81234   7.623   3.628   1.858
26446SOL    HW181235   7.601   3.535   1.859
26446SOL    HW281236   7.547   3.671   1.818
26447SOL     OW81237   0.602  14.237   8.616
26447SOL    HW181238   0.554  14.307   8.660
26447SOL    HW281239   0.642  14.187   8.687
26448SOL     OW81240  14.154   2.754  10.202
26448SOL    HW181241  14.202   2.786  10.126
26448SOL    HW281242  14.072   2.720  10.165
26449SOL     OW81243   6.382   5.483  14.307
26449SOL    HW181244   6.331   5.436  14.373
26449SOL    HW281245   6.440   5.540  14.358
26450SOL     OW81246   5.952   8.907   4.645
26450SOL    HW181247   5.937   8.844   4.715
26450SOL    HW281248   5.889   8.882   4.577
26451SOL     OW81249  11.316   8.761   3.392
26451SOL    HW181250  11.382   8.720   3.336
26451SOL    HW281251  11.274   8.687   3.437
26452SOL     OW81252   1.799   1.532   0.652
26452SOL    HW181253   1.769   1.453   0.607
26452SOL    HW281254   1.747   1.535   0.733
26453SOL     OW81255  11.695  12.389   8.581
26453SOL    HW181256  11.766  12.415   8.523
26453SOL    HW281257  11.648  12.471   8.600
26454SOL     OW81258  12.010  13.282   4.829
26454SOL    HW181259  12.034  13.201   4.785
26454SOL    HW281260  12.093  13.314   4.866
26455SOL     OW81261   4.270   5.002  10.252
26455SOL    HW181262   4.199   4.976  10.310
26455SOL    HW281263   4.329   5.054  10.307
26456SOL     OW81264   1.376   9.919   9.937
26456SOL    HW181265   1.409   9.874  10.015
26456SOL    HW281266   1.337   9.849   9.885
26457SOL     OW81267   6.849  13.240  12.439
26457SOL    HW181268   6.911  13.167  12.430
26457SOL    HW281269   6.819  13.257  12.349
26458SOL     OW81270  12.389  13.545   5.116
26458SOL    HW181271  12.308  13.547   5.065
26458SOL    HW281272  12.395  13.455   5.147
26459SOL     OW81273   3.053  14.208   3.085
26459SOL    HW181274   3.134  14.192   3.132
26459SOL    HW281275   3.055  14.302   3.066
26460SOL     OW81276   1.039   2.241   1.629
26460SOL    HW181277   0.972   2.233   1.696
26460SOL    HW281278   1.000   2.300   1.564
26461SOL     OW81279   5.665   4.224  13.462
26461SOL    HW181280   5.665   4.130  13.446
26461SOL    HW281281   5.581   4.255  13.427
26462SOL     OW81282   2.785  11.238   7.384
26462SOL    HW181283   2.839  11.289   7.445
26462SOL    HW281284   2.837  11.160   7.366
26463SOL     OW81285   6.245   0.351   0.135
26463SOL    HW181286   6.223   0.422   0.194
26463SOL    HW281287   6.335   0.327   0.159
26464SOL     OW81288   8.699  14.295  14.606
26464SOL    HW181289   8.751  14.361  14.561
26464SOL    HW281290   8.684  14.227  14.540
26465SOL     OW81291  11.848   1.578  13.033
26465SOL    HW181292  11.901   1.533  12.966
26465SOL    HW281293  11.872   1.670  13.023
26466SOL     OW81294   3.138   5.630  12.975
26466SOL    HW181295   3.087   5.624  13.056
26466SOL    HW281296   3.229   5.633  13.005
26467SOL     OW81297  11.928   0.802   8.587
26467SOL    HW181298  11.869   0.774   8.658
26467SOL    HW281299  12.014   0.769   8.613
26468SOL     OW81300  11.471  13.296   0.465
26468SOL    HW181301  11.473  13.362   0.395
26468SOL    HW281302  11.559  13.259   0.466
26469SOL     OW81303   8.546   7.491   7.605
26469SOL    HW181304   8.502   7.466   7.687
26469SOL    HW281305   8.493   7.450   7.536
26470SOL     OW81306  13.535   7.970   6.649
26470SOL    HW181307  13.629   7.991   6.652
26470SOL    HW281308  13.503   7.997   6.736
26471SOL     OW81309   3.270   8.920   0.689
26471SOL    HW181310   3.335   8.868   0.642
26471SOL    HW281311   3.317   8.999   0.715
26472SOL     OW81312   8.096   2.629  10.349
26472SOL    HW181313   8.133   2.567  10.287
26472SOL    HW281314   8.040   2.686  10.296
26473SOL     OW81315   5.368  12.309   2.280
26473SOL    HW181316   5.355  12.356   2.362
26473SOL    HW281317   5.311  12.354   2.218
26474SOL     OW81318  13.792   5.484  10.978
26474SOL    HW181319  13.733   5.535  11.035
26474SOL    HW281320  13.876   5.485  11.024
26475SOL     OW81321   8.683   8.698   1.986
26475SOL    HW181322   8.596   8.658   1.993
26475SOL    HW281323   8.702   8.699   1.892
26476SOL     OW81324  14.734   9.279   9.329
26476SOL    HW181325  14.727   9.294   9.423
26476SOL    HW281326  14.661   9.220   9.308
26477SOL     OW81327   6.761   3.300   4.869
26477SOL    HW181328   6.769   3.323   4.961
26477SOL    HW281329   6.712   3.373   4.830
26478SOL     OW81330   5.496   5.852  11.207
26478SOL    HW181331   5.449   5.897  11.277
26478SOL    HW281332   5.569   5.909  11.187
26479SOL     OW81333  10.782   3.095   9.528
26479SOL    HW181334  10.745   3.144   9.454
26479SOL    HW281335  10.707   3.047   9.564
26480SOL     OW81336   4.595   5.654  10.169
26480SOL    HW181337   4.618   5.618  10.083
26480SOL    HW281338   4.507   5.689  10.158
26481SOL     OW81339  14.390  13.715  10.655
26481SOL    HW181340  14.410  13.755  10.739
26481SOL    HW281341  14.432  13.629  10.658
26482SOL     OW81342  12.928  11.522  11.827
26482SOL    HW181343  12.885  11.490  11.748
26482SOL    HW281344  12.897  11.466  11.897
26483SOL     OW81345   8.310   9.850  11.087
26483SOL    HW181346   8.400   9.878  11.105
26483SOL    HW281347   8.278   9.816  11.170
26484SOL     OW81348   5.958   9.329   3.402
26484SOL    HW181349   5.895   9.367   3.464
26484SOL    HW281350   5.917   9.247   3.374
26485SOL     OW81351   9.098  10.866  12.694
26485SOL    HW181352   9.144  10.785  12.716
26485SOL    HW281353   9.163  10.919  12.648
26486SOL     OW81354  12.741   3.913  10.073
26486SOL    HW181355  12.778   3.831  10.040
26486SOL    HW281356  12.655   3.889  10.106
26487SOL     OW81357  12.622   1.899  10.117
26487SOL    HW181358  12.626   1.852  10.034
26487SOL    HW281359  12.711   1.897  10.151
26488SOL     OW81360   8.744   7.923   2.921
26488SOL    HW181361   8.677   7.910   2.988
26488SOL    HW281362   8.788   7.839   2.914
26489SOL     OW81363   9.643  11.712   4.741
26489SOL    HW181364   9.561  11.700   4.789
26489SOL    HW281365   9.696  11.636   4.765
26490SOL     OW81366   5.602  13.498   5.621
26490SOL    HW181367   5.683  13.548   5.614
26490SOL    HW281368   5.535  13.557   5.588
26491SOL     OW81369  13.794  12.911   5.368
26491SOL    HW181370  13.871  12.856   5.357
26491SOL    HW281371  13.747  12.873   5.442
26492SOL     OW81372  14.782   4.942   0.064
26492SOL    HW181373  14.837   4.973  14.860
26492SOL    HW281374  14.713   4.891   0.021
26493SOL     OW81375  12.039  10.586   7.667
26493SOL    HW181376  12.119  10.610   7.620
26493SOL    HW281377  12.007  10.668   7.704
26494SOL     OW81378   9.529  11.547   2.481
26494SOL    HW181379   9.448  11.556   2.431
26494SOL    HW281380   9.526  11.456   2.513
26495SOL     OW81381   1.992  11.244   1.478
26495SOL    HW181382   2.082  11.242   1.446
26495SOL    HW281383   1.953  11.321   1.437
26496SOL     OW81384   6.089   7.046  13.306
26496SOL    HW181385   6.155   7.042  13.376
26496SOL    HW281386   6.136   7.080  13.231
26497SOL     OW81387   1.082   2.203  11.807
26497SOL    HW181388   1.115   2.287  11.838
26497SOL    HW281389   0.996   2.223  11.769
26498SOL     OW81390   9.499   4.260  12.438
26498SOL    HW181391   9.471   4.227  12.352
26498SOL    HW281392   9.417   4.288  12.479
26499SOL     OW81393   3.328   8.685  13.334
26499SOL    HW181394   3.281   8.731  13.404
26499SOL    HW281395   3.417   8.719  13.339
26500SOL     OW81396   8.911  11.539   9.637
26500SOL    HW181397   8.874  11.543   9.725
26500SOL    HW281398   8.841  11.501   9.583
26501SOL     OW81399   7.096  14.710  11.657
26501SOL    HW181400   7.181  14.723  11.613
26501SOL    HW281401   7.110  14.743  11.746
26502SOL     OW81402   3.031   4.041   3.838
26502SOL    HW181403   2.984   4.119   3.866
26502SOL    HW281404   3.088   4.020   3.912
26503SOL     OW81405   2.856   0.490   4.797
26503SOL    HW181406   2.941   0.519   4.765
26503SOL    HW281407   2.860   0.395   4.792
26504SOL     OW81408   0.567  12.535   0.585
26504SOL    HW181409   0.640  12.572   0.634
26504SOL    HW281410   0.575  12.571   0.497
26505SOL     OW81411  13.203   1.952  13.611
26505SOL    HW181412  13.215   1.857  13.609
26505SOL    HW281413  13.109   1.965  13.597
26506SOL     OW81414   9.035  12.699  10.655
26506SOL    HW181415   8.940  12.691  10.643
26506SOL    HW281416   9.048  12.696  10.749
26507SOL     OW81417   8.218   9.379   1.021
26507SOL    HW181418   8.246   9.467   0.997
26507SOL    HW281419   8.213   9.332   0.938
26508SOL     OW81420   7.694   2.985   0.213
26508SOL    HW181421   7.659   3.071   0.189
26508SOL    HW281422   7.669   2.928   0.140
26509SOL     OW81423  12.842  14.365   8.763
26509SOL    HW181424  12.779  14.378   8.692
26509SOL    HW281425  12.858  14.453   8.798
26510SOL     OW81426  10.397  14.626   2.143
26510SOL    HW181427  10.435  14.580   2.218
26510SOL    HW281428  10.302  14.615   2.154
26511SOL     OW81429   1.238  11.560   7.084
26511SOL    HW181430   1.314  11.614   7.060
26511SOL    HW281431   1.274  11.491   7.140
26512SOL     OW81432   9.066   6.924   1.575
26512SOL    HW181433   9.004   6.958   1.639
26512SOL    HW281434   9.052   6.830   1.575
26513SOL     OW81435  11.470  14.269  10.829
26513SOL    HW181436  11.404  14.273  10.899
26513SOL    HW281437  11.476  14.359  10.797
26514SOL     OW81438  13.546  13.020   8.986
26514SOL    HW181439  13.471  12.960   8.981
26514SOL    HW281440  13.601  12.996   8.911
26515SOL     OW81441   6.711   7.183  14.044
26515SOL    HW181442   6.700   7.219  14.132
26515SOL    HW281443   6.633   7.129  14.031
26516SOL     OW81444   0.536   0.525   2.229
26516SOL    HW181445   0.459   0.470   2.216
26516SOL    HW281446   0.506   0.594   2.288
26517SOL     OW81447  12.293   1.141  13.650
26517SOL    HW181448  12.368   1.124  13.593
26517SOL    HW281449  12.281   1.236  13.646
26518SOL     OW81450  12.443   6.678   1.789
26518SOL    HW181451  12.397   6.761   1.803
26518SOL    HW281452  12.533   6.704   1.766
26519SOL     OW81453  14.139  11.395  14.515
26519SOL    HW181454  14.189  11.463  14.563
26519SOL    HW281455  14.086  11.353  14.583
26520SOL     OW81456   6.343  14.267  13.507
26520SOL    HW181457   6.316  14.327  13.576
26520SOL    HW281458   6.421  14.223  13.542
26521SOL     OW81459   9.303   9.550   0.122
26521SOL    HW181460   9.284   9.469   0.169
26521SOL    HW281461   9.344   9.521   0.040
26522SOL     OW81462   5.664  14.696   3.055
26522SOL    HW181463   5.758  14.686   3.072
26522SOL    HW281464   5.656  14.689   2.960
26523SOL     OW81465  11.927   5.705   5.974
26523SOL    HW181466  11.847   5.712   6.027
26523SOL    HW281467  11.909   5.757   5.896
26524SOL     OW81468  10.912  14.405   0.256
26524SOL    HW181469  10.922  14.342   0.185
26524SOL    HW281470  10.957  14.363   0.331
26525SOL     OW81471  11.324  10.055  12.301
26525SOL    HW181472  11.313  10.039  12.395
26525SOL    HW281473  11.244  10.019  12.262
26526SOL     OW81474   0.723   8.261   3.898
26526SOL    HW181475   0.771   8.322   3.842
26526SOL    HW281476   0.635   8.299   3.904
26527SOL     OW81477  10.795   8.347  11.854
26527SOL    HW181478  10.842   8.394  11.785
26527SOL    HW281479  10.733   8.411  11.889
26528SOL     OW81480   8.159   9.195   3.362
26528SOL    HW181481   8.127   9.285   3.354
26528SOL    HW281482   8.235   9.202   3.419
26529SOL     OW81483   7.003  12.837   1.802
26529SOL    HW181484   6.997  12.812   1.894
26529SOL    HW281485   6.970  12.927   1.799
26530SOL     OW81486  10.859  12.920  11.754
26530SOL    HW181487  10.784  12.892  11.806
26530SOL    HW281488  10.905  12.983  11.810
26531SOL     OW81489   3.831   1.916   7.633
26531SOL    HW181490   3.872   1.992   7.591
26531SOL    HW281491   3.737   1.935   7.629
26532SOL     OW81492  12.366  12.528  11.568
26532SOL    HW181493  12.296  12.487  11.619
26532SOL    HW281494  12.335  12.527  11.478
26533SOL     OW81495  11.070  13.428   8.036
26533SOL    HW181496  11.152  13.389   8.065
26533SOL    HW281497  11.034  13.470   8.114
26534SOL     OW81498   1.581  14.665   0.221
26534SOL    HW181499   1.639  14.738   0.241
26534SOL    HW281500   1.542  14.642   0.305
26535SOL     OW81501   9.061  11.967  10.311
26535SOL    HW181502   9.002  12.042  10.319
26535SOL    HW281503   9.126  11.995  10.246
26536SOL     OW81504   7.032   0.540   4.686
26536SOL    HW181505   7.122   0.541   4.652
26536SOL    HW281506   7.043   0.541   4.781
26537SOL     OW81507   4.279  13.949   2.490
26537SOL    HW181508   4.327  13.883   2.441
26537SOL    HW281509   4.345  13.993   2.543
26538SOL     OW81510  13.775   4.652  13.217
26538SOL    HW181511  13.732   4.732  13.248
26538SOL    HW281512  13.835   4.628  13.288
26539SOL     OW81513   6.356  14.654  14.500
26539SOL    HW181514   6.374  14.560  14.510
26539SOL    HW281515   6.261  14.659  14.495
26540SOL     OW81516   6.929   7.126   9.219
26540SOL    HW181517   6.917   7.139   9.125
26540SOL    HW281518   6.872   7.052   9.240
26541SOL     OW81519   7.449   4.849   6.197
26541SOL    HW181520   7.472   4.759   6.221
26541SOL    HW281521   7.512   4.872   6.128
26542SOL     OW81522   6.967   1.909  13.918
26542SOL    HW181523   6.976   1.953  13.833
26542SOL    HW281524   6.987   1.818  13.900
26543SOL     OW81525   0.511  13.112   5.051
26543SOL    HW181526   0.479  13.022   5.056
26543SOL    HW281527   0.467  13.156   5.124
26544SOL     OW81528   8.408   0.691  11.624
26544SOL    HW181529   8.449   0.771  11.591
26544SOL    HW281530   8.316   0.714  11.637
26545SOL     OW81531  11.948   6.299   5.088
26545SOL    HW181532  11.990   6.340   5.164
26545SOL    HW281533  12.019   6.255   5.042
26546SOL     OW81534   7.459  13.221   9.638
26546SOL    HW181535   7.388  13.187   9.584
26546SOL    HW281536   7.418  13.289   9.692
26547SOL     OW81537  11.308  14.249   7.435
26547SOL    HW181538  11.377  14.305   7.473
26547SOL    HW281539  11.296  14.179   7.499
26548SOL     OW81540  13.390   1.393   5.111
26548SOL    HW181541  13.325   1.324   5.100
26548SOL    HW281542  13.443   1.364   5.185
26549SOL     OW81543   7.590   5.149   9.333
26549SOL    HW181544   7.587   5.244   9.323
26549SOL    HW281545   7.669   5.123   9.286
26550SOL     OW81546   4.340  13.582   2.771
26550SOL    HW181547   4.265  13.642   2.765
26550SOL    HW281548   4.401  13.626   2.830
26551SOL     OW81549   8.351  12.221   4.879
26551SOL    HW181550   8.410  12.210   4.954
26551SOL    HW281551   8.309  12.306   4.894
26552SOL     OW81552  10.321   2.967  13.694
26552SOL    HW181553  10.326   2.902  13.765
26552SOL    HW281554  10.287   2.918  13.619
26553SOL     OW81555  11.927   3.026  13.240
26553SOL    HW181556  12.004   3.076  13.213
26553SOL    HW281557  11.956   2.935  13.242
26554SOL     OW81558  12.731   7.452  11.923
26554SOL    HW181559  12.815   7.481  11.957
26554SOL    HW281560  12.725   7.490  11.836
26555SOL     OW81561   4.890  10.086   1.379
26555SOL    HW181562   4.811  10.101   1.327
26555SOL    HW281563   4.926  10.004   1.344
26556SOL     OW81564   4.428   8.185   0.445
26556SOL    HW181565   4.414   8.094   0.420
26556SOL    HW281566   4.468   8.181   0.532
26557SOL     OW81567   3.175  11.711  11.502
26557SOL    HW181568   3.255  11.694  11.452
26557SOL    HW281569   3.125  11.771  11.447
26558SOL     OW81570  11.143   8.867   7.022
26558SOL    HW181571  11.201   8.857   7.098
26558SOL    HW281572  11.063   8.905   7.058
26559SOL     OW81573   9.072   0.403  12.742
26559SOL    HW181574   9.050   0.349  12.666
26559SOL    HW281575   9.145   0.457  12.713
26560SOL     OW81576   0.881   7.136  10.538
26560SOL    HW181577   0.845   7.224  10.550
26560SOL    HW281578   0.809   7.086  10.499
26561SOL     OW81579  10.264  13.602   4.896
26561SOL    HW181580  10.212  13.536   4.942
26561SOL    HW281581  10.199  13.651   4.845
26562SOL     OW81582   0.700   4.256   9.884
26562SOL    HW181583   0.780   4.204   9.878
26562SOL    HW281584   0.631   4.193   9.902
26563SOL     OW81585   1.046   8.658   7.003
26563SOL    HW181586   0.956   8.684   6.982
26563SOL    HW281587   1.045   8.647   7.098
26564SOL     OW81588   1.673  11.748   0.012
26564SOL    HW181589   1.727  11.827   0.003
26564SOL    HW281590   1.719  11.681  14.829
26565SOL     OW81591   9.778  12.716   4.635
26565SOL    HW181592   9.824  12.652   4.580
26565SOL    HW281593   9.730  12.770   4.573
26566SOL     OW81594   1.387  13.945   5.430
26566SOL    HW181595   1.448  13.920   5.500
26566SOL    HW281596   1.442  13.961   5.354
26567SOL     OW81597   3.297   8.694   0.009
26567SOL    HW181598   3.260   8.629   0.070
26567SOL    HW281599   3.340   8.641  14.810
26568SOL     OW81600   8.327  10.936  14.327
26568SOL    HW181601   8.311  10.850  14.365
26568SOL    HW281602   8.421  10.936  14.307
26569SOL     OW81603   1.831   4.567  12.121
26569SOL    HW181604   1.845   4.523  12.204
26569SOL    HW281605   1.910   4.620  12.109
26570SOL     OW81606  12.484   9.765   8.648
26570SOL    HW181607  12.449   9.849   8.620
26570SOL    HW281608  12.564   9.786   8.695
26571SOL     OW81609   7.145   1.935   4.487
26571SOL    HW181610   7.101   1.853   4.511
26571SOL    HW281611   7.085   1.977   4.425
26572SOL     OW81612   3.929   2.265   8.611
26572SOL    HW181613   3.901   2.301   8.695
26572SOL    HW281614   3.849   2.267   8.557
26573SOL     OW81615   2.268   3.677   3.700
26573SOL    HW181616   2.270   3.717   3.787
26573SOL    HW281617   2.175   3.667   3.680
26574SOL     OW81618   3.364   7.587  12.832
26574SOL    HW181619   3.432   7.580  12.765
26574SOL    HW281620   3.397   7.536  12.906
26575SOL     OW81621   7.754  11.956   0.994
26575SOL    HW181622   7.769  12.037   0.946
26575SOL    HW281623   7.702  11.982   1.070
26576SOL     OW81624   4.537   8.006   9.009
26576SOL    HW181625   4.464   7.956   8.971
26576SOL    HW281626   4.614   7.950   8.997
26577SOL     OW81627   4.412   8.952   4.158
26577SOL    HW181628   4.353   9.014   4.201
26577SOL    HW281629   4.499   8.990   4.170
26578SOL     OW81630   0.644   9.787   0.918
26578SOL    HW181631   0.647   9.707   0.865
26578SOL    HW281632   0.731   9.793   0.957
26579SOL     OW81633  13.267  12.069   8.483
26579SOL    HW181634  13.185  12.037   8.444
26579SOL    HW281635  13.334  12.049   8.417
26580SOL     OW81636  13.975  11.591  12.874
26580SOL    HW181637  13.918  11.620  12.802
26580SOL    HW281638  13.949  11.499  12.888
26581SOL     OW81639   8.830   4.300   5.750
26581SOL    HW181640   8.885   4.234   5.707
26581SOL    HW281641   8.892   4.362   5.787
26582SOL     OW81642   7.735   8.905   9.683
26582SOL    HW181643   7.794   8.902   9.759
26582SOL    HW281644   7.713   8.813   9.666
26583SOL     OW81645  10.172   9.150  10.698
26583SOL    HW181646  10.179   9.144  10.602
26583SOL    HW281647  10.093   9.100  10.719
26584SOL     OW81648   7.007   1.378   5.941
26584SOL    HW181649   7.016   1.465   5.902
26584SOL    HW281650   6.953   1.392   6.018
26585SOL     OW81651   2.191  13.154  11.551
26585SOL    HW181652   2.215  13.065  11.524
26585SOL    HW281653   2.095  13.152  11.557
26586SOL     OW81654   9.968  12.121   6.483
26586SOL    HW181655  10.004  12.195   6.532
26586SOL    HW281656  10.044  12.067   6.461
26587SOL     OW81657  14.518   1.804  14.866
26587SOL    HW181658  14.461   1.838  14.797
26587SOL    HW281659  14.459   1.763   0.061
26588SOL     OW81660   5.916   0.846   0.468
26588SOL    HW181661   5.849   0.794   0.511
26588SOL    HW281662   5.904   0.830   0.374
26589SOL     OW81663  12.650   5.582   9.403
26589SOL    HW181664  12.704   5.647   9.449
26589SOL    HW281665  12.710   5.512   9.380
26590SOL     OW81666  12.938   0.078   5.150
26590SOL    HW181667  12.949   0.029   5.068
26590SOL    HW281668  12.892   0.018   5.209
26591SOL     OW81669   2.348  12.931   8.912
26591SOL    HW181670   2.277  12.939   8.848
26591SOL    HW281671   2.330  12.848   8.957
26592SOL     OW81672   6.409  12.546  12.194
26592SOL    HW181673   6.347  12.602  12.149
26592SOL    HW281674   6.485  12.543  12.136
26593SOL     OW81675   0.155   2.482   5.957
26593SOL    HW181676   0.129   2.506   6.046
26593SOL    HW281677   0.085   2.423   5.927
26594SOL     OW81678   0.127  12.836   2.241
26594SOL    HW181679   0.098  12.927   2.239
26594SOL    HW281680   0.220  12.840   2.261
26595SOL     OW81681   7.752  13.049   5.561
26595SOL    HW181682   7.804  13.006   5.493
26595SOL    HW281683   7.691  13.104   5.514
26596SOL     OW81684  11.931  13.963   1.348
26596SOL    HW181685  11.883  13.880   1.338
26596SOL    HW281686  11.926  14.004   1.262
26597SOL     OW81687   1.729  12.762   1.524
26597SOL    HW181688   1.798  12.763   1.458
26597SOL    HW281689   1.771  12.729   1.603
26598SOL     OW81690   9.326   5.152   5.128
26598SOL    HW181691   9.332   5.129   5.221
26598SOL    HW281692   9.250   5.103   5.096
26599SOL     OW81693   9.264  11.931   9.410
26599SOL    HW181694   9.301  11.873   9.477
26599SOL    HW281695   9.171  11.938   9.434
26600SOL     OW81696  13.882   2.102   3.229
26600SOL    HW181697  13.848   2.055   3.306
26600SOL    HW281698  13.912   2.186   3.263
26601SOL     OW81699  12.107  14.017   9.703
26601SOL    HW181700  12.065  13.932   9.714
26601SOL    HW281701  12.150  14.034   9.788
26602SOL     OW81702   4.861   4.520   3.768
26602SOL    HW181703   4.946   4.526   3.812
26602SOL    HW281704   4.863   4.589   3.702
26603SOL     OW81705   4.082   6.569   8.300
26603SOL    HW181706   4.010   6.626   8.327
26603SOL    HW281707   4.065   6.486   8.345
26604SOL     OW81708   7.355   7.361   5.142
26604SOL    HW181709   7.372   7.298   5.073
26604SOL    HW281710   7.264   7.388   5.129
26605SOL     OW81711   7.138   9.762   1.347
26605SOL    HW181712   7.070   9.814   1.389
26605SOL    HW281713   7.220   9.800   1.378
26606SOL     OW81714   5.113  12.252   5.853
26606SOL    HW181715   5.132  12.231   5.945
26606SOL    HW281716   5.018  12.253   5.848
26607SOL     OW81717   1.796   5.057   5.931
26607SOL    HW181718   1.822   5.113   6.004
26607SOL    HW281719   1.832   4.971   5.954
26608SOL     OW81720  11.628   1.236   9.940
26608SOL    HW181721  11.650   1.295  10.013
26608SOL    HW281722  11.589   1.159   9.983
26609SOL     OW81723  10.804   0.432  14.773
26609SOL    HW181724  10.782   0.519  14.738
26609SOL    HW281725  10.743   0.420  14.846
26610SOL     OW81726   1.961   7.652   6.390
26610SOL    HW181727   2.037   7.690   6.433
26610SOL    HW281728   1.998   7.592   6.325
26611SOL     OW81729   8.919   4.295  13.598
26611SOL    HW181730   8.847   4.240  13.630
26611SOL    HW281731   8.993   4.235  13.589
26612SOL     OW81732  13.879   6.638  10.659
26612SOL    HW181733  13.797   6.683  10.678
26612SOL    HW281734  13.925   6.697  10.599
26613SOL     OW81735  12.520   0.662   3.654
26613SOL    HW181736  12.494   0.601   3.723
26613SOL    HW281737  12.601   0.625   3.619
26614SOL     OW81738  10.231   0.212   9.975
26614SOL    HW181739  10.280   0.168  10.045
26614SOL    HW281740  10.194   0.141   9.923
26615SOL     OW81741  14.359   7.722  14.626
26615SOL    HW181742  14.298   7.771  14.680
26615SOL    HW281743  14.413   7.673  14.688
26616SOL     OW81744   0.904  10.229  12.179
26616SOL    HW181745   0.912  10.293  12.109
26616SOL    HW281746   0.988  10.183  12.179
26617SOL     OW81747   4.740   3.446   7.603
26617SOL    HW181748   4.804   3.401   7.547
26617SOL    HW281749   4.699   3.376   7.654
26618SOL     OW81750  14.655  13.659  14.522
26618SOL    HW181751  14.686  13.664  14.613
26618SOL    HW281752  14.677  13.744  14.485
26619SOL     OW81753   4.288   2.950  13.788
26619SOL    HW181754   4.224   2.981  13.852
26619SOL    HW281755   4.371   2.986  13.817
26620SOL     OW81756   0.075   3.445   3.029
26620SOL    HW181757   0.021   3.513   3.069
26620SOL    HW281758   0.043   3.364   3.067
26621SOL     OW81759   1.908  11.747   3.475
26621SOL    HW181760   1.844  11.815   3.453
26621SOL    HW281761   1.955  11.731   3.394
26622SOL     OW81762   5.228   3.140  12.087
26622SOL    HW181763   5.164   3.156  12.157
26622SOL    HW281764   5.203   3.056  12.050
26623SOL     OW81765  11.729  13.395  11.992
26623SOL    HW181766  11.803  13.339  11.969
26623SOL    HW281767  11.664  13.336  12.029
26624SOL     OW81768  14.829   2.342  12.888
26624SOL    HW181769   0.005   2.427  12.893
26624SOL    HW281770  14.784   2.333  12.972
26625SOL     OW81771  11.000   2.173   9.184
26625SOL    HW181772  11.051   2.223   9.248
26625SOL    HW281773  10.951   2.239   9.135
26626SOL     OW81774   5.909  14.037  14.469
26626SOL    HW181775   5.833  14.020  14.525
26626SOL    HW281776   5.948  14.117  14.505
26627SOL     OW81777   7.297   5.276  10.384
26627SOL    HW181778   7.383   5.289  10.343
26627SOL    HW281779   7.311   5.301  10.476
26628SOL     OW81780   9.288   0.759   7.861
26628SOL    HW181781   9.343   0.708   7.922
26628SOL    HW281782   9.284   0.705   7.782
26629SOL     OW81783  14.048   2.491   4.866
26629SOL    HW181784  13.990   2.498   4.942
26629SOL    HW281785  14.136   2.501   4.904
26630SOL     OW81786  13.073   2.769   6.352
26630SOL    HW181787  13.037   2.761   6.441
26630SOL    HW281788  13.167   2.758   6.364
26631SOL     OW81789   0.883   0.031  13.716
26631SOL    HW181790   0.813  14.835  13.734
26631SOL    HW281791   0.925   0.044  13.801
26632SOL     OW81792  10.005   6.279   4.406
26632SOL    HW181793  10.096   6.259   4.387
26632SOL    HW281794  10.005   6.372   4.427
26633SOL     OW81795   9.282   4.322   4.335
26633SOL    HW181796   9.279   4.411   4.370
26633SOL    HW281797   9.375   4.298   4.338
26634SOL     OW81798   5.942  14.292   0.814
26634SOL    HW181799   6.009  14.230   0.784
26634SOL    HW281800   5.909  14.332   0.734
26635SOL     OW81801  11.774   2.590  12.737
26635SOL    HW181802  11.748   2.580  12.828
26635SOL    HW281803  11.714   2.534  12.688
26636SOL     OW81804   4.210   3.965   5.770
26636SOL    HW181805   4.290   3.936   5.813
26636SOL    HW281806   4.155   3.887   5.764
26637SOL     OW81807   1.567  11.212   9.800
26637SOL    HW181808   1.579  11.200   9.706
26637SOL    HW281809   1.527  11.130   9.830
26638SOL     OW81810   5.678   2.816   7.009
26638SOL    HW181811   5.688   2.865   6.928
26638SOL    HW281812   5.768   2.806   7.042
26639SOL     OW81813   2.888   3.381  14.031
26639SOL    HW181814   2.952   3.444  14.000
26639SOL    HW281815   2.819   3.381  13.964
26640SOL     OW81816  14.503   0.920   8.475
26640SOL    HW181817  14.524   0.852   8.538
26640SOL    HW281818  14.423   0.960   8.510
26641SOL     OW81819  14.589   4.875  11.649
26641SOL    HW181820  14.631   4.898  11.732
26641SOL    HW281821  14.550   4.957  11.619
26642SOL     OW81822   2.939  10.047   7.135
26642SOL    HW181823   2.959  10.045   7.041
26642SOL    HW281824   2.990  10.120   7.169
26643SOL     OW81825  10.033  10.980   6.505
26643SOL    HW181826  10.124  10.991   6.532
26643SOL    HW281827   9.994  10.927   6.575
26644SOL     OW81828  12.575   8.448   3.803
26644SOL    HW181829  12.595   8.370   3.752
26644SOL    HW281830  12.515   8.418   3.872
26645SOL     OW81831   4.391   2.758   0.147
26645SOL    HW181832   4.335   2.814   0.200
26645SOL    HW281833   4.332   2.719   0.083
26646SOL     OW81834   7.856  13.115  10.749
26646SOL    HW181835   7.860  13.125  10.844
26646SOL    HW281836   7.762  13.115  10.729
26647SOL     OW81837   7.891   9.992   2.172
26647SOL    HW181838   7.954  10.050   2.129
26647SOL    HW281839   7.826  10.051   2.209
26648SOL     OW81840  12.098  11.451   9.794
26648SOL    HW181841  12.017  11.437   9.843
26648SOL    HW281842  12.166  11.456   9.860
26649SOL     OW81843   2.433   7.210  10.966
26649SOL    HW181844   2.464   7.157  10.892
26649SOL    HW281845   2.376   7.275  10.926
26650SOL     OW81846   6.551   7.204  12.871
26650SOL    HW181847   6.617   7.270  12.889
26650SOL    HW281848   6.512   7.230  12.788
26651SOL     OW81849   0.320   0.947   8.579
26651SOL    HW181850   0.369   0.886   8.524
26651SOL    HW281851   0.236   0.903   8.595
26652SOL     OW81852   5.948   9.785   4.490
26652SOL    HW181853   5.972   9.791   4.583
26652SOL    HW281854   5.856   9.809   4.487
26653SOL     OW81855  11.396   7.402  13.278
26653SOL    HW181856  11.437   7.316  13.268
26653SOL    HW281857  11.353   7.398  13.364
26654SOL     OW81858   7.663   6.946  14.410
26654SOL    HW181859   7.683   6.885  14.338
26654SOL    HW281860   7.684   7.032  14.374
26655SOL     OW81861   8.528   1.366   8.567
26655SOL    HW181862   8.435   1.387   8.573
26655SOL    HW281863   8.563   1.385   8.654
26656SOL     OW81864  11.866   9.552   5.570
26656SOL    HW181865  11.940   9.570   5.628
26656SOL    HW281866  11.855   9.633   5.521
26657SOL     OW81867  11.738   6.255   4.293
26657SOL    HW181868  11.694   6.340   4.292
26657SOL    HW281869  11.774   6.246   4.204
26658SOL     OW81870   8.038   8.624   2.007
26658SOL    HW181871   8.073   8.697   1.957
26658SOL    HW281872   7.983   8.664   2.074
26659SOL     OW81873   4.693  14.346   9.855
26659SOL    HW181874   4.687  14.427   9.804
26659SOL    HW281875   4.662  14.278   9.795
26660SOL     OW81876  12.779   5.104   1.327
26660SOL    HW181877  12.822   5.170   1.272
26660SOL    HW281878  12.705   5.151   1.366
26661SOL     OW81879   3.753   1.853  12.033
26661SOL    HW181880   3.796   1.787  11.979
26661SOL    HW281881   3.822   1.887  12.090
26662SOL     OW81882   1.854   3.621   6.495
26662SOL    HW181883   1.941   3.661   6.501
26662SOL    HW281884   1.826   3.639   6.405
26663SOL     OW81885   1.053   4.752  13.378
26663SOL    HW181886   0.997   4.687  13.334
26663SOL    HW281887   0.995   4.797  13.439
26664SOL     OW81888   9.450  10.414   8.408
26664SOL    HW181889   9.366  10.376   8.434
26664SOL    HW281890   9.470  10.373   8.324
26665SOL     OW81891   5.605  13.413   2.207
26665SOL    HW181892   5.600  13.372   2.121
26665SOL    HW281893   5.529  13.471   2.211
26666SOL     OW81894   7.025   9.459   2.653
26666SOL    HW181895   7.053   9.501   2.734
26666SOL    HW281896   6.930   9.461   2.656
26667SOL     OW81897   7.082   9.254  10.890
26667SOL    HW181898   7.005   9.290  10.844
26667SOL    HW281899   7.156   9.274  10.833
26668SOL     OW81900   8.382  12.069   4.066
26668SOL    HW181901   8.420  12.019   4.139
26668SOL    HW281902   8.429  12.152   4.068
26669SOL     OW81903  13.679   7.977  12.565
26669SOL    HW181904  13.636   8.027  12.496
26669SOL    HW281905  13.672   7.886  12.535
26670SOL     OW81906  12.945   4.570  10.643
26670SOL    HW181907  12.942   4.494  10.584
26670SOL    HW281908  12.854   4.582  10.670
26671SOL     OW81909   1.842   9.266   5.825
26671SOL    HW181910   1.859   9.360   5.814
26671SOL    HW281911   1.763   9.250   5.774
26672SOL     OW81912   2.499  14.380   3.619
26672SOL    HW181913   2.520  14.286   3.619
26672SOL    HW281914   2.547  14.415   3.694
26673SOL     OW81915   6.541   8.681   0.824
26673SOL    HW181916   6.634   8.681   0.848
26673SOL    HW281917   6.500   8.738   0.890
26674SOL     OW81918  11.808  13.965   2.229
26674SOL    HW181919  11.731  13.914   2.205
26674SOL    HW281920  11.881  13.919   2.186
26675SOL     OW81921   6.739   2.061   1.491
26675SOL    HW181922   6.791   2.139   1.511
26675SOL    HW281923   6.801   1.989   1.501
26676SOL     OW81924   7.245   9.857  13.280
26676SOL    HW181925   7.162   9.899  13.302
26676SOL    HW281926   7.270   9.810  13.359
26677SOL     OW81927   6.504  11.688  11.545
26677SOL    HW181928   6.422  11.654  11.581
26677SOL    HW281929   6.567  11.618  11.559
26678SOL     OW81930   4.327   2.648   0.645
26678SOL    HW181931   4.289   2.561   0.637
26678SOL    HW281932   4.259   2.701   0.687
26679SOL     OW81933   7.678   2.107   8.794
26679SOL    HW181934   7.686   2.074   8.883
26679SOL    HW281935   7.659   2.200   8.804
26680SOL     OW81936  14.822   7.472   3.125
26680SOL    HW181937   0.038   7.491   3.168
26680SOL    HW281938  14.846   7.425   3.045
26681SOL     OW81939  14.385  13.923  12.830
26681SOL    HW181940  14.410  13.878  12.749
26681SOL    HW281941  14.445  13.998  12.834
26682SOL     OW81942   2.977   3.636  11.660
26682SOL    HW181943   3.007   3.608  11.574
26682SOL    HW281944   3.042   3.701  11.688
26683SOL     OW81945   8.947   3.124   7.106
26683SOL    HW181946   8.952   3.151   7.015
26683SOL    HW281947   8.855   3.132   7.129
26684SOL     OW81948   9.228   7.771   2.902
26684SOL    HW181949   9.297   7.724   2.855
26684SOL    HW281950   9.258   7.773   2.993
26685SOL     OW81951   5.014  11.584  14.699
26685SOL    HW181952   5.024  11.490  14.714
26685SOL    HW281953   5.018  11.623  14.786
26686SOL     OW81954   2.583   3.775   5.247
26686SOL    HW181955   2.524   3.706   5.278
26686SOL    HW281956   2.582   3.840   5.317
26687SOL     OW81957  13.065   4.627   2.593
26687SOL    HW181958  13.127   4.629   2.665
26687SOL    HW281959  13.009   4.704   2.607
26688SOL     OW81960  13.315   2.880   6.933
26688SOL    HW181961  13.390   2.935   6.911
26688SOL    HW281962  13.265   2.931   6.996
26689SOL     OW81963   9.433   3.737  13.090
26689SOL    HW181964   9.496   3.749  13.019
26689SOL    HW281965   9.451   3.810  13.150
26690SOL     OW81966   8.878   6.861   4.751
26690SOL    HW181967   8.800   6.839   4.802
26690SOL    HW281968   8.909   6.944   4.787
26691SOL     OW81969   3.278   5.954   9.983
26691SOL    HW181970   3.368   5.977  10.003
26691SOL    HW281971   3.252   6.016   9.915
26692SOL     OW81972  11.064   3.669   4.723
26692SOL    HW181973  11.071   3.597   4.660
26692SOL    HW281974  11.019   3.631   4.798
26693SOL     OW81975   9.131   5.138   8.242
26693SOL    HW181976   9.136   5.189   8.323
26693SOL    HW281977   9.196   5.068   8.253
26694SOL     OW81978   8.676  14.076   6.991
26694SOL    HW181979   8.591  14.119   7.003
26694SOL    HW281980   8.656  13.983   6.988
26695SOL     OW81981   8.355   1.669   6.144
26695SOL    HW181982   8.348   1.675   6.240
26695SOL    HW281983   8.314   1.750   6.112
26696SOL     OW81984  14.763   3.278   5.418
26696SOL    HW181985  14.850   3.238   5.413
26696SOL    HW281986  14.778   3.372   5.409
26697SOL     OW81987  11.272   4.679   1.243
26697SOL    HW181988  11.348   4.680   1.301
26697SOL    HW281989  11.205   4.727   1.291
26698SOL     OW81990   8.768   0.481   2.744
26698SOL    HW181991   8.859   0.487   2.716
26698SOL    HW281992   8.753   0.562   2.794
26699SOL     OW81993   2.584  11.981   8.690
26699SOL    HW181994   2.619  11.993   8.779
26699SOL    HW281995   2.659  11.998   8.633
26700SOL     OW81996   7.763  10.621  14.447
26700SOL    HW181997   7.813  10.646  14.524
26700SOL    HW281998   7.694  10.564  14.481
26701SOL     OW81999   4.528   0.484  14.856
26701SOL    HW182000   4.549   0.391   0.003
26701SOL    HW282001   4.488   0.486  14.769
26702SOL     OW82002   6.061   7.315   0.988
26702SOL    HW182003   6.027   7.318   0.898
26702SOL    HW282004   5.996   7.264   1.036
26703SOL     OW82005   2.713   9.160  10.228
26703SOL    HW182006   2.681   9.074  10.201
26703SOL    HW282007   2.655   9.222  10.185
26704SOL     OW82008  12.686   8.598   7.123
26704SOL    HW182009  12.780   8.575   7.120
26704SOL    HW282010  12.682   8.674   7.181
26705SOL     OW82011   2.652   0.578   5.999
26705SOL    HW182012   2.662   0.512   5.931
26705SOL    HW282013   2.686   0.535   6.078
26706SOL     OW82014   7.283  11.229   0.064
26706SOL    HW182015   7.274  11.260   0.154
26706SOL    HW282016   7.204  11.261   0.020
26707SOL     OW82017   8.733  13.560  14.166
26707SOL    HW182018   8.754  13.650  14.144
26707SOL    HW282019   8.643  13.563  14.196
26708SOL     OW82020   3.924  14.500  10.368
26708SOL    HW182021   3.860  14.483  10.436
26708SOL    HW282022   3.972  14.418  10.358
26709SOL     OW82023   7.994  13.391   3.450
26709SOL    HW182024   7.987  13.352   3.538
26709SOL    HW282025   8.087  13.404   3.436
26710SOL     OW82026  11.485  10.364  13.848
26710SOL    HW182027  11.502  10.274  13.874
26710SOL    HW282028  11.542  10.380  13.773
26711SOL     OW82029  14.865  13.852   2.240
26711SOL    HW182030  14.800  13.906   2.284
26711SOL    HW282031   0.055  13.915   2.197
26712SOL     OW82032   8.966   1.829   5.326
26712SOL    HW182033   9.055   1.825   5.290
26712SOL    HW282034   8.949   1.741   5.358
26713SOL     OW82035  13.929  10.886   1.013
26713SOL    HW182036  13.911  10.972   1.053
26713SOL    HW282037  13.843  10.844   1.007
26714SOL     OW82038  11.321   6.936   9.749
26714SOL    HW182039  11.278   6.891   9.676
26714SOL    HW282040  11.315   7.029   9.726
26715SOL     OW82041  11.098   4.895   8.323
26715SOL    HW182042  11.173   4.892   8.384
26715SOL    HW282043  11.094   4.986   8.294
26716SOL     OW82044   5.086   2.303  10.656
26716SOL    HW182045   5.146   2.275  10.587
26716SOL    HW282046   5.142   2.315  10.733
26717SOL     OW82047   0.825   8.722   8.230
26717SOL    HW182048   0.800   8.810   8.200
26717SOL    HW282049   0.750   8.667   8.209
26718SOL     OW82050  12.885   5.273   5.811
26718SOL    HW182051  12.857   5.303   5.898
26718SOL    HW282052  12.803   5.250   5.767
26719SOL     OW82053   0.122  11.783   2.583
26719SOL    HW182054   0.063  11.858   2.583
26719SOL    HW282055   0.152  11.776   2.674
26720SOL     OW82056   6.530   1.440  14.700
26720SOL    HW182057   6.549   1.358  14.745
26720SOL    HW282058   6.463   1.481  14.754
26721SOL     OW82059  10.127   2.225   8.396
26721SOL    HW182060  10.073   2.147   8.410
26721SOL    HW282061  10.078   2.296   8.436
26722SOL     OW82062  11.878  14.139   2.729
26722SOL    HW182063  11.863  14.112   2.638
26722SOL    HW282064  11.914  14.227   2.722
26723SOL     OW82065  10.013   9.285  12.103
26723SOL    HW182066  10.024   9.374  12.138
26723SOL    HW282067   9.919   9.276  12.088
26724SOL     OW82068  13.018   4.608   5.779
26724SOL    HW182069  13.042   4.550   5.851
26724SOL    HW282070  12.976   4.551   5.715
26725SOL     OW82071  11.579   3.042  12.364
26725SOL    HW182072  11.491   3.028  12.399
26725SOL    HW282073  11.628   3.081  12.436
26726SOL     OW82074  10.149   6.757  10.440
26726SOL    HW182075  10.138   6.847  10.410
26726SOL    HW282076  10.123   6.759  10.532
26727SOL     OW82077   5.501  12.630  13.518
26727SOL    HW182078   5.447  12.606  13.594
26727SOL    HW282079   5.588  12.643  13.554
26728SOL     OW82080   7.543  11.994   7.863
26728SOL    HW182081   7.497  11.940   7.799
26728SOL    HW282082   7.588  11.932   7.920
26729SOL     OW82083   4.363   8.863   3.019
26729SOL    HW182084   4.364   8.953   3.053
26729SOL    HW282085   4.295   8.863   2.952
26730SOL     OW82086   9.963  12.465   4.140
26730SOL    HW182087   9.972  12.534   4.206
26730SOL    HW282088   9.873  12.433   4.151
26731SOL     OW82089  13.085  12.906  12.542
26731SOL    HW182090  13.028  12.982  12.555
26731SOL    HW282091  13.060  12.845  12.611
26732SOL     OW82092  11.354   9.451  11.681
26732SOL    HW182093  11.385   9.367  11.716
26732SOL    HW282094  11.288   9.426  11.616
26733SOL     OW82095   1.664   6.733   8.865
26733SOL    HW182096   1.732   6.683   8.820
26733SOL    HW282097   1.689   6.824   8.853
26734SOL     OW82098   9.653   8.824   7.648
26734SOL    HW182099   9.663   8.730   7.631
26734SOL    HW282100   9.576   8.830   7.705
26735SOL     OW82101   3.817   4.037   5.462
26735SOL    HW182102   3.726   4.028   5.491
26735SOL    HW282103   3.869   4.029   5.542
26736SOL     OW82104   8.378  14.112  13.258
26736SOL    HW182105   8.345  14.187  13.209
26736SOL    HW282106   8.458  14.086  13.213
26737SOL     OW82107   7.080   4.773   5.108
26737SOL    HW182108   7.112   4.856   5.144
26737SOL    HW282109   7.158   4.728   5.076
26738SOL     OW82110  11.847   6.965   9.111
26738SOL    HW182111  11.859   6.923   9.026
26738SOL    HW282112  11.935   6.966   9.149
26739SOL     OW82113   1.387   8.620   3.933
26739SOL    HW182114   1.478   8.646   3.922
26739SOL    HW282115   1.391   8.525   3.944
26740SOL     OW82116  14.618   4.972   4.717
26740SOL    HW182117  14.588   5.004   4.802
26740SOL    HW282118  14.713   4.962   4.728
26741SOL     OW82119  10.287  11.258  11.575
26741SOL    HW182120  10.280  11.350  11.602
26741SOL    HW282121  10.217  11.214  11.622
26742SOL     OW82122  14.554   9.286  13.673
26742SOL    HW182123  14.465   9.288  13.636
26742SOL    HW282124  14.584   9.197  13.655
26743SOL     OW82125   7.626   4.702   7.618
26743SOL    HW182126   7.603   4.780   7.668
26743SOL    HW282127   7.673   4.735   7.542
26744SOL     OW82128   3.504   5.835  11.505
26744SOL    HW182129   3.600   5.830  11.500
26744SOL    HW282130   3.483   5.923  11.474
26745SOL     OW82131  10.927   6.308   7.295
26745SOL    HW182132  10.885   6.384   7.254
26745SOL    HW282133  11.003   6.291   7.240
26746SOL     OW82134   4.320   1.634   1.042
26746SOL    HW182135   4.391   1.681   1.084
26746SOL    HW282136   4.263   1.606   1.114
26747SOL     OW82137   0.936  14.311  14.654
26747SOL    HW182138   0.960  14.403  14.644
26747SOL    HW282139   0.905  14.303  14.744
26748SOL     OW82140   3.395  11.989  13.580
26748SOL    HW182141   3.471  12.045  13.596
26748SOL    HW282142   3.418  11.939  13.502
26749SOL     OW82143   2.899   4.947   4.665
26749SOL    HW182144   2.951   4.952   4.585
26749SOL    HW282145   2.881   5.038   4.689
26750SOL     OW82146   8.299   7.024  12.422
26750SOL    HW182147   8.217   7.001  12.378
26750SOL    HW282148   8.318   6.950  12.479
26751SOL     OW82149   6.907   3.703   8.132
26751SOL    HW182150   6.850   3.746   8.068
26751SOL    HW282151   6.972   3.658   8.078
26752SOL     OW82152   2.668   4.531  11.247
26752SOL    HW182153   2.658   4.453  11.302
26752SOL    HW282154   2.659   4.498  11.158
26753SOL     OW82155   5.295   6.033   4.666
26753SOL    HW182156   5.224   6.057   4.607
26753SOL    HW282157   5.349   6.111   4.672
26754SOL     OW82158  14.713  12.998  11.103
26754SOL    HW182159  14.762  12.933  11.154
26754SOL    HW282160  14.667  12.948  11.036
26755SOL     OW82161  11.991   5.826  11.619
26755SOL    HW182162  11.988   5.731  11.628
26755SOL    HW282163  11.948   5.844  11.535
26756SOL     OW82164   2.289  13.119   5.827
26756SOL    HW182165   2.331  13.058   5.768
26756SOL    HW282166   2.230  13.171   5.771
26757SOL     OW82167  14.030   8.346   8.607
26757SOL    HW182168  14.034   8.425   8.661
26757SOL    HW282169  14.098   8.289   8.643
26758SOL     OW82170  11.562   4.871   4.424
26758SOL    HW182171  11.630   4.807   4.408
26758SOL    HW282172  11.603   4.955   4.405
26759SOL     OW82173   3.574   7.246   0.797
26759SOL    HW182174   3.629   7.297   0.857
26759SOL    HW282175   3.520   7.311   0.753
26760SOL     OW82176   4.588  12.108   2.653
26760SOL    HW182177   4.671  12.144   2.623
26760SOL    HW282178   4.533  12.184   2.669
26761SOL     OW82179  10.571   1.968  11.196
26761SOL    HW182180  10.574   1.919  11.278
26761SOL    HW282181  10.533   2.053  11.219
26762SOL     OW82182   7.790   0.928  10.595
26762SOL    HW182183   7.720   0.929  10.530
26762SOL    HW282184   7.744   0.911  10.678
26763SOL     OW82185  11.523  10.263  14.279
26763SOL    HW182186  11.606  10.241  14.322
26763SOL    HW282187  11.517  10.202  14.206
26764SOL     OW82188   4.718   3.679   7.897
26764SOL    HW182189   4.623   3.671   7.886
26764SOL    HW282190   4.732   3.772   7.918
26765SOL     OW82191   5.043  13.039   3.212
26765SOL    HW182192   5.070  12.947   3.204
26765SOL    HW282193   4.949  13.037   3.192
26766SOL     OW82194  13.157   9.362   4.109
26766SOL    HW182195  13.252   9.371   4.100
26766SOL    HW282196  13.133   9.291   4.049
26767SOL     OW82197   6.027  11.199   7.686
26767SOL    HW182198   6.059  11.109   7.673
26767SOL    HW282199   5.970  11.193   7.762
26768SOL     OW82200   6.062   4.615   7.234
26768SOL    HW182201   6.022   4.591   7.317
26768SOL    HW282202   6.058   4.536   7.181
26769SOL     OW82203   3.838   7.453  11.654
26769SOL    HW182204   3.830   7.504  11.573
26769SOL    HW282205   3.828   7.518  11.724
26770SOL     OW82206   8.671   6.031  12.414
26770SOL    HW182207   8.731   6.042  12.341
26770SOL    HW282208   8.700   5.951  12.457
26771SOL     OW82209  13.309   1.141   3.961
26771SOL    HW182210  13.311   1.050   3.989
26771SOL    HW282211  13.234   1.179   4.006
26772SOL     OW82212   5.833  11.079   5.988
26772SOL    HW182213   5.767  11.148   6.001
26772SOL    HW282214   5.831  11.062   5.894
26773SOL     OW82215   0.801  12.548  10.953
26773SOL    HW182216   0.732  12.609  10.930
26773SOL    HW282217   0.866  12.557  10.883
26774SOL     OW82218   8.561   7.082  11.378
26774SOL    HW182219   8.630   7.114  11.319
26774SOL    HW282220   8.591   6.994  11.403
26775SOL     OW82221   7.238   4.729   3.301
26775SOL    HW182222   7.268   4.818   3.322
26775SOL    HW282223   7.155   4.720   3.347
26776SOL     OW82224   5.784   6.785   8.845
26776SOL    HW182225   5.792   6.774   8.750
26776SOL    HW282226   5.711   6.727   8.870
26777SOL     OW82227   8.792   2.934   4.998
26777SOL    HW182228   8.807   3.018   5.042
26777SOL    HW282229   8.763   2.958   4.910
26778SOL     OW82230   5.538   4.919  14.270
26778SOL    HW182231   5.495   4.854  14.213
26778SOL    HW282232   5.590   4.867  14.331
26779SOL     OW82233   9.989   5.374   3.804
26779SOL    HW182234  10.063   5.349   3.749
26779SOL    HW282235   9.912   5.365   3.748
26780SOL     OW82236   1.124   5.289   1.563
26780SOL    HW182237   1.077   5.325   1.638
26780SOL    HW282238   1.200   5.245   1.602
26781SOL     OW82239   8.296   0.757   5.581
26781SOL    HW182240   8.372   0.732   5.528
26781SOL    HW282241   8.329   0.823   5.642
26782SOL     OW82242   3.661   4.304   4.178
26782SOL    HW182243   3.747   4.321   4.217
26782SOL    HW282244   3.599   4.314   4.250
26783SOL     OW82245  10.538   0.554   3.329
26783SOL    HW182246  10.487   0.634   3.317
26783SOL    HW282247  10.473   0.487   3.353
26784SOL     OW82248   0.347   9.977   1.333
26784SOL    HW182249   0.427   9.953   1.286
26784SOL    HW282250   0.378  10.005   1.420
26785SOL     OW82251   5.004  14.394   3.584
26785SOL    HW182252   4.995  14.325   3.519
26785SOL    HW282253   5.033  14.471   3.535
26786SOL     OW82254   2.263   2.536   5.721
26786SOL    HW182255   2.266   2.553   5.627
26786SOL    HW282256   2.349   2.500   5.742
26787SOL     OW82257  10.670   6.485  12.997
26787SOL    HW182258  10.587   6.467  13.043
26787SOL    HW282259  10.737   6.475  13.064
26788SOL     OW82260   9.207  14.160  11.145
26788SOL    HW182261   9.261  14.206  11.210
26788SOL    HW282262   9.117  14.186  11.166
26789SOL     OW82263   4.708   5.223   5.980
26789SOL    HW182264   4.614   5.237   5.979
26789SOL    HW282265   4.731   5.219   6.073
26790SOL     OW82266   4.890   9.113   9.834
26790SOL    HW182267   4.926   9.150   9.914
26790SOL    HW282268   4.800   9.146   9.829
26791SOL     OW82269   4.415   9.374  14.594
26791SOL    HW182270   4.458   9.371  14.509
26791SOL    HW282271   4.481   9.342  14.656
26792SOL     OW82272  13.776   5.354  12.864
26792SOL    HW182273  13.734   5.434  12.894
26792SOL    HW282274  13.813   5.315  12.943
26793SOL     OW82275   2.434   4.487   5.454
26793SOL    HW182276   2.492   4.464   5.382
26793SOL    HW282277   2.483   4.552   5.505
26794SOL     OW82278   5.298  11.812   9.683
26794SOL    HW182279   5.271  11.800   9.592
26794SOL    HW282280   5.393  11.800   9.682
26795SOL     OW82281   9.751   1.335   5.490
26795SOL    HW182282   9.658   1.351   5.479
26795SOL    HW282283   9.758   1.289   5.573
26796SOL     OW82284   3.909  10.563   3.417
26796SOL    HW182285   3.979  10.585   3.356
26796SOL    HW282286   3.851  10.639   3.416
26797SOL     OW82287   0.989  14.584   4.160
26797SOL    HW182288   1.014  14.597   4.068
26797SOL    HW282289   1.061  14.622   4.210
26798SOL     OW82290  12.726   5.285  12.683
26798SOL    HW182291  12.648   5.233  12.668
26798SOL    HW282292  12.695   5.363  12.730
26799SOL     OW82293   1.522  12.788   9.303
26799SOL    HW182294   1.503  12.704   9.261
26799SOL    HW282295   1.511  12.852   9.233
26800SOL     OW82296   7.363  11.760   3.186
26800SOL    HW182297   7.409  11.680   3.212
26800SOL    HW282298   7.433  11.819   3.159
26801SOL     OW82299  14.819  13.486   3.273
26801SOL    HW182300   0.007  13.563   3.261
26801SOL    HW282301  14.851  13.424   3.207
26802SOL     OW82302   2.681   3.767   3.416
26802SOL    HW182303   2.773   3.749   3.439
26802SOL    HW282304   2.635   3.762   3.500
26803SOL     OW82305   5.804   1.771   9.666
26803SOL    HW182306   5.830   1.688   9.626
26803SOL    HW282307   5.841   1.768   9.754
26804SOL     OW82308  11.177   6.774  13.713
26804SOL    HW182309  11.240   6.743  13.648
26804SOL    HW282310  11.110   6.705  13.716
26805SOL     OW82311   6.404  13.020  11.566
26805SOL    HW182312   6.379  12.943  11.516
26805SOL    HW282313   6.367  13.094  11.517
26806SOL     OW82314   5.348   1.213   6.517
26806SOL    HW182315   5.429   1.177   6.553
26806SOL    HW282316   5.278   1.165   6.561
26807SOL     OW82317   6.944  13.472  12.575
26807SOL    HW182318   6.898  13.401  12.531
26807SOL    HW282319   6.976  13.528  12.503
26808SOL     OW82320   7.723   9.655   5.810
26808SOL    HW182321   7.704   9.667   5.717
26808SOL    HW282322   7.795   9.715   5.829
26809SOL     OW82323   2.720   5.698   3.209
26809SOL    HW182324   2.751   5.700   3.118
26809SOL    HW282325   2.729   5.607   3.236
26810SOL     OW82326   7.020   8.504   9.278
26810SOL    HW182327   6.951   8.569   9.265
26810SOL    HW282328   7.067   8.535   9.356
26811SOL     OW82329   2.826  12.429   9.442
26811SOL    HW182330   2.902  12.382   9.474
26811SOL    HW282331   2.751  12.384   9.481
26812SOL     OW82332   6.637  14.725   9.767
26812SOL    HW182333   6.649  14.815   9.736
26812SOL    HW282334   6.679  14.671   9.701
26813SOL     OW82335  13.961   5.110  13.707
26813SOL    HW182336  13.921   5.191  13.737
26813SOL    HW282337  13.923   5.094  13.621
26814SOL     OW82338   8.129   9.653   9.798
26814SOL    HW182339   8.130   9.578   9.858
26814SOL    HW282340   8.156   9.727   9.852
26815SOL     OW82341   9.563   9.610   8.493
26815SOL    HW182342   9.588   9.678   8.555
26815SOL    HW282343   9.633   9.610   8.428
26816SOL     OW82344   8.435   5.864  10.738
26816SOL    HW182345   8.367   5.914  10.691
26816SOL    HW282346   8.421   5.773  10.711
26817SOL     OW82347  11.769   0.306   4.089
26817SOL    HW182348  11.691   0.359   4.071
26817SOL    HW282349  11.820   0.358   4.151
26818SOL     OW82350   9.939   6.312   1.935
26818SOL    HW182351  10.026   6.322   1.897
26818SOL    HW282352   9.953   6.323   2.029
26819SOL     OW82353  10.124   8.659  10.699
26819SOL    HW182354  10.121   8.683  10.791
26819SOL    HW282355  10.154   8.738  10.654
26820SOL     OW82356   8.887  11.015   0.535
26820SOL    HW182357   8.830  11.025   0.611
26820SOL    HW282358   8.846  10.946   0.483
26821SOL     OW82359   6.871  11.258   4.095
26821SOL    HW182360   6.817  11.317   4.148
26821SOL    HW282361   6.822  11.175   4.095
26822SOL     OW82362   7.452   2.402   8.284
26822SOL    HW182363   7.516   2.367   8.346
26822SOL    HW282364   7.403   2.467   8.335
26823SOL     OW82365   5.111  12.234   2.909
26823SOL    HW182366   5.023  12.258   2.881
26823SOL    HW282367   5.099  12.157   2.964
26824SOL     OW82368   8.558   0.766   0.692
26824SOL    HW182369   8.479   0.821   0.699
26824SOL    HW282370   8.598   0.793   0.610
26825SOL     OW82371   1.386  11.557   1.409
26825SOL    HW182372   1.479  11.560   1.385
26825SOL    HW282373   1.379  11.614   1.486
26826SOL     OW82374   6.722  13.011   9.683
26826SOL    HW182375   6.712  13.105   9.664
26826SOL    HW282376   6.815  12.994   9.669
26827SOL     OW82377   8.957  13.056   8.821
26827SOL    HW182378   8.900  13.039   8.896
26827SOL    HW282379   9.043  13.070   8.860
26828SOL     OW82380   8.679  11.082   4.550
26828SOL    HW182381   8.763  11.097   4.506
26828SOL    HW282382   8.614  11.091   4.480
26829SOL     OW82383   2.337  12.777  13.954
26829SOL    HW182384   2.298  12.780  13.867
26829SOL    HW282385   2.362  12.685  13.966
26830SOL     OW82386  13.690  12.178   8.312
26830SOL    HW182387  13.698  12.093   8.354
26830SOL    HW282388  13.780  12.207   8.299
26831SOL     OW82389   8.901  12.257   3.836
26831SOL    HW182390   8.877  12.216   3.753
26831SOL    HW282391   8.985  12.218   3.858
26832SOL     OW82392  13.750   2.674  14.139
26832SOL    HW182393  13.695   2.731  14.194
26832SOL    HW282394  13.825   2.652  14.195
26833SOL     OW82395  10.342   5.590   4.368
26833SOL    HW182396  10.382   5.584   4.454
26833SOL    HW282397  10.256   5.549   4.378
26834SOL     OW82398   7.338   4.660   8.013
26834SOL    HW182399   7.315   4.567   8.017
26834SOL    HW282400   7.310   4.695   8.098
26835SOL     OW82401  10.550  13.506  14.833
26835SOL    HW182402  10.620  13.569  14.848
26835SOL    HW282403  10.475  13.542   0.012
26836SOL     OW82404   9.153  14.108   0.264
26836SOL    HW182405   9.218  14.104   0.334
26836SOL    HW282406   9.129  14.017   0.248
26837SOL     OW82407   5.222   9.298   3.082
26837SOL    HW182408   5.205   9.323   3.173
26837SOL    HW282409   5.186   9.371   3.030
26838SOL     OW82410   2.019  10.337   8.010
26838SOL    HW182411   1.979  10.393   7.944
26838SOL    HW282412   2.009  10.248   7.977
26839SOL     OW82413  11.501   2.791   1.792
26839SOL    HW182414  11.539   2.848   1.725
26839SOL    HW282415  11.568   2.788   1.861
26840SOL     OW82416   1.575   5.841   8.079
26840SOL    HW182417   1.557   5.820   8.170
26840SOL    HW282418   1.630   5.769   8.048
26841SOL     OW82419   6.725   8.952   6.771
26841SOL    HW182420   6.638   8.913   6.784
26841SOL    HW282421   6.726   9.027   6.832
26842SOL     OW82422   4.678  14.263  11.155
26842SOL    HW182423   4.664  14.231  11.066
26842SOL    HW282424   4.601  14.233  11.204
26843SOL     OW82425   5.082   9.151   6.366
26843SOL    HW182426   5.125   9.097   6.299
26843SOL    HW282427   5.103   9.241   6.340
26844SOL     OW82428   9.653   1.883   7.371
26844SOL    HW182429   9.618   1.889   7.460
26844SOL    HW282430   9.732   1.937   7.373
26845SOL     OW82431  11.975   2.895  10.445
26845SOL    HW182432  11.911   2.828  10.467
26845SOL    HW282433  12.057   2.863  10.483
26846SOL     OW82434   4.957   2.973   1.399
26846SOL    HW182435   4.908   2.969   1.481
26846SOL    HW282436   4.905   2.923   1.337
26847SOL     OW82437   4.257   4.174   3.695
26847SOL    HW182438   4.261   4.184   3.790
26847SOL    HW282439   4.211   4.091   3.681
26848SOL     OW82440   9.925  14.213   8.529
26848SOL    HW182441   9.875  14.241   8.453
26848SOL    HW282442   9.892  14.125   8.548
26849SOL     OW82443   9.488   1.960   7.155
26849SOL    HW182444   9.445   2.036   7.196
26849SOL    HW282445   9.528   1.913   7.228
26850SOL     OW82446   7.302   6.894   3.015
26850SOL    HW182447   7.213   6.911   2.984
26850SOL    HW282448   7.311   6.799   3.013
26851SOL     OW82449   6.426  13.485  14.119
26851SOL    HW182450   6.497  13.421  14.122
26851SOL    HW282451   6.362  13.447  14.060
26852SOL     OW82452   8.875  12.145   2.288
26852SOL    HW182453   8.851  12.054   2.305
26852SOL    HW282454   8.949  12.140   2.227
26853SOL     OW82455   5.972  11.576   2.758
26853SOL    HW182456   5.922  11.645   2.715
26853SOL    HW282457   5.977  11.602   2.850
26854SOL     OW82458   3.480   7.463  14.597
26854SOL    HW182459   3.393   7.501  14.589
26854SOL    HW282460   3.469   7.371  14.572
26855SOL     OW82461  12.218   9.433   2.277
26855SOL    HW182462  12.152   9.491   2.314
26855SOL    HW282463  12.178   9.346   2.279
26856SOL     OW82464   7.621   4.078  10.886
26856SOL    HW182465   7.567   4.044  10.957
26856SOL    HW282466   7.643   4.167  10.914
26857SOL     OW82467  14.768   9.796   9.022
26857SOL    HW182468  14.739   9.754   8.942
26857SOL    HW282469  14.848   9.843   8.997
26858SOL     OW82470   0.318   9.971  13.721
26858SOL    HW182471   0.393   9.933  13.675
26858SOL    HW282472   0.272   9.896  13.759
26859SOL     OW82473   2.368  12.553  13.064
26859SOL    HW182474   2.310  12.580  12.993
26859SOL    HW282475   2.455  12.584  13.037
26860SOL     OW82476   2.893  14.396   7.435
26860SOL    HW182477   2.892  14.463   7.503
26860SOL    HW282478   2.957  14.427   7.371
26861SOL     OW82479   9.701   8.987   7.055
26861SOL    HW182480   9.648   9.031   7.121
26861SOL    HW282481   9.787   8.975   7.096
26862SOL     OW82482   9.083   8.738   7.720
26862SOL    HW182483   9.018   8.800   7.688
26862SOL    HW282484   9.143   8.725   7.647
26863SOL     OW82485   4.044   8.752   8.094
26863SOL    HW182486   4.068   8.660   8.091
26863SOL    HW282487   4.016   8.767   8.184
26864SOL     OW82488   9.707   6.133  11.059
26864SOL    HW182489   9.714   6.058  11.001
26864SOL    HW282490   9.660   6.199  11.008
26865SOL     OW82491  14.319   6.250  11.095
26865SOL    HW182492  14.370   6.322  11.132
26865SOL    HW282493  14.278   6.208  11.171
26866SOL     OW82494   8.221   0.694   5.989
26866SOL    HW182495   8.211   0.618   6.047
26866SOL    HW282496   8.164   0.676   5.915
26867SOL     OW82497   7.195   5.640   8.262
26867SOL    HW182498   7.250   5.714   8.237
26867SOL    HW282499   7.107   5.678   8.270
26868SOL     OW82500   1.356   2.098   5.213
26868SOL    HW182501   1.365   2.093   5.308
26868SOL    HW282502   1.290   2.167   5.199
26869SOL     OW82503   4.133   8.802   8.814
26869SOL    HW182504   4.039   8.819   8.808
26869SOL    HW282505   4.149   8.790   8.908
26870SOL     OW82506   8.893   4.894   2.442
26870SOL    HW182507   8.934   4.858   2.521
26870SOL    HW282508   8.964   4.901   2.379
26871SOL     OW82509  10.128   4.989  12.071
26871SOL    HW182510  10.129   4.943  11.987
26871SOL    HW282511  10.168   4.927  12.132
26872SOL     OW82512  10.433  14.435   0.408
26872SOL    HW182513  10.381  14.355   0.412
26872SOL    HW282514  10.369  14.505   0.422
26873SOL     OW82515   8.532  11.734   5.277
26873SOL    HW182516   8.546  11.801   5.211
26873SOL    HW282517   8.519  11.783   5.358
26874SOL     OW82518  14.217  13.804   9.521
26874SOL    HW182519  14.169  13.815   9.439
26874SOL    HW282520  14.187  13.877   9.576
26875SOL     OW82521   6.022   6.347   9.869
26875SOL    HW182522   5.952   6.404   9.836
26875SOL    HW282523   6.097   6.366   9.813
26876SOL     OW82524   0.352   1.559  14.792
26876SOL    HW182525   0.320   1.644  14.762
26876SOL    HW282526   0.411   1.530  14.723
26877SOL     OW82527   0.426   4.900   7.576
26877SOL    HW182528   0.472   4.817   7.561
26877SOL    HW282529   0.333   4.878   7.564
26878SOL     OW82530   9.934  13.492   5.204
26878SOL    HW182531   9.976  13.575   5.228
26878SOL    HW282532   9.979  13.465   5.124
26879SOL     OW82533   0.096   6.403   2.406
26879SOL    HW182534   0.060   6.386   2.493
26879SOL    HW282535   0.162   6.471   2.420
26880SOL     OW82536   8.962  14.307   4.310
26880SOL    HW182537   8.931  14.393   4.280
26880SOL    HW282538   9.054  14.321   4.333
26881SOL     OW82539   1.183  12.843   8.453
26881SOL    HW182540   1.170  12.783   8.380
26881SOL    HW282541   1.128  12.918   8.432
26882SOL     OW82542   9.203   3.867   2.487
26882SOL    HW182543   9.190   3.838   2.397
26882SOL    HW282544   9.114   3.883   2.519
26883SOL     OW82545   6.694  10.395   0.558
26883SOL    HW182546   6.714  10.486   0.539
26883SOL    HW282547   6.645  10.364   0.481
26884SOL     OW82548  12.086  14.134   8.269
26884SOL    HW182549  12.064  14.057   8.321
26884SOL    HW282550  12.078  14.207   8.331
26885SOL     OW82551  13.702   3.822  13.119
26885SOL    HW182552  13.660   3.801  13.202
26885SOL    HW282553  13.757   3.898  13.138
26886SOL     OW82554  13.642  14.295   7.709
26886SOL    HW182555  13.707  14.364   7.713
26886SOL    HW282556  13.609  14.288   7.799
26887SOL     OW82557   5.543   3.302   0.095
26887SOL    HW182558   5.609   3.370   0.091
26887SOL    HW282559   5.517   3.298   0.187
26888SOL     OW82560   4.543   4.475   6.846
26888SOL    HW182561   4.617   4.487   6.906
26888SOL    HW282562   4.497   4.559   6.848
26889SOL     OW82563   6.165   5.682  10.266
26889SOL    HW182564   6.199   5.731  10.191
26889SOL    HW282565   6.112   5.612  10.228
26890SOL     OW82566  11.690  13.100   9.688
26890SOL    HW182567  11.760  13.073   9.628
26890SOL    HW282568  11.622  13.034   9.676
26891SOL     OW82569   2.262   3.828   8.400
26891SOL    HW182570   2.306   3.833   8.315
26891SOL    HW282571   2.217   3.912   8.408
26892SOL     OW82572   6.479  10.095   3.737
26892SOL    HW182573   6.423  10.095   3.815
26892SOL    HW282574   6.544  10.164   3.753
26893SOL     OW82575   9.777   2.375   7.802
26893SOL    HW182576   9.861   2.336   7.780
26893SOL    HW282577   9.773   2.371   7.898
26894SOL     OW82578  13.351   5.280   0.628
26894SOL    HW182579  13.319   5.319   0.709
26894SOL    HW282580  13.370   5.354   0.571
26895SOL     OW82581  13.836  13.560   3.923
26895SOL    HW182582  13.777  13.524   3.857
26895SOL    HW282583  13.903  13.607   3.873
26896SOL     OW82584   5.563   3.196   5.783
26896SOL    HW182585   5.594   3.119   5.832
26896SOL    HW282586   5.597   3.271   5.833
26897SOL     OW82587   8.818   7.527   0.983
26897SOL    HW182588   8.779   7.441   0.971
26897SOL    HW282589   8.750   7.579   1.025
26898SOL     OW82590  13.345   7.782  12.774
26898SOL    HW182591  13.392   7.713  12.821
26898SOL    HW282592  13.301   7.736  12.702
26899SOL     OW82593  11.918   2.515  14.048
26899SOL    HW182594  11.898   2.606  14.071
26899SOL    HW282595  11.975   2.485  14.120
26900SOL     OW82596   0.796  12.101   8.113
26900SOL    HW182597   0.789  12.007   8.129
26900SOL    HW282598   0.753  12.141   8.189
26901SOL     OW82599   2.977   5.232   8.367
26901SOL    HW182600   3.046   5.298   8.357
26901SOL    HW282601   2.978   5.184   8.284
26902SOL     OW82602   7.971  10.436  13.956
26902SOL    HW182603   7.931  10.364  13.906
26902SOL    HW282604   8.064  10.431  13.935
26903SOL     OW82605   1.584   5.303  10.039
26903SOL    HW182606   1.612   5.308  10.130
26903SOL    HW282607   1.543   5.388  10.022
26904SOL     OW82608  10.871   3.816  13.077
26904SOL    HW182609  10.943   3.758  13.052
26904SOL    HW282610  10.804   3.758  13.113
26905SOL     OW82611   0.370   2.635  13.539
26905SOL    HW182612   0.315   2.662  13.466
26905SOL    HW282613   0.410   2.553  13.510
26906SOL     OW82614   8.381   4.937   8.943
26906SOL    HW182615   8.399   4.953   9.035
26906SOL    HW282616   8.293   4.900   8.942
26907SOL     OW82617  10.167   7.620  12.364
26907SOL    HW182618  10.139   7.538  12.323
26907SOL    HW282619  10.260   7.607  12.382
26908SOL     OW82620   0.791   0.437   7.576
26908SOL    HW182621   0.721   0.453   7.640
26908SOL    HW282622   0.779   0.345   7.551
26909SOL     OW82623   7.268   6.681   5.338
26909SOL    HW182624   7.238   6.708   5.425
26909SOL    HW282625   7.336   6.744   5.316
26910SOL     OW82626   2.644  10.408   3.403
26910SOL    HW182627   2.605  10.393   3.490
26910SOL    HW282628   2.651  10.320   3.365
26911SOL     OW82629  10.968   3.503   7.171
26911SOL    HW182630  11.054   3.518   7.211
26911SOL    HW282631  10.909   3.560   7.220
26912SOL     OW82632   1.228   3.659   9.097
26912SOL    HW182633   1.247   3.631   9.186
26912SOL    HW282634   1.179   3.586   9.058
26913SOL     OW82635  13.580   7.085   9.335
26913SOL    HW182636  13.627   7.166   9.313
26913SOL    HW282637  13.537   7.060   9.253
26914SOL     OW82638   3.988  10.765  14.339
26914SOL    HW182639   4.060  10.725  14.388
26914SOL    HW282640   3.955  10.694  14.284
26915SOL     OW82641   1.014   0.650   2.505
26915SOL    HW182642   0.920   0.648   2.488
26915SOL    HW282643   1.033   0.565   2.546
26916SOL     OW82644   3.602   6.234  12.089
26916SOL    HW182645   3.662   6.163  12.113
26916SOL    HW282646   3.624   6.305  12.148
26917SOL     OW82647  13.563   8.021   1.337
26917SOL    HW182648  13.540   8.066   1.418
26917SOL    HW282649  13.581   7.931   1.363
26918SOL     OW82650   8.084  14.252   8.779
26918SOL    HW182651   8.096  14.342   8.749
26918SOL    HW282652   8.031  14.259   8.858
26919SOL     OW82653  11.794  14.060  10.770
26919SOL    HW182654  11.757  14.119  10.704
26919SOL    HW282655  11.722  14.000  10.791
26920SOL     OW82656   6.846   2.140   9.032
26920SOL    HW182657   6.928   2.150   9.080
26920SOL    HW282658   6.861   2.067   8.972
26921SOL     OW82659   5.808  13.500   3.036
26921SOL    HW182660   5.860  13.480   2.958
26921SOL    HW282661   5.785  13.414   3.072
26922SOL     OW82662   1.097   7.059   3.190
26922SOL    HW182663   1.144   7.092   3.113
26922SOL    HW282664   1.163   7.054   3.259
26923SOL     OW82665   8.645   8.444   9.762
26923SOL    HW182666   8.569   8.488   9.724
26923SOL    HW282667   8.704   8.515   9.786
26924SOL     OW82668   7.317   4.061   9.556
26924SOL    HW182669   7.260   4.133   9.583
26924SOL    HW282670   7.261   4.005   9.503
26925SOL     OW82671  10.860  14.218  11.046
26925SOL    HW182672  10.919  14.292  11.057
26925SOL    HW282673  10.795  14.228  11.116
26926SOL     OW82674   6.981   2.471   6.338
26926SOL    HW182675   7.021   2.391   6.304
26926SOL    HW282676   6.891   2.446   6.357
26927SOL     OW82677   7.352   3.365  10.732
26927SOL    HW182678   7.384   3.411  10.655
26927SOL    HW282679   7.364   3.272  10.712
26928SOL     OW82680  10.460   3.127   8.232
26928SOL    HW182681  10.413   3.077   8.165
26928SOL    HW282682  10.531   3.069   8.260
26929SOL     OW82683   4.538  10.076   7.218
26929SOL    HW182684   4.544  10.093   7.124
26929SOL    HW282685   4.539  10.162   7.259
26930SOL     OW82686   1.679   9.994  10.410
26930SOL    HW182687   1.631  10.074  10.387
26930SOL    HW282688   1.612   9.933  10.439
26931SOL     OW82689   5.070   2.995   4.405
26931SOL    HW182690   4.984   3.037   4.403
26931SOL    HW282691   5.125   3.056   4.454
26932SOL     OW82692  13.842  11.363   4.611
26932SOL    HW182693  13.801  11.284   4.575
26932SOL    HW282694  13.875  11.336   4.696
26933SOL     OW82695   3.004   3.496  11.930
26933SOL    HW182696   3.024   3.515  11.838
26933SOL    HW282697   3.049   3.414  11.948
26934SOL     OW82698   0.822   5.841   2.043
26934SOL    HW182699   0.871   5.794   2.110
26934SOL    HW282700   0.734   5.802   2.046
26935SOL     OW82701   0.169   3.726   9.851
26935SOL    HW182702   0.203   3.750   9.937
26935SOL    HW282703   0.116   3.801   9.824
26936SOL     OW82704   8.760  11.855  10.203
26936SOL    HW182705   8.765  11.784  10.267
26936SOL    HW282706   8.839  11.844  10.149
26937SOL     OW82707  11.939   6.113   7.419
26937SOL    HW182708  11.922   6.201   7.387
26937SOL    HW282709  11.855   6.084   7.456
26938SOL     OW82710   7.934   7.970   6.853
26938SOL    HW182711   8.000   8.019   6.903
26938SOL    HW282712   7.941   7.880   6.886
26939SOL     OW82713   4.739   7.011  12.114
26939SOL    HW182714   4.666   7.073  12.114
26939SOL    HW282715   4.737   6.971  12.027
26940SOL     OW82716  14.232   4.803   5.416
26940SOL    HW182717  14.165   4.853   5.462
26940SOL    HW282718  14.257   4.858   5.342
26941SOL     OW82719   5.371   6.284  14.554
26941SOL    HW182720   5.460   6.314  14.569
26941SOL    HW282721   5.344   6.246  14.637
26942SOL     OW82722   0.727  10.683  10.904
26942SOL    HW182723   0.697  10.774  10.908
26942SOL    HW282724   0.749  10.669  10.812
26943SOL     OW82725  14.607   0.749  10.175
26943SOL    HW182726  14.698   0.775  10.191
26943SOL    HW282727  14.557   0.800  10.238
26944SOL     OW82728   8.691   3.448   1.722
26944SOL    HW182729   8.607   3.469   1.762
26944SOL    HW282730   8.723   3.531   1.687
26945SOL     OW82731  11.346   2.572  12.341
26945SOL    HW182732  11.300   2.511  12.399
26945SOL    HW282733  11.417   2.608  12.394
26946SOL     OW82734   9.533   2.779   2.662
26946SOL    HW182735   9.469   2.823   2.717
26946SOL    HW282736   9.490   2.769   2.577
26947SOL     OW82737   9.301  12.776  10.212
26947SOL    HW182738   9.369  12.750  10.149
26947SOL    HW282739   9.236  12.705  10.208
26948SOL     OW82740  10.040   7.924   4.472
26948SOL    HW182741  10.072   7.863   4.407
26948SOL    HW282742  10.074   7.890   4.555
26949SOL     OW82743   9.142   9.958   1.197
26949SOL    HW182744   9.172  10.019   1.264
26949SOL    HW282745   9.168   9.998   1.114
26950SOL     OW82746   6.541  11.287   2.169
26950SOL    HW182747   6.539  11.336   2.087
26950SOL    HW282748   6.455  11.301   2.208
26951SOL     OW82749   5.862  12.744  11.443
26951SOL    HW182750   5.866  12.724  11.536
26951SOL    HW282751   5.863  12.659  11.400
26952SOL     OW82752   2.324  11.107   6.695
26952SOL    HW182753   2.323  11.053   6.774
26952SOL    HW282754   2.354  11.193   6.724
26953SOL     OW82755   2.320   8.753   2.008
26953SOL    HW182756   2.407   8.745   2.047
26953SOL    HW282757   2.316   8.843   1.976
26954SOL     OW82758   2.765   7.821   5.626
26954SOL    HW182759   2.801   7.889   5.569
26954SOL    HW282760   2.841   7.788   5.675
26955SOL     OW82761   3.405  14.296   9.476
26955SOL    HW182762   3.500  14.285   9.468
26955SOL    HW282763   3.387  14.380   9.434
26956SOL     OW82764   5.154   9.570  10.773
26956SOL    HW182765   5.161   9.617  10.690
26956SOL    HW282766   5.240   9.581  10.814
26957SOL     OW82767  11.171   0.763   9.987
26957SOL    HW182768  11.109   0.741  10.057
26957SOL    HW282769  11.147   0.705   9.915
26958SOL     OW82770   7.367   4.829   2.363
26958SOL    HW182771   7.338   4.738   2.362
26958SOL    HW282772   7.363   4.854   2.455
26959SOL     OW82773  12.816   6.540  13.044
26959SOL    HW182774  12.723   6.564  13.046
26959SOL    HW282775  12.836   6.511  13.133
26960SOL     OW82776   7.246   9.346  14.621
26960SOL    HW182777   7.280   9.360  14.709
26960SOL    HW282778   7.236   9.251  14.614
26961SOL     OW82779   2.932   4.914  10.155
26961SOL    HW182780   2.964   4.850  10.092
26961SOL    HW282781   2.912   4.991  10.102
26962SOL     OW82782  10.787   8.621   7.951
26962SOL    HW182783  10.741   8.600   8.032
26962SOL    HW282784  10.807   8.715   7.959
26963SOL     OW82785   6.315   9.150   7.578
26963SOL    HW182786   6.405   9.147   7.545
26963SOL    HW282787   6.323   9.180   7.668
26964SOL     OW82788   9.368   4.529   7.551
26964SOL    HW182789   9.326   4.460   7.500
26964SOL    HW282790   9.301   4.554   7.615
26965SOL     OW82791  14.106   9.283   1.832
26965SOL    HW182792  14.097   9.262   1.925
26965SOL    HW282793  14.029   9.336   1.812
26966SOL     OW82794   9.851   8.171   4.950
26966SOL    HW182795   9.908   8.150   4.876
26966SOL    HW282796   9.909   8.205   5.017
26967SOL     OW82797  12.603   1.693   5.382
26967SOL    HW182798  12.620   1.786   5.363
26967SOL    HW282799  12.581   1.656   5.297
26968SOL     OW82800  13.743  13.494   4.556
26968SOL    HW182801  13.798  13.555   4.508
26968SOL    HW282802  13.804  13.442   4.608
26969SOL     OW82803   4.577   6.533   0.616
26969SOL    HW182804   4.527   6.529   0.535
26969SOL    HW282805   4.664   6.500   0.593
26970SOL     OW82806   3.338   4.743  10.454
26970SOL    HW182807   3.350   4.654  10.487
26970SOL    HW282808   3.416   4.790  10.485
26971SOL     OW82809   5.608   2.386   4.468
26971SOL    HW182810   5.700   2.377   4.495
26971SOL    HW282811   5.564   2.313   4.512
26972SOL     OW82812  13.212  10.443   2.668
26972SOL    HW182813  13.217  10.539   2.669
26972SOL    HW282814  13.173  10.422   2.583
26973SOL     OW82815   8.261  12.435  13.531
26973SOL    HW182816   8.214  12.444  13.614
26973SOL    HW282817   8.349  12.410  13.556
26974SOL     OW82818   3.199  10.094  12.443
26974SOL    HW182819   3.259  10.129  12.509
26974SOL    HW282820   3.190  10.001  12.467
26975SOL     OW82821   3.523  11.746   5.513
26975SOL    HW182822   3.451  11.804   5.533
26975SOL    HW282823   3.488  11.686   5.447
26976SOL     OW82824   0.697   8.576   7.887
26976SOL    HW182825   0.635   8.642   7.858
26976SOL    HW282826   0.656   8.537   7.964
26977SOL     OW82827   6.800  13.073   4.427
26977SOL    HW182828   6.841  13.022   4.497
26977SOL    HW282829   6.732  13.123   4.471
26978SOL     OW82830  11.008   3.268   3.573
26978SOL    HW182831  10.983   3.190   3.622
26978SOL    HW282832  10.926   3.317   3.562
26979SOL     OW82833   4.369   6.606   7.396
26979SOL    HW182834   4.396   6.654   7.474
26979SOL    HW282835   4.422   6.526   7.399
26980SOL     OW82836  13.659  11.338   6.399
26980SOL    HW182837  13.701  11.305   6.478
26980SOL    HW282838  13.725  11.393   6.358
26981SOL     OW82839   0.859  11.255   7.543
26981SOL    HW182840   0.810  11.177   7.515
26981SOL    HW282841   0.951  11.232   7.528
26982SOL     OW82842   4.649   5.438   8.799
26982SOL    HW182843   4.653   5.408   8.890
26982SOL    HW282844   4.713   5.385   8.753
26983SOL     OW82845   1.821   6.889   6.905
26983SOL    HW182846   1.814   6.794   6.893
26983SOL    HW282847   1.857   6.921   6.823
26984SOL     OW82848   1.801   7.949   4.895
26984SOL    HW182849   1.779   8.029   4.847
26984SOL    HW282850   1.857   7.979   4.967
26985SOL     OW82851   8.313   1.247   6.205
26985SOL    HW182852   8.285   1.191   6.277
26985SOL    HW282853   8.244   1.313   6.198
26986SOL     OW82854   7.632   2.166   1.929
26986SOL    HW182855   7.710   2.197   1.882
26986SOL    HW282856   7.663   2.148   2.018
26987SOL     OW82857  13.946   6.681  12.818
26987SOL    HW182858  13.917   6.672  12.909
26987SOL    HW282859  13.928   6.595  12.779
26988SOL     OW82860   0.150   0.544  14.221
26988SOL    HW182861   0.070   0.587  14.251
26988SOL    HW282862   0.211   0.616  14.205
26989SOL     OW82863   7.291  12.584   8.546
26989SOL    HW182864   7.316  12.559   8.635
26989SOL    HW282865   7.365  12.557   8.491
26990SOL     OW82866  11.780   3.671   2.522
26990SOL    HW182867  11.693   3.708   2.536
26990SOL    HW282868  11.764   3.581   2.495
26991SOL     OW82869  11.690  14.242  12.534
26991SOL    HW182870  11.753  14.302  12.573
26991SOL    HW282871  11.728  14.219  12.449
26992SOL     OW82872   5.377  12.441   0.735
26992SOL    HW182873   5.458  12.401   0.704
26992SOL    HW282874   5.406  12.510   0.794
26993SOL     OW82875   5.356   2.358  14.148
26993SOL    HW182876   5.358   2.263  14.159
26993SOL    HW282877   5.312   2.391  14.226
26994SOL     OW82878  14.536   0.792   5.725
26994SOL    HW182879  14.476   0.826   5.658
26994SOL    HW282880  14.600   0.741   5.675
26995SOL     OW82881   9.855   8.553   9.193
26995SOL    HW182882   9.851   8.461   9.220
26995SOL    HW282883   9.947   8.567   9.172
26996SOL     OW82884   0.941  10.152   1.135
26996SOL    HW182885   0.928  10.059   1.150
26996SOL    HW282886   0.904  10.195   1.212
26997SOL     OW82887   8.418  14.159   7.047
26997SOL    HW182888   8.348  14.094   7.054
26997SOL    HW282889   8.374  14.240   7.022
26998SOL     OW82890   4.229  13.685   1.082
26998SOL    HW182891   4.307  13.698   1.027
26998SOL    HW282892   4.157  13.677   1.020
26999SOL     OW82893  10.995   8.399   2.818
26999SOL    HW182894  11.037   8.477   2.781
26999SOL    HW282895  10.998   8.412   2.913
27000SOL     OW82896  10.031   4.125  11.449
27000SOL    HW182897   9.956   4.120  11.389
27000SOL    HW282898  10.100   4.167  11.397
27001SOL     OW82899   6.940   6.611   1.308
27001SOL    HW182900   6.983   6.675   1.251
27001SOL    HW282901   6.997   6.605   1.384
27002SOL     OW82902  13.366  13.929  12.937
27002SOL    HW182903  13.438  13.922  12.875
27002SOL    HW282904  13.288  13.905  12.886
27003SOL     OW82905   8.631   6.338  13.425
27003SOL    HW182906   8.699   6.402  13.405
27003SOL    HW282907   8.606   6.356  13.515
27004SOL     OW82908   1.806   9.631   8.114
27004SOL    HW182909   1.859   9.584   8.050
27004SOL    HW282910   1.863   9.701   8.146
27005SOL     OW82911   9.001   3.856  12.991
27005SOL    HW182912   8.933   3.798  13.026
27005SOL    HW282913   9.055   3.878  13.066
27006SOL     OW82914  10.687   0.379   9.302
27006SOL    HW182915  10.606   0.362   9.350
27006SOL    HW282916  10.751   0.321   9.343
27007SOL     OW82917   9.109   5.114   4.954
27007SOL    HW182918   9.051   5.158   4.892
27007SOL    HW282919   9.085   5.021   4.949
27008SOL     OW82920   8.726  12.145   8.870
27008SOL    HW182921   8.816  12.169   8.894
27008SOL    HW282922   8.692  12.099   8.946
27009SOL     OW82923   6.819   3.235  10.396
27009SOL    HW182924   6.834   3.187  10.315
27009SOL    HW282925   6.795   3.323  10.367
27010SOL     OW82926  12.365  13.869   4.097
27010SOL    HW182927  12.395  13.920   4.172
27010SOL    HW282928  12.419  13.899   4.024
27011SOL     OW82929   7.443   2.167   1.082
27011SOL    HW182930   7.391   2.087   1.082
27011SOL    HW282931   7.441   2.196   1.173
27012SOL     OW82932  13.011   5.006  12.770
27012SOL    HW182933  13.021   5.019  12.676
27012SOL    HW282934  13.049   4.920  12.787
27013SOL     OW82935   7.138   3.730   2.920
27013SOL    HW182936   7.229   3.731   2.950
27013SOL    HW282937   7.108   3.819   2.932
27014SOL     OW82938  10.973   6.407   5.620
27014SOL    HW182939  10.958   6.438   5.710
27014SOL    HW282940  10.908   6.337   5.608
27015SOL     OW82941   3.163   2.301   9.893
27015SOL    HW182942   3.162   2.395   9.910
27015SOL    HW282943   3.234   2.290   9.829
27016SOL     OW82944   5.121   2.294  14.484
27016SOL    HW182945   5.214   2.303  14.507
27016SOL    HW282946   5.083   2.380  14.503
27017SOL     OW82947  11.476  13.911   6.359
27017SOL    HW182948  11.496  13.840   6.298
27017SOL    HW282949  11.552  13.915   6.417
27018SOL     OW82950  13.841  11.383   0.800
27018SOL    HW182951  13.893  11.325   0.743
27018SOL    HW282952  13.784  11.323   0.848
27019SOL     OW82953  14.082   3.186  11.835
27019SOL    HW182954  14.131   3.215  11.913
27019SOL    HW282955  14.065   3.266  11.787
27020SOL     OW82956   6.205   3.182  11.799
27020SOL    HW182957   6.126   3.214  11.756
27020SOL    HW282958   6.203   3.087  11.785
27021SOL     OW82959   8.373   5.023   7.739
27021SOL    HW182960   8.281   4.998   7.751
27021SOL    HW282961   8.418   4.939   7.724
27022SOL     OW82962  10.282  12.041   7.466
27022SOL    HW182963  10.328  12.013   7.387
27022SOL    HW282964  10.345  12.095   7.513
27023SOL     OW82965  13.429  13.128   2.241
27023SOL    HW182966  13.519  13.156   2.228
27023SOL    HW282967  13.427  13.094   2.331
27024SOL     OW82968   7.797   4.736   7.908
27024SOL    HW182969   7.856   4.753   7.982
27024SOL    HW282970   7.724   4.688   7.947
27025SOL     OW82971   7.640   4.394   4.873
27025SOL    HW182972   7.549   4.424   4.881
27025SOL    HW282973   7.675   4.401   4.962
27026SOL     OW82974   9.374   8.231  10.520
27026SOL    HW182975   9.452   8.206  10.471
27026SOL    HW282976   9.301   8.196  10.469
27027SOL     OW82977  12.507  13.431  14.617
27027SOL    HW182978  12.578  13.381  14.656
27027SOL    HW282979  12.459  13.468  14.691
27028SOL     OW82980  11.810   4.708  10.673
27028SOL    HW182981  11.843   4.722  10.584
27028SOL    HW282982  11.885   4.673  10.721
27029SOL     OW82983   7.376  14.084  14.248
27029SOL    HW182984   7.314  14.156  14.261
27029SOL    HW282985   7.322  14.014  14.212
27030SOL     OW82986   2.375  11.684   3.953
27030SOL    HW182987   2.324  11.614   3.994
27030SOL    HW282988   2.465  11.652   3.955
27031SOL     OW82989  11.833   2.712   3.068
27031SOL    HW182990  11.771   2.682   3.002
27031SOL    HW282991  11.860   2.633   3.115
27032SOL     OW82992   4.615  14.800  10.135
27032SOL    HW182993   4.610  14.706  10.121
27032SOL    HW282994   4.527  14.832  10.115
27033SOL     OW82995   9.568   0.495   0.439
27033SOL    HW182996   9.599   0.555   0.507
27033SOL    HW282997   9.648   0.455   0.404
27034SOL     OW82998   5.012   9.974   8.019
27034SOL    HW182999   4.972   9.961   7.933
27034SOL    HW283000   5.040   9.887   8.046
27035SOL     OW83001  12.406   7.786   7.347
27035SOL    HW183002  12.335   7.849   7.358
27035SOL    HW283003  12.382   7.737   7.268
27036SOL     OW83004   5.738   5.366  13.825
27036SOL    HW183005   5.759   5.343  13.915
27036SOL    HW283006   5.819   5.349  13.777
27037SOL     OW83007   4.452  13.434   9.730
27037SOL    HW183008   4.506  13.443   9.651
27037SOL    HW283009   4.363  13.422   9.696
27038SOL     OW83010   6.963   6.709  10.707
27038SOL    HW183011   6.876   6.684  10.741
27038SOL    HW283012   6.944   6.756  10.626
27039SOL     OW83013   1.245   7.445  14.035
27039SOL    HW183014   1.169   7.390  14.014
27039SOL    HW283015   1.208   7.531  14.054
27040SOL     OW83016  10.843  10.800   8.468
27040SOL    HW183017  10.896  10.828   8.394
27040SOL    HW283018  10.758  10.841   8.453
27041SOL     OW83019  12.323   1.214   2.217
27041SOL    HW183020  12.257   1.167   2.268
27041SOL    HW283021  12.272   1.275   2.163
27042SOL     OW83022   4.593  12.211   0.578
27042SOL    HW183023   4.632  12.124   0.564
27042SOL    HW283024   4.664  12.272   0.558
27043SOL     OW83025   0.369  10.510   9.854
27043SOL    HW183026   0.426  10.578   9.818
27043SOL    HW283027   0.330  10.467   9.777
27044SOL     OW83028   3.596  12.622   6.105
27044SOL    HW183029   3.563  12.579   6.026
27044SOL    HW283030   3.683  12.583   6.118
27045SOL     OW83031   6.415   0.236   5.892
27045SOL    HW183032   6.502   0.257   5.859
27045SOL    HW283033   6.386   0.161   5.839
27046SOL     OW83034   6.401   5.404   2.176
27046SOL    HW183035   6.463   5.379   2.107
27046SOL    HW283036   6.316   5.402   2.134
27047SOL     OW83037   3.727   6.138   1.088
27047SOL    HW183038   3.796   6.087   1.046
27047SOL    HW283039   3.723   6.220   1.039
27048SOL     OW83040   3.133   6.994  14.190
27048SOL    HW183041   3.071   7.065  14.177
27048SOL    HW283042   3.144   6.988  14.285
27049SOL     OW83043   3.413   1.598  13.289
27049SOL    HW183044   3.394   1.563  13.202
27049SOL    HW283045   3.429   1.691  13.275
27050SOL     OW83046   9.271   4.295   2.857
27050SOL    HW183047   9.351   4.280   2.806
27050SOL    HW283048   9.302   4.312   2.946
27051SOL     OW83049   9.297  12.355   5.808
27051SOL    HW183050   9.307  12.282   5.870
27051SOL    HW283051   9.325  12.319   5.724
27052SOL     OW83052  13.597   1.134  13.241
27052SOL    HW183053  13.671   1.084  13.207
27052SOL    HW283054  13.637   1.211  13.281
27053SOL     OW83055   9.240   7.225   2.027
27053SOL    HW183056   9.243   7.176   1.945
27053SOL    HW283057   9.234   7.316   2.000
27054SOL     OW83058   3.536   3.314   5.533
27054SOL    HW183059   3.526   3.312   5.628
27054SOL    HW283060   3.479   3.386   5.504
27055SOL     OW83061   3.834   2.929   0.056
27055SOL    HW183062   3.787   2.857   0.013
27055SOL    HW283063   3.842   2.902   0.147
27056SOL     OW83064   8.647   7.762   0.069
27056SOL    HW183065   8.640   7.845   0.022
27056SOL    HW283066   8.564   7.718   0.052
27057SOL     OW83067   0.682   6.007   0.475
27057SOL    HW183068   0.738   6.018   0.398
27057SOL    HW283069   0.636   6.091   0.483
27058SOL     OW83070   4.908  12.520   5.448
27058SOL    HW183071   4.972  12.457   5.416
27058SOL    HW283072   4.850  12.470   5.505
27059SOL     OW83073   7.852   9.337   7.740
27059SOL    HW183074   7.908   9.400   7.696
27059SOL    HW283075   7.798   9.300   7.671
27060SOL     OW83076   0.877  11.030  11.083
27060SOL    HW183077   0.885  10.938  11.109
27060SOL    HW283078   0.960  11.050  11.040
27061SOL     OW83079   8.098   5.662   6.280
27061SOL    HW183080   8.068   5.663   6.189
27061SOL    HW283081   8.170   5.724   6.282
27062SOL     OW83082   9.634   0.806  11.270
27062SOL    HW183083   9.660   0.841  11.185
27062SOL    HW283084   9.550   0.848  11.288
27063SOL     OW83085   2.137  13.935  10.708
27063SOL    HW183086   2.170  13.983  10.784
27063SOL    HW283087   2.162  13.989  10.633
27064SOL     OW83088   4.180   0.503   0.505
27064SOL    HW183089   4.100   0.499   0.558
27064SOL    HW283090   4.159   0.452   0.427
27065SOL     OW83091   5.496   1.816   9.170
27065SOL    HW183092   5.423   1.832   9.230
27065SOL    HW283093   5.541   1.900   9.164
27066SOL     OW83094   8.175  12.220   2.310
27066SOL    HW183095   8.170  12.139   2.361
27066SOL    HW283096   8.235  12.199   2.238
27067SOL     OW83097   3.836   8.476   0.253
27067SOL    HW183098   3.809   8.495   0.343
27067SOL    HW283099   3.893   8.400   0.261
27068SOL     OW83100   8.830  10.362   4.106
27068SOL    HW183101   8.906  10.356   4.164
27068SOL    HW283102   8.859  10.319   4.025
27069SOL     OW83103   8.511   9.679   3.454
27069SOL    HW183104   8.449   9.617   3.416
27069SOL    HW283105   8.562   9.627   3.516
27070SOL     OW83106   3.157   6.438   7.969
27070SOL    HW183107   3.118   6.499   8.032
27070SOL    HW283108   3.228   6.396   8.017
27071SOL     OW83109   5.103   3.670   0.830
27071SOL    HW183110   5.137   3.651   0.743
27071SOL    HW283111   5.164   3.629   0.891
27072SOL     OW83112   7.742  11.132   5.095
27072SOL    HW183113   7.757  11.150   5.002
27072SOL    HW283114   7.722  11.038   5.099
27073SOL     OW83115  13.298   8.917   5.250
27073SOL    HW183116  13.393   8.925   5.249
27073SOL    HW283117  13.272   8.932   5.159
27074SOL     OW83118   4.224   8.515   9.509
27074SOL    HW183119   4.151   8.473   9.555
27074SOL    HW283120   4.265   8.444   9.459
27075SOL     OW83121   3.670   8.440   3.415
27075SOL    HW183122   3.582   8.472   3.394
27075SOL    HW283123   3.659   8.346   3.432
27076SOL     OW83124  12.912   7.709   2.478
27076SOL    HW183125  12.921   7.617   2.502
27076SOL    HW283126  12.987   7.727   2.422
27077SOL     OW83127  10.530  11.916   1.339
27077SOL    HW183128  10.571  11.998   1.311
27077SOL    HW283129  10.596  11.874   1.393
27078SOL     OW83130  13.299   3.818  11.338
27078SOL    HW183131  13.239   3.850  11.270
27078SOL    HW283132  13.340   3.897  11.372
27079SOL     OW83133   4.480  13.030   3.506
27079SOL    HW183134   4.492  12.979   3.426
27079SOL    HW283135   4.466  12.964   3.574
27080SOL     OW83136   9.712   3.510   1.748
27080SOL    HW183137   9.695   3.490   1.656
27080SOL    HW283138   9.722   3.605   1.751
27081SOL     OW83139  10.162   3.665  11.796
27081SOL    HW183140  10.112   3.606  11.852
27081SOL    HW283141  10.210   3.608  11.736
27082SOL     OW83142   5.952  12.900   2.166
27082SOL    HW183143   5.921  12.809   2.167
27082SOL    HW283144   5.953  12.925   2.074
27083SOL     OW83145   9.062   6.963  12.518
27083SOL    HW183146   9.119   7.002  12.584
27083SOL    HW283147   9.006   7.035  12.489
27084SOL     OW83148   3.324   7.237   7.135
27084SOL    HW183149   3.318   7.171   7.204
27084SOL    HW283150   3.380   7.196   7.068
27085SOL     OW83151  10.950   8.743  10.882
27085SOL    HW183152  11.029   8.783  10.847
27085SOL    HW283153  10.980   8.662  10.922
27086SOL     OW83154   7.582   0.926  10.411
27086SOL    HW183155   7.603   0.968  10.328
27086SOL    HW283156   7.539   0.844  10.386
27087SOL     OW83157   5.284   2.604   4.696
27087SOL    HW183158   5.298   2.578   4.787
27087SOL    HW283159   5.360   2.656   4.673
27088SOL     OW83160  12.351   8.716  14.729
27088SOL    HW183161  12.405   8.788  14.698
27088SOL    HW283162  12.294   8.756  14.795
27089SOL     OW83163   2.968   6.928   2.170
27089SOL    HW183164   2.929   7.008   2.134
27089SOL    HW283165   2.893   6.873   2.193
27090SOL     OW83166   7.502  14.613  11.125
27090SOL    HW183167   7.445  14.626  11.201
27090SOL    HW283168   7.547  14.531  11.142
27091SOL     OW83169   9.584   7.227  12.277
27091SOL    HW183170   9.612   7.147  12.232
27091SOL    HW283171   9.488   7.224  12.273
27092SOL     OW83172   1.626   6.983  13.152
27092SOL    HW183173   1.597   6.979  13.061
27092SOL    HW283174   1.657   6.894  13.171
27093SOL     OW83175   4.181   3.750  14.562
27093SOL    HW183176   4.222   3.664  14.565
27093SOL    HW283177   4.137   3.753  14.477
27094SOL     OW83178  12.189  12.759   8.005
27094SOL    HW183179  12.223  12.683   7.957
27094SOL    HW283180  12.222  12.748   8.094
27095SOL     OW83181   3.858   1.586  12.530
27095SOL    HW183182   3.772   1.626  12.526
27095SOL    HW283183   3.854   1.527  12.605
27096SOL     OW83184   9.455  14.614   3.883
27096SOL    HW183185   9.455  14.695   3.833
27096SOL    HW283186   9.509  14.632   3.960
27097SOL     OW83187  11.629   1.742  13.554
27097SOL    HW183188  11.534   1.729  13.556
27097SOL    HW283189  11.663   1.659  13.521
27098SOL     OW83190   5.203   6.577   0.856
27098SOL    HW183191   5.212   6.482   0.866
27098SOL    HW283192   5.110   6.594   0.872
27099SOL     OW83193  10.141   4.923  11.754
27099SOL    HW183194  10.128   4.829  11.772
27099SOL    HW283195  10.236   4.934  11.752
27100SOL     OW83196   7.879   0.212  11.447
27100SOL    HW183197   7.847   0.133  11.405
27100SOL    HW283198   7.855   0.202  11.539
27101SOL     OW83199  11.222   4.980   0.432
27101SOL    HW183200  11.134   5.007   0.460
27101SOL    HW283201  11.206   4.921   0.357
27102SOL     OW83202   8.007   3.760   3.551
27102SOL    HW183203   7.933   3.820   3.566
27102SOL    HW283204   8.033   3.778   3.461
27103SOL     OW83205   1.655   5.012   0.958
27103SOL    HW183206   1.688   4.989   0.871
27103SOL    HW283207   1.733   5.018   1.012
27104SOL     OW83208  10.732  12.867   6.067
27104SOL    HW183209  10.762  12.941   6.121
27104SOL    HW283210  10.676  12.908   6.000
27105SOL     OW83211   3.719   4.684  13.075
27105SOL    HW183212   3.698   4.715  12.987
27105SOL    HW283213   3.795   4.627  13.062
27106SOL     OW83214   3.089   2.600   2.676
27106SOL    HW183215   3.032   2.619   2.751
27106SOL    HW283216   3.091   2.504   2.672
27107SOL     OW83217  10.524  10.632  11.681
27107SOL    HW183218  10.556  10.705  11.628
27107SOL    HW283219  10.471  10.580  11.621
27108SOL     OW83220   7.653   5.857  14.046
27108SOL    HW183221   7.675   5.868  14.139
27108SOL    HW283222   7.702   5.927  14.002
27109SOL     OW83223   5.125   2.179   3.189
27109SOL    HW183224   5.220   2.170   3.195
27109SOL    HW283225   5.103   2.152   3.100
27110SOL     OW83226   8.894  11.377  12.309
27110SOL    HW183227   8.946  11.449  12.344
27110SOL    HW283228   8.877  11.402  12.218
27111SOL     OW83229   0.843   2.144   0.270
27111SOL    HW183230   0.932   2.119   0.244
27111SOL    HW283231   0.797   2.061   0.281
27112SOL     OW83232  13.438   3.621   0.624
27112SOL    HW183233  13.431   3.707   0.666
27112SOL    HW283234  13.351   3.605   0.588
27113SOL     OW83235   1.670  11.616   5.967
27113SOL    HW183236   1.739  11.651   6.024
27113SOL    HW283237   1.703  11.632   5.878
27114SOL     OW83238   4.016   1.048   0.688
27114SOL    HW183239   4.064   0.986   0.633
27114SOL    HW283240   4.067   1.129   0.683
27115SOL     OW83241   2.286   6.372  10.052
27115SOL    HW183242   2.349   6.300  10.061
27115SOL    HW283243   2.203   6.333  10.080
27116SOL     OW83244   5.443  10.408   0.495
27116SOL    HW183245   5.377  10.463   0.452
27116SOL    HW283246   5.425  10.320   0.461
27117SOL     OW83247   4.817   9.175  14.818
27117SOL    HW183248   4.882   9.204   0.014
27117SOL    HW283249   4.867   9.131  14.750
27118SOL     OW83250   5.779   9.695   8.997
27118SOL    HW183251   5.715   9.688   9.068
27118SOL    HW283252   5.800   9.788   8.992
27119SOL     OW83253   7.806   0.525   7.127
27119SOL    HW183254   7.846   0.480   7.052
27119SOL    HW283255   7.769   0.455   7.179
27120SOL     OW83256   7.655  12.804   9.938
27120SOL    HW183257   7.718  12.867   9.903
27120SOL    HW283258   7.601  12.779   9.863
27121SOL     OW83259   2.610   8.663  10.059
27121SOL    HW183260   2.641   8.618  10.137
27121SOL    HW283261   2.573   8.594  10.005
27122SOL     OW83262   3.696   9.029   3.868
27122SOL    HW183263   3.738   9.113   3.886
27122SOL    HW283264   3.769   8.971   3.847
27123SOL     OW83265   5.076  12.802   1.319
27123SOL    HW183266   5.030  12.871   1.272
27123SOL    HW283267   5.031  12.794   1.403
27124SOL     OW83268   4.812   7.450  14.445
27124SOL    HW183269   4.840   7.372  14.399
27124SOL    HW283270   4.888   7.508  14.443
27125SOL     OW83271  13.695   7.585   2.695
27125SOL    HW183272  13.756   7.514   2.676
27125SOL    HW283273  13.636   7.586   2.620
27126SOL     OW83274  13.863   0.564   2.451
27126SOL    HW183275  13.863   0.588   2.543
27126SOL    HW283276  13.911   0.481   2.447
27127SOL     OW83277  11.663   0.370   7.164
27127SOL    HW183278  11.655   0.317   7.085
27127SOL    HW283279  11.585   0.348   7.215
27128SOL     OW83280   0.754   9.400   4.413
27128SOL    HW183281   0.751   9.494   4.433
27128SOL    HW283282   0.694   9.389   4.339
27129SOL     OW83283   5.776   2.803  12.361
27129SOL    HW183284   5.842   2.868  12.386
27129SOL    HW283285   5.706   2.854  12.320
27130SOL     OW83286   5.961   2.698   2.832
27130SOL    HW183287   6.052   2.680   2.808
27130SOL    HW283288   5.950   2.791   2.814
27131SOL     OW83289   2.064  14.701   1.391
27131SOL    HW183290   2.079  14.617   1.434
27131SOL    HW283291   2.152  14.740   1.384
27132SOL     OW83292   7.650   4.739  12.299
27132SOL    HW183293   7.705   4.662  12.283
27132SOL    HW283294   7.589   4.711  12.367
27133SOL     OW83295   1.133   4.812   3.736
27133SOL    HW183296   1.225   4.838   3.746
27133SOL    HW283297   1.117   4.817   3.642
27134SOL     OW83298   5.316  10.549   9.396
27134SOL    HW183299   5.368  10.628   9.381
27134SOL    HW283300   5.367  10.498   9.458
27135SOL     OW83301   9.974  11.732  12.450
27135SOL    HW183302   9.971  11.699  12.539
27135SOL    HW283303   9.888  11.713  12.413
27136SOL     OW83304   4.325   6.031   2.972
27136SOL    HW183305   4.376   6.096   3.021
27136SOL    HW283306   4.335   5.950   3.021
27137SOL     OW83307   2.103   1.981   9.775
27137SOL    HW183308   2.012   1.973   9.803
27137SOL    HW283309   2.114   2.075   9.760
27138SOL     OW83310  10.989   9.518   8.901
27138SOL    HW183311  10.931   9.483   8.969
27138SOL    HW283312  11.076   9.487   8.927
27139SOL     OW83313  14.088  12.666  13.602
27139SOL    HW183314  14.022  12.643  13.536
27139SOL    HW283315  14.129  12.745  13.567
27140SOL     OW83316  10.578   2.585  12.209
27140SOL    HW183317  10.666   2.566  12.243
27140SOL    HW283318  10.576   2.680  12.201
27141SOL     OW83319   4.056   3.307   5.521
27141SOL    HW183320   3.972   3.338   5.489
27141SOL    HW283321   4.035   3.229   5.573
27142SOL     OW83322   4.857  10.185  10.373
27142SOL    HW183323   4.861  10.271  10.332
27142SOL    HW283324   4.947  10.168  10.401
27143SOL     OW83325   3.349   7.858   9.274
27143SOL    HW183326   3.422   7.920   9.273
27143SOL    HW283327   3.355   7.812   9.190
27144SOL     OW83328   8.679   2.382   0.218
27144SOL    HW183329   8.605   2.381   0.157
27144SOL    HW283330   8.648   2.333   0.295
27145SOL     OW83331   7.664  13.398  11.703
27145SOL    HW183332   7.652  13.490  11.680
27145SOL    HW283333   7.610  13.351  11.639
27146SOL     OW83334   5.294   3.961   6.620
27146SOL    HW183335   5.272   4.016   6.695
27146SOL    HW283336   5.306   4.022   6.547
27147SOL     OW83337   1.328   5.655  13.744
27147SOL    HW183338   1.348   5.720  13.676
27147SOL    HW283339   1.386   5.581  13.724
27148SOL     OW83340   6.100   7.444  13.988
27148SOL    HW183341   6.116   7.515  14.050
27148SOL    HW283342   6.096   7.487  13.903
27149SOL     OW83343  12.368  14.272   8.543
27149SOL    HW183344  12.318  14.324   8.480
27149SOL    HW283345  12.302  14.228   8.596
27150SOL     OW83346   5.690  12.469   8.344
27150SOL    HW183347   5.748  12.397   8.368
27150SOL    HW283348   5.739  12.548   8.369
27151SOL     OW83349  10.353   6.057   1.553
27151SOL    HW183350  10.403   6.055   1.472
27151SOL    HW283351  10.397   6.123   1.607
27152SOL     OW83352  14.782   6.318   1.246
27152SOL    HW183353  14.804   6.304   1.154
27152SOL    HW283354  14.768   6.230   1.281
27153SOL     OW83355   7.379   8.751  14.610
27153SOL    HW183356   7.352   8.843  14.612
27153SOL    HW283357   7.430   8.743  14.529
27154SOL     OW83358   0.988   6.245   9.863
27154SOL    HW183359   0.990   6.318   9.801
27154SOL    HW283360   0.898   6.214   9.860
27155SOL     OW83361   9.744  11.686  10.581
27155SOL    HW183362   9.817  11.644  10.625
27155SOL    HW283363   9.666  11.652  10.625
27156SOL     OW83364   6.311   4.468   3.200
27156SOL    HW183365   6.290   4.552   3.243
27156SOL    HW283366   6.296   4.484   3.107
27157SOL     OW83367  12.924   1.369   4.440
27157SOL    HW183368  12.898   1.437   4.502
27157SOL    HW283369  13.012   1.395   4.412
27158SOL     OW83370   2.086   0.039  12.007
27158SOL    HW183371   2.077  14.815  12.032
27158SOL    HW283372   2.064   0.088  12.086
27159SOL     OW83373   7.764   9.522  13.649
27159SOL    HW183374   7.850   9.528  13.608
27159SOL    HW283375   7.768   9.585  13.721
27160SOL     OW83376   7.828  13.965  12.214
27160SOL    HW183377   7.915  13.927  12.229
27160SOL    HW283378   7.823  14.038  12.276
27161SOL     OW83379   1.847   0.436   9.318
27161SOL    HW183380   1.942   0.436   9.303
27161SOL    HW283381   1.812   0.380   9.249
27162SOL     OW83382  10.567   5.398   5.530
27162SOL    HW183383  10.518   5.409   5.611
27162SOL    HW283384  10.543   5.311   5.498
27163SOL     OW83385   6.984  10.452   2.109
27163SOL    HW183386   7.045  10.393   2.064
27163SOL    HW283387   7.017  10.456   2.199
27164SOL     OW83388   8.308   6.136  11.329
27164SOL    HW183389   8.227   6.172  11.366
27164SOL    HW283390   8.290   6.127  11.235
27165SOL     OW83391   7.801  11.190   4.779
27165SOL    HW183392   7.765  11.277   4.794
27165SOL    HW283393   7.892  11.196   4.809
27166SOL     OW83394  14.609   7.286   0.194
27166SOL    HW183395  14.693   7.263   0.233
27166SOL    HW283396  14.610   7.382   0.191
27167SOL     OW83397  10.472  14.484  10.102
27167SOL    HW183398  10.423  14.557  10.140
27167SOL    HW283399  10.561  14.495  10.135
27168SOL     OW83400   8.147  12.747  10.698
27168SOL    HW183401   8.053  12.742  10.683
27168SOL    HW283402   8.174  12.656  10.713
27169SOL     OW83403  12.524   3.720  11.315
27169SOL    HW183404  12.433   3.713  11.285
27169SOL    HW283405  12.565   3.639  11.285
27170SOL     OW83406  13.438   2.723   3.932
27170SOL    HW183407  13.356   2.684   3.902
27170SOL    HW283408  13.493   2.649   3.956
27171SOL     OW83409   0.198  11.414   9.536
27171SOL    HW183410   0.227  11.329   9.568
27171SOL    HW283411   0.142  11.394   9.461
27172SOL     OW83412   1.503  14.110   9.269
27172SOL    HW183413   1.513  14.131   9.177
27172SOL    HW283414   1.437  14.041   9.271
27173SOL     OW83415  11.766   4.329  14.268
27173SOL    HW183416  11.854   4.293  14.258
27173SOL    HW283417  11.776   4.398  14.334
27174SOL     OW83418   1.427  14.061   6.195
27174SOL    HW183419   1.469  14.081   6.279
27174SOL    HW283420   1.410  14.146   6.156
27175SOL     OW83421  13.049  11.809  11.634
27175SOL    HW183422  12.972  11.804  11.578
27175SOL    HW283423  13.014  11.825  11.722
27176SOL     OW83424   4.515  13.777   3.430
27176SOL    HW183425   4.447  13.811   3.373
27176SOL    HW283426   4.582  13.744   3.371
27177SOL     OW83427  10.680   0.548   4.811
27177SOL    HW183428  10.709   0.544   4.902
27177SOL    HW283429  10.760   0.561   4.760
27178SOL     OW83430  11.604   8.079   6.516
27178SOL    HW183431  11.634   8.047   6.601
27178SOL    HW283432  11.536   8.144   6.536
27179SOL     OW83433  14.380   3.077  10.449
27179SOL    HW183434  14.309   3.042  10.394
27179SOL    HW283435  14.439   3.003  10.462
27180SOL     OW83436  13.725   9.744  13.563
27180SOL    HW183437  13.777   9.812  13.520
27180SOL    HW283438  13.635   9.774  13.554
27181SOL     OW83439  14.255   4.214   2.701
27181SOL    HW183440  14.259   4.217   2.796
27181SOL    HW283441  14.216   4.298   2.675
27182SOL     OW83442   6.068   4.243  13.880
27182SOL    HW183443   6.133   4.201  13.936
27182SOL    HW283444   6.086   4.210  13.792
27183SOL     OW83445  14.167   2.806   1.233
27183SOL    HW183446  14.246   2.849   1.267
27183SOL    HW283447  14.097   2.868   1.252
27184SOL     OW83448   9.670   1.907   9.492
27184SOL    HW183449   9.589   1.923   9.540
27184SOL    HW283450   9.664   1.815   9.465
27185SOL     OW83451   1.571   0.576   2.428
27185SOL    HW183452   1.497   0.602   2.482
27185SOL    HW283453   1.579   0.482   2.442
27186SOL     OW83454   2.901   6.881  11.271
27186SOL    HW183455   2.895   6.964  11.318
27186SOL    HW283456   2.911   6.816  11.340
27187SOL     OW83457   3.073   8.483   4.900
27187SOL    HW183458   3.075   8.496   4.994
27187SOL    HW283459   3.157   8.442   4.879
27188SOL     OW83460   0.064   4.901  11.438
27188SOL    HW183461   0.133   4.894  11.505
27188SOL    HW283462  14.865   4.839  11.467
27189SOL     OW83463  10.067   5.860   0.270
27189SOL    HW183464  10.016   5.936   0.296
27189SOL    HW283465  10.113   5.888   0.191
27190SOL     OW83466   6.021  13.816  13.913
27190SOL    HW183467   6.095  13.852  13.963
27190SOL    HW283468   6.053  13.732  13.880
27191SOL     OW83469   8.696  13.134  13.410
27191SOL    HW183470   8.648  13.143  13.493
27191SOL    HW283471   8.754  13.060  13.424
27192SOL     OW83472   9.618   0.155  10.680
27192SOL    HW183473   9.690   0.218  10.689
27192SOL    HW283474   9.584   0.170  10.592
27193SOL     OW83475   8.666   3.554   5.138
27193SOL    HW183476   8.632   3.624   5.194
27193SOL    HW283477   8.738   3.595   5.090
27194SOL     OW83478  13.249   1.693   2.644
27194SOL    HW183479  13.223   1.771   2.595
27194SOL    HW283480  13.328   1.720   2.691
27195SOL     OW83481  13.006  13.375   3.695
27195SOL    HW183482  13.096  13.393   3.668
27195SOL    HW283483  12.996  13.281   3.683
27196SOL     OW83484   4.440  12.043  10.641
27196SOL    HW183485   4.492  11.979  10.690
27196SOL    HW283486   4.423  12.114  10.704
27197SOL     OW83487  12.578   7.237   9.720
27197SOL    HW183488  12.612   7.248   9.631
27197SOL    HW283489  12.515   7.308   9.732
27198SOL     OW83490  13.794   6.942   1.269
27198SOL    HW183491  13.759   6.974   1.351
27198SOL    HW283492  13.798   7.019   1.212
27199SOL     OW83493   3.714  10.274   6.529
27199SOL    HW183494   3.622  10.265   6.557
27199SOL    HW283495   3.754  10.190   6.552
27200SOL     OW83496   2.417   4.494   1.105
27200SOL    HW183497   2.345   4.493   1.168
27200SOL    HW283498   2.496   4.496   1.159
27201SOL     OW83499  13.557   8.313  14.568
27201SOL    HW183500  13.608   8.296  14.647
27201SOL    HW283501  13.619   8.354  14.507
27202SOL     OW83502  11.283  11.380  14.148
27202SOL    HW183503  11.203  11.398  14.099
27202SOL    HW283504  11.319  11.467  14.168
27203SOL     OW83505   3.294  14.689   1.574
27203SOL    HW183506   3.245  14.607   1.570
27203SOL    HW283507   3.226  14.757   1.573
27204SOL     OW83508  10.911   7.951  10.938
27204SOL    HW183509  10.867   8.025  10.896
27204SOL    HW283510  10.958   7.991  11.012
27205SOL     OW83511  11.527   9.541   7.249
27205SOL    HW183512  11.440   9.523   7.212
27205SOL    HW283513  11.517   9.526   7.343
27206SOL     OW83514   4.290  14.063  12.467
27206SOL    HW183515   4.379  14.032  12.488
27206SOL    HW283516   4.261  14.106  12.547
27207SOL     OW83517   7.817   0.589   5.650
27207SOL    HW183518   7.912   0.592   5.648
27207SOL    HW283519   7.793   0.529   5.579
27208SOL     OW83520   1.574   7.497  14.380
27208SOL    HW183521   1.652   7.444  14.395
27208SOL    HW283522   1.591   7.579  14.427
27209SOL     OW83523  13.696   8.250   9.262
27209SOL    HW183524  13.745   8.234   9.181
27209SOL    HW283525  13.663   8.339   9.253
27210SOL     OW83526   2.759   8.210  10.157
27210SOL    HW183527   2.778   8.227  10.249
27210SOL    HW283528   2.675   8.164  10.158
27211SOL     OW83529   4.315   5.159  14.854
27211SOL    HW183530   4.374   5.224   0.024
27211SOL    HW283531   4.362   5.127  14.777
27212SOL     OW83532   3.227   6.469   4.917
27212SOL    HW183533   3.148   6.465   4.862
27212SOL    HW283534   3.194   6.490   5.004
27213SOL     OW83535  14.419   7.485   0.447
27213SOL    HW183536  14.351   7.505   0.512
27213SOL    HW283537  14.478   7.560   0.452
27214SOL     OW83538   1.402   2.774  11.150
27214SOL    HW183539   1.348   2.834  11.202
27214SOL    HW283540   1.351   2.693  11.147
27215SOL     OW83541   8.655  13.267   9.154
27215SOL    HW183542   8.700  13.288   9.072
27215SOL    HW283543   8.667  13.345   9.209
27216SOL     OW83544   1.601  10.360  11.548
27216SOL    HW183545   1.669  10.364  11.615
27216SOL    HW283546   1.520  10.384  11.593
27217SOL     OW83547   5.736  11.149  13.810
27217SOL    HW183548   5.741  11.235  13.851
27217SOL    HW283549   5.642  11.136  13.794
27218SOL     OW83550   1.830   8.925   0.345
27218SOL    HW183551   1.766   8.996   0.345
27218SOL    HW283552   1.907   8.963   0.388
27219SOL     OW83553  10.479  14.250  10.388
27219SOL    HW183554  10.453  14.158  10.394
27219SOL    HW283555  10.536  14.253  10.311
27220SOL     OW83556   0.383   9.607   7.024
27220SOL    HW183557   0.399   9.700   7.004
27220SOL    HW283558   0.413   9.560   6.946
27221SOL     OW83559   5.162  12.312  14.275
27221SOL    HW183560   5.084  12.260  14.256
27221SOL    HW283561   5.148  12.345  14.364
27222SOL     OW83562   2.053   8.525   7.225
27222SOL    HW183563   2.040   8.551   7.316
27222SOL    HW283564   1.982   8.570   7.177
27223SOL     OW83565   2.932   0.669   2.961
27223SOL    HW183566   2.849   0.717   2.965
27223SOL    HW283567   2.949   0.660   2.867
27224SOL     OW83568  10.857  12.482   1.429
27224SOL    HW183569  10.935  12.426   1.423
27224SOL    HW283570  10.790  12.426   1.467
27225SOL     OW83571   4.773   4.303   3.571
27225SOL    HW183572   4.732   4.366   3.629
27225SOL    HW283573   4.716   4.302   3.493
27226SOL     OW83574   6.128   3.041   7.968
27226SOL    HW183575   6.159   3.130   7.980
27226SOL    HW283576   6.203   2.986   7.992
27227SOL     OW83577   0.589   3.567   1.106
27227SOL    HW183578   0.665   3.533   1.059
27227SOL    HW283579   0.623   3.645   1.152
27228SOL     OW83580   6.707   0.811   8.468
27228SOL    HW183581   6.724   0.793   8.375
27228SOL    HW283582   6.711   0.725   8.510
27229SOL     OW83583  14.811  11.741  12.563
27229SOL    HW183584  14.763  11.713  12.641
27229SOL    HW283585   0.035  11.724  12.583
27230SOL     OW83586  10.482   5.375  14.185
27230SOL    HW183587  10.577   5.383  14.197
27230SOL    HW283588  10.464   5.424  14.105
27231SOL     OW83589   2.229   1.554   5.608
27231SOL    HW183590   2.316   1.526   5.579
27231SOL    HW283591   2.193   1.478   5.652
27232SOL     OW83592  12.139   9.023   9.194
27232SOL    HW183593  12.096   9.068   9.267
27232SOL    HW283594  12.137   9.087   9.123
27233SOL     OW83595   1.860  13.048   2.464
27233SOL    HW183596   1.928  12.990   2.498
27233SOL    HW283597   1.795  13.052   2.534
27234SOL     OW83598   4.950   3.994   2.081
27234SOL    HW183599   5.037   3.997   2.040
27234SOL    HW283600   4.968   4.004   2.175
27235SOL     OW83601   7.138   6.060   3.420
27235SOL    HW183602   7.204   6.114   3.376
27235SOL    HW283603   7.173   6.045   3.507
27236SOL     OW83604   3.197   0.925   6.553
27236SOL    HW183605   3.290   0.940   6.571
27236SOL    HW283606   3.173   0.992   6.490
27237SOL     OW83607   3.952   0.951   6.664
27237SOL    HW183608   3.954   1.018   6.733
27237SOL    HW283609   3.948   0.868   6.711
27238SOL     OW83610   1.183  13.804  10.169
27238SOL    HW183611   1.191  13.873  10.235
27238SOL    HW283612   1.238  13.733  10.203
27239SOL     OW83613   4.693   2.291  10.611
27239SOL    HW183614   4.651   2.372  10.642
27239SOL    HW283615   4.680   2.229  10.683
27240SOL     OW83616   7.197   1.171   9.312
27240SOL    HW183617   7.179   1.105   9.246
27240SOL    HW283618   7.114   1.219   9.321
27241SOL     OW83619   6.043   1.402   3.926
27241SOL    HW183620   6.040   1.468   3.857
27241SOL    HW283621   5.956   1.361   3.924
27242SOL     OW83622   3.173  11.450   9.588
27242SOL    HW183623   3.255  11.462   9.636
27242SOL    HW283624   3.117  11.401   9.648
27243SOL     OW83625  10.942   6.277  14.382
27243SOL    HW183626  10.896   6.193  14.380
27243SOL    HW283627  10.879   6.338  14.419
27244SOL     OW83628   8.535   3.803  11.176
27244SOL    HW183629   8.555   3.717  11.141
27244SOL    HW283630   8.452   3.828  11.134
27245SOL     OW83631   7.014  10.413   6.878
27245SOL    HW183632   7.049  10.324   6.869
27245SOL    HW283633   6.974  10.432   6.794
27246SOL     OW83634  10.463   4.052   5.223
27246SOL    HW183635  10.421   3.984   5.170
27246SOL    HW283636  10.525   4.095   5.164
27247SOL     OW83637  14.591  14.820  10.856
27247SOL    HW183638  14.676  14.783  10.878
27247SOL    HW283639  14.591   0.038  10.898
27248SOL     OW83640   5.404  10.121   6.775
27248SOL    HW183641   5.437  10.086   6.858
27248SOL    HW283642   5.329  10.066   6.754
27249SOL     OW83643  14.783   2.760   5.685
27249SOL    HW183644  14.859   2.704   5.702
27249SOL    HW283645  14.819   2.848   5.677
27250SOL     OW83646   7.057   1.496   1.394
27250SOL    HW183647   7.152   1.504   1.389
27250SOL    HW283648   7.036   1.516   1.485
27251SOL     OW83649  13.630  14.747   3.847
27251SOL    HW183650  13.549  14.794   3.825
27251SOL    HW283651  13.645  14.689   3.773
27252SOL     OW83652   9.245   9.881   6.352
27252SOL    HW183653   9.240   9.835   6.437
27252SOL    HW283654   9.192   9.826   6.293
27253SOL     OW83655   8.300   7.201   6.995
27253SOL    HW183656   8.322   7.109   7.005
27253SOL    HW283657   8.230   7.216   7.059
27254SOL     OW83658  10.003   3.552   5.396
27254SOL    HW183659   9.957   3.606   5.332
27254SOL    HW283660   9.974   3.463   5.377
27255SOL     OW83661  12.165   0.733   0.938
27255SOL    HW183662  12.238   0.786   0.905
27255SOL    HW283663  12.087   0.769   0.895
27256SOL     OW83664  12.953  10.489   2.165
27256SOL    HW183665  12.947  10.530   2.252
27256SOL    HW283666  12.951  10.395   2.183
27257SOL     OW83667   8.087   5.578   9.228
27257SOL    HW183668   8.147   5.626   9.285
27257SOL    HW283669   8.003   5.578   9.275
27258SOL     OW83670   2.764  12.597  13.240
27258SOL    HW183671   2.849  12.636  13.263
27258SOL    HW283672   2.773  12.505  13.264
27259SOL     OW83673   9.512  11.117   0.081
27259SOL    HW183674   9.568  11.195   0.084
27259SOL    HW283675   9.423  11.152   0.078
27260SOL     OW83676  13.981   0.939   4.756
27260SOL    HW183677  13.996   0.960   4.663
27260SOL    HW283678  13.910   0.875   4.755
27261SOL     OW83679   8.097  11.114  10.028
27261SOL    HW183680   8.070  11.201  10.002
27261SOL    HW283681   8.135  11.125  10.115
27262SOL     OW83682   5.975   6.830   0.913
27262SOL    HW183683   6.036   6.829   0.986
27262SOL    HW283684   5.921   6.907   0.927
27263SOL     OW83685  14.265   9.275   3.484
27263SOL    HW183686  14.193   9.261   3.422
27263SOL    HW283687  14.224   9.318   3.559
27264SOL     OW83688  13.780   7.050   2.790
27264SOL    HW183689  13.850   7.036   2.726
27264SOL    HW283690  13.818   7.021   2.874
27265SOL     OW83691   3.926   8.414  14.072
27265SOL    HW183692   3.855   8.392  14.132
27265SOL    HW283693   3.912   8.356  13.996
27266SOL     OW83694   1.253  12.402   4.798
27266SOL    HW183695   1.250  12.390   4.703
27266SOL    HW283696   1.177  12.355   4.832
27267SOL     OW83697  11.384   5.430   5.995
27267SOL    HW183698  11.341   5.360   5.946
27267SOL    HW283699  11.323   5.452   6.065
27268SOL     OW83700  11.891   6.276   0.723
27268SOL    HW183701  11.927   6.356   0.759
27268SOL    HW283702  11.926   6.206   0.778
27269SOL     OW83703  13.685  13.093  12.699
27269SOL    HW183704  13.758  13.048  12.741
27269SOL    HW283705  13.660  13.161  12.762
27270SOL     OW83706  13.328   1.755   4.206
27270SOL    HW183707  13.365   1.833   4.247
27270SOL    HW283708  13.344   1.768   4.112
27271SOL     OW83709   6.707   0.934  11.446
27271SOL    HW183710   6.663   0.888  11.374
27271SOL    HW283711   6.793   0.893  11.451
27272SOL     OW83712   0.332   8.240   9.763
27272SOL    HW183713   0.270   8.177   9.725
27272SOL    HW283714   0.382   8.189   9.827
27273SOL     OW83715   3.139  14.861  11.154
27273SOL    HW183716   3.178  14.776  11.134
27273SOL    HW283717   3.078   0.009  11.082
27274SOL     OW83718  14.386   7.319   5.611
27274SOL    HW183719  14.319   7.310   5.678
27274SOL    HW283720  14.442   7.390   5.643
27275SOL     OW83721   6.092   4.940   0.151
27275SOL    HW183722   6.094   4.918   0.245
27275SOL    HW283723   6.074   5.034   0.149
27276SOL     OW83724  10.247  13.488   2.552
27276SOL    HW183725  10.155  13.464   2.543
27276SOL    HW283726  10.277  13.503   2.463
27277SOL     OW83727   9.755  10.101   3.792
27277SOL    HW183728   9.850  10.105   3.796
27277SOL    HW283729   9.736  10.087   3.699
27278SOL     OW83730   3.936   2.588   9.866
27278SOL    HW183731   3.933   2.638   9.784
27278SOL    HW283732   4.028   2.590   9.891
27279SOL     OW83733   9.800  11.277  11.655
27279SOL    HW183734   9.824  11.329  11.579
27279SOL    HW283735   9.809  11.186  11.626
27280SOL     OW83736   5.881   8.801  14.090
27280SOL    HW183737   5.875   8.706  14.103
27280SOL    HW283738   5.966   8.825  14.126
27281SOL     OW83739   7.481   5.109   9.662
27281SOL    HW183740   7.470   5.182   9.722
27281SOL    HW283741   7.477   5.148   9.575
27282SOL     OW83742   2.626  12.927   8.874
27282SOL    HW183743   2.535  12.928   8.901
27282SOL    HW283744   2.652  12.835   8.880
27283SOL     OW83745  14.084   8.639   7.986
27283SOL    HW183746  14.080   8.702   8.058
27283SOL    HW283747  14.170   8.653   7.947
27284SOL     OW83748   0.733   1.726   5.517
27284SOL    HW183749   0.724   1.665   5.590
27284SOL    HW283750   0.660   1.787   5.527
27285SOL     OW83751   3.073   9.876   7.648
27285SOL    HW183752   3.048   9.877   7.556
27285SOL    HW283753   3.030   9.798   7.684
27286SOL     OW83754  12.520   9.545   1.028
27286SOL    HW183755  12.559   9.494   0.956
27286SOL    HW283756  12.586   9.611   1.049
27287SOL     OW83757   0.439  14.142  12.417
27287SOL    HW183758   0.523  14.185  12.400
27287SOL    HW283759   0.461  14.068  12.473
27288SOL     OW83760   9.914   6.315   8.097
27288SOL    HW183761   9.926   6.410   8.089
27288SOL    HW283762   9.880   6.303   8.186
27289SOL     OW83763   4.636  12.441  11.930
27289SOL    HW183764   4.569  12.501  11.964
27289SOL    HW283765   4.667  12.484  11.850
27290SOL     OW83766  14.836   2.378  14.378
27290SOL    HW183767   0.030   2.333  14.320
27290SOL    HW283768  14.784   2.433  14.319
27291SOL     OW83769  10.498   5.349   8.385
27291SOL    HW183770  10.530   5.342   8.295
27291SOL    HW283771  10.577   5.345   8.439
27292SOL     OW83772   5.567  11.648  14.417
27292SOL    HW183773   5.661  11.642  14.403
27292SOL    HW283774   5.543  11.563  14.456
27293SOL     OW83775   7.224   9.127   2.381
27293SOL    HW183776   7.193   9.208   2.339
27293SOL    HW283777   7.183   9.057   2.331
27294SOL     OW83778   8.733   3.985  12.729
27294SOL    HW183779   8.696   4.066  12.762
27294SOL    HW283780   8.731   3.994  12.634
27295SOL     OW83781  14.720   4.879   1.124
27295SOL    HW183782  14.756   4.863   1.037
27295SOL    HW283783  14.792   4.859   1.184
27296SOL     OW83784  11.913  12.300   8.990
27296SOL    HW183785  11.994  12.293   8.939
27296SOL    HW283786  11.855  12.353   8.935
27297SOL     OW83787   4.494   8.612   2.804
27297SOL    HW183788   4.541   8.535   2.772
27297SOL    HW283789   4.561   8.662   2.851
27298SOL     OW83790   5.947   1.320   2.037
27298SOL    HW183791   5.915   1.326   2.127
27298SOL    HW283792   5.868   1.303   1.984
27299SOL     OW83793   1.829  10.273   2.808
27299SOL    HW183794   1.772  10.225   2.748
27299SOL    HW283795   1.805  10.365   2.796
27300SOL     OW83796   1.062  14.369   7.957
27300SOL    HW183797   1.036  14.412   7.876
27300SOL    HW283798   1.135  14.423   7.990
27301SOL     OW83799   0.974  12.994   5.534
27301SOL    HW183800   0.936  12.986   5.447
27301SOL    HW283801   1.065  13.020   5.518
27302SOL     OW83802   3.761  13.144  11.940
27302SOL    HW183803   3.687  13.095  11.904
27302SOL    HW283804   3.749  13.233  11.906
27303SOL     OW83805  12.962   0.935   6.717
27303SOL    HW183806  12.977   1.015   6.666
27303SOL    HW283807  12.924   0.874   6.653
27304SOL     OW83808  11.593   4.262  10.727
27304SOL    HW183809  11.595   4.356  10.740
27304SOL    HW283810  11.504   4.245  10.694
27305SOL     OW83811  12.130   3.947  14.243
27305SOL    HW183812  12.217   3.986  14.237
27305SOL    HW283813  12.095   3.978  14.327
27306SOL     OW83814   6.349  13.680   7.633
27306SOL    HW183815   6.383  13.735   7.704
27306SOL    HW283816   6.256  13.700   7.629
27307SOL     OW83817  13.360   3.287   1.855
27307SOL    HW183818  13.277   3.334   1.842
27307SOL    HW283819  13.337   3.194   1.843
27308SOL     OW83820  11.891   2.015  10.692
27308SOL    HW183821  11.823   1.988  10.754
27308SOL    HW283822  11.926   2.096  10.729
27309SOL     OW83823  10.229   8.286   0.444
27309SOL    HW183824  10.285   8.230   0.499
27309SOL    HW283825  10.164   8.226   0.408
27310SOL     OW83826  13.973   1.666   7.981
27310SOL    HW183827  13.933   1.662   8.068
27310SOL    HW283828  13.919   1.728   7.932
27311SOL     OW83829  13.545  13.631   2.637
27311SOL    HW183830  13.548  13.698   2.569
27311SOL    HW283831  13.587  13.555   2.597
27312SOL     OW83832   3.734   7.539   8.176
27312SOL    HW183833   3.826   7.556   8.158
27312SOL    HW283834   3.726   7.444   8.169
27313SOL     OW83835   9.363   6.428   5.926
27313SOL    HW183836   9.316   6.392   6.002
27313SOL    HW283837   9.426   6.489   5.964
27314SOL     OW83838   1.382   8.424   1.360
27314SOL    HW183839   1.460   8.465   1.398
27314SOL    HW283840   1.333   8.496   1.321
27315SOL     OW83841   7.939   1.129  11.246
27315SOL    HW183842   7.850   1.113  11.279
27315SOL    HW283843   7.930   1.205  11.189
27316SOL     OW83844   7.077  12.319   1.886
27316SOL    HW183845   7.010  12.261   1.851
27316SOL    HW283846   7.103  12.373   1.811
27317SOL     OW83847   3.588  14.846   2.557
27317SOL    HW183848   3.649   0.034   2.605
27317SOL    HW283849   3.517  14.829   2.619
27318SOL     OW83850  14.389   5.580   9.685
27318SOL    HW183851  14.454   5.570   9.754
27318SOL    HW283852  14.334   5.653   9.714
27319SOL     OW83853   0.331  13.540   4.797
27319SOL    HW183854   0.397  13.479   4.831
27319SOL    HW283855   0.326  13.609   4.863
27320SOL     OW83856   7.073   1.920  11.096
27320SOL    HW183857   7.081   1.894  11.188
27320SOL    HW283858   7.157   1.962  11.076
27321SOL     OW83859   7.865   2.033   4.176
27321SOL    HW183860   7.850   2.122   4.207
27321SOL    HW283861   7.804   1.979   4.227
27322SOL     OW83862   6.499   3.124  10.967
27322SOL    HW183863   6.527   3.040  11.003
27322SOL    HW283864   6.561   3.187  11.003
27323SOL     OW83865   9.418   5.213   3.855
27323SOL    HW183866   9.442   5.303   3.876
27323SOL    HW283867   9.467   5.159   3.917
27324SOL     OW83868   7.590   9.277   7.948
27324SOL    HW183869   7.575   9.285   8.042
27324SOL    HW283870   7.659   9.212   7.939
27325SOL     OW83871   8.900   2.524   8.020
27325SOL    HW183872   8.822   2.525   8.076
27325SOL    HW283873   8.938   2.612   8.030
27326SOL     OW83874   8.705  11.596   0.933
27326SOL    HW183875   8.654  11.575   1.012
27326SOL    HW283876   8.662  11.673   0.897
27327SOL     OW83877   6.922   6.017   5.298
27327SOL    HW183878   6.983   6.065   5.242
27327SOL    HW283879   6.850   6.077   5.313
27328SOL     OW83880   0.522  14.589   1.274
27328SOL    HW183881   0.469  14.591   1.354
27328SOL    HW283882   0.488  14.660   1.220
27329SOL     OW83883  11.614   7.744   8.986
27329SOL    HW183884  11.610   7.731   9.081
27329SOL    HW283885  11.708   7.739   8.966
27330SOL     OW83886   2.443  11.063   7.836
27330SOL    HW183887   2.461  10.980   7.792
27330SOL    HW283888   2.530  11.102   7.850
27331SOL     OW83889  13.435   6.931   2.078
27331SOL    HW183890  13.371   6.911   2.010
27331SOL    HW283891  13.514   6.883   2.052
27332SOL     OW83892  11.749   7.128   7.644
27332SOL    HW183893  11.803   7.207   7.645
27332SOL    HW283894  11.691   7.138   7.720
27333SOL     OW83895   3.337  14.420  14.493
27333SOL    HW183896   3.247  14.420  14.527
27333SOL    HW283897   3.360  14.328  14.488
27334SOL     OW83898   4.878  14.522   2.431
27334SOL    HW183899   4.926  14.439   2.431
27334SOL    HW283900   4.943  14.588   2.452
27335SOL     OW83901  12.487   3.114   2.785
27335SOL    HW183902  12.497   3.171   2.709
27335SOL    HW283903  12.394   3.088   2.784
27336SOL     OW83904   7.264   2.744   9.074
27336SOL    HW183905   7.221   2.787   9.001
27336SOL    HW283906   7.226   2.785   9.152
27337SOL     OW83907   5.272  13.451   7.212
27337SOL    HW183908   5.296  13.372   7.260
27337SOL    HW283909   5.205  13.493   7.265
27338SOL     OW83910   7.288  13.122   4.728
27338SOL    HW183911   7.287  13.216   4.743
27338SOL    HW283912   7.333  13.112   4.644
27339SOL     OW83913   3.254   5.310   3.330
27339SOL    HW183914   3.198   5.256   3.385
27339SOL    HW283915   3.284   5.250   3.261
27340SOL     OW83916   0.975  13.303   8.224
27340SOL    HW183917   1.013  13.216   8.228
27340SOL    HW283918   1.045  13.359   8.191
27341SOL     OW83919   0.359   8.708   3.537
27341SOL    HW183920   0.452   8.726   3.547
27341SOL    HW283921   0.332   8.764   3.463
27342SOL     OW83922  12.760   6.716   2.401
27342SOL    HW183923  12.788   6.626   2.420
27342SOL    HW283924  12.839   6.759   2.366
27343SOL     OW83925   4.148   9.109   7.898
27343SOL    HW183926   4.076   9.138   7.954
27343SOL    HW283927   4.137   9.157   7.816
27344SOL     OW83928  13.333  14.447  13.918
27344SOL    HW183929  13.362  14.538  13.913
27344SOL    HW283930  13.412  14.397  13.938
27345SOL     OW83931  13.952   6.243   3.695
27345SOL    HW183932  13.992   6.159   3.671
27345SOL    HW283933  13.978   6.257   3.786
27346SOL     OW83934   3.986   1.825   8.889
27346SOL    HW183935   4.014   1.792   8.804
27346SOL    HW283936   3.890   1.815   8.888
27347SOL     OW83937   7.486  12.941   6.729
27347SOL    HW183938   7.490  12.853   6.691
27347SOL    HW283939   7.498  13.000   6.655
27348SOL     OW83940   1.379   7.442   6.343
27348SOL    HW183941   1.353   7.425   6.434
27348SOL    HW283942   1.400   7.355   6.308
27349SOL     OW83943   7.788  11.559  11.757
27349SOL    HW183944   7.704  11.516  11.768
27349SOL    HW283945   7.767  11.647  11.726
27350SOL     OW83946  14.620   6.731  11.079
27350SOL    HW183947  14.593   6.804  11.023
27350SOL    HW283948  14.715   6.724  11.065
27351SOL     OW83949  13.898   2.879   4.060
27351SOL    HW183950  13.969   2.818   4.042
27351SOL    HW283951  13.917   2.955   4.004
27352SOL     OW83952   8.813   4.481   4.560
27352SOL    HW183953   8.758   4.528   4.623
27352SOL    HW283954   8.765   4.400   4.543
27353SOL     OW83955   7.087   2.859   9.290
27353SOL    HW183956   7.070   2.881   9.382
27353SOL    HW283957   7.012   2.806   9.263
27354SOL     OW83958   0.919  12.510   6.062
27354SOL    HW183959   0.971  12.535   5.986
27354SOL    HW283960   0.872  12.431   6.035
27355SOL     OW83961   0.320   0.886   9.892
27355SOL    HW183962   0.366   0.808   9.862
27355SOL    HW283963   0.260   0.854   9.960
27356SOL     OW83964   7.695   6.386  12.321
27356SOL    HW183965   7.729   6.350  12.239
27356SOL    HW283966   7.602   6.364  12.320
27357SOL     OW83967   6.788   7.135  11.988
27357SOL    HW183968   6.877   7.160  12.014
27357SOL    HW283969   6.800   7.057  11.935
27358SOL     OW83970  11.070   3.942   7.918
27358SOL    HW183971  11.135   4.011   7.901
27358SOL    HW283972  11.114   3.862   7.891
27359SOL     OW83973   0.387   0.690   1.984
27359SOL    HW183974   0.426   0.730   2.062
27359SOL    HW283975   0.437   0.611   1.970
27360SOL     OW83976   8.573   0.342  10.632
27360SOL    HW183977   8.488   0.370  10.600
27360SOL    HW283978   8.586   0.256  10.593
27361SOL     OW83979   9.534   9.880   6.843
27361SOL    HW183980   9.528   9.953   6.781
27361SOL    HW283981   9.528   9.802   6.788
27362SOL     OW83982   3.805  14.263  13.329
27362SOL    HW183983   3.805  14.344  13.278
27362SOL    HW283984   3.771  14.197  13.268
27363SOL     OW83985   2.897   2.066   0.611
27363SOL    HW183986   2.891   2.017   0.529
27363SOL    HW283987   2.926   2.154   0.585
27364SOL     OW83988   4.460   0.496   0.649
27364SOL    HW183989   4.540   0.520   0.695
27364SOL    HW283990   4.399   0.568   0.667
27365SOL     OW83991   1.856   1.318   1.210
27365SOL    HW183992   1.852   1.273   1.294
27365SOL    HW283993   1.921   1.387   1.223
27366SOL     OW83994   8.967   4.913   1.829
27366SOL    HW183995   8.928   4.970   1.763
27366SOL    HW283996   8.994   4.972   1.899
27367SOL     OW83997   8.832  12.381  13.164
27367SOL    HW183998   8.745  12.384  13.124
27367SOL    HW283999   8.833  12.300  13.214
27368SOL     OW84000  10.296   0.655  13.869
27368SOL    HW184001  10.316   0.567  13.837
27368SOL    HW284002  10.381   0.698  13.875
27369SOL     OW84003   9.056  14.733   6.899
27369SOL    HW184004   9.077  14.780   6.980
27369SOL    HW284005   8.974  14.773   6.869
27370SOL     OW84006   4.882   1.321   0.268
27370SOL    HW184007   4.797   1.285   0.243
27370SOL    HW284008   4.891   1.400   0.214
27371SOL     OW84009   6.561  11.860   7.516
27371SOL    HW184010   6.644  11.835   7.555
27371SOL    HW284011   6.550  11.801   7.442
27372SOL     OW84012   4.934  10.128   6.722
27372SOL    HW184013   5.023  10.093   6.731
27372SOL    HW284014   4.883  10.082   6.788
27373SOL     OW84015  11.964   1.182  12.011
27373SOL    HW184016  11.929   1.258  11.964
27373SOL    HW284017  11.996   1.218  12.094
27374SOL     OW84018  13.825   7.068   9.076
27374SOL    HW184019  13.777   7.145   9.047
27374SOL    HW284020  13.907   7.071   9.027
27375SOL     OW84021  14.498  12.668   9.829
27375SOL    HW184022  14.512  12.738   9.765
27375SOL    HW284023  14.405  12.648   9.822
27376SOL     OW84024   0.594   8.068   0.597
27376SOL    HW184025   0.540   8.029   0.666
27376SOL    HW284026   0.679   8.084   0.640
27377SOL     OW84027   8.696   2.137  13.123
27377SOL    HW184028   8.650   2.064  13.165
27377SOL    HW284029   8.787   2.128  13.154
27378SOL     OW84030  11.738  11.676  13.081
27378SOL    HW184031  11.642  11.683  13.077
27378SOL    HW284032  11.754  11.599  13.136
27379SOL     OW84033  11.576   7.790   7.092
27379SOL    HW184034  11.607   7.734   7.163
27379SOL    HW284035  11.655   7.810   7.041
27380SOL     OW84036   9.265   1.125   5.990
27380SOL    HW184037   9.361   1.123   5.991
27380SOL    HW284038   9.243   1.215   5.962
27381SOL     OW84039   2.279   7.530   9.152
27381SOL    HW184040   2.341   7.600   9.173
27381SOL    HW284041   2.255   7.493   9.237
27382SOL     OW84042   0.985   9.248   4.459
27382SOL    HW184043   0.942   9.328   4.427
27382SOL    HW284044   0.926   9.178   4.434
27383SOL     OW84045  12.159   6.338   0.210
27383SOL    HW184046  12.136   6.397   0.281
27383SOL    HW284047  12.255   6.340   0.207
27384SOL     OW84048  11.542   6.138   6.383
27384SOL    HW184049  11.470   6.192   6.417
27384SOL    HW284050  11.505   6.050   6.376
27385SOL     OW84051   9.135   5.076   2.072
27385SOL    HW184052   9.090   5.042   2.149
27385SOL    HW284053   9.088   5.157   2.051
27386SOL     OW84054  12.497   0.043  14.675
27386SOL    HW184055  12.472   0.130  14.644
27386SOL    HW284056  12.418   0.007  14.716
27387SOL     OW84057   4.065   3.879   4.035
27387SOL    HW184058   3.988   3.935   4.029
27387SOL    HW284059   4.122   3.922   4.099
27388SOL     OW84060  11.258   9.879   0.889
27388SOL    HW184061  11.276   9.967   0.856
27388SOL    HW284062  11.254   9.825   0.811
27389SOL     OW84063   7.352   3.349   1.405
27389SOL    HW184064   7.435   3.375   1.366
27389SOL    HW284065   7.356   3.381   1.495
27390SOL     OW84066   0.120   3.876   0.444
27390SOL    HW184067   0.169   3.933   0.503
27390SOL    HW284068   0.061   3.935   0.397
27391SOL     OW84069   3.790  13.497   2.062
27391SOL    HW184070   3.763  13.537   2.145
27391SOL    HW284071   3.792  13.403   2.081
27392SOL     OW84072   0.609   6.583  13.646
27392SOL    HW184073   0.653   6.550  13.724
27392SOL    HW284074   0.680   6.608  13.587
27393SOL     OW84075   5.026   8.043   2.930
27393SOL    HW184076   5.076   8.124   2.918
27393SOL    HW284077   5.044   8.016   3.020
27394SOL     OW84078   1.875   6.756   6.041
27394SOL    HW184079   1.800   6.710   6.078
27394SOL    HW284080   1.839   6.803   5.966
27395SOL     OW84081  13.375  12.839  13.628
27395SOL    HW184082  13.314  12.799  13.567
27395SOL    HW284083  13.320  12.869  13.701
27396SOL     OW84084  10.856  13.343   0.863
27396SOL    HW184085  10.843  13.274   0.798
27396SOL    HW284086  10.868  13.423   0.812
27397SOL     OW84087  11.148   0.580   1.505
27397SOL    HW184088  11.104   0.655   1.465
27397SOL    HW284089  11.080   0.513   1.513
27398SOL     OW84090  14.627   7.593  13.359
27398SOL    HW184091  14.606   7.619  13.449
27398SOL    HW284092  14.720   7.569  13.362
27399SOL     OW84093   5.256  12.717   6.212
27399SOL    HW184094   5.166  12.733   6.240
27399SOL    HW284095   5.280  12.795   6.163
27400SOL     OW84096   6.437  14.070   4.144
27400SOL    HW184097   6.451  13.977   4.163
27400SOL    HW284098   6.507  14.093   4.083
27401SOL     OW84099   2.246  13.655   2.948
27401SOL    HW184100   2.217  13.661   3.039
27401SOL    HW284101   2.317  13.590   2.951
27402SOL     OW84102  10.760   8.562  14.589
27402SOL    HW184103  10.833   8.619  14.565
27402SOL    HW284104  10.795   8.473  14.578
27403SOL     OW84105   7.830   7.115   7.735
27403SOL    HW184106   7.897   7.183   7.727
27403SOL    HW284107   7.854   7.050   7.668
27404SOL     OW84108   1.694   9.373   4.115
27404SOL    HW184109   1.631   9.417   4.058
27404SOL    HW284110   1.655   9.287   4.132
27405SOL     OW84111   7.600   9.731   4.522
27405SOL    HW184112   7.636   9.667   4.584
27405SOL    HW284113   7.653   9.720   4.443
27406SOL     OW84114   7.573   8.800   4.055
27406SOL    HW184115   7.498   8.753   4.019
27406SOL    HW284116   7.537   8.883   4.086
27407SOL     OW84117   2.653   0.046   4.981
27407SOL    HW184118   2.684  14.826   4.956
27407SOL    HW284119   2.607   0.078   4.903
27408SOL     OW84120  14.432   9.805  12.896
27408SOL    HW184121  14.479   9.885  12.873
27408SOL    HW284122  14.477   9.735  12.848
27409SOL     OW84123   0.002   4.593  13.809
27409SOL    HW184124  14.811   4.645  13.864
27409SOL    HW284125  14.813   4.534  13.760
27410SOL     OW84126  13.848   3.033  14.087
27410SOL    HW184127  13.827   3.099  14.021
27410SOL    HW284128  13.850   3.081  14.170
27411SOL     OW84129   3.784  12.450  11.008
27411SOL    HW184130   3.737  12.502  11.074
27411SOL    HW284131   3.768  12.359  11.034
27412SOL     OW84132  14.843   2.507  13.541
27412SOL    HW184133   0.003   2.528  13.631
27412SOL    HW284134  14.862   2.587  13.492
27413SOL     OW84135   0.198   7.485   1.294
27413SOL    HW184136   0.286   7.515   1.272
27413SOL    HW284137   0.151   7.489   1.210
27414SOL     OW84138  10.060   0.670  10.411
27414SOL    HW184139  10.122   0.743  10.404
27414SOL    HW284140   9.984   0.699  10.360
27415SOL     OW84141   7.346   9.976  10.239
27415SOL    HW184142   7.349  10.025  10.321
27415SOL    HW284143   7.429   9.996  10.195
27416SOL     OW84144  11.121   4.405   6.583
27416SOL    HW184145  11.152   4.496   6.584
27416SOL    HW284146  11.173   4.362   6.651
27417SOL     OW84147  10.862   1.066   6.025
27417SOL    HW184148  10.828   1.127   6.091
27417SOL    HW284149  10.884   0.987   6.074
27418SOL     OW84150   6.415   8.060   7.527
27418SOL    HW184151   6.368   8.122   7.582
27418SOL    HW284152   6.356   7.984   7.521
27419SOL     OW84153   6.113   2.173  10.834
27419SOL    HW184154   6.105   2.141  10.924
27419SOL    HW284155   6.032   2.221  10.818
27420SOL     OW84156   0.195   6.330  10.414
27420SOL    HW184157   0.170   6.265  10.349
27420SOL    HW284158   0.287   6.310  10.433
27421SOL     OW84159  14.270   6.179  10.799
27421SOL    HW184160  14.265   6.194  10.894
27421SOL    HW284161  14.351   6.222  10.772
27422SOL     OW84162   0.993  13.689   5.371
27422SOL    HW184163   0.954  13.696   5.284
27422SOL    HW284164   0.994  13.595   5.390
27423SOL     OW84165   0.408   8.762   3.060
27423SOL    HW184166   0.385   8.707   2.985
27423SOL    HW284167   0.326   8.768   3.110
27424SOL     OW84168   8.365  11.920   5.773
27424SOL    HW184169   8.290  11.978   5.761
27424SOL    HW284170   8.413  11.958   5.847
27425SOL     OW84171  13.747   1.436   6.811
27425SOL    HW184172  13.694   1.367   6.851
27425SOL    HW284173  13.684   1.503   6.785
27426SOL     OW84174   6.072  11.539   5.036
27426SOL    HW184175   6.055  11.475   4.967
27426SOL    HW284176   5.994  11.593   5.040
27427SOL     OW84177   9.509   9.374   0.393
27427SOL    HW184178   9.426   9.374   0.345
27427SOL    HW284179   9.507   9.293   0.444
27428SOL     OW84180   7.548  10.895   9.003
27428SOL    HW184181   7.463  10.856   9.026
27428SOL    HW284182   7.612  10.840   9.048
27429SOL     OW84183   1.369  14.068  14.038
27429SOL    HW184184   1.386  14.110  14.123
27429SOL    HW284185   1.275  14.082  14.023
27430SOL     OW84186  11.712   8.863  10.796
27430SOL    HW184187  11.687   8.932  10.734
27430SOL    HW284188  11.645   8.796  10.785
27431SOL     OW84189   5.817   0.028  14.271
27431SOL    HW184190   5.765  14.817  14.257
27431SOL    HW284191   5.779   0.093  14.212
27432SOL     OW84192   3.953  14.725   2.902
27432SOL    HW184193   3.995  14.640   2.895
27432SOL    HW284194   3.859  14.706   2.912
27433SOL     OW84195   0.948   3.833  14.602
27433SOL    HW184196   0.926   3.920  14.634
27433SOL    HW284197   0.958   3.844  14.507
27434SOL     OW84198   9.760   9.717   3.911
27434SOL    HW184199   9.679   9.765   3.893
27434SOL    HW284200   9.770   9.722   4.006
27435SOL     OW84201  13.281   1.781   2.940
27435SOL    HW184202  13.205   1.735   2.906
27435SOL    HW284203  13.320   1.720   3.003
27436SOL     OW84204   4.299   5.973   3.485
27436SOL    HW184205   4.237   5.955   3.555
27436SOL    HW284206   4.357   5.897   3.484
27437SOL     OW84207   2.479   6.477   8.555
27437SOL    HW184208   2.572   6.495   8.539
27437SOL    HW284209   2.470   6.483   8.650
27438SOL     OW84210   0.012   1.258   1.877
27438SOL    HW184211  14.822   1.254   1.953
27438SOL    HW284212   0.034   1.351   1.869
27439SOL     OW84213   2.109  13.511  13.381
27439SOL    HW184214   2.170  13.471  13.319
27439SOL    HW284215   2.097  13.600  13.347
27440SOL     OW84216  14.254  13.491  11.873
27440SOL    HW184217  14.305  13.411  11.862
27440SOL    HW284218  14.298  13.555  11.817
27441SOL     OW84219  12.968  11.431  12.477
27441SOL    HW184220  12.959  11.487  12.554
27441SOL    HW284221  13.056  11.447  12.445
27442SOL     OW84222  11.873  11.943   7.692
27442SOL    HW184223  11.910  11.857   7.675
27442SOL    HW284224  11.779  11.932   7.677
27443SOL     OW84225   1.483   8.031   4.919
27443SOL    HW184226   1.446   8.052   4.833
27443SOL    HW284227   1.577   8.045   4.909
27444SOL     OW84228  14.207  12.515  10.994
27444SOL    HW184229  14.291  12.470  10.987
27444SOL    HW284230  14.173  12.488  11.079
27445SOL     OW84231  10.749  11.377  12.095
27445SOL    HW184232  10.737  11.408  12.005
27445SOL    HW284233  10.754  11.457  12.147
27446SOL     OW84234  14.567  11.705   5.860
27446SOL    HW184235  14.501  11.675   5.797
27446SOL    HW284236  14.540  11.794   5.883
27447SOL     OW84237   7.332  12.784  10.435
27447SOL    HW184238   7.285  12.808  10.355
27447SOL    HW284239   7.378  12.703  10.412
27448SOL     OW84240  11.608   8.593  13.636
27448SOL    HW184241  11.627   8.611  13.729
27448SOL    HW284242  11.534   8.533  13.638
27449SOL     OW84243  10.296   4.602  14.772
27449SOL    HW184244  10.298   4.680  14.827
27449SOL    HW284245  10.205   4.571  14.778
27450SOL     OW84246  11.257  13.751  10.611
27450SOL    HW184247  11.325  13.746  10.544
27450SOL    HW284248  11.261  13.666  10.655
27451SOL     OW84249  11.449  13.105  13.170
27451SOL    HW184250  11.378  13.132  13.228
27451SOL    HW284251  11.431  13.013  13.151
27452SOL     OW84252   3.944   3.514   2.228
27452SOL    HW184253   3.875   3.562   2.273
27452SOL    HW284254   3.917   3.422   2.234
27453SOL     OW84255  12.784   0.900  10.788
27453SOL    HW184256  12.712   0.946  10.832
27453SOL    HW284257  12.747   0.814  10.766
27454SOL     OW84258   7.281  13.809   5.785
27454SOL    HW184259   7.250  13.722   5.759
27454SOL    HW284260   7.359  13.791   5.838
27455SOL     OW84261   9.541   6.043   5.306
27455SOL    HW184262   9.454   6.075   5.280
27455SOL    HW284263   9.591   6.122   5.324
27456SOL     OW84264  14.645  13.141   9.212
27456SOL    HW184265  14.658  13.132   9.117
27456SOL    HW284266  14.722  13.188   9.243
27457SOL     OW84267  12.962  14.675   7.764
27457SOL    HW184268  12.971  14.586   7.731
27457SOL    HW284269  13.000  14.730   7.695
27458SOL     OW84270   7.637   3.570   5.921
27458SOL    HW184271   7.662   3.493   5.972
27458SOL    HW284272   7.683   3.560   5.837
27459SOL     OW84273   4.855   5.898   2.807
27459SOL    HW184274   4.796   5.947   2.865
27459SOL    HW284275   4.854   5.947   2.725
27460SOL     OW84276  13.171   8.690   9.555
27460SOL    HW184277  13.265   8.682   9.570
27460SOL    HW284278  13.137   8.601   9.567
27461SOL     OW84279   9.659   3.150   7.640
27461SOL    HW184280   9.569   3.162   7.669
27461SOL    HW284281   9.665   3.201   7.559
27462SOL     OW84282   4.815   4.845  14.187
27462SOL    HW184283   4.869   4.814  14.259
27462SOL    HW284284   4.726   4.815  14.208
27463SOL     OW84285   6.874  13.391  10.769
27463SOL    HW184286   6.853  13.482  10.746
27463SOL    HW284287   6.901  13.396  10.861
27464SOL     OW84288   5.879  12.519  11.319
27464SOL    HW184289   5.906  12.436  11.360
27464SOL    HW284290   5.808  12.495  11.261
27465SOL     OW84291   8.805   2.123   8.422
27465SOL    HW184292   8.785   2.099   8.513
27465SOL    HW284293   8.884   2.072   8.401
27466SOL     OW84294  13.176   7.143  12.259
27466SOL    HW184295  13.129   7.115  12.337
27466SOL    HW284296  13.215   7.063  12.224
27467SOL     OW84297   7.182   6.177  11.746
27467SOL    HW184298   7.179   6.256  11.800
27467SOL    HW284299   7.271   6.144  11.758
27468SOL     OW84300  12.311  14.433  10.018
27468SOL    HW184301  12.336  14.346  10.051
27468SOL    HW284302  12.248  14.414   9.948
27469SOL     OW84303  13.751  13.987  12.661
27469SOL    HW184304  13.705  14.046  12.719
27469SOL    HW284305  13.718  13.900  12.683
27470SOL     OW84306   0.372  13.083  10.058
27470SOL    HW184307   0.411  13.072  10.145
27470SOL    HW284308   0.445  13.110  10.002
27471SOL     OW84309  14.720  13.189   3.835
27471SOL    HW184310  14.680  13.106   3.808
27471SOL    HW284311  14.731  13.181   3.929
27472SOL     OW84312  13.191   1.936   8.087
27472SOL    HW184313  13.185   1.874   8.159
27472SOL    HW284314  13.136   1.899   8.018
27473SOL     OW84315   7.032   4.101   6.389
27473SOL    HW184316   7.097   4.071   6.325
27473SOL    HW284317   7.013   4.024   6.442
27474SOL     OW84318   2.113   0.738   9.750
27474SOL    HW184319   2.081   0.824   9.778
27474SOL    HW284320   2.194   0.725   9.800
27475SOL     OW84321   0.926   0.047  10.572
27475SOL    HW184322   0.843   0.040  10.525
27475SOL    HW284323   0.967  14.829  10.561
27476SOL     OW84324  12.302   6.399  13.013
27476SOL    HW184325  12.264   6.475  13.057
27476SOL    HW284326  12.283   6.325  13.071
27477SOL     OW84327   0.884  13.542   9.936
27477SOL    HW184328   0.903  13.611   9.872
27477SOL    HW284329   0.840  13.474   9.885
27478SOL     OW84330  14.470   9.822   8.264
27478SOL    HW184331  14.471   9.841   8.358
27478SOL    HW284332  14.399   9.877   8.230
27479SOL     OW84333   6.480   7.279  10.701
27479SOL    HW184334   6.559   7.289  10.755
27479SOL    HW284335   6.512   7.239  10.620
27480SOL     OW84336  14.349   0.984  11.834
27480SOL    HW184337  14.439   0.968  11.861
27480SOL    HW284338  14.328   0.912  11.775
27481SOL     OW84339   5.018  12.006   9.499
27481SOL    HW184340   5.059  12.078   9.451
27481SOL    HW284341   5.070  11.929   9.476
27482SOL     OW84342  13.075   8.575   5.758
27482SOL    HW184343  13.130   8.640   5.802
27482SOL    HW284344  13.085   8.495   5.810
27483SOL     OW84345   7.625   6.228   0.445
27483SOL    HW184346   7.571   6.152   0.467
27483SOL    HW284347   7.570   6.280   0.386
27484SOL     OW84348  11.442   6.542   3.392
27484SOL    HW184349  11.492   6.481   3.446
27484SOL    HW284350  11.401   6.601   3.455
27485SOL     OW84351   8.437   2.661   0.660
27485SOL    HW184352   8.349   2.636   0.629
27485SOL    HW284353   8.496   2.629   0.592
27486SOL     OW84354  10.902   6.441  13.200
27486SOL    HW184355  10.961   6.366  13.206
27486SOL    HW284356  10.940   6.497  13.132
27487SOL     OW84357   5.955  12.526  14.317
27487SOL    HW184358   5.966  12.432  14.333
27487SOL    HW284359   5.933  12.563  14.402
27488SOL     OW84360   2.072   9.256   9.829
27488SOL    HW184361   2.049   9.179   9.777
27488SOL    HW284362   2.167   9.250   9.840
27489SOL     OW84363  11.567   0.831   8.321
27489SOL    HW184364  11.531   0.748   8.351
27489SOL    HW284365  11.491   0.886   8.303
27490SOL     OW84366  13.465   2.173   4.191
27490SOL    HW184367  13.480   2.203   4.101
27490SOL    HW284368  13.510   2.088   4.196
27491SOL     OW84369   5.699   4.643   1.483
27491SOL    HW184370   5.794   4.636   1.476
27491SOL    HW284371   5.666   4.561   1.446
27492SOL     OW84372   8.187  10.369  12.757
27492SOL    HW184373   8.202  10.317  12.678
27492SOL    HW284374   8.272  10.407  12.777
27493SOL     OW84375   6.232   9.100   5.049
27493SOL    HW184376   6.206   9.011   5.071
27493SOL    HW284377   6.286   9.129   5.122
27494SOL     OW84378   9.052   0.301   0.021
27494SOL    HW184379   9.052   0.367  14.820
27494SOL    HW284380   9.109   0.232  14.856
27495SOL     OW84381   0.951   1.429  14.820
27495SOL    HW184382   1.010   1.485  14.770
27495SOL    HW284383   0.945   1.348  14.770
27496SOL     OW84384  12.768  10.836   5.929
27496SOL    HW184385  12.863  10.840   5.938
27496SOL    HW284386  12.754  10.796   5.843
27497SOL     OW84387  14.709   5.119   8.967
27497SOL    HW184388  14.788   5.064   8.965
27497SOL    HW284389  14.652   5.076   9.032
27498SOL     OW84390   9.013   3.481   3.243
27498SOL    HW184391   9.006   3.511   3.152
27498SOL    HW284392   8.941   3.419   3.254
27499SOL     OW84393  11.728   9.878   3.495
27499SOL    HW184394  11.795   9.812   3.479
27499SOL    HW284395  11.728   9.888   3.590
27500SOL     OW84396   6.918   5.562   8.459
27500SOL    HW184397   6.981   5.536   8.527
27500SOL    HW284398   6.910   5.657   8.470
27501SOL     OW84399  13.907   9.145  11.787
27501SOL    HW184400  13.889   9.053  11.804
27501SOL    HW284401  13.995   9.145  11.749
27502SOL     OW84402   6.231   5.429   1.011
27502SOL    HW184403   6.152   5.481   0.992
27502SOL    HW284404   6.259   5.460   1.097
27503SOL     OW84405  11.903   8.031   3.334
27503SOL    HW184406  11.936   7.945   3.306
27503SOL    HW284407  11.957   8.094   3.287
27504SOL     OW84408   9.726  10.068   2.720
27504SOL    HW184409   9.728  10.135   2.651
27504SOL    HW284410   9.817  10.058   2.747
27505SOL     OW84411   7.459   6.837   6.715
27505SOL    HW184412   7.442   6.806   6.804
27505SOL    HW284413   7.455   6.932   6.721
27506SOL     OW84414  13.101   7.991  10.509
27506SOL    HW184415  13.111   7.900  10.482
27506SOL    HW284416  13.006   8.001  10.523
27507SOL     OW84417   0.963   4.150   9.887
27507SOL    HW184418   1.055   4.156   9.913
27507SOL    HW284419   0.960   4.075   9.827
27508SOL     OW84420   6.844   5.099  11.099
27508SOL    HW184421   6.809   5.011  11.089
27508SOL    HW284422   6.858   5.130  11.010
27509SOL     OW84423  14.006  13.884   5.727
27509SOL    HW184424  13.993  13.790   5.732
27509SOL    HW284425  13.953  13.912   5.652
27510SOL     OW84426  11.721   3.015   4.367
27510SOL    HW184427  11.735   3.050   4.279
27510SOL    HW284428  11.746   2.923   4.361
27511SOL     OW84429   9.480   2.897  12.178
27511SOL    HW184430   9.532   2.971  12.210
27511SOL    HW284431   9.467   2.915  12.085
27512SOL     OW84432   2.470  10.987   3.063
27512SOL    HW184433   2.514  11.011   3.145
27512SOL    HW284434   2.518  11.034   2.996
27513SOL     OW84435  11.819   3.354   2.183
27513SOL    HW184436  11.835   3.332   2.091
27513SOL    HW284437  11.854   3.443   2.193
27514SOL     OW84438   7.828   6.710   3.754
27514SOL    HW184439   7.790   6.710   3.666
27514SOL    HW284440   7.835   6.803   3.777
27515SOL     OW84441  11.106  12.455   8.672
27515SOL    HW184442  11.036  12.496   8.621
27515SOL    HW284443  11.150  12.528   8.715
27516SOL     OW84444  11.319   0.243  14.387
27516SOL    HW184445  11.382   0.172  14.400
27516SOL    HW284446  11.362   0.320  14.422
27517SOL     OW84447   3.848   2.078   5.153
27517SOL    HW184448   3.783   2.015   5.185
27517SOL    HW284449   3.928   2.056   5.201
27518SOL     OW84450  11.147  12.819  11.738
27518SOL    HW184451  11.057  12.823  11.769
27518SOL    HW284452  11.200  12.815  11.818
27519SOL     OW84453   9.407   5.523   7.474
27519SOL    HW184454   9.424   5.507   7.381
27519SOL    HW284455   9.422   5.438   7.516
27520SOL     OW84456  12.106  12.634   2.192
27520SOL    HW184457  12.059  12.707   2.151
27520SOL    HW284458  12.174  12.611   2.128
27521SOL     OW84459   1.772   1.924  12.181
27521SOL    HW184460   1.740   2.012  12.201
27521SOL    HW284461   1.712   1.866  12.229
27522SOL     OW84462   0.890   2.217  13.107
27522SOL    HW184463   0.801   2.221  13.142
27522SOL    HW284464   0.882   2.166  13.026
27523SOL     OW84465   0.981   1.746  10.346
27523SOL    HW184466   0.889   1.723  10.333
27523SOL    HW284467   0.978   1.834  10.384
27524SOL     OW84468  13.001  12.536   5.141
27524SOL    HW184469  12.969  12.447   5.127
27524SOL    HW284470  12.945  12.571   5.210
27525SOL     OW84471   4.455   9.737   1.503
27525SOL    HW184472   4.481   9.654   1.463
27525SOL    HW284473   4.536   9.789   1.505
27526SOL     OW84474   1.729   9.043   2.993
27526SOL    HW184475   1.700   9.082   2.910
27526SOL    HW284476   1.736   9.118   3.053
27527SOL     OW84477   3.397  10.896  12.786
27527SOL    HW184478   3.401  10.936  12.699
27527SOL    HW284479   3.404  10.802  12.769
27528SOL     OW84480   9.701  12.798   9.623
27528SOL    HW184481   9.701  12.872   9.562
27528SOL    HW284482   9.794  12.778   9.636
27529SOL     OW84483  13.955  13.477   6.276
27529SOL    HW184484  14.040  13.522   6.283
27529SOL    HW284485  13.957  13.413   6.348
27530SOL     OW84486   4.843   7.588   8.821
27530SOL    HW184487   4.802   7.502   8.810
27530SOL    HW284488   4.931   7.568   8.854
27531SOL     OW84489  14.610   7.587   1.463
27531SOL    HW184490  14.588   7.549   1.378
27531SOL    HW284491  14.705   7.597   1.461
27532SOL     OW84492   5.920   7.141   7.780
27532SOL    HW184493   5.848   7.200   7.757
27532SOL    HW284494   5.936   7.159   7.873
27533SOL     OW84495  14.321  13.556   8.622
27533SOL    HW184496  14.358  13.503   8.552
27533SOL    HW284497  14.337  13.506   8.702
27534SOL     OW84498  14.408  13.908   6.144
27534SOL    HW184499  14.326  13.935   6.187
27534SOL    HW284500  14.475  13.963   6.184
27535SOL     OW84501   7.189  11.694   7.278
27535SOL    HW184502   7.110  11.742   7.252
27535SOL    HW284503   7.259  11.759   7.275
27536SOL     OW84504   5.436   3.685   9.672
27536SOL    HW184505   5.513   3.673   9.617
27536SOL    HW284506   5.471   3.709   9.758
27537SOL     OW84507  11.296   0.776   0.252
27537SOL    HW184508  11.296   0.834   0.176
27537SOL    HW284509  11.260   0.829   0.323
27538SOL     OW84510  11.288  11.440   3.384
27538SOL    HW184511  11.331  11.361   3.353
27538SOL    HW284512  11.347  11.475   3.451
27539SOL     OW84513   8.183   2.862  14.291
27539SOL    HW184514   8.279   2.863  14.280
27539SOL    HW284515   8.160   2.954  14.301
27540SOL     OW84516   7.420  10.051  10.891
27540SOL    HW184517   7.421   9.974  10.947
27540SOL    HW284518   7.508  10.055  10.853
27541SOL     OW84519  14.482   3.849  12.752
27541SOL    HW184520  14.565   3.802  12.743
27541SOL    HW284521  14.415   3.781  12.746
27542SOL     OW84522   0.505   3.216  12.141
27542SOL    HW184523   0.586   3.182  12.179
27542SOL    HW284524   0.533   3.283  12.079
27543SOL     OW84525   7.125   4.214   3.111
27543SOL    HW184526   7.095   4.273   3.180
27543SOL    HW284527   7.184   4.267   3.058
27544SOL     OW84528   3.218   3.702  11.799
27544SOL    HW184529   3.250   3.769  11.859
27544SOL    HW284530   3.289   3.638  11.794
27545SOL     OW84531   0.922   4.117   8.731
27545SOL    HW184532   0.908   4.031   8.691
27545SOL    HW284533   0.920   4.178   8.657
27546SOL     OW84534   5.074   0.546  10.828
27546SOL    HW184535   5.098   0.479  10.764
27546SOL    HW284536   5.148   0.607  10.828
27547SOL     OW84537  12.237   0.257   2.720
27547SOL    HW184538  12.248   0.228   2.810
27547SOL    HW284539  12.325   0.284   2.692
27548SOL     OW84540   8.304   1.877  11.549
27548SOL    HW184541   8.309   1.970  11.571
27548SOL    HW284542   8.387   1.841  11.579
27549SOL     OW84543   5.725   1.819   3.928
27549SOL    HW184544   5.711   1.907   3.962
27549SOL    HW284545   5.811   1.823   3.886
27550SOL     OW84546  13.624   2.615   0.939
27550SOL    HW184547  13.596   2.659   0.859
27550SOL    HW284548  13.706   2.659   0.963
27551SOL     OW84549   8.047   0.388  13.071
27551SOL    HW184550   8.120   0.395  13.132
27551SOL    HW284551   8.028   0.479  13.046
27552SOL     OW84552   1.811   1.646   7.088
27552SOL    HW184553   1.850   1.702   7.155
27552SOL    HW284554   1.820   1.696   7.007
27553SOL     OW84555  12.057   7.339  14.189
27553SOL    HW184556  12.045   7.358  14.096
27553SOL    HW284557  12.092   7.249  14.191
27554SOL     OW84558   3.662  13.551   1.368
27554SOL    HW184559   3.664  13.602   1.449
27554SOL    HW284560   3.753  13.523   1.356
27555SOL     OW84561   7.499   6.673   7.500
27555SOL    HW184562   7.453   6.724   7.567
27555SOL    HW284563   7.484   6.582   7.524
27556SOL     OW84564   6.406   4.107  11.110
27556SOL    HW184565   6.443   4.110  11.199
27556SOL    HW284566   6.412   4.197  11.079
27557SOL     OW84567  12.795   0.572   3.550
27557SOL    HW184568  12.848   0.650   3.568
27557SOL    HW284569  12.781   0.532   3.637
27558SOL     OW84570  14.292   0.578   2.078
27558SOL    HW184571  14.313   0.515   2.009
27558SOL    HW284572  14.294   0.526   2.159
27559SOL     OW84573   3.329  14.306   0.590
27559SOL    HW184574   3.377  14.353   0.658
27559SOL    HW284575   3.275  14.373   0.548
27560SOL     OW84576  11.966  11.711   2.605
27560SOL    HW184577  11.970  11.661   2.687
27560SOL    HW284578  12.022  11.662   2.545
27561SOL     OW84579   5.463   7.072   6.637
27561SOL    HW184580   5.541   7.087   6.584
27561SOL    HW284581   5.438   7.158   6.669
27562SOL     OW84582   8.254  12.561  14.432
27562SOL    HW184583   8.223  12.500  14.499
27562SOL    HW284584   8.300  12.506  14.368
27563SOL     OW84585   8.957   4.649   7.873
27563SOL    HW184586   8.869   4.677   7.898
27563SOL    HW284587   8.995   4.615   7.954
27564SOL     OW84588   1.063   5.245   0.252
27564SOL    HW184589   1.066   5.190   0.330
27564SOL    HW284590   0.977   5.288   0.258
27565SOL     OW84591  14.188   5.783   8.225
27565SOL    HW184592  14.135   5.733   8.163
27565SOL    HW284593  14.155   5.872   8.218
27566SOL     OW84594   3.720   1.605  10.387
27566SOL    HW184595   3.643   1.595  10.329
27566SOL    HW284596   3.784   1.544  10.350
27567SOL     OW84597   9.176   8.694   7.067
27567SOL    HW184598   9.246   8.705   7.131
27567SOL    HW284599   9.219   8.702   6.982
27568SOL     OW84600   9.484   3.587   5.349
27568SOL    HW184601   9.454   3.500   5.323
27568SOL    HW284602   9.419   3.647   5.311
27569SOL     OW84603   4.730   7.896   2.855
27569SOL    HW184604   4.686   7.884   2.939
27569SOL    HW284605   4.812   7.939   2.877
27570SOL     OW84606  14.596  12.491   8.933
27570SOL    HW184607  14.557  12.409   8.902
27570SOL    HW284608  14.524  12.554   8.928
27571SOL     OW84609  11.632   7.504  14.292
27571SOL    HW184610  11.557   7.559  14.317
27571SOL    HW284611  11.593   7.431  14.244
27572SOL     OW84612   8.507   9.042  11.114
27572SOL    HW184613   8.417   9.009  11.126
27572SOL    HW284614   8.555   8.966  11.081
27573SOL     OW84615   8.412   0.975  13.076
27573SOL    HW184616   8.407   0.899  13.132
27573SOL    HW284617   8.330   1.023  13.092
27574SOL     OW84618  11.314   1.561   4.298
27574SOL    HW184619  11.284   1.471   4.284
27574SOL    HW284620  11.406   1.560   4.275
27575SOL     OW84621   3.261   4.389   9.681
27575SOL    HW184622   3.225   4.351   9.762
27575SOL    HW284623   3.184   4.414   9.631
27576SOL     OW84624   4.742  11.069   5.576
27576SOL    HW184625   4.665  11.080   5.631
27576SOL    HW284626   4.722  11.115   5.495
27577SOL     OW84627   7.215  10.076   7.725
27577SOL    HW184628   7.241  10.005   7.666
27577SOL    HW284629   7.287  10.138   7.722
27578SOL     OW84630   3.730  11.598   8.680
27578SOL    HW184631   3.654  11.628   8.730
27578SOL    HW284632   3.805  11.621   8.735
27579SOL     OW84633   9.054  14.028   1.669
27579SOL    HW184634   9.047  14.114   1.628
27579SOL    HW284635   8.975  13.982   1.641
27580SOL     OW84636   3.298   7.622   6.166
27580SOL    HW184637   3.301   7.537   6.210
27580SOL    HW284638   3.305   7.686   6.237
27581SOL     OW84639  14.194   2.846  14.718
27581SOL    HW184640  14.204   2.761  14.676
27581SOL    HW284641  14.281   2.864  14.755
27582SOL     OW84642   0.767   5.550   7.869
27582SOL    HW184643   0.776   5.515   7.781
27582SOL    HW284644   0.703   5.493   7.912
27583SOL     OW84645   3.191  12.443  10.480
27583SOL    HW184646   3.262  12.492  10.438
27583SOL    HW284647   3.193  12.357  10.438
27584SOL     OW84648   6.794  13.215  11.516
27584SOL    HW184649   6.786  13.285  11.451
27584SOL    HW284650   6.775  13.259  11.600
27585SOL     OW84651   7.215   2.239   4.166
27585SOL    HW184652   7.219   2.145   4.150
27585SOL    HW284653   7.151   2.271   4.102
27586SOL     OW84654   2.845   7.610   8.884
27586SOL    HW184655   2.858   7.638   8.793
27586SOL    HW284656   2.782   7.672   8.919
27587SOL     OW84657   5.588   2.966   6.588
27587SOL    HW184658   5.548   2.992   6.505
27587SOL    HW284659   5.664   2.914   6.562
27588SOL     OW84660   1.912   3.341   5.628
27588SOL    HW184661   1.847   3.291   5.677
27588SOL    HW284662   1.956   3.395   5.694
27589SOL     OW84663   4.905   3.386  11.690
27589SOL    HW184664   4.922   3.328  11.765
27589SOL    HW284665   4.860   3.331  11.627
27590SOL     OW84666   2.348  12.738   9.667
27590SOL    HW184667   2.428  12.763   9.621
27590SOL    HW284668   2.298  12.819   9.674
27591SOL     OW84669   9.695   5.781  12.650
27591SOL    HW184670   9.673   5.768  12.557
27591SOL    HW284671   9.639   5.853  12.678
27592SOL     OW84672  10.434   4.572  13.194
27592SOL    HW184673  10.501   4.632  13.228
27592SOL    HW284674  10.456   4.487  13.233
27593SOL     OW84675   8.256   7.647  10.181
27593SOL    HW184676   8.184   7.589  10.156
27593SOL    HW284677   8.334   7.604  10.146
27594SOL     OW84678   5.099  13.191   8.448
27594SOL    HW184679   5.040  13.118   8.434
27594SOL    HW284680   5.124  13.184   8.541
27595SOL     OW84681   8.233   8.893   3.734
27595SOL    HW184682   8.319   8.855   3.714
27595SOL    HW284683   8.177   8.818   3.751
27596SOL     OW84684   3.259   2.493   8.358
27596SOL    HW184685   3.207   2.482   8.279
27596SOL    HW284686   3.196   2.520   8.425
27597SOL     OW84687   2.795   9.815  12.365
27597SOL    HW184688   2.809   9.790  12.457
27597SOL    HW284689   2.880   9.800  12.324
27598SOL     OW84690  13.861   2.485   9.715
27598SOL    HW184691  13.783   2.517   9.669
27598SOL    HW284692  13.934   2.516   9.662
27599SOL     OW84693   9.107   7.754  11.474
27599SOL    HW184694   9.146   7.810  11.407
27599SOL    HW284695   9.050   7.694  11.425
27600SOL     OW84696   3.530   6.306   0.806
27600SOL    HW184697   3.543   6.245   0.734
27600SOL    HW284698   3.441   6.289   0.837
27601SOL     OW84699   6.705   2.259  11.012
27601SOL    HW184700   6.681   2.307  10.933
27601SOL    HW284701   6.760   2.187  10.980
27602SOL     OW84702  10.618   8.181  13.729
27602SOL    HW184703  10.613   8.248  13.660
27602SOL    HW284704  10.702   8.198  13.772
27603SOL     OW84705   2.548  13.002  13.638
27603SOL    HW184706   2.452  12.996  13.629
27603SOL    HW284707   2.567  13.095  13.633
27604SOL     OW84708   6.511  14.691   0.601
27604SOL    HW184709   6.487  14.783   0.595
27604SOL    HW284710   6.547  14.670   0.515
27605SOL     OW84711   0.438   0.809   8.846
27605SOL    HW184712   0.364   0.858   8.882
27605SOL    HW284713   0.483   0.873   8.790
27606SOL     OW84714   9.216  13.026   1.850
27606SOL    HW184715   9.280  12.983   1.907
27606SOL    HW284716   9.177  12.956   1.799
27607SOL     OW84717  10.500   5.572  11.106
27607SOL    HW184718  10.534   5.498  11.155
27607SOL    HW284719  10.410   5.547  11.083
27608SOL     OW84720  12.743   5.607   5.007
27608SOL    HW184721  12.747   5.590   4.913
27608SOL    HW284722  12.781   5.530   5.048
27609SOL     OW84723   7.305   9.800   8.362
27609SOL    HW184724   7.322   9.893   8.344
27609SOL    HW284725   7.353   9.782   8.443
27610SOL     OW84726  11.765   1.118   4.015
27610SOL    HW184727  11.812   1.035   4.019
27610SOL    HW284728  11.753   1.134   3.921
27611SOL     OW84729   2.417  11.367   9.257
27611SOL    HW184730   2.418  11.351   9.163
27611SOL    HW284731   2.409  11.462   9.265
27612SOL     OW84732   4.873  13.286   9.907
27612SOL    HW184733   4.835  13.254   9.825
27612SOL    HW284734   4.824  13.365   9.928
27613SOL     OW84735   4.921  12.203  11.670
27613SOL    HW184736   4.938  12.281  11.724
27613SOL    HW284737   4.941  12.129  11.728
27614SOL     OW84738  14.851   8.061   7.241
27614SOL    HW184739   0.035   8.137   7.268
27614SOL    HW284740   0.010   7.992   7.302
27615SOL     OW84741  14.127   1.172  10.331
27615SOL    HW184742  14.070   1.150  10.257
27615SOL    HW284743  14.066   1.196  10.401
27616SOL     OW84744   1.103  13.331  11.077
27616SOL    HW184745   1.058  13.251  11.104
27616SOL    HW284746   1.083  13.394  11.147
27617SOL     OW84747   1.675   3.593   3.510
27617SOL    HW184748   1.757   3.643   3.507
27617SOL    HW284749   1.700   3.506   3.479
27618SOL     OW84750   8.279  13.267   9.337
27618SOL    HW184751   8.219  13.203   9.376
27618SOL    HW284752   8.358  13.217   9.317
27619SOL     OW84753  13.474   8.551  14.330
27619SOL    HW184754  13.556   8.509  14.357
27619SOL    HW284755  13.410   8.525  14.397
27620SOL     OW84756   7.422   2.783  13.608
27620SOL    HW184757   7.467   2.796  13.525
27620SOL    HW284758   7.369   2.705  13.595
27621SOL     OW84759   2.524   1.083   7.851
27621SOL    HW184760   2.593   1.095   7.786
27621SOL    HW284761   2.515   1.168   7.892
27622SOL     OW84762   4.813   0.130   1.403
27622SOL    HW184763   4.797   0.072   1.477
27622SOL    HW284764   4.747   0.199   1.411
27623SOL     OW84765  14.499  13.242   0.367
27623SOL    HW184766  14.561  13.252   0.295
27623SOL    HW284767  14.415  13.224   0.325
27624SOL     OW84768   6.178   0.087   2.923
27624SOL    HW184769   6.223   0.096   2.839
27624SOL    HW284770   6.111   0.156   2.921
27625SOL     OW84771   9.407   6.231   0.680
27625SOL    HW184772   9.356   6.239   0.761
27625SOL    HW284773   9.466   6.307   0.682
27626SOL     OW84774   0.782   8.776  13.433
27626SOL    HW184775   0.837   8.712  13.480
27626SOL    HW284776   0.773   8.739  13.345
27627SOL     OW84777  12.187   2.190  12.446
27627SOL    HW184778  12.127   2.135  12.396
27627SOL    HW284779  12.214   2.135  12.519
27628SOL     OW84780   9.888  10.690   1.342
27628SOL    HW184781   9.916  10.651   1.424
27628SOL    HW284782   9.929  10.776   1.341
27629SOL     OW84783  12.651   0.607   8.711
27629SOL    HW184784  12.583   0.541   8.723
27629SOL    HW284785  12.638   0.667   8.784
27630SOL     OW84786  12.951   1.534  11.916
27630SOL    HW184787  12.985   1.619  11.886
27630SOL    HW284788  13.027   1.488  11.950
27631SOL     OW84789  12.776   0.452   3.789
27631SOL    HW184790  12.701   0.406   3.751
27631SOL    HW284791  12.744   0.483   3.874
27632SOL     OW84792   2.461   7.357  12.057
27632SOL    HW184793   2.497   7.339  12.144
27632SOL    HW284794   2.367   7.342  12.066
27633SOL     OW84795   9.630   4.860  12.615
27633SOL    HW184796   9.665   4.777  12.647
27633SOL    HW284797   9.675   4.927  12.667
27634SOL     OW84798   0.595  10.183   9.047
27634SOL    HW184799   0.611  10.221   9.133
27634SOL    HW284800   0.579  10.258   8.990
27635SOL     OW84801  13.337   9.579  10.041
27635SOL    HW184802  13.353   9.574   9.947
27635SOL    HW284803  13.250   9.619  10.048
27636SOL     OW84804   1.406   3.281   7.189
27636SOL    HW184805   1.416   3.190   7.161
27636SOL    HW284806   1.354   3.322   7.119
27637SOL     OW84807   3.063   7.309   7.335
27637SOL    HW184808   3.151   7.316   7.299
27637SOL    HW284809   3.040   7.217   7.326
27638SOL     OW84810  14.127   9.234   1.563
27638SOL    HW184811  14.114   9.224   1.657
27638SOL    HW284812  14.141   9.328   1.551
27639SOL     OW84813  12.035  10.779  10.980
27639SOL    HW184814  12.122  10.791  10.944
27639SOL    HW284815  12.050  10.755  11.072
27640SOL     OW84816   5.409   6.230   6.484
27640SOL    HW184817   5.325   6.188   6.504
27640SOL    HW284818   5.457   6.165   6.433
27641SOL     OW84819   7.528  11.174  10.390
27641SOL    HW184820   7.484  11.216  10.316
27641SOL    HW284821   7.458  11.151  10.450
27642SOL     OW84822  10.204   9.151   4.095
27642SOL    HW184823  10.200   9.195   4.010
27642SOL    HW284824  10.244   9.066   4.076
27643SOL     OW84825   5.902   3.097   0.221
27643SOL    HW184826   5.858   3.118   0.139
27643SOL    HW284827   5.995   3.094   0.199
27644SOL     OW84828   6.776  11.338   8.574
27644SOL    HW184829   6.805  11.429   8.576
27644SOL    HW284830   6.695  11.337   8.625
27645SOL     OW84831  14.440  10.423   8.641
27645SOL    HW184832  14.443  10.389   8.731
27645SOL    HW284833  14.509  10.489   8.638
27646SOL     OW84834   0.715   0.927   0.529
27646SOL    HW184835   0.623   0.918   0.552
27646SOL    HW284836   0.719   0.906   0.436
27647SOL     OW84837   2.165  11.724  14.346
27647SOL    HW184838   2.259  11.706  14.335
27647SOL    HW284839   2.162  11.802  14.401
27648SOL     OW84840   2.269   6.921   9.543
27648SOL    HW184841   2.264   6.829   9.565
27648SOL    HW284842   2.345   6.928   9.485
27649SOL     OW84843  12.113  10.088   5.107
27649SOL    HW184844  12.199  10.130   5.108
27649SOL    HW284845  12.125  10.009   5.055
27650SOL     OW84846  12.405   5.604  10.471
27650SOL    HW184847  12.354   5.660  10.530
27650SOL    HW284848  12.346   5.588  10.397
27651SOL     OW84849  11.794   0.113   5.008
27651SOL    HW184850  11.798   0.046   5.077
27651SOL    HW284851  11.714   0.162   5.028
27652SOL     OW84852   6.542   4.568  12.675
27652SOL    HW184853   6.522   4.588  12.766
27652SOL    HW284854   6.627   4.524  12.678
27653SOL     OW84855   4.816   3.215   5.691
27653SOL    HW184856   4.875   3.274   5.642
27653SOL    HW284857   4.770   3.273   5.752
27654SOL     OW84858  13.744   9.593   9.439
27654SOL    HW184859  13.681   9.530   9.403
27654SOL    HW284860  13.781   9.549   9.515
27655SOL     OW84861   8.894   7.679   1.456
27655SOL    HW184862   8.916   7.632   1.375
27655SOL    HW284863   8.825   7.626   1.496
27656SOL     OW84864  11.138  14.670   0.569
27656SOL    HW184865  11.124  14.581   0.599
27656SOL    HW284866  11.210  14.703   0.622
27657SOL     OW84867   0.109   5.341   8.395
27657SOL    HW184868   0.204   5.357   8.403
27657SOL    HW284869   0.088   5.365   8.305
27658SOL     OW84870  11.476   4.568   1.882
27658SOL    HW184871  11.435   4.620   1.951
27658SOL    HW284872  11.561   4.543   1.919
27659SOL     OW84873   5.567   5.412   1.921
27659SOL    HW184874   5.661   5.405   1.938
27659SOL    HW284875   5.535   5.322   1.926
27660SOL     OW84876   7.174   6.269  12.389
27660SOL    HW184877   7.127   6.260  12.472
27660SOL    HW284878   7.135   6.202  12.332
27661SOL     OW84879  10.140   5.281  13.232
27661SOL    HW184880  10.094   5.353  13.188
27661SOL    HW284881  10.187   5.236  13.162
27662SOL     OW84882   3.508   2.629   4.145
27662SOL    HW184883   3.603   2.640   4.144
27662SOL    HW284884   3.487   2.607   4.235
27663SOL     OW84885  13.524   5.038   1.878
27663SOL    HW184886  13.592   5.096   1.912
27663SOL    HW284887  13.533   5.045   1.783
27664SOL     OW84888   5.402   0.198   4.889
27664SOL    HW184889   5.323   0.159   4.853
27664SOL    HW284890   5.437   0.251   4.818
27665SOL     OW84891   9.086   5.910  10.633
27665SOL    HW184892   9.128   5.874  10.711
27665SOL    HW284893   9.158   5.941  10.579
27666SOL     OW84894   8.225   7.834   2.619
27666SOL    HW184895   8.286   7.771   2.657
27666SOL    HW284896   8.203   7.798   2.533
27667SOL     OW84897   9.149   6.210  11.176
27667SOL    HW184898   9.187   6.137  11.127
27667SOL    HW284899   9.074   6.171  11.222
27668SOL     OW84900   4.755  13.422   5.548
27668SOL    HW184901   4.741  13.328   5.560
27668SOL    HW284902   4.671  13.456   5.520
27669SOL     OW84903   3.930   9.186   8.034
27669SOL    HW184904   3.863   9.122   8.008
27669SOL    HW284905   3.886   9.271   8.028
27670SOL     OW84906   8.163   5.875  10.375
27670SOL    HW184907   8.207   5.960  10.374
27670SOL    HW284908   8.124   5.866  10.288
27671SOL     OW84909   4.908   1.900   9.094
27671SOL    HW184910   4.938   1.895   9.003
27671SOL    HW284911   4.972   1.955   9.138
27672SOL     OW84912   4.771  12.717   0.074
27672SOL    HW184913   4.821  12.782   0.124
27672SOL    HW284914   4.790  12.633   0.116
27673SOL     OW84915  10.130   8.039  11.148
27673SOL    HW184916  10.223   8.053  11.131
27673SOL    HW284917  10.086   8.112  11.105
27674SOL     OW84918   3.315   0.103  13.913
27674SOL    HW184919   3.341   0.025  13.962
27674SOL    HW284920   3.223   0.087  13.890
27675SOL     OW84921   2.916   6.048   8.896
27675SOL    HW184922   2.824   6.026   8.909
27675SOL    HW284923   2.944   5.993   8.823
27676SOL     OW84924   9.382   5.242   4.312
27676SOL    HW184925   9.444   5.271   4.379
27676SOL    HW284926   9.369   5.319   4.257
27677SOL     OW84927  12.662   4.098   7.894
27677SOL    HW184928  12.566   4.100   7.892
27677SOL    HW284929  12.684   4.005   7.885
27678SOL     OW84930   6.917   1.915  11.709
27678SOL    HW184931   6.908   2.004  11.675
27678SOL    HW284932   6.921   1.926  11.804
27679SOL     OW84933   9.293  11.695   7.994
27679SOL    HW184934   9.248  11.612   7.980
27679SOL    HW284935   9.280  11.714   8.086
27680SOL     OW84936   9.112  11.883   4.091
27680SOL    HW184937   9.075  11.855   4.175
27680SOL    HW284938   9.083  11.817   4.028
27681SOL     OW84939  14.189   0.984  12.099
27681SOL    HW184940  14.275   0.983  12.140
27681SOL    HW284941  14.203   1.034  12.018
27682SOL     OW84942   2.312  10.313   1.230
27682SOL    HW184943   2.331  10.256   1.156
27682SOL    HW284944   2.397  10.338   1.264
27683SOL     OW84945   0.950  14.815  12.232
27683SOL    HW184946   0.871  14.867  12.236
27683SOL    HW284947   1.012  14.868  12.181
27684SOL     OW84948  13.327  10.027   3.339
27684SOL    HW184949  13.421  10.042   3.339
27684SOL    HW284950  13.299  10.049   3.250
27685SOL     OW84951   9.065   9.958   0.274
27685SOL    HW184952   9.057  10.014   0.352
27685SOL    HW284953   9.149   9.982   0.236
27686SOL     OW84954  10.626   5.813   2.722
27686SOL    HW184955  10.643   5.757   2.647
27686SOL    HW284956  10.692   5.882   2.716
27687SOL     OW84957   1.857  10.025  11.910
27687SOL    HW184958   1.848  10.020  12.005
27687SOL    HW284959   1.918  10.098  11.896
27688SOL     OW84960   2.217   9.594  10.260
27688SOL    HW184961   2.262   9.663  10.308
27688SOL    HW284962   2.272   9.516  10.271
27689SOL     OW84963   2.001   9.869   7.567
27689SOL    HW184964   2.003   9.784   7.523
27689SOL    HW284965   2.022   9.932   7.498
27690SOL     OW84966   6.733  11.063  12.942
27690SOL    HW184967   6.655  11.118  12.944
27690SOL    HW284968   6.803  11.122  12.916
27691SOL     OW84969   8.265   9.173  10.294
27691SOL    HW184970   8.266   9.261  10.332
27691SOL    HW284971   8.173   9.158  10.271
27692SOL     OW84972  11.013   7.217   0.525
27692SOL    HW184973  10.940   7.248   0.472
27692SOL    HW284974  10.972   7.166   0.595
27693SOL     OW84975   5.220   5.185   3.726
27693SOL    HW184976   5.194   5.139   3.646
27693SOL    HW284977   5.307   5.220   3.706
27694SOL     OW84978  12.404   4.897   4.497
27694SOL    HW184979  12.403   4.985   4.460
27694SOL    HW284980  12.497   4.880   4.516
27695SOL     OW84981   9.772  13.623   3.192
27695SOL    HW184982   9.702  13.594   3.133
27695SOL    HW284983   9.739  13.706   3.227
27696SOL     OW84984   9.197  14.069  10.025
27696SOL    HW184985   9.245  13.987  10.010
27696SOL    HW284986   9.137  14.076   9.951
27697SOL     OW84987   1.101   5.531   6.763
27697SOL    HW184988   1.126   5.619   6.738
27697SOL    HW284989   1.093   5.483   6.681
27698SOL     OW84990   8.293   2.422  11.193
27698SOL    HW184991   8.357   2.361  11.156
27698SOL    HW284992   8.242   2.369  11.254
27699SOL     OW84993  10.928  10.914   5.677
27699SOL    HW184994  10.868  10.976   5.635
27699SOL    HW284995  10.877  10.833   5.684
27700SOL     OW84996   7.451   0.538   1.941
27700SOL    HW184997   7.449   0.558   1.847
27700SOL    HW284998   7.525   0.590   1.974
27701SOL     OW84999   8.390  13.244   7.982
27701SOL    HW185000   8.329  13.312   7.954
27701SOL    HW285001   8.340  13.190   8.043
27702SOL     OW85002   0.137  12.692  12.321
27702SOL    HW185003   0.194  12.702  12.245
27702SOL    HW285004   0.058  12.741  12.297
27703SOL     OW85005   9.452  14.593   0.397
27703SOL    HW185006   9.503  14.616   0.319
27703SOL    HW285007   9.424  14.503   0.381
27704SOL     OW85008   6.521   1.470  12.017
27704SOL    HW185009   6.526   1.385  12.061
27704SOL    HW285010   6.612   1.493  11.998
27705SOL     OW85011   4.993   2.965  14.226
27705SOL    HW185012   5.045   3.017  14.165
27705SOL    HW285013   4.924   2.927  14.171
27706SOL     OW85014  12.122   5.582   5.511
27706SOL    HW185015  12.050   5.633   5.474
27706SOL    HW285016  12.099   5.491   5.491
27707SOL     OW85017   3.997   4.263  11.417
27707SOL    HW185018   3.955   4.203  11.355
27707SOL    HW285019   4.071   4.213  11.450
27708SOL     OW85020  12.175   9.969   4.306
27708SOL    HW185021  12.142   9.881   4.289
27708SOL    HW285022  12.170   9.979   4.401
27709SOL     OW85023   3.941   6.609   7.620
27709SOL    HW185024   3.964   6.631   7.530
27709SOL    HW285025   4.025   6.607   7.667
27710SOL     OW85026   8.462   8.976   5.506
27710SOL    HW185027   8.370   8.987   5.482
27710SOL    HW285028   8.470   9.018   5.592
27711SOL     OW85029   7.579   5.708   1.896
27711SOL    HW185030   7.511   5.689   1.831
27711SOL    HW285031   7.656   5.732   1.843
27712SOL     OW85032  11.450  10.439  10.270
27712SOL    HW185033  11.524  10.393  10.308
27712SOL    HW285034  11.411  10.375  10.210
27713SOL     OW85035   1.834   6.725   0.768
27713SOL    HW185036   1.769   6.776   0.817
27713SOL    HW285037   1.786   6.648   0.737
27714SOL     OW85038  10.325   1.464  14.450
27714SOL    HW185039  10.329   1.375  14.487
27714SOL    HW285040  10.416   1.488  14.435
27715SOL     OW85041   9.393   5.097  14.785
27715SOL    HW185042   9.480   5.074  14.752
27715SOL    HW285043   9.405   5.180  14.830
27716SOL     OW85044   0.142  10.802   6.626
27716SOL    HW185045   0.148  10.886   6.580
27716SOL    HW285046   0.218  10.753   6.595
27717SOL     OW85047  13.653  14.846   3.404
27717SOL    HW185048  13.585  14.782   3.383
27717SOL    HW285049  13.616   0.028   3.477
27718SOL     OW85050   0.417   1.846   8.472
27718SOL    HW185051   0.473   1.840   8.550
27718SOL    HW285052   0.328   1.858   8.508
27719SOL     OW85053  13.960  10.865   2.114
27719SOL    HW185054  14.030  10.821   2.065
27719SOL    HW285055  13.886  10.804   2.109
27720SOL     OW85056   9.163   8.338   1.900
27720SOL    HW185057   9.115   8.419   1.884
27720SOL    HW285058   9.149   8.319   1.993
27721SOL     OW85059   3.997  14.183   4.787
27721SOL    HW185060   4.086  14.207   4.765
27721SOL    HW285061   3.991  14.090   4.765
27722SOL     OW85062   8.034  11.725   4.853
27722SOL    HW185063   7.948  11.724   4.894
27722SOL    HW285064   8.024  11.782   4.777
27723SOL     OW85065   4.414  10.199   8.833
27723SOL    HW185066   4.498  10.185   8.790
27723SOL    HW285067   4.430  10.176   8.925
27724SOL     OW85068  10.492   4.371  14.460
27724SOL    HW185069  10.536   4.301  14.411
27724SOL    HW285070  10.555   4.443  14.461
27725SOL     OW85071  12.610  11.229   2.755
27725SOL    HW185072  12.581  11.315   2.726
27725SOL    HW285073  12.530  11.177   2.762
27726SOL     OW85074   0.146   1.925  10.022
27726SOL    HW185075   0.104   1.951  10.104
27726SOL    HW285076   0.077   1.882   9.972
27727SOL     OW85077   5.552  10.480   3.106
27727SOL    HW185078   5.538  10.387   3.087
27727SOL    HW285079   5.639  10.484   3.146
27728SOL     OW85080   2.845   4.893   4.996
27728SOL    HW185081   2.802   4.977   5.007
27728SOL    HW285082   2.850   4.856   5.085
27729SOL     OW85083   3.818   4.690   5.708
27729SOL    HW185084   3.847   4.642   5.785
27729SOL    HW285085   3.888   4.753   5.691
27730SOL     OW85086   4.319   1.158   3.987
27730SOL    HW185087   4.397   1.124   4.032
27730SOL    HW285088   4.285   1.225   4.045
27731SOL     OW85089  13.271   4.018  13.167
27731SOL    HW185090  13.310   3.993  13.250
27731SOL    HW285091  13.337   3.998  13.101
27732SOL     OW85092   1.321   9.199   5.321
27732SOL    HW185093   1.352   9.118   5.281
27732SOL    HW285094   1.230   9.207   5.292
27733SOL     OW85095   0.034   9.158   0.154
27733SOL    HW185096   0.015   9.066   0.138
27733SOL    HW285097   0.112   9.176   0.101
27734SOL     OW85098   1.579   6.224   6.671
27734SOL    HW185099   1.580   6.272   6.754
27734SOL    HW285100   1.573   6.293   6.604
27735SOL     OW85101   7.452   2.059   7.573
27735SOL    HW185102   7.436   2.070   7.666
27735SOL    HW285103   7.364   2.059   7.534
27736SOL     OW85104   0.749  10.584   3.061
27736SOL    HW185105   0.775  10.676   3.054
27736SOL    HW285106   0.655  10.587   3.075
27737SOL     OW85107   0.906   2.868  13.816
27737SOL    HW185108   0.961   2.794  13.791
27737SOL    HW285109   0.891   2.855  13.910
27738SOL     OW85110  10.933  11.605   0.986
27738SOL    HW185111  10.879  11.623   1.063
27738SOL    HW285112  10.895  11.659   0.917
27739SOL     OW85113  13.163   0.324   8.112
27739SOL    HW185114  13.126   0.320   8.200
27739SOL    HW285115  13.258   0.325   8.126
27740SOL     OW85116  13.927  11.418   5.407
27740SOL    HW185117  13.952  11.470   5.330
27740SOL    HW285118  13.892  11.482   5.469
27741SOL     OW85119  10.228   1.511  11.324
27741SOL    HW185120  10.281   1.515  11.244
27741SOL    HW285121  10.229   1.418  11.347
27742SOL     OW85122  13.906   6.305   1.856
27742SOL    HW185123  13.847   6.256   1.914
27742SOL    HW285124  13.897   6.263   1.771
27743SOL     OW85125  14.135  13.235   2.161
27743SOL    HW185126  14.193  13.160   2.177
27743SOL    HW285127  14.194  13.307   2.138
27744SOL     OW85128  11.724   1.624   3.391
27744SOL    HW185129  11.634   1.657   3.390
27744SOL    HW285130  11.777   1.698   3.362
27745SOL     OW85131   4.494   7.020  12.403
27745SOL    HW185132   4.504   7.113  12.387
27745SOL    HW285133   4.408   6.998  12.368
27746SOL     OW85134  11.054  10.731   1.513
27746SOL    HW185135  11.077  10.809   1.563
27746SOL    HW285136  11.031  10.666   1.579
27747SOL     OW85137  11.070   3.906  12.013
27747SOL    HW185138  11.001   3.952  11.965
27747SOL    HW285139  11.101   3.840  11.952
27748SOL     OW85140  11.566  12.385  14.010
27748SOL    HW185141  11.646  12.406  13.962
27748SOL    HW285142  11.562  12.290  14.011
27749SOL     OW85143   9.546  14.232   2.243
27749SOL    HW185144   9.600  14.220   2.165
27749SOL    HW285145   9.607  14.265   2.310
27750SOL     OW85146   4.795   0.344   8.279
27750SOL    HW185147   4.873   0.370   8.328
27750SOL    HW285148   4.822   0.347   8.187
27751SOL     OW85149  13.924   6.851   5.995
27751SOL    HW185150  13.992   6.870   5.930
27751SOL    HW285151  13.842   6.857   5.947
27752SOL     OW85152   0.241   7.456  13.130
27752SOL    HW185153   0.261   7.405  13.051
27752SOL    HW285154   0.322   7.502  13.150
27753SOL     OW85155  12.845  12.256  14.315
27753SOL    HW185156  12.773  12.227  14.260
27753SOL    HW285157  12.831  12.212  14.399
27754SOL     OW85158  14.475   2.972   8.140
27754SOL    HW185159  14.505   2.911   8.073
27754SOL    HW285160  14.451   2.917   8.214
27755SOL     OW85161   8.135  13.969   6.814
27755SOL    HW185162   8.070  14.039   6.823
27755SOL    HW285163   8.170  13.980   6.725
27756SOL     OW85164   3.629   8.657  10.329
27756SOL    HW185165   3.710   8.610  10.347
27756SOL    HW285166   3.579   8.598  10.274
27757SOL     OW85167   8.139  11.553   7.410
27757SOL    HW185168   8.230  11.580   7.423
27757SOL    HW285169   8.095  11.629   7.372
27758SOL     OW85170  14.412   0.578   0.377
27758SOL    HW185171  14.410   0.574   0.473
27758SOL    HW285172  14.479   0.644   0.357
27759SOL     OW85173   0.077   1.915   2.617
27759SOL    HW185174   0.007   1.923   2.682
27759SOL    HW285175   0.105   2.005   2.600
27760SOL     OW85176  11.279   9.399   9.181
27760SOL    HW185177  11.303   9.317   9.225
27760SOL    HW285178  11.256   9.373   9.092
27761SOL     OW85179  13.607   6.783   6.970
27761SOL    HW185180  13.695   6.773   7.006
27761SOL    HW285181  13.596   6.878   6.960
27762SOL     OW85182  14.755   8.285   1.180
27762SOL    HW185183  14.783   8.194   1.191
27762SOL    HW285184  14.713   8.307   1.262
27763SOL     OW85185  11.945   0.854   0.808
27763SOL    HW185186  11.930   0.928   0.866
27763SOL    HW285187  11.863   0.806   0.807
27764SOL     OW85188   6.149   1.669   9.580
27764SOL    HW185189   6.081   1.605   9.599
27764SOL    HW285190   6.115   1.721   9.507
27765SOL     OW85191  13.906   1.782   7.418
27765SOL    HW185192  13.936   1.714   7.479
27765SOL    HW285193  13.811   1.772   7.416
27766SOL     OW85194  13.959   5.737   8.696
27766SOL    HW185195  14.008   5.671   8.647
27766SOL    HW285196  14.012   5.817   8.688
27767SOL     OW85197   6.130   0.547  11.933
27767SOL    HW185198   6.088   0.632  11.921
27767SOL    HW285199   6.224   0.565  11.930
27768SOL     OW85200   8.536   7.758   6.129
27768SOL    HW185201   8.550   7.748   6.035
27768SOL    HW285202   8.622   7.744   6.168
27769SOL     OW85203  14.290  10.693  12.652
27769SOL    HW185204  14.244  10.620  12.611
27769SOL    HW285205  14.245  10.708  12.734
27770SOL     OW85206   8.707   8.027  13.564
27770SOL    HW185207   8.780   8.063  13.615
27770SOL    HW285208   8.746   7.957  13.513
27771SOL     OW85209   6.122   5.067   1.410
27771SOL    HW185210   6.217   5.061   1.404
27771SOL    HW285211   6.103   5.160   1.414
27772SOL     OW85212   5.650   7.335   1.389
27772SOL    HW185213   5.625   7.359   1.300
27772SOL    HW285214   5.637   7.241   1.393
27773SOL     OW85215  14.262   2.022   0.220
27773SOL    HW185216  14.220   1.936   0.224
27773SOL    HW285217  14.297   2.028   0.131
27774SOL     OW85218   7.788   4.404  13.705
27774SOL    HW185219   7.836   4.324  13.727
27774SOL    HW285220   7.852   4.474  13.714
27775SOL     OW85221  12.584   6.210  13.903
27775SOL    HW185222  12.671   6.188  13.937
27775SOL    HW285223  12.579   6.163  13.819
27776SOL     OW85224   2.707   8.621  14.114
27776SOL    HW185225   2.640   8.655  14.055
27776SOL    HW285226   2.681   8.652  14.201
27777SOL     OW85227   5.463   5.584   4.608
27777SOL    HW185228   5.404   5.526   4.656
27777SOL    HW285229   5.478   5.539   4.525
27778SOL     OW85230   5.135  11.890   8.067
27778SOL    HW185231   5.217  11.926   8.102
27778SOL    HW285232   5.151  11.796   8.063
27779SOL     OW85233   2.565   2.397   4.554
27779SOL    HW185234   2.623   2.321   4.539
27779SOL    HW285235   2.574   2.449   4.475
27780SOL     OW85236   2.826   7.788   3.777
27780SOL    HW185237   2.864   7.872   3.803
27780SOL    HW285238   2.888   7.752   3.714
27781SOL     OW85239   3.029   8.715   8.936
27781SOL    HW185240   3.000   8.650   8.872
27781SOL    HW285241   3.113   8.681   8.968
27782SOL     OW85242   9.969   1.631  13.468
27782SOL    HW185243   9.893   1.690  13.465
27782SOL    HW285244   9.951   1.572  13.541
27783SOL     OW85245   4.798  12.538   3.803
27783SOL    HW185246   4.866  12.476   3.829
27783SOL    HW285247   4.787  12.595   3.879
27784SOL     OW85248   0.858  13.351  12.880
27784SOL    HW185249   0.771  13.331  12.914
27784SOL    HW285250   0.856  13.322  12.789
27785SOL     OW85251  10.989   3.068   6.387
27785SOL    HW185252  10.904   3.040   6.352
27785SOL    HW285253  10.975   3.075   6.481
27786SOL     OW85254   0.163   7.427   7.357
27786SOL    HW185255   0.194   7.340   7.384
27786SOL    HW285256   0.068   7.420   7.358
27787SOL     OW85257  13.839   8.095   1.769
27787SOL    HW185258  13.904   8.030   1.794
27787SOL    HW285259  13.778   8.098   1.842
27788SOL     OW85260   8.099   3.553   3.162
27788SOL    HW185261   8.163   3.522   3.225
27788SOL    HW285262   8.083   3.477   3.106
27789SOL     OW85263  13.220   2.688   1.882
27789SOL    HW185264  13.171   2.617   1.840
27789SOL    HW285265  13.312   2.661   1.874
27790SOL     OW85266   9.453   5.106  12.089
27790SOL    HW185267   9.482   5.111  11.998
27790SOL    HW285268   9.529   5.134  12.141
27791SOL     OW85269   6.373   0.161  14.555
27791SOL    HW185270   6.350   0.254  14.556
27791SOL    HW285271   6.340   0.127  14.638
27792SOL     OW85272   7.853  11.774  13.646
27792SOL    HW185273   7.875  11.840  13.712
27792SOL    HW285274   7.937  11.750  13.608
27793SOL     OW85275   4.624   3.059   5.515
27793SOL    HW185276   4.601   2.984   5.571
27793SOL    HW285277   4.697   3.101   5.560
27794SOL     OW85278   1.993  12.032   9.787
27794SOL    HW185279   2.050  11.961   9.816
27794SOL    HW285280   1.996  12.028   9.691
27795SOL     OW85281   7.204  13.107  12.906
27795SOL    HW185282   7.121  13.116  12.859
27795SOL    HW285283   7.187  13.041  12.973
27796SOL     OW85284  11.144   8.168   3.265
27796SOL    HW185285  11.145   8.257   3.300
27796SOL    HW285286  11.197   8.173   3.186
27797SOL     OW85287   4.583  10.578  11.092
27797SOL    HW185288   4.635  10.505  11.127
27797SOL    HW285289   4.535  10.539  11.018
27798SOL     OW85290   7.948   3.560   7.513
27798SOL    HW185291   7.945   3.543   7.607
27798SOL    HW285292   7.981   3.650   7.506
27799SOL     OW85293  11.003   6.496   9.851
27799SOL    HW185294  10.954   6.575   9.832
27799SOL    HW285295  11.008   6.450   9.767
27800SOL     OW85296   9.964   8.676   3.919
27800SOL    HW185297   9.987   8.624   3.996
27800SOL    HW285298  10.017   8.639   3.848
27801SOL     OW85299   5.740   1.211   8.856
27801SOL    HW185300   5.784   1.210   8.941
27801SOL    HW285301   5.691   1.293   8.856
27802SOL     OW85302   0.952   6.987  12.718
27802SOL    HW185303   0.922   7.019  12.633
27802SOL    HW285304   0.886   6.921  12.743
27803SOL     OW85305   3.750   0.116   7.704
27803SOL    HW185306   3.826   0.087   7.654
27803SOL    HW285307   3.785   0.148   7.786
27804SOL     OW85308  11.530   0.789  14.442
27804SOL    HW185309  11.540   0.864  14.383
27804SOL    HW285310  11.465   0.817  14.506
27805SOL     OW85311  11.925  10.951  11.802
27805SOL    HW185312  11.902  10.911  11.886
27805SOL    HW285313  12.020  10.964  11.807
27806SOL     OW85314   7.318   3.376   7.289
27806SOL    HW185315   7.390   3.314   7.278
27806SOL    HW285316   7.303   3.412   7.201
27807SOL     OW85317   8.161   2.679  13.447
27807SOL    HW185318   8.080   2.728  13.465
27807SOL    HW285319   8.230   2.746  13.445
27808SOL     OW85320   1.577   4.394  10.581
27808SOL    HW185321   1.485   4.407  10.606
27808SOL    HW285322   1.620   4.476  10.607
27809SOL     OW85323   9.333   7.066   5.533
27809SOL    HW185324   9.264   7.068   5.599
27809SOL    HW285325   9.413   7.084   5.581
27810SOL     OW85326  14.219  12.848  12.729
27810SOL    HW185327  14.310  12.820  12.722
27810SOL    HW285328  14.214  12.893  12.814
27811SOL     OW85329   4.171  11.431   3.916
27811SOL    HW185330   4.263  11.405   3.921
27811SOL    HW285331   4.123  11.358   3.953
27812SOL     OW85332  13.314   0.424   2.316
27812SOL    HW185333  13.273   0.510   2.304
27812SOL    HW285334  13.268   0.368   2.254
27813SOL     OW85335  13.868  12.747  14.447
27813SOL    HW185336  13.823  12.823  14.484
27813SOL    HW285337  13.849  12.751  14.353
27814SOL     OW85338  13.184   2.477   3.487
27814SOL    HW185339  13.268   2.438   3.511
27814SOL    HW285340  13.184   2.563   3.529
27815SOL     OW85341   2.467   6.351   1.299
27815SOL    HW185342   2.431   6.275   1.253
27815SOL    HW285343   2.463   6.327   1.391
27816SOL     OW85344   9.205   2.691   4.068
27816SOL    HW185345   9.198   2.604   4.105
27816SOL    HW285346   9.173   2.681   3.978
27817SOL     OW85347   6.894   5.587   3.963
27817SOL    HW185348   6.889   5.537   3.882
27817SOL    HW285349   6.958   5.656   3.946
27818SOL     OW85350  13.293   3.717   2.963
27818SOL    HW185351  13.330   3.710   3.051
27818SOL    HW285352  13.347   3.782   2.919
27819SOL     OW85353   7.902   3.051   8.863
27819SOL    HW185354   7.858   2.977   8.904
27819SOL    HW285355   7.961   3.085   8.931
27820SOL     OW85356  12.824  10.780   0.191
27820SOL    HW185357  12.827  10.727   0.112
27820SOL    HW285358  12.768  10.854   0.169
27821SOL     OW85359   0.612  12.429  14.716
27821SOL    HW185360   0.652  12.514  14.696
27821SOL    HW285361   0.616  12.422  14.811
27822SOL     OW85362   7.393   9.105   3.650
27822SOL    HW185363   7.416   9.128   3.560
27822SOL    HW285364   7.434   9.173   3.703
27823SOL     OW85365   3.019  10.938   9.759
27823SOL    HW185366   2.981  10.881   9.693
27823SOL    HW285367   3.078  10.996   9.710
27824SOL     OW85368   4.606   7.946   3.654
27824SOL    HW185369   4.515   7.957   3.682
27824SOL    HW285370   4.646   7.893   3.723
27825SOL     OW85371  11.709   4.856  14.768
27825SOL    HW185372  11.800   4.832  14.784
27825SOL    HW285373  11.708   4.891  14.679
27826SOL     OW85374   0.435  14.413  11.728
27826SOL    HW185375   0.443  14.318  11.724
27826SOL    HW285376   0.343  14.430  11.710
27827SOL     OW85377  14.208   8.622   4.232
27827SOL    HW185378  14.216   8.693   4.167
27827SOL    HW285379  14.227   8.665   4.316
27828SOL     OW85380   9.665   4.534   8.017
27828SOL    HW185381   9.658   4.483   7.936
27828SOL    HW285382   9.745   4.586   8.006
27829SOL     OW85383  14.438   4.454   8.384
27829SOL    HW185384  14.372   4.435   8.451
27829SOL    HW285385  14.447   4.549   8.386
27830SOL     OW85386  12.426  11.212   0.724
27830SOL    HW185387  12.464  11.298   0.704
27830SOL    HW285388  12.332  11.225   0.717
27831SOL     OW85389   2.990   7.490   6.598
27831SOL    HW185390   3.083   7.494   6.619
27831SOL    HW285391   2.984   7.526   6.510
27832SOL     OW85392   1.813  11.533  14.747
27832SOL    HW185393   1.837  11.453  14.793
27832SOL    HW285394   1.838  11.517  14.656
27833SOL     OW85395  10.514   5.387   3.772
27833SOL    HW185396  10.472   5.456   3.721
27833SOL    HW285397  10.510   5.418   3.863
27834SOL     OW85398   4.307   4.575  11.394
27834SOL    HW185399   4.313   4.520  11.316
27834SOL    HW285400   4.350   4.525  11.463
27835SOL     OW85401  10.402   8.584   8.481
27835SOL    HW185402  10.437   8.515   8.425
27835SOL    HW285403  10.311   8.559   8.497
27836SOL     OW85404   8.711   4.751   0.745
27836SOL    HW185405   8.734   4.665   0.712
27836SOL    HW285406   8.667   4.735   0.828
27837SOL     OW85407   0.491   2.591  14.749
27837SOL    HW185408   0.433   2.515  14.744
27837SOL    HW285409   0.438   2.664  14.716
27838SOL     OW85410   0.374   0.578   9.004
27838SOL    HW185411   0.390   0.645   8.938
27838SOL    HW285412   0.340   0.504   8.955
27839SOL     OW85413  10.765   6.218   9.702
27839SOL    HW185414  10.708   6.275   9.755
27839SOL    HW285415  10.848   6.215   9.749
27840SOL     OW85416   1.833   6.114   6.960
27840SOL    HW185417   1.903   6.114   7.025
27840SOL    HW285418   1.775   6.044   6.988
27841SOL     OW85419  14.855   5.723  11.821
27841SOL    HW185420   0.014   5.730  11.729
27841SOL    HW285421   0.063   5.687  11.866
27842SOL     OW85422   9.943   7.426   6.459
27842SOL    HW185423   9.965   7.515   6.488
27842SOL    HW285424   9.972   7.423   6.367
27843SOL     OW85425  13.912   7.791   2.398
27843SOL    HW185426  13.931   7.700   2.378
27843SOL    HW285427  13.921   7.836   2.314
27844SOL     OW85428   5.521   3.998   9.688
27844SOL    HW185429   5.567   4.019   9.769
27844SOL    HW285430   5.588   4.008   9.620
27845SOL     OW85431  13.180  10.615   8.580
27845SOL    HW185432  13.142  10.588   8.497
27845SOL    HW285433  13.133  10.564   8.646
27846SOL     OW85434  11.389   8.031  11.304
27846SOL    HW185435  11.413   8.074  11.387
27846SOL    HW285436  11.472   7.999  11.269
27847SOL     OW85437   0.565   0.951   4.080
27847SOL    HW185438   0.487   0.976   4.129
27847SOL    HW285439   0.596   0.872   4.123
27848SOL     OW85440   5.176   1.992   7.565
27848SOL    HW185441   5.268   1.969   7.577
27848SOL    HW285442   5.135   1.973   7.650
27849SOL     OW85443   6.881   2.691  14.591
27849SOL    HW185444   6.831   2.763  14.552
27849SOL    HW285445   6.941   2.734  14.651
27850SOL     OW85446   2.668  11.486   5.998
27850SOL    HW185447   2.593  11.540   5.974
27850SOL    HW285448   2.743  11.530   5.958
27851SOL     OW85449  12.798  13.704   5.566
27851SOL    HW185450  12.746  13.672   5.640
27851SOL    HW285451  12.881  13.656   5.572
27852SOL     OW85452  11.733   4.408   5.344
27852SOL    HW185453  11.702   4.341   5.404
27852SOL    HW285454  11.723   4.490   5.392
27853SOL     OW85455   3.269   7.869   5.812
27853SOL    HW185456   3.343   7.844   5.867
27853SOL    HW285457   3.283   7.962   5.794
27854SOL     OW85458  12.832  10.924   8.619
27854SOL    HW185459  12.867  10.900   8.705
27854SOL    HW285460  12.903  10.903   8.558
27855SOL     OW85461   6.691   4.812  11.792
27855SOL    HW185462   6.682   4.907  11.785
27855SOL    HW285463   6.785   4.797  11.797
27856SOL     OW85464  11.993   6.340   4.489
27856SOL    HW185465  12.019   6.276   4.556
27856SOL    HW285466  11.919   6.299   4.444
27857SOL     OW85467   4.928   0.708  13.371
27857SOL    HW185468   4.843   0.708  13.326
27857SOL    HW285469   4.912   0.753  13.453
27858SOL     OW85470   4.238  13.615   8.187
27858SOL    HW185471   4.189  13.677   8.240
27858SOL    HW285472   4.173  13.579   8.127
27859SOL     OW85473  14.808   1.445   5.495
27859SOL    HW185474  14.791   1.487   5.579
27859SOL    HW285475   0.035   1.437   5.491
27860SOL     OW85476  13.594   2.442   2.161
27860SOL    HW185477  13.634   2.430   2.247
27860SOL    HW285478  13.587   2.537   2.151
27861SOL     OW85479  11.229   4.059   6.696
27861SOL    HW185480  11.236   3.964   6.692
27861SOL    HW285481  11.156   4.075   6.756
27862SOL     OW85482   8.013   8.257  11.791
27862SOL    HW185483   8.109   8.255  11.791
27862SOL    HW285484   7.988   8.168  11.814
27863SOL     OW85485   8.904   6.999   9.158
27863SOL    HW185486   8.985   6.951   9.175
27863SOL    HW285487   8.863   6.952   9.085
27864SOL     OW85488  10.150   4.253   6.852
27864SOL    HW185489  10.072   4.299   6.883
27864SOL    HW285490  10.221   4.315   6.868
27865SOL     OW85491   6.949   3.174  10.112
27865SOL    HW185492   7.024   3.232  10.118
27865SOL    HW285493   6.944   3.151  10.019
27866SOL     OW85494   8.901  13.297   8.699
27866SOL    HW185495   8.908  13.202   8.709
27866SOL    HW285496   8.970  13.319   8.636
27867SOL     OW85497  11.002  11.463  10.774
27867SOL    HW185498  10.982  11.557  10.781
27867SOL    HW285499  11.096  11.457  10.789
27868SOL     OW85500  13.966  14.316   8.778
27868SOL    HW185501  14.054  14.343   8.807
27868SOL    HW285502  13.970  14.220   8.776
27869SOL     OW85503   9.698   8.904  10.229
27869SOL    HW185504   9.771   8.842  10.237
27869SOL    HW285505   9.719   8.957  10.152
27870SOL     OW85506   8.480   1.780   9.125
27870SOL    HW185507   8.434   1.698   9.108
27870SOL    HW285508   8.548   1.784   9.058
27871SOL     OW85509   2.151   9.727   7.056
27871SOL    HW185510   2.086   9.786   7.095
27871SOL    HW285511   2.173   9.767   6.972
27872SOL     OW85512   5.362  14.631  10.418
27872SOL    HW185513   5.458  14.633  10.412
27872SOL    HW285514   5.341  14.703  10.477
27873SOL     OW85515  13.258  14.100   1.555
27873SOL    HW185516  13.352  14.085   1.552
27873SOL    HW285517  13.248  14.193   1.577
27874SOL     OW85518   7.642   9.221   7.621
27874SOL    HW185519   7.571   9.251   7.678
27874SOL    HW285520   7.633   9.276   7.543
27875SOL     OW85521   5.702   3.103  13.054
27875SOL    HW185522   5.746   3.154  12.986
27875SOL    HW285523   5.748   3.019  13.055
27876SOL     OW85524   5.599  10.858   4.154
27876SOL    HW185525   5.527  10.841   4.214
27876SOL    HW285526   5.676  10.820   4.196
27877SOL     OW85527   2.275   1.292  14.567
27877SOL    HW185528   2.217   1.228  14.608
27877SOL    HW285529   2.275   1.366  14.628
27878SOL     OW85530  12.333  14.445   2.699
27878SOL    HW185531  12.299  14.471   2.785
27878SOL    HW285532  12.325  14.350   2.697
27879SOL     OW85533   9.765   9.430   2.899
27879SOL    HW185534   9.822   9.506   2.892
27879SOL    HW285535   9.720   9.425   2.815
27880SOL     OW85536  14.194   3.968  10.161
27880SOL    HW185537  14.177   4.045  10.106
27880SOL    HW285538  14.215   4.004  10.247
27881SOL     OW85539   4.378   8.046   7.573
27881SOL    HW185540   4.295   8.002   7.555
27881SOL    HW285541   4.444   7.977   7.563
27882SOL     OW85542   4.059  13.951  13.017
27882SOL    HW185543   4.128  13.976  12.956
27882SOL    HW285544   4.027  13.867  12.985
27883SOL     OW85545   9.075  13.467  11.135
27883SOL    HW185546   9.130  13.487  11.059
27883SOL    HW285547   9.081  13.544  11.190
27884SOL     OW85548  10.319   2.851  10.320
27884SOL    HW185549  10.266   2.925  10.289
27884SOL    HW285550  10.409   2.884  10.319
27885SOL     OW85551   2.173   1.156   3.267
27885SOL    HW185552   2.201   1.201   3.187
27885SOL    HW285553   2.129   1.078   3.236
27886SOL     OW85554   8.848   0.455   7.509
27886SOL    HW185555   8.894   0.433   7.428
27886SOL    HW285556   8.850   0.374   7.560
27887SOL     OW85557   6.608  11.891  12.265
27887SOL    HW185558   6.579  11.957  12.329
27887SOL    HW285559   6.530  11.837  12.250
27888SOL     OW85560   4.714  12.900   9.326
27888SOL    HW185561   4.686  12.869   9.239
27888SOL    HW285562   4.721  12.820   9.378
27889SOL     OW85563  14.345   2.745   4.572
27889SOL    HW185564  14.264   2.784   4.603
27889SOL    HW285565  14.329   2.651   4.576
27890SOL     OW85566   8.646   5.673  14.041
27890SOL    HW185567   8.578   5.631  14.094
27890SOL    HW285568   8.624   5.650  13.951
27891SOL     OW85569  14.838   6.358   2.173
27891SOL    HW185570  14.830   6.438   2.121
27891SOL    HW285571   0.026   6.383   2.246
27892SOL     OW85572   3.930   6.393  14.403
27892SOL    HW185573   3.973   6.359  14.325
27892SOL    HW285574   3.953   6.486  14.404
27893SOL     OW85575  10.998  12.008   4.167
27893SOL    HW185576  10.971  12.013   4.258
27893SOL    HW285577  11.020  12.098   4.144
27894SOL     OW85578  13.867  13.409   5.189
27894SOL    HW185579  13.889  13.460   5.266
27894SOL    HW285580  13.882  13.318   5.216
27895SOL     OW85581  14.790   4.129   3.786
27895SOL    HW185582  14.703   4.089   3.781
27895SOL    HW285583  14.784   4.206   3.729
27896SOL     OW85584  12.923   4.900  10.115
27896SOL    HW185585  12.896   4.989  10.092
27896SOL    HW285586  12.920   4.898  10.211
27897SOL     OW85587   8.218  12.769   5.527
27897SOL    HW185588   8.263  12.854   5.520
27897SOL    HW285589   8.233  12.743   5.618
27898SOL     OW85590   6.745   9.570   6.644
27898SOL    HW185591   6.728   9.476   6.639
27898SOL    HW285592   6.704   9.598   6.726
27899SOL     OW85593   4.490  14.589   7.425
27899SOL    HW185594   4.532  14.675   7.425
27899SOL    HW285595   4.450  14.582   7.338
27900SOL     OW85596  12.080   8.321  11.760
27900SOL    HW185597  12.086   8.413  11.737
27900SOL    HW285598  12.145   8.278  11.705
27901SOL     OW85599   2.195   4.352   2.880
27901SOL    HW185600   2.164   4.352   2.789
27901SOL    HW285601   2.125   4.310   2.930
27902SOL     OW85602  10.652   7.115   4.449
27902SOL    HW185603  10.623   7.179   4.514
27902SOL    HW285604  10.716   7.162   4.395
27903SOL     OW85605  11.988   2.046  12.321
27903SOL    HW185606  11.897   2.017  12.315
27903SOL    HW285607  12.002   2.096  12.241
27904SOL     OW85608  14.177  10.260  14.829
27904SOL    HW185609  14.155  10.346  14.865
27904SOL    HW285610  14.095  10.230  14.789
27905SOL     OW85611   7.881   7.500   0.715
27905SOL    HW185612   7.786   7.495   0.720
27905SOL    HW285613   7.912   7.447   0.788
27906SOL     OW85614   0.346   4.618   8.573
27906SOL    HW185615   0.263   4.626   8.620
27906SOL    HW285616   0.333   4.544   8.514
27907SOL     OW85617  10.011  11.971  11.808
27907SOL    HW185618  10.002  12.005  11.719
27907SOL    HW285619   9.948  12.020  11.860
27908SOL     OW85620  13.386   2.618   4.999
27908SOL    HW185621  13.375   2.705   5.037
27908SOL    HW285622  13.336   2.560   5.056
27909SOL     OW85623   3.149  11.694   6.398
27909SOL    HW185624   3.160  11.773   6.345
27909SOL    HW285625   3.108  11.631   6.338
27910SOL     OW85626  12.261  11.711   8.908
27910SOL    HW185627  12.238  11.801   8.933
27910SOL    HW285628  12.180  11.661   8.923
27911SOL     OW85629  13.004   9.137  10.535
27911SOL    HW185630  12.918   9.176  10.519
27911SOL    HW285631  13.064   9.211  10.539
27912SOL     OW85632  12.205  12.897   4.239
27912SOL    HW185633  12.162  12.851   4.311
27912SOL    HW285634  12.290  12.924   4.275
27913SOL     OW85635   8.920   2.373   6.404
27913SOL    HW185636   8.860   2.430   6.355
27913SOL    HW285637   8.866   2.337   6.475
27914SOL     OW85638  13.243  10.927  11.431
27914SOL    HW185639  13.308  10.982  11.474
27914SOL    HW285640  13.269  10.926  11.339
27915SOL     OW85641   1.827  10.198  12.849
27915SOL    HW185642   1.865  10.210  12.761
27915SOL    HW285643   1.768  10.124  12.839
27916SOL     OW85644  10.192   6.382   4.726
27916SOL    HW185645  10.138   6.419   4.656
27916SOL    HW285646  10.139   6.311   4.762
27917SOL     OW85647   1.061   7.915   6.068
27917SOL    HW185648   1.089   7.823   6.069
27917SOL    HW285649   1.119   7.958   6.131
27918SOL     OW85650   1.511  13.798   2.578
27918SOL    HW185651   1.594  13.754   2.561
27918SOL    HW285652   1.468  13.745   2.645
27919SOL     OW85653  10.694   0.662   0.734
27919SOL    HW185654  10.768   0.684   0.791
27919SOL    HW285655  10.617   0.666   0.792
27920SOL     OW85656   6.412   0.783   9.554
27920SOL    HW185657   6.448   0.858   9.602
27920SOL    HW285658   6.452   0.789   9.467
27921SOL     OW85659   2.368   4.213   6.620
27921SOL    HW185660   2.429   4.226   6.693
27921SOL    HW285661   2.321   4.133   6.643
27922SOL     OW85662   4.591   8.750   6.216
27922SOL    HW185663   4.538   8.829   6.223
27922SOL    HW285664   4.562   8.709   6.134
27923SOL     OW85665   2.392   7.044  14.535
27923SOL    HW185666   2.413   6.951  14.527
27923SOL    HW285667   2.426   7.069  14.621
27924SOL     OW85668  10.894  12.037   0.710
27924SOL    HW185669  10.976  12.083   0.693
27924SOL    HW285670  10.853  12.030   0.624
27925SOL     OW85671   8.381   8.264  11.401
27925SOL    HW185672   8.300   8.315  11.405
27925SOL    HW285673   8.375   8.204  11.475
27926SOL     OW85674   7.415   7.291  12.626
27926SOL    HW185675   7.468   7.317  12.550
27926SOL    HW285676   7.367   7.371  12.649
27927SOL     OW85677  13.223  12.599   8.879
27927SOL    HW185678  13.214  12.527   8.941
27927SOL    HW285679  13.210  12.678   8.932
27928SOL     OW85680  11.972  10.924   1.910
27928SOL    HW185681  12.040  10.986   1.939
27928SOL    HW285682  11.928  10.970   1.839
27929SOL     OW85683   0.117  10.995   1.907
27929SOL    HW185684   0.038  10.945   1.927
27929SOL    HW285685   0.101  11.081   1.947
27930SOL     OW85686  13.473  10.595   2.486
27930SOL    HW185687  13.482  10.506   2.519
27930SOL    HW285688  13.466  10.649   2.564
27931SOL     OW85689  14.634  14.079   0.992
27931SOL    HW185690  14.552  14.115   0.959
27931SOL    HW285691  14.642  14.113   1.081
27932SOL     OW85692   2.309   8.667   7.161
27932SOL    HW185693   2.235   8.667   7.221
27932SOL    HW285694   2.287   8.600   7.096
27933SOL     OW85695  14.095   4.709   6.271
27933SOL    HW185696  14.063   4.624   6.240
27933SOL    HW285697  14.042   4.726   6.349
27934SOL     OW85698   3.752   7.260   8.855
27934SOL    HW185699   3.668   7.278   8.812
27934SOL    HW285700   3.804   7.338   8.839
27935SOL     OW85701   1.153   5.728   6.330
27935SOL    HW185702   1.158   5.655   6.269
27935SOL    HW285703   1.185   5.803   6.281
27936SOL     OW85704  11.631   5.418  11.198
27936SOL    HW185705  11.719   5.431  11.234
27936SOL    HW285706  11.641   5.435  11.104
27937SOL     OW85707  13.027   6.212   6.087
27937SOL    HW185708  13.058   6.301   6.079
27937SOL    HW285709  12.978   6.196   6.006
27938SOL     OW85710   9.497   5.831   1.269
27938SOL    HW185711   9.579   5.798   1.307
27938SOL    HW285712   9.509   5.926   1.266
27939SOL     OW85713   2.990   4.492  13.134
27939SOL    HW185714   3.056   4.435  13.175
27939SOL    HW285715   2.912   4.481  13.188
27940SOL     OW85716   6.559   8.685   0.280
27940SOL    HW185717   6.590   8.605   0.322
27940SOL    HW285718   6.593   8.756   0.334
27941SOL     OW85719   4.433  12.183  11.952
27941SOL    HW185720   4.359  12.221  11.905
27941SOL    HW285721   4.505  12.184  11.889
27942SOL     OW85722   4.223  14.693   1.342
27942SOL    HW185723   4.135  14.728   1.355
27942SOL    HW285724   4.236  14.693   1.247
27943SOL     OW85725   8.428   7.259  10.320
27943SOL    HW185726   8.475   7.197  10.375
27943SOL    HW285727   8.335   7.240  10.337
27944SOL     OW85728   8.405   8.192  10.468
27944SOL    HW185729   8.313   8.164  10.466
27944SOL    HW285730   8.445   8.138  10.535
27945SOL     OW85731   9.551  10.447  12.978
27945SOL    HW185732   9.596  10.386  12.920
27945SOL    HW285733   9.602  10.447  13.058
27946SOL     OW85734   9.472   4.817   5.479
27946SOL    HW185735   9.504   4.747   5.535
27946SOL    HW285736   9.541   4.883   5.480
27947SOL     OW85737  12.878   3.288  12.153
27947SOL    HW185738  12.830   3.299  12.071
27947SOL    HW285739  12.959   3.338  12.140
27948SOL     OW85740   7.874   1.406   4.844
27948SOL    HW185741   7.862   1.328   4.789
27948SOL    HW285742   7.907   1.371   4.927
27949SOL     OW85743  11.384   7.274   9.004
27949SOL    HW185744  11.303   7.258   9.052
27949SOL    HW285745  11.439   7.198   9.023
27950SOL     OW85746   6.873   1.692   4.010
27950SOL    HW185747   6.893   1.773   3.963
27950SOL    HW285748   6.865   1.718   4.101
27951SOL     OW85749   6.081  11.386   5.271
27951SOL    HW185750   6.110  11.430   5.191
27951SOL    HW285751   5.986  11.378   5.261
27952SOL     OW85752  11.967  14.268  14.396
27952SOL    HW185753  11.892  14.324  14.416
27952SOL    HW285754  11.932  14.179  14.399
27953SOL     OW85755  10.495  13.369   6.055
27953SOL    HW185756  10.462  13.450   6.016
27953SOL    HW285757  10.478  13.302   5.989
27954SOL     OW85758  11.453  13.843   3.825
27954SOL    HW185759  11.459  13.933   3.792
27954SOL    HW285760  11.435  13.853   3.919
27955SOL     OW85761   6.452   5.984  13.276
27955SOL    HW185762   6.439   6.075  13.304
27955SOL    HW285763   6.543   5.981  13.246
27956SOL     OW85764  14.145   0.069   0.510
27956SOL    HW185765  14.179   0.041   0.595
27956SOL    HW285766  14.090   0.145   0.530
27957SOL     OW85767   2.353   9.207   1.465
27957SOL    HW185768   2.416   9.271   1.499
27957SOL    HW285769   2.299   9.184   1.541
27958SOL     OW85770   1.596   1.944   7.658
27958SOL    HW185771   1.519   1.943   7.715
27958SOL    HW285772   1.655   1.879   7.697
27959SOL     OW85773   8.785   9.058  14.765
27959SOL    HW185774   8.874   9.046  14.733
27959SOL    HW285775   8.741   9.106  14.695
27960SOL     OW85776  13.735   2.720   1.730
27960SOL    HW185777  13.791   2.752   1.800
27960SOL    HW285778  13.699   2.799   1.690
27961SOL     OW85779   8.871   9.197  13.926
27961SOL    HW185780   8.945   9.143  13.899
27961SOL    HW285781   8.806   9.135  13.959
27962SOL     OW85782   7.326   1.250  11.638
27962SOL    HW185783   7.269   1.308  11.688
27962SOL    HW285784   7.387   1.214  11.703
27963SOL     OW85785   3.270   9.452   4.402
27963SOL    HW185786   3.283   9.383   4.467
27963SOL    HW285787   3.243   9.528   4.453
27964SOL     OW85788   6.865   6.998   6.044
27964SOL    HW185789   6.851   6.907   6.018
27964SOL    HW285790   6.777   7.033   6.056
27965SOL     OW85791   1.231  14.627  11.279
27965SOL    HW185792   1.273  14.547  11.247
27965SOL    HW285793   1.149  14.631  11.229
27966SOL     OW85794  13.208   2.879  11.863
27966SOL    HW185795  13.189   2.880  11.956
27966SOL    HW285796  13.259   2.799  11.850
27967SOL     OW85797   2.389   4.466   9.135
27967SOL    HW185798   2.396   4.410   9.058
27967SOL    HW285799   2.471   4.516   9.135
27968SOL     OW85800   6.260   2.203   8.609
27968SOL    HW185801   6.285   2.264   8.678
27968SOL    HW285802   6.315   2.228   8.535
27969SOL     OW85803   9.175   3.305   0.617
27969SOL    HW185804   9.144   3.216   0.635
27969SOL    HW285805   9.260   3.292   0.574
27970SOL     OW85806   8.209   5.538   7.576
27970SOL    HW185807   8.151   5.556   7.502
27970SOL    HW285808   8.275   5.607   7.572
27971SOL     OW85809  10.157  12.769  11.209
27971SOL    HW185810  10.179  12.731  11.294
27971SOL    HW285811  10.062  12.780  11.212
27972SOL     OW85812  14.270  12.943   6.779
27972SOL    HW185813  14.346  13.000   6.789
27972SOL    HW285814  14.216  12.961   6.857
27973SOL     OW85815   2.528   5.104   5.687
27973SOL    HW185816   2.586   5.113   5.612
27973SOL    HW285817   2.587   5.086   5.760
27974SOL     OW85818   0.967   2.991  10.526
27974SOL    HW185819   0.986   3.083  10.509
27974SOL    HW285820   1.033   2.964  10.591
27975SOL     OW85821   2.683   3.682   2.293
27975SOL    HW185822   2.707   3.708   2.382
27975SOL    HW285823   2.663   3.589   2.300
27976SOL     OW85824  12.466   6.572   1.445
27976SOL    HW185825  12.442   6.663   1.463
27976SOL    HW285826  12.400   6.521   1.493
27977SOL     OW85827  11.715   3.502  11.280
27977SOL    HW185828  11.655   3.429  11.298
27977SOL    HW285829  11.729   3.499  11.186
27978SOL     OW85830  11.831   0.086   5.609
27978SOL    HW185831  11.903   0.135   5.569
27978SOL    HW285832  11.810   0.019   5.545
27979SOL     OW85833  10.991  11.611   9.630
27979SOL    HW185834  10.945  11.690   9.657
27979SOL    HW285835  11.077  11.641   9.601
27980SOL     OW85836  12.678   7.520   3.451
27980SOL    HW185837  12.688   7.433   3.414
27980SOL    HW285838  12.622   7.507   3.528
27981SOL     OW85839  11.473   8.701   9.154
27981SOL    HW185840  11.504   8.690   9.064
27981SOL    HW285841  11.498   8.619   9.197
27982SOL     OW85842   9.920   7.937   3.798
27982SOL    HW185843   9.844   7.996   3.797
27982SOL    HW285844   9.989   7.986   3.754
27983SOL     OW85845  14.069  12.035   0.557
27983SOL    HW185846  14.073  12.041   0.653
27983SOL    HW285847  14.099  11.947   0.537
27984SOL     OW85848   3.136  14.087   1.176
27984SOL    HW185849   3.102  13.999   1.192
27984SOL    HW285850   3.229  14.074   1.157
27985SOL     OW85851   2.519   4.489  13.829
27985SOL    HW185852   2.535   4.472  13.736
27985SOL    HW285853   2.468   4.570  13.830
27986SOL     OW85854   2.158  12.061   3.209
27986SOL    HW185855   2.139  12.149   3.176
27986SOL    HW285856   2.183  12.012   3.131
27987SOL     OW85857  14.587   1.531   3.028
27987SOL    HW185858  14.516   1.594   3.033
27987SOL    HW285859  14.653   1.564   3.089
27988SOL     OW85860   9.380   9.580  14.257
27988SOL    HW185861   9.365   9.587  14.163
27988SOL    HW285862   9.445   9.509  14.265
27989SOL     OW85863   9.375   5.989   2.596
27989SOL    HW185864   9.379   6.010   2.689
27989SOL    HW285865   9.294   6.029   2.565
27990SOL     OW85866   8.738   8.752   1.094
27990SOL    HW185867   8.754   8.782   1.004
27990SOL    HW285868   8.732   8.832   1.145
27991SOL     OW85869  12.234   9.238   0.343
27991SOL    HW185870  12.209   9.182   0.416
27991SOL    HW285871  12.175   9.213   0.272
27992SOL     OW85872   4.692   7.471   0.875
27992SOL    HW185873   4.662   7.384   0.902
27992SOL    HW285874   4.648   7.486   0.791
27993SOL     OW85875  11.816   2.576  13.181
27993SOL    HW185876  11.861   2.654  13.215
27993SOL    HW285877  11.726   2.604  13.168
27994SOL     OW85878   4.873   8.513   3.107
27994SOL    HW185879   4.849   8.450   3.175
27994SOL    HW285880   4.913   8.459   3.038
27995SOL     OW85881  14.028   6.135  11.424
27995SOL    HW185882  13.953   6.106  11.476
27995SOL    HW285883  14.060   6.213  11.471
27996SOL     OW85884   6.510   6.464  13.189
27996SOL    HW185885   6.583   6.520  13.163
27996SOL    HW285886   6.456   6.457  13.111
27997SOL     OW85887   0.940   4.264   3.797
27997SOL    HW185888   1.020   4.294   3.841
27997SOL    HW285889   0.916   4.336   3.738
27998SOL     OW85890   1.152   8.066   6.646
27998SOL    HW185891   1.106   8.106   6.572
27998SOL    HW285892   1.237   8.040   6.612
27999SOL     OW85893   7.310   3.979  13.474
27999SOL    HW185894   7.338   4.066  13.502
27999SOL    HW285895   7.246   3.952  13.540
28000SOL     OW85896   5.513  12.171   5.798
28000SOL    HW185897   5.521  12.214   5.713
28000SOL    HW285898   5.501  12.242   5.861
28001SOL     OW85899  12.016   9.353   6.854
28001SOL    HW185900  12.015   9.282   6.918
28001SOL    HW285901  11.989   9.430   6.904
28002SOL     OW85902   8.012  14.294   2.534
28002SOL    HW185903   8.086  14.331   2.582
28002SOL    HW285904   8.039  14.205   2.511
28003SOL     OW85905   5.615   6.836  12.259
28003SOL    HW185906   5.640   6.895  12.188
28003SOL    HW285907   5.521   6.849  12.269
28004SOL     OW85908  12.549   7.051   2.305
28004SOL    HW185909  12.604   7.066   2.382
28004SOL    HW285910  12.560   6.958   2.285
28005SOL     OW85911   8.057   2.024   7.024
28005SOL    HW185912   8.000   1.956   6.987
28005SOL    HW285913   8.119   1.976   7.080
28006SOL     OW85914   0.036   5.029   8.316
28006SOL    HW185915   0.067   5.096   8.377
28006SOL    HW285916   0.015   5.077   8.236
28007SOL     OW85917   1.784   2.604  11.587
28007SOL    HW185918   1.747   2.582  11.501
28007SOL    HW285919   1.878   2.589  11.577
28008SOL     OW85920   4.774   8.763  12.954
28008SOL    HW185921   4.840   8.801  12.896
28008SOL    HW285922   4.826   8.716  13.021
28009SOL     OW85923   3.787   6.401  11.570
28009SOL    HW185924   3.756   6.491  11.566
28009SOL    HW285925   3.798   6.376  11.478
28010SOL     OW85926   5.499  13.556   8.523
28010SOL    HW185927   5.557  13.578   8.596
28010SOL    HW285928   5.411  13.575   8.555
28011SOL     OW85929  10.971   1.263   6.745
28011SOL    HW185930  10.978   1.358   6.756
28011SOL    HW285931  11.061   1.231   6.749
28012SOL     OW85932   5.684   7.838  11.411
28012SOL    HW185933   5.616   7.903  11.426
28012SOL    HW285934   5.729   7.868  11.333
28013SOL     OW85935  12.510   5.931   8.938
28013SOL    HW185936  12.518   5.956   8.846
28013SOL    HW285937  12.440   5.866   8.938
28014SOL     OW85938   8.208   1.765  12.742
28014SOL    HW185939   8.163   1.748  12.659
28014SOL    HW285940   8.253   1.683  12.762
28015SOL     OW85941  10.082   9.878   0.131
28015SOL    HW185942  10.151   9.854   0.193
28015SOL    HW285943  10.014   9.811   0.143
28016SOL     OW85944   4.586   5.965  12.790
28016SOL    HW185945   4.646   5.907  12.838
28016SOL    HW285946   4.528   6.000  12.858
28017SOL     OW85947   3.498  11.881   2.871
28017SOL    HW185948   3.529  11.896   2.960
28017SOL    HW285949   3.437  11.808   2.878
28018SOL     OW85950  11.804   5.945   0.559
28018SOL    HW185951  11.865   6.011   0.526
28018SOL    HW285952  11.765   5.985   0.637
28019SOL     OW85953   6.986   3.722  11.878
28019SOL    HW185954   6.969   3.809  11.913
28019SOL    HW285955   7.065   3.732  11.824
28020SOL     OW85956  14.342   1.845  10.501
28020SOL    HW185957  14.410   1.844  10.569
28020SOL    HW285958  14.360   1.768  10.448
28021SOL     OW85959   7.764  12.568   8.141
28021SOL    HW185960   7.798  12.593   8.055
28021SOL    HW285961   7.748  12.474   8.135
28022SOL     OW85962  10.567   2.986  10.288
28022SOL    HW185963  10.642   3.044  10.279
28022SOL    HW285964  10.557   2.944  10.203
28023SOL     OW85965   9.275  10.645  12.698
28023SOL    HW185966   9.313  10.694  12.625
28023SOL    HW285967   9.299  10.554  12.681
28024SOL     OW85968   7.901   2.452  14.337
28024SOL    HW185969   7.889   2.380  14.276
28024SOL    HW285970   7.882   2.415  14.423
28025SOL     OW85971   2.947  10.403  12.398
28025SOL    HW185972   2.967  10.339  12.466
28025SOL    HW285973   2.941  10.487  12.444
28026SOL     OW85974  10.181   8.346   3.124
28026SOL    HW185975  10.089   8.328   3.138
28026SOL    HW285976  10.210   8.277   3.063
28027SOL     OW85977  11.208   9.341   6.938
28027SOL    HW185978  11.116   9.327   6.958
28027SOL    HW285979  11.208   9.389   6.855
28028SOL     OW85980   0.123  13.247  12.232
28028SOL    HW185981   0.067  13.179  12.196
28028SOL    HW285982   0.101  13.326  12.182
28029SOL     OW85983   4.644   2.043  13.321
28029SOL    HW185984   4.680   2.027  13.408
28029SOL    HW285985   4.676   1.971  13.268
28030SOL     OW85986  13.461   7.682   4.998
28030SOL    HW185987  13.483   7.761   5.047
28030SOL    HW285988  13.409   7.713   4.924
28031SOL     OW85989  10.098  10.741   2.600
28031SOL    HW185990  10.079  10.680   2.530
28031SOL    HW285991  10.014  10.757   2.643
28032SOL     OW85992   9.953   2.991   3.252
28032SOL    HW185993  10.031   2.969   3.303
28032SOL    HW285994   9.912   2.906   3.234
28033SOL     OW85995   0.089   5.185  11.475
28033SOL    HW185996   0.012   5.227  11.436
28033SOL    HW285997   0.077   5.091  11.457
28034SOL     OW85998  10.226  10.645   9.440
28034SOL    HW185999  10.302  10.674   9.491
28034SOL    HW286000  10.202  10.561   9.477
28035SOL     OW86001  12.377   9.090  13.384
28035SOL    HW186002  12.304   9.144  13.414
28035SOL    HW286003  12.426   9.070  13.464
28036SOL     OW86004   4.232   9.006   8.624
28036SOL    HW186005   4.200   8.942   8.687
28036SOL    HW286006   4.218   8.965   8.538
28037SOL     OW86007   2.535   2.455   5.753
28037SOL    HW186008   2.606   2.517   5.736
28037SOL    HW286009   2.567   2.372   5.716
28038SOL     OW86010   9.419   1.523   1.996
28038SOL    HW186011   9.391   1.550   1.908
28038SOL    HW286012   9.376   1.584   2.055
28039SOL     OW86013  13.386   0.526   1.461
28039SOL    HW186014  13.337   0.519   1.543
28039SOL    HW286015  13.350   0.458   1.405
28040SOL     OW86016  14.358   2.563  13.932
28040SOL    HW186017  14.322   2.572  14.021
28040SOL    HW286018  14.286   2.587  13.875
28041SOL     OW86019   1.052  13.636   7.164
28041SOL    HW186020   1.048  13.721   7.122
28041SOL    HW286021   1.132  13.638   7.216
28042SOL     OW86022   1.315   5.547  12.713
28042SOL    HW186023   1.332   5.506  12.798
28042SOL    HW286024   1.327   5.477  12.649
28043SOL     OW86025  10.813   6.947  11.574
28043SOL    HW186026  10.791   7.037  11.551
28043SOL    HW286027  10.880   6.921  11.511
28044SOL     OW86028   2.982   7.997  13.993
28044SOL    HW186029   2.961   8.040  14.076
28044SOL    HW286030   3.073   7.969  14.002
28045SOL     OW86031  14.185   6.867   6.156
28045SOL    HW186032  14.096   6.870   6.120
28045SOL    HW286033  14.197   6.952   6.197
28046SOL     OW86034   2.985   5.531   6.375
28046SOL    HW186035   3.005   5.450   6.422
28046SOL    HW286036   3.045   5.532   6.301
28047SOL     OW86037   4.501  11.882  12.499
28047SOL    HW186038   4.585  11.922  12.477
28047SOL    HW286039   4.440  11.955  12.506
28048SOL     OW86040   9.359   0.438   0.687
28048SOL    HW186041   9.300   0.379   0.733
28048SOL    HW286042   9.356   0.410   0.595
28049SOL     OW86043   9.317   9.834   2.951
28049SOL    HW186044   9.348   9.839   2.860
28049SOL    HW286045   9.223   9.847   2.944
28050SOL     OW86046   3.753  12.605   8.714
28050SOL    HW186047   3.776  12.517   8.742
28050SOL    HW286048   3.834  12.641   8.677
28051SOL     OW86049  12.344   1.568   3.149
28051SOL    HW186050  12.333   1.559   3.055
28051SOL    HW286051  12.257   1.550   3.185
28052SOL     OW86052  14.388   5.301  14.000
28052SOL    HW186053  14.295   5.281  13.987
28052SOL    HW286054  14.395   5.321  14.094
28053SOL     OW86055   6.473  14.281  13.840
28053SOL    HW186056   6.551  14.334  13.857
28053SOL    HW286057   6.408  14.344  13.808
28054SOL     OW86058  11.143   8.740  12.542
28054SOL    HW186059  11.190   8.763  12.622
28054SOL    HW286060  11.210   8.705  12.483
28055SOL     OW86061  10.561   0.549  12.538
28055SOL    HW186062  10.530   0.637  12.558
28055SOL    HW286063  10.572   0.507  12.623
28056SOL     OW86064   8.480   9.983   8.012
28056SOL    HW186065   8.574  10.000   8.012
28056SOL    HW286066   8.452  10.005   8.101
28057SOL     OW86067   5.400   2.862   3.509
28057SOL    HW186068   5.345   2.912   3.569
28057SOL    HW286069   5.444   2.928   3.456
28058SOL     OW86070   5.867  10.579   8.948
28058SOL    HW186071   5.796  10.591   9.011
28058SOL    HW286072   5.896  10.668   8.928
28059SOL     OW86073   3.818  10.113   7.086
28059SOL    HW186074   3.835  10.149   6.999
28059SOL    HW286075   3.860  10.175   7.146
28060SOL     OW86076   6.182  11.837   6.441
28060SOL    HW186077   6.254  11.875   6.491
28060SOL    HW286078   6.108  11.840   6.502
28061SOL     OW86079  14.072   9.061   0.908
28061SOL    HW186080  14.012   8.999   0.949
28061SOL    HW286081  14.023   9.097   0.834
28062SOL     OW86082   1.044   5.700   0.890
28062SOL    HW186083   1.046   5.740   0.977
28062SOL    HW286084   0.955   5.665   0.881
28063SOL     OW86085   5.348  12.054   0.427
28063SOL    HW186086   5.313  11.999   0.497
28063SOL    HW286087   5.294  12.133   0.428
28064SOL     OW86088   1.717   0.323   0.602
28064SOL    HW186089   1.714   0.244   0.655
28064SOL    HW286090   1.633   0.366   0.618
28065SOL     OW86091   3.075   6.440  12.215
28065SOL    HW186092   3.076   6.344  12.211
28065SOL    HW286093   3.166   6.465  12.201
28066SOL     OW86094   3.609   8.516   2.601
28066SOL    HW186095   3.614   8.431   2.557
28066SOL    HW286096   3.700   8.539   2.619
28067SOL     OW86097   1.330   3.959   0.692
28067SOL    HW186098   1.415   3.913   0.692
28067SOL    HW286099   1.330   4.007   0.775
28068SOL     OW86100   8.420   5.064  11.620
28068SOL    HW186101   8.504   5.080  11.576
28068SOL    HW286102   8.354   5.088  11.555
28069SOL     OW86103   1.892  13.886  14.537
28069SOL    HW186104   1.928  13.815  14.589
28069SOL    HW286105   1.799  13.864  14.527
28070SOL     OW86106   4.720   9.482   3.211
28070SOL    HW186107   4.667   9.403   3.198
28070SOL    HW286108   4.684   9.546   3.150
28071SOL     OW86109   6.547  10.964  12.563
28071SOL    HW186110   6.526  10.876  12.533
28071SOL    HW286111   6.501  10.973  12.646
28072SOL     OW86112   4.312   9.538   0.412
28072SOL    HW186113   4.313   9.634   0.414
28072SOL    HW286114   4.268   9.513   0.493
28073SOL     OW86115   9.037   4.641   8.155
28073SOL    HW186116   9.127   4.649   8.187
28073SOL    HW286117   8.983   4.635   8.234
28074SOL     OW86118   6.666   4.947   3.891
28074SOL    HW186119   6.642   5.021   3.947
28074SOL    HW286120   6.609   4.876   3.920
28075SOL     OW86121   1.881  10.295   2.518
28075SOL    HW186122   1.912  10.380   2.549
28075SOL    HW286123   1.947  10.267   2.455
28076SOL     OW86124  11.146   8.953   1.781
28076SOL    HW186125  11.150   8.964   1.876
28076SOL    HW286126  11.058   8.983   1.758
28077SOL     OW86127  12.711   1.211  11.585
28077SOL    HW186128  12.663   1.136  11.620
28077SOL    HW286129  12.793   1.211  11.634
28078SOL     OW86130   2.753  14.588   8.787
28078SOL    HW186131   2.749  14.563   8.879
28078SOL    HW286132   2.675  14.550   8.748
28079SOL     OW86133   1.790   4.328   1.206
28079SOL    HW186134   1.774   4.256   1.266
28079SOL    HW286135   1.758   4.406   1.252
28080SOL     OW86136  11.806   8.288   5.024
28080SOL    HW186137  11.832   8.252   4.939
28080SOL    HW286138  11.884   8.278   5.079
28081SOL     OW86139  13.850   0.292   2.029
28081SOL    HW186140  13.769   0.263   2.072
28081SOL    HW286141  13.917   0.284   2.097
28082SOL     OW86142  14.019  12.757   5.328
28082SOL    HW186143  14.037  12.674   5.284
28082SOL    HW286144  14.088  12.765   5.393
28083SOL     OW86145  13.508  14.668   0.822
28083SOL    HW186146  13.582  14.614   0.850
28083SOL    HW286147  13.465  14.694   0.903
28084SOL     OW86148   7.349  11.524   4.343
28084SOL    HW186149   7.305  11.475   4.273
28084SOL    HW286150   7.436  11.544   4.307
28085SOL     OW86151  11.919  14.866   6.348
28085SOL    HW186152  11.941   0.033   6.434
28085SOL    HW286153  11.897  14.774   6.364
28086SOL     OW86154  10.221   7.399   0.688
28086SOL    HW186155  10.206   7.490   0.712
28086SOL    HW286156  10.183   7.348   0.759
28087SOL     OW86157  10.681   0.765   6.571
28087SOL    HW186158  10.626   0.789   6.496
28087SOL    HW286159  10.636   0.801   6.647
28088SOL     OW86160  11.500  14.669   1.103
28088SOL    HW186161  11.484  14.764   1.098
28088SOL    HW286162  11.463  14.635   1.022
28089SOL     OW86163  13.048   4.750  13.652
28089SOL    HW186164  12.971   4.757  13.596
28089SOL    HW286165  13.018   4.778  13.738
28090SOL     OW86166   0.972  11.943   2.687
28090SOL    HW186167   0.899  12.001   2.709
28090SOL    HW286168   0.932  11.875   2.631
28091SOL     OW86169  13.521   8.015  12.168
28091SOL    HW186170  13.463   8.044  12.238
28091SOL    HW286171  13.607   8.049  12.192
28092SOL     OW86172   4.321   7.041   1.662
28092SOL    HW186173   4.370   7.105   1.611
28092SOL    HW286174   4.387   6.997   1.716
28093SOL     OW86175  14.213   6.865  12.212
28093SOL    HW186176  14.248   6.828  12.131
28093SOL    HW286177  14.258   6.949  12.223
28094SOL     OW86178   6.239   1.732  10.074
28094SOL    HW186179   6.215   1.781  10.153
28094SOL    HW286180   6.335   1.730  10.076
28095SOL     OW86181   5.085   6.492  10.747
28095SOL    HW186182   5.023   6.483  10.674
28095SOL    HW286183   5.105   6.586  10.750
28096SOL     OW86184  11.610   4.135  10.031
28096SOL    HW186185  11.652   4.062   9.987
28096SOL    HW286186  11.611   4.206   9.966
28097SOL     OW86187   2.020   4.479   7.072
28097SOL    HW186188   2.062   4.404   7.029
28097SOL    HW286189   2.069   4.555   7.041
28098SOL     OW86190  10.204   6.982  13.722
28098SOL    HW186191  10.253   7.026  13.791
28098SOL    HW286192  10.249   6.898  13.709
28099SOL     OW86193  10.908   9.341  12.415
28099SOL    HW186194  10.977   9.354  12.480
28099SOL    HW286195  10.954   9.340  12.331
28100SOL     OW86196   7.160  10.084   9.006
28100SOL    HW186197   7.191  10.000   8.973
28100SOL    HW286198   7.133  10.067   9.096
28101SOL     OW86199   0.153  11.284   8.402
28101SOL    HW186200   0.156  11.193   8.433
28101SOL    HW286201   0.135  11.276   8.309
28102SOL     OW86202   4.576   5.760  10.780
28102SOL    HW186203   4.507   5.763  10.846
28102SOL    HW286204   4.611   5.671  10.785
28103SOL     OW86205  12.814  11.833  11.457
28103SOL    HW186206  12.764  11.876  11.388
28103SOL    HW286207  12.784  11.874  11.538
28104SOL     OW86208  13.982   4.747  13.654
28104SOL    HW186209  14.035   4.812  13.608
28104SOL    HW286210  14.046   4.690  13.697
28105SOL     OW86211  13.450   5.807  11.548
28105SOL    HW186212  13.384   5.812  11.617
28105SOL    HW286213  13.522   5.757  11.588
28106SOL     OW86214   3.877  10.301  10.149
28106SOL    HW186215   3.809  10.355  10.110
28106SOL    HW286216   3.944  10.294  10.081
28107SOL     OW86217   6.907   1.496   0.601
28107SOL    HW186218   6.950   1.466   0.681
28107SOL    HW286219   6.829   1.543   0.632
28108SOL     OW86220   0.237   4.502  14.351
28108SOL    HW186221   0.286   4.432  14.393
28108SOL    HW286222   0.303   4.551  14.302
28109SOL     OW86223   4.957   8.286   1.643
28109SOL    HW186224   5.052   8.289   1.633
28109SOL    HW286225   4.935   8.366   1.691
28110SOL     OW86226  13.992   4.865  12.419
28110SOL    HW186227  14.082   4.870  12.451
28110SOL    HW286228  13.957   4.786  12.460
28111SOL     OW86229  13.969   1.485  13.080
28111SOL    HW186230  13.990   1.529  12.997
28111SOL    HW286231  13.888   1.437  13.061
28112SOL     OW86232   2.020   3.946   0.477
28112SOL    HW186233   2.072   4.021   0.448
28112SOL    HW286234   1.948   3.942   0.414
28113SOL     OW86235   1.865  12.582   9.846
28113SOL    HW186236   1.891  12.674   9.850
28113SOL    HW286237   1.853  12.556   9.937
28114SOL     OW86238   3.298   7.318  11.165
28114SOL    HW186239   3.330   7.236  11.126
28114SOL    HW286240   3.221   7.292  11.216
28115SOL     OW86241   1.366   5.224  14.047
28115SOL    HW186242   1.433   5.157  14.060
28115SOL    HW286243   1.285   5.175  14.039
28116SOL     OW86244   6.236  11.104  14.451
28116SOL    HW186245   6.205  11.014  14.452
28116SOL    HW286246   6.219  11.137  14.539
28117SOL     OW86247   9.869   4.004  12.575
28117SOL    HW186248   9.906   4.059  12.506
28117SOL    HW286249   9.909   4.036  12.656
28118SOL     OW86250   0.308  12.183   5.709
28118SOL    HW186251   0.276  12.262   5.752
28118SOL    HW286252   0.349  12.132   5.779
28119SOL     OW86253   5.435  11.716   7.213
28119SOL    HW186254   5.374  11.790   7.210
28119SOL    HW286255   5.434  11.688   7.304
28120SOL     OW86256   9.975   7.892   2.729
28120SOL    HW186257  10.060   7.935   2.737
28120SOL    HW286258   9.912   7.964   2.728
28121SOL     OW86259  11.225   5.942  11.056
28121SOL    HW186260  11.196   6.032  11.074
28121SOL    HW286261  11.237   5.904  11.143
28122SOL     OW86262   6.515   7.386   9.044
28122SOL    HW186263   6.437   7.435   9.068
28122SOL    HW286264   6.484   7.316   8.988
28123SOL     OW86265   0.754  13.166  10.165
28123SOL    HW186266   0.756  13.078  10.127
28123SOL    HW286267   0.846  13.194  10.167
28124SOL     OW86268  12.502   0.269   5.862
28124SOL    HW186269  12.556   0.196   5.831
28124SOL    HW286270  12.455   0.299   5.784
28125SOL     OW86271   3.598  12.593   3.487
28125SOL    HW186272   3.629  12.572   3.398
28125SOL    HW286273   3.526  12.654   3.473
28126SOL     OW86274   8.038  13.534  12.886
28126SOL    HW186275   8.074  13.534  12.975
28126SOL    HW286276   8.025  13.626  12.866
28127SOL     OW86277  13.924   3.450   1.985
28127SOL    HW186278  13.931   3.382   2.053
28127SOL    HW286279  14.010   3.451   1.944
28128SOL     OW86280  10.441  11.056   6.282
28128SOL    HW186281  10.526  11.097   6.264
28128SOL    HW286282  10.387  11.080   6.207
28129SOL     OW86283   8.251   0.588   2.589
28129SOL    HW186284   8.208   0.674   2.585
28129SOL    HW286285   8.266   0.574   2.682
28130SOL     OW86286  12.152   2.393   5.916
28130SOL    HW186287  12.135   2.483   5.888
28130SOL    HW286288  12.242   2.376   5.886
28131SOL     OW86289  12.491   1.346  12.749
28131SOL    HW186290  12.396   1.352  12.758
28131SOL    HW286291  12.524   1.425  12.792
28132SOL     OW86292   8.246   0.212  12.422
28132SOL    HW186293   8.256   0.183  12.331
28132SOL    HW286294   8.314   0.164  12.470
28133SOL     OW86295   4.934  14.832   7.385
28133SOL    HW186296   5.002  14.831   7.452
28133SOL    HW286297   4.964  14.770   7.319
28134SOL     OW86298   6.421  12.759   1.955
28134SOL    HW186299   6.446  12.848   1.932
28134SOL    HW286300   6.326  12.758   1.949
28135SOL     OW86301   0.694  11.289   1.536
28135SOL    HW186302   0.780  11.262   1.570
28135SOL    HW286303   0.631  11.243   1.591
28136SOL     OW86304   9.961  12.060   9.944
28136SOL    HW186305   9.870  12.031   9.938
28136SOL    HW286306  10.004  12.019   9.869
28137SOL     OW86307   4.731   2.313  12.521
28137SOL    HW186308   4.773   2.394  12.549
28137SOL    HW286309   4.652   2.340  12.475
28138SOL     OW86310   3.733   5.150   2.864
28138SOL    HW186311   3.812   5.186   2.902
28138SOL    HW286312   3.702   5.086   2.928
28139SOL     OW86313   5.399  10.968   0.864
28139SOL    HW186314   5.348  10.915   0.802
28139SOL    HW286315   5.435  11.038   0.810
28140SOL     OW86316  12.802  11.532   4.311
28140SOL    HW186317  12.734  11.506   4.374
28140SOL    HW286318  12.755  11.572   4.239
28141SOL     OW86319   2.061   7.343  12.690
28141SOL    HW186320   2.047   7.438  12.681
28141SOL    HW286321   2.112   7.334  12.770
28142SOL     OW86322   7.296   8.303  12.840
28142SOL    HW186323   7.384   8.284  12.808
28142SOL    HW286324   7.245   8.224  12.821
28143SOL     OW86325   1.774   6.207   2.949
28143SOL    HW186326   1.830   6.153   3.004
28143SOL    HW286327   1.781   6.168   2.862
28144SOL     OW86328  14.524  14.326   2.832
28144SOL    HW186329  14.551  14.380   2.758
28144SOL    HW286330  14.471  14.256   2.794
28145SOL     OW86331   4.819   8.612   6.014
28145SOL    HW186332   4.865   8.548   5.961
28145SOL    HW286333   4.728   8.607   5.984
28146SOL     OW86334  12.983  10.927   6.879
28146SOL    HW186335  13.049  10.879   6.828
28146SOL    HW286336  13.016  10.924   6.969
28147SOL     OW86337   8.328   7.948   7.600
28147SOL    HW186338   8.359   7.872   7.550
28147SOL    HW286339   8.379   7.946   7.681
28148SOL     OW86340   4.349  10.444  12.234
28148SOL    HW186341   4.435  10.474  12.205
28148SOL    HW286342   4.348  10.461  12.328
28149SOL     OW86343   9.647   4.981   8.548
28149SOL    HW186344   9.562   4.937   8.541
28149SOL    HW286345   9.661   4.992   8.642
28150SOL     OW86346  14.721   1.913   3.491
28150SOL    HW186347  14.741   1.826   3.456
28150SOL    HW286348  14.802   1.942   3.531
28151SOL     OW86349  11.830   7.422  10.578
28151SOL    HW186350  11.738   7.404  10.596
28151SOL    HW286351  11.854   7.357  10.512
28152SOL     OW86352  14.333   9.305   9.857
28152SOL    HW186353  14.300   9.395   9.855
28152SOL    HW286354  14.346   9.287   9.950
28153SOL     OW86355   9.455   5.859   0.124
28153SOL    HW186356   9.431   5.788   0.064
28153SOL    HW286357   9.465   5.936   0.069
28154SOL     OW86358   0.559   8.067  11.665
28154SOL    HW186359   0.598   8.051  11.751
28154SOL    HW286360   0.604   8.005  11.606
28155SOL     OW86361   8.316   6.022   8.685
28155SOL    HW186362   8.334   5.950   8.746
28155SOL    HW286363   8.391   6.022   8.625
28156SOL     OW86364   9.251   2.783   9.240
28156SOL    HW186365   9.343   2.804   9.221
28156SOL    HW286366   9.224   2.850   9.303
28157SOL     OW86367   2.396  14.523   5.619
28157SOL    HW186368   2.459  14.507   5.689
28157SOL    HW286369   2.442  14.580   5.558
28158SOL     OW86370  12.089   0.703   3.985
28158SOL    HW186371  12.120   0.672   3.900
28158SOL    HW286372  12.160   0.683   4.046
28159SOL     OW86373  11.006   8.648  14.551
28159SOL    HW186374  11.058   8.721  14.517
28159SOL    HW286375  11.043   8.570  14.508
28160SOL     OW86376  13.516  10.925   2.598
28160SOL    HW186377  13.609  10.908   2.616
28160SOL    HW286378  13.509  11.020   2.599
28161SOL     OW86379   0.576  12.566   1.293
28161SOL    HW186380   0.567  12.597   1.203
28161SOL    HW286381   0.489  12.534   1.316
28162SOL     OW86382  13.975  13.816   3.760
28162SOL    HW186383  14.059  13.809   3.805
28162SOL    HW286384  13.926  13.881   3.810
28163SOL     OW86385   2.930  13.770   7.574
28163SOL    HW186386   2.980  13.840   7.615
28163SOL    HW286387   2.995  13.716   7.529
28164SOL     OW86388   0.347   7.692   2.427
28164SOL    HW186389   0.439   7.706   2.447
28164SOL    HW286390   0.336   7.597   2.426
28165SOL     OW86391   6.420   9.290   1.767
28165SOL    HW186392   6.406   9.196   1.781
28165SOL    HW286393   6.419   9.328   1.855
28166SOL     OW86394   4.563   8.886  10.408
28166SOL    HW186395   4.482   8.904  10.359
28166SOL    HW286396   4.566   8.791  10.415
28167SOL     OW86397   6.959  12.681  12.010
28167SOL    HW186398   6.907  12.644  12.081
28167SOL    HW286399   6.895  12.724  11.953
28168SOL     OW86400   0.081   5.575  13.982
28168SOL    HW186401   0.081   5.604  13.891
28168SOL    HW286402  14.864   5.531  13.993
28169SOL     OW86403   7.104  11.860  13.374
28169SOL    HW186404   7.031  11.921  13.357
28169SOL    HW286405   7.142  11.891  13.456
28170SOL     OW86406   0.305  12.451  13.954
28170SOL    HW186407   0.299  12.505  13.875
28170SOL    HW286408   0.339  12.367  13.923
28171SOL     OW86409   2.158   2.724  11.249
28171SOL    HW186410   2.175   2.669  11.172
28171SOL    HW286411   2.179   2.813  11.221
28172SOL     OW86412  14.018   8.098   7.624
28172SOL    HW186413  13.970   8.180   7.630
28172SOL    HW286414  14.021   8.065   7.715
28173SOL     OW86415   2.021   2.645   8.768
28173SOL    HW186416   2.050   2.736   8.761
28173SOL    HW286417   1.926   2.650   8.778
28174SOL     OW86418   5.071   7.888   8.523
28174SOL    HW186419   5.132   7.874   8.596
28174SOL    HW286420   4.986   7.900   8.565
28175SOL     OW86421   3.558  12.785  13.639
28175SOL    HW186422   3.526  12.741  13.718
28175SOL    HW286423   3.500  12.859  13.627
28176SOL     OW86424  10.360   8.990   1.423
28176SOL    HW186425  10.344   8.899   1.448
28176SOL    HW286426  10.356   8.989   1.327
28177SOL     OW86427   7.213   3.805  11.064
28177SOL    HW186428   7.147   3.787  11.131
28177SOL    HW286429   7.222   3.722  11.016
28178SOL     OW86430   9.794   1.884   0.050
28178SOL    HW186431   9.780   1.971   0.013
28178SOL    HW286432   9.711   1.864   0.094
28179SOL     OW86433   8.693  10.349   7.402
28179SOL    HW186434   8.689  10.262   7.363
28179SOL    HW286435   8.618  10.352   7.461
28180SOL     OW86436  10.993  12.544  12.520
28180SOL    HW186437  10.959  12.632  12.508
28180SOL    HW286438  11.088  12.555  12.521
28181SOL     OW86439   5.805   7.855   9.667
28181SOL    HW186440   5.779   7.888   9.753
28181SOL    HW286441   5.762   7.914   9.605
28182SOL     OW86442   4.087   7.634   9.896
28182SOL    HW186443   4.119   7.554   9.854
28182SOL    HW286444   4.016   7.665   9.840
28183SOL     OW86445   8.382   1.830  14.067
28183SOL    HW186446   8.344   1.836  13.979
28183SOL    HW286447   8.311   1.855  14.126
28184SOL     OW86448  14.461   7.833   3.581
28184SOL    HW186449  14.468   7.909   3.524
28184SOL    HW286450  14.493   7.760   3.528
28185SOL     OW86451  11.606  14.816   6.976
28185SOL    HW186452  11.598  14.815   7.072
28185SOL    HW286453  11.663  14.742   6.956
28186SOL     OW86454   9.245   2.804   3.041
28186SOL    HW186455   9.277   2.786   3.129
28186SOL    HW286456   9.154   2.832   3.054
28187SOL     OW86457   5.313  14.526   9.029
28187SOL    HW186458   5.408  14.516   9.021
28187SOL    HW286459   5.287  14.577   8.952
28188SOL     OW86460   4.430  12.471  13.425
28188SOL    HW186461   4.439  12.410  13.352
28188SOL    HW286462   4.336  12.475  13.442
28189SOL     OW86463   6.992  12.557   8.858
28189SOL    HW186464   7.004  12.624   8.925
28189SOL    HW286465   6.999  12.604   8.775
28190SOL     OW86466   4.658   7.273   8.030
28190SOL    HW186467   4.590   7.283   7.963
28190SOL    HW286468   4.676   7.179   8.032
28191SOL     OW86469   1.913   0.354   2.546
28191SOL    HW186470   2.001   0.357   2.510
28191SOL    HW286471   1.911   0.275   2.600
28192SOL     OW86472  12.192   8.761  13.182
28192SOL    HW186473  12.105   8.734  13.211
28192SOL    HW286474  12.250   8.692  13.215
28193SOL     OW86475  11.346  12.515  11.780
28193SOL    HW186476  11.326  12.424  11.755
28193SOL    HW286477  11.260  12.555  11.795
28194SOL     OW86478   7.476   8.157   3.062
28194SOL    HW186479   7.531   8.234   3.077
28194SOL    HW286480   7.434   8.141   3.147
28195SOL     OW86481   7.271  11.020  13.241
28195SOL    HW186482   7.285  11.052  13.330
28195SOL    HW286483   7.177  11.000  13.238
28196SOL     OW86484   3.328   8.763   9.811
28196SOL    HW186485   3.294   8.694   9.755
28196SOL    HW286486   3.288   8.747   9.897
28197SOL     OW86487   4.945   7.476   0.723
28197SOL    HW186488   4.909   7.510   0.641
28197SOL    HW286489   4.868   7.460   0.778
28198SOL     OW86490   9.410  10.568   1.051
28198SOL    HW186491   9.376  10.656   1.037
28198SOL    HW286492   9.421  10.561   1.146
28199SOL     OW86493   3.229  13.915   6.829
28199SOL    HW186494   3.308  13.866   6.853
28199SOL    HW286495   3.159  13.850   6.835
28200SOL     OW86496   9.371  11.126  13.706
28200SOL    HW186497   9.287  11.090  13.734
28200SOL    HW286498   9.376  11.106  13.613
28201SOL     OW86499  10.318  11.508   2.257
28201SOL    HW186500  10.404  11.549   2.246
28201SOL    HW286501  10.296  11.521   2.350
28202SOL     OW86502   8.456   9.548   4.122
28202SOL    HW186503   8.551   9.543   4.139
28202SOL    HW286504   8.430   9.457   4.105
28203SOL     OW86505  13.878  10.928  12.591
28203SOL    HW186506  13.888  10.973  12.676
28203SOL    HW286507  13.784  10.922  12.578
28204SOL     OW86508  10.770   6.451  14.526
28204SOL    HW186509  10.677   6.468  14.517
28204SOL    HW286510  10.813   6.528  14.489
28205SOL     OW86511   8.523   1.922   4.367
28205SOL    HW186512   8.475   1.925   4.450
28205SOL    HW286513   8.555   1.832   4.361
28206SOL     OW86514  10.339   4.975  14.374
28206SOL    HW186515  10.329   5.020  14.458
28206SOL    HW286516  10.312   5.039  14.309
28207SOL     OW86517  11.930   5.243   3.984
28207SOL    HW186518  11.992   5.238   3.911
28207SOL    HW286519  11.970   5.190   4.053
28208SOL     OW86520   3.119   3.089  14.416
28208SOL    HW186521   3.130   3.145  14.493
28208SOL    HW286522   3.102   3.150  14.344
28209SOL     OW86523  10.418   3.166   4.487
28209SOL    HW186524  10.348   3.183   4.550
28209SOL    HW286525  10.460   3.086   4.518
28210SOL     OW86526   1.854  10.431  10.121
28210SOL    HW186527   1.827  10.410  10.031
28210SOL    HW286528   1.931  10.486  10.111
28211SOL     OW86529   8.260   4.641   9.916
28211SOL    HW186530   8.207   4.714   9.949
28211SOL    HW286531   8.215   4.562   9.948
28212SOL     OW86532   0.245  11.995  14.258
28212SOL    HW186533   0.286  12.081  14.250
28212SOL    HW286534   0.174  12.007  14.321
28213SOL     OW86535   6.344   9.019   9.039
28213SOL    HW186536   6.329   9.081   9.110
28213SOL    HW286537   6.428   9.044   9.002
28214SOL     OW86538   9.795   9.730   6.082
28214SOL    HW186539   9.779   9.635   6.077
28214SOL    HW286540   9.710   9.767   6.105
28215SOL     OW86541  11.120   9.596  13.337
28215SOL    HW186542  11.205   9.591  13.293
28215SOL    HW286543  11.108   9.510  13.376
28216SOL     OW86544   5.105   0.837   4.153
28216SOL    HW186545   5.088   0.919   4.107
28216SOL    HW286546   5.063   0.770   4.099
28217SOL     OW86547   3.482   4.186   3.974
28217SOL    HW186548   3.566   4.218   4.005
28217SOL    HW286549   3.424   4.263   3.976
28218SOL     OW86550   0.299   7.934  11.731
28218SOL    HW186551   0.301   7.861  11.792
28218SOL    HW286552   0.391   7.947  11.706
28219SOL     OW86553   8.890   5.088   5.956
28219SOL    HW186554   8.966   5.066   6.009
28219SOL    HW286555   8.872   5.010   5.904
28220SOL     OW86556   0.564   7.177  14.726
28220SOL    HW186557   0.535   7.267  14.741
28220SOL    HW286558   0.571   7.169  14.631
28221SOL     OW86559   7.353   8.137  13.829
28221SOL    HW186560   7.357   8.129  13.734
28221SOL    HW286561   7.266   8.171  13.848
28222SOL     OW86562  13.665   9.643   4.298
28222SOL    HW186563  13.753   9.612   4.320
28222SOL    HW286564  13.618   9.642   4.381
28223SOL     OW86565   2.340   3.764  13.665
28223SOL    HW186566   2.386   3.709  13.729
28223SOL    HW286567   2.252   3.775  13.702
28224SOL     OW86568   0.728  11.135  11.932
28224SOL    HW186569   0.817  11.100  11.941
28224SOL    HW286570   0.723  11.167  11.842
28225SOL     OW86571   3.823  13.300  13.702
28225SOL    HW186572   3.804  13.384  13.659
28225SOL    HW286573   3.756  13.241  13.668
28226SOL     OW86574   1.162   7.875   5.321
28226SOL    HW186575   1.118   7.944   5.271
28226SOL    HW286576   1.245   7.862   5.277
28227SOL     OW86577  14.081   1.607   6.682
28227SOL    HW186578  14.002   1.632   6.635
28227SOL    HW286579  14.127   1.549   6.621
28228SOL     OW86580  10.589  13.573   2.420
28228SOL    HW186581  10.611  13.548   2.510
28228SOL    HW286582  10.585  13.668   2.422
28229SOL     OW86583   4.252   1.899  12.252
28229SOL    HW186584   4.310   1.955  12.304
28229SOL    HW286585   4.260   1.812  12.292
28230SOL     OW86586   8.274   9.598   0.853
28230SOL    HW186587   8.366   9.623   0.864
28230SOL    HW286588   8.240   9.659   0.788
28231SOL     OW86589   6.829  10.269   3.723
28231SOL    HW186590   6.812  10.249   3.630
28231SOL    HW286591   6.742  10.283   3.760
28232SOL     OW86592   4.074   7.742   6.205
28232SOL    HW186593   4.075   7.754   6.110
28232SOL    HW286594   4.039   7.653   6.218
28233SOL     OW86595  12.097   2.560   8.860
28233SOL    HW186596  12.139   2.514   8.933
28233SOL    HW286597  12.039   2.624   8.902
28234SOL     OW86598  12.829   1.723   3.963
28234SOL    HW186599  12.818   1.756   4.052
28234SOL    HW286600  12.761   1.656   3.953
28235SOL     OW86601   0.197   5.743   6.856
28235SOL    HW186602   0.179   5.668   6.912
28235SOL    HW286603   0.225   5.705   6.773
28236SOL     OW86604  11.305   1.400   2.168
28236SOL    HW186605  11.364   1.327   2.147
28236SOL    HW286606  11.363   1.468   2.203
28237SOL     OW86607   3.598   1.622   1.300
28237SOL    HW186608   3.519   1.605   1.352
28237SOL    HW286609   3.643   1.538   1.297
28238SOL     OW86610   6.759   7.700  11.207
28238SOL    HW186611   6.792   7.625  11.156
28238SOL    HW286612   6.772   7.775  11.150
28239SOL     OW86613   0.208  13.514   1.741
28239SOL    HW186614   0.203  13.534   1.647
28239SOL    HW286615   0.247  13.426   1.744
28240SOL     OW86616  13.368  10.640   7.444
28240SOL    HW186617  13.318  10.576   7.494
28240SOL    HW286618  13.365  10.720   7.495
28241SOL     OW86619   6.419   7.147   7.357
28241SOL    HW186620   6.375   7.214   7.303
28241SOL    HW286621   6.393   7.064   7.318
28242SOL     OW86622  14.506  12.997   1.143
28242SOL    HW186623  14.568  12.959   1.082
28242SOL    HW286624  14.512  13.091   1.128
28243SOL     OW86625  11.786   0.628   7.173
28243SOL    HW186626  11.735   0.551   7.197
28243SOL    HW286627  11.817   0.611   7.084
28244SOL     OW86628   5.487   1.955  14.772
28244SOL    HW186629   5.470   2.024  14.835
28244SOL    HW286630   5.457   1.875  14.815
28245SOL     OW86631   5.860  11.993   1.895
28245SOL    HW186632   5.799  11.954   1.957
28245SOL    HW286633   5.811  11.998   1.813
28246SOL     OW86634   1.498  13.508  11.017
28246SOL    HW186635   1.573  13.565  11.029
28246SOL    HW286636   1.428  13.549  11.067
28247SOL     OW86637  11.282   5.958   2.438
28247SOL    HW186638  11.204   5.977   2.386
28247SOL    HW286639  11.260   5.989   2.526
28248SOL     OW86640   9.838   0.304   4.228
28248SOL    HW186641   9.867   0.345   4.309
28248SOL    HW286642   9.767   0.245   4.254
28249SOL     OW86643   0.824   8.574   2.248
28249SOL    HW186644   0.826   8.521   2.169
28249SOL    HW286645   0.907   8.621   2.248
28250SOL     OW86646   8.422   3.723   3.225
28250SOL    HW186647   8.408   3.774   3.145
28250SOL    HW286648   8.401   3.784   3.296
28251SOL     OW86649  13.541   3.805   9.699
28251SOL    HW186650  13.569   3.748   9.627
28251SOL    HW286651  13.613   3.800   9.762
28252SOL     OW86652   0.924   7.934  14.110
28252SOL    HW186653   0.995   7.872  14.097
28252SOL    HW286654   0.864   7.919  14.037
28253SOL     OW86655   7.799  13.155   7.973
28253SOL    HW186656   7.829  13.137   7.884
28253SOL    HW286657   7.815  13.074   8.021
28254SOL     OW86658   4.488  11.879   3.599
28254SOL    HW186659   4.529  11.929   3.528
28254SOL    HW286660   4.509  11.929   3.678
28255SOL     OW86661   5.639  11.479   9.771
28255SOL    HW186662   5.671  11.422   9.701
28255SOL    HW286663   5.559  11.436   9.802
28256SOL     OW86664   9.360  14.068   2.393
28256SOL    HW186665   9.407  14.138   2.348
28256SOL    HW286666   9.309  14.113   2.460
28257SOL     OW86667   4.104   9.680  10.169
28257SOL    HW186668   4.132   9.738  10.098
28257SOL    HW286669   4.156   9.708  10.244
28258SOL     OW86670  14.285   7.496  10.035
28258SOL    HW186671  14.228   7.571  10.017
28258SOL    HW286672  14.225   7.423  10.049
28259SOL     OW86673   8.422  10.034   8.923
28259SOL    HW186674   8.391   9.982   8.850
28259SOL    HW286675   8.352  10.029   8.988
28260SOL     OW86676   8.485   9.758  13.941
28260SOL    HW186677   8.434   9.777  14.020
28260SOL    HW286678   8.420   9.748  13.872
28261SOL     OW86679   1.729   3.298  13.260
28261SOL    HW186680   1.822   3.302  13.238
28261SOL    HW286681   1.698   3.216  13.222
28262SOL     OW86682   5.206  11.272   6.764
28262SOL    HW186683   5.117  11.253   6.792
28262SOL    HW286684   5.203  11.271   6.668
28263SOL     OW86685  10.327   7.504   7.895
28263SOL    HW186686  10.371   7.540   7.972
28263SOL    HW286687  10.398   7.485   7.833
28264SOL     OW86688  11.083  10.750  10.255
28264SOL    HW186689  11.176  10.752  10.278
28264SOL    HW286690  11.080  10.785  10.166
28265SOL     OW86691   0.055  14.685   3.861
28265SOL    HW186692  14.837  14.693   3.819
28265SOL    HW286693   0.103  14.622   3.807
28266SOL     OW86694   9.584   6.223   0.226
28266SOL    HW186695   9.490   6.238   0.213
28266SOL    HW286696   9.607   6.156   0.161
28267SOL     OW86697   8.917   9.206   1.817
28267SOL    HW186698   8.990   9.268   1.818
28267SOL    HW286699   8.907   9.181   1.725
28268SOL     OW86700  12.720   2.109   6.568
28268SOL    HW186701  12.662   2.035   6.550
28268SOL    HW286702  12.806   2.080   6.538
28269SOL     OW86703   0.816   0.040   1.430
28269SOL    HW186704   0.770   0.097   1.491
28269SOL    HW286705   0.795  14.819   1.459
28270SOL     OW86706   6.330  11.685  14.473
28270SOL    HW186707   6.306  11.741  14.547
28270SOL    HW286708   6.413  11.720  14.442
28271SOL     OW86709   7.063   4.781   2.116
28271SOL    HW186710   7.089   4.745   2.031
28271SOL    HW286711   7.106   4.723   2.179
28272SOL     OW86712   4.318   8.514   8.950
28272SOL    HW186713   4.411   8.500   8.931
28272SOL    HW286714   4.277   8.429   8.935
28273SOL     OW86715   1.014   8.844   9.335
28273SOL    HW186716   0.949   8.881   9.275
28273SOL    HW286717   1.062   8.780   9.283
28274SOL     OW86718   0.728   4.481  10.546
28274SOL    HW186719   0.746   4.390  10.524
28274SOL    HW286720   0.682   4.477  10.630
28275SOL     OW86721  11.304   4.051   7.502
28275SOL    HW186722  11.345   3.974   7.462
28275SOL    HW286723  11.377   4.109   7.522
28276SOL     OW86724  12.714   8.653   3.902
28276SOL    HW186725  12.675   8.571   3.872
28276SOL    HW286726  12.647   8.719   3.886
28277SOL     OW86727   3.176   8.634   9.565
28277SOL    HW186728   3.132   8.717   9.583
28277SOL    HW286729   3.105   8.571   9.552
28278SOL     OW86730   1.631  13.283   2.818
28278SOL    HW186731   1.689  13.235   2.759
28278SOL    HW286732   1.683  13.357   2.848
28279SOL     OW86733   2.262  12.920  13.473
28279SOL    HW186734   2.211  12.924  13.393
28279SOL    HW286735   2.282  12.827  13.484
28280SOL     OW86736  13.853   0.613  13.735
28280SOL    HW186737  13.886   0.684  13.680
28280SOL    HW286738  13.869   0.643  13.825
28281SOL     OW86739  14.090   1.853   5.094
28281SOL    HW186740  14.151   1.856   5.021
28281SOL    HW286741  14.046   1.939   5.093
28282SOL     OW86742  11.800   9.641  10.257
28282SOL    HW186743  11.741   9.574  10.221
28282SOL    HW286744  11.886   9.600  10.256
28283SOL     OW86745   6.256  10.183   1.288
28283SOL    HW186746   6.279  10.241   1.360
28283SOL    HW286747   6.200  10.236   1.231
28284SOL     OW86748   7.696  12.042   5.468
28284SOL    HW186749   7.683  12.087   5.385
28284SOL    HW286750   7.765  11.977   5.450
28285SOL     OW86751  12.352   5.000   2.189
28285SOL    HW186752  12.300   5.065   2.235
28285SOL    HW286753  12.402   4.957   2.258
28286SOL     OW86754  10.755   8.010   1.148
28286SOL    HW186755  10.838   7.967   1.169
28286SOL    HW286756  10.692   7.972   1.210
28287SOL     OW86757  11.370   9.479  12.306
28287SOL    HW186758  11.301   9.416  12.284
28287SOL    HW286759  11.384   9.529  12.226
28288SOL     OW86760   1.845   7.894   6.270
28288SOL    HW186761   1.803   7.817   6.233
28288SOL    HW286762   1.935   7.867   6.287
28289SOL     OW86763   0.338  11.108   4.624
28289SOL    HW186764   0.388  11.059   4.558
28289SOL    HW286765   0.378  11.195   4.625
28290SOL     OW86766   8.005   0.550  11.613
28290SOL    HW186767   7.987   0.464  11.649
28290SOL    HW286768   7.957   0.553  11.531
28291SOL     OW86769  11.169   8.643   2.346
28291SOL    HW186770  11.122   8.622   2.427
28291SOL    HW286771  11.147   8.571   2.287
28292SOL     OW86772  10.059   3.818  13.680
28292SOL    HW186773  10.112   3.780  13.610
28292SOL    HW286774  10.091   3.776  13.760
28293SOL     OW86775   6.224   8.471  12.508
28293SOL    HW186776   6.266   8.457  12.423
28293SOL    HW286777   6.237   8.389  12.555
28294SOL     OW86778  10.133   4.712  13.963
28294SOL    HW186779  10.085   4.629  13.975
28294SOL    HW286780  10.156   4.740  14.051
28295SOL     OW86781   0.098   5.905   0.565
28295SOL    HW186782   0.057   5.925   0.649
28295SOL    HW286783   0.049   5.830   0.531
28296SOL     OW86784  12.414   7.629  11.634
28296SOL    HW186785  12.345   7.599  11.576
28296SOL    HW286786  12.423   7.559  11.699
28297SOL     OW86787   6.357   8.888  11.876
28297SOL    HW186788   6.320   8.894  11.787
28297SOL    HW286789   6.330   8.802  11.907
28298SOL     OW86790   5.149  11.350  10.409
28298SOL    HW186791   5.209  11.424  10.415
28298SOL    HW286792   5.161  11.303  10.491
28299SOL     OW86793   2.701  14.667   3.620
28299SOL    HW186794   2.725  14.656   3.712
28299SOL    HW286795   2.756  14.605   3.573
28300SOL     OW86796   3.761  13.302   3.501
28300SOL    HW186797   3.798  13.313   3.414
28300SOL    HW286798   3.836  13.287   3.558
28301SOL     OW86799   9.113   3.002   2.070
28301SOL    HW186800   9.090   3.060   1.998
28301SOL    HW286801   9.128   3.060   2.145
28302SOL     OW86802   3.114   8.758  10.887
28302SOL    HW186803   3.136   8.668  10.863
28302SOL    HW286804   3.132   8.763  10.981
28303SOL     OW86805   2.051  14.484  11.774
28303SOL    HW186806   2.069  14.490  11.680
28303SOL    HW286807   1.955  14.492  11.779
28304SOL     OW86808   9.340  10.961   9.118
28304SOL    HW186809   9.282  10.891   9.148
28304SOL    HW286810   9.429  10.926   9.133
28305SOL     OW86811   6.578  10.310  10.869
28305SOL    HW186812   6.556  10.221  10.841
28305SOL    HW286813   6.542  10.366  10.800
28306SOL     OW86814   1.152   7.758  13.542
28306SOL    HW186815   1.237   7.783  13.506
28306SOL    HW286816   1.127   7.832  13.598
28307SOL     OW86817  11.083  12.529  12.238
28307SOL    HW186818  11.171  12.531  12.274
28307SOL    HW286819  11.081  12.602  12.176
28308SOL     OW86820   3.372   1.253   9.538
28308SOL    HW186821   3.278   1.246   9.554
28308SOL    HW286822   3.400   1.163   9.523
28309SOL     OW86823   4.901   8.505   6.275
28309SOL    HW186824   4.981   8.456   6.256
28309SOL    HW286825   4.864   8.525   6.189
28310SOL     OW86826   5.796   4.608  12.986
28310SOL    HW186827   5.717   4.661  12.970
28310SOL    HW286828   5.763   4.530  13.030
28311SOL     OW86829   5.381   5.883   8.659
28311SOL    HW186830   5.461   5.890   8.608
28311SOL    HW286831   5.404   5.916   8.746
28312SOL     OW86832   6.386   6.743   1.315
28312SOL    HW186833   6.471   6.711   1.283
28312SOL    HW286834   6.356   6.676   1.376
28313SOL     OW86835  11.532   0.307   4.328
28313SOL    HW186836  11.571   0.347   4.250
28313SOL    HW286837  11.510   0.382   4.384
28314SOL     OW86838   1.437   6.646   0.470
28314SOL    HW186839   1.379   6.710   0.429
28314SOL    HW286840   1.416   6.563   0.425
28315SOL     OW86841   6.696  12.217   0.591
28315SOL    HW186842   6.604  12.207   0.563
28315SOL    HW286843   6.724  12.128   0.614
28316SOL     OW86844  13.437   6.179   2.973
28316SOL    HW186845  13.486   6.253   2.937
28316SOL    HW286846  13.441   6.193   3.068
28317SOL     OW86847  10.472  10.311   1.005
28317SOL    HW186848  10.429  10.328   1.088
28317SOL    HW286849  10.452  10.388   0.951
28318SOL     OW86850   2.653  13.201   8.801
28318SOL    HW186851   2.699  13.172   8.722
28318SOL    HW286852   2.619  13.121   8.840
28319SOL     OW86853   2.668  12.904   8.388
28319SOL    HW186854   2.605  12.852   8.439
28319SOL    HW286855   2.718  12.840   8.339
28320SOL     OW86856   0.306   7.132  11.688
28320SOL    HW186857   0.218   7.115  11.722
28320SOL    HW286858   0.362   7.071  11.735
28321SOL     OW86859   9.841   4.479  11.192
28321SOL    HW186860   9.747   4.499  11.202
28321SOL    HW286861   9.885   4.561  11.217
28322SOL     OW86862   8.794   3.196  10.663
28322SOL    HW186863   8.864   3.252  10.628
28322SOL    HW286864   8.754   3.248  10.732
28323SOL     OW86865   5.925   0.149   3.676
28323SOL    HW186866   5.952   0.230   3.720
28323SOL    HW286867   5.900   0.090   3.746
28324SOL     OW86868  12.814   7.205   4.719
28324SOL    HW186869  12.843   7.296   4.725
28324SOL    HW286870  12.726   7.210   4.682
28325SOL     OW86871  12.569   6.705   9.612
28325SOL    HW186872  12.502   6.739   9.553
28325SOL    HW286873  12.544   6.613   9.628
28326SOL     OW86874   5.148   2.028   0.865
28326SOL    HW186875   5.090   2.088   0.817
28326SOL    HW286876   5.174   2.077   0.943
28327SOL     OW86877   6.141   9.018  12.263
28327SOL    HW186878   6.215   8.967  12.296
28327SOL    HW286879   6.165   9.109  12.281
28328SOL     OW86880  10.913   2.523   1.047
28328SOL    HW186881  10.973   2.537   1.121
28328SOL    HW286882  10.940   2.587   0.982
28329SOL     OW86883  13.982  13.498   9.012
28329SOL    HW186884  14.036  13.423   8.984
28329SOL    HW286885  13.904  13.492   8.957
28330SOL     OW86886   1.470   4.316   4.702
28330SOL    HW186887   1.397   4.283   4.755
28330SOL    HW286888   1.542   4.256   4.721
28331SOL     OW86889  10.148   8.120  14.505
28331SOL    HW186890  10.153   8.084  14.417
28331SOL    HW286891  10.228   8.087  14.548
28332SOL     OW86892   1.832  11.470   3.382
28332SOL    HW186893   1.738  11.454   3.389
28332SOL    HW286894   1.847  11.549   3.434
28333SOL     OW86895   3.068  12.314   8.217
28333SOL    HW186896   3.157  12.327   8.184
28333SOL    HW286897   3.031  12.246   8.161
28334SOL     OW86898  14.785   2.670  12.855
28334SOL    HW186899   0.000   2.696  12.814
28334SOL    HW286900  14.721   2.677  12.784
28335SOL     OW86901   8.882  14.436   7.835
28335SOL    HW186902   8.910  14.397   7.752
28335SOL    HW286903   8.916  14.378   7.902
28336SOL     OW86904   2.640  14.269  14.658
28336SOL    HW186905   2.642  14.364  14.641
28336SOL    HW286906   2.684  14.231  14.582
28337SOL     OW86907   0.062   8.323  10.275
28337SOL    HW186908   0.087   8.414  10.290
28337SOL    HW286909   0.083   8.278  10.357
28338SOL     OW86910   2.469   3.949  11.305
28338SOL    HW186911   2.459   3.988  11.218
28338SOL    HW286912   2.554   3.981  11.335
28339SOL     OW86913   9.138  12.158   3.000
28339SOL    HW186914   9.082  12.223   3.042
28339SOL    HW286915   9.212  12.148   3.060
28340SOL     OW86916   9.836   5.944  12.097
28340SOL    HW186917   9.848   6.020  12.040
28340SOL    HW286918   9.769   5.892  12.052
28341SOL     OW86919   0.665   8.338   9.692
28341SOL    HW186920   0.672   8.385   9.609
28341SOL    HW286921   0.722   8.262   9.682
28342SOL     OW86922  10.970  14.528  10.759
28342SOL    HW186923  11.010  14.448  10.725
28342SOL    HW286924  10.878  14.522  10.735
28343SOL     OW86925   9.354   3.364   5.227
28343SOL    HW186926   9.301   3.402   5.297
28343SOL    HW286927   9.344   3.269   5.239
28344SOL     OW86928  12.570   1.028  10.904
28344SOL    HW186929  12.530   1.032  10.991
28344SOL    HW286930  12.517   1.087  10.850
28345SOL     OW86931  14.626   7.572   8.061
28345SOL    HW186932  14.689   7.626   8.108
28345SOL    HW286933  14.579   7.525   8.130
28346SOL     OW86934   7.370   3.115  13.953
28346SOL    HW186935   7.356   3.209  13.948
28346SOL    HW286936   7.335   3.090  14.039
28347SOL     OW86937   9.855  12.959  13.768
28347SOL    HW186938   9.939  12.953  13.813
28347SOL    HW286939   9.878  12.986  13.679
28348SOL     OW86940   7.822  13.801   6.931
28348SOL    HW186941   7.914  13.778   6.944
28348SOL    HW286942   7.813  13.886   6.974
28349SOL     OW86943   1.208   5.483   4.244
28349SOL    HW186944   1.170   5.495   4.157
28349SOL    HW286945   1.301   5.468   4.228
28350SOL     OW86946   1.161  14.691   7.579
28350SOL    HW186947   1.129  14.781   7.575
28350SOL    HW286948   1.179  14.667   7.488
28351SOL     OW86949   3.227   3.572   1.384
28351SOL    HW186950   3.180   3.579   1.467
28351SOL    HW286951   3.289   3.500   1.398
28352SOL     OW86952   8.555   0.454  11.024
28352SOL    HW186953   8.627   0.506  11.059
28352SOL    HW286954   8.492   0.519  10.993
28353SOL     OW86955   8.398   4.460  10.374
28353SOL    HW186956   8.312   4.420  10.388
28353SOL    HW286957   8.382   4.554  10.380
28354SOL     OW86958   3.253   1.555   1.668
28354SOL    HW186959   3.176   1.499   1.670
28354SOL    HW286960   3.271   1.568   1.574
28355SOL     OW86961   0.970   9.867  11.384
28355SOL    HW186962   0.880   9.859  11.414
28355SOL    HW286963   0.993   9.779  11.354
28356SOL     OW86964   4.254   4.994   9.522
28356SOL    HW186965   4.323   4.929   9.509
28356SOL    HW286966   4.269   5.059   9.453
28357SOL     OW86967  11.567   9.316   3.831
28357SOL    HW186968  11.574   9.300   3.737
28357SOL    HW286969  11.498   9.256   3.861
28358SOL     OW86970   7.655   2.154   6.479
28358SOL    HW186971   7.602   2.191   6.549
28358SOL    HW286972   7.633   2.061   6.478
28359SOL     OW86973   7.077  11.393  11.456
28359SOL    HW186974   7.085  11.397  11.552
28359SOL    HW286975   7.160  11.353  11.428
28360SOL     OW86976   6.223   0.365   9.562
28360SOL    HW186977   6.161   0.314   9.510
28360SOL    HW286978   6.267   0.300   9.618
28361SOL     OW86979  14.770   9.461   2.758
28361SOL    HW186980  14.861   9.432   2.758
28361SOL    HW286981  14.761   9.512   2.678
28362SOL     OW86982  14.460  14.758   3.557
28362SOL    HW186983  14.382  14.703   3.548
28362SOL    HW286984  14.427  14.847   3.563
28363SOL     OW86985   2.204   3.841   1.103
28363SOL    HW186986   2.113   3.823   1.078
28363SOL    HW286987   2.243   3.881   1.026
28364SOL     OW86988   7.288   4.247   1.313
28364SOL    HW186989   7.246   4.161   1.321
28364SOL    HW286990   7.322   4.265   1.401
28365SOL     OW86991  10.673   6.606   4.096
28365SOL    HW186992  10.600   6.551   4.123
28365SOL    HW286993  10.732   6.547   4.049
28366SOL     OW86994  14.765  13.771   9.590
28366SOL    HW186995  14.762  13.812   9.503
28366SOL    HW286996  14.686  13.804   9.634
28367SOL     OW86997   0.120  10.613   6.189
28367SOL    HW186998   0.215  10.612   6.195
28367SOL    HW286999   0.102  10.630   6.097
28368SOL     OW87000   8.611   8.215  13.388
28368SOL    HW187001   8.628   8.158  13.463
28368SOL    HW287002   8.665   8.292  13.403
28369SOL     OW87003   9.408   2.880   7.672
28369SOL    HW187004   9.384   2.857   7.762
28369SOL    HW287005   9.452   2.965   7.681
28370SOL     OW87006   7.945  10.556   9.200
28370SOL    HW187007   7.905  10.474   9.229
28370SOL    HW287008   7.894  10.625   9.242
28371SOL     OW87009  14.128  10.396   2.093
28371SOL    HW187010  14.054  10.431   2.142
28371SOL    HW287011  14.157  10.321   2.145
28372SOL     OW87012   7.960   6.565   2.778
28372SOL    HW187013   8.037   6.508   2.783
28372SOL    HW287014   7.996   6.652   2.764
28373SOL     OW87015  11.248  11.843   0.993
28373SOL    HW187016  11.321  11.807   1.044
28373SOL    HW287017  11.197  11.767   0.968
28374SOL     OW87018   7.459   1.591   8.070
28374SOL    HW187019   7.505   1.526   8.017
28374SOL    HW287020   7.404   1.638   8.007
28375SOL     OW87021   2.255   3.147   1.721
28375SOL    HW187022   2.193   3.215   1.746
28375SOL    HW287023   2.218   3.108   1.643
28376SOL     OW87024   6.402   2.018  10.688
28376SOL    HW187025   6.393   2.017  10.783
28376SOL    HW287026   6.354   2.096  10.661
28377SOL     OW87027   6.920   2.780  12.247
28377SOL    HW187028   6.860   2.708  12.226
28377SOL    HW287029   6.888   2.814  12.331
28378SOL     OW87030  11.193  10.589  14.577
28378SOL    HW187031  11.268  10.639  14.545
28378SOL    HW287032  11.177  10.523  14.509
28379SOL     OW87033   8.244  11.564   1.498
28379SOL    HW187034   8.281  11.481   1.469
28379SOL    HW287035   8.235  11.556   1.593
28380SOL     OW87036   3.507   4.977   4.763
28380SOL    HW187037   3.457   4.999   4.685
28380SOL    HW287038   3.521   5.062   4.807
28381SOL     OW87039   8.476   3.668   1.565
28381SOL    HW187040   8.525   3.723   1.504
28381SOL    HW287041   8.410   3.625   1.511
28382SOL     OW87042   4.900  12.316   7.120
28382SOL    HW187043   4.976  12.345   7.069
28382SOL    HW287044   4.826  12.362   7.081
28383SOL     OW87045   0.871   8.121  11.992
28383SOL    HW187046   0.947   8.151  12.043
28383SOL    HW287047   0.909   8.065  11.925
28384SOL     OW87048  10.893   8.386   3.880
28384SOL    HW187049  10.983   8.394   3.847
28384SOL    HW287050  10.881   8.292   3.893
28385SOL     OW87051   8.594  13.652  11.387
28385SOL    HW187052   8.501  13.661  11.405
28385SOL    HW287053   8.599  13.625  11.296
28386SOL     OW87054   5.636  13.740   8.382
28386SOL    HW187055   5.605  13.666   8.435
28386SOL    HW287056   5.599  13.817   8.424
28387SOL     OW87057  13.346  12.723   9.668
28387SOL    HW187058  13.371  12.739   9.759
28387SOL    HW287059  13.379  12.799   9.621
28388SOL     OW87060  14.333   5.354   5.248
28388SOL    HW187061  14.297   5.441   5.260
28388SOL    HW287062  14.281   5.315   5.178
28389SOL     OW87063  12.769   4.764   5.905
28389SOL    HW187064  12.832   4.705   5.865
28389SOL    HW287065  12.815   4.848   5.913
28390SOL     OW87066  11.669   8.044  12.201
28390SOL    HW187067  11.746   8.089  12.237
28390SOL    HW287068  11.596   8.079  12.252
28391SOL     OW87069   4.700   4.481   8.206
28391SOL    HW187070   4.710   4.572   8.233
28391SOL    HW287071   4.683   4.434   8.287
28392SOL     OW87072  13.826  13.934   6.276
28392SOL    HW187073  13.821  14.001   6.208
28392SOL    HW287074  13.836  13.852   6.228
28393SOL     OW87075   9.009   4.352   5.956
28393SOL    HW187076   9.062   4.417   6.002
28393SOL    HW287077   8.938   4.332   6.017
28394SOL     OW87078   3.469   9.246   9.909
28394SOL    HW187079   3.509   9.232   9.995
28394SOL    HW287080   3.489   9.337   9.888
28395SOL     OW87081  14.665   7.276   8.206
28395SOL    HW187082  14.699   7.227   8.281
28395SOL    HW287083  14.713   7.359   8.208
28396SOL     OW87084  14.357   4.262   8.729
28396SOL    HW187085  14.350   4.343   8.678
28396SOL    HW287086  14.435   4.275   8.784
28397SOL     OW87087  11.500  11.946  10.773
28397SOL    HW187088  11.577  11.894  10.748
28397SOL    HW287089  11.503  11.949  10.868
28398SOL     OW87090   9.578   3.126   1.034
28398SOL    HW187091   9.539   3.201   0.989
28398SOL    HW287092   9.518   3.054   1.018
28399SOL     OW87093  12.891  12.755   1.248
28399SOL    HW187094  12.868  12.848   1.253
28399SOL    HW287095  12.839  12.722   1.175
28400SOL     OW87096  11.299   9.906   4.608
28400SOL    HW187097  11.286   9.856   4.689
28400SOL    HW287098  11.390   9.934   4.612
28401SOL     OW87099   1.443   7.224   1.383
28401SOL    HW187100   1.349   7.237   1.394
28401SOL    HW287101   1.461   7.252   1.293
28402SOL     OW87102   9.552   1.232  14.728
28402SOL    HW187103   9.640   1.209  14.700
28402SOL    HW287104   9.545   1.194  14.816
28403SOL     OW87105  11.690   9.541   8.848
28403SOL    HW187106  11.764   9.485   8.823
28403SOL    HW287107  11.719   9.630   8.827
28404SOL     OW87108   5.574   7.693   3.062
28404SOL    HW187109   5.618   7.660   3.140
28404SOL    HW287110   5.608   7.640   2.990
28405SOL     OW87111   2.189  11.352   9.401
28405SOL    HW187112   2.187  11.265   9.441
28405SOL    HW287113   2.257  11.346   9.334
28406SOL     OW87114   2.501  11.642   4.260
28406SOL    HW187115   2.405  11.652   4.260
28406SOL    HW287116   2.524  11.634   4.167
28407SOL     OW87117  12.381   3.440  12.315
28407SOL    HW187118  12.323   3.465  12.243
28407SOL    HW287119  12.353   3.495  12.389
28408SOL     OW87120  10.271   2.988  14.846
28408SOL    HW187121  10.229   2.905   0.002
28408SOL    HW287122  10.206   3.055   0.001
28409SOL     OW87123   1.072   2.620   5.490
28409SOL    HW187124   1.100   2.701   5.531
28409SOL    HW287125   0.995   2.645   5.439
28410SOL     OW87126  13.417   5.562  14.853
28410SOL    HW187127  13.462   5.634  14.807
28410SOL    HW287128  13.441   5.575   0.077
28411SOL     OW87129  11.410   7.011   4.830
28411SOL    HW187130  11.418   7.062   4.749
28411SOL    HW287131  11.362   6.932   4.804
28412SOL     OW87132   5.044   7.913  13.646
28412SOL    HW187133   4.953   7.892  13.667
28412SOL    HW287134   5.078   7.833  13.605
28413SOL     OW87135   0.067   3.187   1.873
28413SOL    HW187136   0.092   3.099   1.844
28413SOL    HW287137  14.864   3.213   1.814
28414SOL     OW87138  11.562   8.508  11.328
28414SOL    HW187139  11.584   8.601  11.320
28414SOL    HW287140  11.477   8.500  11.285
28415SOL     OW87141   9.613   8.911  11.998
28415SOL    HW187142   9.566   8.861  11.931
28415SOL    HW287143   9.706   8.900  11.975
28416SOL     OW87144   8.312   8.981   7.816
28416SOL    HW187145   8.341   9.068   7.842
28416SOL    HW287146   8.230   8.996   7.769
28417SOL     OW87147  13.610  10.082   3.322
28417SOL    HW187148  13.656  10.030   3.387
28417SOL    HW287149  13.627  10.173   3.348
28418SOL     OW87150  11.314  13.341   1.995
28418SOL    HW187151  11.263  13.395   1.935
28418SOL    HW287152  11.312  13.254   1.957
28419SOL     OW87153   3.754  12.990  14.329
28419SOL    HW187154   3.789  13.075  14.354
28419SOL    HW287155   3.737  12.997  14.235
28420SOL     OW87156   2.450  12.445   4.095
28420SOL    HW187157   2.535  12.452   4.051
28420SOL    HW287158   2.386  12.464   4.026
28421SOL     OW87159   0.516   5.913   3.109
28421SOL    HW187160   0.605   5.883   3.126
28421SOL    HW287161   0.503   5.898   3.015
28422SOL     OW87162   1.980   1.715   0.594
28422SOL    HW187163   2.070   1.684   0.580
28422SOL    HW287164   1.933   1.638   0.626
28423SOL     OW87165   2.509   2.161  12.188
28423SOL    HW187166   2.440   2.224  12.168
28423SOL    HW287167   2.562   2.204  12.256
28424SOL     OW87168  11.397   8.707   8.147
28424SOL    HW187169  11.451   8.656   8.087
28424SOL    HW287170  11.430   8.796   8.140
28425SOL     OW87171  10.445   8.636   7.601
28425SOL    HW187172  10.541   8.637   7.598
28425SOL    HW287173  10.424   8.632   7.694
28426SOL     OW87174   5.602  11.408  10.411
28426SOL    HW187175   5.586  11.320  10.378
28426SOL    HW287176   5.559  11.409  10.497
28427SOL     OW87177   8.572   6.146   9.762
28427SOL    HW187178   8.519   6.214   9.804
28427SOL    HW287179   8.530   6.064   9.789
28428SOL     OW87180   6.953   2.377   7.622
28428SOL    HW187181   6.915   2.345   7.540
28428SOL    HW287182   6.877   2.404   7.675
28429SOL     OW87183   4.365   9.517  13.612
28429SOL    HW187184   4.370   9.471  13.527
28429SOL    HW287185   4.272   9.534  13.624
28430SOL     OW87186   0.806   2.567   9.704
28430SOL    HW187187   0.880   2.589   9.759
28430SOL    HW287188   0.730   2.599   9.752
28431SOL     OW87189   4.155   7.330   4.345
28431SOL    HW187190   4.247   7.307   4.331
28431SOL    HW287191   4.130   7.375   4.264
28432SOL     OW87192  14.403   0.126  13.471
28432SOL    HW187193  14.312   0.128  13.500
28432SOL    HW287194  14.453   0.162  13.544
28433SOL     OW87195   6.526   4.208   7.134
28433SOL    HW187196   6.503   4.239   7.221
28433SOL    HW287197   6.608   4.253   7.114
28434SOL     OW87198   3.019   9.071   6.811
28434SOL    HW187199   2.995   9.147   6.757
28434SOL    HW287200   3.089   9.028   6.761
28435SOL     OW87201  13.470   3.864   2.768
28435SOL    HW187202  13.547   3.917   2.787
28435SOL    HW287203  13.504   3.776   2.756
28436SOL     OW87204   1.442   4.103   6.685
28436SOL    HW187205   1.472   4.192   6.669
28436SOL    HW287206   1.453   4.058   6.602
28437SOL     OW87207  10.765  13.119   1.138
28437SOL    HW187208  10.696  13.059   1.167
28437SOL    HW287209  10.721  13.176   1.074
28438SOL     OW87210  14.701   8.350   9.795
28438SOL    HW187211  14.621   8.387   9.833
28438SOL    HW287212  14.754   8.326   9.871
28439SOL     OW87213   3.658   7.510  10.937
28439SOL    HW187214   3.564   7.507  10.920
28439SOL    HW287215   3.696   7.546  10.857
28440SOL     OW87216   1.487   7.138  13.307
28440SOL    HW187217   1.505   7.132  13.401
28440SOL    HW287218   1.547   7.076  13.267
28441SOL     OW87219   9.820   8.747   5.911
28441SOL    HW187220   9.753   8.808   5.879
28441SOL    HW287221   9.801   8.665   5.865
28442SOL     OW87222   7.620   4.539   4.514
28442SOL    HW187223   7.700   4.589   4.528
28442SOL    HW287224   7.570   4.551   4.595
28443SOL     OW87225  10.241  14.477  12.989
28443SOL    HW187226  10.146  14.467  12.988
28443SOL    HW287227  10.256  14.570  12.972
28444SOL     OW87228   7.873   6.261   5.642
28444SOL    HW187229   7.843   6.317   5.714
28444SOL    HW287230   7.833   6.176   5.660
28445SOL     OW87231   4.529   5.642  13.085
28445SOL    HW187232   4.571   5.563  13.051
28445SOL    HW287233   4.594   5.681  13.144
28446SOL     OW87234  13.566   2.757  14.784
28446SOL    HW187235  13.591   2.698  14.713
28446SOL    HW287236  13.628   2.739  14.854
28447SOL     OW87237  12.934  12.313   8.397
28447SOL    HW187238  12.954  12.219   8.392
28447SOL    HW287239  12.971  12.341   8.481
28448SOL     OW87240  11.656   4.125  14.419
28448SOL    HW187241  11.580   4.171  14.456
28448SOL    HW287242  11.682   4.177  14.344
28449SOL     OW87243  10.711  14.074   6.346
28449SOL    HW187244  10.634  14.031   6.384
28449SOL    HW287245  10.784  14.020   6.375
28450SOL     OW87246  10.370   9.140   8.859
28450SOL    HW187247  10.446   9.102   8.905
28450SOL    HW287248  10.338   9.068   8.804
28451SOL     OW87249  11.351  13.183   9.904
28451SOL    HW187250  11.316  13.199   9.817
28451SOL    HW287251  11.367  13.089   9.907
28452SOL     OW87252  11.918   8.814   1.770
28452SOL    HW187253  11.916   8.812   1.674
28452SOL    HW287254  11.829   8.837   1.796
28453SOL     OW87255   8.794   2.077  12.097
28453SOL    HW187256   8.805   2.141  12.026
28453SOL    HW287257   8.726   2.115  12.153
28454SOL     OW87258   6.135  10.415  10.942
28454SOL    HW187259   6.204  10.397  11.006
28454SOL    HW287260   6.056  10.427  10.996
28455SOL     OW87261   5.401   1.997   3.358
28455SOL    HW187262   5.384   1.916   3.406
28455SOL    HW287263   5.450   1.970   3.281
28456SOL     OW87264   6.476   1.358  13.149
28456SOL    HW187265   6.456   1.351  13.056
28456SOL    HW287266   6.437   1.441  13.177
28457SOL     OW87267   7.363  10.077   8.341
28457SOL    HW187268   7.272  10.076   8.310
28457SOL    HW287269   7.375  10.166   8.374
28458SOL     OW87270  14.792   1.393  14.223
28458SOL    HW187271  14.699   1.413  14.233
28458SOL    HW287272  14.818   1.441  14.144
28459SOL     OW87273   0.663   1.435  12.840
28459SOL    HW187274   0.636   1.351  12.878
28459SOL    HW287275   0.644   1.500  12.908
28460SOL     OW87276  14.824  11.065   7.508
28460SOL    HW187277  14.865  10.995   7.558
28460SOL    HW287278  14.730  11.055   7.525
28461SOL     OW87279  10.008  13.622   6.043
28461SOL    HW187280   9.979  13.558   6.107
28461SOL    HW287281  10.022  13.572   5.963
28462SOL     OW87282   9.845   3.945   3.554
28462SOL    HW187283   9.835   4.035   3.583
28462SOL    HW287284   9.891   3.951   3.470
28463SOL     OW87285   0.078  14.081  14.606
28463SOL    HW187286   0.001  14.023  14.606
28463SOL    HW287287   0.150  14.024  14.579
28464SOL     OW87288   8.365   8.481   0.019
28464SOL    HW187289   8.327   8.529  14.814
28464SOL    HW287290   8.311   8.504   0.094
28465SOL     OW87291   3.317  13.135   4.138
28465SOL    HW187292   3.409  13.137   4.161
28465SOL    HW287293   3.281  13.216   4.173
28466SOL     OW87294  12.857   2.972  12.695
28466SOL    HW187295  12.815   3.057  12.708
28466SOL    HW287296  12.921   2.987  12.625
28467SOL     OW87297   6.383   5.838   3.674
28467SOL    HW187298   6.420   5.925   3.657
28467SOL    HW287299   6.305   5.856   3.726
28468SOL     OW87300   0.483  11.036  14.571
28468SOL    HW187301   0.434  10.980  14.631
28468SOL    HW287302   0.431  11.117  14.565
28469SOL     OW87303   6.417  10.403   0.457
28469SOL    HW187304   6.372  10.487   0.467
28469SOL    HW287305   6.380  10.347   0.525
28470SOL     OW87306   0.873   1.863   8.075
28470SOL    HW187307   0.800   1.807   8.050
28470SOL    HW287308   0.850   1.896   8.162
28471SOL     OW87309   3.501  11.098   3.107
28471SOL    HW187310   3.583  11.116   3.060
28471SOL    HW287311   3.491  11.003   3.102
28472SOL     OW87312   0.129   7.876   1.462
28472SOL    HW187313   0.103   7.787   1.483
28472SOL    HW287314   0.120   7.882   1.367
28473SOL     OW87315   8.501  14.047  11.515
28473SOL    HW187316   8.557  13.970  11.512
28473SOL    HW287317   8.415  14.014  11.542
28474SOL     OW87318  10.880   9.040  13.322
28474SOL    HW187319  10.919   9.018  13.237
28474SOL    HW287320  10.940   9.105  13.359
28475SOL     OW87321  14.131   5.593  14.553
28475SOL    HW187322  14.152   5.522  14.613
28475SOL    HW287323  14.188   5.665  14.581
28476SOL     OW87324  11.589   5.673   0.705
28476SOL    HW187325  11.538   5.743   0.745
28476SOL    HW287326  11.595   5.697   0.613
28477SOL     OW87327  11.188  12.015   6.681
28477SOL    HW187328  11.124  12.026   6.751
28477SOL    HW287329  11.218  12.104   6.662
28478SOL     OW87330  12.797  11.885   3.888
28478SOL    HW187331  12.868  11.865   3.826
28478SOL    HW287332  12.781  11.979   3.877
28479SOL     OW87333  12.590  13.034  12.410
28479SOL    HW187334  12.613  13.017  12.501
28479SOL    HW287335  12.661  12.994  12.360
28480SOL     OW87336  11.101  11.454   2.936
28480SOL    HW187337  11.046  11.512   2.988
28480SOL    HW287338  11.158  11.412   3.000
28481SOL     OW87339   0.664   9.889   6.272
28481SOL    HW187340   0.580   9.893   6.318
28481SOL    HW287341   0.723   9.940   6.327
28482SOL     OW87342   2.140  11.445   5.518
28482SOL    HW187343   2.076  11.374   5.518
28482SOL    HW287344   2.197  11.427   5.592
28483SOL     OW87345  13.652   8.275  11.900
28483SOL    HW187346  13.563   8.287  11.866
28483SOL    HW287347  13.646   8.303  11.991
28484SOL     OW87348  10.957   6.482   7.642
28484SOL    HW187349  10.992   6.502   7.555
28484SOL    HW287350  10.979   6.558   7.695
28485SOL     OW87351   1.080   7.713   4.524
28485SOL    HW187352   0.992   7.677   4.540
28485SOL    HW287353   1.084   7.790   4.582
28486SOL     OW87354  13.155  14.293   5.207
28486SOL    HW187355  13.149  14.222   5.272
28486SOL    HW287356  13.111  14.259   5.130
28487SOL     OW87357  11.316   0.937  12.011
28487SOL    HW187358  11.332   1.002  11.943
28487SOL    HW287359  11.386   0.872  12.000
28488SOL     OW87360   7.928   3.322   2.441
28488SOL    HW187361   7.858   3.383   2.461
28488SOL    HW287362   7.915   3.249   2.501
28489SOL     OW87363   1.337   8.302   3.281
28489SOL    HW187364   1.345   8.397   3.276
28489SOL    HW287365   1.281   8.286   3.357
28490SOL     OW87366   6.788  13.901   8.537
28490SOL    HW187367   6.796  13.807   8.548
28490SOL    HW287368   6.828  13.938   8.615
28491SOL     OW87369   1.545  10.913  12.058
28491SOL    HW187370   1.502  10.989  12.097
28491SOL    HW287371   1.563  10.939  11.967
28492SOL     OW87372   3.905  10.940   4.088
28492SOL    HW187373   3.818  10.904   4.069
28492SOL    HW287374   3.958  10.913   4.013
28493SOL     OW87375  11.381   3.565   4.572
28493SOL    HW187376  11.335   3.540   4.652
28493SOL    HW287377  11.452   3.622   4.601
28494SOL     OW87378   7.824   4.403   0.294
28494SOL    HW187379   7.862   4.341   0.231
28494SOL    HW287380   7.750   4.441   0.247
28495SOL     OW87381  10.236  10.242   0.154
28495SOL    HW187382  10.165  10.284   0.202
28495SOL    HW287383  10.309  10.241   0.216
28496SOL     OW87384  11.066   6.746   3.118
28496SOL    HW187385  11.037   6.803   3.189
28496SOL    HW287386  11.141   6.791   3.079
28497SOL     OW87387   3.390  11.077  10.621
28497SOL    HW187388   3.308  11.125  10.606
28497SOL    HW287389   3.426  11.062  10.534
28498SOL     OW87390   2.603   2.885   5.621
28498SOL    HW187391   2.540   2.827   5.578
28498SOL    HW287392   2.619   2.954   5.556
28499SOL     OW87393   9.768   6.489   3.449
28499SOL    HW187394   9.706   6.418   3.465
28499SOL    HW287395   9.723   6.567   3.481
28500SOL     OW87396   0.464  13.666  12.051
28500SOL    HW187397   0.542  13.639  12.002
28500SOL    HW287398   0.396  13.606  12.022
28501SOL     OW87399   8.202   9.320   6.299
28501SOL    HW187400   8.270   9.256   6.278
28501SOL    HW287401   8.166   9.345   6.214
28502SOL     OW87402  10.218   0.907  11.636
28502SOL    HW187403  10.211   0.992  11.593
28502SOL    HW287404  10.247   0.926  11.725
28503SOL     OW87405   1.067   9.117  12.602
28503SOL    HW187406   0.988   9.146  12.556
28503SOL    HW287407   1.089   9.033  12.562
28504SOL     OW87408   7.950  10.882   0.315
28504SOL    HW187409   8.031  10.877   0.265
28504SOL    HW287410   7.950  10.971   0.351
28505SOL     OW87411   6.846  14.101   2.586
28505SOL    HW187412   6.822  14.186   2.623
28505SOL    HW287413   6.784  14.087   2.515
28506SOL     OW87414  12.982  11.124  11.061
28506SOL    HW187415  13.030  11.047  11.031
28506SOL    HW287416  12.890  11.100  11.049
28507SOL     OW87417  14.798   9.463   0.683
28507SOL    HW187418  14.801   9.368   0.692
28507SOL    HW287419  14.752   9.478   0.600
28508SOL     OW87420   6.778  10.461   5.695
28508SOL    HW187421   6.867  10.432   5.674
28508SOL    HW287422   6.788  10.553   5.718
28509SOL     OW87423  11.738   7.422   3.432
28509SOL    HW187424  11.751   7.517   3.431
28509SOL    HW287425  11.645   7.411   3.452
28510SOL     OW87426  13.614   6.855   6.116
28510SOL    HW187427  13.669   6.776   6.107
28510SOL    HW287428  13.596   6.860   6.210
28511SOL     OW87429  10.917   4.461   7.559
28511SOL    HW187430  10.939   4.411   7.637
28511SOL    HW287431  10.826   4.436   7.540
28512SOL     OW87432   6.697  10.818  10.257
28512SOL    HW187433   6.671  10.726  10.247
28512SOL    HW287434   6.642  10.851  10.327
28513SOL     OW87435   5.370  12.134   8.676
28513SOL    HW187436   5.380  12.052   8.629
28513SOL    HW287437   5.325  12.192   8.613
28514SOL     OW87438   5.361   9.641  11.735
28514SOL    HW187439   5.372   9.689  11.817
28514SOL    HW287440   5.445   9.597  11.722
28515SOL     OW87441   0.837   3.565   7.077
28515SOL    HW187442   0.798   3.508   7.012
28515SOL    HW287443   0.912   3.605   7.032
28516SOL     OW87444   0.600  11.161   4.736
28516SOL    HW187445   0.557  11.128   4.814
28516SOL    HW287446   0.566  11.250   4.725
28517SOL     OW87447  12.156   0.135  14.281
28517SOL    HW187448  12.062   0.151  14.267
28517SOL    HW287449  12.187   0.100  14.198
28518SOL     OW87450   8.748   7.892  13.921
28518SOL    HW187451   8.803   7.817  13.943
28518SOL    HW287452   8.670   7.854  13.882
28519SOL     OW87453  12.522  13.369   1.074
28519SOL    HW187454  12.485  13.436   1.017
28519SOL    HW287455  12.448  13.338   1.126
28520SOL     OW87456   5.152   1.100   0.849
28520SOL    HW187457   5.218   1.159   0.812
28520SOL    HW287458   5.096   1.078   0.774
28521SOL     OW87459   6.053   0.412  14.415
28521SOL    HW187460   6.078   0.415  14.323
28521SOL    HW287461   5.962   0.441  14.417
28522SOL     OW87462   6.579   8.912   6.097
28522SOL    HW187463   6.633   8.855   6.042
28522SOL    HW287464   6.637   8.938   6.169
28523SOL     OW87465   7.023   4.919   5.929
28523SOL    HW187466   7.088   4.972   5.883
28523SOL    HW287467   7.074   4.869   5.993
28524SOL     OW87468   9.796   8.823  12.387
28524SOL    HW187469   9.757   8.907  12.363
28524SOL    HW287470   9.875   8.817  12.334
28525SOL     OW87471   7.093  14.586   3.937
28525SOL    HW187472   7.023  14.649   3.920
28525SOL    HW287473   7.102  14.587   4.033
28526SOL     OW87474  11.478   8.199   3.363
28526SOL    HW187475  11.549   8.185   3.300
28526SOL    HW287476  11.399   8.202   3.310
28527SOL     OW87477   9.103   5.695  11.897
28527SOL    HW187478   9.144   5.610  11.909
28527SOL    HW287479   9.108   5.712  11.803
28528SOL     OW87480   3.201  12.370   5.557
28528SOL    HW187481   3.227  12.307   5.490
28528SOL    HW287482   3.145  12.432   5.511
28529SOL     OW87483   4.296   5.888   2.740
28529SOL    HW187484   4.215   5.936   2.721
28529SOL    HW287485   4.347   5.947   2.795
28530SOL     OW87486  13.395   0.829  12.040
28530SOL    HW187487  13.481   0.789  12.056
28530SOL    HW287488  13.336   0.755  12.026
28531SOL     OW87489   2.314   2.789   0.684
28531SOL    HW187490   2.265   2.848   0.627
28531SOL    HW287491   2.373   2.846   0.733
28532SOL     OW87492   9.109  12.607   7.851
28532SOL    HW187493   9.197  12.569   7.847
28532SOL    HW287494   9.065  12.574   7.773
28533SOL     OW87495   9.221   0.150   0.228
28533SOL    HW187496   9.174   0.223   0.187
28533SOL    HW287497   9.313   0.177   0.227
28534SOL     OW87498   5.796   8.017   6.863
28534SOL    HW187499   5.871   7.998   6.919
28534SOL    HW287500   5.805   7.957   6.789
28535SOL     OW87501   6.000   7.249   3.287
28535SOL    HW187502   5.995   7.338   3.251
28535SOL    HW287503   5.993   7.261   3.381
28536SOL     OW87504   9.460   6.571   0.325
28536SOL    HW187505   9.391   6.592   0.387
28536SOL    HW287506   9.538   6.556   0.379
28537SOL     OW87507   0.601   2.105   6.888
28537SOL    HW187508   0.591   2.086   6.794
28537SOL    HW287509   0.596   2.200   6.894
28538SOL     OW87510   0.587   5.068   9.928
28538SOL    HW187511   0.574   5.162   9.939
28538SOL    HW287512   0.676   5.053   9.960
28539SOL     OW87513  12.973  10.243   7.801
28539SOL    HW187514  12.987  10.337   7.785
28539SOL    HW287515  13.010  10.227   7.887
28540SOL     OW87516  12.718   9.705   1.099
28540SOL    HW187517  12.666   9.785   1.098
28540SOL    HW287518  12.750   9.700   1.189
28541SOL     OW87519   5.831   5.415  13.106
28541SOL    HW187520   5.863   5.326  13.119
28541SOL    HW287521   5.791   5.414  13.019
28542SOL     OW87522   2.515  14.433   0.427
28542SOL    HW187523   2.590  14.407   0.373
28542SOL    HW287524   2.550  14.502   0.484
28543SOL     OW87525  12.414   3.829   7.020
28543SOL    HW187526  12.450   3.770   6.953
28543SOL    HW287527  12.470   3.816   7.096
28544SOL     OW87528  12.472   5.510   5.151
28544SOL    HW187529  12.457   5.463   5.069
28544SOL    HW287530  12.503   5.444   5.212
28545SOL     OW87531   1.786   7.897   3.837
28545SOL    HW187532   1.727   7.836   3.882
28545SOL    HW287533   1.732   7.974   3.818
28546SOL     OW87534   8.464  13.553   0.011
28546SOL    HW187535   8.403  13.618  14.845
28546SOL    HW287536   8.476  13.491  14.807
28547SOL     OW87537  10.055   6.555  11.835
28547SOL    HW187538  10.035   6.527  11.746
28547SOL    HW287539  10.098   6.640  11.825
28548SOL     OW87540  13.755   1.290   3.904
28548SOL    HW187541  13.705   1.346   3.964
28548SOL    HW287542  13.784   1.217   3.958
28549SOL     OW87543   6.824   5.654  12.309
28549SOL    HW187544   6.860   5.635  12.395
28549SOL    HW287545   6.754   5.717  12.326
28550SOL     OW87546  13.310   9.193   7.654
28550SOL    HW187547  13.378   9.195   7.586
28550SOL    HW287548  13.321   9.108   7.696
28551SOL     OW87549   0.564   1.426   9.380
28551SOL    HW187550   0.642   1.380   9.411
28551SOL    HW287551   0.588   1.519   9.384
28552SOL     OW87552  14.150   9.218   7.476
28552SOL    HW187553  14.226   9.162   7.494
28552SOL    HW287554  14.107   9.229   7.560
28553SOL     OW87555  11.422  12.222   3.328
28553SOL    HW187556  11.493  12.278   3.297
28553SOL    HW287557  11.379  12.274   3.396
28554SOL     OW87558   7.250   9.112   0.708
28554SOL    HW187559   7.158   9.137   0.707
28554SOL    HW287560   7.280   9.134   0.796
28555SOL     OW87561  14.651   7.979   7.530
28555SOL    HW187562  14.560   7.996   7.555
28555SOL    HW287563  14.645   7.908   7.466
28556SOL     OW87564  13.596   5.172   0.451
28556SOL    HW187565  13.500   5.174   0.447
28556SOL    HW287566  13.615   5.141   0.540
28557SOL     OW87567   0.169   6.639   8.782
28557SOL    HW187568   0.123   6.610   8.703
28557SOL    HW287569   0.100   6.676   8.837
28558SOL     OW87570   2.083   9.460   2.269
28558SOL    HW187571   1.998   9.464   2.312
28558SOL    HW287572   2.144   9.500   2.332
28559SOL     OW87573   5.305   2.271   4.713
28559SOL    HW187574   5.396   2.242   4.720
28559SOL    HW287575   5.293   2.333   4.785
28560SOL     OW87576   7.775  13.309   0.792
28560SOL    HW187577   7.760  13.242   0.725
28560SOL    HW287578   7.696  13.363   0.791
28561SOL     OW87579  11.312   8.449   8.459
28561SOL    HW187580  11.392   8.414   8.421
28561SOL    HW287581  11.253   8.461   8.384
28562SOL     OW87582   0.563   0.658   5.593
28562SOL    HW187583   0.659   0.657   5.583
28562SOL    HW287584   0.547   0.733   5.650
28563SOL     OW87585  13.720  11.358  14.498
28563SOL    HW187586  13.752  11.436  14.453
28563SOL    HW287587  13.656  11.320  14.439
28564SOL     OW87588   4.543   6.376   7.397
28564SOL    HW187589   4.548   6.286   7.365
28564SOL    HW287590   4.620   6.420   7.359
28565SOL     OW87591   3.901   9.181   0.388
28565SOL    HW187592   3.987   9.212   0.416
28565SOL    HW287593   3.904   9.086   0.402
28566SOL     OW87594  10.697   4.370   6.398
28566SOL    HW187595  10.707   4.433   6.470
28566SOL    HW287596  10.787   4.347   6.374
28567SOL     OW87597  14.769  12.790   7.676
28567SOL    HW187598  14.680  12.792   7.710
28567SOL    HW287599  14.782  12.877   7.638
28568SOL     OW87600   2.589   1.279   0.726
28568SOL    HW187601   2.557   1.189   0.728
28568SOL    HW287602   2.627   1.290   0.639
28569SOL     OW87603  13.315   0.146  14.304
28569SOL    HW187604  13.361   0.093  14.238
28569SOL    HW287605  13.229   0.163  14.265
28570SOL     OW87606  12.796   5.110   8.552
28570SOL    HW187607  12.705   5.112   8.581
28570SOL    HW287608  12.800   5.036   8.491
28571SOL     OW87609   7.003   3.470  11.931
28571SOL    HW187610   6.912   3.445  11.948
28571SOL    HW287611   6.997   3.560  11.900
28572SOL     OW87612  11.655  12.060  14.234
28572SOL    HW187613  11.688  12.150  14.237
28572SOL    HW287614  11.734  12.006  14.226
28573SOL     OW87615   6.843  10.447   8.848
28573SOL    HW187616   6.785  10.479   8.778
28573SOL    HW287617   6.889  10.525   8.879
28574SOL     OW87618  12.608  13.681   2.950
28574SOL    HW187619  12.524  13.725   2.935
28574SOL    HW287620  12.606  13.656   3.043
28575SOL     OW87621  14.116   6.541  12.124
28575SOL    HW187622  14.156   6.595  12.056
28575SOL    HW287623  14.177   6.468  12.135
28576SOL     OW87624  10.946  12.326   4.704
28576SOL    HW187625  10.863  12.285   4.728
28576SOL    HW287626  10.998  12.326   4.784
28577SOL     OW87627   7.188   6.060   8.388
28577SOL    HW187628   7.225   6.141   8.355
28577SOL    HW287629   7.123   6.034   8.322
28578SOL     OW87630  13.107  14.433   1.375
28578SOL    HW187631  13.040  14.368   1.355
28578SOL    HW287632  13.060  14.504   1.419
28579SOL     OW87633   3.989   3.840   7.408
28579SOL    HW187634   3.897   3.815   7.413
28579SOL    HW287635   4.028   3.807   7.489
28580SOL     OW87636  12.141   9.999   3.770
28580SOL    HW187637  12.052   9.970   3.792
28580SOL    HW287638  12.131  10.092   3.750
28581SOL     OW87639   0.811   4.524   3.690
28581SOL    HW187640   0.826   4.584   3.764
28581SOL    HW287641   0.752   4.572   3.632
28582SOL     OW87642   8.039   6.187  14.272
28582SOL    HW187643   8.102   6.254  14.298
28582SOL    HW287644   8.043   6.185  14.177
28583SOL     OW87645   8.185  14.393   1.564
28583SOL    HW187646   8.251  14.376   1.631
28583SOL    HW287647   8.106  14.351   1.597
28584SOL     OW87648   6.262  11.514  11.390
28584SOL    HW187649   6.267  11.478  11.301
28584SOL    HW287650   6.320  11.458  11.442
28585SOL     OW87651   1.224   1.278  11.838
28585SOL    HW187652   1.257   1.362  11.807
28585SOL    HW287653   1.134   1.274  11.806
28586SOL     OW87654   8.658  14.577   7.863
28586SOL    HW187655   8.748  14.549   7.879
28586SOL    HW287656   8.654  14.667   7.896
28587SOL     OW87657   5.356   6.302   4.737
28587SOL    HW187658   5.372   6.323   4.829
28587SOL    HW287659   5.337   6.387   4.696
28588SOL     OW87660   8.564   2.265   6.201
28588SOL    HW187661   8.559   2.287   6.294
28588SOL    HW287662   8.648   2.219   6.192
28589SOL     OW87663   3.083   5.819  11.185
28589SOL    HW187664   3.126   5.849  11.105
28589SOL    HW287665   3.068   5.726  11.170
28590SOL     OW87666   0.953   4.656   6.199
28590SOL    HW187667   0.927   4.565   6.188
28590SOL    HW287668   0.933   4.697   6.115
28591SOL     OW87669   8.191   8.955  13.251
28591SOL    HW187670   8.163   9.045  13.270
28591SOL    HW287671   8.136   8.929  13.177
28592SOL     OW87672   8.815   3.109   7.583
28592SOL    HW187673   8.760   3.093   7.660
28592SOL    HW287674   8.898   3.065   7.603
28593SOL     OW87675   8.912   3.497   0.482
28593SOL    HW187676   8.922   3.435   0.554
28593SOL    HW287677   8.934   3.582   0.521
28594SOL     OW87678  10.798   4.837   6.803
28594SOL    HW187679  10.752   4.888   6.870
28594SOL    HW287680  10.783   4.746   6.829
28595SOL     OW87681   2.370   2.858   2.719
28595SOL    HW187682   2.385   2.907   2.800
28595SOL    HW287683   2.284   2.817   2.732
28596SOL     OW87684  10.342  12.606   9.483
28596SOL    HW187685  10.282  12.534   9.463
28596SOL    HW287686  10.426  12.578   9.446
28597SOL     OW87687  10.304   4.967   4.850
28597SOL    HW187688  10.359   4.890   4.865
28597SOL    HW287689  10.299   4.974   4.754
28598SOL     OW87690   7.683  10.012  10.762
28598SOL    HW187691   7.674  10.060  10.680
28598SOL    HW287692   7.778  10.008  10.776
28599SOL     OW87693   8.540   9.303  10.978
28599SOL    HW187694   8.516   9.216  11.010
28599SOL    HW287695   8.613   9.287  10.918
28600SOL     OW87696  12.850  10.531   3.572
28600SOL    HW187697  12.874  10.572   3.655
28600SOL    HW287698  12.863  10.437   3.588
28601SOL     OW87699   3.348   0.660  12.439
28601SOL    HW187700   3.403   0.739  12.438
28601SOL    HW287701   3.406   0.591  12.469
28602SOL     OW87702   4.312  14.755   5.375
28602SOL    HW187703   4.340  14.846   5.367
28602SOL    HW287704   4.268  14.735   5.292
28603SOL     OW87705  13.897  13.847  12.215
28603SOL    HW187706  13.918  13.827  12.306
28603SOL    HW287707  13.953  13.789  12.164
28604SOL     OW87708   2.939   3.838   4.077
28604SOL    HW187709   2.986   3.919   4.098
28604SOL    HW287710   2.983   3.770   4.128
28605SOL     OW87711   5.447   2.446  10.072
28605SOL    HW187712   5.394   2.381  10.119
28605SOL    HW287713   5.514   2.472  10.136
28606SOL     OW87714  10.144   8.356   5.670
28606SOL    HW187715  10.056   8.360   5.634
28606SOL    HW287716  10.158   8.441   5.711
28607SOL     OW87717   3.486   1.368   2.399
28607SOL    HW187718   3.459   1.459   2.388
28607SOL    HW287719   3.502   1.359   2.493
28608SOL     OW87720   0.381   9.479  13.862
28608SOL    HW187721   0.341   9.496  13.777
28608SOL    HW287722   0.465   9.437  13.840
28609SOL     OW87723   8.202   7.791   0.509
28609SOL    HW187724   8.125   7.843   0.487
28609SOL    HW287725   8.171   7.727   0.574
28610SOL     OW87726   4.713   3.272   6.231
28610SOL    HW187727   4.805   3.298   6.226
28610SOL    HW287728   4.709   3.213   6.306
28611SOL     OW87729   2.934   3.148   5.103
28611SOL    HW187730   3.027   3.125   5.115
28611SOL    HW287731   2.915   3.208   5.175
28612SOL     OW87732  12.828   3.151   8.153
28612SOL    HW187733  12.854   3.059   8.151
28612SOL    HW287734  12.733   3.149   8.139
28613SOL     OW87735   2.311   3.354  14.533
28613SOL    HW187736   2.320   3.320  14.444
28613SOL    HW287737   2.379   3.422  14.539
28614SOL     OW87738   5.420  13.280  10.054
28614SOL    HW187739   5.390  13.345   9.990
28614SOL    HW287740   5.401  13.320  10.139
28615SOL     OW87741   9.282   2.276   3.321
28615SOL    HW187742   9.268   2.239   3.408
28615SOL    HW287743   9.372   2.308   3.323
28616SOL     OW87744   9.215   3.210   1.077
28616SOL    HW187745   9.151   3.188   1.146
28616SOL    HW287746   9.266   3.130   1.066
28617SOL     OW87747  13.061   0.211   0.676
28617SOL    HW187748  13.128   0.273   0.704
28617SOL    HW287749  13.080   0.195   0.583
28618SOL     OW87750   4.794  13.019   3.128
28618SOL    HW187751   4.772  12.939   3.081
28618SOL    HW287752   4.753  13.089   3.076
28619SOL     OW87753  14.036   0.472   1.042
28619SOL    HW187754  14.051   0.553   1.091
28619SOL    HW287755  14.049   0.402   1.106
28620SOL     OW87756  12.602  11.206  12.977
28620SOL    HW187757  12.583  11.189  13.070
28620SOL    HW287758  12.548  11.282  12.956
28621SOL     OW87759  13.611   9.399   2.884
28621SOL    HW187760  13.689   9.388   2.940
28621SOL    HW287761  13.616   9.325   2.824
28622SOL     OW87762   6.083   3.834  11.910
28622SOL    HW187763   6.086   3.918  11.864
28622SOL    HW287764   6.158   3.837  11.969
28623SOL     OW87765  10.021   6.967   7.449
28623SOL    HW187766  10.036   6.976   7.355
28623SOL    HW287767  10.094   6.913   7.480
28624SOL     OW87768   0.398   5.865   3.351
28624SOL    HW187769   0.407   5.770   3.353
28624SOL    HW287770   0.417   5.889   3.261
28625SOL     OW87771   8.215   5.695  13.394
28625SOL    HW187772   8.254   5.757  13.332
28625SOL    HW287773   8.200   5.747  13.473
28626SOL     OW87774   3.925   8.384   2.573
28626SOL    HW187775   3.880   8.428   2.645
28626SOL    HW287776   3.928   8.292   2.600
28627SOL     OW87777   7.112   0.375  13.454
28627SOL    HW187778   7.076   0.428  13.383
28627SOL    HW287779   7.203   0.405  13.462
28628SOL     OW87780  13.428  11.795   1.236
28628SOL    HW187781  13.388  11.752   1.311
28628SOL    HW287782  13.372  11.771   1.162
28629SOL     OW87783   0.069   4.533  11.299
28629SOL    HW187784   0.020   4.576  11.369
28629SOL    HW287785   0.159   4.529  11.332
28630SOL     OW87786   5.631  12.736   1.085
28630SOL    HW187787   5.717  12.759   1.050
28630SOL    HW287788   5.648  12.666   1.148
28631SOL     OW87789   0.326   4.710   3.594
28631SOL    HW187790   0.389   4.690   3.525
28631SOL    HW287791   0.250   4.655   3.574
28632SOL     OW87792   4.829   9.926   2.164
28632SOL    HW187793   4.771   9.857   2.131
28632SOL    HW287794   4.801  10.005   2.116
28633SOL     OW87795  12.369   4.196  11.675
28633SOL    HW187796  12.317   4.214  11.753
28633SOL    HW287797  12.432   4.268  11.670
28634SOL     OW87798   3.348   1.319   9.858
28634SOL    HW187799   3.439   1.334   9.830
28634SOL    HW287800   3.311   1.264   9.789
28635SOL     OW87801   8.441  11.697   4.393
28635SOL    HW187802   8.347  11.683   4.383
28635SOL    HW287803   8.456  11.691   4.487
28636SOL     OW87804  14.741   4.492  10.322
28636SOL    HW187805  14.785   4.526  10.400
28636SOL    HW287806  14.770   4.549  10.251
28637SOL     OW87807   5.544  11.154   0.394
28637SOL    HW187808   5.615  11.092   0.377
28637SOL    HW287809   5.465  11.109   0.366
28638SOL     OW87810   6.425   9.269   8.758
28638SOL    HW187811   6.419   9.251   8.852
28638SOL    HW287812   6.507   9.318   8.749
28639SOL     OW87813   5.020   7.146  12.507
28639SOL    HW187814   5.073   7.143  12.428
28639SOL    HW287815   4.933   7.173  12.477
28640SOL     OW87816   5.754  10.191   7.865
28640SOL    HW187817   5.779  10.185   7.957
28640SOL    HW287818   5.704  10.111   7.849
28641SOL     OW87819   2.945   5.562   6.005
28641SOL    HW187820   2.869   5.559   6.063
28641SOL    HW287821   2.930   5.638   5.949
28642SOL     OW87822   7.724   6.058   5.736
28642SOL    HW187823   7.705   5.989   5.800
28642SOL    HW287824   7.676   6.033   5.657
28643SOL     OW87825   4.497   0.424   2.387
28643SOL    HW187826   4.565   0.491   2.377
28643SOL    HW287827   4.496   0.379   2.303
28644SOL     OW87828   9.086   5.606  10.618
28644SOL    HW187829   9.058   5.520  10.585
28644SOL    HW287830   9.098   5.659  10.539
28645SOL     OW87831   1.487   3.840   2.434
28645SOL    HW187832   1.406   3.791   2.422
28645SOL    HW287833   1.464   3.908   2.497
28646SOL     OW87834   4.035   9.085   1.665
28646SOL    HW187835   3.998   9.160   1.618
28646SOL    HW287836   4.102   9.122   1.722
28647SOL     OW87837  10.391   5.372   1.124
28647SOL    HW187838  10.394   5.342   1.033
28647SOL    HW287839  10.304   5.410   1.134
28648SOL     OW87840   8.645   9.573  11.185
28648SOL    HW187841   8.650   9.491  11.138
28648SOL    HW287842   8.705   9.632  11.139
28649SOL     OW87843  10.155   4.810   2.025
28649SOL    HW187844  10.238   4.854   2.045
28649SOL    HW287845  10.101   4.877   1.985
28650SOL     OW87846  13.908   7.192   1.988
28650SOL    HW187847  13.916   7.120   2.050
28650SOL    HW287848  13.999   7.210   1.961
28651SOL     OW87849   0.423  10.438  14.290
28651SOL    HW187850   0.488  10.508  14.280
28651SOL    HW287851   0.345  10.483  14.323
28652SOL     OW87852   4.270   9.120   3.106
28652SOL    HW187853   4.266   9.200   3.159
28652SOL    HW287854   4.188   9.119   3.057
28653SOL     OW87855  14.639   0.314   0.946
28653SOL    HW187856  14.604   0.224   0.950
28653SOL    HW287857  14.572   0.368   0.988
28654SOL     OW87858   1.887   0.532   1.223
28654SOL    HW187859   1.859   0.534   1.131
28654SOL    HW287860   1.806   0.544   1.273
28655SOL     OW87861  13.026   3.440   3.946
28655SOL    HW187862  12.954   3.498   3.920
28655SOL    HW287863  13.092   3.499   3.983
28656SOL     OW87864  10.623   8.912   5.322
28656SOL    HW187865  10.614   8.905   5.417
28656SOL    HW287866  10.625   9.006   5.306
28657SOL     OW87867   5.782   3.920   0.517
28657SOL    HW187868   5.774   4.004   0.472
28657SOL    HW287869   5.750   3.937   0.606
28658SOL     OW87870   4.727   8.119   3.493
28658SOL    HW187871   4.680   8.056   3.547
28658SOL    HW287872   4.813   8.079   3.479
28659SOL     OW87873   6.603   9.034  10.257
28659SOL    HW187874   6.682   8.987  10.229
28659SOL    HW287875   6.636   9.115  10.294
28660SOL     OW87876  12.196  14.564   7.149
28660SOL    HW187877  12.225  14.654   7.164
28660SOL    HW287878  12.267  14.509   7.183
28661SOL     OW87879  12.372   0.129   2.393
28661SOL    HW187880  12.465   0.133   2.417
28661SOL    HW287881  12.359   0.041   2.360
28662SOL     OW87882   7.186   0.888   7.985
28662SOL    HW187883   7.098   0.854   8.002
28662SOL    HW287884   7.185   0.976   8.021
28663SOL     OW87885   5.774   6.639   2.653
28663SOL    HW187886   5.842   6.585   2.693
28663SOL    HW287887   5.813   6.726   2.646
28664SOL     OW87888   8.660   0.354   3.591
28664SOL    HW187889   8.708   0.287   3.639
28664SOL    HW287890   8.581   0.310   3.559
28665SOL     OW87891   1.135   5.627   3.987
28665SOL    HW187892   1.078   5.602   3.915
28665SOL    HW287893   1.215   5.660   3.945
28666SOL     OW87894   8.660   9.988  11.728
28666SOL    HW187895   8.680   9.909  11.777
28666SOL    HW287896   8.581  10.023  11.768
28667SOL     OW87897   5.583   5.839   6.014
28667SOL    HW187898   5.677   5.845   6.000
28667SOL    HW287899   5.544   5.868   5.932
28668SOL     OW87900   1.049   7.153   4.106
28668SOL    HW187901   1.135   7.145   4.064
28668SOL    HW287902   1.055   7.095   4.182
28669SOL     OW87903   4.014   4.563  12.620
28669SOL    HW187904   3.941   4.547  12.561
28669SOL    HW287905   4.070   4.625  12.573
28670SOL     OW87906   5.853  14.743   2.635
28670SOL    HW187907   5.809  14.743   2.550
28670SOL    HW287908   5.916  14.814   2.629
28671SOL     OW87909   1.385   5.157   2.130
28671SOL    HW187910   1.376   5.184   2.221
28671SOL    HW287911   1.315   5.204   2.084
28672SOL     OW87912   7.954   8.296   2.771
28672SOL    HW187913   7.885   8.230   2.771
28672SOL    HW287914   8.000   8.282   2.688
28673SOL     OW87915   3.828  10.230  11.505
28673SOL    HW187916   3.772  10.299  11.542
28673SOL    HW287917   3.787  10.149  11.534
28674SOL     OW87918   6.645  12.583  14.345
28674SOL    HW187919   6.677  12.646  14.409
28674SOL    HW287920   6.684  12.611  14.262
28675SOL     OW87921   9.813  11.772  12.009
28675SOL    HW187922   9.844  11.862  12.004
28675SOL    HW287923   9.813  11.751  12.102
28676SOL     OW87924   1.676  13.400  12.898
28676SOL    HW187925   1.737  13.338  12.859
28676SOL    HW287926   1.596  13.350  12.912
28677SOL     OW87927  14.466   9.768   1.004
28677SOL    HW187928  14.426   9.735   0.924
28677SOL    HW287929  14.542   9.711   1.019
28678SOL     OW87930   5.506   6.038   7.695
28678SOL    HW187931   5.588   6.076   7.664
28678SOL    HW287932   5.509   6.048   7.790
28679SOL     OW87933   3.588   6.476   4.386
28679SOL    HW187934   3.512   6.434   4.345
28679SOL    HW287935   3.551   6.547   4.437
28680SOL     OW87936   5.827  10.189   6.513
28680SOL    HW187937   5.774  10.257   6.555
28680SOL    HW287938   5.914  10.229   6.504
28681SOL     OW87939   5.711  12.988   5.822
28681SOL    HW187940   5.761  12.923   5.871
28681SOL    HW287941   5.694  12.947   5.737
28682SOL     OW87942  11.627   9.155   9.023
28682SOL    HW187943  11.601   9.116   8.939
28682SOL    HW287944  11.623   9.083   9.085
28683SOL     OW87945   8.751   6.194   3.289
28683SOL    HW187946   8.810   6.119   3.278
28683SOL    HW287947   8.779   6.235   3.371
28684SOL     OW87948   5.962   2.829   0.669
28684SOL    HW187949   5.875   2.791   0.661
28684SOL    HW287950   5.990   2.844   0.579
28685SOL     OW87951   4.660  11.751   0.695
28685SOL    HW187952   4.734  11.727   0.752
28685SOL    HW287953   4.691  11.827   0.647
28686SOL     OW87954   5.349   9.773  11.959
28686SOL    HW187955   5.285   9.844  11.957
28686SOL    HW287956   5.432   9.816  11.978
28687SOL     OW87957   2.791   5.801   4.313
28687SOL    HW187958   2.742   5.720   4.301
28687SOL    HW287959   2.726   5.870   4.304
28688SOL     OW87960   8.195  13.456  13.143
28688SOL    HW187961   8.175  13.375  13.191
28688SOL    HW287962   8.194  13.524  13.210
28689SOL     OW87963   4.403  10.313  12.725
28689SOL    HW187964   4.319  10.272  12.708
28689SOL    HW287965   4.465  10.266  12.669
28690SOL     OW87966   9.268   2.689  14.573
28690SOL    HW187967   9.198   2.623  14.565
28690SOL    HW287968   9.267   2.714  14.665
28691SOL     OW87969   9.731   0.798   4.665
28691SOL    HW187970   9.767   0.786   4.577
28691SOL    HW287971   9.799   0.765   4.723
28692SOL     OW87972   0.956   3.637   1.731
28692SOL    HW187973   1.027   3.573   1.724
28692SOL    HW287974   0.910   3.630   1.647
28693SOL     OW87975   2.681  11.483   0.789
28693SOL    HW187976   2.752  11.510   0.848
28693SOL    HW287977   2.620  11.557   0.791
28694SOL     OW87978   1.785   5.997   8.892
28694SOL    HW187979   1.828   6.083   8.898
28694SOL    HW287980   1.699   6.011   8.931
28695SOL     OW87981  13.883   7.091   3.064
28695SOL    HW187982  13.967   7.046   3.074
28695SOL    HW287983  13.907   7.182   3.044
28696SOL     OW87984  14.807  12.192   6.887
28696SOL    HW187985  14.819  12.110   6.840
28696SOL    HW287986   0.024  12.210   6.927
28697SOL     OW87987   7.225  11.310   9.163
28697SOL    HW187988   7.307  11.344   9.198
28697SOL    HW287989   7.220  11.220   9.197
28698SOL     OW87990   6.338   1.577   4.767
28698SOL    HW187991   6.333   1.488   4.732
28698SOL    HW287992   6.432   1.590   4.784
28699SOL     OW87993  14.128  10.485   6.977
28699SOL    HW187994  14.222  10.487   6.957
28699SOL    HW287995  14.100  10.397   6.954
28700SOL     OW87996   1.219   2.427  10.289
28700SOL    HW187997   1.299   2.471  10.259
28700SOL    HW287998   1.199   2.364  10.220
28701SOL     OW87999   9.976   4.918  13.269
28701SOL    HW188000  10.017   4.996  13.306
28701SOL    HW288001  10.018   4.845  13.315
28702SOL     OW88002  14.625   7.645  13.627
28702SOL    HW188003  14.701   7.589  13.644
28702SOL    HW288004  14.591   7.666  13.714
28703SOL     OW88005  14.163   8.848   0.610
28703SOL    HW188006  14.230   8.914   0.629
28703SOL    HW288007  14.187   8.815   0.523
28704SOL     OW88008   1.228   8.567   0.156
28704SOL    HW188009   1.255   8.630   0.089
28704SOL    HW288010   1.186   8.620   0.223
28705SOL     OW88011  10.082   1.952   5.159
28705SOL    HW188012  10.104   1.874   5.210
28705SOL    HW288013  10.166   1.982   5.123
28706SOL     OW88014   5.521   5.068   5.367
28706SOL    HW188015   5.506   5.126   5.441
28706SOL    HW288016   5.613   5.079   5.345
28707SOL     OW88017  12.494   5.208   6.675
28707SOL    HW188018  12.429   5.159   6.624
28707SOL    HW288019  12.461   5.205   6.765
28708SOL     OW88020   8.075   4.766   7.206
28708SOL    HW188021   8.090   4.732   7.118
28708SOL    HW288022   8.001   4.825   7.196
28709SOL     OW88023   7.167   7.017   0.045
28709SOL    HW188024   7.247   6.978   0.010
28709SOL    HW288025   7.195   7.103   0.077
28710SOL     OW88026  13.080   5.883   3.106
28710SOL    HW188027  13.081   5.968   3.061
28710SOL    HW288028  13.172   5.868   3.130
28711SOL     OW88029  10.955   4.576  12.848
28711SOL    HW188030  11.018   4.553  12.780
28711SOL    HW288031  10.956   4.502  12.908
28712SOL     OW88032   9.529   1.061  11.408
28712SOL    HW188033   9.439   1.086  11.387
28712SOL    HW288034   9.580   1.141  11.392
28713SOL     OW88035  13.434  11.003   1.888
28713SOL    HW188036  13.402  11.025   1.975
28713SOL    HW288037  13.355  10.981   1.839
28714SOL     OW88038   2.392   3.203   3.498
28714SOL    HW188039   2.435   3.276   3.453
28714SOL    HW288040   2.400   3.225   3.591
28715SOL     OW88041   1.213   9.883   7.557
28715SOL    HW188042   1.162   9.916   7.631
28715SOL    HW288043   1.233   9.961   7.505
28716SOL     OW88044   1.754   2.669   8.797
28716SOL    HW188045   1.663   2.645   8.816
28716SOL    HW288046   1.749   2.759   8.766
28717SOL     OW88047  12.380   7.681   4.934
28717SOL    HW188048  12.293   7.719   4.931
28717SOL    HW288049  12.399   7.655   4.844
28718SOL     OW88050   3.992   2.076  12.776
28718SOL    HW188051   3.949   2.015  12.836
28718SOL    HW288052   4.032   2.020  12.710
28719SOL     OW88053   6.229   8.340   0.614
28719SOL    HW188054   6.276   8.385   0.685
28719SOL    HW288055   6.170   8.407   0.579
28720SOL     OW88056   4.817   0.800   3.365
28720SOL    HW188057   4.836   0.715   3.405
28720SOL    HW288058   4.885   0.858   3.399
28721SOL     OW88059   5.257  13.484  13.648
28721SOL    HW188060   5.226  13.397  13.621
28721SOL    HW288061   5.252  13.537  13.568
28722SOL     OW88062  11.278   0.984   0.067
28722SOL    HW188063  11.273   1.079   0.066
28722SOL    HW288064  11.218   0.957  14.865
28723SOL     OW88065   4.714   7.339   8.757
28723SOL    HW188066   4.780   7.269   8.752
28723SOL    HW288067   4.671   7.337   8.671
28724SOL     OW88068   3.765   0.397   7.817
28724SOL    HW188069   3.827   0.438   7.756
28724SOL    HW288070   3.686   0.382   7.766
28725SOL     OW88071  10.339  12.321  12.446
28725SOL    HW188072  10.408  12.290  12.505
28725SOL    HW288073  10.302  12.397  12.491
28726SOL     OW88074   2.356   3.327   2.726
28726SOL    HW188075   2.296   3.302   2.655
28726SOL    HW288076   2.441   3.334   2.684
28727SOL     OW88077   1.334  11.005   4.188
28727SOL    HW188078   1.329  10.912   4.165
28727SOL    HW288079   1.275  11.014   4.264
28728SOL     OW88080   3.648   8.625   4.725
28728SOL    HW188081   3.743   8.620   4.713
28728SOL    HW288082   3.613   8.565   4.659
28729SOL     OW88083   6.270   8.198   4.460
28729SOL    HW188084   6.323   8.179   4.538
28729SOL    HW288085   6.180   8.188   4.489
28730SOL     OW88086   6.411   0.609  11.019
28730SOL    HW188087   6.494   0.561  11.012
28730SOL    HW288088   6.381   0.618  10.928
28731SOL     OW88089   3.231  13.407   7.594
28731SOL    HW188090   3.149  13.379   7.634
28731SOL    HW288091   3.296  13.344   7.623
28732SOL     OW88092   8.032   0.072  14.027
28732SOL    HW188093   8.041   0.029  13.942
28732SOL    HW288094   7.954   0.033  14.066
28733SOL     OW88095  11.466   8.352   1.648
28733SOL    HW188096  11.561   8.353   1.638
28733SOL    HW288097  11.449   8.416   1.717
28734SOL     OW88098  13.896   3.626   1.352
28734SOL    HW188099  13.973   3.578   1.383
28734SOL    HW288100  13.829   3.609   1.418
28735SOL     OW88101   0.211   3.952   4.268
28735SOL    HW188102   0.130   3.907   4.245
28735SOL    HW288103   0.251   3.974   4.184
28736SOL     OW88104   7.487  13.877  13.258
28736SOL    HW188105   7.564  13.823  13.276
28736SOL    HW288106   7.476  13.872  13.163
28737SOL     OW88107  10.954   5.474   0.676
28737SOL    HW188108  10.921   5.538   0.739
28737SOL    HW288109  11.022   5.521   0.627
28738SOL     OW88110   1.842   0.543   4.876
28738SOL    HW188111   1.891   0.573   4.799
28738SOL    HW288112   1.791   0.469   4.844
28739SOL     OW88113   0.374  11.646  12.492
28739SOL    HW188114   0.330  11.576  12.444
28739SOL    HW288115   0.323  11.655  12.573
28740SOL     OW88116   6.287   2.599  13.963
28740SOL    HW188117   6.265   2.536  14.032
28740SOL    HW288118   6.343   2.664  14.006
28741SOL     OW88119   7.977  13.392   2.831
28741SOL    HW188120   7.908  13.334   2.799
28741SOL    HW288121   7.949  13.479   2.804
28742SOL     OW88122   2.879   9.991  12.726
28742SOL    HW188123   2.885   9.931  12.800
28742SOL    HW288124   2.796   9.971  12.685
28743SOL     OW88125   2.262   3.754   3.182
28743SOL    HW188126   2.225   3.676   3.139
28743SOL    HW288127   2.347   3.725   3.215
28744SOL     OW88128  12.218  13.244  11.951
28744SOL    HW188129  12.209  13.193  12.032
28744SOL    HW288130  12.308  13.227  11.922
28745SOL     OW88131   9.014   0.502  12.990
28745SOL    HW188132   8.989   0.430  13.047
28745SOL    HW288133   9.039   0.459  12.908
28746SOL     OW88134  11.725   2.787   7.105
28746SOL    HW188135  11.778   2.846   7.051
28746SOL    HW288136  11.726   2.704   7.057
28747SOL     OW88137  12.619  13.083  14.615
28747SOL    HW188138  12.578  13.144  14.676
28747SOL    HW288139  12.549  13.060  14.553
28748SOL     OW88140   7.816   1.429   9.943
28748SOL    HW188141   7.781   1.341   9.936
28748SOL    HW288142   7.861   1.431  10.028
28749SOL     OW88143  14.590  12.447   9.959
28749SOL    HW188144  14.604  12.508   9.887
28749SOL    HW288145  14.502  12.469   9.992
28750SOL     OW88146   1.195  13.382   9.733
28750SOL    HW188147   1.278  13.340   9.711
28750SOL    HW288148   1.136  13.309   9.752
28751SOL     OW88149  11.735  10.267   2.530
28751SOL    HW188150  11.802  10.264   2.598
28751SOL    HW288151  11.776  10.316   2.458
28752SOL     OW88152   2.335   9.301   9.926
28752SOL    HW188153   2.340   9.396   9.936
28752SOL    HW288154   2.423   9.270   9.947
28753SOL     OW88155   4.133   1.776  10.114
28753SOL    HW188156   4.116   1.696  10.064
28753SOL    HW288157   4.087   1.762  10.196
28754SOL     OW88158   0.275   7.890  13.043
28754SOL    HW188159   0.312   7.912  12.958
28754SOL    HW288160   0.203   7.829  13.024
28755SOL     OW88161   0.499   2.239   8.302
28755SOL    HW188162   0.563   2.192   8.248
28755SOL    HW288163   0.431   2.267   8.241
28756SOL     OW88164   5.718   7.021   4.301
28756SOL    HW188165   5.656   7.017   4.374
28756SOL    HW288166   5.666   7.058   4.229
28757SOL     OW88167   7.054   2.031   4.756
28757SOL    HW188168   7.059   2.123   4.730
28757SOL    HW288169   7.080   1.982   4.678
28758SOL     OW88170  12.771   1.318   3.346
28758SOL    HW188171  12.783   1.413   3.353
28758SOL    HW288172  12.815   1.294   3.265
28759SOL     OW88173   2.145  13.676   2.679
28759SOL    HW188174   2.174  13.663   2.769
28759SOL    HW288175   2.216  13.642   2.625
28760SOL     OW88176   7.464   4.845   0.996
28760SOL    HW188177   7.430   4.914   0.939
28760SOL    HW288178   7.413   4.768   0.972
28761SOL     OW88179   7.338   8.048   3.309
28761SOL    HW188180   7.401   7.978   3.326
28761SOL    HW288181   7.340   8.103   3.387
28762SOL     OW88182   0.895  13.837  10.619
28762SOL    HW188183   0.827  13.884  10.668
28762SOL    HW288184   0.977  13.868  10.658
28763SOL     OW88185   6.609  12.424   8.665
28763SOL    HW188186   6.567  12.495   8.714
28763SOL    HW288187   6.699  12.455   8.651
28764SOL     OW88188   2.163   8.236   5.518
28764SOL    HW188189   2.104   8.310   5.504
28764SOL    HW288190   2.243   8.276   5.554
28765SOL     OW88191   3.797   1.723   4.310
28765SOL    HW188192   3.839   1.757   4.231
28765SOL    HW288193   3.743   1.796   4.341
28766SOL     OW88194   4.565   5.885   5.916
28766SOL    HW188195   4.497   5.834   5.960
28766SOL    HW288196   4.553   5.974   5.947
28767SOL     OW88197   9.260   6.148   5.221
28767SOL    HW188198   9.204   6.222   5.200
28767SOL    HW288199   9.199   6.081   5.254
28768SOL     OW88200   1.328   9.699   9.769
28768SOL    HW188201   1.300   9.611   9.795
28768SOL    HW288202   1.417   9.687   9.737
28769SOL     OW88203  11.756  14.162  11.879
28769SOL    HW188204  11.803  14.196  11.803
28769SOL    HW288205  11.763  14.232  11.945
28770SOL     OW88206   5.160  12.424   4.571
28770SOL    HW188207   5.243  12.379   4.586
28770SOL    HW288208   5.184  12.515   4.550
28771SOL     OW88209   4.167  11.991  12.328
28771SOL    HW188210   4.190  11.926  12.262
28771SOL    HW288211   4.215  12.070  12.302
28772SOL     OW88212   5.810   0.299   4.331
28772SOL    HW188213   5.892   0.343   4.352
28772SOL    HW288214   5.823   0.209   4.361
28773SOL     OW88215  14.165  13.722  13.834
28773SOL    HW188216  14.156  13.817  13.843
28773SOL    HW288217  14.175  13.690  13.924
28774SOL     OW88218   8.149  12.873   0.249
28774SOL    HW188219   8.103  12.838   0.325
28774SOL    HW288220   8.241  12.856   0.267
28775SOL     OW88221  10.350   1.750   8.529
28775SOL    HW188222  10.310   1.741   8.615
28775SOL    HW288223  10.297   1.815   8.484
28776SOL     OW88224   1.963   6.290  14.357
28776SOL    HW188225   1.869   6.281  14.371
28776SOL    HW288226   1.996   6.201  14.353
28777SOL     OW88227   2.088   2.490   0.000
28777SOL    HW188228   2.118   2.484   0.091
28777SOL    HW288229   2.094   2.401  14.834
28778SOL     OW88230  13.545   6.420   4.245
28778SOL    HW188231  13.545   6.403   4.151
28778SOL    HW288232  13.624   6.377   4.278
28779SOL     OW88233   2.029   4.483   9.305
28779SOL    HW188234   1.990   4.451   9.386
28779SOL    HW288235   1.960   4.476   9.240
28780SOL     OW88236   1.026   1.035   3.129
28780SOL    HW188237   1.099   1.037   3.191
28780SOL    HW288238   0.956   1.084   3.173
28781SOL     OW88239   6.836   0.766   9.096
28781SOL    HW188240   6.880   0.700   9.042
28781SOL    HW288241   6.744   0.741   9.092
28782SOL     OW88242  10.110   7.057   6.426
28782SOL    HW188243  10.167   7.131   6.407
28782SOL    HW288244  10.169   6.983   6.439
28783SOL     OW88245   0.192   6.411   7.437
28783SOL    HW188246   0.161   6.435   7.350
28783SOL    HW288247   0.113   6.407   7.491
28784SOL     OW88248   9.245  13.938  11.331
28784SOL    HW188249   9.256  13.994  11.254
28784SOL    HW288250   9.275  13.993  11.404
28785SOL     OW88251   3.603   0.610   5.712
28785SOL    HW188252   3.570   0.663   5.639
28785SOL    HW288253   3.608   0.671   5.785
28786SOL     OW88254   0.819  10.024   6.450
28786SOL    HW188255   0.891   9.960   6.443
28786SOL    HW288256   0.859  10.100   6.493
28787SOL     OW88257   4.655  10.081   8.019
28787SOL    HW188258   4.593  10.150   7.998
28787SOL    HW288259   4.675  10.094   8.112
28788SOL     OW88260   0.378   9.306  12.093
28788SOL    HW188261   0.392   9.290  12.000
28788SOL    HW288262   0.452   9.262  12.136
28789SOL     OW88263  11.414   5.450   6.751
28789SOL    HW188264  11.349   5.520   6.757
28789SOL    HW288265  11.442   5.435   6.841
28790SOL     OW88266   8.949   3.464   4.586
28790SOL    HW188267   9.015   3.400   4.560
28790SOL    HW288268   8.911   3.429   4.666
28791SOL     OW88269  10.411   2.157   1.142
28791SOL    HW188270  10.379   2.233   1.190
28791SOL    HW288271  10.443   2.193   1.059
28792SOL     OW88272   2.189   1.338  11.314
28792SOL    HW188273   2.216   1.309  11.401
28792SOL    HW288274   2.137   1.265  11.280
28793SOL     OW88275   1.653   1.642   2.894
28793SOL    HW188276   1.610   1.635   2.808
28793SOL    HW288277   1.598   1.591   2.953
28794SOL     OW88278   3.358  14.452   5.385
28794SOL    HW188279   3.314  14.468   5.468
28794SOL    HW288280   3.445  14.420   5.410
28795SOL     OW88281  14.301   1.793   7.972
28795SOL    HW188282  14.305   1.865   7.910
28795SOL    HW288283  14.337   1.829   8.053
28796SOL     OW88284   9.827   8.721   5.539
28796SOL    HW188285   9.763   8.662   5.579
28796SOL    HW288286   9.852   8.677   5.458
28797SOL     OW88287   7.875  12.843   4.148
28797SOL    HW188288   7.835  12.914   4.198
28797SOL    HW288289   7.819  12.767   4.166
28798SOL     OW88290  12.295  14.408   1.916
28798SOL    HW188291  12.221  14.437   1.863
28798SOL    HW288292  12.261  14.331   1.963
28799SOL     OW88293   8.781   9.237   4.637
28799SOL    HW188294   8.703   9.227   4.692
28799SOL    HW288295   8.761   9.312   4.581
28800SOL     OW88296  11.703   5.434  12.314
28800SOL    HW188297  11.765   5.390  12.373
28800SOL    HW288298  11.753   5.507  12.277
28801SOL     OW88299   9.194   7.386  11.821
28801SOL    HW188300   9.219   7.301  11.783
28801SOL    HW288301   9.126   7.420  11.763
28802SOL     OW88302   6.370   9.091   8.537
28802SOL    HW188303   6.388   9.164   8.596
28802SOL    HW288304   6.446   9.086   8.479
28803SOL     OW88305  10.273  13.651   7.971
28803SOL    HW188306  10.326  13.627   8.047
28803SOL    HW288307  10.285  13.746   7.963
28804SOL     OW88308   7.712   4.772   3.432
28804SOL    HW188309   7.753   4.686   3.438
28804SOL    HW288310   7.630   4.763   3.480
28805SOL     OW88311  11.388   5.095  10.667
28805SOL    HW188312  11.472   5.052  10.681
28805SOL    HW288313  11.408   5.188  10.670
28806SOL     OW88314   6.340   2.201  12.983
28806SOL    HW188315   6.328   2.295  12.980
28806SOL    HW288316   6.343   2.180  13.077
28807SOL     OW88317   5.335  13.478  11.006
28807SOL    HW188318   5.382  13.402  11.042
28807SOL    HW288319   5.349  13.548  11.070
28808SOL     OW88320   0.409   6.752   6.659
28808SOL    HW188321   0.446   6.716   6.740
28808SOL    HW288322   0.341   6.813   6.689
28809SOL     OW88323  12.513   3.000   9.468
28809SOL    HW188324  12.555   3.043   9.542
28809SOL    HW288325  12.585   2.982   9.407
28810SOL     OW88326   7.176   9.054   2.888
28810SOL    HW188327   7.109   9.109   2.929
28810SOL    HW288328   7.127   8.988   2.840
28811SOL     OW88329   5.844   9.890   0.785
28811SOL    HW188330   5.877   9.858   0.869
28811SOL    HW288331   5.750   9.896   0.797
28812SOL     OW88332   3.798   1.662   2.620
28812SOL    HW188333   3.824   1.741   2.572
28812SOL    HW288334   3.747   1.695   2.694
28813SOL     OW88335   4.865   3.587   0.713
28813SOL    HW188336   4.884   3.602   0.620
28813SOL    HW288337   4.940   3.625   0.759
28814SOL     OW88338  11.858  13.371   3.740
28814SOL    HW188339  11.848  13.459   3.705
28814SOL    HW288340  11.953  13.362   3.754
28815SOL     OW88341   5.048   8.335   3.804
28815SOL    HW188342   4.998   8.257   3.829
28815SOL    HW288343   5.122   8.335   3.864
28816SOL     OW88344   3.246   0.460   6.790
28816SOL    HW188345   3.302   0.536   6.780
28816SOL    HW288346   3.230   0.429   6.701
28817SOL     OW88347  11.276   6.470   3.779
28817SOL    HW188348  11.314   6.551   3.744
28817SOL    HW288349  11.201   6.453   3.723
28818SOL     OW88350   9.170   3.470   5.437
28818SOL    HW188351   9.164   3.526   5.514
28818SOL    HW288352   9.108   3.507   5.375
28819SOL     OW88353  14.780   2.186   9.961
28819SOL    HW188354  14.703   2.162   9.911
28819SOL    HW288355  14.838   2.229   9.898
28820SOL     OW88356  10.151  11.973   2.143
28820SOL    HW188357  10.131  12.066   2.132
28820SOL    HW288358  10.091  11.944   2.212
28821SOL     OW88359   6.094   3.034   9.099
28821SOL    HW188360   6.090   3.129   9.089
28821SOL    HW288361   6.143   3.021   9.180
28822SOL     OW88362   8.390  11.513  12.215
28822SOL    HW188363   8.425  11.477  12.134
28822SOL    HW288364   8.323  11.575  12.186
28823SOL     OW88365   7.486   1.630  12.885
28823SOL    HW188366   7.424   1.602  12.953
28823SOL    HW288367   7.531   1.705  12.922
28824SOL     OW88368   7.324  10.195   7.134
28824SOL    HW188369   7.307  10.284   7.102
28824SOL    HW288370   7.329  10.203   7.229
28825SOL     OW88371   9.555   9.123  12.582
28825SOL    HW188372   9.627   9.185  12.589
28825SOL    HW288373   9.589   9.041  12.617
28826SOL     OW88374   2.214  11.944   6.601
28826SOL    HW188375   2.187  11.915   6.514
28826SOL    HW288376   2.270  12.020   6.585
28827SOL     OW88377   8.173  11.360   2.900
28827SOL    HW188378   8.237  11.385   2.966
28827SOL    HW288379   8.220  11.369   2.817
28828SOL     OW88380   2.501  12.403  14.161
28828SOL    HW188381   2.588  12.364  14.170
28828SOL    HW288382   2.491  12.457  14.240
28829SOL     OW88383  14.089   7.489  10.942
28829SOL    HW188384  14.176   7.520  10.916
28829SOL    HW288385  14.029   7.531  10.881
28830SOL     OW88386  13.291  13.045  14.130
28830SOL    HW188387  13.383  13.018  14.137
28830SOL    HW288388  13.286  13.125  14.182
28831SOL     OW88389  11.219   2.642  13.911
28831SOL    HW188390  11.163   2.572  13.877
28831SOL    HW288391  11.177   2.667  13.993
28832SOL     OW88392   0.189   0.598   3.590
28832SOL    HW188393   0.195   0.532   3.659
28832SOL    HW288394   0.268   0.652   3.602
28833SOL     OW88395   8.958   4.655  14.367
28833SOL    HW188396   9.017   4.581  14.352
28833SOL    HW288397   8.871   4.616  14.374
28834SOL     OW88398   3.614   7.372   9.809
28834SOL    HW188399   3.629   7.466   9.812
28834SOL    HW288400   3.561   7.359   9.731
28835SOL     OW88401  13.626   8.629   1.856
28835SOL    HW188402  13.651   8.710   1.810
28835SOL    HW288403  13.540   8.607   1.820
28836SOL     OW88404   2.896   1.493   0.127
28836SOL    HW188405   2.847   1.431   0.181
28836SOL    HW288406   2.866   1.579   0.157
28837SOL     OW88407   9.943   7.576  11.860
28837SOL    HW188408  10.037   7.570  11.875
28837SOL    HW288409   9.925   7.670  11.859
28838SOL     OW88410   8.613   1.629  13.099
28838SOL    HW188411   8.528   1.665  13.073
28838SOL    HW288412   8.621   1.547  13.049
28839SOL     OW88413   1.656   9.075  11.597
28839SOL    HW188414   1.615   8.999  11.556
28839SOL    HW288415   1.718   9.108  11.532
28840SOL     OW88416   2.818   5.357  14.854
28840SOL    HW188417   2.799   5.451  14.844
28840SOL    HW288418   2.798   5.320  14.768
28841SOL     OW88419   1.965   8.717   7.599
28841SOL    HW188420   1.888   8.769   7.623
28841SOL    HW288421   1.932   8.628   7.592
28842SOL     OW88422   3.108   7.605  11.503
28842SOL    HW188423   3.048   7.546  11.457
28842SOL    HW288424   3.159   7.646  11.433
28843SOL     OW88425  11.104  12.216   5.384
28843SOL    HW188426  11.183  12.220   5.438
28843SOL    HW288427  11.051  12.290   5.414
28844SOL     OW88428   8.268   2.480   4.013
28844SOL    HW188429   8.339   2.545   4.016
28844SOL    HW288430   8.268   2.440   4.099
28845SOL     OW88431  14.546   3.976  12.279
28845SOL    HW188432  14.618   3.920  12.250
28845SOL    HW288433  14.577   4.065  12.264
28846SOL     OW88434   7.013   5.119  11.559
28846SOL    HW188435   6.933   5.067  11.553
28846SOL    HW288436   7.001   5.189  11.496
28847SOL     OW88437  12.410   0.735  14.010
28847SOL    HW188438  12.342   0.669  13.997
28847SOL    HW288439  12.362   0.817  14.021
28848SOL     OW88440   9.420  12.656   2.995
28848SOL    HW188441   9.399  12.672   2.903
28848SOL    HW288442   9.424  12.561   3.003
28849SOL     OW88443   2.530   4.743  11.025
28849SOL    HW188444   2.480   4.662  11.034
28849SOL    HW288445   2.583   4.748  11.104
28850SOL     OW88446   4.980   7.362   5.943
28850SOL    HW188447   5.048   7.393   6.003
28850SOL    HW288448   4.912   7.328   6.001
28851SOL     OW88449   8.044   8.823   8.415
28851SOL    HW188450   8.092   8.741   8.429
28851SOL    HW288451   7.952   8.799   8.427
28852SOL     OW88452   5.689   8.917  10.218
28852SOL    HW188453   5.645   8.847  10.266
28852SOL    HW288454   5.620   8.958  10.166
28853SOL     OW88455   2.069   3.507   5.806
28853SOL    HW188456   2.017   3.580   5.842
28853SOL    HW288457   2.076   3.445   5.879
28854SOL     OW88458   1.998  11.456  11.280
28854SOL    HW188459   2.011  11.385  11.343
28854SOL    HW288460   1.995  11.535  11.334
28855SOL     OW88461   3.383   7.870  11.227
28855SOL    HW188462   3.297   7.839  11.255
28855SOL    HW288463   3.433   7.878  11.307
28856SOL     OW88464   3.726   7.872   6.414
28856SOL    HW188465   3.791   7.937   6.388
28856SOL    HW288466   3.767   7.824   6.486
28857SOL     OW88467  11.935   4.493  13.900
28857SOL    HW188468  11.859   4.436  13.906
28857SOL    HW288469  11.918   4.548  13.823
28858SOL     OW88470   1.780   4.679   8.846
28858SOL    HW188471   1.795   4.598   8.797
28858SOL    HW288472   1.695   4.665   8.888
28859SOL     OW88473  14.807   2.276   5.901
28859SOL    HW188474  14.804   2.239   5.989
28859SOL    HW288475  14.715   2.286   5.875
28860SOL     OW88476  11.320  14.096   6.725
28860SOL    HW188477  11.241  14.125   6.771
28860SOL    HW288478  11.313  14.001   6.723
28861SOL     OW88479   7.815   8.631  13.194
28861SOL    HW188480   7.877   8.559  13.183
28861SOL    HW288481   7.864   8.697  13.242
28862SOL     OW88482  10.821   8.912   4.291
28862SOL    HW188483  10.871   8.846   4.242
28862SOL    HW288484  10.876   8.933   4.366
28863SOL     OW88485  10.800  11.593   3.734
28863SOL    HW188486  10.768  11.679   3.709
28863SOL    HW288487  10.842  11.559   3.655
28864SOL     OW88488   6.366   3.399  10.929
28864SOL    HW188489   6.420   3.412  11.007
28864SOL    HW288490   6.354   3.304  10.924
28865SOL     OW88491   8.963  11.832   2.452
28865SOL    HW188492   9.051  11.798   2.438
28865SOL    HW288493   8.905  11.759   2.429
28866SOL     OW88494   5.746  11.441   4.519
28866SOL    HW188495   5.838  11.465   4.524
28866SOL    HW288496   5.701  11.522   4.493
28867SOL     OW88497   7.047   0.281   2.304
28867SOL    HW188498   6.974   0.223   2.280
28867SOL    HW288499   7.114   0.222   2.339
28868SOL     OW88500   3.127   5.818   1.663
28868SOL    HW188501   3.204   5.763   1.650
28868SOL    HW288502   3.150   5.901   1.622
28869SOL     OW88503   9.131   7.246   1.432
28869SOL    HW188504   9.128   7.326   1.485
28869SOL    HW288505   9.060   7.191   1.467
28870SOL     OW88506   4.451  11.987   2.916
28870SOL    HW188507   4.394  12.024   2.849
28870SOL    HW288508   4.529  11.959   2.868
28871SOL     OW88509   4.446  10.964   8.492
28871SOL    HW188510   4.454  10.880   8.448
28871SOL    HW288511   4.450  11.028   8.421
28872SOL     OW88512   7.179   7.231  11.376
28872SOL    HW188513   7.239   7.298  11.408
28872SOL    HW288514   7.205   7.215  11.286
28873SOL     OW88515  12.355  14.609   0.834
28873SOL    HW188516  12.426  14.643   0.889
28873SOL    HW288517  12.364  14.514   0.839
28874SOL     OW88518  14.653  11.878   2.734
28874SOL    HW188519  14.657  11.821   2.811
28874SOL    HW288520  14.639  11.819   2.660
28875SOL     OW88521  10.401   2.449   6.062
28875SOL    HW188522  10.449   2.529   6.042
28875SOL    HW288523  10.323   2.454   6.007
28876SOL     OW88524   2.918  13.962   8.351
28876SOL    HW188525   2.941  14.052   8.375
28876SOL    HW288526   2.886  13.923   8.432
28877SOL     OW88527  14.831   7.032  13.241
28877SOL    HW188528   0.037   7.051  13.183
28877SOL    HW288529   0.002   7.022  13.327
28878SOL     OW88530   9.557   8.540  13.549
28878SOL    HW188531   9.516   8.497  13.473
28878SOL    HW288532   9.582   8.467  13.606
28879SOL     OW88533  13.426   3.817   0.988
28879SOL    HW188534  13.483   3.740   0.981
28879SOL    HW288535  13.356   3.801   0.925
28880SOL     OW88536  14.289   1.585   7.069
28880SOL    HW188537  14.309   1.496   7.038
28880SOL    HW288538  14.317   1.642   6.997
28881SOL     OW88539   3.143  10.958  14.063
28881SOL    HW188540   3.086  10.969  14.139
28881SOL    HW288541   3.143  11.044  14.021
28882SOL     OW88542   4.695   0.011  12.008
28882SOL    HW188543   4.745  14.826  12.070
28882SOL    HW288544   4.618  14.824  11.987
28883SOL     OW88545   3.379   7.085  13.528
28883SOL    HW188546   3.338   7.058  13.446
28883SOL    HW288547   3.308   7.082  13.592
28884SOL     OW88548  14.136   6.095   3.146
28884SOL    HW188549  14.119   6.186   3.122
28884SOL    HW288550  14.111   6.089   3.238
28885SOL     OW88551   6.466  10.110   8.071
28885SOL    HW188552   6.396  10.176   8.069
28885SOL    HW288553   6.541  10.153   8.030
28886SOL     OW88554   9.149   3.618  13.722
28886SOL    HW188555   9.139   3.640  13.815
28886SOL    HW288556   9.206   3.687  13.687
28887SOL     OW88557   6.802  10.680   7.204
28887SOL    HW188558   6.858  10.743   7.250
28887SOL    HW288559   6.836  10.680   7.114
28888SOL     OW88560   3.904   9.705  12.793
28888SOL    HW188561   3.928   9.774  12.731
28888SOL    HW288562   3.939   9.625  12.754
28889SOL     OW88563   7.938   3.249   7.037
28889SOL    HW188564   7.877   3.316   7.068
28889SOL    HW288565   7.881   3.183   6.997
28890SOL     OW88566   5.909  11.653   7.337
28890SOL    HW188567   5.836  11.707   7.309
28890SOL    HW288568   5.871  11.567   7.354
28891SOL     OW88569  10.844   3.757  11.719
28891SOL    HW188570  10.767   3.799  11.680
28891SOL    HW288571  10.848   3.671  11.679
28892SOL     OW88572   0.738  13.144   2.769
28892SOL    HW188573   0.714  13.185   2.853
28892SOL    HW288574   0.749  13.051   2.791
28893SOL     OW88575  12.088  12.460   0.729
28893SOL    HW188576  12.069  12.537   0.676
28893SOL    HW288577  12.151  12.409   0.678
28894SOL     OW88578   9.469   4.289   5.621
28894SOL    HW188579   9.491   4.205   5.660
28894SOL    HW288580   9.397   4.323   5.675
28895SOL     OW88581   0.162  11.434   3.605
28895SOL    HW188582   0.101  11.417   3.534
28895SOL    HW288583   0.239  11.381   3.585
28896SOL     OW88584   9.402  14.854   3.213
28896SOL    HW188585   9.471   0.011   3.275
28896SOL    HW288586   9.324   0.033   3.243
28897SOL     OW88587   2.417   3.304   2.113
28897SOL    HW188588   2.452   3.231   2.163
28897SOL    HW288589   2.400   3.372   2.178
28898SOL     OW88590   3.663  14.084   9.594
28898SOL    HW188591   3.653  14.037   9.511
28898SOL    HW288592   3.754  14.070   9.618
28899SOL     OW88593  11.774   5.935  10.144
28899SOL    HW188594  11.776   5.855  10.197
28899SOL    HW288595  11.681   5.959  10.140
28900SOL     OW88596   4.397   2.686  12.847
28900SOL    HW188597   4.330   2.623  12.821
28900SOL    HW288598   4.400   2.680  12.942
28901SOL     OW88599  11.193   4.841  12.492
28901SOL    HW188600  11.111   4.807  12.528
28901SOL    HW288601  11.196   4.933  12.518
28902SOL     OW88602   3.938   0.647  13.145
28902SOL    HW188603   4.033   0.654  13.151
28902SOL    HW288604   3.911   0.729  13.104
28903SOL     OW88605   8.177   3.001   2.561
28903SOL    HW188606   8.194   3.075   2.502
28903SOL    HW288607   8.089   3.017   2.596
28904SOL     OW88608   4.868  12.661   1.540
28904SOL    HW188609   4.825  12.689   1.621
28904SOL    HW288610   4.797  12.627   1.486
28905SOL     OW88611  11.015  11.971   8.401
28905SOL    HW188612  11.105  11.986   8.371
28905SOL    HW288613  10.960  12.008   8.332
28906SOL     OW88614  14.742   8.070   4.226
28906SOL    HW188615  14.806   8.057   4.296
28906SOL    HW288616  14.676   8.127   4.265
28907SOL     OW88617   6.761   0.718   2.703
28907SOL    HW188618   6.807   0.787   2.654
28907SOL    HW288619   6.815   0.640   2.691
28908SOL     OW88620  12.266   7.575   6.445
28908SOL    HW188621  12.178   7.607   6.427
28908SOL    HW288622  12.305   7.643   6.499
28909SOL     OW88623  12.235   0.383  13.634
28909SOL    HW188624  12.172   0.440  13.678
28909SOL    HW288625  12.309   0.379  13.694
28910SOL     OW88626  11.196  10.612   5.621
28910SOL    HW188627  11.109  10.578   5.644
28910SOL    HW288628  11.250  10.591   5.697
28911SOL     OW88629  10.951   4.423  14.559
28911SOL    HW188630  10.938   4.340  14.605
28911SOL    HW288631  10.869   4.438  14.512
28912SOL     OW88632  12.515   9.551  10.977
28912SOL    HW188633  12.580   9.487  10.948
28912SOL    HW288634  12.433   9.503  10.977
28913SOL     OW88635   5.802   0.376  14.113
28913SOL    HW188636   5.886   0.394  14.072
28913SOL    HW288637   5.774   0.293  14.076
28914SOL     OW88638  11.630  11.373   2.443
28914SOL    HW188639  11.598  11.408   2.526
28914SOL    HW288640  11.616  11.279   2.450
28915SOL     OW88641   0.338   7.069   3.067
28915SOL    HW188642   0.343   6.986   3.019
28915SOL    HW288643   0.385   7.053   3.149
28916SOL     OW88644  12.545  10.038  14.245
28916SOL    HW188645  12.599  10.006  14.172
28916SOL    HW288646  12.568  10.130  14.252
28917SOL     OW88647   8.791   6.800   3.886
28917SOL    HW188648   8.724   6.862   3.911
28917SOL    HW288649   8.778   6.787   3.792
28918SOL     OW88650   5.978   1.366   1.442
28918SOL    HW188651   5.891   1.326   1.438
28918SOL    HW288652   5.973   1.442   1.384
28919SOL     OW88653  13.926   5.598  10.293
28919SOL    HW188654  13.898   5.676  10.341
28919SOL    HW288655  13.921   5.527  10.357
28920SOL     OW88656   5.001   3.409   1.332
28920SOL    HW188657   4.956   3.329   1.359
28920SOL    HW288658   5.026   3.393   1.240
28921SOL     OW88659   2.445  11.596  13.673
28921SOL    HW188660   2.467  11.518  13.724
28921SOL    HW288661   2.529  11.630  13.643
28922SOL     OW88662   6.282   0.035   3.970
28922SOL    HW188663   6.331   0.083   4.037
28922SOL    HW288664   6.193   0.029   4.006
28923SOL     OW88665  11.820  14.781   8.350
28923SOL    HW188666  11.741  14.835   8.344
28923SOL    HW288667  11.860  14.806   8.434
28924SOL     OW88668   1.571  12.329  11.813
28924SOL    HW188669   1.493  12.384  11.805
28924SOL    HW288670   1.562  12.286  11.898
28925SOL     OW88671   9.582  12.483   8.944
28925SOL    HW188672   9.489  12.459   8.950
28925SOL    HW288673   9.602  12.523   9.029
28926SOL     OW88674   0.968  12.388   1.820
28926SOL    HW188675   0.931  12.452   1.759
28926SOL    HW288676   1.047  12.431   1.854
28927SOL     OW88677  14.358  13.754   8.139
28927SOL    HW188678  14.297  13.750   8.212
28927SOL    HW288679  14.336  13.678   8.085
28928SOL     OW88680   3.180   6.280   4.647
28928SOL    HW188681   3.114   6.241   4.590
28928SOL    HW288682   3.132   6.344   4.699
28929SOL     OW88683   5.884   6.416   2.218
28929SOL    HW188684   5.934   6.335   2.210
28929SOL    HW288685   5.939   6.474   2.270
28930SOL     OW88686   0.246  10.698   4.769
28930SOL    HW188687   0.257  10.604   4.762
28930SOL    HW288688   0.161  10.715   4.729
28931SOL     OW88689  14.180   3.673  14.494
28931SOL    HW188690  14.169   3.652  14.401
28931SOL    HW288691  14.236   3.604  14.528
28932SOL     OW88692  12.898   1.887  10.204
28932SOL    HW188693  12.978   1.852  10.243
28932SOL    HW288694  12.862   1.945  10.272
28933SOL     OW88695  13.633  11.003  13.321
28933SOL    HW188696  13.553  10.960  13.351
28933SOL    HW288697  13.701  10.973  13.382
28934SOL     OW88698   0.349   9.656   7.278
28934SOL    HW188699   0.301   9.699   7.207
28934SOL    HW288700   0.423   9.613   7.234
28935SOL     OW88701   6.911   8.161   6.785
28935SOL    HW188702   7.003   8.178   6.765
28935SOL    HW288703   6.876   8.247   6.808
28936SOL     OW88704  12.600  13.377   6.382
28936SOL    HW188705  12.641  13.293   6.404
28936SOL    HW288706  12.660  13.417   6.320
28937SOL     OW88707   1.268   8.232   2.769
28937SOL    HW188708   1.300   8.142   2.777
28937SOL    HW288709   1.228   8.251   2.854
28938SOL     OW88710  11.502  10.464  11.567
28938SOL    HW188711  11.451  10.428  11.495
28938SOL    HW288712  11.501  10.396  11.635
28939SOL     OW88713   4.627   0.511   4.184
28939SOL    HW188714   4.556   0.451   4.162
28939SOL    HW288715   4.693   0.456   4.226
28940SOL     OW88716   0.777   4.077   6.711
28940SOL    HW188717   0.794   4.158   6.760
28940SOL    HW288718   0.686   4.085   6.684
28941SOL     OW88719  13.480   9.229   2.255
28941SOL    HW188720  13.528   9.261   2.178
28941SOL    HW288721  13.390   9.257   2.241
28942SOL     OW88722  14.390  10.357  10.284
28942SOL    HW188723  14.386  10.261  10.279
28942SOL    HW288724  14.358  10.387  10.199
28943SOL     OW88725   2.297  13.831   5.005
28943SOL    HW188726   2.234  13.825   5.077
28943SOL    HW288727   2.244  13.829   4.926
28944SOL     OW88728   6.031  11.234   4.039
28944SOL    HW188729   6.043  11.144   4.070
28944SOL    HW288730   6.111  11.279   4.067
28945SOL     OW88731  13.160   0.258  14.562
28945SOL    HW188732  13.115   0.185  14.606
28945SOL    HW288733  13.188   0.222  14.478
28946SOL     OW88734  12.298   2.102   4.107
28946SOL    HW188735  12.369   2.152   4.068
28946SOL    HW288736  12.284   2.143   4.193
28947SOL     OW88737  11.075   0.204   1.737
28947SOL    HW188738  11.057   0.222   1.645
28947SOL    HW288739  11.030   0.275   1.785
28948SOL     OW88740  13.218  13.941   9.514
28948SOL    HW188741  13.284  13.890   9.561
28948SOL    HW288742  13.254  13.951   9.426
28949SOL     OW88743  10.166   1.118   4.926
28949SOL    HW188744  10.096   1.140   4.987
28949SOL    HW288745  10.134   1.148   4.841
28950SOL     OW88746   5.118   7.747   2.807
28950SOL    HW188747   5.105   7.738   2.901
28950SOL    HW288748   5.205   7.787   2.798
28951SOL     OW88749  13.415  12.398   2.588
28951SOL    HW188750  13.333  12.402   2.539
28951SOL    HW288751  13.461  12.478   2.563
28952SOL     OW88752   2.463   8.629   1.603
28952SOL    HW188753   2.383   8.578   1.598
28952SOL    HW288754   2.503   8.620   1.516
28953SOL     OW88755   0.338   7.247   9.775
28953SOL    HW188756   0.416   7.292   9.744
28953SOL    HW288757   0.272   7.264   9.707
28954SOL     OW88758  14.619   9.732  12.641
28954SOL    HW188759  14.674   9.808  12.620
28954SOL    HW288760  14.679   9.658  12.639
28955SOL     OW88761  11.189   1.702   4.934
28955SOL    HW188762  11.190   1.764   5.007
28955SOL    HW288763  11.251   1.634   4.958
28956SOL     OW88764  14.780   5.703   3.700
28956SOL    HW188765  14.753   5.794   3.688
28956SOL    HW288766   0.007   5.705   3.689
28957SOL     OW88767   1.686   8.677   0.602
28957SOL    HW188768   1.671   8.625   0.680
28957SOL    HW288769   1.735   8.619   0.543
28958SOL     OW88770  10.166   0.200  14.345
28958SOL    HW188771  10.184   0.203  14.251
28958SOL    HW288772  10.213   0.275  14.382
28959SOL     OW88773  14.695  11.656  12.793
28959SOL    HW188774  14.732  11.695  12.872
28959SOL    HW288775  14.637  11.587  12.825
28960SOL     OW88776  10.224  12.141   8.787
28960SOL    HW188777  10.168  12.066   8.809
28960SOL    HW288778  10.171  12.192   8.725
28961SOL     OW88779  11.448  12.484  10.121
28961SOL    HW188780  11.460  12.564  10.070
28961SOL    HW288781  11.492  12.503  10.204
28962SOL     OW88782   3.923   7.352  13.144
28962SOL    HW188783   3.838   7.315  13.167
28962SOL    HW288784   3.986   7.285  13.170
28963SOL     OW88785   1.090  12.953  12.122
28963SOL    HW188786   1.117  12.913  12.204
28963SOL    HW288787   1.171  12.987  12.084
28964SOL     OW88788   8.010   4.017  10.319
28964SOL    HW188789   7.941   3.951  10.325
28964SOL    HW288790   8.010   4.044  10.227
28965SOL     OW88791   0.966   0.226  12.466
28965SOL    HW188792   0.954   0.131  12.467
28965SOL    HW288793   0.895   0.259  12.522
28966SOL     OW88794   4.610   5.245   7.609
28966SOL    HW188795   4.699   5.231   7.641
28966SOL    HW288796   4.608   5.336   7.581
28967SOL     OW88797  13.251   4.132   8.947
28967SOL    HW188798  13.189   4.198   8.975
28967SOL    HW288799  13.311   4.121   9.021
28968SOL     OW88800   3.754   4.968   1.894
28968SOL    HW188801   3.804   4.887   1.886
28968SOL    HW288802   3.791   5.027   1.828
28969SOL     OW88803   1.578  12.698   7.001
28969SOL    HW188804   1.610  12.775   7.050
28969SOL    HW288805   1.486  12.691   7.025
28970SOL     OW88806   6.283   5.684   5.986
28970SOL    HW188807   6.368   5.640   5.980
28970SOL    HW288808   6.229   5.639   5.921
28971SOL     OW88809   3.538  14.338  11.124
28971SOL    HW188810   3.493  14.389  11.056
28971SOL    HW288811   3.586  14.271  11.076
28972SOL     OW88812   0.335   8.626  11.619
28972SOL    HW188813   0.404   8.648  11.557
28972SOL    HW288814   0.321   8.532  11.607
28973SOL     OW88815  11.142  12.121  13.297
28973SOL    HW188816  11.154  12.029  13.271
28973SOL    HW288817  11.050  12.127  13.320
28974SOL     OW88818   8.096   8.766  11.641
28974SOL    HW188819   8.089   8.815  11.723
28974SOL    HW288820   8.006   8.745  11.618
28975SOL     OW88821   9.134   8.874   3.416
28975SOL    HW188822   9.106   8.965   3.430
28975SOL    HW288823   9.197   8.858   3.487
28976SOL     OW88824   3.038   8.732  10.583
28976SOL    HW188825   3.071   8.646  10.610
28976SOL    HW288826   2.992   8.766  10.660
28977SOL     OW88827   0.166   0.205  13.409
28977SOL    HW188828   0.213   0.214  13.325
28977SOL    HW288829   0.195   0.281  13.460
28978SOL     OW88830  10.716  13.421   6.826
28978SOL    HW188831  10.756  13.480   6.889
28978SOL    HW288832  10.706  13.474   6.747
28979SOL     OW88833   7.417  10.790  13.285
28979SOL    HW188834   7.344  10.759  13.339
28979SOL    HW288835   7.381  10.864  13.237
28980SOL     OW88836  14.298   8.312   6.638
28980SOL    HW188837  14.337   8.327   6.724
28980SOL    HW288838  14.333   8.227   6.610
28981SOL     OW88839   3.973  14.247   0.690
28981SOL    HW188840   3.907  14.254   0.621
28981SOL    HW288841   4.026  14.171   0.666
28982SOL     OW88842  10.379   1.357   2.517
28982SOL    HW188843  10.290   1.322   2.520
28982SOL    HW288844  10.422   1.308   2.448
28983SOL     OW88845   2.098   8.241   6.156
28983SOL    HW188846   2.077   8.292   6.235
28983SOL    HW288847   2.013   8.220   6.118
28984SOL     OW88848  11.007  11.359   5.798
28984SOL    HW188849  11.073  11.411   5.752
28984SOL    HW288850  10.926  11.374   5.749
28985SOL     OW88851   3.412   8.401   2.406
28985SOL    HW188852   3.402   8.311   2.374
28985SOL    HW288853   3.438   8.392   2.497
28986SOL     OW88854  12.939   2.116   8.262
28986SOL    HW188855  12.932   2.024   8.290
28986SOL    HW288856  13.026   2.122   8.224
28987SOL     OW88857  13.871   8.628   0.520
28987SOL    HW188858  13.824   8.685   0.459
28987SOL    HW288859  13.855   8.666   0.606
28988SOL     OW88860  12.217   9.204   3.824
28988SOL    HW188861  12.157   9.240   3.891
28988SOL    HW288862  12.297   9.255   3.834
28989SOL     OW88863  11.209  11.711   9.523
28989SOL    HW188864  11.236  11.803   9.518
28989SOL    HW288865  11.272  11.664   9.469
28990SOL     OW88866   6.159  12.451  13.556
28990SOL    HW188867   6.199  12.512  13.494
28990SOL    HW288868   6.233  12.403  13.594
28991SOL     OW88869   2.563   4.722   5.933
28991SOL    HW188870   2.496   4.747   5.998
28991SOL    HW288871   2.645   4.749   5.973
28992SOL     OW88872  12.333   6.355   3.841
28992SOL    HW188873  12.350   6.440   3.881
28992SOL    HW288874  12.402   6.346   3.775
28993SOL     OW88875   2.928   6.555   3.498
28993SOL    HW188876   2.900   6.467   3.524
28993SOL    HW288877   2.930   6.551   3.402
28994SOL     OW88878   8.125   1.463   6.158
28994SOL    HW188879   8.189   1.519   6.114
28994SOL    HW288880   8.068   1.524   6.204
28995SOL     OW88881   8.051   8.888   4.163
28995SOL    HW188882   7.973   8.886   4.108
28995SOL    HW288883   8.115   8.834   4.116
28996SOL     OW88884   0.276  10.090   3.790
28996SOL    HW188885   0.276  10.146   3.713
28996SOL    HW288886   0.226  10.013   3.764
28997SOL     OW88887   2.947   2.878   4.671
28997SOL    HW188888   2.913   2.893   4.583
28997SOL    HW288889   2.978   2.964   4.700
28998SOL     OW88890   6.023  14.782   8.544
28998SOL    HW188891   6.067  14.796   8.460
28998SOL    HW288892   6.007   0.002   8.578
28999SOL     OW88893  13.188   0.697   9.966
28999SOL    HW188894  13.209   0.618  10.016
28999SOL    HW288895  13.259   0.758   9.987
29000SOL     OW88896   1.485   5.741  13.973
29000SOL    HW188897   1.428   5.714  13.901
29000SOL    HW288898   1.430   5.735  14.051
29001SOL     OW88899   9.820   1.788   7.649
29001SOL    HW188900   9.887   1.808   7.714
29001SOL    HW288901   9.771   1.870   7.638
29002SOL     OW88902  10.172   8.524   7.657
29002SOL    HW188903  10.258   8.515   7.616
29002SOL    HW288904  10.178   8.604   7.709
29003SOL     OW88905   5.233   7.831   8.272
29003SOL    HW188906   5.271   7.909   8.311
29003SOL    HW288907   5.221   7.854   8.180
29004SOL     OW88908   0.142   7.799   3.151
29004SOL    HW188909   0.132   7.759   3.065
29004SOL    HW288910   0.059   7.842   3.168
29005SOL     OW88911   5.927   7.189  11.167
29005SOL    HW188912   5.895   7.266  11.121
29005SOL    HW288913   5.966   7.223  11.247
29006SOL     OW88914  13.719   0.929  10.076
29006SOL    HW188915  13.673   1.012  10.080
29006SOL    HW288916  13.766   0.931   9.992
29007SOL     OW88917   1.123   3.213   5.679
29007SOL    HW188918   1.115   3.308   5.686
29007SOL    HW288919   1.188   3.200   5.609
29008SOL     OW88920   3.263   7.894  13.806
29008SOL    HW188921   3.289   7.932  13.889
29008SOL    HW288922   3.194   7.952  13.773
29009SOL     OW88923   7.504  13.303   9.322
29009SOL    HW188924   7.517  13.258   9.406
29009SOL    HW288925   7.504  13.233   9.257
29010SOL     OW88926  11.641   4.693   4.662
29010SOL    HW188927  11.576   4.759   4.635
29010SOL    HW288928  11.617   4.672   4.753
29011SOL     OW88929   8.778   1.512   5.059
29011SOL    HW188930   8.689   1.535   5.086
29011SOL    HW288931   8.767   1.440   4.998
29012SOL     OW88932   5.655   0.436  12.166
29012SOL    HW188933   5.692   0.493  12.232
29012SOL    HW288934   5.594   0.491  12.118
29013SOL     OW88935   2.388   7.645  12.208
29013SOL    HW188936   2.382   7.551  12.191
29013SOL    HW288937   2.364   7.654  12.300
29014SOL     OW88938  13.769  14.110  11.307
29014SOL    HW188939  13.731  14.117  11.395
29014SOL    HW288940  13.696  14.127  11.248
29015SOL     OW88941   2.733  14.189   8.062
29015SOL    HW188942   2.762  14.253   7.997
29015SOL    HW288943   2.805  14.126   8.067
29016SOL     OW88944  13.372   0.189   5.789
29016SOL    HW188945  13.375   0.201   5.694
29016SOL    HW288946  13.451   0.231   5.821
29017SOL     OW88947   2.005  12.804   0.464
29017SOL    HW188948   2.074  12.868   0.485
29017SOL    HW288949   2.013  12.738   0.533
29018SOL     OW88950   8.807  11.561  13.231
29018SOL    HW188951   8.754  11.539  13.155
29018SOL    HW288952   8.888  11.597  13.195
29019SOL     OW88953   3.522   6.777   9.602
29019SOL    HW188954   3.494   6.688   9.584
29019SOL    HW288955   3.598   6.768   9.659
29020SOL     OW88956   9.641   2.351   1.856
29020SOL    HW188957   9.720   2.301   1.833
29020SOL    HW288958   9.594   2.293   1.917
29021SOL     OW88959  12.890   7.157  12.107
29021SOL    HW188960  12.832   7.157  12.031
29021SOL    HW288961  12.949   7.231  12.092
29022SOL     OW88962   7.074   6.494  13.993
29022SOL    HW188963   7.063   6.483  13.899
29022SOL    HW288964   7.002   6.443  14.031
29023SOL     OW88965   2.289   8.980   7.183
29023SOL    HW188966   2.375   8.989   7.143
29023SOL    HW288967   2.277   8.886   7.196
29024SOL     OW88968   4.293   0.853  13.689
29024SOL    HW188969   4.244   0.835  13.609
29024SOL    HW288970   4.380   0.817  13.672
29025SOL     OW88971   3.829   2.437   6.478
29025SOL    HW188972   3.911   2.476   6.448
29025SOL    HW288973   3.848   2.343   6.483
29026SOL     OW88974  11.008   5.751   8.528
29026SOL    HW188975  11.008   5.660   8.499
29026SOL    HW288976  10.974   5.749   8.617
29027SOL     OW88977  11.618   3.530   2.871
29027SOL    HW188978  11.690   3.591   2.855
29027SOL    HW288979  11.543   3.569   2.826
29028SOL     OW88980   0.576   7.119   5.087
29028SOL    HW188981   0.519   7.191   5.112
29028SOL    HW288982   0.663   7.145   5.118
29029SOL     OW88983  13.722   0.399   0.606
29029SOL    HW188984  13.754   0.443   0.685
29029SOL    HW288985  13.640   0.358   0.633
29030SOL     OW88986  10.858  10.442   4.681
29030SOL    HW188987  10.771  10.479   4.696
29030SOL    HW288988  10.899  10.441   4.767
29031SOL     OW88989  11.488   2.506   0.266
29031SOL    HW188990  11.552   2.549   0.209
29031SOL    HW288991  11.414   2.486   0.209
29032SOL     OW88992   3.256   7.212   9.631
29032SOL    HW188993   3.319   7.277   9.598
29032SOL    HW288994   3.297   7.128   9.613
29033SOL     OW88995   6.800   8.430   6.825
29033SOL    HW188996   6.767   8.487   6.756
29033SOL    HW288997   6.731   8.429   6.891
29034SOL     OW88998  13.855   2.342   8.151
29034SOL    HW188999  13.774   2.296   8.176
29034SOL    HW289000  13.825   2.425   8.113
29035SOL     OW89001   4.680  13.720   9.217
29035SOL    HW189002   4.624  13.750   9.288
29035SOL    HW289003   4.746  13.665   9.260
29036SOL     OW89004   2.738   3.168   7.220
29036SOL    HW189005   2.671   3.226   7.256
29036SOL    HW289006   2.698   3.081   7.221
29037SOL     OW89007   6.506   8.680  10.266
29037SOL    HW189008   6.469   8.756  10.310
29037SOL    HW289009   6.578   8.714  10.213
29038SOL     OW89010   6.689   4.245   0.944
29038SOL    HW189011   6.667   4.206   0.859
29038SOL    HW289012   6.785   4.253   0.942
29039SOL     OW89013  11.070   3.594  14.376
29039SOL    HW189014  10.983   3.568  14.404
29039SOL    HW289015  11.091   3.670  14.431
29040SOL     OW89016   3.715   8.362  14.243
29040SOL    HW189017   3.743   8.381  14.333
29040SOL    HW289018   3.624   8.394  14.240
29041SOL     OW89019   4.412  10.557  10.468
29041SOL    HW189020   4.399  10.467  10.498
29041SOL    HW289021   4.429  10.606  10.549
29042SOL     OW89022  12.829   8.945   4.175
29042SOL    HW189023  12.800   9.034   4.157
29042SOL    HW289024  12.755   8.890   4.148
29043SOL     OW89025   7.551   7.666  10.884
29043SOL    HW189026   7.496   7.691  10.959
29043SOL    HW289027   7.573   7.750  10.842
29044SOL     OW89028   7.814   1.126   8.986
29044SOL    HW189029   7.876   1.180   9.036
29044SOL    HW289030   7.764   1.079   9.053
29045SOL     OW89031   5.436   8.141   7.117
29045SOL    HW189032   5.444   8.199   7.041
29045SOL    HW289033   5.441   8.053   7.080
29046SOL     OW89034   2.186   7.745   1.886
29046SOL    HW189035   2.164   7.747   1.979
29046SOL    HW289036   2.127   7.808   1.846
29047SOL     OW89037   7.277  14.295   0.792
29047SOL    HW189038   7.244  14.231   0.729
29047SOL    HW289039   7.259  14.256   0.877
29048SOL     OW89040   7.451  13.195   7.487
29048SOL    HW189041   7.442  13.283   7.451
29048SOL    HW289042   7.371  13.180   7.537
29049SOL     OW89043  11.119   7.473  12.504
29049SOL    HW189044  11.185   7.453  12.571
29049SOL    HW289045  11.158   7.541  12.450
29050SOL     OW89046   8.958   5.766  14.518
29050SOL    HW189047   9.001   5.697  14.468
29050SOL    HW289048   8.871   5.774  14.477
29051SOL     OW89049   3.181   9.884   3.631
29051SOL    HW189050   3.091   9.861   3.654
29051SOL    HW289051   3.183   9.876   3.536
29052SOL     OW89052   0.074  12.641   5.879
29052SOL    HW189053   0.157  12.676   5.845
29052SOL    HW289054   0.067  12.678   5.966
29053SOL     OW89055   7.597  12.247   8.250
29053SOL    HW189056   7.603  12.186   8.324
29053SOL    HW289057   7.504  12.270   8.246
29054SOL     OW89058   2.248   1.788   2.222
29054SOL    HW189059   2.242   1.871   2.175
29054SOL    HW289060   2.314   1.738   2.175
29055SOL     OW89061  13.213   9.477   1.177
29055SOL    HW189062  13.208   9.403   1.117
29055SOL    HW289063  13.245   9.550   1.124
29056SOL     OW89064  10.699   1.981   4.882
29056SOL    HW189065  10.648   1.914   4.927
29056SOL    HW289066  10.763   1.932   4.830
29057SOL     OW89067  12.703   6.952   0.580
29057SOL    HW189068  12.698   6.924   0.672
29057SOL    HW289069  12.647   7.030   0.577
29058SOL     OW89070   9.129   2.656   3.780
29058SOL    HW189071   9.186   2.597   3.731
29058SOL    HW289072   9.040   2.630   3.755
29059SOL     OW89073   5.453   5.824   4.307
29059SOL    HW189074   5.435   5.733   4.331
29059SOL    HW289075   5.466   5.869   4.390
29060SOL     OW89076   9.493   2.131   8.710
29060SOL    HW189077   9.547   2.056   8.684
29060SOL    HW289078   9.556   2.200   8.731
29061SOL     OW89079   9.189   3.596   0.744
29061SOL    HW189080   9.177   3.506   0.714
29061SOL    HW289081   9.121   3.646   0.699
29062SOL     OW89082   5.973   4.031  14.632
29062SOL    HW189083   5.999   3.944  14.600
29062SOL    HW289084   6.043   4.056  14.693
29063SOL     OW89085   4.051   6.298  14.173
29063SOL    HW189086   4.121   6.273  14.113
29063SOL    HW289087   3.989   6.347  14.119
29064SOL     OW89088   7.692  11.406  10.428
29064SOL    HW189089   7.734  11.423  10.344
29064SOL    HW289090   7.609  11.364  10.406
29065SOL     OW89091   2.292   2.648   7.047
29065SOL    HW189092   2.244   2.660   6.965
29065SOL    HW289093   2.314   2.554   7.049
29066SOL     OW89094   0.167  10.715  10.550
29066SOL    HW189095   0.236  10.770  10.586
29066SOL    HW289096   0.189  10.626  10.579
29067SOL     OW89097  14.628   5.402   5.196
29067SOL    HW189098  14.675   5.366   5.271
29067SOL    HW289099  14.538   5.373   5.207
29068SOL     OW89100  13.793  12.684   4.781
29068SOL    HW189101  13.807  12.597   4.819
29068SOL    HW289102  13.881  12.715   4.760
29069SOL     OW89103   8.734  10.004  13.353
29069SOL    HW189104   8.716  10.098  13.360
29069SOL    HW289105   8.818   9.999  13.308
29070SOL     OW89106   7.872   8.982  11.402
29070SOL    HW189107   7.961   9.015  11.393
29070SOL    HW289108   7.860   8.971  11.496
29071SOL     OW89109   1.224  11.898  12.297
29071SOL    HW189110   1.299  11.954  12.316
29071SOL    HW289111   1.262  11.821  12.255
29072SOL     OW89112   2.278  13.268   3.757
29072SOL    HW189113   2.303  13.236   3.670
29072SOL    HW289114   2.334  13.344   3.771
29073SOL     OW89115   1.055  13.668  13.163
29073SOL    HW189116   1.087  13.590  13.118
29073SOL    HW289117   1.008  13.634  13.240
29074SOL     OW89118   0.293   5.254  14.507
29074SOL    HW189119   0.287   5.295  14.421
29074SOL    HW289120   0.316   5.163  14.490
29075SOL     OW89121  13.135   7.190   1.525
29075SOL    HW189122  13.115   7.102   1.556
29075SOL    HW289123  13.051   7.226   1.500
29076SOL     OW89124   6.106  10.741  13.053
29076SOL    HW189125   6.026  10.749  13.002
29076SOL    HW289126   6.176  10.736  12.988
29077SOL     OW89127   9.467   5.575  13.838
29077SOL    HW189128   9.498   5.567  13.928
29077SOL    HW289129   9.372   5.580  13.845
29078SOL     OW89130   4.266  10.431   8.331
29078SOL    HW189131   4.344  10.441   8.386
29078SOL    HW289132   4.224  10.517   8.333
29079SOL     OW89133   8.938   3.703  14.741
29079SOL    HW189134   8.867   3.767  14.729
29079SOL    HW289135   8.972   3.722  14.828
29080SOL     OW89136   1.458   5.492   5.182
29080SOL    HW189137   1.443   5.568   5.126
29080SOL    HW289138   1.527   5.520   5.242
29081SOL     OW89139   0.173   1.903   8.603
29081SOL    HW189140   0.124   1.928   8.525
29081SOL    HW289141   0.119   1.933   8.676
29082SOL     OW89142   0.932   2.317   8.253
29082SOL    HW189143   0.918   2.281   8.166
29082SOL    HW289144   0.917   2.411   8.244
29083SOL     OW89145  11.679   5.064  10.419
29083SOL    HW189146  11.670   4.998  10.488
29083SOL    HW289147  11.677   5.014  10.337
29084SOL     OW89148   8.611  13.632  12.948
29084SOL    HW189149   8.631  13.707  13.003
29084SOL    HW289150   8.516  13.621  12.957
29085SOL     OW89151  12.234   7.432  10.085
29085SOL    HW189152  12.240   7.461  10.176
29085SOL    HW289153  12.147   7.460  10.056
29086SOL     OW89154   7.164   6.029  12.198
29086SOL    HW189155   7.108   5.979  12.257
29086SOL    HW289156   7.110   6.044  12.120
29087SOL     OW89157   4.062   5.004   6.406
29087SOL    HW189158   4.071   5.055   6.487
29087SOL    HW289159   3.970   4.979   6.404
29088SOL     OW89160  12.623  12.189   0.514
29088SOL    HW189161  12.630  12.247   0.439
29088SOL    HW289162  12.532  12.158   0.513
29089SOL     OW89163   6.153  12.168   7.615
29089SOL    HW189164   6.201  12.211   7.686
29089SOL    HW289165   6.204  12.090   7.596
29090SOL     OW89166  11.495  11.588  10.746
29090SOL    HW189167  11.513  11.535  10.668
29090SOL    HW289168  11.556  11.661  10.740
29091SOL     OW89169  10.543   4.248  10.425
29091SOL    HW189170  10.612   4.203  10.474
29091SOL    HW289171  10.479   4.180  10.405
29092SOL     OW89172   9.568   4.970  11.646
29092SOL    HW189173   9.564   5.044  11.707
29092SOL    HW289174   9.601   4.897  11.698
29093SOL     OW89175   3.706   6.217  14.097
29093SOL    HW189176   3.682   6.287  14.157
29093SOL    HW289177   3.630   6.205  14.041
29094SOL     OW89178   5.775  11.482   8.606
29094SOL    HW189179   5.743  11.419   8.671
29094SOL    HW289180   5.734  11.565   8.632
29095SOL     OW89181   4.998  13.310   7.403
29095SOL    HW189182   5.037  13.390   7.439
29095SOL    HW289183   4.903  13.326   7.407
29096SOL     OW89184   5.864   0.854   3.033
29096SOL    HW189185   5.890   0.923   2.971
29096SOL    HW289186   5.913   0.875   3.113
29097SOL     OW89187   6.136  12.719   7.416
29097SOL    HW189188   6.093  12.645   7.373
29097SOL    HW289189   6.084  12.795   7.392
29098SOL     OW89190   6.523   8.501   4.613
29098SOL    HW189191   6.531   8.549   4.695
29098SOL    HW289192   6.444   8.447   4.624
29099SOL     OW89193   5.661  12.052  13.907
29099SOL    HW189194   5.575  12.091  13.923
29099SOL    HW289195   5.646  11.985  13.841
29100SOL     OW89196  13.395   0.470   7.796
29100SOL    HW189197  13.304   0.460   7.826
29100SOL    HW289198  13.407   0.565   7.789
29101SOL     OW89199   9.261   5.925   9.762
29101SOL    HW189200   9.256   5.832   9.787
29101SOL    HW289201   9.279   5.924   9.668
29102SOL     OW89202   2.672   1.015   8.721
29102SOL    HW189203   2.595   0.978   8.678
29102SOL    HW289204   2.645   1.029   8.812
29103SOL     OW89205   8.463   0.960   1.641
29103SOL    HW189206   8.472   0.882   1.587
29103SOL    HW289207   8.506   0.936   1.724
29104SOL     OW89208   1.179   7.520   4.790
29104SOL    HW189209   1.273   7.523   4.774
29104SOL    HW289210   1.147   7.607   4.764
29105SOL     OW89211   2.902   8.906  13.910
29105SOL    HW189212   2.971   8.852  13.949
29105SOL    HW289213   2.946   8.985  13.882
29106SOL     OW89214   7.654   1.656  14.376
29106SOL    HW189215   7.637   1.573  14.330
29106SOL    HW289216   7.599   1.720  14.331
29107SOL     OW89217  14.216   0.752   0.777
29107SOL    HW189218  14.223   0.815   0.705
29107SOL    HW289219  14.279   0.683   0.754
29108SOL     OW89220  14.308   5.973  12.648
29108SOL    HW189221  14.217   5.985  12.677
29108SOL    HW289222  14.318   6.034  12.575
29109SOL     OW89223   8.367  14.637   1.031
29109SOL    HW189224   8.443  14.661   1.085
29109SOL    HW289225   8.309  14.713   1.036
29110SOL     OW89226  10.983   8.905   2.541
29110SOL    HW189227  10.938   8.821   2.533
29110SOL    HW289228  10.966   8.933   2.631
29111SOL     OW89229  14.185   0.544   6.656
29111SOL    HW189230  14.129   0.474   6.690
29111SOL    HW289231  14.268   0.500   6.637
29112SOL     OW89232  11.437  10.804   9.388
29112SOL    HW189233  11.362  10.825   9.333
29112SOL    HW289234  11.513  10.834   9.339
29113SOL     OW89235  13.294   2.583   7.281
29113SOL    HW189236  13.228   2.643   7.316
29113SOL    HW289237  13.370   2.594   7.338
29114SOL     OW89238  11.947  10.913   8.132
29114SOL    HW189239  11.869  10.875   8.094
29114SOL    HW289240  12.014  10.844   8.125
29115SOL     OW89241   5.596   2.473  12.574
29115SOL    HW189242   5.571   2.450  12.663
29115SOL    HW289243   5.566   2.564  12.563
29116SOL     OW89244  10.953  10.256  13.182
29116SOL    HW189245  11.040  10.255  13.142
29116SOL    HW289246  10.909  10.179  13.146
29117SOL     OW89247  11.724  14.762   7.801
29117SOL    HW189248  11.758  14.763   7.890
29117SOL    HW289249  11.687  14.674   7.790
29118SOL     OW89250  10.909   4.264   4.973
29118SOL    HW189251  10.908   4.338   5.033
29118SOL    HW289252  10.931   4.302   4.888
29119SOL     OW89253  10.361   3.019  14.573
29119SOL    HW189254  10.305   3.015  14.651
29119SOL    HW289255  10.415   2.941  14.578
29120SOL     OW89256  11.597   3.461   3.151
29120SOL    HW189257  11.579   3.517   3.075
29120SOL    HW289258  11.631   3.521   3.217
29121SOL     OW89259   0.628  13.836   1.135
29121SOL    HW189260   0.723  13.839   1.127
29121SOL    HW289261   0.609  13.745   1.157
29122SOL     OW89262  12.349   5.985  13.959
29122SOL    HW189263  12.383   6.010  13.873
29122SOL    HW289264  12.296   5.907  13.941
29123SOL     OW89265   5.489   1.347  12.219
29123SOL    HW189266   5.571   1.299  12.226
29123SOL    HW289267   5.423   1.288  12.256
29124SOL     OW89268  10.871   6.848  13.891
29124SOL    HW189269  10.939   6.791  13.927
29124SOL    HW289270  10.840   6.898  13.967
29125SOL     OW89271   9.412   0.980   1.181
29125SOL    HW189272   9.455   0.939   1.107
29125SOL    HW289273   9.415   0.914   1.250
29126SOL     OW89274  14.409   4.417  11.001
29126SOL    HW189275  14.388   4.340  10.948
29126SOL    HW289276  14.382   4.491  10.947
29127SOL     OW89277   0.568   2.229   5.610
29127SOL    HW189278   0.614   2.154   5.648
29127SOL    HW289279   0.609   2.305   5.651
29128SOL     OW89280  13.831   3.170  10.843
29128SOL    HW189281  13.836   3.139  10.933
29128SOL    HW289282  13.835   3.091  10.790
29129SOL     OW89283   8.410  12.919   5.884
29129SOL    HW189284   8.369  12.994   5.927
29129SOL    HW289285   8.469  12.883   5.950
29130SOL     OW89286   0.340   9.089   1.406
29130SOL    HW189287   0.340   8.995   1.424
29130SOL    HW289288   0.401   9.100   1.333
29131SOL     OW89289   4.922   5.062   7.301
29131SOL    HW189290   5.014   5.086   7.293
29131SOL    HW289291   4.884   5.082   7.215
29132SOL     OW89292   4.663  11.133  14.116
29132SOL    HW189293   4.633  11.217  14.148
29132SOL    HW289294   4.591  11.073  14.134
29133SOL     OW89295   2.876  14.442   9.883
29133SOL    HW189296   2.868  14.359   9.932
29133SOL    HW289297   2.891  14.508   9.951
29134SOL     OW89298   2.570  14.615   7.062
29134SOL    HW189299   2.651  14.618   7.113
29134SOL    HW289300   2.558  14.705   7.032
29135SOL     OW89301  13.612   4.756   8.345
29135SOL    HW189302  13.570   4.683   8.391
29135SOL    HW289303  13.690   4.775   8.396
29136SOL     OW89304   0.630   2.476   4.223
29136SOL    HW189305   0.647   2.570   4.230
29136SOL    HW289306   0.639   2.456   4.130
29137SOL     OW89307   0.625   7.256   0.905
29137SOL    HW189308   0.536   7.288   0.888
29137SOL    HW289309   0.646   7.286   0.993
29138SOL     OW89310  10.405  13.980  12.790
29138SOL    HW189311  10.467  14.024  12.733
29138SOL    HW289312  10.407  14.031  12.871
29139SOL     OW89313   9.024   2.830  11.787
29139SOL    HW189314   9.000   2.857  11.875
29139SOL    HW289315   8.989   2.741  11.778
29140SOL     OW89316   7.437   7.318   8.794
29140SOL    HW189317   7.361   7.355   8.749
29140SOL    HW289318   7.436   7.225   8.770
29141SOL     OW89319  12.624  11.742   5.492
29141SOL    HW189320  12.539  11.770   5.458
29141SOL    HW289321  12.681  11.739   5.416
29142SOL     OW89322   7.394   6.358   0.002
29142SOL    HW189323   7.395   6.453  14.860
29142SOL    HW289324   7.396   6.324  14.781
29143SOL     OW89325  10.359   4.121  14.314
29143SOL    HW189326  10.268   4.113  14.343
29143SOL    HW289327  10.354   4.175  14.235
29144SOL     OW89328  11.409  14.054   8.718
29144SOL    HW189329  11.403  14.129   8.777
29144SOL    HW289330  11.322  14.049   8.677
29145SOL     OW89331   5.767   7.162   5.900
29145SOL    HW189332   5.767   7.069   5.923
29145SOL    HW289333   5.701   7.201   5.958
29146SOL     OW89334   1.269  11.329  11.394
29146SOL    HW189335   1.298  11.389  11.463
29146SOL    HW289336   1.174  11.331  11.399
29147SOL     OW89337   8.774   8.840   0.848
29147SOL    HW189338   8.686   8.874   0.841
29147SOL    HW289339   8.799   8.818   0.758
29148SOL     OW89340  14.117   7.148  13.895
29148SOL    HW189341  14.169   7.222  13.925
29148SOL    HW289342  14.168   7.110  13.824
29149SOL     OW89343   6.433   9.779  12.230
29149SOL    HW189344   6.514   9.814  12.192
29149SOL    HW289345   6.450   9.685  12.239
29150SOL     OW89346   0.828  11.044   2.485
29150SOL    HW189347   0.826  11.024   2.578
29150SOL    HW289348   0.919  11.030   2.459
29151SOL     OW89349   9.774   1.364  10.862
29151SOL    HW189350   9.684   1.334  10.874
29151SOL    HW289351   9.766   1.447  10.815
29152SOL     OW89352   5.541   3.167   6.378
29152SOL    HW189353   5.459   3.189   6.334
29152SOL    HW289354   5.603   3.152   6.307
29153SOL     OW89355  12.289  10.405  14.740
29153SOL    HW189356  12.222  10.409  14.808
29153SOL    HW289357  12.351  10.339  14.772
29154SOL     OW89358   9.663   0.637  14.848
29154SOL    HW189359   9.695   0.697  14.780
29154SOL    HW289360   9.715   0.558  14.837
29155SOL     OW89361   0.164   5.584   3.683
29155SOL    HW189362   0.229   5.654   3.678
29155SOL    HW289363   0.201   5.513   3.630
29156SOL     OW89364  12.824   6.193   5.881
29156SOL    HW189365  12.806   6.099   5.872
29156SOL    HW289366  12.851   6.220   5.793
29157SOL     OW89367   7.442   5.112   8.555
29157SOL    HW189368   7.355   5.147   8.572
29157SOL    HW289369   7.428   5.042   8.492
29158SOL     OW89370   1.343  13.184   0.343
29158SOL    HW189371   1.322  13.262   0.395
29158SOL    HW289372   1.433  13.198   0.313
29159SOL     OW89373   2.889  12.392   8.771
29159SOL    HW189374   2.949  12.404   8.697
29159SOL    HW289375   2.877  12.480   8.806
29160SOL     OW89376   2.042  10.167   7.717
29160SOL    HW189377   1.980  10.111   7.764
29160SOL    HW289378   1.990  10.205   7.646
29161SOL     OW89379   6.854   5.820   8.589
29161SOL    HW189380   6.888   5.863   8.668
29161SOL    HW289381   6.832   5.892   8.530
29162SOL     OW89382   9.662   1.966   6.326
29162SOL    HW189383   9.675   2.027   6.399
29162SOL    HW289384   9.749   1.930   6.309
29163SOL     OW89385  13.806   2.105   2.045
29163SOL    HW189386  13.847   2.159   2.112
29163SOL    HW289387  13.826   2.015   2.072
29164SOL     OW89388   0.454  11.263   9.196
29164SOL    HW189389   0.370  11.229   9.166
29164SOL    HW289390   0.478  11.205   9.268
29165SOL     OW89391   3.945   0.783  12.227
29165SOL    HW189392   3.895   0.812  12.150
29165SOL    HW289393   3.993   0.862  12.254
29166SOL     OW89394   8.646   2.490  14.250
29166SOL    HW189395   8.651   2.553  14.178
29166SOL    HW289396   8.553   2.466  14.255
29167SOL     OW89397   8.515   7.907   4.023
29167SOL    HW189398   8.517   7.993   3.980
29167SOL    HW289399   8.460   7.919   4.099
29168SOL     OW89400   4.685   7.324   4.681
29168SOL    HW189401   4.637   7.305   4.601
29168SOL    HW289402   4.774   7.293   4.664
29169SOL     OW89403   7.103   6.545   8.177
29169SOL    HW189404   7.100   6.450   8.161
29169SOL    HW289405   7.017   6.565   8.214
29170SOL     OW89406  13.284   0.856  12.685
29170SOL    HW189407  13.288   0.873  12.779
29170SOL    HW289408  13.310   0.938  12.644
29171SOL     OW89409   9.267   1.740  13.044
29171SOL    HW189410   9.180   1.731  13.084
29171SOL    HW289411   9.308   1.654  13.058
29172SOL     OW89412   5.952   1.068   6.228
29172SOL    HW189413   6.008   1.133   6.185
29172SOL    HW289414   5.985   0.984   6.197
29173SOL     OW89415  12.611  13.662   3.745
29173SOL    HW189416  12.568  13.734   3.791
29173SOL    HW289417  12.608  13.688   3.653
29174SOL     OW89418   2.555   6.429   5.597
29174SOL    HW189419   2.539   6.523   5.594
29174SOL    HW289420   2.468   6.390   5.605
29175SOL     OW89421   9.653   7.225   9.463
29175SOL    HW189422   9.593   7.290   9.426
29175SOL    HW289423   9.655   7.155   9.398
29176SOL     OW89424   2.442  13.491  13.042
29176SOL    HW189425   2.521  13.438  13.041
29176SOL    HW289426   2.380  13.440  13.094
29177SOL     OW89427   5.801   2.820   1.178
29177SOL    HW189428   5.783   2.825   1.272
29177SOL    HW289429   5.874   2.759   1.172
29178SOL     OW89430  10.342   1.192  12.693
29178SOL    HW189431  10.348   1.204  12.788
29178SOL    HW289432  10.273   1.254  12.666
29179SOL     OW89433  13.194   6.250  14.842
29179SOL    HW189434  13.282   6.268  14.806
29179SOL    HW289435  13.200   6.162   0.009
29180SOL     OW89436  10.740   0.255   7.649
29180SOL    HW189437  10.688   0.221   7.723
29180SOL    HW289438  10.775   0.338   7.681
29181SOL     OW89439   8.346   9.645   9.601
29181SOL    HW189440   8.376   9.556   9.622
29181SOL    HW289441   8.251   9.640   9.605
29182SOL     OW89442   9.018   7.446  10.769
29182SOL    HW189443   9.069   7.387  10.826
29182SOL    HW289444   8.928   7.437  10.801
29183SOL     OW89445   4.682   4.609  11.874
29183SOL    HW189446   4.750   4.545  11.855
29183SOL    HW289447   4.654   4.641  11.788
29184SOL     OW89448   2.489   2.290  13.109
29184SOL    HW189449   2.544   2.366  13.130
29184SOL    HW289450   2.474   2.247  13.193
29185SOL     OW89451   1.609  10.720  13.351
29185SOL    HW189452   1.553  10.790  13.318
29185SOL    HW289453   1.606  10.653  13.284
29186SOL     OW89454   1.275  13.180   2.884
29186SOL    HW189455   1.202  13.176   2.946
29186SOL    HW289456   1.335  13.112   2.913
29187SOL     OW89457  14.665  12.733   0.638
29187SOL    HW189458  14.757  12.710   0.648
29187SOL    HW289459  14.618  12.651   0.654
29188SOL     OW89460  11.662  14.756  12.161
29188SOL    HW189461  11.590  14.799  12.206
29188SOL    HW289462  11.690  14.687  12.221
29189SOL     OW89463  10.749   8.671   5.408
29189SOL    HW189464  10.707   8.757   5.411
29189SOL    HW289465  10.712   8.624   5.483
29190SOL     OW89466   8.248   4.625  10.651
29190SOL    HW189467   8.242   4.540  10.695
29190SOL    HW289468   8.197   4.613  10.570
29191SOL     OW89469   6.080  11.828   1.410
29191SOL    HW189470   6.055  11.874   1.489
29191SOL    HW289471   6.028  11.869   1.341
29192SOL     OW89472   8.423   6.495   6.581
29192SOL    HW189473   8.489   6.556   6.546
29192SOL    HW289474   8.343   6.517   6.533
29193SOL     OW89475  13.990   0.319  11.956
29193SOL    HW189476  13.991   0.374  12.035
29193SOL    HW289477  14.033   0.238  11.983
29194SOL     OW89478   6.543  14.242   3.115
29194SOL    HW189479   6.551  14.328   3.074
29194SOL    HW289480   6.457  14.244   3.157
29195SOL     OW89481   5.927   5.534   3.514
29195SOL    HW189482   5.966   5.490   3.439
29195SOL    HW289483   6.001   5.573   3.560
29196SOL     OW89484   3.657  13.166  14.652
29196SOL    HW189485   3.744  13.184  14.617
29196SOL    HW289486   3.604  13.240  14.623
29197SOL     OW89487  13.069   9.721   7.500
29197SOL    HW189488  13.163   9.702   7.503
29197SOL    HW289489  13.063   9.810   7.464
29198SOL     OW89490   2.824   4.543  13.928
29198SOL    HW189491   2.737   4.542  13.888
29198SOL    HW289492   2.853   4.634  13.919
29199SOL     OW89493   2.257  12.892   5.007
29199SOL    HW189494   2.200  12.960   5.043
29199SOL    HW289495   2.265  12.914   4.914
29200SOL     OW89496  10.477  13.784   5.514
29200SOL    HW189497  10.453  13.726   5.442
29200SOL    HW289498  10.463  13.872   5.480
29201SOL     OW89499  11.511   7.631   6.607
29201SOL    HW189500  11.494   7.595   6.694
29201SOL    HW289501  11.436   7.604   6.555
29202SOL     OW89502   5.029   7.729   3.094
29202SOL    HW189503   5.112   7.682   3.102
29202SOL    HW289504   5.014   7.766   3.181
29203SOL     OW89505  14.839  12.500   5.244
29203SOL    HW189506  14.798  12.581   5.215
29203SOL    HW289507   0.000  12.458   5.163
29204SOL     OW89508  11.228   4.079  14.003
29204SOL    HW189509  11.299   4.097  13.941
29204SOL    HW289510  11.242   4.139  14.075
29205SOL     OW89511   8.406   0.055   3.021
29205SOL    HW189512   8.339  14.859   3.043
29205SOL    HW289513   8.424   0.038   2.928
29206SOL     OW89514   6.971   5.584  11.606
29206SOL    HW189515   7.043   5.545  11.655
29206SOL    HW289516   6.983   5.552  11.516
29207SOL     OW89517   5.251  10.255  10.155
29207SOL    HW189518   5.191  10.319  10.116
29207SOL    HW289519   5.197  10.207  10.217
29208SOL     OW89520   2.299  11.606  11.260
29208SOL    HW189521   2.256  11.668  11.201
29208SOL    HW289522   2.367  11.566  11.207
29209SOL     OW89523   8.413  11.238  10.853
29209SOL    HW189524   8.401  11.243  10.948
29209SOL    HW289525   8.329  11.206  10.820
29210SOL     OW89526   6.749   3.329   9.631
29210SOL    HW189527   6.814   3.363   9.569
29210SOL    HW289528   6.760   3.234   9.629
29211SOL     OW89529   6.508   0.099   9.076
29211SOL    HW189530   6.429   0.144   9.104
29211SOL    HW289531   6.546   0.065   9.157
29212SOL     OW89532   0.883   2.398  11.727
29212SOL    HW189533   0.792   2.410  11.754
29212SOL    HW289534   0.925   2.483  11.745
29213SOL     OW89535   8.264   6.380  14.292
29213SOL    HW189536   8.336   6.425  14.247
29213SOL    HW289537   8.300   6.295  14.316
29214SOL     OW89538   9.532   5.019   3.626
29214SOL    HW189539   9.526   5.113   3.637
29214SOL    HW289540   9.493   5.003   3.539
29215SOL     OW89541   4.658   4.158  11.827
29215SOL    HW189542   4.676   4.218  11.899
29215SOL    HW289543   4.566   4.174  11.804
29216SOL     OW89544   0.980   0.396   1.580
29216SOL    HW189545   0.889   0.411   1.607
29216SOL    HW289546   0.973   0.375   1.487
29217SOL     OW89547   1.186   6.310   5.088
29217SOL    HW189548   1.268   6.357   5.103
29217SOL    HW289549   1.208   6.246   5.020
29218SOL     OW89550   2.733   0.354  11.794
29218SOL    HW189551   2.801   0.313  11.741
29218SOL    HW289552   2.687   0.281  11.836
29219SOL     OW89553   4.543  13.002   6.808
29219SOL    HW189554   4.472  12.957   6.761
29219SOL    HW289555   4.531  12.978   6.900
29220SOL     OW89556   6.153   4.119  12.306
29220SOL    HW189557   6.081   4.063  12.276
29220SOL    HW289558   6.159   4.188  12.239
29221SOL     OW89559   4.037   1.162   4.318
29221SOL    HW189560   4.089   1.176   4.239
29221SOL    HW289561   4.102   1.151   4.388
29222SOL     OW89562  12.113   9.185   2.328
29222SOL    HW189563  12.028   9.151   2.303
29222SOL    HW289564  12.169   9.171   2.252
29223SOL     OW89565   4.780  14.787   1.580
29223SOL    HW189566   4.848  14.756   1.640
29223SOL    HW289567   4.765  14.714   1.520
29224SOL     OW89568   4.804   8.583   8.025
29224SOL    HW189569   4.780   8.673   8.003
29224SOL    HW289570   4.874   8.591   8.089
29225SOL     OW89571   3.138   8.804  14.058
29225SOL    HW189572   3.201   8.872  14.081
29225SOL    HW289573   3.105   8.771  14.141
29226SOL     OW89574   6.460   2.698   3.649
29226SOL    HW189575   6.373   2.734   3.665
29226SOL    HW289576   6.468   2.696   3.553
29227SOL     OW89577  12.049  14.411  14.659
29227SOL    HW189578  12.042  14.345  14.590
29227SOL    HW289579  11.980  14.474  14.639
29228SOL     OW89580   0.142   9.788  14.102
29228SOL    HW189581   0.199   9.847  14.151
29228SOL    HW289582   0.159   9.702  14.140
29229SOL     OW89583   3.607   7.894   1.000
29229SOL    HW189584   3.598   7.903   1.095
29229SOL    HW289585   3.640   7.980   0.971
29230SOL     OW89586  12.959  11.994  13.429
29230SOL    HW189587  13.013  12.072  13.414
29230SOL    HW289588  13.011  11.939  13.488
29231SOL     OW89589   0.097  12.300   5.401
29231SOL    HW189590   0.120  12.218   5.358
29231SOL    HW289591   0.049  12.349   5.335
29232SOL     OW89592  13.793   8.488   4.997
29232SOL    HW189593  13.753   8.534   5.072
29232SOL    HW289594  13.823   8.559   4.940
29233SOL     OW89595   5.517  13.939  12.560
29233SOL    HW189596   5.461  13.881  12.611
29233SOL    HW289597   5.565  13.880  12.501
29234SOL     OW89598  12.055   8.012   9.886
29234SOL    HW189599  12.009   8.089   9.853
29234SOL    HW289600  12.126   8.047   9.939
29235SOL     OW89601   6.273  12.332  12.304
29235SOL    HW189602   6.312  12.416  12.280
29235SOL    HW289603   6.294  12.274  12.231
29236SOL     OW89604  13.393   8.570   2.852
29236SOL    HW189605  13.390   8.482   2.816
29236SOL    HW289606  13.370   8.559   2.945
29237SOL     OW89607   5.026   4.860   4.240
29237SOL    HW189608   4.969   4.864   4.316
29237SOL    HW289609   4.985   4.918   4.176
29238SOL     OW89610   2.528   8.610  13.909
29238SOL    HW189611   2.514   8.589  13.817
29238SOL    HW289612   2.479   8.692  13.923
29239SOL     OW89613   4.747  12.280  14.230
29239SOL    HW189614   4.681  12.288  14.299
29239SOL    HW289615   4.761  12.369  14.200
29240SOL     OW89616   1.740  14.863   1.727
29240SOL    HW189617   1.736  14.798   1.797
29240SOL    HW289618   1.654   0.037   1.728
29241SOL     OW89619   3.759   3.348   7.981
29241SOL    HW189620   3.666   3.340   7.957
29241SOL    HW289621   3.772   3.442   7.994
29242SOL     OW89622   1.396  11.894  13.970
29242SOL    HW189623   1.422  11.851  13.889
29242SOL    HW289624   1.479  11.915  14.013
29243SOL     OW89625   7.489   1.824   6.574
29243SOL    HW189626   7.550   1.776   6.630
29243SOL    HW289627   7.465   1.901   6.626
29244SOL     OW89628   6.194   3.365   7.011
29244SOL    HW189629   6.228   3.326   6.930
29244SOL    HW289630   6.262   3.347   7.076
29245SOL     OW89631   9.143  11.014   8.901
29245SOL    HW189632   9.083  11.053   8.965
29245SOL    HW289633   9.223  10.998   8.950
29246SOL     OW89634   1.624   5.421   0.451
29246SOL    HW189635   1.716   5.415   0.427
29246SOL    HW289636   1.581   5.461   0.375
29247SOL     OW89637   5.404  11.515   0.895
29247SOL    HW189638   5.429  11.557   0.813
29247SOL    HW289639   5.311  11.496   0.885
29248SOL     OW89640  13.880   8.039  10.138
29248SOL    HW189641  13.864   8.127  10.171
29248SOL    HW289642  13.951   8.005  10.194
29249SOL     OW89643  10.577  14.023   8.003
29249SOL    HW189644  10.525  14.002   7.925
29249SOL    HW289645  10.634  13.947   8.015
29250SOL     OW89646   1.285   2.084   0.756
29250SOL    HW189647   1.303   2.138   0.833
29250SOL    HW289648   1.360   2.098   0.698
29251SOL     OW89649   0.396   0.385   9.939
29251SOL    HW189650   0.332   0.315   9.950
29251SOL    HW289651   0.464   0.346   9.883
29252SOL     OW89652   6.945   6.301   8.101
29252SOL    HW189653   6.926   6.335   8.013
29252SOL    HW289654   6.881   6.345   8.158
29253SOL     OW89655   8.732  14.115   4.455
29253SOL    HW189656   8.783  14.185   4.415
29253SOL    HW289657   8.644  14.125   4.418
29254SOL     OW89658   9.694   3.155   4.749
29254SOL    HW189659   9.715   3.186   4.661
29254SOL    HW289660   9.625   3.215   4.778
29255SOL     OW89661   8.842   4.074   8.965
29255SOL    HW189662   8.891   3.994   8.985
29255SOL    HW289663   8.753   4.056   8.996
29256SOL     OW89664   8.951   3.928   0.810
29256SOL    HW189665   9.008   3.967   0.744
29256SOL    HW289666   9.009   3.911   0.884
29257SOL     OW89667   3.472   2.951   6.486
29257SOL    HW189668   3.466   2.907   6.571
29257SOL    HW289669   3.385   2.943   6.448
29258SOL     OW89670  13.921  12.732   8.270
29258SOL    HW189671  13.940  12.639   8.253
29258SOL    HW289672  13.832  12.744   8.236
29259SOL     OW89673   3.283   1.453   8.424
29259SOL    HW189674   3.279   1.409   8.339
29259SOL    HW289675   3.239   1.537   8.410
29260SOL     OW89676   5.284   7.372  12.406
29260SOL    HW189677   5.267   7.401  12.496
29260SOL    HW289678   5.216   7.414  12.354
29261SOL     OW89679  13.914  10.034   1.611
29261SOL    HW189680  13.844  10.083   1.568
29261SOL    HW289681  13.956   9.986   1.540
29262SOL     OW89682  14.735  10.346  10.856
29262SOL    HW189683  14.803  10.294  10.898
29262SOL    HW289684  14.674  10.367  10.926
29263SOL     OW89685   6.549  14.623  11.972
29263SOL    HW189686   6.566  14.675  11.894
29263SOL    HW289687   6.532  14.535  11.938
29264SOL     OW89688  14.321   2.540   4.950
29264SOL    HW189689  14.346   2.555   5.041
29264SOL    HW289690  14.394   2.490   4.913
29265SOL     OW89691   2.977  13.288   1.377
29265SOL    HW189692   3.070  13.294   1.397
29265SOL    HW289693   2.972  13.306   1.283
29266SOL     OW89694  12.593   1.329  12.481
29266SOL    HW189695  12.560   1.341  12.570
29266SOL    HW289696  12.527   1.369  12.425
29267SOL     OW89697   9.327   2.205  14.595
29267SOL    HW189698   9.423   2.212  14.591
29267SOL    HW289699   9.306   2.133  14.535
29268SOL     OW89700  14.829   1.300   6.854
29268SOL    HW189701  14.824   1.321   6.948
29268SOL    HW289702   0.004   1.376   6.815
29269SOL     OW89703   7.643   8.447  11.406
29269SOL    HW189704   7.702   8.377  11.434
29269SOL    HW289705   7.699   8.507  11.357
29270SOL     OW89706   1.877   5.257   7.234
29270SOL    HW189707   1.894   5.244   7.141
29270SOL    HW289708   1.784   5.235   7.244
29271SOL     OW89709   8.173   6.616   1.753
29271SOL    HW189710   8.097   6.566   1.782
29271SOL    HW289711   8.158   6.705   1.785
29272SOL     OW89712  11.018  10.638   4.860
29272SOL    HW189713  11.028  10.689   4.779
29272SOL    HW289714  11.107  10.629   4.893
29273SOL     OW89715  13.297  12.603  10.330
29273SOL    HW189716  13.382  12.607  10.375
29273SOL    HW289717  13.243  12.546  10.385
29274SOL     OW89718   9.861   1.682   8.725
29274SOL    HW189719   9.776   1.638   8.718
29274SOL    HW289720   9.854   1.736   8.804
29275SOL     OW89721   5.178  11.641   6.238
29275SOL    HW189722   5.140  11.726   6.262
29275SOL    HW289723   5.122  11.609   6.167
29276SOL     OW89724  11.105   2.727   2.327
29276SOL    HW189725  11.160   2.799   2.297
29276SOL    HW289726  11.064   2.759   2.408
29277SOL     OW89727   2.125  11.123   9.556
29277SOL    HW189728   2.033  11.128   9.584
29277SOL    HW289729   2.145  11.029   9.554
29278SOL     OW89730   1.084  13.848  14.018
29278SOL    HW189731   1.161  13.811  13.974
29278SOL    HW289732   1.116  13.875  14.104
29279SOL     OW89733   0.263  12.233   7.295
29279SOL    HW189734   0.318  12.299   7.337
29279SOL    HW289735   0.305  12.150   7.317
29280SOL     OW89736   1.028   9.589   1.608
29280SOL    HW189737   1.059   9.499   1.622
29280SOL    HW289738   0.933   9.583   1.619
29281SOL     OW89739  13.838   7.242  11.174
29281SOL    HW189740  13.820   7.148  11.178
29281SOL    HW289741  13.853   7.267  11.265
29282SOL     OW89742  11.538  11.113   0.424
29282SOL    HW189743  11.525  11.045   0.489
29282SOL    HW289744  11.613  11.083   0.373
29283SOL     OW89745  12.266   1.809   7.533
29283SOL    HW189746  12.236   1.725   7.566
29283SOL    HW289747  12.272   1.865   7.611
29284SOL     OW89748   7.618  10.728  10.965
29284SOL    HW189749   7.651  10.705  10.878
29284SOL    HW289750   7.543  10.670  10.978
29285SOL     OW89751   9.938  12.303   8.440
29285SOL    HW189752   9.975  12.391   8.432
29285SOL    HW289753   9.852  12.310   8.398
29286SOL     OW89754  10.739   1.938  11.925
29286SOL    HW189755  10.728   2.016  11.870
29286SOL    HW289756  10.726   1.865  11.865
29287SOL     OW89757  10.536   8.881  12.844
29287SOL    HW189758  10.496   8.857  12.760
29287SOL    HW289759  10.474   8.848  12.910
29288SOL     OW89760   4.039  13.321  10.605
29288SOL    HW189761   3.987  13.344  10.527
29288SOL    HW289762   3.983  13.343  10.679
29289SOL     OW89763  14.290   5.912  12.927
29289SOL    HW189764  14.303   5.923  12.832
29289SOL    HW289765  14.265   5.820  12.937
29290SOL     OW89766   4.801   2.639   9.079
29290SOL    HW189767   4.845   2.637   8.994
29290SOL    HW289768   4.800   2.731   9.104
29291SOL     OW89769   2.954   9.327  13.486
29291SOL    HW189770   2.882   9.264  13.487
29291SOL    HW289771   3.004   9.308  13.565
29292SOL     OW89772   1.669  12.218   9.962
29292SOL    HW189773   1.646  12.308   9.982
29292SOL    HW289774   1.652  12.210   9.868
29293SOL     OW89775   3.254  12.105   6.753
29293SOL    HW189776   3.217  12.055   6.826
29293SOL    HW289777   3.268  12.041   6.684
29294SOL     OW89778  10.170   0.397  14.082
29294SOL    HW189779  10.238   0.464  14.088
29294SOL    HW289780  10.091   0.440  14.115
29295SOL     OW89781  14.247   3.921   6.307
29295SOL    HW189782  14.169   3.957   6.265
29295SOL    HW289783  14.273   3.986   6.371
29296SOL     OW89784  11.531   3.363  11.617
29296SOL    HW189785  11.488   3.435  11.571
29296SOL    HW289786  11.594   3.406  11.676
29297SOL     OW89787  13.552   3.191   7.047
29297SOL    HW189788  13.472   3.222   7.004
29297SOL    HW289789  13.574   3.110   7.001
29298SOL     OW89790   2.255   6.143   6.092
29298SOL    HW189791   2.165   6.173   6.087
29298SOL    HW289792   2.281   6.159   6.183
29299SOL     OW89793  13.915  10.593  14.600
29299SOL    HW189794  13.940  10.501  14.604
29299SOL    HW289795  13.951  10.624  14.517
29300SOL     OW89796   7.086   0.000   4.924
29300SOL    HW189797   7.037   0.003   4.841
29300SOL    HW289798   7.086   0.091   4.954
29301SOL     OW89799  10.510   2.793  14.619
29301SOL    HW189800  10.539   2.847  14.692
29301SOL    HW289801  10.590   2.747  14.590
29302SOL     OW89802   3.076  13.036   6.449
29302SOL    HW189803   3.000  12.980   6.435
29302SOL    HW289804   3.133  13.018   6.374
29303SOL     OW89805   7.220   7.102   0.960
29303SOL    HW189806   7.132   7.067   0.974
29303SOL    HW289807   7.205   7.188   0.920
29304SOL     OW89808  14.688  11.924   0.670
29304SOL    HW189809  14.743  11.871   0.727
29304SOL    HW289810  14.740  12.004   0.655
29305SOL     OW89811   7.947  11.135   7.359
29305SOL    HW189812   7.989  11.190   7.425
29305SOL    HW289813   7.856  11.126   7.388
29306SOL     OW89814   6.492   0.905   1.769
29306SOL    HW189815   6.400   0.894   1.745
29306SOL    HW289816   6.541   0.888   1.688
29307SOL     OW89817   2.294  12.503   1.538
29307SOL    HW189818   2.301  12.561   1.463
29307SOL    HW289819   2.237  12.432   1.508
29308SOL     OW89820   8.366   6.510   3.653
29308SOL    HW189821   8.385   6.418   3.636
29308SOL    HW289822   8.404   6.528   3.739
29309SOL     OW89823   5.514  11.187  11.902
29309SOL    HW189824   5.486  11.250  11.969
29309SOL    HW289825   5.571  11.126  11.948
29310SOL     OW89826  10.607   5.036   7.832
29310SOL    HW189827  10.572   5.109   7.781
29310SOL    HW289828  10.590   5.060   7.923
29311SOL     OW89829   5.095   1.672   0.370
29311SOL    HW189830   5.045   1.610   0.423
29311SOL    HW289831   5.029   1.729   0.330
29312SOL     OW89832  13.030   6.293   9.697
29312SOL    HW189833  13.090   6.344   9.642
29312SOL    HW289834  13.085   6.259   9.767
29313SOL     OW89835  13.045   8.541  11.218
29313SOL    HW189836  13.078   8.624  11.184
29313SOL    HW289837  12.983   8.565  11.286
29314SOL     OW89838  13.150   1.629  14.066
29314SOL    HW189839  13.178   1.721  14.071
29314SOL    HW289840  13.078   1.630  14.003
29315SOL     OW89841   2.084   6.069   5.410
29315SOL    HW189842   2.122   5.982   5.393
29315SOL    HW289843   2.046   6.062   5.498
29316SOL     OW89844   8.248   4.732  13.067
29316SOL    HW189845   8.334   4.700  13.094
29316SOL    HW289846   8.242   4.820  13.104
29317SOL     OW89847   6.352   2.117   9.693
29317SOL    HW189848   6.379   2.198   9.650
29317SOL    HW289849   6.326   2.144   9.781
29318SOL     OW89850   5.332  11.829  10.428
29318SOL    HW189851   5.315  11.748  10.477
29318SOL    HW289852   5.356  11.893  10.495
29319SOL     OW89853   0.568  13.745  10.494
29319SOL    HW189854   0.642  13.776  10.546
29319SOL    HW289855   0.582  13.651  10.487
29320SOL     OW89856  10.023  12.782  13.379
29320SOL    HW189857   9.987  12.696  13.398
29320SOL    HW289858   9.966  12.843  13.424
29321SOL     OW89859  10.591  14.006   4.135
29321SOL    HW189860  10.665  13.946   4.121
29321SOL    HW289861  10.604  14.040   4.223
29322SOL     OW89862   6.708   9.018  12.279
29322SOL    HW189863   6.661   8.984  12.203
29322SOL    HW289864   6.795   8.978  12.272
29323SOL     OW89865  14.046  12.169   7.033
29323SOL    HW189866  13.978  12.113   7.070
29323SOL    HW289867  14.035  12.160   6.938
29324SOL     OW89868   8.041   4.649  14.789
29324SOL    HW189869   8.038   4.553  14.790
29324SOL    HW289870   8.031   4.674   0.012
29325SOL     OW89871   6.970   0.625   0.243
29325SOL    HW189872   6.961   0.690   0.313
29325SOL    HW289873   6.891   0.634   0.190
29326SOL     OW89874  10.199   3.193   4.674
29326SOL    HW189875  10.175   3.146   4.754
29326SOL    HW289876  10.154   3.145   4.604
29327SOL     OW89877   4.911   0.281   0.717
29327SOL    HW189878   4.826   0.319   0.741
29327SOL    HW289879   4.964   0.356   0.691
29328SOL     OW89880   0.531   6.603   5.628
29328SOL    HW189881   0.606   6.661   5.615
29328SOL    HW289882   0.455   6.656   5.604
29329SOL     OW89883   2.756   0.450  10.034
29329SOL    HW189884   2.826   0.414   9.980
29329SOL    HW289885   2.745   0.386  10.104
29330SOL     OW89886   0.755   6.536  13.875
29330SOL    HW189887   0.684   6.471  13.872
29330SOL    HW289888   0.835   6.484  13.872
29331SOL     OW89889   9.316   5.773   7.546
29331SOL    HW189890   9.331   5.688   7.506
29331SOL    HW289891   9.223   5.772   7.571
29332SOL     OW89892   0.094   3.347  13.062
29332SOL    HW189893   0.085   3.388  13.149
29332SOL    HW289894   0.007   3.311  13.044
29333SOL     OW89895   8.904   2.740   5.385
29333SOL    HW189896   8.912   2.645   5.381
29333SOL    HW289897   8.993   2.771   5.402
29334SOL     OW89898   9.767   4.183   5.764
29334SOL    HW189899   9.758   4.212   5.673
29334SOL    HW289900   9.850   4.220   5.793
29335SOL     OW89901  11.487  14.719   2.799
29335SOL    HW189902  11.533  14.768   2.732
29335SOL    HW289903  11.555  14.694   2.862
29336SOL     OW89904  14.106   5.829   7.146
29336SOL    HW189905  14.104   5.893   7.075
29336SOL    HW289906  14.166   5.761   7.116
29337SOL     OW89907   3.815  14.748  13.353
29337SOL    HW189908   3.889  14.763  13.411
29337SOL    HW289909   3.756  14.691  13.403
29338SOL     OW89910   8.102   4.401   9.953
29338SOL    HW189911   8.026   4.360   9.912
29338SOL    HW289912   8.177   4.354   9.917
29339SOL     OW89913   0.250   0.074   2.430
29339SOL    HW189914   0.319   0.111   2.485
29339SOL    HW289915   0.186   0.038   2.492
29340SOL     OW89916   5.611   7.949   1.021
29340SOL    HW189917   5.690   7.997   1.001
29340SOL    HW289918   5.547   7.979   0.957
29341SOL     OW89919   6.870  13.995   3.285
29341SOL    HW189920   6.963  13.979   3.269
29341SOL    HW289921   6.862  14.090   3.292
29342SOL     OW89922   9.810   3.816  11.003
29342SOL    HW189923   9.744   3.770  10.951
29342SOL    HW289924   9.817   3.766  11.084
29343SOL     OW89925   1.635   1.836   4.853
29343SOL    HW189926   1.621   1.778   4.779
29343SOL    HW289927   1.548   1.874   4.871
29344SOL     OW89928   4.943   0.490  12.861
29344SOL    HW189929   4.982   0.540  12.789
29344SOL    HW289930   4.956   0.398  12.836
29345SOL     OW89931   5.855  11.661   9.621
29345SOL    HW189932   5.796  11.689   9.691
29345SOL    HW289933   5.906  11.590   9.659
29346SOL     OW89934   1.800  10.526  14.435
29346SOL    HW189935   1.826  10.435  14.425
29346SOL    HW289936   1.706  10.526  14.416
29347SOL     OW89937   5.339   1.145  12.324
29347SOL    HW189938   5.252   1.173  12.354
29347SOL    HW289939   5.321   1.077  12.259
29348SOL     OW89940  10.197   4.177   9.706
29348SOL    HW189941  10.121   4.181   9.649
29348SOL    HW289942  10.183   4.246   9.770
29349SOL     OW89943   8.825   6.907   8.423
29349SOL    HW189944   8.791   6.828   8.464
29349SOL    HW289945   8.844   6.882   8.333
29350SOL     OW89946  11.084   9.302  10.758
29350SOL    HW189947  11.140   9.277  10.831
29350SOL    HW289948  11.108   9.242  10.687
29351SOL     OW89949   5.449   9.489   1.639
29351SOL    HW189950   5.471   9.440   1.719
29351SOL    HW289951   5.441   9.580   1.668
29352SOL     OW89952   0.716   7.862   4.742
29352SOL    HW189953   0.810   7.865   4.760
29352SOL    HW289954   0.685   7.783   4.788
29353SOL     OW89955   9.122  10.514   7.223
29353SOL    HW189956   9.116  10.467   7.140
29353SOL    HW289957   9.090  10.453   7.288
29354SOL     OW89958   6.866  12.465   2.857
29354SOL    HW189959   6.857  12.420   2.773
29354SOL    HW289960   6.914  12.404   2.913
29355SOL     OW89961   8.236   1.938   9.267
29355SOL    HW189962   8.304   1.887   9.310
29355SOL    HW289963   8.284   1.999   9.211
29356SOL     OW89964   0.232   5.991   8.007
29356SOL    HW189965   0.300   5.958   8.066
29356SOL    HW289966   0.250   6.085   8.000
29357SOL     OW89967  10.136  11.332  11.321
29357SOL    HW189968  10.059  11.352  11.374
29357SOL    HW289969  10.210  11.338  11.382
29358SOL     OW89970  12.994  13.938  13.029
29358SOL    HW189971  13.012  13.961  13.120
29358SOL    HW289972  12.989  13.842  13.029
29359SOL     OW89973  10.221   1.324   6.790
29359SOL    HW189974  10.195   1.394   6.730
29359SOL    HW289975  10.153   1.258   6.782
29360SOL     OW89976  11.290   2.890   2.239
29360SOL    HW189977  11.301   2.883   2.144
29360SOL    HW289978  11.371   2.932   2.269
29361SOL     OW89979   4.868   2.964   8.343
29361SOL    HW189980   4.926   2.977   8.417
29361SOL    HW289981   4.922   2.985   8.266
29362SOL     OW89982  13.446   5.596   0.816
29362SOL    HW189983  13.450   5.508   0.853
29362SOL    HW289984  13.522   5.601   0.758
29363SOL     OW89985   2.014  10.365  11.533
29363SOL    HW189986   2.020  10.424  11.457
29363SOL    HW289987   1.986  10.281  11.495
29364SOL     OW89988   0.063   7.303  10.110
29364SOL    HW189989  14.865   7.345  10.055
29364SOL    HW289990   0.052   7.345  10.196
29365SOL     OW89991  14.268   3.039   9.554
29365SOL    HW189992  14.265   2.949   9.586
29365SOL    HW289993  14.361   3.057   9.539
29366SOL     OW89994  12.371   7.021   1.584
29366SOL    HW189995  12.423   7.095   1.617
29366SOL    HW289996  12.337   6.978   1.662
29367SOL     OW89997   6.741  14.650  13.604
29367SOL    HW189998   6.787  14.572  13.635
29367SOL    HW289999   6.703  14.625  13.520
29368SOL     OW90000   8.866   0.210   6.420
29368SOL    HW190001   8.853   0.116   6.412
29368SOL    HW290002   8.879   0.225   6.513
29369SOL     OW90003   8.680   4.929  11.955
29369SOL    HW190004   8.745   4.870  11.919
29369SOL    HW290005   8.597   4.901  11.917
29370SOL     OW90006   5.834   3.450   0.382
29370SOL    HW190007   5.895   3.517   0.412
29370SOL    HW290008   5.888   3.372   0.372
29371SOL     OW90009   5.874   6.285   1.947
29371SOL    HW190010   5.789   6.262   1.909
29371SOL    HW290011   5.853   6.342   2.021
29372SOL     OW90012   2.977  14.117   3.814
29372SOL    HW190013   2.956  14.036   3.768
29372SOL    HW290014   3.053  14.152   3.767
29373SOL     OW90015  10.087   3.912   0.267
29373SOL    HW190016  10.056   3.840   0.321
29373SOL    HW290017  10.149   3.872   0.206
29374SOL     OW90018   7.610   8.460  13.145
29374SOL    HW190019   7.696   8.500  13.147
29374SOL    HW290020   7.570   8.484  13.229
29375SOL     OW90021   2.195   5.686   9.211
29375SOL    HW190022   2.200   5.610   9.153
29375SOL    HW290023   2.106   5.720   9.199
29376SOL     OW90024   3.006   3.899   3.468
29376SOL    HW190025   2.990   3.849   3.388
29376SOL    HW290026   2.984   3.989   3.446
29377SOL     OW90027   6.196   8.349   1.929
29377SOL    HW190028   6.233   8.271   1.889
29377SOL    HW290029   6.224   8.344   2.021
29378SOL     OW90030   0.200   9.770   0.539
29378SOL    HW190031   0.279   9.816   0.565
29378SOL    HW290032   0.128   9.825   0.570
29379SOL     OW90033  10.146   1.722  11.512
29379SOL    HW190034  10.167   1.638  11.472
29379SOL    HW290035  10.050   1.727  11.509
29380SOL     OW90036   3.618  14.449  11.355
29380SOL    HW190037   3.618  14.386  11.427
29380SOL    HW290038   3.594  14.397  11.278
29381SOL     OW90039   7.093   7.061   8.681
29381SOL    HW190040   7.044   6.979   8.679
29381SOL    HW290041   7.064   7.109   8.603
29382SOL     OW90042  12.580  13.044   1.504
29382SOL    HW190043  12.662  13.023   1.548
29382SOL    HW290044  12.543  13.116   1.554
29383SOL     OW90045  10.642   6.333  10.915
29383SOL    HW190046  10.688   6.307  10.835
29383SOL    HW290047  10.708   6.328  10.984
29384SOL     OW90048   8.257  13.954  10.034
29384SOL    HW190049   8.191  13.885  10.037
29384SOL    HW290050   8.337  13.913  10.066
29385SOL     OW90051  12.543   4.403  11.687
29385SOL    HW190052  12.578   4.492  11.686
29385SOL    HW290053  12.555   4.372  11.777
29386SOL     OW90054   1.934   7.778   0.331
29386SOL    HW190055   2.011   7.746   0.379
29386SOL    HW290056   1.861   7.763   0.391
29387SOL     OW90057   5.248  11.769  10.844
29387SOL    HW190058   5.239  11.860  10.870
29387SOL    HW290059   5.183  11.757  10.774
29388SOL     OW90060   7.108   0.568   5.527
29388SOL    HW190061   7.169   0.583   5.599
29388SOL    HW290062   7.099   0.653   5.484
29389SOL     OW90063  10.037   2.744   7.656
29389SOL    HW190064  10.026   2.668   7.599
29389SOL    HW290065   9.955   2.749   7.706
29390SOL     OW90066   5.365  11.993   4.923
29390SOL    HW190067   5.403  11.981   4.836
29390SOL    HW290068   5.336  11.905   4.949
29391SOL     OW90069  12.632   7.423   1.770
29391SOL    HW190070  12.577   7.366   1.715
29391SOL    HW290071  12.716   7.378   1.774
29392SOL     OW90072   3.686   5.596  13.413
29392SOL    HW190073   3.715   5.645  13.336
29392SOL    HW290074   3.602   5.559  13.388
29393SOL     OW90075  10.375   0.191  11.838
29393SOL    HW190076  10.386   0.286  11.841
29393SOL    HW290077  10.373   0.164  11.930
29394SOL     OW90078   6.861   8.639  12.915
29394SOL    HW190079   6.923   8.713  12.917
29394SOL    HW290080   6.801   8.656  12.987
29395SOL     OW90081   4.104   8.589   1.121
29395SOL    HW190082   4.163   8.583   1.196
29395SOL    HW290083   4.044   8.660   1.143
29396SOL     OW90084   7.002   6.021  11.999
29396SOL    HW190085   6.947   6.097  11.976
29396SOL    HW290086   7.012   5.974  11.916
29397SOL     OW90087  10.886  13.825  13.515
29397SOL    HW190088  10.847  13.738  13.525
29397SOL    HW290089  10.976  13.807  13.489
29398SOL     OW90090   4.375   2.399   0.080
29398SOL    HW190091   4.469   2.398   0.062
29398SOL    HW290092   4.366   2.352   0.163
29399SOL     OW90093  13.786  10.899  14.284
29399SOL    HW190094  13.694  10.880  14.268
29399SOL    HW290095  13.830  10.814  14.279
29400SOL     OW90096   7.757   6.094  12.695
29400SOL    HW190097   7.772   6.189  12.689
29400SOL    HW290098   7.794   6.060  12.613
29401SOL     OW90099   2.501   6.695  10.751
29401SOL    HW190100   2.578   6.733  10.794
29401SOL    HW290101   2.430   6.708  10.813
29402SOL     OW90102   8.329  12.081   2.135
29402SOL    HW190103   8.306  12.002   2.184
29402SOL    HW290104   8.424  12.074   2.121
29403SOL     OW90105   2.248   4.880   6.454
29403SOL    HW190106   2.293   4.929   6.523
29403SOL    HW290107   2.206   4.807   6.500
29404SOL     OW90108   6.883  12.371  12.583
29404SOL    HW190109   6.826  12.363  12.659
29404SOL    HW290110   6.827  12.345  12.509
29405SOL     OW90111   1.199   9.823   4.550
29405SOL    HW190112   1.161   9.769   4.481
29405SOL    HW290113   1.173   9.780   4.631
29406SOL     OW90114   7.089   6.615   1.587
29406SOL    HW190115   6.997   6.628   1.610
29406SOL    HW290116   7.124   6.704   1.576
29407SOL     OW90117  11.711   8.382   0.732
29407SOL    HW190118  11.742   8.470   0.712
29407SOL    HW290119  11.774   8.349   0.796
29408SOL     OW90120  11.661   5.518   2.828
29408SOL    HW190121  11.667   5.590   2.891
29408SOL    HW290122  11.569   5.492   2.828
29409SOL     OW90123   7.951  11.324   5.566
29409SOL    HW190124   7.993  11.395   5.616
29409SOL    HW290125   7.888  11.369   5.510
29410SOL     OW90126   7.740  12.386   6.600
29410SOL    HW190127   7.717  12.478   6.608
29410SOL    HW290128   7.798  12.382   6.524
29411SOL     OW90129   7.475   5.814   8.919
29411SOL    HW190130   7.382   5.796   8.909
29411SOL    HW290131   7.516   5.773   8.842
29412SOL     OW90132   3.067  12.585  14.333
29412SOL    HW190133   3.092  12.499  14.297
29412SOL    HW290134   2.979  12.599  14.300
29413SOL     OW90135  13.063  12.503  10.462
29413SOL    HW190136  13.089  12.577  10.516
29413SOL    HW290137  13.016  12.445  10.521
29414SOL     OW90138   6.442   9.111   4.847
29414SOL    HW190139   6.361   9.113   4.897
29414SOL    HW290140   6.492   9.186   4.879
29415SOL     OW90141   2.787  12.337   3.774
29415SOL    HW190142   2.865  12.305   3.730
29415SOL    HW290143   2.723  12.348   3.703
29416SOL     OW90144   8.175   2.839   7.702
29416SOL    HW190145   8.132   2.923   7.715
29416SOL    HW290146   8.106   2.774   7.715
29417SOL     OW90147   3.807  13.920   7.376
29417SOL    HW190148   3.787  13.890   7.287
29417SOL    HW290149   3.771  13.852   7.433
29418SOL     OW90150   9.590  14.787   9.822
29418SOL    HW190151   9.603  14.732   9.899
29418SOL    HW290152   9.674  14.782   9.775
29419SOL     OW90153  13.937  13.095   2.972
29419SOL    HW190154  14.008  13.046   2.930
29419SOL    HW290155  13.895  13.031   3.029
29420SOL     OW90156  10.405  14.424  13.210
29420SOL    HW190157  10.350  14.457  13.139
29420SOL    HW290158  10.344  14.378  13.267
29421SOL     OW90159   0.229   7.172   7.418
29421SOL    HW190160   0.204   7.116   7.491
29421SOL    HW290161   0.196   7.127   7.340
29422SOL     OW90162   8.374  14.663  14.441
29422SOL    HW190163   8.442  14.600  14.468
29422SOL    HW290164   8.295  14.633  14.485
29423SOL     OW90165   7.675   9.516  12.695
29423SOL    HW190166   7.706   9.437  12.738
29423SOL    HW290167   7.654   9.576  12.766
29424SOL     OW90168  10.438   6.368  13.115
29424SOL    HW190169  10.447   6.275  13.134
29424SOL    HW290170  10.363   6.373  13.056
29425SOL     OW90171  11.628  10.834  10.172
29425SOL    HW190172  11.688  10.771  10.130
29425SOL    HW290173  11.659  10.841  10.262
29426SOL     OW90174   4.272  11.718   5.370
29426SOL    HW190175   4.329  11.654   5.328
29426SOL    HW290176   4.332  11.781   5.410
29427SOL     OW90177   5.540   1.874  14.089
29427SOL    HW190178   5.485   1.884  14.011
29427SOL    HW290179   5.575   1.786  14.083
29428SOL     OW90180   5.637   3.710  10.434
29428SOL    HW190181   5.646   3.730  10.341
29428SOL    HW290182   5.723   3.728  10.471
29429SOL     OW90183  12.630   0.624  10.010
29429SOL    HW190184  12.612   0.568   9.935
29429SOL    HW290185  12.696   0.577  10.060
29430SOL     OW90186  11.637  10.094   4.078
29430SOL    HW190187  11.619  10.153   4.005
29430SOL    HW290188  11.632  10.150   4.156
29431SOL     OW90189  10.373  11.655  13.597
29431SOL    HW190190  10.317  11.610  13.534
29431SOL    HW290191  10.446  11.596  13.612
29432SOL     OW90192   0.503  14.505  11.386
29432SOL    HW190193   0.466  14.586  11.421
29432SOL    HW290194   0.571  14.480  11.448
29433SOL     OW90195  13.094   9.692   2.743
29433SOL    HW190196  13.154   9.622   2.770
29433SOL    HW290197  13.041   9.653   2.673
29434SOL     OW90198   2.101  14.752   2.876
29434SOL    HW190199   2.155  14.689   2.827
29434SOL    HW290200   2.137  14.752   2.964
29435SOL     OW90201   4.289  13.397   3.622
29435SOL    HW190202   4.262  13.378   3.712
29435SOL    HW290203   4.220  13.453   3.588
29436SOL     OW90204   0.175   1.444   4.851
29436SOL    HW190205   0.106   1.378   4.846
29436SOL    HW290206   0.253   1.394   4.878
29437SOL     OW90207  12.969   3.886  11.291
29437SOL    HW190208  13.032   3.881  11.219
29437SOL    HW290209  12.884   3.878  11.249
29438SOL     OW90210   6.514   5.188   3.295
29438SOL    HW190211   6.555   5.246   3.359
29438SOL    HW290212   6.454   5.135   3.346
29439SOL     OW90213  11.324   2.249   9.681
29439SOL    HW190214  11.384   2.250   9.607
29439SOL    HW290215  11.248   2.200   9.650
29440SOL     OW90216   2.981   7.149   3.140
29440SOL    HW190217   2.926   7.188   3.208
29440SOL    HW290218   2.998   7.060   3.172
29441SOL     OW90219   7.689   8.659   1.843
29441SOL    HW190220   7.693   8.579   1.790
29441SOL    HW290221   7.760   8.713   1.811
29442SOL     OW90222  10.611   9.124  10.420
29442SOL    HW190223  10.554   9.047  10.418
29442SOL    HW290224  10.674   9.107  10.490
29443SOL     OW90225  10.144   1.102  13.283
29443SOL    HW190226  10.210   1.044  13.321
29443SOL    HW290227  10.193   1.178  13.253
29444SOL     OW90228   4.385   0.334   4.122
29444SOL    HW190229   4.320   0.382   4.174
29444SOL    HW290230   4.390   0.248   4.164
29445SOL     OW90231  13.845   6.505   1.399
29445SOL    HW190232  13.761   6.460   1.394
29445SOL    HW290233  13.832   6.572   1.465
29446SOL     OW90234  10.779   3.442  13.968
29446SOL    HW190235  10.866   3.473  13.995
29446SOL    HW290236  10.723   3.456  14.044
29447SOL     OW90237  14.163   0.639   3.105
29447SOL    HW190238  14.229   0.604   3.046
29447SOL    HW290239  14.200   0.721   3.136
29448SOL     OW90240   9.723   8.767  13.486
29448SOL    HW190241   9.706   8.773  13.392
29448SOL    HW290242   9.660   8.702  13.518
29449SOL     OW90243   8.386  14.141  11.888
29449SOL    HW190244   8.419  14.177  11.806
29449SOL    HW290245   8.402  14.210  11.953
29450SOL     OW90246   7.029   8.558   6.884
29450SOL    HW190247   6.996   8.648   6.885
29450SOL    HW290248   6.955   8.506   6.852
29451SOL     OW90249   8.668  11.692   8.555
29451SOL    HW190250   8.652  11.715   8.464
29451SOL    HW290251   8.669  11.776   8.601
29452SOL     OW90252  12.276  11.626  10.568
29452SOL    HW190253  12.216  11.700  10.557
29452SOL    HW290254  12.330  11.650  10.643
29453SOL     OW90255   7.271   0.575   0.795
29453SOL    HW190256   7.223   0.634   0.737
29453SOL    HW290257   7.204   0.518   0.832
29454SOL     OW90258   9.067   1.757   4.578
29454SOL    HW190259   9.152   1.782   4.614
29454SOL    HW290260   9.036   1.687   4.636
29455SOL     OW90261  12.930   6.931   7.798
29455SOL    HW190262  12.996   6.950   7.732
29455SOL    HW290263  12.942   6.998   7.865
29456SOL     OW90264  14.609   2.437  14.210
29456SOL    HW190265  14.606   2.518  14.159
29456SOL    HW290266  14.616   2.367  14.145
29457SOL     OW90267   4.086   6.935   4.559
29457SOL    HW190268   3.994   6.938   4.533
29457SOL    HW290269   4.099   7.014   4.612
29458SOL     OW90270  12.229   8.814  14.074
29458SOL    HW190271  12.199   8.827  13.984
29458SOL    HW290272  12.286   8.890  14.091
29459SOL     OW90273   7.185   0.763  12.476
29459SOL    HW190274   7.219   0.845  12.441
29459SOL    HW290275   7.151   0.716  12.399
29460SOL     OW90276  14.543   2.659   3.435
29460SOL    HW190277  14.512   2.674   3.345
29460SOL    HW290278  14.584   2.742   3.460
29461SOL     OW90279   1.798  13.040   3.420
29461SOL    HW190280   1.705  13.049   3.441
29461SOL    HW290281   1.812  13.100   3.347
29462SOL     OW90282  10.918  12.660   8.626
29462SOL    HW190283  10.896  12.656   8.719
29462SOL    HW290284  10.985  12.728   8.620
29463SOL     OW90285   4.923   7.208   2.147
29463SOL    HW190286   4.899   7.223   2.238
29463SOL    HW290287   4.876   7.276   2.098
29464SOL     OW90288   4.421  12.463   9.732
29464SOL    HW190289   4.458  12.480   9.818
29464SOL    HW290290   4.329  12.440   9.750
29465SOL     OW90291  14.779   5.468   0.367
29465SOL    HW190292  14.851   5.404   0.361
29465SOL    HW290293  14.718   5.441   0.298
29466SOL     OW90294   0.658  12.218  10.684
29466SOL    HW190295   0.648  12.200  10.777
29466SOL    HW290296   0.603  12.295  10.668
29467SOL     OW90297  10.818  12.322   1.163
29467SOL    HW190298  10.781  12.404   1.131
29467SOL    HW290299  10.765  12.301   1.240
29468SOL     OW90300   8.288   2.700  10.585
29468SOL    HW190301   8.215   2.670  10.530
29468SOL    HW290302   8.333   2.765  10.532
29469SOL     OW90303   3.789   9.476   4.347
29469SOL    HW190304   3.790   9.463   4.442
29469SOL    HW290305   3.818   9.392   4.311
29470SOL     OW90306  14.482   6.595  14.269
29470SOL    HW190307  14.497   6.601  14.364
29470SOL    HW290308  14.513   6.507  14.246
29471SOL     OW90309   4.517   1.471  12.797
29471SOL    HW190310   4.588   1.442  12.740
29471SOL    HW290311   4.459   1.521  12.739
29472SOL     OW90312   3.913   7.333  10.526
29472SOL    HW190313   3.861   7.253  10.521
29472SOL    HW290314   3.867   7.395  10.469
29473SOL     OW90315   7.360   0.868  12.696
29473SOL    HW190316   7.359   0.798  12.761
29473SOL    HW290317   7.294   0.842  12.632
29474SOL     OW90318   7.684   3.440  14.620
29474SOL    HW190319   7.598   3.415  14.587
29474SOL    HW290320   7.665   3.509  14.685
29475SOL     OW90321   5.514   7.667  14.551
29475SOL    HW190322   5.473   7.719  14.482
29475SOL    HW290323   5.608   7.685  14.543
29476SOL     OW90324   3.761   5.462  10.612
29476SOL    HW190325   3.700   5.536  10.619
29476SOL    HW290326   3.715   5.390  10.655
29477SOL     OW90327   2.533  11.660  10.009
29477SOL    HW190328   2.615  11.627   9.972
29477SOL    HW290329   2.466  11.636   9.944
29478SOL     OW90330  13.244  11.314   4.652
29478SOL    HW190331  13.222  11.228   4.617
29478SOL    HW290332  13.190  11.375   4.601
29479SOL     OW90333  14.597   7.735   8.654
29479SOL    HW190334  14.612   7.713   8.562
29479SOL    HW290335  14.641   7.665   8.703
29480SOL     OW90336   3.310   6.830   4.892
29480SOL    HW190337   3.215   6.821   4.899
29480SOL    HW290338   3.342   6.815   4.982
29481SOL     OW90339   8.102   9.821   4.657
29481SOL    HW190340   8.158   9.867   4.719
29481SOL    HW290341   8.160   9.760   4.613
29482SOL     OW90342   1.135   3.447   6.275
29482SOL    HW190343   1.092   3.495   6.205
29482SOL    HW290344   1.200   3.392   6.231
29483SOL     OW90345   7.803  13.472   2.271
29483SOL    HW190346   7.734  13.513   2.323
29483SOL    HW290347   7.869  13.540   2.260
29484SOL     OW90348   1.655   6.612  10.181
29484SOL    HW190349   1.725   6.674  10.160
29484SOL    HW290350   1.686   6.567  10.260
29485SOL     OW90351   0.410   6.125   8.394
29485SOL    HW190352   0.444   6.214   8.386
29485SOL    HW290353   0.409   6.092   8.304
29486SOL     OW90354   6.119  11.759  11.493
29486SOL    HW190355   6.162  11.690  11.442
29486SOL    HW290356   6.178  11.834  11.487
29487SOL     OW90357  11.869  14.685  11.724
29487SOL    HW190358  11.869  14.711  11.816
29487SOL    HW290359  11.953  14.718  11.690
29488SOL     OW90360  13.477  12.090   1.356
29488SOL    HW190361  13.441  12.036   1.426
29488SOL    HW290362  13.483  12.031   1.281
29489SOL     OW90363  12.610  10.144   3.200
29489SOL    HW190364  12.609  10.220   3.142
29489SOL    HW290365  12.527  10.100   3.184
29490SOL     OW90366   4.971  10.458   7.770
29490SOL    HW190367   4.929  10.513   7.705
29490SOL    HW290368   5.056  10.435   7.732
29491SOL     OW90369  12.675   7.073  12.997
29491SOL    HW190370  12.644   7.108  13.081
29491SOL    HW290371  12.757   7.029  13.018
29492SOL     OW90372   8.537  11.405   0.268
29492SOL    HW190373   8.477  11.477   0.286
29492SOL    HW290374   8.610  11.419   0.328
29493SOL     OW90375   4.164   7.549  10.838
29493SOL    HW190376   4.178   7.503  10.920
29493SOL    HW290377   4.075   7.527  10.812
29494SOL     OW90378   4.673  13.700  10.174
29494SOL    HW190379   4.675  13.761  10.247
29494SOL    HW290380   4.582  13.673  10.166
29495SOL     OW90381   9.433   2.716   1.469
29495SOL    HW190382   9.404   2.625   1.474
29495SOL    HW290383   9.520   2.716   1.510
29496SOL     OW90384   5.285   6.005  12.347
29496SOL    HW190385   5.359   6.059  12.374
29496SOL    HW290386   5.317   5.957  12.271
29497SOL     OW90387   5.724  12.976   7.912
29497SOL    HW190388   5.795  12.920   7.944
29497SOL    HW290389   5.644  12.934   7.943
29498SOL     OW90390  10.263  11.159   6.701
29498SOL    HW190391  10.272  11.210   6.620
29498SOL    HW290392  10.207  11.213   6.757
29499SOL     OW90393   2.801  14.017  13.740
29499SOL    HW190394   2.792  13.923  13.753
29499SOL    HW290395   2.865  14.025  13.669
29500SOL     OW90396   6.306   3.737  11.667
29500SOL    HW190397   6.329   3.646  11.648
29500SOL    HW290398   6.211   3.741  11.658
29501SOL     OW90399  10.897  13.528   8.250
29501SOL    HW190400  10.860  13.573   8.174
29501SOL    HW290401  10.821  13.505   8.303
29502SOL     OW90402   7.358  10.252   7.416
29502SOL    HW190403   7.278  10.229   7.463
29502SOL    HW290404   7.419  10.181   7.435
29503SOL     OW90405  12.238   8.284  13.362
29503SOL    HW190406  12.324   8.242  13.375
29503SOL    HW290407  12.181   8.212  13.334
29504SOL     OW90408  14.851  10.854   6.322
29504SOL    HW190409   0.025  10.769   6.317
29504SOL    HW290410   0.051  10.916   6.295
29505SOL     OW90411   2.880  12.420   8.390
29505SOL    HW190412   2.823  12.343   8.389
29505SOL    HW290413   2.936  12.410   8.313
29506SOL     OW90414   5.351   8.648   2.614
29506SOL    HW190415   5.384   8.573   2.565
29506SOL    HW290416   5.325   8.711   2.547
29507SOL     OW90417   3.588   9.530  11.406
29507SOL    HW190418   3.642   9.452  11.392
29507SOL    HW290419   3.508   9.512  11.357
29508SOL     OW90420   7.338   3.296   0.304
29508SOL    HW190421   7.412   3.250   0.264
29508SOL    HW290422   7.378   3.346   0.376
29509SOL     OW90423   1.761   5.487   4.333
29509SOL    HW190424   1.725   5.489   4.422
29509SOL    HW290425   1.740   5.400   4.301
29510SOL     OW90426  13.512   4.155  10.741
29510SOL    HW190427  13.469   4.116  10.817
29510SOL    HW290428  13.480   4.245  10.739
29511SOL     OW90429  14.600   9.737   2.035
29511SOL    HW190430  14.599   9.654   2.083
29511SOL    HW290431  14.692   9.763   2.034
29512SOL     OW90432  13.658  11.825   0.786
29512SOL    HW190433  13.595  11.883   0.829
29512SOL    HW290434  13.667  11.751   0.846
29513SOL     OW90435   9.844   2.846  10.729
29513SOL    HW190436   9.769   2.811  10.681
29513SOL    HW290437   9.885   2.906  10.667
29514SOL     OW90438   5.067  12.324  13.168
29514SOL    HW190439   5.029  12.278  13.093
29514SOL    HW290440   4.992  12.354  13.219
29515SOL     OW90441  13.056   5.919   6.667
29515SOL    HW190442  13.003   5.993   6.696
29515SOL    HW290443  12.997   5.843   6.673
29516SOL     OW90444   3.472   0.625   1.063
29516SOL    HW190445   3.411   0.608   1.134
29516SOL    HW290446   3.540   0.558   1.073
29517SOL     OW90447   2.199   1.620  12.863
29517SOL    HW190448   2.139   1.569  12.917
29517SOL    HW290449   2.158   1.707  12.857
29518SOL     OW90450   1.709  11.164   7.594
29518SOL    HW190451   1.771  11.236   7.586
29518SOL    HW290452   1.623  11.206   7.590
29519SOL     OW90453   2.935   7.266   8.460
29519SOL    HW190454   2.982   7.234   8.383
29519SOL    HW290455   2.966   7.356   8.471
29520SOL     OW90456  10.755  10.475   9.104
29520SOL    HW190457  10.831  10.509   9.151
29520SOL    HW290458  10.775  10.492   9.012
29521SOL     OW90459  10.281   1.007  13.038
29521SOL    HW190460  10.246   1.097  13.039
29521SOL    HW290461  10.375   1.018  13.046
29522SOL     OW90462   7.415   8.901   2.831
29522SOL    HW190463   7.477   8.935   2.896
29522SOL    HW290464   7.333   8.947   2.849
29523SOL     OW90465   8.265   8.476  14.432
29523SOL    HW190466   8.266   8.504  14.524
29523SOL    HW290467   8.356   8.487  14.403
29524SOL     OW90468  11.142   1.331  13.670
29524SOL    HW190469  11.046   1.336  13.670
29524SOL    HW290470  11.169   1.397  13.734
29525SOL     OW90471   2.522   1.753  12.659
29525SOL    HW190472   2.556   1.694  12.592
29525SOL    HW290473   2.468   1.815  12.610
29526SOL     OW90474   1.761   1.066  14.635
29526SOL    HW190475   1.752   1.157  14.663
29526SOL    HW290476   1.672   1.031  14.636
29527SOL     OW90477   1.263  13.431   2.491
29527SOL    HW190478   1.277  13.478   2.409
29527SOL    HW290479   1.331  13.363   2.492
29528SOL     OW90480  11.209  10.156   9.210
29528SOL    HW190481  11.117  10.177   9.203
29528SOL    HW290482  11.234  10.184   9.298
29529SOL     OW90483   2.516   3.575  13.398
29529SOL    HW190484   2.502   3.569  13.492
29529SOL    HW290485   2.490   3.665  13.375
29530SOL     OW90486   2.492   6.550   8.806
29530SOL    HW190487   2.435   6.601   8.864
29530SOL    HW290488   2.575   6.599   8.804
29531SOL     OW90489   2.739   3.468  14.539
29531SOL    HW190490   2.762   3.544  14.593
29531SOL    HW290491   2.652   3.488  14.506
29532SOL     OW90492   7.242   5.427   2.257
29532SOL    HW190493   7.162   5.404   2.305
29532SOL    HW290494   7.295   5.476   2.320
29533SOL     OW90495   2.628   3.560   0.562
29533SOL    HW190496   2.596   3.559   0.472
29533SOL    HW290497   2.602   3.474   0.597
29534SOL     OW90498  14.053  11.744   2.471
29534SOL    HW190499  14.002  11.822   2.497
29534SOL    HW290500  13.990  11.672   2.477
29535SOL     OW90501   5.064   5.079   0.982
29535SOL    HW190502   5.104   5.167   0.976
29535SOL    HW290503   5.126   5.029   1.035
29536SOL     OW90504   4.554   4.922   0.785
29536SOL    HW190505   4.639   4.925   0.829
29536SOL    HW290506   4.495   4.967   0.845
29537SOL     OW90507   0.728  14.810   9.080
29537SOL    HW190508   0.660  14.743   9.087
29537SOL    HW290509   0.791  14.774   9.017
29538SOL     OW90510   7.987  12.456   0.786
29538SOL    HW190511   7.935  12.398   0.730
29538SOL    HW290512   7.989  12.539   0.738
29539SOL     OW90513   7.472  11.437  13.722
29539SOL    HW190514   7.436  11.367  13.777
29539SOL    HW290515   7.409  11.447  13.651
29540SOL     OW90516   1.161   1.594  14.715
29540SOL    HW190517   1.133   1.670  14.765
29540SOL    HW290518   1.224   1.628  14.651
29541SOL     OW90519  13.288   5.905   9.123
29541SOL    HW190520  13.207   5.916   9.074
29541SOL    HW290521  13.262   5.858   9.202
29542SOL     OW90522   8.652  14.549   3.410
29542SOL    HW190523   8.736  14.566   3.368
29542SOL    HW290524   8.636  14.455   3.395
29543SOL     OW90525   8.430   5.061   5.576
29543SOL    HW190526   8.516   5.020   5.583
29543SOL    HW290527   8.376   4.995   5.533
29544SOL     OW90528   9.805   8.718  10.792
29544SOL    HW190529   9.755   8.786  10.837
29544SOL    HW290530   9.897   8.744  10.802
29545SOL     OW90531   8.790   2.051   3.492
29545SOL    HW190532   8.759   1.967   3.459
29545SOL    HW290533   8.755   2.056   3.581
29546SOL     OW90534   2.688   4.838   3.918
29546SOL    HW190535   2.627   4.771   3.888
29546SOL    HW290536   2.775   4.800   3.902
29547SOL     OW90537   3.007   4.336   1.260
29547SOL    HW190538   2.993   4.256   1.310
29547SOL    HW290539   2.969   4.405   1.313
29548SOL     OW90540   3.278   4.427   2.360
29548SOL    HW190541   3.361   4.393   2.393
29548SOL    HW290542   3.294   4.445   2.268
29549SOL     OW90543   9.025   4.908   7.073
29549SOL    HW190544   8.946   4.901   7.019
29549SOL    HW290545   8.997   4.879   7.160
29550SOL     OW90546   8.102   2.659   5.383
29550SOL    HW190547   8.105   2.626   5.472
29550SOL    HW290548   8.085   2.753   5.393
29551SOL     OW90549   3.244  12.192   0.817
29551SOL    HW190550   3.264  12.162   0.728
29551SOL    HW290551   3.240  12.287   0.809
29552SOL     OW90552   6.150   4.581   8.362
29552SOL    HW190553   6.089   4.518   8.400
29552SOL    HW290554   6.164   4.646   8.431
29553SOL     OW90555   5.844   9.712   7.156
29553SOL    HW190556   5.835   9.793   7.206
29553SOL    HW290557   5.922   9.670   7.193
29554SOL     OW90558   1.021   0.119   9.462
29554SOL    HW190559   1.021   0.136   9.368
29554SOL    HW290560   1.110   0.086   9.480
29555SOL     OW90561   7.412   4.550   6.567
29555SOL    HW190562   7.335   4.495   6.554
29555SOL    HW290563   7.486   4.489   6.561
29556SOL     OW90564   1.430  12.380   4.063
29556SOL    HW190565   1.415  12.344   3.975
29556SOL    HW290566   1.503  12.329   4.097
29557SOL     OW90567  14.493   0.811  11.368
29557SOL    HW190568  14.554   0.882  11.348
29557SOL    HW290569  14.503   0.749  11.296
29558SOL     OW90570   8.349   9.383   5.134
29558SOL    HW190571   8.436   9.400   5.169
29558SOL    HW290572   8.323   9.465   5.091
29559SOL     OW90573   4.121   5.913   6.700
29559SOL    HW190574   4.163   5.838   6.658
29559SOL    HW290575   4.177   5.934   6.775
29560SOL     OW90576   4.431  14.162   6.386
29560SOL    HW190577   4.394  14.250   6.397
29560SOL    HW290578   4.508  14.175   6.330
29561SOL     OW90579   8.750  10.267   6.454
29561SOL    HW190580   8.784  10.345   6.409
29561SOL    HW290581   8.659  10.261   6.428
29562SOL     OW90582  10.028   0.745  11.497
29562SOL    HW190583   9.949   0.799  11.490
29562SOL    HW290584  10.082   0.790  11.562
29563SOL     OW90585  11.438   4.812   7.779
29563SOL    HW190586  11.352   4.809   7.736
29563SOL    HW290587  11.451   4.723   7.812
29564SOL     OW90588   0.077  12.344   3.567
29564SOL    HW190589   0.037  12.423   3.530
29564SOL    HW290590   0.022  12.272   3.535
29565SOL     OW90591   9.014   0.530  10.259
29565SOL    HW190592   9.100   0.571  10.264
29565SOL    HW290593   9.031   0.440  10.234
29566SOL     OW90594  13.086   4.580   4.244
29566SOL    HW190595  13.079   4.538   4.158
29566SOL    HW290596  13.121   4.511   4.301
29567SOL     OW90597   0.141   1.797   2.180
29567SOL    HW190598   0.104   1.773   2.095
29567SOL    HW290599   0.207   1.730   2.197
29568SOL     OW90600   2.942  10.111   3.172
29568SOL    HW190601   2.986  10.026   3.176
29568SOL    HW290602   3.012  10.176   3.174
29569SOL     OW90603   8.275   8.528  12.380
29569SOL    HW190604   8.332   8.480  12.320
29569SOL    HW290605   8.302   8.500  12.467
29570SOL     OW90606  13.866  12.518   2.949
29570SOL    HW190607  13.935  12.509   2.884
29570SOL    HW290608  13.784  12.511   2.900
29571SOL     OW90609  12.166   2.561   2.990
29571SOL    HW190610  12.099   2.516   3.040
29571SOL    HW290611  12.184   2.503   2.916
29572SOL     OW90612   7.578  10.068   7.071
29572SOL    HW190613   7.489  10.081   7.102
29572SOL    HW290614   7.588  10.130   6.999
29573SOL     OW90615  13.453  13.844  12.644
29573SOL    HW190616  13.489  13.759  12.670
29573SOL    HW290617  13.467  13.849  12.550
29574SOL     OW90618  10.315  13.827   0.668
29574SOL    HW190619  10.267  13.829   0.751
29574SOL    HW290620  10.286  13.747   0.624
29575SOL     OW90621   1.326   8.977  13.731
29575SOL    HW190622   1.294   8.959  13.819
29575SOL    HW290623   1.416   8.946  13.731
29576SOL     OW90624   1.766  13.366  12.509
29576SOL    HW190625   1.688  13.407  12.545
29576SOL    HW290626   1.742  13.273  12.499
29577SOL     OW90627   0.857   4.513   2.405
29577SOL    HW190628   0.900   4.593   2.376
29577SOL    HW290629   0.791   4.542   2.468
29578SOL     OW90630   2.792   9.064   4.498
29578SOL    HW190631   2.783   9.157   4.480
29578SOL    HW290632   2.884   9.044   4.479
29579SOL     OW90633  11.736   0.897   5.223
29579SOL    HW190634  11.641   0.893   5.209
29579SOL    HW290635  11.752   0.834   5.293
29580SOL     OW90636   1.775   6.069   3.889
29580SOL    HW190637   1.769   6.164   3.877
29580SOL    HW290638   1.861   6.056   3.929
29581SOL     OW90639  11.475   3.772   2.763
29581SOL    HW190640  11.512   3.765   2.675
29581SOL    HW290641  11.530   3.836   2.807
29582SOL     OW90642   7.105   1.686   4.594
29582SOL    HW190643   7.142   1.610   4.639
29582SOL    HW290644   7.017   1.695   4.630
29583SOL     OW90645   2.904   0.739   8.300
29583SOL    HW190646   2.883   0.829   8.325
29583SOL    HW290647   2.989   0.745   8.257
29584SOL     OW90648   3.440   7.740   3.062
29584SOL    HW190649   3.500   7.738   2.987
29584SOL    HW290650   3.454   7.655   3.105
29585SOL     OW90651   8.204  14.824   1.413
29585SOL    HW190652   8.299  14.827   1.427
29585SOL    HW290653   8.194  14.817   1.318
29586SOL     OW90654   5.562   9.238  10.273
29586SOL    HW190655   5.645   9.240  10.226
29586SOL    HW290656   5.513   9.312  10.239
29587SOL     OW90657   8.970   7.710   9.872
29587SOL    HW190658   8.971   7.684   9.964
29587SOL    HW290659   9.003   7.633   9.825
29588SOL     OW90660  13.316   1.095   4.992
29588SOL    HW190661  13.262   1.095   4.913
29588SOL    HW290662  13.255   1.117   5.063
29589SOL     OW90663   3.826  12.368  12.008
29589SOL    HW190664   3.821  12.343  12.100
29589SOL    HW290665   3.844  12.463  12.010
29590SOL     OW90666  12.033   3.970   3.568
29590SOL    HW190667  12.076   3.961   3.483
29590SOL    HW290668  12.096   3.935   3.631
29591SOL     OW90669  14.415   4.707  11.354
29591SOL    HW190670  14.431   4.619  11.320
29591SOL    HW290671  14.367   4.694  11.435
29592SOL     OW90672   2.089  14.636   1.061
29592SOL    HW190673   2.124  14.553   1.027
29592SOL    HW290674   2.054  14.613   1.147
29593SOL     OW90675  10.662  14.097   7.317
29593SOL    HW190676  10.709  14.031   7.265
29593SOL    HW290677  10.661  14.175   7.261
29594SOL     OW90678   2.830  11.844   9.992
29594SOL    HW190679   2.918  11.865   9.961
29594SOL    HW290680   2.772  11.897   9.939
29595SOL     OW90681   8.811   5.308  12.066
29595SOL    HW190682   8.828   5.240  12.000
29595SOL    HW290683   8.813   5.390  12.017
29596SOL     OW90684  14.637   2.055   0.100
29596SOL    HW190685  14.600   1.982   0.050
29596SOL    HW290686  14.590   2.053   0.183
29597SOL     OW90687  11.557   5.360   1.212
29597SOL    HW190688  11.546   5.454   1.220
29597SOL    HW290689  11.508   5.323   1.285
29598SOL     OW90690  12.452   8.972   0.534
29598SOL    HW190691  12.524   8.936   0.585
29598SOL    HW290692  12.457   8.926   0.450
29599SOL     OW90693   9.307  10.667   8.191
29599SOL    HW190694   9.305  10.707   8.277
29599SOL    HW290695   9.399  10.668   8.166
29600SOL     OW90696  12.325   3.181  11.183
29600SOL    HW190697  12.318   3.121  11.258
29600SOL    HW290698  12.259   3.248  11.200
29601SOL     OW90699   2.909   5.782   0.542
29601SOL    HW190700   2.866   5.766   0.458
29601SOL    HW290701   2.852   5.845   0.586
29602SOL     OW90702   6.500   0.500   4.375
29602SOL    HW190703   6.487   0.531   4.286
29602SOL    HW290704   6.595   0.495   4.386
29603SOL     OW90705  11.806   9.512   7.280
29603SOL    HW190706  11.853   9.554   7.208
29603SOL    HW290707  11.714   9.512   7.253
29604SOL     OW90708   6.416   3.276   4.752
29604SOL    HW190709   6.484   3.300   4.689
29604SOL    HW290710   6.383   3.192   4.720
29605SOL     OW90711   3.284  11.343  13.041
29605SOL    HW190712   3.368  11.388  13.049
29605SOL    HW290713   3.305  11.250  13.048
29606SOL     OW90714  10.518   1.145  11.143
29606SOL    HW190715  10.433   1.130  11.102
29606SOL    HW290716  10.557   1.058  11.151
29607SOL     OW90717   1.997   5.206  11.558
29607SOL    HW190718   1.977   5.205  11.464
29607SOL    HW290719   1.976   5.117  11.587
29608SOL     OW90720  13.646   7.535   2.236
29608SOL    HW190721  13.629   7.445   2.264
29608SOL    HW290722  13.713   7.526   2.167
29609SOL     OW90723  11.853   0.972   9.758
29609SOL    HW190724  11.849   1.005   9.668
29609SOL    HW290725  11.881   0.881   9.749
29610SOL     OW90726   2.410   6.700   3.044
29610SOL    HW190727   2.350   6.659   3.106
29610SOL    HW290728   2.403   6.647   2.965
29611SOL     OW90729   2.242   7.507   8.883
29611SOL    HW190730   2.247   7.542   8.972
29611SOL    HW290731   2.316   7.446   8.877
29612SOL     OW90732  12.413   5.676   2.465
29612SOL    HW190733  12.321   5.668   2.438
29612SOL    HW290734  12.430   5.597   2.515
29613SOL     OW90735  14.448   2.291   4.374
29613SOL    HW190736  14.484   2.290   4.463
29613SOL    HW290737  14.377   2.228   4.376
29614SOL     OW90738   6.549  14.393   0.291
29614SOL    HW190739   6.584  14.313   0.329
29614SOL    HW290740   6.564  14.460   0.358
29615SOL     OW90741  11.436  11.241   9.771
29615SOL    HW190742  11.528  11.240   9.745
29615SOL    HW290743  11.397  11.310   9.717
29616SOL     OW90744   0.058  11.934  11.183
29616SOL    HW190745   0.091  11.968  11.266
29616SOL    HW290746  14.831  11.928  11.196
29617SOL     OW90747   2.882   4.284   8.872
29617SOL    HW190748   2.842   4.200   8.895
29617SOL    HW290749   2.969   4.261   8.838
29618SOL     OW90750  12.578   4.397   6.146
29618SOL    HW190751  12.601   4.445   6.225
29618SOL    HW290752  12.661   4.359   6.116
29619SOL     OW90753   2.537   6.363  11.242
29619SOL    HW190754   2.495   6.432  11.295
29619SOL    HW290755   2.510   6.384  11.152
29620SOL     OW90756   3.788   2.261  12.832
29620SOL    HW190757   3.809   2.352  12.812
29620SOL    HW290758   3.871   2.215  12.820
29621SOL     OW90759  14.455   8.245   1.189
29621SOL    HW190760  14.483   8.306   1.258
29621SOL    HW290761  14.525   8.249   1.124
29622SOL     OW90762   7.169  11.875  12.224
29622SOL    HW190763   7.182  11.951  12.281
29622SOL    HW290764   7.074  11.868  12.215
29623SOL     OW90765   8.150   2.974   1.344
29623SOL    HW190766   8.146   2.879   1.334
29623SOL    HW290767   8.067   2.997   1.386
29624SOL     OW90768   5.497   5.947  13.189
29624SOL    HW190769   5.471   6.026  13.141
29624SOL    HW290770   5.592   5.949  13.189
29625SOL     OW90771  12.624   7.950   3.093
29625SOL    HW190772  12.678   8.028   3.080
29625SOL    HW290773  12.681   7.888   3.138
29626SOL     OW90774   5.573   2.304  11.976
29626SOL    HW190775   5.602   2.395  11.984
29626SOL    HW290776   5.606   2.262  12.055
29627SOL     OW90777  13.589  14.631  11.074
29627SOL    HW190778  13.634  14.563  11.024
29627SOL    HW290779  13.564  14.588  11.156
29628SOL     OW90780   7.612   4.641   5.139
29628SOL    HW190781   7.630   4.547   5.149
29628SOL    HW290782   7.699   4.682   5.136
29629SOL     OW90783   6.928   0.817  14.009
29629SOL    HW190784   6.849   0.768  14.032
29629SOL    HW290785   7.000   0.758  14.031
29630SOL     OW90786  10.250   8.205   1.748
29630SOL    HW190787  10.203   8.284   1.721
29630SOL    HW290788  10.278   8.224   1.837
29631SOL     OW90789  13.540   5.068   6.563
29631SOL    HW190790  13.505   4.985   6.595
29631SOL    HW290791  13.468   5.108   6.515
29632SOL     OW90792   2.467   1.939   2.514
29632SOL    HW190793   2.468   2.028   2.478
29632SOL    HW290794   2.391   1.897   2.474
29633SOL     OW90795   0.380   5.149   3.450
29633SOL    HW190796   0.351   5.059   3.436
29633SOL    HW290797   0.473   5.148   3.428
29634SOL     OW90798   0.197   8.365   8.481
29634SOL    HW190799   0.282   8.341   8.518
29634SOL    HW290800   0.210   8.360   8.386
29635SOL     OW90801   0.851   5.660   2.242
29635SOL    HW190802   0.761   5.639   2.219
29635SOL    HW290803   0.899   5.578   2.231
29636SOL     OW90804   4.229   1.509  14.417
29636SOL    HW190805   4.261   1.599  14.423
29636SOL    HW290806   4.139   1.518  14.384
29637SOL     OW90807   3.305   3.661   8.831
29637SOL    HW190808   3.372   3.667   8.900
29637SOL    HW290809   3.222   3.662   8.879
29638SOL     OW90810  12.149  14.021   3.162
29638SOL    HW190811  12.099  13.981   3.091
29638SOL    HW290812  12.240  13.999   3.142
29639SOL     OW90813  12.589   4.451  13.392
29639SOL    HW190814  12.650   4.397  13.341
29639SOL    HW290815  12.503   4.412  13.375
29640SOL     OW90816   1.811   4.186   6.351
29640SOL    HW190817   1.768   4.104   6.377
29640SOL    HW290818   1.835   4.227   6.434
29641SOL     OW90819   8.403   3.234   8.552
29641SOL    HW190820   8.418   3.190   8.636
29641SOL    HW290821   8.481   3.289   8.540
29642SOL     OW90822   4.306  10.074  11.583
29642SOL    HW190823   4.373  10.090  11.516
29642SOL    HW290824   4.245  10.146  11.573
29643SOL     OW90825  10.624  14.491   2.761
29643SOL    HW190826  10.716  14.491   2.737
29643SOL    HW290827  10.622  14.468   2.854
29644SOL     OW90828   3.721   6.539  13.539
29644SOL    HW190829   3.720   6.538  13.634
29644SOL    HW290830   3.744   6.449  13.515
29645SOL     OW90831  12.728   9.969   5.592
29645SOL    HW190832  12.751   9.942   5.681
29645SOL    HW290833  12.673  10.047   5.604
29646SOL     OW90834   7.607  11.654   5.004
29646SOL    HW190835   7.586  11.652   5.098
29646SOL    HW290836   7.702  11.668   5.001
29647SOL     OW90837   5.377  13.190  11.038
29647SOL    HW190838   5.447  13.131  11.008
29647SOL    HW290839   5.296  13.149  11.008
29648SOL     OW90840   7.706   2.308  13.905
29648SOL    HW190841   7.622   2.264  13.893
29648SOL    HW290842   7.685   2.384  13.959
29649SOL     OW90843  14.488  10.153  12.705
29649SOL    HW190844  14.512  10.077  12.757
29649SOL    HW290845  14.424  10.120  12.641
29650SOL     OW90846  10.186   0.161   1.338
29650SOL    HW190847  10.247   0.222   1.296
29650SOL    HW290848  10.166   0.202   1.422
29651SOL     OW90849  10.072   2.099   8.819
29651SOL    HW190850  10.020   2.031   8.862
29651SOL    HW290851  10.011   2.172   8.806
29652SOL     OW90852  13.771  13.406   5.849
29652SOL    HW190853  13.833  13.425   5.920
29652SOL    HW290854  13.789  13.316   5.824
29653SOL     OW90855   2.792   5.807   6.598
29653SOL    HW190856   2.779   5.826   6.505
29653SOL    HW290857   2.821   5.716   6.600
29654SOL     OW90858   2.754   6.389  13.063
29654SOL    HW190859   2.698   6.311  13.055
29654SOL    HW290860   2.789   6.401  12.975
29655SOL     OW90861   8.750  10.575   0.213
29655SOL    HW190862   8.794  10.603   0.133
29655SOL    HW290863   8.708  10.491   0.190
29656SOL     OW90864   0.902   2.330   9.658
29656SOL    HW190865   0.886   2.422   9.679
29656SOL    HW290866   0.956   2.333   9.578
29657SOL     OW90867  13.719   4.005  12.105
29657SOL    HW190868  13.794   4.035  12.053
29657SOL    HW290869  13.659   3.967  12.040
29658SOL     OW90870   0.934  10.805   1.346
29658SOL    HW190871   0.972  10.882   1.304
29658SOL    HW290872   1.009  10.752   1.373
29659SOL     OW90873   0.833   8.998   5.411
29659SOL    HW190874   0.840   9.078   5.463
29659SOL    HW290875   0.739   8.989   5.394
29660SOL     OW90876   2.419   1.690  11.091
29660SOL    HW190877   2.431   1.724  11.003
29660SOL    HW290878   2.332   1.651  11.091
29661SOL     OW90879  11.411   6.334  10.389
29661SOL    HW190880  11.367   6.311  10.307
29661SOL    HW290881  11.469   6.406  10.365
29662SOL     OW90882   6.710   2.530  12.549
29662SOL    HW190883   6.669   2.494  12.627
29662SOL    HW290884   6.796   2.561  12.578
29663SOL     OW90885  13.480   4.915   0.981
29663SOL    HW190886  13.478   5.009   0.995
29663SOL    HW290887  13.436   4.903   0.896
29664SOL     OW90888  10.429   4.773   5.066
29664SOL    HW190889  10.468   4.704   5.013
29664SOL    HW290890  10.353   4.732   5.108
29665SOL     OW90891   7.214   8.114   6.315
29665SOL    HW190892   7.136   8.154   6.275
29665SOL    HW290893   7.179   8.059   6.385
29666SOL     OW90894   3.596  12.223  10.196
29666SOL    HW190895   3.553  12.228  10.281
29666SOL    HW290896   3.609  12.130  10.181
29667SOL     OW90897   4.274   4.445  12.791
29667SOL    HW190898   4.316   4.387  12.855
29667SOL    HW290899   4.215   4.388  12.742
29668SOL     OW90900   5.460   8.510   7.844
29668SOL    HW190901   5.407   8.446   7.797
29668SOL    HW290902   5.550   8.493   7.815
29669SOL     OW90903   9.566   8.481   0.057
29669SOL    HW190904   9.632   8.524   0.004
29669SOL    HW290905   9.603   8.477   0.145
29670SOL     OW90906   0.132   0.652  12.882
29670SOL    HW190907   0.184   0.608  12.815
29670SOL    HW290908   0.043   0.654  12.846
29671SOL     OW90909   2.767   6.202  14.002
29671SOL    HW190910   2.729   6.200  13.914
29671SOL    HW290911   2.847   6.253  13.992
29672SOL     OW90912   8.469   2.784  12.816
29672SOL    HW190913   8.482   2.709  12.758
29672SOL    HW290914   8.470   2.747  12.904
29673SOL     OW90915  10.342   4.395   5.194
29673SOL    HW190916  10.286   4.360   5.125
29673SOL    HW290917  10.284   4.406   5.269
29674SOL     OW90918   2.944   2.145   4.730
29674SOL    HW190919   2.873   2.209   4.740
29674SOL    HW290920   2.901   2.066   4.697
29675SOL     OW90921   7.890  13.997  10.458
29675SOL    HW190922   7.914  13.904  10.458
29675SOL    HW290923   7.853  14.012  10.545
29676SOL     OW90924   6.581   1.668  10.731
29676SOL    HW190925   6.583   1.731  10.658
29676SOL    HW290926   6.612   1.717  10.806
29677SOL     OW90927  13.482   2.171  12.490
29677SOL    HW190928  13.423   2.168  12.415
29677SOL    HW290929  13.438   2.119  12.557
29678SOL     OW90930  12.173  13.791   3.320
29678SOL    HW190931  12.152  13.869   3.268
29678SOL    HW290932  12.143  13.812   3.408
29679SOL     OW90933  14.845  10.519   4.963
29679SOL    HW190934  14.774  10.541   4.903
29679SOL    HW290935  14.803  10.469   5.033
29680SOL     OW90936   6.571  12.579   4.518
29680SOL    HW190937   6.548  12.524   4.592
29680SOL    HW290938   6.505  12.560   4.452
29681SOL     OW90939   9.680   6.310  10.015
29681SOL    HW190940   9.625   6.261  10.075
29681SOL    HW290941   9.742   6.245   9.980
29682SOL     OW90942   1.102  11.187   2.904
29682SOL    HW190943   1.032  11.214   2.845
29682SOL    HW290944   1.059  11.130   2.967
29683SOL     OW90945  11.465  11.872   3.784
29683SOL    HW190946  11.435  11.782   3.796
29683SOL    HW290947  11.453  11.889   3.691
29684SOL     OW90948  13.230  12.251   7.676
29684SOL    HW190949  13.308  12.288   7.636
29684SOL    HW290950  13.160  12.269   7.613
29685SOL     OW90951   8.565   5.797   2.902
29685SOL    HW190952   8.586   5.832   2.989
29685SOL    HW290953   8.518   5.716   2.920
29686SOL     OW90954  11.425   0.338   1.009
29686SOL    HW190955  11.483   0.331   0.933
29686SOL    HW290956  11.461   0.411   1.059
29687SOL     OW90957  12.756   7.705   7.698
29687SOL    HW190958  12.686   7.647   7.728
29687SOL    HW290959  12.726   7.739   7.614
29688SOL     OW90960   2.141   3.589   8.469
29688SOL    HW190961   2.108   3.613   8.556
29688SOL    HW290962   2.194   3.663   8.442
29689SOL     OW90963   6.059   0.076   7.459
29689SOL    HW190964   6.140   0.053   7.413
29689SOL    HW290965   6.020  14.860   7.481
29690SOL     OW90966   0.261   9.995   2.042
29690SOL    HW190967   0.300  10.046   2.113
29690SOL    HW290968   0.317   9.918   2.034
29691SOL     OW90969   9.410  13.128   8.655
29691SOL    HW190970   9.400  13.220   8.633
29691SOL    HW290971   9.443  13.087   8.575
29692SOL     OW90972  13.457   9.999   7.791
29692SOL    HW190973  13.399  10.038   7.726
29692SOL    HW290974  13.540   9.985   7.745
29693SOL     OW90975  10.548   2.831  10.021
29693SOL    HW190976  10.502   2.853   9.940
29693SOL    HW290977  10.543   2.736  10.027
29694SOL     OW90978  12.972   4.959   9.590
29694SOL    HW190979  12.885   4.949   9.553
29694SOL    HW290980  12.981   5.053   9.607
29695SOL     OW90981   8.047   8.642   3.702
29695SOL    HW190982   8.109   8.586   3.749
29695SOL    HW290983   7.961   8.612   3.731
29696SOL     OW90984   9.595   2.557   9.469
29696SOL    HW190985   9.614   2.556   9.375
29696SOL    HW290986   9.621   2.644   9.498
29697SOL     OW90987  13.884  10.480   7.606
29697SOL    HW190988  13.893  10.546   7.538
29697SOL    HW290989  13.901  10.527   7.688
29698SOL     OW90990   4.033  11.733   7.184
29698SOL    HW190991   4.076  11.673   7.245
29698SOL    HW290992   4.012  11.810   7.236
29699SOL     OW90993   5.523   3.138   9.823
29699SOL    HW190994   5.506   3.232   9.820
29699SOL    HW290995   5.483   3.104   9.744
29700SOL     OW90996   3.830   7.211   5.382
29700SOL    HW190997   3.904   7.271   5.374
29700SOL    HW290998   3.765   7.258   5.433
29701SOL     OW90999   4.138   4.646   2.387
29701SOL    HW191000   4.217   4.610   2.429
29701SOL    HW291001   4.171   4.693   2.311
29702SOL     OW91002  11.491  13.673   6.224
29702SOL    HW191003  11.407  13.648   6.262
29702SOL    HW291004  11.505  13.608   6.155
29703SOL     OW91005  10.438  11.812  10.542
29703SOL    HW191006  10.448  11.718  10.559
29703SOL    HW291007  10.455  11.820  10.448
29704SOL     OW91008  14.139   0.613  14.706
29704SOL    HW191009  14.196   0.559  14.651
29704SOL    HW291010  14.199   0.672  14.751
29705SOL     OW91011   5.970   1.052  10.692
29705SOL    HW191012   5.899   1.038  10.755
29705SOL    HW291013   5.948   1.136  10.650
29706SOL     OW91014   8.725  12.363  14.294
29706SOL    HW191015   8.800  12.304  14.292
29706SOL    HW291016   8.723  12.396  14.384
29707SOL     OW91017  14.020   5.788   1.412
29707SOL    HW191018  14.040   5.881   1.419
29707SOL    HW291019  13.949   5.784   1.347
29708SOL     OW91020  10.798   1.905   8.741
29708SOL    HW191021  10.872   1.871   8.792
29708SOL    HW291022  10.751   1.961   8.802
29709SOL     OW91023   6.474   5.583   9.954
29709SOL    HW191024   6.514   5.576  10.040
29709SOL    HW291025   6.405   5.649   9.964
29710SOL     OW91026   2.782   9.801   2.291
29710SOL    HW191027   2.768   9.825   2.199
29710SOL    HW291028   2.777   9.884   2.338
29711SOL     OW91029  11.011   7.047   2.045
29711SOL    HW191030  10.974   6.977   1.990
29711SOL    HW291031  10.940   7.111   2.052
29712SOL     OW91032  13.199   6.592   3.742
29712SOL    HW191033  13.161   6.594   3.830
29712SOL    HW291034  13.261   6.665   3.741
29713SOL     OW91035   0.358  14.332   9.129
29713SOL    HW191036   0.417  14.381   9.187
29713SOL    HW291037   0.291  14.297   9.188
29714SOL     OW91038   2.905   1.516   2.567
29714SOL    HW191039   2.864   1.466   2.637
29714SOL    HW291040   2.857   1.599   2.566
29715SOL     OW91041   1.939   3.077   1.790
29715SOL    HW191042   1.900   3.054   1.874
29715SOL    HW291043   2.031   3.097   1.810
29716SOL     OW91044  14.285  12.632   8.153
29716SOL    HW191045  14.305  12.539   8.157
29716SOL    HW291046  14.263  12.656   8.243
29717SOL     OW91047  12.857   9.118   2.453
29717SOL    HW191048  12.837   9.054   2.521
29717SOL    HW291049  12.794   9.099   2.384
29718SOL     OW91050   9.068  12.410  14.133
29718SOL    HW191051   9.129  12.345  14.097
29718SOL    HW291052   9.082  12.406  14.228
29719SOL     OW91053  11.271  12.119   0.973
29719SOL    HW191054  11.242  12.030   0.993
29719SOL    HW291055  11.203  12.154   0.916
29720SOL     OW91056   6.801  13.525   4.875
29720SOL    HW191057   6.845  13.442   4.892
29720SOL    HW291058   6.864  13.591   4.904
29721SOL     OW91059   3.479   4.621   7.287
29721SOL    HW191060   3.472   4.526   7.277
29721SOL    HW291061   3.419   4.657   7.222
29722SOL     OW91062  10.675  10.140   5.263
29722SOL    HW191063  10.676  10.225   5.308
29722SOL    HW291064  10.586  10.132   5.229
29723SOL     OW91065  13.782   8.521  11.813
29723SOL    HW191066  13.765   8.428  11.798
29723SOL    HW291067  13.826   8.551  11.733
29724SOL     OW91068   7.383   6.202  14.331
29724SOL    HW191069   7.407   6.147  14.255
29724SOL    HW291070   7.291   6.221  14.319
29725SOL     OW91071   8.722  11.594  12.530
29725SOL    HW191072   8.691  11.506  12.507
29725SOL    HW291073   8.696  11.649  12.456
29726SOL     OW91074   8.734  14.606   4.016
29726SOL    HW191075   8.763  14.691   4.050
29726SOL    HW291076   8.642  14.600   4.041
29727SOL     OW91077   1.635  13.490  14.570
29727SOL    HW191078   1.701  13.436  14.613
29727SOL    HW291079   1.571  13.427  14.536
29728SOL     OW91080   9.355   3.671  12.328
29728SOL    HW191081   9.293   3.608  12.292
29728SOL    HW291082   9.333   3.753  12.284
29729SOL     OW91083   8.525  13.745  13.184
29729SOL    HW191084   8.547  13.772  13.273
29729SOL    HW291085   8.438  13.782  13.169
29730SOL     OW91086  13.587   1.884   3.291
29730SOL    HW191087  13.632   1.883   3.207
29730SOL    HW291088  13.544   1.798   3.296
29731SOL     OW91089   3.794   0.813  13.509
29731SOL    HW191090   3.807   0.869  13.585
29731SOL    HW291091   3.734   0.745  13.539
29732SOL     OW91092  14.728   4.556  14.228
29732SOL    HW191093  14.805   4.576  14.176
29732SOL    HW291094  14.743   4.468  14.262
29733SOL     OW91095  13.411  10.993   7.589
29733SOL    HW191096  13.360  11.073   7.604
29733SOL    HW291097  13.440  11.000   7.498
29734SOL     OW91098   8.013   9.160   3.069
29734SOL    HW191099   7.958   9.214   3.127
29734SOL    HW291100   8.026   9.078   3.117
29735SOL     OW91101  10.197   7.844  12.096
29735SOL    HW191102  10.106   7.861  12.118
29735SOL    HW291103  10.203   7.863  12.002
29736SOL     OW91104   6.567  13.611  13.867
29736SOL    HW191105   6.512  13.543  13.906
29736SOL    HW291106   6.560  13.597  13.773
29737SOL     OW91107   7.690   2.385   2.752
29737SOL    HW191108   7.681   2.386   2.847
29737SOL    HW291109   7.672   2.475   2.725
29738SOL     OW91110   1.692  12.529  12.208
29738SOL    HW191111   1.774  12.524  12.159
29738SOL    HW291112   1.707  12.473  12.285
29739SOL     OW91113  12.510   3.276   4.023
29739SOL    HW191114  12.502   3.325   3.941
29739SOL    HW291115  12.463   3.194   4.006
29740SOL     OW91116   0.786  14.170   2.857
29740SOL    HW191117   0.769  14.245   2.914
29740SOL    HW291118   0.860  14.125   2.898
29741SOL     OW91119   3.018   0.882  11.690
29741SOL    HW191120   2.998   0.896  11.782
29741SOL    HW291121   3.084   0.947  11.670
29742SOL     OW91122   8.959   6.367  11.427
29742SOL    HW191123   8.968   6.404  11.515
29742SOL    HW291124   8.960   6.443  11.369
29743SOL     OW91125   6.778  10.860  13.241
29743SOL    HW191126   6.690  10.846  13.276
29743SOL    HW291127   6.787  10.955  13.236
29744SOL     OW91128   1.270   4.097  11.639
29744SOL    HW191129   1.233   4.092  11.727
29744SOL    HW291130   1.252   4.011  11.600
29745SOL     OW91131  14.415   7.265   1.807
29745SOL    HW191132  14.402   7.334   1.741
29745SOL    HW291133  14.463   7.309   1.877
29746SOL     OW91134   4.199   9.300  11.087
29746SOL    HW191135   4.264   9.340  11.030
29746SOL    HW291136   4.119   9.299  11.034
29747SOL     OW91137   3.760   4.032  11.370
29747SOL    HW191138   3.796   4.067  11.452
29747SOL    HW291139   3.772   3.937  11.377
29748SOL     OW91140   1.952   3.852   0.992
29748SOL    HW191141   1.997   3.857   0.908
29748SOL    HW291142   1.939   3.944   1.017
29749SOL     OW91143  12.876   9.049   6.161
29749SOL    HW191144  12.825   9.118   6.203
29749SOL    HW291145  12.830   9.033   6.078
29750SOL     OW91146   9.360  13.992   0.783
29750SOL    HW191147   9.291  13.933   0.811
29750SOL    HW291148   9.412  13.940   0.721
29751SOL     OW91149  10.783   1.667   8.255
29751SOL    HW191150  10.849   1.712   8.306
29751SOL    HW291151  10.816   1.577   8.247
29752SOL     OW91152  10.121   0.268   1.581
29752SOL    HW191153  10.074   0.341   1.540
29752SOL    HW291154  10.088   0.265   1.671
29753SOL     OW91155   5.651   9.540   2.283
29753SOL    HW191156   5.570   9.507   2.324
29753SOL    HW291157   5.642   9.635   2.285
29754SOL     OW91158   5.024  13.445   4.516
29754SOL    HW191159   4.979  13.363   4.493
29754SOL    HW291160   5.042  13.437   4.610
29755SOL     OW91161  11.324   8.191   1.279
29755SOL    HW191162  11.393   8.130   1.254
29755SOL    HW291163  11.248   8.163   1.229
29756SOL     OW91164   8.690   1.349   9.370
29756SOL    HW191165   8.656   1.278   9.425
29756SOL    HW291166   8.775   1.318   9.340
29757SOL     OW91167   9.443   5.192  12.949
29757SOL    HW191168   9.456   5.199  12.855
29757SOL    HW291169   9.350   5.173  12.959
29758SOL     OW91170  10.308   9.963   8.695
29758SOL    HW191171  10.286   9.955   8.603
29758SOL    HW291172  10.301  10.057   8.714
29759SOL     OW91173   3.426   1.678   6.832
29759SOL    HW191174   3.430   1.592   6.874
29759SOL    HW291175   3.505   1.723   6.861
29760SOL     OW91176   4.834   9.840   6.410
29760SOL    HW191177   4.929   9.836   6.401
29760SOL    HW291178   4.801   9.777   6.346
29761SOL     OW91179   9.400   7.921   0.929
29761SOL    HW191180   9.417   7.934   1.022
29761SOL    HW291181   9.403   7.826   0.916
29762SOL     OW91182  11.758   9.205   6.520
29762SOL    HW191183  11.851   9.208   6.497
29762SOL    HW291184  11.744   9.117   6.553
29763SOL     OW91185   0.591  13.590   7.935
29763SOL    HW191186   0.570  13.550   7.850
29763SOL    HW291187   0.507  13.597   7.980
29764SOL     OW91188  11.336   6.404   5.249
29764SOL    HW191189  11.366   6.466   5.183
29764SOL    HW291190  11.335   6.320   5.203
29765SOL     OW91191  14.228  10.445   4.537
29765SOL    HW191192  14.152  10.502   4.543
29765SOL    HW291193  14.294  10.498   4.492
29766SOL     OW91194  12.566   4.043   4.803
29766SOL    HW191195  12.539   4.047   4.711
29766SOL    HW291196  12.579   4.135   4.828
29767SOL     OW91197   6.070   5.225   2.170
29767SOL    HW191198   6.093   5.220   2.077
29767SOL    HW291199   5.994   5.167   2.179
29768SOL     OW91200   4.507   1.903  10.948
29768SOL    HW191201   4.560   1.916  10.869
29768SOL    HW291202   4.424   1.869  10.915
29769SOL     OW91203   0.230  12.845  10.090
29769SOL    HW191204   0.266  12.763  10.057
29769SOL    HW291205   0.304  12.906  10.090
29770SOL     OW91206   2.925   4.032   2.067
29770SOL    HW191207   2.863   4.035   2.140
29770SOL    HW291208   2.958   4.121   2.060
29771SOL     OW91209  14.594   6.324   4.394
29771SOL    HW191210  14.548   6.262   4.450
29771SOL    HW291211  14.628   6.271   4.322
29772SOL     OW91212   4.422   9.118  13.126
29772SOL    HW191213   4.378   9.075  13.053
29772SOL    HW291214   4.354   9.170  13.168
29773SOL     OW91215   2.740   5.899   6.342
29773SOL    HW191216   2.705   5.986   6.322
29773SOL    HW291217   2.811   5.886   6.279
29774SOL     OW91218   3.096  11.510  13.141
29774SOL    HW191219   3.088  11.573  13.070
29774SOL    HW291220   3.163  11.449  13.111
29775SOL     OW91221   2.317   0.327   8.575
29775SOL    HW191222   2.246   0.362   8.520
29775SOL    HW291223   2.397   0.356   8.531
29776SOL     OW91224   7.723   4.227  11.419
29776SOL    HW191225   7.738   4.318  11.444
29776SOL    HW291226   7.650   4.199  11.475
29777SOL     OW91227   3.456   6.946  14.643
29777SOL    HW191228   3.485   6.861  14.676
29777SOL    HW291229   3.414   6.988  14.717
29778SOL     OW91230   3.016   1.820   1.001
29778SOL    HW191231   3.028   1.729   0.974
29778SOL    HW291232   3.079   1.869   0.948
29779SOL     OW91233   2.960  13.377   4.221
29779SOL    HW191234   3.050  13.367   4.190
29779SOL    HW291235   2.953  13.470   4.243
29780SOL     OW91236   7.811  12.753  12.015
29780SOL    HW191237   7.732  12.727  12.064
29780SOL    HW291238   7.883  12.717  12.066
29781SOL     OW91239   0.267   5.396  13.661
29781SOL    HW191240   0.279   5.452  13.737
29781SOL    HW291241   0.181   5.356  13.673
29782SOL     OW91242   2.519   0.792   6.259
29782SOL    HW191243   2.493   0.705   6.289
29782SOL    HW291244   2.473   0.852   6.318
29783SOL     OW91245  11.622  12.584   6.675
29783SOL    HW191246  11.639  12.678   6.668
29783SOL    HW291247  11.706  12.543   6.657
29784SOL     OW91248   7.760   2.842  13.187
29784SOL    HW191249   7.772   2.935  13.205
29784SOL    HW291250   7.829   2.820  13.125
29785SOL     OW91251   9.205   2.072   9.120
29785SOL    HW191252   9.126   2.108   9.080
29785SOL    HW291253   9.250   2.149   9.157
29786SOL     OW91254   5.258  13.643  13.426
29786SOL    HW191255   5.214  13.727  13.437
29786SOL    HW291256   5.345  13.666  13.393
29787SOL     OW91257   3.444   1.693   2.732
29787SOL    HW191258   3.394   1.740   2.799
29787SOL    HW291259   3.517   1.653   2.779
29788SOL     OW91260   0.976   0.965   9.054
29788SOL    HW191261   0.915   0.997   8.988
29788SOL    HW291262   0.941   0.999   9.137
29789SOL     OW91263   3.699   9.627  10.982
29789SOL    HW191264   3.723   9.662  11.067
29789SOL    HW291265   3.608   9.654  10.970
29790SOL     OW91266   1.445   7.418   7.746
29790SOL    HW191267   1.414   7.369   7.822
29790SOL    HW291268   1.527   7.375   7.721
29791SOL     OW91269   9.806   0.713   7.030
29791SOL    HW191270   9.816   0.618   7.028
29791SOL    HW291271   9.714   0.728   7.011
29792SOL     OW91272  11.379   5.236  11.907
29792SOL    HW191273  11.465   5.229  11.950
29792SOL    HW291274  11.336   5.308  11.953
29793SOL     OW91275   7.590   8.306  10.273
29793SOL    HW191276   7.552   8.355  10.346
29793SOL    HW291277   7.543   8.222  10.273
29794SOL     OW91278  12.281  14.122   5.483
29794SOL    HW191279  12.251  14.172   5.559
29794SOL    HW291280  12.214  14.055   5.470
29795SOL     OW91281  14.605   3.760   1.368
29795SOL    HW191282  14.519   3.721   1.352
29795SOL    HW291283  14.658   3.687   1.401
29796SOL     OW91284   3.024   5.137  13.637
29796SOL    HW191285   3.048   5.045  13.626
29796SOL    HW291286   2.990   5.142  13.726
29797SOL     OW91287   1.621  13.704  13.793
29797SOL    HW191288   1.649  13.767  13.727
29797SOL    HW291289   1.609  13.755  13.873
29798SOL     OW91290  10.802   1.839   7.459
29798SOL    HW191291  10.851   1.848   7.377
29798SOL    HW291292  10.851   1.892   7.522
29799SOL     OW91293   9.758   4.839   3.483
29799SOL    HW191294   9.706   4.787   3.422
29799SOL    HW291295   9.693   4.887   3.535
29800SOL     OW91296   4.623   8.345  13.294
29800SOL    HW191297   4.561   8.291  13.244
29800SOL    HW291298   4.702   8.346  13.241
29801SOL     OW91299   2.022  14.806   0.599
29801SOL    HW191300   1.974   0.012   0.563
29801SOL    HW291301   2.015  14.816   0.693
29802SOL     OW91302   1.032   7.356   6.341
29802SOL    HW191303   1.076   7.298   6.404
29802SOL    HW291304   1.093   7.361   6.267
29803SOL     OW91305  12.803   8.548   8.056
29803SOL    HW191306  12.824   8.484   7.988
29803SOL    HW291307  12.718   8.519   8.091
29804SOL     OW91308  14.704   2.924  11.212
29804SOL    HW191309  14.694   3.003  11.159
29804SOL    HW291310  14.772   2.946  11.275
29805SOL     OW91311   0.512  10.164   6.209
29805SOL    HW191312   0.607  10.167   6.224
29805SOL    HW291313   0.478  10.111   6.281
29806SOL     OW91314   7.675   7.297   4.985
29806SOL    HW191315   7.680   7.207   5.019
29806SOL    HW291316   7.756   7.308   4.935
29807SOL     OW91317   0.180   8.527   0.862
29807SOL    HW191318   0.168   8.433   0.877
29807SOL    HW291319   0.095   8.557   0.830
29808SOL     OW91320   9.928   0.322   3.973
29808SOL    HW191321   9.895   0.303   4.061
29808SOL    HW291322  10.002   0.380   3.986
29809SOL     OW91323  13.979   0.622   0.592
29809SOL    HW191324  13.965   0.716   0.605
29809SOL    HW291325  13.959   0.583   0.677
29810SOL     OW91326   0.398  13.386   9.357
29810SOL    HW191327   0.470  13.339   9.315
29810SOL    HW291328   0.329  13.388   9.290
29811SOL     OW91329   6.765   4.787  12.418
29811SOL    HW191330   6.755   4.790  12.323
29811SOL    HW291331   6.698   4.725  12.448
29812SOL     OW91332   7.968  12.459  10.991
29812SOL    HW191333   7.938  12.393  10.929
29812SOL    HW291334   7.891  12.512  11.009
29813SOL     OW91335  13.295   4.868   6.065
29813SOL    HW191336  13.228   4.905   6.123
29813SOL    HW291337  13.307   4.779   6.096
29814SOL     OW91338  10.659   1.154   5.092
29814SOL    HW191339  10.592   1.097   5.054
29814SOL    HW291340  10.723   1.166   5.022
29815SOL     OW91341  11.837  11.043  10.521
29815SOL    HW191342  11.790  11.085  10.593
29815SOL    HW291343  11.920  11.090  10.516
29816SOL     OW91344   5.783   7.782  14.572
29816SOL    HW191345   5.869   7.759  14.537
29816SOL    HW291346   5.756   7.858  14.521
29817SOL     OW91347   0.362   2.929   3.570
29817SOL    HW191348   0.307   2.859   3.605
29817SOL    HW291349   0.440   2.884   3.536
29818SOL     OW91350   5.865  14.741   1.882
29818SOL    HW191351   5.793  14.746   1.945
29818SOL    HW291352   5.825  14.766   1.798
29819SOL     OW91353  11.227   2.625  14.470
29819SOL    HW191354  11.229   2.700  14.411
29819SOL    HW291355  11.290   2.647  14.539
29820SOL     OW91356   8.380   3.667   1.124
29820SOL    HW191357   8.384   3.640   1.216
29820SOL    HW291358   8.340   3.593   1.079
29821SOL     OW91359   9.233   3.943   9.005
29821SOL    HW191360   9.138   3.934   9.007
29821SOL    HW291361   9.262   3.902   9.087
29822SOL     OW91362   2.414   5.283  11.281
29822SOL    HW191363   2.464   5.344  11.227
29822SOL    HW291364   2.453   5.289  11.368
29823SOL     OW91365   4.261  13.388  11.688
29823SOL    HW191366   4.238  13.349  11.772
29823SOL    HW291367   4.178  13.393  11.641
29824SOL     OW91368   8.353  14.369   9.887
29824SOL    HW191369   8.324  14.279   9.877
29824SOL    HW291370   8.427  14.363   9.949
29825SOL     OW91371   2.699   4.034   3.759
29825SOL    HW191372   2.753   3.955   3.754
29825SOL    HW291373   2.707   4.063   3.850
29826SOL     OW91374   7.144   2.964   4.802
29826SOL    HW191375   7.099   3.043   4.772
29826SOL    HW291376   7.234   2.974   4.771
29827SOL     OW91377   5.125  13.432   2.030
29827SOL    HW191378   5.030  13.435   2.021
29827SOL    HW291379   5.154  13.376   1.958
29828SOL     OW91380   7.237   1.033  14.242
29828SOL    HW191381   7.181   1.098  14.283
29828SOL    HW291382   7.200   0.949  14.269
29829SOL     OW91383   4.926   3.239  10.223
29829SOL    HW191384   4.843   3.286  10.233
29829SOL    HW291385   4.977   3.263  10.300
29830SOL     OW91386   1.584  13.550  13.324
29830SOL    HW191387   1.493  13.572  13.345
29830SOL    HW291388   1.595  13.581  13.234
29831SOL     OW91389   0.697   6.766  11.264
29831SOL    HW191390   0.747   6.753  11.345
29831SOL    HW291391   0.620   6.710  11.274
29832SOL     OW91392   5.036  14.365   6.273
29832SOL    HW191393   4.980  14.379   6.197
29832SOL    HW291394   5.050  14.452   6.310
29833SOL     OW91395   0.421   5.126  14.781
29833SOL    HW191396   0.450   5.175  14.857
29833SOL    HW291397   0.481   5.150  14.711
29834SOL     OW91398   3.476   0.019   2.248
29834SOL    HW191399   3.412  14.820   2.226
29834SOL    HW291400   3.501  14.868   2.338
29835SOL     OW91401  12.944   3.941   9.098
29835SOL    HW191402  12.934   4.007   9.167
29835SOL    HW291403  12.966   3.861   9.146
29836SOL     OW91404  10.814   9.252   1.872
29836SOL    HW191405  10.838   9.172   1.825
29836SOL    HW291406  10.788   9.222   1.959
29837SOL     OW91407   1.628   3.262   4.819
29837SOL    HW191408   1.535   3.248   4.801
29837SOL    HW291409   1.650   3.343   4.773
29838SOL     OW91410   3.441  13.184   7.603
29838SOL    HW191411   3.517  13.240   7.594
29838SOL    HW291412   3.436  13.137   7.520
29839SOL     OW91413  14.509  14.621  11.038
29839SOL    HW191414  14.587  14.664  11.073
29839SOL    HW291415  14.486  14.672  10.960
29840SOL     OW91416   0.197   6.788  10.061
29840SOL    HW191417   0.142   6.845  10.006
29840SOL    HW291418   0.136   6.723  10.096
29841SOL     OW91419   0.099   4.372   8.741
29841SOL    HW191420   0.127   4.293   8.696
29841SOL    HW291421   0.155   4.377   8.819
29842SOL     OW91422   1.631  12.835   4.216
29842SOL    HW191423   1.664  12.750   4.186
29842SOL    HW291424   1.635  12.830   4.311
29843SOL     OW91425  13.548   9.559  14.568
29843SOL    HW191426  13.520   9.638  14.614
29843SOL    HW291427  13.640   9.550  14.590
29844SOL     OW91428  10.843   4.986   9.660
29844SOL    HW191429  10.907   5.038   9.709
29844SOL    HW291430  10.888   4.964   9.579
29845SOL     OW91431   4.468  11.479   8.774
29845SOL    HW191432   4.391  11.495   8.828
29845SOL    HW291433   4.444  11.512   8.687
29846SOL     OW91434  10.435   8.769  14.672
29846SOL    HW191435  10.472   8.716  14.601
29846SOL    HW291436  10.508   8.783  14.732
29847SOL     OW91437   4.100  12.979   2.474
29847SOL    HW191438   4.126  13.055   2.423
29847SOL    HW291439   4.007  12.968   2.454
29848SOL     OW91440   3.082   1.341  14.678
29848SOL    HW191441   3.059   1.370  14.590
29848SOL    HW291442   3.173   1.312  14.671
29849SOL     OW91443  10.696   0.934   6.826
29849SOL    HW191444  10.609   0.972   6.812
29849SOL    HW291445  10.679   0.858   6.881
29850SOL     OW91446  11.965  12.329   2.559
29850SOL    HW191447  11.874  12.302   2.572
29850SOL    HW291448  11.970  12.352   2.466
29851SOL     OW91449  11.222   7.781   4.016
29851SOL    HW191450  11.176   7.813   3.938
29851SOL    HW291451  11.157   7.786   4.086
29852SOL     OW91452   3.820   1.259  13.210
29852SOL    HW191453   3.829   1.337  13.264
29852SOL    HW291454   3.804   1.188  13.272
29853SOL     OW91455  11.180   9.511   6.671
29853SOL    HW191456  11.107   9.542   6.725
29853SOL    HW291457  11.144   9.508   6.582
29854SOL     OW91458   3.016  11.531   4.019
29854SOL    HW191459   2.975  11.533   4.105
29854SOL    HW291460   2.950  11.492   3.962
29855SOL     OW91461   0.178  12.308   3.866
29855SOL    HW191462   0.135  12.385   3.902
29855SOL    HW291463   0.138  12.295   3.780
29856SOL     OW91464  11.115   8.413   3.341
29856SOL    HW191465  11.022   8.429   3.355
29856SOL    HW291466  11.159   8.465   3.409
29857SOL     OW91467   8.278  14.421   6.999
29857SOL    HW191468   8.209  14.477   7.033
29857SOL    HW291469   8.295  14.455   6.911
29858SOL     OW91470   9.921   7.091   6.898
29858SOL    HW191471   9.963   7.163   6.852
29858SOL    HW291472   9.980   7.017   6.886
29859SOL     OW91473   8.990  11.227   6.120
29859SOL    HW191474   9.010  11.203   6.211
29859SOL    HW291475   8.946  11.150   6.084
29860SOL     OW91476  10.169   9.941  12.618
29860SOL    HW191477  10.245   9.903  12.662
29860SOL    HW291478  10.100   9.876  12.627
29861SOL     OW91479   5.365  12.320   7.737
29861SOL    HW191480   5.357  12.402   7.785
29861SOL    HW291481   5.456  12.317   7.708
29862SOL     OW91482   7.008   3.484  12.509
29862SOL    HW191483   7.053   3.459  12.590
29862SOL    HW291484   7.028   3.415  12.447
29863SOL     OW91485  13.094   0.557   0.163
29863SOL    HW191486  13.165   0.611   0.128
29863SOL    HW291487  13.092   0.578   0.256
29864SOL     OW91488   0.247   4.662   8.974
29864SOL    HW191489   0.158   4.692   8.956
29864SOL    HW291490   0.245   4.633   9.065
29865SOL     OW91491   3.689   0.202  12.964
29865SOL    HW191492   3.681   0.143  13.039
29865SOL    HW291493   3.723   0.283  13.002
29866SOL     OW91494   0.324  11.646   6.338
29866SOL    HW191495   0.382  11.583   6.381
29866SOL    HW291496   0.237  11.625   6.371
29867SOL     OW91497   1.502   3.110  12.672
29867SOL    HW191498   1.580   3.091  12.620
29867SOL    HW291499   1.484   3.028  12.719
29868SOL     OW91500   9.770   8.325   8.726
29868SOL    HW191501   9.794   8.370   8.807
29868SOL    HW291502   9.714   8.387   8.680
29869SOL     OW91503   6.442   7.969   0.516
29869SOL    HW191504   6.478   8.011   0.438
29869SOL    HW291505   6.348   7.991   0.513
29870SOL     OW91506  12.106   0.528  14.439
29870SOL    HW191507  12.106   0.438  14.473
29870SOL    HW291508  12.055   0.578  14.502
29871SOL     OW91509   6.609   9.057  13.153
29871SOL    HW191510   6.610   8.974  13.107
29871SOL    HW291511   6.675   9.110  13.109
29872SOL     OW91512   9.593   1.316   2.065
29872SOL    HW191513   9.638   1.284   1.987
29872SOL    HW291514   9.539   1.388   2.033
29873SOL     OW91515   4.300  10.244  11.107
29873SOL    HW191516   4.371  10.230  11.169
29873SOL    HW291517   4.221  10.246  11.161
29874SOL     OW91518   6.504  13.399   6.771
29874SOL    HW191519   6.450  13.449   6.711
29874SOL    HW291520   6.592  13.435   6.761
29875SOL     OW91521   3.315   1.912   7.625
29875SOL    HW191522   3.315   1.930   7.531
29875SOL    HW291523   3.273   1.989   7.664
29876SOL     OW91524  13.712  13.376  13.661
29876SOL    HW191525  13.699  13.307  13.595
29876SOL    HW291526  13.776  13.339  13.722
29877SOL     OW91527   2.692   9.847   2.025
29877SOL    HW191528   2.668   9.928   1.979
29877SOL    HW291529   2.748   9.800   1.963
29878SOL     OW91530  12.241   3.410  11.611
29878SOL    HW191531  12.171   3.350  11.583
29878SOL    HW291532  12.197   3.494  11.622
29879SOL     OW91533   8.850   5.577   3.788
29879SOL    HW191534   8.790   5.581   3.713
29879SOL    HW291535   8.802   5.618   3.859
29880SOL     OW91536   1.386  14.608   3.115
29880SOL    HW191537   1.293  14.585   3.106
29880SOL    HW291538   1.407  14.656   3.036
29881SOL     OW91539  12.555  13.882   8.262
29881SOL    HW191540  12.582  13.803   8.309
29881SOL    HW291541  12.576  13.864   8.170
29882SOL     OW91542   8.116  10.144   2.056
29882SOL    HW191543   8.076  10.106   1.977
29882SOL    HW291544   8.211  10.135   2.041
29883SOL     OW91545   7.959  10.167   3.422
29883SOL    HW191546   8.046  10.198   3.395
29883SOL    HW291547   7.922  10.129   3.342
29884SOL     OW91548   3.405   2.974   8.000
29884SOL    HW191549   3.465   2.914   7.956
29884SOL    HW291550   3.451   2.999   8.080
29885SOL     OW91551   3.797  12.810  11.938
29885SOL    HW191552   3.769  12.780  11.851
29885SOL    HW291553   3.840  12.735  11.977
29886SOL     OW91554   3.651   7.203   3.511
29886SOL    HW191555   3.647   7.153   3.429
29886SOL    HW291556   3.565   7.192   3.550
29887SOL     OW91557  10.410   0.162   2.011
29887SOL    HW191558  10.315   0.165   2.022
29887SOL    HW291559  10.422   0.136   1.919
29888SOL     OW91560  13.804   0.302   7.757
29888SOL    HW191561  13.868   0.237   7.727
29888SOL    HW291562  13.829   0.383   7.713
29889SOL     OW91563   7.968   0.662   9.838
29889SOL    HW191564   8.036   0.657   9.771
29889SOL    HW291565   7.897   0.710   9.795
29890SOL     OW91566   6.987  11.382   7.199
29890SOL    HW191567   6.953  11.317   7.138
29890SOL    HW291568   7.056  11.427   7.151
29891SOL     OW91569   7.209   1.721  14.211
29891SOL    HW191570   7.212   1.635  14.254
29891SOL    HW291571   7.233   1.783  14.279
29892SOL     OW91572  12.382   2.408   5.145
29892SOL    HW191573  12.459   2.462   5.167
29892SOL    HW291574  12.349   2.446   5.064
29893SOL     OW91575  12.618   8.909   5.567
29893SOL    HW191576  12.714   8.901   5.570
29893SOL    HW291577  12.587   8.851   5.636
29894SOL     OW91578   4.769  11.156  14.685
29894SOL    HW191579   4.843  11.146  14.624
29894SOL    HW291580   4.717  11.077  14.673
29895SOL     OW91581   5.533  13.563   1.836
29895SOL    HW191582   5.465  13.629   1.853
29895SOL    HW291583   5.516  13.494   1.901
29896SOL     OW91584   0.790   8.460   1.331
29896SOL    HW191585   0.796   8.400   1.406
29896SOL    HW291586   0.868   8.515   1.339
29897SOL     OW91587   6.803   5.320   4.495
29897SOL    HW191588   6.720   5.273   4.489
29897SOL    HW291589   6.807   5.372   4.415
29898SOL     OW91590   1.061  12.178   1.634
29898SOL    HW191591   1.050  12.254   1.692
29898SOL    HW291592   1.072  12.216   1.547
29899SOL     OW91593   3.910  13.963  10.752
29899SOL    HW191594   3.823  13.982  10.719
29899SOL    HW291595   3.956  13.923  10.677
29900SOL     OW91596   3.169   1.528   5.164
29900SOL    HW191597   3.114   1.525   5.243
29900SOL    HW291598   3.111   1.502   5.093
29901SOL     OW91599   2.651   4.711  10.028
29901SOL    HW191600   2.714   4.749   9.967
29901SOL    HW291601   2.697   4.705  10.111
29902SOL     OW91602   2.911   7.736  11.136
29902SOL    HW191603   2.820   7.760  11.158
29902SOL    HW291604   2.914   7.742  11.040
29903SOL     OW91605   1.090   4.059   0.249
29903SOL    HW191606   1.090   3.968   0.219
29903SOL    HW291607   1.118   4.055   0.340
29904SOL     OW91608  11.386   7.850  14.720
29904SOL    HW191609  11.360   7.864  14.630
29904SOL    HW291610  11.463   7.793  14.714
29905SOL     OW91611   5.030   3.292  13.042
29905SOL    HW191612   5.029   3.197  13.046
29905SOL    HW291613   4.969   3.314  12.971
29906SOL     OW91614   6.753  13.091   5.160
29906SOL    HW191615   6.794  13.080   5.245
29906SOL    HW291616   6.793  13.025   5.104
29907SOL     OW91617  11.483   8.850  11.012
29907SOL    HW191618  11.514   8.784  10.951
29907SOL    HW291619  11.496   8.812  11.098
29908SOL     OW91620  13.078   8.328   9.939
29908SOL    HW191621  13.017   8.273   9.890
29908SOL    HW291622  13.034   8.343  10.023
29909SOL     OW91623  12.939   6.821   9.068
29909SOL    HW191624  12.985   6.844   8.987
29909SOL    HW291625  13.009   6.799   9.130
29910SOL     OW91626   6.135   1.057  13.929
29910SOL    HW191627   6.117   0.964  13.918
29910SOL    HW291628   6.054   1.101  13.902
29911SOL     OW91629  10.184   1.494   7.547
29911SOL    HW191630  10.162   1.494   7.453
29911SOL    HW291631  10.280   1.495   7.548
29912SOL     OW91632  11.496   6.611   9.861
29912SOL    HW191633  11.569   6.573   9.813
29912SOL    HW291634  11.513   6.705   9.860
29913SOL     OW91635   7.273   8.277   0.496
29913SOL    HW191636   7.344   8.311   0.442
29913SOL    HW291637   7.211   8.240   0.433
29914SOL     OW91638   2.492   6.434   6.046
29914SOL    HW191639   2.574   6.390   6.069
29914SOL    HW291640   2.519   6.503   5.985
29915SOL     OW91641   1.058  14.026  13.332
29915SOL    HW191642   1.131  13.983  13.286
29915SOL    HW291643   1.055  13.983  13.418
29916SOL     OW91644   0.788   0.884  11.017
29916SOL    HW191645   0.850   0.825  11.059
29916SOL    HW291646   0.819   0.972  11.040
29917SOL     OW91647   2.104   9.797  12.641
29917SOL    HW191648   2.147   9.776  12.724
29917SOL    HW291649   2.013   9.770  12.654
29918SOL     OW91650   1.361   1.560   9.248
29918SOL    HW191651   1.440   1.615   9.253
29918SOL    HW291652   1.291   1.620   9.223
29919SOL     OW91653   9.880   5.549   7.542
29919SOL    HW191654   9.965   5.537   7.584
29919SOL    HW291655   9.854   5.637   7.566
29920SOL     OW91656  12.649  13.376  11.570
29920SOL    HW191657  12.647  13.318  11.494
29920SOL    HW291658  12.736  13.416  11.566
29921SOL     OW91659  11.619  13.277  13.030
29921SOL    HW191660  11.528  13.253  13.048
29921SOL    HW291661  11.663  13.193  13.014
29922SOL     OW91662   6.452   5.835   1.347
29922SOL    HW191663   6.426   5.751   1.385
29922SOL    HW291664   6.462   5.816   1.253
29923SOL     OW91665  13.961   1.229   5.918
29923SOL    HW191666  14.001   1.316   5.912
29923SOL    HW291667  14.019   1.180   5.976
29924SOL     OW91668   2.741  10.057   0.337
29924SOL    HW191669   2.827  10.065   0.296
29924SOL    HW291670   2.710  10.147   0.345
29925SOL     OW91671   6.963   5.830  10.931
29925SOL    HW191672   6.996   5.888  11.000
29925SOL    HW291673   6.998   5.744  10.953
29926SOL     OW91674   8.979   9.258   3.030
29926SOL    HW191675   8.996   9.329   3.092
29926SOL    HW291676   8.953   9.184   3.085
29927SOL     OW91677   9.146  10.334   2.316
29927SOL    HW191678   9.202  10.290   2.252
29927SOL    HW291679   9.189  10.418   2.332
29928SOL     OW91680   4.983   5.081  12.056
29928SOL    HW191681   5.027   5.019  12.114
29928SOL    HW291682   4.940   5.026  11.990
29929SOL     OW91683   8.205  11.829   4.150
29929SOL    HW191684   8.266  11.806   4.080
29929SOL    HW291685   8.261  11.868   4.218
29930SOL     OW91686   3.912   0.675   0.126
29930SOL    HW191687   3.941   0.589   0.157
29930SOL    HW291688   3.928   0.672   0.032
29931SOL     OW91689   5.146   5.833  10.045
29931SOL    HW191690   5.200   5.888   9.989
29931SOL    HW291691   5.203   5.811  10.119
29932SOL     OW91692   5.407   3.379   6.022
29932SOL    HW191693   5.419   3.338   6.107
29932SOL    HW291694   5.495   3.410   5.997
29933SOL     OW91695  12.617  11.072   6.266
29933SOL    HW191696  12.587  11.053   6.355
29933SOL    HW291697  12.614  10.987   6.221
29934SOL     OW91698   7.697  14.826   1.934
29934SOL    HW191699   7.671  14.751   1.881
29934SOL    HW291700   7.723  14.788   2.018
29935SOL     OW91701   6.423   4.956  13.195
29935SOL    HW191702   6.344   4.997  13.228
29935SOL    HW291703   6.406   4.862  13.201
29936SOL     OW91704   6.776  14.115   9.228
29936SOL    HW191705   6.862  14.113   9.271
29936SOL    HW291706   6.739  14.200   9.254
29937SOL     OW91707   4.670   6.326   8.582
29937SOL    HW191708   4.588   6.297   8.541
29937SOL    HW291709   4.703   6.394   8.523
29938SOL     OW91710   1.906  14.608  12.581
29938SOL    HW191711   1.919  14.692  12.536
29938SOL    HW291712   1.908  14.543  12.511
29939SOL     OW91713  12.878  14.718   0.991
29939SOL    HW191714  12.896  14.705   0.898
29939SOL    HW291715  12.852  14.632   1.023
29940SOL     OW91716   5.252   1.306   3.133
29940SOL    HW191717   5.275   1.214   3.151
29940SOL    HW291718   5.321   1.337   3.074
29941SOL     OW91719  12.366   7.898   8.777
29941SOL    HW191720  12.385   7.954   8.853
29941SOL    HW291721  12.407   7.814   8.799
29942SOL     OW91722  14.649  12.238   5.282
29942SOL    HW191723  14.687  12.310   5.232
29942SOL    HW291724  14.621  12.174   5.217
29943SOL     OW91725   2.940   0.935   8.605
29943SOL    HW191726   2.970   0.882   8.679
29943SOL    HW291727   2.846   0.919   8.600
29944SOL     OW91728   0.078  12.769   6.115
29944SOL    HW191729   0.159  12.818   6.126
29944SOL    HW291730   0.019  12.804   6.182
29945SOL     OW91731   4.962   8.842   2.908
29945SOL    HW191732   4.902   8.840   2.834
29945SOL    HW291733   4.907   8.824   2.984
29946SOL     OW91734  13.209   2.292   4.188
29946SOL    HW191735  13.299   2.262   4.200
29946SOL    HW291736  13.156   2.212   4.192
29947SOL     OW91737  11.880   7.038   3.343
29947SOL    HW191738  11.933   6.986   3.283
29947SOL    HW291739  11.935   7.051   3.420
29948SOL     OW91740   7.621  13.638   8.193
29948SOL    HW191741   7.600  13.656   8.102
29948SOL    HW291742   7.713  13.613   8.193
29949SOL     OW91743  11.165   1.833   4.204
29949SOL    HW191744  11.234   1.881   4.251
29949SOL    HW291745  11.210   1.791   4.131
29950SOL     OW91746   9.998   3.153  10.872
29950SOL    HW191747  10.076   3.111  10.908
29950SOL    HW291748   9.930   3.087  10.880
29951SOL     OW91749   3.131  12.285   4.344
29951SOL    HW191750   3.104  12.223   4.277
29951SOL    HW291751   3.161  12.361   4.294
29952SOL     OW91752   8.453   9.811   2.480
29952SOL    HW191753   8.427   9.853   2.398
29952SOL    HW291754   8.413   9.724   2.476
29953SOL     OW91755  13.722   3.260   0.610
29953SOL    HW191756  13.761   3.346   0.627
29953SOL    HW291757  13.705   3.223   0.697
29954SOL     OW91758   5.736   1.232   4.087
29954SOL    HW191759   5.707   1.155   4.136
29954SOL    HW291760   5.799   1.197   4.023
29955SOL     OW91761   4.677   7.564   5.795
29955SOL    HW191762   4.727   7.603   5.723
29955SOL    HW291763   4.639   7.639   5.841
29956SOL     OW91764   2.985   2.781   6.492
29956SOL    HW191765   3.075   2.751   6.499
29956SOL    HW291766   2.971   2.796   6.399
29957SOL     OW91767   5.029  10.833   1.849
29957SOL    HW191768   5.085  10.910   1.861
29957SOL    HW291769   4.944  10.861   1.882
29958SOL     OW91770  10.846   2.113   5.076
29958SOL    HW191771  10.785   2.056   5.028
29958SOL    HW291772  10.791   2.186   5.106
29959SOL     OW91773   4.695   5.335   5.085
29959SOL    HW191774   4.784   5.331   5.121
29959SOL    HW291775   4.642   5.286   5.147
29960SOL     OW91776   1.648  12.604   0.619
29960SOL    HW191777   1.709  12.670   0.650
29960SOL    HW291778   1.649  12.613   0.524
29961SOL     OW91779   1.803  11.725   5.714
29961SOL    HW191780   1.725  11.772   5.684
29961SOL    HW291781   1.871  11.750   5.652
29962SOL     OW91782   1.114   3.943   3.266
29962SOL    HW191783   1.206   3.935   3.291
29962SOL    HW291784   1.068   3.888   3.329
29963SOL     OW91785  11.257   0.356  12.813
29963SOL    HW191786  11.341   0.348  12.768
29963SOL    HW291787  11.192   0.336  12.745
29964SOL     OW91788   2.307   5.263  10.306
29964SOL    HW191789   2.392   5.228  10.280
29964SOL    HW291790   2.269   5.296  10.224
29965SOL     OW91791   5.999  14.151   4.052
29965SOL    HW191792   5.977  14.137   3.960
29965SOL    HW291793   6.083  14.196   4.050
29966SOL     OW91794   1.380   8.655   7.297
29966SOL    HW191795   1.383   8.597   7.221
29966SOL    HW291796   1.322   8.726   7.271
29967SOL     OW91797  13.229   9.703   1.392
29967SOL    HW191798  13.315   9.726   1.426
29967SOL    HW291799  13.209   9.771   1.328
29968SOL     OW91800  13.119   5.540  11.434
29968SOL    HW191801  13.200   5.491  11.443
29968SOL    HW291802  13.122   5.576  11.345
29969SOL     OW91803   4.222   0.832   5.818
29969SOL    HW191804   4.298   0.846   5.875
29969SOL    HW291805   4.245   0.753   5.768
29970SOL     OW91806   0.342  11.737   9.173
29970SOL    HW191807   0.256  11.706   9.145
29970SOL    HW291808   0.323  11.810   9.232
29971SOL     OW91809  12.944   4.425  10.098
29971SOL    HW191810  13.010   4.455  10.161
29971SOL    HW291811  12.872   4.393  10.151
29972SOL     OW91812   2.778   2.410   8.549
29972SOL    HW191813   2.683   2.420   8.543
29972SOL    HW291814   2.803   2.373   8.464
29973SOL     OW91815  10.713   3.541   1.653
29973SOL    HW191816  10.627   3.575   1.630
29973SOL    HW291817  10.700   3.495   1.736
29974SOL     OW91818   9.094   2.649   2.013
29974SOL    HW191819   9.062   2.711   1.948
29974SOL    HW291820   9.096   2.699   2.095
29975SOL     OW91821   1.389  13.987   3.767
29975SOL    HW191822   1.319  13.934   3.805
29975SOL    HW291823   1.408  13.946   3.683
29976SOL     OW91824   9.165   9.806   1.750
29976SOL    HW191825   9.139   9.730   1.803
29976SOL    HW291826   9.203   9.768   1.671
29977SOL     OW91827  12.622   1.537   3.964
29977SOL    HW191828  12.629   1.443   3.978
29977SOL    HW291829  12.530   1.552   3.941
29978SOL     OW91830  11.038   6.109   8.300
29978SOL    HW191831  10.969   6.116   8.366
29978SOL    HW291832  11.079   6.195   8.298
29979SOL     OW91833   8.528   9.024  13.698
29979SOL    HW191834   8.451   8.991  13.651
29979SOL    HW291835   8.571   8.946  13.733
29980SOL     OW91836   0.581   9.006   3.418
29980SOL    HW191837   0.607   8.928   3.467
29980SOL    HW291838   0.485   9.004   3.419
29981SOL     OW91839   7.108  12.068   0.160
29981SOL    HW191840   7.098  11.980   0.196
29981SOL    HW291841   7.053  12.068   0.082
29982SOL     OW91842  10.948  13.753   2.097
29982SOL    HW191843  11.033  13.730   2.060
29982SOL    HW291844  10.938  13.846   2.079
29983SOL     OW91845   2.296  10.485  12.765
29983SOL    HW191846   2.275  10.412  12.823
29983SOL    HW291847   2.305  10.444  12.678
29984SOL     OW91848   7.426   9.407   5.164
29984SOL    HW191849   7.457   9.477   5.106
29984SOL    HW291850   7.374   9.351   5.107
29985SOL     OW91851   0.715   2.964  11.660
29985SOL    HW191852   0.623   2.988  11.668
29985SOL    HW291853   0.738   2.927  11.745
29986SOL     OW91854   6.680  13.168   2.199
29986SOL    HW191855   6.589  13.196   2.206
29986SOL    HW291856   6.677  13.072   2.203
29987SOL     OW91857   9.103   5.570  12.255
29987SOL    HW191858   9.187   5.524  12.255
29987SOL    HW291859   9.059   5.539  12.176
29988SOL     OW91860  13.383   7.286  13.958
29988SOL    HW191861  13.362   7.313  14.048
29988SOL    HW291862  13.313   7.324  13.905
29989SOL     OW91863  13.305  11.453   4.225
29989SOL    HW191864  13.321  11.390   4.156
29989SOL    HW291865  13.210  11.466   4.224
29990SOL     OW91866   1.351   9.242   7.412
29990SOL    HW191867   1.333   9.325   7.457
29990SOL    HW291868   1.400   9.268   7.334
29991SOL     OW91869   1.022   3.575  13.834
29991SOL    HW191870   1.002   3.497  13.782
29991SOL    HW291871   0.964   3.570  13.909
29992SOL     OW91872  14.047   7.302   7.840
29992SOL    HW191873  13.971   7.275   7.893
29992SOL    HW291874  14.033   7.261   7.755
29993SOL     OW91875   6.007   1.486  10.094
29993SOL    HW191876   6.071   1.415  10.088
29993SOL    HW291877   6.059   1.565  10.109
29994SOL     OW91878   0.341  12.100   2.498
29994SOL    HW191879   0.379  12.091   2.585
29994SOL    HW291880   0.415  12.122   2.442
29995SOL     OW91881   4.002  11.030   8.372
29995SOL    HW191882   4.015  10.940   8.400
29995SOL    HW291883   4.051  11.037   8.290
29996SOL     OW91884  10.357   2.133   8.691
29996SOL    HW191885  10.262   2.125   8.700
29996SOL    HW291886  10.379   2.076   8.618
29997SOL     OW91887   1.698  10.664   5.374
29997SOL    HW191888   1.688  10.731   5.307
29997SOL    HW291889   1.632  10.598   5.353
29998SOL     OW91890  14.439   2.017   8.198
29998SOL    HW191891  14.416   1.970   8.278
29998SOL    HW291892  14.405   2.105   8.212
29999SOL     OW91893  10.006   4.191   9.500
29999SOL    HW191894   9.936   4.250   9.529
29999SOL    HW291895  10.006   4.199   9.405
30000SOL     OW91896  11.718   3.632   9.315
30000SOL    HW191897  11.795   3.687   9.332
30000SOL    HW291898  11.738   3.549   9.360
30001SOL     OW91899   5.681   3.092  11.274
30001SOL    HW191900   5.688   3.086  11.178
30001SOL    HW291901   5.627   3.170  11.289
30002SOL     OW91902  12.372  12.567   5.643
30002SOL    HW191903  12.343  12.585   5.732
30002SOL    HW291904  12.296  12.584   5.589
30003SOL     OW91905  11.856   9.185  11.041
30003SOL    HW191906  11.937   9.139  11.019
30003SOL    HW291907  11.833   9.233  10.962
30004SOL     OW91908  11.071  12.078   5.150
30004SOL    HW191909  11.055  12.163   5.109
30004SOL    HW291910  11.105  12.099   5.237
30005SOL     OW91911  10.398   1.465   0.359
30005SOL    HW191912  10.358   1.551   0.374
30005SOL    HW291913  10.390   1.452   0.264
30006SOL     OW91914  12.928  11.230   0.622
30006SOL    HW191915  12.903  11.279   0.544
30006SOL    HW291916  12.885  11.145   0.612
30007SOL     OW91917  13.733   6.559   0.212
30007SOL    HW191918  13.677   6.483   0.227
30007SOL    HW291919  13.685   6.632   0.251
30008SOL     OW91920   0.046  10.078  12.865
30008SOL    HW191921  14.847  10.146  12.862
30008SOL    HW291922   0.127  10.123  12.843
30009SOL     OW91923  13.746  13.408  11.477
30009SOL    HW191924  13.697  13.468  11.532
30009SOL    HW291925  13.682  13.342  11.450
30010SOL     OW91926   4.390  12.838   0.058
30010SOL    HW191927   4.355  12.829   0.146
30010SOL    HW291928   4.479  12.870   0.070
30011SOL     OW91929   0.917   2.582  12.686
30011SOL    HW191930   0.965   2.503  12.665
30011SOL    HW291931   0.855   2.593  12.614
30012SOL     OW91932   5.124   5.247   8.235
30012SOL    HW191933   5.081   5.331   8.248
30012SOL    HW291934   5.079   5.186   8.293
30013SOL     OW91935   3.258   5.478   5.548
30013SOL    HW191936   3.221   5.454   5.463
30013SOL    HW291937   3.352   5.464   5.538
30014SOL     OW91938   1.979  11.531   8.681
30014SOL    HW191939   1.944  11.528   8.592
30014SOL    HW291940   1.908  11.497   8.736
30015SOL     OW91941   7.331  10.778   1.802
30015SOL    HW191942   7.354  10.743   1.888
30015SOL    HW291943   7.236  10.782   1.802
30016SOL     OW91944   8.959   8.837   1.399
30016SOL    HW191945   9.009   8.768   1.443
30016SOL    HW291946   8.895   8.790   1.346
30017SOL     OW91947   6.971   8.936  12.499
30017SOL    HW191948   6.986   8.963  12.590
30017SOL    HW291949   6.980   9.016  12.448
30018SOL     OW91950   6.254   6.155   3.038
30018SOL    HW191951   6.210   6.092   2.980
30018SOL    HW291952   6.301   6.101   3.102
30019SOL     OW91953   0.349  14.755   3.636
30019SOL    HW191954   0.268  14.719   3.672
30019SOL    HW291955   0.419  14.707   3.681
30020SOL     OW91956   3.692   5.856   3.026
30020SOL    HW191957   3.762   5.793   3.007
30020SOL    HW291958   3.727   5.940   2.996
30021SOL     OW91959  14.368   3.675   3.306
30021SOL    HW191960  14.348   3.610   3.239
30021SOL    HW291961  14.457   3.654   3.334
30022SOL     OW91962   1.737   4.843   0.741
30022SOL    HW191963   1.670   4.780   0.767
30022SOL    HW291964   1.817   4.813   0.784
30023SOL     OW91965   8.050  13.059   6.044
30023SOL    HW191966   8.058  12.967   6.020
30023SOL    HW291967   7.981  13.060   6.110
30024SOL     OW91968  14.480   1.601   8.679
30024SOL    HW191969  14.569   1.569   8.660
30024SOL    HW291970  14.491   1.655   8.757
30025SOL     OW91971   4.296  11.474  11.229
30025SOL    HW191972   4.311  11.545  11.292
30025SOL    HW291973   4.278  11.397  11.284
30026SOL     OW91974   9.206   8.006   9.581
30026SOL    HW191975   9.299   7.983   9.584
30026SOL    HW291976   9.205   8.095   9.545
30027SOL     OW91977   9.731  10.242   8.963
30027SOL    HW191978   9.798  10.286   8.911
30027SOL    HW291979   9.672  10.204   8.899
30028SOL     OW91980   9.824   9.166   3.834
30028SOL    HW191981   9.793   9.200   3.917
30028SOL    HW291982   9.881   9.093   3.857
30029SOL     OW91983   8.982   5.207   6.295
30029SOL    HW191984   8.950   5.261   6.223
30029SOL    HW291985   9.036   5.140   6.252
30030SOL     OW91986   0.398  14.309   1.704
30030SOL    HW191987   0.326  14.339   1.648
30030SOL    HW291988   0.429  14.228   1.663
30031SOL     OW91989   3.465  13.989   0.724
30031SOL    HW191990   3.555  14.023   0.722
30031SOL    HW291991   3.430  14.008   0.637
30032SOL     OW91992  11.705   4.248   5.557
30032SOL    HW191993  11.690   4.166   5.510
30032SOL    HW291994  11.630   4.256   5.616
30033SOL     OW91995  12.353   4.735  14.557
30033SOL    HW191996  12.311   4.750  14.642
30033SOL    HW291997  12.409   4.812  14.544
30034SOL     OW91998  14.625   9.965   9.229
30034SOL    HW191999  14.700   9.988   9.284
30034SOL    HW292000  14.664   9.919   9.155
30035SOL     OW92001   0.798   9.814   6.722
30035SOL    HW192002   0.844   9.765   6.654
30035SOL    HW292003   0.705   9.804   6.700
30036SOL     OW92004   4.192   2.029   9.075
30036SOL    HW192005   4.208   2.065   9.162
30036SOL    HW292006   4.182   1.935   9.089
30037SOL     OW92007  11.310   4.913   6.821
30037SOL    HW192008  11.276   4.995   6.785
30037SOL    HW292009  11.236   4.876   6.870
30038SOL     OW92010   5.601   8.801   3.165
30038SOL    HW192011   5.554   8.831   3.087
30038SOL    HW292012   5.614   8.880   3.217
30039SOL     OW92013   5.476   7.767  10.688
30039SOL    HW192014   5.391   7.801  10.719
30039SOL    HW292015   5.473   7.779  10.593
30040SOL     OW92016  13.430   0.848  10.031
30040SOL    HW192017  13.519   0.822  10.009
30040SOL    HW292018  13.426   0.941  10.007
30041SOL     OW92019   8.901   5.655  10.321
30041SOL    HW192020   8.822   5.700  10.291
30041SOL    HW292021   8.883   5.631  10.411
30042SOL     OW92022   5.225  13.399   8.719
30042SOL    HW192023   5.199  13.445   8.639
30042SOL    HW292024   5.155  13.418   8.781
30043SOL     OW92025   0.721   5.320  11.533
30043SOL    HW192026   0.644   5.280  11.572
30043SOL    HW292027   0.770   5.247  11.494
30044SOL     OW92028  10.845  12.930  10.054
30044SOL    HW192029  10.829  12.946   9.961
30044SOL    HW292030  10.760  12.944  10.096
30045SOL     OW92031   8.978   8.812   3.770
30045SOL    HW192032   9.032   8.890   3.782
30045SOL    HW292033   8.994   8.759   3.848
30046SOL     OW92034  12.718   9.727   7.486
30046SOL    HW192035  12.700   9.658   7.550
30046SOL    HW292036  12.688   9.690   7.403
30047SOL     OW92037   2.297   1.617   6.509
30047SOL    HW192038   2.304   1.633   6.603
30047SOL    HW292039   2.262   1.529   6.502
30048SOL     OW92040   8.130   5.580   9.857
30048SOL    HW192041   8.049   5.630   9.865
30048SOL    HW292042   8.112   5.515   9.789
30049SOL     OW92043   4.803   3.263   0.188
30049SOL    HW192044   4.788   3.211   0.109
30049SOL    HW292045   4.857   3.336   0.158
30050SOL     OW92046   9.429   3.059   0.073
30050SOL    HW192047   9.515   3.027   0.044
30050SOL    HW292048   9.368   3.029   0.005
30051SOL     OW92049   6.740  11.571  14.333
30051SOL    HW192050   6.833  11.573  14.356
30051SOL    HW292051   6.739  11.548  14.240
30052SOL     OW92052   3.328   6.086   1.274
30052SOL    HW192053   3.385   6.059   1.202
30052SOL    HW292054   3.332   6.182   1.274
30053SOL     OW92055   8.382   1.682  10.681
30053SOL    HW192056   8.443   1.703  10.611
30053SOL    HW292057   8.303   1.652  10.636
30054SOL     OW92058   4.969   7.386   7.338
30054SOL    HW192059   5.022   7.309   7.316
30054SOL    HW292060   4.920   7.405   7.258
30055SOL     OW92061  10.819  14.762  11.935
30055SOL    HW192062  10.861  14.734  11.853
30055SOL    HW292063  10.883  14.741  12.003
30056SOL     OW92064   7.817  10.652   1.395
30056SOL    HW192065   7.749  10.659   1.327
30056SOL    HW292066   7.784  10.587   1.456
30057SOL     OW92067   5.675   2.591   9.311
30057SOL    HW192068   5.706   2.517   9.364
30057SOL    HW292069   5.746   2.606   9.248
30058SOL     OW92070   4.818  13.652   8.591
30058SOL    HW192071   4.865  13.571   8.574
30058SOL    HW292072   4.730  13.637   8.556
30059SOL     OW92073  11.061   2.069   8.793
30059SOL    HW192074  11.133   2.083   8.731
30059SOL    HW292075  10.998   2.138   8.772
30060SOL     OW92076  10.921  11.337   5.159
30060SOL    HW192077  10.869  11.289   5.094
30060SOL    HW292078  10.965  11.406   5.109
30061SOL     OW92079  13.625  13.347   4.350
30061SOL    HW192080  13.685  13.348   4.275
30061SOL    HW292081  13.667  13.403   4.415
30062SOL     OW92082   1.815   7.954   6.551
30062SOL    HW192083   1.749   8.023   6.550
30062SOL    HW292084   1.811   7.915   6.464
30063SOL     OW92085  14.671   9.415  12.962
30063SOL    HW192086  14.748   9.381  13.008
30063SOL    HW292087  14.600   9.408  13.026
30064SOL     OW92088  12.891   1.454   5.067
30064SOL    HW192089  12.888   1.530   5.009
30064SOL    HW292090  12.970   1.467   5.119
30065SOL     OW92091   8.006   2.998   9.285
30065SOL    HW192092   7.948   2.921   9.292
30065SOL    HW292093   8.020   3.025   9.376
30066SOL     OW92094  12.973   4.231  14.050
30066SOL    HW192095  12.904   4.224  13.984
30066SOL    HW292096  13.052   4.251  14.000
30067SOL     OW92097  12.284  11.772  13.769
30067SOL    HW192098  12.226  11.759  13.844
30067SOL    HW292099  12.227  11.804  13.699
30068SOL     OW92100   2.582   9.143   4.213
30068SOL    HW192101   2.540   9.086   4.278
30068SOL    HW292102   2.558   9.105   4.129
30069SOL     OW92103   1.688   0.263   9.768
30069SOL    HW192104   1.633   0.313   9.708
30069SOL    HW292105   1.772   0.310   9.769
30070SOL     OW92106   8.156   0.727   9.631
30070SOL    HW192107   8.121   0.638   9.622
30070SOL    HW292108   8.238   0.715   9.678
30071SOL     OW92109   0.284   9.869   2.739
30071SOL    HW192110   0.295   9.946   2.683
30071SOL    HW292111   0.369   9.859   2.782
30072SOL     OW92112   6.752  11.899   5.825
30072SOL    HW192113   6.745  11.994   5.834
30072SOL    HW292114   6.846  11.881   5.830
30073SOL     OW92115   6.716   1.369   4.110
30073SOL    HW192116   6.715   1.274   4.123
30073SOL    HW292117   6.659   1.403   4.179
30074SOL     OW92118  14.323  10.657  11.946
30074SOL    HW192119  14.235  10.693  11.933
30074SOL    HW292120  14.309  10.584  12.006
30075SOL     OW92121  11.756   3.371   4.892
30075SOL    HW192122  11.726   3.334   4.810
30075SOL    HW292123  11.713   3.318   4.960
30076SOL     OW92124   1.715   2.983  10.816
30076SOL    HW192125   1.680   2.895  10.831
30076SOL    HW292126   1.789   2.990  10.877
30077SOL     OW92127  12.039  11.795  13.940
30077SOL    HW192128  11.996  11.755  14.015
30077SOL    HW292129  12.007  11.745  13.865
30078SOL     OW92130   3.392   7.011   8.751
30078SOL    HW192131   3.341   6.966   8.683
30078SOL    HW292132   3.387   7.104   8.727
30079SOL     OW92133  12.481   5.250  12.491
30079SOL    HW192134  12.409   5.313  12.487
30079SOL    HW292135  12.558   5.302  12.516
30080SOL     OW92136   8.497  12.225  14.769
30080SOL    HW192137   8.447  12.194  14.845
30080SOL    HW292138   8.501  12.320  14.780
30081SOL     OW92139   7.894   3.743   3.838
30081SOL    HW192140   7.909   3.723   3.746
30081SOL    HW292141   7.898   3.839   3.842
30082SOL     OW92142   8.512   5.372   5.269
30082SOL    HW192143   8.544   5.420   5.193
30082SOL    HW292144   8.590   5.331   5.307
30083SOL     OW92145  11.236   7.036  10.828
30083SOL    HW192146  11.199   7.101  10.768
30083SOL    HW292147  11.183   7.044  10.908
30084SOL     OW92148   6.962   7.349   0.970
30084SOL    HW192149   7.003   7.366   1.055
30084SOL    HW292150   7.029   7.373   0.906
30085SOL     OW92151  12.091  10.643   5.466
30085SOL    HW192152  12.066  10.553   5.446
30085SOL    HW292153  12.154  10.635   5.537
30086SOL     OW92154   6.244   9.759   6.376
30086SOL    HW192155   6.172   9.753   6.313
30086SOL    HW292156   6.255   9.670   6.408
30087SOL     OW92157  10.541  11.595   9.751
30087SOL    HW192158  10.555  11.554   9.836
30087SOL    HW292159  10.587  11.537   9.689
30088SOL     OW92160   6.017   7.111   1.811
30088SOL    HW192161   6.074   7.182   1.841
30088SOL    HW292162   6.008   7.125   1.717
30089SOL     OW92163   5.458   6.989   3.226
30089SOL    HW192164   5.412   6.959   3.304
30089SOL    HW292165   5.516   7.058   3.257
30090SOL     OW92166   2.902   6.568   5.773
30090SOL    HW192167   2.869   6.579   5.862
30090SOL    HW292168   2.869   6.645   5.726
30091SOL     OW92169   8.783   9.217   2.854
30091SOL    HW192170   8.855   9.238   2.914
30091SOL    HW292171   8.792   9.280   2.782
30092SOL     OW92172   6.710   7.599   2.045
30092SOL    HW192173   6.635   7.659   2.037
30092SOL    HW292174   6.671   7.512   2.041
30093SOL     OW92175   6.869   3.086  11.843
30093SOL    HW192176   6.953   3.129  11.856
30093SOL    HW292177   6.831   3.131  11.768
30094SOL     OW92178  13.605   5.206   6.282
30094SOL    HW192179  13.515   5.187   6.253
30094SOL    HW292180  13.653   5.222   6.201
30095SOL     OW92181  14.322   1.776   5.303
30095SOL    HW192182  14.229   1.793   5.287
30095SOL    HW292183  14.337   1.688   5.270
30096SOL     OW92184   6.960  13.078  13.617
30096SOL    HW192185   6.913  13.089  13.699
30096SOL    HW292186   7.035  13.137  13.624
30097SOL     OW92187  14.530   0.686   7.107
30097SOL    HW192188  14.472   0.741   7.160
30097SOL    HW292189  14.608   0.674   7.161
30098SOL     OW92190   8.250   4.822   0.320
30098SOL    HW192191   8.175   4.832   0.380
30098SOL    HW292192   8.303   4.752   0.359
30099SOL     OW92193   1.958   7.283   8.583
30099SOL    HW192194   2.023   7.242   8.526
30099SOL    HW292195   1.967   7.377   8.566
30100SOL     OW92196   8.122   0.818  13.114
30100SOL    HW192197   8.099   0.784  13.028
30100SOL    HW292198   8.113   0.913  13.105
30101SOL     OW92199   6.022  10.974   5.305
30101SOL    HW192200   6.025  10.878   5.312
30101SOL    HW292201   5.971  11.002   5.381
30102SOL     OW92202   5.916   3.923   3.824
30102SOL    HW192203   5.961   3.892   3.745
30102SOL    HW292204   5.824   3.903   3.809
30103SOL     OW92205  14.369   2.123   9.901
30103SOL    HW192206  14.412   2.127   9.986
30103SOL    HW292207  14.319   2.204   9.896
30104SOL     OW92208   1.258   0.437   3.369
30104SOL    HW192209   1.348   0.410   3.383
30104SOL    HW292210   1.215   0.423   3.453
30105SOL     OW92211   2.716   6.519  10.007
30105SOL    HW192212   2.657   6.552   9.939
30105SOL    HW292213   2.661   6.509  10.084
30106SOL     OW92214   5.926  12.141   6.359
30106SOL    HW192215   5.971  12.197   6.297
30106SOL    HW292216   5.991  12.120   6.425
30107SOL     OW92217  12.666   0.900  13.238
30107SOL    HW192218  12.669   0.893  13.333
30107SOL    HW292219  12.746   0.857  13.207
30108SOL     OW92220   9.134  12.187   7.256
30108SOL    HW192221   9.137  12.176   7.161
30108SOL    HW292222   9.213  12.145   7.288
30109SOL     OW92223   1.516  14.594   0.480
30109SOL    HW192224   1.487  14.653   0.550
30109SOL    HW292225   1.474  14.510   0.502
30110SOL     OW92226  14.079   7.036   1.742
30110SOL    HW192227  14.131   7.076   1.673
30110SOL    HW292228  14.136   7.040   1.819
30111SOL     OW92229   8.307   9.711   0.020
30111SOL    HW192230   8.239   9.653  14.852
30111SOL    HW292231   8.368   9.724  14.816
30112SOL     OW92232   5.066   4.610  13.955
30112SOL    HW192233   5.124   4.679  13.921
30112SOL    HW292234   4.981   4.653  13.965
30113SOL     OW92235  12.796   3.709   8.472
30113SOL    HW192236  12.743   3.782   8.504
30113SOL    HW292237  12.811   3.730   8.379
30114SOL     OW92238  12.847   3.200   9.443
30114SOL    HW192239  12.807   3.275   9.400
30114SOL    HW292240  12.780   3.169   9.504
30115SOL     OW92241   5.869  10.097  10.591
30115SOL    HW192242   5.951  10.091  10.542
30115SOL    HW292243   5.893  10.147  10.669
30116SOL     OW92244   4.103   6.694   2.518
30116SOL    HW192245   4.165   6.766   2.518
30116SOL    HW292246   4.157   6.615   2.521
30117SOL     OW92247   0.689   2.905  13.641
30117SOL    HW192248   0.743   2.910  13.720
30117SOL    HW292249   0.610   2.859  13.669
30118SOL     OW92250   0.125   7.282   4.250
30118SOL    HW192251   0.197   7.223   4.228
30118SOL    HW292252   0.143   7.361   4.200
30119SOL     OW92253  11.742   1.906   4.606
30119SOL    HW192254  11.767   1.816   4.631
30119SOL    HW292255  11.672   1.929   4.667
30120SOL     OW92256  10.776   4.993  11.694
30120SOL    HW192257  10.851   5.010  11.751
30120SOL    HW292258  10.732   4.918  11.735
30121SOL     OW92259   0.147   4.357   1.727
30121SOL    HW192260   0.122   4.448   1.742
30121SOL    HW292261   0.111   4.309   1.802
30122SOL     OW92262  14.284   5.332   1.763
30122SOL    HW192263  14.263   5.394   1.693
30122SOL    HW292264  14.278   5.246   1.722
30123SOL     OW92265   8.809   4.916   4.198
30123SOL    HW192266   8.716   4.909   4.221
30123SOL    HW292267   8.812   4.979   4.126
30124SOL     OW92268  12.886   5.376   5.145
30124SOL    HW192269  12.820   5.315   5.177
30124SOL    HW292270  12.949   5.322   5.097
30125SOL     OW92271  10.403  11.598   3.009
30125SOL    HW192272  10.431  11.547   2.932
30125SOL    HW292273  10.436  11.548   3.083
30126SOL     OW92274   5.510  12.871   8.109
30126SOL    HW192275   5.565  12.875   8.187
30126SOL    HW292276   5.508  12.778   8.086
30127SOL     OW92277   2.085  12.519   7.335
30127SOL    HW192278   2.163  12.573   7.351
30127SOL    HW292279   2.113  12.455   7.270
30128SOL     OW92280   4.093   5.751   9.982
30128SOL    HW192281   4.089   5.723  10.073
30128SOL    HW292282   4.151   5.688   9.940
30129SOL     OW92283  11.360   5.879   5.928
30129SOL    HW192284  11.265   5.888   5.921
30129SOL    HW292285  11.394   5.905   5.843
30130SOL     OW92286  12.505  11.961   3.351
30130SOL    HW192287  12.432  11.985   3.408
30130SOL    HW292288  12.578  12.014   3.384
30131SOL     OW92289  13.693  11.853   2.688
30131SOL    HW192290  13.637  11.876   2.762
30131SOL    HW292291  13.748  11.782   2.721
30132SOL     OW92292   6.400   1.111   8.304
30132SOL    HW192293   6.432   1.045   8.366
30132SOL    HW292294   6.389   1.190   8.358
30133SOL     OW92295   4.149   1.125  12.483
30133SOL    HW192296   4.175   1.216  12.491
30133SOL    HW292297   4.228   1.075  12.502
30134SOL     OW92298  13.881   1.744  11.459
30134SOL    HW192299  13.906   1.835  11.477
30134SOL    HW292300  13.868   1.705  11.546
30135SOL     OW92301   8.138   1.488   7.116
30135SOL    HW192302   8.202   1.527   7.057
30135SOL    HW292303   8.122   1.400   7.081
30136SOL     OW92304   6.458   6.086  13.835
30136SOL    HW192305   6.366   6.066  13.817
30136SOL    HW292306   6.461   6.181  13.838
30137SOL     OW92307  12.022   5.241   2.572
30137SOL    HW192308  12.052   5.211   2.658
30137SOL    HW292309  11.937   5.282   2.589
30138SOL     OW92310  12.436   6.656   5.945
30138SOL    HW192311  12.362   6.596   5.937
30138SOL    HW292312  12.513   6.600   5.943
30139SOL     OW92313   5.385   3.010   7.802
30139SOL    HW192314   5.368   3.051   7.886
30139SOL    HW292315   5.365   3.078   7.738
30140SOL     OW92316   7.158   0.982  14.563
30140SOL    HW192317   7.247   0.956  14.540
30140SOL    HW292318   7.103   0.937  14.499
30141SOL     OW92319   7.137  11.220   3.403
30141SOL    HW192320   7.056  11.169   3.399
30141SOL    HW292321   7.200  11.168   3.354
30142SOL     OW92322   0.955   3.157   9.689
30142SOL    HW192323   0.961   3.241   9.734
30142SOL    HW292324   1.015   3.165   9.615
30143SOL     OW92325   3.386  10.236   3.615
30143SOL    HW192326   3.331  10.200   3.684
30143SOL    HW292327   3.453  10.287   3.661
30144SOL     OW92328  12.448   8.607   1.302
30144SOL    HW192329  12.542   8.590   1.308
30144SOL    HW292330  12.411   8.524   1.271
30145SOL     OW92331  11.455   6.431   9.289
30145SOL    HW192332  11.397   6.361   9.258
30145SOL    HW292333  11.425   6.448   9.378
30146SOL     OW92334  12.021   5.570   6.442
30146SOL    HW192335  12.036   5.553   6.349
30146SOL    HW292336  12.065   5.653   6.459
30147SOL     OW92337   7.647  10.607   2.001
30147SOL    HW192338   7.737  10.639   2.007
30147SOL    HW292339   7.649  10.541   1.932
30148SOL     OW92340   7.847   8.660  12.575
30148SOL    HW192341   7.765   8.619  12.550
30148SOL    HW292342   7.864   8.725  12.507
30149SOL     OW92343   9.341   4.838  14.784
30149SOL    HW192344   9.256   4.815  14.820
30149SOL    HW292345   9.356   4.927  14.814
30150SOL     OW92346   4.847   9.083  14.256
30150SOL    HW192347   4.826   9.079  14.350
30150SOL    HW292348   4.874   9.174  14.241
30151SOL     OW92349   9.193   6.076  11.941
30151SOL    HW192350   9.218   6.103  11.853
30151SOL    HW292351   9.128   6.006  11.927
30152SOL     OW92352  13.647  12.918  13.655
30152SOL    HW192353  13.682  12.841  13.610
30152SOL    HW292354  13.554  12.898  13.668
30153SOL     OW92355   2.839   3.812  13.690
30153SOL    HW192356   2.922   3.821  13.643
30153SOL    HW292357   2.782   3.878  13.651
30154SOL     OW92358   9.834   3.794  14.295
30154SOL    HW192359   9.791   3.870  14.333
30154SOL    HW292360   9.773   3.722  14.309
30155SOL     OW92361  12.389   7.117   0.322
30155SOL    HW192362  12.298   7.140   0.302
30155SOL    HW292363  12.382   7.044   0.384
30156SOL     OW92364  10.967   4.333   4.704
30156SOL    HW192365  10.979   4.307   4.612
30156SOL    HW292366  10.927   4.420   4.700
30157SOL     OW92367  11.797   5.204   9.925
30157SOL    HW192368  11.734   5.133   9.937
30157SOL    HW292369  11.838   5.185   9.840
30158SOL     OW92370   2.245   9.876   2.374
30158SOL    HW192371   2.290   9.952   2.336
30158SOL    HW292372   2.178   9.853   2.309
30159SOL     OW92373   9.314   7.859  10.706
30159SOL    HW192374   9.230   7.877  10.664
30159SOL    HW292375   9.306   7.895  10.794
30160SOL     OW92376   0.317   2.410   2.410
30160SOL    HW192377   0.304   2.450   2.496
30160SOL    HW292378   0.243   2.442   2.358
30161SOL     OW92379   1.571   3.217  10.817
30161SOL    HW192380   1.480   3.195  10.794
30161SOL    HW292381   1.621   3.139  10.793
30162SOL     OW92382   2.993  12.162   9.226
30162SOL    HW192383   2.985  12.068   9.214
30162SOL    HW292384   3.000  12.174   9.321
30163SOL     OW92385   6.122   0.051   3.253
30163SOL    HW192386   6.041   0.062   3.204
30163SOL    HW292387   6.094   0.033   3.343
30164SOL     OW92388   2.743  11.050  11.966
30164SOL    HW192389   2.783  11.073  11.882
30164SOL    HW292390   2.796  10.977  11.998
30165SOL     OW92391   7.695   3.156  10.664
30165SOL    HW192392   7.727   3.115  10.584
30165SOL    HW292393   7.704   3.089  10.731
30166SOL     OW92394   8.875   3.063   1.419
30166SOL    HW192395   8.805   3.128   1.417
30166SOL    HW292396   8.832   2.982   1.448
30167SOL     OW92397  11.046   5.871   7.598
30167SOL    HW192398  11.039   5.959   7.561
30167SOL    HW292399  11.010   5.880   7.687
30168SOL     OW92400  11.364  14.748   8.525
30168SOL    HW192401  11.418  14.669   8.526
30168SOL    HW292402  11.282  14.721   8.566
30169SOL     OW92403   1.799  11.906  14.320
30169SOL    HW192404   1.863  11.938  14.383
30169SOL    HW292405   1.726  11.875  14.374
30170SOL     OW92406  14.432  10.946   6.975
30170SOL    HW192407  14.393  11.033   6.971
30170SOL    HW292408  14.435  10.917   6.884
30171SOL     OW92409  13.078   4.987   6.208
30171SOL    HW192410  12.990   4.953   6.197
30171SOL    HW292411  13.070   5.082   6.196
30172SOL     OW92412  12.702   4.506  14.579
30172SOL    HW192413  12.776   4.446  14.574
30172SOL    HW292414  12.709   4.559  14.499
30173SOL     OW92415   6.158   0.478   9.146
30173SOL    HW192416   6.107   0.453   9.069
30173SOL    HW292417   6.209   0.399   9.168
30174SOL     OW92418   8.797  11.356   3.989
30174SOL    HW192419   8.763  11.436   3.949
30174SOL    HW292420   8.784  11.288   3.922
30175SOL     OW92421   1.394  12.543   0.115
30175SOL    HW192422   1.360  12.516   0.201
30175SOL    HW292423   1.322  12.527   0.054
30176SOL     OW92424   7.474  11.925  14.644
30176SOL    HW192425   7.477  11.880  14.560
30176SOL    HW292426   7.385  11.911  14.677
30177SOL     OW92427   6.189  14.284  14.249
30177SOL    HW192428   6.263  14.325  14.204
30177SOL    HW292429   6.117  14.290  14.186
30178SOL     OW92430   8.241   6.033  12.210
30178SOL    HW192431   8.158   5.990  12.232
30178SOL    HW292432   8.288   6.037  12.293
30179SOL     OW92433   0.612   6.433  14.249
30179SOL    HW192434   0.700   6.461  14.223
30179SOL    HW292435   0.608   6.450  14.343
30180SOL     OW92436   3.811  11.203   0.138
30180SOL    HW192437   3.728  11.176   0.098
30180SOL    HW292438   3.815  11.297   0.120
30181SOL     OW92439  12.115  10.108   4.675
30181SOL    HW192440  12.086  10.024   4.711
30181SOL    HW292441  12.037  10.144   4.633
30182SOL     OW92442   1.034  10.873   1.639
30182SOL    HW192443   1.115  10.856   1.687
30182SOL    HW292444   1.062  10.886   1.548
30183SOL     OW92445  14.288   0.193   8.944
30183SOL    HW192446  14.342   0.177   9.022
30183SOL    HW292447  14.199   0.200   8.979
30184SOL     OW92448   7.620   4.594  11.950
30184SOL    HW192449   7.602   4.681  11.985
30184SOL    HW292450   7.546   4.540  11.979
30185SOL     OW92451   4.420  13.849  12.861
30185SOL    HW192452   4.367  13.774  12.887
30185SOL    HW292453   4.357  13.918  12.843
30186SOL     OW92454  10.719  14.815   0.635
30186SOL    HW192455  10.709   0.041   0.650
30186SOL    HW292456  10.654  14.775   0.693
30187SOL     OW92457   2.353   2.571  13.250
30187SOL    HW192458   2.288   2.500  13.247
30187SOL    HW292459   2.429   2.535  13.205
30188SOL     OW92460  10.144   2.853   3.406
30188SOL    HW192461  10.215   2.791   3.388
30188SOL    HW292462  10.188   2.937   3.419
30189SOL     OW92463   8.545   0.312  14.503
30189SOL    HW192464   8.635   0.286  14.523
30189SOL    HW292465   8.504   0.232  14.468
30190SOL     OW92466   0.853   1.668  13.719
30190SOL    HW192467   0.915   1.660  13.791
30190SOL    HW292468   0.902   1.637  13.643
30191SOL     OW92469   5.393   1.451   8.647
30191SOL    HW192470   5.361   1.453   8.557
30191SOL    HW292471   5.357   1.531   8.687
30192SOL     OW92472   2.597  13.957   3.112
30192SOL    HW192473   2.690  13.978   3.112
30192SOL    HW292474   2.588  13.885   3.049
30193SOL     OW92475   8.592   3.210   3.168
30193SOL    HW192476   8.570   3.288   3.117
30193SOL    HW292477   8.531   3.211   3.241
30194SOL     OW92478  13.388  13.732   6.979
30194SOL    HW192479  13.441  13.705   6.904
30194SOL    HW292480  13.312  13.777   6.941
30195SOL     OW92481  13.897   6.778  10.987
30195SOL    HW192482  13.806   6.782  11.016
30195SOL    HW292483  13.910   6.687  10.961
30196SOL     OW92484   5.929   3.871   7.532
30196SOL    HW192485   5.955   3.951   7.488
30196SOL    HW292486   5.854   3.896   7.586
30197SOL     OW92487   2.944   8.780   4.846
30197SOL    HW192488   2.879   8.740   4.904
30197SOL    HW292489   2.898   8.850   4.801
30198SOL     OW92490   3.152   7.028  12.102
30198SOL    HW192491   3.063   7.031  12.136
30198SOL    HW292492   3.172   6.935  12.096
30199SOL     OW92493  14.279   9.029  14.021
30199SOL    HW192494  14.274   8.982  13.938
30199SOL    HW292495  14.365   9.006  14.056
30200SOL     OW92496  13.177   4.034   4.845
30200SOL    HW192497  13.216   3.962   4.795
30200SOL    HW292498  13.085   4.011   4.853
30201SOL     OW92499   4.565   5.064  14.369
30201SOL    HW192500   4.649   5.027  14.397
30201SOL    HW292501   4.554   5.034  14.279
30202SOL     OW92502   5.600   1.389  14.428
30202SOL    HW192503   5.546   1.403  14.506
30202SOL    HW292504   5.680   1.349  14.463
30203SOL     OW92505   1.470   7.066   2.618
30203SOL    HW192506   1.544   7.094   2.673
30203SOL    HW292507   1.429   7.147   2.589
30204SOL     OW92508   8.405   5.734   1.328
30204SOL    HW192509   8.407   5.802   1.395
30204SOL    HW292510   8.343   5.669   1.361
30205SOL     OW92511  11.516   9.205   3.315
30205SOL    HW192512  11.529   9.265   3.242
30205SOL    HW292513  11.566   9.127   3.291
30206SOL     OW92514   3.510   4.826  11.539
30206SOL    HW192515   3.574   4.765  11.577
30206SOL    HW292516   3.516   4.904  11.595
30207SOL     OW92517   9.659   4.652   4.000
30207SOL    HW192518   9.619   4.710   3.936
30207SOL    HW292519   9.735   4.700   4.032
30208SOL     OW92520   1.454  11.699   8.600
30208SOL    HW192521   1.381  11.641   8.580
30208SOL    HW292522   1.460  11.698   8.696
30209SOL     OW92523  11.451  11.531  11.653
30209SOL    HW192524  11.513  11.598  11.625
30209SOL    HW292525  11.498  11.481  11.719
30210SOL     OW92526   0.949   5.426   1.723
30210SOL    HW192527   0.956   5.506   1.776
30210SOL    HW292528   0.868   5.385   1.753
30211SOL     OW92529   4.561   4.209  13.690
30211SOL    HW192530   4.618   4.278  13.655
30211SOL    HW292531   4.472   4.244  13.678
30212SOL     OW92532   7.910   2.053  11.348
30212SOL    HW192533   7.912   1.968  11.390
30212SOL    HW292534   7.853   2.042  11.272
30213SOL     OW92535   5.076   1.096   9.973
30213SOL    HW192536   5.142   1.122  10.037
30213SOL    HW292537   5.021   1.034  10.018
30214SOL     OW92538  10.027   4.776   1.396
30214SOL    HW192539  10.094   4.738   1.453
30214SOL    HW292540  10.075   4.810   1.321
30215SOL     OW92541   8.387  14.157   7.646
30215SOL    HW192542   8.326  14.143   7.574
30215SOL    HW292543   8.422  14.070   7.665
30216SOL     OW92544  11.390   7.037   6.072
30216SOL    HW192545  11.381   6.970   6.005
30216SOL    HW292546  11.433   6.991   6.145
30217SOL     OW92547   7.321   4.472   3.309
30217SOL    HW192548   7.298   4.427   3.228
30217SOL    HW292549   7.292   4.563   3.294
30218SOL     OW92550   3.993   6.333  13.179
30218SOL    HW192551   4.080   6.294  13.168
30218SOL    HW292552   3.994   6.412  13.126
30219SOL     OW92553  10.542  13.074   6.310
30219SOL    HW192554  10.521  13.036   6.396
30219SOL    HW292555  10.545  12.998   6.251
30220SOL     OW92556  13.842   1.920   0.360
30220SOL    HW192557  13.910   1.985   0.342
30220SOL    HW292558  13.875   1.871   0.435
30221SOL     OW92559   2.497   8.925  14.467
30221SOL    HW192560   2.475   8.980  14.393
30221SOL    HW292561   2.579   8.962  14.501
30222SOL     OW92562   9.491   4.108   9.209
30222SOL    HW192563   9.568   4.122   9.263
30222SOL    HW292564   9.521   4.125   9.120
30223SOL     OW92565   8.119   6.504   0.245
30223SOL    HW192566   8.065   6.540   0.315
30223SOL    HW292567   8.198   6.560   0.246
30224SOL     OW92568  13.549   9.214  11.052
30224SOL    HW192569  13.577   9.305  11.059
30224SOL    HW292570  13.504   9.209  10.968
30225SOL     OW92571   7.995   6.154  10.112
30225SOL    HW192572   7.957   6.072  10.080
30225SOL    HW292573   7.981   6.216  10.040
30226SOL     OW92574   5.711  12.790  13.130
30226SOL    HW192575   5.733  12.783  13.223
30226SOL    HW292576   5.675  12.878  13.121
30227SOL     OW92577   8.603   4.560   4.727
30227SOL    HW192578   8.541   4.633   4.731
30227SOL    HW292579   8.552   4.487   4.692
30228SOL     OW92580   0.095  11.629   8.424
30228SOL    HW192581   0.186  11.621   8.395
30228SOL    HW292582   0.087  11.566   8.495
30229SOL     OW92583  14.037  10.695  13.575
30229SOL    HW192584  14.055  10.788  13.588
30229SOL    HW292585  13.962  10.677  13.631
30230SOL     OW92586   5.246   1.342   1.624
30230SOL    HW192587   5.200   1.362   1.705
30230SOL    HW292588   5.336   1.327   1.650
30231SOL     OW92589  13.510   3.343  13.054
30231SOL    HW192590  13.481   3.394  13.130
30231SOL    HW292591  13.599   3.315  13.077
30232SOL     OW92592   4.122   9.032   5.759
30232SOL    HW192593   4.043   8.984   5.784
30232SOL    HW292594   4.178   8.966   5.720
30233SOL     OW92595   6.056   9.149  14.478
30233SOL    HW192596   6.121   9.175  14.543
30233SOL    HW292597   6.013   9.072  14.516
30234SOL     OW92598   6.291   7.329   3.209
30234SOL    HW192599   6.256   7.281   3.284
30234SOL    HW292600   6.312   7.415   3.243
30235SOL     OW92601   3.773  13.062  12.639
30235SOL    HW192602   3.710  13.001  12.601
30235SOL    HW292603   3.724  13.108  12.707
30236SOL     OW92604   0.088   1.958   8.028
30236SOL    HW192605   0.015   1.901   8.053
30236SOL    HW292606   0.052   2.046   8.032
30237SOL     OW92607  12.894   1.530  14.290
30237SOL    HW192608  12.903   1.609  14.344
30237SOL    HW292609  12.845   1.559  14.213
30238SOL     OW92610   8.993   1.513   7.249
30238SOL    HW192611   9.048   1.587   7.273
30238SOL    HW292612   8.968   1.473   7.332
30239SOL     OW92613   9.059  12.830   8.024
30239SOL    HW192614   9.050  12.777   8.104
30239SOL    HW292615   9.093  12.770   7.958
30240SOL     OW92616   8.439   9.189   4.956
30240SOL    HW192617   8.395   9.225   4.880
30240SOL    HW292618   8.412   9.245   5.029
30241SOL     OW92619   5.455   7.768  10.413
30241SOL    HW192620   5.464   7.711  10.336
30241SOL    HW292621   5.419   7.850  10.377
30242SOL     OW92622  10.992  13.546   0.211
30242SOL    HW192623  10.911  13.561   0.261
30242SOL    HW292624  10.969  13.477   0.148
30243SOL     OW92625  12.465   4.175  12.472
30243SOL    HW192626  12.553   4.137  12.481
30243SOL    HW292627  12.466   4.253  12.527
30244SOL     OW92628  10.875   9.389   9.448
30244SOL    HW192629  10.925   9.359   9.524
30244SOL    HW292630  10.841   9.474   9.474
30245SOL     OW92631   9.636   1.218   5.215
30245SOL    HW192632   9.711   1.278   5.210
30245SOL    HW292633   9.672   1.137   5.251
30246SOL     OW92634  10.791  10.209   7.787
30246SOL    HW192635  10.865  10.169   7.832
30246SOL    HW292636  10.827  10.239   7.703
30247SOL     OW92637   8.768   8.218   4.691
30247SOL    HW192638   8.857   8.186   4.705
30247SOL    HW292639   8.779   8.296   4.636
30248SOL     OW92640   6.176   8.610   6.877
30248SOL    HW192641   6.246   8.656   6.924
30248SOL    HW292642   6.098   8.622   6.932
30249SOL     OW92643  13.786   2.147   1.773
30249SOL    HW192644  13.729   2.223   1.782
30249SOL    HW292645  13.799   2.115   1.862
30250SOL     OW92646   1.370   9.526   6.418
30250SOL    HW192647   1.293   9.469   6.411
30250SOL    HW292648   1.397   9.518   6.510
30251SOL     OW92649   3.034   2.032  14.302
30251SOL    HW192650   3.063   1.950  14.342
30251SOL    HW292651   2.951   2.052  14.344
30252SOL     OW92652   1.166   4.043   2.352
30252SOL    HW192653   1.142   3.950   2.351
30252SOL    HW292654   1.238   4.049   2.289
30253SOL     OW92655   9.176   3.099   9.157
30253SOL    HW192656   9.139   3.157   9.224
30253SOL    HW292657   9.102   3.078   9.100
30254SOL     OW92658   2.101   8.012  12.883
30254SOL    HW192659   2.185   8.041  12.919
30254SOL    HW292660   2.043   8.087  12.891
30255SOL     OW92661   0.387   5.139  10.536
30255SOL    HW192662   0.404   5.048  10.509
30255SOL    HW292663   0.473   5.181  10.533
30256SOL     OW92664   1.047   9.536   9.806
30256SOL    HW192665   1.040   9.440   9.798
30256SOL    HW292666   0.956   9.566   9.803
30257SOL     OW92667   9.803  10.882   9.748
30257SOL    HW192668   9.746  10.830   9.692
30257SOL    HW292669   9.803  10.835   9.832
30258SOL     OW92670   2.338  14.857  14.533
30258SOL    HW192671   2.431  14.840  14.521
30258SOL    HW292672   2.333   0.035  14.617
30259SOL     OW92673   9.875   9.756  14.780
30259SOL    HW192674   9.817   9.827  14.755
30259SOL    HW292675   9.875   9.756   0.008
30260SOL     OW92676   3.071   7.484   4.253
30260SOL    HW192677   3.117   7.439   4.182
30260SOL    HW292678   3.133   7.551   4.282
30261SOL     OW92679  11.732   4.413  13.302
30261SOL    HW192680  11.681   4.370  13.233
30261SOL    HW292681  11.681   4.491  13.324
30262SOL     OW92682   9.532   0.506  13.493
30262SOL    HW192683   9.443   0.475  13.507
30262SOL    HW292684   9.541   0.581  13.552
30263SOL     OW92685   7.333   4.454   7.534
30263SOL    HW192686   7.412   4.432   7.582
30263SOL    HW292687   7.364   4.490   7.451
30264SOL     OW92688  11.318   4.112   5.680
30264SOL    HW192689  11.313   4.068   5.595
30264SOL    HW292690  11.357   4.046   5.738
30265SOL     OW92691   3.803   4.778   9.547
30265SOL    HW192692   3.892   4.787   9.580
30265SOL    HW292693   3.797   4.844   9.478
30266SOL     OW92694  11.485   1.054  10.084
30266SOL    HW192695  11.400   1.083  10.050
30266SOL    HW292696  11.479   1.072  10.178
30267SOL     OW92697   3.243  14.626   2.474
30267SOL    HW192698   3.284  14.655   2.556
30267SOL    HW292699   3.198  14.545   2.497
30268SOL     OW92700   8.821   9.721  13.678
30268SOL    HW192701   8.798   9.628  13.676
30268SOL    HW292702   8.748   9.766  13.636
30269SOL     OW92703   1.355   6.758   7.327
30269SOL    HW192704   1.274   6.801   7.299
30269SOL    HW292705   1.425   6.811   7.289
30270SOL     OW92706  14.750   1.631   3.229
30270SOL    HW192707  14.842   1.653   3.240
30270SOL    HW292708  14.704   1.714   3.239
30271SOL     OW92709  11.758  13.195   7.092
30271SOL    HW192710  11.801  13.277   7.067
30271SOL    HW292711  11.669  13.202   7.056
30272SOL     OW92712  14.856   0.219   7.920
30272SOL    HW192713  14.832   0.200   8.011
30272SOL    HW292714   0.039   0.300   7.925
30273SOL     OW92715   2.661  13.098   3.168
30273SOL    HW192716   2.713  13.117   3.246
30273SOL    HW292717   2.570  13.106   3.198
30274SOL     OW92718   8.511   5.386  11.036
30274SOL    HW192719   8.455   5.310  11.018
30274SOL    HW292720   8.575   5.386  10.965
30275SOL     OW92721   6.382   0.266   4.150
30275SOL    HW192722   6.417   0.214   4.222
30275SOL    HW292723   6.457   0.318   4.120
30276SOL     OW92724   8.002  12.450   7.049
30276SOL    HW192725   7.910  12.434   7.072
30276SOL    HW292726   8.015  12.400   6.968
30277SOL     OW92727   7.391  13.561   9.468
30277SOL    HW192728   7.367  13.482   9.516
30277SOL    HW292729   7.483  13.574   9.489
30278SOL     OW92730   1.479   5.219   9.080
30278SOL    HW192731   1.505   5.275   9.152
30278SOL    HW292732   1.384   5.225   9.078
30279SOL     OW92733   0.604  10.815   1.433
30279SOL    HW192734   0.645  10.729   1.447
30279SOL    HW292735   0.670  10.867   1.388
30280SOL     OW92736  12.719   1.556  12.743
30280SOL    HW192737  12.652   1.607  12.697
30280SOL    HW292738  12.773   1.519  12.673
30281SOL     OW92739   2.714   0.534   7.274
30281SOL    HW192740   2.668   0.581   7.344
30281SOL    HW292741   2.645   0.514   7.209
30282SOL     OW92742   4.639   1.060  11.963
30282SOL    HW192743   4.593   1.099  11.888
30282SOL    HW292744   4.672   0.977  11.930
30283SOL     OW92745   4.213   2.290   5.840
30283SOL    HW192746   4.275   2.234   5.887
30283SOL    HW292747   4.239   2.379   5.865
30284SOL     OW92748  14.052   8.942   9.564
30284SOL    HW192749  14.055   8.935   9.468
30284SOL    HW292750  14.083   8.857   9.595
30285SOL     OW92751   8.500  13.054   9.235
30285SOL    HW192752   8.434  13.083   9.172
30285SOL    HW292753   8.578  13.105   9.213
30286SOL     OW92754   5.347   8.406   1.835
30286SOL    HW192755   5.319   8.402   1.926
30286SOL    HW292756   5.313   8.490   1.803
30287SOL     OW92757   8.773   5.079   2.671
30287SOL    HW192758   8.841   5.093   2.605
30287SOL    HW292759   8.802   5.130   2.747
30288SOL     OW92760   0.123   7.092   1.660
30288SOL    HW192761   0.202   7.141   1.682
30288SOL    HW292762   0.079   7.079   1.744
30289SOL     OW92763   3.046  12.025   0.977
30289SOL    HW192764   3.099  12.083   0.921
30289SOL    HW292765   3.083  11.938   0.962
30290SOL     OW92766  13.408  11.247   0.435
30290SOL    HW192767  13.353  11.249   0.514
30290SOL    HW292768  13.346  11.227   0.364
30291SOL     OW92769  10.143   2.483  10.798
30291SOL    HW192770  10.194   2.408  10.769
30291SOL    HW292771  10.176   2.556  10.746
30292SOL     OW92772   2.358  11.933  12.013
30292SOL    HW192773   2.418  11.992  11.967
30292SOL    HW292774   2.308  11.890  11.944
30293SOL     OW92775   2.660  12.498   6.701
30293SOL    HW192776   2.755  12.513   6.695
30293SOL    HW292777   2.626  12.526   6.616
30294SOL     OW92778  14.864   0.708  13.639
30294SOL    HW192779  14.837   0.646  13.571
30294SOL    HW292780   0.031   0.652  13.709
30295SOL     OW92781   8.766   6.656   8.032
30295SOL    HW192782   8.693   6.619   7.982
30295SOL    HW292783   8.841   6.601   8.008
30296SOL     OW92784  14.554   5.063   6.986
30296SOL    HW192785  14.576   5.148   7.022
30296SOL    HW292786  14.607   5.055   6.907
30297SOL     OW92787   1.546  10.142   8.827
30297SOL    HW192788   1.502  10.070   8.872
30297SOL    HW292789   1.590  10.100   8.752
30298SOL     OW92790   6.994  13.636   8.206
30298SOL    HW192791   7.071  13.668   8.253
30298SOL    HW292792   6.932  13.709   8.210
30299SOL     OW92793   7.311  10.401  13.726
30299SOL    HW192794   7.272  10.485  13.750
30299SOL    HW292795   7.393  10.397  13.775
30300SOL     OW92796   8.887  13.238   3.166
30300SOL    HW192797   8.835  13.199   3.096
30300SOL    HW292798   8.914  13.165   3.220
30301SOL     OW92799   7.931   8.277   9.640
30301SOL    HW192800   7.951   8.276   9.733
30301SOL    HW292801   7.851   8.226   9.631
30302SOL     OW92802   9.226  14.628   6.275
30302SOL    HW192803   9.219  14.693   6.205
30302SOL    HW292804   9.300  14.658   6.328
30303SOL     OW92805  12.238  12.802   3.580
30303SOL    HW192806  12.258  12.793   3.673
30303SOL    HW292807  12.285  12.881   3.553
30304SOL     OW92808   8.149   1.611  10.536
30304SOL    HW192809   8.154   1.703  10.509
30304SOL    HW292810   8.059   1.585  10.517
30305SOL     OW92811   4.281   5.984   9.085
30305SOL    HW192812   4.227   5.984   9.006
30305SOL    HW292813   4.368   6.009   9.054
30306SOL     OW92814   3.773   3.450   4.653
30306SOL    HW192815   3.700   3.412   4.702
30306SOL    HW292816   3.735   3.525   4.608
30307SOL     OW92817   4.825  12.400   0.123
30307SOL    HW192818   4.786  12.394   0.036
30307SOL    HW292819   4.884  12.325   0.128
30308SOL     OW92820   0.383  14.158   1.380
30308SOL    HW192821   0.373  14.230   1.317
30308SOL    HW292822   0.295  14.120   1.386
30309SOL     OW92823  11.389   8.757   9.474
30309SOL    HW192824  11.347   8.683   9.518
30309SOL    HW292825  11.467   8.719   9.432
30310SOL     OW92826  11.963  13.668   2.416
30310SOL    HW192827  11.952  13.752   2.460
30310SOL    HW292828  12.013  13.614   2.477
30311SOL     OW92829   7.140   5.897  12.830
30311SOL    HW192830   7.173   5.814  12.865
30311SOL    HW292831   7.056   5.911  12.875
30312SOL     OW92832  11.590   8.435  12.288
30312SOL    HW192833  11.543   8.518  12.298
30312SOL    HW292834  11.522   8.368  12.292
30313SOL     OW92835  12.345   9.508  14.688
30313SOL    HW192836  12.415   9.534  14.628
30313SOL    HW292837  12.389   9.499  14.773
30314SOL     OW92838  14.016   7.879   8.907
30314SOL    HW192839  14.078   7.821   8.949
30314SOL    HW292840  14.066   7.958   8.887
30315SOL     OW92841   3.619   8.667   3.870
30315SOL    HW192842   3.627   8.611   3.793
30315SOL    HW292843   3.561   8.738   3.843
30316SOL     OW92844   5.533  13.617   2.546
30316SOL    HW192845   5.447  13.588   2.576
30316SOL    HW292846   5.515  13.687   2.483
30317SOL     OW92847  13.006   5.678  10.796
30317SOL    HW192848  13.012   5.747  10.862
30317SOL    HW292849  12.958   5.607  10.839
30318SOL     OW92850   0.714   8.884  12.834
30318SOL    HW192851   0.678   8.806  12.875
30318SOL    HW292852   0.795   8.855  12.792
30319SOL     OW92853   5.584   8.178   1.349
30319SOL    HW192854   5.620   8.197   1.263
30319SOL    HW292855   5.498   8.139   1.332
30320SOL     OW92856  10.080   1.705   4.019
30320SOL    HW192857  10.046   1.638   4.079
30320SOL    HW292858  10.099   1.780   4.076
30321SOL     OW92859  14.546  12.322   3.335
30321SOL    HW192860  14.559  12.390   3.269
30321SOL    HW292861  14.577  12.241   3.293
30322SOL     OW92862   5.985   2.166  12.732
30322SOL    HW192863   5.949   2.102  12.671
30322SOL    HW292864   6.066   2.127  12.765
30323SOL     OW92865   9.249   4.932   1.556
30323SOL    HW192866   9.340   4.951   1.576
30323SOL    HW292867   9.204   4.938   1.640
30324SOL     OW92868   4.589  11.768   8.922
30324SOL    HW192869   4.644  11.779   9.000
30324SOL    HW292870   4.537  11.689   8.940
30325SOL     OW92871   1.502  11.593   5.536
30325SOL    HW192872   1.441  11.555   5.599
30325SOL    HW292873   1.521  11.680   5.571
30326SOL     OW92874   7.888   4.436   2.857
30326SOL    HW192875   7.823   4.388   2.806
30326SOL    HW292876   7.874   4.528   2.833
30327SOL     OW92877   9.901  12.833   5.174
30327SOL    HW192878   9.872  12.812   5.085
30327SOL    HW292879   9.994  12.810   5.175
30328SOL     OW92880   5.134   9.394  11.559
30328SOL    HW192881   5.075   9.321  11.537
30328SOL    HW292882   5.174   9.420  11.476
30329SOL     OW92883   9.402   5.477  12.647
30329SOL    HW192884   9.369   5.527  12.722
30329SOL    HW292885   9.396   5.538  12.573
30330SOL     OW92886   3.192  11.185   7.539
30330SOL    HW192887   3.266  11.219   7.489
30330SOL    HW292888   3.233  11.134   7.610
30331SOL     OW92889   9.270  12.155  10.215
30331SOL    HW192890   9.301  12.232  10.263
30331SOL    HW292891   9.289  12.175  10.124
30332SOL     OW92892  12.118   4.503   0.651
30332SOL    HW192893  12.024   4.504   0.632
30332SOL    HW292894  12.152   4.434   0.595
30333SOL     OW92895   7.780   4.418  14.441
30333SOL    HW192896   7.704   4.388  14.392
30333SOL    HW292897   7.815   4.338  14.481
30334SOL     OW92898  11.918   1.404   6.077
30334SOL    HW192899  11.979   1.383   6.006
30334SOL    HW292900  11.857   1.331   6.078
30335SOL     OW92901   5.086   6.576   9.841
30335SOL    HW192902   5.174   6.581   9.879
30335SOL    HW292903   5.099   6.532   9.757
30336SOL     OW92904   3.387   0.435   7.664
30336SOL    HW192905   3.406   0.360   7.608
30336SOL    HW292906   3.341   0.398   7.739
30337SOL     OW92907   1.606  13.075   3.782
30337SOL    HW192908   1.652  13.115   3.856
30337SOL    HW292909   1.515  13.073   3.809
30338SOL     OW92910  13.569   8.864   5.212
30338SOL    HW192911  13.657   8.894   5.188
30338SOL    HW292912  13.570   8.770   5.193
30339SOL     OW92913  12.280   6.712  13.477
30339SOL    HW192914  12.254   6.652  13.547
30339SOL    HW292915  12.232   6.681  13.400
30340SOL     OW92916  10.550   5.263  11.993
30340SOL    HW192917  10.566   5.245  12.085
30340SOL    HW292918  10.634   5.245  11.950
30341SOL     OW92919   0.072   3.508   8.900
30341SOL    HW192920   0.046   3.455   8.975
30341SOL    HW292921   0.112   3.586   8.938
30342SOL     OW92922  10.649   7.030   7.887
30342SOL    HW192923  10.610   7.017   7.800
30342SOL    HW292924  10.704   6.953   7.900
30343SOL     OW92925   7.714  10.322   8.678
30343SOL    HW192926   7.663  10.256   8.725
30343SOL    HW292927   7.706  10.401   8.731
30344SOL     OW92928  14.098   2.173  13.661
30344SOL    HW192929  14.105   2.130  13.747
30344SOL    HW292930  14.043   2.114  13.610
30345SOL     OW92931   1.649   8.038  11.524
30345SOL    HW192932   1.611   8.107  11.577
30345SOL    HW292933   1.734   8.021  11.564
30346SOL     OW92934   4.064  12.538   4.822
30346SOL    HW192935   4.002  12.530   4.894
30346SOL    HW292936   4.040  12.469   4.761
30347SOL     OW92937   8.017   1.148  13.372
30347SOL    HW192938   7.968   1.097  13.437
30347SOL    HW292939   7.954   1.212  13.340
30348SOL     OW92940   5.187  14.692   9.197
30348SOL    HW192941   5.119  14.703   9.130
30348SOL    HW292942   5.241  14.620   9.164
30349SOL     OW92943   0.364   6.997   5.454
30349SOL    HW192944   0.375   7.091   5.437
30349SOL    HW292945   0.281   6.974   5.413
30350SOL     OW92946   4.772   0.442  10.486
30350SOL    HW192947   4.761   0.350  10.509
30350SOL    HW292948   4.808   0.441  10.397
30351SOL     OW92949  13.423  11.390  11.592
30351SOL    HW192950  13.350  11.452  11.591
30351SOL    HW292951  13.419  11.348  11.506
30352SOL     OW92952   9.126   2.881   6.362
30352SOL    HW192953   9.196   2.817   6.372
30352SOL    HW292954   9.151   2.932   6.285
30353SOL     OW92955   5.931  12.623   2.343
30353SOL    HW192956   5.952  12.617   2.436
30353SOL    HW292957   5.842  12.657   2.340
30354SOL     OW92958   3.391   2.196  14.153
30354SOL    HW192959   3.454   2.153  14.095
30354SOL    HW292960   3.413   2.163  14.240
30355SOL     OW92961   5.899   6.672   6.001
30355SOL    HW192962   5.912   6.669   5.906
30355SOL    HW292963   5.851   6.592   6.021
30356SOL     OW92964  13.820   4.622   1.196
30356SOL    HW192965  13.734   4.663   1.198
30356SOL    HW292966  13.877   4.683   1.243
30357SOL     OW92967   9.425   2.814   5.279
30357SOL    HW192968   9.338   2.811   5.240
30357SOL    HW292969   9.476   2.750   5.230
30358SOL     OW92970  13.555  11.289   2.439
30358SOL    HW192971  13.581  11.333   2.519
30358SOL    HW292972  13.624  11.225   2.422
30359SOL     OW92973   1.407  14.371  12.480
30359SOL    HW192974   1.314  14.358  12.502
30359SOL    HW292975   1.406  14.397  12.388
30360SOL     OW92976   6.035   5.613   1.871
30360SOL    HW192977   6.028   5.530   1.825
30360SOL    HW292978   6.098   5.664   1.819
30361SOL     OW92979   4.787   2.370   3.641
30361SOL    HW192980   4.711   2.362   3.583
30361SOL    HW292981   4.821   2.281   3.649
30362SOL     OW92982   9.724  13.677   5.840
30362SOL    HW192983   9.811  13.695   5.804
30362SOL    HW292984   9.696  13.760   5.877
30363SOL     OW92985  12.435  13.589  10.270
30363SOL    HW192986  12.511  13.559  10.221
30363SOL    HW292987  12.464  13.592  10.361
30364SOL     OW92988   3.032  10.721   1.872
30364SOL    HW192989   3.041  10.793   1.934
30364SOL    HW292990   2.943  10.689   1.885
30365SOL     OW92991   2.669   9.086  13.987
30365SOL    HW192992   2.732   9.023  14.022
30365SOL    HW292993   2.672   9.072  13.892
30366SOL     OW92994   4.773   5.785  11.170
30366SOL    HW192995   4.689   5.812  11.207
30366SOL    HW292996   4.779   5.833  11.088
30367SOL     OW92997   1.045   3.094  13.123
30367SOL    HW192998   0.979   3.121  13.059
30367SOL    HW292999   0.994   3.069  13.200
30368SOL     OW93000  14.216  14.294   8.268
30368SOL    HW193001  14.204  14.365   8.331
30368SOL    HW293002  14.140  14.237   8.283
30369SOL     OW93003   9.015   0.534   6.950
30369SOL    HW193004   9.059   0.534   7.036
30369SOL    HW293005   8.972   0.448   6.945
30370SOL     OW93006  14.173  14.784   3.709
30370SOL    HW193007  14.200  14.867   3.669
30370SOL    HW293008  14.089  14.803   3.750
30371SOL     OW93009  14.644   4.271  11.761
30371SOL    HW193010  14.551   4.264  11.785
30371SOL    HW293011  14.676   4.181  11.763
30372SOL     OW93012   6.547   3.007   1.702
30372SOL    HW193013   6.582   3.034   1.787
30372SOL    HW293014   6.590   2.923   1.685
30373SOL     OW93015  12.054  14.335  10.829
30373SOL    HW193016  12.105  14.379  10.897
30373SOL    HW293017  12.062  14.392  10.753
30374SOL     OW93018   2.159  12.563   5.146
30374SOL    HW193019   2.158  12.611   5.064
30374SOL    HW293020   2.146  12.630   5.214
30375SOL     OW93021  14.575   5.951   4.684
30375SOL    HW193022  14.553   5.988   4.599
30375SOL    HW293023  14.490   5.939   4.728
30376SOL     OW93024   8.482   4.765  10.597
30376SOL    HW193025   8.392   4.732  10.597
30376SOL    HW293026   8.535   4.691  10.626
30377SOL     OW93027   6.790  10.503   2.411
30377SOL    HW193028   6.717  10.463   2.365
30377SOL    HW293029   6.750  10.539   2.491
30378SOL     OW93030   1.737   3.657  12.452
30378SOL    HW193031   1.825   3.687  12.430
30378SOL    HW293032   1.680   3.729  12.426
30379SOL     OW93033   6.583  13.585   2.657
30379SOL    HW193034   6.668  13.617   2.686
30379SOL    HW293035   6.528  13.589   2.735
30380SOL     OW93036   3.467  11.529   3.123
30380SOL    HW193037   3.485  11.488   3.208
30380SOL    HW293038   3.540  11.502   3.067
30381SOL     OW93039   3.300  10.813   9.131
30381SOL    HW193040   3.317  10.804   9.038
30381SOL    HW293041   3.378  10.856   9.166
30382SOL     OW93042   9.574   7.662  14.401
30382SOL    HW193043   9.557   7.710  14.482
30382SOL    HW293044   9.546   7.573  14.419
30383SOL     OW93045   8.828  11.108  12.274
30383SOL    HW193046   8.872  11.182  12.316
30383SOL    HW293047   8.756  11.148  12.225
30384SOL     OW93048   1.694   4.440  13.677
30384SOL    HW193049   1.614   4.487  13.702
30384SOL    HW293050   1.698   4.365  13.737
30385SOL     OW93051   6.669   2.189   4.749
30385SOL    HW193052   6.722   2.227   4.820
30385SOL    HW293053   6.693   2.239   4.671
30386SOL     OW93054  12.699   2.397  11.317
30386SOL    HW193055  12.626   2.344  11.284
30386SOL    HW293056  12.772   2.375  11.260
30387SOL     OW93057   1.129  13.204  12.271
30387SOL    HW193058   1.037  13.181  12.270
30387SOL    HW293059   1.157  13.189  12.361
30388SOL     OW93060  12.381   9.685   4.386
30388SOL    HW193061  12.404   9.707   4.476
30388SOL    HW293062  12.288   9.708   4.378
30389SOL     OW93063  13.631  11.462   1.611
30389SOL    HW193064  13.564  11.406   1.573
30389SOL    HW293065  13.586  11.514   1.677
30390SOL     OW93066   5.714   7.224  14.679
30390SOL    HW193067   5.708   7.181  14.764
30390SOL    HW293068   5.654   7.298  14.685
30391SOL     OW93069   8.630   8.981   7.147
30391SOL    HW193070   8.704   8.993   7.207
30391SOL    HW293071   8.560   9.034   7.185
30392SOL     OW93072   9.372   4.568  14.578
30392SOL    HW193073   9.436   4.510  14.619
30392SOL    HW293074   9.368   4.644  14.636
30393SOL     OW93075   8.057  14.515  11.879
30393SOL    HW193076   8.088  14.424  11.880
30393SOL    HW293077   8.024  14.530  11.967
30394SOL     OW93078   9.857   8.224  12.101
30394SOL    HW193079   9.926   8.244  12.037
30394SOL    HW293080   9.875   8.134  12.128
30395SOL     OW93081   0.900   7.896   2.151
30395SOL    HW193082   0.965   7.910   2.220
30395SOL    HW293083   0.910   7.804   2.126
30396SOL     OW93084  14.163  14.464  13.155
30396SOL    HW193085  14.198  14.524  13.220
30396SOL    HW293086  14.074  14.445  13.184
30397SOL     OW93087   2.392   7.709  10.423
30397SOL    HW193088   2.355   7.786  10.380
30397SOL    HW293089   2.358   7.713  10.512
30398SOL     OW93090  14.840   0.861  14.028
30398SOL    HW193091  14.851   0.816  14.111
30398SOL    HW293092  14.831   0.791  13.963
30399SOL     OW93093   7.802   3.277   1.197
30399SOL    HW193094   7.834   3.317   1.116
30399SOL    HW293095   7.786   3.185   1.174
30400SOL     OW93096  12.363   4.941   8.382
30400SOL    HW193097  12.418   4.864   8.392
30400SOL    HW293098  12.367   4.985   8.468
30401SOL     OW93099   9.850   8.197   6.927
30401SOL    HW193100   9.796   8.159   6.997
30401SOL    HW293101   9.877   8.282   6.962
30402SOL     OW93102  11.312   9.549   4.326
30402SOL    HW193103  11.350   9.636   4.340
30402SOL    HW293104  11.349   9.521   4.242
30403SOL     OW93105   9.736   7.510   5.801
30403SOL    HW193106   9.718   7.585   5.745
30403SOL    HW293107   9.659   7.503   5.857
30404SOL     OW93108   5.106   0.986  10.233
30404SOL    HW193109   5.170   1.046  10.193
30404SOL    HW293110   5.116   1.000  10.327
30405SOL     OW93111  12.867   9.404  10.009
30405SOL    HW193112  12.862   9.423  10.103
30405SOL    HW293113  12.827   9.480   9.967
30406SOL     OW93114   8.697  12.505   7.082
30406SOL    HW193115   8.630  12.526   7.017
30406SOL    HW293116   8.778  12.497   7.031
30407SOL     OW93117   6.387   0.125   9.340
30407SOL    HW193118   6.468   0.076   9.350
30407SOL    HW293119   6.340   0.112   9.423
30408SOL     OW93120  13.765  13.445   8.878
30408SOL    HW193121  13.720  13.377   8.827
30408SOL    HW293122  13.705  13.519   8.878
30409SOL     OW93123  10.880   7.442   0.905
30409SOL    HW193124  10.808   7.440   0.841
30409SOL    HW293125  10.883   7.533   0.934
30410SOL     OW93126   6.103  10.307   1.061
30410SOL    HW193127   6.047  10.377   1.095
30410SOL    HW293128   6.084  10.304   0.967
30411SOL     OW93129   2.397   6.481  11.016
30411SOL    HW193130   2.377   6.538  10.942
30411SOL    HW293131   2.313   6.439  11.038
30412SOL     OW93132   6.419   4.068   4.122
30412SOL    HW193133   6.394   4.102   4.208
30412SOL    HW293134   6.387   4.135   4.060
30413SOL     OW93135   9.081   4.151   2.744
30413SOL    HW193136   9.042   4.208   2.678
30413SOL    HW293137   9.147   4.205   2.787
30414SOL     OW93138   3.204  10.083   4.127
30414SOL    HW193139   3.143  10.078   4.053
30414SOL    HW293140   3.236  10.173   4.125
30415SOL     OW93141  10.018   9.413   8.220
30415SOL    HW193142  10.089   9.348   8.218
30415SOL    HW293143  10.054   9.486   8.269
30416SOL     OW93144   8.259   1.649  12.455
30416SOL    HW193145   8.308   1.712  12.403
30416SOL    HW293146   8.322   1.616  12.519
30417SOL     OW93147  13.769   2.119  10.148
30417SOL    HW193148  13.848   2.070  10.168
30417SOL    HW293149  13.716   2.113  10.228
30418SOL     OW93150  14.309   5.620  10.767
30418SOL    HW193151  14.224   5.644  10.731
30418SOL    HW293152  14.371   5.681  10.727
30419SOL     OW93153   5.468  12.269   5.527
30419SOL    HW193154   5.521  12.344   5.502
30419SOL    HW293155   5.387  12.307   5.561
30420SOL     OW93156   5.020   9.499   2.211
30420SOL    HW193157   5.077   9.569   2.180
30420SOL    HW293158   5.049   9.484   2.301
30421SOL     OW93159   3.851  10.242  13.055
30421SOL    HW193160   3.932  10.288  13.078
30421SOL    HW293161   3.879  10.152  13.040
30422SOL     OW93162   2.201  13.585   4.723
30422SOL    HW193163   2.155  13.503   4.705
30422SOL    HW293164   2.241  13.572   4.808
30423SOL     OW93165   7.367  11.572   1.988
30423SOL    HW193166   7.361  11.551   2.081
30423SOL    HW293167   7.396  11.491   1.946
30424SOL     OW93168   3.474   9.417   3.443
30424SOL    HW193169   3.551   9.369   3.473
30424SOL    HW293170   3.477   9.500   3.490
30425SOL     OW93171  13.434   0.176   1.032
30425SOL    HW193172  13.439   0.158   1.126
30425SOL    HW293173  13.369   0.114   0.998
30426SOL     OW93174  14.136  14.279   0.212
30426SOL    HW193175  14.171  14.206   0.264
30426SOL    HW293176  14.142  14.354   0.271
30427SOL     OW93177   6.136  12.819   9.436
30427SOL    HW193178   6.164  12.811   9.344
30427SOL    HW293179   6.152  12.910   9.458
30428SOL     OW93180  12.213  12.134   3.782
30428SOL    HW193181  12.191  12.158   3.872
30428SOL    HW293182  12.160  12.192   3.728
30429SOL     OW93183   2.056   3.986   6.997
30429SOL    HW193184   2.047   3.895   7.025
30429SOL    HW293185   2.074   4.034   7.078
30430SOL     OW93186   0.253   6.965   6.752
30430SOL    HW193187   0.165   6.962   6.715
30430SOL    HW293188   0.304   7.016   6.689
30431SOL     OW93189   1.261  11.764  14.554
30431SOL    HW193190   1.275  11.670  14.539
30431SOL    HW293191   1.292  11.805  14.474
30432SOL     OW93192   3.479   9.584   7.986
30432SOL    HW193193   3.386   9.602   7.979
30432SOL    HW293194   3.497   9.521   7.916
30433SOL     OW93195   4.799   2.317  11.702
30433SOL    HW193196   4.858   2.390  11.717
30433SOL    HW293197   4.716   2.344  11.742
30434SOL     OW93198   9.595   9.274   8.644
30434SOL    HW193199   9.532   9.334   8.603
30434SOL    HW293200   9.600   9.200   8.582
30435SOL     OW93201   4.509   0.119  13.135
30435SOL    HW193202   4.416   0.129  13.115
30435SOL    HW293203   4.515   0.130  13.230
30436SOL     OW93204   3.057   0.833   1.499
30436SOL    HW193205   3.133   0.843   1.441
30436SOL    HW293206   3.033   0.922   1.524
30437SOL     OW93207   3.313  14.280   0.899
30437SOL    HW193208   3.270  14.352   0.853
30437SOL    HW293209   3.389  14.320   0.940
30438SOL     OW93210  14.726   3.757   8.184
30438SOL    HW193211  14.808   3.728   8.143
30438SOL    HW293212  14.668   3.682   8.177
30439SOL     OW93213   6.588  10.737   0.314
30439SOL    HW193214   6.547  10.823   0.312
30439SOL    HW293215   6.610  10.718   0.223
30440SOL     OW93216   2.214   7.170   8.917
30440SOL    HW193217   2.183   7.094   8.965
30440SOL    HW293218   2.159   7.173   8.839
30441SOL     OW93219   3.653   3.202   9.317
30441SOL    HW193220   3.725   3.241   9.366
30441SOL    HW293221   3.682   3.113   9.297
30442SOL     OW93222   0.920   5.282  14.711
30442SOL    HW193223   0.945   5.374  14.707
30442SOL    HW293224   0.864   5.269  14.634
30443SOL     OW93225   7.166   6.048   3.041
30443SOL    HW193226   7.235   6.086   3.095
30443SOL    HW293227   7.116   6.124   3.010
30444SOL     OW93228   1.253  12.085   4.815
30444SOL    HW193229   1.342  12.114   4.794
30444SOL    HW293230   1.202  12.166   4.815
30445SOL     OW93231   1.292   8.927   2.131
30445SOL    HW193232   1.328   8.922   2.042
30445SOL    HW293233   1.224   8.993   2.125
30446SOL     OW93234  12.458   0.293  14.604
30446SOL    HW193235  12.463   0.349  14.682
30446SOL    HW293236  12.508   0.339  14.538
30447SOL     OW93237  12.379   9.869   6.462
30447SOL    HW193238  12.465   9.826   6.456
30447SOL    HW293239  12.355   9.888   6.372
30448SOL     OW93240   9.542   1.203  12.719
30448SOL    HW193241   9.472   1.151  12.681
30448SOL    HW293242   9.527   1.292  12.685
30449SOL     OW93243  13.012  14.361   3.142
30449SOL    HW193244  13.035  14.283   3.090
30449SOL    HW293245  12.958  14.414   3.083
30450SOL     OW93246  12.113   6.425  10.648
30450SOL    HW193247  12.097   6.379  10.565
30450SOL    HW293248  12.026   6.443  10.683
30451SOL     OW93249   5.075   6.612   9.303
30451SOL    HW193250   5.018   6.544   9.269
30451SOL    HW293251   5.164   6.581   9.284
30452SOL     OW93252   1.392  13.160   7.977
30452SOL    HW193253   1.443  13.138   8.054
30452SOL    HW293254   1.432  13.240   7.943
30453SOL     OW93255   1.142   4.454   1.573
30453SOL    HW193256   1.140   4.545   1.602
30453SOL    HW293257   1.052   4.423   1.582
30454SOL     OW93258  14.209   1.983  13.952
30454SOL    HW193259  14.234   2.070  13.920
30454SOL    HW293260  14.290   1.932  13.948
30455SOL     OW93261   8.060   6.894   3.017
30455SOL    HW193262   7.979   6.889   2.966
30455SOL    HW293263   8.080   6.804   3.040
30456SOL     OW93264   6.234   1.781  10.562
30456SOL    HW193265   6.277   1.866  10.568
30456SOL    HW293266   6.285   1.733  10.497
30457SOL     OW93267   4.097  13.551   0.563
30457SOL    HW193268   4.144  13.629   0.533
30457SOL    HW293269   4.151  13.518   0.635
30458SOL     OW93270  14.155   0.194  12.134
30458SOL    HW193271  14.168   0.287  12.151
30458SOL    HW293272  14.208   0.150  12.200
30459SOL     OW93273   8.128   9.347   0.418
30459SOL    HW193274   8.175   9.287   0.477
30459SOL    HW293275   8.196   9.381   0.360
30460SOL     OW93276  11.428   3.370  12.064
30460SOL    HW193277  11.454   3.340  12.152
30460SOL    HW293278  11.423   3.290  12.012
30461SOL     OW93279   0.989   8.852   7.306
30461SOL    HW193280   0.953   8.766   7.286
30461SOL    HW293281   0.913   8.909   7.311
30462SOL     OW93282  13.696   2.661  12.950
30462SOL    HW193283  13.770   2.618  12.906
30462SOL    HW293284  13.630   2.671  12.881
30463SOL     OW93285   2.374  10.325   3.570
30463SOL    HW193286   2.321  10.337   3.491
30463SOL    HW293287   2.321  10.363   3.640
30464SOL     OW93288  13.539  13.755   5.569
30464SOL    HW193289  13.528  13.730   5.660
30464SOL    HW293290  13.524  13.674   5.519
30465SOL     OW93291   7.558   8.254  12.449
30465SOL    HW193292   7.517   8.171  12.426
30465SOL    HW293293   7.637   8.230  12.498
30466SOL     OW93294  10.465   3.387   1.053
30466SOL    HW193295  10.457   3.402   0.959
30466SOL    HW293296  10.435   3.297   1.065
30467SOL     OW93297  12.149   3.265   7.842
30467SOL    HW193298  12.057   3.290   7.829
30467SOL    HW293299  12.199   3.334   7.799
30468SOL     OW93300   4.570   3.689   6.463
30468SOL    HW193301   4.561   3.783   6.480
30468SOL    HW293302   4.566   3.680   6.368
30469SOL     OW93303   2.300  13.534   4.994
30469SOL    HW193304   2.362  13.592   5.039
30469SOL    HW293305   2.221  13.536   5.048
30470SOL     OW93306  11.914   8.374  13.195
30470SOL    HW193307  11.936   8.467  13.208
30470SOL    HW293308  11.897   8.342  13.284
30471SOL     OW93309  10.069   5.968  11.730
30471SOL    HW193310   9.983   6.007  11.714
30471SOL    HW293311  10.070   5.889  11.675
30472SOL     OW93312   2.117  13.765  13.288
30472SOL    HW193313   2.210  13.762  13.308
30472SOL    HW293314   2.099  13.857  13.271
30473SOL     OW93315   4.816  10.262   4.464
30473SOL    HW193316   4.726  10.293   4.471
30473SOL    HW293317   4.812  10.169   4.487
30474SOL     OW93318   2.982   4.560   7.468
30474SOL    HW193319   3.016   4.593   7.551
30474SOL    HW293320   3.054   4.507   7.432
30475SOL     OW93321   4.983   3.968  12.372
30475SOL    HW193322   4.953   4.041  12.427
30475SOL    HW293323   5.077   3.962  12.389
30476SOL     OW93324   6.521  11.873  14.426
30476SOL    HW193325   6.456  11.919  14.479
30476SOL    HW293326   6.495  11.894  14.336
30477SOL     OW93327   0.594   8.298   2.304
30477SOL    HW193328   0.564   8.318   2.215
30477SOL    HW293329   0.678   8.255   2.291
30478SOL     OW93330  11.240   9.656   2.985
30478SOL    HW193331  11.289   9.614   2.914
30478SOL    HW293332  11.152   9.669   2.950
30479SOL     OW93333   7.035   4.749   7.648
30479SOL    HW193334   6.967   4.780   7.708
30479SOL    HW293335   7.053   4.824   7.592
30480SOL     OW93336  11.725   2.005  12.326
30480SOL    HW193337  11.706   2.092  12.292
30480SOL    HW293338  11.671   1.998  12.405
30481SOL     OW93339   5.072   4.569   6.803
30481SOL    HW193340   5.017   4.632   6.847
30481SOL    HW293341   5.104   4.511   6.872
30482SOL     OW93342   6.457   2.428  13.801
30482SOL    HW193343   6.523   2.387  13.858
30482SOL    HW293344   6.377   2.430  13.854
30483SOL     OW93345   6.674   5.391   6.650
30483SOL    HW193346   6.626   5.455   6.702
30483SOL    HW293347   6.705   5.441   6.574
30484SOL     OW93348  13.472  10.067   1.665
30484SOL    HW193349  13.386  10.038   1.634
30484SOL    HW293350  13.453  10.144   1.718
30485SOL     OW93351   0.388  13.784  11.032
30485SOL    HW193352   0.439  13.849  10.983
30485SOL    HW293353   0.430  13.701  11.012
30486SOL     OW93354  14.790   3.992  10.479
30486SOL    HW193355  14.815   4.056  10.413
30486SOL    HW293356   0.004   3.965  10.520
30487SOL     OW93357   2.571   1.945   8.329
30487SOL    HW193358   2.552   2.037   8.349
30487SOL    HW293359   2.489   1.899   8.346
30488SOL     OW93360   5.398   5.685  13.136
30488SOL    HW193361   5.417   5.778  13.140
30488SOL    HW293362   5.443   5.648  13.213
30489SOL     OW93363  13.976   9.428  11.081
30489SOL    HW193364  13.946   9.478  11.005
30489SOL    HW293365  13.923   9.349  11.081
30490SOL     OW93366  12.204   4.368   3.380
30490SOL    HW193367  12.260   4.333   3.449
30490SOL    HW293368  12.197   4.297   3.316
30491SOL     OW93369  14.319   6.314   7.794
30491SOL    HW193370  14.298   6.276   7.880
30491SOL    HW293371  14.311   6.240   7.734
30492SOL     OW93372   8.891   9.623   9.496
30492SOL    HW193373   8.888   9.705   9.546
30492SOL    HW293374   8.984   9.601   9.493
30493SOL     OW93375   1.853   5.367  11.758
30493SOL    HW193376   1.914   5.428  11.799
30493SOL    HW293377   1.904   5.323  11.690
30494SOL     OW93378   2.294  10.727   9.856
30494SOL    HW193379   2.373  10.781   9.857
30494SOL    HW293380   2.256  10.743   9.770
30495SOL     OW93381   3.121   5.870   1.033
30495SOL    HW193382   3.039   5.826   1.008
30495SOL    HW293383   3.166   5.886   0.950
30496SOL     OW93384  10.977   6.948  13.601
30496SOL    HW193385  10.927   6.894  13.540
30496SOL    HW293386  11.064   6.908  13.603
30497SOL     OW93387   6.111  10.936  13.245
30497SOL    HW193388   6.175  10.974  13.185
30497SOL    HW293389   6.076  10.860  13.199
30498SOL     OW93390   3.931   4.861   2.758
30498SOL    HW193391   3.849   4.906   2.776
30498SOL    HW293392   3.938   4.862   2.662
30499SOL     OW93393  12.743   4.746   1.506
30499SOL    HW193394  12.708   4.810   1.444
30499SOL    HW293395  12.769   4.672   1.452
30500SOL     OW93396   7.107   3.444  10.842
30500SOL    HW193397   7.036   3.423  10.781
30500SOL    HW293398   7.187   3.424  10.794
30501SOL     OW93399   1.450   3.994   5.803
30501SOL    HW193400   1.360   3.965   5.820
30501SOL    HW293401   1.456   4.079   5.847
30502SOL     OW93402  13.923   1.342  10.829
30502SOL    HW193403  13.974   1.371  10.904
30502SOL    HW293404  13.887   1.257  10.855
30503SOL     OW93405  12.917   8.188   1.499
30503SOL    HW193406  12.837   8.233   1.527
30503SOL    HW293407  12.981   8.208   1.568
30504SOL     OW93408  12.650   0.438   9.771
30504SOL    HW193409  12.711   0.365   9.781
30504SOL    HW293410  12.580   0.402   9.716
30505SOL     OW93411  14.529  12.290   0.121
30505SOL    HW193412  14.564  12.378   0.139
30505SOL    HW293413  14.573  12.263   0.040
30506SOL     OW93414   0.876   8.998   1.916
30506SOL    HW193415   0.926   8.932   1.868
30506SOL    HW293416   0.913   8.996   2.005
30507SOL     OW93417  11.183   0.605   7.626
30507SOL    HW193418  11.111   0.654   7.587
30507SOL    HW293419  11.176   0.518   7.587
30508SOL     OW93420   5.974   7.998   5.778
30508SOL    HW193421   5.907   7.955   5.832
30508SOL    HW293422   5.926   8.031   5.702
30509SOL     OW93423   3.976  12.603   9.040
30509SOL    HW193424   3.932  12.570   9.118
30509SOL    HW293425   4.033  12.532   9.012
30510SOL     OW93426   1.079   1.556  11.089
30510SOL    HW193427   1.121   1.639  11.109
30510SOL    HW293428   1.016   1.576  11.020
30511SOL     OW93429  12.915   6.203   5.609
30511SOL    HW193430  12.863   6.255   5.548
30511SOL    HW293431  12.965   6.143   5.554
30512SOL     OW93432   7.944  13.972   7.196
30512SOL    HW193433   7.939  13.960   7.291
30512SOL    HW293434   7.926  14.065   7.183
30513SOL     OW93435   5.959   6.609  14.009
30513SOL    HW193436   5.893   6.543  14.028
30513SOL    HW293437   6.041   6.570  14.040
30514SOL     OW93438   7.558  12.587  10.327
30514SOL    HW193439   7.553  12.539  10.245
30514SOL    HW293440   7.633  12.646  10.316
30515SOL     OW93441   8.132   8.806  10.665
30515SOL    HW193442   8.198   8.836  10.604
30515SOL    HW293443   8.150   8.854  10.746
30516SOL     OW93444   4.106   0.322   2.462
30516SOL    HW193445   4.020   0.310   2.503
30516SOL    HW293446   4.086   0.336   2.370
30517SOL     OW93447   0.156   8.360  11.244
30517SOL    HW193448   0.250   8.344  11.233
30517SOL    HW293449   0.131   8.310  11.321
30518SOL     OW93450   1.335   7.276   1.891
30518SOL    HW193451   1.317   7.313   1.805
30518SOL    HW293452   1.375   7.347   1.941
30519SOL     OW93453   9.591   1.505  12.184
30519SOL    HW193454   9.686   1.498  12.199
30519SOL    HW293455   9.576   1.598  12.171
30520SOL     OW93456   9.563   0.038  13.792
30520SOL    HW193457   9.543   0.131  13.786
30520SOL    HW293458   9.610   0.018  13.710
30521SOL     OW93459   0.337   5.814  10.801
30521SOL    HW193460   0.344   5.722  10.776
30521SOL    HW293461   0.257   5.818  10.853
30522SOL     OW93462  11.539   6.689   8.507
30522SOL    HW193463  11.584   6.648   8.581
30522SOL    HW293464  11.502   6.769   8.544
30523SOL     OW93465   4.079   1.664  13.758
30523SOL    HW193466   4.124   1.744  13.731
30523SOL    HW293467   4.140   1.621  13.817
30524SOL     OW93468   0.160   4.171  11.556
30524SOL    HW193469   0.066   4.155  11.562
30524SOL    HW293470   0.198   4.087  11.531
30525SOL     OW93471   8.977   5.277   2.782
30525SOL    HW193472   9.030   5.198   2.770
30525SOL    HW293473   8.985   5.297   2.876
30526SOL     OW93474  12.451   3.618   2.353
30526SOL    HW193475  12.379   3.565   2.320
30526SOL    HW293476  12.440   3.616   2.448
30527SOL     OW93477  12.717   0.518  12.404
30527SOL    HW193478  12.627   0.512  12.375
30527SOL    HW293479  12.761   0.443  12.364
30528SOL     OW93480  10.882   5.950   5.443
30528SOL    HW193481  10.804   5.910   5.480
30528SOL    HW293482  10.954   5.893   5.471
30529SOL     OW93483  10.779  14.686   6.365
30529SOL    HW193484  10.822  14.601   6.364
30529SOL    HW293485  10.829  14.738   6.428
30530SOL     OW93486   0.937  12.957  10.601
30530SOL    HW193487   0.943  13.030  10.664
30530SOL    HW293488   0.868  12.901  10.636
30531SOL     OW93489   4.568  11.470  10.069
30531SOL    HW193490   4.599  11.523   9.996
30531SOL    HW293491   4.644  11.416  10.093
30532SOL     OW93492  12.743   2.088  14.512
30532SOL    HW193493  12.750   2.179  14.484
30532SOL    HW293494  12.809   2.079  14.580
30533SOL     OW93495   9.230   9.554  10.961
30533SOL    HW193496   9.240   9.554  10.865
30533SOL    HW293497   9.197   9.641  10.981
30534SOL     OW93498   2.851   8.669   9.807
30534SOL    HW193499   2.923   8.698   9.750
30534SOL    HW293500   2.786   8.633   9.747
30535SOL     OW93501   8.649   3.559   3.258
30535SOL    HW193502   8.715   3.609   3.209
30535SOL    HW293503   8.569   3.611   3.251
30536SOL     OW93504   6.955   3.801   7.620
30536SOL    HW193505   6.927   3.727   7.673
30536SOL    HW293506   6.987   3.865   7.683
30537SOL     OW93507   6.566  11.417   3.418
30537SOL    HW193508   6.658  11.419   3.393
30537SOL    HW293509   6.558  11.338   3.472
30538SOL     OW93510  10.671  11.165  13.616
30538SOL    HW193511  10.712  11.191  13.533
30538SOL    HW293512  10.736  11.186  13.683
30539SOL     OW93513   9.431   9.054  14.002
30539SOL    HW193514   9.464   8.969  14.030
30539SOL    HW293515   9.509   9.105  13.979
30540SOL     OW93516   5.493   2.570   9.697
30540SOL    HW193517   5.582   2.568   9.733
30540SOL    HW293518   5.446   2.630   9.754
30541SOL     OW93519   7.084  10.495   5.673
30541SOL    HW193520   7.140  10.505   5.596
30541SOL    HW293521   7.040  10.579   5.682
30542SOL     OW93522   7.983   6.060   0.088
30542SOL    HW193523   8.016   6.149   0.091
30542SOL    HW293524   8.057   6.008   0.057
30543SOL     OW93525  13.381   1.306   8.989
30543SOL    HW193526  13.376   1.373   8.922
30543SOL    HW293527  13.291   1.278   9.003
30544SOL     OW93528   5.079   5.059   6.699
30544SOL    HW193529   5.105   5.143   6.661
30544SOL    HW293530   4.986   5.070   6.719
30545SOL     OW93531   4.833  13.021  12.281
30545SOL    HW193532   4.883  13.012  12.201
30545SOL    HW293533   4.850  13.110  12.311
30546SOL     OW93534  10.878   9.977   8.706
30546SOL    HW193535  10.885  10.008   8.796
30546SOL    HW293536  10.796  10.016   8.674
30547SOL     OW93537  11.648   1.335   4.715
30547SOL    HW193538  11.696   1.253   4.704
30547SOL    HW293539  11.574   1.313   4.771
30548SOL     OW93540   8.980  11.976   1.250
30548SOL    HW193541   8.935  11.894   1.271
30548SOL    HW293542   8.920  12.045   1.276
30549SOL     OW93543  11.990  12.805   0.232
30549SOL    HW193544  12.057  12.740   0.211
30549SOL    HW293545  11.939  12.764   0.302
30550SOL     OW93546   1.025   7.391   6.715
30550SOL    HW193547   0.969   7.319   6.743
30550SOL    HW293548   1.094   7.350   6.664
30551SOL     OW93549   6.629   0.332  12.264
30551SOL    HW193550   6.602   0.255  12.314
30551SOL    HW293551   6.604   0.406  12.320
30552SOL     OW93552   0.030   2.920   8.406
30552SOL    HW193553  14.867   2.864   8.335
30552SOL    HW293554   0.087   2.984   8.364
30553SOL     OW93555   6.653   7.739   2.864
30553SOL    HW193556   6.733   7.745   2.812
30553SOL    HW293557   6.588   7.704   2.803
30554SOL     OW93558   4.460   7.902   0.988
30554SOL    HW193559   4.483   7.994   0.999
30554SOL    HW293560   4.414   7.879   1.069
30555SOL     OW93561   9.512   0.362   4.001
30555SOL    HW193562   9.516   0.268   3.984
30555SOL    HW293563   9.567   0.401   3.933
30556SOL     OW93564  11.411   4.273   6.657
30556SOL    HW193565  11.354   4.197   6.660
30556SOL    HW293566  11.395   4.319   6.740
30557SOL     OW93567  10.627   4.129  13.259
30557SOL    HW193568  10.693   4.106  13.194
30557SOL    HW293569  10.550   4.077  13.234
30558SOL     OW93570   3.226   3.585  12.385
30558SOL    HW193571   3.316   3.560  12.405
30558SOL    HW293572   3.234   3.666  12.335
30559SOL     OW93573   4.400   5.523   3.115
30559SOL    HW193574   4.398   5.508   3.210
30559SOL    HW293575   4.454   5.452   3.081
30560SOL     OW93576   0.040   6.369   1.745
30560SOL    HW193577   0.016   6.453   1.706
30560SOL    HW293578   0.130   6.382   1.776
30561SOL     OW93579  12.131  10.625   7.267
30561SOL    HW193580  12.173  10.651   7.349
30561SOL    HW293581  12.201  10.586   7.215
30562SOL     OW93582   3.201  13.505  12.196
30562SOL    HW193583   3.245  13.493  12.280
30562SOL    HW293584   3.125  13.448  12.201
30563SOL     OW93585   7.671  12.345   9.099
30563SOL    HW193586   7.644  12.295   9.023
30563SOL    HW293587   7.628  12.302   9.173
30564SOL     OW93588  14.560   7.738  10.701
30564SOL    HW193589  14.626   7.693  10.649
30564SOL    HW293590  14.502   7.779  10.637
30565SOL     OW93591  11.748  13.844   3.634
30565SOL    HW193592  11.746  13.924   3.687
30565SOL    HW293593  11.669  13.796   3.659
30566SOL     OW93594   3.900  13.479   4.374
30566SOL    HW193595   3.823  13.452   4.324
30566SOL    HW293596   3.918  13.404   4.431
30567SOL     OW93597  10.149  14.330   0.174
30567SOL    HW193598  10.193  14.375   0.247
30567SOL    HW293599  10.075  14.387   0.152
30568SOL     OW93600  12.032   2.220   9.173
30568SOL    HW193601  12.022   2.189   9.083
30568SOL    HW293602  11.995   2.150   9.227
30569SOL     OW93603  10.274   6.444   6.348
30569SOL    HW193604  10.338   6.448   6.277
30569SOL    HW293605  10.195   6.484   6.312
30570SOL     OW93606   4.668  10.741  11.688
30570SOL    HW193607   4.721  10.719  11.612
30570SOL    HW293608   4.717  10.707  11.763
30571SOL     OW93609   6.549  11.795   5.156
30571SOL    HW193610   6.475  11.756   5.110
30571SOL    HW293611   6.539  11.889   5.143
30572SOL     OW93612  13.456   7.354   7.673
30572SOL    HW193613  13.442   7.266   7.637
30572SOL    HW293614  13.521   7.393   7.615
30573SOL     OW93615  14.658  11.596  10.974
30573SOL    HW193616  14.609  11.589  10.892
30573SOL    HW293617  14.723  11.665  10.957
30574SOL     OW93618   4.037   3.017   5.562
30574SOL    HW193619   3.989   2.934   5.552
30574SOL    HW293620   4.122   3.001   5.521
30575SOL     OW93621   0.892   4.075  11.893
30575SOL    HW193622   0.923   4.156  11.934
30575SOL    HW293623   0.877   4.099  11.802
30576SOL     OW93624  12.040   6.713   2.100
30576SOL    HW193625  12.087   6.796   2.089
30576SOL    HW293626  12.063   6.662   2.023
30577SOL     OW93627  12.274   4.560   0.252
30577SOL    HW193628  12.334   4.623   0.291
30577SOL    HW293629  12.230   4.519   0.327
30578SOL     OW93630   9.742   2.369  10.237
30578SOL    HW193631   9.764   2.302  10.172
30578SOL    HW293632   9.826   2.395  10.274
30579SOL     OW93633   8.817   5.330  14.670
30579SOL    HW193634   8.869   5.250  14.660
30579SOL    HW293635   8.743   5.303  14.726
30580SOL     OW93636   6.940  13.855  11.716
30580SOL    HW193637   6.946  13.787  11.783
30580SOL    HW293638   6.894  13.927  11.760
30581SOL     OW93639   2.762   6.981   4.554
30581SOL    HW193640   2.728   6.916   4.616
30581SOL    HW293641   2.728   6.954   4.469
30582SOL     OW93642  10.802  12.680   4.373
30582SOL    HW193643  10.776  12.768   4.399
30582SOL    HW293644  10.792  12.627   4.452
30583SOL     OW93645  14.177  10.283   1.103
30583SOL    HW193646  14.137  10.336   1.172
30583SOL    HW293647  14.266  10.316   1.096
30584SOL     OW93648   5.376   4.952   8.201
30584SOL    HW193649   5.371   4.879   8.262
30584SOL    HW293650   5.412   4.914   8.121
30585SOL     OW93651   8.926   9.074   3.230
30585SOL    HW193652   8.848   9.027   3.259
30585SOL    HW293653   8.975   9.092   3.310
30586SOL     OW93654   1.581   1.899  13.022
30586SOL    HW193655   1.602   1.831  13.086
30586SOL    HW293656   1.645   1.886  12.952
30587SOL     OW93657   8.787   4.255   4.025
30587SOL    HW193658   8.699   4.282   4.053
30587SOL    HW293659   8.811   4.319   3.958
30588SOL     OW93660   1.574   9.200   2.477
30588SOL    HW193661   1.562   9.291   2.506
30588SOL    HW293662   1.485   9.167   2.468
30589SOL     OW93663   6.087   5.207   7.227
30589SOL    HW193664   6.154   5.270   7.205
30589SOL    HW293665   6.034   5.198   7.148
30590SOL     OW93666   3.598  13.838   4.458
30590SOL    HW193667   3.568  13.917   4.412
30590SOL    HW293668   3.638  13.784   4.390
30591SOL     OW93669  14.625  12.080  14.763
30591SOL    HW193670  14.648  12.026  14.838
30591SOL    HW293671  14.651  12.029  14.687
30592SOL     OW93672   5.695   7.053   1.992
30592SOL    HW193673   5.702   7.061   1.897
30592SOL    HW293674   5.625   6.990   2.005
30593SOL     OW93675   1.114   2.651   8.806
30593SOL    HW193676   1.074   2.566   8.788
30593SOL    HW293677   1.186   2.658   8.743
30594SOL     OW93678   4.147   1.557   5.193
30594SOL    HW193679   4.190   1.594   5.116
30594SOL    HW293680   4.199   1.588   5.267
30595SOL     OW93681   7.450  13.710  12.978
30595SOL    HW193682   7.376  13.650  12.988
30595SOL    HW293683   7.522  13.667  13.025
30596SOL     OW93684   6.798   1.715   4.303
30596SOL    HW193685   6.783   1.724   4.397
30596SOL    HW293686   6.737   1.777   4.263
30597SOL     OW93687   1.812  10.937   4.009
30597SOL    HW193688   1.785  10.949   4.100
30597SOL    HW293689   1.767  10.857   3.982
30598SOL     OW93690   5.506  10.994  11.712
30598SOL    HW193691   5.515  11.066  11.775
30598SOL    HW293692   5.487  10.917  11.767
30599SOL     OW93693  12.871  14.553   2.997
30599SOL    HW193694  12.874  14.610   3.074
30599SOL    HW293695  12.780  14.553   2.970
30600SOL     OW93696  14.814   5.830   2.344
30600SOL    HW193697  14.830   5.818   2.250
30600SOL    HW293698  14.719   5.831   2.352
30601SOL     OW93699   6.543   0.597   0.605
30601SOL    HW193700   6.513   0.617   0.517
30601SOL    HW293701   6.635   0.573   0.595
30602SOL     OW93702  14.602   5.683   5.127
30602SOL    HW193703  14.669   5.745   5.156
30602SOL    HW293704  14.636   5.598   5.153
30603SOL     OW93705   1.785   0.892  14.381
30603SOL    HW193706   1.698   0.890  14.422
30603SOL    HW293707   1.810   0.985  14.382
30604SOL     OW93708  13.376   8.588   1.755
30604SOL    HW193709  13.310   8.630   1.810
30604SOL    HW293710  13.346   8.497   1.746
30605SOL     OW93711   0.754   0.563   7.332
30605SOL    HW193712   0.756   0.513   7.251
30605SOL    HW293713   0.766   0.497   7.401
30606SOL     OW93714  11.018   2.219   4.900
30606SOL    HW193715  10.963   2.187   4.972
30606SOL    HW293716  11.102   2.238   4.942
30607SOL     OW93717   0.492   8.515   4.130
30607SOL    HW193718   0.586   8.500   4.143
30607SOL    HW293719   0.467   8.452   4.063
30608SOL     OW93720   1.883  11.340   5.740
30608SOL    HW193721   1.805  11.368   5.788
30608SOL    HW293722   1.956  11.365   5.796
30609SOL     OW93723   3.790   9.127   2.069
30609SOL    HW193724   3.798   9.222   2.064
30609SOL    HW293725   3.876   9.094   2.045
30610SOL     OW93726  12.055  11.194   0.384
30610SOL    HW193727  11.998  11.123   0.415
30610SOL    HW293728  12.103  11.156   0.310
30611SOL     OW93729   0.343  11.969   0.091
30611SOL    HW193730   0.343  12.056   0.051
30611SOL    HW293731   0.288  11.978   0.168
30612SOL     OW93732   1.490   0.976   5.243
30612SOL    HW193733   1.542   0.933   5.176
30612SOL    HW293734   1.552   0.998   5.312
30613SOL     OW93735   7.115   9.992   6.490
30613SOL    HW193736   7.188  10.053   6.498
30613SOL    HW293737   7.049  10.027   6.550
30614SOL     OW93738   3.668   0.668   3.886
30614SOL    HW193739   3.762   0.665   3.867
30614SOL    HW293740   3.652   0.588   3.937
30615SOL     OW93741   3.781   3.511  11.582
30615SOL    HW193742   3.755   3.601  11.603
30615SOL    HW293743   3.847   3.521  11.514
30616SOL     OW93744   8.787   0.430   0.030
30616SOL    HW193745   8.803   0.505   0.087
30616SOL    HW293746   8.874   0.392   0.015
30617SOL     OW93747   4.664   7.285   5.822
30617SOL    HW193748   4.737   7.300   5.762
30617SOL    HW293749   4.647   7.371   5.861
30618SOL     OW93750  11.137   0.868  10.662
30618SOL    HW193751  11.136   0.845  10.755
30618SOL    HW293752  11.229   0.887  10.643
30619SOL     OW93753   3.472   5.911  14.557
30619SOL    HW193754   3.507   5.827  14.588
30619SOL    HW293755   3.390   5.887  14.513
30620SOL     OW93756  10.152   9.700   2.626
30620SOL    HW193757  10.106   9.751   2.559
30620SOL    HW293758  10.201   9.634   2.577
30621SOL     OW93759  13.272   5.196   7.991
30621SOL    HW193760  13.240   5.182   8.080
30621SOL    HW293761  13.192   5.214   7.940
30622SOL     OW93762   7.575   0.479  10.754
30622SOL    HW193763   7.634   0.534  10.702
30622SOL    HW293764   7.509   0.541  10.787
30623SOL     OW93765   7.435  14.710   3.161
30623SOL    HW193766   7.390  14.794   3.159
30623SOL    HW293767   7.478  14.703   3.076
30624SOL     OW93768   2.387   3.455  12.844
30624SOL    HW193769   2.475   3.486  12.867
30624SOL    HW293770   2.328   3.521  12.881
30625SOL     OW93771   9.123  12.015   0.422
30625SOL    HW193772   9.186  11.977   0.484
30625SOL    HW293773   9.045  12.029   0.474
30626SOL     OW93774   0.124  11.980   1.845
30626SOL    HW193775   0.198  11.929   1.812
30626SOL    HW293776   0.156  12.018   1.927
30627SOL     OW93777   5.624  12.383  12.283
30627SOL    HW193778   5.668  12.405  12.366
30627SOL    HW293779   5.548  12.442  12.280
30628SOL     OW93780  10.675  12.046   8.346
30628SOL    HW193781  10.674  11.998   8.264
30628SOL    HW293782  10.591  12.024   8.388
30629SOL     OW93783   9.129   9.254  12.624
30629SOL    HW193784   9.164   9.342  12.638
30629SOL    HW293785   9.056   9.247  12.685
30630SOL     OW93786   9.878   3.648   9.370
30630SOL    HW193787   9.901   3.674   9.281
30630SOL    HW293788   9.890   3.727   9.422
30631SOL     OW93789   5.131   1.746   6.381
30631SOL    HW193790   5.145   1.664   6.429
30631SOL    HW293791   5.120   1.811   6.450
30632SOL     OW93792   5.345   8.304   9.821
30632SOL    HW193793   5.302   8.288   9.737
30632SOL    HW293794   5.428   8.256   9.814
30633SOL     OW93795   6.868   1.499   9.107
30633SOL    HW193796   6.894   1.574   9.053
30633SOL    HW293797   6.773   1.502   9.109
30634SOL     OW93798  14.301   6.268   6.832
30634SOL    HW193799  14.256   6.208   6.772
30634SOL    HW293800  14.231   6.323   6.868
30635SOL     OW93801   4.834  11.906   6.447
30635SOL    HW193802   4.766  11.849   6.412
30635SOL    HW293803   4.792  11.954   6.518
30636SOL     OW93804  12.614   4.141   4.484
30636SOL    HW193805  12.642   4.150   4.393
30636SOL    HW293806  12.527   4.100   4.478
30637SOL     OW93807  10.705  10.433   2.142
30637SOL    HW193808  10.644  10.364   2.114
30637SOL    HW293809  10.792  10.398   2.122
30638SOL     OW93810  14.170  10.270  12.896
30638SOL    HW193811  14.134  10.325  12.966
30638SOL    HW293812  14.262  10.259  12.919
30639SOL     OW93813   5.228   0.047   1.123
30639SOL    HW193814   5.190   0.039   1.035
30639SOL    HW293815   5.321   0.059   1.108
30640SOL     OW93816   0.075  14.492   7.385
30640SOL    HW193817   0.048  14.416   7.437
30640SOL    HW293818   0.082  14.457   7.296
30641SOL     OW93819   8.422   3.202   3.390
30641SOL    HW193820   8.435   3.244   3.476
30641SOL    HW293821   8.345   3.147   3.402
30642SOL     OW93822  14.715   6.934   0.296
30642SOL    HW193823  14.790   6.915   0.353
30642SOL    HW293824  14.640   6.933   0.355
30643SOL     OW93825  11.291   4.920  12.237
30643SOL    HW193826  11.385   4.905  12.222
30643SOL    HW293827  11.269   4.858  12.307
30644SOL     OW93828   2.983   7.693   7.938
30644SOL    HW193829   2.997   7.656   7.851
30644SOL    HW293830   2.968   7.786   7.923
30645SOL     OW93831  13.709   7.276  10.940
30645SOL    HW193832  13.765   7.255  11.015
30645SOL    HW293833  13.715   7.371  10.932
30646SOL     OW93834  13.723  10.061  14.786
30646SOL    HW193835  13.806  10.014  14.786
30646SOL    HW293836  13.699  10.068   0.010
30647SOL     OW93837   3.905   5.643  13.973
30647SOL    HW193838   3.890   5.568  13.915
30647SOL    HW293839   3.997   5.634  13.999
30648SOL     OW93840  10.395   6.072   5.282
30648SOL    HW193841  10.407   6.156   5.237
30648SOL    HW293842  10.389   6.008   5.211
30649SOL     OW93843   4.277   4.643   4.007
30649SOL    HW193844   4.222   4.719   4.028
30649SOL    HW293845   4.217   4.568   4.012
30650SOL     OW93846  13.025   6.162   4.702
30650SOL    HW193847  13.047   6.242   4.750
30650SOL    HW293848  12.941   6.181   4.660
30651SOL     OW93849   8.001   2.896   9.738
30651SOL    HW193850   8.044   2.963   9.791
30651SOL    HW293851   7.969   2.832   9.802
30652SOL     OW93852  13.539   3.959  10.527
30652SOL    HW193853  13.620   3.966  10.477
30652SOL    HW293854  13.536   4.039  10.579
30653SOL     OW93855   0.585   7.046  12.107
30653SOL    HW193856   0.535   7.124  12.130
30653SOL    HW293857   0.676   7.072  12.115
30654SOL     OW93858   0.189   5.054   7.415
30654SOL    HW193859   0.252   5.044   7.344
30654SOL    HW293860   0.180   4.966   7.452
30655SOL     OW93861  14.442   8.563  10.421
30655SOL    HW193862  14.523   8.572  10.369
30655SOL    HW293863  14.446   8.474  10.456
30656SOL     OW93864   3.123   0.826   1.775
30656SOL    HW193865   3.132   0.817   1.681
30656SOL    HW293866   3.094   0.740   1.805
30657SOL     OW93867   6.615  11.455  14.540
30657SOL    HW193868   6.528  11.450  14.500
30657SOL    HW293869   6.669  11.500  14.475
30658SOL     OW93870  13.510  11.224  13.954
30658SOL    HW193871  13.525  11.299  13.896
30658SOL    HW293872  13.590  11.172  13.949
30659SOL     OW93873  12.580   9.269   3.553
30659SOL    HW193874  12.535   9.230   3.479
30659SOL    HW293875  12.562   9.363   3.546
30660SOL     OW93876   9.478   3.345   2.293
30660SOL    HW193877   9.394   3.367   2.332
30660SOL    HW293878   9.460   3.265   2.242
30661SOL     OW93879   8.372  12.502   5.521
30661SOL    HW193880   8.302  12.446   5.554
30661SOL    HW293881   8.331  12.588   5.509
30662SOL     OW93882   6.049  10.777  13.970
30662SOL    HW193883   6.121  10.839  13.972
30662SOL    HW293884   6.064  10.726  13.890
30663SOL     OW93885   8.168   3.092  13.357
30663SOL    HW193886   8.199   3.165  13.410
30663SOL    HW293887   8.218   3.017  13.388
30664SOL     OW93888   2.035  13.885   2.822
30664SOL    HW193889   2.040  13.800   2.779
30664SOL    HW293890   2.077  13.946   2.761
30665SOL     OW93891   2.847   5.178   0.576
30665SOL    HW193892   2.816   5.269   0.578
30665SOL    HW293893   2.903   5.171   0.654
30666SOL     OW93894   7.111  10.402   8.637
30666SOL    HW193895   7.154  10.317   8.645
30666SOL    HW293896   7.074  10.418   8.724
30667SOL     OW93897   4.553   5.665   2.063
30667SOL    HW193898   4.484   5.730   2.080
30667SOL    HW293899   4.545   5.602   2.134
30668SOL     OW93900  13.875   3.782  11.823
30668SOL    HW193901  13.914   3.717  11.882
30668SOL    HW293902  13.782   3.761  11.823
30669SOL     OW93903   2.757   3.138   6.140
30669SOL    HW193904   2.673   3.116   6.181
30669SOL    HW293905   2.754   3.094   6.055
30670SOL     OW93906   1.975  10.658   1.910
30670SOL    HW193907   1.921  10.589   1.948
30670SOL    HW293908   2.011  10.619   1.830
30671SOL     OW93909   4.240  14.686   5.081
30671SOL    HW193910   4.282  14.632   5.014
30671SOL    HW293911   4.209  14.763   5.034
30672SOL     OW93912   1.371   7.238   5.245
30672SOL    HW193913   1.425   7.233   5.323
30672SOL    HW293914   1.433   7.237   5.172
30673SOL     OW93915   6.244   8.659   1.529
30673SOL    HW193916   6.163   8.682   1.485
30673SOL    HW293917   6.302   8.628   1.460
30674SOL     OW93918   0.837   8.234   8.577
30674SOL    HW193919   0.909   8.187   8.620
30674SOL    HW293920   0.858   8.229   8.483
30675SOL     OW93921   5.236  11.441   9.478
30675SOL    HW193922   5.177  11.499   9.526
30675SOL    HW293923   5.222  11.462   9.386
30676SOL     OW93924   6.611   7.035   6.148
30676SOL    HW193925   6.595   6.972   6.218
30676SOL    HW293926   6.560   7.112   6.173
30677SOL     OW93927   6.676  11.157   7.286
30677SOL    HW193928   6.703  11.095   7.219
30677SOL    HW293929   6.598  11.200   7.249
30678SOL     OW93930   3.877  10.371  11.221
30678SOL    HW193931   3.959  10.322  11.221
30678SOL    HW293932   3.858  10.386  11.313
30679SOL     OW93933   8.894  10.820  14.200
30679SOL    HW193934   8.869  10.776  14.119
30679SOL    HW293935   8.988  10.807  14.206
30680SOL     OW93936   3.019   3.004   2.936
30680SOL    HW193937   3.033   3.098   2.945
30680SOL    HW293938   2.980   2.977   3.019
30681SOL     OW93939  11.651  12.840  10.847
30681SOL    HW193940  11.561  12.814  10.829
30681SOL    HW293941  11.676  12.788  10.923
30682SOL     OW93942   8.243   1.550   4.282
30682SOL    HW193943   8.335   1.575   4.272
30682SOL    HW293944   8.206   1.560   4.193
30683SOL     OW93945   5.975   5.204   2.849
30683SOL    HW193946   6.016   5.193   2.935
30683SOL    HW293947   5.909   5.272   2.864
30684SOL     OW93948   9.225   2.569   7.909
30684SOL    HW193949   9.206   2.501   7.974
30684SOL    HW293950   9.156   2.559   7.843
30685SOL     OW93951  12.293   6.955  11.699
30685SOL    HW193952  12.308   6.877  11.645
30685SOL    HW293953  12.209   6.938  11.741
30686SOL     OW93954   1.524   6.455  12.894
30686SOL    HW193955   1.527   6.470  12.800
30686SOL    HW293956   1.513   6.542  12.932
30687SOL     OW93957   3.472   9.779   4.344
30687SOL    HW193958   3.536   9.735   4.400
30687SOL    HW293959   3.387   9.746   4.374
30688SOL     OW93960   1.510  13.220   8.535
30688SOL    HW193961   1.589  13.275   8.530
30688SOL    HW293962   1.445  13.267   8.481
30689SOL     OW93963   8.974   6.279   6.046
30689SOL    HW193964   8.992   6.360   5.997
30689SOL    HW293965   9.024   6.212   6.000
30690SOL     OW93966   6.052  12.829  10.610
30690SOL    HW193967   6.117  12.838  10.680
30690SOL    HW293968   6.046  12.917  10.572
30691SOL     OW93969   7.420   1.355   1.220
30691SOL    HW193970   7.473   1.434   1.206
30691SOL    HW293971   7.469   1.285   1.178
30692SOL     OW93972   5.468   5.376   6.479
30692SOL    HW193973   5.524   5.351   6.405
30692SOL    HW293974   5.485   5.470   6.491
30693SOL     OW93975   7.592  10.204   5.869
30693SOL    HW193976   7.631  10.282   5.828
30693SOL    HW293977   7.667  10.146   5.884
30694SOL     OW93978   8.120  11.028   2.528
30694SOL    HW193979   8.067  11.030   2.608
30694SOL    HW293980   8.101  10.943   2.489
30695SOL     OW93981   3.762   3.040   7.880
30695SOL    HW193982   3.794   3.048   7.790
30695SOL    HW293983   3.700   2.968   7.877
30696SOL     OW93984   5.663   2.223   9.820
30696SOL    HW193985   5.656   2.180   9.905
30696SOL    HW293986   5.741   2.277   9.827
30697SOL     OW93987   4.233   1.811   3.139
30697SOL    HW193988   4.181   1.878   3.184
30697SOL    HW293989   4.187   1.729   3.157
30698SOL     OW93990   0.869   7.170   6.761
30698SOL    HW193991   0.900   7.084   6.734
30698SOL    HW293992   0.812   7.153   6.836
30699SOL     OW93993  14.212   9.147   4.362
30699SOL    HW193994  14.222   9.082   4.291
30699SOL    HW293995  14.132   9.194   4.339
30700SOL     OW93996   2.033  10.047  13.250
30700SOL    HW193997   2.119  10.041  13.210
30700SOL    HW293998   2.050  10.045  13.345
30701SOL     OW93999  12.937  11.171  11.686
30701SOL    HW194000  12.872  11.241  11.682
30701SOL    HW294001  13.008  11.202  11.629
30702SOL     OW94002  12.646   9.856  11.238
30702SOL    HW194003  12.716   9.902  11.190
30702SOL    HW294004  12.573   9.917  11.238
30703SOL     OW94005  14.424   6.907   4.295
30703SOL    HW194006  14.383   6.842   4.237
30703SOL    HW294007  14.473   6.855   4.359
30704SOL     OW94008   7.272  12.932   2.660
30704SOL    HW194009   7.211  12.890   2.599
30704SOL    HW294010   7.354  12.939   2.611
30705SOL     OW94011   1.545  13.517   6.197
30705SOL    HW194012   1.624  13.477   6.162
30705SOL    HW294013   1.490  13.532   6.121
30706SOL     OW94014   4.139  14.433   9.192
30706SOL    HW194015   4.185  14.431   9.108
30706SOL    HW294016   4.204  14.402   9.256
30707SOL     OW94017   3.738  11.688  11.038
30707SOL    HW194018   3.741  11.662  10.946
30707SOL    HW294019   3.786  11.619  11.084
30708SOL     OW94020  12.804   6.095   6.210
30708SOL    HW194021  12.867   6.036   6.251
30708SOL    HW294022  12.858   6.157   6.161
30709SOL     OW94023   4.183  12.208   8.262
30709SOL    HW194024   4.093  12.239   8.274
30709SOL    HW294025   4.231  12.250   8.333
30710SOL     OW94026  10.798   4.316  11.342
30710SOL    HW194027  10.841   4.235  11.368
30710SOL    HW294028  10.707   4.306  11.372
30711SOL     OW94029  14.733   6.616   1.009
30711SOL    HW194030  14.754   6.664   1.089
30711SOL    HW294031  14.811   6.624   0.955
30712SOL     OW94032  14.397  10.444   6.867
30712SOL    HW194033  14.465  10.422   6.803
30712SOL    HW294034  14.446  10.466   6.946
30713SOL     OW94035   8.137   8.218  14.454
30713SOL    HW194036   8.143   8.183  14.365
30713SOL    HW294037   8.161   8.310  14.444
30714SOL     OW94038   1.872   1.022  11.631
30714SOL    HW194039   1.805   0.958  11.606
30714SOL    HW294040   1.854   1.041  11.723
30715SOL     OW94041   4.060   2.182   3.587
30715SOL    HW194042   4.121   2.188   3.661
30715SOL    HW294043   4.035   2.090   3.584
30716SOL     OW94044  13.524   7.605  10.397
30716SOL    HW194045  13.596   7.657  10.362
30716SOL    HW294046  13.544   7.515  10.371
30717SOL     OW94047  10.142   1.884   9.530
30717SOL    HW194048  10.145   1.929   9.445
30717SOL    HW294049  10.143   1.791   9.507
30718SOL     OW94050   6.282   8.158  11.610
30718SOL    HW194051   6.229   8.078  11.607
30718SOL    HW294052   6.364   8.132  11.651
30719SOL     OW94053  12.483   1.198   0.396
30719SOL    HW194054  12.527   1.272   0.438
30719SOL    HW294055  12.530   1.185   0.314
30720SOL     OW94056   8.180   5.687   2.022
30720SOL    HW194057   8.087   5.679   2.046
30720SOL    HW294058   8.217   5.601   2.041
30721SOL     OW94059   2.605  10.258   7.554
30721SOL    HW194060   2.568  10.258   7.643
30721SOL    HW294061   2.545  10.313   7.503
30722SOL     OW94062   7.970   1.637  13.983
30722SOL    HW194063   7.892   1.596  13.947
30722SOL    HW294064   7.937   1.696  14.051
30723SOL     OW94065   0.854   5.892   4.070
30723SOL    HW194066   0.920   5.858   4.130
30723SOL    HW294067   0.793   5.819   4.056
30724SOL     OW94068  14.709   8.335   7.044
30724SOL    HW194069  14.693   8.272   6.973
30724SOL    HW294070  14.804   8.340   7.050
30725SOL     OW94071   1.032   7.568   3.614
30725SOL    HW194072   0.971   7.564   3.540
30725SOL    HW294073   1.015   7.652   3.655
30726SOL     OW94074   8.374   5.185   7.503
30726SOL    HW194075   8.377   5.163   7.596
30726SOL    HW294076   8.281   5.189   7.482
30727SOL     OW94077   0.993   7.816   0.687
30727SOL    HW194078   0.904   7.811   0.723
30727SOL    HW294079   1.046   7.849   0.760
30728SOL     OW94080   8.586   2.828   1.524
30728SOL    HW194081   8.508   2.775   1.542
30728SOL    HW294082   8.561   2.917   1.549
30729SOL     OW94083   3.482   8.506   3.619
30729SOL    HW194084   3.407   8.466   3.663
30729SOL    HW294085   3.466   8.489   3.526
30730SOL     OW94086   7.708  14.721   9.127
30730SOL    HW194087   7.615  14.727   9.147
30730SOL    HW294088   7.746  14.801   9.164
30731SOL     OW94089  10.092   4.851  11.275
30731SOL    HW194090  10.177   4.867  11.315
30731SOL    HW294091  10.112   4.830  11.184
30732SOL     OW94092   6.511   7.563   8.658
30732SOL    HW194093   6.465   7.588   8.578
30732SOL    HW294094   6.443   7.556   8.724
30733SOL     OW94095   5.239   0.935  10.822
30733SOL    HW194096   5.252   0.877  10.747
30733SOL    HW294097   5.313   0.995  10.819
30734SOL     OW94098   6.050   6.536   3.711
30734SOL    HW194099   6.116   6.467   3.711
30734SOL    HW294100   5.974   6.496   3.752
30735SOL     OW94101   8.119  14.232   9.586
30735SOL    HW194102   8.033  14.273   9.590
30735SOL    HW294103   8.141  14.212   9.677
30736SOL     OW94104   4.463  12.881   3.756
30736SOL    HW194105   4.427  12.938   3.824
30736SOL    HW294106   4.549  12.855   3.789
30737SOL     OW94107  12.599  10.790   6.155
30737SOL    HW194108  12.640  10.811   6.071
30737SOL    HW294109  12.507  10.775   6.134
30738SOL     OW94110  13.910   5.975   0.920
30738SOL    HW194111  13.975   6.042   0.942
30738SOL    HW294112  13.921   5.963   0.826
30739SOL     OW94113   4.582   4.308  14.448
30739SOL    HW194114   4.571   4.217  14.420
30739SOL    HW294115   4.618   4.302  14.537
30740SOL     OW94116   6.757   3.459   9.075
30740SOL    HW194117   6.673   3.415   9.093
30740SOL    HW294118   6.821   3.387   9.072
30741SOL     OW94119  12.645  14.142  13.970
30741SOL    HW194120  12.686  14.056  13.974
30741SOL    HW294121  12.705  14.199  14.020
30742SOL     OW94122   8.580   3.638   0.134
30742SOL    HW194123   8.579   3.552   0.092
30742SOL    HW294124   8.672   3.654   0.155
30743SOL     OW94125   0.287   7.126   1.025
30743SOL    HW194126   0.198   7.127   1.060
30743SOL    HW294127   0.283   7.068   0.950
30744SOL     OW94128   0.570  13.720   4.594
30744SOL    HW194129   0.507  13.782   4.632
30744SOL    HW294130   0.591  13.660   4.665
30745SOL     OW94131  10.665   4.120   6.955
30745SOL    HW194132  10.597   4.091   6.895
30745SOL    HW294133  10.624   4.115   7.042
30746SOL     OW94134   0.333   3.416   7.116
30746SOL    HW194135   0.241   3.417   7.144
30746SOL    HW294136   0.376   3.478   7.175
30747SOL     OW94137   0.593   1.512   4.951
30747SOL    HW194138   0.645   1.463   5.015
30747SOL    HW294139   0.515   1.459   4.937
30748SOL     OW94140   7.288   3.042   7.413
30748SOL    HW194141   7.332   3.007   7.490
30748SOL    HW294142   7.212   3.088   7.448
30749SOL     OW94143  11.802  10.803   4.704
30749SOL    HW194144  11.850  10.857   4.766
30749SOL    HW294145  11.837  10.715   4.715
30750SOL     OW94146   3.741   2.608   8.374
30750SOL    HW194147   3.830   2.576   8.389
30750SOL    HW294148   3.715   2.569   8.290
30751SOL     OW94149  10.896  13.995  13.300
30751SOL    HW194150  10.884  13.939  13.376
30751SOL    HW294151  10.823  13.973  13.242
30752SOL     OW94152   4.047   8.303   0.229
30752SOL    HW194153   4.078   8.244   0.160
30752SOL    HW294154   4.081   8.264   0.310
30753SOL     OW94155   1.875   7.540  10.783
30753SOL    HW194156   1.869   7.496  10.698
30753SOL    HW294157   1.944   7.493  10.829
30754SOL     OW94158   5.299   0.804  11.358
30754SOL    HW194159   5.347   0.805  11.441
30754SOL    HW294160   5.344   0.868  11.303
30755SOL     OW94161  10.303   1.830  11.683
30755SOL    HW194162  10.354   1.753  11.710
30755SOL    HW294163  10.244   1.797  11.616
30756SOL     OW94164   6.622  13.147   8.220
30756SOL    HW194165   6.551  13.132   8.157
30756SOL    HW294166   6.585  13.122   8.304
30757SOL     OW94167  13.884  12.212   3.922
30757SOL    HW194168  13.941  12.287   3.908
30757SOL    HW294169  13.853  12.223   4.013
30758SOL     OW94170   2.140   4.372   7.331
30758SOL    HW194171   2.231   4.354   7.354
30758SOL    HW294172   2.144   4.410   7.243
30759SOL     OW94173  11.675   7.326  14.691
30759SOL    HW194174  11.760   7.349  14.730
30759SOL    HW294175  11.694   7.247  14.640
30760SOL     OW94176   7.539   0.200   6.569
30760SOL    HW194177   7.444   0.191   6.584
30760SOL    HW294178   7.569   0.110   6.558
30761SOL     OW94179  12.780   8.665   6.465
30761SOL    HW194180  12.827   8.702   6.391
30761SOL    HW294181  12.821   8.705   6.542
30762SOL     OW94182   7.032   6.610   0.797
30762SOL    HW194183   6.938   6.612   0.814
30762SOL    HW294184   7.050   6.692   0.751
30763SOL     OW94185   5.450   6.156  13.486
30763SOL    HW194186   5.414   6.244  13.501
30763SOL    HW294187   5.374   6.102  13.468
30764SOL     OW94188   9.346   9.139  10.519
30764SOL    HW194189   9.317   9.081  10.589
30764SOL    HW294190   9.428   9.100  10.488
30765SOL     OW94191  10.094  11.070  13.718
30765SOL    HW194192  10.005  11.071  13.682
30765SOL    HW294193  10.096  11.143  13.780
30766SOL     OW94194   9.912  12.975   5.423
30766SOL    HW194195   9.905  12.929   5.340
30766SOL    HW294196   9.871  13.060   5.407
30767SOL     OW94197   0.202  10.401  12.097
30767SOL    HW194198   0.294  10.429  12.092
30767SOL    HW294199   0.200  10.342  12.173
30768SOL     OW94200   1.687  14.113  10.799
30768SOL    HW194201   1.609  14.066  10.769
30768SOL    HW294202   1.755  14.088  10.736
30769SOL     OW94203  12.836   4.106   7.368
30769SOL    HW194204  12.752   4.081   7.405
30769SOL    HW294205  12.873   4.168   7.431
30770SOL     OW94206   8.389  10.979   8.831
30770SOL    HW194207   8.385  10.884   8.823
30770SOL    HW294208   8.335  10.999   8.907
30771SOL     OW94209  12.359   7.342   2.006
30771SOL    HW194210  12.339   7.434   1.989
30771SOL    HW294211  12.452   7.341   2.027
30772SOL     OW94212   0.963  14.405  12.720
30772SOL    HW194213   0.993  14.470  12.783
30772SOL    HW294214   0.881  14.441  12.686
30773SOL     OW94215   4.027  11.117   0.689
30773SOL    HW194216   3.959  11.143   0.752
30773SOL    HW294217   4.034  11.191   0.629
30774SOL     OW94218   9.423  10.891   1.130
30774SOL    HW194219   9.477  10.865   1.056
30774SOL    HW294220   9.354  10.946   1.091
30775SOL     OW94221   7.179   2.508   4.627
30775SOL    HW194222   7.266   2.471   4.609
30775SOL    HW294223   7.195   2.577   4.691
30776SOL     OW94224   2.875  13.911   5.341
30776SOL    HW194225   2.790  13.870   5.324
30776SOL    HW294226   2.909  13.866   5.418
30777SOL     OW94227  10.186   8.507   3.435
30777SOL    HW194228  10.129   8.468   3.501
30777SOL    HW294229  10.133   8.576   3.395
30778SOL     OW94230   2.496   7.587  13.455
30778SOL    HW194231   2.459   7.630  13.378
30778SOL    HW294232   2.491   7.494  13.436
30779SOL     OW94233   9.169   3.517   8.040
30779SOL    HW194234   9.106   3.511   7.968
30779SOL    HW294235   9.254   3.525   7.997
30780SOL     OW94236   5.529   9.182   4.514
30780SOL    HW194237   5.437   9.203   4.531
30780SOL    HW294238   5.558   9.136   4.593
30781SOL     OW94239  11.839   8.533   1.069
30781SOL    HW194240  11.887   8.586   1.133
30781SOL    HW294241  11.797   8.465   1.122
30782SOL     OW94242  13.985   3.102   7.104
30782SOL    HW194243  14.048   3.072   7.170
30782SOL    HW294244  14.038   3.119   7.027
30783SOL     OW94245   8.778   9.392  10.285
30783SOL    HW194246   8.696   9.352  10.256
30783SOL    HW294247   8.811   9.333  10.352
30784SOL     OW94248  10.702   4.625  12.051
30784SOL    HW194249  10.747   4.548  12.084
30784SOL    HW294250  10.713   4.691  12.120
30785SOL     OW94251   9.839   9.871   9.548
30785SOL    HW194252   9.845   9.905   9.459
30785SOL    HW294253   9.822   9.777   9.537
30786SOL     OW94254   2.351   0.219   1.872
30786SOL    HW194255   2.321   0.138   1.831
30786SOL    HW294256   2.275   0.276   1.871
30787SOL     OW94257   1.530   4.493  11.710
30787SOL    HW194258   1.566   4.431  11.647
30787SOL    HW294259   1.605   4.521  11.763
30788SOL     OW94260   9.059  11.299   3.954
30788SOL    HW194261   9.098  11.386   3.951
30788SOL    HW294262   8.965  11.314   3.967
30789SOL     OW94263   8.439  10.180   2.022
30789SOL    HW194264   8.525  10.220   2.013
30789SOL    HW294265   8.457  10.087   2.038
30790SOL     OW94266   8.014   1.179  10.545
30790SOL    HW194267   7.970   1.145  10.467
30790SOL    HW294268   7.988   1.118  10.615
30791SOL     OW94269   8.056   2.065   8.673
30791SOL    HW194270   8.075   2.069   8.580
30791SOL    HW294271   8.142   2.055   8.715
30792SOL     OW94272   8.084   5.890   6.601
30792SOL    HW194273   8.060   5.912   6.691
30792SOL    HW294274   8.037   5.809   6.582
30793SOL     OW94275  12.751   0.601   6.277
30793SOL    HW194276  12.772   0.508   6.268
30793SOL    HW294277  12.676   0.614   6.218
30794SOL     OW94278  12.720  11.657   7.369
30794SOL    HW194279  12.749  11.586   7.427
30794SOL    HW294280  12.802  11.692   7.333
30795SOL     OW94281  11.995  11.879   4.797
30795SOL    HW194282  12.000  11.965   4.754
30795SOL    HW294283  12.025  11.895   4.886
30796SOL     OW94284  11.870   9.107  13.069
30796SOL    HW194285  11.876   9.118  12.975
30796SOL    HW294286  11.933   9.169  13.105
30797SOL     OW94287  10.217   6.299   1.707
30797SOL    HW194288  10.242   6.380   1.663
30797SOL    HW294289  10.167   6.250   1.641
30798SOL     OW94290   8.135   5.545  12.029
30798SOL    HW194291   8.168   5.487  12.098
30798SOL    HW294292   8.046   5.513  12.011
30799SOL     OW94293   2.964   3.296   9.494
30799SOL    HW194294   2.883   3.333   9.460
30799SOL    HW294295   3.033   3.341   9.446
30800SOL     OW94296   1.802   6.841   0.293
30800SOL    HW194297   1.852   6.895   0.232
30800SOL    HW294298   1.847   6.757   0.293
30801SOL     OW94299  13.083  11.521   2.046
30801SOL    HW194300  13.025  11.566   2.108
30801SOL    HW294301  13.029  11.450   2.011
30802SOL     OW94302  14.396   5.033   1.535
30802SOL    HW194303  14.386   4.942   1.506
30802SOL    HW294304  14.489   5.052   1.523
30803SOL     OW94305  10.696   4.842  13.501
30803SOL    HW194306  10.744   4.882  13.574
30803SOL    HW294307  10.608   4.826  13.536
30804SOL     OW94308   9.994  11.299   0.779
30804SOL    HW194309  10.029  11.269   0.862
30804SOL    HW294310   9.903  11.269   0.779
30805SOL     OW94311  14.623   6.531   0.506
30805SOL    HW194312  14.702   6.581   0.484
30805SOL    HW294313  14.586   6.506   0.421
30806SOL     OW94314  10.348  14.414   9.883
30806SOL    HW194315  10.384  14.459   9.959
30806SOL    HW294316  10.371  14.470   9.809
30807SOL     OW94317   6.599   5.931   1.992
30807SOL    HW194318   6.518   5.982   1.988
30807SOL    HW294319   6.661   5.987   2.038
30808SOL     OW94320   0.949   7.071   2.033
30808SOL    HW194321   0.868   7.074   2.084
30808SOL    HW294322   0.987   7.158   2.042
30809SOL     OW94323   9.097   1.820  10.022
30809SOL    HW194324   9.191   1.826  10.040
30809SOL    HW294325   9.083   1.728   9.998
30810SOL     OW94326   8.056   5.223   5.097
30810SOL    HW194327   7.978   5.233   5.043
30810SOL    HW294328   8.129   5.244   5.039
30811SOL     OW94329  13.956  11.740  10.991
30811SOL    HW194330  13.946  11.731  11.086
30811SOL    HW294331  13.958  11.650  10.959
30812SOL     OW94332  11.140   7.629  11.161
30812SOL    HW194333  11.094   7.545  11.160
30812SOL    HW294334  11.120   7.668  11.076
30813SOL     OW94335  11.638   2.886   6.756
30813SOL    HW194336  11.620   2.816   6.819
30813SOL    HW294337  11.632   2.842   6.671
30814SOL     OW94338   9.268  11.151   2.432
30814SOL    HW194339   9.283  11.141   2.338
30814SOL    HW294340   9.260  11.246   2.445
30815SOL     OW94341  11.417  13.624   5.843
30815SOL    HW194342  11.407  13.717   5.865
30815SOL    HW294343  11.472  13.624   5.765
30816SOL     OW94344   5.706   4.459   9.032
30816SOL    HW194345   5.745   4.493   8.951
30816SOL    HW294346   5.714   4.531   9.094
30817SOL     OW94347  13.998  13.264   3.167
30817SOL    HW194348  13.918  13.292   3.212
30817SOL    HW294349  13.968  13.202   3.100
30818SOL     OW94350  13.491   0.058   2.581
30818SOL    HW194351  13.559   0.119   2.551
30818SOL    HW294352  13.410   0.109   2.580
30819SOL     OW94353   3.441  13.373   9.248
30819SOL    HW194354   3.498  13.338   9.317
30819SOL    HW294355   3.370  13.308   9.242
30820SOL     OW94356  13.240  13.543  10.908
30820SOL    HW194357  13.256  13.451  10.885
30820SOL    HW294358  13.145  13.550  10.917
30821SOL     OW94359  11.690   8.459  14.334
30821SOL    HW194360  11.754   8.389  14.322
30821SOL    HW294361  11.624   8.443  14.266
30822SOL     OW94362   1.379   9.524   5.385
30822SOL    HW194363   1.332   9.474   5.452
30822SOL    HW294364   1.464   9.480   5.377
30823SOL     OW94365   9.953  10.680   4.053
30823SOL    HW194366  10.030  10.626   4.034
30823SOL    HW294367   9.908  10.689   3.969
30824SOL     OW94368  14.558   7.574   0.801
30824SOL    HW194369  14.498   7.500   0.800
30824SOL    HW294370  14.507   7.646   0.764
30825SOL     OW94371  14.749  14.629   1.777
30825SOL    HW194372  14.759  14.688   1.702
30825SOL    HW294373  14.749  14.542   1.739
30826SOL     OW94374  12.614   2.339  10.065
30826SOL    HW194375  12.658   2.424  10.054
30826SOL    HW294376  12.670   2.291  10.126
30827SOL     OW94377   3.157   2.512   9.338
30827SOL    HW194378   3.203   2.537   9.419
30827SOL    HW294379   3.223   2.521   9.269
30828SOL     OW94380   8.199   2.134   0.269
30828SOL    HW194381   8.164   2.059   0.317
30828SOL    HW294382   8.160   2.128   0.182
30829SOL     OW94383   9.341  12.912   6.299
30829SOL    HW194384   9.423  12.906   6.250
30829SOL    HW294385   9.318  12.821   6.317
30830SOL     OW94386  13.925   9.521   6.063
30830SOL    HW194387  13.906   9.612   6.041
30830SOL    HW294388  13.927   9.475   5.979
30831SOL     OW94389  13.773   4.992   7.608
30831SOL    HW194390  13.733   4.936   7.675
30831SOL    HW294391  13.721   5.072   7.610
30832SOL     OW94392  11.740   1.628   1.617
30832SOL    HW194393  11.741   1.532   1.614
30832SOL    HW294394  11.651   1.652   1.591
30833SOL     OW94395  11.351   1.410   1.863
30833SOL    HW194396  11.308   1.456   1.934
30833SOL    HW294397  11.304   1.437   1.784
30834SOL     OW94398   1.502  12.078   8.447
30834SOL    HW194399   1.566  12.105   8.513
30834SOL    HW294400   1.542  12.003   8.404
30835SOL     OW94401   7.314  14.866   1.025
30835SOL    HW194402   7.391  14.830   0.980
30835SOL    HW294403   7.240  14.819   0.986
30836SOL     OW94404   5.074   1.249  10.658
30836SOL    HW194405   5.015   1.229  10.585
30836SOL    HW294406   5.104   1.338  10.641
30837SOL     OW94407   7.800   6.360   7.633
30837SOL    HW194408   7.827   6.325   7.548
30837SOL    HW294409   7.705   6.362   7.629
30838SOL     OW94410   0.305   8.420   3.443
30838SOL    HW194411   0.329   8.496   3.496
30838SOL    HW294412   0.247   8.368   3.500
30839SOL     OW94413  11.666  10.714   5.960
30839SOL    HW194414  11.597  10.765   6.001
30839SOL    HW294415  11.653  10.726   5.866
30840SOL     OW94416  11.954   9.061  12.811
30840SOL    HW194417  11.909   8.982  12.840
30840SOL    HW294418  11.955   9.055  12.716
30841SOL     OW94419  14.202   5.555   9.392
30841SOL    HW194420  14.209   5.483   9.455
30841SOL    HW294421  14.131   5.609   9.426
30842SOL     OW94422   8.372   1.685   2.457
30842SOL    HW194423   8.439   1.620   2.437
30842SOL    HW294424   8.399   1.763   2.408
30843SOL     OW94425  13.197   5.018  11.786
30843SOL    HW194426  13.122   5.021  11.846
30843SOL    HW294427  13.192   5.100  11.737
30844SOL     OW94428  11.144   1.106   2.332
30844SOL    HW194429  11.155   1.187   2.382
30844SOL    HW294430  11.187   1.039   2.385
30845SOL     OW94431   6.152   8.381   0.200
30845SOL    HW194432   6.093   8.347   0.268
30845SOL    HW294433   6.240   8.373   0.238
30846SOL     OW94434   5.418  10.457   3.780
30846SOL    HW194435   5.418  10.552   3.796
30846SOL    HW294436   5.325  10.434   3.774
30847SOL     OW94437  13.454  14.208  11.804
30847SOL    HW194438  13.366  14.170  11.815
30847SOL    HW294439  13.507  14.164  11.870
30848SOL     OW94440   6.558   9.178   7.220
30848SOL    HW194441   6.635   9.225   7.188
30848SOL    HW294442   6.586   9.142   7.304
30849SOL     OW94443   7.464   8.380  10.490
30849SOL    HW194444   7.481   8.429  10.571
30849SOL    HW294445   7.373   8.350  10.500
30850SOL     OW94446  11.988   9.238  10.335
30850SOL    HW194447  11.996   9.250  10.241
30850SOL    HW294448  12.057   9.293  10.372
30851SOL     OW94449   6.155  11.709   6.886
30851SOL    HW194450   6.240  11.736   6.853
30851SOL    HW294451   6.129  11.635   6.831
30852SOL     OW94452  14.671   1.948   9.051
30852SOL    HW194453  14.589   1.988   9.082
30852SOL    HW294454  14.704   1.900   9.127
30853SOL     OW94455  13.940   2.495   1.628
30853SOL    HW194456  13.895   2.518   1.709
30853SOL    HW294457  13.926   2.401   1.618
30854SOL     OW94458   2.138   0.836   4.911
30854SOL    HW194459   2.169   0.766   4.853
30854SOL    HW294460   2.145   0.916   4.859
30855SOL     OW94461   6.821   0.649   6.080
30855SOL    HW194462   6.804   0.555   6.088
30855SOL    HW294463   6.832   0.663   5.986
30856SOL     OW94464   7.629   4.935   5.094
30856SOL    HW194465   7.696   4.930   5.163
30856SOL    HW294466   7.643   4.856   5.041
30857SOL     OW94467   4.110  10.412  11.756
30857SOL    HW194468   4.054  10.458  11.819
30857SOL    HW294469   4.164  10.481  11.717
30858SOL     OW94470  10.113  13.439   8.247
30858SOL    HW194471  10.061  13.514   8.218
30858SOL    HW294472  10.155  13.468   8.327
30859SOL     OW94473   1.998  11.722  12.720
30859SOL    HW194474   1.964  11.686  12.638
30859SOL    HW294475   1.931  11.701  12.785
30860SOL     OW94476   3.443  12.112   8.678
30860SOL    HW194477   3.359  12.154   8.697
30860SOL    HW294478   3.438  12.027   8.722
30861SOL     OW94479   9.484   3.049   5.616
30861SOL    HW194480   9.396   3.029   5.585
30861SOL    HW294481   9.525   2.964   5.630
30862SOL     OW94482  13.862   3.625   5.278
30862SOL    HW194483  13.880   3.717   5.260
30862SOL    HW294484  13.942   3.579   5.253
30863SOL     OW94485   0.655   7.398   7.824
30863SOL    HW194486   0.708   7.424   7.749
30863SOL    HW294487   0.605   7.476   7.847
30864SOL     OW94488  14.542   2.855   1.719
30864SOL    HW194489  14.460   2.815   1.689
30864SOL    HW294490  14.523   2.884   1.808
30865SOL     OW94491  10.886  14.017   9.808
30865SOL    HW194492  10.936  14.014   9.726
30865SOL    HW294493  10.917  14.097   9.851
30866SOL     OW94494   8.023   8.804   3.502
30866SOL    HW194495   7.928   8.813   3.505
30866SOL    HW294496   8.044   8.747   3.577
30867SOL     OW94497   0.777  14.469   1.075
30867SOL    HW194498   0.712  14.515   1.021
30867SOL    HW294499   0.858  14.517   1.061
30868SOL     OW94500   3.645  11.774  13.003
30868SOL    HW194501   3.705  11.848  13.009
30868SOL    HW294502   3.609  11.765  13.091
30869SOL     OW94503   6.832   5.328  13.742
30869SOL    HW194504   6.816   5.236  13.721
30869SOL    HW294505   6.761   5.375  13.700
30870SOL     OW94506  12.507   0.393   5.056
30870SOL    HW194507  12.598   0.380   5.084
30870SOL    HW294508  12.495   0.488   5.058
30871SOL     OW94509   2.911   3.371  10.782
30871SOL    HW194510   2.824   3.406  10.764
30871SOL    HW294511   2.936   3.411  10.865
30872SOL     OW94512   6.100   4.419   2.760
30872SOL    HW194513   6.102   4.466   2.677
30872SOL    HW294514   6.164   4.466   2.815
30873SOL     OW94515   7.254   4.379  14.108
30873SOL    HW194516   7.267   4.449  14.171
30873SOL    HW294517   7.314   4.400  14.036
30874SOL     OW94518   3.710   4.412   9.979
30874SOL    HW194519   3.705   4.478  10.048
30874SOL    HW294520   3.747   4.459   9.904
30875SOL     OW94521   3.349  13.031   8.161
30875SOL    HW194522   3.425  13.004   8.213
30875SOL    HW294523   3.377  13.019   8.070
30876SOL     OW94524  11.485   9.262   5.633
30876SOL    HW194525  11.545   9.192   5.657
30876SOL    HW294526  11.452   9.235   5.547
30877SOL     OW94527   8.898   8.087  13.780
30877SOL    HW194528   8.896   8.143  13.858
30877SOL    HW294529   8.843   8.012  13.804
30878SOL     OW94530   6.051   0.797  13.892
30878SOL    HW194531   5.967   0.840  13.909
30878SOL    HW294532   6.044   0.769  13.800
30879SOL     OW94533  14.813   1.755   1.929
30879SOL    HW194534   0.014   1.786   1.871
30879SOL    HW294535  14.740   1.815   1.915
30880SOL     OW94536  10.123  11.043   3.314
30880SOL    HW194537  10.199  10.993   3.342
30880SOL    HW294538  10.148  11.081   3.230
30881SOL     OW94539   7.252  11.005   7.519
30881SOL    HW194540   7.272  10.944   7.590
30881SOL    HW294541   7.206  11.077   7.562
30882SOL     OW94542   5.368   4.073   0.308
30882SOL    HW194543   5.396   4.027   0.229
30882SOL    HW294544   5.284   4.033   0.330
30883SOL     OW94545   3.268  10.471   9.907
30883SOL    HW194546   3.360  10.499   9.913
30883SOL    HW294547   3.263  10.422   9.825
30884SOL     OW94548  10.895  12.801   2.155
30884SOL    HW194549  10.916  12.756   2.237
30884SOL    HW294550  10.817  12.853   2.175
30885SOL     OW94551  13.035   9.845  10.572
30885SOL    HW194552  13.042   9.924  10.520
30885SOL    HW294553  12.948   9.810  10.552
30886SOL     OW94554   4.328  12.096  12.567
30886SOL    HW194555   4.246  12.124  12.526
30886SOL    HW294556   4.371  12.178  12.593
30887SOL     OW94557   2.006   3.125   4.337
30887SOL    HW194558   1.941   3.118   4.407
30887SOL    HW294559   2.074   3.063   4.361
30888SOL     OW94560   9.137  14.812  12.951
30888SOL    HW194561   9.213  14.814  12.893
30888SOL    HW294562   9.080   0.013  12.918
30889SOL     OW94563   8.499  13.561   5.871
30889SOL    HW194564   8.574  13.620   5.882
30889SOL    HW294565   8.501  13.506   5.949
30890SOL     OW94566   1.503  14.711   2.844
30890SOL    HW194567   1.547  14.632   2.813
30890SOL    HW294568   1.569  14.779   2.839
30891SOL     OW94569   5.296   2.354  12.006
30891SOL    HW194570   5.285   2.429  11.946
30891SOL    HW294571   5.388   2.330  11.998
30892SOL     OW94572  10.048   3.787  12.746
30892SOL    HW194573   9.974   3.749  12.792
30892SOL    HW294574  10.020   3.793  12.655
30893SOL     OW94575   9.362   4.835   2.495
30893SOL    HW194576   9.439   4.778   2.504
30893SOL    HW294577   9.396   4.914   2.452
30894SOL     OW94578  10.973   8.730   2.820
30894SOL    HW194579  10.909   8.659   2.828
30894SOL    HW294580  10.931   8.806   2.860
30895SOL     OW94581   9.778   4.268  10.347
30895SOL    HW194582   9.805   4.241  10.434
30895SOL    HW294583   9.825   4.208  10.288
30896SOL     OW94584  13.445   3.332   0.701
30896SOL    HW194585  13.522   3.283   0.671
30896SOL    HW294586  13.464   3.422   0.677
30897SOL     OW94587  11.651  13.224   0.984
30897SOL    HW194588  11.691  13.186   1.063
30897SOL    HW294589  11.666  13.160   0.915
30898SOL     OW94590   4.164   9.467  14.599
30898SOL    HW194591   4.118   9.386  14.619
30898SOL    HW294592   4.252   9.440  14.576
30899SOL     OW94593   5.146   9.481   1.770
30899SOL    HW194594   5.137   9.511   1.679
30899SOL    HW294595   5.057   9.459   1.797
30900SOL     OW94596   1.159   0.517  10.468
30900SOL    HW194597   1.139   0.423  10.467
30900SOL    HW294598   1.076   0.559  10.444
30901SOL     OW94599   0.767  12.413   7.792
30901SOL    HW194600   0.762  12.318   7.799
30901SOL    HW294601   0.695  12.445   7.847
30902SOL     OW94602   0.346  13.701   2.706
30902SOL    HW194603   0.323  13.668   2.793
30902SOL    HW294604   0.413  13.640   2.674
30903SOL     OW94605   1.246   7.015   6.259
30903SOL    HW194606   1.160   7.003   6.219
30903SOL    HW294607   1.303   6.955   6.211
30904SOL     OW94608   2.091   7.579  14.561
30904SOL    HW194609   2.051   7.666  14.563
30904SOL    HW294610   2.171   7.588  14.613
30905SOL     OW94611   1.248  11.132   3.603
30905SOL    HW194612   1.299  11.193   3.657
30905SOL    HW294613   1.294  11.128   3.520
30906SOL     OW94614  10.219   9.868  10.188
30906SOL    HW194615  10.175   9.952  10.180
30906SOL    HW294616  10.201   9.840  10.278
30907SOL     OW94617   7.340  10.642   5.967
30907SOL    HW194618   7.425  10.603   5.987
30907SOL    HW294619   7.360  10.732   5.943
30908SOL     OW94620  13.823   7.902  13.163
30908SOL    HW194621  13.896   7.843  13.144
30908SOL    HW294622  13.747   7.860  13.121
30909SOL     OW94623   6.254   7.315   6.515
30909SOL    HW194624   6.241   7.324   6.610
30909SOL    HW294625   6.234   7.224   6.496
30910SOL     OW94626   1.304  13.768   9.002
30910SOL    HW194627   1.252  13.849   9.008
30910SOL    HW294628   1.348  13.762   9.087
30911SOL     OW94629   6.208   6.905  12.168
30911SOL    HW194630   6.251   6.823  12.193
30911SOL    HW294631   6.191   6.949  12.251
30912SOL     OW94632   5.328  10.606   9.745
30912SOL    HW194633   5.363  10.518   9.730
30912SOL    HW294634   5.262  10.618   9.677
30913SOL     OW94635   3.342   9.450   6.275
30913SOL    HW194636   3.354   9.536   6.235
30913SOL    HW294637   3.419   9.438   6.331
30914SOL     OW94638   3.941  13.382   9.742
30914SOL    HW194639   3.925  13.448   9.674
30914SOL    HW294640   4.014  13.330   9.708
30915SOL     OW94641  12.981  14.559   9.294
30915SOL    HW194642  13.024  14.609   9.225
30915SOL    HW294643  13.023  14.473   9.291
30916SOL     OW94644   3.468   1.730  10.873
30916SOL    HW194645   3.511   1.653  10.910
30916SOL    HW294646   3.518   1.751  10.795
30917SOL     OW94647   6.828   0.318   7.165
30917SOL    HW194648   6.923   0.330   7.173
30917SOL    HW294649   6.790   0.384   7.224
30918SOL     OW94650  13.944   2.632  12.417
30918SOL    HW194651  13.942   2.551  12.366
30918SOL    HW294652  13.904   2.607  12.501
30919SOL     OW94653   3.265   6.464   1.942
30919SOL    HW194654   3.245   6.532   1.877
30919SOL    HW294655   3.353   6.434   1.918
30920SOL     OW94656  12.261  12.122   4.619
30920SOL    HW194657  12.187  12.096   4.674
30920SOL    HW294658  12.262  12.057   4.549
30921SOL     OW94659  13.482   6.483   3.462
30921SOL    HW194660  13.576   6.469   3.451
30921SOL    HW294661  13.476   6.571   3.501
30922SOL     OW94662   2.297   9.091   9.300
30922SOL    HW194663   2.287   9.043   9.218
30922SOL    HW294664   2.390   9.114   9.304
30923SOL     OW94665   6.662   4.426   7.419
30923SOL    HW194666   6.718   4.489   7.464
30923SOL    HW294667   6.673   4.446   7.326
30924SOL     OW94668   2.953   5.279   3.408
30924SOL    HW194669   2.974   5.283   3.315
30924SOL    HW294670   2.870   5.231   3.411
30925SOL     OW94671   0.412   2.993  11.605
30925SOL    HW194672   0.368   3.057  11.661
30925SOL    HW294673   0.401   2.910  11.650
30926SOL     OW94674  14.068   7.266   5.103
30926SOL    HW194675  14.008   7.291   5.033
30926SOL    HW294676  14.095   7.349   5.142
30927SOL     OW94677   2.904   6.155   6.729
30927SOL    HW194678   2.974   6.153   6.664
30927SOL    HW294679   2.945   6.186   6.809
30928SOL     OW94680  14.302  11.311   1.238
30928SOL    HW194681  14.240  11.345   1.302
30928SOL    HW294682  14.334  11.388   1.192
30929SOL     OW94683  13.192  11.278   1.666
30929SOL    HW194684  13.155  11.200   1.707
30929SOL    HW294685  13.163  11.273   1.575
30930SOL     OW94686   9.792  13.862   4.005
30930SOL    HW194687   9.828  13.796   3.946
30930SOL    HW294688   9.860  13.929   4.011
30931SOL     OW94689   1.783   1.835  14.443
30931SOL    HW194690   1.868   1.792  14.453
30931SOL    HW294691   1.767   1.835  14.349
30932SOL     OW94692   3.189   4.898   4.917
30932SOL    HW194693   3.242   4.819   4.907
30932SOL    HW294694   3.106   4.867   4.953
30933SOL     OW94695   4.382   4.776  14.456
30933SOL    HW194696   4.353   4.693  14.493
30933SOL    HW294697   4.305   4.812  14.413
30934SOL     OW94698  13.765  14.102   0.073
30934SOL    HW194699  13.707  14.108   0.149
30934SOL    HW294700  13.850  14.079   0.111
30935SOL     OW94701  14.662   7.970  13.265
30935SOL    HW194702  14.733   7.909  13.243
30935SOL    HW294703  14.596   7.954  13.198
30936SOL     OW94704   1.674   6.074   7.973
30936SOL    HW194705   1.641   5.984   7.981
30936SOL    HW294706   1.718   6.076   7.888
30937SOL     OW94707   6.661   0.294  11.390
30937SOL    HW194708   6.721   0.360  11.425
30937SOL    HW294709   6.658   0.312  11.296
30938SOL     OW94710   6.594   6.987   4.822
30938SOL    HW194711   6.529   6.984   4.891
30938SOL    HW294712   6.617   7.080   4.813
30939SOL     OW94713   5.420   2.352  11.062
30939SOL    HW194714   5.436   2.438  11.022
30939SOL    HW294715   5.507   2.316  11.076
30940SOL     OW94716  14.349  13.081   0.630
30940SOL    HW194717  14.379  13.098   0.541
30940SOL    HW294718  14.298  13.000   0.623
30941SOL     OW94719  11.832  10.656   6.713
30941SOL    HW194720  11.827  10.735   6.659
30941SOL    HW294721  11.909  10.669   6.768
30942SOL     OW94722   5.424   9.618   6.902
30942SOL    HW194723   5.433   9.615   6.997
30942SOL    HW294724   5.361   9.549   6.881
30943SOL     OW94725  14.722   3.216   5.964
30943SOL    HW194726  14.786   3.281   5.993
30943SOL    HW294727  14.663   3.265   5.907
30944SOL     OW94728   3.043  13.333  10.467
30944SOL    HW194729   2.962  13.357  10.512
30944SOL    HW294730   3.088  13.417  10.454
30945SOL     OW94731   7.960   3.871  12.015
30945SOL    HW194732   7.968   3.903  12.105
30945SOL    HW294733   8.046   3.890  11.976
30946SOL     OW94734   9.909  10.559  12.168
30946SOL    HW194735   9.908  10.529  12.259
30946SOL    HW294736   9.941  10.649  12.173
30947SOL     OW94737   8.552  13.422   6.119
30947SOL    HW194738   8.582  13.333   6.102
30947SOL    HW294739   8.631  13.468   6.148
30948SOL     OW94740  10.247   4.475   8.852
30948SOL    HW194741  10.242   4.387   8.814
30948SOL    HW294742  10.273   4.531   8.779
30949SOL     OW94743  10.362  13.911  11.381
30949SOL    HW194744  10.305  13.938  11.309
30949SOL    HW294745  10.423  13.849  11.341
30950SOL     OW94746   3.503   7.215  14.325
30950SOL    HW194747   3.581   7.260  14.359
30950SOL    HW294748   3.531   7.124  14.314
30951SOL     OW94749   4.641  10.671   1.377
30951SOL    HW194750   4.734  10.649   1.389
30951SOL    HW294751   4.629  10.670   1.282
30952SOL     OW94752   0.028  12.850  10.717
30952SOL    HW194753   0.045  12.837  10.810
30952SOL    HW294754   0.115  12.867  10.679
30953SOL     OW94755   9.649   8.497   3.125
30953SOL    HW194756   9.675   8.569   3.068
30953SOL    HW294757   9.553   8.494   3.118
30954SOL     OW94758   0.223   4.638   9.466
30954SOL    HW194759   0.181   4.713   9.507
30954SOL    HW294760   0.285   4.606   9.531
30955SOL     OW94761  14.523   1.291  11.344
30955SOL    HW194762  14.513   1.212  11.396
30955SOL    HW294763  14.477   1.273  11.263
30956SOL     OW94764  12.778   1.673  12.408
30956SOL    HW194765  12.818   1.640  12.328
30956SOL    HW294766  12.683   1.668  12.392
30957SOL     OW94767   2.735   1.661   7.052
30957SOL    HW194768   2.708   1.722   7.121
30957SOL    HW294769   2.757   1.717   6.977
30958SOL     OW94770   0.430   7.528  10.026
30958SOL    HW194771   0.447   7.442  10.064
30958SOL    HW294772   0.427   7.514   9.932
30959SOL     OW94773  11.359   6.687   3.622
30959SOL    HW194774  11.416   6.732   3.683
30959SOL    HW294775  11.304   6.755   3.585
30960SOL     OW94776  11.047   5.805  12.741
30960SOL    HW194777  11.038   5.781  12.833
30960SOL    HW294778  11.097   5.733  12.702
30961SOL     OW94779  11.566  11.098   9.486
30961SOL    HW194780  11.495  11.162   9.489
30961SOL    HW294781  11.549  11.039   9.559
30962SOL     OW94782   2.435  11.438   3.224
30962SOL    HW194783   2.380  11.360   3.238
30962SOL    HW294784   2.409  11.497   3.294
30963SOL     OW94785  12.408   6.754   9.407
30963SOL    HW194786  12.355   6.818   9.359
30963SOL    HW294787  12.460   6.710   9.339
30964SOL     OW94788   4.601  10.170   6.444
30964SOL    HW194789   4.589  10.212   6.359
30964SOL    HW294790   4.694  10.146   6.445
30965SOL     OW94791  11.034   2.669  10.536
30965SOL    HW194792  10.970   2.651  10.467
30965SOL    HW294793  10.994   2.634  10.615
30966SOL     OW94794  14.348   8.204   6.365
30966SOL    HW194795  14.401   8.129   6.338
30966SOL    HW294796  14.399   8.247   6.433
30967SOL     OW94797  10.805   2.215   7.867
30967SOL    HW194798  10.726   2.267   7.884
30967SOL    HW294799  10.873   2.280   7.847
30968SOL     OW94800   7.920   4.793   8.148
30968SOL    HW194801   7.924   4.885   8.175
30968SOL    HW294802   7.980   4.748   8.208
30969SOL     OW94803  10.114   5.273   1.277
30969SOL    HW194804  10.178   5.221   1.229
30969SOL    HW294805  10.073   5.211   1.338
30970SOL     OW94806   8.675   5.322   4.762
30970SOL    HW194807   8.676   5.314   4.857
30970SOL    HW294808   8.767   5.323   4.737
30971SOL     OW94809   9.353   4.822   7.947
30971SOL    HW194810   9.416   4.810   7.876
30971SOL    HW294811   9.380   4.760   8.014
30972SOL     OW94812  12.540   4.679   1.671
30972SOL    HW194813  12.543   4.739   1.745
30972SOL    HW294814  12.617   4.702   1.618
30973SOL     OW94815   0.845   0.346   4.780
30973SOL    HW194816   0.816   0.423   4.731
30973SOL    HW294817   0.906   0.380   4.846
30974SOL     OW94818  11.573   2.123   8.361
30974SOL    HW194819  11.510   2.138   8.290
30974SOL    HW294820  11.534   2.055   8.415
30975SOL     OW94821   0.927  10.740  11.121
30975SOL    HW194822   0.920  10.670  11.186
30975SOL    HW294823   0.858  10.721  11.058
30976SOL     OW94824   8.353   9.998   0.816
30976SOL    HW194825   8.355   9.934   0.746
30976SOL    HW294826   8.290  10.064   0.786
30977SOL     OW94827   1.328  10.443  11.337
30977SOL    HW194828   1.296  10.436  11.247
30977SOL    HW294829   1.420  10.467  11.328
30978SOL     OW94830   2.981   8.258  12.094
30978SOL    HW194831   2.940   8.319  12.033
30978SOL    HW294832   3.019   8.313  12.162
30979SOL     OW94833  13.734   1.739   0.184
30979SOL    HW194834  13.754   1.819   0.233
30979SOL    HW294835  13.750   1.668   0.245
30980SOL     OW94836  13.856   1.221   2.400
30980SOL    HW194837  13.940   1.250   2.438
30980SOL    HW294838  13.795   1.221   2.474
30981SOL     OW94839   5.024   7.778  11.814
30981SOL    HW194840   5.090   7.714  11.785
30981SOL    HW294841   5.071   7.861  11.814
30982SOL     OW94842   7.156   0.114  13.655
30982SOL    HW194843   7.158   0.038  13.597
30982SOL    HW294844   7.154   0.189  13.595
30983SOL     OW94845  13.770  10.485  12.892
30983SOL    HW194846  13.821  10.559  12.859
30983SOL    HW294847  13.762  10.426  12.817
30984SOL     OW94848   1.363   5.748   1.971
30984SOL    HW194849   1.355   5.838   1.942
30984SOL    HW294850   1.453   5.741   2.004
30985SOL     OW94851  14.846   7.546   4.701
30985SOL    HW194852   0.046   7.511   4.758
30985SOL    HW294853  14.836   7.480   4.632
30986SOL     OW94854  11.561  12.805   2.912
30986SOL    HW194855  11.474  12.831   2.944
30986SOL    HW294856  11.621  12.866   2.955
30987SOL     OW94857   0.730   0.547   7.990
30987SOL    HW194858   0.796   0.577   7.928
30987SOL    HW294859   0.729   0.452   7.979
30988SOL     OW94860  12.281   0.519   6.618
30988SOL    HW194861  12.275   0.550   6.528
30988SOL    HW294862  12.229   0.439   6.620
30989SOL     OW94863   3.535   7.810  10.161
30989SOL    HW194864   3.624   7.842  10.145
30989SOL    HW294865   3.529   7.802  10.256
30990SOL     OW94866  10.884  11.905   7.518
30990SOL    HW194867  10.837  11.959   7.455
30990SOL    HW294868  10.821  11.888   7.588
30991SOL     OW94869   1.966  12.779  11.290
30991SOL    HW194870   1.989  12.688  11.267
30991SOL    HW294871   2.045  12.829  11.268
30992SOL     OW94872  13.326   3.902  13.434
30992SOL    HW194873  13.326   3.907  13.529
30992SOL    HW294874  13.246   3.855  13.412
30993SOL     OW94875  14.061   2.011   0.745
30993SOL    HW194876  14.045   2.105   0.738
30993SOL    HW294877  13.978   1.975   0.774
30994SOL     OW94878   8.558  10.383  12.677
30994SOL    HW194879   8.487  10.445  12.694
30994SOL    HW294880   8.568  10.383  12.582
30995SOL     OW94881  11.640   3.902  13.280
30995SOL    HW194882  11.687   3.949  13.350
30995SOL    HW294883  11.588   3.837  13.326
30996SOL     OW94884   7.185   8.440   3.914
30996SOL    HW194885   7.132   8.452   3.835
30996SOL    HW294886   7.244   8.368   3.893
30997SOL     OW94887   8.049   3.893  10.557
30997SOL    HW194888   8.048   3.903  10.462
30997SOL    HW294889   7.990   3.961  10.589
30998SOL     OW94890   9.186   1.749  10.400
30998SOL    HW194891   9.197   1.822  10.339
30998SOL    HW294892   9.273   1.733  10.435
30999SOL     OW94893  10.930  10.299   7.567
30999SOL    HW194894  11.016  10.265   7.541
30999SOL    HW294895  10.897  10.345   7.489
31000SOL     OW94896  13.253  12.799  11.552
31000SOL    HW194897  13.253  12.879  11.500
31000SOL    HW294898  13.342  12.791  11.585
31001SOL     OW94899   2.918   3.374   2.797
31001SOL    HW194900   2.898   3.326   2.878
31001SOL    HW294901   3.010   3.353   2.779
31002SOL     OW94902   6.954  14.002   6.563
31002SOL    HW194903   6.864  13.994   6.533
31002SOL    HW294904   6.950  14.065   6.635
31003SOL     OW94905  13.378   3.068   8.537
31003SOL    HW194906  13.444   3.082   8.470
31003SOL    HW294907  13.408   3.119   8.612
31004SOL     OW94908   6.933   3.115   7.810
31004SOL    HW194909   6.918   3.162   7.892
31004SOL    HW294910   6.845   3.090   7.781
31005SOL     OW94911  11.015  12.831  10.896
31005SOL    HW194912  11.031  12.740  10.920
31005SOL    HW294913  11.022  12.879  10.978
31006SOL     OW94914  14.056  11.482  10.087
31006SOL    HW194915  13.992  11.552  10.103
31006SOL    HW294916  14.048  11.463   9.993
31007SOL     OW94917   7.741   0.424  12.738
31007SOL    HW194918   7.719   0.395  12.826
31007SOL    HW294919   7.807   0.361  12.708
31008SOL     OW94920   3.181  10.441   2.160
31008SOL    HW194921   3.169  10.533   2.182
31008SOL    HW294922   3.257  10.439   2.101
31009SOL     OW94923   8.958  11.192   1.811
31009SOL    HW194924   8.915  11.106   1.814
31009SOL    HW294925   8.967  11.217   1.903
31010SOL     OW94926  12.675   9.559   9.880
31010SOL    HW194927  12.631   9.477   9.857
31010SOL    HW294928  12.608   9.626   9.869
31011SOL     OW94929   6.277   2.590   1.466
31011SOL    HW194930   6.359   2.605   1.419
31011SOL    HW294931   6.239   2.513   1.424
31012SOL     OW94932   4.801   6.491  13.879
31012SOL    HW194933   4.744   6.568  13.880
31012SOL    HW294934   4.885   6.524  13.847
31013SOL     OW94935   6.811  13.265   8.726
31013SOL    HW194936   6.872  13.326   8.685
31013SOL    HW294937   6.841  13.257   8.817
31014SOL     OW94938   9.139   8.932  12.806
31014SOL    HW194939   9.150   8.844  12.769
31014SOL    HW294940   9.216   8.981  12.775
31015SOL     OW94941   3.923   3.725   5.197
31015SOL    HW194942   3.969   3.729   5.281
31015SOL    HW294943   3.922   3.816   5.166
31016SOL     OW94944  10.281   5.264  10.388
31016SOL    HW194945  10.291   5.239  10.480
31016SOL    HW294946  10.207   5.324  10.387
31017SOL     OW94947   9.009  11.085  13.430
31017SOL    HW194948   8.929  11.084  13.377
31017SOL    HW294949   9.011  11.173  13.467
31018SOL     OW94950   3.452  13.862   1.506
31018SOL    HW194951   3.452  13.938   1.447
31018SOL    HW294952   3.387  13.803   1.469
31019SOL     OW94953  11.272   4.527  12.212
31019SOL    HW194954  11.194   4.527  12.156
31019SOL    HW294955  11.333   4.587  12.169
31020SOL     OW94956   7.324   2.304   4.812
31020SOL    HW194957   7.386   2.272   4.747
31020SOL    HW294958   7.348   2.395   4.826
31021SOL     OW94959   2.018   0.181  11.341
31021SOL    HW194960   1.980   0.149  11.423
31021SOL    HW294961   2.108   0.149  11.343
31022SOL     OW94962   8.181   7.133  14.678
31022SOL    HW194963   8.087   7.127  14.693
31022SOL    HW294964   8.207   7.044  14.655
31023SOL     OW94965   0.256   3.574   5.601
31023SOL    HW194966   0.206   3.648   5.565
31023SOL    HW294967   0.250   3.587   5.696
31024SOL     OW94968   1.596  12.336   1.201
31024SOL    HW194969   1.548  12.337   1.118
31024SOL    HW294970   1.650  12.257   1.196
31025SOL     OW94971  12.087  14.827   5.301
31025SOL    HW194972  12.134  14.744   5.308
31025SOL    HW294973  12.006  14.806   5.256
31026SOL     OW94974   1.250   4.816   7.435
31026SOL    HW194975   1.283   4.825   7.345
31026SOL    HW294976   1.177   4.878   7.439
31027SOL     OW94977   8.893  10.646   8.353
31027SOL    HW194978   8.899  10.581   8.423
31027SOL    HW294979   8.799  10.664   8.345
31028SOL     OW94980   8.625  14.634   4.801
31028SOL    HW194981   8.545  14.632   4.854
31028SOL    HW294982   8.696  14.623   4.864
31029SOL     OW94983  14.053   7.894  10.676
31029SOL    HW194984  13.969   7.861  10.644
31029SOL    HW294985  14.030   7.968  10.733
31030SOL     OW94986  13.029   7.161   5.267
31030SOL    HW194987  13.046   7.249   5.233
31030SOL    HW294988  13.039   7.170   5.362
31031SOL     OW94989   2.465   6.802  10.133
31031SOL    HW194990   2.428   6.888  10.109
31031SOL    HW294991   2.403   6.739  10.095
31032SOL     OW94992   0.628   1.435   3.697
31032SOL    HW194993   0.658   1.353   3.736
31032SOL    HW294994   0.700   1.461   3.639
31033SOL     OW94995   5.304   7.450  12.668
31033SOL    HW194996   5.298   7.376  12.729
31033SOL    HW294997   5.384   7.496  12.694
31034SOL     OW94998   0.181   7.722   0.010
31034SOL    HW194999   0.173   7.686  14.790
31034SOL    HW295000   0.145   7.654   0.067
31035SOL     OW95001   6.760  11.877   6.407
31035SOL    HW195002   6.770  11.836   6.493
31035SOL    HW295003   6.677  11.924   6.411
31036SOL     OW95004  13.354   8.175   2.281
31036SOL    HW195005  13.348   8.176   2.185
31036SOL    HW295006  13.372   8.083   2.303
31037SOL     OW95007   6.544   9.755   8.457
31037SOL    HW195008   6.603   9.755   8.382
31037SOL    HW295009   6.480   9.686   8.437
31038SOL     OW95010  11.455   8.537  11.606
31038SOL    HW195011  11.507   8.552  11.528
31038SOL    HW295012  11.449   8.441  11.613
31039SOL     OW95013   0.781   0.003  10.965
31039SOL    HW195014   0.751  14.849  10.877
31039SOL    HW295015   0.760   0.096  10.975
31040SOL     OW95016  14.192   1.123   5.276
31040SOL    HW195017  14.279   1.091   5.251
31040SOL    HW295018  14.209   1.192   5.340
31041SOL     OW95019   2.739   5.093  11.133
31041SOL    HW195020   2.782   5.008  11.149
31041SOL    HW295021   2.694   5.081  11.049
31042SOL     OW95022  13.901   1.652   6.263
31042SOL    HW195023  13.877   1.564   6.291
31042SOL    HW295024  13.818   1.697   6.251
31043SOL     OW95025   2.303  14.577  10.315
31043SOL    HW195026   2.315  14.651  10.374
31043SOL    HW295027   2.240  14.520  10.360
31044SOL     OW95028   4.670   6.424  14.280
31044SOL    HW195029   4.763   6.423  14.256
31044SOL    HW295030   4.645   6.516  14.280
31045SOL     OW95031   4.317   7.710   0.621
31045SOL    HW195032   4.410   7.691   0.638
31045SOL    HW295033   4.273   7.685   0.702
31046SOL     OW95034   8.543  13.191   7.753
31046SOL    HW195035   8.488  13.201   7.830
31046SOL    HW295036   8.571  13.280   7.732
31047SOL     OW95037   1.084   8.950   5.092
31047SOL    HW195038   1.011   8.939   5.031
31047SOL    HW295039   1.155   8.898   5.055
31048SOL     OW95040   2.102  12.737   4.472
31048SOL    HW195041   2.128  12.827   4.491
31048SOL    HW295042   2.184  12.690   4.456
31049SOL     OW95043   2.596   0.486   4.430
31049SOL    HW195044   2.681   0.444   4.441
31049SOL    HW295045   2.596   0.516   4.340
31050SOL     OW95046  10.316  13.095   0.121
31050SOL    HW195047  10.261  13.121   0.195
31050SOL    HW295048  10.263  13.031   0.073
31051SOL     OW95049  14.105   5.429   4.255
31051SOL    HW195050  14.165   5.355   4.271
31051SOL    HW295051  14.018   5.393   4.273
31052SOL     OW95052  13.360   1.401   3.635
31052SOL    HW195053  13.280   1.425   3.588
31052SOL    HW295054  13.345   1.431   3.725
31053SOL     OW95055   1.727  14.520   2.226
31053SOL    HW195056   1.778  14.449   2.186
31053SOL    HW295057   1.791  14.589   2.242
31054SOL     OW95058   5.540   5.083   6.078
31054SOL    HW195059   5.531   5.163   6.027
31054SOL    HW295060   5.491   5.017   6.028
31055SOL     OW95061   8.984   7.430  11.622
31055SOL    HW195062   8.925   7.360  11.597
31055SOL    HW295063   9.051   7.432  11.554
31056SOL     OW95064   4.107   4.822  12.323
31056SOL    HW195065   4.108   4.841  12.417
31056SOL    HW295066   4.178   4.759  12.310
31057SOL     OW95067   8.400  13.273   1.002
31057SOL    HW195068   8.415  13.316   0.918
31057SOL    HW295069   8.316  13.228   0.992
31058SOL     OW95070   6.266  12.184   9.237
31058SOL    HW195071   6.293  12.253   9.177
31058SOL    HW295072   6.186  12.217   9.277
31059SOL     OW95073   9.666   5.001  14.738
31059SOL    HW195074   9.706   5.005  14.825
31059SOL    HW295075   9.708   4.926  14.696
31060SOL     OW95076   4.102   1.955   2.661
31060SOL    HW195077   4.095   1.906   2.579
31060SOL    HW295078   4.180   1.920   2.704
31061SOL     OW95079   2.603   7.639   5.322
31061SOL    HW195080   2.541   7.687   5.268
31061SOL    HW295081   2.603   7.550   5.286
31062SOL     OW95082   9.232  14.778   7.487
31062SOL    HW195083   9.182  14.707   7.448
31062SOL    HW295084   9.300  14.733   7.539
31063SOL     OW95085   5.634   2.196  11.458
31063SOL    HW195086   5.695   2.241  11.517
31063SOL    HW295087   5.641   2.103  11.483
31064SOL     OW95088   1.303   6.336   6.918
31064SOL    HW195089   1.303   6.424   6.956
31064SOL    HW295090   1.392   6.304   6.935
31065SOL     OW95091   9.111  13.856   0.140
31065SOL    HW195092   9.109  13.763   0.115
31065SOL    HW295093   9.188  13.891   0.094
31066SOL     OW95094   2.232  11.798  11.052
31066SOL    HW195095   2.136  11.798  11.054
31066SOL    HW295096   2.256  11.889  11.070
31067SOL     OW95097  10.243   5.837   6.699
31067SOL    HW195098  10.156   5.862   6.669
31067SOL    HW295099  10.302   5.902   6.662
31068SOL     OW95100   3.519   4.792   3.590
31068SOL    HW195101   3.587   4.856   3.610
31068SOL    HW295102   3.537   4.765   3.500
31069SOL     OW95103   2.037   8.797   9.525
31069SOL    HW195104   2.095   8.872   9.539
31069SOL    HW295105   2.024   8.760   9.612
31070SOL     OW95106   6.043  10.509  11.762
31070SOL    HW195107   6.091  10.543  11.837
31070SOL    HW295108   6.006  10.587  11.720
31071SOL     OW95109   1.700   2.598   2.052
31071SOL    HW195110   1.634   2.639   2.107
31071SOL    HW295111   1.698   2.506   2.075
31072SOL     OW95112   4.742   3.928   6.675
31072SOL    HW195113   4.712   3.849   6.720
31072SOL    HW295114   4.681   3.996   6.704
31073SOL     OW95115   0.098  13.038   4.871
31073SOL    HW195116   0.051  12.956   4.857
31073SOL    HW295117   0.034  13.107   4.852
31074SOL     OW95118   8.052   9.241  14.682
31074SOL    HW195119   8.066   9.177  14.613
31074SOL    HW295120   8.109   9.314  14.659
31075SOL     OW95121  14.496  10.581   9.504
31075SOL    HW195122  14.576  10.538   9.473
31075SOL    HW295123  14.475  10.645   9.436
31076SOL     OW95124  14.226  13.357   4.765
31076SOL    HW195125  14.286  13.319   4.701
31076SOL    HW295126  14.276  13.357   4.847
31077SOL     OW95127   8.036   3.187   5.112
31077SOL    HW195128   7.972   3.199   5.182
31077SOL    HW295129   8.109   3.243   5.137
31078SOL     OW95130   2.014   6.877   5.685
31078SOL    HW195131   2.102   6.842   5.701
31078SOL    HW295132   2.029   6.956   5.634
31079SOL     OW95133   5.522   2.095   6.972
31079SOL    HW195134   5.580   2.106   7.048
31079SOL    HW295135   5.580   2.070   6.901
31080SOL     OW95136   2.166  12.637   2.132
31080SOL    HW195137   2.177  12.631   2.227
31080SOL    HW295138   2.238  12.585   2.096
31081SOL     OW95139  13.193   6.537   2.616
31081SOL    HW195140  13.220   6.446   2.602
31081SOL    HW295141  13.152   6.537   2.703
31082SOL     OW95142  10.124   2.744   8.144
31082SOL    HW195143  10.114   2.701   8.229
31082SOL    HW295144  10.217   2.763   8.138
31083SOL     OW95145   1.552   8.525   2.530
31083SOL    HW195146   1.537   8.607   2.484
31083SOL    HW295147   1.469   8.506   2.573
31084SOL     OW95148   7.178  13.480  10.770
31084SOL    HW195149   7.184  13.391  10.735
31084SOL    HW295150   7.190  13.470  10.864
31085SOL     OW95151   6.763   7.035   1.095
31085SOL    HW195152   6.757   7.102   1.027
31085SOL    HW295153   6.676   6.995   1.096
31086SOL     OW95154   0.914   8.762   0.931
31086SOL    HW195155   0.968   8.837   0.957
31086SOL    HW295156   0.829   8.778   0.973
31087SOL     OW95157  10.812   6.939   6.211
31087SOL    HW195158  10.718   6.929   6.224
31087SOL    HW295159  10.822   6.960   6.119
31088SOL     OW95160   9.236   6.359   9.698
31088SOL    HW195161   9.164   6.321   9.748
31088SOL    HW295162   9.194   6.421   9.638
31089SOL     OW95163   3.613   6.396   6.603
31089SOL    HW195164   3.594   6.413   6.510
31089SOL    HW295165   3.643   6.306   6.605
31090SOL     OW95166  14.004   8.753   7.234
31090SOL    HW195167  13.954   8.714   7.306
31090SOL    HW295168  14.035   8.837   7.269
31091SOL     OW95169   3.179   7.542   0.048
31091SOL    HW195170   3.089   7.574   0.043
31091SOL    HW295171   3.232   7.612   0.010
31092SOL     OW95172   8.243  10.471  11.340
31092SOL    HW195173   8.338  10.462  11.331
31092SOL    HW295174   8.229  10.484  11.434
31093SOL     OW95175   1.560   3.748   1.884
31093SOL    HW195176   1.512   3.666   1.899
31093SOL    HW295177   1.627   3.725   1.821
31094SOL     OW95178  12.220   1.287   5.697
31094SOL    HW195179  12.252   1.361   5.750
31094SOL    HW295180  12.294   1.263   5.642
31095SOL     OW95181   4.948   4.245   5.180
31095SOL    HW195182   5.005   4.179   5.141
31095SOL    HW295183   4.903   4.199   5.252
31096SOL     OW95184  14.273   3.957   9.260
31096SOL    HW195185  14.342   3.932   9.322
31096SOL    HW295186  14.222   4.024   9.306
31097SOL     OW95187  11.244  10.624   3.087
31097SOL    HW195188  11.302  10.570   3.034
31097SOL    HW295189  11.225  10.572   3.165
31098SOL     OW95190   5.977   5.510   4.376
31098SOL    HW195191   5.933   5.461   4.307
31098SOL    HW295192   5.907   5.553   4.425
31099SOL     OW95193   8.759  12.615   1.026
31099SOL    HW195194   8.848  12.644   1.045
31099SOL    HW295195   8.707  12.695   1.030
31100SOL     OW95196   8.353  14.551   2.617
31100SOL    HW195197   8.328  14.626   2.671
31100SOL    HW295198   8.321  14.574   2.529
31101SOL     OW95199  13.235   4.563   5.172
31101SOL    HW195200  13.190   4.625   5.115
31101SOL    HW295201  13.242   4.483   5.120
31102SOL     OW95202   5.377   3.873   2.958
31102SOL    HW195203   5.383   3.965   2.933
31102SOL    HW295204   5.370   3.826   2.875
31103SOL     OW95205   3.492   0.050  10.640
31103SOL    HW195206   3.464  14.834  10.676
31103SOL    HW295207   3.577   0.032  10.600
31104SOL     OW95208   3.380  10.695  10.477
31104SOL    HW195209   3.396  10.730  10.389
31104SOL    HW295210   3.446  10.627  10.488
31105SOL     OW95211   8.749  10.067   8.031
31105SOL    HW195212   8.776   9.989   8.078
31105SOL    HW295213   8.830  10.119   8.022
31106SOL     OW95214   4.760  11.218  11.454
31106SOL    HW195215   4.793  11.182  11.536
31106SOL    HW295216   4.778  11.151  11.388
31107SOL     OW95217   3.613   9.632  10.148
31107SOL    HW195218   3.518   9.631  10.137
31107SOL    HW295219   3.644   9.694  10.082
31108SOL     OW95220  14.650   3.111   8.754
31108SOL    HW195221  14.665   3.093   8.846
31108SOL    HW295222  14.726   3.162   8.726
31109SOL     OW95223   5.354  11.012  11.021
31109SOL    HW195224   5.332  11.052  11.105
31109SOL    HW295225   5.277  10.960  10.997
31110SOL     OW95226   1.751   9.712  11.348
31110SOL    HW195227   1.752   9.729  11.254
31110SOL    HW295228   1.805   9.633  11.358
31111SOL     OW95229   1.252   5.619  11.318
31111SOL    HW195230   1.275   5.655  11.404
31111SOL    HW295231   1.336   5.602  11.276
31112SOL     OW95232  11.464  14.608  13.686
31112SOL    HW195233  11.491  14.682  13.740
31112SOL    HW295234  11.476  14.532  13.743
31113SOL     OW95235  11.120   9.207  13.097
31113SOL    HW195236  11.123   9.242  13.186
31113SOL    HW295237  11.137   9.283  13.041
31114SOL     OW95238   0.795   9.985   5.746
31114SOL    HW195239   0.819  10.010   5.656
31114SOL    HW295240   0.708  10.023   5.758
31115SOL     OW95241  13.028  13.592   7.658
31115SOL    HW195242  13.008  13.630   7.572
31115SOL    HW295243  12.987  13.652   7.721
31116SOL     OW95244   8.801   8.829  10.336
31116SOL    HW195245   8.821   8.735  10.332
31116SOL    HW295246   8.709   8.833  10.363
31117SOL     OW95247   1.354  13.293   7.184
31117SOL    HW195248   1.269  13.329   7.160
31117SOL    HW295249   1.342  13.258   7.272
31118SOL     OW95250  14.489  12.675   7.298
31118SOL    HW195251  14.550  12.680   7.372
31118SOL    HW295252  14.543  12.653   7.223
31119SOL     OW95253   9.562   5.556   9.207
31119SOL    HW195254   9.638   5.597   9.166
31119SOL    HW295255   9.519   5.508   9.136
31120SOL     OW95256   4.037  13.163   7.366
31120SOL    HW195257   4.030  13.184   7.273
31120SOL    HW295258   4.129  13.141   7.380
31121SOL     OW95259  11.628   7.657   0.215
31121SOL    HW195260  11.649   7.747   0.240
31121SOL    HW295261  11.545   7.665   0.167
31122SOL     OW95262   9.037  11.108   3.235
31122SOL    HW195263   8.975  11.088   3.165
31122SOL    HW295264   8.983  11.117   3.314
31123SOL     OW95265  10.848  10.896  14.654
31123SOL    HW195266  10.788  10.872  14.584
31123SOL    HW295267  10.933  10.906  14.611
31124SOL     OW95268   3.288  14.405  10.963
31124SOL    HW195269   3.257  14.323  10.925
31124SOL    HW295270   3.286  14.467  10.890
31125SOL     OW95271   2.484  10.826   7.754
31125SOL    HW195272   2.558  10.772   7.729
31125SOL    HW295273   2.407  10.774   7.731
31126SOL     OW95274  14.325   9.010   8.054
31126SOL    HW195275  14.339   8.917   8.074
31126SOL    HW295276  14.379   9.057   8.118
31127SOL     OW95277   4.100   8.042   3.662
31127SOL    HW195278   4.064   8.103   3.598
31127SOL    HW295279   4.051   8.059   3.743
31128SOL     OW95280   7.940  12.543  11.659
31128SOL    HW195281   8.001  12.595  11.712
31128SOL    HW295282   7.853  12.571  11.688
31129SOL     OW95283   8.342  13.126   9.019
31129SOL    HW195284   8.275  13.189   8.994
31129SOL    HW295285   8.316  13.045   8.976
31130SOL     OW95286   7.412   3.211   3.527
31130SOL    HW195287   7.400   3.156   3.604
31130SOL    HW295288   7.425   3.299   3.562
31131SOL     OW95289  14.403   7.935   5.549
31131SOL    HW195290  14.308   7.925   5.553
31131SOL    HW295291  14.416   8.020   5.506
31132SOL     OW95292  13.215   7.897  13.003
31132SOL    HW195293  13.156   7.855  13.066
31132SOL    HW295294  13.224   7.834  12.932
31133SOL     OW95295  13.367   0.185  12.922
31133SOL    HW195296  13.347   0.231  13.003
31133SOL    HW295297  13.292   0.204  12.865
31134SOL     OW95298   0.034  13.550  14.449
31134SOL    HW195299   0.074  13.636  14.434
31134SOL    HW295300  14.814  13.569  14.481
31135SOL     OW95301   7.635   1.600   8.412
31135SOL    HW195302   7.713   1.643   8.378
31135SOL    HW295303   7.577   1.592   8.337
31136SOL     OW95304   7.672  13.919   0.745
31136SOL    HW195305   7.761  13.947   0.768
31136SOL    HW295306   7.685  13.854   0.676
31137SOL     OW95307  11.465   4.223   4.239
31137SOL    HW195308  11.410   4.183   4.306
31137SOL    HW295309  11.472   4.315   4.266
31138SOL     OW95310   8.737  12.065   3.976
31138SOL    HW195311   8.751  12.129   3.907
31138SOL    HW295312   8.818  12.067   4.027
31139SOL     OW95313   3.225  10.895  11.553
31139SOL    HW195314   3.192  10.865  11.469
31139SOL    HW295315   3.312  10.929  11.533
31140SOL     OW95316   5.697   4.807   9.458
31140SOL    HW195317   5.621   4.799   9.517
31140SOL    HW295318   5.771   4.824   9.516
31141SOL     OW95319   8.884   2.671   8.655
31141SOL    HW195320   8.946   2.600   8.638
31141SOL    HW295321   8.923   2.747   8.612
31142SOL     OW95322  13.180   7.546   2.424
31142SOL    HW195323  13.242   7.474   2.432
31142SOL    HW295324  13.228   7.623   2.456
31143SOL     OW95325   4.319   7.978   5.249
31143SOL    HW195326   4.307   8.057   5.301
31143SOL    HW295327   4.372   7.920   5.305
31144SOL     OW95328   1.548   7.996   0.977
31144SOL    HW195329   1.633   7.981   0.937
31144SOL    HW295330   1.553   8.085   1.013
31145SOL     OW95331  12.988   1.685   2.221
31145SOL    HW195332  12.901   1.646   2.223
31145SOL    HW295333  13.022   1.663   2.134
31146SOL     OW95334   3.382   9.485   3.199
31146SOL    HW195335   3.412   9.454   3.284
31146SOL    HW295336   3.462   9.491   3.147
31147SOL     OW95337   6.756  11.125  12.578
31147SOL    HW195338   6.809  11.079  12.643
31147SOL    HW295339   6.672  11.078  12.578
31148SOL     OW95340   5.492   7.027   1.627
31148SOL    HW195341   5.434   7.098   1.598
31148SOL    HW295342   5.569   7.072   1.662
31149SOL     OW95343  10.251   1.075   0.458
31149SOL    HW195344  10.176   1.065   0.516
31149SOL    HW295345  10.213   1.077   0.370
31150SOL     OW95346  10.278  11.737   1.426
31150SOL    HW195347  10.317  11.650   1.421
31150SOL    HW295348  10.352  11.796   1.439
31151SOL     OW95349   0.952  10.161   8.143
31151SOL    HW195350   0.899  10.215   8.202
31151SOL    HW295351   0.916  10.178   8.056
31152SOL     OW95352  11.144   9.903  10.132
31152SOL    HW195353  11.178   9.980  10.177
31152SOL    HW295354  11.110   9.937  10.049
31153SOL     OW95355   0.820   4.228  13.974
31153SOL    HW195356   0.909   4.235  14.011
31153SOL    HW295357   0.834   4.197  13.885
31154SOL     OW95358  11.080   0.917   8.856
31154SOL    HW195359  11.175   0.911   8.865
31154SOL    HW295360  11.065   1.010   8.834
31155SOL     OW95361   9.473   0.897  11.632
31155SOL    HW195362   9.491   0.810  11.596
31155SOL    HW295363   9.454   0.951  11.556
31156SOL     OW95364   2.779   5.678   5.429
31156SOL    HW195365   2.822   5.718   5.505
31156SOL    HW295366   2.685   5.687   5.448
31157SOL     OW95367  13.135   3.917  11.983
31157SOL    HW195368  13.063   3.909  12.046
31157SOL    HW295369  13.178   3.832  11.984
31158SOL     OW95370   0.730   2.552   6.723
31158SOL    HW195371   0.648   2.562   6.675
31158SOL    HW295372   0.793   2.603   6.671
31159SOL     OW95373   7.247  10.963   2.264
31159SOL    HW195374   7.171  10.953   2.207
31159SOL    HW295375   7.322  10.951   2.206
31160SOL     OW95376   4.466  12.119   4.215
31160SOL    HW195377   4.428  12.076   4.138
31160SOL    HW295378   4.553  12.080   4.222
31161SOL     OW95379   4.618   8.124  11.163
31161SOL    HW195380   4.599   8.050  11.221
31161SOL    HW295381   4.690   8.171  11.207
31162SOL     OW95382   9.783   1.592  11.184
31162SOL    HW195383   9.720   1.568  11.116
31162SOL    HW295384   9.742   1.666  11.230
31163SOL     OW95385   5.778   6.359   6.857
31163SOL    HW195386   5.773   6.432   6.795
31163SOL    HW295387   5.852   6.381   6.914
31164SOL     OW95388   4.247  13.328   6.979
31164SOL    HW195389   4.263  13.235   6.964
31164SOL    HW295390   4.165  13.330   7.029
31165SOL     OW95391   5.727   2.982  12.696
31165SOL    HW195392   5.823   2.989  12.690
31165SOL    HW295393   5.712   2.893  12.729
31166SOL     OW95394  11.008   4.141  14.670
31166SOL    HW195395  10.959   4.063  14.696
31166SOL    HW295396  11.061   4.163  14.747
31167SOL     OW95397   9.565   1.838  10.839
31167SOL    HW195398   9.498   1.891  10.795
31167SOL    HW295399   9.550   1.853  10.932
31168SOL     OW95400   3.483  10.601   2.768
31168SOL    HW195401   3.391  10.578   2.762
31168SOL    HW295402   3.489  10.689   2.730
31169SOL     OW95403   3.502   5.267   9.378
31169SOL    HW195404   3.570   5.232   9.320
31169SOL    HW295405   3.527   5.237   9.465
31170SOL     OW95406   0.883   1.103   4.491
31170SOL    HW195407   0.861   1.195   4.506
31170SOL    HW295408   0.817   1.054   4.540
31171SOL     OW95409   1.452   3.156   0.695
31171SOL    HW195410   1.494   3.077   0.659
31171SOL    HW295411   1.365   3.156   0.657
31172SOL     OW95412   2.587   6.626   4.950
31172SOL    HW195413   2.533   6.600   5.025
31172SOL    HW295414   2.616   6.715   4.971
31173SOL     OW95415   7.486   5.429   8.690
31173SOL    HW195416   7.511   5.376   8.765
31173SOL    HW295417   7.392   5.413   8.679
31174SOL     OW95418   1.669   4.949   7.574
31174SOL    HW195419   1.620   4.962   7.493
31174SOL    HW295420   1.649   5.026   7.627
31175SOL     OW95421  11.777   6.468   9.349
31175SOL    HW195422  11.727   6.401   9.397
31175SOL    HW295423  11.820   6.420   9.278
31176SOL     OW95424  11.640  14.562  14.087
31176SOL    HW195425  11.624  14.649  14.123
31176SOL    HW295426  11.643  14.504  14.164
31177SOL     OW95427   0.629   4.994   3.454
31177SOL    HW195428   0.717   4.956   3.449
31177SOL    HW295429   0.575   4.936   3.401
31178SOL     OW95430   2.713   0.993   1.613
31178SOL    HW195431   2.786   1.022   1.558
31178SOL    HW295432   2.727   1.036   1.697
31179SOL     OW95433   6.943   1.791   5.659
31179SOL    HW195434   6.983   1.836   5.585
31179SOL    HW295435   6.932   1.860   5.725
31180SOL     OW95436   0.703   0.617   8.242
31180SOL    HW195437   0.792   0.627   8.275
31180SOL    HW295438   0.714   0.584   8.153
31181SOL     OW95439   6.397   8.908  10.774
31181SOL    HW195440   6.461   8.856  10.822
31181SOL    HW295441   6.438   8.995  10.767
31182SOL     OW95442   0.243   9.329   3.044
31182SOL    HW195443   0.156   9.301   3.014
31182SOL    HW295444   0.303   9.271   2.998
31183SOL     OW95445   0.172  12.211  13.424
31183SOL    HW195446   0.082  12.183  13.443
31183SOL    HW295447   0.222  12.130  13.417
31184SOL     OW95448   3.801   3.379   3.456
31184SOL    HW195449   3.877   3.425   3.420
31184SOL    HW295450   3.806   3.292   3.417
31185SOL     OW95451   5.094  11.242   1.903
31185SOL    HW195452   5.131  11.328   1.922
31185SOL    HW295453   5.170  11.185   1.890
31186SOL     OW95454  11.488  12.126  14.013
31186SOL    HW195455  11.399  12.095  13.998
31186SOL    HW295456  11.517  12.080  14.092
31187SOL     OW95457  12.180   5.620   6.006
31187SOL    HW195458  12.244   5.679   5.965
31187SOL    HW295459  12.097   5.667   6.001
31188SOL     OW95460  14.768   4.096  11.533
31188SOL    HW195461  14.701   4.029  11.527
31188SOL    HW295462  14.721   4.178  11.518
31189SOL     OW95463  14.824   8.681  12.315
31189SOL    HW195464  14.744   8.696  12.265
31189SOL    HW295465   0.005   8.763  12.308
31190SOL     OW95466   2.072   8.677  12.090
31190SOL    HW195467   2.089   8.675  12.184
31190SOL    HW295468   2.094   8.588  12.060
31191SOL     OW95469  13.254   5.312   2.898
31191SOL    HW195470  13.261   5.323   2.803
31191SOL    HW295471  13.217   5.225   2.910
31192SOL     OW95472   2.850  13.912   4.412
31192SOL    HW195473   2.814  14.001   4.418
31192SOL    HW295474   2.775  13.856   4.393
31193SOL     OW95475  13.918   5.041   7.178
31193SOL    HW195476  13.869   5.123   7.180
31193SOL    HW295477  14.007   5.065   7.204
31194SOL     OW95478  12.166   8.581   9.270
31194SOL    HW195479  12.170   8.501   9.322
31194SOL    HW295480  12.195   8.554   9.183
31195SOL     OW95481   0.953   7.617  13.646
31195SOL    HW195482   1.037   7.652  13.615
31195SOL    HW295483   0.887   7.665  13.596
31196SOL     OW95484   7.698   7.519   3.861
31196SOL    HW195485   7.707   7.426   3.839
31196SOL    HW295486   7.611   7.525   3.901
31197SOL     OW95487   8.571   7.009   7.491
31197SOL    HW195488   8.661   7.029   7.518
31197SOL    HW295489   8.575   6.917   7.465
31198SOL     OW95490   4.672  14.306   2.656
31198SOL    HW195491   4.634  14.291   2.743
31198SOL    HW295492   4.734  14.377   2.669
31199SOL     OW95493   8.802   3.026  12.780
31199SOL    HW195494   8.772   2.943  12.743
31199SOL    HW295495   8.753   3.093  12.732
31200SOL     OW95496  11.476  11.702   7.030
31200SOL    HW195497  11.451  11.765   6.963
31200SOL    HW295498  11.439  11.739   7.111
31201SOL     OW95499   7.745   9.769  12.091
31201SOL    HW195500   7.772   9.777  12.182
31201SOL    HW295501   7.693   9.847  12.075
31202SOL     OW95502   1.553   4.999  14.012
31202SOL    HW195503   1.644   4.975  13.995
31202SOL    HW295504   1.504   4.965  13.937
31203SOL     OW95505  13.457   9.946  14.408
31203SOL    HW195506  13.387  10.009  14.428
31203SOL    HW295507  13.487   9.917  14.494
31204SOL     OW95508   9.409   2.748   3.271
31204SOL    HW195509   9.427   2.842   3.264
31204SOL    HW295510   9.477   2.707   3.218
31205SOL     OW95511  11.942  13.344   7.548
31205SOL    HW195512  11.921  13.282   7.478
31205SOL    HW295513  11.987  13.416   7.503
31206SOL     OW95514   3.166   6.901   6.977
31206SOL    HW195515   3.199   6.929   6.892
31206SOL    HW295516   3.104   6.831   6.957
31207SOL     OW95517  12.300   6.999  12.555
31207SOL    HW195518  12.247   7.037  12.625
31207SOL    HW295519  12.248   7.011  12.476
31208SOL     OW95520   3.846   5.095   5.167
31208SOL    HW195521   3.809   5.019   5.123
31208SOL    HW295522   3.941   5.083   5.159
31209SOL     OW95523   8.918   7.927  11.809
31209SOL    HW195524   8.842   7.945  11.865
31209SOL    HW295525   8.923   8.003  11.751
31210SOL     OW95526  11.451   0.272   6.330
31210SOL    HW195527  11.432   0.351   6.381
31210SOL    HW295528  11.531   0.294   6.282
31211SOL     OW95529   0.504  14.783   5.880
31211SOL    HW195530   0.495   0.007   5.905
31211SOL    HW295531   0.458  14.735   5.949
31212SOL     OW95532  11.238   2.020  14.395
31212SOL    HW195533  11.221   2.106  14.357
31212SOL    HW295534  11.170   1.964  14.358
31213SOL     OW95535  14.324   4.305  12.974
31213SOL    HW195536  14.397   4.243  12.975
31213SOL    HW295537  14.292   4.303  12.883
31214SOL     OW95538  12.627   2.452  12.020
31214SOL    HW195539  12.639   2.531  12.073
31214SOL    HW295540  12.615   2.485  11.931
31215SOL     OW95541  10.418   3.237   2.058
31215SOL    HW195542  10.444   3.146   2.072
31215SOL    HW295543  10.400   3.244   1.964
31216SOL     OW95544   4.851   4.596   9.066
31216SOL    HW195545   4.781   4.539   9.035
31216SOL    HW295546   4.836   4.603   9.160
31217SOL     OW95547   4.374   7.192   9.892
31217SOL    HW195548   4.444   7.165   9.833
31217SOL    HW295549   4.296   7.151   9.856
31218SOL     OW95550  12.971  10.036   8.291
31218SOL    HW195551  12.978  10.130   8.276
31218SOL    HW295552  12.902  10.007   8.230
31219SOL     OW95553   6.957   7.888   7.010
31219SOL    HW195554   6.871   7.872   7.047
31219SOL    HW295555   6.973   7.981   7.026
31220SOL     OW95556   2.900   3.037   6.507
31220SOL    HW195557   2.892   2.943   6.491
31220SOL    HW295558   2.825   3.060   6.561
31221SOL     OW95559  13.317   9.256   9.130
31221SOL    HW195560  13.334   9.336   9.081
31221SOL    HW295561  13.395   9.245   9.185
31222SOL     OW95562   7.984   2.531   7.412
31222SOL    HW195563   7.944   2.596   7.355
31222SOL    HW295564   8.040   2.479   7.354
31223SOL     OW95565   0.513   3.194   7.502
31223SOL    HW195566   0.472   3.141   7.571
31223SOL    HW295567   0.543   3.130   7.437
31224SOL     OW95568  13.830  14.756   2.195
31224SOL    HW195569  13.893  14.805   2.141
31224SOL    HW295570  13.882  14.716   2.264
31225SOL     OW95571  14.860   2.743   9.587
31225SOL    HW195572   0.006   2.718   9.496
31225SOL    HW295573   0.078   2.771   9.618
31226SOL     OW95574   4.736   8.186  11.840
31226SOL    HW195575   4.795   8.149  11.775
31226SOL    HW295576   4.668   8.230  11.789
31227SOL     OW95577  12.553  14.683  14.373
31227SOL    HW195578  12.481  14.719  14.425
31227SOL    HW295579  12.562  14.593  14.404
31228SOL     OW95580  12.131   0.799  10.912
31228SOL    HW195581  12.110   0.732  10.977
31228SOL    HW295582  12.094   0.766  10.831
31229SOL     OW95583  10.998   2.531  14.559
31229SOL    HW195584  11.080   2.564  14.521
31229SOL    HW295585  10.975   2.456  14.503
31230SOL     OW95586   9.097   6.134   6.903
31230SOL    HW195587   9.166   6.144   6.969
31230SOL    HW295588   9.069   6.224   6.884
31231SOL     OW95589  13.756   4.414   8.839
31231SOL    HW195590  13.794   4.471   8.773
31231SOL    HW295591  13.723   4.473   8.907
31232SOL     OW95592  14.859   1.878   8.355
31232SOL    HW195593  14.818   1.865   8.269
31232SOL    HW295594  14.801   1.832   8.416
31233SOL     OW95595   2.644  10.208   9.345
31233SOL    HW195596   2.551  10.225   9.336
31233SOL    HW295597   2.653  10.167   9.431
31234SOL     OW95598   8.428  10.806   8.112
31234SOL    HW195599   8.419  10.872   8.044
31234SOL    HW295600   8.508  10.831   8.159
31235SOL     OW95601   7.467   8.617   5.225
31235SOL    HW195602   7.423   8.575   5.299
31235SOL    HW295603   7.538   8.667   5.264
31236SOL     OW95604  12.302   6.395   4.991
31236SOL    HW195605  12.246   6.422   4.918
31236SOL    HW295606  12.280   6.303   5.005
31237SOL     OW95607   6.942  13.665   2.292
31237SOL    HW195608   6.853  13.635   2.309
31237SOL    HW295609   6.950  13.747   2.341
31238SOL     OW95610   2.581  13.818   0.616
31238SOL    HW195611   2.603  13.896   0.668
31238SOL    HW295612   2.501  13.784   0.658
31239SOL     OW95613   4.048   8.564   0.467
31239SOL    HW195614   4.013   8.586   0.553
31239SOL    HW295615   4.056   8.469   0.468
31240SOL     OW95616   2.326  14.070   7.529
31240SOL    HW195617   2.380  14.047   7.605
31240SOL    HW295618   2.389  14.098   7.463
31241SOL     OW95619   9.622   9.813   8.667
31241SOL    HW195620   9.655   9.876   8.603
31241SOL    HW295621   9.553   9.861   8.714
31242SOL     OW95622   2.073   6.426   1.705
31242SOL    HW195623   2.142   6.492   1.701
31242SOL    HW295624   2.116   6.344   1.682
31243SOL     OW95625   3.777  12.349  11.736
31243SOL    HW195626   3.809  12.439  11.727
31243SOL    HW295627   3.791  12.328  11.829
31244SOL     OW95628   1.501   9.487   2.817
31244SOL    HW195629   1.568   9.542   2.858
31244SOL    HW295630   1.544   9.402   2.804
31245SOL     OW95631   7.072   8.233  11.661
31245SOL    HW195632   7.027   8.227  11.576
31245SOL    HW295633   7.118   8.317  11.658
31246SOL     OW95634  13.079  11.542  10.780
31246SOL    HW195635  12.997  11.575  10.742
31246SOL    HW295636  13.145  11.560  10.713
31247SOL     OW95637   8.768   6.210   5.641
31247SOL    HW195638   8.675   6.197   5.624
31247SOL    HW295639   8.771   6.277   5.709
31248SOL     OW95640  11.053   0.234   0.558
31248SOL    HW195641  11.078   0.241   0.466
31248SOL    HW295642  11.009   0.149   0.565
31249SOL     OW95643  10.658   8.845  12.493
31249SOL    HW195644  10.673   8.938  12.511
31249SOL    HW295645  10.580   8.823  12.545
31250SOL     OW95646   7.203  10.979   0.978
31250SOL    HW195647   7.155  11.023   0.909
31250SOL    HW295648   7.285  10.950   0.937
31251SOL     OW95649   0.145  10.771   7.907
31251SOL    HW195650   0.094  10.703   7.952
31251SOL    HW295651   0.232  10.732   7.896
31252SOL     OW95652   3.894   8.220   2.832
31252SOL    HW195653   3.943   8.244   2.911
31252SOL    HW295654   3.948   8.154   2.790
31253SOL     OW95655   6.639   3.175  12.025
31253SOL    HW195656   6.566   3.236  12.024
31253SOL    HW295657   6.683   3.189  11.941
31254SOL     OW95658   2.846   3.722  10.815
31254SOL    HW195659   2.828   3.792  10.877
31254SOL    HW295660   2.859   3.766  10.731
31255SOL     OW95661   3.272   2.595   0.035
31255SOL    HW195662   3.216   2.524   0.002
31255SOL    HW295663   3.215   2.672   0.034
31256SOL     OW95664  13.404   6.445  14.531
31256SOL    HW195665  13.460   6.523  14.538
31256SOL    HW295666  13.316   6.480  14.522
31257SOL     OW95667   2.855   3.537  10.095
31257SOL    HW195668   2.888   3.452  10.125
31257SOL    HW295669   2.894   3.548  10.008
31258SOL     OW95670   1.272  12.838   6.691
31258SOL    HW195671   1.270  12.934   6.688
31258SOL    HW295672   1.214  12.815   6.763
31259SOL     OW95673   9.005  10.889  13.173
31259SOL    HW195674   9.032  10.951  13.105
31259SOL    HW295675   9.073  10.821  13.171
31260SOL     OW95676  14.285   2.294   2.136
31260SOL    HW195677  14.249   2.365   2.085
31260SOL    HW295678  14.375   2.284   2.105
31261SOL     OW95679  12.947  14.585   5.016
31261SOL    HW195680  12.943  14.575   5.111
31261SOL    HW295681  12.875  14.530   4.984
31262SOL     OW95682   7.676   5.935   4.524
31262SOL    HW195683   7.650   5.845   4.503
31262SOL    HW295684   7.659   5.984   4.444
31263SOL     OW95685   6.568  10.014   3.068
31263SOL    HW195686   6.564  10.110   3.063
31263SOL    HW295687   6.583   9.996   3.160
31264SOL     OW95688  14.145   0.348  11.710
31264SOL    HW195689  14.068   0.358  11.765
31264SOL    HW295690  14.147   0.254  11.688
31265SOL     OW95691   0.237   7.122   0.430
31265SOL    HW195692   0.253   7.029   0.446
31265SOL    HW295693   0.322   7.156   0.399
31266SOL     OW95694   8.734  12.968   5.875
31266SOL    HW195695   8.729  13.053   5.831
31266SOL    HW295696   8.774  12.988   5.960
31267SOL     OW95697   8.469   9.963   3.423
31267SOL    HW195698   8.502   9.874   3.433
31267SOL    HW295699   8.377   9.958   3.448
31268SOL     OW95700   5.321   3.180   6.190
31268SOL    HW195701   5.249   3.183   6.127
31268SOL    HW295702   5.318   3.091   6.226
31269SOL     OW95703   5.665   4.991   8.922
31269SOL    HW195704   5.712   5.060   8.969
31269SOL    HW295705   5.572   5.015   8.930
31270SOL     OW95706   8.550   0.657   2.969
31270SOL    HW195707   8.505   0.704   3.040
31270SOL    HW295708   8.540   0.714   2.893
31271SOL     OW95709  14.728   9.178   0.567
31271SOL    HW195710  14.690   9.097   0.535
31271SOL    HW295711  14.794   9.202   0.502
31272SOL     OW95712  12.388  13.168   8.266
31272SOL    HW195713  12.446  13.128   8.202
31272SOL    HW295714  12.300  13.154   8.231
31273SOL     OW95715   1.256   9.066   8.487
31273SOL    HW195716   1.238   9.125   8.413
31273SOL    HW295717   1.264   9.124   8.562
31274SOL     OW95718   8.614   0.411   9.855
31274SOL    HW195719   8.559   0.334   9.862
31274SOL    HW295720   8.651   0.422   9.942
31275SOL     OW95721  10.703   8.171   2.169
31275SOL    HW195722  10.685   8.264   2.182
31275SOL    HW295723  10.715   8.161   2.075
31276SOL     OW95724   3.833   2.957   7.594
31276SOL    HW195725   3.847   2.898   7.668
31276SOL    HW295726   3.899   2.930   7.530
31277SOL     OW95727  11.729  14.376   9.114
31277SOL    HW195728  11.766  14.345   9.197
31277SOL    HW295729  11.634  14.379   9.130
31278SOL     OW95730   5.656   9.560   9.211
31278SOL    HW195731   5.703   9.492   9.163
31278SOL    HW295732   5.578   9.516   9.245
31279SOL     OW95733  14.824   9.230   3.049
31279SOL    HW195734  14.756   9.189   3.102
31279SOL    HW295735  14.794   9.221   2.959
31280SOL     OW95736  11.932   4.680   6.020
31280SOL    HW195737  11.908   4.629   6.098
31280SOL    HW295738  11.852   4.724   5.994
31281SOL     OW95739   5.555  10.451  11.884
31281SOL    HW195740   5.569  10.363  11.919
31281SOL    HW295741   5.512  10.437  11.799
31282SOL     OW95742  10.357   4.338   7.263
31282SOL    HW195743  10.331   4.425   7.292
31282SOL    HW295744  10.277   4.301   7.225
31283SOL     OW95745  14.325   2.196   4.762
31283SOL    HW195746  14.260   2.218   4.694
31283SOL    HW295747  14.404   2.243   4.735
31284SOL     OW95748   8.941  12.232   9.563
31284SOL    HW195749   8.907  12.205   9.649
31284SOL    HW295750   9.035  12.244   9.577
31285SOL     OW95751   5.040   8.702   3.220
31285SOL    HW195752   4.979   8.630   3.204
31285SOL    HW295753   5.124   8.671   3.184
31286SOL     OW95754   1.511   4.654   8.913
31286SOL    HW195755   1.473   4.581   8.962
31286SOL    HW295756   1.493   4.731   8.967
31287SOL     OW95757  10.102  14.069   5.921
31287SOL    HW195758  10.107  14.058   5.826
31287SOL    HW295759  10.064  14.156   5.933
31288SOL     OW95760   4.441  10.876   8.891
31288SOL    HW195761   4.492  10.953   8.867
31288SOL    HW295762   4.350  10.906   8.894
31289SOL     OW95763   7.584  11.766   2.876
31289SOL    HW195764   7.507  11.816   2.850
31289SOL    HW295765   7.555  11.675   2.876
31290SOL     OW95766  13.727  13.490   1.481
31290SOL    HW195767  13.784  13.433   1.533
31290SOL    HW295768  13.785  13.559   1.450
31291SOL     OW95769  10.128   5.636   6.407
31291SOL    HW195770  10.172   5.565   6.455
31291SOL    HW295771  10.050   5.594   6.371
31292SOL     OW95772   8.688   2.196   0.603
31292SOL    HW195773   8.634   2.156   0.672
31292SOL    HW295774   8.627   2.252   0.555
31293SOL     OW95775   4.597  11.188   5.311
31293SOL    HW195776   4.516  11.229   5.340
31293SOL    HW295777   4.657  11.262   5.297
31294SOL     OW95778   6.144   2.725   9.587
31294SOL    HW195779   6.051   2.703   9.585
31294SOL    HW295780   6.150   2.807   9.538
31295SOL     OW95781  13.255   2.633   8.989
31295SOL    HW195782  13.222   2.705   8.935
31295SOL    HW295783  13.319   2.589   8.933
31296SOL     OW95784  13.978   2.481  13.615
31296SOL    HW195785  14.043   2.548  13.638
31296SOL    HW295786  13.937   2.513  13.535
31297SOL     OW95787   0.610  11.781   6.479
31297SOL    HW195788   0.608  11.697   6.524
31297SOL    HW295789   0.539  11.832   6.520
31298SOL     OW95790   1.153   6.270   2.446
31298SOL    HW195791   1.130   6.233   2.531
31298SOL    HW295792   1.160   6.195   2.388
31299SOL     OW95793  10.909   1.248  14.754
31299SOL    HW195794  10.951   1.257  14.840
31299SOL    HW295795  10.840   1.314  14.754
31300SOL     OW95796   9.879   9.477  12.678
31300SOL    HW195797   9.967   9.440  12.679
31300SOL    HW295798   9.863   9.505  12.768
31301SOL     OW95799  13.872   5.091   8.771
31301SOL    HW195800  13.898   5.176   8.737
31301SOL    HW295801  13.779   5.099   8.791
31302SOL     OW95802  13.844  10.278  10.078
31302SOL    HW195803  13.928  10.320  10.094
31302SOL    HW295804  13.779  10.344  10.106
31303SOL     OW95805   5.996  11.162  13.888
31303SOL    HW195806   5.982  11.143  13.981
31303SOL    HW295807   5.915  11.136  13.845
31304SOL     OW95808   6.537   5.843  12.348
31304SOL    HW195809   6.508   5.793  12.424
31304SOL    HW295810   6.514   5.789  12.273
31305SOL     OW95811  10.492  10.709  12.419
31305SOL    HW195812  10.512  10.796  12.452
31305SOL    HW295813  10.480  10.721  12.325
31306SOL     OW95814   0.434   4.587  12.392
31306SOL    HW195815   0.395   4.649  12.455
31306SOL    HW295816   0.425   4.631  12.307
31307SOL     OW95817   6.786   1.756  11.952
31307SOL    HW195818   6.814   1.845  11.972
31307SOL    HW295819   6.691   1.761  11.947
31308SOL     OW95820  10.658   2.531  10.444
31308SOL    HW195821  10.707   2.609  10.467
31308SOL    HW295822  10.567   2.562  10.435
31309SOL     OW95823   2.336  12.053   5.168
31309SOL    HW195824   2.261  12.060   5.227
31309SOL    HW295825   2.342  12.139   5.126
31310SOL     OW95826  13.051  13.807   3.391
31310SOL    HW195827  13.098  13.739   3.344
31310SOL    HW295828  13.080  13.798   3.482
31311SOL     OW95829  14.180   3.455   9.839
31311SOL    HW195830  14.103   3.476   9.786
31311SOL    HW295831  14.253   3.464   9.778
31312SOL     OW95832   3.094   3.154   9.726
31312SOL    HW195833   3.056   3.181   9.642
31312SOL    HW295834   3.019   3.120   9.775
31313SOL     OW95835  14.857  11.150   9.954
31313SOL    HW195836  14.810  11.079   9.998
31313SOL    HW295837  14.795  11.184   9.890
31314SOL     OW95838   3.690  11.976   4.546
31314SOL    HW195839   3.748  11.917   4.596
31314SOL    HW295840   3.747  12.048   4.520
31315SOL     OW95841   5.875  10.521  11.413
31315SOL    HW195842   5.787  10.536  11.379
31315SOL    HW295843   5.861  10.485  11.500
31316SOL     OW95844   2.304   0.445  11.541
31316SOL    HW195845   2.398   0.449  11.525
31316SOL    HW295846   2.266   0.426  11.456
31317SOL     OW95847  11.442  10.749   5.470
31317SOL    HW195848  11.366  10.783   5.517
31317SOL    HW295849  11.498  10.712   5.539
31318SOL     OW95850   5.366  14.793   1.515
31318SOL    HW195851   5.347  14.729   1.447
31318SOL    HW295852   5.456  14.821   1.498
31319SOL     OW95853  10.771   5.096   8.211
31319SOL    HW195854  10.759   5.001   8.208
31319SOL    HW295855  10.841   5.114   8.148
31320SOL     OW95856   6.049   2.230   7.428
31320SOL    HW195857   5.997   2.303   7.394
31320SOL    HW295858   6.053   2.246   7.522
31321SOL     OW95859  11.835   1.982   2.237
31321SOL    HW195860  11.833   2.074   2.211
31321SOL    HW295861  11.865   1.983   2.328
31322SOL     OW95862   3.744   2.555  11.530
31322SOL    HW195863   3.808   2.622  11.554
31322SOL    HW295864   3.693   2.541  11.610
31323SOL     OW95865  14.776   0.133   5.858
31323SOL    HW195866   0.001   0.110   5.850
31323SOL    HW295867  14.774   0.201   5.925
31324SOL     OW95868  12.926   8.907  11.652
31324SOL    HW195869  12.956   8.953  11.573
31324SOL    HW295870  12.846   8.862  11.624
31325SOL     OW95871   4.846   2.911   0.335
31325SOL    HW195872   4.762   2.865   0.337
31325SOL    HW295873   4.867   2.918   0.242
31326SOL     OW95874  13.768   7.754   3.550
31326SOL    HW195875  13.807   7.830   3.592
31326SOL    HW295876  13.725   7.788   3.472
31327SOL     OW95877   2.202  11.890   6.359
31327SOL    HW195878   2.115  11.888   6.319
31327SOL    HW295879   2.259  11.849   6.294
31328SOL     OW95880  13.274   6.290  12.548
31328SOL    HW195881  13.206   6.227  12.525
31328SOL    HW295882  13.230   6.356  12.601
31329SOL     OW95883   6.996  14.685   5.939
31329SOL    HW195884   6.981  14.777   5.920
31329SOL    HW295885   6.984  14.640   5.855
31330SOL     OW95886   8.462  11.080   0.027
31330SOL    HW195887   8.443  11.171   0.005
31330SOL    HW295888   8.391  11.030  14.854
31331SOL     OW95889   0.597   2.960   3.867
31331SOL    HW195890   0.655   3.000   3.802
31331SOL    HW295891   0.644   2.971   3.950
31332SOL     OW95892   2.339  13.804   5.898
31332SOL    HW195893   2.395  13.786   5.974
31332SOL    HW295894   2.309  13.718   5.870
31333SOL     OW95895  11.148  12.040   1.355
31333SOL    HW195896  11.211  12.070   1.420
31333SOL    HW295897  11.141  12.112   1.293
31334SOL     OW95898   2.887   4.726   5.191
31334SOL    HW195899   2.894   4.665   5.117
31334SOL    HW295900   2.876   4.670   5.268
31335SOL     OW95901   7.923   1.284   3.474
31335SOL    HW195902   7.927   1.305   3.381
31335SOL    HW295903   8.002   1.234   3.491
31336SOL     OW95904   2.578   4.155   7.402
31336SOL    HW195905   2.648   4.106   7.359
31336SOL    HW295906   2.500   4.101   7.392
31337SOL     OW95907   2.579   7.904   2.744
31337SOL    HW195908   2.653   7.863   2.788
31337SOL    HW295909   2.608   7.913   2.653
31338SOL     OW95910   6.384  12.804  11.378
31338SOL    HW195911   6.306  12.748  11.374
31338SOL    HW295912   6.457  12.743  11.379
31339SOL     OW95913   3.633   4.275   9.075
31339SOL    HW195914   3.709   4.290   9.132
31339SOL    HW295915   3.617   4.359   9.033
31340SOL     OW95916   2.446   9.832   6.432
31340SOL    HW195917   2.357   9.841   6.467
31340SOL    HW295918   2.458   9.738   6.422
31341SOL     OW95919   0.842   0.749  13.249
31341SOL    HW195920   0.752   0.779  13.247
31341SOL    HW295921   0.892   0.819  13.206
31342SOL     OW95922   0.290   9.747   1.550
31342SOL    HW195923   0.206   9.771   1.511
31342SOL    HW295924   0.348   9.731   1.475
31343SOL     OW95925   2.013   4.965   0.381
31343SOL    HW195926   1.957   5.037   0.409
31343SOL    HW295927   1.956   4.888   0.380
31344SOL     OW95928   9.835  11.716   4.007
31344SOL    HW195929   9.822  11.712   3.912
31344SOL    HW295930   9.904  11.653   4.025
31345SOL     OW95931   9.954   9.616   6.657
31345SOL    HW195932   9.895   9.602   6.731
31345SOL    HW295933  10.025   9.670   6.693
31346SOL     OW95934  13.075   8.034   8.407
31346SOL    HW195935  13.091   8.020   8.313
31346SOL    HW295936  13.140   8.099   8.432
31347SOL     OW95937   1.795   2.514   1.392
31347SOL    HW195938   1.867   2.525   1.454
31347SOL    HW295939   1.819   2.437   1.340
31348SOL     OW95940   3.510   0.535   9.501
31348SOL    HW195941   3.589   0.579   9.531
31348SOL    HW295942   3.441   0.600   9.510
31349SOL     OW95943   3.353   1.971   3.422
31349SOL    HW195944   3.365   2.049   3.475
31349SOL    HW295945   3.259   1.970   3.402
31350SOL     OW95946   2.977  13.990  12.938
31350SOL    HW195947   3.005  13.913  12.987
31350SOL    HW295948   2.954  14.054  13.005
31351SOL     OW95949   7.721   2.755   0.386
31351SOL    HW195950   7.637   2.751   0.430
31351SOL    HW295951   7.722   2.840   0.342
31352SOL     OW95952  14.635  14.790   9.093
31352SOL    HW195953  14.692  14.851   9.046
31352SOL    HW295954  14.664  14.795   9.184
31353SOL     OW95955   5.852   2.195   4.288
31353SOL    HW195956   5.767   2.240   4.289
31353SOL    HW295957   5.829   2.102   4.279
31354SOL     OW95958   3.848   6.174   1.599
31354SOL    HW195959   3.851   6.183   1.504
31354SOL    HW295960   3.806   6.090   1.614
31355SOL     OW95961  14.737   8.216  12.267
31355SOL    HW195962  14.680   8.282  12.225
31355SOL    HW295963  14.683   8.179  12.336
31356SOL     OW95964  12.441   8.833   6.522
31356SOL    HW195965  12.504   8.800   6.586
31356SOL    HW295966  12.494   8.881   6.458
31357SOL     OW95967   2.538  14.649   2.682
31357SOL    HW195968   2.592  14.584   2.727
31357SOL    HW295969   2.592  14.677   2.608
31358SOL     OW95970   5.225   5.633   6.591
31358SOL    HW195971   5.200   5.573   6.521
31358SOL    HW295972   5.317   5.653   6.574
31359SOL     OW95973  14.598  11.032   8.882
31359SOL    HW195974  14.611  11.122   8.852
31359SOL    HW295975  14.549  11.041   8.965
31360SOL     OW95976   4.224   0.313   0.747
31360SOL    HW195977   4.191   0.313   0.657
31360SOL    HW295978   4.265   0.399   0.757
31361SOL     OW95979  13.684  10.212  13.417
31361SOL    HW195980  13.763  10.159  13.428
31361SOL    HW295981  13.688  10.245  13.328
31362SOL     OW95982   6.272   1.216   7.340
31362SOL    HW195983   6.197   1.201   7.397
31362SOL    HW295984   6.348   1.200   7.396
31363SOL     OW95985  10.626   0.991  12.345
31363SOL    HW195986  10.611   0.902  12.313
31363SOL    HW295987  10.685   1.030  12.281
31364SOL     OW95988  10.570   6.898   3.336
31364SOL    HW195989  10.623   6.912   3.257
31364SOL    HW295990  10.577   6.804   3.353
31365SOL     OW95991   0.224   1.496   1.636
31365SOL    HW195992   0.181   1.504   1.551
31365SOL    HW295993   0.306   1.452   1.618
31366SOL     OW95994   5.646  14.141   3.269
31366SOL    HW195995   5.555  14.168   3.256
31366SOL    HW295996   5.663  14.079   3.199
31367SOL     OW95997   7.656   5.239   6.066
31367SOL    HW195998   7.618   5.301   6.127
31367SOL    HW295999   7.639   5.276   5.979
31368SOL     OW96000   2.714   2.953   6.750
31368SOL    HW196001   2.628   2.994   6.741
31368SOL    HW296002   2.738   2.967   6.841
31369SOL     OW96003   9.043  12.398   5.702
31369SOL    HW196004   9.084  12.433   5.624
31369SOL    HW296005   9.114  12.387   5.765
31370SOL     OW96006   2.135  11.483  14.492
31370SOL    HW196007   2.116  11.570  14.455
31370SOL    HW296008   2.227  11.468  14.472
31371SOL     OW96009   4.199   4.170   7.674
31371SOL    HW196010   4.121   4.154   7.622
31371SOL    HW296011   4.272   4.149   7.616
31372SOL     OW96012   0.810   8.947   9.671
31372SOL    HW196013   0.816   8.855   9.645
31372SOL    HW296014   0.721   8.973   9.645
31373SOL     OW96015  12.124   3.576   7.319
31373SOL    HW196016  12.153   3.667   7.331
31373SOL    HW296017  12.147   3.556   7.229
31374SOL     OW96018   2.773   9.534   5.658
31374SOL    HW196019   2.807   9.447   5.678
31374SOL    HW296020   2.763   9.576   5.744
31375SOL     OW96021   7.353  13.136   1.702
31375SOL    HW196022   7.375  13.229   1.710
31375SOL    HW296023   7.422  13.090   1.748
31376SOL     OW96024  11.678  11.708  12.539
31376SOL    HW196025  11.666  11.795  12.501
31376SOL    HW296026  11.589  11.675  12.552
31377SOL     OW96027   8.440   5.850   3.283
31377SOL    HW196028   8.360   5.801   3.303
31377SOL    HW296029   8.476   5.873   3.368
31378SOL     OW96030  11.585   7.944   2.182
31378SOL    HW196031  11.609   7.928   2.274
31378SOL    HW296032  11.631   8.025   2.159
31379SOL     OW96033   9.758   8.715   8.757
31379SOL    HW196034   9.740   8.690   8.666
31379SOL    HW296035   9.691   8.779   8.778
31380SOL     OW96036  10.413   2.333  11.756
31380SOL    HW196037  10.414   2.241  11.731
31380SOL    HW296038  10.385   2.332  11.848
31381SOL     OW96039   0.542   2.151   8.055
31381SOL    HW196040   0.501   2.211   7.993
31381SOL    HW296041   0.478   2.081   8.068
31382SOL     OW96042   7.526  11.878  11.942
31382SOL    HW196043   7.470  11.801  11.950
31382SOL    HW296044   7.497  11.920  11.861
31383SOL     OW96045  12.621   9.676  13.965
31383SOL    HW196046  12.587   9.604  14.018
31383SOL    HW296047  12.617   9.644  13.875
31384SOL     OW96048   1.169   1.380   1.217
31384SOL    HW196049   1.227   1.438   1.167
31384SOL    HW296050   1.116   1.337   1.150
31385SOL     OW96051   0.423   8.844   1.726
31385SOL    HW196052   0.495   8.896   1.762
31385SOL    HW296053   0.385   8.800   1.802
31386SOL     OW96054   7.515   0.429   4.609
31386SOL    HW196055   7.566   0.354   4.579
31386SOL    HW296056   7.545   0.446   4.698
31387SOL     OW96057   7.128   8.230  10.212
31387SOL    HW196058   7.167   8.162  10.267
31387SOL    HW296059   7.061   8.270  10.267
31388SOL     OW96060   1.461   8.966   5.223
31388SOL    HW196061   1.508   9.008   5.151
31388SOL    HW296062   1.452   8.875   5.195
31389SOL     OW96063  14.502   1.668   9.588
31389SOL    HW196064  14.566   1.639   9.522
31389SOL    HW296065  14.467   1.750   9.553
31390SOL     OW96066   4.994  11.325   3.244
31390SOL    HW196067   4.952  11.258   3.189
31390SOL    HW296068   5.016  11.279   3.324
31391SOL     OW96069   6.216   9.551  13.588
31391SOL    HW196070   6.145   9.596  13.543
31391SOL    HW296071   6.225   9.598  13.671
31392SOL     OW96072   0.915   9.845   3.024
31392SOL    HW196073   0.823   9.840   3.050
31392SOL    HW296074   0.936   9.757   2.992
31393SOL     OW96075   9.343  14.427   5.814
31393SOL    HW196076   9.288  14.504   5.824
31393SOL    HW296077   9.282  14.353   5.824
31394SOL     OW96078   3.565   1.391  10.104
31394SOL    HW196079   3.569   1.486  10.087
31394SOL    HW296080   3.656   1.367  10.122
31395SOL     OW96081   4.897   4.178   5.731
31395SOL    HW196082   4.851   4.193   5.814
31395SOL    HW296083   4.838   4.214   5.664
31396SOL     OW96084  12.858   0.760   9.326
31396SOL    HW196085  12.846   0.772   9.232
31396SOL    HW296086  12.922   0.826   9.351
31397SOL     OW96087  14.457  10.049   5.762
31397SOL    HW196088  14.472  10.137   5.797
31397SOL    HW296089  14.502   9.991   5.823
31398SOL     OW96090  10.355   4.348   5.674
31398SOL    HW196091  10.307   4.386   5.601
31398SOL    HW296092  10.295   4.281   5.709
31399SOL     OW96093   3.218   3.419   9.076
31399SOL    HW196094   3.228   3.512   9.098
31399SOL    HW296095   3.294   3.377   9.116
31400SOL     OW96096  11.589   3.869   7.071
31400SOL    HW196097  11.660   3.809   7.049
31400SOL    HW296098  11.628   3.956   7.065
31401SOL     OW96099   4.937   0.208   9.186
31401SOL    HW196100   5.017   0.210   9.133
31401SOL    HW296101   4.930   0.296   9.223
31402SOL     OW96102   0.787  11.522  14.601
31402SOL    HW196103   0.804  11.616  14.609
31402SOL    HW296104   0.863  11.480  14.641
31403SOL     OW96105   7.957   0.822   8.659
31403SOL    HW196106   7.952   0.851   8.750
31403SOL    HW296107   7.904   0.743   8.655
31404SOL     OW96108   4.293   9.183  10.686
31404SOL    HW196109   4.292   9.256  10.747
31404SOL    HW296110   4.297   9.105  10.741
31405SOL     OW96111   8.881   0.313   7.247
31405SOL    HW196112   8.888   0.220   7.267
31405SOL    HW296113   8.787   0.331   7.245
31406SOL     OW96114   1.579   6.271  14.637
31406SOL    HW196115   1.615   6.324  14.566
31406SOL    HW296116   1.539   6.196  14.593
31407SOL     OW96117   9.574  14.682  10.330
31407SOL    HW196118   9.634  14.733  10.385
31407SOL    HW296119   9.495  14.672  10.384
31408SOL     OW96120   3.505   4.338   4.395
31408SOL    HW196121   3.553   4.298   4.468
31408SOL    HW296122   3.502   4.431   4.416
31409SOL     OW96123  13.722  11.044   9.237
31409SOL    HW196124  13.761  11.033   9.150
31409SOL    HW296125  13.633  11.011   9.228
31410SOL     OW96126   4.088   8.468  12.730
31410SOL    HW196127   4.149   8.398  12.752
31410SOL    HW296128   4.141   8.548  12.731
31411SOL     OW96129   8.233   4.707   7.426
31411SOL    HW196130   8.296   4.644   7.392
31411SOL    HW296131   8.185   4.736   7.348
31412SOL     OW96132   2.562   5.469  11.148
31412SOL    HW196133   2.525   5.547  11.107
31412SOL    HW296134   2.631   5.441  11.087
31413SOL     OW96135   0.074   0.787   0.468
31413SOL    HW196136   0.164   0.759   0.451
31413SOL    HW296137   0.026   0.758   0.391
31414SOL     OW96138  14.753  13.074  10.107
31414SOL    HW196139  14.703  13.055  10.187
31414SOL    HW296140  14.692  13.123  10.052
31415SOL     OW96141   6.845   5.486   2.207
31415SOL    HW196142   6.913   5.543   2.173
31415SOL    HW296143   6.766   5.540   2.207
31416SOL     OW96144   3.467   4.187  11.307
31416SOL    HW196145   3.485   4.196  11.213
31416SOL    HW296146   3.531   4.123  11.337
31417SOL     OW96147  12.035   4.827  14.419
31417SOL    HW196148  12.105   4.880  14.380
31417SOL    HW296149  12.064   4.737  14.406
31418SOL     OW96150   4.646   2.087   8.517
31418SOL    HW196151   4.669   2.007   8.564
31418SOL    HW296152   4.622   2.149   8.586
31419SOL     OW96153   1.246   4.137   5.463
31419SOL    HW196154   1.230   4.195   5.537
31419SOL    HW296155   1.202   4.055   5.487
31420SOL     OW96156  14.514   4.221   2.077
31420SOL    HW196157  14.431   4.261   2.051
31420SOL    HW296158  14.518   4.139   2.027
31421SOL     OW96159  11.250   4.666   6.093
31421SOL    HW196160  11.298   4.688   6.013
31421SOL    HW296161  11.257   4.744   6.148
31422SOL     OW96162  10.069   1.739   5.502
31422SOL    HW196163  10.136   1.748   5.435
31422SOL    HW296164   9.998   1.691   5.459
31423SOL     OW96165   7.278  14.570   5.553
31423SOL    HW196166   7.301  14.484   5.516
31423SOL    HW296167   7.285  14.630   5.478
31424SOL     OW96168   8.714   5.571   9.525
31424SOL    HW196169   8.643   5.578   9.588
31424SOL    HW296170   8.779   5.634   9.557
31425SOL     OW96171   2.280   7.236   2.162
31425SOL    HW196172   2.321   7.175   2.101
31425SOL    HW296173   2.188   7.237   2.136
31426SOL     OW96174   4.314   1.215   2.879
31426SOL    HW196175   4.304   1.230   2.785
31426SOL    HW296176   4.290   1.123   2.891
31427SOL     OW96177   8.563  14.347   0.151
31427SOL    HW196178   8.543  14.290   0.225
31427SOL    HW296179   8.633  14.302   0.104
31428SOL     OW96180   1.062   1.408   9.610
31428SOL    HW196181   1.059   1.315   9.585
31428SOL    HW296182   1.069   1.406   9.705
31429SOL     OW96183  10.841   4.568   8.195
31429SOL    HW196184  10.800   4.521   8.267
31429SOL    HW296185  10.768   4.609   8.149
31430SOL     OW96186   7.231   5.744   8.702
31430SOL    HW196187   7.298   5.743   8.633
31430SOL    HW296188   7.195   5.832   8.700
31431SOL     OW96189   7.415   2.890   6.255
31431SOL    HW196190   7.363   2.825   6.208
31431SOL    HW296191   7.357   2.966   6.263
31432SOL     OW96192  14.763  14.236   7.867
31432SOL    HW196193  14.725  14.278   7.944
31432SOL    HW296194  14.706  14.262   7.795
31433SOL     OW96195  11.241  13.714   2.167
31433SOL    HW196196  11.284  13.797   2.145
31433SOL    HW296197  11.314  13.653   2.177
31434SOL     OW96198   8.290   3.596   8.293
31434SOL    HW196199   8.334   3.549   8.364
31434SOL    HW296200   8.211   3.545   8.277
31435SOL     OW96201   0.716   8.384  10.393
31435SOL    HW196202   0.772   8.407  10.319
31435SOL    HW296203   0.627   8.383  10.357
31436SOL     OW96204  10.643  11.279   7.354
31436SOL    HW196205  10.691  11.284   7.436
31436SOL    HW296206  10.557  11.247   7.378
31437SOL     OW96207   4.090   3.960   1.099
31437SOL    HW196208   4.091   3.915   1.184
31437SOL    HW296209   4.173   4.008   1.096
31438SOL     OW96210   5.899  10.523   1.022
31438SOL    HW196211   5.873  10.594   1.081
31438SOL    HW296212   5.817  10.479   1.000
31439SOL     OW96213   4.505  11.492   7.838
31439SOL    HW196214   4.523  11.578   7.875
31439SOL    HW296215   4.567  11.483   7.766
31440SOL     OW96216   3.253   8.426   6.463
31440SOL    HW196217   3.162   8.454   6.470
31440SOL    HW296218   3.283   8.419   6.553
31441SOL     OW96219   1.757   7.056   3.164
31441SOL    HW196220   1.778   7.147   3.186
31441SOL    HW296221   1.757   7.010   3.248
31442SOL     OW96222  13.765  12.458   0.860
31442SOL    HW196223  13.798  12.417   0.940
31442SOL    HW296224  13.779  12.552   0.874
31443SOL     OW96225   8.048  13.368  10.785
31443SOL    HW196226   8.066  13.425  10.711
31443SOL    HW296227   8.019  13.286  10.745
31444SOL     OW96228   1.270   5.740   0.659
31444SOL    HW196229   1.217   5.758   0.581
31444SOL    HW296230   1.241   5.653   0.687
31445SOL     OW96231   3.114   2.276   8.143
31445SOL    HW196232   3.184   2.309   8.087
31445SOL    HW296233   3.143   2.189   8.169
31446SOL     OW96234   5.270  12.038  11.380
31446SOL    HW196235   5.246  11.962  11.327
31446SOL    HW296236   5.257  12.113  11.322
31447SOL     OW96237   7.063  14.176   5.375
31447SOL    HW196238   6.968  14.160   5.377
31447SOL    HW296239   7.081  14.221   5.457
31448SOL     OW96240   3.293   7.697   8.084
31448SOL    HW196241   3.367   7.718   8.141
31448SOL    HW296242   3.323   7.622   8.032
31449SOL     OW96243  11.260  13.720  13.180
31449SOL    HW196244  11.305  13.647  13.138
31449SOL    HW296245  11.254  13.787  13.112
31450SOL     OW96246   5.512   3.774   0.173
31450SOL    HW196247   5.607   3.781   0.169
31450SOL    HW296248   5.488   3.728   0.092
31451SOL     OW96249  11.846  14.615   4.295
31451SOL    HW196250  11.847  14.657   4.381
31451SOL    HW296251  11.923  14.649   4.251
31452SOL     OW96252  13.141   9.409  13.996
31452SOL    HW196253  13.160   9.483  13.938
31452SOL    HW296254  13.216   9.407  14.056
31453SOL     OW96255  12.821   7.185   1.800
31453SOL    HW196256  12.907   7.183   1.842
31453SOL    HW296257  12.838   7.163   1.709
31454SOL     OW96258   6.983   1.870   2.646
31454SOL    HW196259   6.939   1.809   2.588
31454SOL    HW296260   6.912   1.912   2.695
31455SOL     OW96261   0.308   8.933   5.523
31455SOL    HW196262   0.324   9.002   5.587
31455SOL    HW296263   0.301   8.853   5.575
31456SOL     OW96264   0.928   0.226   3.491
31456SOL    HW196265   0.904   0.253   3.402
31456SOL    HW296266   0.970   0.302   3.529
31457SOL     OW96267  11.492  11.435   7.048
31457SOL    HW196268  11.408  11.411   7.086
31457SOL    HW296269  11.499  11.530   7.062
31458SOL     OW96270  13.147  10.210   7.270
31458SOL    HW196271  13.113  10.278   7.327
31458SOL    HW296272  13.228  10.246   7.234
31459SOL     OW96273   3.803   8.115   8.293
31459SOL    HW196274   3.754   8.109   8.375
31459SOL    HW296275   3.773   8.039   8.242
31460SOL     OW96276  10.571  13.512  10.089
31460SOL    HW196277  10.551  13.485  10.178
31460SOL    HW296278  10.664  13.493  10.078
31461SOL     OW96279   6.533   5.578  14.084
31461SOL    HW196280   6.494   5.569  13.997
31461SOL    HW296281   6.486   5.515  14.138
31462SOL     OW96282   2.512   5.544   2.956
31462SOL    HW196283   2.493   5.579   2.869
31462SOL    HW296284   2.608   5.544   2.962
31463SOL     OW96285   8.209   8.443  11.026
31463SOL    HW196286   8.229   8.350  11.041
31463SOL    HW296287   8.162   8.444  10.942
31464SOL     OW96288  13.939   7.194   5.354
31464SOL    HW196289  13.976   7.156   5.275
31464SOL    HW296290  13.953   7.288   5.344
31465SOL     OW96291  12.089  13.384   6.719
31465SOL    HW196292  12.085  13.289   6.728
31465SOL    HW296293  12.180  13.403   6.699
31466SOL     OW96294   3.817   3.245   8.935
31466SOL    HW196295   3.803   3.318   8.875
31466SOL    HW296296   3.730   3.207   8.947
31467SOL     OW96297  12.666   5.184   5.041
31467SOL    HW196298  12.612   5.136   5.104
31467SOL    HW296299  12.607   5.251   5.005
31468SOL     OW96300  12.964   0.018   9.340
31468SOL    HW196301  12.944  14.794   9.357
31468SOL    HW296302  12.887   0.051   9.293
31469SOL     OW96303   3.864  11.283  14.692
31469SOL    HW196304   3.808  11.354  14.725
31469SOL    HW296305   3.938  11.281  14.754
31470SOL     OW96306   6.644  10.353  11.147
31470SOL    HW196307   6.644  10.305  11.064
31470SOL    HW296308   6.586  10.302  11.204
31471SOL     OW96309  12.957  10.067   8.718
31471SOL    HW196310  12.970  10.030   8.805
31471SOL    HW296311  12.868  10.042   8.695
31472SOL     OW96312  12.265  13.898   0.749
31472SOL    HW196313  12.171  13.910   0.737
31472SOL    HW296314  12.282  13.809   0.717
31473SOL     OW96315   8.495   3.902   3.828
31473SOL    HW196316   8.433   3.850   3.777
31473SOL    HW296317   8.453   3.987   3.838
31474SOL     OW96318  14.265   7.558   0.219
31474SOL    HW196319  14.177   7.525   0.237
31474SOL    HW296320  14.319   7.522   0.289
31475SOL     OW96321   6.113   3.132   4.566
31475SOL    HW196322   6.193   3.088   4.595
31475SOL    HW296323   6.044   3.067   4.581
31476SOL     OW96324  11.195   8.688   0.278
31476SOL    HW196325  11.197   8.592   0.283
31476SOL    HW296326  11.269   8.710   0.221
31477SOL     OW96327   9.859   2.771  11.264
31477SOL    HW196328   9.849   2.766  11.169
31477SOL    HW296329   9.897   2.687  11.288
31478SOL     OW96330   7.087  11.398  12.738
31478SOL    HW196331   7.088  11.461  12.665
31478SOL    HW296332   7.172  11.410  12.781
31479SOL     OW96333   3.311   9.072  10.458
31479SOL    HW196334   3.274   9.160  10.450
31479SOL    HW296335   3.361   9.074  10.540
31480SOL     OW96336   5.822  11.057   5.041
31480SOL    HW196337   5.883  11.038   5.112
31480SOL    HW296338   5.830  10.982   4.982
31481SOL     OW96339  12.180   4.607   1.358
31481SOL    HW196340  12.118   4.677   1.335
31481SOL    HW296341  12.189   4.614   1.453
31482SOL     OW96342   3.449  13.250   2.261
31482SOL    HW196343   3.398  13.191   2.317
31482SOL    HW296344   3.422  13.227   2.172
31483SOL     OW96345   5.062  12.953   5.366
31483SOL    HW196346   4.983  13.007   5.375
31483SOL    HW296347   5.061  12.897   5.444
31484SOL     OW96348   3.204  12.865   2.791
31484SOL    HW196349   3.232  12.818   2.870
31484SOL    HW296350   3.157  12.941   2.825
31485SOL     OW96351   7.479  12.018  11.706
31485SOL    HW196352   7.411  12.046  11.644
31485SOL    HW296353   7.540  12.092  11.710
31486SOL     OW96354  11.136   8.766  13.887
31486SOL    HW196355  11.123   8.754  13.793
31486SOL    HW296356  11.054   8.737  13.927
31487SOL     OW96357  10.412   9.394  13.760
31487SOL    HW196358  10.392   9.459  13.692
31487SOL    HW296359  10.326   9.360  13.786
31488SOL     OW96360  14.638  11.166   9.224
31488SOL    HW196361  14.637  11.261   9.224
31488SOL    HW296362  14.566  11.141   9.283
31489SOL     OW96363   6.798  11.118  13.855
31489SOL    HW196364   6.824  11.167  13.777
31489SOL    HW296365   6.747  11.181  13.907
31490SOL     OW96366   2.907  10.182   1.603
31490SOL    HW196367   2.820  10.217   1.621
31490SOL    HW296368   2.956  10.257   1.568
31491SOL     OW96369   4.346   5.397  13.298
31491SOL    HW196370   4.277   5.343  13.337
31491SOL    HW296371   4.417   5.335  13.281
31492SOL     OW96372   1.683   7.884   2.822
31492SOL    HW196373   1.620   7.815   2.799
31492SOL    HW296374   1.765   7.856   2.781
31493SOL     OW96375   8.798   0.014   3.077
31493SOL    HW196376   8.733   0.081   3.098
31493SOL    HW296377   8.758  14.799   3.106
31494SOL     OW96378   0.829  11.221   9.839
31494SOL    HW196379   0.865  11.159   9.902
31494SOL    HW296380   0.903  11.242   9.782
31495SOL     OW96381   8.330   9.552   3.231
31495SOL    HW196382   8.390   9.478   3.243
31495SOL    HW296383   8.258   9.516   3.179
31496SOL     OW96384   9.984  11.836   1.759
31496SOL    HW196385   9.931  11.905   1.721
31496SOL    HW296386  10.002  11.776   1.687
31497SOL     OW96387   9.414   4.229   5.104
31497SOL    HW196388   9.503   4.220   5.139
31497SOL    HW296389   9.427   4.249   5.011
31498SOL     OW96390   6.379   4.450   4.049
31498SOL    HW196391   6.307   4.501   4.087
31498SOL    HW296392   6.337   4.374   4.009
31499SOL     OW96393   2.833   2.585   0.024
31499SOL    HW196394   2.837   2.560   0.117
31499SOL    HW296395   2.919   2.624   0.006
31500SOL     OW96396   2.461   6.963   8.881
31500SOL    HW196397   2.411   6.882   8.877
31500SOL    HW296398   2.447   6.996   8.970
31501SOL     OW96399   8.577   3.293   3.699
31501SOL    HW196400   8.628   3.372   3.683
31501SOL    HW296401   8.491   3.311   3.661
31502SOL     OW96402   4.531  11.937   8.021
31502SOL    HW196403   4.453  11.882   8.014
31502SOL    HW296404   4.600  11.886   7.979
31503SOL     OW96405  10.939  14.861   0.483
31503SOL    HW196406  11.014  14.810   0.513
31503SOL    HW296407  10.864  14.817   0.524
31504SOL     OW96408   8.727   0.949  10.031
31504SOL    HW196409   8.738   0.887  10.103
31504SOL    HW296410   8.805   0.938   9.978
31505SOL     OW96411   7.508   1.567  12.118
31505SOL    HW196412   7.432   1.626  12.118
31505SOL    HW296413   7.583   1.625  12.104
31506SOL     OW96414  12.454  10.808  10.066
31506SOL    HW196415  12.474  10.875  10.132
31506SOL    HW296416  12.369  10.833  10.030
31507SOL     OW96417   6.243   4.246   3.946
31507SOL    HW196418   6.266   4.183   3.878
31507SOL    HW296419   6.147   4.246   3.948
31508SOL     OW96420   6.291   1.716   7.620
31508SOL    HW196421   6.251   1.793   7.579
31508SOL    HW296422   6.342   1.752   7.693
31509SOL     OW96423   3.135  12.841   8.415
31509SOL    HW196424   3.195  12.910   8.446
31509SOL    HW296425   3.176  12.759   8.444
31510SOL     OW96426   1.621  10.378   4.176
31510SOL    HW196427   1.641  10.289   4.205
31510SOL    HW296428   1.618  10.429   4.257
31511SOL     OW96429   8.569   7.490  12.200
31511SOL    HW196430   8.577   7.419  12.136
31511SOL    HW296431   8.651   7.486  12.250
31512SOL     OW96432   0.798   5.411   8.585
31512SOL    HW196433   0.834   5.357   8.655
31512SOL    HW296434   0.847   5.384   8.507
31513SOL     OW96435   4.251   2.441   9.131
31513SOL    HW196436   4.346   2.435   9.142
31513SOL    HW296437   4.229   2.371   9.069
31514SOL     OW96438   9.067   8.627   0.157
31514SOL    HW196439   9.103   8.629   0.069
31514SOL    HW296440   9.106   8.703   0.201
31515SOL     OW96441   9.490   2.992  14.622
31515SOL    HW196442   9.408   3.009  14.669
31515SOL    HW296443   9.527   2.915  14.665
31516SOL     OW96444  14.408   4.279   1.799
31516SOL    HW196445  14.337   4.259   1.738
31516SOL    HW296446  14.375   4.351   1.852
31517SOL     OW96447   5.486  12.695   2.203
31517SOL    HW196448   5.461  12.780   2.241
31517SOL    HW296449   5.563  12.668   2.254
31518SOL     OW96450  11.642   4.644  12.923
31518SOL    HW196451  11.707   4.687  12.978
31518SOL    HW296452  11.677   4.556  12.910
31519SOL     OW96453   6.214  11.176  12.115
31519SOL    HW196454   6.279  11.129  12.167
31519SOL    HW296455   6.247  11.171  12.025
31520SOL     OW96456   0.212   5.119   0.170
31520SOL    HW196457   0.283   5.060   0.197
31520SOL    HW296458   0.177   5.080   0.090
31521SOL     OW96459   8.743  11.194  11.153
31521SOL    HW196460   8.773  11.281  11.126
31521SOL    HW296461   8.752  11.194  11.248
31522SOL     OW96462   8.001   8.286   5.134
31522SOL    HW196463   8.016   8.375   5.165
31522SOL    HW296464   8.083   8.240   5.152
31523SOL     OW96465   3.347   1.931   9.411
31523SOL    HW196466   3.289   1.928   9.335
31523SOL    HW296467   3.318   1.859   9.467
31524SOL     OW96468   6.556   8.412   7.361
31524SOL    HW196469   6.554   8.333   7.307
31524SOL    HW296470   6.469   8.418   7.399
31525SOL     OW96471   2.199   1.248  11.583
31525SOL    HW196472   2.172   1.193  11.656
31525SOL    HW296473   2.294   1.251  11.588
31526SOL     OW96474   4.324  12.525   9.052
31526SOL    HW196475   4.260  12.478   8.999
31526SOL    HW296476   4.301  12.618   9.041
31527SOL     OW96477   9.064   9.663   6.259
31527SOL    HW196478   8.982   9.614   6.255
31527SOL    HW296479   9.132   9.596   6.265
31528SOL     OW96480   3.811   1.827   0.964
31528SOL    HW196481   3.820   1.918   0.992
31528SOL    HW296482   3.900   1.802   0.936
31529SOL     OW96483   1.489   8.516  11.036
31529SOL    HW196484   1.548   8.533  10.963
31529SOL    HW296485   1.425   8.588  11.032
31530SOL     OW96486  14.001   3.070   3.872
31530SOL    HW196487  14.072   3.012   3.846
31530SOL    HW296488  14.044   3.154   3.891
31531SOL     OW96489   2.877   3.693   7.837
31531SOL    HW196490   2.965   3.700   7.874
31531SOL    HW296491   2.851   3.783   7.820
31532SOL     OW96492  11.051   9.948   1.279
31532SOL    HW196493  11.117   9.909   1.337
31532SOL    HW296494  10.982   9.883   1.273
31533SOL     OW96495   9.164  13.274   1.032
31533SOL    HW196496   9.218  13.293   0.955
31533SOL    HW296497   9.077  13.307   1.009
31534SOL     OW96498   6.856   0.429   1.682
31534SOL    HW196499   6.871   0.524   1.676
31534SOL    HW296500   6.890   0.405   1.768
31535SOL     OW96501   7.349   8.022  10.321
31535SOL    HW196502   7.338   8.027  10.416
31535SOL    HW296503   7.438   7.991  10.308
31536SOL     OW96504  12.694  10.707   8.092
31536SOL    HW196505  12.619  10.713   8.150
31536SOL    HW296506  12.700  10.793   8.051
31537SOL     OW96507   3.698  11.276   8.233
31537SOL    HW196508   3.664  11.307   8.317
31537SOL    HW296509   3.626  11.293   8.171
31538SOL     OW96510   5.778  11.747  10.225
31538SOL    HW196511   5.793  11.775  10.135
31538SOL    HW296512   5.733  11.820  10.267
31539SOL     OW96513   3.447   9.881  10.664
31539SOL    HW196514   3.380   9.944  10.638
31539SOL    HW296515   3.483   9.849  10.581
31540SOL     OW96516   6.849  10.509   8.101
31540SOL    HW196517   6.871  10.473   8.016
31540SOL    HW296518   6.923  10.488   8.157
31541SOL     OW96519  10.683  13.336   5.125
31541SOL    HW196520  10.622  13.274   5.165
31541SOL    HW296521  10.643  13.422   5.139
31542SOL     OW96522  14.123  10.152   6.596
31542SOL    HW196523  14.082  10.237   6.582
31542SOL    HW296524  14.169  10.162   6.680
31543SOL     OW96525  12.705   2.229   9.441
31543SOL    HW196526  12.653   2.205   9.364
31543SOL    HW296527  12.768   2.158   9.451
31544SOL     OW96528   5.320   3.927   4.077
31544SOL    HW196529   5.294   3.923   4.169
31544SOL    HW296530   5.269   3.859   4.034
31545SOL     OW96531  12.706   7.813   9.922
31545SOL    HW196532  12.631   7.757   9.942
31545SOL    HW296533  12.779   7.753   9.909
31546SOL     OW96534   9.739   7.975   5.997
31546SOL    HW196535   9.830   7.945   5.998
31546SOL    HW296536   9.740   8.056   6.049
31547SOL     OW96537   7.365   3.017  10.085
31547SOL    HW196538   7.441   3.042  10.033
31547SOL    HW296539   7.290   3.045  10.033
31548SOL     OW96540  14.101   1.025   5.551
31548SOL    HW196541  14.069   1.053   5.465
31548SOL    HW296542  14.077   0.932   5.556
31549SOL     OW96543   4.558  12.678  14.011
31549SOL    HW196544   4.543  12.773  14.009
31549SOL    HW296545   4.598  12.662  14.097
31550SOL     OW96546   4.927   7.080   0.596
31550SOL    HW196547   4.900   7.016   0.530
31550SOL    HW296548   4.934   7.030   0.677
31551SOL     OW96549  10.934   6.947   8.516
31551SOL    HW196550  10.969   7.023   8.562
31551SOL    HW296551  10.897   6.982   8.435
31552SOL     OW96552   9.708   8.508   9.625
31552SOL    HW196553   9.639   8.493   9.690
31552SOL    HW296554   9.674   8.577   9.569
31553SOL     OW96555   0.709   4.739   8.136
31553SOL    HW196556   0.731   4.769   8.224
31553SOL    HW296557   0.638   4.797   8.108
31554SOL     OW96558   6.904   7.040   6.850
31554SOL    HW196559   6.945   6.955   6.863
31554SOL    HW296560   6.974   7.104   6.863
31555SOL     OW96561  14.001   7.794  12.621
31555SOL    HW196562  13.975   7.828  12.536
31555SOL    HW296563  13.930   7.817  12.680
31556SOL     OW96564  12.872  10.054  13.750
31556SOL    HW196565  12.917   9.971  13.769
31556SOL    HW296566  12.790  10.048  13.799
31557SOL     OW96567   5.098   5.374  12.525
31557SOL    HW196568   5.088   5.468  12.509
31557SOL    HW296569   5.093   5.334  12.438
31558SOL     OW96570   7.977   6.574   1.332
31558SOL    HW196571   7.886   6.548   1.344
31558SOL    HW296572   8.025   6.491   1.327
31559SOL     OW96573   7.986  14.158  11.130
31559SOL    HW196574   8.078  14.136  11.115
31559SOL    HW296575   7.975  14.151  11.225
31560SOL     OW96576   5.853   5.085  11.045
31560SOL    HW196577   5.819   5.038  11.121
31560SOL    HW296578   5.827   5.176  11.060
31561SOL     OW96579   7.205   1.120   0.952
31561SOL    HW196580   7.223   1.200   1.001
31561SOL    HW296581   7.110   1.119   0.941
31562SOL     OW96582   6.978  10.169   4.447
31562SOL    HW196583   7.070  10.150   4.426
31562SOL    HW296584   6.945  10.087   4.484
31563SOL     OW96585   6.038   9.653  11.507
31563SOL    HW196586   6.122   9.668  11.464
31563SOL    HW296587   6.062   9.624  11.596
31564SOL     OW96588   4.945  11.317   4.570
31564SOL    HW196589   4.868  11.263   4.582
31564SOL    HW296590   5.019  11.257   4.576
31565SOL     OW96591   2.173  13.320   9.050
31565SOL    HW196592   2.105  13.289   9.110
31565SOL    HW296593   2.136  13.303   8.963
31566SOL     OW96594   4.806   6.444   9.516
31566SOL    HW196595   4.895   6.461   9.546
31566SOL    HW296596   4.799   6.348   9.517
31567SOL     OW96597   6.861   0.637   9.598
31567SOL    HW196598   6.893   0.723   9.573
31567SOL    HW296599   6.862   0.638   9.694
31568SOL     OW96600   2.257   2.381   4.319
31568SOL    HW196601   2.201   2.421   4.253
31568SOL    HW296602   2.259   2.289   4.296
31569SOL     OW96603   4.468   7.568   7.752
31569SOL    HW196604   4.532   7.594   7.818
31569SOL    HW296605   4.477   7.633   7.682
31570SOL     OW96606   8.601   6.331   3.711
31570SOL    HW196607   8.544   6.257   3.732
31570SOL    HW296608   8.660   6.339   3.786
31571SOL     OW96609   9.686  12.549   4.240
31571SOL    HW196610   9.680  12.464   4.283
31571SOL    HW296611   9.626  12.606   4.289
31572SOL     OW96612   7.148  11.614   6.288
31572SOL    HW196613   7.089  11.687   6.307
31572SOL    HW296614   7.189  11.593   6.372
31573SOL     OW96615   6.984   8.909   9.826
31573SOL    HW196616   7.047   8.855   9.873
31573SOL    HW296617   6.956   8.854   9.752
31574SOL     OW96618  10.377   6.698   8.406
31574SOL    HW196619  10.371   6.760   8.333
31574SOL    HW296620  10.318   6.734   8.473
31575SOL     OW96621   1.478   2.563  10.257
31575SOL    HW196622   1.495   2.652  10.225
31575SOL    HW296623   1.565   2.529  10.281
31576SOL     OW96624   8.816   7.930  10.675
31576SOL    HW196625   8.821   7.937  10.579
31576SOL    HW296626   8.728   7.963  10.696
31577SOL     OW96627   9.379   1.750   8.208
31577SOL    HW196628   9.329   1.831   8.210
31577SOL    HW296629   9.417   1.747   8.119
31578SOL     OW96630   3.337  13.570   5.041
31578SOL    HW196631   3.405  13.503   5.032
31578SOL    HW296632   3.283  13.539   5.114
31579SOL     OW96633  13.729   3.077   9.891
31579SOL    HW196634  13.733   3.153   9.833
31579SOL    HW296635  13.820   3.053   9.906
31580SOL     OW96636   2.230   9.388   0.660
31580SOL    HW196637   2.153   9.431   0.623
31580SOL    HW296638   2.304   9.431   0.617
31581SOL     OW96639   4.357   2.736  13.365
31581SOL    HW196640   4.408   2.766  13.290
31581SOL    HW296641   4.291   2.678  13.328
31582SOL     OW96642   3.927  13.631   6.196
31582SOL    HW196643   3.953  13.543   6.169
31582SOL    HW296644   3.993  13.689   6.157
31583SOL     OW96645   7.687   6.192   8.970
31583SOL    HW196646   7.604   6.166   9.011
31583SOL    HW296647   7.730   6.108   8.952
31584SOL     OW96648  10.227   3.813   6.526
31584SOL    HW196649  10.213   3.853   6.440
31584SOL    HW296650  10.140   3.810   6.565
31585SOL     OW96651   7.895  10.713  13.341
31585SOL    HW196652   7.812  10.667  13.332
31585SOL    HW296653   7.888  10.787  13.280
31586SOL     OW96654  13.029  10.215   4.104
31586SOL    HW196655  13.105  10.165   4.134
31586SOL    HW296656  12.954  10.162   4.130
31587SOL     OW96657   3.725   5.255   6.065
31587SOL    HW196658   3.652   5.317   6.066
31587SOL    HW296659   3.803   5.311   6.064
31588SOL     OW96660   9.072  14.784  11.344
31588SOL    HW196661   9.021  14.865  11.342
31588SOL    HW296662   9.089  14.764  11.252
31589SOL     OW96663   5.767   1.129  12.472
31589SOL    HW196664   5.747   1.160  12.384
31589SOL    HW296665   5.827   1.056  12.458
31590SOL     OW96666   9.560   1.686   0.899
31590SOL    HW196667   9.491   1.729   0.849
31590SOL    HW296668   9.513   1.629   0.960
31591SOL     OW96669   3.199   8.174   9.485
31591SOL    HW196670   3.210   8.084   9.454
31591SOL    HW296671   3.240   8.175   9.572
31592SOL     OW96672   4.690  12.193   1.561
31592SOL    HW196673   4.638  12.152   1.631
31592SOL    HW296674   4.730  12.119   1.516
31593SOL     OW96675   8.366  13.463  13.444
31593SOL    HW196676   8.282  13.420  13.461
31593SOL    HW296677   8.355  13.552  13.477
31594SOL     OW96678  10.985  11.117   2.584
31594SOL    HW196679  11.081  11.113   2.582
31594SOL    HW296680  10.965  11.208   2.605
31595SOL     OW96681  11.971   2.680   2.077
31595SOL    HW196682  11.880   2.683   2.049
31595SOL    HW296683  12.018   2.732   2.012
31596SOL     OW96684   3.373  11.801   2.483
31596SOL    HW196685   3.367  11.866   2.413
31596SOL    HW296686   3.460  11.762   2.471
31597SOL     OW96687   6.352   5.857  13.489
31597SOL    HW196688   6.437   5.901  13.495
31597SOL    HW296689   6.319   5.882  13.403
31598SOL     OW96690   4.769   1.121   6.035
31598SOL    HW196691   4.712   1.055   5.997
31598SOL    HW296692   4.710   1.182   6.078
31599SOL     OW96693  11.351   0.460  13.066
31599SOL    HW196694  11.306   0.440  13.148
31599SOL    HW296695  11.289   0.435  12.997
31600SOL     OW96696   6.615   3.076   1.978
31600SOL    HW196697   6.562   3.155   1.963
31600SOL    HW296698   6.552   3.013   2.013
31601SOL     OW96699  14.261  11.108   0.324
31601SOL    HW196700  14.209  11.186   0.343
31601SOL    HW296701  14.239  11.086   0.233
31602SOL     OW96702   0.302  13.302   2.430
31602SOL    HW196703   0.247  13.378   2.447
31602SOL    HW296704   0.355  13.292   2.509
31603SOL     OW96705   7.908   7.564   8.671
31603SOL    HW196706   7.833   7.621   8.652
31603SOL    HW296707   7.984   7.615   8.646
31604SOL     OW96708   9.654  14.621  13.821
31604SOL    HW196709   9.747  14.607  13.839
31604SOL    HW296710   9.648  14.713  13.795
31605SOL     OW96711  14.650   5.103  13.143
31605SOL    HW196712  14.655   5.121  13.049
31605SOL    HW296713  14.741   5.108  13.173
31606SOL     OW96714   8.884  12.192   3.556
31606SOL    HW196715   8.805  12.140   3.536
31606SOL    HW296716   8.941  12.177   3.481
31607SOL     OW96717   3.280  13.072   0.633
31607SOL    HW196718   3.228  13.100   0.708
31607SOL    HW296719   3.329  12.996   0.664
31608SOL     OW96720   4.174  14.766  12.337
31608SOL    HW196721   4.105  14.831  12.327
31608SOL    HW296722   4.152  14.698  12.274
31609SOL     OW96723   4.598   1.405   8.365
31609SOL    HW196724   4.580   1.487   8.412
31609SOL    HW296725   4.551   1.338   8.415
31610SOL     OW96726  11.480   9.595  13.310
31610SOL    HW196727  11.557   9.575  13.257
31610SOL    HW296728  11.495   9.551  13.394
31611SOL     OW96729  14.159   8.223  12.857
31611SOL    HW196730  14.075   8.191  12.891
31611SOL    HW296731  14.134   8.292  12.794
31612SOL     OW96732   2.648   5.471   5.649
31612SOL    HW196733   2.652   5.428   5.735
31612SOL    HW296734   2.738   5.464   5.615
31613SOL     OW96735   2.540   7.862   3.763
31613SOL    HW196736   2.585   7.779   3.782
31613SOL    HW296737   2.576   7.924   3.827
31614SOL     OW96738  10.670   3.224  12.713
31614SOL    HW196739  10.735   3.278  12.668
31614SOL    HW296740  10.627   3.285  12.773
31615SOL     OW96741  11.530   3.167   7.088
31615SOL    HW196742  11.589   3.180   7.013
31615SOL    HW296743  11.503   3.256   7.113
31616SOL     OW96744  14.438   0.214   6.285
31616SOL    HW196745  14.396   0.172   6.210
31616SOL    HW296746  14.428   0.308   6.268
31617SOL     OW96747   1.901   3.621  14.548
31617SOL    HW196748   1.820   3.662  14.577
31617SOL    HW296749   1.955   3.694  14.517
31618SOL     OW96750   8.322  13.077  11.269
31618SOL    HW196751   8.396  13.022  11.295
31618SOL    HW296752   8.358  13.166  11.265
31619SOL     OW96753   7.426  10.758   1.269
31619SOL    HW196754   7.408  10.664   1.267
31619SOL    HW296755   7.434  10.779   1.362
31620SOL     OW96756  11.392   4.772   6.536
31620SOL    HW196757  11.466   4.748   6.480
31620SOL    HW296758  11.430   4.832   6.600
31621SOL     OW96759   8.748   8.711   8.370
31621SOL    HW196760   8.792   8.628   8.352
31621SOL    HW296761   8.737   8.752   8.284
31622SOL     OW96762  10.758  10.143   9.744
31622SOL    HW196763  10.706  10.201   9.799
31622SOL    HW296764  10.846  10.180   9.747
31623SOL     OW96765  11.118   2.626  10.877
31623SOL    HW196766  11.063   2.590  10.807
31623SOL    HW296767  11.055   2.662  10.941
31624SOL     OW96768   4.595   1.138   5.229
31624SOL    HW196769   4.588   1.178   5.142
31624SOL    HW296770   4.680   1.095   5.229
31625SOL     OW96771  11.041  14.666   8.983
31625SOL    HW196772  10.999  14.622   8.909
31625SOL    HW296773  11.014  14.615   9.059
31626SOL     OW96774   1.050   6.234  11.944
31626SOL    HW196775   1.076   6.143  11.957
31626SOL    HW296776   1.083   6.281  12.021
31627SOL     OW96777  13.830  10.786   0.412
31627SOL    HW196778  13.888  10.840   0.465
31627SOL    HW296779  13.835  10.699   0.452
31628SOL     OW96780  13.455   2.758   0.771
31628SOL    HW196781  13.453   2.793   0.682
31628SOL    HW296782  13.392   2.687   0.771
31629SOL     OW96783  10.623   0.435   2.325
31629SOL    HW196784  10.695   0.382   2.289
31629SOL    HW296785  10.546   0.380   2.315
31630SOL     OW96786   8.384  13.319   4.918
31630SOL    HW196787   8.314  13.381   4.898
31630SOL    HW296788   8.339  13.238   4.943
31631SOL     OW96789   7.463   3.424   7.513
31631SOL    HW196790   7.432   3.419   7.423
31631SOL    HW296791   7.453   3.516   7.537
31632SOL     OW96792   9.747   0.065   1.415
31632SOL    HW196793   9.716   0.112   1.337
31632SOL    HW296794   9.697  14.851   1.414
31633SOL     OW96795   8.296  10.898  10.318
31633SOL    HW196796   8.203  10.911  10.336
31633SOL    HW296797   8.332  10.865  10.400
31634SOL     OW96798  11.043   9.098   0.387
31634SOL    HW196799  11.131   9.118   0.419
31634SOL    HW296800  11.041   9.133   0.298
31635SOL     OW96801   0.428  12.459   7.345
31635SOL    HW196802   0.446  12.503   7.427
31635SOL    HW296803   0.496  12.392   7.338
31636SOL     OW96804   8.229   0.185  14.414
31636SOL    HW196805   8.324   0.178  14.422
31636SOL    HW296806   8.209   0.150  14.328
31637SOL     OW96807  10.564  13.541  10.926
31637SOL    HW196808  10.480  13.523  10.884
31637SOL    HW296809  10.555  13.502  11.013
31638SOL     OW96810   7.307   8.878   6.768
31638SOL    HW196811   7.391   8.834   6.784
31638SOL    HW296812   7.265   8.824   6.701
31639SOL     OW96813   2.145  10.907   0.199
31639SOL    HW196814   2.220  10.935   0.251
31639SOL    HW296815   2.070  10.946   0.242
31640SOL     OW96816   9.109   5.850  11.639
31640SOL    HW196817   9.109   5.945  11.652
31640SOL    HW296818   9.055   5.836  11.562
31641SOL     OW96819  12.988   7.534  12.418
31641SOL    HW196820  12.920   7.479  12.457
31641SOL    HW296821  13.026   7.479  12.349
31642SOL     OW96822  10.956  13.930   1.587
31642SOL    HW196823  11.014  14.003   1.605
31642SOL    HW296824  10.868  13.968   1.591
31643SOL     OW96825   1.141  12.589  14.865
31643SOL    HW196826   1.087  12.605  14.788
31643SOL    HW296827   1.142  12.672   0.044
31644SOL     OW96828   7.372   6.019   5.405
31644SOL    HW196829   7.366   6.036   5.311
31644SOL    HW296830   7.381   6.106   5.445
31645SOL     OW96831  14.838   3.765  11.106
31645SOL    HW196832  14.763   3.798  11.058
31645SOL    HW296833   0.034   3.741  11.038
31646SOL     OW96834   1.121   9.348   4.679
31646SOL    HW196835   1.147   9.389   4.596
31646SOL    HW296836   1.052   9.287   4.654
31647SOL     OW96837   8.671   4.798   6.586
31647SOL    HW196838   8.767   4.805   6.581
31647SOL    HW296839   8.640   4.888   6.575
31648SOL     OW96840   7.379   7.772   7.301
31648SOL    HW196841   7.293   7.804   7.327
31648SOL    HW296842   7.368   7.745   7.210
31649SOL     OW96843   8.611  11.471   9.730
31649SOL    HW196844   8.590  11.381   9.755
31649SOL    HW296845   8.555  11.488   9.654
31650SOL     OW96846  12.990   7.932  11.271
31650SOL    HW196847  12.910   7.945  11.323
31650SOL    HW296848  12.984   7.997  11.202
31651SOL     OW96849   6.945   8.613   0.709
31651SOL    HW196850   7.020   8.672   0.701
31651SOL    HW296851   6.894   8.649   0.781
31652SOL     OW96852  14.465   0.202   9.815
31652SOL    HW196853  14.417   0.271   9.860
31652SOL    HW296854  14.493   0.241   9.732
31653SOL     OW96855   1.290   0.775   8.781
31653SOL    HW196856   1.342   0.696   8.766
31653SOL    HW296857   1.219   0.747   8.838
31654SOL     OW96858   8.917   9.337   9.052
31654SOL    HW196859   8.879   9.346   8.965
31654SOL    HW296860   8.913   9.425   9.089
31655SOL     OW96861   1.110   8.826  14.606
31655SOL    HW196862   1.022   8.808  14.641
31655SOL    HW296863   1.099   8.904  14.552
31656SOL     OW96864   8.993   6.986   7.738
31656SOL    HW196865   8.952   7.007   7.654
31656SOL    HW296866   8.923   6.993   7.802
31657SOL     OW96867   0.277   5.303   5.324
31657SOL    HW196868   0.248   5.394   5.320
31657SOL    HW296869   0.198   5.252   5.305
31658SOL     OW96870  14.191  10.004   8.897
31658SOL    HW196871  14.174  10.095   8.873
31658SOL    HW296872  14.115   9.978   8.949
31659SOL     OW96873   2.427   1.185  10.630
31659SOL    HW196874   2.352   1.130  10.610
31659SOL    HW296875   2.393   1.275  10.630
31660SOL     OW96876   6.534   4.394  13.796
31660SOL    HW196877   6.446   4.427  13.814
31660SOL    HW296878   6.565   4.447  13.723
31661SOL     OW96879   0.399   2.952  12.879
31661SOL    HW196880   0.357   3.038  12.882
31661SOL    HW296881   0.357   2.902  12.950
31662SOL     OW96882   4.497   4.801  10.298
31662SOL    HW196883   4.479   4.792  10.391
31662SOL    HW296884   4.423   4.850  10.264
31663SOL     OW96885   4.702   3.874  13.397
31663SOL    HW196886   4.753   3.796  13.420
31663SOL    HW296887   4.643   3.886  13.471
31664SOL     OW96888   1.986   4.478   1.086
31664SOL    HW196889   1.928   4.407   1.112
31664SOL    HW296890   1.929   4.555   1.082
31665SOL     OW96891  11.275   8.145   7.124
31665SOL    HW196892  11.192   8.150   7.170
31665SOL    HW296893  11.252   8.119   7.035
31666SOL     OW96894   3.287   8.015   8.366
31666SOL    HW196895   3.244   8.079   8.423
31666SOL    HW296896   3.301   8.063   8.284
31667SOL     OW96897   2.366  13.163   8.515
31667SOL    HW196898   2.408  13.199   8.594
31667SOL    HW296899   2.315  13.236   8.480
31668SOL     OW96900   8.272   4.957  14.441
31668SOL    HW196901   8.324   5.037  14.449
31668SOL    HW296902   8.195   4.972  14.497
31669SOL     OW96903  13.600  10.036   9.273
31669SOL    HW196904  13.534  10.073   9.216
31669SOL    HW296905  13.611   9.946   9.242
31670SOL     OW96906   6.025   9.644   8.128
31670SOL    HW196907   6.056   9.717   8.181
31670SOL    HW296908   5.984   9.585   8.191
31671SOL     OW96909   3.131   9.637  10.379
31671SOL    HW196910   3.199   9.666  10.439
31671SOL    HW296911   3.077   9.715  10.363
31672SOL     OW96912  11.856   0.185   0.751
31672SOL    HW196913  11.892   0.267   0.785
31672SOL    HW296914  11.922   0.154   0.690
31673SOL     OW96915  10.780  10.197   2.905
31673SOL    HW196916  10.780  10.278   2.854
31673SOL    HW296917  10.823  10.133   2.848
31674SOL     OW96918   0.987  12.246  12.373
31674SOL    HW196919   0.972  12.197  12.292
31674SOL    HW296920   0.929  12.322  12.366
31675SOL     OW96921   7.821   7.788  12.550
31675SOL    HW196922   7.847   7.798  12.642
31675SOL    HW296923   7.858   7.704  12.524
31676SOL     OW96924   2.148   9.016   8.460
31676SOL    HW196925   2.156   9.075   8.385
31676SOL    HW296926   2.207   8.943   8.439
31677SOL     OW96927  10.550   3.723  14.076
31677SOL    HW196928  10.551   3.756  14.166
31677SOL    HW296929  10.491   3.783  14.030
31678SOL     OW96930   4.543  12.568  11.267
31678SOL    HW196931   4.492  12.647  11.252
31678SOL    HW296932   4.606  12.566  11.195
31679SOL     OW96933  14.321  13.473  13.995
31679SOL    HW196934  14.349  13.474  13.904
31679SOL    HW296935  14.330  13.563  14.025
31680SOL     OW96936   0.123   3.677   8.138
31680SOL    HW196937   0.205   3.668   8.090
31680SOL    HW296938   0.126   3.765   8.175
31681SOL     OW96939   3.555   5.089   8.159
31681SOL    HW196940   3.611   5.152   8.112
31681SOL    HW296941   3.493   5.144   8.207
31682SOL     OW96942   7.534   8.138   4.056
31682SOL    HW196943   7.628   8.135   4.074
31682SOL    HW296944   7.495   8.080   4.122
31683SOL     OW96945   1.669   3.090  13.106
31683SOL    HW196946   1.584   3.117  13.073
31683SOL    HW296947   1.730   3.110  13.035
31684SOL     OW96948   1.032  11.242  11.699
31684SOL    HW196949   0.984  11.159  11.694
31684SOL    HW296950   1.016  11.284  11.615
31685SOL     OW96951   2.837   7.075   8.598
31685SOL    HW196952   2.810   7.104   8.686
31685SOL    HW296953   2.863   7.155   8.553
31686SOL     OW96954   3.995   7.694   0.157
31686SOL    HW196955   4.089   7.677   0.146
31686SOL    HW296956   3.953   7.611   0.136
31687SOL     OW96957  10.253  14.160  12.549
31687SOL    HW196958  10.207  14.095  12.603
31687SOL    HW296959  10.205  14.242  12.564
31688SOL     OW96960   2.022   4.794   8.218
31688SOL    HW196961   1.954   4.746   8.265
31688SOL    HW296962   1.976   4.841   8.149
31689SOL     OW96963  14.163   6.832   7.632
31689SOL    HW196964  14.235   6.786   7.675
31689SOL    HW296965  14.149   6.910   7.686
31690SOL     OW96966   8.360  13.386   9.666
31690SOL    HW196967   8.357  13.454   9.598
31690SOL    HW296968   8.421  13.420   9.732
31691SOL     OW96969   9.820   7.967   1.175
31691SOL    HW196970   9.906   8.009   1.183
31691SOL    HW296971   9.810   7.948   1.082
31692SOL     OW96972   1.381  11.478  14.070
31692SOL    HW196973   1.417  11.424  14.140
31692SOL    HW296974   1.454  11.488  14.008
31693SOL     OW96975   3.250   7.858   0.944
31693SOL    HW196976   3.320   7.916   0.917
31693SOL    HW296977   3.292   7.794   1.001
31694SOL     OW96978  13.263  11.102  11.685
31694SOL    HW196979  13.220  11.149  11.614
31694SOL    HW296980  13.343  11.068  11.646
31695SOL     OW96981   7.370   0.159  12.915
31695SOL    HW196982   7.415   0.077  12.892
31695SOL    HW296983   7.285   0.130  12.951
31696SOL     OW96984   5.223   7.079   3.959
31696SOL    HW196985   5.237   7.173   3.956
31696SOL    HW296986   5.129   7.068   3.943
31697SOL     OW96987   6.885   8.243   4.674
31697SOL    HW196988   6.966   8.204   4.705
31697SOL    HW296989   6.876   8.211   4.584
31698SOL     OW96990   9.497   2.940   7.396
31698SOL    HW196991   9.553   3.017   7.403
31698SOL    HW296992   9.463   2.927   7.484
31699SOL     OW96993  12.324  14.302  12.907
31699SOL    HW196994  12.349  14.244  12.979
31699SOL    HW296995  12.233  14.278  12.888
31700SOL     OW96996   9.256   3.793  14.372
31700SOL    HW196997   9.186   3.736  14.339
31700SOL    HW296998   9.336   3.753  14.340
31701SOL     OW96999   2.013   6.863   3.192
31701SOL    HW197000   2.096   6.911   3.197
31701SOL    HW297001   1.946   6.931   3.179
31702SOL     OW97002  11.152  12.619   7.805
31702SOL    HW197003  11.102  12.693   7.770
31702SOL    HW297004  11.104  12.592   7.883
31703SOL     OW97005  12.525  13.007   7.025
31703SOL    HW197006  12.605  12.999   7.076
31703SOL    HW297007  12.460  13.039   7.088
31704SOL     OW97008   2.868  10.646   9.906
31704SOL    HW197009   2.947  10.696   9.931
31704SOL    HW297010   2.884  10.619   9.816
31705SOL     OW97011   8.214  10.066   2.519
31705SOL    HW197012   8.207  10.161   2.518
31705SOL    HW297013   8.131  10.036   2.556
31706SOL     OW97014   8.262  13.388   1.903
31706SOL    HW197015   8.223  13.474   1.921
31706SOL    HW297016   8.357  13.403   1.908
31707SOL     OW97017  13.999   6.108   4.380
31707SOL    HW197018  13.986   6.014   4.370
31707SOL    HW297019  14.007   6.121   4.474
31708SOL     OW97020   1.861   4.641  13.799
31708SOL    HW197021   1.949   4.609  13.817
31708SOL    HW297022   1.818   4.569  13.752
31709SOL     OW97023   2.401   8.255   2.178
31709SOL    HW197024   2.423   8.232   2.268
31709SOL    HW297025   2.309   8.283   2.182
31710SOL     OW97026   0.851  11.264   1.112
31710SOL    HW197027   0.940  11.298   1.111
31710SOL    HW297028   0.833  11.241   1.021
31711SOL     OW97029   5.808   2.376   5.644
31711SOL    HW197030   5.885   2.431   5.638
31711SOL    HW297031   5.790   2.348   5.554
31712SOL     OW97032   9.684  12.361   1.673
31712SOL    HW197033   9.659  12.434   1.730
31712SOL    HW297034   9.658  12.282   1.721
31713SOL     OW97035   7.614  12.249   3.918
31713SOL    HW197036   7.615  12.325   3.860
31713SOL    HW297037   7.658  12.279   3.998
31714SOL     OW97038   7.526  10.045   3.311
31714SOL    HW197039   7.597  10.011   3.366
31714SOL    HW297040   7.467  10.089   3.373
31715SOL     OW97041   7.816   3.795   1.364
31715SOL    HW197042   7.817   3.878   1.411
31715SOL    HW297043   7.749   3.742   1.408
31716SOL     OW97044  13.983   5.217   0.587
31716SOL    HW197045  13.920   5.230   0.658
31716SOL    HW297046  13.944   5.149   0.532
31717SOL     OW97047   3.887   1.622  11.273
31717SOL    HW197048   3.864   1.715  11.266
31717SOL    HW297049   3.905   1.594  11.183
31718SOL     OW97050   0.683  12.845   2.681
31718SOL    HW197051   0.722  12.761   2.657
31718SOL    HW297052   0.589  12.828   2.683
31719SOL     OW97053   2.932  10.738   9.363
31719SOL    HW197054   2.857  10.772   9.314
31719SOL    HW297055   2.948  10.652   9.323
31720SOL     OW97056   0.514  13.485  10.471
31720SOL    HW197057   0.593  13.436  10.450
31720SOL    HW297058   0.444  13.438  10.426
31721SOL     OW97059   2.299  11.055  12.678
31721SOL    HW197060   2.279  11.057  12.771
31721SOL    HW297061   2.345  10.972  12.665
31722SOL     OW97062   1.178   7.359  14.481
31722SOL    HW197063   1.213   7.373  14.393
31722SOL    HW297064   1.255   7.340  14.534
31723SOL     OW97065   7.192  14.336  14.353
31723SOL    HW197066   7.273  14.382  14.377
31723SOL    HW297067   7.135  14.346  14.428
31724SOL     OW97068   9.382  14.365   3.683
31724SOL    HW197069   9.459  14.419   3.702
31724SOL    HW297070   9.417  14.287   3.640
31725SOL     OW97071  14.273   3.005  13.681
31725SOL    HW197072  14.312   3.093  13.687
31725SOL    HW297073  14.345   2.949  13.653
31726SOL     OW97074  11.348  12.928  14.836
31726SOL    HW197075  11.301  12.871  14.775
31726SOL    HW297076  11.340  13.016  14.798
31727SOL     OW97077  11.907  11.406   6.734
31727SOL    HW197078  11.910  11.491   6.690
31727SOL    HW297079  11.815  11.380   6.729
31728SOL     OW97080   7.503   8.427  14.530
31728SOL    HW197081   7.564   8.359  14.558
31728SOL    HW297082   7.473   8.468  14.611
31729SOL     OW97083   9.076   4.158   2.218
31729SOL    HW197084   9.092   4.174   2.311
31729SOL    HW297085   9.102   4.239   2.175
31730SOL     OW97086  14.246   2.884   3.727
31730SOL    HW197087  14.338   2.894   3.753
31730SOL    HW297088  14.247   2.892   3.632
31731SOL     OW97089  11.251  11.121   3.084
31731SOL    HW197090  11.206  11.039   3.103
31731SOL    HW297091  11.298  11.104   3.002
31732SOL     OW97092   8.270   8.560   3.852
31732SOL    HW197093   8.327   8.550   3.775
31732SOL    HW297094   8.290   8.483   3.906
31733SOL     OW97095  12.708   2.000   4.697
31733SOL    HW197096  12.792   1.991   4.651
31733SOL    HW297097  12.731   2.045   4.778
31734SOL     OW97098   2.764   4.820   0.346
31734SOL    HW197099   2.769   4.904   0.301
31734SOL    HW297100   2.807   4.758   0.287
31735SOL     OW97101   9.597   4.634   2.125
31735SOL    HW197102   9.574   4.552   2.080
31735SOL    HW297103   9.645   4.605   2.203
31736SOL     OW97104   1.486   0.454   9.701
31736SOL    HW197105   1.531   0.481   9.782
31736SOL    HW297106   1.547   0.478   9.631
31737SOL     OW97107  13.689   4.528   3.033
31737SOL    HW197108  13.716   4.444   3.068
31737SOL    HW297109  13.720   4.592   3.098
31738SOL     OW97110   6.853   4.582   4.915
31738SOL    HW197111   6.774   4.540   4.948
31738SOL    HW297112   6.888   4.631   4.990
31739SOL     OW97113   6.551   4.313  14.451
31739SOL    HW197114   6.511   4.228  14.432
31739SOL    HW297115   6.478   4.375  14.447
31740SOL     OW97116  14.539  12.717  13.257
31740SOL    HW197117  14.568  12.797  13.302
31740SOL    HW297118  14.529  12.653  13.328
31741SOL     OW97119   8.751  11.741   6.978
31741SOL    HW197120   8.692  11.675   7.015
31741SOL    HW297121   8.702  11.823   6.983
31742SOL     OW97122  13.223   1.919   6.129
31742SOL    HW197123  13.228   1.824   6.123
31742SOL    HW297124  13.155   1.935   6.195
31743SOL     OW97125   5.886   3.674  13.851
31743SOL    HW197126   5.821   3.713  13.792
31743SOL    HW297127   5.844   3.595  13.884
31744SOL     OW97128   8.691   4.897   2.241
31744SOL    HW197129   8.634   4.929   2.311
31744SOL    HW297130   8.779   4.911   2.274
31745SOL     OW97131   5.148   7.119   1.347
31745SOL    HW197132   5.167   7.158   1.262
31745SOL    HW297133   5.227   7.134   1.399
31746SOL     OW97134   4.940   5.494   2.181
31746SOL    HW197135   4.856   5.454   2.206
31746SOL    HW297136   5.005   5.426   2.197
31747SOL     OW97137   0.084   7.718  12.937
31747SOL    HW197138   0.007   7.774  12.927
31747SOL    HW297139   0.079   7.656  12.864
31748SOL     OW97140   6.659  12.775  11.668
31748SOL    HW197141   6.677  12.862  11.704
31748SOL    HW297142   6.699  12.776  11.581
31749SOL     OW97143   3.333  13.769   5.814
31749SOL    HW197144   3.390  13.742   5.742
31749SOL    HW297145   3.244  13.761   5.780
31750SOL     OW97146   0.809  10.405   9.538
31750SOL    HW197147   0.776  10.446   9.618
31750SOL    HW297148   0.760  10.323   9.531
31751SOL     OW97149  12.470  11.334  11.138
31751SOL    HW197150  12.427  11.412  11.172
31751SOL    HW297151  12.554  11.364  11.104
31752SOL     OW97152  10.724   5.886   1.259
31752SOL    HW197153  10.758   5.798   1.274
31752SOL    HW297154  10.664   5.876   1.185
31753SOL     OW97155  13.194   4.402   2.851
31753SOL    HW197156  13.274   4.414   2.902
31753SOL    HW297157  13.219   4.344   2.779
31754SOL     OW97158   7.240   7.315  12.309
31754SOL    HW197159   7.207   7.375  12.376
31754SOL    HW297160   7.333   7.304  12.331
31755SOL     OW97161  11.504   9.313  10.504
31755SOL    HW197162  11.538   9.371  10.436
31755SOL    HW297163  11.445   9.369  10.555
31756SOL     OW97164   0.817   3.895  13.403
31756SOL    HW197165   0.888   3.959  13.399
31756SOL    HW297166   0.808   3.863  13.313
31757SOL     OW97167  10.564   9.007  13.546
31757SOL    HW197168  10.645   8.979  13.587
31757SOL    HW297169  10.586   9.019  13.453
31758SOL     OW97170   4.459   1.619   0.647
31758SOL    HW197171   4.376   1.613   0.694
31758SOL    HW297172   4.493   1.529   0.647
31759SOL     OW97173   8.982   1.678   6.293
31759SOL    HW197174   8.908   1.664   6.234
31759SOL    HW297175   9.019   1.762   6.265
31760SOL     OW97176   5.235   0.368  10.159
31760SOL    HW197177   5.211   0.416  10.079
31760SOL    HW297178   5.181   0.289  10.156
31761SOL     OW97179   8.623   8.912   1.691
31761SOL    HW197180   8.567   8.928   1.767
31761SOL    HW297181   8.576   8.951   1.618
31762SOL     OW97182   3.916   4.278   0.652
31762SOL    HW197183   3.905   4.369   0.681
31762SOL    HW297184   3.898   4.282   0.558
31763SOL     OW97185  10.967   1.809   8.371
31763SOL    HW197186  11.000   1.899   8.370
31763SOL    HW297187  11.005   1.771   8.450
31764SOL     OW97188   6.011   0.439   5.460
31764SOL    HW197189   6.051   0.363   5.418
31764SOL    HW297190   5.930   0.406   5.498
31765SOL     OW97191   3.337   1.536   9.287
31765SOL    HW197192   3.416   1.495   9.252
31765SOL    HW297193   3.294   1.575   9.210
31766SOL     OW97194   8.104   5.586   3.038
31766SOL    HW197195   8.086   5.606   3.129
31766SOL    HW297196   8.037   5.521   3.014
31767SOL     OW97197   7.904  11.114   1.960
31767SOL    HW197198   7.861  11.195   1.934
31767SOL    HW297199   7.938  11.078   1.878
31768SOL     OW97200   5.271   9.167  12.412
31768SOL    HW197201   5.194   9.217  12.386
31768SOL    HW297202   5.262   9.157  12.507
31769SOL     OW97203   5.646   4.631   5.842
31769SOL    HW197204   5.568   4.600   5.889
31769SOL    HW297205   5.627   4.723   5.822
31770SOL     OW97206   0.795   0.988  13.566
31770SOL    HW197207   0.706   1.011  13.591
31770SOL    HW297208   0.850   1.052  13.609
31771SOL     OW97209  10.148   4.188   4.660
31771SOL    HW197210  10.228   4.185   4.608
31771SOL    HW297211  10.113   4.099   4.655
31772SOL     OW97212   9.503   3.792   6.509
31772SOL    HW197213   9.584   3.838   6.530
31772SOL    HW297214   9.434   3.847   6.545
31773SOL     OW97215   1.026   7.601   0.910
31773SOL    HW197216   1.118   7.617   0.933
31773SOL    HW297217   1.030   7.563   0.822
31774SOL     OW97218   3.361   1.407   5.365
31774SOL    HW197219   3.372   1.321   5.323
31774SOL    HW297220   3.295   1.451   5.311
31775SOL     OW97221   5.751  13.336  10.941
31775SOL    HW197222   5.793  13.357  10.857
31775SOL    HW297223   5.683  13.273  10.919
31776SOL     OW97224   6.962   5.760   8.269
31776SOL    HW197225   6.991   5.847   8.295
31776SOL    HW297226   6.882   5.774   8.220
31777SOL     OW97227  11.631   9.941  11.060
31777SOL    HW197228  11.673   9.947  10.975
31777SOL    HW297229  11.573  10.017  11.065
31778SOL     OW97230   4.609  10.603   7.050
31778SOL    HW197231   4.559  10.532   7.010
31778SOL    HW297232   4.589  10.679   6.995
31779SOL     OW97233   3.961   4.859   2.448
31779SOL    HW197234   3.953   4.909   2.367
31779SOL    HW297235   4.019   4.786   2.427
31780SOL     OW97236   2.727   1.831   0.779
31780SOL    HW197237   2.753   1.874   0.861
31780SOL    HW297238   2.796   1.857   0.717
31781SOL     OW97239   9.019  11.950   6.167
31781SOL    HW197240   8.935  11.923   6.204
31781SOL    HW297241   9.085  11.900   6.216
31782SOL     OW97242   8.265   7.088  11.791
31782SOL    HW197243   8.208   7.048  11.726
31782SOL    HW297244   8.353   7.077  11.757
31783SOL     OW97245   8.293   4.767   6.708
31783SOL    HW197246   8.254   4.852   6.730
31783SOL    HW297247   8.305   4.770   6.613
31784SOL     OW97248   6.309   9.139   2.093
31784SOL    HW197249   6.355   9.090   2.025
31784SOL    HW297250   6.352   9.224   2.094
31785SOL     OW97251  14.667   7.378  10.299
31785SOL    HW197252  14.600   7.445  10.283
31785SOL    HW297253  14.707   7.362  10.214
31786SOL     OW97254   0.686  14.496  11.614
31786SOL    HW197255   0.739  14.417  11.620
31786SOL    HW297256   0.605  14.476  11.661
31787SOL     OW97257  12.263  14.836   2.637
31787SOL    HW197258  12.249   0.062   2.622
31787SOL    HW297259  12.265  14.798   2.549
31788SOL     OW97260  10.958  14.686   6.587
31788SOL    HW197261  11.046  14.667   6.554
31788SOL    HW297262  10.971  14.748   6.658
31789SOL     OW97263   8.162   9.136   1.122
31789SOL    HW197264   8.132   9.162   1.209
31789SOL    HW297265   8.190   9.218   1.081
31790SOL     OW97266  14.742  10.123   3.689
31790SOL    HW197267  14.775  10.132   3.599
31790SOL    HW297268  14.673  10.057   3.683
31791SOL     OW97269   8.739   2.641   5.588
31791SOL    HW197270   8.674   2.625   5.518
31791SOL    HW297271   8.816   2.674   5.541
31792SOL     OW97272   0.599   1.773  11.239
31792SOL    HW197273   0.571   1.864  11.247
31792SOL    HW297274   0.656   1.771  11.162
31793SOL     OW97275  12.796   4.944   6.187
31793SOL    HW197276  12.740   4.892   6.245
31793SOL    HW297277  12.750   4.945   6.104
31794SOL     OW97278   0.250  10.825   0.624
31794SOL    HW197279   0.171  10.878   0.625
31794SOL    HW297280   0.262  10.799   0.716
31795SOL     OW97281   2.647   8.183   8.131
31795SOL    HW197282   2.565   8.171   8.178
31795SOL    HW297283   2.710   8.208   8.198
31796SOL     OW97284   1.998   5.324   3.402
31796SOL    HW197285   2.080   5.293   3.441
31796SOL    HW297286   1.955   5.245   3.369
31797SOL     OW97287   5.157  10.638  12.276
31797SOL    HW197288   5.208  10.561  12.299
31797SOL    HW297289   5.167  10.697  12.351
31798SOL     OW97290  11.398   5.964   6.876
31798SOL    HW197291  11.321   5.935   6.925
31798SOL    HW297292  11.471   5.921   6.920
31799SOL     OW97293  12.416   3.908  10.201
31799SOL    HW197294  12.414   3.819  10.167
31799SOL    HW297295  12.324   3.935  10.203
31800SOL     OW97296  10.000   6.333  13.783
31800SOL    HW197297   9.951   6.325  13.865
31800SOL    HW297298  10.014   6.243  13.754
31801SOL     OW97299   2.558  12.238  12.526
31801SOL    HW197300   2.463  12.236  12.524
31801SOL    HW297301   2.582  12.180  12.598
31802SOL     OW97302   3.035  12.452  10.726
31802SOL    HW197303   3.048  12.547  10.728
31802SOL    HW297304   3.065  12.426  10.639
31803SOL     OW97305  11.315   3.303   3.475
31803SOL    HW197306  11.226   3.274   3.496
31803SOL    HW297307  11.337   3.366   3.544
31804SOL     OW97308  11.109   9.524  12.701
31804SOL    HW197309  11.196   9.564  12.695
31804SOL    HW297310  11.070   9.538  12.615
31805SOL     OW97311   1.854  13.431  11.687
31805SOL    HW197312   1.857  13.344  11.728
31805SOL    HW297313   1.799  13.419  11.610
31806SOL     OW97314   9.858   6.880   2.797
31806SOL    HW197315   9.838   6.790   2.823
31806SOL    HW297316   9.954   6.886   2.803
31807SOL     OW97317  11.975   4.705  13.340
31807SOL    HW197318  11.883   4.682  13.351
31807SOL    HW297319  11.976   4.801  13.341
31808SOL     OW97320  10.879   0.135  13.589
31808SOL    HW197321  10.960   0.184  13.575
31808SOL    HW297322  10.891   0.092  13.674
31809SOL     OW97323  13.260   7.651  14.640
31809SOL    HW197324  13.328   7.705  14.681
31809SOL    HW297325  13.214   7.711  14.582
31810SOL     OW97326   7.188  12.847  10.234
31810SOL    HW197327   7.190  12.930  10.186
31810SOL    HW297328   7.220  12.782  10.171
31811SOL     OW97329   8.127   0.979   0.057
31811SOL    HW197330   8.220   0.963   0.037
31811SOL    HW297331   8.104   0.911   0.120
31812SOL     OW97332  14.431   5.436   8.949
31812SOL    HW197333  14.374   5.467   9.019
31812SOL    HW297334  14.401   5.347   8.931
31813SOL     OW97335  11.613   2.529  14.163
31813SOL    HW197336  11.527   2.498  14.134
31813SOL    HW297337  11.647   2.457  14.217
31814SOL     OW97338   1.454  10.503  10.083
31814SOL    HW197339   1.470  10.538  10.171
31814SOL    HW297340   1.394  10.566  10.042
31815SOL     OW97341   5.966   0.755  10.786
31815SOL    HW197342   5.974   0.805  10.868
31815SOL    HW297343   5.878   0.774  10.755
31816SOL     OW97344  10.087  10.775   3.059
31816SOL    HW197345  10.014  10.824   3.096
31816SOL    HW297346  10.141  10.841   3.015
31817SOL     OW97347   1.244  13.660  12.157
31817SOL    HW197348   1.228  13.625  12.069
31817SOL    HW297349   1.157  13.679  12.192
31818SOL     OW97350  12.268   5.466   4.115
31818SOL    HW197351  12.307   5.551   4.098
31818SOL    HW297352  12.174   5.482   4.121
31819SOL     OW97353   1.495   8.883   9.005
31819SOL    HW197354   1.562   8.929   8.955
31819SOL    HW297355   1.433   8.851   8.938
31820SOL     OW97356   8.164  10.656   3.106
31820SOL    HW197357   8.193  10.617   3.189
31820SOL    HW297358   8.222  10.731   3.093
31821SOL     OW97359   0.799  11.703  10.767
31821SOL    HW197360   0.744  11.647  10.713
31821SOL    HW297361   0.865  11.644  10.805
31822SOL     OW97362   9.019   6.779   2.944
31822SOL    HW197363   9.043   6.728   2.867
31822SOL    HW297364   8.998   6.866   2.909
31823SOL     OW97365  11.250   2.098   7.892
31823SOL    HW197366  11.249   2.176   7.837
31823SOL    HW297367  11.163   2.060   7.881
31824SOL     OW97368  10.840   3.242   0.633
31824SOL    HW197369  10.882   3.268   0.715
31824SOL    HW297370  10.897   3.174   0.597
31825SOL     OW97371   3.477   4.527  12.667
31825SOL    HW197372   3.501   4.490  12.582
31825SOL    HW297373   3.415   4.464  12.703
31826SOL     OW97374   3.304  10.369   9.336
31826SOL    HW197375   3.291  10.293   9.394
31826SOL    HW297376   3.252  10.348   9.258
31827SOL     OW97377  14.676  11.924   0.110
31827SOL    HW197378  14.580  11.918   0.103
31827SOL    HW297379  14.705  11.834   0.123
31828SOL     OW97380   7.282   2.381  10.697
31828SOL    HW197381   7.312   2.409  10.611
31828SOL    HW297382   7.270   2.463  10.746
31829SOL     OW97383   9.762  11.494   0.127
31829SOL    HW197384   9.799  11.414   0.164
31829SOL    HW297385   9.681  11.465   0.085
31830SOL     OW97386   0.183  14.768   8.420
31830SOL    HW197387   0.151  14.729   8.501
31830SOL    HW297388   0.188  14.695   8.358
31831SOL     OW97389   6.554  14.077   0.135
31831SOL    HW197390   6.486  14.037   0.189
31831SOL    HW297391   6.635  14.035   0.162
31832SOL     OW97392   8.318  12.886  13.905
31832SOL    HW197393   8.411  12.861  13.913
31832SOL    HW297394   8.294  12.917  13.992
31833SOL     OW97395   6.408   1.789   3.543
31833SOL    HW197396   6.368   1.824   3.463
31833SOL    HW297397   6.479   1.850   3.563
31834SOL     OW97398  13.853  12.814   5.926
31834SOL    HW197399  13.786  12.877   5.950
31834SOL    HW297400  13.833  12.790   5.836
31835SOL     OW97401   9.804   2.823   0.152
31835SOL    HW197402   9.766   2.806   0.239
31835SOL    HW297403   9.728   2.836   0.095
31836SOL     OW97404  11.693   5.044  13.445
31836SOL    HW197405  11.767   4.985  13.461
31836SOL    HW297406  11.731   5.116  13.394
31837SOL     OW97407  13.203   1.656   6.232
31837SOL    HW197408  13.212   1.664   6.327
31837SOL    HW297409  13.243   1.572   6.211
31838SOL     OW97410  13.165   5.704   0.757
31838SOL    HW197411  13.255   5.676   0.774
31838SOL    HW297412  13.167   5.799   0.770
31839SOL     OW97413  11.211   5.158   8.281
31839SOL    HW197414  11.246   5.245   8.302
31839SOL    HW297415  11.227   5.106   8.360
31840SOL     OW97416  11.162   7.475  11.574
31840SOL    HW197417  11.096   7.539  11.547
31840SOL    HW297418  11.230   7.527  11.617
31841SOL     OW97419   6.181  14.437  13.139
31841SOL    HW197420   6.155  14.396  13.057
31841SOL    HW297421   6.109  14.418  13.199
31842SOL     OW97422   2.929   5.611  13.185
31842SOL    HW197423   2.876   5.573  13.255
31842SOL    HW297424   2.922   5.705  13.197
31843SOL     OW97425  10.513   6.455   8.280
31843SOL    HW197426  10.499   6.549   8.295
31843SOL    HW297427  10.500   6.443   8.186
31844SOL     OW97428  13.463   7.906   2.032
31844SOL    HW197429  13.465   7.811   2.039
31844SOL    HW297430  13.450   7.923   1.938
31845SOL     OW97431  13.959  12.989  10.360
31845SOL    HW197432  13.949  13.024  10.449
31845SOL    HW297433  14.054  12.987  10.345
31846SOL     OW97434  10.080   7.973   1.778
31846SOL    HW197435  10.130   8.054   1.790
31846SOL    HW297436  10.010   7.997   1.718
31847SOL     OW97437   2.233   5.056  13.163
31847SOL    HW197438   2.180   5.135  13.166
31847SOL    HW297439   2.267   5.047  13.253
31848SOL     OW97440   1.564   6.833  10.773
31848SOL    HW197441   1.659   6.830  10.761
31848SOL    HW297442   1.545   6.925  10.790
31849SOL     OW97443   4.195   5.699   6.927
31849SOL    HW197444   4.209   5.751   7.006
31849SOL    HW297445   4.283   5.684   6.892
31850SOL     OW97446   7.270  10.302   8.010
31850SOL    HW197447   7.241  10.215   8.037
31850SOL    HW297448   7.328  10.287   7.935
31851SOL     OW97449   2.641   5.852   7.628
31851SOL    HW197450   2.717   5.903   7.600
31851SOL    HW297451   2.675   5.764   7.641
31852SOL     OW97452   1.663   8.987   7.259
31852SOL    HW197453   1.618   8.908   7.230
31852SOL    HW297454   1.636   8.997   7.351
31853SOL     OW97455  12.002  12.800   0.862
31853SOL    HW197456  12.090  12.791   0.826
31853SOL    HW297457  11.947  12.821   0.786
31854SOL     OW97458   8.638   8.724  11.299
31854SOL    HW197459   8.563   8.700  11.245
31854SOL    HW297460   8.671   8.640  11.331
31855SOL     OW97461   4.011  10.885   3.514
31855SOL    HW197462   4.095  10.839   3.519
31855SOL    HW297463   4.016  10.953   3.581
31856SOL     OW97464  12.084   7.274  11.240
31856SOL    HW197465  12.122   7.351  11.197
31856SOL    HW297466  12.139   7.201  11.213
31857SOL     OW97467  12.331  11.070   8.089
31857SOL    HW197468  12.360  11.114   8.009
31857SOL    HW297469  12.381  11.112   8.159
31858SOL     OW97470   2.696  14.747   1.376
31858SOL    HW197471   2.606  14.749   1.345
31858SOL    HW297472   2.689  14.760   1.471
31859SOL     OW97473  14.734   7.009   0.603
31859SOL    HW197474  14.669   7.022   0.535
31859SOL    HW297475  14.697   6.942   0.661
31860SOL     OW97476   9.127  11.624   3.257
31860SOL    HW197477   9.148  11.572   3.180
31860SOL    HW297478   9.177  11.705   3.246
31861SOL     OW97479   9.836   1.904   9.887
31861SOL    HW197480   9.892   1.946   9.823
31861SOL    HW297481   9.753   1.952   9.883
31862SOL     OW97482  13.133   2.206   3.392
31862SOL    HW197483  13.107   2.281   3.445
31862SOL    HW297484  13.172   2.145   3.455
31863SOL     OW97485  10.084   4.938  14.109
31863SOL    HW197486   9.999   4.980  14.093
31863SOL    HW297487  10.100   4.886  14.030
31864SOL     OW97488  10.131   0.248  13.863
31864SOL    HW197489  10.150   0.327  13.913
31864SOL    HW297490  10.086   0.190  13.925
31865SOL     OW97491   5.564   4.538   2.659
31865SOL    HW197492   5.537   4.563   2.747
31865SOL    HW297493   5.589   4.621   2.618
31866SOL     OW97494   3.282  12.417  12.785
31866SOL    HW197495   3.236  12.347  12.738
31866SOL    HW297496   3.253  12.497  12.743
31867SOL     OW97497  13.334   3.548  11.560
31867SOL    HW197498  13.283   3.596  11.626
31867SOL    HW297499  13.371   3.617  11.505
31868SOL     OW97500   2.118  14.580   6.871
31868SOL    HW197501   2.097  14.566   6.963
31868SOL    HW297502   2.055  14.646   6.842
31869SOL     OW97503   8.909  12.736  11.960
31869SOL    HW197504   8.896  12.830  11.974
31869SOL    HW297505   8.851  12.714  11.887
31870SOL     OW97506  10.399   3.253   1.757
31870SOL    HW197507  10.449   3.181   1.720
31870SOL    HW297508  10.318   3.254   1.707
31871SOL     OW97509   6.038   2.578   5.045
31871SOL    HW197510   6.026   2.531   5.127
31871SOL    HW297511   6.030   2.670   5.068
31872SOL     OW97512   3.826   4.635   6.798
31872SOL    HW197513   3.743   4.621   6.844
31872SOL    HW297514   3.804   4.697   6.728
31873SOL     OW97515  13.538   1.631   3.338
31873SOL    HW197516  13.578   1.560   3.288
31873SOL    HW297517  13.567   1.618   3.428
31874SOL     OW97518  11.485   7.789   6.218
31874SOL    HW197519  11.567   7.743   6.197
31874SOL    HW297520  11.447   7.739   6.290
31875SOL     OW97521  12.467  11.761   2.932
31875SOL    HW197522  12.412  11.836   2.952
31875SOL    HW297523  12.517  11.745   3.012
31876SOL     OW97524   6.479  10.326   8.609
31876SOL    HW197525   6.496  10.308   8.702
31876SOL    HW297526   6.561  10.361   8.576
31877SOL     OW97527   8.268   2.888   3.271
31877SOL    HW197528   8.285   2.800   3.302
31877SOL    HW297529   8.230   2.933   3.346
31878SOL     OW97530   6.742  14.463   0.865
31878SOL    HW197531   6.675  14.468   0.796
31878SOL    HW297532   6.692  14.456   0.946
31879SOL     OW97533  12.634   2.216   0.171
31879SOL    HW197534  12.571   2.274   0.214
31879SOL    HW297535  12.653   2.260   0.088
31880SOL     OW97536   3.582   3.063   7.541
31880SOL    HW197537   3.663   3.031   7.580
31880SOL    HW297538   3.595   3.157   7.533
31881SOL     OW97539  14.033  10.529   6.479
31881SOL    HW197540  14.108  10.514   6.536
31881SOL    HW297541  14.046  10.618   6.446
31882SOL     OW97542   1.133   2.625   6.776
31882SOL    HW197543   1.068   2.620   6.705
31882SOL    HW297544   1.218   2.623   6.731
31883SOL     OW97545   4.850   9.690   9.177
31883SOL    HW197546   4.871   9.724   9.265
31883SOL    HW297547   4.863   9.596   9.184
31884SOL     OW97548   2.592   0.942  11.735
31884SOL    HW197549   2.582   0.849  11.752
31884SOL    HW297550   2.673   0.967  11.780
31885SOL     OW97551   1.974   4.505   3.488
31885SOL    HW197552   1.946   4.434   3.545
31885SOL    HW297553   1.997   4.576   3.548
31886SOL     OW97554   2.842   8.410   1.453
31886SOL    HW197555   2.813   8.452   1.534
31886SOL    HW297556   2.813   8.470   1.383
31887SOL     OW97557  14.045   9.865   7.050
31887SOL    HW197558  14.087   9.783   7.074
31887SOL    HW297559  14.053   9.921   7.127
31888SOL     OW97560  11.987   4.248  13.297
31888SOL    HW197561  11.912   4.307  13.307
31888SOL    HW297562  12.030   4.249  13.383
31889SOL     OW97563  12.056   6.706   6.086
31889SOL    HW197564  12.126   6.648   6.056
31889SOL    HW297565  11.983   6.648   6.106
31890SOL     OW97566   6.976   1.201   4.366
31890SOL    HW197567   6.899   1.169   4.318
31890SOL    HW297568   7.050   1.183   4.308
31891SOL     OW97569   1.203  11.946   1.604
31891SOL    HW197570   1.155  11.901   1.534
31891SOL    HW297571   1.162  12.033   1.609
31892SOL     OW97572   7.192   6.578  12.514
31892SOL    HW197573   7.199   6.529  12.431
31892SOL    HW297574   7.132   6.649  12.495
31893SOL     OW97575   1.979  10.380   4.138
31893SOL    HW197576   1.948  10.290   4.152
31893SOL    HW297577   1.966  10.396   4.045
31894SOL     OW97578   6.818   3.556   3.715
31894SOL    HW197579   6.740   3.592   3.673
31894SOL    HW297580   6.846   3.485   3.657
31895SOL     OW97581   9.965   3.629   9.799
31895SOL    HW197582  10.033   3.621   9.732
31895SOL    HW297583   9.888   3.588   9.760
31896SOL     OW97584  12.067  11.218  13.676
31896SOL    HW197585  12.071  11.215  13.580
31896SOL    HW297586  12.001  11.286  13.694
31897SOL     OW97587   2.230  12.525   3.270
31897SOL    HW197588   2.155  12.474   3.302
31897SOL    HW297589   2.283  12.462   3.222
31898SOL     OW97590  13.659  13.308  10.577
31898SOL    HW197591  13.697  13.223  10.553
31898SOL    HW297592  13.656  13.306  10.673
31899SOL     OW97593  11.689  14.281  12.915
31899SOL    HW197594  11.604  14.315  12.887
31899SOL    HW297595  11.746  14.357  12.916
31900SOL     OW97596  14.849   5.237   3.609
31900SOL    HW197597  14.847   5.289   3.529
31900SOL    HW297598  14.761   5.202   3.618
31901SOL     OW97599   2.518   3.884  12.698
31901SOL    HW197600   2.461   3.907  12.624
31901SOL    HW297601   2.539   3.792  12.683
31902SOL     OW97602   5.304   2.986  14.487
31902SOL    HW197603   5.211   3.011  14.483
31902SOL    HW297604   5.307   2.914  14.550
31903SOL     OW97605   6.621   9.953   4.744
31903SOL    HW197606   6.587   9.991   4.824
31903SOL    HW297607   6.681   9.885   4.773
31904SOL     OW97608  12.157  13.710   5.543
31904SOL    HW197609  12.114  13.650   5.483
31904SOL    HW297610  12.132  13.679   5.630
31905SOL     OW97611   6.079   9.082   1.686
31905SOL    HW197612   6.169   9.047   1.691
31905SOL    HW297613   6.067   9.126   1.770
31906SOL     OW97614   6.145   0.767   2.688
31906SOL    HW197615   6.102   0.795   2.607
31906SOL    HW297616   6.080   0.712   2.731
31907SOL     OW97617   2.732   8.355  12.730
31907SOL    HW197618   2.818   8.390  12.708
31907SOL    HW297619   2.751   8.281  12.787
31908SOL     OW97620   3.842   1.583   4.043
31908SOL    HW197621   3.903   1.655   4.061
31908SOL    HW297622   3.861   1.518   4.110
31909SOL     OW97623   9.516  12.890   4.591
31909SOL    HW197624   9.600  12.936   4.593
31909SOL    HW297625   9.451  12.960   4.584
31910SOL     OW97626  10.280   1.589  12.886
31910SOL    HW197627  10.275   1.684  12.884
31910SOL    HW297628  10.189   1.560  12.876
31911SOL     OW97629   8.432  11.581  11.696
31911SOL    HW197630   8.475  11.523  11.633
31911SOL    HW297631   8.340  11.555  11.696
31912SOL     OW97632   7.939  11.286  13.968
31912SOL    HW197633   7.881  11.244  14.032
31912SOL    HW297634   7.885  11.294  13.889
31913SOL     OW97635  13.166  14.419  12.110
31913SOL    HW197636  13.210  14.335  12.104
31913SOL    HW297637  13.081  14.405  12.068
31914SOL     OW97638  10.204   1.100   1.539
31914SOL    HW197639  10.282   1.089   1.485
31914SOL    HW297640  10.194   1.195   1.549
31915SOL     OW97641  14.762   9.590  14.392
31915SOL    HW197642  14.730   9.680  14.393
31915SOL    HW297643  14.857   9.599  14.384
31916SOL     OW97644   2.182   0.975   1.689
31916SOL    HW197645   2.220   0.979   1.601
31916SOL    HW297646   2.100   0.927   1.678
31917SOL     OW97647  12.419  12.975   6.204
31917SOL    HW197648  12.363  13.051   6.186
31917SOL    HW297649  12.508  13.011   6.204
31918SOL     OW97650  13.961   9.087   9.783
31918SOL    HW197651  13.873   9.086   9.745
31918SOL    HW297652  14.013   9.033   9.723
31919SOL     OW97653   2.128   6.240   0.164
31919SOL    HW197654   2.159   6.170   0.222
31919SOL    HW297655   2.037   6.216   0.144
31920SOL     OW97656   3.643  14.220   8.805
31920SOL    HW197657   3.636  14.136   8.759
31920SOL    HW297658   3.673  14.197   8.893
31921SOL     OW97659   3.518   7.002   3.337
31921SOL    HW197660   3.435   7.011   3.290
31921SOL    HW297661   3.496   6.952   3.416
31922SOL     OW97662   4.158   6.762  11.830
31922SOL    HW197663   4.100   6.820  11.878
31922SOL    HW297664   4.177   6.809  11.748
31923SOL     OW97665  14.249   3.622   0.717
31923SOL    HW197666  14.308   3.687   0.757
31923SOL    HW297667  14.226   3.660   0.632
31924SOL     OW97668   8.839   2.353  14.580
31924SOL    HW197669   8.820   2.294  14.507
31924SOL    HW297670   8.754   2.372  14.618
31925SOL     OW97671   0.844  11.815  14.577
31925SOL    HW197672   0.800  11.827  14.661
31925SOL    HW297673   0.935  11.840  14.594
31926SOL     OW97674   8.535   2.082   6.705
31926SOL    HW197675   8.573   2.103   6.620
31926SOL    HW297676   8.588   2.009   6.738
31927SOL     OW97677   1.230   9.269  11.565
31927SOL    HW197678   1.288   9.345  11.558
31927SOL    HW297679   1.147   9.299  11.528
31928SOL     OW97680   2.740   0.755   4.121
31928SOL    HW197681   2.707   0.845   4.125
31928SOL    HW297682   2.808   0.751   4.189
31929SOL     OW97683   4.786   3.551  14.175
31929SOL    HW197684   4.705   3.596  14.200
31929SOL    HW297685   4.852   3.588  14.233
31930SOL     OW97686   6.662  10.627   2.635
31930SOL    HW197687   6.570  10.602   2.635
31930SOL    HW297688   6.662  10.722   2.637
31931SOL     OW97689   2.645  10.982   1.076
31931SOL    HW197690   2.597  10.912   1.120
31931SOL    HW297691   2.585  11.056   1.073
31932SOL     OW97692  11.729   4.122   0.865
31932SOL    HW197693  11.773   4.106   0.781
31932SOL    HW297694  11.727   4.217   0.873
31933SOL     OW97695  13.616   4.590   9.797
31933SOL    HW197696  13.656   4.616   9.880
31933SOL    HW297697  13.688   4.554   9.746
31934SOL     OW97698   4.192   3.052   9.617
31934SOL    HW197699   4.201   3.095   9.532
31934SOL    HW297700   4.282   3.029   9.641
31935SOL     OW97701  14.446  12.471   3.762
31935SOL    HW197702  14.496  12.391   3.780
31935SOL    HW297703  14.506  12.527   3.713
31936SOL     OW97704   8.217   9.918   8.352
31936SOL    HW197705   8.270   9.866   8.413
31936SOL    HW297706   8.143   9.949   8.405
31937SOL     OW97707   7.229   3.818  12.990
31937SOL    HW197708   7.269   3.869  12.920
31937SOL    HW297709   7.219   3.880  13.062
31938SOL     OW97710  11.045  10.364  10.524
31938SOL    HW197711  11.128  10.334  10.562
31938SOL    HW297712  11.029  10.449  10.565
31939SOL     OW97713  14.665   4.664   3.104
31939SOL    HW197714  14.622   4.583   3.077
31939SOL    HW297715  14.746   4.635   3.145
31940SOL     OW97716  14.345   0.035   6.063
31940SOL    HW197717  14.277   0.022   5.996
31940SOL    HW297718  14.406  14.830   6.049
31941SOL     OW97719  13.595   4.642   6.497
31941SOL    HW197720  13.578   4.725   6.452
31941SOL    HW297721  13.509   4.601   6.505
31942SOL     OW97722  10.556   1.102   6.472
31942SOL    HW197723  10.517   1.186   6.497
31942SOL    HW297724  10.639   1.100   6.519
31943SOL     OW97725   8.987   0.230   5.175
31943SOL    HW197726   9.082   0.213   5.175
31943SOL    HW297727   8.951   0.162   5.118
31944SOL     OW97728   5.380   2.016  13.158
31944SOL    HW197729   5.297   2.036  13.114
31944SOL    HW297730   5.397   1.924  13.138
31945SOL     OW97731   9.625   9.209   0.008
31945SOL    HW197732   9.592   9.264   0.079
31945SOL    HW297733   9.713   9.185   0.035
31946SOL     OW97734   9.501   7.236   4.589
31946SOL    HW197735   9.533   7.245   4.500
31946SOL    HW297736   9.406   7.234   4.580
31947SOL     OW97737  10.901   6.785   7.246
31947SOL    HW197738  10.906   6.787   7.341
31947SOL    HW297739  10.992   6.784   7.217
31948SOL     OW97740   9.414   3.378   6.148
31948SOL    HW197741   9.430   3.446   6.082
31948SOL    HW297742   9.469   3.305   6.121
31949SOL     OW97743   9.472  12.117   0.079
31949SOL    HW197744   9.525  12.091   0.155
31949SOL    HW297745   9.509  12.201   0.052
31950SOL     OW97746   9.577  12.692   6.438
31950SOL    HW197747   9.484  12.704   6.419
31950SOL    HW297748   9.587  12.598   6.452
31951SOL     OW97749   5.755  13.724   0.498
31951SOL    HW197750   5.672  13.770   0.511
31951SOL    HW297751   5.764  13.668   0.574
31952SOL     OW97752  13.902  10.526   3.867
31952SOL    HW197753  13.909  10.469   3.791
31952SOL    HW297754  13.829  10.490   3.918
31953SOL     OW97755   6.475  11.230   8.479
31953SOL    HW197756   6.410  11.275   8.534
31953SOL    HW297757   6.505  11.157   8.533
31954SOL     OW97758  14.078   1.333  13.276
31954SOL    HW197759  14.059   1.403  13.213
31954SOL    HW297760  13.993   1.303  13.306
31955SOL     OW97761   8.200   7.276  11.070
31955SOL    HW197762   8.170   7.363  11.097
31955SOL    HW297763   8.262   7.250  11.138
31956SOL     OW97764   8.503  11.838  14.480
31956SOL    HW197765   8.586  11.832  14.528
31956SOL    HW297766   8.523  11.895  14.405
31957SOL     OW97767   1.291  12.457   5.722
31957SOL    HW197768   1.374  12.505   5.717
31957SOL    HW297769   1.317  12.365   5.724
31958SOL     OW97770   5.033   4.368   6.595
31958SOL    HW197771   5.117   4.322   6.588
31958SOL    HW297772   5.047   4.434   6.662
31959SOL     OW97773   3.200   7.043   0.954
31959SOL    HW197774   3.131   7.038   0.888
31959SOL    HW297775   3.153   7.039   1.038
31960SOL     OW97776   0.036   6.905   4.316
31960SOL    HW197777   0.064   6.952   4.394
31960SOL    HW297778   0.114   6.904   4.259
31961SOL     OW97779   0.948   0.975  12.040
31961SOL    HW197780   1.017   0.969  11.974
31961SOL    HW297781   0.870   1.002  11.991
31962SOL     OW97782   7.908   6.107   7.391
31962SOL    HW197783   7.945   6.045   7.454
31962SOL    HW297784   7.814   6.109   7.411
31963SOL     OW97785  12.466   6.285   2.201
31963SOL    HW197786  12.453   6.191   2.212
31963SOL    HW297787  12.389   6.325   2.240
31964SOL     OW97788   3.547   9.449   8.937
31964SOL    HW197789   3.530   9.521   8.876
31964SOL    HW297790   3.594   9.385   8.885
31965SOL     OW97791   8.146   1.926   1.330
31965SOL    HW197792   8.141   1.902   1.423
31965SOL    HW297793   8.221   1.877   1.296
31966SOL     OW97794  10.715   6.902   3.109
31966SOL    HW197795  10.699   6.937   3.021
31966SOL    HW297796  10.710   6.807   3.098
31967SOL     OW97797   3.300   0.226   2.631
31967SOL    HW197798   3.270   0.226   2.540
31967SOL    HW297799   3.219   0.230   2.682
31968SOL     OW97800   1.846   1.817   9.266
31968SOL    HW197801   1.817   1.908   9.253
31968SOL    HW297802   1.856   1.809   9.361
31969SOL     OW97803  10.600   1.812  10.309
31969SOL    HW197804  10.512   1.845  10.325
31969SOL    HW297805  10.650   1.836  10.387
31970SOL     OW97806   9.664  11.377  14.567
31970SOL    HW197807   9.653  11.466  14.533
31970SOL    HW297808   9.741  11.343  14.520
31971SOL     OW97809  12.651   5.819   0.354
31971SOL    HW197810  12.697   5.754   0.301
31971SOL    HW297811  12.559   5.794   0.348
31972SOL     OW97812   8.809   0.453   2.314
31972SOL    HW197813   8.746   0.447   2.386
31972SOL    HW297814   8.857   0.535   2.330
31973SOL     OW97815   1.062  13.661  11.482
31973SOL    HW197816   1.125  13.648  11.553
31973SOL    HW297817   1.025  13.748  11.497
31974SOL     OW97818  13.163   7.924   6.832
31974SOL    HW197819  13.079   7.878   6.826
31974SOL    HW297820  13.160   7.969   6.916
31975SOL     OW97821  10.000  11.521   6.304
31975SOL    HW197822   9.914  11.531   6.263
31975SOL    HW297823  10.024  11.430   6.288
31976SOL     OW97824   8.459  12.262   6.470
31976SOL    HW197825   8.471  12.177   6.426
31976SOL    HW297826   8.448  12.324   6.398
31977SOL     OW97827  14.298   2.580   0.596
31977SOL    HW197828  14.243   2.630   0.657
31977SOL    HW297829  14.307   2.494   0.636
31978SOL     OW97830  11.175   6.773   5.112
31978SOL    HW197831  11.268   6.765   5.094
31978SOL    HW297832  11.138   6.816   5.035
31979SOL     OW97833   4.514  11.795   7.026
31979SOL    HW197834   4.440  11.762   6.976
31979SOL    HW297835   4.589  11.743   6.996
31980SOL     OW97836   3.482   7.106  12.617
31980SOL    HW197837   3.576   7.085  12.614
31980SOL    HW297838   3.441   7.039  12.562
31981SOL     OW97839   1.566  13.456   1.312
31981SOL    HW197840   1.659  13.439   1.301
31981SOL    HW297841   1.544  13.417   1.397
31982SOL     OW97842   4.853  11.671   7.284
31982SOL    HW197843   4.811  11.747   7.324
31982SOL    HW297844   4.933  11.706   7.244
31983SOL     OW97845  13.645   7.699   8.030
31983SOL    HW197846  13.727   7.708   7.981
31983SOL    HW297847  13.591   7.641   7.976
31984SOL     OW97848   5.722   0.143  13.703
31984SOL    HW197849   5.766   0.064  13.736
31984SOL    HW297850   5.793   0.205  13.686
31985SOL     OW97851   2.818  10.052   4.160
31985SOL    HW197852   2.849   9.967   4.193
31985SOL    HW297853   2.769  10.089   4.234
31986SOL     OW97854   7.248   9.803   0.422
31986SOL    HW197855   7.249   9.747   0.499
31986SOL    HW297856   7.155   9.812   0.399
31987SOL     OW97857   3.031   6.497  14.253
31987SOL    HW197858   3.075   6.494  14.338
31987SOL    HW297859   3.047   6.586  14.221
31988SOL     OW97860   1.458   1.697   4.024
31988SOL    HW197861   1.502   1.622   4.064
31988SOL    HW297862   1.387   1.659   3.973
31989SOL     OW97863  13.824   9.209  11.032
31989SOL    HW197864  13.840   9.145  10.963
31989SOL    HW297865  13.733   9.196  11.058
31990SOL     OW97866   2.918   2.739   7.333
31990SOL    HW197867   2.939   2.821   7.377
31990SOL    HW297868   2.834   2.713   7.370
31991SOL     OW97869  13.397   2.938   5.387
31991SOL    HW197870  13.489   2.951   5.368
31991SOL    HW297871  13.394   2.862   5.445
31992SOL     OW97872   6.682   4.779   9.138
31992SOL    HW197873   6.673   4.748   9.228
31992SOL    HW297874   6.604   4.834   9.124
31993SOL     OW97875  11.736   4.094   7.071
31993SOL    HW197876  11.797   4.118   7.141
31993SOL    HW297877  11.722   4.175   7.023
31994SOL     OW97878   6.106   3.302   9.021
31994SOL    HW197879   6.190   3.320   8.980
31994SOL    HW297880   6.106   3.357   9.100
31995SOL     OW97881   9.779   8.527   1.770
31995SOL    HW197882   9.827   8.605   1.799
31995SOL    HW297883   9.687   8.554   1.772
31996SOL     OW97884   4.355  13.571   6.578
31996SOL    HW197885   4.350  13.611   6.665
31996SOL    HW297886   4.429  13.509   6.585
31997SOL     OW97887   0.652   3.883   5.226
31997SOL    HW197888   0.620   3.972   5.211
31997SOL    HW297889   0.655   3.843   5.139
31998SOL     OW97890   4.738   8.489   5.167
31998SOL    HW197891   4.810   8.514   5.226
31998SOL    HW297892   4.768   8.407   5.127
31999SOL     OW97893  10.134  10.519   7.622
31999SOL    HW197894  10.051  10.558   7.594
31999SOL    HW297895  10.125  10.426   7.599
32000SOL     OW97896  10.440   1.837   9.687
32000SOL    HW197897  10.402   1.924   9.683
32000SOL    HW297898  10.535   1.852   9.692
32001SOL     OW97899   6.963  11.063  14.409
32001SOL    HW197900   6.872  11.095  14.409
32001SOL    HW297901   6.991  11.073  14.500
32002SOL     OW97902   8.101  14.399  10.032
32002SOL    HW197903   8.188  14.386   9.994
32002SOL    HW297904   8.102  14.489  10.064
32003SOL     OW97905   9.814   7.955   9.001
32003SOL    HW197906   9.855   7.876   8.965
32003SOL    HW297907   9.778   7.928   9.085
32004SOL     OW97908  10.830   3.993   3.462
32004SOL    HW197909  10.923   3.985   3.483
32004SOL    HW297910  10.804   4.077   3.501
32005SOL     OW97911   9.307   5.372   1.690
32005SOL    HW197912   9.310   5.435   1.763
32005SOL    HW297913   9.320   5.287   1.732
32006SOL     OW97914   7.739   9.421  11.314
32006SOL    HW197915   7.821   9.418  11.265
32006SOL    HW297916   7.712   9.513  11.309
32007SOL     OW97917   6.839   0.777   4.974
32007SOL    HW197918   6.913   0.765   4.915
32007SOL    HW297919   6.793   0.853   4.940
32008SOL     OW97920   7.553  11.694   6.669
32008SOL    HW197921   7.528  11.604   6.689
32008SOL    HW297922   7.636  11.686   6.621
32009SOL     OW97923   0.879   6.538   5.323
32009SOL    HW197924   0.845   6.565   5.237
32009SOL    HW297925   0.932   6.613   5.352
32010SOL     OW97926   1.660   4.326  11.523
32010SOL    HW197927   1.712   4.304  11.445
32010SOL    HW297928   1.569   4.316  11.496
32011SOL     OW97929   2.337  10.083   0.406
32011SOL    HW197930   2.269  10.096   0.340
32011SOL    HW297931   2.329  10.158   0.464
32012SOL     OW97932  13.101  13.018  10.039
32012SOL    HW197933  13.170  13.075  10.005
32012SOL    HW297934  13.143  12.966  10.107
32013SOL     OW97935  12.751  10.439  11.937
32013SOL    HW197936  12.834  10.400  11.909
32013SOL    HW297937  12.735  10.509  11.873
32014SOL     OW97938   2.208  14.081  10.938
32014SOL    HW197939   2.217  14.041  11.024
32014SOL    HW297940   2.290  14.128  10.923
32015SOL     OW97941   5.729  12.637  10.424
32015SOL    HW197942   5.820  12.609  10.421
32015SOL    HW297943   5.692  12.608  10.340
32016SOL     OW97944   7.452   7.301  14.835
32016SOL    HW197945   7.423   7.234  14.772
32016SOL    HW297946   7.460   7.380  14.782
32017SOL     OW97947   2.761   7.209   3.299
32017SOL    HW197948   2.668   7.221   3.285
32017SOL    HW297949   2.768   7.171   3.387
32018SOL     OW97950   7.172   9.314   8.417
32018SOL    HW197951   7.161   9.233   8.467
32018SOL    HW297952   7.103   9.371   8.450
32019SOL     OW97953   1.238   3.561   1.001
32019SOL    HW197954   1.260   3.472   0.974
32019SOL    HW297955   1.213   3.605   0.920
32020SOL     OW97956  12.599  12.369   6.959
32020SOL    HW197957  12.585  12.461   6.937
32020SOL    HW297958  12.565  12.361   7.048
32021SOL     OW97959  14.386  13.011  10.047
32021SOL    HW197960  14.369  13.045   9.959
32021SOL    HW297961  14.380  13.089  10.104
32022SOL     OW97962  11.944   7.731  12.913
32022SOL    HW197963  12.000   7.801  12.879
32022SOL    HW297964  11.866   7.733  12.858
32023SOL     OW97965   3.837   0.064   2.684
32023SOL    HW197966   3.829  14.857   2.743
32023SOL    HW297967   3.886   0.130   2.735
32024SOL     OW97968  13.968  12.187   1.620
32024SOL    HW197969  13.880  12.180   1.583
32024SOL    HW297970  13.988  12.099   1.653
32025SOL     OW97971   7.571   4.062  14.379
32025SOL    HW197972   7.534   4.146  14.351
32025SOL    HW297973   7.665   4.075  14.376
32026SOL     OW97974   1.401   2.109  12.620
32026SOL    HW197975   1.377   2.180  12.560
32026SOL    HW297976   1.349   2.126  12.699
32027SOL     OW97977   4.475  13.319  10.417
32027SOL    HW197978   4.455  13.263  10.342
32027SOL    HW297979   4.397  13.313  10.473
32028SOL     OW97980   9.116   3.739   0.497
32028SOL    HW197981   9.204   3.773   0.478
32028SOL    HW297982   9.059   3.784   0.435
32029SOL     OW97983  12.892  11.843   0.667
32029SOL    HW197984  12.916  11.890   0.587
32029SOL    HW297985  12.800  11.819   0.655
32030SOL     OW97986   1.774   2.420  13.221
32030SOL    HW197987   1.829   2.473  13.163
32030SOL    HW297988   1.739   2.352  13.164
32031SOL     OW97989   3.734   5.936   7.700
32031SOL    HW197990   3.798   5.886   7.753
32031SOL    HW297991   3.762   6.027   7.709
32032SOL     OW97992   3.440   0.990   6.661
32032SOL    HW197993   3.495   1.047   6.714
32032SOL    HW297994   3.500   0.947   6.600
32033SOL     OW97995   4.167   9.092   9.922
32033SOL    HW197996   4.097   9.109   9.859
32033SOL    HW297997   4.243   9.071   9.868
32034SOL     OW97998  12.318  11.567   7.413
32034SOL    HW197999  12.294  11.655   7.444
32034SOL    HW298000  12.234  11.527   7.391
32035SOL     OW98001   1.370   1.280   4.934
32035SOL    HW198002   1.338   1.294   4.845
32035SOL    HW298003   1.439   1.214   4.925
32036SOL     OW98004   5.687   4.628   8.098
32036SOL    HW198005   5.734   4.594   8.174
32036SOL    HW298006   5.755   4.660   8.039
32037SOL     OW98007   2.611   8.195   0.154
32037SOL    HW198008   2.567   8.279   0.143
32037SOL    HW298009   2.677   8.211   0.222
32038SOL     OW98010  13.917   7.788   9.143
32038SOL    HW198011  13.834   7.741   9.144
32038SOL    HW298012  13.925   7.819   9.053
32039SOL     OW98013   8.956  12.729  10.152
32039SOL    HW198014   9.025  12.763  10.096
32039SOL    HW298015   8.951  12.636  10.130
32040SOL     OW98016   8.178   2.710   0.440
32040SOL    HW198017   8.105   2.727   0.381
32040SOL    HW298018   8.152   2.753   0.522
32041SOL     OW98019   7.928   3.614  11.396
32041SOL    HW198020   7.900   3.599  11.306
32041SOL    HW298021   7.870   3.682  11.428
32042SOL     OW98022  10.001   6.751   9.494
32042SOL    HW198023   9.926   6.793   9.452
32042SOL    HW298024  10.047   6.823   9.538
32043SOL     OW98025   4.979   5.987   4.654
32043SOL    HW198026   4.943   5.980   4.742
32043SOL    HW298027   4.905   6.016   4.600
32044SOL     OW98028  13.276   4.811  13.399
32044SOL    HW198029  13.368   4.834  13.408
32044SOL    HW298030  13.237   4.833  13.484
32045SOL     OW98031   2.441   9.225   5.412
32045SOL    HW198032   2.423   9.225   5.506
32045SOL    HW298033   2.376   9.284   5.375
32046SOL     OW98034  13.902   6.773   7.880
32046SOL    HW198035  13.921   6.745   7.969
32046SOL    HW298036  13.806   6.778   7.876
32047SOL     OW98037   3.099   2.593   7.205
32047SOL    HW198038   3.050   2.654   7.260
32047SOL    HW298039   3.034   2.559   7.143
32048SOL     OW98040  11.158   1.030  12.225
32048SOL    HW198041  11.191   0.995  12.143
32048SOL    HW298042  11.129   0.953  12.274
32049SOL     OW98043   4.634  10.659   8.153
32049SOL    HW198044   4.704  10.612   8.107
32049SOL    HW298045   4.679  10.726   8.203
32050SOL     OW98046   8.660   2.674   6.564
32050SOL    HW198047   8.609   2.699   6.642
32050SOL    HW298048   8.622   2.591   6.536
32051SOL     OW98049   1.129   3.671   4.635
32051SOL    HW198050   1.121   3.758   4.674
32051SOL    HW298051   1.088   3.612   4.699
32052SOL     OW98052  11.535  13.339   7.722
32052SOL    HW198053  11.475  13.272   7.757
32052SOL    HW298054  11.483  13.420   7.726
32053SOL     OW98055   7.735   2.928  12.838
32053SOL    HW198056   7.647   2.907  12.867
32053SOL    HW298057   7.723   2.993  12.769
32054SOL     OW98058  13.667   2.385   2.432
32054SOL    HW198059  13.739   2.323   2.444
32054SOL    HW298060  13.708   2.471   2.441
32055SOL     OW98061   0.026   0.989   4.951
32055SOL    HW198062   0.117   0.959   4.945
32055SOL    HW298063  14.862   0.953   5.033
32056SOL     OW98064   4.306  12.545  13.959
32056SOL    HW198065   4.397  12.568  13.977
32056SOL    HW298066   4.268  12.523  14.044
32057SOL     OW98067   8.788  14.410   3.801
32057SOL    HW198068   8.869  14.450   3.769
32057SOL    HW298069   8.749  14.478   3.856
32058SOL     OW98070   2.047  11.901   9.269
32058SOL    HW198071   2.024  11.983   9.314
32058SOL    HW298072   2.024  11.833   9.332
32059SOL     OW98073   8.322   6.709   5.785
32059SOL    HW198074   8.244   6.671   5.743
32059SOL    HW298075   8.287   6.758   5.859
32060SOL     OW98076   2.448  13.250   1.259
32060SOL    HW198077   2.423  13.276   1.170
32060SOL    HW298078   2.497  13.169   1.247
32061SOL     OW98079   6.784   7.035   9.520
32061SOL    HW198080   6.747   7.076   9.598
32061SOL    HW298081   6.828   7.106   9.473
32062SOL     OW98082   2.377   3.513  14.201
32062SOL    HW198083   2.466   3.486  14.181
32062SOL    HW298084   2.331   3.432  14.221
32063SOL     OW98085   9.828   8.670  12.992
32063SOL    HW198086   9.760   8.727  12.953
32063SOL    HW298087   9.881   8.643  12.917
32064SOL     OW98088   7.532  12.607  13.618
32064SOL    HW198089   7.438  12.589  13.613
32064SOL    HW298090   7.573  12.520  13.618
32065SOL     OW98091   3.889   6.990  11.572
32065SOL    HW198092   3.984   6.998  11.578
32065SOL    HW298093   3.874   6.946  11.488
32066SOL     OW98094   1.014   2.211   9.875
32066SOL    HW198095   1.071   2.150   9.828
32066SOL    HW298096   0.961   2.252   9.807
32067SOL     OW98097  10.146   6.986  14.058
32067SOL    HW198098  10.173   7.060  14.112
32067SOL    HW298099  10.163   6.909  14.112
32068SOL     OW98100  13.337   5.575   4.465
32068SOL    HW198101  13.378   5.660   4.480
32068SOL    HW298102  13.373   5.519   4.534
32069SOL     OW98103   9.966   3.656   4.783
32069SOL    HW198104   9.924   3.584   4.735
32069SOL    HW298105  10.060   3.646   4.764
32070SOL     OW98106   9.105  10.378   0.588
32070SOL    HW198107   9.072  10.384   0.498
32070SOL    HW298108   9.180  10.437   0.590
32071SOL     OW98109  13.008  13.250   2.244
32071SOL    HW198110  13.078  13.187   2.230
32071SOL    HW298111  12.954  13.211   2.313
32072SOL     OW98112   2.929  10.904   1.436
32072SOL    HW198113   2.868  10.958   1.386
32072SOL    HW298114   2.943  10.953   1.517
32073SOL     OW98115  14.790   4.272   8.260
32073SOL    HW198116  14.738   4.215   8.317
32073SOL    HW298117  14.725   4.321   8.210
32074SOL     OW98118   8.665  14.266   3.436
32074SOL    HW198119   8.726  14.252   3.508
32074SOL    HW298120   8.581  14.280   3.478
32075SOL     OW98121   5.124   8.236  12.852
32075SOL    HW198122   5.176   8.198  12.922
32075SOL    HW298123   5.127   8.331  12.868
32076SOL     OW98124   8.772  13.921  11.317
32076SOL    HW198125   8.733  13.896  11.401
32076SOL    HW298126   8.832  13.993  11.338
32077SOL     OW98127   8.647   5.972   2.688
32077SOL    HW198128   8.638   5.917   2.610
32077SOL    HW298129   8.648   5.909   2.760
32078SOL     OW98130  13.497   3.312  11.421
32078SOL    HW198131  13.563   3.323  11.489
32078SOL    HW298132  13.431   3.379  11.441
32079SOL     OW98133   1.191   3.308  14.771
32079SOL    HW198134   1.166   3.240  14.833
32079SOL    HW298135   1.135   3.293  14.695
32080SOL     OW98136  13.092   6.836   6.629
32080SOL    HW198137  13.028   6.891   6.674
32080SOL    HW298138  13.058   6.747   6.639
32081SOL     OW98139   3.824   5.479  13.775
32081SOL    HW198140   3.765   5.443  13.708
32081SOL    HW298141   3.904   5.427  13.766
32082SOL     OW98142  12.656  12.000  12.747
32082SOL    HW198143  12.730  11.942  12.730
32082SOL    HW298144  12.582  11.941  12.761
32083SOL     OW98145   8.845  11.945   5.778
32083SOL    HW198146   8.841  11.987   5.864
32083SOL    HW298147   8.872  12.015   5.719
32084SOL     OW98148  14.259  12.394  13.697
32084SOL    HW198149  14.188  12.450  13.665
32084SOL    HW298150  14.229  12.365  13.783
32085SOL     OW98151   7.195  12.929   6.531
32085SOL    HW198152   7.226  12.856   6.478
32085SOL    HW298153   7.224  12.909   6.620
32086SOL     OW98154   0.734   4.568   2.681
32086SOL    HW198155   0.785   4.505   2.732
32086SOL    HW298156   0.665   4.597   2.740
32087SOL     OW98157   5.073   8.049   1.721
32087SOL    HW198158   5.020   7.981   1.763
32087SOL    HW298159   5.011   8.119   1.701
32088SOL     OW98160  10.779   3.265   6.803
32088SOL    HW198161  10.795   3.260   6.897
32088SOL    HW298162  10.715   3.336   6.793
32089SOL     OW98163  13.161   6.443   9.489
32089SOL    HW198164  13.142   6.533   9.461
32089SOL    HW298165  13.243   6.449   9.537
32090SOL     OW98166   1.701   3.844  10.654
32090SOL    HW198167   1.780   3.896  10.669
32090SOL    HW298168   1.728   3.777  10.592
32091SOL     OW98169  12.887   6.013   5.184
32091SOL    HW198170  12.957   6.005   5.119
32091SOL    HW298171  12.813   5.967   5.145
32092SOL     OW98172  10.565  13.809   7.643
32092SOL    HW198173  10.569  13.714   7.654
32092SOL    HW298174  10.474  13.828   7.622
32093SOL     OW98175   1.758   1.705  13.846
32093SOL    HW198176   1.767   1.775  13.911
32093SOL    HW298177   1.789   1.626  13.892
32094SOL     OW98178  10.414  11.374   9.138
32094SOL    HW198179  10.477  11.306   9.160
32094SOL    HW298180  10.454  11.455   9.170
32095SOL     OW98181  12.157   1.110  10.582
32095SOL    HW198182  12.075   1.141  10.542
32095SOL    HW298183  12.195   1.189  10.621
32096SOL     OW98184   4.492   8.780  10.704
32096SOL    HW198185   4.420   8.736  10.659
32096SOL    HW298186   4.527   8.841  10.639
32097SOL     OW98187   5.921  10.855   6.529
32097SOL    HW198188   6.007  10.813   6.533
32097SOL    HW298189   5.919  10.897   6.444
32098SOL     OW98190  11.760   6.792   2.774
32098SOL    HW198191  11.680   6.824   2.818
32098SOL    HW298192  11.748   6.817   2.683
32099SOL     OW98193   7.767  10.388   5.722
32099SOL    HW198194   7.813  10.435   5.653
32099SOL    HW298195   7.830  10.385   5.795
32100SOL     OW98196  12.903   7.941   2.631
32100SOL    HW198197  12.884   7.853   2.599
32100SOL    HW298198  12.831   7.995   2.598
32101SOL     OW98199   9.736   2.104  14.527
32101SOL    HW198200   9.724   2.075  14.437
32101SOL    HW298201   9.683   2.183  14.535
32102SOL     OW98202   6.600  12.312   0.835
32102SOL    HW198203   6.644  12.272   0.760
32102SOL    HW298204   6.671  12.352   0.885
32103SOL     OW98205   7.672   0.156   5.372
32103SOL    HW198206   7.678   0.128   5.463
32103SOL    HW298207   7.683   0.251   5.375
32104SOL     OW98208   0.306   8.673   6.290
32104SOL    HW198209   0.400   8.690   6.293
32104SOL    HW298210   0.289   8.615   6.364
32105SOL     OW98211   8.729   2.511   5.835
32105SOL    HW198212   8.745   2.543   5.746
32105SOL    HW298213   8.637   2.530   5.851
32106SOL     OW98214   9.427   6.233  12.086
32106SOL    HW198215   9.434   6.276  12.001
32106SOL    HW298216   9.337   6.201  12.090
32107SOL     OW98217   2.241   9.402   5.290
32107SOL    HW198218   2.196   9.485   5.304
32107SOL    HW298219   2.309   9.422   5.225
32108SOL     OW98220  12.749   9.835   4.571
32108SOL    HW198221  12.791   9.807   4.652
32108SOL    HW298222  12.820   9.839   4.507
32109SOL     OW98223  11.036   5.474   8.457
32109SOL    HW198224  11.130   5.465   8.442
32109SOL    HW298225  10.998   5.394   8.420
32110SOL     OW98226   7.433  11.970   2.055
32110SOL    HW198227   7.442  12.061   2.084
32110SOL    HW298228   7.421  11.921   2.136
32111SOL     OW98229  11.993  11.852   8.713
32111SOL    HW198230  12.074  11.873   8.668
32111SOL    HW298231  11.982  11.922   8.778
32112SOL     OW98232   4.206  13.458   4.933
32112SOL    HW198233   4.176  13.512   5.007
32112SOL    HW298234   4.151  13.485   4.860
32113SOL     OW98235   9.025  11.473   5.449
32113SOL    HW198236   8.965  11.414   5.404
32113SOL    HW298237   9.112  11.436   5.433
32114SOL     OW98238   6.137  10.692   9.048
32114SOL    HW198239   6.160  10.670   8.958
32114SOL    HW298240   6.066  10.631   9.070
32115SOL     OW98241  12.733  13.433   5.165
32115SOL    HW198242  12.824  13.460   5.151
32115SOL    HW298243  12.690  13.449   5.081
32116SOL     OW98244   5.477  14.813   7.907
32116SOL    HW198245   5.460  14.802   7.813
32116SOL    HW298246   5.433   0.027   7.930
32117SOL     OW98247   8.492   5.568  10.220
32117SOL    HW198248   8.527   5.505  10.156
32117SOL    HW298249   8.556   5.640  10.220
32118SOL     OW98250   9.299   7.152   4.040
32118SOL    HW198251   9.238   7.165   3.968
32118SOL    HW298252   9.298   7.234   4.089
32119SOL     OW98253  11.559   0.676   4.333
32119SOL    HW198254  11.647   0.708   4.354
32119SOL    HW298255  11.505   0.708   4.405
32120SOL     OW98256  13.836   1.003  14.638
32120SOL    HW198257  13.794   1.068  14.582
32120SOL    HW298258  13.891   1.054  14.697
32121SOL     OW98259   5.269  14.244  12.572
32121SOL    HW198260   5.325  14.264  12.498
32121SOL    HW298261   5.232  14.158  12.553
32122SOL     OW98262  12.298   9.791   8.855
32122SOL    HW198263  12.347   9.872   8.871
32122SOL    HW298264  12.364   9.729   8.825
32123SOL     OW98265   6.599   6.982   3.966
32123SOL    HW198266   6.667   6.978   4.033
32123SOL    HW298267   6.517   6.980   4.015
32124SOL     OW98268  12.959  14.007   8.888
32124SOL    HW198269  13.000  13.923   8.864
32124SOL    HW298270  12.868  13.985   8.908
32125SOL     OW98271  11.193   5.823  14.174
32125SOL    HW198272  11.219   5.739  14.212
32125SOL    HW298273  11.275   5.872  14.166
32126SOL     OW98274   3.959  13.802   5.457
32126SOL    HW198275   3.886  13.741   5.445
32126SOL    HW298276   3.994  13.781   5.544
32127SOL     OW98277   4.451   3.667   0.524
32127SOL    HW198278   4.355   3.662   0.521
32127SOL    HW298279   4.480   3.576   0.515
32128SOL     OW98280  13.837  14.067   6.875
32128SOL    HW198281  13.931  14.049   6.883
32128SOL    HW298282  13.827  14.154   6.913
32129SOL     OW98283  13.010   4.259   9.219
32129SOL    HW198284  13.058   4.339   9.239
32129SOL    HW298285  13.049   4.192   9.276
32130SOL     OW98286   2.607   8.044   4.203
32130SOL    HW198287   2.568   8.082   4.282
32130SOL    HW298288   2.614   8.117   4.142
32131SOL     OW98289   5.276   1.529  10.894
32131SOL    HW198290   5.369   1.549  10.907
32131SOL    HW298291   5.230   1.585  10.957
32132SOL     OW98292   0.121   9.049   0.676
32132SOL    HW198293   0.035   9.090   0.681
32132SOL    HW298294   0.110   8.975   0.616
32133SOL     OW98295   9.119   8.308   8.756
32133SOL    HW198296   9.138   8.216   8.771
32133SOL    HW298297   9.172   8.355   8.820
32134SOL     OW98298   3.080  10.433  14.473
32134SOL    HW198299   3.117  10.435  14.385
32134SOL    HW298300   3.008  10.496  14.470
32135SOL     OW98301   1.235  10.534   9.905
32135SOL    HW198302   1.273  10.491   9.829
32135SOL    HW298303   1.142  10.512   9.901
32136SOL     OW98304   3.853   6.349  13.402
32136SOL    HW198305   3.906   6.312  13.473
32136SOL    HW298306   3.906   6.338  13.323
32137SOL     OW98307   0.456  12.541   0.831
32137SOL    HW198308   0.438  12.449   0.850
32137SOL    HW298309   0.481  12.542   0.739
32138SOL     OW98310   1.986  11.905  10.522
32138SOL    HW198311   2.041  11.917  10.600
32138SOL    HW298312   2.020  11.969  10.459
32139SOL     OW98313  12.562   0.588   0.200
32139SOL    HW198314  12.484   0.637   0.227
32139SOL    HW298315  12.634   0.649   0.213
32140SOL     OW98316   6.900   1.452   1.132
32140SOL    HW198317   6.911   1.422   1.223
32140SOL    HW298318   6.899   1.547   1.138
32141SOL     OW98319   6.817   3.430  11.567
32141SOL    HW198320   6.831   3.510  11.516
32141SOL    HW298321   6.806   3.361  11.502
32142SOL     OW98322  13.790   1.370  12.593
32142SOL    HW198323  13.697   1.377  12.571
32142SOL    HW298324  13.835   1.362  12.508
32143SOL     OW98325   1.462   9.397  12.961
32143SOL    HW198326   1.463   9.488  12.991
32143SOL    HW298327   1.524   9.396  12.888
32144SOL     OW98328   1.278   7.048  13.206
32144SOL    HW198329   1.365   7.087  13.218
32144SOL    HW298330   1.248   7.028  13.295
32145SOL     OW98331   5.660   6.501   6.399
32145SOL    HW198332   5.599   6.573   6.380
32145SOL    HW298333   5.699   6.524   6.483
32146SOL     OW98334   9.737   5.951   2.755
32146SOL    HW198335   9.723   6.001   2.674
32146SOL    HW298336   9.660   5.895   2.761
32147SOL     OW98337   6.903   1.414   3.674
32147SOL    HW198338   6.925   1.487   3.617
32147SOL    HW298339   6.820   1.440   3.715
32148SOL     OW98340   3.461  14.429   6.509
32148SOL    HW198341   3.456  14.344   6.465
32148SOL    HW298342   3.446  14.493   6.440
32149SOL     OW98343   2.146   4.595   6.026
32149SOL    HW198344   2.123   4.596   5.933
32149SOL    HW298345   2.136   4.504   6.052
32150SOL     OW98346  12.928   9.189   7.061
32150SOL    HW198347  12.966   9.196   7.148
32150SOL    HW298348  12.845   9.237   7.067
32151SOL     OW98349   3.690   8.142   0.910
32151SOL    HW198350   3.697   8.233   0.940
32151SOL    HW298351   3.681   8.150   0.815
32152SOL     OW98352   7.278   1.656  13.108
32152SOL    HW198353   7.253   1.669  13.199
32152SOL    HW298354   7.202   1.687  13.058
32153SOL     OW98355   7.184  11.655   0.511
32153SOL    HW198356   7.243  11.705   0.568
32153SOL    HW298357   7.147  11.587   0.568
32154SOL     OW98358   0.939   8.047  14.792
32154SOL    HW198359   0.882   8.105  14.842
32154SOL    HW298360   0.958   7.974  14.851
32155SOL     OW98361   8.639  13.931   1.048
32155SOL    HW198362   8.560  13.910   0.998
32155SOL    HW298363   8.650  14.025   1.037
32156SOL     OW98364   0.418   0.170  14.189
32156SOL    HW198365   0.339   0.116  14.182
32156SOL    HW298366   0.400   0.228  14.263
32157SOL     OW98367  13.490  12.268  10.402
32157SOL    HW198368  13.581  12.240  10.398
32157SOL    HW298369  13.486  12.328  10.477
32158SOL     OW98370  13.971   4.005  14.433
32158SOL    HW198371  13.915   3.976  14.505
32158SOL    HW298372  13.937   4.092  14.409
32159SOL     OW98373   6.188   2.587   8.006
32159SOL    HW198374   6.264   2.634   7.972
32159SOL    HW298375   6.170   2.628   8.090
32160SOL     OW98376   9.719   4.479   6.184
32160SOL    HW198377   9.663   4.411   6.146
32160SOL    HW298378   9.671   4.560   6.169
32161SOL     OW98379   2.257   6.535   4.705
32161SOL    HW198380   2.180   6.502   4.660
32161SOL    HW298381   2.331   6.512   4.648
32162SOL     OW98382   2.889   4.155   9.678
32162SOL    HW198383   2.929   4.078   9.639
32162SOL    HW298384   2.906   4.226   9.615
32163SOL     OW98385   7.742   0.473   0.735
32163SOL    HW198386   7.735   0.389   0.689
32163SOL    HW298387   7.667   0.474   0.795
32164SOL     OW98388  12.700  12.591   1.902
32164SOL    HW198389  12.718  12.503   1.935
32164SOL    HW298390  12.650  12.576   1.822
32165SOL     OW98391   4.480   5.479  11.816
32165SOL    HW198392   4.556   5.467  11.760
32165SOL    HW298393   4.406   5.445  11.766
32166SOL     OW98394   4.029  13.540  10.989
32166SOL    HW198395   4.024  13.450  11.022
32166SOL    HW298396   4.057  13.591  11.065
32167SOL     OW98397  11.897  14.263  13.168
32167SOL    HW198398  11.951  14.300  13.237
32167SOL    HW298399  11.890  14.333  13.103
32168SOL     OW98400  13.823   9.846  14.024
32168SOL    HW198401  13.770   9.849  14.104
32168SOL    HW298402  13.907   9.884  14.050
32169SOL     OW98403  12.470   4.451   0.979
32169SOL    HW198404  12.445   4.362   0.955
32169SOL    HW298405  12.464   4.500   0.897
32170SOL     OW98406  10.379  14.415   4.454
32170SOL    HW198407  10.311  14.348   4.452
32170SOL    HW298408  10.350  14.477   4.522
32171SOL     OW98409   3.834   3.815  11.681
32171SOL    HW198410   3.916   3.818  11.730
32171SOL    HW298411   3.815   3.906  11.658
32172SOL     OW98412   4.464   4.139   6.659
32172SOL    HW198413   4.513   4.110   6.582
32172SOL    HW298414   4.432   4.226   6.637
32173SOL     OW98415   9.245  11.412  10.780
32173SOL    HW198416   9.313  11.381  10.840
32173SOL    HW298417   9.221  11.334  10.730
32174SOL     OW98418   3.381  13.816   4.104
32174SOL    HW198419   3.461  13.782   4.144
32174SOL    HW298420   3.317  13.814   4.175
32175SOL     OW98421   1.622  11.466   6.219
32175SOL    HW198422   1.693  11.408   6.192
32175SOL    HW298423   1.633  11.545   6.165
32176SOL     OW98424   2.447   2.123   7.211
32176SOL    HW198425   2.362   2.127   7.256
32176SOL    HW298426   2.506   2.171   7.269
32177SOL     OW98427   9.209   4.393   0.830
32177SOL    HW198428   9.256   4.407   0.912
32177SOL    HW298429   9.117   4.409   0.852
32178SOL     OW98430  12.466   3.405  10.707
32178SOL    HW198431  12.443   3.493  10.736
32178SOL    HW298432  12.471   3.411  10.612
32179SOL     OW98433  13.623  10.499  13.279
32179SOL    HW198434  13.550  10.451  13.241
32179SOL    HW298435  13.700  10.445  13.261
32180SOL     OW98436   5.892   1.036   4.694
32180SOL    HW198437   5.834   1.000   4.627
32180SOL    HW298438   5.978   1.000   4.672
32181SOL     OW98439  13.063  14.365   3.618
32181SOL    HW198440  13.049  14.323   3.533
32181SOL    HW298441  13.017  14.448   3.612
32182SOL     OW98442   9.331  11.720   5.954
32182SOL    HW198443   9.300  11.810   5.941
32182SOL    HW298444   9.342  11.686   5.866
32183SOL     OW98445   3.174  12.999   1.451
32183SOL    HW198446   3.081  12.976   1.446
32183SOL    HW298447   3.219  12.915   1.448
32184SOL     OW98448   3.539  11.680  13.656
32184SOL    HW198449   3.611  11.651  13.713
32184SOL    HW298450   3.579  11.747  13.601
32185SOL     OW98451  11.792   2.707  10.836
32185SOL    HW198452  11.884   2.682  10.828
32185SOL    HW298453  11.744   2.625  10.823
32186SOL     OW98454  13.875  12.777  12.473
32186SOL    HW198455  13.794  12.761  12.520
32186SOL    HW298456  13.854  12.759  12.381
32187SOL     OW98457   8.360  10.784  10.539
32187SOL    HW198458   8.431  10.759  10.598
32187SOL    HW298459   8.290  10.812  10.597
32188SOL     OW98460   9.016   2.470  10.585
32188SOL    HW198461   9.064   2.511  10.657
32188SOL    HW298462   8.924   2.480  10.608
32189SOL     OW98463  10.298  14.784   3.866
32189SOL    HW198464  10.371  14.824   3.914
32189SOL    HW298465  10.324  14.692   3.856
32190SOL     OW98466   0.759   9.873  13.311
32190SOL    HW198467   0.785   9.952  13.360
32190SOL    HW298468   0.840   9.822  13.306
32191SOL     OW98469   1.767  14.081   3.354
32191SOL    HW198470   1.721  14.007   3.316
32191SOL    HW298471   1.855  14.048   3.373
32192SOL     OW98472  14.773   5.965   7.128
32192SOL    HW198473  14.861   5.948   7.160
32192SOL    HW298474  14.718   5.963   7.206
32193SOL     OW98475  12.412   6.407   9.631
32193SOL    HW198476  12.351   6.477   9.653
32193SOL    HW298477  12.402   6.394   9.536
32194SOL     OW98478  12.043   6.319  12.150
32194SOL    HW198479  11.987   6.289  12.078
32194SOL    HW298480  12.002   6.400  12.181
32195SOL     OW98481  12.415  10.274  13.525
32195SOL    HW198482  12.373  10.210  13.583
32195SOL    HW298483  12.508  10.252  13.528
32196SOL     OW98484   2.187   5.278  10.577
32196SOL    HW198485   2.141   5.195  10.572
32196SOL    HW298486   2.245   5.279  10.501
32197SOL     OW98487  10.322  11.917   5.928
32197SOL    HW198488  10.247  11.917   5.986
32197SOL    HW298489  10.392  11.877   5.980
32198SOL     OW98490   7.943   5.376   2.958
32198SOL    HW198491   7.995   5.317   2.904
32198SOL    HW298492   7.930   5.328   3.040
32199SOL     OW98493   2.815  13.403  14.456
32199SOL    HW198494   2.746  13.350  14.417
32199SOL    HW298495   2.895  13.374  14.412
32200SOL     OW98496   9.647  14.753  11.991
32200SOL    HW198497   9.648  14.844  11.962
32200SOL    HW298498   9.644  14.758  12.086
32201SOL     OW98499   5.565   3.427   4.645
32201SOL    HW198500   5.546   3.436   4.552
32201SOL    HW298501   5.657   3.398   4.648
32202SOL     OW98502  11.302   9.821   9.168
32202SOL    HW198503  11.235   9.789   9.108
32202SOL    HW298504  11.275   9.911   9.189
32203SOL     OW98505   0.400   8.574   0.685
32203SOL    HW198506   0.324   8.546   0.735
32203SOL    HW298507   0.474   8.557   0.743
32204SOL     OW98508  12.261  12.826   7.331
32204SOL    HW198509  12.196  12.762   7.304
32204SOL    HW298510  12.268  12.815   7.426
32205SOL     OW98511  12.185  10.701   8.831
32205SOL    HW198512  12.203  10.720   8.923
32205SOL    HW298513  12.126  10.772   8.803
32206SOL     OW98514  10.021  12.427  13.227
32206SOL    HW198515  10.020  12.356  13.292
32206SOL    HW298516   9.941  12.413  13.175
32207SOL     OW98517   5.224   4.683   7.411
32207SOL    HW198518   5.193   4.602   7.451
32207SOL    HW298519   5.280   4.723   7.477
32208SOL     OW98520  13.387   9.839   1.997
32208SOL    HW198521  13.395   9.807   2.087
32208SOL    HW298522  13.458   9.797   1.950
32209SOL     OW98523   6.320   8.171  14.569
32209SOL    HW198524   6.297   8.220  14.490
32209SOL    HW298525   6.286   8.225  14.641
32210SOL     OW98526   9.923   0.387   9.730
32210SOL    HW198527   9.932   0.292   9.731
32210SOL    HW298528   9.982   0.418   9.799
32211SOL     OW98529  14.112   4.863   0.826
32211SOL    HW198530  14.107   4.811   0.907
32211SOL    HW298531  14.039   4.925   0.833
32212SOL     OW98532   9.483  13.482   1.073
32212SOL    HW198533   9.578  13.486   1.070
32212SOL    HW298534   9.464  13.405   1.126
32213SOL     OW98535   4.429   3.041   3.854
32213SOL    HW198536   4.443   2.955   3.892
32213SOL    HW298537   4.351   3.075   3.899
32214SOL     OW98538  13.949   5.926  11.223
32214SOL    HW198539  13.942   6.017  11.251
32214SOL    HW298540  14.022   5.891  11.274
32215SOL     OW98541   3.666   2.743  13.452
32215SOL    HW198542   3.639   2.834  13.448
32215SOL    HW298543   3.584   2.694  13.457
32216SOL     OW98544  12.812  11.125   5.059
32216SOL    HW198545  12.825  11.080   4.976
32216SOL    HW298546  12.754  11.068   5.110
32217SOL     OW98547   7.437   6.629   9.917
32217SOL    HW198548   7.450   6.535   9.912
32217SOL    HW298549   7.495   6.666   9.851
32218SOL     OW98550   2.022  12.599   0.701
32218SOL    HW198551   1.960  12.565   0.764
32218SOL    HW298552   2.106  12.601   0.748
32219SOL     OW98553  12.844  12.436   9.156
32219SOL    HW198554  12.877  12.509   9.103
32219SOL    HW298555  12.922  12.401   9.198
32220SOL     OW98556   4.353   5.053   8.012
32220SOL    HW198557   4.401   5.133   8.033
32220SOL    HW298558   4.403   5.012   7.941
32221SOL     OW98559   8.600   0.548  10.239
32221SOL    HW198560   8.572   0.564  10.329
32221SOL    HW298561   8.550   0.472  10.211
32222SOL     OW98562   1.528  13.827  14.035
32222SOL    HW198563   1.603  13.848  14.090
32222SOL    HW298564   1.478  13.909  14.031
32223SOL     OW98565   5.273   0.733  13.901
32223SOL    HW198566   5.279   0.689  13.816
32223SOL    HW298567   5.363   0.752  13.926
32224SOL     OW98568   3.660   8.470  12.091
32224SOL    HW198569   3.710   8.390  12.100
32224SOL    HW298570   3.627   8.468  12.001
32225SOL     OW98571   7.046   7.405  11.814
32225SOL    HW198572   7.110   7.415  11.884
32225SOL    HW298573   6.989   7.333  11.843
32226SOL     OW98574  14.677   4.381   0.096
32226SOL    HW198575  14.692   4.376   0.001
32226SOL    HW298576  14.758   4.418   0.132
32227SOL     OW98577  12.455   9.442   1.781
32227SOL    HW198578  12.375   9.481   1.818
32227SOL    HW298579  12.427   9.402   1.699
32228SOL     OW98580   7.157   1.449   4.755
32228SOL    HW198581   7.081   1.410   4.797
32228SOL    HW298582   7.213   1.375   4.732
32229SOL     OW98583   8.488   8.148   9.995
32229SOL    HW198584   8.559   8.162   9.933
32229SOL    HW298585   8.444   8.233  10.002
32230SOL     OW98586   3.655   7.856  13.740
32230SOL    HW198587   3.743   7.837  13.708
32230SOL    HW298588   3.667   7.869  13.834
32231SOL     OW98589   0.134   0.433   7.877
32231SOL    HW198590   0.201   0.408   7.813
32231SOL    HW298591   0.161   0.521   7.906
32232SOL     OW98592  10.602   6.616   1.784
32232SOL    HW198593  10.563   6.702   1.801
32232SOL    HW298594  10.574   6.595   1.695
32233SOL     OW98595  12.213  12.798   6.105
32233SOL    HW198596  12.185  12.788   6.196
32233SOL    HW298597  12.307  12.813   6.111
32234SOL     OW98598  12.851   3.140   1.195
32234SOL    HW198599  12.877   3.059   1.150
32234SOL    HW298600  12.914   3.205   1.165
32235SOL     OW98601  12.673   3.982   3.894
32235SOL    HW198602  12.678   4.072   3.926
32235SOL    HW298603  12.654   3.930   3.972
32236SOL     OW98604   1.662  11.582   1.325
32236SOL    HW198605   1.736  11.523   1.341
32236SOL    HW298606   1.685  11.628   1.244
32237SOL     OW98607  12.718   2.330  14.421
32237SOL    HW198608  12.775   2.402  14.450
32237SOL    HW298609  12.634   2.372  14.405
32238SOL     OW98610  13.894   0.145   5.362
32238SOL    HW198611  13.838   0.086   5.413
32238SOL    HW298612  13.971   0.093   5.340
32239SOL     OW98613   1.325   8.265   2.491
32239SOL    HW198614   1.311   8.356   2.466
32239SOL    HW298615   1.333   8.267   2.587
32240SOL     OW98616   4.403   9.184   1.071
32240SOL    HW198617   4.434   9.228   0.991
32240SOL    HW298618   4.479   9.136   1.103
32241SOL     OW98619  13.485   8.950   2.210
32241SOL    HW198620  13.452   8.953   2.120
32241SOL    HW298621  13.481   9.040   2.241
32242SOL     OW98622  12.543   4.136  10.294
32242SOL    HW198623  12.585   4.099  10.372
32242SOL    HW298624  12.517   4.060  10.243
32243SOL     OW98625  10.693   6.073  13.368
32243SOL    HW198626  10.774   6.123  13.376
32243SOL    HW298627  10.716   5.985  13.398
32244SOL     OW98628  12.147   8.903   2.692
32244SOL    HW198629  12.170   8.879   2.782
32244SOL    HW298630  12.115   8.823   2.652
32245SOL     OW98631   6.410  14.049   2.953
32245SOL    HW198632   6.389  14.105   2.878
32245SOL    HW298633   6.464  14.104   3.010
32246SOL     OW98634  10.490   4.075   8.101
32246SOL    HW198635  10.469   4.024   8.023
32246SOL    HW298636  10.413   4.131   8.114
32247SOL     OW98637   3.302  12.837   9.229
32247SOL    HW198638   3.284  12.835   9.324
32247SOL    HW298639   3.364  12.765   9.215
32248SOL     OW98640  11.217  10.163   3.032
32248SOL    HW198641  11.186  10.149   2.943
32248SOL    HW298642  11.312  10.159   3.025
32249SOL     OW98643  13.932   7.396  14.618
32249SOL    HW198644  13.982   7.403  14.700
32249SOL    HW298645  13.980   7.451  14.556
32250SOL     OW98646   3.009  10.567   7.030
32250SOL    HW198647   2.965  10.552   7.113
32250SOL    HW298648   2.951  10.528   6.964
32251SOL     OW98649   0.556  12.008   9.684
32251SOL    HW198650   0.473  12.054   9.694
32251SOL    HW298651   0.544  11.954   9.606
32252SOL     OW98652   7.362   6.045   7.333
32252SOL    HW198653   7.374   6.104   7.259
32252SOL    HW298654   7.364   5.957   7.294
32253SOL     OW98655   4.389   1.425  13.686
32253SOL    HW198656   4.455   1.409  13.618
32253SOL    HW298657   4.318   1.470  13.641
32254SOL     OW98658   6.969   6.827   8.583
32254SOL    HW198659   6.875   6.813   8.593
32254SOL    HW298660   6.977   6.875   8.500
32255SOL     OW98661   2.616  13.920   5.668
32255SOL    HW198662   2.610  13.889   5.759
32255SOL    HW298663   2.710  13.923   5.650
32256SOL     OW98664   0.372   2.690   8.376
32256SOL    HW198665   0.291   2.660   8.335
32256SOL    HW298666   0.413   2.611   8.409
32257SOL     OW98667   7.600   0.528   6.719
32257SOL    HW198668   7.526   0.580   6.750
32257SOL    HW298669   7.566   0.478   6.645
32258SOL     OW98670   3.033  13.361  14.285
32258SOL    HW198671   3.097  13.320  14.226
32258SOL    HW298672   3.083  13.428  14.331
32259SOL     OW98673   1.102  12.724   6.920
32259SOL    HW198674   1.062  12.672   6.851
32259SOL    HW298675   1.089  12.673   6.999
32260SOL     OW98676   2.658   9.493   0.550
32260SOL    HW198677   2.687   9.501   0.641
32260SOL    HW298678   2.732   9.525   0.498
32261SOL     OW98679  11.375   0.766   4.508
32261SOL    HW198680  11.383   0.752   4.602
32261SOL    HW298681  11.297   0.717   4.482
32262SOL     OW98682  11.667   0.820  12.487
32262SOL    HW198683  11.626   0.871  12.417
32262SOL    HW298684  11.761   0.830  12.473
32263SOL     OW98685   3.805  10.128   7.756
32263SOL    HW198686   3.788  10.098   7.845
32263SOL    HW298687   3.737  10.087   7.703
32264SOL     OW98688  14.678   0.417   2.996
32264SOL    HW198689  14.770   0.394   3.009
32264SOL    HW298690  14.637   0.335   2.967
32265SOL     OW98691   2.967   9.943   1.714
32265SOL    HW198692   3.041   9.963   1.771
32265SOL    HW298693   2.974  10.006   1.642
32266SOL     OW98694   8.918   1.635   2.295
32266SOL    HW198695   8.922   1.730   2.300
32266SOL    HW298696   8.928   1.615   2.202
32267SOL     OW98697   6.857   8.403   7.246
32267SOL    HW198698   6.766   8.432   7.249
32267SOL    HW298699   6.866   8.345   7.322
32268SOL     OW98700   6.963   5.689   7.234
32268SOL    HW198701   6.878   5.657   7.264
32268SOL    HW298702   6.953   5.702   7.140
32269SOL     OW98703  13.579   7.138   6.598
32269SOL    HW198704  13.519   7.064   6.608
32269SOL    HW298705  13.523   7.215   6.602
32270SOL     OW98706   0.549  12.625  11.374
32270SOL    HW198707   0.484  12.638  11.305
32270SOL    HW298708   0.630  12.606  11.326
32271SOL     OW98709   3.132   2.387   8.604
32271SOL    HW198710   3.046   2.411   8.568
32271SOL    HW298711   3.130   2.421   8.694
32272SOL     OW98712   0.435   6.610   2.836
32272SOL    HW198713   0.468   6.534   2.790
32272SOL    HW298714   0.499   6.626   2.906
32273SOL     OW98715  10.670   7.513   2.155
32273SOL    HW198716  10.697   7.533   2.245
32273SOL    HW298717  10.731   7.561   2.100
32274SOL     OW98718  10.785  10.061   7.056
32274SOL    HW198719  10.700  10.077   7.096
32274SOL    HW298720  10.816  10.147   7.029
32275SOL     OW98721   2.640   0.652   2.442
32275SOL    HW198722   2.641   0.557   2.458
32275SOL    HW298723   2.679   0.662   2.355
32276SOL     OW98724   2.766  12.282  13.322
32276SOL    HW198725   2.831  12.225  13.364
32276SOL    HW298726   2.747  12.240  13.238
32277SOL     OW98727  13.964   6.782  11.783
32277SOL    HW198728  14.031   6.849  11.770
32277SOL    HW298729  13.999   6.704  11.741
32278SOL     OW98730  14.181  14.290   9.638
32278SOL    HW198731  14.223  14.334   9.712
32278SOL    HW298732  14.091  14.321   9.639
32279SOL     OW98733   7.626  13.497   8.849
32279SOL    HW198734   7.594  13.544   8.926
32279SOL    HW298735   7.661  13.566   8.792
32280SOL     OW98736  12.152  10.340   8.026
32280SOL    HW198737  12.198  10.408   8.077
32280SOL    HW298738  12.211  10.264   8.030
32281SOL     OW98739   6.456  14.306   8.111
32281SOL    HW198740   6.396  14.373   8.142
32281SOL    HW298741   6.410  14.223   8.127
32282SOL     OW98742   1.905   9.680   4.374
32282SOL    HW198743   1.903   9.641   4.286
32282SOL    HW298744   1.996   9.674   4.401
32283SOL     OW98745  11.467   0.486   5.199
32283SOL    HW198746  11.402   0.550   5.169
32283SOL    HW298747  11.512   0.531   5.271
32284SOL     OW98748   4.264   1.541   9.431
32284SOL    HW198749   4.322   1.548   9.507
32284SOL    HW298750   4.227   1.453   9.437
32285SOL     OW98751   4.530   3.125   7.709
32285SOL    HW198752   4.482   3.065   7.767
32285SOL    HW298753   4.582   3.179   7.769
32286SOL     OW98754   0.780   4.159   2.768
32286SOL    HW198755   0.721   4.084   2.754
32286SOL    HW298756   0.860   4.135   2.721
32287SOL     OW98757   6.736   4.041   8.290
32287SOL    HW198758   6.783   4.117   8.325
32287SOL    HW298759   6.801   3.996   8.235
32288SOL     OW98760  10.098   9.495   8.525
32288SOL    HW198761  10.054   9.560   8.580
32288SOL    HW298762  10.124   9.426   8.585
32289SOL     OW98763  10.668   6.818   2.177
32289SOL    HW198764  10.609   6.762   2.228
32289SOL    HW298765  10.739   6.760   2.150
32290SOL     OW98766   9.423   6.075   5.989
32290SOL    HW198767   9.373   6.026   6.054
32290SOL    HW298768   9.378   6.159   5.983
32291SOL     OW98769   6.919   9.940   1.461
32291SOL    HW198770   6.986   9.973   1.521
32291SOL    HW298771   6.838   9.943   1.511
32292SOL     OW98772   7.967   4.280   9.756
32292SOL    HW198773   7.878   4.282   9.721
32292SOL    HW298774   7.998   4.191   9.737
32293SOL     OW98775  12.146   1.693  12.851
32293SOL    HW198776  12.225   1.747  12.843
32293SOL    HW298777  12.153   1.653  12.938
32294SOL     OW98778  13.083   0.342   6.315
32294SOL    HW198779  13.133   0.423   6.304
32294SOL    HW298780  13.053   0.319   6.227
32295SOL     OW98781   0.163   9.828   6.761
32295SOL    HW198782   0.113   9.802   6.839
32295SOL    HW298783   0.106   9.806   6.687
32296SOL     OW98784   6.963   8.370  12.377
32296SOL    HW198785   6.880   8.325  12.366
32296SOL    HW298786   6.961   8.441  12.313
32297SOL     OW98787   6.612   9.075  11.426
32297SOL    HW198788   6.576   9.002  11.378
32297SOL    HW298789   6.657   9.035  11.501
32298SOL     OW98790  10.706   4.057   3.217
32298SOL    HW198791  10.741   4.000   3.150
32298SOL    HW298792  10.736   4.019   3.300
32299SOL     OW98793  13.291   8.708  13.573
32299SOL    HW198794  13.373   8.730  13.617
32299SOL    HW298795  13.248   8.646  13.632
32300SOL     OW98796   0.013  14.582   4.958
32300SOL    HW198797  14.833  14.500   4.972
32300SOL    HW298798   0.099  14.566   4.996
32301SOL     OW98799   8.126   6.456   7.561
32301SOL    HW198800   8.072   6.472   7.638
32301SOL    HW298801   8.138   6.361   7.559
32302SOL     OW98802  12.593   6.353   9.195
32302SOL    HW198803  12.609   6.306   9.113
32302SOL    HW298804  12.662   6.322   9.254
32303SOL     OW98805   2.198   7.204   8.454
32303SOL    HW198806   2.270   7.162   8.501
32303SOL    HW298807   2.230   7.293   8.437
32304SOL     OW98808   2.373   8.354  11.343
32304SOL    HW198809   2.465   8.378  11.348
32304SOL    HW298810   2.327   8.428  11.384
32305SOL     OW98811   6.557  10.027  14.806
32305SOL    HW198812   6.642  10.060  14.835
32305SOL    HW298813   6.496  10.098  14.826
32306SOL     OW98814   4.720  11.918  11.376
32306SOL    HW198815   4.636  11.961  11.358
32306SOL    HW298816   4.781  11.991  11.386
32307SOL     OW98817   4.826   8.865   6.300
32307SOL    HW198818   4.754   8.814   6.264
32307SOL    HW298819   4.833   8.835   6.391
32308SOL     OW98820   1.844   3.789   8.155
32308SOL    HW198821   1.778   3.731   8.117
32308SOL    HW298822   1.923   3.735   8.161
32309SOL     OW98823  11.538  12.021   1.317
32309SOL    HW198824  11.488  12.096   1.350
32309SOL    HW298825  11.614  12.015   1.375
32310SOL     OW98826  10.506   2.380   2.980
32310SOL    HW198827  10.486   2.423   3.063
32310SOL    HW298828  10.430   2.399   2.925
32311SOL     OW98829  12.496   6.332   8.430
32311SOL    HW198830  12.513   6.240   8.406
32311SOL    HW298831  12.401   6.336   8.441
32312SOL     OW98832   1.326   9.618   8.578
32312SOL    HW198833   1.313   9.589   8.668
32312SOL    HW298834   1.259   9.685   8.564
32313SOL     OW98835  10.695   2.848   2.589
32313SOL    HW198836  10.731   2.820   2.505
32313SOL    HW298837  10.603   2.821   2.586
32314SOL     OW98838   2.853  10.396   9.968
32314SOL    HW198839   2.866  10.487   9.939
32314SOL    HW298840   2.890  10.394  10.057
32315SOL     OW98841  14.674  11.707   2.063
32315SOL    HW198842  14.736  11.744   2.000
32315SOL    HW298843  14.600  11.679   2.009
32316SOL     OW98844  12.589  10.796   7.112
32316SOL    HW198845  12.640  10.718   7.134
32316SOL    HW298846  12.557  10.778   7.023
32317SOL     OW98847  11.954   3.730  11.335
32317SOL    HW198848  11.936   3.733  11.241
32317SOL    HW298849  11.902   3.656  11.366
32318SOL     OW98850   6.354  14.027  13.859
32318SOL    HW198851   6.380  14.118  13.851
32318SOL    HW298852   6.434  13.977  13.845
32319SOL     OW98853   4.429  14.165   2.195
32319SOL    HW198854   4.483  14.109   2.251
32319SOL    HW298855   4.362  14.200   2.254
32320SOL     OW98856   4.979   1.490   1.334
32320SOL    HW198857   4.934   1.495   1.250
32320SOL    HW298858   4.917   1.447   1.392
32321SOL     OW98859  13.081   9.593  11.666
32321SOL    HW198860  13.142   9.622  11.598
32321SOL    HW298861  13.131   9.532  11.719
32322SOL     OW98862  13.136   6.784   4.916
32322SOL    HW198863  13.085   6.851   4.961
32322SOL    HW298864  13.113   6.794   4.824
32323SOL     OW98865   8.860  14.174   5.613
32323SOL    HW198866   8.948  14.208   5.595
32323SOL    HW298867   8.816  14.243   5.663
32324SOL     OW98868   9.529   4.189   4.060
32324SOL    HW198869   9.520   4.283   4.049
32324SOL    HW298870   9.440   4.155   4.054
32325SOL     OW98871   8.388   3.838   7.653
32325SOL    HW198872   8.405   3.864   7.744
32325SOL    HW298873   8.303   3.795   7.655
32326SOL     OW98874   7.103  10.559  13.226
32326SOL    HW198875   7.156  10.496  13.275
32326SOL    HW298876   7.020  10.563  13.273
32327SOL     OW98877   6.043   5.870   9.485
32327SOL    HW198878   5.949   5.868   9.469
32327SOL    HW298879   6.079   5.806   9.423
32328SOL     OW98880  14.470  10.634   3.994
32328SOL    HW198881  14.383  10.641   4.034
32328SOL    HW298882  14.501  10.547   4.020
32329SOL     OW98883   6.601   9.777  11.882
32329SOL    HW198884   6.609   9.804  11.974
32329SOL    HW298885   6.511   9.746  11.875
32330SOL     OW98886  10.270   4.943  13.367
32330SOL    HW198887  10.295   4.930  13.276
32330SOL    HW298888  10.230   4.860  13.393
32331SOL     OW98889   7.448   6.194  11.561
32331SOL    HW198890   7.531   6.162  11.526
32331SOL    HW298891   7.397   6.115  11.578
32332SOL     OW98892   0.937  14.716   0.735
32332SOL    HW198893   0.871  14.758   0.679
32332SOL    HW298894   0.917  14.622   0.728
32333SOL     OW98895   0.803   7.732   6.336
32333SOL    HW198896   0.785   7.754   6.428
32333SOL    HW298897   0.898   7.724   6.332
32334SOL     OW98898   4.517  11.080   9.619
32334SOL    HW198899   4.583  11.137   9.658
32334SOL    HW298900   4.517  11.002   9.675
32335SOL     OW98901  14.289  11.133  11.954
32335SOL    HW198902  14.218  11.124  11.890
32335SOL    HW298903  14.342  11.205  11.921
32336SOL     OW98904  13.932   5.103  12.580
32336SOL    HW198905  13.896   5.031  12.529
32336SOL    HW298906  13.866   5.122  12.646
32337SOL     OW98907  14.357  12.124   4.437
32337SOL    HW198908  14.335  12.057   4.372
32337SOL    HW298909  14.452  12.125   4.439
32338SOL     OW98910   7.615  14.476   8.517
32338SOL    HW198911   7.552  14.474   8.589
32338SOL    HW298912   7.589  14.552   8.465
32339SOL     OW98913  13.299  12.325  14.074
32339SOL    HW198914  13.244  12.277  14.136
32339SOL    HW298915  13.371  12.266  14.054
32340SOL     OW98916   3.233  12.359  13.889
32340SOL    HW198917   3.189  12.377  13.972
32340SOL    HW298918   3.231  12.442  13.842
32341SOL     OW98919  14.848  14.322   8.314
32341SOL    HW198920  14.803  14.245   8.280
32341SOL    HW298921  14.831  14.319   8.409
32342SOL     OW98922  14.471   3.286   8.117
32342SOL    HW198923  14.387   3.306   8.078
32342SOL    HW298924  14.469   3.192   8.133
32343SOL     OW98925   8.308  11.074   4.626
32343SOL    HW198926   8.236  11.036   4.677
32343SOL    HW298927   8.385  11.066   4.683
32344SOL     OW98928   1.038   0.343   5.440
32344SOL    HW198929   1.013   0.379   5.356
32344SOL    HW298930   1.130   0.318   5.430
32345SOL     OW98931  11.942   7.161   3.989
32345SOL    HW198932  11.892   7.135   4.066
32345SOL    HW298933  11.877   7.166   3.918
32346SOL     OW98934  11.775   5.255  14.625
32346SOL    HW198935  11.864   5.226  14.646
32346SOL    HW298936  11.720   5.212  14.690
32347SOL     OW98937   4.474   5.163   2.377
32347SOL    HW198938   4.554   5.170   2.325
32347SOL    HW298939   4.463   5.249   2.417
32348SOL     OW98940  13.555   5.420   5.695
32348SOL    HW198941  13.493   5.442   5.764
32348SOL    HW298942  13.611   5.353   5.733
32349SOL     OW98943   8.411   3.240  10.699
32349SOL    HW198944   8.493   3.289  10.700
32349SOL    HW298945   8.431   3.159  10.746
32350SOL     OW98946   6.833  14.032   0.197
32350SOL    HW198947   6.862  13.953   0.242
32350SOL    HW298948   6.856  14.017   0.105
32351SOL     OW98949  13.721  10.082   3.078
32351SOL    HW198950  13.811  10.106   3.103
32351SOL    HW298951  13.669  10.104   3.155
32352SOL     OW98952  13.306   1.629  10.342
32352SOL    HW198953  13.335   1.662  10.257
32352SOL    HW298954  13.251   1.554  10.321
32353SOL     OW98955   8.803   9.845   4.836
32353SOL    HW198956   8.715   9.841   4.873
32353SOL    HW298957   8.816   9.760   4.795
32354SOL     OW98958  10.314   3.494   3.295
32354SOL    HW198959  10.231   3.541   3.289
32354SOL    HW298960  10.299   3.425   3.359
32355SOL     OW98961  10.069   5.445  14.688
32355SOL    HW198962  10.115   5.391  14.624
32355SOL    HW298963  10.016   5.383  14.739
32356SOL     OW98964   5.736   7.133  11.427
32356SOL    HW198965   5.727   7.157  11.520
32356SOL    HW298966   5.744   7.217  11.382
32357SOL     OW98967  13.603  11.943   5.285
32357SOL    HW198968  13.678  11.937   5.344
32357SOL    HW298969  13.609  11.865   5.230
32358SOL     OW98970   5.471  12.714   4.776
32358SOL    HW198971   5.378  12.736   4.784
32358SOL    HW298972   5.511  12.748   4.857
32359SOL     OW98973   9.800   8.231  12.387
32359SOL    HW198974   9.857   8.164  12.426
32359SOL    HW298975   9.812   8.220  12.293
32360SOL     OW98976   3.883  10.621   7.772
32360SOL    HW198977   3.924  10.535   7.771
32360SOL    HW298978   3.843  10.628   7.859
32361SOL     OW98979   2.847   8.701   2.206
32361SOL    HW198980   2.871   8.711   2.114
32361SOL    HW298981   2.878   8.781   2.247
32362SOL     OW98982  12.970  11.491   1.450
32362SOL    HW198983  13.056  11.477   1.413
32362SOL    HW298984  12.958  11.586   1.448
32363SOL     OW98985   5.293  11.382   6.089
32363SOL    HW198986   5.243  11.358   6.011
32363SOL    HW298987   5.297  11.478   6.086
32364SOL     OW98988  10.033  10.080   3.297
32364SOL    HW198989   9.937  10.076   3.298
32364SOL    HW298990  10.061   9.988   3.292
32365SOL     OW98991   9.812   9.501  12.276
32365SOL    HW198992   9.724   9.489  12.239
32365SOL    HW298993   9.798   9.504  12.370
32366SOL     OW98994  14.602  10.403   2.613
32366SOL    HW198995  14.521  10.454   2.605
32366SOL    HW298996  14.582  10.337   2.678
32367SOL     OW98997  11.878   9.951  14.581
32367SOL    HW198998  11.848   9.864  14.609
32367SOL    HW298999  11.972   9.942  14.571
32368SOL     OW99000   0.609   2.464   5.736
32368SOL    HW199001   0.588   2.476   5.829
32368SOL    HW299002   0.651   2.546   5.711
32369SOL     OW99003   5.664  13.804   2.780
32369SOL    HW199004   5.693  13.722   2.740
32369SOL    HW299005   5.678  13.791   2.874
32370SOL     OW99006   3.051   9.595   9.829
32370SOL    HW199007   3.097   9.559   9.754
32370SOL    HW299008   3.027   9.684   9.803
32371SOL     OW99009  11.806   9.982   2.127
32371SOL    HW199010  11.873   9.943   2.071
32371SOL    HW299011  11.833  10.073   2.137
32372SOL     OW99012   4.074   8.539   1.462
32372SOL    HW199013   4.015   8.582   1.400
32372SOL    HW299014   4.161   8.560   1.430
32373SOL     OW99015   2.908   3.244   3.302
32373SOL    HW199016   2.982   3.223   3.359
32373SOL    HW299017   2.922   3.335   3.277
32374SOL     OW99018   8.918   0.909  14.217
32374SOL    HW199019   8.998   0.856  14.225
32374SOL    HW299020   8.937   0.972  14.148
32375SOL     OW99021   5.784  12.361   3.076
32375SOL    HW199022   5.735  12.357   2.995
32375SOL    HW299023   5.872  12.331   3.053
32376SOL     OW99024   4.577   5.138   3.364
32376SOL    HW199025   4.535   5.053   3.380
32376SOL    HW299026   4.661   5.131   3.409
32377SOL     OW99027   7.236  12.976  12.681
32377SOL    HW199028   7.267  13.066  12.674
32377SOL    HW299029   7.294  12.935  12.745
32378SOL     OW99030   3.025  11.829   7.869
32378SOL    HW199031   3.023  11.789   7.782
32378SOL    HW299032   2.934  11.852   7.886
32379SOL     OW99033   0.809   2.469  10.511
32379SOL    HW199034   0.771   2.480  10.598
32379SOL    HW299035   0.881   2.532  10.509
32380SOL     OW99036   9.708   8.546   2.082
32380SOL    HW199037   9.779   8.603   2.053
32380SOL    HW299038   9.750   8.481   2.138
32381SOL     OW99039  14.153  11.270   5.125
32381SOL    HW199040  14.245  11.253   5.146
32381SOL    HW299041  14.156  11.343   5.063
32382SOL     OW99042   5.302   3.020  10.201
32382SOL    HW199043   5.374   2.959  10.184
32382SOL    HW299044   5.223   2.973  10.174
32383SOL     OW99045   4.503  13.406   5.728
32383SOL    HW199046   4.500  13.480   5.667
32383SOL    HW299047   4.528  13.331   5.674
32384SOL     OW99048  13.933   0.555   7.288
32384SOL    HW199049  13.848   0.566   7.331
32384SOL    HW299050  13.916   0.577   7.196
32385SOL     OW99051   2.183   1.822   0.204
32385SOL    HW199052   2.093   1.790   0.206
32385SOL    HW299053   2.216   1.796   0.118
32386SOL     OW99054   2.254  11.921  11.711
32386SOL    HW199055   2.252  11.847  11.650
32386SOL    HW299056   2.181  11.977  11.683
32387SOL     OW99057   0.763   9.919  10.810
32387SOL    HW199058   0.714  10.001  10.800
32387SOL    HW299059   0.834   9.926  10.746
32388SOL     OW99060   8.651  12.786   9.452
32388SOL    HW199061   8.635  12.878   9.469
32388SOL    HW299062   8.605  12.740   9.523
32389SOL     OW99063   2.598   1.356   0.026
32389SOL    HW199064   2.643   1.413  14.830
32389SOL    HW299065   2.638   1.270   0.014
32390SOL     OW99066  12.177  12.524   0.968
32390SOL    HW199067  12.171  12.478   0.884
32390SOL    HW299068  12.185  12.616   0.944
32391SOL     OW99069  11.083   2.060   8.328
32391SOL    HW199070  11.142   2.034   8.257
32391SOL    HW299071  11.028   2.128   8.289
32392SOL     OW99072   7.862  12.335   4.926
32392SOL    HW199073   7.906  12.306   4.846
32392SOL    HW299074   7.934  12.348   4.989
32393SOL     OW99075   9.617   4.553   4.278
32393SOL    HW199076   9.604   4.494   4.203
32393SOL    HW299077   9.589   4.501   4.354
32394SOL     OW99078   6.214   7.896  11.485
32394SOL    HW199079   6.179   7.871  11.400
32394SOL    HW299080   6.290   7.840  11.497
32395SOL     OW99081  11.537   9.623   1.236
32395SOL    HW199082  11.479   9.577   1.296
32395SOL    HW299083  11.489   9.702   1.212
32396SOL     OW99084   5.571   8.046  14.059
32396SOL    HW199085   5.582   7.952  14.075
32396SOL    HW299086   5.476   8.059  14.056
32397SOL     OW99087   2.490   7.021   9.147
32397SOL    HW199088   2.436   6.999   9.223
32397SOL    HW299089   2.559   7.078   9.181
32398SOL     OW99090   0.953  13.362   0.059
32398SOL    HW199091   0.923  13.364  14.836
32398SOL    HW299092   0.906  13.434   0.102
32399SOL     OW99093  10.650   8.319  12.828
32399SOL    HW199094  10.732   8.315  12.779
32399SOL    HW299095  10.590   8.364  12.770
32400SOL     OW99096  11.445  14.458  11.124
32400SOL    HW199097  11.454  14.529  11.062
32400SOL    HW299098  11.534  14.425  11.136
32401SOL     OW99099   1.729   0.541  11.813
32401SOL    HW199100   1.756   0.631  11.794
32401SOL    HW299101   1.790   0.487  11.763
32402SOL     OW99102   5.964   4.726   2.118
32402SOL    HW199103   6.059   4.713   2.128
32402SOL    HW299104   5.927   4.639   2.132
32403SOL     OW99105  13.416  10.926   3.997
32403SOL    HW199106  13.340  10.978   3.974
32403SOL    HW299107  13.488  10.989   4.003
32404SOL     OW99108  12.135   0.744   4.420
32404SOL    HW199109  12.165   0.810   4.358
32404SOL    HW299110  12.199   0.673   4.413
32405SOL     OW99111  13.102   4.084   7.868
32405SOL    HW199112  13.179   4.027   7.876
32405SOL    HW299113  13.133   4.159   7.819
32406SOL     OW99114   7.292   4.973   2.597
32406SOL    HW199115   7.358   5.042   2.598
32406SOL    HW299116   7.279   4.951   2.689
32407SOL     OW99117   3.825   2.402  10.028
32407SOL    HW199118   3.862   2.417  10.115
32407SOL    HW299119   3.882   2.450   9.968
32408SOL     OW99120   0.383   6.611  14.090
32408SOL    HW199121   0.374   6.518  14.110
32408SOL    HW299122   0.352   6.619  14.000
32409SOL     OW99123   7.961   4.911  13.681
32409SOL    HW199124   7.877   4.953  13.703
32409SOL    HW299125   7.974   4.930  13.588
32410SOL     OW99126   5.705  10.246   0.561
32410SOL    HW199127   5.799  10.232   0.569
32410SOL    HW299128   5.696  10.324   0.507
32411SOL     OW99129   9.380   1.557  12.360
32411SOL    HW199130   9.453   1.534  12.302
32411SOL    HW299131   9.304   1.561  12.302
32412SOL     OW99132  13.746   7.028  13.057
32412SOL    HW199133  13.702   7.010  12.974
32412SOL    HW299134  13.797   6.948  13.074
32413SOL     OW99135  10.922   8.668   7.018
32413SOL    HW199136  10.932   8.759   7.044
32413SOL    HW299137  10.963   8.618   7.089
32414SOL     OW99138   5.043  13.502   4.817
32414SOL    HW199139   5.092  13.508   4.898
32414SOL    HW299140   4.957  13.467   4.843
32415SOL     OW99141  10.508   0.591   0.218
32415SOL    HW199142  10.551   0.648   0.281
32415SOL    HW299143  10.464   0.650   0.157
32416SOL     OW99144  11.577   2.481   3.397
32416SOL    HW199145  11.659   2.451   3.359
32416SOL    HW299146  11.522   2.504   3.322
32417SOL     OW99147   0.382   2.578  11.211
32417SOL    HW199148   0.365   2.517  11.139
32417SOL    HW299149   0.440   2.529  11.270
32418SOL     OW99150   4.023   5.205   0.020
32418SOL    HW199151   3.987   5.275   0.074
32418SOL    HW299152   4.115   5.229   0.007
32419SOL     OW99153   3.659   0.542  10.501
32419SOL    HW199154   3.741   0.555  10.454
32419SOL    HW299155   3.652   0.447  10.513
32420SOL     OW99156  14.671   2.709   8.814
32420SOL    HW199157  14.717   2.692   8.732
32420SOL    HW299158  14.731   2.677   8.882
32421SOL     OW99159   4.804   7.551   7.725
32421SOL    HW199160   4.807   7.622   7.790
32421SOL    HW299161   4.746   7.486   7.763
32422SOL     OW99162   4.804  10.725   6.765
32422SOL    HW199163   4.754  10.669   6.707
32422SOL    HW299164   4.870  10.766   6.709
32423SOL     OW99165  11.667  13.331  11.214
32423SOL    HW199166  11.678  13.348  11.308
32423SOL    HW299167  11.712  13.248  11.200
32424SOL     OW99168   7.146   1.150   4.161
32424SOL    HW199169   7.221   1.139   4.102
32424SOL    HW299170   7.073   1.107   4.116
32425SOL     OW99171   8.654   7.315   7.269
32425SOL    HW199172   8.659   7.221   7.287
32425SOL    HW299173   8.576   7.344   7.316
32426SOL     OW99174   0.246   5.484  14.676
32426SOL    HW199175   0.264   5.397  14.641
32426SOL    HW299176   0.210   5.468  14.763
32427SOL     OW99177   5.177   2.460  13.953
32427SOL    HW199178   5.249   2.464  14.016
32427SOL    HW299179   5.216   2.486  13.870
32428SOL     OW99180   9.367   4.772  10.715
32428SOL    HW199181   9.455   4.737  10.700
32428SOL    HW299182   9.373   4.817  10.800
32429SOL     OW99183  11.070  14.386  12.159
32429SOL    HW199184  11.022  14.332  12.221
32429SOL    HW299185  11.161  14.358  12.168
32430SOL     OW99186  14.101   4.545   5.358
32430SOL    HW199187  14.137   4.461   5.386
32430SOL    HW299188  14.151   4.610   5.406
32431SOL     OW99189   9.025   6.022   1.255
32431SOL    HW199190   9.114   5.994   1.274
32431SOL    HW299191   8.970   5.947   1.277
32432SOL     OW99192   9.351   7.793  13.088
32432SOL    HW199193   9.297   7.868  13.112
32432SOL    HW299194   9.332   7.778  12.996
32433SOL     OW99195  11.012   8.037  14.823
32433SOL    HW199196  11.071   8.103  14.861
32433SOL    HW299197  10.930   8.048   0.004
32434SOL     OW99198   2.206  14.139  12.094
32434SOL    HW199199   2.260  14.083  12.150
32434SOL    HW299200   2.232  14.228  12.116
32435SOL     OW99201  11.134  12.213   2.684
32435SOL    HW199202  11.226  12.185   2.685
32435SOL    HW299203  11.138  12.309   2.686
32436SOL     OW99204   7.617   4.532  10.353
32436SOL    HW199205   7.658   4.619  10.354
32436SOL    HW299206   7.652   4.490  10.274
32437SOL     OW99207   1.329  14.335   3.155
32437SOL    HW199208   1.358  14.424   3.134
32437SOL    HW299209   1.392  14.305   3.220
32438SOL     OW99210   2.322   7.634   0.778
32438SOL    HW199211   2.271   7.610   0.855
32438SOL    HW299212   2.398   7.577   0.779
32439SOL     OW99213   4.487  13.122   7.972
32439SOL    HW199214   4.397  13.089   7.970
32439SOL    HW299215   4.487  13.188   8.041
32440SOL     OW99216   8.398   6.672   2.416
32440SOL    HW199217   8.459   6.624   2.360
32440SOL    HW299218   8.413   6.637   2.504
32441SOL     OW99219  14.127   4.420   8.941
32441SOL    HW199220  14.119   4.326   8.954
32441SOL    HW299221  14.186   4.449   9.010
32442SOL     OW99222  10.538   9.498   5.579
32442SOL    HW199223  10.467   9.544   5.622
32442SOL    HW299224  10.613   9.508   5.638
32443SOL     OW99225  11.837   8.579   2.387
32443SOL    HW199226  11.760   8.588   2.330
32443SOL    HW299227  11.836   8.658   2.441
32444SOL     OW99228   0.438   0.993   6.943
32444SOL    HW199229   0.401   0.976   7.030
32444SOL    HW299230   0.481   0.912   6.919
32445SOL     OW99231  14.292   1.016  13.527
32445SOL    HW199232  14.381   1.005  13.559
32445SOL    HW299233  14.301   1.065  13.445
32446SOL     OW99234   8.611   1.396  12.967
32446SOL    HW199235   8.583   1.376  12.877
32446SOL    HW299236   8.695   1.351  12.976
32447SOL     OW99237  14.774   4.339  13.145
32447SOL    HW199238  14.833   4.410  13.171
32447SOL    HW299239  14.704   4.341  13.211
32448SOL     OW99240  12.894   6.356   8.825
32448SOL    HW199241  12.820   6.352   8.764
32448SOL    HW299242  12.971   6.358   8.769
32449SOL     OW99243   5.160   4.325   3.796
32449SOL    HW199244   5.197   4.240   3.823
32449SOL    HW299245   5.160   4.377   3.876
32450SOL     OW99246   9.929   1.129  11.450
32450SOL    HW199247   9.964   1.113  11.363
32450SOL    HW299248   9.860   1.063  11.462
32451SOL     OW99249   1.408   7.872  10.516
32451SOL    HW199250   1.426   7.796  10.572
32451SOL    HW299251   1.373   7.834  10.435
32452SOL     OW99252   1.294   4.861   5.474
32452SOL    HW199253   1.321   4.935   5.420
32452SOL    HW299254   1.365   4.850   5.538
32453SOL     OW99255   3.783   8.706  12.872
32453SOL    HW199256   3.794   8.611  12.863
32453SOL    HW299257   3.834   8.743  12.800
32454SOL     OW99258   0.700  14.088   5.493
32454SOL    HW199259   0.763  14.038   5.546
32454SOL    HW299260   0.670  14.157   5.552
32455SOL     OW99261   1.336   7.830  13.326
32455SOL    HW199262   1.289   7.902  13.282
32455SOL    HW299263   1.426   7.839  13.297
32456SOL     OW99264   4.987   6.020  11.461
32456SOL    HW199265   4.985   6.040  11.368
32456SOL    HW299266   4.895   6.011  11.486
32457SOL     OW99267  13.657   1.851   1.965
32457SOL    HW199268  13.593   1.914   1.996
32457SOL    HW299269  13.717   1.840   2.038
32458SOL     OW99270  12.983   0.702  13.293
32458SOL    HW199271  12.951   0.679  13.381
32458SOL    HW299272  13.063   0.752  13.309
32459SOL     OW99273  14.250   6.954   6.582
32459SOL    HW199274  14.187   7.023   6.560
32459SOL    HW299275  14.333   6.985   6.546
32460SOL     OW99276  10.196  10.031   2.069
32460SOL    HW199277  10.178   9.961   2.006
32460SOL    HW299278  10.256   9.992   2.132
32461SOL     OW99279  10.052   2.795   6.632
32461SOL    HW199280  10.111   2.719   6.634
32461SOL    HW299281  10.096   2.858   6.575
32462SOL     OW99282   3.935   0.047   4.496
32462SOL    HW199283   3.909   0.019   4.407
32462SOL    HW299284   3.942  14.833   4.545
32463SOL     OW99285  11.102   5.883   5.843
32463SOL    HW199286  11.117   5.858   5.752
32463SOL    HW299287  11.017   5.845   5.865
32464SOL     OW99288  11.918   0.253   4.758
32464SOL    HW199289  11.907   0.272   4.851
32464SOL    HW299290  12.013   0.256   4.744
32465SOL     OW99291  11.773   6.694  10.155
32465SOL    HW199292  11.734   6.618  10.111
32465SOL    HW299293  11.811   6.659  10.235
32466SOL     OW99294  14.125   2.283  12.457
32466SOL    HW199295  14.158   2.193  12.462
32466SOL    HW299296  14.097   2.302  12.547
32467SOL     OW99297   0.132   9.742   3.924
32467SOL    HW199298   0.106   9.771   4.011
32467SOL    HW299299   0.112   9.817   3.867
32468SOL     OW99300   5.673   8.801   8.597
32468SOL    HW199301   5.635   8.758   8.521
32468SOL    HW299302   5.605   8.797   8.664
32469SOL     OW99303   1.098   1.936   1.542
32469SOL    HW199304   1.008   1.959   1.518
32469SOL    HW299305   1.136   1.902   1.462
32470SOL     OW99306   5.067  12.828   3.478
32470SOL    HW199307   5.057  12.804   3.570
32470SOL    HW299308   4.978  12.841   3.446
32471SOL     OW99309  14.864  13.688   4.497
32471SOL    HW199310  14.833  13.664   4.409
32471SOL    HW299311   0.082  13.648   4.504
32472SOL     OW99312   9.805   4.388   2.686
32472SOL    HW199313   9.766   4.453   2.745
32472SOL    HW299314   9.869   4.438   2.635
32473SOL     OW99315  10.063   8.268  11.655
32473SOL    HW199316  10.094   8.356  11.633
32473SOL    HW299317  10.079   8.216  11.577
32474SOL     OW99318   1.073  12.291   7.635
32474SOL    HW199319   1.045  12.382   7.648
32474SOL    HW299320   0.992  12.241   7.640
32475SOL     OW99321   3.434   5.125   3.984
32475SOL    HW199322   3.440   5.220   3.994
32475SOL    HW299323   3.369   5.098   4.049
32476SOL     OW99324  14.058   7.220   4.675
32476SOL    HW199325  14.038   7.226   4.582
32476SOL    HW299326  14.114   7.143   4.683
32477SOL     OW99327   1.570  12.609   0.320
32477SOL    HW199328   1.651  12.630   0.273
32477SOL    HW299329   1.503  12.606   0.252
32478SOL     OW99330   1.865  13.655   7.108
32478SOL    HW199331   1.851  13.581   7.050
32478SOL    HW299332   1.927  13.623   7.173
32479SOL     OW99333   0.717   9.978   1.520
32479SOL    HW199334   0.779  10.022   1.578
32479SOL    HW299335   0.632   9.992   1.560
32480SOL     OW99336  10.158   1.935  11.886
32480SOL    HW199337  10.215   1.892  11.822
32480SOL    HW299338  10.197   1.914  11.970
32481SOL     OW99339   5.967   7.154  10.154
32481SOL    HW199340   5.892   7.211  10.172
32481SOL    HW299341   6.033   7.212  10.117
32482SOL     OW99342   3.283  11.290   3.976
32482SOL    HW199343   3.324  11.322   4.056
32482SOL    HW299344   3.220  11.224   4.006
32483SOL     OW99345   0.917   0.582   6.991
32483SOL    HW199346   0.873   0.508   6.950
32483SOL    HW299347   1.006   0.579   6.956
32484SOL     OW99348   7.683   2.636   4.558
32484SOL    HW199349   7.737   2.560   4.579
32484SOL    HW299350   7.696   2.649   4.464
32485SOL     OW99351   8.479   8.107   7.365
32485SOL    HW199352   8.544   8.103   7.295
32485SOL    HW299353   8.441   8.019   7.368
32486SOL     OW99354   3.584   9.836   8.712
32486SOL    HW199355   3.547   9.895   8.778
32486SOL    HW299356   3.510   9.812   8.657
32487SOL     OW99357   8.695   3.845   0.764
32487SOL    HW199358   8.781   3.888   0.770
32487SOL    HW299359   8.632   3.916   0.769
32488SOL     OW99360   3.265  11.724   7.220
32488SOL    HW199361   3.299  11.813   7.213
32488SOL    HW299362   3.336  11.669   7.186
32489SOL     OW99363  13.310  12.976  14.546
32489SOL    HW199364  13.301  12.900  14.489
32489SOL    HW299365  13.318  12.939  14.634
32490SOL     OW99366   0.395   5.773   8.728
32490SOL    HW199367   0.309   5.751   8.692
32490SOL    HW299368   0.450   5.697   8.708
32491SOL     OW99369  14.330  13.845   1.410
32491SOL    HW199370  14.257  13.852   1.472
32491SOL    HW299371  14.308  13.906   1.340
32492SOL     OW99372   4.809   3.573   6.547
32492SOL    HW199373   4.788   3.526   6.628
32492SOL    HW299374   4.729   3.620   6.525
32493SOL     OW99375  14.319   9.730  14.802
32493SOL    HW199376  14.332   9.825  14.802
32493SOL    HW299377  14.289   9.710   0.022
32494SOL     OW99378  13.946   4.352   1.612
32494SOL    HW199379  13.988   4.282   1.664
32494SOL    HW299380  13.984   4.343   1.525
32495SOL     OW99381   0.798   5.028   6.632
32495SOL    HW199382   0.760   4.941   6.619
32495SOL    HW299383   0.734   5.074   6.687
32496SOL     OW99384   2.473   4.730   4.201
32496SOL    HW199385   2.481   4.825   4.209
32496SOL    HW299386   2.380   4.712   4.209
32497SOL     OW99387   5.727   8.885   4.487
32497SOL    HW199388   5.703   8.796   4.462
32497SOL    HW299389   5.695   8.939   4.415
32498SOL     OW99390  11.627  10.405   1.608
32498SOL    HW199391  11.717  10.377   1.594
32498SOL    HW299392  11.630  10.500   1.599
32499SOL     OW99393   0.021  12.824   6.370
32499SOL    HW199394   0.114  12.817   6.390
32499SOL    HW299395  14.854  12.879   6.439
32500SOL     OW99396  13.156   5.870   2.453
32500SOL    HW199397  13.074   5.857   2.406
32500SOL    HW299398  13.134   5.849   2.544
32501SOL     OW99399   1.497   0.482   4.023
32501SOL    HW199400   1.480   0.395   3.988
32501SOL    HW299401   1.432   0.493   4.093
32502SOL     OW99402  10.275  10.767   2.822
32502SOL    HW199403  10.263  10.784   2.728
32502SOL    HW299404  10.188  10.743   2.854
32503SOL     OW99405   8.059  11.723  11.331
32503SOL    HW199406   7.985  11.669  11.361
32503SOL    HW299407   8.020  11.810  11.316
32504SOL     OW99408   1.224   7.958   8.795
32504SOL    HW199409   1.209   7.865   8.776
32504SOL    HW299410   1.314   7.961   8.827
32505SOL     OW99411  13.344  13.380   2.386
32505SOL    HW199412  13.332  13.471   2.413
32505SOL    HW299413  13.353  13.384   2.291
32506SOL     OW99414   5.982   0.209   1.405
32506SOL    HW199415   6.076   0.226   1.407
32506SOL    HW299416   5.943   0.293   1.382
32507SOL     OW99417   6.880   3.101   3.134
32507SOL    HW199418   6.890   3.154   3.214
32507SOL    HW299419   6.829   3.157   3.075
32508SOL     OW99420   1.517  12.543  14.374
32508SOL    HW199421   1.459  12.519  14.446
32508SOL    HW299422   1.589  12.481  14.380
32509SOL     OW99423  10.184   3.508   6.656
32509SOL    HW199424  10.124   3.582   6.646
32509SOL    HW299425  10.146   3.439   6.602
32510SOL     OW99426   4.623   3.702  14.675
32510SOL    HW199427   4.551   3.667  14.727
32510SOL    HW299428   4.641   3.634  14.610
32511SOL     OW99429  11.246   9.338  11.926
32511SOL    HW199430  11.240   9.433  11.935
32511SOL    HW299431  11.166   9.313  11.881
32512SOL     OW99432   2.600  12.285   9.629
32512SOL    HW199433   2.543  12.343   9.679
32512SOL    HW299434   2.544  12.248   9.561
32513SOL     OW99435  13.107   6.091  11.681
32513SOL    HW199436  13.088   6.115  11.772
32513SOL    HW299437  13.055   6.152  11.629
32514SOL     OW99438  10.904  11.224  13.456
32514SOL    HW199439  10.916  11.130  13.446
32514SOL    HW299440  10.887  11.236  13.550
32515SOL     OW99441  14.783   4.206  10.284
32515SOL    HW199442  14.775   4.276  10.219
32515SOL    HW299443   0.008   4.182  10.281
32516SOL     OW99444   6.325   3.247   6.745
32516SOL    HW199445   6.246   3.268   6.696
32516SOL    HW299446   6.307   3.162   6.785
32517SOL     OW99447   7.919   3.811  14.436
32517SOL    HW199448   7.935   3.732  14.488
32517SOL    HW299449   7.917   3.781  14.346
32518SOL     OW99450  11.163   4.726   0.789
32518SOL    HW199451  11.106   4.747   0.863
32518SOL    HW299452  11.172   4.630   0.793
32519SOL     OW99453   8.066   8.263  14.726
32519SOL    HW199454   8.099   8.268  14.636
32519SOL    HW299455   7.973   8.243  14.716
32520SOL     OW99456  13.032  14.450  11.488
32520SOL    HW199457  12.995  14.491  11.565
32520SOL    HW299458  13.118  14.418  11.516
32521SOL     OW99459  10.998   1.841  11.079
32521SOL    HW199460  10.931   1.783  11.114
32521SOL    HW299461  11.056   1.783  11.030
32522SOL     OW99462   4.723  13.536   2.442
32522SOL    HW199463   4.651  13.524   2.505
32522SOL    HW299464   4.687  13.505   2.359
32523SOL     OW99465   6.278  14.460  13.703
32523SOL    HW199466   6.235  14.538  13.669
32523SOL    HW299467   6.223  14.432  13.776
32524SOL     OW99468   3.098   5.823   3.271
32524SOL    HW199469   3.183   5.860   3.248
32524SOL    HW299470   3.113   5.728   3.272
32525SOL     OW99471   5.629   6.246   3.935
32525SOL    HW199472   5.622   6.297   3.854
32525SOL    HW299473   5.581   6.297   3.999
32526SOL     OW99474   8.663   0.080   8.157
32526SOL    HW199475   8.727   0.028   8.106
32526SOL    HW299476   8.584   0.026   8.157
32527SOL     OW99477   8.958   8.163   8.028
32527SOL    HW199478   9.044   8.163   7.986
32527SOL    HW299479   8.905   8.104   7.975
32528SOL     OW99480  10.789   9.699  14.283
32528SOL    HW199481  10.849   9.732  14.350
32528SOL    HW299482  10.799   9.603  14.289
32529SOL     OW99483   4.615  11.922   8.473
32529SOL    HW199484   4.644  11.901   8.562
32529SOL    HW299485   4.649  11.851   8.419
32530SOL     OW99486  11.152   9.977  13.221
32530SOL    HW199487  11.124   9.960  13.311
32530SOL    HW299488  11.135  10.071  13.209
32531SOL     OW99489  12.332   0.756   6.912
32531SOL    HW199490  12.323   0.809   6.991
32531SOL    HW299491  12.320   0.818   6.840
32532SOL     OW99492   1.457   7.518  11.130
32532SOL    HW199493   1.530   7.525  11.069
32532SOL    HW299494   1.382   7.551  11.081
32533SOL     OW99495  14.185   8.365   7.754
32533SOL    HW199496  14.122   8.423   7.710
32533SOL    HW299497  14.210   8.302   7.686
32534SOL     OW99498   7.509   3.400   0.491
32534SOL    HW199499   7.592   3.406   0.444
32534SOL    HW299500   7.504   3.482   0.541
32535SOL     OW99501   7.910  12.512  12.607
32535SOL    HW199502   7.828  12.499  12.655
32535SOL    HW299503   7.946  12.593  12.643
32536SOL     OW99504  10.334   6.917   7.811
32536SOL    HW199505  10.344   6.999   7.859
32536SOL    HW299506  10.424   6.888   7.793
32537SOL     OW99507  12.303   9.189   5.512
32537SOL    HW199508  12.215   9.214   5.540
32537SOL    HW299509  12.289   9.133   5.435
32538SOL     OW99510   3.785  14.327  10.908
32538SOL    HW199511   3.846  14.298  10.840
32538SOL    HW299512   3.698  14.319  10.868
32539SOL     OW99513  13.813   5.181  14.573
32539SOL    HW199514  13.808   5.108  14.635
32539SOL    HW299515  13.752   5.246  14.607
32540SOL     OW99516   4.765   8.328   0.595
32540SOL    HW199517   4.734   8.395   0.656
32540SOL    HW299518   4.805   8.262   0.650
32541SOL     OW99519  13.703   6.990   7.687
32541SOL    HW199520  13.780   7.036   7.720
32541SOL    HW299521  13.729   6.959   7.600
32542SOL     OW99522  10.519   6.066   1.949
32542SOL    HW199523  10.608   6.034   1.967
32542SOL    HW299524  10.467   5.988   1.934
32543SOL     OW99525   1.639   3.144   1.293
32543SOL    HW199526   1.700   3.072   1.281
32543SOL    HW299527   1.553   3.103   1.296
32544SOL     OW99528  11.523   0.311   0.738
32544SOL    HW199529  11.511   0.218   0.720
32544SOL    HW299530  11.458   0.355   0.683
32545SOL     OW99531   1.844   4.351  13.220
32545SOL    HW199532   1.774   4.295  13.187
32545SOL    HW299533   1.809   4.387  13.302
32546SOL     OW99534   7.165   3.400  12.938
32546SOL    HW199535   7.118   3.375  13.017
32546SOL    HW299536   7.143   3.332  12.874
32547SOL     OW99537  11.843   1.425   8.120
32547SOL    HW199538  11.795   1.349   8.089
32547SOL    HW299539  11.922   1.389   8.162
32548SOL     OW99540   7.044   5.506  11.354
32548SOL    HW199541   7.032   5.415  11.327
32548SOL    HW299542   7.128   5.532  11.314
32549SOL     OW99543   6.863   0.974  11.835
32549SOL    HW199544   6.853   0.919  11.913
32549SOL    HW299545   6.780   0.965  11.788
32550SOL     OW99546   6.084   2.942   1.105
32550SOL    HW199547   6.061   2.984   1.023
32550SOL    HW299548   6.140   2.869   1.080
32551SOL     OW99549   4.926  10.320   3.501
32551SOL    HW199550   4.948  10.266   3.424
32551SOL    HW299551   4.869  10.388   3.466
32552SOL     OW99552  12.809   4.663   7.405
32552SOL    HW199553  12.882   4.673   7.466
32552SOL    HW299554  12.732   4.694   7.454
32553SOL     OW99555   2.806  10.600   1.951
32553SOL    HW199556   2.727  10.640   1.915
32553SOL    HW299557   2.793  10.506   1.938
32554SOL     OW99558  14.036  11.458  14.186
32554SOL    HW199559  14.048  11.505  14.268
32554SOL    HW299560  13.941  11.455  14.174
32555SOL     OW99561   6.993   4.583   7.976
32555SOL    HW199562   7.080   4.566   8.013
32555SOL    HW299563   6.956   4.651   8.032
32556SOL     OW99564  13.891  13.448  12.609
32556SOL    HW199565  13.913  13.357  12.587
32556SOL    HW299566  13.830  13.440  12.683
32557SOL     OW99567   9.420  14.407   8.425
32557SOL    HW199568   9.399  14.329   8.372
32557SOL    HW299569   9.450  14.372   8.509
32558SOL     OW99570   1.233  10.703   7.713
32558SOL    HW199571   1.275  10.740   7.635
32558SOL    HW299572   1.261  10.612   7.715
32559SOL     OW99573   2.076   4.044   1.809
32559SOL    HW199574   2.009   4.085   1.863
32559SOL    HW299575   2.087   4.104   1.735
32560SOL     OW99576   6.246  11.853  11.726
32560SOL    HW199577   6.317  11.831  11.787
32560SOL    HW299578   6.236  11.774  11.673
32561SOL     OW99579   8.302   9.467  12.034
32561SOL    HW199580   8.284   9.520  12.112
32561SOL    HW299581   8.226   9.482  11.977
32562SOL     OW99582   2.909   8.212   7.394
32562SOL    HW199583   2.881   8.182   7.480
32562SOL    HW299584   2.862   8.295   7.381
32563SOL     OW99585   6.545   8.340  10.818
32563SOL    HW199586   6.605   8.271  10.788
32563SOL    HW299587   6.503   8.371  10.738
32564SOL     OW99588   5.307  13.825   1.670
32564SOL    HW199589   5.278  13.912   1.700
32564SOL    HW299590   5.242  13.765   1.707
32565SOL     OW99591   7.528   6.971   5.909
32565SOL    HW199592   7.498   7.057   5.939
32565SOL    HW299593   7.448   6.923   5.888
32566SOL     OW99594  12.388   9.578  12.130
32566SOL    HW199595  12.373   9.559  12.222
32566SOL    HW299596  12.473   9.621  12.127
32567SOL     OW99597   6.906  14.308  10.281
32567SOL    HW199598   6.998  14.287  10.269
32567SOL    HW299599   6.860  14.245  10.224
32568SOL     OW99600  14.295   9.600   2.390
32568SOL    HW199601  14.309   9.684   2.433
32568SOL    HW299602  14.259   9.622   2.304
32569SOL     OW99603   3.002   6.284   8.963
32569SOL    HW199604   3.098   6.281   8.962
32569SOL    HW299605   2.975   6.196   8.936
32570SOL     OW99606   7.214  10.764  12.407
32570SOL    HW199607   7.257  10.825  12.347
32570SOL    HW299608   7.220  10.679  12.362
32571SOL     OW99609   6.703   3.327   1.252
32571SOL    HW199610   6.650   3.338   1.331
32571SOL    HW299611   6.728   3.416   1.227
32572SOL     OW99612   7.141  10.639   6.247
32572SOL    HW199613   7.106  10.642   6.158
32572SOL    HW299614   7.068  10.608   6.300
32573SOL     OW99615   7.783  14.471   5.930
32573SOL    HW199616   7.790  14.495   6.022
32573SOL    HW299617   7.729  14.540   5.891
32574SOL     OW99618   9.324   2.742   7.313
32574SOL    HW199619   9.259   2.806   7.282
32574SOL    HW299620   9.401   2.795   7.336
32575SOL     OW99621   1.535   7.736   8.010
32575SOL    HW199622   1.457   7.748   7.955
32575SOL    HW299623   1.508   7.672   8.076
32576SOL     OW99624  10.039   4.306  10.125
32576SOL    HW199625  10.092   4.322  10.202
32576SOL    HW299626  10.064   4.218  10.096
32577SOL     OW99627  10.090   3.403   1.424
32577SOL    HW199628  10.033   3.336   1.386
32577SOL    HW299629  10.158   3.417   1.358
32578SOL     OW99630   3.141   6.924  13.041
32578SOL    HW199631   3.144   6.877  12.958
32578SOL    HW299632   3.206   6.994  13.031
32579SOL     OW99633   0.779   3.380   8.312
32579SOL    HW199634   0.752   3.289   8.325
32579SOL    HW299635   0.755   3.424   8.394
32580SOL     OW99636   7.325   1.546   2.458
32580SOL    HW199637   7.340   1.512   2.546
32580SOL    HW299638   7.290   1.634   2.471
32581SOL     OW99639   7.124   5.365   4.960
32581SOL    HW199640   7.185   5.298   4.932
32581SOL    HW299641   7.114   5.350   5.054
32582SOL     OW99642  13.674   8.532   8.826
32582SOL    HW199643  13.738   8.478   8.873
32582SOL    HW299644  13.663   8.489   8.741
32583SOL     OW99645   5.483   3.635  11.859
32583SOL    HW199646   5.578   3.639  11.860
32583SOL    HW299647   5.455   3.712  11.909
32584SOL     OW99648   0.524   2.467   8.401
32584SOL    HW199649   0.526   2.375   8.373
32584SOL    HW299650   0.569   2.467   8.486
32585SOL     OW99651   8.173   0.825   6.911
32585SOL    HW199652   8.093   0.869   6.881
32585SOL    HW299653   8.157   0.732   6.894
32586SOL     OW99654   2.179   1.589   7.267
32586SOL    HW199655   2.129   1.670   7.255
32586SOL    HW299656   2.117   1.519   7.247
32587SOL     OW99657  11.761   9.823   8.807
32587SOL    HW199658  11.810   9.832   8.889
32587SOL    HW299659  11.823   9.852   8.740
32588SOL     OW99660   7.590   5.239   5.627
32588SOL    HW199661   7.497   5.229   5.647
32588SOL    HW299662   7.623   5.296   5.697
32589SOL     OW99663   3.931  14.653   4.542
32589SOL    HW199664   3.951  14.607   4.461
32589SOL    HW299665   3.852  14.611   4.575
32590SOL     OW99666   8.800  10.637  11.229
32590SOL    HW199667   8.768  10.582  11.158
32590SOL    HW299668   8.870  10.689  11.189
32591SOL     OW99669   5.414  14.582   1.707
32591SOL    HW199670   5.384  14.661   1.662
32591SOL    HW299671   5.508  14.582   1.694
32592SOL     OW99672   3.270  13.310   1.674
32592SOL    HW199673   3.284  13.293   1.581
32592SOL    HW299674   3.201  13.248   1.699
32593SOL     OW99675   5.022  11.231  10.195
32593SOL    HW199676   5.078  11.261  10.267
32593SOL    HW299677   5.080  11.179  10.140
32594SOL     OW99678   4.444   2.345   3.724
32594SOL    HW199679   4.468   2.285   3.794
32594SOL    HW299680   4.481   2.305   3.645
32595SOL     OW99681   2.857   0.819  13.248
32595SOL    HW199682   2.821   0.906  13.268
32595SOL    HW299683   2.793   0.758  13.285
32596SOL     OW99684   9.322  12.230   1.786
32596SOL    HW199685   9.330  12.208   1.693
32596SOL    HW299686   9.332  12.147   1.831
32597SOL     OW99687   6.590   2.563   6.285
32597SOL    HW199688   6.520   2.499   6.266
32597SOL    HW299689   6.664   2.510   6.313
32598SOL     OW99690   6.755   6.439   5.274
32598SOL    HW199691   6.691   6.483   5.330
32598SOL    HW299692   6.737   6.472   5.186
32599SOL     OW99693   0.093   4.568  14.081
32599SOL    HW199694   0.044   4.552  14.000
32599SOL    HW299695   0.136   4.485  14.101
32600SOL     OW99696   3.368   5.669   8.201
32600SOL    HW199697   3.398   5.580   8.185
32600SOL    HW299698   3.364   5.676   8.296
32601SOL     OW99699  10.196   7.240  14.468
32601SOL    HW199700  10.134   7.204  14.404
32601SOL    HW299701  10.213   7.329  14.438
32602SOL     OW99702   6.846   8.887   4.317
32602SOL    HW199703   6.756   8.881   4.349
32602SOL    HW299704   6.882   8.800   4.330
32603SOL     OW99705   8.180  11.893  14.861
32603SOL    HW199706   8.153  11.862  14.775
32603SOL    HW299707   8.099  11.896   0.044
32604SOL     OW99708  14.529  10.401  12.939
32604SOL    HW199709  14.460  10.377  13.001
32604SOL    HW299710  14.579  10.468  12.984
32605SOL     OW99711   2.361   6.241   3.529
32605SOL    HW199712   2.281   6.197   3.557
32605SOL    HW299713   2.341   6.334   3.537
32606SOL     OW99714   4.165  11.792  13.634
32606SOL    HW199715   4.226  11.780  13.561
32606SOL    HW299716   4.202  11.864  13.685
32607SOL     OW99717   0.967   2.449  11.006
32607SOL    HW199718   0.891   2.391  11.003
32607SOL    HW299719   0.931   2.534  11.033
32608SOL     OW99720  12.211   1.613   1.537
32608SOL    HW199721  12.177   1.683   1.482
32608SOL    HW299722  12.133   1.578   1.582
32609SOL     OW99723   5.223  12.116  10.746
32609SOL    HW199724   5.181  12.102  10.661
32609SOL    HW299725   5.157  12.088  10.809
32610SOL     OW99726   5.761   0.104  11.200
32610SOL    HW199727   5.727   0.073  11.284
32610SOL    HW299728   5.726   0.043  11.135
32611SOL     OW99729   1.553   0.387   4.631
32611SOL    HW199730   1.528   0.304   4.672
32611SOL    HW299731   1.636   0.369   4.587
32612SOL     OW99732   9.167   1.518  14.468
32612SOL    HW199733   9.254   1.481  14.486
32612SOL    HW299734   9.106   1.450  14.496
32613SOL     OW99735  14.691   9.398   1.162
32613SOL    HW199736  14.640   9.464   1.208
32613SOL    HW299737  14.775   9.396   1.207
32614SOL     OW99738  13.876   9.092  14.501
32614SOL    HW199739  13.872   9.134  14.415
32614SOL    HW299740  13.968   9.068  14.511
32615SOL     OW99741  12.580  13.311   9.557
32615SOL    HW199742  12.600  13.273   9.643
32615SOL    HW299743  12.491  13.345   9.566
32616SOL     OW99744   6.119   6.074  11.061
32616SOL    HW199745   6.068   6.154  11.049
32616SOL    HW299746   6.113   6.028  10.977
32617SOL     OW99747   5.431   9.841  13.142
32617SOL    HW199748   5.377   9.797  13.208
32617SOL    HW299749   5.405   9.933  13.148
32618SOL     OW99750   2.640  14.577  11.232
32618SOL    HW199751   2.623  14.499  11.286
32618SOL    HW299752   2.733  14.572  11.211
32619SOL     OW99753  10.916   6.762   5.857
32619SOL    HW199754  10.955   6.701   5.920
32619SOL    HW299755  10.864   6.821   5.911
32620SOL     OW99756   5.917   7.012   4.000
32620SOL    HW199757   5.827   6.982   3.986
32620SOL    HW299758   5.910   7.079   4.068
32621SOL     OW99759   5.245   0.555  14.114
32621SOL    HW199760   5.224   0.599  14.031
32621SOL    HW299761   5.290   0.474  14.087
32622SOL     OW99762   9.525  13.313  14.466
32622SOL    HW199763   9.592  13.262  14.510
32622SOL    HW299764   9.549  13.404  14.482
32623SOL     OW99765   6.066   3.907   2.208
32623SOL    HW199766   6.007   3.889   2.281
32623SOL    HW299767   6.030   3.855   2.136
32624SOL     OW99768   3.982  14.430   0.300
32624SOL    HW199769   4.035  14.483   0.359
32624SOL    HW299770   4.042  14.361   0.269
32625SOL     OW99771  11.336   8.351  13.133
32625SOL    HW199772  11.370   8.427  13.086
32625SOL    HW299773  11.397   8.339  13.206
32626SOL     OW99774   7.855  12.095  13.022
32626SOL    HW199775   7.862  12.018  13.078
32626SOL    HW299776   7.814  12.161  13.078
32627SOL     OW99777  12.063  11.320   2.620
32627SOL    HW199778  12.090  11.391   2.561
32627SOL    HW299779  12.071  11.241   2.566
32628SOL     OW99780   2.367   8.114   0.026
32628SOL    HW199781   2.460   8.130   0.043
32628SOL    HW299782   2.323   8.136   0.108
32629SOL     OW99783   7.118   3.052   5.374
32629SOL    HW199784   7.123   3.088   5.286
32629SOL    HW299785   7.109   2.958   5.361
32630SOL     OW99786   9.402   2.832   8.292
32630SOL    HW199787   9.330   2.784   8.251
32630SOL    HW299788   9.399   2.919   8.252
32631SOL     OW99789   4.949  11.701   0.076
32631SOL    HW199790   4.948  11.797   0.075
32631SOL    HW299791   4.863  11.675   0.044
32632SOL     OW99792  10.091   4.824   4.408
32632SOL    HW199793  10.016   4.876   4.438
32632SOL    HW299794  10.085   4.742   4.457
32633SOL     OW99795   8.130  11.119  11.387
32633SOL    HW199796   8.035  11.108  11.400
32633SOL    HW299797   8.158  11.036  11.348
32634SOL     OW99798   1.903  11.295   3.587
32634SOL    HW199799   1.836  11.228   3.594
32634SOL    HW299800   1.883  11.341   3.505
32635SOL     OW99801   4.619  11.459   2.695
32635SOL    HW199802   4.591  11.369   2.678
32635SOL    HW299803   4.629  11.463   2.790
32636SOL     OW99804   8.732  10.845   0.404
32636SOL    HW199805   8.767  10.758   0.422
32636SOL    HW299806   8.669  10.831   0.333
32637SOL     OW99807   1.118  11.801   0.165
32637SOL    HW199808   1.073  11.755   0.093
32637SOL    HW299809   1.135  11.888   0.131
32638SOL     OW99810   1.335  12.592   0.624
32638SOL    HW199811   1.428  12.611   0.637
32638SOL    HW299812   1.327  12.566   0.533
32639SOL     OW99813   6.826   2.014  11.941
32639SOL    HW199814   6.837   2.073  12.015
32639SOL    HW299815   6.741   2.037  11.904
32640SOL     OW99816   7.396  13.959  14.500
32640SOL    HW199817   7.330  13.995  14.559
32640SOL    HW299818   7.411  14.028  14.436
32641SOL     OW99819  10.367   8.799   9.262
32641SOL    HW199820  10.457   8.784   9.290
32641SOL    HW299821  10.314   8.745   9.321
32642SOL     OW99822  14.017  10.771  12.985
32642SOL    HW199823  13.981  10.721  12.912
32642SOL    HW299824  13.996  10.718  13.062
32643SOL     OW99825   6.991   5.027  11.853
32643SOL    HW199826   6.930   5.077  11.907
32643SOL    HW299827   6.975   5.059  11.764
32644SOL     OW99828   7.852  12.631   7.901
32644SOL    HW199829   7.869  12.539   7.881
32644SOL    HW299830   7.928  12.677   7.865
32645SOL     OW99831   2.134   6.355  12.468
32645SOL    HW199832   2.069   6.408  12.515
32645SOL    HW299833   2.181   6.419  12.415
32646SOL     OW99834   0.603  12.678   1.017
32646SOL    HW199835   0.563  12.625   0.948
32646SOL    HW299836   0.697  12.667   1.004
32647SOL     OW99837  13.960   4.682   4.986
32647SOL    HW199838  13.931   4.591   4.984
32647SOL    HW299839  13.899   4.728   4.928
32648SOL     OW99840  11.382  11.800  12.892
32648SOL    HW199841  11.453  11.852  12.855
32648SOL    HW299842  11.337  11.762  12.816
32649SOL     OW99843   4.187   3.706   0.421
32649SOL    HW199844   4.141   3.789   0.411
32649SOL    HW299845   4.121   3.645   0.455
32650SOL     OW99846   1.545  11.528  10.585
32650SOL    HW199847   1.473  11.573  10.629
32650SOL    HW299848   1.509  11.441  10.564
32651SOL     OW99849   8.498   4.298   3.705
32651SOL    HW199850   8.416   4.342   3.681
32651SOL    HW299851   8.476   4.247   3.784
32652SOL     OW99852   7.878   9.081   2.807
32652SOL    HW199853   7.915   9.084   2.896
32652SOL    HW299854   7.883   8.989   2.782
32653SOL     OW99855  14.654   0.233   3.656
32653SOL    HW199856  14.708   0.202   3.729
32653SOL    HW299857  14.570   0.188   3.668
32654SOL     OW99858   7.819   0.155  11.706
32654SOL    HW199859   7.743   0.185  11.755
32654SOL    HW299860   7.851   0.080  11.756
32655SOL     OW99861  12.836  11.800   3.018
32655SOL    HW199862  12.862  11.710   2.996
32655SOL    HW299863  12.749  11.792   3.057
32656SOL     OW99864   1.518   8.751   3.014
32656SOL    HW199865   1.440   8.751   3.070
32656SOL    HW299866   1.591   8.759   3.074
32657SOL     OW99867   9.457   2.368  10.036
32657SOL    HW199868   9.515   2.419  10.092
32657SOL    HW299869   9.393   2.432  10.003
32658SOL     OW99870   3.179   0.349   6.525
32658SOL    HW199871   3.248   0.335   6.460
32658SOL    HW299872   3.127   0.421   6.490
32659SOL     OW99873   7.290  12.417  12.723
32659SOL    HW199874   7.271  12.402  12.816
32659SOL    HW299875   7.296  12.512  12.715
32660SOL     OW99876   4.085  12.610  14.488
32660SOL    HW199877   4.018  12.677  14.500
32660SOL    HW299878   4.133  12.608  14.571
32661SOL     OW99879  13.655   4.880  12.553
32661SOL    HW199880  13.700   4.825  12.617
32661SOL    HW299881  13.666   4.969  12.587
32662SOL     OW99882   3.318   4.381   6.657
32662SOL    HW199883   3.304   4.286   6.654
32662SOL    HW299884   3.292   4.406   6.745
32663SOL     OW99885  13.050  11.173  13.651
32663SOL    HW199886  13.088  11.230  13.718
32663SOL    HW299887  13.041  11.088  13.694
32664SOL     OW99888   1.577   3.177   7.431
32664SOL    HW199889   1.622   3.233   7.494
32664SOL    HW299890   1.487   3.208   7.430
32665SOL     OW99891   8.736  12.836   2.858
32665SOL    HW199892   8.678  12.776   2.813
32665SOL    HW299893   8.733  12.808   2.950
32666SOL     OW99894   7.317   9.778   9.039
32666SOL    HW199895   7.320   9.707   9.103
32666SOL    HW299896   7.372   9.847   9.078
32667SOL     OW99897  13.499  13.862   1.376
32667SOL    HW199898  13.464  13.775   1.357
32667SOL    HW299899  13.594  13.848   1.383
32668SOL     OW99900   3.104   0.992   0.491
32668SOL    HW199901   3.030   0.969   0.435
32668SOL    HW299902   3.155   1.054   0.439
32669SOL     OW99903   4.282   2.108   4.088
32669SOL    HW199904   4.363   2.110   4.139
32669SOL    HW299905   4.217   2.148   4.146
32670SOL     OW99906  14.693  13.090   2.941
32670SOL    HW199907  14.749  13.017   2.916
32670SOL    HW299908  14.609  13.050   2.963
32671SOL     OW99909  11.089   7.311   2.503
32671SOL    HW199910  11.105   7.256   2.426
32671SOL    HW299911  11.176   7.326   2.540
32672SOL     OW99912   7.725   5.857  11.912
32672SOL    HW199913   7.756   5.810  11.834
32672SOL    HW299914   7.633   5.830  11.920
32673SOL     OW99915   8.594  13.570   5.440
32673SOL    HW199916   8.556  13.519   5.511
32673SOL    HW299917   8.654  13.510   5.396
32674SOL     OW99918   9.277   9.274   4.353
32674SOL    HW199919   9.226   9.256   4.274
32674SOL    HW299920   9.300   9.187   4.387
32675SOL     OW99921   4.692   7.279  13.452
32675SOL    HW199922   4.606   7.303  13.486
32675SOL    HW299923   4.702   7.186  13.475
32676SOL     OW99924  12.143   4.869   5.509
32676SOL    HW199925  12.187   4.887   5.592
32676SOL    HW299926  12.052   4.896   5.525
32677SOL     OW99927  13.917   7.023   2.555
32677SOL    HW199928  13.879   6.986   2.475
32677SOL    HW299929  13.944   7.111   2.530
32678SOL     OW99930  13.003   7.523   7.630
32678SOL    HW199931  12.958   7.484   7.555
32678SOL    HW299932  12.950   7.599   7.653
32679SOL     OW99933  13.199  13.054   5.078
32679SOL    HW199934  13.157  13.011   5.002
32679SOL    HW299935  13.189  13.147   5.061
32680SOL     OW99936   7.620   8.123   1.316
32680SOL    HW199937   7.555   8.133   1.385
32680SOL    HW299938   7.664   8.208   1.311
32681SOL     OW99939   0.024  10.085   8.590
32681SOL    HW199940  14.817  10.081   8.648
32681SOL    HW299941   0.092  10.034   8.634
32682SOL     OW99942   0.876  13.558   8.760
32682SOL    HW199943   0.816  13.621   8.721
32682SOL    HW299944   0.930  13.528   8.687
32683SOL     OW99945   0.801   6.220   9.219
32683SOL    HW199946   0.832   6.180   9.137
32683SOL    HW299947   0.837   6.308   9.218
32684SOL     OW99948   1.086   8.603  12.839
32684SOL    HW199949   1.127   8.517  12.833
32684SOL    HW299950   1.153   8.658  12.880
32685SOL     OW99951  11.126  12.834   8.631
32685SOL    HW199952  11.136  12.795   8.544
32685SOL    HW299953  11.214  12.864   8.654
32686SOL     OW99954   6.794  11.725   9.783
32686SOL    HW199955   6.734  11.798   9.796
32686SOL    HW299956   6.740  11.647   9.792
32687SOL     OW99957   7.586   2.799   5.482
32687SOL    HW199958   7.642   2.851   5.424
32687SOL    HW299959   7.594   2.840   5.568
32688SOL     OW99960   1.812  14.633  13.591
32688SOL    HW199961   1.804  14.699  13.522
32688SOL    HW299962   1.823  14.550  13.545
32689SOL     OW99963   6.191   9.775   0.674
32689SOL    HW199964   6.260   9.714   0.699
32689SOL    HW299965   6.169   9.820   0.756
32690SOL     OW99966   5.077   3.654   2.643
32690SOL    HW199967   5.121   3.739   2.649
32690SOL    HW299968   5.148   3.590   2.645
32691SOL     OW99969   1.485   8.001   1.874
32691SOL    HW199970   1.507   7.980   1.784
32691SOL    HW299971   1.392   7.980   1.881
32692SOL     OW99972   8.620  11.336  10.256
32692SOL    HW199973   8.596  11.402  10.320
32692SOL    HW299974   8.550  11.338  10.191
32693SOL     OW99975   9.823   0.352  10.678
32693SOL    HW199976   9.749   0.412  10.671
32693SOL    HW299977   9.875   0.369  10.599
32694SOL     OW99978   0.647   5.635   9.052
32694SOL    HW199979   0.742   5.639   9.045
32694SOL    HW299980   0.616   5.716   9.012
32695SOL     OW99981  13.629   0.182  14.231
32695SOL    HW199982  13.592   0.235  14.301
32695SOL    HW299983  13.571   0.196  14.156
32696SOL     OW99984  14.345   4.350   0.149
32696SOL    HW199985  14.389   4.290   0.089
32696SOL    HW299986  14.276   4.390   0.096
32697SOL     OW99987  10.828   2.731   2.316
32697SOL    HW199988  10.879   2.711   2.237
32697SOL    HW299989  10.873   2.684   2.386
32698SOL     OW99990   2.447  11.493   9.668
32698SOL    HW199991   2.413  11.574   9.706
32698SOL    HW299992   2.370  11.435   9.661
32699SOL     OW99993   6.783   3.209   4.287
32699SOL    HW199994   6.690   3.217   4.265
32699SOL    HW299995   6.829   3.242   4.209
32700SOL     OW99996   3.243   9.308   4.892
32700SOL    HW199997   3.180   9.366   4.936
32700SOL    HW299998   3.236   9.225   4.939
32701SOL     OW99999   3.228   0.586  14.002
32701SOL    HW1    0   3.253   0.500  14.036
32701SOL    HW2    1   3.199   0.568  13.912
32702SOL     OW    2   6.415   8.321   4.948
32702SOL    HW1    3   6.404   8.234   4.912
32702SOL    HW2    4   6.339   8.335   5.004
32703SOL     OW    5   3.591   8.817  13.005
32703SOL    HW1    6   3.514   8.765  13.026
32703SOL    HW2    7   3.650   8.757  12.960
32704SOL     OW    8   0.127  10.623   2.110
32704SOL    HW1    9   0.111  10.662   2.024
32704SOL    HW2   10   0.212  10.581   2.102
32705SOL     OW   11   7.787   7.421   8.458
32705SOL    HW1   12   7.848   7.442   8.529
32705SOL    HW2   13   7.744   7.340   8.485
32706SOL     OW   14  13.682   9.293  14.059
32706SOL    HW1   15  13.679   9.388  14.060
32706SOL    HW2   16  13.757   9.271  14.003
32707SOL     OW   17  14.606   6.971  13.098
32707SOL    HW1   18  14.691   6.990  13.136
32707SOL    HW2   19  14.625   6.916  13.022
32708SOL     OW   20  13.052   0.792   4.960
32708SOL    HW1   21  13.094   0.837   4.887
32708SOL    HW2   22  13.072   0.845   5.037
32709SOL     OW   23   8.046   5.404  11.384
32709SOL    HW1   24   7.960   5.425  11.421
32709SOL    HW2   25   8.037   5.420  11.291
32710SOL     OW   26  14.381   8.669  10.953
32710SOL    HW1   27  14.286   8.655  10.953
32710SOL    HW2   28  14.406   8.660  10.861
32711SOL     OW   29  13.757   0.991   9.217
32711SOL    HW1   30  13.695   1.038   9.161
32711SOL    HW2   31  13.797   0.926   9.159
32712SOL     OW   32   1.288   8.289  11.476
32712SOL    HW1   33   1.278   8.220  11.410
32712SOL    HW2   34   1.252   8.367  11.433
32713SOL     OW   35   2.251   2.887   3.018
32713SOL    HW1   36   2.249   2.933   3.102
32713SOL    HW2   37   2.159   2.876   2.995
32714SOL     OW   38   5.788   3.186  11.699
32714SOL    HW1   39   5.699   3.181  11.663
32714SOL    HW2   40   5.774   3.188  11.794
32715SOL     OW   41   0.361   2.310   7.892
32715SOL    HW1   42   0.376   2.219   7.869
32715SOL    HW2   43   0.376   2.358   7.810
32716SOL     OW   44   5.400   0.509   7.315
32716SOL    HW1   45   5.367   0.560   7.389
32716SOL    HW2   46   5.478   0.556   7.286
32717SOL     OW   47   2.109  11.173   2.119
32717SOL    HW1   48   2.057  11.207   2.191
32717SOL    HW2   49   2.045  11.139   2.056
32718SOL     OW   50  11.628   1.778   4.285
32718SOL    HW1   51  11.562   1.795   4.353
32718SOL    HW2   52  11.623   1.684   4.269
32719SOL     OW   53   7.782   8.420  14.669
32719SOL    HW1   54   7.828   8.449  14.748
32719SOL    HW2   55   7.740   8.499  14.635
32720SOL     OW   56   4.312   6.745   6.738
32720SOL    HW1   57   4.392   6.742   6.791
32720SOL    HW2   58   4.336   6.706   6.654
32721SOL     OW   59   2.645  10.187  12.350
32721SOL    HW1   60   2.643  10.231  12.435
32721SOL    HW2   61   2.638  10.093  12.371
32722SOL     OW   62  13.953   9.241   8.658
32722SOL    HW1   63  14.006   9.166   8.685
32722SOL    HW2   64  14.014   9.299   8.614
32723SOL     OW   65   9.147   0.857  12.720
32723SOL    HW1   66   9.068   0.833  12.671
32723SOL    HW2   67   9.154   0.790  12.789
32724SOL     OW   68   0.466   7.954   4.128
32724SOL    HW1   69   0.460   7.977   4.221
32724SOL    HW2   70   0.402   8.011   4.085
32725SOL     OW   71   6.457   4.535  12.950
32725SOL    HW1   72   6.511   4.467  12.990
32725SOL    HW2   73   6.402   4.488  12.887
32726SOL     OW   74   9.315  12.479  11.157
32726SOL    HW1   75   9.330  12.556  11.101
32726SOL    HW2   76   9.221  12.479  11.173
32727SOL     OW   77  13.532   2.434  12.253
32727SOL    HW1   78  13.447   2.476  12.247
32727SOL    HW2   79  13.520   2.350  12.209
32728SOL     OW   80   8.149   8.545   4.660
32728SOL    HW1   81   8.071   8.491   4.642
32728SOL    HW2   82   8.202   8.537   4.581
32729SOL     OW   83   4.971   9.595   9.559
32729SOL    HW1   84   5.043   9.535   9.541
32729SOL    HW2   85   4.897   9.560   9.510
32730SOL     OW   86  11.741   6.868  13.202
32730SOL    HW1   87  11.685   6.800  13.165
32730SOL    HW2   88  11.815   6.873  13.141
32731SOL     OW   89   4.433  12.731   0.324
32731SOL    HW1   90   4.516  12.769   0.353
32731SOL    HW2   91   4.459  12.652   0.277
32732SOL     OW   92   5.063   1.952   7.813
32732SOL    HW1   93   4.984   1.910   7.780
32732SOL    HW2   94   5.116   1.880   7.849
32733SOL     OW   95   0.949   7.439   5.914
32733SOL    HW1   96   0.912   7.523   5.938
32733SOL    HW2   97   0.964   7.445   5.820
32734SOL     OW   98  14.013  12.406  10.238
32734SOL    HW1   99  14.001  12.334  10.300
32734SOL    HW2  100  14.025  12.363  10.154
32735SOL     OW  101   2.110   0.334   3.552
32735SOL    HW1  102   2.109   0.320   3.457
32735SOL    HW2  103   2.167   0.264   3.585
32736SOL     OW  104   2.503   5.367   6.258
32736SOL    HW1  105   2.579   5.420   6.279
32736SOL    HW2  106   2.534   5.308   6.189
32737SOL     OW  107   2.370  14.849   2.592
32737SOL    HW1  108   2.434  14.781   2.613
32737SOL    HW2  109   2.385   0.050   2.657
32738SOL     OW  110  11.629   9.990   6.973
32738SOL    HW1  111  11.556  10.025   6.922
32738SOL    HW2  112  11.691  10.062   6.979
32739SOL     OW  113   0.877  12.907   6.949
32739SOL    HW1  114   0.808  12.869   6.894
32739SOL    HW2  115   0.955  12.856   6.930
32740SOL     OW  116  13.542  12.038   3.917
32740SOL    HW1  117  13.601  12.063   3.846
32740SOL    HW2  118  13.600  12.020   3.991
32741SOL     OW  119   5.259  14.579   6.709
32741SOL    HW1  120   5.317  14.654   6.697
32741SOL    HW2  121   5.275  14.550   6.798
32742SOL     OW  122   5.407  13.442   3.736
32742SOL    HW1  123   5.403  13.453   3.641
32742SOL    HW2  124   5.463  13.513   3.766
32743SOL     OW  125   3.931   1.943  13.025
32743SOL    HW1  126   3.968   2.027  13.050
32743SOL    HW2  127   3.844   1.941  13.067
32744SOL     OW  128   4.758   7.020   1.506
32744SOL    HW1  129   4.778   7.064   1.589
32744SOL    HW2  130   4.754   6.927   1.528
32745SOL     OW  131   0.790  12.843   1.407
32745SOL    HW1  132   0.705  12.824   1.445
32745SOL    HW2  133   0.772  12.902   1.334
32746SOL     OW  134   6.769   2.256  12.955
32746SOL    HW1  135   6.858   2.288  12.969
32746SOL    HW2  136   6.725   2.328  12.909
32747SOL     OW  137   4.689   8.517   0.801
32747SOL    HW1  138   4.642   8.547   0.879
32747SOL    HW2  139   4.774   8.490   0.833
32748SOL     OW  140  11.400   8.289  11.843
32748SOL    HW1  141  11.430   8.262  11.930
32748SOL    HW2  142  11.395   8.208  11.792
32749SOL     OW  143   5.571  12.276   7.172
32749SOL    HW1  144   5.627  12.199   7.176
32749SOL    HW2  145   5.524  12.267   7.089
32750SOL     OW  146  13.579   4.943  11.083
32750SOL    HW1  147  13.487   4.926  11.066
32750SOL    HW2  148  13.592   5.033  11.053
32751SOL     OW  149   6.827   0.595   4.501
32751SOL    HW1  150   6.907   0.617   4.550
32751SOL    HW2  151   6.763   0.572   4.568
32752SOL     OW  152   8.580  14.620  13.828
32752SOL    HW1  153   8.631  14.665  13.895
32752SOL    HW2  154   8.531  14.689  13.784
32753SOL     OW  155  12.212   1.819   9.981
32753SOL    HW1  156  12.296   1.863   9.967
32753SOL    HW2  157  12.147   1.881   9.949
32754SOL     OW  158   6.880   7.511   7.570
32754SOL    HW1  159   6.911   7.534   7.658
32754SOL    HW2  160   6.835   7.590   7.539
32755SOL     OW  161   3.850  13.166   3.231
32755SOL    HW1  162   3.854  13.174   3.135
32755SOL    HW2  163   3.912  13.096   3.251
32756SOL     OW  164  11.128   0.834  14.216
32756SOL    HW1  165  11.195   0.770  14.241
32756SOL    HW2  166  11.169   0.919  14.234
32757SOL     OW  167  11.910  12.983  10.467
32757SOL    HW1  168  11.949  13.067  10.494
32757SOL    HW2  169  11.884  12.942  10.549
32758SOL     OW  170  13.282   5.932   8.115
32758SOL    HW1  171  13.311   5.871   8.047
32758SOL    HW2  172  13.239   6.003   8.067
32759SOL     OW  173   6.802   1.975   4.862
32759SOL    HW1  174   6.885   2.016   4.839
32759SOL    HW2  175   6.735   2.036   4.833
32760SOL     OW  176   4.005   7.188   8.367
32760SOL    HW1  177   3.928   7.244   8.367
32760SOL    HW2  178   4.070   7.236   8.417
32761SOL     OW  179  10.634   9.331  13.599
32761SOL    HW1  180  10.588   9.310  13.518
32761SOL    HW2  181  10.569   9.318  13.668
32762SOL     OW  182   1.418   5.995   2.888
32762SOL    HW1  183   1.388   6.054   2.958
32762SOL    HW2  184   1.504   5.965   2.917
32763SOL     OW  185   4.678   0.877   9.076
32763SOL    HW1  186   4.747   0.833   9.027
32763SOL    HW2  187   4.598   0.832   9.050
32764SOL     OW  188   0.470   0.221   0.892
32764SOL    HW1  189   0.492   0.299   0.841
32764SOL    HW2  190   0.549   0.204   0.943
32765SOL     OW  191   6.128   1.981  12.947
32765SOL    HW1  192   6.166   2.066  12.968
32765SOL    HW2  193   6.124   1.935  13.031
32766SOL     OW  194   0.980  14.643   6.885
32766SOL    HW1  195   1.004  14.718   6.831
32766SOL    HW2  196   1.037  14.649   6.962
32767SOL     OW  197  11.062   5.339   2.577
32767SOL    HW1  198  10.984   5.384   2.546
32767SOL    HW2  199  11.125   5.348   2.505
32768SOL     OW  200   1.583  14.622   5.576
32768SOL    HW1  201   1.538  14.538   5.566
32768SOL    HW2  202   1.674  14.604   5.550
32769SOL     OW  203   0.765   6.185  14.046
32769SOL    HW1  204   0.733   6.254  13.988
32769SOL    HW2  205   0.860   6.189  14.038
32770SOL     OW  206   2.658  13.514   9.293
32770SOL    HW1  207   2.585  13.506   9.232
32770SOL    HW2  208   2.715  13.440   9.273
32771SOL     OW  209   2.123  14.016   9.401
32771SOL    HW1  210   2.129  13.991   9.309
32771SOL    HW2  211   2.033  13.991   9.426
32772SOL     OW  212  13.675  13.639  10.195
32772SOL    HW1  213  13.677  13.547  10.167
32772SOL    HW2  214  13.663  13.634  10.290
32773SOL     OW  215   5.661   7.864   8.537
32773SOL    HW1  216   5.621   7.845   8.452
32773SOL    HW2  217   5.670   7.779   8.579
32774SOL     OW  218   7.197   3.702  14.750
32774SOL    HW1  219   7.114   3.715  14.797
32774SOL    HW2  220   7.223   3.790  14.723
32775SOL     OW  221   5.092   3.303  10.426
32775SOL    HW1  222   5.168   3.246  10.437
32775SOL    HW2  223   5.118   3.385  10.469
32776SOL     OW  224   2.528   1.036   9.751
32776SOL    HW1  225   2.462   0.985   9.799
32776SOL    HW2  226   2.588   1.066   9.819
32777SOL     OW  227  14.496  11.265   7.924
32777SOL    HW1  228  14.463  11.351   7.899
32777SOL    HW2  229  14.547  11.236   7.848
32778SOL     OW  230   4.214   8.344  10.586
32778SOL    HW1  231   4.165   8.424  10.604
32778SOL    HW2  232   4.195   8.287  10.661
32779SOL     OW  233  12.801  13.260  13.680
32779SOL    HW1  234  12.795  13.326  13.611
32779SOL    HW2  235  12.711  13.228  13.691
32780SOL     OW  236  10.138   9.465   3.282
32780SOL    HW1  237  10.205   9.534   3.283
32780SOL    HW2  238  10.055   9.513   3.285
32781SOL     OW  239   2.592  14.798  14.463
32781SOL    HW1  240   2.601  14.719  14.409
32781SOL    HW2  241   2.652  14.782  14.537
32782SOL     OW  242   4.506  14.233  13.040
32782SOL    HW1  243   4.488  14.146  13.077
32782SOL    HW2  244   4.448  14.291  13.090
32783SOL     OW  245   9.904  14.415   8.741
32783SOL    HW1  246   9.865  14.360   8.673
32783SOL    HW2  247   9.945  14.353   8.801
32784SOL     OW  248  12.455   0.694   4.700
32784SOL    HW1  249  12.532   0.731   4.742
32784SOL    HW2  250  12.417   0.767   4.651
32785SOL     OW  251  13.182   0.980   9.202
32785SOL    HW1  252  13.272   0.964   9.232
32785SOL    HW2  253  13.163   0.906   9.145
32786SOL     OW  254   3.602   2.481   3.198
32786SOL    HW1  255   3.542   2.554   3.180
32786SOL    HW2  256   3.565   2.438   3.274
32787SOL     OW  257   5.514  13.532  12.455
32787SOL    HW1  258   5.523  13.498  12.366
32787SOL    HW2  259   5.533  13.625  12.448
32788SOL     OW  260   2.931   9.336  14.739
32788SOL    HW1  261   2.930   9.420  14.785
32788SOL    HW2  262   2.977   9.354  14.657
32789SOL     OW  263  14.217  12.059  13.036
32789SOL    HW1  264  14.280  12.045  13.107
32789SOL    HW2  265  14.148  11.996  13.054
32790SOL     OW  266   2.191  10.398  10.989
32790SOL    HW1  267   2.243  10.330  10.946
32790SOL    HW2  268   2.218  10.395  11.081
32791SOL     OW  269   8.543  12.033  14.273
32791SOL    HW1  270   8.618  12.048  14.216
32791SOL    HW2  271   8.481  11.983  14.219
32792SOL     OW  272   4.073  12.509   4.134
32792SOL    HW1  273   4.157  12.493   4.092
32792SOL    HW2  274   4.036  12.583   4.086
32793SOL     OW  275   7.928   1.489   7.397
32793SOL    HW1  276   7.983   1.421   7.436
32793SOL    HW2  277   7.933   1.472   7.303
32794SOL     OW  278   9.012  13.499   8.171
32794SOL    HW1  279   8.939  13.495   8.233
32794SOL    HW2  280   9.086  13.459   8.217
32795SOL     OW  281   8.735   4.591   8.090
32795SOL    HW1  282   8.742   4.669   8.145
32795SOL    HW2  283   8.788   4.526   8.135
32796SOL     OW  284   5.737  11.245  14.794
32796SOL    HW1  285   5.799  11.201  14.852
32796SOL    HW2  286   5.728  11.333  14.831
32797SOL     OW  287   0.471  11.165  11.524
32797SOL    HW1  288   0.481  11.223  11.448
32797SOL    HW2  289   0.381  11.135  11.520
32798SOL     OW  290   8.572   5.709   1.118
32798SOL    HW1  291   8.512   5.725   1.191
32798SOL    HW2  292   8.548   5.775   1.053
32799SOL     OW  293   9.706  13.075   3.285
32799SOL    HW1  294   9.739  13.165   3.278
32799SOL    HW2  295   9.695  13.061   3.379
32800SOL     OW  296  11.639   5.176  12.513
32800SOL    HW1  297  11.670   5.134  12.433
32800SOL    HW2  298  11.565   5.230  12.485
32801SOL     OW  299   5.142  13.309   3.388
32801SOL    HW1  300   5.146  13.230   3.441
32801SOL    HW2  301   5.073  13.291   3.324
32802SOL     OW  302  12.250   6.644   7.834
32802SOL    HW1  303  12.216   6.677   7.751
32802SOL    HW2  304  12.172   6.616   7.883
32803SOL     OW  305   9.208   3.988   9.422
32803SOL    HW1  306   9.124   3.950   9.395
32803SOL    HW2  307   9.273   3.927   9.387
32804SOL     OW  308   7.856  12.305   2.132
32804SOL    HW1  309   7.887  12.315   2.042
32804SOL    HW2  310   7.855  12.210   2.146
32805SOL     OW  311   2.664  10.976  11.318
32805SOL    HW1  312   2.702  10.906  11.265
32805SOL    HW2  313   2.694  10.958  11.407
32806SOL     OW  314   8.190   2.583   5.669
32806SOL    HW1  315   8.129   2.595   5.742
32806SOL    HW2  316   8.263   2.643   5.688
32807SOL     OW  317   5.662  11.326   0.745
32807SOL    HW1  318   5.568  11.321   0.728
32807SOL    HW2  319   5.678  11.419   0.765
32808SOL     OW  320   4.544   8.629   5.979
32808SOL    HW1  321   4.513   8.691   5.913
32808SOL    HW2  322   4.483   8.555   5.972
32809SOL     OW  323   1.924  11.554   7.706
32809SOL    HW1  324   1.859  11.603   7.757
32809SOL    HW2  325   2.008  11.587   7.736
32810SOL     OW  326  14.732  14.109   9.774
32810SOL    HW1  327  14.684  14.083   9.695
32810SOL    HW2  328  14.822  14.081   9.757
32811SOL     OW  329   6.974   8.829   6.814
32811SOL    HW1  330   7.015   8.851   6.731
32811SOL    HW2  331   6.882   8.852   6.804
32812SOL     OW  332   7.617  10.165  10.357
32812SOL    HW1  333   7.632  10.191  10.266
32812SOL    HW2  334   7.527  10.190  10.375
32813SOL     OW  335   8.301   6.821   2.084
32813SOL    HW1  336   8.262   6.860   2.006
32813SOL    HW2  337   8.340   6.740   2.053
32814SOL     OW  338   5.145   4.159   8.808
32814SOL    HW1  339   5.052   4.184   8.803
32814SOL    HW2  340   5.144   4.063   8.800
32815SOL     OW  341   7.559   2.269  11.695
32815SOL    HW1  342   7.643   2.228  11.717
32815SOL    HW2  343   7.503   2.249  11.770
32816SOL     OW  344   9.530  13.874   3.915
32816SOL    HW1  345   9.624  13.880   3.933
32816SOL    HW2  346   9.511  13.781   3.911
32817SOL     OW  347   7.536   9.926   9.586
32817SOL    HW1  348   7.462   9.900   9.641
32817SOL    HW2  349   7.574  10.002   9.631
32818SOL     OW  350   9.776   0.300  11.029
32818SOL    HW1  351   9.758   0.332  11.118
32818SOL    HW2  352   9.699   0.325  10.979
32819SOL     OW  353   0.768   5.619  11.096
32819SOL    HW1  354   0.737   5.550  11.155
32819SOL    HW2  355   0.863   5.620  11.107
32820SOL     OW  356   7.672  10.757   6.087
32820SOL    HW1  357   7.619  10.837   6.080
32820SOL    HW2  358   7.761  10.786   6.068
32821SOL     OW  359  10.869   5.189  10.602
32821SOL    HW1  360  10.829   5.107  10.632
32821SOL    HW2  361  10.887   5.174  10.509
32822SOL     OW  362  10.452   0.440  13.735
32822SOL    HW1  363  10.532   0.492  13.743
32822SOL    HW2  364  10.479   0.351  13.754
32823SOL     OW  365   2.372   7.813  14.241
32823SOL    HW1  366   2.429   7.746  14.279
32823SOL    HW2  367   2.406   7.826  14.152
32824SOL     OW  368  11.553  10.223   6.284
32824SOL    HW1  369  11.613  10.204   6.212
32824SOL    HW2  370  11.557  10.318   6.295
32825SOL     OW  371  10.582   1.443   9.516
32825SOL    HW1  372  10.489   1.458   9.532
32825SOL    HW2  373  10.614   1.400   9.596
32826SOL     OW  374   3.421   6.190  13.508
32826SOL    HW1  375   3.440   6.191  13.601
32826SOL    HW2  376   3.334   6.149  13.501
32827SOL     OW  377   2.542   7.749   7.856
32827SOL    HW1  378   2.464   7.804   7.863
32827SOL    HW2  379   2.611   7.799   7.901
32828SOL     OW  380   6.242   2.753   0.056
32828SOL    HW1  381   6.320   2.753   0.001
32828SOL    HW2  382   6.272   2.719   0.140
32829SOL     OW  383   0.240  12.454  11.318
32829SOL    HW1  384   0.161  12.400  11.313
32829SOL    HW2  385   0.230  12.502  11.400
32830SOL     OW  386   9.540   1.134   2.491
32830SOL    HW1  387   9.447   1.155   2.501
32830SOL    HW2  388   9.548   1.045   2.525
32831SOL     OW  389  12.247   2.643   6.762
32831SOL    HW1  390  12.160   2.675   6.786
32831SOL    HW2  391  12.242   2.629   6.668
32832SOL     OW  392   4.160  13.571   9.984
32832SOL    HW1  393   4.099  13.634   9.946
32832SOL    HW2  394   4.204  13.531   9.909
32833SOL     OW  395  12.043  13.066   5.988
32833SOL    HW1  396  12.095  13.127   6.040
32833SOL    HW2  397  12.089  12.982   5.997
32834SOL     OW  398  10.190   6.204  11.787
32834SOL    HW1  399  10.259   6.194  11.721
32834SOL    HW2  400  10.125   6.137  11.764
32835SOL     OW  401  14.017   3.153   8.859
32835SOL    HW1  402  14.002   3.190   8.946
32835SOL    HW2  403  14.029   3.059   8.875
32836SOL     OW  404  10.361  10.912   4.613
32836SOL    HW1  405  10.353  10.917   4.708
32836SOL    HW2  406  10.299  10.977   4.581
32837SOL     OW  407   6.671  14.174   0.433
32837SOL    HW1  408   6.649  14.164   0.526
32837SOL    HW2  409   6.700  14.087   0.406
32838SOL     OW  410  11.379   5.097  11.387
32838SOL    HW1  411  11.460   5.099  11.336
32838SOL    HW2  412  11.316   5.053  11.330
32839SOL     OW  413  10.542  13.317  12.823
32839SOL    HW1  414  10.465  13.299  12.770
32839SOL    HW2  415  10.586  13.389  12.777
32840SOL     OW  416   0.938  13.973  12.668
32840SOL    HW1  417   0.997  14.037  12.708
32840SOL    HW2  418   0.904  14.017  12.590
32841SOL     OW  419   7.385   9.170   5.960
32841SOL    HW1  420   7.299   9.203   5.934
32841SOL    HW2  421   7.383   9.175   6.056
32842SOL     OW  422   7.448  10.930   0.573
32842SOL    HW1  423   7.413  10.980   0.499
32842SOL    HW2  424   7.524  10.885   0.537
32843SOL     OW  425   4.031   2.299   4.839
32843SOL    HW1  426   4.000   2.360   4.771
32843SOL    HW2  427   4.094   2.350   4.890
32844SOL     OW  428   5.693   7.987  14.419
32844SOL    HW1  429   5.654   7.931  14.351
32844SOL    HW2  430   5.626   8.052  14.438
32845SOL     OW  431   1.746   4.355   7.193
32845SOL    HW1  432   1.728   4.264   7.220
32845SOL    HW2  433   1.762   4.350   7.099
32846SOL     OW  434   3.960  12.960   7.609
32846SOL    HW1  435   3.875  12.919   7.624
32846SOL    HW2  436   3.995  12.916   7.532
32847SOL     OW  437   5.258  13.088   2.704
32847SOL    HW1  438   5.195  13.158   2.690
32847SOL    HW2  439   5.322  13.125   2.764
32848SOL     OW  440   9.118  11.337  10.179
32848SOL    HW1  441   9.058  11.296  10.242
32848SOL    HW2  442   9.167  11.264  10.142
32849SOL     OW  443  10.136   9.603   7.234
32849SOL    HW1  444  10.065   9.635   7.179
32849SOL    HW2  445  10.171   9.681   7.276
32850SOL     OW  446   9.802  12.910   3.042
32850SOL    HW1  447   9.883  12.959   3.054
32850SOL    HW2  448   9.740  12.950   3.104
32851SOL     OW  449   3.352   8.026  10.131
32851SOL    HW1  450   3.317   8.041  10.219
32851SOL    HW2  451   3.405   7.947  10.140
32852SOL     OW  452  14.311   6.049  14.189
32852SOL    HW1  453  14.295   5.979  14.253
32852SOL    HW2  454  14.353   6.005  14.115
32853SOL     OW  455   8.460   9.680   7.470
32853SOL    HW1  456   8.476   9.725   7.553
32853SOL    HW2  457   8.390   9.730   7.428
32854SOL     OW  458   1.681  12.065  13.234
32854SOL    HW1  459   1.731  12.032  13.309
32854SOL    HW2  460   1.738  12.130  13.194
32855SOL     OW  461  13.316  10.282   1.795
32855SOL    HW1  462  13.280  10.323   1.717
32855SOL    HW2  463  13.384  10.342   1.825
32856SOL     OW  464  10.700   7.222   6.081
32856SOL    HW1  465  10.635   7.261   6.022
32856SOL    HW2  466  10.662   7.234   6.168
32857SOL     OW  467   1.838  14.246  11.174
32857SOL    HW1  468   1.758  14.258  11.123
32857SOL    HW2  469   1.870  14.160  11.148
32858SOL     OW  470  11.356   0.886   6.590
32858SOL    HW1  471  11.295   0.911   6.521
32858SOL    HW2  472  11.317   0.919   6.671
32859SOL     OW  473  14.071   1.388  14.201
32859SOL    HW1  474  14.113   1.459  14.249
32859SOL    HW2  475  14.115   1.386  14.116
32860SOL     OW  476  14.182  11.287   2.861
32860SOL    HW1  477  14.109  11.226   2.863
32860SOL    HW2  478  14.258  11.234   2.887
32861SOL     OW  479   3.758  13.453  14.466
32861SOL    HW1  480   3.743  13.437  14.373
32861SOL    HW2  481   3.670  13.453  14.505
32862SOL     OW  482   6.634  10.273  13.922
32862SOL    HW1  483   6.641  10.340  13.991
32862SOL    HW2  484   6.655  10.320  13.842
32863SOL     OW  485   7.043   5.996   0.698
32863SOL    HW1  486   7.005   5.917   0.661
32863SOL    HW2  487   7.138   5.981   0.695
32864SOL     OW  488   8.838  13.477  13.020
32864SOL    HW1  489   8.798  13.395  13.048
32864SOL    HW2  490   8.764  13.531  12.990
32865SOL     OW  491  12.802  13.017   1.199
32865SOL    HW1  492  12.760  12.993   1.116
32865SOL    HW2  493  12.761  13.099   1.225
32866SOL     OW  494   4.740  11.526  14.088
32866SOL    HW1  495   4.806  11.581  14.130
32866SOL    HW2  496   4.732  11.450  14.145
32867SOL     OW  497  12.889   5.888   4.417
32867SOL    HW1  498  12.984   5.896   4.416
32867SOL    HW2  499  12.872   5.798   4.444
32868SOL     OW  500   1.511   5.658  11.784
32868SOL    HW1  501   1.573   5.586  11.799
32868SOL    HW2  502   1.448   5.649  11.855
32869SOL     OW  503   3.648   2.463  14.157
32869SOL    HW1  504   3.593   2.512  14.219
32869SOL    HW2  505   3.593   2.455  14.079
32870SOL     OW  506  10.427   9.136  14.338
32870SOL    HW1  507  10.470   9.164  14.257
32870SOL    HW2  508  10.496   9.089  14.386
32871SOL     OW  509   4.680  10.990  11.849
32871SOL    HW1  510   4.690  10.914  11.792
32871SOL    HW2  511   4.761  10.993  11.899
32872SOL     OW  512   4.591   6.148   1.828
32872SOL    HW1  513   4.609   6.142   1.922
32872SOL    HW2  514   4.651   6.086   1.788
32873SOL     OW  515  14.829   3.046  13.398
32873SOL    HW1  516  14.752   3.098  13.374
32873SOL    HW2  517  14.847   2.992  13.321
32874SOL     OW  518  14.537   4.435   9.767
32874SOL    HW1  519  14.456   4.408   9.725
32874SOL    HW2  520  14.604   4.426   9.699
32875SOL     OW  521   0.306   0.382   4.728
32875SOL    HW1  522   0.319   0.474   4.708
32875SOL    HW2  523   0.352   0.369   4.811
32876SOL     OW  524   1.892   3.382   1.554
32876SOL    HW1  525   1.821   3.414   1.499
32876SOL    HW2  526   1.892   3.287   1.540
32877SOL     OW  527  13.708   1.867   1.709
32877SOL    HW1  528  13.663   1.867   1.793
32877SOL    HW2  529  13.719   1.959   1.686
32878SOL     OW  530   0.684   6.326   6.263
32878SOL    HW1  531   0.651   6.376   6.188
32878SOL    HW2  532   0.613   6.330   6.327
32879SOL     OW  533   1.242  10.577   8.565
32879SOL    HW1  534   1.333  10.548   8.564
32879SOL    HW2  535   1.246  10.669   8.591
32880SOL     OW  536   3.954   4.055   8.979
32880SOL    HW1  537   4.037   4.028   8.940
32880SOL    HW2  538   3.931   4.136   8.932
32881SOL     OW  539   7.242   2.663   9.474
32881SOL    HW1  540   7.148   2.661   9.455
32881SOL    HW2  541   7.281   2.706   9.398
32882SOL     OW  542   4.002   0.154   1.448
32882SOL    HW1  543   4.093   0.125   1.439
32882SOL    HW2  544   4.007   0.232   1.503
32883SOL     OW  545   4.720   5.655  12.133
32883SOL    HW1  546   4.626   5.669  12.146
32883SOL    HW2  547   4.727   5.627  12.042
32884SOL     OW  548  12.398   9.232   6.400
32884SOL    HW1  549  12.336   9.183   6.347
32884SOL    HW2  550  12.394   9.191   6.486
32885SOL     OW  551   6.897   5.152  10.201
32885SOL    HW1  552   6.980   5.148  10.152
32885SOL    HW2  553   6.872   5.061  10.213
32886SOL     OW  554  11.590  10.279   4.279
32886SOL    HW1  555  11.641  10.335   4.338
32886SOL    HW2  556  11.520  10.244   4.334
32887SOL     OW  557  13.296   9.659   0.979
32887SOL    HW1  558  13.267   9.743   1.015
32887SOL    HW2  559  13.390   9.656   0.998
32888SOL     OW  560  11.499   8.614   3.229
32888SOL    HW1  561  11.593   8.630   3.216
32888SOL    HW2  562  11.495   8.526   3.268
32889SOL     OW  563  13.921  10.901  12.126
32889SOL    HW1  564  13.900  10.830  12.186
32889SOL    HW2  565  13.839  10.915  12.077
32890SOL     OW  566   2.364   4.699   8.527
32890SOL    HW1  567   2.455   4.699   8.559
32890SOL    HW2  568   2.320   4.765   8.580
32891SOL     OW  569   1.609   7.758  13.754
32891SOL    HW1  570   1.528   7.709  13.763
32891SOL    HW2  571   1.586   7.834  13.700
32892SOL     OW  572   1.279   5.117   7.359
32892SOL    HW1  573   1.297   5.207   7.386
32892SOL    HW2  574   1.364   5.072   7.368
32893SOL     OW  575   3.567   0.616   2.918
32893SOL    HW1  576   3.538   0.705   2.895
32893SOL    HW2  577   3.597   0.624   3.008
32894SOL     OW  578   4.478   1.942   9.772
32894SOL    HW1  579   4.491   1.942   9.677
32894SOL    HW2  580   4.490   1.850   9.798
32895SOL     OW  581   1.996   5.403   5.972
32895SOL    HW1  582   2.078   5.440   5.940
32895SOL    HW2  583   1.957   5.360   5.896
32896SOL     OW  584   8.930  10.785   9.090
32896SOL    HW1  585   8.975  10.764   9.008
32896SOL    HW2  586   8.988  10.750   9.158
32897SOL     OW  587  11.199   4.435  10.376
32897SOL    HW1  588  11.246   4.357  10.347
32897SOL    HW2  589  11.122   4.439  10.318
32898SOL     OW  590   6.497   8.922   8.207
32898SOL    HW1  591   6.544   8.876   8.137
32898SOL    HW2  592   6.422   8.963   8.163
32899SOL     OW  593   5.274   2.128   7.054
32899SOL    HW1  594   5.364   2.114   7.026
32899SOL    HW2  595   5.234   2.041   7.048
32900SOL     OW  596  11.940   8.260   4.754
32900SOL    HW1  597  12.005   8.220   4.696
32900SOL    HW2  598  11.974   8.348   4.770
32901SOL     OW  599  12.942   1.118  11.319
32901SOL    HW1  600  12.909   1.097  11.232
32901SOL    HW2  601  12.952   1.213  11.319
32902SOL     OW  602   2.835   5.834  11.464
32902SOL    HW1  603   2.920   5.840  11.508
32902SOL    HW2  604   2.855   5.858  11.373
32903SOL     OW  605  13.954  14.730  13.632
32903SOL    HW1  606  13.957  14.799  13.566
32903SOL    HW2  607  13.863  14.701  13.633
32904SOL     OW  608  10.655   1.391   6.811
32904SOL    HW1  609  10.582   1.388   6.873
32904SOL    HW2  610  10.725   1.342   6.855
32905SOL     OW  611  11.158   7.077   2.325
32905SOL    HW1  612  11.184   6.986   2.316
32905SOL    HW2  613  11.072   7.082   2.282
32906SOL     OW  614   2.732   1.880   3.545
32906SOL    HW1  615   2.645   1.843   3.563
32906SOL    HW2  616   2.788   1.803   3.533
32907SOL     OW  617   6.053   1.389  13.210
32907SOL    HW1  618   6.148   1.402  13.203
32907SOL    HW2  619   6.032   1.331  13.137
32908SOL     OW  620  12.816  13.738   5.292
32908SOL    HW1  621  12.850  13.826   5.276
32908SOL    HW2  622  12.769  13.745   5.375
32909SOL     OW  623   4.900   4.022   8.100
32909SOL    HW1  624   4.847   4.101   8.111
32909SOL    HW2  625   4.901   4.007   8.005
32910SOL     OW  626   2.323  12.700   1.336
32910SOL    HW1  627   2.266  12.660   1.270
32910SOL    HW2  628   2.321  12.793   1.316
32911SOL     OW  629   5.411   9.830   8.373
32911SOL    HW1  630   5.453   9.896   8.429
32911SOL    HW2  631   5.402   9.874   8.288
32912SOL     OW  632  11.573   9.337   3.556
32912SOL    HW1  633  11.558   9.279   3.481
32912SOL    HW2  634  11.518   9.413   3.537
32913SOL     OW  635   6.802   1.902  11.143
32913SOL    HW1  636   6.897   1.907  11.135
32913SOL    HW2  637   6.788   1.866  11.231
32914SOL     OW  638   7.470   1.580  11.541
32914SOL    HW1  639   7.534   1.599  11.608
32914SOL    HW2  640   7.450   1.664  11.501
32915SOL     OW  641   3.440  10.630   4.151
32915SOL    HW1  642   3.481  10.592   4.073
32915SOL    HW2  643   3.514  10.664   4.202
32916SOL     OW  644   3.397   8.637  13.059
32916SOL    HW1  645   3.373   8.663  13.148
32916SOL    HW2  646   3.325   8.669  13.005
32917SOL     OW  647  10.480   1.757   7.767
32917SOL    HW1  648  10.494   1.835   7.820
32917SOL    HW2  649  10.447   1.691   7.828
32918SOL     OW  650   6.707  13.340   0.903
32918SOL    HW1  651   6.687  13.427   0.938
32918SOL    HW2  652   6.787  13.314   0.949
32919SOL     OW  653  11.368  14.582  13.141
32919SOL    HW1  654  11.372  14.572  13.045
32919SOL    HW2  655  11.357  14.492  13.173
32920SOL     OW  656   1.451  14.505   3.877
32920SOL    HW1  657   1.540  14.535   3.895
32920SOL    HW2  658   1.415  14.570   3.817
32921SOL     OW  659   9.601  12.849  13.040
32921SOL    HW1  660   9.635  12.902  12.968
32921SOL    HW2  661   9.652  12.768  13.036
32922SOL     OW  662   2.188  11.171   2.881
32922SOL    HW1  663   2.230  11.170   2.795
32922SOL    HW2  664   2.239  11.235   2.932
32923SOL     OW  665  10.464   7.863   7.092
32923SOL    HW1  666  10.546   7.873   7.141
32923SOL    HW2  667  10.452   7.768   7.085
32924SOL     OW  668  14.382   7.769   4.654
32924SOL    HW1  669  14.456   7.729   4.608
32924SOL    HW2  670  14.360   7.706   4.723
32925SOL     OW  671  12.225   5.627  12.912
32925SOL    HW1  672  12.304   5.622  12.966
32925SOL    HW2  673  12.196   5.717  12.919
32926SOL     OW  674   9.545   6.685  12.820
32926SOL    HW1  675   9.525   6.775  12.794
32926SOL    HW2  676   9.479   6.632  12.775
32927SOL     OW  677  13.128  13.722  13.383
32927SOL    HW1  678  13.155  13.749  13.471
32927SOL    HW2  679  13.186  13.771  13.324
32928SOL     OW  680   9.641   4.517   4.768
32928SOL    HW1  681   9.695   4.588   4.733
32928SOL    HW2  682   9.696   4.439   4.760
32929SOL     OW  683   3.121   3.891  10.393
32929SOL    HW1  684   3.194   3.842  10.356
32929SOL    HW2  685   3.050   3.878  10.331
32930SOL     OW  686  11.695   7.192   6.565
32930SOL    HW1  687  11.759   7.263   6.574
32930SOL    HW2  688  11.696   7.171   6.471
32931SOL     OW  689  14.422  14.282  11.513
32931SOL    HW1  690  14.414  14.377  11.510
32931SOL    HW2  691  14.489  14.265  11.579
32932SOL     OW  692  12.426   6.448  14.090
32932SOL    HW1  693  12.335   6.467  14.115
32932SOL    HW2  694  12.454   6.525  14.041
32933SOL     OW  695   3.114   8.512   3.372
32933SOL    HW1  696   3.024   8.538   3.354
32933SOL    HW2  697   3.124   8.523   3.466
32934SOL     OW  698  11.327   5.598  10.394
32934SOL    HW1  699  11.277   5.623  10.472
32934SOL    HW2  700  11.290   5.514  10.368
32935SOL     OW  701  11.591   6.016  13.130
32935SOL    HW1  702  11.574   5.966  13.209
32935SOL    HW2  703  11.655   5.964  13.081
32936SOL     OW  704   6.577   7.602   9.568
32936SOL    HW1  705   6.590   7.681   9.514
32936SOL    HW2  706   6.656   7.597   9.622
32937SOL     OW  707   1.671   1.613   1.419
32937SOL    HW1  708   1.635   1.692   1.459
32937SOL    HW2  709   1.595   1.568   1.381
32938SOL     OW  710   6.379   1.036  11.727
32938SOL    HW1  711   6.303   0.984  11.751
32938SOL    HW2  712   6.348   1.126  11.725
32939SOL     OW  713  11.116   1.297   4.536
32939SOL    HW1  714  11.174   1.295   4.460
32939SOL    HW2  715  11.165   1.252   4.604
32940SOL     OW  716   0.298  11.203   9.688
32940SOL    HW1  717   0.321  11.251   9.767
32940SOL    HW2  718   0.274  11.116   9.718
32941SOL     OW  719  13.909   5.063   6.146
32941SOL    HW1  720  13.847   5.036   6.215
32941SOL    HW2  721  13.885   5.153   6.127
32942SOL     OW  722   0.352  13.820   3.125
32942SOL    HW1  723   0.436  13.836   3.168
32942SOL    HW2  724   0.363  13.856   3.037
32943SOL     OW  725  11.612  10.731  14.139
32943SOL    HW1  726  11.648  10.798  14.080
32943SOL    HW2  727  11.536  10.697  14.093
32944SOL     OW  728   9.208   5.760   6.828
32944SOL    HW1  729   9.158   5.768   6.909
32944SOL    HW2  730   9.251   5.845   6.817
32945SOL     OW  731   0.371   1.526   9.823
32945SOL    HW1  732   0.420   1.469   9.764
32945SOL    HW2  733   0.364   1.478   9.905
32946SOL     OW  734   4.855   2.276   0.937
32946SOL    HW1  735   4.903   2.207   0.982
32946SOL    HW2  736   4.880   2.268   0.845
32947SOL     OW  737  14.325   8.237   4.927
32947SOL    HW1  738  14.283   8.152   4.939
32947SOL    HW2  739  14.272   8.297   4.978
32948SOL     OW  740   2.464   2.154  13.365
32948SOL    HW1  741   2.508   2.069  13.364
32948SOL    HW2  742   2.406   2.151  13.441
32949SOL     OW  743   7.338  14.853   9.959
32949SOL    HW1  744   7.249   0.017   9.975
32949SOL    HW2  745   7.354  14.792  10.032
32950SOL     OW  746   3.830  14.762   0.464
32950SOL    HW1  747   3.854  14.810   0.544
32950SOL    HW2  748   3.896  14.692   0.458
32951SOL     OW  749  12.537  11.224   4.945
32951SOL    HW1  750  12.520  11.298   5.002
32951SOL    HW2  751  12.586  11.162   4.999
32952SOL     OW  752   1.058   4.721   6.672
32952SOL    HW1  753   1.004   4.650   6.707
32952SOL    HW2  754   1.040   4.796   6.729
32953SOL     OW  755  14.104  14.022   8.575
32953SOL    HW1  756  14.173  14.057   8.632
32953SOL    HW2  757  14.141  14.028   8.487
32954SOL     OW  758  13.192  11.885  13.782
32954SOL    HW1  759  13.272  11.930  13.809
32954SOL    HW2  760  13.132  11.896  13.856
32955SOL     OW  761   6.596   0.055  12.320
32955SOL    HW1  762   6.608   0.037  12.227
32955SOL    HW2  763   6.676   0.023  12.361
32956SOL     OW  764   7.444   1.616   3.807
32956SOL    HW1  765   7.419   1.588   3.895
32956SOL    HW2  766   7.367   1.661   3.773
32957SOL     OW  767  14.164   1.815  14.377
32957SOL    HW1  768  14.153   1.910  14.376
32957SOL    HW2  769  14.173   1.791  14.285
32958SOL     OW  770  10.801   4.856  10.275
32958SOL    HW1  771  10.818   4.761  10.271
32958SOL    HW2  772  10.706   4.862  10.278
32959SOL     OW  773   0.531   9.060  12.726
32959SOL    HW1  774   0.602   9.014  12.772
32959SOL    HW2  775   0.481   8.991  12.684
32960SOL     OW  776  14.444   0.414  10.362
32960SOL    HW1  777  14.392   0.340  10.329
32960SOL    HW2  778  14.518   0.420  10.301
32961SOL     OW  779  14.804   8.928   0.039
32961SOL    HW1  780  14.744   8.862   0.004
32961SOL    HW2  781   0.009   8.878   0.075
32962SOL     OW  782  13.577  14.819   5.656
32962SOL    HW1  783  13.503   0.011   5.656
32962SOL    HW2  784  13.597  14.805   5.563
32963SOL     OW  785   1.197   6.988   1.164
32963SOL    HW1  786   1.110   6.959   1.192
32963SOL    HW2  787   1.181   7.071   1.119
32964SOL     OW  788   0.570  12.152  13.284
32964SOL    HW1  789   0.661  12.125  13.280
32964SOL    HW2  790   0.559  12.213  13.212
32965SOL     OW  791  11.191   9.601   8.466
32965SOL    HW1  792  11.151   9.640   8.543
32965SOL    HW2  793  11.234   9.522   8.498
32966SOL     OW  794  10.579   6.649  11.555
32966SOL    HW1  795  10.653   6.683  11.506
32966SOL    HW2  796  10.590   6.682  11.644
32967SOL     OW  797   9.345   4.906  12.248
32967SOL    HW1  798   9.377   4.876  12.333
32967SOL    HW2  799   9.418   4.953  12.209
32968SOL     OW  800   0.415   3.728  13.222
32968SOL    HW1  801   0.489   3.685  13.265
32968SOL    HW2  802   0.372   3.658  13.173
32969SOL     OW  803   7.442  10.830   7.388
32969SOL    HW1  804   7.416  10.798   7.302
32969SOL    HW2  805   7.370  10.886   7.415
32970SOL     OW  806   8.365   6.794   1.589
32970SOL    HW1  807   8.291   6.841   1.551
32970SOL    HW2  808   8.324   6.724   1.641
32971SOL     OW  809  12.003  10.958   0.807
32971SOL    HW1  810  12.029  11.018   0.877
32971SOL    HW2  811  11.986  10.875   0.850
32972SOL     OW  812  12.725   1.663   6.812
32972SOL    HW1  813  12.797   1.716   6.778
32972SOL    HW2  814  12.730   1.582   6.761
32973SOL     OW  815   3.559   4.493   6.714
32973SOL    HW1  816   3.617   4.510   6.640
32973SOL    HW2  817   3.478   4.460   6.675
32974SOL     OW  818   9.320   1.720   4.934
32974SOL    HW1  819   9.321   1.815   4.922
32974SOL    HW2  820   9.407   1.699   4.967
32975SOL     OW  821  11.682   0.945   1.308
32975SOL    HW1  822  11.656   1.010   1.242
32975SOL    HW2  823  11.616   0.953   1.377
32976SOL     OW  824   5.204   2.392   8.371
32976SOL    HW1  825   5.191   2.307   8.414
32976SOL    HW2  826   5.236   2.449   8.442
32977SOL     OW  827   4.744   5.170   0.801
32977SOL    HW1  828   4.734   5.247   0.856
32977SOL    HW2  829   4.654   5.139   0.786
32978SOL     OW  830  14.205  14.079   5.066
32978SOL    HW1  831  14.289  14.078   5.021
32978SOL    HW2  832  14.168  13.992   5.050
32979SOL     OW  833   1.018   2.601  13.610
32979SOL    HW1  834   1.032   2.516  13.570
32979SOL    HW2  835   0.930   2.627  13.584
32980SOL     OW  836   9.867   4.073  10.987
32980SOL    HW1  837   9.784   4.106  10.950
32980SOL    HW2  838   9.854   3.978  10.992
32981SOL     OW  839   5.863   7.297  14.089
32981SOL    HW1  840   5.826   7.258  14.010
32981SOL    HW2  841   5.931   7.357  14.057
32982SOL     OW  842  13.727   6.637   3.702
32982SOL    HW1  843  13.753   6.700   3.770
32982SOL    HW2  844  13.805   6.585   3.686
32983SOL     OW  845   7.855   4.293   7.676
32983SOL    HW1  846   7.901   4.292   7.761
32983SOL    HW2  847   7.865   4.383   7.645
32984SOL     OW  848   9.762   5.688   6.922
32984SOL    HW1  849   9.685   5.708   6.869
32984SOL    HW2  850   9.730   5.690   7.012
32985SOL     OW  851   3.160   4.320  11.591
32985SOL    HW1  852   3.193   4.373  11.663
32985SOL    HW2  853   3.076   4.286  11.622
32986SOL     OW  854  13.643   4.022   2.536
32986SOL    HW1  855  13.635   3.962   2.462
32986SOL    HW2  856  13.667   3.966   2.610
32987SOL     OW  857  11.392  11.783  14.699
32987SOL    HW1  858  11.477  11.790  14.656
32987SOL    HW2  859  11.411  11.798  14.791
32988SOL     OW  860   3.250   7.309  13.895
32988SOL    HW1  861   3.214   7.309  13.806
32988SOL    HW2  862   3.221   7.393  13.932
32989SOL     OW  863   4.471  14.512  10.260
32989SOL    HW1  864   4.429  14.429  10.283
32989SOL    HW2  865   4.453  14.569  10.335
32990SOL     OW  866   9.794  13.974  11.786
32990SOL    HW1  867   9.701  13.993  11.769
32990SOL    HW2  868   9.795  13.935  11.874
32991SOL     OW  869   2.846   6.170   0.450
32991SOL    HW1  870   2.756   6.144   0.469
32991SOL    HW2  871   2.840   6.262   0.426
32992SOL     OW  872   3.739   4.857   2.239
32992SOL    HW1  873   3.760   4.764   2.239
32992SOL    HW2  874   3.814   4.898   2.195
32993SOL     OW  875   9.322  11.428  11.203
32993SOL    HW1  876   9.387  11.410  11.135
32993SOL    HW2  877   9.371  11.473  11.272
32994SOL     OW  878   9.680   4.167   1.866
32994SOL    HW1  879   9.595   4.163   1.911
32994SOL    HW2  880   9.744   4.151   1.935
32995SOL     OW  881  11.795  14.115   4.425
32995SOL    HW1  882  11.796  14.075   4.512
32995SOL    HW2  883  11.809  14.043   4.365
32996SOL     OW  884  11.104   6.296   6.781
32996SOL    HW1  885  11.110   6.352   6.704
32996SOL    HW2  886  11.147   6.346   6.850
32997SOL     OW  887  10.242  12.839   1.211
32997SOL    HW1  888  10.178  12.768   1.214
32997SOL    HW2  889  10.269  12.842   1.119
32998SOL     OW  890   3.558   5.800   0.861
32998SOL    HW1  891   3.605   5.738   0.916
32998SOL    HW2  892   3.525   5.747   0.789
32999SOL     OW  893   3.787   5.794   9.103
32999SOL    HW1  894   3.735   5.861   9.146
32999SOL    HW2  895   3.826   5.744   9.175
33000SOL     OW  896   2.106   6.143  10.826
33000SOL    HW1  897   2.165   6.128  10.899
33000SOL    HW2  898   2.041   6.073  10.832
33001SOL     OW  899   5.887  14.575  13.657
33001SOL    HW1  900   5.827  14.646  13.633
33001SOL    HW2  901   5.973  14.604  13.625
33002SOL     OW  902   0.426   1.826   3.846
33002SOL    HW1  903   0.503   1.785   3.806
33002SOL    HW2  904   0.462   1.892   3.905
33003SOL     OW  905  14.449   8.523   5.210
33003SOL    HW1  906  14.447   8.500   5.117
33003SOL    HW2  907  14.504   8.455   5.250
33004SOL     OW  908   8.870   3.173   8.116
33004SOL    HW1  909   8.777   3.197   8.110
33004SOL    HW2  910   8.870   3.078   8.110
33005SOL     OW  911   2.313   9.473  12.729
33005SOL    HW1  912   2.230   9.456  12.773
33005SOL    HW2  913   2.291   9.478  12.636
33006SOL     OW  914   1.618   5.651   9.226
33006SOL    HW1  915   1.636   5.666   9.319
33006SOL    HW2  916   1.672   5.716   9.180
33007SOL     OW  917  10.206  13.412   5.676
33007SOL    HW1  918  10.213  13.501   5.712
33007SOL    HW2  919  10.163  13.424   5.592
33008SOL     OW  920   7.708   5.197   5.354
33008SOL    HW1  921   7.674   5.227   5.438
33008SOL    HW2  922   7.776   5.134   5.378
33009SOL     OW  923  14.057  11.333   5.761
33009SOL    HW1  924  14.073  11.428   5.763
33009SOL    HW2  925  13.967  11.325   5.730
33010SOL     OW  926   4.880  12.202   1.927
33010SOL    HW1  927   4.794  12.244   1.920
33010SOL    HW2  928   4.940  12.263   1.882
33011SOL     OW  929   0.122   0.280  11.855
33011SOL    HW1  930   0.168   0.301  11.774
33011SOL    HW2  931   0.088   0.192  11.841
33012SOL     OW  932   8.138   7.344   8.505
33012SOL    HW1  933   8.129   7.291   8.584
33012SOL    HW2  934   8.226   7.381   8.509
33013SOL     OW  935  11.323  14.859  14.626
33013SOL    HW1  936  11.418  14.849  14.634
33013SOL    HW2  937  11.304   0.073  14.672
33014SOL     OW  938   4.746   3.206   1.662
33014SOL    HW1  939   4.755   3.222   1.568
33014SOL    HW2  940   4.746   3.111   1.670
33015SOL     OW  941   0.112   3.663  13.669
33015SOL    HW1  942   0.020   3.646  13.690
33015SOL    HW2  943   0.154   3.673  13.754
33016SOL     OW  944  14.394   6.678   7.728
33016SOL    HW1  945  14.443   6.706   7.805
33016SOL    HW2  946  14.456   6.684   7.655
33017SOL     OW  947  11.495   0.286   5.917
33017SOL    HW1  948  11.417   0.264   5.865
33017SOL    HW2  949  11.475   0.372   5.954
33018SOL     OW  950  10.921   2.504  10.732
33018SOL    HW1  951  10.915   2.408  10.731
33018SOL    HW2  952  10.834   2.533  10.757
33019SOL     OW  953   9.721   3.894   9.770
33019SOL    HW1  954   9.765   3.810   9.758
33019SOL    HW2  955   9.786   3.949   9.814
33020SOL     OW  956   1.443   8.661   0.942
33020SOL    HW1  957   1.519   8.629   0.992
33020SOL    HW2  958   1.476   8.737   0.894
33021SOL     OW  959  13.853   0.593   7.682
33021SOL    HW1  960  13.928   0.653   7.673
33021SOL    HW2  961  13.824   0.578   7.593
33022SOL     OW  962   7.606   8.726  11.952
33022SOL    HW1  963   7.530   8.670  11.936
33022SOL    HW2  964   7.677   8.685  11.904
33023SOL     OW  965   8.518   5.934   3.519
33023SOL    HW1  966   8.555   6.022   3.528
33023SOL    HW2  967   8.516   5.901   3.609
33024SOL     OW  968   1.816   1.136  11.896
33024SOL    HW1  969   1.748   1.200  11.914
33024SOL    HW2  970   1.894   1.188  11.878
33025SOL     OW  971   5.527   1.110   0.570
33025SOL    HW1  972   5.603   1.120   0.513
33025SOL    HW2  973   5.563   1.104   0.659
33026SOL     OW  974   9.699   3.512  14.281
33026SOL    HW1  975   9.768   3.471  14.229
33026SOL    HW2  976   9.636   3.442  14.296
33027SOL     OW  977  14.475   7.537   9.805
33027SOL    HW1  978  14.419   7.495   9.870
33027SOL    HW2  979  14.414   7.568   9.737
33028SOL     OW  980   5.911   3.375   0.017
33028SOL    HW1  981   5.853   3.375   0.094
33028SOL    HW2  982   5.854   3.402  14.813
33029SOL     OW  983  13.520  14.809   7.370
33029SOL    HW1  984  13.502   0.026   7.329
33029SOL    HW2  985  13.448  14.753   7.342
33030SOL     OW  986   9.746  11.254  13.276
33030SOL    HW1  987   9.797  11.175  13.295
33030SOL    HW2  988   9.711  11.239  13.188
33031SOL     OW  989   8.105   7.808  12.332
33031SOL    HW1  990   8.038   7.808  12.264
33031SOL    HW2  991   8.090   7.726  12.380
33032SOL     OW  992   3.695   0.669   6.139
33032SOL    HW1  993   3.715   0.581   6.109
33032SOL    HW2  994   3.607   0.662   6.177
33033SOL     OW  995   4.211   1.090  13.810
33033SOL    HW1  996   4.209   1.163  13.747
33033SOL    HW2  997   4.227   1.013  13.756
33034SOL     OW  998  13.255   5.021  11.282
33034SOL    HW1  999  13.205   4.949  11.243
33034SOL    HW2 1000  13.281   4.988  11.368
33035SOL     OW 1001   1.717   0.501  12.765
33035SOL    HW1 1002   1.779   0.571  12.786
33035SOL    HW2 1003   1.738   0.431  12.827
33036SOL     OW 1004  11.932  14.193   4.821
33036SOL    HW1 1005  11.979  14.153   4.894
33036SOL    HW2 1006  11.876  14.124   4.787
33037SOL     OW 1007   3.309   0.072   4.256
33037SOL    HW1 1008   3.355   0.116   4.328
33037SOL    HW2 1009   3.370   0.003   4.228
33038SOL     OW 1010   9.496   4.504   8.479
33038SOL    HW1 1011   9.551   4.561   8.532
33038SOL    HW2 1012   9.552   4.474   8.408
33039SOL     OW 1013   1.797   3.917   3.191
33039SOL    HW1 1014   1.825   3.832   3.226
33039SOL    HW2 1015   1.872   3.974   3.204
33040SOL     OW 1016   1.024   6.739   4.324
33040SOL    HW1 1017   1.011   6.832   4.338
33040SOL    HW2 1018   1.113   6.731   4.290
33041SOL     OW 1019   0.766  13.791   8.053
33041SOL    HW1 1020   0.720  13.728   7.998
33041SOL    HW2 1021   0.807  13.852   7.991
33042SOL     OW 1022   3.153   8.595  14.595
33042SOL    HW1 1023   3.179   8.637  14.513
33042SOL    HW2 1024   3.234   8.555  14.628
33043SOL     OW 1025  12.865   2.737   9.621
33043SOL    HW1 1026  12.860   2.656   9.570
33043SOL    HW2 1027  12.943   2.727   9.674
33044SOL     OW 1028  14.312  13.370   0.912
33044SOL    HW1 1029  14.274  13.291   0.874
33044SOL    HW2 1030  14.257  13.441   0.878
33045SOL     OW 1031   9.395   6.017   2.894
33045SOL    HW1 1032   9.432   6.041   2.978
33045SOL    HW2 1033   9.306   5.986   2.914
33046SOL     OW 1034   6.587   0.733  13.033
33046SOL    HW1 1035   6.546   0.794  12.972
33046SOL    HW2 1036   6.680   0.756  13.032
33047SOL     OW 1037  12.378  13.865  13.755
33047SOL    HW1 1038  12.376  13.882  13.661
33047SOL    HW2 1039  12.288  13.838  13.776
33048SOL     OW 1040  11.100   2.919  11.587
33048SOL    HW1 1041  11.116   3.012  11.604
33048SOL    HW2 1042  11.097   2.879  11.674
33049SOL     OW 1043   8.898   5.573  13.494
33049SOL    HW1 1044   8.863   5.522  13.421
33049SOL    HW2 1045   8.847   5.654  13.493
33050SOL     OW 1046   8.848   7.281   3.348
33050SOL    HW1 1047   8.867   7.205   3.294
33050SOL    HW2 1048   8.887   7.355   3.300
33051SOL     OW 1049   7.856   1.687  10.591
33051SOL    HW1 1050   7.908   1.730  10.659
33051SOL    HW2 1051   7.874   1.739  10.512
33052SOL     OW 1052   5.162   6.141  12.586
33052SOL    HW1 1053   5.249   6.179  12.597
33052SOL    HW2 1054   5.164   6.099  12.500
33053SOL     OW 1055  14.380  13.507   3.684
33053SOL    HW1 1056  14.391  13.575   3.617
33053SOL    HW2 1057  14.462  13.510   3.734
33054SOL     OW 1058   0.295   5.428   3.179
33054SOL    HW1 1059   0.240   5.502   3.205
33054SOL    HW2 1060   0.384   5.457   3.200
33055SOL     OW 1061   4.922   2.323   3.903
33055SOL    HW1 1062   5.012   2.340   3.931
33055SOL    HW2 1063   4.905   2.389   3.836
33056SOL     OW 1064   9.288   7.258   5.328
33056SOL    HW1 1065   9.298   7.186   5.390
33056SOL    HW2 1066   9.378   7.277   5.298
33057SOL     OW 1067   3.815   9.578   8.662
33057SOL    HW1 1068   3.817   9.664   8.704
33057SOL    HW2 1069   3.721   9.558   8.655
33058SOL     OW 1070  10.640   6.117  14.864
33058SOL    HW1 1071  10.679   6.204  14.853
33058SOL    HW2 1072  10.601   6.097  14.779
33059SOL     OW 1073   3.515   2.256  13.485
33059SOL    HW1 1074   3.541   2.302  13.565
33059SOL    HW2 1075   3.446   2.309  13.447
33060SOL     OW 1076   9.608   7.727   5.702
33060SOL    HW1 1077   9.671   7.758   5.637
33060SOL    HW2 1078   9.557   7.805   5.725
33061SOL     OW 1079   1.180  12.441   2.746
33061SOL    HW1 1080   1.229  12.508   2.698
33061SOL    HW2 1081   1.239  12.366   2.749
33062SOL     OW 1082   2.585   0.093  14.223
33062SOL    HW1 1083   2.584   0.044  14.305
33062SOL    HW2 1084   2.646   0.165  14.239
33063SOL     OW 1085   0.439   7.705   0.424
33063SOL    HW1 1086   0.449   7.663   0.509
33063SOL    HW2 1087   0.506   7.664   0.369
33064SOL     OW 1088   2.214   0.188   0.913
33064SOL    HW1 1089   2.259   0.236   0.983
33064SOL    HW2 1090   2.152   0.251   0.877
33065SOL     OW 1091   0.753  10.518  12.081
33065SOL    HW1 1092   0.814  10.560  12.142
33065SOL    HW2 1093   0.684  10.482  12.138
33066SOL     OW 1094  10.799  12.993   7.210
33066SOL    HW1 1095  10.726  12.967   7.155
33066SOL    HW2 1096  10.877  12.974   7.158
33067SOL     OW 1097  13.963   4.325   6.843
33067SOL    HW1 1098  14.038   4.382   6.857
33067SOL    HW2 1099  13.995   4.257   6.783
33068SOL     OW 1100   8.299   5.228   4.942
33068SOL    HW1 1101   8.372   5.287   4.957
33068SOL    HW2 1102   8.258   5.260   4.862
33069SOL     OW 1103   1.493   6.268  10.645
33069SOL    HW1 1104   1.436   6.203  10.603
33069SOL    HW2 1105   1.581   6.234  10.632
33070SOL     OW 1106  11.869   2.743   2.758
33070SOL    HW1 1107  11.848   2.834   2.778
33070SOL    HW2 1108  11.963   2.744   2.737
33071SOL     OW 1109   8.247   4.899   5.444
33071SOL    HW1 1110   8.255   4.805   5.424
33071SOL    HW2 1111   8.203   4.936   5.367
33072SOL     OW 1112   1.640   8.594   6.005
33072SOL    HW1 1113   1.647   8.560   6.094
33072SOL    HW2 1114   1.720   8.643   5.991
33073SOL     OW 1115  13.777  11.663   0.289
33073SOL    HW1 1116  13.739  11.589   0.337
33073SOL    HW2 1117  13.718  11.736   0.306
33074SOL     OW 1118   5.969   9.195   0.506
33074SOL    HW1 1119   5.955   9.207   0.412
33074SOL    HW2 1120   5.891   9.232   0.546
33075SOL     OW 1121  11.124   6.426   8.251
33075SOL    HW1 1122  11.173   6.373   8.187
33075SOL    HW2 1123  11.190   6.455   8.313
33076SOL     OW 1124  14.749  11.359   6.997
33076SOL    HW1 1125  14.770  11.266   6.999
33076SOL    HW2 1126  14.657  11.364   7.022
33077SOL     OW 1127   6.211   0.363  13.618
33077SOL    HW1 1128   6.267   0.297  13.578
33077SOL    HW2 1129   6.224   0.441  13.564
33078SOL     OW 1130   5.054   2.440   7.964
33078SOL    HW1 1131   5.089   2.464   8.050
33078SOL    HW2 1132   5.037   2.346   7.970
33079SOL     OW 1133   1.376   3.014  14.682
33079SOL    HW1 1134   1.306   2.949  14.674
33079SOL    HW2 1135   1.399   3.012  14.775
33080SOL     OW 1136   7.984   4.254   8.961
33080SOL    HW1 1137   8.036   4.189   9.008
33080SOL    HW2 1138   7.991   4.333   9.014
33081SOL     OW 1139   5.191   9.023   3.465
33081SOL    HW1 1140   5.272   8.980   3.493
33081SOL    HW2 1141   5.191   9.014   3.370
33082SOL     OW 1142   7.761  12.752   4.503
33082SOL    HW1 1143   7.811  12.798   4.435
33082SOL    HW2 1144   7.789  12.794   4.585
33083SOL     OW 1145   8.391   8.025  10.204
33083SOL    HW1 1146   8.412   8.068  10.121
33083SOL    HW2 1147   8.416   8.088  10.271
33084SOL     OW 1148   0.757   0.271  11.048
33084SOL    HW1 1149   0.679   0.299  11.095
33084SOL    HW2 1150   0.755   0.319  10.966
33085SOL     OW 1151  10.922   7.038   3.263
33085SOL    HW1 1152  10.846   7.079   3.222
33085SOL    HW2 1153  10.888   6.956   3.300
33086SOL     OW 1154  10.818  11.066   3.128
33086SOL    HW1 1155  10.836  10.991   3.070
33086SOL    HW2 1156  10.754  11.118   3.081
33087SOL     OW 1157  12.675   8.781  12.562
33087SOL    HW1 1158  12.663   8.838  12.638
33087SOL    HW2 1159  12.770   8.780  12.548
33088SOL     OW 1160  11.316   4.567  12.471
33088SOL    HW1 1161  11.277   4.647  12.506
33088SOL    HW2 1162  11.277   4.558  12.384
33089SOL     OW 1163   3.960   1.092   2.128
33089SOL    HW1 1164   3.974   1.046   2.045
33089SOL    HW2 1165   4.032   1.064   2.184
33090SOL     OW 1166   7.835   5.674   8.931
33090SOL    HW1 1167   7.864   5.584   8.942
33090SOL    HW2 1168   7.773   5.671   8.858
33091SOL     OW 1169   1.860   6.754   7.886
33091SOL    HW1 1170   1.854   6.804   7.805
33091SOL    HW2 1171   1.930   6.797   7.935
33092SOL     OW 1172  14.591  14.091   9.527
33092SOL    HW1 1173  14.576  14.184   9.540
33092SOL    HW2 1174  14.562  14.073   9.438
33093SOL     OW 1175   4.819  11.831  12.532
33093SOL    HW1 1176   4.895  11.810  12.477
33093SOL    HW2 1177   4.804  11.752  12.584
33094SOL     OW 1178  11.364   6.029   0.388
33094SOL    HW1 1179  11.429   6.050   0.321
33094SOL    HW2 1180  11.291   5.992   0.340
33095SOL     OW 1181   2.862   2.120   8.529
33095SOL    HW1 1182   2.801   2.050   8.510
33095SOL    HW2 1183   2.835   2.192   8.472
33096SOL     OW 1184   9.397  12.391   2.455
33096SOL    HW1 1185   9.333  12.444   2.502
33096SOL    HW2 1186   9.444  12.344   2.524
33097SOL     OW 1187   9.258   8.141   6.404
33097SOL    HW1 1188   9.185   8.192   6.439
33097SOL    HW2 1189   9.335   8.196   6.417
33098SOL     OW 1190  10.281   0.494   0.523
33098SOL    HW1 1191  10.360   0.476   0.472
33098SOL    HW2 1192  10.222   0.421   0.503
33099SOL     OW 1193  10.183   2.210   5.628
33099SOL    HW1 1194  10.213   2.217   5.537
33099SOL    HW2 1195  10.090   2.231   5.625
33100SOL     OW 1196  11.613   6.898   8.321
33100SOL    HW1 1197  11.581   6.986   8.343
33100SOL    HW2 1198  11.583   6.844   8.394
33101SOL     OW 1199   9.777   4.695   6.519
33101SOL    HW1 1200   9.872   4.702   6.520
33101SOL    HW2 1201   9.746   4.784   6.502
33102SOL     OW 1202  13.746   1.963   1.130
33102SOL    HW1 1203  13.660   1.923   1.122
33102SOL    HW2 1204  13.729   2.057   1.130
33103SOL     OW 1205  11.269   3.102  14.019
33103SOL    HW1 1206  11.324   3.132  13.947
33103SOL    HW2 1207  11.182   3.136  13.998
33104SOL     OW 1208   4.298   5.560  12.764
33104SOL    HW1 1209   4.238   5.565  12.689
33104SOL    HW2 1210   4.302   5.649  12.799
33105SOL     OW 1211   9.176   2.969   4.601
33105SOL    HW1 1212   9.251   2.986   4.657
33105SOL    HW2 1213   9.111   2.930   4.659
33106SOL     OW 1214   3.618  14.420   5.745
33106SOL    HW1 1215   3.525  14.399   5.752
33106SOL    HW2 1216   3.652  14.357   5.681
33107SOL     OW 1217   8.502  14.658   9.665
33107SOL    HW1 1218   8.466  14.577   9.628
33107SOL    HW2 1219   8.505  14.719   9.591
33108SOL     OW 1220   5.743  12.446   2.213
33108SOL    HW1 1221   5.807  12.463   2.283
33108SOL    HW2 1222   5.777  12.368   2.169
33109SOL     OW 1223  10.058  13.043  13.150
33109SOL    HW1 1224  10.075  13.025  13.058
33109SOL    HW2 1225  10.033  12.959  13.187
33110SOL     OW 1226  12.641   2.990   0.375
33110SOL    HW1 1227  12.678   3.014   0.460
33110SOL    HW2 1228  12.591   2.911   0.393
33111SOL     OW 1229   9.243  13.166   6.227
33111SOL    HW1 1230   9.299  13.089   6.223
33111SOL    HW2 1231   9.229  13.181   6.320
33112SOL     OW 1232  10.892  10.572   8.255
33112SOL    HW1 1233  10.844  10.644   8.297
33112SOL    HW2 1234  10.918  10.608   8.169
33113SOL     OW 1235   1.600  12.334   9.314
33113SOL    HW1 1236   1.607  12.389   9.392
33113SOL    HW2 1237   1.553  12.256   9.343
33114SOL     OW 1238  11.743  13.051   7.810
33114SOL    HW1 1239  11.785  12.978   7.766
33114SOL    HW2 1240  11.649  13.038   7.796
33115SOL     OW 1241   9.594   9.420   1.201
33115SOL    HW1 1242   9.600   9.360   1.126
33115SOL    HW2 1243   9.675   9.407   1.249
33116SOL     OW 1244   5.812   0.798  11.407
33116SOL    HW1 1245   5.869   0.722  11.420
33116SOL    HW2 1246   5.746   0.768  11.344
33117SOL     OW 1247   8.529   3.311   5.075
33117SOL    HW1 1248   8.607   3.273   5.035
33117SOL    HW2 1249   8.547   3.404   5.079
33118SOL     OW 1250  14.244   6.270   1.843
33118SOL    HW1 1251  14.305   6.318   1.900
33118SOL    HW2 1252  14.201   6.338   1.792
33119SOL     OW 1253  11.152   7.884   6.497
33119SOL    HW1 1254  11.235   7.884   6.545
33119SOL    HW2 1255  11.097   7.822   6.545
33120SOL     OW 1256   8.137   5.801   4.144
33120SOL    HW1 1257   8.122   5.714   4.108
33120SOL    HW2 1258   8.192   5.787   4.221
33121SOL     OW 1259   9.423   1.933  12.889
33121SOL    HW1 1260   9.456   1.856  12.844
33121SOL    HW2 1261   9.384   1.899  12.970
33122SOL     OW 1262   5.469  13.333   1.968
33122SOL    HW1 1263   5.378  13.319   1.941
33122SOL    HW2 1264   5.495  13.251   2.008
33123SOL     OW 1265   5.289  14.072  14.304
33123SOL    HW1 1266   5.230  14.095  14.376
33123SOL    HW2 1267   5.332  13.992  14.333
33124SOL     OW 1268  11.037  10.095   2.273
33124SOL    HW1 1269  11.019  10.009   2.311
33124SOL    HW2 1270  11.048  10.077   2.179
33125SOL     OW 1271   9.708   0.359   9.488
33125SOL    HW1 1272   9.656   0.431   9.452
33125SOL    HW2 1273   9.646   0.309   9.540
33126SOL     OW 1274   7.775   7.285   3.293
33126SOL    HW1 1275   7.777   7.375   3.328
33126SOL    HW2 1276   7.842   7.285   3.225
33127SOL     OW 1277   7.685   3.636  10.156
33127SOL    HW1 1278   7.596   3.637  10.121
33127SOL    HW2 1279   7.696   3.548  10.191
33128SOL     OW 1280   3.514   9.256  14.747
33128SOL    HW1 1281   3.424   9.224  14.745
33128SOL    HW2 1282   3.554   9.212  14.822
33129SOL     OW 1283   5.709   9.834  13.355
33129SOL    HW1 1284   5.707   9.930  13.357
33129SOL    HW2 1285   5.742   9.813  13.268
33130SOL     OW 1286   1.182   7.308  10.042
33130SOL    HW1 1287   1.132   7.299  10.123
33130SOL    HW2 1288   1.265   7.264  10.060
33131SOL     OW 1289  11.362   0.097   3.040
33131SOL    HW1 1290  11.424   0.112   2.969
33131SOL    HW2 1291  11.353   0.182   3.083
33132SOL     OW 1292   5.352  10.916  12.589
33132SOL    HW1 1293   5.404  10.995  12.605
33132SOL    HW2 1294   5.372  10.892  12.499
33133SOL     OW 1295   5.366  14.195   2.240
33133SOL    HW1 1296   5.362  14.151   2.325
33133SOL    HW2 1297   5.414  14.276   2.257
33134SOL     OW 1298  13.025   2.839   4.620
33134SOL    HW1 1299  13.024   2.815   4.527
33134SOL    HW2 1300  12.948   2.796   4.656
33135SOL     OW 1301   7.481  14.272   1.651
33135SOL    HW1 1302   7.412  14.215   1.619
33135SOL    HW2 1303   7.472  14.352   1.599
33136SOL     OW 1304   2.641  10.347  13.421
33136SOL    HW1 1305   2.689  10.361  13.503
33136SOL    HW2 1306   2.672  10.415  13.362
33137SOL     OW 1307   2.035   1.837  10.818
33137SOL    HW1 1308   2.050   1.840  10.913
33137SOL    HW2 1309   2.061   1.924  10.787
33138SOL     OW 1310   2.494   1.087   3.340
33138SOL    HW1 1311   2.511   1.091   3.246
33138SOL    HW2 1312   2.462   1.174   3.362
33139SOL     OW 1313   5.799  10.989  13.025
33139SOL    HW1 1314   5.764  11.067  12.983
33139SOL    HW2 1315   5.755  10.986  13.110
33140SOL     OW 1316   6.436   3.181   7.931
33140SOL    HW1 1317   6.359   3.229   7.963
33140SOL    HW2 1318   6.441   3.104   7.988
33141SOL     OW 1319   6.018   3.884  13.080
33141SOL    HW1 1320   6.057   3.902  12.995
33141SOL    HW2 1321   6.066   3.940  13.141
33142SOL     OW 1322   4.713   0.514  12.483
33142SOL    HW1 1323   4.648   0.534  12.550
33142SOL    HW2 1324   4.708   0.419  12.471
33143SOL     OW 1325   3.373   5.480   2.493
33143SOL    HW1 1326   3.427   5.518   2.562
33143SOL    HW2 1327   3.315   5.420   2.539
33144SOL     OW 1328   1.522   3.188  11.453
33144SOL    HW1 1329   1.433   3.152  11.449
33144SOL    HW2 1330   1.553   3.167  11.541
33145SOL     OW 1331  11.484   4.741   4.098
33145SOL    HW1 1332  11.410   4.802   4.103
33145SOL    HW2 1333  11.561   4.796   4.114
33146SOL     OW 1334   1.496  14.091  12.485
33146SOL    HW1 1335   1.466  14.060  12.570
33146SOL    HW2 1336   1.469  14.183  12.482
33147SOL     OW 1337   7.498   2.950  13.363
33147SOL    HW1 1338   7.496   3.045  13.352
33147SOL    HW2 1339   7.588   2.925  13.341
33148SOL     OW 1340   0.156  14.170   3.270
33148SOL    HW1 1341   0.091  14.108   3.237
33148SOL    HW2 1342   0.233  14.156   3.214
33149SOL     OW 1343   1.654   7.245   4.341
33149SOL    HW1 1344   1.564   7.250   4.308
33149SOL    HW2 1345   1.644   7.230   4.435
33150SOL     OW 1346   5.903  11.066   7.933
33150SOL    HW1 1347   5.841  11.004   7.972
33150SOL    HW2 1348   5.965  11.010   7.886
33151SOL     OW 1349   7.849   5.023   7.879
33151SOL    HW1 1350   7.796   4.954   7.839
33151SOL    HW2 1351   7.882   4.985   7.961
33152SOL     OW 1352  12.361  11.690   3.857
33152SOL    HW1 1353  12.382  11.782   3.839
33152SOL    HW2 1354  12.287  11.670   3.800
33153SOL     OW 1355  10.481   2.481   3.234
33153SOL    HW1 1356  10.405   2.517   3.280
33153SOL    HW2 1357  10.544   2.460   3.303
33154SOL     OW 1358   9.856   8.273  14.804
33154SOL    HW1 1359   9.892   8.193  14.765
33154SOL    HW2 1360   9.798   8.308  14.736
33155SOL     OW 1361   9.683   9.799   2.691
33155SOL    HW1 1362   9.702   9.890   2.711
33155SOL    HW2 1363   9.699   9.791   2.597
33156SOL     OW 1364  14.791  14.582   2.056
33156SOL    HW1 1365  14.703  14.567   2.090
33156SOL    HW2 1366  14.778  14.606   1.964
33157SOL     OW 1367   2.900   7.000   9.618
33157SOL    HW1 1368   2.875   7.092   9.625
33157SOL    HW2 1369   2.872   6.973   9.531
33158SOL     OW 1370   7.866   8.041   7.586
33158SOL    HW1 1371   7.943   8.078   7.543
33158SOL    HW2 1372   7.861   7.951   7.553
33159SOL     OW 1373   5.219   2.412   9.883
33159SOL    HW1 1374   5.298   2.455   9.917
33159SOL    HW2 1375   5.208   2.448   9.795
33160SOL     OW 1376  12.550  12.096  13.952
33160SOL    HW1 1377  12.560  12.083  14.046
33160SOL    HW2 1378  12.539  12.008  13.916
33161SOL     OW 1379   9.153  13.194  10.746
33161SOL    HW1 1380   9.128  13.118  10.694
33161SOL    HW2 1381   9.248  13.199  10.737
33162SOL     OW 1382   4.153   4.823  14.323
33162SOL    HW1 1383   4.105   4.904  14.341
33162SOL    HW2 1384   4.085   4.762  14.294
33163SOL     OW 1385   9.630   4.247   8.764
33163SOL    HW1 1386   9.620   4.243   8.859
33163SOL    HW2 1387   9.649   4.339   8.746
33164SOL     OW 1388   1.548   8.053  14.171
33164SOL    HW1 1389   1.476   8.091  14.223
33164SOL    HW2 1390   1.586   7.987  14.228
33165SOL     OW 1391   1.509   1.457   3.839
33165SOL    HW1 1392   1.546   1.382   3.792
33165SOL    HW2 1393   1.419   1.463   3.809
33166SOL     OW 1394   1.912   4.230   3.024
33166SOL    HW1 1395   1.850   4.277   3.080
33166SOL    HW2 1396   1.986   4.210   3.081
33167SOL     OW 1397   1.596   3.512  11.692
33167SOL    HW1 1398   1.550   3.596  11.681
33167SOL    HW2 1399   1.527   3.446  11.691
33168SOL     OW 1400   4.397  12.477  14.838
33168SOL    HW1 1401   4.315  12.526  14.836
33168SOL    HW2 1402   4.441  12.506   0.050
33169SOL     OW 1403   4.049   5.827   4.348
33169SOL    HW1 1404   4.037   5.827   4.443
33169SOL    HW2 1405   3.968   5.865   4.313
33170SOL     OW 1406   3.873   0.858   7.628
33170SOL    HW1 1407   3.802   0.913   7.594
33170SOL    HW2 1408   3.883   0.789   7.563
33171SOL     OW 1409   0.473   5.457   5.564
33171SOL    HW1 1410   0.497   5.396   5.635
33171SOL    HW2 1411   0.459   5.400   5.488
33172SOL     OW 1412  13.038  10.302  13.781
33172SOL    HW1 1413  12.982  10.230  13.810
33172SOL    HW2 1414  13.125  10.278  13.811
33173SOL     OW 1415  14.708   0.758  12.343
33173SOL    HW1 1416  14.797   0.738  12.371
33173SOL    HW2 1417  14.680   0.682  12.293
33174SOL     OW 1418   1.958   2.240   8.906
33174SOL    HW1 1419   1.975   2.296   8.830
33174SOL    HW2 1420   1.938   2.154   8.868
33175SOL     OW 1421  13.313   6.454   4.397
33175SOL    HW1 1422  13.398   6.462   4.354
33175SOL    HW2 1423  13.304   6.533   4.449
33176SOL     OW 1424  12.942  11.954   8.071
33176SOL    HW1 1425  13.026  11.950   8.025
33176SOL    HW2 1426  12.911  11.863   8.069
33177SOL     OW 1427   7.833   9.863  13.321
33177SOL    HW1 1428   7.926   9.880  13.303
33177SOL    HW2 1429   7.794   9.950  13.327
33178SOL     OW 1430   0.976   1.610  13.478
33178SOL    HW1 1431   0.974   1.601  13.382
33178SOL    HW2 1432   1.046   1.551  13.506
33179SOL     OW 1433   3.007   7.272   9.575
33179SOL    HW1 1434   3.015   7.366   9.560
33179SOL    HW2 1435   3.089   7.247   9.618
33180SOL     OW 1436   6.222  13.256   7.956
33180SOL    HW1 1437   6.179  13.339   7.975
33180SOL    HW2 1438   6.284  13.275   7.886
33181SOL     OW 1439  14.073   6.644   9.028
33181SOL    HW1 1440  14.030   6.700   8.964
33181SOL    HW2 1441  14.006   6.628   9.095
33182SOL     OW 1442  11.285  12.731   7.126
33182SOL    HW1 1443  11.363  12.715   7.179
33182SOL    HW2 1444  11.258  12.644   7.097
33183SOL     OW 1445   0.498   1.657   1.264
33183SOL    HW1 1446   0.548   1.728   1.304
33183SOL    HW2 1447   0.530   1.578   1.306
33184SOL     OW 1448   0.770   6.930   1.788
33184SOL    HW1 1449   0.715   6.874   1.732
33184SOL    HW2 1450   0.850   6.880   1.801
33185SOL     OW 1451   7.358   5.551   5.167
33185SOL    HW1 1452   7.357   5.581   5.258
33185SOL    HW2 1453   7.276   5.584   5.130
33186SOL     OW 1454   3.885   0.600   5.673
33186SOL    HW1 1455   3.792   0.580   5.683
33186SOL    HW2 1456   3.900   0.597   5.578
33187SOL     OW 1457   0.497   5.394  10.667
33187SOL    HW1 1458   0.530   5.459  10.605
33187SOL    HW2 1459   0.560   5.394  10.739
33188SOL     OW 1460   0.750   0.714   6.213
33188SOL    HW1 1461   0.769   0.620   6.213
33188SOL    HW2 1462   0.664   0.721   6.173
33189SOL     OW 1463   9.018  14.746   5.241
33189SOL    HW1 1464   8.972  14.791   5.170
33189SOL    HW2 1465   9.047  14.664   5.202
33190SOL     OW 1466   9.329  14.054  10.920
33190SOL    HW1 1467   9.291  14.075  11.006
33190SOL    HW2 1468   9.304  14.127  10.864
33191SOL     OW 1469   0.201   4.936   8.725
33191SOL    HW1 1470   0.267   4.948   8.656
33191SOL    HW2 1471   0.185   4.842   8.727
33192SOL     OW 1472   5.800   0.483  14.388
33192SOL    HW1 1473   5.782   0.418  14.319
33192SOL    HW2 1474   5.713   0.513  14.415
33193SOL     OW 1475   6.026   3.264   6.134
33193SOL    HW1 1476   6.028   3.200   6.205
33193SOL    HW2 1477   6.112   3.256   6.092
33194SOL     OW 1478   6.958  14.272   3.007
33194SOL    HW1 1479   6.903  14.272   2.929
33194SOL    HW2 1480   7.024  14.339   2.989
33195SOL     OW 1481   0.795  10.997   1.141
33195SOL    HW1 1482   0.882  10.993   1.101
33195SOL    HW2 1483   0.790  11.085   1.180
33196SOL     OW 1484  14.549   5.188   6.146
33196SOL    HW1 1485  14.539   5.115   6.207
33196SOL    HW2 1486  14.508   5.262   6.191
33197SOL     OW 1487   9.001   2.521   8.402
33197SOL    HW1 1488   9.076   2.505   8.346
33197SOL    HW2 1489   9.032   2.499   8.490
33198SOL     OW 1490   7.940   3.636   8.153
33198SOL    HW1 1491   8.010   3.681   8.107
33198SOL    HW2 1492   7.982   3.559   8.192
33199SOL     OW 1493  11.015  10.555  13.923
33199SOL    HW1 1494  11.057  10.549  14.009
33199SOL    HW2 1495  11.060  10.489  13.871
33200SOL     OW 1496   3.000   2.141   1.866
33200SOL    HW1 1497   2.989   2.098   1.950
33200SOL    HW2 1498   3.091   2.171   1.866
33201SOL     OW 1499   1.492  10.774   1.242
33201SOL    HW1 1500   1.522  10.864   1.229
33201SOL    HW2 1501   1.513  10.730   1.160
33202SOL     OW 1502   5.373  14.495   1.400
33202SOL    HW1 1503   5.294  14.444   1.420
33202SOL    HW2 1504   5.438  14.463   1.463
33203SOL     OW 1505  11.285   4.202   1.348
33203SOL    HW1 1506  11.254   4.119   1.384
33203SOL    HW2 1507  11.326   4.247   1.421
33204SOL     OW 1508  12.564  10.173   5.834
33204SOL    HW1 1509  12.612  10.107   5.883
33204SOL    HW2 1510  12.631  10.237   5.809
33205SOL     OW 1511   0.941  12.306   6.632
33205SOL    HW1 1512   0.919  12.298   6.539
33205SOL    HW2 1513   1.030  12.271   6.638
33206SOL     OW 1514   7.499   2.342   7.879
33206SOL    HW1 1515   7.426   2.283   7.861
33206SOL    HW2 1516   7.568   2.314   7.819
33207SOL     OW 1517  11.608  10.659  11.792
33207SOL    HW1 1518  11.695  10.625  11.813
33207SOL    HW2 1519  11.572  10.596  11.729
33208SOL     OW 1520  14.020   7.701   0.504
33208SOL    HW1 1521  13.984   7.714   0.591
33208SOL    HW2 1522  13.977   7.622   0.471
33209SOL     OW 1523  11.708   7.625   8.559
33209SOL    HW1 1524  11.692   7.541   8.517
33209SOL    HW2 1525  11.621   7.661   8.575
33210SOL     OW 1526  10.818  14.360   7.876
33210SOL    HW1 1527  10.886  14.355   7.943
33210SOL    HW2 1528  10.814  14.453   7.853
33211SOL     OW 1529   4.306  12.884  13.805
33211SOL    HW1 1530   4.368  12.835  13.750
33211SOL    HW2 1531   4.228  12.829  13.809
33212SOL     OW 1532   2.688   9.017   6.554
33212SOL    HW1 1533   2.701   9.049   6.643
33212SOL    HW2 1534   2.668   9.095   6.503
33213SOL     OW 1535   1.958   9.232   7.079
33213SOL    HW1 1536   1.943   9.327   7.088
33213SOL    HW2 1537   2.041   9.216   7.124
33214SOL     OW 1538   5.290  10.440   5.551
33214SOL    HW1 1539   5.199  10.430   5.580
33214SOL    HW2 1540   5.292  10.522   5.503
33215SOL     OW 1541   6.015  12.477   0.221
33215SOL    HW1 1542   5.999  12.408   0.156
33215SOL    HW2 1543   6.107  12.502   0.206
33216SOL     OW 1544  13.194   9.034  12.592
33216SOL    HW1 1545  13.263   8.970  12.575
33216SOL    HW2 1546  13.130   8.987  12.645
33217SOL     OW 1547   9.360   4.596  13.314
33217SOL    HW1 1548   9.432   4.629  13.368
33217SOL    HW2 1549   9.382   4.504  13.298
33218SOL     OW 1550   4.846   0.368   6.812
33218SOL    HW1 1551   4.881   0.372   6.723
33218SOL    HW2 1552   4.871   0.281   6.843
33219SOL     OW 1553  10.541   2.932   4.558
33219SOL    HW1 1554  10.450   2.902   4.561
33219SOL    HW2 1555  10.593   2.852   4.570
33220SOL     OW 1556   7.490  14.491  12.388
33220SOL    HW1 1557   7.582  14.517  12.400
33220SOL    HW2 1558   7.462  14.538  12.310
33221SOL     OW 1559  12.979  13.840   6.129
33221SOL    HW1 1560  13.024  13.849   6.214
33221SOL    HW2 1561  13.034  13.889   6.068
33222SOL     OW 1562   5.935   7.206   4.266
33222SOL    HW1 1563   5.943   7.238   4.176
33222SOL    HW2 1564   5.845   7.174   4.272
33223SOL     OW 1565   5.197   0.084   4.736
33223SOL    HW1 1566   5.192   0.116   4.646
33223SOL    HW2 1567   5.107   0.057   4.757
33224SOL     OW 1568  11.780   6.520   5.015
33224SOL    HW1 1569  11.821   6.440   5.046
33224SOL    HW2 1570  11.847   6.588   5.027
33225SOL     OW 1571  13.582  11.759  12.837
33225SOL    HW1 1572  13.596  11.684  12.894
33225SOL    HW2 1573  13.619  11.833  12.885
33226SOL     OW 1574  10.882  10.456   7.861
33226SOL    HW1 1575  10.954  10.417   7.812
33226SOL    HW2 1576  10.817  10.387   7.868
33227SOL     OW 1577   7.641  11.860   0.478
33227SOL    HW1 1578   7.730  11.887   0.501
33227SOL    HW2 1579   7.648  11.765   0.464
33228SOL     OW 1580   1.117  12.111   1.925
33228SOL    HW1 1581   1.108  12.124   1.830
33228SOL    HW2 1582   1.053  12.044   1.947
33229SOL     OW 1583  11.355   0.666   2.780
33229SOL    HW1 1584  11.279   0.609   2.794
33229SOL    HW2 1585  11.355   0.725   2.856
33230SOL     OW 1586   0.697   3.479   5.784
33230SOL    HW1 1587   0.621   3.483   5.841
33230SOL    HW2 1588   0.772   3.476   5.844
33231SOL     OW 1589  10.437   9.512   7.756
33231SOL    HW1 1590  10.394   9.506   7.670
33231SOL    HW2 1591  10.516   9.458   7.747
33232SOL     OW 1592   7.930   7.468  13.810
33232SOL    HW1 1593   7.971   7.517  13.881
33232SOL    HW2 1594   7.999   7.411  13.778
33233SOL     OW 1595  13.456  12.852   3.176
33233SOL    HW1 1596  13.492  12.785   3.118
33233SOL    HW2 1597  13.361  12.845   3.165
33234SOL     OW 1598   3.563   0.276   4.990
33234SOL    HW1 1599   3.481   0.321   5.008
33234SOL    HW2 1600   3.556   0.194   5.040
33235SOL     OW 1601   7.854   2.641   6.140
33235SOL    HW1 1602   7.794   2.708   6.174
33235SOL    HW2 1603   7.799   2.587   6.084
33236SOL     OW 1604  11.174   5.979   3.661
33236SOL    HW1 1605  11.088   5.996   3.700
33236SOL    HW2 1606  11.222   6.061   3.672
33237SOL     OW 1607   5.441   0.982   9.908
33237SOL    HW1 1608   5.527   1.004   9.874
33237SOL    HW2 1609   5.385   0.976   9.830
33238SOL     OW 1610   0.904   5.988   3.634
33238SOL    HW1 1611   0.942   5.966   3.719
33238SOL    HW2 1612   0.905   6.084   3.632
33239SOL     OW 1613   0.597  13.036   9.348
33239SOL    HW1 1614   0.658  12.978   9.302
33239SOL    HW2 1615   0.551  12.980   9.410
33240SOL     OW 1616   2.575   9.277  14.491
33240SOL    HW1 1617   2.551   9.275  14.584
33240SOL    HW2 1618   2.626   9.358  14.481
33241SOL     OW 1619   5.769   1.896   4.293
33241SOL    HW1 1620   5.693   1.861   4.247
33241SOL    HW2 1621   5.843   1.847   4.258
33242SOL     OW 1622  14.706   3.747   2.708
33242SOL    HW1 1623  14.794   3.711   2.695
33242SOL    HW2 1624  14.722   3.834   2.745
33243SOL     OW 1625   6.771   9.199   1.762
33243SOL    HW1 1626   6.741   9.271   1.818
33243SOL    HW2 1627   6.812   9.242   1.687
33244SOL     OW 1628   5.183   3.178   5.633
33244SOL    HW1 1629   5.250   3.110   5.627
33244SOL    HW2 1630   5.111   3.136   5.681
33245SOL     OW 1631  14.424   5.221   6.585
33245SOL    HW1 1632  14.414   5.313   6.610
33245SOL    HW2 1633  14.508   5.217   6.539
33246SOL     OW 1634  14.440   4.657   8.844
33246SOL    HW1 1635  14.436   4.665   8.939
33246SOL    HW2 1636  14.511   4.717   8.818
33247SOL     OW 1637   9.483   9.669   1.880
33247SOL    HW1 1638   9.530   9.721   1.816
33247SOL    HW2 1639   9.425   9.731   1.924
33248SOL     OW 1640   6.015   7.911  13.088
33248SOL    HW1 1641   6.054   7.988  13.129
33248SOL    HW2 1642   6.041   7.838  13.144
33249SOL     OW 1643   7.996   9.072  10.856
33249SOL    HW1 1644   8.010   9.165  10.877
33249SOL    HW2 1645   7.971   9.032  10.940
33250SOL     OW 1646  11.431  13.582   4.620
33250SOL    HW1 1647  11.360  13.620   4.569
33250SOL    HW2 1648  11.494  13.552   4.555
33251SOL     OW 1649  10.327   9.243  12.831
33251SOL    HW1 1650  10.422   9.240  12.823
33251SOL    HW2 1651  10.308   9.204  12.916
33252SOL     OW 1652   9.273  14.370   0.344
33252SOL    HW1 1653   9.198  14.385   0.402
33252SOL    HW2 1654   9.245  14.297   0.289
33253SOL     OW 1655   8.726   8.871   3.863
33253SOL    HW1 1656   8.764   8.873   3.950
33253SOL    HW2 1657   8.800   8.856   3.804
33254SOL     OW 1658   2.116  12.635   8.813
33254SOL    HW1 1659   2.049  12.688   8.856
33254SOL    HW2 1660   2.108  12.656   8.720
33255SOL     OW 1661   0.850   8.747   9.975
33255SOL    HW1 1662   0.873   8.682   9.909
33255SOL    HW2 1663   0.895   8.827   9.947
33256SOL     OW 1664   4.425   1.073   3.369
33256SOL    HW1 1665   4.420   1.023   3.451
33256SOL    HW2 1666   4.337   1.107   3.356
33257SOL     OW 1667   0.706   5.183  12.503
33257SOL    HW1 1668   0.631   5.148  12.456
33257SOL    HW2 1669   0.770   5.112  12.503
33258SOL     OW 1670   3.344   5.432   0.795
33258SOL    HW1 1671   3.266   5.487   0.799
33258SOL    HW2 1672   3.315   5.350   0.755
33259SOL     OW 1673   0.850   5.743   8.115
33259SOL    HW1 1674   0.765   5.747   8.070
33259SOL    HW2 1675   0.908   5.701   8.052
33260SOL     OW 1676   5.219  13.275   1.834
33260SOL    HW1 1677   5.207  13.286   1.740
33260SOL    HW2 1678   5.161  13.201   1.856
33261SOL     OW 1679   8.107   5.345  12.266
33261SOL    HW1 1680   8.012   5.340  12.269
33261SOL    HW2 1681   8.135   5.325  12.355
33262SOL     OW 1682   3.883   6.507  14.062
33262SOL    HW1 1683   3.819   6.560  14.110
33262SOL    HW2 1684   3.956   6.566  14.048
33263SOL     OW 1685  14.575  13.014   2.634
33263SOL    HW1 1686  14.584  13.034   2.727
33263SOL    HW2 1687  14.574  13.100   2.591
33264SOL     OW 1688  10.364   7.289   1.629
33264SOL    HW1 1689  10.424   7.277   1.556
33264SOL    HW2 1690  10.310   7.364   1.605
33265SOL     OW 1691  13.224   7.903   7.132
33265SOL    HW1 1692  13.222   7.840   7.204
33265SOL    HW2 1693  13.307   7.885   7.087
33266SOL     OW 1694   7.544   2.249   4.039
33266SOL    HW1 1695   7.512   2.201   3.962
33266SOL    HW2 1696   7.504   2.204   4.113
33267SOL     OW 1697   7.663  11.000   0.862
33267SOL    HW1 1698   7.611  11.046   0.928
33267SOL    HW2 1699   7.627  11.030   0.778
33268SOL     OW 1700   7.859  14.119   3.024
33268SOL    HW1 1701   7.813  14.118   2.940
33268SOL    HW2 1702   7.890  14.209   3.033
33269SOL     OW 1703  10.635  14.848   5.729
33269SOL    HW1 1704  10.585  14.808   5.801
33269SOL    HW2 1705  10.591  14.818   5.650
33270SOL     OW 1706   5.280   1.197  13.415
33270SOL    HW1 1707   5.353   1.142  13.387
33270SOL    HW2 1708   5.321   1.275  13.452
33271SOL     OW 1709   6.952   8.182  14.080
33271SOL    HW1 1710   6.872   8.131  14.069
33271SOL    HW2 1711   6.921   8.272  14.091
33272SOL     OW 1712   4.904   3.246   3.012
33272SOL    HW1 1713   4.920   3.311   2.943
33272SOL    HW2 1714   4.900   3.297   3.093
33273SOL     OW 1715  10.905   2.361   5.433
33273SOL    HW1 1716  10.894   2.453   5.457
33273SOL    HW2 1717  10.997   2.352   5.410
33274SOL     OW 1718   5.768  11.511   9.427
33274SOL    HW1 1719   5.854  11.503   9.386
33274SOL    HW2 1720   5.784  11.562   9.507
33275SOL     OW 1721  11.544   0.864  11.527
33275SOL    HW1 1722  11.610   0.892  11.590
33275SOL    HW2 1723  11.477   0.820  11.580
33276SOL     OW 1724   5.595   9.254   4.055
33276SOL    HW1 1725   5.513   9.252   4.007
33276SOL    HW2 1726   5.648   9.321   4.011
33277SOL     OW 1727  12.919  12.499  12.530
33277SOL    HW1 1728  12.939  12.528  12.619
33277SOL    HW2 1729  12.829  12.469  12.534
33278SOL     OW 1730   6.803   6.097   2.493
33278SOL    HW1 1731   6.839   6.089   2.582
33278SOL    HW2 1732   6.854   6.167   2.453
33279SOL     OW 1733   4.512  11.015   1.080
33279SOL    HW1 1734   4.489  10.937   1.029
33279SOL    HW2 1735   4.515  10.985   1.170
33280SOL     OW 1736   3.152   7.377   6.948
33280SOL    HW1 1737   3.092   7.307   6.921
33280SOL    HW2 1738   3.203   7.338   7.019
33281SOL     OW 1739   9.943   5.578  12.850
33281SOL    HW1 1740   9.852   5.606  12.865
33281SOL    HW2 1741   9.990   5.660  12.832
33282SOL     OW 1742   6.328  11.484  11.120
33282SOL    HW1 1743   6.236  11.484  11.093
33282SOL    HW2 1744   6.378  11.485  11.038
33283SOL     OW 1745  14.438   2.500   2.577
33283SOL    HW1 1746  14.428   2.550   2.496
33283SOL    HW2 1747  14.390   2.419   2.562
33284SOL     OW 1748  13.398   9.381   4.000
33284SOL    HW1 1749  13.481   9.358   3.958
33284SOL    HW2 1750  13.344   9.416   3.929
33285SOL     OW 1751  12.610   6.514   1.230
33285SOL    HW1 1752  12.547   6.520   1.302
33285SOL    HW2 1753  12.612   6.602   1.192
33286SOL     OW 1754   3.253   2.465   5.175
33286SOL    HW1 1755   3.167   2.447   5.136
33286SOL    HW2 1756   3.312   2.403   5.132
33287SOL     OW 1757  11.910  14.522   1.910
33287SOL    HW1 1758  11.982  14.559   1.962
33287SOL    HW2 1759  11.895  14.586   1.841
33288SOL     OW 1760   8.394   0.955   2.015
33288SOL    HW1 1761   8.325   0.944   1.950
33288SOL    HW2 1762   8.476   0.939   1.968
33289SOL     OW 1763   7.404   0.747  10.299
33289SOL    HW1 1764   7.342   0.819  10.311
33289SOL    HW2 1765   7.374   0.702  10.221
33290SOL     OW 1766   6.154   6.194  14.813
33290SOL    HW1 1767   6.204   6.232   0.017
33290SOL    HW2 1768   6.167   6.100  14.821
33291SOL     OW 1769   8.297  13.990   6.211
33291SOL    HW1 1770   8.294  13.896   6.228
33291SOL    HW2 1771   8.387  14.015   6.231
33292SOL     OW 1772   1.070  13.547   2.637
33292SOL    HW1 1773   1.019  13.581   2.564
33292SOL    HW2 1774   1.133  13.487   2.597
33293SOL     OW 1775   6.783   6.022  14.758
33293SOL    HW1 1776   6.728   5.960  14.806
33293SOL    HW2 1777   6.750   6.109  14.783
33294SOL     OW 1778   3.988   0.264   2.814
33294SOL    HW1 1779   4.063   0.205   2.801
33294SOL    HW2 1780   4.019   0.349   2.784
33295SOL     OW 1781   8.516  10.974   8.579
33295SOL    HW1 1782   8.607  10.948   8.587
33295SOL    HW2 1783   8.481  10.967   8.668
33296SOL     OW 1784  10.415  13.649   6.035
33296SOL    HW1 1785  10.499  13.694   6.026
33296SOL    HW2 1786  10.378  13.684   6.116
33297SOL     OW 1787   5.669  11.824   2.032
33297SOL    HW1 1788   5.673  11.783   1.946
33297SOL    HW2 1789   5.717  11.764   2.089
33298SOL     OW 1790   1.994   9.845   5.498
33298SOL    HW1 1791   1.959   9.855   5.587
33298SOL    HW2 1792   2.086   9.872   5.505
33299SOL     OW 1793  14.308   0.478   0.049
33299SOL    HW1 1794  14.380   0.416   0.042
33299SOL    HW2 1795  14.341   0.558   0.008
33300SOL     OW 1796   0.977   8.880   3.931
33300SOL    HW1 1797   0.889   8.857   3.900
33300SOL    HW2 1798   0.980   8.846   4.021
33301SOL     OW 1799   7.692  10.657   3.289
33301SOL    HW1 1800   7.632  10.596   3.246
33301SOL    HW2 1801   7.703  10.729   3.227
33302SOL     OW 1802  10.025  11.492   5.774
33302SOL    HW1 1803  10.069  11.577   5.784
33302SOL    HW2 1804   9.934  11.515   5.757
33303SOL     OW 1805   8.828   5.297  13.823
33303SOL    HW1 1806   8.764   5.319  13.891
33303SOL    HW2 1807   8.774   5.262  13.751
33304SOL     OW 1808  10.190   8.903   7.547
33304SOL    HW1 1809  10.194   8.996   7.524
33304SOL    HW2 1810  10.137   8.864   7.478
33305SOL     OW 1811  14.773   3.803   5.018
33305SOL    HW1 1812  14.775   3.827   4.926
33305SOL    HW2 1813  14.865   3.789   5.042
33306SOL     OW 1814  12.428   4.929   9.214
33306SOL    HW1 1815  12.383   4.863   9.161
33306SOL    HW2 1816  12.439   5.003   9.154
33307SOL     OW 1817   4.840  11.434   2.017
33307SOL    HW1 1818   4.931  11.455   2.036
33307SOL    HW2 1819   4.812  11.380   2.090
33308SOL     OW 1820   8.139   0.158   6.985
33308SOL    HW1 1821   8.145   0.222   6.914
33308SOL    HW2 1822   8.113   0.077   6.942
33309SOL     OW 1823   9.726   2.900  11.642
33309SOL    HW1 1824   9.703   2.816  11.603
33309SOL    HW2 1825   9.643   2.940  11.664
33310SOL     OW 1826  12.672   6.238   3.149
33310SOL    HW1 1827  12.617   6.281   3.214
33310SOL    HW2 1828  12.625   6.249   3.066
33311SOL     OW 1829   3.230   5.072   1.451
33311SOL    HW1 1830   3.289   5.003   1.419
33311SOL    HW2 1831   3.287   5.130   1.502
33312SOL     OW 1832   4.337   1.097   8.218
33312SOL    HW1 1833   4.273   1.159   8.254
33312SOL    HW2 1834   4.283   1.031   8.173
33313SOL     OW 1835   9.136  13.282   1.725
33313SOL    HW1 1836   9.178  13.356   1.768
33313SOL    HW2 1837   9.154  13.208   1.783
33314SOL     OW 1838   1.434  12.658   0.976
33314SOL    HW1 1839   1.442  12.747   0.942
33314SOL    HW2 1840   1.425  12.670   1.071
33315SOL     OW 1841  10.195   1.398   2.897
33315SOL    HW1 1842  10.161   1.326   2.950
33315SOL    HW2 1843  10.118   1.441   2.860
33316SOL     OW 1844   4.673   9.142  11.196
33316SOL    HW1 1845   4.628   9.102  11.121
33316SOL    HW2 1846   4.606   9.150  11.264
33317SOL     OW 1847   5.820   4.984   5.044
33317SOL    HW1 1848   5.893   5.004   4.985
33317SOL    HW2 1849   5.753   4.945   4.987
33318SOL     OW 1850  12.143   9.274  10.895
33318SOL    HW1 1851  12.156   9.194  10.845
33318SOL    HW2 1852  12.177   9.254  10.982
33319SOL     OW 1853   6.785  13.597   5.457
33319SOL    HW1 1854   6.818  13.644   5.533
33319SOL    HW2 1855   6.789  13.504   5.482
33320SOL     OW 1856  13.619  14.428   2.623
33320SOL    HW1 1857  13.547  14.491   2.629
33320SOL    HW2 1858  13.665  14.435   2.707
33321SOL     OW 1859  14.302   6.731   6.724
33321SOL    HW1 1860  14.293   6.656   6.665
33321SOL    HW2 1861  14.306   6.807   6.665
33322SOL     OW 1862  11.343   2.576   5.503
33322SOL    HW1 1863  11.252   2.591   5.530
33322SOL    HW2 1864  11.387   2.546   5.583
33323SOL     OW 1865   9.842  12.113  10.410
33323SOL    HW1 1866   9.791  12.117  10.329
33323SOL    HW2 1867   9.788  12.161  10.474
33324SOL     OW 1868   1.444   2.435  12.937
33324SOL    HW1 1869   1.396   2.501  12.887
33324SOL    HW2 1870   1.443   2.467  13.027
33325SOL     OW 1871  10.261   1.677   0.478
33325SOL    HW1 1872  10.268   1.632   0.562
33325SOL    HW2 1873  10.167   1.677   0.459
33326SOL     OW 1874   4.624   0.024   1.879
33326SOL    HW1 1875   4.686   0.085   1.920
33326SOL    HW2 1876   4.549   0.078   1.855
33327SOL     OW 1877   6.108   6.210   5.048
33327SOL    HW1 1878   6.194   6.237   5.081
33327SOL    HW2 1879   6.046   6.241   5.114
33328SOL     OW 1880  14.842  13.528   6.985
33328SOL    HW1 1881  14.767  13.558   7.037
33328SOL    HW2 1882  14.805  13.508   6.899
33329SOL     OW 1883  14.201   2.762  13.058
33329SOL    HW1 1884  14.141   2.836  13.067
33329SOL    HW2 1885  14.250   2.761  13.140
33330SOL     OW 1886   9.379  12.871   9.332
33330SOL    HW1 1887   9.286  12.856   9.313
33330SOL    HW2 1888   9.381  12.959   9.371
33331SOL     OW 1889   1.343  11.129  10.171
33331SOL    HW1 1890   1.290  11.204  10.200
33331SOL    HW2 1891   1.431  11.150  10.202
33332SOL     OW 1892   6.305   3.358  14.381
33332SOL    HW1 1893   6.335   3.273  14.347
33332SOL    HW2 1894   6.368   3.421  14.347
33333SOL     OW 1895   5.525   8.790  13.687
33333SOL    HW1 1896   5.477   8.848  13.746
33333SOL    HW2 1897   5.609   8.834  13.674
33334SOL     OW 1898  12.400   7.308   2.739
33334SOL    HW1 1899  12.305   7.297   2.741
33334SOL    HW2 1900  12.435   7.222   2.758
33335SOL     OW 1901  11.649   7.888  11.329
33335SOL    HW1 1902  11.686   7.936  11.403
33335SOL    HW2 1903  11.722   7.877  11.268
33336SOL     OW 1904   0.301   2.389  14.740
33336SOL    HW1 1905   0.226   2.444  14.765
33336SOL    HW2 1906   0.261   2.311  14.702
33337SOL     OW 1907   9.074  10.939   9.337
33337SOL    HW1 1908   9.080  10.858   9.286
33337SOL    HW2 1909   9.043  11.005   9.275
33338SOL     OW 1910   0.671  11.490   9.716
33338SOL    HW1 1911   0.675  11.564   9.777
33338SOL    HW2 1912   0.640  11.417   9.770
33339SOL     OW 1913   2.286   1.780  14.823
33339SOL    HW1 1914   2.370   1.824  14.807
33339SOL    HW2 1915   2.255   1.754  14.736
33340SOL     OW 1916  12.461   5.210   2.978
33340SOL    HW1 1917  12.431   5.295   2.946
33340SOL    HW2 1918  12.464   5.221   3.073
33341SOL     OW 1919   4.202   4.289   6.546
33341SOL    HW1 1920   4.215   4.241   6.464
33341SOL    HW2 1921   4.203   4.221   6.613
33342SOL     OW 1922  14.531   5.612   6.240
33342SOL    HW1 1923  14.562   5.576   6.158
33342SOL    HW2 1924  14.606   5.607   6.299
33343SOL     OW 1925   6.212   0.813  14.683
33343SOL    HW1 1926   6.128   0.852  14.661
33343SOL    HW2 1927   6.191   0.724  14.711
33344SOL     OW 1928   9.661  11.853   5.066
33344SOL    HW1 1929   9.630  11.944   5.061
33344SOL    HW2 1930   9.589  11.802   5.028
33345SOL     OW 1931  10.758   4.500   9.507
33345SOL    HW1 1932  10.736   4.559   9.580
33345SOL    HW2 1933  10.703   4.423   9.521
33346SOL     OW 1934  14.361   0.051   1.608
33346SOL    HW1 1935  14.288   0.074   1.666
33346SOL    HW2 1936  14.419  14.866   1.663
33347SOL     OW 1937  12.201   8.526   5.367
33347SOL    HW1 1938  12.113   8.566   5.369
33347SOL    HW2 1939  12.251   8.582   5.307
33348SOL     OW 1940   9.120   8.784   2.520
33348SOL    HW1 1941   9.027   8.786   2.497
33348SOL    HW2 1942   9.164   8.825   2.445
33349SOL     OW 1943   4.861  10.919  12.558
33349SOL    HW1 1944   4.870  10.967  12.641
33349SOL    HW2 1945   4.868  10.827  12.583
33350SOL     OW 1946   3.965   5.700   9.321
33350SOL    HW1 1947   3.915   5.711   9.402
33350SOL    HW2 1948   4.052   5.673   9.351
33351SOL     OW 1949  13.010  13.830  12.772
33351SOL    HW1 1950  13.061  13.906  12.743
33351SOL    HW2 1951  12.976  13.856  12.858
33352SOL     OW 1952   9.954   5.229   0.524
33352SOL    HW1 1953   9.963   5.142   0.484
33352SOL    HW2 1954  10.042   5.250   0.555
33353SOL     OW 1955  14.850   2.997  10.895
33353SOL    HW1 1956  14.770   3.035  10.861
33353SOL    HW2 1957   0.016   3.063  10.955
33354SOL     OW 1958   8.582   0.533   6.048
33354SOL    HW1 1959   8.539   0.613   6.019
33354SOL    HW2 1960   8.628   0.558   6.128
33355SOL     OW 1961  10.747  10.089   4.690
33355SOL    HW1 1962  10.714  10.009   4.649
33355SOL    HW2 1963  10.669  10.131   4.726
33356SOL     OW 1964  14.603   6.928   8.899
33356SOL    HW1 1965  14.622   6.929   8.993
33356SOL    HW2 1966  14.688   6.943   8.858
33357SOL     OW 1967   0.725   1.073   9.565
33357SOL    HW1 1968   0.646   1.079   9.511
33357SOL    HW2 1969   0.696   1.030   9.645
33358SOL     OW 1970   6.963   6.502   4.655
33358SOL    HW1 1971   6.991   6.559   4.726
33358SOL    HW2 1972   7.028   6.432   4.653
33359SOL     OW 1973   7.679   3.190  11.164
33359SOL    HW1 1974   7.585   3.172  11.166
33359SOL    HW2 1975   7.686   3.285  11.169
33360SOL     OW 1976   1.526   4.370   9.517
33360SOL    HW1 1977   1.585   4.336   9.584
33360SOL    HW2 1978   1.568   4.450   9.486
33361SOL     OW 1979   1.910  14.346   6.992
33361SOL    HW1 1980   1.995  14.301   6.987
33361SOL    HW2 1981   1.912  14.393   7.076
33362SOL     OW 1982   6.500   4.261  12.300
33362SOL    HW1 1983   6.437   4.300  12.360
33362SOL    HW2 1984   6.566   4.222  12.357
33363SOL     OW 1985   6.069   0.449   2.309
33363SOL    HW1 1986   6.051   0.543   2.317
33363SOL    HW2 1987   6.019   0.409   2.381
33364SOL     OW 1988   5.537   3.160  13.504
33364SOL    HW1 1989   5.550   3.083  13.449
33364SOL    HW2 1990   5.477   3.131  13.572
33365SOL     OW 1991  10.178   4.388   0.189
33365SOL    HW1 1992  10.137   4.334   0.256
33365SOL    HW2 1993  10.185   4.330   0.113
33366SOL     OW 1994  11.076   5.053   4.758
33366SOL    HW1 1995  11.038   4.997   4.691
33366SOL    HW2 1996  11.142   4.997   4.801
33367SOL     OW 1997  10.900   6.912  10.985
33367SOL    HW1 1998  10.950   6.975  10.933
33367SOL    HW2 1999  10.939   6.827  10.965
33368SOL     OW 2000   4.587   8.218   8.157
33368SOL    HW1 2001   4.499   8.233   8.190
33368SOL    HW2 2002   4.620   8.306   8.138
33369SOL     OW 2003   6.397   7.045   5.283
33369SOL    HW1 2004   6.407   7.068   5.376
33369SOL    HW2 2005   6.333   6.974   5.282
33370SOL     OW 2006  10.177  13.031   8.152
33370SOL    HW1 2007  10.272  13.037   8.148
33370SOL    HW2 2008  10.153  13.072   8.235
33371SOL     OW 2009   8.238  12.076   0.865
33371SOL    HW1 2010   8.178  12.147   0.887
33371SOL    HW2 2011   8.322  12.119   0.853
33372SOL     OW 2012   1.229   1.937   7.456
33372SOL    HW1 2013   1.143   1.931   7.415
33372SOL    HW2 2014   1.265   2.021   7.426
33373SOL     OW 2015  13.341   0.475   2.672
33373SOL    HW1 2016  13.352   0.428   2.754
33373SOL    HW2 2017  13.248   0.496   2.668
33374SOL     OW 2018   5.959   6.808   7.326
33374SOL    HW1 2019   5.952   6.731   7.382
33374SOL    HW2 2020   5.876   6.854   7.337
33375SOL     OW 2021   1.178   1.313   8.442
33375SOL    HW1 2022   1.251   1.292   8.500
33375SOL    HW2 2023   1.206   1.284   8.355
33376SOL     OW 2024   0.383  10.231   6.545
33376SOL    HW1 2025   0.454  10.191   6.595
33376SOL    HW2 2026   0.421  10.310   6.507
33377SOL     OW 2027   9.808  13.520   4.786
33377SOL    HW1 2028   9.888  13.565   4.756
33377SOL    HW2 2029   9.803  13.442   4.731
33378SOL     OW 2030  10.566  11.523  11.444
33378SOL    HW1 2031  10.544  11.571  11.524
33378SOL    HW2 2032  10.525  11.574  11.373
33379SOL     OW 2033   3.300   9.573  12.036
33379SOL    HW1 2034   3.228   9.525  12.076
33379SOL    HW2 2035   3.374   9.512  12.036
33380SOL     OW 2036  12.022   9.670   2.089
33380SOL    HW1 2037  11.964   9.718   2.031
33380SOL    HW2 2038  12.010   9.712   2.175
33381SOL     OW 2039   2.777   1.997   9.677
33381SOL    HW1 2040   2.717   1.926   9.655
33381SOL    HW2 2041   2.727   2.053   9.737
33382SOL     OW 2042   7.497  13.431   6.240
33382SOL    HW1 2043   7.488  13.337   6.256
33382SOL    HW2 2044   7.582  13.453   6.277
33383SOL     OW 2045  12.222   3.797   5.521
33383SOL    HW1 2046  12.223   3.845   5.603
33383SOL    HW2 2047  12.173   3.717   5.541
33384SOL     OW 2048   2.466   4.400  13.018
33384SOL    HW1 2049   2.536   4.383  12.955
33384SOL    HW2 2050   2.386   4.404  12.965
33385SOL     OW 2051   1.513   6.756  11.408
33385SOL    HW1 2052   1.503   6.849  11.429
33385SOL    HW2 2053   1.491   6.751  11.315
33386SOL     OW 2054   1.742  10.630   1.042
33386SOL    HW1 2055   1.836  10.647   1.050
33386SOL    HW2 2056   1.715  10.681   0.965
33387SOL     OW 2057   7.771  11.138   7.593
33387SOL    HW1 2058   7.686  11.094   7.600
33387SOL    HW2 2059   7.775  11.195   7.670
33388SOL     OW 2060   6.436   6.251   9.559
33388SOL    HW1 2061   6.500   6.181   9.546
33388SOL    HW2 2062   6.434   6.298   9.476
33389SOL     OW 2063  10.685  10.404  11.049
33389SOL    HW1 2064  10.763  10.459  11.054
33389SOL    HW2 2065  10.712  10.328  10.997
33390SOL     OW 2066  10.781   3.434  14.391
33390SOL    HW1 2067  10.737   3.377  14.455
33390SOL    HW2 2068  10.726   3.427  14.313
33391SOL     OW 2069   7.019   4.698  11.763
33391SOL    HW1 2070   7.006   4.773  11.820
33391SOL    HW2 2071   6.986   4.623  11.812
33392SOL     OW 2072   1.696   0.103   9.331
33392SOL    HW1 2073   1.756   0.093   9.257
33392SOL    HW2 2074   1.753   0.126   9.404
33393SOL     OW 2075  10.250  13.921  13.711
33393SOL    HW1 2076  10.287  13.999  13.753
33393SOL    HW2 2077  10.324  13.879  13.668
33394SOL     OW 2078  11.823   9.845   8.169
33394SOL    HW1 2079  11.814   9.936   8.197
33394SOL    HW2 2080  11.769   9.840   8.089
33395SOL     OW 2081   8.419   7.161  12.871
33395SOL    HW1 2082   8.390   7.072  12.890
33395SOL    HW2 2083   8.500   7.150  12.821
33396SOL     OW 2084   9.968   1.413   3.941
33396SOL    HW1 2085   9.886   1.370   3.963
33396SOL    HW2 2086   9.998   1.453   4.023
33397SOL     OW 2087   1.033   9.591   4.075
33397SOL    HW1 2088   0.951   9.636   4.097
33397SOL    HW2 2089   1.100   9.659   4.085
33398SOL     OW 2090  12.533   7.113   8.617
33398SOL    HW1 2091  12.495   7.175   8.555
33398SOL    HW2 2092  12.572   7.045   8.562
33399SOL     OW 2093  10.932   1.748   2.886
33399SOL    HW1 2094  10.852   1.712   2.846
33399SOL    HW2 2095  10.985   1.671   2.906
33400SOL     OW 2096   2.420  13.429   3.304
33400SOL    HW1 2097   2.484  13.467   3.243
33400SOL    HW2 2098   2.463  13.351   3.338
33401SOL     OW 2099   5.018  11.533   4.186
33401SOL    HW1 2100   4.964  11.456   4.208
33401SOL    HW2 2101   5.073  11.503   4.114
33402SOL     OW 2102  14.701   9.769   4.420
33402SOL    HW1 2103  14.680   9.709   4.349
33402SOL    HW2 2104  14.618   9.782   4.466
33403SOL     OW 2105  11.917   7.094  12.163
33403SOL    HW1 2106  11.888   7.006  12.139
33403SOL    HW2 2107  11.836   7.140  12.186
33404SOL     OW 2108   9.138  14.822   0.996
33404SOL    HW1 2109   9.046  14.824   1.024
33404SOL    HW2 2110   9.160  14.729   0.995
33405SOL     OW 2111   9.533   4.015  11.287
33405SOL    HW1 2112   9.577   4.018  11.372
33405SOL    HW2 2113   9.564   4.092  11.240
33406SOL     OW 2114   6.166   9.187   6.297
33406SOL    HW1 2115   6.159   9.094   6.318
33406SOL    HW2 2116   6.154   9.191   6.202
33407SOL     OW 2117  11.317   3.452   3.025
33407SOL    HW1 2118  11.247   3.460   3.091
33407SOL    HW2 2119  11.353   3.365   3.039
33408SOL     OW 2120   6.336   8.907  14.412
33408SOL    HW1 2121   6.277   8.926  14.485
33408SOL    HW2 2122   6.401   8.978  14.414
33409SOL     OW 2123   3.113   9.063   4.972
33409SOL    HW1 2124   3.209   9.061   4.974
33409SOL    HW2 2125   3.087   8.974   4.994
33410SOL     OW 2126   2.960   6.930   6.440
33410SOL    HW1 2127   2.884   6.983   6.417
33410SOL    HW2 2128   3.019   6.938   6.365
33411SOL     OW 2129   0.853  10.032   3.816
33411SOL    HW1 2130   0.853   9.942   3.783
33411SOL    HW2 2131   0.780  10.035   3.877
33412SOL     OW 2132   2.510   8.579   2.976
33412SOL    HW1 2133   2.590   8.593   2.924
33412SOL    HW2 2134   2.439   8.581   2.912
33413SOL     OW 2135  11.655   1.401   5.050
33413SOL    HW1 2136  11.612   1.325   5.090
33413SOL    HW2 2137  11.742   1.368   5.025
33414SOL     OW 2138   4.609   0.392  11.554
33414SOL    HW1 2139   4.610   0.464  11.490
33414SOL    HW2 2140   4.697   0.395  11.593
33415SOL     OW 2141  11.419  11.793   0.087
33415SOL    HW1 2142  11.386  11.880   0.108
33415SOL    HW2 2143  11.513  11.797   0.106
33416SOL     OW 2144   2.664   2.819  11.329
33416SOL    HW1 2145   2.607   2.746  11.301
33416SOL    HW2 2146   2.611   2.897  11.314
33417SOL     OW 2147   3.139  12.714   6.820
33417SOL    HW1 2148   3.091  12.790   6.789
33417SOL    HW2 2149   3.227  12.746   6.838
33418SOL     OW 2150   0.324  14.415  13.541
33418SOL    HW1 2151   0.260  14.344  13.538
33418SOL    HW2 2152   0.368  14.410  13.456
33419SOL     OW 2153  13.973  10.317   5.690
33419SOL    HW1 2154  13.929  10.252   5.636
33419SOL    HW2 2155  14.044  10.269   5.734
33420SOL     OW 2156   4.773   8.896   2.712
33420SOL    HW1 2157   4.718   8.853   2.778
33420SOL    HW2 2158   4.735   8.983   2.704
33421SOL     OW 2159   0.136   1.729   3.339
33421SOL    HW1 2160   0.127   1.754   3.431
33421SOL    HW2 2161   0.165   1.638   3.342
33422SOL     OW 2162  14.108  10.122   8.425
33422SOL    HW1 2163  14.132  10.209   8.391
33422SOL    HW2 2164  14.120  10.130   8.520
33423SOL     OW 2165  12.060   9.574   5.043
33423SOL    HW1 2166  12.119   9.507   5.077
33423SOL    HW2 2167  12.008   9.600   5.120
33424SOL     OW 2168   7.185  13.512  11.042
33424SOL    HW1 2169   7.208  13.602  11.067
33424SOL    HW2 2170   7.092  13.504  11.063
33425SOL     OW 2171   9.845  11.163  10.209
33425SOL    HW1 2172   9.834  11.256  10.192
33425SOL    HW2 2173   9.846  11.122  10.123
33426SOL     OW 2174  11.612  12.872   9.003
33426SOL    HW1 2175  11.704  12.891   8.986
33426SOL    HW2 2176  11.602  12.780   8.977
33427SOL     OW 2177  11.741  13.691   5.949
33427SOL    HW1 2178  11.820  13.671   5.999
33427SOL    HW2 2179  11.724  13.612   5.898
33428SOL     OW 2180   7.741  13.394   4.809
33428SOL    HW1 2181   7.715  13.455   4.879
33428SOL    HW2 2182   7.740  13.308   4.851
33429SOL     OW 2183  12.956   0.199  11.288
33429SOL    HW1 2184  12.953   0.240  11.202
33429SOL    HW2 2185  13.050   0.190  11.306
33430SOL     OW 2186   8.481  14.100   6.617
33430SOL    HW1 2187   8.390  14.077   6.599
33430SOL    HW2 2188   8.518  14.021   6.656
33431SOL     OW 2189   8.789  13.383  10.945
33431SOL    HW1 2190   8.795  13.392  11.040
33431SOL    HW2 2191   8.696  13.386  10.926
33432SOL     OW 2192  14.517  13.020   8.026
33432SOL    HW1 2193  14.559  12.936   8.044
33432SOL    HW2 2194  14.468  13.040   8.106
33433SOL     OW 2195   7.931   4.181  13.763
33433SOL    HW1 2196   7.992   4.245  13.799
33433SOL    HW2 2197   7.986   4.122  13.711
33434SOL     OW 2198   7.805   0.478   5.090
33434SOL    HW1 2199   7.766   0.493   5.176
33434SOL    HW2 2200   7.870   0.548   5.080
33435SOL     OW 2201  10.425   4.834  10.081
33435SOL    HW1 2202  10.480   4.832  10.160
33435SOL    HW2 2203  10.481   4.800  10.012
33436SOL     OW 2204   7.132   6.282  10.062
33436SOL    HW1 2205   7.194   6.308  10.130
33436SOL    HW2 2206   7.047   6.316  10.092
33437SOL     OW 2207   9.347   6.571  11.254
33437SOL    HW1 2208   9.433   6.581  11.212
33437SOL    HW2 2209   9.336   6.476  11.263
33438SOL     OW 2210  14.086   5.338   9.735
33438SOL    HW1 2211  14.155   5.301   9.789
33438SOL    HW2 2212  14.112   5.317   9.645
33439SOL     OW 2213  14.649   2.606  13.958
33439SOL    HW1 2214  14.651   2.702  13.956
33439SOL    HW2 2215  14.559   2.583  13.937
33440SOL     OW 2216  14.428   0.904   2.484
33440SOL    HW1 2217  14.418   0.809   2.487
33440SOL    HW2 2218  14.511   0.922   2.528
33441SOL     OW 2219   3.342  10.483   7.698
33441SOL    HW1 2220   3.302  10.553   7.749
33441SOL    HW2 2221   3.286  10.475   7.620
33442SOL     OW 2222   2.228   0.303   8.836
33442SOL    HW1 2223   2.278   0.312   8.755
33442SOL    HW2 2224   2.226   0.392   8.873
33443SOL     OW 2225  10.844   6.499   7.152
33443SOL    HW1 2226  10.825   6.588   7.182
33443SOL    HW2 2227  10.888   6.510   7.068
33444SOL     OW 2228   8.867   4.116  13.915
33444SOL    HW1 2229   8.928   4.147  13.848
33444SOL    HW2 2230   8.797   4.181  13.915
33445SOL     OW 2231   6.776   2.411   1.830
33445SOL    HW1 2232   6.715   2.484   1.840
33445SOL    HW2 2233   6.770   2.364   1.914
33446SOL     OW 2234  13.686   4.651   6.956
33446SOL    HW1 2235  13.747   4.658   7.029
33446SOL    HW2 2236  13.617   4.714   6.977
33447SOL     OW 2237  11.343   4.039   7.892
33447SOL    HW1 2238  11.354   4.016   7.984
33447SOL    HW2 2239  11.424   4.008   7.850
33448SOL     OW 2240   7.060   1.383   8.186
33448SOL    HW1 2241   7.116   1.422   8.254
33448SOL    HW2 2242   6.982   1.354   8.234
33449SOL     OW 2243  13.453   1.378   4.731
33449SOL    HW1 2244  13.476   1.285   4.731
33449SOL    HW2 2245  13.377   1.385   4.789
33450SOL     OW 2246  14.233  13.399   8.396
33450SOL    HW1 2247  14.144  13.433   8.402
33450SOL    HW2 2248  14.235  13.325   8.456
33451SOL     OW 2249   8.768  10.101   7.287
33451SOL    HW1 2250   8.836  10.037   7.305
33451SOL    HW2 2251   8.793  10.141   7.204
33452SOL     OW 2252   2.865   6.689   7.610
33452SOL    HW1 2253   2.807   6.720   7.540
33452SOL    HW2 2254   2.876   6.596   7.592
33453SOL     OW 2255   9.198   4.660   7.725
33453SOL    HW1 2256   9.270   4.717   7.754
33453SOL    HW2 2257   9.120   4.699   7.763
33454SOL     OW 2258   8.636  13.162   7.436
33454SOL    HW1 2259   8.716  13.149   7.385
33454SOL    HW2 2260   8.639  13.093   7.502
33455SOL     OW 2261   7.510   8.971   7.477
33455SOL    HW1 2262   7.552   9.056   7.488
33455SOL    HW2 2263   7.488   8.966   7.384
33456SOL     OW 2264   7.028   5.896  12.396
33456SOL    HW1 2265   6.935   5.875  12.399
33456SOL    HW2 2266   7.046   5.940  12.479
33457SOL     OW 2267  12.273   6.275   3.524
33457SOL    HW1 2268  12.206   6.271   3.456
33457SOL    HW2 2269  12.274   6.367   3.552
33458SOL     OW 2270   7.527   6.579   3.235
33458SOL    HW1 2271   7.576   6.661   3.227
33458SOL    HW2 2272   7.488   6.583   3.322
33459SOL     OW 2273   1.972   0.687  14.304
33459SOL    HW1 2274   1.914   0.762  14.307
33459SOL    HW2 2275   1.988   0.666  14.396
33460SOL     OW 2276   7.272   4.068   6.217
33460SOL    HW1 2277   7.281   4.154   6.177
33460SOL    HW2 2278   7.360   4.045   6.246
33461SOL     OW 2279  11.452   2.168   3.098
33461SOL    HW1 2280  11.493   2.083   3.118
33461SOL    HW2 2281  11.445   2.211   3.183
33462SOL     OW 2282  13.020   6.183   8.327
33462SOL    HW1 2283  12.992   6.092   8.337
33462SOL    HW2 2284  13.102   6.189   8.375
33463SOL     OW 2285   4.170  13.411  13.863
33463SOL    HW1 2286   4.203  13.328  13.830
33463SOL    HW2 2287   4.247  13.453  13.904
33464SOL     OW 2288   9.460   5.257  10.685
33464SOL    HW1 2289   9.453   5.184  10.625
33464SOL    HW2 2290   9.440   5.334  10.632
33465SOL     OW 2291  12.596   6.082  10.342
33465SOL    HW1 2292  12.583   6.020  10.270
33465SOL    HW2 2293  12.519   6.138  10.338
33466SOL     OW 2294  13.223  11.819  12.795
33466SOL    HW1 2295  13.311  11.783  12.787
33466SOL    HW2 2296  13.196  11.839  12.706
33467SOL     OW 2297   1.528   1.032   4.594
33467SOL    HW1 2298   1.608   0.985   4.618
33467SOL    HW2 2299   1.532   1.112   4.646
33468SOL     OW 2300  12.198  11.754   0.447
33468SOL    HW1 2301  12.143  11.761   0.369
33468SOL    HW2 2302  12.157  11.814   0.510
33469SOL     OW 2303   8.596   9.866  11.220
33469SOL    HW1 2304   8.666   9.897  11.277
33469SOL    HW2 2305   8.589   9.773  11.239
33470SOL     OW 2306  10.458   0.327   0.382
33470SOL    HW1 2307  10.437   0.269   0.455
33470SOL    HW2 2308  10.536   0.375   0.411
33471SOL     OW 2309  10.044  13.268   3.281
33471SOL    HW1 2310  10.139  13.262   3.288
33471SOL    HW2 2311  10.012  13.243   3.368
33472SOL     OW 2312   5.032   2.810  11.307
33472SOL    HW1 2313   5.121   2.828  11.278
33472SOL    HW2 2314   5.026   2.852  11.394
33473SOL     OW 2315   2.914   7.006  12.252
33473SOL    HW1 2316   2.938   6.920  12.287
33473SOL    HW2 2317   2.828   6.992  12.211
33474SOL     OW 2318  12.501  12.115   9.014
33474SOL    HW1 2319  12.483  12.180   8.947
33474SOL    HW2 2320  12.431  12.050   9.005
33475SOL     OW 2321   6.305  12.085  13.978
33475SOL    HW1 2322   6.270  12.173  13.993
33475SOL    HW2 2323   6.301  12.074  13.883
33476SOL     OW 2324   2.657   1.979   6.841
33476SOL    HW1 2325   2.739   1.958   6.887
33476SOL    HW2 2326   2.672   2.066   6.804
33477SOL     OW 2327   1.649  14.681  13.796
33477SOL    HW1 2328   1.597  14.605  13.770
33477SOL    HW2 2329   1.729  14.673  13.744
33478SOL     OW 2330   5.039   3.940   5.897
33478SOL    HW1 2331   5.036   4.011   5.832
33478SOL    HW2 2332   4.987   3.972   5.970
33479SOL     OW 2333  13.590  13.806  11.429
33479SOL    HW1 2334  13.530  13.806  11.503
33479SOL    HW2 2335  13.535  13.826  11.353
33480SOL     OW 2336   7.127   7.477   1.912
33480SOL    HW1 2337   7.196   7.538   1.887
33480SOL    HW2 2338   7.081   7.521   1.984
33481SOL     OW 2339   8.814   1.222   7.222
33481SOL    HW1 2340   8.722   1.209   7.245
33481SOL    HW2 2341   8.822   1.190   7.132
33482SOL     OW 2342  11.137   9.740  11.349
33482SOL    HW1 2343  11.153   9.797  11.425
33482SOL    HW2 2344  11.043   9.725  11.350
33483SOL     OW 2345  12.013   6.978   8.063
33483SOL    HW1 2346  11.950   6.911   8.089
33483SOL    HW2 2347  12.023   6.965   7.968
33484SOL     OW 2348  14.199   6.412   6.128
33484SOL    HW1 2349  14.137   6.475   6.165
33484SOL    HW2 2350  14.285   6.444   6.156
33485SOL     OW 2351  14.422   4.308   3.541
33485SOL    HW1 2352  14.342   4.258   3.561
33485SOL    HW2 2353  14.401   4.354   3.460
33486SOL     OW 2354   8.062  12.143   8.479
33486SOL    HW1 2355   8.033  12.088   8.552
33486SOL    HW2 2356   8.002  12.217   8.479
33487SOL     OW 2357  12.613   5.014  11.722
33487SOL    HW1 2358  12.578   5.100  11.747
33487SOL    HW2 2359  12.548   4.952  11.754
33488SOL     OW 2360  13.164   6.985  13.301
33488SOL    HW1 2361  13.136   7.074  13.323
33488SOL    HW2 2362  13.217   6.994  13.222
33489SOL     OW 2363   8.416   1.259  13.995
33489SOL    HW1 2364   8.334   1.309  13.989
33489SOL    HW2 2365   8.408   1.209  14.076
33490SOL     OW 2366   3.713   2.017   3.570
33490SOL    HW1 2367   3.784   1.994   3.629
33490SOL    HW2 2368   3.673   1.934   3.545
33491SOL     OW 2369   4.639   1.930   2.863
33491SOL    HW1 2370   4.566   1.992   2.871
33491SOL    HW2 2371   4.684   1.958   2.783
33492SOL     OW 2372   9.106   3.173   7.923
33492SOL    HW1 2373   9.170   3.163   7.993
33492SOL    HW2 2374   9.022   3.184   7.968
33493SOL     OW 2375   2.111   9.660   5.325
33493SOL    HW1 2376   2.073   9.727   5.381
33493SOL    HW2 2377   2.156   9.709   5.256
33494SOL     OW 2378   2.742  13.222  12.126
33494SOL    HW1 2379   2.689  13.279  12.070
33494SOL    HW2 2380   2.695  13.221  12.210
33495SOL     OW 2381  13.270   8.421   4.617
33495SOL    HW1 2382  13.179   8.429   4.588
33495SOL    HW2 2383  13.305   8.347   4.567
33496SOL     OW 2384  12.000  10.536  12.719
33496SOL    HW1 2385  11.993  10.623  12.760
33496SOL    HW2 2386  11.910  10.504  12.713
33497SOL     OW 2387   1.119   6.911  12.414
33497SOL    HW1 2388   1.182   6.906  12.342
33497SOL    HW2 2389   1.164   6.961  12.482
33498SOL     OW 2390  11.586   2.959   7.252
33498SOL    HW1 2391  11.576   3.029   7.187
33498SOL    HW2 2392  11.623   2.886   7.203
33499SOL     OW 2393   4.081   8.351   4.220
33499SOL    HW1 2394   4.102   8.260   4.237
33499SOL    HW2 2395   4.154   8.383   4.166
33500SOL     OW 2396   5.342   9.953   8.615
33500SOL    HW1 2397   5.346   9.874   8.669
33500SOL    HW2 2398   5.432   9.969   8.588
33501SOL     OW 2399   3.628   5.391   0.064
33501SOL    HW1 2400   3.544   5.349   0.047
33501SOL    HW2 2401   3.622   5.420   0.155
33502SOL     OW 2402   6.639  10.807  12.902
33502SOL    HW1 2403   6.682  10.886  12.935
33502SOL    HW2 2404   6.548  10.815  12.930
33503SOL     OW 2405   8.876  11.009   8.181
33503SOL    HW1 2406   8.845  11.095   8.208
33503SOL    HW2 2407   8.816  10.948   8.223
33504SOL     OW 2408   0.027  11.952   6.372
33504SOL    HW1 2409  14.812  11.997   6.354
33504SOL    HW2 2410   0.019  11.868   6.325
33505SOL     OW 2411   6.156  14.031   8.774
33505SOL    HW1 2412   6.080  14.034   8.715
33505SOL    HW2 2413   6.120  14.053   8.860
33506SOL     OW 2414   3.176   5.131   5.326
33506SOL    HW1 2415   3.225   5.159   5.403
33506SOL    HW2 2416   3.208   5.042   5.308
33507SOL     OW 2417   6.426   6.773  12.309
33507SOL    HW1 2418   6.507   6.753  12.354
33507SOL    HW2 2419   6.367   6.803  12.378
33508SOL     OW 2420   2.840   7.866   0.040
33508SOL    HW1 2421   2.806   7.937  14.853
33508SOL    HW2 2422   2.904   7.909   0.097
33509SOL     OW 2423   0.872   0.418   9.194
33509SOL    HW1 2424   0.950   0.364   9.203
33509SOL    HW2 2425   0.888   0.472   9.116
33510SOL     OW 2426  14.268  12.774  14.567
33510SOL    HW1 2427  14.176  12.755  14.585
33510SOL    HW2 2428  14.316  12.723  14.633
33511SOL     OW 2429  12.512   1.883  11.432
33511SOL    HW1 2430  12.567   1.813  11.468
33511SOL    HW2 2431  12.463   1.842  11.361
33512SOL     OW 2432   5.479   0.456  12.993
33512SOL    HW1 2433   5.495   0.424  12.905
33512SOL    HW2 2434   5.387   0.483  12.992
33513SOL     OW 2435   0.842   2.969   7.741
33513SOL    HW1 2436   0.896   2.980   7.819
33513SOL    HW2 2437   0.754   2.950   7.775
33514SOL     OW 2438   1.537   9.694  12.803
33514SOL    HW1 2439   1.482   9.649  12.739
33514SOL    HW2 2440   1.611   9.636  12.816
33515SOL     OW 2441  12.805  14.404  12.071
33515SOL    HW1 2442  12.777  14.314  12.056
33515SOL    HW2 2443  12.880  14.416  12.013
33516SOL     OW 2444   4.270   0.674   6.483
33516SOL    HW1 2445   4.362   0.685   6.460
33516SOL    HW2 2446   4.222   0.695   6.403
33517SOL     OW 2447   6.937   8.719  13.307
33517SOL    HW1 2448   6.997   8.764  13.247
33517SOL    HW2 2449   6.989   8.704  13.386
33518SOL     OW 2450   6.749   3.875  10.038
33518SOL    HW1 2451   6.747   3.907   9.948
33518SOL    HW2 2452   6.669   3.910  10.078
33519SOL     OW 2453   4.192   9.659   8.935
33519SOL    HW1 2454   4.143   9.578   8.927
33519SOL    HW2 2455   4.160   9.714   8.863
33520SOL     OW 2456  11.113  13.356   1.561
33520SOL    HW1 2457  11.037  13.301   1.542
33520SOL    HW2 2458  11.092  13.440   1.522
33521SOL     OW 2459  11.991  10.080   9.733
33521SOL    HW1 2460  11.898  10.060   9.744
33521SOL    HW2 2461  12.036  10.020   9.792
33522SOL     OW 2462   7.045  14.010  12.122
33522SOL    HW1 2463   6.996  13.932  12.147
33522SOL    HW2 2464   6.980  14.080  12.123
33523SOL     OW 2465  12.748   9.308  14.274
33523SOL    HW1 2466  12.784   9.390  14.307
33523SOL    HW2 2467  12.790   9.241  14.328
33524SOL     OW 2468   7.982   0.458  10.005
33524SOL    HW1 2469   8.050   0.486  10.067
33524SOL    HW2 2470   7.971   0.533   9.946
33525SOL     OW 2471   7.838   4.343   8.745
33525SOL    HW1 2472   7.876   4.301   8.822
33525SOL    HW2 2473   7.858   4.282   8.673
33526SOL     OW 2474   5.438   0.462   0.877
33526SOL    HW1 2475   5.381   0.529   0.839
33526SOL    HW2 2476   5.487   0.426   0.803
33527SOL     OW 2477  10.368   6.432  14.847
33527SOL    HW1 2478  10.279   6.455  14.819
33527SOL    HW2 2479  10.355   6.361   0.042
33528SOL     OW 2480   2.094   2.923   5.068
33528SOL    HW1 2481   2.082   2.932   4.973
33528SOL    HW2 2482   2.018   2.969   5.106
33529SOL     OW 2483  11.735   4.940  10.172
33529SOL    HW1 2484  11.764   4.851  10.191
33529SOL    HW2 2485  11.680   4.932  10.095
33530SOL     OW 2486   2.396   7.356   7.575
33530SOL    HW1 2487   2.457   7.303   7.626
33530SOL    HW2 2488   2.330   7.385   7.639
33531SOL     OW 2489  11.752   1.852  14.542
33531SOL    HW1 2490  11.755   1.906  14.622
33531SOL    HW2 2491  11.761   1.762  14.573
33532SOL     OW 2492   4.732   1.498   2.695
33532SOL    HW1 2493   4.666   1.440   2.733
33532SOL    HW2 2494   4.732   1.477   2.602
33533SOL     OW 2495   6.856   9.175   7.735
33533SOL    HW1 2496   6.924   9.139   7.793
33533SOL    HW2 2497   6.868   9.127   7.652
33534SOL     OW 2498   4.710   0.272   3.408
33534SOL    HW1 2499   4.782   0.219   3.443
33534SOL    HW2 2500   4.641   0.265   3.474
33535SOL     OW 2501   4.267   1.393   1.979
33535SOL    HW1 2502   4.272   1.298   1.990
33535SOL    HW2 2503   4.257   1.427   2.067
33536SOL     OW 2504   8.435  11.041  13.380
33536SOL    HW1 2505   8.405  11.117  13.331
33536SOL    HW2 2506   8.355  10.992  13.400
33537SOL     OW 2507   7.209   4.993   9.646
33537SOL    HW1 2508   7.224   4.927   9.578
33537SOL    HW2 2509   7.291   5.043   9.650
33538SOL     OW 2510   3.290  14.817   5.526
33538SOL    HW1 2511   3.230  14.828   5.452
33538SOL    HW2 2512   3.233  14.788   5.598
33539SOL     OW 2513   1.230  13.680  13.832
33539SOL    HW1 2514   1.139  13.652  13.827
33539SOL    HW2 2515   1.239  13.744  13.761
33540SOL     OW 2516   3.370   2.804  13.266
33540SOL    HW1 2517   3.393   2.713  13.285
33540SOL    HW2 2518   3.406   2.820  13.178
33541SOL     OW 2519  10.231   6.968   3.953
33541SOL    HW1 2520  10.223   6.946   3.861
33541SOL    HW2 2521  10.289   6.901   3.989
33542SOL     OW 2522  13.443  13.678  10.036
33542SOL    HW1 2523  13.508  13.672  10.105
33542SOL    HW2 2524  13.359  13.683  10.082
33543SOL     OW 2525  10.138  10.881   1.611
33543SOL    HW1 2526  10.177  10.813   1.664
33543SOL    HW2 2527  10.203  10.951   1.608
33544SOL     OW 2528  14.432   3.440  11.830
33544SOL    HW1 2529  14.421   3.346  11.816
33544SOL    HW2 2530  14.482   3.447  11.912
33545SOL     OW 2531   9.011   2.609  11.262
33545SOL    HW1 2532   9.073   2.558  11.210
33545SOL    HW2 2533   9.065   2.678  11.302
33546SOL     OW 2534  13.457   9.755  13.518
33546SOL    HW1 2535  13.425   9.672  13.481
33546SOL    HW2 2536  13.391   9.779  13.583
33547SOL     OW 2537  11.981   5.078   1.167
33547SOL    HW1 2538  12.071   5.075   1.200
33547SOL    HW2 2539  11.989   5.115   1.079
33548SOL     OW 2540   3.088  14.403  12.455
33548SOL    HW1 2541   3.079  14.316  12.492
33548SOL    HW2 2542   3.008  14.449  12.482
33549SOL     OW 2543   7.563  13.031   8.114
33549SOL    HW1 2544   7.525  13.013   8.028
33549SOL    HW2 2545   7.658  13.024   8.101
33550SOL     OW 2546   9.270   4.144   4.095
33550SOL    HW1 2547   9.183   4.150   4.055
33550SOL    HW2 2548   9.258   4.178   4.183
33551SOL     OW 2549  11.027  10.261   3.217
33551SOL    HW1 2550  10.976  10.181   3.206
33551SOL    HW2 2551  11.095  10.255   3.150
33552SOL     OW 2552  12.277  11.831   6.077
33552SOL    HW1 2553  12.302  11.739   6.088
33552SOL    HW2 2554  12.306  11.854   5.989
33553SOL     OW 2555   1.522  11.738   5.216
33553SOL    HW1 2556   1.595  11.779   5.262
33553SOL    HW2 2557   1.492  11.805   5.155
33554SOL     OW 2558   4.573   8.853   1.463
33554SOL    HW1 2559   4.581   8.855   1.559
33554SOL    HW2 2560   4.663   8.855   1.432
33555SOL     OW 2561   0.462  12.528   8.535
33555SOL    HW1 2562   0.448  12.437   8.561
33555SOL    HW2 2563   0.398  12.544   8.465
33556SOL     OW 2564   1.639   5.878   6.160
33556SOL    HW1 2565   1.723   5.907   6.125
33556SOL    HW2 2566   1.579   5.951   6.143
33557SOL     OW 2567  13.981   0.377  13.670
33557SOL    HW1 2568  14.069   0.410  13.651
33557SOL    HW2 2569  13.928   0.455  13.685
33558SOL     OW 2570  12.038   9.284  14.167
33558SOL    HW1 2571  12.101   9.212  14.163
33558SOL    HW2 2572  12.076   9.346  14.229
33559SOL     OW 2573   5.805  13.338   7.356
33559SOL    HW1 2574   5.840  13.271   7.415
33559SOL    HW2 2575   5.723  13.301   7.323
33560SOL     OW 2576  10.454  13.110   0.918
33560SOL    HW1 2577  10.516  13.061   0.864
33560SOL    HW2 2578  10.498  13.193   0.937
33561SOL     OW 2579   0.916   3.158   0.389
33561SOL    HW1 2580   0.952   3.119   0.309
33561SOL    HW2 2581   0.847   3.097   0.416
33562SOL     OW 2582   2.152   0.073   5.599
33562SOL    HW1 2583   2.152   0.019   5.519
33562SOL    HW2 2584   2.155   0.163   5.567
33563SOL     OW 2585   7.666   3.374   9.529
33563SOL    HW1 2586   7.645   3.308   9.464
33563SOL    HW2 2587   7.755   3.403   9.505
33564SOL     OW 2588  13.907  13.670  10.970
33564SOL    HW1 2589  13.823  13.652  11.011
33564SOL    HW2 2590  13.963  13.699  11.042
33565SOL     OW 2591   5.645   7.048  14.249
33565SOL    HW1 2592   5.591   7.003  14.183
33565SOL    HW2 2593   5.725   6.997  14.252
33566SOL     OW 2594  14.113   8.062   6.461
33566SOL    HW1 2595  14.164   8.140   6.443
33566SOL    HW2 2596  14.080   8.074   6.550
33567SOL     OW 2597   3.046  12.020   8.632
33567SOL    HW1 2598   3.109  11.981   8.572
33567SOL    HW2 2599   3.096  12.087   8.678
33568SOL     OW 2600   1.267   7.002  14.431
33568SOL    HW1 2601   1.212   6.933  14.393
33568SOL    HW2 2602   1.216   7.036  14.505
33569SOL     OW 2603  13.227  12.274   4.044
33569SOL    HW1 2604  13.272  12.336   3.987
33569SOL    HW2 2605  13.205  12.324   4.122
33570SOL     OW 2606   4.610   3.681   7.550
33570SOL    HW1 2607   4.676   3.614   7.567
33570SOL    HW2 2608   4.526   3.636   7.561
33571SOL     OW 2609   1.697   1.884  11.840
33571SOL    HW1 2610   1.666   1.924  11.759
33571SOL    HW2 2611   1.619   1.876  11.894
33572SOL     OW 2612   3.676  11.659   5.027
33572SOL    HW1 2613   3.771  11.658   5.015
33572SOL    HW2 2614   3.641  11.610   4.952
33573SOL     OW 2615   5.606   7.716   0.229
33573SOL    HW1 2616   5.641   7.657   0.162
33573SOL    HW2 2617   5.513   7.722   0.209
33574SOL     OW 2618   0.593  12.027   4.779
33574SOL    HW1 2619   0.594  12.080   4.858
33574SOL    HW2 2620   0.684  11.999   4.768
33575SOL     OW 2621  10.943   6.542   3.330
33575SOL    HW1 2622  10.871   6.481   3.313
33575SOL    HW2 2623  11.006   6.523   3.260
33576SOL     OW 2624   3.104  11.735   9.476
33576SOL    HW1 2625   3.103  11.760   9.384
33576SOL    HW2 2626   3.186  11.686   9.486
33577SOL     OW 2627  13.542   1.071   9.065
33577SOL    HW1 2628  13.482   1.136   9.028
33577SOL    HW2 2629  13.508   1.056   9.154
33578SOL     OW 2630   4.358  13.014   9.660
33578SOL    HW1 2631   4.315  13.055   9.585
33578SOL    HW2 2632   4.393  12.932   9.626
33579SOL     OW 2633  14.753   1.770   5.521
33579SOL    HW1 2634  14.726   1.830   5.451
33579SOL    HW2 2635  14.848   1.780   5.527
33580SOL     OW 2636  13.872   2.451   3.912
33580SOL    HW1 2637  13.879   2.473   3.819
33580SOL    HW2 2638  13.954   2.480   3.951
33581SOL     OW 2639   9.765   3.617  12.200
33581SOL    HW1 2640   9.848   3.578  12.229
33581SOL    HW2 2641   9.715   3.630  12.281
33582SOL     OW 2642   6.825   9.933  12.800
33582SOL    HW1 2643   6.763   9.979  12.856
33582SOL    HW2 2644   6.847   9.854  12.848
33583SOL     OW 2645   9.262   1.445  13.769
33583SOL    HW1 2646   9.246   1.444  13.863
33583SOL    HW2 2647   9.294   1.534  13.751
33584SOL     OW 2648   9.017   6.481   3.202
33584SOL    HW1 2649   9.074   6.491   3.126
33584SOL    HW2 2650   8.962   6.406   3.180
33585SOL     OW 2651   3.182   2.155  11.174
33585SOL    HW1 2652   3.102   2.203  11.156
33585SOL    HW2 2653   3.241   2.179  11.102
33586SOL     OW 2654  13.178   6.803   7.232
33586SOL    HW1 2655  13.112   6.861   7.270
33586SOL    HW2 2656  13.247   6.799   7.298
33587SOL     OW 2657   5.621   9.856   1.536
33587SOL    HW1 2658   5.556   9.879   1.603
33587SOL    HW2 2659   5.583   9.781   1.491
33588SOL     OW 2660  13.096  13.673   6.796
33588SOL    HW1 2661  13.086  13.614   6.870
33588SOL    HW2 2662  13.118  13.758   6.836
33589SOL     OW 2663  13.265   4.258  12.733
33589SOL    HW1 2664  13.250   4.178  12.683
33589SOL    HW2 2665  13.198   4.319  12.701
33590SOL     OW 2666   3.059  11.659   6.696
33590SOL    HW1 2667   3.040  11.617   6.613
33590SOL    HW2 2668   3.140  11.618   6.726
33591SOL     OW 2669   1.492   6.407   4.377
33591SOL    HW1 2670   1.529   6.356   4.449
33591SOL    HW2 2671   1.568   6.434   4.326
33592SOL     OW 2672   1.723   9.987  13.368
33592SOL    HW1 2673   1.791  10.030  13.316
33592SOL    HW2 2674   1.641  10.024  13.336
33593SOL     OW 2675  12.541  12.703   8.657
33593SOL    HW1 2676  12.509  12.670   8.741
33593SOL    HW2 2677  12.504  12.791   8.651
33594SOL     OW 2678   0.697  12.211   9.414
33594SOL    HW1 2679   0.781  12.191   9.456
33594SOL    HW2 2680   0.670  12.129   9.374
33595SOL     OW 2681  11.745   3.775   6.010
33595SOL    HW1 2682  11.720   3.850   6.064
33595SOL    HW2 2683  11.802   3.812   5.942
33596SOL     OW 2684   3.061  12.290   4.714
33596SOL    HW1 2685   3.012  12.245   4.645
33596SOL    HW2 2686   3.127  12.340   4.667
33597SOL     OW 2687   0.595   9.441   2.399
33597SOL    HW1 2688   0.645   9.428   2.479
33597SOL    HW2 2689   0.510   9.402   2.417
33598SOL     OW 2690  11.562   0.611   7.763
33598SOL    HW1 2691  11.541   0.534   7.710
33598SOL    HW2 2692  11.537   0.686   7.708
33599SOL     OW 2693   8.905   9.573   8.898
33599SOL    HW1 2694   8.856   9.592   8.978
33599SOL    HW2 2695   8.844   9.520   8.845
33600SOL     OW 2696  12.568  11.082  13.226
33600SOL    HW1 2697  12.499  11.027  13.188
33600SOL    HW2 2698  12.633  11.019  13.257
33601SOL     OW 2699   6.485   6.525  14.788
33601SOL    HW1 2700   6.517   6.577  14.714
33601SOL    HW2 2701   6.394   6.504  14.764
33602SOL     OW 2702   8.892   3.731   7.638
33602SOL    HW1 2703   8.945   3.746   7.560
33602SOL    HW2 2704   8.803   3.754   7.612
33603SOL     OW 2705   8.613   3.439   4.621
33603SOL    HW1 2706   8.651   3.435   4.709
33603SOL    HW2 2707   8.663   3.375   4.570
33604SOL     OW 2708  14.780   8.683   8.217
33604SOL    HW1 2709  14.851   8.629   8.184
33604SOL    HW2 2710  14.735   8.715   8.138
33605SOL     OW 2711  14.809   5.325   3.331
33605SOL    HW1 2712  14.743   5.338   3.263
33605SOL    HW2 2713  14.839   5.412   3.353
33606SOL     OW 2714  14.139   9.449   0.078
33606SOL    HW1 2715  14.223   9.456   0.124
33606SOL    HW2 2716  14.161   9.409  14.862
33607SOL     OW 2717  11.368   4.502   0.769
33607SOL    HW1 2718  11.423   4.431   0.802
33607SOL    HW2 2719  11.404   4.581   0.810
33608SOL     OW 2720  13.635   1.002  10.857
33608SOL    HW1 2721  13.698   0.985  10.787
33608SOL    HW2 2722  13.606   0.915  10.885
33609SOL     OW 2723   9.852   4.377  14.758
33609SOL    HW1 2724   9.801   4.372  14.839
33609SOL    HW2 2725   9.827   4.298  14.710
33610SOL     OW 2726   5.699   7.757  11.689
33610SOL    HW1 2727   5.694   7.750  11.593
33610SOL    HW2 2728   5.698   7.666  11.719
33611SOL     OW 2729  12.228   2.697   6.207
33611SOL    HW1 2730  12.263   2.672   6.122
33611SOL    HW2 2731  12.247   2.791   6.215
33612SOL     OW 2732  14.583   4.498  11.603
33612SOL    HW1 2733  14.502   4.541  11.632
33612SOL    HW2 2734  14.600   4.431  11.668
33613SOL     OW 2735   5.531   2.481  11.722
33613SOL    HW1 2736   5.506   2.393  11.691
33613SOL    HW2 2737   5.454   2.512  11.770
33614SOL     OW 2738   1.884   1.615  11.643
33614SOL    HW1 2739   1.913   1.568  11.566
33614SOL    HW2 2740   1.961   1.617  11.700
33615SOL     OW 2741  12.481   0.943   6.563
33615SOL    HW1 2742  12.558   0.888   6.544
33615SOL    HW2 2743  12.491   1.019   6.506
33616SOL     OW 2744   5.130   0.087   1.583
33616SOL    HW1 2745   5.067   0.040   1.639
33616SOL    HW2 2746   5.196   0.021   1.562
33617SOL     OW 2747  13.897  12.900   4.528
33617SOL    HW1 2748  13.805  12.913   4.554
33617SOL    HW2 2749  13.941  12.980   4.555
33618SOL     OW 2750   1.634  14.593   1.151
33618SOL    HW1 2751   1.689  14.612   1.075
33618SOL    HW2 2752   1.695  14.567   1.219
33619SOL     OW 2753   7.195  10.038  13.828
33619SOL    HW1 2754   7.171  10.042  13.921
33619SOL    HW2 2755   7.290  10.037  13.827
33620SOL     OW 2756   4.681   5.990   5.245
33620SOL    HW1 2757   4.652   6.081   5.253
33620SOL    HW2 2758   4.754   5.994   5.182
33621SOL     OW 2759  12.459  11.821   0.395
33621SOL    HW1 2760  12.381  11.769   0.414
33621SOL    HW2 2761  12.471  11.875   0.474
33622SOL     OW 2762   9.693   7.294   5.003
33622SOL    HW1 2763   9.651   7.233   4.942
33622SOL    HW2 2764   9.787   7.282   4.987
33623SOL     OW 2765   9.182   5.247   8.482
33623SOL    HW1 2766   9.099   5.261   8.529
33623SOL    HW2 2767   9.223   5.173   8.527
33624SOL     OW 2768   6.103  14.207  13.727
33624SOL    HW1 2769   6.164  14.186  13.797
33624SOL    HW2 2770   6.029  14.148  13.740
33625SOL     OW 2771  12.297   0.711   9.823
33625SOL    HW1 2772  12.373   0.656   9.841
33625SOL    HW2 2773  12.301   0.780   9.889
33626SOL     OW 2774   7.776   0.840  11.962
33626SOL    HW1 2775   7.766   0.934  11.971
33626SOL    HW2 2776   7.871   0.827  11.952
33627SOL     OW 2777   4.577   4.952   7.121
33627SOL    HW1 2778   4.575   5.011   7.196
33627SOL    HW2 2779   4.612   4.870   7.155
33628SOL     OW 2780   8.945   2.354   4.323
33628SOL    HW1 2781   8.914   2.357   4.414
33628SOL    HW2 2782   8.993   2.272   4.316
33629SOL     OW 2783   7.225   0.907   6.422
33629SOL    HW1 2784   7.251   0.821   6.391
33629SOL    HW2 2785   7.180   0.891   6.505
33630SOL     OW 2786   1.532   0.603   7.479
33630SOL    HW1 2787   1.508   0.668   7.545
33630SOL    HW2 2788   1.457   0.601   7.419
33631SOL     OW 2789   6.211   4.780   8.544
33631SOL    HW1 2790   6.125   4.820   8.538
33631SOL    HW2 2791   6.242   4.801   8.632
33632SOL     OW 2792   4.072   7.689  13.826
33632SOL    HW1 2793   4.099   7.599  13.845
33632SOL    HW2 2794   4.066   7.731  13.912
33633SOL     OW 2795  11.470  13.685   1.002
33633SOL    HW1 2796  11.378  13.705   1.020
33633SOL    HW2 2797  11.474  13.590   0.998
33634SOL     OW 2798   4.436   7.532   3.642
33634SOL    HW1 2799   4.381   7.586   3.699
33634SOL    HW2 2800   4.380   7.459   3.616
33635SOL     OW 2801  13.332  10.081   0.980
33635SOL    HW1 2802  13.260  10.095   0.919
33635SOL    HW2 2803  13.334  10.160   1.034
33636SOL     OW 2804  14.352  10.014  14.467
33636SOL    HW1 2805  14.274   9.992  14.518
33636SOL    HW2 2806  14.365   9.938  14.410
33637SOL     OW 2807   5.975  12.406   6.021
33637SOL    HW1 2808   6.030  12.451   5.957
33637SOL    HW2 2809   5.919  12.349   5.968
33638SOL     OW 2810   0.042   1.875   7.671
33638SOL    HW1 2811   0.097   1.889   7.594
33638SOL    HW2 2812   0.059   1.951   7.727
33639SOL     OW 2813   3.523   1.467   1.003
33639SOL    HW1 2814   3.606   1.425   1.027
33639SOL    HW2 2815   3.549   1.554   0.972
33640SOL     OW 2816   0.574  14.754   7.638
33640SOL    HW1 2817   0.623  14.677   7.611
33640SOL    HW2 2818   0.489  14.720   7.664
33641SOL     OW 2819  11.899   0.710   4.822
33641SOL    HW1 2820  11.978   0.697   4.770
33641SOL    HW2 2821  11.930   0.723   4.911
33642SOL     OW 2822  11.539   4.289  13.139
33642SOL    HW1 2823  11.464   4.282  13.198
33642SOL    HW2 2824  11.544   4.203  13.097
33643SOL     OW 2825   7.985  12.912   1.459
33643SOL    HW1 2826   7.957  12.821   1.472
33643SOL    HW2 2827   8.076  12.904   1.430
33644SOL     OW 2828  12.205   1.492   0.778
33644SOL    HW1 2829  12.173   1.416   0.729
33644SOL    HW2 2830  12.265   1.536   0.718
33645SOL     OW 2831   9.568   2.182   3.775
33645SOL    HW1 2832   9.526   2.114   3.721
33645SOL    HW2 2833   9.658   2.151   3.786
33646SOL     OW 2834   7.868  10.268   7.537
33646SOL    HW1 2835   7.844  10.282   7.629
33646SOL    HW2 2836   7.925  10.192   7.538
33647SOL     OW 2837  14.598   9.275  13.283
33647SOL    HW1 2838  14.562   9.208  13.341
33647SOL    HW2 2839  14.523   9.305  13.231
33648SOL     OW 2840   0.649   5.702  12.258
33648SOL    HW1 2841   0.679   5.639  12.193
33648SOL    HW2 2842   0.645   5.652  12.340
33649SOL     OW 2843   6.161  11.510  13.683
33649SOL    HW1 2844   6.163  11.480  13.774
33649SOL    HW2 2845   6.101  11.450  13.640
33650SOL     OW 2846   0.581   7.834   5.667
33650SOL    HW1 2847   0.531   7.915   5.656
33650SOL    HW2 2848   0.535   7.785   5.735
33651SOL     OW 2849   5.399   1.893   2.391
33651SOL    HW1 2850   5.321   1.931   2.434
33651SOL    HW2 2851   5.420   1.816   2.444
33652SOL     OW 2852   8.645  14.289   8.313
33652SOL    HW1 2853   8.553  14.316   8.318
33652SOL    HW2 2854   8.641  14.197   8.285
33653SOL     OW 2855  13.739   1.677   4.851
33653SOL    HW1 2856  13.757   1.625   4.773
33653SOL    HW2 2857  13.658   1.641   4.885
33654SOL     OW 2858  12.479  12.409   9.807
33654SOL    HW1 2859  12.567  12.374   9.796
33654SOL    HW2 2860  12.492  12.498   9.839
33655SOL     OW 2861   6.711   7.466  12.384
33655SOL    HW1 2862   6.711   7.378  12.348
33655SOL    HW2 2863   6.688   7.455  12.477
33656SOL     OW 2864   4.198  11.660  11.429
33656SOL    HW1 2865   4.131  11.593  11.415
33656SOL    HW2 2866   4.212  11.660  11.524
33657SOL     OW 2867   4.969   8.721   8.222
33657SOL    HW1 2868   5.053   8.765   8.234
33657SOL    HW2 2869   4.909   8.790   8.194
33658SOL     OW 2870  14.398  10.306   5.359
33658SOL    HW1 2871  14.405  10.373   5.291
33658SOL    HW2 2872  14.411  10.223   5.313
33659SOL     OW 2873   7.191   4.856   6.742
33659SOL    HW1 2874   7.133   4.915   6.694
33659SOL    HW2 2875   7.275   4.861   6.695
33660SOL     OW 2876   4.291  13.203  10.575
33660SOL    HW1 2877   4.203  13.238  10.589
33660SOL    HW2 2878   4.277  13.115  10.539
33661SOL     OW 2879  13.630  10.444   2.119
33661SOL    HW1 2880  13.594  10.517   2.168
33661SOL    HW2 2881  13.625  10.370   2.179
33662SOL     OW 2882   6.889   6.656   5.509
33662SOL    HW1 2883   6.807   6.696   5.482
33662SOL    HW2 2884   6.863   6.581   5.563
33663SOL     OW 2885   4.159   0.746  10.803
33663SOL    HW1 2886   4.079   0.724  10.849
33663SOL    HW2 2887   4.203   0.809  10.860
33664SOL     OW 2888   6.580   9.757  10.613
33664SOL    HW1 2889   6.660   9.804  10.635
33664SOL    HW2 2890   6.525   9.766  10.690
33665SOL     OW 2891   3.491  14.703   4.263
33665SOL    HW1 2892   3.467  14.714   4.355
33665SOL    HW2 2893   3.587  14.701   4.263
33666SOL     OW 2894   3.155   2.722  13.050
33666SOL    HW1 2895   3.140   2.742  13.143
33666SOL    HW2 2896   3.067   2.718  13.012
33667SOL     OW 2897   3.729   1.960   3.073
33667SOL    HW1 2898   3.799   1.895   3.066
33667SOL    HW2 2899   3.666   1.920   3.133
33668SOL     OW 2900   9.444   8.329   8.101
33668SOL    HW1 2901   9.399   8.391   8.044
33668SOL    HW2 2902   9.509   8.287   8.045
33669SOL     OW 2903   0.938   5.072   9.113
33669SOL    HW1 2904   0.848   5.066   9.081
33669SOL    HW2 2905   0.990   5.024   9.049
33670SOL     OW 2906   6.395   3.587   2.410
33670SOL    HW1 2907   6.382   3.585   2.315
33670SOL    HW2 2908   6.386   3.679   2.434
33671SOL     OW 2909   2.787   8.537   4.708
33671SOL    HW1 2910   2.712   8.597   4.700
33671SOL    HW2 2911   2.774   8.473   4.638
33672SOL     OW 2912   3.778  10.955  10.499
33672SOL    HW1 2913   3.763  10.937  10.592
33672SOL    HW2 2914   3.871  10.938  10.486
33673SOL     OW 2915  13.842  10.227   9.527
33673SOL    HW1 2916  13.895  10.261   9.599
33673SOL    HW2 2917  13.891  10.153   9.493
33674SOL     OW 2918   1.707   1.645   3.834
33674SOL    HW1 2919   1.621   1.604   3.827
33674SOL    HW2 2920   1.768   1.573   3.849
33675SOL     OW 2921  10.183  12.494   9.827
33675SOL    HW1 2922  10.246  12.565   9.830
33675SOL    HW2 2923  10.234  12.417   9.802
33676SOL     OW 2924   8.791   4.087   3.099
33676SOL    HW1 2925   8.866   4.033   3.077
33676SOL    HW2 2926   8.785   4.150   3.027
33677SOL     OW 2927   8.190  13.280   2.941
33677SOL    HW1 2928   8.248  13.235   2.880
33677SOL    HW2 2929   8.122  13.319   2.885
33678SOL     OW 2930   0.337   1.209   6.812
33678SOL    HW1 2931   0.361   1.127   6.855
33678SOL    HW2 2932   0.335   1.187   6.719
33679SOL     OW 2933   3.559  14.275  11.598
33679SOL    HW1 2934   3.529  14.254  11.687
33679SOL    HW2 2935   3.633  14.216  11.584
33680SOL     OW 2936  12.886   0.423   6.677
33680SOL    HW1 2937  12.825   0.420   6.603
33680SOL    HW2 2938  12.937   0.343   6.670
33681SOL     OW 2939  13.054  12.164  11.034
33681SOL    HW1 2940  13.110  12.134  10.962
33681SOL    HW2 2941  13.099  12.241  11.069
33682SOL     OW 2942   7.973   9.653   3.853
33682SOL    HW1 2943   7.883   9.635   3.826
33682SOL    HW2 2944   8.006   9.714   3.787
33683SOL     OW 2945  13.536   8.735   8.586
33683SOL    HW1 2946  13.507   8.645   8.599
33683SOL    HW2 2947  13.514   8.755   8.495
33684SOL     OW 2948   1.689  11.926   3.526
33684SOL    HW1 2949   1.698  11.906   3.620
33684SOL    HW2 2950   1.599  11.903   3.505
33685SOL     OW 2951   5.334   7.382   3.653
33685SOL    HW1 2952   5.288   7.419   3.729
33685SOL    HW2 2953   5.298   7.429   3.578
33686SOL     OW 2954   6.556   5.569   9.335
33686SOL    HW1 2955   6.533   5.486   9.376
33686SOL    HW2 2956   6.648   5.582   9.359
33687SOL     OW 2957   3.617  13.016   8.974
33687SOL    HW1 2958   3.547  13.082   8.976
33687SOL    HW2 2959   3.670  13.041   8.898
33688SOL     OW 2960  13.227   3.652   5.767
33688SOL    HW1 2961  13.272   3.571   5.792
33688SOL    HW2 2962  13.161   3.665   5.835
33689SOL     OW 2963  13.742   6.609   7.559
33689SOL    HW1 2964  13.827   6.635   7.595
33689SOL    HW2 2965  13.710   6.687   7.514
33690SOL     OW 2966  12.404   7.411   5.009
33690SOL    HW1 2967  12.441   7.488   5.052
33690SOL    HW2 2968  12.353   7.445   4.936
33691SOL     OW 2969   9.034  12.451   4.216
33691SOL    HW1 2970   9.124  12.445   4.186
33691SOL    HW2 2971   9.015  12.544   4.219
33692SOL     OW 2972  11.881  12.441  10.821
33692SOL    HW1 2973  11.856  12.359  10.778
33692SOL    HW2 2974  11.819  12.450  10.894
33693SOL     OW 2975  12.357   1.832   1.584
33693SOL    HW1 2976  12.318   1.746   1.571
33693SOL    HW2 2977  12.328   1.883   1.508
33694SOL     OW 2978   1.505   3.714  14.339
33694SOL    HW1 2979   1.453   3.634  14.336
33694SOL    HW2 2980   1.509   3.737  14.432
33695SOL     OW 2981   1.312   6.492   1.872
33695SOL    HW1 2982   1.243   6.514   1.810
33695SOL    HW2 2983   1.265   6.475   1.954
33696SOL     OW 2984   0.209   1.642   5.756
33696SOL    HW1 2985   0.273   1.628   5.825
33696SOL    HW2 2986   0.229   1.730   5.723
33697SOL     OW 2987  14.822  12.271   7.563
33697SOL    HW1 2988  14.765  12.320   7.622
33697SOL    HW2 2989   0.038  12.318   7.566
33698SOL     OW 2990   0.103  10.067   0.572
33698SOL    HW1 2991   0.085  10.150   0.528
33698SOL    HW2 2992   0.036  10.061   0.640
33699SOL     OW 2993   4.346  12.131   0.484
33699SOL    HW1 2994   4.338  12.156   0.392
33699SOL    HW2 2995   4.440  12.133   0.502
33700SOL     OW 2996   4.215   2.657   4.022
33700SOL    HW1 2997   4.298   2.700   4.002
33700SOL    HW2 2998   4.209   2.585   3.960
33701SOL     OW 2999   6.889  12.575   4.499
33701SOL    HW1 3000   6.938  12.494   4.512
33701SOL    HW2 3001   6.798  12.551   4.513
33702SOL     OW 3002  12.958   6.705   4.323
33702SOL    HW1 3003  13.002   6.790   4.331
33702SOL    HW2 3004  12.923   6.688   4.410
33703SOL     OW 3005   5.718   2.750  10.678
33703SOL    HW1 3006   5.624   2.731  10.679
33703SOL    HW2 3007   5.723   2.846  10.681
33704SOL     OW 3008  13.046   4.301   8.926
33704SOL    HW1 3009  12.978   4.286   8.992
33704SOL    HW2 3010  12.998   4.308   8.843
33705SOL     OW 3011   2.592   9.086   0.527
33705SOL    HW1 3012   2.506   9.126   0.535
33705SOL    HW2 3013   2.622   9.072   0.617
33706SOL     OW 3014   6.036  11.990   1.608
33706SOL    HW1 3015   5.949  11.962   1.634
33706SOL    HW2 3016   6.041  12.082   1.635
33707SOL     OW 3017   3.070   5.418  10.760
33707SOL    HW1 3018   3.081   5.432  10.854
33707SOL    HW2 3019   3.144   5.465  10.720
33708SOL     OW 3020  14.008  14.207  11.645
33708SOL    HW1 3021  13.970  14.235  11.729
33708SOL    HW2 3022  14.103  14.217  11.658
33709SOL     OW 3023  11.752  12.806   2.191
33709SOL    HW1 3024  11.733  12.761   2.273
33709SOL    HW2 3025  11.767  12.736   2.127
33710SOL     OW 3026   3.147   5.923   5.761
33710SOL    HW1 3027   3.195   5.845   5.733
33710SOL    HW2 3028   3.102   5.953   5.682
33711SOL     OW 3029   3.817  11.578   7.088
33711SOL    HW1 3030   3.894  11.620   7.127
33711SOL    HW2 3031   3.744  11.634   7.112
33712SOL     OW 3032  14.320  13.931   3.208
33712SOL    HW1 3033  14.334  13.837   3.224
33712SOL    HW2 3034  14.229  13.937   3.181
33713SOL     OW 3035  11.993   5.313   0.554
33713SOL    HW1 3036  11.909   5.299   0.597
33713SOL    HW2 3037  11.980   5.392   0.501
33714SOL     OW 3038  13.218   4.412   7.373
33714SOL    HW1 3039  13.132   4.424   7.334
33714SOL    HW2 3040  13.277   4.399   7.298
33715SOL     OW 3041   1.986   5.896  11.704
33715SOL    HW1 3042   2.032   5.813  11.693
33715SOL    HW2 3043   1.898   5.871  11.733
33716SOL     OW 3044   9.111   0.524   2.912
33716SOL    HW1 3045   9.139   0.432   2.910
33716SOL    HW2 3046   9.094   0.545   2.820
33717SOL     OW 3047  11.625   0.030  14.595
33717SOL    HW1 3048  11.588   0.097  14.652
33717SOL    HW2 3049  11.699   0.073  14.552
33718SOL     OW 3050   7.612  13.650   9.764
33718SOL    HW1 3051   7.651  13.721   9.713
33718SOL    HW2 3052   7.614  13.574   9.706
33719SOL     OW 3053   8.397   5.600   8.416
33719SOL    HW1 3054   8.351   5.684   8.414
33719SOL    HW2 3055   8.474   5.613   8.361
33720SOL     OW 3056   5.593  11.732   9.733
33720SOL    HW1 3057   5.590  11.781   9.815
33720SOL    HW2 3058   5.611  11.642   9.759
33721SOL     OW 3059  13.422   3.579   6.138
33721SOL    HW1 3060  13.390   3.670   6.138
33721SOL    HW2 3061  13.435   3.558   6.046
33722SOL     OW 3062  13.477   5.887  12.620
33722SOL    HW1 3063  13.473   5.963  12.677
33722SOL    HW2 3064  13.411   5.826  12.656
33723SOL     OW 3065   7.723   8.151   1.057
33723SOL    HW1 3066   7.651   8.159   0.994
33723SOL    HW2 3067   7.679   8.130   1.140
33724SOL     OW 3068   6.179  14.203  12.085
33724SOL    HW1 3069   6.137  14.288  12.072
33724SOL    HW2 3070   6.116  14.152  12.135
33725SOL     OW 3071  12.561   3.752   9.474
33725SOL    HW1 3072  12.609   3.832   9.496
33725SOL    HW2 3073  12.470   3.772   9.497
33726SOL     OW 3074   0.631  13.293  11.663
33726SOL    HW1 3075   0.558  13.272  11.720
33726SOL    HW2 3076   0.676  13.210  11.648
33727SOL     OW 3077   3.117   6.723   8.614
33727SOL    HW1 3078   3.205   6.708   8.580
33727SOL    HW2 3079   3.109   6.818   8.621
33728SOL     OW 3080   6.476   7.613   7.940
33728SOL    HW1 3081   6.406   7.549   7.952
33728SOL    HW2 3082   6.431   7.695   7.921
33729SOL     OW 3083   5.299  11.731   5.079
33729SOL    HW1 3084   5.339  11.668   5.139
33729SOL    HW2 3085   5.206  11.729   5.100
33730SOL     OW 3086   3.300   6.156   2.174
33730SOL    HW1 3087   3.279   6.143   2.082
33730SOL    HW2 3088   3.313   6.067   2.208
33731SOL     OW 3089  14.519   5.618  12.556
33731SOL    HW1 3090  14.578   5.554  12.595
33731SOL    HW2 3091  14.557   5.637  12.470
33732SOL     OW 3092  14.604   0.773   5.014
33732SOL    HW1 3093  14.593   0.866   5.036
33732SOL    HW2 3094  14.676   0.744   5.070
33733SOL     OW 3095   7.617   4.910   2.572
33733SOL    HW1 3096   7.686   4.950   2.624
33733SOL    HW2 3097   7.569   4.984   2.535
33734SOL     OW 3098   0.886   7.728   9.685
33734SOL    HW1 3099   0.979   7.710   9.675
33734SOL    HW2 3100   0.882   7.817   9.719
33735SOL     OW 3101   4.237  13.070  11.741
33735SOL    HW1 3102   4.142  13.067  11.751
33735SOL    HW2 3103   4.268  13.121  11.816
33736SOL     OW 3104  14.833   2.047   3.123
33736SOL    HW1 3105   0.047   2.088   3.150
33736SOL    HW2 3106  14.860   1.971   3.071
33737SOL     OW 3107   1.581   7.829   2.355
33737SOL    HW1 3108   1.564   7.878   2.274
33737SOL    HW2 3109   1.674   7.844   2.372
33738SOL     OW 3110   4.030  12.573   9.568
33738SOL    HW1 3111   4.002  12.649   9.517
33738SOL    HW2 3112   3.956  12.512   9.563
33739SOL     OW 3113   0.056   3.245  11.960
33739SOL    HW1 3114   0.109   3.226  12.038
33739SOL    HW2 3115   0.119   3.269  11.893
33740SOL     OW 3116   1.415  12.484   2.259
33740SOL    HW1 3117   1.395  12.428   2.183
33740SOL    HW2 3118   1.493  12.533   2.232
33741SOL     OW 3119   5.023  13.913  13.627
33741SOL    HW1 3120   5.084  13.875  13.691
33741SOL    HW2 3121   5.069  13.908  13.543
33742SOL     OW 3122   0.118   1.205   4.038
33742SOL    HW1 3123   0.028   1.173   4.043
33742SOL    HW2 3124   0.110   1.300   4.035
33743SOL     OW 3125   6.725   4.051   5.070
33743SOL    HW1 3126   6.705   4.135   5.111
33743SOL    HW2 3127   6.819   4.041   5.080
33744SOL     OW 3128   6.803   2.443  14.684
33744SOL    HW1 3129   6.842   2.528  14.665
33744SOL    HW2 3130   6.710   2.455  14.665
33745SOL     OW 3131  13.944   5.503  12.006
33745SOL    HW1 3132  13.886   5.544  11.942
33745SOL    HW2 3133  13.917   5.411  12.007
33746SOL     OW 3134   2.963   1.734  12.790
33746SOL    HW1 3135   2.891   1.784  12.751
33746SOL    HW2 3136   2.943   1.733  12.884
33747SOL     OW 3137   2.903   1.403   5.691
33747SOL    HW1 3138   2.833   1.460   5.721
33747SOL    HW2 3139   2.927   1.351   5.767
33748SOL     OW 3140  14.053  10.114  11.077
33748SOL    HW1 3141  13.974  10.102  11.130
33748SOL    HW2 3142  14.089  10.197  11.107
33749SOL     OW 3143   2.531  12.775   6.791
33749SOL    HW1 3144   2.484  12.841   6.741
33749SOL    HW2 3145   2.579  12.725   6.725
33750SOL     OW 3146   2.960   5.027   3.654
33750SOL    HW1 3147   2.949   4.947   3.706
33750SOL    HW2 3148   2.904   5.091   3.698
33751SOL     OW 3149   7.796  12.697  10.329
33751SOL    HW1 3150   7.774  12.755  10.402
33751SOL    HW2 3151   7.820  12.756  10.258
33752SOL     OW 3152   7.693   1.555   4.422
33752SOL    HW1 3153   7.720   1.598   4.341
33752SOL    HW2 3154   7.749   1.592   4.490
33753SOL     OW 3155   7.626   3.700  14.715
33753SOL    HW1 3156   7.587   3.781  14.682
33753SOL    HW2 3157   7.654   3.722  14.804
33754SOL     OW 3158   0.063   6.552  12.959
33754SOL    HW1 3159   0.080   6.569  13.052
33754SOL    HW2 3160   0.055   6.638  12.919
33755SOL     OW 3161   0.640   9.125   6.636
33755SOL    HW1 3162   0.680   9.072   6.705
33755SOL    HW2 3163   0.546   9.112   6.648
33756SOL     OW 3164  14.827   9.124   8.200
33756SOL    HW1 3165   0.028   9.057   8.199
33756SOL    HW2 3166   0.002   9.203   8.167
33757SOL     OW 3167  10.097   9.202   6.465
33757SOL    HW1 3168  10.122   9.202   6.373
33757SOL    HW2 3169  10.004   9.181   6.465
33758SOL     OW 3170  12.970  13.774   8.745
33758SOL    HW1 3171  12.894  13.784   8.687
33758SOL    HW2 3172  12.950  13.697   8.798
33759SOL     OW 3173  13.978  13.929   0.138
33759SOL    HW1 3174  14.057  13.910   0.087
33759SOL    HW2 3175  13.927  13.848   0.133
33760SOL     OW 3176   0.427   0.395   5.017
33760SOL    HW1 3177   0.495   0.461   5.031
33760SOL    HW2 3178   0.351   0.428   5.065
33761SOL     OW 3179  11.811   3.072   5.602
33761SOL    HW1 3180  11.777   3.000   5.548
33761SOL    HW2 3181  11.741   3.137   5.602
33762SOL     OW 3182  10.515   6.270   0.235
33762SOL    HW1 3183  10.519   6.199   0.299
33762SOL    HW2 3184  10.528   6.226   0.151
33763SOL     OW 3185   3.472  11.636  14.472
33763SOL    HW1 3186   3.427  11.715  14.501
33763SOL    HW2 3187   3.525  11.610  14.547
33764SOL     OW 3188   6.346   4.115  12.959
33764SOL    HW1 3189   6.421   4.082  12.909
33764SOL    HW2 3190   6.276   4.052  12.940
33765SOL     OW 3191  11.792  14.799   0.063
33765SOL    HW1 3192  11.771   0.021   0.089
33765SOL    HW2 3193  11.852  14.809  14.857
33766SOL     OW 3194  13.948   6.631   5.347
33766SOL    HW1 3195  13.960   6.675   5.432
33766SOL    HW2 3196  14.036   6.612   5.317
33767SOL     OW 3197   4.756  10.399  11.585
33767SOL    HW1 3198   4.851  10.412  11.588
33767SOL    HW2 3199   4.726  10.466  11.523
33768SOL     OW 3200  11.338  13.901   0.757
33768SOL    HW1 3201  11.410  13.841   0.775
33768SOL    HW2 3202  11.293  13.862   0.682
33769SOL     OW 3203  13.256  13.167   5.741
33769SOL    HW1 3204  13.191  13.196   5.677
33769SOL    HW2 3205  13.329  13.227   5.729
33770SOL     OW 3206   2.803  14.826  11.270
33770SOL    HW1 3207   2.888  14.858  11.300
33770SOL    HW2 3208   2.824  14.745  11.223
33771SOL     OW 3209   9.248   3.121   7.408
33771SOL    HW1 3210   9.300   3.098   7.485
33771SOL    HW2 3211   9.305   3.178   7.356
33772SOL     OW 3212   3.212   6.645   7.185
33772SOL    HW1 3213   3.293   6.697   7.186
33772SOL    HW2 3214   3.150   6.698   7.134
33773SOL     OW 3215   7.790  13.266   8.280
33773SOL    HW1 3216   7.697  13.284   8.267
33773SOL    HW2 3217   7.807  13.189   8.225
33774SOL     OW 3218   2.282  12.052   8.363
33774SOL    HW1 3219   2.264  12.106   8.440
33774SOL    HW2 3220   2.266  11.962   8.392
33775SOL     OW 3221  13.489  12.565  11.410
33775SOL    HW1 3222  13.467  12.657  11.426
33775SOL    HW2 3223  13.451  12.518  11.485
33776SOL     OW 3224   2.133   7.262   3.645
33776SOL    HW1 3225   2.130   7.328   3.714
33776SOL    HW2 3226   2.163   7.311   3.568
33777SOL     OW 3227  13.012  12.092  10.144
33777SOL    HW1 3228  12.995  12.002  10.173
33777SOL    HW2 3229  12.999  12.145  10.223
33778SOL     OW 3230   4.880  14.060   8.377
33778SOL    HW1 3231   4.803  14.017   8.340
33778SOL    HW2 3232   4.907  14.004   8.449
33779SOL     OW 3233   2.917   5.788   5.867
33779SOL    HW1 3234   2.850   5.796   5.799
33779SOL    HW2 3235   2.985   5.851   5.841
33780SOL     OW 3236  11.417  11.250  12.805
33780SOL    HW1 3237  11.338  11.198  12.787
33780SOL    HW2 3238  11.481  11.219  12.742
33781SOL     OW 3239  14.514  10.527  11.842
33781SOL    HW1 3240  14.574  10.512  11.915
33781SOL    HW2 3241  14.442  10.577  11.879
33782SOL     OW 3242   9.751  12.281  14.483
33782SOL    HW1 3243   9.828  12.297  14.538
33782SOL    HW2 3244   9.688  12.240  14.542
33783SOL     OW 3245   1.303   0.994   6.843
33783SOL    HW1 3246   1.323   0.908   6.880
33783SOL    HW2 3247   1.357   1.055   6.892
33784SOL     OW 3248   0.617   1.945  11.940
33784SOL    HW1 3249   0.673   1.994  11.880
33784SOL    HW2 3250   0.593   1.867  11.891
33785SOL     OW 3251   1.969  14.327   9.169
33785SOL    HW1 3252   1.920  14.258   9.214
33785SOL    HW2 3253   1.901  14.381   9.128
33786SOL     OW 3254  14.777  11.478   8.622
33786SOL    HW1 3255  14.691  11.479   8.580
33786SOL    HW2 3256  14.787  11.565   8.659
33787SOL     OW 3257   5.273  14.088   4.571
33787SOL    HW1 3258   5.206  14.020   4.568
33787SOL    HW2 3259   5.242  14.149   4.638
33788SOL     OW 3260  10.142   0.348   2.375
33788SOL    HW1 3261  10.110   0.271   2.423
33788SOL    HW2 3262  10.236   0.346   2.387
33789SOL     OW 3263   8.674   9.841   6.963
33789SOL    HW1 3264   8.599   9.822   6.907
33789SOL    HW2 3265   8.736   9.886   6.906
33790SOL     OW 3266   1.765   7.391  13.434
33790SOL    HW1 3267   1.789   7.358  13.347
33790SOL    HW2 3268   1.785   7.484  13.431
33791SOL     OW 3269   8.987  12.350  11.269
33791SOL    HW1 3270   9.020  12.322  11.355
33791SOL    HW2 3271   8.893  12.332  11.272
33792SOL     OW 3272   1.573   2.217  10.417
33792SOL    HW1 3273   1.494   2.164  10.410
33792SOL    HW2 3274   1.552   2.282  10.484
33793SOL     OW 3275   1.241   3.802   1.744
33793SOL    HW1 3276   1.152   3.767   1.733
33793SOL    HW2 3277   1.286   3.779   1.662
33794SOL     OW 3278  10.745   9.650  13.711
33794SOL    HW1 3279  10.734   9.582  13.778
33794SOL    HW2 3280  10.699   9.615  13.635
33795SOL     OW 3281   1.826  12.291   1.438
33795SOL    HW1 3282   1.919  12.283   1.458
33795SOL    HW2 3283   1.802  12.207   1.399
33796SOL     OW 3284  11.772   8.047   2.418
33796SOL    HW1 3285  11.735   8.131   2.446
33796SOL    HW2 3286  11.791   8.001   2.500
33797SOL     OW 3287   0.178   9.644   8.206
33797SOL    HW1 3288   0.245   9.680   8.148
33797SOL    HW2 3289   0.149   9.719   8.258
33798SOL     OW 3290   6.032   0.986   0.232
33798SOL    HW1 3291   6.100   0.960   0.170
33798SOL    HW2 3292   6.062   0.950   0.316
33799SOL     OW 3293   8.961   8.306   5.086
33799SOL    HW1 3294   9.023   8.304   5.012
33799SOL    HW2 3295   9.003   8.253   5.154
33800SOL     OW 3296   7.684  14.070   6.698
33800SOL    HW1 3297   7.603  14.119   6.684
33800SOL    HW2 3298   7.671  13.988   6.652
33801SOL     OW 3299   1.469  10.413   3.929
33801SOL    HW1 3300   1.527  10.406   4.004
33801SOL    HW2 3301   1.412  10.337   3.935
33802SOL     OW 3302   3.468   8.464   7.759
33802SOL    HW1 3303   3.377   8.476   7.789
33802SOL    HW2 3304   3.462   8.466   7.664
33803SOL     OW 3305   4.967  12.837   0.912
33803SOL    HW1 3306   4.963  12.762   0.853
33803SOL    HW2 3307   5.033  12.894   0.873
33804SOL     OW 3308  11.853   7.565  13.535
33804SOL    HW1 3309  11.775   7.620  13.547
33804SOL    HW2 3310  11.823   7.476  13.557
33805SOL     OW 3311   8.180  10.151   8.619
33805SOL    HW1 3312   8.137  10.223   8.574
33805SOL    HW2 3313   8.113  10.115   8.677
33806SOL     OW 3314  11.022  10.966  12.590
33806SOL    HW1 3315  10.986  11.028  12.526
33806SOL    HW2 3316  10.952  10.952  12.653
33807SOL     OW 3317  10.381   1.667   6.592
33807SOL    HW1 3318  10.472   1.687   6.614
33807SOL    HW2 3319  10.350   1.745   6.546
33808SOL     OW 3320   9.738   5.827   3.072
33808SOL    HW1 3321   9.801   5.855   3.139
33808SOL    HW2 3322   9.791   5.803   2.996
33809SOL     OW 3323   8.496  10.230  11.164
33809SOL    HW1 3324   8.474  10.286  11.238
33809SOL    HW2 3325   8.473  10.142  11.193
33810SOL     OW 3326   1.015  12.706   5.575
33810SOL    HW1 3327   1.040  12.798   5.585
33810SOL    HW2 3328   1.093  12.664   5.539
33811SOL     OW 3329  10.380  13.964  13.174
33811SOL    HW1 3330  10.324  13.909  13.120
33811SOL    HW2 3331  10.324  14.037  13.201
33812SOL     OW 3332  14.296  13.976   0.362
33812SOL    HW1 3333  14.337  14.006   0.281
33812SOL    HW2 3334  14.272  13.885   0.344
33813SOL     OW 3335   5.328   1.949  12.156
33813SOL    HW1 3336   5.267   1.926  12.085
33813SOL    HW2 3337   5.315   1.881  12.222
33814SOL     OW 3338   9.078   4.912  12.367
33814SOL    HW1 3339   9.083   4.816  12.364
33814SOL    HW2 3340   9.164   4.941  12.340
33815SOL     OW 3341   0.616   6.493   1.333
33815SOL    HW1 3342   0.586   6.577   1.298
33815SOL    HW2 3343   0.536   6.449   1.360
33816SOL     OW 3344   4.480  11.921   5.591
33816SOL    HW1 3345   4.536  11.856   5.549
33816SOL    HW2 3346   4.455  11.980   5.519
33817SOL     OW 3347   7.790   3.941   6.329
33817SOL    HW1 3348   7.854   3.875   6.304
33817SOL    HW2 3349   7.842   4.020   6.346
33818SOL     OW 3350   4.831  12.658   3.452
33818SOL    HW1 3351   4.747  12.624   3.480
33818SOL    HW2 3352   4.812  12.745   3.417
33819SOL     OW 3353   9.916   6.518  11.587
33819SOL    HW1 3354   9.826   6.542  11.564
33819SOL    HW2 3355   9.925   6.426  11.560
33820SOL     OW 3356  14.299   2.747   0.222
33820SOL    HW1 3357  14.349   2.772   0.300
33820SOL    HW2 3358  14.328   2.657   0.204
33821SOL     OW 3359  12.383  13.364   9.113
33821SOL    HW1 3360  12.450  13.372   9.181
33821SOL    HW2 3361  12.402  13.436   9.052
33822SOL     OW 3362   0.895   2.490   7.194
33822SOL    HW1 3363   0.821   2.503   7.135
33822SOL    HW2 3364   0.961   2.446   7.141
33823SOL     OW 3365   0.463   7.924   8.824
33823SOL    HW1 3366   0.523   7.951   8.754
33823SOL    HW2 3367   0.518   7.874   8.884
33824SOL     OW 3368   8.787  11.027   0.858
33824SOL    HW1 3369   8.774  11.118   0.829
33824SOL    HW2 3370   8.700  10.997   0.882
33825SOL     OW 3371   7.540  11.688   9.067
33825SOL    HW1 3372   7.602  11.615   9.065
33825SOL    HW2 3373   7.515  11.701   8.976
33826SOL     OW 3374   8.024   9.537  12.266
33826SOL    HW1 3375   7.973   9.558  12.344
33826SOL    HW2 3376   8.038   9.443  12.271
33827SOL     OW 3377   5.559  10.205   6.260
33827SOL    HW1 3378   5.607  10.130   6.226
33827SOL    HW2 3379   5.591  10.215   6.350
33828SOL     OW 3380  11.047  13.961   9.566
33828SOL    HW1 3381  11.129  14.010   9.560
33828SOL    HW2 3382  11.069  13.886   9.622
33829SOL     OW 3383   5.696  12.543   0.421
33829SOL    HW1 3384   5.775  12.488   0.421
33829SOL    HW2 3385   5.730  12.633   0.417
33830SOL     OW 3386  14.320   9.887   7.979
33830SOL    HW1 3387  14.348   9.921   7.893
33830SOL    HW2 3388  14.320   9.792   7.968
33831SOL     OW 3389   7.242  13.214   3.476
33831SOL    HW1 3390   7.264  13.231   3.567
33831SOL    HW2 3391   7.308  13.263   3.426
33832SOL     OW 3392  12.527   3.511   7.342
33832SOL    HW1 3393  12.490   3.437   7.390
33832SOL    HW2 3394  12.620   3.492   7.336
33833SOL     OW 3395   8.286  10.729   6.058
33833SOL    HW1 3396   8.284  10.790   6.131
33833SOL    HW2 3397   8.222  10.661   6.081
33834SOL     OW 3398  11.945  12.753   4.078
33834SOL    HW1 3399  12.037  12.777   4.067
33834SOL    HW2 3400  11.898  12.836   4.076
33835SOL     OW 3401   5.380   5.756   6.850
33835SOL    HW1 3402   5.363   5.847   6.872
33835SOL    HW2 3403   5.294   5.719   6.830
33836SOL     OW 3404  11.556   5.397   6.265
33836SOL    HW1 3405  11.514   5.438   6.341
33836SOL    HW2 3406  11.587   5.471   6.212
33837SOL     OW 3407   0.737  11.988   1.201
33837SOL    HW1 3408   0.789  11.926   1.253
33837SOL    HW2 3409   0.768  12.074   1.228
33838SOL     OW 3410   0.257   8.986   2.512
33838SOL    HW1 3411   0.269   8.906   2.461
33838SOL    HW2 3412   0.249   8.955   2.603
33839SOL     OW 3413   3.886  14.279   1.112
33839SOL    HW1 3414   3.811  14.229   1.080
33839SOL    HW2 3415   3.850  14.337   1.178
33840SOL     OW 3416   3.754  10.179   5.183
33840SOL    HW1 3417   3.829  10.193   5.126
33840SOL    HW2 3418   3.765  10.090   5.216
33841SOL     OW 3419   7.236   2.242   1.257
33841SOL    HW1 3420   7.160   2.296   1.275
33841SOL    HW2 3421   7.232   2.171   1.321
33842SOL     OW 3422   2.015  12.735   4.184
33842SOL    HW1 3423   2.038  12.823   4.154
33842SOL    HW2 3424   2.093  12.705   4.232
33843SOL     OW 3425   9.649  12.405   7.324
33843SOL    HW1 3426   9.683  12.317   7.342
33843SOL    HW2 3427   9.696  12.432   7.245
33844SOL     OW 3428   1.536  14.525  13.116
33844SOL    HW1 3429   1.543  14.561  13.204
33844SOL    HW2 3430   1.533  14.602  13.059
33845SOL     OW 3431  12.526  14.042   1.147
33845SOL    HW1 3432  12.518  14.136   1.129
33845SOL    HW2 3433  12.438  14.008   1.132
33846SOL     OW 3434   9.724   7.120   6.674
33846SOL    HW1 3435   9.737   7.096   6.582
33846SOL    HW2 3436   9.809   7.105   6.715
33847SOL     OW 3437   1.388   0.961  13.705
33847SOL    HW1 3438   1.481   0.944  13.696
33847SOL    HW2 3439   1.346   0.887  13.660
33848SOL     OW 3440  12.324   6.639   2.408
33848SOL    HW1 3441  12.346   6.639   2.315
33848SOL    HW2 3442  12.317   6.546   2.431
33849SOL     OW 3443  14.730   8.346   4.758
33849SOL    HW1 3444  14.790   8.331   4.685
33849SOL    HW2 3445  14.643   8.326   4.721
33850SOL     OW 3446   8.627  14.330  14.320
33850SOL    HW1 3447   8.659  14.244  14.295
33850SOL    HW2 3448   8.574  14.315  14.398
33851SOL     OW 3449   9.676  13.604  12.135
33851SOL    HW1 3450   9.676  13.525  12.189
33851SOL    HW2 3451   9.736  13.664  12.179
33852SOL     OW 3452   3.481   2.250   5.570
33852SOL    HW1 3453   3.438   2.309   5.631
33852SOL    HW2 3454   3.563   2.294   5.548
33853SOL     OW 3455   5.542   1.462   8.221
33853SOL    HW1 3456   5.598   1.518   8.167
33853SOL    HW2 3457   5.600   1.392   8.252
33854SOL     OW 3458   6.640   3.838   1.752
33854SOL    HW1 3459   6.661   3.789   1.673
33854SOL    HW2 3460   6.702   3.805   1.818
33855SOL     OW 3461   2.921   0.203   4.844
33855SOL    HW1 3462   2.835   0.228   4.813
33855SOL    HW2 3463   2.927   0.109   4.825
33856SOL     OW 3464   3.178   6.644   1.767
33856SOL    HW1 3465   3.103   6.683   1.811
33856SOL    HW2 3466   3.177   6.681   1.679
33857SOL     OW 3467   7.277   5.185  12.850
33857SOL    HW1 3468   7.316   5.227  12.927
33857SOL    HW2 3469   7.250   5.099  12.881
33858SOL     OW 3470   8.569  14.381   2.698
33858SOL    HW1 3471   8.504  14.318   2.729
33858SOL    HW2 3472   8.517  14.452   2.660
33859SOL     OW 3473   2.987   9.296   4.197
33859SOL    HW1 3474   2.946   9.274   4.112
33859SOL    HW2 3475   3.069   9.247   4.197
33860SOL     OW 3476   7.868   0.589  10.915
33860SOL    HW1 3477   7.791   0.639  10.889
33860SOL    HW2 3478   7.901   0.550  10.834
33861SOL     OW 3479   1.062  14.143   2.091
33861SOL    HW1 3480   1.111  14.123   2.171
33861SOL    HW2 3481   0.993  14.077   2.089
33862SOL     OW 3482   6.274  10.045   0.080
33862SOL    HW1 3483   6.264   9.953   0.056
33862SOL    HW2 3484   6.225  10.054   0.162
33863SOL     OW 3485   7.505   8.363   5.496
33863SOL    HW1 3486   7.564   8.377   5.423
33863SOL    HW2 3487   7.499   8.449   5.539
33864SOL     OW 3488   9.711   5.435   1.792
33864SOL    HW1 3489   9.753   5.488   1.723
33864SOL    HW2 3490   9.633   5.484   1.816
33865SOL     OW 3491  11.217  11.579  11.566
33865SOL    HW1 3492  11.174  11.585  11.652
33865SOL    HW2 3493  11.309  11.567  11.586
33866SOL     OW 3494   3.898   7.209   4.337
33866SOL    HW1 3495   3.988   7.177   4.344
33866SOL    HW2 3496   3.902   7.274   4.266
33867SOL     OW 3497  12.451   1.984   8.282
33867SOL    HW1 3498  12.521   1.991   8.217
33867SOL    HW2 3499  12.450   1.891   8.306
33868SOL     OW 3500  11.535   0.846   7.609
33868SOL    HW1 3501  11.477   0.911   7.569
33868SOL    HW2 3502  11.621   0.889   7.612
33869SOL     OW 3503  13.968  11.681   4.451
33869SOL    HW1 3504  14.007  11.606   4.494
33869SOL    HW2 3505  13.879  11.653   4.429
33870SOL     OW 3506   6.960   4.533  14.018
33870SOL    HW1 3507   6.951   4.511  14.111
33870SOL    HW2 3508   6.913   4.616  14.008
33871SOL     OW 3509   8.684   7.378  13.595
33871SOL    HW1 3510   8.621   7.307  13.605
33871SOL    HW2 3511   8.631   7.456  13.579
33872SOL     OW 3512   0.993   8.173   1.162
33872SOL    HW1 3513   1.045   8.221   1.098
33872SOL    HW2 3514   1.056   8.143   1.228
33873SOL     OW 3515   3.831  10.950   1.841
33873SOL    HW1 3516   3.851  10.921   1.752
33873SOL    HW2 3517   3.745  10.912   1.861
33874SOL     OW 3518   9.292  10.040   0.176
33874SOL    HW1 3519   9.240  10.076   0.104
33874SOL    HW2 3520   9.339   9.966   0.138
33875SOL     OW 3521   6.958   5.461   0.866
33875SOL    HW1 3522   7.046   5.477   0.901
33875SOL    HW2 3523   6.903   5.528   0.908
33876SOL     OW 3524  11.208  13.653   0.088
33876SOL    HW1 3525  11.129  13.620   0.131
33876SOL    HW2 3526  11.197  13.630  14.864
33877SOL     OW 3527  10.124   3.122   9.106
33877SOL    HW1 3528  10.151   3.152   9.192
33877SOL    HW2 3529  10.184   3.165   9.045
33878SOL     OW 3530  12.768   3.200  10.952
33878SOL    HW1 3531  12.701   3.154  11.003
33878SOL    HW2 3532  12.851   3.172  10.991
33879SOL     OW 3533   3.155   2.982   5.483
33879SOL    HW1 3534   3.247   3.008   5.475
33879SOL    HW2 3535   3.109   3.063   5.504
33880SOL     OW 3536  14.777   6.032   3.145
33880SOL    HW1 3537  14.695   5.982   3.136
33880SOL    HW2 3538  14.794   6.032   3.239
33881SOL     OW 3539   0.893  11.473   7.715
33881SOL    HW1 3540   0.833  11.423   7.660
33881SOL    HW2 3541   0.973  11.479   7.664
33882SOL     OW 3542   2.246   3.654  12.566
33882SOL    HW1 3543   2.256   3.653  12.661
33882SOL    HW2 3544   2.311   3.591  12.535
33883SOL     OW 3545   5.054  10.423   4.557
33883SOL    HW1 3546   5.044  10.430   4.652
33883SOL    HW2 3547   4.969  10.393   4.526
33884SOL     OW 3548  13.885   9.628   8.775
33884SOL    HW1 3549  13.963   9.577   8.797
33884SOL    HW2 3550  13.821   9.606   8.842
33885SOL     OW 3551   0.951  13.842  11.067
33885SOL    HW1 3552   0.991  13.777  11.125
33885SOL    HW2 3553   0.918  13.791  10.993
33886SOL     OW 3554   7.012   8.815   3.639
33886SOL    HW1 3555   7.053   8.901   3.634
33886SOL    HW2 3556   6.976   8.810   3.727
33887SOL     OW 3557   7.389   0.612  12.204
33887SOL    HW1 3558   7.311   0.609  12.149
33887SOL    HW2 3559   7.456   0.652  12.149
33888SOL     OW 3560   9.861  12.760   4.091
33888SOL    HW1 3561   9.857  12.668   4.064
33888SOL    HW2 3562   9.789  12.769   4.154
33889SOL     OW 3563   7.556   0.104   9.066
33889SOL    HW1 3564   7.574   0.104   8.972
33889SOL    HW2 3565   7.468   0.067   9.074
33890SOL     OW 3566  12.304   7.834   1.181
33890SOL    HW1 3567  12.352   7.803   1.105
33890SOL    HW2 3568  12.285   7.756   1.232
33891SOL     OW 3569   3.071   0.077  13.787
33891SOL    HW1 3570   3.046  14.856  13.760
33891SOL    HW2 3571   3.067   0.128  13.706
33892SOL     OW 3572  12.718   7.691   6.572
33892SOL    HW1 3573  12.688   7.769   6.525
33892SOL    HW2 3574  12.804   7.671   6.534
33893SOL     OW 3575   2.644  11.445   2.540
33893SOL    HW1 3576   2.645  11.534   2.504
33893SOL    HW2 3577   2.696  11.451   2.620
33894SOL     OW 3578  10.750   7.528  14.427
33894SOL    HW1 3579  10.675   7.476  14.457
33894SOL    HW2 3580  10.790   7.559  14.508
33895SOL     OW 3581  11.147   2.180  10.411
33895SOL    HW1 3582  11.135   2.116  10.341
33895SOL    HW2 3583  11.234   2.218  10.396
33896SOL     OW 3584   6.502  11.043  13.755
33896SOL    HW1 3585   6.446  11.118  13.774
33896SOL    HW2 3586   6.567  11.077  13.693
33897SOL     OW 3587  14.753  14.315  10.234
33897SOL    HW1 3588  14.704  14.391  10.201
33897SOL    HW2 3589  14.690  14.269  10.289
33898SOL     OW 3590   0.728   3.334   7.591
33898SOL    HW1 3591   0.659   3.280   7.553
33898SOL    HW2 3592   0.772   3.374   7.515
33899SOL     OW 3593   0.411   7.374  10.924
33899SOL    HW1 3594   0.409   7.433  10.999
33899SOL    HW2 3595   0.498   7.335  10.926
33900SOL     OW 3596   7.887   7.120  14.648
33900SOL    HW1 3597   7.828   7.170  14.705
33900SOL    HW2 3598   7.884   7.031  14.683
33901SOL     OW 3599   4.697   2.077   2.603
33901SOL    HW1 3600   4.655   2.041   2.525
33901SOL    HW2 3601   4.669   2.168   2.606
33902SOL     OW 3602   4.465  12.326  13.184
33902SOL    HW1 3603   4.456  12.258  13.117
33902SOL    HW2 3604   4.557  12.320  13.212
33903SOL     OW 3605   4.898   1.954   9.620
33903SOL    HW1 3606   4.880   2.038   9.663
33903SOL    HW2 3607   4.813   1.912   9.613
33904SOL     OW 3608   0.418   6.137   9.488
33904SOL    HW1 3609   0.394   6.045   9.493
33904SOL    HW2 3610   0.498   6.138   9.434
33905SOL     OW 3611  10.335   7.513   2.347
33905SOL    HW1 3612  10.337   7.540   2.255
33905SOL    HW2 3613  10.248   7.475   2.359
33906SOL     OW 3614  14.073   8.653  12.845
33906SOL    HW1 3615  13.983   8.661  12.815
33906SOL    HW2 3616  14.111   8.739  12.831
33907SOL     OW 3617  12.436   7.536   3.954
33907SOL    HW1 3618  12.378   7.610   3.973
33907SOL    HW2 3619  12.393   7.489   3.883
33908SOL     OW 3620   7.257   2.223   7.880
33908SOL    HW1 3621   7.193   2.214   7.950
33908SOL    HW2 3622   7.243   2.146   7.824
33909SOL     OW 3623   6.370   9.118   9.999
33909SOL    HW1 3624   6.415   9.190  10.043
33909SOL    HW2 3625   6.439   9.054   9.981
33910SOL     OW 3626   4.504   8.143   0.717
33910SOL    HW1 3627   4.433   8.080   0.707
33910SOL    HW2 3628   4.535   8.131   0.807
33911SOL     OW 3629  13.245   9.206   8.080
33911SOL    HW1 3630  13.220   9.139   8.144
33911SOL    HW2 3631  13.182   9.194   8.008
33912SOL     OW 3632   6.186   4.369   2.272
33912SOL    HW1 3633   6.236   4.324   2.340
33912SOL    HW2 3634   6.217   4.330   2.190
33913SOL     OW 3635   0.634   3.117   1.798
33913SOL    HW1 3636   0.604   3.206   1.777
33913SOL    HW2 3637   0.593   3.062   1.731
33914SOL     OW 3638  10.273   7.575   3.596
33914SOL    HW1 3639  10.180   7.562   3.614
33914SOL    HW2 3640  10.315   7.493   3.624
33915SOL     OW 3641   5.273   5.179   2.907
33915SOL    HW1 3642   5.269   5.206   2.998
33915SOL    HW2 3643   5.256   5.259   2.857
33916SOL     OW 3644  12.562   5.860   7.632
33916SOL    HW1 3645  12.555   5.858   7.727
33916SOL    HW2 3646  12.651   5.893   7.615
33917SOL     OW 3647  11.800  12.683  13.432
33917SOL    HW1 3648  11.728  12.653  13.377
33917SOL    HW2 3649  11.864  12.611  13.429
33918SOL     OW 3650   9.616   3.106  10.068
33918SOL    HW1 3651   9.638   3.166  10.138
33918SOL    HW2 3652   9.675   3.031  10.079
33919SOL     OW 3653   1.436   8.529  13.027
33919SOL    HW1 3654   1.381   8.608  13.020
33919SOL    HW2 3655   1.476   8.520  12.941
33920SOL     OW 3656  14.263   7.245   3.946
33920SOL    HW1 3657  14.330   7.228   3.881
33920SOL    HW2 3658  14.180   7.234   3.899
33921SOL     OW 3659   0.613  10.181   9.336
33921SOL    HW1 3660   0.657  10.095   9.336
33921SOL    HW2 3661   0.613  10.207   9.429
33922SOL     OW 3662   1.716   4.238   4.423
33922SOL    HW1 3663   1.805   4.221   4.455
33922SOL    HW2 3664   1.660   4.192   4.485
33923SOL     OW 3665  12.533   5.507   2.251
33923SOL    HW1 3666  12.544   5.566   2.326
33923SOL    HW2 3667  12.531   5.419   2.290
33924SOL     OW 3668   2.092   2.450   6.952
33924SOL    HW1 3669   2.053   2.444   7.039
33924SOL    HW2 3670   2.179   2.411   6.961
33925SOL     OW 3671   5.327   3.285   4.277
33925SOL    HW1 3672   5.255   3.263   4.217
33925SOL    HW2 3673   5.395   3.221   4.256
33926SOL     OW 3674   0.339  11.847   8.891
33926SOL    HW1 3675   0.354  11.816   8.980
33926SOL    HW2 3676   0.265  11.907   8.899
33927SOL     OW 3677   0.866   3.319   3.901
33927SOL    HW1 3678   0.949   3.330   3.947
33927SOL    HW2 3679   0.871   3.380   3.827
33928SOL     OW 3680  13.238   0.797   3.560
33928SOL    HW1 3681  13.281   0.877   3.528
33928SOL    HW2 3682  13.278   0.781   3.646
33929SOL     OW 3683  14.336   9.528   2.787
33929SOL    HW1 3684  14.307   9.533   2.878
33929SOL    HW2 3685  14.420   9.573   2.786
33930SOL     OW 3686   0.181   9.160  13.933
33930SOL    HW1 3687   0.089   9.186  13.931
33930SOL    HW2 3688   0.180   9.066  13.947
33931SOL     OW 3689   7.843  13.676   3.533
33931SOL    HW1 3690   7.855  13.584   3.510
33931SOL    HW2 3691   7.775  13.675   3.601
33932SOL     OW 3692   8.991   2.475  11.526
33932SOL    HW1 3693   8.950   2.537  11.587
33932SOL    HW2 3694   8.986   2.519  11.441
33933SOL     OW 3695   4.203   3.463  14.057
33933SOL    HW1 3696   4.296   3.450  14.041
33933SOL    HW2 3697   4.191   3.435  14.148
33934SOL     OW 3698   4.823  10.193  14.632
33934SOL    HW1 3699   4.788  10.255  14.696
33934SOL    HW2 3700   4.765  10.202  14.556
33935SOL     OW 3701   8.203  10.037  14.616
33935SOL    HW1 3702   8.108  10.049  14.606
33935SOL    HW2 3703   8.213   9.997  14.702
33936SOL     OW 3704   6.010   0.095   9.534
33936SOL    HW1 3705   5.978   0.161   9.596
33936SOL    HW2 3706   6.010   0.013   9.584
33937SOL     OW 3707   0.444   6.325   8.186
33937SOL    HW1 3708   0.356   6.337   8.151
33937SOL    HW2 3709   0.500   6.320   8.108
33938SOL     OW 3710  13.189   3.580  14.087
33938SOL    HW1 3711  13.137   3.535  14.154
33938SOL    HW2 3712  13.257   3.516  14.064
33939SOL     OW 3713   5.701  13.923  10.724
33939SOL    HW1 3714   5.665  13.966  10.802
33939SOL    HW2 3715   5.635  13.860  10.698
33940SOL     OW 3716  11.876  13.415   3.208
33940SOL    HW1 3717  11.781  13.424   3.202
33940SOL    HW2 3718  11.893  13.411   3.302
33941SOL     OW 3719   4.336   3.209   1.649
33941SOL    HW1 3720   4.369   3.255   1.572
33941SOL    HW2 3721   4.372   3.257   1.724
33942SOL     OW 3722   8.732   1.059   0.643
33942SOL    HW1 3723   8.806   1.117   0.623
33942SOL    HW2 3724   8.766   0.971   0.631
33943SOL     OW 3725   9.817   9.650   5.344
33943SOL    HW1 3726   9.815   9.732   5.394
33943SOL    HW2 3727   9.744   9.658   5.282
33944SOL     OW 3728   2.853   3.225  11.283
33944SOL    HW1 3729   2.776   3.275  11.255
33944SOL    HW2 3730   2.861   3.245  11.376
33945SOL     OW 3731   6.511  10.652  12.511
33945SOL    HW1 3732   6.548  10.608  12.435
33945SOL    HW2 3733   6.578  10.643  12.579
33946SOL     OW 3734   5.311  13.346   0.133
33946SOL    HW1 3735   5.381  13.290   0.101
33946SOL    HW2 3736   5.323  13.428   0.085
33947SOL     OW 3737  13.764   6.877   4.745
33947SOL    HW1 3738  13.745   6.821   4.820
33947SOL    HW2 3739  13.756   6.966   4.779
33948SOL     OW 3740   6.335   3.687  14.488
33948SOL    HW1 3741   6.373   3.655  14.570
33948SOL    HW2 3742   6.367   3.627  14.421
33949SOL     OW 3743   5.870   6.974   9.450
33949SOL    HW1 3744   5.907   6.890   9.426
33949SOL    HW2 3745   5.946   7.030   9.468
33950SOL     OW 3746  12.715  10.419  10.147
33950SOL    HW1 3747  12.661  10.401  10.224
33950SOL    HW2 3748  12.735  10.333  10.110
33951SOL     OW 3749   9.810   0.668  10.624
33951SOL    HW1 3750   9.767   0.586  10.600
33951SOL    HW2 3751   9.883   0.676  10.562
33952SOL     OW 3752   8.182  13.515   4.745
33952SOL    HW1 3753   8.203  13.608   4.743
33952SOL    HW2 3754   8.139  13.498   4.662
33953SOL     OW 3755  10.076   0.591   2.604
33953SOL    HW1 3756  10.157   0.636   2.577
33953SOL    HW2 3757  10.089   0.500   2.578
33954SOL     OW 3758   6.786  13.705  11.018
33954SOL    HW1 3759   6.822  13.718  10.931
33954SOL    HW2 3760   6.692  13.722  11.009
33955SOL     OW 3761  14.085   0.694  14.226
33955SOL    HW1 3762  14.102   0.788  14.214
33955SOL    HW2 3763  14.053   0.687  14.316
33956SOL     OW 3764  10.045  12.526   0.243
33956SOL    HW1 3765   9.996  12.517   0.162
33956SOL    HW2 3766  10.137  12.528   0.216
33957SOL     OW 3767   0.456   5.959  12.755
33957SOL    HW1 3768   0.491   5.957  12.666
33957SOL    HW2 3769   0.383   6.020  12.751
33958SOL     OW 3770   7.644   9.239   4.478
33958SOL    HW1 3771   7.566   9.292   4.462
33958SOL    HW2 3772   7.690   9.286   4.548
33959SOL     OW 3773  13.884   4.624   1.568
33959SOL    HW1 3774  13.900   4.531   1.581
33959SOL    HW2 3775  13.789   4.631   1.558
33960SOL     OW 3776   6.935   7.660   3.242
33960SOL    HW1 3777   6.841   7.666   3.259
33960SOL    HW2 3778   6.952   7.730   3.179
33961SOL     OW 3779   4.432   0.188   3.211
33961SOL    HW1 3780   4.367   0.167   3.144
33961SOL    HW2 3781   4.511   0.211   3.161
33962SOL     OW 3782  12.931   6.824   5.993
33962SOL    HW1 3783  12.950   6.911   5.959
33962SOL    HW2 3784  12.845   6.833   6.035
33963SOL     OW 3785   9.268   7.278   9.364
33963SOL    HW1 3786   9.338   7.340   9.346
33963SOL    HW2 3787   9.266   7.221   9.287
33964SOL     OW 3788   3.520   2.786  11.266
33964SOL    HW1 3789   3.510   2.709  11.322
33964SOL    HW2 3790   3.527   2.751  11.177
33965SOL     OW 3791  13.983   9.632  12.257
33965SOL    HW1 3792  13.920   9.567  12.225
33965SOL    HW2 3793  13.941   9.716  12.241
33966SOL     OW 3794   4.324   1.393   9.990
33966SOL    HW1 3795   4.403   1.405  10.041
33966SOL    HW2 3796   4.320   1.299   9.974
33967SOL     OW 3797   0.351   1.409   1.882
33967SOL    HW1 3798   0.294   1.407   1.806
33967SOL    HW2 3799   0.292   1.421   1.957
33968SOL     OW 3800  12.229   5.202   2.333
33968SOL    HW1 3801  12.164   5.133   2.346
33968SOL    HW2 3802  12.178   5.281   2.317
33969SOL     OW 3803   8.694   7.521   8.515
33969SOL    HW1 3804   8.713   7.557   8.601
33969SOL    HW2 3805   8.749   7.572   8.455
33970SOL     OW 3806   7.646  13.633  13.140
33970SOL    HW1 3807   7.737  13.660  13.128
33970SOL    HW2 3808   7.649  13.572  13.214
33971SOL     OW 3809  11.841   0.218   3.007
33971SOL    HW1 3810  11.899   0.224   2.932
33971SOL    HW2 3811  11.897   0.238   3.082
33972SOL     OW 3812   1.590  10.949  14.344
33972SOL    HW1 3813   1.510  10.934  14.293
33972SOL    HW2 3814   1.659  10.957  14.278
33973SOL     OW 3815   9.640  13.965   1.051
33973SOL    HW1 3816   9.703  13.986   1.120
33973SOL    HW2 3817   9.674  13.886   1.009
33974SOL     OW 3818  11.760   9.170   6.994
33974SOL    HW1 3819  11.719   9.233   6.934
33974SOL    HW2 3820  11.839   9.141   6.949
33975SOL     OW 3821   9.152   6.908  13.523
33975SOL    HW1 3822   9.129   6.843  13.456
33975SOL    HW2 3823   9.100   6.985  13.500
33976SOL     OW 3824   3.182   1.094   3.764
33976SOL    HW1 3825   3.208   1.167   3.707
33976SOL    HW2 3826   3.087   1.097   3.765
33977SOL     OW 3827   3.620  12.720   8.418
33977SOL    HW1 3828   3.710  12.692   8.435
33977SOL    HW2 3829   3.567  12.666   8.476
33978SOL     OW 3830   8.777   3.107  13.403
33978SOL    HW1 3831   8.828   3.172  13.452
33978SOL    HW2 3832   8.843   3.051  13.363
33979SOL     OW 3833  12.407   1.458   8.774
33979SOL    HW1 3834  12.338   1.518   8.800
33979SOL    HW2 3835  12.422   1.403   8.850
33980SOL     OW 3836   8.019   1.175   9.551
33980SOL    HW1 3837   8.087   1.114   9.523
33980SOL    HW2 3838   8.046   1.203   9.638
33981SOL     OW 3839   1.956   0.051  13.557
33981SOL    HW1 3840   1.861   0.054  13.553
33981SOL    HW2 3841   1.976  14.864  13.633
33982SOL     OW 3842  14.670  10.552   3.534
33982SOL    HW1 3843  14.634  10.463   3.543
33982SOL    HW2 3844  14.656  10.592   3.620
33983SOL     OW 3845  11.314  14.306   3.250
33983SOL    HW1 3846  11.381  14.372   3.234
33983SOL    HW2 3847  11.347  14.227   3.208
33984SOL     OW 3848   5.831   7.375   0.798
33984SOL    HW1 3849   5.879   7.423   0.731
33984SOL    HW2 3850   5.772   7.317   0.748
33985SOL     OW 3851   9.244  13.586   2.166
33985SOL    HW1 3852   9.170  13.610   2.222
33985SOL    HW2 3853   9.237  13.644   2.090
33986SOL     OW 3854   7.532  12.965   9.639
33986SOL    HW1 3855   7.619  12.953   9.676
33986SOL    HW2 3856   7.515  13.059   9.648
33987SOL     OW 3857   5.193   0.336   8.172
33987SOL    HW1 3858   5.112   0.371   8.134
33987SOL    HW2 3859   5.252   0.412   8.175
33988SOL     OW 3860   1.968  10.015  10.005
33988SOL    HW1 3861   1.959  10.047  10.094
33988SOL    HW2 3862   1.889   9.963   9.989
33989SOL     OW 3863   1.550   7.926   8.231
33989SOL    HW1 3864   1.566   7.900   8.140
33989SOL    HW2 3865   1.527   8.019   8.226
33990SOL     OW 3866  10.326   7.866   6.728
33990SOL    HW1 3867  10.325   7.962   6.727
33990SOL    HW2 3868  10.236   7.842   6.752
33991SOL     OW 3869  10.368   3.426   9.230
33991SOL    HW1 3870  10.342   3.512   9.262
33991SOL    HW2 3871  10.425   3.444   9.155
33992SOL     OW 3872   8.521   0.860   0.436
33992SOL    HW1 3873   8.452   0.876   0.371
33992SOL    HW2 3874   8.595   0.911   0.405
33993SOL     OW 3875  12.853   2.043   9.628
33993SOL    HW1 3876  12.790   2.082   9.688
33993SOL    HW2 3877  12.937   2.081   9.653
33994SOL     OW 3878   8.899   0.663  12.726
33994SOL    HW1 3879   8.869   0.611  12.800
33994SOL    HW2 3880   8.908   0.599  12.655
33995SOL     OW 3881   7.333   7.688   3.886
33995SOL    HW1 3882   7.325   7.723   3.975
33995SOL    HW2 3883   7.371   7.601   3.898
33996SOL     OW 3884   2.978   8.528   1.720
33996SOL    HW1 3885   2.927   8.478   1.784
33996SOL    HW2 3886   3.065   8.487   1.721
33997SOL     OW 3887   5.143   0.044   8.286
33997SOL    HW1 3888   5.145   0.133   8.253
33997SOL    HW2 3889   5.104  14.860   8.215
33998SOL     OW 3890   1.255  12.193   0.928
33998SOL    HW1 3891   1.178  12.137   0.933
33998SOL    HW2 3892   1.266  12.212   0.835
33999SOL     OW 3893  13.179   8.464  11.883
33999SOL    HW1 3894  13.097   8.457  11.835
33999SOL    HW2 3895  13.192   8.559  11.894
34000SOL     OW 3896  12.630  10.014  10.079
34000SOL    HW1 3897  12.671  10.078  10.021
34000SOL    HW2 3898  12.568  10.065  10.131
34001SOL     OW 3899   9.173  13.031  10.166
34001SOL    HW1 3900   9.158  13.034  10.071
34001SOL    HW2 3901   9.207  12.944  10.182
34002SOL     OW 3902   1.153   9.569  10.793
34002SOL    HW1 3903   1.141   9.478  10.768
34002SOL    HW2 3904   1.072   9.592  10.838
34003SOL     OW 3905  13.811   5.257   7.082
34003SOL    HW1 3906  13.877   5.300   7.029
34003SOL    HW2 3907  13.740   5.321   7.089
34004SOL     OW 3908  11.414   1.477   9.647
34004SOL    HW1 3909  11.487   1.509   9.594
34004SOL    HW2 3910  11.346   1.542   9.636
34005SOL     OW 3911   6.631   4.896   3.410
34005SOL    HW1 3912   6.558   4.958   3.412
34005SOL    HW2 3913   6.692   4.928   3.476
34006SOL     OW 3914  11.754   5.893   7.448
34006SOL    HW1 3915  11.665   5.863   7.465
34006SOL    HW2 3916  11.778   5.941   7.527
34007SOL     OW 3917   8.747   4.811   8.286
34007SOL    HW1 3918   8.770   4.866   8.211
34007SOL    HW2 3919   8.831   4.788   8.325
34008SOL     OW 3920   1.275   6.106  14.242
34008SOL    HW1 3921   1.217   6.083  14.315
34008SOL    HW2 3922   1.215   6.119  14.168
34009SOL     OW 3923   2.464   4.913   4.540
34009SOL    HW1 3924   2.391   4.966   4.573
34009SOL    HW2 3925   2.425   4.827   4.524
34010SOL     OW 3926   8.013   5.348  10.268
34010SOL    HW1 3927   8.060   5.337  10.186
34010SOL    HW2 3928   8.040   5.433  10.301
34011SOL     OW 3929   5.966  12.695  13.928
34011SOL    HW1 3930   6.054  12.681  13.893
34011SOL    HW2 3931   5.916  12.620  13.896
34012SOL     OW 3932   6.464   9.125  11.749
34012SOL    HW1 3933   6.442   9.054  11.809
34012SOL    HW2 3934   6.558   9.113  11.732
34013SOL     OW 3935   0.065   7.034   1.948
34013SOL    HW1 3936   0.036   6.987   2.027
34013SOL    HW2 3937   0.156   7.056   1.965
34014SOL     OW 3938  11.725   2.470   4.404
34014SOL    HW1 3939  11.759   2.393   4.359
34014SOL    HW2 3940  11.630   2.460   4.398
34015SOL     OW 3941   8.202   7.204   5.376
34015SOL    HW1 3942   8.115   7.242   5.364
34015SOL    HW2 3943   8.184   7.114   5.404
34016SOL     OW 3944   4.594   2.314  11.931
34016SOL    HW1 3945   4.618   2.224  11.954
34016SOL    HW2 3946   4.506   2.307  11.895
34017SOL     OW 3947   4.118   8.365  14.515
34017SOL    HW1 3948   4.129   8.405  14.601
34017SOL    HW2 3949   4.109   8.438  14.455
34018SOL     OW 3950  12.087  14.077  11.421
34018SOL    HW1 3951  12.019  14.015  11.396
34018SOL    HW2 3952  12.087  14.142  11.350
34019SOL     OW 3953   9.689   3.013   2.538
34019SOL    HW1 3954   9.599   3.015   2.569
34019SOL    HW2 3955   9.682   3.015   2.442
34020SOL     OW 3956   0.642   7.065   3.981
34020SOL    HW1 3957   0.636   7.047   4.074
34020SOL    HW2 3958   0.596   7.148   3.969
34021SOL     OW 3959   9.593  14.101   0.192
34021SOL    HW1 3960   9.503  14.130   0.182
34021SOL    HW2 3961   9.607  14.042   0.117
34022SOL     OW 3962   6.533   2.862  11.080
34022SOL    HW1 3963   6.549   2.769  11.062
34022SOL    HW2 3964   6.510   2.865  11.173
34023SOL     OW 3965  13.514  14.850   9.820
34023SOL    HW1 3966  13.420  14.853   9.805
34023SOL    HW2 3967  13.526  14.790   9.894
34024SOL     OW 3968   7.993   1.572   4.460
34024SOL    HW1 3969   7.986   1.583   4.365
34024SOL    HW2 3970   8.085   1.549   4.475
34025SOL     OW 3971  14.743   6.123   9.315
34025SOL    HW1 3972  14.663   6.152   9.272
34025SOL    HW2 3973  14.727   6.134   9.408
34026SOL     OW 3974  14.547   8.189  11.910
34026SOL    HW1 3975  14.584   8.248  11.975
34026SOL    HW2 3976  14.601   8.200  11.833
34027SOL     OW 3977   0.198   5.212  11.868
34027SOL    HW1 3978   0.270   5.267  11.838
34027SOL    HW2 3979   0.123   5.241  11.817
34028SOL     OW 3980  13.727   4.326   0.408
34028SOL    HW1 3981  13.780   4.313   0.329
34028SOL    HW2 3982  13.734   4.420   0.426
34029SOL     OW 3983   9.938   1.686   7.365
34029SOL    HW1 3984   9.924   1.688   7.460
34029SOL    HW2 3985   9.924   1.595   7.341
34030SOL     OW 3986  14.484  11.402   6.728
34030SOL    HW1 3987  14.528  11.349   6.662
34030SOL    HW2 3988  14.519  11.369   6.811
34031SOL     OW 3989   1.281   1.399  10.305
34031SOL    HW1 3990   1.259   1.372  10.394
34031SOL    HW2 3991   1.353   1.461  10.316
34032SOL     OW 3992   5.945   9.124   4.224
34032SOL    HW1 3993   5.938   9.043   4.173
34032SOL    HW2 3994   5.854   9.148   4.243
34033SOL     OW 3995  14.714   1.790   8.615
34033SOL    HW1 3996  14.729   1.702   8.650
34033SOL    HW2 3997  14.751   1.849   8.681
34034SOL     OW 3998   1.022   6.740  10.321
34034SOL    HW1 3999   0.989   6.830  10.324
34034SOL    HW2 4000   1.101   6.745  10.267
34035SOL     OW 4001  11.046   3.397   4.616
34035SOL    HW1 4002  10.984   3.347   4.669
34035SOL    HW2 4003  11.132   3.364   4.640
34036SOL     OW 4004   2.127   7.048   4.643
34036SOL    HW1 4005   2.073   7.124   4.621
34036SOL    HW2 4006   2.119   7.040   4.738
34037SOL     OW 4007  10.200   9.352   2.127
34037SOL    HW1 4008  10.130   9.417   2.123
34037SOL    HW2 4009  10.183   9.303   2.207
34038SOL     OW 4010   9.083   1.523   6.474
34038SOL    HW1 4011   9.041   1.575   6.405
34038SOL    HW2 4012   9.176   1.529   6.455
34039SOL     OW 4013  11.667   1.936  13.880
34039SOL    HW1 4014  11.593   1.878  13.899
34039SOL    HW2 4015  11.744   1.881  13.890
34040SOL     OW 4016  13.867   2.194  12.869
34040SOL    HW1 4017  13.834   2.280  12.844
34040SOL    HW2 4018  13.858   2.191  12.965
34041SOL     OW 4019  10.233  11.331   6.470
34041SOL    HW1 4020  10.187  11.327   6.386
34041SOL    HW2 4021  10.324  11.347   6.446
34042SOL     OW 4022   5.388   8.631   1.162
34042SOL    HW1 4023   5.375   8.675   1.246
34042SOL    HW2 4024   5.321   8.563   1.160
34043SOL     OW 4025   1.412  14.167   9.812
34043SOL    HW1 4026   1.376  14.096   9.759
34043SOL    HW2 4027   1.436  14.235   9.749
34044SOL     OW 4028   9.489  14.617   9.623
34044SOL    HW1 4029   9.490  14.684   9.692
34044SOL    HW2 4030   9.524  14.662   9.546
34045SOL     OW 4031  12.791   3.204   7.706
34045SOL    HW1 4032  12.701   3.234   7.691
34045SOL    HW2 4033  12.792   3.114   7.672
34046SOL     OW 4034   8.526   7.127   9.723
34046SOL    HW1 4035   8.440   7.156   9.694
34046SOL    HW2 4036   8.588   7.172   9.665
34047SOL     OW 4037   1.964   6.835  11.187
34047SOL    HW1 4038   1.926   6.843  11.274
34047SOL    HW2 4039   1.890   6.842  11.127
34048SOL     OW 4040  13.973   5.133  11.018
34048SOL    HW1 4041  13.974   5.134  11.114
34048SOL    HW2 4042  13.883   5.112  10.994
34049SOL     OW 4043  13.798  14.523   8.160
34049SOL    HW1 4044  13.730  14.557   8.102
34049SOL    HW2 4045  13.880  14.549   8.118
34050SOL     OW 4046  14.455  10.325   5.894
34050SOL    HW1 4047  14.550  10.334   5.892
34050SOL    HW2 4048  14.424  10.379   5.821
34051SOL     OW 4049   0.626   2.777   0.614
34051SOL    HW1 4050   0.534   2.769   0.590
34051SOL    HW2 4051   0.646   2.696   0.661
34052SOL     OW 4052   4.635   0.531   9.099
34052SOL    HW1 4053   4.725   0.507   9.076
34052SOL    HW2 4054   4.638   0.552   9.192
34053SOL     OW 4055   2.765   6.696  11.412
34053SOL    HW1 4056   2.747   6.726  11.323
34053SOL    HW2 4057   2.708   6.749  11.467
34054SOL     OW 4058  11.604  13.258  13.649
34054SOL    HW1 4059  11.558  13.272  13.732
34054SOL    HW2 4060  11.592  13.340  13.601
34055SOL     OW 4061   3.147  11.628   0.247
34055SOL    HW1 4062   3.149  11.561   0.315
34055SOL    HW2 4063   3.143  11.578   0.165
34056SOL     OW 4064   0.455   0.011   7.080
34056SOL    HW1 4065   0.382   0.036   7.024
34056SOL    HW2 4066   0.445  14.784   7.092
34057SOL     OW 4067   0.544  13.794   2.508
34057SOL    HW1 4068   0.474  13.817   2.568
34057SOL    HW2 4069   0.503  13.794   2.421
34058SOL     OW 4070   0.572   1.708   9.378
34058SOL    HW1 4071   0.659   1.705   9.418
34058SOL    HW2 4072   0.574   1.787   9.323
34059SOL     OW 4073   1.027   6.898   8.417
34059SOL    HW1 4074   1.110   6.944   8.423
34059SOL    HW2 4075   1.031   6.852   8.333
34060SOL     OW 4076  12.647   3.955   5.238
34060SOL    HW1 4077  12.618   3.957   5.147
34060SOL    HW2 4078  12.593   3.888   5.279
34061SOL     OW 4079   3.031   5.372   9.035
34061SOL    HW1 4080   3.115   5.373   9.081
34061SOL    HW2 4081   3.023   5.459   8.997
34062SOL     OW 4082   0.105  11.005   1.226
34062SOL    HW1 4083   0.135  11.089   1.191
34062SOL    HW2 4084   0.185  10.957   1.246
34063SOL     OW 4085   6.813  12.294  14.636
34063SOL    HW1 4086   6.782  12.235  14.706
34063SOL    HW2 4087   6.892  12.334  14.672
34064SOL     OW 4088   8.075   7.491  14.021
34064SOL    HW1 4089   8.164   7.513  14.046
34064SOL    HW2 4090   8.027   7.488  14.104
34065SOL     OW 4091   4.780  10.677  11.947
34065SOL    HW1 4092   4.779  10.745  12.014
34065SOL    HW2 4093   4.712  10.616  11.973
34066SOL     OW 4094   1.023  11.369   9.209
34066SOL    HW1 4095   0.943  11.405   9.247
34066SOL    HW2 4096   1.090  11.389   9.275
34067SOL     OW 4097  12.970   6.836   0.658
34067SOL    HW1 4098  12.935   6.749   0.678
34067SOL    HW2 4099  12.895   6.883   0.619
34068SOL     OW 4100   3.346   3.427   0.691
34068SOL    HW1 4101   3.261   3.385   0.704
34068SOL    HW2 4102   3.393   3.411   0.773
34069SOL     OW 4103   6.162   5.583   7.370
34069SOL    HW1 4104   6.114   5.591   7.288
34069SOL    HW2 4105   6.094   5.563   7.435
34070SOL     OW 4106   1.944   1.676  10.597
34070SOL    HW1 4107   1.979   1.696  10.684
34070SOL    HW2 4108   1.954   1.757  10.548
34071SOL     OW 4109   0.563   2.114   4.649
34071SOL    HW1 4110   0.565   2.020   4.632
34071SOL    HW2 4111   0.640   2.149   4.604
34072SOL     OW 4112   3.889   6.942   9.957
34072SOL    HW1 4113   3.947   6.892   9.899
34072SOL    HW2 4114   3.902   6.903  10.043
34073SOL     OW 4115   9.006   1.145   2.235
34073SOL    HW1 4116   8.983   1.148   2.142
34073SOL    HW2 4117   8.923   1.133   2.281
34074SOL     OW 4118   4.249   4.421   3.596
34074SOL    HW1 4119   4.268   4.334   3.632
34074SOL    HW2 4120   4.206   4.402   3.512
34075SOL     OW 4121   2.649  13.654   1.186
34075SOL    HW1 4122   2.625  13.718   1.253
34075SOL    HW2 4123   2.623  13.570   1.222
34076SOL     OW 4124   4.560   4.182  11.059
34076SOL    HW1 4125   4.477   4.155  11.100
34076SOL    HW2 4126   4.545   4.172  10.965
34077SOL     OW 4127   5.494   3.584  10.036
34077SOL    HW1 4128   5.432   3.645   9.996
34077SOL    HW2 4129   5.451   3.499  10.029
34078SOL     OW 4130  14.403   9.860   6.354
34078SOL    HW1 4131  14.384   9.903   6.437
34078SOL    HW2 4132  14.404   9.766   6.375
34079SOL     OW 4133   1.194   7.913   4.276
34079SOL    HW1 4134   1.230   7.926   4.364
34079SOL    HW2 4135   1.204   7.819   4.260
34080SOL     OW 4136  10.893   1.883  14.815
34080SOL    HW1 4137  10.839   1.849   0.019
34080SOL    HW2 4138  10.941   1.956  14.854
34081SOL     OW 4139  10.429   1.770   0.048
34081SOL    HW1 4140  10.471   1.831   0.109
34081SOL    HW2 4141  10.485   1.771  14.839
34082SOL     OW 4142   0.684   2.873   8.215
34082SOL    HW1 4143   0.613   2.824   8.174
34082SOL    HW2 4144   0.710   2.819   8.290
34083SOL     OW 4145  11.184   6.662  11.934
34083SOL    HW1 4146  11.145   6.664  11.847
34083SOL    HW2 4147  11.109   6.663  11.994
34084SOL     OW 4148  13.836  14.326  11.863
34084SOL    HW1 4149  13.841  14.409  11.909
34084SOL    HW2 4150  13.799  14.265  11.927
34085SOL     OW 4151   8.887   5.503  11.656
34085SOL    HW1 4152   8.915   5.488  11.566
34085SOL    HW2 4153   8.813   5.444  11.668
34086SOL     OW 4154  13.870   3.592   9.233
34086SOL    HW1 4155  13.842   3.658   9.169
34086SOL    HW2 4156  13.943   3.633   9.279
34087SOL     OW 4157  12.294  14.004   4.589
34087SOL    HW1 4158  12.334  14.087   4.615
34087SOL    HW2 4159  12.264  13.964   4.670
34088SOL     OW 4160   5.589   2.837  10.198
34088SOL    HW1 4161   5.653   2.809  10.133
34088SOL    HW2 4162   5.590   2.932  10.193
34089SOL     OW 4163   0.943   8.988  13.378
34089SOL    HW1 4164   0.890   8.912  13.405
34089SOL    HW2 4165   0.926   9.053  13.446
34090SOL     OW 4166   4.733   9.248   3.567
34090SOL    HW1 4167   4.740   9.178   3.501
34090SOL    HW2 4168   4.654   9.296   3.542
34091SOL     OW 4169  14.302   8.882   7.005
34091SOL    HW1 4170  14.219   8.910   6.966
34091SOL    HW2 4171  14.368   8.901   6.938
34092SOL     OW 4172  13.248  12.689  12.731
34092SOL    HW1 4173  13.313  12.622  12.754
34092SOL    HW2 4174  13.184  12.686  12.802
34093SOL     OW 4175   4.405   9.949  13.732
34093SOL    HW1 4176   4.431  10.038  13.708
34093SOL    HW2 4177   4.457   9.930  13.810
34094SOL     OW 4178   2.691   0.102   8.865
34094SOL    HW1 4179   2.655   0.191   8.859
34094SOL    HW2 4180   2.738   0.101   8.948
34095SOL     OW 4181  12.448   4.344   1.846
34095SOL    HW1 4182  12.434   4.317   1.755
34095SOL    HW2 4183  12.530   4.302   1.871
34096SOL     OW 4184  14.405  12.577   0.297
34096SOL    HW1 4185  14.458  12.520   0.354
34096SOL    HW2 4186  14.432  12.666   0.321
34097SOL     OW 4187   6.249   3.363   9.326
34097SOL    HW1 4188   6.197   3.372   9.406
34097SOL    HW2 4189   6.302   3.443   9.323
34098SOL     OW 4190  10.283  13.546   2.302
34098SOL    HW1 4191  10.342  13.613   2.268
34098SOL    HW2 4192  10.223  13.527   2.229
34099SOL     OW 4193   6.204  14.658   9.553
34099SOL    HW1 4194   6.202  14.570   9.517
34099SOL    HW2 4195   6.140  14.657   9.625
34100SOL     OW 4196   1.457   6.275   1.912
34100SOL    HW1 4197   1.449   6.218   1.836
34100SOL    HW2 4198   1.396   6.347   1.895
34101SOL     OW 4199   2.808  12.506  11.620
34101SOL    HW1 4200   2.829  12.600  11.623
34101SOL    HW2 4201   2.894  12.463  11.616
34102SOL     OW 4202   0.557   9.875  11.548
34102SOL    HW1 4203   0.611   9.819  11.603
34102SOL    HW2 4204   0.573   9.963  11.581
34103SOL     OW 4205  11.244   2.867   6.124
34103SOL    HW1 4206  11.267   2.824   6.041
34103SOL    HW2 4207  11.169   2.819   6.156
34104SOL     OW 4208   4.360   9.150  13.944
34104SOL    HW1 4209   4.399   9.145  13.857
34104SOL    HW2 4210   4.270   9.118  13.932
34105SOL     OW 4211   3.957   7.430  13.593
34105SOL    HW1 4212   3.927   7.514  13.559
34105SOL    HW2 4213   3.898   7.411  13.666
34106SOL     OW 4214   0.536   6.129   8.909
34106SOL    HW1 4215   0.619   6.167   8.937
34106SOL    HW2 4216   0.470   6.192   8.938
34107SOL     OW 4217   4.670  11.392   4.809
34107SOL    HW1 4218   4.641  11.413   4.720
34107SOL    HW2 4219   4.749  11.445   4.821
34108SOL     OW 4220  12.739  10.860   3.042
34108SOL    HW1 4221  12.829  10.834   3.057
34108SOL    HW2 4222  12.697  10.783   3.004
34109SOL     OW 4223   6.196   8.918  14.654
34109SOL    HW1 4224   6.130   8.891  14.589
34109SOL    HW2 4225   6.148   8.973  14.716
34110SOL     OW 4226  14.611   6.529  13.167
34110SOL    HW1 4227  14.658   6.605  13.203
34110SOL    HW2 4228  14.679   6.465  13.149
34111SOL     OW 4229   2.110   3.025   7.537
34111SOL    HW1 4230   2.118   3.019   7.442
34111SOL    HW2 4231   2.182   2.972   7.570
34112SOL     OW 4232   4.608   2.554   3.800
34112SOL    HW1 4233   4.543   2.485   3.787
34112SOL    HW2 4234   4.686   2.521   3.756
34113SOL     OW 4235   1.752   8.147   7.019
34113SOL    HW1 4236   1.743   8.167   7.112
34113SOL    HW2 4237   1.794   8.061   7.017
34114SOL     OW 4238  13.905   3.713   1.656
34114SOL    HW1 4239  13.861   3.772   1.716
34114SOL    HW2 4240  13.956   3.770   1.598
34115SOL     OW 4241  11.807   2.243   3.024
34115SOL    HW1 4242  11.815   2.253   2.929
34115SOL    HW2 4243  11.751   2.165   3.035
34116SOL     OW 4244   3.909  12.067  12.129
34116SOL    HW1 4245   3.889  11.988  12.080
34116SOL    HW2 4246   3.979  12.110  12.080
34117SOL     OW 4247   7.212   6.900   4.678
34117SOL    HW1 4248   7.179   6.813   4.654
34117SOL    HW2 4249   7.233   6.892   4.771
34118SOL     OW 4250   6.035   3.826   9.011
34118SOL    HW1 4251   6.123   3.838   8.975
34118SOL    HW2 4252   5.997   3.913   9.011
34119SOL     OW 4253   4.251   7.602  14.087
34119SOL    HW1 4254   4.251   7.596  13.992
34119SOL    HW2 4255   4.344   7.604  14.111
34120SOL     OW 4256   7.862  12.424  10.348
34120SOL    HW1 4257   7.867  12.411  10.253
34120SOL    HW2 4258   7.850  12.518  10.359
34121SOL     OW 4259  10.189  14.186   8.156
34121SOL    HW1 4260  10.241  14.248   8.103
34121SOL    HW2 4261  10.216  14.203   8.246
34122SOL     OW 4262   5.573   0.874  14.211
34122SOL    HW1 4263   5.491   0.919  14.230
34122SOL    HW2 4264   5.630   0.893  14.285
34123SOL     OW 4265   8.040  12.480   3.149
34123SOL    HW1 4266   8.027  12.548   3.216
34123SOL    HW2 4267   7.994  12.514   3.072
34124SOL     OW 4268   3.783   2.235   4.590
34124SOL    HW1 4269   3.738   2.319   4.591
34124SOL    HW2 4270   3.776   2.203   4.680
34125SOL     OW 4271   1.376   4.920   9.585
34125SOL    HW1 4272   1.321   4.996   9.567
34125SOL    HW2 4273   1.375   4.870   9.504
34126SOL     OW 4274  14.575   0.894  14.795
34126SOL    HW1 4275  14.577   0.801  14.772
34126SOL    HW2 4276  14.658   0.910  14.841
34127SOL     OW 4277   6.349   1.946  10.964
34127SOL    HW1 4278   6.409   2.000  11.016
34127SOL    HW2 4279   6.262   1.983  10.980
34128SOL     OW 4280   6.967   6.361   1.979
34128SOL    HW1 4281   6.944   6.408   2.059
34128SOL    HW2 4282   6.884   6.348   1.933
34129SOL     OW 4283  12.720  13.141  12.089
34129SOL    HW1 4284  12.757  13.221  12.127
34129SOL    HW2 4285  12.712  13.081  12.163
34130SOL     OW 4286  12.166   1.393  11.087
34130SOL    HW1 4287  12.100   1.341  11.041
34130SOL    HW2 4288  12.248   1.370  11.044
34131SOL     OW 4289   0.292   2.386   3.144
34131SOL    HW1 4290   0.358   2.390   3.213
34131SOL    HW2 4291   0.334   2.427   3.068
34132SOL     OW 4292   2.872   7.837  10.051
34132SOL    HW1 4293   2.874   7.836   9.955
34132SOL    HW2 4294   2.782   7.857  10.073
34133SOL     OW 4295   5.985   1.057   2.327
34133SOL    HW1 4296   5.985   1.029   2.236
34133SOL    HW2 4297   6.051   1.126   2.331
34134SOL     OW 4298   2.514   2.002   0.509
34134SOL    HW1 4299   2.466   1.952   0.443
34134SOL    HW2 4300   2.490   1.961   0.592
34135SOL     OW 4301   9.920  10.335   9.455
34135SOL    HW1 4302   9.892  10.375   9.373
34135SOL    HW2 4303   9.867  10.379   9.522
34136SOL     OW 4304   7.441  11.232  13.923
34136SOL    HW1 4305   7.473  11.283  13.998
34136SOL    HW2 4306   7.520  11.199  13.880
34137SOL     OW 4307  10.950   0.427   9.120
34137SOL    HW1 4308  10.964   0.450   9.028
34137SOL    HW2 4309  10.855   0.416   9.129
34138SOL     OW 4310   7.671  14.472   7.293
34138SOL    HW1 4311   7.620  14.448   7.370
34138SOL    HW2 4312   7.751  14.510   7.327
34139SOL     OW 4313  13.868   5.612   5.126
34139SOL    HW1 4314  13.900   5.614   5.216
34139SOL    HW2 4315  13.938   5.570   5.076
34140SOL     OW 4316   3.282   0.303   3.868
34140SOL    HW1 4317   3.355   0.279   3.810
34140SOL    HW2 4318   3.206   0.261   3.828
34141SOL     OW 4319  14.278  11.082   8.503
34141SOL    HW1 4320  14.260  11.075   8.597
34141SOL    HW2 4321  14.361  11.130   8.498
34142SOL     OW 4322   6.991   6.979   8.348
34142SOL    HW1 4323   7.069   6.967   8.294
34142SOL    HW2 4324   6.920   6.989   8.285
34143SOL     OW 4325   6.423   6.094   6.188
34143SOL    HW1 4326   6.389   6.018   6.235
34143SOL    HW2 4327   6.350   6.125   6.135
34144SOL     OW 4328   9.004   7.836   9.487
34144SOL    HW1 4329   9.043   7.888   9.557
34144SOL    HW2 4330   8.921   7.878   9.468
34145SOL     OW 4331   1.788   1.491  10.832
34145SOL    HW1 4332   1.808   1.499  10.739
34145SOL    HW2 4333   1.763   1.579  10.859
34146SOL     OW 4334  14.781  10.490   3.295
34146SOL    HW1 4335  14.859  10.540   3.271
34146SOL    HW2 4336  14.753  10.527   3.379
34147SOL     OW 4337  10.033   9.260   1.218
34147SOL    HW1 4338  10.101   9.253   1.285
34147SOL    HW2 4339  10.064   9.330   1.161
34148SOL     OW 4340   5.027   7.167  12.965
34148SOL    HW1 4341   5.010   7.073  12.951
34148SOL    HW2 4342   4.945   7.209  12.938
34149SOL     OW 4343  13.456   6.055  13.632
34149SOL    HW1 4344  13.511   5.983  13.601
34149SOL    HW2 4345  13.462   6.051  13.727
34150SOL     OW 4346   3.967   8.039   6.399
34150SOL    HW1 4347   4.042   7.989   6.432
34150SOL    HW2 4348   3.990   8.059   6.308
34151SOL     OW 4349   3.261   8.070  12.647
34151SOL    HW1 4350   3.235   8.134  12.713
34151SOL    HW2 4351   3.274   7.988  12.696
34152SOL     OW 4352  10.659  13.283   8.206
34152SOL    HW1 4353  10.736  13.226   8.209
34152SOL    HW2 4354  10.694  13.372   8.210
34153SOL     OW 4355   3.576   4.617   6.932
34153SOL    HW1 4356   3.560   4.542   6.990
34153SOL    HW2 4357   3.566   4.582   6.844
34154SOL     OW 4358   7.230  13.725   0.571
34154SOL    HW1 4359   7.226  13.735   0.666
34154SOL    HW2 4360   7.143  13.693   0.547
34155SOL     OW 4361  13.323  11.644   9.661
34155SOL    HW1 4362  13.371  11.591   9.725
34155SOL    HW2 4363  13.234  11.608   9.662
34156SOL     OW 4364   8.384   4.749  10.278
34156SOL    HW1 4365   8.479   4.745  10.294
34156SOL    HW2 4366   8.375   4.738  10.184
34157SOL     OW 4367   0.935   1.246   5.482
34157SOL    HW1 4368   1.000   1.198   5.534
34157SOL    HW2 4369   0.934   1.334   5.519
34158SOL     OW 4370   9.427   6.211   2.334
34158SOL    HW1 4371   9.457   6.300   2.316
34158SOL    HW2 4372   9.431   6.166   2.249
34159SOL     OW 4373   9.303   5.245   1.173
34159SOL    HW1 4374   9.284   5.285   1.258
34159SOL    HW2 4375   9.263   5.159   1.177
34160SOL     OW 4376   5.798   9.953  12.788
34160SOL    HW1 4377   5.848  10.006  12.726
34160SOL    HW2 4378   5.779   9.872  12.741
34161SOL     OW 4379   5.045  12.571   8.165
34161SOL    HW1 4380   5.052  12.583   8.070
34161SOL    HW2 4381   5.101  12.639   8.202
34162SOL     OW 4382   9.316   6.697  13.130
34162SOL    HW1 4383   9.374   6.621  13.120
34162SOL    HW2 4384   9.277   6.710  13.044
34163SOL     OW 4385   3.743  14.305   5.963
34163SOL    HW1 4386   3.712  14.370   6.026
34163SOL    HW2 4387   3.719  14.341   5.877
34164SOL     OW 4388   0.990   5.336   5.214
34164SOL    HW1 4389   1.032   5.346   5.299
34164SOL    HW2 4390   0.971   5.243   5.208
34165SOL     OW 4391   4.393  13.654   4.846
34165SOL    HW1 4392   4.448  13.578   4.860
34165SOL    HW2 4393   4.305  13.627   4.875
34166SOL     OW 4394  14.273  11.559   0.567
34166SOL    HW1 4395  14.368  11.556   0.560
34166SOL    HW2 4396  14.255  11.629   0.630
34167SOL     OW 4397  10.119   4.842   2.335
34167SOL    HW1 4398  10.160   4.927   2.352
34167SOL    HW2 4399  10.089   4.848   2.244
34168SOL     OW 4400  12.942   5.702  12.953
34168SOL    HW1 4401  12.954   5.622  12.903
34168SOL    HW2 4402  12.851   5.726  12.939
34169SOL     OW 4403   7.577  14.307  14.606
34169SOL    HW1 4404   7.518  14.382  14.596
34169SOL    HW2 4405   7.532  14.235  14.563
34170SOL     OW 4406  13.710  10.964   0.703
34170SOL    HW1 4407  13.708  11.035   0.639
34170SOL    HW2 4408  13.802  10.957   0.727
34171SOL     OW 4409  12.154   7.862  13.579
34171SOL    HW1 4410  12.087   7.817  13.631
34171SOL    HW2 4411  12.237   7.836  13.619
34172SOL     OW 4412   0.394  13.084   0.919
34172SOL    HW1 4413   0.428  13.093   1.008
34172SOL    HW2 4414   0.343  13.163   0.904
34173SOL     OW 4415   1.881   4.266   6.610
34173SOL    HW1 4416   1.945   4.329   6.643
34173SOL    HW2 4417   1.903   4.184   6.656
34174SOL     OW 4418  10.569   3.099   1.579
34174SOL    HW1 4419  10.626   3.175   1.596
34174SOL    HW2 4420  10.623   3.040   1.526
34175SOL     OW 4421   6.056   2.906   2.311
34175SOL    HW1 4422   5.996   2.954   2.254
34175SOL    HW2 4423   6.085   2.831   2.259
34176SOL     OW 4424   2.210   3.157  10.518
34176SOL    HW1 4425   2.271   3.223  10.550
34176SOL    HW2 4426   2.211   3.168  10.423
34177SOL     OW 4427   7.597  12.642   1.431
34177SOL    HW1 4428   7.529  12.628   1.497
34177SOL    HW2 4429   7.561  12.603   1.351
34178SOL     OW 4430   1.608   5.785   0.296
34178SOL    HW1 4431   1.570   5.698   0.292
34178SOL    HW2 4432   1.584   5.818   0.383
34179SOL     OW 4433   3.291  14.059  10.444
34179SOL    HW1 4434   3.269  13.977  10.399
34179SOL    HW2 4435   3.375  14.085  10.407
34180SOL     OW 4436  11.696   0.533   2.391
34180SOL    HW1 4437  11.601   0.549   2.383
34180SOL    HW2 4438  11.732   0.565   2.308
34181SOL     OW 4439   6.244   0.247   8.559
34181SOL    HW1 4440   6.182   0.247   8.485
34181SOL    HW2 4441   6.327   0.273   8.520
34182SOL     OW 4442   3.871   6.218  13.859
34182SOL    HW1 4443   3.803   6.202  13.794
34182SOL    HW2 4444   3.824   6.220  13.943
34183SOL     OW 4445   3.282   8.303   4.383
34183SOL    HW1 4446   3.376   8.299   4.365
34183SOL    HW2 4447   3.244   8.333   4.300
34184SOL     OW 4448   5.752  10.772  14.727
34184SOL    HW1 4449   5.804  10.782  14.648
34184SOL    HW2 4450   5.798  10.706  14.778
34185SOL     OW 4451   3.705  11.575  13.869
34185SOL    HW1 4452   3.770  11.504  13.863
34185SOL    HW2 4453   3.703  11.597  13.962
34186SOL     OW 4454   8.899  12.182   6.003
34186SOL    HW1 4455   8.934  12.271   6.007
34186SOL    HW2 4456   8.962  12.129   6.051
34187SOL     OW 4457  11.476  13.101   4.393
34187SOL    HW1 4458  11.536  13.028   4.410
34187SOL    HW2 4459  11.403  13.062   4.345
34188SOL     OW 4460   9.851   0.320   8.405
34188SOL    HW1 4461   9.866   0.300   8.497
34188SOL    HW2 4462   9.858   0.236   8.360
34189SOL     OW 4463   0.171   5.720   1.181
34189SOL    HW1 4464   0.131   5.633   1.177
34189SOL    HW2 4465   0.190   5.734   1.274
34190SOL     OW 4466  11.541   0.190   2.705
34190SOL    HW1 4467  11.477   0.250   2.667
34190SOL    HW2 4468  11.562   0.227   2.791
34191SOL     OW 4469   7.914   9.836   3.344
34191SOL    HW1 4470   7.896   9.879   3.261
34191SOL    HW2 4471   8.009   9.823   3.344
34192SOL     OW 4472   6.688   1.153   7.040
34192SOL    HW1 4473   6.774   1.165   7.080
34192SOL    HW2 4474   6.687   1.062   7.011
34193SOL     OW 4475   2.527   2.037  14.186
34193SOL    HW1 4476   2.573   1.955  14.167
34193SOL    HW2 4477   2.597   2.100  14.203
34194SOL     OW 4478   0.627   9.865   2.255
34194SOL    HW1 4479   0.667   9.825   2.332
34194SOL    HW2 4480   0.591   9.792   2.205
34195SOL     OW 4481  14.012   1.766  13.642
34195SOL    HW1 4482  13.987   1.853  13.613
34195SOL    HW2 4483  14.101   1.754  13.610
34196SOL     OW 4484  14.038   3.264  13.589
34196SOL    HW1 4485  14.059   3.211  13.512
34196SOL    HW2 4486  14.123   3.284  13.628
34197SOL     OW 4487   3.500  11.057   5.278
34197SOL    HW1 4488   3.519  11.085   5.188
34197SOL    HW2 4489   3.580  11.014   5.307
34198SOL     OW 4490   6.941  13.684   6.543
34198SOL    HW1 4491   6.900  13.763   6.506
34198SOL    HW2 4492   6.947  13.624   6.469
34199SOL     OW 4493  11.007  12.011   9.887
34199SOL    HW1 4494  10.986  11.986   9.977
34199SOL    HW2 4495  10.928  11.990   9.837
34200SOL     OW 4496   4.354   3.391   7.105
34200SOL    HW1 4497   4.353   3.482   7.134
34200SOL    HW2 4498   4.285   3.349   7.155
34201SOL     OW 4499   2.657   2.396   7.210
34201SOL    HW1 4500   2.620   2.484   7.220
34201SOL    HW2 4501   2.724   2.390   7.277
34202SOL     OW 4502   2.912  13.757  12.484
34202SOL    HW1 4503   3.005  13.748  12.507
34202SOL    HW2 4504   2.909  13.741  12.390
34203SOL     OW 4505  12.570   9.031   1.854
34203SOL    HW1 4506  12.480   9.001   1.842
34203SOL    HW2 4507  12.615   8.955   1.891
34204SOL     OW 4508   0.854   0.068   2.197
34204SOL    HW1 4509   0.930   0.020   2.165
34204SOL    HW2 4510   0.873   0.159   2.178
34205SOL     OW 4511   9.689  12.713  12.036
34205SOL    HW1 4512   9.623  12.781  12.023
34205SOL    HW2 4513   9.766  12.760  12.067
34206SOL     OW 4514   9.655   6.786  10.494
34206SOL    HW1 4515   9.649   6.870  10.448
34206SOL    HW2 4516   9.738   6.748  10.463
34207SOL     OW 4517   2.462   8.096   1.049
34207SOL    HW1 4518   2.479   8.095   0.955
34207SOL    HW2 4519   2.439   8.005   1.070
34208SOL     OW 4520   2.528   3.440  11.608
34208SOL    HW1 4521   2.582   3.485  11.674
34208SOL    HW2 4522   2.537   3.347  11.629
34209SOL     OW 4523  14.400   1.261  12.972
34209SOL    HW1 4524  14.452   1.187  13.002
34209SOL    HW2 4525  14.342   1.224  12.905
34210SOL     OW 4526  12.847   9.264   0.884
34210SOL    HW1 4527  12.863   9.340   0.940
34210SOL    HW2 4528  12.855   9.298   0.794
34211SOL     OW 4529  11.350   2.995  12.473
34211SOL    HW1 4530  11.366   2.967  12.563
34211SOL    HW2 4531  11.255   3.002  12.466
34212SOL     OW 4532   6.316   9.853   7.072
34212SOL    HW1 4533   6.284   9.763   7.069
34212SOL    HW2 4534   6.278   9.895   6.995
34213SOL     OW 4535  13.231  10.966   0.622
34213SOL    HW1 4536  13.183  10.906   0.565
34213SOL    HW2 4537  13.323  10.958   0.594
34214SOL     OW 4538   3.514   5.191  13.409
34214SOL    HW1 4539   3.473   5.110  13.439
34214SOL    HW2 4540   3.486   5.199  13.318
34215SOL     OW 4541  13.724  14.349  13.245
34215SOL    HW1 4542  13.739  14.432  13.290
34215SOL    HW2 4543  13.812  14.318  13.222
34216SOL     OW 4544  12.402   1.141   7.027
34216SOL    HW1 4545  12.336   1.115   7.091
34216SOL    HW2 4546  12.373   1.101   6.945
34217SOL     OW 4547  10.697   2.060   2.803
34217SOL    HW1 4548  10.677   1.977   2.760
34217SOL    HW2 4549  10.681   2.043   2.896
34218SOL     OW 4550   0.440   0.227  11.959
34218SOL    HW1 4551   0.524   0.191  11.987
34218SOL    HW2 4552   0.448   0.321  11.975
34219SOL     OW 4553   6.027   6.044  12.348
34219SOL    HW1 4554   5.975   6.004  12.417
34219SOL    HW2 4555   5.966   6.060  12.277
34220SOL     OW 4556  10.193   3.739   7.495
34220SOL    HW1 4557  10.191   3.647   7.521
34220SOL    HW2 4558  10.125   3.747   7.429
34221SOL     OW 4559   5.575   5.202  11.399
34221SOL    HW1 4560   5.577   5.185  11.304
34221SOL    HW2 4561   5.618   5.287  11.409
34222SOL     OW 4562   7.747  14.716   4.115
34222SOL    HW1 4563   7.701  14.791   4.154
34222SOL    HW2 4564   7.832  14.715   4.158
34223SOL     OW 4565   0.016   7.124   6.691
34223SOL    HW1 4566   0.050   7.168   6.613
34223SOL    HW2 4567  14.789   7.126   6.681
34224SOL     OW 4568  10.306   4.474   8.563
34224SOL    HW1 4569  10.224   4.520   8.582
34224SOL    HW2 4570  10.322   4.491   8.470
34225SOL     OW 4571   6.768   0.721   4.085
34225SOL    HW1 4572   6.772   0.693   3.993
34225SOL    HW2 4573   6.676   0.743   4.100
34226SOL     OW 4574   7.249   3.689   1.249
34226SOL    HW1 4575   7.179   3.691   1.315
34226SOL    HW2 4576   7.228   3.762   1.190
34227SOL     OW 4577   0.997   0.586  10.265
34227SOL    HW1 4578   0.993   0.633  10.182
34227SOL    HW2 4579   0.919   0.530  10.264
34228SOL     OW 4580   0.095   2.611   2.792
34228SOL    HW1 4581   0.070   2.635   2.881
34228SOL    HW2 4582   0.012   2.601   2.745
34229SOL     OW 4583   0.906   1.332  13.163
34229SOL    HW1 4584   0.864   1.274  13.227
34229SOL    HW2 4585   0.996   1.298  13.156
34230SOL     OW 4586   2.751  11.633   4.594
34230SOL    HW1 4587   2.699  11.570   4.543
34230SOL    HW2 4588   2.817  11.665   4.533
34231SOL     OW 4589   4.244   2.378   0.656
34231SOL    HW1 4590   4.157   2.411   0.675
34231SOL    HW2 4591   4.288   2.377   0.742
34232SOL     OW 4592   5.269   3.119  10.561
34232SOL    HW1 4593   5.189   3.065  10.554
34232SOL    HW2 4594   5.267   3.153  10.650
34233SOL     OW 4595   2.684   2.997   0.695
34233SOL    HW1 4596   2.777   3.014   0.685
34233SOL    HW2 4597   2.646   3.016   0.609
34234SOL     OW 4598  13.000   3.454  11.582
34234SOL    HW1 4599  12.948   3.373  11.584
34234SOL    HW2 4600  12.942   3.520  11.619
34235SOL     OW 4601   9.376   9.467   2.106
34235SOL    HW1 4602   9.400   9.462   2.014
34235SOL    HW2 4603   9.280   9.470   2.106
34236SOL     OW 4604   8.207  12.862   2.689
34236SOL    HW1 4605   8.191  12.938   2.634
34236SOL    HW2 4606   8.268  12.808   2.638
34237SOL     OW 4607   8.709   4.422   6.847
34237SOL    HW1 4608   8.750   4.416   6.933
34237SOL    HW2 4609   8.648   4.496   6.855
34238SOL     OW 4610   5.282  13.955   7.675
34238SOL    HW1 4611   5.230  13.875   7.679
34238SOL    HW2 4612   5.311  13.961   7.584
34239SOL     OW 4613   1.341   2.657   1.602
34239SOL    HW1 4614   1.425   2.670   1.559
34239SOL    HW2 4615   1.350   2.702   1.686
34240SOL     OW 4616   0.990   3.789   7.089
34240SOL    HW1 4617   0.969   3.811   6.998
34240SOL    HW2 4618   0.908   3.759   7.126
34241SOL     OW 4619  14.215   0.369   0.544
34241SOL    HW1 4620  14.183   0.460   0.539
34241SOL    HW2 4621  14.229   0.344   0.453
34242SOL     OW 4622   1.939  13.044   5.910
34242SOL    HW1 4623   1.945  13.138   5.922
34242SOL    HW2 4624   2.021  13.010   5.946
34243SOL     OW 4625   7.550  10.695   4.836
34243SOL    HW1 4626   7.534  10.726   4.747
34243SOL    HW2 4627   7.500  10.754   4.892
34244SOL     OW 4628   3.611   4.526  14.125
34244SOL    HW1 4629   3.653   4.457  14.074
34244SOL    HW2 4630   3.589   4.485  14.208
34245SOL     OW 4631   0.112   1.765   4.430
34245SOL    HW1 4632   0.144   1.814   4.506
34245SOL    HW2 4633   0.184   1.768   4.367
34246SOL     OW 4634  14.810   3.017   7.894
34246SOL    HW1 4635  14.724   2.973   7.898
34246SOL    HW2 4636  14.789   3.110   7.892
34247SOL     OW 4637   1.146  11.758   8.494
34247SOL    HW1 4638   1.188  11.837   8.461
34247SOL    HW2 4639   1.078  11.791   8.554
34248SOL     OW 4640   0.156   4.867   4.601
34248SOL    HW1 4641   0.080   4.837   4.552
34248SOL    HW2 4642   0.214   4.905   4.535
34249SOL     OW 4643   4.588   0.291   8.026
34249SOL    HW1 4644   4.634   0.365   8.066
34249SOL    HW2 4645   4.613   0.293   7.934
34250SOL     OW 4646  14.437  13.281  14.542
34250SOL    HW1 4647  14.518  13.321  14.573
34250SOL    HW2 4648  14.385  13.267  14.621
34251SOL     OW 4649   9.605   5.782  11.917
34251SOL    HW1 4650   9.550   5.828  11.981
34251SOL    HW2 4651   9.612   5.842  11.843
34252SOL     OW 4652   8.766  11.741  14.267
34252SOL    HW1 4653   8.789  11.807  14.331
34252SOL    HW2 4654   8.736  11.666  14.319
34253SOL     OW 4655   2.572   7.556   2.106
34253SOL    HW1 4656   2.477   7.570   2.108
34253SOL    HW2 4657   2.599   7.560   2.197
34254SOL     OW 4658   0.446   4.617   7.516
34254SOL    HW1 4659   0.445   4.547   7.450
34254SOL    HW2 4660   0.455   4.571   7.599
34255SOL     OW 4661   1.738  11.282  10.553
34255SOL    HW1 4662   1.796  11.245  10.619
34255SOL    HW2 4663   1.759  11.376  10.552
34256SOL     OW 4664   8.314   3.827   4.120
34256SOL    HW1 4665   8.406   3.804   4.112
34256SOL    HW2 4666   8.276   3.803   4.036
34257SOL     OW 4667   0.981  12.356  13.281
34257SOL    HW1 4668   1.003  12.388  13.369
34257SOL    HW2 4669   0.976  12.435  13.228
34258SOL     OW 4670  12.753  11.542   0.022
34258SOL    HW1 4671  12.778  11.633   0.037
34258SOL    HW2 4672  12.657  11.544   0.020
34259SOL     OW 4673  13.833   4.733   2.443
34259SOL    HW1 4674  13.742   4.721   2.419
34259SOL    HW2 4675  13.878   4.755   2.361
34260SOL     OW 4676   6.750  10.647   6.126
34260SOL    HW1 4677   6.777  10.638   6.218
34260SOL    HW2 4678   6.767  10.561   6.088
34261SOL     OW 4679   1.403   2.500   6.564
34261SOL    HW1 4680   1.348   2.540   6.497
34261SOL    HW2 4681   1.428   2.415   6.527
34262SOL     OW 4682  10.955  14.665   3.459
34262SOL    HW1 4683  10.899  14.638   3.386
34262SOL    HW2 4684  10.920  14.618   3.535
34263SOL     OW 4685   8.746  10.943   8.976
34263SOL    HW1 4686   8.745  11.019   9.034
34263SOL    HW2 4687   8.817  10.889   9.009
34264SOL     OW 4688  13.835   9.011  10.789
34264SOL    HW1 4689  13.754   8.968  10.763
34264SOL    HW2 4690  13.884   9.021  10.708
34265SOL     OW 4691   9.840   2.991   0.931
34265SOL    HW1 4692   9.779   3.059   0.959
34265SOL    HW2 4693   9.810   2.911   0.976
34266SOL     OW 4694   2.272  11.296   9.690
34266SOL    HW1 4695   2.232  11.226   9.638
34266SOL    HW2 4696   2.282  11.258   9.777
34267SOL     OW 4697   2.989  14.700   0.990
34267SOL    HW1 4698   3.059  14.759   1.018
34267SOL    HW2 4699   2.911  14.731   1.037
34268SOL     OW 4700  10.032   1.753  14.326
34268SOL    HW1 4701  10.019   1.678  14.269
34268SOL    HW2 4702  10.019   1.829  14.269
34269SOL     OW 4703   5.859   7.459  13.704
34269SOL    HW1 4704   5.828   7.471  13.614
34269SOL    HW2 4705   5.948   7.492  13.703
34270SOL     OW 4706   2.616   5.450  12.517
34270SOL    HW1 4707   2.590   5.421  12.604
34270SOL    HW2 4708   2.707   5.477  12.526
34271SOL     OW 4709   7.926   8.336   1.057
34271SOL    HW1 4710   7.892   8.425   1.059
34271SOL    HW2 4711   7.848   8.281   1.064
34272SOL     OW 4712   8.277   0.749   1.116
34272SOL    HW1 4713   8.315   0.833   1.142
34272SOL    HW2 4714   8.233   0.717   1.195
34273SOL     OW 4715   2.560   8.311   4.148
34273SOL    HW1 4716   2.610   8.391   4.128
34273SOL    HW2 4717   2.473   8.343   4.172
34274SOL     OW 4718   7.085   7.499   5.121
34274SOL    HW1 4719   7.128   7.517   5.038
34274SOL    HW2 4720   7.044   7.582   5.145
34275SOL     OW 4721   9.006  12.609   0.068
34275SOL    HW1 4722   8.911  12.611   0.066
34275SOL    HW2 4723   9.033  12.690   0.023
34276SOL     OW 4724   2.662   8.237   5.662
34276SOL    HW1 4725   2.627   8.149   5.674
34276SOL    HW2 4726   2.694   8.237   5.572
34277SOL     OW 4727   7.419   3.375   2.821
34277SOL    HW1 4728   7.325   3.369   2.806
34277SOL    HW2 4729   7.436   3.318   2.896
34278SOL     OW 4730   9.655  11.786   0.997
34278SOL    HW1 4731   9.616  11.848   1.058
34278SOL    HW2 4732   9.735  11.757   1.040
34279SOL     OW 4733  11.671   3.261   1.463
34279SOL    HW1 4734  11.678   3.215   1.379
34279SOL    HW2 4735  11.637   3.347   1.441
34280SOL     OW 4736  10.668   8.086   7.650
34280SOL    HW1 4737  10.607   8.012   7.654
34280SOL    HW2 4738  10.735   8.066   7.716
34281SOL     OW 4739   7.419   5.322  12.681
34281SOL    HW1 4740   7.369   5.256  12.729
34281SOL    HW2 4741   7.413   5.400  12.737
34282SOL     OW 4742  14.835   1.229   4.826
34282SOL    HW1 4743  14.867   1.153   4.874
34282SOL    HW2 4744  14.761   1.262   4.877
34283SOL     OW 4745  11.072   0.624   5.881
34283SOL    HW1 4746  11.023   0.633   5.798
34283SOL    HW2 4747  11.079   0.714   5.913
34284SOL     OW 4748   2.624  14.073   7.526
34284SOL    HW1 4749   2.627  14.009   7.597
34284SOL    HW2 4750   2.650  14.025   7.448
34285SOL     OW 4751   8.935   8.749   6.904
34285SOL    HW1 4752   9.009   8.720   6.958
34285SOL    HW2 4753   8.904   8.670   6.860
34286SOL     OW 4754  10.886   6.383   5.946
34286SOL    HW1 4755  10.801   6.370   5.904
34286SOL    HW2 4756  10.936   6.304   5.926
34287SOL     OW 4757   6.629  13.021   3.371
34287SOL    HW1 4758   6.656  12.978   3.452
34287SOL    HW2 4759   6.533  13.018   3.373
34288SOL     OW 4760   2.864  14.765  10.730
34288SOL    HW1 4761   2.920  14.768  10.653
34288SOL    HW2 4762   2.780  14.799  10.700
34289SOL     OW 4763   1.501   1.961  11.143
34289SOL    HW1 4764   1.424   2.006  11.179
34289SOL    HW2 4765   1.567   2.029  11.135
34290SOL     OW 4766   7.591   8.777   6.727
34290SOL    HW1 4767   7.667   8.778   6.785
34290SOL    HW2 4768   7.573   8.684   6.712
34291SOL     OW 4769   1.481   7.186  12.687
34291SOL    HW1 4770   1.500   7.272  12.651
34291SOL    HW2 4771   1.391   7.193  12.720
34292SOL     OW 4772  12.335  12.958   3.967
34292SOL    HW1 4773  12.276  12.913   3.905
34292SOL    HW2 4774  12.284  12.965   4.047
34293SOL     OW 4775  10.068   9.776  13.237
34293SOL    HW1 4776  10.102   9.781  13.327
34293SOL    HW2 4777  10.002   9.706  13.241
34294SOL     OW 4778   1.878   3.000   4.580
34294SOL    HW1 4779   1.814   3.047   4.634
34294SOL    HW2 4780   1.843   2.912   4.573
34295SOL     OW 4781   9.205  13.911   8.750
34295SOL    HW1 4782   9.158  13.973   8.805
34295SOL    HW2 4783   9.150  13.833   8.749
34296SOL     OW 4784   3.286  12.333   0.291
34296SOL    HW1 4785   3.278  12.285   0.209
34296SOL    HW2 4786   3.260  12.423   0.269
34297SOL     OW 4787   7.755   4.294   2.111
34297SOL    HW1 4788   7.662   4.284   2.133
34297SOL    HW2 4789   7.755   4.344   2.029
34298SOL     OW 4790  13.100   8.000  11.931
34298SOL    HW1 4791  13.031   7.981  11.995
34298SOL    HW2 4792  13.175   7.948  11.960
34299SOL     OW 4793   7.106  14.019  14.170
34299SOL    HW1 4794   7.105  13.946  14.231
34299SOL    HW2 4795   7.020  14.060  14.181
34300SOL     OW 4796  13.440   8.810   9.269
34300SOL    HW1 4797  13.389   8.733   9.244
34300SOL    HW2 4798  13.523   8.775   9.301
34301SOL     OW 4799  11.839   0.730   9.226
34301SOL    HW1 4800  11.931   0.737   9.254
34301SOL    HW2 4801  11.797   0.806   9.266
34302SOL     OW 4802   1.231   2.240   5.570
34302SOL    HW1 4803   1.284   2.286   5.635
34302SOL    HW2 4804   1.293   2.180   5.527
34303SOL     OW 4805  13.370   8.992   1.972
34303SOL    HW1 4806  13.416   8.959   1.895
34303SOL    HW2 4807  13.277   8.981   1.951
34304SOL     OW 4808   7.632  12.808  12.799
34304SOL    HW1 4809   7.617  12.859  12.720
34304SOL    HW2 4810   7.559  12.830  12.857
34305SOL     OW 4811   3.440   0.300   8.208
34305SOL    HW1 4812   3.400   0.387   8.206
34305SOL    HW2 4813   3.511   0.307   8.271
34306SOL     OW 4814  10.122  10.962   6.224
34306SOL    HW1 4815  10.072  10.882   6.241
34306SOL    HW2 4816  10.094  11.022   6.294
34307SOL     OW 4817   7.809   5.734   4.055
34307SOL    HW1 4818   7.739   5.789   4.091
34307SOL    HW2 4819   7.831   5.776   3.972
34308SOL     OW 4820   9.434  11.163  10.457
34308SOL    HW1 4821   9.481  11.239  10.493
34308SOL    HW2 4822   9.450  11.168  10.363
34309SOL     OW 4823  10.115  10.288   3.041
34309SOL    HW1 4824  10.208  10.311   3.045
34309SOL    HW2 4825  10.106  10.215   3.103
34310SOL     OW 4826   8.811   9.783   9.907
34310SOL    HW1 4827   8.868   9.847   9.949
34310SOL    HW2 4828   8.763   9.742   9.979
34311SOL     OW 4829   2.349   8.535  10.145
34311SOL    HW1 4830   2.348   8.550  10.051
34311SOL    HW2 4831   2.403   8.606  10.180
34312SOL     OW 4832   7.182   4.925   0.610
34312SOL    HW1 4833   7.109   4.987   0.619
34312SOL    HW2 4834   7.175   4.892   0.520
34313SOL     OW 4835   7.359   8.173   7.101
34313SOL    HW1 4836   7.423   8.130   7.158
34313SOL    HW2 4837   7.395   8.164   7.013
34314SOL     OW 4838   4.814   8.310   7.924
34314SOL    HW1 4839   4.851   8.383   7.974
34314SOL    HW2 4840   4.840   8.232   7.972
34315SOL     OW 4841   0.214  12.438   7.539
34315SOL    HW1 4842   0.299  12.397   7.552
34315SOL    HW2 4843   0.233  12.524   7.502
34316SOL     OW 4844  13.734   2.729   4.974
34316SOL    HW1 4845  13.701   2.685   5.053
34316SOL    HW2 4846  13.819   2.765   5.000
34317SOL     OW 4847  13.798  11.524   4.012
34317SOL    HW1 4848  13.768  11.612   4.037
34317SOL    HW2 4849  13.717  11.476   3.993
34318SOL     OW 4850   5.041   5.865   2.320
34318SOL    HW1 4851   5.003   5.796   2.375
34318SOL    HW2 4852   4.988   5.942   2.339
34319SOL     OW 4853   7.550   2.249   7.008
34319SOL    HW1 4854   7.475   2.295   7.044
34319SOL    HW2 4855   7.614   2.317   6.989
34320SOL     OW 4856   1.477   6.870  14.153
34320SOL    HW1 4857   1.520   6.843  14.235
34320SOL    HW2 4858   1.477   6.966  14.157
34321SOL     OW 4859   6.314   0.348   4.993
34321SOL    HW1 4860   6.220   0.341   5.012
34321SOL    HW2 4861   6.357   0.314   5.071
34322SOL     OW 4862   0.303  11.007  13.786
34322SOL    HW1 4863   0.268  11.074  13.727
34322SOL    HW2 4864   0.351  11.057  13.852
34323SOL     OW 4865  11.573  12.585  10.370
34323SOL    HW1 4866  11.510  12.651  10.396
34323SOL    HW2 4867  11.588  12.533  10.449
34324SOL     OW 4868   9.613   8.522  11.437
34324SOL    HW1 4869   9.593   8.497  11.347
34324SOL    HW2 4870   9.528   8.534  11.479
34325SOL     OW 4871  14.783   3.090   9.985
34325SOL    HW1 4872  14.783   3.184  10.002
34325SOL    HW2 4873  14.758   3.083   9.893
34326SOL     OW 4874   0.582  14.144  11.599
34326SOL    HW1 4875   0.540  14.189  11.525
34326SOL    HW2 4876   0.676  14.152  11.581
34327SOL     OW 4877   2.532   8.829   3.940
34327SOL    HW1 4878   2.595   8.829   4.011
34327SOL    HW2 4879   2.501   8.919   3.935
34328SOL     OW 4880  14.379  14.273  10.573
34328SOL    HW1 4881  14.377  14.178  10.575
34328SOL    HW2 4882  14.306  14.297  10.515
34329SOL     OW 4883  14.846   2.182   1.160
34329SOL    HW1 4884  14.815   2.212   1.075
34329SOL    HW2 4885  14.772   2.196   1.219
34330SOL     OW 4886   8.096  12.710  11.268
34330SOL    HW1 4887   8.151  12.685  11.342
34330SOL    HW2 4888   8.026  12.645  11.266
34331SOL     OW 4889   3.351   8.571   2.657
34331SOL    HW1 4890   3.443   8.564   2.634
34331SOL    HW2 4891   3.314   8.630   2.591
34332SOL     OW 4892   0.419   9.781   2.006
34332SOL    HW1 4893   0.419   9.701   2.058
34332SOL    HW2 4894   0.450   9.753   1.919
34333SOL     OW 4895   4.660  11.196   8.386
34333SOL    HW1 4896   4.573  11.163   8.365
34333SOL    HW2 4897   4.710  11.188   8.305
34334SOL     OW 4898   3.870  13.432  10.379
34334SOL    HW1 4899   3.840  13.496  10.444
34334SOL    HW2 4900   3.938  13.478  10.329
34335SOL     OW 4901   8.143  13.498  13.756
34335SOL    HW1 4902   8.095  13.518  13.837
34335SOL    HW2 4903   8.108  13.559  13.691
34336SOL     OW 4904   8.165   2.898   0.057
34336SOL    HW1 4905   8.073   2.896   0.030
34336SOL    HW2 4906   8.165   2.853   0.142
34337SOL     OW 4907   9.541  12.571  12.225
34337SOL    HW1 4908   9.459  12.545  12.184
34337SOL    HW2 4909   9.591  12.613  12.154
34338SOL     OW 4910   1.352   2.387   0.142
34338SOL    HW1 4911   1.361   2.443   0.065
34338SOL    HW2 4912   1.258   2.369   0.148
34339SOL     OW 4913   2.430   0.033   8.603
34339SOL    HW1 4914   2.450   0.118   8.563
34339SOL    HW2 4915   2.506  14.847   8.583
34340SOL     OW 4916  13.712   8.681   6.779
34340SOL    HW1 4917  13.751   8.767   6.764
34340SOL    HW2 4918  13.625   8.687   6.740
34341SOL     OW 4919   4.287  13.619   7.115
34341SOL    HW1 4920   4.213  13.678   7.100
34341SOL    HW2 4921   4.255  13.533   7.089
34342SOL     OW 4922   4.291   5.338  11.673
34342SOL    HW1 4923   4.199   5.322  11.693
34342SOL    HW2 4924   4.295   5.341  11.577
34343SOL     OW 4925   8.177  11.896  13.155
34343SOL    HW1 4926   8.093  11.850  13.154
34343SOL    HW2 4927   8.243  11.827  13.146
34344SOL     OW 4928  14.508   6.544  11.527
34344SOL    HW1 4929  14.572   6.611  11.554
34344SOL    HW2 4930  14.535   6.466  11.575
34345SOL     OW 4931   4.491   3.149  13.825
34345SOL    HW1 4932   4.532   3.139  13.739
34345SOL    HW2 4933   4.412   3.201  13.808
34346SOL     OW 4934   7.855   5.013   1.723
34346SOL    HW1 4935   7.892   5.089   1.768
34346SOL    HW2 4936   7.797   4.973   1.788
34347SOL     OW 4937   4.537   0.680   2.633
34347SOL    HW1 4938   4.448   0.652   2.656
34347SOL    HW2 4939   4.543   0.770   2.665
34348SOL     OW 4940   1.796   9.019  13.806
34348SOL    HW1 4941   1.842   9.074  13.870
34348SOL    HW2 4942   1.747   9.082  13.752
34349SOL     OW 4943   8.958  10.780   1.947
34349SOL    HW1 4944   8.886  10.717   1.952
34349SOL    HW2 4945   8.940  10.843   2.016
34350SOL     OW 4946   5.346   1.805  11.516
34350SOL    HW1 4947   5.397   1.773  11.442
34350SOL    HW2 4948   5.334   1.898  11.499
34351SOL     OW 4949   0.538  14.515  11.134
34351SOL    HW1 4950   0.518  14.506  11.227
34351SOL    HW2 4951   0.607  14.450  11.119
34352SOL     OW 4952  14.300  10.388   8.418
34352SOL    HW1 4953  14.364  10.399   8.488
34352SOL    HW2 4954  14.339  10.324   8.359
34353SOL     OW 4955   8.979   6.484   5.859
34353SOL    HW1 4956   8.992   6.578   5.866
34353SOL    HW2 4957   9.026   6.459   5.780
34354SOL     OW 4958   2.824   0.464  12.119
34354SOL    HW1 4959   2.880   0.393  12.152
34354SOL    HW2 4960   2.801   0.515  12.197
34355SOL     OW 4961  13.060   5.605   6.307
34355SOL    HW1 4962  12.983   5.547   6.307
34355SOL    HW2 4963  13.096   5.597   6.396
34356SOL     OW 4964   9.724   6.976   1.900
34356SOL    HW1 4965   9.679   6.892   1.890
34356SOL    HW2 4966   9.813   6.959   1.869
34357SOL     OW 4967   4.678   8.468   9.640
34357SOL    HW1 4968   4.762   8.426   9.660
34357SOL    HW2 4969   4.678   8.478   9.545
34358SOL     OW 4970   7.892   0.824   5.352
34358SOL    HW1 4971   7.984   0.801   5.347
34358SOL    HW2 4972   7.891   0.915   5.380
34359SOL     OW 4973  10.200   6.357   0.234
34359SOL    HW1 4974  10.267   6.291   0.251
34359SOL    HW2 4975  10.136   6.313   0.179
34360SOL     OW 4976   7.089  12.508   2.163
34360SOL    HW1 4977   7.012  12.475   2.210
34360SOL    HW2 4978   7.128  12.431   2.123
34361SOL     OW 4979   4.285   7.199  13.754
34361SOL    HW1 4980   4.362   7.235  13.709
34361SOL    HW2 4981   4.321   7.154  13.830
34362SOL     OW 4982   6.334   2.249   6.490
34362SOL    HW1 4983   6.402   2.265   6.554
34362SOL    HW2 4984   6.265   2.204   6.538
34363SOL     OW 4985  11.116  10.649   9.707
34363SOL    HW1 4986  11.061  10.605   9.772
34363SOL    HW2 4987  11.172  10.706   9.758
34364SOL     OW 4988   6.669   0.390   1.999
34364SOL    HW1 4989   6.630   0.475   2.018
34364SOL    HW2 4990   6.599   0.339   1.958
34365SOL     OW 4991   0.854   8.159   9.615
34365SOL    HW1 4992   0.900   8.091   9.665
34365SOL    HW2 4993   0.846   8.122   9.527
34366SOL     OW 4994   4.230  10.452   1.826
34366SOL    HW1 4995   4.291  10.509   1.781
34366SOL    HW2 4996   4.286  10.394   1.879
34367SOL     OW 4997  13.521   3.357   2.813
34367SOL    HW1 4998  13.429   3.356   2.788
34367SOL    HW2 4999  13.555   3.273   2.783
34368SOL     OW 5000   7.584  10.198   2.765
34368SOL    HW1 5001   7.600  10.188   2.859
34368SOL    HW2 5002   7.491  10.219   2.758
34369SOL     OW 5003  11.239   6.121   7.201
34369SOL    HW1 5004  11.217   6.211   7.227
34369SOL    HW2 5005  11.177   6.102   7.130
34370SOL     OW 5006   1.169  14.095  10.918
34370SOL    HW1 5007   1.104  14.164  10.903
34370SOL    HW2 5008   1.245  14.141  10.955
34371SOL     OW 5009   0.293   7.705   9.448
34371SOL    HW1 5010   0.289   7.639   9.379
34371SOL    HW2 5011   0.235   7.672   9.516
34372SOL     OW 5012   4.992   6.440   2.345
34372SOL    HW1 5013   4.929   6.395   2.402
34372SOL    HW2 5014   4.962   6.421   2.256
34373SOL     OW 5015   6.831   8.119   9.928
34373SOL    HW1 5016   6.755   8.162   9.968
34373SOL    HW2 5017   6.808   8.113   9.835
34374SOL     OW 5018  13.317  14.587   5.405
34374SOL    HW1 5019  13.391  14.527   5.413
34374SOL    HW2 5020  13.243  14.539   5.444
34375SOL     OW 5021  13.994  12.859   3.507
34375SOL    HW1 5022  13.953  12.941   3.478
34375SOL    HW2 5023  14.052  12.835   3.434
34376SOL     OW 5024  10.706  12.646   5.330
34376SOL    HW1 5025  10.773  12.704   5.367
34376SOL    HW2 5026  10.676  12.595   5.405
34377SOL     OW 5027  14.589   5.288  11.633
34377SOL    HW1 5028  14.511   5.232  11.631
34377SOL    HW2 5029  14.610   5.294  11.726
34378SOL     OW 5030   7.536   6.827   5.317
34378SOL    HW1 5031   7.545   6.817   5.412
34378SOL    HW2 5032   7.612   6.782   5.280
34379SOL     OW 5033  13.636   5.759   5.986
34379SOL    HW1 5034  13.679   5.818   6.048
34379SOL    HW2 5035  13.693   5.758   5.909
34380SOL     OW 5036  13.153   2.051  11.892
34380SOL    HW1 5037  13.103   1.978  11.856
34380SOL    HW2 5038  13.107   2.075  11.972
34381SOL     OW 5039  11.912  14.724  14.330
34381SOL    HW1 5040  11.950  14.636  14.326
34381SOL    HW2 5041  11.843  14.724  14.263
34382SOL     OW 5042   9.791   2.285   8.092
34382SOL    HW1 5043   9.788   2.216   8.027
34382SOL    HW2 5044   9.737   2.253   8.164
34383SOL     OW 5045  11.657  13.229   4.097
34383SOL    HW1 5046  11.640  13.135   4.090
34383SOL    HW2 5047  11.629  13.264   4.012
34384SOL     OW 5048   9.613  14.796  14.137
34384SOL    HW1 5049   9.641  14.863  14.074
34384SOL    HW2 5050   9.638  14.832  14.222
34385SOL     OW 5051   2.750  13.426  10.288
34385SOL    HW1 5052   2.696  13.401  10.362
34385SOL    HW2 5053   2.716  13.512  10.261
34386SOL     OW 5054   0.824   6.055  14.615
34386SOL    HW1 5055   0.773   5.974  14.606
34386SOL    HW2 5056   0.835   6.087  14.525
34387SOL     OW 5057   3.984   4.761   7.079
34387SOL    HW1 5058   4.040   4.685   7.068
34387SOL    HW2 5059   4.016   4.804   7.158
34388SOL     OW 5060  12.524  13.687   9.431
34388SOL    HW1 5061  12.576  13.764   9.407
34388SOL    HW2 5062  12.510  13.696   9.525
34389SOL     OW 5063   2.615   6.783  13.391
34389SOL    HW1 5064   2.647   6.736  13.315
34389SOL    HW2 5065   2.539   6.832  13.359
34390SOL     OW 5066  11.708   5.460  10.910
34390SOL    HW1 5067  11.792   5.472  10.955
34390SOL    HW2 5068  11.714   5.515  10.832
34391SOL     OW 5069  11.436   7.150   9.409
34391SOL    HW1 5070  11.431   7.074   9.352
34391SOL    HW2 5071  11.466   7.221   9.353
34392SOL     OW 5072  12.980   1.251   9.710
34392SOL    HW1 5073  13.010   1.286   9.794
34392SOL    HW2 5074  13.013   1.161   9.708
34393SOL     OW 5075   2.289   0.947   2.607
34393SOL    HW1 5076   2.355   0.947   2.538
34393SOL    HW2 5077   2.336   0.916   2.685
34394SOL     OW 5078  10.123   3.337   9.997
34394SOL    HW1 5079  10.121   3.432   9.985
34394SOL    HW2 5080  10.137   3.326  10.091
34395SOL     OW 5081   6.013  13.633   9.809
34395SOL    HW1 5082   6.086  13.617   9.868
34395SOL    HW2 5083   6.033  13.578   9.732
34396SOL     OW 5084   7.348  11.954   4.021
34396SOL    HW1 5085   7.444  11.956   4.017
34396SOL    HW2 5086   7.321  11.917   3.937
34397SOL     OW 5087  13.579   0.527  13.616
34397SOL    HW1 5088  13.551   0.603  13.565
34397SOL    HW2 5089  13.644   0.562  13.678
34398SOL     OW 5090   1.683   3.452  14.292
34398SOL    HW1 5091   1.619   3.400  14.243
34398SOL    HW2 5092   1.669   3.427  14.383
34399SOL     OW 5093   0.771  14.481   9.508
34399SOL    HW1 5094   0.799  14.406   9.455
34399SOL    HW2 5095   0.852  14.527   9.531
34400SOL     OW 5096  14.784   2.667  12.002
34400SOL    HW1 5097  14.785   2.760  12.025
34400SOL    HW2 5098  14.698   2.636  12.029
34401SOL     OW 5099   4.064   4.477  14.768
34401SOL    HW1 5100   3.997   4.410  14.758
34401SOL    HW2 5101   4.069   4.492  14.863
34402SOL     OW 5102   2.205  10.767   8.866
34402SOL    HW1 5103   2.175  10.715   8.792
34402SOL    HW2 5104   2.215  10.705   8.938
34403SOL     OW 5105  10.919   0.867   2.798
34403SOL    HW1 5106  10.884   0.846   2.885
34403SOL    HW2 5107  11.004   0.908   2.816
34404SOL     OW 5108   3.771   3.690   5.987
34404SOL    HW1 5109   3.815   3.609   5.963
34404SOL    HW2 5110   3.797   3.706   6.077
34405SOL     OW 5111   0.769  11.103   3.314
34405SOL    HW1 5112   0.712  11.109   3.237
34405SOL    HW2 5113   0.711  11.124   3.388
34406SOL     OW 5114  10.173  13.832  12.315
34406SOL    HW1 5115  10.132  13.786  12.388
34406SOL    HW2 5116  10.127  13.915  12.310
34407SOL     OW 5117   7.224   2.503  12.999
34407SOL    HW1 5118   7.281   2.452  12.942
34407SOL    HW2 5119   7.269   2.587  13.009
34408SOL     OW 5120   4.725   2.361   8.927
34408SOL    HW1 5121   4.729   2.341   9.021
34408SOL    HW2 5122   4.814   2.347   8.896
34409SOL     OW 5123  11.297   1.561   0.019
34409SOL    HW1 5124  11.209   1.596   0.034
34409SOL    HW2 5125  11.329   1.612  14.813
34410SOL     OW 5126   7.800  12.242  12.616
34410SOL    HW1 5127   7.845  12.157  12.621
34410SOL    HW2 5128   7.871  12.305  12.602
34411SOL     OW 5129   5.636   7.183   3.348
34411SOL    HW1 5130   5.716   7.160   3.396
34411SOL    HW2 5131   5.605   7.263   3.391
34412SOL     OW 5132   7.774  11.945  12.795
34412SOL    HW1 5133   7.808  11.992  12.871
34412SOL    HW2 5134   7.680  11.965  12.794
34413SOL     OW 5135   8.305   2.683  14.471
34413SOL    HW1 5136   8.377   2.698  14.409
34413SOL    HW2 5137   8.237   2.745  14.444
34414SOL     OW 5138   7.417   0.051   3.744
34414SOL    HW1 5139   7.344   0.023   3.800
34414SOL    HW2 5140   7.413   0.147   3.747
34415SOL     OW 5141  14.197   4.663   5.121
34415SOL    HW1 5142  14.180   4.593   5.183
34415SOL    HW2 5143  14.124   4.661   5.059
34416SOL     OW 5144   2.283   0.102  10.659
34416SOL    HW1 5145   2.352   0.126  10.721
34416SOL    HW2 5146   2.202   0.132  10.702
34417SOL     OW 5147   6.118   2.071  12.137
34417SOL    HW1 5148   6.199   2.075  12.188
34417SOL    HW2 5149   6.123   2.147  12.079
34418SOL     OW 5150   9.179  14.119   8.314
34418SOL    HW1 5151   9.144  14.183   8.376
34418SOL    HW2 5152   9.119  14.045   8.319
34419SOL     OW 5153   9.854   8.159  11.023
34419SOL    HW1 5154   9.805   8.182  10.944
34419SOL    HW2 5155   9.924   8.224  11.028
34420SOL     OW 5156  14.452   7.803   0.710
34420SOL    HW1 5157  14.470   7.845   0.794
34420SOL    HW2 5158  14.482   7.866   0.645
34421SOL     OW 5159  13.290   9.112   9.673
34421SOL    HW1 5160  13.326   9.084   9.589
34421SOL    HW2 5161  13.342   9.066   9.739
34422SOL     OW 5162   2.333  12.734   4.132
34422SOL    HW1 5163   2.405  12.783   4.171
34422SOL    HW2 5164   2.330  12.652   4.181
34423SOL     OW 5165   1.615   5.342   8.436
34423SOL    HW1 5166   1.574   5.271   8.387
34423SOL    HW2 5167   1.548   5.370   8.498
34424SOL     OW 5168  10.203  10.805  11.314
34424SOL    HW1 5169  10.268  10.865  11.279
34424SOL    HW2 5170  10.127  10.861  11.333
34425SOL     OW 5171  13.144   7.260   4.908
34425SOL    HW1 5172  13.231   7.239   4.939
34425SOL    HW2 5173  13.156   7.337   4.852
34426SOL     OW 5174   4.863  13.025  12.822
34426SOL    HW1 5175   4.785  13.035  12.767
34426SOL    HW2 5176   4.855  12.936  12.858
34427SOL     OW 5177   8.233  12.427   1.146
34427SOL    HW1 5178   8.209  12.495   1.083
34427SOL    HW2 5179   8.212  12.464   1.231
34428SOL     OW 5180  10.669   2.117  12.778
34428SOL    HW1 5181  10.652   2.191  12.836
34428SOL    HW2 5182  10.707   2.050  12.834
34429SOL     OW 5183  11.826   7.715   8.324
34429SOL    HW1 5184  11.786   7.697   8.409
34429SOL    HW2 5185  11.896   7.777   8.343
34430SOL     OW 5186   7.279  11.168   5.180
34430SOL    HW1 5187   7.225  11.115   5.121
34430SOL    HW2 5188   7.297  11.248   5.131
34431SOL     OW 5189   2.400  14.559   6.507
34431SOL    HW1 5190   2.445  14.475   6.516
34431SOL    HW2 5191   2.438  14.598   6.429
34432SOL     OW 5192  12.491   3.204   6.266
34432SOL    HW1 5193  12.520   3.268   6.330
34432SOL    HW2 5194  12.571   3.170   6.227
34433SOL     OW 5195   7.524  14.067   2.775
34433SOL    HW1 5196   7.510  14.037   2.865
34433SOL    HW2 5197   7.619  14.061   2.763
34434SOL     OW 5198   7.587   6.972   7.573
34434SOL    HW1 5199   7.563   7.018   7.653
34434SOL    HW2 5200   7.577   6.879   7.594
34435SOL     OW 5201   6.324   3.936   7.290
34435SOL    HW1 5202   6.377   3.872   7.241
34435SOL    HW2 5203   6.388   3.987   7.340
34436SOL     OW 5204  13.319   7.970  10.954
34436SOL    HW1 5205  13.385   7.988  11.021
34436SOL    HW2 5206  13.283   8.055  10.932
34437SOL     OW 5207  12.067   1.012  13.755
34437SOL    HW1 5208  11.998   1.061  13.711
34437SOL    HW2 5209  12.148   1.045  13.716
34438SOL     OW 5210  10.288  11.276  13.301
34438SOL    HW1 5211  10.364  11.312  13.346
34438SOL    HW2 5212  10.319  11.258  13.212
34439SOL     OW 5213  14.729  10.594   9.048
34439SOL    HW1 5214  14.729  10.609   8.953
34439SOL    HW2 5215  14.768  10.507   9.058
34440SOL     OW 5216  14.619  10.997  10.031
34440SOL    HW1 5217  14.600  11.047  10.111
34440SOL    HW2 5218  14.637  10.908  10.063
34441SOL     OW 5219   6.555  13.075   6.094
34441SOL    HW1 5220   6.487  13.026   6.048
34441SOL    HW2 5221   6.517  13.161   6.111
34442SOL     OW 5222   1.124   2.744  13.117
34442SOL    HW1 5223   1.077   2.751  13.034
34442SOL    HW2 5224   1.213   2.721  13.092
34443SOL     OW 5225   4.886  13.687   4.510
34443SOL    HW1 5226   4.882  13.741   4.589
34443SOL    HW2 5227   4.931  13.607   4.538
34444SOL     OW 5228   0.558  10.526  11.048
34444SOL    HW1 5229   0.616  10.470  11.099
34444SOL    HW2 5230   0.616  10.569  10.985
34445SOL     OW 5231   0.905   6.272   5.308
34445SOL    HW1 5232   0.915   6.366   5.321
34445SOL    HW2 5233   0.963   6.251   5.236
34446SOL     OW 5234   9.686   3.985   2.773
34446SOL    HW1 5235   9.752   3.925   2.739
34446SOL    HW2 5236   9.640   4.017   2.695
34447SOL     OW 5237  14.683   9.852   0.235
34447SOL    HW1 5238  14.599   9.894   0.254
34447SOL    HW2 5239  14.744   9.924   0.221
34448SOL     OW 5240  11.414   5.255   8.586
34448SOL    HW1 5241  11.491   5.280   8.535
34448SOL    HW2 5242  11.369   5.338   8.602
34449SOL     OW 5243   8.479   1.928   1.155
34449SOL    HW1 5244   8.477   1.878   1.074
34449SOL    HW2 5245   8.466   1.863   1.224
34450SOL     OW 5246   7.442  13.544  10.292
34450SOL    HW1 5247   7.392  13.612  10.249
34450SOL    HW2 5248   7.522  13.587  10.321
34451SOL     OW 5249  12.116  14.598   0.696
34451SOL    HW1 5250  12.192  14.613   0.753
34451SOL    HW2 5251  12.048  14.655   0.731
34452SOL     OW 5252   7.421   8.097   0.637
34452SOL    HW1 5253   7.414   8.013   0.591
34452SOL    HW2 5254   7.372   8.158   0.583
34453SOL     OW 5255   7.327   9.264   4.861
34453SOL    HW1 5256   7.389   9.236   4.794
34453SOL    HW2 5257   7.243   9.227   4.833
34454SOL     OW 5258   6.514   6.072   0.739
34454SOL    HW1 5259   6.455   6.038   0.806
34454SOL    HW2 5260   6.484   6.162   0.724
34455SOL     OW 5261   4.851  10.398  10.188
34455SOL    HW1 5262   4.792  10.361  10.123
34455SOL    HW2 5263   4.930  10.422  10.139
34456SOL     OW 5264   2.529   7.176   0.125
34456SOL    HW1 5265   2.609   7.127   0.145
34456SOL    HW2 5266   2.461   7.133   0.176
34457SOL     OW 5267   4.658   9.523  13.071
34457SOL    HW1 5268   4.639   9.447  13.016
34457SOL    HW2 5269   4.747   9.549  13.045
34458SOL     OW 5270   1.707  10.201   8.325
34458SOL    HW1 5271   1.698  10.296   8.318
34458SOL    HW2 5272   1.618  10.167   8.309
34459SOL     OW 5273   0.968   1.404   4.243
34459SOL    HW1 5274   0.892   1.401   4.185
34459SOL    HW2 5275   0.932   1.391   4.331
34460SOL     OW 5276   2.900   2.961   3.757
34460SOL    HW1 5277   2.807   2.964   3.736
34460SOL    HW2 5278   2.929   2.875   3.728
34461SOL     OW 5279   2.526   0.918   2.437
34461SOL    HW1 5280   2.598   0.957   2.387
34461SOL    HW2 5281   2.541   0.823   2.432
34462SOL     OW 5282   2.936   5.302  12.187
34462SOL    HW1 5283   2.998   5.336  12.123
34462SOL    HW2 5284   2.938   5.366  12.259
34463SOL     OW 5285   3.394  10.804   0.379
34463SOL    HW1 5286   3.426  10.718   0.406
34463SOL    HW2 5287   3.446  10.826   0.302
34464SOL     OW 5288   7.598   7.710  11.699
34464SOL    HW1 5289   7.597   7.804  11.715
34464SOL    HW2 5290   7.508   7.689  11.675
34465SOL     OW 5291  11.764   7.442   2.680
34465SOL    HW1 5292  11.761   7.406   2.769
34465SOL    HW2 5293  11.703   7.515   2.682
34466SOL     OW 5294  10.736  10.077   0.123
34466SOL    HW1 5295  10.743   9.986   0.149
34466SOL    HW2 5296  10.653  10.106   0.160
34467SOL     OW 5297   8.705   2.757   7.886
34467SOL    HW1 5298   8.651   2.718   7.955
34467SOL    HW2 5299   8.765   2.688   7.860
34468SOL     OW 5300   0.350  14.613   6.069
34468SOL    HW1 5301   0.316  14.524   6.074
34468SOL    HW2 5302   0.297  14.662   6.132
34469SOL     OW 5303   6.591   6.306   8.994
34469SOL    HW1 5304   6.530   6.360   8.944
34469SOL    HW2 5305   6.541   6.228   9.018
34470SOL     OW 5306  11.928   1.141  14.867
34470SOL    HW1 5307  11.893   1.085   0.069
34470SOL    HW2 5308  11.946   1.081  14.795
34471SOL     OW 5309   4.273  13.176  13.722
34471SOL    HW1 5310   4.360  13.182  13.682
34471SOL    HW2 5311   4.264  13.084  13.747
34472SOL     OW 5312  12.354  11.735  10.255
34472SOL    HW1 5313  12.289  11.762  10.320
34472SOL    HW2 5314  12.335  11.790  10.179
34473SOL     OW 5315   0.184   9.476   1.027
34473SOL    HW1 5316   0.226   9.390   1.025
34473SOL    HW2 5317   0.109   9.465   1.085
34474SOL     OW 5318   8.328  13.869   7.388
34474SOL    HW1 5319   8.364  13.783   7.366
34474SOL    HW2 5320   8.382  13.931   7.339
34475SOL     OW 5321   9.764   5.569   2.372
34475SOL    HW1 5322   9.775   5.475   2.358
34475SOL    HW2 5323   9.670   5.581   2.384
34476SOL     OW 5324   8.477   0.871   6.403
34476SOL    HW1 5325   8.395   0.882   6.451
34476SOL    HW2 5326   8.508   0.961   6.390
34477SOL     OW 5327   4.514  14.315   4.568
34477SOL    HW1 5328   4.566  14.390   4.538
34477SOL    HW2 5329   4.424  14.348   4.571
34478SOL     OW 5330   2.320   8.632   0.653
34478SOL    HW1 5331   2.290   8.549   0.691
34478SOL    HW2 5332   2.369   8.674   0.723
34479SOL     OW 5333  12.907   6.143   0.453
34479SOL    HW1 5334  12.827   6.104   0.417
34479SOL    HW2 5335  12.948   6.187   0.378
34480SOL     OW 5336  11.591   7.779   4.316
34480SOL    HW1 5337  11.577   7.767   4.222
34480SOL    HW2 5338  11.606   7.873   4.326
34481SOL     OW 5339   6.666   8.272  10.211
34481SOL    HW1 5340   6.717   8.212  10.266
34481SOL    HW2 5341   6.614   8.214  10.155
34482SOL     OW 5342   9.994   8.301   5.142
34482SOL    HW1 5343  10.068   8.312   5.201
34482SOL    HW2 5344   9.919   8.336   5.191
34483SOL     OW 5345   4.686  10.343   2.689
34483SOL    HW1 5346   4.657  10.395   2.764
34483SOL    HW2 5347   4.681  10.252   2.719
34484SOL     OW 5348   4.777   5.956   1.553
34484SOL    HW1 5349   4.802   6.046   1.532
34484SOL    HW2 5350   4.840   5.930   1.620
34485SOL     OW 5351  10.539   6.184   1.714
34485SOL    HW1 5352  10.535   6.160   1.807
34485SOL    HW2 5353  10.607   6.128   1.677
34486SOL     OW 5354   6.643   3.260  11.419
34486SOL    HW1 5355   6.601   3.346  11.429
34486SOL    HW2 5356   6.573   3.197  11.437
34487SOL     OW 5357   1.682  11.769   1.542
34487SOL    HW1 5358   1.682  11.706   1.470
34487SOL    HW2 5359   1.627  11.840   1.510
34488SOL     OW 5360   0.558  14.098   0.795
34488SOL    HW1 5361   0.582  14.007   0.816
34488SOL    HW2 5362   0.617  14.151   0.848
34489SOL     OW 5363   3.006  10.529   4.239
34489SOL    HW1 5364   3.051  10.552   4.158
34489SOL    HW2 5365   3.068  10.472   4.285
34490SOL     OW 5366   8.915  13.743   9.714
34490SOL    HW1 5367   8.929  13.786   9.798
34490SOL    HW2 5368   8.969  13.664   9.717
34491SOL     OW 5369  12.472   5.375   9.291
34491SOL    HW1 5370  12.557   5.419   9.302
34491SOL    HW2 5371  12.494   5.283   9.278
34492SOL     OW 5372  11.177  14.633  11.860
34492SOL    HW1 5373  11.244  14.584  11.813
34492SOL    HW2 5374  11.099  14.625  11.805
34493SOL     OW 5375  11.227  11.060  13.279
34493SOL    HW1 5376  11.253  10.974  13.247
34493SOL    HW2 5377  11.305  11.095  13.322
34494SOL     OW 5378   0.272   7.048  11.408
34494SOL    HW1 5379   0.362   7.036  11.378
34494SOL    HW2 5380   0.281   7.080  11.498
34495SOL     OW 5381  10.404   9.783   7.841
34495SOL    HW1 5382  10.384   9.692   7.818
34495SOL    HW2 5383  10.494   9.781   7.873
34496SOL     OW 5384   7.093  11.648  14.084
34496SOL    HW1 5385   7.026  11.713  14.062
34496SOL    HW2 5386   7.156  11.696  14.137
34497SOL     OW 5387  13.443   9.820   3.626
34497SOL    HW1 5388  13.421   9.871   3.704
34497SOL    HW2 5389  13.365   9.824   3.572
34498SOL     OW 5390   3.392  12.049  11.531
34498SOL    HW1 5391   3.436  12.117  11.581
34498SOL    HW2 5392   3.461  11.986  11.510
34499SOL     OW 5393   7.145   1.167   2.200
34499SOL    HW1 5394   7.183   1.106   2.137
34499SOL    HW2 5395   7.162   1.254   2.163
34500SOL     OW 5396   5.791  11.392   8.029
34500SOL    HW1 5397   5.756  11.477   8.002
34500SOL    HW2 5398   5.775  11.334   7.955
34501SOL     OW 5399   0.771  12.345   3.801
34501SOL    HW1 5400   0.781  12.320   3.709
34501SOL    HW2 5401   0.680  12.322   3.821
34502SOL     OW 5402   1.207   3.814   0.130
34502SOL    HW1 5403   1.162   3.736   0.161
34502SOL    HW2 5404   1.291   3.813   0.175
34503SOL     OW 5405   0.536   6.624   4.424
34503SOL    HW1 5406   0.505   6.535   4.403
34503SOL    HW2 5407   0.588   6.650   4.348
34504SOL     OW 5408   1.239   5.390   3.602
34504SOL    HW1 5409   1.149   5.415   3.580
34504SOL    HW2 5410   1.291   5.420   3.527
34505SOL     OW 5411   5.754  11.580  10.926
34505SOL    HW1 5412   5.758  11.486  10.944
34505SOL    HW2 5413   5.799  11.590  10.842
34506SOL     OW 5414   9.942   8.974  11.082
34506SOL    HW1 5415  10.009   8.912  11.053
34506SOL    HW2 5416   9.950   8.975  11.177
34507SOL     OW 5417   7.412  14.200   6.666
34507SOL    HW1 5418   7.414  14.108   6.637
34507SOL    HW2 5419   7.351  14.200   6.740
34508SOL     OW 5420  12.997   6.505   9.141
34508SOL    HW1 5421  12.932   6.507   9.211
34508SOL    HW2 5422  13.051   6.583   9.156
34509SOL     OW 5423   6.020  12.140  12.584
34509SOL    HW1 5424   6.023  12.147  12.680
34509SOL    HW2 5425   6.073  12.063  12.564
34510SOL     OW 5426   1.701  13.438   6.961
34510SOL    HW1 5427   1.759  13.366   6.986
34510SOL    HW2 5428   1.645  13.451   7.038
34511SOL     OW 5429   6.890   1.771  10.513
34511SOL    HW1 5430   6.887   1.733  10.600
34511SOL    HW2 5431   6.905   1.864  10.528
34512SOL     OW 5432  11.674   7.724   1.523
34512SOL    HW1 5433  11.622   7.681   1.454
34512SOL    HW2 5434  11.751   7.669   1.532
34513SOL     OW 5435  14.311   9.960   5.378
34513SOL    HW1 5436  14.365  10.013   5.319
34513SOL    HW2 5437  14.276   9.890   5.322
34514SOL     OW 5438  14.629   1.955   0.360
34514SOL    HW1 5439  14.623   1.861   0.375
34514SOL    HW2 5440  14.557   1.992   0.411
34515SOL     OW 5441   7.935  13.550   9.079
34515SOL    HW1 5442   7.881  13.625   9.103
34515SOL    HW2 5443   8.008  13.551   9.141
34516SOL     OW 5444   2.118  11.323   4.698
34516SOL    HW1 5445   2.052  11.288   4.756
34516SOL    HW2 5446   2.092  11.415   4.685
34517SOL     OW 5447   7.263  12.384   3.819
34517SOL    HW1 5448   7.240  12.459   3.764
34517SOL    HW2 5449   7.206  12.391   3.896
34518SOL     OW 5450  10.613   0.964   3.756
34518SOL    HW1 5451  10.573   0.877   3.757
34518SOL    HW2 5452  10.665   0.965   3.675
34519SOL     OW 5453   9.572   5.884   8.936
34519SOL    HW1 5454   9.621   5.964   8.959
34519SOL    HW2 5455   9.491   5.890   8.987
34520SOL     OW 5456   2.971   4.111   5.108
34520SOL    HW1 5457   3.030   4.175   5.069
34520SOL    HW2 5458   3.029   4.046   5.149
34521SOL     OW 5459   1.621  10.267  10.277
34521SOL    HW1 5460   1.709  10.295  10.249
34521SOL    HW2 5461   1.588  10.215  10.203
34522SOL     OW 5462   0.417   5.281   2.411
34522SOL    HW1 5463   0.342   5.340   2.401
34522SOL    HW2 5464   0.460   5.309   2.491
34523SOL     OW 5465   7.825  11.831   6.436
34523SOL    HW1 5466   7.891  11.775   6.395
34523SOL    HW2 5467   7.745  11.779   6.434
34524SOL     OW 5468  12.876  10.593   9.980
34524SOL    HW1 5469  12.823  10.567  10.055
34524SOL    HW2 5470  12.861  10.524   9.915
34525SOL     OW 5471   7.857   7.476  12.215
34525SOL    HW1 5472   7.829   7.401  12.163
34525SOL    HW2 5473   7.921   7.440  12.277
34526SOL     OW 5474   0.995   6.232  11.189
34526SOL    HW1 5475   0.990   6.143  11.154
34526SOL    HW2 5476   0.961   6.287  11.119
34527SOL     OW 5477   7.171   9.738   5.433
34527SOL    HW1 5478   7.189   9.722   5.525
34527SOL    HW2 5479   7.257   9.737   5.391
34528SOL     OW 5480   3.814   5.869  10.248
34528SOL    HW1 5481   3.879   5.801  10.236
34528SOL    HW2 5482   3.860   5.951  10.228
34529SOL     OW 5483   2.548   5.075  13.229
34529SOL    HW1 5484   2.504   5.149  13.187
34529SOL    HW2 5485   2.497   5.056  13.307
34530SOL     OW 5486   4.748  10.307  11.893
34530SOL    HW1 5487   4.658  10.279  11.913
34530SOL    HW2 5488   4.804  10.245  11.938
34531SOL     OW 5489   1.707   1.579   6.513
34531SOL    HW1 5490   1.794   1.544   6.530
34531SOL    HW2 5491   1.672   1.523   6.444
34532SOL     OW 5492  11.025   5.560  12.132
34532SOL    HW1 5493  11.095   5.568  12.067
34532SOL    HW2 5494  10.978   5.643  12.128
34533SOL     OW 5495   7.313  13.088   9.425
34533SOL    HW1 5496   7.291  12.995   9.428
34533SOL    HW2 5497   7.334  13.105   9.333
34534SOL     OW 5498  13.615  13.106   2.852
34534SOL    HW1 5499  13.679  13.036   2.870
34534SOL    HW2 5500  13.663  13.170   2.800
34535SOL     OW 5501   6.596   0.507  13.261
34535SOL    HW1 5502   6.502   0.489  13.265
34535SOL    HW2 5503   6.604   0.578  13.197
34536SOL     OW 5504   7.426   3.364   6.748
34536SOL    HW1 5505   7.372   3.388   6.823
34536SOL    HW2 5506   7.364   3.329   6.684
34537SOL     OW 5507   1.908   0.016   9.170
34537SOL    HW1 5508   1.860  14.802   9.165
34537SOL    HW2 5509   1.974   0.002   9.238
34538SOL     OW 5510  12.786  12.747  14.080
34538SOL    HW1 5511  12.865  12.752  14.026
34538SOL    HW2 5512  12.750  12.836  14.077
34539SOL     OW 5513   7.314  12.428   7.303
34539SOL    HW1 5514   7.225  12.414   7.272
34539SOL    HW2 5515   7.317  12.387   7.389
34540SOL     OW 5516  11.430   8.944  12.347
34540SOL    HW1 5517  11.397   9.013  12.289
34540SOL    HW2 5518  11.511   8.980  12.383
34541SOL     OW 5519  11.943   7.227   4.955
34541SOL    HW1 5520  11.935   7.155   4.892
34541SOL    HW2 5521  11.885   7.295   4.921
34542SOL     OW 5522   1.034   0.262   1.050
34542SOL    HW1 5523   1.055   0.195   0.985
34542SOL    HW2 5524   1.109   0.322   1.047
34543SOL     OW 5525   7.362   7.310   6.492
34543SOL    HW1 5526   7.328   7.326   6.580
34543SOL    HW2 5527   7.446   7.356   6.491
34544SOL     OW 5528   1.490   3.886   8.257
34544SOL    HW1 5529   1.534   3.843   8.183
34544SOL    HW2 5530   1.512   3.833   8.333
34545SOL     OW 5531   8.420   1.744   1.356
34545SOL    HW1 5532   8.460   1.803   1.420
34545SOL    HW2 5533   8.393   1.669   1.408
34546SOL     OW 5534  11.834  13.680   1.252
34546SOL    HW1 5535  11.871  13.592   1.245
34546SOL    HW2 5536  11.751  13.668   1.297
34547SOL     OW 5537   9.487   2.660  11.245
34547SOL    HW1 5538   9.542   2.734  11.271
34547SOL    HW2 5539   9.496   2.597  11.316
34548SOL     OW 5540  13.593   4.450   1.052
34548SOL    HW1 5541  13.673   4.501   1.058
34548SOL    HW2 5542  13.618   4.361   1.076
34549SOL     OW 5543   6.981   1.648  12.676
34549SOL    HW1 5544   7.050   1.582  12.677
34549SOL    HW2 5545   6.933   1.631  12.595
34550SOL     OW 5546  11.586  13.589   6.584
34550SOL    HW1 5547  11.496  13.588   6.553
34550SOL    HW2 5548  11.578  13.603   6.679
34551SOL     OW 5549   8.760  13.108  10.617
34551SOL    HW1 5550   8.810  13.189  10.621
34551SOL    HW2 5551   8.773  13.068  10.703
34552SOL     OW 5552  14.381   8.778   5.723
34552SOL    HW1 5553  14.302   8.731   5.699
34552SOL    HW2 5554  14.428   8.719   5.782
34553SOL     OW 5555   8.251  10.972   7.902
34553SOL    HW1 5556   8.188  10.900   7.912
34553SOL    HW2 5557   8.322  10.935   7.850
34554SOL     OW 5558  13.155  11.847   7.780
34554SOL    HW1 5559  13.212  11.856   7.704
34554SOL    HW2 5560  13.088  11.914   7.767
34555SOL     OW 5561   9.042   7.166   5.199
34555SOL    HW1 5562   9.121   7.213   5.224
34555SOL    HW2 5563   9.041   7.088   5.254
34556SOL     OW 5564   6.547   8.135  12.990
34556SOL    HW1 5565   6.544   8.200  13.060
34556SOL    HW2 5566   6.561   8.052  13.035
34557SOL     OW 5567  12.747   3.378   5.416
34557SOL    HW1 5568  12.750   3.283   5.414
34557SOL    HW2 5569  12.835   3.406   5.390
34558SOL     OW 5570   7.186  11.764   7.714
34558SOL    HW1 5571   7.114  11.730   7.662
34558SOL    HW2 5572   7.145  11.810   7.786
34559SOL     OW 5573   5.670   1.610   1.126
34559SOL    HW1 5574   5.721   1.616   1.206
34559SOL    HW2 5575   5.640   1.700   1.111
34560SOL     OW 5576   8.110   2.098   9.821
34560SOL    HW1 5577   8.026   2.113   9.778
34560SOL    HW2 5578   8.087   2.051   9.902
34561SOL     OW 5579   7.099   9.427  12.480
34561SOL    HW1 5580   7.044   9.387  12.548
34561SOL    HW2 5581   7.172   9.465  12.528
34562SOL     OW 5582  11.519   2.725   6.939
34562SOL    HW1 5583  11.507   2.639   6.899
34562SOL    HW2 5584  11.467   2.722   7.019
34563SOL     OW 5585  11.808   3.374  12.390
34563SOL    HW1 5586  11.841   3.440  12.329
34563SOL    HW2 5587  11.819   3.291  12.343
34564SOL     OW 5588  11.575  10.525   9.269
34564SOL    HW1 5589  11.613  10.587   9.332
34564SOL    HW2 5590  11.579  10.571   9.185
34565SOL     OW 5591   7.378   7.085   8.646
34565SOL    HW1 5592   7.284   7.102   8.644
34565SOL    HW2 5593   7.387   6.998   8.607
34566SOL     OW 5594  12.854  13.780   2.879
34566SOL    HW1 5595  12.868  13.843   2.950
34566SOL    HW2 5596  12.762  13.754   2.889
34567SOL     OW 5597  13.826  13.767  11.723
34567SOL    HW1 5598  13.756  13.724  11.674
34567SOL    HW2 5599  13.856  13.837  11.666
34568SOL     OW 5600   9.388  10.946  13.508
34568SOL    HW1 5601   9.382  10.900  13.591
34568SOL    HW2 5602   9.465  10.909  13.465
34569SOL     OW 5603  10.336  11.642   8.054
34569SOL    HW1 5604  10.240  11.640   8.053
34569SOL    HW2 5605  10.361  11.590   7.978
34570SOL     OW 5606   7.094   1.946   5.478
34570SOL    HW1 5607   7.148   1.897   5.416
34570SOL    HW2 5608   7.134   2.033   5.480
34571SOL     OW 5609   8.045   6.826   8.160
34571SOL    HW1 5610   8.104   6.872   8.101
34571SOL    HW2 5611   7.984   6.894   8.190
34572SOL     OW 5612   9.003   1.907   9.701
34572SOL    HW1 5613   8.938   1.941   9.762
34572SOL    HW2 5614   8.978   1.816   9.686
34573SOL     OW 5615   0.488   4.087   2.687
34573SOL    HW1 5616   0.456   4.177   2.694
34573SOL    HW2 5617   0.524   4.081   2.598
34574SOL     OW 5618   1.248   8.807   8.895
34574SOL    HW1 5619   1.271   8.772   8.810
34574SOL    HW2 5620   1.195   8.885   8.876
34575SOL     OW 5621   4.048  12.201   4.320
34575SOL    HW1 5622   4.022  12.157   4.239
34575SOL    HW2 5623   4.040  12.294   4.300
34576SOL     OW 5624   7.842  13.288   0.059
34576SOL    HW1 5625   7.906  13.289   0.131
34576SOL    HW2 5626   7.849  13.374   0.019
34577SOL     OW 5627   1.213   6.065  11.412
34577SOL    HW1 5628   1.132   6.017  11.426
34577SOL    HW2 5629   1.255   6.020  11.339
34578SOL     OW 5630   7.604   5.074   8.989
34578SOL    HW1 5631   7.603   4.984   8.958
34578SOL    HW2 5632   7.513   5.093   9.010
34579SOL     OW 5633   9.629   5.162  11.819
34579SOL    HW1 5634   9.723   5.164  11.805
34579SOL    HW2 5635   9.604   5.254  11.828
34580SOL     OW 5636  10.597   2.660   0.742
34580SOL    HW1 5637  10.625   2.651   0.651
34580SOL    HW2 5638  10.512   2.704   0.736
34581SOL     OW 5639   2.038   7.856   1.356
34581SOL    HW1 5640   1.973   7.791   1.327
34581SOL    HW2 5641   2.009   7.882   1.443
34582SOL     OW 5642   5.461   3.367   6.841
34582SOL    HW1 5643   5.556   3.364   6.838
34582SOL    HW2 5644   5.434   3.352   6.751
34583SOL     OW 5645  12.410   5.875   8.216
34583SOL    HW1 5646  12.497   5.844   8.188
34583SOL    HW2 5647  12.374   5.803   8.267
34584SOL     OW 5648   7.704  11.976   2.701
34584SOL    HW1 5649   7.633  12.040   2.710
34584SOL    HW2 5650   7.660  11.891   2.708
34585SOL     OW 5651  12.824   5.320   5.471
34585SOL    HW1 5652  12.866   5.248   5.424
34585SOL    HW2 5653  12.795   5.281   5.553
34586SOL     OW 5654  14.480   0.431  13.572
34586SOL    HW1 5655  14.518   0.369  13.635
34586SOL    HW2 5656  14.512   0.516  13.600
34587SOL     OW 5657   9.200   8.115   7.854
34587SOL    HW1 5658   9.287   8.141   7.884
34587SOL    HW2 5659   9.186   8.166   7.775
34588SOL     OW 5660   4.747   1.582  11.081
34588SOL    HW1 5661   4.812   1.513  11.066
34588SOL    HW2 5662   4.792   1.663  11.056
34589SOL     OW 5663  10.435  12.057   2.006
34589SOL    HW1 5664  10.407  12.148   2.001
34589SOL    HW2 5665  10.355  12.006   1.996
34590SOL     OW 5666  11.705  13.952   9.893
34590SOL    HW1 5667  11.704  13.864   9.929
34590SOL    HW2 5668  11.759  13.945   9.814
34591SOL     OW 5669  12.814   8.240   2.751
34591SOL    HW1 5670  12.823   8.320   2.698
34591SOL    HW2 5671  12.781   8.175   2.689
34592SOL     OW 5672  13.228  11.180  14.013
34592SOL    HW1 5673  13.188  11.257  13.973
34592SOL    HW2 5674  13.321  11.189  13.996
34593SOL     OW 5675  12.036  11.175   6.195
34593SOL    HW1 5676  11.976  11.104   6.173
34593SOL    HW2 5677  12.089  11.141   6.267
34594SOL     OW 5678   8.938  12.308   9.231
34594SOL    HW1 5679   8.869  12.373   9.216
34594SOL    HW2 5680   8.935  12.290   9.324
34595SOL     OW 5681   6.210   2.605   4.671
34595SOL    HW1 5682   6.230   2.577   4.760
34595SOL    HW2 5683   6.219   2.700   4.673
34596SOL     OW 5684   9.886   7.281   7.100
34596SOL    HW1 5685   9.912   7.255   7.188
34596SOL    HW2 5686   9.890   7.200   7.049
34597SOL     OW 5687   5.185   2.110   9.506
34597SOL    HW1 5688   5.101   2.156   9.512
34597SOL    HW2 5689   5.242   2.171   9.459
34598SOL     OW 5690   0.681   6.025  14.286
34598SOL    HW1 5691   0.704   6.071  14.206
34598SOL    HW2 5692   0.592   5.991  14.271
34599SOL     OW 5693   2.643  12.921   4.858
34599SOL    HW1 5694   2.583  12.967   4.799
34599SOL    HW2 5695   2.730  12.947   4.828
34600SOL     OW 5696   2.619  12.046  12.725
34600SOL    HW1 5697   2.592  11.975  12.667
34600SOL    HW2 5698   2.540  12.069  12.774
34601SOL     OW 5699   3.472   8.551   6.348
34601SOL    HW1 5700   3.399   8.502   6.388
34601SOL    HW2 5701   3.434   8.636   6.325
34602SOL     OW 5702   6.662   5.807   0.351
34602SOL    HW1 5703   6.585   5.856   0.379
34602SOL    HW2 5704   6.735   5.869   0.360
34603SOL     OW 5705   5.784   1.041   7.676
34603SOL    HW1 5706   5.776   1.132   7.647
34603SOL    HW2 5707   5.694   1.009   7.679
34604SOL     OW 5708  10.678  11.637   0.783
34604SOL    HW1 5709  10.690  11.716   0.835
34604SOL    HW2 5710  10.594  11.651   0.738
34605SOL     OW 5711   0.878   4.153   5.153
34605SOL    HW1 5712   0.830   4.228   5.188
34605SOL    HW2 5713   0.860   4.082   5.215
34606SOL     OW 5714  11.519   3.423  14.470
34606SOL    HW1 5715  11.603   3.444  14.429
34606SOL    HW2 5716  11.456   3.481  14.427
34607SOL     OW 5717   7.926   6.618   0.431
34607SOL    HW1 5718   7.857   6.564   0.469
34607SOL    HW2 5719   7.879   6.684   0.379
34608SOL     OW 5720   4.843  13.086   5.441
34608SOL    HW1 5721   4.758  13.043   5.426
34608SOL    HW2 5722   4.842  13.162   5.383
34609SOL     OW 5723  10.912   3.634   8.714
34609SOL    HW1 5724  10.980   3.684   8.759
34609SOL    HW2 5725  10.842   3.626   8.778
34610SOL     OW 5726   6.295   5.848   6.214
34610SOL    HW1 5727   6.204   5.851   6.243
34610SOL    HW2 5728   6.291   5.801   6.130
34611SOL     OW 5729  13.698   0.594   6.592
34611SOL    HW1 5730  13.689   0.498   6.593
34611SOL    HW2 5731  13.608   0.627   6.596
34612SOL     OW 5732   0.430  14.326   6.928
34612SOL    HW1 5733   0.415  14.239   6.890
34612SOL    HW2 5734   0.521  14.346   6.907
34613SOL     OW 5735   3.806   9.368  11.040
34613SOL    HW1 5736   3.783   9.442  10.984
34613SOL    HW2 5737   3.724   9.320  11.052
34614SOL     OW 5738   2.883   8.074   9.445
34614SOL    HW1 5739   2.845   8.093   9.359
34614SOL    HW2 5740   2.975   8.095   9.436
34615SOL     OW 5741   5.789   0.297   6.862
34615SOL    HW1 5742   5.844   0.254   6.928
34615SOL    HW2 5743   5.745   0.367   6.910
34616SOL     OW 5744   3.313   3.667  10.237
34616SOL    HW1 5745   3.237   3.629  10.282
34616SOL    HW2 5746   3.351   3.594  10.188
34617SOL     OW 5747   7.044   1.041   5.220
34617SOL    HW1 5748   6.979   0.976   5.249
34617SOL    HW2 5749   7.101   0.992   5.161
34618SOL     OW 5750   5.269  13.447   0.775
34618SOL    HW1 5751   5.348  13.399   0.748
34618SOL    HW2 5752   5.255  13.511   0.705
34619SOL     OW 5753   9.112   9.877  11.794
34619SOL    HW1 5754   9.173   9.808  11.767
34619SOL    HW2 5755   9.065   9.900  11.714
34620SOL     OW 5756   7.260   3.986  14.367
34620SOL    HW1 5757   7.235   3.913  14.311
34620SOL    HW2 5758   7.348   4.010  14.337
34621SOL     OW 5759   6.489   6.553   3.851
34621SOL    HW1 5760   6.487   6.538   3.756
34621SOL    HW2 5761   6.407   6.597   3.870
34622SOL     OW 5762   9.001  10.886   1.715
34622SOL    HW1 5763   8.918  10.931   1.703
34622SOL    HW2 5764   8.992  10.842   1.800
34623SOL     OW 5765   2.077   0.872   4.404
34623SOL    HW1 5766   2.040   0.797   4.358
34623SOL    HW2 5767   2.148   0.836   4.457
34624SOL     OW 5768  14.626   2.238   6.669
34624SOL    HW1 5769  14.671   2.257   6.750
34624SOL    HW2 5770  14.592   2.149   6.680
34625SOL     OW 5771   6.514  14.533   7.435
34625SOL    HW1 5772   6.594  14.481   7.438
34625SOL    HW2 5773   6.449  14.481   7.482
34626SOL     OW 5774   0.616   8.212   5.135
34626SOL    HW1 5775   0.641   8.178   5.049
34626SOL    HW2 5776   0.579   8.298   5.117
34627SOL     OW 5777   5.642   8.048   0.089
34627SOL    HW1 5778   5.703   7.981   0.057
34627SOL    HW2 5779   5.649   8.043   0.184
34628SOL     OW 5780  11.930   9.680   9.204
34628SOL    HW1 5781  11.841   9.713   9.210
34628SOL    HW2 5782  11.964   9.716   9.122
34629SOL     OW 5783  11.314   1.834  10.803
34629SOL    HW1 5784  11.374   1.887  10.750
34629SOL    HW2 5785  11.316   1.875  10.890
34630SOL     OW 5786   4.165  11.263   9.176
34630SOL    HW1 5787   4.225  11.204   9.221
34630SOL    HW2 5788   4.160  11.228   9.087
34631SOL     OW 5789   7.621   8.785   1.553
34631SOL    HW1 5790   7.608   8.823   1.466
34631SOL    HW2 5791   7.716   8.778   1.563
34632SOL     OW 5792   7.380   6.116   2.158
34632SOL    HW1 5793   7.419   6.182   2.100
34632SOL    HW2 5794   7.435   6.039   2.146
34633SOL     OW 5795   9.614  10.757   4.969
34633SOL    HW1 5796   9.633  10.829   5.028
34633SOL    HW2 5797   9.654  10.680   5.010
34634SOL     OW 5798   7.977  12.545   3.765
34634SOL    HW1 5799   7.956  12.497   3.685
34634SOL    HW2 5800   7.891  12.568   3.802
34635SOL     OW 5801  13.027   4.444   4.015
34635SOL    HW1 5802  13.001   4.508   3.949
34635SOL    HW2 5803  13.038   4.362   3.967
34636SOL     OW 5804   2.574  11.109   2.286
34636SOL    HW1 5805   2.493  11.060   2.270
34636SOL    HW2 5806   2.642  11.058   2.242
34637SOL     OW 5807  11.344  14.741  14.313
34637SOL    HW1 5808  11.261  14.751  14.361
34637SOL    HW2 5809  11.317  14.709  14.227
34638SOL     OW 5810   9.285   4.584  10.537
34638SOL    HW1 5811   9.287   4.644  10.611
34638SOL    HW2 5812   9.369   4.538  10.541
34639SOL     OW 5813   3.685   6.365   6.970
34639SOL    HW1 5814   3.730   6.329   7.046
34639SOL    HW2 5815   3.754   6.407   6.919
34640SOL     OW 5816  10.427   6.027   0.735
34640SOL    HW1 5817  10.469   6.106   0.702
34640SOL    HW2 5818  10.479   6.002   0.812
34641SOL     OW 5819   0.609   1.339   8.938
34641SOL    HW1 5820   0.669   1.277   8.897
34641SOL    HW2 5821   0.662   1.386   9.002
34642SOL     OW 5822   5.271   0.765   7.443
34642SOL    HW1 5823   5.245   0.683   7.484
34642SOL    HW2 5824   5.193   0.820   7.447
34643SOL     OW 5825  13.157   8.380   8.290
34643SOL    HW1 5826  13.115   8.392   8.376
34643SOL    HW2 5827  13.243   8.344   8.310
34644SOL     OW 5828   6.382   1.845   3.281
34644SOL    HW1 5829   6.308   1.825   3.223
34644SOL    HW2 5830   6.447   1.778   3.261
34645SOL     OW 5831  12.946  13.324  14.814
34645SOL    HW1 5832  12.959  13.334  14.719
34645SOL    HW2 5833  13.003  13.251  14.838
34646SOL     OW 5834   3.441   5.385   3.951
34646SOL    HW1 5835   3.495   5.432   3.887
34646SOL    HW2 5836   3.471   5.418   4.036
34647SOL     OW 5837   3.005  10.120   3.509
34647SOL    HW1 5838   3.086  10.092   3.467
34647SOL    HW2 5839   2.976  10.043   3.558
34648SOL     OW 5840   0.931  11.068   7.140
34648SOL    HW1 5841   0.846  11.108   7.122
34648SOL    HW2 5842   0.982  11.138   7.182
34649SOL     OW 5843   8.569   3.318   6.569
34649SOL    HW1 5844   8.623   3.337   6.646
34649SOL    HW2 5845   8.587   3.226   6.549
34650SOL     OW 5846  12.344   4.246   2.367
34650SOL    HW1 5847  12.296   4.176   2.410
34650SOL    HW2 5848  12.292   4.267   2.289
34651SOL     OW 5849  12.429   8.631  12.840
34651SOL    HW1 5850  12.480   8.558  12.805
34651SOL    HW2 5851  12.489   8.677  12.898
34652SOL     OW 5852   4.709   9.672   5.686
34652SOL    HW1 5853   4.632   9.624   5.717
34652SOL    HW2 5854   4.756   9.609   5.631
34653SOL     OW 5855  13.298   0.311  10.355
34653SOL    HW1 5856  13.341   0.396  10.349
34653SOL    HW2 5857  13.330   0.272  10.436
34654SOL     OW 5858  11.280  11.945   4.869
34654SOL    HW1 5859  11.284  11.865   4.922
34654SOL    HW2 5860  11.238  11.918   4.788
34655SOL     OW 5861   4.927   7.524   9.827
34655SOL    HW1 5862   4.946   7.466   9.753
34655SOL    HW2 5863   4.947   7.471   9.904
34656SOL     OW 5864   7.889   8.955   6.694
34656SOL    HW1 5865   7.871   9.043   6.659
34656SOL    HW2 5866   7.841   8.896   6.636
34657SOL     OW 5867   1.469   0.014  10.232
34657SOL    HW1 5868   1.532  14.844  10.171
34657SOL    HW2 5869   1.411   0.068  10.177
34658SOL     OW 5870   1.681   6.779   7.635
34658SOL    HW1 5871   1.760   6.775   7.581
34658SOL    HW2 5872   1.624   6.711   7.599
34659SOL     OW 5873   1.998   7.276  12.979
34659SOL    HW1 5874   1.915   7.269  13.027
34659SOL    HW2 5875   2.060   7.225  13.031
34660SOL     OW 5876   8.225   5.901   0.633
34660SOL    HW1 5877   8.281   5.979   0.634
34660SOL    HW2 5878   8.274   5.835   0.682
34661SOL     OW 5879   4.898   1.657   9.768
34661SOL    HW1 5880   4.973   1.601   9.786
34661SOL    HW2 5881   4.935   1.734   9.724
34662SOL     OW 5882  11.825  13.660   0.400
34662SOL    HW1 5883  11.773  13.736   0.375
34662SOL    HW2 5884  11.809  13.596   0.330
34663SOL     OW 5885   8.885   3.939   0.485
34663SOL    HW1 5886   8.872   3.904   0.573
34663SOL    HW2 5887   8.911   4.030   0.498
34664SOL     OW 5888   5.289   5.111  12.860
34664SOL    HW1 5889   5.351   5.179  12.886
34664SOL    HW2 5890   5.214   5.159  12.824
34665SOL     OW 5891   5.492   6.182  14.804
34665SOL    HW1 5892   5.584   6.203  14.820
34665SOL    HW2 5893   5.495   6.123  14.729
34666SOL     OW 5894  13.399   8.617   0.647
34666SOL    HW1 5895  13.346   8.695   0.665
34666SOL    HW2 5896  13.486   8.650   0.626
34667SOL     OW 5897   8.432   1.569   2.094
34667SOL    HW1 5898   8.425   1.509   2.168
34667SOL    HW2 5899   8.358   1.628   2.103
34668SOL     OW 5900   4.697   7.271  11.364
34668SOL    HW1 5901   4.791   7.252  11.359
34668SOL    HW2 5902   4.659   7.193  11.403
34669SOL     OW 5903   5.150   7.537  12.935
34669SOL    HW1 5904   5.215   7.491  12.883
34669SOL    HW2 5905   5.151   7.493  13.020
34670SOL     OW 5906  11.461  14.060   1.038
34670SOL    HW1 5907  11.401  14.002   0.990
34670SOL    HW2 5908  11.515  14.000   1.090
34671SOL     OW 5909  13.078  14.620  14.605
34671SOL    HW1 5910  13.128  14.539  14.622
34671SOL    HW2 5911  12.987  14.596  14.622
34672SOL     OW 5912   8.127  12.404   8.212
34672SOL    HW1 5913   8.078  12.370   8.287
34672SOL    HW2 5914   8.155  12.491   8.239
34673SOL     OW 5915   5.019  11.879  12.286
34673SOL    HW1 5916   5.025  11.796  12.239
34673SOL    HW2 5917   4.953  11.929  12.238
34674SOL     OW 5918   9.820   5.452  13.512
34674SOL    HW1 5919   9.906   5.446  13.554
34674SOL    HW2 5920   9.757   5.436  13.582
34675SOL     OW 5921   8.248  14.138   5.326
34675SOL    HW1 5922   8.165  14.185   5.335
34675SOL    HW2 5923   8.312  14.208   5.309
34676SOL     OW 5924   9.541  14.729   1.090
34676SOL    HW1 5925   9.584  14.664   1.145
34676SOL    HW2 5926   9.519  14.682   1.010
34677SOL     OW 5927  13.292   0.338   9.709
34677SOL    HW1 5928  13.270   0.253   9.672
34677SOL    HW2 5929  13.328   0.317   9.795
34678SOL     OW 5930  12.534   4.999   2.832
34678SOL    HW1 5931  12.486   5.065   2.881
34678SOL    HW2 5932  12.624   5.007   2.864
34679SOL     OW 5933   1.384   9.961   2.359
34679SOL    HW1 5934   1.368   9.867   2.363
34679SOL    HW2 5935   1.299  10.001   2.376
34680SOL     OW 5936   4.341   2.358   4.345
34680SOL    HW1 5937   4.384   2.345   4.430
34680SOL    HW2 5938   4.262   2.305   4.350
34681SOL     OW 5939   3.587   1.859   3.317
34681SOL    HW1 5940   3.607   1.788   3.378
34681SOL    HW2 5941   3.499   1.888   3.341
34682SOL     OW 5942  10.954   2.513  11.347
34682SOL    HW1 5943  10.902   2.490  11.424
34682SOL    HW2 5944  10.929   2.449  11.281
34683SOL     OW 5945   0.716   6.908  11.689
34683SOL    HW1 5946   0.626   6.903  11.720
34683SOL    HW2 5947   0.748   6.818  11.695
34684SOL     OW 5948  14.782   0.136   3.232
34684SOL    HW1 5949  14.716   0.079   3.194
34684SOL    HW2 5950  14.832   0.080   3.292
34685SOL     OW 5951   0.852   3.591   4.546
34685SOL    HW1 5952   0.938   3.624   4.573
34685SOL    HW2 5953   0.791   3.628   4.610
34686SOL     OW 5954  10.352   5.088   9.353
34686SOL    HW1 5955  10.385   5.050   9.272
34686SOL    HW2 5956  10.379   5.028   9.422
34687SOL     OW 5957   9.920   5.483   5.919
34687SOL    HW1 5958   9.870   5.529   5.985
34687SOL    HW2 5959  10.001   5.457   5.963
34688SOL     OW 5960   6.787   9.297  10.145
34688SOL    HW1 5961   6.821   9.233  10.083
34688SOL    HW2 5962   6.766   9.374  10.092
34689SOL     OW 5963   3.129  12.384   9.777
34689SOL    HW1 5964   3.097  12.379   9.687
34689SOL    HW2 5965   3.143  12.478   9.793
34690SOL     OW 5966   3.887   8.359   7.326
34690SOL    HW1 5967   3.823   8.384   7.392
34690SOL    HW2 5968   3.868   8.267   7.307
34691SOL     OW 5969   2.135   9.455   8.251
34691SOL    HW1 5970   2.139   9.530   8.192
34691SOL    HW2 5971   2.178   9.485   8.331
34692SOL     OW 5972   6.431   1.673   9.467
34692SOL    HW1 5973   6.353   1.672   9.523
34692SOL    HW2 5974   6.485   1.601   9.499
34693SOL     OW 5975  10.560   2.875  12.222
34693SOL    HW1 5976  10.533   2.940  12.157
34693SOL    HW2 5977  10.495   2.882  12.292
34694SOL     OW 5978  12.843  13.920   2.534
34694SOL    HW1 5979  12.881  13.836   2.509
34694SOL    HW2 5980  12.874  13.982   2.468
34695SOL     OW 5981   9.230  12.685   4.805
34695SOL    HW1 5982   9.259  12.663   4.716
34695SOL    HW2 5983   9.308  12.671   4.859
34696SOL     OW 5984  14.561   5.391   8.353
34696SOL    HW1 5985  14.637   5.414   8.406
34696SOL    HW2 5986  14.566   5.296   8.343
34697SOL     OW 5987  10.622  12.180   0.605
34697SOL    HW1 5988  10.684  12.149   0.539
34697SOL    HW2 5989  10.677  12.217   0.674
34698SOL     OW 5990   6.747   8.141   6.350
34698SOL    HW1 5991   6.698   8.094   6.283
34698SOL    HW2 5992   6.689   8.211   6.378
34699SOL     OW 5993  11.150  10.416  11.137
34699SOL    HW1 5994  11.071  10.362  11.130
34699SOL    HW2 5995  11.120  10.504  11.115
34700SOL     OW 5996  12.746   0.696  11.263
34700SOL    HW1 5997  12.777   0.768  11.208
34700SOL    HW2 5998  12.692   0.643  11.204
34701SOL     OW 5999  11.704   1.752  12.194
34701SOL    HW1 6000  11.647   1.766  12.118
34701SOL    HW2 6001  11.734   1.840  12.218
34702SOL     OW 6002  13.204   9.113  11.862
34702SOL    HW1 6003  13.191   9.026  11.824
34702SOL    HW2 6004  13.297   9.115  11.884
34703SOL     OW 6005   4.688   9.347   7.266
34703SOL    HW1 6006   4.701   9.379   7.177
34703SOL    HW2 6007   4.747   9.400   7.319
34704SOL     OW 6008   5.783   2.817   6.490
34704SOL    HW1 6009   5.759   2.794   6.400
34704SOL    HW2 6010   5.878   2.815   6.492
34705SOL     OW 6011  12.185   6.997   6.184
34705SOL    HW1 6012  12.235   6.916   6.194
34705SOL    HW2 6013  12.094   6.969   6.175
34706SOL     OW 6014   1.254  13.814   0.577
34706SOL    HW1 6015   1.190  13.879   0.548
34706SOL    HW2 6016   1.311  13.801   0.502
34707SOL     OW 6017   5.536  10.917   3.345
34707SOL    HW1 6018   5.503  10.899   3.433
34707SOL    HW2 6019   5.501  11.003   3.324
34708SOL     OW 6020   0.340   2.999   5.507
34708SOL    HW1 6021   0.356   3.091   5.528
34708SOL    HW2 6022   0.410   2.976   5.446
34709SOL     OW 6023   2.961   5.556  11.170
34709SOL    HW1 6024   2.889   5.619  11.169
34709SOL    HW2 6025   2.931   5.485  11.114
34710SOL     OW 6026   0.633  11.827  14.396
34710SOL    HW1 6027   0.571  11.897  14.416
34710SOL    HW2 6028   0.695  11.827  14.469
34711SOL     OW 6029   2.314   1.456   5.180
34711SOL    HW1 6030   2.279   1.367   5.176
34711SOL    HW2 6031   2.241   1.512   5.152
34712SOL     OW 6032  10.628   4.457   4.448
34712SOL    HW1 6033  10.636   4.361   4.443
34712SOL    HW2 6034  10.692   4.489   4.384
34713SOL     OW 6035   9.205   4.940   9.107
34713SOL    HW1 6036   9.242   4.857   9.138
34713SOL    HW2 6037   9.160   4.976   9.183
34714SOL     OW 6038  10.879  14.079   2.530
34714SOL    HW1 6039  10.906  14.083   2.438
34714SOL    HW2 6040  10.894  13.987   2.555
34715SOL     OW 6041   1.485  13.340   7.646
34715SOL    HW1 6042   1.396  13.315   7.624
34715SOL    HW2 6043   1.476  13.421   7.696
34716SOL     OW 6044   6.903   7.737   2.782
34716SOL    HW1 6045   6.893   7.673   2.711
34716SOL    HW2 6046   6.992   7.722   2.815
34717SOL     OW 6047   5.780  14.309  12.611
34717SOL    HW1 6048   5.870  14.337  12.594
34717SOL    HW2 6049   5.755  14.260  12.533
34718SOL     OW 6050  10.200   8.570   8.253
34718SOL    HW1 6051  10.166   8.654   8.224
34718SOL    HW2 6052  10.253   8.539   8.179
34719SOL     OW 6053   9.773  14.688  10.932
34719SOL    HW1 6054   9.803  14.779  10.937
34719SOL    HW2 6055   9.850  14.636  10.953
34720SOL     OW 6056   7.786   2.375  11.069
34720SOL    HW1 6057   7.777   2.438  10.998
34720SOL    HW2 6058   7.760   2.423  11.147
34721SOL     OW 6059   8.570   1.557   3.565
34721SOL    HW1 6060   8.648   1.504   3.547
34721SOL    HW2 6061   8.509   1.535   3.495
34722SOL     OW 6062   9.914  13.640   0.262
34722SOL    HW1 6063   9.926  13.708   0.196
34722SOL    HW2 6064   9.821  13.644   0.284
34723SOL     OW 6065  10.715   1.407   6.424
34723SOL    HW1 6066  10.640   1.371   6.472
34723SOL    HW2 6067  10.681   1.487   6.384
34724SOL     OW 6068   1.333   4.365   3.583
34724SOL    HW1 6069   1.300   4.407   3.662
34724SOL    HW2 6070   1.258   4.316   3.548
34725SOL     OW 6071  12.358   7.700  12.733
34725SOL    HW1 6072  12.290   7.668  12.673
34725SOL    HW2 6073  12.317   7.695  12.819
34726SOL     OW 6074   2.918   0.141   7.779
34726SOL    HW1 6075   2.864   0.076   7.825
34726SOL    HW2 6076   2.993   0.154   7.835
34727SOL     OW 6077   4.984   3.249  11.915
34727SOL    HW1 6078   4.954   3.171  11.961
34727SOL    HW2 6079   5.067   3.223  11.875
34728SOL     OW 6080   6.192  14.401   6.804
34728SOL    HW1 6081   6.269  14.345   6.808
34728SOL    HW2 6082   6.120  14.342   6.780
34729SOL     OW 6083  13.369  14.441  10.486
34729SOL    HW1 6084  13.405  14.383  10.419
34729SOL    HW2 6085  13.360  14.526  10.442
34730SOL     OW 6086  14.020  12.007  13.386
34730SOL    HW1 6087  14.054  11.944  13.322
34730SOL    HW2 6088  14.002  12.086  13.336
34731SOL     OW 6089  12.641   8.452   5.364
34731SOL    HW1 6090  12.569   8.447   5.301
34731SOL    HW2 6091  12.670   8.362   5.373
34732SOL     OW 6092   2.576  11.471  12.157
34732SOL    HW1 6093   2.548  11.502  12.244
34732SOL    HW2 6094   2.654  11.419  12.175
34733SOL     OW 6095  10.023  14.807   1.334
34733SOL    HW1 6096   9.950  14.859   1.365
34733SOL    HW2 6097  10.100  14.864   1.345
34734SOL     OW 6098  11.403   0.813  10.917
34734SOL    HW1 6099  11.487   0.836  10.878
34734SOL    HW2 6100  11.406   0.719  10.929
34735SOL     OW 6101  11.949   2.663  13.552
34735SOL    HW1 6102  11.994   2.743  13.578
34735SOL    HW2 6103  11.967   2.600  13.622
34736SOL     OW 6104   7.971   2.786   0.238
34736SOL    HW1 6105   7.890   2.764   0.284
34736SOL    HW2 6106   7.974   2.882   0.240
34737SOL     OW 6107   4.591   5.902  11.357
34737SOL    HW1 6108   4.626   5.983  11.394
34737SOL    HW2 6109   4.563   5.851  11.434
34738SOL     OW 6110   6.555   4.022   6.905
34738SOL    HW1 6111   6.554   4.079   6.983
34738SOL    HW2 6112   6.463   4.015   6.879
34739SOL     OW 6113   9.478  13.878   2.791
34739SOL    HW1 6114   9.543  13.868   2.859
34739SOL    HW2 6115   9.503  13.815   2.723
34740SOL     OW 6116   7.253   5.875   0.459
34740SOL    HW1 6117   7.217   5.962   0.442
34740SOL    HW2 6118   7.268   5.838   0.373
34741SOL     OW 6119   1.705   5.641   9.831
34741SOL    HW1 6120   1.789   5.674   9.862
34741SOL    HW2 6121   1.723   5.550   9.805
34742SOL     OW 6122   7.694   6.555  13.428
34742SOL    HW1 6123   7.735   6.480  13.384
34742SOL    HW2 6124   7.691   6.622  13.360
34743SOL     OW 6125  13.992   0.987   5.189
34743SOL    HW1 6126  14.072   1.030   5.220
34743SOL    HW2 6127  13.974   1.028   5.104
34744SOL     OW 6128   5.090  12.789   3.073
34744SOL    HW1 6129   5.050  12.704   3.088
34744SOL    HW2 6130   5.181  12.778   3.102
34745SOL     OW 6131   2.549  10.669   5.489
34745SOL    HW1 6132   2.616  10.698   5.551
34745SOL    HW2 6133   2.468  10.707   5.522
34746SOL     OW 6134   5.488  13.491   2.917
34746SOL    HW1 6135   5.429  13.444   2.976
34746SOL    HW2 6136   5.501  13.576   2.959
34747SOL     OW 6137   6.671   1.254   3.536
34747SOL    HW1 6138   6.732   1.326   3.518
34747SOL    HW2 6139   6.592   1.297   3.569
34748SOL     OW 6140  10.747   9.053   8.988
34748SOL    HW1 6141  10.804   8.988   9.029
34748SOL    HW2 6142  10.664   9.046   9.035
34749SOL     OW 6143  12.632   6.824  10.044
34749SOL    HW1 6144  12.607   6.896   9.986
34749SOL    HW2 6145  12.573   6.831  10.119
34750SOL     OW 6146  12.602   8.126   4.013
34750SOL    HW1 6147  12.633   8.191   4.077
34750SOL    HW2 6148  12.679   8.072   3.994
34751SOL     OW 6149  10.834   9.195  10.054
34751SOL    HW1 6150  10.836   9.291  10.061
34751SOL    HW2 6151  10.796   9.179   9.968
34752SOL     OW 6152   5.727   5.930   2.425
34752SOL    HW1 6153   5.710   5.998   2.359
34752SOL    HW2 6154   5.718   5.848   2.378
34753SOL     OW 6155  13.184  13.408   2.951
34753SOL    HW1 6156  13.237  13.340   2.992
34753SOL    HW2 6157  13.237  13.437   2.876
34754SOL     OW 6158  10.693   1.388   2.221
34754SOL    HW1 6159  10.636   1.463   2.235
34754SOL    HW2 6160  10.750   1.387   2.298
34755SOL     OW 6161  11.938   1.956   3.502
34755SOL    HW1 6162  12.002   1.977   3.569
34755SOL    HW2 6163  11.867   1.911   3.548
34756SOL     OW 6164   7.918   5.624   2.097
34756SOL    HW1 6165   7.833   5.609   2.056
34756SOL    HW2 6166   7.942   5.538   2.134
34757SOL     OW 6167  12.701   2.286   2.067
34757SOL    HW1 6168  12.766   2.244   2.124
34757SOL    HW2 6169  12.617   2.265   2.108
34758SOL     OW 6170  14.080   4.093   3.222
34758SOL    HW1 6171  14.136   4.015   3.221
34758SOL    HW2 6172  13.991   4.059   3.215
34759SOL     OW 6173  11.154   0.594   6.411
34759SOL    HW1 6174  11.082   0.638   6.366
34759SOL    HW2 6175  11.116   0.513   6.444
34760SOL     OW 6176   6.219   5.387   7.073
34760SOL    HW1 6177   6.178   5.471   7.094
34760SOL    HW2 6178   6.307   5.393   7.110
34761SOL     OW 6179   8.311  10.028   7.578
34761SOL    HW1 6180   8.362  10.057   7.502
34761SOL    HW2 6181   8.364   9.959   7.617
34762SOL     OW 6182   3.912   1.535   4.695
34762SOL    HW1 6183   3.931   1.619   4.654
34762SOL    HW2 6184   3.817   1.535   4.706
34763SOL     OW 6185  11.216   9.665   0.421
34763SOL    HW1 6186  11.256   9.603   0.360
34763SOL    HW2 6187  11.138   9.698   0.375
34764SOL     OW 6188   3.777   6.596  10.018
34764SOL    HW1 6189   3.712   6.555  10.075
34764SOL    HW2 6190   3.848   6.532  10.013
34765SOL     OW 6191   5.992   7.497   0.260
34765SOL    HW1 6192   5.980   7.434   0.190
34765SOL    HW2 6193   5.952   7.578   0.228
34766SOL     OW 6194   4.776   6.538  12.193
34766SOL    HW1 6195   4.715   6.610  12.208
34766SOL    HW2 6196   4.861   6.572  12.219
34767SOL     OW 6197  13.954  14.026  14.652
34767SOL    HW1 6198  13.977  14.100  14.708
34767SOL    HW2 6199  13.879  14.056  14.601
34768SOL     OW 6200   4.278   6.708   0.769
34768SOL    HW1 6201   4.269   6.620   0.734
34768SOL    HW2 6202   4.230   6.707   0.851
34769SOL     OW 6203   6.613   9.730   1.879
34769SOL    HW1 6204   6.547   9.763   1.818
34769SOL    HW2 6205   6.686   9.703   1.823
34770SOL     OW 6206   6.758   0.291   9.291
34770SOL    HW1 6207   6.835   0.271   9.345
34770SOL    HW2 6208   6.749   0.386   9.297
34771SOL     OW 6209   4.721   0.023  13.767
34771SOL    HW1 6210   4.629   0.042  13.788
34771SOL    HW2 6211   4.766   0.029  13.851
34772SOL     OW 6212  14.735   6.626  14.525
34772SOL    HW1 6213  14.753   6.601  14.435
34772SOL    HW2 6214  14.819   6.656  14.559
34773SOL     OW 6215   0.948  13.335  14.609
34773SOL    HW1 6216   0.943  13.337  14.513
34773SOL    HW2 6217   0.922  13.246  14.633
34774SOL     OW 6218  11.147   4.395   4.116
34774SOL    HW1 6219  11.099   4.440   4.047
34774SOL    HW2 6220  11.105   4.309   4.122
34775SOL     OW 6221   1.437   5.169   5.546
34775SOL    HW1 6222   1.484   5.248   5.575
34775SOL    HW2 6223   1.372   5.154   5.615
34776SOL     OW 6224  13.727   1.027  12.528
34776SOL    HW1 6225  13.687   1.108  12.558
34776SOL    HW2 6226  13.729   1.034  12.433
34777SOL     OW 6227   4.049  13.779  10.508
34777SOL    HW1 6228   4.061  13.761  10.415
34777SOL    HW2 6229   3.972  13.728  10.533
34778SOL     OW 6230  10.011  11.437   6.648
34778SOL    HW1 6231  10.060  11.493   6.708
34778SOL    HW2 6232  10.072  11.417   6.577
34779SOL     OW 6233   2.907   1.282   9.301
34779SOL    HW1 6234   2.891   1.190   9.321
34779SOL    HW2 6235   3.001   1.286   9.284
34780SOL     OW 6236   2.139   1.164   6.098
34780SOL    HW1 6237   2.083   1.181   6.173
34780SOL    HW2 6238   2.188   1.245   6.086
34781SOL     OW 6239  12.914  10.248   6.039
34781SOL    HW1 6240  12.886  10.178   5.980
34781SOL    HW2 6241  12.871  10.228   6.122
34782SOL     OW 6242  12.074  12.281  12.567
34782SOL    HW1 6243  11.982  12.297  12.547
34782SOL    HW2 6244  12.094  12.341  12.639
34783SOL     OW 6245   6.474   6.678  10.015
34783SOL    HW1 6246   6.548   6.699   9.959
34783SOL    HW2 6247   6.502   6.602  10.066
34784SOL     OW 6248   8.544   1.239  10.466
34784SOL    HW1 6249   8.562   1.251  10.560
34784SOL    HW2 6250   8.464   1.187  10.464
34785SOL     OW 6251   5.721   3.104   6.845
34785SOL    HW1 6252   5.642   3.082   6.795
34785SOL    HW2 6253   5.746   3.190   6.812
34786SOL     OW 6254  13.121   0.673  14.351
34786SOL    HW1 6255  13.090   0.584  14.366
34786SOL    HW2 6256  13.103   0.720  14.432
34787SOL     OW 6257  11.805   7.187  10.110
34787SOL    HW1 6258  11.855   7.152  10.036
34787SOL    HW2 6259  11.761   7.110  10.148
34788SOL     OW 6260   0.708  11.833   0.973
34788SOL    HW1 6261   0.738  11.744   0.994
34788SOL    HW2 6262   0.724  11.883   1.053
34789SOL     OW 6263   3.365  11.528   1.406
34789SOL    HW1 6264   3.392  11.476   1.482
34789SOL    HW2 6265   3.336  11.612   1.444
34790SOL     OW 6266  10.386   4.539  10.151
34790SOL    HW1 6267  10.301   4.497  10.142
34790SOL    HW2 6268  10.367   4.633  10.152
34791SOL     OW 6269  12.693   0.021   9.456
34791SOL    HW1 6270  12.703  14.847   9.542
34791SOL    HW2 6271  12.739   0.105   9.466
34792SOL     OW 6272  12.074   9.460   4.797
34792SOL    HW1 6273  11.998   9.402   4.808
34792SOL    HW2 6274  12.089   9.496   4.885
34793SOL     OW 6275  11.798   7.404   2.190
34793SOL    HW1 6276  11.842   7.379   2.108
34793SOL    HW2 6277  11.784   7.498   2.182
34794SOL     OW 6278  10.014  12.347  13.644
34794SOL    HW1 6279   9.999  12.272  13.702
34794SOL    HW2 6280  10.048  12.415  13.702
34795SOL     OW 6281  13.140  11.353  10.979
34795SOL    HW1 6282  13.104  11.415  10.915
34795SOL    HW2 6283  13.066  11.296  11.000
34796SOL     OW 6284   3.673   9.290   3.588
34796SOL    HW1 6285   3.748   9.247   3.547
34796SOL    HW2 6286   3.707   9.375   3.618
34797SOL     OW 6287   7.616  13.455   1.365
34797SOL    HW1 6288   7.535  13.495   1.334
34797SOL    HW2 6289   7.686  13.504   1.322
34798SOL     OW 6290   7.663   4.543   1.488
34798SOL    HW1 6291   7.568   4.556   1.478
34798SOL    HW2 6292   7.702   4.612   1.435
34799SOL     OW 6293   0.401   8.806  14.470
34799SOL    HW1 6294   0.375   8.715  14.457
34799SOL    HW2 6295   0.377   8.850  14.389
34800SOL     OW 6296   4.516   2.162   0.534
34800SOL    HW1 6297   4.455   2.175   0.462
34800SOL    HW2 6298   4.528   2.067   0.540
34801SOL     OW 6299   7.932  12.245  10.566
34801SOL    HW1 6300   7.936  12.313  10.499
34801SOL    HW2 6301   7.854  12.195  10.545
34802SOL     OW 6302   4.502  13.034   8.821
34802SOL    HW1 6303   4.539  13.008   8.737
34802SOL    HW2 6304   4.518  12.959   8.879
34803SOL     OW 6305  13.788   0.032   9.898
34803SOL    HW1 6306  13.695   0.021   9.878
34803SOL    HW2 6307  13.790   0.103   9.963
34804SOL     OW 6308   2.063  10.462   6.653
34804SOL    HW1 6309   2.132  10.399   6.634
34804SOL    HW2 6310   2.110  10.545   6.664
34805SOL     OW 6311   2.181   7.083   3.222
34805SOL    HW1 6312   2.249   7.108   3.285
34805SOL    HW2 6313   2.207   7.125   3.141
34806SOL     OW 6314   5.513  13.105   6.699
34806SOL    HW1 6315   5.432  13.131   6.744
34806SOL    HW2 6316   5.542  13.026   6.746
34807SOL     OW 6317   6.960  14.666   1.797
34807SOL    HW1 6318   6.926  14.578   1.815
34807SOL    HW2 6319   6.899  14.725   1.843
34808SOL     OW 6320   7.652  13.460  12.240
34808SOL    HW1 6321   7.697  13.376  12.237
34808SOL    HW2 6322   7.720  13.525  12.225
34809SOL     OW 6323  14.660  14.733   2.770
34809SOL    HW1 6324  14.690  14.751   2.859
34809SOL    HW2 6325  14.733  14.687   2.728
34810SOL     OW 6326   9.905   1.606   4.947
34810SOL    HW1 6327   9.902   1.658   5.026
34810SOL    HW2 6328   9.926   1.669   4.877
34811SOL     OW 6329  11.514  14.316  11.705
34811SOL    HW1 6330  11.596  14.342  11.745
34811SOL    HW2 6331  11.537  14.297  11.614
34812SOL     OW 6332  14.165   6.858  10.944
34812SOL    HW1 6333  14.073   6.840  10.967
34812SOL    HW2 6334  14.207   6.772  10.946
34813SOL     OW 6335  12.033   9.363   0.933
34813SOL    HW1 6336  12.035   9.290   0.871
34813SOL    HW2 6337  12.004   9.438   0.880
34814SOL     OW 6338  10.038   2.406  10.299
34814SOL    HW1 6339  10.043   2.331  10.359
34814SOL    HW2 6340  10.109   2.391  10.237
34815SOL     OW 6341   8.182   8.399   7.761
34815SOL    HW1 6342   8.104   8.361   7.721
34815SOL    HW2 6343   8.153   8.429   7.847
34816SOL     OW 6344  10.641   5.690  11.332
34816SOL    HW1 6345  10.637   5.784  11.321
34816SOL    HW2 6346  10.580   5.654  11.267
34817SOL     OW 6347   8.538   9.313   2.178
34817SOL    HW1 6348   8.593   9.390   2.187
34817SOL    HW2 6349   8.460   9.332   2.230
34818SOL     OW 6350  11.107  10.888   8.780
34818SOL    HW1 6351  11.120  10.812   8.837
34818SOL    HW2 6352  11.023  10.925   8.809
34819SOL     OW 6353  11.033   9.536   8.242
34819SOL    HW1 6354  10.999   9.625   8.251
34819SOL    HW2 6355  11.101   9.529   8.310
34820SOL     OW 6356   6.855   9.170   9.473
34820SOL    HW1 6357   6.894   9.193   9.389
34820SOL    HW2 6358   6.929   9.146   9.528
34821SOL     OW 6359   5.182   9.388   9.479
34821SOL    HW1 6360   5.100   9.369   9.432
34821SOL    HW2 6361   5.251   9.370   9.414
34822SOL     OW 6362  10.879   2.950   4.402
34822SOL    HW1 6363  10.944   3.020   4.414
34822SOL    HW2 6364  10.922   2.889   4.342
34823SOL     OW 6365  14.029   8.202   2.112
34823SOL    HW1 6366  13.934   8.213   2.105
34823SOL    HW2 6367  14.050   8.227   2.202
34824SOL     OW 6368   8.472   5.348  12.090
34824SOL    HW1 6369   8.383   5.316  12.075
34824SOL    HW2 6370   8.490   5.405  12.016
34825SOL     OW 6371   4.034   8.810   6.207
34825SOL    HW1 6372   4.013   8.729   6.255
34825SOL    HW2 6373   4.065   8.779   6.122
34826SOL     OW 6374   1.450   8.297  11.223
34826SOL    HW1 6375   1.517   8.336  11.167
34826SOL    HW2 6376   1.453   8.204  11.202
34827SOL     OW 6377   6.684   7.312  13.537
34827SOL    HW1 6378   6.740   7.285  13.610
34827SOL    HW2 6379   6.650   7.230  13.501
34828SOL     OW 6380   8.733   3.846   1.111
34828SOL    HW1 6381   8.652   3.851   1.060
34828SOL    HW2 6382   8.782   3.924   1.086
34829SOL     OW 6383   9.504   6.133   4.288
34829SOL    HW1 6384   9.426   6.114   4.340
34829SOL    HW2 6385   9.470   6.176   4.209
34830SOL     OW 6386   3.689   6.668  14.543
34830SOL    HW1 6387   3.714   6.715  14.622
34830SOL    HW2 6388   3.769   6.667  14.490
34831SOL     OW 6389  11.026  10.597  10.657
34831SOL    HW1 6390  10.955  10.656  10.683
34831SOL    HW2 6391  11.103  10.630  10.705
34832SOL     OW 6392  14.247  13.973   8.342
34832SOL    HW1 6393  14.262  14.004   8.253
34832SOL    HW2 6394  14.220  13.882   8.332
34833SOL     OW 6395  12.351  11.614   9.641
34833SOL    HW1 6396  12.332  11.640   9.551
34833SOL    HW2 6397  12.284  11.658   9.693
34834SOL     OW 6398   2.384   5.447  12.370
34834SOL    HW1 6399   2.398   5.498  12.290
34834SOL    HW2 6400   2.471   5.442  12.410
34835SOL     OW 6401   9.529   8.083   4.597
34835SOL    HW1 6402   9.523   8.065   4.691
34835SOL    HW2 6403   9.579   8.164   4.592
34836SOL     OW 6404   6.254  13.156   2.962
34836SOL    HW1 6405   6.161  13.148   2.984
34836SOL    HW2 6406   6.285  13.228   3.017
34837SOL     OW 6407   2.184  12.536   9.315
34837SOL    HW1 6408   2.097  12.512   9.345
34837SOL    HW2 6409   2.171  12.616   9.263
34838SOL     OW 6410   9.366   9.767  10.552
34838SOL    HW1 6411   9.303   9.705  10.517
34838SOL    HW2 6412   9.319   9.813  10.622
34839SOL     OW 6413   7.990  13.519   4.951
34839SOL    HW1 6414   8.050  13.526   4.876
34839SOL    HW2 6415   7.904  13.504   4.912
34840SOL     OW 6416   5.609   5.009   3.087
34840SOL    HW1 6417   5.528   4.973   3.122
34840SOL    HW2 6418   5.671   5.003   3.160
34841SOL     OW 6419  10.315   1.208  10.459
34841SOL    HW1 6420  10.379   1.138  10.464
34841SOL    HW2 6421  10.359   1.284  10.498
34842SOL     OW 6422   8.768  13.329   8.925
34842SOL    HW1 6423   8.822  13.397   8.965
34842SOL    HW2 6424   8.811  13.312   8.841
34843SOL     OW 6425  10.055   9.051   2.815
34843SOL    HW1 6426  10.055   8.961   2.847
34843SOL    HW2 6427  10.033   9.104   2.891
34844SOL     OW 6428   5.956   4.475  12.811
34844SOL    HW1 6429   5.977   4.555  12.763
34844SOL    HW2 6430   5.902   4.505  12.885
34845SOL     OW 6431   3.392   6.691   4.166
34845SOL    HW1 6432   3.379   6.628   4.237
34845SOL    HW2 6433   3.318   6.751   4.174
34846SOL     OW 6434   9.141   5.914   2.968
34846SOL    HW1 6435   9.138   5.876   3.056
34846SOL    HW2 6436   9.049   5.916   2.940
34847SOL     OW 6437  13.829   6.893  14.738
34847SOL    HW1 6438  13.820   6.983  14.769
34847SOL    HW2 6439  13.900   6.897  14.674
34848SOL     OW 6440  12.485   3.015   5.697
34848SOL    HW1 6441  12.514   2.956   5.767
34848SOL    HW2 6442  12.435   3.082   5.742
34849SOL     OW 6443  14.380   8.083   2.688
34849SOL    HW1 6444  14.348   8.080   2.598
34849SOL    HW2 6445  14.476   8.083   2.679
34850SOL     OW 6446  14.072   6.371   3.092
34850SOL    HW1 6447  14.128   6.444   3.068
34850SOL    HW2 6448  14.010   6.362   3.020
34851SOL     OW 6449   7.293  11.303   7.739
34851SOL    HW1 6450   7.288  11.242   7.812
34851SOL    HW2 6451   7.203  11.313   7.709
34852SOL     OW 6452  11.433   9.974   7.604
34852SOL    HW1 6453  11.462   9.892   7.564
34852SOL    HW2 6454  11.428  10.036   7.531
34853SOL     OW 6455  12.592   2.613   1.036
34853SOL    HW1 6456  12.525   2.673   1.070
34853SOL    HW2 6457  12.619   2.561   1.112
34854SOL     OW 6458  10.899  12.717   2.860
34854SOL    HW1 6459  10.898  12.812   2.844
34854SOL    HW2 6460  10.810  12.689   2.841
34855SOL     OW 6461   5.988  14.073   8.120
34855SOL    HW1 6462   5.911  14.093   8.173
34855SOL    HW2 6463   5.956  14.013   8.053
34856SOL     OW 6464   0.135   9.332   9.818
34856SOL    HW1 6465   0.204   9.266   9.830
34856SOL    HW2 6466   0.055   9.281   9.807
34857SOL     OW 6467   0.276   5.083  11.073
34857SOL    HW1 6468   0.293   5.114  10.984
34857SOL    HW2 6469   0.181   5.067  11.074
34858SOL     OW 6470   4.010   0.756   2.843
34858SOL    HW1 6471   4.024   0.690   2.775
34858SOL    HW2 6472   4.068   0.731   2.914
34859SOL     OW 6473   2.123   6.784   8.816
34859SOL    HW1 6474   2.200   6.761   8.765
34859SOL    HW2 6475   2.088   6.863   8.773
34860SOL     OW 6476  14.110   4.558   8.278
34860SOL    HW1 6477  14.145   4.644   8.254
34860SOL    HW2 6478  14.032   4.578   8.331
34861SOL     OW 6479  14.720   3.657  12.655
34861SOL    HW1 6480  14.635   3.612  12.649
34861SOL    HW2 6481  14.782   3.587  12.675
34862SOL     OW 6482   4.588   4.164   1.165
34862SOL    HW1 6483   4.618   4.177   1.075
34862SOL    HW2 6484   4.665   4.132   1.212
34863SOL     OW 6485  12.046  13.268   9.699
34863SOL    HW1 6486  11.987  13.331   9.740
34863SOL    HW2 6487  11.993  13.189   9.689
34864SOL     OW 6488   3.582   2.312   0.035
34864SOL    HW1 6489   3.623   2.229   0.013
34864SOL    HW2 6490   3.488   2.292   0.038
34865SOL     OW 6491  13.669   0.620   4.565
34865SOL    HW1 6492  13.584   0.609   4.606
34865SOL    HW2 6493  13.651   0.670   4.485
34866SOL     OW 6494   5.725   0.123   3.992
34866SOL    HW1 6495   5.645   0.167   3.964
34866SOL    HW2 6496   5.793   0.190   3.980
34867SOL     OW 6497  10.505   5.104   3.712
34867SOL    HW1 6498  10.492   5.079   3.804
34867SOL    HW2 6499  10.498   5.200   3.712
34868SOL     OW 6500   3.450   6.951   9.280
34868SOL    HW1 6501   3.394   6.992   9.346
34868SOL    HW2 6502   3.445   6.858   9.299
34869SOL     OW 6503  11.638  10.425  12.979
34869SOL    HW1 6504  11.562  10.462  13.024
34869SOL    HW2 6505  11.617  10.332  12.970
34870SOL     OW 6506   4.973  11.553   6.936
34870SOL    HW1 6507   5.043  11.494   6.967
34870SOL    HW2 6508   4.981  11.630   6.992
34871SOL     OW 6509   2.907   7.927   6.339
34871SOL    HW1 6510   2.990   7.929   6.292
34871SOL    HW2 6511   2.845   7.970   6.279
34872SOL     OW 6512   5.704   6.002  10.738
34872SOL    HW1 6513   5.624   5.964  10.774
34872SOL    HW2 6514   5.688   6.009  10.644
34873SOL     OW 6515  14.460   2.480   9.218
34873SOL    HW1 6516  14.468   2.412   9.285
34873SOL    HW2 6517  14.369   2.509   9.225
34874SOL     OW 6518   2.175   6.109  12.553
34874SOL    HW1 6519   2.155   6.196  12.518
34874SOL    HW2 6520   2.134   6.048  12.491
34875SOL     OW 6521  14.428  11.936   7.122
34875SOL    HW1 6522  14.387  11.977   7.198
34875SOL    HW2 6523  14.356  11.894   7.076
34876SOL     OW 6524   3.897  10.198  10.824
34876SOL    HW1 6525   3.861  10.262  10.762
34876SOL    HW2 6526   3.822  10.170  10.876
34877SOL     OW 6527   5.763   0.708   4.587
34877SOL    HW1 6528   5.767   0.790   4.538
34877SOL    HW2 6529   5.767   0.640   4.520
34878SOL     OW 6530   4.186   9.413   1.104
34878SOL    HW1 6531   4.248   9.359   1.153
34878SOL    HW2 6532   4.108   9.418   1.159
34879SOL     OW 6533   7.060  10.287   9.396
34879SOL    HW1 6534   7.033  10.346   9.467
34879SOL    HW2 6535   7.063  10.201   9.437
34880SOL     OW 6536   0.827   9.124   7.380
34880SOL    HW1 6537   0.878   9.127   7.300
34880SOL    HW2 6538   0.889   9.145   7.450
34881SOL     OW 6539  10.356   2.329   6.298
34881SOL    HW1 6540  10.376   2.378   6.218
34881SOL    HW2 6541  10.301   2.388   6.349
34882SOL     OW 6542  14.302   5.990   6.022
34882SOL    HW1 6543  14.354   5.918   5.987
34882SOL    HW2 6544  14.212   5.971   5.994
34883SOL     OW 6545   9.255   9.805   7.805
34883SOL    HW1 6546   9.302   9.722   7.798
34883SOL    HW2 6547   9.314   9.862   7.854
34884SOL     OW 6548   5.445  13.524  11.973
34884SOL    HW1 6549   5.351  13.504  11.972
34884SOL    HW2 6550   5.476  13.495  11.887
34885SOL     OW 6551   4.255   3.878   2.110
34885SOL    HW1 6552   4.312   3.860   2.035
34885SOL    HW2 6553   4.227   3.791   2.140
34886SOL     OW 6554   1.969   4.031   0.753
34886SOL    HW1 6555   2.009   4.118   0.753
34886SOL    HW2 6556   2.000   3.991   0.672
34887SOL     OW 6557  11.590   8.707   5.947
34887SOL    HW1 6558  11.539   8.637   5.989
34887SOL    HW2 6559  11.548   8.719   5.862
34888SOL     OW 6560  14.162  11.938   9.945
34888SOL    HW1 6561  14.129  11.938   9.855
34888SOL    HW2 6562  14.255  11.961   9.936
34889SOL     OW 6563  14.295   7.119  12.952
34889SOL    HW1 6564  14.316   7.097  13.043
34889SOL    HW2 6565  14.332   7.046  12.901
34890SOL     OW 6566  10.045   5.831   9.793
34890SOL    HW1 6567   9.963   5.816   9.841
34890SOL    HW2 6568  10.098   5.883   9.852
34891SOL     OW 6569   1.043   5.843   3.423
34891SOL    HW1 6570   1.012   5.906   3.489
34891SOL    HW2 6571   1.126   5.878   3.393
34892SOL     OW 6572   0.834  14.711   1.236
34892SOL    HW1 6573   0.744  14.710   1.205
34892SOL    HW2 6574   0.841  14.792   1.287
34893SOL     OW 6575  12.933   2.270   5.154
34893SOL    HW1 6576  12.961   2.213   5.226
34893SOL    HW2 6577  12.943   2.359   5.188
34894SOL     OW 6578  10.935   4.153   0.232
34894SOL    HW1 6579  10.841   4.141   0.219
34894SOL    HW2 6580  10.961   4.216   0.165
34895SOL     OW 6581   2.057   5.427   3.807
34895SOL    HW1 6582   2.078   5.498   3.747
34895SOL    HW2 6583   1.965   5.407   3.789
34896SOL     OW 6584   6.241  13.246  10.768
34896SOL    HW1 6585   6.175  13.311  10.795
34896SOL    HW2 6586   6.260  13.268  10.677
34897SOL     OW 6587   7.412   5.011  14.241
34897SOL    HW1 6588   7.482   4.947  14.256
34897SOL    HW2 6589   7.390   5.000  14.148
34898SOL     OW 6590   6.867   2.747  11.216
34898SOL    HW1 6591   6.789   2.761  11.163
34898SOL    HW2 6592   6.939   2.742  11.152
34899SOL     OW 6593   6.516   7.661  12.287
34899SOL    HW1 6594   6.468   7.678  12.368
34899SOL    HW2 6595   6.576   7.590  12.310
34900SOL     OW 6596   1.062  14.368   5.064
34900SOL    HW1 6597   0.981  14.381   5.015
34900SOL    HW2 6598   1.051  14.423   5.142
34901SOL     OW 6599   8.454   2.077   5.494
34901SOL    HW1 6600   8.397   2.007   5.462
34901SOL    HW2 6601   8.414   2.157   5.462
34902SOL     OW 6602   6.228   4.562   1.142
34902SOL    HW1 6603   6.137   4.537   1.161
34902SOL    HW2 6604   6.279   4.485   1.166
34903SOL     OW 6605   4.887   4.686   3.547
34903SOL    HW1 6606   4.978   4.712   3.555
34903SOL    HW2 6607   4.888   4.610   3.489
34904SOL     OW 6608  13.138   2.302  12.158
34904SOL    HW1 6609  13.085   2.336  12.230
34904SOL    HW2 6610  13.075   2.281  12.089
34905SOL     OW 6611   8.778   8.206  10.564
34905SOL    HW1 6612   8.684   8.212  10.583
34905SOL    HW2 6613   8.816   8.170  10.645
34906SOL     OW 6614  12.851   9.596   8.546
34906SOL    HW1 6615  12.823   9.570   8.633
34906SOL    HW2 6616  12.939   9.633   8.559
34907SOL     OW 6617  11.735   2.262   5.657
34907SOL    HW1 6618  11.698   2.174   5.655
34907SOL    HW2 6619  11.807   2.257   5.720
34908SOL     OW 6620   5.455   9.405   1.166
34908SOL    HW1 6621   5.529   9.438   1.216
34908SOL    HW2 6622   5.392   9.377   1.233
34909SOL     OW 6623  12.776  12.648  12.249
34909SOL    HW1 6624  12.856  12.619  12.293
34909SOL    HW2 6625  12.784  12.614  12.160
34910SOL     OW 6626  12.732  14.637   8.120
34910SOL    HW1 6627  12.784  14.693   8.063
34910SOL    HW2 6628  12.794  14.572   8.154
34911SOL     OW 6629  11.973   6.180  11.032
34911SOL    HW1 6630  11.895   6.227  11.000
34911SOL    HW2 6631  11.942   6.134  11.110
34912SOL     OW 6632   9.744  10.478   5.049
34912SOL    HW1 6633   9.677  10.414   5.070
34912SOL    HW2 6634   9.792  10.491   5.131
34913SOL     OW 6635   7.757   6.461   1.371
34913SOL    HW1 6636   7.741   6.468   1.465
34913SOL    HW2 6637   7.700   6.527   1.332
34914SOL     OW 6638   9.618   8.724  10.575
34914SOL    HW1 6639   9.688   8.693  10.633
34914SOL    HW2 6640   9.565   8.647  10.557
34915SOL     OW 6641   9.418   9.121  12.120
34915SOL    HW1 6642   9.369   9.170  12.055
34915SOL    HW2 6643   9.426   9.033  12.083
34916SOL     OW 6644  10.505  10.848   0.999
34916SOL    HW1 6645  10.560  10.827   1.075
34916SOL    HW2 6646  10.566  10.881   0.933
34917SOL     OW 6647   6.682  13.866   0.904
34917SOL    HW1 6648   6.613  13.887   0.841
34917SOL    HW2 6649   6.763  13.894   0.860
34918SOL     OW 6650   5.742   9.041   9.121
34918SOL    HW1 6651   5.730   8.950   9.148
34918SOL    HW2 6652   5.787   9.082   9.195
34919SOL     OW 6653   4.685  10.839   6.273
34919SOL    HW1 6654   4.715  10.804   6.190
34919SOL    HW2 6655   4.702  10.933   6.267
34920SOL     OW 6656   8.899   0.658   3.781
34920SOL    HW1 6657   8.841   0.723   3.741
34920SOL    HW2 6658   8.940   0.704   3.854
34921SOL     OW 6659   1.639   4.448   8.162
34921SOL    HW1 6660   1.592   4.365   8.156
34921SOL    HW2 6661   1.727   4.428   8.130
34922SOL     OW 6662   2.477  13.460  12.163
34922SOL    HW1 6663   2.424  13.530  12.127
34922SOL    HW2 6664   2.421  13.419  12.230
34923SOL     OW 6665   1.349   6.259  12.604
34923SOL    HW1 6666   1.443   6.273  12.589
34923SOL    HW2 6667   1.335   6.168  12.579
34924SOL     OW 6668  11.469  14.101  12.169
34924SOL    HW1 6669  11.511  14.052  12.240
34924SOL    HW2 6670  11.474  14.042  12.094
34925SOL     OW 6671   5.444  13.655   7.342
34925SOL    HW1 6672   5.386  13.585   7.312
34925SOL    HW2 6673   5.527  13.638   7.297
34926SOL     OW 6674   7.026  14.405   8.249
34926SOL    HW1 6675   6.938  14.440   8.255
34926SOL    HW2 6676   7.079  14.478   8.217
34927SOL     OW 6677  10.693   6.356   3.301
34927SOL    HW1 6678  10.726   6.268   3.284
34927SOL    HW2 6679  10.607   6.357   3.260
34928SOL     OW 6680   7.712   5.517   7.226
34928SOL    HW1 6681   7.744   5.607   7.218
34928SOL    HW2 6682   7.755   5.483   7.304
34929SOL     OW 6683   8.909   5.963  14.849
34929SOL    HW1 6684   8.936   5.979   0.072
34929SOL    HW2 6685   8.991   5.961  14.800
34930SOL     OW 6686   7.639   6.895   0.088
34930SOL    HW1 6687   7.724   6.883   0.046
34930SOL    HW2 6688   7.577   6.899   0.015
34931SOL     OW 6689   0.496  13.144   7.645
34931SOL    HW1 6690   0.579  13.192   7.648
34931SOL    HW2 6691   0.522  13.053   7.628
34932SOL     OW 6692   6.867  12.778   7.535
34932SOL    HW1 6693   6.864  12.748   7.626
34932SOL    HW2 6694   6.813  12.857   7.534
34933SOL     OW 6695   6.577   3.888  14.233
34933SOL    HW1 6696   6.561   3.820  14.168
34933SOL    HW2 6697   6.622   3.957  14.185
34934SOL     OW 6698  11.394  14.037  14.468
34934SOL    HW1 6699  11.425  13.955  14.507
34934SOL    HW2 6700  11.308  14.050  14.508
34935SOL     OW 6701  11.195   5.426   6.213
34935SOL    HW1 6702  11.163   5.451   6.300
34935SOL    HW2 6703  11.261   5.359   6.230
34936SOL     OW 6704  11.458   9.223  13.355
34936SOL    HW1 6705  11.533   9.231  13.296
34936SOL    HW2 6706  11.492   9.176  13.431
34937SOL     OW 6707   3.988   4.138  10.507
34937SOL    HW1 6708   4.037   4.160  10.428
34937SOL    HW2 6709   4.041   4.071  10.550
34938SOL     OW 6710  11.450   4.980   5.004
34938SOL    HW1 6711  11.434   5.061   5.052
34938SOL    HW2 6712  11.531   4.996   4.955
34939SOL     OW 6713  14.694   7.495   8.793
34939SOL    HW1 6714  14.702   7.404   8.764
34939SOL    HW2 6715  14.785   7.527   8.797
34940SOL     OW 6716   8.466   8.685  10.592
34940SOL    HW1 6717   8.435   8.694  10.682
34940SOL    HW2 6718   8.431   8.600  10.564
34941SOL     OW 6719   4.765  10.646  11.444
34941SOL    HW1 6720   4.685  10.686  11.410
34941SOL    HW2 6721   4.823  10.641  11.369
34942SOL     OW 6722   8.102   3.084   9.049
34942SOL    HW1 6723   8.170   3.135   9.093
34942SOL    HW2 6724   8.047   3.051   9.120
34943SOL     OW 6725  10.133  10.045   5.360
34943SOL    HW1 6726  10.047  10.029   5.322
34943SOL    HW2 6727  10.167  10.121   5.312
34944SOL     OW 6728   4.397  11.421  10.509
34944SOL    HW1 6729   4.488  11.395  10.521
34944SOL    HW2 6730   4.372  11.461  10.592
34945SOL     OW 6731  13.184  13.036  11.759
34945SOL    HW1 6732  13.252  12.975  11.788
34945SOL    HW2 6733  13.227  13.088  11.691
34946SOL     OW 6734  10.583  14.525   4.264
34946SOL    HW1 6735  10.522  14.480   4.323
34946SOL    HW2 6736  10.597  14.611   4.304
34947SOL     OW 6737   0.632   2.835   3.507
34947SOL    HW1 6738   0.679   2.903   3.556
34947SOL    HW2 6739   0.673   2.836   3.420
34948SOL     OW 6740   5.634  10.209   8.858
34948SOL    HW1 6741   5.717  10.224   8.813
34948SOL    HW2 6742   5.633  10.114   8.874
34949SOL     OW 6743   9.243  14.578  11.442
34949SOL    HW1 6744   9.306  14.616  11.381
34949SOL    HW2 6745   9.159  14.617  11.417
34950SOL     OW 6746   8.478   6.379   9.181
34950SOL    HW1 6747   8.399   6.419   9.219
34950SOL    HW2 6748   8.484   6.416   9.093
34951SOL     OW 6749   1.285  10.107  14.118
34951SOL    HW1 6750   1.240  10.033  14.159
34951SOL    HW2 6751   1.331  10.068  14.044
34952SOL     OW 6752   5.749   7.825   4.217
34952SOL    HW1 6753   5.794   7.902   4.252
34952SOL    HW2 6754   5.697   7.793   4.291
34953SOL     OW 6755  11.898   5.868   1.970
34953SOL    HW1 6756  11.817   5.903   1.933
34953SOL    HW2 6757  11.961   5.940   1.962
34954SOL     OW 6758   5.843   7.212  13.211
34954SOL    HW1 6759   5.832   7.178  13.122
34954SOL    HW2 6760   5.923   7.170  13.243
34955SOL     OW 6761   7.372  10.580   1.999
34955SOL    HW1 6762   7.466  10.568   1.986
34955SOL    HW2 6763   7.362  10.597   2.092
34956SOL     OW 6764  13.720  10.011   2.108
34956SOL    HW1 6765  13.712  10.094   2.154
34956SOL    HW2 6766  13.771   9.956   2.168
34957SOL     OW 6767   1.876   6.608   6.352
34957SOL    HW1 6768   1.919   6.673   6.297
34957SOL    HW2 6769   1.946   6.546   6.375
34958SOL     OW 6770   5.939   0.742   7.255
34958SOL    HW1 6771   6.013   0.763   7.197
34958SOL    HW2 6772   5.962   0.784   7.338
34959SOL     OW 6773   6.713  13.979  13.072
34959SOL    HW1 6774   6.677  14.043  13.011
34959SOL    HW2 6775   6.742  13.906  13.017
34960SOL     OW 6776  14.398  11.151   6.190
34960SOL    HW1 6777  14.423  11.100   6.113
34960SOL    HW2 6778  14.468  11.215   6.200
34961SOL     OW 6779   9.759  13.446   0.822
34961SOL    HW1 6780   9.831  13.400   0.778
34961SOL    HW2 6781   9.743  13.395   0.902
34962SOL     OW 6782  10.273   6.879   7.436
34962SOL    HW1 6783  10.359   6.868   7.477
34962SOL    HW2 6784  10.262   6.802   7.381
34963SOL     OW 6785   0.889  13.768   1.202
34963SOL    HW1 6786   0.908  13.714   1.126
34963SOL    HW2 6787   0.971  13.771   1.251
34964SOL     OW 6788  10.063   6.740   1.182
34964SOL    HW1 6789  10.077   6.706   1.094
34964SOL    HW2 6790   9.975   6.709   1.206
34965SOL     OW 6791   8.534   5.453  10.690
34965SOL    HW1 6792   8.591   5.381  10.715
34965SOL    HW2 6793   8.449   5.413  10.674
34966SOL     OW 6794  13.378   4.698   5.838
34966SOL    HW1 6795  13.313   4.722   5.772
34966SOL    HW2 6796  13.389   4.777   5.891
34967SOL     OW 6797   3.621   5.658   4.401
34967SOL    HW1 6798   3.655   5.635   4.314
34967SOL    HW2 6799   3.532   5.690   4.384
34968SOL     OW 6800  12.380   2.631  11.361
34968SOL    HW1 6801  12.467   2.665  11.381
34968SOL    HW2 6802  12.379   2.621  11.266
34969SOL     OW 6803   0.511   3.908  11.912
34969SOL    HW1 6804   0.539   3.984  11.861
34969SOL    HW2 6805   0.490   3.842  11.847
34970SOL     OW 6806   3.212   8.846  13.801
34970SOL    HW1 6807   3.177   8.806  13.881
34970SOL    HW2 6808   3.300   8.811  13.793
34971SOL     OW 6809   7.289  13.349   0.078
34971SOL    HW1 6810   7.287  13.443   0.061
34971SOL    HW2 6811   7.376  13.321   0.049
34972SOL     OW 6812  10.152   2.658   0.956
34972SOL    HW1 6813  10.227   2.681   0.902
34972SOL    HW2 6814  10.125   2.572   0.925
34973SOL     OW 6815   1.671  13.967  14.808
34973SOL    HW1 6816   1.583  13.997  14.829
34973SOL    HW2 6817   1.661  13.873  14.790
34974SOL     OW 6818   6.570   8.298   0.191
34974SOL    HW1 6819   6.580   8.345   0.274
34974SOL    HW2 6820   6.648   8.323   0.141
34975SOL     OW 6821   0.326   3.612  13.874
34975SOL    HW1 6822   0.360   3.701  13.859
34975SOL    HW2 6823   0.358   3.561  13.799
34976SOL     OW 6824  13.888  12.405   9.726
34976SOL    HW1 6825  13.817  12.368   9.779
34976SOL    HW2 6826  13.966  12.357   9.754
34977SOL     OW 6827   3.676  10.721   7.410
34977SOL    HW1 6828   3.699  10.759   7.325
34977SOL    HW2 6829   3.720  10.777   7.474
34978SOL     OW 6830   1.932   8.319  14.041
34978SOL    HW1 6831   1.918   8.414  14.043
34978SOL    HW2 6832   1.849   8.283  14.009
34979SOL     OW 6833   6.685   9.299   5.578
34979SOL    HW1 6834   6.740   9.276   5.654
34979SOL    HW2 6835   6.737   9.362   5.529
34980SOL     OW 6836   2.935   8.004  13.076
34980SOL    HW1 6837   2.978   7.956  13.005
34980SOL    HW2 6838   2.883   8.071  13.031
34981SOL     OW 6839   8.728  11.862  10.592
34981SOL    HW1 6840   8.761  11.803  10.525
34981SOL    HW2 6841   8.708  11.806  10.667
34982SOL     OW 6842   5.750   7.427   8.591
34982SOL    HW1 6843   5.741   7.506   8.643
34982SOL    HW2 6844   5.681   7.369   8.623
34983SOL     OW 6845  13.220   4.404  12.219
34983SOL    HW1 6846  13.228   4.459  12.141
34983SOL    HW2 6847  13.149   4.343  12.197
34984SOL     OW 6848   2.986   9.585   8.311
34984SOL    HW1 6849   3.024   9.514   8.260
34984SOL    HW2 6850   2.934   9.634   8.248
34985SOL     OW 6851   1.236  10.413  12.264
34985SOL    HW1 6852   1.318  10.461  12.249
34985SOL    HW2 6853   1.213  10.433  12.355
34986SOL     OW 6854   1.408  11.885   9.493
34986SOL    HW1 6855   1.488  11.835   9.509
34986SOL    HW2 6856   1.338  11.826   9.521
34987SOL     OW 6857   3.826  10.385   1.115
34987SOL    HW1 6858   3.756  10.442   1.084
34987SOL    HW2 6859   3.782  10.320   1.169
34988SOL     OW 6860   9.319   0.568   5.116
34988SOL    HW1 6861   9.236   0.572   5.068
34988SOL    HW2 6862   9.353   0.480   5.098
34989SOL     OW 6863  11.610  14.138   1.385
34989SOL    HW1 6864  11.639  14.051   1.361
34989SOL    HW2 6865  11.686  14.180   1.425
34990SOL     OW 6866   1.823  11.684   4.021
34990SOL    HW1 6867   1.728  11.682   4.009
34990SOL    HW2 6868   1.857  11.658   3.935
34991SOL     OW 6869  10.096   2.077  14.391
34991SOL    HW1 6870  10.059   2.038  14.313
34991SOL    HW2 6871  10.032   2.144  14.417
34992SOL     OW 6872  11.631  13.467   4.439
34992SOL    HW1 6873  11.703  13.458   4.502
34992SOL    HW2 6874  11.673  13.458   4.353
34993SOL     OW 6875   2.091  10.743   7.652
34993SOL    HW1 6876   2.055  10.828   7.673
34993SOL    HW2 6877   2.048  10.682   7.713
34994SOL     OW 6878   5.125   5.900   5.803
34994SOL    HW1 6879   5.102   5.987   5.773
34994SOL    HW2 6880   5.047   5.846   5.784
34995SOL     OW 6881  13.186   1.253   5.234
34995SOL    HW1 6882  13.167   1.160   5.242
34995SOL    HW2 6883  13.232   1.276   5.315
34996SOL     OW 6884  12.430   2.365  11.019
34996SOL    HW1 6885  12.429   2.331  11.108
34996SOL    HW2 6886  12.413   2.289  10.963
34997SOL     OW 6887   2.101   2.658  14.593
34997SOL    HW1 6888   2.055   2.585  14.550
34997SOL    HW2 6889   2.124   2.624  14.679
34998SOL     OW 6890   3.694   2.509   0.471
34998SOL    HW1 6891   3.771   2.562   0.490
34998SOL    HW2 6892   3.722   2.451   0.400
34999SOL     OW 6893   2.015   7.647  10.096
34999SOL    HW1 6894   2.105   7.659  10.127
34999SOL    HW2 6895   1.973   7.731  10.111
35000SOL     OW 6896   5.069   7.786  10.765
35000SOL    HW1 6897   5.078   7.810  10.673
35000SOL    HW2 6898   5.054   7.869  10.810
35001SOL     OW 6899   8.086   4.956   3.956
35001SOL    HW1 6900   8.125   5.043   3.968
35001SOL    HW2 6901   8.003   4.960   4.003
35002SOL     OW 6902   5.939  10.299   5.347
35002SOL    HW1 6903   6.022  10.345   5.335
35002SOL    HW2 6904   5.926  10.250   5.266
35003SOL     OW 6905   4.422   1.669   6.066
35003SOL    HW1 6906   4.357   1.710   6.008
35003SOL    HW2 6907   4.418   1.720   6.147
35004SOL     OW 6908   4.870  12.401   6.759
35004SOL    HW1 6909   4.857  12.316   6.718
35004SOL    HW2 6910   4.931  12.446   6.701
35005SOL     OW 6911   0.044   7.351  11.594
35005SOL    HW1 6912  14.846   7.281  11.588
35005SOL    HW2 6913   0.073   7.364  11.503
35006SOL     OW 6914  14.847   9.777   2.374
35006SOL    HW1 6915  14.826   9.859   2.329
35006SOL    HW2 6916   0.008   9.804   2.461
35007SOL     OW 6917   2.169   6.598   5.473
35007SOL    HW1 6918   2.197   6.510   5.499
35007SOL    HW2 6919   2.222   6.657   5.527
35008SOL     OW 6920   4.006   3.204  10.068
35008SOL    HW1 6921   3.964   3.139  10.124
35008SOL    HW2 6922   3.935   3.239  10.014
35009SOL     OW 6923   0.869   2.529   2.205
35009SOL    HW1 6924   0.842   2.616   2.174
35009SOL    HW2 6925   0.814   2.513   2.282
35010SOL     OW 6926   8.854   1.376  14.102
35010SOL    HW1 6927   8.760   1.392  14.091
35010SOL    HW2 6928   8.878   1.428  14.180
35011SOL     OW 6929   2.657   5.210  12.280
35011SOL    HW1 6930   2.746   5.219  12.245
35011SOL    HW2 6931   2.652   5.276  12.349
35012SOL     OW 6932   8.433   3.994  11.356
35012SOL    HW1 6933   8.392   3.935  11.418
35012SOL    HW2 6934   8.472   3.937  11.290
35013SOL     OW 6935   1.493   8.991  14.796
35013SOL    HW1 6936   1.428   9.037  14.743
35013SOL    HW2 6937   1.575   9.004  14.750
35014SOL     OW 6938  13.305   7.663  10.175
35014SOL    HW1 6939  13.368   7.644  10.244
35014SOL    HW2 6940  13.304   7.759  10.169
35015SOL     OW 6941  11.724   4.717   2.329
35015SOL    HW1 6942  11.728   4.755   2.417
35015SOL    HW2 6943  11.754   4.627   2.341
35016SOL     OW 6944   4.764   2.423  10.951
35016SOL    HW1 6945   4.690   2.405  10.893
35016SOL    HW2 6946   4.750   2.513  10.981
35017SOL     OW 6947   8.354   3.783   2.134
35017SOL    HW1 6948   8.296   3.751   2.202
35017SOL    HW2 6949   8.422   3.717   2.126
35018SOL     OW 6950   8.595  12.697   2.055
35018SOL    HW1 6951   8.679  12.658   2.079
35018SOL    HW2 6952   8.608  12.732   1.967
35019SOL     OW 6953   8.413   2.053   9.080
35019SOL    HW1 6954   8.340   2.048   9.018
35019SOL    HW2 6955   8.457   1.969   9.070
35020SOL     OW 6956   6.124   1.115   3.176
35020SOL    HW1 6957   6.110   1.038   3.230
35020SOL    HW2 6958   6.201   1.094   3.122
35021SOL     OW 6959  13.264   6.588  11.329
35021SOL    HW1 6960  13.313   6.507  11.322
35021SOL    HW2 6961  13.308   6.648  11.268
35022SOL     OW 6962   5.190   6.410   7.508
35022SOL    HW1 6963   5.147   6.490   7.477
35022SOL    HW2 6964   5.233   6.436   7.589
35023SOL     OW 6965   5.304   8.297   7.836
35023SOL    HW1 6966   5.223   8.256   7.808
35023SOL    HW2 6967   5.327   8.253   7.917
35024SOL     OW 6968  10.639   5.912   4.660
35024SOL    HW1 6969  10.686   5.837   4.623
35024SOL    HW2 6970  10.546   5.889   4.652
35025SOL     OW 6971  10.327   0.145   8.481
35025SOL    HW1 6972  10.296   0.102   8.560
35025SOL    HW2 6973  10.407   0.190   8.508
35026SOL     OW 6974  13.894   2.275  14.067
35026SOL    HW1 6975  13.939   2.335  14.006
35026SOL    HW2 6976  13.897   2.190  14.023
35027SOL     OW 6977   4.584   2.544  10.633
35027SOL    HW1 6978   4.541   2.577  10.711
35027SOL    HW2 6979   4.515   2.536  10.568
35028SOL     OW 6980  14.071   3.801   7.933
35028SOL    HW1 6981  14.154   3.807   7.979
35028SOL    HW2 6982  14.081   3.725   7.875
35029SOL     OW 6983   6.249  10.969   4.616
35029SOL    HW1 6984   6.209  11.004   4.696
35029SOL    HW2 6985   6.185  10.986   4.547
35030SOL     OW 6986  13.165   4.936  14.253
35030SOL    HW1 6987  13.098   4.878  14.289
35030SOL    HW2 6988  13.173   4.910  14.161
35031SOL     OW 6989   5.577  12.822  12.748
35031SOL    HW1 6990   5.659  12.852  12.711
35031SOL    HW2 6991   5.572  12.729  12.724
35032SOL     OW 6992   4.721   6.013   2.524
35032SOL    HW1 6993   4.677   5.932   2.500
35032SOL    HW2 6994   4.658   6.060   2.579
35033SOL     OW 6995  14.465   4.876   1.141
35033SOL    HW1 6996  14.559   4.898   1.141
35033SOL    HW2 6997  14.425   4.942   1.084
35034SOL     OW 6998   8.891   6.376   9.110
35034SOL    HW1 6999   8.877   6.468   9.086
35034SOL    HW2 7000   8.821   6.357   9.173
35035SOL     OW 7001   7.242   7.689   4.327
35035SOL    HW1 7002   7.153   7.662   4.350
35035SOL    HW2 7003   7.279   7.723   4.409
35036SOL     OW 7004  12.269  10.189   9.560
35036SOL    HW1 7005  12.212  10.222   9.491
35036SOL    HW2 7006  12.323  10.123   9.517
35037SOL     OW 7007   0.463   8.903  12.389
35037SOL    HW1 7008   0.417   8.911  12.473
35037SOL    HW2 7009   0.546   8.862  12.411
35038SOL     OW 7010  10.982  13.381   3.177
35038SOL    HW1 7011  10.961  13.368   3.084
35038SOL    HW2 7012  11.077  13.377   3.180
35039SOL     OW 7013  14.060  10.994   9.721
35039SOL    HW1 7014  14.099  11.068   9.769
35039SOL    HW2 7015  14.115  10.919   9.743
35040SOL     OW 7016   6.914   5.231  13.486
35040SOL    HW1 7017   6.866   5.150  13.474
35040SOL    HW2 7018   6.850   5.300  13.468
35041SOL     OW 7019  12.235   6.455  11.444
35041SOL    HW1 7020  12.201   6.545  11.438
35041SOL    HW2 7021  12.277   6.451  11.530
35042SOL     OW 7022   0.021  10.523   7.927
35042SOL    HW1 7023  14.858  10.464   7.996
35042SOL    HW2 7024   0.071  10.467   7.868
35043SOL     OW 7025   6.792  10.924  12.380
35043SOL    HW1 7026   6.724  10.903  12.444
35043SOL    HW2 7027   6.870  10.942  12.432
35044SOL     OW 7028   0.265   2.652   6.878
35044SOL    HW1 7029   0.195   2.714   6.862
35044SOL    HW2 7030   0.228   2.567   6.853
35045SOL     OW 7031   0.689   1.049   5.062
35045SOL    HW1 7032   0.723   1.107   5.130
35045SOL    HW2 7033   0.664   1.107   4.990
35046SOL     OW 7034  14.094   8.924  10.311
35046SOL    HW1 7035  14.101   9.008  10.268
35046SOL    HW2 7036  14.171   8.918  10.367
35047SOL     OW 7037  13.588   0.552   3.378
35047SOL    HW1 7038  13.493   0.539   3.387
35047SOL    HW2 7039  13.596   0.617   3.308
35048SOL     OW 7040   5.944   4.631  13.853
35048SOL    HW1 7041   5.852   4.616  13.875
35048SOL    HW2 7042   5.990   4.618  13.936
35049SOL     OW 7043  10.596   2.456   7.530
35049SOL    HW1 7044  10.529   2.456   7.598
35049SOL    HW2 7045  10.660   2.391   7.560
35050SOL     OW 7046   3.053   2.470  11.100
35050SOL    HW1 7047   3.148   2.460  11.104
35050SOL    HW2 7048   3.030   2.513  11.183
35051SOL     OW 7049   0.925   8.613   7.664
35051SOL    HW1 7050   0.844   8.658   7.638
35051SOL    HW2 7051   0.914   8.597   7.757
35052SOL     OW 7052   9.376   1.088  13.886
35052SOL    HW1 7053   9.440   1.149  13.849
35052SOL    HW2 7054   9.410   1.001  13.864
35053SOL     OW 7055  14.509   6.063  11.175
35053SOL    HW1 7056  14.430   6.110  11.148
35053SOL    HW2 7057  14.479   5.974  11.193
35054SOL     OW 7058   8.197   0.078   1.802
35054SOL    HW1 7059   8.186   0.145   1.869
35054SOL    HW2 7060   8.179  14.863   1.847
35055SOL     OW 7061   5.899  11.271  14.570
35055SOL    HW1 7062   5.829  11.251  14.633
35055SOL    HW2 7063   5.885  11.210  14.498
35056SOL     OW 7064   8.570   7.319   4.308
35056SOL    HW1 7065   8.599   7.404   4.339
35056SOL    HW2 7066   8.630   7.256   4.348
35057SOL     OW 7067   1.594  10.111   9.244
35057SOL    HW1 7068   1.526  10.177   9.233
35057SOL    HW2 7069   1.551  10.028   9.222
35058SOL     OW 7070   3.514   9.619  13.311
35058SOL    HW1 7071   3.486   9.633  13.221
35058SOL    HW2 7072   3.504   9.525  13.326
35059SOL     OW 7073   2.711   8.988   8.762
35059SOL    HW1 7074   2.721   8.906   8.811
35059SOL    HW2 7075   2.772   9.049   8.803
35060SOL     OW 7076   4.608  11.968   1.130
35060SOL    HW1 7077   4.693  11.955   1.087
35060SOL    HW2 7078   4.605  12.061   1.149
35061SOL     OW 7079   4.600   6.696  14.306
35061SOL    HW1 7080   4.671   6.741  14.260
35061SOL    HW2 7081   4.527   6.759  14.304
35062SOL     OW 7082   6.781   1.031   8.905
35062SOL    HW1 7083   6.866   1.028   8.949
35062SOL    HW2 7084   6.801   1.017   8.812
35063SOL     OW 7085   9.435  11.509  12.311
35063SOL    HW1 7086   9.366  11.551  12.362
35063SOL    HW2 7087   9.498  11.478  12.376
35064SOL     OW 7088   6.117  10.137  11.873
35064SOL    HW1 7089   6.166  10.147  11.791
35064SOL    HW2 7090   6.172  10.081  11.927
35065SOL     OW 7091   7.947  14.578  14.849
35065SOL    HW1 7092   7.944  14.671  14.827
35065SOL    HW2 7093   7.931  14.533  14.766
35066SOL     OW 7094   2.096   8.640  14.162
35066SOL    HW1 7095   2.119   8.728  14.132
35066SOL    HW2 7096   2.030   8.611  14.100
35067SOL     OW 7097  12.434  14.262  10.203
35067SOL    HW1 7098  12.434  14.265  10.299
35067SOL    HW2 7099  12.519  14.224  10.180
35068SOL     OW 7100  11.648   4.649   9.360
35068SOL    HW1 7101  11.724   4.595   9.340
35068SOL    HW2 7102  11.683   4.738   9.366
35069SOL     OW 7103   3.422  11.218  12.670
35069SOL    HW1 7104   3.508  11.206  12.709
35069SOL    HW2 7105   3.407  11.312  12.672
35070SOL     OW 7106   1.295  13.902  13.661
35070SOL    HW1 7107   1.301  13.966  13.590
35070SOL    HW2 7108   1.374  13.915  13.713
35071SOL     OW 7109  13.929   7.450  13.532
35071SOL    HW1 7110  14.004   7.391  13.536
35071SOL    HW2 7111  13.854   7.393  13.518
35072SOL     OW 7112   9.584  13.525  12.829
35072SOL    HW1 7113   9.616  13.505  12.917
35072SOL    HW2 7114   9.493  13.551  12.843
35073SOL     OW 7115   2.506  13.783   9.463
35073SOL    HW1 7116   2.466  13.775   9.377
35073SOL    HW2 7117   2.436  13.816   9.519
35074SOL     OW 7118   4.454   2.978  11.461
35074SOL    HW1 7119   4.423   3.064  11.488
35074SOL    HW2 7120   4.517   2.996  11.391
35075SOL     OW 7121   1.994  14.413  13.692
35075SOL    HW1 7122   1.931  14.483  13.706
35075SOL    HW2 7123   2.073  14.442  13.737
35076SOL     OW 7124   8.629   4.030   1.672
35076SOL    HW1 7125   8.704   3.992   1.718
35076SOL    HW2 7126   8.555   3.977   1.699
35077SOL     OW 7127  14.738   2.274   6.194
35077SOL    HW1 7128  14.780   2.189   6.185
35077SOL    HW2 7129  14.646   2.253   6.215
35078SOL     OW 7130   4.854   2.289   1.882
35078SOL    HW1 7131   4.922   2.291   1.949
35078SOL    HW2 7132   4.875   2.213   1.829
35079SOL     OW 7133  11.475   1.361   6.230
35079SOL    HW1 7134  11.415   1.434   6.245
35079SOL    HW2 7135  11.562   1.399   6.245
35080SOL     OW 7136   6.929   2.855   6.219
35080SOL    HW1 7137   6.903   2.795   6.289
35080SOL    HW2 7138   7.022   2.872   6.236
35081SOL     OW 7139   6.810  14.165   6.113
35081SOL    HW1 7140   6.862  14.228   6.162
35081SOL    HW2 7141   6.829  14.081   6.153
35082SOL     OW 7142   6.829  10.316  10.540
35082SOL    HW1 7143   6.851  10.371  10.466
35082SOL    HW2 7144   6.897  10.249  10.542
35083SOL     OW 7145   0.630   7.725  10.101
35083SOL    HW1 7146   0.722   7.713  10.123
35083SOL    HW2 7147   0.589   7.642  10.125
35084SOL     OW 7148   7.472   2.904  12.924
35084SOL    HW1 7149   7.453   2.815  12.953
35084SOL    HW2 7150   7.436   2.961  12.992
35085SOL     OW 7151   8.236   3.977   7.041
35085SOL    HW1 7152   8.218   4.035   6.967
35085SOL    HW2 7153   8.191   3.896   7.020
35086SOL     OW 7154   4.671   2.917   7.625
35086SOL    HW1 7155   4.643   2.896   7.535
35086SOL    HW2 7156   4.608   2.983   7.654
35087SOL     OW 7157   5.789   6.956   3.369
35087SOL    HW1 7158   5.869   6.989   3.328
35087SOL    HW2 7159   5.800   6.861   3.371
35088SOL     OW 7160   7.861  12.204  11.278
35088SOL    HW1 7161   7.910  12.273  11.235
35088SOL    HW2 7162   7.840  12.142  11.208
35089SOL     OW 7163  12.951   2.082  14.692
35089SOL    HW1 7164  12.974   2.171  14.718
35089SOL    HW2 7165  12.992   2.026  14.758
35090SOL     OW 7166   3.219   1.300   5.873
35090SOL    HW1 7167   3.274   1.303   5.951
35090SOL    HW2 7168   3.275   1.333   5.802
35091SOL     OW 7169  11.017   1.173   8.396
35091SOL    HW1 7170  11.108   1.204   8.403
35091SOL    HW2 7171  11.010   1.105   8.462
35092SOL     OW 7172   0.453   1.507   0.653
35092SOL    HW1 7173   0.451   1.463   0.568
35092SOL    HW2 7174   0.477   1.597   0.632
35093SOL     OW 7175  10.845   5.438   4.067
35093SOL    HW1 7176  10.918   5.443   4.006
35093SOL    HW2 7177  10.795   5.518   4.051
35094SOL     OW 7178   4.093   4.394   2.576
35094SOL    HW1 7179   4.157   4.427   2.514
35094SOL    HW2 7180   4.020   4.456   2.572
35095SOL     OW 7181  10.000   6.029   9.295
35095SOL    HW1 7182  10.053   6.082   9.236
35095SOL    HW2 7183   9.919   6.079   9.306
35096SOL     OW 7184   3.311  12.526  10.865
35096SOL    HW1 7185   3.314  12.543  10.959
35096SOL    HW2 7186   3.281  12.435  10.858
35097SOL     OW 7187   2.144  10.323   2.804
35097SOL    HW1 7188   2.144  10.374   2.884
35097SOL    HW2 7189   2.073  10.359   2.752
35098SOL     OW 7190   9.071   5.468   7.851
35098SOL    HW1 7191   9.046   5.435   7.938
35098SOL    HW2 7192   8.988   5.494   7.811
35099SOL     OW 7193   1.144  10.581   1.933
35099SOL    HW1 7194   1.137  10.529   2.013
35099SOL    HW2 7195   1.061  10.566   1.888
35100SOL     OW 7196   3.253  10.653   6.991
35100SOL    HW1 7197   3.160  10.633   7.006
35100SOL    HW2 7198   3.285  10.679   7.077
35101SOL     OW 7199   2.980  13.365   6.739
35101SOL    HW1 7200   3.012  13.454   6.726
35101SOL    HW2 7201   3.046  13.310   6.697
35102SOL     OW 7202   8.721   9.686  11.483
35102SOL    HW1 7203   8.690   9.617  11.542
35102SOL    HW2 7204   8.812   9.663  11.465
35103SOL     OW 7205   3.027   0.566   6.926
35103SOL    HW1 7206   3.063   0.489   6.881
35103SOL    HW2 7207   3.067   0.640   6.880
35104SOL     OW 7208   3.310   5.837   0.102
35104SOL    HW1 7209   3.223   5.836   0.143
35104SOL    HW2 7210   3.301   5.778   0.027
35105SOL     OW 7211   1.621   1.288   6.056
35105SOL    HW1 7212   1.654   1.245   6.135
35105SOL    HW2 7213   1.668   1.245   5.984
35106SOL     OW 7214   9.148   1.227   9.531
35106SOL    HW1 7215   9.222   1.176   9.496
35106SOL    HW2 7216   9.182   1.316   9.539
35107SOL     OW 7217   9.011   5.662   1.270
35107SOL    HW1 7218   9.092   5.681   1.223
35107SOL    HW2 7219   8.947   5.643   1.201
35108SOL     OW 7220   4.324   6.751  12.075
35108SOL    HW1 7221   4.275   6.718  12.151
35108SOL    HW2 7222   4.270   6.726  12.000
35109SOL     OW 7223   8.025   4.259   7.874
35109SOL    HW1 7224   8.043   4.166   7.858
35109SOL    HW2 7225   8.099   4.288   7.929
35110SOL     OW 7226   1.741   8.410   1.451
35110SOL    HW1 7227   1.780   8.346   1.392
35110SOL    HW2 7228   1.735   8.364   1.535
35111SOL     OW 7229   7.644  11.963  13.770
35111SOL    HW1 7230   7.691  11.944  13.852
35111SOL    HW2 7231   7.671  11.893  13.711
35112SOL     OW 7232   0.209   4.398   7.865
35112SOL    HW1 7233   0.235   4.330   7.927
35112SOL    HW2 7234   0.142   4.357   7.811
35113SOL     OW 7235   7.524   0.230  13.118
35113SOL    HW1 7236   7.603   0.267  13.079
35113SOL    HW2 7237   7.468   0.209  13.044
35114SOL     OW 7238   1.802   2.274   1.765
35114SOL    HW1 7239   1.791   2.183   1.794
35114SOL    HW2 7240   1.888   2.299   1.798
35115SOL     OW 7241   4.577  13.054   2.327
35115SOL    HW1 7242   4.525  13.059   2.248
35115SOL    HW2 7243   4.578  12.961   2.349
35116SOL     OW 7244  11.651   6.792   6.046
35116SOL    HW1 7245  11.580   6.809   6.106
35116SOL    HW2 7246  11.695   6.715   6.082
35117SOL     OW 7247   0.506   4.449  10.769
35117SOL    HW1 7248   0.506   4.355  10.751
35117SOL    HW2 7249   0.420   4.467  10.805
35118SOL     OW 7250   9.566  12.289  14.110
35118SOL    HW1 7251   9.576  12.194  14.116
35118SOL    HW2 7252   9.656  12.323  14.115
35119SOL     OW 7253   6.320   4.534   6.116
35119SOL    HW1 7254   6.334   4.545   6.211
35119SOL    HW2 7255   6.355   4.447   6.097
35120SOL     OW 7256   7.594   0.345  10.474
35120SOL    HW1 7257   7.544   0.379  10.399
35120SOL    HW2 7258   7.576   0.408  10.545
35121SOL     OW 7259   5.886  10.501  12.012
35121SOL    HW1 7260   5.945  10.462  11.948
35121SOL    HW2 7261   5.944  10.553  12.069
35122SOL     OW 7262  11.915  11.781  11.971
35122SOL    HW1 7263  11.968  11.850  11.931
35122SOL    HW2 7264  11.868  11.825  12.042
35123SOL     OW 7265   3.240   9.227   3.060
35123SOL    HW1 7266   3.333   9.210   3.072
35123SOL    HW2 7267   3.203   9.221   3.148
35124SOL     OW 7268  14.769  13.888   9.346
35124SOL    HW1 7269  14.704  13.855   9.284
35124SOL    HW2 7270  14.833  13.934   9.291
35125SOL     OW 7271   4.670  14.238   6.311
35125SOL    HW1 7272   4.726  14.198   6.378
35125SOL    HW2 7273   4.667  14.331   6.334
35126SOL     OW 7274   0.359   6.977  12.371
35126SOL    HW1 7275   0.440   6.931  12.346
35126SOL    HW2 7276   0.377   7.009  12.460
35127SOL     OW 7277   6.637   6.450   2.998
35127SOL    HW1 7278   6.544   6.472   3.006
35127SOL    HW2 7279   6.638   6.364   2.955
35128SOL     OW 7280  10.018   1.580   6.927
35128SOL    HW1 7281  10.053   1.564   6.839
35128SOL    HW2 7282  10.070   1.654   6.959
35129SOL     OW 7283   8.916  14.141  12.929
35129SOL    HW1 7284   8.941  14.062  12.977
35129SOL    HW2 7285   8.985  14.204  12.948
35130SOL     OW 7286   6.712   8.022  14.014
35130SOL    HW1 7287   6.627   7.992  13.982
35130SOL    HW2 7288   6.775   7.972  13.962
35131SOL     OW 7289   2.582  11.657  13.125
35131SOL    HW1 7290   2.665  11.614  13.146
35131SOL    HW2 7291   2.551  11.612  13.047
35132SOL     OW 7292  12.778  10.651   4.561
35132SOL    HW1 7293  12.873  10.653   4.576
35132SOL    HW2 7294  12.764  10.573   4.508
35133SOL     OW 7295  14.560  12.071  10.122
35133SOL    HW1 7296  14.634  12.034  10.074
35133SOL    HW2 7297  14.600  12.122  10.193
35134SOL     OW 7298   6.880   3.493  10.271
35134SOL    HW1 7299   6.949   3.435  10.238
35134SOL    HW2 7300   6.913   3.523  10.356
35135SOL     OW 7301   9.790   6.223   2.891
35135SOL    HW1 7302   9.772   6.256   2.803
35135SOL    HW2 7303   9.815   6.132   2.879
35136SOL     OW 7304   6.943   5.303   6.012
35136SOL    HW1 7305   6.942   5.398   6.002
35136SOL    HW2 7306   6.903   5.270   5.931
35137SOL     OW 7307   2.269   5.900   2.384
35137SOL    HW1 7308   2.223   5.937   2.308
35137SOL    HW2 7309   2.346   5.857   2.347
35138SOL     OW 7310   1.117   8.846  12.557
35138SOL    HW1 7311   1.183   8.777  12.561
35138SOL    HW2 7312   1.033   8.801  12.566
35139SOL     OW 7313   1.164   8.185  11.702
35139SOL    HW1 7314   1.188   8.194  11.610
35139SOL    HW2 7315   1.158   8.275  11.734
35140SOL     OW 7316   2.422   7.485  12.585
35140SOL    HW1 7317   2.407   7.447  12.671
35140SOL    HW2 7318   2.448   7.411  12.530
35141SOL     OW 7319   3.357   6.126   5.473
35141SOL    HW1 7320   3.297   6.187   5.516
35141SOL    HW2 7321   3.442   6.169   5.478
35142SOL     OW 7322   9.073  10.832  11.403
35142SOL    HW1 7323   9.134  10.846  11.330
35142SOL    HW2 7324   9.060  10.737  11.405
35143SOL     OW 7325   6.828  10.615   6.388
35143SOL    HW1 7326   6.889  10.641   6.457
35143SOL    HW2 7327   6.755  10.574   6.435
35144SOL     OW 7328  10.932   6.078   5.000
35144SOL    HW1 7329  10.837   6.069   4.996
35144SOL    HW2 7330  10.962   6.047   4.914
35145SOL     OW 7331  12.829  12.365   4.506
35145SOL    HW1 7332  12.829  12.269   4.509
35145SOL    HW2 7333  12.922  12.388   4.499
35146SOL     OW 7334   9.387   0.633   4.774
35146SOL    HW1 7335   9.312   0.674   4.730
35146SOL    HW2 7336   9.409   0.694   4.845
35147SOL     OW 7337   3.319  14.620   6.350
35147SOL    HW1 7338   3.314  14.579   6.263
35147SOL    HW2 7339   3.260  14.695   6.344
35148SOL     OW 7340   0.828   8.917  10.692
35148SOL    HW1 7341   0.830   8.999  10.740
35148SOL    HW2 7342   0.907   8.871  10.718
35149SOL     OW 7343  12.670  11.211   9.892
35149SOL    HW1 7344  12.579  11.238   9.881
35149SOL    HW2 7345  12.674  11.124   9.851
35150SOL     OW 7346  11.625   3.828   4.406
35150SOL    HW1 7347  11.637   3.743   4.448
35150SOL    HW2 7348  11.692   3.830   4.338
35151SOL     OW 7349   4.684   5.071  11.794
35151SOL    HW1 7350   4.653   4.993  11.749
35151SOL    HW2 7351   4.637   5.073  11.877
35152SOL     OW 7352   9.446   2.116   0.377
35152SOL    HW1 7353   9.395   2.195   0.394
35152SOL    HW2 7354   9.381   2.045   0.379
35153SOL     OW 7355   5.110   3.263   3.477
35153SOL    HW1 7356   5.119   3.238   3.385
35153SOL    HW2 7357   5.112   3.359   3.476
35154SOL     OW 7358   9.881   7.320  12.180
35154SOL    HW1 7359   9.865   7.388  12.245
35154SOL    HW2 7360   9.975   7.326  12.162
35155SOL     OW 7361   0.005   9.802  12.939
35155SOL    HW1 7362   0.038   9.889  12.916
35155SOL    HW2 7363   0.047   9.744  12.876
35156SOL     OW 7364  11.221   9.649   7.866
35156SOL    HW1 7365  11.214   9.714   7.935
35156SOL    HW2 7366  11.312   9.618   7.872
35157SOL     OW 7367   6.982   1.298   7.922
35157SOL    HW1 7368   6.953   1.341   8.003
35157SOL    HW2 7369   6.934   1.215   7.921
35158SOL     OW 7370  11.328  14.049   1.515
35158SOL    HW1 7371  11.328  14.138   1.552
35158SOL    HW2 7372  11.405  14.008   1.552
35159SOL     OW 7373   8.904   8.459  14.433
35159SOL    HW1 7374   8.945   8.491  14.514
35159SOL    HW2 7375   8.962   8.490  14.363
35160SOL     OW 7376  10.204  13.034   3.937
35160SOL    HW1 7377  10.175  13.012   3.849
35160SOL    HW2 7378  10.189  12.955   3.988
35161SOL     OW 7379  13.105   6.743   2.188
35161SOL    HW1 7380  13.100   6.743   2.283
35161SOL    HW2 7381  13.014   6.731   2.159
35162SOL     OW 7382   4.638   3.748   2.545
35162SOL    HW1 7383   4.682   3.736   2.461
35162SOL    HW2 7384   4.673   3.679   2.601
35163SOL     OW 7385   3.975   8.463  13.164
35163SOL    HW1 7386   3.969   8.548  13.120
35163SOL    HW2 7387   4.069   8.446  13.170
35164SOL     OW 7388   0.579  13.090   9.827
35164SOL    HW1 7389   0.551  13.000   9.846
35164SOL    HW2 7390   0.502  13.131   9.788
35165SOL     OW 7391   8.377   5.103   1.069
35165SOL    HW1 7392   8.324   5.116   0.990
35165SOL    HW2 7393   8.467   5.106   1.038
35166SOL     OW 7394   1.172   9.040   6.509
35166SOL    HW1 7395   1.080   9.022   6.528
35166SOL    HW2 7396   1.176   9.049   6.414
35167SOL     OW 7397   5.407   7.100   2.864
35167SOL    HW1 7398   5.349   7.085   2.789
35167SOL    HW2 7399   5.386   7.188   2.893
35168SOL     OW 7400  11.436  11.880   3.488
35168SOL    HW1 7401  11.347  11.880   3.453
35168SOL    HW2 7402  11.492  11.896   3.412
35169SOL     OW 7403   6.810   6.973   0.118
35169SOL    HW1 7404   6.764   6.891   0.105
35169SOL    HW2 7405   6.880   6.952   0.181
35170SOL     OW 7406   2.490   7.177   7.977
35170SOL    HW1 7407   2.504   7.272   7.978
35170SOL    HW2 7408   2.529   7.148   7.895
35171SOL     OW 7409   7.493  10.918   6.666
35171SOL    HW1 7410   7.410  10.928   6.712
35171SOL    HW2 7411   7.500  10.996   6.611
35172SOL     OW 7412   9.724   6.409   9.682
35172SOL    HW1 7413   9.685   6.323   9.667
35172SOL    HW2 7414   9.685   6.465   9.615
35173SOL     OW 7415   3.910   7.179  12.312
35173SOL    HW1 7416   3.905   7.108  12.248
35173SOL    HW2 7417   3.872   7.255  12.267
35174SOL     OW 7418   0.070  14.197   0.368
35174SOL    HW1 7419   0.106  14.172   0.453
35174SOL    HW2 7420   0.144  14.239   0.323
35175SOL     OW 7421   6.413   2.320   8.842
35175SOL    HW1 7422   6.348   2.285   8.903
35175SOL    HW2 7423   6.481   2.253   8.838
35176SOL     OW 7424   4.839  14.092   6.476
35176SOL    HW1 7425   4.895  14.061   6.547
35176SOL    HW2 7426   4.806  14.012   6.435
35177SOL     OW 7427  12.344   7.895   6.483
35177SOL    HW1 7428  12.276   7.956   6.455
35177SOL    HW2 7429  12.415   7.952   6.513
35178SOL     OW 7430  10.466  14.364  12.711
35178SOL    HW1 7431  10.392  14.333  12.763
35178SOL    HW2 7432  10.501  14.285  12.669
35179SOL     OW 7433   6.185  12.904   6.385
35179SOL    HW1 7434   6.169  12.999   6.389
35179SOL    HW2 7435   6.120  12.866   6.444
35180SOL     OW 7436   9.009   7.018   5.433
35180SOL    HW1 7437   9.089   6.971   5.458
35180SOL    HW2 7438   8.950   7.003   5.507
35181SOL     OW 7439   5.355   6.915  13.936
35181SOL    HW1 7440   5.377   6.907  13.843
35181SOL    HW2 7441   5.304   6.996  13.941
35182SOL     OW 7442  12.675  10.183   2.063
35182SOL    HW1 7443  12.761  10.195   2.022
35182SOL    HW2 7444  12.693  10.128   2.139
35183SOL     OW 7445   5.733   0.019   6.235
35183SOL    HW1 7446   5.789  14.813   6.257
35183SOL    HW2 7447   5.662  14.849   6.183
35184SOL     OW 7448   2.764  10.294  14.106
35184SOL    HW1 7449   2.780  10.218  14.050
35184SOL    HW2 7450   2.764  10.368  14.045
35185SOL     OW 7451   5.625   0.942   2.653
35185SOL    HW1 7452   5.530   0.948   2.660
35185SOL    HW2 7453   5.642   0.852   2.626
35186SOL     OW 7454  11.199   5.131   6.676
35186SOL    HW1 7455  11.242   5.187   6.611
35186SOL    HW2 7456  11.114   5.110   6.639
35187SOL     OW 7457   6.508   8.148   5.186
35187SOL    HW1 7458   6.580   8.188   5.137
35187SOL    HW2 7459   6.436   8.143   5.122
35188SOL     OW 7460  10.009   8.875   6.048
35188SOL    HW1 7461  10.093   8.835   6.025
35188SOL    HW2 7462   9.944   8.819   6.005
35189SOL     OW 7463  10.058  12.587  13.886
35189SOL    HW1 7464   9.983  12.633  13.849
35189SOL    HW2 7465  10.036  12.576  13.979
35190SOL     OW 7466   1.745  10.855  10.863
35190SOL    HW1 7467   1.763  10.919  10.933
35190SOL    HW2 7468   1.799  10.884  10.790
35191SOL     OW 7469  10.177   0.468   4.108
35191SOL    HW1 7470  10.195   0.562   4.110
35191SOL    HW2 7471  10.197   0.437   4.196
35192SOL     OW 7472  11.818   6.792   8.168
35192SOL    HW1 7473  11.757   6.840   8.223
35192SOL    HW2 7474  11.894   6.777   8.224
35193SOL     OW 7475  10.537   0.018  10.333
35193SOL    HW1 7476  10.534   0.070  10.253
35193SOL    HW2 7477  10.583   0.073  10.396
35194SOL     OW 7478   6.417   0.017   2.398
35194SOL    HW1 7479   6.389   0.099   2.356
35194SOL    HW2 7480   6.336  14.835   2.410
35195SOL     OW 7481   6.369   7.318  12.136
35195SOL    HW1 7482   6.443   7.378  12.125
35195SOL    HW2 7483   6.409   7.231  12.135
35196SOL     OW 7484   8.014   8.618   4.903
35196SOL    HW1 7485   7.920   8.632   4.897
35196SOL    HW2 7486   8.044   8.613   4.812
35197SOL     OW 7487   8.966   2.779   6.104
35197SOL    HW1 7488   8.893   2.744   6.155
35197SOL    HW2 7489   9.029   2.708   6.100
35198SOL     OW 7490   1.984  10.102   5.849
35198SOL    HW1 7491   1.929  10.131   5.922
35198SOL    HW2 7492   2.073  10.106   5.883
35199SOL     OW 7493   3.785   6.808  11.763
35199SOL    HW1 7494   3.737   6.735  11.723
35199SOL    HW2 7495   3.791   6.873  11.693
35200SOL     OW 7496  12.111  11.537   2.464
35200SOL    HW1 7497  12.205  11.538   2.482
35200SOL    HW2 7498  12.105  11.550   2.369
35201SOL     OW 7499   0.680  12.395   1.510
35201SOL    HW1 7500   0.660  12.467   1.450
35201SOL    HW2 7501   0.772  12.409   1.533
35202SOL     OW 7502  13.698  13.724   8.038
35202SOL    HW1 7503  13.659  13.760   7.959
35202SOL    HW2 7504  13.646  13.646   8.057
35203SOL     OW 7505   4.154  14.338   7.902
35203SOL    HW1 7506   4.217  14.336   7.830
35203SOL    HW2 7507   4.121  14.248   7.908
35204SOL     OW 7508   3.352   3.601  10.597
35204SOL    HW1 7509   3.430   3.649  10.570
35204SOL    HW2 7510   3.304   3.586  10.515
35205SOL     OW 7511  11.323   6.569  14.694
35205SOL    HW1 7512  11.250   6.613  14.737
35205SOL    HW2 7513  11.395   6.574  14.757
35206SOL     OW 7514   4.875   3.765   4.064
35206SOL    HW1 7515   4.919   3.693   4.018
35206SOL    HW2 7516   4.817   3.804   3.998
35207SOL     OW 7517  13.935   8.337  13.475
35207SOL    HW1 7518  14.021   8.314  13.439
35207SOL    HW2 7519  13.873   8.287  13.422
35208SOL     OW 7520  14.846   2.469  13.846
35208SOL    HW1 7521  14.792   2.391  13.829
35208SOL    HW2 7522  14.789   2.526  13.898
35209SOL     OW 7523   5.624   3.673   2.715
35209SOL    HW1 7524   5.694   3.614   2.685
35209SOL    HW2 7525   5.599   3.639   2.801
35210SOL     OW 7526   8.711   7.943   4.687
35210SOL    HW1 7527   8.799   7.916   4.714
35210SOL    HW2 7528   8.718   8.038   4.675
35211SOL     OW 7529  11.254   7.112   8.351
35211SOL    HW1 7530  11.206   7.031   8.368
35211SOL    HW2 7531  11.193   7.182   8.374
35212SOL     OW 7532  14.168   6.314   5.869
35212SOL    HW1 7533  14.134   6.229   5.895
35212SOL    HW2 7534  14.178   6.362   5.951
35213SOL     OW 7535   6.095   6.885   6.666
35213SOL    HW1 7536   6.073   6.945   6.737
35213SOL    HW2 7537   6.150   6.819   6.708
35214SOL     OW 7538  14.511   1.071  14.173
35214SOL    HW1 7539  14.604   1.060  14.156
35214SOL    HW2 7540  14.491   1.158  14.139
35215SOL     OW 7541  14.220   0.247  14.556
35215SOL    HW1 7542  14.127   0.267  14.549
35215SOL    HW2 7543  14.232   0.217  14.647
35216SOL     OW 7544   4.837   4.928  14.635
35216SOL    HW1 7545   4.742   4.929  14.626
35216SOL    HW2 7546   4.853   4.885  14.719
35217SOL     OW 7547   9.600   5.015   2.674
35217SOL    HW1 7548   9.668   5.082   2.661
35217SOL    HW2 7549   9.649   4.934   2.690
35218SOL     OW 7550  11.407  12.437  12.284
35218SOL    HW1 7551  11.460  12.460  12.208
35218SOL    HW2 7552  11.470  12.399  12.346
35219SOL     OW 7553   7.920  14.758   0.247
35219SOL    HW1 7554   7.897  14.842   0.206
35219SOL    HW2 7555   8.015  14.761   0.257
35220SOL     OW 7556   1.747   4.620  11.872
35220SOL    HW1 7557   1.788   4.706  11.868
35220SOL    HW2 7558   1.793   4.574  11.942
35221SOL     OW 7559   4.131   4.198   8.104
35221SOL    HW1 7560   4.181   4.277   8.123
35221SOL    HW2 7561   4.137   4.146   8.184
35222SOL     OW 7562   4.358   7.035   7.619
35222SOL    HW1 7563   4.380   6.962   7.561
35222SOL    HW2 7564   4.425   7.032   7.688
35223SOL     OW 7565   4.555   6.731   6.845
35223SOL    HW1 7566   4.533   6.694   6.930
35223SOL    HW2 7567   4.639   6.691   6.822
35224SOL     OW 7568   7.925   5.898   2.934
35224SOL    HW1 7569   7.933   5.955   3.011
35224SOL    HW2 7570   7.857   5.835   2.959
35225SOL     OW 7571  14.101  10.209  14.196
35225SOL    HW1 7572  14.186  10.168  14.211
35225SOL    HW2 7573  14.117  10.302  14.209
35226SOL     OW 7574   0.807   9.989   9.042
35226SOL    HW1 7575   0.823   9.934   9.118
35226SOL    HW2 7576   0.712  10.001   9.039
35227SOL     OW 7577  13.826   8.806   3.600
35227SOL    HW1 7578  13.895   8.752   3.560
35227SOL    HW2 7579  13.773   8.744   3.650
35228SOL     OW 7580   0.909   7.227  13.414
35228SOL    HW1 7581   0.854   7.211  13.490
35228SOL    HW2 7582   0.874   7.169  13.346
35229SOL     OW 7583   5.850   2.502  13.706
35229SOL    HW1 7584   5.891   2.438  13.764
35229SOL    HW2 7585   5.849   2.458  13.621
35230SOL     OW 7586   1.333   4.825  12.376
35230SOL    HW1 7587   1.291   4.783  12.451
35230SOL    HW2 7588   1.392   4.757  12.341
35231SOL     OW 7589   7.373   9.406  13.678
35231SOL    HW1 7590   7.452   9.417  13.731
35231SOL    HW2 7591   7.307   9.371  13.738
35232SOL     OW 7592   3.771  12.528   1.629
35232SOL    HW1 7593   3.814  12.613   1.642
35232SOL    HW2 7594   3.814  12.491   1.552
35233SOL     OW 7595  10.080  14.817  13.506
35233SOL    HW1 7596  10.050   0.015  13.569
35233SOL    HW2 7597  10.170  14.844  13.485
35234SOL     OW 7598   3.666   7.658   9.046
35234SOL    HW1 7599   3.745   7.707   9.022
35234SOL    HW2 7600   3.698   7.570   9.066
35235SOL     OW 7601  14.485  13.368   6.931
35235SOL    HW1 7602  14.568  13.394   6.892
35235SOL    HW2 7603  14.448  13.450   6.965
35236SOL     OW 7604   3.199  11.770   4.022
35236SOL    HW1 7605   3.135  11.698   4.019
35236SOL    HW2 7606   3.175  11.826   3.949
35237SOL     OW 7607  14.537   3.425   8.675
35237SOL    HW1 7608  14.546   3.520   8.676
35237SOL    HW2 7609  14.457   3.408   8.725
35238SOL     OW 7610   4.117  11.814   5.681
35238SOL    HW1 7611   4.104  11.887   5.620
35238SOL    HW2 7612   4.078  11.739   5.636
35239SOL     OW 7613  13.063   8.219   7.393
35239SOL    HW1 7614  13.086   8.132   7.425
35239SOL    HW2 7615  13.137   8.274   7.417
35240SOL     OW 7616   5.571   1.133  11.614
35240SOL    HW1 7617   5.644   1.109  11.671
35240SOL    HW2 7618   5.596   1.217  11.578
35241SOL     OW 7619  14.291   7.385   6.223
35241SOL    HW1 7620  14.276   7.371   6.316
35241SOL    HW2 7621  14.231   7.455   6.199
35242SOL     OW 7622  10.601  14.297  12.327
35242SOL    HW1 7623  10.570  14.368  12.383
35242SOL    HW2 7624  10.676  14.334  12.280
35243SOL     OW 7625   6.186  13.876   5.563
35243SOL    HW1 7626   6.256  13.904   5.504
35243SOL    HW2 7627   6.226  13.874   5.650
35244SOL     OW 7628  10.476   6.829  13.297
35244SOL    HW1 7629  10.501   6.911  13.338
35244SOL    HW2 7630  10.409   6.853  13.233
35245SOL     OW 7631  14.178  14.540   3.584
35245SOL    HW1 7632  14.170  14.544   3.489
35245SOL    HW2 7633  14.149  14.625   3.615
35246SOL     OW 7634   6.481   7.440   6.485
35246SOL    HW1 7635   6.518   7.456   6.572
35246SOL    HW2 7636   6.398   7.395   6.502
35247SOL     OW 7637  13.454   0.429   0.275
35247SOL    HW1 7638  13.454   0.350   0.329
35247SOL    HW2 7639  13.503   0.493   0.327
35248SOL     OW 7640   8.952   1.943  11.915
35248SOL    HW1 7641   8.862   1.957  11.945
35248SOL    HW2 7642   9.006   1.967  11.990
35249SOL     OW 7643  10.291   0.523  10.538
35249SOL    HW1 7644  10.208   0.567  10.519
35249SOL    HW2 7645  10.265   0.442  10.583
35250SOL     OW 7646   8.294   8.054   0.740
35250SOL    HW1 7647   8.292   8.096   0.654
35250SOL    HW2 7648   8.235   7.979   0.731
35251SOL     OW 7649   6.778   4.802   2.017
35251SOL    HW1 7650   6.707   4.759   2.065
35251SOL    HW2 7651   6.857   4.770   2.059
35252SOL     OW 7652  10.593   2.258   5.100
35252SOL    HW1 7653  10.561   2.215   5.179
35252SOL    HW2 7654  10.516   2.299   5.062
35253SOL     OW 7655   6.667   5.635   7.727
35253SOL    HW1 7656   6.593   5.576   7.713
35253SOL    HW2 7657   6.632   5.705   7.782
35254SOL     OW 7658  10.950   7.107  13.829
35254SOL    HW1 7659  11.046   7.106  13.835
35254SOL    HW2 7660  10.929   7.032  13.775
35255SOL     OW 7661   8.170   0.278   2.649
35255SOL    HW1 7662   8.153   0.365   2.613
35255SOL    HW2 7663   8.265   0.268   2.645
35256SOL     OW 7664   1.363   1.825   5.193
35256SOL    HW1 7665   1.316   1.906   5.214
35256SOL    HW2 7666   1.395   1.837   5.104
35257SOL     OW 7667   9.807   0.019   7.778
35257SOL    HW1 7668   9.756  14.840   7.712
35257SOL    HW2 7669   9.876  14.825   7.803
35258SOL     OW 7670   2.738  12.036  11.131
35258SOL    HW1 7671   2.795  11.982  11.076
35258SOL    HW2 7672   2.737  11.992  11.216
35259SOL     OW 7673  12.513   7.105  10.962
35259SOL    HW1 7674  12.577   7.044  10.998
35259SOL    HW2 7675  12.474   7.058  10.888
35260SOL     OW 7676   7.515  13.167  11.837
35260SOL    HW1 7677   7.535  13.220  11.913
35260SOL    HW2 7678   7.464  13.093  11.871
35261SOL     OW 7679   5.754   9.985   1.063
35261SOL    HW1 7680   5.798   9.910   1.022
35261SOL    HW2 7681   5.727  10.040   0.989
35262SOL     OW 7682   3.798  13.880  11.740
35262SOL    HW1 7683   3.787  13.937  11.815
35262SOL    HW2 7684   3.870  13.822  11.763
35263SOL     OW 7685  10.678   2.058   8.117
35263SOL    HW1 7686  10.627   2.096   8.188
35263SOL    HW2 7687  10.758   2.112   8.114
35264SOL     OW 7688   2.271   5.801  13.226
35264SOL    HW1 7689   2.200   5.736  13.224
35264SOL    HW2 7690   2.302   5.804  13.136
35265SOL     OW 7691   2.341   7.902  12.089
35265SOL    HW1 7692   2.400   7.965  12.129
35265SOL    HW2 7693   2.367   7.817  12.126
35266SOL     OW 7694   4.743   3.592   1.898
35266SOL    HW1 7695   4.817   3.650   1.875
35266SOL    HW2 7696   4.714   3.556   1.814
35267SOL     OW 7697   7.764   6.523   6.992
35267SOL    HW1 7698   7.739   6.457   6.928
35267SOL    HW2 7699   7.807   6.591   6.940
35268SOL     OW 7700   4.198  11.610   7.012
35268SOL    HW1 7701   4.126  11.653   7.058
35268SOL    HW2 7702   4.206  11.657   6.929
35269SOL     OW 7703   1.565   0.911   3.929
35269SOL    HW1 7704   1.642   0.855   3.931
35269SOL    HW2 7705   1.503   0.865   3.872
35270SOL     OW 7706  14.181   6.109   8.498
35270SOL    HW1 7707  14.238   6.142   8.568
35270SOL    HW2 7708  14.108   6.170   8.495
35271SOL     OW 7709  11.101   4.790  12.013
35271SOL    HW1 7710  11.194   4.783  12.035
35271SOL    HW2 7711  11.058   4.813  12.095
35272SOL     OW 7712   3.529   8.382   4.584
35272SOL    HW1 7713   3.487   8.447   4.528
35272SOL    HW2 7714   3.609   8.358   4.537
35273SOL     OW 7715   0.693   8.369  12.906
35273SOL    HW1 7716   0.688   8.363  12.811
35273SOL    HW2 7717   0.667   8.459  12.926
35274SOL     OW 7718  13.794   4.215   5.417
35274SOL    HW1 7719  13.846   4.287   5.381
35274SOL    HW2 7720  13.826   4.137   5.372
35275SOL     OW 7721  13.299  12.830  11.945
35275SOL    HW1 7722  13.380  12.810  11.992
35275SOL    HW2 7723  13.281  12.922  11.966
35276SOL     OW 7724   7.113   8.077   2.319
35276SOL    HW1 7725   7.155   7.995   2.293
35276SOL    HW2 7726   7.125   8.135   2.243
35277SOL     OW 7727   4.893   0.541   5.319
35277SOL    HW1 7728   4.804   0.571   5.300
35277SOL    HW2 7729   4.944   0.567   5.242
35278SOL     OW 7730   3.789   1.832  12.819
35278SOL    HW1 7731   3.819   1.742  12.803
35278SOL    HW2 7732   3.848   1.864  12.888
35279SOL     OW 7733   0.150   1.692   8.211
35279SOL    HW1 7734   0.240   1.689   8.244
35279SOL    HW2 7735   0.109   1.764   8.259
35280SOL     OW 7736   0.440  12.458   1.743
35280SOL    HW1 7737   0.454  12.413   1.826
35280SOL    HW2 7738   0.407  12.390   1.684
35281SOL     OW 7739   9.342   1.249   7.439
35281SOL    HW1 7740   9.422   1.197   7.447
35281SOL    HW2 7741   9.361   1.313   7.371
35282SOL     OW 7742  13.878   0.393  11.504
35282SOL    HW1 7743  13.816   0.428  11.440
35282SOL    HW2 7744  13.962   0.433  11.480
35283SOL     OW 7745   7.873  10.261   4.135
35283SOL    HW1 7746   7.870  10.317   4.213
35283SOL    HW2 7747   7.853  10.320   4.062
35284SOL     OW 7748   2.381   6.632   1.980
35284SOL    HW1 7749   2.327   6.638   1.901
35284SOL    HW2 7750   2.341   6.562   2.032
35285SOL     OW 7751   8.228   6.310   4.485
35285SOL    HW1 7752   8.207   6.390   4.532
35285SOL    HW2 7753   8.323   6.301   4.492
35286SOL     OW 7754   7.898  10.504   2.490
35286SOL    HW1 7755   7.870  10.448   2.562
35286SOL    HW2 7756   7.818  10.544   2.457
35287SOL     OW 7757   8.423   8.054   3.407
35287SOL    HW1 7758   8.483   8.039   3.480
35287SOL    HW2 7759   8.348   7.997   3.425
35288SOL     OW 7760   2.871   4.083   3.193
35288SOL    HW1 7761   2.920   4.163   3.173
35288SOL    HW2 7762   2.877   4.075   3.288
35289SOL     OW 7763  12.147  12.425  11.061
35289SOL    HW1 7764  12.234  12.452  11.030
35289SOL    HW2 7765  12.126  12.486  11.131
35290SOL     OW 7766   4.590   4.194  14.825
35290SOL    HW1 7767   4.609   4.132   0.028
35290SOL    HW2 7768   4.495   4.202  14.824
35291SOL     OW 7769   3.245   9.920  11.027
35291SOL    HW1 7770   3.292   9.994  11.065
35291SOL    HW2 7771   3.155   9.951  11.016
35292SOL     OW 7772   5.635  14.729  13.960
35292SOL    HW1 7773   5.555  14.782  13.951
35292SOL    HW2 7774   5.638  14.706  14.052
35293SOL     OW 7775  13.147   5.636  13.915
35293SOL    HW1 7776  13.212   5.572  13.885
35293SOL    HW2 7777  13.088   5.647  13.841
35294SOL     OW 7778   7.191   1.626  11.973
35294SOL    HW1 7779   7.177   1.540  11.933
35294SOL    HW2 7780   7.189   1.687  11.900
35295SOL     OW 7781   1.823  12.266  13.086
35295SOL    HW1 7782   1.776  12.303  13.011
35295SOL    HW2 7783   1.876  12.195  13.049
35296SOL     OW 7784   6.331   1.986   5.262
35296SOL    HW1 7785   6.361   2.070   5.227
35296SOL    HW2 7786   6.371   1.980   5.348
35297SOL     OW 7787   0.870  11.028   5.986
35297SOL    HW1 7788   0.942  10.989   5.936
35297SOL    HW2 7789   0.910  11.104   6.028
35298SOL     OW 7790   5.336  12.877   5.554
35298SOL    HW1 7791   5.283  12.817   5.606
35298SOL    HW2 7792   5.336  12.840   5.466
35299SOL     OW 7793   2.885  11.867   4.976
35299SOL    HW1 7794   2.796  11.842   4.951
35299SOL    HW2 7795   2.938  11.790   4.958
35300SOL     OW 7796   1.587   6.441  11.847
35300SOL    HW1 7797   1.543   6.412  11.926
35300SOL    HW2 7798   1.540   6.519  11.820
35301SOL     OW 7799  12.750  14.095  13.554
35301SOL    HW1 7800  12.821  14.046  13.596
35301SOL    HW2 7801  12.696  14.127  13.626
35302SOL     OW 7802   3.661  12.748   4.673
35302SOL    HW1 7803   3.595  12.681   4.693
35302SOL    HW2 7804   3.671  12.796   4.755
35303SOL     OW 7805  11.094   7.133   7.627
35303SOL    HW1 7806  11.042   7.201   7.670
35303SOL    HW2 7807  11.132   7.083   7.699
35304SOL     OW 7808   8.452  12.727   9.642
35304SOL    HW1 7809   8.384  12.659   9.644
35304SOL    HW2 7810   8.461  12.755   9.733
35305SOL     OW 7811   2.651   7.790  12.888
35305SOL    HW1 7812   2.717   7.842  12.842
35305SOL    HW2 7813   2.574   7.793  12.832
35306SOL     OW 7814  14.008   0.149  12.968
35306SOL    HW1 7815  14.084   0.120  13.019
35306SOL    HW2 7816  13.981   0.230  13.011
35307SOL     OW 7817   1.590   2.006  13.395
35307SOL    HW1 7818   1.522   1.948  13.360
35307SOL    HW2 7819   1.558   2.029  13.483
35308SOL     OW 7820   2.376   9.101   5.776
35308SOL    HW1 7821   2.458   9.053   5.789
35308SOL    HW2 7822   2.398   9.193   5.791
35309SOL     OW 7823   6.000   5.856  10.591
35309SOL    HW1 7824   5.913   5.883  10.561
35309SOL    HW2 7825   6.021   5.780  10.538
35310SOL     OW 7826  11.074  12.927  13.092
35310SOL    HW1 7827  11.031  12.856  13.140
35310SOL    HW2 7828  11.157  12.890  13.064
35311SOL     OW 7829   5.974   4.344   7.799
35311SOL    HW1 7830   5.957   4.257   7.837
35311SOL    HW2 7831   5.917   4.349   7.723
35312SOL     OW 7832  12.532   7.012   9.510
35312SOL    HW1 7833  12.485   7.046   9.587
35312SOL    HW2 7834  12.565   6.927   9.538
35313SOL     OW 7835   0.715   9.308   9.106
35313SOL    HW1 7836   0.747   9.240   9.047
35313SOL    HW2 7837   0.784   9.319   9.171
35314SOL     OW 7838  12.584   5.945   2.854
35314SOL    HW1 7839  12.601   5.994   2.773
35314SOL    HW2 7840  12.663   5.894   2.869
35315SOL     OW 7841  10.412   1.610   4.951
35315SOL    HW1 7842  10.350   1.639   4.884
35315SOL    HW2 7843  10.414   1.515   4.943
35316SOL     OW 7844   2.378   3.528   8.621
35316SOL    HW1 7845   2.437   3.601   8.601
35316SOL    HW2 7846   2.391   3.467   8.549
35317SOL     OW 7847   2.929   1.730   4.819
35317SOL    HW1 7848   2.946   1.654   4.875
35317SOL    HW2 7849   2.859   1.778   4.863
35318SOL     OW 7850  14.494  12.406  10.691
35318SOL    HW1 7851  14.489  12.410  10.595
35318SOL    HW2 7852  14.422  12.461  10.721
35319SOL     OW 7853   0.086   0.691   9.682
35319SOL    HW1 7854   0.175   0.655   9.678
35319SOL    HW2 7855   0.090   0.757   9.751
35320SOL     OW 7856  12.992  10.025   0.995
35320SOL    HW1 7857  12.960   9.948   0.947
35320SOL    HW2 7858  12.926  10.093   0.978
35321SOL     OW 7859   1.382  10.744   3.601
35321SOL    HW1 7860   1.351  10.804   3.669
35321SOL    HW2 7861   1.369  10.657   3.639
35322SOL     OW 7862   2.668  10.639   7.284
35322SOL    HW1 7863   2.605  10.623   7.354
35322SOL    HW2 7864   2.685  10.733   7.290
35323SOL     OW 7865   9.462   9.130   0.555
35323SOL    HW1 7866   9.378   9.170   0.529
35323SOL    HW2 7867   9.457   9.124   0.650
35324SOL     OW 7868   6.885   2.712   3.796
35324SOL    HW1 7869   6.810   2.762   3.829
35324SOL    HW2 7870   6.949   2.715   3.867
35325SOL     OW 7871   6.423   0.461   7.343
35325SOL    HW1 7872   6.407   0.423   7.256
35325SOL    HW2 7873   6.424   0.385   7.402
35326SOL     OW 7874   5.213   2.686   9.195
35326SOL    HW1 7875   5.220   2.649   9.107
35326SOL    HW2 7876   5.123   2.666   9.223
35327SOL     OW 7877   5.442  14.538  14.333
35327SOL    HW1 7878   5.400  14.453  14.332
35327SOL    HW2 7879   5.490  14.541  14.416
35328SOL     OW 7880   9.313   7.107   9.891
35328SOL    HW1 7881   9.316   7.159   9.811
35328SOL    HW2 7882   9.247   7.150   9.945
35329SOL     OW 7883  11.710   8.946   7.860
35329SOL    HW1 7884  11.717   8.947   7.955
35329SOL    HW2 7885  11.621   8.916   7.842
35330SOL     OW 7886   4.684  10.799  13.945
35330SOL    HW1 7887   4.716  10.790  14.034
35330SOL    HW2 7888   4.758  10.833  13.896
35331SOL     OW 7889   7.723   6.179   9.708
35331SOL    HW1 7890   7.681   6.097   9.680
35331SOL    HW2 7891   7.763   6.214   9.629
35332SOL     OW 7892   3.925  13.264  14.050
35332SOL    HW1 7893   3.970  13.281  13.968
35332SOL    HW2 7894   3.995  13.249  14.114
35333SOL     OW 7895   3.697  11.307  10.062
35333SOL    HW1 7896   3.625  11.336  10.118
35333SOL    HW2 7897   3.774  11.310  10.119
35334SOL     OW 7898   1.501  10.075  12.992
35334SOL    HW1 7899   1.525  10.167  13.005
35334SOL    HW2 7900   1.584  10.031  12.976
35335SOL     OW 7901  14.079   9.258   3.292
35335SOL    HW1 7902  13.986   9.273   3.307
35335SOL    HW2 7903  14.082   9.176   3.242
35336SOL     OW 7904   5.776  14.480   6.949
35336SOL    HW1 7905   5.766  14.574   6.958
35336SOL    HW2 7906   5.868  14.463   6.967
35337SOL     OW 7907  11.833   7.867   9.453
35337SOL    HW1 7908  11.742   7.895   9.441
35337SOL    HW2 7909  11.861   7.913   9.532
35338SOL     OW 7910   8.268   4.549   0.444
35338SOL    HW1 7911   8.181   4.511   0.453
35338SOL    HW2 7912   8.312   4.528   0.526
35339SOL     OW 7913   2.306   0.861   5.150
35339SOL    HW1 7914   2.375   0.863   5.084
35339SOL    HW2 7915   2.225   0.854   5.099
35340SOL     OW 7916   1.821   0.502  11.434
35340SOL    HW1 7917   1.827   0.431  11.498
35340SOL    HW2 7918   1.800   0.579  11.486
35341SOL     OW 7919  13.303   1.048  13.547
35341SOL    HW1 7920  13.391   1.018  13.570
35341SOL    HW2 7921  13.317   1.133  13.506
35342SOL     OW 7922   1.505   7.077   3.545
35342SOL    HW1 7923   1.507   7.118   3.632
35342SOL    HW2 7924   1.553   7.137   3.488
35343SOL     OW 7925   3.462   7.905   9.860
35343SOL    HW1 7926   3.502   7.919   9.945
35343SOL    HW2 7927   3.478   7.986   9.812
35344SOL     OW 7928   3.031  12.588  14.850
35344SOL    HW1 7929   2.981  12.659   0.023
35344SOL    HW2 7930   3.062  12.625  14.768
35345SOL     OW 7931  10.570  11.453  13.630
35345SOL    HW1 7932  10.531  11.367  13.617
35345SOL    HW2 7933  10.599  11.453  13.721
35346SOL     OW 7934  10.884   1.182  11.645
35346SOL    HW1 7935  10.850   1.162  11.732
35346SOL    HW2 7936  10.947   1.253  11.660
35347SOL     OW 7937   2.062   9.928   4.866
35347SOL    HW1 7938   1.987   9.885   4.825
35347SOL    HW2 7939   2.036  10.020   4.873
35348SOL     OW 7940   4.084   7.012  11.998
35348SOL    HW1 7941   3.992   6.988  11.998
35348SOL    HW2 7942   4.095   7.067  11.920
35349SOL     OW 7943  11.306   9.117   8.621
35349SOL    HW1 7944  11.215   9.129   8.597
35349SOL    HW2 7945  11.343   9.205   8.621
35350SOL     OW 7946   3.765   0.501   1.614
35350SOL    HW1 7947   3.726   0.552   1.543
35350SOL    HW2 7948   3.694   0.445   1.645
35351SOL     OW 7949   3.021   7.737   0.272
35351SOL    HW1 7950   3.008   7.652   0.229
35351SOL    HW2 7951   3.047   7.714   0.362
35352SOL     OW 7952   9.923  14.160  10.102
35352SOL    HW1 7953   9.844  14.190  10.056
35352SOL    HW2 7954   9.988  14.228  10.085
35353SOL     OW 7955   7.502  12.795   0.673
35353SOL    HW1 7956   7.521  12.748   0.591
35353SOL    HW2 7957   7.409  12.815   0.668
35354SOL     OW 7958   4.847  12.517   2.998
35354SOL    HW1 7959   4.777  12.452   3.000
35354SOL    HW2 7960   4.901  12.497   3.075
35355SOL     OW 7961   6.160  13.656   4.218
35355SOL    HW1 7962   6.184  13.741   4.181
35355SOL    HW2 7963   6.188  13.659   4.309
35356SOL     OW 7964  12.955  12.372   1.613
35356SOL    HW1 7965  12.944  12.454   1.564
35356SOL    HW2 7966  12.867  12.350   1.644
35357SOL     OW 7967   7.592   2.080  13.550
35357SOL    HW1 7968   7.597   2.156  13.491
35357SOL    HW2 7969   7.546   2.013  13.498
35358SOL     OW 7970   7.889  14.024   4.067
35358SOL    HW1 7971   7.914  14.103   4.019
35358SOL    HW2 7972   7.807  14.048   4.111
35359SOL     OW 7973   2.968  12.930   3.270
35359SOL    HW1 7974   3.037  12.871   3.298
35359SOL    HW2 7975   2.996  12.963   3.185
35360SOL     OW 7976   2.391   7.797   9.500
35360SOL    HW1 7977   2.445   7.859   9.550
35360SOL    HW2 7978   2.323   7.769   9.561
35361SOL     OW 7979   9.189   7.458   6.046
35361SOL    HW1 7980   9.187   7.384   6.106
35361SOL    HW2 7981   9.242   7.524   6.090
35362SOL     OW 7982   4.898   3.373  13.549
35362SOL    HW1 7983   4.937   3.381  13.462
35362SOL    HW2 7984   4.932   3.448  13.598
35363SOL     OW 7985   1.868  13.087   0.014
35363SOL    HW1 7986   1.854  13.022   0.083
35363SOL    HW2 7987   1.945  13.136   0.043
35364SOL     OW 7988   3.215   1.001   5.079
35364SOL    HW1 7989   3.218   0.919   5.129
35364SOL    HW2 7990   3.244   1.068   5.140
35365SOL     OW 7991   2.059   3.230   5.414
35365SOL    HW1 7992   2.003   3.271   5.479
35365SOL    HW2 7993   2.015   3.148   5.392
35366SOL     OW 7994   1.886   0.516   2.345
35366SOL    HW1 7995   1.791   0.528   2.349
35366SOL    HW2 7996   1.908   0.473   2.427
35367SOL     OW 7997   8.483  11.404   1.861
35367SOL    HW1 7998   8.505  11.326   1.811
35367SOL    HW2 7999   8.461  11.371   1.948
35368SOL     OW 8000   4.774   7.903   2.091
35368SOL    HW1 8001   4.824   7.975   2.051
35368SOL    HW2 8002   4.749   7.937   2.177
35369SOL     OW 8003  11.518   2.471   4.038
35369SOL    HW1 8004  11.609   2.499   4.032
35369SOL    HW2 8005  11.522   2.376   4.045
35370SOL     OW 8006   1.440  14.283   9.504
35370SOL    HW1 8007   1.510  14.233   9.460
35370SOL    HW2 8008   1.484  14.325   9.578
35371SOL     OW 8009  13.536   8.629   4.342
35371SOL    HW1 8010  13.562   8.538   4.330
35371SOL    HW2 8011  13.508   8.658   4.255
35372SOL     OW 8012   6.737   1.045  14.354
35372SOL    HW1 8013   6.774   1.078  14.436
35372SOL    HW2 8014   6.806   1.060  14.289
35373SOL     OW 8015   7.019   2.495   1.689
35373SOL    HW1 8016   7.019   2.587   1.715
35373SOL    HW2 8017   6.931   2.465   1.709
35374SOL     OW 8018   1.517   2.998   0.965
35374SOL    HW1 8019   1.491   3.016   0.875
35374SOL    HW2 8020   1.436   2.998   1.014
35375SOL     OW 8021   2.047  10.859   2.082
35375SOL    HW1 8022   2.021  10.942   2.041
35375SOL    HW2 8023   2.013  10.792   2.023
35376SOL     OW 8024   1.474  11.894  13.312
35376SOL    HW1 8025   1.543  11.957  13.292
35376SOL    HW2 8026   1.439  11.923  13.396
35377SOL     OW 8027  11.751   7.389   7.211
35377SOL    HW1 8028  11.676   7.404   7.154
35377SOL    HW2 8029  11.753   7.466   7.269
35378SOL     OW 8030  10.034  13.952   5.401
35378SOL    HW1 8031   9.988  13.998   5.470
35378SOL    HW2 8032  10.122  13.938   5.436
35379SOL     OW 8033   1.205   5.908   8.479
35379SOL    HW1 8034   1.288   5.944   8.448
35379SOL    HW2 8035   1.152   5.899   8.400
35380SOL     OW 8036  13.977   8.816   9.020
35380SOL    HW1 8037  13.993   8.893   8.966
35380SOL    HW2 8038  13.916   8.763   8.970
35381SOL     OW 8039   7.081   0.448  14.315
35381SOL    HW1 8040   7.112   0.431  14.404
35381SOL    HW2 8041   7.159   0.440  14.260
35382SOL     OW 8042   5.563   0.536  13.842
35382SOL    HW1 8043   5.481   0.551  13.795
35382SOL    HW2 8044   5.580   0.619  13.886
35383SOL     OW 8045   5.284  12.894  11.869
35383SOL    HW1 8046   5.349  12.881  11.938
35383SOL    HW2 8047   5.336  12.912  11.791
35384SOL     OW 8048   0.186   8.867   2.753
35384SOL    HW1 8049   0.091   8.867   2.745
35384SOL    HW2 8050   0.206   8.785   2.799
35385SOL     OW 8051   4.605   7.301   5.391
35385SOL    HW1 8052   4.660   7.302   5.470
35385SOL    HW2 8053   4.667   7.296   5.319
35386SOL     OW 8054   3.966   6.786   0.571
35386SOL    HW1 8055   4.007   6.751   0.492
35386SOL    HW2 8056   3.940   6.709   0.621
35387SOL     OW 8057  12.944  11.610  11.370
35387SOL    HW1 8058  12.866  11.559  11.349
35387SOL    HW2 8059  12.910  11.694  11.402
35388SOL     OW 8060   3.233   3.699   9.100
35388SOL    HW1 8061   3.295   3.770   9.119
35388SOL    HW2 8062   3.148   3.734   9.127
35389SOL     OW 8063  13.410   6.988   2.344
35389SOL    HW1 8064  13.500   6.962   2.359
35389SOL    HW2 8065  13.391   6.960   2.254
35390SOL     OW 8066   9.629   8.325  13.725
35390SOL    HW1 8067   9.694   8.261  13.696
35390SOL    HW2 8068   9.574   8.278  13.787
35391SOL     OW 8069   1.176   5.299   8.017
35391SOL    HW1 8070   1.143   5.349   7.942
35391SOL    HW2 8071   1.098   5.255   8.052
35392SOL     OW 8072   8.124   8.632   1.643
35392SOL    HW1 8073   8.103   8.657   1.553
35392SOL    HW2 8074   8.210   8.589   1.637
35393SOL     OW 8075   3.374  12.904   6.842
35393SOL    HW1 8076   3.350  12.958   6.917
35393SOL    HW2 8077   3.469  12.913   6.834
35394SOL     OW 8078  14.167   2.282   9.272
35394SOL    HW1 8079  14.116   2.285   9.353
35394SOL    HW2 8080  14.255   2.258   9.300
35395SOL     OW 8081   6.943   8.182   3.728
35395SOL    HW1 8082   6.912   8.096   3.701
35395SOL    HW2 8083   6.981   8.220   3.649
35396SOL     OW 8084   8.680  13.241   1.381
35396SOL    HW1 8085   8.769  13.220   1.354
35396SOL    HW2 8086   8.680  13.335   1.396
35397SOL     OW 8087   6.130  13.061   4.052
35397SOL    HW1 8088   6.175  13.136   4.013
35397SOL    HW2 8089   6.140  13.074   4.147
35398SOL     OW 8090  12.492  12.772   9.681
35398SOL    HW1 8091  12.586  12.755   9.676
35398SOL    HW2 8092  12.473  12.777   9.775
35399SOL     OW 8093  12.708  12.544  13.380
35399SOL    HW1 8094  12.655  12.585  13.448
35399SOL    HW2 8095  12.794  12.534  13.419
35400SOL     OW 8096  14.648   8.619  13.703
35400SOL    HW1 8097  14.626   8.536  13.661
35400SOL    HW2 8098  14.654   8.681  13.630
35401SOL     OW 8099   7.140   4.886   9.881
35401SOL    HW1 8100   7.191   4.805   9.890
35401SOL    HW2 8101   7.169   4.923   9.797
35402SOL     OW 8102   0.071   8.332   1.853
35402SOL    HW1 8103   0.160   8.298   1.864
35402SOL    HW2 8104   0.068   8.364   1.763
35403SOL     OW 8105  11.839  12.083  10.663
35403SOL    HW1 8106  11.839  12.087  10.567
35403SOL    HW2 8107  11.930  12.066  10.686
35404SOL     OW 8108   5.703  13.645   6.821
35404SOL    HW1 8109   5.697  13.557   6.858
35404SOL    HW2 8110   5.633  13.694   6.864
35405SOL     OW 8111  12.374   5.883   9.507
35405SOL    HW1 8112  12.290   5.928   9.518
35405SOL    HW2 8113  12.396   5.896   9.415
35406SOL     OW 8114   0.372   2.077  10.826
35406SOL    HW1 8115   0.456   2.108  10.792
35406SOL    HW2 8116   0.382   2.078  10.921
35407SOL     OW 8117   2.926   7.908   7.032
35407SOL    HW1 8118   2.989   7.929   7.101
35407SOL    HW2 8119   2.933   7.981   6.970
35408SOL     OW 8120  11.172  10.278   7.452
35408SOL    HW1 8121  11.225  10.324   7.387
35408SOL    HW2 8122  11.207  10.308   7.536
35409SOL     OW 8123   3.684   6.496  11.877
35409SOL    HW1 8124   3.753   6.481  11.941
35409SOL    HW2 8125   3.678   6.414  11.827
35410SOL     OW 8126   8.363   8.696   8.834
35410SOL    HW1 8127   8.443   8.737   8.867
35410SOL    HW2 8128   8.360   8.722   8.742
35411SOL     OW 8129   8.968   6.877  14.126
35411SOL    HW1 8130   8.932   6.958  14.089
35411SOL    HW2 8131   9.063   6.889  14.122
35412SOL     OW 8132   4.924   1.153  12.362
35412SOL    HW1 8133   4.896   1.142  12.271
35412SOL    HW2 8134   4.920   1.247  12.377
35413SOL     OW 8135   1.291   0.175  10.105
35413SOL    HW1 8136   1.276   0.188  10.011
35413SOL    HW2 8137   1.239   0.243  10.148
35414SOL     OW 8138  10.977  12.024   5.905
35414SOL    HW1 8139  10.932  12.035   5.821
35414SOL    HW2 8140  11.068  12.007   5.882
35415SOL     OW 8141   6.788   2.384   2.388
35415SOL    HW1 8142   6.832   2.416   2.466
35415SOL    HW2 8143   6.837   2.305   2.363
35416SOL     OW 8144   1.210  10.699  10.647
35416SOL    HW1 8145   1.299  10.731  10.663
35416SOL    HW2 8146   1.153  10.761  10.692
35417SOL     OW 8147   3.879  11.509   1.254
35417SOL    HW1 8148   3.807  11.447   1.244
35417SOL    HW2 8149   3.928  11.502   1.173
35418SOL     OW 8150  11.364   8.298   3.071
35418SOL    HW1 8151  11.436   8.356   3.045
35418SOL    HW2 8152  11.334   8.259   2.989
35419SOL     OW 8153   2.667   2.985   7.775
35419SOL    HW1 8154   2.618   3.019   7.701
35419SOL    HW2 8155   2.758   2.983   7.744
35420SOL     OW 8156   7.039  13.508  11.636
35420SOL    HW1 8157   7.068  13.585  11.586
35420SOL    HW2 8158   7.112  13.446  11.629
35421SOL     OW 8159   4.493   3.465   2.403
35421SOL    HW1 8160   4.580   3.430   2.422
35421SOL    HW2 8161   4.504   3.511   2.319
35422SOL     OW 8162  12.761   6.044  13.050
35422SOL    HW1 8163  12.788   6.050  13.142
35422SOL    HW2 8164  12.719   5.958  13.043
35423SOL     OW 8165  11.871  13.432  10.762
35423SOL    HW1 8166  11.884  13.378  10.840
35423SOL    HW2 8167  11.803  13.494  10.786
35424SOL     OW 8168   1.215  13.782  12.775
35424SOL    HW1 8169   1.162  13.841  12.721
35424SOL    HW2 8170   1.296  13.830  12.791
35425SOL     OW 8171   6.366   2.968   2.057
35425SOL    HW1 8172   6.352   2.880   2.092
35425SOL    HW2 8173   6.365   3.025   2.133
35426SOL     OW 8174  14.423  10.077  10.737
35426SOL    HW1 8175  14.435  10.172  10.740
35426SOL    HW2 8176  14.348  10.060  10.794
35427SOL     OW 8177  13.257   0.032  10.909
35427SOL    HW1 8178  13.244  14.848  10.829
35427SOL    HW2 8179  13.348   0.015  10.933
35428SOL     OW 8180   1.678   1.286   0.607
35428SOL    HW1 8181   1.635   1.225   0.547
35428SOL    HW2 8182   1.673   1.243   0.692
35429SOL     OW 8183   9.483  14.116  11.984
35429SOL    HW1 8184   9.501  14.038  11.931
35429SOL    HW2 8185   9.431  14.083  12.058
35430SOL     OW 8186   4.264   1.147  10.315
35430SOL    HW1 8187   4.195   1.181  10.260
35430SOL    HW2 8188   4.293   1.067  10.271
35431SOL     OW 8189   1.978  11.839  10.167
35431SOL    HW1 8190   1.910  11.805  10.224
35431SOL    HW2 8191   1.944  11.922  10.135
35432SOL     OW 8192   5.118   7.538   9.491
35432SOL    HW1 8193   5.070   7.530   9.409
35432SOL    HW2 8194   5.096   7.458   9.539
35433SOL     OW 8195  14.795   9.040   6.227
35433SOL    HW1 8196  14.837   9.076   6.305
35433SOL    HW2 8197  14.847   8.963   6.204
35434SOL     OW 8198   9.345  12.140  13.481
35434SOL    HW1 8199   9.342  12.101  13.568
35434SOL    HW2 8200   9.295  12.221  13.489
35435SOL     OW 8201  10.106   7.193   3.334
35435SOL    HW1 8202  10.122   7.130   3.404
35435SOL    HW2 8203  10.160   7.161   3.261
35436SOL     OW 8204   5.502  11.379   9.359
35436SOL    HW1 8205   5.453  11.445   9.409
35436SOL    HW2 8206   5.594  11.406   9.366
35437SOL     OW 8207  10.999  12.816   0.402
35437SOL    HW1 8208  11.002  12.899   0.451
35437SOL    HW2 8209  10.923  12.825   0.345
35438SOL     OW 8210   3.143   7.775   7.642
35438SOL    HW1 8211   3.195   7.822   7.707
35438SOL    HW2 8212   3.207   7.745   7.578
35439SOL     OW 8213  12.942   0.292   6.984
35439SOL    HW1 8214  13.005   0.262   7.049
35439SOL    HW2 8215  12.863   0.239   7.000
35440SOL     OW 8216   8.700  10.179   3.125
35440SOL    HW1 8217   8.763  10.140   3.186
35440SOL    HW2 8218   8.669  10.258   3.168
35441SOL     OW 8219   0.935   2.942  10.962
35441SOL    HW1 8220   1.020   2.984  10.972
35441SOL    HW2 8221   0.872   3.009  10.987
35442SOL     OW 8222   7.012  13.086  12.271
35442SOL    HW1 8223   6.924  13.052  12.257
35442SOL    HW2 8224   7.045  13.104  12.183
35443SOL     OW 8225  13.237  10.208  11.802
35443SOL    HW1 8226  13.248  10.285  11.857
35443SOL    HW2 8227  13.146  10.211  11.774
35444SOL     OW 8228   0.484   6.090  10.047
35444SOL    HW1 8229   0.427   6.022  10.083
35444SOL    HW2 8230   0.425   6.162  10.026
35445SOL     OW 8231  13.126  12.612   0.316
35445SOL    HW1 8232  13.172  12.664   0.382
35445SOL    HW2 8233  13.180  12.620   0.237
35446SOL     OW 8234   3.431   5.042  11.055
35446SOL    HW1 8235   3.476   5.016  10.975
35446SOL    HW2 8236   3.464   4.982  11.122
35447SOL     OW 8237  13.451   3.404   8.402
35447SOL    HW1 8238  13.491   3.461   8.337
35447SOL    HW2 8239  13.372   3.370   8.360
35448SOL     OW 8240  13.053  14.316   4.709
35448SOL    HW1 8241  13.079  14.239   4.759
35448SOL    HW2 8242  12.996  14.365   4.768
35449SOL     OW 8243   5.638   0.259   1.070
35449SOL    HW1 8244   5.653   0.198   0.998
35449SOL    HW2 8245   5.545   0.249   1.091
35450SOL     OW 8246   1.856  12.066   6.678
35450SOL    HW1 8247   1.774  12.103   6.644
35450SOL    HW2 8248   1.924  12.104   6.623
35451SOL     OW 8249   8.049   2.442   1.251
35451SOL    HW1 8250   7.976   2.417   1.194
35451SOL    HW2 8251   8.093   2.360   1.272
35452SOL     OW 8252  10.130   9.842   7.502
35452SOL    HW1 8253  10.085   9.925   7.484
35452SOL    HW2 8254  10.123   9.831   7.597
35453SOL     OW 8255  13.975   3.565   6.442
35453SOL    HW1 8256  14.047   3.629   6.447
35453SOL    HW2 8257  13.926   3.578   6.523
35454SOL     OW 8258   6.928   1.218  13.781
35454SOL    HW1 8259   6.860   1.224  13.848
35454SOL    HW2 8260   6.993   1.159  13.818
35455SOL     OW 8261  14.458   9.167   1.358
35455SOL    HW1 8262  14.425   9.257   1.362
35455SOL    HW2 8263  14.443   9.132   1.446
35456SOL     OW 8264  10.963  14.780  11.692
35456SOL    HW1 8265  10.960   0.007  11.681
35456SOL    HW2 8266  11.006  14.748  11.613
35457SOL     OW 8267  14.560  13.494  13.279
35457SOL    HW1 8268  14.575  13.437  13.203
35457SOL    HW2 8269  14.631  13.558  13.276
35458SOL     OW 8270  10.482  13.545   7.674
35458SOL    HW1 8271  10.398  13.501   7.687
35458SOL    HW2 8272  10.505  13.525   7.583
35459SOL     OW 8273   6.808  11.919   2.868
35459SOL    HW1 8274   6.776  12.009   2.857
35459SOL    HW2 8275   6.742  11.865   2.825
35460SOL     OW 8276   6.736  10.521  14.166
35460SOL    HW1 8277   6.813  10.573  14.144
35460SOL    HW2 8278   6.765  10.461  14.235
35461SOL     OW 8279   6.085  11.854  10.202
35461SOL    HW1 8280   6.012  11.885  10.148
35461SOL    HW2 8281   6.081  11.759  10.194
35462SOL     OW 8282   7.453  13.376   3.363
35462SOL    HW1 8283   7.417  13.446   3.416
35462SOL    HW2 8284   7.548  13.392   3.362
35463SOL     OW 8285   3.655  11.168   3.840
35463SOL    HW1 8286   3.565  11.179   3.811
35463SOL    HW2 8287   3.676  11.077   3.819
35464SOL     OW 8288   3.682  12.865   7.739
35464SOL    HW1 8289   3.662  12.839   7.649
35464SOL    HW2 8290   3.651  12.791   7.792
35465SOL     OW 8291   6.649   0.817  12.409
35465SOL    HW1 8292   6.628   0.883  12.474
35465SOL    HW2 8293   6.670   0.866  12.330
35466SOL     OW 8294  10.973   9.203   6.973
35466SOL    HW1 8295  10.887   9.241   6.990
35466SOL    HW2 8296  10.963   9.159   6.889
35467SOL     OW 8297   4.847   4.041  13.219
35467SOL    HW1 8298   4.786   3.998  13.278
35467SOL    HW2 8299   4.892   3.970  13.174
35468SOL     OW 8300   3.500  14.784   3.613
35468SOL    HW1 8301   3.542  14.798   3.528
35468SOL    HW2 8302   3.556  14.829   3.676
35469SOL     OW 8303   4.325   7.494   2.548
35469SOL    HW1 8304   4.285   7.576   2.518
35469SOL    HW2 8305   4.251   7.444   2.583
35470SOL     OW 8306  12.369   4.698   3.308
35470SOL    HW1 8307  12.364   4.777   3.254
35470SOL    HW2 8308  12.452   4.658   3.284
35471SOL     OW 8309  12.898   3.426   6.536
35471SOL    HW1 8310  12.942   3.504   6.502
35471SOL    HW2 8311  12.970   3.366   6.556
35472SOL     OW 8312   9.198   1.221   0.483
35472SOL    HW1 8313   9.236   1.144   0.525
35472SOL    HW2 8314   9.152   1.267   0.553
35473SOL     OW 8315  10.732   2.489  11.084
35473SOL    HW1 8316  10.645   2.518  11.111
35473SOL    HW2 8317  10.740   2.402  11.123
35474SOL     OW 8318   2.006  13.953   3.421
35474SOL    HW1 8319   2.099  13.973   3.425
35474SOL    HW2 8320   1.994  13.880   3.482
35475SOL     OW 8321   5.528   6.693   5.545
35475SOL    HW1 8322   5.604   6.703   5.604
35475SOL    HW2 8323   5.454   6.681   5.604
35476SOL     OW 8324   0.090   8.238   6.263
35476SOL    HW1 8325   0.037   8.179   6.209
35476SOL    HW2 8326   0.177   8.199   6.263
35477SOL     OW 8327  10.283   9.021   8.038
35477SOL    HW1 8328  10.346   9.060   7.978
35477SOL    HW2 8329  10.316   8.933   8.054
35478SOL     OW 8330   6.718  13.990  11.912
35478SOL    HW1 8331   6.742  14.028  11.827
35478SOL    HW2 8332   6.679  14.062  11.960
35479SOL     OW 8333   0.011  12.281   8.116
35479SOL    HW1 8334   0.098  12.243   8.128
35479SOL    HW2 8335   0.027  12.368   8.078
35480SOL     OW 8336   6.409  11.244   7.504
35480SOL    HW1 8337   6.440  11.251   7.414
35480SOL    HW2 8338   6.426  11.153   7.528
35481SOL     OW 8339  13.547   6.901   0.796
35481SOL    HW1 8340  13.616   6.880   0.858
35481SOL    HW2 8341  13.489   6.961   0.843
35482SOL     OW 8342   4.705   6.678   3.552
35482SOL    HW1 8343   4.618   6.650   3.579
35482SOL    HW2 8344   4.765   6.631   3.609
35483SOL     OW 8345   2.696   1.331  10.625
35483SOL    HW1 8346   2.738   1.257  10.582
35483SOL    HW2 8347   2.611   1.297  10.653
35484SOL     OW 8348   4.341   8.208   2.713
35484SOL    HW1 8349   4.402   8.214   2.639
35484SOL    HW2 8350   4.370   8.276   2.774
35485SOL     OW 8351  14.301  12.436  14.842
35485SOL    HW1 8352  14.361  12.423   0.047
35485SOL    HW2 8353  14.347  12.399  14.766
35486SOL     OW 8354  12.674   2.621   5.901
35486SOL    HW1 8355  12.737   2.650   5.835
35486SOL    HW2 8356  12.725   2.565   5.960
35487SOL     OW 8357   0.459  14.070  14.016
35487SOL    HW1 8358   0.547  14.057  14.053
35487SOL    HW2 8359   0.420  13.983  14.018
35488SOL     OW 8360   9.090   9.621   5.967
35488SOL    HW1 8361   9.128   9.692   5.916
35488SOL    HW2 8362   9.092   9.652   6.057
35489SOL     OW 8363  14.369  13.283   8.194
35489SOL    HW1 8364  14.338  13.350   8.254
35489SOL    HW2 8365  14.309  13.288   8.119
35490SOL     OW 8366   5.020  12.002   0.559
35490SOL    HW1 8367   5.036  12.093   0.585
35490SOL    HW2 8368   5.067  11.950   0.624
35491SOL     OW 8369   8.527  12.703   0.659
35491SOL    HW1 8370   8.543  12.784   0.610
35491SOL    HW2 8371   8.467  12.653   0.605
35492SOL     OW 8372  12.486  13.548  13.995
35492SOL    HW1 8373  12.405  13.539  13.944
35492SOL    HW2 8374  12.552  13.573  13.931
35493SOL     OW 8375   1.363  14.682  11.014
35493SOL    HW1 8376   1.269  14.668  11.002
35493SOL    HW2 8377   1.369  14.761  11.068
35494SOL     OW 8378   8.292   8.717   1.289
35494SOL    HW1 8379   8.299   8.649   1.222
35494SOL    HW2 8380   8.349   8.787   1.258
35495SOL     OW 8381   4.820   8.630   0.286
35495SOL    HW1 8382   4.813   8.701   0.222
35495SOL    HW2 8383   4.771   8.558   0.248
35496SOL     OW 8384   7.216   2.697   6.107
35496SOL    HW1 8385   7.247   2.615   6.069
35496SOL    HW2 8386   7.183   2.672   6.194
35497SOL     OW 8387   3.808   1.814   1.247
35497SOL    HW1 8388   3.816   1.782   1.157
35497SOL    HW2 8389   3.734   1.765   1.283
35498SOL     OW 8390   4.799   1.622   5.554
35498SOL    HW1 8391   4.872   1.561   5.561
35498SOL    HW2 8392   4.741   1.583   5.490
35499SOL     OW 8393   2.520   4.782   3.174
35499SOL    HW1 8394   2.472   4.720   3.229
35499SOL    HW2 8395   2.467   4.787   3.094
35500SOL     OW 8396   9.704   6.556   2.001
35500SOL    HW1 8397   9.672   6.631   2.051
35500SOL    HW2 8398   9.731   6.593   1.917
35501SOL     OW 8399   4.957  13.050   0.015
35501SOL    HW1 8400   4.969  13.139  14.850
35501SOL    HW2 8401   5.035  13.002  14.852
35502SOL     OW 8402  11.586  12.110   6.241
35502SOL    HW1 8403  11.610  12.171   6.311
35502SOL    HW2 8404  11.493  12.093   6.256
35503SOL     OW 8405  13.524   5.088   5.315
35503SOL    HW1 8406  13.594   5.023   5.319
35503SOL    HW2 8407  13.447   5.042   5.349
35504SOL     OW 8408   6.870   1.044   2.820
35504SOL    HW1 8409   6.875   1.135   2.793
35504SOL    HW2 8410   6.850   0.995   2.740
35505SOL     OW 8411  11.052  14.297  10.623
35505SOL    HW1 8412  11.005  14.247  10.557
35505SOL    HW2 8413  11.061  14.237  10.697
35506SOL     OW 8414   4.191   5.968   9.864
35506SOL    HW1 8415   4.164   5.974   9.773
35506SOL    HW2 8416   4.152   5.887   9.896
35507SOL     OW 8417   0.938   0.465  13.842
35507SOL    HW1 8418   0.942   0.424  13.755
35507SOL    HW2 8419   0.931   0.392  13.903
35508SOL     OW 8420  13.352   1.628   3.149
35508SOL    HW1 8421  13.259   1.622   3.174
35508SOL    HW2 8422  13.398   1.638   3.232
35509SOL     OW 8423   0.692   3.037   5.564
35509SOL    HW1 8424   0.658   3.124   5.584
35509SOL    HW2 8425   0.689   3.032   5.469
35510SOL     OW 8426  11.568   4.391   1.427
35510SOL    HW1 8427  11.591   4.353   1.512
35510SOL    HW2 8428  11.498   4.453   1.447
35511SOL     OW 8429  11.325   6.596  11.601
35511SOL    HW1 8430  11.233   6.605  11.624
35511SOL    HW2 8431  11.350   6.683  11.569
35512SOL     OW 8432  13.018  13.712   9.470
35512SOL    HW1 8433  13.047  13.680   9.555
35512SOL    HW2 8434  13.064  13.796   9.460
35513SOL     OW 8435   8.629   3.285  12.076
35513SOL    HW1 8436   8.569   3.225  12.032
35513SOL    HW2 8437   8.614   3.370  12.033
35514SOL     OW 8438   7.694   5.675   0.615
35514SOL    HW1 8439   7.724   5.683   0.525
35514SOL    HW2 8440   7.599   5.688   0.611
35515SOL     OW 8441  10.242  11.338  14.273
35515SOL    HW1 8442  10.319  11.386  14.242
35515SOL    HW2 8443  10.230  11.367  14.364
35516SOL     OW 8444   0.550  12.844   7.996
35516SOL    HW1 8445   0.633  12.870   7.956
35516SOL    HW2 8446   0.573  12.812   8.083
35517SOL     OW 8447  13.198  14.046   4.283
35517SOL    HW1 8448  13.278  14.091   4.259
35517SOL    HW2 8449  13.129  14.110   4.269
35518SOL     OW 8450   2.731  13.939  14.209
35518SOL    HW1 8451   2.750  13.858  14.256
35518SOL    HW2 8452   2.639  13.930  14.182
35519SOL     OW 8453  14.087   8.135  11.865
35519SOL    HW1 8454  14.122   8.047  11.876
35519SOL    HW2 8455  14.160   8.193  11.886
35520SOL     OW 8456   9.169   4.291   1.777
35520SOL    HW1 8457   9.252   4.328   1.747
35520SOL    HW2 8458   9.145   4.344   1.853
35521SOL     OW 8459   8.586  11.062  14.590
35521SOL    HW1 8460   8.533  11.142  14.588
35521SOL    HW2 8461   8.647  11.075  14.663
35522SOL     OW 8462   5.473   9.994   2.567
35522SOL    HW1 8463   5.549   9.952   2.607
35522SOL    HW2 8464   5.491  10.088   2.576
35523SOL     OW 8465  11.257  12.129   8.794
35523SOL    HW1 8466  11.306  12.193   8.744
35523SOL    HW2 8467  11.174  12.119   8.747
35524SOL     OW 8468   5.484  10.890  12.359
35524SOL    HW1 8469   5.529  10.929  12.284
35524SOL    HW2 8470   5.523  10.802  12.366
35525SOL     OW 8471  14.547   6.885   0.753
35525SOL    HW1 8472  14.517   6.927   0.833
35525SOL    HW2 8473  14.507   6.798   0.755
35526SOL     OW 8474  14.555   0.504   7.486
35526SOL    HW1 8475  14.507   0.421   7.484
35526SOL    HW2 8476  14.487   0.570   7.500
35527SOL     OW 8477   3.633   2.663   8.615
35527SOL    HW1 8478   3.695   2.616   8.671
35527SOL    HW2 8479   3.675   2.665   8.529
35528SOL     OW 8480  11.908   4.948  13.253
35528SOL    HW1 8481  11.894   4.906  13.168
35528SOL    HW2 8482  11.900   5.042  13.235
35529SOL     OW 8483   2.973   5.136  12.461
35529SOL    HW1 8484   2.989   5.097  12.375
35529SOL    HW2 8485   3.047   5.108  12.515
35530SOL     OW 8486   2.593  12.592   6.064
35530SOL    HW1 8487   2.678  12.626   6.092
35530SOL    HW2 8488   2.595  12.599   5.969
35531SOL     OW 8489   6.437   4.703   7.326
35531SOL    HW1 8490   6.520   4.735   7.362
35531SOL    HW2 8491   6.463   4.632   7.267
35532SOL     OW 8492   0.371   8.246  12.944
35532SOL    HW1 8493   0.436   8.179  12.966
35532SOL    HW2 8494   0.422   8.319  12.909
35533SOL     OW 8495  11.543   3.841  12.796
35533SOL    HW1 8496  11.576   3.754  12.815
35533SOL    HW2 8497  11.492   3.866  12.873
35534SOL     OW 8498   3.773  10.747  10.189
35534SOL    HW1 8499   3.678  10.740  10.181
35534SOL    HW2 8500   3.797  10.820  10.132
35535SOL     OW 8501  14.638   7.195  12.232
35535SOL    HW1 8502  14.715   7.198  12.288
35535SOL    HW2 8503  14.673   7.176  12.145
35536SOL     OW 8504  12.412   0.170   7.432
35536SOL    HW1 8505  12.499   0.149   7.399
35536SOL    HW2 8506  12.379   0.237   7.372
35537SOL     OW 8507   2.894   3.127   0.116
35537SOL    HW1 8508   2.932   3.126   0.204
35537SOL    HW2 8509   2.959   3.084   0.061
35538SOL     OW 8510   6.167  10.582   5.900
35538SOL    HW1 8511   6.182  10.642   5.973
35538SOL    HW2 8512   6.072  10.577   5.893
35539SOL     OW 8513  11.226   2.348   0.886
35539SOL    HW1 8514  11.246   2.386   0.801
35539SOL    HW2 8515  11.278   2.400   0.948
35540SOL     OW 8516   2.397   2.839   0.353
35540SOL    HW1 8517   2.420   2.748   0.334
35540SOL    HW2 8518   2.360   2.872   0.271
35541SOL     OW 8519  11.779  12.419  13.843
35541SOL    HW1 8520  11.744  12.490  13.790
35541SOL    HW2 8521  11.873  12.437  13.848
35542SOL     OW 8522  12.620   6.907   6.890
35542SOL    HW1 8523  12.608   6.990   6.844
35542SOL    HW2 8524  12.546   6.853   6.863
35543SOL     OW 8525  12.326   2.566  13.512
35543SOL    HW1 8526  12.264   2.635  13.489
35543SOL    HW2 8527  12.412   2.601  13.488
35544SOL     OW 8528   0.406   4.842  10.689
35544SOL    HW1 8529   0.473   4.854  10.623
35544SOL    HW2 8530   0.414   4.919  10.746
35545SOL     OW 8531   8.852  11.423   0.406
35545SOL    HW1 8532   8.885  11.416   0.496
35545SOL    HW2 8533   8.853  11.333   0.373
35546SOL     OW 8534   6.075  14.133   0.593
35546SOL    HW1 8535   6.143  14.128   0.661
35546SOL    HW2 8536   6.022  14.055   0.607
35547SOL     OW 8537   5.685  13.121   2.977
35547SOL    HW1 8538   5.766  13.078   2.947
35547SOL    HW2 8539   5.712  13.172   3.053
35548SOL     OW 8540  10.899   0.701   2.579
35548SOL    HW1 8541  10.952   0.624   2.602
35548SOL    HW2 8542  10.887   0.747   2.662
35549SOL     OW 8543   3.001   7.133   6.920
35549SOL    HW1 8544   2.919   7.095   6.889
35549SOL    HW2 8545   3.062   7.059   6.924
35550SOL     OW 8546   3.084   1.243   2.636
35550SOL    HW1 8547   3.172   1.207   2.643
35550SOL    HW2 8548   3.074   1.299   2.713
35551SOL     OW 8549   3.830  11.345   9.670
35551SOL    HW1 8550   3.883  11.424   9.683
35551SOL    HW2 8551   3.891  11.280   9.637
35552SOL     OW 8552   6.539   4.324   6.551
35552SOL    HW1 8553   6.592   4.373   6.489
35552SOL    HW2 8554   6.554   4.232   6.528
35553SOL     OW 8555   2.667  11.182   9.050
35553SOL    HW1 8556   2.627  11.250   9.105
35553SOL    HW2 8557   2.722  11.230   8.989
35554SOL     OW 8558   4.740  11.000  11.253
35554SOL    HW1 8559   4.661  10.945  11.257
35554SOL    HW2 8560   4.769  10.993  11.162
35555SOL     OW 8561   8.725  11.235  11.882
35555SOL    HW1 8562   8.688  11.151  11.854
35555SOL    HW2 8563   8.700  11.296  11.814
35556SOL     OW 8564   3.317  12.342   1.557
35556SOL    HW1 8565   3.257  12.336   1.632
35556SOL    HW2 8566   3.313  12.433   1.530
35557SOL     OW 8567   1.190  10.913   1.417
35557SOL    HW1 8568   1.195  10.979   1.348
35557SOL    HW2 8569   1.269  10.861   1.405
35558SOL     OW 8570   6.676   8.701  11.420
35558SOL    HW1 8571   6.738   8.751  11.474
35558SOL    HW2 8572   6.693   8.610  11.441
35559SOL     OW 8573  11.192  11.040   5.900
35559SOL    HW1 8574  11.102  11.013   5.881
35559SOL    HW2 8575  11.238  10.958   5.920
35560SOL     OW 8576   7.073   3.207  12.782
35560SOL    HW1 8577   7.026   3.231  12.702
35560SOL    HW2 8578   7.105   3.119  12.766
35561SOL     OW 8579   5.869   2.448   3.495
35561SOL    HW1 8580   5.859   2.542   3.478
35561SOL    HW2 8581   5.784   2.420   3.529
35562SOL     OW 8582  12.171   4.561  11.320
35562SOL    HW1 8583  12.106   4.618  11.280
35562SOL    HW2 8584  12.128   4.475  11.323
35563SOL     OW 8585   1.262  13.918  12.003
35563SOL    HW1 8586   1.299  14.001  11.972
35563SOL    HW2 8587   1.335  13.873  12.045
35564SOL     OW 8588   0.059  14.750  11.024
35564SOL    HW1 8589   0.135  14.696  11.001
35564SOL    HW2 8590   0.079  14.836  10.986
35565SOL     OW 8591  12.890   0.985   8.595
35565SOL    HW1 8592  12.937   0.960   8.516
35565SOL    HW2 8593  12.804   0.944   8.586
35566SOL     OW 8594   9.241  10.188  14.004
35566SOL    HW1 8595   9.208  10.172  13.915
35566SOL    HW2 8596   9.334  10.207  13.992
35567SOL     OW 8597   2.030  13.688   8.858
35567SOL    HW1 8598   1.955  13.653   8.905
35567SOL    HW2 8599   2.045  13.774   8.897
35568SOL     OW 8600  14.714   3.507  11.136
35568SOL    HW1 8601  14.633   3.487  11.089
35568SOL    HW2 8602  14.719   3.603  11.137
35569SOL     OW 8603  11.223   5.868   4.763
35569SOL    HW1 8604  11.258   5.782   4.785
35569SOL    HW2 8605  11.254   5.925   4.833
35570SOL     OW 8606   7.237   8.675   2.939
35570SOL    HW1 8607   7.182   8.691   2.862
35570SOL    HW2 8608   7.222   8.582   2.960
35571SOL     OW 8609  11.415   8.978  11.774
35571SOL    HW1 8610  11.371   8.964  11.690
35571SOL    HW2 8611  11.491   8.920  11.772
35572SOL     OW 8612  13.644   4.405   1.537
35572SOL    HW1 8613  13.589   4.483   1.546
35572SOL    HW2 8614  13.587   4.333   1.562
35573SOL     OW 8615   3.019  11.148  13.583
35573SOL    HW1 8616   3.011  11.103  13.499
35573SOL    HW2 8617   3.078  11.221  13.567
35574SOL     OW 8618   7.111   9.510   6.816
35574SOL    HW1 8619   7.120   9.573   6.744
35574SOL    HW2 8620   7.046   9.550   6.875
35575SOL     OW 8621   9.407  12.942   2.046
35575SOL    HW1 8622   9.418  13.001   2.121
35575SOL    HW2 8623   9.496  12.926   2.015
35576SOL     OW 8624  10.118   9.702  11.519
35576SOL    HW1 8625  10.099   9.685  11.427
35576SOL    HW2 8626  10.039   9.743  11.553
35577SOL     OW 8627   0.506  11.003   9.923
35577SOL    HW1 8628   0.463  11.086   9.945
35577SOL    HW2 8629   0.466  10.939   9.982
35578SOL     OW 8630   4.931  12.727  10.841
35578SOL    HW1 8631   4.885  12.773  10.911
35578SOL    HW2 8632   4.901  12.637  10.847
35579SOL     OW 8633  11.679   7.644   2.213
35579SOL    HW1 8634  11.618   7.669   2.283
35579SOL    HW2 8635  11.689   7.724   2.161
35580SOL     OW 8636   7.422   9.019  10.021
35580SOL    HW1 8637   7.418   8.997   9.928
35580SOL    HW2 8638   7.340   9.065  10.039
35581SOL     OW 8639   3.961   4.302   0.979
35581SOL    HW1 8640   3.901   4.374   0.997
35581SOL    HW2 8641   3.913   4.245   0.919
35582SOL     OW 8642   7.326  14.093   6.338
35582SOL    HW1 8643   7.421  14.098   6.347
35582SOL    HW2 8644   7.301  14.014   6.386
35583SOL     OW 8645   9.271   1.213  11.621
35583SOL    HW1 8646   9.207   1.280  11.644
35583SOL    HW2 8647   9.250   1.188  11.531
35584SOL     OW 8648  13.990   7.861   1.790
35584SOL    HW1 8649  14.010   7.875   1.697
35584SOL    HW2 8650  14.050   7.791   1.817
35585SOL     OW 8651   9.450  11.992   6.704
35585SOL    HW1 8652   9.510  12.018   6.633
35585SOL    HW2 8653   9.456  12.064   6.767
35586SOL     OW 8654   2.471  12.471  12.684
35586SOL    HW1 8655   2.529  12.420  12.627
35586SOL    HW2 8656   2.522  12.486  12.764
35587SOL     OW 8657   5.474   5.325  12.906
35587SOL    HW1 8658   5.539   5.393  12.890
35587SOL    HW2 8659   5.422   5.322  12.825
35588SOL     OW 8660   6.512   0.893   0.295
35588SOL    HW1 8661   6.432   0.921   0.251
35588SOL    HW2 8662   6.510   0.939   0.379
35589SOL     OW 8663  10.114  12.105   4.658
35589SOL    HW1 8664  10.054  12.079   4.728
35589SOL    HW2 8665  10.165  12.176   4.696
35590SOL     OW 8666   2.643  11.078   6.703
35590SOL    HW1 8667   2.637  10.988   6.734
35590SOL    HW2 8668   2.728  11.109   6.736
35591SOL     OW 8669   8.865   7.045   3.190
35591SOL    HW1 8670   8.843   6.960   3.228
35591SOL    HW2 8671   8.960   7.041   3.174
35592SOL     OW 8672   1.307  12.901   5.567
35592SOL    HW1 8673   1.369  12.895   5.640
35592SOL    HW2 8674   1.295  12.996   5.554
35593SOL     OW 8675  11.188  10.488   0.592
35593SOL    HW1 8676  11.231  10.465   0.509
35593SOL    HW2 8677  11.142  10.570   0.574
35594SOL     OW 8678   7.756   9.770  12.372
35594SOL    HW1 8679   7.788   9.845  12.422
35594SOL    HW2 8680   7.783   9.693  12.423
35595SOL     OW 8681   5.499  13.054  12.510
35595SOL    HW1 8682   5.405  13.060  12.528
35595SOL    HW2 8683   5.508  12.972  12.461
35596SOL     OW 8684   8.093   5.020   3.246
35596SOL    HW1 8685   8.044   5.057   3.320
35596SOL    HW2 8686   8.111   4.930   3.272
35597SOL     OW 8687   5.423   2.672   9.941
35597SOL    HW1 8688   5.444   2.605  10.006
35597SOL    HW2 8689   5.349   2.720   9.979
35598SOL     OW 8690   9.765   5.284  14.646
35598SOL    HW1 8691   9.807   5.307  14.729
35598SOL    HW2 8692   9.722   5.200  14.663
35599SOL     OW 8693   5.258   5.820   5.294
35599SOL    HW1 8694   5.303   5.778   5.220
35599SOL    HW2 8695   5.264   5.755   5.365
35600SOL     OW 8696   8.562   9.055   4.710
35600SOL    HW1 8697   8.502   9.001   4.658
35600SOL    HW2 8698   8.645   9.008   4.707
35601SOL     OW 8699  13.293   6.923   2.582
35601SOL    HW1 8700  13.345   6.967   2.650
35601SOL    HW2 8701  13.343   6.936   2.502
35602SOL     OW 8702   6.115   4.191   6.424
35602SOL    HW1 8703   6.096   4.207   6.516
35602SOL    HW2 8704   6.088   4.271   6.379
35603SOL     OW 8705   4.451   4.848  12.789
35603SOL    HW1 8706   4.421   4.938  12.800
35603SOL    HW2 8707   4.472   4.841  12.695
35604SOL     OW 8708   3.989  14.866  13.547
35604SOL    HW1 8709   3.948   0.082  13.568
35604SOL    HW2 8710   3.963  14.808  13.618
35605SOL     OW 8711   1.538  12.018  11.328
35605SOL    HW1 8712   1.484  12.002  11.251
35605SOL    HW2 8713   1.476  12.010  11.402
35606SOL     OW 8714   1.332   9.928  11.479
35606SOL    HW1 8715   1.410   9.926  11.422
35606SOL    HW2 8716   1.334  10.015  11.518
35607SOL     OW 8717  10.542   6.437   0.804
35607SOL    HW1 8718  10.601   6.361   0.801
35607SOL    HW2 8719  10.596   6.510   0.775
35608SOL     OW 8720   2.164   1.228   0.487
35608SOL    HW1 8721   2.078   1.207   0.525
35608SOL    HW2 8722   2.197   1.299   0.542
35609SOL     OW 8723  12.534   4.740   8.385
35609SOL    HW1 8724  12.560   4.664   8.334
35609SOL    HW2 8725  12.551   4.716   8.476
35610SOL     OW 8726   6.072   1.230   6.915
35610SOL    HW1 8727   5.998   1.179   6.948
35610SOL    HW2 8728   6.147   1.196   6.964
35611SOL     OW 8729   8.318  14.814  12.612
35611SOL    HW1 8730   8.289  14.850  12.696
35611SOL    HW2 8731   8.412  14.801  12.623
35612SOL     OW 8732   8.523  11.582  10.329
35612SOL    HW1 8733   8.575  11.650  10.373
35612SOL    HW2 8734   8.433  11.598  10.357
35613SOL     OW 8735  11.193   8.923  11.557
35613SOL    HW1 8736  11.125   8.932  11.491
35613SOL    HW2 8737  11.147   8.892  11.635
35614SOL     OW 8738  11.277   8.291  11.323
35614SOL    HW1 8739  11.343   8.272  11.390
35614SOL    HW2 8740  11.224   8.211  11.318
35615SOL     OW 8741  12.495   5.656  11.925
35615SOL    HW1 8742  12.554   5.712  11.875
35615SOL    HW2 8743  12.414   5.705  11.933
35616SOL     OW 8744   6.357   9.675   2.795
35616SOL    HW1 8745   6.269   9.639   2.803
35616SOL    HW2 8746   6.346   9.769   2.803
35617SOL     OW 8747   8.998   5.763  13.272
35617SOL    HW1 8748   9.032   5.706  13.203
35617SOL    HW2 8749   8.945   5.706  13.327
35618SOL     OW 8750  12.961   6.629  14.730
35618SOL    HW1 8751  12.908   6.689  14.782
35618SOL    HW2 8752  12.978   6.676  14.648
35619SOL     OW 8753   6.922  12.161   0.889
35619SOL    HW1 8754   6.901  12.246   0.926
35619SOL    HW2 8755   7.000  12.132   0.936
35620SOL     OW 8756   9.274   2.413   4.504
35620SOL    HW1 8757   9.369   2.405   4.496
35620SOL    HW2 8758   9.248   2.334   4.552
35621SOL     OW 8759   2.887   0.022   0.043
35621SOL    HW1 8760   2.944  14.853   0.110
35621SOL    HW2 8761   2.920   0.111   0.030
35622SOL     OW 8762  12.074  12.309  10.599
35622SOL    HW1 8763  12.022  12.384  10.571
35622SOL    HW2 8764  12.163  12.329  10.571
35623SOL     OW 8765   1.704   0.735   6.767
35623SOL    HW1 8766   1.768   0.684   6.816
35623SOL    HW2 8767   1.665   0.794   6.832
35624SOL     OW 8768   2.212  12.606   2.491
35624SOL    HW1 8769   2.235  12.519   2.460
35624SOL    HW2 8770   2.159  12.590   2.569
35625SOL     OW 8771  14.630  12.598   3.979
35625SOL    HW1 8772  14.620  12.625   3.888
35625SOL    HW2 8773  14.659  12.507   3.974
35626SOL     OW 8774   7.403  11.305   2.473
35626SOL    HW1 8775   7.430  11.282   2.384
35626SOL    HW2 8776   7.433  11.231   2.526
35627SOL     OW 8777  13.886  10.431   6.263
35627SOL    HW1 8778  13.929  10.483   6.330
35627SOL    HW2 8779  13.949  10.363   6.240
35628SOL     OW 8780   3.108   8.078   7.209
35628SOL    HW1 8781   3.109   8.160   7.259
35628SOL    HW2 8782   3.062   8.017   7.266
35629SOL     OW 8783  14.342  12.197  12.636
35629SOL    HW1 8784  14.433  12.187  12.607
35629SOL    HW2 8785  14.292  12.198  12.555
35630SOL     OW 8786   2.361   6.628   7.755
35630SOL    HW1 8787   2.289   6.616   7.817
35630SOL    HW2 8788   2.415   6.550   7.765
35631SOL     OW 8789   2.845  11.465   3.817
35631SOL    HW1 8790   2.913  11.406   3.784
35631SOL    HW2 8791   2.764  11.431   3.780
35632SOL     OW 8792  10.774   4.448   1.076
35632SOL    HW1 8793  10.790   4.448   0.981
35632SOL    HW2 8794  10.743   4.359   1.094
35633SOL     OW 8795   6.635  12.410   7.952
35633SOL    HW1 8796   6.689  12.331   7.938
35633SOL    HW2 8797   6.688  12.465   8.009
35634SOL     OW 8798   3.456   3.315   3.617
35634SOL    HW1 8799   3.540   3.272   3.631
35634SOL    HW2 8800   3.469   3.404   3.647
35635SOL     OW 8801   4.254  10.773   3.514
35635SOL    HW1 8802   4.239  10.687   3.553
35635SOL    HW2 8803   4.321  10.758   3.448
35636SOL     OW 8804   4.080   9.104  11.771
35636SOL    HW1 8805   3.993   9.135  11.746
35636SOL    HW2 8806   4.122   9.081  11.688
35637SOL     OW 8807   7.178  11.811   2.640
35637SOL    HW1 8808   7.144  11.723   2.653
35637SOL    HW2 8809   7.109  11.857   2.591
35638SOL     OW 8810   0.868  11.829   4.084
35638SOL    HW1 8811   0.840  11.758   4.026
35638SOL    HW2 8812   0.803  11.830   4.154
35639SOL     OW 8813   0.660   3.172  12.529
35639SOL    HW1 8814   0.735   3.210  12.484
35639SOL    HW2 8815   0.676   3.190  12.622
35640SOL     OW 8816  13.784   9.589   3.476
35640SOL    HW1 8817  13.750   9.535   3.548
35640SOL    HW2 8818  13.875   9.562   3.467
35641SOL     OW 8819  12.693   6.057  13.433
35641SOL    HW1 8820  12.683   6.146  13.399
35641SOL    HW2 8821  12.778   6.028  13.399
35642SOL     OW 8822   8.371   6.367  12.255
35642SOL    HW1 8823   8.453   6.368  12.305
35642SOL    HW2 8824   8.397   6.340  12.167
35643SOL     OW 8825   9.180   3.322   3.858
35643SOL    HW1 8826   9.170   3.253   3.792
35643SOL    HW2 8827   9.126   3.293   3.931
35644SOL     OW 8828   4.175   1.098   6.832
35644SOL    HW1 8829   4.236   1.124   6.901
35644SOL    HW2 8830   4.221   1.029   6.784
35645SOL     OW 8831   0.942   5.046   7.740
35645SOL    HW1 8832   1.030   5.052   7.704
35645SOL    HW2 8833   0.909   4.962   7.709
35646SOL     OW 8834  12.941   0.845   6.138
35646SOL    HW1 8835  12.930   0.779   6.069
35646SOL    HW2 8836  12.853   0.876   6.157
35647SOL     OW 8837   8.636   9.344   1.865
35647SOL    HW1 8838   8.725   9.312   1.858
35647SOL    HW2 8839   8.626   9.371   1.956
35648SOL     OW 8840   6.992   3.532   5.901
35648SOL    HW1 8841   6.928   3.542   5.831
35648SOL    HW2 8842   6.968   3.451   5.945
35649SOL     OW 8843  11.196   2.366  13.101
35649SOL    HW1 8844  11.223   2.329  13.185
35649SOL    HW2 8845  11.105   2.338  13.090
35650SOL     OW 8846   2.564  13.122  11.167
35650SOL    HW1 8847   2.496  13.154  11.108
35650SOL    HW2 8848   2.541  13.161  11.252
35651SOL     OW 8849   8.396  14.412   9.620
35651SOL    HW1 8850   8.326  14.392   9.559
35651SOL    HW2 8851   8.362  14.386   9.706
35652SOL     OW 8852   3.711   6.825  13.429
35652SOL    HW1 8853   3.638   6.839  13.368
35652SOL    HW2 8854   3.751   6.743  13.400
35653SOL     OW 8855   4.148  10.226   1.384
35653SOL    HW1 8856   4.101  10.200   1.305
35653SOL    HW2 8857   4.192  10.308   1.361
35654SOL     OW 8858   7.226   4.007   5.264
35654SOL    HW1 8859   7.210   3.917   5.292
35654SOL    HW2 8860   7.156   4.026   5.202
35655SOL     OW 8861   4.451   0.101  11.881
35655SOL    HW1 8862   4.424   0.190  11.858
35655SOL    HW2 8863   4.516   0.113  11.951
35656SOL     OW 8864   1.616  12.771   4.853
35656SOL    HW1 8865   1.668  12.718   4.914
35656SOL    HW2 8866   1.554  12.709   4.815
35657SOL     OW 8867  13.485  11.229   7.264
35657SOL    HW1 8868  13.419  11.248   7.330
35657SOL    HW2 8869  13.473  11.296   7.197
35658SOL     OW 8870   4.914   7.743   7.918
35658SOL    HW1 8871   4.942   7.703   8.001
35658SOL    HW2 8872   4.976   7.710   7.853
35659SOL     OW 8873  12.658   9.393   8.585
35659SOL    HW1 8874  12.689   9.390   8.676
35659SOL    HW2 8875  12.723   9.446   8.540
35660SOL     OW 8876   4.779   8.968  10.211
35660SOL    HW1 8877   4.742   9.029  10.147
35660SOL    HW2 8878   4.706   8.950  10.271
35661SOL     OW 8879  11.417   7.729  10.880
35661SOL    HW1 8880  11.492   7.787  10.894
35661SOL    HW2 8881  11.439   7.680  10.801
35662SOL     OW 8882  14.306   9.238  13.591
35662SOL    HW1 8883  14.265   9.152  13.601
35662SOL    HW2 8884  14.279   9.266  13.504
35663SOL     OW 8885   2.161   0.327   6.567
35663SOL    HW1 8886   2.255   0.334   6.551
35663SOL    HW2 8887   2.128   0.275   6.493
35664SOL     OW 8888  11.612   6.143  14.252
35664SOL    HW1 8889  11.603   6.128  14.158
35664SOL    HW2 8890  11.679   6.080  14.279
35665SOL     OW 8891   3.470   9.694   8.386
35665SOL    HW1 8892   3.533   9.754   8.346
35665SOL    HW2 8893   3.385   9.735   8.373
35666SOL     OW 8894   7.028  13.307   4.499
35666SOL    HW1 8895   7.065  13.227   4.537
35666SOL    HW2 8896   6.988  13.352   4.573
35667SOL     OW 8897   1.791  12.538  10.158
35667SOL    HW1 8898   1.730  12.494  10.099
35667SOL    HW2 8899   1.810  12.473  10.225
35668SOL     OW 8900   0.776  11.102   1.897
35668SOL    HW1 8901   0.741  11.142   1.977
35668SOL    HW2 8902   0.700  11.095   1.839
35669SOL     OW 8903  11.486  11.875  14.323
35669SOL    HW1 8904  11.540  11.947  14.290
35669SOL    HW2 8905  11.423  11.917  14.381
35670SOL     OW 8906   0.564   5.059   8.707
35670SOL    HW1 8907   0.520   5.138   8.738
35670SOL    HW2 8908   0.657   5.081   8.709
35671SOL     OW 8909   0.859   8.421   2.828
35671SOL    HW1 8910   0.819   8.483   2.768
35671SOL    HW2 8911   0.793   8.407   2.896
35672SOL     OW 8912   7.332   2.774  13.220
35672SOL    HW1 8913   7.388   2.831  13.273
35672SOL    HW2 8914   7.249   2.772  13.267
35673SOL     OW 8915   4.464  10.913   1.348
35673SOL    HW1 8916   4.496  10.925   1.437
35673SOL    HW2 8917   4.477  10.821   1.329
35674SOL     OW 8918  13.787   3.400   0.901
35674SOL    HW1 8919  13.790   3.304   0.903
35674SOL    HW2 8920  13.755   3.424   0.988
35675SOL     OW 8921  11.801  13.412   7.768
35675SOL    HW1 8922  11.724  13.357   7.756
35675SOL    HW2 8923  11.857  13.390   7.693
35676SOL     OW 8924  12.441  14.233   9.751
35676SOL    HW1 8925  12.442  14.191   9.665
35676SOL    HW2 8926  12.349  14.249   9.769
35677SOL     OW 8927   0.101   6.340   4.224
35677SOL    HW1 8928   0.078   6.418   4.275
35677SOL    HW2 8929   0.112   6.271   4.289
35678SOL     OW 8930   6.721   2.968   6.052
35678SOL    HW1 8931   6.761   2.913   6.119
35678SOL    HW2 8932   6.794   3.003   6.002
35679SOL     OW 8933  12.239  14.416   6.917
35679SOL    HW1 8934  12.170  14.355   6.941
35679SOL    HW2 8935  12.246  14.476   6.991
35680SOL     OW 8936   8.275   6.724  11.899
35680SOL    HW1 8937   8.234   6.638  11.893
35680SOL    HW2 8938   8.322   6.735  11.816
35681SOL     OW 8939  11.835   8.672   4.467
35681SOL    HW1 8940  11.746   8.706   4.473
35681SOL    HW2 8941  11.833   8.615   4.390
35682SOL     OW 8942   3.360   2.636   9.175
35682SOL    HW1 8943   3.402   2.581   9.109
35682SOL    HW2 8944   3.431   2.664   9.232
35683SOL     OW 8945  13.054   8.130  10.201
35683SOL    HW1 8946  13.140   8.147  10.239
35683SOL    HW2 8947  13.068   8.057  10.141
35684SOL     OW 8948   1.747   3.374  12.503
35684SOL    HW1 8949   1.746   3.469  12.495
35684SOL    HW2 8950   1.839   3.352  12.516
35685SOL     OW 8951   2.638   2.972   5.918
35685SOL    HW1 8952   2.549   2.995   5.946
35685SOL    HW2 8953   2.630   2.958   5.824
35686SOL     OW 8954  13.280  10.212   5.714
35686SOL    HW1 8955  13.267  10.300   5.748
35686SOL    HW2 8956  13.351  10.176   5.767
35687SOL     OW 8957   3.064  11.438  10.153
35687SOL    HW1 8958   3.100  11.519  10.116
35687SOL    HW2 8959   3.138  11.396  10.196
35688SOL     OW 8960   3.859   4.801  12.193
35688SOL    HW1 8961   3.951   4.815  12.213
35688SOL    HW2 8962   3.817   4.885  12.208
35689SOL     OW 8963   9.592   5.734  11.012
35689SOL    HW1 8964   9.497   5.729  11.024
35689SOL    HW2 8965   9.605   5.816  10.964
35690SOL     OW 8966  13.121   6.756   2.445
35690SOL    HW1 8967  13.156   6.669   2.464
35690SOL    HW2 8968  13.158   6.812   2.514
35691SOL     OW 8969   8.139   1.092   2.448
35691SOL    HW1 8970   8.152   1.005   2.411
35691SOL    HW2 8971   8.106   1.145   2.375
35692SOL     OW 8972   8.462   7.757   2.768
35692SOL    HW1 8973   8.539   7.796   2.726
35692SOL    HW2 8974   8.438   7.818   2.837
35693SOL     OW 8975   9.561   9.756   9.622
35693SOL    HW1 8976   9.540   9.826   9.559
35693SOL    HW2 8977   9.603   9.688   9.569
35694SOL     OW 8978   0.081   0.424  11.598
35694SOL    HW1 8979   0.152   0.454  11.541
35694SOL    HW2 8980   0.005   0.476  11.571
35695SOL     OW 8981  11.737  12.306   6.346
35695SOL    HW1 8982  11.818  12.271   6.310
35695SOL    HW2 8983  11.723  12.389   6.300
35696SOL     OW 8984  10.781  13.072   2.262
35696SOL    HW1 8985  10.759  13.159   2.296
35696SOL    HW2 8986  10.698  13.036   2.233
35697SOL     OW 8987   6.083   7.880   1.214
35697SOL    HW1 8988   6.133   7.893   1.294
35697SOL    HW2 8989   6.095   7.962   1.165
35698SOL     OW 8990  10.750   9.316   5.699
35698SOL    HW1 8991  10.745   9.238   5.643
35698SOL    HW2 8992  10.680   9.304   5.763
35699SOL     OW 8993   9.533   2.328   4.564
35699SOL    HW1 8994   9.585   2.399   4.602
35699SOL    HW2 8995   9.579   2.248   4.591
35700SOL     OW 8996  12.611   2.553  11.787
35700SOL    HW1 8997  12.646   2.494  11.721
35700SOL    HW2 8998  12.594   2.635  11.741
35701SOL     OW 8999   1.725   6.156   4.313
35701SOL    HW1 9000   1.695   6.235   4.358
35701SOL    HW2 9001   1.677   6.157   4.230
35702SOL     OW 9002  10.092   7.664   5.015
35702SOL    HW1 9003  10.056   7.749   4.993
35702SOL    HW2 9004  10.172   7.683   5.063
35703SOL     OW 9005   9.132   0.908   2.833
35703SOL    HW1 9006   9.199   0.887   2.767
35703SOL    HW2 9007   9.050   0.910   2.784
35704SOL     OW 9008   6.600   2.063  12.944
35704SOL    HW1 9009   6.678   2.118  12.952
35704SOL    HW2 9010   6.527   2.122  12.962
35705SOL     OW 9011  12.929  14.400  11.054
35705SOL    HW1 9012  12.928  14.481  11.002
35705SOL    HW2 9013  12.844  14.360  11.037
35706SOL     OW 9014   3.445   4.408  14.351
35706SOL    HW1 9015   3.407   4.380  14.268
35706SOL    HW2 9016   3.415   4.499  14.361
35707SOL     OW 9017   9.840   7.794   9.491
35707SOL    HW1 9018   9.895   7.762   9.562
35707SOL    HW2 9019   9.782   7.858   9.531
35708SOL     OW 9020  12.210  11.348   5.090
35708SOL    HW1 9021  12.288  11.375   5.137
35708SOL    HW2 9022  12.186  11.425   5.037
35709SOL     OW 9023   2.317  14.134   6.456
35709SOL    HW1 9024   2.265  14.213   6.444
35709SOL    HW2 9025   2.314  14.090   6.371
35710SOL     OW 9026   8.078   7.997   4.078
35710SOL    HW1 9027   8.004   7.955   4.123
35710SOL    HW2 9028   8.071   7.965   3.988
35711SOL     OW 9029   1.783   1.488  14.840
35711SOL    HW1 9030   1.844   1.484   0.045
35711SOL    HW2 9031   1.817   1.557  14.783
35712SOL     OW 9032   2.186  14.436  10.990
35712SOL    HW1 9033   2.188  14.356  10.938
35712SOL    HW2 9034   2.239  14.416  11.067
35713SOL     OW 9035   2.590   4.441   2.146
35713SOL    HW1 9036   2.657   4.476   2.205
35713SOL    HW2 9037   2.508   4.454   2.193
35714SOL     OW 9038   8.346   2.218   1.531
35714SOL    HW1 9039   8.295   2.215   1.450
35714SOL    HW2 9040   8.435   2.196   1.503
35715SOL     OW 9041   6.852   3.068   2.108
35715SOL    HW1 9042   6.844   3.123   2.186
35715SOL    HW2 9043   6.775   3.088   2.056
35716SOL     OW 9044  12.690   0.710   0.746
35716SOL    HW1 9045  12.608   0.662   0.734
35716SOL    HW2 9046  12.669   0.777   0.812
35717SOL     OW 9047  13.638  10.061   9.552
35717SOL    HW1 9048  13.704  10.130   9.560
35717SOL    HW2 9049  13.649  10.028   9.463
35718SOL     OW 9050   5.066  10.032   5.393
35718SOL    HW1 9051   5.149   9.990   5.416
35718SOL    HW2 9052   5.004   9.960   5.385
35719SOL     OW 9053   6.380  12.605  14.123
35719SOL    HW1 9054   6.296  12.648  14.133
35719SOL    HW2 9055   6.373  12.526  14.178
35720SOL     OW 9056   2.997   3.159   0.373
35720SOL    HW1 9057   2.964   3.111   0.448
35720SOL    HW2 9058   3.028   3.242   0.409
35721SOL     OW 9059   6.785   2.278   4.967
35721SOL    HW1 9060   6.876   2.289   4.940
35721SOL    HW2 9061   6.754   2.368   4.984
35722SOL     OW 9062   7.510   4.198   0.427
35722SOL    HW1 9063   7.529   4.273   0.483
35722SOL    HW2 9064   7.446   4.231   0.364
35723SOL     OW 9065   4.327  12.308   8.051
35723SOL    HW1 9066   4.311  12.251   8.127
35723SOL    HW2 9067   4.369  12.250   7.987
35724SOL     OW 9068   2.611   0.714   3.498
35724SOL    HW1 9069   2.524   0.753   3.509
35724SOL    HW2 9070   2.619   0.653   3.571
35725SOL     OW 9071   1.732   8.360  10.967
35725SOL    HW1 9072   1.671   8.287  10.978
35725SOL    HW2 9073   1.685   8.422  10.910
35726SOL     OW 9074   4.504  13.567   1.973
35726SOL    HW1 9075   4.538  13.539   1.889
35726SOL    HW2 9076   4.426  13.619   1.952
35727SOL     OW 9077   2.212  10.311   7.188
35727SOL    HW1 9078   2.278  10.354   7.134
35727SOL    HW2 9079   2.156  10.264   7.126
35728SOL     OW 9080  11.019   6.809  11.406
35728SOL    HW1 9081  11.021   6.877  11.340
35728SOL    HW2 9082  11.055   6.732  11.363
35729SOL     OW 9083  11.685   6.288   9.539
35729SOL    HW1 9084  11.649   6.203   9.516
35729SOL    HW2 9085  11.726   6.273   9.625
35730SOL     OW 9086   6.402  14.696   2.152
35730SOL    HW1 9087   6.352  14.637   2.095
35730SOL    HW2 9088   6.361  14.686   2.238
35731SOL     OW 9089   5.906   7.924  11.766
35731SOL    HW1 9090   5.831   7.897  11.713
35731SOL    HW2 9091   5.957   7.981  11.709
35732SOL     OW 9092   1.827   7.933   8.042
35732SOL    HW1 9093   1.847   7.952   7.950
35732SOL    HW2 9094   1.814   7.838   8.044
35733SOL     OW 9095   7.688   1.640   3.408
35733SOL    HW1 9096   7.687   1.600   3.495
35733SOL    HW2 9097   7.687   1.566   3.347
35734SOL     OW 9098  10.713  14.683  12.691
35734SOL    HW1 9099  10.720  14.591  12.715
35734SOL    HW2 9100  10.661  14.722  12.761
35735SOL     OW 9101  10.520   3.565  10.458
35735SOL    HW1 9102  10.525   3.586  10.364
35735SOL    HW2 9103  10.515   3.470  10.461
35736SOL     OW 9104   6.349   9.317  10.870
35736SOL    HW1 9105   6.254   9.326  10.870
35736SOL    HW2 9106   6.365   9.231  10.910
35737SOL     OW 9107   8.819   2.556   0.364
35737SOL    HW1 9108   8.778   2.534   0.281
35737SOL    HW2 9109   8.747   2.588   0.419
35738SOL     OW 9110   2.533   7.624   1.443
35738SOL    HW1 9111   2.618   7.668   1.450
35738SOL    HW2 9112   2.510   7.600   1.533
35739SOL     OW 9113  13.961  13.826   8.025
35739SOL    HW1 9114  13.968  13.880   8.103
35739SOL    HW2 9115  13.885  13.771   8.040
35740SOL     OW 9116  10.859  10.379   4.088
35740SOL    HW1 9117  10.934  10.428   4.120
35740SOL    HW2 9118  10.865  10.294   4.131
35741SOL     OW 9119   2.366   8.864   5.047
35741SOL    HW1 9120   2.439   8.869   5.108
35741SOL    HW2 9121   2.357   8.954   5.014
35742SOL     OW 9122   2.640   1.394  12.508
35742SOL    HW1 9123   2.731   1.365  12.518
35742SOL    HW2 9124   2.638   1.437  12.423
35743SOL     OW 9125   4.975  10.023   6.141
35743SOL    HW1 9126   4.913   9.954   6.117
35743SOL    HW2 9127   5.061   9.981   6.135
35744SOL     OW 9128   5.623  14.206   5.172
35744SOL    HW1 9129   5.686  14.134   5.163
35744SOL    HW2 9130   5.542  14.164   5.201
35745SOL     OW 9131   0.371  10.302  13.103
35745SOL    HW1 9132   0.391  10.380  13.052
35745SOL    HW2 9133   0.447  10.244  13.089
35746SOL     OW 9134  13.755   9.730   1.600
35746SOL    HW1 9135  13.763   9.790   1.674
35746SOL    HW2 9136  13.845   9.712   1.573
35747SOL     OW 9137   2.411  13.136   7.893
35747SOL    HW1 9138   2.407  13.043   7.915
35747SOL    HW2 9139   2.494  13.166   7.931
35748SOL     OW 9140   9.603  10.487  10.626
35748SOL    HW1 9141   9.628  10.413  10.570
35748SOL    HW2 9142   9.602  10.562  10.567
35749SOL     OW 9143  13.319   5.451  13.821
35749SOL    HW1 9144  13.369   5.392  13.877
35749SOL    HW2 9145  13.328   5.414  13.733
35750SOL     OW 9146  11.664   2.367   0.456
35750SOL    HW1 9147  11.626   2.364   0.544
35750SOL    HW2 9148  11.610   2.430   0.409
35751SOL     OW 9149   5.201   2.646   2.625
35751SOL    HW1 9150   5.249   2.669   2.704
35751SOL    HW2 9151   5.240   2.563   2.597
35752SOL     OW 9152   0.033   8.781  14.261
35752SOL    HW1 9153   0.020   8.835  14.338
35752SOL    HW2 9154  14.813   8.754  14.235
35753SOL     OW 9155   4.945   5.479   1.032
35753SOL    HW1 9156   4.891   5.539   1.083
35753SOL    HW2 9157   4.909   5.483   0.944
35754SOL     OW 9158   2.085   0.101   4.397
35754SOL    HW1 9159   2.018   0.035   4.410
35754SOL    HW2 9160   2.123   0.116   4.483
35755SOL     OW 9161  14.695   2.768  13.459
35755SOL    HW1 9162  14.696   2.837  13.525
35755SOL    HW2 9163  14.647   2.696  13.501
35756SOL     OW 9164   0.509  11.139  13.529
35756SOL    HW1 9165   0.519  11.049  13.561
35756SOL    HW2 9166   0.581  11.150  13.468
35757SOL     OW 9167   3.055   8.707   0.631
35757SOL    HW1 9168   3.148   8.699   0.610
35757SOL    HW2 9169   3.013   8.635   0.584
35758SOL     OW 9170   0.324   5.598   0.103
35758SOL    HW1 9171   0.382   5.573   0.031
35758SOL    HW2 9172   0.245   5.546   0.089
35759SOL     OW 9173  11.244   3.705  14.755
35759SOL    HW1 9174  11.204   3.764  14.691
35759SOL    HW2 9175  11.334   3.695  14.724
35760SOL     OW 9176   5.957   9.070   5.376
35760SOL    HW1 9177   6.040   9.023   5.388
35760SOL    HW2 9178   5.984   9.156   5.343
35761SOL     OW 9179   2.402   1.537   2.677
35761SOL    HW1 9180   2.346   1.571   2.747
35761SOL    HW2 9181   2.397   1.442   2.686
35762SOL     OW 9182  11.219   8.533   7.995
35762SOL    HW1 9183  11.298   8.586   7.982
35762SOL    HW2 9184  11.248   8.443   7.978
35763SOL     OW 9185   1.094  14.714   2.372
35763SOL    HW1 9186   1.033  14.670   2.312
35763SOL    HW2 9187   1.152  14.764   2.315
35764SOL     OW 9188   4.579   3.119   6.978
35764SOL    HW1 9189   4.612   3.095   6.891
35764SOL    HW2 9190   4.515   3.189   6.961
35765SOL     OW 9191   5.020   6.160  11.997
35765SOL    HW1 9192   4.947   6.101  11.983
35765SOL    HW2 9193   5.079   6.145  11.923
35766SOL     OW 9194   5.348  14.122   5.625
35766SOL    HW1 9195   5.359  14.029   5.604
35766SOL    HW2 9196   5.428  14.163   5.593
35767SOL     OW 9197  12.416  14.735   4.173
35767SOL    HW1 9198  12.462  14.795   4.232
35767SOL    HW2 9199  12.352  14.790   4.128
35768SOL     OW 9200   2.502   3.858  13.427
35768SOL    HW1 9201   2.442   3.831  13.497
35768SOL    HW2 9202   2.515   3.952  13.441
35769SOL     OW 9203   7.052  10.445   4.344
35769SOL    HW1 9204   7.075  10.394   4.266
35769SOL    HW2 9205   7.006  10.384   4.400
35770SOL     OW 9206   5.053  14.501   4.762
35770SOL    HW1 9207   5.049  14.573   4.699
35770SOL    HW2 9208   5.112  14.532   4.830
35771SOL     OW 9209  14.131   0.090   6.260
35771SOL    HW1 9210  14.069   0.094   6.188
35771SOL    HW2 9211  14.217   0.105   6.220
35772SOL     OW 9212   2.161   2.229   9.730
35772SOL    HW1 9213   2.140   2.320   9.708
35772SOL    HW2 9214   2.239   2.209   9.679
35773SOL     OW 9215  12.458   5.205  11.289
35773SOL    HW1 9216  12.375   5.213  11.241
35773SOL    HW2 9217  12.432   5.212  11.381
35774SOL     OW 9218  14.143  14.125  12.492
35774SOL    HW1 9219  14.162  14.051  12.435
35774SOL    HW2 9220  14.080  14.090  12.556
35775SOL     OW 9221   3.405   0.328   9.119
35775SOL    HW1 9222   3.488   0.288   9.147
35775SOL    HW2 9223   3.409   0.417   9.154
35776SOL     OW 9224  11.581   5.780  12.797
35776SOL    HW1 9225  11.512   5.812  12.739
35776SOL    HW2 9226  11.652   5.844  12.788
35777SOL     OW 9227   3.320  11.857  14.544
35777SOL    HW1 9228   3.232  11.847  14.507
35777SOL    HW2 9229   3.327  11.950  14.564
35778SOL     OW 9230   6.841   7.105  11.585
35778SOL    HW1 9231   6.781   7.180  11.584
35778SOL    HW2 9232   6.810   7.048  11.515
35779SOL     OW 9233   9.791  14.469  12.787
35779SOL    HW1 9234   9.714  14.516  12.755
35779SOL    HW2 9235   9.832  14.434  12.708
35780SOL     OW 9236   1.144   1.110  11.566
35780SOL    HW1 9237   1.229   1.074  11.540
35780SOL    HW2 9238   1.140   1.096  11.660
35781SOL     OW 9239   2.117  13.128   9.389
35781SOL    HW1 9240   2.165  13.126   9.306
35781SOL    HW2 9241   2.161  13.063   9.444
35782SOL     OW 9242   8.079   4.728  11.692
35782SOL    HW1 9243   8.142   4.664  11.726
35782SOL    HW2 9244   8.104   4.738  11.600
35783SOL     OW 9245   6.867   1.311   0.150
35783SOL    HW1 9246   6.824   1.362   0.219
35783SOL    HW2 9247   6.798   1.295   0.086
35784SOL     OW 9248  13.957  12.243  10.432
35784SOL    HW1 9249  13.958  12.233  10.527
35784SOL    HW2 9250  13.872  12.209  10.405
35785SOL     OW 9251  11.868   8.873   8.409
35785SOL    HW1 9252  11.910   8.931   8.472
35785SOL    HW2 9253  11.808   8.820   8.461
35786SOL     OW 9254  13.982   0.313  13.368
35786SOL    HW1 9255  13.891   0.339  13.357
35786SOL    HW2 9256  14.001   0.330  13.460
35787SOL     OW 9257  11.581   1.282   7.461
35787SOL    HW1 9258  11.671   1.251   7.470
35787SOL    HW2 9259  11.536   1.251   7.539
35788SOL     OW 9260   7.177   2.120  14.601
35788SOL    HW1 9261   7.141   2.199  14.640
35788SOL    HW2 9262   7.129   2.048  14.641
35789SOL     OW 9263   8.884  11.472  11.066
35789SOL    HW1 9264   8.941  11.397  11.085
35789SOL    HW2 9265   8.848  11.496  11.151
35790SOL     OW 9266   2.826   5.124   7.465
35790SOL    HW1 9267   2.759   5.188   7.489
35790SOL    HW2 9268   2.909   5.168   7.486
35791SOL     OW 9269  12.393  13.905  12.642
35791SOL    HW1 9270  12.414  13.998  12.646
35791SOL    HW2 9271  12.351  13.885  12.725
35792SOL     OW 9272   7.896   7.529   2.000
35792SOL    HW1 9273   7.819   7.585   1.992
35792SOL    HW2 9274   7.893   7.472   1.923
35793SOL     OW 9275  11.261  11.301  10.298
35793SOL    HW1 9276  11.327  11.307  10.230
35793SOL    HW2 9277  11.215  11.219  10.280
35794SOL     OW 9278   8.387   5.223  13.206
35794SOL    HW1 9279   8.382   5.318  13.193
35794SOL    HW2 9280   8.418   5.213  13.296
35795SOL     OW 9281   0.298   5.882   1.868
35795SOL    HW1 9282   0.326   5.806   1.817
35795SOL    HW2 9283   0.355   5.953   1.838
35796SOL     OW 9284  12.130  14.745   8.612
35796SOL    HW1 9285  12.112  14.707   8.698
35796SOL    HW2 9286  12.209  14.798   8.624
35797SOL     OW 9287   4.232  12.577   3.257
35797SOL    HW1 9288   4.230  12.525   3.177
35797SOL    HW2 9289   4.322  12.569   3.288
35798SOL     OW 9290   8.988   1.155  13.374
35798SOL    HW1 9291   8.914   1.110  13.333
35798SOL    HW2 9292   8.958   1.173  13.463
35799SOL     OW 9293   8.501   7.748   7.512
35799SOL    HW1 9294   8.531   7.666   7.551
35799SOL    HW2 9295   8.580   7.801   7.502
35800SOL     OW 9296   0.012   0.773  12.045
35800SOL    HW1 9297  14.838   0.697  12.004
35800SOL    HW2 9298   0.044   0.740  12.129
35801SOL     OW 9299   1.721   9.349   2.068
35801SOL    HW1 9300   1.719   9.311   2.156
35801SOL    HW2 9301   1.812   9.344   2.041
35802SOL     OW 9302  13.506   0.716   5.722
35802SOL    HW1 9303  13.551   0.703   5.805
35802SOL    HW2 9304  13.454   0.796   5.735
35803SOL     OW 9305  11.799  11.315   0.268
35803SOL    HW1 9306  11.813  11.260   0.191
35803SOL    HW2 9307  11.876  11.302   0.322
35804SOL     OW 9308   3.577   4.846   7.394
35804SOL    HW1 9309   3.561   4.754   7.375
35804SOL    HW2 9310   3.523   4.865   7.471
35805SOL     OW 9311  11.942   9.087  12.544
35805SOL    HW1 9312  11.850   9.095  12.518
35805SOL    HW2 9313  11.990   9.082  12.461
35806SOL     OW 9314   3.147   1.007  11.368
35806SOL    HW1 9315   3.132   0.919  11.401
35806SOL    HW2 9316   3.231   1.001  11.322
35807SOL     OW 9317   0.036  12.281   2.666
35807SOL    HW1 9318  14.813  12.295   2.692
35807SOL    HW2 9319   0.088  12.315   2.739
35808SOL     OW 9320  11.226   6.702   9.229
35808SOL    HW1 9321  11.142   6.715   9.184
35808SOL    HW2 9322  11.210   6.629   9.288
35809SOL     OW 9323   2.307   7.496   0.415
35809SOL    HW1 9324   2.400   7.477   0.408
35809SOL    HW2 9325   2.273   7.483   0.326
35810SOL     OW 9326  11.577   6.774   1.015
35810SOL    HW1 9327  11.562   6.859   0.973
35810SOL    HW2 9328  11.619   6.721   0.947
35811SOL     OW 9329  10.972   4.660   9.855
35811SOL    HW1 9330  11.056   4.683   9.816
35811SOL    HW2 9331  10.987   4.664   9.949
35812SOL     OW 9332   7.951  13.098   7.731
35812SOL    HW1 9333   8.043  13.094   7.756
35812SOL    HW2 9334   7.929  13.008   7.706
35813SOL     OW 9335   3.334   8.361  10.434
35813SOL    HW1 9336   3.373   8.305  10.500
35813SOL    HW2 9337   3.361   8.450  10.459
35814SOL     OW 9338   7.807   8.184  12.762
35814SOL    HW1 9339   7.862   8.260  12.741
35814SOL    HW2 9340   7.825   8.166  12.854
35815SOL     OW 9341   1.705   9.762   2.441
35815SOL    HW1 9342   1.684   9.849   2.475
35815SOL    HW2 9343   1.726   9.777   2.348
35816SOL     OW 9344   0.031   4.582   8.415
35816SOL    HW1 9345  14.863   4.544   8.335
35816SOL    HW2 9346   0.079   4.659   8.386
35817SOL     OW 9347   6.204  12.924   6.963
35817SOL    HW1 9348   6.220  12.922   6.868
35817SOL    HW2 9349   6.291  12.936   7.001
35818SOL     OW 9350   4.264   7.703   7.309
35818SOL    HW1 9351   4.325   7.730   7.241
35818SOL    HW2 9352   4.281   7.610   7.322
35819SOL     OW 9353   1.974   3.198   7.084
35819SOL    HW1 9354   1.883   3.201   7.114
35819SOL    HW2 9355   1.991   3.104   7.071
35820SOL     OW 9356   3.691  12.147   8.803
35820SOL    HW1 9357   3.612  12.137   8.750
35820SOL    HW2 9358   3.742  12.067   8.785
35821SOL     OW 9359   7.974  13.864   2.829
35821SOL    HW1 9360   7.918  13.856   2.906
35821SOL    HW2 9361   8.058  13.894   2.863
35822SOL     OW 9362  12.045   6.941   7.778
35822SOL    HW1 9363  12.119   6.952   7.718
35822SOL    HW2 9364  11.975   6.904   7.724
35823SOL     OW 9365  12.002   5.861  12.519
35823SOL    HW1 9366  11.935   5.927  12.506
35823SOL    HW2 9367  12.085   5.907  12.507
35824SOL     OW 9368   3.361  14.299   5.776
35824SOL    HW1 9369   3.380  14.215   5.734
35824SOL    HW2 9370   3.300  14.342   5.717
35825SOL     OW 9371   2.724   6.194   8.190
35825SOL    HW1 9372   2.717   6.161   8.100
35825SOL    HW2 9373   2.818   6.200   8.206
35826SOL     OW 9374   0.664   0.191   5.919
35826SOL    HW1 9375   0.742   0.154   5.878
35826SOL    HW2 9376   0.687   0.283   5.935
35827SOL     OW 9377   2.313  14.244  11.751
35827SOL    HW1 9378   2.257  14.267  11.825
35827SOL    HW2 9379   2.253  14.204  11.688
35828SOL     OW 9380   9.999  12.776  10.865
35828SOL    HW1 9381  10.067  12.826  10.821
35828SOL    HW2 9382   9.983  12.701  10.807
35829SOL     OW 9383   2.579   7.967  12.234
35829SOL    HW1 9384   2.610   7.930  12.317
35829SOL    HW2 9385   2.633   7.925  12.168
35830SOL     OW 9386  10.028   9.220   0.784
35830SOL    HW1 9387   9.963   9.287   0.803
35830SOL    HW2 9388  10.111   9.268   0.778
35831SOL     OW 9389   9.101   8.638   9.374
35831SOL    HW1 9390   9.167   8.669   9.312
35831SOL    HW2 9391   9.018   8.645   9.327
35832SOL     OW 9392   7.775   2.059  13.814
35832SOL    HW1 9393   7.740   2.055  13.725
35832SOL    HW2 9394   7.759   2.149  13.842
35833SOL     OW 9395   1.854   2.187  10.516
35833SOL    HW1 9396   1.762   2.212  10.504
35833SOL    HW2 9397   1.903   2.267  10.494
35834SOL     OW 9398   9.225   6.546  10.148
35834SOL    HW1 9399   9.287   6.480  10.115
35834SOL    HW2 9400   9.227   6.615  10.082
35835SOL     OW 9401   4.420   5.078   0.954
35835SOL    HW1 9402   4.331   5.049   0.974
35835SOL    HW2 9403   4.469   5.062   1.034
35836SOL     OW 9404   7.625  11.150   8.038
35836SOL    HW1 9405   7.658  11.080   8.094
35836SOL    HW2 9406   7.698  11.169   7.978
35837SOL     OW 9407   2.399   3.015  12.586
35837SOL    HW1 9408   2.451   2.993  12.663
35837SOL    HW2 9409   2.444   3.089  12.546
35838SOL     OW 9410   7.334   7.762   6.672
35838SOL    HW1 9411   7.294   7.820   6.736
35838SOL    HW2 9412   7.380   7.821   6.612
35839SOL     OW 9413   7.364  11.906   0.593
35839SOL    HW1 9414   7.417  11.985   0.601
35839SOL    HW2 9415   7.378  11.860   0.676
35840SOL     OW 9416   2.568  10.404   1.271
35840SOL    HW1 9417   2.594  10.426   1.181
35840SOL    HW2 9418   2.650  10.410   1.321
35841SOL     OW 9419   6.092  13.646  10.503
35841SOL    HW1 9420   6.003  13.678  10.493
35841SOL    HW2 9421   6.146  13.709  10.455
35842SOL     OW 9422  11.794  10.207   8.114
35842SOL    HW1 9423  11.718  10.148   8.106
35842SOL    HW2 9424  11.862  10.153   8.154
35843SOL     OW 9425   3.839   8.270  13.041
35843SOL    HW1 9426   3.797   8.337  12.986
35843SOL    HW2 9427   3.898   8.319  13.097
35844SOL     OW 9428   8.653  10.209   9.644
35844SOL    HW1 9429   8.704  10.250   9.574
35844SOL    HW2 9430   8.583  10.272   9.663
35845SOL     OW 9431   0.031   3.038   5.035
35845SOL    HW1 9432  14.827   3.040   5.099
35845SOL    HW2 9433   0.090   2.971   5.068
35846SOL     OW 9434  13.220   4.857   4.759
35846SOL    HW1 9435  13.294   4.821   4.711
35846SOL    HW2 9436  13.203   4.941   4.717
35847SOL     OW 9437  11.455   9.021   8.836
35847SOL    HW1 9438  11.520   8.964   8.794
35847SOL    HW2 9439  11.391   9.040   8.768
35848SOL     OW 9440   6.740   9.560  10.004
35848SOL    HW1 9441   6.835   9.554  10.014
35848SOL    HW2 9442   6.725   9.648   9.969
35849SOL     OW 9443   4.937  12.565  11.185
35849SOL    HW1 9444   4.955  12.531  11.272
35849SOL    HW2 9445   4.964  12.656  11.188
35850SOL     OW 9446   3.605   7.344   4.867
35850SOL    HW1 9447   3.627   7.434   4.890
35850SOL    HW2 9448   3.601   7.345   4.771
35851SOL     OW 9449  12.783   1.642   8.792
35851SOL    HW1 9450  12.820   1.564   8.835
35851SOL    HW2 9451  12.771   1.615   8.701
35852SOL     OW 9452   3.489   5.464   1.334
35852SOL    HW1 9453   3.500   5.556   1.309
35852SOL    HW2 9454   3.543   5.415   1.272
35853SOL     OW 9455   5.997  14.157  12.997
35853SOL    HW1 9456   5.981  14.123  13.085
35853SOL    HW2 9457   5.983  14.082  12.939
35854SOL     OW 9458  14.576   3.684   8.687
35854SOL    HW1 9459  14.636   3.758   8.701
35854SOL    HW2 9460  14.489   3.723   8.695
35855SOL     OW 9461   4.959   3.294   7.843
35855SOL    HW1 9462   4.968   3.248   7.759
35855SOL    HW2 9463   4.987   3.384   7.823
35856SOL     OW 9464   2.602   3.025   0.436
35856SOL    HW1 9465   2.511   2.998   0.423
35856SOL    HW2 9466   2.612   3.103   0.381
35857SOL     OW 9467  10.001   1.588   5.760
35857SOL    HW1 9468  10.045   1.583   5.675
35857SOL    HW2 9469  10.072   1.587   5.824
35858SOL     OW 9470  11.549   4.809   3.195
35858SOL    HW1 9471  11.623   4.785   3.139
35858SOL    HW2 9472  11.491   4.859   3.139
35859SOL     OW 9473  14.126   3.535  13.267
35859SOL    HW1 9474  14.152   3.620  13.234
35859SOL    HW2 9475  14.093   3.553  13.355
35860SOL     OW 9476   8.701   7.125   3.578
35860SOL    HW1 9477   8.746   7.093   3.657
35860SOL    HW2 9478   8.712   7.220   3.582
35861SOL     OW 9479   5.961  13.834   5.025
35861SOL    HW1 9480   6.042  13.812   4.978
35861SOL    HW2 9481   5.954  13.767   5.092
35862SOL     OW 9482   2.600   3.998   3.217
35862SOL    HW1 9483   2.606   3.925   3.277
35862SOL    HW2 9484   2.691   4.026   3.204
35863SOL     OW 9485   1.212   4.942   6.974
35863SOL    HW1 9486   1.205   5.036   6.992
35863SOL    HW2 9487   1.122   4.911   6.974
35864SOL     OW 9488   0.710  13.833   6.189
35864SOL    HW1 9489   0.728  13.769   6.258
35864SOL    HW2 9490   0.652  13.897   6.230
35865SOL     OW 9491   0.543   1.716  11.807
35865SOL    HW1 9492   0.582   1.695  11.723
35865SOL    HW2 9493   0.455   1.678  11.803
35866SOL     OW 9494   8.307   6.128  12.864
35866SOL    HW1 9495   8.323   6.165  12.777
35866SOL    HW2 9496   8.304   6.034  12.850
35867SOL     OW 9497   3.135  12.420  12.328
35867SOL    HW1 9498   3.094  12.335  12.341
35867SOL    HW2 9499   3.073  12.468  12.272
35868SOL     OW 9500   2.647   8.543  10.301
35868SOL    HW1 9501   2.742   8.541  10.312
35868SOL    HW2 9502   2.614   8.485  10.369
35869SOL     OW 9503  13.460   7.478   0.385
35869SOL    HW1 9504  13.494   7.504   0.470
35869SOL    HW2 9505  13.480   7.553   0.328
35870SOL     OW 9506  14.835   4.658  14.735
35870SOL    HW1 9507  14.867   4.588  14.680
35870SOL    HW2 9508  14.813   4.729  14.673
35871SOL     OW 9509   8.098  12.749   4.475
35871SOL    HW1 9510   8.150  12.793   4.542
35871SOL    HW2 9511   8.076  12.817   4.412
35872SOL     OW 9512  12.377  12.536  10.930
35872SOL    HW1 9513  12.367  12.454  10.882
35872SOL    HW2 9514  12.428  12.592  10.872
35873SOL     OW 9515   6.765  12.476  13.078
35873SOL    HW1 9516   6.847  12.525  13.085
35873SOL    HW2 9517   6.699  12.542  13.059
35874SOL     OW 9518   6.115  10.760   0.576
35874SOL    HW1 9519   6.055  10.710   0.520
35874SOL    HW2 9520   6.200  10.719   0.564
35875SOL     OW 9521  10.917  13.267   4.149
35875SOL    HW1 9522  10.992  13.210   4.164
35875SOL    HW2 9523  10.844  13.222   4.191
35876SOL     OW 9524   6.096   5.351   3.345
35876SOL    HW1 9525   6.170   5.366   3.286
35876SOL    HW2 9526   6.135   5.311   3.423
35877SOL     OW 9527  10.697   7.793   7.237
35877SOL    HW1 9528  10.756   7.799   7.311
35877SOL    HW2 9529  10.736   7.849   7.170
35878SOL     OW 9530   5.665   4.765  13.217
35878SOL    HW1 9531   5.744   4.819  13.216
35878SOL    HW2 9532   5.628   4.779  13.304
35879SOL     OW 9533  10.962   6.558  13.937
35879SOL    HW1 9534  10.995   6.530  14.023
35879SOL    HW2 9535  10.889   6.499  13.920
35880SOL     OW 9536   2.185  10.719   5.962
35880SOL    HW1 9537   2.226  10.800   5.992
35880SOL    HW2 9538   2.155  10.738   5.873
35881SOL     OW 9539   1.262   8.249  12.629
35881SOL    HW1 9540   1.244   8.156  12.642
35881SOL    HW2 9541   1.320   8.252  12.553
35882SOL     OW 9542   3.897   8.075   4.702
35882SOL    HW1 9543   3.936   8.032   4.779
35882SOL    HW2 9544   3.840   8.008   4.663
35883SOL     OW 9545   1.847  10.482   6.452
35883SOL    HW1 9546   1.896  10.442   6.523
35883SOL    HW2 9547   1.883  10.570   6.444
35884SOL     OW 9548   8.447   9.584  11.401
35884SOL    HW1 9549   8.519   9.597  11.339
35884SOL    HW2 9550   8.490   9.566  11.485
35885SOL     OW 9551   2.811   1.677   4.294
35885SOL    HW1 9552   2.781   1.669   4.204
35885SOL    HW2 9553   2.877   1.608   4.304
35886SOL     OW 9554   6.198  10.946   1.478
35886SOL    HW1 9555   6.292  10.942   1.461
35886SOL    HW2 9556   6.187  10.902   1.562
35887SOL     OW 9557  11.838   7.562   1.903
35887SOL    HW1 9558  11.871   7.474   1.918
35887SOL    HW2 9559  11.748   7.550   1.874
35888SOL     OW 9560  13.556   1.776   6.640
35888SOL    HW1 9561  13.539   1.815   6.554
35888SOL    HW2 9562  13.543   1.682   6.626
35889SOL     OW 9563  14.495   3.422   4.242
35889SOL    HW1 9564  14.497   3.468   4.326
35889SOL    HW2 9565  14.493   3.492   4.177
35890SOL     OW 9566  11.116   1.105  10.416
35890SOL    HW1 9567  11.041   1.097  10.475
35890SOL    HW2 9568  11.083   1.074  10.332
35891SOL     OW 9569   3.373   5.233   0.346
35891SOL    HW1 9570   3.337   5.233   0.258
35891SOL    HW2 9571   3.431   5.157   0.349
35892SOL     OW 9572  10.405   8.829  12.608
35892SOL    HW1 9573  10.351   8.752  12.590
35892SOL    HW2 9574  10.354   8.903  12.576
35893SOL     OW 9575   9.883   6.797   6.415
35893SOL    HW1 9576   9.822   6.758   6.352
35893SOL    HW2 9577   9.858   6.889   6.418
35894SOL     OW 9578   2.488   1.408   9.119
35894SOL    HW1 9579   2.562   1.353   9.093
35894SOL    HW2 9580   2.528   1.491   9.145
35895SOL     OW 9581   8.278   0.751   0.846
35895SOL    HW1 9582   8.315   0.671   0.808
35895SOL    HW2 9583   8.298   0.744   0.940
35896SOL     OW 9584   2.408   9.874  11.817
35896SOL    HW1 9585   2.394   9.878  11.911
35896SOL    HW2 9586   2.456   9.792  11.803
35897SOL     OW 9587   1.069   5.959   1.509
35897SOL    HW1 9588   1.030   6.003   1.434
35897SOL    HW2 9589   1.056   5.866   1.493
35898SOL     OW 9590   4.584   7.010  13.519
35898SOL    HW1 9591   4.507   7.055  13.483
35898SOL    HW2 9592   4.566   7.006  13.613
35899SOL     OW 9593  11.002   1.250   3.536
35899SOL    HW1 9594  11.070   1.297   3.487
35899SOL    HW2 9595  10.920   1.289   3.506
35900SOL     OW 9596   2.338  14.422   6.956
35900SOL    HW1 9597   2.277  14.483   6.915
35900SOL    HW2 9598   2.404  14.478   6.998
35901SOL     OW 9599  12.359   3.007   6.490
35901SOL    HW1 9600  12.360   3.038   6.400
35901SOL    HW2 9601  12.350   3.087   6.543
35902SOL     OW 9602   5.212   7.591  14.845
35902SOL    HW1 9603   5.297   7.626  14.817
35902SOL    HW2 9604   5.149   7.655  14.811
35903SOL     OW 9605  13.792   5.851   6.917
35903SOL    HW1 9606  13.812   5.852   6.823
35903SOL    HW2 9607  13.843   5.923   6.953
35904SOL     OW 9608   2.015   6.619  10.091
35904SOL    HW1 9609   2.108   6.614  10.065
35904SOL    HW2 9610   1.994   6.531  10.122
35905SOL     OW 9611   6.217   9.741   4.110
35905SOL    HW1 9612   6.143   9.766   4.166
35905SOL    HW2 9613   6.288   9.722   4.171
35906SOL     OW 9614  12.227   2.699   7.471
35906SOL    HW1 9615  12.242   2.730   7.382
35906SOL    HW2 9616  12.260   2.609   7.471
35907SOL     OW 9617   6.485   9.321  11.441
35907SOL    HW1 9618   6.539   9.247  11.414
35907SOL    HW2 9619   6.397   9.298  11.413
35908SOL     OW 9620   5.777  11.119   5.717
35908SOL    HW1 9621   5.710  11.055   5.690
35908SOL    HW2 9622   5.843  11.114   5.648
35909SOL     OW 9623   2.212   9.638   0.295
35909SOL    HW1 9624   2.170   9.631   0.381
35909SOL    HW2 9625   2.306   9.641   0.315
35910SOL     OW 9626   0.981   7.979  11.766
35910SOL    HW1 9627   1.046   7.915  11.738
35910SOL    HW2 9628   1.015   8.063  11.735
35911SOL     OW 9629   3.686  11.195  12.774
35911SOL    HW1 9630   3.719  11.268  12.827
35911SOL    HW2 9631   3.744  11.122  12.794
35912SOL     OW 9632   8.023   8.502   6.380
35912SOL    HW1 9633   7.975   8.556   6.318
35912SOL    HW2 9634   7.956   8.449   6.424
35913SOL     OW 9635   4.002  11.235   5.949
35913SOL    HW1 9636   3.962  11.192   6.025
35913SOL    HW2 9637   4.014  11.326   5.976
35914SOL     OW 9638   2.800   2.066   2.592
35914SOL    HW1 9639   2.766   2.146   2.551
35914SOL    HW2 9640   2.891   2.086   2.613
35915SOL     OW 9641   6.275  12.426   9.066
35915SOL    HW1 9642   6.361  12.447   9.029
35915SOL    HW2 9643   6.281  12.455   9.157
35916SOL     OW 9644   1.493   3.879   2.875
35916SOL    HW1 9645   1.459   3.899   2.788
35916SOL    HW2 9646   1.579   3.842   2.859
35917SOL     OW 9647   9.137  14.859   8.401
35917SOL    HW1 9648   9.147  14.827   8.312
35917SOL    HW2 9649   9.179  14.792   8.455
35918SOL     OW 9650  12.080   8.678   0.642
35918SOL    HW1 9651  12.110   8.697   0.554
35918SOL    HW2 9652  12.154   8.698   0.699
35919SOL     OW 9653  12.532   5.961  13.710
35919SOL    HW1 9654  12.611   5.945  13.658
35919SOL    HW2 9655  12.488   5.876  13.714
35920SOL     OW 9656   2.086   9.203  12.540
35920SOL    HW1 9657   2.132   9.142  12.597
35920SOL    HW2 9658   2.152   9.233  12.478
35921SOL     OW 9659   9.592   3.667  10.883
35921SOL    HW1 9660   9.626   3.588  10.925
35921SOL    HW2 9661   9.597   3.647  10.789
35922SOL     OW 9662   5.972   7.897   9.352
35922SOL    HW1 9663   6.041   7.855   9.404
35922SOL    HW2 9664   5.929   7.956   9.414
35923SOL     OW 9665   6.919  10.114  13.065
35923SOL    HW1 9666   6.963  10.030  13.074
35923SOL    HW2 9667   6.936  10.159  13.148
35924SOL     OW 9668  10.364  11.117   8.359
35924SOL    HW1 9669  10.312  11.120   8.278
35924SOL    HW2 9670  10.420  11.194   8.354
35925SOL     OW 9671   8.485   9.248  13.171
35925SOL    HW1 9672   8.571   9.251  13.214
35925SOL    HW2 9673   8.489   9.170  13.116
35926SOL     OW 9674   7.619   4.450   3.664
35926SOL    HW1 9675   7.714   4.439   3.671
35926SOL    HW2 9676   7.603   4.461   3.571
35927SOL     OW 9677   6.974   2.662   3.349
35927SOL    HW1 9678   7.038   2.665   3.279
35927SOL    HW2 9679   7.013   2.606   3.416
35928SOL     OW 9680   3.667   1.555  13.381
35928SOL    HW1 9681   3.600   1.620  13.358
35928SOL    HW2 9682   3.620   1.492  13.435
35929SOL     OW 9683  12.645   0.846   5.600
35929SOL    HW1 9684  12.586   0.816   5.531
35929SOL    HW2 9685  12.727   0.800   5.583
35930SOL     OW 9686   6.932   3.425   6.333
35930SOL    HW1 9687   6.865   3.494   6.328
35930SOL    HW2 9688   6.927   3.382   6.247
35931SOL     OW 9689   8.142   8.180  12.597
35931SOL    HW1 9690   8.161   8.245  12.529
35931SOL    HW2 9691   8.077   8.222  12.653
35932SOL     OW 9692   0.076   7.819   7.390
35932SOL    HW1 9693   0.024   7.768   7.452
35932SOL    HW2 9694   0.155   7.767   7.377
35933SOL     OW 9695  14.578   8.862  12.210
35933SOL    HW1 9696  14.552   8.771  12.193
35933SOL    HW2 9697  14.576   8.904  12.124
35934SOL     OW 9698   4.172  10.191   9.119
35934SOL    HW1 9699   4.130  10.143   9.049
35934SOL    HW2 9700   4.266  10.180   9.103
35935SOL     OW 9701   5.600   6.421  10.339
35935SOL    HW1 9702   5.568   6.336  10.368
35935SOL    HW2 9703   5.695   6.417  10.352
35936SOL     OW 9704  13.604   6.177   1.564
35936SOL    HW1 9705  13.550   6.176   1.643
35936SOL    HW2 9706  13.666   6.105   1.576
35937SOL     OW 9707   4.791  10.103   1.911
35937SOL    HW1 9708   4.704  10.125   1.942
35937SOL    HW2 9709   4.778  10.067   1.823
35938SOL     OW 9710   1.947   2.857   0.760
35938SOL    HW1 9711   1.895   2.865   0.840
35938SOL    HW2 9712   2.012   2.926   0.766
35939SOL     OW 9713   2.149   1.617   2.438
35939SOL    HW1 9714   2.212   1.548   2.460
35939SOL    HW2 9715   2.158   1.629   2.344
35940SOL     OW 9716   7.512   6.446  10.881
35940SOL    HW1 9717   7.451   6.445  10.954
35940SOL    HW2 9718   7.460   6.419  10.805
35941SOL     OW 9719  13.833   2.787   1.020
35941SOL    HW1 9720  13.864   2.860   0.967
35941SOL    HW2 9721  13.860   2.809   1.110
35942SOL     OW 9722  14.854  10.088   1.130
35942SOL    HW1 9723  14.796  10.028   1.083
35942SOL    HW2 9724   0.009  10.155   1.065
35943SOL     OW 9725   4.309   4.562   7.694
35943SOL    HW1 9726   4.286   4.502   7.764
35943SOL    HW2 9727   4.396   4.534   7.665
35944SOL     OW 9728   2.654  11.348   6.983
35944SOL    HW1 9729   2.701  11.265   6.975
35944SOL    HW2 9730   2.605  11.340   7.064
35945SOL     OW 9731   7.070  12.641  12.324
35945SOL    HW1 9732   7.097  12.582  12.253
35945SOL    HW2 9733   7.120  12.722  12.308
35946SOL     OW 9734   3.047   9.460   4.673
35946SOL    HW1 9735   3.091   9.526   4.620
35946SOL    HW2 9736   3.099   9.380   4.659
35947SOL     OW 9737  13.009   9.227   5.935
35947SOL    HW1 9738  13.058   9.149   5.963
35947SOL    HW2 9739  12.985   9.209   5.844
35948SOL     OW 9740  13.737   3.065  12.707
35948SOL    HW1 9741  13.802   3.083  12.640
35948SOL    HW2 9742  13.768   2.986  12.751
35949SOL     OW 9743  11.660  12.452   2.813
35949SOL    HW1 9744  11.646  12.540   2.780
35949SOL    HW2 9745  11.616  12.451   2.898
35950SOL     OW 9746  11.015   8.846   1.491
35950SOL    HW1 9747  11.069   8.775   1.525
35950SOL    HW2 9748  11.018   8.836   1.396
35951SOL     OW 9749   2.488  11.220   3.807
35951SOL    HW1 9750   2.518  11.153   3.869
35951SOL    HW2 9751   2.394  11.227   3.822
35952SOL     OW 9752   2.030  14.020   6.988
35952SOL    HW1 9753   2.098  14.081   6.959
35952SOL    HW2 9754   2.039  13.945   6.930
35953SOL     OW 9755   2.326   2.802   9.744
35953SOL    HW1 9756   2.257   2.797   9.678
35953SOL    HW2 9757   2.383   2.873   9.714
35954SOL     OW 9758   5.588   1.151   7.914
35954SOL    HW1 9759   5.564   1.069   7.871
35954SOL    HW2 9760   5.591   1.215   7.844
35955SOL     OW 9761  14.443  11.936   8.654
35955SOL    HW1 9762  14.455  12.029   8.669
35955SOL    HW2 9763  14.464  11.895   8.738
35956SOL     OW 9764   0.800   1.442  10.219
35956SOL    HW1 9765   0.717   1.440  10.171
35956SOL    HW2 9766   0.860   1.390  10.165
35957SOL     OW 9767   1.240  13.177   5.507
35957SOL    HW1 9768   1.269  13.235   5.578
35957SOL    HW2 9769   1.233  13.234   5.431
35958SOL     OW 9770   5.590  11.706  11.327
35958SOL    HW1 9771   5.617  11.760  11.253
35958SOL    HW2 9772   5.530  11.641  11.289
35959SOL     OW 9773   2.263   6.625   0.868
35959SOL    HW1 9774   2.175   6.662   0.876
35959SOL    HW2 9775   2.258   6.541   0.914
35960SOL     OW 9776   4.625   2.405   8.144
35960SOL    HW1 9777   4.628   2.467   8.072
35960SOL    HW2 9778   4.695   2.432   8.203
35961SOL     OW 9779   4.928   0.403   6.545
35961SOL    HW1 9780   4.987   0.468   6.507
35961SOL    HW2 9781   4.923   0.334   6.478
35962SOL     OW 9782   1.263  12.256   6.195
35962SOL    HW1 9783   1.235  12.199   6.266
35962SOL    HW2 9784   1.260  12.344   6.232
35963SOL     OW 9785   1.398  13.199  13.540
35963SOL    HW1 9786   1.483  13.240  13.553
35963SOL    HW2 9787   1.392  13.134  13.610
35964SOL     OW 9788   0.896   9.837  10.576
35964SOL    HW1 9789   0.896   9.760  10.520
35964SOL    HW2 9790   0.876   9.910  10.517
35965SOL     OW 9791   2.082   7.807  11.678
35965SOL    HW1 9792   2.175   7.817  11.658
35965SOL    HW2 9793   2.079   7.790  11.772
35966SOL     OW 9794  13.572   1.301   7.195
35966SOL    HW1 9795  13.651   1.344   7.227
35966SOL    HW2 9796  13.581   1.300   7.100
35967SOL     OW 9797   0.921   0.992  13.145
35967SOL    HW1 9798   0.877   1.058  13.198
35967SOL    HW2 9799   0.910   1.021  13.055
35968SOL     OW 9800   1.953  12.935   0.232
35968SOL    HW1 9801   1.858  12.923   0.238
35968SOL    HW2 9802   1.986  12.896   0.313
35969SOL     OW 9803  12.272  13.003   0.727
35969SOL    HW1 9804  12.225  13.080   0.758
35969SOL    HW2 9805  12.339  13.038   0.668
35970SOL     OW 9806  14.097  10.266   8.926
35970SOL    HW1 9807  14.024  10.287   8.984
35970SOL    HW2 9808  14.169  10.322   8.956
35971SOL     OW 9809  12.312   4.878   9.787
35971SOL    HW1 9810  12.390   4.827   9.812
35971SOL    HW2 9811  12.329   4.903   9.696
35972SOL     OW 9812   2.508   1.753   5.235
35972SOL    HW1 9813   2.452   1.711   5.301
35972SOL    HW2 9814   2.450   1.774   5.163
35973SOL     OW 9815   2.133   5.007  12.541
35973SOL    HW1 9816   2.219   4.971  12.562
35973SOL    HW2 9817   2.152   5.092  12.501
35974SOL     OW 9818   2.329  12.285  13.757
35974SOL    HW1 9819   2.362  12.374  13.767
35974SOL    HW2 9820   2.394  12.231  13.803
35975SOL     OW 9821   1.318   3.664   6.362
35975SOL    HW1 9822   1.242   3.607   6.374
35975SOL    HW2 9823   1.388   3.605   6.335
35976SOL     OW 9824   4.444   5.764   4.115
35976SOL    HW1 9825   4.382   5.732   4.050
35976SOL    HW2 9826   4.527   5.722   4.092
35977SOL     OW 9827   3.781   5.432   9.224
35977SOL    HW1 9828   3.839   5.501   9.256
35977SOL    HW2 9829   3.831   5.351   9.238
35978SOL     OW 9830   4.447   3.205   2.030
35978SOL    HW1 9831   4.404   3.284   2.064
35978SOL    HW2 9832   4.529   3.237   1.993
35979SOL     OW 9833  12.277  12.848  11.290
35979SOL    HW1 9834  12.322  12.921  11.247
35979SOL    HW2 9835  12.326  12.771  11.261
35980SOL     OW 9836   6.984   7.598   2.125
35980SOL    HW1 9837   7.006   7.682   2.165
35980SOL    HW2 9838   6.893   7.608   2.097
35981SOL     OW 9839   7.029   8.332  10.975
35981SOL    HW1 9840   6.973   8.257  10.992
35981SOL    HW2 9841   6.968   8.404  10.956
35982SOL     OW 9842  11.739   4.649   3.442
35982SOL    HW1 9843  11.787   4.710   3.386
35982SOL    HW2 9844  11.787   4.567   3.435
35983SOL     OW 9845   6.492   5.879   2.486
35983SOL    HW1 9846   6.541   5.825   2.423
35983SOL    HW2 9847   6.507   5.969   2.457
35984SOL     OW 9848  11.941   4.563  14.696
35984SOL    HW1 9849  11.855   4.541  14.660
35984SOL    HW2 9850  11.963   4.490  14.753
35985SOL     OW 9851   2.626  12.814  11.319
35985SOL    HW1 9852   2.655  12.724  11.336
35985SOL    HW2 9853   2.672  12.839  11.239
35986SOL     OW 9854   1.775   7.024  11.776
35986SOL    HW1 9855   1.855   6.974  11.760
35986SOL    HW2 9856   1.754   7.064  11.691
35987SOL     OW 9857  12.920   2.024   7.671
35987SOL    HW1 9858  12.845   2.053   7.619
35987SOL    HW2 9859  12.987   2.001   7.607
35988SOL     OW 9860  12.583  12.871   2.482
35988SOL    HW1 9861  12.492  12.894   2.504
35988SOL    HW2 9862  12.632  12.952   2.493
35989SOL     OW 9863   4.297   3.179  11.616
35989SOL    HW1 9864   4.219   3.182  11.560
35989SOL    HW2 9865   4.283   3.104  11.673
35990SOL     OW 9866   3.293  13.344  14.499
35990SOL    HW1 9867   3.274  13.251  14.515
35990SOL    HW2 9868   3.280  13.355  14.405
35991SOL     OW 9869   9.148   9.304   2.814
35991SOL    HW1 9870   9.101   9.291   2.731
35991SOL    HW2 9871   9.082   9.287   2.881
35992SOL     OW 9872   9.949  12.192   3.612
35992SOL    HW1 9873   9.901  12.112   3.633
35992SOL    HW2 9874   9.930  12.251   3.685
35993SOL     OW 9875   6.989  10.142   5.455
35993SOL    HW1 9876   6.907  10.101   5.484
35993SOL    HW2 9877   7.028  10.077   5.396
35994SOL     OW 9878  11.144   4.305   2.073
35994SOL    HW1 9879  11.126   4.399   2.076
35994SOL    HW2 9880  11.060   4.264   2.092
35995SOL     OW 9881  10.919   3.667   5.071
35995SOL    HW1 9882  10.891   3.757   5.088
35995SOL    HW2 9883  10.874   3.643   4.990
35996SOL     OW 9884   9.938   4.436   3.968
35996SOL    HW1 9885   9.857   4.462   3.925
35996SOL    HW2 9886   9.993   4.515   3.966
35997SOL     OW 9887   0.729  13.460  10.801
35997SOL    HW1 9888   0.787  13.388  10.825
35997SOL    HW2 9889   0.766  13.495  10.721
35998SOL     OW 9890  12.609  10.675   9.507
35998SOL    HW1 9891  12.659  10.620   9.447
35998SOL    HW2 9892  12.562  10.613   9.563
35999SOL     OW 9893   6.964   8.238   7.790
35999SOL    HW1 9894   6.894   8.303   7.790
35999SOL    HW2 9895   7.024   8.267   7.721
36000SOL     OW 9896  13.677  13.346   1.982
36000SOL    HW1 9897  13.666  13.252   1.966
36000SOL    HW2 9898  13.769  13.364   1.960
36001SOL     OW 9899   7.969  12.149   5.362
36001SOL    HW1 9900   7.889  12.178   5.318
36001SOL    HW2 9901   8.037  12.159   5.296
36002SOL     OW 9902   3.127   8.440   0.886
36002SOL    HW1 9903   3.137   8.375   0.956
36002SOL    HW2 9904   3.124   8.388   0.806
36003SOL     OW 9905   0.514  12.585   8.204
36003SOL    HW1 9906   0.580  12.649   8.230
36003SOL    HW2 9907   0.439  12.603   8.259
36004SOL     OW 9908  12.311   8.067  10.599
36004SOL    HW1 9909  12.277   8.154  10.620
36004SOL    HW2 9910  12.251   8.033  10.533
36005SOL     OW 9911  12.562   7.676   3.693
36005SOL    HW1 9912  12.535   7.611   3.757
36005SOL    HW2 9913  12.491   7.676   3.627
36006SOL     OW 9914   2.133   2.931   2.530
36006SOL    HW1 9915   2.138   2.858   2.591
36006SOL    HW2 9916   2.163   2.895   2.446
36007SOL     OW 9917  11.069  12.275   7.839
36007SOL    HW1 9918  11.107  12.357   7.869
36007SOL    HW2 9919  11.132  12.208   7.866
36008SOL     OW 9920  12.549  10.832  10.865
36008SOL    HW1 9921  12.604  10.756  10.883
36008SOL    HW2 9922  12.608  10.896  10.825
36009SOL     OW 9923   6.180   3.649   7.048
36009SOL    HW1 9924   6.225   3.571   7.017
36009SOL    HW2 9925   6.140   3.623   7.132
36010SOL     OW 9926  10.874   3.434  12.885
36010SOL    HW1 9927  10.901   3.363  12.827
36010SOL    HW2 9928  10.895   3.514  12.836
36011SOL     OW 9929  14.539   2.982   9.437
36011SOL    HW1 9930  14.609   3.028   9.390
36011SOL    HW2 9931  14.517   2.908   9.380
36012SOL     OW 9932   0.557  12.268  11.504
36012SOL    HW1 9933   0.634  12.210  11.501
36012SOL    HW2 9934   0.541  12.291  11.412
36013SOL     OW 9935   8.568  12.356  13.113
36013SOL    HW1 9936   8.519  12.397  13.043
36013SOL    HW2 9937   8.543  12.264  13.109
36014SOL     OW 9938   4.945   3.736   6.381
36014SOL    HW1 9939   4.878   3.688   6.429
36014SOL    HW2 9940   5.006   3.767   6.448
36015SOL     OW 9941   5.810   6.523   9.845
36015SOL    HW1 9942   5.838   6.595   9.788
36015SOL    HW2 9943   5.814   6.561   9.933
36016SOL     OW 9944   2.837   3.803  10.518
36016SOL    HW1 9945   2.833   3.722  10.467
36016SOL    HW2 9946   2.927   3.832  10.509
36017SOL     OW 9947  11.277   1.221   8.507
36017SOL    HW1 9948  11.350   1.208   8.448
36017SOL    HW2 9949  11.264   1.135   8.548
36018SOL     OW 9950  14.028   4.807  11.043
36018SOL    HW1 9951  14.100   4.826  11.103
36018SOL    HW2 9952  14.029   4.712  11.034
36019SOL     OW 9953  10.795   4.500   2.665
36019SOL    HW1 9954  10.765   4.580   2.709
36019SOL    HW2 9955  10.776   4.430   2.727
36020SOL     OW 9956   3.689   8.161   9.653
36020SOL    HW1 9957   3.749   8.122   9.716
36020SOL    HW2 9958   3.717   8.253   9.646
36021SOL     OW 9959  11.566  10.903  11.659
36021SOL    HW1 9960  11.579  10.812  11.688
36021SOL    HW2 9961  11.471  10.913  11.652
36022SOL     OW 9962   0.099  13.204   3.154
36022SOL    HW1 9963   0.090  13.148   3.231
36022SOL    HW2 9964   0.186  13.184   3.120
36023SOL     OW 9965   7.929   6.395  12.064
36023SOL    HW1 9966   7.890   6.474  12.027
36023SOL    HW2 9967   7.919   6.329  11.996
36024SOL     OW 9968   1.766   2.063   4.726
36024SOL    HW1 9969   1.726   1.983   4.762
36024SOL    HW2 9970   1.705   2.091   4.657
36025SOL     OW 9971  11.203   9.792  13.036
36025SOL    HW1 9972  11.188   9.882  13.065
36025SOL    HW2 9973  11.132   9.741  13.076
36026SOL     OW 9974   5.035   3.004   8.549
36026SOL    HW1 9975   5.124   3.021   8.580
36026SOL    HW2 9976   4.992   2.961   8.623
36027SOL     OW 9977   7.088  12.595   7.358
36027SOL    HW1 9978   7.008  12.629   7.316
36027SOL    HW2 9979   7.056  12.545   7.433
36028SOL     OW 9980   6.471   1.648   5.453
36028SOL    HW1 9981   6.418   1.724   5.427
36028SOL    HW2 9982   6.561   1.678   5.442
36029SOL     OW 9983  12.127  13.785   4.487
36029SOL    HW1 9984  12.143  13.776   4.393
36029SOL    HW2 9985  12.185  13.856   4.514
36030SOL     OW 9986   0.052  13.574   5.349
36030SOL    HW1 9987   0.089  13.496   5.390
36030SOL    HW2 9988   0.095  13.647   5.392
36031SOL     OW 9989  14.473  12.796   3.209
36031SOL    HW1 9990  14.478  12.863   3.140
36031SOL    HW2 9991  14.553  12.809   3.260
36032SOL     OW 9992   9.432   8.098   6.142
36032SOL    HW1 9993   9.381   8.115   6.222
36032SOL    HW2 9994   9.470   8.011   6.157
36033SOL     OW 9995   8.818   2.019   7.061
36033SOL    HW1 9996   8.819   1.926   7.039
36033SOL    HW2 9997   8.850   2.022   7.152
36034SOL     OW 9998  14.044  14.055   8.881
36034SOL    HW1 9999  14.135  14.045   8.852
36034SOL    HW210000  14.050  14.068   8.975
36035SOL     OW10001  13.919  12.669   3.174
36035SOL    HW110002  13.904  12.617   3.095
36035SOL    HW210003  13.990  12.624   3.220
36036SOL     OW10004  12.708  12.944   9.792
36036SOL    HW110005  12.766  12.902   9.856
36036SOL    HW210006  12.712  12.887   9.715
36037SOL     OW10007   5.696   1.387  13.432
36037SOL    HW110008   5.757   1.458  13.411
36037SOL    HW210009   5.613   1.431  13.447
36038SOL     OW10010  10.130  10.118   7.716
36038SOL    HW110011  10.087  10.124   7.802
36038SOL    HW210012  10.155  10.027   7.708
36039SOL     OW10013   0.770   5.611   4.357
36039SOL    HW110014   0.815   5.574   4.282
36039SOL    HW210015   0.841   5.647   4.411
36040SOL     OW10016   2.663  14.487  11.919
36040SOL    HW110017   2.639  14.539  11.842
36040SOL    HW210018   2.758  14.479  11.914
36041SOL     OW10019   8.562   2.336  14.713
36041SOL    HW110020   8.511   2.258  14.735
36041SOL    HW210021   8.501   2.393  14.666
36042SOL     OW10022   8.332   7.476   4.012
36042SOL    HW110023   8.350   7.545   4.076
36042SOL    HW210024   8.391   7.495   3.939
36043SOL     OW10025  14.380   4.177  11.841
36043SOL    HW110026  14.347   4.101  11.793
36043SOL    HW210027  14.324   4.249  11.813
36044SOL     OW10028  10.746   8.078   0.121
36044SOL    HW110029  10.653   8.092   0.134
36044SOL    HW210030  10.772   8.020   0.192
36045SOL     OW10031   4.279  13.921   4.524
36045SOL    HW110032   4.336  13.911   4.448
36045SOL    HW210033   4.334  13.963   4.590
36046SOL     OW10034   0.466   0.869   6.499
36046SOL    HW110035   0.438   0.961   6.496
36046SOL    HW210036   0.429   0.830   6.419
36047SOL     OW10037  13.529  10.329   2.567
36047SOL    HW110038  13.610  10.279   2.557
36047SOL    HW210039  13.466  10.267   2.603
36048SOL     OW10040   7.623   2.825  10.657
36048SOL    HW110041   7.706   2.799  10.617
36048SOL    HW210042   7.646   2.847  10.747
36049SOL     OW10043   7.049   7.194   9.445
36049SOL    HW110044   7.023   7.171   9.356
36049SOL    HW210045   7.135   7.237   9.434
36050SOL     OW10046   3.914  14.416  12.733
36050SOL    HW110047   3.833  14.365  12.730
36050SOL    HW210048   3.936  14.433  12.642
36051SOL     OW10049  12.406  14.724  14.000
36051SOL    HW110050  12.399  14.641  13.954
36051SOL    HW210051  12.409  14.700  14.093
36052SOL     OW10052   3.779   0.524  12.932
36052SOL    HW110053   3.816   0.541  13.019
36052SOL    HW210054   3.855   0.499  12.879
36053SOL     OW10055  10.061  12.149   4.392
36053SOL    HW110056  10.086  12.098   4.470
36053SOL    HW210057   9.988  12.100   4.354
36054SOL     OW10058  13.054  13.830   3.692
36054SOL    HW110059  13.012  13.744   3.686
36054SOL    HW210060  12.984  13.888   3.720
36055SOL     OW10061   3.855   0.271   3.457
36055SOL    HW110062   3.939   0.275   3.410
36055SOL    HW210063   3.853   0.182   3.492
36056SOL     OW10064  14.548   4.119   9.883
36056SOL    HW110065  14.573   4.114   9.791
36056SOL    HW210066  14.479   4.053   9.892
36057SOL     OW10067   9.653   2.495   0.463
36057SOL    HW110068   9.675   2.579   0.503
36057SOL    HW210069   9.602   2.449   0.529
36058SOL     OW10070   7.427  14.821  11.784
36058SOL    HW110071   7.498   0.011  11.813
36058SOL    HW210072   7.462  14.776  11.706
36059SOL     OW10073   6.006  11.839   0.394
36059SOL    HW110074   6.087  11.853   0.344
36059SOL    HW210075   5.937  11.836   0.328
36060SOL     OW10076   9.262   3.140  12.662
36060SOL    HW110077   9.176   3.129  12.703
36060SOL    HW210078   9.319   3.169  12.733
36061SOL     OW10079   8.363   8.635   6.548
36061SOL    HW110080   8.438   8.684   6.513
36061SOL    HW210081   8.354   8.559   6.491
36062SOL     OW10082   5.561   2.195   1.960
36062SOL    HW110083   5.636   2.246   1.990
36062SOL    HW210084   5.576   2.107   1.996
36063SOL     OW10085   5.836  11.111   3.887
36063SOL    HW110086   5.872  11.090   3.801
36063SOL    HW210087   5.901  11.169   3.926
36064SOL     OW10088   5.014   8.601   6.514
36064SOL    HW110089   4.999   8.562   6.428
36064SOL    HW210090   5.026   8.526   6.573
36065SOL     OW10091   0.904   3.654  10.658
36065SOL    HW110092   0.881   3.738  10.619
36065SOL    HW210093   0.862   3.589  10.602
36066SOL     OW10094   1.795  13.988  12.533
36066SOL    HW110095   1.750  13.947  12.607
36066SOL    HW210096   1.732  13.985  12.462
36067SOL     OW10097  10.337   2.249   3.515
36067SOL    HW110098  10.255   2.256   3.466
36067SOL    HW210099  10.316   2.190   3.588
36068SOL     OW10100   5.930   0.260   3.403
36068SOL    HW110101   5.989   0.231   3.472
36068SOL    HW210102   5.865   0.191   3.396
36069SOL     OW10103  10.991   4.776   4.988
36069SOL    HW110104  11.075   4.795   4.945
36069SOL    HW210105  10.995   4.823   5.071
36070SOL     OW10106  14.308   3.203  12.033
36070SOL    HW110107  14.292   3.219  12.126
36070SOL    HW210108  14.353   3.119  12.030
36071SOL     OW10109  10.089   1.944   4.327
36071SOL    HW110110  10.171   1.979   4.360
36071SOL    HW210111  10.098   1.947   4.231
36072SOL     OW10112   9.397   7.492   4.825
36072SOL    HW110113   9.329   7.464   4.886
36072SOL    HW210114   9.353   7.498   4.740
36073SOL     OW10115  14.473   3.551   0.441
36073SOL    HW110116  14.402   3.496   0.474
36073SOL    HW210117  14.522   3.495   0.381
36074SOL     OW10118   6.277   9.210   6.847
36074SOL    HW110119   6.232   9.290   6.823
36074SOL    HW210120   6.296   9.219   6.940
36075SOL     OW10121   0.900   2.416  11.466
36075SOL    HW110122   0.889   2.406  11.560
36075SOL    HW210123   0.941   2.334  11.438
36076SOL     OW10124   6.957  11.998   6.102
36076SOL    HW110125   6.984  11.957   6.020
36076SOL    HW210126   6.947  12.091   6.080
36077SOL     OW10127   9.203  14.102   6.968
36077SOL    HW110128   9.275  14.093   6.906
36077SOL    HW210129   9.124  14.095   6.915
36078SOL     OW10130  13.592   2.420   5.760
36078SOL    HW110131  13.561   2.334   5.732
36078SOL    HW210132  13.662   2.442   5.699
36079SOL     OW10133  11.018   3.556   0.952
36079SOL    HW110134  11.002   3.467   0.921
36079SOL    HW210135  11.075   3.545   1.028
36080SOL     OW10136   0.396   2.141   2.423
36080SOL    HW110137   0.362   2.230   2.427
36080SOL    HW210138   0.331   2.093   2.373
36081SOL     OW10139   0.968   7.821   4.794
36081SOL    HW110140   1.016   7.887   4.745
36081SOL    HW210141   1.031   7.788   4.858
36082SOL     OW10142  10.056   5.492   8.596
36082SOL    HW110143  10.029   5.583   8.610
36082SOL    HW210144   9.996   5.441   8.651
36083SOL     OW10145   4.748  11.960   0.547
36083SOL    HW110146   4.699  11.971   0.466
36083SOL    HW210147   4.839  11.946   0.519
36084SOL     OW10148   7.432   4.805   6.641
36084SOL    HW110149   7.524   4.820   6.622
36084SOL    HW210150   7.413   4.719   6.602
36085SOL     OW10151   6.911   2.597  14.335
36085SOL    HW110152   6.945   2.679  14.299
36085SOL    HW210153   6.885   2.619  14.425
36086SOL     OW10154   3.321   8.293   1.538
36086SOL    HW110155   3.399   8.259   1.583
36086SOL    HW210156   3.329   8.259   1.448
36087SOL     OW10157  11.027   2.730   6.258
36087SOL    HW110158  10.987   2.657   6.211
36087SOL    HW210159  10.958   2.796   6.264
36088SOL     OW10160   6.526   0.641   0.334
36088SOL    HW110161   6.595   0.606   0.277
36088SOL    HW210162   6.531   0.736   0.323
36089SOL     OW10163  14.749  12.899   9.902
36089SOL    HW110164  14.760  12.969   9.966
36089SOL    HW210165  14.717  12.824   9.953
36090SOL     OW10166  10.201  14.470   0.839
36090SOL    HW110167  10.161  14.552   0.866
36090SOL    HW210168  10.179  14.463   0.746
36091SOL     OW10169   3.287   9.267   8.816
36091SOL    HW110170   3.307   9.175   8.832
36091SOL    HW210171   3.369   9.305   8.786
36092SOL     OW10172   7.715  11.640  14.637
36092SOL    HW110173   7.667  11.636  14.720
36092SOL    HW210174   7.795  11.688  14.657
36093SOL     OW10175  14.298   7.695   3.906
36093SOL    HW110176  14.282   7.621   3.965
36093SOL    HW210177  14.373   7.668   3.853
36094SOL     OW10178   1.410  12.136   9.421
36094SOL    HW110179   1.406  12.058   9.478
36094SOL    HW210180   1.321  12.169   9.420
36095SOL     OW10181   6.594  13.595   3.673
36095SOL    HW110182   6.526  13.594   3.606
36095SOL    HW210183   6.662  13.537   3.640
36096SOL     OW10184  10.618  14.651  11.606
36096SOL    HW110185  10.602  14.726  11.663
36096SOL    HW210186  10.547  14.590  11.627
36097SOL     OW10187  11.854   2.321   2.700
36097SOL    HW110188  11.773   2.308   2.650
36097SOL    HW210189  11.907   2.379   2.646
36098SOL     OW10190  10.750   6.679   7.580
36098SOL    HW110191  10.828   6.732   7.600
36098SOL    HW210192  10.785   6.592   7.559
36099SOL     OW10193   6.977   8.399  12.884
36099SOL    HW110194   6.926   8.476  12.911
36099SOL    HW210195   7.059   8.435  12.851
36100SOL     OW10196   9.359  11.912  12.876
36100SOL    HW110197   9.366  11.942  12.785
36100SOL    HW210198   9.308  11.980  12.920
36101SOL     OW10199   6.038   0.952   2.001
36101SOL    HW110200   6.113   0.989   1.953
36101SOL    HW210201   6.004   0.884   1.944
36102SOL     OW10202   3.959  12.855   4.273
36102SOL    HW110203   3.934  12.785   4.333
36102SOL    HW210204   4.051  12.840   4.254
36103SOL     OW10205   1.980  13.331   1.747
36103SOL    HW110206   1.964  13.257   1.688
36103SOL    HW210207   1.982  13.291   1.835
36104SOL     OW10208  12.204   4.875  13.682
36104SOL    HW110209  12.238   4.786  13.698
36104SOL    HW210210  12.228   4.924  13.760
36105SOL     OW10211  10.967  14.585  13.651
36105SOL    HW110212  11.039  14.647  13.641
36105SOL    HW210213  10.914  14.597  13.573
36106SOL     OW10214   7.193   6.937   8.166
36106SOL    HW110215   7.164   6.893   8.086
36106SOL    HW210216   7.282   6.967   8.144
36107SOL     OW10217   7.271  14.197   2.021
36107SOL    HW110218   7.277  14.292   2.036
36107SOL    HW210219   7.232  14.162   2.101
36108SOL     OW10220   0.627  11.714   9.908
36108SOL    HW110221   0.620  11.807   9.885
36108SOL    HW210222   0.630  11.713  10.004
36109SOL     OW10223   6.579  11.584   9.742
36109SOL    HW110224   6.569  11.614   9.652
36109SOL    HW210225   6.525  11.504   9.746
36110SOL     OW10226   9.358  14.325   0.753
36110SOL    HW110227   9.333  14.299   0.842
36110SOL    HW210228   9.340  14.248   0.699
36111SOL     OW10229   5.961  13.968   3.850
36111SOL    HW110230   5.982  13.878   3.877
36111SOL    HW210231   5.985  13.971   3.757
36112SOL     OW10232   8.123   0.220   7.760
36112SOL    HW110233   8.102   0.229   7.667
36112SOL    HW210234   8.051   0.168   7.796
36113SOL     OW10235  10.172   0.110   5.591
36113SOL    HW110236  10.237   0.113   5.661
36113SOL    HW210237  10.181   0.023   5.553
36114SOL     OW10238   4.005  13.506   2.713
36114SOL    HW110239   3.983  13.574   2.777
36114SOL    HW210240   4.036  13.433   2.766
36115SOL     OW10241  10.696   9.989   2.533
36115SOL    HW110242  10.701   9.918   2.469
36115SOL    HW210243  10.624   9.965   2.591
36116SOL     OW10244  12.424   9.790  10.252
36116SOL    HW110245  12.345   9.784  10.199
36116SOL    HW210246  12.450   9.699  10.266
36117SOL     OW10247   6.176   7.852   3.703
36117SOL    HW110248   6.106   7.900   3.748
36117SOL    HW210249   6.205   7.912   3.634
36118SOL     OW10250   0.530   4.370   3.637
36118SOL    HW110251   0.624   4.363   3.620
36118SOL    HW210252   0.520   4.454   3.681
36119SOL     OW10253  12.348   3.188   5.502
36119SOL    HW110254  12.396   3.132   5.564
36119SOL    HW210255  12.266   3.141   5.488
36120SOL     OW10256   8.993  11.600   9.051
36120SOL    HW110257   9.073  11.625   9.004
36120SOL    HW210258   8.992  11.504   9.048
36121SOL     OW10259   4.968   0.366   5.995
36121SOL    HW110260   5.042   0.409   6.038
36121SOL    HW210261   5.007   0.295   5.945
36122SOL     OW10262  11.221   7.026   7.849
36122SOL    HW110263  11.258   7.109   7.880
36122SOL    HW210264  11.179   6.988   7.926
36123SOL     OW10265  13.408   8.450  10.622
36123SOL    HW110266  13.360   8.461  10.540
36123SOL    HW210267  13.397   8.533  10.668
36124SOL     OW10268   9.522  10.910   2.235
36124SOL    HW110269   9.597  10.851   2.242
36124SOL    HW210270   9.560  10.991   2.199
36125SOL     OW10271   5.238  13.043  10.378
36125SOL    HW110272   5.160  13.090  10.409
36125SOL    HW210273   5.210  13.001  10.296
36126SOL     OW10274   4.801  11.690   3.949
36126SOL    HW110275   4.721  11.662   3.993
36126SOL    HW210276   4.771  11.726   3.866
36127SOL     OW10277  13.854   7.540   1.952
36127SOL    HW110278  13.793   7.468   1.968
36127SOL    HW210279  13.843   7.561   1.859
36128SOL     OW10280   6.278   5.215   7.829
36128SOL    HW110281   6.221   5.286   7.800
36128SOL    HW210282   6.332   5.195   7.752
36129SOL     OW10283   9.843   7.021   4.541
36129SOL    HW110284   9.799   7.104   4.521
36129SOL    HW210285   9.935   7.044   4.547
36130SOL     OW10286   1.161  11.330  13.948
36130SOL    HW110287   1.109  11.271  14.003
36130SOL    HW210288   1.219  11.375  14.009
36131SOL     OW10289   8.913   3.724  10.176
36131SOL    HW110290   8.970   3.770  10.238
36131SOL    HW210291   8.839   3.696  10.229
36132SOL     OW10292   7.444   5.188   3.533
36132SOL    HW110293   7.520   5.130   3.527
36132SOL    HW210294   7.419   5.185   3.626
36133SOL     OW10295  14.224   7.691   7.411
36133SOL    HW110296  14.191   7.780   7.426
36133SOL    HW210297  14.194   7.642   7.488
36134SOL     OW10298  12.532  12.288   3.484
36134SOL    HW110299  12.451  12.306   3.437
36134SOL    HW210300  12.585  12.367   3.472
36135SOL     OW10301   4.757   1.950  11.627
36135SOL    HW110302   4.836   1.954  11.681
36135SOL    HW210303   4.752   1.858  11.600
36136SOL     OW10304  12.870  11.372   1.935
36136SOL    HW110305  12.829  11.431   1.871
36136SOL    HW210306  12.801  11.359   2.001
36137SOL     OW10307   8.422   5.763  13.180
36137SOL    HW110308   8.485   5.821  13.138
36137SOL    HW210309   8.469   5.680  13.189
36138SOL     OW10310  13.689   8.656   6.429
36138SOL    HW110311  13.690   8.565   6.399
36138SOL    HW210312  13.772   8.667   6.474
36139SOL     OW10313   2.250  14.810   6.265
36139SOL    HW110314   2.332  14.762   6.275
36139SOL    HW210315   2.209  14.805   6.352
36140SOL     OW10316   1.345  13.651   8.770
36140SOL    HW110317   1.441  13.657   8.768
36140SOL    HW210318   1.320  13.694   8.851
36141SOL     OW10319   4.703  12.692   9.968
36141SOL    HW110320   4.755  12.699  10.048
36141SOL    HW210321   4.665  12.605   9.971
36142SOL     OW10322   6.725  10.006   0.832
36142SOL    HW110323   6.671  10.083   0.815
36142SOL    HW210324   6.709   9.985   0.924
36143SOL     OW10325   5.770  11.526   3.249
36143SOL    HW110326   5.687  11.507   3.206
36143SOL    HW210327   5.745  11.562   3.334
36144SOL     OW10328   1.877  13.256   7.022
36144SOL    HW110329   1.832  13.176   6.994
36144SOL    HW210330   1.930  13.229   7.097
36145SOL     OW10331   6.270   5.731   9.127
36145SOL    HW110332   6.211   5.724   9.051
36145SOL    HW210333   6.215   5.709   9.202
36146SOL     OW10334  14.162   5.502   7.772
36146SOL    HW110335  14.147   5.564   7.843
36146SOL    HW210336  14.109   5.535   7.700
36147SOL     OW10337   2.204   8.518   8.342
36147SOL    HW110338   2.236   8.428   8.343
36147SOL    HW210339   2.172   8.530   8.252
36148SOL     OW10340  12.456   1.388  11.064
36148SOL    HW110341  12.550   1.408  11.060
36148SOL    HW210342  12.429   1.414  11.152
36149SOL     OW10343   4.833   1.212  10.470
36149SOL    HW110344   4.817   1.293  10.423
36149SOL    HW210345   4.753   1.161  10.458
36150SOL     OW10346   5.622   2.887   8.852
36150SOL    HW110347   5.710   2.853   8.869
36150SOL    HW210348   5.629   2.981   8.867
36151SOL     OW10349  12.932   3.416   5.179
36151SOL    HW110350  12.847   3.397   5.138
36151SOL    HW210351  12.919   3.499   5.224
36152SOL     OW10352  11.834   3.496   9.557
36152SOL    HW110353  11.908   3.489   9.498
36152SOL    HW210354  11.805   3.405   9.570
36153SOL     OW10355   8.655  10.458  12.388
36153SOL    HW110356   8.739  10.413  12.401
36153SOL    HW210357   8.660  10.534  12.447
36154SOL     OW10358   7.972   5.382   3.265
36154SOL    HW110359   7.893   5.359   3.314
36154SOL    HW210360   7.990   5.473   3.289
36155SOL     OW10361  10.119   0.239   5.914
36155SOL    HW110362  10.058   0.297   5.868
36155SOL    HW210363  10.202   0.248   5.866
36156SOL     OW10364  10.377   2.091   1.545
36156SOL    HW110365  10.435   2.140   1.603
36156SOL    HW210366  10.332   2.029   1.602
36157SOL     OW10367  13.284   8.545   3.110
36157SOL    HW110368  13.307   8.458   3.076
36157SOL    HW210369  13.189   8.544   3.116
36158SOL     OW10370  14.327   3.155   8.966
36158SOL    HW110371  14.279   3.233   8.996
36158SOL    HW210372  14.334   3.167   8.871
36159SOL     OW10373  14.518   0.608   8.297
36159SOL    HW110374  14.474   0.691   8.281
36159SOL    HW210375  14.447   0.543   8.300
36160SOL     OW10376  14.338   9.257   9.593
36160SOL    HW110377  14.370   9.167   9.601
36160SOL    HW210378  14.350   9.295   9.680
36161SOL     OW10379   1.404   8.450  14.786
36161SOL    HW110380   1.375   8.528  14.833
36161SOL    HW210381   1.324   8.399  14.772
36162SOL     OW10382  12.870   8.394   8.762
36162SOL    HW110383  12.861   8.482   8.798
36162SOL    HW210384  12.874   8.336   8.838
36163SOL     OW10385   6.160  13.318   4.838
36163SOL    HW110386   6.248  13.328   4.874
36163SOL    HW210387   6.142  13.224   4.846
36164SOL     OW10388  11.551   7.528   8.165
36164SOL    HW110389  11.492   7.482   8.104
36164SOL    HW210390  11.616   7.568   8.108
36165SOL     OW10391   0.849   1.370  11.489
36165SOL    HW110392   0.921   1.381  11.427
36165SOL    HW210393   0.843   1.275  11.502
36166SOL     OW10394  12.524  12.081   4.343
36166SOL    HW110395  12.522  12.159   4.288
36166SOL    HW210396  12.453  12.026   4.310
36167SOL     OW10397  14.729  11.249   1.806
36167SOL    HW110398  14.743  11.168   1.757
36167SOL    HW210399  14.742  11.225   1.897
36168SOL     OW10400   2.890   1.517   3.646
36168SOL    HW110401   2.840   1.446   3.604
36168SOL    HW210402   2.833   1.548   3.716
36169SOL     OW10403   2.852  14.342   4.220
36169SOL    HW110404   2.875  14.433   4.241
36169SOL    HW210405   2.855  14.338   4.124
36170SOL     OW10406  13.835   1.306   2.139
36170SOL    HW110407  13.833   1.305   2.234
36170SOL    HW210408  13.888   1.382   2.116
36171SOL     OW10409   8.049  10.063   9.568
36171SOL    HW110410   8.035   9.987   9.512
36171SOL    HW210411   8.143  10.064   9.585
36172SOL     OW10412   2.719   3.179   4.922
36172SOL    HW110413   2.635   3.207   4.958
36172SOL    HW210414   2.770   3.154   4.999
36173SOL     OW10415   0.540   8.789   0.901
36173SOL    HW110416   0.503   8.839   0.828
36173SOL    HW210417   0.627   8.827   0.914
36174SOL     OW10418   6.306   1.245   2.518
36174SOL    HW110419   6.256   1.217   2.595
36174SOL    HW210420   6.344   1.329   2.544
36175SOL     OW10421   4.022   3.978  10.956
36175SOL    HW110422   4.061   3.955  10.872
36175SOL    HW210423   4.001   3.894  10.997
36176SOL     OW10424  10.511   1.999   7.891
36176SOL    HW110425  10.596   2.022   7.929
36176SOL    HW210426  10.467   2.082   7.878
36177SOL     OW10427   4.050   9.043   2.031
36177SOL    HW110428   4.085   9.117   1.981
36177SOL    HW210429   4.128   8.999   2.065
36178SOL     OW10430   5.406   6.946  12.935
36178SOL    HW110431   5.486   6.917  12.891
36178SOL    HW210432   5.354   6.867  12.944
36179SOL     OW10433   8.399   1.038  13.740
36179SOL    HW110434   8.483   1.029  13.785
36179SOL    HW210435   8.422   1.074  13.654
36180SOL     OW10436  11.152   8.847   7.754
36180SOL    HW110437  11.112   8.822   7.671
36180SOL    HW210438  11.096   8.808   7.821
36181SOL     OW10439   7.089   9.491   1.339
36181SOL    HW110440   7.056   9.579   1.321
36181SOL    HW210441   7.183   9.503   1.355
36182SOL     OW10442  11.836   2.938   9.667
36182SOL    HW110443  11.837   2.926   9.762
36182SOL    HW210444  11.902   2.877   9.634
36183SOL     OW10445   4.599   9.953  12.844
36183SOL    HW110446   4.584   9.864  12.875
36183SOL    HW210447   4.627  10.001  12.922
36184SOL     OW10448   0.428   6.679   8.698
36184SOL    HW110449   0.338   6.660   8.725
36184SOL    HW210450   0.472   6.594   8.700
36185SOL     OW10451   9.458   4.230  13.940
36185SOL    HW110452   9.451   4.186  14.025
36185SOL    HW210453   9.530   4.185  13.896
36186SOL     OW10454   9.907  12.013   3.988
36186SOL    HW110455   9.883  11.934   4.037
36186SOL    HW210456  10.001  12.004   3.971
36187SOL     OW10457  14.127  14.712   9.469
36187SOL    HW110458  14.211  14.750   9.492
36187SOL    HW210459  14.096  14.671   9.549
36188SOL     OW10460   5.659  10.605   5.045
36188SOL    HW110461   5.663  10.660   5.123
36188SOL    HW210462   5.585  10.546   5.061
36189SOL     OW10463   8.810  10.144  13.064
36189SOL    HW110464   8.787  10.154  12.972
36189SOL    HW210465   8.761  10.067  13.093
36190SOL     OW10466   6.518   1.251   2.141
36190SOL    HW110467   6.471   1.218   2.064
36190SOL    HW210468   6.478   1.207   2.215
36191SOL     OW10469   4.721  12.709  14.667
36191SOL    HW110470   4.704  12.708  14.761
36191SOL    HW210471   4.635  12.722  14.627
36192SOL     OW10472   6.250   5.538  10.904
36192SOL    HW110473   6.290   5.605  10.959
36192SOL    HW210474   6.209   5.477  10.966
36193SOL     OW10475   9.230   9.063   9.444
36193SOL    HW110476   9.226   9.061   9.348
36193SOL    HW210477   9.218   9.155   9.466
36194SOL     OW10478   4.836   6.792   0.304
36194SOL    HW110479   4.918   6.782   0.351
36194SOL    HW210480   4.780   6.842   0.362
36195SOL     OW10481   8.330   3.225  14.438
36195SOL    HW110482   8.351   3.195  14.527
36195SOL    HW210483   8.244   3.266  14.446
36196SOL     OW10484   7.864   2.950   7.518
36196SOL    HW110485   7.937   2.929   7.459
36196SOL    HW210486   7.882   2.900   7.597
36197SOL     OW10487   4.396  12.336   3.371
36197SOL    HW110488   4.308  12.348   3.409
36197SOL    HW210489   4.446  12.412   3.403
36198SOL     OW10490   2.949   7.296  13.913
36198SOL    HW110491   2.988   7.382  13.930
36198SOL    HW210492   2.963   7.247  13.994
36199SOL     OW10493  13.534  13.427   9.867
36199SOL    HW110494  13.471  13.477   9.920
36199SOL    HW210495  13.575  13.493   9.811
36200SOL     OW10496   8.594  13.395   2.845
36200SOL    HW110497   8.569  13.306   2.871
36200SOL    HW210498   8.690  13.394   2.845
36201SOL     OW10499   9.400  10.346   0.237
36201SOL    HW110500   9.327  10.287   0.218
36201SOL    HW210501   9.446  10.355   0.154
36202SOL     OW10502  14.750   4.709  10.147
36202SOL    HW110503  14.813   4.779  10.128
36202SOL    HW210504  14.665   4.746  10.123
36203SOL     OW10505   3.699   9.729   8.984
36203SOL    HW110506   3.621   9.722   8.929
36203SOL    HW210507   3.720   9.639   9.007
36204SOL     OW10508   1.454   0.917   7.637
36204SOL    HW110509   1.536   0.875   7.663
36204SOL    HW210510   1.472   0.955   7.551
36205SOL     OW10511  10.696  14.675  11.152
36205SOL    HW110512  10.646  14.677  11.070
36205SOL    HW210513  10.724  14.766  11.165
36206SOL     OW10514   4.027  12.852   6.882
36206SOL    HW110515   3.945  12.830   6.925
36206SOL    HW210516   4.085  12.778   6.901
36207SOL     OW10517   8.945   9.471  10.090
36207SOL    HW110518   8.908   9.460  10.178
36207SOL    HW210519   9.007   9.398  10.081
36208SOL     OW10520   9.662   1.840   6.062
36208SOL    HW110521   9.693   1.828   5.972
36208SOL    HW210522   9.742   1.850   6.114
36209SOL     OW10523   7.789   3.407   1.742
36209SOL    HW110524   7.859   3.471   1.754
36209SOL    HW210525   7.818   3.330   1.792
36210SOL     OW10526   3.030   0.694  13.069
36210SOL    HW110527   3.117   0.670  13.100
36210SOL    HW210528   2.981   0.713  13.149
36211SOL     OW10529   0.956   1.532   3.801
36211SOL    HW110530   0.926   1.535   3.710
36211SOL    HW210531   1.051   1.544   3.795
36212SOL     OW10532   5.727   2.895   0.482
36212SOL    HW110533   5.635   2.908   0.459
36212SOL    HW210534   5.735   2.800   0.494
36213SOL     OW10535   5.521   2.097   9.212
36213SOL    HW110536   5.520   2.181   9.166
36213SOL    HW210537   5.452   2.105   9.278
36214SOL     OW10538   3.864  12.843   9.058
36214SOL    HW110539   3.902  12.758   9.036
36214SOL    HW210540   3.864  12.891   8.975
36215SOL     OW10541   2.156   6.298   2.579
36215SOL    HW110542   2.232   6.354   2.569
36215SOL    HW210543   2.129   6.278   2.489
36216SOL     OW10544   6.301   8.027   5.671
36216SOL    HW110545   6.212   7.998   5.651
36216SOL    HW210546   6.344   8.033   5.586
36217SOL     OW10547   7.966   6.663   2.485
36217SOL    HW110548   8.040   6.655   2.546
36217SOL    HW210549   8.006   6.691   2.403
36218SOL     OW10550  10.328  10.757   1.286
36218SOL    HW110551  10.288  10.819   1.225
36218SOL    HW210552  10.420  10.783   1.291
36219SOL     OW10553   4.540  13.494   3.560
36219SOL    HW110554   4.516  13.579   3.522
36219SOL    HW210555   4.457  13.455   3.586
36220SOL     OW10556   0.444   0.063  11.361
36220SOL    HW110557   0.358   0.104  11.364
36220SOL    HW210558   0.463   0.054  11.268
36221SOL     OW10559   1.524   3.554   0.334
36221SOL    HW110560   1.592   3.565   0.400
36221SOL    HW210561   1.484   3.641   0.325
36222SOL     OW10562   7.355   2.907   7.664
36222SOL    HW110563   7.432   2.963   7.665
36222SOL    HW210564   7.322   2.910   7.753
36223SOL     OW10565  14.357   3.440   0.883
36223SOL    HW110566  14.271   3.401   0.899
36223SOL    HW210567  14.339   3.517   0.829
36224SOL     OW10568  14.256   2.541   8.687
36224SOL    HW110569  14.165   2.510   8.687
36224SOL    HW210570  14.307   2.467   8.719
36225SOL     OW10571  14.102  14.175   6.624
36225SOL    HW110572  14.115  14.223   6.542
36225SOL    HW210573  14.063  14.092   6.597
36226SOL     OW10574   3.613   4.572   2.681
36226SOL    HW110575   3.576   4.642   2.734
36226SOL    HW210576   3.596   4.492   2.732
36227SOL     OW10577  11.212   1.571  14.346
36227SOL    HW110578  11.154   1.647  14.352
36227SOL    HW210579  11.271   1.580  14.422
36228SOL     OW10580   4.457   0.669  13.020
36228SOL    HW110581   4.489   0.716  12.943
36228SOL    HW210582   4.520   0.599  13.033
36229SOL     OW10583   5.096   2.926   6.572
36229SOL    HW110584   5.058   2.935   6.484
36229SOL    HW210585   5.085   3.012   6.612
36230SOL     OW10586  14.371   1.706   1.817
36230SOL    HW110587  14.337   1.677   1.733
36230SOL    HW210588  14.297   1.698   1.877
36231SOL     OW10589  12.180  10.536  14.038
36231SOL    HW110590  12.143  10.449  14.051
36231SOL    HW210591  12.186  10.545  13.943
36232SOL     OW10592   0.484  11.329   3.925
36232SOL    HW110593   0.579  11.339   3.922
36232SOL    HW210594   0.461  11.290   3.841
36233SOL     OW10595   4.256   6.910   5.886
36233SOL    HW110596   4.225   6.924   5.796
36233SOL    HW210597   4.320   6.980   5.900
36234SOL     OW10598   3.891   9.153  11.335
36234SOL    HW110599   3.798   9.167  11.315
36234SOL    HW210600   3.921   9.237  11.370
36235SOL     OW10601   7.583   2.059   9.867
36235SOL    HW110602   7.556   2.036   9.956
36235SOL    HW210603   7.508   2.107   9.831
36236SOL     OW10604  14.485   2.193   6.209
36236SOL    HW110605  14.429   2.180   6.132
36236SOL    HW210606  14.444   2.139   6.276
36237SOL     OW10607   2.424  13.275  14.059
36237SOL    HW110608   2.409  13.228  14.141
36237SOL    HW210609   2.336  13.297  14.027
36238SOL     OW10610   6.280   4.293   0.960
36238SOL    HW110611   6.324   4.218   0.921
36238SOL    HW210612   6.325   4.305   1.044
36239SOL     OW10613   1.805  13.330   8.973
36239SOL    HW110614   1.815  13.404   9.033
36239SOL    HW210615   1.723  13.347   8.926
36240SOL     OW10616  10.586   3.437   8.198
36240SOL    HW110617  10.569   3.498   8.269
36240SOL    HW210618  10.664   3.388   8.226
36241SOL     OW10619  13.928  10.697   0.004
36241SOL    HW110620  13.959  10.681  14.783
36241SOL    HW210621  13.936  10.792   0.015
36242SOL     OW10622  14.303  11.449   5.581
36242SOL    HW110623  14.307  11.534   5.625
36242SOL    HW210624  14.253  11.467   5.501
36243SOL     OW10625   0.340   0.220   4.123
36243SOL    HW110626   0.302   0.231   4.210
36243SOL    HW210627   0.421   0.172   4.138
36244SOL     OW10628   0.753  14.345   7.367
36244SOL    HW110629   0.718  14.327   7.280
36244SOL    HW210630   0.675  14.348   7.424
36245SOL     OW10631   6.659   7.016  13.578
36245SOL    HW110632   6.728   6.953  13.599
36245SOL    HW210633   6.601   7.013  13.654
36246SOL     OW10634   0.937   2.388  14.298
36246SOL    HW110635   1.033   2.387  14.289
36246SOL    HW210636   0.908   2.455  14.236
36247SOL     OW10637   4.994   5.672  11.302
36247SOL    HW110638   4.922   5.733  11.286
36247SOL    HW210639   4.980   5.602  11.239
36248SOL     OW10640   8.126  11.144   0.094
36248SOL    HW110641   8.107  11.125   0.002
36248SOL    HW210642   8.182  11.221   0.092
36249SOL     OW10643   4.560  14.203  11.891
36249SOL    HW110644   4.532  14.285  11.931
36249SOL    HW210645   4.636  14.175  11.941
36250SOL     OW10646   9.299   4.256   9.374
36250SOL    HW110647   9.333   4.222   9.292
36250SOL    HW210648   9.277   4.178   9.425
36251SOL     OW10649   8.480  10.054   7.351
36251SOL    HW110650   8.574  10.050   7.336
36251SOL    HW210651   8.442   9.997   7.284
36252SOL     OW10652  14.172  12.264   8.133
36252SOL    HW110653  14.179  12.171   8.114
36252SOL    HW210654  14.262  12.295   8.138
36253SOL     OW10655   1.383   6.955   6.700
36253SOL    HW110656   1.415   6.865   6.699
36253SOL    HW210657   1.289   6.948   6.716
36254SOL     OW10658   0.296   3.034   0.608
36254SOL    HW110659   0.339   3.117   0.589
36254SOL    HW210660   0.288   3.032   0.703
36255SOL     OW10661   1.699  11.846   7.919
36255SOL    HW110662   1.729  11.936   7.935
36255SOL    HW210663   1.689  11.809   8.007
36256SOL     OW10664  12.381   4.879   0.864
36256SOL    HW110665  12.366   4.806   0.803
36256SOL    HW210666  12.407   4.952   0.807
36257SOL     OW10667   9.902  11.713   9.901
36257SOL    HW110668   9.937  11.690   9.815
36257SOL    HW210669   9.910  11.633   9.952
36258SOL     OW10670   3.547   5.361  11.686
36258SOL    HW110671   3.578   5.325  11.769
36258SOL    HW210672   3.453   5.372  11.698
36259SOL     OW10673   7.824   5.712  11.703
36259SOL    HW110674   7.804   5.691  11.611
36259SOL    HW210675   7.872   5.635  11.735
36260SOL     OW10676  10.877   9.258  13.525
36260SOL    HW110677  10.788   9.292  13.533
36260SOL    HW210678  10.869   9.165  13.542
36261SOL     OW10679  10.737   2.016   4.345
36261SOL    HW110680  10.653   1.974   4.364
36261SOL    HW210681  10.784   1.953   4.290
36262SOL     OW10682  13.120   2.695   3.090
36262SOL    HW110683  13.084   2.670   3.174
36262SOL    HW210684  13.045   2.728   3.040
36263SOL     OW10685   8.344  12.170  11.461
36263SOL    HW110686   8.290  12.114  11.405
36263SOL    HW210687   8.292  12.250  11.472
36264SOL     OW10688   5.328  11.988   5.819
36264SOL    HW110689   5.253  12.028   5.863
36264SOL    HW210690   5.401  12.047   5.836
36265SOL     OW10691   5.948   0.624   4.805
36265SOL    HW110692   5.933   0.533   4.778
36265SOL    HW210693   5.884   0.674   4.754
36266SOL     OW10694   5.971  10.910   2.274
36266SOL    HW110695   5.933  10.987   2.232
36266SOL    HW210696   6.064  10.914   2.252
36267SOL     OW10697   0.102   0.636   8.288
36267SOL    HW110698   0.155   0.709   8.257
36267SOL    HW210699   0.025   0.676   8.327
36268SOL     OW10700  12.355   7.564   7.197
36268SOL    HW110701  12.286   7.531   7.255
36268SOL    HW210702  12.414   7.490   7.185
36269SOL     OW10703  12.004  14.782   7.392
36269SOL    HW110704  11.984  14.764   7.484
36269SOL    HW210705  12.068  14.853   7.394
36270SOL     OW10706  13.463   8.768   1.196
36270SOL    HW110707  13.505   8.835   1.249
36270SOL    HW210708  13.386   8.742   1.247
36271SOL     OW10709   8.189   7.683   9.880
36271SOL    HW110710   8.254   7.639   9.826
36271SOL    HW210711   8.240   7.742   9.936
36272SOL     OW10712   8.862   4.460   1.155
36272SOL    HW110713   8.821   4.545   1.171
36272SOL    HW210714   8.791   4.397   1.166
36273SOL     OW10715   6.201   2.117  10.426
36273SOL    HW110716   6.281   2.138  10.377
36273SOL    HW210717   6.205   2.173  10.504
36274SOL     OW10718   5.884  14.056  13.958
36274SOL    HW110719   5.925  13.985  13.908
36274SOL    HW210720   5.880  14.023  14.048
36275SOL     OW10721   3.624   5.724   8.371
36275SOL    HW110722   3.673   5.643   8.356
36275SOL    HW210723   3.575   5.708   8.451
36276SOL     OW10724  11.513  10.343   6.607
36276SOL    HW110725  11.546  10.394   6.533
36276SOL    HW210726  11.444  10.397   6.645
36277SOL     OW10727   3.018  10.984  14.308
36277SOL    HW110728   2.992  11.071  14.337
36277SOL    HW210729   3.114  10.983  14.315
36278SOL     OW10730   8.318   1.269   7.761
36278SOL    HW110731   8.335   1.330   7.833
36278SOL    HW210732   8.384   1.290   7.695
36279SOL     OW10733   9.223  14.327   1.511
36279SOL    HW110734   9.266  14.279   1.581
36279SOL    HW210735   9.138  14.284   1.501
36280SOL     OW10736   7.634   4.474  14.116
36280SOL    HW110737   7.601   4.454  14.028
36280SOL    HW210738   7.714   4.525  14.101
36281SOL     OW10739   0.612   2.601  10.211
36281SOL    HW110740   0.615   2.598  10.307
36281SOL    HW210741   0.535   2.655  10.192
36282SOL     OW10742   5.456   7.793   1.519
36282SOL    HW110743   5.368   7.831   1.515
36282SOL    HW210744   5.463   7.740   1.439
36283SOL     OW10745  13.286   8.600  11.644
36283SOL    HW110746  13.263   8.511  11.673
36283SOL    HW210747  13.296   8.592  11.549
36284SOL     OW10748   1.790   7.853   9.635
36284SOL    HW110749   1.871   7.902   9.644
36284SOL    HW210750   1.722   7.919   9.624
36285SOL     OW10751  14.194  13.090  11.607
36285SOL    HW110752  14.222  13.103  11.697
36285SOL    HW210753  14.201  13.177  11.567
36286SOL     OW10754   5.529   5.320   1.663
36286SOL    HW110755   5.518   5.376   1.586
36286SOL    HW210756   5.527   5.380   1.737
36287SOL     OW10757   3.260   4.659   5.007
36287SOL    HW110758   3.206   4.583   4.983
36287SOL    HW210759   3.316   4.626   5.077
36288SOL     OW10760  14.430   4.945  14.318
36288SOL    HW110761  14.520   4.928  14.292
36288SOL    HW210762  14.393   4.858  14.336
36289SOL     OW10763   6.108   7.573   2.988
36289SOL    HW110764   6.203   7.569   2.998
36289SOL    HW210765   6.083   7.483   2.966
36290SOL     OW10766   3.935  13.000  10.316
36290SOL    HW110767   3.967  12.934  10.255
36290SOL    HW210768   3.992  13.076  10.301
36291SOL     OW10769   1.327   1.953   4.910
36291SOL    HW110770   1.234   1.962   4.889
36291SOL    HW210771   1.353   2.040   4.938
36292SOL     OW10772   3.511   7.466   1.166
36292SOL    HW110773   3.585   7.491   1.221
36292SOL    HW210774   3.542   7.480   1.076
36293SOL     OW10775   6.029   8.655  12.553
36293SOL    HW110776   6.106   8.599  12.544
36293SOL    HW210777   6.031   8.713  12.477
36294SOL     OW10778   9.399   4.678   5.890
36294SOL    HW110779   9.353   4.600   5.919
36294SOL    HW210780   9.330   4.740   5.866
36295SOL     OW10781  14.759   6.053   6.860
36295SOL    HW110782  14.687   6.112   6.878
36295SOL    HW210783  14.789   6.024   6.946
36296SOL     OW10784   8.907  11.964   8.432
36296SOL    HW110785   8.894  11.885   8.380
36296SOL    HW210786   8.930  11.931   8.519
36297SOL     OW10787   9.217  12.055   8.639
36297SOL    HW110788   9.166  11.998   8.582
36297SOL    HW210789   9.152  12.103   8.691
36298SOL     OW10790   9.056  12.746   7.434
36298SOL    HW110791   8.964  12.745   7.406
36298SOL    HW210792   9.068  12.662   7.479
36299SOL     OW10793  12.231   0.377  14.048
36299SOL    HW110794  12.268   0.291  14.027
36299SOL    HW210795  12.226   0.378  14.143
36300SOL     OW10796   4.495   6.965   3.245
36300SOL    HW110797   4.556   7.007   3.185
36300SOL    HW210798   4.549   6.932   3.316
36301SOL     OW10799   1.653   5.576  11.431
36301SOL    HW110800   1.590   5.584  11.503
36301SOL    HW210801   1.719   5.643  11.450
36302SOL     OW10802  12.832   1.236  14.222
36302SOL    HW110803  12.925   1.257  14.215
36302SOL    HW210804  12.802   1.286  14.297
36303SOL     OW10805   0.576   8.952  11.405
36303SOL    HW110806   0.507   8.887  11.389
36303SOL    HW210807   0.630   8.947  11.326
36304SOL     OW10808   7.127  10.152   6.902
36304SOL    HW110809   7.210  10.157   6.949
36304SOL    HW210810   7.086  10.071   6.935
36305SOL     OW10811   7.555   0.421   0.940
36305SOL    HW110812   7.582   0.375   1.020
36305SOL    HW210813   7.508   0.355   0.889
36306SOL     OW10814   4.262   8.862   0.797
36306SOL    HW110815   4.181   8.880   0.751
36306SOL    HW210816   4.268   8.767   0.800
36307SOL     OW10817   7.860  13.072   9.493
36307SOL    HW110818   7.826  13.085   9.404
36307SOL    HW210819   7.951  13.046   9.481
36308SOL     OW10820   1.480   7.449  13.502
36308SOL    HW110821   1.425   7.408  13.568
36308SOL    HW210822   1.569   7.419  13.523
36309SOL     OW10823   2.713   0.802   2.668
36309SOL    HW110824   2.702   0.773   2.578
36309SOL    HW210825   2.784   0.866   2.665
36310SOL     OW10826   8.588   0.071   4.182
36310SOL    HW110827   8.600   0.163   4.158
36310SOL    HW210828   8.655   0.024   4.132
36311SOL     OW10829   5.335  14.349  11.574
36311SOL    HW110830   5.246  14.366  11.544
36311SOL    HW210831   5.328  14.272  11.630
36312SOL     OW10832  10.697   4.275   5.624
36312SOL    HW110833  10.652   4.206   5.673
36312SOL    HW210834  10.639   4.292   5.550
36313SOL     OW10835   6.647   7.818  14.856
36313SOL    HW110836   6.635   7.786  14.767
36313SOL    HW210837   6.566   7.796   0.033
36314SOL     OW10838  13.523  14.338  13.708
36314SOL    HW110839  13.545  14.429  13.728
36314SOL    HW210840  13.441  14.344  13.659
36315SOL     OW10841   7.928  14.811  13.396
36315SOL    HW110842   7.957  14.856  13.476
36315SOL    HW210843   7.991  14.740  13.385
36316SOL     OW10844  12.749   3.782   2.292
36316SOL    HW110845  12.744   3.860   2.347
36316SOL    HW210846  12.689   3.720   2.334
36317SOL     OW10847  11.841   9.239   4.500
36317SOL    HW110848  11.820   9.184   4.424
36317SOL    HW210849  11.894   9.183   4.557
36318SOL     OW10850   9.971   0.120   9.721
36318SOL    HW110851   9.934   0.036   9.749
36318SOL    HW210852  10.057   0.097   9.686
36319SOL     OW10853   2.233   1.076  13.041
36319SOL    HW110854   2.296   1.134  12.998
36319SOL    HW210855   2.167   1.135  13.078
36320SOL     OW10856  13.419   0.601   7.090
36320SOL    HW110857  13.353   0.563   7.148
36320SOL    HW210858  13.396   0.569   7.003
36321SOL     OW10859   2.943   8.375  11.204
36321SOL    HW110860   2.868   8.434  11.216
36321SOL    HW210861   2.923   8.300  11.260
36322SOL     OW10862   6.857  10.888   4.945
36322SOL    HW110863   6.823  10.923   4.863
36322SOL    HW210864   6.878  10.797   4.925
36323SOL     OW10865   2.720  10.323   4.690
36323SOL    HW110866   2.671  10.354   4.614
36323SOL    HW210867   2.811  10.341   4.669
36324SOL     OW10868   7.901   6.887  14.802
36324SOL    HW110869   7.967   6.831  14.844
36324SOL    HW210870   7.875   6.839  14.723
36325SOL     OW10871   4.983  13.033   0.485
36325SOL    HW110872   4.983  12.938   0.491
36325SOL    HW210873   4.967  13.063   0.575
36326SOL     OW10874   1.567   5.643   7.390
36326SOL    HW110875   1.629   5.571   7.403
36326SOL    HW210876   1.585   5.675   7.301
36327SOL     OW10877   9.203  14.836   7.119
36327SOL    HW110878   9.293  14.818   7.147
36327SOL    HW210879   9.196   0.064   7.123
36328SOL     OW10880  12.478   2.318   4.808
36328SOL    HW110881  12.433   2.365   4.879
36328SOL    HW210882  12.571   2.337   4.823
36329SOL     OW10883   4.187   1.037   9.355
36329SOL    HW110884   4.224   1.090   9.284
36329SOL    HW210885   4.116   0.988   9.313
36330SOL     OW10886   5.773   3.690   3.632
36330SOL    HW110887   5.752   3.780   3.609
36330SOL    HW210888   5.866   3.692   3.655
36331SOL     OW10889   8.827   3.515   9.274
36331SOL    HW110890   8.815   3.491   9.366
36331SOL    HW210891   8.793   3.604   9.268
36332SOL     OW10892   1.237   5.850   3.057
36332SOL    HW110893   1.282   5.904   2.992
36332SOL    HW210894   1.229   5.906   3.134
36333SOL     OW10895   3.436   7.647   4.032
36333SOL    HW110896   3.515   7.632   3.980
36333SOL    HW210897   3.364   7.629   3.972
36334SOL     OW10898   6.770   9.646   0.595
36334SOL    HW110899   6.809   9.730   0.570
36334SOL    HW210900   6.727   9.614   0.516
36335SOL     OW10901  14.456   7.760   0.341
36335SOL    HW110902  14.524   7.801   0.287
36335SOL    HW210903  14.398   7.717   0.278
36336SOL     OW10904  13.860  10.567   1.505
36336SOL    HW110905  13.908  10.582   1.587
36336SOL    HW210906  13.897  10.631   1.444
36337SOL     OW10907  12.375   4.407   7.126
36337SOL    HW110908  12.391   4.480   7.185
36337SOL    HW210909  12.383   4.445   7.038
36338SOL     OW10910  13.567   7.440   1.667
36338SOL    HW110911  13.627   7.504   1.705
36338SOL    HW210912  13.494   7.492   1.633
36339SOL     OW10913  14.585   1.720   2.699
36339SOL    HW110914  14.538   1.653   2.749
36339SOL    HW210915  14.678   1.700   2.713
36340SOL     OW10916  12.125   1.075   5.506
36340SOL    HW110917  12.040   1.076   5.551
36340SOL    HW210918  12.165   1.159   5.529
36341SOL     OW10919  13.091   3.204   5.322
36341SOL    HW110920  13.046   3.269   5.267
36341SOL    HW210921  13.030   3.129   5.324
36342SOL     OW10922   8.917  11.067  12.009
36342SOL    HW110923   8.864  11.143  11.984
36342SOL    HW210924   8.932  11.079  12.103
36343SOL     OW10925  12.465   3.514   4.374
36343SOL    HW110926  12.373   3.489   4.363
36343SOL    HW210927  12.501   3.510   4.285
36344SOL     OW10928  13.192   5.344   5.158
36344SOL    HW110929  13.189   5.335   5.253
36344SOL    HW210930  13.142   5.423   5.139
36345SOL     OW10931   7.233  13.948   2.802
36345SOL    HW110932   7.322  13.974   2.828
36345SOL    HW210933   7.176  14.004   2.855
36346SOL     OW10934   8.532  13.033   6.484
36346SOL    HW110935   8.539  12.938   6.477
36346SOL    HW210936   8.482  13.059   6.406
36347SOL     OW10937   7.029   2.481  13.362
36347SOL    HW110938   6.997   2.473  13.451
36347SOL    HW210939   7.035   2.575  13.347
36348SOL     OW10940   6.565   7.403  11.121
36348SOL    HW110941   6.606   7.353  11.050
36348SOL    HW210942   6.535   7.483  11.079
36349SOL     OW10943   7.566  12.791   8.561
36349SOL    HW110944   7.544  12.829   8.476
36349SOL    HW210945   7.629  12.723   8.541
36350SOL     OW10946   2.048  13.538   5.136
36350SOL    HW110947   2.034  13.483   5.213
36350SOL    HW210948   1.971  13.522   5.081
36351SOL     OW10949   0.765   0.663   4.766
36351SOL    HW110950   0.758   0.712   4.848
36351SOL    HW210951   0.851   0.685   4.733
36352SOL     OW10952   1.943  11.906   6.193
36352SOL    HW110953   1.901  11.982   6.233
36352SOL    HW210954   1.989  11.942   6.117
36353SOL     OW10955   3.018   7.241  14.181
36353SOL    HW110956   2.991   7.314  14.237
36353SOL    HW210957   3.114   7.240  14.188
36354SOL     OW10958   2.249   8.147   2.781
36354SOL    HW110959   2.286   8.203   2.849
36354SOL    HW210960   2.158   8.176   2.773
36355SOL     OW10961   8.547  10.107   7.004
36355SOL    HW110962   8.587  10.020   6.997
36355SOL    HW210963   8.467  10.101   6.952
36356SOL     OW10964  14.721   8.068   9.767
36356SOL    HW110965  14.775   8.041   9.693
36356SOL    HW210966  14.713   8.163   9.757
36357SOL     OW10967  11.579   7.957   9.368
36357SOL    HW110968  11.525   8.001   9.434
36357SOL    HW210969  11.596   8.024   9.302
36358SOL     OW10970  13.983  11.216  10.523
36358SOL    HW110971  13.994  11.173  10.608
36358SOL    HW210972  14.039  11.293  10.528
36359SOL     OW10973   7.079   7.115  14.270
36359SOL    HW110974   6.996   7.082  14.305
36359SOL    HW210975   7.098   7.057  14.196
36360SOL     OW10976   2.548   1.329   7.977
36360SOL    HW110977   2.606   1.405   7.973
36360SOL    HW210978   2.468   1.363   8.018
36361SOL     OW10979   3.298   7.328   1.340
36361SOL    HW110980   3.255   7.243   1.342
36361SOL    HW210981   3.358   7.323   1.266
36362SOL     OW10982   3.238   1.743  10.611
36362SOL    HW110983   3.225   1.673  10.675
36362SOL    HW210984   3.205   1.707  10.529
36363SOL     OW10985   1.334   3.799   4.402
36363SOL    HW110986   1.241   3.814   4.382
36363SOL    HW210987   1.340   3.704   4.417
36364SOL     OW10988   6.040   4.202   1.804
36364SOL    HW110989   6.028   4.292   1.773
36364SOL    HW210990   6.018   4.206   1.897
36365SOL     OW10991   5.547  13.325   5.795
36365SOL    HW110992   5.521  13.396   5.853
36365SOL    HW210993   5.560  13.366   5.709
36366SOL     OW10994   1.432   5.398   9.788
36366SOL    HW110995   1.392   5.316   9.815
36366SOL    HW210996   1.448   5.446   9.869
36367SOL     OW10997   8.214   4.484   6.154
36367SOL    HW110998   8.307   4.500   6.135
36367SOL    HW210999   8.175   4.472   6.068
36368SOL     OW11000   0.795   9.790  14.258
36368SOL    HW111001   0.829   9.740  14.332
36368SOL    HW211002   0.868   9.792  14.195
36369SOL     OW11003   7.139   9.505  13.535
36369SOL    HW111004   7.170   9.596  13.538
36369SOL    HW211005   7.205   9.456  13.584
36370SOL     OW11006   0.693  13.627   2.763
36370SOL    HW111007   0.676  13.669   2.678
36370SOL    HW211008   0.698  13.533   2.742
36371SOL     OW11009  13.340   3.036   7.555
36371SOL    HW111010  13.361   3.025   7.462
36371SOL    HW211011  13.397   2.973   7.599
36372SOL     OW11012  11.020   3.483   7.823
36372SOL    HW111013  11.068   3.428   7.761
36372SOL    HW211014  10.945   3.430   7.849
36373SOL     OW11015   2.118   4.778   8.717
36373SOL    HW111016   2.168   4.856   8.692
36373SOL    HW211017   2.049   4.811   8.775
36374SOL     OW11018   9.301  14.681   8.557
36374SOL    HW111019   9.377  14.740   8.557
36374SOL    HW211020   9.338  14.595   8.540
36375SOL     OW11021   6.571  12.336  14.523
36375SOL    HW111022   6.655  12.316  14.565
36375SOL    HW211023   6.594  12.356  14.432
36376SOL     OW11024   0.441  11.186  11.032
36376SOL    HW111025   0.465  11.096  11.056
36376SOL    HW211026   0.372  11.210  11.093
36377SOL     OW11027  12.137   9.071  10.704
36377SOL    HW111028  12.072   9.035  10.764
36377SOL    HW211029  12.087   9.133  10.650
36378SOL     OW11030   3.234   4.465   1.267
36378SOL    HW111031   3.156   4.414   1.244
36378SOL    HW211032   3.302   4.430   1.210
36379SOL     OW11033  10.742   7.109   1.298
36379SOL    HW111034  10.753   7.026   1.250
36379SOL    HW211035  10.822   7.158   1.279
36380SOL     OW11036   0.008  12.063   3.473
36380SOL    HW111037   0.045  12.013   3.545
36380SOL    HW211038   0.083  12.087   3.419
36381SOL     OW11039   4.365   9.898   0.310
36381SOL    HW111040   4.311   9.971   0.278
36381SOL    HW211041   4.329   9.821   0.267
36382SOL     OW11042   9.515  12.012   8.737
36382SOL    HW111043   9.546  11.954   8.668
36382SOL    HW211044   9.420  12.012   8.727
36383SOL     OW11045   2.595   3.458   6.068
36383SOL    HW111046   2.644   3.376   6.061
36383SOL    HW211047   2.538   3.446   6.144
36384SOL     OW11048   1.720  11.123   0.369
36384SOL    HW111049   1.670  11.051   0.330
36384SOL    HW211050   1.682  11.134   0.456
36385SOL     OW11051  12.338   4.014   6.562
36385SOL    HW111052  12.421   3.980   6.529
36385SOL    HW211053  12.357   4.105   6.585
36386SOL     OW11054  14.320   8.981   2.331
36386SOL    HW111055  14.364   9.067   2.332
36386SOL    HW211056  14.334   8.948   2.242
36387SOL     OW11057  10.703  14.630   1.285
36387SOL    HW111058  10.780  14.588   1.323
36387SOL    HW211059  10.628  14.588   1.329
36388SOL     OW11060  13.918   4.922  11.514
36388SOL    HW111061  13.922   4.849  11.452
36388SOL    HW211062  13.840   4.905  11.566
36389SOL     OW11063   2.991   6.133   4.496
36389SOL    HW111064   2.987   6.062   4.559
36389SOL    HW211065   2.909   6.181   4.509
36390SOL     OW11066   1.164  13.424  14.133
36390SOL    HW111067   1.235  13.483  14.107
36390SOL    HW211068   1.189  13.340  14.095
36391SOL     OW11069  13.117   1.550  14.695
36391SOL    HW111070  13.174   1.627  14.693
36391SOL    HW211071  13.029   1.585  14.680
36392SOL     OW11072  10.664  11.798   6.619
36392SOL    HW111073  10.753  11.800   6.653
36392SOL    HW211074  10.674  11.765   6.529
36393SOL     OW11075   2.530   7.992  10.787
36393SOL    HW111076   2.581   7.916  10.814
36393SOL    HW211077   2.489   8.023  10.868
36394SOL     OW11078  12.370   1.534  14.288
36394SOL    HW111079  12.387   1.449  14.329
36394SOL    HW211080  12.415   1.597  14.343
36395SOL     OW11081   0.031  10.952  10.622
36395SOL    HW111082  14.814  10.933  10.661
36395SOL    HW211083   0.068  10.866  10.602
36396SOL     OW11084  12.006   2.264  10.617
36396SOL    HW111085  11.999   2.355  10.589
36396SOL    HW211086  11.981   2.213  10.539
36397SOL     OW11087   0.225   0.429   9.253
36397SOL    HW111088   0.289   0.491   9.287
36397SOL    HW211089   0.277   0.368   9.200
36398SOL     OW11090   7.387   9.855   4.599
36398SOL    HW111091   7.453   9.809   4.548
36398SOL    HW211092   7.406   9.832   4.689
36399SOL     OW11093  13.735  12.092   9.667
36399SOL    HW111094  13.721  12.112   9.759
36399SOL    HW211095  13.753  11.997   9.665
36400SOL     OW11096   7.379  11.805   1.815
36400SOL    HW111097   7.412  11.859   1.887
36400SOL    HW211098   7.353  11.723   1.857
36401SOL     OW11099   6.542  14.473  10.881
36401SOL    HW111100   6.562  14.454  10.973
36401SOL    HW211101   6.626  14.502  10.844
36402SOL     OW11102  13.980   4.244   5.887
36402SOL    HW111103  13.941   4.232   5.974
36402SOL    HW211104  13.908   4.276   5.833
36403SOL     OW11105   8.914   6.222   7.221
36403SOL    HW111106   8.894   6.146   7.275
36403SOL    HW211107   8.847   6.222   7.153
36404SOL     OW11108   2.906   4.075  13.402
36404SOL    HW111109   2.914   3.988  13.362
36404SOL    HW211110   2.989   4.119  13.380
36405SOL     OW11111   4.367   2.993   7.446
36405SOL    HW111112   4.413   2.998   7.530
36405SOL    HW211113   4.437   3.003   7.381
36406SOL     OW11114   5.189   4.717   3.326
36406SOL    HW111115   5.214   4.653   3.260
36406SOL    HW211116   5.155   4.791   3.275
36407SOL     OW11117  12.246   2.477  13.882
36407SOL    HW111118  12.238   2.507  13.973
36407SOL    HW211119  12.297   2.396  13.888
36408SOL     OW11120   4.695   1.968   0.898
36408SOL    HW111121   4.713   2.043   0.955
36408SOL    HW211122   4.616   1.929   0.934
36409SOL     OW11123   4.158   3.719  13.989
36409SOL    HW111124   4.150   3.624  14.002
36409SOL    HW211125   4.241   3.729  13.942
36410SOL     OW11126   2.409   7.377   9.905
36410SOL    HW111127   2.444   7.435   9.837
36410SOL    HW211128   2.314   7.384   9.896
36411SOL     OW11129   4.073   1.626  12.335
36411SOL    HW111130   3.995   1.623  12.391
36411SOL    HW211131   4.046   1.675  12.258
36412SOL     OW11132  13.614  10.414   1.490
36412SOL    HW111133  13.529  10.457   1.502
36412SOL    HW211134  13.676  10.485   1.477
36413SOL     OW11135  10.857   1.054  12.176
36413SOL    HW111136  10.939   1.082  12.216
36413SOL    HW211137  10.880   0.974  12.128
36414SOL     OW11138  11.488   7.306   5.974
36414SOL    HW111139  11.469   7.216   6.000
36414SOL    HW211140  11.509   7.351   6.056
36415SOL     OW11141  12.958   6.948   4.046
36415SOL    HW111142  12.935   7.036   4.017
36415SOL    HW211143  12.981   6.958   4.139
36416SOL     OW11144   7.142   4.899   8.429
36416SOL    HW111145   7.176   4.976   8.383
36416SOL    HW211146   7.219   4.857   8.467
36417SOL     OW11147   1.688   5.808   0.027
36417SOL    HW111148   1.662   5.777   0.114
36417SOL    HW211149   1.673   5.902   0.029
36418SOL     OW11150   2.035  10.761  14.074
36418SOL    HW111151   2.112  10.716  14.039
36418SOL    HW211152   2.030  10.732  14.165
36419SOL     OW11153   2.766  11.833  11.379
36419SOL    HW111154   2.837  11.889  11.409
36419SOL    HW211155   2.723  11.804  11.460
36420SOL     OW11156   7.822   5.050  10.241
36420SOL    HW111157   7.908   5.010  10.257
36420SOL    HW211158   7.760   4.977  10.247
36421SOL     OW11159   9.063   0.966   0.162
36421SOL    HW111160   8.982   0.923   0.135
36421SOL    HW211161   9.035   1.047   0.204
36422SOL     OW11162  12.121   7.693  14.136
36422SOL    HW111163  12.099   7.637  14.210
36422SOL    HW211164  12.203   7.657  14.102
36423SOL     OW11165  11.978  13.466  13.606
36423SOL    HW111166  11.963  13.559  13.587
36423SOL    HW211167  11.936  13.453  13.692
36424SOL     OW11168  11.312   2.817  13.225
36424SOL    HW111169  11.315   2.762  13.147
36424SOL    HW211170  11.321   2.755  13.298
36425SOL     OW11171   7.980   1.298   6.010
36425SOL    HW111172   7.944   1.231   6.067
36425SOL    HW211173   8.018   1.363   6.070
36426SOL     OW11174   3.759  12.248   3.335
36426SOL    HW111175   3.781  12.162   3.300
36426SOL    HW211176   3.843  12.286   3.361
36427SOL     OW11177  14.209   7.307   3.036
36427SOL    HW111178  14.199   7.215   3.061
36427SOL    HW211179  14.181   7.357   3.113
36428SOL     OW11180   1.104  11.956  10.019
36428SOL    HW111181   1.116  11.890   9.952
36428SOL    HW211182   1.191  11.992  10.034
36429SOL     OW11183   7.094   5.333   1.425
36429SOL    HW111184   7.048   5.273   1.483
36429SOL    HW211185   7.175   5.288   1.402
36430SOL     OW11186   3.499   6.642  12.011
36430SOL    HW111187   3.546   6.659  12.093
36430SOL    HW211188   3.559   6.588  11.959
36431SOL     OW11189   0.309  13.147   2.004
36431SOL    HW111190   0.336  13.228   1.960
36431SOL    HW211191   0.336  13.078   1.944
36432SOL     OW11192   4.712   6.578   0.198
36432SOL    HW111193   4.762   6.656   0.223
36432SOL    HW211194   4.622   6.598   0.225
36433SOL     OW11195  10.409   9.208   1.569
36433SOL    HW111196  10.503   9.224   1.565
36433SOL    HW211197  10.396   9.126   1.520
36434SOL     OW11198   6.392   9.873  10.900
36434SOL    HW111199   6.423   9.783  10.914
36434SOL    HW211200   6.306   9.875  10.940
36435SOL     OW11201  12.014  13.414   8.117
36435SOL    HW111202  12.102  13.453   8.119
36435SOL    HW211203  11.960  13.474   8.169
36436SOL     OW11204  11.789   8.329   6.692
36436SOL    HW111205  11.813   8.418   6.716
36436SOL    HW211206  11.828   8.316   6.605
36437SOL     OW11207  10.099   5.797   7.048
36437SOL    HW111208  10.049   5.724   7.084
36437SOL    HW211209  10.061   5.812   6.961
36438SOL     OW11210  12.847   5.476   8.939
36438SOL    HW111211  12.767   5.522   8.914
36438SOL    HW211212  12.900   5.543   8.983
36439SOL     OW11213  11.515   8.330   0.545
36439SOL    HW111214  11.435   8.321   0.597
36439SOL    HW211215  11.578   8.370   0.605
36440SOL     OW11216  13.563  10.971   5.030
36440SOL    HW111217  13.543  10.920   5.108
36440SOL    HW211218  13.597  11.054   5.063
36441SOL     OW11219   1.084   4.539   0.094
36441SOL    HW111220   1.072   4.629   0.063
36441SOL    HW211221   1.178   4.523   0.085
36442SOL     OW11222   1.287  13.599   2.234
36442SOL    HW111223   1.218  13.665   2.226
36442SOL    HW211224   1.311  13.579   2.144
36443SOL     OW11225  10.609   8.292  14.241
36443SOL    HW111226  10.565   8.275  14.324
36443SOL    HW211227  10.671   8.219  14.231
36444SOL     OW11228  13.283   0.768   8.320
36444SOL    HW111229  13.277   0.863   8.306
36444SOL    HW211230  13.230   0.731   8.250
36445SOL     OW11231  14.692  12.602   4.699
36445SOL    HW111232  14.599  12.624   4.695
36445SOL    HW211233  14.695  12.508   4.684
36446SOL     OW11234  13.569  12.805  12.082
36446SOL    HW111235  13.579  12.867  12.010
36446SOL    HW211236  13.568  12.860  12.161
36447SOL     OW11237  13.909  13.597   6.761
36447SOL    HW111238  13.897  13.563   6.850
36447SOL    HW211239  13.868  13.531   6.705
36448SOL     OW11240   0.596   2.074   6.196
36448SOL    HW111241   0.677   2.042   6.156
36448SOL    HW211242   0.534   2.081   6.124
36449SOL     OW11243   8.886   9.856   4.443
36449SOL    HW111244   8.809   9.798   4.442
36449SOL    HW211245   8.854   9.936   4.485
36450SOL     OW11246   5.189   4.438   0.216
36450SOL    HW111247   5.159   4.410   0.302
36450SOL    HW211248   5.259   4.376   0.193
36451SOL     OW11249  13.805   0.945   6.464
36451SOL    HW111250  13.805   0.975   6.373
36451SOL    HW211251  13.714   0.924   6.482
36452SOL     OW11252  11.343   4.885  14.399
36452SOL    HW111253  11.417   4.839  14.360
36452SOL    HW211254  11.297   4.925  14.325
36453SOL     OW11255  11.866  14.172   1.509
36453SOL    HW111256  11.917  14.098   1.476
36453SOL    HW211257  11.879  14.169   1.604
36454SOL     OW11258  11.380  13.409   8.049
36454SOL    HW111259  11.419  13.478   7.995
36454SOL    HW211260  11.383  13.331   7.993
36455SOL     OW11261   1.359   0.763   3.384
36455SOL    HW111262   1.408   0.777   3.465
36455SOL    HW211263   1.426   0.742   3.319
36456SOL     OW11264  11.885   8.067  13.707
36456SOL    HW111265  11.908   7.980  13.739
36456SOL    HW211266  11.951   8.125  13.744
36457SOL     OW11267   1.622   3.994   3.456
36457SOL    HW111268   1.682   3.936   3.502
36457SOL    HW211269   1.611   3.955   3.369
36458SOL     OW11270   1.017  10.201   6.582
36458SOL    HW111271   1.103  10.176   6.548
36458SOL    HW211272   0.985  10.267   6.520
36459SOL     OW11273   9.939  11.019   7.219
36459SOL    HW111274   9.849  11.037   7.246
36459SOL    HW211275   9.958  10.932   7.254
36460SOL     OW11276   0.157   3.026   1.138
36460SOL    HW111277   0.222   3.089   1.169
36460SOL    HW211278   0.082   3.079   1.113
36461SOL     OW11279   3.127   7.817   8.280
36461SOL    HW111280   3.177   7.771   8.214
36461SOL    HW211281   3.185   7.888   8.309
36462SOL     OW11282  12.955   3.163   9.156
36462SOL    HW111283  13.041   3.205   9.153
36462SOL    HW211284  12.939   3.147   9.249
36463SOL     OW11285  11.853   1.969   6.258
36463SOL    HW111286  11.941   2.004   6.272
36463SOL    HW211287  11.862   1.875   6.269
36464SOL     OW11288   1.745   8.755   1.696
36464SOL    HW111289   1.808   8.721   1.760
36464SOL    HW211290   1.660   8.740   1.737
36465SOL     OW11291   6.048   0.067   8.947
36465SOL    HW111292   6.105   0.104   9.014
36465SOL    HW211293   6.066  14.841   8.949
36466SOL     OW11294   5.525  12.342   6.059
36466SOL    HW111295   5.599  12.378   6.106
36466SOL    HW211296   5.500  12.264   6.108
36467SOL     OW11297  14.509  13.865  11.321
36467SOL    HW111298  14.441  13.838  11.260
36467SOL    HW211299  14.515  13.960  11.310
36468SOL     OW11300  11.620  12.419  13.176
36468SOL    HW111301  11.616  12.509  13.209
36468SOL    HW211302  11.537  12.380  13.202
36469SOL     OW11303   2.642   5.024  12.531
36469SOL    HW111304   2.627   4.988  12.443
36469SOL    HW211305   2.675   5.112  12.515
36470SOL     OW11306   0.449   3.864   0.576
36470SOL    HW111307   0.367   3.865   0.626
36470SOL    HW211308   0.429   3.815   0.497
36471SOL     OW11309   4.913  10.119   0.818
36471SOL    HW111310   4.869  10.132   0.902
36471SOL    HW211311   4.857  10.163   0.754
36472SOL     OW11312  12.680   3.755   5.609
36472SOL    HW111313  12.677   3.826   5.674
36472SOL    HW211314  12.719   3.795   5.531
36473SOL     OW11315  12.209   1.864   7.259
36473SOL    HW111316  12.117   1.856   7.234
36473SOL    HW211317  12.214   1.823   7.345
36474SOL     OW11318   7.451  10.841   8.336
36474SOL    HW111319   7.427  10.862   8.426
36474SOL    HW211320   7.546  10.833   8.337
36475SOL     OW11321   9.971   4.969  14.760
36475SOL    HW111322  10.005   5.036  14.701
36475SOL    HW211323   9.880   4.956  14.731
36476SOL     OW11324   4.039  14.294   8.835
36476SOL    HW111325   3.952  14.261   8.856
36476SOL    HW211326   4.051  14.274   8.742
36477SOL     OW11327   7.493   5.045  11.004
36477SOL    HW111328   7.529   4.957  10.991
36477SOL    HW211329   7.411   5.045  10.955
36478SOL     OW11330   9.991   1.374   9.760
36478SOL    HW111331  10.029   1.461   9.776
36478SOL    HW211332   9.928   1.388   9.689
36479SOL     OW11333   7.917   0.524  11.905
36479SOL    HW111334   7.969   0.604  11.917
36479SOL    HW211335   7.918   0.510  11.810
36480SOL     OW11336   3.095   0.229   0.976
36480SOL    HW111337   3.153   0.227   0.901
36480SOL    HW211338   3.035   0.302   0.958
36481SOL     OW11339   0.106   4.977  12.192
36481SOL    HW111340   0.106   4.961  12.098
36481SOL    HW211341   0.016   5.004  12.212
36482SOL     OW11342   4.913  13.901   8.606
36482SOL    HW111343   4.881  13.810   8.603
36482SOL    HW211344   4.867  13.940   8.680
36483SOL     OW11345   8.914   0.224  12.333
36483SOL    HW111346   8.819   0.222  12.335
36483SOL    HW211347   8.938   0.173  12.255
36484SOL     OW11348   5.038   3.555  11.512
36484SOL    HW111349   4.993   3.497  11.574
36484SOL    HW211350   5.111   3.503  11.479
36485SOL     OW11351   9.892  12.965   2.433
36485SOL    HW111352   9.843  12.891   2.399
36485SOL    HW211353   9.982  12.933   2.439
36486SOL     OW11354   1.866   5.217   6.160
36486SOL    HW111355   1.913   5.268   6.095
36486SOL    HW211356   1.933   5.166   6.205
36487SOL     OW11357  13.493   4.905   7.127
36487SOL    HW111358  13.566   4.963   7.105
36487SOL    HW211359  13.423   4.931   7.066
36488SOL     OW11360   8.210   2.790   9.578
36488SOL    HW111361   8.285   2.833   9.619
36488SOL    HW211362   8.134   2.828   9.622
36489SOL     OW11363  13.556  11.492  13.829
36489SOL    HW111364  13.645  11.508  13.796
36489SOL    HW211365  13.502  11.559  13.786
36490SOL     OW11366  13.155   6.441  13.338
36490SOL    HW111367  13.230   6.471  13.389
36490SOL    HW211368  13.175   6.466  13.248
36491SOL     OW11369  12.550  11.632   4.153
36491SOL    HW111370  12.534  11.726   4.149
36491SOL    HW211371  12.576  11.608   4.063
36492SOL     OW11372   3.506   2.396   7.088
36492SOL    HW111373   3.591   2.420   7.052
36492SOL    HW211374   3.461   2.480   7.101
36493SOL     OW11375  14.818   5.613   6.705
36493SOL    HW111376  14.830   5.659   6.788
36493SOL    HW211377   0.004   5.663   6.643
36494SOL     OW11378   4.896   8.123  12.763
36494SOL    HW111379   4.969   8.164  12.809
36494SOL    HW211380   4.935   8.050  12.715
36495SOL     OW11381   2.508   2.052  10.720
36495SOL    HW111382   2.581   2.103  10.685
36495SOL    HW211383   2.537   2.023  10.806
36496SOL     OW11384   2.703  11.789  12.432
36496SOL    HW111385   2.641  11.767  12.363
36496SOL    HW211386   2.730  11.705  12.469
36497SOL     OW11387   0.324  12.693   3.921
36497SOL    HW111388   0.346  12.709   3.829
36497SOL    HW211389   0.248  12.635   3.918
36498SOL     OW11390   7.752  12.148  11.034
36498SOL    HW111391   7.673  12.198  11.017
36498SOL    HW211392   7.807  12.165  10.957
36499SOL     OW11393  11.327   9.421  13.731
36499SOL    HW111394  11.311   9.504  13.776
36499SOL    HW211395  11.240   9.388  13.708
36500SOL     OW11396   9.439   5.757  11.363
36500SOL    HW111397   9.534   5.769  11.363
36500SOL    HW211398   9.415   5.753  11.456
36501SOL     OW11399  14.516  13.880   4.754
36501SOL    HW111400  14.566  13.806   4.719
36501SOL    HW211401  14.461  13.909   4.681
36502SOL     OW11402  14.041   3.485   8.434
36502SOL    HW111403  14.020   3.445   8.350
36502SOL    HW211404  14.039   3.412   8.496
36503SOL     OW11405   6.903   3.167   2.614
36503SOL    HW111406   6.934   3.222   2.542
36503SOL    HW211407   6.826   3.212   2.648
36504SOL     OW11408   7.597  10.474  14.599
36504SOL    HW111409   7.614  10.461  14.692
36504SOL    HW211410   7.547  10.396  14.572
36505SOL     OW11411  14.369   0.362  12.645
36505SOL    HW111412  14.377   0.274  12.682
36505SOL    HW211413  14.275   0.381  12.647
36506SOL     OW11414   2.291   5.365   6.454
36506SOL    HW111415   2.344   5.347   6.531
36506SOL    HW211416   2.353   5.364   6.381
36507SOL     OW11417   5.965  12.791   3.038
36507SOL    HW111418   5.924  12.754   2.960
36507SOL    HW211419   6.058  12.772   3.028
36508SOL     OW11420  11.962   5.186   9.716
36508SOL    HW111421  12.014   5.112   9.684
36508SOL    HW211422  11.922   5.223   9.638
36509SOL     OW11423   2.826  13.443   2.116
36509SOL    HW111424   2.922  13.436   2.120
36509SOL    HW211425   2.805  13.425   2.024
36510SOL     OW11426   6.411   1.289   3.334
36510SOL    HW111427   6.485   1.233   3.357
36510SOL    HW211428   6.334   1.243   3.367
36511SOL     OW11429   3.361  11.272   3.270
36511SOL    HW111430   3.419  11.202   3.239
36511SOL    HW211431   3.273  11.241   3.250
36512SOL     OW11432  13.149  13.236   9.130
36512SOL    HW111433  13.181  13.327   9.133
36512SOL    HW211434  13.055  13.245   9.113
36513SOL     OW11435  11.133   7.254  10.706
36513SOL    HW111436  11.156   7.336  10.748
36513SOL    HW211437  11.160   7.265  10.615
36514SOL     OW11438   9.585  13.133  12.071
36514SOL    HW111439   9.520  13.145  12.002
36514SOL    HW211440   9.539  13.084  12.139
36515SOL     OW11441   6.991  12.691  11.128
36515SOL    HW111442   7.022  12.763  11.182
36515SOL    HW211443   6.896  12.705  11.122
36516SOL     OW11444  12.044   7.427   9.572
36516SOL    HW111445  12.040   7.388   9.484
36516SOL    HW211446  11.981   7.499   9.569
36517SOL     OW11447  12.545   1.860   4.054
36517SOL    HW111448  12.525   1.952   4.038
36517SOL    HW211449  12.462   1.821   4.080
36518SOL     OW11450   1.614   3.513  13.679
36518SOL    HW111451   1.701   3.553  13.689
36518SOL    HW211452   1.632   3.420  13.668
36519SOL     OW11453   3.052   9.597  13.658
36519SOL    HW111454   3.108   9.675  13.653
36519SOL    HW211455   3.049   9.564  13.568
36520SOL     OW11456   9.756   9.091   4.445
36520SOL    HW111457   9.738   8.998   4.452
36520SOL    HW211458   9.840   9.103   4.490
36521SOL     OW11459   3.281   8.549   1.813
36521SOL    HW111460   3.353   8.595   1.856
36521SOL    HW211461   3.280   8.584   1.724
36522SOL     OW11462   8.213   6.279   5.190
36522SOL    HW111463   8.272   6.355   5.190
36522SOL    HW211464   8.182   6.274   5.099
36523SOL     OW11465  14.135   7.127   0.657
36523SOL    HW111466  14.182   7.100   0.736
36523SOL    HW211467  14.044   7.135   0.685
36524SOL     OW11468   3.396   2.203   4.098
36524SOL    HW111469   3.306   2.180   4.077
36524SOL    HW211470   3.389   2.253   4.180
36525SOL     OW11471  14.069   5.416  12.850
36525SOL    HW111472  14.101   5.504  12.867
36525SOL    HW211473  13.983   5.429  12.809
36526SOL     OW11474  11.453  13.078  14.078
36526SOL    HW111475  11.398  13.052  14.152
36526SOL    HW211476  11.413  13.037  14.002
36527SOL     OW11477  12.142   3.199  13.192
36527SOL    HW111478  12.159   3.255  13.116
36527SOL    HW211479  12.224   3.150  13.206
36528SOL     OW11480  14.742   6.335   5.090
36528SOL    HW111481  14.708   6.301   5.174
36528SOL    HW211482  14.831   6.300   5.085
36529SOL     OW11483   4.575   1.761  12.084
36529SOL    HW111484   4.650   1.763  12.025
36529SOL    HW211485   4.501   1.787  12.029
36530SOL     OW11486   1.426   3.673  10.179
36530SOL    HW111487   1.426   3.763  10.145
36530SOL    HW211488   1.465   3.681  10.267
36531SOL     OW11489   6.818   1.718  11.357
36531SOL    HW111490   6.773   1.716  11.442
36531SOL    HW211491   6.909   1.739  11.378
36532SOL     OW11492  10.123   5.751   0.517
36532SOL    HW111493  10.070   5.677   0.487
36532SOL    HW211494  10.108   5.819   0.452
36533SOL     OW11495   6.626  13.715  12.288
36533SOL    HW111496   6.630  13.694  12.381
36533SOL    HW211497   6.541  13.681  12.259
36534SOL     OW11498   7.977   7.802  13.817
36534SOL    HW111499   7.979   7.729  13.756
36534SOL    HW211500   7.898   7.787  13.870
36535SOL     OW11501   1.951   7.139  10.905
36535SOL    HW111502   2.029   7.087  10.923
36535SOL    HW211503   1.981   7.230  10.911
36536SOL     OW11504  14.727  12.279   0.391
36536SOL    HW111505  14.726  12.184   0.382
36536SOL    HW211506  14.769  12.310   0.311
36537SOL     OW11507   6.891   5.572  13.007
36537SOL    HW111508   6.838   5.651  13.019
36537SOL    HW211509   6.828   5.501  12.999
36538SOL     OW11510   1.927  12.964   3.774
36538SOL    HW111511   2.003  12.914   3.743
36538SOL    HW211512   1.852  12.910   3.748
36539SOL     OW11513   4.574   5.305  14.484
36539SOL    HW111514   4.654   5.349  14.458
36539SOL    HW211515   4.573   5.224  14.432
36540SOL     OW11516   6.423   0.169  13.556
36540SOL    HW111517   6.484   0.116  13.505
36540SOL    HW211518   6.475   0.244  13.587
36541SOL     OW11519   2.320   8.801   8.665
36541SOL    HW111520   2.363   8.717   8.647
36541SOL    HW211521   2.369   8.864   8.612
36542SOL     OW11522   0.066  10.978   8.649
36542SOL    HW111523   0.070  11.062   8.694
36542SOL    HW211524   0.077  10.913   8.718
36543SOL     OW11525   2.759   4.450  14.309
36543SOL    HW111526   2.722   4.513  14.370
36543SOL    HW211527   2.829   4.497  14.264
36544SOL     OW11528  11.656   5.659   3.931
36544SOL    HW111529  11.597   5.624   3.865
36544SOL    HW211530  11.737   5.610   3.919
36545SOL     OW11531   8.841   5.469  10.115
36545SOL    HW111532   8.867   5.544  10.169
36545SOL    HW211533   8.849   5.501  10.025
36546SOL     OW11534  12.677   6.946  12.299
36546SOL    HW111535  12.636   6.859  12.301
36546SOL    HW211536  12.604   7.007  12.303
36547SOL     OW11537   6.732   4.813  12.159
36547SOL    HW111538   6.715   4.741  12.098
36547SOL    HW211539   6.647   4.857  12.168
36548SOL     OW11540  12.716   2.394   1.821
36548SOL    HW111541  12.634   2.431   1.791
36548SOL    HW211542  12.692   2.337   1.894
36549SOL     OW11543  12.177   5.602   3.399
36549SOL    HW111544  12.179   5.610   3.304
36549SOL    HW211545  12.220   5.682   3.430
36550SOL     OW11546  10.064  11.556   8.047
36550SOL    HW111547  10.013  11.555   8.128
36550SOL    HW211548  10.034  11.478   8.000
36551SOL     OW11549   4.970   0.551   0.965
36551SOL    HW111550   5.059   0.520   0.982
36551SOL    HW211551   4.974   0.584   0.875
36552SOL     OW11552   2.454  13.478  11.132
36552SOL    HW111553   2.384  13.462  11.194
36552SOL    HW211554   2.421  13.446  11.049
36553SOL     OW11555   8.595   1.506   3.850
36553SOL    HW111556   8.567   1.541   3.765
36553SOL    HW211557   8.643   1.426   3.828
36554SOL     OW11558   3.750  11.699   6.773
36554SOL    HW111559   3.731  11.609   6.799
36554SOL    HW211560   3.722  11.706   6.682
36555SOL     OW11561   9.961  12.391   4.758
36555SOL    HW111562  10.049  12.407   4.724
36555SOL    HW211563   9.955  12.445   4.836
36556SOL     OW11564   4.721   2.785  14.137
36556SOL    HW111565   4.787   2.819  14.077
36556SOL    HW211566   4.671   2.723  14.085
36557SOL     OW11567   3.222   4.315  10.709
36557SOL    HW111568   3.291   4.353  10.653
36557SOL    HW211569   3.153   4.382  10.709
36558SOL     OW11570   0.137   7.038  12.961
36558SOL    HW111571   0.078   6.965  12.940
36558SOL    HW211572   0.082   7.115  12.962
36559SOL     OW11573   4.790   8.167   9.501
36559SOL    HW111574   4.742   8.159   9.583
36559SOL    HW211575   4.740   8.232   9.451
36560SOL     OW11576   4.449   6.293   8.389
36560SOL    HW111577   4.450   6.262   8.299
36560SOL    HW211578   4.477   6.385   8.383
36561SOL     OW11579   3.130  13.583   3.579
36561SOL    HW111580   3.096  13.588   3.489
36561SOL    HW211581   3.217  13.622   3.573
36562SOL     OW11582   3.132   5.358  11.997
36562SOL    HW111583   3.194   5.423  12.029
36562SOL    HW211584   3.179   5.314  11.925
36563SOL     OW11585   2.245   5.615   5.116
36563SOL    HW111586   2.208   5.528   5.104
36563SOL    HW211587   2.337   5.606   5.090
36564SOL     OW11588  11.292   1.854   4.715
36564SOL    HW111589  11.260   1.793   4.782
36564SOL    HW211590  11.226   1.923   4.711
36565SOL     OW11591  12.204  14.209  11.931
36565SOL    HW111592  12.184  14.293  11.889
36565SOL    HW211593  12.198  14.145  11.860
36566SOL     OW11594   3.842  12.119   7.552
36566SOL    HW111595   3.915  12.146   7.607
36566SOL    HW211596   3.804  12.044   7.597
36567SOL     OW11597  11.960   1.469   7.322
36567SOL    HW111598  11.913   1.428   7.250
36567SOL    HW211599  12.000   1.547   7.283
36568SOL     OW11600  12.452   5.951  12.903
36568SOL    HW111601  12.434   6.006  12.979
36568SOL    HW211602  12.401   5.991  12.832
36569SOL     OW11603  10.653   4.764   1.006
36569SOL    HW111604  10.672   4.802   0.921
36569SOL    HW211605  10.736   4.723   1.033
36570SOL     OW11606   7.113   7.166   2.855
36570SOL    HW111607   7.187   7.107   2.838
36570SOL    HW211608   7.148   7.254   2.842
36571SOL     OW11609  10.040  11.908   5.093
36571SOL    HW111610  10.099  11.966   5.140
36571SOL    HW211611   9.991  11.966   5.035
36572SOL     OW11612   0.769   6.655   9.246
36572SOL    HW111613   0.788   6.606   9.326
36572SOL    HW211614   0.761   6.588   9.178
36573SOL     OW11615   3.841   6.094  13.096
36573SOL    HW111616   3.919   6.144  13.122
36573SOL    HW211617   3.774   6.161  13.081
36574SOL     OW11618   1.438   0.210   6.278
36574SOL    HW111619   1.414   0.243   6.192
36574SOL    HW211620   1.485   0.282   6.320
36575SOL     OW11621   1.905   2.285   7.153
36575SOL    HW111622   1.811   2.273   7.141
36575SOL    HW211623   1.912   2.357   7.216
36576SOL     OW11624  11.107   2.982   1.793
36576SOL    HW111625  11.044   2.910   1.786
36576SOL    HW211626  11.054   3.061   1.781
36577SOL     OW11627   8.846   6.269   0.109
36577SOL    HW111628   8.771   6.213   0.128
36577SOL    HW211629   8.851   6.270   0.013
36578SOL     OW11630  14.326   4.525   8.644
36578SOL    HW111631  14.353   4.585   8.574
36578SOL    HW211632  14.366   4.561   8.723
36579SOL     OW11633   2.541   9.903   4.980
36579SOL    HW111634   2.622   9.861   4.954
36579SOL    HW211635   2.568   9.989   5.013
36580SOL     OW11636  10.320   8.469   1.457
36580SOL    HW111637  10.364   8.384   1.458
36580SOL    HW211638  10.266   8.466   1.378
36581SOL     OW11639  13.523  12.021   0.572
36581SOL    HW111640  13.485  12.108   0.567
36581SOL    HW211641  13.509  11.993   0.663
36582SOL     OW11642   1.256  11.810   4.402
36582SOL    HW111643   1.346  11.840   4.408
36582SOL    HW211644   1.239  11.799   4.308
36583SOL     OW11645   8.120  12.057   5.704
36583SOL    HW111646   8.058  12.026   5.638
36583SOL    HW211647   8.076  12.040   5.788
36584SOL     OW11648  11.158   6.933   3.924
36584SOL    HW111649  11.122   6.850   3.954
36584SOL    HW211650  11.162   6.925   3.829
36585SOL     OW11651   7.194  10.004   8.100
36585SOL    HW111652   7.130   9.978   8.035
36585SOL    HW211653   7.143  10.053   8.165
36586SOL     OW11654   2.365   6.019   7.142
36586SOL    HW111655   2.384   5.948   7.081
36586SOL    HW211656   2.376   5.980   7.229
36587SOL     OW11657  13.625   3.728   4.308
36587SOL    HW111658  13.612   3.795   4.242
36587SOL    HW211659  13.708   3.686   4.285
36588SOL     OW11660  10.549   6.679  13.867
36588SOL    HW111661  10.473   6.620  13.878
36588SOL    HW211662  10.621   6.620  13.843
36589SOL     OW11663   0.087   2.607   2.274
36589SOL    HW111664   0.034   2.680   2.240
36589SOL    HW211665   0.173   2.620   2.234
36590SOL     OW11666   3.445   4.710  10.776
36590SOL    HW111667   3.349   4.713  10.766
36590SOL    HW211668   3.459   4.662  10.857
36591SOL     OW11669  13.959  11.319  12.906
36591SOL    HW111670  13.926  11.246  12.854
36591SOL    HW211671  14.054  11.307  12.907
36592SOL     OW11672   1.257   6.992   5.373
36592SOL    HW111673   1.197   7.030   5.437
36592SOL    HW211674   1.284   7.066   5.318
36593SOL     OW11675  10.212  12.162   5.614
36593SOL    HW111676  10.205  12.138   5.707
36593SOL    HW211677  10.182  12.253   5.611
36594SOL     OW11678   0.547   9.438   0.331
36594SOL    HW111679   0.620   9.495   0.307
36594SOL    HW211680   0.515   9.472   0.414
36595SOL     OW11681   0.754  13.154   8.797
36595SOL    HW111682   0.757  13.155   8.701
36595SOL    HW211683   0.798  13.072   8.821
36596SOL     OW11684  13.775  14.430   1.111
36596SOL    HW111685  13.806  14.456   1.025
36596SOL    HW211686  13.851  14.440   1.168
36597SOL     OW11687  11.757   1.109   5.382
36597SOL    HW111688  11.786   1.029   5.339
36597SOL    HW211689  11.772   1.178   5.317
36598SOL     OW11690  12.607  13.686   7.383
36598SOL    HW111691  12.540  13.623   7.410
36598SOL    HW211692  12.560  13.770   7.379
36599SOL     OW11693   0.721   9.937   9.353
36599SOL    HW111694   0.790   9.894   9.403
36599SOL    HW211695   0.654   9.869   9.343
36600SOL     OW11696   6.725   8.357   3.574
36600SOL    HW111697   6.747   8.305   3.651
36600SOL    HW211698   6.763   8.308   3.501
36601SOL     OW11699  13.406   8.345   8.720
36601SOL    HW111700  13.372   8.346   8.809
36601SOL    HW211701  13.492   8.304   8.727
36602SOL     OW11702   7.159   0.218   4.370
36602SOL    HW111703   7.147   0.143   4.311
36602SOL    HW211704   7.239   0.198   4.418
36603SOL     OW11705   9.545   1.152   8.868
36603SOL    HW111706   9.595   1.117   8.794
36603SOL    HW211707   9.609   1.204   8.917
36604SOL     OW11708   3.232   7.189   2.163
36604SOL    HW111709   3.317   7.172   2.123
36604SOL    HW211710   3.228   7.128   2.237
36605SOL     OW11711   4.606   5.873  14.514
36605SOL    HW111712   4.612   5.942  14.580
36605SOL    HW211713   4.692   5.869  14.474
36606SOL     OW11714  10.222   8.791  13.499
36606SOL    HW111715  10.199   8.818  13.588
36606SOL    HW211716  10.159   8.835  13.443
36607SOL     OW11717   9.003  14.396  13.513
36607SOL    HW111718   9.099  14.391  13.510
36607SOL    HW211719   8.985  14.462  13.579
36608SOL     OW11720   3.068  10.386   3.144
36608SOL    HW111721   2.993  10.377   3.086
36608SOL    HW211722   3.032  10.428   3.222
36609SOL     OW11723   7.012   1.290   5.184
36609SOL    HW111724   7.037   1.325   5.269
36609SOL    HW211725   7.036   1.197   5.189
36610SOL     OW11726   6.364   0.028   9.595
36610SOL    HW111727   6.316   0.078   9.661
36610SOL    HW211728   6.319  14.812   9.591
36611SOL     OW11729  10.684  12.343   7.739
36611SOL    HW111730  10.592  12.370   7.734
36611SOL    HW211731  10.723  12.377   7.658
36612SOL     OW11732  10.357   8.254  10.661
36612SOL    HW111733  10.281   8.248  10.720
36612SOL    HW211734  10.336   8.328  10.604
36613SOL     OW11735  14.583  14.039   2.772
36613SOL    HW111736  14.598  13.955   2.816
36613SOL    HW211737  14.501  14.071   2.808
36614SOL     OW11738  14.166   6.337  11.565
36614SOL    HW111739  14.236   6.286  11.605
36614SOL    HW211740  14.123   6.380  11.638
36615SOL     OW11741  12.019  12.920   5.020
36615SOL    HW111742  12.112  12.914   5.040
36615SOL    HW211743  11.981  12.963   5.096
36616SOL     OW11744   8.174   0.842   2.655
36616SOL    HW111745   8.105   0.861   2.720
36616SOL    HW211746   8.170   0.916   2.595
36617SOL     OW11747  14.344  12.771  14.303
36617SOL    HW111748  14.274  12.836  14.295
36617SOL    HW211749  14.342  12.745  14.396
36618SOL     OW11750  12.710   6.531   1.560
36618SOL    HW111751  12.636   6.551   1.503
36618SOL    HW211752  12.683   6.453   1.609
36619SOL     OW11753   9.458  13.456  13.194
36619SOL    HW111754   9.457  13.360  13.188
36619SOL    HW211755   9.370  13.479  13.222
36620SOL     OW11756   8.468   4.976   3.428
36620SOL    HW111757   8.473   4.916   3.503
36620SOL    HW211758   8.485   5.062   3.466
36621SOL     OW11759  11.412   0.641   7.219
36621SOL    HW111760  11.374   0.575   7.161
36621SOL    HW211761  11.470   0.590   7.277
36622SOL     OW11762  13.718   6.736   9.597
36622SOL    HW111763  13.792   6.786   9.633
36622SOL    HW211764  13.673   6.700   9.673
36623SOL     OW11765   8.800   0.721  11.039
36623SOL    HW111766   8.739   0.785  11.074
36623SOL    HW211767   8.820   0.753  10.951
36624SOL     OW11768  10.533   8.625  11.132
36624SOL    HW111769  10.566   8.612  11.221
36624SOL    HW211770  10.510   8.718  11.129
36625SOL     OW11771   2.877   3.235  13.185
36625SOL    HW111772   2.816   3.179  13.232
36625SOL    HW211773   2.851   3.324  13.208
36626SOL     OW11774   9.876   7.369  14.838
36626SOL    HW111775   9.856   7.460  14.858
36626SOL    HW211776   9.809   7.318   0.015
36627SOL     OW11777   0.431   7.309  12.085
36627SOL    HW111778   0.412   7.308  11.991
36627SOL    HW211779   0.512   7.361  12.092
36628SOL     OW11780   5.869   5.215  11.509
36628SOL    HW111781   5.958   5.248  11.523
36628SOL    HW211782   5.818   5.292  11.484
36629SOL     OW11783   0.423   8.518   1.693
36629SOL    HW111784   0.383   8.572   1.761
36629SOL    HW211785   0.388   8.552   1.611
36630SOL     OW11786   3.806   2.903   3.429
36630SOL    HW111787   3.798   2.843   3.356
36630SOL    HW211788   3.862   2.857   3.492
36631SOL     OW11789   8.248  12.262   6.193
36631SOL    HW111790   8.226  12.277   6.101
36631SOL    HW211791   8.165  12.269   6.240
36632SOL     OW11792  10.993  10.249   5.599
36632SOL    HW111793  10.993  10.331   5.648
36632SOL    HW211794  10.984  10.181   5.666
36633SOL     OW11795  14.631  13.658   4.617
36633SOL    HW111796  14.715  13.673   4.573
36633SOL    HW211797  14.611  13.566   4.599
36634SOL     OW11798  12.092   2.162   3.073
36634SOL    HW111799  12.064   2.151   2.982
36634SOL    HW211800  12.043   2.095   3.121
36635SOL     OW11801   2.602  12.100   0.089
36635SOL    HW111802   2.627  12.193   0.083
36635SOL    HW211803   2.665  12.055   0.032
36636SOL     OW11804   8.898   5.833   7.809
36636SOL    HW111805   8.850   5.806   7.887
36636SOL    HW211806   8.896   5.757   7.751
36637SOL     OW11807  11.123   3.555  11.525
36637SOL    HW111808  11.077   3.537  11.607
36637SOL    HW211809  11.059   3.536  11.456
36638SOL     OW11810   5.235   9.606  12.203
36638SOL    HW111811   5.309   9.545  12.198
36638SOL    HW211812   5.240   9.656  12.122
36639SOL     OW11813   7.936  14.533   3.537
36639SOL    HW111814   7.923  14.463   3.601
36639SOL    HW211815   8.001  14.591   3.578
36640SOL     OW11816   8.702   5.428   8.454
36640SOL    HW111817   8.630   5.419   8.516
36640SOL    HW211818   8.735   5.339   8.443
36641SOL     OW11819   1.242   4.348   6.820
36641SOL    HW111820   1.312   4.323   6.760
36641SOL    HW211821   1.261   4.438   6.845
36642SOL     OW11822   9.437   9.918   7.984
36642SOL    HW111823   9.479   9.936   8.069
36642SOL    HW211824   9.489   9.968   7.921
36643SOL     OW11825   6.098  12.272   8.213
36643SOL    HW111826   6.129  12.197   8.163
36643SOL    HW211827   6.059  12.330   8.147
36644SOL     OW11828   1.686  10.057  14.208
36644SOL    HW111829   1.756  10.055  14.143
36644SOL    HW211830   1.711  10.125  14.269
36645SOL     OW11831   9.072   2.945   8.385
36645SOL    HW111832   9.089   3.033   8.352
36645SOL    HW211833   9.009   2.957   8.455
36646SOL     OW11834   5.574   7.760   8.261
36646SOL    HW111835   5.545   7.751   8.171
36646SOL    HW211836   5.514   7.704   8.311
36647SOL     OW11837  14.142   6.085   3.430
36647SOL    HW111838  14.137   6.022   3.502
36647SOL    HW211839  14.160   6.169   3.473
36648SOL     OW11840   1.304  11.924  14.326
36648SOL    HW111841   1.306  11.863  14.253
36648SOL    HW211842   1.210  11.939  14.342
36649SOL     OW11843   3.057   1.763   6.230
36649SOL    HW111844   3.038   1.822   6.157
36649SOL    HW211845   3.121   1.701   6.195
36650SOL     OW11846  13.296   1.800   0.373
36650SOL    HW111847  13.296   1.725   0.313
36650SOL    HW211848  13.290   1.876   0.316
36651SOL     OW11849  13.447  10.658   3.474
36651SOL    HW111850  13.375  10.646   3.535
36651SOL    HW211851  13.407  10.696   3.396
36652SOL     OW11852   5.226  13.682   5.345
36652SOL    HW111853   5.138  13.650   5.361
36652SOL    HW211854   5.222  13.775   5.366
36653SOL     OW11855   2.628   2.303  11.964
36653SOL    HW111856   2.535   2.320  11.948
36653SOL    HW211857   2.628   2.231  12.027
36654SOL     OW11858   2.125  13.160   0.129
36654SOL    HW111859   2.095  13.075   0.163
36654SOL    HW211860   2.219  13.160   0.146
36655SOL     OW11861   1.320  12.952   9.796
36655SOL    HW111862   1.393  12.912   9.748
36655SOL    HW211863   1.242  12.913   9.756
36656SOL     OW11864  11.707   9.865   4.985
36656SOL    HW111865  11.719   9.869   5.080
36656SOL    HW211866  11.703   9.957   4.958
36657SOL     OW11867   6.631   5.366   2.772
36657SOL    HW111868   6.638   5.271   2.764
36657SOL    HW211869   6.677   5.399   2.695
36658SOL     OW11870   0.844   8.586  10.883
36658SOL    HW111871   0.900   8.652  10.842
36658SOL    HW211872   0.758   8.599  10.844
36659SOL     OW11873   9.021  11.852  11.913
36659SOL    HW111874   9.015  11.816  12.001
36659SOL    HW211875   9.112  11.837  11.887
36660SOL     OW11876  13.714   0.523   1.902
36660SOL    HW111877  13.763   0.472   1.966
36660SOL    HW211878  13.774   0.531   1.827
36661SOL     OW11879  10.965   9.762   0.007
36661SOL    HW111880  10.880   9.741  14.835
36661SOL    HW211881  11.028   9.710  14.826
36662SOL     OW11882   4.132   5.891  14.139
36662SOL    HW111883   4.172   5.916  14.223
36662SOL    HW211884   4.043   5.926  14.144
36663SOL     OW11885  11.411   3.107   7.416
36663SOL    HW111886  11.481   3.065   7.364
36663SOL    HW211887  11.332   3.093   7.364
36664SOL     OW11888  11.075  14.835   4.138
36664SOL    HW111889  11.165  14.828   4.171
36664SOL    HW211890  11.053  14.747   4.109
36665SOL     OW11891  10.463   7.914   7.570
36665SOL    HW111892  10.410   7.992   7.551
36665SOL    HW211893  10.431   7.848   7.509
36666SOL     OW11894  12.578   6.639   9.229
36666SOL    HW111895  12.643   6.607   9.292
36666SOL    HW211896  12.617   6.620   9.143
36667SOL     OW11897   2.124  12.007  12.630
36667SOL    HW111898   2.074  11.945  12.682
36667SOL    HW211899   2.104  12.093  12.668
36668SOL     OW11900   8.096  10.592   4.631
36668SOL    HW111901   8.054  10.546   4.559
36668SOL    HW211902   8.027  10.648   4.668
36669SOL     OW11903   3.445   6.886   8.164
36669SOL    HW111904   3.369   6.917   8.213
36669SOL    HW211905   3.409   6.822   8.102
36670SOL     OW11906   9.357   0.746   4.145
36670SOL    HW111907   9.396   0.683   4.206
36670SOL    HW211908   9.339   0.823   4.199
36671SOL     OW11909   8.539   7.929  11.130
36671SOL    HW111910   8.548   7.838  11.100
36671SOL    HW211911   8.516   7.921  11.223
36672SOL     OW11912   8.761  12.167   6.307
36672SOL    HW111913   8.758  12.149   6.401
36672SOL    HW211914   8.772  12.081   6.267
36673SOL     OW11915   7.369   0.858   9.312
36673SOL    HW111916   7.328   0.939   9.284
36673SOL    HW211917   7.361   0.859   9.408
36674SOL     OW11918   1.589  13.178  12.348
36674SOL    HW111919   1.631  13.146  12.268
36674SOL    HW211920   1.536  13.252  12.319
36675SOL     OW11921   9.833   8.615   6.265
36675SOL    HW111922   9.904   8.609   6.201
36675SOL    HW211923   9.869   8.575   6.344
36676SOL     OW11924  14.211   5.645  13.261
36676SOL    HW111925  14.147   5.575  13.274
36676SOL    HW211926  14.158   5.725  13.258
36677SOL     OW11927   0.542  12.409  13.122
36677SOL    HW111928   0.621  12.431  13.071
36677SOL    HW211929   0.481  12.375  13.057
36678SOL     OW11930   2.654   7.284   6.026
36678SOL    HW111931   2.659   7.273   5.931
36678SOL    HW211932   2.605   7.207   6.057
36679SOL     OW11933   9.371  10.392  12.705
36679SOL    HW111934   9.371  10.350  12.619
36679SOL    HW211935   9.457  10.372  12.742
36680SOL     OW11936   1.553   4.063   3.810
36680SOL    HW111937   1.586   4.095   3.894
36680SOL    HW211938   1.589   4.124   3.746
36681SOL     OW11939   0.634  12.543   2.344
36681SOL    HW111940   0.646  12.459   2.300
36681SOL    HW211941   0.704  12.599   2.309
36682SOL     OW11942   4.365  12.421  12.569
36682SOL    HW111943   4.328  12.510  12.570
36682SOL    HW211944   4.365  12.395  12.661
36683SOL     OW11945   3.185  10.490   8.327
36683SOL    HW111946   3.221  10.558   8.270
36683SOL    HW211947   3.091  10.496   8.315
36684SOL     OW11948   9.674   1.071   8.382
36684SOL    HW111949   9.640   1.161   8.383
36684SOL    HW211950   9.597   1.016   8.397
36685SOL     OW11951  12.025  13.952  10.946
36685SOL    HW111952  11.991  13.934  11.034
36685SOL    HW211953  11.956  14.002  10.904
36686SOL     OW11954  13.342   2.379   6.776
36686SOL    HW111955  13.252   2.378   6.743
36686SOL    HW211956  13.346   2.457   6.831
36687SOL     OW11957  11.562   8.192  12.438
36687SOL    HW111958  11.495   8.233  12.493
36687SOL    HW211959  11.644   8.208  12.483
36688SOL     OW11960   5.106  12.637   9.501
36688SOL    HW111961   5.111  12.582   9.423
36688SOL    HW211962   5.017  12.670   9.503
36689SOL     OW11963  11.292   6.416   9.801
36689SOL    HW111964  11.366   6.457   9.845
36689SOL    HW211965  11.217   6.432   9.858
36690SOL     OW11966  11.916  12.049   2.545
36690SOL    HW111967  11.983  12.116   2.557
36690SOL    HW211968  11.963  11.966   2.553
36691SOL     OW11969  11.698   8.667  10.258
36691SOL    HW111970  11.605   8.659  10.279
36691SOL    HW211971  11.710   8.614  10.179
36692SOL     OW11972   3.931  14.429   7.540
36692SOL    HW111973   3.968  14.347   7.572
36692SOL    HW211974   3.876  14.460   7.612
36693SOL     OW11975   0.256  12.633   6.569
36693SOL    HW111976   0.331  12.580   6.593
36693SOL    HW211977   0.294  12.709   6.524
36694SOL     OW11978  11.212   7.641   5.894
36694SOL    HW111979  11.201   7.583   5.818
36694SOL    HW211980  11.290   7.692   5.873
36695SOL     OW11981   2.498   9.957  13.887
36695SOL    HW111982   2.578  10.003  13.863
36695SOL    HW211983   2.529   9.880  13.935
36696SOL     OW11984   5.115  11.353   6.508
36696SOL    HW111985   5.062  11.413   6.457
36696SOL    HW211986   5.096  11.266   6.471
36697SOL     OW11987   0.460   0.232   7.927
36697SOL    HW111988   0.452   0.292   8.001
36697SOL    HW211989   0.446   0.145   7.964
36698SOL     OW11990   0.562  11.833   2.029
36698SOL    HW111991   0.498  11.766   2.056
36698SOL    HW211992   0.624  11.786   1.974
36699SOL     OW11993   3.293   5.919  11.953
36699SOL    HW111994   3.353   5.992  11.941
36699SOL    HW211995   3.334   5.846  11.907
36700SOL     OW11996   0.070  11.190  14.407
36700SOL    HW111997   0.098  11.122  14.346
36700SOL    HW211998   0.004  11.240  14.359
36701SOL     OW11999   6.555   3.395   9.870
36701SOL    HW112000   6.460   3.404   9.867
36701SOL    HW212001   6.579   3.363   9.783
36702SOL     OW12002  10.334   0.413   1.139
36702SOL    HW112003  10.381   0.445   1.216
36702SOL    HW212004  10.388   0.342   1.105
36703SOL     OW12005   7.228  14.391  12.419
36703SOL    HW112006   7.264  14.352  12.499
36703SOL    HW212007   7.301  14.441  12.383
36704SOL     OW12008   4.990   9.470   2.981
36704SOL    HW112009   5.040   9.552   2.983
36704SOL    HW212010   4.966   9.454   3.072
36705SOL     OW12011   4.479   6.486  12.589
36705SOL    HW112012   4.407   6.463  12.649
36705SOL    HW212013   4.525   6.404  12.574
36706SOL     OW12014   0.320  14.063  10.373
36706SOL    HW112015   0.391  14.102  10.321
36706SOL    HW212016   0.243  14.116  10.353
36707SOL     OW12017   2.876  14.864   5.544
36707SOL    HW112018   2.922  14.841   5.463
36707SOL    HW212019   2.783  14.858   5.521
36708SOL     OW12020  14.030   2.353  12.186
36708SOL    HW112021  14.053   2.323  12.273
36708SOL    HW212022  14.109   2.397  12.154
36709SOL     OW12023   2.393  12.502   5.276
36709SOL    HW112024   2.483  12.497   5.244
36709SOL    HW212025   2.339  12.473   5.202
36710SOL     OW12026  11.404   6.207   8.776
36710SOL    HW112027  11.412   6.259   8.696
36710SOL    HW212028  11.411   6.116   8.746
36711SOL     OW12029   6.759   5.473   3.018
36711SOL    HW112030   6.743   5.390   3.062
36711SOL    HW212031   6.701   5.471   2.942
36712SOL     OW12032  13.036   2.452   2.727
36712SOL    HW112033  13.058   2.374   2.675
36712SOL    HW212034  13.090   2.445   2.805
36713SOL     OW12035   1.722   9.345   6.806
36713SOL    HW112036   1.722   9.416   6.870
36713SOL    HW212037   1.683   9.383   6.727
36714SOL     OW12038   9.491   7.426   8.437
36714SOL    HW112039   9.400   7.455   8.446
36714SOL    HW212040   9.526   7.428   8.526
36715SOL     OW12041   5.852  12.994   5.202
36715SOL    HW112042   5.872  12.996   5.109
36715SOL    HW212043   5.802  13.075   5.218
36716SOL     OW12044  10.967   2.371  10.403
36716SOL    HW112045  10.961   2.385  10.497
36716SOL    HW212046  11.017   2.290  10.394
36717SOL     OW12047  14.274   5.025  13.383
36717SOL    HW112048  14.264   4.947  13.328
36717SOL    HW212049  14.266   4.992  13.473
36718SOL     OW12050   5.896  10.860   4.505
36718SOL    HW112051   5.836  10.911   4.561
36718SOL    HW212052   5.963  10.923   4.479
36719SOL     OW12053   8.745  13.291   9.597
36719SOL    HW112054   8.828  13.339   9.602
36719SOL    HW212055   8.709  13.297   9.685
36720SOL     OW12056   5.992   6.864   4.550
36720SOL    HW112057   6.081   6.851   4.580
36720SOL    HW212058   5.979   6.959   4.550
36721SOL     OW12059   4.754   8.363  13.063
36721SOL    HW112060   4.687   8.369  12.995
36721SOL    HW212061   4.789   8.452  13.070
36722SOL     OW12062  10.663   4.580   5.674
36722SOL    HW112063  10.585   4.634   5.680
36722SOL    HW212064  10.690   4.586   5.583
36723SOL     OW12065   1.218   9.117   4.404
36723SOL    HW112066   1.287   9.179   4.426
36723SOL    HW212067   1.137   9.161   4.429
36724SOL     OW12068   1.430  13.528  11.504
36724SOL    HW112069   1.420  13.617  11.470
36724SOL    HW212070   1.346  13.486  11.485
36725SOL     OW12071   6.094   8.406   8.352
36725SOL    HW112072   6.159   8.350   8.309
36725SOL    HW212073   6.009   8.368   8.327
36726SOL     OW12074   6.824   9.015   2.606
36726SOL    HW112075   6.773   9.091   2.578
36726SOL    HW212076   6.763   8.941   2.596
36727SOL     OW12077  13.760   2.506  12.566
36727SOL    HW112078  13.667   2.490  12.583
36727SOL    HW212079  13.775   2.471  12.478
36728SOL     OW12080   5.862   0.851  13.371
36728SOL    HW112081   5.926   0.800  13.319
36728SOL    HW212082   5.808   0.894  13.305
36729SOL     OW12083   6.888   1.471   1.878
36729SOL    HW112084   6.860   1.559   1.854
36729SOL    HW212085   6.817   1.415   1.847
36730SOL     OW12086   3.944   4.997   4.020
36730SOL    HW112087   3.873   4.986   3.957
36730SOL    HW212088   3.901   4.991   4.106
36731SOL     OW12089   0.003   2.778   8.623
36731SOL    HW112090   0.081   2.784   8.677
36731SOL    HW212091   0.019   2.838   8.550
36732SOL     OW12092   4.453   8.870  11.051
36732SOL    HW112093   4.435   8.821  10.971
36732SOL    HW212094   4.548   8.880  11.052
36733SOL     OW12095  13.323  10.183   9.647
36733SOL    HW112096  13.243  10.196   9.699
36733SOL    HW212097  13.392  10.225   9.698
36734SOL     OW12098   2.458  11.305   5.789
36734SOL    HW112099   2.447  11.272   5.878
36734SOL    HW212100   2.369  11.308   5.754
36735SOL     OW12101   2.118   7.793  13.090
36735SOL    HW112102   2.090   7.816  13.001
36735SOL    HW212103   2.085   7.705  13.103
36736SOL     OW12104   5.254   0.797   9.433
36736SOL    HW112105   5.223   0.725   9.377
36736SOL    HW212106   5.175   0.830   9.476
36737SOL     OW12107   4.712   4.762   8.234
36737SOL    HW112108   4.675   4.849   8.217
36737SOL    HW212109   4.807   4.777   8.237
36738SOL     OW12110  12.366   3.841  12.488
36738SOL    HW112111  12.455   3.811  12.470
36738SOL    HW212112  12.318   3.761  12.510
36739SOL     OW12113   1.294   8.567  13.984
36739SOL    HW112114   1.248   8.636  14.031
36739SOL    HW212115   1.299   8.599  13.894
36740SOL     OW12116  13.315   4.487   2.398
36740SOL    HW112117  13.241   4.502   2.457
36740SOL    HW212118  13.276   4.451   2.319
36741SOL     OW12119   3.596   6.677  13.176
36741SOL    HW112120   3.588   6.699  13.083
36741SOL    HW212121   3.686   6.646  13.185
36742SOL     OW12122   2.362   2.224   5.923
36742SOL    HW112123   2.291   2.166   5.950
36742SOL    HW212124   2.339   2.251   5.835
36743SOL     OW12125  12.527  10.599   7.506
36743SOL    HW112126  12.544  10.677   7.454
36743SOL    HW212127  12.563  10.619   7.593
36744SOL     OW12128  13.124  12.002  14.456
36744SOL    HW112129  13.169  12.084  14.476
36744SOL    HW212130  13.189  11.934  14.474
36745SOL     OW12131   5.108  14.713   7.570
36745SOL    HW112132   5.074  14.632   7.607
36745SOL    HW212133   5.193  14.690   7.534
36746SOL     OW12134  14.642   4.718  13.974
36746SOL    HW112135  14.585   4.782  14.018
36746SOL    HW212136  14.582   4.662  13.925
36747SOL     OW12137   1.944  10.809  10.009
36747SOL    HW112138   1.924  10.857  10.090
36747SOL    HW212139   1.991  10.731  10.039
36748SOL     OW12140   6.680   4.772   7.471
36748SOL    HW112141   6.644   4.743   7.554
36748SOL    HW212142   6.762   4.724   7.461
36749SOL     OW12143   3.152  11.418   0.444
36749SOL    HW112144   3.136  11.482   0.513
36749SOL    HW212145   3.135  11.334   0.486
36750SOL     OW12146   5.337  14.205   7.036
36750SOL    HW112147   5.379  14.127   6.999
36750SOL    HW212148   5.335  14.187   7.130
36751SOL     OW12149   3.133  13.990   7.604
36751SOL    HW112150   3.124  13.978   7.698
36751SOL    HW212151   3.135  14.085   7.592
36752SOL     OW12152   2.747   2.696   5.405
36752SOL    HW112153   2.704   2.670   5.323
36752SOL    HW212154   2.796   2.775   5.382
36753SOL     OW12155  12.719   5.377   6.022
36753SOL    HW112156  12.679   5.449   5.973
36753SOL    HW212157  12.647   5.337   6.070
36754SOL     OW12158  14.544   1.616  13.441
36754SOL    HW112159  14.504   1.591  13.358
36754SOL    HW212160  14.623   1.562  13.447
36755SOL     OW12161  13.806   3.309  12.237
36755SOL    HW112162  13.716   3.283  12.254
36755SOL    HW212163  13.803   3.405  12.238
36756SOL     OW12164  14.289  13.377   5.257
36756SOL    HW112165  14.248  13.444   5.312
36756SOL    HW212166  14.349  13.331   5.316
36757SOL     OW12167   3.407  12.223   5.808
36757SOL    HW112168   3.464  12.253   5.738
36757SOL    HW212169   3.339  12.172   5.764
36758SOL     OW12170   9.884   8.785   9.976
36758SOL    HW112171   9.968   8.769   9.934
36758SOL    HW212172   9.825   8.810   9.905
36759SOL     OW12173   8.668   1.964  12.358
36759SOL    HW112174   8.696   1.979  12.449
36759SOL    HW212175   8.643   2.051  12.327
36760SOL     OW12176   9.733   7.608   2.384
36760SOL    HW112177   9.783   7.542   2.431
36760SOL    HW212178   9.773   7.612   2.297
36761SOL     OW12179   0.131   4.198   6.588
36761SOL    HW112180   0.155   4.177   6.497
36761SOL    HW212181   0.055   4.142   6.606
36762SOL     OW12182   4.119  11.609  13.165
36762SOL    HW112183   4.037  11.572  13.131
36762SOL    HW212184   4.123  11.697  13.128
36763SOL     OW12185  11.967  14.214  13.939
36763SOL    HW112186  12.011  14.229  13.855
36763SOL    HW212187  12.023  14.151  13.984
36764SOL     OW12188   4.785   2.968  13.507
36764SOL    HW112189   4.866   2.917  13.498
36764SOL    HW212190   4.745   2.936  13.588
36765SOL     OW12191   3.664   3.251   5.034
36765SOL    HW112192   3.652   3.216   4.946
36765SOL    HW212193   3.731   3.319   5.024
36766SOL     OW12194  12.771   6.599   0.749
36766SOL    HW112195  12.688   6.555   0.729
36766SOL    HW212196  12.835   6.528   0.752
36767SOL     OW12197   2.557  12.187   8.027
36767SOL    HW112198   2.652  12.179   8.020
36767SOL    HW212199   2.524  12.170   7.939
36768SOL     OW12200   9.929   8.021  10.461
36768SOL    HW112201   9.909   7.961  10.533
36768SOL    HW212202   9.848   8.069  10.445
36769SOL     OW12203  12.968  11.751   1.495
36769SOL    HW112204  12.981  11.738   1.588
36769SOL    HW212205  12.902  11.820   1.489
36770SOL     OW12206  10.193   7.327  13.408
36770SOL    HW112207  10.134   7.304  13.336
36770SOL    HW212208  10.248   7.397  13.373
36771SOL     OW12209  13.657   8.025  12.867
36771SOL    HW112210  13.682   7.935  12.846
36771SOL    HW212211  13.645   8.067  12.782
36772SOL     OW12212   1.232   9.515   4.492
36772SOL    HW112213   1.146   9.541   4.458
36772SOL    HW212214   1.280   9.484   4.416
36773SOL     OW12215   7.394   2.538   3.386
36773SOL    HW112216   7.474   2.538   3.333
36773SOL    HW212217   7.422   2.500   3.470
36774SOL     OW12218   1.234   4.218   2.745
36774SOL    HW112219   1.212   4.145   2.803
36774SOL    HW212220   1.176   4.289   2.772
36775SOL     OW12221   2.777   9.342   8.415
36775SOL    HW112222   2.777   9.425   8.367
36775SOL    HW212223   2.731   9.362   8.496
36776SOL     OW12224   5.313   0.005  13.226
36776SOL    HW112225   5.249   0.075  13.241
36776SOL    HW212226   5.324  14.832  13.312
36777SOL     OW12227   2.381  13.795   8.900
36777SOL    HW112228   2.474  13.773   8.894
36777SOL    HW212229   2.336  13.711   8.910
36778SOL     OW12230   5.825  14.109   8.848
36778SOL    HW112231   5.746  14.060   8.826
36778SOL    HW212232   5.875  14.050   8.904
36779SOL     OW12233   2.866   0.955  14.742
36779SOL    HW112234   2.933   0.896  14.709
36779SOL    HW212235   2.912   1.012  14.803
36780SOL     OW12236   0.552  10.658   0.993
36780SOL    HW112237   0.637  10.682   1.030
36780SOL    HW212238   0.526  10.580   1.041
36781SOL     OW12239   5.005  10.434  11.430
36781SOL    HW112240   5.084  10.463  11.475
36781SOL    HW212241   5.015  10.339  11.421
36782SOL     OW12242   3.875   0.902   4.283
36782SOL    HW112243   3.801   0.914   4.342
36782SOL    HW212244   3.892   0.989   4.248
36783SOL     OW12245  12.403   4.732  10.379
36783SOL    HW112246  12.373   4.815  10.415
36783SOL    HW212247  12.322   4.684  10.361
36784SOL     OW12248  12.152  11.470   8.538
36784SOL    HW112249  12.095  11.423   8.599
36784SOL    HW212250  12.092  11.523   8.485
36785SOL     OW12251   2.521   4.262   3.124
36785SOL    HW112252   2.537   4.168   3.129
36785SOL    HW212253   2.550   4.296   3.208
36786SOL     OW12254  13.294  11.930  10.138
36786SOL    HW112255  13.297  11.978  10.221
36786SOL    HW212256  13.384  11.932  10.106
36787SOL     OW12257  10.818   8.377   6.684
36787SOL    HW112258  10.892   8.433   6.706
36787SOL    HW212259  10.766   8.428   6.622
36788SOL     OW12260   2.054  11.588  11.909
36788SOL    HW112261   2.124  11.543  11.955
36788SOL    HW212262   1.976  11.569  11.961
36789SOL     OW12263  11.954  13.242  11.937
36789SOL    HW112264  12.049  13.247  11.924
36789SOL    HW212265  11.927  13.166  11.885
36790SOL     OW12266  14.225   8.493  13.738
36790SOL    HW112267  14.129   8.499  13.731
36790SOL    HW212268  14.247   8.416  13.685
36791SOL     OW12269  11.398   5.781  11.440
36791SOL    HW112270  11.483   5.784  11.483
36791SOL    HW212271  11.401   5.703  11.384
36792SOL     OW12272   2.822  10.626   0.905
36792SOL    HW112273   2.812  10.624   0.809
36792SOL    HW212274   2.809  10.718   0.928
36793SOL     OW12275   7.017   7.395   3.114
36793SOL    HW112276   7.032   7.318   3.168
36793SOL    HW212277   7.035   7.470   3.172
36794SOL     OW12278  11.304   4.994   5.342
36794SOL    HW112279  11.384   5.039   5.317
36794SOL    HW212280  11.282   5.030   5.428
36795SOL     OW12281   4.725  13.950   5.044
36795SOL    HW112282   4.677  13.899   4.979
36795SOL    HW212283   4.683  14.036   5.043
36796SOL     OW12284  10.846  12.188   2.959
36796SOL    HW112285  10.816  12.105   2.921
36796SOL    HW212286  10.855  12.247   2.883
36797SOL     OW12287   1.261   9.106   5.845
36797SOL    HW112288   1.281   9.082   5.754
36797SOL    HW212289   1.343   9.141   5.879
36798SOL     OW12290   0.013   7.164   5.428
36798SOL    HW112291   0.082   7.120   5.378
36798SOL    HW212292  14.854   7.237   5.373
36799SOL     OW12293   2.744   5.815  10.693
36799SOL    HW112294   2.652   5.807  10.721
36799SOL    HW212295   2.739   5.841  10.601
36800SOL     OW12296   1.098   1.906   9.542
36800SOL    HW112297   1.078   1.835   9.604
36800SOL    HW212298   1.023   1.909   9.484
36801SOL     OW12299  13.826   3.308   2.886
36801SOL    HW112300  13.744   3.316   2.934
36801SOL    HW212301  13.891   3.287   2.952
36802SOL     OW12302   5.631   3.784   2.238
36802SOL    HW112303   5.613   3.692   2.261
36802SOL    HW212304   5.629   3.784   2.142
36803SOL     OW12305   6.575   3.116   4.489
36803SOL    HW112306   6.615   3.122   4.402
36803SOL    HW212307   6.494   3.068   4.475
36804SOL     OW12308   2.524   7.521   6.074
36804SOL    HW112309   2.446   7.515   6.018
36804SOL    HW212310   2.566   7.436   6.064
36805SOL     OW12311  12.715  11.823   2.451
36805SOL    HW112312  12.702  11.802   2.543
36805SOL    HW212313  12.641  11.880   2.429
36806SOL     OW12314   1.698  12.812  13.529
36806SOL    HW112315   1.720  12.895  13.572
36806SOL    HW212316   1.775  12.792  13.476
36807SOL     OW12317   2.062   9.871   6.814
36807SOL    HW112318   2.073   9.950   6.763
36807SOL    HW212319   1.974   9.879   6.852
36808SOL     OW12320   4.148  14.521   2.559
36808SOL    HW112321   4.107  14.435   2.544
36808SOL    HW212322   4.238  14.501   2.582
36809SOL     OW12323   7.840   5.524   4.984
36809SOL    HW112324   7.781   5.539   5.057
36809SOL    HW212325   7.807   5.446   4.940
36810SOL     OW12326   6.184   0.198  10.087
36810SOL    HW112327   6.116   0.265  10.096
36810SOL    HW212328   6.238   0.208  10.165
36811SOL     OW12329   4.075   2.406   1.499
36811SOL    HW112330   4.164   2.377   1.520
36811SOL    HW212331   4.086   2.473   1.432
36812SOL     OW12332  10.390   4.933  11.809
36812SOL    HW112333  10.441   4.854  11.791
36812SOL    HW212334  10.403   4.950  11.902
36813SOL     OW12335   7.149   2.958   6.490
36813SOL    HW112336   7.177   3.047   6.510
36813SOL    HW212337   7.229   2.905   6.501
36814SOL     OW12338  13.090   2.455  10.392
36814SOL    HW112339  13.142   2.526  10.430
36814SOL    HW212340  13.024   2.436  10.458
36815SOL     OW12341   3.214   4.582   6.487
36815SOL    HW112342   3.234   4.499   6.530
36815SOL    HW212343   3.296   4.608   6.446
36816SOL     OW12344  12.898   4.117   1.848
36816SOL    HW112345  12.867   4.038   1.803
36816SOL    HW212346  12.921   4.177   1.777
36817SOL     OW12347  13.288  13.827   2.511
36817SOL    HW112348  13.228  13.787   2.574
36817SOL    HW212349  13.348  13.879   2.564
36818SOL     OW12350   3.908   8.600   8.959
36818SOL    HW112351   3.836   8.656   8.931
36818SOL    HW212352   3.894   8.518   8.913
36819SOL     OW12353   5.577   4.922  10.977
36819SOL    HW112354   5.539   4.967  10.902
36819SOL    HW212355   5.579   4.830  10.951
36820SOL     OW12356   4.030  13.045   9.282
36820SOL    HW112357   4.080  12.984   9.228
36820SOL    HW212358   3.999  13.111   9.221
36821SOL     OW12359   8.122   9.279  10.599
36821SOL    HW112360   8.048   9.220  10.582
36821SOL    HW212361   8.122   9.290  10.694
36822SOL     OW12362  10.288  12.140   2.422
36822SOL    HW112363  10.315  12.216   2.474
36822SOL    HW212364  10.200  12.162   2.391
36823SOL     OW12365  11.049   3.750   2.613
36823SOL    HW112366  11.047   3.845   2.602
36823SOL    HW212367  11.105   3.719   2.542
36824SOL     OW12368   8.888   8.704   0.414
36824SOL    HW112369   8.881   8.631   0.475
36824SOL    HW212370   8.969   8.688   0.366
36825SOL     OW12371   8.732   2.596  11.169
36825SOL    HW112372   8.823   2.597  11.200
36825SOL    HW212373   8.694   2.519  11.211
36826SOL     OW12374   9.238  11.348   9.841
36826SOL    HW112375   9.185  11.403   9.899
36826SOL    HW212376   9.219  11.381   9.753
36827SOL     OW12377  11.164  13.977   4.601
36827SOL    HW112378  11.254  14.009   4.592
36827SOL    HW212379  11.120  14.007   4.522
36828SOL     OW12380   1.031  12.829   2.672
36828SOL    HW112381   0.975  12.900   2.640
36828SOL    HW212382   1.077  12.797   2.594
36829SOL     OW12383  10.139   7.660   7.103
36829SOL    HW112384  10.113   7.632   7.191
36829SOL    HW212385  10.139   7.755   7.107
36830SOL     OW12386  10.315  10.490  13.759
36830SOL    HW112387  10.304  10.409  13.710
36830SOL    HW212388  10.404  10.518  13.740
36831SOL     OW12389   3.533   4.543   0.627
36831SOL    HW112390   3.469   4.614   0.636
36831SOL    HW212391   3.488   4.465   0.660
36832SOL     OW12392  10.163   4.493   1.289
36832SOL    HW112393  10.235   4.545   1.322
36832SOL    HW212394  10.132   4.539   1.211
36833SOL     OW12395  12.588   1.139   6.721
36833SOL    HW112396  12.659   1.175   6.775
36833SOL    HW212397  12.620   1.053   6.694
36834SOL     OW12398   1.329  10.473  10.495
36834SOL    HW112399   1.291  10.387  10.479
36834SOL    HW212400   1.254  10.531  10.504
36835SOL     OW12401   4.200  11.815  14.576
36835SOL    HW112402   4.264  11.774  14.634
36835SOL    HW212403   4.248  11.833  14.496
36836SOL     OW12404   8.524  11.756   7.213
36836SOL    HW112405   8.551  11.789   7.298
36836SOL    HW212406   8.560  11.819   7.150
36837SOL     OW12407  13.852   9.667  13.194
36837SOL    HW112408  13.886   9.685  13.282
36837SOL    HW212409  13.925   9.625  13.148
36838SOL     OW12410  11.033  11.063   6.334
36838SOL    HW112411  11.082  11.096   6.410
36838SOL    HW212412  11.039  10.968   6.342
36839SOL     OW12413  12.280   6.701  12.229
36839SOL    HW112414  12.256   6.614  12.263
36839SOL    HW212415  12.261   6.696  12.135
36840SOL     OW12416   8.074   4.100   4.086
36840SOL    HW112417   8.155   4.090   4.136
36840SOL    HW212418   8.039   4.185   4.113
36841SOL     OW12419  11.417   5.848   5.401
36841SOL    HW112420  11.338   5.796   5.384
36841SOL    HW212421  11.386   5.938   5.407
36842SOL     OW12422  10.211   5.393  12.228
36842SOL    HW112423  10.305   5.404  12.214
36842SOL    HW212424  10.180   5.347  12.150
36843SOL     OW12425   1.470   0.714   2.948
36843SOL    HW112426   1.422   0.765   2.884
36843SOL    HW212427   1.552   0.690   2.904
36844SOL     OW12428   4.036  12.263  14.323
36844SOL    HW112429   3.947  12.236  14.346
36844SOL    HW212430   4.089  12.234  14.397
36845SOL     OW12431   8.814   6.547   6.303
36845SOL    HW112432   8.744   6.529   6.240
36845SOL    HW212433   8.892   6.562   6.250
36846SOL     OW12434   4.418  12.986  13.190
36846SOL    HW112435   4.375  12.918  13.241
36846SOL    HW212436   4.387  12.973  13.101
36847SOL     OW12437   0.810   1.690   0.935
36847SOL    HW112438   0.722   1.656   0.920
36847SOL    HW212439   0.803   1.739   1.018
36848SOL     OW12440   8.174   9.615  12.743
36848SOL    HW112441   8.109   9.556  12.781
36848SOL    HW212442   8.239   9.627  12.813
36849SOL     OW12443   3.536   6.851  10.486
36849SOL    HW112444   3.593   6.844  10.562
36849SOL    HW212445   3.573   6.790  10.423
36850SOL     OW12446  10.727   4.574   6.869
36850SOL    HW112447  10.748   4.549   6.959
36850SOL    HW212448  10.633   4.592   6.870
36851SOL     OW12449  14.279  12.970   9.535
36851SOL    HW112450  14.349  12.942   9.595
36851SOL    HW212451  14.325  13.015   9.464
36852SOL     OW12452   2.265  11.288   1.603
36852SOL    HW112453   2.279  11.194   1.612
36852SOL    HW212454   2.215  11.313   1.681
36853SOL     OW12455  11.404   3.722  10.905
36853SOL    HW112456  11.333   3.719  10.969
36853SOL    HW212457  11.374   3.783  10.839
36854SOL     OW12458   1.733  14.440   0.409
36854SOL    HW112459   1.644  14.473   0.425
36854SOL    HW212460   1.789  14.503   0.454
36855SOL     OW12461   7.119   2.794  13.591
36855SOL    HW112462   7.161   2.841  13.663
36855SOL    HW212463   7.170   2.715  13.580
36856SOL     OW12464   5.836   3.982   5.866
36856SOL    HW112465   5.890   3.956   5.790
36856SOL    HW212466   5.779   4.050   5.832
36857SOL     OW12467  14.360   2.741   2.380
36857SOL    HW112468  14.266   2.759   2.389
36857SOL    HW212469  14.376   2.743   2.286
36858SOL     OW12470   1.529   6.887  11.853
36858SOL    HW112471   1.607   6.938  11.831
36858SOL    HW212472   1.551   6.847  11.937
36859SOL     OW12473  14.359   9.584  11.351
36859SOL    HW112474  14.389   9.601  11.262
36859SOL    HW212475  14.296   9.654  11.369
36860SOL     OW12476  14.755   5.544   2.294
36860SOL    HW112477  14.714   5.611   2.239
36860SOL    HW212478  14.704   5.465   2.279
36861SOL     OW12479   3.657   6.508   3.679
36861SOL    HW112480   3.710   6.444   3.631
36861SOL    HW212481   3.656   6.475   3.769
36862SOL     OW12482   0.149  13.169   0.556
36862SOL    HW112483   0.071  13.225   0.564
36862SOL    HW212484   0.164  13.163   0.462
36863SOL     OW12485   8.185   3.677   4.318
36863SOL    HW112486   8.272   3.678   4.359
36863SOL    HW212487   8.184   3.752   4.259
36864SOL     OW12488   7.083  13.219  13.266
36864SOL    HW112489   7.150  13.276  13.228
36864SOL    HW212490   7.133  13.155  13.317
36865SOL     OW12491  12.752   8.590  13.148
36865SOL    HW112492  12.754   8.514  13.206
36865SOL    HW212493  12.814   8.569  13.078
36866SOL     OW12494  13.301  12.063   8.208
36866SOL    HW112495  13.370  12.100   8.154
36866SOL    HW212496  13.224  12.062   8.151
36867SOL     OW12497   0.606  11.804   9.489
36867SOL    HW112498   0.674  11.755   9.442
36867SOL    HW212499   0.528  11.749   9.482
36868SOL     OW12500   9.290  11.106   2.145
36868SOL    HW112501   9.384  11.112   2.157
36868SOL    HW212502   9.265  11.189   2.103
36869SOL     OW12503   7.331   7.824   4.120
36869SOL    HW112504   7.293   7.779   4.195
36869SOL    HW212505   7.364   7.906   4.155
36870SOL     OW12506   9.816   6.041   6.846
36870SOL    HW112507   9.753   6.004   6.784
36870SOL    HW212508   9.762   6.072   6.919
36871SOL     OW12509   3.643   8.759   8.093
36871SOL    HW112510   3.697   8.680   8.104
36871SOL    HW212511   3.655   8.807   8.175
36872SOL     OW12512  10.144   5.830   4.241
36872SOL    HW112513  10.089   5.908   4.245
36872SOL    HW212514  10.210   5.844   4.308
36873SOL     OW12515  10.183   1.497  13.280
36873SOL    HW112516  10.262   1.443  13.278
36873SOL    HW212517  10.217   1.587  13.285
36874SOL     OW12518   1.924   6.987   7.511
36874SOL    HW112519   1.970   6.904   7.522
36874SOL    HW212520   1.889   6.983   7.422
36875SOL     OW12521  10.211  14.501   6.107
36875SOL    HW112522  10.161  14.483   6.187
36875SOL    HW212523  10.239  14.414   6.077
36876SOL     OW12524  12.482  10.807   0.120
36876SOL    HW112525  12.544  10.879   0.131
36876SOL    HW212526  12.502  10.746   0.190
36877SOL     OW12527   7.528   3.960  14.665
36877SOL    HW112528   7.544   3.982  14.573
36877SOL    HW212529   7.442   3.997  14.684
36878SOL     OW12530   4.421  14.542   8.078
36878SOL    HW112531   4.358  14.606   8.113
36878SOL    HW212532   4.506  14.585   8.089
36879SOL     OW12533  12.423   1.913  11.865
36879SOL    HW112534  12.479   1.839  11.845
36879SOL    HW212535  12.385   1.893  11.951
36880SOL     OW12536   6.149  13.007  13.656
36880SOL    HW112537   6.072  13.053  13.624
36880SOL    HW212538   6.177  13.056  13.733
36881SOL     OW12539   7.994   9.540   0.894
36881SOL    HW112540   8.007   9.544   0.799
36881SOL    HW212541   8.078   9.508   0.928
36882SOL     OW12542   6.952   6.245   2.306
36882SOL    HW112543   6.955   6.335   2.274
36882SOL    HW212544   7.044   6.223   2.322
36883SOL     OW12545   7.128  12.198  11.778
36883SOL    HW112546   7.040  12.216  11.810
36883SOL    HW212547   7.177  12.172  11.856
36884SOL     OW12548  14.597  14.278  14.738
36884SOL    HW112549  14.642  14.260  14.820
36884SOL    HW212550  14.521  14.331  14.762
36885SOL     OW12551  12.962   7.922  14.016
36885SOL    HW112552  12.873   7.930  13.981
36885SOL    HW212553  12.990   8.012  14.031
36886SOL     OW12554  14.195   3.748   0.488
36886SOL    HW112555  14.196   3.739   0.392
36886SOL    HW212556  14.203   3.842   0.503
36887SOL     OW12557  11.815   0.591   6.883
36887SOL    HW112558  11.909   0.572   6.876
36887SOL    HW212559  11.807   0.683   6.862
36888SOL     OW12560   4.359   5.513   1.838
36888SOL    HW112561   4.349   5.602   1.804
36888SOL    HW212562   4.282   5.467   1.806
36889SOL     OW12563  11.263   5.573   2.741
36889SOL    HW112564  11.183   5.557   2.792
36889SOL    HW212565  11.310   5.490   2.743
36890SOL     OW12566  12.327   2.956   4.252
36890SOL    HW112567  12.270   3.007   4.194
36890SOL    HW212568  12.368   2.892   4.195
36891SOL     OW12569  14.331   9.930   1.699
36891SOL    HW112570  14.420   9.909   1.728
36891SOL    HW212571  14.331  10.026   1.693
36892SOL     OW12572  11.409   3.103   8.382
36892SOL    HW112573  11.340   3.074   8.323
36892SOL    HW212574  11.405   3.041   8.455
36893SOL     OW12575   7.240   1.825   8.758
36893SOL    HW112576   7.263   1.832   8.851
36893SOL    HW212577   7.314   1.781   8.718
36894SOL     OW12578   7.232   3.514   7.692
36894SOL    HW112579   7.167   3.484   7.628
36894SOL    HW212580   7.293   3.568   7.641
36895SOL     OW12581   0.207   4.769  13.784
36895SOL    HW112582   0.182   4.850  13.739
36895SOL    HW212583   0.129   4.714  13.781
36896SOL     OW12584   5.241  10.446  14.161
36896SOL    HW112585   5.148  10.435  14.184
36896SOL    HW212586   5.288  10.425  14.242
36897SOL     OW12587   6.713  14.735   1.104
36897SOL    HW112588   6.673  14.775   1.181
36897SOL    HW212589   6.794  14.695   1.136
36898SOL     OW12590   3.689  12.892   6.465
36898SOL    HW112591   3.639  12.916   6.387
36898SOL    HW212592   3.661  12.956   6.531
36899SOL     OW12593   7.500   8.425   0.377
36899SOL    HW112594   7.549   8.343   0.378
36899SOL    HW212595   7.561   8.489   0.339
36900SOL     OW12596   2.174  13.233   4.218
36900SOL    HW112597   2.232  13.227   4.142
36900SOL    HW212598   2.202  13.311   4.264
36901SOL     OW12599  14.462  13.014  14.061
36901SOL    HW112600  14.435  13.058  14.142
36901SOL    HW212601  14.387  12.960  14.037
36902SOL     OW12602   8.795   2.487   3.297
36902SOL    HW112603   8.801   2.578   3.323
36902SOL    HW212604   8.869   2.444   3.341
36903SOL     OW12605   7.953  13.412  12.301
36903SOL    HW112606   7.992  13.366  12.376
36903SOL    HW212607   7.965  13.352  12.227
36904SOL     OW12608   7.768  12.331  11.502
36904SOL    HW112609   7.851  12.346  11.547
36904SOL    HW212610   7.791  12.275  11.427
36905SOL     OW12611  14.428   8.563   0.103
36905SOL    HW112612  14.402   8.551   0.194
36905SOL    HW212613  14.510   8.515   0.094
36906SOL     OW12614   2.565  10.524  14.731
36906SOL    HW112615   2.615  10.445  14.748
36906SOL    HW212616   2.481  10.510  14.776
36907SOL     OW12617   4.615  13.887  11.799
36907SOL    HW112618   4.623  13.959  11.736
36907SOL    HW212619   4.539  13.838  11.770
36908SOL     OW12620   8.784   4.062  11.388
36908SOL    HW112621   8.713   4.123  11.369
36908SOL    HW212622   8.848   4.114  11.438
36909SOL     OW12623   7.323  10.051   0.870
36909SOL    HW112624   7.271  10.015   0.799
36909SOL    HW212625   7.284  10.014   0.949
36910SOL     OW12626   6.386  10.304  11.886
36910SOL    HW112627   6.476  10.326  11.863
36910SOL    HW212628   6.334  10.338  11.812
36911SOL     OW12629   0.628   6.045   2.086
36911SOL    HW112630   0.714   6.005   2.081
36911SOL    HW212631   0.616   6.065   2.179
36912SOL     OW12632  12.988   4.917   0.607
36912SOL    HW112633  13.027   4.886   0.525
36912SOL    HW212634  12.975   5.011   0.593
36913SOL     OW12635   3.536   7.455  12.578
36913SOL    HW112636   3.599   7.411  12.636
36913SOL    HW212637   3.538   7.404  12.497
36914SOL     OW12638  11.372   3.541   5.107
36914SOL    HW112639  11.452   3.585   5.136
36914SOL    HW212640  11.311   3.612   5.087
36915SOL     OW12641   4.066  10.559   1.188
36915SOL    HW112642   4.139  10.517   1.235
36915SOL    HW212643   3.991  10.501   1.204
36916SOL     OW12644  11.324   2.697  11.309
36916SOL    HW112645  11.266   2.757  11.262
36916SOL    HW212646  11.276   2.675  11.389
36917SOL     OW12647   1.963   9.410   1.505
36917SOL    HW112648   2.037   9.461   1.472
36917SOL    HW212649   1.997   9.320   1.511
36918SOL     OW12650   1.438  12.391   0.972
36918SOL    HW112651   1.355  12.346   0.990
36918SOL    HW212652   1.417  12.484   0.978
36919SOL     OW12653   3.065  12.750  12.466
36919SOL    HW112654   3.150  12.735  12.425
36919SOL    HW212655   3.005  12.762  12.392
36920SOL     OW12656  10.779   1.692   3.620
36920SOL    HW112657  10.775   1.664   3.712
36920SOL    HW212658  10.688   1.698   3.593
36921SOL     OW12659   9.203   1.590   8.479
36921SOL    HW112660   9.210   1.504   8.436
36921SOL    HW212661   9.137   1.637   8.428
36922SOL     OW12662  14.479   8.126   5.165
36922SOL    HW112663  14.460   8.134   5.072
36922SOL    HW212664  14.492   8.032   5.179
36923SOL     OW12665  11.701   5.338   6.678
36923SOL    HW112666  11.621   5.391   6.682
36923SOL    HW212667  11.675   5.253   6.715
36924SOL     OW12668   6.979   5.279   7.445
36924SOL    HW112669   6.958   5.273   7.352
36924SOL    HW212670   7.036   5.356   7.452
36925SOL     OW12671   3.957   6.654   3.930
36925SOL    HW112672   3.899   6.718   3.971
36925SOL    HW212673   3.925   6.646   3.840
36926SOL     OW12674   3.303  14.053   5.546
36926SOL    HW112675   3.291  14.116   5.474
36926SOL    HW212676   3.224  14.061   5.598
36927SOL     OW12677   3.107  10.896   8.033
36927SOL    HW112678   3.032  10.956   8.038
36927SOL    HW212679   3.161  10.918   8.109
36928SOL     OW12680   7.743  10.807   8.392
36928SOL    HW112681   7.820  10.832   8.341
36928SOL    HW212682   7.737  10.712   8.382
36929SOL     OW12683  12.327  13.271   5.689
36929SOL    HW112684  12.358  13.341   5.632
36929SOL    HW212685  12.390  13.267   5.760
36930SOL     OW12686  13.049   1.085   6.037
36930SOL    HW112687  12.996   1.005   6.044
36930SOL    HW212688  13.050   1.104   5.943
36931SOL     OW12689   3.705  14.093   5.496
36931SOL    HW112690   3.629  14.148   5.477
36931SOL    HW212691   3.746  14.078   5.411
36932SOL     OW12692  14.707   9.043   4.974
36932SOL    HW112693  14.702   9.063   5.067
36932SOL    HW212694  14.743   9.122   4.935
36933SOL     OW12695   6.243   7.250   0.307
36933SOL    HW112696   6.249   7.249   0.212
36933SOL    HW212697   6.153   7.223   0.326
36934SOL     OW12698   1.594   8.529   8.531
36934SOL    HW112699   1.678   8.532   8.484
36934SOL    HW212700   1.548   8.607   8.502
36935SOL     OW12701   9.046   8.147   5.295
36935SOL    HW112702   8.979   8.133   5.362
36935SOL    HW212703   9.127   8.159   5.344
36936SOL     OW12704   6.087  11.780   7.507
36936SOL    HW112705   6.065  11.763   7.599
36936SOL    HW212706   6.009  11.755   7.458
36937SOL     OW12707   1.292  12.767  13.983
36937SOL    HW112708   1.293  12.804  14.071
36937SOL    HW212709   1.360  12.700  13.984
36938SOL     OW12710   8.148  14.320   7.699
36938SOL    HW112711   8.124  14.310   7.607
36938SOL    HW212712   8.212  14.252   7.715
36939SOL     OW12713   7.847   7.138   3.925
36939SOL    HW112714   7.922   7.140   3.984
36939SOL    HW212715   7.877   7.087   3.850
36940SOL     OW12716   7.052  10.713   3.006
36940SOL    HW112717   7.020  10.802   3.014
36940SOL    HW212718   7.043  10.692   2.913
36941SOL     OW12719   4.210  12.037   9.785
36941SOL    HW112720   4.145  11.988   9.735
36941SOL    HW212721   4.175  12.043   9.873
36942SOL     OW12722   3.735   4.441   6.494
36942SOL    HW112723   3.788   4.369   6.526
36942SOL    HW212724   3.761   4.453   6.403
36943SOL     OW12725   0.280  12.598   4.562
36943SOL    HW112726   0.239  12.624   4.645
36943SOL    HW212727   0.347  12.535   4.586
36944SOL     OW12728   3.825  12.642   5.548
36944SOL    HW112729   3.867  12.726   5.563
36944SOL    HW212730   3.756  12.637   5.615
36945SOL     OW12731   5.831  12.104  13.501
36945SOL    HW112732   5.799  12.039  13.438
36945SOL    HW212733   5.780  12.183  13.483
36946SOL     OW12734   5.793  10.675   3.670
36946SOL    HW112735   5.711  10.647   3.630
36946SOL    HW212736   5.780  10.663   3.764
36947SOL     OW12737   0.651   2.790  11.467
36947SOL    HW112738   0.683   2.864  11.518
36947SOL    HW212739   0.592   2.743  11.527
36948SOL     OW12740  11.246   9.597  11.962
36948SOL    HW112741  11.208   9.652  11.893
36948SOL    HW212742  11.339   9.620  11.962
36949SOL     OW12743   2.260   3.361   3.703
36949SOL    HW112744   2.188   3.375   3.641
36949SOL    HW212745   2.312   3.441   3.696
36950SOL     OW12746   8.152  13.766   0.275
36950SOL    HW112747   8.244  13.743   0.284
36950SOL    HW212748   8.141  13.841   0.333
36951SOL     OW12749   8.614   6.498   0.980
36951SOL    HW112750   8.680   6.508   1.049
36951SOL    HW212751   8.553   6.433   1.014
36952SOL     OW12752   1.933   8.221   8.697
36952SOL    HW112753   1.928   8.245   8.604
36952SOL    HW212754   1.969   8.298   8.740
36953SOL     OW12755   0.582   7.045   3.249
36953SOL    HW112756   0.612   6.996   3.325
36953SOL    HW212757   0.593   6.984   3.175
36954SOL     OW12758   1.084  11.957   7.157
36954SOL    HW112759   1.012  11.942   7.218
36954SOL    HW212760   1.156  11.989   7.212
36955SOL     OW12761   0.775   5.642  14.477
36955SOL    HW112762   0.832   5.675  14.408
36955SOL    HW212763   0.834   5.621  14.549
36956SOL     OW12764  10.338   5.396   7.267
36956SOL    HW112765  10.254   5.407   7.311
36956SOL    HW212766  10.325   5.322   7.207
36957SOL     OW12767   2.460  12.013   2.801
36957SOL    HW112768   2.444  11.950   2.871
36957SOL    HW212769   2.554  12.008   2.785
36958SOL     OW12770   1.609   6.346   6.919
36958SOL    HW112771   1.628   6.434   6.951
36958SOL    HW212772   1.655   6.288   6.979
36959SOL     OW12773   5.241  11.891   0.713
36959SOL    HW112774   5.192  11.864   0.790
36959SOL    HW212775   5.289  11.969   0.740
36960SOL     OW12776  10.584   1.194   1.685
36960SOL    HW112777  10.517   1.254   1.654
36960SOL    HW212778  10.603   1.138   1.609
36961SOL     OW12779   2.681   4.128   5.765
36961SOL    HW112780   2.608   4.143   5.705
36961SOL    HW212781   2.667   4.040   5.799
36962SOL     OW12782   5.627   3.873   3.307
36962SOL    HW112783   5.593   3.816   3.377
36962SOL    HW212784   5.573   3.952   3.313
36963SOL     OW12785   5.871   5.028   1.743
36963SOL    HW112786   5.854   4.971   1.668
36963SOL    HW212787   5.874   5.116   1.706
36964SOL     OW12788   5.878   5.349   5.146
36964SOL    HW112789   5.814   5.333   5.077
36964SOL    HW212790   5.853   5.435   5.181
36965SOL     OW12791   5.860   0.574   3.033
36965SOL    HW112792   5.875   0.659   3.076
36965SOL    HW212793   5.835   0.515   3.104
36966SOL     OW12794   3.666  14.469   1.373
36966SOL    HW112795   3.587  14.516   1.346
36966SOL    HW212796   3.703  14.522   1.443
36967SOL     OW12797   3.966  11.390   4.735
36967SOL    HW112798   4.056  11.405   4.707
36967SOL    HW212799   3.919  11.370   4.654
36968SOL     OW12800   5.579  14.698  12.253
36968SOL    HW112801   5.579  14.738  12.166
36968SOL    HW212802   5.523  14.755  12.306
36969SOL     OW12803   6.322   2.911  12.393
36969SOL    HW112804   6.392   2.927  12.330
36969SOL    HW212805   6.335   2.977  12.461
36970SOL     OW12806  11.574   5.643   1.187
36970SOL    HW112807  11.609   5.682   1.267
36970SOL    HW212808  11.648   5.643   1.126
36971SOL     OW12809   6.394  14.285   2.019
36971SOL    HW112810   6.369  14.201   2.057
36971SOL    HW212811   6.423  14.263   1.930
36972SOL     OW12812   2.023   3.905   6.222
36972SOL    HW112813   1.987   3.903   6.310
36972SOL    HW212814   1.947   3.908   6.164
36973SOL     OW12815   0.995   1.528   6.025
36973SOL    HW112816   0.900   1.529   6.040
36973SOL    HW212817   1.020   1.436   6.032
36974SOL     OW12818   9.645  10.591   8.188
36974SOL    HW112819   9.636  10.574   8.095
36974SOL    HW212820   9.643  10.505   8.229
36975SOL     OW12821  12.750   5.495   2.073
36975SOL    HW112822  12.760   5.580   2.029
36975SOL    HW212823  12.659   5.496   2.105
36976SOL     OW12824   1.100  13.865  14.574
36976SOL    HW112825   1.090  13.960  14.575
36976SOL    HW212826   1.020  13.832  14.616
36977SOL     OW12827   2.424   3.940  12.209
36977SOL    HW112828   2.396   3.932  12.300
36977SOL    HW212829   2.492   4.007  12.210
36978SOL     OW12830  14.537   2.128  11.244
36978SOL    HW112831  14.544   2.120  11.149
36978SOL    HW212832  14.554   2.221  11.261
36979SOL     OW12833   2.350  12.790   3.195
36979SOL    HW112834   2.284  12.729   3.226
36979SOL    HW212835   2.301  12.866   3.165
36980SOL     OW12836   1.567  14.420   9.711
36980SOL    HW112837   1.652  14.453   9.682
36980SOL    HW212838   1.556  14.456   9.799
36981SOL     OW12839   4.034   8.330   0.810
36981SOL    HW112840   4.035   8.287   0.896
36981SOL    HW212841   4.121   8.368   0.801
36982SOL     OW12842   7.152   1.371   6.222
36982SOL    HW112843   7.184   1.284   6.196
36982SOL    HW212844   7.103   1.354   6.303
36983SOL     OW12845  11.619   9.040   5.700
36983SOL    HW112846  11.585   9.015   5.786
36983SOL    HW212847  11.692   8.980   5.684
36984SOL     OW12848   8.539  13.965   0.474
36984SOL    HW112849   8.548  14.060   0.468
36984SOL    HW212850   8.527  13.937   0.383
36985SOL     OW12851  12.282   5.801   6.403
36985SOL    HW112852  12.284   5.884   6.450
36985SOL    HW212853  12.191   5.792   6.375
36986SOL     OW12854  10.561   2.468   9.078
36986SOL    HW112855  10.560   2.410   9.002
36986SOL    HW212856  10.519   2.417   9.148
36987SOL     OW12857  12.346  11.128  12.760
36987SOL    HW112858  12.333  11.111  12.853
36987SOL    HW212859  12.260  11.115  12.721
36988SOL     OW12860   9.773   2.033   9.260
36988SOL    HW112861   9.739   1.991   9.340
36988SOL    HW212862   9.748   1.974   9.189
36989SOL     OW12863   0.889  12.444   6.333
36989SOL    HW112864   0.839  12.364   6.316
36989SOL    HW212865   0.936  12.461   6.252
36990SOL     OW12866   6.029   4.039  12.841
36990SOL    HW112867   5.976   4.033  12.762
36990SOL    HW212868   6.113   4.000  12.816
36991SOL     OW12869   0.860   4.293   4.749
36991SOL    HW112870   0.892   4.361   4.690
36991SOL    HW212871   0.894   4.318   4.835
36992SOL     OW12872   8.185   5.025   0.146
36992SOL    HW112873   8.220   5.098   0.196
36992SOL    HW212874   8.211   4.947   0.196
36993SOL     OW12875   8.135   4.975   1.538
36993SOL    HW112876   8.148   5.051   1.481
36993SOL    HW212877   8.196   4.988   1.610
36994SOL     OW12878  13.589  10.919  13.687
36994SOL    HW112879  13.636  10.942  13.767
36994SOL    HW212880  13.554  11.002  13.656
36995SOL     OW12881   8.733   9.124   5.847
36995SOL    HW112882   8.792   9.148   5.920
36995SOL    HW212883   8.773   9.047   5.809
36996SOL     OW12884   3.362   2.627   7.078
36996SOL    HW112885   3.380   2.720   7.088
36996SOL    HW212886   3.267   2.621   7.073
36997SOL     OW12887   5.287   8.463  14.613
36997SOL    HW112888   5.371   8.509  14.607
36997SOL    HW212889   5.300   8.398  14.682
36998SOL     OW12890   5.846  11.153   0.839
36998SOL    HW112891   5.769  11.196   0.802
36998SOL    HW212892   5.861  11.196   0.923
36999SOL     OW12893   6.548   2.215  14.222
36999SOL    HW112894   6.566   2.126  14.255
36999SOL    HW212895   6.484   2.202  14.152
37000SOL     OW12896   6.621   7.328  14.554
37000SOL    HW112897   6.697   7.342  14.612
37000SOL    HW212898   6.600   7.235  14.565
37001SOL     OW12899  10.956  10.151   7.323
37001SOL    HW112900  11.032  10.203   7.350
37001SOL    HW212901  10.977  10.122   7.235
37002SOL     OW12902  11.281   6.278  11.982
37002SOL    HW112903  11.218   6.277  11.910
37002SOL    HW212904  11.332   6.198  11.970
37003SOL     OW12905   1.340  11.295   4.781
37003SOL    HW112906   1.401  11.225   4.759
37003SOL    HW212907   1.263  11.249   4.814
37004SOL     OW12908   2.356  12.083   0.406
37004SOL    HW112909   2.293  12.133   0.354
37004SOL    HW212910   2.413  12.041   0.341
37005SOL     OW12911   5.757   2.097  13.317
37005SOL    HW112912   5.796   2.103  13.404
37005SOL    HW212913   5.663   2.108  13.332
37006SOL     OW12914   2.639   7.729   3.336
37006SOL    HW112915   2.723   7.755   3.374
37006SOL    HW212916   2.635   7.635   3.351
37007SOL     OW12917   2.974   8.283  10.822
37007SOL    HW112918   2.993   8.338  10.898
37007SOL    HW212919   2.969   8.194  10.858
37008SOL     OW12920  13.210   7.037   3.143
37008SOL    HW112921  13.136   7.052   3.085
37008SOL    HW212922  13.232   7.124   3.177
37009SOL     OW12923   7.375  10.561   4.584
37009SOL    HW112924   7.438  10.593   4.521
37009SOL    HW212925   7.424  10.500   4.639
37010SOL     OW12926  10.361   4.069   4.059
37010SOL    HW112927  10.310   4.015   4.120
37010SOL    HW212928  10.321   4.156   4.066
37011SOL     OW12929   4.373   0.668   1.718
37011SOL    HW112930   4.378   0.640   1.809
37011SOL    HW212931   4.300   0.730   1.716
37012SOL     OW12932  11.205   9.163  14.662
37012SOL    HW112933  11.137   9.173  14.595
37012SOL    HW212934  11.173   9.092  14.718
37013SOL     OW12935   5.225   9.714   0.340
37013SOL    HW112936   5.148   9.750   0.383
37013SOL    HW212937   5.190   9.663   0.267
37014SOL     OW12938   6.968   9.198   5.410
37014SOL    HW112939   7.020   9.156   5.342
37014SOL    HW212940   6.943   9.126   5.468
37015SOL     OW12941   3.219  11.514  10.661
37015SOL    HW112942   3.151  11.563  10.708
37015SOL    HW212943   3.272  11.582  10.619
37016SOL     OW12944  10.689   2.380   3.472
37016SOL    HW112945  10.767   2.406   3.521
37016SOL    HW212946  10.708   2.290   3.443
37017SOL     OW12947   0.684   1.611   1.535
37017SOL    HW112948   0.635   1.649   1.607
37017SOL    HW212949   0.730   1.686   1.496
37018SOL     OW12950  12.616  13.457   2.759
37018SOL    HW112951  12.593  13.547   2.737
37018SOL    HW212952  12.590  13.448   2.851
37019SOL     OW12953   6.665  10.637   4.319
37019SOL    HW112954   6.673  10.543   4.334
37019SOL    HW212955   6.582  10.661   4.360
37020SOL     OW12956   4.265   1.285   8.753
37020SOL    HW112957   4.312   1.366   8.775
37020SOL    HW212958   4.220   1.305   8.671
37021SOL     OW12959   7.857   8.425   3.014
37021SOL    HW112960   7.924   8.433   2.946
37021SOL    HW212961   7.831   8.515   3.033
37022SOL     OW12962  11.480   3.640  12.289
37022SOL    HW112963  11.451   3.650  12.379
37022SOL    HW212964  11.526   3.556  12.288
37023SOL     OW12965   8.506   1.152   8.406
37023SOL    HW112966   8.589   1.182   8.369
37023SOL    HW212967   8.471   1.230   8.451
37024SOL     OW12968   2.011   5.904   8.504
37024SOL    HW112969   1.970   5.884   8.420
37024SOL    HW212970   1.984   5.993   8.524
37025SOL     OW12971   8.316   4.170   7.228
37025SOL    HW112972   8.273   4.103   7.174
37025SOL    HW212973   8.307   4.251   7.178
37026SOL     OW12974  12.421   3.477  14.592
37026SOL    HW112975  12.410   3.553  14.535
37026SOL    HW212976  12.333   3.441  14.601
37027SOL     OW12977   3.588  14.256   3.384
37027SOL    HW112978   3.526  14.222   3.319
37027SOL    HW212979   3.652  14.186   3.395
37028SOL     OW12980   2.079   3.555  10.087
37028SOL    HW112981   2.164   3.529  10.122
37028SOL    HW212982   2.086   3.540   9.993
37029SOL     OW12983   6.945  11.365  14.130
37029SOL    HW112984   7.011  11.298  14.144
37029SOL    HW212985   6.988  11.447  14.155
37030SOL     OW12986   7.541   7.986  11.751
37030SOL    HW112987   7.560   8.037  11.830
37030SOL    HW212988   7.447   7.996  11.738
37031SOL     OW12989   1.012   2.907   8.760
37031SOL    HW112990   1.056   2.822   8.759
37031SOL    HW212991   1.065   2.962   8.703
37032SOL     OW12992  14.490   6.589  12.235
37032SOL    HW112993  14.514   6.670  12.189
37032SOL    HW212994  14.436   6.618  12.308
37033SOL     OW12995  12.598   1.073   4.677
37033SOL    HW112996  12.515   1.042   4.642
37033SOL    HW212997  12.620   1.148   4.622
37034SOL     OW12998  14.133  13.770   6.709
37034SOL    HW112999  14.087  13.693   6.677
37034SOL    HW213000  14.078  13.802   6.780
37035SOL     OW13001   2.857   8.298   1.117
37035SOL    HW113002   2.911   8.221   1.138
37035SOL    HW213003   2.832   8.285   1.026
37036SOL     OW13004   5.459  11.645   7.491
37036SOL    HW113005   5.419  11.707   7.552
37036SOL    HW213006   5.547  11.631   7.527
37037SOL     OW13007  12.013   3.431  14.345
37037SOL    HW113008  12.047   3.491  14.279
37037SOL    HW213009  11.950   3.482  14.395
37038SOL     OW13010  13.242   3.849   2.545
37038SOL    HW113011  13.270   3.929   2.499
37038SOL    HW213012  13.321   3.817   2.588
37039SOL     OW13013   3.732   6.694  12.852
37039SOL    HW113014   3.646   6.655  12.864
37039SOL    HW213015   3.721   6.785  12.879
37040SOL     OW13016  11.621   2.126   0.916
37040SOL    HW113017  11.567   2.159   0.987
37040SOL    HW213018  11.702   2.177   0.921
37041SOL     OW13019  14.562   7.549   7.184
37041SOL    HW113020  14.474   7.583   7.174
37041SOL    HW213021  14.619   7.621   7.159
37042SOL     OW13022   7.012   8.914  14.135
37042SOL    HW113023   6.966   8.869  14.064
37042SOL    HW213024   6.944   8.935  14.198
37043SOL     OW13025  11.440   7.023   7.158
37043SOL    HW113026  11.518   7.059   7.200
37043SOL    HW213027  11.437   7.065   7.072
37044SOL     OW13028   3.707   0.534   8.062
37044SOL    HW113029   3.613   0.535   8.048
37044SOL    HW213030   3.743   0.486   7.987
37045SOL     OW13031  14.416   8.317   3.680
37045SOL    HW113032  14.394   8.409   3.693
37045SOL    HW213033  14.348   8.284   3.621
37046SOL     OW13034  10.212   7.935   9.585
37046SOL    HW113035  10.276   7.996   9.622
37046SOL    HW213036  10.218   7.949   9.490
37047SOL     OW13037   9.577  13.873   5.200
37047SOL    HW113038   9.561  13.845   5.110
37047SOL    HW213039   9.638  13.808   5.235
37048SOL     OW13040   0.337   1.717   8.772
37048SOL    HW113041   0.284   1.778   8.722
37048SOL    HW213042   0.425   1.756   8.773
37049SOL     OW13043  13.968  14.170  10.873
37049SOL    HW113044  14.056  14.183  10.910
37049SOL    HW213045  13.916  14.140  10.947
37050SOL     OW13046   0.997  12.183   9.559
37050SOL    HW113047   1.022  12.180   9.467
37050SOL    HW213048   1.003  12.092   9.589
37051SOL     OW13049  14.464   0.210  11.291
37051SOL    HW113050  14.401   0.263  11.243
37051SOL    HW213051  14.427   0.122  11.291
37052SOL     OW13052  13.923   0.432   5.308
37052SOL    HW113053  13.900   0.339   5.305
37052SOL    HW213054  14.006   0.435   5.356
37053SOL     OW13055   0.338  12.527   1.418
37053SOL    HW113056   0.297  12.442   1.402
37053SOL    HW213057   0.283  12.568   1.485
37054SOL     OW13058   5.130   3.004   9.858
37054SOL    HW113059   5.051   2.967   9.897
37054SOL    HW213060   5.113   3.098   9.851
37055SOL     OW13061   6.387   9.326  14.837
37055SOL    HW113062   6.361   9.399   0.026
37055SOL    HW213063   6.309   9.272  14.830
37056SOL     OW13064  14.396   7.219   8.646
37056SOL    HW113065  14.357   7.277   8.581
37056SOL    HW213066  14.321   7.186   8.696
37057SOL     OW13067   0.602   4.469   5.454
37057SOL    HW113068   0.649   4.472   5.537
37057SOL    HW213069   0.509   4.466   5.478
37058SOL     OW13070   9.357   5.057   1.941
37058SOL    HW113071   9.273   5.046   1.986
37058SOL    HW213072   9.409   4.982   1.971
37059SOL     OW13073   6.934  11.612   8.437
37059SOL    HW113074   6.882  11.622   8.517
37059SOL    HW213075   6.874  11.638   8.366
37060SOL     OW13076  11.185   9.481  14.095
37060SOL    HW113077  11.174   9.556  14.037
37060SOL    HW213078  11.136   9.410  14.052
37061SOL     OW13079   3.892   0.237   9.446
37061SOL    HW113080   3.972   0.223   9.497
37061SOL    HW213081   3.922   0.275   9.364
37062SOL     OW13082   1.024   2.620  12.324
37062SOL    HW113083   0.985   2.562  12.389
37062SOL    HW213084   0.950   2.653  12.274
37063SOL     OW13085   3.299  12.685   3.647
37063SOL    HW113086   3.369  12.749   3.654
37063SOL    HW213087   3.220  12.737   3.633
37064SOL     OW13088   0.792   2.780   8.895
37064SOL    HW113089   0.750   2.706   8.850
37064SOL    HW213090   0.884   2.771   8.874
37065SOL     OW13091   1.147  12.331   8.677
37065SOL    HW113092   1.211  12.391   8.716
37065SOL    HW213093   1.062  12.369   8.699
37066SOL     OW13094   1.513   2.941   2.950
37066SOL    HW113095   1.494   2.884   3.025
37066SOL    HW213096   1.588   2.993   2.977
37067SOL     OW13097  11.918   1.286   5.119
37067SOL    HW113098  11.992   1.345   5.105
37067SOL    HW213099  11.934   1.213   5.058
37068SOL     OW13100   2.598   1.673  13.781
37068SOL    HW113101   2.509   1.705  13.763
37068SOL    HW213102   2.585   1.581  13.805
37069SOL     OW13103  14.842   2.988   7.386
37069SOL    HW113104   0.019   2.958   7.306
37069SOL    HW213105   0.044   3.009   7.447
37070SOL     OW13106   8.243  14.706  12.367
37070SOL    HW113107   8.257  14.772  12.298
37070SOL    HW213108   8.276  14.748  12.446
37071SOL     OW13109   1.133   3.594   2.654
37071SOL    HW113110   1.199   3.569   2.591
37071SOL    HW213111   1.182   3.628   2.729
37072SOL     OW13112  10.221   2.077   0.945
37072SOL    HW113113  10.286   2.091   1.014
37072SOL    HW213114  10.242   1.991   0.909
37073SOL     OW13115   5.936  10.599   4.647
37073SOL    HW113116   5.918  10.675   4.592
37073SOL    HW213117   5.879  10.531   4.612
37074SOL     OW13118   5.327   0.119  14.251
37074SOL    HW113119   5.249   0.176  14.246
37074SOL    HW213120   5.292   0.030  14.254
37075SOL     OW13121   1.647   7.207   4.627
37075SOL    HW113122   1.577   7.241   4.684
37075SOL    HW213123   1.638   7.112   4.632
37076SOL     OW13124   9.326   9.318  10.296
37076SOL    HW113125   9.333   9.258  10.370
37076SOL    HW213126   9.363   9.270  10.222
37077SOL     OW13127  12.519   1.645   9.157
37077SOL    HW113128  12.547   1.595   9.080
37077SOL    HW213129  12.470   1.583   9.210
37078SOL     OW13130  13.458   7.314  11.313
37078SOL    HW113131  13.521   7.248  11.284
37078SOL    HW213132  13.373   7.282  11.283
37079SOL     OW13133  12.274  12.145   5.057
37079SOL    HW113134  12.285  12.068   5.001
37079SOL    HW213135  12.361  12.186   5.057
37080SOL     OW13136   6.446   0.223   8.190
37080SOL    HW113137   6.370   0.282   8.195
37080SOL    HW213138   6.511   0.272   8.139
37081SOL     OW13139  10.976   2.176  13.043
37081SOL    HW113140  10.932   2.129  13.113
37081SOL    HW213141  11.046   2.117  13.014
37082SOL     OW13142  12.567   0.244   3.866
37082SOL    HW113143  12.501   0.178   3.842
37082SOL    HW213144  12.639   0.193   3.904
37083SOL     OW13145  14.405  14.077   3.419
37083SOL    HW113146  14.390  14.029   3.337
37083SOL    HW213147  14.362  14.161   3.406
37084SOL     OW13148  10.633  13.140   1.942
37084SOL    HW113149  10.723  13.130   1.912
37084SOL    HW213150  10.583  13.159   1.863
37085SOL     OW13151   0.809   3.041   6.071
37085SOL    HW113152   0.896   3.009   6.096
37085SOL    HW213153   0.790   2.998   5.988
37086SOL     OW13154   4.569   9.303   3.059
37086SOL    HW113155   4.519   9.351   2.993
37086SOL    HW213156   4.651   9.280   3.014
37087SOL     OW13157   8.446   1.064   0.254
37087SOL    HW113158   8.408   1.087   0.170
37087SOL    HW213159   8.371   1.047   0.311
37088SOL     OW13160   5.537  10.554   8.767
37088SOL    HW113161   5.618  10.563   8.716
37088SOL    HW213162   5.505  10.466   8.746
37089SOL     OW13163   8.800   5.107   9.866
37089SOL    HW113164   8.717   5.129   9.909
37089SOL    HW213165   8.818   5.017   9.894
37090SOL     OW13166   5.046  12.373  14.526
37090SOL    HW113167   5.096  12.309  14.576
37090SOL    HW213168   5.045  12.451  14.581
37091SOL     OW13169  13.941   8.584   4.243
37091SOL    HW113170  13.922   8.557   4.332
37091SOL    HW213171  14.031   8.616   4.246
37092SOL     OW13172   2.153   3.556   4.033
37092SOL    HW113173   2.119   3.552   4.122
37092SOL    HW213174   2.245   3.534   4.041
37093SOL     OW13175   9.715   4.070  12.241
37093SOL    HW113176   9.787   4.064  12.177
37093SOL    HW213177   9.758   4.090  12.324
37094SOL     OW13178  14.017   5.927  14.655
37094SOL    HW113179  13.991   5.944  14.746
37094SOL    HW213180  14.096   5.874  14.662
37095SOL     OW13181   7.512   3.854   3.789
37095SOL    HW113182   7.433   3.875   3.838
37095SOL    HW213183   7.559   3.791   3.844
37096SOL     OW13184   8.436  10.509   3.548
37096SOL    HW113185   8.391  10.491   3.630
37096SOL    HW213186   8.507  10.445   3.544
37097SOL     OW13187   0.479   9.908   8.085
37097SOL    HW113188   0.492   9.914   7.991
37097SOL    HW213189   0.537   9.975   8.122
37098SOL     OW13190   4.526   4.783   3.106
37098SOL    HW113191   4.437   4.755   3.125
37098SOL    HW213192   4.575   4.702   3.092
37099SOL     OW13193  11.156   5.971  11.836
37099SOL    HW113194  11.121   6.040  11.779
37099SOL    HW213195  11.211   5.919  11.778
37100SOL     OW13196   9.371   3.823   7.212
37100SOL    HW113197   9.430   3.810   7.138
37100SOL    HW213198   9.284   3.801   7.178
37101SOL     OW13199   0.768   0.239   8.895
37101SOL    HW113200   0.837   0.189   8.939
37101SOL    HW213201   0.815   0.306   8.846
37102SOL     OW13202   1.102   4.399   4.008
37102SOL    HW113203   1.031   4.424   4.067
37102SOL    HW213204   1.132   4.314   4.041
37103SOL     OW13205  14.526   3.531   7.499
37103SOL    HW113206  14.540   3.473   7.425
37103SOL    HW213207  14.607   3.525   7.550
37104SOL     OW13208   9.688   9.674   9.394
37104SOL    HW113209   9.615   9.694   9.336
37104SOL    HW213210   9.749   9.624   9.340
37105SOL     OW13211   7.637   8.127  12.179
37105SOL    HW113212   7.601   8.208  12.217
37105SOL    HW213213   7.710   8.157  12.125
37106SOL     OW13214  11.754  14.556  10.023
37106SOL    HW113215  11.668  14.590   9.997
37106SOL    HW213216  11.797  14.629  10.066
37107SOL     OW13217  11.299  12.362   9.887
37107SOL    HW113218  11.283  12.402   9.973
37107SOL    HW213219  11.361  12.421   9.845
37108SOL     OW13220   7.069  10.335  13.876
37108SOL    HW113221   7.149  10.297  13.842
37108SOL    HW213222   7.048  10.282  13.953
37109SOL     OW13223   8.436  11.668  14.131
37109SOL    HW113224   8.423  11.641  14.040
37109SOL    HW213225   8.456  11.587  14.177
37110SOL     OW13226   7.358   4.304   2.459
37110SOL    HW113227   7.381   4.266   2.544
37110SOL    HW213228   7.303   4.237   2.417
37111SOL     OW13229  13.443   4.719   5.254
37111SOL    HW113230  13.381   4.649   5.230
37111SOL    HW213231  13.453   4.770   5.175
37112SOL     OW13232  10.169  12.442   5.434
37112SOL    HW113233  10.127  12.411   5.514
37112SOL    HW213234  10.206  12.527   5.457
37113SOL     OW13235  11.251  12.142   6.256
37113SOL    HW113236  11.252  12.170   6.347
37113SOL    HW213237  11.163  12.165   6.225
37114SOL     OW13238   8.691  14.187   2.194
37114SOL    HW113239   8.713  14.094   2.189
37114SOL    HW213240   8.610  14.190   2.245
37115SOL     OW13241  11.216   4.387  13.887
37115SOL    HW113242  11.175   4.357  13.968
37115SOL    HW213243  11.142   4.403  13.828
37116SOL     OW13244   9.410  10.362   6.316
37116SOL    HW113245   9.445  10.397   6.234
37116SOL    HW213246   9.487  10.356   6.373
37117SOL     OW13247   0.965   7.735   5.407
37117SOL    HW113248   0.970   7.641   5.386
37117SOL    HW213249   1.043   7.773   5.368
37118SOL     OW13250   4.031   3.727   2.509
37118SOL    HW113251   3.970   3.742   2.581
37118SOL    HW213252   4.036   3.812   2.464
37119SOL     OW13253  12.168   3.838   6.716
37119SOL    HW113254  12.250   3.871   6.679
37119SOL    HW213255  12.147   3.761   6.663
37120SOL     OW13256  11.905   7.354   8.527
37120SOL    HW113257  11.834   7.366   8.464
37120SOL    HW213258  11.965   7.426   8.509
37121SOL     OW13259  12.861   3.952   5.393
37121SOL    HW113260  12.776   3.976   5.355
37121SOL    HW213261  12.924   4.001   5.341
37122SOL     OW13262  14.589  12.678  14.230
37122SOL    HW113263  14.504  12.713  14.257
37122SOL    HW213264  14.635  12.753  14.191
37123SOL     OW13265   9.460   1.249   1.141
37123SOL    HW113266   9.546   1.233   1.180
37123SOL    HW213267   9.410   1.170   1.160
37124SOL     OW13268   8.769   8.134  10.158
37124SOL    HW113269   8.760   8.053  10.209
37124SOL    HW213270   8.773   8.103  10.067
37125SOL     OW13271   9.541  10.045   5.691
37125SOL    HW113272   9.583  10.055   5.777
37125SOL    HW213273   9.506   9.956   5.692
37126SOL     OW13274  13.771   4.674   3.307
37126SOL    HW113275  13.745   4.655   3.397
37126SOL    HW213276  13.716   4.748   3.281
37127SOL     OW13277  11.566   6.219  13.871
37127SOL    HW113278  11.537   6.300  13.829
37127SOL    HW213279  11.604   6.168  13.799
37128SOL     OW13280   8.682   5.549  12.640
37128SOL    HW113281   8.720   5.462  12.635
37128SOL    HW213282   8.729   5.599  12.573
37129SOL     OW13283  11.226   4.462  12.868
37129SOL    HW113284  11.267   4.427  12.789
37129SOL    HW213285  11.147   4.410  12.880
37130SOL     OW13286   7.832  14.206   7.551
37130SOL    HW113287   7.756  14.202   7.609
37130SOL    HW213288   7.878  14.286   7.577
37131SOL     OW13289  13.696   7.509  14.607
37131SOL    HW113290  13.770   7.450  14.617
37131SOL    HW213291  13.640   7.467  14.542
37132SOL     OW13292  11.685  10.279  10.324
37132SOL    HW113293  11.713  10.205  10.268
37132SOL    HW213294  11.763  10.334  10.329
37133SOL     OW13295   3.377  12.268   3.890
37133SOL    HW113296   3.299  12.219   3.916
37133SOL    HW213297   3.346  12.331   3.825
37134SOL     OW13298  11.486   0.607   8.451
37134SOL    HW113299  11.512   0.541   8.515
37134SOL    HW213300  11.456   0.681   8.505
37135SOL     OW13301   8.147  11.339  12.545
37135SOL    HW113302   8.217  11.297  12.596
37135SOL    HW213303   8.163  11.311  12.455
37136SOL     OW13304  12.964  13.693  13.906
37136SOL    HW113305  12.938  13.670  13.996
37136SOL    HW213306  12.982  13.608  13.865
37137SOL     OW13307   2.183   0.007  14.313
37137SOL    HW113308   2.226   0.003  14.399
37137SOL    HW213309   2.100  14.829  14.326
37138SOL     OW13310   4.148   3.028  14.044
37138SOL    HW113311   4.074   3.076  14.082
37138SOL    HW213312   4.139   2.939  14.077
37139SOL     OW13313   0.240   3.365  12.367
37139SOL    HW113314   0.228   3.369  12.272
37139SOL    HW213315   0.157   3.396  12.403
37140SOL     OW13316  13.482   5.408   8.699
37140SOL    HW113317  13.423   5.369   8.634
37140SOL    HW213318  13.443   5.387   8.783
37141SOL     OW13319   6.736  12.023  14.551
37141SOL    HW113320   6.773  11.953  14.497
37141SOL    HW213321   6.718  12.094  14.489
37142SOL     OW13322  11.178   9.706   5.226
37142SOL    HW113323  11.181   9.794   5.187
37142SOL    HW213324  11.200   9.720   5.318
37143SOL     OW13325  14.383  10.498  10.005
37143SOL    HW113326  14.311  10.561  10.000
37143SOL    HW213327  14.416  10.493   9.915
37144SOL     OW13328   6.102   1.458   7.889
37144SOL    HW113329   6.042   1.408   7.943
37144SOL    HW213330   6.104   1.545   7.928
37145SOL     OW13331   5.605   0.692   7.456
37145SOL    HW113332   5.529   0.657   7.503
37145SOL    HW213333   5.614   0.781   7.488
37146SOL     OW13334   3.194   4.119   0.764
37146SOL    HW113335   3.114   4.170   0.781
37146SOL    HW213336   3.187   4.044   0.822
37147SOL     OW13337   2.219   9.301  11.337
37147SOL    HW113338   2.261   9.349  11.266
37147SOL    HW213339   2.151   9.249  11.294
37148SOL     OW13340  10.547   2.732   5.398
37148SOL    HW113341  10.534   2.787   5.320
37148SOL    HW213342  10.599   2.658   5.366
37149SOL     OW13343  14.833   3.703  11.627
37149SOL    HW113344   0.006   3.617  11.623
37149SOL    HW213345  14.739   3.685  11.622
37150SOL     OW13346   5.421   8.911  13.174
37150SOL    HW113347   5.515   8.911  13.188
37150SOL    HW213348   5.386   8.855  13.243
37151SOL     OW13349   3.411   5.911  13.337
37151SOL    HW113350   3.504   5.908  13.316
37151SOL    HW213351   3.383   5.998  13.310
37152SOL     OW13352   4.192   9.814   8.471
37152SOL    HW113353   4.156   9.890   8.424
37152SOL    HW213354   4.177   9.740   8.412
37153SOL     OW13355   6.926   2.315   0.354
37153SOL    HW113356   6.837   2.279   0.366
37153SOL    HW213357   6.911   2.403   0.319
37154SOL     OW13358   3.920  12.685   3.970
37154SOL    HW113359   3.836  12.708   4.010
37154SOL    HW213360   3.967  12.768   3.964
37155SOL     OW13361  11.136   2.200  14.615
37155SOL    HW113362  11.132   2.193  14.520
37155SOL    HW213363  11.199   2.271  14.632
37156SOL     OW13364   8.693   1.867   8.942
37156SOL    HW113365   8.677   1.848   8.850
37156SOL    HW213366   8.785   1.847   8.956
37157SOL     OW13367   3.327  13.814  11.550
37157SOL    HW113368   3.308  13.907  11.557
37157SOL    HW213369   3.257  13.779  11.495
37158SOL     OW13370  10.820   4.911   7.699
37158SOL    HW113371  10.750   4.963   7.738
37158SOL    HW213372  10.849   4.853   7.769
37159SOL     OW13373   3.746   0.563   6.580
37159SOL    HW113374   3.777   0.645   6.542
37159SOL    HW213375   3.651   0.573   6.585
37160SOL     OW13376   3.229   2.520   0.459
37160SOL    HW113377   3.248   2.536   0.552
37160SOL    HW213378   3.270   2.593   0.413
37161SOL     OW13379   2.789   5.932   3.887
37161SOL    HW113380   2.702   5.972   3.883
37161SOL    HW213381   2.778   5.858   3.946
37162SOL     OW13382   7.721   6.387   5.280
37162SOL    HW113383   7.719   6.293   5.297
37162SOL    HW213384   7.683   6.397   5.193
37163SOL     OW13385  11.593  10.040   0.752
37163SOL    HW113386  11.685  10.064   0.759
37163SOL    HW213387  11.573  10.047   0.659
37164SOL     OW13388   3.166  11.472   9.315
37164SOL    HW113389   3.077  11.447   9.291
37164SOL    HW213390   3.168  11.465   9.411
37165SOL     OW13391   0.012  12.346  10.099
37165SOL    HW113392  14.848  12.256  10.090
37165SOL    HW213393   0.099  12.344  10.059
37166SOL     OW13394   6.993   5.315   6.934
37166SOL    HW113395   7.071   5.340   6.983
37166SOL    HW213396   7.004   5.356   6.848
37167SOL     OW13397   3.737   4.653   0.943
37167SOL    HW113398   3.750   4.634   0.850
37167SOL    HW213399   3.712   4.569   0.982
37168SOL     OW13400   4.354   1.198   0.704
37168SOL    HW113401   4.416   1.241   0.763
37168SOL    HW213402   4.268   1.227   0.734
37169SOL     OW13403   7.720  14.716   3.621
37169SOL    HW113404   7.798  14.671   3.589
37169SOL    HW213405   7.659  14.713   3.548
37170SOL     OW13406   9.394   3.973   1.162
37170SOL    HW113407   9.436   3.989   1.078
37170SOL    HW213408   9.352   4.056   1.184
37171SOL     OW13409  10.275   6.510   1.521
37171SOL    HW113410  10.252   6.499   1.428
37171SOL    HW213411  10.368   6.489   1.525
37172SOL     OW13412   4.159  13.729  11.139
37172SOL    HW113413   4.207  13.795  11.188
37172SOL    HW213414   4.118  13.778  11.067
37173SOL     OW13415   3.593  13.863   2.835
37173SOL    HW113416   3.536  13.934   2.866
37173SOL    HW213417   3.625  13.894   2.750
37174SOL     OW13418   9.303   3.529   1.113
37174SOL    HW113419   9.224   3.559   1.067
37174SOL    HW213420   9.345   3.468   1.052
37175SOL     OW13421   8.560  13.051   1.835
37175SOL    HW113422   8.528  13.121   1.778
37175SOL    HW213423   8.488  13.033   1.895
37176SOL     OW13424  14.805   0.982  13.306
37176SOL    HW113425  14.783   0.962  13.397
37176SOL    HW213426  14.865   1.057  13.311
37177SOL     OW13427   1.749   6.864   8.273
37177SOL    HW113428   1.754   6.958   8.259
37177SOL    HW213429   1.838   6.838   8.296
37178SOL     OW13430   7.772  12.253   7.539
37178SOL    HW113431   7.742  12.218   7.623
37178SOL    HW213432   7.759  12.347   7.546
37179SOL     OW13433  10.679  10.373   6.082
37179SOL    HW113434  10.621  10.322   6.025
37179SOL    HW213435  10.744  10.310   6.113
37180SOL     OW13436   1.616   4.954   0.301
37180SOL    HW113437   1.667   4.901   0.363
37180SOL    HW213438   1.540   4.983   0.352
37181SOL     OW13439   1.538   0.640  12.943
37181SOL    HW113440   1.569   0.722  12.982
37181SOL    HW213441   1.608   0.613  12.884
37182SOL     OW13442   5.901   9.169  11.699
37182SOL    HW113443   5.848   9.121  11.635
37182SOL    HW213444   5.991   9.151  11.673
37183SOL     OW13445  11.447   7.286   6.644
37183SOL    HW113446  11.447   7.207   6.589
37183SOL    HW213447  11.540   7.306   6.657
37184SOL     OW13448   0.523   2.574   6.567
37184SOL    HW113449   0.470   2.499   6.541
37184SOL    HW213450   0.491   2.645   6.511
37185SOL     OW13451   7.570   0.848   6.468
37185SOL    HW113452   7.661   0.841   6.438
37185SOL    HW213453   7.519   0.804   6.399
37186SOL     OW13454  11.979  10.483   9.420
37186SOL    HW113455  12.054  10.480   9.480
37186SOL    HW213456  12.014  10.448   9.337
37187SOL     OW13457  11.934  13.116   8.759
37187SOL    HW113458  11.934  13.204   8.797
37187SOL    HW213459  12.025  13.101   8.733
37188SOL     OW13460   1.288  10.882  10.291
37188SOL    HW113461   1.369  10.833  10.277
37188SOL    HW213462   1.301  10.964  10.242
37189SOL     OW13463   8.181   8.810   4.395
37189SOL    HW113464   8.106   8.830   4.340
37189SOL    HW213465   8.200   8.718   4.377
37190SOL     OW13466   5.196   5.277   7.937
37190SOL    HW113467   5.237   5.363   7.933
37190SOL    HW213468   5.106   5.291   7.906
37191SOL     OW13469   7.543  14.814  13.250
37191SOL    HW113470   7.492  14.783  13.176
37191SOL    HW213471   7.550   0.041  13.237
37192SOL     OW13472   9.493   9.016   5.611
37192SOL    HW113473   9.550   9.068   5.554
37192SOL    HW213474   9.413   9.068   5.619
37193SOL     OW13475   7.870   3.820  13.663
37193SOL    HW113476   7.799   3.881  13.643
37193SOL    HW213477   7.827   3.740  13.692
37194SOL     OW13478   8.889  13.693   2.184
37194SOL    HW113479   8.888  13.675   2.278
37194SOL    HW213480   8.841  13.620   2.145
37195SOL     OW13481  11.286  11.755   7.749
37195SOL    HW113482  11.286  11.782   7.657
37195SOL    HW213483  11.199  11.778   7.781
37196SOL     OW13484   9.025  10.976   7.104
37196SOL    HW113485   9.096  10.916   7.129
37196SOL    HW213486   8.961  10.968   7.175
37197SOL     OW13487   4.234  11.179   7.167
37197SOL    HW113488   4.209  11.226   7.088
37197SOL    HW213489   4.329  11.186   7.170
37198SOL     OW13490  11.881   6.520  12.014
37198SOL    HW113491  11.792   6.496  12.041
37198SOL    HW213492  11.887   6.488  11.924
37199SOL     OW13493   1.723   6.158   1.048
37199SOL    HW113494   1.749   6.071   1.018
37199SOL    HW213495   1.653   6.184   0.987
37200SOL     OW13496  11.508  14.545   7.198
37200SOL    HW113497  11.481  14.587   7.279
37200SOL    HW213498  11.586  14.593   7.170
37201SOL     OW13499  12.550  14.650   0.419
37201SOL    HW113500  12.562  14.726   0.362
37201SOL    HW213501  12.524  14.687   0.504
37202SOL     OW13502  12.050   6.446   3.062
37202SOL    HW113503  11.959   6.442   3.091
37202SOL    HW213504  12.093   6.504   3.126
37203SOL     OW13505   0.003   7.011   9.585
37203SOL    HW113506   0.071   6.945   9.597
37203SOL    HW213507  14.793   6.960   9.561
37204SOL     OW13508  12.085  12.223  11.368
37204SOL    HW113509  12.084  12.152  11.303
37204SOL    HW213510  12.109  12.180  11.450
37205SOL     OW13511   6.535   4.038   7.489
37205SOL    HW113512   6.450   4.044   7.533
37205SOL    HW213513   6.591   4.097   7.539
37206SOL     OW13514   3.810  14.059   6.040
37206SOL    HW113515   3.783  14.150   6.027
37206SOL    HW213516   3.767  14.033   6.122
37207SOL     OW13517   7.545   8.742   9.201
37207SOL    HW113518   7.565   8.746   9.107
37207SOL    HW213519   7.523   8.832   9.225
37208SOL     OW13520   8.353   6.268   3.008
37208SOL    HW113521   8.372   6.223   3.091
37208SOL    HW213522   8.427   6.245   2.952
37209SOL     OW13523   0.682   5.966  12.320
37209SOL    HW113524   0.768   5.993  12.353
37209SOL    HW213525   0.687   5.871  12.313
37210SOL     OW13526   1.285   2.497   4.229
37210SOL    HW113527   1.240   2.557   4.170
37210SOL    HW213528   1.242   2.413   4.217
37211SOL     OW13529   1.263  12.640   2.529
37211SOL    HW113530   1.214  12.689   2.463
37211SOL    HW213531   1.354  12.668   2.517
37212SOL     OW13532   8.702  14.501  13.032
37212SOL    HW113533   8.717  14.596  13.040
37212SOL    HW213534   8.722  14.467  13.119
37213SOL     OW13535   4.161   3.259   6.705
37213SOL    HW113536   4.253   3.260   6.678
37213SOL    HW213537   4.112   3.244   6.624
37214SOL     OW13538   2.314  13.309   2.085
37214SOL    HW113539   2.387  13.247   2.074
37214SOL    HW213540   2.293  13.338   1.996
37215SOL     OW13541  12.463   0.517   6.826
37215SOL    HW113542  12.418   0.592   6.864
37215SOL    HW213543  12.428   0.509   6.737
37216SOL     OW13544   4.789   6.461   4.029
37216SOL    HW113545   4.803   6.497   4.117
37216SOL    HW213546   4.875   6.431   4.001
37217SOL     OW13547   6.642   4.173   5.698
37217SOL    HW113548   6.676   4.178   5.608
37217SOL    HW213549   6.549   4.192   5.690
37218SOL     OW13550   6.352   0.651  11.768
37218SOL    HW113551   6.301   0.720  11.724
37218SOL    HW213552   6.379   0.593  11.697
37219SOL     OW13553   3.051   7.454   1.274
37219SOL    HW113554   3.135   7.443   1.319
37219SOL    HW213555   2.999   7.379   1.303
37220SOL     OW13556   8.393  12.782  10.298
37220SOL    HW113557   8.422  12.862  10.255
37220SOL    HW213558   8.332  12.812  10.366
37221SOL     OW13559  13.711   6.330  11.928
37221SOL    HW113560  13.659   6.340  12.008
37221SOL    HW213561  13.730   6.419  11.900
37222SOL     OW13562   3.377   3.568   1.727
37222SOL    HW113563   3.427   3.487   1.725
37222SOL    HW213564   3.289   3.541   1.754
37223SOL     OW13565  11.021   3.945   3.740
37223SOL    HW113566  10.976   3.865   3.766
37223SOL    HW213567  10.950   4.010   3.731
37224SOL     OW13568  10.882   1.577   0.442
37224SOL    HW113569  10.928   1.594   0.360
37224SOL    HW213570  10.941   1.521   0.492
37225SOL     OW13571   1.832  13.461   1.173
37225SOL    HW113572   1.793  13.525   1.114
37225SOL    HW213573   1.923  13.452   1.143
37226SOL     OW13574  11.561   8.684   4.512
37226SOL    HW113575  11.576   8.687   4.606
37226SOL    HW213576  11.490   8.746   4.497
37227SOL     OW13577  11.912   9.034   0.443
37227SOL    HW113578  11.907   9.109   0.385
37227SOL    HW213579  12.006   9.020   0.457
37228SOL     OW13580   5.682   1.638   9.316
37228SOL    HW113581   5.611   1.592   9.360
37228SOL    HW213582   5.642   1.718   9.282
37229SOL     OW13583   2.501   8.753   3.438
37229SOL    HW113584   2.475   8.688   3.504
37229SOL    HW213585   2.540   8.701   3.368
37230SOL     OW13586   4.451   3.752  10.732
37230SOL    HW113587   4.518   3.684  10.728
37230SOL    HW213588   4.492   3.828  10.689
37231SOL     OW13589   6.605  13.636   7.174
37231SOL    HW113590   6.685  13.620   7.224
37231SOL    HW213591   6.538  13.652   7.240
37232SOL     OW13592  10.251  12.066   4.012
37232SOL    HW113593  10.256  11.996   4.078
37232SOL    HW213594  10.227  12.144   4.062
37233SOL     OW13595  13.958   8.749  14.849
37233SOL    HW113596  14.018   8.821   0.004
37233SOL    HW213597  13.936   8.765  14.757
37234SOL     OW13598  11.774  12.797   9.636
37234SOL    HW113599  11.780  12.792   9.732
37234SOL    HW213600  11.809  12.713   9.606
37235SOL     OW13601   2.255   6.017   7.579
37235SOL    HW113602   2.305   5.957   7.524
37235SOL    HW213603   2.282   5.996   7.669
37236SOL     OW13604   9.791   3.711  13.936
37236SOL    HW113605   9.750   3.762  14.006
37236SOL    HW213606   9.885   3.726  13.948
37237SOL     OW13607  10.822  10.506  13.507
37237SOL    HW113608  10.857  10.435  13.560
37237SOL    HW213609  10.893  10.530  13.449
37238SOL     OW13610   5.484  11.637  13.617
37238SOL    HW113611   5.579  11.646  13.611
37238SOL    HW213612   5.471  11.550  13.656
37239SOL     OW13613  12.493   4.646   2.419
37239SOL    HW113614  12.415   4.676   2.464
37239SOL    HW213615  12.520   4.721   2.366
37240SOL     OW13616  12.238  13.960  12.869
37240SOL    HW113617  12.223  13.998  12.955
37240SOL    HW213618  12.199  14.022  12.807
37241SOL     OW13619   2.459   1.674  12.925
37241SOL    HW113620   2.470   1.705  12.835
37241SOL    HW213621   2.376   1.627  12.925
37242SOL     OW13622  12.595  10.818   7.372
37242SOL    HW113623  12.587  10.839   7.279
37242SOL    HW213624  12.686  10.792   7.384
37243SOL     OW13625   5.048   0.772  10.105
37243SOL    HW113626   5.052   0.712  10.179
37243SOL    HW213627   5.062   0.859  10.143
37244SOL     OW13628   1.845  11.615   2.893
37244SOL    HW113629   1.881  11.553   2.830
37244SOL    HW213630   1.783  11.563   2.945
37245SOL     OW13631   5.996  11.947  12.295
37245SOL    HW113632   6.004  11.974  12.203
37245SOL    HW213633   5.957  12.023  12.338
37246SOL     OW13634   5.593  10.014   8.540
37246SOL    HW113635   5.625   9.999   8.451
37246SOL    HW213636   5.670  10.008   8.596
37247SOL     OW13637   8.341   6.528  12.614
37247SOL    HW113638   8.299   6.447  12.586
37247SOL    HW213639   8.382   6.506  12.698
37248SOL     OW13640   9.921   6.857  10.729
37248SOL    HW113641   9.930   6.769  10.692
37248SOL    HW213642  10.007   6.875  10.767
37249SOL     OW13643  10.805   1.947   7.094
37249SOL    HW113644  10.811   2.000   7.173
37249SOL    HW213645  10.880   1.888   7.098
37250SOL     OW13646   7.223   8.335   2.221
37250SOL    HW113647   7.164   8.376   2.158
37250SOL    HW213648   7.274   8.408   2.257
37251SOL     OW13649   7.065  10.297   9.825
37251SOL    HW113650   7.148  10.259   9.797
37251SOL    HW213651   7.069  10.388   9.794
37252SOL     OW13652   4.937   5.865   3.851
37252SOL    HW113653   4.998   5.906   3.790
37252SOL    HW213654   4.992   5.821   3.915
37253SOL     OW13655  11.178   2.587   6.859
37253SOL    HW113656  11.194   2.496   6.886
37253SOL    HW213657  11.254   2.610   6.805
37254SOL     OW13658   1.290   6.217   4.849
37254SOL    HW113659   1.343   6.141   4.871
37254SOL    HW213660   1.226   6.184   4.785
37255SOL     OW13661   5.281  10.722   6.028
37255SOL    HW113662   5.290  10.666   5.952
37255SOL    HW213663   5.333  10.680   6.096
37256SOL     OW13664   7.869   9.241   2.588
37256SOL    HW113665   7.853   9.200   2.673
37256SOL    HW213666   7.929   9.313   2.607
37257SOL     OW13667  14.783   6.119  12.089
37257SOL    HW113668  14.838   6.044  12.114
37257SOL    HW213669  14.765   6.106  11.996
37258SOL     OW13670   4.287   5.810   9.289
37258SOL    HW113671   4.359   5.847   9.339
37258SOL    HW213672   4.280   5.865   9.211
37259SOL     OW13673   3.216   4.513   2.926
37259SOL    HW113674   3.169   4.455   2.866
37259SOL    HW213675   3.161   4.591   2.933
37260SOL     OW13676  12.339  13.731   6.393
37260SOL    HW113677  12.289  13.804   6.430
37260SOL    HW213678  12.420  13.771   6.362
37261SOL     OW13679   7.726  14.703  12.334
37261SOL    HW113680   7.679  14.774  12.378
37261SOL    HW213681   7.789  14.748  12.277
37262SOL     OW13682   1.185  13.754   8.227
37262SOL    HW113683   1.231  13.804   8.160
37262SOL    HW213684   1.251  13.736   8.294
37263SOL     OW13685   2.163   6.263  14.594
37263SOL    HW113686   2.207   6.214  14.664
37263SOL    HW213687   2.072   6.233  14.597
37264SOL     OW13688   2.688  13.351   0.159
37264SOL    HW113689   2.775  13.332   0.125
37264SOL    HW213690   2.670  13.441   0.131
37265SOL     OW13691   5.399   9.531   0.314
37265SOL    HW113692   5.338   9.603   0.331
37265SOL    HW213693   5.443   9.516   0.397
37266SOL     OW13694  12.274   5.692   1.595
37266SOL    HW113695  12.200   5.685   1.655
37266SOL    HW213696  12.246   5.644   1.517
37267SOL     OW13697  12.449  13.066   7.453
37267SOL    HW113698  12.418  13.017   7.529
37267SOL    HW213699  12.530  13.022   7.428
37268SOL     OW13700   6.156   3.835   8.202
37268SOL    HW113701   6.219   3.827   8.131
37268SOL    HW213702   6.092   3.899   8.170
37269SOL     OW13703  12.062   7.321  13.912
37269SOL    HW113704  12.068   7.392  13.849
37269SOL    HW213705  12.024   7.248  13.864
37270SOL     OW13706  10.293   3.795   3.474
37270SOL    HW113707  10.353   3.817   3.403
37270SOL    HW213708  10.346   3.802   3.553
37271SOL     OW13709   5.980   1.754   4.165
37271SOL    HW113710   6.044   1.775   4.097
37271SOL    HW213711   5.941   1.671   4.138
37272SOL     OW13712  10.311   0.867   1.188
37272SOL    HW113713  10.238   0.829   1.138
37272SOL    HW213714  10.373   0.897   1.121
37273SOL     OW13715   5.674   8.357  10.472
37273SOL    HW113716   5.581   8.339  10.486
37273SOL    HW213717   5.715   8.270  10.467
37274SOL     OW13718   8.251  14.585   4.689
37274SOL    HW113719   8.208  14.502   4.710
37274SOL    HW213720   8.334  14.560   4.649
37275SOL     OW13721   1.354   1.530   0.314
37275SOL    HW113722   1.416   1.602   0.330
37275SOL    HW213723   1.297   1.531   0.391
37276SOL     OW13724   6.460   5.114   5.780
37276SOL    HW113725   6.372   5.086   5.806
37276SOL    HW213726   6.499   5.150   5.859
37277SOL     OW13727  13.249   7.781   3.269
37277SOL    HW113728  13.173   7.813   3.223
37277SOL    HW213729  13.273   7.700   3.224
37278SOL     OW13730   4.623  14.401  12.271
37278SOL    HW113731   4.671  14.474  12.312
37278SOL    HW213732   4.593  14.349  12.345
37279SOL     OW13733   7.910   3.288   9.227
37279SOL    HW113734   7.983   3.230   9.206
37279SOL    HW213735   7.924   3.365   9.172
37280SOL     OW13736   0.584   1.237   1.095
37280SOL    HW113737   0.657   1.245   1.034
37280SOL    HW213738   0.535   1.318   1.085
37281SOL     OW13739   7.192   6.387  11.520
37281SOL    HW113740   7.203   6.295  11.543
37281SOL    HW213741   7.098   6.402  11.523
37282SOL     OW13742   6.820  12.926   3.930
37282SOL    HW113743   6.916  12.921   3.937
37282SOL    HW213744   6.794  12.838   3.901
37283SOL     OW13745   8.164   4.393   3.322
37283SOL    HW113746   8.121   4.380   3.238
37283SOL    HW213747   8.245   4.439   3.301
37284SOL     OW13748   9.177   5.698   2.815
37284SOL    HW113749   9.163   5.629   2.880
37284SOL    HW213750   9.186   5.778   2.866
37285SOL     OW13751  14.722   1.508   2.038
37285SOL    HW113752  14.791   1.491   2.103
37285SOL    HW213753  14.755   1.581   1.986
37286SOL     OW13754   6.914   5.601  14.194
37286SOL    HW113755   6.859   5.677  14.212
37286SOL    HW213756   6.924   5.559  14.280
37287SOL     OW13757   2.081   0.360  14.562
37287SOL    HW113758   2.078   0.318  14.476
37287SOL    HW213759   2.057   0.451  14.545
37288SOL     OW13760   4.813   3.552   2.662
37288SOL    HW113761   4.902   3.588   2.659
37288SOL    HW213762   4.805   3.515   2.750
37289SOL     OW13763  11.410  12.574  14.647
37289SOL    HW113764  11.337  12.546  14.593
37289SOL    HW213765  11.431  12.498  14.701
37290SOL     OW13766   5.099   7.754  13.408
37290SOL    HW113767   5.132   7.687  13.468
37290SOL    HW213768   5.102   7.713  13.321
37291SOL     OW13769   0.151   3.823  10.324
37291SOL    HW113770   0.177   3.764  10.395
37291SOL    HW213771   0.162   3.911  10.360
37292SOL     OW13772   4.589   1.229   2.112
37292SOL    HW113773   4.577   1.134   2.116
37292SOL    HW213774   4.565   1.252   2.022
37293SOL     OW13775  14.040  12.680   7.160
37293SOL    HW113776  14.092  12.631   7.095
37293SOL    HW213777  14.091  12.759   7.176
37294SOL     OW13778   2.204   5.866   9.462
37294SOL    HW113779   2.251   5.846   9.381
37294SOL    HW213780   2.163   5.951   9.446
37295SOL     OW13781   6.153  11.746   1.753
37295SOL    HW113782   6.195  11.792   1.826
37295SOL    HW213783   6.112  11.815   1.702
37296SOL     OW13784  11.203  14.208   2.246
37296SOL    HW113785  11.187  14.257   2.166
37296SOL    HW213786  11.295  14.224   2.266
37297SOL     OW13787   7.915   7.543  13.033
37297SOL    HW113788   7.980   7.496  13.086
37297SOL    HW213789   7.834   7.494  13.046
37298SOL     OW13790   5.325  12.801   9.504
37298SOL    HW113791   5.256  12.744   9.471
37298SOL    HW213792   5.404  12.746   9.503
37299SOL     OW13793   7.803  11.941   7.187
37299SOL    HW113794   7.782  11.938   7.094
37299SOL    HW213795   7.731  11.991   7.226
37300SOL     OW13796   7.574  13.727   7.943
37300SOL    HW113797   7.641  13.668   7.908
37300SOL    HW213798   7.550  13.783   7.869
37301SOL     OW13799  11.121   2.783   4.097
37301SOL    HW113800  11.116   2.815   4.187
37301SOL    HW213801  11.176   2.705   4.102
37302SOL     OW13802   6.446  13.730   2.203
37302SOL    HW113803   6.481  13.801   2.257
37302SOL    HW213804   6.354  13.724   2.228
37303SOL     OW13805   1.021  12.042   6.745
37303SOL    HW113806   1.098  12.084   6.707
37303SOL    HW213807   1.033  11.948   6.727
37304SOL     OW13808   1.464   2.497   8.104
37304SOL    HW113809   1.451   2.587   8.072
37304SOL    HW213810   1.376   2.463   8.117
37305SOL     OW13811   5.972   8.793  12.323
37305SOL    HW113812   6.003   8.865  12.268
37305SOL    HW213813   5.999   8.714  12.276
37306SOL     OW13814   8.671   5.912   6.704
37306SOL    HW113815   8.647   5.911   6.796
37306SOL    HW213816   8.766   5.926   6.704
37307SOL     OW13817   5.048   0.248   2.647
37307SOL    HW113818   5.082   0.319   2.592
37307SOL    HW213819   4.996   0.194   2.588
37308SOL     OW13820   7.029   1.888  14.813
37308SOL    HW113821   6.934   1.877  14.816
37308SOL    HW213822   7.062   1.833   0.016
37309SOL     OW13823   9.150  14.771   0.709
37309SOL    HW113824   9.220  14.707   0.720
37309SOL    HW213825   9.154  14.824   0.788
37310SOL     OW13826   8.705   7.696   1.185
37310SOL    HW113827   8.790   7.733   1.162
37310SOL    HW213828   8.647   7.772   1.195
37311SOL     OW13829   9.573   7.502  12.204
37311SOL    HW113830   9.532   7.528  12.286
37311SOL    HW213831   9.589   7.408  12.213
37312SOL     OW13832  10.201  12.772   9.308
37312SOL    HW113833  10.246  12.856   9.306
37312SOL    HW213834  10.248  12.722   9.375
37313SOL     OW13835   7.844  11.149  11.813
37313SOL    HW113836   7.786  11.188  11.878
37313SOL    HW213837   7.791  11.144  11.733
37314SOL     OW13838   8.978  12.110  11.931
37314SOL    HW113839   8.888  12.119  11.901
37314SOL    HW213840   8.992  12.015  11.936
37315SOL     OW13841  14.309  13.962   7.587
37315SOL    HW113842  14.241  13.939   7.650
37315SOL    HW213843  14.365  14.023   7.634
37316SOL     OW13844  13.795   4.297   6.611
37316SOL    HW113845  13.787   4.366   6.545
37316SOL    HW213846  13.809   4.343   6.694
37317SOL     OW13847   3.999  13.255   6.555
37317SOL    HW113848   4.086  13.242   6.518
37317SOL    HW213849   3.945  13.188   6.513
37318SOL     OW13850   5.965  11.136   9.507
37318SOL    HW113851   6.017  11.056   9.502
37318SOL    HW213852   6.026  11.206   9.485
37319SOL     OW13853   3.057   7.696   3.635
37319SOL    HW113854   3.110   7.712   3.557
37319SOL    HW213855   3.043   7.601   3.634
37320SOL     OW13856   6.717   6.274  10.343
37320SOL    HW113857   6.733   6.180  10.350
37320SOL    HW213858   6.624   6.283  10.362
37321SOL     OW13859   0.572  14.243   4.970
37321SOL    HW113860   0.568  14.173   5.035
37321SOL    HW213861   0.498  14.226   4.911
37322SOL     OW13862   3.391   2.673   6.120
37322SOL    HW113863   3.444   2.751   6.135
37322SOL    HW213864   3.322   2.701   6.060
37323SOL     OW13865   4.896  13.284   8.981
37323SOL    HW113866   4.938  13.199   8.993
37323SOL    HW213867   4.823  13.266   8.922
37324SOL     OW13868   9.874  11.965   0.451
37324SOL    HW113869   9.862  11.872   0.469
37324SOL    HW213870   9.968  11.974   0.435
37325SOL     OW13871   9.244  10.735   4.184
37325SOL    HW113872   9.263  10.817   4.138
37325SOL    HW213873   9.256  10.667   4.118
37326SOL     OW13874   1.813   0.517   0.964
37326SOL    HW113875   1.756   0.551   0.895
37326SOL    HW213876   1.759   0.454   1.011
37327SOL     OW13877  10.157   7.259  10.291
37327SOL    HW113878  10.074   7.292  10.324
37327SOL    HW213879  10.223   7.316  10.330
37328SOL     OW13880   1.151   3.484   3.321
37328SOL    HW113881   1.062   3.512   3.300
37328SOL    HW213882   1.164   3.406   3.267
37329SOL     OW13883   9.922   3.162  11.636
37329SOL    HW113884   9.975   3.092  11.598
37329SOL    HW213885   9.837   3.122  11.653
37330SOL     OW13886   6.797  12.339  12.842
37330SOL    HW113887   6.794  12.384  12.927
37330SOL    HW213888   6.890  12.319  12.829
37331SOL     OW13889  14.532  10.772   5.375
37331SOL    HW113890  14.518  10.867   5.383
37331SOL    HW213891  14.628  10.762   5.375
37332SOL     OW13892  14.529   6.297   4.819
37332SOL    HW113893  14.577   6.359   4.873
37332SOL    HW213894  14.438   6.305   4.848
37333SOL     OW13895   1.918   4.488  14.697
37333SOL    HW113896   1.992   4.436  14.668
37333SOL    HW213897   1.942   4.519  14.784
37334SOL     OW13898  10.103   3.943   6.300
37334SOL    HW113899  10.142   3.881   6.238
37334SOL    HW213900  10.010   3.919   6.302
37335SOL     OW13901   2.589   3.618  10.317
37335SOL    HW113902   2.654   3.562  10.358
37335SOL    HW213903   2.596   3.599  10.223
37336SOL     OW13904   0.022   2.012   0.458
37336SOL    HW113905   0.062   2.080   0.405
37336SOL    HW213906  14.813   1.984   0.408
37337SOL     OW13907  11.192   8.991   2.888
37337SOL    HW113908  11.271   8.969   2.937
37337SOL    HW213909  11.146   8.908   2.876
37338SOL     OW13910  11.715  14.471  11.817
37338SOL    HW113911  11.780  14.525  11.773
37338SOL    HW213912  11.664  14.533  11.869
37339SOL     OW13913  13.789   0.886  10.335
37339SOL    HW113914  13.754   0.879  10.246
37339SOL    HW213915  13.742   0.820  10.385
37340SOL     OW13916   9.235   1.577  13.405
37340SOL    HW113917   9.146   1.541  13.407
37340SOL    HW213918   9.237   1.640  13.478
37341SOL     OW13919   9.070   5.529   6.117
37341SOL    HW113920   9.014   5.601   6.146
37341SOL    HW213921   9.009   5.460   6.092
37342SOL     OW13922  11.241  14.130   2.523
37342SOL    HW113923  11.190  14.116   2.604
37342SOL    HW213924  11.175  14.152   2.457
37343SOL     OW13925  13.410  10.761  11.790
37343SOL    HW113926  13.324  10.787  11.758
37343SOL    HW213927  13.470  10.823  11.749
37344SOL     OW13928   6.212  12.161   7.303
37344SOL    HW113929   6.287  12.220   7.308
37344SOL    HW213930   6.205  12.138   7.210
37345SOL     OW13931   7.233   8.465   0.231
37345SOL    HW113932   7.305   8.462   0.295
37345SOL    HW213933   7.255   8.539   0.175
37346SOL     OW13934   9.590   5.656   3.727
37346SOL    HW113935   9.617   5.618   3.644
37346SOL    HW213936   9.589   5.750   3.711
37347SOL     OW13937   8.859   6.070  12.217
37347SOL    HW113938   8.919   6.041  12.148
37347SOL    HW213939   8.875   6.164  12.224
37348SOL     OW13940   3.468   8.959   7.352
37348SOL    HW113941   3.482   8.864   7.354
37348SOL    HW213942   3.481   8.987   7.443
37349SOL     OW13943  13.219   6.702   6.374
37349SOL    HW113944  13.156   6.754   6.326
37349SOL    HW213945  13.185   6.612   6.370
37350SOL     OW13946   2.740   2.314  14.845
37350SOL    HW113947   2.786   2.385  14.800
37350SOL    HW213948   2.769   2.321   0.068
37351SOL     OW13949   2.897   1.737   2.058
37351SOL    HW113950   2.980   1.697   2.029
37351SOL    HW213951   2.874   1.688   2.137
37352SOL     OW13952   0.435   2.907  13.951
37352SOL    HW113953   0.429   2.995  13.913
37352SOL    HW213954   0.465   2.851  13.879
37353SOL     OW13955   4.391  12.424   7.696
37353SOL    HW113956   4.305  12.409   7.658
37353SOL    HW213957   4.415  12.341   7.736
37354SOL     OW13958   2.543   6.063   3.935
37354SOL    HW113959   2.563   6.156   3.949
37354SOL    HW213960   2.542   6.053   3.840
37355SOL     OW13961   1.344  14.314   8.427
37355SOL    HW113962   1.409  14.384   8.436
37355SOL    HW213963   1.335  14.279   8.516
37356SOL     OW13964   5.127   3.902   8.757
37356SOL    HW113965   5.090   3.855   8.683
37356SOL    HW213966   5.143   3.835   8.823
37357SOL     OW13967  12.069   4.215   8.960
37357SOL    HW113968  12.107   4.163   9.031
37357SOL    HW213969  12.056   4.301   8.999
37358SOL     OW13970   9.597   6.336   4.906
37358SOL    HW113971   9.594   6.423   4.868
37358SOL    HW213972   9.505   6.308   4.909
37359SOL     OW13973   4.828   9.798  13.939
37359SOL    HW113974   4.912   9.756  13.955
37359SOL    HW213975   4.813   9.853  14.015
37360SOL     OW13976   7.455   3.870  11.933
37360SOL    HW113977   7.422   3.944  11.984
37360SOL    HW213978   7.488   3.909  11.853
37361SOL     OW13979  11.948  13.162   5.479
37361SOL    HW113980  11.955  13.100   5.407
37361SOL    HW213981  11.953  13.109   5.558
37362SOL     OW13982  13.435  14.072   0.139
37362SOL    HW113983  13.371  14.032   0.198
37362SOL    HW213984  13.511  14.091   0.195
37363SOL     OW13985   6.512  11.882   1.330
37363SOL    HW113986   6.497  11.976   1.333
37363SOL    HW213987   6.427  11.843   1.352
37364SOL     OW13988   9.591   5.056   6.036
37364SOL    HW113989   9.675   5.050   6.082
37364SOL    HW213990   9.615   5.059   5.943
37365SOL     OW13991   3.720  13.351  14.219
37365SOL    HW113992   3.781  13.338  14.146
37365SOL    HW213993   3.633  13.351  14.178
37366SOL     OW13994  10.446   8.013   2.757
37366SOL    HW113995  10.461   7.963   2.677
37366SOL    HW213996  10.532   8.016   2.800
37367SOL     OW13997  10.869   2.536   6.920
37367SOL    HW113998  10.954   2.576   6.901
37367SOL    HW213999  10.806   2.608   6.908
37368SOL     OW14000   0.748  10.467  10.233
37368SOL    HW114001   0.712  10.539  10.285
37368SOL    HW214002   0.822  10.506  10.187
37369SOL     OW14003   1.962  12.834   8.230
37369SOL    HW114004   2.048  12.866   8.204
37369SOL    HW214005   1.949  12.754   8.178
37370SOL     OW14006   1.133   8.037   9.551
37370SOL    HW114007   1.078   7.990   9.614
37370SOL    HW214008   1.101   8.008   9.466
37371SOL     OW14009   7.521   7.024  10.986
37371SOL    HW114010   7.609   7.019  11.022
37371SOL    HW214011   7.464   7.035  11.062
37372SOL     OW14012  10.964   9.653   8.672
37372SOL    HW114013  10.965   9.600   8.752
37372SOL    HW214014  10.947   9.742   8.703
37373SOL     OW14015   6.485   1.650  14.317
37373SOL    HW114016   6.493   1.606  14.233
37373SOL    HW214017   6.392   1.644  14.338
37374SOL     OW14018   6.416   4.705   1.932
37374SOL    HW114019   6.491   4.741   1.886
37374SOL    HW214020   6.341   4.731   1.879
37375SOL     OW14021  11.787  12.415   0.277
37375SOL    HW114022  11.720  12.350   0.255
37375SOL    HW214023  11.826  12.439   0.192
37376SOL     OW14024   7.247   9.683  10.345
37376SOL    HW114025   7.192   9.761  10.353
37376SOL    HW214026   7.189   9.610  10.368
37377SOL     OW14027   2.065   7.955  10.221
37377SOL    HW114028   2.116   7.877  10.202
37377SOL    HW214029   2.046   7.950  10.315
37378SOL     OW14030   8.973  10.561  10.892
37378SOL    HW114031   8.922  10.498  10.841
37378SOL    HW214032   9.042  10.508  10.933
37379SOL     OW14033   7.225   8.252   1.756
37379SOL    HW114034   7.244   8.191   1.827
37379SOL    HW214035   7.202   8.196   1.682
37380SOL     OW14036   9.243  14.392   9.894
37380SOL    HW114037   9.160  14.400   9.941
37380SOL    HW214038   9.308  14.379   9.963
37381SOL     OW14039   4.028   6.835   6.323
37381SOL    HW114040   3.939   6.813   6.297
37381SOL    HW214041   4.043   6.921   6.283
37382SOL     OW14042  13.229   4.137   8.670
37382SOL    HW114043  13.271   4.142   8.756
37382SOL    HW214044  13.211   4.044   8.657
37383SOL     OW14045  11.464  14.424   9.231
37383SOL    HW114046  11.406  14.398   9.303
37383SOL    HW214047  11.425  14.504   9.197
37384SOL     OW14048   8.288   8.913  13.611
37384SOL    HW114049   8.229   8.839  13.613
37384SOL    HW214050   8.239   8.985  13.651
37385SOL     OW14051   1.161   9.849   5.320
37385SOL    HW114052   1.121   9.903   5.251
37385SOL    HW214053   1.254   9.870   5.317
37386SOL     OW14054   2.556   9.838   9.220
37386SOL    HW114055   2.541   9.876   9.307
37386SOL    HW214056   2.468   9.820   9.186
37387SOL     OW14057   9.796   9.613  11.005
37387SOL    HW114058   9.799   9.530  10.956
37387SOL    HW214059   9.703   9.626  11.023
37388SOL     OW14060   7.319   0.691   9.869
37388SOL    HW114061   7.364   0.656   9.945
37388SOL    HW214062   7.268   0.765   9.902
37389SOL     OW14063   2.006   2.227   2.451
37389SOL    HW114064   1.951   2.301   2.475
37389SOL    HW214065   1.945   2.155   2.437
37390SOL     OW14066  13.582   3.291  12.672
37390SOL    HW114067  13.624   3.338  12.743
37390SOL    HW214068  13.622   3.203  12.675
37391SOL     OW14069   6.327   9.313  12.060
37391SOL    HW114070   6.352   9.227  12.093
37391SOL    HW214071   6.242   9.331  12.100
37392SOL     OW14072   8.845  14.212   3.639
37392SOL    HW114073   8.854  14.285   3.701
37392SOL    HW214074   8.935  14.190   3.615
37393SOL     OW14075  11.573   1.357   8.679
37393SOL    HW114076  11.573   1.321   8.767
37393SOL    HW214077  11.571   1.281   8.621
37394SOL     OW14078  11.393  10.494   4.688
37394SOL    HW114079  11.436  10.513   4.604
37394SOL    HW214080  11.349  10.575   4.711
37395SOL     OW14081  14.585   7.531  14.195
37395SOL    HW114082  14.670   7.572  14.209
37395SOL    HW214083  14.523   7.604  14.199
37396SOL     OW14084   7.968  13.961  14.533
37396SOL    HW114085   7.955  13.885  14.477
37396SOL    HW214086   7.898  14.022  14.507
37397SOL     OW14087  12.539   8.485   8.131
37397SOL    HW114088  12.483   8.558   8.157
37397SOL    HW214089  12.484   8.432   8.073
37398SOL     OW14090   0.913   3.766   2.675
37398SOL    HW114091   0.993   3.718   2.655
37398SOL    HW214092   0.889   3.807   2.591
37399SOL     OW14093   4.319   3.713   8.609
37399SOL    HW114094   4.254   3.751   8.668
37399SOL    HW214095   4.367   3.788   8.574
37400SOL     OW14096   2.663  14.766   0.144
37400SOL    HW114097   2.632  14.693   0.090
37400SOL    HW214098   2.731  14.808   0.091
37401SOL     OW14099   3.245   5.500   9.877
37401SOL    HW114100   3.185   5.524   9.806
37401SOL    HW214101   3.289   5.421   9.844
37402SOL     OW14102  10.231   9.467   7.542
37402SOL    HW114103  10.158   9.488   7.600
37402SOL    HW214104  10.261   9.551   7.509
37403SOL     OW14105   8.845  14.770  10.366
37403SOL    HW114106   8.800  14.685  10.359
37403SOL    HW214107   8.876  14.787  10.277
37404SOL     OW14108  12.944   7.245   0.020
37404SOL    HW114109  12.990   7.324  14.862
37404SOL    HW214110  13.013   7.186   0.050
37405SOL     OW14111  12.755   8.342   4.693
37405SOL    HW114112  12.788   8.385   4.772
37405SOL    HW214113  12.701   8.409   4.651
37406SOL     OW14114   5.963  14.712   7.554
37406SOL    HW114115   5.945  14.631   7.506
37406SOL    HW214116   6.007  14.684   7.634
37407SOL     OW14117   6.182   0.590   4.203
37407SOL    HW114118   6.178   0.558   4.293
37407SOL    HW214119   6.108   0.651   4.196
37408SOL     OW14120  12.673  13.446   4.898
37408SOL    HW114121  12.753  13.421   4.851
37408SOL    HW214122  12.606  13.448   4.830
37409SOL     OW14123   3.708   1.154   7.026
37409SOL    HW114124   3.681   1.219   7.091
37409SOL    HW214125   3.765   1.094   7.074
37410SOL     OW14126  10.485   9.232   7.891
37410SOL    HW114127  10.501   9.212   7.798
37410SOL    HW214128  10.527   9.317   7.904
37411SOL     OW14129   5.321  11.019  13.395
37411SOL    HW114130   5.323  10.924  13.407
37411SOL    HW214131   5.228  11.041  13.396
37412SOL     OW14132   5.134   2.305  14.828
37412SOL    HW114133   5.120   2.400  14.831
37412SOL    HW214134   5.053   2.270  14.791
37413SOL     OW14135   5.840   8.867   1.130
37413SOL    HW114136   5.765   8.809   1.111
37413SOL    HW214137   5.811   8.918   1.206
37414SOL     OW14138  10.606   6.933   2.855
37414SOL    HW114139  10.567   6.984   2.784
37414SOL    HW214140  10.684   6.893   2.816
37415SOL     OW14141   9.233  14.855   6.109
37415SOL    HW114142   9.311   0.021   6.065
37415SOL    HW214143   9.160   0.034   6.068
37416SOL     OW14144  13.236  14.512   0.442
37416SOL    HW114145  13.141  14.503   0.452
37416SOL    HW214146  13.271  14.496   0.529
37417SOL     OW14147   2.989   4.926   7.687
37417SOL    HW114148   2.914   4.977   7.654
37417SOL    HW214149   3.044   4.990   7.731
37418SOL     OW14150  10.092   3.918   4.593
37418SOL    HW114151  10.158   3.873   4.539
37418SOL    HW214152  10.022   3.853   4.604
37419SOL     OW14153   9.805   1.698   1.622
37419SOL    HW114154   9.828   1.681   1.530
37419SOL    HW214155   9.857   1.634   1.671
37420SOL     OW14156  10.947  11.200  12.155
37420SOL    HW114157  10.863  11.245  12.147
37420SOL    HW214158  11.011  11.261  12.121
37421SOL     OW14159   5.591   9.388   0.206
37421SOL    HW114160   5.505   9.411   0.243
37421SOL    HW214161   5.588   9.422   0.117
37422SOL     OW14162   3.028   7.096   4.883
37422SOL    HW114163   3.082   7.152   4.937
37422SOL    HW214164   3.056   7.114   4.793
37423SOL     OW14165   4.966   0.004   2.072
37423SOL    HW114166   5.037  14.821   2.033
37423SOL    HW214167   4.892  14.811   2.076
37424SOL     OW14168   1.854  10.689   8.639
37424SOL    HW114169   1.948  10.668   8.636
37424SOL    HW214170   1.840  10.724   8.727
37425SOL     OW14171   9.738   9.106   6.810
37425SOL    HW114172   9.830   9.094   6.831
37425SOL    HW214173   9.691   9.066   6.883
37426SOL     OW14174   0.230   3.592   0.714
37426SOL    HW114175   0.246   3.677   0.754
37426SOL    HW214176   0.168   3.548   0.773
37427SOL     OW14177   3.803   9.474   6.241
37427SOL    HW114178   3.816   9.384   6.271
37427SOL    HW214179   3.734   9.509   6.298
37428SOL     OW14180   1.690   6.077   9.830
37428SOL    HW114181   1.599   6.055   9.809
37428SOL    HW214182   1.707   6.033   9.913
37429SOL     OW14183  12.023   8.534   4.865
37429SOL    HW114184  12.024   8.605   4.802
37429SOL    HW214185  11.966   8.566   4.936
37430SOL     OW14186  11.489   7.194   1.557
37430SOL    HW114187  11.499   7.273   1.609
37430SOL    HW214188  11.504   7.122   1.618
37431SOL     OW14189  10.881   6.304  11.069
37431SOL    HW114190  10.965   6.260  11.073
37431SOL    HW214191  10.902   6.397  11.074
37432SOL     OW14192   2.956  14.052   8.768
37432SOL    HW114193   2.920  14.129   8.812
37432SOL    HW214194   3.002  14.004   8.837
37433SOL     OW14195   8.577  12.928  11.297
37433SOL    HW114196   8.549  12.916  11.206
37433SOL    HW214197   8.660  12.975  11.291
37434SOL     OW14198   3.547   0.668   3.227
37434SOL    HW114199   3.497   0.749   3.237
37434SOL    HW214200   3.507   0.606   3.288
37435SOL     OW14201   1.762   0.094   0.778
37435SOL    HW114202   1.714   0.084   0.860
37435SOL    HW214203   1.846   0.051   0.794
37436SOL     OW14204  13.795   2.241   3.681
37436SOL    HW114205  13.890   2.258   3.684
37436SOL    HW214206  13.777   2.190   3.760
37437SOL     OW14207  11.026   8.471   8.627
37437SOL    HW114208  10.957   8.453   8.564
37437SOL    HW214209  11.098   8.506   8.574
37438SOL     OW14210   8.165   1.386   3.767
37438SOL    HW114211   8.070   1.378   3.757
37438SOL    HW214212   8.187   1.467   3.721
37439SOL     OW14213   2.374  13.047  14.256
37439SOL    HW114214   2.451  13.056  14.312
37439SOL    HW214215   2.300  13.056  14.316
37440SOL     OW14216   9.472  14.502  12.905
37440SOL    HW114217   9.430  14.491  12.820
37440SOL    HW214218   9.544  14.440  12.905
37441SOL     OW14219   5.667   2.330   2.498
37441SOL    HW114220   5.600   2.263   2.506
37441SOL    HW214221   5.657   2.384   2.576
37442SOL     OW14222   9.587  14.766  12.267
37442SOL    HW114223   9.645  14.753  12.342
37442SOL    HW214224   9.516  14.704  12.281
37443SOL     OW14225  13.955   6.989  10.006
37443SOL    HW114226  13.985   7.032   9.926
37443SOL    HW214227  14.022   6.923  10.025
37444SOL     OW14228   3.276   7.889  14.308
37444SOL    HW114229   3.239   7.805  14.335
37444SOL    HW214230   3.260   7.947  14.382
37445SOL     OW14231  14.642   3.873   3.297
37445SOL    HW114232  14.690   3.812   3.353
37445SOL    HW214233  14.611   3.941   3.357
37446SOL     OW14234   1.856  14.637   5.512
37446SOL    HW114235   1.908  14.564   5.477
37446SOL    HW214236   1.838  14.692   5.436
37447SOL     OW14237  10.530   3.794   7.201
37447SOL    HW114238  10.548   3.886   7.182
37447SOL    HW214239  10.438   3.794   7.229
37448SOL     OW14240   2.682   6.790   7.430
37448SOL    HW114241   2.597   6.745   7.432
37448SOL    HW214242   2.660   6.880   7.407
37449SOL     OW14243   8.160   6.871   1.429
37449SOL    HW114244   8.146   6.943   1.367
37449SOL    HW214245   8.086   6.812   1.413
37450SOL     OW14246   1.887   6.830   4.873
37450SOL    HW114247   1.810   6.773   4.873
37450SOL    HW214248   1.936   6.804   4.795
37451SOL     OW14249  13.929   0.885   5.844
37451SOL    HW114250  13.921   0.794   5.815
37451SOL    HW214251  14.023   0.904   5.838
37452SOL     OW14252   6.167   6.688   1.742
37452SOL    HW114253   6.224   6.765   1.749
37452SOL    HW214254   6.096   6.705   1.804
37453SOL     OW14255   4.096   3.908   4.477
37453SOL    HW114256   4.178   3.912   4.528
37453SOL    HW214257   4.106   3.831   4.422
37454SOL     OW14258   7.275  14.551   1.230
37454SOL    HW114259   7.254  14.604   1.307
37454SOL    HW214260   7.240  14.600   1.156
37455SOL     OW14261   9.686   1.199   1.365
37455SOL    HW114262   9.728   1.114   1.351
37455SOL    HW214263   9.616   1.180   1.428
37456SOL     OW14264   8.330  12.324   3.680
37456SOL    HW114265   8.343  12.417   3.662
37456SOL    HW214266   8.235  12.314   3.689
37457SOL     OW14267   0.165   4.958  11.719
37457SOL    HW114268   0.203   5.025  11.776
37457SOL    HW214269   0.078   4.941  11.757
37458SOL     OW14270   2.389   9.280   8.175
37458SOL    HW114271   2.377   9.358   8.120
37458SOL    HW214272   2.300   9.255   8.200
37459SOL     OW14273  12.850  14.007   3.770
37459SOL    HW114274  12.845  14.080   3.831
37459SOL    HW214275  12.790  14.031   3.699
37460SOL     OW14276  11.116  13.685   5.978
37460SOL    HW114277  11.121  13.625   5.903
37460SOL    HW214278  11.097  13.770   5.939
37461SOL     OW14279   6.250   0.606   0.364
37461SOL    HW114280   6.341   0.611   0.334
37461SOL    HW214281   6.248   0.529   0.422
37462SOL     OW14282   8.224  13.780   4.773
37462SOL    HW114283   8.148  13.837   4.784
37462SOL    HW214284   8.299  13.834   4.799
37463SOL     OW14285   2.582   7.985   9.057
37463SOL    HW114286   2.604   7.904   9.010
37463SOL    HW214287   2.487   7.982   9.067
37464SOL     OW14288   6.898   8.038  12.518
37464SOL    HW114289   6.908   8.119  12.568
37464SOL    HW214290   6.955   8.050  12.442
37465SOL     OW14291  14.265   4.839  13.857
37465SOL    HW114292  14.296   4.841  13.948
37465SOL    HW214293  14.313   4.767  13.817
37466SOL     OW14294   2.194   7.829  10.924
37466SOL    HW114295   2.224   7.762  10.985
37466SOL    HW214296   2.141   7.888  10.978
37467SOL     OW14297   6.628   0.851   1.993
37467SOL    HW114298   6.562   0.847   2.062
37467SOL    HW214299   6.584   0.897   1.921
37468SOL     OW14300  12.867   8.909   2.130
37468SOL    HW114301  12.818   8.899   2.048
37468SOL    HW214302  12.800   8.919   2.197
37469SOL     OW14303   0.679   1.016  14.425
37469SOL    HW114304   0.627   0.989  14.500
37469SOL    HW214305   0.744   0.946  14.414
37470SOL     OW14306   2.709  10.820   5.147
37470SOL    HW114307   2.648  10.879   5.104
37470SOL    HW214308   2.784  10.875   5.170
37471SOL     OW14309   3.593  11.293   5.058
37471SOL    HW114310   3.550  11.223   5.010
37471SOL    HW214311   3.670  11.252   5.097
37472SOL     OW14312  10.200   6.752   6.998
37472SOL    HW114313  10.178   6.666   6.961
37472SOL    HW214314  10.191   6.813   6.925
37473SOL     OW14315   4.461   7.659   6.773
37473SOL    HW114316   4.524   7.627   6.709
37473SOL    HW214317   4.502   7.738   6.809
37474SOL     OW14318   6.445   6.730   7.562
37474SOL    HW114319   6.472   6.691   7.645
37474SOL    HW214320   6.357   6.763   7.579
37475SOL     OW14321  13.280  14.304   0.056
37475SOL    HW114322  13.288  14.381   0.112
37475SOL    HW214323  13.330  14.236   0.102
37476SOL     OW14324  14.638  14.760   5.772
37476SOL    HW114325  14.684  14.832   5.816
37476SOL    HW214326  14.670  14.681   5.816
37477SOL     OW14327   1.839   5.174   8.346
37477SOL    HW114328   1.900   5.247   8.336
37477SOL    HW214329   1.753   5.215   8.343
37478SOL     OW14330  14.539   9.941   3.738
37478SOL    HW114331  14.484  10.011   3.703
37478SOL    HW214332  14.529   9.948   3.833
37479SOL     OW14333   5.411   7.347   4.783
37479SOL    HW114334   5.451   7.304   4.708
37479SOL    HW214335   5.409   7.280   4.851
37480SOL     OW14336   0.870   5.744  14.827
37480SOL    HW114337   0.781   5.775  14.842
37480SOL    HW214338   0.926   5.818  14.854
37481SOL     OW14339   7.896  13.757   9.880
37481SOL    HW114340   7.804  13.741   9.900
37481SOL    HW214341   7.896  13.841   9.834
37482SOL     OW14342   9.611   4.555   6.666
37482SOL    HW114343   9.676   4.605   6.617
37482SOL    HW214344   9.527   4.588   6.634
37483SOL     OW14345  14.851   4.586   4.247
37483SOL    HW114346  14.845   4.667   4.196
37483SOL    HW214347  14.794   4.525   4.201
37484SOL     OW14348   5.643   6.516  14.609
37484SOL    HW114349   5.672   6.572  14.537
37484SOL    HW214350   5.568   6.561  14.646
37485SOL     OW14351  11.624   8.145   3.714
37485SOL    HW114352  11.645   8.153   3.621
37485SOL    HW214353  11.671   8.217   3.756
37486SOL     OW14354  13.868   0.510   0.821
37486SOL    HW114355  13.927   0.497   0.896
37486SOL    HW214356  13.798   0.565   0.856
37487SOL     OW14357   3.495   8.222   9.933
37487SOL    HW114358   3.430   8.281   9.970
37487SOL    HW214359   3.552   8.200  10.006
37488SOL     OW14360   5.318   4.104  14.261
37488SOL    HW114361   5.301   4.035  14.324
37488SOL    HW214362   5.382   4.067  14.201
37489SOL     OW14363   0.915  11.505  11.718
37489SOL    HW114364   0.850  11.439  11.694
37489SOL    HW214365   0.956  11.470  11.798
37490SOL     OW14366   8.667   1.569  11.134
37490SOL    HW114367   8.690   1.486  11.094
37490SOL    HW214368   8.750   1.612  11.151
37491SOL     OW14369   8.189   6.136   5.824
37491SOL    HW114370   8.177   6.085   5.744
37491SOL    HW214371   8.110   6.119   5.875
37492SOL     OW14372   2.614   6.357  12.222
37492SOL    HW114373   2.601   6.303  12.144
37492SOL    HW214374   2.596   6.298  12.295
37493SOL     OW14375  10.578   4.554   4.971
37493SOL    HW114376  10.568   4.502   5.051
37493SOL    HW214377  10.599   4.490   4.903
37494SOL     OW14378  14.179  10.410   5.536
37494SOL    HW114379  14.228  10.337   5.499
37494SOL    HW214380  14.106  10.370   5.582
37495SOL     OW14381   1.919  12.759   2.054
37495SOL    HW114382   1.945  12.835   2.106
37495SOL    HW214383   1.982  12.691   2.080
37496SOL     OW14384   4.948  11.641  12.814
37496SOL    HW114385   4.949  11.632  12.909
37496SOL    HW214386   4.884  11.576  12.784
37497SOL     OW14387   5.272   1.243  10.440
37497SOL    HW114388   5.365   1.226  10.426
37497SOL    HW214389   5.243   1.171  10.495
37498SOL     OW14390   3.965   6.399   9.988
37498SOL    HW114391   3.979   6.313   9.948
37498SOL    HW214392   4.047   6.419  10.032
37499SOL     OW14393   3.754   3.156   0.955
37499SOL    HW114394   3.706   3.078   0.925
37499SOL    HW214395   3.821   3.122   1.013
37500SOL     OW14396   1.926   2.779   1.960
37500SOL    HW114397   1.883   2.768   1.875
37500SOL    HW214398   1.902   2.702   2.010
37501SOL     OW14399  10.483   4.927   4.213
37501SOL    HW114400  10.417   4.858   4.218
37501SOL    HW214401  10.453   4.984   4.142
37502SOL     OW14402   6.212  13.089   2.481
37502SOL    HW114403   6.245  13.128   2.562
37502SOL    HW214404   6.137  13.144   2.457
37503SOL     OW14405   4.840   0.422   2.900
37503SOL    HW114406   4.783   0.459   2.833
37503SOL    HW214407   4.894   0.495   2.928
37504SOL     OW14408   4.815   9.993   7.181
37504SOL    HW114409   4.747  10.056   7.205
37504SOL    HW214410   4.866   9.983   7.261
37505SOL     OW14411  12.813   1.878  11.908
37505SOL    HW114412  12.837   1.937  11.979
37505SOL    HW214413  12.891   1.874  11.853
37506SOL     OW14414   2.026   0.371   0.865
37506SOL    HW114415   1.943   0.389   0.909
37506SOL    HW214416   2.021   0.420   0.783
37507SOL     OW14417   8.399  11.812   6.533
37507SOL    HW114418   8.361  11.724   6.522
37507SOL    HW214419   8.443  11.808   6.618
37508SOL     OW14420  12.841   6.976   3.390
37508SOL    HW114421  12.804   6.889   3.375
37508SOL    HW214422  12.896   6.966   3.468
37509SOL     OW14423   0.230   4.761   0.327
37509SOL    HW114424   0.170   4.744   0.255
37509SOL    HW214425   0.183   4.733   0.405
37510SOL     OW14426   9.900   8.543   5.317
37510SOL    HW114427   9.847   8.608   5.271
37510SOL    HW214428   9.990   8.561   5.288
37511SOL     OW14429   5.215   9.408   9.741
37511SOL    HW114430   5.126   9.413   9.777
37511SOL    HW214431   5.202   9.386   9.649
37512SOL     OW14432   8.905   8.044   6.407
37512SOL    HW114433   8.962   8.118   6.430
37512SOL    HW214434   8.902   7.991   6.486
37513SOL     OW14435  14.034   6.793   1.498
37513SOL    HW114436  14.065   6.859   1.560
37513SOL    HW214437  14.108   6.732   1.490
37514SOL     OW14438   1.047   1.069  10.486
37514SOL    HW114439   1.137   1.098  10.474
37514SOL    HW214440   1.002   1.093  10.405
37515SOL     OW14441  10.963   1.414  12.543
37515SOL    HW114442  10.944   1.347  12.608
37515SOL    HW214443  11.020   1.476  12.588
37516SOL     OW14444  12.530  14.295   4.086
37516SOL    HW114445  12.607  14.322   4.035
37516SOL    HW214446  12.561  14.296   4.177
37517SOL     OW14447  12.543   6.729  13.745
37517SOL    HW114448  12.547   6.801  13.682
37517SOL    HW214449  12.580   6.654  13.697
37518SOL     OW14450   3.484  10.113  14.819
37518SOL    HW114451   3.452  10.112   0.041
37518SOL    HW214452   3.456  10.029  14.783
37519SOL     OW14453  12.515  12.687   2.072
37519SOL    HW114454  12.442  12.626   2.085
37519SOL    HW214455  12.574  12.640   2.013
37520SOL     OW14456   6.106   9.863   8.291
37520SOL    HW114457   6.197   9.892   8.301
37520SOL    HW214458   6.055   9.925   8.342
37521SOL     OW14459   5.385   0.714   4.224
37521SOL    HW114460   5.404   0.667   4.306
37521SOL    HW214461   5.289   0.711   4.218
37522SOL     OW14462  14.633   5.096   7.486
37522SOL    HW114463  14.587   5.179   7.471
37522SOL    HW214464  14.680   5.079   7.404
37523SOL     OW14465   6.766  11.782  13.391
37523SOL    HW114466   6.795  11.774  13.300
37523SOL    HW214467   6.825  11.724  13.440
37524SOL     OW14468   7.666  11.285   7.348
37524SOL    HW114469   7.606  11.253   7.280
37524SOL    HW214470   7.622  11.264   7.431
37525SOL     OW14471   4.672  13.433   0.226
37525SOL    HW114472   4.577  13.435   0.241
37525SOL    HW214473   4.709  13.405   0.310
37526SOL     OW14474   7.961  11.881   0.158
37526SOL    HW114475   7.938  11.797   0.196
37526SOL    HW214476   7.880  11.932   0.160
37527SOL     OW14477  11.253  11.504   5.155
37527SOL    HW114478  11.249  11.464   5.242
37527SOL    HW214479  11.332  11.466   5.116
37528SOL     OW14480   1.313   3.988  12.806
37528SOL    HW114481   1.370   4.058  12.777
37528SOL    HW214482   1.224   4.019  12.786
37529SOL     OW14483   2.277   0.563   8.976
37529SOL    HW114484   2.301   0.582   9.067
37529SOL    HW214485   2.319   0.632   8.925
37530SOL     OW14486   5.470   2.542   7.911
37530SOL    HW114487   5.381   2.518   7.888
37530SOL    HW214488   5.525   2.478   7.867
37531SOL     OW14489   3.985   4.311  10.000
37531SOL    HW114490   4.017   4.400   9.985
37531SOL    HW214491   3.901   4.323  10.044
37532SOL     OW14492   4.437  10.077  10.602
37532SOL    HW114493   4.446  10.058  10.509
37532SOL    HW214494   4.366  10.019  10.631
37533SOL     OW14495   2.145   3.290   6.271
37533SOL    HW114496   2.094   3.218   6.308
37533SOL    HW214497   2.178   3.338   6.348
37534SOL     OW14498   1.717   7.535   5.021
37534SOL    HW114499   1.684   7.603   5.080
37534SOL    HW214500   1.725   7.580   4.936
37535SOL     OW14501   7.069   9.562   4.177
37535SOL    HW114502   7.037   9.635   4.231
37535SOL    HW214503   7.009   9.490   4.198
37536SOL     OW14504  10.002   1.323   0.247
37536SOL    HW114505   9.947   1.269   0.190
37536SOL    HW214506   9.945   1.345   0.321
37537SOL     OW14507   9.359   7.051   9.568
37537SOL    HW114508   9.367   7.108   9.492
37537SOL    HW214509   9.319   6.971   9.534
37538SOL     OW14510  10.856   5.471   2.467
37538SOL    HW114511  10.874   5.426   2.384
37538SOL    HW214512  10.819   5.556   2.440
37539SOL     OW14513  11.599  11.175  12.586
37539SOL    HW114514  11.691  11.150  12.596
37539SOL    HW214515  11.564  11.109  12.526
37540SOL     OW14516   0.113  10.682   7.301
37540SOL    HW114517   0.062  10.654   7.377
37540SOL    HW214518   0.188  10.728   7.338
37541SOL     OW14519   7.978   0.547   2.546
37541SOL    HW114520   7.954   0.619   2.489
37541SOL    HW214521   8.074   0.548   2.547
37542SOL     OW14522   4.216   2.155   3.821
37542SOL    HW114523   4.246   2.066   3.801
37542SOL    HW214524   4.224   2.162   3.916
37543SOL     OW14525   1.404   1.666   9.546
37543SOL    HW114526   1.454   1.726   9.490
37543SOL    HW214527   1.326   1.645   9.495
37544SOL     OW14528  12.829  10.992  10.181
37544SOL    HW114529  12.918  11.022  10.199
37544SOL    HW214530  12.774  11.068  10.202
37545SOL     OW14531   4.531   0.087   5.688
37545SOL    HW114532   4.493  14.867   5.687
37545SOL    HW214533   4.589   0.088   5.764
37546SOL     OW14534   3.984   5.788   2.880
37546SOL    HW114535   3.995   5.877   2.913
37546SOL    HW214536   3.973   5.799   2.785
37547SOL     OW14537   5.709   4.641   3.964
37547SOL    HW114538   5.689   4.625   3.872
37547SOL    HW214539   5.646   4.588   4.012
37548SOL     OW14540  14.110  11.202   5.397
37548SOL    HW114541  14.036  11.261   5.414
37548SOL    HW214542  14.128  11.213   5.304
37549SOL     OW14543   8.937  14.865   5.025
37549SOL    HW114544   8.955  14.837   4.935
37549SOL    HW214545   8.847  14.837   5.042
37550SOL     OW14546   6.566   3.246  14.323
37550SOL    HW114547   6.579   3.316  14.259
37550SOL    HW214548   6.558   3.166  14.270
37551SOL     OW14549   6.018   6.895   7.709
37551SOL    HW114550   5.989   6.983   7.730
37551SOL    HW214551   5.946   6.838   7.735
37552SOL     OW14552   7.671   1.530  14.639
37552SOL    HW114553   7.654   1.589  14.566
37552SOL    HW214554   7.764   1.544  14.660
37553SOL     OW14555  13.226  14.045   3.199
37553SOL    HW114556  13.316  14.024   3.224
37553SOL    HW214557  13.180  13.961   3.204
37554SOL     OW14558   6.666   9.305   7.607
37554SOL    HW114559   6.733   9.267   7.663
37554SOL    HW214560   6.635   9.232   7.553
37555SOL     OW14561   2.835   6.343   8.654
37555SOL    HW114562   2.810   6.346   8.746
37555SOL    HW214563   2.856   6.434   8.632
37556SOL     OW14564   5.432   5.298  12.612
37556SOL    HW114565   5.521   5.321  12.585
37556SOL    HW214566   5.384   5.380  12.608
37557SOL     OW14567   5.913   1.129   3.890
37557SOL    HW114568   5.927   1.041   3.924
37557SOL    HW214569   5.950   1.127   3.801
37558SOL     OW14570  13.760   7.891  10.430
37558SOL    HW114571  13.848   7.928  10.424
37558SOL    HW214572  13.746   7.877  10.524
37559SOL     OW14573   9.882   1.344   6.098
37559SOL    HW114574   9.859   1.397   6.175
37559SOL    HW214575   9.846   1.258   6.117
37560SOL     OW14576  13.606   5.423  12.639
37560SOL    HW114577  13.691   5.392  12.669
37560SOL    HW214578  13.574   5.477  12.711
37561SOL     OW14579   6.525  12.445   0.338
37561SOL    HW114580   6.471  12.436   0.417
37561SOL    HW214581   6.464  12.434   0.266
37562SOL     OW14582  13.570   8.795   3.873
37562SOL    HW114583  13.544   8.834   3.956
37562SOL    HW214584  13.539   8.857   3.807
37563SOL     OW14585   0.465   0.658  14.342
37563SOL    HW114586   0.446   0.719  14.271
37563SOL    HW214587   0.480   0.714  14.418
37564SOL     OW14588   1.623   4.841  14.562
37564SOL    HW114589   1.563   4.901  14.606
37564SOL    HW214590   1.568   4.769  14.530
37565SOL     OW14591   8.767   9.792   0.698
37565SOL    HW114592   8.720   9.708   0.703
37565SOL    HW214593   8.841   9.782   0.758
37566SOL     OW14594  10.875   4.256   1.920
37566SOL    HW114595  10.866   4.232   2.012
37566SOL    HW214596  10.855   4.176   1.872
37567SOL     OW14597   4.832   7.992   7.807
37567SOL    HW114598   4.861   7.903   7.826
37567SOL    HW214599   4.757   8.005   7.866
37568SOL     OW14600  10.267  14.410  13.888
37568SOL    HW114601  10.237  14.379  13.803
37568SOL    HW214602  10.343  14.465  13.868
37569SOL     OW14603   0.274   9.560  12.553
37569SOL    HW114604   0.356   9.527  12.589
37569SOL    HW214605   0.256   9.505  12.477
37570SOL     OW14606   7.395  12.403  13.410
37570SOL    HW114607   7.328  12.336  13.406
37570SOL    HW214608   7.418  12.409  13.503
37571SOL     OW14609   4.861   4.784  13.494
37571SOL    HW114610   4.949   4.778  13.457
37571SOL    HW214611   4.807   4.813  13.421
37572SOL     OW14612   7.350  13.944  12.849
37572SOL    HW114613   7.421  14.003  12.877
37572SOL    HW214614   7.367  13.862  12.896
37573SOL     OW14615   6.669  10.977   4.534
37573SOL    HW114616   6.640  11.061   4.570
37573SOL    HW214617   6.635  10.912   4.595
37574SOL     OW14618   4.780  12.854  11.167
37574SOL    HW114619   4.746  12.773  11.128
37574SOL    HW214620   4.731  12.864  11.248
37575SOL     OW14621   1.591   9.651  12.464
37575SOL    HW114622   1.509   9.630  12.510
37575SOL    HW214623   1.580   9.743  12.437
37576SOL     OW14624  12.373   1.543   1.779
37576SOL    HW114625  12.414   1.463   1.745
37576SOL    HW214626  12.329   1.582   1.703
37577SOL     OW14627   8.819   0.783   2.210
37577SOL    HW114628   8.834   0.772   2.117
37577SOL    HW214629   8.761   0.858   2.216
37578SOL     OW14630  10.212   8.702   9.462
37578SOL    HW114631  10.208   8.784   9.511
37578SOL    HW214632  10.141   8.649   9.496
37579SOL     OW14633   6.732   9.533   2.674
37579SOL    HW114634   6.670   9.484   2.728
37579SOL    HW214635   6.763   9.604   2.730
37580SOL     OW14636   2.013   1.997  14.547
37580SOL    HW114637   2.019   2.015  14.453
37580SOL    HW214638   2.104   1.999  14.577
37581SOL     OW14639   7.638   6.524  11.497
37581SOL    HW114640   7.544   6.506  11.503
37581SOL    HW214641   7.643   6.615  11.470
37582SOL     OW14642   2.323   2.894   3.810
37582SOL    HW114643   2.295   2.904   3.901
37582SOL    HW214644   2.256   2.940   3.759
37583SOL     OW14645   5.009   7.639   3.929
37583SOL    HW114646   4.985   7.700   3.860
37583SOL    HW214647   5.000   7.689   4.010
37584SOL     OW14648  10.776   1.997   9.251
37584SOL    HW114649  10.843   2.036   9.195
37584SOL    HW214650  10.767   2.057   9.324
37585SOL     OW14651   3.219   8.257  11.533
37585SOL    HW114652   3.309   8.270  11.565
37585SOL    HW214653   3.175   8.340  11.551
37586SOL     OW14654  14.635   7.857  12.653
37586SOL    HW114655  14.725   7.842  12.622
37586SOL    HW214656  14.580   7.833  12.579
37587SOL     OW14657   1.805  11.382   8.794
37587SOL    HW114658   1.709  11.381   8.789
37587SOL    HW214659   1.825  11.360   8.885
37588SOL     OW14660   3.182  12.147  13.190
37588SOL    HW114661   3.123  12.153  13.115
37588SOL    HW214662   3.260  12.103  13.156
37589SOL     OW14663   6.276   6.024   3.444
37589SOL    HW114664   6.265   5.938   3.485
37589SOL    HW214665   6.224   6.083   3.498
37590SOL     OW14666   0.325   8.197  12.639
37590SOL    HW114667   0.257   8.147  12.595
37590SOL    HW214668   0.288   8.285  12.648
37591SOL     OW14669  14.378   2.333  11.106
37591SOL    HW114670  14.324   2.349  11.183
37591SOL    HW214671  14.349   2.397  11.042
37592SOL     OW14672   3.875   6.047   4.211
37592SOL    HW114673   3.804   6.109   4.225
37592SOL    HW214674   3.955   6.098   4.222
37593SOL     OW14675   1.677  13.707  11.394
37593SOL    HW114676   1.735  13.710  11.471
37593SOL    HW214677   1.619  13.633  11.412
37594SOL     OW14678   4.098   2.166   9.911
37594SOL    HW114679   4.005   2.145   9.903
37594SOL    HW214680   4.138   2.085   9.942
37595SOL     OW14681   0.617   5.999  10.563
37595SOL    HW114682   0.548   6.045  10.612
37595SOL    HW214683   0.697   6.044  10.588
37596SOL     OW14684   1.113  10.181   5.634
37596SOL    HW114685   1.121  10.248   5.702
37596SOL    HW214686   1.174  10.113   5.660
37597SOL     OW14687   3.842  10.582   3.070
37597SOL    HW114688   3.843  10.581   2.974
37597SOL    HW214689   3.760  10.539   3.093
37598SOL     OW14690   2.378  10.037   3.469
37598SOL    HW114691   2.299  10.077   3.506
37598SOL    HW214692   2.447  10.056   3.533
37599SOL     OW14693   1.392   3.984   8.808
37599SOL    HW114694   1.341   3.929   8.749
37599SOL    HW214695   1.359   4.073   8.792
37600SOL     OW14696  14.412   4.514   2.057
37600SOL    HW114697  14.347   4.447   2.078
37600SOL    HW214698  14.487   4.494   2.113
37601SOL     OW14699  11.189   2.677   3.486
37601SOL    HW114700  11.216   2.585   3.483
37601SOL    HW214701  11.269   2.727   3.468
37602SOL     OW14702   2.220  13.726  11.804
37602SOL    HW114703   2.282  13.799  11.802
37602SOL    HW214704   2.270  13.650  11.774
37603SOL     OW14705   5.728  10.418   9.182
37603SOL    HW114706   5.652  10.432   9.125
37603SOL    HW214707   5.773  10.503   9.182
37604SOL     OW14708   1.026   5.969  14.804
37604SOL    HW114709   0.952   6.015  14.765
37604SOL    HW214710   1.076   6.036  14.850
37605SOL     OW14711  10.831   9.669  11.378
37605SOL    HW114712  10.761   9.734  11.374
37605SOL    HW214713  10.802   9.597  11.322
37606SOL     OW14714  14.185   2.245   6.973
37606SOL    HW114715  14.245   2.315   7.001
37606SOL    HW214716  14.110   2.253   7.031
37607SOL     OW14717   7.437  11.605   4.765
37607SOL    HW114718   7.466  11.515   4.751
37607SOL    HW214719   7.493  11.638   4.836
37608SOL     OW14720   1.846  13.309   7.930
37608SOL    HW114721   1.802  13.266   7.858
37608SOL    HW214722   1.912  13.365   7.889
37609SOL     OW14723   2.082  12.189   9.101
37609SOL    HW114724   2.048  12.102   9.078
37609SOL    HW214725   2.004  12.245   9.105
37610SOL     OW14726  11.708  11.135   5.483
37610SOL    HW114727  11.732  11.127   5.391
37610SOL    HW214728  11.785  11.173   5.525
37611SOL     OW14729  11.895   5.694   8.069
37611SOL    HW114730  11.805   5.707   8.040
37611SOL    HW214731  11.948   5.724   7.995
37612SOL     OW14732   0.862   5.400   1.106
37612SOL    HW114733   0.866   5.477   1.163
37612SOL    HW214734   0.842   5.328   1.165
37613SOL     OW14735  13.160   8.370   1.753
37613SOL    HW114736  13.138   8.385   1.845
37613SOL    HW214737  13.169   8.276   1.745
37614SOL     OW14738   8.153   3.202  12.007
37614SOL    HW114739   8.120   3.277  11.958
37614SOL    HW214740   8.107   3.206  12.091
37615SOL     OW14741   0.966   9.316  14.598
37615SOL    HW114742   1.042   9.303  14.541
37615SOL    HW214743   0.975   9.249  14.665
37616SOL     OW14744   6.909   0.002   1.302
37616SOL    HW114745   6.921  14.804   1.370
37616SOL    HW214746   6.997   0.034   1.283
37617SOL     OW14747   7.348   8.012   2.069
37617SOL    HW114748   7.407   8.073   2.025
37617SOL    HW214749   7.263   8.028   2.028
37618SOL     OW14750  11.804   6.469   4.760
37618SOL    HW114751  11.812   6.377   4.737
37618SOL    HW214752  11.801   6.470   4.855
37619SOL     OW14753  11.069   4.373  13.416
37619SOL    HW114754  11.000   4.423  13.372
37619SOL    HW214755  11.127   4.439  13.452
37620SOL     OW14756   4.757   5.037  10.120
37620SOL    HW114757   4.684   4.984  10.089
37620SOL    HW214758   4.810   5.053  10.041
37621SOL     OW14759   9.753   5.978   3.415
37621SOL    HW114760   9.758   6.008   3.325
37621SOL    HW214761   9.754   5.882   3.409
37622SOL     OW14762  10.821   9.025  10.269
37622SOL    HW114763  10.842   9.095  10.207
37622SOL    HW214764  10.760   9.065  10.331
37623SOL     OW14765  12.486   1.604   6.579
37623SOL    HW114766  12.536   1.527   6.605
37623SOL    HW214767  12.396   1.572   6.568
37624SOL     OW14768   2.338   6.071  13.014
37624SOL    HW114769   2.244   6.075  13.033
37624SOL    HW214770   2.343   6.072  12.919
37625SOL     OW14771  12.093   5.871   9.723
37625SOL    HW114772  12.052   5.909   9.645
37625SOL    HW214773  12.055   5.919   9.796
37626SOL     OW14774   9.768  11.583  11.540
37626SOL    HW114775   9.863  11.572  11.547
37626SOL    HW214776   9.744  11.634  11.617
37627SOL     OW14777   4.568   1.549   3.198
37627SOL    HW114778   4.574   1.622   3.259
37627SOL    HW214779   4.557   1.472   3.253
37628SOL     OW14780  12.460   5.389   0.952
37628SOL    HW114781  12.474   5.462   0.892
37628SOL    HW214782  12.521   5.322   0.923
37629SOL     OW14783  11.516  12.964   8.206
37629SOL    HW114784  11.531  12.994   8.116
37629SOL    HW214785  11.540  13.039   8.260
37630SOL     OW14786   4.294  14.257   2.393
37630SOL    HW114787   4.374  14.309   2.399
37630SOL    HW214788   4.294  14.203   2.472
37631SOL     OW14789   9.246   6.841   2.286
37631SOL    HW114790   9.311   6.910   2.296
37631SOL    HW214791   9.296   6.760   2.292
37632SOL     OW14792   8.519  13.281   1.653
37632SOL    HW114793   8.540  13.341   1.725
37632SOL    HW214794   8.539  13.330   1.574
37633SOL     OW14795   7.471  11.206   5.371
37633SOL    HW114796   7.526  11.281   5.346
37633SOL    HW214797   7.405  11.201   5.301
37634SOL     OW14798   4.334  13.907   0.661
37634SOL    HW114799   4.380  13.901   0.577
37634SOL    HW214800   4.325  14.001   0.676
37635SOL     OW14801  13.488   4.066   5.145
37635SOL    HW114802  13.427   4.118   5.094
37635SOL    HW214803  13.490   4.109   5.231
37636SOL     OW14804   4.885   3.236  14.258
37636SOL    HW114805   4.959   3.295  14.243
37636SOL    HW214806   4.843   3.229  14.172
37637SOL     OW14807  13.692  12.475   5.300
37637SOL    HW114808  13.626  12.509   5.240
37637SOL    HW214809  13.753  12.426   5.245
37638SOL     OW14810   2.788  10.555   2.732
37638SOL    HW114811   2.703  10.520   2.758
37638SOL    HW214812   2.820  10.602   2.809
37639SOL     OW14813   5.382   7.862  10.093
37639SOL    HW114814   5.337   7.943  10.069
37639SOL    HW214815   5.328   7.793  10.056
37640SOL     OW14816  14.681   7.784   3.986
37640SOL    HW114817  14.657   7.816   4.072
37640SOL    HW214818  14.690   7.863   3.932
37641SOL     OW14819   0.825  14.296   4.252
37641SOL    HW114820   0.874  14.347   4.187
37641SOL    HW214821   0.734  14.301   4.222
37642SOL     OW14822  10.484   7.601   8.467
37642SOL    HW114823  10.465   7.679   8.415
37642SOL    HW214824  10.570   7.618   8.505
37643SOL     OW14825   0.739  14.460   5.471
37643SOL    HW114826   0.742  14.389   5.407
37643SOL    HW214827   0.669  14.435   5.532
37644SOL     OW14828   9.783  13.509   6.416
37644SOL    HW114829   9.733  13.451   6.359
37644SOL    HW214830   9.874  13.492   6.393
37645SOL     OW14831  13.053  14.473   1.686
37645SOL    HW114832  12.976  14.422   1.715
37645SOL    HW214833  13.017  14.541   1.630
37646SOL     OW14834   7.655   6.836   3.189
37646SOL    HW114835   7.745   6.808   3.175
37646SOL    HW214836   7.645   6.914   3.134
37647SOL     OW14837   6.770   1.489   0.863
37647SOL    HW114838   6.834   1.482   0.934
37647SOL    HW214839   6.706   1.553   0.895
37648SOL     OW14840   1.018  10.547  11.663
37648SOL    HW114841   1.014  10.559  11.568
37648SOL    HW214842   1.045  10.456  11.675
37649SOL     OW14843   8.646   8.669  13.950
37649SOL    HW114844   8.630   8.644  13.859
37649SOL    HW214845   8.682   8.590  13.991
37650SOL     OW14846   0.447  10.109   3.549
37650SOL    HW114847   0.490  10.170   3.488
37650SOL    HW214848   0.360  10.096   3.513
37651SOL     OW14849   8.659   0.838   7.699
37651SOL    HW114850   8.707   0.900   7.644
37651SOL    HW214851   8.674   0.753   7.658
37652SOL     OW14852   2.106  10.421   2.024
37652SOL    HW114853   2.131  10.329   2.019
37652SOL    HW214854   2.014  10.420   2.050
37653SOL     OW14855  13.830   4.010   3.173
37653SOL    HW114856  13.743   3.972   3.164
37653SOL    HW214857  13.885   3.959   3.115
37654SOL     OW14858  11.379   8.887  10.320
37654SOL    HW114859  11.422   8.818  10.370
37654SOL    HW214860  11.286   8.877  10.341
37655SOL     OW14861   8.288   8.453   1.191
37655SOL    HW114862   8.328   8.424   1.108
37655SOL    HW214863   8.362   8.482   1.244
37656SOL     OW14864   9.678   5.670   8.788
37656SOL    HW114865   9.605   5.659   8.727
37656SOL    HW214866   9.647   5.733   8.852
37657SOL     OW14867  11.828   4.428   0.653
37657SOL    HW114868  11.755   4.392   0.603
37657SOL    HW214869  11.793   4.506   0.696
37658SOL     OW14870   9.705   3.479   6.218
37658SOL    HW114871   9.647   3.419   6.172
37658SOL    HW214872   9.650   3.554   6.241
37659SOL     OW14873   2.005  12.121   7.688
37659SOL    HW114874   1.987  12.215   7.679
37659SOL    HW214875   2.006  12.106   7.782
37660SOL     OW14876   4.521   5.245  10.171
37660SOL    HW114877   4.493   5.158  10.141
37660SOL    HW214878   4.608   5.257  10.134
37661SOL     OW14879   9.854   1.852  10.882
37661SOL    HW114880   9.846   1.826  10.974
37661SOL    HW214881   9.766   1.841  10.846
37662SOL     OW14882  13.772   7.485   0.410
37662SOL    HW114883  13.721   7.406   0.397
37662SOL    HW214884  13.716   7.542   0.463
37663SOL     OW14885   0.829   6.035   8.200
37663SOL    HW114886   0.800   6.105   8.142
37663SOL    HW214887   0.848   5.961   8.142
37664SOL     OW14888  11.358   2.632  13.435
37664SOL    HW114889  11.431   2.665  13.486
37664SOL    HW214890  11.377   2.539  13.422
37665SOL     OW14891   0.226   7.719  12.629
37665SOL    HW114892   0.272   7.787  12.679
37665SOL    HW214893   0.145   7.761  12.601
37666SOL     OW14894  11.566   3.450  10.082
37666SOL    HW114895  11.511   3.429  10.007
37666SOL    HW214896  11.606   3.534  10.061
37667SOL     OW14897  11.872   1.727   2.142
37667SOL    HW114898  11.862   1.673   2.220
37667SOL    HW214899  11.866   1.817   2.175
37668SOL     OW14900   4.974  13.203   6.251
37668SOL    HW114901   5.058  13.157   6.254
37668SOL    HW214902   4.923  13.166   6.322
37669SOL     OW14903  14.174  11.152   1.606
37669SOL    HW114904  14.079  11.150   1.599
37669SOL    HW214905  14.205  11.138   1.516
37670SOL     OW14906   2.512   2.607  10.805
37670SOL    HW114907   2.565   2.533  10.836
37670SOL    HW214908   2.421   2.578  10.817
37671SOL     OW14909  11.585  13.674   9.778
37671SOL    HW114910  11.660  13.626   9.742
37671SOL    HW214911  11.608  13.688   9.870
37672SOL     OW14912   8.777   0.587   9.699
37672SOL    HW114913   8.804   0.621   9.785
37672SOL    HW214914   8.702   0.531   9.718
37673SOL     OW14915   7.409  11.474   7.423
37673SOL    HW114916   7.420  11.379   7.413
37673SOL    HW214917   7.315  11.484   7.441
37674SOL     OW14918   9.152   4.065   1.937
37674SOL    HW114919   9.122   4.121   2.008
37674SOL    HW214920   9.139   4.117   1.857
37675SOL     OW14921   0.944   4.727  10.884
37675SOL    HW114922   0.862   4.722  10.835
37675SOL    HW214923   0.935   4.806  10.938
37676SOL     OW14924  12.853  10.037  11.170
37676SOL    HW114925  12.828  10.123  11.137
37676SOL    HW214926  12.920  10.056  11.236
37677SOL     OW14927   7.933  11.505   3.383
37677SOL    HW114928   7.932  11.415   3.350
37677SOL    HW214929   7.908  11.497   3.475
37678SOL     OW14930   2.197   9.158   5.010
37678SOL    HW114931   2.118   9.210   4.998
37678SOL    HW214932   2.269   9.221   5.005
37679SOL     OW14933   8.529   3.950  14.563
37679SOL    HW114934   8.478   3.887  14.513
37679SOL    HW214935   8.567   3.900  14.635
37680SOL     OW14936   7.605   7.553   0.724
37680SOL    HW114937   7.556   7.581   0.646
37680SOL    HW214938   7.609   7.457   0.716
37681SOL     OW14939   0.048   8.898   4.437
37681SOL    HW114940  14.849   8.874   4.373
37681SOL    HW214941   0.072   8.988   4.415
37682SOL     OW14942   4.824  14.146  12.248
37682SOL    HW114943   4.858  14.226  12.288
37682SOL    HW214944   4.852  14.150  12.157
37683SOL     OW14945   9.973   3.517   7.348
37683SOL    HW114946  10.026   3.438   7.359
37683SOL    HW214947   9.915   3.518   7.424
37684SOL     OW14948   6.677   2.544  13.685
37684SOL    HW114949   6.615   2.588  13.626
37684SOL    HW214950   6.622   2.511  13.756
37685SOL     OW14951   8.370   9.955   8.673
37685SOL    HW114952   8.346   9.889   8.608
37685SOL    HW214953   8.334  10.037   8.639
37686SOL     OW14954  10.799   1.286   6.193
37686SOL    HW114955  10.840   1.351   6.136
37686SOL    HW214956  10.764   1.336   6.267
37687SOL     OW14957   7.489   6.259   5.502
37687SOL    HW114958   7.491   6.308   5.420
37687SOL    HW214959   7.511   6.324   5.569
37688SOL     OW14960  10.467  11.786   3.222
37688SOL    HW114961  10.439  11.730   3.149
37688SOL    HW214962  10.518  11.855   3.180
37689SOL     OW14963  11.971   6.852  13.387
37689SOL    HW114964  12.032   6.783  13.360
37689SOL    HW214965  11.945   6.895  13.306
37690SOL     OW14966   6.359   2.894   5.379
37690SOL    HW114967   6.303   2.924   5.308
37690SOL    HW214968   6.432   2.956   5.380
37691SOL     OW14969   0.958   3.601   3.166
37691SOL    HW114970   0.929   3.525   3.117
37691SOL    HW214971   1.010   3.652   3.104
37692SOL     OW14972   9.001   2.247   5.766
37692SOL    HW114973   8.995   2.213   5.677
37692SOL    HW214974   9.028   2.172   5.819
37693SOL     OW14975   8.064   2.044   7.849
37693SOL    HW114976   7.991   2.082   7.898
37693SOL    HW214977   8.047   1.950   7.851
37694SOL     OW14978  14.568   1.260   6.756
37694SOL    HW114979  14.644   1.285   6.809
37694SOL    HW214980  14.580   1.307   6.673
37695SOL     OW14981   8.842   8.403  10.806
37695SOL    HW114982   8.910   8.385  10.742
37695SOL    HW214983   8.792   8.476  10.768
37696SOL     OW14984   5.837   1.060   9.747
37696SOL    HW114985   5.892   1.086   9.673
37696SOL    HW214986   5.808   0.972   9.724
37697SOL     OW14987   4.734   9.177   0.740
37697SOL    HW114988   4.744   9.151   0.648
37697SOL    HW214989   4.810   9.232   0.758
37698SOL     OW14990  11.363   2.731   9.105
37698SOL    HW114991  11.310   2.706   9.180
37698SOL    HW214992  11.411   2.651   9.082
37699SOL     OW14993  10.684   7.541   4.418
37699SOL    HW114994  10.618   7.559   4.485
37699SOL    HW214995  10.645   7.471   4.365
37700SOL     OW14996  11.821   3.736   5.468
37700SOL    HW114997  11.896   3.772   5.421
37700SOL    HW214998  11.810   3.648   5.433
37701SOL     OW14999   2.405   8.390   0.189
37701SOL    HW115000   2.460   8.458   0.149
37701SOL    HW215001   2.337   8.438   0.234
37702SOL     OW15002   7.970  11.545   8.293
37702SOL    HW115003   7.987  11.451   8.303
37702SOL    HW215004   8.054  11.587   8.309
37703SOL     OW15005  10.756   4.651  10.511
37703SOL    HW115006  10.750   4.632  10.417
37703SOL    HW215007  10.850   4.659  10.528
37704SOL     OW15008   4.572  12.413  10.533
37704SOL    HW115009   4.488  12.454  10.512
37704SOL    HW215010   4.638  12.478  10.508
37705SOL     OW15011   3.301   2.527   7.747
37705SOL    HW115012   3.217   2.557   7.714
37705SOL    HW215013   3.358   2.604   7.741
37706SOL     OW15014   7.737   3.930   9.697
37706SOL    HW115015   7.674   3.873   9.742
37706SOL    HW215016   7.814   3.931   9.754
37707SOL     OW15017  12.496   1.903   8.741
37707SOL    HW115018  12.455   1.818   8.726
37707SOL    HW215019  12.569   1.886   8.800
37708SOL     OW15020  11.424   6.515   6.774
37708SOL    HW115021  11.470   6.558   6.702
37708SOL    HW215022  11.477   6.438   6.794
37709SOL     OW15023   0.465  14.524   6.670
37709SOL    HW115024   0.488  14.556   6.583
37709SOL    HW215025   0.500  14.590   6.730
37710SOL     OW15026  10.978   5.541   7.264
37710SOL    HW115027  10.926   5.588   7.199
37710SOL    HW215028  11.007   5.608   7.325
37711SOL     OW15029   9.800   1.074   1.049
37711SOL    HW115030   9.840   1.161   1.049
37711SOL    HW215031   9.723   1.083   0.994
37712SOL     OW15032   6.325   7.466   9.670
37712SOL    HW115033   6.309   7.512   9.752
37712SOL    HW215034   6.412   7.494   9.643
37713SOL     OW15035  10.150   9.795   6.734
37713SOL    HW115036  10.188   9.851   6.801
37713SOL    HW215037  10.162   9.843   6.652
37714SOL     OW15038   2.788   8.676  12.186
37714SOL    HW115039   2.829   8.686  12.100
37714SOL    HW215040   2.779   8.581  12.198
37715SOL     OW15041   3.899  13.860   3.329
37715SOL    HW115042   3.843  13.845   3.252
37715SOL    HW215043   3.871  13.795   3.392
37716SOL     OW15044  10.500  14.719   5.929
37716SOL    HW115045  10.427  14.744   5.985
37716SOL    HW215046  10.516  14.627   5.951
37717SOL     OW15047   7.925   4.171   0.088
37717SOL    HW115048   7.863   4.100   0.107
37717SOL    HW215049   7.891   4.211   0.009
37718SOL     OW15050  10.030   7.488   1.195
37718SOL    HW115051  10.110   7.435   1.191
37718SOL    HW215052   9.989   7.465   1.278
37719SOL     OW15053   6.049  10.827  14.233
37719SOL    HW115054   6.057  10.826  14.138
37719SOL    HW215055   5.984  10.760  14.253
37720SOL     OW15056  13.031  13.271   5.000
37720SOL    HW115057  12.983  13.291   4.919
37720SOL    HW215058  13.050  13.357   5.038
37721SOL     OW15059  14.173   7.045   1.288
37721SOL    HW115060  14.229   7.081   1.219
37721SOL    HW215061  14.122   6.976   1.244
37722SOL     OW15062   7.740  14.634  11.380
37722SOL    HW115063   7.779  14.612  11.465
37722SOL    HW215064   7.651  14.661  11.401
37723SOL     OW15065   0.326  10.329   2.506
37723SOL    HW115066   0.233  10.349   2.518
37723SOL    HW215067   0.365  10.345   2.591
37724SOL     OW15068  12.693  10.961   9.375
37724SOL    HW115069  12.679  10.887   9.434
37724SOL    HW215070  12.776  10.999   9.403
37725SOL     OW15071   0.865   2.730  11.138
37725SOL    HW115072   0.885   2.810  11.090
37725SOL    HW215073   0.777   2.706  11.109
37726SOL     OW15074   4.264  12.549  11.798
37726SOL    HW115075   4.186  12.602  11.781
37726SOL    HW215076   4.246  12.507  11.882
37727SOL     OW15077   5.201   1.255   2.858
37727SOL    HW115078   5.126   1.196   2.851
37727SOL    HW215079   5.187   1.320   2.789
37728SOL     OW15080  14.171   4.153  11.042
37728SOL    HW115081  14.111   4.227  11.045
37728SOL    HW215082  14.219   4.163  10.959
37729SOL     OW15083  10.979  10.346   2.111
37729SOL    HW115084  10.981  10.366   2.018
37729SOL    HW215085  11.018  10.259   2.118
37730SOL     OW15086   0.103  12.038   7.498
37730SOL    HW115087   0.083  12.003   7.412
37730SOL    HW215088   0.045  12.113   7.509
37731SOL     OW15089  11.735   4.085   1.251
37731SOL    HW115090  11.818   4.079   1.203
37731SOL    HW215091  11.686   4.154   1.206
37732SOL     OW15092   4.024   4.137  11.759
37732SOL    HW115093   4.072   4.218  11.774
37732SOL    HW215094   4.034   4.087  11.840
37733SOL     OW15095   6.791   3.639  12.484
37733SOL    HW115096   6.867   3.584  12.501
37733SOL    HW215097   6.772   3.627  12.391
37734SOL     OW15098   4.314  14.834  10.154
37734SOL    HW115099   4.335   0.042  10.208
37734SOL    HW215100   4.231  14.802  10.190
37735SOL     OW15101   8.301   5.281  13.780
37735SOL    HW115102   8.327   5.218  13.847
37735SOL    HW215103   8.217   5.315  13.811
37736SOL     OW15104   8.615   2.470   3.772
37736SOL    HW115105   8.591   2.428   3.854
37736SOL    HW215106   8.533   2.506   3.739
37737SOL     OW15107   7.857   3.536   1.004
37737SOL    HW115108   7.815   3.458   0.968
37737SOL    HW215109   7.899   3.578   0.929
37738SOL     OW15110   5.717  10.272   1.503
37738SOL    HW115111   5.705  10.197   1.445
37738SOL    HW215112   5.629  10.294   1.533
37739SOL     OW15113   0.905   5.810   6.979
37739SOL    HW115114   0.927   5.842   6.891
37739SOL    HW215115   0.905   5.889   7.034
37740SOL     OW15116   6.286  11.094   9.682
37740SOL    HW115117   6.247  11.111   9.597
37740SOL    HW215118   6.368  11.049   9.663
37741SOL     OW15119   8.374   9.341   0.071
37741SOL    HW115120   8.287   9.302   0.079
37741SOL    HW215121   8.427   9.294   0.136
37742SOL     OW15122   4.956  12.548   0.337
37742SOL    HW115123   5.048  12.530   0.314
37742SOL    HW215124   4.906  12.501   0.270
37743SOL     OW15125  12.426   1.239   6.110
37743SOL    HW115126  12.383   1.297   6.047
37743SOL    HW215127  12.480   1.182   6.056
37744SOL     OW15128   4.113  12.705  13.457
37744SOL    HW115129   4.062  12.707  13.376
37744SOL    HW215130   4.187  12.765  13.440
37745SOL     OW15131   8.724   9.498  14.560
37745SOL    HW115132   8.794   9.439  14.587
37745SOL    HW215133   8.657   9.489  14.628
37746SOL     OW15134   3.502   9.452   6.699
37746SOL    HW115135   3.411   9.423   6.697
37746SOL    HW215136   3.521   9.465   6.792
37747SOL     OW15137   7.756   6.309   1.927
37747SOL    HW115138   7.711   6.227   1.946
37747SOL    HW215139   7.751   6.359   2.009
37748SOL     OW15140  13.318  12.894   1.691
37748SOL    HW115141  13.283  12.918   1.605
37748SOL    HW215142  13.310  12.799   1.694
37749SOL     OW15143   1.245   1.936   2.105
37749SOL    HW115144   1.238   1.842   2.122
37749SOL    HW215145   1.337   1.956   2.118
37750SOL     OW15146   7.203  14.212   2.671
37750SOL    HW115147   7.203  14.265   2.751
37750SOL    HW215148   7.145  14.139   2.691
37751SOL     OW15149   9.286   1.976   1.797
37751SOL    HW115150   9.309   2.031   1.872
37751SOL    HW215151   9.217   1.918   1.830
37752SOL     OW15152   8.374  11.861   8.430
37752SOL    HW115153   8.398  11.874   8.522
37752SOL    HW215154   8.418  11.932   8.383
37753SOL     OW15155  10.183  12.624  10.252
37753SOL    HW115156  10.092  12.636  10.279
37753SOL    HW215157  10.178  12.597  10.161
37754SOL     OW15158  10.759   1.281   8.659
37754SOL    HW115159  10.845   1.252   8.691
37754SOL    HW215160  10.776   1.366   8.620
37755SOL     OW15161   3.315  12.672   0.559
37755SOL    HW115162   3.407  12.647   0.561
37755SOL    HW215163   3.294  12.682   0.466
37756SOL     OW15164  13.113  14.824   7.602
37756SOL    HW115165  13.205  14.849   7.616
37756SOL    HW215166  13.105  14.815   7.508
37757SOL     OW15167   7.841   6.973   6.793
37757SOL    HW115168   7.913   7.019   6.751
37757SOL    HW215169   7.764   6.996   6.741
37758SOL     OW15170   5.541   5.426   4.428
37758SOL    HW115171   5.509   5.416   4.338
37758SOL    HW215172   5.582   5.342   4.448
37759SOL     OW15173  14.767   6.182  14.861
37759SOL    HW115174  14.839   6.239  14.837
37759SOL    HW215175  14.689   6.238  14.858
37760SOL     OW15176   6.658   9.573   4.999
37760SOL    HW115177   6.565   9.595   5.004
37760SOL    HW215178   6.693   9.596   5.085
37761SOL     OW15179   2.816   9.319   8.899
37761SOL    HW115180   2.896   9.340   8.851
37761SOL    HW215181   2.846   9.278   8.980
37762SOL     OW15182   7.129   4.172   4.094
37762SOL    HW115183   7.147   4.258   4.055
37762SOL    HW215184   7.193   4.163   4.164
37763SOL     OW15185   4.051   1.109  11.153
37763SOL    HW115186   4.025   1.192  11.194
37763SOL    HW215187   4.137   1.089  11.190
37764SOL     OW15188   8.358  11.722   3.938
37764SOL    HW115189   8.447  11.693   3.954
37764SOL    HW215190   8.312  11.643   3.909
37765SOL     OW15191  13.490   0.228   3.723
37765SOL    HW115192  13.449   0.144   3.704
37765SOL    HW215193  13.558   0.208   3.787
37766SOL     OW15194  12.413  10.027   8.589
37766SOL    HW115195  12.368  10.077   8.520
37766SOL    HW215196  12.458  10.094   8.641
37767SOL     OW15197   3.700   4.921   5.020
37767SOL    HW115198   3.741   4.942   4.936
37767SOL    HW215199   3.652   4.840   5.004
37768SOL     OW15200   0.236   4.380  13.178
37768SOL    HW115201   0.261   4.461  13.133
37768SOL    HW215202   0.253   4.397  13.271
37769SOL     OW15203  13.593   9.973   6.240
37769SOL    HW115204  13.655  10.009   6.304
37769SOL    HW215205  13.599   9.878   6.252
37770SOL     OW15206  10.817   9.728   1.660
37770SOL    HW115207  10.853   9.664   1.599
37770SOL    HW215208  10.798   9.678   1.739
37771SOL     OW15209  11.490   4.330   2.868
37771SOL    HW115210  11.487   4.237   2.845
37771SOL    HW215211  11.565   4.364   2.817
37772SOL     OW15212  12.060  11.836   1.401
37772SOL    HW115213  12.062  11.805   1.310
37772SOL    HW215214  12.017  11.766   1.450
37773SOL     OW15215   1.490   1.368   4.104
37773SOL    HW115216   1.506   1.406   4.017
37773SOL    HW215217   1.546   1.291   4.108
37774SOL     OW15218  11.980   8.175  12.761
37774SOL    HW115219  12.018   8.183  12.848
37774SOL    HW215220  12.055   8.175  12.702
37775SOL     OW15221  10.698  11.770  11.930
37775SOL    HW115222  10.733  11.744  11.845
37775SOL    HW215223  10.706  11.865  11.931
37776SOL     OW15224   5.934   6.925   9.952
37776SOL    HW115225   5.998   6.922  10.023
37776SOL    HW215226   5.872   6.994   9.978
37777SOL     OW15227   9.569   5.243   0.035
37777SOL    HW115228   9.647   5.245   0.090
37777SOL    HW215229   9.535   5.332   0.038
37778SOL     OW15230   8.512   8.622   2.294
37778SOL    HW115231   8.503   8.538   2.249
37778SOL    HW215232   8.519   8.600   2.387
37779SOL     OW15233   5.554   2.505   3.857
37779SOL    HW115234   5.575   2.493   3.764
37779SOL    HW215235   5.611   2.442   3.902
37780SOL     OW15236   2.499   0.942   7.373
37780SOL    HW115237   2.465   0.989   7.297
37780SOL    HW215238   2.422   0.918   7.423
37781SOL     OW15239  11.240  13.840   8.265
37781SOL    HW115240  11.245  13.763   8.322
37781SOL    HW215241  11.164  13.823   8.210
37782SOL     OW15242  12.101   0.748  13.551
37782SOL    HW115243  12.193   0.725  13.558
37782SOL    HW215244  12.101   0.839  13.521
37783SOL     OW15245  11.304  11.052   7.216
37783SOL    HW115246  11.273  11.093   7.135
37783SOL    HW215247  11.278  10.960   7.208
37784SOL     OW15248   3.024  10.954  14.735
37784SOL    HW115249   3.062  11.041  14.727
37784SOL    HW215250   2.987  10.936  14.648
37785SOL     OW15251   9.094   2.796  14.080
37785SOL    HW115252   9.019   2.852  14.101
37785SOL    HW215253   9.055   2.714  14.052
37786SOL     OW15254  10.239   1.048   7.750
37786SOL    HW115255  10.162   1.004   7.787
37786SOL    HW215256  10.288   0.978   7.707
37787SOL     OW15257   7.903   7.626   3.165
37787SOL    HW115258   7.851   7.595   3.238
37787SOL    HW215259   7.943   7.546   3.129
37788SOL     OW15260   3.389  13.788   2.059
37788SOL    HW115261   3.433  13.734   2.125
37788SOL    HW215262   3.333  13.726   2.012
37789SOL     OW15263   3.351   4.568   8.060
37789SOL    HW115264   3.328   4.514   7.984
37789SOL    HW215265   3.442   4.592   8.047
37790SOL     OW15266   1.609   5.628   2.041
37790SOL    HW115267   1.570   5.596   1.959
37790SOL    HW215268   1.629   5.549   2.091
37791SOL     OW15269  14.388   7.888   9.876
37791SOL    HW115270  14.419   7.965   9.924
37791SOL    HW215271  14.448   7.818   9.900
37792SOL     OW15272   1.672   9.741   6.672
37792SOL    HW115273   1.631   9.792   6.602
37792SOL    HW215274   1.683   9.653   6.635
37793SOL     OW15275   7.405  11.383   4.998
37793SOL    HW115276   7.319  11.426   5.005
37793SOL    HW215277   7.406  11.346   4.910
37794SOL     OW15278  13.494  11.755   5.892
37794SOL    HW115279  13.476  11.785   5.803
37794SOL    HW215280  13.414  11.709   5.918
37795SOL     OW15281   1.493  11.443   7.011
37795SOL    HW115282   1.572  11.450   7.064
37795SOL    HW215283   1.461  11.533   7.004
37796SOL     OW15284  11.371   3.151   0.308
37796SOL    HW115285  11.374   3.237   0.349
37796SOL    HW215286  11.278   3.133   0.295
37797SOL     OW15287   0.607   6.832  10.734
37797SOL    HW115288   0.529   6.793  10.694
37797SOL    HW215289   0.679   6.808  10.676
37798SOL     OW15290   3.864   2.094   5.873
37798SOL    HW115291   3.785   2.140   5.903
37798SOL    HW215292   3.835   2.004   5.859
37799SOL     OW15293   4.614   1.085   1.602
37799SOL    HW115294   4.571   1.060   1.521
37799SOL    HW215295   4.705   1.058   1.591
37800SOL     OW15296  13.327   1.490   1.626
37800SOL    HW115297  13.260   1.434   1.667
37800SOL    HW215298  13.407   1.437   1.629
37801SOL     OW15299   1.694   0.458   9.536
37801SOL    HW115300   1.781   0.473   9.573
37801SOL    HW215301   1.706   0.467   9.442
37802SOL     OW15302   7.550   4.864  11.759
37802SOL    HW115303   7.641   4.841  11.775
37802SOL    HW215304   7.526   4.812  11.682
37803SOL     OW15305  14.865   6.822  12.865
37803SOL    HW115306  14.862   6.835  12.770
37803SOL    HW215307  14.775   6.800  12.889
37804SOL     OW15308  11.036   0.254  14.493
37804SOL    HW115309  11.073   0.176  14.451
37804SOL    HW215310  10.982   0.219  14.565
37805SOL     OW15311   8.121   7.031   7.923
37805SOL    HW115312   8.185   7.093   7.958
37805SOL    HW215313   8.088   7.073   7.843
37806SOL     OW15314   4.390  14.150   6.672
37806SOL    HW115315   4.403  14.103   6.754
37806SOL    HW215316   4.430  14.094   6.606
37807SOL     OW15317  12.305  11.139  11.034
37807SOL    HW115318  12.307  11.157  10.940
37807SOL    HW215319  12.360  11.207  11.073
37808SOL     OW15320  10.091  13.470  12.765
37808SOL    HW115321  10.148  13.423  12.827
37808SOL    HW215322  10.073  13.554  12.807
37809SOL     OW15323   9.967  10.949   4.143
37809SOL    HW115324   9.959  10.860   4.108
37809SOL    HW215325   9.877  10.976   4.159
37810SOL     OW15326   8.731   7.215   0.167
37810SOL    HW115327   8.790   7.150   0.129
37810SOL    HW215328   8.643   7.178   0.152
37811SOL     OW15329   6.388   5.672   8.872
37811SOL    HW115330   6.298   5.682   8.842
37811SOL    HW215331   6.384   5.687   8.967
37812SOL     OW15332   6.613   2.000   3.685
37812SOL    HW115333   6.621   2.035   3.773
37812SOL    HW215334   6.535   2.042   3.649
37813SOL     OW15335   9.958   3.172  12.974
37813SOL    HW115336   9.960   3.097  12.915
37813SOL    HW215337   9.875   3.215  12.955
37814SOL     OW15338   2.521   2.045   0.113
37814SOL    HW115339   2.566   1.967   0.079
37814SOL    HW215340   2.454   2.064   0.047
37815SOL     OW15341   2.357   6.843   1.034
37815SOL    HW115342   2.312   6.759   1.024
37815SOL    HW215343   2.332   6.893   0.957
37816SOL     OW15344  10.123   5.524   1.186
37816SOL    HW115345  10.109   5.436   1.222
37816SOL    HW215346  10.062   5.530   1.113
37817SOL     OW15347   2.155   8.105   1.313
37817SOL    HW115348   2.182   8.095   1.405
37817SOL    HW215349   2.087   8.039   1.302
37818SOL     OW15350   2.170  12.261   4.072
37818SOL    HW115351   2.206  12.331   4.016
37818SOL    HW215352   2.084  12.242   4.034
37819SOL     OW15353   7.529   1.404   0.164
37819SOL    HW115354   7.532   1.465   0.091
37819SOL    HW215355   7.437   1.397   0.187
37820SOL     OW15356   6.273   3.075   5.842
37820SOL    HW115357   6.222   3.001   5.874
37820SOL    HW215358   6.350   3.077   5.898
37821SOL     OW15359   3.316   2.965   9.098
37821SOL    HW115360   3.390   2.957   9.159
37821SOL    HW215361   3.266   3.039   9.132
37822SOL     OW15362   6.567   7.557  11.357
37822SOL    HW115363   6.567   7.472  11.312
37822SOL    HW215364   6.632   7.609  11.310
37823SOL     OW15365   9.836   2.741   3.253
37823SOL    HW115366   9.885   2.676   3.202
37823SOL    HW215367   9.812   2.695   3.334
37824SOL     OW15368   4.373   8.720   1.996
37824SOL    HW115369   4.350   8.632   2.027
37824SOL    HW215370   4.322   8.779   2.052
37825SOL     OW15371  11.987  13.689   3.604
37825SOL    HW115372  12.051  13.732   3.662
37825SOL    HW215373  11.920  13.756   3.589
37826SOL     OW15374   0.452  10.189  11.925
37826SOL    HW115375   0.458  10.280  11.952
37826SOL    HW215376   0.541  10.155  11.935
37827SOL     OW15377   7.204   1.389   1.035
37827SOL    HW115378   7.145   1.430   1.099
37827SOL    HW215379   7.292   1.416   1.063
37828SOL     OW15380   3.264   8.162   9.045
37828SOL    HW115381   3.314   8.126   8.972
37828SOL    HW215382   3.177   8.178   9.009
37829SOL     OW15383   8.590   0.203  11.359
37829SOL    HW115384   8.600   0.118  11.314
37829SOL    HW215385   8.574   0.179  11.450
37830SOL     OW15386  13.627  12.662   1.404
37830SOL    HW115387  13.686  12.659   1.479
37830SOL    HW215388  13.576  12.743   1.417
37831SOL     OW15389   1.872   1.389  10.519
37831SOL    HW115390   1.806   1.399  10.450
37831SOL    HW215391   1.906   1.477  10.532
37832SOL     OW15392   8.389   7.623   5.698
37832SOL    HW115393   8.345   7.590   5.619
37832SOL    HW215394   8.365   7.560   5.766
37833SOL     OW15395   7.540   3.078   1.447
37833SOL    HW115396   7.624   3.033   1.440
37833SOL    HW215397   7.563   3.165   1.479
37834SOL     OW15398   7.842   9.144   0.420
37834SOL    HW115399   7.914   9.206   0.407
37834SOL    HW215400   7.763   9.198   0.416
37835SOL     OW15401  11.814   3.773   0.540
37835SOL    HW115402  11.837   3.680   0.546
37835SOL    HW215403  11.878   3.816   0.597
37836SOL     OW15404  13.848  13.086   9.583
37836SOL    HW115405  13.872  13.151   9.649
37836SOL    HW215406  13.821  13.009   9.634
37837SOL     OW15407  14.717   1.634   9.404
37837SOL    HW115408  14.759   1.707   9.358
37837SOL    HW215409  14.772   1.558   9.384
37838SOL     OW15410   6.030   1.398  11.938
37838SOL    HW115411   6.019   1.326  11.875
37838SOL    HW215412   6.114   1.438  11.913
37839SOL     OW15413  11.706  10.232   1.927
37839SOL    HW115414  11.784  10.243   1.981
37839SOL    HW215415  11.704  10.138   1.908
37840SOL     OW15416  10.886  11.815  14.764
37840SOL    HW115417  10.823  11.753  14.802
37840SOL    HW215418  10.971  11.776  14.783
37841SOL     OW15419   3.757  13.410   6.489
37841SOL    HW115420   3.849  13.408   6.514
37841SOL    HW215421   3.721  13.486   6.536
37842SOL     OW15422   1.831  10.144   3.758
37842SOL    HW115423   1.853  10.234   3.732
37842SOL    HW215424   1.801  10.153   3.849
37843SOL     OW15425  11.879  12.433  11.308
37843SOL    HW115426  11.884  12.508  11.249
37843SOL    HW215427  11.914  12.360  11.257
37844SOL     OW15428   7.171  14.596   4.196
37844SOL    HW115429   7.236  14.631   4.257
37844SOL    HW215430   7.179  14.501   4.204
37845SOL     OW15431   8.714   3.810   1.395
37845SOL    HW115432   8.731   3.840   1.306
37845SOL    HW215433   8.669   3.883   1.437
37846SOL     OW15434   5.591   2.416   3.565
37846SOL    HW115435   5.504   2.453   3.552
37846SOL    HW215436   5.575   2.322   3.579
37847SOL     OW15437  13.105   3.835   0.608
37847SOL    HW115438  13.011   3.831   0.589
37847SOL    HW215439  13.135   3.915   0.565
37848SOL     OW15440  10.685   9.757   9.773
37848SOL    HW115441  10.638   9.677   9.796
37848SOL    HW215442  10.650   9.783   9.688
37849SOL     OW15443   0.513  10.117   4.404
37849SOL    HW115444   0.574  10.119   4.478
37849SOL    HW215445   0.490  10.209   4.390
37850SOL     OW15446  12.489   1.819  10.714
37850SOL    HW115447  12.436   1.890  10.679
37850SOL    HW215448  12.553   1.801  10.646
37851SOL     OW15449   8.655   9.813   5.672
37851SOL    HW115450   8.704   9.891   5.647
37851SOL    HW215451   8.564   9.842   5.678
37852SOL     OW15452   6.417  11.283   5.992
37852SOL    HW115453   6.327  11.316   5.996
37852SOL    HW215454   6.462  11.343   5.933
37853SOL     OW15455  10.214  13.376   4.265
37853SOL    HW115456  10.250  13.406   4.182
37853SOL    HW215457  10.180  13.288   4.246
37854SOL     OW15458   7.677   5.899   1.506
37854SOL    HW115459   7.679   5.958   1.582
37854SOL    HW215460   7.597   5.848   1.517
37855SOL     OW15461  14.629  10.453   0.487
37855SOL    HW115462  14.594  10.400   0.415
37855SOL    HW215463  14.563  10.446   0.556
37856SOL     OW15464   3.326  13.477   5.908
37856SOL    HW115465   3.346  13.483   6.001
37856SOL    HW215466   3.333  13.567   5.875
37857SOL     OW15467   0.963  14.678   9.786
37857SOL    HW115468   0.974  14.772   9.770
37857SOL    HW215469   0.988  14.636   9.704
37858SOL     OW15470   7.985  10.209   4.518
37858SOL    HW115471   7.985  10.205   4.614
37858SOL    HW215472   7.994  10.118   4.490
37859SOL     OW15473   0.648   8.175  13.998
37859SOL    HW115474   0.647   8.254  13.943
37859SOL    HW215475   0.680   8.106  13.940
37860SOL     OW15476   6.597   3.892   8.488
37860SOL    HW115477   6.641   3.939   8.417
37860SOL    HW215478   6.632   3.804   8.484
37861SOL     OW15479   9.426   7.685   2.653
37861SOL    HW115480   9.389   7.772   2.637
37861SOL    HW215481   9.456   7.656   2.567
37862SOL     OW15482   8.942   1.947   3.739
37862SOL    HW115483   8.948   1.980   3.829
37862SOL    HW215484   8.875   1.879   3.742
37863SOL     OW15485  10.140   4.971  10.441
37863SOL    HW115486  10.157   4.878  10.427
37863SOL    HW215487  10.051   4.985  10.407
37864SOL     OW15488  10.627   1.394  11.318
37864SOL    HW115489  10.593   1.329  11.379
37864SOL    HW215490  10.638   1.347  11.236
37865SOL     OW15491  12.020  11.120  11.411
37865SOL    HW115492  12.015  11.025  11.421
37865SOL    HW215493  11.941  11.152  11.455
37866SOL     OW15494   8.659  11.669   9.478
37866SOL    HW115495   8.740  11.651   9.430
37866SOL    HW215496   8.648  11.764   9.471
37867SOL     OW15497   0.952   5.773   9.004
37867SOL    HW115498   1.013   5.847   9.007
37867SOL    HW215499   1.007   5.695   9.006
37868SOL     OW15500   4.473   9.395   3.501
37868SOL    HW115501   4.489   9.475   3.451
37868SOL    HW215502   4.412   9.423   3.570
37869SOL     OW15503   0.235  12.938   0.665
37869SOL    HW115504   0.186  13.006   0.620
37869SOL    HW215505   0.322  12.975   0.679
37870SOL     OW15506   1.250  14.757   3.837
37870SOL    HW115507   1.281  14.797   3.756
37870SOL    HW215508   1.270  14.821   3.906
37871SOL     OW15509   1.294   8.847  10.134
37871SOL    HW115510   1.286   8.941  10.150
37871SOL    HW215511   1.318   8.840  10.041
37872SOL     OW15512   9.285   9.405  11.191
37872SOL    HW115513   9.294   9.459  11.113
37872SOL    HW215514   9.198   9.427  11.225
37873SOL     OW15515  14.443  13.278   2.123
37873SOL    HW115516  14.435  13.355   2.067
37873SOL    HW215517  14.537  13.264   2.133
37874SOL     OW15518   6.136   7.666   9.145
37874SOL    HW115519   6.178   7.750   9.126
37874SOL    HW215520   6.203   7.615   9.190
37875SOL     OW15521   4.863   5.331   7.863
37875SOL    HW115522   4.905   5.306   7.781
37875SOL    HW215523   4.891   5.421   7.878
37876SOL     OW15524   7.271   4.003  14.756
37876SOL    HW115525   7.217   3.963  14.688
37876SOL    HW215526   7.217   4.074  14.791
37877SOL     OW15527  10.365   4.637   1.404
37877SOL    HW115528  10.452   4.602   1.421
37877SOL    HW215529  10.321   4.636   1.489
37878SOL     OW15530   7.848  11.219   7.887
37878SOL    HW115531   7.920  11.196   7.829
37878SOL    HW215532   7.841  11.314   7.880
37879SOL     OW15533   4.418  13.849  10.839
37879SOL    HW115534   4.324  13.835  10.832
37879SOL    HW215535   4.456  13.761  10.831
37880SOL     OW15536   3.459   9.109  11.964
37880SOL    HW115537   3.479   9.032  12.017
37880SOL    HW215538   3.515   9.102  11.888
37881SOL     OW15539   5.856  13.800   5.798
37881SOL    HW115540   5.799  13.877   5.792
37881SOL    HW215541   5.937  13.832   5.837
37882SOL     OW15542  14.524   1.053   2.819
37882SOL    HW115543  14.517   0.961   2.843
37882SOL    HW215544  14.568   1.095   2.893
37883SOL     OW15545   0.607   2.188  13.015
37883SOL    HW115546   0.547   2.192  12.941
37883SOL    HW215547   0.551   2.168  13.090
37884SOL     OW15548   0.234   5.261   2.091
37884SOL    HW115549   0.188   5.239   2.010
37884SOL    HW215550   0.189   5.209   2.158
37885SOL     OW15551   9.872   6.890   8.951
37885SOL    HW115552   9.843   6.818   9.007
37885SOL    HW215553   9.860   6.857   8.862
37886SOL     OW15554   9.235   4.822   3.498
37886SOL    HW115555   9.279   4.865   3.571
37886SOL    HW215556   9.250   4.881   3.424
37887SOL     OW15557   5.600  14.779  12.000
37887SOL    HW115558   5.551  14.861  12.000
37887SOL    HW215559   5.575  14.737  11.918
37888SOL     OW15560   8.598   8.745  11.587
37888SOL    HW115561   8.643   8.827  11.566
37888SOL    HW215562   8.609   8.690  11.509
37889SOL     OW15563  13.525  11.848  13.143
37889SOL    HW115564  13.559  11.917  13.086
37889SOL    HW215565  13.592  11.780  13.140
37890SOL     OW15566  13.780  11.851  12.399
37890SOL    HW115567  13.723  11.868  12.474
37890SOL    HW215568  13.748  11.769  12.361
37891SOL     OW15569  13.376   1.049   6.662
37891SOL    HW115570  13.328   0.975   6.698
37891SOL    HW215571  13.468   1.026   6.673
37892SOL     OW15572   8.616  12.061   3.586
37892SOL    HW115573   8.565  12.028   3.660
37892SOL    HW215574   8.656  11.983   3.548
37893SOL     OW15575   9.397   2.526   6.436
37893SOL    HW115576   9.322   2.469   6.419
37893SOL    HW215577   9.442   2.486   6.511
37894SOL     OW15578   7.696  13.266  14.458
37894SOL    HW115579   7.727  13.288  14.370
37894SOL    HW215580   7.699  13.349  14.506
37895SOL     OW15581   9.713  12.658   0.147
37895SOL    HW115582   9.724  12.564   0.157
37895SOL    HW215583   9.727  12.674   0.054
37896SOL     OW15584  10.678   0.448   0.522
37896SOL    HW115585  10.749   0.441   0.458
37896SOL    HW215586  10.713   0.506   0.590
37897SOL     OW15587   2.972   5.598   5.201
37897SOL    HW115588   2.892   5.628   5.244
37897SOL    HW215589   2.958   5.617   5.108
37898SOL     OW15590  12.174   8.916   2.413
37898SOL    HW115591  12.231   8.992   2.401
37898SOL    HW215592  12.142   8.924   2.503
37899SOL     OW15593  13.602   6.447   3.975
37899SOL    HW115594  13.600   6.386   3.902
37899SOL    HW215595  13.694   6.451   4.001
37900SOL     OW15596   4.014   8.900  13.666
37900SOL    HW115597   3.953   8.917  13.594
37900SOL    HW215598   4.071   8.832  13.632
37901SOL     OW15599  11.061   2.957   7.596
37901SOL    HW115600  11.152   2.954   7.626
37901SOL    HW215601  11.062   2.908   7.513
37902SOL     OW15602  14.623  14.721   3.318
37902SOL    HW115603  14.708  14.684   3.339
37902SOL    HW215604  14.589  14.752   3.402
37903SOL     OW15605   4.606   4.588   6.368
37903SOL    HW115606   4.575   4.665   6.319
37903SOL    HW215607   4.527   4.543   6.395
37904SOL     OW15608   7.602   6.448   5.648
37904SOL    HW115609   7.674   6.441   5.585
37904SOL    HW215610   7.631   6.514   5.711
37905SOL     OW15611  13.879   0.393   3.709
37905SOL    HW115612  13.807   0.412   3.648
37905SOL    HW215613  13.887   0.472   3.762
37906SOL     OW15614  10.071  12.631   1.156
37906SOL    HW115615  10.030  12.638   1.069
37906SOL    HW215616  10.088  12.537   1.167
37907SOL     OW15617   6.302   3.394   2.895
37907SOL    HW115618   6.277   3.455   2.825
37907SOL    HW215619   6.264   3.310   2.869
37908SOL     OW15620   6.073  14.029   1.337
37908SOL    HW115621   6.166  14.042   1.320
37908SOL    HW215622   6.064  13.934   1.347
37909SOL     OW15623   0.860   0.416  11.845
37909SOL    HW115624   0.955   0.428  11.846
37909SOL    HW215625   0.840   0.393  11.755
37910SOL     OW15626   2.519   7.481   4.374
37910SOL    HW115627   2.451   7.424   4.409
37910SOL    HW215628   2.552   7.435   4.298
37911SOL     OW15629   9.513   6.913   5.157
37911SOL    HW115630   9.505   6.862   5.077
37911SOL    HW215631   9.594   6.882   5.198
37912SOL     OW15632   8.614   5.188   6.166
37912SOL    HW115633   8.666   5.124   6.117
37912SOL    HW215634   8.524   5.156   6.161
37913SOL     OW15635   5.710   5.237   6.882
37913SOL    HW115636   5.703   5.308   6.819
37913SOL    HW215637   5.635   5.248   6.941
37914SOL     OW15638   2.698  12.896   1.460
37914SOL    HW115639   2.639  12.924   1.530
37914SOL    HW215640   2.641  12.853   1.396
37915SOL     OW15641  11.123   7.678   1.283
37915SOL    HW115642  11.213   7.705   1.301
37915SOL    HW215643  11.127   7.582   1.281
37916SOL     OW15644   5.891   9.496   5.217
37916SOL    HW115645   5.815   9.519   5.271
37916SOL    HW215646   5.877   9.405   5.194
37917SOL     OW15647   8.426   7.225   5.211
37917SOL    HW115648   8.386   7.233   5.125
37917SOL    HW215649   8.355   7.197   5.268
37918SOL     OW15650   8.085   9.279   4.088
37918SOL    HW115651   8.138   9.224   4.146
37918SOL    HW215652   8.078   9.229   4.007
37919SOL     OW15653   0.496   7.230   1.168
37919SOL    HW115654   0.476   7.228   1.262
37919SOL    HW215655   0.427   7.178   1.128
37920SOL     OW15656   8.241   1.822  11.841
37920SOL    HW115657   8.162   1.770  11.826
37920SOL    HW215658   8.313   1.758  11.840
37921SOL     OW15659  14.359   6.742   4.072
37921SOL    HW115660  14.439   6.742   4.020
37921SOL    HW215661  14.296   6.792   4.019
37922SOL     OW15662  14.204   8.771   3.983
37922SOL    HW115663  14.192   8.682   3.951
37922SOL    HW215664  14.206   8.825   3.904
37923SOL     OW15665   8.898   4.213   7.041
37923SOL    HW115666   8.944   4.135   7.073
37923SOL    HW215667   8.933   4.227   6.953
37924SOL     OW15668   7.257  11.781   3.813
37924SOL    HW115669   7.285  11.690   3.804
37924SOL    HW215670   7.316  11.830   3.756
37925SOL     OW15671   4.037  13.443  12.038
37925SOL    HW115672   3.952  13.485  12.047
37925SOL    HW215673   4.096  13.513  12.010
37926SOL     OW15674  11.187   2.700   5.241
37926SOL    HW115675  11.202   2.767   5.307
37926SOL    HW215676  11.254   2.634   5.257
37927SOL     OW15677  14.188   1.339  13.956
37927SOL    HW115678  14.120   1.398  13.923
37927SOL    HW215679  14.243   1.321  13.880
37928SOL     OW15680  10.654   0.125   9.853
37928SOL    HW115681  10.707   0.160   9.925
37928SOL    HW215682  10.607   0.201   9.819
37929SOL     OW15683   4.866  10.465   1.406
37929SOL    HW115684   4.890  10.445   1.496
37929SOL    HW215685   4.797  10.402   1.385
37930SOL     OW15686   4.510  10.451   0.956
37930SOL    HW115687   4.562  10.391   0.903
37930SOL    HW215688   4.431  10.402   0.977
37931SOL     OW15689   8.216   2.182   7.675
37931SOL    HW115690   8.183   2.270   7.691
37931SOL    HW215691   8.167   2.127   7.736
37932SOL     OW15692  11.154   7.114  13.431
37932SOL    HW115693  11.075   7.083  13.474
37932SOL    HW215694  11.153   7.209  13.445
37933SOL     OW15695   0.052  14.805   2.611
37933SOL    HW115696   0.081  14.842   2.694
37933SOL    HW215697   0.033  14.713   2.631
37934SOL     OW15698   2.910   9.252   3.936
37934SOL    HW115699   2.896   9.339   3.899
37934SOL    HW215700   2.838   9.199   3.902
37935SOL     OW15701   6.612  11.316   4.941
37935SOL    HW115702   6.595  11.398   4.988
37935SOL    HW215703   6.526  11.276   4.931
37936SOL     OW15704   2.962  14.210   1.601
37936SOL    HW115705   3.031  14.162   1.555
37936SOL    HW215706   2.984  14.200   1.694
37937SOL     OW15707   5.290   8.371   3.502
37937SOL    HW115708   5.239   8.451   3.515
37937SOL    HW215709   5.380   8.397   3.521
37938SOL     OW15710   3.828   1.040   0.894
37938SOL    HW115711   3.761   0.978   0.865
37938SOL    HW215712   3.880   1.058   0.816
37939SOL     OW15713   4.849   1.517   8.274
37939SOL    HW115714   4.775   1.473   8.317
37939SOL    HW215715   4.865   1.465   8.195
37940SOL     OW15716  14.326  10.102  11.302
37940SOL    HW115717  14.356  10.063  11.385
37940SOL    HW215718  14.230  10.100  11.308
37941SOL     OW15719  12.215   3.571   5.072
37941SOL    HW115720  12.255   3.518   5.141
37941SOL    HW215721  12.255   3.657   5.083
37942SOL     OW15722   0.575  14.855   1.093
37942SOL    HW115723   0.643   0.053   1.077
37942SOL    HW215724   0.519   0.028   1.158
37943SOL     OW15725  13.752   6.972   8.413
37943SOL    HW115726  13.756   7.066   8.395
37943SOL    HW215727  13.708   6.934   8.337
37944SOL     OW15728   1.928   6.639   5.571
37944SOL    HW115729   1.951   6.713   5.627
37944SOL    HW215730   2.010   6.614   5.530
37945SOL     OW15731   0.735   0.138  12.212
37945SOL    HW115732   0.784   0.217  12.191
37945SOL    HW215733   0.713   0.099  12.128
37946SOL     OW15734  14.649  11.263   8.737
37946SOL    HW115735  14.595  11.253   8.659
37946SOL    HW215736  14.704  11.339   8.718
37947SOL     OW15737   7.308   8.511   7.944
37947SOL    HW115738   7.384   8.568   7.938
37947SOL    HW215739   7.314   8.453   7.868
37948SOL     OW15740  12.119   5.382   7.362
37948SOL    HW115741  12.184   5.331   7.412
37948SOL    HW215742  12.037   5.370   7.411
37949SOL     OW15743  11.077  12.541   1.033
37949SOL    HW115744  11.000  12.583   1.072
37949SOL    HW215745  11.152  12.582   1.076
37950SOL     OW15746   2.830   5.224   4.495
37950SOL    HW115747   2.772   5.154   4.463
37950SOL    HW215748   2.797   5.243   4.583
37951SOL     OW15749  12.260   0.497   5.758
37951SOL    HW115750  12.302   0.428   5.707
37951SOL    HW215751  12.167   0.473   5.757
37952SOL     OW15752   7.076   6.206  13.321
37952SOL    HW115753   7.013   6.174  13.386
37952SOL    HW215754   7.043   6.293  13.298
37953SOL     OW15755   4.691  14.524   7.634
37953SOL    HW115756   4.602  14.560   7.630
37953SOL    HW215757   4.714  14.507   7.542
37954SOL     OW15758   2.950   8.683   3.992
37954SOL    HW115759   2.919   8.766   3.955
37954SOL    HW215760   3.034   8.668   3.949
37955SOL     OW15761  12.086   2.515  12.848
37955SOL    HW115762  12.127   2.546  12.767
37955SOL    HW215763  12.010   2.466  12.819
37956SOL     OW15764  14.136   5.135   1.543
37956SOL    HW115765  14.226   5.103   1.544
37956SOL    HW215766  14.131   5.191   1.465
37957SOL     OW15767  14.558   7.248   0.499
37957SOL    HW115768  14.647   7.244   0.463
37957SOL    HW215769  14.521   7.329   0.464
37958SOL     OW15770   6.355  13.572   5.362
37958SOL    HW115771   6.371  13.485   5.399
37958SOL    HW215772   6.261  13.586   5.373
37959SOL     OW15773   1.018  12.970   1.460
37959SOL    HW115774   1.051  12.939   1.544
37959SOL    HW215775   0.935  12.924   1.448
37960SOL     OW15776   1.207   0.859   6.118
37960SOL    HW115777   1.254   0.822   6.193
37960SOL    HW215778   1.116   0.862   6.146
37961SOL     OW15779   5.109  14.062   2.989
37961SOL    HW115780   5.111  13.976   3.033
37961SOL    HW215781   5.196  14.099   3.005
37962SOL     OW15782  11.312   0.203  13.757
37962SOL    HW115783  11.367   0.131  13.788
37962SOL    HW215784  11.332   0.275  13.817
37963SOL     OW15785   5.747   1.099  10.001
37963SOL    HW115786   5.759   1.090   9.906
37963SOL    HW215787   5.744   1.193  10.016
37964SOL     OW15788   5.395   6.023   3.534
37964SOL    HW115789   5.399   6.117   3.516
37964SOL    HW215790   5.402   5.982   3.447
37965SOL     OW15791   6.800   2.784   7.705
37965SOL    HW115792   6.826   2.808   7.616
37965SOL    HW215793   6.883   2.777   7.753
37966SOL     OW15794   1.050   2.805  10.300
37966SOL    HW115795   1.070   2.720  10.340
37966SOL    HW215796   1.018   2.858  10.373
37967SOL     OW15797   5.246   2.508   3.093
37967SOL    HW115798   5.304   2.456   3.037
37967SOL    HW215799   5.234   2.590   3.045
37968SOL     OW15800   7.873   4.092   7.504
37968SOL    HW115801   7.867   4.170   7.560
37968SOL    HW215802   7.909   4.125   7.422
37969SOL     OW15803   2.316  13.491   0.605
37969SOL    HW115804   2.270  13.412   0.578
37969SOL    HW215805   2.295  13.556   0.538
37970SOL     OW15806   1.095  14.786   6.411
37970SOL    HW115807   1.156  14.816   6.344
37970SOL    HW215808   1.056  14.867   6.445
37971SOL     OW15809   2.275   2.191   2.999
37971SOL    HW115810   2.267   2.096   3.008
37971SOL    HW215811   2.367   2.206   2.977
37972SOL     OW15812   2.005   4.037  11.382
37972SOL    HW115813   1.972   4.089  11.455
37972SOL    HW215814   1.950   3.959  11.380
37973SOL     OW15815  12.090   4.296  11.308
37973SOL    HW115816  12.110   4.211  11.347
37973SOL    HW215817  12.125   4.289  11.219
37974SOL     OW15818   8.188   6.246   8.634
37974SOL    HW115819   8.215   6.157   8.658
37974SOL    HW215820   8.267   6.287   8.598
37975SOL     OW15821  13.908   9.562   3.170
37975SOL    HW115822  13.843   9.631   3.164
37975SOL    HW215823  13.940   9.566   3.260
37976SOL     OW15824   1.308   4.486   8.166
37976SOL    HW115825   1.251   4.563   8.173
37976SOL    HW215826   1.387   4.518   8.123
37977SOL     OW15827   0.328  10.401   0.433
37977SOL    HW115828   0.322  10.371   0.524
37977SOL    HW215829   0.404  10.460   0.433
37978SOL     OW15830  11.240   8.709   0.903
37978SOL    HW115831  11.243   8.775   0.973
37978SOL    HW215832  11.318   8.726   0.851
37979SOL     OW15833   9.102   3.771   7.183
37979SOL    HW115834   9.107   3.719   7.264
37979SOL    HW215835   9.016   3.813   7.186
37980SOL     OW15836   3.830   2.425  11.176
37980SOL    HW115837   3.881   2.403  11.098
37980SOL    HW215838   3.894   2.424  11.248
37981SOL     OW15839  10.438   4.643  11.875
37981SOL    HW115840  10.348   4.613  11.867
37981SOL    HW215841  10.469   4.605  11.957
37982SOL     OW15842   6.775   5.836  14.239
37982SOL    HW115843   6.772   5.873  14.327
37982SOL    HW215844   6.714   5.889  14.188
37983SOL     OW15845   7.470  13.782   1.992
37983SOL    HW115846   7.403  13.845   1.967
37983SOL    HW215847   7.518  13.824   2.064
37984SOL     OW15848   5.046   4.451   7.469
37984SOL    HW115849   5.009   4.455   7.558
37984SOL    HW215850   5.094   4.369   7.467
37985SOL     OW15851  13.994   0.158   1.565
37985SOL    HW115852  13.918   0.197   1.608
37985SOL    HW215853  14.039   0.233   1.524
37986SOL     OW15854  11.629  12.201   9.889
37986SOL    HW115855  11.549  12.153   9.909
37986SOL    HW215856  11.629  12.275   9.951
37987SOL     OW15857   9.292   5.349   6.692
37987SOL    HW115858   9.235   5.420   6.663
37987SOL    HW215859   9.244   5.306   6.763
37988SOL     OW15860  11.095   2.291   7.423
37988SOL    HW115861  11.018   2.286   7.365
37988SOL    HW215862  11.059   2.318   7.508
37989SOL     OW15863   6.712   3.739   6.544
37989SOL    HW115864   6.692   3.769   6.455
37989SOL    HW215865   6.628   3.709   6.578
37990SOL     OW15866   2.338   9.094   0.720
37990SOL    HW115867   2.304   9.014   0.760
37990SOL    HW215868   2.430   9.098   0.748
37991SOL     OW15869   9.245   8.302  12.679
37991SOL    HW115870   9.259   8.378  12.623
37991SOL    HW215871   9.182   8.248  12.630
37992SOL     OW15872   1.470   2.524  12.051
37992SOL    HW115873   1.509   2.487  12.130
37992SOL    HW215874   1.502   2.614  12.049
37993SOL     OW15875   4.746  13.968  11.242
37993SOL    HW115876   4.783  14.053  11.216
37993SOL    HW215877   4.769  13.909  11.170
37994SOL     OW15878   3.234   5.582  14.227
37994SOL    HW115879   3.296   5.597  14.298
37994SOL    HW215880   3.160   5.640  14.246
37995SOL     OW15881  13.671   3.757   9.453
37995SOL    HW115882  13.605   3.743   9.384
37995SOL    HW215883  13.706   3.669   9.469
37996SOL     OW15884  11.193  12.598   5.421
37996SOL    HW115885  11.163  12.583   5.510
37996SOL    HW215886  11.204  12.511   5.384
37997SOL     OW15887   9.508   4.608   0.298
37997SOL    HW115888   9.445   4.651   0.357
37997SOL    HW215889   9.575   4.573   0.357
37998SOL     OW15890  12.720  11.428  14.122
37998SOL    HW115891  12.752  11.443  14.211
37998SOL    HW215892  12.638  11.380  14.134
37999SOL     OW15893  12.676   9.961  10.694
37999SOL    HW115894  12.584   9.967  10.668
37999SOL    HW215895  12.716   9.907  10.626
38000SOL     OW15896   8.464   1.967   3.471
38000SOL    HW115897   8.455   2.006   3.384
38000SOL    HW215898   8.543   1.913   3.466
38001SOL     OW15899  10.937  10.943   4.977
38001SOL    HW115900  10.909  10.876   5.040
38001SOL    HW215901  11.018  10.910   4.940
38002SOL     OW15902   7.269  12.680   2.305
38002SOL    HW115903   7.197  12.640   2.256
38002SOL    HW215904   7.241  12.675   2.396
38003SOL     OW15905  11.613   3.495   0.079
38003SOL    HW115906  11.642   3.561   0.017
38003SOL    HW215907  11.578   3.424   0.025
38004SOL     OW15908   6.427   8.165   9.002
38004SOL    HW115909   6.466   8.246   9.034
38004SOL    HW215910   6.334   8.187   8.991
38005SOL     OW15911   7.850   1.024  12.240
38005SOL    HW115912   7.875   1.048  12.150
38005SOL    HW215913   7.903   0.947  12.260
38006SOL     OW15914  11.403  13.570  14.439
38006SOL    HW115915  11.422  13.641  14.500
38006SOL    HW215916  11.413  13.609  14.353
38007SOL     OW15917   0.541   9.103   9.692
38007SOL    HW115918   0.543   9.022   9.640
38007SOL    HW215919   0.462   9.094   9.745
38008SOL     OW15920   3.530   6.523  12.881
38008SOL    HW115921   3.434   6.529  12.890
38008SOL    HW215922   3.544   6.441  12.833
38009SOL     OW15923   9.044   2.792   4.273
38009SOL    HW115924   9.105   2.767   4.204
38009SOL    HW215925   9.100   2.821   4.345
38010SOL     OW15926  11.354  12.310   9.208
38010SOL    HW115927  11.273  12.319   9.259
38010SOL    HW215928  11.414  12.265   9.266
38011SOL     OW15929   5.554  11.481   3.099
38011SOL    HW115930   5.513  11.510   3.017
38011SOL    HW215931   5.483  11.480   3.162
38012SOL     OW15932  13.922   5.993   4.672
38012SOL    HW115933  13.968   6.029   4.748
38012SOL    HW215934  13.833   6.027   4.679
38013SOL     OW15935   8.864   8.371   1.124
38013SOL    HW115936   8.867   8.355   1.030
38013SOL    HW215937   8.956   8.371   1.151
38014SOL     OW15938   4.844  14.478  10.904
38014SOL    HW115939   4.882  14.450  10.988
38014SOL    HW215940   4.920  14.497  10.849
38015SOL     OW15941   4.272  13.994   3.897
38015SOL    HW115942   4.290  13.929   3.964
38015SOL    HW215943   4.281  13.946   3.814
38016SOL     OW15944  12.755  14.028   4.940
38016SOL    HW115945  12.669  14.058   4.911
38016SOL    HW215946  12.742  14.004   5.032
38017SOL     OW15947   8.243  12.634   0.968
38017SOL    HW115948   8.228  12.704   0.905
38017SOL    HW215949   8.339  12.629   0.976
38018SOL     OW15950   0.976   3.044   1.401
38018SOL    HW115951   1.003   3.034   1.309
38018SOL    HW215952   1.047   3.004   1.451
38019SOL     OW15953   0.212  14.640   9.207
38019SOL    HW115954   0.204  14.551   9.243
38019SOL    HW215955   0.175  14.633   9.119
38020SOL     OW15956  10.869   6.844   6.635
38020SOL    HW115957  10.873   6.763   6.584
38020SOL    HW215958  10.861   6.913   6.570
38021SOL     OW15959   2.752   2.621  11.060
38021SOL    HW115960   2.806   2.700  11.054
38021SOL    HW215961   2.665   2.653  11.085
38022SOL     OW15962   0.422   1.306   4.880
38022SOL    HW115963   0.479   1.251   4.827
38022SOL    HW215964   0.401   1.252   4.957
38023SOL     OW15965   2.050   7.599   2.915
38023SOL    HW115966   2.080   7.653   2.989
38023SOL    HW215967   2.118   7.533   2.904
38024SOL     OW15968   6.272  13.679   6.270
38024SOL    HW115969   6.237  13.604   6.316
38024SOL    HW215970   6.203  13.745   6.275
38025SOL     OW15971   4.840   4.743  13.926
38025SOL    HW115972   4.775   4.705  13.867
38025SOL    HW215973   4.792   4.757  14.008
38026SOL     OW15974  10.490   0.205  10.126
38026SOL    HW115975  10.550   0.254  10.069
38026SOL    HW215976  10.449   0.271  10.181
38027SOL     OW15977   1.911   4.853  11.890
38027SOL    HW115978   2.003   4.829  11.903
38027SOL    HW215979   1.911   4.906  11.811
38028SOL     OW15980   6.652   0.604   1.405
38028SOL    HW115981   6.726   0.550   1.434
38028SOL    HW215982   6.608   0.552   1.338
38029SOL     OW15983   0.881   0.015  14.601
38029SOL    HW115984   0.808   0.072  14.626
38029SOL    HW215985   0.878   0.014  14.505
38030SOL     OW15986  10.488  14.570   3.481
38030SOL    HW115987  10.507  14.605   3.568
38030SOL    HW215988  10.548  14.497   3.470
38031SOL     OW15989  13.817  10.752  11.815
38031SOL    HW115990  13.785  10.662  11.812
38031SOL    HW215991  13.755  10.798  11.872
38032SOL     OW15992  14.568  12.161   3.571
38032SOL    HW115993  14.572  12.215   3.493
38032SOL    HW215994  14.510  12.089   3.547
38033SOL     OW15995   1.762   8.318  12.045
38033SOL    HW115996   1.836   8.378  12.060
38033SOL    HW215997   1.725   8.347  11.962
38034SOL     OW15998   0.238  12.338   9.955
38034SOL    HW115999   0.298  12.265   9.967
38034SOL    HW216000   0.231  12.348   9.860
38035SOL     OW16001   2.373   9.803  10.437
38035SOL    HW116002   2.441   9.845  10.489
38035SOL    HW216003   2.399   9.711  10.434
38036SOL     OW16004   8.200   8.741  11.390
38036SOL    HW116005   8.296   8.737  11.399
38036SOL    HW216006   8.168   8.739  11.480
38037SOL     OW16007  13.500  11.191   9.839
38037SOL    HW116008  13.503  11.099   9.866
38037SOL    HW216009  13.489  11.188   9.744
38038SOL     OW16010  12.148   1.918   5.319
38038SOL    HW116011  12.181   1.955   5.401
38038SOL    HW216012  12.093   1.987   5.282
38039SOL     OW16013   3.356   4.313  14.063
38039SOL    HW116014   3.382   4.329  13.972
38039SOL    HW216015   3.279   4.257  14.056
38040SOL     OW16016  10.005   4.606   3.321
38040SOL    HW116017  10.047   4.527   3.355
38040SOL    HW216018   9.914   4.581   3.307
38041SOL     OW16019   8.144   9.387   9.433
38041SOL    HW116020   8.133   9.325   9.362
38041SOL    HW216021   8.227   9.431   9.414
38042SOL     OW16022  11.743   9.657   8.362
38042SOL    HW116023  11.762   9.727   8.299
38042SOL    HW216024  11.650   9.638   8.350
38043SOL     OW16025  14.596   3.443  12.074
38043SOL    HW116026  14.686   3.474  12.090
38043SOL    HW216027  14.606   3.353  12.043
38044SOL     OW16028  12.337  10.900  11.495
38044SOL    HW116029  12.324  10.964  11.565
38044SOL    HW216030  12.288  10.823  11.525
38045SOL     OW16031   1.431   8.930   4.486
38045SOL    HW116032   1.358   8.937   4.424
38045SOL    HW216033   1.508   8.917   4.430
38046SOL     OW16034   9.291   8.207   5.399
38046SOL    HW116035   9.368   8.189   5.453
38046SOL    HW216036   9.244   8.274   5.448
38047SOL     OW16037   8.093   0.602   5.654
38047SOL    HW116038   8.137   0.530   5.608
38047SOL    HW216039   8.153   0.676   5.645
38048SOL     OW16040   3.613   9.349  14.486
38048SOL    HW116041   3.599   9.298  14.565
38048SOL    HW216042   3.660   9.427  14.515
38049SOL     OW16043   6.061   7.966  14.393
38049SOL    HW116044   5.982   8.012  14.363
38049SOL    HW216045   6.087   8.013  14.472
38050SOL     OW16046   3.088   3.650  13.506
38050SOL    HW116047   3.128   3.564  13.494
38050SOL    HW216048   3.009   3.648  13.452
38051SOL     OW16049   2.586   9.148   0.800
38051SOL    HW116050   2.567   9.208   0.873
38051SOL    HW216051   2.666   9.183   0.761
38052SOL     OW16052   0.432  13.160  11.265
38052SOL    HW116053   0.370  13.089  11.279
38052SOL    HW216054   0.397  13.234  11.316
38053SOL     OW16055   7.241  11.525  11.820
38053SOL    HW116056   7.182  11.587  11.864
38053SOL    HW216057   7.304  11.580  11.773
38054SOL     OW16058   7.134  13.614   7.964
38054SOL    HW116059   7.143  13.519   7.965
38054SOL    HW216060   7.079  13.634   8.039
38055SOL     OW16061   7.188  12.745  14.808
38055SOL    HW116062   7.167  12.792  14.728
38055SOL    HW216063   7.281  12.722  14.799
38056SOL     OW16064   9.453   1.124   9.465
38056SOL    HW116065   9.475   1.168   9.383
38056SOL    HW216066   9.465   1.031   9.445
38057SOL     OW16067  14.366   0.285   1.417
38057SOL    HW116068  14.308   0.352   1.451
38057SOL    HW216069  14.366   0.216   1.483
38058SOL     OW16070   4.864   3.129   8.056
38058SOL    HW116071   4.860   3.196   8.124
38058SOL    HW216072   4.918   3.168   7.987
38059SOL     OW16073  11.962   9.399   9.226
38059SOL    HW116074  11.974   9.494   9.234
38059SOL    HW216075  11.885   9.390   9.170
38060SOL     OW16076   4.417   2.996  10.199
38060SOL    HW116077   4.385   3.019  10.112
38060SOL    HW216078   4.365   3.049  10.259
38061SOL     OW16079   6.867  12.830   2.281
38061SOL    HW116080   6.832  12.791   2.361
38061SOL    HW216081   6.796  12.885   2.248
38062SOL     OW16082  12.793  14.221  13.300
38062SOL    HW116083  12.860  14.156  13.279
38062SOL    HW216084  12.768  14.200  13.390
38063SOL     OW16085   2.633  13.040   7.046
38063SOL    HW116086   2.541  13.035   7.021
38063SOL    HW216087   2.678  12.983   6.984
38064SOL     OW16088   2.900  10.128   2.773
38064SOL    HW116089   2.819  10.173   2.749
38064SOL    HW216090   2.919  10.071   2.698
38065SOL     OW16091   7.536   1.416   3.620
38065SOL    HW116092   7.524   1.356   3.694
38065SOL    HW216093   7.511   1.501   3.655
38066SOL     OW16094   8.688   1.911  10.733
38066SOL    HW116095   8.648   1.967  10.799
38066SOL    HW216096   8.619   1.849  10.708
38067SOL     OW16097   2.017   9.186  10.508
38067SOL    HW116098   1.971   9.114  10.467
38067SOL    HW216099   1.956   9.219  10.574
38068SOL     OW16100   1.128   5.588   0.178
38068SOL    HW116101   1.083   5.510   0.145
38068SOL    HW216102   1.175   5.623   0.103
38069SOL     OW16103   2.116   0.354   2.381
38069SOL    HW116104   2.082   0.345   2.292
38069SOL    HW216105   2.208   0.329   2.374
38070SOL     OW16106   8.712  12.111   6.784
38070SOL    HW116107   8.716  12.061   6.702
38070SOL    HW216108   8.628  12.156   6.781
38071SOL     OW16109  10.595   2.725   3.108
38071SOL    HW116110  10.582   2.702   3.016
38071SOL    HW216111  10.650   2.654   3.143
38072SOL     OW16112  14.692  10.548  13.169
38072SOL    HW116113  14.670  10.640  13.176
38072SOL    HW216114  14.782  10.547  13.135
38073SOL     OW16115   4.720  11.424  11.276
38073SOL    HW116116   4.733  11.345  11.327
38073SOL    HW216117   4.793  11.425  11.214
38074SOL     OW16118   5.634  10.728   2.039
38074SOL    HW116119   5.573  10.799   2.060
38074SOL    HW216120   5.691  10.722   2.115
38075SOL     OW16121   9.506   8.948   3.443
38075SOL    HW116122   9.599   8.965   3.458
38075SOL    HW216123   9.496   8.947   3.348
38076SOL     OW16124   0.493   2.226  13.521
38076SOL    HW116125   0.584   2.254  13.506
38076SOL    HW216126   0.445   2.259  13.445
38077SOL     OW16127   3.889   5.813   7.282
38077SOL    HW116128   3.918   5.881   7.221
38077SOL    HW216129   3.829   5.858   7.342
38078SOL     OW16130  11.097  11.384   3.914
38078SOL    HW116131  11.143  11.398   3.831
38078SOL    HW216132  11.156  11.420   3.980
38079SOL     OW16133   7.071  14.103   4.800
38079SOL    HW116134   6.994  14.082   4.853
38079SOL    HW216135   7.044  14.082   4.711
38080SOL     OW16136  12.411   4.807   8.682
38080SOL    HW116137  12.483   4.756   8.645
38080SOL    HW216138  12.376   4.752   8.752
38081SOL     OW16139  12.078   6.550   5.674
38081SOL    HW116140  12.048   6.552   5.583
38081SOL    HW216141  12.000   6.570   5.725
38082SOL     OW16142   1.073  13.972  11.574
38082SOL    HW116143   0.997  14.015  11.537
38082SOL    HW216144   1.108  14.035  11.637
38083SOL     OW16145   4.590  14.865  10.384
38083SOL    HW116146   4.514  14.809  10.402
38083SOL    HW216147   4.606  14.854  10.290
38084SOL     OW16148   6.106   9.261   1.932
38084SOL    HW116149   6.166   9.335   1.922
38084SOL    HW216150   6.144   9.208   2.001
38085SOL     OW16151   1.530   5.454  14.793
38085SOL    HW116152   1.547   5.362  14.815
38085SOL    HW216153   1.448   5.452  14.743
38086SOL     OW16154   2.816   0.740  10.879
38086SOL    HW116155   2.787   0.832  10.876
38086SOL    HW216156   2.910   0.744  10.862
38087SOL     OW16157   0.499   3.265   1.997
38087SOL    HW116158   0.528   3.184   1.955
38087SOL    HW216159   0.458   3.315   1.926
38088SOL     OW16160   3.292   6.896  12.574
38088SOL    HW116161   3.324   6.834  12.508
38088SOL    HW216162   3.240   6.959  12.524
38089SOL     OW16163  13.609   6.322  10.539
38089SOL    HW116164  13.614   6.238  10.586
38089SOL    HW216165  13.697   6.359  10.547
38090SOL     OW16166   9.388   0.546  10.742
38090SOL    HW116167   9.356   0.581  10.659
38090SOL    HW216168   9.438   0.617  10.782
38091SOL     OW16169   8.129   2.460  13.662
38091SOL    HW116170   8.156   2.535  13.609
38091SOL    HW216171   8.034   2.471  13.673
38092SOL     OW16172   4.145  14.522   3.550
38092SOL    HW116173   4.206  14.449   3.536
38092SOL    HW216174   4.188  14.598   3.510
38093SOL     OW16175   3.276   4.323   6.913
38093SOL    HW116176   3.269   4.228   6.911
38093SOL    HW216177   3.185   4.353   6.914
38094SOL     OW16178  10.840   2.473  12.208
38094SOL    HW116179  10.895   2.547  12.182
38094SOL    HW216180  10.865   2.402  12.148
38095SOL     OW16181  14.516   0.657   2.353
38095SOL    HW116182  14.460   0.590   2.392
38095SOL    HW216183  14.579   0.609   2.301
38096SOL     OW16184   1.812   1.917   5.053
38096SOL    HW116185   1.743   1.913   4.987
38096SOL    HW216186   1.771   1.884   5.133
38097SOL     OW16187   1.765  14.590   5.944
38097SOL    HW116188   1.798  14.632   5.865
38097SOL    HW216189   1.843  14.573   5.997
38098SOL     OW16190  13.251   3.641   5.246
38098SOL    HW116191  13.200   3.697   5.188
38098SOL    HW216192  13.316   3.600   5.189
38099SOL     OW16193   0.078   4.495  11.802
38099SOL    HW116194   0.163   4.456  11.826
38099SOL    HW216195   0.101   4.576  11.757
38100SOL     OW16196   2.007   8.094  11.323
38100SOL    HW116197   1.974   8.018  11.274
38100SOL    HW216198   2.101   8.093  11.308
38101SOL     OW16199   0.795   3.237   2.411
38101SOL    HW116200   0.828   3.178   2.479
38101SOL    HW216201   0.710   3.200   2.387
38102SOL     OW16202  10.848   9.535   6.984
38102SOL    HW116203  10.791   9.610   6.996
38102SOL    HW216204  10.904   9.533   7.062
38103SOL     OW16205   4.371   3.554   9.511
38103SOL    HW116206   4.293   3.527   9.462
38103SOL    HW216207   4.424   3.475   9.515
38104SOL     OW16208   3.073   8.044  13.674
38104SOL    HW116209   2.996   7.988  13.691
38104SOL    HW216210   3.037   8.122  13.632
38105SOL     OW16211   7.207  11.405   6.073
38105SOL    HW116212   7.247  11.432   5.990
38105SOL    HW216213   7.178  11.487   6.113
38106SOL     OW16214   7.531   5.255   7.757
38106SOL    HW116215   7.604   5.277   7.815
38106SOL    HW216216   7.529   5.326   7.693
38107SOL     OW16217   3.468   8.472  14.207
38107SOL    HW116218   3.476   8.562  14.239
38107SOL    HW216219   3.425   8.480  14.122
38108SOL     OW16220  10.023  13.992   2.067
38108SOL    HW116221   9.999  14.034   2.149
38108SOL    HW216222   9.993  14.053   1.999
38109SOL     OW16223   3.402   9.056   4.966
38109SOL    HW116224   3.479   9.073   5.021
38109SOL    HW216225   3.438   9.029   4.881
38110SOL     OW16226  14.550   9.773   9.426
38110SOL    HW116227  14.455   9.786   9.436
38110SOL    HW216228  14.571   9.812   9.341
38111SOL     OW16229   0.636   7.230   9.677
38111SOL    HW116230   0.621   7.324   9.689
38111SOL    HW216231   0.605   7.191   9.759
38112SOL     OW16232   1.754   4.548   1.392
38112SOL    HW116233   1.772   4.639   1.415
38112SOL    HW216234   1.660   4.538   1.405
38113SOL     OW16235  10.108  14.850   6.875
38113SOL    HW116236  10.179  14.854   6.811
38113SOL    HW216237  10.072  14.762   6.866
38114SOL     OW16238   7.498  12.813   2.268
38114SOL    HW116239   7.417  12.764   2.279
38114SOL    HW216240   7.556  12.779   2.336
38115SOL     OW16241  11.977   4.561   2.957
38115SOL    HW116242  11.957   4.476   2.998
38115SOL    HW216243  12.069   4.555   2.934
38116SOL     OW16244   3.137   4.858   7.460
38116SOL    HW116245   3.077   4.830   7.391
38116SOL    HW216246   3.081   4.878   7.534
38117SOL     OW16247   5.066  10.673   2.072
38117SOL    HW116248   5.055  10.721   1.989
38117SOL    HW216249   5.050  10.739   2.140
38118SOL     OW16250   4.813  13.443  10.717
38118SOL    HW116251   4.798  13.364  10.770
38118SOL    HW216252   4.889  13.485  10.758
38119SOL     OW16253   7.796   8.123   5.224
38119SOL    HW116254   7.725   8.136   5.160
38119SOL    HW216255   7.854   8.197   5.211
38120SOL     OW16256   4.404   5.516   1.278
38120SOL    HW116257   4.494   5.544   1.291
38120SOL    HW216258   4.410   5.422   1.263
38121SOL     OW16259   3.681   8.854   4.456
38121SOL    HW116260   3.682   8.759   4.463
38121SOL    HW216261   3.752   8.884   4.514
38122SOL     OW16262   9.525   7.292   2.489
38122SOL    HW116263   9.576   7.337   2.557
38122SOL    HW216264   9.475   7.226   2.537
38123SOL     OW16265   3.623   2.001  13.734
38123SOL    HW116266   3.691   1.944  13.771
38123SOL    HW216267   3.671   2.060  13.675
38124SOL     OW16268   5.403   5.442   3.338
38124SOL    HW116269   5.490   5.474   3.363
38124SOL    HW216270   5.387   5.369   3.397
38125SOL     OW16271   3.813  11.122   2.066
38125SOL    HW116272   3.744  11.068   2.105
38125SOL    HW216273   3.848  11.068   1.995
38126SOL     OW16274   3.777   7.665   7.496
38126SOL    HW116275   3.859   7.632   7.533
38126SOL    HW216276   3.784   7.760   7.504
38127SOL     OW16277   1.080  10.413  14.695
38127SOL    HW116278   1.164  10.454  14.674
38127SOL    HW216279   1.070  10.425  14.789
38128SOL     OW16280   1.876   0.236  13.315
38128SOL    HW116281   1.789   0.204  13.341
38128SOL    HW216282   1.913   0.165  13.262
38129SOL     OW16283  12.130   3.675  11.581
38129SOL    HW116284  12.180   3.715  11.510
38129SOL    HW216285  12.040   3.674  11.550
38130SOL     OW16286   0.674  11.424  12.331
38130SOL    HW116287   0.604  11.377  12.286
38130SOL    HW216288   0.633  11.458  12.411
38131SOL     OW16289  10.897  14.489   4.222
38131SOL    HW116290  10.803  14.487   4.242
38131SOL    HW216291  10.939  14.464   4.304
38132SOL     OW16292   8.827   3.281   3.309
38132SOL    HW116293   8.759   3.244   3.252
38132SOL    HW216294   8.898   3.217   3.306
38133SOL     OW16295   7.488  10.367   3.300
38133SOL    HW116296   7.578  10.333   3.293
38133SOL    HW216297   7.469  10.366   3.394
38134SOL     OW16298   6.413   2.215   5.074
38134SOL    HW116299   6.385   2.298   5.114
38134SOL    HW216300   6.507   2.210   5.093
38135SOL     OW16301   8.281   1.376   4.025
38135SOL    HW116302   8.369   1.343   4.043
38135SOL    HW216303   8.276   1.380   3.930
38136SOL     OW16304   9.131   8.160  13.456
38136SOL    HW116305   9.191   8.222  13.496
38136SOL    HW216306   9.053   8.162  13.512
38137SOL     OW16307  14.698  14.041   3.439
38137SOL    HW116308  14.603  14.029   3.427
38137SOL    HW216309  14.726  14.085   3.358
38138SOL     OW16310  14.474   6.760   9.308
38138SOL    HW116311  14.383   6.778   9.331
38138SOL    HW216312  14.506   6.842   9.269
38139SOL     OW16313  11.932   8.343   1.480
38139SOL    HW116314  11.986   8.282   1.530
38139SOL    HW216315  11.989   8.376   1.411
38140SOL     OW16316   5.569  10.192   2.875
38140SOL    HW116317   5.506  10.210   2.805
38140SOL    HW216318   5.520  10.139   2.938
38141SOL     OW16319   7.260   3.436   1.169
38141SOL    HW116320   7.288   3.521   1.201
38141SOL    HW216321   7.272   3.377   1.243
38142SOL     OW16322  11.535   0.244  14.146
38142SOL    HW116323  11.605   0.305  14.122
38142SOL    HW216324  11.484   0.292  14.212
38143SOL     OW16325   2.658   4.246   2.779
38143SOL    HW116326   2.726   4.312   2.794
38143SOL    HW216327   2.682   4.173   2.836
38144SOL     OW16328  11.293   1.175  13.296
38144SOL    HW116329  11.364   1.240  13.302
38144SOL    HW216330  11.338   1.094  13.270
38145SOL     OW16331   4.324   4.231   2.365
38145SOL    HW116332   4.406   4.251   2.410
38145SOL    HW216333   4.313   4.137   2.376
38146SOL     OW16334   7.459  10.168   3.060
38146SOL    HW116335   7.452  10.262   3.073
38146SOL    HW216336   7.492  10.134   3.144
38147SOL     OW16337  12.254   1.476   6.493
38147SOL    HW116338  12.209   1.411   6.547
38147SOL    HW216339  12.199   1.486   6.415
38148SOL     OW16340  11.326  14.074  14.195
38148SOL    HW116341  11.415  14.051  14.167
38148SOL    HW216342  11.330  14.076  14.290
38149SOL     OW16343   5.208   2.400  11.219
38149SOL    HW116344   5.302   2.393  11.201
38149SOL    HW216345   5.174   2.453  11.147
38150SOL     OW16346  13.650  12.620   1.129
38150SOL    HW116347  13.743  12.642   1.135
38150SOL    HW216348  13.619  12.619   1.220
38151SOL     OW16349   8.263  11.488   6.750
38151SOL    HW116350   8.221  11.571   6.771
38151SOL    HW216351   8.270  11.489   6.654
38152SOL     OW16352  11.591   8.772  11.267
38152SOL    HW116353  11.646   8.844  11.236
38152SOL    HW216354  11.523   8.815  11.319
38153SOL     OW16355   0.033   2.839   4.278
38153SOL    HW116356  14.819   2.871   4.241
38153SOL    HW216357   0.077   2.794   4.205
38154SOL     OW16358  10.388  11.499   2.756
38154SOL    HW116359  10.399  11.562   2.685
38154SOL    HW216360  10.326  11.435   2.722
38155SOL     OW16361   3.974   4.200   0.369
38155SOL    HW116362   3.892   4.230   0.328
38155SOL    HW216363   4.039   4.208   0.299
38156SOL     OW16364   8.161   3.563   6.341
38156SOL    HW116365   8.095   3.520   6.395
38156SOL    HW216366   8.244   3.524   6.369
38157SOL     OW16367   2.994   2.949   3.417
38157SOL    HW116368   2.961   2.957   3.327
38157SOL    HW216369   2.927   2.900   3.464
38158SOL     OW16370   2.684  14.829  11.508
38158SOL    HW116371   2.723  14.854  11.425
38158SOL    HW216372   2.657  14.738  11.496
38159SOL     OW16373   0.777   9.759  12.917
38159SOL    HW116374   0.755   9.681  12.967
38159SOL    HW216375   0.733   9.747  12.833
38160SOL     OW16376   4.812   7.287   5.566
38160SOL    HW116377   4.880   7.244   5.619
38160SOL    HW216378   4.839   7.379   5.563
38161SOL     OW16379  10.668   6.334   1.345
38161SOL    HW116380  10.647   6.421   1.311
38161SOL    HW216381  10.756   6.316   1.311
38162SOL     OW16382   2.331   1.139   6.528
38162SOL    HW116383   2.262   1.108   6.470
38162SOL    HW216384   2.312   1.096   6.612
38163SOL     OW16385   8.443   2.038  13.592
38163SOL    HW116386   8.500   2.114  13.578
38163SOL    HW216387   8.355   2.075  13.594
38164SOL     OW16388   2.113   5.029  10.400
38164SOL    HW116389   2.208   5.017  10.393
38164SOL    HW216390   2.083   5.040  10.310
38165SOL     OW16391  13.081   4.940   6.666
38165SOL    HW116392  13.096   5.019   6.615
38165SOL    HW216393  13.040   4.971   6.747
38166SOL     OW16394   3.331   3.150   4.903
38166SOL    HW116395   3.292   3.235   4.923
38166SOL    HW216396   3.423   3.168   4.887
38167SOL     OW16397   8.323   9.586   2.421
38167SOL    HW116398   8.283   9.631   2.347
38167SOL    HW216399   8.249   9.552   2.471
38168SOL     OW16400   7.837   0.248   4.963
38168SOL    HW116401   7.861   0.305   5.036
38168SOL    HW216402   7.781   0.303   4.908
38169SOL     OW16403   8.212  13.831   3.480
38169SOL    HW116404   8.271  13.875   3.419
38169SOL    HW216405   8.258  13.751   3.504
38170SOL     OW16406  13.075   1.124  10.354
38170SOL    HW116407  13.133   1.050  10.371
38170SOL    HW216408  13.018   1.093  10.283
38171SOL     OW16409  13.319   8.383  12.596
38171SOL    HW116410  13.393   8.423  12.551
38171SOL    HW216411  13.356   8.307  12.642
38172SOL     OW16412   6.504   2.490  10.606
38172SOL    HW116413   6.449   2.425  10.562
38172SOL    HW216414   6.553   2.531  10.535
38173SOL     OW16415  12.649   3.805   8.922
38173SOL    HW116416  12.650   3.722   8.875
38173SOL    HW216417  12.621   3.783   9.011
38174SOL     OW16418   7.310   5.897   4.520
38174SOL    HW116419   7.254   5.842   4.574
38174SOL    HW216420   7.372   5.937   4.581
38175SOL     OW16421   4.559   2.589  13.710
38175SOL    HW116422   4.509   2.617  13.786
38175SOL    HW216423   4.498   2.597  13.637
38176SOL     OW16424   1.614   0.036  11.545
38176SOL    HW116425   1.685  14.864  11.495
38176SOL    HW216426   1.611  14.854  11.626
38177SOL     OW16427   3.316   5.231   9.790
38177SOL    HW116428   3.396   5.251   9.742
38177SOL    HW216429   3.280   5.155   9.744
38178SOL     OW16430   0.308   5.860   3.768
38178SOL    HW116431   0.381   5.911   3.733
38178SOL    HW216432   0.315   5.870   3.863
38179SOL     OW16433   6.999   3.267   3.543
38179SOL    HW116434   6.923   3.268   3.485
38179SOL    HW216435   7.049   3.190   3.517
38180SOL     OW16436  14.451   2.634  12.416
38180SOL    HW116437  14.514   2.616  12.486
38180SOL    HW216438  14.415   2.549  12.393
38181SOL     OW16439   6.841   2.160  11.640
38181SOL    HW116440   6.871   2.235  11.589
38181SOL    HW216441   6.816   2.196  11.725
38182SOL     OW16442  11.221   9.048   1.531
38182SOL    HW116443  11.230   8.988   1.605
38182SOL    HW216444  11.133   9.030   1.497
38183SOL     OW16445   2.779  10.442  10.520
38183SOL    HW116446   2.823  10.488  10.448
38183SOL    HW216447   2.772  10.507  10.590
38184SOL     OW16448  13.495   5.768   4.970
38184SOL    HW116449  13.503   5.696   5.032
38184SOL    HW216450  13.486   5.846   5.025
38185SOL     OW16451  11.221   4.604   8.446
38185SOL    HW116452  11.202   4.590   8.353
38185SOL    HW216453  11.135   4.621   8.484
38186SOL     OW16454   6.705   8.435   4.377
38186SOL    HW116455   6.787   8.395   4.406
38186SOL    HW216456   6.662   8.464   4.457
38187SOL     OW16457   1.252   3.542  11.754
38187SOL    HW116458   1.271   3.479  11.824
38187SOL    HW216459   1.267   3.628  11.794
38188SOL     OW16460   5.036   3.039  14.789
38188SOL    HW116461   5.024   3.057  14.696
38188SOL    HW216462   5.109   3.096  14.814
38189SOL     OW16463   8.596  10.519   5.755
38189SOL    HW116464   8.573  10.612   5.751
38189SOL    HW216465   8.691  10.517   5.743
38190SOL     OW16466   2.993   2.086   6.549
38190SOL    HW116467   2.899   2.084   6.567
38190SOL    HW216468   3.033   2.103   6.634
38191SOL     OW16469   6.880   6.036   2.143
38191SOL    HW116470   6.902   6.128   2.162
38191SOL    HW216471   6.906   5.989   2.222
38192SOL     OW16472   1.614   9.426   3.176
38192SOL    HW116473   1.537   9.429   3.119
38192SOL    HW216474   1.603   9.502   3.234
38193SOL     OW16475   1.996   1.462   0.188
38193SOL    HW116476   1.960   1.402   0.253
38193SOL    HW216477   2.089   1.468   0.209
38194SOL     OW16478  10.339   3.355  11.077
38194SOL    HW116479  10.277   3.427  11.081
38194SOL    HW216480  10.326   3.307  11.159
38195SOL     OW16481   6.715   3.718   2.980
38195SOL    HW116482   6.621   3.709   2.997
38195SOL    HW216483   6.752   3.634   3.007
38196SOL     OW16484  11.293   0.554   6.177
38196SOL    HW116485  11.213   0.518   6.138
38196SOL    HW216486  11.271   0.565   6.270
38197SOL     OW16487   4.042   6.956   8.216
38197SOL    HW116488   4.033   7.045   8.249
38197SOL    HW216489   4.079   6.907   8.290
38198SOL     OW16490   5.309  13.111  13.981
38198SOL    HW116491   5.402  13.123  13.961
38198SOL    HW216492   5.303  13.021  14.013
38199SOL     OW16493  11.255   9.189   3.629
38199SOL    HW116494  11.295   9.118   3.581
38199SOL    HW216495  11.205   9.238   3.563
38200SOL     OW16496  11.253   1.233   0.774
38200SOL    HW116497  11.250   1.140   0.796
38200SOL    HW216498  11.166   1.252   0.739
38201SOL     OW16499   5.223  13.741  10.205
38201SOL    HW116500   5.264  13.804  10.264
38201SOL    HW216501   5.270  13.751  10.122
38202SOL     OW16502   3.984   5.064   9.669
38202SOL    HW116503   4.045   5.130   9.638
38202SOL    HW216504   4.037   4.985   9.680
38203SOL     OW16505   3.695   3.456   8.780
38203SOL    HW116506   3.731   3.503   8.704
38203SOL    HW216507   3.603   3.483   8.782
38204SOL     OW16508   6.587   6.847   5.082
38204SOL    HW116509   6.647   6.922   5.074
38204SOL    HW216510   6.567   6.842   5.175
38205SOL     OW16511  14.753   2.095   1.966
38205SOL    HW116512  14.705   2.014   1.944
38205SOL    HW216513  14.799   2.118   1.885
38206SOL     OW16514   4.342   2.740   4.409
38206SOL    HW116515   4.256   2.730   4.368
38206SOL    HW216516   4.328   2.803   4.480
38207SOL     OW16517   6.224   2.264   4.846
38207SOL    HW116518   6.304   2.229   4.886
38207SOL    HW216519   6.164   2.190   4.845
38208SOL     OW16520   2.249   6.287  14.087
38208SOL    HW116521   2.220   6.200  14.117
38208SOL    HW216522   2.326   6.269  14.033
38209SOL     OW16523   2.358   5.652   6.576
38209SOL    HW116524   2.336   5.658   6.483
38209SOL    HW216525   2.404   5.734   6.594
38210SOL     OW16526   6.068   1.759  11.128
38210SOL    HW116527   6.144   1.714  11.092
38210SOL    HW216528   5.996   1.696  11.118
38211SOL     OW16529  11.141   5.029  10.556
38211SOL    HW116530  11.191   4.955  10.592
38211SOL    HW216531  11.199   5.105  10.569
38212SOL     OW16532   0.790   3.308   6.525
38212SOL    HW116533   0.885   3.293   6.524
38212SOL    HW216534   0.777   3.374   6.593
38213SOL     OW16535  13.175  11.231  11.243
38213SOL    HW116536  13.100  11.182  11.209
38213SOL    HW216537  13.170  11.316  11.199
38214SOL     OW16538   2.145   6.292   1.366
38214SOL    HW116539   2.140   6.387   1.358
38214SOL    HW216540   2.196   6.264   1.289
38215SOL     OW16541   4.477   1.518  13.928
38215SOL    HW116542   4.484   1.446  13.991
38215SOL    HW216543   4.449   1.476  13.846
38216SOL     OW16544   6.291   4.316   1.847
38216SOL    HW116545   6.227   4.378   1.883
38216SOL    HW216546   6.238   4.242   1.818
38217SOL     OW16547  10.130  13.307   3.918
38217SOL    HW116548  10.169  13.222   3.899
38217SOL    HW216549  10.097  13.299   4.008
38218SOL     OW16550   3.025   4.320   3.120
38218SOL    HW116551   3.100   4.286   3.168
38218SOL    HW216552   3.009   4.406   3.159
38219SOL     OW16553   2.985  12.725  11.126
38219SOL    HW116554   2.922  12.673  11.076
38219SOL    HW216555   2.932  12.794  11.167
38220SOL     OW16556  12.431  12.119   8.077
38220SOL    HW116557  12.368  12.059   8.118
38220SOL    HW216558  12.469  12.068   8.006
38221SOL     OW16559   4.002   3.478   7.402
38221SOL    HW116560   3.918   3.519   7.424
38221SOL    HW216561   4.005   3.477   7.307
38222SOL     OW16562  12.997   0.287  11.740
38222SOL    HW116563  12.954   0.355  11.688
38222SOL    HW216564  12.935   0.266  11.809
38223SOL     OW16565   9.856   0.533  13.451
38223SOL    HW116566   9.874   0.620  13.414
38223SOL    HW216567   9.764   0.517  13.427
38224SOL     OW16568   3.250  14.483   8.265
38224SOL    HW116569   3.319  14.545   8.288
38224SOL    HW216570   3.176  14.509   8.320
38225SOL     OW16571   1.148   4.998  11.583
38225SOL    HW116572   1.187   4.935  11.643
38225SOL    HW216573   1.222   5.052  11.554
38226SOL     OW16574   7.575   1.096   8.683
38226SOL    HW116575   7.578   1.189   8.706
38226SOL    HW216576   7.663   1.077   8.650
38227SOL     OW16577   5.460   5.584  11.340
38227SOL    HW116578   5.477   5.660  11.284
38227SOL    HW216579   5.431   5.516  11.280
38228SOL     OW16580   4.706  11.107   4.923
38228SOL    HW116581   4.630  11.078   4.871
38228SOL    HW216582   4.707  11.202   4.912
38229SOL     OW16583   3.550   5.075   8.763
38229SOL    HW116584   3.562   5.170   8.757
38229SOL    HW216585   3.470   5.064   8.815
38230SOL     OW16586  13.496  13.175  11.153
38230SOL    HW116587  13.537  13.262  11.142
38230SOL    HW216588  13.535  13.140  11.232
38231SOL     OW16589  13.683  11.787  14.662
38231SOL    HW116590  13.722  11.874  14.654
38231SOL    HW216591  13.737  11.743  14.728
38232SOL     OW16592   7.655   1.535   4.922
38232SOL    HW116593   7.621   1.512   4.836
38232SOL    HW216594   7.743   1.497   4.924
38233SOL     OW16595   3.743   8.312   7.018
38233SOL    HW116596   3.725   8.276   6.931
38233SOL    HW216597   3.838   8.315   7.024
38234SOL     OW16598   1.151   5.708   8.024
38234SOL    HW116599   1.236   5.703   8.068
38234SOL    HW216600   1.134   5.801   8.015
38235SOL     OW16601   2.904   7.845   9.763
38235SOL    HW116602   2.853   7.819   9.685
38235SOL    HW216603   2.990   7.869   9.728
38236SOL     OW16604   5.513   2.354  12.343
38236SOL    HW116605   5.425   2.321  12.364
38236SOL    HW216606   5.533   2.414  12.415
38237SOL     OW16607   1.856  12.596  14.081
38237SOL    HW116608   1.815  12.518  14.043
38237SOL    HW216609   1.837  12.666  14.018
38238SOL     OW16610  10.444   4.885   1.653
38238SOL    HW116611  10.505   4.860   1.584
38238SOL    HW216612  10.358   4.870   1.616
38239SOL     OW16613  12.194   0.530   3.359
38239SOL    HW116614  12.228   0.620   3.354
38239SOL    HW216615  12.115   0.538   3.413
38240SOL     OW16616  13.135  10.147   3.578
38240SOL    HW116617  13.210  10.139   3.519
38240SOL    HW216618  13.062  10.174   3.521
38241SOL     OW16619   2.255   0.307   4.289
38241SOL    HW116620   2.291   0.352   4.365
38241SOL    HW216621   2.191   0.246   4.325
38242SOL     OW16622   3.973   6.698   2.787
38242SOL    HW116623   4.040   6.717   2.853
38242SOL    HW216624   4.021   6.699   2.704
38243SOL     OW16625  11.510   5.320   7.682
38243SOL    HW116626  11.465   5.352   7.604
38243SOL    HW216627  11.464   5.240   7.705
38244SOL     OW16628   1.550   7.580   3.334
38244SOL    HW116629   1.645   7.584   3.323
38244SOL    HW216630   1.516   7.640   3.268
38245SOL     OW16631   0.022   9.734   5.654
38245SOL    HW116632   0.016   9.680   5.576
38245SOL    HW216633  14.818   9.797   5.644
38246SOL     OW16634   5.028   1.179   1.877
38246SOL    HW116635   4.992   1.105   1.827
38246SOL    HW216636   5.013   1.255   1.822
38247SOL     OW16637  14.342   7.898   6.001
38247SOL    HW116638  14.320   7.983   5.963
38247SOL    HW216639  14.286   7.891   6.079
38248SOL     OW16640   2.178  14.023  13.186
38248SOL    HW116641   2.267  14.048  13.211
38248SOL    HW216642   2.164  14.067  13.102
38249SOL     OW16643   1.727   0.392   2.749
38249SOL    HW116644   1.728   0.403   2.654
38249SOL    HW216645   1.640   0.359   2.768
38250SOL     OW16646  14.656   0.726   0.581
38250SOL    HW116647  14.656   0.645   0.633
38250SOL    HW216648  14.612   0.790   0.637
38251SOL     OW16649  11.857   7.035   9.852
38251SOL    HW116650  11.803   6.960   9.825
38251SOL    HW216651  11.894   7.069   9.770
38252SOL     OW16652   0.190   6.781   5.971
38252SOL    HW116653   0.208   6.734   5.890
38252SOL    HW216654   0.221   6.723   6.040
38253SOL     OW16655   8.123   3.246   6.526
38253SOL    HW116656   8.208   3.290   6.532
38253SOL    HW216657   8.128   3.177   6.593
38254SOL     OW16658  13.365  11.496  12.582
38254SOL    HW116659  13.366  11.438  12.658
38254SOL    HW216660  13.389  11.439  12.508
38255SOL     OW16661   0.023   9.472   1.303
38255SOL    HW116662   0.057   9.421   1.376
38255SOL    HW216663   0.010   9.559   1.338
38256SOL     OW16664   2.615   4.664   8.866
38256SOL    HW116665   2.604   4.755   8.892
38256SOL    HW216666   2.630   4.617   8.948
38257SOL     OW16667   1.502   4.312  12.413
38257SOL    HW116668   1.502   4.339  12.321
38257SOL    HW216669   1.592   4.284  12.429
38258SOL     OW16670   5.658   8.505   1.262
38258SOL    HW116671   5.668   8.423   1.214
38258SOL    HW216672   5.598   8.557   1.209
38259SOL     OW16673   3.711   5.453  14.127
38259SOL    HW116674   3.778   5.464  14.194
38259SOL    HW216675   3.723   5.526  14.067
38260SOL     OW16676   6.205   5.240   0.612
38260SOL    HW116677   6.244   5.175   0.670
38260SOL    HW216678   6.124   5.199   0.581
38261SOL     OW16679  11.327   5.418   7.512
38261SOL    HW116680  11.279   5.337   7.500
38261SOL    HW216681  11.274   5.469   7.574
38262SOL     OW16682  14.170  11.696   4.070
38262SOL    HW116683  14.230  11.677   4.142
38262SOL    HW216684  14.206  11.646   3.996
38263SOL     OW16685   8.481   3.257   6.169
38263SOL    HW116686   8.435   3.237   6.088
38263SOL    HW216687   8.574   3.256   6.145
38264SOL     OW16688  12.308   4.647  14.830
38264SOL    HW116689  12.291   4.627   0.054
38264SOL    HW216690  12.288   4.741  14.822
38265SOL     OW16691   5.969   8.662  13.124
38265SOL    HW116692   5.958   8.730  13.191
38265SOL    HW216693   5.881   8.649  13.088
38266SOL     OW16694   3.990   5.671   3.233
38266SOL    HW116695   3.999   5.640   3.143
38266SOL    HW216696   4.043   5.612   3.285
38267SOL     OW16697   8.660   5.165   7.092
38267SOL    HW116698   8.621   5.090   7.047
38267SOL    HW216699   8.626   5.159   7.181
38268SOL     OW16700   1.405   6.127   8.037
38268SOL    HW116701   1.464   6.185   7.989
38268SOL    HW216702   1.463   6.064   8.080
38269SOL     OW16703   1.045   0.800  13.433
38269SOL    HW116704   1.042   0.895  13.436
38269SOL    HW216705   0.974   0.776  13.373
38270SOL     OW16706   3.503   4.591   3.147
38270SOL    HW116707   3.485   4.643   3.069
38270SOL    HW216708   3.557   4.648   3.202
38271SOL     OW16709   0.826  13.212   4.620
38271SOL    HW116710   0.753  13.174   4.669
38271SOL    HW216711   0.855  13.286   4.672
38272SOL     OW16712   9.899   6.178   8.668
38272SOL    HW116713   9.878   6.225   8.587
38272SOL    HW216714   9.838   6.105   8.671
38273SOL     OW16715   1.801   1.788   6.866
38273SOL    HW116716   1.833   1.873   6.896
38273SOL    HW216717   1.779   1.801   6.774
38274SOL     OW16718   3.365   6.320   9.716
38274SOL    HW116719   3.362   6.251   9.649
38274SOL    HW216720   3.414   6.280   9.789
38275SOL     OW16721  11.931   1.126   9.506
38275SOL    HW116722  12.016   1.130   9.550
38275SOL    HW216723  11.934   1.197   9.442
38276SOL     OW16724   9.615  14.860   6.199
38276SOL    HW116725   9.706  14.837   6.215
38276SOL    HW216726   9.591   0.050   6.270
38277SOL     OW16727   1.101   9.092   3.039
38277SOL    HW116728   1.067   9.006   3.015
38277SOL    HW216729   1.055   9.115   3.120
38278SOL     OW16730  14.836  11.971   7.759
38278SOL    HW116731  14.767  12.016   7.710
38278SOL    HW216732   0.048  11.989   7.710
38279SOL     OW16733   8.843  11.966   5.077
38279SOL    HW116734   8.866  11.876   5.097
38279SOL    HW216735   8.768  11.960   5.018
38280SOL     OW16736   5.503   2.646  12.248
38280SOL    HW116737   5.496   2.664  12.342
38280SOL    HW216738   5.519   2.551  12.243
38281SOL     OW16739  13.653   9.009  14.171
38281SOL    HW116740  13.690   9.084  14.126
38281SOL    HW216741  13.566   9.036  14.198
38282SOL     OW16742   5.704  12.325  13.443
38282SOL    HW116743   5.754  12.406  13.457
38282SOL    HW216744   5.642  12.323  13.516
38283SOL     OW16745   6.643   0.119   9.607
38283SOL    HW116746   6.688   0.060   9.546
38283SOL    HW216747   6.550   0.094   9.601
38284SOL     OW16748  13.427   8.715  10.716
38284SOL    HW116749  13.487   8.702  10.789
38284SOL    HW216750  13.469   8.782  10.662
38285SOL     OW16751   9.457   0.337   6.106
38285SOL    HW116752   9.368   0.366   6.086
38285SOL    HW216753   9.447   0.245   6.132
38286SOL     OW16754   0.597  13.818   3.223
38286SOL    HW116755   0.618  13.909   3.205
38286SOL    HW216756   0.682  13.775   3.232
38287SOL     OW16757   5.811   4.223   9.139
38287SOL    HW116758   5.839   4.155   9.077
38287SOL    HW216759   5.812   4.303   9.087
38288SOL     OW16760   1.443   3.253   5.025
38288SOL    HW116761   1.398   3.261   4.941
38288SOL    HW216762   1.534   3.277   5.006
38289SOL     OW16763   3.917  14.666  13.713
38289SOL    HW116764   3.823  14.650  13.718
38289SOL    HW216765   3.955  14.581  13.693
38290SOL     OW16766   4.505   9.388   9.287
38290SOL    HW116767   4.467   9.471   9.258
38290SOL    HW216768   4.480   9.325   9.220
38291SOL     OW16769   5.802   0.341  10.471
38291SOL    HW116770   5.844   0.395  10.404
38291SOL    HW216771   5.874   0.310  10.525
38292SOL     OW16772   0.089   2.703  14.221
38292SOL    HW116773   0.136   2.632  14.176
38292SOL    HW216774   0.120   2.783  14.179
38293SOL     OW16775   6.722   2.801   9.750
38293SOL    HW116776   6.722   2.839   9.662
38293SOL    HW216777   6.701   2.874   9.808
38294SOL     OW16778  13.114   5.082   2.197
38294SOL    HW116779  13.193   5.028   2.186
38294SOL    HW216780  13.144   5.172   2.182
38295SOL     OW16781   4.753   6.940  10.092
38295SOL    HW116782   4.765   6.917  10.185
38295SOL    HW216783   4.729   7.032  10.094
38296SOL     OW16784  13.651   8.460  13.441
38296SOL    HW116785  13.643   8.371  13.474
38296SOL    HW216786  13.658   8.451  13.346
38297SOL     OW16787   5.752   3.054   4.898
38297SOL    HW116788   5.664   3.088   4.915
38297SOL    HW216789   5.811   3.124   4.926
38298SOL     OW16790   4.258   3.287   3.681
38298SOL    HW116791   4.286   3.357   3.622
38298SOL    HW216792   4.318   3.293   3.755
38299SOL     OW16793  10.891  11.463   2.235
38299SOL    HW116794  10.883  11.495   2.325
38299SOL    HW216795  10.860  11.373   2.239
38300SOL     OW16796   0.072  11.838   0.415
38300SOL    HW116797   0.156  11.879   0.431
38300SOL    HW216798   0.060  11.778   0.489
38301SOL     OW16799   9.864   9.070  14.563
38301SOL    HW116800   9.882   9.004  14.630
38301SOL    HW216801   9.946   9.077  14.513
38302SOL     OW16802   0.053   2.813   4.541
38302SOL    HW116803  14.835   2.772   4.546
38302SOL    HW216804   0.066   2.831   4.448
38303SOL     OW16805   5.070  13.807  13.040
38303SOL    HW116806   5.101  13.805  12.949
38303SOL    HW216807   5.061  13.715  13.065
38304SOL     OW16808   2.617   9.812   5.929
38304SOL    HW116809   2.664   9.776   6.005
38304SOL    HW216810   2.684   9.858   5.879
38305SOL     OW16811   0.370  14.434   8.005
38305SOL    HW116812   0.362  14.341   7.984
38305SOL    HW216813   0.282  14.460   8.033
38306SOL     OW16814  10.896   4.854   6.033
38306SOL    HW116815  10.979   4.831   5.990
38306SOL    HW216816  10.852   4.912   5.970
38307SOL     OW16817  13.866   5.743  14.222
38307SOL    HW116818  13.915   5.793  14.157
38307SOL    HW216819  13.801   5.694  14.172
38308SOL     OW16820  12.387  12.530   2.530
38308SOL    HW116821  12.475  12.563   2.550
38308SOL    HW216822  12.401  12.451   2.479
38309SOL     OW16823  14.116   8.445   2.901
38309SOL    HW116824  14.127   8.370   2.842
38309SOL    HW216825  14.084   8.515   2.844
38310SOL     OW16826  12.569   5.063   9.718
38310SOL    HW116827  12.654   5.037   9.755
38310SOL    HW216828  12.516   5.086   9.794
38311SOL     OW16829  12.875   3.812   8.230
38311SOL    HW116830  12.939   3.883   8.241
38311SOL    HW216831  12.898   3.773   8.146
38312SOL     OW16832   5.395   9.645  14.251
38312SOL    HW116833   5.357   9.610  14.332
38312SOL    HW216834   5.339   9.720  14.229
38313SOL     OW16835   3.654  14.315   0.825
38313SOL    HW116836   3.660  14.250   0.754
38313SOL    HW216837   3.628  14.264   0.901
38314SOL     OW16838   5.533   4.890   6.366
38314SOL    HW116839   5.625   4.879   6.343
38314SOL    HW216840   5.531   4.973   6.414
38315SOL     OW16841   6.998   9.365   3.539
38315SOL    HW116842   7.088   9.366   3.569
38315SOL    HW216843   7.004   9.378   3.444
38316SOL     OW16844   4.047   7.155   9.206
38316SOL    HW116845   3.952   7.144   9.195
38316SOL    HW216846   4.057   7.201   9.288
38317SOL     OW16847  10.693   9.494   0.359
38317SOL    HW116848  10.692   9.433   0.286
38317SOL    HW216849  10.725   9.443   0.433
38318SOL     OW16850   3.248   9.402   6.731
38318SOL    HW116851   3.203   9.467   6.785
38318SOL    HW216852   3.178   9.343   6.703
38319SOL     OW16853  11.185   0.860   6.023
38319SOL    HW116854  11.268   0.838   6.066
38319SOL    HW216855  11.211   0.909   5.944
38320SOL     OW16856  12.500   7.322   2.475
38320SOL    HW116857  12.465   7.306   2.563
38320SOL    HW216858  12.441   7.273   2.417
38321SOL     OW16859   9.783   9.081   0.646
38321SOL    HW116860   9.745   9.163   0.677
38321SOL    HW216861   9.876   9.101   0.635
38322SOL     OW16862  12.093   4.147  10.141
38322SOL    HW116863  12.134   4.204  10.075
38322SOL    HW216864  12.162   4.133  10.206
38323SOL     OW16865   9.139   6.355   7.772
38323SOL    HW116866   9.131   6.323   7.682
38323SOL    HW216867   9.063   6.412   7.784
38324SOL     OW16868   2.868  11.589  12.518
38324SOL    HW116869   2.884  11.498  12.493
38324SOL    HW216870   2.949  11.616  12.561
38325SOL     OW16871  13.167  14.755  11.306
38325SOL    HW116872  13.086  14.782  11.349
38325SOL    HW216873  13.143  14.742  11.215
38326SOL     OW16874   7.034   6.329   9.130
38326SOL    HW116875   7.077   6.404   9.089
38326SOL    HW216876   6.957   6.366   9.173
38327SOL     OW16877   8.010   4.814   6.461
38327SOL    HW116878   8.011   4.723   6.431
38327SOL    HW216879   7.922   4.846   6.437
38328SOL     OW16880   6.627  13.827   4.073
38328SOL    HW116881   6.596  13.745   4.034
38328SOL    HW216882   6.693  13.860   4.012
38329SOL     OW16883   4.287  14.641  11.725
38329SOL    HW116884   4.264  14.728  11.691
38329SOL    HW216885   4.219  14.583  11.691
38330SOL     OW16886  13.189   5.395   0.844
38330SOL    HW116887  13.100   5.422   0.824
38330SOL    HW216888  13.212   5.446   0.922
38331SOL     OW16889   6.464   2.378  13.465
38331SOL    HW116890   6.430   2.390  13.554
38331SOL    HW216891   6.513   2.458  13.447
38332SOL     OW16892   4.363   5.091   7.550
38332SOL    HW116893   4.425   5.157   7.581
38332SOL    HW216894   4.390   5.010   7.592
38333SOL     OW16895   2.970  12.174  10.949
38333SOL    HW116896   3.045  12.206  10.999
38333SOL    HW216897   2.958  12.240  10.880
38334SOL     OW16898   1.704   3.562   4.685
38334SOL    HW116899   1.608   3.565   4.692
38334SOL    HW216900   1.735   3.597   4.768
38335SOL     OW16901  12.806  10.597   2.921
38335SOL    HW116902  12.900  10.587   2.904
38335SOL    HW216903  12.773  10.644   2.844
38336SOL     OW16904   8.555  10.895   5.107
38336SOL    HW116905   8.506  10.958   5.054
38336SOL    HW216906   8.505  10.814   5.101
38337SOL     OW16907  11.229   8.226   0.108
38337SOL    HW116908  11.170   8.227   0.184
38337SOL    HW216909  11.314   8.200   0.144
38338SOL     OW16910   5.124   4.856   3.079
38338SOL    HW116911   5.146   4.800   3.005
38338SOL    HW216912   5.043   4.899   3.054
38339SOL     OW16913  12.479   5.304  13.468
38339SOL    HW116914  12.531   5.312  13.388
38339SOL    HW216915  12.489   5.213  13.493
38340SOL     OW16916   4.993  13.114   1.649
38340SOL    HW116917   4.984  13.199   1.606
38340SOL    HW216918   5.087  13.101   1.657
38341SOL     OW16919   5.925   9.172   7.974
38341SOL    HW116920   5.995   9.228   8.007
38341SOL    HW216921   5.844   9.215   8.004
38342SOL     OW16922  10.637   3.874   1.964
38342SOL    HW116923  10.667   3.823   2.039
38342SOL    HW216924  10.558   3.828   1.934
38343SOL     OW16925  13.138   3.184  10.447
38343SOL    HW116926  13.064   3.173  10.387
38343SOL    HW216927  13.192   3.107  10.433
38344SOL     OW16928  14.402   3.796   8.980
38344SOL    HW116929  14.313   3.771   9.001
38344SOL    HW216930  14.398   3.824   8.889
38345SOL     OW16931   3.773   6.001  11.948
38345SOL    HW116932   3.867   5.988  11.960
38345SOL    HW216933   3.765   6.044  11.863
38346SOL     OW16934   5.780   5.012   3.297
38346SOL    HW116935   5.867   5.036   3.265
38346SOL    HW216936   5.797   4.945   3.363
38347SOL     OW16937  12.221  11.645  12.836
38347SOL    HW116938  12.263  11.571  12.792
38347SOL    HW216939  12.262  11.647  12.922
38348SOL     OW16940  13.553   0.326   7.369
38348SOL    HW116941  13.503   0.328   7.288
38348SOL    HW216942  13.641   0.299   7.343
38349SOL     OW16943   8.034   6.702  11.344
38349SOL    HW116944   7.999   6.613  11.333
38349SOL    HW216945   8.127   6.693  11.323
38350SOL     OW16946  11.349   0.561   2.134
38350SOL    HW116947  11.420   0.512   2.093
38350SOL    HW216948  11.346   0.644   2.085
38351SOL     OW16949   3.965   5.632  11.204
38351SOL    HW116950   3.998   5.721  11.189
38351SOL    HW216951   3.945   5.599  11.117
38352SOL     OW16952   4.883   8.772   0.891
38352SOL    HW116953   4.829   8.833   0.942
38352SOL    HW216954   4.941   8.731   0.956
38353SOL     OW16955  11.707   4.950  14.161
38353SOL    HW116956  11.736   5.009  14.231
38353SOL    HW216957  11.786   4.901  14.137
38354SOL     OW16958   6.868   9.143  12.786
38354SOL    HW116959   6.884   9.223  12.736
38354SOL    HW216960   6.848   9.173  12.874
38355SOL     OW16961  13.951   5.575   5.438
38355SOL    HW116962  13.876   5.635   5.443
38355SOL    HW216963  13.978   5.561   5.529
38356SOL     OW16964  10.947   7.956   4.594
38356SOL    HW116965  10.884   8.003   4.539
38356SOL    HW216966  10.999   8.026   4.635
38357SOL     OW16967   5.483  12.121  13.005
38357SOL    HW116968   5.508  12.187  12.940
38357SOL    HW216969   5.443  12.172  13.076
38358SOL     OW16970   2.094   7.691  11.938
38358SOL    HW116971   2.117   7.678  12.030
38358SOL    HW216972   2.161   7.642  11.890
38359SOL     OW16973   8.868   5.702   6.141
38359SOL    HW116974   8.791   5.679   6.090
38359SOL    HW216975   8.843   5.783   6.186
38360SOL     OW16976   7.422   3.366   7.894
38360SOL    HW116977   7.443   3.272   7.899
38360SOL    HW216978   7.382   3.376   7.808
38361SOL     OW16979   6.868   6.386  12.835
38361SOL    HW116980   6.795   6.329  12.810
38361SOL    HW216981   6.828   6.473  12.844
38362SOL     OW16982   2.229   7.619   6.084
38362SOL    HW116983   2.275   7.662   6.156
38362SOL    HW216984   2.246   7.675   6.008
38363SOL     OW16985   4.642   3.532   6.123
38363SOL    HW116986   4.579   3.595   6.157
38363SOL    HW216987   4.634   3.456   6.180
38364SOL     OW16988  10.619  12.825  12.428
38364SOL    HW116989  10.654  12.784  12.507
38364SOL    HW216990  10.638  12.762  12.358
38365SOL     OW16991   0.234   5.482   4.547
38365SOL    HW116992   0.150   5.485   4.501
38365SOL    HW216993   0.229   5.404   4.602
38366SOL     OW16994   3.528   3.161   4.504
38366SOL    HW116995   3.501   3.125   4.420
38366SOL    HW216996   3.619   3.186   4.492
38367SOL     OW16997   1.467   4.968   3.412
38367SOL    HW116998   1.479   4.932   3.323
38367SOL    HW216999   1.543   4.935   3.461
38368SOL     OW17000  11.709  10.760  11.128
38368SOL    HW117001  11.774  10.708  11.175
38368SOL    HW217002  11.728  10.742  11.035
38369SOL     OW17003  11.895   4.897   4.148
38369SOL    HW117004  11.950   4.974   4.164
38369SOL    HW217005  11.806   4.932   4.140
38370SOL     OW17006  11.247   9.657   5.482
38370SOL    HW117007  11.207   9.570   5.484
38370SOL    HW217008  11.318   9.651   5.546
38371SOL     OW17009  10.267   7.305  12.866
38371SOL    HW117010  10.236   7.338  12.782
38371SOL    HW217011  10.254   7.378  12.927
38372SOL     OW17012  12.180  12.588   9.016
38372SOL    HW117013  12.177  12.609   9.109
38372SOL    HW217014  12.201  12.671   8.973
38373SOL     OW17015   0.029   7.687  11.895
38373SOL    HW117016  14.819   7.684  11.950
38373SOL    HW217017   0.051   7.596  11.880
38374SOL     OW17018   3.965  10.464   5.655
38374SOL    HW117019   3.960  10.391   5.593
38374SOL    HW217020   3.961  10.543   5.601
38375SOL     OW17021   6.255   0.030   0.447
38375SOL    HW117022   6.191  14.843   0.491
38375SOL    HW217023   6.311   0.063   0.518
38376SOL     OW17024   7.023  10.990  10.645
38376SOL    HW117025   6.958  11.024  10.584
38376SOL    HW217026   7.002  11.031  10.728
38377SOL     OW17027   9.760   0.737  13.106
38377SOL    HW117028   9.779   0.809  13.046
38377SOL    HW217029   9.821   0.750  13.179
38378SOL     OW17030  14.302   8.519  12.773
38378SOL    HW117031  14.224   8.568  12.800
38378SOL    HW217032  14.279   8.481  12.689
38379SOL     OW17033  10.987   5.540  12.405
38379SOL    HW117034  11.000   5.565  12.313
38379SOL    HW217035  10.910   5.589  12.433
38380SOL     OW17036   2.856  13.495   8.818
38380SOL    HW117037   2.841  13.486   8.724
38380SOL    HW217038   2.842  13.588   8.836
38381SOL     OW17039   7.913   4.463   1.536
38381SOL    HW117040   7.829   4.493   1.502
38381SOL    HW217041   7.956   4.543   1.566
38382SOL     OW17042   2.687   5.530   9.171
38382SOL    HW117043   2.684   5.607   9.114
38382SOL    HW217044   2.717   5.459   9.114
38383SOL     OW17045   9.097   2.351  12.409
38383SOL    HW117046   9.133   2.281  12.354
38383SOL    HW217047   9.149   2.428  12.386
38384SOL     OW17048  11.814   6.420   1.344
38384SOL    HW117049  11.896   6.459   1.316
38384SOL    HW217050  11.835   6.328   1.358
38385SOL     OW17051   7.747   3.992   7.792
38385SOL    HW117052   7.794   4.021   7.714
38385SOL    HW217053   7.811   3.998   7.863
38386SOL     OW17054   8.068   9.928  14.140
38386SOL    HW117055   8.030   9.904  14.224
38386SOL    HW217056   8.099   9.845  14.104
38387SOL     OW17057  12.698  10.295   9.689
38387SOL    HW117058  12.784  10.286   9.730
38387SOL    HW217059  12.640  10.240   9.741
38388SOL     OW17060   3.674   9.101   5.137
38388SOL    HW117061   3.760   9.066   5.117
38388SOL    HW217062   3.666   9.179   5.081
38389SOL     OW17063   2.181   7.424  14.347
38389SOL    HW117064   2.154   7.496  14.404
38389SOL    HW217065   2.267   7.398  14.380
38390SOL     OW17066   0.251   2.343   7.205
38390SOL    HW117067   0.206   2.298   7.133
38390SOL    HW217068   0.327   2.289   7.224
38391SOL     OW17069  13.860   1.370   0.049
38391SOL    HW117070  13.770   1.400   0.042
38391SOL    HW217071  13.884   1.388   0.140
38392SOL     OW17072  10.880   5.816   0.662
38392SOL    HW117073  10.945   5.750   0.636
38392SOL    HW217074  10.830   5.774   0.732
38393SOL     OW17075   2.225   2.450   2.664
38393SOL    HW117076   2.172   2.369   2.664
38393SOL    HW217077   2.271   2.449   2.580
38394SOL     OW17078   6.708  11.844  12.943
38394SOL    HW117079   6.772  11.802  12.886
38394SOL    HW217080   6.697  11.932  12.906
38395SOL     OW17081  10.870   5.783  12.441
38395SOL    HW117082  10.872   5.840  12.518
38395SOL    HW217083  10.778   5.764  12.426
38396SOL     OW17084  13.347   0.840   5.497
38396SOL    HW117085  13.439   0.815   5.507
38396SOL    HW217086  13.333   0.905   5.566
38397SOL     OW17087   4.920   5.455  13.433
38397SOL    HW117088   4.861   5.506  13.488
38397SOL    HW217089   5.008   5.480  13.462
38398SOL     OW17090   4.255   2.434  14.005
38398SOL    HW117091   4.304   2.510  13.974
38398SOL    HW217092   4.313   2.360  13.990
38399SOL     OW17093   9.392  12.693  11.051
38399SOL    HW117094   9.473  12.719  11.007
38399SOL    HW217095   9.362  12.772  11.095
38400SOL     OW17096  10.967   4.268   7.739
38400SOL    HW117097  10.894   4.211   7.763
38400SOL    HW217098  11.012   4.221   7.669
38401SOL     OW17099   7.568  11.580   7.981
38401SOL    HW117100   7.475  11.578   7.959
38401SOL    HW217101   7.581  11.505   8.039
38402SOL     OW17102   7.079   2.455   4.285
38402SOL    HW117103   7.133   2.379   4.309
38402SOL    HW217104   7.137   2.530   4.298
38403SOL     OW17105  10.231   3.299  13.408
38403SOL    HW117106  10.195   3.270  13.491
38403SOL    HW217107  10.285   3.226  13.378
38404SOL     OW17108   0.358   4.141   4.072
38404SOL    HW117109   0.428   4.092   4.114
38404SOL    HW217110   0.403   4.213   4.027
38405SOL     OW17111  10.151   2.284  10.520
38405SOL    HW117112  10.239   2.319  10.524
38405SOL    HW217113  10.140   2.238  10.604
38406SOL     OW17114  13.887   2.729   5.853
38406SOL    HW117115  13.955   2.773   5.803
38406SOL    HW217116  13.934   2.680   5.921
38407SOL     OW17117   7.463   5.038  13.297
38407SOL    HW117118   7.384   4.984  13.301
38407SOL    HW217119   7.504   5.015  13.213
38408SOL     OW17120  14.087  14.658  14.071
38408SOL    HW117121  14.103  14.687  14.161
38408SOL    HW217122  13.997  14.686  14.053
38409SOL     OW17123  13.935   6.849  14.241
38409SOL    HW117124  13.918   6.862  14.148
38409SOL    HW217125  14.019   6.891  14.256
38410SOL     OW17126   5.943  12.812   8.935
38410SOL    HW117127   5.895  12.787   9.014
38410SOL    HW217128   6.030  12.838   8.967
38411SOL     OW17129   0.005   8.855   7.637
38411SOL    HW117130  14.797   8.868   7.695
38411SOL    HW217131  14.835   8.847   7.550
38412SOL     OW17132  14.683   5.857  14.239
38412SOL    HW117133  14.747   5.792  14.267
38412SOL    HW217134  14.687   5.857  14.144
38413SOL     OW17135   5.971   2.778   0.192
38413SOL    HW117136   6.040   2.794   0.128
38413SOL    HW217137   5.933   2.864   0.209
38414SOL     OW17138  12.351   3.460   6.833
38414SOL    HW117139  12.312   3.396   6.774
38414SOL    HW217140  12.294   3.459   6.910
38415SOL     OW17141   0.186   8.072  12.439
38415SOL    HW117142   0.275   8.051  12.411
38415SOL    HW217143   0.158   8.141  12.379
38416SOL     OW17144   8.767   3.867   6.808
38416SOL    HW117145   8.725   3.951   6.790
38416SOL    HW217146   8.778   3.866   6.903
38417SOL     OW17147   1.434   7.709   9.378
38417SOL    HW117148   1.451   7.623   9.416
38417SOL    HW217149   1.423   7.767   9.453
38418SOL     OW17150   0.717  13.274   2.412
38418SOL    HW117151   0.680  13.186   2.418
38418SOL    HW217152   0.713  13.308   2.502
38419SOL     OW17153   2.404   4.852   3.736
38419SOL    HW117154   2.387   4.767   3.778
38419SOL    HW217155   2.343   4.912   3.779
38420SOL     OW17156   4.370  14.760   6.361
38420SOL    HW117157   4.316  14.826   6.406
38420SOL    HW217158   4.344  14.677   6.401
38421SOL     OW17159   4.129   4.471   9.649
38421SOL    HW117160   4.146   4.390   9.697
38421SOL    HW217161   4.210   4.521   9.657
38422SOL     OW17162  13.886   8.762  14.583
38422SOL    HW117163  13.920   8.828  14.523
38422SOL    HW217164  13.795   8.787  14.597
38423SOL     OW17165   7.775   7.165   9.661
38423SOL    HW117166   7.713   7.207   9.721
38423SOL    HW217167   7.798   7.083   9.704
38424SOL     OW17168   3.967   6.146   9.913
38424SOL    HW117169   3.883   6.120   9.876
38424SOL    HW217170   4.018   6.065   9.916
38425SOL     OW17171   5.621  12.684   3.031
38425SOL    HW117172   5.634  12.602   2.983
38425SOL    HW217173   5.606  12.749   2.962
38426SOL     OW17174  12.038  11.594   3.453
38426SOL    HW117175  11.952  11.578   3.415
38426SOL    HW217176  12.095  11.610   3.377
38427SOL     OW17177  12.606   6.881   7.565
38427SOL    HW117178  12.697   6.859   7.544
38427SOL    HW217179  12.610   6.917   7.654
38428SOL     OW17180   1.547   5.332   7.570
38428SOL    HW117181   1.474   5.368   7.520
38428SOL    HW217182   1.625   5.378   7.537
38429SOL     OW17183  10.585   3.650  13.657
38429SOL    HW117184  10.515   3.700  13.615
38429SOL    HW217185  10.539   3.591  13.718
38430SOL     OW17186  13.068  12.151   7.097
38430SOL    HW117187  13.015  12.110   7.165
38430SOL    HW217188  13.101  12.077   7.045
38431SOL     OW17189   0.506  12.333  11.248
38431SOL    HW117190   0.477  12.262  11.190
38431SOL    HW217191   0.428  12.387  11.260
38432SOL     OW17192  14.071  10.436   4.277
38432SOL    HW117193  13.976  10.425   4.265
38432SOL    HW217194  14.085  10.420   4.370
38433SOL     OW17195   5.176   7.155   4.635
38433SOL    HW117196   5.254   7.113   4.673
38433SOL    HW217197   5.151   7.221   4.699
38434SOL     OW17198  13.112   7.822   0.274
38434SOL    HW117199  13.122   7.916   0.257
38434SOL    HW217200  13.072   7.787   0.194
38435SOL     OW17201   2.230   2.524   8.471
38435SOL    HW117202   2.162   2.545   8.407
38435SOL    HW217203   2.252   2.609   8.511
38436SOL     OW17204   6.156   2.134  11.118
38436SOL    HW117205   6.208   2.199  11.165
38436SOL    HW217206   6.104   2.092  11.186
38437SOL     OW17207   6.094  10.463   1.955
38437SOL    HW117208   6.023  10.525   1.935
38437SOL    HW217209   6.066  10.422   2.037
38438SOL     OW17210   3.993  10.930   8.075
38438SOL    HW117211   3.907  10.952   8.111
38438SOL    HW217212   4.012  10.843   8.108
38439SOL     OW17213   6.084   9.285  12.230
38439SOL    HW117214   6.047   9.248  12.149
38439SOL    HW217215   6.008   9.297  12.287
38440SOL     OW17216   3.824   0.214  13.569
38440SOL    HW117217   3.729   0.215  13.554
38440SOL    HW217218   3.851   0.304  13.553
38441SOL     OW17219   2.080   5.792   6.454
38441SOL    HW117220   2.062   5.701   6.480
38441SOL    HW217221   2.128   5.784   6.372
38442SOL     OW17222   2.012  12.430   3.437
38442SOL    HW117223   2.036  12.505   3.490
38442SOL    HW217224   1.937  12.460   3.385
38443SOL     OW17225   9.969  12.954   3.434
38443SOL    HW117226   9.891  12.901   3.421
38443SOL    HW217227   9.936  13.041   3.457
38444SOL     OW17228   8.411   7.893   6.348
38444SOL    HW117229   8.456   7.854   6.273
38444SOL    HW217230   8.471   7.879   6.421
38445SOL     OW17231   0.182  11.667   2.840
38445SOL    HW117232   0.171  11.724   2.916
38445SOL    HW217233   0.276  11.649   2.838
38446SOL     OW17234   4.423   1.439   3.565
38446SOL    HW117235   4.481   1.392   3.504
38446SOL    HW217236   4.455   1.415   3.652
38447SOL     OW17237   8.974   2.399  13.272
38447SOL    HW117238   9.016   2.431  13.192
38447SOL    HW217239   8.974   2.475  13.331
38448SOL     OW17240  14.310   9.360   5.798
38448SOL    HW117241  14.394   9.334   5.836
38448SOL    HW217242  14.307   9.314   5.714
38449SOL     OW17243   6.841  13.682   9.044
38449SOL    HW117244   6.928  13.687   9.084
38449SOL    HW217245   6.858  13.677   8.950
38450SOL     OW17246   3.885   2.350   9.641
38450SOL    HW117247   3.978   2.364   9.657
38450SOL    HW217248   3.859   2.285   9.705
38451SOL     OW17249   9.452   6.190   3.104
38451SOL    HW117250   9.543   6.214   3.124
38451SOL    HW217251   9.400   6.260   3.142
38452SOL     OW17252   1.233  12.238   6.725
38452SOL    HW117253   1.229  12.320   6.774
38452SOL    HW217254   1.305  12.251   6.663
38453SOL     OW17255  13.215   9.731  12.624
38453SOL    HW117256  13.301   9.728  12.665
38453SOL    HW217257  13.177   9.645  12.645
38454SOL     OW17258   6.817   7.319   2.933
38454SOL    HW117259   6.737   7.355   2.972
38454SOL    HW217260   6.888   7.355   2.986
38455SOL     OW17261  13.666   9.837   9.100
38455SOL    HW117262  13.666   9.890   9.021
38455SOL    HW217263  13.757   9.837   9.129
38456SOL     OW17264  14.130  13.381  13.737
38456SOL    HW117265  14.106  13.470  13.711
38456SOL    HW217266  14.150  13.336  13.655
38457SOL     OW17267   6.219   1.744   8.921
38457SOL    HW117268   6.148   1.775   8.977
38457SOL    HW217269   6.175   1.713   8.841
38458SOL     OW17270   8.778  13.390   5.334
38458SOL    HW117271   8.805  13.306   5.296
38458SOL    HW217272   8.796  13.381   5.427
38459SOL     OW17273   7.568   7.391   6.197
38459SOL    HW117274   7.537   7.404   6.286
38459SOL    HW217275   7.647   7.338   6.206
38460SOL     OW17276  12.810   2.059   4.946
38460SOL    HW117277  12.802   2.138   5.000
38460SOL    HW217278  12.880   2.079   4.884
38461SOL     OW17279  10.941   8.863   9.564
38461SOL    HW117280  11.034   8.853   9.542
38461SOL    HW217281  10.928   8.802   9.637
38462SOL     OW17282   1.868   6.836   1.801
38462SOL    HW117283   1.870   6.800   1.890
38462SOL    HW217284   1.802   6.784   1.755
38463SOL     OW17285  14.199  13.704   3.944
38463SOL    HW117286  14.282  13.747   3.923
38463SOL    HW217287  14.211  13.672   4.033
38464SOL     OW17288   2.756   4.863  13.657
38464SOL    HW117289   2.684   4.876  13.596
38464SOL    HW217290   2.835   4.883  13.606
38465SOL     OW17291   3.381  14.642  13.306
38465SOL    HW117292   3.385  14.737  13.291
38465SOL    HW217293   3.468  14.620  13.340
38466SOL     OW17294   6.506   2.860   8.967
38466SOL    HW117295   6.526   2.923   8.898
38466SOL    HW217296   6.530   2.906   9.048
38467SOL     OW17297   7.995   4.223  10.509
38467SOL    HW117298   8.000   4.169  10.430
38467SOL    HW217299   7.901   4.232  10.526
38468SOL     OW17300   4.823   3.104  11.052
38468SOL    HW117301   4.857   3.016  11.035
38468SOL    HW217302   4.900   3.161  11.050
38469SOL     OW17303   4.997   4.723   8.188
38469SOL    HW117304   5.084   4.686   8.172
38469SOL    HW217305   4.956   4.725   8.102
38470SOL     OW17306  12.734   0.650  10.713
38470SOL    HW117307  12.680   0.579  10.748
38470SOL    HW217308  12.788   0.609  10.646
38471SOL     OW17309   8.156  12.913  10.045
38471SOL    HW117310   8.178  12.823  10.020
38471SOL    HW217311   8.215  12.933  10.117
38472SOL     OW17312  13.785   1.621  14.008
38472SOL    HW117313  13.735   1.657  14.082
38472SOL    HW217314  13.847   1.690  13.985
38473SOL     OW17315   9.011   7.331   0.225
38473SOL    HW117316   8.951   7.291   0.162
38473SOL    HW217317   9.006   7.275   0.302
38474SOL     OW17318   1.697   7.221   3.413
38474SOL    HW117319   1.755   7.192   3.483
38474SOL    HW217320   1.753   7.274   3.355
38475SOL     OW17321   9.843  11.672   1.933
38475SOL    HW117322   9.751  11.684   1.911
38475SOL    HW217323   9.890  11.725   1.868
38476SOL     OW17324   4.436   8.691   8.007
38476SOL    HW117325   4.473   8.704   7.920
38476SOL    HW217326   4.366   8.756   8.013
38477SOL     OW17327   2.595   5.100   0.155
38477SOL    HW117328   2.587   5.166   0.086
38477SOL    HW217329   2.522   5.119   0.214
38478SOL     OW17330   3.098   3.775   0.400
38478SOL    HW117331   3.155   3.732   0.464
38478SOL    HW217332   3.070   3.704   0.342
38479SOL     OW17333  14.625   1.813   6.435
38479SOL    HW117334  14.685   1.871   6.483
38479SOL    HW217335  14.610   1.858   6.352
38480SOL     OW17336   9.640  13.270  10.709
38480SOL    HW117337   9.575  13.220  10.660
38480SOL    HW217338   9.639  13.231  10.797
38481SOL     OW17339   0.934   8.613  13.550
38481SOL    HW117340   1.027   8.599  13.536
38481SOL    HW217341   0.926   8.633  13.643
38482SOL     OW17342  10.049   7.074   6.027
38482SOL    HW117343   9.985   7.131   5.985
38482SOL    HW217344   9.996   7.003   6.064
38483SOL     OW17345   6.758  14.547   3.252
38483SOL    HW117346   6.690  14.614   3.242
38483SOL    HW217347   6.789  14.558   3.342
38484SOL     OW17348   0.091   7.770  12.160
38484SOL    HW117349   0.011   7.756  12.211
38484SOL    HW217350   0.073   7.729  12.075
38485SOL     OW17351   9.534  10.584   1.302
38485SOL    HW117352   9.553  10.655   1.362
38485SOL    HW217353   9.597  10.594   1.231
38486SOL     OW17354   0.086   6.062  10.601
38486SOL    HW117355   0.007   6.089  10.647
38486SOL    HW217356   0.068   6.080  10.508
38487SOL     OW17357   5.435   4.442   0.945
38487SOL    HW117358   5.392   4.497   0.879
38487SOL    HW217359   5.439   4.498   1.022
38488SOL     OW17360   5.976   7.569   4.966
38488SOL    HW117361   5.896   7.516   4.963
38488SOL    HW217362   6.047   7.505   4.966
38489SOL     OW17363  10.888   5.387   4.349
38489SOL    HW117364  10.871   5.423   4.262
38489SOL    HW217365  10.802   5.380   4.389
38490SOL     OW17366  10.714  13.842  10.179
38490SOL    HW117367  10.782  13.780  10.206
38490SOL    HW217368  10.644  13.788  10.143
38491SOL     OW17369   7.830   1.905   3.370
38491SOL    HW117370   7.772   1.830   3.364
38491SOL    HW217371   7.918   1.870   3.355
38492SOL     OW17372  10.382  10.005  13.038
38492SOL    HW117373  10.365  10.044  13.124
38492SOL    HW217374  10.370   9.911  13.053
38493SOL     OW17375   0.008   9.973   2.940
38493SOL    HW117376   0.003   9.878   2.946
38493SOL    HW217377   0.082   9.997   2.996
38494SOL     OW17378   9.403  11.608   5.704
38494SOL    HW117379   9.441  11.601   5.616
38494SOL    HW217380   9.326  11.551   5.702
38495SOL     OW17381   6.283  13.802   0.851
38495SOL    HW117382   6.223  13.766   0.786
38495SOL    HW217383   6.244  13.885   0.877
38496SOL     OW17384   4.881  14.273  10.538
38496SOL    HW117385   4.900  14.247  10.448
38496SOL    HW217386   4.804  14.221  10.561
38497SOL     OW17387   2.895  11.702  11.940
38497SOL    HW117388   2.883  11.775  11.880
38497SOL    HW217389   2.877  11.738  12.027
38498SOL     OW17390   8.549  14.385   1.922
38498SOL    HW117391   8.551  14.476   1.949
38498SOL    HW217392   8.640  14.363   1.900
38499SOL     OW17393   9.328   2.267   0.622
38499SOL    HW117394   9.257   2.237   0.679
38499SOL    HW217395   9.285   2.319   0.555
38500SOL     OW17396  13.638   1.885   9.592
38500SOL    HW117397  13.733   1.875   9.579
38500SOL    HW217398  13.624   1.857   9.683
38501SOL     OW17399  10.636  10.001   6.060
38501SOL    HW117400  10.656   9.947   5.984
38501SOL    HW217401  10.717  10.050   6.076
38502SOL     OW17402  10.663   4.128   1.069
38502SOL    HW117403  10.756   4.148   1.058
38502SOL    HW217404  10.623   4.153   0.986
38503SOL     OW17405   0.731   5.217  13.700
38503SOL    HW117406   0.780   5.219  13.782
38503SOL    HW217407   0.742   5.305  13.663
38504SOL     OW17408   2.188   4.807   5.666
38504SOL    HW117409   2.208   4.857   5.745
38504SOL    HW217410   2.200   4.715   5.692
38505SOL     OW17411   8.305   5.231   8.354
38505SOL    HW117412   8.337   5.274   8.433
38505SOL    HW217413   8.217   5.267   8.341
38506SOL     OW17414   6.372  12.562   2.741
38506SOL    HW117415   6.422  12.564   2.822
38506SOL    HW217416   6.291  12.517   2.764
38507SOL     OW17417  10.736  13.810  11.563
38507SOL    HW117418  10.731  13.880  11.497
38507SOL    HW217419  10.798  13.747  11.527
38508SOL     OW17420   2.364  10.711   6.491
38508SOL    HW117421   2.314  10.719   6.572
38508SOL    HW217422   2.369  10.800   6.457
38509SOL     OW17423   9.125   3.678   1.662
38509SOL    HW117424   9.150   3.701   1.751
38509SOL    HW217425   9.181   3.604   1.639
38510SOL     OW17426   2.609  11.112   4.771
38510SOL    HW117427   2.553  11.190   4.777
38510SOL    HW217428   2.584  11.059   4.847
38511SOL     OW17429  10.330  10.437   1.184
38511SOL    HW117430  10.363  10.523   1.212
38511SOL    HW217431  10.311  10.392   1.266
38512SOL     OW17432  14.651   4.024   1.544
38512SOL    HW117433  14.599   3.960   1.494
38512SOL    HW217434  14.736   4.025   1.499
38513SOL     OW17435   0.215   2.255  14.312
38513SOL    HW117436   0.257   2.222  14.233
38513SOL    HW217437   0.247   2.345  14.321
38514SOL     OW17438   8.451  11.113  10.477
38514SOL    HW117439   8.464  11.207  10.492
38514SOL    HW217440   8.424  11.078  10.562
38515SOL     OW17441   3.407   3.678   0.005
38515SOL    HW117442   3.362   3.633   0.076
38515SOL    HW217443   3.497   3.648   0.011
38516SOL     OW17444   7.550   6.322   2.529
38516SOL    HW117445   7.616   6.382   2.564
38516SOL    HW217446   7.601   6.258   2.478
38517SOL     OW17447  12.190   9.105   9.755
38517SOL    HW117448  12.208   9.087   9.662
38517SOL    HW217449  12.094   9.104   9.761
38518SOL     OW17450   7.273   9.810   9.446
38518SOL    HW117451   7.257   9.728   9.400
38518SOL    HW217452   7.248   9.792   9.537
38519SOL     OW17453  10.070   8.032   0.127
38519SOL    HW117454  10.062   7.988   0.212
38519SOL    HW217455  10.005   8.102   0.131
38520SOL     OW17456   5.213   2.417  13.498
38520SOL    HW117457   5.187   2.478  13.429
38520SOL    HW217458   5.237   2.473  13.571
38521SOL     OW17459   5.592  10.649   7.634
38521SOL    HW117460   5.676  10.690   7.613
38521SOL    HW217461   5.586  10.654   7.730
38522SOL     OW17462   9.255   9.724   0.341
38522SOL    HW117463   9.268   9.660   0.271
38522SOL    HW217464   9.203   9.793   0.301
38523SOL     OW17465  12.213   1.150   7.224
38523SOL    HW117466  12.256   1.220   7.273
38523SOL    HW217467  12.136   1.128   7.276
38524SOL     OW17468   4.680  10.492   5.353
38524SOL    HW117469   4.678  10.397   5.363
38524SOL    HW217470   4.725  10.524   5.432
38525SOL     OW17471  12.673  13.374  14.841
38525SOL    HW117472  12.763  13.341  14.833
38525SOL    HW217473  12.681  13.468  14.826
38526SOL     OW17474  13.174   5.017  13.591
38526SOL    HW117475  13.086   4.990  13.616
38526SOL    HW217476  13.227   4.999  13.669
38527SOL     OW17477  11.857  12.421  13.280
38527SOL    HW117478  11.844  12.356  13.349
38527SOL    HW217479  11.772  12.428  13.238
38528SOL     OW17480   7.783   5.354   2.733
38528SOL    HW117481   7.864   5.385   2.775
38528SOL    HW217482   7.738   5.306   2.802
38529SOL     OW17483   0.825   7.305   3.508
38529SOL    HW117484   0.764   7.315   3.581
38529SOL    HW217485   0.879   7.231   3.533
38530SOL     OW17486   8.208  12.090  13.698
38530SOL    HW117487   8.219  12.144  13.620
38530SOL    HW217488   8.265  12.132  13.764
38531SOL     OW17489   3.759   0.029   6.531
38531SOL    HW117490   3.845   0.071   6.537
38531SOL    HW217491   3.778  14.803   6.534
38532SOL     OW17492   8.675   7.359  13.255
38532SOL    HW117493   8.585   7.366  13.285
38532SOL    HW217494   8.679   7.274  13.211
38533SOL     OW17495  13.530   0.931   1.132
38533SOL    HW117496  13.514   0.847   1.176
38533SOL    HW217497  13.623   0.948   1.146
38534SOL     OW17498   9.041  13.643  14.568
38534SOL    HW117499   9.091  13.574  14.612
38534SOL    HW217500   8.952  13.607  14.562
38535SOL     OW17501  14.717  11.464  13.894
38535SOL    HW117502  14.747  11.491  13.981
38535SOL    HW217503  14.674  11.542  13.859
38536SOL     OW17504   8.639  12.775   4.999
38536SOL    HW117505   8.650  12.685   5.029
38536SOL    HW217506   8.726  12.803   4.970
38537SOL     OW17507   8.050   1.346   9.756
38537SOL    HW117508   8.086   1.429   9.724
38537SOL    HW217509   7.999   1.370   9.833
38538SOL     OW17510   1.171  13.508   6.148
38538SOL    HW117511   1.083  13.484   6.121
38538SOL    HW217512   1.192  13.449   6.220
38539SOL     OW17513  13.032   3.572  10.148
38539SOL    HW117514  13.119   3.540  10.175
38539SOL    HW217515  13.002   3.625  10.221
38540SOL     OW17516  13.680   8.798   0.333
38540SOL    HW117517  13.742   8.871   0.330
38540SOL    HW217518  13.646   8.799   0.423
38541SOL     OW17519   8.187   7.113   2.892
38541SOL    HW117520   8.250   7.081   2.828
38541SOL    HW217521   8.157   7.035   2.938
38542SOL     OW17522   0.820  12.119   5.187
38542SOL    HW117523   0.776  12.099   5.105
38542SOL    HW217524   0.832  12.214   5.185
38543SOL     OW17525   9.717  11.912   0.714
38543SOL    HW117526   9.696  11.878   0.801
38543SOL    HW217527   9.644  11.882   0.659
38544SOL     OW17528   5.825   8.562   1.467
38544SOL    HW117529   5.803   8.517   1.386
38544SOL    HW217530   5.883   8.634   1.440
38545SOL     OW17531   9.282  13.818  10.428
38545SOL    HW117532   9.252  13.880  10.494
38545SOL    HW217533   9.208  13.809  10.368
38546SOL     OW17534   1.245  12.655   6.465
38546SOL    HW117535   1.291  12.717   6.521
38546SOL    HW217536   1.152  12.673   6.480
38547SOL     OW17537   5.556  11.675   0.164
38547SOL    HW117538   5.504  11.654   0.242
38547SOL    HW217539   5.505  11.742   0.119
38548SOL     OW17540  12.563   2.171  14.699
38548SOL    HW117541  12.626   2.140  14.634
38548SOL    HW217542  12.598   2.255  14.729
38549SOL     OW17543  11.062   1.624  12.708
38549SOL    HW117544  11.115   1.683  12.762
38549SOL    HW217545  11.016   1.683  12.648
38550SOL     OW17546   7.506  12.290  12.889
38550SOL    HW117547   7.538  12.214  12.937
38550SOL    HW217548   7.421  12.310  12.928
38551SOL     OW17549   2.556   3.648   1.382
38551SOL    HW117550   2.596   3.563   1.366
38551SOL    HW217551   2.540   3.650   1.476
38552SOL     OW17552   0.575   1.890  14.224
38552SOL    HW117553   0.637   1.821  14.203
38552SOL    HW217554   0.614   1.969  14.186
38553SOL     OW17555   8.723   2.260  12.486
38553SOL    HW117556   8.668   2.197  12.533
38553SOL    HW217557   8.811   2.222  12.490
38554SOL     OW17558   3.997   5.543   3.002
38554SOL    HW117559   3.995   5.618   2.942
38554SOL    HW217560   3.905   5.515   3.006
38555SOL     OW17561   1.704   6.675  14.828
38555SOL    HW117562   1.655   6.669  14.746
38555SOL    HW217563   1.792   6.699  14.801
38556SOL     OW17564   0.742  11.751   5.194
38556SOL    HW117565   0.760  11.690   5.123
38556SOL    HW217566   0.772  11.836   5.159
38557SOL     OW17567   3.234   7.972   5.435
38557SOL    HW117568   3.300   7.928   5.488
38557SOL    HW217569   3.211   7.909   5.367
38558SOL     OW17570   4.317   9.487   3.696
38558SOL    HW117571   4.347   9.458   3.782
38558SOL    HW217572   4.259   9.561   3.713
38559SOL     OW17573   7.632   2.794   1.162
38559SOL    HW117574   7.588   2.733   1.222
38559SOL    HW217575   7.652   2.742   1.085
38560SOL     OW17576   8.207   6.714   2.617
38560SOL    HW117577   8.274   6.730   2.685
38560SOL    HW217578   8.229   6.776   2.547
38561SOL     OW17579  10.016   4.502   5.139
38561SOL    HW117580   9.968   4.467   5.214
38561SOL    HW217581  10.061   4.426   5.102
38562SOL     OW17582   0.414   4.468   4.699
38562SOL    HW117583   0.490   4.465   4.756
38562SOL    HW217584   0.373   4.552   4.717
38563SOL     OW17585   3.822  14.144   8.991
38563SOL    HW117586   3.820  14.208   9.062
38563SOL    HW217587   3.899  14.091   9.009
38564SOL     OW17588   4.969   4.172   9.092
38564SOL    HW117589   4.974   4.141   9.182
38564SOL    HW217590   5.053   4.217   9.078
38565SOL     OW17591   5.967   6.727   9.751
38565SOL    HW117592   5.963   6.790   9.823
38565SOL    HW217593   5.992   6.779   9.675
38566SOL     OW17594  14.530   6.739   7.982
38566SOL    HW117595  14.454   6.756   8.038
38566SOL    HW217596  14.551   6.647   7.996
38567SOL     OW17597  12.090  12.999  13.498
38567SOL    HW117598  12.008  13.048  13.501
38567SOL    HW217599  12.080  12.939  13.424
38568SOL     OW17600  11.621  10.946   1.280
38568SOL    HW117601  11.592  10.949   1.371
38568SOL    HW217602  11.540  10.945   1.229
38569SOL     OW17603   8.550  12.196  12.792
38569SOL    HW117604   8.511  12.162  12.873
38569SOL    HW217605   8.525  12.288  12.790
38570SOL     OW17606  10.651   1.301   7.569
38570SOL    HW117607  10.570   1.350   7.583
38570SOL    HW217608  10.624   1.210   7.562
38571SOL     OW17609   9.475   6.274   7.168
38571SOL    HW117610   9.383   6.258   7.191
38571SOL    HW217611   9.510   6.321   7.243
38572SOL     OW17612   2.681   6.950  12.134
38572SOL    HW117613   2.653   6.864  12.103
38572SOL    HW217614   2.621   6.969  12.207
38573SOL     OW17615   6.988  12.828   8.975
38573SOL    HW117616   6.969  12.910   9.021
38573SOL    HW217617   7.008  12.855   8.886
38574SOL     OW17618  11.874   9.657   3.439
38574SOL    HW117619  11.841   9.664   3.350
38574SOL    HW217620  11.912   9.569   3.444
38575SOL     OW17621   2.954   8.818   3.194
38575SOL    HW117622   2.900   8.749   3.157
38575SOL    HW217623   3.043   8.795   3.167
38576SOL     OW17624   4.542   1.816   9.295
38576SOL    HW117625   4.617   1.791   9.241
38576SOL    HW217626   4.471   1.760   9.265
38577SOL     OW17627   8.792   8.585  11.010
38577SOL    HW117628   8.828   8.551  10.928
38577SOL    HW217629   8.864   8.579  11.073
38578SOL     OW17630   3.315   4.174   8.410
38578SOL    HW117631   3.403   4.148   8.384
38578SOL    HW217632   3.308   4.265   8.383
38579SOL     OW17633  14.559   9.693   7.675
38579SOL    HW117634  14.499   9.681   7.602
38579SOL    HW217635  14.614   9.767   7.649
38580SOL     OW17636   4.493   1.126   8.443
38580SOL    HW117637   4.449   1.045   8.467
38580SOL    HW217638   4.473   1.138   8.350
38581SOL     OW17639   5.540  14.246  14.243
38581SOL    HW117640   5.602  14.314  14.268
38581SOL    HW217641   5.539  14.186  14.318
38582SOL     OW17642   3.587   9.706   7.285
38582SOL    HW117643   3.593   9.792   7.244
38582SOL    HW217644   3.674   9.668   7.274
38583SOL     OW17645  11.335  10.430  14.759
38583SOL    HW117646  11.275  10.355  14.756
38583SOL    HW217647  11.293  10.496  14.704
38584SOL     OW17648  13.024   8.444   3.347
38584SOL    HW117649  12.997   8.491   3.268
38584SOL    HW217650  13.071   8.510   3.399
38585SOL     OW17651   5.111   8.949  13.728
38585SOL    HW117652   5.128   8.992  13.645
38585SOL    HW217653   5.097   8.857  13.705
38586SOL     OW17654   4.435   4.106   9.805
38586SOL    HW117655   4.516   4.106   9.856
38586SOL    HW217656   4.439   4.025   9.753
38587SOL     OW17657   0.581  12.055  14.519
38587SOL    HW117658   0.494  12.094  14.532
38587SOL    HW217659   0.620  12.107  14.449
38588SOL     OW17660  10.406   0.986   1.404
38588SOL    HW117661  10.366   0.950   1.324
38588SOL    HW217662  10.449   1.067   1.375
38589SOL     OW17663   0.859   0.263  10.052
38589SOL    HW117664   0.833   0.238   9.963
38589SOL    HW217665   0.917   0.192  10.081
38590SOL     OW17666   5.799  10.718   4.266
38590SOL    HW117667   5.809  10.625   4.286
38590SOL    HW217668   5.815  10.763   4.348
38591SOL     OW17669  12.267   6.561  14.793
38591SOL    HW117670  12.332   6.517  14.847
38591SOL    HW217671  12.185   6.517  14.814
38592SOL     OW17672  13.550  11.791   2.456
38592SOL    HW117673  13.601  11.821   2.531
38592SOL    HW217674  13.610  11.738   2.405
38593SOL     OW17675   0.046   4.205   0.388
38593SOL    HW117676  14.818   4.214   0.393
38593SOL    HW217677   0.073   4.277   0.331
38594SOL     OW17678   9.485   9.624   6.744
38594SOL    HW117679   9.413   9.587   6.795
38594SOL    HW217680   9.549   9.553   6.738
38595SOL     OW17681   1.171   7.327   8.353
38595SOL    HW117682   1.208   7.263   8.292
38595SOL    HW217683   1.109   7.378   8.299
38596SOL     OW17684   1.884  13.799  12.874
38596SOL    HW117685   1.883  13.733  12.943
38596SOL    HW217686   1.923  13.876  12.915
38597SOL     OW17687  14.603   6.700   3.156
38597SOL    HW117688  14.635   6.789   3.172
38597SOL    HW217689  14.620   6.653   3.238
38598SOL     OW17690  11.618  11.948   7.549
38598SOL    HW117691  11.563  12.023   7.570
38598SOL    HW217692  11.659  11.971   7.465
38599SOL     OW17693  13.107   3.130   0.142
38599SOL    HW117694  13.164   3.190   0.094
38599SOL    HW217695  13.042   3.187   0.182
38600SOL     OW17696   5.870   2.711   3.938
38600SOL    HW117697   5.798   2.722   4.001
38600SOL    HW217698   5.947   2.699   3.993
38601SOL     OW17699   0.619  13.393  13.009
38601SOL    HW117700   0.605  13.459  13.077
38601SOL    HW217701   0.578  13.314  13.043
38602SOL     OW17702   4.806   1.765  11.922
38602SOL    HW117703   4.875   1.746  11.986
38602SOL    HW217704   4.798   1.685  11.871
38603SOL     OW17705   4.741   4.405   0.561
38603SOL    HW117706   4.647   4.421   0.563
38603SOL    HW217707   4.776   4.468   0.498
38604SOL     OW17708  11.856  11.212   5.262
38604SOL    HW117709  11.871  11.215   5.167
38604SOL    HW217710  11.943  11.197   5.299
38605SOL     OW17711   5.687  11.706   2.873
38605SOL    HW117712   5.615  11.645   2.857
38605SOL    HW217713   5.731  11.671   2.951
38606SOL     OW17714  10.161  12.659   2.485
38606SOL    HW117715  10.086  12.600   2.475
38606SOL    HW217716  10.128  12.730   2.539
38607SOL     OW17717   6.074   3.819   1.756
38607SOL    HW117718   6.164   3.824   1.726
38607SOL    HW217719   6.021   3.840   1.679
38608SOL     OW17720  11.522   8.030   7.229
38608SOL    HW117721  11.568   7.974   7.167
38608SOL    HW217722  11.447   8.063   7.180
38609SOL     OW17723   1.796   7.757  14.684
38609SOL    HW117724   1.883   7.775  14.648
38609SOL    HW217725   1.808   7.757  14.779
38610SOL     OW17726   3.433   3.843  11.586
38610SOL    HW117727   3.471   3.784  11.650
38610SOL    HW217728   3.412   3.922  11.635
38611SOL     OW17729  14.367   0.472   9.379
38611SOL    HW117730  14.383   0.555   9.336
38611SOL    HW217731  14.342   0.412   9.308
38612SOL     OW17732   4.599   6.332   6.866
38612SOL    HW117733   4.670   6.390   6.892
38612SOL    HW217734   4.522   6.368   6.910
38613SOL     OW17735   6.738   1.377   2.463
38613SOL    HW117736   6.786   1.427   2.397
38613SOL    HW217737   6.802   1.362   2.532
38614SOL     OW17738  13.240   7.293   3.238
38614SOL    HW117739  13.279   7.371   3.198
38614SOL    HW217740  13.154   7.322   3.268
38615SOL     OW17741  10.623  11.355   2.775
38615SOL    HW117742  10.647  11.294   2.705
38615SOL    HW217743  10.531  11.378   2.757
38616SOL     OW17744  13.664   3.640   0.426
38616SOL    HW117745  13.608   3.611   0.499
38616SOL    HW217746  13.753   3.636   0.461
38617SOL     OW17747   3.797  14.282   6.707
38617SOL    HW117748   3.890  14.285   6.728
38617SOL    HW217749   3.756  14.344   6.768
38618SOL     OW17750   4.249   3.774  12.301
38618SOL    HW117751   4.240   3.703  12.365
38618SOL    HW217752   4.341   3.799  12.306
38619SOL     OW17753  12.165   4.138   7.925
38619SOL    HW117754  12.204   4.163   8.009
38619SOL    HW217755  12.226   4.170   7.859
38620SOL     OW17756  11.404   4.741   5.527
38620SOL    HW117757  11.368   4.788   5.452
38620SOL    HW217758  11.459   4.673   5.488
38621SOL     OW17759   7.169   3.545   6.724
38621SOL    HW117760   7.079   3.570   6.747
38621SOL    HW217761   7.161   3.457   6.687
38622SOL     OW17762   2.682   6.982  11.094
38622SOL    HW117763   2.727   6.919  11.151
38622SOL    HW217764   2.591   6.981  11.124
38623SOL     OW17765  12.510  12.161  12.956
38623SOL    HW117766  12.578  12.118  12.904
38623SOL    HW217767  12.541  12.156  13.046
38624SOL     OW17768  14.644   7.227  12.544
38624SOL    HW117769  14.613   7.318  12.552
38624SOL    HW217770  14.565   7.177  12.521
38625SOL     OW17771  11.403  11.213  13.389
38625SOL    HW117772  11.482  11.243  13.436
38625SOL    HW217773  11.378  11.288  13.335
38626SOL     OW17774   6.683   5.692   2.182
38626SOL    HW117775   6.654   5.752   2.113
38626SOL    HW217776   6.602   5.664   2.225
38627SOL     OW17777  11.930   8.400   6.460
38627SOL    HW117778  11.938   8.431   6.370
38627SOL    HW217779  12.012   8.425   6.502
38628SOL     OW17780   5.996   9.143   7.021
38628SOL    HW117781   5.988   9.143   7.116
38628SOL    HW217782   5.950   9.222   6.993
38629SOL     OW17783   6.651  13.758   9.536
38629SOL    HW117784   6.688  13.844   9.518
38629SOL    HW217785   6.680  13.703   9.464
38630SOL     OW17786  12.209   8.186   2.194
38630SOL    HW117787  12.209   8.249   2.266
38630SOL    HW217788  12.120   8.151   2.192
38631SOL     OW17789   0.671   3.499   3.313
38631SOL    HW117790   0.700   3.589   3.300
38631SOL    HW217791   0.620   3.479   3.234
38632SOL     OW17792   3.357   3.613   8.559
38632SOL    HW117793   3.341   3.617   8.653
38632SOL    HW217794   3.392   3.699   8.536
38633SOL     OW17795   9.633   5.599  10.757
38633SOL    HW117796   9.606   5.655  10.830
38633SOL    HW217797   9.562   5.606  10.693
38634SOL     OW17798   8.796   1.105   1.583
38634SOL    HW117799   8.796   1.026   1.528
38634SOL    HW217800   8.879   1.101   1.630
38635SOL     OW17801   6.699   7.559  13.235
38635SOL    HW117802   6.772   7.552  13.296
38635SOL    HW217803   6.621   7.547  13.290
38636SOL     OW17804   6.752  11.234  11.796
38636SOL    HW117805   6.820  11.217  11.731
38636SOL    HW217806   6.670  11.225  11.749
38637SOL     OW17807   3.700  14.842  13.130
38637SOL    HW117808   3.649  14.763  13.112
38637SOL    HW217809   3.742  14.825  13.214
38638SOL     OW17810   3.466   0.809  12.937
38638SOL    HW117811   3.449   0.804  12.843
38638SOL    HW217812   3.402   0.749  12.975
38639SOL     OW17813   7.688  10.172   2.228
38639SOL    HW117814   7.760  10.234   2.240
38639SOL    HW217815   7.615  10.210   2.277
38640SOL     OW17816  11.234  13.580   3.890
38640SOL    HW117817  11.288  13.566   3.967
38640SOL    HW217818  11.148  13.601   3.925
38641SOL     OW17819   1.952   4.863   7.573
38641SOL    HW117820   1.859   4.889   7.573
38641SOL    HW217821   1.955   4.785   7.628
38642SOL     OW17822   4.098  11.449   2.064
38642SOL    HW117823   4.097  11.437   1.969
38642SOL    HW217824   4.098  11.544   2.076
38643SOL     OW17825   5.289   2.880  14.742
38643SOL    HW117826   5.363   2.921  14.787
38643SOL    HW217827   5.212   2.924  14.777
38644SOL     OW17828  13.702  12.368  13.533
38644SOL    HW117829  13.779  12.418  13.561
38644SOL    HW217830  13.679  12.315  13.610
38645SOL     OW17831   4.563  13.858   4.853
38645SOL    HW117832   4.514  13.931   4.815
38645SOL    HW217833   4.506  13.782   4.842
38646SOL     OW17834   6.475   8.866   1.468
38646SOL    HW117835   6.399   8.883   1.524
38646SOL    HW217836   6.548   8.856   1.529
38647SOL     OW17837  13.496  10.788  11.244
38647SOL    HW117838  13.464  10.759  11.158
38647SOL    HW217839  13.475  10.715  11.303
38648SOL     OW17840  13.585  11.672   9.568
38648SOL    HW117841  13.601  11.578   9.582
38648SOL    HW217842  13.491  11.681   9.577
38649SOL     OW17843  13.899   0.876   1.383
38649SOL    HW117844  13.942   0.898   1.301
38649SOL    HW217845  13.971   0.864   1.445
38650SOL     OW17846   7.290  14.233  12.958
38650SOL    HW117847   7.204  14.240  12.918
38650SOL    HW217848   7.329  14.155  12.919
38651SOL     OW17849   8.715  14.242   1.354
38651SOL    HW117850   8.635  14.283   1.320
38651SOL    HW217851   8.690  14.205   1.438
38652SOL     OW17852   3.927   7.268  14.087
38652SOL    HW117853   3.845   7.314  14.107
38652SOL    HW217854   3.901   7.176  14.081
38653SOL     OW17855  14.605   7.362   4.986
38653SOL    HW117856  14.688   7.314   4.987
38653SOL    HW217857  14.604   7.410   5.069
38654SOL     OW17858   3.018  13.737  12.218
38654SOL    HW117859   3.023  13.802  12.149
38654SOL    HW217860   3.098  13.685  12.208
38655SOL     OW17861   4.864   3.133   7.332
38655SOL    HW117862   4.924   3.141   7.258
38655SOL    HW217863   4.803   3.064   7.305
38656SOL     OW17864  12.632   1.122   5.966
38656SOL    HW117865  12.661   1.200   5.919
38656SOL    HW217866  12.663   1.049   5.912
38657SOL     OW17867  10.311  12.118  10.070
38657SOL    HW117868  10.298  12.033  10.027
38657SOL    HW217869  10.255  12.116  10.147
38658SOL     OW17870   5.420   6.478  13.653
38658SOL    HW117871   5.376   6.445  13.575
38658SOL    HW217872   5.513   6.463  13.637
38659SOL     OW17873  12.318   2.805   7.223
38659SOL    HW117874  12.354   2.762   7.146
38659SOL    HW217875  12.244   2.857   7.190
38660SOL     OW17876   5.398   6.100   2.762
38660SOL    HW117877   5.379   6.045   2.839
38660SOL    HW217878   5.475   6.150   2.787
38661SOL     OW17879  12.528  10.046   3.933
38661SOL    HW117880  12.550  10.139   3.931
38661SOL    HW217881  12.443  10.041   3.889
38662SOL     OW17882   5.357   3.802   9.942
38662SOL    HW117883   5.382   3.856  10.017
38662SOL    HW217884   5.287   3.852   9.899
38663SOL     OW17885   1.136  11.320   7.482
38663SOL    HW117886   1.160  11.398   7.532
38663SOL    HW217887   1.216  11.269   7.479
38664SOL     OW17888   3.973  13.026   1.751
38664SOL    HW117889   4.015  13.055   1.670
38664SOL    HW217890   3.880  13.028   1.731
38665SOL     OW17891   2.397   4.555   3.794
38665SOL    HW117892   2.492   4.544   3.794
38665SOL    HW217893   2.366   4.497   3.863
38666SOL     OW17894  13.768   3.938   2.749
38666SOL    HW117895  13.821   3.862   2.772
38666SOL    HW217896  13.808   4.010   2.798
38667SOL     OW17897  10.539   7.935   0.672
38667SOL    HW117898  10.447   7.944   0.647
38667SOL    HW217899  10.587   7.979   0.602
38668SOL     OW17900  10.690  13.803  11.004
38668SOL    HW117901  10.635  13.724  11.004
38668SOL    HW217902  10.761  13.782  10.943
38669SOL     OW17903   1.134   4.618   8.624
38669SOL    HW117904   1.077   4.569   8.564
38669SOL    HW217905   1.180   4.681   8.567
38670SOL     OW17906   4.949   2.252  11.479
38670SOL    HW117907   4.921   2.249  11.570
38670SOL    HW217908   4.968   2.345  11.463
38671SOL     OW17909  14.835   3.729   3.449
38671SOL    HW117910  14.810   3.721   3.541
38671SOL    HW217911  14.825   3.641   3.414
38672SOL     OW17912  13.770   7.503   6.986
38672SOL    HW117913  13.771   7.471   7.076
38672SOL    HW217914  13.746   7.427   6.934
38673SOL     OW17915   0.911  13.866   0.786
38673SOL    HW117916   0.939  13.857   0.694
38673SOL    HW217917   0.974  13.927   0.824
38674SOL     OW17918   4.005   4.448   6.936
38674SOL    HW117919   3.939   4.417   6.998
38674SOL    HW217920   3.957   4.504   6.875
38675SOL     OW17921   4.403   6.594   6.545
38675SOL    HW117922   4.439   6.510   6.576
38675SOL    HW217923   4.361   6.573   6.462
38676SOL     OW17924   3.936   3.716  10.023
38676SOL    HW117925   3.955   3.622  10.029
38676SOL    HW217926   4.022   3.757  10.016
38677SOL     OW17927  13.259   5.972   7.321
38677SOL    HW117928  13.239   5.968   7.414
38677SOL    HW217929  13.241   6.062   7.295
38678SOL     OW17930  11.633   0.145  12.432
38678SOL    HW117931  11.643   0.173  12.341
38678SOL    HW217932  11.637   0.226  12.483
38679SOL     OW17933   6.675   6.985   8.661
38679SOL    HW117934   6.591   6.981   8.705
38679SOL    HW217935   6.691   7.079   8.648
38680SOL     OW17936   5.412  14.008  12.308
38680SOL    HW117937   5.425  13.995  12.402
38680SOL    HW217938   5.402  13.920  12.273
38681SOL     OW17939  10.178   8.682   3.743
38681SOL    HW117940  10.268   8.665   3.716
38681SOL    HW217941  10.159   8.770   3.711
38682SOL     OW17942  12.941  14.696   3.209
38682SOL    HW117943  13.011  14.755   3.179
38682SOL    HW217944  12.929  14.718   3.301
38683SOL     OW17945   2.739   4.973   3.215
38683SOL    HW117946   2.710   4.993   3.303
38683SOL    HW217947   2.670   4.917   3.179
38684SOL     OW17948  11.559   4.936   6.678
38684SOL    HW117949  11.653   4.927   6.661
38684SOL    HW217950  11.553   5.001   6.747
38685SOL     OW17951   1.382   3.607   5.571
38685SOL    HW117952   1.427   3.691   5.577
38685SOL    HW217953   1.439   3.546   5.618
38686SOL     OW17954  10.568   2.107   3.397
38686SOL    HW117955  10.557   2.100   3.303
38686SOL    HW217956  10.498   2.167   3.425
38687SOL     OW17957  11.041  11.539   6.421
38687SOL    HW117958  10.988  11.512   6.496
38687SOL    HW217959  10.984  11.528   6.345
38688SOL     OW17960  12.243   0.695  14.798
38688SOL    HW117961  12.250   0.712   0.024
38688SOL    HW217962  12.256   0.781  14.757
38689SOL     OW17963   9.533   9.708  11.637
38689SOL    HW117964   9.570   9.786  11.679
38689SOL    HW217965   9.493   9.741  11.556
38690SOL     OW17966   9.316   5.301  10.328
38690SOL    HW117967   9.311   5.206  10.315
38690SOL    HW217968   9.266   5.338  10.256
38691SOL     OW17969   6.120   7.823  11.191
38691SOL    HW117970   6.112   7.853  11.100
38691SOL    HW217971   6.199   7.769  11.191
38692SOL     OW17972   6.907   4.522   6.306
38692SOL    HW117973   6.929   4.590   6.242
38692SOL    HW217974   6.990   4.477   6.321
38693SOL     OW17975   6.084   6.716  11.832
38693SOL    HW117976   6.086   6.636  11.886
38693SOL    HW217977   6.047   6.782  11.889
38694SOL     OW17978   7.618   6.800   8.746
38694SOL    HW117979   7.550   6.771   8.807
38694SOL    HW217980   7.573   6.807   8.661
38695SOL     OW17981   7.237   0.425  14.016
38695SOL    HW117982   7.233   0.330  14.005
38695SOL    HW217983   7.166   0.459  13.961
38696SOL     OW17984   9.685   0.329   6.520
38696SOL    HW117985   9.736   0.269   6.573
38696SOL    HW217986   9.706   0.416   6.554
38697SOL     OW17987   6.121  11.881   2.664
38697SOL    HW117988   6.164  11.798   2.641
38697SOL    HW217989   6.027  11.861   2.659
38698SOL     OW17990  10.792   3.475   6.603
38698SOL    HW117991  10.705   3.492   6.641
38698SOL    HW217992  10.839   3.427   6.670
38699SOL     OW17993   1.727   9.208  10.553
38699SOL    HW117994   1.731   9.300  10.524
38699SOL    HW217995   1.769   9.208  10.639
38700SOL     OW17996   7.249   7.427   6.743
38700SOL    HW117997   7.273   7.444   6.835
38700SOL    HW217998   7.253   7.513   6.701
38701SOL     OW17999   8.512   9.034   1.467
38701SOL    HW118000   8.539   9.100   1.403
38701SOL    HW218001   8.426   9.063   1.496
38702SOL     OW18002  12.488   9.293  14.568
38702SOL    HW118003  12.574   9.334  14.565
38702SOL    HW218004  12.478   9.265  14.659
38703SOL     OW18005   9.284  11.625   2.889
38703SOL    HW118006   9.230  11.651   2.815
38703SOL    HW218007   9.369  11.668   2.873
38704SOL     OW18008  14.377  11.569  13.631
38704SOL    HW118009  14.419  11.489  13.601
38704SOL    HW218010  14.448  11.620  13.670
38705SOL     OW18011   1.760  12.526  13.193
38705SOL    HW118012   1.784  12.440  13.160
38705SOL    HW218013   1.685  12.510  13.250
38706SOL     OW18014   3.504   6.263   7.197
38706SOL    HW118015   3.572   6.330   7.200
38706SOL    HW218016   3.531   6.203   7.127
38707SOL     OW18017  12.919  13.217   3.986
38707SOL    HW118018  12.912  13.245   4.078
38707SOL    HW218019  12.841  13.251   3.944
38708SOL     OW18020  11.024   4.831   1.006
38708SOL    HW118021  10.999   4.911   1.052
38708SOL    HW218022  10.983   4.761   1.057
38709SOL     OW18023  14.471   6.162   6.358
38709SOL    HW118024  14.531   6.213   6.413
38709SOL    HW218025  14.517   6.151   6.276
38710SOL     OW18026  12.869  11.849  12.685
38710SOL    HW118027  12.957  11.865  12.651
38710SOL    HW218028  12.863  11.754  12.695
38711SOL     OW18029  12.820   4.652  14.150
38711SOL    HW118030  12.808   4.557  14.145
38711SOL    HW218031  12.885   4.664  14.219
38712SOL     OW18032   5.083   2.032   4.293
38712SOL    HW118033   5.151   2.028   4.226
38712SOL    HW218034   5.130   2.052   4.374
38713SOL     OW18035   2.981   9.136  14.480
38713SOL    HW118036   3.012   9.174  14.562
38713SOL    HW218037   2.970   9.210  14.421
38714SOL     OW18038   0.894   5.542   4.782
38714SOL    HW118039   0.855   5.464   4.745
38714SOL    HW218040   0.834   5.613   4.759
38715SOL     OW18041   4.303   1.317   2.616
38715SOL    HW118042   4.227   1.363   2.580
38715SOL    HW218043   4.378   1.354   2.569
38716SOL     OW18044   9.863   8.643  11.808
38716SOL    HW118045   9.818   8.560  11.816
38716SOL    HW218046   9.848   8.669  11.717
38717SOL     OW18047   8.255   4.613   8.459
38717SOL    HW118048   8.189   4.549   8.485
38717SOL    HW218049   8.339   4.571   8.479
38718SOL     OW18050   4.510   6.772  10.257
38718SOL    HW118051   4.510   6.850  10.203
38718SOL    HW218052   4.539   6.803  10.343
38719SOL     OW18053   5.600  14.809   0.154
38719SOL    HW118054   5.659   0.016   0.144
38719SOL    HW218055   5.576  14.785   0.065
38720SOL     OW18056   7.179  12.358   9.267
38720SOL    HW118057   7.134  12.390   9.189
38720SOL    HW218058   7.108  12.322   9.321
38721SOL     OW18059   7.169   6.132   4.594
38721SOL    HW118060   7.205   6.090   4.516
38721SOL    HW218061   7.086   6.086   4.609
38722SOL     OW18062  10.205   9.043  14.157
38722SOL    HW118063  10.286   9.075  14.198
38722SOL    HW218064  10.234   9.006  14.074
38723SOL     OW18065  13.239  13.903   0.260
38723SOL    HW118066  13.244  13.836   0.328
38723SOL    HW218067  13.146  13.905   0.235
38724SOL     OW18068   9.272   7.108   9.162
38724SOL    HW118069   9.207   7.129   9.094
38724SOL    HW218070   9.258   7.015   9.181
38725SOL     OW18071   3.193   7.284   4.535
38725SOL    HW118072   3.173   7.204   4.584
38725SOL    HW218073   3.279   7.311   4.567
38726SOL     OW18074  10.244   3.664   7.177
38726SOL    HW118075  10.247   3.646   7.083
38726SOL    HW218076  10.237   3.577   7.217
38727SOL     OW18077   6.394   9.135   0.255
38727SOL    HW118078   6.390   9.224   0.220
38727SOL    HW218079   6.308   9.120   0.294
38728SOL     OW18080  13.929   1.573   3.878
38728SOL    HW118081  13.954   1.481   3.889
38728SOL    HW218082  14.006   1.615   3.841
38729SOL     OW18083  11.681   7.999  14.674
38729SOL    HW118084  11.691   7.970  14.764
38729SOL    HW218085  11.698   7.920  14.622
38730SOL     OW18086   5.986   8.191  13.646
38730SOL    HW118087   5.980   8.146  13.562
38730SOL    HW218088   5.946   8.131  13.708
38731SOL     OW18089  13.879  14.763   1.009
38731SOL    HW118090  13.881  14.791   1.101
38731SOL    HW218091  13.955  14.805   0.969
38732SOL     OW18092   0.950   5.894  11.298
38732SOL    HW118093   0.898   5.942  11.234
38732SOL    HW218094   0.894   5.822  11.325
38733SOL     OW18095   6.074   9.018  10.586
38733SOL    HW118096   6.006   8.980  10.530
38733SOL    HW218097   6.132   9.064  10.525
38734SOL     OW18098   6.365   4.292   5.957
38734SOL    HW118099   6.294   4.228   5.946
38734SOL    HW218100   6.394   4.311   5.868
38735SOL     OW18101   0.609   5.583   8.661
38735SOL    HW118102   0.636   5.674   8.649
38735SOL    HW218103   0.674   5.532   8.613
38736SOL     OW18104   9.140   9.473   2.454
38736SOL    HW118105   9.131   9.378   2.463
38736SOL    HW218106   9.226   9.492   2.491
38737SOL     OW18107   1.283   7.601  12.669
38737SOL    HW118108   1.248   7.512  12.671
38737SOL    HW218109   1.313   7.617  12.758
38738SOL     OW18110   1.332   5.308  13.306
38738SOL    HW118111   1.294   5.253  13.237
38738SOL    HW218112   1.399   5.254  13.346
38739SOL     OW18113  10.359   5.791  14.728
38739SOL    HW118114  10.441   5.742  14.728
38739SOL    HW218115  10.351   5.825  14.639
38740SOL     OW18116   3.951  13.430   5.823
38740SOL    HW118117   3.883  13.363   5.834
38740SOL    HW218118   4.026  13.396   5.873
38741SOL     OW18119   7.491   0.417  11.447
38741SOL    HW118120   7.400   0.439  11.428
38741SOL    HW218121   7.515   0.354  11.379
38742SOL     OW18122  13.098  10.552   3.953
38742SOL    HW118123  13.191  10.553   3.973
38742SOL    HW218124  13.086  10.474   3.898
38743SOL     OW18125   3.864  12.223  11.496
38743SOL    HW118126   3.828  12.248  11.582
38743SOL    HW218127   3.812  12.147  11.470
38744SOL     OW18128   3.889  14.308  11.163
38744SOL    HW118129   3.848  14.334  11.081
38744SOL    HW218130   3.849  14.366  11.229
38745SOL     OW18131   2.420   0.647   1.399
38745SOL    HW118132   2.466   0.708   1.457
38745SOL    HW218133   2.489   0.594   1.360
38746SOL     OW18134   5.353   9.475   4.678
38746SOL    HW118135   5.343   9.398   4.623
38746SOL    HW218136   5.268   9.484   4.722
38747SOL     OW18137   7.415   1.105   7.126
38747SOL    HW118138   7.390   1.197   7.118
38747SOL    HW218139   7.407   1.070   7.038
38748SOL     OW18140   2.337  13.583   2.201
38748SOL    HW118141   2.421  13.595   2.156
38748SOL    HW218142   2.305  13.498   2.170
38749SOL     OW18143  13.551  11.963   8.415
38749SOL    HW118144  13.565  11.941   8.507
38749SOL    HW218145  13.495  11.893   8.381
38750SOL     OW18146   5.751   3.148  11.990
38750SOL    HW118147   5.798   3.081  12.040
38750SOL    HW218148   5.674   3.168  12.043
38751SOL     OW18149   7.046  10.174  10.415
38751SOL    HW118150   7.052  10.090  10.460
38751SOL    HW218151   6.998  10.155  10.334
38752SOL     OW18152  13.187   5.798  12.114
38752SOL    HW118153  13.241   5.850  12.056
38752SOL    HW218154  13.098   5.806  12.078
38753SOL     OW18155   5.785   1.825  10.082
38753SOL    HW118156   5.838   1.803  10.005
38753SOL    HW218157   5.745   1.743  10.108
38754SOL     OW18158   4.299   4.791  14.805
38754SOL    HW118159   4.236   4.796  14.733
38754SOL    HW218160   4.370   4.736  14.772
38755SOL     OW18161   8.917   4.586   3.004
38755SOL    HW118162   8.981   4.555   2.940
38755SOL    HW218163   8.872   4.658   2.960
38756SOL     OW18164  13.093   6.891   0.375
38756SOL    HW118165  13.045   6.877   0.457
38756SOL    HW218166  13.119   6.803   0.347
38757SOL     OW18167   6.947   6.264  11.055
38757SOL    HW118168   7.035   6.256  11.019
38757SOL    HW218169   6.904   6.182  11.032
38758SOL     OW18170   3.566   7.895  14.268
38758SOL    HW118171   3.590   7.914  14.358
38758SOL    HW218172   3.470   7.899  14.267
38759SOL     OW18173  14.003  13.753   0.511
38759SOL    HW118174  13.955  13.772   0.431
38759SOL    HW218175  14.089  13.722   0.482
38760SOL     OW18176  13.618  11.002   1.712
38760SOL    HW118177  13.549  11.002   1.779
38760SOL    HW218178  13.570  10.997   1.629
38761SOL     OW18179   3.054   9.658   1.652
38761SOL    HW118180   3.020   9.651   1.564
38761SOL    HW218181   3.038   9.749   1.678
38762SOL     OW18182   5.420   2.009   6.653
38762SOL    HW118183   5.472   1.981   6.728
38762SOL    HW218184   5.432   2.104   6.650
38763SOL     OW18185  11.272   0.645   1.757
38763SOL    HW118186  11.230   0.612   1.678
38763SOL    HW218187  11.360   0.605   1.756
38764SOL     OW18188   5.482  10.013  14.380
38764SOL    HW118189   5.469   9.985  14.470
38764SOL    HW218190   5.483  10.109  14.384
38765SOL     OW18191   6.851  13.865   5.935
38765SOL    HW118192   6.856  13.878   6.030
38765SOL    HW218193   6.913  13.928   5.899
38766SOL     OW18194  12.397   9.084   2.263
38766SOL    HW118195  12.337   9.118   2.197
38766SOL    HW218196  12.483   9.087   2.221
38767SOL     OW18197  12.402  13.795   9.656
38767SOL    HW118198  12.464  13.801   9.729
38767SOL    HW218199  12.317  13.819   9.693
38768SOL     OW18200   4.102   4.212   2.802
38768SOL    HW118201   4.010   4.228   2.824
38768SOL    HW218202   4.116   4.264   2.723
38769SOL     OW18203  12.282   9.591  13.246
38769SOL    HW118204  12.234   9.537  13.182
38769SOL    HW218205  12.370   9.598  13.210
38770SOL     OW18206  13.572   1.040   8.602
38770SOL    HW118207  13.558   0.946   8.589
38770SOL    HW218208  13.610   1.046   8.690
38771SOL     OW18209   0.184   7.471  12.543
38771SOL    HW118210   0.215   7.546  12.593
38771SOL    HW218211   0.233   7.474  12.461
38772SOL     OW18212  14.250   0.680   1.530
38772SOL    HW118213  14.279   0.665   1.440
38772SOL    HW218214  14.277   0.770   1.549
38773SOL     OW18215  11.988   3.328   9.094
38773SOL    HW118216  12.008   3.410   9.048
38773SOL    HW218217  11.893   3.322   9.091
38774SOL     OW18218   9.314   8.382   9.941
38774SOL    HW118219   9.267   8.441   9.882
38774SOL    HW218220   9.249   8.316   9.966
38775SOL     OW18221   9.067  10.166  14.218
38775SOL    HW118222   9.128  10.168  14.292
38775SOL    HW218223   9.124  10.172  14.141
38776SOL     OW18224   6.103   2.015   4.823
38776SOL    HW118225   6.038   2.014   4.752
38776SOL    HW218226   6.177   1.965   4.789
38777SOL     OW18227   8.507   5.497   4.976
38777SOL    HW118228   8.467   5.564   4.920
38777SOL    HW218229   8.595   5.484   4.939
38778SOL     OW18230   8.793   2.898  12.278
38778SOL    HW118231   8.832   2.849  12.205
38778SOL    HW218232   8.808   2.990  12.256
38779SOL     OW18233   2.348  10.414  14.132
38779SOL    HW118234   2.398  10.426  14.212
38779SOL    HW218235   2.379  10.330  14.096
38780SOL     OW18236   5.908   5.077   4.582
38780SOL    HW118237   5.925   5.171   4.580
38780SOL    HW218238   5.814   5.070   4.598
38781SOL     OW18239   2.832   2.475   1.934
38781SOL    HW118240   2.779   2.526   1.995
38781SOL    HW218241   2.891   2.425   1.990
38782SOL     OW18242  11.456  13.572   5.483
38782SOL    HW118243  11.444  13.612   5.396
38782SOL    HW218244  11.370  13.582   5.524
38783SOL     OW18245   7.925   4.230   6.974
38783SOL    HW118246   7.868   4.305   6.991
38783SOL    HW218247   7.902   4.201   6.886
38784SOL     OW18248   6.000   2.743  11.492
38784SOL    HW118249   6.003   2.832  11.526
38784SOL    HW218250   6.009   2.688  11.570
38785SOL     OW18251   5.242  14.429  12.940
38785SOL    HW118252   5.334  14.453  12.949
38785SOL    HW218253   5.231  14.357  13.002
38786SOL     OW18254   2.987  10.488  13.023
38786SOL    HW118255   2.927  10.554  12.988
38786SOL    HW218256   3.074  10.527  13.012
38787SOL     OW18257   6.839   6.405   3.707
38787SOL    HW118258   6.779   6.363   3.645
38787SOL    HW218259   6.790   6.411   3.788
38788SOL     OW18260   5.046   6.145   5.721
38788SOL    HW118261   4.980   6.141   5.651
38788SOL    HW218262   5.061   6.238   5.734
38789SOL     OW18263   1.903   4.890   5.349
38789SOL    HW118264   1.818   4.889   5.305
38789SOL    HW218265   1.926   4.983   5.355
38790SOL     OW18266   2.255   8.575  11.439
38790SOL    HW118267   2.284   8.634  11.369
38790SOL    HW218268   2.197   8.629  11.493
38791SOL     OW18269  13.119  12.630  12.958
38791SOL    HW118270  13.154  12.652  13.044
38791SOL    HW218271  13.026  12.613  12.973
38792SOL     OW18272  10.625   8.673   2.264
38792SOL    HW118273  10.564   8.730   2.218
38792SOL    HW218274  10.574   8.595   2.285
38793SOL     OW18275   3.006   6.434  13.181
38793SOL    HW118276   2.917   6.402  13.168
38793SOL    HW218277   2.998   6.530  13.174
38794SOL     OW18278  14.030   3.873  13.382
38794SOL    HW118279  14.022   3.862  13.287
38794SOL    HW218280  13.999   3.790  13.418
38795SOL     OW18281   5.303   6.641   8.747
38795SOL    HW118282   5.356   6.690   8.810
38795SOL    HW218283   5.361   6.625   8.673
38796SOL     OW18284   7.455  11.885   7.290
38796SOL    HW118285   7.507  11.806   7.274
38796SOL    HW218286   7.518  11.949   7.324
38797SOL     OW18287   3.450   0.896   6.178
38797SOL    HW118288   3.440   0.805   6.148
38797SOL    HW218289   3.516   0.933   6.120
38798SOL     OW18290   9.142   0.695   9.756
38798SOL    HW118291   9.071   0.692   9.820
38798SOL    HW218292   9.140   0.785   9.723
38799SOL     OW18293  13.695   5.657   7.694
38799SOL    HW118294  13.613   5.667   7.743
38799SOL    HW218295  13.731   5.746   7.689
38800SOL     OW18296  14.730  13.444  10.519
38800SOL    HW118297  14.811  13.403  10.549
38800SOL    HW218298  14.696  13.490  10.597
38801SOL     OW18299  11.952   7.876  12.066
38801SOL    HW118300  11.859   7.859  12.081
38801SOL    HW218301  11.987   7.893  12.153
38802SOL     OW18302  11.758   6.061  12.513
38802SOL    HW118303  11.690   6.120  12.481
38802SOL    HW218304  11.829   6.119  12.542
38803SOL     OW18305  10.842  11.750   7.999
38803SOL    HW118306  10.754  11.760   8.037
38803SOL    HW218307  10.864  11.658   8.013
38804SOL     OW18308   2.865  13.393   8.559
38804SOL    HW118309   2.872  13.298   8.561
38804SOL    HW218310   2.882  13.416   8.467
38805SOL     OW18311   3.359   0.754   9.533
38805SOL    HW118312   3.347   0.779   9.625
38805SOL    HW218313   3.340   0.834   9.484
38806SOL     OW18314   2.392  12.584  14.364
38806SOL    HW118315   2.474  12.630  14.347
38806SOL    HW218316   2.329  12.653  14.385
38807SOL     OW18317  11.213   3.319   1.675
38807SOL    HW118318  11.124   3.303   1.705
38807SOL    HW218319  11.211   3.407   1.638
38808SOL     OW18320  14.764  12.887   1.885
38808SOL    HW118321  14.713  12.870   1.964
38808SOL    HW218322  14.791  12.800   1.855
38809SOL     OW18323   9.730   7.837  11.972
38809SOL    HW118324   9.731   7.863  11.879
38809SOL    HW218325   9.640   7.807  11.987
38810SOL     OW18326  12.883  12.539  11.021
38810SOL    HW118327  12.794  12.507  11.009
38810SOL    HW218328  12.900  12.531  11.115
38811SOL     OW18329  11.407  11.676  12.518
38811SOL    HW118330  11.374  11.759  12.484
38811SOL    HW218331  11.331  11.618  12.518
38812SOL     OW18332  14.457   6.501   7.270
38812SOL    HW118333  14.520   6.505   7.342
38812SOL    HW218334  14.480   6.422   7.222
38813SOL     OW18335  10.071   9.437   4.948
38813SOL    HW118336  10.096   9.487   5.025
38813SOL    HW218337  10.120   9.476   4.876
38814SOL     OW18338   5.835  11.326  11.952
38814SOL    HW118339   5.766  11.365  12.004
38814SOL    HW218340   5.796  11.312  11.866
38815SOL     OW18341  13.011  10.632   1.903
38815SOL    HW118342  13.057  10.715   1.914
38815SOL    HW218343  12.964  10.620   1.985
38816SOL     OW18344   7.209  12.033   1.761
38816SOL    HW118345   7.268  11.960   1.778
38816SOL    HW218346   7.260  12.111   1.783
38817SOL     OW18347   5.381   4.751   8.826
38817SOL    HW118348   5.382   4.832   8.775
38817SOL    HW218349   5.459   4.704   8.796
38818SOL     OW18350  13.033   2.701   8.658
38818SOL    HW118351  13.028   2.707   8.753
38818SOL    HW218352  13.042   2.792   8.629
38819SOL     OW18353   9.851   1.921  13.006
38819SOL    HW118354   9.863   1.833  13.040
38819SOL    HW218355   9.823   1.973  13.081
38820SOL     OW18356  13.263   0.030   1.651
38820SOL    HW118357  13.201   0.010   1.581
38820SOL    HW218358  13.303   0.113   1.624
38821SOL     OW18359   3.474  14.501  12.262
38821SOL    HW118360   3.521  14.585  12.268
38821SOL    HW218361   3.384  14.526  12.241
38822SOL     OW18362   8.280   7.718   9.034
38822SOL    HW118363   8.346   7.653   9.057
38822SOL    HW218364   8.197   7.677   9.059
38823SOL     OW18365   1.554   7.580   3.601
38823SOL    HW118366   1.633   7.529   3.621
38823SOL    HW218367   1.539   7.565   3.508
38824SOL     OW18368   9.452  10.101   9.756
38824SOL    HW118369   9.529  10.125   9.705
38824SOL    HW218370   9.379  10.140   9.709
38825SOL     OW18371   4.477  10.077   9.077
38825SOL    HW118372   4.551  10.022   9.051
38825SOL    HW218373   4.425  10.021   9.134
38826SOL     OW18374   2.278   1.015  11.353
38826SOL    HW118375   2.209   1.057  11.302
38826SOL    HW218376   2.242   0.929  11.377
38827SOL     OW18377   9.248  11.406   4.577
38827SOL    HW118378   9.288  11.322   4.553
38827SOL    HW218379   9.197  11.386   4.655
38828SOL     OW18380   0.674   8.149  13.292
38828SOL    HW118381   0.609   8.217  13.312
38828SOL    HW218382   0.653   8.122  13.202
38829SOL     OW18383   4.371  14.124   5.477
38829SOL    HW118384   4.355  14.109   5.383
38829SOL    HW218385   4.332  14.210   5.493
38830SOL     OW18386   1.111   8.113   8.594
38830SOL    HW118387   1.117   8.023   8.562
38830SOL    HW218388   1.187   8.124   8.650
38831SOL     OW18389   5.398   1.561   4.776
38831SOL    HW118390   5.336   1.488   4.782
38831SOL    HW218391   5.469   1.537   4.835
38832SOL     OW18392   4.009   2.719   3.553
38832SOL    HW118393   4.015   2.625   3.538
38832SOL    HW218394   4.097   2.752   3.535
38833SOL     OW18395  13.542   2.648   7.402
38833SOL    HW118396  13.606   2.650   7.473
38833SOL    HW218397  13.592   2.621   7.325
38834SOL     OW18398  14.158  12.432  11.805
38834SOL    HW118399  14.176  12.359  11.865
38834SOL    HW218400  14.070  12.461  11.828
38835SOL     OW18401  10.570   5.063  12.699
38835SOL    HW118402  10.609   5.140  12.739
38835SOL    HW218403  10.522   5.020  12.770
38836SOL     OW18404   6.343   2.812   2.479
38836SOL    HW118405   6.388   2.896   2.468
38836SOL    HW218406   6.387   2.753   2.418
38837SOL     OW18407  10.510   5.865  12.189
38837SOL    HW118408  10.424   5.825  12.205
38837SOL    HW218409  10.533   5.839  12.100
38838SOL     OW18410   4.760   3.298   1.381
38838SOL    HW118411   4.713   3.217   1.361
38838SOL    HW218412   4.751   3.352   1.303
38839SOL     OW18413   6.781  14.622   1.442
38839SOL    HW118414   6.732  14.668   1.374
38839SOL    HW218415   6.717  14.568   1.487
38840SOL     OW18416  11.264   6.200  13.707
38840SOL    HW118417  11.273   6.295  13.722
38840SOL    HW218418  11.269   6.162  13.795
38841SOL     OW18419   5.859   2.000   8.599
38841SOL    HW118420   5.844   2.092   8.574
38841SOL    HW218421   5.775   1.957   8.581
38842SOL     OW18422   1.412   7.567   8.647
38842SOL    HW118423   1.333   7.621   8.649
38842SOL    HW218424   1.382   7.479   8.625
38843SOL     OW18425   7.376  10.759   0.227
38843SOL    HW118426   7.410  10.706   0.299
38843SOL    HW218427   7.398  10.849   0.251
38844SOL     OW18428   0.508   3.624  12.216
38844SOL    HW118429   0.558   3.548  12.246
38844SOL    HW218430   0.570   3.697  12.219
38845SOL     OW18431   8.573   1.617   3.211
38845SOL    HW118432   8.548   1.530   3.180
38845SOL    HW218433   8.511   1.677   3.169
38846SOL     OW18434   0.486   0.827  13.031
38846SOL    HW118435   0.497   0.734  13.050
38846SOL    HW218436   0.559   0.848  12.972
38847SOL     OW18437   2.614   2.810   8.395
38847SOL    HW118438   2.578   2.899   8.387
38847SOL    HW218439   2.701   2.822   8.433
38848SOL     OW18440   7.499  14.723   0.924
38848SOL    HW118441   7.563  14.703   0.993
38848SOL    HW218442   7.488  14.640   0.877
38849SOL     OW18443   9.118  10.670   3.357
38849SOL    HW118444   9.144  10.609   3.287
38849SOL    HW218445   9.169  10.749   3.340
38850SOL     OW18446   2.931  14.811   1.578
38850SOL    HW118447   3.003  14.862   1.541
38850SOL    HW218448   2.890  14.769   1.502
38851SOL     OW18449   3.382   7.212   3.604
38851SOL    HW118450   3.362   7.214   3.698
38851SOL    HW218451   3.363   7.122   3.577
38852SOL     OW18452   4.235   4.797   6.419
38852SOL    HW118453   4.159   4.739   6.431
38852SOL    HW218454   4.198   4.880   6.391
38853SOL     OW18455  10.577   8.173  10.300
38853SOL    HW118456  10.506   8.109  10.303
38853SOL    HW218457  10.541   8.251  10.343
38854SOL     OW18458  12.164   1.979  12.626
38854SOL    HW118459  12.234   1.924  12.661
38854SOL    HW218460  12.107   1.918  12.579
38855SOL     OW18461  10.521   7.720  10.994
38855SOL    HW118462  10.479   7.639  10.966
38855SOL    HW218463  10.590   7.736  10.929
38856SOL     OW18464  12.706  11.744   2.709
38856SOL    HW118465  12.661  11.798   2.774
38856SOL    HW218466  12.739  11.670   2.759
38857SOL     OW18467   4.572   3.832   4.415
38857SOL    HW118468   4.658   3.825   4.374
38857SOL    HW218469   4.548   3.742   4.436
38858SOL     OW18470  13.546   5.738   9.975
38858SOL    HW118471  13.462   5.757  10.017
38858SOL    HW218472  13.570   5.820   9.932
38859SOL     OW18473   4.012  14.456  12.492
38859SOL    HW118474   3.991  14.442  12.399
38859SOL    HW218475   4.061  14.539  12.493
38860SOL     OW18476   4.010   3.424   2.511
38860SOL    HW118477   4.019   3.519   2.502
38860SOL    HW218478   4.099   3.391   2.505
38861SOL     OW18479   5.049  13.346   7.905
38861SOL    HW118480   5.053  13.273   7.967
38861SOL    HW218481   4.957  13.353   7.881
38862SOL     OW18482  14.185   0.491   7.368
38862SOL    HW118483  14.204   0.533   7.284
38862SOL    HW218484  14.093   0.513   7.386
38863SOL     OW18485  12.888  13.922  12.342
38863SOL    HW118486  12.977  13.893  12.362
38863SOL    HW218487  12.900  14.005  12.295
38864SOL     OW18488   0.622   8.312  12.340
38864SOL    HW118489   0.608   8.239  12.279
38864SOL    HW218490   0.714   8.334  12.331
38865SOL     OW18491  14.715   2.725   7.694
38865SOL    HW118492  14.644   2.786   7.715
38865SOL    HW218493  14.794   2.778   7.694
38866SOL     OW18494   4.920   8.055   2.519
38866SOL    HW118495   4.964   7.975   2.549
38866SOL    HW218496   4.954   8.068   2.430
38867SOL     OW18497   0.500  11.803   5.946
38867SOL    HW118498   0.519  11.784   5.854
38867SOL    HW218499   0.453  11.726   5.977
38868SOL     OW18500   9.831  11.219   8.201
38868SOL    HW118501   9.795  11.306   8.182
38868SOL    HW218502   9.758  11.159   8.183
38869SOL     OW18503  10.875   7.801   7.028
38869SOL    HW118504  10.829   7.722   7.001
38869SOL    HW218505  10.887   7.851   6.948
38870SOL     OW18506   9.646  14.440   4.919
38870SOL    HW118507   9.598  14.379   4.862
38870SOL    HW218508   9.600  14.523   4.908
38871SOL     OW18509   7.830   8.971  13.928
38871SOL    HW118510   7.807   9.008  13.843
38871SOL    HW218511   7.905   8.914  13.911
38872SOL     OW18512   5.016   3.472   3.197
38872SOL    HW118513   5.095   3.478   3.144
38872SOL    HW218514   5.021   3.547   3.257
38873SOL     OW18515  13.486   7.463   3.911
38873SOL    HW118516  13.503   7.546   3.866
38873SOL    HW218517  13.532   7.398   3.858
38874SOL     OW18518   1.574   0.013   5.052
38874SOL    HW118519   1.649   0.068   5.029
38874SOL    HW218520   1.536   0.055   5.129
38875SOL     OW18521   6.309  14.448   9.233
38875SOL    HW118522   6.358  14.529   9.247
38875SOL    HW218523   6.364  14.395   9.176
38876SOL     OW18524   3.207   9.609   7.940
38876SOL    HW118525   3.142   9.555   7.984
38876SOL    HW218526   3.192   9.594   7.847
38877SOL     OW18527   5.732   5.058  12.087
38877SOL    HW118528   5.815   5.019  12.113
38877SOL    HW218529   5.753   5.110  12.009
38878SOL     OW18530   6.222   5.129  10.772
38878SOL    HW118531   6.145   5.117  10.716
38878SOL    HW218532   6.295   5.141  10.711
38879SOL     OW18533   1.654   6.069  10.113
38879SOL    HW118534   1.636   6.073  10.207
38879SOL    HW218535   1.597   6.135  10.075
38880SOL     OW18536   2.382  10.981   6.468
38880SOL    HW118537   2.371  11.033   6.547
38880SOL    HW218538   2.456  11.023   6.422
38881SOL     OW18539  10.701   4.063  11.141
38881SOL    HW118540  10.630   4.003  11.119
38881SOL    HW218541  10.663   4.121  11.208
38882SOL     OW18542  11.627   5.006   4.117
38882SOL    HW118543  11.612   5.080   4.059
38882SOL    HW218544  11.603   5.039   4.204
38883SOL     OW18545   3.863  11.403  12.836
38883SOL    HW118546   3.914  11.361  12.905
38883SOL    HW218547   3.916  11.394  12.757
38884SOL     OW18548   7.484  13.115  14.392
38884SOL    HW118549   7.549  13.171  14.435
38884SOL    HW218550   7.440  13.070  14.464
38885SOL     OW18551  11.627  14.772   7.508
38885SOL    HW118552  11.559  14.747   7.570
38885SOL    HW218553  11.693  14.703   7.516
38886SOL     OW18554   0.806   5.560   2.887
38886SOL    HW118555   0.829   5.475   2.851
38886SOL    HW218556   0.864   5.622   2.842
38887SOL     OW18557   1.539   6.445  11.416
38887SOL    HW118558   1.521   6.392  11.494
38887SOL    HW218559   1.488   6.525  11.431
38888SOL     OW18560   9.884   3.435   0.134
38888SOL    HW118561   9.976   3.427   0.161
38888SOL    HW218562   9.839   3.366   0.184
38889SOL     OW18563   2.089  12.149   3.821
38889SOL    HW118564   2.156  12.121   3.884
38889SOL    HW218565   2.032  12.073   3.812
38890SOL     OW18566   3.695   4.125   3.262
38890SOL    HW118567   3.676   4.116   3.355
38890SOL    HW218568   3.778   4.173   3.259
38891SOL     OW18569   3.671   1.170   8.091
38891SOL    HW118570   3.653   1.079   8.115
38891SOL    HW218571   3.748   1.165   8.034
38892SOL     OW18572   8.807   1.998  14.063
38892SOL    HW118573   8.892   2.041  14.072
38892SOL    HW218574   8.828   1.906  14.049
38893SOL     OW18575  13.832  11.760   7.933
38893SOL    HW118576  13.853  11.695   7.866
38893SOL    HW218577  13.911  11.813   7.941
38894SOL     OW18578   2.764   7.279   0.367
38894SOL    HW118579   2.745   7.354   0.424
38894SOL    HW218580   2.783   7.319   0.282
38895SOL     OW18581   3.685  11.867  13.546
38895SOL    HW118582   3.769  11.849  13.588
38895SOL    HW218583   3.673  11.962  13.555
38896SOL     OW18584  12.662  11.291   2.098
38896SOL    HW118585  12.689  11.201   2.112
38896SOL    HW218586  12.620  11.317   2.180
38897SOL     OW18587   4.665  10.234  13.356
38897SOL    HW118588   4.602  10.273  13.296
38897SOL    HW218589   4.746  10.285  13.341
38898SOL     OW18590   7.960  11.070   6.096
38898SOL    HW118591   8.020  11.090   6.025
38898SOL    HW218592   7.985  11.130   6.167
38899SOL     OW18593   1.570  12.837   3.144
38899SOL    HW118594   1.648  12.893   3.145
38899SOL    HW218595   1.561  12.808   3.235
38900SOL     OW18596  10.454  12.602   8.322
38900SOL    HW118597  10.505  12.665   8.271
38900SOL    HW218598  10.398  12.656   8.378
38901SOL     OW18599   1.374  11.601   0.857
38901SOL    HW118600   1.357  11.694   0.842
38901SOL    HW218601   1.469  11.594   0.853
38902SOL     OW18602   2.988   1.860   3.117
38902SOL    HW118603   3.041   1.800   3.065
38902SOL    HW218604   2.898   1.841   3.092
38903SOL     OW18605   2.532   7.205  13.239
38903SOL    HW118606   2.487   7.128  13.273
38903SOL    HW218607   2.583   7.238  13.312
38904SOL     OW18608  11.868   5.234   4.901
38904SOL    HW118609  11.853   5.151   4.856
38904SOL    HW218610  11.804   5.294   4.863
38905SOL     OW18611   2.422   9.432   1.914
38905SOL    HW118612   2.350   9.459   1.858
38905SOL    HW218613   2.431   9.503   1.978
38906SOL     OW18614   4.220   1.970   0.242
38906SOL    HW118615   4.174   2.054   0.243
38906SOL    HW218616   4.244   1.954   0.333
38907SOL     OW18617  12.100   6.526   8.737
38907SOL    HW118618  12.035   6.473   8.785
38907SOL    HW218619  12.180   6.517   8.787
38908SOL     OW18620   8.244   3.131   3.025
38908SOL    HW118621   8.313   3.168   3.080
38908SOL    HW218622   8.288   3.111   2.942
38909SOL     OW18623  14.647  10.620   1.129
38909SOL    HW118624  14.590  10.572   1.189
38909SOL    HW218625  14.649  10.709   1.164
38910SOL     OW18626   0.470   6.383  12.057
38910SOL    HW118627   0.420   6.370  12.137
38910SOL    HW218628   0.407   6.419  11.995
38911SOL     OW18629  14.277  14.586   3.870
38911SOL    HW118630  14.268  14.537   3.789
38911SOL    HW218631  14.221  14.663   3.857
38912SOL     OW18632   1.345   6.117  13.251
38912SOL    HW118633   1.390   6.154  13.175
38912SOL    HW218634   1.364   6.178  13.323
38913SOL     OW18635  12.755   6.629   6.812
38913SOL    HW118636  12.736   6.641   6.719
38913SOL    HW218637  12.697   6.692   6.856
38914SOL     OW18638  12.006   1.027  12.903
38914SOL    HW118639  12.037   0.977  12.979
38914SOL    HW218640  11.935   0.973  12.867
38915SOL     OW18641  10.015   9.297   0.107
38915SOL    HW118642  10.043   9.261   0.023
38915SOL    HW218643   9.974   9.224   0.153
38916SOL     OW18644   2.701   4.688   1.420
38916SOL    HW118645   2.745   4.690   1.505
38916SOL    HW218646   2.767   4.717   1.357
38917SOL     OW18647   7.787   7.191  14.303
38917SOL    HW118648   7.780   7.282  14.273
38917SOL    HW218649   7.851   7.194  14.374
38918SOL     OW18650   2.051   9.674   3.133
38918SOL    HW118651   2.109   9.599   3.148
38918SOL    HW218652   2.091   9.746   3.182
38919SOL     OW18653  14.337   2.612   9.500
38919SOL    HW118654  14.421   2.571   9.522
38919SOL    HW218655  14.357   2.671   9.427
38920SOL     OW18656   2.837  13.861  10.000
38920SOL    HW118657   2.827  13.924  10.071
38920SOL    HW218658   2.750  13.825   9.986
38921SOL     OW18659   8.628   0.159   8.782
38921SOL    HW118660   8.573   0.088   8.815
38921SOL    HW218661   8.693   0.173   8.850
38922SOL     OW18662   2.716   7.134   2.237
38922SOL    HW118663   2.800   7.168   2.205
38922SOL    HW218664   2.723   7.136   2.332
38923SOL     OW18665   5.741   9.124   3.584
38923SOL    HW118666   5.686   9.074   3.525
38923SOL    HW218667   5.696   9.120   3.668
38924SOL     OW18668   3.238   7.930   7.028
38924SOL    HW118669   3.272   8.006   6.981
38924SOL    HW218670   3.199   7.966   7.107
38925SOL     OW18671   2.888   8.456  14.436
38925SOL    HW118672   2.893   8.382  14.375
38925SOL    HW218673   2.962   8.443  14.496
38926SOL     OW18674  13.355   0.641   0.504
38926SOL    HW118675  13.392   0.729   0.500
38926SOL    HW218676  13.388   0.605   0.587
38927SOL     OW18677   7.784  10.873   2.364
38927SOL    HW118678   7.756  10.921   2.286
38927SOL    HW218679   7.762  10.931   2.437
38928SOL     OW18680   0.972  11.247   6.097
38928SOL    HW118681   1.051  11.262   6.150
38928SOL    HW218682   0.951  11.333   6.061
38929SOL     OW18683   0.644   1.718  13.286
38929SOL    HW118684   0.721   1.663  13.271
38929SOL    HW218685   0.656   1.751  13.375
38930SOL     OW18686  10.943   5.608   6.791
38930SOL    HW118687  10.882   5.554   6.842
38930SOL    HW218688  10.900   5.621   6.707
38931SOL     OW18689  11.938   9.676  11.101
38931SOL    HW118690  11.861   9.673  11.156
38931SOL    HW218691  11.941   9.766  11.068
38932SOL     OW18692  11.697   9.388   9.166
38932SOL    HW118693  11.664   9.322   9.105
38932SOL    HW218694  11.643   9.465   9.150
38933SOL     OW18695   7.932   3.569   4.407
38933SOL    HW118696   7.889   3.655   4.408
38933SOL    HW218697   8.025   3.590   4.395
38934SOL     OW18698  14.393   2.443   1.646
38934SOL    HW118699  14.453   2.460   1.573
38934SOL    HW218700  14.355   2.358   1.626
38935SOL     OW18701   1.041   8.367   4.485
38935SOL    HW118702   1.049   8.455   4.522
38935SOL    HW218703   0.948   8.347   4.489
38936SOL     OW18704   7.465   6.436   4.051
38936SOL    HW118705   7.520   6.481   3.988
38936SOL    HW218706   7.392   6.403   3.999
38937SOL     OW18707   1.202   1.953   3.927
38937SOL    HW118708   1.135   2.004   3.971
38937SOL    HW218709   1.154   1.881   3.886
38938SOL     OW18710   4.452  12.076   9.601
38938SOL    HW118711   4.368  12.079   9.647
38938SOL    HW218712   4.493  11.995   9.632
38939SOL     OW18713  13.998  11.593   5.217
38939SOL    HW118714  13.986  11.673   5.165
38939SOL    HW218715  14.088  11.565   5.197
38940SOL     OW18716   5.769  14.236   2.881
38940SOL    HW118717   5.747  14.223   2.788
38940SOL    HW218718   5.862  14.217   2.886
38941SOL     OW18719   9.403  11.566  14.468
38941SOL    HW118720   9.339  11.594  14.403
38941SOL    HW218721   9.482  11.547  14.417
38942SOL     OW18722   2.269   9.121   4.445
38942SOL    HW118723   2.306   9.053   4.500
38942SOL    HW218724   2.245   9.191   4.506
38943SOL     OW18725   1.413   4.517  14.045
38943SOL    HW118726   1.499   4.512  14.086
38943SOL    HW218727   1.402   4.433  14.001
38944SOL     OW18728  10.537  12.181  12.307
38944SOL    HW118729  10.453  12.224  12.327
38944SOL    HW218730  10.537  12.103  12.363
38945SOL     OW18731   5.363   7.134   1.967
38945SOL    HW118732   5.373   7.195   1.894
38945SOL    HW218733   5.440   7.150   2.022
38946SOL     OW18734   1.706   2.481   7.994
38946SOL    HW118735   1.620   2.489   8.035
38946SOL    HW218736   1.745   2.568   8.002
38947SOL     OW18737   2.132  11.498   0.654
38947SOL    HW118738   2.146  11.579   0.703
38947SOL    HW218739   2.097  11.528   0.569
38948SOL     OW18740  11.272   0.127  13.332
38948SOL    HW118741  11.210   0.056  13.321
38948SOL    HW218742  11.300   0.149  13.242
38949SOL     OW18743   0.753   1.174   2.965
38949SOL    HW118744   0.771   1.246   2.905
38949SOL    HW218745   0.786   1.096   2.919
38950SOL     OW18746   6.321   5.363  14.054
38950SOL    HW118747   6.346   5.360  14.147
38950SOL    HW218748   6.245   5.305  14.048
38951SOL     OW18749   7.398   9.822   8.059
38951SOL    HW118750   7.382   9.743   8.111
38951SOL    HW218751   7.311   9.858   8.042
38952SOL     OW18752   1.820  10.700   2.946
38952SOL    HW118753   1.875  10.758   2.999
38952SOL    HW218754   1.845  10.719   2.856
38953SOL     OW18755   4.078   4.748   9.670
38953SOL    HW118756   4.173   4.742   9.662
38953SOL    HW218757   4.051   4.663   9.704
38954SOL     OW18758   1.518   0.223   3.952
38954SOL    HW118759   1.459   0.152   3.976
38954SOL    HW218760   1.605   0.192   3.979
38955SOL     OW18761  10.546   0.808  12.638
38955SOL    HW118762  10.490   0.780  12.710
38955SOL    HW218763  10.485   0.838  12.570
38956SOL     OW18764  13.566   5.625   7.999
38956SOL    HW118765  13.560   5.615   8.094
38956SOL    HW218766  13.656   5.597   7.978
38957SOL     OW18767   2.951   6.659   9.952
38957SOL    HW118768   2.885   6.597   9.983
38957SOL    HW218769   2.902   6.738   9.931
38958SOL     OW18770   2.148   8.650   5.756
38958SOL    HW118771   2.178   8.588   5.823
38958SOL    HW218772   2.161   8.736   5.796
38959SOL     OW18773   4.432   6.202  11.843
38959SOL    HW118774   4.414   6.249  11.924
38959SOL    HW218775   4.524   6.220  11.824
38960SOL     OW18776   8.375  12.512   7.781
38960SOL    HW118777   8.407  12.472   7.862
38960SOL    HW218778   8.280  12.516   7.791
38961SOL     OW18779   9.597  14.845   9.161
38961SOL    HW118780   9.643   0.059   9.178
38961SOL    HW218781   9.608  14.830   9.067
38962SOL     OW18782   4.247   1.319   3.144
38962SOL    HW118783   4.318   1.369   3.184
38962SOL    HW218784   4.288   1.272   3.072
38963SOL     OW18785  12.292   8.752  10.137
38963SOL    HW118786  12.269   8.753  10.230
38963SOL    HW218787  12.299   8.845  10.114
38964SOL     OW18788   3.066  10.004   2.242
38964SOL    HW118789   3.092   9.940   2.176
38964SOL    HW218790   3.129  10.076   2.231
38965SOL     OW18791   6.614   7.761   0.793
38965SOL    HW118792   6.585   7.852   0.790
38965SOL    HW218793   6.582   7.722   0.712
38966SOL     OW18794   3.233   1.503   8.695
38966SOL    HW118795   3.179   1.581   8.684
38966SOL    HW218796   3.271   1.487   8.609
38967SOL     OW18797   5.950  10.023   6.227
38967SOL    HW118798   5.959  10.021   6.322
38967SOL    HW218799   5.856  10.010   6.211
38968SOL     OW18800  12.955  12.230  11.317
38968SOL    HW118801  13.025  12.265  11.373
38968SOL    HW218802  12.961  12.281  11.236
38969SOL     OW18803   5.126  10.086   5.689
38969SOL    HW118804   5.141  10.108   5.597
38969SOL    HW218805   5.065  10.012   5.686
38970SOL     OW18806   1.302   8.227   5.488
38970SOL    HW118807   1.244   8.278   5.432
38970SOL    HW218808   1.369   8.193   5.429
38971SOL     OW18809  11.767   5.087   2.694
38971SOL    HW118810  11.843   5.125   2.737
38971SOL    HW218811  11.701   5.081   2.764
38972SOL     OW18812   4.503   1.731   3.900
38972SOL    HW118813   4.537   1.792   3.965
38972SOL    HW218814   4.450   1.669   3.951
38973SOL     OW18815   8.561   4.546   5.178
38973SOL    HW118816   8.639   4.575   5.226
38973SOL    HW218817   8.551   4.454   5.204
38974SOL     OW18818   6.369   1.369  10.272
38974SOL    HW118819   6.436   1.304  10.291
38974SOL    HW218820   6.346   1.353  10.180
38975SOL     OW18821   0.969  10.982  12.376
38975SOL    HW118822   0.942  11.008  12.464
38975SOL    HW218823   1.017  10.901  12.388
38976SOL     OW18824   4.776   9.818   9.645
38976SOL    HW118825   4.694   9.782   9.679
38976SOL    HW218826   4.837   9.744   9.645
38977SOL     OW18827  14.609  13.558   9.262
38977SOL    HW118828  14.654  13.490   9.312
38977SOL    HW218829  14.563  13.610   9.329
38978SOL     OW18830   8.362  13.189   6.316
38978SOL    HW118831   8.333  13.194   6.225
38978SOL    HW218832   8.283  13.210   6.367
38979SOL     OW18833   7.201  11.345   4.714
38979SOL    HW118834   7.138  11.279   4.745
38979SOL    HW218835   7.226  11.314   4.627
38980SOL     OW18836  10.095  13.096   8.715
38980SOL    HW118837  10.106  13.056   8.802
38980SOL    HW218838  10.015  13.147   8.722
38981SOL     OW18839   3.957  13.203   4.530
38981SOL    HW118840   4.005  13.123   4.549
38981SOL    HW218841   3.883  13.202   4.592
38982SOL     OW18842   9.940   8.852   1.401
38982SOL    HW118843  10.015   8.856   1.460
38982SOL    HW218844   9.869   8.893   1.450
38983SOL     OW18845   9.182   6.428  12.574
38983SOL    HW118846   9.194   6.336  12.595
38983SOL    HW218847   9.250   6.447  12.509
38984SOL     OW18848  11.317  11.907  12.405
38984SOL    HW118849  11.287  11.877  12.320
38984SOL    HW218850  11.240  11.949  12.445
38985SOL     OW18851   0.283   0.694   5.339
38985SOL    HW118852   0.365   0.651   5.365
38985SOL    HW218853   0.263   0.656   5.253
38986SOL     OW18854   0.488   5.772  13.224
38986SOL    HW118855   0.467   5.682  13.200
38986SOL    HW218856   0.507   5.815  13.141
38987SOL     OW18857   2.385   4.241  13.603
38987SOL    HW118858   2.405   4.220  13.694
38987SOL    HW218859   2.302   4.289  13.608
38988SOL     OW18860  10.192  12.978   5.415
38988SOL    HW118861  10.102  13.008   5.416
38988SOL    HW218862  10.227  13.000   5.501
38989SOL     OW18863  11.460   5.710   8.595
38989SOL    HW118864  11.522   5.651   8.552
38989SOL    HW218865  11.428   5.766   8.524
38990SOL     OW18866   1.184  11.954   9.285
38990SOL    HW118867   1.166  11.876   9.232
38990SOL    HW218868   1.262  11.931   9.335
38991SOL     OW18869   8.257  13.513  10.607
38991SOL    HW118870   8.338  13.565  10.601
38991SOL    HW218871   8.207  13.538  10.530
38992SOL     OW18872   5.883   5.489   0.709
38992SOL    HW118873   5.919   5.474   0.796
38992SOL    HW218874   5.932   5.430   0.652
38993SOL     OW18875  10.985   5.001   7.413
38993SOL    HW118876  10.959   5.061   7.484
38993SOL    HW218877  11.075   5.027   7.393
38994SOL     OW18878  10.853  13.854   4.163
38994SOL    HW118879  10.821  13.822   4.247
38994SOL    HW218880  10.838  13.781   4.102
38995SOL     OW18881  13.027  13.263  12.865
38995SOL    HW118882  12.955  13.255  12.927
38995SOL    HW218883  13.037  13.357  12.851
38996SOL     OW18884  13.078   7.250  13.495
38996SOL    HW118885  13.076   7.185  13.565
38996SOL    HW218886  13.117   7.328  13.535
38997SOL     OW18887  10.224   6.065   2.853
38997SOL    HW118888  10.212   6.159   2.847
38997SOL    HW218889  10.136   6.031   2.871
38998SOL     OW18890  12.353  11.334   4.073
38998SOL    HW118891  12.289  11.386   4.023
38998SOL    HW218892  12.422  11.314   4.009
38999SOL     OW18893   0.521  12.284   8.257
38999SOL    HW118894   0.523  12.379   8.263
38999SOL    HW218895   0.606  12.255   8.289
39000SOL     OW18896   2.722   3.740   7.092
39000SOL    HW118897   2.757   3.820   7.131
39000SOL    HW218898   2.695   3.766   7.004
39001SOL     OW18899   7.332   0.066  11.449
39001SOL    HW118900   7.421   0.075  11.413
39001SOL    HW218901   7.325  14.842  11.473
39002SOL     OW18902  12.241   0.905   0.403
39002SOL    HW118903  12.172   0.943   0.458
39002SOL    HW218904  12.308   0.878   0.466
39003SOL     OW18905   4.279   2.065   2.312
39003SOL    HW118906   4.237   2.124   2.374
39003SOL    HW218907   4.235   2.081   2.229
39004SOL     OW18908   8.702  13.796   9.339
39004SOL    HW118909   8.669  13.836   9.419
39004SOL    HW218910   8.703  13.867   9.275
39005SOL     OW18911   9.425  14.632  10.107
39005SOL    HW118912   9.351  14.667  10.157
39005SOL    HW218913   9.496  14.626  10.171
39006SOL     OW18914   0.573   1.672  13.022
39006SOL    HW118915   0.570   1.696  13.115
39006SOL    HW218916   0.650   1.719  12.988
39007SOL     OW18917   5.461   6.138   3.226
39007SOL    HW118918   5.411   6.167   3.150
39007SOL    HW218919   5.441   6.045   3.234
39008SOL     OW18920   8.713   6.406   9.786
39008SOL    HW118921   8.703   6.315   9.759
39008SOL    HW218922   8.626   6.444   9.778
39009SOL     OW18923   8.218   2.144  12.937
39009SOL    HW118924   8.171   2.221  12.905
39009SOL    HW218925   8.302   2.177  12.967
39010SOL     OW18926   1.056   7.947   0.933
39010SOL    HW118927   1.081   8.038   0.941
39010SOL    HW218928   1.122   7.899   0.983
39011SOL     OW18929  13.621   6.638   9.174
39011SOL    HW118930  13.541   6.648   9.123
39011SOL    HW218931  13.605   6.690   9.253
39012SOL     OW18932  13.775   3.361  14.777
39012SOL    HW118933  13.723   3.409  14.841
39012SOL    HW218934  13.831   3.427  14.736
39013SOL     OW18935  12.267  14.381   6.323
39013SOL    HW118936  12.314  14.314   6.273
39013SOL    HW218937  12.306  14.376   6.410
39014SOL     OW18938   5.045  11.878   6.262
39014SOL    HW118939   4.976  11.858   6.325
39014SOL    HW218940   5.007  11.944   6.204
39015SOL     OW18941  11.899   3.905  10.448
39015SOL    HW118942  11.807   3.890  10.427
39015SOL    HW218943  11.940   3.819  10.440
39016SOL     OW18944  10.306  13.896   9.828
39016SOL    HW118945  10.379  13.848   9.866
39016SOL    HW218946  10.316  13.884   9.733
39017SOL     OW18947   7.341  12.413  11.387
39017SOL    HW118948   7.308  12.474  11.321
39017SOL    HW218949   7.271  12.409  11.453
39018SOL     OW18950   3.461   6.094   6.549
39018SOL    HW118951   3.392   6.108   6.485
39018SOL    HW218952   3.435   6.147   6.625
39019SOL     OW18953   5.499   9.679   5.530
39019SOL    HW118954   5.447   9.623   5.472
39019SOL    HW218955   5.589   9.671   5.497
39020SOL     OW18956  14.199  14.393   5.550
39020SOL    HW118957  14.153  14.465   5.506
39020SOL    HW218958  14.289  14.399   5.518
39021SOL     OW18959  12.096   8.881   1.971
39021SOL    HW118960  12.081   8.820   2.043
39021SOL    HW218961  12.029   8.859   1.907
39022SOL     OW18962   3.929   4.774   1.752
39022SOL    HW118963   3.990   4.702   1.741
39022SOL    HW218964   3.979   4.852   1.730
39023SOL     OW18965   8.262   8.931  12.266
39023SOL    HW118966   8.271   8.854  12.211
39023SOL    HW218967   8.318   8.997  12.224
39024SOL     OW18968   9.472   6.841   2.075
39024SOL    HW118969   9.521   6.796   2.144
39024SOL    HW218970   9.431   6.915   2.119
39025SOL     OW18971   6.445   2.597   5.450
39025SOL    HW118972   6.393   2.574   5.527
39025SOL    HW218973   6.421   2.688   5.432
39026SOL     OW18974   7.458   5.281   2.214
39026SOL    HW118975   7.521   5.322   2.155
39026SOL    HW218976   7.385   5.342   2.218
39027SOL     OW18977   6.963   2.819   1.379
39027SOL    HW118978   6.888   2.878   1.381
39027SOL    HW218979   7.037   2.872   1.408
39028SOL     OW18980  13.616   4.842   9.643
39028SOL    HW118981  13.687   4.843   9.578
39028SOL    HW218982  13.654   4.882   9.721
39029SOL     OW18983   6.015   2.822  10.245
39029SOL    HW118984   5.981   2.833  10.334
39029SOL    HW218985   6.042   2.730  10.241
39030SOL     OW18986   9.341   6.466  10.944
39030SOL    HW118987   9.322   6.456  11.037
39030SOL    HW218988   9.312   6.555  10.923
39031SOL     OW18989   7.287  11.052   8.832
39031SOL    HW118990   7.203  11.017   8.863
39031SOL    HW218991   7.353  11.008   8.886
39032SOL     OW18992   4.564  10.452   5.676
39032SOL    HW118993   4.497  10.521   5.673
39032SOL    HW218994   4.632  10.488   5.734
39033SOL     OW18995   3.242   8.482   7.913
39033SOL    HW118996   3.280   8.484   8.001
39033SOL    HW218997   3.171   8.419   7.919
39034SOL     OW18998   6.940   0.521   2.586
39034SOL    HW118999   6.868   0.461   2.565
39034SOL    HW219000   6.986   0.533   2.503
39035SOL     OW19001   5.974   5.645  13.450
39035SOL    HW119002   6.061   5.683  13.444
39035SOL    HW219003   5.941   5.648  13.360
39036SOL     OW19004   9.597   9.300  13.195
39036SOL    HW119005   9.587   9.234  13.263
39036SOL    HW219006   9.599   9.251  13.113
39037SOL     OW19007  14.571  11.653   6.981
39037SOL    HW119008  14.615  11.725   7.026
39037SOL    HW219009  14.625  11.637   6.903
39038SOL     OW19010   6.506   2.020  11.596
39038SOL    HW119011   6.482   2.091  11.537
39038SOL    HW219012   6.459   2.039  11.677
39039SOL     OW19013   3.994   6.202   1.825
39039SOL    HW119014   3.953   6.215   1.740
39039SOL    HW219015   4.041   6.119   1.817
39040SOL     OW19016   5.511   2.605   3.311
39040SOL    HW119017   5.523   2.695   3.281
39040SOL    HW219018   5.416   2.594   3.315
39041SOL     OW19019   4.087   3.508   0.852
39041SOL    HW119020   4.182   3.500   0.860
39041SOL    HW219021   4.073   3.553   0.770
39042SOL     OW19022  10.762   9.213   0.753
39042SOL    HW119023  10.847   9.252   0.736
39042SOL    HW219024  10.779   9.119   0.759
39043SOL     OW19025  11.366  13.468   2.562
39043SOL    HW119026  11.440  13.423   2.520
39043SOL    HW219027  11.293  13.407   2.553
39044SOL     OW19028   4.555   5.317   3.059
39044SOL    HW119029   4.628   5.362   3.103
39044SOL    HW219030   4.590   5.291   2.974
39045SOL     OW19031  14.418  13.215  13.721
39045SOL    HW119032  14.335  13.260  13.704
39045SOL    HW219033  14.465  13.219  13.638
39046SOL     OW19034   2.102   2.703  11.670
39046SOL    HW119035   2.177   2.759  11.689
39046SOL    HW219036   2.062   2.687  11.755
39047SOL     OW19037  10.023   8.834   2.592
39047SOL    HW119038   9.956   8.780   2.633
39047SOL    HW219039  10.040   8.903   2.656
39048SOL     OW19040  10.000   6.287   5.959
39048SOL    HW119041   9.947   6.244   5.892
39048SOL    HW219042  10.072   6.327   5.911
39049SOL     OW19043   7.352   8.448  13.301
39049SOL    HW119044   7.324   8.527  13.347
39049SOL    HW219045   7.290   8.439  13.228
39050SOL     OW19046   2.141   7.051   4.900
39050SOL    HW119047   2.055   7.052   4.941
39050SOL    HW219048   2.168   6.959   4.903
39051SOL     OW19049  10.025   6.767  13.168
39051SOL    HW119050   9.949   6.790  13.222
39051SOL    HW219051  10.022   6.671  13.161
39052SOL     OW19052   9.684   1.291   8.044
39052SOL    HW119053   9.726   1.253   7.967
39052SOL    HW219054   9.598   1.319   8.012
39053SOL     OW19055  13.674  11.011  13.045
39053SOL    HW119056  13.642  10.921  13.044
39053SOL    HW219057  13.681  11.034  13.137
39054SOL     OW19058   0.284  12.824  13.560
39054SOL    HW119059   0.194  12.828  13.527
39054SOL    HW219060   0.286  12.888  13.631
39055SOL     OW19061   6.593  11.735   1.734
39055SOL    HW119062   6.586  11.742   1.639
39055SOL    HW219063   6.647  11.810   1.759
39056SOL     OW19064   2.482   3.227  13.032
39056SOL    HW119065   2.425   3.290  12.988
39056SOL    HW219066   2.564   3.230  12.983
39057SOL     OW19067   2.885   9.241   5.241
39057SOL    HW119068   2.861   9.223   5.150
39057SOL    HW219069   2.980   9.235   5.242
39058SOL     OW19070   6.109   5.743   3.979
39058SOL    HW119071   6.015   5.728   3.967
39058SOL    HW219072   6.124   5.727   4.073
39059SOL     OW19073   4.880   7.882   0.179
39059SOL    HW119074   4.853   7.796   0.212
39059SOL    HW219075   4.938   7.916   0.247
39060SOL     OW19076   7.586   9.354   3.132
39060SOL    HW119077   7.610   9.417   3.064
39060SOL    HW219078   7.552   9.409   3.203
39061SOL     OW19079   8.437   8.329  12.272
39061SOL    HW119080   8.432   8.236  12.295
39061SOL    HW219081   8.527   8.354  12.292
39062SOL     OW19082  14.077  13.215  10.145
39062SOL    HW119083  14.055  13.129  10.110
39062SOL    HW219084  14.171  13.209  10.166
39063SOL     OW19085  11.068   2.689  13.447
39063SOL    HW119086  11.154   2.650  13.463
39063SOL    HW219087  11.087   2.782  13.432
39064SOL     OW19088  11.252   0.647   8.682
39064SOL    HW119089  11.335   0.619   8.721
39064SOL    HW219090  11.211   0.565   8.654
39065SOL     OW19091   5.320   4.492  12.947
39065SOL    HW119092   5.397   4.443  12.916
39065SOL    HW219093   5.357   4.562  13.002
39066SOL     OW19094  12.809   7.231   8.114
39066SOL    HW119095  12.837   7.290   8.044
39066SOL    HW219096  12.753   7.285   8.170
39067SOL     OW19097  14.442  12.185   5.796
39067SOL    HW119098  14.422  12.268   5.838
39067SOL    HW219099  14.517  12.204   5.740
39068SOL     OW19100  13.003   7.789   0.836
39068SOL    HW119101  13.032   7.815   0.924
39068SOL    HW219102  12.999   7.872   0.787
39069SOL     OW19103   1.768   8.601  13.390
39069SOL    HW119104   1.766   8.568  13.300
39069SOL    HW219105   1.808   8.530  13.441
39070SOL     OW19106   3.913  12.921  13.566
39070SOL    HW119107   3.889  12.837  13.528
39070SOL    HW219108   3.967  12.899  13.642
39071SOL     OW19109   7.634  11.074   1.445
39071SOL    HW119110   7.640  11.154   1.498
39071SOL    HW219111   7.579  11.015   1.498
39072SOL     OW19112  14.425   5.792  11.208
39072SOL    HW119113  14.497   5.728  11.212
39072SOL    HW219114  14.373   5.764  11.132
39073SOL     OW19115   4.685   8.965   3.579
39073SOL    HW119116   4.630   8.889   3.560
39073SOL    HW219117   4.699   9.006   3.493
39074SOL     OW19118   2.053   0.464   5.798
39074SOL    HW119119   2.100   0.463   5.882
39074SOL    HW219120   2.103   0.405   5.742
39075SOL     OW19121   8.416  10.545   5.320
39075SOL    HW119122   8.338  10.493   5.339
39075SOL    HW219123   8.443  10.580   5.404
39076SOL     OW19124   3.026   6.700  13.181
39076SOL    HW119125   3.060   6.768  13.122
39076SOL    HW219126   2.960   6.745  13.234
39077SOL     OW19127  12.888   6.912   5.658
39077SOL    HW119128  12.940   6.874   5.587
39077SOL    HW219129  12.797   6.897   5.632
39078SOL     OW19130  13.169   8.432   8.027
39078SOL    HW119131  13.157   8.406   8.118
39078SOL    HW219132  13.087   8.476   8.004
39079SOL     OW19133  12.057   9.237   5.559
39079SOL    HW119134  11.994   9.301   5.591
39079SOL    HW219135  12.036   9.227   5.466
39080SOL     OW19136   3.657   0.053  11.007
39080SOL    HW119137   3.593   0.123  10.994
39080SOL    HW219138   3.679   0.058  11.100
39081SOL     OW19139   6.689   0.138  14.632
39081SOL    HW119140   6.660   0.210  14.576
39081SOL    HW219141   6.767   0.103  14.589
39082SOL     OW19142  13.769   1.459   7.727
39082SOL    HW119143  13.820   1.384   7.697
39082SOL    HW219144  13.794   1.469   7.819
39083SOL     OW19145  14.595   5.075   4.992
39083SOL    HW119146  14.690   5.085   5.006
39083SOL    HW219147  14.571   4.999   5.045
39084SOL     OW19148   7.831  13.114   7.332
39084SOL    HW119149   7.913  13.097   7.285
39084SOL    HW219150   7.802  13.028   7.362
39085SOL     OW19151   1.103   7.415   4.506
39085SOL    HW119152   1.142   7.470   4.573
39085SOL    HW219153   1.009   7.425   4.518
39086SOL     OW19154  14.271  10.399   6.332
39086SOL    HW119155  14.290  10.460   6.260
39086SOL    HW219156  14.304  10.443   6.410
39087SOL     OW19157   1.503   2.757   8.313
39087SOL    HW119158   1.413   2.759   8.345
39087SOL    HW219159   1.494   2.756   8.217
39088SOL     OW19160  12.730  12.271   1.749
39088SOL    HW119161  12.682  12.275   1.832
39088SOL    HW219162  12.661  12.276   1.682
39089SOL     OW19163   2.836   6.483   0.390
39089SOL    HW119164   2.896   6.537   0.339
39089SOL    HW219165   2.844   6.516   0.479
39090SOL     OW19166   7.660   5.702  11.425
39090SOL    HW119167   7.583   5.715  11.480
39090SOL    HW219168   7.691   5.791  11.406
39091SOL     OW19169  13.467   1.781   4.636
39091SOL    HW119170  13.414   1.849   4.595
39091SOL    HW219171  13.420   1.758   4.716
39092SOL     OW19172   0.224   3.614  10.484
39092SOL    HW119173   0.202   3.571  10.566
39092SOL    HW219174   0.245   3.542  10.424
39093SOL     OW19175   7.128   9.808   2.713
39093SOL    HW119176   7.214   9.843   2.737
39093SOL    HW219177   7.135   9.790   2.620
39094SOL     OW19178   3.315  13.047   8.735
39094SOL    HW119179   3.329  13.118   8.671
39094SOL    HW219180   3.351  12.969   8.693
39095SOL     OW19181   0.525   6.530   4.898
39095SOL    HW119182   0.540   6.592   4.969
39095SOL    HW219183   0.594   6.548   4.835
39096SOL     OW19184  11.236  11.618  10.655
39096SOL    HW119185  11.251  11.700  10.609
39096SOL    HW219186  11.263  11.636  10.745
39097SOL     OW19187   7.890   6.482   0.795
39097SOL    HW119188   7.811   6.478   0.849
39097SOL    HW219189   7.955   6.434   0.845
39098SOL     OW19190  14.214  13.843   6.430
39098SOL    HW119191  14.191  13.868   6.340
39098SOL    HW219192  14.147  13.885   6.484
39099SOL     OW19193   1.446  12.782  11.838
39099SOL    HW119194   1.510  12.747  11.899
39099SOL    HW219195   1.361  12.763  11.878
39100SOL     OW19196   2.097   0.892   0.591
39100SOL    HW119197   2.183   0.896   0.549
39100SOL    HW219198   2.099   0.812   0.643
39101SOL     OW19199   1.055   1.152   5.804
39101SOL    HW119200   1.106   1.109   5.736
39101SOL    HW219201   0.966   1.156   5.768
39102SOL     OW19202   6.474   4.216   8.666
39102SOL    HW119203   6.516   4.285   8.716
39102SOL    HW219204   6.413   4.262   8.607
39103SOL     OW19205  14.117   3.543  14.227
39103SOL    HW119206  14.114   3.638  14.214
39103SOL    HW219207  14.065   3.507  14.155
39104SOL     OW19208   1.846   0.857   2.051
39104SOL    HW119209   1.766   0.909   2.049
39104SOL    HW219210   1.910   0.911   2.003
39105SOL     OW19211   9.353   6.478  10.477
39105SOL    HW119212   9.384   6.475  10.387
39105SOL    HW219213   9.264   6.441  10.473
39106SOL     OW19214   1.377   3.370  13.177
39106SOL    HW119215   1.362   3.322  13.259
39106SOL    HW219216   1.396   3.302  13.112
39107SOL     OW19217   0.096  10.005   1.346
39107SOL    HW119218   0.191  10.004   1.334
39107SOL    HW219219   0.061  10.036   1.262
39108SOL     OW19220   8.446   2.541  13.933
39108SOL    HW119221   8.380   2.533  14.001
39108SOL    HW219222   8.443   2.457  13.887
39109SOL     OW19223   7.398  11.295  10.149
39109SOL    HW119224   7.311  11.304  10.110
39109SOL    HW219225   7.416  11.381  10.188
39110SOL     OW19226  12.003   8.672  12.259
39110SOL    HW119227  12.070   8.726  12.299
39110SOL    HW219228  12.050   8.595  12.225
39111SOL     OW19229   2.046   0.881  11.959
39111SOL    HW119230   2.059   0.925  12.043
39111SOL    HW219231   2.073   0.790  11.975
39112SOL     OW19232   3.046  13.936   9.020
39112SOL    HW119233   3.123  13.953   9.073
39112SOL    HW219234   3.029  13.842   9.031
39113SOL     OW19235  11.292   6.340  14.118
39113SOL    HW119236  11.244   6.410  14.161
39113SOL    HW219237  11.376   6.379  14.094
39114SOL     OW19238   0.170  14.471  11.703
39114SOL    HW119239   0.113  14.417  11.756
39114SOL    HW219240   0.131  14.558  11.707
39115SOL     OW19241   9.985   7.182   8.443
39115SOL    HW119242   9.997   7.249   8.375
39115SOL    HW219243  10.066   7.184   8.494
39116SOL     OW19244   3.904  11.548   9.987
39116SOL    HW119245   3.926  11.555   9.894
39116SOL    HW219246   3.812  11.572   9.992
39117SOL     OW19247  11.138   8.246   6.702
39117SOL    HW119248  11.162   8.182   6.769
39117SOL    HW219249  11.092   8.315   6.750
39118SOL     OW19250   6.366   7.303  12.428
39118SOL    HW119251   6.346   7.309  12.335
39118SOL    HW219252   6.356   7.211  12.450
39119SOL     OW19253   9.019  13.472   6.526
39119SOL    HW119254   8.927  13.488   6.542
39119SOL    HW219255   9.023  13.381   6.495
39120SOL     OW19256   4.707   4.576   1.246
39120SOL    HW119257   4.709   4.561   1.341
39120SOL    HW219258   4.757   4.657   1.233
39121SOL     OW19259   9.563   3.869   0.435
39121SOL    HW119260   9.609   3.816   0.370
39121SOL    HW219261   9.470   3.857   0.415
39122SOL     OW19262  10.076   8.289   6.039
39122SOL    HW119263  10.035   8.210   6.073
39122SOL    HW219264  10.151   8.258   5.988
39123SOL     OW19265  10.193   4.128  12.022
39123SOL    HW119266  10.188   4.223  12.036
39123SOL    HW219267  10.202   4.118  11.927
39124SOL     OW19268   1.264   1.458  12.063
39124SOL    HW119269   1.241   1.397  11.993
39124SOL    HW219270   1.278   1.402  12.140
39125SOL     OW19271  10.007   2.210   7.193
39125SOL    HW119272  10.000   2.306   7.186
39125SOL    HW219273  10.045   2.183   7.109
39126SOL     OW19274   3.409   9.133  14.388
39126SOL    HW119275   3.415   9.053  14.441
39126SOL    HW219276   3.485   9.185  14.414
39127SOL     OW19277  11.408  12.402   0.858
39127SOL    HW119278  11.459  12.440   0.930
39127SOL    HW219279  11.369  12.323   0.895
39128SOL     OW19280   6.006   6.867  10.541
39128SOL    HW119281   5.983   6.775  10.525
39128SOL    HW219282   6.090   6.863  10.586
39129SOL     OW19283   7.888   8.590   1.195
39129SOL    HW119284   7.949   8.538   1.247
39129SOL    HW219285   7.929   8.676   1.187
39130SOL     OW19286  10.520   2.497   0.956
39130SOL    HW119287  10.587   2.522   1.020
39130SOL    HW219288  10.529   2.562   0.885
39131SOL     OW19289   2.042   0.223   4.058
39131SOL    HW119290   2.050   0.198   4.150
39131SOL    HW219291   2.043   0.319   4.059
39132SOL     OW19292   5.859  11.590   3.949
39132SOL    HW119293   5.936  11.534   3.949
39132SOL    HW219294   5.819  11.577   4.036
39133SOL     OW19295   7.875   0.998  10.956
39133SOL    HW119296   7.916   0.927  11.006
39133SOL    HW219297   7.896   1.077  11.006
39134SOL     OW19298   5.232  10.377   8.016
39134SOL    HW119299   5.293  10.316   8.057
39134SOL    HW219300   5.145  10.343   8.038
39135SOL     OW19301   6.877   0.980   1.978
39135SOL    HW119302   6.804   0.919   1.972
39135SOL    HW219303   6.853   1.041   2.048
39136SOL     OW19304   5.664   0.338  12.538
39136SOL    HW119305   5.732   0.272  12.544
39136SOL    HW219306   5.585   0.288  12.514
39137SOL     OW19307   4.540  12.892   7.069
39137SOL    HW119308   4.493  12.809   7.080
39137SOL    HW219309   4.546  12.928   7.158
39138SOL     OW19310  14.019  11.094   9.149
39138SOL    HW119311  13.926  11.092   9.126
39138SOL    HW219312  14.042  11.187   9.144
39139SOL     OW19313  11.703   4.088   3.064
39139SOL    HW119314  11.677   4.010   3.015
39139SOL    HW219315  11.621   4.133   3.084
39140SOL     OW19316   3.332   6.954   9.636
39140SOL    HW119317   3.247   6.909   9.630
39140SOL    HW219318   3.396   6.883   9.640
39141SOL     OW19319   6.192  10.782   2.716
39141SOL    HW119320   6.138  10.791   2.795
39141SOL    HW219321   6.204  10.872   2.685
39142SOL     OW19322   5.536   7.675   0.649
39142SOL    HW119323   5.485   7.660   0.728
39142SOL    HW219324   5.474   7.714   0.587
39143SOL     OW19325   3.662   1.188  12.109
39143SOL    HW119326   3.725   1.259  12.093
39143SOL    HW219327   3.635   1.200  12.199
39144SOL     OW19328   6.356   7.175   7.840
39144SOL    HW119329   6.385   7.127   7.762
39144SOL    HW219330   6.261   7.182   7.829
39145SOL     OW19331   8.430  10.323   6.046
39145SOL    HW119332   8.337  10.343   6.037
39145SOL    HW219333   8.448  10.260   5.976
39146SOL     OW19334   1.927   9.189   3.915
39146SOL    HW119335   1.958   9.121   3.855
39146SOL    HW219336   1.839   9.161   3.939
39147SOL     OW19337   6.647   2.333   7.553
39147SOL    HW119338   6.587   2.402   7.582
39147SOL    HW219339   6.688   2.368   7.474
39148SOL     OW19340  13.137   4.262   6.289
39148SOL    HW119341  13.085   4.341   6.273
39148SOL    HW219342  13.096   4.221   6.365
39149SOL     OW19343  11.122  10.162   3.945
39149SOL    HW119344  11.161  10.243   3.979
39149SOL    HW219345  11.028  10.171   3.962
39150SOL     OW19346  14.517  12.741   8.081
39150SOL    HW119347  14.572  12.668   8.108
39150SOL    HW219348  14.427  12.709   8.090
39151SOL     OW19349  13.897   3.577   6.992
39151SOL    HW119350  13.967   3.519   6.963
39151SOL    HW219351  13.823   3.519   7.011
39152SOL     OW19352   9.672   2.043  12.563
39152SOL    HW119353   9.683   1.955  12.598
39152SOL    HW219354   9.620   2.089  12.630
39153SOL     OW19355   2.441  13.989   7.114
39153SOL    HW119356   2.488  14.011   7.034
39153SOL    HW219357   2.448  13.893   7.120
39154SOL     OW19358  13.583  12.957   0.284
39154SOL    HW119359  13.565  13.047   0.310
39154SOL    HW219360  13.544  12.949   0.197
39155SOL     OW19361  10.127   1.950  10.962
39155SOL    HW119362  10.044   1.919  10.926
39155SOL    HW219363  10.118   1.941  11.057
39156SOL     OW19364  14.193   6.351  14.807
39156SOL    HW119365  14.127   6.309  14.751
39156SOL    HW219366  14.177   6.315   0.026
39157SOL     OW19367   1.612   2.601   9.785
39157SOL    HW119368   1.621   2.506   9.774
39157SOL    HW219369   1.612   2.636   9.696
39158SOL     OW19370   4.133   2.160   8.261
39158SOL    HW119371   4.212   2.164   8.207
39158SOL    HW219372   4.165   2.154   8.351
39159SOL     OW19373   3.251  13.779   6.297
39159SOL    HW119374   3.192  13.834   6.246
39159SOL    HW219375   3.262  13.825   6.380
39160SOL     OW19376   8.718  12.973  11.911
39160SOL    HW119377   8.665  12.966  11.832
39160SOL    HW219378   8.674  13.040  11.963
39161SOL     OW19379   4.703   0.055   5.892
39161SOL    HW119380   4.755  14.843   5.893
39161SOL    HW219381   4.625   0.034   5.944
39162SOL     OW19382   2.755   1.499   1.183
39162SOL    HW119383   2.739   1.437   1.112
39162SOL    HW219384   2.685   1.564   1.174
39163SOL     OW19385  12.426   2.588   0.546
39163SOL    HW119386  12.481   2.586   0.624
39163SOL    HW219387  12.406   2.495   0.529
39164SOL     OW19388  12.424   5.326   5.560
39164SOL    HW119389  12.444   5.401   5.615
39164SOL    HW219390  12.477   5.339   5.481
39165SOL     OW19391  11.798   8.223  10.776
39165SOL    HW119392  11.735   8.246  10.844
39165SOL    HW219393  11.840   8.143  10.808
39166SOL     OW19394   4.459   5.055   3.043
39166SOL    HW119395   4.526   5.115   3.075
39166SOL    HW219396   4.495   4.968   3.059
39167SOL     OW19397   6.594   1.363   4.787
39167SOL    HW119398   6.647   1.365   4.707
39167SOL    HW219399   6.506   1.343   4.756
39168SOL     OW19400  10.091   5.673  12.077
39168SOL    HW119401  10.103   5.578  12.078
39168SOL    HW219402  10.007   5.688  12.120
39169SOL     OW19403   3.221   1.903   8.792
39169SOL    HW119404   3.151   1.850   8.752
39169SOL    HW219405   3.220   1.985   8.742
39170SOL     OW19406   7.103  11.931   7.911
39170SOL    HW119407   7.090  11.905   8.002
39170SOL    HW219408   7.150  12.015   7.916
39171SOL     OW19409  11.584   7.648  14.647
39171SOL    HW119410  11.613   7.571  14.695
39171SOL    HW219411  11.644   7.654  14.572
39172SOL     OW19412   2.727   1.683  12.959
39172SOL    HW119413   2.752   1.775  12.967
39172SOL    HW219414   2.635   1.686  12.932
39173SOL     OW19415   2.746  11.997   4.702
39173SOL    HW119416   2.701  11.913   4.702
39173SOL    HW219417   2.779  12.008   4.613
39174SOL     OW19418   0.740   4.958   7.001
39174SOL    HW119419   0.688   4.887   7.040
39174SOL    HW219420   0.681   4.998   6.936
39175SOL     OW19421   5.106   6.847   6.211
39175SOL    HW119422   5.083   6.902   6.286
39175SOL    HW219423   5.122   6.909   6.140
39176SOL     OW19424  10.115   4.093  10.674
39176SOL    HW119425  10.129   4.004  10.640
39176SOL    HW219426  10.198   4.138  10.657
39177SOL     OW19427   3.297   4.950   6.636
39177SOL    HW119428   3.282   5.041   6.659
39177SOL    HW219429   3.282   4.902   6.718
39178SOL     OW19430  13.294   6.124   3.463
39178SOL    HW119431  13.306   6.050   3.522
39178SOL    HW219432  13.292   6.200   3.521
39179SOL     OW19433  11.320   5.130   8.023
39179SOL    HW119434  11.288   5.114   8.111
39179SOL    HW219435  11.274   5.209   7.995
39180SOL     OW19436  11.211   2.376   8.150
39180SOL    HW119437  11.277   2.312   8.124
39180SOL    HW219438  11.254   2.426   8.220
39181SOL     OW19439  10.448   3.358   7.029
39181SOL    HW119440  10.441   3.332   6.938
39181SOL    HW219441  10.501   3.438   7.028
39182SOL     OW19442   1.840   6.153  11.044
39182SOL    HW119443   1.919   6.107  11.070
39182SOL    HW219444   1.773   6.122  11.105
39183SOL     OW19445   3.184   1.420   4.432
39183SOL    HW119446   3.277   1.441   4.438
39183SOL    HW219447   3.181   1.335   4.388
39184SOL     OW19448   4.415  11.840  11.136
39184SOL    HW119449   4.343  11.869  11.191
39184SOL    HW219450   4.465  11.779  11.190
39185SOL     OW19451  10.251  13.240   9.069
39185SOL    HW119452  10.204  13.321   9.086
39185SOL    HW219453  10.329  13.246   9.124
39186SOL     OW19454   8.219   9.278   0.777
39186SOL    HW119455   8.312   9.303   0.778
39186SOL    HW219456   8.210   9.225   0.698
39187SOL     OW19457  13.113   3.710   0.848
39187SOL    HW119458  13.100   3.752   0.763
39187SOL    HW219459  13.081   3.621   0.835
39188SOL     OW19460   6.726  13.604  14.135
39188SOL    HW119461   6.803  13.648  14.098
39188SOL    HW219462   6.668  13.589  14.060
39189SOL     OW19463   3.631  12.503  13.974
39189SOL    HW119464   3.688  12.477  14.046
39189SOL    HW219465   3.685  12.562  13.921
39190SOL     OW19466   6.625   6.281   6.231
39190SOL    HW119467   6.554   6.231   6.192
39190SOL    HW219468   6.631   6.250   6.321
39191SOL     OW19469   8.895  11.047  10.883
39191SOL    HW119470   8.880  11.135  10.851
39191SOL    HW219471   8.808  11.013  10.904
39192SOL     OW19472  10.853  12.041   5.373
39192SOL    HW119473  10.904  12.053   5.293
39192SOL    HW219474  10.890  11.963   5.414
39193SOL     OW19475   1.772  14.525   0.027
39193SOL    HW119476   1.861  14.500   0.053
39193SOL    HW219477   1.737  14.572   0.103
39194SOL     OW19478   6.491  13.283   0.158
39194SOL    HW119479   6.577  13.247   0.177
39194SOL    HW219480   6.501  13.327   0.074
39195SOL     OW19481  13.375   8.432  13.412
39195SOL    HW119482  13.367   8.519  13.451
39195SOL    HW219483  13.469   8.416  13.407
39196SOL     OW19484   1.806   9.256   3.181
39196SOL    HW119485   1.897   9.288   3.186
39196SOL    HW219486   1.755   9.326   3.221
39197SOL     OW19487  10.032   1.554  11.861
39197SOL    HW119488  10.101   1.596  11.811
39197SOL    HW219489   9.993   1.491  11.801
39198SOL     OW19490  14.198  12.491   8.974
39198SOL    HW119491  14.109  12.455   8.981
39198SOL    HW219492  14.211  12.539   9.056
39199SOL     OW19493   2.125  14.759   6.019
39199SOL    HW119494   2.162  14.785   6.103
39199SOL    HW219495   2.100  14.842   5.977
39200SOL     OW19496   8.445  14.767   9.915
39200SOL    HW119497   8.485  14.719   9.843
39200SOL    HW219498   8.354  14.737   9.915
39201SOL     OW19499   0.234  10.314   8.045
39201SOL    HW119500   0.192  10.313   8.131
39201SOL    HW219501   0.176  10.263   7.989
39202SOL     OW19502   9.022   9.106  11.931
39202SOL    HW119503   9.107   9.149  11.917
39202SOL    HW219504   9.043   9.013  11.941
39203SOL     OW19505   8.108   9.497   4.358
39203SOL    HW119506   8.016   9.486   4.334
39203SOL    HW219507   8.146   9.547   4.286
39204SOL     OW19508   3.994  13.329  11.623
39204SOL    HW119509   3.925  13.333  11.690
39204SOL    HW219510   3.967  13.257  11.566
39205SOL     OW19511  14.154  10.935  14.507
39205SOL    HW119512  14.192  11.017  14.539
39205SOL    HW219513  14.060  10.944  14.523
39206SOL     OW19514   7.405   1.193   3.059
39206SOL    HW119515   7.418   1.177   3.152
39206SOL    HW219516   7.310   1.204   3.049
39207SOL     OW19517   0.023   1.198  12.544
39207SOL    HW119518   0.101   1.251  12.557
39207SOL    HW219519  14.852   1.232  12.463
39208SOL     OW19520   6.884  13.926   8.222
39208SOL    HW119521   6.860  13.952   8.311
39208SOL    HW219522   6.929  14.003   8.186
39209SOL     OW19523  14.620  13.262  13.123
39209SOL    HW119524  14.621  13.189  13.062
39209SOL    HW219525  14.711  13.271  13.151
39210SOL     OW19526   9.127   7.880   1.070
39210SOL    HW119527   9.136   7.861   1.163
39210SOL    HW219528   9.185   7.818   1.026
39211SOL     OW19529   1.884  12.807   8.901
39211SOL    HW119530   1.894  12.894   8.861
39211SOL    HW219531   1.879  12.825   8.995
39212SOL     OW19532  10.023  14.054   6.320
39212SOL    HW119533  10.038  13.997   6.245
39212SOL    HW219534  10.085  14.024   6.386
39213SOL     OW19535   3.660   2.197   1.800
39213SOL    HW119536   3.619   2.275   1.840
39213SOL    HW219537   3.620   2.123   1.846
39214SOL     OW19538  12.819   3.647   7.629
39214SOL    HW119539  12.870   3.728   7.641
39214SOL    HW219540  12.733   3.668   7.666
39215SOL     OW19541   9.348   9.557   8.334
39215SOL    HW119542   9.291   9.627   8.366
39215SOL    HW219543   9.428   9.565   8.386
39216SOL     OW19544  12.863  11.351   4.602
39216SOL    HW119545  12.913  11.281   4.559
39216SOL    HW219546  12.925  11.424   4.606
39217SOL     OW19547   2.687   2.969  14.602
39217SOL    HW119548   2.699   3.058  14.635
39217SOL    HW219549   2.594   2.952  14.612
39218SOL     OW19550  11.622  14.316   7.310
39218SOL    HW119551  11.607  14.401   7.268
39218SOL    HW219552  11.571  14.319   7.390
39219SOL     OW19553   2.480   0.702   3.238
39219SOL    HW119554   2.537   0.711   3.315
39219SOL    HW219555   2.404   0.654   3.269
39220SOL     OW19556   2.388   9.405   5.078
39220SOL    HW119557   2.401   9.493   5.042
39220SOL    HW219558   2.471   9.359   5.060
39221SOL     OW19559   0.621  10.887   6.663
39221SOL    HW119560   0.698  10.851   6.619
39221SOL    HW219561   0.642  10.879   6.757
39222SOL     OW19562  14.654  13.920   7.722
39222SOL    HW119563  14.599  13.845   7.703
39222SOL    HW219564  14.593  13.992   7.738
39223SOL     OW19565  10.283  13.486  10.025
39223SOL    HW119566  10.352  13.462   9.964
39223SOL    HW219567  10.326  13.542  10.090
39224SOL     OW19568  11.681   0.207   6.936
39224SOL    HW119569  11.616   0.252   6.882
39224SOL    HW219570  11.654   0.115   6.936
39225SOL     OW19571   2.502   6.022  11.452
39225SOL    HW119572   2.493   6.006  11.546
39225SOL    HW219573   2.588   6.063  11.443
39226SOL     OW19574   0.925   1.129  12.910
39226SOL    HW119575   0.925   1.223  12.896
39226SOL    HW219576   0.920   1.091  12.822
39227SOL     OW19577   9.921   8.026  14.664
39227SOL    HW119578   9.923   7.936  14.696
39227SOL    HW219579   9.996   8.031  14.604
39228SOL     OW19580  14.813   9.242  10.234
39228SOL    HW119581  14.793   9.178  10.302
39228SOL    HW219582   0.036   9.225  10.209
39229SOL     OW19583  11.684   0.856   3.366
39229SOL    HW119584  11.756   0.811   3.409
39229SOL    HW219585  11.721   0.940   3.339
39230SOL     OW19586   2.618  10.649  10.226
39230SOL    HW119587   2.697  10.683  10.183
39230SOL    HW219588   2.547  10.670  10.165
39231SOL     OW19589   2.027  10.435   8.428
39231SOL    HW119590   2.110  10.398   8.459
39231SOL    HW219591   2.053  10.505   8.367
39232SOL     OW19592  12.919  13.789   4.357
39232SOL    HW119593  12.962  13.748   4.282
39232SOL    HW219594  12.860  13.721   4.391
39233SOL     OW19595   0.930   9.002   4.819
39233SOL    HW119596   0.978   9.080   4.848
39233SOL    HW219597   0.999   8.941   4.793
39234SOL     OW19598   3.742   1.863   5.285
39234SOL    HW119599   3.811   1.801   5.262
39234SOL    HW219600   3.664   1.830   5.240
39235SOL     OW19601  12.748   6.454   7.865
39235SOL    HW119602  12.653   6.459   7.858
39235SOL    HW219603  12.779   6.537   7.828
39236SOL     OW19604  11.429   2.199  10.369
39236SOL    HW119605  11.517   2.237  10.373
39236SOL    HW219606  11.419   2.174  10.278
39237SOL     OW19607   9.428   6.636  11.676
39237SOL    HW119608   9.374   6.631  11.597
39237SOL    HW219609   9.365   6.628  11.748
39238SOL     OW19610   1.556   7.057   8.736
39238SOL    HW119611   1.548   7.019   8.649
39238SOL    HW219612   1.645   7.092   8.739
39239SOL     OW19613   9.790   1.335   6.857
39239SOL    HW119614   9.738   1.329   6.776
39239SOL    HW219615   9.875   1.298   6.833
39240SOL     OW19616  14.620  11.811   1.064
39240SOL    HW119617  14.625  11.738   1.002
39240SOL    HW219618  14.699  11.863   1.046
39241SOL     OW19619  11.105   4.129  13.542
39241SOL    HW119620  11.110   4.156  13.634
39241SOL    HW219621  11.143   4.202  13.493
39242SOL     OW19622   0.469  12.427  10.710
39242SOL    HW119623   0.514  12.506  10.737
39242SOL    HW219624   0.399  12.416  10.774
39243SOL     OW19625   5.298  10.663   4.064
39243SOL    HW119626   5.350  10.617   4.129
39243SOL    HW219627   5.222  10.696   4.112
39244SOL     OW19628  12.919   8.800   3.219
39244SOL    HW119629  12.884   8.884   3.250
39244SOL    HW219630  13.008   8.821   3.191
39245SOL     OW19631   1.718  13.669  10.488
39245SOL    HW119632   1.645  13.718  10.448
39245SOL    HW219633   1.725  13.705  10.576
39246SOL     OW19634  13.992   7.620  13.321
39246SOL    HW119635  13.965   7.552  13.383
39246SOL    HW219636  13.982   7.580  13.235
39247SOL     OW19637   6.312  11.263   0.946
39247SOL    HW119638   6.269  11.241   0.863
39247SOL    HW219639   6.298  11.187   1.002
39248SOL     OW19640  10.926   5.015  13.351
39248SOL    HW119641  10.865   4.944  13.334
39248SOL    HW219642  10.963   4.995  13.437
39249SOL     OW19643   0.222   6.938   8.608
39249SOL    HW119644   0.289   7.006   8.618
39249SOL    HW219645   0.266   6.867   8.561
39250SOL     OW19646   4.839   0.992  11.158
39250SOL    HW119647   4.794   0.924  11.208
39250SOL    HW219648   4.773   1.060  11.145
39251SOL     OW19649   8.829  14.744  12.580
39251SOL    HW119650   8.900  14.690  12.614
39251SOL    HW219651   8.833  14.733  12.486
39252SOL     OW19652   8.685   5.889  11.947
39252SOL    HW119653   8.677   5.821  11.881
39252SOL    HW219654   8.598   5.895  11.986
39253SOL     OW19655   3.933   8.099   3.887
39253SOL    HW119656   3.839   8.089   3.898
39253SOL    HW219657   3.972   8.048   3.958
39254SOL     OW19658  13.912  11.703   7.473
39254SOL    HW119659  13.936  11.772   7.412
39254SOL    HW219660  13.970  11.717   7.548
39255SOL     OW19661   2.395   2.939   6.779
39255SOL    HW119662   2.409   2.845   6.791
39255SOL    HW219663   2.408   2.977   6.866
39256SOL     OW19664   0.329  12.762   5.774
39256SOL    HW119665   0.350  12.820   5.701
39256SOL    HW219666   0.412  12.749   5.819
39257SOL     OW19667   0.497   8.572   4.779
39257SOL    HW119668   0.487   8.561   4.874
39257SOL    HW219669   0.570   8.633   4.770
39258SOL     OW19670  14.129   6.069   8.223
39258SOL    HW119671  14.162   6.083   8.312
39258SOL    HW219672  14.036   6.050   8.235
39259SOL     OW19673  11.787   7.443  10.929
39259SOL    HW119674  11.795   7.538  10.923
39259SOL    HW219675  11.694   7.428  10.946
39260SOL     OW19676  10.133   0.666   5.238
39260SOL    HW119677  10.149   0.707   5.153
39260SOL    HW219678  10.120   0.573   5.219
39261SOL     OW19679   1.764   3.788  11.334
39261SOL    HW119680   1.670   3.794  11.348
39261SOL    HW219681   1.800   3.763  11.419
39262SOL     OW19682   8.375   0.976   7.633
39262SOL    HW119683   8.445   0.948   7.691
39262SOL    HW219684   8.304   0.913   7.648
39263SOL     OW19685  13.639   7.802   9.887
39263SOL    HW119686  13.648   7.870   9.954
39263SOL    HW219687  13.558   7.824   9.842
39264SOL     OW19688   0.531   4.853   4.135
39264SOL    HW119689   0.546   4.807   4.217
39264SOL    HW219690   0.456   4.809   4.096
39265SOL     OW19691   0.317  12.666  10.432
39265SOL    HW119692   0.276  12.583  10.407
39265SOL    HW219693   0.252  12.732  10.410
39266SOL     OW19694   4.606   2.022   5.604
39266SOL    HW119695   4.515   2.035   5.575
39266SOL    HW219696   4.653   2.098   5.569
39267SOL     OW19697   4.334  13.990   8.175
39267SOL    HW119698   4.404  14.038   8.132
39267SOL    HW219699   4.299  14.051   8.239
39268SOL     OW19700  12.942   7.221   4.021
39268SOL    HW119701  12.882   7.295   4.021
39268SOL    HW219702  12.991   7.230   4.102
39269SOL     OW19703   5.256   7.437   6.407
39269SOL    HW119704   5.195   7.482   6.349
39269SOL    HW219705   5.338   7.434   6.358
39270SOL     OW19706  13.151  13.526   9.622
39270SOL    HW119707  13.225  13.466   9.632
39270SOL    HW219708  13.088  13.477   9.570
39271SOL     OW19709   8.644   7.969   4.391
39271SOL    HW119710   8.574   7.905   4.383
39271SOL    HW219711   8.643   7.996   4.483
39272SOL     OW19712   4.162  13.038   5.945
39272SOL    HW119713   4.255  13.022   5.957
39272SOL    HW219714   4.145  13.122   5.989
39273SOL     OW19715   3.250   8.340   7.584
39273SOL    HW119716   3.336   8.310   7.554
39273SOL    HW219717   3.216   8.268   7.636
39274SOL     OW19718  12.805   3.259   0.033
39274SOL    HW119719  12.844   3.228  14.819
39274SOL    HW219720  12.733   3.197   0.050
39275SOL     OW19721   6.003  13.104  10.171
39275SOL    HW119722   5.963  13.045  10.107
39275SOL    HW219723   6.083  13.135  10.129
39276SOL     OW19724   5.901   9.638   3.829
39276SOL    HW119725   5.949   9.633   3.912
39276SOL    HW219726   5.947   9.578   3.771
39277SOL     OW19727   2.739  10.959  10.171
39277SOL    HW119728   2.662  10.965  10.114
39277SOL    HW219729   2.714  11.007  10.250
39278SOL     OW19730   0.439   5.867   9.207
39278SOL    HW119731   0.446   5.951   9.160
39278SOL    HW219732   0.346   5.860   9.228
39279SOL     OW19733   0.216  10.808  13.953
39279SOL    HW119734   0.232  10.865  13.878
39279SOL    HW219735   0.299  10.809  14.002
39280SOL     OW19736   2.408  14.162  13.193
39280SOL    HW119737   2.494  14.125  13.170
39280SOL    HW219738   2.421  14.256  13.187
39281SOL     OW19739  14.087   2.734   3.885
39281SOL    HW119740  14.153   2.793   3.849
39281SOL    HW219741  14.053   2.687   3.809
39282SOL     OW19742   8.652   1.753   4.843
39282SOL    HW119743   8.703   1.738   4.763
39282SOL    HW219744   8.678   1.681   4.901
39283SOL     OW19745  13.377  10.264   7.025
39283SOL    HW119746  13.439  10.215   7.080
39283SOL    HW219747  13.346  10.199   6.961
39284SOL     OW19748   2.208  13.110   6.089
39284SOL    HW119749   2.247  13.137   6.006
39284SOL    HW219750   2.199  13.015   6.082
39285SOL     OW19751   3.628  14.719   7.881
39285SOL    HW119752   3.573  14.763   7.817
39285SOL    HW219753   3.597  14.628   7.881
39286SOL     OW19754   0.558  11.154  13.095
39286SOL    HW119755   0.479  11.147  13.148
39286SOL    HW219756   0.548  11.087  13.028
39287SOL     OW19757   9.299   3.816   5.909
39287SOL    HW119758   9.388   3.793   5.936
39287SOL    HW219759   9.293   3.787   5.818
39288SOL     OW19760  11.937   2.769   9.000
39288SOL    HW119761  11.843   2.775   8.981
39288SOL    HW219762  11.965   2.861   9.005
39289SOL     OW19763   2.392   6.098  10.883
39289SOL    HW119764   2.378   6.168  10.947
39289SOL    HW219765   2.424   6.024  10.934
39290SOL     OW19766   8.012   1.763   7.849
39290SOL    HW119767   8.070   1.722   7.912
39290SOL    HW219768   8.007   1.701   7.776
39291SOL     OW19769  11.963   0.156  13.636
39291SOL    HW119770  11.994   0.226  13.693
39291SOL    HW219771  12.021   0.082  13.653
39292SOL     OW19772   1.201   4.810  11.856
39292SOL    HW119773   1.202   4.724  11.897
39292SOL    HW219774   1.114   4.845  11.874
39293SOL     OW19775  11.742   6.233  13.237
39293SOL    HW119776  11.673   6.177  13.200
39293SOL    HW219777  11.808   6.237  13.168
39294SOL     OW19778   4.829   4.111   6.475
39294SOL    HW119779   4.808   4.193   6.520
39294SOL    HW219780   4.826   4.045   6.544
39295SOL     OW19781   7.763   1.075  12.967
39295SOL    HW119782   7.844   1.089  12.918
39295SOL    HW219783   7.699   1.048  12.901
39296SOL     OW19784   0.391   8.574   1.239
39296SOL    HW119785   0.358   8.633   1.170
39296SOL    HW219786   0.313   8.539   1.280
39297SOL     OW19787   6.394   2.131  14.669
39297SOL    HW119788   6.440   2.079  14.603
39297SOL    HW219789   6.464   2.171  14.721
39298SOL     OW19790   9.684   8.113  10.391
39298SOL    HW119791   9.636   8.063  10.457
39298SOL    HW219792   9.615   8.149  10.334
39299SOL     OW19793  13.270   1.967  10.481
39299SOL    HW119794  13.338   1.943  10.543
39299SOL    HW219795  13.227   2.043  10.520
39300SOL     OW19796  14.010   8.131   4.720
39300SOL    HW119797  14.071   8.080   4.668
39300SOL    HW219798  13.924   8.093   4.700
39301SOL     OW19799   4.815   1.871   1.508
39301SOL    HW119800   4.745   1.815   1.477
39301SOL    HW219801   4.893   1.815   1.508
39302SOL     OW19802   5.937  13.952  14.209
39302SOL    HW119803   5.924  13.979  14.300
39302SOL    HW219804   6.032  13.956  14.196
39303SOL     OW19805  13.176   6.552  12.413
39303SOL    HW119806  13.131   6.468  12.403
39303SOL    HW219807  13.106   6.616  12.426
39304SOL     OW19808   5.936   4.728   7.999
39304SOL    HW119809   5.966   4.638   8.008
39304SOL    HW219810   5.997   4.779   8.052
39305SOL     OW19811   0.066   4.338   9.542
39305SOL    HW119812   0.148   4.304   9.578
39305SOL    HW219813   0.058   4.297   9.456
39306SOL     OW19814  11.919   4.145   7.805
39306SOL    HW119815  11.935   4.066   7.754
39306SOL    HW219816  11.998   4.156   7.858
39307SOL     OW19817   2.333  13.454  14.811
39307SOL    HW119818   2.302  13.370  14.775
39307SOL    HW219819   2.314  13.518  14.743
39308SOL     OW19820   6.454   7.332   1.052
39308SOL    HW119821   6.426   7.398   0.988
39308SOL    HW219822   6.549   7.345   1.059
39309SOL     OW19823   7.551  14.301  10.803
39309SOL    HW119824   7.531  14.245  10.878
39309SOL    HW219825   7.519  14.388  10.829
39310SOL     OW19826   1.545   4.392  14.403
39310SOL    HW119827   1.578   4.448  14.333
39310SOL    HW219828   1.561   4.303  14.372
39311SOL     OW19829   3.427   0.742   3.757
39311SOL    HW119830   3.353   0.703   3.803
39311SOL    HW219831   3.504   0.707   3.802
39312SOL     OW19832   1.689   7.677   6.403
39312SOL    HW119833   1.691   7.658   6.309
39312SOL    HW219834   1.781   7.671   6.430
39313SOL     OW19835   2.505   8.677   5.833
39313SOL    HW119836   2.438   8.622   5.872
39313SOL    HW219837   2.541   8.624   5.762
39314SOL     OW19838  12.299   0.715   0.231
39314SOL    HW119839  12.283   0.797   0.277
39314SOL    HW219840  12.258   0.648   0.285
39315SOL     OW19841  14.659   4.518  10.676
39315SOL    HW119842  14.744   4.542  10.638
39315SOL    HW219843  14.627   4.447  10.619
39316SOL     OW19844   9.688   7.372   0.665
39316SOL    HW119845   9.633   7.294   0.667
39316SOL    HW219846   9.630   7.443   0.695
39317SOL     OW19847   6.437   5.274  12.807
39317SOL    HW119848   6.438   5.354  12.860
39317SOL    HW219849   6.525   5.270  12.770
39318SOL     OW19850   8.245   8.219   8.824
39318SOL    HW119851   8.296   8.278   8.879
39318SOL    HW219852   8.154   8.234   8.852
39319SOL     OW19853   0.834   7.734   1.888
39319SOL    HW119854   0.816   7.713   1.796
39319SOL    HW219855   0.765   7.795   1.913
39320SOL     OW19856  14.830   9.212   0.953
39320SOL    HW119857  14.746   9.253   0.972
39320SOL    HW219858  14.816   9.119   0.968
39321SOL     OW19859  10.251  12.849   8.355
39321SOL    HW119860  10.289  12.881   8.437
39321SOL    HW219861  10.269  12.918   8.291
39322SOL     OW19862   8.573   6.606   5.306
39322SOL    HW119863   8.587   6.675   5.372
39322SOL    HW219864   8.621   6.531   5.340
39323SOL     OW19865   8.707   7.230   7.717
39323SOL    HW119866   8.771   7.232   7.646
39323SOL    HW219867   8.623   7.225   7.673
39324SOL     OW19868  13.399   6.860   4.952
39324SOL    HW119869  13.312   6.824   4.967
39324SOL    HW219870  13.396   6.896   4.863
39325SOL     OW19871   1.380   7.609  13.801
39325SOL    HW119872   1.388   7.577  13.891
39325SOL    HW219873   1.346   7.533  13.753
39326SOL     OW19874  12.445   9.296   7.693
39326SOL    HW119875  12.370   9.352   7.711
39326SOL    HW219876  12.415   9.208   7.713
39327SOL     OW19877   7.904   1.631   6.261
39327SOL    HW119878   7.827   1.605   6.312
39327SOL    HW219879   7.872   1.700   6.203
39328SOL     OW19880  13.896   4.925  14.026
39328SOL    HW119881  13.811   4.937  14.068
39328SOL    HW219882  13.887   4.965  13.940
39329SOL     OW19883   3.071   4.044   2.794
39329SOL    HW119884   3.039   3.998   2.716
39329SOL    HW219885   3.165   4.026   2.796
39330SOL     OW19886  10.556   1.983   6.999
39330SOL    HW119887  10.644   1.975   7.034
39330SOL    HW219888  10.529   1.893   6.979
39331SOL     OW19889  13.852   3.475   0.245
39331SOL    HW119890  13.772   3.507   0.285
39331SOL    HW219891  13.900   3.554   0.221
39332SOL     OW19892   0.633   4.776   9.124
39332SOL    HW119893   0.578   4.794   9.048
39332SOL    HW219894   0.662   4.685   9.112
39333SOL     OW19895   1.068  14.449   9.237
39333SOL    HW119896   1.061  14.426   9.144
39333SOL    HW219897   1.049  14.543   9.240
39334SOL     OW19898   0.343   2.415   0.193
39334SOL    HW119899   0.255   2.386   0.167
39334SOL    HW219900   0.335   2.510   0.200
39335SOL     OW19901  11.539   1.925   3.217
39335SOL    HW119902  11.451   1.903   3.246
39335SOL    HW219903  11.590   1.931   3.298
39336SOL     OW19904   6.529   5.320  12.454
39336SOL    HW119905   6.494   5.358  12.373
39336SOL    HW219906   6.504   5.228  12.450
39337SOL     OW19907  12.572   0.770   3.966
39337SOL    HW119908  12.591   0.858   3.934
39337SOL    HW219909  12.499   0.740   3.912
39338SOL     OW19910   7.456   7.153   9.608
39338SOL    HW119911   7.489   7.144   9.519
39338SOL    HW219912   7.484   7.240   9.637
39339SOL     OW19913   5.890  12.634   8.710
39339SOL    HW119914   5.906  12.696   8.781
39339SOL    HW219915   5.970  12.638   8.657
39340SOL     OW19916  10.672  13.505   8.435
39340SOL    HW119917  10.607  13.567   8.468
39340SOL    HW219918  10.651  13.422   8.479
39341SOL     OW19919   7.175   5.178   6.499
39341SOL    HW119920   7.161   5.123   6.422
39341SOL    HW219921   7.128   5.134   6.569
39342SOL     OW19922  10.517  13.404  10.323
39342SOL    HW119923  10.437  13.449  10.350
39342SOL    HW219924  10.572  13.405  10.402
39343SOL     OW19925  10.068   9.581  11.026
39343SOL    HW119926   9.975   9.592  11.004
39343SOL    HW219927  10.099   9.514  10.965
39344SOL     OW19928   3.478   7.288   8.776
39344SOL    HW119929   3.427   7.369   8.784
39344SOL    HW219930   3.508   7.287   8.685
39345SOL     OW19931   9.294   7.027  14.744
39345SOL    HW119932   9.322   6.993  14.659
39345SOL    HW219933   9.287   6.949  14.800
39346SOL     OW19934  11.959   0.364   3.538
39346SOL    HW119935  11.892   0.429   3.557
39346SOL    HW219936  12.041   0.406   3.563
39347SOL     OW19937   9.839   7.540  11.538
39347SOL    HW119938   9.784   7.510  11.611
39347SOL    HW219939   9.821   7.477  11.468
39348SOL     OW19940   2.300  12.548  12.006
39348SOL    HW119941   2.277  12.460  11.975
39348SOL    HW219942   2.248  12.558  12.086
39349SOL     OW19943  11.530   1.342   7.774
39349SOL    HW119944  11.488   1.426   7.786
39349SOL    HW219945  11.620   1.363   7.747
39350SOL     OW19946   6.329  12.442  13.152
39350SOL    HW119947   6.239  12.427  13.123
39350SOL    HW219948   6.320  12.485  13.237
39351SOL     OW19949   2.213   8.000   4.729
39351SOL    HW119950   2.172   7.994   4.816
39351SOL    HW219951   2.177   7.925   4.681
39352SOL     OW19952   5.139  12.564   4.114
39352SOL    HW119953   5.105  12.526   4.194
39352SOL    HW219954   5.188  12.493   4.072
39353SOL     OW19955  12.568  11.630   6.193
39353SOL    HW119956  12.594  11.712   6.152
39353SOL    HW219957  12.613  11.629   6.277
39354SOL     OW19958  11.996   7.889   5.643
39354SOL    HW119959  12.058   7.960   5.663
39354SOL    HW219960  11.910   7.927   5.658
39355SOL     OW19961   5.581   5.025   8.423
39355SOL    HW119962   5.522   5.019   8.348
39355SOL    HW219963   5.660   4.978   8.395
39356SOL     OW19964   8.280   9.442  10.123
39356SOL    HW119965   8.186   9.440  10.106
39356SOL    HW219966   8.287   9.444  10.219
39357SOL     OW19967  10.490   4.120  14.602
39357SOL    HW119968  10.500   4.155  14.513
39357SOL    HW219969  10.417   4.169  14.639
39358SOL     OW19970   5.920   3.913   0.046
39358SOL    HW119971   5.985   3.880  14.852
39358SOL    HW219972   5.949   4.001   0.068
39359SOL     OW19973   9.463   4.001   0.905
39359SOL    HW119974   9.429   4.071   0.850
39359SOL    HW219975   9.418   3.922   0.873
39360SOL     OW19976  14.282   8.902  13.552
39360SOL    HW119977  14.281   8.808  13.534
39360SOL    HW219978  14.326   8.941  13.476
39361SOL     OW19979  14.225  14.210   1.406
39361SOL    HW119980  14.204  14.205   1.312
39361SOL    HW219981  14.233  14.304   1.424
39362SOL     OW19982   1.396  14.199  10.550
39362SOL    HW119983   1.427  14.193  10.459
39362SOL    HW219984   1.394  14.292  10.568
39363SOL     OW19985   4.768  11.079   0.192
39363SOL    HW119986   4.677  11.106   0.205
39363SOL    HW219987   4.762  11.009   0.126
39364SOL     OW19988   5.825  12.721   7.085
39364SOL    HW119989   5.879  12.642   7.084
39364SOL    HW219990   5.740  12.691   7.118
39365SOL     OW19991   6.153  10.758   8.353
39365SOL    HW119992   6.239  10.801   8.351
39365SOL    HW219993   6.108  10.790   8.275
39366SOL     OW19994   9.774   3.409   1.023
39366SOL    HW119995   9.734   3.496   1.024
39366SOL    HW219996   9.742   3.369   0.943
39367SOL     OW19997   1.300   7.242   4.599
39367SOL    HW119998   1.268   7.321   4.556
39367SOL    HW219999   1.221   7.196   4.627
39368SOL     OW20000   7.537   3.837   5.893
39368SOL    HW120001   7.545   3.831   5.797
39368SOL    HW220002   7.599   3.772   5.926
39369SOL     OW20003  11.281  12.717   2.191
39369SOL    HW120004  11.195  12.711   2.148
39369SOL    HW220005  11.288  12.809   2.216
39370SOL     OW20006   5.682  14.033  13.719
39370SOL    HW120007   5.761  14.065  13.675
39370SOL    HW220008   5.692  14.060  13.810
39371SOL     OW20009   2.843   2.701   8.184
39371SOL    HW120010   2.798   2.742   8.110
39371SOL    HW220011   2.776   2.647   8.226
39372SOL     OW20012  13.879   1.997   7.769
39372SOL    HW120013  13.924   2.020   7.850
39372SOL    HW220014  13.825   1.921   7.792
39373SOL     OW20015   6.550   8.985   2.355
39373SOL    HW120016   6.499   8.943   2.286
39373SOL    HW220017   6.557   9.076   2.326
39374SOL     OW20018   2.256  12.680  11.117
39374SOL    HW120019   2.285  12.619  11.185
39374SOL    HW220020   2.295  12.764  11.143
39375SOL     OW20021   0.200   4.755   1.878
39375SOL    HW120022   0.184   4.804   1.797
39375SOL    HW220023   0.167   4.667   1.859
39376SOL     OW20024   2.723  11.085   2.019
39376SOL    HW120025   2.777  11.045   1.951
39376SOL    HW220026   2.776  11.158   2.052
39377SOL     OW20027  11.591   8.708   6.344
39377SOL    HW120028  11.630   8.632   6.387
39377SOL    HW220029  11.561   8.763   6.416
39378SOL     OW20030   9.902   3.444   4.599
39378SOL    HW120031   9.938   3.476   4.516
39378SOL    HW220032   9.845   3.371   4.573
39379SOL     OW20033   8.515   8.229  11.650
39379SOL    HW120034   8.579   8.300  11.652
39379SOL    HW220035   8.445   8.259  11.708
39380SOL     OW20036  14.592   9.837   1.756
39380SOL    HW120037  14.599   9.762   1.698
39380SOL    HW220038  14.584   9.799   1.844
39381SOL     OW20039   9.326  11.831   2.434
39381SOL    HW120040   9.401  11.785   2.474
39381SOL    HW220041   9.313  11.908   2.489
39382SOL     OW20042   9.068   4.614  13.569
39382SOL    HW120043   9.101   4.691  13.523
39382SOL    HW220044   9.086   4.632  13.662
39383SOL     OW20045   9.721  11.801  14.433
39383SOL    HW120046   9.718  11.727  14.495
39383SOL    HW220047   9.632  11.838  14.436
39384SOL     OW20048  13.229  10.416  10.614
39384SOL    HW120049  13.233  10.321  10.621
39384SOL    HW220050  13.245  10.434  10.521
39385SOL     OW20051   2.091   8.198   3.774
39385SOL    HW120052   2.180   8.235   3.774
39385SOL    HW220053   2.077   8.168   3.684
39386SOL     OW20054   9.559   4.359   4.464
39386SOL    HW120055   9.579   4.325   4.551
39386SOL    HW220056   9.620   4.315   4.406
39387SOL     OW20057  13.456   7.104   0.082
39387SOL    HW120058  13.446   7.197   0.062
39387SOL    HW220059  13.501   7.068   0.007
39388SOL     OW20060   4.401   1.142   4.294
39388SOL    HW120061   4.451   1.087   4.355
39388SOL    HW220062   4.414   1.231   4.326
39389SOL     OW20063   0.780   3.462   3.684
39389SOL    HW120064   0.770   3.396   3.616
39389SOL    HW220065   0.872   3.489   3.678
39390SOL     OW20066   8.642  12.508   7.364
39390SOL    HW120067   8.548  12.495   7.377
39390SOL    HW220068   8.652  12.517   7.269
39391SOL     OW20069   1.249  13.130   6.241
39391SOL    HW120070   1.280  13.085   6.162
39391SOL    HW220071   1.200  13.064   6.289
39392SOL     OW20072   9.272  13.601  12.338
39392SOL    HW120073   9.353  13.570  12.377
39392SOL    HW220074   9.253  13.683  12.384
39393SOL     OW20075  10.786   5.539   8.843
39393SOL    HW120076  10.755   5.598   8.774
39393SOL    HW220077  10.715   5.538   8.907
39394SOL     OW20078   3.326   2.308  10.437
39394SOL    HW120079   3.362   2.220  10.429
39394SOL    HW220080   3.348   2.350  10.354
39395SOL     OW20081   7.197   1.147   8.095
39395SOL    HW120082   7.288   1.178   8.096
39395SOL    HW220083   7.146   1.220   8.131
39396SOL     OW20084   9.982  10.734   5.811
39396SOL    HW120085  10.068  10.773   5.796
39396SOL    HW220086   9.936  10.744   5.727
39397SOL     OW20087  10.148  13.995   4.784
39397SOL    HW120088  10.135  13.973   4.692
39397SOL    HW220089  10.178  14.086   4.783
39398SOL     OW20090   8.445   5.380   6.702
39398SOL    HW120091   8.476   5.379   6.612
39398SOL    HW220092   8.401   5.296   6.713
39399SOL     OW20093   2.023   7.995   9.622
39399SOL    HW120094   2.099   8.011   9.566
39399SOL    HW220095   2.055   8.013   9.711
39400SOL     OW20096  12.831  12.913  12.924
39400SOL    HW120097  12.909  12.947  12.969
39400SOL    HW220098  12.758  12.935  12.982
39401SOL     OW20099  10.526   9.535   9.784
39401SOL    HW120100  10.459   9.582   9.735
39401SOL    HW220101  10.482   9.455   9.814
39402SOL     OW20102  14.459   8.166  12.365
39402SOL    HW120103  14.371   8.194  12.387
39402SOL    HW220104  14.507   8.168  12.448
39403SOL     OW20105  12.431   6.803  12.416
39403SOL    HW120106  12.404   6.886  12.456
39403SOL    HW220107  12.365   6.786  12.349
39404SOL     OW20108  13.570  13.623   6.568
39404SOL    HW120109  13.628  13.570   6.513
39404SOL    HW220110  13.482  13.604   6.536
39405SOL     OW20111   9.522   9.949   3.073
39405SOL    HW120112   9.517   9.897   3.154
39405SOL    HW220113   9.446   9.921   3.023
39406SOL     OW20114  14.759  12.945   8.676
39406SOL    HW120115  14.698  12.906   8.614
39406SOL    HW220116  14.846  12.930   8.636
39407SOL     OW20117   4.472   0.091   2.768
39407SOL    HW120118   4.405   0.107   2.702
39407SOL    HW220119   4.555   0.089   2.719
39408SOL     OW20120   8.845   7.890   0.357
39408SOL    HW120121   8.824   7.802   0.325
39408SOL    HW220122   8.784   7.947   0.311
39409SOL     OW20123  11.587   4.992   0.332
39409SOL    HW120124  11.577   5.047   0.409
39409SOL    HW220125  11.515   5.019   0.275
39410SOL     OW20126  10.683  12.282   5.790
39410SOL    HW120127  10.740  12.218   5.746
39410SOL    HW220128  10.744  12.345   5.828
39411SOL     OW20129  12.017  14.275   5.296
39411SOL    HW120130  12.046  14.268   5.387
39411SOL    HW220131  11.925  14.249   5.298
39412SOL     OW20132   0.475   6.383  10.634
39412SOL    HW120133   0.465   6.321  10.562
39412SOL    HW220134   0.569   6.390  10.648
39413SOL     OW20135   2.845   3.810   3.744
39413SOL    HW120136   2.915   3.823   3.680
39413SOL    HW220137   2.888   3.811   3.829
39414SOL     OW20138   4.510   0.525   9.498
39414SOL    HW120139   4.599   0.533   9.464
39414SOL    HW220140   4.464   0.602   9.463
39415SOL     OW20141  13.675  10.716   0.183
39415SOL    HW120142  13.728  10.698   0.261
39415SOL    HW220143  13.739  10.727   0.113
39416SOL     OW20144   7.895   7.968   5.942
39416SOL    HW120145   7.801   7.983   5.937
39416SOL    HW220146   7.931   8.020   5.870
39417SOL     OW20147   0.439  11.093   6.631
39417SOL    HW120148   0.493  11.015   6.647
39417SOL    HW220149   0.358  11.058   6.594
39418SOL     OW20150   0.847   4.560  14.125
39418SOL    HW120151   0.939   4.573  14.102
39418SOL    HW220152   0.839   4.594  14.214
39419SOL     OW20153  12.295   6.052   6.566
39419SOL    HW120154  12.375   6.090   6.602
39419SOL    HW220155  12.229   6.066   6.634
39420SOL     OW20156   2.162  12.203  11.514
39420SOL    HW120157   2.199  12.149  11.444
39420SOL    HW220158   2.232  12.266  11.534
39421SOL     OW20159   3.156  13.118   6.096
39421SOL    HW120160   3.197  13.143   6.178
39421SOL    HW220161   3.067  13.091   6.121
39422SOL     OW20162   1.730  10.007   8.076
39422SOL    HW120163   1.704  10.000   8.168
39422SOL    HW220164   1.660   9.964   8.028
39423SOL     OW20165  11.353   1.004  11.384
39423SOL    HW120166  11.419   0.954  11.430
39423SOL    HW220167  11.273   0.991  11.435
39424SOL     OW20168   9.360   0.064   8.839
39424SOL    HW120169   9.400   0.062   8.752
39424SOL    HW220170   9.321   0.151   8.845
39425SOL     OW20171   8.852  13.816  12.774
39425SOL    HW120172   8.792  13.838  12.703
39425SOL    HW220173   8.905  13.895  12.785
39426SOL     OW20174  13.450   0.554   9.852
39426SOL    HW120175  13.421   0.634   9.807
39426SOL    HW220176  13.370   0.518   9.891
39427SOL     OW20177  13.289   4.873   0.262
39427SOL    HW120178  13.320   4.942   0.205
39427SOL    HW220179  13.254   4.918   0.339
39428SOL     OW20180  11.076  14.470   3.656
39428SOL    HW120181  11.142  14.441   3.718
39428SOL    HW220182  11.091  14.417   3.578
39429SOL     OW20183  11.260   4.039   5.968
39429SOL    HW120184  11.215   4.008   6.046
39429SOL    HW220185  11.192   4.041   5.900
39430SOL     OW20186   1.614  14.436  10.310
39430SOL    HW120187   1.597  14.513  10.364
39430SOL    HW220188   1.705  14.444  10.284
39431SOL     OW20189   0.000   7.183   0.281
39431SOL    HW120190   0.089   7.165   0.310
39431SOL    HW220191  14.844   7.107   0.227
39432SOL     OW20192  12.305  11.596  11.550
39432SOL    HW120193  12.238  11.659  11.579
39432SOL    HW220194  12.351  11.572  11.631
39433SOL     OW20195  14.668   6.800   2.557
39433SOL    HW120196  14.720   6.721   2.573
39433SOL    HW220197  14.677   6.851   2.637
39434SOL     OW20198   4.528  14.769   0.592
39434SOL    HW120199   4.505  14.765   0.685
39434SOL    HW220200   4.529  14.677   0.564
39435SOL     OW20201   8.484   9.505  10.814
39435SOL    HW120202   8.417   9.572  10.825
39435SOL    HW220203   8.474   9.448  10.890
39436SOL     OW20204  13.997   2.065   6.808
39436SOL    HW120205  13.995   2.002   6.880
39436SOL    HW220206  14.033   2.145   6.848
39437SOL     OW20207   6.009   0.275   8.065
39437SOL    HW120208   5.953   0.346   8.032
39437SOL    HW220209   6.098   0.310   8.057
39438SOL     OW20210  10.483   1.212   0.459
39438SOL    HW120211  10.403   1.162   0.449
39438SOL    HW220212  10.464   1.298   0.421
39439SOL     OW20213  10.017  13.680   2.323
39439SOL    HW120214  10.033  13.602   2.377
39439SOL    HW220215  10.055  13.752   2.373
39440SOL     OW20216   0.387   5.025   5.196
39440SOL    HW120217   0.465   5.079   5.213
39440SOL    HW220218   0.418   4.956   5.137
39441SOL     OW20219   3.776   1.970   0.195
39441SOL    HW120220   3.827   1.917   0.134
39441SOL    HW220221   3.823   1.963   0.278
39442SOL     OW20222   1.267   3.578   8.260
39442SOL    HW120223   1.254   3.666   8.224
39442SOL    HW220224   1.286   3.593   8.352
39443SOL     OW20225   7.985   8.401   6.671
39443SOL    HW120226   8.037   8.323   6.653
39443SOL    HW220227   8.045   8.459   6.719
39444SOL     OW20228   9.235   1.055   2.290
39444SOL    HW120229   9.288   1.068   2.212
39444SOL    HW220230   9.148   1.088   2.267
39445SOL     OW20231   6.920  10.616   4.915
39445SOL    HW120232   6.898  10.610   4.822
39445SOL    HW220233   7.013  10.638   4.916
39446SOL     OW20234  12.368  11.620   8.661
39446SOL    HW120235  12.345  11.645   8.751
39446SOL    HW220236  12.302  11.556   8.636
39447SOL     OW20237   9.628  12.438   6.800
39447SOL    HW120238   9.600  12.529   6.794
39447SOL    HW220239   9.588  12.406   6.881
39448SOL     OW20240   5.324   7.744   0.457
39448SOL    HW120241   5.326   7.697   0.373
39448SOL    HW220242   5.281   7.827   0.436
39449SOL     OW20243   2.408  13.179   5.478
39449SOL    HW120244   2.372  13.248   5.422
39449SOL    HW220245   2.382  13.098   5.436
39450SOL     OW20246   7.688   6.463   4.998
39450SOL    HW120247   7.717   6.545   4.958
39450SOL    HW220248   7.759   6.401   4.980
39451SOL     OW20249   2.372   7.316   4.514
39451SOL    HW120250   2.311   7.337   4.584
39451SOL    HW220251   2.452   7.286   4.559
39452SOL     OW20252   2.047  13.337  13.026
39452SOL    HW120253   2.027  13.421  12.984
39452SOL    HW220254   1.988  13.274  12.984
39453SOL     OW20255  12.284   1.293   8.977
39453SOL    HW120256  12.336   1.215   8.961
39453SOL    HW220257  12.249   1.281   9.065
39454SOL     OW20258   7.447   8.618  10.318
39454SOL    HW120259   7.425   8.546  10.377
39454SOL    HW220260   7.449   8.695  10.374
39455SOL     OW20261   9.996   7.136  14.298
39455SOL    HW120262  10.063   7.069  14.314
39455SOL    HW220263   9.928   7.118  14.364
39456SOL     OW20264  12.988   0.524   4.259
39456SOL    HW120265  12.908   0.563   4.222
39456SOL    HW220266  13.059   0.564   4.210
39457SOL     OW20267   4.317   8.321   6.518
39457SOL    HW120268   4.315   8.231   6.485
39457SOL    HW220269   4.270   8.372   6.452
39458SOL     OW20270   8.182  10.383   7.156
39458SOL    HW120271   8.235  10.355   7.230
39458SOL    HW220272   8.100  10.412   7.195
39459SOL     OW20273  10.788   6.858  10.458
39459SOL    HW120274  10.826   6.883  10.374
39459SOL    HW220275  10.720   6.794  10.435
39460SOL     OW20276  14.257  11.114  10.350
39460SOL    HW120277  14.213  11.092  10.268
39460SOL    HW220278  14.243  11.208  10.360
39461SOL     OW20279   1.104  10.074   4.343
39461SOL    HW120280   1.054  10.156   4.343
39461SOL    HW220281   1.166  10.085   4.415
39462SOL     OW20282  10.997   3.115   3.337
39462SOL    HW120283  10.994   3.068   3.420
39462SOL    HW220284  11.012   3.207   3.362
39463SOL     OW20285   6.567   7.336   6.025
39463SOL    HW120286   6.478   7.301   6.029
39463SOL    HW220287   6.565   7.413   6.082
39464SOL     OW20288  11.798  10.895  13.973
39464SOL    HW120289  11.843  10.890  13.889
39464SOL    HW220290  11.864  10.927  14.035
39465SOL     OW20291  14.722   3.842  10.838
39465SOL    HW120292  14.803   3.792  10.843
39465SOL    HW220293  14.750   3.934  10.838
39466SOL     OW20294   9.623   5.293  12.248
39466SOL    HW120295   9.677   5.251  12.181
39466SOL    HW220296   9.681   5.303  12.323
39467SOL     OW20297   5.714   1.579   6.370
39467SOL    HW120298   5.677   1.667   6.364
39467SOL    HW220299   5.639   1.521   6.357
39468SOL     OW20300  14.545   3.642   5.026
39468SOL    HW120301  14.553   3.642   4.931
39468SOL    HW220302  14.633   3.663   5.058
39469SOL     OW20303   5.923   3.117   7.675
39469SOL    HW120304   5.857   3.171   7.717
39469SOL    HW220305   6.002   3.172   7.673
39470SOL     OW20306   7.179   7.947   6.830
39470SOL    HW120307   7.173   8.039   6.804
39470SOL    HW220308   7.100   7.932   6.882
39471SOL     OW20309   8.550  10.687   9.028
39471SOL    HW120310   8.553  10.661   9.120
39471SOL    HW220311   8.602  10.767   9.023
39472SOL     OW20312  14.534   6.013   0.451
39472SOL    HW120313  14.539   5.918   0.450
39472SOL    HW220314  14.562   6.040   0.363
39473SOL     OW20315  13.696  13.297   1.298
39473SOL    HW120316  13.673  13.340   1.380
39473SOL    HW220317  13.792  13.297   1.297
39474SOL     OW20318   5.712  12.669   4.362
39474SOL    HW120319   5.633  12.670   4.309
39474SOL    HW220320   5.755  12.586   4.341
39475SOL     OW20321   2.917   2.608   4.745
39475SOL    HW120322   2.932   2.696   4.711
39475SOL    HW220323   3.003   2.579   4.776
39476SOL     OW20324   3.369  12.499   6.760
39476SOL    HW120325   3.406  12.424   6.713
39476SOL    HW220326   3.325  12.551   6.692
39477SOL     OW20327   8.135  12.083   9.411
39477SOL    HW120328   8.111  12.039   9.329
39477SOL    HW220329   8.091  12.032   9.479
39478SOL     OW20330   5.122   0.181   3.705
39478SOL    HW120331   5.148   0.101   3.659
39478SOL    HW220332   5.033   0.164   3.736
39479SOL     OW20333   7.011   5.845   2.313
39479SOL    HW120334   7.053   5.787   2.250
39479SOL    HW220335   7.080   5.908   2.337
39480SOL     OW20336   8.946   3.525   2.982
39480SOL    HW120337   9.004   3.463   2.938
39480SOL    HW220338   8.919   3.586   2.913
39481SOL     OW20339  13.750   4.443   4.866
39481SOL    HW120340  13.727   4.407   4.952
39481SOL    HW220341  13.795   4.371   4.821
39482SOL     OW20342   1.276   3.542   5.861
39482SOL    HW120343   1.203   3.518   5.919
39482SOL    HW220344   1.244   3.522   5.773
39483SOL     OW20345  10.422  10.496   2.213
39483SOL    HW120346  10.420  10.582   2.253
39483SOL    HW220347  10.515  10.482   2.191
39484SOL     OW20348   6.259   0.443   3.154
39484SOL    HW120349   6.245   0.501   3.079
39484SOL    HW220350   6.184   0.457   3.211
39485SOL     OW20351   1.256   8.228   7.014
39485SOL    HW120352   1.281   8.139   6.989
39485SOL    HW220353   1.298   8.242   7.099
39486SOL     OW20354  13.398   8.561   1.012
39486SOL    HW120355  13.318   8.585   0.966
39486SOL    HW220356  13.421   8.640   1.062
39487SOL     OW20357   7.805   8.292   4.905
39487SOL    HW120358   7.872   8.287   4.973
39487SOL    HW220359   7.725   8.262   4.948
39488SOL     OW20360   3.034   0.928   7.183
39488SOL    HW120361   2.957   0.872   7.176
39488SOL    HW220362   3.016   1.001   7.124
39489SOL     OW20363  10.142  10.861   1.929
39489SOL    HW120364  10.204  10.825   1.866
39489SOL    HW220365  10.145  10.956   1.915
39490SOL     OW20366  14.306   2.750   7.632
39490SOL    HW120367  14.375   2.776   7.571
39490SOL    HW220368  14.327   2.659   7.654
39491SOL     OW20369   3.652  14.156   4.982
39491SOL    HW120370   3.673  14.182   4.892
39491SOL    HW220371   3.704  14.077   4.998
39492SOL     OW20372   7.566   8.889   8.333
39492SOL    HW120373   7.612   8.810   8.305
39492SOL    HW220374   7.635   8.948   8.364
39493SOL     OW20375   3.300  13.744   1.056
39493SOL    HW120376   3.375  13.777   1.106
39493SOL    HW220377   3.224  13.776   1.104
39494SOL     OW20378  11.459   8.367  10.168
39494SOL    HW120379  11.487   8.453  10.138
39494SOL    HW220380  11.442   8.317  10.088
39495SOL     OW20381   2.633  14.254  13.557
39495SOL    HW120382   2.570  14.312  13.599
39495SOL    HW220383   2.705  14.248  13.620
39496SOL     OW20384  12.845   6.835  13.071
39496SOL    HW120385  12.886   6.763  13.120
39496SOL    HW220386  12.833   6.800  12.983
39497SOL     OW20387  10.872   3.871  11.213
39497SOL    HW120388  10.833   3.799  11.164
39497SOL    HW220389  10.808   3.942  11.206
39498SOL     OW20390   3.773  13.013   2.139
39498SOL    HW120391   3.771  13.085   2.076
39498SOL    HW220392   3.766  12.934   2.086
39499SOL     OW20393   8.424   9.880  11.543
39499SOL    HW120394   8.458   9.966  11.517
39499SOL    HW220395   8.484   9.817  11.503
39500SOL     OW20396   8.393   2.082   9.837
39500SOL    HW120397   8.402   2.011   9.773
39500SOL    HW220398   8.299   2.090   9.851
39501SOL     OW20399   5.636   7.975   0.360
39501SOL    HW120400   5.645   7.890   0.317
39501SOL    HW220401   5.682   7.965   0.444
39502SOL     OW20402   2.305  11.970   3.960
39502SOL    HW120403   2.324  12.011   3.876
39502SOL    HW220404   2.367  11.897   3.966
39503SOL     OW20405   8.669   8.404  14.074
39503SOL    HW120406   8.699   8.314  14.059
39503SOL    HW220407   8.743   8.445  14.119
39504SOL     OW20408   3.920   0.949  12.834
39504SOL    HW120409   3.834   0.921  12.865
39504SOL    HW220410   3.967   0.867  12.817
39505SOL     OW20411   6.521   3.976  10.125
39505SOL    HW120412   6.517   3.887  10.160
39505SOL    HW220413   6.442   4.018  10.158
39506SOL     OW20414  12.944  12.596   8.060
39506SOL    HW120415  12.932  12.631   8.148
39506SOL    HW220416  12.927  12.669   8.001
39507SOL     OW20417  10.382  11.026   1.616
39507SOL    HW120418  10.444  10.953   1.621
39507SOL    HW220419  10.437  11.103   1.599
39508SOL     OW20420   1.211   2.856  14.114
39508SOL    HW120421   1.297   2.897  14.122
39508SOL    HW220422   1.221   2.793  14.043
39509SOL     OW20423  12.406   2.800   1.521
39509SOL    HW120424  12.479   2.857   1.498
39509SOL    HW220425  12.424   2.718   1.477
39510SOL     OW20426   0.089   7.443   6.269
39510SOL    HW120427   0.137   7.508   6.320
39510SOL    HW220428   0.007   7.487   6.245
39511SOL     OW20429   6.272  12.023   3.021
39511SOL    HW120430   6.279  11.945   3.077
39511SOL    HW220431   6.183  12.020   2.986
39512SOL     OW20432   2.109  12.510  13.939
39512SOL    HW120433   2.045  12.573  13.973
39512SOL    HW220434   2.063  12.465  13.869
39513SOL     OW20435  12.280   8.193   9.638
39513SOL    HW120436  12.371   8.162   9.632
39513SOL    HW220437  12.228   8.113   9.643
39514SOL     OW20438   1.515   8.445  10.424
39514SOL    HW120439   1.517   8.536  10.395
39514SOL    HW220440   1.555   8.396  10.352
39515SOL     OW20441   4.343   6.885  11.233
39515SOL    HW120442   4.336   6.980  11.227
39515SOL    HW220443   4.401   6.861  11.161
39516SOL     OW20444  13.018   1.983   1.431
39516SOL    HW120445  12.941   2.022   1.389
39516SOL    HW220446  13.051   1.920   1.366
39517SOL     OW20447  13.141   0.321   2.775
39517SOL    HW120448  13.062   0.273   2.800
39517SOL    HW220449  13.108   0.397   2.727
39518SOL     OW20450   6.743  10.486   5.052
39518SOL    HW120451   6.829  10.514   5.022
39518SOL    HW220452   6.681  10.533   4.995
39519SOL     OW20453   9.164   0.768  14.271
39519SOL    HW120454   9.160   0.690  14.215
39519SOL    HW220455   9.249   0.760  14.315
39520SOL     OW20456   5.875   3.770  10.559
39520SOL    HW120457   5.902   3.678  10.568
39520SOL    HW220458   5.951   3.814  10.521
39521SOL     OW20459   8.772   2.920   8.098
39521SOL    HW120460   8.719   2.897   8.022
39521SOL    HW220461   8.713   2.911   8.173
39522SOL     OW20462   6.729  14.528   2.207
39522SOL    HW120463   6.822  14.551   2.206
39522SOL    HW220464   6.684  14.609   2.230
39523SOL     OW20465   9.158   5.606   6.612
39523SOL    HW120466   9.173   5.651   6.696
39523SOL    HW220467   9.099   5.664   6.564
39524SOL     OW20468   4.960   8.986  11.783
39524SOL    HW120469   4.866   8.989  11.802
39524SOL    HW220470   4.995   8.925  11.847
39525SOL     OW20471   6.601   5.155   4.020
39525SOL    HW120472   6.658   5.216   4.068
39525SOL    HW220473   6.514   5.194   4.027
39526SOL     OW20474   7.482   3.383   5.200
39526SOL    HW120475   7.512   3.371   5.110
39526SOL    HW220476   7.475   3.294   5.235
39527SOL     OW20477   2.560   1.434  14.300
39527SOL    HW120478   2.537   1.342  14.311
39527SOL    HW220479   2.564   1.469  14.389
39528SOL     OW20480   4.909   7.465  11.277
39528SOL    HW120481   4.925   7.445  11.370
39528SOL    HW220482   4.992   7.498  11.245
39529SOL     OW20483  11.609  10.995   9.976
39529SOL    HW120484  11.585  10.926   9.914
39529SOL    HW220485  11.618  10.950  10.060
39530SOL     OW20486   2.369  10.370   6.141
39530SOL    HW120487   2.338  10.364   6.051
39530SOL    HW220488   2.371  10.280   6.173
39531SOL     OW20489   7.411   1.278   4.230
39531SOL    HW120490   7.484   1.282   4.291
39531SOL    HW220491   7.359   1.203   4.258
39532SOL     OW20492   6.566   3.069   8.816
39532SOL    HW120493   6.550   3.152   8.859
39532SOL    HW220494   6.621   3.091   8.741
39533SOL     OW20495   8.241   4.386  12.925
39533SOL    HW120496   8.162   4.338  12.899
39533SOL    HW220497   8.229   4.474  12.888
39534SOL     OW20498   3.752  14.590  10.693
39534SOL    HW120499   3.721  14.595  10.783
39534SOL    HW220500   3.748  14.680  10.661
39535SOL     OW20501   3.142   4.835   0.858
39535SOL    HW120502   3.078   4.875   0.916
39535SOL    HW220503   3.094   4.767   0.811
39536SOL     OW20504  10.177   3.025   5.692
39536SOL    HW120505  10.235   2.988   5.625
39536SOL    HW220506  10.092   2.986   5.674
39537SOL     OW20507  13.101   7.443   4.702
39537SOL    HW120508  13.017   7.471   4.665
39537SOL    HW220509  13.165   7.505   4.667
39538SOL     OW20510   6.602   9.408  13.319
39538SOL    HW120511   6.543   9.339  13.291
39538SOL    HW220512   6.556   9.453  13.390
39539SOL     OW20513   6.950  11.508   9.996
39539SOL    HW120514   6.874  11.566   9.994
39539SOL    HW220515   6.997  11.527   9.915
39540SOL     OW20516   4.805  11.196   8.162
39540SOL    HW120517   4.881  11.164   8.113
39540SOL    HW220518   4.731  11.148   8.125
39541SOL     OW20519   3.100   7.176  10.408
39541SOL    HW120520   3.186   7.134  10.405
39541SOL    HW220521   3.054   7.133  10.480
39542SOL     OW20522  11.624   3.259   9.520
39542SOL    HW120523  11.584   3.332   9.472
39542SOL    HW220524  11.555   3.192   9.522
39543SOL     OW20525   9.521   7.423   3.924
39543SOL    HW120526   9.515   7.472   3.842
39543SOL    HW220527   9.481   7.338   3.905
39544SOL     OW20528  12.749  14.293   3.824
39544SOL    HW120529  12.818  14.354   3.849
39544SOL    HW220530  12.685  14.347   3.778
39545SOL     OW20531   8.900  14.372   9.995
39545SOL    HW120532   8.827  14.428  10.020
39545SOL    HW220533   8.945  14.353  10.077
39546SOL     OW20534   1.942  14.711   3.596
39546SOL    HW120535   2.008  14.761   3.645
39546SOL    HW220536   1.942  14.751   3.509
39547SOL     OW20537   0.332   2.381  10.818
39547SOL    HW120538   0.302   2.471  10.831
39547SOL    HW220539   0.396   2.386  10.748
39548SOL     OW20540  10.680   7.718   4.222
39548SOL    HW120541  10.694   7.653   4.290
39548SOL    HW220542  10.586   7.716   4.204
39549SOL     OW20543   3.747   6.849   2.767
39549SOL    HW120544   3.799   6.770   2.781
39549SOL    HW220545   3.746   6.892   2.852
39550SOL     OW20546   1.833   2.082   5.300
39550SOL    HW120547   1.884   2.066   5.220
39550SOL    HW220548   1.871   2.161   5.337
39551SOL     OW20549   3.682  10.324   7.994
39551SOL    HW120550   3.702  10.291   8.082
39551SOL    HW220551   3.748  10.282   7.938
39552SOL     OW20552   4.626   4.796  11.645
39552SOL    HW120553   4.608   4.715  11.597
39552SOL    HW220554   4.646   4.860  11.577
39553SOL     OW20555   8.140  12.995   8.254
39553SOL    HW120556   8.114  13.087   8.250
39553SOL    HW220557   8.124  12.969   8.344
39554SOL     OW20558   6.087  13.061   4.885
39554SOL    HW120559   6.152  12.997   4.857
39554SOL    HW220560   6.015  13.050   4.822
39555SOL     OW20561   3.397   3.144  10.192
39555SOL    HW120562   3.404   3.056  10.229
39555SOL    HW220563   3.487   3.176  10.187
39556SOL     OW20564   0.886   1.117   6.385
39556SOL    HW120565   0.843   1.148   6.465
39556SOL    HW220566   0.970   1.163   6.384
39557SOL     OW20567  11.785   9.686   0.129
39557SOL    HW120568  11.777   9.771   0.171
39557SOL    HW220569  11.734   9.627   0.184
39558SOL     OW20570   8.809  11.115   3.853
39558SOL    HW120571   8.782  11.027   3.877
39558SOL    HW220572   8.905  11.109   3.845
39559SOL     OW20573  11.381   8.924  10.598
39559SOL    HW120574  11.466   8.963  10.577
39559SOL    HW220575  11.402   8.834  10.625
39560SOL     OW20576  13.717   1.421  11.354
39560SOL    HW120577  13.684   1.381  11.273
39560SOL    HW220578  13.804   1.385  11.365
39561SOL     OW20579   4.392  10.244  13.930
39561SOL    HW120580   4.481  10.279  13.918
39561SOL    HW220581   4.335  10.308  13.887
39562SOL     OW20582   6.500   9.868   6.437
39562SOL    HW120583   6.424   9.825   6.397
39562SOL    HW220584   6.575   9.833   6.391
39563SOL     OW20585  11.216  13.118  13.314
39563SOL    HW120586  11.146  13.067  13.275
39563SOL    HW220587  11.178  13.154  13.395
39564SOL     OW20588   4.556   0.863   1.809
39564SOL    HW120589   4.580   0.938   1.755
39564SOL    HW220590   4.495   0.813   1.756
39565SOL     OW20591   8.092   8.097   5.759
39565SOL    HW120592   8.094   8.162   5.687
39565SOL    HW220593   8.131   8.019   5.721
39566SOL     OW20594   7.954   6.793   4.045
39566SOL    HW120595   8.010   6.785   3.968
39566SOL    HW220596   7.952   6.887   4.063
39567SOL     OW20597  10.201   4.337  10.354
39567SOL    HW120598  10.148   4.314  10.430
39567SOL    HW220599  10.284   4.293  10.368
39568SOL     OW20600   6.347   6.864   6.095
39568SOL    HW120601   6.315   6.795   6.036
39568SOL    HW220602   6.419   6.905   6.047
39569SOL     OW20603   9.071   4.207   4.463
39569SOL    HW120604   9.147   4.243   4.418
39569SOL    HW220605   9.010   4.183   4.393
39570SOL     OW20606   3.426   3.778  13.104
39570SOL    HW120607   3.432   3.782  13.199
39570SOL    HW220608   3.336   3.807  13.085
39571SOL     OW20609  11.806  10.235   3.007
39571SOL    HW120610  11.758  10.276   3.080
39571SOL    HW220611  11.896  10.265   3.018
39572SOL     OW20612   8.438   1.574   2.830
39572SOL    HW120613   8.449   1.665   2.803
39572SOL    HW220614   8.402   1.530   2.753
39573SOL     OW20615   5.724   9.064  11.523
39573SOL    HW120616   5.652   9.004  11.544
39573SOL    HW220617   5.698   9.105  11.441
39574SOL     OW20618  14.430   3.227   0.166
39574SOL    HW120619  14.506   3.281   0.190
39574SOL    HW220620  14.377   3.284   0.110
39575SOL     OW20621   5.764   4.778   0.605
39575SOL    HW120622   5.701   4.850   0.604
39575SOL    HW220623   5.711   4.701   0.622
39576SOL     OW20624   3.179  14.293  14.212
39576SOL    HW120625   3.145  14.282  14.300
39576SOL    HW220626   3.187  14.387  14.200
39577SOL     OW20627   0.456   0.959  13.925
39577SOL    HW120628   0.392   1.021  13.961
39577SOL    HW220629   0.448   0.968  13.830
39578SOL     OW20630  13.349   0.119   2.269
39578SOL    HW120631  13.425   0.075   2.306
39578SOL    HW220632  13.314   0.172   2.341
39579SOL     OW20633   0.189   7.864   6.787
39579SOL    HW120634   0.137   7.935   6.823
39579SOL    HW220635   0.233   7.903   6.712
39580SOL     OW20636   6.695  12.684   5.231
39580SOL    HW120637   6.667  12.667   5.321
39580SOL    HW220638   6.776  12.734   5.241
39581SOL     OW20639   4.072  13.698   4.103
39581SOL    HW120640   4.132  13.767   4.071
39581SOL    HW220641   4.114  13.665   4.183
39582SOL     OW20642  12.388  10.480   1.554
39582SOL    HW120643  12.345  10.426   1.487
39582SOL    HW220644  12.365  10.569   1.530
39583SOL     OW20645  11.918   7.078  12.493
39583SOL    HW120646  11.937   7.045  12.406
39583SOL    HW220647  11.857   7.151  12.479
39584SOL     OW20648   3.202  13.389   8.944
39584SOL    HW120649   3.202  13.395   8.848
39584SOL    HW220650   3.194  13.480   8.974
39585SOL     OW20651   9.414   3.714  11.273
39585SOL    HW120652   9.470   3.677  11.341
39585SOL    HW220653   9.437   3.807  11.270
39586SOL     OW20654   8.100  10.788   7.987
39586SOL    HW120655   8.014  10.752   7.967
39586SOL    HW220656   8.118  10.758   8.076
39587SOL     OW20657  12.574   2.256   7.370
39587SOL    HW120658  12.502   2.195   7.388
39587SOL    HW220659  12.593   2.244   7.277
39588SOL     OW20660   4.399   6.857   8.572
39588SOL    HW120661   4.482   6.903   8.590
39588SOL    HW220662   4.389   6.797   8.646
39589SOL     OW20663  11.900   6.467   3.710
39589SOL    HW120664  11.857   6.385   3.733
39589SOL    HW220665  11.974   6.474   3.770
39590SOL     OW20666   9.127  12.408   6.406
39590SOL    HW120667   9.105  12.344   6.474
39590SOL    HW220668   9.045  12.421   6.358
39591SOL     OW20669  12.920   6.615   9.627
39591SOL    HW120670  12.969   6.535   9.647
39591SOL    HW220671  12.886   6.644   9.711
39592SOL     OW20672   9.354  11.352   1.947
39592SOL    HW120673   9.447  11.338   1.931
39592SOL    HW220674   9.311  11.320   1.868
39593SOL     OW20675  12.176   8.699   0.084
39593SOL    HW120676  12.120   8.623   0.075
39593SOL    HW220677  12.258   8.665   0.119
39594SOL     OW20678   5.970   0.889   5.517
39594SOL    HW120679   6.066   0.886   5.517
39594SOL    HW220680   5.944   0.826   5.450
39595SOL     OW20681   3.822   7.545  11.391
39595SOL    HW120682   3.853   7.619  11.338
39595SOL    HW220683   3.746   7.512  11.343
39596SOL     OW20684   1.322   9.242   3.891
39596SOL    HW120685   1.364   9.174   3.944
39596SOL    HW220686   1.344   9.220   3.801
39597SOL     OW20687   2.741  14.776   7.882
39597SOL    HW120688   2.798  14.765   7.958
39597SOL    HW220689   2.702  14.863   7.894
39598SOL     OW20690   8.601   6.756   2.980
39598SOL    HW120691   8.664   6.684   2.973
39598SOL    HW220692   8.555   6.740   3.063
39599SOL     OW20693   8.147   5.309   9.550
39599SOL    HW120694   8.121   5.349   9.468
39599SOL    HW220695   8.139   5.215   9.535
39600SOL     OW20696   7.400  12.693   9.401
39600SOL    HW120697   7.347  12.677   9.479
39600SOL    HW220698   7.449  12.612   9.388
39601SOL     OW20699  13.117   3.552   2.887
39601SOL    HW120700  13.041   3.605   2.865
39601SOL    HW220701  13.183   3.615   2.914
39602SOL     OW20702  11.326  13.533  12.988
39602SOL    HW120703  11.413  13.557  12.956
39602SOL    HW220704  11.312  13.444  12.956
39603SOL     OW20705   1.430   1.292   8.794
39603SOL    HW120706   1.493   1.329   8.732
39603SOL    HW220707   1.400   1.367   8.846
39604SOL     OW20708   7.788   0.671   3.406
39604SOL    HW120709   7.771   0.690   3.499
39604SOL    HW220710   7.702   0.678   3.364
39605SOL     OW20711   1.989  14.210  10.884
39605SOL    HW120712   2.065  14.152  10.894
39605SOL    HW220713   1.913  14.153  10.896
39606SOL     OW20714  12.158   7.136  13.346
39606SOL    HW120715  12.242   7.130  13.301
39606SOL    HW220716  12.177   7.111  13.436
39607SOL     OW20717   1.253   3.751  13.760
39607SOL    HW120718   1.177   3.710  13.801
39607SOL    HW220719   1.264   3.703  13.677
39608SOL     OW20720   2.229   3.683   7.572
39608SOL    HW120721   2.205   3.771   7.543
39608SOL    HW220722   2.163   3.626   7.533
39609SOL     OW20723   0.891  10.239  14.599
39609SOL    HW120724   0.952  10.311  14.609
39609SOL    HW220725   0.944  10.168  14.562
39610SOL     OW20726   6.645   7.634  13.856
39610SOL    HW120727   6.668   7.601  13.942
39610SOL    HW220728   6.603   7.560  13.811
39611SOL     OW20729  13.383   6.113   0.935
39611SOL    HW120730  13.308   6.137   0.881
39611SOL    HW220731  13.440   6.063   0.876
39612SOL     OW20732  14.277  11.353   5.914
39612SOL    HW120733  14.354  11.356   5.858
39612SOL    HW220734  14.204  11.335   5.855
39613SOL     OW20735   2.037   6.975   9.006
39613SOL    HW120736   1.952   6.967   8.963
39613SOL    HW220737   2.021   6.947   9.096
39614SOL     OW20738   4.291   4.839   5.004
39614SOL    HW120739   4.293   4.831   5.100
39614SOL    HW220740   4.372   4.797   4.975
39615SOL     OW20741   2.359   6.276   4.988
39615SOL    HW120742   2.396   6.264   5.075
39615SOL    HW220743   2.300   6.352   4.997
39616SOL     OW20744  11.411  13.367   6.340
39616SOL    HW120745  11.367  13.320   6.411
39616SOL    HW220746  11.499  13.329   6.337
39617SOL     OW20747   7.435   3.815  10.636
39617SOL    HW120748   7.343   3.814  10.661
39617SOL    HW220749   7.440   3.879  10.565
39618SOL     OW20750   7.891   0.605  12.180
39618SOL    HW120751   7.841   0.628  12.101
39618SOL    HW220752   7.839   0.537  12.222
39619SOL     OW20753  10.200  10.393  13.408
39619SOL    HW120754  10.243  10.362  13.487
39619SOL    HW220755  10.181  10.314  13.358
39620SOL     OW20756   5.844   4.045   2.674
39620SOL    HW120757   5.905   4.001   2.733
39620SOL    HW220758   5.844   3.991   2.595
39621SOL     OW20759   9.458   4.239  14.225
39621SOL    HW120760   9.420   4.238  14.313
39621SOL    HW220761   9.496   4.326  14.216
39622SOL     OW20762   3.467   0.998   5.630
39622SOL    HW120763   3.484   1.089   5.607
39622SOL    HW220764   3.381   0.999   5.672
39623SOL     OW20765   8.475  10.396  12.208
39623SOL    HW120766   8.516  10.341  12.142
39623SOL    HW220767   8.547  10.427  12.262
39624SOL     OW20768  10.391   2.853   8.286
39624SOL    HW120769  10.398   2.788   8.355
39624SOL    HW220770  10.324   2.914   8.317
39625SOL     OW20771   4.590   9.293  12.938
39625SOL    HW120772   4.509   9.242  12.940
39625SOL    HW220773   4.657   9.234  12.973
39626SOL     OW20774   2.156   0.362   8.339
39626SOL    HW120775   2.141   0.304   8.265
39626SOL    HW220776   2.072   0.362   8.386
39627SOL     OW20777   6.957  10.215   5.827
39627SOL    HW120778   6.931  10.174   5.744
39627SOL    HW220779   7.050  10.194   5.835
39628SOL     OW20780  12.409   2.286   3.447
39628SOL    HW120781  12.336   2.292   3.385
39628SOL    HW220782  12.432   2.378   3.465
39629SOL     OW20783  12.057   0.119  12.752
39629SOL    HW120784  12.081   0.179  12.822
39629SOL    HW220785  12.069   0.032  12.789
39630SOL     OW20786  14.430  10.283  12.294
39630SOL    HW120787  14.463  10.201  12.332
39630SOL    HW220788  14.508  10.338  12.285
39631SOL     OW20789   3.387  10.513   8.661
39631SOL    HW120790   3.472  10.470   8.671
39631SOL    HW220791   3.341  10.460   8.596
39632SOL     OW20792   7.893   1.128   0.121
39632SOL    HW120793   7.929   1.200   0.173
39632SOL    HW220794   7.969   1.087   0.081
39633SOL     OW20795  10.803   4.021   1.807
39633SOL    HW120796  10.745   3.958   1.850
39633SOL    HW220797  10.776   4.018   1.715
39634SOL     OW20798   8.690  11.515  11.264
39634SOL    HW120799   8.701  11.588  11.325
39634SOL    HW220800   8.603  11.481  11.282
39635SOL     OW20801   3.939   5.997   0.973
39635SOL    HW120802   4.018   6.052   0.969
39635SOL    HW220803   3.934   5.956   0.887
39636SOL     OW20804  11.923   1.612  11.305
39636SOL    HW120805  11.839   1.655  11.289
39636SOL    HW220806  11.929   1.607  11.400
39637SOL     OW20807   9.091  14.274  10.173
39637SOL    HW120808   9.172  14.323  10.190
39637SOL    HW220809   9.119  14.198  10.123
39638SOL     OW20810  12.341   2.991   5.131
39638SOL    HW120811  12.381   3.077   5.121
39638SOL    HW220812  12.351   2.951   5.045
39639SOL     OW20813  12.135   4.787  11.756
39639SOL    HW120814  12.054   4.816  11.713
39639SOL    HW220815  12.154   4.702  11.717
39640SOL     OW20816   5.308   6.989   0.073
39640SOL    HW120817   5.350   6.949  14.865
39640SOL    HW220818   5.214   6.980   0.057
39641SOL     OW20819   6.288   5.001   2.011
39641SOL    HW120820   6.337   4.929   1.972
39641SOL    HW220821   6.346   5.035   2.079
39642SOL     OW20822  10.080   9.530   7.768
39642SOL    HW120823  10.023   9.600   7.802
39642SOL    HW220824  10.131   9.502   7.844
39643SOL     OW20825   1.085  13.325   8.650
39643SOL    HW120826   1.119  13.236   8.661
39643SOL    HW220827   1.148  13.380   8.697
39644SOL     OW20828  13.480   6.863  10.166
39644SOL    HW120829  13.473   6.958  10.171
39644SOL    HW220830  13.556   6.847  10.110
39645SOL     OW20831   6.587   4.817   9.489
39645SOL    HW120832   6.499   4.813   9.453
39645SOL    HW220833   6.614   4.908   9.476
39646SOL     OW20834  11.812   8.825   4.057
39646SOL    HW120835  11.733   8.775   4.035
39646SOL    HW220836  11.822   8.887   3.984
39647SOL     OW20837   2.938   2.125  12.712
39647SOL    HW120838   2.866   2.073  12.676
39647SOL    HW220839   2.899   2.173  12.785
39648SOL     OW20840   4.848  14.040  10.779
39648SOL    HW120841   4.847  13.945  10.783
39648SOL    HW220842   4.791  14.062  10.705
39649SOL     OW20843  12.082   4.092  13.109
39649SOL    HW120844  12.023   4.116  13.038
39649SOL    HW220845  12.059   4.153  13.180
39650SOL     OW20846   8.145  14.079   0.121
39650SOL    HW120847   8.071  14.136   0.144
39650SOL    HW220848   8.221  14.122   0.160
39651SOL     OW20849   7.206   0.352  11.313
39651SOL    HW120850   7.147   0.312  11.249
39651SOL    HW220851   7.210   0.289  11.385
39652SOL     OW20852   4.543   4.908   1.213
39652SOL    HW120853   4.511   4.820   1.195
39652SOL    HW220854   4.617   4.894   1.272
39653SOL     OW20855  10.421   7.869  11.354
39653SOL    HW120856  10.394   7.853  11.263
39653SOL    HW220857  10.353   7.827  11.407
39654SOL     OW20858  14.095   8.376   8.018
39654SOL    HW120859  14.078   8.470   8.007
39654SOL    HW220860  14.124   8.347   7.931
39655SOL     OW20861  10.795   2.912   6.276
39655SOL    HW120862  10.739   2.867   6.340
39655SOL    HW220863  10.741   2.917   6.197
39656SOL     OW20864   8.681   9.430   6.504
39656SOL    HW120865   8.622   9.501   6.529
39656SOL    HW220866   8.703   9.386   6.586
39657SOL     OW20867  12.432  14.389  10.596
39657SOL    HW120868  12.469  14.304  10.572
39657SOL    HW220869  12.337  14.375  10.591
39658SOL     OW20870   7.766   7.337  11.315
39658SOL    HW120871   7.780   7.396  11.240
39658SOL    HW220872   7.733   7.393  11.384
39659SOL     OW20873   5.743  14.852   8.288
39659SOL    HW120874   5.659   0.009   8.248
39659SOL    HW220875   5.809   0.023   8.232
39660SOL     OW20876   9.125   4.441  11.265
39660SOL    HW120877   9.106   4.371  11.203
39660SOL    HW220878   9.096   4.521  11.221
39661SOL     OW20879   6.964   5.145   0.941
39661SOL    HW120880   6.943   5.202   1.015
39661SOL    HW220881   7.035   5.191   0.895
39662SOL     OW20882  11.255  10.932  11.047
39662SOL    HW120883  11.347  10.948  11.068
39662SOL    HW220884  11.212  10.926  11.133
39663SOL     OW20885  11.170  11.001  10.536
39663SOL    HW120886  11.175  11.064  10.608
39663SOL    HW220887  11.084  10.960  10.546
39664SOL     OW20888  13.810  13.537   0.573
39664SOL    HW120889  13.802  13.444   0.552
39664SOL    HW220890  13.899  13.547   0.605
39665SOL     OW20891  10.837   5.927   3.637
39665SOL    HW120892  10.745   5.945   3.621
39665SOL    HW220893  10.875   5.916   3.550
39666SOL     OW20894   7.901   6.834   9.485
39666SOL    HW120895   7.866   6.867   9.402
39666SOL    HW220896   7.859   6.749   9.497
39667SOL     OW20897   7.704  12.592  14.835
39667SOL    HW120898   7.768  12.605   0.038
39667SOL    HW220899   7.756  12.568  14.759
39668SOL     OW20900  14.552   2.190  11.961
39668SOL    HW120901  14.611   2.216  11.890
39668SOL    HW220902  14.609   2.185  12.038
39669SOL     OW20903   6.245   9.403   4.016
39669SOL    HW120904   6.168   9.409   3.959
39669SOL    HW220905   6.319   9.411   3.956
39670SOL     OW20906  10.643   6.639   3.087
39670SOL    HW120907  10.555   6.612   3.060
39670SOL    HW220908  10.652   6.604   3.175
39671SOL     OW20909  12.434  13.441   3.210
39671SOL    HW120910  12.503  13.433   3.144
39671SOL    HW220911  12.361  13.391   3.174
39672SOL     OW20912   3.114   5.584   3.782
39672SOL    HW120913   3.180   5.653   3.795
39672SOL    HW220914   3.093   5.588   3.689
39673SOL     OW20915   5.750   8.538   8.787
39673SOL    HW120916   5.681   8.574   8.731
39673SOL    HW220917   5.736   8.443   8.784
39674SOL     OW20918   0.645  11.366  10.966
39674SOL    HW120919   0.694  11.308  10.908
39674SOL    HW220920   0.562  11.322  10.980
39675SOL     OW20921   2.070  12.190   7.947
39675SOL    HW120922   2.093  12.107   7.989
39675SOL    HW220923   2.122  12.256   7.994
39676SOL     OW20924   3.937   8.279  12.250
39676SOL    HW120925   3.874   8.298  12.320
39676SOL    HW220926   3.980   8.363  12.233
39677SOL     OW20927   3.775   5.621   0.518
39677SOL    HW120928   3.688   5.658   0.532
39677SOL    HW220929   3.807   5.662   0.438
39678SOL     OW20930  12.947   3.087   1.430
39678SOL    HW120931  12.906   3.112   1.347
39678SOL    HW220932  13.041   3.096   1.414
39679SOL     OW20933   2.503   8.128   9.895
39679SOL    HW120934   2.502   8.070   9.972
39679SOL    HW220935   2.587   8.173   9.900
39680SOL     OW20936  14.227   0.917   5.844
39680SOL    HW120937  14.226   0.965   5.761
39680SOL    HW220938  14.313   0.935   5.881
39681SOL     OW20939   7.837   0.686   1.608
39681SOL    HW120940   7.793   0.698   1.524
39681SOL    HW220941   7.896   0.761   1.614
39682SOL     OW20942  11.142   5.839   8.255
39682SOL    HW120943  11.101   5.779   8.317
39682SOL    HW220944  11.086   5.917   8.255
39683SOL     OW20945   8.670   6.605   5.053
39683SOL    HW120946   8.667   6.510   5.043
39683SOL    HW220947   8.654   6.620   5.146
39684SOL     OW20948  10.875   8.800   9.119
39684SOL    HW120949  10.933   8.873   9.136
39684SOL    HW220950  10.933   8.729   9.091
39685SOL     OW20951   6.475  11.619   9.121
39685SOL    HW120952   6.441  11.530   9.130
39685SOL    HW220953   6.397  11.673   9.106
39686SOL     OW20954   8.392  11.341   2.718
39686SOL    HW120955   8.357  11.309   2.635
39686SOL    HW220956   8.435  11.424   2.697
39687SOL     OW20957   4.989   4.833   1.564
39687SOL    HW120958   5.026   4.844   1.652
39687SOL    HW220959   5.051   4.879   1.507
39688SOL     OW20960  10.264   8.447   7.980
39688SOL    HW120961  10.345   8.476   7.939
39688SOL    HW220962  10.245   8.362   7.940
39689SOL     OW20963   6.484  12.924   6.458
39689SOL    HW120964   6.408  12.929   6.399
39689SOL    HW220965   6.503  13.015   6.480
39690SOL     OW20966   5.260   2.779   8.029
39690SOL    HW120967   5.204   2.733   7.967
39690SOL    HW220968   5.274   2.716   8.099
39691SOL     OW20969   3.181   9.767  13.187
39691SOL    HW120970   3.194   9.718  13.268
39691SOL    HW220971   3.263   9.755  13.139
39692SOL     OW20972  11.731   3.787   3.787
39692SOL    HW120973  11.821   3.781   3.756
39692SOL    HW220974  11.726   3.723   3.858
39693SOL     OW20975   1.432   9.187  10.874
39693SOL    HW120976   1.348   9.153  10.905
39693SOL    HW220977   1.490   9.181  10.949
39694SOL     OW20978   2.918  11.170   6.519
39694SOL    HW120979   2.925  11.178   6.614
39694SOL    HW220980   3.008  11.152   6.490
39695SOL     OW20981   6.493  14.813   7.092
39695SOL    HW120982   6.459  14.839   7.178
39695SOL    HW220983   6.582  14.849   7.090
39696SOL     OW20984   0.449   1.770  14.437
39696SOL    HW120985   0.508   1.824  14.386
39696SOL    HW220986   0.376   1.751  14.378
39697SOL     OW20987   8.070   2.005   9.489
39697SOL    HW120988   8.121   1.953   9.427
39697SOL    HW220989   8.105   1.982   9.575
39698SOL     OW20990   9.853   1.159   3.254
39698SOL    HW120991   9.793   1.133   3.324
39698SOL    HW220992   9.902   1.080   3.234
39699SOL     OW20993   6.472  12.619  12.969
39699SOL    HW120994   6.396  12.581  13.014
39699SOL    HW220995   6.455  12.713  12.968
39700SOL     OW20996   1.178   9.453  10.348
39700SOL    HW120997   1.117   9.478  10.278
39700SOL    HW220998   1.133   9.382  10.394
39701SOL     OW20999  12.969   0.944   3.024
39701SOL    HW121000  13.020   0.869   3.054
39701SOL    HW221001  12.961   1.000   3.102
39702SOL     OW21002  11.800   1.108  14.121
39702SOL    HW121003  11.846   1.054  14.186
39702SOL    HW221004  11.865   1.173  14.094
39703SOL     OW21005   7.252   5.267   8.741
39703SOL    HW121006   7.221   5.356   8.754
39703SOL    HW221007   7.174   5.216   8.722
39704SOL     OW21008  11.239   4.139  13.023
39704SOL    HW121009  11.188   4.079  12.969
39704SOL    HW221010  11.315   4.161  12.969
39705SOL     OW21011   1.638   5.447  12.538
39705SOL    HW121012   1.655   5.501  12.615
39705SOL    HW221013   1.719   5.450  12.488
39706SOL     OW21014   1.621   8.439   0.408
39706SOL    HW121015   1.538   8.411   0.448
39706SOL    HW221016   1.599   8.454   0.316
39707SOL     OW21017   1.788   4.652   1.088
39707SOL    HW121018   1.798   4.734   1.136
39707SOL    HW221019   1.695   4.630   1.098
39708SOL     OW21020   1.886   0.754  11.741
39708SOL    HW121021   1.922   0.828  11.692
39708SOL    HW221022   1.960   0.721  11.792
39709SOL     OW21023   6.153  13.308   9.918
39709SOL    HW121024   6.207  13.231   9.901
39709SOL    HW221025   6.201  13.357   9.985
39710SOL     OW21026   9.581  14.109   4.880
39710SOL    HW121027   9.666  14.135   4.915
39710SOL    HW221028   9.585  14.131   4.787
39711SOL     OW21029   5.461   5.626   6.231
39711SOL    HW121030   5.541   5.578   6.212
39711SOL    HW221031   5.477   5.713   6.195
39712SOL     OW21032   4.614  14.792   6.182
39712SOL    HW121033   4.569  14.789   6.266
39712SOL    HW221034   4.545  14.806   6.118
39713SOL     OW21035  10.758  11.703   1.227
39713SOL    HW121036  10.796  11.789   1.249
39713SOL    HW221037  10.681  11.725   1.175
39714SOL     OW21038   0.959  11.894   7.648
39714SOL    HW121039   0.912  11.843   7.713
39714SOL    HW221040   1.051  11.883   7.670
39715SOL     OW21041   1.620  10.471   8.284
39715SOL    HW121042   1.653  10.485   8.195
39715SOL    HW221043   1.675  10.527   8.339
39716SOL     OW21044   8.408  12.483  14.724
39716SOL    HW121045   8.377  12.524  14.805
39716SOL    HW221046   8.332  12.437  14.689
39717SOL     OW21047  12.973  13.572   4.187
39717SOL    HW121048  12.922  13.492   4.175
39717SOL    HW221049  13.039  13.550   4.252
39718SOL     OW21050   6.592   2.519  12.833
39718SOL    HW121051   6.596   2.600  12.882
39718SOL    HW221052   6.536   2.461  12.885
39719SOL     OW21053   5.812   5.423   3.182
39719SOL    HW121054   5.795   5.414   3.088
39719SOL    HW221055   5.907   5.429   3.188
39720SOL     OW21056  11.982   7.744   3.882
39720SOL    HW121057  11.896   7.713   3.911
39720SOL    HW221058  12.023   7.667   3.842
39721SOL     OW21059  11.835   4.573   2.605
39721SOL    HW121060  11.801   4.662   2.591
39721SOL    HW221061  11.930   4.583   2.602
39722SOL     OW21062   0.477   3.954  14.045
39722SOL    HW121063   0.400   3.932  13.992
39722SOL    HW221064   0.466   3.902  14.125
39723SOL     OW21065   8.672  14.202   1.074
39723SOL    HW121066   8.596  14.259   1.091
39723SOL    HW221067   8.728  14.213   1.150
39724SOL     OW21068   5.492  14.413   9.321
39724SOL    HW121069   5.483  14.318   9.312
39724SOL    HW221070   5.578  14.432   9.283
39725SOL     OW21071   4.266   3.538  10.654
39725SOL    HW121072   4.312   3.459  10.626
39725SOL    HW221073   4.334   3.604  10.664
39726SOL     OW21074  11.543   2.992   5.932
39726SOL    HW121075  11.580   3.075   5.901
39726SOL    HW221076  11.459   3.016   5.971
39727SOL     OW21077   0.669   9.219   2.000
39727SOL    HW121078   0.673   9.156   2.072
39727SOL    HW221079   0.641   9.167   1.924
39728SOL     OW21080  11.794  14.183  11.059
39728SOL    HW121081  11.777  14.122  10.988
39728SOL    HW221082  11.783  14.270  11.020
39729SOL     OW21083   6.629   4.961  14.060
39729SOL    HW121084   6.540   4.933  14.079
39729SOL    HW221085   6.627   5.056  14.071
39730SOL     OW21086   9.000  13.088  11.952
39730SOL    HW121087   9.023  13.016  11.894
39730SOL    HW221088   8.908  13.104  11.935
39731SOL     OW21089   3.058   4.627  11.251
39731SOL    HW121090   3.125   4.682  11.212
39731SOL    HW221091   3.012   4.588  11.176
39732SOL     OW21092   9.061   7.177  10.909
39732SOL    HW121093   9.090   7.160  10.819
39732SOL    HW221094   9.022   7.095  10.937
39733SOL     OW21095   9.085  13.186   6.459
39733SOL    HW121096   9.104  13.112   6.518
39733SOL    HW221097   9.033  13.147   6.389
39734SOL     OW21098   9.588   7.409  10.544
39734SOL    HW121099   9.561   7.414  10.453
39734SOL    HW221100   9.552   7.488  10.585
39735SOL     OW21101   6.752   9.578  14.232
39735SOL    HW121102   6.673   9.632  14.232
39735SOL    HW221103   6.786   9.587  14.143
39736SOL     OW21104   7.441  12.872  10.668
39736SOL    HW121105   7.400  12.863  10.582
39736SOL    HW221106   7.461  12.782  10.695
39737SOL     OW21107  13.235  10.059   4.178
39737SOL    HW121108  13.307  10.110   4.214
39737SOL    HW221109  13.275  10.007   4.108
39738SOL     OW21110  12.720   4.237  10.729
39738SOL    HW121111  12.764   4.285  10.800
39738SOL    HW221112  12.749   4.282  10.649
39739SOL     OW21113   2.376   5.987   2.021
39739SOL    HW121114   2.440   6.019   1.958
39739SOL    HW221115   2.338   5.909   1.979
39740SOL     OW21116   3.253   9.766  14.303
39740SOL    HW121117   3.311   9.698  14.338
39740SOL    HW221118   3.270   9.842  14.358
39741SOL     OW21119   8.886   8.127  11.621
39741SOL    HW121120   8.811   8.102  11.567
39741SOL    HW221121   8.851   8.190  11.683
39742SOL     OW21122  10.554   8.305   3.247
39742SOL    HW121123  10.497   8.228   3.243
39742SOL    HW221124  10.514   8.361   3.313
39743SOL     OW21125   5.339  13.594   0.524
39743SOL    HW121126   5.412  13.612   0.584
39743SOL    HW221127   5.343  13.665   0.460
39744SOL     OW21128   8.873   2.239  13.473
39744SOL    HW121129   8.910   2.277  13.393
39744SOL    HW221130   8.819   2.309  13.510
39745SOL     OW21131   7.298  10.241   6.540
39745SOL    HW121132   7.349  10.207   6.467
39745SOL    HW221133   7.348  10.215   6.618
39746SOL     OW21134   7.062  11.869   5.834
39746SOL    HW121135   7.060  11.844   5.741
39746SOL    HW221136   7.120  11.945   5.836
39747SOL     OW21137   2.186   3.940   5.170
39747SOL    HW121138   2.143   4.008   5.119
39747SOL    HW221139   2.115   3.889   5.208
39748SOL     OW21140   5.497   6.619  10.159
39748SOL    HW121141   5.535   6.535  10.184
39748SOL    HW221142   5.570   6.668  10.121
39749SOL     OW21143  10.959   5.008  11.227
39749SOL    HW121144  10.872   5.044  11.209
39749SOL    HW221145  10.999   4.997  11.140
39750SOL     OW21146   3.188   6.832  14.730
39750SOL    HW121147   3.260   6.774  14.754
39750SOL    HW221148   3.109   6.788  14.763
39751SOL     OW21149   1.083   9.836  13.584
39751SOL    HW121150   1.170   9.875  13.598
39751SOL    HW221151   1.101   9.746  13.558
39752SOL     OW21152   7.761  14.422  14.104
39752SOL    HW121153   7.717  14.497  14.064
39752SOL    HW221154   7.801  14.375  14.031
39753SOL     OW21155   7.198   9.981   1.103
39753SOL    HW121156   7.253   9.968   1.179
39753SOL    HW221157   7.121  10.027   1.136
39754SOL     OW21158   9.675   6.272   5.382
39754SOL    HW121159   9.738   6.305   5.447
39754SOL    HW221160   9.644   6.351   5.337
39755SOL     OW21161  11.359   7.417   7.994
39755SOL    HW121162  11.399   7.394   7.910
39755SOL    HW221163  11.321   7.336   8.026
39756SOL     OW21164  11.503  14.515   1.330
39756SOL    HW121165  11.445  14.538   1.402
39756SOL    HW221166  11.499  14.590   1.270
39757SOL     OW21167   1.927   9.544   6.385
39757SOL    HW121168   1.995   9.481   6.408
39757SOL    HW221169   1.887   9.508   6.306
39758SOL     OW21170  11.026  10.830   0.155
39758SOL    HW121171  11.102  10.803   0.206
39758SOL    HW221172  10.985  10.748   0.127
39759SOL     OW21173   4.067  10.877  11.236
39759SOL    HW121174   4.133  10.891  11.304
39759SOL    HW221175   3.999  10.942  11.254
39760SOL     OW21176   3.538   9.190   3.039
39760SOL    HW121177   3.553   9.097   3.026
39760SOL    HW221178   3.613   9.220   3.090
39761SOL     OW21179   9.918   2.694  12.531
39761SOL    HW121180   9.834   2.684  12.576
39761SOL    HW221181   9.898   2.676  12.439
39762SOL     OW21182   1.829  11.424  14.186
39762SOL    HW121183   1.835  11.520  14.183
39762SOL    HW221184   1.919  11.394  14.195
39763SOL     OW21185   6.827  11.426   2.824
39763SOL    HW121186   6.733  11.415   2.808
39763SOL    HW221187   6.862  11.455   2.740
39764SOL     OW21188   7.701   4.561   8.719
39764SOL    HW121189   7.739   4.474   8.729
39764SOL    HW221190   7.749   4.600   8.646
39765SOL     OW21191  11.761  11.394   9.485
39765SOL    HW121192  11.769  11.298   9.484
39765SOL    HW221193  11.845  11.425   9.451
39766SOL     OW21194   1.027   6.886   2.692
39766SOL    HW121195   0.953   6.906   2.749
39766SOL    HW221196   1.089   6.839   2.748
39767SOL     OW21197   7.320   4.052   2.881
39767SOL    HW121198   7.351   3.962   2.873
39767SOL    HW221199   7.330   4.072   2.974
39768SOL     OW21200   6.480   9.858  10.378
39768SOL    HW121201   6.508   9.828  10.465
39768SOL    HW221202   6.546   9.924  10.354
39769SOL     OW21203   0.706   2.524   7.533
39769SOL    HW121204   0.772   2.590   7.551
39769SOL    HW221205   0.754   2.441   7.535
39770SOL     OW21206   1.476  13.834  12.231
39770SOL    HW121207   1.543  13.812  12.295
39770SOL    HW221208   1.449  13.750  12.194
39771SOL     OW21209   1.805   2.839   9.070
39771SOL    HW121210   1.779   2.765   9.015
39771SOL    HW221211   1.788   2.916   9.016
39772SOL     OW21212   0.925  12.143  12.610
39772SOL    HW121213   0.992  12.125  12.676
39772SOL    HW221214   0.973  12.183  12.537
39773SOL     OW21215  13.746   4.939   1.537
39773SOL    HW121216  13.690   5.014   1.556
39773SOL    HW221217  13.689   4.863   1.549
39774SOL     OW21218   1.481   9.518  14.145
39774SOL    HW121219   1.407   9.489  14.199
39774SOL    HW221220   1.470   9.613  14.141
39775SOL     OW21221   7.698   4.761  13.256
39775SOL    HW121222   7.712   4.851  13.285
39775SOL    HW221223   7.698   4.767  13.160
39776SOL     OW21224   1.058  10.404  10.336
39776SOL    HW121225   1.015  10.329  10.295
39776SOL    HW221226   1.119  10.364  10.400
39777SOL     OW21227   7.305   8.785   3.201
39777SOL    HW121228   7.256   8.753   3.126
39777SOL    HW221229   7.237   8.824   3.258
39778SOL     OW21230   0.317  13.568   7.980
39778SOL    HW121231   0.275  13.625   7.915
39778SOL    HW221232   0.248  13.506   8.005
39779SOL     OW21233   9.878   5.949  14.615
39779SOL    HW121234   9.917   5.862  14.615
39779SOL    HW221235   9.949   6.008  14.642
39780SOL     OW21236   2.046   9.627  12.235
39780SOL    HW121237   1.965   9.601  12.280
39780SOL    HW221238   2.075   9.548  12.190
39781SOL     OW21239   5.525   9.174   1.032
39781SOL    HW121240   5.490   9.252   1.074
39781SOL    HW221241   5.496   9.102   1.088
39782SOL     OW21242  10.348   8.849   4.904
39782SOL    HW121243  10.435   8.829   4.870
39782SOL    HW221244  10.349   8.818   4.994
39783SOL     OW21245   0.775  14.517  12.380
39783SOL    HW121246   0.753  14.560  12.463
39783SOL    HW221247   0.734  14.572  12.313
39784SOL     OW21248   3.670   1.137  12.419
39784SOL    HW121249   3.604   1.073  12.444
39784SOL    HW221250   3.751   1.107  12.462
39785SOL     OW21251  12.697   3.345   6.882
39785SOL    HW121252  12.653   3.281   6.826
39785SOL    HW221253  12.720   3.417   6.823
39786SOL     OW21254   2.032   6.023   9.161
39786SOL    HW121255   1.986   5.939   9.159
39786SOL    HW221256   2.125   6.000   9.153
39787SOL     OW21257   6.263   2.631  13.672
39787SOL    HW121258   6.297   2.609  13.758
39787SOL    HW221259   6.341   2.648  13.619
39788SOL     OW21260   0.163  13.316   5.396
39788SOL    HW121261   0.165  13.351   5.485
39788SOL    HW221262   0.105  13.240   5.401
39789SOL     OW21263  12.796  10.076   2.921
39789SOL    HW121264  12.829  10.013   2.857
39789SOL    HW221265  12.703  10.054   2.930
39790SOL     OW21266   5.088  14.341   9.375
39790SOL    HW121267   5.165  14.368   9.325
39790SOL    HW221268   5.067  14.417   9.429
39791SOL     OW21269   3.888   5.848   6.139
39791SOL    HW121270   3.928   5.772   6.180
39791SOL    HW221271   3.794   5.831   6.142
39792SOL     OW21272   4.631  14.026  14.573
39792SOL    HW121273   4.550  13.984  14.542
39792SOL    HW221274   4.657  13.973  14.649
39793SOL     OW21275   2.123  11.155   0.017
39793SOL    HW121276   2.207  11.112   0.002
39793SOL    HW221277   2.058  11.087  14.864
39794SOL     OW21278  13.042   1.756   9.523
39794SOL    HW121279  12.971   1.757   9.460
39794SOL    HW221280  13.018   1.689   9.586
39795SOL     OW21281   5.385   4.350   6.613
39795SOL    HW121282   5.457   4.297   6.580
39795SOL    HW221283   5.420   4.392   6.692
39796SOL     OW21284   2.704   3.956  14.547
39796SOL    HW121285   2.645   4.026  14.575
39796SOL    HW221286   2.769   3.951  14.617
39797SOL     OW21287   0.030   2.223   6.465
39797SOL    HW121288  14.844   2.240   6.388
39797SOL    HW221289   0.018   2.300   6.520
39798SOL     OW21290   1.922   8.723   9.108
39798SOL    HW121291   2.003   8.719   9.159
39798SOL    HW221292   1.854   8.736   9.174
39799SOL     OW21293  13.142   0.828   3.266
39799SOL    HW121294  13.228   0.835   3.225
39799SOL    HW221295  13.158   0.774   3.344
39800SOL     OW21296   9.531   8.922   2.116
39800SOL    HW121297   9.506   8.905   2.025
39800SOL    HW221298   9.621   8.889   2.122
39801SOL     OW21299   7.404   2.684  11.136
39801SOL    HW121300   7.481   2.733  11.164
39801SOL    HW221301   7.359   2.661  11.218
39802SOL     OW21302  14.101  11.258   6.499
39802SOL    HW121303  14.121  11.316   6.426
39802SOL    HW221304  14.007  11.241   6.491
39803SOL     OW21305   6.609   4.508   0.987
39803SOL    HW121306   6.636   4.558   0.910
39803SOL    HW221307   6.630   4.417   0.966
39804SOL     OW21308   0.734   2.365  12.215
39804SOL    HW121309   0.731   2.330  12.126
39804SOL    HW221310   0.643   2.377  12.240
39805SOL     OW21311   9.021   7.799   2.679
39805SOL    HW121312   9.084   7.862   2.642
39805SOL    HW221313   9.033   7.806   2.774
39806SOL     OW21314   7.712   4.072  13.887
39806SOL    HW121315   7.683   4.163  13.884
39806SOL    HW221316   7.795   4.072  13.840
39807SOL     OW21317   5.607   7.534  13.789
39807SOL    HW121318   5.686   7.482  13.781
39807SOL    HW221319   5.548   7.499  13.722
39808SOL     OW21320   3.790   4.403   7.101
39808SOL    HW121321   3.784   4.428   7.193
39808SOL    HW221322   3.699   4.395   7.072
39809SOL     OW21323   1.456   3.655  13.516
39809SOL    HW121324   1.402   3.593  13.467
39809SOL    HW221325   1.488   3.606  13.591
39810SOL     OW21326   4.402  14.352   8.707
39810SOL    HW121327   4.485  14.397   8.726
39810SOL    HW221328   4.374  14.389   8.623
39811SOL     OW21329  12.946  13.056   3.571
39811SOL    HW121330  12.934  12.973   3.525
39811SOL    HW221331  12.858  13.091   3.583
39812SOL     OW21332  12.810  14.749   5.299
39812SOL    HW121333  12.863  14.669   5.300
39812SOL    HW221334  12.719  14.718   5.301
39813SOL     OW21335   2.653  11.681   3.979
39813SOL    HW121336   2.667  11.672   3.885
39813SOL    HW221337   2.737  11.713   4.013
39814SOL     OW21338  12.772   8.448  12.526
39814SOL    HW121339  12.845   8.391  12.549
39814SOL    HW221340  12.704   8.428  12.591
39815SOL     OW21341   3.436   5.210   5.256
39815SOL    HW121342   3.436   5.118   5.230
39815SOL    HW221343   3.352   5.244   5.223
39816SOL     OW21344  11.455  13.522  10.191
39816SOL    HW121345  11.498  13.436  10.186
39816SOL    HW221346  11.421  13.538  10.103
39817SOL     OW21347  14.317   7.912   3.207
39817SOL    HW121348  14.301   7.918   3.113
39817SOL    HW221349  14.251   7.851   3.240
39818SOL     OW21350   5.346  10.331   9.744
39818SOL    HW121351   5.254  10.317   9.724
39818SOL    HW221352   5.365  10.270   9.816
39819SOL     OW21353  14.014   0.153   3.891
39819SOL    HW121354  13.938   0.210   3.878
39819SOL    HW221355  14.089   0.206   3.864
39820SOL     OW21356   9.776   9.328  10.962
39820SOL    HW121357   9.705   9.277  10.924
39820SOL    HW221358   9.837   9.262  10.997
39821SOL     OW21359  12.128  12.554  14.511
39821SOL    HW121360  12.158  12.484  14.453
39821SOL    HW221361  12.160  12.634  14.471
39822SOL     OW21362   0.778   7.032  12.491
39822SOL    HW121363   0.762   6.941  12.467
39822SOL    HW221364   0.695   7.077  12.478
39823SOL     OW21365   0.588   4.949   1.458
39823SOL    HW121366   0.634   4.920   1.380
39823SOL    HW221367   0.558   5.038   1.436
39824SOL     OW21368   1.900  10.068  14.053
39824SOL    HW121369   1.990  10.045  14.031
39824SOL    HW221370   1.849  10.040  13.977
39825SOL     OW21371   0.250  12.304  14.172
39825SOL    HW121372   0.155  12.302  14.176
39825SOL    HW221373   0.270  12.373  14.108
39826SOL     OW21374  10.337   8.579  14.231
39826SOL    HW121375  10.337   8.500  14.178
39826SOL    HW221376  10.262   8.569  14.290
39827SOL     OW21377   4.569  10.187   8.517
39827SOL    HW121378   4.519  10.106   8.512
39827SOL    HW221379   4.614  10.182   8.601
39828SOL     OW21380   1.583   5.641  10.680
39828SOL    HW121381   1.529   5.683  10.747
39828SOL    HW221382   1.624   5.713  10.633
39829SOL     OW21383  11.513   1.036  11.148
39829SOL    HW121384  11.446   1.051  11.214
39829SOL    HW221385  11.483   1.084  11.071
39830SOL     OW21386  12.038  11.926  14.858
39830SOL    HW121387  12.055  11.900   0.080
39830SOL    HW221388  12.087  12.008  14.847
39831SOL     OW21389   1.881   8.765   9.752
39831SOL    HW121390   1.802   8.802   9.711
39831SOL    HW221391   1.897   8.821   9.828
39832SOL     OW21392   1.865  11.376   0.899
39832SOL    HW121393   1.827  11.291   0.919
39832SOL    HW221394   1.959  11.361   0.899
39833SOL     OW21395   1.930   1.360   5.164
39833SOL    HW121396   1.998   1.427   5.160
39833SOL    HW221397   1.860   1.394   5.109
39834SOL     OW21398   4.892  10.381  13.360
39834SOL    HW121399   4.885  10.353  13.451
39834SOL    HW221400   4.932  10.469  13.366
39835SOL     OW21401  12.726   6.416  14.151
39835SOL    HW121402  12.744   6.322  14.154
39835SOL    HW221403  12.637   6.424  14.187
39836SOL     OW21404   7.820   0.228  13.409
39836SOL    HW121405   7.823   0.143  13.364
39836SOL    HW221406   7.910   0.245  13.436
39837SOL     OW21407   3.451   5.475   4.628
39837SOL    HW121408   3.512   5.485   4.555
39837SOL    HW221409   3.414   5.562   4.640
39838SOL     OW21410   4.750   4.864   3.275
39838SOL    HW121411   4.664   4.870   3.232
39838SOL    HW221412   4.788   4.784   3.239
39839SOL     OW21413   2.851  14.622  10.106
39839SOL    HW121414   2.818  14.711  10.123
39839SOL    HW221415   2.889  14.595  10.189
39840SOL     OW21416   0.151  13.900   1.752
39840SOL    HW121417   0.080  13.890   1.816
39840SOL    HW221418   0.223  13.848   1.788
39841SOL     OW21419  12.643   0.570   5.745
39841SOL    HW121420  12.646   0.632   5.672
39841SOL    HW221421  12.570   0.600   5.799
39842SOL     OW21422   4.104   1.764  11.733
39842SOL    HW121423   4.029   1.816  11.704
39842SOL    HW221424   4.177   1.826  11.734
39843SOL     OW21425  11.325   5.082   6.062
39843SOL    HW121426  11.404   5.132   6.045
39843SOL    HW221427  11.346   5.027   6.138
39844SOL     OW21428   9.980  13.814   9.566
39844SOL    HW121429  10.060  13.765   9.547
39844SOL    HW221430   9.982  13.825   9.661
39845SOL     OW21431  11.812   8.568   0.143
39845SOL    HW121432  11.788   8.516   0.220
39845SOL    HW221433  11.819   8.657   0.175
39846SOL     OW21434   7.949   1.182   2.254
39846SOL    HW121435   7.917   1.106   2.303
39846SOL    HW221436   7.884   1.250   2.272
39847SOL     OW21437   2.268   3.751   4.657
39847SOL    HW121438   2.347   3.698   4.660
39847SOL    HW221439   2.250   3.761   4.563
39848SOL     OW21440   9.292   9.020   9.950
39848SOL    HW121441   9.294   9.015   9.854
39848SOL    HW221442   9.261   8.934   9.977
39849SOL     OW21443  13.138   1.186  12.169
39849SOL    HW121444  13.134   1.253  12.100
39849SOL    HW221445  13.108   1.232  12.248
39850SOL     OW21446   7.729   3.049   5.007
39850SOL    HW121447   7.814   3.047   5.051
39850SOL    HW221448   7.667   3.018   5.074
39851SOL     OW21449  11.238  12.259  14.233
39851SOL    HW121450  11.292  12.276  14.156
39851SOL    HW221451  11.300  12.254  14.306
39852SOL     OW21452   1.396   1.615   3.328
39852SOL    HW121453   1.435   1.606   3.240
39852SOL    HW221454   1.458   1.569   3.385
39853SOL     OW21455  11.889   5.368   2.981
39853SOL    HW121456  11.912   5.439   2.921
39853SOL    HW221457  11.794   5.364   2.978
39854SOL     OW21458  13.600   0.952   3.260
39854SOL    HW121459  13.561   1.036   3.285
39854SOL    HW221460  13.678   0.944   3.316
39855SOL     OW21461   2.250  13.293   2.534
39855SOL    HW121462   2.319  13.359   2.538
39855SOL    HW221463   2.297  13.210   2.531
39856SOL     OW21464  11.898   8.845   7.696
39856SOL    HW121465  11.898   8.752   7.717
39856SOL    HW221466  11.833   8.883   7.756
39857SOL     OW21467  12.654   4.652   4.840
39857SOL    HW121468  12.688   4.581   4.785
39857SOL    HW221469  12.567   4.623   4.866
39858SOL     OW21470   7.174   0.044   1.282
39858SOL    HW121471   7.226   0.122   1.301
39858SOL    HW221472   7.215   0.007   1.204
39859SOL     OW21473   3.763  11.969   7.196
39859SOL    HW121474   3.854  11.983   7.169
39859SOL    HW221475   3.764  11.980   7.291
39860SOL     OW21476   3.639  13.812  11.558
39860SOL    HW121477   3.696  13.837  11.631
39860SOL    HW221478   3.554  13.850  11.580
39861SOL     OW21479   2.110  13.935   7.655
39861SOL    HW121480   2.048  13.921   7.584
39861SOL    HW221481   2.193  13.955   7.610
39862SOL     OW21482  13.097   4.213   3.083
39862SOL    HW121483  13.134   4.247   3.002
39862SOL    HW221484  13.046   4.136   3.056
39863SOL     OW21485   6.967   0.593  10.866
39863SOL    HW121486   6.930   0.522  10.814
39863SOL    HW221487   6.896   0.657  10.875
39864SOL     OW21488   8.335  13.862  12.851
39864SOL    HW121489   8.309  13.776  12.884
39864SOL    HW221490   8.327  13.920  12.927
39865SOL     OW21491   9.331  10.038   0.443
39865SOL    HW121492   9.422  10.050   0.471
39865SOL    HW221493   9.334  10.044   0.347
39866SOL     OW21494   4.857  11.495  14.471
39866SOL    HW121495   4.943  11.514  14.510
39866SOL    HW221496   4.848  11.400  14.478
39867SOL     OW21497   4.226  13.611  14.303
39867SOL    HW121498   4.131  13.599  14.303
39867SOL    HW221499   4.250  13.619  14.396
39868SOL     OW21500   3.306  13.248   4.949
39868SOL    HW121501   3.398  13.245   4.976
39868SOL    HW221502   3.298  13.182   4.881
39869SOL     OW21503  11.348   5.248   6.464
39869SOL    HW121504  11.392   5.168   6.434
39869SOL    HW221505  11.419   5.311   6.475
39870SOL     OW21506   4.783  12.384   0.518
39870SOL    HW121507   4.822  12.366   0.604
39870SOL    HW221508   4.833  12.459   0.484
39871SOL     OW21509   2.664  13.429   7.524
39871SOL    HW121510   2.604  13.376   7.576
39871SOL    HW221511   2.620  13.514   7.515
39872SOL     OW21512  13.323  13.880  13.235
39872SOL    HW121513  13.402  13.836  13.267
39872SOL    HW221514  13.336  13.889  13.141
39873SOL     OW21515   0.327   1.423   7.699
39873SOL    HW121516   0.377   1.356   7.653
39873SOL    HW221517   0.279   1.375   7.767
39874SOL     OW21518   6.069   6.798   3.665
39874SOL    HW121519   6.047   6.711   3.698
39874SOL    HW221520   6.057   6.792   3.570
39875SOL     OW21521  13.888   9.836   0.420
39875SOL    HW121522  13.846   9.856   0.504
39875SOL    HW221523  13.895   9.920   0.376
39876SOL     OW21524   2.232  11.674   0.829
39876SOL    HW121525   2.155  11.675   0.885
39876SOL    HW221526   2.268  11.762   0.836
39877SOL     OW21527   3.661   9.792   4.835
39877SOL    HW121528   3.720   9.865   4.855
39877SOL    HW221529   3.702   9.716   4.876
39878SOL     OW21530  12.360   3.966   8.009
39878SOL    HW121531  12.363   3.894   7.946
39878SOL    HW221532  12.345   3.923   8.093
39879SOL     OW21533  14.393   9.717  11.700
39879SOL    HW121534  14.469   9.744  11.752
39879SOL    HW221535  14.352   9.647  11.752
39880SOL     OW21536   1.834   1.705   8.579
39880SOL    HW121537   1.886   1.736   8.652
39880SOL    HW221538   1.774   1.776   8.560
39881SOL     OW21539   7.658   5.986   0.763
39881SOL    HW121540   7.727   6.021   0.819
39881SOL    HW221541   7.680   5.893   0.753
39882SOL     OW21542  14.239  11.159  14.651
39882SOL    HW121543  14.327  11.139  14.682
39882SOL    HW221544  14.221  11.247  14.684
39883SOL     OW21545   6.334  12.038   1.600
39883SOL    HW121546   6.251  12.000   1.572
39883SOL    HW221547   6.314  12.084   1.681
39884SOL     OW21548   2.589  11.113   4.447
39884SOL    HW121549   2.636  11.030   4.436
39884SOL    HW221550   2.636  11.158   4.517
39885SOL     OW21551   4.721   5.468   2.667
39885SOL    HW121552   4.708   5.543   2.725
39885SOL    HW221553   4.810   5.481   2.632
39886SOL     OW21554   1.810   1.233   7.620
39886SOL    HW121555   1.742   1.231   7.552
39886SOL    HW221556   1.763   1.208   7.701
39887SOL     OW21557  12.055  14.865   9.548
39887SOL    HW121558  11.973   0.007   9.596
39887SOL    HW221559  12.122   0.026   9.610
39888SOL     OW21560   0.814   0.876   1.515
39888SOL    HW121561   0.902   0.842   1.530
39888SOL    HW221562   0.806   0.951   1.574
39889SOL     OW21563   3.461  12.751   2.245
39889SOL    HW121564   3.529  12.785   2.303
39889SOL    HW221565   3.393  12.719   2.305
39890SOL     OW21566   5.591   1.339   3.284
39890SOL    HW121567   5.545   1.269   3.238
39890SOL    HW221568   5.636   1.388   3.215
39891SOL     OW21569   8.874   9.773   7.906
39891SOL    HW121570   8.873   9.765   7.810
39891SOL    HW221571   8.789   9.738   7.933
39892SOL     OW21572   7.492   9.007  12.956
39892SOL    HW121573   7.457   9.081  13.006
39892SOL    HW221574   7.531   9.047  12.878
39893SOL     OW21575  12.323   0.383   7.283
39893SOL    HW121576  12.276   0.339   7.212
39893SOL    HW221577  12.393   0.431   7.239
39894SOL     OW21578   4.571   1.260   7.739
39894SOL    HW121579   4.599   1.178   7.697
39894SOL    HW221580   4.568   1.240   7.832
39895SOL     OW21581   1.623  12.858  12.381
39895SOL    HW121582   1.688  12.845  12.312
39895SOL    HW221583   1.653  12.937  12.428
39896SOL     OW21584  12.162   0.651   3.694
39896SOL    HW121585  12.257   0.660   3.680
39896SOL    HW221586  12.124   0.724   3.646
39897SOL     OW21587   8.294   0.035   8.705
39897SOL    HW121588   8.214  14.855   8.688
39897SOL    HW221589   8.353   0.010   8.634
39898SOL     OW21590   4.528   2.000   8.275
39898SOL    HW121591   4.563   1.917   8.243
39898SOL    HW221592   4.577   2.018   8.355
39899SOL     OW21593  11.493   0.119   7.950
39899SOL    HW121594  11.438   0.117   8.029
39899SOL    HW221595  11.583   0.118   7.983
39900SOL     OW21596  11.296  10.632   7.032
39900SOL    HW121597  11.308  10.625   7.127
39900SOL    HW221598  11.383  10.646   6.997
39901SOL     OW21599   6.488   4.291   7.768
39901SOL    HW121600   6.412   4.235   7.781
39901SOL    HW221601   6.546   4.271   7.841
39902SOL     OW21602   2.293   8.052  10.633
39902SOL    HW121603   2.355   8.048  10.706
39902SOL    HW221604   2.349   8.055  10.555
39903SOL     OW21605   1.970   4.355  11.231
39903SOL    HW121606   1.881   4.323  11.222
39903SOL    HW221607   1.965   4.449  11.213
39904SOL     OW21608  12.968   1.592   4.722
39904SOL    HW121609  12.951   1.653   4.793
39904SOL    HW221610  12.888   1.593   4.669
39905SOL     OW21611  13.706  13.175   2.252
39905SOL    HW121612  13.791  13.154   2.291
39905SOL    HW221613  13.720  13.261   2.211
39906SOL     OW21614   9.342   3.535  10.189
39906SOL    HW121615   9.394   3.460  10.218
39906SOL    HW221616   9.401   3.610  10.197
39907SOL     OW21617   8.511  14.762   7.653
39907SOL    HW121618   8.533  14.681   7.699
39907SOL    HW221619   8.536  14.746   7.562
39908SOL     OW21620  11.426   0.519  12.069
39908SOL    HW121621  11.412   0.503  12.162
39908SOL    HW221622  11.479   0.445  12.040
39909SOL     OW21623  14.538   0.635  12.519
39909SOL    HW121624  14.541   0.547  12.482
39909SOL    HW221625  14.600   0.686  12.466
39910SOL     OW21626  14.579   9.519   9.530
39910SOL    HW121627  14.505   9.479   9.483
39910SOL    HW221628  14.587   9.606   9.491
39911SOL     OW21629  14.814   9.315   3.918
39911SOL    HW121630  14.828   9.392   3.863
39911SOL    HW221631  14.841   9.242   3.862
39912SOL     OW21632   3.796  13.042   4.197
39912SOL    HW121633   3.827  13.113   4.140
39912SOL    HW221634   3.872  12.985   4.207
39913SOL     OW21635  11.028  13.935  13.979
39913SOL    HW121636  11.004  13.969  13.892
39913SOL    HW221637  11.025  14.012  14.036
39914SOL     OW21638  13.337   4.933   0.752
39914SOL    HW121639  13.267   4.989   0.785
39914SOL    HW221640  13.298   4.846   0.748
39915SOL     OW21641   5.504   2.706   8.567
39915SOL    HW121642   5.547   2.644   8.626
39915SOL    HW221643   5.570   2.774   8.552
39916SOL     OW21644   2.791  11.267   5.618
39916SOL    HW121645   2.864  11.315   5.656
39916SOL    HW221646   2.722  11.332   5.608
39917SOL     OW21647   5.791  10.667   8.278
39917SOL    HW121648   5.713  10.613   8.274
39917SOL    HW221649   5.816  10.679   8.186
39918SOL     OW21650   9.758  11.687  12.284
39918SOL    HW121651   9.676  11.638  12.280
39918SOL    HW221652   9.731  11.776  12.307
39919SOL     OW21653   9.735  11.090  10.918
39919SOL    HW121654   9.752  11.094  10.824
39919SOL    HW221655   9.688  11.007  10.930
39920SOL     OW21656   9.626  11.603   9.256
39920SOL    HW121657   9.633  11.573   9.166
39920SOL    HW221658   9.554  11.552   9.293
39921SOL     OW21659   8.957   0.164   7.863
39921SOL    HW121660   8.967   0.098   7.794
39921SOL    HW221661   8.946   0.247   7.815
39922SOL     OW21662   5.734   9.029   6.639
39922SOL    HW121663   5.700   8.964   6.701
39922SOL    HW221664   5.829   9.017   6.640
39923SOL     OW21665   4.623  11.872  12.219
39923SOL    HW121666   4.640  11.778  12.216
39923SOL    HW221667   4.649  11.904  12.133
39924SOL     OW21668  14.231   6.307   3.546
39924SOL    HW121669  14.200   6.383   3.595
39924SOL    HW221670  14.311   6.336   3.503
39925SOL     OW21671   5.012  12.454   3.536
39925SOL    HW121672   4.947  12.394   3.570
39925SOL    HW221673   4.964  12.536   3.520
39926SOL     OW21674   5.065  13.396   2.994
39926SOL    HW121675   5.139  13.435   3.040
39926SOL    HW221676   4.997  13.463   2.995
39927SOL     OW21677   3.243  11.319  13.551
39927SOL    HW121678   3.231  11.379  13.625
39927SOL    HW221679   3.302  11.365  13.491
39928SOL     OW21680   9.489   8.544  12.238
39928SOL    HW121681   9.568   8.526  12.186
39928SOL    HW221682   9.447   8.459  12.247
39929SOL     OW21683   1.549   2.149   9.004
39929SOL    HW121684   1.512   2.150   9.092
39929SOL    HW221685   1.514   2.228   8.963
39930SOL     OW21686  12.059  11.087   8.993
39930SOL    HW121687  12.110  11.103   8.913
39930SOL    HW221688  11.989  11.029   8.965
39931SOL     OW21689   7.071   7.510   6.026
39931SOL    HW121690   7.116   7.432   6.059
39931SOL    HW221691   6.978   7.490   6.039
39932SOL     OW21692   6.398   1.781   7.203
39932SOL    HW121693   6.372   1.690   7.217
39932SOL    HW221694   6.435   1.808   7.287
39933SOL     OW21695   5.160   9.828   6.386
39933SOL    HW121696   5.242   9.789   6.353
39933SOL    HW221697   5.160   9.808   6.479
39934SOL     OW21698   7.521  12.033   1.677
39934SOL    HW121699   7.564  12.012   1.595
39934SOL    HW221700   7.471  11.954   1.700
39935SOL     OW21701   7.345   4.605   0.918
39935SOL    HW121702   7.319   4.573   1.005
39935SOL    HW221703   7.418   4.548   0.892
39936SOL     OW21704  11.950   8.977   4.881
39936SOL    HW121705  11.915   8.934   4.959
39936SOL    HW221706  12.042   8.994   4.902
39937SOL     OW21707   5.900  11.167   6.308
39937SOL    HW121708   5.908  11.248   6.256
39937SOL    HW221709   5.853  11.194   6.387
39938SOL     OW21710  11.118   7.724  10.917
39938SOL    HW121711  11.183   7.765  10.860
39938SOL    HW221712  11.034   7.751  10.881
39939SOL     OW21713   3.864   5.534   4.257
39939SOL    HW121714   3.837   5.483   4.334
39939SOL    HW221715   3.959   5.537   4.263
39940SOL     OW21716   1.315  13.442   0.438
39940SOL    HW121717   1.225  13.448   0.469
39940SOL    HW221718   1.319  13.501   0.363
39941SOL     OW21719  10.075  11.103   8.534
39941SOL    HW121720  10.165  11.069   8.531
39941SOL    HW221721  10.033  11.064   8.457
39942SOL     OW21722   5.604   8.745   7.150
39942SOL    HW121723   5.667   8.730   7.080
39942SOL    HW221724   5.537   8.802   7.111
39943SOL     OW21725  11.165   8.949  10.855
39943SOL    HW121726  11.255   8.927  10.831
39943SOL    HW221727  11.168   8.966  10.949
39944SOL     OW21728   3.605   8.337  13.302
39944SOL    HW121729   3.580   8.366  13.390
39944SOL    HW221730   3.615   8.242  13.310
39945SOL     OW21731  12.954  11.044   9.501
39945SOL    HW121732  12.917  11.108   9.561
39945SOL    HW221733  13.036  11.084   9.471
39946SOL     OW21734  13.924   7.870   9.935
39946SOL    HW121735  13.895   7.952   9.976
39946SOL    HW221736  13.843   7.829   9.903
39947SOL     OW21737  10.780  14.117   1.242
39947SOL    HW121738  10.716  14.086   1.307
39947SOL    HW221739  10.830  14.184   1.288
39948SOL     OW21740   1.606   3.480   5.666
39948SOL    HW121741   1.645   3.556   5.709
39948SOL    HW221742   1.648   3.405   5.708
39949SOL     OW21743   9.480   2.251   5.541
39949SOL    HW121744   9.480   2.225   5.633
39949SOL    HW221745   9.462   2.345   5.543
39950SOL     OW21746  11.953  10.928  13.713
39950SOL    HW121747  12.015  10.868  13.753
39950SOL    HW221748  12.005  11.004  13.688
39951SOL     OW21749   6.054   6.072   6.740
39951SOL    HW121750   6.131   6.127   6.758
39951SOL    HW221751   6.031   6.034   6.824
39952SOL     OW21752  12.965   7.918   1.107
39952SOL    HW121753  12.913   7.885   1.180
39952SOL    HW221754  13.056   7.903   1.132
39953SOL     OW21755  14.372   4.687   4.766
39953SOL    HW121756  14.438   4.691   4.834
39953SOL    HW221757  14.290   4.670   4.813
39954SOL     OW21758   1.948  10.500  10.968
39954SOL    HW121759   1.973  10.576  11.021
39954SOL    HW221760   2.025  10.443  10.971
39955SOL     OW21761   1.775  11.954   4.122
39955SOL    HW121762   1.868  11.967   4.102
39955SOL    HW221763   1.769  11.865   4.156
39956SOL     OW21764   2.120  14.601  13.339
39956SOL    HW121765   2.033  14.639  13.349
39956SOL    HW221766   2.164  14.657  13.276
39957SOL     OW21767   5.068  12.945  11.172
39957SOL    HW121768   5.117  12.870  11.205
39957SOL    HW221769   4.977  12.919  11.176
39958SOL     OW21770  10.271   1.461   3.997
39958SOL    HW121771  10.225   1.410   3.930
39958SOL    HW221772  10.227   1.545   3.998
39959SOL     OW21773   9.779   7.491   1.111
39959SOL    HW121774   9.873   7.506   1.120
39959SOL    HW221775   9.748   7.481   1.200
39960SOL     OW21776   7.555   7.735  10.024
39960SOL    HW121777   7.533   7.708  10.113
39960SOL    HW221778   7.483   7.700   9.971
39961SOL     OW21779   6.972   4.913   3.855
39961SOL    HW121780   6.881   4.924   3.883
39961SOL    HW221781   6.973   4.827   3.811
39962SOL     OW21782   8.012  12.379  14.310
39962SOL    HW121783   7.934  12.389  14.255
39962SOL    HW221784   7.978  12.344  14.392
39963SOL     OW21785  11.712   0.162   7.601
39963SOL    HW121786  11.805   0.168   7.578
39963SOL    HW221787  11.690   0.069   7.588
39964SOL     OW21788  12.451   9.655   0.399
39964SOL    HW121789  12.415   9.698   0.321
39964SOL    HW221790  12.545   9.667   0.391
39965SOL     OW21791  12.519   2.190   2.521
39965SOL    HW121792  12.528   2.218   2.430
39965SOL    HW221793  12.488   2.268   2.567
39966SOL     OW21794  12.151  12.819  11.593
39966SOL    HW121795  12.221  12.796  11.654
39966SOL    HW221796  12.195  12.868  11.523
39967SOL     OW21797   7.929   3.346  10.887
39967SOL    HW121798   7.881   3.273  10.846
39967SOL    HW221799   8.019   3.315  10.893
39968SOL     OW21800  10.957   7.038   4.672
39968SOL    HW121801  10.930   7.126   4.696
39968SOL    HW221802  10.875   6.988   4.671
39969SOL     OW21803   1.339   1.496  11.742
39969SOL    HW121804   1.428   1.531  11.735
39969SOL    HW221805   1.289   1.544  11.676
39970SOL     OW21806   4.398  13.179   3.171
39970SOL    HW121807   4.453  13.195   3.095
39970SOL    HW221808   4.458  13.182   3.246
39971SOL     OW21809   7.291  13.522   3.905
39971SOL    HW121810   7.354  13.451   3.897
39971SOL    HW221811   7.286  13.540   3.999
39972SOL     OW21812   3.509   9.795   0.273
39972SOL    HW121813   3.600   9.807   0.244
39972SOL    HW221814   3.507   9.706   0.308
39973SOL     OW21815   0.213   2.713  11.779
39973SOL    HW121816   0.135   2.658  11.766
39973SOL    HW221817   0.179   2.802  11.786
39974SOL     OW21818   4.734  14.611   3.522
39974SOL    HW121819   4.756  14.685   3.464
39974SOL    HW221820   4.813  14.599   3.575
39975SOL     OW21821   5.366  10.080  10.553
39975SOL    HW121822   5.459  10.102  10.546
39975SOL    HW221823   5.339  10.113  10.639
39976SOL     OW21824   6.972   7.088   6.491
39976SOL    HW121825   6.959   7.110   6.399
39976SOL    HW221826   6.899   7.029   6.513
39977SOL     OW21827   2.525  12.107   8.290
39977SOL    HW121828   2.432  12.097   8.309
39977SOL    HW221829   2.527  12.145   8.202
39978SOL     OW21830   8.654   2.901   3.455
39978SOL    HW121831   8.691   2.813   3.458
39978SOL    HW221832   8.617   2.909   3.367
39979SOL     OW21833   9.438  10.944   0.315
39979SOL    HW121834   9.347  10.916   0.308
39979SOL    HW221835   9.465  10.962   0.225
39980SOL     OW21836  14.331   0.415   8.338
39980SOL    HW121837  14.320   0.382   8.427
39980SOL    HW221838  14.250   0.462   8.319
39981SOL     OW21839   4.218   6.358   5.350
39981SOL    HW121840   4.308   6.379   5.323
39981SOL    HW221841   4.192   6.285   5.295
39982SOL     OW21842  10.052   9.716   5.954
39982SOL    HW121843  10.013   9.640   5.911
39982SOL    HW221844   9.982   9.752   6.008
39983SOL     OW21845  13.965  14.396  14.591
39983SOL    HW121846  13.919  14.475  14.561
39983SOL    HW221847  13.930  14.380  14.679
39984SOL     OW21848  13.735   8.664   9.912
39984SOL    HW121849  13.641   8.643   9.915
39984SOL    HW221850  13.747   8.729   9.982
39985SOL     OW21851   2.393   4.765   1.511
39985SOL    HW121852   2.387   4.670   1.506
39985SOL    HW221853   2.400   4.794   1.420
39986SOL     OW21854   7.629   5.206  12.566
39986SOL    HW121855   7.568   5.151  12.517
39986SOL    HW221856   7.573   5.260  12.622
39987SOL     OW21857   0.679   7.440   3.911
39987SOL    HW121858   0.674   7.535   3.902
39987SOL    HW221859   0.759   7.424   3.961
39988SOL     OW21860  11.351   7.203   9.743
39988SOL    HW121861  11.346   7.251   9.826
39988SOL    HW221862  11.440   7.219   9.711
39989SOL     OW21863   8.822   0.749   4.849
39989SOL    HW121864   8.839   0.842   4.858
39989SOL    HW221865   8.732   0.737   4.879
39990SOL     OW21866   5.692   3.115  14.452
39990SOL    HW121867   5.746   3.193  14.463
39990SOL    HW221868   5.644   3.108  14.534
39991SOL     OW21869   5.687  12.448   0.903
39991SOL    HW121870   5.726  12.484   0.823
39991SOL    HW221871   5.633  12.519   0.939
39992SOL     OW21872   6.396   0.639   0.062
39992SOL    HW121873   6.444   0.581   0.002
39992SOL    HW221874   6.304   0.616   0.050
39993SOL     OW21875   6.631   3.645   9.698
39993SOL    HW121876   6.579   3.588   9.754
39993SOL    HW221877   6.719   3.609   9.702
39994SOL     OW21878  12.114   7.949   9.613
39994SOL    HW121879  12.089   7.952   9.705
39994SOL    HW221880  12.202   7.913   9.612
39995SOL     OW21881  13.915   9.993  14.371
39995SOL    HW121882  13.985   9.976  14.434
39995SOL    HW221883  13.961  10.006  14.288
39996SOL     OW21884  10.565   0.908  14.539
39996SOL    HW121885  10.534   0.967  14.608
39996SOL    HW221886  10.488   0.889  14.487
39997SOL     OW21887   8.283   1.524   5.895
39997SOL    HW121888   8.351   1.588   5.914
39997SOL    HW221889   8.329   1.454   5.848
39998SOL     OW21890   6.344   3.240   1.365
39998SOL    HW121891   6.290   3.201   1.434
39998SOL    HW221892   6.429   3.255   1.406
39999SOL     OW21893  10.687   9.729   6.998
39999SOL    HW121894  10.618   9.766   6.942
39999SOL    HW221895  10.687   9.785   7.076
40000SOL     OW21896   6.572  14.856   8.077
40000SOL    HW121897   6.501  14.849   8.141
40000SOL    HW221898   6.531   0.029   8.001
40001SOL     OW21899  10.342   3.923  13.937
40001SOL    HW121900  10.382   3.908  13.851
40001SOL    HW221901  10.256   3.882  13.931
40002SOL     OW21902   7.134  10.666  10.063
40002SOL    HW121903   7.112  10.685  10.154
40002SOL    HW221904   7.168  10.577  10.065
40003SOL     OW21905   0.206   4.011   5.349
40003SOL    HW121906   0.287   4.047   5.313
40003SOL    HW221907   0.151   3.996   5.272
40004SOL     OW21908  10.130  13.369   1.740
40004SOL    HW121909  10.119  13.448   1.688
40004SOL    HW221910  10.042  13.332   1.749
40005SOL     OW21911  10.052   5.303  14.357
40005SOL    HW121912  10.109   5.285  14.282
40005SOL    HW221913   9.964   5.307  14.320
40006SOL     OW21914   3.952  10.967  12.211
40006SOL    HW121915   3.995  10.888  12.179
40006SOL    HW221916   3.872  10.974  12.159
40007SOL     OW21917   5.381   5.697  14.044
40007SOL    HW121918   5.312   5.630  14.037
40007SOL    HW221919   5.335   5.780  14.028
40008SOL     OW21920   2.776  14.458   5.213
40008SOL    HW121921   2.867  14.463   5.184
40008SOL    HW221922   2.734  14.400   5.150
40009SOL     OW21923  11.173  12.483   7.118
40009SOL    HW121924  11.246  12.424   7.137
40009SOL    HW221925  11.096  12.427   7.116
40010SOL     OW21926  12.250   5.781   7.287
40010SOL    HW121927  12.249   5.786   7.192
40010SOL    HW221928  12.221   5.868   7.316
40011SOL     OW21929   8.713  12.908   7.218
40011SOL    HW121930   8.733  12.852   7.294
40011SOL    HW221931   8.769  12.985   7.230
40012SOL     OW21932   8.775  12.920  11.005
40012SOL    HW121933   8.822  12.996  10.971
40012SOL    HW221934   8.777  12.932  11.100
40013SOL     OW21935   8.867   5.558   3.011
40013SOL    HW121936   8.801   5.561   2.942
40013SOL    HW221937   8.833   5.494   3.073
40014SOL     OW21938   2.286  13.436  12.426
40014SOL    HW121939   2.299  13.372  12.497
40014SOL    HW221940   2.191  13.441  12.417
40015SOL     OW21941  11.367   3.593  14.293
40015SOL    HW121942  11.307   3.666  14.275
40015SOL    HW221943  11.335   3.522  14.238
40016SOL     OW21944   4.013  10.176  12.446
40016SOL    HW121945   3.943  10.225  12.488
40016SOL    HW221946   3.987  10.173  12.353
40017SOL     OW21947   5.483   6.628  10.473
40017SOL    HW121948   5.445   6.578  10.545
40017SOL    HW221949   5.528   6.563  10.419
40018SOL     OW21950   7.530   2.504   5.726
40018SOL    HW121951   7.582   2.441   5.776
40018SOL    HW221952   7.594   2.562   5.685
40019SOL     OW21953   2.197   0.567   4.828
40019SOL    HW121954   2.151   0.485   4.810
40019SOL    HW221955   2.287   0.541   4.846
40020SOL     OW21956  13.294  13.350  13.736
40020SOL    HW121957  13.352  13.292  13.785
40020SOL    HW221958  13.233  13.384  13.801
40021SOL     OW21959   6.050   8.891   6.940
40021SOL    HW121960   5.972   8.836   6.946
40021SOL    HW221961   6.015   8.980   6.935
40022SOL     OW21962   8.610   4.126   6.873
40022SOL    HW121963   8.654   4.150   6.954
40022SOL    HW221964   8.520   4.155   6.886
40023SOL     OW21965  12.128   9.405  10.486
40023SOL    HW121966  12.139   9.472  10.554
40023SOL    HW221967  12.203   9.347  10.497
40024SOL     OW21968   4.787   7.953  11.536
40024SOL    HW121969   4.693   7.968  11.529
40024SOL    HW221970   4.795   7.888  11.607
40025SOL     OW21971  11.199  13.490   1.783
40025SOL    HW121972  11.182  13.438   1.705
40025SOL    HW221973  11.207  13.580   1.751
40026SOL     OW21974  14.494   9.430   9.103
40026SOL    HW121975  14.565   9.486   9.134
40026SOL    HW221976  14.538   9.355   9.064
40027SOL     OW21977   2.834   9.530  11.819
40027SOL    HW121978   2.894   9.590  11.774
40027SOL    HW221979   2.874   9.444  11.808
40028SOL     OW21980   3.195   0.332  14.125
40028SOL    HW121981   3.115   0.344  14.074
40028SOL    HW221982   3.230   0.248  14.095
40029SOL     OW21983   1.212   6.781  14.125
40029SOL    HW121984   1.211   6.731  14.043
40029SOL    HW221985   1.302   6.811  14.133
40030SOL     OW21986  10.833  14.655   3.213
40030SOL    HW121987  10.798  14.737   3.179
40030SOL    HW221988  10.920  14.648   3.174
40031SOL     OW21989   9.265   3.614   8.451
40031SOL    HW121990   9.272   3.686   8.389
40031SOL    HW221991   9.335   3.554   8.427
40032SOL     OW21992   5.977   6.181  12.841
40032SOL    HW121993   6.032   6.252  12.807
40032SOL    HW221994   6.022   6.152  12.920
40033SOL     OW21995   3.624   3.327   7.479
40033SOL    HW121996   3.606   3.387   7.551
40033SOL    HW221997   3.718   3.315   7.481
40034SOL     OW21998   4.747   8.067  10.938
40034SOL    HW121999   4.680   8.085  11.005
40034SOL    HW222000   4.701   8.019  10.870
40035SOL     OW22001   8.896  14.689   1.172
40035SOL    HW122002   8.811  14.656   1.200
40035SOL    HW222003   8.958  14.622   1.199
40036SOL     OW22004  13.077   2.405  13.907
40036SOL    HW122005  13.083   2.407  13.811
40036SOL    HW222006  13.162   2.372  13.936
40037SOL     OW22007  13.181  10.047   9.249
40037SOL    HW122008  13.225   9.985   9.307
40037SOL    HW222009  13.242  10.121   9.243
40038SOL     OW22010  12.507  10.543   2.304
40038SOL    HW122011  12.434  10.588   2.346
40038SOL    HW222012  12.533  10.602   2.233
40039SOL     OW22013  14.300   4.094  14.651
40039SOL    HW122014  14.334   4.008  14.626
40039SOL    HW222015  14.338   4.111  14.737
40040SOL     OW22016   1.005  13.259   8.921
40040SOL    HW122017   0.971  13.286   8.836
40040SOL    HW222018   1.068  13.327   8.945
40041SOL     OW22019   7.042  10.921  12.165
40041SOL    HW122020   6.955  10.884  12.182
40041SOL    HW222021   7.097  10.888  12.236
40042SOL     OW22022  10.967   6.251   9.311
40042SOL    HW122023  11.037   6.233   9.248
40042SOL    HW222024  11.012   6.254   9.396
40043SOL     OW22025   1.445   3.310   0.038
40043SOL    HW122026   1.392   3.330  14.828
40043SOL    HW222027   1.381   3.305   0.109
40044SOL     OW22028   9.922  10.963  11.825
40044SOL    HW122029   9.847  10.993  11.772
40044SOL    HW222030   9.895  10.979  11.915
40045SOL     OW22031   1.314  10.881  14.509
40045SOL    HW122032   1.327  10.948  14.577
40045SOL    HW222033   1.325  10.929  14.426
40046SOL     OW22034  10.361  10.560   4.869
40046SOL    HW122035  10.354  10.549   4.964
40046SOL    HW222036  10.450  10.595   4.856
40047SOL     OW22037   3.439   9.482   4.780
40047SOL    HW122038   3.519   9.446   4.819
40047SOL    HW222039   3.368   9.442   4.830
40048SOL     OW22040  12.005   8.769   3.240
40048SOL    HW122041  12.055   8.741   3.316
40048SOL    HW222042  11.970   8.854   3.264
40049SOL     OW22043   0.362  11.328   5.965
40049SOL    HW122044   0.419  11.400   5.992
40049SOL    HW222045   0.278  11.370   5.943
40050SOL     OW22046  13.729  14.515  13.810
40050SOL    HW122047  13.727  14.446  13.877
40050SOL    HW222048  13.822  14.538  13.802
40051SOL     OW22049   0.184   2.611   7.317
40051SOL    HW122050   0.197   2.526   7.275
40051SOL    HW222051   0.225   2.673   7.257
40052SOL     OW22052   5.361   4.117   0.756
40052SOL    HW122053   5.433   4.177   0.734
40052SOL    HW222054   5.293   4.174   0.792
40053SOL     OW22055   9.626   6.774   7.093
40053SOL    HW122056   9.710   6.741   7.060
40053SOL    HW222057   9.571   6.697   7.099
40054SOL     OW22058   1.739  10.295  13.409
40054SOL    HW122059   1.760  10.280  13.501
40054SOL    HW222060   1.796  10.368  13.384
40055SOL     OW22061   7.210   2.180  14.324
40055SOL    HW122062   7.188   2.111  14.261
40055SOL    HW222063   7.222   2.134  14.407
40056SOL     OW22064  11.970   6.358   7.718
40056SOL    HW122065  11.968   6.340   7.812
40056SOL    HW222066  12.025   6.289   7.681
40057SOL     OW22067  10.549  11.977   2.262
40057SOL    HW122068  10.614  12.025   2.314
40057SOL    HW222069  10.538  12.029   2.183
40058SOL     OW22070   8.881  11.424  12.028
40058SOL    HW122071   8.825  11.369  11.973
40058SOL    HW222072   8.970  11.408  11.996
40059SOL     OW22073  12.015   7.085   6.698
40059SOL    HW122074  11.972   7.075   6.614
40059SOL    HW222075  12.005   7.001   6.742
40060SOL     OW22076   5.560  10.797  11.259
40060SOL    HW122077   5.634  10.737  11.272
40060SOL    HW222078   5.571  10.829  11.169
40061SOL     OW22079   2.790  13.756   7.963
40061SOL    HW122080   2.787  13.685   7.899
40061SOL    HW222081   2.715  13.740   8.020
40062SOL     OW22082   1.008   8.847   1.721
40062SOL    HW122083   1.002   8.752   1.722
40062SOL    HW222084   0.984   8.871   1.631
40063SOL     OW22085  12.690   4.973   7.158
40063SOL    HW122086  12.628   5.019   7.215
40063SOL    HW222087  12.765   4.955   7.214
40064SOL     OW22088   6.410   7.925   4.587
40064SOL    HW122089   6.330   7.972   4.611
40064SOL    HW222090   6.399   7.907   4.494
40065SOL     OW22091  11.145   1.120   4.805
40065SOL    HW122092  11.094   1.183   4.856
40065SOL    HW222093  11.121   1.035   4.842
40066SOL     OW22094  14.815   3.164   1.025
40066SOL    HW122095  14.807   3.230   0.957
40066SOL    HW222096  14.749   3.188   1.090
40067SOL     OW22097  13.686  13.396  11.157
40067SOL    HW122098  13.673  13.488  11.134
40067SOL    HW222099  13.779  13.388  11.177
40068SOL     OW22100   4.756   2.832   6.959
40068SOL    HW122101   4.849   2.817   6.974
40068SOL    HW222102   4.747   2.837   6.864
40069SOL     OW22103  12.474  10.784   2.910
40069SOL    HW122104  12.393  10.736   2.926
40069SOL    HW222105  12.512  10.741   2.833
40070SOL     OW22106   9.984   2.485   6.402
40070SOL    HW122107   9.972   2.508   6.310
40070SOL    HW222108   9.953   2.395   6.409
40071SOL     OW22109  11.105   5.874   3.961
40071SOL    HW122110  11.106   5.968   3.979
40071SOL    HW222111  11.054   5.836   4.032
40072SOL     OW22112   1.724   8.480  13.136
40072SOL    HW122113   1.631   8.461  13.124
40072SOL    HW222114   1.765   8.394  13.148
40073SOL     OW22115   7.750  13.375  13.087
40073SOL    HW122116   7.659  13.368  13.115
40073SOL    HW222117   7.745  13.390  12.992
40074SOL     OW22118  10.313   4.870   4.576
40074SOL    HW122119  10.241   4.864   4.514
40074SOL    HW222120  10.346   4.780   4.584
40075SOL     OW22121   4.378   2.911  14.625
40075SOL    HW122122   4.391   2.859  14.546
40075SOL    HW222123   4.457   2.899  14.677
40076SOL     OW22124   2.989  14.247   7.658
40076SOL    HW122125   2.947  14.256   7.572
40076SOL    HW222126   3.070  14.297   7.651
40077SOL     OW22127  10.842   6.150   8.501
40077SOL    HW122128  10.780   6.216   8.468
40077SOL    HW222129  10.916   6.201   8.534
40078SOL     OW22130   8.929  10.438  12.057
40078SOL    HW122131   8.954  10.474  12.142
40078SOL    HW222132   8.912  10.346  12.074
40079SOL     OW22133   5.782   1.776   0.462
40079SOL    HW122134   5.728   1.745   0.389
40079SOL    HW222135   5.870   1.742   0.444
40080SOL     OW22136   2.342   6.914   4.537
40080SOL    HW122137   2.416   6.915   4.598
40080SOL    HW222138   2.274   6.967   4.580
40081SOL     OW22139  11.496  14.381   7.591
40081SOL    HW122140  11.411  14.401   7.631
40081SOL    HW222141  11.557  14.441   7.633
40082SOL     OW22142   4.088   7.953   9.246
40082SOL    HW122143   4.131   8.022   9.296
40082SOL    HW222144   4.004   7.940   9.290
40083SOL     OW22145  12.889   7.807  13.671
40083SOL    HW122146  12.917   7.744  13.737
40083SOL    HW222147  12.851   7.879  13.721
40084SOL     OW22148   8.843   7.463  11.878
40084SOL    HW122149   8.906   7.522  11.919
40084SOL    HW222150   8.887   7.434  11.798
40085SOL     OW22151  14.603  13.247   9.953
40085SOL    HW122152  14.545  13.184   9.910
40085SOL    HW222153  14.560  13.331   9.941
40086SOL     OW22154  13.593   3.493   6.784
40086SOL    HW122155  13.546   3.527   6.708
40086SOL    HW222156  13.573   3.555   6.855
40087SOL     OW22157   6.706  12.682   0.913
40087SOL    HW122158   6.720  12.672   0.819
40087SOL    HW222159   6.731  12.773   0.932
40088SOL     OW22160   7.155   7.419  12.904
40088SOL    HW122161   7.243   7.385  12.921
40088SOL    HW222162   7.111   7.415  12.988
40089SOL     OW22163   4.470  12.735  10.857
40089SOL    HW122164   4.426  12.819  10.853
40089SOL    HW222165   4.401  12.672  10.880
40090SOL     OW22166   5.839   4.992  13.337
40090SOL    HW122167   5.890   5.069  13.311
40090SOL    HW222168   5.806   5.014  13.424
40091SOL     OW22169  10.644  14.342   8.451
40091SOL    HW122170  10.665  14.336   8.358
40091SOL    HW222171  10.639  14.251   8.481
40092SOL     OW22172   7.129   3.914   1.143
40092SOL    HW122173   7.211   3.955   1.172
40092SOL    HW222174   7.088   3.981   1.088
40093SOL     OW22175   3.461  11.694   0.581
40093SOL    HW122176   3.436  11.620   0.526
40093SOL    HW222177   3.557  11.692   0.582
40094SOL     OW22178  10.734   9.875  10.133
40094SOL    HW122179  10.793   9.891  10.060
40094SOL    HW222180  10.714   9.962  10.168
40095SOL     OW22181   7.267  13.743  10.090
40095SOL    HW122182   7.321  13.785  10.024
40095SOL    HW222183   7.197  13.806  10.108
40096SOL     OW22184   2.255   7.404   7.796
40096SOL    HW122185   2.199   7.481   7.805
40096SOL    HW222186   2.194   7.330   7.797
40097SOL     OW22187   8.213   4.182  14.778
40097SOL    HW122188   8.154   4.107  14.770
40097SOL    HW222189   8.274   4.173  14.706
40098SOL     OW22190   5.596   3.958   4.031
40098SOL    HW122191   5.588   4.041   3.984
40098SOL    HW222192   5.521   3.955   4.090
40099SOL     OW22193   2.717  13.290  11.447
40099SOL    HW122194   2.622  13.283  11.438
40099SOL    HW222195   2.752  13.258  11.363
40100SOL     OW22196   9.482  12.853   3.563
40100SOL    HW122197   9.391  12.869   3.540
40100SOL    HW222198   9.498  12.762   3.535
40101SOL     OW22199   0.249   2.804   9.687
40101SOL    HW122200   0.296   2.761   9.759
40101SOL    HW222201   0.318   2.842   9.633
40102SOL     OW22202   6.856   8.048  12.069
40102SOL    HW122203   6.889   7.964  12.038
40102SOL    HW222204   6.934   8.099  12.088
40103SOL     OW22205  10.940   7.591   4.485
40103SOL    HW122206  10.928   7.599   4.579
40103SOL    HW222207  10.854   7.565   4.452
40104SOL     OW22208   2.062   4.526   6.399
40104SOL    HW122209   2.107   4.449   6.366
40104SOL    HW222210   2.062   4.516   6.494
40105SOL     OW22211   3.439  11.946  13.316
40105SOL    HW122212   3.475  12.033  13.332
40105SOL    HW222213   3.399  11.952  13.229
40106SOL     OW22214   9.298  13.947   7.201
40106SOL    HW122215   9.262  14.007   7.136
40106SOL    HW222216   9.302  13.862   7.156
40107SOL     OW22217   2.655   5.972  12.145
40107SOL    HW122218   2.625   6.060  12.122
40107SOL    HW222219   2.604   5.949  12.223
40108SOL     OW22220  13.612   2.253   3.064
40108SOL    HW122221  13.628   2.240   3.157
40108SOL    HW222222  13.528   2.209   3.047
40109SOL     OW22223   1.033  12.504   2.172
40109SOL    HW122224   1.111  12.546   2.136
40109SOL    HW222225   1.062  12.417   2.200
40110SOL     OW22226   3.196   7.661  14.377
40110SOL    HW122227   3.173   7.668  14.470
40110SOL    HW222228   3.193   7.567  14.359
40111SOL     OW22229   5.703   3.779  11.091
40111SOL    HW122230   5.666   3.706  11.141
40111SOL    HW222231   5.773   3.813  11.146
40112SOL     OW22232   7.945  13.277   5.074
40112SOL    HW122233   8.022  13.266   5.131
40112SOL    HW222234   7.917  13.367   5.089
40113SOL     OW22235   3.185  12.565   4.917
40113SOL    HW122236   3.118  12.631   4.939
40113SOL    HW222237   3.140  12.481   4.930
40114SOL     OW22238   6.437   2.105   1.136
40114SOL    HW122239   6.363   2.158   1.108
40114SOL    HW222240   6.495   2.103   1.059
40115SOL     OW22241  13.415   0.951   2.220
40115SOL    HW122242  13.500   0.908   2.226
40115SOL    HW222243  13.434   1.036   2.180
40116SOL     OW22244  10.412  12.706  13.130
40116SOL    HW122245  10.338  12.680  13.185
40116SOL    HW222246  10.418  12.636  13.065
40117SOL     OW22247   4.260   1.486   7.617
40117SOL    HW122248   4.349   1.514   7.595
40117SOL    HW222249   4.239   1.419   7.552
40118SOL     OW22250   2.076   2.079  13.152
40118SOL    HW122251   2.135   2.036  13.214
40118SOL    HW222252   1.991   2.080  13.196
40119SOL     OW22253  14.696   6.673   5.442
40119SOL    HW122254  14.747   6.754   5.439
40119SOL    HW222255  14.674   6.654   5.351
40120SOL     OW22256  12.079  14.651   7.875
40120SOL    HW122257  12.068  14.728   7.931
40120SOL    HW222258  12.174  14.643   7.863
40121SOL     OW22259  12.704   3.052   6.824
40121SOL    HW122260  12.672   3.112   6.756
40121SOL    HW222261  12.789   3.023   6.793
40122SOL     OW22262  10.606   8.355   3.942
40122SOL    HW122263  10.661   8.364   4.021
40122SOL    HW222264  10.619   8.264   3.915
40123SOL     OW22265   2.358   2.258  14.206
40123SOL    HW122266   2.411   2.179  14.204
40123SOL    HW222267   2.403   2.320  14.148
40124SOL     OW22268   2.948   4.076   4.791
40124SOL    HW122269   2.910   4.162   4.812
40124SOL    HW222270   2.872   4.020   4.778
40125SOL     OW22271  10.095   7.850  14.370
40125SOL    HW122272  10.172   7.855  14.426
40125SOL    HW222273  10.038   7.785  14.412
40126SOL     OW22274   7.123  11.673   4.546
40126SOL    HW122275   7.180  11.642   4.476
40126SOL    HW222276   7.036  11.675   4.507
40127SOL     OW22277   3.104   4.775   2.880
40127SOL    HW122278   3.094   4.838   2.808
40127SOL    HW222279   3.020   4.776   2.924
40128SOL     OW22280   0.125  10.683   3.300
40128SOL    HW122281   0.092  10.750   3.360
40128SOL    HW222282   0.133  10.728   3.216
40129SOL     OW22283  11.574   9.497   6.256
40129SOL    HW122284  11.565   9.572   6.315
40129SOL    HW222285  11.565   9.535   6.168
40130SOL     OW22286   8.677   4.878  12.809
40130SOL    HW122287   8.726   4.961  12.804
40130SOL    HW222288   8.694   4.846  12.898
40131SOL     OW22289  11.599   0.520   9.530
40131SOL    HW122290  11.620   0.427   9.539
40131SOL    HW222291  11.512   0.529   9.569
40132SOL     OW22292  12.134   8.079   0.748
40132SOL    HW122293  12.132   8.173   0.729
40132SOL    HW222294  12.213   8.067   0.800
40133SOL     OW22295  12.194   1.496  11.787
40133SOL    HW122296  12.110   1.451  11.800
40133SOL    HW222297  12.171   1.588  11.778
40134SOL     OW22298   0.798   2.598   6.380
40134SOL    HW122299   0.728   2.610   6.445
40134SOL    HW222300   0.834   2.686   6.368
40135SOL     OW22301   5.506   4.390   5.732
40135SOL    HW122302   5.495   4.415   5.640
40135SOL    HW222303   5.585   4.436   5.760
40136SOL     OW22304   4.729  13.859  13.503
40136SOL    HW122305   4.741  13.874  13.409
40136SOL    HW222306   4.817  13.867  13.540
40137SOL     OW22307   8.064   2.707   1.928
40137SOL    HW122308   8.067   2.778   1.864
40137SOL    HW222309   8.120   2.639   1.891
40138SOL     OW22310  11.166   5.167   8.999
40138SOL    HW122311  11.078   5.198   9.019
40138SOL    HW222312  11.195   5.223   8.926
40139SOL     OW22313   5.850  10.712   0.812
40139SOL    HW122314   5.863  10.796   0.768
40139SOL    HW222315   5.762  10.717   0.850
40140SOL     OW22316   9.274   9.721  10.061
40140SOL    HW122317   9.207   9.663  10.024
40140SOL    HW222318   9.312   9.766   9.985
40141SOL     OW22319  14.157   9.714  14.447
40141SOL    HW122320  14.077   9.665  14.427
40141SOL    HW222321  14.204   9.658  14.509
40142SOL     OW22322   0.499   9.794  14.739
40142SOL    HW122323   0.496   9.710  14.693
40142SOL    HW222324   0.414   9.801  14.781
40143SOL     OW22325   7.884  12.179  13.540
40143SOL    HW122326   7.828  12.256  13.541
40143SOL    HW222327   7.958  12.203  13.484
40144SOL     OW22328   1.709   0.446   3.080
40144SOL    HW122329   1.707   0.392   3.158
40144SOL    HW222330   1.655   0.399   3.016
40145SOL     OW22331  14.755  14.699  11.226
40145SOL    HW122332  14.741  14.606  11.246
40145SOL    HW222333  14.821  14.699  11.156
40146SOL     OW22334   9.535   4.688  12.095
40146SOL    HW122335   9.534   4.723  12.184
40146SOL    HW222336   9.573   4.601  12.104
40147SOL     OW22337   7.366  11.501   5.847
40147SOL    HW122338   7.307  11.439   5.804
40147SOL    HW222339   7.414  11.542   5.776
40148SOL     OW22340   4.073   3.162   4.407
40148SOL    HW122341   4.038   3.094   4.349
40148SOL    HW222342   4.152   3.192   4.363
40149SOL     OW22343   8.320   3.448  13.124
40149SOL    HW122344   8.305   3.359  13.091
40149SOL    HW222345   8.402   3.475  13.082
40150SOL     OW22346  11.245   5.076   3.840
40150SOL    HW122347  11.266   5.168   3.852
40150SOL    HW222348  11.330   5.034   3.824
40151SOL     OW22349   5.124   4.268  13.822
40151SOL    HW122350   5.171   4.230  13.748
40151SOL    HW222351   5.170   4.349  13.842
40152SOL     OW22352   4.946   9.563  12.187
40152SOL    HW122353   5.034   9.570  12.224
40152SOL    HW222354   4.960   9.559  12.092
40153SOL     OW22355   0.818   8.629   6.183
40153SOL    HW122356   0.766   8.692   6.133
40153SOL    HW222357   0.832   8.556   6.122
40154SOL     OW22358   6.027   3.163  13.552
40154SOL    HW122359   5.995   3.097  13.614
40154SOL    HW222360   5.963   3.162  13.481
40155SOL     OW22361  10.558   4.977  12.452
40155SOL    HW122362  10.475   4.932  12.463
40155SOL    HW222363  10.590   4.991  12.542
40156SOL     OW22364  10.847   0.021  13.865
40156SOL    HW122365  10.922  14.863  13.918
40156SOL    HW222366  10.817   0.103  13.904
40157SOL     OW22367   5.507  11.433   0.376
40157SOL    HW122368   5.506  11.340   0.396
40157SOL    HW222369   5.415  11.456   0.359
40158SOL     OW22370  10.869  11.704   2.792
40158SOL    HW122371  10.923  11.644   2.741
40158SOL    HW222372  10.874  11.787   2.745
40159SOL     OW22373   5.904   1.305  12.661
40159SOL    HW122374   5.873   1.396  12.659
40159SOL    HW222375   5.837   1.256  12.612
40160SOL     OW22376   3.984  10.082   3.037
40160SOL    HW122377   4.015  10.171   3.055
40160SOL    HW222378   3.895  10.080   3.072
40161SOL     OW22379  10.177   8.065   2.726
40161SOL    HW122380  10.270   8.050   2.744
40161SOL    HW222381  10.176   8.131   2.656
40162SOL     OW22382   7.142   0.825  10.337
40162SOL    HW122383   7.099   0.745  10.305
40162SOL    HW222384   7.088   0.854  10.411
40163SOL     OW22385   1.926   5.085   3.302
40163SOL    HW122386   1.833   5.061   3.304
40163SOL    HW222387   1.951   5.075   3.210
40164SOL     OW22388  12.718   4.972  12.861
40164SOL    HW122389  12.804   5.002  12.833
40164SOL    HW222390  12.712   4.882  12.827
40165SOL     OW22391  13.754  10.868   3.130
40165SOL    HW122392  13.836  10.893   3.172
40165SOL    HW222393  13.725  10.790   3.178
40166SOL     OW22394   2.491  12.988   2.099
40166SOL    HW122395   2.529  13.074   2.114
40166SOL    HW222396   2.554  12.927   2.138
40167SOL     OW22397  10.849   9.097   5.503
40167SOL    HW122398  10.906   9.086   5.580
40167SOL    HW222399  10.779   9.034   5.517
40168SOL     OW22400   8.444   8.452   5.690
40168SOL    HW122401   8.358   8.438   5.731
40168SOL    HW222402   8.446   8.545   5.669
40169SOL     OW22403   6.161   1.761   5.593
40169SOL    HW122404   6.251   1.754   5.624
40169SOL    HW222405   6.125   1.835   5.642
40170SOL     OW22406   7.734   7.521   1.336
40170SOL    HW122407   7.678   7.456   1.293
40170SOL    HW222408   7.682   7.551   1.410
40171SOL     OW22409   9.060   5.555   1.745
40171SOL    HW122410   9.039   5.644   1.773
40171SOL    HW222411   9.119   5.522   1.813
40172SOL     OW22412  12.691   2.885  13.608
40172SOL    HW122413  12.680   2.790  13.618
40172SOL    HW222414  12.606   2.922  13.632
40173SOL     OW22415   3.186   8.720   1.251
40173SOL    HW122416   3.147   8.640   1.285
40173SOL    HW222417   3.198   8.703   1.158
40174SOL     OW22418  14.530   8.979   6.802
40174SOL    HW122419  14.476   9.057   6.808
40174SOL    HW222420  14.605   9.005   6.750
40175SOL     OW22421   2.637   0.582  10.399
40175SOL    HW122422   2.622   0.627  10.481
40175SOL    HW222423   2.621   0.490  10.419
40176SOL     OW22424  13.684  13.060  13.893
40176SOL    HW122425  13.665  13.153  13.883
40176SOL    HW222426  13.697  13.028  13.804
40177SOL     OW22427   8.346   1.492   7.917
40177SOL    HW122428   8.380   1.567   7.870
40177SOL    HW222429   8.401   1.485   7.995
40178SOL     OW22430   2.574   0.429   1.748
40178SOL    HW122431   2.547   0.393   1.832
40178SOL    HW222432   2.500   0.481   1.718
40179SOL     OW22433   7.015   3.236  12.387
40179SOL    HW122434   6.985   3.224  12.297
40179SOL    HW222435   6.940   3.210  12.441
40180SOL     OW22436   9.361   6.894   1.569
40180SOL    HW122437   9.369   6.872   1.662
40180SOL    HW222438   9.269   6.915   1.557
40181SOL     OW22439   4.521   8.883   8.261
40181SOL    HW122440   4.516   8.814   8.327
40181SOL    HW222441   4.553   8.839   8.182
40182SOL     OW22442   1.559   8.981   2.242
40182SOL    HW122443   1.580   9.002   2.333
40182SOL    HW222444   1.473   9.020   2.227
40183SOL     OW22445   2.394   1.958   4.694
40183SOL    HW122446   2.323   2.017   4.669
40183SOL    HW222447   2.454   1.960   4.619
40184SOL     OW22448   6.107   7.391   2.594
40184SOL    HW122449   6.137   7.301   2.599
40184SOL    HW222450   6.094   7.406   2.500
40185SOL     OW22451   6.736   8.605  14.395
40185SOL    HW122452   6.641   8.611  14.396
40185SOL    HW222453   6.759   8.575  14.483
40186SOL     OW22454   9.918  11.932   9.527
40186SOL    HW122455   9.825  11.938   9.545
40186SOL    HW222456   9.929  11.847   9.484
40187SOL     OW22457   8.568  13.826   3.806
40187SOL    HW122458   8.619  13.877   3.743
40187SOL    HW222459   8.633  13.772   3.852
40188SOL     OW22460   2.538   3.957  13.793
40188SOL    HW122461   2.575   3.989  13.710
40188SOL    HW222462   2.608   3.972  13.857
40189SOL     OW22463   6.911   7.231  10.095
40189SOL    HW122464   6.870   7.273  10.020
40189SOL    HW222465   6.964   7.161  10.057
40190SOL     OW22466   3.863   1.326   5.809
40190SOL    HW122467   3.869   1.322   5.905
40190SOL    HW222468   3.938   1.380   5.783
40191SOL     OW22469   8.131   3.550  14.025
40191SOL    HW122470   8.127   3.521  13.934
40191SOL    HW222471   8.191   3.624  14.023
40192SOL     OW22472   5.387   7.831   7.449
40192SOL    HW122473   5.384   7.740   7.481
40192SOL    HW222474   5.338   7.828   7.367
40193SOL     OW22475   9.169   2.511   6.821
40193SOL    HW122476   9.256   2.539   6.849
40193SOL    HW222477   9.119   2.592   6.813
40194SOL     OW22478   4.777   9.276  10.856
40194SOL    HW122479   4.782   9.342  10.926
40194SOL    HW222480   4.863   9.234  10.857
40195SOL     OW22481   1.922   5.328  10.035
40195SOL    HW122482   1.892   5.341   9.944
40195SOL    HW222483   1.852   5.365  10.088
40196SOL     OW22484   0.775   2.668  12.203
40196SOL    HW122485   0.760   2.574  12.215
40196SOL    HW222486   0.689   2.708  12.217
40197SOL     OW22487   1.474  13.317  11.894
40197SOL    HW122488   1.431  13.402  11.889
40197SOL    HW222489   1.438  13.268  11.820
40198SOL     OW22490   9.417   2.028  12.125
40198SOL    HW122491   9.488   2.090  12.141
40198SOL    HW222492   9.455   1.942  12.138
40199SOL     OW22493   9.363  12.850   6.729
40199SOL    HW122494   9.441  12.799   6.705
40199SOL    HW222495   9.330  12.808   6.808
40200SOL     OW22496   0.204   2.926   1.397
40200SOL    HW122497   0.172   2.932   1.307
40200SOL    HW222498   0.261   2.850   1.398
40201SOL     OW22499   0.463   0.915  14.823
40201SOL    HW122500   0.474   0.885   0.045
40201SOL    HW222501   0.436   1.007  14.832
40202SOL     OW22502  13.137  12.903   7.334
40202SOL    HW122503  13.140  12.815   7.371
40202SOL    HW222504  13.076  12.897   7.261
40203SOL     OW22505   3.896   0.111   8.556
40203SOL    HW122506   3.965   0.060   8.597
40203SOL    HW222507   3.882   0.069   8.471
40204SOL     OW22508   6.865   2.128   2.376
40204SOL    HW122509   6.947   2.115   2.330
40204SOL    HW222510   6.891   2.156   2.464
40205SOL     OW22511   2.427  11.673   9.314
40205SOL    HW122512   2.471  11.735   9.256
40205SOL    HW222513   2.496  11.646   9.376
40206SOL     OW22514   0.659   7.983   7.188
40206SOL    HW122515   0.755   7.982   7.183
40206SOL    HW222516   0.630   8.006   7.100
40207SOL     OW22517  13.992   3.283   6.361
40207SOL    HW122518  13.954   3.370   6.370
40207SOL    HW222519  14.005   3.272   6.266
40208SOL     OW22520   4.388   9.083   0.679
40208SOL    HW122521   4.353   9.005   0.721
40208SOL    HW222522   4.438   9.127   0.747
40209SOL     OW22523   5.931   1.929   7.062
40209SOL    HW122524   5.874   1.854   7.044
40209SOL    HW222525   6.010   1.911   7.012
40210SOL     OW22526  13.816   5.604   3.848
40210SOL    HW122527  13.744   5.541   3.848
40210SOL    HW222528  13.857   5.593   3.934
40211SOL     OW22529   7.616  11.040  13.743
40211SOL    HW122530   7.543  11.002  13.792
40211SOL    HW222531   7.607  11.003  13.655
40212SOL     OW22532  12.910  12.426   7.840
40212SOL    HW122533  12.912  12.479   7.919
40212SOL    HW222534  12.879  12.341   7.868
40213SOL     OW22535   1.219   5.014   8.352
40213SOL    HW122536   1.189   5.009   8.261
40213SOL    HW222537   1.210   5.106   8.375
40214SOL     OW22538   4.353   0.284   3.490
40214SOL    HW122539   4.389   0.265   3.403
40214SOL    HW222540   4.370   0.204   3.540
40215SOL     OW22541   6.666   6.851  14.692
40215SOL    HW122542   6.755   6.816  14.689
40215SOL    HW222543   6.637   6.837  14.782
40216SOL     OW22544  12.668   1.684   4.825
40216SOL    HW122545  12.676   1.779   4.825
40216SOL    HW222546  12.617   1.664   4.903
40217SOL     OW22547   6.758  10.151   2.032
40217SOL    HW122548   6.787  10.133   1.943
40217SOL    HW222549   6.819  10.101   2.087
40218SOL     OW22550   5.495  10.695  14.844
40218SOL    HW122551   5.491  10.715   0.070
40218SOL    HW222552   5.574  10.740  14.813
40219SOL     OW22553   7.780   8.717   8.444
40219SOL    HW122554   7.772   8.623   8.457
40219SOL    HW222555   7.751   8.756   8.526
40220SOL     OW22556   4.565  12.414   6.095
40220SOL    HW122557   4.651  12.453   6.077
40220SOL    HW222558   4.516  12.483   6.141
40221SOL     OW22559   8.957  11.165   7.928
40221SOL    HW122560   9.017  11.100   7.894
40221SOL    HW222561   8.897  11.116   7.984
40222SOL     OW22562   1.339  10.728  13.119
40222SOL    HW122563   1.395  10.726  13.042
40222SOL    HW222564   1.270  10.791  13.097
40223SOL     OW22565  13.329   6.561   4.036
40223SOL    HW122566  13.424   6.546   4.037
40223SOL    HW222567  13.315   6.629   4.101
40224SOL     OW22568   1.699   3.490   0.056
40224SOL    HW122569   1.642   3.550   0.105
40224SOL    HW222570   1.647   3.410   0.047
40225SOL     OW22571   2.076   3.265  13.369
40225SOL    HW122572   2.051   3.183  13.412
40225SOL    HW222573   2.034   3.260  13.283
40226SOL     OW22574  13.241  11.414   5.144
40226SOL    HW122575  13.230  11.414   5.049
40226SOL    HW222576  13.170  11.359   5.177
40227SOL     OW22577  13.722   3.152   1.835
40227SOL    HW122578  13.813   3.173   1.816
40227SOL    HW222579  13.686   3.122   1.751
40228SOL     OW22580  12.248  13.643   3.991
40228SOL    HW122581  12.225  13.671   3.902
40228SOL    HW222582  12.291  13.719   4.030
40229SOL     OW22583   7.554   6.806  10.158
40229SOL    HW122584   7.533   6.734  10.099
40229SOL    HW222585   7.526   6.885  10.112
40230SOL     OW22586   2.492  10.043  13.606
40230SOL    HW122587   2.491   9.978  13.536
40230SOL    HW222588   2.482   9.993  13.687
40231SOL     OW22589  10.512   8.415   2.119
40231SOL    HW122590  10.528   8.420   2.213
40231SOL    HW222591  10.456   8.490   2.100
40232SOL     OW22592   5.898   6.012  12.632
40232SOL    HW122593   5.834   6.083  12.629
40232SOL    HW222594   5.946   6.027  12.714
40233SOL     OW22595   1.518   5.199   1.852
40233SOL    HW122596   1.493   5.194   1.944
40233SOL    HW222597   1.600   5.149   1.847
40234SOL     OW22598   0.317   1.294   8.888
40234SOL    HW122599   0.276   1.370   8.847
40234SOL    HW222600   0.397   1.328   8.928
40235SOL     OW22601  14.224   7.739   1.532
40235SOL    HW122602  14.266   7.737   1.618
40235SOL    HW222603  14.145   7.685   1.543
40236SOL     OW22604   4.583   0.471   7.509
40236SOL    HW122605   4.578   0.547   7.568
40236SOL    HW222606   4.627   0.505   7.431
40237SOL     OW22607   8.575   4.880   5.959
40237SOL    HW122608   8.664   4.856   5.933
40237SOL    HW222609   8.565   4.971   5.930
40238SOL     OW22610   9.756   7.837   3.570
40238SOL    HW122611   9.683   7.808   3.624
40238SOL    HW222612   9.831   7.842   3.630
40239SOL     OW22613   9.123   6.581   5.408
40239SOL    HW122614   9.217   6.588   5.393
40239SOL    HW222615   9.109   6.626   5.492
40240SOL     OW22616   3.718   7.046   7.428
40240SOL    HW122617   3.703   7.083   7.341
40240SOL    HW222618   3.738   7.121   7.483
40241SOL     OW22619  12.645  10.144   9.106
40241SOL    HW122620  12.726  10.196   9.109
40241SOL    HW222621  12.642  10.099   9.190
40242SOL     OW22622   9.734   8.089   8.571
40242SOL    HW122623   9.645   8.074   8.538
40242SOL    HW222624   9.731   8.176   8.609
40243SOL     OW22625  13.228  11.274  11.923
40243SOL    HW122626  13.235  11.213  11.849
40243SOL    HW222627  13.144  11.254  11.963
40244SOL     OW22628   8.443   6.709  11.675
40244SOL    HW122629   8.399   6.746  11.599
40244SOL    HW222630   8.527   6.678  11.641
40245SOL     OW22631  10.431   5.397   2.616
40245SOL    HW122632  10.503   5.453   2.644
40245SOL    HW222633  10.356   5.427   2.668
40246SOL     OW22634  14.467   4.636   5.369
40246SOL    HW122635  14.542   4.685   5.402
40246SOL    HW222636  14.392   4.673   5.415
40247SOL     OW22637   7.115   9.810   2.443
40247SOL    HW122638   7.024   9.830   2.424
40247SOL    HW222639   7.150   9.890   2.483
40248SOL     OW22640  13.509   4.181   7.059
40248SOL    HW122641  13.566   4.234   7.003
40248SOL    HW222642  13.566   4.154   7.131
40249SOL     OW22643   7.713  11.814   7.993
40249SOL    HW122644   7.780  11.795   8.059
40249SOL    HW222645   7.652  11.740   7.999
40250SOL     OW22646   5.874   4.849   5.927
40250SOL    HW122647   5.784   4.881   5.918
40250SOL    HW222648   5.913   4.904   5.996
40251SOL     OW22649  13.966   9.836   2.255
40251SOL    HW122650  14.041   9.800   2.208
40251SOL    HW222651  14.000   9.914   2.300
40252SOL     OW22652   4.227   9.120   2.717
40252SOL    HW122653   4.166   9.192   2.732
40252SOL    HW222654   4.310   9.163   2.696
40253SOL     OW22655   1.825   8.823   5.365
40253SOL    HW122656   1.895   8.821   5.431
40253SOL    HW222657   1.831   8.910   5.326
40254SOL     OW22658  12.536  13.326  10.548
40254SOL    HW122659  12.512  13.251  10.602
40254SOL    HW222660  12.600  13.291  10.486
40255SOL     OW22661   2.184   3.669   9.379
40255SOL    HW122662   2.092   3.689   9.395
40255SOL    HW222663   2.197   3.583   9.418
40256SOL     OW22664  12.874  11.285   3.759
40256SOL    HW122665  12.788  11.267   3.797
40256SOL    HW222666  12.861  11.366   3.709
40257SOL     OW22667   8.218   0.375   8.345
40257SOL    HW122668   8.276   0.413   8.411
40257SOL    HW222669   8.148   0.333   8.395
40258SOL     OW22670   8.564   1.257   4.340
40258SOL    HW122671   8.490   1.273   4.398
40258SOL    HW222672   8.532   1.283   4.253
40259SOL     OW22673  13.707   3.066   7.413
40259SOL    HW122674  13.626   3.098   7.372
40259SOL    HW222675  13.774   3.126   7.382
40260SOL     OW22676   6.356  13.740  14.150
40260SOL    HW122677   6.441  13.767  14.184
40260SOL    HW222678   6.364  13.645  14.136
40261SOL     OW22679   9.135   9.351   0.928
40261SOL    HW122680   9.063   9.298   0.893
40261SOL    HW222681   9.110   9.367   1.019
40262SOL     OW22682  11.849  12.318  11.983
40262SOL    HW122683  11.918  12.285  12.041
40262SOL    HW222684  11.875  12.408  11.964
40263SOL     OW22685  11.144   0.002   7.918
40263SOL    HW122686  11.172  14.781   7.896
40263SOL    HW222687  11.188   0.057   7.853
40264SOL     OW22688  14.741  11.670   4.686
40264SOL    HW122689  14.698  11.695   4.604
40264SOL    HW222690  14.670  11.633   4.739
40265SOL     OW22691  10.322   9.098   5.134
40265SOL    HW122692  10.291   9.008   5.131
40265SOL    HW222693  10.327   9.125   5.042
40266SOL     OW22694   2.636   9.628   8.614
40266SOL    HW122695   2.669   9.718   8.612
40266SOL    HW222696   2.665   9.591   8.531
40267SOL     OW22697  14.473  14.322  14.283
40267SOL    HW122698  14.498  14.387  14.217
40267SOL    HW222699  14.383  14.344  14.306
40268SOL     OW22700  13.570   6.541   8.407
40268SOL    HW122701  13.559   6.583   8.322
40268SOL    HW222702  13.600   6.611   8.465
40269SOL     OW22703   2.497   4.511   6.443
40269SOL    HW122704   2.422   4.547   6.396
40269SOL    HW222705   2.537   4.450   6.380
40270SOL     OW22706  10.057  10.080  11.694
40270SOL    HW122707  10.088  10.131  11.619
40270SOL    HW222708  10.030  10.145  11.758
40271SOL     OW22709   5.669   9.036   4.725
40271SOL    HW122710   5.728   8.985   4.780
40271SOL    HW222711   5.662   8.985   4.644
40272SOL     OW22712  10.568  14.092   5.715
40272SOL    HW122713  10.582  14.036   5.792
40272SOL    HW222714  10.655  14.125   5.693
40273SOL     OW22715   5.913  12.960   9.239
40273SOL    HW122716   5.820  12.943   9.225
40273SOL    HW222717   5.948  12.877   9.272
40274SOL     OW22718   6.340  14.535  10.706
40274SOL    HW122719   6.403  14.546  10.777
40274SOL    HW222720   6.348  14.443  10.681
40275SOL     OW22721   3.849   1.717   7.430
40275SOL    HW122722   3.843   1.778   7.503
40275SOL    HW222723   3.863   1.772   7.353
40276SOL     OW22724   3.470   9.011   4.320
40276SOL    HW122725   3.517   9.069   4.379
40276SOL    HW222726   3.460   8.929   4.370
40277SOL     OW22727  10.388  13.642  12.445
40277SOL    HW122728  10.441  13.720  12.459
40277SOL    HW222729  10.419  13.607  12.361
40278SOL     OW22730   8.592  14.457  11.366
40278SOL    HW122731   8.575  14.509  11.445
40278SOL    HW222732   8.687  14.460  11.356
40279SOL     OW22733  12.149  11.251  14.805
40279SOL    HW122734  12.185  11.308   0.005
40279SOL    HW222735  12.054  11.261  14.813
40280SOL     OW22736   4.233  10.548   6.787
40280SOL    HW122737   4.157  10.594   6.825
40280SOL    HW222738   4.293  10.618   6.762
40281SOL     OW22739   7.305   7.524   8.238
40281SOL    HW122740   7.400   7.535   8.239
40281SOL    HW222741   7.283   7.499   8.328
40282SOL     OW22742   3.708   7.863   8.269
40282SOL    HW122743   3.786   7.873   8.324
40282SOL    HW222744   3.716   7.776   8.231
40283SOL     OW22745   3.832   1.612  14.664
40283SOL    HW122746   3.828   1.687  14.604
40283SOL    HW222747   3.748   1.569  14.653
40284SOL     OW22748   5.797   6.556   6.614
40284SOL    HW122749   5.738   6.623   6.650
40284SOL    HW222750   5.871   6.606   6.579
40285SOL     OW22751   3.853   1.109   6.272
40285SOL    HW122752   3.837   1.048   6.200
40285SOL    HW222753   3.919   1.066   6.326
40286SOL     OW22754   4.793   1.708   3.904
40286SOL    HW122755   4.818   1.733   3.993
40286SOL    HW222756   4.698   1.721   3.902
40287SOL     OW22757   6.995  11.906  11.695
40287SOL    HW122758   7.025  11.995  11.714
40287SOL    HW222759   6.900  11.910  11.705
40288SOL     OW22760  14.507   9.817  14.247
40288SOL    HW122761  14.525   9.786  14.336
40288SOL    HW222762  14.587   9.862  14.220
40289SOL     OW22763   3.432   5.759   9.264
40289SOL    HW122764   3.504   5.728   9.319
40289SOL    HW222765   3.470   5.766   9.177
40290SOL     OW22766   1.256   0.224   4.339
40290SOL    HW122767   1.243   0.284   4.413
40290SOL    HW222768   1.202   0.148   4.360
40291SOL     OW22769  12.881   2.702  11.210
40291SOL    HW122770  12.959   2.708  11.265
40291SOL    HW222771  12.856   2.610  11.214
40292SOL     OW22772  13.789  11.800  12.085
40292SOL    HW122773  13.760  11.716  12.050
40292SOL    HW222774  13.727  11.863  12.049
40293SOL     OW22775  12.626   6.622  12.395
40293SOL    HW122776  12.554   6.683  12.412
40293SOL    HW222777  12.612   6.550  12.456
40294SOL     OW22778  13.104   8.391  14.441
40294SOL    HW122779  13.152   8.340  14.376
40294SOL    HW222780  13.168   8.455  14.473
40295SOL     OW22781   5.739   3.926   9.306
40295SOL    HW122782   5.829   3.920   9.339
40295SOL    HW222783   5.739   3.875   9.225
40296SOL     OW22784   3.324   9.016   4.578
40296SOL    HW122785   3.391   8.987   4.640
40296SOL    HW222786   3.309   8.940   4.522
40297SOL     OW22787   1.668   6.903   0.533
40297SOL    HW122788   1.703   6.867   0.452
40297SOL    HW222789   1.745   6.935   0.581
40298SOL     OW22790   2.226  11.171   7.084
40298SOL    HW122791   2.278  11.123   7.019
40298SOL    HW222792   2.278  11.167   7.164
40299SOL     OW22793   2.469   7.197   5.147
40299SOL    HW122794   2.476   7.224   5.055
40299SOL    HW222795   2.375   7.189   5.163
40300SOL     OW22796   6.571   3.579   2.619
40300SOL    HW122797   6.639   3.515   2.637
40300SOL    HW222798   6.529   3.548   2.539
40301SOL     OW22799   1.186   2.657  10.760
40301SOL    HW122800   1.245   2.667  10.834
40301SOL    HW222801   1.213   2.726  10.699
40302SOL     OW22802   9.399  14.576  12.295
40302SOL    HW122803   9.451  14.519  12.238
40302SOL    HW222804   9.335  14.518  12.336
40303SOL     OW22805   8.896  12.088  11.154
40303SOL    HW122806   8.929  12.177  11.160
40303SOL    HW222807   8.966  12.034  11.190
40304SOL     OW22808   1.169   6.557   0.140
40304SOL    HW122809   1.190   6.592   0.054
40304SOL    HW222810   1.076   6.536   0.136
40305SOL     OW22811  10.005  14.704   7.829
40305SOL    HW122812  10.086  14.754   7.835
40305SOL    HW222813  10.029  14.625   7.779
40306SOL     OW22814   4.017   6.603   8.013
40306SOL    HW122815   3.928   6.640   8.018
40306SOL    HW222816   4.048   6.604   8.104
40307SOL     OW22817   5.223   6.670   1.951
40307SOL    HW122818   5.276   6.731   1.901
40307SOL    HW222819   5.134   6.686   1.922
40308SOL     OW22820   3.534  12.327  12.667
40308SOL    HW122821   3.570  12.410  12.696
40308SOL    HW222822   3.446  12.324  12.706
40309SOL     OW22823  12.580  10.120  12.422
40309SOL    HW122824  12.591  10.040  12.371
40309SOL    HW222825  12.640  10.109  12.496
40310SOL     OW22826  14.200   0.037  13.110
40310SOL    HW122827  14.208  14.852  13.189
40310SOL    HW222828  14.219  14.844  13.039
40311SOL     OW22829  13.659   6.667  12.732
40311SOL    HW122830  13.678   6.683  12.639
40311SOL    HW222831  13.744   6.675  12.776
40312SOL     OW22832   3.338   7.157   9.006
40312SOL    HW122833   3.403   7.128   8.942
40312SOL    HW222834   3.385   7.219   9.062
40313SOL     OW22835  13.903   6.383  12.820
40313SOL    HW122836  13.989   6.342  12.813
40313SOL    HW222837  13.843   6.318  12.783
40314SOL     OW22838   9.831   7.435   4.367
40314SOL    HW122839   9.841   7.431   4.463
40314SOL    HW222840   9.752   7.383   4.349
40315SOL     OW22841   7.890  11.227   3.360
40315SOL    HW122842   7.912  11.182   3.442
40315SOL    HW222843   7.908  11.162   3.292
40316SOL     OW22844  13.228   7.682   1.878
40316SOL    HW122845  13.221   7.608   1.938
40316SOL    HW222846  13.320   7.706   1.880
40317SOL     OW22847   2.403   7.586  13.968
40317SOL    HW122848   2.499   7.584  13.971
40317SOL    HW222849   2.377   7.499  13.999
40318SOL     OW22850  12.118   0.066   0.914
40318SOL    HW122851  12.044   0.080   0.973
40318SOL    HW222852  12.126   0.149   0.866
40319SOL     OW22853  11.868   5.612  11.285
40319SOL    HW122854  11.867   5.695  11.237
40319SOL    HW222855  11.816   5.630  11.364
40320SOL     OW22856   3.432  14.269  13.995
40320SOL    HW122857   3.435  14.240  13.904
40320SOL    HW222858   3.342  14.252  14.022
40321SOL     OW22859   4.027  14.577   7.802
40321SOL    HW122860   3.945  14.531   7.822
40321SOL    HW222861   4.095  14.521   7.839
40322SOL     OW22862   0.307   1.942  10.341
40322SOL    HW122863   0.259   1.861  10.323
40322SOL    HW222864   0.303   1.950  10.436
40323SOL     OW22865  12.590   3.691   4.581
40323SOL    HW122866  12.641   3.740   4.516
40323SOL    HW222867  12.539   3.628   4.530
40324SOL     OW22868  11.263   9.477   7.184
40324SOL    HW122869  11.170   9.499   7.181
40324SOL    HW222870  11.285   9.452   7.094
40325SOL     OW22871  14.678  10.247   3.221
40325SOL    HW122872  14.593  10.271   3.258
40325SOL    HW222873  14.733  10.323   3.236
40326SOL     OW22874  14.791  12.019  10.394
40326SOL    HW122875  14.793  12.031  10.489
40326SOL    HW222876  14.739  12.093  10.362
40327SOL     OW22877  10.397   6.788   3.646
40327SOL    HW122878  10.454   6.717   3.618
40327SOL    HW222879  10.347   6.751   3.719
40328SOL     OW22880  13.256   8.949   4.103
40328SOL    HW122881  13.277   9.031   4.147
40328SOL    HW222882  13.261   8.970   4.009
40329SOL     OW22883   1.771   9.611   0.564
40329SOL    HW122884   1.734   9.597   0.477
40329SOL    HW222885   1.703   9.657   0.613
40330SOL     OW22886   8.040  11.226   4.908
40330SOL    HW122887   8.023  11.298   4.969
40330SOL    HW222888   8.088  11.267   4.836
40331SOL     OW22889   9.798   8.048   1.774
40331SOL    HW122890   9.746   8.121   1.807
40331SOL    HW222891   9.811   8.068   1.681
40332SOL     OW22892  11.395   1.671  12.211
40332SOL    HW122893  11.480   1.636  12.187
40332SOL    HW222894  11.365   1.616  12.283
40333SOL     OW22895  14.309  14.119   8.739
40333SOL    HW122896  14.279  14.207   8.763
40333SOL    HW222897  14.400  14.116   8.767
40334SOL     OW22898   6.729  10.931  14.184
40334SOL    HW122899   6.709  10.935  14.277
40334SOL    HW222900   6.813  10.886  14.179
40335SOL     OW22901   6.692   2.088   7.672
40335SOL    HW122902   6.760   2.052   7.615
40335SOL    HW222903   6.683   2.179   7.645
40336SOL     OW22904   1.642   0.984   0.636
40336SOL    HW122905   1.650   0.925   0.561
40336SOL    HW222906   1.557   1.026   0.624
40337SOL     OW22907   0.584  14.061   2.081
40337SOL    HW122908   0.498  14.028   2.055
40337SOL    HW222909   0.567  14.143   2.125
40338SOL     OW22910   4.374   2.962   2.999
40338SOL    HW122911   4.350   3.054   3.013
40338SOL    HW222912   4.357   2.919   3.083
40339SOL     OW22913  10.215   2.442   4.215
40339SOL    HW122914  10.190   2.535   4.216
40339SOL    HW222915  10.136   2.397   4.184
40340SOL     OW22916  11.042  13.964   7.038
40340SOL    HW122917  11.009  14.054   7.040
40340SOL    HW222918  10.973  13.915   6.994
40341SOL     OW22919   4.803  10.034   6.914
40341SOL    HW122920   4.811  10.017   7.008
40341SOL    HW222921   4.735  10.102   6.908
40342SOL     OW22922   5.233   1.346  13.128
40342SOL    HW122923   5.140   1.335  13.108
40342SOL    HW222924   5.245   1.303  13.213
40343SOL     OW22925   4.438   2.723   6.266
40343SOL    HW122926   4.392   2.745   6.347
40343SOL    HW222927   4.481   2.639   6.284
40344SOL     OW22928   3.572  11.031   4.941
40344SOL    HW122929   3.648  10.990   4.981
40344SOL    HW222930   3.543  10.969   4.874
40345SOL     OW22931  11.265   9.093   4.885
40345SOL    HW122932  11.312   9.173   4.904
40345SOL    HW222933  11.261   9.089   4.790
40346SOL     OW22934   4.083  13.637   3.145
40346SOL    HW122935   4.130  13.555   3.156
40346SOL    HW222936   3.993  13.617   3.170
40347SOL     OW22937   5.474   2.821   4.355
40347SOL    HW122938   5.474   2.787   4.444
40347SOL    HW222939   5.506   2.910   4.363
40348SOL     OW22940  11.935   9.211  10.054
40348SOL    HW122941  11.867   9.268  10.091
40348SOL    HW222942  11.900   9.186   9.969
40349SOL     OW22943   4.357   3.988  14.097
40349SOL    HW122944   4.427   3.988  14.032
40349SOL    HW222945   4.382   3.921  14.159
40350SOL     OW22946   8.570   6.172   8.135
40350SOL    HW122947   8.521   6.223   8.071
40350SOL    HW222948   8.523   6.187   8.218
40351SOL     OW22949   2.626   0.331   3.854
40351SOL    HW122950   2.710   0.373   3.868
40351SOL    HW222951   2.562   0.394   3.887
40352SOL     OW22952  10.791   9.142  12.004
40352SOL    HW122953  10.752   9.073  12.057
40352SOL    HW222954  10.719   9.174  11.949
40353SOL     OW22955  12.679   4.850   1.282
40353SOL    HW122956  12.739   4.924   1.283
40353SOL    HW222957  12.643   4.850   1.193
40354SOL     OW22958   9.004   7.901   7.399
40354SOL    HW122959   9.034   7.938   7.483
40354SOL    HW222960   9.071   7.836   7.377
40355SOL     OW22961   1.559   8.163  10.887
40355SOL    HW122962   1.494   8.126  10.947
40355SOL    HW222963   1.511   8.174  10.804
40356SOL     OW22964   1.872   4.813   3.967
40356SOL    HW122965   1.958   4.772   3.959
40356SOL    HW222966   1.853   4.811   4.060
40357SOL     OW22967   4.159  14.388   1.338
40357SOL    HW122968   4.095  14.454   1.367
40357SOL    HW222969   4.198  14.356   1.419
40358SOL     OW22970   1.477  12.568   7.687
40358SOL    HW122971   1.387  12.586   7.716
40358SOL    HW222972   1.526  12.647   7.710
40359SOL     OW22973   9.713  10.681   1.881
40359SOL    HW122974   9.781  10.718   1.937
40359SOL    HW222975   9.632  10.694   1.930
40360SOL     OW22976   6.349   9.228  12.486
40360SOL    HW122977   6.432   9.216  12.532
40360SOL    HW222978   6.368   9.201  12.396
40361SOL     OW22979   8.756   5.029   5.535
40361SOL    HW122980   8.806   5.087   5.593
40361SOL    HW222981   8.777   4.941   5.566
40362SOL     OW22982   6.668   7.322   8.755
40362SOL    HW122983   6.598   7.383   8.776
40362SOL    HW222984   6.678   7.328   8.660
40363SOL     OW22985  11.496   7.203   3.700
40363SOL    HW122986  11.528   7.289   3.672
40363SOL    HW222987  11.486   7.153   3.619
40364SOL     OW22988   0.959   4.160   7.185
40364SOL    HW122989   1.020   4.086   7.182
40364SOL    HW222990   1.003   4.225   7.240
40365SOL     OW22991   1.931   8.436   6.671
40365SOL    HW122992   1.994   8.366   6.688
40365SOL    HW222993   1.861   8.422   6.734
40366SOL     OW22994   8.105   4.740   8.681
40366SOL    HW122995   8.042   4.750   8.609
40366SOL    HW222996   8.127   4.647   8.682
40367SOL     OW22997   5.121  13.569   7.426
40367SOL    HW122998   5.092  13.575   7.517
40367SOL    HW222999   5.097  13.653   7.388
40368SOL     OW23000   1.145   1.946  11.698
40368SOL    HW123001   1.122   2.033  11.731
40368SOL    HW223002   1.240   1.939  11.711
40369SOL     OW23003   9.681   8.011   9.591
40369SOL    HW123004   9.614   8.047   9.533
40369SOL    HW223005   9.642   8.014   9.678
40370SOL     OW23006   5.989   8.728   0.308
40370SOL    HW123007   6.069   8.766   0.345
40370SOL    HW223008   5.919   8.768   0.359
40371SOL     OW23009   5.740   2.376   2.043
40371SOL    HW123010   5.751   2.421   2.127
40371SOL    HW223011   5.811   2.409   1.989
40372SOL     OW23012  13.004   3.169  14.073
40372SOL    HW123013  13.039   3.199  14.156
40372SOL    HW223014  12.998   3.073  14.082
40373SOL     OW23015   7.378  11.284   7.209
40373SOL    HW123016   7.338  11.345   7.147
40373SOL    HW223017   7.441  11.234   7.157
40374SOL     OW23018   5.343  12.136   0.787
40374SOL    HW123019   5.438  12.136   0.799
40374SOL    HW223020   5.308  12.151   0.875
40375SOL     OW23021   2.855   7.742  11.554
40375SOL    HW123022   2.923   7.703  11.500
40375SOL    HW223023   2.899   7.762  11.637
40376SOL     OW23024   9.073  12.718   5.536
40376SOL    HW123025   9.018  12.646   5.506
40376SOL    HW223026   9.018  12.766   5.597
40377SOL     OW23027  10.389  12.793   2.282
40377SOL    HW123028  10.335  12.781   2.203
40377SOL    HW223029  10.332  12.765   2.354
40378SOL     OW23030  14.492  12.995  11.933
40378SOL    HW123031  14.420  12.941  11.965
40378SOL    HW223032  14.535  12.941  11.867
40379SOL     OW23033  11.127  14.789   6.189
40379SOL    HW123034  11.118   0.016   6.200
40379SOL    HW223035  11.216  14.776   6.157
40380SOL     OW23036   1.905   4.766   5.648
40380SOL    HW123037   1.999   4.774   5.635
40380SOL    HW223038   1.867   4.829   5.588
40381SOL     OW23039   5.754   7.621  12.393
40381SOL    HW123040   5.807   7.700  12.403
40381SOL    HW223041   5.664   7.650  12.404
40382SOL     OW23042   7.713   6.105  11.487
40382SOL    HW123043   7.784   6.165  11.465
40382SOL    HW223044   7.712   6.103  11.583
40383SOL     OW23045  13.510   4.550  13.267
40383SOL    HW123046  13.506   4.564  13.362
40383SOL    HW223047  13.597   4.580  13.242
40384SOL     OW23048   2.570   5.172  10.475
40384SOL    HW123049   2.628   5.192  10.401
40384SOL    HW223050   2.544   5.258  10.508
40385SOL     OW23051  10.777   0.615  11.675
40385SOL    HW123052  10.765   0.573  11.760
40385SOL    HW223053  10.690   0.614  11.635
40386SOL     OW23054  11.869   3.594  11.554
40386SOL    HW123055  11.901   3.511  11.518
40386SOL    HW223056  11.811   3.567  11.626
40387SOL     OW23057   5.141   1.373  12.205
40387SOL    HW123058   5.129   1.366  12.300
40387SOL    HW223059   5.218   1.428  12.195
40388SOL     OW23060   5.876  10.452  14.770
40388SOL    HW123061   5.965  10.485  14.756
40388SOL    HW223062   5.870  10.438  14.865
40389SOL     OW23063  10.427   7.658  14.337
40389SOL    HW123064  10.465   7.674  14.424
40389SOL    HW223065  10.465   7.725  14.281
40390SOL     OW23066   3.768   7.554   2.768
40390SOL    HW123067   3.764   7.497   2.691
40390SOL    HW223068   3.826   7.509   2.829
40391SOL     OW23069   7.648  12.518  12.967
40391SOL    HW123070   7.592  12.444  12.989
40391SOL    HW223071   7.647  12.523  12.872
40392SOL     OW23072  10.313   9.469  11.161
40392SOL    HW123073  10.271   9.555  11.151
40392SOL    HW223074  10.317   9.434  11.072
40393SOL     OW23075  10.942   3.391   9.342
40393SOL    HW123076  11.018   3.333   9.343
40393SOL    HW223077  10.956   3.450   9.417
40394SOL     OW23078   8.845   2.743  10.649
40394SOL    HW123079   8.855   2.792  10.731
40394SOL    HW223080   8.797   2.664  10.675
40395SOL     OW23081   3.376  13.854  14.090
40395SOL    HW123082   3.401  13.871  14.181
40395SOL    HW223083   3.304  13.790  14.097
40396SOL     OW23084  10.727  12.073   9.243
40396SOL    HW123085  10.793  12.061   9.175
40396SOL    HW223086  10.722  12.168   9.255
40397SOL     OW23087   5.073   9.541   0.185
40397SOL    HW123088   5.007   9.485   0.225
40397SOL    HW223089   5.028   9.583   0.112
40398SOL     OW23090   6.830   7.284  13.803
40398SOL    HW123091   6.904   7.337  13.834
40398SOL    HW223092   6.806   7.230  13.878
40399SOL     OW23093   9.317   8.586  11.827
40399SOL    HW123094   9.232   8.568  11.868
40399SOL    HW223095   9.373   8.513  11.855
40400SOL     OW23096  10.846   5.167   1.686
40400SOL    HW123097  10.781   5.109   1.725
40400SOL    HW223098  10.855   5.239   1.749
40401SOL     OW23099   3.154   6.738   3.528
40401SOL    HW123100   3.060   6.720   3.529
40401SOL    HW223101   3.183   6.712   3.440
40402SOL     OW23102   7.307   7.635   5.862
40402SOL    HW123103   7.319   7.619   5.955
40402SOL    HW223104   7.216   7.663   5.853
40403SOL     OW23105   4.709  13.491   1.230
40403SOL    HW123106   4.730  13.491   1.323
40403SOL    HW223107   4.761  13.562   1.194
40404SOL     OW23108  13.311  10.294  10.129
40404SOL    HW123109  13.381  10.295  10.064
40404SOL    HW223110  13.243  10.239  10.092
40405SOL     OW23111   2.406  11.300   4.790
40405SOL    HW123112   2.375  11.312   4.880
40405SOL    HW223113   2.326  11.300   4.737
40406SOL     OW23114  13.926   3.774   8.199
40406SOL    HW123115  13.957   3.685   8.178
40406SOL    HW223116  13.995   3.831   8.165
40407SOL     OW23117  14.243   1.187   5.716
40407SOL    HW123118  14.188   1.263   5.734
40407SOL    HW223119  14.192   1.134   5.655
40408SOL     OW23120   7.148   1.948  13.182
40408SOL    HW123121   7.111   2.028  13.220
40408SOL    HW223122   7.210   1.980  13.115
40409SOL     OW23123   0.981   2.186  13.689
40409SOL    HW123124   0.960   2.224  13.604
40409SOL    HW223125   0.976   2.260  13.750
40410SOL     OW23126   2.252   3.650   9.111
40410SOL    HW123127   2.212   3.567   9.084
40410SOL    HW223128   2.206   3.673   9.192
40411SOL     OW23129   6.462   7.251   2.229
40411SOL    HW123130   6.499   7.229   2.315
40411SOL    HW223131   6.410   7.174   2.205
40412SOL     OW23132  10.629   6.764  10.969
40412SOL    HW123133  10.666   6.829  11.029
40412SOL    HW223134  10.662   6.790  10.883
40413SOL     OW23135   6.941  10.744  13.469
40413SOL    HW123136   6.868  10.771  13.414
40413SOL    HW223137   6.926  10.651  13.485
40414SOL     OW23138  13.360   1.353  14.743
40414SOL    HW123139  13.309   1.433  14.748
40414SOL    HW223140  13.296   1.284  14.726
40415SOL     OW23141   9.910   0.364   1.112
40415SOL    HW123142   9.876   0.414   1.037
40415SOL    HW223143   9.988   0.413   1.140
40416SOL     OW23144   0.800  14.399  13.158
40416SOL    HW123145   0.845  14.314  13.159
40416SOL    HW223146   0.850  14.454  13.218
40417SOL     OW23147   9.982  10.003   9.745
40417SOL    HW123148   9.926   9.959   9.681
40417SOL    HW223149   9.991   9.940   9.816
40418SOL     OW23150   5.077  13.971   4.276
40418SOL    HW123151   5.168  13.957   4.253
40418SOL    HW223152   5.073  13.955   4.370
40419SOL     OW23153   3.542   7.384  13.400
40419SOL    HW123154   3.490   7.314  13.439
40419SOL    HW223155   3.632   7.351  13.400
40420SOL     OW23156   9.790   6.608   2.831
40420SOL    HW123157   9.776   6.597   2.925
40420SOL    HW223158   9.711   6.651   2.800
40421SOL     OW23159  12.947   1.768   4.925
40421SOL    HW123160  12.868   1.766   4.979
40421SOL    HW223161  12.983   1.855   4.939
40422SOL     OW23162  11.171   0.914   5.735
40422SOL    HW123163  11.197   0.972   5.663
40422SOL    HW223164  11.076   0.905   5.724
40423SOL     OW23165   9.697   1.298  11.415
40423SOL    HW123166   9.731   1.301  11.326
40423SOL    HW223167   9.766   1.254  11.465
40424SOL     OW23168  10.637   9.095   8.081
40424SOL    HW123169  10.653   9.031   8.011
40424SOL    HW223170  10.596   9.169   8.037
40425SOL     OW23171   8.621   6.968   7.066
40425SOL    HW123172   8.639   6.877   7.043
40425SOL    HW223173   8.551   6.963   7.132
40426SOL     OW23174   6.785  14.829   3.002
40426SOL    HW123175   6.825   0.029   2.947
40426SOL    HW223176   6.695  14.858   3.014
40427SOL     OW23177  14.468   3.704   1.687
40427SOL    HW123178  14.442   3.784   1.641
40427SOL    HW223179  14.547   3.674   1.642
40428SOL     OW23180   7.210   1.787   9.362
40428SOL    HW123181   7.303   1.796   9.381
40428SOL    HW223182   7.204   1.796   9.267
40429SOL     OW23183   1.154  13.479  10.719
40429SOL    HW123184   1.139  13.555  10.664
40429SOL    HW223185   1.160  13.515  10.808
40430SOL     OW23186  10.231   0.377   9.148
40430SOL    HW123187  10.322   0.408   9.156
40430SOL    HW223188  10.239   0.290   9.109
40431SOL     OW23189  13.131  13.449   8.835
40431SOL    HW123190  13.156  13.530   8.879
40431SOL    HW223191  13.141  13.468   8.742
40432SOL     OW23192   0.006  12.401   1.548
40432SOL    HW123193  14.788  12.359   1.541
40432SOL    HW223194   0.058  12.340   1.601
40433SOL     OW23195   3.417   7.027  10.173
40433SOL    HW123196   3.401   7.044  10.266
40433SOL    HW223197   3.359   7.088  10.127
40434SOL     OW23198  10.572   5.658   8.153
40434SOL    HW123199  10.647   5.678   8.208
40434SOL    HW223200  10.497   5.690   8.202
40435SOL     OW23201   6.313  10.242   3.953
40435SOL    HW123202   6.338  10.157   3.987
40435SOL    HW223203   6.238  10.269   4.006
40436SOL     OW23204   8.569   9.129   4.325
40436SOL    HW123205   8.568   9.191   4.252
40436SOL    HW223206   8.578   9.183   4.403
40437SOL     OW23207   2.187   5.608   3.986
40437SOL    HW123208   2.146   5.565   4.061
40437SOL    HW223209   2.145   5.570   3.909
40438SOL     OW23210  10.768   8.768  12.265
40438SOL    HW123211  10.732   8.807  12.185
40438SOL    HW223212  10.711   8.798  12.335
40439SOL     OW23213   9.862   2.038   7.351
40439SOL    HW123214   9.911   1.962   7.319
40439SOL    HW223215   9.908   2.113   7.313
40440SOL     OW23216   0.001  14.344  11.888
40440SOL    HW123217  14.797  14.371  11.946
40440SOL    HW223218   0.067  14.307  11.947
40441SOL     OW23219   2.978  14.357  12.769
40441SOL    HW123220   2.961  14.451  12.775
40441SOL    HW223221   2.895  14.320  12.737
40442SOL     OW23222  11.444   6.927   8.647
40442SOL    HW123223  11.435   7.022   8.651
40442SOL    HW223224  11.364   6.893   8.686
40443SOL     OW23225  10.123  12.096  14.307
40443SOL    HW123226  10.151  12.183  14.277
40443SOL    HW223227  10.094  12.110  14.397
40444SOL     OW23228   2.448   1.431  10.821
40444SOL    HW123229   2.357   1.427  10.790
40444SOL    HW223230   2.471   1.524  10.817
40445SOL     OW23231   4.809  13.345   6.690
40445SOL    HW123232   4.781  13.365   6.779
40445SOL    HW223233   4.828  13.251   6.692
40446SOL     OW23234   3.306  11.110   8.644
40446SOL    HW123235   3.333  11.114   8.553
40446SOL    HW223236   3.211  11.100   8.641
40447SOL     OW23237  14.083  13.482   0.219
40447SOL    HW123238  14.172  13.450   0.233
40447SOL    HW223239  14.092  13.550   0.152
40448SOL     OW23240  13.771   3.349   7.053
40448SOL    HW123241  13.697   3.289   7.045
40448SOL    HW223242  13.844   3.293   7.080
40449SOL     OW23243   1.676   8.195  13.959
40449SOL    HW123244   1.594   8.225  13.920
40449SOL    HW223245   1.649   8.145  14.036
40450SOL     OW23246   5.811  10.685   2.237
40450SOL    HW123247   5.754  10.738   2.294
40450SOL    HW223248   5.885  10.742   2.217
40451SOL     OW23249   3.541   8.731  14.289
40451SOL    HW123250   3.574   8.776  14.367
40451SOL    HW223251   3.523   8.802  14.227
40452SOL     OW23252   6.844   5.548   5.899
40452SOL    HW123253   6.755   5.583   5.896
40452SOL    HW223254   6.865   5.526   5.809
40453SOL     OW23255   5.957   5.602  10.436
40453SOL    HW123256   5.975   5.528  10.493
40453SOL    HW223257   6.030   5.603  10.375
40454SOL     OW23258  13.933  12.671  12.000
40454SOL    HW123259  13.977  12.601  12.047
40454SOL    HW223260  13.942  12.646  11.907
40455SOL     OW23261  13.351   7.254   3.498
40455SOL    HW123262  13.308   7.333   3.531
40455SOL    HW223263  13.336   7.256   3.404
40456SOL     OW23264  10.383  14.787   6.321
40456SOL    HW123265  10.359  14.837   6.243
40456SOL    HW223266  10.438  14.848   6.372
40457SOL     OW23267  10.683  12.738  13.405
40457SOL    HW123268  10.631  12.800  13.455
40457SOL    HW223269  10.621  12.669  13.380
40458SOL     OW23270  10.431  11.519   1.786
40458SOL    HW123271  10.472  11.495   1.703
40458SOL    HW223272  10.337  11.520   1.767
40459SOL     OW23273   5.295   0.700  10.683
40459SOL    HW123274   5.341   0.664  10.760
40459SOL    HW223275   5.321   0.642  10.611
40460SOL     OW23276   3.654   7.658   7.237
40460SOL    HW123277   3.635   7.628   7.326
40460SOL    HW223278   3.587   7.724   7.219
40461SOL     OW23279   9.407   2.492  11.776
40461SOL    HW123280   9.381   2.584  11.786
40461SOL    HW223281   9.461   2.475  11.853
40462SOL     OW23282   4.350  12.077   6.017
40462SOL    HW123283   4.420  12.063   6.081
40462SOL    HW223284   4.365  12.010   5.951
40463SOL     OW23285   6.332   4.152   9.166
40463SOL    HW123286   6.274   4.223   9.193
40463SOL    HW223287   6.391   4.192   9.102
40464SOL     OW23288  12.240   7.791   2.883
40464SOL    HW123289  12.335   7.798   2.875
40464SOL    HW223290  12.210   7.764   2.797
40465SOL     OW23291   8.703   6.435   5.814
40465SOL    HW123292   8.633   6.485   5.857
40465SOL    HW223293   8.782   6.459   5.861
40466SOL     OW23294   1.204  12.804   9.315
40466SOL    HW123295   1.136  12.867   9.338
40466SOL    HW223296   1.278  12.826   9.371
40467SOL     OW23297   8.475   4.714   1.072
40467SOL    HW123298   8.432   4.714   0.986
40467SOL    HW223299   8.478   4.621   1.097
40468SOL     OW23300   7.488   6.458  14.247
40468SOL    HW123301   7.452   6.370  14.239
40468SOL    HW223302   7.538   6.471  14.167
40469SOL     OW23303  11.374   7.148   1.034
40469SOL    HW123304  11.283   7.168   1.015
40469SOL    HW223305  11.413   7.232   1.057
40470SOL     OW23306   6.318   8.207   3.718
40470SOL    HW123307   6.349   8.275   3.658
40470SOL    HW223308   6.395   8.152   3.733
40471SOL     OW23309   9.935  10.653   4.394
40471SOL    HW123310   9.878  10.727   4.414
40471SOL    HW223311   9.930  10.645   4.298
40472SOL     OW23312   8.492  12.822   2.294
40472SOL    HW123313   8.404  12.849   2.267
40472SOL    HW223314   8.518  12.756   2.230
40473SOL     OW23315   3.930   6.220   9.032
40473SOL    HW123316   4.015   6.262   9.020
40473SOL    HW223317   3.925   6.201   9.125
40474SOL     OW23318   4.991   5.353   4.720
40474SOL    HW123319   4.935   5.429   4.703
40474SOL    HW223320   4.933   5.288   4.758
40475SOL     OW23321   9.170  11.061   8.106
40475SOL    HW123322   9.080  11.031   8.092
40475SOL    HW223323   9.211  11.056   8.019
40476SOL     OW23324   5.710   9.275   0.579
40476SOL    HW123325   5.630   9.324   0.562
40476SOL    HW223326   5.682   9.204   0.637
40477SOL     OW23327  13.997   9.222  13.186
40477SOL    HW123328  13.991   9.153  13.119
40477SOL    HW223329  14.082   9.209  13.227
40478SOL     OW23330   6.484  13.512  12.740
40478SOL    HW123331   6.493  13.601  12.705
40478SOL    HW223332   6.574  13.486  12.760
40479SOL     OW23333   6.057  14.135  10.121
40479SOL    HW123334   6.040  14.224  10.089
40479SOL    HW223335   5.986  14.082  10.083
40480SOL     OW23336  14.444   1.035   4.677
40480SOL    HW123337  14.380   0.971   4.647
40480SOL    HW223338  14.397   1.118   4.679
40481SOL     OW23339   8.684   0.267   8.364
40481SOL    HW123340   8.720   0.227   8.443
40481SOL    HW223341   8.689   0.198   8.298
40482SOL     OW23342  14.493  13.665   0.019
40482SOL    HW123343  14.430  13.676  14.816
40482SOL    HW223344  14.563  13.728  14.866
40483SOL     OW23345   5.719   7.062   8.656
40483SOL    HW123346   5.723   7.015   8.572
40483SOL    HW223347   5.810   7.065   8.686
40484SOL     OW23348   9.650  12.133   1.808
40484SOL    HW123349   9.584  12.073   1.842
40484SOL    HW223350   9.667  12.194   1.880
40485SOL     OW23351   5.678   2.774   4.862
40485SOL    HW123352   5.719   2.860   4.860
40485SOL    HW223353   5.636   2.769   4.948
40486SOL     OW23354  11.547  14.312   7.955
40486SOL    HW123355  11.554  14.241   8.018
40486SOL    HW223356  11.569  14.273   7.871
40487SOL     OW23357   7.869   6.292   3.248
40487SOL    HW123358   7.797   6.312   3.189
40487SOL    HW223359   7.948   6.313   3.197
40488SOL     OW23360   5.078   4.359   8.433
40488SOL    HW123361   5.032   4.417   8.494
40488SOL    HW223362   5.012   4.295   8.406
40489SOL     OW23363  12.083   9.758   5.571
40489SOL    HW123364  12.035   9.807   5.504
40489SOL    HW223365  12.152   9.819   5.599
40490SOL     OW23366   3.990   1.817   4.093
40490SOL    HW123367   3.961   1.900   4.056
40490SOL    HW223368   4.085   1.819   4.086
40491SOL     OW23369  11.791  12.687   3.203
40491SOL    HW123370  11.718  12.672   3.143
40491SOL    HW223371  11.756  12.666   3.289
40492SOL     OW23372   9.987   4.367   4.249
40492SOL    HW123373   9.963   4.375   4.156
40492SOL    HW223374  10.040   4.288   4.254
40493SOL     OW23375   9.479  10.886  10.923
40493SOL    HW123376   9.499  10.804  10.967
40493SOL    HW223377   9.420  10.861  10.851
40494SOL     OW23378   9.307   0.769  11.369
40494SOL    HW123379   9.227   0.818  11.387
40494SOL    HW223380   9.327   0.788  11.277
40495SOL     OW23381  10.003   8.865  12.229
40495SOL    HW123382  10.013   8.804  12.155
40495SOL    HW223383  10.047   8.945  12.201
40496SOL     OW23384   4.280   7.257   5.364
40496SOL    HW123385   4.348   7.316   5.398
40496SOL    HW223386   4.232   7.229   5.442
40497SOL     OW23387   5.917  13.191   8.903
40497SOL    HW123388   5.904  13.162   8.814
40497SOL    HW223389   5.833  13.176   8.947
40498SOL     OW23390   7.233  13.349  12.309
40498SOL    HW123391   7.156  13.377  12.258
40498SOL    HW223392   7.199  13.280  12.366
40499SOL     OW23393   4.984   3.556  12.340
40499SOL    HW123394   4.913   3.499  12.367
40499SOL    HW223395   4.972   3.569  12.246
40500SOL     OW23396   7.926   4.654  13.700
40500SOL    HW123397   7.935   4.748  13.712
40500SOL    HW223398   7.916   4.643  13.606
40501SOL     OW23399   5.499   5.705   1.260
40501SOL    HW123400   5.422   5.702   1.203
40501SOL    HW223401   5.574   5.707   1.199
40502SOL     OW23402   1.021  13.340  10.477
40502SOL    HW123403   1.077  13.418  10.475
40502SOL    HW223404   1.064  13.277  10.420
40503SOL     OW23405   8.126  13.045  12.313
40503SOL    HW123406   8.173  12.968  12.281
40503SOL    HW223407   8.155  13.116  12.256
40504SOL     OW23408  12.446  12.347  13.582
40504SOL    HW123409  12.407  12.384  13.662
40504SOL    HW223410  12.528  12.308  13.611
40505SOL     OW23411   8.888   4.007   0.010
40505SOL    HW123412   8.847   4.084   0.050
40505SOL    HW223413   8.978   4.034  14.860
40506SOL     OW23414   5.163  13.761  10.691
40506SOL    HW123415   5.220  13.684  10.698
40506SOL    HW223416   5.196  13.821  10.759
40507SOL     OW23417   2.826   3.558   1.595
40507SOL    HW123418   2.779   3.594   1.669
40507SOL    HW223419   2.789   3.470   1.583
40508SOL     OW23420  12.317  10.788   1.501
40508SOL    HW123421  12.406  10.819   1.482
40508SOL    HW223422  12.262  10.864   1.482
40509SOL     OW23423   5.698   1.900   4.545
40509SOL    HW123424   5.611   1.863   4.559
40509SOL    HW223425   5.711   1.895   4.450
40510SOL     OW23426  10.356   8.204   6.034
40510SOL    HW123427  10.353   8.261   6.111
40510SOL    HW223428  10.443   8.164   6.038
40511SOL     OW23429   5.151  12.072  12.679
40511SOL    HW123430   5.243  12.082  12.656
40511SOL    HW223431   5.141  12.124  12.759
40512SOL     OW23432   1.688   2.971   8.790
40512SOL    HW123433   1.724   3.018   8.865
40512SOL    HW223434   1.623   3.031   8.753
40513SOL     OW23435   6.779   1.423   6.137
40513SOL    HW123436   6.745   1.338   6.164
40513SOL    HW223437   6.701   1.476   6.118
40514SOL     OW23438  10.225   8.890  11.103
40514SOL    HW123439  10.271   8.968  11.134
40514SOL    HW223440  10.275   8.861  11.026
40515SOL     OW23441   1.070  11.267   7.233
40515SOL    HW123442   1.156  11.239   7.204
40515SOL    HW223443   1.082  11.293   7.324
40516SOL     OW23444  14.586   4.752   0.503
40516SOL    HW123445  14.549   4.725   0.587
40516SOL    HW223446  14.550   4.689   0.440
40517SOL     OW23447   2.798  13.548   1.756
40517SOL    HW123448   2.788  13.556   1.661
40517SOL    HW223449   2.762  13.631   1.790
40518SOL     OW23450  10.818   1.022  14.175
40518SOL    HW123451  10.827   1.015  14.270
40518SOL    HW223452  10.765   1.101  14.163
40519SOL     OW23453   9.343  11.235   3.176
40519SOL    HW123454   9.311  11.218   3.265
40519SOL    HW223455   9.301  11.317   3.151
40520SOL     OW23456  10.527   9.024   7.357
40520SOL    HW123457  10.621   9.016   7.339
40520SOL    HW223458  10.507   9.116   7.342
40521SOL     OW23459   8.318   4.676   9.617
40521SOL    HW123460   8.306   4.754   9.562
40521SOL    HW223461   8.241   4.675   9.674
40522SOL     OW23462  12.885   7.539  10.245
40522SOL    HW123463  12.893   7.634  10.237
40522SOL    HW223464  12.796   7.519  10.216
40523SOL     OW23465   2.756   0.295  10.296
40523SOL    HW123466   2.702   0.216  10.301
40523SOL    HW223467   2.819   0.286  10.368
40524SOL     OW23468   3.723   4.208  13.934
40524SOL    HW123469   3.720   4.179  13.843
40524SOL    HW223470   3.816   4.205  13.957
40525SOL     OW23471   0.891  14.449   0.695
40525SOL    HW123472   0.943  14.436   0.616
40525SOL    HW223473   0.803  14.471   0.663
40526SOL     OW23474   6.977  11.049   0.500
40526SOL    HW123475   6.978  11.144   0.498
40526SOL    HW223476   6.887  11.026   0.522
40527SOL     OW23477  14.661   4.218   6.701
40527SOL    HW123478  14.660   4.303   6.744
40527SOL    HW223479  14.586   4.171   6.739
40528SOL     OW23480   8.725  13.475   9.851
40528SOL    HW123481   8.723  13.387   9.889
40528SOL    HW223482   8.812  13.482   9.813
40529SOL     OW23483   7.881   4.594   9.301
40529SOL    HW123484   7.906   4.515   9.350
40529SOL    HW223485   7.931   4.665   9.342
40530SOL     OW23486  10.854   9.688  13.998
40530SOL    HW123487  10.783   9.646  13.950
40530SOL    HW223488  10.822   9.695  14.088
40531SOL     OW23489  10.405  11.931  10.906
40531SOL    HW123490  10.408  12.004  10.968
40531SOL    HW223491  10.373  11.971  10.825
40532SOL     OW23492   3.116   6.445   5.423
40532SOL    HW123493   3.163   6.466   5.342
40532SOL    HW223494   3.033   6.493   5.415
40533SOL     OW23495  13.904   2.856   5.268
40533SOL    HW123496  13.950   2.940   5.265
40533SOL    HW223497  13.940   2.806   5.195
40534SOL     OW23498   9.591  13.423   2.267
40534SOL    HW123499   9.580  13.391   2.357
40534SOL    HW223500   9.680  13.460   2.266
40535SOL     OW23501   4.796  14.621  13.754
40535SOL    HW123502   4.770  14.712  13.744
40535SOL    HW223503   4.878  14.614  13.705
40536SOL     OW23504   2.628  12.887  14.676
40536SOL    HW123505   2.584  12.877  14.591
40536SOL    HW223506   2.693  12.955  14.661
40537SOL     OW23507  12.230   5.579   4.882
40537SOL    HW123508  12.163   5.639   4.915
40537SOL    HW223509  12.199   5.492   4.907
40538SOL     OW23510  11.548  13.241  12.661
40538SOL    HW123511  11.567  13.261  12.570
40538SOL    HW223512  11.626  13.197  12.694
40539SOL     OW23513   9.884   0.229   4.740
40539SOL    HW123514   9.818   0.271   4.796
40539SOL    HW223515   9.842   0.148   4.710
40540SOL     OW23516   3.720   8.170   5.534
40540SOL    HW123517   3.665   8.124   5.597
40540SOL    HW223518   3.659   8.224   5.484
40541SOL     OW23519  12.941  10.720   3.187
40541SOL    HW123520  12.892  10.722   3.270
40541SOL    HW223521  12.917  10.636   3.148
40542SOL     OW23522   3.494   8.400   2.831
40542SOL    HW123523   3.417   8.373   2.781
40542SOL    HW223524   3.547   8.450   2.769
40543SOL     OW23525   0.700  13.586   4.389
40543SOL    HW123526   0.667  13.608   4.476
40543SOL    HW223527   0.769  13.650   4.373
40544SOL     OW23528   2.628   5.257   4.695
40544SOL    HW123529   2.583   5.238   4.613
40544SOL    HW223530   2.578   5.211   4.762
40545SOL     OW23531   9.598   1.688  13.080
40545SOL    HW123532   9.663   1.618  13.077
40545SOL    HW223533   9.628   1.747  13.148
40546SOL     OW23534  13.787   4.733  12.720
40546SOL    HW123535  13.762   4.648  12.685
40546SOL    HW223536  13.757   4.731  12.811
40547SOL     OW23537  11.646   0.005   7.251
40547SOL    HW123538  11.637  14.845   7.342
40547SOL    HW223539  11.736   0.036   7.245
40548SOL     OW23540   2.517   8.706   9.246
40548SOL    HW123541   2.597   8.729   9.293
40548SOL    HW223542   2.521   8.760   9.166
40549SOL     OW23543  11.657   5.929   4.011
40549SOL    HW123544  11.684   5.842   3.983
40549SOL    HW223545  11.562   5.932   3.994
40550SOL     OW23546  11.028  14.651   0.244
40550SOL    HW123547  10.993  14.562   0.258
40550SOL    HW223548  11.022  14.692   0.330
40551SOL     OW23549   8.281  13.714   2.436
40551SOL    HW123550   8.280  13.804   2.403
40551SOL    HW223551   8.195  13.702   2.475
40552SOL     OW23552  13.416   6.714   7.635
40552SOL    HW123553  13.433   6.742   7.545
40552SOL    HW223554  13.449   6.624   7.639
40553SOL     OW23555   0.751   3.778  10.273
40553SOL    HW123556   0.794   3.693  10.266
40553SOL    HW223557   0.717   3.795  10.185
40554SOL     OW23558   3.608   1.630  14.504
40554SOL    HW123559   3.515   1.632  14.528
40554SOL    HW223560   3.613   1.681  14.423
40555SOL     OW23561  13.007   7.827  12.413
40555SOL    HW123562  12.993   7.734  12.397
40555SOL    HW223563  12.962   7.845  12.495
40556SOL     OW23564  14.680  12.714   5.195
40556SOL    HW123565  14.605  12.774   5.194
40556SOL    HW223566  14.677  12.672   5.281
40557SOL     OW23567   2.892   9.187  12.191
40557SOL    HW123568   2.953   9.114  12.180
40557SOL    HW223569   2.948   9.264  12.200
40558SOL     OW23570   8.005   0.198   1.057
40558SOL    HW123571   8.001   0.224   1.149
40558SOL    HW223572   8.002   0.280   1.009
40559SOL     OW23573   2.689   6.168   1.338
40559SOL    HW123574   2.662   6.079   1.360
40559SOL    HW223575   2.699   6.212   1.422
40560SOL     OW23576  12.290  14.120   6.484
40560SOL    HW123577  12.238  14.042   6.465
40560SOL    HW223578  12.266  14.143   6.574
40561SOL     OW23579  11.969   9.425   2.549
40561SOL    HW123580  12.037   9.468   2.601
40561SOL    HW223581  11.977   9.333   2.572
40562SOL     OW23582  12.552   4.011  12.764
40562SOL    HW123583  12.583   4.036  12.677
40562SOL    HW223584  12.632   4.002  12.816
40563SOL     OW23585  14.420   7.907  11.233
40563SOL    HW123586  14.421   7.814  11.212
40563SOL    HW223587  14.463   7.949  11.160
40564SOL     OW23588   2.215   5.187  11.992
40564SOL    HW123589   2.158   5.190  12.069
40564SOL    HW223590   2.304   5.192  12.027
40565SOL     OW23591   0.635   5.589   9.596
40565SOL    HW123592   0.682   5.610   9.676
40565SOL    HW223593   0.688   5.627   9.526
40566SOL     OW23594   3.178   6.618   5.777
40566SOL    HW123595   3.222   6.548   5.825
40566SOL    HW223596   3.086   6.593   5.779
40567SOL     OW23597  11.378   6.745   0.202
40567SOL    HW123598  11.398   6.685   0.274
40567SOL    HW223599  11.369   6.831   0.243
40568SOL     OW23600  13.900   4.132   8.574
40568SOL    HW123601  13.827   4.191   8.554
40568SOL    HW223602  13.881   4.100   8.662
40569SOL     OW23603   7.812  13.310   8.934
40569SOL    HW123604   7.738  13.355   8.893
40569SOL    HW223605   7.834  13.365   9.010
40570SOL     OW23606   5.911   1.336   4.957
40570SOL    HW123607   5.926   1.379   5.041
40570SOL    HW223608   5.817   1.319   4.955
40571SOL     OW23609   9.267   8.506   7.954
40571SOL    HW123610   9.208   8.514   8.029
40571SOL    HW223611   9.208   8.507   7.878
40572SOL     OW23612   3.049   8.640   4.249
40572SOL    HW123613   3.019   8.589   4.174
40572SOL    HW223614   3.089   8.719   4.210
40573SOL     OW23615  13.784   7.598  11.396
40573SOL    HW123616  13.828   7.654  11.459
40573SOL    HW223617  13.773   7.514  11.441
40574SOL     OW23618  11.419   8.936   1.805
40574SOL    HW123619  11.453   8.995   1.738
40574SOL    HW223620  11.325   8.951   1.805
40575SOL     OW23621   9.247   4.745   2.743
40575SOL    HW123622   9.260   4.823   2.797
40575SOL    HW223623   9.289   4.766   2.660
40576SOL     OW23624   1.327   2.708   5.087
40576SOL    HW123625   1.370   2.793   5.100
40576SOL    HW223626   1.240   2.730   5.056
40577SOL     OW23627   3.256  13.491  11.919
40577SOL    HW123628   3.318  13.418  11.925
40577SOL    HW223629   3.227  13.506  12.009
40578SOL     OW23630  12.687   1.745   3.501
40578SOL    HW123631  12.740   1.823   3.484
40578SOL    HW223632  12.598   1.771   3.477
40579SOL     OW23633  12.685   7.942   1.370
40579SOL    HW123634  12.613   7.970   1.427
40579SOL    HW223635  12.703   8.017   1.314
40580SOL     OW23636   2.349  11.757   6.152
40580SOL    HW123637   2.412  11.695   6.189
40580SOL    HW223638   2.402  11.812   6.095
40581SOL     OW23639   4.002   6.746   1.988
40581SOL    HW123640   4.035   6.801   2.060
40581SOL    HW223641   3.977   6.808   1.920
40582SOL     OW23642  12.596   2.567   4.999
40582SOL    HW123643  12.662   2.502   5.023
40582SOL    HW223644  12.645   2.650   4.993
40583SOL     OW23645   0.310   5.680  11.887
40583SOL    HW123646   0.261   5.617  11.940
40583SOL    HW223647   0.360   5.731  11.951
40584SOL     OW23648  10.301   8.768  11.592
40584SOL    HW123649  10.336   8.838  11.536
40584SOL    HW223650  10.375   8.742  11.646
40585SOL     OW23651   8.710   9.939  11.460
40585SOL    HW123652   8.685   9.966  11.548
40585SOL    HW223653   8.725   9.844  11.468
40586SOL     OW23654   0.093   2.411   6.875
40586SOL    HW123655   0.036   2.356   6.928
40586SOL    HW223656   0.052   2.413   6.789
40587SOL     OW23657   4.534   5.125   4.632
40587SOL    HW123658   4.571   5.156   4.549
40587SOL    HW223659   4.506   5.036   4.613
40588SOL     OW23660   9.568   2.258   9.377
40588SOL    HW123661   9.497   2.271   9.314
40588SOL    HW223662   9.635   2.212   9.327
40589SOL     OW23663   5.500   1.130   3.135
40589SOL    HW123664   5.476   1.056   3.191
40589SOL    HW223665   5.564   1.094   3.074
40590SOL     OW23666   6.304   2.306  13.248
40590SOL    HW123667   6.226   2.321  13.300
40590SOL    HW223668   6.375   2.299  13.312
40591SOL     OW23669  13.778   0.884   1.630
40591SOL    HW123670  13.723   0.936   1.688
40591SOL    HW223671  13.773   0.928   1.545
40592SOL     OW23672   3.685   4.969   3.848
40592SOL    HW123673   3.606   4.992   3.800
40592SOL    HW223674   3.721   4.894   3.801
40593SOL     OW23675   4.757   5.639   1.146
40593SOL    HW123676   4.680   5.646   1.090
40593SOL    HW223677   4.725   5.657   1.234
40594SOL     OW23678  12.766   0.360   7.979
40594SOL    HW123679  12.780   0.274   7.941
40594SOL    HW223680  12.671   0.366   7.990
40595SOL     OW23681  14.178  10.705   4.807
40595SOL    HW123682  14.256  10.650   4.813
40595SOL    HW223683  14.162  10.734   4.897
40596SOL     OW23684   9.073  14.562  12.849
40596SOL    HW123685   9.040  14.504  12.918
40596SOL    HW223686   9.093  14.644  12.894
40597SOL     OW23687   6.715  13.739   9.991
40597SOL    HW123688   6.644  13.802  10.001
40597SOL    HW223689   6.758  13.736  10.076
40598SOL     OW23690  11.888   0.900  14.282
40598SOL    HW123691  11.832   0.886  14.358
40598SOL    HW223692  11.975   0.870  14.310
40599SOL     OW23693   8.517   0.948  14.412
40599SOL    HW123694   8.429   0.917  14.392
40599SOL    HW223695   8.575   0.883  14.372
40600SOL     OW23696  11.255   3.533  12.644
40600SOL    HW123697  11.257   3.557  12.737
40600SOL    HW223698  11.291   3.609  12.599
40601SOL     OW23699   8.819   4.830  10.719
40601SOL    HW123700   8.742   4.875  10.755
40601SOL    HW223701   8.835   4.757  10.780
40602SOL     OW23702   3.446  14.829  14.145
40602SOL    HW123703   3.443   0.040  14.199
40602SOL    HW223704   3.422  14.758  14.205
40603SOL     OW23705   2.017   8.619   6.288
40603SOL    HW123706   1.966   8.698   6.305
40603SOL    HW223707   2.106   8.640   6.317
40604SOL     OW23708   7.229  10.310  14.735
40604SOL    HW123709   7.280  10.301  14.815
40604SOL    HW223710   7.226  10.404  14.719
40605SOL     OW23711   7.085  14.583   8.802
40605SOL    HW123712   7.088  14.520   8.874
40605SOL    HW223713   6.995  14.616   8.803
40606SOL     OW23714   3.571   4.603   4.483
40606SOL    HW123715   3.526   4.601   4.568
40606SOL    HW223716   3.633   4.675   4.490
40607SOL     OW23717   9.892   5.776  10.822
40607SOL    HW123718   9.986   5.792  10.834
40607SOL    HW223719   9.855   5.781  10.910
40608SOL     OW23720  14.167   0.816  11.269
40608SOL    HW123721  14.212   0.901  11.270
40608SOL    HW223722  14.198   0.774  11.188
40609SOL     OW23723   8.868  11.114   6.916
40609SOL    HW123724   8.910  11.122   6.831
40609SOL    HW223725   8.931  11.065   6.969
40610SOL     OW23726  12.890   1.205  12.794
40610SOL    HW123727  12.884   1.297  12.818
40610SOL    HW223728  12.805   1.168  12.816
40611SOL     OW23729  10.518   8.682   7.890
40611SOL    HW123730  10.599   8.730   7.871
40611SOL    HW223731  10.547   8.594   7.911
40612SOL     OW23732   6.254   5.589   5.423
40612SOL    HW123733   6.280   5.502   5.455
40612SOL    HW223734   6.283   5.649   5.492
40613SOL     OW23735   6.062  12.477   1.840
40613SOL    HW123736   5.991  12.540   1.853
40613SOL    HW223737   6.114  12.483   1.921
40614SOL     OW23738   8.505   1.611   0.290
40614SOL    HW123739   8.585   1.591   0.338
40614SOL    HW223740   8.436   1.562   0.334
40615SOL     OW23741  11.542  11.361  11.852
40615SOL    HW123742  11.558  11.267  11.855
40615SOL    HW223743  11.598  11.397  11.921
40616SOL     OW23744   6.984   7.965  14.330
40616SOL    HW123745   6.904   8.017  14.331
40616SOL    HW223746   7.004   7.950  14.423
40617SOL     OW23747  13.168  13.137   2.507
40617SOL    HW123748  13.253  13.094   2.523
40617SOL    HW223749  13.188  13.230   2.510
40618SOL     OW23750  10.297  14.324   8.785
40618SOL    HW123751  10.366  14.365   8.734
40618SOL    HW223752  10.230  14.392   8.795
40619SOL     OW23753   9.392   9.485   9.119
40619SOL    HW123754   9.459   9.524   9.063
40619SOL    HW223755   9.349   9.421   9.064
40620SOL     OW23756  12.383   9.883   6.174
40620SOL    HW123757  12.391   9.924   6.088
40620SOL    HW223758  12.400   9.790   6.157
40621SOL     OW23759  14.717  14.459  11.326
40621SOL    HW123760  14.723  14.441  11.420
40621SOL    HW223761  14.639  14.412  11.297
40622SOL     OW23762   1.897  11.657   6.170
40622SOL    HW123763   1.905  11.753   6.172
40622SOL    HW223764   1.973  11.628   6.120
40623SOL     OW23765  11.800   1.094   3.293
40623SOL    HW123766  11.842   1.117   3.376
40623SOL    HW223767  11.730   1.159   3.283
40624SOL     OW23768   3.613   6.323   1.685
40624SOL    HW123769   3.579   6.388   1.624
40624SOL    HW223770   3.690   6.287   1.642
40625SOL     OW23771   9.670  10.036  13.968
40625SOL    HW123772   9.757  10.003  13.991
40625SOL    HW223773   9.610   9.965  13.993
40626SOL     OW23774   7.853   3.697   8.706
40626SOL    HW123775   7.888   3.773   8.658
40626SOL    HW223776   7.901   3.622   8.670
40627SOL     OW23777  12.524   5.980   3.866
40627SOL    HW123778  12.470   5.996   3.789
40627SOL    HW223779  12.553   5.889   3.856
40628SOL     OW23780   2.362   5.983   4.507
40628SOL    HW123781   2.400   5.896   4.523
40628SOL    HW223782   2.314   5.973   4.425
40629SOL     OW23783   3.881   7.310  10.064
40629SOL    HW123784   3.934   7.237  10.097
40629SOL    HW223785   3.840   7.276   9.984
40630SOL     OW23786   5.774   4.274  13.788
40630SOL    HW123787   5.857   4.235  13.814
40630SOL    HW223788   5.796   4.364  13.763
40631SOL     OW23789   5.614   5.302   2.532
40631SOL    HW123790   5.658   5.269   2.453
40631SOL    HW223791   5.679   5.359   2.573
40632SOL     OW23792  12.418  10.015   9.439
40632SOL    HW123793  12.362   9.964   9.380
40632SOL    HW223794  12.507  10.000   9.406
40633SOL     OW23795   7.243  10.393   0.379
40633SOL    HW123796   7.293  10.338   0.439
40633SOL    HW223797   7.151  10.377   0.403
40634SOL     OW23798   7.696  13.905  14.124
40634SOL    HW123799   7.610  13.864  14.111
40634SOL    HW223800   7.678  13.999  14.124
40635SOL     OW23801   4.806   3.805   4.622
40635SOL    HW123802   4.716   3.818   4.591
40635SOL    HW223803   4.845   3.892   4.617
40636SOL     OW23804   8.298  14.577   3.454
40636SOL    HW123805   8.235  14.588   3.525
40636SOL    HW223806   8.374  14.628   3.481
40637SOL     OW23807   7.909   9.919   8.459
40637SOL    HW123808   7.932   9.924   8.366
40637SOL    HW223809   7.822   9.879   8.460
40638SOL     OW23810   1.770   2.971  14.343
40638SOL    HW123811   1.714   3.013  14.408
40638SOL    HW223812   1.784   2.882  14.376
40639SOL     OW23813  11.510   8.420   3.508
40639SOL    HW123814  11.519   8.348   3.444
40639SOL    HW223815  11.428   8.402   3.553
40640SOL     OW23816  10.741   7.915   5.331
40640SOL    HW123817  10.825   7.953   5.306
40640SOL    HW223818  10.709   7.872   5.252
40641SOL     OW23819   1.071   2.612   3.571
40641SOL    HW123820   1.037   2.647   3.653
40641SOL    HW223821   1.009   2.543   3.547
40642SOL     OW23822   8.955   2.039  10.781
40642SOL    HW123823   9.026   2.016  10.721
40642SOL    HW223824   8.897   1.963  10.779
40643SOL     OW23825  11.701  12.778   9.904
40643SOL    HW123826  11.745  12.693   9.904
40643SOL    HW223827  11.608  12.757   9.911
40644SOL     OW23828   8.635   7.468   5.383
40644SOL    HW123829   8.675   7.382   5.394
40644SOL    HW223830   8.544   7.456   5.411
40645SOL     OW23831   4.117   1.695   3.724
40645SOL    HW123832   4.161   1.772   3.758
40645SOL    HW223833   4.168   1.621   3.757
40646SOL     OW23834  12.292   7.782   2.024
40646SOL    HW123835  12.198   7.768   2.009
40646SOL    HW223836  12.334   7.729   1.956
40647SOL     OW23837   5.946   4.634   3.295
40647SOL    HW123838   5.992   4.706   3.252
40647SOL    HW223839   5.965   4.557   3.242
40648SOL     OW23840  13.765   3.997   5.822
40648SOL    HW123841  13.728   4.028   5.739
40648SOL    HW223842  13.850   4.040   5.828
40649SOL     OW23843  13.385  14.686  14.347
40649SOL    HW123844  13.329  14.669  14.272
40649SOL    HW223845  13.347  14.763  14.389
40650SOL     OW23846   6.823   0.070  10.104
40650SOL    HW123847   6.751   0.063  10.167
40650SOL    HW223848   6.829   0.163  10.084
40651SOL     OW23849  10.873   8.962   3.757
40651SOL    HW123850  10.820   8.947   3.836
40651SOL    HW223851  10.894   9.055   3.760
40652SOL     OW23852  12.107   0.430   0.203
40652SOL    HW123853  12.062   0.421   0.287
40652SOL    HW223854  12.199   0.443   0.226
40653SOL     OW23855   1.117   3.291  12.715
40653SOL    HW123856   1.158   3.246  12.789
40653SOL    HW223857   1.186   3.297  12.649
40654SOL     OW23858   9.341   7.670   7.785
40654SOL    HW123859   9.321   7.757   7.750
40654SOL    HW223860   9.335   7.680   7.880
40655SOL     OW23861   9.899  12.119   1.687
40655SOL    HW123862   9.935  12.196   1.731
40655SOL    HW223863   9.804  12.127   1.696
40656SOL     OW23864  13.453  14.491   9.807
40656SOL    HW123865  13.447  14.500   9.712
40656SOL    HW223866  13.365  14.512   9.839
40657SOL     OW23867   2.748   2.494  12.954
40657SOL    HW123868   2.718   2.568  12.900
40657SOL    HW223869   2.822   2.529  13.003
40658SOL     OW23870  11.775   8.547  11.760
40658SOL    HW123871  11.854   8.590  11.794
40658SOL    HW223872  11.722   8.529  11.838
40659SOL     OW23873   7.277  14.380   3.565
40659SOL    HW123874   7.348  14.371   3.628
40659SOL    HW223875   7.319  14.380   3.480
40660SOL     OW23876   9.032   6.118   5.570
40660SOL    HW123877   9.051   6.189   5.510
40660SOL    HW223878   8.940   6.131   5.595
40661SOL     OW23879   4.689  11.933   2.318
40661SOL    HW123880   4.772  11.980   2.314
40661SOL    HW223881   4.633  11.976   2.254
40662SOL     OW23882   2.823   4.253   7.918
40662SOL    HW123883   2.796   4.260   7.826
40662SOL    HW223884   2.740   4.240   7.966
40663SOL     OW23885  11.359   0.341   3.172
40663SOL    HW123886  11.357   0.339   3.267
40663SOL    HW223887  11.302   0.413   3.148
40664SOL     OW23888   6.509  10.337   1.284
40664SOL    HW123889   6.477  10.394   1.214
40664SOL    HW223890   6.514  10.394   1.361
40665SOL     OW23891   2.257   6.609  13.940
40665SOL    HW123892   2.253   6.532  13.883
40665SOL    HW223893   2.350   6.629  13.947
40666SOL     OW23894   8.936   8.211   3.471
40666SOL    HW123895   9.025   8.238   3.495
40666SOL    HW223896   8.919   8.254   3.387
40667SOL     OW23897   8.322   3.643  13.368
40667SOL    HW123898   8.334   3.571  13.306
40667SOL    HW223899   8.391   3.706  13.345
40668SOL     OW23900  12.730  12.100   2.101
40668SOL    HW123901  12.737  12.101   2.197
40668SOL    HW223902  12.759  12.012   2.076
40669SOL     OW23903   8.277  13.873  13.775
40669SOL    HW123904   8.307  13.935  13.709
40669SOL    HW223905   8.258  13.928  13.851
40670SOL     OW23906   3.338  13.302   7.988
40670SOL    HW123907   3.327  13.267   8.076
40670SOL    HW223908   3.351  13.224   7.933
40671SOL     OW23909   2.002   1.880   8.798
40671SOL    HW123910   2.037   1.862   8.886
40671SOL    HW223911   1.918   1.923   8.814
40672SOL     OW23912   6.242  10.208   6.903
40672SOL    HW123913   6.229  10.131   6.848
40672SOL    HW223914   6.223  10.282   6.845
40673SOL     OW23915  13.108   9.830   6.354
40673SOL    HW123916  13.111   9.912   6.305
40673SOL    HW223917  13.084   9.856   6.443
40674SOL     OW23918  10.781   2.763   3.774
40674SOL    HW123919  10.774   2.831   3.842
40674SOL    HW223920  10.873   2.737   3.775
40675SOL     OW23921   0.370   7.676   4.998
40675SOL    HW123922   0.384   7.756   4.947
40675SOL    HW223923   0.433   7.613   4.962
40676SOL     OW23924   3.895  12.968  10.987
40676SOL    HW123925   3.865  12.908  11.055
40676SOL    HW223926   3.880  12.921  10.905
40677SOL     OW23927   6.070   8.888   7.814
40677SOL    HW123928   6.054   8.832   7.738
40677SOL    HW223929   5.989   8.938   7.824
40678SOL     OW23930   9.772  13.247  10.071
40678SOL    HW123931   9.861  13.251  10.106
40678SOL    HW223932   9.726  13.319  10.113
40679SOL     OW23933  13.067   3.310  13.478
40679SOL    HW123934  12.994   3.251  13.492
40679SOL    HW223935  13.046   3.388  13.529
40680SOL     OW23936   9.807   2.779   7.816
40680SOL    HW123937   9.785   2.707   7.758
40680SOL    HW223938   9.728   2.792   7.869
40681SOL     OW23939   4.481   6.604   5.606
40681SOL    HW123940   4.520   6.622   5.691
40681SOL    HW223941   4.552   6.618   5.544
40682SOL     OW23942   9.955   5.827   1.498
40682SOL    HW123943  10.008   5.829   1.419
40682SOL    HW223944   9.869   5.860   1.470
40683SOL     OW23945  14.805   1.803   5.066
40683SOL    HW123946  14.748   1.728   5.078
40683SOL    HW223947   0.013   1.769   5.019
40684SOL     OW23948   2.381   0.618   5.684
40684SOL    HW123949   2.435   0.672   5.627
40684SOL    HW223950   2.304   0.671   5.702
40685SOL     OW23951   9.662   8.666   8.310
40685SOL    HW123952   9.587   8.723   8.326
40685SOL    HW223953   9.705   8.703   8.233
40686SOL     OW23954   2.948   1.236   5.919
40686SOL    HW123955   2.897   1.237   6.000
40686SOL    HW223956   3.030   1.278   5.941
40687SOL     OW23957   2.667   8.244  13.862
40687SOL    HW123958   2.740   8.183  13.846
40687SOL    HW223959   2.616   8.203  13.932
40688SOL     OW23960   2.971   6.007   4.186
40688SOL    HW123961   2.931   5.930   4.227
40688SOL    HW223962   3.058   6.013   4.227
40689SOL     OW23963   2.375   0.368   8.013
40689SOL    HW123964   2.412   0.345   7.928
40689SOL    HW223965   2.374   0.464   8.014
40690SOL     OW23966  12.558   5.379   9.967
40690SOL    HW123967  12.478   5.420   9.933
40690SOL    HW223968  12.534   5.288   9.981
40691SOL     OW23969   0.852  11.723   4.606
40691SOL    HW123970   0.935  11.770   4.611
40691SOL    HW223971   0.826  11.711   4.697
40692SOL     OW23972   7.989   6.805  10.752
40692SOL    HW123973   8.077   6.830  10.780
40692SOL    HW223974   7.951   6.759  10.827
40693SOL     OW23975   5.555  14.101  10.872
40693SOL    HW123976   5.571  14.145  10.956
40693SOL    HW223977   5.549  14.173  10.809
40694SOL     OW23978   8.168   0.231   6.115
40694SOL    HW123979   8.176   0.296   6.046
40694SOL    HW223980   8.118   0.159   6.075
40695SOL     OW23981  12.173   9.019  13.686
40695SOL    HW123982  12.268   9.020  13.671
40695SOL    HW223983  12.139   8.965  13.614
40696SOL     OW23984   8.451   6.328   1.825
40696SOL    HW123985   8.497   6.298   1.903
40696SOL    HW223986   8.367   6.360   1.857
40697SOL     OW23987   8.179   5.423   1.549
40697SOL    HW123988   8.163   5.517   1.551
40697SOL    HW223989   8.205   5.404   1.459
40698SOL     OW23990   3.041   5.100   0.409
40698SOL    HW123991   2.993   5.103   0.326
40698SOL    HW223992   2.975   5.120   0.475
40699SOL     OW23993   9.479  14.484  13.644
40699SOL    HW123994   9.545  14.525  13.699
40699SOL    HW223995   9.443  14.555  13.592
40700SOL     OW23996   4.941   8.851   7.000
40700SOL    HW123997   4.880   8.911   7.044
40700SOL    HW223998   4.927   8.767   7.043
40701SOL     OW23999   1.144   9.361   4.163
40701SOL    HW124000   1.085   9.296   4.125
40701SOL    HW224001   1.095   9.443   4.158
40702SOL     OW24002  10.873  13.990  11.376
40702SOL    HW124003  10.873  14.075  11.420
40702SOL    HW224004  10.928  14.003  11.299
40703SOL     OW24005   5.479   3.783  14.111
40703SOL    HW124006   5.422   3.716  14.072
40703SOL    HW224007   5.470   3.771  14.205
40704SOL     OW24008  10.792   8.209   0.893
40704SOL    HW124009  10.795   8.117   0.922
40704SOL    HW224010  10.848   8.255   0.955
40705SOL     OW24011   7.061   6.075  13.083
40705SOL    HW124012   7.147   6.080  13.040
40705SOL    HW224013   7.068   6.135  13.157
40706SOL     OW24014   6.788  11.575  10.775
40706SOL    HW124015   6.709  11.623  10.802
40706SOL    HW224016   6.848  11.643  10.745
40707SOL     OW24017   3.513  12.841   1.180
40707SOL    HW124018   3.594  12.803   1.145
40707SOL    HW224019   3.451  12.768   1.180
40708SOL     OW24020   7.593   0.735   5.566
40708SOL    HW124021   7.667   0.678   5.587
40708SOL    HW224022   7.612   0.767   5.477
40709SOL     OW24023   4.666   7.800  12.611
40709SOL    HW124024   4.746   7.752  12.591
40709SOL    HW224025   4.680   7.887  12.575
40710SOL     OW24026   6.643   9.913   1.538
40710SOL    HW124027   6.562   9.865   1.558
40710SOL    HW224028   6.623   9.963   1.459
40711SOL     OW24029   1.862   6.440   8.120
40711SOL    HW124030   1.788   6.484   8.076
40711SOL    HW224031   1.932   6.505   8.120
40712SOL     OW24032  14.493   8.853   5.008
40712SOL    HW124033  14.562   8.864   5.072
40712SOL    HW224034  14.508   8.922   4.944
40713SOL     OW24035   3.997  13.533   8.436
40713SOL    HW124036   3.914  13.566   8.403
40713SOL    HW224037   4.064  13.586   8.392
40714SOL     OW24038  11.775  10.568   0.103
40714SOL    HW124039  11.817  10.520   0.031
40714SOL    HW224040  11.793  10.660   0.085
40715SOL     OW24041   5.238   8.387   0.990
40715SOL    HW124042   5.236   8.293   0.971
40715SOL    HW224043   5.203   8.428   0.911
40716SOL     OW24044   7.518   4.109   6.977
40716SOL    HW124045   7.439   4.062   7.005
40716SOL    HW224046   7.532   4.079   6.887
40717SOL     OW24047   6.638   4.165  12.070
40717SOL    HW124048   6.574   4.216  12.120
40717SOL    HW224049   6.721   4.212  12.082
40718SOL     OW24050   7.391   2.358  11.491
40718SOL    HW124051   7.409   2.398  11.406
40718SOL    HW224052   7.474   2.364  11.538
40719SOL     OW24053  11.166  12.361   9.597
40719SOL    HW124054  11.148  12.277   9.555
40719SOL    HW224055  11.132  12.351   9.686
40720SOL     OW24056   1.143   1.706   5.363
40720SOL    HW124057   1.074   1.764   5.330
40720SOL    HW224058   1.218   1.723   5.306
40721SOL     OW24059  13.588   5.617   5.202
40721SOL    HW124060  13.569   5.537   5.249
40721SOL    HW224061  13.683   5.625   5.204
40722SOL     OW24062  12.671   0.285  12.844
40722SOL    HW124063  12.628   0.344  12.782
40722SOL    HW224064  12.730   0.232  12.790
40723SOL     OW24065   9.054  13.103   5.610
40723SOL    HW124066   9.138  13.144   5.591
40723SOL    HW224067   9.006  13.108   5.528
40724SOL     OW24068   5.367   1.604   0.214
40724SOL    HW124069   5.381   1.642   0.301
40724SOL    HW224070   5.298   1.539   0.228
40725SOL     OW24071   4.061  11.847   5.949
40725SOL    HW124072   4.082  11.882   5.862
40725SOL    HW224073   4.145  11.843   5.994
40726SOL     OW24074   7.185   4.668  11.546
40726SOL    HW124075   7.129   4.617  11.488
40726SOL    HW224076   7.125   4.703  11.612
40727SOL     OW24077   2.963   0.283  13.939
40727SOL    HW124078   2.994   0.211  13.885
40727SOL    HW224079   2.919   0.342  13.878
40728SOL     OW24080   2.634  11.904  13.215
40728SOL    HW124081   2.594  11.923  13.299
40728SOL    HW224082   2.579  11.836  13.177
40729SOL     OW24083   6.183  10.702  10.406
40729SOL    HW124084   6.089  10.719  10.400
40729SOL    HW224085   6.188  10.611  10.436
40730SOL     OW24086  13.471  13.984  14.516
40730SOL    HW124087  13.409  14.056  14.529
40730SOL    HW224088  13.513  13.972  14.601
40731SOL     OW24089   3.337   8.935   5.977
40731SOL    HW124090   3.355   8.948   6.070
40731SOL    HW224091   3.295   8.850   5.972
40732SOL     OW24092  14.177   4.090  10.453
40732SOL    HW124093  14.254   4.145  10.437
40732SOL    HW224094  14.203   4.033  10.525
40733SOL     OW24095   3.273   2.289   6.301
40733SOL    HW124096   3.231   2.217   6.253
40733SOL    HW224097   3.320   2.338   6.233
40734SOL     OW24098  12.253   0.717  11.654
40734SOL    HW124099  12.341   0.738  11.686
40734SOL    HW224100  12.221   0.649  11.713
40735SOL     OW24101   1.408  12.801  10.735
40735SOL    HW124102   1.419  12.885  10.779
40735SOL    HW224103   1.341  12.817  10.669
40736SOL     OW24104   3.713   7.006   9.704
40736SOL    HW124105   3.759   6.924   9.688
40736SOL    HW224106   3.674   6.995   9.791
40737SOL     OW24107  10.221   0.766   6.346
40737SOL    HW124108  10.167   0.743   6.422
40737SOL    HW224109  10.173   0.837   6.303
40738SOL     OW24110  10.601  14.812   4.306
40738SOL    HW124111  10.516  14.815   4.349
40738SOL    HW224112  10.628   0.036   4.301
40739SOL     OW24113   3.260   7.324  14.255
40739SOL    HW124114   3.283   7.368  14.173
40739SOL    HW224115   3.343   7.290  14.289
40740SOL     OW24116  12.765  10.945   3.593
40740SOL    HW124117  12.827  11.017   3.591
40740SOL    HW224118  12.737  10.935   3.502
40741SOL     OW24119   4.290  14.131   8.418
40741SOL    HW124120   4.246  14.213   8.441
40741SOL    HW224121   4.328  14.100   8.500
40742SOL     OW24122   7.977   9.371   8.003
40742SOL    HW124123   7.989   9.463   8.023
40742SOL    HW224124   7.920   9.371   7.926
40743SOL     OW24125   7.377   9.810   3.451
40743SOL    HW124126   7.414   9.883   3.399
40743SOL    HW224127   7.400   9.832   3.541
40744SOL     OW24128   5.289   0.741   8.941
40744SOL    HW124129   5.305   0.773   9.030
40744SOL    HW224130   5.376   0.735   8.901
40745SOL     OW24131  10.171  14.686   4.215
40745SOL    HW124132  10.140  14.721   4.131
40745SOL    HW224133  10.234  14.751   4.246
40746SOL     OW24134  11.079  14.600   6.907
40746SOL    HW124135  11.103  14.527   6.963
40746SOL    HW224136  11.154  14.612   6.849
40747SOL     OW24137   1.001   2.156  11.442
40747SOL    HW124138   1.070   2.168  11.376
40747SOL    HW224139   0.983   2.062  11.440
40748SOL     OW24140   7.282  10.081   0.511
40748SOL    HW124141   7.300  10.019   0.440
40748SOL    HW224142   7.209  10.041   0.559
40749SOL     OW24143   4.764  13.819  14.368
40749SOL    HW124144   4.783  13.911  14.348
40749SOL    HW224145   4.850  13.780  14.385
40750SOL     OW24146  11.584   1.838  10.383
40750SOL    HW124147  11.547   1.868  10.300
40750SOL    HW224148  11.633   1.914  10.416
40751SOL     OW24149  11.514   0.692   3.915
40751SOL    HW124150  11.525   0.778   3.955
40751SOL    HW224151  11.419   0.681   3.907
40752SOL     OW24152   2.135   3.876   5.594
40752SOL    HW124153   2.051   3.917   5.614
40752SOL    HW224154   2.200   3.946   5.603
40753SOL     OW24155   5.135   2.067   2.944
40753SOL    HW124156   5.218   2.106   2.919
40753SOL    HW224157   5.133   1.983   2.897
40754SOL     OW24158   5.038  12.621   7.876
40754SOL    HW124159   5.094  12.647   7.803
40754SOL    HW224160   4.950  12.648   7.849
40755SOL     OW24161   3.263   1.361  13.670
40755SOL    HW124162   3.176   1.379  13.706
40755SOL    HW224163   3.316   1.337  13.746
40756SOL     OW24164   5.692   1.522   0.610
40756SOL    HW124165   5.769   1.502   0.664
40756SOL    HW224166   5.724   1.584   0.544
40757SOL     OW24167  11.762  12.934   5.244
40757SOL    HW124168  11.676  12.920   5.204
40757SOL    HW224169  11.794  12.846   5.263
40758SOL     OW24170   1.200   1.087   5.562
40758SOL    HW124171   1.290   1.073   5.593
40758SOL    HW224172   1.177   1.005   5.518
40759SOL     OW24173  13.601  13.485   8.167
40759SOL    HW124174  13.695  13.473   8.178
40759SOL    HW224175  13.564  13.469   8.253
40760SOL     OW24176   7.359   5.264  13.436
40760SOL    HW124177   7.411   5.344  13.430
40760SOL    HW224178   7.417   5.195  13.404
40761SOL     OW24179  14.796  13.407   4.325
40761SOL    HW124180  14.802  13.346   4.252
40761SOL    HW224181   0.017  13.412   4.360
40762SOL     OW24182   6.910   9.654   9.647
40762SOL    HW124183   6.927   9.560   9.642
40762SOL    HW224184   6.815   9.660   9.656
40763SOL     OW24185   2.016  10.500   4.927
40763SOL    HW124186   2.002  10.508   5.022
40763SOL    HW224187   2.110  10.515   4.915
40764SOL     OW24188   0.658   5.825   2.888
40764SOL    HW124189   0.677   5.734   2.910
40764SOL    HW224190   0.741   5.860   2.858
40765SOL     OW24191   9.894  12.733   1.937
40765SOL    HW124192   9.903  12.779   2.020
40765SOL    HW224193   9.981  12.738   1.896
40766SOL     OW24194   6.729   4.161  10.168
40766SOL    HW124195   6.675   4.082  10.162
40766SOL    HW224196   6.819   4.130  10.160
40767SOL     OW24197  10.835   0.165   9.488
40767SOL    HW124198  10.745   0.134   9.500
40767SOL    HW224199  10.843   0.239   9.548
40768SOL     OW24200   9.048   4.511   4.975
40768SOL    HW124201   9.069   4.512   5.068
40768SOL    HW224202   8.953   4.515   4.972
40769SOL     OW24203   7.625  13.749   1.166
40769SOL    HW124204   7.717  13.738   1.190
40769SOL    HW224205   7.596  13.824   1.219
40770SOL     OW24206   4.089  13.946   3.537
40770SOL    HW124207   4.064  14.025   3.584
40770SOL    HW224208   4.016  13.930   3.477
40771SOL     OW24209   4.103   8.441  14.812
40771SOL    HW124210   4.149   8.524  14.821
40771SOL    HW224211   4.021   8.453  14.860
40772SOL     OW24212   7.178   1.619   3.133
40772SOL    HW124213   7.120   1.688   3.167
40772SOL    HW224214   7.118   1.556   3.092
40773SOL     OW24215   0.353  11.863  11.206
40773SOL    HW124216   0.397  11.814  11.275
40773SOL    HW224217   0.266  11.822  11.200
40774SOL     OW24218   5.110   2.146   8.476
40774SOL    HW124219   5.024   2.176   8.449
40774SOL    HW224220   5.097   2.055   8.504
40775SOL     OW24221   8.110   9.127   7.020
40775SOL    HW124222   8.121   9.056   6.957
40775SOL    HW224223   8.044   9.094   7.081
40776SOL     OW24224   7.794  11.297   6.358
40776SOL    HW124225   7.711  11.251   6.367
40776SOL    HW224226   7.861  11.232   6.379
40777SOL     OW24227   1.710   1.246  14.410
40777SOL    HW124228   1.727   1.262  14.503
40777SOL    HW224229   1.782   1.288  14.364
40778SOL     OW24230  12.266   8.369   3.798
40778SOL    HW124231  12.328   8.349   3.727
40778SOL    HW224232  12.311   8.341   3.877
40779SOL     OW24233   4.585   2.944  12.885
40779SOL    HW124234   4.534   2.922  12.807
40779SOL    HW224235   4.559   3.033  12.907
40780SOL     OW24236   9.718   5.396   2.878
40780SOL    HW124237   9.784   5.419   2.942
40780SOL    HW224238   9.764   5.342   2.814
40781SOL     OW24239   1.078   3.423   3.555
40781SOL    HW124240   1.096   3.457   3.468
40781SOL    HW224241   1.144   3.464   3.611
40782SOL     OW24242  12.189   9.739  11.166
40782SOL    HW124243  12.193   9.830  11.195
40782SOL    HW224244  12.099   9.725  11.139
40783SOL     OW24245   2.651  14.565   8.236
40783SOL    HW124246   2.651  14.536   8.144
40783SOL    HW224247   2.581  14.630   8.240
40784SOL     OW24248  12.648   3.862   8.061
40784SOL    HW124249  12.573   3.883   8.116
40784SOL    HW224250  12.722   3.861   8.121
40785SOL     OW24251   0.604  12.529   0.289
40785SOL    HW124252   0.669  12.593   0.317
40785SOL    HW224253   0.650  12.473   0.226
40786SOL     OW24254  10.870   1.838   8.022
40786SOL    HW124255  10.894   1.778   8.093
40786SOL    HW224256  10.776   1.853   8.033
40787SOL     OW24257   7.051   6.037   9.938
40787SOL    HW124258   6.959   6.059   9.952
40787SOL    HW224259   7.099   6.114   9.967
40788SOL     OW24260   0.212   8.377  11.612
40788SOL    HW124261   0.281   8.326  11.569
40788SOL    HW224262   0.168   8.313  11.669
40789SOL     OW24263   6.798  10.968   4.121
40789SOL    HW124264   6.828  10.922   4.199
40789SOL    HW224265   6.751  10.901   4.071
40790SOL     OW24266   5.514  14.098   7.996
40790SOL    HW124267   5.428  14.131   8.021
40790SOL    HW224268   5.497  14.008   7.968
40791SOL     OW24269  13.987  14.189   6.327
40791SOL    HW124270  13.894  14.208   6.326
40791SOL    HW224271  14.029  14.271   6.352
40792SOL     OW24272   4.050   9.220   5.515
40792SOL    HW124273   4.125   9.278   5.529
40792SOL    HW224274   4.049   9.164   5.592
40793SOL     OW24275  14.091  14.200   3.869
40793SOL    HW124276  14.153  14.258   3.915
40793SOL    HW224277  14.137  14.174   3.790
40794SOL     OW24278   8.983  12.882   5.728
40794SOL    HW124279   9.008  12.968   5.694
40794SOL    HW224280   8.908  12.899   5.785
40795SOL     OW24281   2.260  13.249  12.663
40795SOL    HW124282   2.284  13.191  12.735
40795SOL    HW224283   2.289  13.336  12.692
40796SOL     OW24284  13.153   0.293   8.781
40796SOL    HW124285  13.235   0.293   8.732
40796SOL    HW224286  13.085   0.296   8.715
40797SOL     OW24287   2.313   4.806   6.032
40797SOL    HW124288   2.244   4.740   6.028
40797SOL    HW224289   2.286   4.874   5.970
40798SOL     OW24290   5.194   8.990  13.045
40798SOL    HW124291   5.271   8.952  13.086
40798SOL    HW224292   5.120   8.959  13.098
40799SOL     OW24293   6.091  12.465   3.246
40799SOL    HW124294   6.095  12.429   3.157
40799SOL    HW224295   6.172  12.514   3.256
40800SOL     OW24296  13.543  12.416   3.148
40800SOL    HW124297  13.583  12.335   3.117
40800SOL    HW224298  13.485  12.389   3.219
40801SOL     OW24299   8.285  14.197   3.168
40801SOL    HW124300   8.297  14.152   3.252
40801SOL    HW224301   8.275  14.289   3.191
40802SOL     OW24302   0.717   4.773  14.420
40802SOL    HW124303   0.702   4.806  14.332
40802SOL    HW224304   0.788   4.708  14.410
40803SOL     OW24305   6.675  10.293   4.147
40803SOL    HW124306   6.716  10.207   4.138
40803SOL    HW224307   6.615  10.284   4.221
40804SOL     OW24308  10.321   8.642   0.892
40804SOL    HW124309  10.242   8.590   0.906
40804SOL    HW224310  10.372   8.630   0.972
40805SOL     OW24311   5.106  11.497   2.077
40805SOL    HW124312   5.121  11.591   2.071
40805SOL    HW224313   5.138  11.473   2.164
40806SOL     OW24314  13.861  14.144   1.372
40806SOL    HW124315  13.928  14.146   1.304
40806SOL    HW224316  13.860  14.233   1.408
40807SOL     OW24317   5.274   9.674  11.094
40807SOL    HW124318   5.366   9.663  11.116
40807SOL    HW224319   5.275   9.737  11.021
40808SOL     OW24320   8.834   7.240  14.631
40808SOL    HW124321   8.869   7.155  14.606
40808SOL    HW224322   8.753   7.249  14.582
40809SOL     OW24323   6.531   8.786   4.090
40809SOL    HW124324   6.512   8.748   4.176
40809SOL    HW224325   6.588   8.723   4.048
40810SOL     OW24326   3.966   9.541   5.073
40810SOL    HW124327   3.915   9.545   4.993
40810SOL    HW224328   3.953   9.452   5.105
40811SOL     OW24329   8.794   3.565   2.448
40811SOL    HW124330   8.722   3.572   2.385
40811SOL    HW224331   8.847   3.643   2.433
40812SOL     OW24332   5.580   2.463   4.205
40812SOL    HW124333   5.503   2.407   4.200
40812SOL    HW224334   5.597   2.473   4.298
40813SOL     OW24335   5.678  14.789  10.163
40813SOL    HW124336   5.592  14.820  10.133
40813SOL    HW224337   5.672  14.795  10.259
40814SOL     OW24338   6.336   5.444   1.667
40814SOL    HW124339   6.245   5.431   1.693
40814SOL    HW224340   6.361   5.527   1.709
40815SOL     OW24341   6.603   1.552   1.356
40815SOL    HW124342   6.622   1.502   1.277
40815SOL    HW224343   6.584   1.640   1.325
40816SOL     OW24344   1.016  14.387  10.951
40816SOL    HW124345   0.946  14.352  10.895
40816SOL    HW224346   1.005  14.341  11.034
40817SOL     OW24347   2.215   8.589   0.266
40817SOL    HW124348   2.242   8.675   0.234
40817SOL    HW224349   2.129   8.576   0.227
40818SOL     OW24350  10.445   5.713   8.643
40818SOL    HW124351  10.497   5.766   8.582
40818SOL    HW224352  10.360   5.757   8.647
40819SOL     OW24353   6.861   0.432  10.679
40819SOL    HW124354   6.848   0.338  10.689
40819SOL    HW224355   6.934   0.440  10.618
40820SOL     OW24356   6.008   8.564  14.195
40820SOL    HW124357   5.933   8.582  14.252
40820SOL    HW224358   6.084   8.563  14.253
40821SOL     OW24359   7.085   3.012   4.144
40821SOL    HW124360   7.091   3.108   4.150
40821SOL    HW224361   7.078   2.983   4.235
40822SOL     OW24362   7.725  10.766   9.226
40822SOL    HW124363   7.655  10.713   9.267
40822SOL    HW224364   7.724  10.848   9.274
40823SOL     OW24365  13.819   9.759   2.831
40823SOL    HW124366  13.784   9.692   2.773
40823SOL    HW224367  13.749   9.824   2.838
40824SOL     OW24368   9.954   9.795  13.558
40824SOL    HW124369   9.864   9.765  13.550
40824SOL    HW224370   9.988   9.749  13.635
40825SOL     OW24371   4.841   6.370   5.372
40825SOL    HW124372   4.809   6.376   5.462
40825SOL    HW224373   4.877   6.457   5.354
40826SOL     OW24374   1.650   9.908   2.767
40826SOL    HW124375   1.666   9.979   2.706
40826SOL    HW224376   1.558   9.885   2.754
40827SOL     OW24377   7.450   2.441   5.179
40827SOL    HW124378   7.543   2.425   5.160
40827SOL    HW224379   7.451   2.511   5.244
40828SOL     OW24380  13.091   2.527   2.385
40828SOL    HW124381  13.067   2.465   2.453
40828SOL    HW224382  13.081   2.613   2.426
40829SOL     OW24383   1.251  10.924   7.919
40829SOL    HW124384   1.252  10.876   8.002
40829SOL    HW224385   1.259  10.855   7.852
40830SOL     OW24386   9.417   1.885   5.475
40830SOL    HW124387   9.498   1.936   5.481
40830SOL    HW224388   9.372   1.902   5.558
40831SOL     OW24389  12.231   4.385   2.860
40831SOL    HW124390  12.316   4.395   2.817
40831SOL    HW224391  12.171   4.437   2.806
40832SOL     OW24392   9.362  11.423   7.089
40832SOL    HW124393   9.405  11.396   7.008
40832SOL    HW224394   9.348  11.517   7.078
40833SOL     OW24395   7.029  10.469   7.807
40833SOL    HW124396   7.120  10.495   7.799
40833SOL    HW224397   6.981  10.528   7.749
40834SOL     OW24398   4.809  10.755  10.409
40834SOL    HW124399   4.726  10.708  10.405
40834SOL    HW224400   4.871  10.700  10.361
40835SOL     OW24401  12.523   4.264   9.460
40835SOL    HW124402  12.584   4.235   9.528
40835SOL    HW224403  12.577   4.305   9.393
40836SOL     OW24404   8.238  14.469   5.169
40836SOL    HW124405   8.179  14.465   5.094
40836SOL    HW224406   8.184  14.499   5.241
40837SOL     OW24407   2.532  10.900   1.567
40837SOL    HW124408   2.592  10.930   1.635
40837SOL    HW224409   2.583  10.836   1.517
40838SOL     OW24410   7.436  13.364   8.711
40838SOL    HW124411   7.493  13.433   8.744
40838SOL    HW224412   7.424  13.305   8.785
40839SOL     OW24413  11.338   9.164   3.899
40839SOL    HW124414  11.293   9.177   3.816
40839SOL    HW224415  11.277   9.113   3.952
40840SOL     OW24416   0.833   6.342  11.823
40840SOL    HW124417   0.890   6.400  11.772
40840SOL    HW224418   0.893   6.283  11.869
40841SOL     OW24419  10.633  10.238  14.582
40841SOL    HW124420  10.550  10.190  14.572
40841SOL    HW224421  10.614  10.305  14.647
40842SOL     OW24422  14.333   3.676   6.825
40842SOL    HW124423  14.264   3.740   6.807
40842SOL    HW224424  14.407   3.706   6.772
40843SOL     OW24425   1.805  13.223   8.172
40843SOL    HW124426   1.857  13.280   8.229
40843SOL    HW224427   1.797  13.272   8.090
40844SOL     OW24428   8.851   7.430  14.805
40844SOL    HW124429   8.845   7.371  14.730
40844SOL    HW224430   8.761   7.459  14.821
40845SOL     OW24431   9.576   9.111  10.362
40845SOL    HW124432   9.627   9.031  10.375
40845SOL    HW224433   9.563   9.116  10.267
40846SOL     OW24434  13.965  11.658  12.225
40846SOL    HW124435  13.919  11.575  12.219
40846SOL    HW224436  13.909  11.720  12.177
40847SOL     OW24437  11.999  12.629  12.972
40847SOL    HW124438  11.961  12.683  13.041
40847SOL    HW224439  12.080  12.594  13.009
40848SOL     OW24440   6.752   6.539   6.568
40848SOL    HW124441   6.726   6.558   6.658
40848SOL    HW224442   6.671   6.550   6.518
40849SOL     OW24443  14.195  10.896   5.682
40849SOL    HW124444  14.227  10.986   5.686
40849SOL    HW224445  14.271  10.845   5.653
40850SOL     OW24446   3.505  12.849   3.646
40850SOL    HW124447   3.461  12.929   3.616
40850SOL    HW224448   3.593  12.855   3.610
40851SOL     OW24449   2.424  14.640  12.030
40851SOL    HW124450   2.444  14.729  12.058
40851SOL    HW224451   2.509  14.600  12.013
40852SOL     OW24452   3.779   9.987   8.972
40852SOL    HW124453   3.836   9.986   8.895
40852SOL    HW224454   3.758   9.896   8.988
40853SOL     OW24455  14.211   2.426  10.087
40853SOL    HW124456  14.180   2.463  10.005
40853SOL    HW224457  14.306   2.438  10.085
40854SOL     OW24458  14.033  10.217   6.954
40854SOL    HW124459  14.103  10.182   6.899
40854SOL    HW224460  14.028  10.157   7.028
40855SOL     OW24461   8.574  10.942  14.190
40855SOL    HW124462   8.539  10.932  14.102
40855SOL    HW224463   8.667  10.920  14.182
40856SOL     OW24464  14.200   9.385   5.390
40856SOL    HW124465  14.270   9.446   5.364
40856SOL    HW224466  14.132   9.398   5.325
40857SOL     OW24467   1.706   8.229   1.807
40857SOL    HW124468   1.655   8.160   1.851
40857SOL    HW224469   1.760   8.266   1.876
40858SOL     OW24470  12.810  13.315   6.760
40858SOL    HW124471  12.868  13.260   6.813
40858SOL    HW224472  12.774  13.255   6.695
40859SOL     OW24473   0.158   2.729  11.318
40859SOL    HW124474   0.125   2.675  11.390
40859SOL    HW224475   0.244   2.693  11.299
40860SOL     OW24476   2.639   8.172   5.381
40860SOL    HW124477   2.616   8.224   5.304
40860SOL    HW224478   2.721   8.129   5.359
40861SOL     OW24479  12.197  10.833   8.022
40861SOL    HW124480  12.242  10.907   8.063
40861SOL    HW224481  12.266  10.787   7.974
40862SOL     OW24482   7.364  11.529   2.649
40862SOL    HW124483   7.320  11.513   2.732
40862SOL    HW224484   7.386  11.442   2.616
40863SOL     OW24485  13.228  10.362   4.963
40863SOL    HW124486  13.270  10.385   5.046
40863SOL    HW224487  13.197  10.444   4.927
40864SOL     OW24488   4.613   2.096   9.309
40864SOL    HW124489   4.605   2.006   9.278
40864SOL    HW224490   4.616   2.089   9.405
40865SOL     OW24491  13.971  13.547  11.383
40865SOL    HW124492  13.894  13.511  11.427
40865SOL    HW224493  13.952  13.640  11.374
40866SOL     OW24494   8.722   6.081  10.971
40866SOL    HW124495   8.791   6.119  10.916
40866SOL    HW224496   8.762   6.004  11.010
40867SOL     OW24497   8.798   1.206  13.711
40867SOL    HW124498   8.872   1.264  13.726
40867SOL    HW224499   8.721   1.261  13.727
40868SOL     OW24500   3.343   1.563   4.157
40868SOL    HW124501   3.268   1.514   4.122
40868SOL    HW224502   3.387   1.598   4.079
40869SOL     OW24503   1.970   6.267   3.530
40869SOL    HW124504   1.991   6.219   3.611
40869SOL    HW224505   1.939   6.200   3.470
40870SOL     OW24506   6.788   3.875   0.931
40870SOL    HW124507   6.858   3.827   0.885
40870SOL    HW224508   6.833   3.948   0.973
40871SOL     OW24509   4.666   3.182  14.047
40871SOL    HW124510   4.658   3.252  13.982
40871SOL    HW224511   4.579   3.143  14.050
40872SOL     OW24512  13.134   6.368   8.664
40872SOL    HW124513  13.147   6.436   8.731
40872SOL    HW224514  13.211   6.373   8.609
40873SOL     OW24515   3.983   4.934   2.170
40873SOL    HW124516   4.015   5.017   2.135
40873SOL    HW224517   4.045   4.869   2.138
40874SOL     OW24518  12.390   1.737   8.005
40874SOL    HW124519  12.396   1.718   8.098
40874SOL    HW224520  12.299   1.764   7.991
40875SOL     OW24521   9.334   7.681   9.300
40875SOL    HW124522   9.300   7.627   9.229
40875SOL    HW224523   9.294   7.767   9.286
40876SOL     OW24524  11.153   1.430   5.404
40876SOL    HW124525  11.143   1.514   5.359
40876SOL    HW224526  11.110   1.444   5.489
40877SOL     OW24527   1.920   6.073   0.033
40877SOL    HW124528   1.829   6.076   0.062
40877SOL    HW224529   1.947   5.983   0.051
40878SOL     OW24530   8.789  13.406  14.833
40878SOL    HW124531   8.815  13.314  14.827
40878SOL    HW224532   8.818  13.444  14.750
40879SOL     OW24533   5.647  14.794  10.427
40879SOL    HW124534   5.703  14.843  10.487
40879SOL    HW224535   5.561  14.835  10.437
40880SOL     OW24536   8.809   0.706   4.175
40880SOL    HW124537   8.872   0.640   4.204
40880SOL    HW224538   8.741   0.656   4.129
40881SOL     OW24539   7.726   3.570  13.725
40881SOL    HW124540   7.642   3.535  13.755
40881SOL    HW224541   7.730   3.547  13.632
40882SOL     OW24542   6.243   0.659  10.212
40882SOL    HW124543   6.168   0.718  10.218
40882SOL    HW224544   6.234   0.616  10.127
40883SOL     OW24545   2.276  13.908   0.015
40883SOL    HW124546   2.369  13.905  14.858
40883SOL    HW224547   2.277  13.936   0.107
40884SOL     OW24548  10.401   4.897   7.406
40884SOL    HW124549  10.382   4.990   7.416
40884SOL    HW224550  10.497   4.891   7.406
40885SOL     OW24551   2.785   4.996  13.116
40885SOL    HW124552   2.741   4.934  13.058
40885SOL    HW224553   2.715   5.029  13.173
40886SOL     OW24554  13.821  13.686   0.111
40886SOL    HW124555  13.793  13.599   0.083
40886SOL    HW224556  13.803  13.687   0.205
40887SOL     OW24557  12.928   6.632   8.235
40887SOL    HW124558  12.883   6.548   8.249
40887SOL    HW224559  12.884   6.670   8.159
40888SOL     OW24560   8.874   8.422   3.774
40888SOL    HW124561   8.882   8.489   3.842
40888SOL    HW224562   8.904   8.465   3.694
40889SOL     OW24563   2.487   0.601   8.099
40889SOL    HW124564   2.492   0.674   8.037
40889SOL    HW224565   2.558   0.543   8.074
40890SOL     OW24566   8.864   3.477   8.519
40890SOL    HW124567   8.956   3.477   8.493
40890SOL    HW224568   8.865   3.495   8.613
40891SOL     OW24569   4.543  10.751  11.317
40891SOL    HW124570   4.545  10.690  11.243
40891SOL    HW224571   4.468  10.807  11.300
40892SOL     OW24572  12.387   8.827   9.815
40892SOL    HW124573  12.352   8.904   9.769
40892SOL    HW224574  12.317   8.762   9.809
40893SOL     OW24575  12.852  13.844   4.760
40893SOL    HW124576  12.810  13.920   4.802
40893SOL    HW224577  12.888  13.793   4.832
40894SOL     OW24578   9.779  12.835   6.528
40894SOL    HW124579   9.704  12.785   6.496
40894SOL    HW224580   9.759  12.926   6.505
40895SOL     OW24581  11.081   1.613   1.095
40895SOL    HW124582  11.090   1.708   1.102
40895SOL    HW224583  11.151   1.587   1.035
40896SOL     OW24584   6.438  13.858   3.388
40896SOL    HW124585   6.442  13.774   3.342
40896SOL    HW224586   6.497  13.915   3.339
40897SOL     OW24587  14.648   3.250   0.465
40897SOL    HW124588  14.720   3.193   0.489
40897SOL    HW224589  14.571   3.211   0.507
40898SOL     OW24590   5.403   6.144  13.009
40898SOL    HW124591   5.322   6.156  12.960
40898SOL    HW224592   5.472   6.171  12.949
40899SOL     OW24593  14.637  12.529   7.090
40899SOL    HW124594  14.691  12.454   7.115
40899SOL    HW224595  14.688  12.574   7.022
40900SOL     OW24596   2.500   0.095   2.835
40900SOL    HW124597   2.466   0.010   2.862
40900SOL    HW224598   2.585   0.102   2.879
40901SOL     OW24599   4.838   7.473  13.592
40901SOL    HW124600   4.797   7.547  13.549
40901SOL    HW224601   4.788   7.397  13.562
40902SOL     OW24602   0.742   4.235  13.438
40902SOL    HW124603   0.711   4.295  13.371
40902SOL    HW224604   0.822   4.197  13.401
40903SOL     OW24605  10.321   9.638   6.500
40903SOL    HW124606  10.306   9.544   6.507
40903SOL    HW224607  10.263   9.677   6.565
40904SOL     OW24608  11.675   2.752   7.771
40904SOL    HW124609  11.636   2.834   7.804
40904SOL    HW224610  11.708   2.775   7.685
40905SOL     OW24611   4.779  11.670   4.514
40905SOL    HW124612   4.688  11.698   4.510
40905SOL    HW224613   4.775  11.575   4.521
40906SOL     OW24614   9.809   3.871   3.143
40906SOL    HW124615   9.742   3.926   3.102
40906SOL    HW224616   9.762   3.822   3.210
40907SOL     OW24617   8.135   9.662   7.164
40907SOL    HW124618   8.120   9.576   7.124
40907SOL    HW224619   8.051   9.686   7.203
40908SOL     OW24620  14.529   3.847  11.220
40908SOL    HW124621  14.488   3.771  11.178
40908SOL    HW224622  14.456   3.906  11.238
40909SOL     OW24623   9.637  12.138   1.502
40909SOL    HW124624   9.546  12.129   1.531
40909SOL    HW224625   9.668  12.219   1.543
40910SOL     OW24626  12.940   3.527   9.468
40910SOL    HW124627  13.003   3.483   9.525
40910SOL    HW224628  12.855   3.500   9.501
40911SOL     OW24629   0.754  12.756  12.306
40911SOL    HW124630   0.661  12.753  12.282
40911SOL    HW224631   0.753  12.762  12.401
40912SOL     OW24632   1.691   5.064   1.505
40912SOL    HW124633   1.745   5.120   1.449
40912SOL    HW224634   1.699   5.103   1.592
40913SOL     OW24635   5.582  12.393  14.586
40913SOL    HW124636   5.556  12.326  14.523
40913SOL    HW224637   5.528  12.469  14.565
40914SOL     OW24638  10.008  13.772  13.596
40914SOL    HW124639  10.039  13.842  13.652
40914SOL    HW224640  10.018  13.805  13.507
40915SOL     OW24641   0.826  13.603  10.570
40915SOL    HW124642   0.839  13.694  10.595
40915SOL    HW224643   0.908  13.577  10.529
40916SOL     OW24644   7.654   1.308  12.683
40916SOL    HW124645   7.564   1.338  12.696
40916SOL    HW224646   7.647   1.213  12.677
40917SOL     OW24647   1.915  10.851   4.604
40917SOL    HW124648   1.982  10.895   4.657
40917SOL    HW224649   1.964  10.799   4.541
40918SOL     OW24650   9.562   4.167   7.963
40918SOL    HW124651   9.536   4.214   7.884
40918SOL    HW224652   9.657   4.157   7.955
40919SOL     OW24653   3.909   6.183  11.390
40919SOL    HW124654   3.947   6.205  11.475
40919SOL    HW224655   3.944   6.249  11.330
40920SOL     OW24656   3.239   0.324   5.469
40920SOL    HW124657   3.176   0.322   5.541
40920SOL    HW224658   3.325   0.324   5.513
40921SOL     OW24659   0.403  14.605   7.432
40921SOL    HW124660   0.386  14.541   7.501
40921SOL    HW224661   0.354  14.682   7.457
40922SOL     OW24662   7.162   5.498  12.716
40922SOL    HW124663   7.171   5.524  12.808
40922SOL    HW224664   7.242   5.450  12.697
40923SOL     OW24665   0.262  13.644   0.504
40923SOL    HW124666   0.303  13.558   0.513
40923SOL    HW224667   0.284  13.690   0.585
40924SOL     OW24668   8.193   2.724  11.889
40924SOL    HW124669   8.160   2.813  11.877
40924SOL    HW224670   8.169   2.678  11.809
40925SOL     OW24671   4.319  13.858  10.223
40925SOL    HW124672   4.385  13.921  10.252
40925SOL    HW224673   4.369  13.784  10.190
40926SOL     OW24674  11.827  10.652  10.833
40926SOL    HW124675  11.900  10.696  10.877
40926SOL    HW224676  11.838  10.675  10.740
40927SOL     OW24677  11.881   2.315   1.350
40927SOL    HW124678  11.880   2.275   1.438
40927SOL    HW224679  11.833   2.397   1.361
40928SOL     OW24680   4.119  11.900   1.326
40928SOL    HW124681   4.108  11.995   1.324
40928SOL    HW224682   4.204  11.884   1.285
40929SOL     OW24683   3.631  12.160   0.189
40929SOL    HW124684   3.722  12.153   0.217
40929SOL    HW224685   3.635  12.211   0.108
40930SOL     OW24686   0.239   3.846  10.077
40930SOL    HW124687   0.322   3.889  10.097
40930SOL    HW224688   0.196   3.837  10.162
40931SOL     OW24689   9.346  10.333  13.557
40931SOL    HW124690   9.303  10.412  13.525
40931SOL    HW224691   9.439  10.357  13.563
40932SOL     OW24692   8.631  12.489   5.034
40932SOL    HW124693   8.580  12.488   5.115
40932SOL    HW224694   8.694  12.417   5.044
40933SOL     OW24695   1.340  10.904   9.079
40933SOL    HW124696   1.327  10.948   9.163
40933SOL    HW224697   1.316  10.970   9.013
40934SOL     OW24698  13.975  12.291   9.001
40934SOL    HW124699  13.972  12.305   8.907
40934SOL    HW224700  13.922  12.213   9.016
40935SOL     OW24701   9.918   1.896   8.960
40935SOL    HW124702   9.833   1.901   9.002
40935SOL    HW224703   9.963   1.823   9.003
40936SOL     OW24704  13.895   7.748   7.908
40936SOL    HW124705  13.974   7.773   7.955
40936SOL    HW224706  13.927   7.701   7.831
40937SOL     OW24707   7.022   1.194  14.372
40937SOL    HW124708   7.086   1.240  14.427
40937SOL    HW224709   6.939   1.206  14.417
40938SOL     OW24710   4.884   4.631  13.072
40938SOL    HW124711   4.951   4.698  13.089
40938SOL    HW224712   4.819   4.676  13.018
40939SOL     OW24713   9.153   3.903   1.528
40939SOL    HW124714   9.120   3.824   1.572
40939SOL    HW224715   9.207   3.870   1.457
40940SOL     OW24716   8.411   1.204  14.432
40940SOL    HW124717   8.457   1.121  14.442
40940SOL    HW224718   8.318   1.181  14.439
40941SOL     OW24719   0.328   9.910   4.842
40941SOL    HW124720   0.252   9.880   4.793
40941SOL    HW224721   0.291   9.958   4.916
40942SOL     OW24722  12.724  12.333   6.659
40942SOL    HW124723  12.811  12.365   6.686
40942SOL    HW224724  12.724  12.241   6.685
40943SOL     OW24725   2.558   2.208   2.952
40943SOL    HW124726   2.617   2.274   2.988
40943SOL    HW224727   2.599   2.125   2.973
40944SOL     OW24728   9.737  10.694   1.108
40944SOL    HW124729   9.795  10.675   1.183
40944SOL    HW224730   9.787  10.665   1.032
40945SOL     OW24731  10.478  13.026   3.899
40945SOL    HW124732  10.490  12.937   3.866
40945SOL    HW224733  10.384  13.043   3.889
40946SOL     OW24734   0.396   9.858   2.999
40946SOL    HW124735   0.363   9.913   3.071
40946SOL    HW224736   0.469   9.908   2.962
40947SOL     OW24737   6.084   2.351   3.044
40947SOL    HW124738   6.035   2.294   3.103
40947SOL    HW224739   6.116   2.422   3.100
40948SOL     OW24740  13.319  12.958   8.376
40948SOL    HW124741  13.265  12.879   8.369
40948SOL    HW224742  13.358  12.953   8.464
40949SOL     OW24743  13.146  10.288   0.853
40949SOL    HW124744  13.181  10.316   0.769
40949SOL    HW224745  13.071  10.233   0.831
40950SOL     OW24746  12.806   7.889   0.286
40950SOL    HW124747  12.719   7.919   0.312
40950SOL    HW224748  12.853   7.875   0.368
40951SOL     OW24749  11.613   4.943  10.652
40951SOL    HW124750  11.668   4.927  10.728
40951SOL    HW224751  11.555   4.867  10.648
40952SOL     OW24752   9.763   4.039   6.983
40952SOL    HW124753   9.798   3.991   7.057
40952SOL    HW224754   9.838   4.052   6.925
40953SOL     OW24755   6.729  13.257   7.960
40953SOL    HW124756   6.732  13.352   7.973
40953SOL    HW224757   6.791  13.222   8.024
40954SOL     OW24758  10.363  14.168   0.397
40954SOL    HW124759  10.275  14.199   0.419
40954SOL    HW224760  10.373  14.086   0.447
40955SOL     OW24761   0.347   1.045   4.710
40955SOL    HW124762   0.340   1.030   4.804
40955SOL    HW224763   0.303   0.971   4.670
40956SOL     OW24764  14.326   4.357   4.343
40956SOL    HW124765  14.332   4.292   4.413
40956SOL    HW224766  14.414   4.395   4.340
40957SOL     OW24767   1.729   3.312   9.990
40957SOL    HW124768   1.763   3.244   9.933
40957SOL    HW224769   1.638   3.286  10.007
40958SOL     OW24770   6.383   1.611   8.516
40958SOL    HW124771   6.389   1.702   8.487
40958SOL    HW224772   6.293   1.602   8.549
40959SOL     OW24773   3.480   7.373   9.572
40959SOL    HW124774   3.479   7.457   9.527
40959SOL    HW224775   3.553   7.325   9.531
40960SOL     OW24776   3.593  10.301   1.850
40960SOL    HW124777   3.610  10.366   1.782
40960SOL    HW224778   3.521  10.339   1.901
40961SOL     OW24779   2.986   3.280   5.945
40961SOL    HW124780   2.955   3.198   5.907
40961SOL    HW224781   2.922   3.345   5.919
40962SOL     OW24782   0.165   7.570  13.850
40962SOL    HW124783   0.142   7.482  13.879
40962SOL    HW224784   0.212   7.609  13.924
40963SOL     OW24785   5.867  14.181   7.805
40963SOL    HW124786   5.820  14.098   7.793
40963SOL    HW224787   5.947  14.171   7.753
40964SOL     OW24788   5.503  10.438   3.469
40964SOL    HW124789   5.566  10.397   3.528
40964SOL    HW224790   5.541  10.525   3.451
40965SOL     OW24791   2.506  13.247   7.672
40965SOL    HW124792   2.599  13.227   7.677
40965SOL    HW224793   2.468  13.205   7.749
40966SOL     OW24794   7.198   5.656  14.385
40966SOL    HW124795   7.213   5.589  14.319
40966SOL    HW224796   7.281   5.663  14.431
40967SOL     OW24797   2.691  14.718   6.832
40967SOL    HW124798   2.779  14.708   6.797
40967SOL    HW224799   2.647  14.636   6.809
40968SOL     OW24800  13.734   3.848  10.917
40968SOL    HW124801  13.761   3.887  10.834
40968SOL    HW224802  13.816   3.829  10.963
40969SOL     OW24803  10.612  14.850   4.872
40969SOL    HW124804  10.606   0.057   4.812
40969SOL    HW224805  10.690  14.868   4.924
40970SOL     OW24806   8.087   4.149   8.741
40970SOL    HW124807   8.097   4.202   8.820
40970SOL    HW224808   8.139   4.193   8.675
40971SOL     OW24809   3.649   7.671   4.477
40971SOL    HW124810   3.606   7.602   4.527
40971SOL    HW224811   3.720   7.626   4.432
40972SOL     OW24812  11.484   7.164   4.626
40972SOL    HW124813  11.550   7.225   4.592
40972SOL    HW224814  11.409   7.220   4.647
40973SOL     OW24815  13.058   8.817   3.831
40973SOL    HW124816  13.083   8.832   3.740
40973SOL    HW224817  12.963   8.832   3.832
40974SOL     OW24818   0.821   7.844   0.892
40974SOL    HW124819   0.911   7.874   0.902
40974SOL    HW224820   0.798   7.809   0.978
40975SOL     OW24821   5.067  10.894   6.143
40975SOL    HW124822   4.985  10.852   6.116
40975SOL    HW224823   5.134  10.827   6.131
40976SOL     OW24824  12.398   2.766   1.182
40976SOL    HW124825  12.322   2.737   1.233
40976SOL    HW224826  12.363   2.828   1.119
40977SOL     OW24827  14.169  10.929   6.753
40977SOL    HW124828  14.263  10.911   6.745
40977SOL    HW224829  14.150  10.991   6.684
40978SOL     OW24830   9.552   3.635   0.615
40978SOL    HW124831   9.514   3.597   0.536
40978SOL    HW224832   9.574   3.725   0.590
40979SOL     OW24833  12.222   1.420   2.806
40979SOL    HW124834  12.154   1.472   2.848
40979SOL    HW224835  12.258   1.478   2.738
40980SOL     OW24836   3.975   0.452   7.655
40980SOL    HW124837   4.046   0.398   7.619
40980SOL    HW224838   3.964   0.523   7.591
40981SOL     OW24839   1.909   2.213  12.072
40981SOL    HW124840   1.909   2.149  12.001
40981SOL    HW224841   1.890   2.162  12.150
40982SOL     OW24842   6.510   1.411   7.468
40982SOL    HW124843   6.422   1.393   7.501
40982SOL    HW224844   6.498   1.428   7.375
40983SOL     OW24845  13.336  12.173  14.815
40983SOL    HW124846  13.361  12.107  14.750
40983SOL    HW224847  13.368  12.138   0.030
40984SOL     OW24848   6.241   1.386   8.685
40984SOL    HW124849   6.219   1.306   8.639
40984SOL    HW224850   6.327   1.369   8.723
40985SOL     OW24851  12.614   8.384  13.467
40985SOL    HW124852  12.696   8.421  13.436
40985SOL    HW224853  12.563   8.459  13.497
40986SOL     OW24854  13.528  12.181   8.093
40986SOL    HW124855  13.560  12.260   8.051
40986SOL    HW224856  13.579  12.175   8.174
40987SOL     OW24857  14.013   5.113   5.705
40987SOL    HW124858  13.996   5.193   5.755
40987SOL    HW224859  14.060   5.056   5.766
40988SOL     OW24860   2.504  12.534  13.410
40988SOL    HW124861   2.558  12.565  13.338
40988SOL    HW224862   2.442  12.473  13.369
40989SOL     OW24863  14.588  11.662   8.195
40989SOL    HW124864  14.638  11.593   8.238
40989SOL    HW224865  14.535  11.701   8.265
40990SOL     OW24866   5.677  13.005   9.951
40990SOL    HW124867   5.701  13.011   9.859
40990SOL    HW224868   5.581  13.000   9.950
40991SOL     OW24869   4.307   5.674  13.820
40991SOL    HW124870   4.270   5.614  13.755
40991SOL    HW224871   4.243   5.676  13.891
40992SOL     OW24872   1.990   5.185   4.153
40992SOL    HW124873   2.024   5.269   4.184
40992SOL    HW224874   1.945   5.148   4.229
40993SOL     OW24875  14.568  13.811   1.572
40993SOL    HW124876  14.484  13.813   1.527
40993SOL    HW224877  14.631  13.783   1.505
40994SOL     OW24878  10.880   6.169   7.914
40994SOL    HW124879  10.866   6.202   7.826
40994SOL    HW224880  10.821   6.221   7.969
40995SOL     OW24881   4.619   6.336  10.684
40995SOL    HW124882   4.674   6.408  10.652
40995SOL    HW224883   4.672   6.257  10.670
40996SOL     OW24884   9.703  13.655   7.488
40996SOL    HW124885   9.777  13.614   7.443
40996SOL    HW224886   9.626  13.610   7.454
40997SOL     OW24887   3.992  11.277  13.561
40997SOL    HW124888   3.977  11.214  13.491
40997SOL    HW224889   3.993  11.362  13.517
40998SOL     OW24890   2.914  12.436   6.223
40998SOL    HW124891   2.962  12.452   6.305
40998SOL    HW224892   2.824  12.422   6.250
40999SOL     OW24893   9.297   7.950  12.153
40999SOL    HW124894   9.317   7.989  12.238
40999SOL    HW224895   9.368   7.889  12.137
41000SOL     OW24896  11.220  13.829   6.459
41000SOL    HW124897  11.222  13.817   6.554
41000SOL    HW224898  11.305  13.868   6.438
41001SOL     OW24899   5.959  11.097   1.538
41001SOL    HW124900   5.984  11.188   1.556
41001SOL    HW224901   6.042  11.052   1.521
41002SOL     OW24902   5.043   1.417   4.939
41002SOL    HW124903   5.056   1.467   4.859
41002SOL    HW224904   5.122   1.432   4.991
41003SOL     OW24905  11.234   6.755   8.380
41003SOL    HW124906  11.182   6.727   8.455
41003SOL    HW224907  11.314   6.702   8.386
41004SOL     OW24908   4.160   0.093   0.903
41004SOL    HW124909   4.074   0.055   0.885
41004SOL    HW224910   4.167   0.166   0.841
41005SOL     OW24911   0.180   3.710   1.604
41005SOL    HW124912   0.190   3.803   1.580
41005SOL    HW224913   0.202   3.707   1.697
41006SOL     OW24914   7.510   8.165   4.766
41006SOL    HW124915   7.605   8.157   4.751
41006SOL    HW224916   7.471   8.139   4.682
41007SOL     OW24917   0.836   2.053  12.855
41007SOL    HW124918   0.760   2.089  12.900
41007SOL    HW224919   0.809   2.048  12.763
41008SOL     OW24920   6.145   0.817   4.690
41008SOL    HW124921   6.184   0.753   4.631
41008SOL    HW224922   6.079   0.768   4.739
41009SOL     OW24923   7.959  11.668   0.407
41009SOL    HW124924   7.959  11.619   0.489
41009SOL    HW224925   8.006  11.749   0.426
41010SOL     OW24926   0.501   3.531  10.353
41010SOL    HW124927   0.556   3.514  10.277
41010SOL    HW224928   0.425   3.474  10.341
41011SOL     OW24929   4.257   4.700   3.113
41011SOL    HW124930   4.253   4.752   3.033
41011SOL    HW224931   4.272   4.610   3.083
41012SOL     OW24932  11.621   6.259   5.276
41012SOL    HW124933  11.708   6.285   5.305
41012SOL    HW224934  11.562   6.320   5.321
41013SOL     OW24935   1.239  11.805   7.453
41013SOL    HW124936   1.275  11.841   7.372
41013SOL    HW224937   1.230  11.882   7.511
41014SOL     OW24938  11.953   4.849   1.470
41014SOL    HW124939  11.939   4.828   1.377
41014SOL    HW224940  12.013   4.923   1.469
41015SOL     OW24941  12.511   8.484  10.213
41015SOL    HW124942  12.478   8.570  10.185
41015SOL    HW224943  12.563   8.453  10.139
41016SOL     OW24944   3.566   2.435   4.750
41016SOL    HW124945   3.599   2.493   4.681
41016SOL    HW224946   3.604   2.471   4.831
41017SOL     OW24947   1.594  13.718  14.753
41017SOL    HW124948   1.667  13.679  14.799
41017SOL    HW224949   1.574  13.657  14.682
41018SOL     OW24950   8.934  13.810   7.604
41018SOL    HW124951   9.018  13.816   7.650
41018SOL    HW224952   8.869  13.814   7.674
41019SOL     OW24953  13.585  11.731   4.816
41019SOL    HW124954  13.661  11.743   4.759
41019SOL    HW224955  13.523  11.797   4.787
41020SOL     OW24956  12.758   4.283  13.275
41020SOL    HW124957  12.787   4.295  13.184
41020SOL    HW224958  12.739   4.190  13.283
41021SOL     OW24959  14.516  11.804   4.047
41021SOL    HW124960  14.611  11.793   4.042
41021SOL    HW224961  14.483  11.758   3.970
41022SOL     OW24962  10.862   6.530   3.862
41022SOL    HW124963  10.895   6.479   3.788
41022SOL    HW224964  10.831   6.465   3.925
41023SOL     OW24965   9.534   9.826   7.393
41023SOL    HW124966   9.546   9.829   7.298
41023SOL    HW224967   9.539   9.917   7.421
41024SOL     OW24968   0.852   2.609  14.853
41024SOL    HW124969   0.774   2.596  14.799
41024SOL    HW224970   0.854   2.703   0.002
41025SOL     OW24971  13.572  12.415  11.221
41025SOL    HW124972  13.647  12.466  11.190
41025SOL    HW224973  13.539  12.465  11.295
41026SOL     OW24974   1.800  11.104   4.674
41026SOL    HW124975   1.860  11.131   4.743
41026SOL    HW224976   1.831  11.017   4.648
41027SOL     OW24977   4.951  12.083  11.111
41027SOL    HW124978   4.857  12.070  11.109
41027SOL    HW224979   4.974  12.081  11.204
41028SOL     OW24980   1.078  10.942   2.624
41028SOL    HW124981   1.155  10.958   2.569
41028SOL    HW224982   1.111  10.952   2.713
41029SOL     OW24983  14.632   6.331   5.360
41029SOL    HW124984  14.558   6.298   5.412
41029SOL    HW224985  14.686   6.379   5.423
41030SOL     OW24986  11.259  13.634   8.957
41030SOL    HW124987  11.351  13.662   8.958
41030SOL    HW224988  11.210  13.712   8.980
41031SOL     OW24989  11.933   7.315   3.606
41031SOL    HW124990  11.855   7.298   3.659
41031SOL    HW224991  11.901   7.311   3.516
41032SOL     OW24992   1.550   6.180   4.571
41032SOL    HW124993   1.563   6.202   4.663
41032SOL    HW224994   1.468   6.131   4.569
41033SOL     OW24995  13.742   3.004   3.167
41033SOL    HW124996  13.698   3.032   3.087
41033SOL    HW224997  13.675   2.959   3.218
41034SOL     OW24998   0.676  11.286   5.342
41034SOL    HW124999   0.770  11.305   5.349
41034SOL    HW225000   0.665  11.204   5.391
41035SOL     OW25001   9.649   2.725   7.070
41035SOL    HW125002   9.667   2.817   7.055
41035SOL    HW225003   9.732   2.688   7.101
41036SOL     OW25004   2.570   6.368   9.432
41036SOL    HW125005   2.547   6.338   9.520
41036SOL    HW225006   2.654   6.326   9.413
41037SOL     OW25007   1.443   5.651   3.654
41037SOL    HW125008   1.428   5.603   3.735
41037SOL    HW225009   1.382   5.725   3.657
41038SOL     OW25010  14.652   4.444   1.883
41038SOL    HW125011  14.615   4.364   1.921
41038SOL    HW225012  14.576   4.491   1.849
41039SOL     OW25013  11.376  11.228   4.240
41039SOL    HW125014  11.463  11.188   4.237
41039SOL    HW225015  11.368  11.273   4.156
41040SOL     OW25016   9.220   0.902   5.406
41040SOL    HW125017   9.271   0.947   5.338
41040SOL    HW225018   9.203   0.970   5.471
41041SOL     OW25019   8.609   1.011   2.227
41041SOL    HW125020   8.591   1.010   2.133
41041SOL    HW225021   8.527   1.040   2.266
41042SOL     OW25022  11.721   0.508   5.520
41042SOL    HW125023  11.707   0.443   5.588
41042SOL    HW225024  11.633   0.540   5.499
41043SOL     OW25025  11.268   6.826   2.337
41043SOL    HW125026  11.179   6.793   2.328
41043SOL    HW225027  11.318   6.751   2.369
41044SOL     OW25028  11.195   3.407   0.667
41044SOL    HW125029  11.205   3.401   0.763
41044SOL    HW225030  11.149   3.490   0.653
41045SOL     OW25031  14.475  11.396  12.861
41045SOL    HW125032  14.535  11.324  12.842
41045SOL    HW225033  14.433  11.415  12.778
41046SOL     OW25034  10.351   7.949   9.074
41046SOL    HW125035  10.446   7.939   9.083
41046SOL    HW225036  10.339   8.040   9.047
41047SOL     OW25037   7.324   1.175  14.019
41047SOL    HW125038   7.376   1.106  13.976
41047SOL    HW225039   7.274   1.128  14.086
41048SOL     OW25040  10.758   5.989   0.952
41048SOL    HW125041  10.829   5.965   1.010
41048SOL    HW225042  10.731   5.906   0.911
41049SOL     OW25043   2.475   0.350   0.876
41049SOL    HW125044   2.500   0.265   0.914
41049SOL    HW225045   2.405   0.329   0.814
41050SOL     OW25046   9.952   9.391   8.963
41050SOL    HW125047   9.908   9.396   8.878
41050SOL    HW225048   9.884   9.412   9.027
41051SOL     OW25049   6.066   7.040   9.210
41051SOL    HW125050   5.996   7.094   9.175
41051SOL    HW225051   6.039   6.950   9.193
41052SOL     OW25052  14.647   2.605  14.646
41052SOL    HW125053  14.593   2.662  14.592
41052SOL    HW225054  14.737   2.623  14.618
41053SOL     OW25055   7.257   5.121   0.061
41053SOL    HW125056   7.168   5.090   0.041
41053SOL    HW225057   7.312   5.084  14.860
41054SOL     OW25058  12.201   9.078  11.287
41054SOL    HW125059  12.262   9.039  11.350
41054SOL    HW225060  12.115   9.063  11.325
41055SOL     OW25061  11.456  12.306  14.373
41055SOL    HW125062  11.500  12.317  14.458
41055SOL    HW225063  11.526  12.310  14.309
41056SOL     OW25064  13.766   8.789   8.848
41056SOL    HW125065  13.750   8.697   8.824
41056SOL    HW225066  13.706   8.805   8.921
41057SOL     OW25067   6.046  12.746   2.707
41057SOL    HW125068   6.070  12.788   2.624
41057SOL    HW225069   6.118  12.767   2.766
41058SOL     OW25070  14.105   0.464   2.728
41058SOL    HW125071  14.177   0.509   2.684
41058SOL    HW225072  14.038   0.531   2.740
41059SOL     OW25073  12.161  13.265  11.648
41059SOL    HW125074  12.247  13.223  11.655
41059SOL    HW225075  12.171  13.327  11.575
41060SOL     OW25076   2.156   1.432   6.219
41060SOL    HW125077   2.211   1.486   6.161
41060SOL    HW225078   2.169   1.470   6.306
41061SOL     OW25079   2.071   7.507  13.126
41061SOL    HW125080   2.124   7.505  13.046
41061SOL    HW225081   1.995   7.453  13.106
41062SOL     OW25082  13.698  11.380  11.160
41062SOL    HW125083  13.736  11.292  11.156
41062SOL    HW225084  13.644  11.386  11.081
41063SOL     OW25085  11.018  11.855   5.020
41063SOL    HW125086  11.090  11.794   5.002
41063SOL    HW225087  11.061  11.935   5.049
41064SOL     OW25088   9.676   8.221   7.147
41064SOL    HW125089   9.683   8.237   7.241
41064SOL    HW225090   9.592   8.176   7.137
41065SOL     OW25091  13.674   8.285   9.776
41065SOL    HW125092  13.681   8.374   9.742
41065SOL    HW225093  13.587   8.281   9.817
41066SOL     OW25094   1.967   4.071   7.553
41066SOL    HW125095   2.025   4.010   7.599
41066SOL    HW225096   2.014   4.155   7.555
41067SOL     OW25097   8.146   6.326   1.238
41067SOL    HW125098   8.114   6.248   1.283
41067SOL    HW225099   8.225   6.350   1.286
41068SOL     OW25100  10.924   5.922  11.323
41068SOL    HW125101  10.916   5.879  11.238
41068SOL    HW225102  10.859   5.992  11.321
41069SOL     OW25103   6.567   2.617   1.887
41069SOL    HW125104   6.517   2.647   1.963
41069SOL    HW225105   6.503   2.577   1.829
41070SOL     OW25106  10.407  14.562   1.358
41070SOL    HW125107  10.322  14.555   1.401
41070SOL    HW225108  10.386  14.569   1.265
41071SOL     OW25109   7.532   0.205   9.734
41071SOL    HW125110   7.564   0.288   9.770
41071SOL    HW225111   7.587   0.191   9.657
41072SOL     OW25112  10.634  10.468   4.423
41072SOL    HW125113  10.695  10.394   4.418
41072SOL    HW225114  10.568  10.440   4.486
41073SOL     OW25115   1.667   5.105  11.647
41073SOL    HW125116   1.641   5.096  11.739
41073SOL    HW225117   1.585   5.123  11.600
41074SOL     OW25118   0.621   6.870   7.973
41074SOL    HW125119   0.649   6.961   7.969
41074SOL    HW225120   0.670   6.827   7.903
41075SOL     OW25121  11.310  12.797   8.186
41075SOL    HW125122  11.348  12.770   8.103
41075SOL    HW225123  11.371  12.863   8.220
41076SOL     OW25124   7.471  10.884   2.614
41076SOL    HW125125   7.437  10.955   2.668
41076SOL    HW225126   7.400  10.865   2.552
41077SOL     OW25127   1.570   0.186   2.070
41077SOL    HW125128   1.661   0.178   2.097
41077SOL    HW225129   1.523   0.125   2.126
41078SOL     OW25130   6.615   9.223   3.262
41078SOL    HW125131   6.573   9.262   3.186
41078SOL    HW225132   6.546   9.171   3.303
41079SOL     OW25133   0.746   6.387  10.658
41079SOL    HW125134   0.756   6.482  10.663
41079SOL    HW225135   0.818   6.358  10.601
41080SOL     OW25136   7.146  11.615   1.752
41080SOL    HW125137   7.114  11.543   1.806
41080SOL    HW225138   7.231  11.586   1.721
41081SOL     OW25139   9.804   8.747   4.899
41081SOL    HW125140   9.793   8.766   4.992
41081SOL    HW225141   9.892   8.778   4.878
41082SOL     OW25142   1.482   9.709   3.991
41082SOL    HW125143   1.545   9.729   3.922
41082SOL    HW225144   1.432   9.635   3.958
41083SOL     OW25145   7.309   2.399   5.826
41083SOL    HW125146   7.351   2.319   5.858
41083SOL    HW225147   7.381   2.451   5.790
41084SOL     OW25148   7.694   2.293   1.302
41084SOL    HW125149   7.618   2.238   1.323
41084SOL    HW225150   7.666   2.382   1.323
41085SOL     OW25151  10.290   4.032   0.583
41085SOL    HW125152  10.224   4.025   0.652
41085SOL    HW225153  10.344   3.954   0.594
41086SOL     OW25154  10.393   9.743  13.063
41086SOL    HW125155  10.485   9.726  13.082
41086SOL    HW225156  10.371   9.679  12.995
41087SOL     OW25157  13.240   6.777   6.000
41087SOL    HW125158  13.272   6.692   6.030
41087SOL    HW225159  13.146   6.776   6.022
41088SOL     OW25160  14.299   6.664  13.164
41088SOL    HW125161  14.273   6.643  13.075
41088SOL    HW225162  14.392   6.643  13.167
41089SOL     OW25163   4.042  13.824  12.598
41089SOL    HW125164   4.050  13.794  12.507
41089SOL    HW225165   4.101  13.900  12.603
41090SOL     OW25166  13.955  14.423   9.693
41090SOL    HW125167  13.883  14.401   9.634
41090SOL    HW225168  13.928  14.506   9.734
41091SOL     OW25169   8.918   7.494   5.615
41091SOL    HW125170   8.838   7.542   5.595
41091SOL    HW225171   8.956   7.473   5.530
41092SOL     OW25172   9.573   0.628   5.339
41092SOL    HW125173   9.512   0.639   5.412
41092SOL    HW225174   9.653   0.596   5.379
41093SOL     OW25175   8.368   9.896   5.692
41093SOL    HW125176   8.302   9.834   5.723
41093SOL    HW225177   8.317   9.971   5.660
41094SOL     OW25178   7.365   3.174  11.162
41094SOL    HW125179   7.327   3.142  11.244
41094SOL    HW225180   7.299   3.233  11.127
41095SOL     OW25181   8.573  12.420  12.316
41095SOL    HW125182   8.513  12.427  12.243
41095SOL    HW225183   8.637  12.354  12.289
41096SOL     OW25184  11.613   6.358   3.551
41096SOL    HW125185  11.622   6.351   3.646
41096SOL    HW225186  11.687   6.307   3.517
41097SOL     OW25187  13.649  12.167  11.656
41097SOL    HW125188  13.690  12.098  11.603
41097SOL    HW225189  13.711  12.240  11.651
41098SOL     OW25190   0.449   5.653   4.896
41098SOL    HW125191   0.391   5.593   4.849
41098SOL    HW225192   0.395   5.730   4.913
41099SOL     OW25193   0.608  11.878   8.689
41099SOL    HW125194   0.679  11.854   8.749
41099SOL    HW225195   0.604  11.973   8.694
41100SOL     OW25196   7.651   9.463   4.111
41100SOL    HW125197   7.682   9.385   4.158
41100SOL    HW225198   7.556   9.453   4.109
41101SOL     OW25199   7.805   4.264  10.181
41101SOL    HW125200   7.874   4.203  10.154
41101SOL    HW225201   7.754   4.215  10.246
41102SOL     OW25202  12.354   8.128   8.439
41102SOL    HW125203  12.329   8.164   8.524
41102SOL    HW225204  12.366   8.205   8.383
41103SOL     OW25205   2.695   6.673   7.067
41103SOL    HW125206   2.783   6.703   7.088
41103SOL    HW225207   2.708   6.606   7.001
41104SOL     OW25208  10.084   5.830   8.308
41104SOL    HW125209  10.105   5.742   8.279
41104SOL    HW225210  10.112   5.833   8.400
41105SOL     OW25211  13.026   5.592   9.147
41105SOL    HW125212  13.088   5.649   9.193
41105SOL    HW225213  12.944   5.604   9.195
41106SOL     OW25214   9.337   1.604   0.604
41106SOL    HW125215   9.299   1.601   0.691
41106SOL    HW225216   9.263   1.596   0.544
41107SOL     OW25217   2.462  11.034  11.914
41107SOL    HW125218   2.553  11.063  11.917
41107SOL    HW225219   2.417  11.100  11.862
41108SOL     OW25220   3.230  12.252  10.860
41108SOL    HW125221   3.157  12.264  10.799
41108SOL    HW225222   3.278  12.177  10.825
41109SOL     OW25223  13.470   0.208  12.608
41109SOL    HW125224  13.412   0.281  12.629
41109SOL    HW225225  13.522   0.239  12.534
41110SOL     OW25226   0.784   4.736  11.379
41110SOL    HW125227   0.730   4.725  11.457
41110SOL    HW225228   0.739   4.685  11.311
41111SOL     OW25229   4.087   1.366   6.800
41111SOL    HW125230   4.158   1.376   6.737
41111SOL    HW225231   4.101   1.279   6.838
41112SOL     OW25232  14.759   4.110  12.417
41112SOL    HW125233  14.829   4.119  12.353
41112SOL    HW225234  14.764   4.019  12.446
41113SOL     OW25235   9.435   1.798  12.505
41113SOL    HW125236   9.444   1.718  12.454
41113SOL    HW225237   9.345   1.795  12.539
41114SOL     OW25238  10.363   4.331   4.243
41114SOL    HW125239  10.282   4.346   4.194
41114SOL    HW225240  10.375   4.411   4.294
41115SOL     OW25241   9.978  13.367  10.357
41115SOL    HW125242  10.032  13.306  10.307
41115SOL    HW225243   9.997  13.452  10.318
41116SOL     OW25244   1.736  10.140   6.775
41116SOL    HW125245   1.793  10.110   6.705
41116SOL    HW225246   1.781  10.216   6.812
41117SOL     OW25247  12.489  11.242   8.242
41117SOL    HW125248  12.583  11.244   8.223
41117SOL    HW225249  12.474  11.321   8.295
41118SOL     OW25250   9.461  13.814  11.106
41118SOL    HW125251   9.524  13.791  11.174
41118SOL    HW225252   9.479  13.906  11.088
41119SOL     OW25253  11.869  11.528   5.670
41119SOL    HW125254  11.783  11.557   5.642
41119SOL    HW225255  11.912  11.498   5.590
41120SOL     OW25256   6.020  12.050   5.147
41120SOL    HW125257   5.993  12.008   5.228
41120SOL    HW225258   6.110  12.020   5.133
41121SOL     OW25259  14.868  10.026   0.163
41121SOL    HW125260  14.854  10.101   0.105
41121SOL    HW225261   0.089  10.036   0.195
41122SOL     OW25262   8.054   9.149  14.039
41122SOL    HW125263   7.959   9.137  14.035
41122SOL    HW225264   8.088   9.065  14.071
41123SOL     OW25265  11.803  12.679   5.332
41123SOL    HW125266  11.860  12.603   5.332
41123SOL    HW225267  11.782  12.694   5.424
41124SOL     OW25268  13.565   2.519   3.708
41124SOL    HW125269  13.591   2.514   3.800
41124SOL    HW225270  13.555   2.613   3.691
41125SOL     OW25271   3.440   7.361   8.073
41125SOL    HW125272   3.433   7.441   8.020
41125SOL    HW225273   3.414   7.291   8.014
41126SOL     OW25274  13.839   0.697   5.296
41126SOL    HW125275  13.880   0.700   5.210
41126SOL    HW225276  13.863   0.611   5.331
41127SOL     OW25277  13.476  10.396   3.383
41127SOL    HW125278  13.481  10.490   3.396
41127SOL    HW225279  13.383  10.378   3.374
41128SOL     OW25280   0.535   2.355   9.309
41128SOL    HW125281   0.507   2.431   9.359
41128SOL    HW225282   0.605   2.316   9.361
41129SOL     OW25283   0.798   7.125   4.632
41129SOL    HW125284   0.785   7.081   4.717
41129SOL    HW225285   0.717   7.110   4.584
41130SOL     OW25286   5.133  11.479   0.846
41130SOL    HW125287   5.079  11.459   0.770
41130SOL    HW225288   5.072  11.480   0.920
41131SOL     OW25289  11.880   4.683  10.165
41131SOL    HW125290  11.975   4.674  10.155
41131SOL    HW225291  11.845   4.597  10.141
41132SOL     OW25292   0.208   4.809   6.719
41132SOL    HW125293   0.295   4.783   6.747
41132SOL    HW225294   0.162   4.726   6.703
41133SOL     OW25295   3.449  12.438  10.102
41133SOL    HW125296   3.506  12.365  10.129
41133SOL    HW225297   3.504  12.490  10.043
41134SOL     OW25298   9.891  10.736  12.713
41134SOL    HW125299   9.875  10.797  12.641
41134SOL    HW225300   9.891  10.791  12.791
41135SOL     OW25301   9.963   3.743   1.972
41135SOL    HW125302   9.992   3.786   2.052
41135SOL    HW225303   9.917   3.812   1.923
41136SOL     OW25304   2.837   3.433   0.214
41136SOL    HW125305   2.924   3.471   0.226
41136SOL    HW225306   2.854   3.338   0.209
41137SOL     OW25307   0.472   8.799  13.753
41137SOL    HW125308   0.457   8.796  13.658
41137SOL    HW225309   0.440   8.714  13.785
41138SOL     OW25310   0.507  14.569   2.924
41138SOL    HW125311   0.456  14.558   2.843
41138SOL    HW225312   0.519  14.664   2.930
41139SOL     OW25313   9.105   9.995   6.864
41139SOL    HW125314   9.069   9.907   6.862
41139SOL    HW225315   9.146  10.002   6.951
41140SOL     OW25316   3.485  13.425  12.532
41140SOL    HW125317   3.575  13.411  12.561
41140SOL    HW225318   3.460  13.342  12.490
41141SOL     OW25319   5.125   0.705   3.287
41141SOL    HW125320   5.157   0.718   3.198
41141SOL    HW225321   5.158   0.780   3.337
41142SOL     OW25322   5.225  13.867   8.004
41142SOL    HW125323   5.179  13.791   7.967
41142SOL    HW225324   5.314  13.861   7.970
41143SOL     OW25325   0.814  13.411   6.823
41143SOL    HW125326   0.744  13.476   6.828
41143SOL    HW225327   0.768  13.327   6.816
41144SOL     OW25328   8.066   7.346   6.731
41144SOL    HW125329   8.100   7.259   6.753
41144SOL    HW225330   7.971   7.336   6.739
41145SOL     OW25331  10.340   2.420   8.582
41145SOL    HW125332  10.273   2.352   8.576
41145SOL    HW225333  10.362   2.424   8.675
41146SOL     OW25334  11.519  14.757   9.574
41146SOL    HW125335  11.573  14.687   9.537
41146SOL    HW225336  11.509  14.820   9.503
41147SOL     OW25337  11.023  14.645  12.113
41147SOL    HW125338  11.031  14.550  12.123
41147SOL    HW225339  11.077  14.665  12.037
41148SOL     OW25340   1.419   2.315   6.338
41148SOL    HW125341   1.380   2.281   6.258
41148SOL    HW225342   1.493   2.257   6.356
41149SOL     OW25343  12.905  14.685  10.408
41149SOL    HW125344  12.815  14.717  10.410
41149SOL    HW225345  12.907  14.615  10.473
41150SOL     OW25346   3.552   8.431   5.079
41150SOL    HW125347   3.626   8.473   5.035
41150SOL    HW225348   3.592   8.362   5.133
41151SOL     OW25349   8.142   5.639   2.772
41151SOL    HW125350   8.056   5.675   2.792
41151SOL    HW225351   8.181   5.620   2.857
41152SOL     OW25352  10.320   6.043   8.602
41152SOL    HW125353  10.246   5.983   8.594
41152SOL    HW225354  10.289   6.111   8.661
41153SOL     OW25355   7.908  11.399   3.900
41153SOL    HW125356   7.886  11.307   3.916
41153SOL    HW225357   7.830  11.448   3.926
41154SOL     OW25358   7.621   3.040   8.990
41154SOL    HW125359   7.538   3.080   8.962
41154SOL    HW225360   7.602   2.946   8.992
41155SOL     OW25361  13.664   2.175  14.453
41155SOL    HW125362  13.593   2.157  14.514
41155SOL    HW225363  13.626   2.163  14.366
41156SOL     OW25364  14.735  14.862  13.901
41156SOL    HW125365  14.800  14.797  13.874
41156SOL    HW225366  14.654  14.813  13.908
41157SOL     OW25367   1.287   6.103  10.567
41157SOL    HW125368   1.239   6.157  10.506
41157SOL    HW225369   1.244   6.018  10.564
41158SOL     OW25370  11.281   2.627  13.048
41158SOL    HW125371  11.241   2.543  13.071
41158SOL    HW225372  11.225   2.661  12.977
41159SOL     OW25373   8.100   2.474   7.688
41159SOL    HW125374   8.018   2.519   7.711
41159SOL    HW225375   8.108   2.487   7.593
41160SOL     OW25376   3.901   1.359   4.492
41160SOL    HW125377   3.916   1.416   4.568
41160SOL    HW225378   3.922   1.271   4.524
41161SOL     OW25379   4.489   7.671   0.035
41161SOL    HW125380   4.517   7.672   0.127
41161SOL    HW225381   4.396   7.649   0.039
41162SOL     OW25382  13.308   7.898   2.913
41162SOL    HW125383  13.233   7.957   2.913
41162SOL    HW225384  13.293   7.840   2.838
41163SOL     OW25385   1.723  14.346  13.231
41163SOL    HW125386   1.673  14.407  13.176
41163SOL    HW225387   1.786  14.307  13.170
41164SOL     OW25388   3.641   8.150  14.089
41164SOL    HW125389   3.659   8.226  14.145
41164SOL    HW225390   3.553   8.121  14.115
41165SOL     OW25391   9.764   0.617  11.519
41165SOL    HW125392   9.847   0.649  11.485
41165SOL    HW225393   9.720   0.579  11.442
41166SOL     OW25394   3.361  13.728  12.364
41166SOL    HW125395   3.447  13.734  12.407
41166SOL    HW225396   3.382  13.707  12.273
41167SOL     OW25397  11.256  14.003   9.290
41167SOL    HW125398  11.213  13.926   9.328
41167SOL    HW225399  11.287  14.053   9.366
41168SOL     OW25400  11.639  10.858   8.295
41168SOL    HW125401  11.547  10.830   8.301
41168SOL    HW225402  11.638  10.949   8.324
41169SOL     OW25403   1.582   2.319   2.404
41169SOL    HW125404   1.493   2.350   2.387
41169SOL    HW225405   1.619   2.385   2.464
41170SOL     OW25406  10.761   4.827   2.508
41170SOL    HW125407  10.753   4.889   2.580
41170SOL    HW225408  10.855   4.825   2.489
41171SOL     OW25409  14.507   3.077  14.055
41171SOL    HW125410  14.423   3.042  14.082
41171SOL    HW225411  14.500   3.086  13.960
41172SOL     OW25412   7.798   3.998   9.453
41172SOL    HW125413   7.771   3.971   9.541
41172SOL    HW225414   7.735   4.065   9.428
41173SOL     OW25415   2.553  11.915   9.231
41173SOL    HW125416   2.623  11.981   9.230
41173SOL    HW225417   2.486  11.950   9.172
41174SOL     OW25418   8.809   2.137   3.943
41174SOL    HW125419   8.815   2.232   3.955
41174SOL    HW225420   8.771   2.105   4.024
41175SOL     OW25421   6.379   1.546  12.445
41175SOL    HW125422   6.377   1.451  12.430
41175SOL    HW225423   6.287   1.571  12.450
41176SOL     OW25424   7.553   1.264  11.022
41176SOL    HW125425   7.647   1.283  11.021
41176SOL    HW225426   7.519   1.316  11.095
41177SOL     OW25427   2.783  10.240   6.419
41177SOL    HW125428   2.714  10.231   6.486
41177SOL    HW225429   2.748  10.305   6.358
41178SOL     OW25430  12.994   4.414   7.215
41178SOL    HW125431  12.971   4.321   7.219
41178SOL    HW225432  12.910   4.459   7.210
41179SOL     OW25433  13.662  11.244  11.910
41179SOL    HW125434  13.641  11.232  12.002
41179SOL    HW225435  13.584  11.285  11.872
41180SOL     OW25436  13.123   9.960   3.769
41180SOL    HW125437  13.156  10.029   3.712
41180SOL    HW225438  13.190   9.950   3.836
41181SOL     OW25439   7.927  13.288   7.531
41181SOL    HW125440   7.863  13.233   7.485
41181SOL    HW225441   7.950  13.237   7.609
41182SOL     OW25442  14.351   8.361  13.352
41182SOL    HW125443  14.380   8.453  13.351
41182SOL    HW225444  14.361   8.332  13.261
41183SOL     OW25445  14.336   5.493   4.867
41183SOL    HW125446  14.411   5.435   4.870
41183SOL    HW225447  14.371   5.577   4.836
41184SOL     OW25448   8.350   0.097   4.341
41184SOL    HW125449   8.426   0.121   4.287
41184SOL    HW225450   8.383   0.030   4.400
41185SOL     OW25451   0.215   1.137  13.073
41185SOL    HW125452   0.305   1.167  13.091
41185SOL    HW225453   0.227   1.062  13.014
41186SOL     OW25454   3.666   5.398   6.900
41186SOL    HW125455   3.717   5.424   6.823
41186SOL    HW225456   3.690   5.306   6.914
41187SOL     OW25457  12.505   3.591   0.933
41187SOL    HW125458  12.446   3.534   0.983
41187SOL    HW225459  12.529   3.538   0.856
41188SOL     OW25460   4.231   9.279   2.166
41188SOL    HW125461   4.227   9.221   2.242
41188SOL    HW225462   4.152   9.333   2.173
41189SOL     OW25463   1.076   1.293   1.824
41189SOL    HW125464   1.007   1.346   1.784
41189SOL    HW225465   1.144   1.355   1.848
41190SOL     OW25466   2.054   7.768   9.091
41190SOL    HW125467   2.114   7.694   9.098
41190SOL    HW225468   1.970   7.733   9.120
41191SOL     OW25469  12.578  13.621  12.862
41191SOL    HW125470  12.590  13.646  12.770
41191SOL    HW225471  12.558  13.704  12.907
41192SOL     OW25472   3.935  12.863  14.472
41192SOL    HW125473   4.007  12.881  14.412
41192SOL    HW225474   3.859  12.905  14.432
41193SOL     OW25475   4.323  14.803   9.426
41193SOL    HW125476   4.417  14.788   9.415
41193SOL    HW225477   4.283  14.766   9.348
41194SOL     OW25478  10.829   7.937   0.354
41194SOL    HW125479  10.799   7.993   0.425
41194SOL    HW225480  10.906   7.893   0.388
41195SOL     OW25481   3.474   1.006  13.393
41195SOL    HW125482   3.495   1.039  13.480
41195SOL    HW225483   3.384   1.035  13.377
41196SOL     OW25484  10.798   6.672   5.653
41196SOL    HW125485  10.768   6.591   5.695
41196SOL    HW225486  10.846   6.717   5.722
41197SOL     OW25487  11.546  10.241  10.854
41197SOL    HW125488  11.528  10.335  10.852
41197SOL    HW225489  11.545  10.214  10.763
41198SOL     OW25490  13.503   8.431   7.612
41198SOL    HW125491  13.585   8.417   7.564
41198SOL    HW225492  13.526   8.416   7.703
41199SOL     OW25493   4.843   4.310   6.812
41199SOL    HW125494   4.810   4.364   6.884
41199SOL    HW225495   4.799   4.345   6.734
41200SOL     OW25496   7.560   0.742  13.715
41200SOL    HW125497   7.467   0.746  13.738
41200SOL    HW225498   7.588   0.654  13.741
41201SOL     OW25499   3.846  13.795  13.360
41201SOL    HW125500   3.865  13.830  13.447
41201SOL    HW225501   3.898  13.715  13.355
41202SOL     OW25502  14.308   0.157   5.454
41202SOL    HW125503  14.314   0.142   5.549
41202SOL    HW225504  14.374   0.223   5.436
41203SOL     OW25505   5.531   0.776   1.676
41203SOL    HW125506   5.585   0.839   1.629
41203SOL    HW225507   5.571   0.691   1.656
41204SOL     OW25508   3.208   2.607   4.711
41204SOL    HW125509   3.237   2.535   4.766
41204SOL    HW225510   3.288   2.648   4.680
41205SOL     OW25511  12.132   8.817   9.505
41205SOL    HW125512  12.134   8.740   9.449
41205SOL    HW225513  12.103   8.784   9.590
41206SOL     OW25514   1.641  10.941   8.757
41206SOL    HW125515   1.666  10.857   8.795
41206SOL    HW225516   1.687  10.944   8.673
41207SOL     OW25517   4.578   5.789   1.651
41207SOL    HW125518   4.643   5.853   1.623
41207SOL    HW225519   4.623   5.736   1.717
41208SOL     OW25520   5.686  10.939   4.663
41208SOL    HW125521   5.649  10.881   4.730
41208SOL    HW225522   5.612  10.993   4.634
41209SOL     OW25523  10.490   3.070   0.694
41209SOL    HW125524  10.404   3.044   0.727
41209SOL    HW225525  10.475   3.089   0.601
41210SOL     OW25526   0.548   5.848   1.076
41210SOL    HW125527   0.500   5.865   0.994
41210SOL    HW225528   0.546   5.753   1.086
41211SOL     OW25529   3.500   5.144   1.852
41211SOL    HW125530   3.554   5.071   1.881
41211SOL    HW225531   3.439   5.106   1.789
41212SOL     OW25532  14.806  10.743  14.548
41212SOL    HW125533  14.775  10.694  14.624
41212SOL    HW225534  14.802  10.834  14.575
41213SOL     OW25535  10.121   0.685  10.091
41213SOL    HW125536  10.104   0.761  10.147
41213SOL    HW225537  10.133   0.723  10.004
41214SOL     OW25538   6.737   9.336   8.425
41214SOL    HW125539   6.752   9.242   8.421
41214SOL    HW225540   6.763   9.368   8.339
41215SOL     OW25541  10.667  13.622   4.289
41215SOL    HW125542  10.742  13.597   4.343
41215SOL    HW225543  10.592  13.621   4.348
41216SOL     OW25544   3.461   0.175   1.416
41216SOL    HW125545   3.540   0.163   1.364
41216SOL    HW225546   3.399   0.218   1.357
41217SOL     OW25547   4.216  10.991   3.924
41217SOL    HW125548   4.303  11.012   3.891
41217SOL    HW225549   4.223  11.002   4.019
41218SOL     OW25550   5.730  10.648  11.844
41218SOL    HW125551   5.661  10.583  11.859
41218SOL    HW225552   5.784  10.645  11.923
41219SOL     OW25553  12.541  11.919   4.678
41219SOL    HW125554  12.474  11.907   4.610
41219SOL    HW225555  12.583  11.833   4.686
41220SOL     OW25556   4.728  13.366  14.016
41220SOL    HW125557   4.678  13.401  14.090
41220SOL    HW225558   4.806  13.421  14.011
41221SOL     OW25559  13.108   1.086  14.103
41221SOL    HW125560  13.175   1.065  14.039
41221SOL    HW225561  13.124   1.178  14.125
41222SOL     OW25562   0.509   1.125  11.908
41222SOL    HW125563   0.497   1.054  11.972
41222SOL    HW225564   0.594   1.107  11.868
41223SOL     OW25565   7.398   4.890   3.627
41223SOL    HW125566   7.483   4.931   3.643
41223SOL    HW225567   7.340   4.962   3.603
41224SOL     OW25568   4.832  13.849  11.498
41224SOL    HW125569   4.803  13.873  11.410
41224SOL    HW225570   4.871  13.763  11.487
41225SOL     OW25571  14.002  14.223   4.637
41225SOL    HW125572  13.996  14.129   4.650
41225SOL    HW225573  14.055  14.233   4.558
41226SOL     OW25574   4.380   4.748   3.796
41226SOL    HW125575   4.461   4.789   3.825
41226SOL    HW225576   4.340   4.713   3.875
41227SOL     OW25577  12.834   4.413   2.681
41227SOL    HW125578  12.842   4.396   2.775
41227SOL    HW225579  12.909   4.469   2.660
41228SOL     OW25580  10.844   1.515   8.583
41228SOL    HW125581  10.925   1.554   8.549
41228SOL    HW225582  10.775   1.576   8.556
41229SOL     OW25583   5.471  13.908  11.822
41229SOL    HW125584   5.448  13.820  11.852
41229SOL    HW225585   5.561  13.921  11.854
41230SOL     OW25586  13.143  14.325   8.573
41230SOL    HW125587  13.092  14.405   8.559
41230SOL    HW225588  13.231  14.348   8.544
41231SOL     OW25589  11.049   7.845   0.494
41231SOL    HW125590  11.041   7.809   0.582
41231SOL    HW225591  11.031   7.938   0.504
41232SOL     OW25592   2.577   7.302   4.126
41232SOL    HW125593   2.516   7.228   4.127
41232SOL    HW225594   2.663   7.261   4.116
41233SOL     OW25595  11.667   6.019   0.790
41233SOL    HW125596  11.581   6.059   0.779
41233SOL    HW225597  11.715   6.080   0.845
41234SOL     OW25598   0.097   2.847   7.751
41234SOL    HW125599   0.046   2.913   7.798
41234SOL    HW225600   0.152   2.806   7.818
41235SOL     OW25601  14.240   6.492   6.597
41235SOL    HW125602  14.187   6.493   6.518
41235SOL    HW225603  14.194   6.432   6.656
41236SOL     OW25604  13.664   9.615   8.153
41236SOL    HW125605  13.733   9.610   8.218
41236SOL    HW225606  13.594   9.559   8.187
41237SOL     OW25607  11.793  13.766  11.388
41237SOL    HW125608  11.773  13.721  11.306
41237SOL    HW225609  11.763  13.706  11.456
41238SOL     OW25610  13.864   4.862   7.377
41238SOL    HW125611  13.876   4.927   7.308
41238SOL    HW225612  13.842   4.914   7.455
41239SOL     OW25613  10.682   9.956   6.457
41239SOL    HW125614  10.635   9.905   6.391
41239SOL    HW225615  10.761   9.905   6.476
41240SOL     OW25616  13.208   4.140  10.592
41240SOL    HW125617  13.291   4.103  10.561
41240SOL    HW225618  13.187   4.208  10.528
41241SOL     OW25619   3.884  14.666  11.627
41241SOL    HW125620   3.808  14.676  11.569
41241SOL    HW225621   3.869  14.729  11.697
41242SOL     OW25622   8.503  11.969   4.596
41242SOL    HW125623   8.424  12.019   4.614
41242SOL    HW225624   8.572  12.035   4.588
41243SOL     OW25625  12.188   4.177  11.062
41243SOL    HW125626  12.268   4.204  11.016
41243SOL    HW225627  12.206   4.088  11.090
41244SOL     OW25628   2.811  14.688  13.941
41244SOL    HW125629   2.840  14.731  13.860
41244SOL    HW225630   2.719  14.716  13.949
41245SOL     OW25631   8.463   0.987  12.239
41245SOL    HW125632   8.418   1.038  12.306
41245SOL    HW225633   8.405   0.991  12.163
41246SOL     OW25634   6.996  10.739  14.573
41246SOL    HW125635   6.982  10.745  14.478
41246SOL    HW225636   7.062  10.807  14.592
41247SOL     OW25637   4.263  10.955   4.436
41247SOL    HW125638   4.284  10.863   4.455
41247SOL    HW225639   4.309  10.974   4.355
41248SOL     OW25640   3.827   9.426  13.603
41248SOL    HW125641   3.841   9.512  13.563
41248SOL    HW225642   3.732   9.420  13.613
41249SOL     OW25643   9.228   5.891   0.292
41249SOL    HW125644   9.252   5.854   0.377
41249SOL    HW225645   9.311   5.906   0.248
41250SOL     OW25646   4.037   7.073   6.203
41250SOL    HW125647   3.965   7.096   6.261
41250SOL    HW225648   4.087   7.155   6.195
41251SOL     OW25649   4.926  11.082   2.055
41251SOL    HW125650   4.991  11.137   2.011
41251SOL    HW225651   4.882  11.141   2.117
41252SOL     OW25652  14.116   1.118  12.363
41252SOL    HW125653  14.170   1.067  12.423
41252SOL    HW225654  14.159   1.108  12.278
41253SOL     OW25655  12.866  10.758   0.778
41253SOL    HW125656  12.787  10.811   0.786
41253SOL    HW225657  12.868  10.732   0.686
41254SOL     OW25658   5.173   8.900   8.244
41254SOL    HW125659   5.234   8.922   8.314
41254SOL    HW225660   5.203   8.952   8.169
41255SOL     OW25661   8.806   1.523  11.876
41255SOL    HW125662   8.812   1.536  11.781
41255SOL    HW225663   8.748   1.448  11.887
41256SOL     OW25664  14.841  12.136   0.625
41256SOL    HW125665   0.013  12.223   0.630
41256SOL    HW225666  14.775  12.144   0.556
41257SOL     OW25667   3.213  14.468   5.604
41257SOL    HW125668   3.195  14.549   5.652
41257SOL    HW225669   3.135  14.455   5.549
41258SOL     OW25670   0.189   3.019   4.678
41258SOL    HW125671   0.110   2.971   4.651
41258SOL    HW225672   0.170   3.110   4.656
41259SOL     OW25673   5.247  10.413   6.025
41259SOL    HW125674   5.225  10.338   5.971
41259SOL    HW225675   5.332  10.392   6.063
41260SOL     OW25676   8.646  11.217  12.699
41260SOL    HW125677   8.703  11.146  12.669
41260SOL    HW225678   8.612  11.256  12.619
41261SOL     OW25679   4.905  14.054  14.273
41261SOL    HW125680   4.916  14.131  14.217
41261SOL    HW225681   4.970  14.064  14.342
41262SOL     OW25682   4.938   0.966   3.983
41262SOL    HW125683   4.907   0.909   3.913
41262SOL    HW225684   4.883   0.945   4.058
41263SOL     OW25685  10.531   4.539   1.637
41263SOL    HW125686  10.474   4.592   1.693
41263SOL    HW225687  10.572   4.477   1.696
41264SOL     OW25688   5.558   1.962  13.681
41264SOL    HW125689   5.503   1.926  13.612
41264SOL    HW225690   5.496   1.985  13.751
41265SOL     OW25691   2.998   4.833   3.372
41265SOL    HW125692   2.951   4.915   3.389
41265SOL    HW225693   3.055   4.854   3.298
41266SOL     OW25694   9.570  11.320   6.937
41266SOL    HW125695   9.631  11.389   6.911
41266SOL    HW225696   9.580  11.252   6.871
41267SOL     OW25697   3.316  12.588   6.501
41267SOL    HW125698   3.348  12.674   6.527
41267SOL    HW225699   3.394  12.541   6.472
41268SOL     OW25700  10.144  10.119   9.020
41268SOL    HW125701  10.062  10.167   9.005
41268SOL    HW225702  10.175  10.149   9.105
41269SOL     OW25703  12.877   2.820   3.510
41269SOL    HW125704  12.804   2.871   3.474
41269SOL    HW225705  12.857   2.813   3.603
41270SOL     OW25706   7.058   4.046   2.712
41270SOL    HW125707   7.148   4.054   2.743
41270SOL    HW225708   7.057   3.965   2.661
41271SOL     OW25709  11.699  10.357   3.278
41271SOL    HW125710  11.782  10.403   3.263
41271SOL    HW225711  11.676  10.379   3.368
41272SOL     OW25712   3.206  13.819   7.415
41272SOL    HW125713   3.195  13.876   7.490
41272SOL    HW225714   3.156  13.861   7.345
41273SOL     OW25715   1.456   3.493  11.343
41273SOL    HW125716   1.424   3.438  11.272
41273SOL    HW225717   1.468   3.432  11.416
41274SOL     OW25718   6.648   3.643  14.664
41274SOL    HW125719   6.555   3.625  14.677
41274SOL    HW225720   6.652   3.738  14.649
41275SOL     OW25721   7.186  13.830  14.383
41275SOL    HW125722   7.202  13.761  14.319
41275SOL    HW225723   7.268  13.835  14.433
41276SOL     OW25724  12.211   8.145   1.876
41276SOL    HW125725  12.126   8.105   1.891
41276SOL    HW225726  12.234   8.187   1.959
41277SOL     OW25727  14.171  14.762   2.766
41277SOL    HW125728  14.080  14.732   2.775
41277SOL    HW225729  14.164  14.842   2.715
41278SOL     OW25730   1.359   0.113   0.130
41278SOL    HW125731   1.372   0.023   0.099
41278SOL    HW225732   1.333   0.103   0.222
41279SOL     OW25733   5.963   0.254   5.252
41279SOL    HW125734   5.990   0.323   5.192
41279SOL    HW225735   5.869   0.247   5.241
41280SOL     OW25736  14.596  13.684  12.872
41280SOL    HW125737  14.606  13.705  12.779
41280SOL    HW225738  14.573  13.591  12.873
41281SOL     OW25739  10.143   7.205   1.776
41281SOL    HW125740  10.156   7.118   1.736
41281SOL    HW225741  10.201   7.263   1.726
41282SOL     OW25742   4.111   1.277   8.233
41282SOL    HW125743   4.100   1.251   8.141
41282SOL    HW225744   4.043   1.343   8.247
41283SOL     OW25745   1.420   9.222  10.573
41283SOL    HW125746   1.423   9.217  10.668
41283SOL    HW225747   1.506   9.258  10.549
41284SOL     OW25748   9.500   2.554   5.105
41284SOL    HW125749   9.426   2.493   5.108
41284SOL    HW225750   9.577   2.498   5.108
41285SOL     OW25751  10.941   8.515   8.874
41285SOL    HW125752  10.967   8.506   8.782
41285SOL    HW225753  10.867   8.455   8.883
41286SOL     OW25754   8.219   7.002  10.090
41286SOL    HW125755   8.211   6.961  10.176
41286SOL    HW225756   8.198   7.094  10.105
41287SOL     OW25757   3.056   2.122   6.258
41287SOL    HW125758   3.076   2.074   6.338
41287SOL    HW225759   2.983   2.179   6.283
41288SOL     OW25760  10.596   6.829   4.968
41288SOL    HW125761  10.673   6.780   4.995
41288SOL    HW225762  10.540   6.832   5.045
41289SOL     OW25763  14.560   5.853   2.381
41289SOL    HW125764  14.525   5.790   2.443
41289SOL    HW225765  14.499   5.926   2.384
41290SOL     OW25766   5.859   7.781   1.037
41290SOL    HW125767   5.928   7.832   1.079
41290SOL    HW225768   5.780   7.835   1.047
41291SOL     OW25769  12.942  12.958  10.327
41291SOL    HW125770  13.026  12.913  10.333
41291SOL    HW225771  12.963  13.043  10.289
41292SOL     OW25772   3.335   6.694   9.373
41292SOL    HW125773   3.412   6.666   9.423
41292SOL    HW225774   3.362   6.688   9.282
41293SOL     OW25775   7.899   0.092   7.889
41293SOL    HW125776   7.855   0.008   7.902
41293SOL    HW225777   7.873   0.144   7.964
41294SOL     OW25778   9.249  11.346   5.372
41294SOL    HW125779   9.328  11.375   5.327
41294SOL    HW225780   9.248  11.251   5.360
41295SOL     OW25781  14.320  11.651   6.290
41295SOL    HW125782  14.291  11.621   6.204
41295SOL    HW225783  14.389  11.715   6.272
41296SOL     OW25784   0.592   7.590   2.705
41296SOL    HW125785   0.521   7.530   2.728
41296SOL    HW225786   0.561   7.676   2.732
41297SOL     OW25787  12.808  13.262   7.517
41297SOL    HW125788  12.796  13.322   7.443
41297SOL    HW225789  12.742  13.289   7.581
41298SOL     OW25790  13.685   6.248   4.958
41298SOL    HW125791  13.633   6.193   4.899
41298SOL    HW225792  13.631   6.326   4.970
41299SOL     OW25793   9.556  10.831   5.613
41299SOL    HW125794   9.508  10.865   5.689
41299SOL    HW225795   9.616  10.901   5.589
41300SOL     OW25796  10.851   0.674   4.281
41300SOL    HW125797  10.927   0.704   4.330
41300SOL    HW225798  10.783   0.661   4.347
41301SOL     OW25799   3.759  14.459   6.301
41301SOL    HW125800   3.838  14.408   6.280
41301SOL    HW225801   3.690  14.394   6.310
41302SOL     OW25802  10.618   5.908   5.440
41302SOL    HW125803  10.604   5.837   5.376
41302SOL    HW225804  10.570   5.982   5.404
41303SOL     OW25805  10.802   5.126  11.959
41303SOL    HW125806  10.829   5.184  12.030
41303SOL    HW225807  10.883   5.102  11.915
41304SOL     OW25808   3.648   3.925   6.659
41304SOL    HW125809   3.596   3.982   6.717
41304SOL    HW225810   3.604   3.840   6.664
41305SOL     OW25811   4.024   3.662  13.676
41305SOL    HW125812   4.095   3.602  13.699
41305SOL    HW225813   4.024   3.662  13.580
41306SOL     OW25814   6.620  10.626  11.878
41306SOL    HW125815   6.543  10.612  11.824
41306SOL    HW225816   6.693  10.627  11.816
41307SOL     OW25817   6.112   8.739   4.038
41307SOL    HW125818   6.153   8.697   4.113
41307SOL    HW225819   6.181   8.792   3.999
41308SOL     OW25820   2.095   1.608   5.092
41308SOL    HW125821   2.083   1.646   5.005
41308SOL    HW225822   2.074   1.679   5.153
41309SOL     OW25823  14.758   8.466   7.666
41309SOL    HW125824  14.693   8.496   7.603
41309SOL    HW225825  14.841   8.498   7.631
41310SOL     OW25826  13.515   7.141  10.167
41310SOL    HW125827  13.578   7.187  10.113
41310SOL    HW225828  13.440   7.200  10.173
41311SOL     OW25829  10.655  10.865   5.908
41311SOL    HW125830  10.603  10.930   5.861
41311SOL    HW225831  10.603  10.844   5.986
41312SOL     OW25832  11.188   0.322   7.513
41312SOL    HW125833  11.111   0.336   7.457
41312SOL    HW225834  11.199   0.226   7.514
41313SOL     OW25835  10.365   6.746   4.246
41313SOL    HW125836  10.338   6.828   4.287
41313SOL    HW225837  10.423   6.773   4.174
41314SOL     OW25838   9.372   7.845  10.242
41314SOL    HW125839   9.417   7.813  10.320
41314SOL    HW225840   9.436   7.833  10.171
41315SOL     OW25841  11.506   9.619   2.375
41315SOL    HW125842  11.473   9.682   2.439
41315SOL    HW225843  11.596   9.601   2.404
41316SOL     OW25844  12.674   3.111  13.098
41316SOL    HW125845  12.592   3.155  13.076
41316SOL    HW225846  12.706   3.076  13.014
41317SOL     OW25847  12.694   7.989   0.991
41317SOL    HW125848  12.787   7.983   1.011
41317SOL    HW225849  12.690   7.991   0.895
41318SOL     OW25850  12.440   4.578   5.040
41318SOL    HW125851  12.446   4.564   5.135
41318SOL    HW225852  12.364   4.526   5.013
41319SOL     OW25853   1.286   0.404   4.551
41319SOL    HW125854   1.246   0.413   4.637
41319SOL    HW225855   1.379   0.419   4.566
41320SOL     OW25856   2.923   0.478  14.350
41320SOL    HW125857   2.973   0.459  14.429
41320SOL    HW225858   2.836   0.443  14.367
41321SOL     OW25859  13.206   1.413   2.987
41321SOL    HW125860  13.138   1.475   2.962
41321SOL    HW225861  13.210   1.419   3.082
41322SOL     OW25862   4.725   4.268   8.048
41322SOL    HW125863   4.633   4.245   8.046
41322SOL    HW225864   4.729   4.346   8.104
41323SOL     OW25865  13.533   8.016   8.331
41323SOL    HW125866  13.500   7.953   8.267
41323SOL    HW225867  13.615   7.977   8.363
41324SOL     OW25868   5.741   7.877  11.129
41324SOL    HW125869   5.649   7.866  11.152
41324SOL    HW225870   5.747   7.851  11.037
41325SOL     OW25871   8.530   4.226  11.445
41325SOL    HW125872   8.577   4.208  11.527
41325SOL    HW225873   8.470   4.152  11.435
41326SOL     OW25874   9.113   1.008  13.155
41326SOL    HW125875   9.082   1.059  13.230
41326SOL    HW225876   9.047   0.941  13.142
41327SOL     OW25877   2.532   5.449   8.864
41327SOL    HW125878   2.501   5.385   8.800
41327SOL    HW225879   2.619   5.417   8.889
41328SOL     OW25880   1.931   1.317   2.083
41328SOL    HW125881   2.016   1.360   2.071
41328SOL    HW225882   1.868   1.389   2.088
41329SOL     OW25883   1.764   8.414   6.892
41329SOL    HW125884   1.756   8.329   6.935
41329SOL    HW225885   1.808   8.470   6.957
41330SOL     OW25886   8.806   3.328   5.336
41330SOL    HW125887   8.759   3.273   5.399
41330SOL    HW225888   8.887   3.352   5.382
41331SOL     OW25889   2.943   1.440   4.271
41331SOL    HW125890   2.922   1.348   4.252
41331SOL    HW225891   3.036   1.440   4.292
41332SOL     OW25892  13.246   2.652  13.009
41332SOL    HW125893  13.303   2.611  12.945
41332SOL    HW225894  13.190   2.712  12.959
41333SOL     OW25895  13.086  13.156   1.079
41333SOL    HW125896  13.150  13.088   1.098
41333SOL    HW225897  13.029  13.157   1.156
41334SOL     OW25898  11.445  12.822  10.136
41334SOL    HW125899  11.418  12.797  10.047
41334SOL    HW225900  11.377  12.786  10.192
41335SOL     OW25901   5.094   9.934   7.015
41335SOL    HW125902   5.151   9.883   7.073
41335SOL    HW225903   5.082  10.018   7.059
41336SOL     OW25904   1.626   2.350   5.857
41336SOL    HW125905   1.657   2.368   5.768
41336SOL    HW225906   1.704   2.317   5.903
41337SOL     OW25907  11.587   1.792   9.006
41337SOL    HW125908  11.520   1.725   9.017
41337SOL    HW225909  11.668   1.749   9.031
41338SOL     OW25910   0.790   0.024   9.543
41338SOL    HW125911   0.746   0.108   9.558
41338SOL    HW225912   0.878   0.048   9.515
41339SOL     OW25913  12.032   5.841   6.503
41339SOL    HW125914  12.059   5.855   6.594
41339SOL    HW225915  11.965   5.907   6.487
41340SOL     OW25916   8.326  11.229   9.056
41340SOL    HW125917   8.299  11.140   9.077
41340SOL    HW225918   8.286  11.247   8.971
41341SOL     OW25919  12.482  13.759   5.479
41341SOL    HW125920  12.395  13.731   5.508
41341SOL    HW225921  12.468  13.793   5.390
41342SOL     OW25922  11.352  11.279   9.497
41342SOL    HW125923  11.358  11.374   9.513
41342SOL    HW225924  11.304  11.272   9.414
41343SOL     OW25925  14.098   2.528   7.318
41343SOL    HW125926  14.034   2.574   7.263
41343SOL    HW225927  14.070   2.437   7.316
41344SOL     OW25928  13.096  10.031   4.396
41344SOL    HW125929  13.004  10.007   4.394
41344SOL    HW225930  13.131  10.001   4.312
41345SOL     OW25931  13.756   0.001   5.858
41345SOL    HW125932  13.798  14.785   5.875
41345SOL    HW225933  13.688  14.849   5.793
41346SOL     OW25934  14.759   6.848   3.422
41346SOL    HW125935  14.814   6.771   3.438
41346SOL    HW225936  14.822   6.919   3.409
41347SOL     OW25937  14.034  12.714   2.333
41347SOL    HW125938  13.949  12.673   2.343
41347SOL    HW225939  14.038  12.739   2.240
41348SOL     OW25940   5.060  14.360  14.765
41348SOL    HW125941   5.095  14.364  14.676
41348SOL    HW225942   5.120  14.304  14.813
41349SOL     OW25943  10.027   3.133  13.485
41349SOL    HW125944   9.959   3.116  13.550
41349SOL    HW225945   9.979   3.150  13.404
41350SOL     OW25946  11.954  10.279   8.472
41350SOL    HW125947  12.039  10.283   8.516
41350SOL    HW225948  11.902  10.219   8.526
41351SOL     OW25949   5.076   6.962   8.517
41351SOL    HW125950   5.142   6.975   8.586
41351SOL    HW225951   5.124   6.924   8.444
41352SOL     OW25952   9.193   0.982   6.953
41352SOL    HW125953   9.277   0.969   6.908
41352SOL    HW225954   9.212   0.965   7.045
41353SOL     OW25955   5.580   3.741   4.440
41353SOL    HW125956   5.656   3.719   4.495
41353SOL    HW225957   5.560   3.660   4.394
41354SOL     OW25958  14.451   6.002  14.703
41354SOL    HW125959  14.534   6.031  14.666
41354SOL    HW225960  14.475   5.936  14.769
41355SOL     OW25961  13.451  13.216  12.814
41355SOL    HW125962  13.400  13.274  12.756
41355SOL    HW225963  13.439  13.129  12.777
41356SOL     OW25964   9.076   4.928   9.822
41356SOL    HW125965   9.011   4.872   9.866
41356SOL    HW225966   9.137   4.867   9.781
41357SOL     OW25967   6.878   4.038  14.610
41357SOL    HW125968   6.798   3.990  14.589
41357SOL    HW225969   6.949   3.984  14.574
41358SOL     OW25970  13.439  11.097  11.111
41358SOL    HW125971  13.398  11.016  11.145
41358SOL    HW225972  13.392  11.115  11.030
41359SOL     OW25973   2.285   6.496   6.517
41359SOL    HW125974   2.321   6.487   6.429
41359SOL    HW225975   2.248   6.585   6.519
41360SOL     OW25976  10.621   5.295   0.216
41360SOL    HW125977  10.639   5.375   0.265
41360SOL    HW225978  10.560   5.321   0.148
41361SOL     OW25979  10.462   8.592   3.923
41361SOL    HW125980  10.520   8.521   3.950
41361SOL    HW225981  10.374   8.555   3.930
41362SOL     OW25982  13.186  13.030  13.282
41362SOL    HW125983  13.251  13.051  13.349
41362SOL    HW225984  13.112  12.994  13.331
41363SOL     OW25985   3.434   4.713   4.208
41363SOL    HW125986   3.407   4.737   4.297
41363SOL    HW225987   3.503   4.649   4.220
41364SOL     OW25988   3.464   9.650   5.716
41364SOL    HW125989   3.529   9.668   5.649
41364SOL    HW225990   3.385   9.695   5.686
41365SOL     OW25991   3.659  11.703   6.495
41365SOL    HW125992   3.583  11.653   6.525
41365SOL    HW225993   3.725  11.637   6.476
41366SOL     OW25994   2.147   5.226   5.690
41366SOL    HW125995   2.064   5.256   5.726
41366SOL    HW225996   2.195   5.306   5.670
41367SOL     OW25997  12.207   4.961  12.043
41367SOL    HW125998  12.136   4.952  11.980
41367SOL    HW225999  12.164   4.960  12.128
41368SOL     OW26000   6.197  14.184  14.531
41368SOL    HW126001   6.209  14.190  14.436
41368SOL    HW226002   6.275  14.138  14.562
41369SOL     OW26003   3.269   2.583  11.330
41369SOL    HW126004   3.288   2.556  11.240
41369SOL    HW226005   3.355   2.584  11.373
41370SOL     OW26006   6.389   2.941  14.534
41370SOL    HW126007   6.371   2.994  14.612
41370SOL    HW226008   6.337   2.982  14.465
41371SOL     OW26009   3.037  13.538  11.781
41371SOL    HW126010   2.997  13.464  11.735
41371SOL    HW226011   3.110  13.500  11.829
41372SOL     OW26012   6.686   1.613  12.868
41372SOL    HW126013   6.734   1.593  12.788
41372SOL    HW226014   6.594   1.598  12.846
41373SOL     OW26015   1.587  12.211   2.479
41373SOL    HW126016   1.505  12.175   2.445
41373SOL    HW226017   1.559  12.277   2.543
41374SOL     OW26018   0.623  11.420   0.468
41374SOL    HW126019   0.621  11.450   0.378
41374SOL    HW226020   0.566  11.343   0.469
41375SOL     OW26021   9.093   4.362   7.214
41375SOL    HW126022   9.001   4.336   7.201
41375SOL    HW226023   9.115   4.328   7.300
41376SOL     OW26024   5.616  10.986   5.356
41376SOL    HW126025   5.628  10.947   5.442
41376SOL    HW226026   5.570  10.919   5.305
41377SOL     OW26027   3.605   5.380  11.978
41377SOL    HW126028   3.678   5.323  12.003
41377SOL    HW226029   3.644   5.468  11.976
41378SOL     OW26030   4.256   4.144  12.678
41378SOL    HW126031   4.177   4.153  12.732
41378SOL    HW226032   4.306   4.074  12.720
41379SOL     OW26033   7.585   1.401   2.975
41379SOL    HW126034   7.559   1.315   3.009
41379SOL    HW226035   7.554   1.463   3.040
41380SOL     OW26036  14.234   8.723  12.524
41380SOL    HW126037  14.241   8.803  12.471
41380SOL    HW226038  14.188   8.751  12.604
41381SOL     OW26039   9.916   6.459   9.855
41381SOL    HW126040   9.856   6.410   9.799
41381SOL    HW226041  10.001   6.415   9.844
41382SOL     OW26042  12.784   1.464   5.455
41382SOL    HW126043  12.744   1.537   5.408
41382SOL    HW226044  12.730   1.453   5.533
41383SOL     OW26045   1.047   5.851   6.744
41383SOL    HW126046   1.006   5.857   6.658
41383SOL    HW226047   1.141   5.856   6.726
41384SOL     OW26048   1.435   2.116   9.262
41384SOL    HW126049   1.374   2.053   9.300
41384SOL    HW226050   1.449   2.180   9.332
41385SOL     OW26051   4.250   9.305  10.072
41385SOL    HW126052   4.212   9.243  10.010
41385SOL    HW226053   4.175   9.357  10.102
41386SOL     OW26054   2.740   1.896  14.854
41386SOL    HW126055   2.801   1.969  14.848
41386SOL    HW226056   2.744   1.854  14.768
41387SOL     OW26057   1.189   9.220   3.501
41387SOL    HW126058   1.116   9.280   3.520
41387SOL    HW226059   1.185   9.207   3.407
41388SOL     OW26060  13.828  12.323   5.099
41388SOL    HW126061  13.748  12.271   5.104
41388SOL    HW226062  13.899  12.260   5.117
41389SOL     OW26063   8.491   0.045  14.439
41389SOL    HW126064   8.580   0.021  14.416
41389SOL    HW226065   8.439  14.835  14.419
41390SOL     OW26066   3.708   8.526   6.474
41390SOL    HW126067   3.634   8.528   6.413
41390SOL    HW226068   3.768   8.462   6.436
41391SOL     OW26069   9.427  14.690   7.966
41391SOL    HW126070   9.522  14.685   7.964
41391SOL    HW226071   9.408  14.783   7.980
41392SOL     OW26072  11.959   1.953  13.329
41392SOL    HW126073  12.050   1.969  13.306
41392SOL    HW226074  11.909   2.006  13.267
41393SOL     OW26075   2.936  10.873  12.852
41393SOL    HW126076   2.947  10.949  12.794
41393SOL    HW226077   2.895  10.807  12.796
41394SOL     OW26078  11.344   4.034  12.414
41394SOL    HW126079  11.309   4.018  12.326
41394SOL    HW226080  11.376   4.125  12.410
41395SOL     OW26081   4.442  14.440   8.396
41395SOL    HW126082   4.475  14.361   8.353
41395SOL    HW226083   4.422  14.499   8.325
41396SOL     OW26084   8.438  11.252   0.786
41396SOL    HW126085   8.362  11.298   0.749
41396SOL    HW226086   8.424  11.160   0.763
41397SOL     OW26087   9.979   6.602   5.487
41397SOL    HW126088  10.070   6.631   5.500
41397SOL    HW226089   9.970   6.596   5.392
41398SOL     OW26090   7.063   1.206   3.848
41398SOL    HW126091   7.036   1.249   3.929
41398SOL    HW226092   7.041   1.269   3.779
41399SOL     OW26093   2.972   0.438  13.274
41399SOL    HW126094   2.917   0.478  13.341
41399SOL    HW226095   2.921   0.448  13.193
41400SOL     OW26096  10.482   4.518   9.052
41400SOL    HW126097  10.533   4.599   9.059
41400SOL    HW226098  10.484   4.496   8.959
41401SOL     OW26099  10.212   4.306   2.025
41401SOL    HW126100  10.170   4.318   1.941
41401SOL    HW226101  10.289   4.363   2.023
41402SOL     OW26102   3.848   3.708   1.228
41402SOL    HW126103   3.914   3.642   1.206
41402SOL    HW226104   3.895   3.772   1.282
41403SOL     OW26105  12.366   5.110   9.424
41403SOL    HW126106  12.387   5.071   9.509
41403SOL    HW226107  12.395   5.046   9.360
41404SOL     OW26108   3.329  13.727  10.689
41404SOL    HW126109   3.385  13.728  10.767
41404SOL    HW226110   3.241  13.745  10.722
41405SOL     OW26111   1.957  11.965   0.292
41405SOL    HW126112   1.990  11.887   0.337
41405SOL    HW226113   1.941  11.936   0.202
41406SOL     OW26114  12.847  13.575  11.374
41406SOL    HW126115  12.760  13.549  11.343
41406SOL    HW226116  12.875  13.502  11.430
41407SOL     OW26117   6.949  11.724  14.695
41407SOL    HW126118   6.943  11.711  14.600
41407SOL    HW226119   7.035  11.689  14.718
41408SOL     OW26120   5.574   1.593   7.181
41408SOL    HW126121   5.588   1.503   7.210
41408SOL    HW226122   5.489   1.618   7.219
41409SOL     OW26123  10.229  10.448   6.632
41409SOL    HW126124  10.266  10.530   6.600
41409SOL    HW226125  10.283  10.379   6.593
41410SOL     OW26126   1.245   1.898  12.289
41410SOL    HW126127   1.165   1.881  12.338
41410SOL    HW226128   1.218   1.895  12.197
41411SOL     OW26129  11.943   1.897   2.484
41411SOL    HW126130  12.034   1.899   2.512
41411SOL    HW226131  11.916   1.806   2.496
41412SOL     OW26132  13.186   5.120   8.239
41412SOL    HW126133  13.177   5.161   8.325
41412SOL    HW226134  13.186   5.026   8.257
41413SOL     OW26135   7.413  11.604   3.522
41413SOL    HW126136   7.440  11.683   3.570
41413SOL    HW226137   7.364  11.553   3.587
41414SOL     OW26138  13.637   8.583   5.189
41414SOL    HW126139  13.660   8.597   5.281
41414SOL    HW226140  13.575   8.510   5.192
41415SOL     OW26141  13.705  11.738   5.734
41415SOL    HW126142  13.717  11.832   5.749
41415SOL    HW226143  13.644  11.710   5.803
41416SOL     OW26144   9.382   2.964   2.821
41416SOL    HW126145   9.340   2.902   2.880
41416SOL    HW226146   9.391   3.045   2.873
41417SOL     OW26147  13.659   2.555   6.079
41417SOL    HW126148  13.701   2.483   6.032
41417SOL    HW226149  13.702   2.557   6.164
41418SOL     OW26150   2.170   2.406   9.296
41418SOL    HW126151   2.088   2.379   9.255
41418SOL    HW226152   2.177   2.350   9.373
41419SOL     OW26153   2.366   3.366  10.476
41419SOL    HW126154   2.458   3.346  10.495
41419SOL    HW226155   2.338   3.420  10.550
41420SOL     OW26156   6.249  12.576  10.224
41420SOL    HW126157   6.189  12.575  10.299
41420SOL    HW226158   6.280  12.666  10.218
41421SOL     OW26159   5.654   3.934   8.999
41421SOL    HW126160   5.595   3.891   8.938
41421SOL    HW226161   5.603   4.006   9.036
41422SOL     OW26162   6.759   5.069  11.477
41422SOL    HW126163   6.717   5.130  11.415
41422SOL    HW226164   6.713   4.986  11.463
41423SOL     OW26165   1.755   7.679   6.134
41423SOL    HW126166   1.812   7.608   6.105
41423SOL    HW226167   1.738   7.730   6.054
41424SOL     OW26168  14.228   6.633   7.231
41424SOL    HW126169  14.160   6.612   7.294
41424SOL    HW226170  14.289   6.559   7.235
41425SOL     OW26171   8.919  12.540  11.635
41425SOL    HW126172   8.834  12.578  11.614
41425SOL    HW226173   8.920  12.535  11.731
41426SOL     OW26174   5.742   8.123   8.557
41426SOL    HW126175   5.733   8.027   8.564
41426SOL    HW226176   5.825   8.137   8.513
41427SOL     OW26177   1.463  12.377   1.845
41427SOL    HW126178   1.464  12.293   1.799
41427SOL    HW226179   1.440  12.441   1.778
41428SOL     OW26180   2.622   3.075   2.679
41428SOL    HW126181   2.703   3.028   2.698
41428SOL    HW226182   2.568   3.062   2.756
41429SOL     OW26183   0.596  12.243   1.119
41429SOL    HW126184   0.642  12.296   1.184
41429SOL    HW226185   0.656  12.238   1.045
41430SOL     OW26186  12.986   2.784  12.087
41430SOL    HW126187  13.069   2.786  12.134
41430SOL    HW226188  12.942   2.865  12.112
41431SOL     OW26189   1.551   9.544   1.938
41431SOL    HW126190   1.476   9.489   1.915
41431SOL    HW226191   1.621   9.482   1.959
41432SOL     OW26192   9.604   1.516  10.151
41432SOL    HW126193   9.521   1.503  10.197
41432SOL    HW226194   9.663   1.554  10.216
41433SOL     OW26195   0.479  11.135   9.496
41433SOL    HW126196   0.416  11.175   9.555
41433SOL    HW226197   0.562  11.137   9.543
41434SOL     OW26198   4.351  12.274   8.468
41434SOL    HW126199   4.399  12.200   8.431
41434SOL    HW226200   4.398  12.294   8.550
41435SOL     OW26201   4.818   5.303   8.620
41435SOL    HW126202   4.775   5.346   8.546
41435SOL    HW226203   4.890   5.254   8.581
41436SOL     OW26204  13.935  13.991   4.188
41436SOL    HW126205  13.878  13.914   4.181
41436SOL    HW226206  14.004  13.964   4.249
41437SOL     OW26207   2.800   0.143   3.816
41437SOL    HW126208   2.793   0.120   3.909
41437SOL    HW226209   2.731   0.208   3.802
41438SOL     OW26210  12.657   7.017   4.440
41438SOL    HW126211  12.664   6.990   4.348
41438SOL    HW226212  12.624   6.940   4.485
41439SOL     OW26213   6.649   3.316  11.148
41439SOL    HW126214   6.637   3.290  11.239
41439SOL    HW226215   6.700   3.397  11.152
41440SOL     OW26216   9.246  10.859  10.764
41440SOL    HW126217   9.237  10.766  10.784
41440SOL    HW226218   9.167  10.880  10.713
41441SOL     OW26219   5.748   8.496  12.178
41441SOL    HW126220   5.758   8.466  12.268
41441SOL    HW226221   5.739   8.591  12.184
41442SOL     OW26222   4.711   0.789  11.320
41442SOL    HW126223   4.779   0.761  11.381
41442SOL    HW226224   4.630   0.789  11.372
41443SOL     OW26225   1.559  13.398   3.848
41443SOL    HW126226   1.575  13.404   3.753
41443SOL    HW226227   1.528  13.485   3.873
41444SOL     OW26228   9.320  10.176   5.222
41444SOL    HW126229   9.248  10.147   5.278
41444SOL    HW226230   9.378  10.100   5.216
41445SOL     OW26231   4.581   6.546   9.038
41445SOL    HW126232   4.513   6.549   8.971
41445SOL    HW226233   4.629   6.628   9.027
41446SOL     OW26234   4.997  14.325  13.202
41446SOL    HW126235   4.979  14.416  13.180
41446SOL    HW226236   4.921  14.297  13.252
41447SOL     OW26237  10.528   1.198   5.756
41447SOL    HW126238  10.460   1.146   5.800
41447SOL    HW226239  10.610   1.151   5.776
41448SOL     OW26240   3.113  11.774  10.282
41448SOL    HW126241   3.193  11.759  10.333
41448SOL    HW226242   3.122  11.863  10.249
41449SOL     OW26243   3.574   1.791   3.634
41449SOL    HW126244   3.538   1.702   3.631
41449SOL    HW226245   3.590   1.807   3.727
41450SOL     OW26246  10.417   0.816   7.916
41450SOL    HW126247  10.406   0.774   8.001
41450SOL    HW226248  10.466   0.897   7.935
41451SOL     OW26249  14.787  12.279   7.141
41451SOL    HW126250  14.732  12.236   7.075
41451SOL    HW226251   0.008  12.272   7.106
41452SOL     OW26252   7.851   6.607  12.391
41452SOL    HW126253   7.779   6.562  12.347
41452SOL    HW226254   7.929   6.558  12.365
41453SOL     OW26255   2.916   2.032  11.769
41453SOL    HW126256   3.003   2.023  11.808
41453SOL    HW226257   2.930   2.017  11.676
41454SOL     OW26258   0.200  12.648   2.629
41454SOL    HW126259   0.268  12.588   2.600
41454SOL    HW226260   0.121  12.618   2.585
41455SOL     OW26261   6.053   4.327   4.295
41455SOL    HW126262   6.049   4.249   4.240
41455SOL    HW226263   6.112   4.386   4.248
41456SOL     OW26264  11.473   7.896  12.697
41456SOL    HW126265  11.438   7.829  12.756
41456SOL    HW226266  11.400   7.957  12.684
41457SOL     OW26267   0.834  10.729   2.112
41457SOL    HW126268   0.862  10.801   2.057
41457SOL    HW226269   0.783  10.770   2.182
41458SOL     OW26270  11.750   3.358   8.340
41458SOL    HW126271  11.750   3.294   8.411
41458SOL    HW226272  11.680   3.329   8.282
41459SOL     OW26273   5.246   3.072   3.628
41459SOL    HW126274   5.179   3.132   3.595
41459SOL    HW226275   5.226   3.063   3.721
41460SOL     OW26276   3.433   7.988   8.846
41460SOL    HW126277   3.485   8.068   8.852
41460SOL    HW226278   3.406   7.983   8.754
41461SOL     OW26279  14.201  10.025  10.871
41461SOL    HW126280  14.171  10.087  10.937
41461SOL    HW226281  14.130   9.960  10.866
41462SOL     OW26282  13.430  14.842   3.646
41462SOL    HW126283  13.369  14.785   3.693
41462SOL    HW226284  13.395  14.848   3.557
41463SOL     OW26285   2.148  14.357  13.139
41463SOL    HW126286   2.146  14.350  13.235
41463SOL    HW226287   2.228  14.407  13.121
41464SOL     OW26288  14.800   1.215   2.652
41464SOL    HW126289  14.845   1.300   2.647
41464SOL    HW226290  14.756   1.206   2.568
41465SOL     OW26291  11.189   5.333   7.876
41465SOL    HW126292  11.254   5.403   7.878
41465SOL    HW226293  11.147   5.343   7.790
41466SOL     OW26294   9.660  14.417   1.865
41466SOL    HW126295   9.590  14.458   1.917
41466SOL    HW226296   9.643  14.323   1.872
41467SOL     OW26297   5.833  11.934  14.108
41467SOL    HW126298   5.903  11.900  14.053
41467SOL    HW226299   5.781  11.988  14.049
41468SOL     OW26300   9.431   7.782   4.318
41468SOL    HW126301   9.350   7.799   4.366
41468SOL    HW226302   9.498   7.773   4.386
41469SOL     OW26303   8.083   9.125   7.627
41469SOL    HW126304   8.126   9.074   7.557
41469SOL    HW226305   8.058   9.207   7.585
41470SOL     OW26306   7.857  11.668  12.584
41470SOL    HW126307   7.843  11.720  12.505
41470SOL    HW226308   7.936  11.704  12.623
41471SOL     OW26309   5.566   7.082   1.324
41471SOL    HW126310   5.582   6.991   1.298
41471SOL    HW226311   5.521   7.075   1.408
41472SOL     OW26312   2.845  11.808  12.835
41472SOL    HW126313   2.836  11.882  12.895
41472SOL    HW226314   2.755  11.777  12.822
41473SOL     OW26315   4.490   1.747  13.606
41473SOL    HW126316   4.549   1.718  13.536
41473SOL    HW226317   4.546   1.755  13.683
41474SOL     OW26318   9.452   8.045   7.040
41474SOL    HW126319   9.539   8.049   7.000
41474SOL    HW226320   9.420   7.958   7.019
41475SOL     OW26321   3.056   9.379   8.766
41475SOL    HW126322   3.112   9.305   8.787
41475SOL    HW226323   3.115   9.443   8.725
41476SOL     OW26324   3.891   3.821  10.363
41476SOL    HW126325   3.837   3.860  10.294
41476SOL    HW226326   3.880   3.879  10.438
41477SOL     OW26327  13.295   1.136  13.915
41477SOL    HW126328  13.378   1.168  13.950
41477SOL    HW226329  13.318   1.088  13.836
41478SOL     OW26330   0.817   5.847  12.653
41478SOL    HW126331   0.752   5.781  12.630
41478SOL    HW226332   0.893   5.797  12.683
41479SOL     OW26333   4.232  11.531   7.902
41479SOL    HW126334   4.325  11.521   7.880
41479SOL    HW226335   4.205  11.443   7.928
41480SOL     OW26336  10.957  13.088  11.929
41480SOL    HW126337  10.872  13.126  11.952
41480SOL    HW226338  10.992  13.057  12.013
41481SOL     OW26339  13.764   1.175  10.387
41481SOL    HW126340  13.809   1.245  10.340
41481SOL    HW226341  13.790   1.095  10.341
41482SOL     OW26342  10.205   0.562  12.958
41482SOL    HW126343  10.239   0.568  13.047
41482SOL    HW226344  10.114   0.534  12.969
41483SOL     OW26345  13.003   8.093   3.397
41483SOL    HW126346  13.017   8.033   3.324
41483SOL    HW226347  12.914   8.126   3.384
41484SOL     OW26348  11.407   2.549   3.194
41484SOL    HW126349  11.350   2.626   3.191
41484SOL    HW226350  11.425   2.530   3.102
41485SOL     OW26351  10.907   5.497  11.145
41485SOL    HW126352  10.863   5.436  11.085
41485SOL    HW226353  10.996   5.461  11.153
41486SOL     OW26354   2.352   3.408  11.232
41486SOL    HW126355   2.394   3.492  11.250
41486SOL    HW226356   2.295   3.393  11.307
41487SOL     OW26357  14.493   7.299   7.838
41487SOL    HW126358  14.508   7.393   7.835
41487SOL    HW226359  14.565   7.262   7.787
41488SOL     OW26360   0.056   6.646   3.464
41488SOL    HW126361   0.139   6.625   3.505
41488SOL    HW226362   0.034   6.568   3.413
41489SOL     OW26363   3.535   6.229   9.051
41489SOL    HW126364   3.464   6.175   9.016
41489SOL    HW226365   3.560   6.285   8.977
41490SOL     OW26366   5.749  13.907  11.691
41490SOL    HW126367   5.772  13.946  11.775
41490SOL    HW226368   5.706  13.978  11.643
41491SOL     OW26369   4.669  10.478   9.941
41491SOL    HW126370   4.696  10.565   9.911
41491SOL    HW226371   4.614  10.496  10.018
41492SOL     OW26372   4.963   1.254   2.278
41492SOL    HW126373   4.973   1.206   2.360
41492SOL    HW226374   5.008   1.200   2.212
41493SOL     OW26375   4.801   5.042   1.123
41493SOL    HW126376   4.876   5.084   1.081
41493SOL    HW226377   4.796   5.084   1.210
41494SOL     OW26378   6.496   1.195   0.441
41494SOL    HW126379   6.548   1.245   0.504
41494SOL    HW226380   6.485   1.109   0.481
41495SOL     OW26381   0.211   2.209   8.572
41495SOL    HW126382   0.199   2.197   8.667
41495SOL    HW226383   0.296   2.250   8.563
41496SOL     OW26384  12.129  14.293   2.370
41496SOL    HW126385  12.055  14.251   2.415
41496SOL    HW226386  12.113  14.387   2.381
41497SOL     OW26387   6.823  10.779  11.048
41497SOL    HW126388   6.792  10.777  10.958
41497SOL    HW226389   6.758  10.728  11.097
41498SOL     OW26390   6.910  10.588  12.414
41498SOL    HW126391   6.983  10.608  12.356
41498SOL    HW226392   6.927  10.640  12.493
41499SOL     OW26393   1.479   7.340   9.939
41499SOL    HW126394   1.519   7.306  10.019
41499SOL    HW226395   1.524   7.422   9.922
41500SOL     OW26396   2.772  11.674   2.154
41500SOL    HW126397   2.781  11.635   2.241
41500SOL    HW226398   2.699  11.735   2.163
41501SOL     OW26399   6.010   8.144  12.713
41501SOL    HW126400   5.923   8.104  12.710
41501SOL    HW226401   5.993   8.238  12.715
41502SOL     OW26402   7.814   9.569   5.257
41502SOL    HW126403   7.778   9.573   5.345
41502SOL    HW226404   7.870   9.491   5.257
41503SOL     OW26405   4.022   9.782   2.556
41503SOL    HW126406   4.028   9.687   2.564
41503SOL    HW226407   4.058   9.815   2.639
41504SOL     OW26408   4.915   8.416   0.923
41504SOL    HW126409   4.871   8.369   0.994
41504SOL    HW226410   4.982   8.468   0.967
41505SOL     OW26411   8.437   5.463   1.102
41505SOL    HW126412   8.471   5.546   1.137
41505SOL    HW226413   8.513   5.422   1.061
41506SOL     OW26414   7.087  10.994   8.461
41506SOL    HW126415   7.119  11.041   8.538
41506SOL    HW226416   7.152  11.011   8.393
41507SOL     OW26417   4.781   3.760   9.748
41507SOL    HW126418   4.810   3.670   9.764
41507SOL    HW226419   4.720   3.754   9.675
41508SOL     OW26420   1.872  11.901  13.669
41508SOL    HW126421   1.829  11.819  13.644
41508SOL    HW226422   1.915  11.881  13.752
41509SOL     OW26423   3.626   9.264   8.754
41509SOL    HW126424   3.634   9.169   8.756
41509SOL    HW226425   3.710   9.295   8.719
41510SOL     OW26426  12.755   1.018  11.131
41510SOL    HW126427  12.706   0.967  11.067
41510SOL    HW226428  12.763   1.105  11.091
41511SOL     OW26429   6.684   0.195   5.218
41511SOL    HW126430   6.678   0.203   5.122
41511SOL    HW226431   6.760   0.247   5.242
41512SOL     OW26432   0.333  12.905   8.126
41512SOL    HW126433   0.404  12.895   8.063
41512SOL    HW226434   0.261  12.853   8.091
41513SOL     OW26435   9.399   0.596  11.117
41513SOL    HW126436   9.454   0.598  11.195
41513SOL    HW226437   9.431   0.669  11.063
41514SOL     OW26438   4.102   7.538  11.436
41514SOL    HW126439   4.016   7.508  11.406
41514SOL    HW226440   4.118   7.619  11.388
41515SOL     OW26441  13.322   9.274   6.129
41515SOL    HW126442  13.331   9.202   6.067
41515SOL    HW226443  13.268   9.239   6.199
41516SOL     OW26444   7.239   8.064  14.305
41516SOL    HW126445   7.253   8.063  14.210
41516SOL    HW226446   7.150   8.031  14.317
41517SOL     OW26447   7.058  13.934   5.721
41517SOL    HW126448   7.145  13.896   5.725
41517SOL    HW226449   7.070  14.020   5.681
41518SOL     OW26450   5.183   0.447   2.996
41518SOL    HW126451   5.225   0.411   2.918
41518SOL    HW226452   5.230   0.529   3.013
41519SOL     OW26453   3.869   7.544   4.378
41519SOL    HW126454   3.895   7.482   4.311
41519SOL    HW226455   3.923   7.523   4.454
41520SOL     OW26456  12.632   9.402   7.836
41520SOL    HW126457  12.588   9.352   7.767
41520SOL    HW226458  12.608   9.358   7.917
41521SOL     OW26459   5.960   4.587   7.484
41521SOL    HW126460   6.015   4.523   7.531
41521SOL    HW226461   5.984   4.671   7.523
41522SOL     OW26462   5.073   6.329   6.522
41522SOL    HW126463   5.079   6.268   6.448
41522SOL    HW226464   5.079   6.273   6.599
41523SOL     OW26465   5.527   7.298   3.838
41523SOL    HW126466   5.587   7.257   3.775
41523SOL    HW226467   5.448   7.317   3.788
41524SOL     OW26468  10.470   0.719   7.470
41524SOL    HW126469  10.396   0.663   7.496
41524SOL    HW226470  10.516   0.737   7.552
41525SOL     OW26471   8.070   7.767   0.961
41525SOL    HW126472   7.985   7.743   0.997
41525SOL    HW226473   8.086   7.702   0.893
41526SOL     OW26474   7.209   9.835   6.928
41526SOL    HW126475   7.175   9.810   6.842
41526SOL    HW226476   7.133   9.827   6.987
41527SOL     OW26477   1.349   6.459  10.501
41527SOL    HW126478   1.324   6.536  10.552
41527SOL    HW226479   1.397   6.404  10.563
41528SOL     OW26480   4.079   8.248  13.418
41528SOL    HW126481   4.071   8.239  13.513
41528SOL    HW226482   4.005   8.198  13.383
41529SOL     OW26483  10.810   5.477   5.225
41529SOL    HW126484  10.737   5.535   5.246
41529SOL    HW226485  10.817   5.480   5.130
41530SOL     OW26486   4.419   9.609   7.992
41530SOL    HW126487   4.486   9.664   8.033
41530SOL    HW226488   4.465   9.530   7.966
41531SOL     OW26489  14.337   9.446   9.413
41531SOL    HW126490  14.327   9.379   9.480
41531SOL    HW226491  14.249   9.459   9.377
41532SOL     OW26492   9.344  14.685   8.945
41532SOL    HW126493   9.306  14.692   9.032
41532SOL    HW226494   9.352  14.775   8.915
41533SOL     OW26495   8.481   5.517  14.167
41533SOL    HW126496   8.489   5.442  14.225
41533SOL    HW226497   8.387   5.534  14.161
41534SOL     OW26498   8.278   0.345  13.220
41534SOL    HW126499   8.364   0.327  13.182
41534SOL    HW226500   8.296   0.366  13.312
41535SOL     OW26501   4.521   7.963  11.490
41535SOL    HW126502   4.473   7.921  11.418
41535SOL    HW226503   4.468   8.040  11.511
41536SOL     OW26504  10.641  10.398   3.370
41536SOL    HW126505  10.664  10.336   3.300
41536SOL    HW226506  10.624  10.480   3.325
41537SOL     OW26507   2.857   2.351   6.582
41537SOL    HW126508   2.803   2.281   6.545
41537SOL    HW226509   2.808   2.432   6.564
41538SOL     OW26510   7.343   9.354   9.025
41538SOL    HW126511   7.428   9.312   9.009
41538SOL    HW226512   7.361   9.448   9.019
41539SOL     OW26513  14.817   9.986  10.263
41539SOL    HW126514  14.780  10.065  10.303
41539SOL    HW226515   0.041  10.008  10.249
41540SOL     OW26516   9.780   6.600   6.746
41540SOL    HW126517   9.791   6.516   6.702
41540SOL    HW226518   9.694   6.594   6.788
41541SOL     OW26519   7.196   5.007  13.073
41541SOL    HW126520   7.165   5.067  13.140
41541SOL    HW226521   7.212   4.925  13.120
41542SOL     OW26522   9.114   6.318   5.064
41542SOL    HW126523   9.072   6.396   5.100
41542SOL    HW226524   9.042   6.256   5.053
41543SOL     OW26525   7.861  10.309  10.750
41543SOL    HW126526   7.782  10.311  10.803
41543SOL    HW226527   7.847  10.237  10.688
41544SOL     OW26528   8.353  10.119   8.239
41544SOL    HW126529   8.310  10.035   8.254
41544SOL    HW226530   8.391  10.142   8.323
41545SOL     OW26531   1.442  11.270  14.866
41545SOL    HW126532   1.490  11.350  14.844
41545SOL    HW226533   1.489  11.234   0.073
41546SOL     OW26534   5.867   5.381   6.281
41546SOL    HW126535   5.790   5.434   6.264
41546SOL    HW226536   5.928   5.401   6.210
41547SOL     OW26537   6.580   0.891   4.330
41547SOL    HW126538   6.549   0.802   4.315
41547SOL    HW226539   6.504   0.939   4.361
41548SOL     OW26540  12.354   7.585  13.361
41548SOL    HW126541  12.345   7.551  13.449
41548SOL    HW226542  12.278   7.550  13.313
41549SOL     OW26543   7.030  12.316   8.517
41549SOL    HW126544   7.062  12.323   8.607
41549SOL    HW226545   7.061  12.231   8.487
41550SOL     OW26546  10.371   6.570   9.815
41550SOL    HW126547  10.287   6.570   9.769
41550SOL    HW226548  10.355   6.624   9.893
41551SOL     OW26549  13.085   1.690  13.381
41551SOL    HW126550  13.178   1.709  13.371
41551SOL    HW226551  13.081   1.594  13.390
41552SOL     OW26552   7.536  11.154   1.994
41552SOL    HW126553   7.444  11.176   2.007
41552SOL    HW226554   7.563  11.204   1.918
41553SOL     OW26555   6.875   1.220   0.953
41553SOL    HW126556   6.857   1.294   1.011
41553SOL    HW226557   6.924   1.158   1.007
41554SOL     OW26558   8.671  11.373   6.573
41554SOL    HW126559   8.621  11.292   6.579
41554SOL    HW226560   8.763  11.344   6.571
41555SOL     OW26561   1.279   7.671   3.531
41555SOL    HW126562   1.200   7.640   3.575
41555SOL    HW226563   1.351   7.640   3.586
41556SOL     OW26564   6.417   6.092   2.151
41556SOL    HW126565   6.493   6.102   2.208
41556SOL    HW226566   6.354   6.042   2.203
41557SOL     OW26567   0.949  14.198  10.361
41557SOL    HW126568   0.907  14.113  10.350
41557SOL    HW226569   1.037  14.187  10.326
41558SOL     OW26570  13.983   3.058  10.201
41558SOL    HW126571  13.946   3.145  10.217
41558SOL    HW226572  13.988   3.051  10.106
41559SOL     OW26573   6.448  14.482   4.833
41559SOL    HW126574   6.445  14.388   4.814
41559SOL    HW226575   6.357  14.507   4.847
41560SOL     OW26576   8.294   0.101   8.265
41560SOL    HW126577   8.286   0.094   8.170
41560SOL    HW226578   8.296   0.195   8.282
41561SOL     OW26579   3.661  12.923   4.466
41561SOL    HW126580   3.711  12.888   4.393
41561SOL    HW226581   3.657  12.851   4.529
41562SOL     OW26582   0.458  14.328  10.809
41562SOL    HW126583   0.518  14.258  10.835
41562SOL    HW226584   0.371  14.288  10.814
41563SOL     OW26585   6.576   5.325   1.566
41563SOL    HW126586   6.561   5.248   1.621
41563SOL    HW226587   6.491   5.369   1.562
41564SOL     OW26588   0.986   9.124  14.072
41564SOL    HW126589   0.990   9.170  13.989
41564SOL    HW226590   1.076   9.126  14.105
41565SOL     OW26591   2.680  12.900   7.306
41565SOL    HW126592   2.690  12.964   7.236
41565SOL    HW226593   2.631  12.947   7.374
41566SOL     OW26594   7.351  12.555   6.160
41566SOL    HW126595   7.337  12.476   6.108
41566SOL    HW226596   7.445  12.553   6.181
41567SOL     OW26597  14.667   4.156   8.474
41567SOL    HW126598  14.573   4.166   8.457
41567SOL    HW226599  14.687   4.227   8.536
41568SOL     OW26600  11.793   1.250   2.634
41568SOL    HW126601  11.808   1.247   2.540
41568SOL    HW226602  11.724   1.185   2.650
41569SOL     OW26603   2.636   4.740  11.815
41569SOL    HW126604   2.710   4.763  11.758
41569SOL    HW226605   2.567   4.802  11.791
41570SOL     OW26606   0.944  11.069  13.882
41570SOL    HW126607   0.879  11.134  13.909
41570SOL    HW226608   0.894  11.007  13.828
41571SOL     OW26609  14.314  13.064   5.001
41571SOL    HW126610  14.243  13.113   5.043
41571SOL    HW226611  14.270  13.011   4.935
41572SOL     OW26612   9.379   0.556   3.764
41572SOL    HW126613   9.362   0.549   3.671
41572SOL    HW226614   9.336   0.637   3.791
41573SOL     OW26615  10.481  14.633   4.717
41573SOL    HW126616  10.511  14.677   4.797
41573SOL    HW226617  10.423  14.563   4.749
41574SOL     OW26618  12.294   9.990   1.918
41574SOL    HW126619  12.304   9.937   1.997
41574SOL    HW226620  12.222   9.950   1.870
41575SOL     OW26621   8.226  12.794   2.257
41575SOL    HW126622   8.164  12.866   2.265
41575SOL    HW226623   8.174  12.720   2.226
41576SOL     OW26624   3.273   1.958   5.054
41576SOL    HW126625   3.204   1.948   5.119
41576SOL    HW226626   3.236   1.920   4.974
41577SOL     OW26627   5.162   5.774   1.303
41577SOL    HW126628   5.082   5.824   1.285
41577SOL    HW226629   5.206   5.769   1.218
41578SOL     OW26630  11.533  10.766   7.704
41578SOL    HW126631  11.618  10.738   7.737
41578SOL    HW226632  11.549  10.854   7.669
41579SOL     OW26633  11.162   9.656   1.020
41579SOL    HW126634  11.221   9.727   0.999
41579SOL    HW226635  11.076   9.686   0.990
41580SOL     OW26636   3.397  14.046   7.663
41580SOL    HW126637   3.451  13.969   7.678
41580SOL    HW226638   3.380  14.046   7.568
41581SOL     OW26639   3.540  13.596   4.592
41581SOL    HW126640   3.617  13.607   4.647
41581SOL    HW226641   3.526  13.681   4.551
41582SOL     OW26642  10.531  12.014   4.265
41582SOL    HW126643  10.500  12.098   4.233
41582SOL    HW226644  10.592  11.983   4.198
41583SOL     OW26645   3.281   5.516   0.474
41583SOL    HW126646   3.295   5.468   0.392
41583SOL    HW226647   3.191   5.494   0.499
41584SOL     OW26648  11.484  11.872   6.811
41584SOL    HW126649  11.547  11.941   6.833
41584SOL    HW226650  11.473  11.879   6.717
41585SOL     OW26651   8.570   5.900   7.010
41585SOL    HW126652   8.588   5.807   7.024
41585SOL    HW226653   8.547   5.933   7.097
41586SOL     OW26654  12.514  10.859  10.415
41586SOL    HW126655  12.602  10.845  10.380
41586SOL    HW226656  12.499  10.785  10.474
41587SOL     OW26657  11.358   5.687   2.170
41587SOL    HW126658  11.330   5.778   2.159
41587SOL    HW226659  11.318   5.640   2.098
41588SOL     OW26660  14.761  14.114  12.227
41588SOL    HW126661  14.737  14.167  12.303
41588SOL    HW226662  14.852  14.087  12.244
41589SOL     OW26663  13.235  11.738  14.516
41589SOL    HW126664  13.177  11.720  14.590
41589SOL    HW226665  13.323  11.729  14.552
41590SOL     OW26666   8.085   1.602   8.589
41590SOL    HW126667   8.033   1.666   8.638
41590SOL    HW226668   8.067   1.518   8.632
41591SOL     OW26669   9.813   7.139   2.124
41591SOL    HW126670   9.794   7.078   2.053
41591SOL    HW226671   9.900   7.173   2.103
41592SOL     OW26672  14.650   2.449   9.849
41592SOL    HW126673  14.688   2.532   9.877
41592SOL    HW226674  14.719   2.384   9.863
41593SOL     OW26675   9.027  13.047   8.362
41593SOL    HW126676   9.011  13.039   8.268
41593SOL    HW226677   8.940  13.053   8.401
41594SOL     OW26678   5.575   0.278   6.576
41594SOL    HW126679   5.550   0.285   6.484
41594SOL    HW226680   5.609   0.364   6.599
41595SOL     OW26681   3.820   0.904   6.054
41595SOL    HW126682   3.864   0.878   5.973
41595SOL    HW226683   3.777   0.824   6.085
41596SOL     OW26684   7.785   3.080   6.736
41596SOL    HW126685   7.715   3.145   6.743
41596SOL    HW226686   7.771   3.021   6.810
41597SOL     OW26687  11.318  12.818   4.667
41597SOL    HW126688  11.313  12.914   4.665
41597SOL    HW226689  11.256  12.790   4.600
41598SOL     OW26690  13.006  11.340   8.643
41598SOL    HW126691  12.979  11.354   8.734
41598SOL    HW226692  13.011  11.428   8.606
41599SOL     OW26693   3.378   1.696   9.991
41599SOL    HW126694   3.329   1.761  10.043
41599SOL    HW226695   3.463   1.691  10.033
41600SOL     OW26696   6.572  10.722   8.776
41600SOL    HW126697   6.650  10.771   8.751
41600SOL    HW226698   6.503  10.788   8.784
41601SOL     OW26699   0.912   1.771   1.912
41601SOL    HW126700   0.912   1.736   2.001
41601SOL    HW226701   0.941   1.862   1.922
41602SOL     OW26702   6.760  10.339  12.432
41602SOL    HW126703   6.686  10.388  12.396
41602SOL    HW226704   6.831  10.404  12.435
41603SOL     OW26705   0.026   8.188   0.359
41603SOL    HW126706   0.080   8.207   0.282
41603SOL    HW226707   0.084   8.140   0.417
41604SOL     OW26708   3.480   9.971   3.608
41604SOL    HW126709   3.445  10.059   3.619
41604SOL    HW226710   3.473   9.930   3.694
41605SOL     OW26711   2.751   9.283   0.396
41605SOL    HW126712   2.723   9.358   0.448
41605SOL    HW226713   2.696   9.211   0.426
41606SOL     OW26714   3.078  13.538  11.093
41606SOL    HW126715   3.143  13.587  11.143
41606SOL    HW226716   3.098  13.558  11.001
41607SOL     OW26717   8.155  11.571  14.751
41607SOL    HW126718   8.119  11.658  14.734
41607SOL    HW226719   8.105  11.539  14.826
41608SOL     OW26720   7.477   4.541   6.910
41608SOL    HW126721   7.396   4.573   6.951
41608SOL    HW226722   7.459   4.547   6.816
41609SOL     OW26723   2.986  13.815   0.706
41609SOL    HW126724   2.969  13.891   0.761
41609SOL    HW226725   3.076  13.826   0.677
41610SOL     OW26726  14.456   6.974   3.324
41610SOL    HW126727  14.362   6.966   3.312
41610SOL    HW226728  14.474   6.926   3.405
41611SOL     OW26729  10.226  10.997   7.241
41611SOL    HW126730  10.142  11.017   7.200
41611SOL    HW226731  10.278  10.957   7.172
41612SOL     OW26732   4.046   7.030  11.265
41612SOL    HW126733   4.120   7.072  11.221
41612SOL    HW226734   4.009   7.099  11.320
41613SOL     OW26735  12.487  13.276  11.930
41613SOL    HW126736  12.554  13.223  11.972
41613SOL    HW226737  12.489  13.360  11.976
41614SOL     OW26738   7.209  14.680   2.913
41614SOL    HW126739   7.181  14.732   2.988
41614SOL    HW226740   7.304  14.691   2.909
41615SOL     OW26741  14.354  13.370   1.188
41615SOL    HW126742  14.335  13.363   1.095
41615SOL    HW226743  14.396  13.456   1.198
41616SOL     OW26744   3.021  14.565   7.236
41616SOL    HW126745   3.093  14.589   7.295
41616SOL    HW226746   3.016  14.638   7.174
41617SOL     OW26747   7.255  11.250   1.988
41617SOL    HW126748   7.192  11.185   1.957
41617SOL    HW226749   7.201  11.325   2.013
41618SOL     OW26750  11.958   1.892   8.056
41618SOL    HW126751  11.881   1.913   8.108
41618SOL    HW226752  11.939   1.806   8.018
41619SOL     OW26753  12.314  13.507   2.308
41619SOL    HW126754  12.367  13.577   2.270
41619SOL    HW226755  12.324  13.517   2.402
41620SOL     OW26756  14.198   6.555  14.221
41620SOL    HW126757  14.164   6.611  14.290
41620SOL    HW226758  14.293   6.567  14.225
41621SOL     OW26759   3.113  11.567  12.614
41621SOL    HW126760   3.136  11.531  12.529
41621SOL    HW226761   3.186  11.544  12.672
41622SOL     OW26762   4.921   7.558  13.158
41622SOL    HW126763   4.849   7.601  13.111
41622SOL    HW226764   5.000   7.595  13.119
41623SOL     OW26765   9.590   4.506  10.789
41623SOL    HW126766   9.567   4.428  10.738
41623SOL    HW226767   9.684   4.516  10.775
41624SOL     OW26768   3.730  13.191   1.604
41624SOL    HW126769   3.695  13.148   1.682
41624SOL    HW226770   3.654  13.230   1.562
41625SOL     OW26771   8.555   2.373   8.053
41625SOL    HW126772   8.496   2.367   8.128
41625SOL    HW226773   8.568   2.283   8.025
41626SOL     OW26774   3.730  13.340  11.756
41626SOL    HW126775   3.702  13.429  11.780
41626SOL    HW226776   3.661  13.308  11.698
41627SOL     OW26777  10.517  11.203   1.409
41627SOL    HW126778  10.478  11.140   1.349
41627SOL    HW226779  10.577  11.254   1.355
41628SOL     OW26780   8.646   1.194  12.269
41628SOL    HW126781   8.572   1.134  12.274
41628SOL    HW226782   8.719   1.146  12.309
41629SOL     OW26783   0.665  14.330   1.319
41629SOL    HW126784   0.639  14.410   1.273
41629SOL    HW226785   0.739  14.357   1.373
41630SOL     OW26786   8.439  14.577   1.631
41630SOL    HW126787   8.428  14.637   1.557
41630SOL    HW226788   8.365  14.596   1.688
41631SOL     OW26789  13.665   2.233   7.367
41631SOL    HW126790  13.661   2.177   7.445
41631SOL    HW226791  13.650   2.173   7.294
41632SOL     OW26792   8.583   1.907  11.740
41632SOL    HW126793   8.635   1.931  11.663
41632SOL    HW226794   8.584   1.986  11.794
41633SOL     OW26795   2.876   3.112   8.232
41633SOL    HW126796   2.908   3.036   8.183
41633SOL    HW226797   2.818   3.158   8.171
41634SOL     OW26798   4.096   2.248   3.276
41634SOL    HW126799   4.128   2.332   3.308
41634SOL    HW226800   4.055   2.208   3.353
41635SOL     OW26801   0.570   8.987   0.473
41635SOL    HW126802   0.502   9.025   0.416
41635SOL    HW226803   0.544   9.012   0.561
41636SOL     OW26804  12.066   0.431   1.467
41636SOL    HW126805  12.002   0.500   1.453
41636SOL    HW226806  12.026   0.352   1.431
41637SOL     OW26807  10.279   5.016   1.215
41637SOL    HW126808  10.246   5.044   1.130
41637SOL    HW226809  10.324   4.933   1.198
41638SOL     OW26810   1.573   0.089  13.108
41638SOL    HW126811   1.593   0.140  13.029
41638SOL    HW226812   1.647   0.030  13.118
41639SOL     OW26813   2.418   6.409  10.565
41639SOL    HW126814   2.441   6.317  10.550
41639SOL    HW226815   2.374   6.409  10.650
41640SOL     OW26816   0.890   2.871   3.676
41640SOL    HW126817   0.873   2.958   3.713
41640SOL    HW226818   0.933   2.889   3.593
41641SOL     OW26819   0.099   6.137   6.596
41641SOL    HW126820   0.051   6.110   6.518
41641SOL    HW226821   0.061   6.085   6.667
41642SOL     OW26822   0.566   4.877   2.623
41642SOL    HW126823   0.633   4.923   2.573
41642SOL    HW226824   0.483   4.910   2.589
41643SOL     OW26825   5.334   4.310   4.440
41643SOL    HW126826   5.293   4.235   4.483
41643SOL    HW226827   5.423   4.313   4.475
41644SOL     OW26828   8.951  10.113   6.357
41644SOL    HW126829   9.029  10.168   6.369
41644SOL    HW226830   8.877  10.171   6.375
41645SOL     OW26831   4.127   5.541   1.057
41645SOL    HW126832   4.104   5.553   1.149
41645SOL    HW226833   4.065   5.475   1.025
41646SOL     OW26834  12.182   6.617  13.247
41646SOL    HW126835  12.119   6.586  13.182
41646SOL    HW226836  12.250   6.661  13.195
41647SOL     OW26837   3.440   3.770  11.306
41647SOL    HW126838   3.456   3.790  11.398
41647SOL    HW226839   3.523   3.787  11.262
41648SOL     OW26840   8.429  12.996  14.368
41648SOL    HW126841   8.500  13.023  14.309
41648SOL    HW226842   8.450  12.905  14.391
41649SOL     OW26843   7.292   7.722   1.875
41649SOL    HW126844   7.328   7.730   1.964
41649SOL    HW226845   7.358   7.672   1.827
41650SOL     OW26846  14.132   0.792   3.522
41650SOL    HW126847  14.174   0.877   3.527
41650SOL    HW226848  14.201   0.733   3.488
41651SOL     OW26849  12.546   8.017  12.036
41651SOL    HW126850  12.607   8.039  12.106
41651SOL    HW226851  12.572   7.929  12.008
41652SOL     OW26852   8.217   8.196   9.276
41652SOL    HW126853   8.246   8.109   9.302
41652SOL    HW226854   8.126   8.184   9.249
41653SOL     OW26855   1.244   0.749   7.671
41653SOL    HW126856   1.178   0.817   7.684
41653SOL    HW226857   1.327   0.796   7.672
41654SOL     OW26858   3.064   3.028  12.072
41654SOL    HW126859   3.124   2.976  12.125
41654SOL    HW226860   3.021   2.964  12.015
41655SOL     OW26861   0.646   5.400  14.841
41655SOL    HW126862   0.705   5.436  14.775
41655SOL    HW226863   0.561   5.441  14.822
41656SOL     OW26864   1.114   2.507   2.138
41656SOL    HW126865   1.025   2.501   2.173
41656SOL    HW226866   1.114   2.587   2.086
41657SOL     OW26867   3.931  14.373   3.673
41657SOL    HW126868   3.972  14.286   3.673
41657SOL    HW226869   3.990  14.427   3.620
41658SOL     OW26870   8.080  12.501   0.412
41658SOL    HW126871   7.991  12.471   0.434
41658SOL    HW226872   8.137  12.447   0.466
41659SOL     OW26873   9.085   5.133   0.028
41659SOL    HW126874   9.068   5.050   0.071
41659SOL    HW226875   9.041   5.126  14.811
41660SOL     OW26876   4.901   3.716   2.175
41660SOL    HW126877   4.882   3.769   2.098
41660SOL    HW226878   4.930   3.632   2.140
41661SOL     OW26879   5.838  13.811   0.001
41661SOL    HW126880   5.845  13.778   0.090
41661SOL    HW226881   5.841  13.733  14.813
41662SOL     OW26882   0.682  13.363   8.196
41662SOL    HW126883   0.753  13.351   8.258
41662SOL    HW226884   0.726  13.383   8.113
41663SOL     OW26885   3.624   6.085   2.080
41663SOL    HW126886   3.592   6.096   1.991
41663SOL    HW226887   3.641   5.991   2.088
41664SOL     OW26888   3.242   6.783  12.281
41664SOL    HW126889   3.269   6.698  12.316
41664SOL    HW226890   3.323   6.829  12.264
41665SOL     OW26891   7.622   3.552   2.718
41665SOL    HW126892   7.684   3.549   2.791
41665SOL    HW226893   7.544   3.506   2.750
41666SOL     OW26894  13.808   8.643  13.022
41666SOL    HW126895  13.807   8.732  13.056
41666SOL    HW226896  13.824   8.653  12.928
41667SOL     OW26897  11.260   3.995  10.917
41667SOL    HW126898  11.210   3.931  10.866
41667SOL    HW226899  11.212   4.002  10.999
41668SOL     OW26900   3.050   9.874   0.812
41668SOL    HW126901   3.124   9.860   0.753
41668SOL    HW226902   2.975   9.840   0.764
41669SOL     OW26903   5.220   6.639  12.080
41669SOL    HW126904   5.188   6.650  12.170
41669SOL    HW226905   5.315   6.632  12.088
41670SOL     OW26906   9.933  14.848   2.118
41670SOL    HW126907  10.005  14.805   2.165
41670SOL    HW226908   9.950  14.828   2.026
41671SOL     OW26909   1.450   8.552  11.953
41671SOL    HW126910   1.450   8.643  11.981
41671SOL    HW226911   1.534   8.541  11.908
41672SOL     OW26912  12.521   4.763   6.787
41672SOL    HW126913  12.602   4.737   6.742
41672SOL    HW226914  12.477   4.820   6.724
41673SOL     OW26915  12.333   0.656   2.150
41673SOL    HW126916  12.361   0.566   2.131
41673SOL    HW226917  12.255   0.646   2.204
41674SOL     OW26918   1.674   6.789   5.528
41674SOL    HW126919   1.579   6.795   5.521
41674SOL    HW226920   1.693   6.696   5.520
41675SOL     OW26921   6.556  14.753  13.771
41675SOL    HW126922   6.624  14.721  13.712
41675SOL    HW226923   6.583  14.841  13.794
41676SOL     OW26924  12.101  13.913   9.077
41676SOL    HW126925  12.113  13.835   9.024
41676SOL    HW226926  12.026  13.892   9.133
41677SOL     OW26927  11.222   0.882   1.613
41677SOL    HW126928  11.237   0.820   1.684
41677SOL    HW226929  11.271   0.960   1.637
41678SOL     OW26930   0.340  12.224  11.656
41678SOL    HW126931   0.359  12.273  11.736
41678SOL    HW226932   0.410  12.249  11.596
41679SOL     OW26933   3.148   0.153  11.734
41679SOL    HW126934   3.198   0.158  11.653
41679SOL    HW226935   3.060   0.183  11.711
41680SOL     OW26936   4.199  10.037   5.937
41680SOL    HW126937   4.254  10.114   5.942
41680SOL    HW226938   4.257   9.968   5.903
41681SOL     OW26939  11.664   6.530   9.674
41681SOL    HW126940  11.741   6.581   9.651
41681SOL    HW226941  11.668   6.453   9.617
41682SOL     OW26942  14.537   5.182  11.215
41682SOL    HW126943  14.595   5.176  11.139
41682SOL    HW226944  14.526   5.092  11.244
41683SOL     OW26945   0.707  12.860   5.099
41683SOL    HW126946   0.724  12.954   5.092
41683SOL    HW226947   0.612  12.852   5.088
41684SOL     OW26948   7.491   5.105   6.628
41684SOL    HW126949   7.422   5.170   6.612
41684SOL    HW226950   7.447   5.033   6.672
41685SOL     OW26951   9.285   3.858  13.610
41685SOL    HW126952   9.223   3.888  13.544
41685SOL    HW226953   9.363   3.834  13.561
41686SOL     OW26954   9.569   6.620   9.569
41686SOL    HW126955   9.570   6.712   9.593
41686SOL    HW226956   9.480   6.591   9.588
41687SOL     OW26957   8.180  14.532   1.339
41687SOL    HW126958   8.151  14.619   1.365
41687SOL    HW226959   8.185  14.482   1.420
41688SOL     OW26960   1.996   2.315  11.565
41688SOL    HW126961   2.014   2.389  11.507
41688SOL    HW226962   1.988   2.240  11.507
41689SOL     OW26963   4.606   9.076  13.812
41689SOL    HW126964   4.642   9.007  13.755
41689SOL    HW226965   4.625   9.046  13.900
41690SOL     OW26966  14.776  10.700   6.714
41690SOL    HW126967  14.735  10.749   6.643
41690SOL    HW226968   0.002  10.707   6.698
41691SOL     OW26969  13.685   0.386  13.093
41691SOL    HW126970  13.756   0.442  13.064
41691SOL    HW226971  13.690   0.309  13.036
41692SOL     OW26972   2.632   6.211  13.742
41692SOL    HW126973   2.669   6.272  13.679
41692SOL    HW226974   2.624   6.128  13.694
41693SOL     OW26975   6.336   6.152   0.966
41693SOL    HW126976   6.397   6.134   1.038
41693SOL    HW226977   6.275   6.216   1.002
41694SOL     OW26978   0.843  14.336   4.648
41694SOL    HW126979   0.925  14.362   4.606
41694SOL    HW226980   0.775  14.365   4.588
41695SOL     OW26981   6.906   5.384   0.137
41695SOL    HW126982   6.956   5.319   0.186
41695SOL    HW226983   6.869   5.441   0.204
41696SOL     OW26984   1.281   5.972   5.635
41696SOL    HW126985   1.251   5.901   5.577
41696SOL    HW226986   1.330   6.030   5.578
41697SOL     OW26987   5.140   4.987  14.859
41697SOL    HW126988   5.210   5.027   0.043
41697SOL    HW226989   5.081   4.950   0.056
41698SOL     OW26990  14.060  10.233   6.253
41698SOL    HW126991  14.102  10.147   6.260
41698SOL    HW226992  14.109  10.288   6.314
41699SOL     OW26993  12.725   5.017   6.880
41699SOL    HW126994  12.817   5.042   6.872
41699SOL    HW226995  12.716   4.987   6.970
41700SOL     OW26996   7.238   5.074   9.266
41700SOL    HW126997   7.325   5.096   9.233
41700SOL    HW226998   7.186   5.153   9.255
41701SOL     OW26999   6.973   9.570   9.022
41701SOL    HW127000   7.044   9.588   8.960
41701SOL    HW227001   6.974   9.644   9.083
41702SOL     OW27002   3.154   9.513   2.647
41702SOL    HW127003   3.236   9.561   2.634
41702SOL    HW227004   3.158   9.485   2.739
41703SOL     OW27005   7.491   2.124   1.389
41703SOL    HW127006   7.547   2.093   1.461
41703SOL    HW227007   7.440   2.195   1.428
41704SOL     OW27008  12.203   8.735  13.803
41704SOL    HW127009  12.292   8.701  13.793
41704SOL    HW227010  12.195   8.800  13.734
41705SOL     OW27011  14.239  12.206   0.443
41705SOL    HW127012  14.161  12.158   0.472
41705SOL    HW227013  14.307  12.181   0.506
41706SOL     OW27014   8.605  12.467  13.901
41706SOL    HW127015   8.682  12.429  13.944
41706SOL    HW227016   8.532  12.445  13.959
41707SOL     OW27017  13.528   7.141   4.368
41707SOL    HW127018  13.601   7.196   4.340
41707SOL    HW227019  13.569   7.059   4.397
41708SOL     OW27020   8.594   0.463  13.598
41708SOL    HW127021   8.604   0.493  13.689
41708SOL    HW227022   8.677   0.419  13.578
41709SOL     OW27023   3.188  11.322   2.566
41709SOL    HW127024   3.182  11.263   2.490
41709SOL    HW227025   3.194  11.409   2.528
41710SOL     OW27026   2.433   0.782   6.655
41710SOL    HW127027   2.384   0.794   6.574
41710SOL    HW227028   2.496   0.855   6.655
41711SOL     OW27029   4.215  10.326  14.249
41711SOL    HW127030   4.204  10.412  14.208
41711SOL    HW227031   4.309  10.307  14.240
41712SOL     OW27032   7.347   2.130   5.653
41712SOL    HW127033   7.401   2.067   5.606
41712SOL    HW227034   7.408   2.175   5.711
41713SOL     OW27035   5.568   4.032  12.683
41713SOL    HW127036   5.507   4.086  12.733
41713SOL    HW227037   5.617   3.982  12.749
41714SOL     OW27038   5.804   2.877  14.207
41714SOL    HW127039   5.855   2.895  14.286
41714SOL    HW227040   5.720   2.844  14.239
41715SOL     OW27041  11.980   6.601  10.928
41715SOL    HW127042  11.886   6.594  10.947
41715SOL    HW227043  11.990   6.558  10.843
41716SOL     OW27044   1.838  13.735   3.872
41716SOL    HW127045   1.873  13.647   3.872
41716SOL    HW227046   1.871  13.774   3.953
41717SOL     OW27047  12.278   1.995  10.566
41717SOL    HW127048  12.217   2.069  10.574
41717SOL    HW227049  12.256   1.954  10.483
41718SOL     OW27050  12.527  12.817  13.016
41718SOL    HW127051  12.533  12.807  12.921
41718SOL    HW227052  12.583  12.747  13.051
41719SOL     OW27053   4.266   8.105   7.059
41719SOL    HW127054   4.301   8.079   6.974
41719SOL    HW227055   4.342   8.108   7.117
41720SOL     OW27056   4.293   8.297  12.776
41720SOL    HW127057   4.255   8.212  12.797
41720SOL    HW227058   4.325   8.288  12.687
41721SOL     OW27059   9.340   4.512  10.911
41721SOL    HW127060   9.420   4.512  10.859
41721SOL    HW227061   9.349   4.436  10.969
41722SOL     OW27062  10.543   8.763   5.933
41722SOL    HW127063  10.450   8.782   5.927
41722SOL    HW227064  10.582   8.844   5.965
41723SOL     OW27065   3.084   5.182   7.877
41723SOL    HW127066   3.139   5.105   7.887
41723SOL    HW227067   3.141   5.247   7.836
41724SOL     OW27068   4.418  13.547   6.210
41724SOL    HW127069   4.362  13.497   6.270
41724SOL    HW227070   4.463  13.610   6.267
41725SOL     OW27071   8.360   4.639   5.334
41725SOL    HW127072   8.433   4.608   5.280
41725SOL    HW227073   8.287   4.648   5.272
41726SOL     OW27074   6.339   7.134   1.210
41726SOL    HW127075   6.256   7.155   1.252
41726SOL    HW227076   6.360   7.212   1.158
41727SOL     OW27077   1.473   8.463   6.827
41727SOL    HW127078   1.567   8.476   6.840
41727SOL    HW227079   1.465   8.370   6.804
41728SOL     OW27080   5.445  11.883   3.476
41728SOL    HW127081   5.536  11.866   3.502
41728SOL    HW227082   5.446  11.875   3.380
41729SOL     OW27083  13.974   8.438  12.211
41729SOL    HW127084  13.899   8.462  12.157
41729SOL    HW227085  13.942   8.368  12.267
41730SOL     OW27086   3.346  12.935  11.327
41730SOL    HW127087   3.332  12.869  11.395
41730SOL    HW227088   3.340  12.886  11.245
41731SOL     OW27089   3.503   5.610   0.636
41731SOL    HW127090   3.463   5.595   0.550
41731SOL    HW227091   3.463   5.544   0.693
41732SOL     OW27092   5.027   6.975  11.873
41732SOL    HW127093   5.119   6.959  11.891
41732SOL    HW227094   4.980   6.922  11.937
41733SOL     OW27095   5.261  13.276   8.217
41733SOL    HW127096   5.278  13.214   8.145
41733SOL    HW227097   5.199  13.230   8.273
41734SOL     OW27098  12.503  10.362   9.094
41734SOL    HW127099  12.556  10.282   9.095
41734SOL    HW227100  12.427  10.341   9.148
41735SOL     OW27101   2.568   8.608   8.181
41735SOL    HW127102   2.605   8.640   8.099
41735SOL    HW227103   2.490   8.559   8.155
41736SOL     OW27104   3.370  10.301  11.307
41736SOL    HW127105   3.433  10.330  11.241
41736SOL    HW227106   3.408  10.327  11.390
41737SOL     OW27107   6.742  13.225  12.179
41737SOL    HW127108   6.677  13.262  12.119
41737SOL    HW227109   6.726  13.130  12.175
41738SOL     OW27110   3.572   2.083   7.003
41738SOL    HW127111   3.528   2.143   7.063
41738SOL    HW227112   3.648   2.132   6.971
41739SOL     OW27113   5.155   4.665   5.017
41739SOL    HW127114   5.096   4.724   4.969
41739SOL    HW227115   5.096   4.615   5.074
41740SOL     OW27116   2.425   1.748  11.543
41740SOL    HW127117   2.392   1.688  11.476
41740SOL    HW227118   2.495   1.797  11.500
41741SOL     OW27119   2.661  10.222  14.841
41741SOL    HW127120   2.699  10.298   0.016
41741SOL    HW227121   2.611  10.178   0.042
41742SOL     OW27122   4.313   2.874   8.379
41742SOL    HW127123   4.247   2.905   8.442
41742SOL    HW227124   4.374   2.946   8.370
41743SOL     OW27125   2.568   8.272   2.841
41743SOL    HW127126   2.655   8.283   2.878
41743SOL    HW227127   2.574   8.194   2.786
41744SOL     OW27128   6.318  10.257   8.396
41744SOL    HW127129   6.368  10.270   8.477
41744SOL    HW227130   6.306  10.345   8.361
41745SOL     OW27131   8.333   6.547   8.367
41745SOL    HW127132   8.264   6.611   8.382
41745SOL    HW227133   8.376   6.577   8.287
41746SOL     OW27134   2.964   4.448   0.981
41746SOL    HW127135   2.954   4.379   0.915
41746SOL    HW227136   2.973   4.400   1.064
41747SOL     OW27137  12.678   6.068  11.797
41747SOL    HW127138  12.656   5.992  11.742
41747SOL    HW227139  12.627   6.140  11.761
41748SOL     OW27140  10.950   1.769  10.620
41748SOL    HW127141  10.954   1.728  10.706
41748SOL    HW227142  10.958   1.696  10.558
41749SOL     OW27143  13.719   8.615  13.639
41749SOL    HW127144  13.638   8.662  13.660
41749SOL    HW227145  13.694   8.552  13.572
41750SOL     OW27146   3.026  13.848   1.850
41750SOL    HW127147   3.042  13.879   1.939
41750SOL    HW227148   2.933  13.868   1.835
41751SOL     OW27149   9.938   9.584   7.456
41751SOL    HW127150   9.905   9.669   7.484
41751SOL    HW227151  10.004   9.604   7.389
41752SOL     OW27152   8.840   3.197   2.251
41752SOL    HW127153   8.920   3.175   2.299
41752SOL    HW227154   8.774   3.136   2.284
41753SOL     OW27155  13.395   1.845   2.289
41753SOL    HW127156  13.490   1.838   2.278
41753SOL    HW227157  13.363   1.874   2.203
41754SOL     OW27158  11.776   5.455   4.527
41754SOL    HW127159  11.855   5.497   4.493
41754SOL    HW227160  11.722   5.439   4.450
41755SOL     OW27161  13.870   8.322   9.471
41755SOL    HW127162  13.825   8.283   9.396
41755SOL    HW227163  13.800   8.358   9.525
41756SOL     OW27164   7.849  12.946  12.382
41756SOL    HW127165   7.888  12.926  12.297
41756SOL    HW227166   7.903  12.898  12.445
41757SOL     OW27167   4.362   6.308   3.849
41757SOL    HW127168   4.361   6.249   3.924
41757SOL    HW227169   4.435   6.277   3.795
41758SOL     OW27170   4.696   8.305   7.392
41758SOL    HW127171   4.702   8.267   7.480
41758SOL    HW227172   4.779   8.350   7.379
41759SOL     OW27173  10.326  10.892  13.860
41759SOL    HW127174  10.376  10.840  13.797
41759SOL    HW227175  10.267  10.945  13.806
41760SOL     OW27176  12.334   6.250   9.825
41760SOL    HW127177  12.391   6.288   9.759
41760SOL    HW227178  12.246   6.257   9.788
41761SOL     OW27179   5.863   1.683   8.602
41761SOL    HW127180   5.771   1.672   8.580
41761SOL    HW227181   5.905   1.706   8.519
41762SOL     OW27182   6.632  12.672   3.589
41762SOL    HW127183   6.634  12.657   3.495
41762SOL    HW227184   6.560  12.618   3.621
41763SOL     OW27185   3.399  12.488   2.973
41763SOL    HW127186   3.354  12.567   3.003
41763SOL    HW227187   3.364  12.472   2.885
41764SOL     OW27188  11.302   4.502   0.470
41764SOL    HW127189  11.322   4.592   0.444
41764SOL    HW227190  11.327   4.497   0.562
41765SOL     OW27191  10.395   5.167  10.676
41765SOL    HW127192  10.390   5.083  10.722
41765SOL    HW227193  10.439   5.226  10.739
41766SOL     OW27194   4.961   2.638   8.870
41766SOL    HW127195   5.049   2.619   8.902
41766SOL    HW227196   4.954   2.588   8.788
41767SOL     OW27197  10.629   6.774   9.969
41767SOL    HW127198  10.567   6.716  10.013
41767SOL    HW227199  10.589   6.861   9.975
41768SOL     OW27200  14.689   7.935  12.911
41768SOL    HW127201  14.609   7.929  12.963
41768SOL    HW227202  14.663   7.906  12.824
41769SOL     OW27203   7.866   2.738   6.556
41769SOL    HW127204   7.923   2.814   6.549
41769SOL    HW227205   7.910   2.670   6.505
41770SOL     OW27206   0.702   4.848  10.233
41770SOL    HW127207   0.779   4.838  10.290
41770SOL    HW227208   0.725   4.918  10.173
41771SOL     OW27209  12.688   9.791  10.290
41771SOL    HW127210  12.596   9.813  10.277
41771SOL    HW227211  12.731   9.821  10.210
41772SOL     OW27212   2.874  13.098   6.113
41772SOL    HW127213   2.869  13.095   6.017
41772SOL    HW227214   2.865  13.190   6.135
41773SOL     OW27215   5.825  12.307   3.601
41773SOL    HW127216   5.803  12.400   3.600
41773SOL    HW227217   5.815  12.279   3.510
41774SOL     OW27218  12.540   4.935  13.835
41774SOL    HW127219  12.498   4.866  13.886
41774SOL    HW227220  12.567   5.001  13.900
41775SOL     OW27221   4.018   6.057   5.737
41775SOL    HW127222   4.017   5.962   5.748
41775SOL    HW227223   4.102   6.084   5.775
41776SOL     OW27224  11.671  10.869   4.053
41776SOL    HW127225  11.644  10.956   4.024
41776SOL    HW227226  11.697  10.881   4.144
41777SOL     OW27227   6.891   9.379   4.251
41777SOL    HW127228   6.865   9.328   4.328
41777SOL    HW227229   6.818   9.369   4.190
41778SOL     OW27230   0.410   9.827   6.831
41778SOL    HW127231   0.325   9.820   6.789
41778SOL    HW227232   0.470   9.783   6.771
41779SOL     OW27233  13.199   3.125  11.101
41779SOL    HW127234  13.265   3.061  11.074
41779SOL    HW227235  13.244   3.209  11.096
41780SOL     OW27236  14.398  10.165  13.842
41780SOL    HW127237  14.361  10.249  13.869
41780SOL    HW227238  14.416  10.119  13.925
41781SOL     OW27239  10.988  11.923   9.109
41781SOL    HW127240  10.965  11.857   9.174
41781SOL    HW227241  11.003  11.873   9.029
41782SOL     OW27242   6.172   7.457   7.992
41782SOL    HW127243   6.183   7.487   7.902
41782SOL    HW227244   6.077   7.457   8.006
41783SOL     OW27245   4.478  11.171   2.238
41783SOL    HW127246   4.400  11.163   2.182
41783SOL    HW227247   4.455  11.241   2.300
41784SOL     OW27248  11.482   8.561   1.858
41784SOL    HW127249  11.470   8.503   1.933
41784SOL    HW227250  11.439   8.643   1.884
41785SOL     OW27251   4.755   8.446  10.617
41785SOL    HW127252   4.801   8.525  10.589
41785SOL    HW227253   4.664   8.461  10.591
41786SOL     OW27254  14.449  10.332   7.234
41786SOL    HW127255  14.372  10.366   7.280
41786SOL    HW227256  14.415  10.261   7.179
41787SOL     OW27257   2.608  13.185   5.201
41787SOL    HW127258   2.631  13.203   5.292
41787SOL    HW227259   2.625  13.091   5.190
41788SOL     OW27260  10.552   9.314  10.657
41788SOL    HW127261  10.628   9.355  10.615
41788SOL    HW227262  10.534   9.370  10.733
41789SOL     OW27263  10.940   1.890  12.263
41789SOL    HW127264  10.848   1.875  12.243
41789SOL    HW227265  10.947   1.985  12.271
41790SOL     OW27266  10.610   9.532   7.413
41790SOL    HW127267  10.644   9.578   7.490
41790SOL    HW227268  10.541   9.589   7.380
41791SOL     OW27269  10.505   5.162  13.634
41791SOL    HW127270  10.572   5.228  13.655
41791SOL    HW227271  10.551   5.078  13.640
41792SOL     OW27272   5.592   9.494   1.965
41792SOL    HW127273   5.622   9.498   2.056
41792SOL    HW227274   5.499   9.471   1.971
41793SOL     OW27275   6.287   4.298   8.482
41793SOL    HW127276   6.270   4.226   8.421
41793SOL    HW227277   6.204   4.309   8.529
41794SOL     OW27278   2.754   4.749  12.542
41794SOL    HW127279   2.707   4.832  12.556
41794SOL    HW227280   2.710   4.687  12.600
41795SOL     OW27281   6.972  12.895  13.110
41795SOL    HW127282   6.913  12.924  13.040
41795SOL    HW227283   6.937  12.935  13.189
41796SOL     OW27284   7.846   4.190   6.427
41796SOL    HW127285   7.932   4.232   6.419
41796SOL    HW227286   7.803   4.207   6.344
41797SOL     OW27287   0.963  12.999   2.893
41797SOL    HW127288   1.048  12.981   2.852
41797SOL    HW227289   0.983  13.062   2.962
41798SOL     OW27290  13.467   1.865   6.394
41798SOL    HW127291  13.457   1.958   6.373
41798SOL    HW227292  13.530   1.833   6.329
41799SOL     OW27293   5.992   7.473   1.743
41799SOL    HW127294   5.913   7.476   1.688
41799SOL    HW227295   6.057   7.427   1.690
41800SOL     OW27296  13.943  11.378   3.213
41800SOL    HW127297  13.850  11.367   3.232
41800SOL    HW227298  13.945  11.437   3.138
41801SOL     OW27299   0.523  12.374  12.367
41801SOL    HW127300   0.514  12.289  12.411
41801SOL    HW227301   0.490  12.438  12.430
41802SOL     OW27302   1.027  11.532   9.681
41802SOL    HW127303   0.965  11.463   9.656
41802SOL    HW227304   0.974  11.611   9.689
41803SOL     OW27305   4.835   5.371   4.075
41803SOL    HW127306   4.861   5.383   3.984
41803SOL    HW227307   4.757   5.315   4.070
41804SOL     OW27308  13.479  12.180   4.548
41804SOL    HW127309  13.570  12.196   4.520
41804SOL    HW227310  13.441  12.130   4.476
41805SOL     OW27311   3.238  14.565   4.584
41805SOL    HW127312   3.331  14.546   4.577
41805SOL    HW227313   3.233  14.660   4.597
41806SOL     OW27314   3.709   3.265   8.549
41806SOL    HW127315   3.620   3.298   8.536
41806SOL    HW227316   3.737   3.304   8.632
41807SOL     OW27317   5.360   2.029   4.154
41807SOL    HW127318   5.413   2.054   4.078
41807SOL    HW227319   5.410   1.959   4.196
41808SOL     OW27320  14.158   1.074   4.458
41808SOL    HW127321  14.107   0.994   4.450
41808SOL    HW227322  14.218   1.073   4.383
41809SOL     OW27323   2.721  11.342  12.711
41809SOL    HW127324   2.755  11.339  12.800
41809SOL    HW227325   2.794  11.372  12.658
41810SOL     OW27326  11.977   2.425   9.775
41810SOL    HW127327  12.029   2.501   9.801
41810SOL    HW227328  12.041   2.363   9.740
41811SOL     OW27329  13.637   4.308  12.988
41811SOL    HW127330  13.710   4.345  13.037
41811SOL    HW227331  13.603   4.238  13.044
41812SOL     OW27332   6.800  13.656   9.337
41812SOL    HW127333   6.791  13.644   9.242
41812SOL    HW227334   6.894  13.649   9.353
41813SOL     OW27335   9.664  11.920   2.094
41813SOL    HW127336   9.592  11.881   2.144
41813SOL    HW227337   9.653  11.885   2.005
41814SOL     OW27338   3.818  11.059   5.569
41814SOL    HW127339   3.862  11.144   5.562
41814SOL    HW227340   3.864  11.015   5.641
41815SOL     OW27341   6.784  10.554   5.317
41815SOL    HW127342   6.717  10.516   5.374
41815SOL    HW227343   6.742  10.560   5.231
41816SOL     OW27344   7.903   4.588   7.691
41816SOL    HW127345   7.887   4.641   7.769
41816SOL    HW227346   7.815   4.572   7.655
41817SOL     OW27347   9.600   7.080   5.598
41817SOL    HW127348   9.671   7.034   5.642
41817SOL    HW227349   9.643   7.128   5.527
41818SOL     OW27350  10.582   4.782   9.059
41818SOL    HW127351  10.640   4.789   8.984
41818SOL    HW227352  10.639   4.785   9.135
41819SOL     OW27353  12.732  14.430   6.975
41819SOL    HW127354  12.800  14.487   7.012
41819SOL    HW227355  12.780  14.357   6.936
41820SOL     OW27356   0.645  11.053   8.733
41820SOL    HW127357   0.652  10.986   8.801
41820SOL    HW227358   0.621  11.133   8.780
41821SOL     OW27359   2.314   7.334   3.853
41821SOL    HW127360   2.391   7.302   3.805
41821SOL    HW227361   2.348   7.406   3.907
41822SOL     OW27362   3.885  11.903   2.381
41822SOL    HW127363   3.927  11.935   2.301
41822SOL    HW227364   3.925  11.818   2.397
41823SOL     OW27365   8.734  13.311   0.324
41823SOL    HW127366   8.743  13.389   0.380
41823SOL    HW227367   8.776  13.336   0.242
41824SOL     OW27368   4.712  10.924   6.957
41824SOL    HW127369   4.746  10.862   6.892
41824SOL    HW227370   4.791  10.964   6.995
41825SOL     OW27371  12.713  11.004  10.732
41825SOL    HW127372  12.805  10.982  10.723
41825SOL    HW227373  12.685  11.026  10.643
41826SOL     OW27374   1.242   6.549   5.404
41826SOL    HW127375   1.232   6.466   5.450
41826SOL    HW227376   1.263   6.613   5.472
41827SOL     OW27377   8.450   9.011  14.163
41827SOL    HW127378   8.484   8.971  14.243
41827SOL    HW227379   8.433   8.937  14.105
41828SOL     OW27380   8.760   8.270   0.106
41828SOL    HW127381   8.836   8.280   0.048
41828SOL    HW227382   8.787   8.312   0.188
41829SOL     OW27383  13.054  14.678  12.424
41829SOL    HW127384  12.999  14.689  12.346
41829SOL    HW227385  13.133  14.636  12.392
41830SOL     OW27386   2.303   8.454  14.237
41830SOL    HW127387   2.243   8.527  14.223
41830SOL    HW227388   2.336   8.467  14.326
41831SOL     OW27389   6.186   7.244   5.497
41831SOL    HW127390   6.161   7.263   5.587
41831SOL    HW227391   6.145   7.314   5.445
41832SOL     OW27392   4.806   7.738  10.278
41832SOL    HW127393   4.820   7.811  10.219
41832SOL    HW227394   4.884   7.683  10.269
41833SOL     OW27395  12.673   1.475   5.856
41833SOL    HW127396  12.661   1.425   5.775
41833SOL    HW227397  12.643   1.564   5.834
41834SOL     OW27398   7.234   1.118   0.683
41834SOL    HW127399   7.230   1.110   0.779
41834SOL    HW227400   7.179   1.194   0.664
41835SOL     OW27401   5.809  13.630  10.514
41835SOL    HW127402   5.831  13.706  10.459
41835SOL    HW227403   5.771  13.669  10.593
41836SOL     OW27404   6.868   6.781  12.892
41836SOL    HW127405   6.867   6.876  12.881
41836SOL    HW227406   6.814   6.748  12.820
41837SOL     OW27407   4.173   5.409   2.523
41837SOL    HW127408   4.134   5.442   2.442
41837SOL    HW227409   4.100   5.404   2.585
41838SOL     OW27410   2.305   4.063   3.471
41838SOL    HW127411   2.329   4.150   3.439
41838SOL    HW227412   2.351   4.054   3.554
41839SOL     OW27413   5.580  12.530  11.623
41839SOL    HW127414   5.674  12.538  11.638
41839SOL    HW227415   5.543  12.516  11.710
41840SOL     OW27416  11.071   7.443   4.284
41840SOL    HW127417  11.147   7.496   4.262
41840SOL    HW227418  11.050   7.468   4.375
41841SOL     OW27419  12.015   0.967   4.795
41841SOL    HW127420  12.053   0.882   4.772
41841SOL    HW227421  12.047   1.026   4.727
41842SOL     OW27422   7.083  11.648  12.029
41842SOL    HW127423   7.039  11.596  12.096
41842SOL    HW227424   7.032  11.729  12.023
41843SOL     OW27425   5.077   6.880  12.683
41843SOL    HW127426   5.015   6.878  12.756
41843SOL    HW227427   5.038   6.942  12.620
41844SOL     OW27428   8.441   8.947   1.876
41844SOL    HW127429   8.350   8.947   1.846
41844SOL    HW227430   8.442   8.883   1.947
41845SOL     OW27431   9.095  14.080  14.780
41845SOL    HW127432   9.032  14.057  14.849
41845SOL    HW227433   9.075  14.171  14.760
41846SOL     OW27434   7.935   7.750   6.531
41846SOL    HW127435   7.998   7.812   6.493
41846SOL    HW227436   7.949   7.757   6.625
41847SOL     OW27437   1.794  12.633   6.813
41847SOL    HW127438   1.863  12.674   6.865
41847SOL    HW227439   1.713  12.649   6.863
41848SOL     OW27440   8.495   2.185   1.224
41848SOL    HW127441   8.497   2.091   1.205
41848SOL    HW227442   8.529   2.225   1.144
41849SOL     OW27443   6.582   8.895   5.018
41849SOL    HW127444   6.550   8.938   4.939
41849SOL    HW227445   6.504   8.856   5.057
41850SOL     OW27446   3.014   6.299   3.216
41850SOL    HW127447   2.963   6.220   3.233
41850SOL    HW227448   3.100   6.281   3.255
41851SOL     OW27449   3.061  13.904   6.162
41851SOL    HW127450   3.023  13.932   6.079
41851SOL    HW227451   2.999  13.934   6.228
41852SOL     OW27452   1.041  10.786   3.482
41852SOL    HW127453   1.095  10.726   3.533
41852SOL    HW227454   1.097  10.814   3.409
41853SOL     OW27455  10.575   2.212  13.141
41853SOL    HW127456  10.496   2.177  13.183
41853SOL    HW227457  10.645   2.152  13.167
41854SOL     OW27458  12.644   4.756  11.836
41854SOL    HW127459  12.573   4.715  11.886
41854SOL    HW227460  12.678   4.824  11.893
41855SOL     OW27461  14.345  11.269   2.318
41855SOL    HW127462  14.260  11.247   2.280
41855SOL    HW227463  14.365  11.356   2.282
41856SOL     OW27464  12.205   6.455   1.558
41856SOL    HW127465  12.116   6.420   1.561
41856SOL    HW227466  12.243   6.430   1.642
41857SOL     OW27467   4.669   7.674  10.533
41857SOL    HW127468   4.689   7.720  10.452
41857SOL    HW227469   4.735   7.605  10.539
41858SOL     OW27470   1.687  12.365  12.451
41858SOL    HW127471   1.626  12.418  12.501
41858SOL    HW227472   1.643  12.280  12.441
41859SOL     OW27473  12.456   4.421  12.013
41859SOL    HW127474  12.428   4.504  11.976
41859SOL    HW227475  12.487   4.443  12.101
41860SOL     OW27476   5.615   0.058   1.895
41860SOL    HW127477   5.524   0.066   1.868
41860SOL    HW227478   5.665   0.069   1.814
41861SOL     OW27479   8.715  14.758   1.534
41861SOL    HW127480   8.724  14.707   1.615
41861SOL    HW227481   8.788  14.820   1.537
41862SOL     OW27482   5.814  13.779   8.032
41862SOL    HW127483   5.745  13.716   8.051
41862SOL    HW227484   5.869  13.779   8.111
41863SOL     OW27485  11.205   0.911   6.835
41863SOL    HW127486  11.127   0.855   6.826
41863SOL    HW227487  11.221   0.914   6.929
41864SOL     OW27488  11.009   1.349   0.546
41864SOL    HW127489  10.969   1.276   0.498
41864SOL    HW227490  10.949   1.365   0.619
41865SOL     OW27491   5.794  13.789   7.451
41865SOL    HW127492   5.876  13.813   7.410
41865SOL    HW227493   5.750  13.732   7.388
41866SOL     OW27494   1.702   1.183  12.909
41866SOL    HW127495   1.611   1.207  12.927
41866SOL    HW227496   1.737   1.259  12.863
41867SOL     OW27497   0.493   3.355   6.440
41867SOL    HW127498   0.443   3.327   6.516
41867SOL    HW227499   0.578   3.312   6.450
41868SOL     OW27500   1.356   8.304   5.745
41868SOL    HW127501   1.351   8.278   5.653
41868SOL    HW227502   1.421   8.375   5.746
41869SOL     OW27503  12.499  13.676   2.191
41869SOL    HW127504  12.578  13.626   2.209
41869SOL    HW227505  12.516  13.762   2.229
41870SOL     OW27506  13.486  14.154   0.831
41870SOL    HW127507  13.494  14.190   0.919
41870SOL    HW227508  13.534  14.215   0.775
41871SOL     OW27509   8.128  13.671  13.295
41871SOL    HW127510   8.161  13.689  13.383
41871SOL    HW227511   8.039  13.707  13.296
41872SOL     OW27512   2.297   7.873   7.855
41872SOL    HW127513   2.305   7.868   7.760
41872SOL    HW227514   2.236   7.803   7.879
41873SOL     OW27515  14.556   9.652   6.955
41873SOL    HW127516  14.497   9.584   6.921
41873SOL    HW227517  14.644   9.620   6.932
41874SOL     OW27518   9.105  11.693  10.370
41874SOL    HW127519   9.116  11.787  10.384
41874SOL    HW227520   9.175  11.653  10.423
41875SOL     OW27521   6.374   0.931   0.928
41875SOL    HW127522   6.432   0.900   0.858
41875SOL    HW227523   6.292   0.953   0.883
41876SOL     OW27524   4.027   2.376  13.550
41876SOL    HW127525   4.019   2.387  13.645
41876SOL    HW227526   3.989   2.455  13.513
41877SOL     OW27527   1.092   9.628  12.083
41877SOL    HW127528   1.111   9.593  12.170
41877SOL    HW227529   1.006   9.669  12.093
41878SOL     OW27530   9.297   2.932  10.115
41878SOL    HW127531   9.334   3.020  10.110
41878SOL    HW227532   9.309   2.906  10.207
41879SOL     OW27533   8.161  14.670   3.942
41879SOL    HW127534   8.190  14.761   3.937
41879SOL    HW227535   8.167  14.648   4.035
41880SOL     OW27536  13.414   8.440   0.437
41880SOL    HW127537  13.501   8.423   0.402
41880SOL    HW227538  13.430   8.478   0.524
41881SOL     OW27539  10.374  10.796  11.836
41881SOL    HW127540  10.288  10.754  11.841
41881SOL    HW227541  10.383  10.823  11.745
41882SOL     OW27542   6.828   0.829   6.659
41882SOL    HW127543   6.858   0.859   6.573
41882SOL    HW227544   6.750   0.882   6.677
41883SOL     OW27545  14.303   0.846   8.260
41883SOL    HW127546  14.321   0.837   8.167
41883SOL    HW227547  14.342   0.930   8.284
41884SOL     OW27548   0.318   3.941  13.363
41884SOL    HW127549   0.395   3.997  13.363
41884SOL    HW227550   0.349   3.857  13.329
41885SOL     OW27551   9.438   1.511   1.081
41885SOL    HW127552   9.408   1.423   1.105
41885SOL    HW227553   9.358   1.565   1.086
41886SOL     OW27554   8.235  13.946  11.636
41886SOL    HW127555   8.167  14.013  11.629
41886SOL    HW227556   8.191  13.872  11.677
41887SOL     OW27557   3.823   0.146  11.481
41887SOL    HW127558   3.809   0.064  11.434
41887SOL    HW227559   3.863   0.120  11.564
41888SOL     OW27560   6.550  12.507  10.154
41888SOL    HW127561   6.471  12.552  10.185
41888SOL    HW227562   6.617  12.575  10.154
41889SOL     OW27563  14.063  11.947  10.680
41889SOL    HW127564  14.074  12.039  10.703
41889SOL    HW227565  14.106  11.898  10.750
41890SOL     OW27566   9.044   7.790  13.062
41890SOL    HW127567   9.092   7.836  13.131
41890SOL    HW227568   9.038   7.700  13.094
41891SOL     OW27569   2.357   1.785   1.781
41891SOL    HW127570   2.346   1.872   1.820
41891SOL    HW227571   2.336   1.798   1.689
41892SOL     OW27572  14.703   3.631  13.067
41892SOL    HW127573  14.721   3.706  13.010
41892SOL    HW227574  14.628   3.588  13.025
41893SOL     OW27575   8.275   5.801   3.689
41893SOL    HW127576   8.344   5.846   3.737
41893SOL    HW227577   8.318   5.767   3.611
41894SOL     OW27578   5.399   4.759   6.562
41894SOL    HW127579   5.479   4.789   6.519
41894SOL    HW227580   5.354   4.839   6.588
41895SOL     OW27581   5.653  12.772   8.346
41895SOL    HW127582   5.652  12.812   8.433
41895SOL    HW227583   5.741  12.788   8.313
41896SOL     OW27584  12.055   4.836   2.284
41896SOL    HW127585  12.041   4.919   2.237
41896SOL    HW227586  12.051   4.769   2.216
41897SOL     OW27587  10.883   0.210  11.641
41897SOL    HW127588  10.919   0.298  11.635
41897SOL    HW227589  10.810   0.210  11.579
41898SOL     OW27590   6.088   3.399   1.597
41898SOL    HW127591   6.019   3.394   1.663
41898SOL    HW227592   6.042   3.391   1.513
41899SOL     OW27593   9.107   1.300  12.550
41899SOL    HW127594   9.092   1.299  12.456
41899SOL    HW227595   9.044   1.362  12.584
41900SOL     OW27596   8.118  11.909  12.373
41900SOL    HW127597   8.085  11.858  12.299
41900SOL    HW227598   8.100  12.000  12.349
41901SOL     OW27599   5.956  10.881  10.692
41901SOL    HW127600   6.046  10.857  10.713
41901SOL    HW227601   5.917  10.802  10.655
41902SOL     OW27602   1.047   1.145   9.508
41902SOL    HW127603   0.992   1.075   9.544
41902SOL    HW227604   1.092   1.105   9.434
41903SOL     OW27605   4.688   0.179  13.512
41903SOL    HW127606   4.642   0.101  13.480
41903SOL    HW227607   4.750   0.145  13.577
41904SOL     OW27608   6.865   5.466  10.580
41904SOL    HW127609   6.903   5.426  10.502
41904SOL    HW227610   6.813   5.539  10.547
41905SOL     OW27611   1.849  13.280   4.852
41905SOL    HW127612   1.838  13.359   4.905
41905SOL    HW227613   1.762  13.261   4.817
41906SOL     OW27614  10.073   4.115   4.299
41906SOL    HW127615  10.160   4.124   4.337
41906SOL    HW227616  10.068   4.023   4.272
41907SOL     OW27617   3.965   1.862   4.719
41907SOL    HW127618   3.931   1.951   4.721
41907SOL    HW227619   4.029   1.859   4.790
41908SOL     OW27620  12.025   9.047   8.605
41908SOL    HW127621  12.119   9.062   8.601
41908SOL    HW227622  12.012   8.996   8.685
41909SOL     OW27623  14.656   9.894   5.924
41909SOL    HW127624  14.630   9.802   5.912
41909SOL    HW227625  14.599   9.925   5.995
41910SOL     OW27626  13.573   6.348   0.731
41910SOL    HW127627  13.644   6.292   0.762
41910SOL    HW227628  13.510   6.348   0.803
41911SOL     OW27629   5.310   6.735   2.644
41911SOL    HW127630   5.382   6.675   2.667
41911SOL    HW227631   5.287   6.711   2.554
41912SOL     OW27632  14.262  10.534   6.596
41912SOL    HW127633  14.320  10.610   6.600
41912SOL    HW227634  14.298  10.473   6.661
41913SOL     OW27635   3.890   3.490  10.713
41913SOL    HW127636   3.845   3.430  10.655
41913SOL    HW227637   3.958   3.437  10.755
41914SOL     OW27638  14.003   1.242  14.725
41914SOL    HW127639  13.985   1.310  14.660
41914SOL    HW227640  13.949   1.266  14.800
41915SOL     OW27641   2.152   2.794  13.734
41915SOL    HW127642   2.181   2.799  13.643
41915SOL    HW227643   2.195   2.868  13.777
41916SOL     OW27644  10.031  10.718  14.372
41916SOL    HW127645   9.983  10.798  14.395
41916SOL    HW227646  10.009  10.703  14.280
41917SOL     OW27647   9.813   8.319   1.163
41917SOL    HW127648   9.877   8.300   1.232
41917SOL    HW227649   9.834   8.259   1.093
41918SOL     OW27650   9.706   8.822   1.627
41918SOL    HW127651   9.756   8.824   1.709
41918SOL    HW227652   9.637   8.758   1.642
41919SOL     OW27653   7.150   6.740   2.192
41919SOL    HW127654   7.165   6.826   2.231
41919SOL    HW227655   7.196   6.679   2.250
41920SOL     OW27656   7.316  11.142  14.665
41920SOL    HW127657   7.358  11.160  14.750
41920SOL    HW227658   7.241  11.088  14.686
41921SOL     OW27659   6.837   3.328   4.543
41921SOL    HW127660   6.822   3.259   4.478
41921SOL    HW227661   6.930   3.349   4.533
41922SOL     OW27662  13.971   0.787   5.511
41922SOL    HW127663  13.935   0.734   5.583
41922SOL    HW227664  13.928   0.753   5.433
41923SOL     OW27665  10.972   9.324  11.824
41923SOL    HW127666  10.925   9.384  11.766
41923SOL    HW227667  10.914   9.314  11.900
41924SOL     OW27668   1.322   8.602   7.027
41924SOL    HW127669   1.370   8.554   6.960
41924SOL    HW227670   1.232   8.602   6.997
41925SOL     OW27671  11.217  13.559   3.627
41925SOL    HW127672  11.219  13.544   3.721
41925SOL    HW227673  11.306  13.586   3.605
41926SOL     OW27674  10.246   3.504   5.889
41926SOL    HW127675  10.180   3.572   5.904
41926SOL    HW227676  10.281   3.485   5.976
41927SOL     OW27677   8.264   3.589   9.126
41927SOL    HW127678   8.170   3.605   9.134
41927SOL    HW227679   8.277   3.562   9.035
41928SOL     OW27680   6.007   1.223   8.364
41928SOL    HW127681   6.028   1.148   8.307
41928SOL    HW227682   6.054   1.205   8.445
41929SOL     OW27683  13.640   9.011   7.614
41929SOL    HW127684  13.695   9.000   7.537
41929SOL    HW227685  13.640   8.924   7.656
41930SOL     OW27686   2.442   1.682   8.902
41930SOL    HW127687   2.524   1.635   8.890
41930SOL    HW227688   2.422   1.673   8.995
41931SOL     OW27689   1.360  10.110   2.957
41931SOL    HW127690   1.451  10.111   2.927
41931SOL    HW227691   1.349  10.193   3.002
41932SOL     OW27692   6.932  13.244   7.191
41932SOL    HW127693   6.999  13.290   7.140
41932SOL    HW227694   6.852  13.294   7.175
41933SOL     OW27695   4.242   1.577   0.789
41933SOL    HW127696   4.199   1.493   0.802
41933SOL    HW227697   4.275   1.601   0.875
41934SOL     OW27698  11.235   1.388   9.854
41934SOL    HW127699  11.268   1.450   9.919
41934SOL    HW227700  11.255   1.429   9.770
41935SOL     OW27701   8.509  10.442  11.369
41935SOL    HW127702   8.534  10.522  11.323
41935SOL    HW227703   8.559  10.445  11.451
41936SOL     OW27704   9.789  10.717   3.816
41936SOL    HW127705   9.844  10.715   3.738
41936SOL    HW227706   9.738  10.798   3.808
41937SOL     OW27707   5.946  11.768  11.258
41937SOL    HW127708   5.908  11.681  11.271
41937SOL    HW227709   5.972  11.796  11.345
41938SOL     OW27710  11.155  14.288   3.463
41938SOL    HW127711  11.073  14.271   3.417
41938SOL    HW227712  11.220  14.297   3.393
41939SOL     OW27713  11.318   5.699   1.248
41939SOL    HW127714  11.412   5.679   1.242
41939SOL    HW227715  11.303   5.764   1.180
41940SOL     OW27716   7.034   0.321   7.791
41940SOL    HW127717   7.017   0.271   7.711
41940SOL    HW227718   7.071   0.258   7.852
41941SOL     OW27719  10.386  12.770   7.241
41941SOL    HW127720  10.390  12.863   7.220
41941SOL    HW227721  10.477  12.740   7.237
41942SOL     OW27722   6.211  10.183   8.693
41942SOL    HW127723   6.271  10.130   8.639
41942SOL    HW227724   6.246  10.175   8.782
41943SOL     OW27725  10.426   4.152   2.413
41943SOL    HW127726  10.476   4.200   2.347
41943SOL    HW227727  10.481   4.076   2.433
41944SOL     OW27728  12.517   9.647   4.112
41944SOL    HW127729  12.461   9.648   4.190
41944SOL    HW227730  12.592   9.592   4.137
41945SOL     OW27731  14.208   8.979   4.829
41945SOL    HW127732  14.222   8.892   4.865
41945SOL    HW227733  14.184   8.965   4.738
41946SOL     OW27734  13.867   4.840   8.521
41946SOL    HW127735  13.910   4.887   8.450
41946SOL    HW227736  13.885   4.748   8.503
41947SOL     OW27737   1.919   7.356   2.521
41947SOL    HW127738   1.899   7.271   2.561
41947SOL    HW227739   1.915   7.418   2.594
41948SOL     OW27740   6.787  12.613   8.069
41948SOL    HW127741   6.810  12.600   8.161
41948SOL    HW227742   6.734  12.693   8.069
41949SOL     OW27743   6.341  14.247  11.657
41949SOL    HW127744   6.388  14.319  11.614
41949SOL    HW227745   6.363  14.170  11.605
41950SOL     OW27746   3.769  11.624   3.283
41950SOL    HW127747   3.709  11.549   3.278
41950SOL    HW227748   3.738  11.675   3.358
41951SOL     OW27749   9.697   1.791  12.617
41951SOL    HW127750   9.624   1.778  12.556
41951SOL    HW227751   9.696   1.713  12.673
41952SOL     OW27752   4.236   2.853  11.367
41952SOL    HW127753   4.175   2.911  11.414
41952SOL    HW227754   4.323   2.880  11.397
41953SOL     OW27755  10.388  10.234   6.503
41953SOL    HW127756  10.438  10.184   6.568
41953SOL    HW227757  10.406  10.190   6.420
41954SOL     OW27758   1.672   9.329   8.401
41954SOL    HW127759   1.668   9.416   8.440
41954SOL    HW227760   1.763   9.301   8.415
41955SOL     OW27761   2.717   7.704   7.377
41955SOL    HW127762   2.700   7.665   7.463
41955SOL    HW227763   2.785   7.769   7.394
41956SOL     OW27764  14.705   5.456  13.639
41956SOL    HW127765  14.680   5.363  13.640
41956SOL    HW227766  14.638   5.498  13.586
41957SOL     OW27767   8.225   2.809   8.946
41957SOL    HW127768   8.142   2.767   8.922
41957SOL    HW227769   8.198   2.889   8.991
41958SOL     OW27770  12.028  11.984   8.293
41958SOL    HW127771  11.975  12.027   8.360
41958SOL    HW227772  11.965  11.940   8.236
41959SOL     OW27773  13.691   3.500   5.488
41959SOL    HW127774  13.606   3.465   5.463
41959SOL    HW227775  13.722   3.545   5.410
41960SOL     OW27776   2.341  10.753  10.133
41960SOL    HW127777   2.286  10.751  10.055
41960SOL    HW227778   2.397  10.830  10.122
41961SOL     OW27779   4.195   3.071   6.949
41961SOL    HW127780   4.153   3.121   6.879
41961SOL    HW227781   4.124   3.047   7.008
41962SOL     OW27782   2.540   7.618   9.794
41962SOL    HW127783   2.513   7.685   9.731
41962SOL    HW227784   2.523   7.658   9.879
41963SOL     OW27785  10.326  14.384   5.066
41963SOL    HW127786  10.307  14.295   5.096
41963SOL    HW227787  10.303  14.385   4.973
41964SOL     OW27788  10.396   5.809   1.909
41964SOL    HW127789  10.334   5.738   1.890
41964SOL    HW227790  10.480   5.777   1.876
41965SOL     OW27791  10.747   3.515   9.158
41965SOL    HW127792  10.741   3.610   9.168
41965SOL    HW227793  10.803   3.486   9.230
41966SOL     OW27794   7.027   9.983  13.392
41966SOL    HW127795   6.941  10.016  13.367
41966SOL    HW227796   7.046  10.027  13.475
41967SOL     OW27797   1.245   8.678   2.571
41967SOL    HW127798   1.199   8.761   2.586
41967SOL    HW227799   1.236   8.630   2.653
41968SOL     OW27800   1.450   3.344   0.461
41968SOL    HW127801   1.516   3.281   0.433
41968SOL    HW227802   1.457   3.416   0.398
41969SOL     OW27803  14.145  11.028   3.613
41969SOL    HW127804  14.161  11.086   3.539
41969SOL    HW227805  14.129  11.087   3.687
41970SOL     OW27806  14.296  11.687   5.708
41970SOL    HW127807  14.351  11.757   5.673
41970SOL    HW227808  14.210  11.727   5.721
41971SOL     OW27809  13.396   8.301   6.061
41971SOL    HW127810  13.474   8.348   6.031
41971SOL    HW227811  13.407   8.212   6.028
41972SOL     OW27812   0.320   3.500  13.039
41972SOL    HW127813   0.317   3.521  12.946
41972SOL    HW227814   0.232   3.469  13.060
41973SOL     OW27815   7.089   1.172   1.869
41973SOL    HW127816   7.076   1.088   1.914
41973SOL    HW227817   7.041   1.235   1.923
41974SOL     OW27818  14.540   5.311   4.853
41974SOL    HW127819  14.619   5.305   4.799
41974SOL    HW227820  14.553   5.246   4.922
41975SOL     OW27821   4.738  11.857   8.700
41975SOL    HW127822   4.828  11.825   8.702
41975SOL    HW227823   4.694  11.807   8.768
41976SOL     OW27824  14.695   3.777   7.271
41976SOL    HW127825  14.611   3.758   7.230
41976SOL    HW227826  14.673   3.833   7.346
41977SOL     OW27827   8.116   4.499  11.019
41977SOL    HW127828   8.090   4.423  11.072
41977SOL    HW227829   8.098   4.575  11.075
41978SOL     OW27830  14.723  11.186   0.269
41978SOL    HW127831  14.788  11.164   0.335
41978SOL    HW227832  14.770  11.240   0.205
41979SOL     OW27833   1.190   4.305   4.877
41979SOL    HW127834   1.137   4.229   4.903
41979SOL    HW227835   1.189   4.362   4.953
41980SOL     OW27836   4.608   3.975  12.027
41980SOL    HW127837   4.627   4.036  11.957
41980SOL    HW227838   4.693   3.953  12.065
41981SOL     OW27839   4.026  12.855  14.773
41981SOL    HW127840   4.050  12.934  14.822
41981SOL    HW227841   4.042  12.877  14.682
41982SOL     OW27842   4.877  13.993  12.959
41982SOL    HW127843   4.800  13.936  12.954
41982SOL    HW227844   4.942  13.943  13.008
41983SOL     OW27845  10.874   0.097   9.105
41983SOL    HW127846  10.812   0.040   9.150
41983SOL    HW227847  10.820   0.149   9.045
41984SOL     OW27848   9.032   5.984   4.713
41984SOL    HW127849   9.078   5.902   4.731
41984SOL    HW227850   8.951   5.977   4.763
41985SOL     OW27851   8.616   3.397  11.746
41985SOL    HW127852   8.606   3.474  11.690
41985SOL    HW227853   8.527   3.366  11.761
41986SOL     OW27854   7.881   5.104   9.245
41986SOL    HW127855   7.846   5.104   9.156
41986SOL    HW227856   7.934   5.183   9.251
41987SOL     OW27857   7.540  12.573  14.214
41987SOL    HW127858   7.487  12.636  14.166
41987SOL    HW227859   7.540  12.605  14.304
41988SOL     OW27860   5.896   2.074   4.633
41988SOL    HW127861   5.888   2.142   4.566
41988SOL    HW227862   5.837   2.005   4.605
41989SOL     OW27863   3.066   9.662  11.722
41989SOL    HW127864   3.106   9.707  11.647
41989SOL    HW227865   3.092   9.715  11.798
41990SOL     OW27866  12.709   0.889   0.982
41990SOL    HW127867  12.765   0.864   1.055
41990SOL    HW227868  12.635   0.934   1.022
41991SOL     OW27869   6.562   8.378   9.073
41991SOL    HW127870   6.586   8.459   9.117
41991SOL    HW227871   6.639   8.355   9.021
41992SOL     OW27872   6.591  14.837   6.476
41992SOL    HW127873   6.579   0.058   6.445
41992SOL    HW227874   6.508  14.814   6.519
41993SOL     OW27875   2.420   5.369   1.760
41993SOL    HW127876   2.371   5.298   1.718
41993SOL    HW227877   2.355   5.416   1.811
41994SOL     OW27878   4.206  14.273  12.305
41994SOL    HW127879   4.209  14.227  12.221
41994SOL    HW227880   4.237  14.210  12.369
41995SOL     OW27881   2.982  14.237   8.382
41995SOL    HW127882   2.910  14.298   8.369
41995SOL    HW227883   3.007  14.210   8.294
41996SOL     OW27884  13.426   7.492   9.958
41996SOL    HW127885  13.386   7.553  10.020
41996SOL    HW227886  13.403   7.405   9.992
41997SOL     OW27887   0.716   3.807   1.142
41997SOL    HW127888   0.662   3.880   1.172
41997SOL    HW227889   0.794   3.849   1.104
41998SOL     OW27890   8.795   7.591   7.733
41998SOL    HW127891   8.806   7.612   7.640
41998SOL    HW227892   8.703   7.564   7.740
41999SOL     OW27893   3.811   6.296   3.613
41999SOL    HW127894   3.896   6.320   3.648
41999SOL    HW227895   3.830   6.239   3.538
42000SOL     OW27896  11.805   5.431   1.560
42000SOL    HW127897  11.716   5.403   1.540
42000SOL    HW227898  11.795   5.512   1.610
42001SOL     OW27899  11.795   2.750  14.115
42001SOL    HW127900  11.729   2.680  14.125
42001SOL    HW227901  11.743   2.830  14.107
42002SOL     OW27902  14.775   2.727   1.727
42002SOL    HW127903  14.682   2.736   1.710
42002SOL    HW227904  14.812   2.691   1.646
42003SOL     OW27905   8.145   5.210   3.865
42003SOL    HW127906   8.128   5.293   3.909
42003SOL    HW227907   8.134   5.229   3.772
42004SOL     OW27908   3.776   9.629   5.781
42004SOL    HW127909   3.751   9.668   5.697
42004SOL    HW227910   3.867   9.657   5.794
42005SOL     OW27911   1.698   6.553  14.523
42005SOL    HW127912   1.757   6.504  14.582
42005SOL    HW227913   1.756   6.586  14.454
42006SOL     OW27914   5.480   3.499   4.357
42006SOL    HW127915   5.417   3.427   4.359
42006SOL    HW227916   5.444   3.560   4.292
42007SOL     OW27917   1.633   7.360  13.997
42007SOL    HW127918   1.695   7.419  13.955
42007SOL    HW227919   1.547   7.401  13.982
42008SOL     OW27920   4.478   5.347   3.763
42008SOL    HW127921   4.396   5.312   3.728
42008SOL    HW227922   4.457   5.372   3.853
42009SOL     OW27923   8.308   5.476   4.554
42009SOL    HW127924   8.360   5.556   4.559
42009SOL    HW227925   8.342   5.429   4.479
42010SOL     OW27926   7.381  12.994   1.274
42010SOL    HW127927   7.381  13.089   1.260
42010SOL    HW227928   7.474  12.970   1.277
42011SOL     OW27929   5.213   0.087  12.862
42011SOL    HW127930   5.234   0.110  12.953
42011SOL    HW227931   5.197  14.860  12.864
42012SOL     OW27932   1.677   6.785   3.668
42012SOL    HW127933   1.606   6.806   3.728
42012SOL    HW227934   1.752   6.833   3.702
42013SOL     OW27935   2.999   5.398   2.733
42013SOL    HW127936   3.078   5.431   2.690
42013SOL    HW227937   3.021   5.400   2.826
42014SOL     OW27938  12.704  10.939  14.403
42014SOL    HW127939  12.685  10.848  14.381
42014SOL    HW227940  12.640  10.990  14.354
42015SOL     OW27941   5.121  11.136   0.528
42015SOL    HW127942   5.061  11.135   0.453
42015SOL    HW227943   5.064  11.148   0.604
42016SOL     OW27944  11.053   1.971   5.773
42016SOL    HW127945  11.033   1.954   5.865
42016SOL    HW227946  11.149   1.964   5.768
42017SOL     OW27947   3.121   7.992   6.695
42017SOL    HW127948   3.209   8.013   6.663
42017SOL    HW227949   3.112   8.040   6.777
42018SOL     OW27950   4.441   4.485   0.920
42018SOL    HW127951   4.532   4.510   0.903
42018SOL    HW227952   4.396   4.497   0.836
42019SOL     OW27953   2.955   5.745  13.513
42019SOL    HW127954   2.957   5.822  13.570
42019SOL    HW227955   2.960   5.780  13.425
42020SOL     OW27956   2.405   2.481  11.863
42020SOL    HW127957   2.459   2.481  11.784
42020SOL    HW227958   2.328   2.429  11.839
42021SOL     OW27959   2.578   8.066  11.233
42021SOL    HW127960   2.508   8.115  11.275
42021SOL    HW227961   2.602   8.119  11.157
42022SOL     OW27962   6.163  13.482   6.391
42022SOL    HW127963   6.095  13.542   6.421
42022SOL    HW227964   6.118  13.398   6.378
42023SOL     OW27965   0.011   3.422   8.133
42023SOL    HW127966   0.053   3.508   8.119
42023SOL    HW227967  14.785   3.440   8.131
42024SOL     OW27968   8.916   0.898   1.234
42024SOL    HW127969   8.935   0.989   1.253
42024SOL    HW227970   8.871   0.865   1.311
42025SOL     OW27971  13.473   8.113  12.413
42025SOL    HW127972  13.457   8.108  12.507
42025SOL    HW227973  13.430   8.194  12.386
42026SOL     OW27974   2.110   7.015  12.379
42026SOL    HW127975   2.151   6.975  12.455
42026SOL    HW227976   2.058   7.086  12.415
42027SOL     OW27977   6.925   1.985   1.114
42027SOL    HW127978   6.914   2.067   1.162
42027SOL    HW227979   6.878   1.998   1.032
42028SOL     OW27980  11.571   3.044   4.616
42028SOL    HW127981  11.584   2.997   4.534
42028SOL    HW227982  11.604   2.984   4.684
42029SOL     OW27983  10.302  10.666   6.485
42029SOL    HW127984  10.321  10.656   6.392
42029SOL    HW227985  10.297  10.760   6.499
42030SOL     OW27986   3.913   6.537   2.324
42030SOL    HW127987   3.919   6.607   2.258
42030SOL    HW227988   3.937   6.580   2.406
42031SOL     OW27989   6.658   0.237   6.506
42031SOL    HW127990   6.682   0.214   6.595
42031SOL    HW227991   6.739   0.227   6.456
42032SOL     OW27992  12.045   2.094   1.267
42032SOL    HW127993  12.099   2.121   1.193
42032SOL    HW227994  11.980   2.164   1.277
42033SOL     OW27995   7.149   5.015  13.829
42033SOL    HW127996   7.167   5.099  13.786
42033SOL    HW227997   7.171   4.950  13.762
42034SOL     OW27998   8.188   3.992  13.323
42034SOL    HW127999   8.101   3.960  13.346
42034SOL    HW228000   8.222   3.925  13.263
42035SOL     OW28001   6.452   4.689   1.117
42035SOL    HW128002   6.506   4.640   1.055
42035SOL    HW228003   6.369   4.642   1.119
42036SOL     OW28004   2.156  12.698   2.900
42036SOL    HW128005   2.131  12.607   2.888
42036SOL    HW228006   2.251  12.699   2.890
42037SOL     OW28007  14.403   5.282   7.262
42037SOL    HW128008  14.455   5.323   7.331
42037SOL    HW228009  14.418   5.188   7.273
42038SOL     OW28010  13.319   9.789   7.275
42038SOL    HW128011  13.314   9.851   7.348
42038SOL    HW228012  13.411   9.791   7.249
42039SOL     OW28013  11.625   1.295  12.433
42039SOL    HW128014  11.533   1.305  12.460
42039SOL    HW228015  11.645   1.376  12.387
42040SOL     OW28016  12.086  13.906   7.523
42040SOL    HW128017  12.097  13.825   7.574
42040SOL    HW228018  12.099  13.879   7.432
42041SOL     OW28019   6.720  12.167   2.796
42041SOL    HW128020   6.763  12.219   2.728
42041SOL    HW228021   6.627  12.175   2.777
42042SOL     OW28022  13.036  13.560  14.214
42042SOL    HW128023  13.099  13.592  14.278
42042SOL    HW228024  13.057  13.468  14.202
42043SOL     OW28025  10.739   3.881   8.585
42043SOL    HW128026  10.699   3.798   8.557
42043SOL    HW228027  10.666   3.932   8.620
42044SOL     OW28028  14.637  12.178   4.452
42044SOL    HW128029  14.693  12.244   4.411
42044SOL    HW228030  14.672  12.094   4.423
42045SOL     OW28031   3.213   8.286   0.644
42045SOL    HW128032   3.171   8.227   0.707
42045SOL    HW228033   3.295   8.241   0.621
42046SOL     OW28034   4.780   8.724   8.498
42046SOL    HW128035   4.812   8.782   8.428
42046SOL    HW228036   4.686   8.740   8.501
42047SOL     OW28037   9.972   7.158  13.596
42047SOL    HW128038  10.023   7.102  13.654
42047SOL    HW228039   9.893   7.108  13.577
42048SOL     OW28040  13.928   6.423   2.633
42048SOL    HW128041  13.911   6.409   2.726
42048SOL    HW228042  13.989   6.354   2.609
42049SOL     OW28043   3.917  14.297  13.020
42049SOL    HW128044   3.900  14.214  12.975
42049SOL    HW228045   3.955  14.354  12.953
42050SOL     OW28046  12.871  11.436   7.495
42050SOL    HW128047  12.835  11.349   7.481
42050SOL    HW228048  12.965  11.423   7.499
42051SOL     OW28049   2.787   3.150   6.948
42051SOL    HW128050   2.785   3.136   7.042
42051SOL    HW228051   2.792   3.245   6.937
42052SOL     OW28052   5.299  11.128   8.470
42052SOL    HW128053   5.293  11.180   8.390
42052SOL    HW228054   5.386  11.090   8.468
42053SOL     OW28055   6.917   2.590   0.230
42053SOL    HW128056   6.836   2.641   0.220
42053SOL    HW228057   6.961   2.599   0.146
42054SOL     OW28058  11.203  13.716   2.569
42054SOL    HW128059  11.278  13.661   2.592
42054SOL    HW228060  11.176  13.687   2.482
42055SOL     OW28061   3.384   7.578  11.394
42055SOL    HW128062   3.381   7.569  11.299
42055SOL    HW228063   3.430   7.500  11.424
42056SOL     OW28064   3.170   1.623  10.359
42056SOL    HW128065   3.216   1.543  10.332
42056SOL    HW228066   3.079   1.606  10.336
42057SOL     OW28067   6.405   8.350  10.590
42057SOL    HW128068   6.325   8.399  10.610
42057SOL    HW228069   6.416   8.359  10.496
42058SOL     OW28070  13.011  11.681  12.929
42058SOL    HW128071  12.989  11.737  13.004
42058SOL    HW228072  13.087  11.723  12.889
42059SOL     OW28073   5.243   4.028   9.418
42059SOL    HW128074   5.293   3.966   9.366
42059SOL    HW228075   5.286   4.112   9.402
42060SOL     OW28076  14.222   3.987   5.095
42060SOL    HW128077  14.184   3.974   5.182
42060SOL    HW228078  14.153   4.032   5.046
42061SOL     OW28079  13.730  14.523   3.406
42061SOL    HW128080  13.716  14.429   3.393
42061SOL    HW228081  13.702  14.562   3.323
42062SOL     OW28082  11.845  13.444   5.788
42062SOL    HW128083  11.756  13.412   5.772
42062SOL    HW228084  11.899  13.365   5.786
42063SOL     OW28085   9.390   8.970   1.100
42063SOL    HW128086   9.330   8.954   1.173
42063SOL    HW228087   9.336   8.966   1.022
42064SOL     OW28088  10.421   5.509  11.892
42064SOL    HW128089  10.470   5.430  11.916
42064SOL    HW228090  10.360   5.480  11.824
42065SOL     OW28091   4.424   8.591  12.462
42065SOL    HW128092   4.440   8.534  12.537
42065SOL    HW228093   4.512   8.612  12.429
42066SOL     OW28094  11.886   8.221   5.618
42066SOL    HW128095  11.822   8.259   5.557
42066SOL    HW228096  11.848   8.136   5.643
42067SOL     OW28097   3.244   7.715   3.425
42067SOL    HW128098   3.280   7.626   3.416
42067SOL    HW228099   3.321   7.771   3.436
42068SOL     OW28100   2.833   6.401   5.559
42068SOL    HW128101   2.739   6.417   5.569
42068SOL    HW228102   2.873   6.452   5.630
42069SOL     OW28103  10.081  14.257   1.667
42069SOL    HW128104  10.140  14.188   1.635
42069SOL    HW228105  10.013  14.262   1.600
42070SOL     OW28106  10.624   9.876  11.416
42070SOL    HW128107  10.536   9.846  11.441
42070SOL    HW228108  10.610   9.925  11.335
42071SOL     OW28109   5.741  11.395  13.967
42071SOL    HW128110   5.648  11.395  13.990
42071SOL    HW228111   5.784  11.439  14.040
42072SOL     OW28112  10.219  14.504  10.968
42072SOL    HW128113  10.246  14.594  10.987
42072SOL    HW228114  10.206  14.502  10.873
42073SOL     OW28115   0.095  10.581  11.387
42073SOL    HW128116   0.164  10.640  11.417
42073SOL    HW228117   0.080  10.523  11.461
42074SOL     OW28118   8.610  11.896   0.885
42074SOL    HW128119   8.690  11.941   0.860
42074SOL    HW228120   8.540  11.947   0.843
42075SOL     OW28121  13.131   0.506  13.521
42075SOL    HW128122  13.084   0.578  13.564
42075SOL    HW228123  13.196   0.478  13.586
42076SOL     OW28124   2.447  14.218   0.583
42076SOL    HW128125   2.474  14.307   0.560
42076SOL    HW228126   2.384  14.194   0.515
42077SOL     OW28127   1.880   5.912  10.064
42077SOL    HW128128   1.815   5.981  10.074
42077SOL    HW228129   1.872   5.859  10.143
42078SOL     OW28130  12.311   2.011   8.942
42078SOL    HW128131  12.314   1.964   9.025
42078SOL    HW228132  12.370   1.962   8.884
42079SOL     OW28133   7.749   4.248  13.343
42079SOL    HW128134   7.730   4.341  13.354
42079SOL    HW228135   7.839   4.245  13.311
42080SOL     OW28136   7.373   0.829   0.043
42080SOL    HW128137   7.464   0.841   0.070
42080SOL    HW228138   7.374   0.750  14.857
42081SOL     OW28139   0.410   2.909  14.236
42081SOL    HW128140   0.324   2.871  14.221
42081SOL    HW228141   0.456   2.900  14.152
42082SOL     OW28142  10.931  12.158   1.525
42082SOL    HW128143  10.987  12.200   1.591
42082SOL    HW228144  10.991  12.132   1.456
42083SOL     OW28145  13.312   9.132   8.888
42083SOL    HW128146  13.307   9.160   8.980
42083SOL    HW228147  13.355   9.046   8.891
42084SOL     OW28148   8.090   1.966  14.714
42084SOL    HW128149   8.118   1.974  14.805
42084SOL    HW228150   8.079   1.871  14.701
42085SOL     OW28151   0.759   4.899   1.269
42085SOL    HW128152   0.807   4.820   1.293
42085SOL    HW228153   0.732   4.883   1.178
42086SOL     OW28154   8.476   0.397   1.868
42086SOL    HW128155   8.539   0.353   1.925
42086SOL    HW228156   8.418   0.444   1.928
42087SOL     OW28157   2.602  12.765   1.246
42087SOL    HW128158   2.577  12.674   1.231
42087SOL    HW228159   2.690  12.773   1.208
42088SOL     OW28160   8.230  13.327  10.267
42088SOL    HW128161   8.153  13.298  10.218
42088SOL    HW228162   8.223  13.282  10.351
42089SOL     OW28163   3.078  14.814   8.476
42089SOL    HW128164   3.173  14.811   8.471
42089SOL    HW228165   3.053   0.024   8.427
42090SOL     OW28166   7.083   2.639  11.912
42090SOL    HW128167   7.112   2.595  11.992
42090SOL    HW228168   6.988   2.626  11.911
42091SOL     OW28169   8.576  12.901   8.660
42091SOL    HW128170   8.626  12.823   8.685
42091SOL    HW228171   8.504  12.867   8.607
42092SOL     OW28172  10.706  13.407  12.383
42092SOL    HW128173  10.777  13.344  12.393
42092SOL    HW228174  10.627  13.353  12.377
42093SOL     OW28175   3.734  11.613   4.070
42093SOL    HW128176   3.768  11.681   4.128
42093SOL    HW228177   3.798  11.608   3.999
42094SOL     OW28178  12.536   7.145   6.785
42094SOL    HW128179  12.467   7.093   6.744
42094SOL    HW228180  12.498   7.232   6.796
42095SOL     OW28181  14.445  12.087   4.991
42095SOL    HW128182  14.537  12.063   4.980
42095SOL    HW228183  14.400  12.005   5.008
42096SOL     OW28184  14.397  12.408   2.015
42096SOL    HW128185  14.334  12.389   2.084
42096SOL    HW228186  14.387  12.502   1.999
42097SOL     OW28187   3.313   6.955  13.303
42097SOL    HW128188   3.242   6.977  13.242
42097SOL    HW228189   3.292   6.868  13.335
42098SOL     OW28190  10.318   4.641   8.309
42098SOL    HW128191  10.300   4.598   8.225
42098SOL    HW228192  10.330   4.733   8.287
42099SOL     OW28193  10.713  11.693   1.661
42099SOL    HW128194  10.636  11.721   1.611
42099SOL    HW228195  10.688  11.705   1.752
42100SOL     OW28196   1.373   3.790   6.650
42100SOL    HW128197   1.299   3.816   6.704
42100SOL    HW228198   1.379   3.695   6.661
42101SOL     OW28199  10.851   6.259   0.267
42101SOL    HW128200  10.895   6.326   0.319
42101SOL    HW228201  10.780   6.305   0.223
42102SOL     OW28202  10.717  11.424   1.637
42102SOL    HW128203  10.716  11.411   1.543
42102SOL    HW228204  10.702  11.518   1.648
42103SOL     OW28205  13.619  10.446  10.076
42103SOL    HW128206  13.673  10.496  10.014
42103SOL    HW228207  13.563  10.512  10.117
42104SOL     OW28208   7.884   2.260  12.369
42104SOL    HW128209   7.828   2.289  12.297
42104SOL    HW228210   7.823   2.220  12.431
42105SOL     OW28211   4.191  11.310   0.820
42105SOL    HW128212   4.154  11.356   0.744
42105SOL    HW228213   4.127  11.322   0.889
42106SOL     OW28214  10.052   8.092   1.190
42106SOL    HW128215  10.098   8.125   1.113
42106SOL    HW228216  10.115   8.033   1.232
42107SOL     OW28217   4.243  12.480   2.057
42107SOL    HW128218   4.157  12.487   2.098
42107SOL    HW228219   4.303  12.519   2.120
42108SOL     OW28220  12.507   5.397  14.857
42108SOL    HW128221  12.488   5.456   0.062
42108SOL    HW228222  12.515   5.455  14.781
42109SOL     OW28223   2.762   8.824  14.665
42109SOL    HW128224   2.752   8.747  14.609
42109SOL    HW228225   2.765   8.898  14.603
42110SOL     OW28226  10.915  12.265   2.509
42110SOL    HW128227  10.973  12.317   2.453
42110SOL    HW228228  10.972  12.235   2.580
42111SOL     OW28229  12.032   2.739  13.289
42111SOL    HW128230  12.000   2.690  13.364
42111SOL    HW228231  12.121   2.765  13.314
42112SOL     OW28232  14.049   8.618  11.272
42112SOL    HW128233  14.106   8.542  11.287
42112SOL    HW228234  13.964   8.590  11.305
42113SOL     OW28235   1.811   8.811   6.283
42113SOL    HW128236   1.832   8.815   6.377
42113SOL    HW228237   1.716   8.812   6.280
42114SOL     OW28238   3.785   9.970   1.436
42114SOL    HW128239   3.758   9.910   1.505
42114SOL    HW228240   3.850  10.028   1.478
42115SOL     OW28241  14.841  11.031   5.246
42115SOL    HW128242  14.844  10.937   5.228
42115SOL    HW228243  14.790  11.038   5.326
42116SOL     OW28244   6.043   4.681   5.074
42116SOL    HW128245   6.133   4.708   5.095
42116SOL    HW228246   6.036   4.594   5.112
42117SOL     OW28247   7.659   9.967  14.627
42117SOL    HW128248   7.708   9.955  14.708
42117SOL    HW228249   7.567   9.955  14.652
42118SOL     OW28250   4.650   1.567  14.448
42118SOL    HW128251   4.602   1.489  14.420
42118SOL    HW228252   4.685   1.604  14.366
42119SOL     OW28253   4.171   2.588   1.322
42119SOL    HW128254   4.216   2.670   1.303
42119SOL    HW228255   4.241   2.522   1.322
42120SOL     OW28256  10.141  14.139  14.082
42120SOL    HW128257  10.119  14.231  14.066
42120SOL    HW228258  10.231  14.141  14.113
42121SOL     OW28259   6.611  14.346  13.113
42121SOL    HW128260   6.561  14.356  13.193
42121SOL    HW228261   6.588  14.422  13.060
42122SOL     OW28262   6.204   6.849   7.503
42122SOL    HW128263   6.143   6.843   7.576
42122SOL    HW228264   6.149   6.840   7.425
42123SOL     OW28265   6.309   4.121   3.038
42123SOL    HW128266   6.328   4.133   3.131
42123SOL    HW228267   6.216   4.101   3.035
42124SOL     OW28268  14.454   4.276  13.805
42124SOL    HW128269  14.361   4.295  13.809
42124SOL    HW228270  14.460   4.181  13.807
42125SOL     OW28271  11.072  10.483   4.489
42125SOL    HW128272  11.004  10.480   4.556
42125SOL    HW228273  11.097  10.575   4.483
42126SOL     OW28274  13.011   1.243   4.952
42126SOL    HW128275  13.002   1.161   5.001
42126SOL    HW228276  12.959   1.306   5.001
42127SOL     OW28277  14.763  10.022   5.687
42127SOL    HW128278  14.746   9.978   5.770
42127SOL    HW228279  14.685  10.004   5.634
42128SOL     OW28280  13.969  10.806  13.938
42128SOL    HW128281  13.990  10.715  13.958
42128SOL    HW228282  13.901  10.800  13.871
42129SOL     OW28283   8.862   3.352   1.307
42129SOL    HW128284   8.885   3.269   1.348
42129SOL    HW228285   8.772   3.340   1.276
42130SOL     OW28286   3.166   6.454   6.094
42130SOL    HW128287   3.076   6.456   6.061
42130SOL    HW228288   3.160   6.491   6.182
42131SOL     OW28289   8.779   8.819   7.370
42131SOL    HW128290   8.865   8.851   7.396
42131SOL    HW228291   8.787   8.724   7.372
42132SOL     OW28292   3.115  14.175  12.593
42132SOL    HW128293   3.093  14.235  12.664
42132SOL    HW228294   3.068  14.094  12.614
42133SOL     OW28295   2.996   2.470   5.093
42133SOL    HW128296   2.924   2.431   5.043
42133SOL    HW228297   2.985   2.564   5.082
42134SOL     OW28298   1.023  10.539   4.959
42134SOL    HW128299   0.986  10.532   4.871
42134SOL    HW228300   1.101  10.484   4.957
42135SOL     OW28301   2.384   9.610   9.924
42135SOL    HW128302   2.345   9.650   9.846
42135SOL    HW228303   2.466   9.658   9.937
42136SOL     OW28304   4.378  11.376  13.446
42136SOL    HW128305   4.459  11.338  13.413
42136SOL    HW228306   4.398  11.400  13.537
42137SOL     OW28307  12.607  13.157   4.306
42137SOL    HW128308  12.635  13.078   4.352
42137SOL    HW228309  12.512  13.156   4.311
42138SOL     OW28310  12.254  10.075   6.694
42138SOL    HW128311  12.221  10.121   6.618
42138SOL    HW228312  12.201   9.995   6.698
42139SOL     OW28313   6.849   0.637   2.303
42139SOL    HW128314   6.929   0.585   2.313
42139SOL    HW228315   6.877   0.726   2.324
42140SOL     OW28316   7.026  14.348  14.144
42140SOL    HW128317   6.947  14.369  14.194
42140SOL    HW228318   7.097  14.350  14.208
42141SOL     OW28319  13.046   0.792  10.271
42141SOL    HW128320  13.011   0.752  10.351
42141SOL    HW228321  12.988   0.865  10.253
42142SOL     OW28322  11.375   6.283  10.741
42142SOL    HW128323  11.396   6.215  10.806
42142SOL    HW228324  11.344   6.234  10.665
42143SOL     OW28325   9.992  12.524  14.141
42143SOL    HW128326   9.956  12.588  14.201
42143SOL    HW228327   9.935  12.448  14.149
42144SOL     OW28328   6.657   6.296  11.647
42144SOL    HW128329   6.606   6.377  11.641
42144SOL    HW228330   6.614   6.236  11.585
42145SOL     OW28331   2.188  13.801   8.462
42145SOL    HW128332   2.192  13.836   8.551
42145SOL    HW228333   2.279  13.796   8.434
42146SOL     OW28334   3.038   5.603   0.243
42146SOL    HW128335   2.983   5.681   0.240
42146SOL    HW228336   3.028   5.570   0.332
42147SOL     OW28337   1.642   2.922   7.322
42147SOL    HW128338   1.603   2.998   7.365
42147SOL    HW228339   1.658   2.951   7.232
42148SOL     OW28340  13.651   1.599  12.819
42148SOL    HW128341  13.683   1.688  12.804
42148SOL    HW228342  13.702   1.545  12.759
42149SOL     OW28343  10.512   2.718  13.682
42149SOL    HW128344  10.434   2.735  13.736
42149SOL    HW228345  10.562   2.654  13.733
42150SOL     OW28346   7.274   1.980   7.111
42150SOL    HW128347   7.314   1.925   7.043
42150SOL    HW228348   7.246   2.059   7.065
42151SOL     OW28349   1.117   0.269  10.587
42151SOL    HW128350   1.040   0.212  10.586
42151SOL    HW228351   1.191   0.210  10.581
42152SOL     OW28352   8.198   3.093   4.919
42152SOL    HW128353   8.134   3.071   4.852
42152SOL    HW228354   8.147   3.134   4.989
42153SOL     OW28355  11.861   9.658  13.135
42153SOL    HW128356  11.776   9.616  13.151
42153SOL    HW228357  11.840   9.734  13.081
42154SOL     OW28358   1.898  10.202  12.592
42154SOL    HW128359   1.979  10.187  12.543
42154SOL    HW228360   1.839  10.132  12.563
42155SOL     OW28361  14.625  12.781  10.667
42155SOL    HW128362  14.644  12.720  10.596
42155SOL    HW228363  14.710  12.815  10.694
42156SOL     OW28364   3.637   0.450   4.433
42156SOL    HW128365   3.712   0.502   4.404
42156SOL    HW228366   3.644   0.368   4.384
42157SOL     OW28367   2.480   8.938   4.338
42157SOL    HW128368   2.394   8.899   4.321
42157SOL    HW228369   2.541   8.865   4.328
42158SOL     OW28370  11.245   0.349   7.789
42158SOL    HW128371  11.203   0.330   7.705
42158SOL    HW228372  11.337   0.362   7.767
42159SOL     OW28373   0.204  14.459   3.721
42159SOL    HW128374   0.156  14.417   3.650
42159SOL    HW228375   0.289  14.415   3.722
42160SOL     OW28376   4.905   9.605  11.546
42160SOL    HW128377   4.940   9.663  11.614
42160SOL    HW228378   4.971   9.537  11.537
42161SOL     OW28379   2.953   8.476  11.639
42161SOL    HW128380   2.915   8.528  11.569
42161SOL    HW228381   2.906   8.393  11.635
42162SOL     OW28382   8.679  14.820   8.508
42162SOL    HW128383   8.680  14.726   8.527
42162SOL    HW228384   8.591  14.837   8.474
42163SOL     OW28385   6.472  11.377   8.732
42163SOL    HW128386   6.397  11.328   8.766
42163SOL    HW228387   6.434  11.440   8.671
42164SOL     OW28388   3.875   5.021   8.846
42164SOL    HW128389   3.786   4.992   8.829
42164SOL    HW228390   3.879   5.033   8.941
42165SOL     OW28391   7.166   1.934   1.728
42165SOL    HW128392   7.228   1.881   1.679
42165SOL    HW228393   7.170   2.020   1.685
42166SOL     OW28394   9.842   8.905   6.261
42166SOL    HW128395   9.821   8.812   6.251
42166SOL    HW228396   9.907   8.922   6.194
42167SOL     OW28397   0.990   8.457  14.120
42167SOL    HW128398   1.006   8.468  14.026
42167SOL    HW228399   0.967   8.365  14.129
42168SOL     OW28400   8.118  11.916   1.098
42168SOL    HW128401   8.170  11.965   1.035
42168SOL    HW228402   8.170  11.838   1.118
42169SOL     OW28403   5.893   2.564  12.638
42169SOL    HW128404   5.821   2.533  12.583
42169SOL    HW228405   5.873   2.530  12.725
42170SOL     OW28406   6.235   8.752   1.781
42170SOL    HW128407   6.165   8.692   1.808
42170SOL    HW228408   6.242   8.739   1.687
42171SOL     OW28409   7.574  10.287  12.908
42171SOL    HW128410   7.598  10.380  12.910
42171SOL    HW228411   7.622  10.252  12.833
42172SOL     OW28412   3.173   4.651  13.735
42172SOL    HW128413   3.157   4.708  13.809
42172SOL    HW228414   3.268   4.644  13.730
42173SOL     OW28415   2.087  12.735   5.322
42173SOL    HW128416   2.066  12.822   5.288
42173SOL    HW228417   2.073  12.742   5.416
42174SOL     OW28418  11.577   8.383   2.602
42174SOL    HW128419  11.663   8.384   2.643
42174SOL    HW228420  11.543   8.295   2.618
42175SOL     OW28421   6.421  12.310  13.688
42175SOL    HW128422   6.427  12.251  13.613
42175SOL    HW228423   6.505  12.300  13.733
42176SOL     OW28424  13.087  11.906   8.350
42176SOL    HW128425  13.088  11.945   8.263
42176SOL    HW228426  12.996  11.880   8.364
42177SOL     OW28427  10.802   2.132  10.321
42177SOL    HW128428  10.766   2.045  10.338
42177SOL    HW228429  10.896   2.116  10.310
42178SOL     OW28430   2.964   1.467  10.252
42178SOL    HW128431   3.013   1.477  10.170
42178SOL    HW228432   2.914   1.386  10.240
42179SOL     OW28433   8.781   0.566   6.720
42179SOL    HW128434   8.775   0.564   6.816
42179SOL    HW228435   8.847   0.500   6.699
42180SOL     OW28436   2.149   6.027   2.161
42180SOL    HW128437   2.231   6.031   2.112
42180SOL    HW228438   2.081   6.035   2.094
42181SOL     OW28439   5.369   2.612   4.023
42181SOL    HW128440   5.435   2.586   3.959
42181SOL    HW228441   5.297   2.551   4.009
42182SOL     OW28442   7.873  14.081   0.543
42182SOL    HW128443   7.918  14.010   0.589
42182SOL    HW228444   7.856  14.044   0.456
42183SOL     OW28445  14.455  10.218   8.251
42183SOL    HW128446  14.494  10.130   8.259
42183SOL    HW228447  14.434  10.226   8.158
42184SOL     OW28448   1.426   2.224   4.719
42184SOL    HW128449   1.479   2.215   4.640
42184SOL    HW228450   1.468   2.168   4.784
42185SOL     OW28451  12.791   8.212  11.438
42185SOL    HW128452  12.875   8.220  11.393
42185SOL    HW228453  12.776   8.118  11.445
42186SOL     OW28454   1.395  14.498   6.335
42186SOL    HW128455   1.478  14.512   6.289
42186SOL    HW228456   1.411  14.530   6.424
42187SOL     OW28457   3.689   8.795   0.331
42187SOL    HW128458   3.703   8.742   0.252
42187SOL    HW228459   3.608   8.843   0.313
42188SOL     OW28460   6.525   2.458   0.988
42188SOL    HW128461   6.597   2.484   0.931
42188SOL    HW228462   6.476   2.393   0.937
42189SOL     OW28463   7.507   5.773  13.811
42189SOL    HW128464   7.555   5.735  13.737
42189SOL    HW228465   7.571   5.778  13.881
42190SOL     OW28466   4.134   0.562   5.776
42190SOL    HW128467   4.198   0.555   5.706
42190SOL    HW228468   4.051   0.582   5.731
42191SOL     OW28469   8.875   1.776   1.410
42191SOL    HW128470   8.829   1.834   1.349
42191SOL    HW228471   8.916   1.710   1.354
42192SOL     OW28472   1.814  11.249   4.015
42192SOL    HW128473   1.865  11.279   4.090
42192SOL    HW228474   1.810  11.154   4.027
42193SOL     OW28475   0.006   8.865  11.611
42193SOL    HW128476   0.089   8.882  11.654
42193SOL    HW228477  14.858   8.772  11.627
42194SOL     OW28478   8.554   5.678  12.236
42194SOL    HW128479   8.522   5.624  12.308
42194SOL    HW228480   8.637   5.713  12.269
42195SOL     OW28481   4.968   4.700   7.023
42195SOL    HW128482   5.048   4.731   7.064
42195SOL    HW228483   4.924   4.779   6.992
42196SOL     OW28484   6.017   8.542   9.315
42196SOL    HW128485   5.986   8.452   9.306
42196SOL    HW228486   6.002   8.581   9.228
42197SOL     OW28487   3.366   4.773   0.233
42197SOL    HW128488   3.378   4.698   0.291
42197SOL    HW228489   3.274   4.768   0.206
42198SOL     OW28490   1.525  11.532  14.655
42198SOL    HW128491   1.579  11.536  14.577
42198SOL    HW228492   1.565  11.593  14.716
42199SOL     OW28493   7.457   4.802   4.805
42199SOL    HW128494   7.424   4.872   4.747
42199SOL    HW228495   7.552   4.807   4.796
42200SOL     OW28496  12.192   4.318   9.178
42200SOL    HW128497  12.139   4.275   9.246
42200SOL    HW228498  12.155   4.406   9.172
42201SOL     OW28499  14.244   5.612   3.014
42201SOL    HW128500  14.188   5.628   3.090
42201SOL    HW228501  14.185   5.574   2.949
42202SOL     OW28502   0.009  14.150  11.581
42202SOL    HW128503  14.803  14.092  11.598
42202SOL    HW228504   0.051  14.113  11.504
42203SOL     OW28505   8.811   9.838   8.177
42203SOL    HW128506   8.854   9.803   8.099
42203SOL    HW228507   8.770   9.762   8.218
42204SOL     OW28508  10.025   8.148   8.561
42204SOL    HW128509  10.050   8.061   8.593
42204SOL    HW228510   9.937   8.136   8.526
42205SOL     OW28511  14.415   2.068   0.452
42205SOL    HW128512  14.361   2.071   0.373
42205SOL    HW228513  14.355   2.036   0.520
42206SOL     OW28514   6.158   4.906   4.439
42206SOL    HW128515   6.118   4.968   4.501
42206SOL    HW228516   6.183   4.831   4.493
42207SOL     OW28517  12.762  14.277  13.035
42207SOL    HW128518  12.784  14.275  13.128
42207SOL    HW228519  12.812  14.351  13.000
42208SOL     OW28520   0.451  13.318  12.563
42208SOL    HW128521   0.490  13.402  12.589
42208SOL    HW228522   0.522  13.255  12.571
42209SOL     OW28523  14.259   8.534   3.616
42209SOL    HW128524  14.236   8.551   3.708
42209SOL    HW228525  14.292   8.619   3.584
42210SOL     OW28526   0.335   4.997   7.885
42210SOL    HW128527   0.334   5.038   7.799
42210SOL    HW228528   0.263   5.040   7.932
42211SOL     OW28529   2.155  13.104  14.410
42211SOL    HW128530   2.150  13.199  14.401
42211SOL    HW228531   2.120  13.086  14.497
42212SOL     OW28532   2.263   9.259  12.353
42212SOL    HW128533   2.250   9.273  12.259
42212SOL    HW228534   2.254   9.347  12.391
42213SOL     OW28535   5.906  13.100   6.758
42213SOL    HW128536   5.921  13.183   6.803
42213SOL    HW228537   5.907  13.034   6.827
42214SOL     OW28538  14.351  11.898   0.229
42214SOL    HW128539  14.367  11.988   0.199
42214SOL    HW228540  14.374  11.900   0.322
42215SOL     OW28541   0.478   9.739   1.738
42215SOL    HW128542   0.547   9.792   1.699
42215SOL    HW228543   0.419   9.719   1.666
42216SOL     OW28544   6.760   0.426  12.658
42216SOL    HW128545   6.730   0.382  12.737
42216SOL    HW228546   6.794   0.511  12.689
42217SOL     OW28547   2.476  13.666   7.621
42217SOL    HW128548   2.381  13.677   7.617
42217SOL    HW228549   2.505  13.677   7.530
42218SOL     OW28550   3.416   2.810   6.721
42218SOL    HW128551   3.420   2.858   6.804
42218SOL    HW228552   3.323   2.808   6.699
42219SOL     OW28553   6.616   0.152  13.844
42219SOL    HW128554   6.709   0.170  13.860
42219SOL    HW228555   6.584   0.231  13.800
42220SOL     OW28556   5.132   6.658  14.862
42220SOL    HW128557   5.188   6.666   0.071
42220SOL    HW228558   5.166   6.581  14.816
42221SOL     OW28559  11.786   8.237  12.582
42221SOL    HW128560  11.794   8.330  12.560
42221SOL    HW228561  11.838   8.227  12.662
42222SOL     OW28562   8.426  14.499   8.662
42222SOL    HW128563   8.408  14.521   8.571
42222SOL    HW228564   8.462  14.579   8.699
42223SOL     OW28565  13.478   2.244   1.620
42223SOL    HW128566  13.534   2.182   1.574
42223SOL    HW228567  13.457   2.201   1.703
42224SOL     OW28568  12.873   6.003  14.832
42224SOL    HW128569  12.862   5.944  14.758
42224SOL    HW228570  12.895   6.087  14.793
42225SOL     OW28571  11.626   1.049   0.436
42225SOL    HW128572  11.590   1.033   0.349
42225SOL    HW228573  11.575   1.122   0.470
42226SOL     OW28574  12.164   8.457   9.004
42226SOL    HW128575  12.155   8.363   9.020
42226SOL    HW228576  12.089   8.479   8.949
42227SOL     OW28577  13.037   9.330   4.998
42227SOL    HW128578  13.036   9.416   5.040
42227SOL    HW228579  12.948   9.297   5.007
42228SOL     OW28580  13.999  14.179  13.175
42228SOL    HW128581  14.080  14.171  13.225
42228SOL    HW228582  14.026  14.171  13.083
42229SOL     OW28583   4.822   3.722   6.001
42229SOL    HW128584   4.789   3.651   6.056
42229SOL    HW228585   4.857   3.677   5.924
42230SOL     OW28586   3.461   7.869   5.560
42230SOL    HW128587   3.510   7.923   5.621
42230SOL    HW228588   3.448   7.786   5.606
42231SOL     OW28589   5.160  11.696   7.510
42231SOL    HW128590   5.220  11.715   7.581
42231SOL    HW228591   5.117  11.779   7.492
42232SOL     OW28592   6.324   4.263  12.577
42232SOL    HW128593   6.312   4.301  12.665
42232SOL    HW228594   6.310   4.336  12.517
42233SOL     OW28595  12.241   8.470  12.310
42233SOL    HW128596  12.265   8.512  12.227
42233SOL    HW228597  12.266   8.378  12.298
42234SOL     OW28598   2.231   8.725   9.954
42234SOL    HW128599   2.152   8.778   9.947
42234SOL    HW228600   2.258   8.712   9.863
42235SOL     OW28601   9.793   5.862   4.125
42235SOL    HW128602   9.877   5.895   4.156
42235SOL    HW228603   9.767   5.797   4.190
42236SOL     OW28604   9.084   0.394  11.903
42236SOL    HW128605   9.053   0.477  11.867
42236SOL    HW228606   9.004   0.343  11.917
42237SOL     OW28607  11.844  13.793   4.561
42237SOL    HW128608  11.817  13.717   4.613
42237SOL    HW228609  11.937  13.803   4.579
42238SOL     OW28610  13.514   7.542  12.823
42238SOL    HW128611  13.559   7.507  12.745
42238SOL    HW228612  13.454   7.472  12.849
42239SOL     OW28613   5.239  10.405   5.223
42239SOL    HW128614   5.256  10.318   5.187
42239SOL    HW228615   5.156  10.395   5.270
42240SOL     OW28616   7.928  10.761  10.625
42240SOL    HW128617   7.992  10.701  10.663
42240SOL    HW228618   7.921  10.832  10.689
42241SOL     OW28619  11.527   6.155   8.179
42241SOL    HW128620  11.602   6.196   8.222
42241SOL    HW228621  11.555   6.142   8.088
42242SOL     OW28622  13.177   4.247   3.884
42242SOL    HW128623  13.192   4.248   3.979
42242SOL    HW228624  13.159   4.155   3.864
42243SOL     OW28625  13.281   4.363   1.442
42243SOL    HW128626  13.249   4.371   1.352
42243SOL    HW228627  13.229   4.426   1.492
42244SOL     OW28628  11.241   0.688   3.910
42244SOL    HW128629  11.194   0.671   3.992
42244SOL    HW228630  11.179   0.735   3.856
42245SOL     OW28631   7.558  11.984   9.105
42245SOL    HW128632   7.502  12.026   9.039
42245SOL    HW228633   7.551  11.891   9.088
42246SOL     OW28634   7.008   2.804   9.854
42246SOL    HW128635   6.924   2.850   9.849
42246SOL    HW228636   7.073   2.874   9.863
42247SOL     OW28637  10.360   7.019   4.282
42247SOL    HW128638  10.455   7.018   4.291
42247SOL    HW228639  10.343   7.085   4.214
42248SOL     OW28640   3.467   1.799   3.019
42248SOL    HW128641   3.455   1.892   3.039
42248SOL    HW228642   3.444   1.753   3.100
42249SOL     OW28643  10.196   6.949  14.358
42249SOL    HW128644  10.119   6.893  14.352
42249SOL    HW228645  10.247   6.913  14.431
42250SOL     OW28646   0.814   9.085   1.671
42250SOL    HW128647   0.826   9.049   1.759
42250SOL    HW228648   0.725   9.120   1.672
42251SOL     OW28649   3.887  10.514   4.774
42251SOL    HW128650   3.950  10.452   4.738
42251SOL    HW228651   3.893  10.591   4.717
42252SOL     OW28652  13.681   8.223   0.632
42252SOL    HW128653  13.604   8.245   0.685
42252SOL    HW228654  13.751   8.209   0.695
42253SOL     OW28655   6.113   1.825   0.838
42253SOL    HW128656   6.046   1.758   0.837
42253SOL    HW228657   6.119   1.853   0.930
42254SOL     OW28658  12.189   2.419   2.773
42254SOL    HW128659  12.266   2.434   2.718
42254SOL    HW228660  12.115   2.446   2.719
42255SOL     OW28661  14.003   1.084   8.700
42255SOL    HW128662  13.986   1.172   8.732
42255SOL    HW228663  14.016   1.031   8.779
42256SOL     OW28664   8.138   3.758   2.957
42256SOL    HW128665   8.114   3.701   2.883
42256SOL    HW228666   8.144   3.698   3.031
42257SOL     OW28667  13.248  14.075   8.060
42257SOL    HW128668  13.238  14.129   8.138
42257SOL    HW228669  13.159  14.060   8.029
42258SOL     OW28670   0.565   8.019   6.188
42258SOL    HW128671   0.492   7.962   6.214
42258SOL    HW228672   0.597   7.980   6.106
42259SOL     OW28673   7.001   9.245   6.705
42259SOL    HW128674   7.048   9.328   6.715
42259SOL    HW228675   6.920   9.269   6.661
42260SOL     OW28676  11.837   6.915   5.374
42260SOL    HW128677  11.806   6.969   5.301
42260SOL    HW228678  11.774   6.843   5.378
42261SOL     OW28679  14.133   7.154   3.468
42261SOL    HW128680  14.088   7.213   3.409
42261SOL    HW228681  14.216   7.198   3.487
42262SOL     OW28682  13.374  12.176  11.008
42262SOL    HW128683  13.458  12.152  11.046
42262SOL    HW228684  13.352  12.260  11.049
42263SOL     OW28685   3.512   8.914   4.763
42263SOL    HW128686   3.599   8.948   4.743
42263SOL    HW228687   3.528   8.833   4.812
42264SOL     OW28688   8.861   9.923   9.214
42264SOL    HW128689   8.939   9.978   9.218
42264SOL    HW228690   8.830   9.918   9.304
42265SOL     OW28691  12.002  13.689  14.083
42265SOL    HW128692  11.974  13.597  14.087
42265SOL    HW228693  12.097  13.685  14.086
42266SOL     OW28694   5.228  13.670   4.639
42266SOL    HW128695   5.274  13.688   4.722
42266SOL    HW228696   5.169  13.597   4.660
42267SOL     OW28697  11.390   0.758   3.606
42267SOL    HW128698  11.350   0.706   3.537
42267SOL    HW228699  11.471   0.711   3.628
42268SOL     OW28700   5.152   1.782   7.269
42268SOL    HW128701   5.214   1.753   7.203
42268SOL    HW228702   5.156   1.878   7.265
42269SOL     OW28703   3.626   3.305   2.692
42269SOL    HW128704   3.546   3.335   2.735
42269SOL    HW228705   3.599   3.283   2.603
42270SOL     OW28706  14.846   8.492   0.374
42270SOL    HW128707   0.070   8.492   0.347
42270SOL    HW228708  14.836   8.411   0.425
42271SOL     OW28709   2.742   9.577   9.069
42271SOL    HW128710   2.684   9.513   9.028
42271SOL    HW228711   2.697   9.603   9.149
42272SOL     OW28712   0.191  10.924   3.980
42272SOL    HW128713   0.210  10.842   3.933
42272SOL    HW228714   0.102  10.913   4.013
42273SOL     OW28715  12.690   9.655   2.446
42273SOL    HW128716  12.705   9.673   2.539
42273SOL    HW228717  12.692   9.560   2.439
42274SOL     OW28718   4.601   9.948  11.070
42274SOL    HW128719   4.593  10.038  11.102
42274SOL    HW228720   4.512   9.923  11.046
42275SOL     OW28721  13.732  10.209  14.340
42275SOL    HW128722  13.695  10.234  14.425
42275SOL    HW228723  13.803  10.149  14.361
42276SOL     OW28724  11.453   1.416  10.346
42276SOL    HW128725  11.501   1.474  10.405
42276SOL    HW228726  11.364   1.449  10.347
42277SOL     OW28727  13.609   9.947  10.391
42277SOL    HW128728  13.606   9.852  10.397
42277SOL    HW228729  13.703   9.968  10.384
42278SOL     OW28730   4.413   3.949   1.617
42278SOL    HW128731   4.330   3.959   1.663
42278SOL    HW228732   4.457   4.034   1.627
42279SOL     OW28733  13.857   8.705  12.444
42279SOL    HW128734  13.921   8.774  12.424
42279SOL    HW228735  13.779   8.730  12.395
42280SOL     OW28736  13.379   5.771  14.021
42280SOL    HW128737  13.437   5.770  13.945
42280SOL    HW228738  13.314   5.703  14.003
42281SOL     OW28739   2.490   9.536  10.164
42281SOL    HW128740   2.447   9.570  10.085
42281SOL    HW228741   2.583   9.546  10.147
42282SOL     OW28742  10.558  13.862  12.524
42282SOL    HW128743  10.531  13.952  12.506
42282SOL    HW228744  10.653  13.867  12.531
42283SOL     OW28745   9.679  10.715   8.801
42283SOL    HW128746   9.658  10.759   8.884
42283SOL    HW228747   9.632  10.765   8.735
42284SOL     OW28748  11.470   0.156  11.592
42284SOL    HW128749  11.396   0.178  11.647
42284SOL    HW228750  11.512   0.082  11.636
42285SOL     OW28751   5.532   8.537   3.194
42285SOL    HW128752   5.570   8.624   3.192
42285SOL    HW228753   5.448   8.548   3.237
42286SOL     OW28754   5.677   4.749  13.513
42286SOL    HW128755   5.677   4.658  13.545
42286SOL    HW228756   5.649   4.801  13.588
42287SOL     OW28757   3.656  12.902   2.832
42287SOL    HW128758   3.660  12.818   2.877
42287SOL    HW228759   3.748  12.928   2.821
42288SOL     OW28760   2.289   9.851   5.170
42288SOL    HW128761   2.330   9.804   5.098
42288SOL    HW228762   2.290   9.943   5.143
42289SOL     OW28763   0.328  14.380   5.644
42289SOL    HW128764   0.320  14.461   5.594
42289SOL    HW228765   0.294  14.402   5.730
42290SOL     OW28766   0.300  14.249   3.064
42290SOL    HW128767   0.266  14.337   3.054
42290SOL    HW228768   0.395  14.260   3.066
42291SOL     OW28769  12.007  13.521   2.633
42291SOL    HW128770  12.037  13.430   2.637
42291SOL    HW228771  11.994  13.546   2.724
42292SOL     OW28772  11.744   6.254   0.351
42292SOL    HW128773  11.818   6.203   0.385
42292SOL    HW228774  11.769   6.345   0.367
42293SOL     OW28775   5.071   0.264  10.589
42293SOL    HW128776   5.081   0.184  10.536
42293SOL    HW228777   5.049   0.332  10.526
42294SOL     OW28778  14.778  13.453  10.796
42294SOL    HW128779  14.794  13.359  10.813
42294SOL    HW228780  14.864  13.493  10.808
42295SOL     OW28781  14.340   8.977  10.389
42295SOL    HW128782  14.387   9.008  10.466
42295SOL    HW228783  14.394   9.005  10.315
42296SOL     OW28784   7.528  13.386   1.641
42296SOL    HW128785   7.569  13.458   1.689
42296SOL    HW228786   7.580  13.379   1.561
42297SOL     OW28787   5.126   4.956   7.631
42297SOL    HW128788   5.193   4.963   7.564
42297SOL    HW228789   5.138   4.869   7.669
42298SOL     OW28790   4.669  12.831   0.404
42298SOL    HW128791   4.670  12.814   0.498
42298SOL    HW228792   4.748  12.882   0.388
42299SOL     OW28793   7.107   4.210  10.751
42299SOL    HW128794   7.130   4.178  10.838
42299SOL    HW228795   7.017   4.180  10.737
42300SOL     OW28796   0.191   2.413   8.067
42300SOL    HW128797   0.194   2.330   8.115
42300SOL    HW228798   0.256   2.403   7.997
42301SOL     OW28799   9.457   1.420  11.256
42301SOL    HW128800   9.487   1.435  11.346
42301SOL    HW228801   9.364   1.442  11.258
42302SOL     OW28802   2.655  13.924   7.770
42302SOL    HW128803   2.678  13.845   7.818
42302SOL    HW228804   2.731  13.981   7.777
42303SOL     OW28805   8.810   8.393   8.064
42303SOL    HW128806   8.847   8.311   8.031
42303SOL    HW228807   8.804   8.379   8.159
42304SOL     OW28808   0.645   3.666   8.961
42304SOL    HW128809   0.666   3.645   8.870
42304SOL    HW228810   0.730   3.686   9.000
42305SOL     OW28811   8.230  11.216   1.264
42305SOL    HW128812   8.185  11.169   1.335
42305SOL    HW228813   8.231  11.307   1.293
42306SOL     OW28814   0.599   0.138   8.519
42306SOL    HW128815   0.620   0.228   8.494
42306SOL    HW228816   0.504   0.137   8.528
42307SOL     OW28817  12.217  13.494  11.508
42307SOL    HW128818  12.255  13.454  11.429
42307SOL    HW228819  12.289  13.497  11.570
42308SOL     OW28820   7.071   1.607   1.648
42308SOL    HW128821   7.024   1.676   1.696
42308SOL    HW228822   7.140   1.580   1.709
42309SOL     OW28823   2.316  10.513   5.749
42309SOL    HW128824   2.277  10.495   5.835
42309SOL    HW228825   2.409  10.527   5.768
42310SOL     OW28826   8.421  13.873   7.697
42310SOL    HW128827   8.462  13.857   7.612
42310SOL    HW228828   8.340  13.821   7.694
42311SOL     OW28829  12.257  12.564  12.382
42311SOL    HW128830  12.248  12.474  12.413
42311SOL    HW228831  12.344  12.567  12.341
42312SOL     OW28832   2.485   8.384   7.817
42312SOL    HW128833   2.457   8.468   7.853
42312SOL    HW228834   2.527   8.406   7.734
42313SOL     OW28835  14.834  12.191  14.195
42313SOL    HW128836  14.751  12.237  14.178
42313SOL    HW228837  14.821  12.148  14.280
42314SOL     OW28838  11.420  10.923   1.101
42314SOL    HW128839  11.423  10.875   1.018
42314SOL    HW228840  11.327  10.939   1.116
42315SOL     OW28841   9.600  11.628   3.322
42315SOL    HW128842   9.659  11.688   3.276
42315SOL    HW228843   9.520  11.627   3.269
42316SOL     OW28844   8.606   3.316  11.179
42316SOL    HW128845   8.545   3.251  11.213
42316SOL    HW228846   8.600   3.390  11.240
42317SOL     OW28847   2.839   6.397   7.533
42317SOL    HW128848   2.826   6.366   7.623
42317SOL    HW228849   2.755   6.380   7.490
42318SOL     OW28850  11.570  12.885   9.484
42318SOL    HW128851  11.643  12.845   9.530
42318SOL    HW228852  11.522  12.812   9.446
42319SOL     OW28853   9.781  11.310   3.585
42319SOL    HW128854   9.833  11.387   3.611
42319SOL    HW228855   9.829  11.274   3.511
42320SOL     OW28856  14.150   2.801   1.886
42320SOL    HW128857  14.208   2.857   1.938
42320SOL    HW228858  14.203   2.775   1.811
42321SOL     OW28859  10.177  12.475   8.902
42321SOL    HW128860  10.177  12.568   8.876
42321SOL    HW228861  10.215  12.429   8.827
42322SOL     OW28862   0.875   8.437   7.457
42322SOL    HW128863   0.828   8.371   7.509
42322SOL    HW228864   0.908   8.498   7.522
42323SOL     OW28865   0.941  13.995  14.863
42323SOL    HW128866   0.859  14.044  14.858
42323SOL    HW228867   0.944  13.964   0.086
42324SOL     OW28868  11.884   2.080  13.779
42324SOL    HW128869  11.808   2.042  13.822
42324SOL    HW228870  11.926   2.007  13.735
42325SOL     OW28871  11.490   3.667   1.972
42325SOL    HW128872  11.443   3.748   1.948
42325SOL    HW228873  11.502   3.622   1.889
42326SOL     OW28874  13.734   6.559   5.202
42326SOL    HW128875  13.807   6.580   5.259
42326SOL    HW228876  13.766   6.577   5.114
42327SOL     OW28877  10.471   1.863  13.802
42327SOL    HW128878  10.387   1.897  13.772
42327SOL    HW228879  10.527   1.865  13.724
42328SOL     OW28880   9.193   2.790   2.581
42328SOL    HW128881   9.153   2.870   2.613
42328SOL    HW228882   9.177   2.725   2.650
42329SOL     OW28883   2.172  12.692   1.076
42329SOL    HW128884   2.199  12.783   1.059
42329SOL    HW228885   2.216  12.642   1.007
42330SOL     OW28886   5.423  11.844   2.320
42330SOL    HW128887   5.507  11.879   2.291
42330SOL    HW228888   5.384  11.805   2.242
42331SOL     OW28889  14.440  14.372  11.197
42331SOL    HW128890  14.459  14.456  11.155
42331SOL    HW228891  14.353  14.348  11.165
42332SOL     OW28892   9.445   3.190   9.365
42332SOL    HW128893   9.408   3.266   9.318
42332SOL    HW228894   9.499   3.146   9.300
42333SOL     OW28895   6.027  12.672   4.703
42333SOL    HW128896   6.106  12.726   4.703
42333SOL    HW228897   5.969  12.713   4.639
42334SOL     OW28898   1.352   4.534   7.849
42334SOL    HW128899   1.444   4.508   7.861
42334SOL    HW228900   1.348   4.568   7.759
42335SOL     OW28901   2.666   1.575   7.372
42335SOL    HW128902   2.647   1.531   7.455
42335SOL    HW228903   2.588   1.559   7.319
42336SOL     OW28904   3.091   2.991  14.823
42336SOL    HW128905   3.082   2.935  14.746
42336SOL    HW228906   3.091   3.080  14.788
42337SOL     OW28907   7.359   1.293  14.712
42337SOL    HW128908   7.432   1.235  14.688
42337SOL    HW228909   7.311   1.245  14.779
42338SOL     OW28910   8.871  12.495   3.954
42338SOL    HW128911   8.881  12.414   3.904
42338SOL    HW228912   8.828  12.467   4.035
42339SOL     OW28913  12.229  10.136  13.359
42339SOL    HW128914  12.306  10.107  13.409
42339SOL    HW228915  12.254  10.125  13.268
42340SOL     OW28916  10.191  10.535  11.674
42340SOL    HW128917  10.152  10.616  11.707
42340SOL    HW228918  10.220  10.488  11.752
42341SOL     OW28919   0.206   3.358   1.667
42341SOL    HW128920   0.144   3.421   1.631
42341SOL    HW228921   0.160   3.318   1.741
42342SOL     OW28922   4.787   2.420  10.389
42342SOL    HW128923   4.748   2.365  10.457
42342SOL    HW228924   4.861   2.463  10.433
42343SOL     OW28925  13.714  12.232   3.702
42343SOL    HW128926  13.771  12.214   3.777
42343SOL    HW228927  13.770  12.280   3.641
42344SOL     OW28928  11.169  13.555  14.692
42344SOL    HW128929  11.089  13.606  14.686
42344SOL    HW228930  11.154  13.479  14.635
42345SOL     OW28931   6.506   8.826   6.847
42345SOL    HW128932   6.480   8.747   6.894
42345SOL    HW228933   6.424   8.864   6.815
42346SOL     OW28934  14.348   1.782   7.569
42346SOL    HW128935  14.262   1.823   7.575
42346SOL    HW228936  14.341   1.725   7.492
42347SOL     OW28937   7.498  10.443   7.578
42347SOL    HW128938   7.545  10.506   7.524
42347SOL    HW228939   7.465  10.378   7.516
42348SOL     OW28940   6.860   8.856   1.295
42348SOL    HW128941   6.839   8.778   1.243
42348SOL    HW228942   6.832   8.834   1.383
42349SOL     OW28943  12.451  13.026  11.165
42349SOL    HW128944  12.488  13.071  11.241
42349SOL    HW228945  12.512  12.953  11.150
42350SOL     OW28946   7.610   9.848   6.788
42350SOL    HW128947   7.685   9.908   6.787
42350SOL    HW228948   7.636   9.775   6.732
42351SOL     OW28949  14.597  12.350   5.002
42351SOL    HW128950  14.685  12.325   4.974
42351SOL    HW228951  14.539  12.312   4.936
42352SOL     OW28952   9.355   0.082   8.049
42352SOL    HW128953   9.417   0.139   8.094
42352SOL    HW228954   9.272   0.097   8.094
42353SOL     OW28955   4.196   5.732   1.726
42353SOL    HW128956   4.183   5.817   1.767
42353SOL    HW228957   4.131   5.675   1.769
42354SOL     OW28958   6.483   0.762   9.284
42354SOL    HW128959   6.526   0.829   9.231
42354SOL    HW228960   6.406   0.736   9.232
42355SOL     OW28961   6.487   0.075   0.619
42355SOL    HW128962   6.498   0.079   0.714
42355SOL    HW228963   6.553   0.134   0.585
42356SOL     OW28964  12.325   3.098  12.881
42356SOL    HW128965  12.262   3.033  12.851
42356SOL    HW228966  12.409   3.068  12.845
42357SOL     OW28967   1.586   8.411   0.760
42357SOL    HW128968   1.493   8.388   0.750
42357SOL    HW228969   1.629   8.365   0.688
42358SOL     OW28970   5.012   2.145  11.831
42358SOL    HW128971   4.919   2.157  11.813
42358SOL    HW228972   5.056   2.210  11.775
42359SOL     OW28973  11.336  11.134   8.612
42359SOL    HW128974  11.424  11.149   8.646
42359SOL    HW228975  11.335  11.177   8.527
42360SOL     OW28976   0.411  13.049   0.263
42360SOL    HW128977   0.479  13.078   0.203
42360SOL    HW228978   0.363  13.129   0.286
42361SOL     OW28979  11.286  10.137   8.062
42361SOL    HW128980  11.297  10.230   8.043
42361SOL    HW228981  11.258  10.134   8.154
42362SOL     OW28982  11.395  11.536   6.086
42362SOL    HW128983  11.378  11.597   6.014
42362SOL    HW228984  11.420  11.592   6.160
42363SOL     OW28985   7.528  14.118  11.013
42363SOL    HW128986   7.603  14.159  11.057
42363SOL    HW228987   7.558  14.030  10.992
42364SOL     OW28988   8.250  10.792   9.277
42364SOL    HW128989   8.342  10.773   9.296
42364SOL    HW228990   8.220  10.839   9.354
42365SOL     OW28991   8.903   2.612  14.324
42365SOL    HW128992   8.809   2.597  14.334
42365SOL    HW228993   8.927   2.566  14.244
42366SOL     OW28994   7.986  10.230  11.216
42366SOL    HW128995   8.024  10.315  11.195
42366SOL    HW228996   8.043  10.194  11.284
42367SOL     OW28997  13.053   8.854  12.777
42367SOL    HW128998  12.972   8.872  12.824
42367SOL    HW228999  13.105   8.800  12.837
42368SOL     OW29000   8.640   3.526   9.585
42368SOL    HW129001   8.624   3.618   9.604
42368SOL    HW229002   8.563   3.480   9.619
42369SOL     OW29003   7.412  13.940   4.295
42369SOL    HW129004   7.414  14.026   4.337
42369SOL    HW229005   7.323  13.908   4.309
42370SOL     OW29006  11.268   0.813   8.078
42370SOL    HW129007  11.290   0.836   7.988
42370SOL    HW229008  11.287   0.719   8.084
42371SOL     OW29009   2.037   1.761   8.034
42371SOL    HW129010   1.998   1.839   7.995
42371SOL    HW229011   2.051   1.784   8.125
42372SOL     OW29012   9.811  11.436   5.169
42372SOL    HW129013   9.826  11.530   5.177
42372SOL    HW229014   9.863  11.409   5.093
42373SOL     OW29015   2.128   4.302   8.444
42373SOL    HW129016   2.128   4.327   8.537
42373SOL    HW229017   2.139   4.384   8.397
42374SOL     OW29018   8.367   5.912  13.525
42374SOL    HW129019   8.389   5.954  13.442
42374SOL    HW229020   8.432   5.843  13.536
42375SOL     OW29021   7.743  11.805   4.294
42375SOL    HW129022   7.834  11.780   4.279
42375SOL    HW229023   7.748  11.880   4.354
42376SOL     OW29024   4.038   4.781   4.296
42376SOL    HW129025   4.067   4.743   4.379
42376SOL    HW229026   4.111   4.836   4.267
42377SOL     OW29027   9.620   3.975   3.393
42377SOL    HW129028   9.635   3.886   3.361
42377SOL    HW229029   9.675   3.983   3.471
42378SOL     OW29030   5.311   2.180   5.503
42378SOL    HW129031   5.288   2.266   5.466
42378SOL    HW229032   5.302   2.192   5.598
42379SOL     OW29033  11.803  13.796   3.998
42379SOL    HW129034  11.759  13.879   4.020
42379SOL    HW229035  11.897  13.815   4.009
42380SOL     OW29036   5.541  11.025   8.485
42380SOL    HW129037   5.575  10.936   8.485
42380SOL    HW229038   5.610  11.076   8.442
42381SOL     OW29039  12.654   8.414  14.195
42381SOL    HW129040  12.656   8.509  14.194
42381SOL    HW229041  12.744   8.387  14.175
42382SOL     OW29042   4.712  12.283   6.440
42382SOL    HW129043   4.747  12.219   6.502
42382SOL    HW229044   4.649  12.333   6.491
42383SOL     OW29045   6.993  11.611   6.930
42383SOL    HW129046   7.034  11.600   6.844
42383SOL    HW229047   7.029  11.693   6.964
42384SOL     OW29048   4.350  11.346   9.628
42384SOL    HW129049   4.374  11.326   9.718
42384SOL    HW229050   4.353  11.262   9.583
42385SOL     OW29051  13.932   2.867  13.562
42385SOL    HW129052  13.891   2.896  13.643
42385SOL    HW229053  13.861   2.827  13.511
42386SOL     OW29054   7.904   5.104  11.286
42386SOL    HW129055   7.934   5.107  11.377
42386SOL    HW229056   7.839   5.174  11.280
42387SOL     OW29057  12.943   0.896  11.701
42387SOL    HW129058  12.987   0.812  11.692
42387SOL    HW229059  12.871   0.893  11.637
42388SOL     OW29060  11.585  12.908   4.872
42388SOL    HW129061  11.515  12.962   4.837
42388SOL    HW229062  11.658  12.968   4.886
42389SOL     OW29063   5.390  12.753   6.486
42389SOL    HW129064   5.401  12.701   6.407
42389SOL    HW229065   5.296  12.753   6.502
42390SOL     OW29066   6.741   6.274  12.131
42390SOL    HW129067   6.726   6.368  12.136
42390SOL    HW229068   6.800   6.263  12.056
42391SOL     OW29069   9.730   7.639   3.322
42391SOL    HW129070   9.810   7.657   3.273
42391SOL    HW229071   9.693   7.726   3.339
42392SOL     OW29072  10.987   7.563   5.136
42392SOL    HW129073  11.014   7.504   5.066
42392SOL    HW229074  10.903   7.529   5.166
42393SOL     OW29075   6.113   5.948   0.871
42393SOL    HW129076   6.018   5.940   0.881
42393SOL    HW229077   6.141   6.003   0.945
42394SOL     OW29078   9.109   5.491  14.518
42394SOL    HW129079   9.023   5.456  14.494
42394SOL    HW229080   9.141   5.431  14.585
42395SOL     OW29081  10.100  12.635   3.092
42395SOL    HW129082  10.014  12.633   3.050
42395SOL    HW229083  10.081  12.632   3.186
42396SOL     OW29084   1.075   2.236  11.184
42396SOL    HW129085   1.162   2.222  11.146
42396SOL    HW229086   1.024   2.276  11.114
42397SOL     OW29087  13.090  13.680   8.370
42397SOL    HW129088  13.084  13.641   8.283
42397SOL    HW229089  13.015  13.739   8.375
42398SOL     OW29090   0.841   1.008   8.266
42398SOL    HW129091   0.780   1.067   8.222
42398SOL    HW229092   0.790   0.929   8.283
42399SOL     OW29093   8.542   5.512  13.160
42399SOL    HW129094   8.579   5.484  13.076
42399SOL    HW229095   8.613   5.502  13.223
42400SOL     OW29096   6.728   6.431   9.595
42400SOL    HW129097   6.715   6.480   9.514
42400SOL    HW229098   6.725   6.339   9.568
42401SOL     OW29099  12.983  10.436  13.419
42401SOL    HW129100  12.960  10.454  13.510
42401SOL    HW229101  12.899  10.417  13.377
42402SOL     OW29102  11.342  12.256  10.204
42402SOL    HW129103  11.364  12.346  10.179
42402SOL    HW229104  11.424  12.207  10.193
42403SOL     OW29105   7.729   7.009   4.940
42403SOL    HW129106   7.708   7.032   4.850
42403SOL    HW229107   7.650   6.967   4.974
42404SOL     OW29108   8.386   1.784  12.995
42404SOL    HW129109   8.439   1.856  12.960
42404SOL    HW229110   8.312   1.777  12.934
42405SOL     OW29111   0.878   7.830   2.832
42405SOL    HW129112   0.826   7.757   2.866
42405SOL    HW229113   0.824   7.908   2.849
42406SOL     OW29114   9.222   8.082   3.323
42406SOL    HW129115   9.293   8.140   3.347
42406SOL    HW229116   9.213   8.092   3.228
42407SOL     OW29117   6.362  13.256   6.988
42407SOL    HW129118   6.267  13.255   6.993
42407SOL    HW229119   6.382  13.311   6.912
42408SOL     OW29120  12.067   3.811   1.657
42408SOL    HW129121  12.128   3.738   1.667
42408SOL    HW229122  12.114   3.873   1.602
42409SOL     OW29123  13.164   7.277   7.912
42409SOL    HW129124  13.255   7.265   7.937
42409SOL    HW229125  13.120   7.197   7.940
42410SOL     OW29126   3.991  14.301   2.529
42410SOL    HW129127   3.961  14.218   2.492
42410SOL    HW229128   3.933  14.367   2.491
42411SOL     OW29129   6.431   8.974  13.734
42411SOL    HW129130   6.469   8.952  13.819
42411SOL    HW229131   6.408   9.067  13.741
42412SOL     OW29132  14.740  13.902   3.697
42412SOL    HW129133  14.740  13.932   3.606
42412SOL    HW229134  14.757  13.981   3.748
42413SOL     OW29135   4.030  11.861   3.970
42413SOL    HW129136   4.069  11.795   3.913
42413SOL    HW229137   3.937  11.861   3.947
42414SOL     OW29138   6.426   1.265  12.626
42414SOL    HW129139   6.449   1.178  12.658
42414SOL    HW229140   6.427   1.321  12.704
42415SOL     OW29141   9.916   1.015  13.770
42415SOL    HW129142  10.004   1.040  13.740
42415SOL    HW229143   9.862   1.091  13.751
42416SOL     OW29144   7.398  10.912   5.870
42416SOL    HW129145   7.413  11.006   5.875
42416SOL    HW229146   7.352  10.899   5.787
42417SOL     OW29147  13.178  14.721   6.027
42417SOL    HW129148  13.184  14.816   6.035
42417SOL    HW229149  13.084  14.703   6.035
42418SOL     OW29150   4.674   3.792   8.865
42418SOL    HW129151   4.733   3.861   8.834
42418SOL    HW229152   4.718   3.711   8.841
42419SOL     OW29153   5.368  12.658  14.593
42419SOL    HW129154   5.280  12.683  14.566
42419SOL    HW229155   5.371  12.680  14.687
42420SOL     OW29156   4.296   4.346  13.608
42420SOL    HW129157   4.262   4.378  13.524
42420SOL    HW229158   4.218   4.313  13.654
42421SOL     OW29159   7.347  12.319   6.037
42421SOL    HW129160   7.390  12.253   5.983
42421SOL    HW229161   7.334  12.276   6.122
42422SOL     OW29162   3.413  11.488  10.062
42422SOL    HW129163   3.348  11.558  10.074
42422SOL    HW229164   3.391  11.423  10.129
42423SOL     OW29165  10.976   3.231  12.729
42423SOL    HW129166  10.934   3.160  12.680
42423SOL    HW229167  11.030   3.277  12.664
42424SOL     OW29168   8.460   8.678   5.575
42424SOL    HW129169   8.429   8.765   5.603
42424SOL    HW229170   8.383   8.637   5.535
42425SOL     OW29171   2.442  14.689   3.765
42425SOL    HW129172   2.531  14.688   3.728
42425SOL    HW229173   2.385  14.702   3.689
42426SOL     OW29174  10.038   2.206   3.084
42426SOL    HW129175  10.092   2.285   3.089
42426SOL    HW229176   9.972   2.218   3.151
42427SOL     OW29177   3.797   1.934   7.193
42427SOL    HW129178   3.869   1.994   7.213
42427SOL    HW229179   3.718   1.985   7.215
42428SOL     OW29180   5.534  13.097   2.088
42428SOL    HW129181   5.543  13.008   2.053
42428SOL    HW229182   5.586  13.096   2.169
42429SOL     OW29183   7.964   6.636   7.449
42429SOL    HW129184   8.035   6.573   7.459
42429SOL    HW229185   7.914   6.606   7.373
42430SOL     OW29186   7.711   6.285   6.560
42430SOL    HW129187   7.659   6.358   6.527
42430SOL    HW229188   7.767   6.324   6.628
42431SOL     OW29189   7.720  13.641  10.380
42431SOL    HW129190   7.711  13.699  10.305
42431SOL    HW229191   7.790  13.680  10.432
42432SOL     OW29192  13.196  14.583   9.818
42432SOL    HW129193  13.208  14.675   9.796
42432SOL    HW229194  13.168  14.542   9.736
42433SOL     OW29195  12.966   7.363   3.657
42433SOL    HW129196  12.944   7.424   3.727
42433SOL    HW229197  13.018   7.415   3.595
42434SOL     OW29198  12.380   4.680   4.310
42434SOL    HW129199  12.335   4.734   4.245
42434SOL    HW229200  12.380   4.733   4.390
42435SOL     OW29201   7.363  12.516  10.989
42435SOL    HW129202   7.415  12.592  10.963
42435SOL    HW229203   7.330  12.538  11.076
42436SOL     OW29204   0.655   1.938   0.352
42436SOL    HW129205   0.600   1.977   0.420
42436SOL    HW229206   0.726   1.896   0.400
42437SOL     OW29207   3.126   4.075   6.226
42437SOL    HW129208   3.079   4.072   6.142
42437SOL    HW229209   3.098   4.158   6.266
42438SOL     OW29210   5.122   2.565   8.204
42438SOL    HW129211   5.157   2.494   8.258
42438SOL    HW229212   5.133   2.644   8.257
42439SOL     OW29213   6.614   7.561   3.390
42439SOL    HW129214   6.571   7.595   3.469
42439SOL    HW229215   6.543   7.554   3.326
42440SOL     OW29216   6.761   1.165   9.344
42440SOL    HW129217   6.725   1.118   9.268
42440SOL    HW229218   6.821   1.228   9.306
42441SOL     OW29219   0.446   8.266   8.708
42441SOL    HW129220   0.373   8.211   8.737
42441SOL    HW229221   0.524   8.215   8.729
42442SOL     OW29222  10.574   3.596   5.628
42442SOL    HW129223  10.557   3.662   5.694
42442SOL    HW229224  10.603   3.645   5.551
42443SOL     OW29225   1.815   7.808  12.304
42443SOL    HW129226   1.883   7.756  12.261
42443SOL    HW229227   1.863   7.871  12.358
42444SOL     OW29228  13.890   0.955   3.334
42444SOL    HW129229  13.964   0.968   3.393
42444SOL    HW229230  13.923   0.980   3.248
42445SOL     OW29231   7.804  11.137   3.827
42445SOL    HW129232   7.715  11.154   3.796
42445SOL    HW229233   7.793  11.078   3.901
42446SOL     OW29234  14.309  12.836  13.454
42446SOL    HW129235  14.340  12.747  13.471
42446SOL    HW229236  14.388  12.890  13.458
42447SOL     OW29237   2.931  14.007   6.742
42447SOL    HW129238   2.960  14.067   6.674
42447SOL    HW229239   2.888  13.936   6.695
42448SOL     OW29240   0.757   2.692   5.620
42448SOL    HW129241   0.796   2.674   5.534
42448SOL    HW229242   0.664   2.709   5.601
42449SOL     OW29243   7.257   1.285   3.605
42449SOL    HW129244   7.300   1.367   3.582
42449SOL    HW229245   7.328   1.221   3.610
42450SOL     OW29246   1.944   5.440  10.590
42450SOL    HW129247   1.999   5.362  10.602
42450SOL    HW229248   1.856   5.411  10.616
42451SOL     OW29249  11.105   0.956  11.221
42451SOL    HW129250  11.084   0.867  11.191
42451SOL    HW229251  11.201   0.960  11.217
42452SOL     OW29252  12.435   0.309   5.605
42452SOL    HW129253  12.444   0.227   5.557
42452SOL    HW229254  12.500   0.368   5.567
42453SOL     OW29255   6.098   1.193  14.553
42453SOL    HW129256   6.110   1.113  14.501
42453SOL    HW229257   6.185   1.211  14.589
42454SOL     OW29258   6.964   9.373   9.696
42454SOL    HW129259   6.974   9.316   9.773
42454SOL    HW229260   6.909   9.323   9.636
42455SOL     OW29261   5.233   1.997  10.426
42455SOL    HW129262   5.169   2.051  10.380
42455SOL    HW229263   5.308   1.993  10.366
42456SOL     OW29264   2.514  11.833   5.235
42456SOL    HW129265   2.475  11.918   5.213
42456SOL    HW229266   2.576  11.853   5.306
42457SOL     OW29267   7.438  13.992  12.280
42457SOL    HW129268   7.389  13.966  12.358
42457SOL    HW229269   7.495  14.063  12.310
42458SOL     OW29270   1.097  10.506   6.222
42458SOL    HW129271   1.112  10.420   6.261
42458SOL    HW229272   1.074  10.562   6.296
42459SOL     OW29273   1.364  10.644   0.945
42459SOL    HW129274   1.273  10.639   0.974
42459SOL    HW229275   1.383  10.556   0.911
42460SOL     OW29276   8.856   9.443   3.796
42460SOL    HW129277   8.906   9.363   3.812
42460SOL    HW229278   8.895   9.507   3.856
42461SOL     OW29279   3.960   8.316  10.970
42461SOL    HW129280   3.979   8.274  10.887
42461SOL    HW229281   4.045   8.326  11.013
42462SOL     OW29282   1.868  10.269   7.322
42462SOL    HW129283   1.784  10.222   7.324
42462SOL    HW229284   1.933  10.200   7.307
42463SOL     OW29285   9.238  13.734   5.919
42463SOL    HW129286   9.287  13.676   5.861
42463SOL    HW229287   9.149  13.732   5.884
42464SOL     OW29288   1.817   9.177  11.411
42464SOL    HW129289   1.908   9.152  11.429
42464SOL    HW229290   1.795   9.132  11.330
42465SOL     OW29291   2.370   8.931   5.399
42465SOL    HW129292   2.278   8.947   5.422
42465SOL    HW229293   2.402   9.016   5.367
42466SOL     OW29294   0.255  12.163   8.253
42466SOL    HW129295   0.320  12.232   8.239
42466SOL    HW229296   0.299  12.082   8.228
42467SOL     OW29297  11.481  13.630   2.028
42467SOL    HW129298  11.416  13.559   2.027
42467SOL    HW229299  11.524  13.624   1.943
42468SOL     OW29300   8.631  11.420  13.042
42468SOL    HW129301   8.654  11.338  12.999
42468SOL    HW229302   8.560  11.456  12.988
42469SOL     OW29303   7.519   1.892  10.738
42469SOL    HW129304   7.533   1.801  10.712
42469SOL    HW229305   7.454   1.925  10.676
42470SOL     OW29306   4.384   5.082  14.622
42470SOL    HW129307   4.331   5.002  14.625
42470SOL    HW229308   4.445   5.068  14.549
42471SOL     OW29309   4.805   3.192  14.622
42471SOL    HW129310   4.759   3.163  14.543
42471SOL    HW229311   4.736   3.198  14.689
42472SOL     OW29312   1.975   1.172   5.880
42472SOL    HW129313   1.896   1.120   5.895
42472SOL    HW229314   2.030   1.155   5.956
42473SOL     OW29315   2.444   9.544   9.048
42473SOL    HW129316   2.448   9.598   9.127
42473SOL    HW229317   2.497   9.467   9.068
42474SOL     OW29318  10.096   7.102   0.601
42474SOL    HW129319  10.141   7.114   0.517
42474SOL    HW229320  10.128   7.173   0.656
42475SOL     OW29321  14.467   0.641   7.827
42475SOL    HW129322  14.437   0.656   7.738
42475SOL    HW229323  14.445   0.722   7.874
42476SOL     OW29324   6.807   9.529  13.165
42476SOL    HW129325   6.730   9.498  13.214
42476SOL    HW229326   6.855   9.583  13.228
42477SOL     OW29327  12.929   9.400   2.654
42477SOL    HW129328  12.880   9.350   2.588
42477SOL    HW229329  12.981   9.334   2.700
42478SOL     OW29330   5.480  11.916   8.477
42478SOL    HW129331   5.507  11.943   8.389
42478SOL    HW229332   5.406  11.857   8.462
42479SOL     OW29333   8.937  14.647   0.349
42479SOL    HW129334   8.936  14.704   0.272
42479SOL    HW229335   8.918  14.705   0.422
42480SOL     OW29336  11.993   8.451   8.778
42480SOL    HW129337  12.058   8.518   8.759
42480SOL    HW229338  11.926   8.463   8.711
42481SOL     OW29339   4.055   4.218   3.407
42481SOL    HW129340   4.092   4.297   3.367
42481SOL    HW229341   3.971   4.246   3.443
42482SOL     OW29342   4.522   9.471   1.437
42482SOL    HW129343   4.444   9.415   1.437
42482SOL    HW229344   4.572   9.443   1.513
42483SOL     OW29345  14.845   8.646   0.674
42483SOL    HW129346   0.024   8.681   0.598
42483SOL    HW229347  14.798   8.721   0.710
42484SOL     OW29348  10.773   0.369   8.869
42484SOL    HW129349  10.867   0.384   8.869
42484SOL    HW229350  10.742   0.412   8.789
42485SOL     OW29351  10.255   5.419   5.041
42485SOL    HW129352  10.254   5.396   4.948
42485SOL    HW229353  10.306   5.350   5.083
42486SOL     OW29354  10.370   7.111  14.243
42486SOL    HW129355  10.315   7.052  14.295
42486SOL    HW229356  10.346   7.198  14.272
42487SOL     OW29357   1.689   1.825   4.148
42487SOL    HW129358   1.627   1.800   4.080
42487SOL    HW229359   1.634   1.859   4.219
42488SOL     OW29360   0.374   3.807   5.074
42488SOL    HW129361   0.377   3.827   4.980
42488SOL    HW229362   0.301   3.860   5.107
42489SOL     OW29363   6.031  11.462   9.190
42489SOL    HW129364   5.952  11.439   9.140
42489SOL    HW229365   6.080  11.520   9.131
42490SOL     OW29366  12.005   5.056  10.504
42490SOL    HW129367  12.037   4.966  10.491
42490SOL    HW229368  11.991   5.089  10.416
42491SOL     OW29369  11.532   2.600  13.180
42491SOL    HW129370  11.473   2.613  13.106
42491SOL    HW229371  11.496   2.525  13.228
42492SOL     OW29372   9.247   4.644   5.509
42492SOL    HW129373   9.318   4.691   5.465
42492SOL    HW229374   9.180   4.633   5.441
42493SOL     OW29375  14.210   9.764   4.060
42493SOL    HW129376  14.199   9.852   4.097
42493SOL    HW229377  14.145   9.711   4.105
42494SOL     OW29378  14.215  11.480   9.344
42494SOL    HW129379  14.206  11.573   9.327
42494SOL    HW229380  14.128  11.444   9.330
42495SOL     OW29381   0.194   9.891   0.909
42495SOL    HW129382   0.218   9.843   0.989
42495SOL    HW229383   0.104   9.865   0.892
42496SOL     OW29384   2.767   6.538   1.033
42496SOL    HW129385   2.708   6.571   0.964
42496SOL    HW229386   2.723   6.460   1.065
42497SOL     OW29387   4.506  12.373  10.243
42497SOL    HW129388   4.417  12.375  10.278
42497SOL    HW229389   4.562  12.381  10.321
42498SOL     OW29390   4.204   3.148  12.302
42498SOL    HW129391   4.120   3.188  12.276
42498SOL    HW229392   4.264   3.222  12.308
42499SOL     OW29393  10.499  14.815  14.434
42499SOL    HW129394  10.436  14.751  14.402
42499SOL    HW229395  10.515   0.004  14.358
42500SOL     OW29396  13.586  10.096   5.268
42500SOL    HW129397  13.554  10.075   5.356
42500SOL    HW229398  13.507  10.093   5.213
42501SOL     OW29399   1.686  12.998   2.676
42501SOL    HW129400   1.725  12.912   2.661
42501SOL    HW229401   1.595  12.980   2.701
42502SOL     OW29402   9.408   7.024   4.307
42502SOL    HW129403   9.502   7.041   4.310
42502SOL    HW229404   9.377   7.073   4.232
42503SOL     OW29405   5.059   5.503   6.831
42503SOL    HW129406   5.096   5.559   6.763
42503SOL    HW229407   5.010   5.563   6.887
42504SOL     OW29408  13.755  12.709  13.407
42504SOL    HW129409  13.825  12.649  13.380
42504SOL    HW229410  13.762  12.783  13.347
42505SOL     OW29411  12.791   9.744  10.849
42505SOL    HW129412  12.741   9.782  10.777
42505SOL    HW229413  12.812   9.656  10.820
42506SOL     OW29414   8.549  10.720  11.293
42506SOL    HW129415   8.524  10.802  11.250
42506SOL    HW229416   8.645  10.721  11.293
42507SOL     OW29417  14.240  14.160   9.403
42507SOL    HW129418  14.169  14.096   9.411
42507SOL    HW229419  14.223  14.223   9.473
42508SOL     OW29420  10.388   0.694   6.607
42508SOL    HW129421  10.448   0.738   6.547
42508SOL    HW229422  10.433   0.614   6.632
42509SOL     OW29423   4.517  12.669   6.197
42509SOL    HW129424   4.423  12.667   6.217
42509SOL    HW229425   4.534  12.760   6.172
42510SOL     OW29426   9.162   7.211   3.807
42510SOL    HW129427   9.161   7.144   3.739
42510SOL    HW229428   9.182   7.293   3.760
42511SOL     OW29429  11.301   6.571   4.768
42511SOL    HW129430  11.284   6.495   4.711
42511SOL    HW229431  11.281   6.539   4.856
42512SOL     OW29432  13.947  13.088   2.289
42512SOL    HW129433  14.024  13.120   2.241
42512SOL    HW229434  13.981  13.018   2.345
42513SOL     OW29435   8.504   6.521   1.624
42513SOL    HW129436   8.576   6.485   1.573
42513SOL    HW229437   8.493   6.460   1.697
42514SOL     OW29438  11.394  13.113   1.864
42514SOL    HW129439  11.431  13.037   1.909
42514SOL    HW229440  11.466  13.147   1.812
42515SOL     OW29441   0.918  11.382   5.392
42515SOL    HW129442   0.998  11.330   5.394
42515SOL    HW229443   0.945  11.469   5.421
42516SOL     OW29444  10.525   3.257   9.697
42516SOL    HW129445  10.617   3.280   9.685
42516SOL    HW229446  10.510   3.185   9.636
42517SOL     OW29447  14.221  10.638  10.754
42517SOL    HW129448  14.260  10.679  10.831
42517SOL    HW229449  14.294  10.630  10.692
42518SOL     OW29450   9.463   7.520   0.034
42518SOL    HW129451   9.384   7.573   0.040
42518SOL    HW229452   9.432   7.429   0.038
42519SOL     OW29453  12.366   9.351   8.669
42519SOL    HW129454  12.334   9.268   8.635
42519SOL    HW229455  12.460   9.349   8.653
42520SOL     OW29456   1.300   6.463   3.896
42520SOL    HW129457   1.223   6.480   3.842
42520SOL    HW229458   1.343   6.389   3.853
42521SOL     OW29459   8.978  14.850  10.127
42521SOL    HW129460   8.907  14.813  10.076
42521SOL    HW229461   9.045   0.006  10.062
42522SOL     OW29462  14.800   9.066   9.791
42522SOL    HW129463  14.832   8.995   9.736
42522SOL    HW229464  14.755   9.125   9.730
42523SOL     OW29465   0.349   3.932   6.195
42523SOL    HW129466   0.270   3.898   6.238
42523SOL    HW229467   0.421   3.900   6.249
42524SOL     OW29468   0.972   9.384   3.575
42524SOL    HW129469   0.889   9.414   3.539
42524SOL    HW229470   0.979   9.430   3.659
42525SOL     OW29471   4.775   8.593   2.413
42525SOL    HW129472   4.780   8.535   2.489
42525SOL    HW229473   4.685   8.586   2.383
42526SOL     OW29474   8.751   3.148   8.998
42526SOL    HW129475   8.831   3.104   9.027
42526SOL    HW229476   8.683   3.081   9.007
42527SOL     OW29477   7.317   0.162   9.599
42527SOL    HW129478   7.393   0.161   9.657
42527SOL    HW229479   7.325   0.244   9.550
42528SOL     OW29480   8.552  10.888   6.344
42528SOL    HW129481   8.626  10.845   6.303
42528SOL    HW229482   8.521  10.826   6.411
42529SOL     OW29483   9.831   5.808   7.600
42529SOL    HW129484   9.784   5.891   7.589
42529SOL    HW229485   9.876   5.817   7.684
42530SOL     OW29486   5.850   7.084   5.530
42530SOL    HW129487   5.913   7.097   5.601
42530SOL    HW229488   5.764   7.093   5.571
42531SOL     OW29489   9.672   8.938   4.772
42531SOL    HW129490   9.749   8.965   4.722
42531SOL    HW229491   9.705   8.872   4.834
42532SOL     OW29492   3.516  11.372   1.861
42532SOL    HW129493   3.589  11.413   1.908
42532SOL    HW229494   3.452  11.352   1.929
42533SOL     OW29495   4.006   0.070  10.507
42533SOL    HW129496   3.970   0.143  10.456
42533SOL    HW229497   4.084   0.107  10.549
42534SOL     OW29498   5.792   5.332  14.093
42534SOL    HW129499   5.754   5.295  14.173
42534SOL    HW229500   5.767   5.424  14.094
42535SOL     OW29501   9.733   2.867  14.387
42535SOL    HW129502   9.788   2.936  14.423
42535SOL    HW229503   9.656   2.912  14.352
42536SOL     OW29504   0.419  11.245   3.656
42536SOL    HW129505   0.514  11.242   3.656
42536SOL    HW229506   0.393  11.194   3.580
42537SOL     OW29507   7.491   8.327   9.591
42537SOL    HW129508   7.483   8.309   9.684
42537SOL    HW229509   7.457   8.416   9.580
42538SOL     OW29510  14.229   3.232  11.355
42538SOL    HW129511  14.163   3.164  11.366
42538SOL    HW229512  14.309   3.194  11.392
42539SOL     OW29513   2.103   0.546  12.152
42539SOL    HW129514   2.150   0.521  12.231
42539SOL    HW229515   2.029   0.599  12.183
42540SOL     OW29516   3.636  14.384   5.472
42540SOL    HW129517   3.665  14.471   5.496
42540SOL    HW229518   3.682  14.364   5.391
42541SOL     OW29519  12.938   2.277   7.789
42541SOL    HW129520  12.996   2.202   7.781
42541SOL    HW229521  12.859   2.252   7.739
42542SOL     OW29522   2.816  14.076   3.201
42542SOL    HW129523   2.757  14.150   3.191
42542SOL    HW229524   2.898  14.103   3.159
42543SOL     OW29525   3.521  13.775  12.625
42543SOL    HW129526   3.568  13.840  12.677
42543SOL    HW229527   3.470  13.726  12.690
42544SOL     OW29528  14.551   3.182  13.783
42544SOL    HW129529  14.598   3.210  13.705
42544SOL    HW229530  14.542   3.262  13.836
42545SOL     OW29531   3.851   0.339   2.568
42545SOL    HW129532   3.786   0.359   2.635
42545SOL    HW229533   3.816   0.377   2.487
42546SOL     OW29534   4.996   2.895   5.112
42546SOL    HW129535   4.980   2.989   5.108
42546SOL    HW229536   4.915   2.855   5.081
42547SOL     OW29537   9.325   9.952   2.602
42547SOL    HW129538   9.389   9.985   2.538
42547SOL    HW229539   9.351   9.862   2.618
42548SOL     OW29540   8.977   9.384   3.522
42548SOL    HW129541   8.931   9.396   3.605
42548SOL    HW229542   9.009   9.471   3.499
42549SOL     OW29543   1.064  14.690  10.981
42549SOL    HW129544   1.116  14.714  10.904
42549SOL    HW229545   1.049  14.596  10.972
42550SOL     OW29546  12.763  10.659  12.187
42550SOL    HW129547  12.779  10.570  12.218
42550SOL    HW229548  12.728  10.648  12.098
42551SOL     OW29549  13.205  14.757   8.027
42551SOL    HW129550  13.111  14.777   8.025
42551SOL    HW229551  13.242  14.825   8.083
42552SOL     OW29552   3.256   8.993  12.699
42552SOL    HW129553   3.251   9.002  12.794
42552SOL    HW229554   3.165   8.999  12.670
42553SOL     OW29555   6.219  12.645  13.360
42553SOL    HW129556   6.184  12.711  13.419
42553SOL    HW229557   6.310  12.670  13.347
42554SOL     OW29558   2.469   5.375  13.172
42554SOL    HW129559   2.545   5.432  13.181
42554SOL    HW229560   2.420   5.386  13.254
42555SOL     OW29561   2.329   4.006   4.245
42555SOL    HW129562   2.235   4.004   4.264
42555SOL    HW229563   2.344   4.092   4.206
42556SOL     OW29564   5.369  11.640   0.647
42556SOL    HW129565   5.295  11.699   0.659
42556SOL    HW229566   5.434  11.692   0.601
42557SOL     OW29567  14.074   0.199   8.167
42557SOL    HW129568  14.077   0.293   8.147
42557SOL    HW229569  14.063   0.196   8.262
42558SOL     OW29570   3.186   0.836  13.851
42558SOL    HW129571   3.230   0.915  13.882
42558SOL    HW229572   3.207   0.770  13.917
42559SOL     OW29573  11.634  14.294   3.599
42559SOL    HW129574  11.691  14.250   3.535
42559SOL    HW229575  11.693  14.320   3.669
42560SOL     OW29576   9.679  13.831  10.178
42560SOL    HW129577   9.680  13.893  10.105
42560SOL    HW229578   9.762  13.784  10.170
42561SOL     OW29579   5.896   9.730   7.901
42561SOL    HW129580   5.938   9.816   7.903
42561SOL    HW229581   5.937   9.682   7.973
42562SOL     OW29582   7.861   2.675  14.147
42562SOL    HW129583   7.882   2.595  14.194
42562SOL    HW229584   7.943   2.702  14.106
42563SOL     OW29585  10.626  10.183   3.584
42563SOL    HW129586  10.704  10.145   3.544
42563SOL    HW229587  10.613  10.265   3.537
42564SOL     OW29588   9.489  13.888   0.591
42564SOL    HW129589   9.436  13.808   0.598
42564SOL    HW229590   9.579  13.857   0.579
42565SOL     OW29591   2.425   5.687  10.118
42565SOL    HW129592   2.353   5.681  10.181
42565SOL    HW229593   2.427   5.779  10.092
42566SOL     OW29594  12.176   3.109   4.625
42566SOL    HW129595  12.112   3.040   4.606
42566SOL    HW229596  12.146   3.185   4.575
42567SOL     OW29597   0.625  12.133  10.960
42567SOL    HW129598   0.641  12.040  10.975
42567SOL    HW229599   0.539  12.149  11.000
42568SOL     OW29600  14.017   9.143   5.741
42568SOL    HW129601  14.032   9.052   5.768
42568SOL    HW229602  14.095   9.165   5.690
42569SOL     OW29603   3.544  13.962   7.166
42569SOL    HW129604   3.562  13.924   7.252
42569SOL    HW229605   3.478  13.905   7.128
42570SOL     OW29606  12.042  11.215   9.977
42570SOL    HW129607  12.005  11.132  10.006
42570SOL    HW229608  12.057  11.204   9.883
42571SOL     OW29609  11.790  12.854  13.844
42571SOL    HW129610  11.872  12.806  13.837
42571SOL    HW229611  11.753  12.852  13.756
42572SOL     OW29612   4.074   4.905  13.274
42572SOL    HW129613   4.139   4.923  13.206
42572SOL    HW229614   4.079   4.980  13.333
42573SOL     OW29615   9.762  13.559   9.630
42573SOL    HW129616   9.695  13.596   9.688
42573SOL    HW229617   9.812  13.635   9.600
42574SOL     OW29618  13.845   5.643  13.109
42574SOL    HW129619  13.793   5.688  13.176
42574SOL    HW229620  13.840   5.700  13.033
42575SOL     OW29621   2.809  11.506   6.708
42575SOL    HW129622   2.884  11.553   6.743
42575SOL    HW229623   2.756  11.484   6.785
42576SOL     OW29624  10.213   3.258  12.849
42576SOL    HW129625  10.185   3.195  12.915
42576SOL    HW229626  10.155   3.334  12.863
42577SOL     OW29627   0.503   2.756   4.161
42577SOL    HW129628   0.506   2.852   4.170
42577SOL    HW229629   0.588   2.734   4.124
42578SOL     OW29630  10.505  12.839   2.757
42578SOL    HW129631  10.485  12.859   2.666
42578SOL    HW229632  10.462  12.909   2.807
42579SOL     OW29633  11.254   9.791   2.383
42579SOL    HW129634  11.187   9.725   2.365
42579SOL    HW229635  11.317   9.781   2.311
42580SOL     OW29636   2.374   4.895   5.022
42580SOL    HW129637   2.395   4.936   5.105
42580SOL    HW229638   2.360   4.802   5.044
42581SOL     OW29639   4.094   7.153   9.907
42581SOL    HW129640   4.015   7.099   9.899
42581SOL    HW229641   4.106   7.164  10.001
42582SOL     OW29642  14.336   1.747   3.494
42582SOL    HW129643  14.369   1.834   3.518
42582SOL    HW229644  14.415   1.696   3.475
42583SOL     OW29645   9.408  12.813  12.352
42583SOL    HW129646   9.319  12.838  12.330
42583SOL    HW229647   9.414  12.720  12.327
42584SOL     OW29648  14.700  12.981   0.892
42584SOL    HW129649  14.784  12.951   0.925
42584SOL    HW229650  14.645  12.903   0.890
42585SOL     OW29651   1.800   4.706   1.724
42585SOL    HW129652   1.735   4.666   1.782
42585SOL    HW229653   1.882   4.662   1.746
42586SOL     OW29654   5.142   3.468   7.586
42586SOL    HW129655   5.067   3.414   7.563
42586SOL    HW229656   5.105   3.545   7.630
42587SOL     OW29657   1.365   0.187  11.508
42587SOL    HW129658   1.420   0.125  11.459
42587SOL    HW229659   1.423   0.223  11.575
42588SOL     OW29660   7.514   0.663   2.568
42588SOL    HW129661   7.513   0.582   2.618
42588SOL    HW229662   7.475   0.640   2.483
42589SOL     OW29663   2.164   9.200   7.755
42589SOL    HW129664   2.084   9.148   7.748
42589SOL    HW229665   2.234   9.139   7.732
42590SOL     OW29666   8.014  11.393  11.866
42590SOL    HW129667   7.951  11.464  11.881
42590SOL    HW229668   7.962  11.322  11.830
42591SOL     OW29669   7.880   9.840   2.769
42591SOL    HW129670   7.793   9.846   2.807
42591SOL    HW229671   7.932   9.791   2.833
42592SOL     OW29672   9.975   9.168   7.215
42592SOL    HW129673   9.905   9.188   7.277
42592SOL    HW229674  10.047   9.226   7.242
42593SOL     OW29675   2.059   0.783   2.622
42593SOL    HW129676   2.139   0.834   2.614
42593SOL    HW229677   2.011   0.799   2.541
42594SOL     OW29678   6.161   5.409   5.155
42594SOL    HW129679   6.075   5.368   5.142
42594SOL    HW229680   6.141   5.493   5.197
42595SOL     OW29681   1.121   4.549  11.336
42595SOL    HW129682   1.088   4.556  11.246
42595SOL    HW229683   1.181   4.623  11.346
42596SOL     OW29684   6.913  14.559   1.170
42596SOL    HW129685   6.892  14.519   1.254
42596SOL    HW229686   6.863  14.508   1.106
42597SOL     OW29687   0.339   0.083   6.070
42597SOL    HW129688   0.287   0.042   6.140
42597SOL    HW229689   0.298   0.053   5.989
42598SOL     OW29690   3.376   7.462  10.946
42598SOL    HW129691   3.326   7.395  10.899
42598SOL    HW229692   3.394   7.422  11.031
42599SOL     OW29693   9.053   8.428   4.216
42599SOL    HW129694   9.086   8.391   4.297
42599SOL    HW229695   9.118   8.404   4.150
42600SOL     OW29696   7.029   2.069  13.695
42600SOL    HW129697   6.969   2.128  13.649
42600SOL    HW229698   7.094   2.045  13.630
42601SOL     OW29699  13.436  11.992   0.149
42601SOL    HW129700  13.489  11.940   0.209
42601SOL    HW229701  13.433  11.941   0.069
42602SOL     OW29702   9.730   5.367   3.698
42602SOL    HW129703   9.678   5.425   3.754
42602SOL    HW229704   9.683   5.365   3.615
42603SOL     OW29705   0.544   9.151   4.221
42603SOL    HW129706   0.499   9.068   4.207
42603SOL    HW229707   0.473   9.215   4.231
42604SOL     OW29708   8.568   7.586   6.595
42604SOL    HW129709   8.623   7.525   6.644
42604SOL    HW229710   8.622   7.612   6.521
42605SOL     OW29711  11.672   6.754   3.388
42605SOL    HW129712  11.623   6.679   3.355
42605SOL    HW229713  11.746   6.716   3.435
42606SOL     OW29714   5.756   8.386   8.345
42606SOL    HW129715   5.752   8.303   8.391
42606SOL    HW229716   5.755   8.452   8.414
42607SOL     OW29717   5.239   3.348   7.121
42607SOL    HW129718   5.251   3.295   7.200
42607SOL    HW229719   5.309   3.321   7.062
42608SOL     OW29720   6.424   0.751   3.646
42608SOL    HW129721   6.482   0.715   3.580
42608SOL    HW229722   6.479   0.809   3.698
42609SOL     OW29723  11.407   5.541   9.998
42609SOL    HW129724  11.437   5.454   9.974
42609SOL    HW229725  11.457   5.562  10.077
42610SOL     OW29726  14.513   8.654   1.953
42610SOL    HW129727  14.520   8.567   1.913
42610SOL    HW229728  14.550   8.714   1.888
42611SOL     OW29729  10.956  13.609   9.337
42611SOL    HW129730  11.018  13.682   9.333
42611SOL    HW229731  11.009  13.531   9.320
42612SOL     OW29732  14.230   0.116   9.582
42612SOL    HW129733  14.137   0.102   9.602
42612SOL    HW229734  14.265   0.158   9.660
42613SOL     OW29735   5.367   5.952  11.705
42613SOL    HW129736   5.402   5.881  11.759
42613SOL    HW229737   5.420   5.951  11.626
42614SOL     OW29738  12.424   7.173  13.348
42614SOL    HW129739  12.426   7.246  13.286
42614SOL    HW229740  12.513   7.168  13.382
42615SOL     OW29741  13.452   7.342   5.382
42615SOL    HW129742  13.494   7.400   5.318
42615SOL    HW229743  13.512   7.269   5.391
42616SOL     OW29744  12.718   3.765   4.310
42616SOL    HW129745  12.629   3.736   4.289
42616SOL    HW229746  12.775   3.699   4.272
42617SOL     OW29747  14.120   2.429   7.676
42617SOL    HW129748  14.180   2.449   7.604
42617SOL    HW229749  14.140   2.338   7.698
42618SOL     OW29750   8.715  12.066   1.324
42618SOL    HW129751   8.646  12.014   1.284
42618SOL    HW229752   8.683  12.156   1.319
42619SOL     OW29753   2.948   4.788  10.538
42619SOL    HW129754   2.908   4.850  10.598
42619SOL    HW229755   2.874   4.743  10.496
42620SOL     OW29756   1.138   2.516   6.084
42620SOL    HW129757   1.054   2.552   6.056
42620SOL    HW229758   1.136   2.426   6.053
42621SOL     OW29759  14.128  10.389   2.611
42621SOL    HW129760  14.148  10.298   2.588
42621SOL    HW229761  14.213  10.434   2.605
42622SOL     OW29762   9.182   9.773  14.760
42622SOL    HW129763   9.202   9.740  14.673
42622SOL    HW229764   9.105   9.724  14.788
42623SOL     OW29765  14.125  12.940  12.480
42623SOL    HW129766  14.042  12.900  12.453
42623SOL    HW229767  14.152  12.890  12.557
42624SOL     OW29768  13.351   3.065  10.272
42624SOL    HW129769  13.425   3.101  10.223
42624SOL    HW229770  13.329   2.985  10.225
42625SOL     OW29771   3.760   7.409   9.130
42625SOL    HW129772   3.746   7.314   9.123
42625SOL    HW229773   3.844   7.417   9.176
42626SOL     OW29774  13.585  11.887  11.137
42626SOL    HW129775  13.531  11.852  11.208
42626SOL    HW229776  13.576  11.982  11.144
42627SOL     OW29777   9.600  14.450   1.607
42627SOL    HW129778   9.545  14.528   1.599
42627SOL    HW229779   9.613  14.440   1.701
42628SOL     OW29780  13.691  11.249   9.405
42628SOL    HW129781  13.711  11.234   9.313
42628SOL    HW229782  13.627  11.182   9.427
42629SOL     OW29783  12.757   3.752  12.638
42629SOL    HW129784  12.767   3.828  12.696
42629SOL    HW229785  12.725   3.683  12.695
42630SOL     OW29786   7.387   7.480  10.750
42630SOL    HW129787   7.377   7.424  10.827
42630SOL    HW229788   7.441   7.552  10.780
42631SOL     OW29789   8.426  10.713  12.239
42631SOL    HW129790   8.466  10.631  12.210
42631SOL    HW229791   8.489  10.750  12.302
42632SOL     OW29792   4.587   7.800   9.954
42632SOL    HW129793   4.491   7.806   9.947
42632SOL    HW229794   4.605   7.706   9.954
42633SOL     OW29795   3.892  14.566   1.146
42633SOL    HW129796   3.887  14.562   1.241
42633SOL    HW229797   3.985  14.566   1.126
42634SOL     OW29798  14.501   9.221   3.825
42634SOL    HW129799  14.536   9.147   3.874
42634SOL    HW229800  14.410   9.229   3.854
42635SOL     OW29801  11.367   5.495  13.617
42635SOL    HW129802  11.444   5.457  13.575
42635SOL    HW229803  11.393   5.506  13.709
42636SOL     OW29804   8.984   0.551   4.335
42636SOL    HW129805   8.991   0.474   4.391
42636SOL    HW229806   8.952   0.620   4.395
42637SOL     OW29807   6.330  12.581   7.979
42637SOL    HW129808   6.378  12.517   8.032
42637SOL    HW229809   6.396  12.643   7.950
42638SOL     OW29810   9.685  12.347   0.784
42638SOL    HW129811   9.736  12.294   0.846
42638SOL    HW229812   9.599  12.305   0.783
42639SOL     OW29813   3.655   8.674   8.446
42639SOL    HW129814   3.696   8.756   8.417
42639SOL    HW229815   3.563   8.697   8.459
42640SOL     OW29816  14.617  10.549   6.345
42640SOL    HW129817  14.555  10.477   6.341
42640SOL    HW229818  14.683  10.521   6.409
42641SOL     OW29819   9.371  13.654   0.588
42641SOL    HW129820   9.412  13.589   0.645
42641SOL    HW229821   9.281  13.622   0.576
42642SOL     OW29822   8.188   9.829   8.854
42642SOL    HW129823   8.170   9.877   8.773
42642SOL    HW229824   8.111   9.846   8.909
42643SOL     OW29825   2.024   1.684   6.411
42643SOL    HW129826   2.113   1.710   6.434
42643SOL    HW229827   1.982   1.667   6.495
42644SOL     OW29828  10.112  14.221   0.524
42644SOL    HW129829  10.074  14.306   0.547
42644SOL    HW229830  10.058  14.157   0.572
42645SOL     OW29831  10.148  14.753   0.886
42645SOL    HW129832  10.212  14.806   0.934
42645SOL    HW229833  10.067  14.763   0.935
42646SOL     OW29834   1.822  10.969   5.454
42646SOL    HW129835   1.751  10.977   5.518
42646SOL    HW229836   1.778  10.980   5.369
42647SOL     OW29837  11.227  11.479  14.702
42647SOL    HW129838  11.289  11.515  14.639
42647SOL    HW229839  11.281  11.459  14.779
42648SOL     OW29840   5.705  11.190  12.826
42648SOL    HW129841   5.688  11.118  12.765
42648SOL    HW229842   5.641  11.257  12.802
42649SOL     OW29843   4.072   6.792  13.598
42649SOL    HW129844   4.150   6.748  13.565
42649SOL    HW229845   4.079   6.881  13.564
42650SOL     OW29846  10.281   2.946   4.847
42650SOL    HW129847  10.256   2.894   4.924
42650SOL    HW229848  10.309   3.030   4.884
42651SOL     OW29849   7.322   2.464   3.888
42651SOL    HW129850   7.321   2.470   3.984
42651SOL    HW229851   7.301   2.372   3.870
42652SOL     OW29852   3.555  10.528   9.065
42652SOL    HW129853   3.535  10.553   9.155
42652SOL    HW229854   3.559  10.610   9.017
42653SOL     OW29855   0.878  11.002  11.677
42653SOL    HW129856   0.823  10.927  11.698
42653SOL    HW229857   0.946  10.967  11.620
42654SOL     OW29858   4.183  12.707   2.330
42654SOL    HW129859   4.127  12.664   2.265
42654SOL    HW229860   4.166  12.800   2.318
42655SOL     OW29861   0.386   8.350   2.493
42655SOL    HW129862   0.470   8.311   2.466
42655SOL    HW229863   0.347   8.381   2.411
42656SOL     OW29864   2.146   2.432   2.970
42656SOL    HW129865   2.187   2.355   3.012
42656SOL    HW229866   2.220   2.479   2.931
42657SOL     OW29867   8.437   6.345   8.560
42657SOL    HW129868   8.419   6.421   8.505
42657SOL    HW229869   8.532   6.343   8.568
42658SOL     OW29870   4.366   0.978  12.915
42658SOL    HW129871   4.437   0.931  12.873
42658SOL    HW229872   4.406   1.021  12.991
42659SOL     OW29873   6.265  14.623   5.058
42659SOL    HW129874   6.232  14.561   4.992
42659SOL    HW229875   6.304  14.567   5.126
42660SOL     OW29876   6.287   4.815  13.463
42660SOL    HW129877   6.235   4.842  13.388
42660SOL    HW229878   6.232   4.836  13.539
42661SOL     OW29879   8.533   1.349   4.700
42661SOL    HW129880   8.527   1.261   4.738
42661SOL    HW229881   8.468   1.349   4.630
42662SOL     OW29882   9.791   8.745   1.191
42662SOL    HW129883   9.841   8.768   1.270
42662SOL    HW229884   9.770   8.829   1.151
42663SOL     OW29885   0.041   1.536  14.031
42663SOL    HW129886   0.056   1.461  13.973
42663SOL    HW229887   0.117   1.592  14.018
42664SOL     OW29888   6.451   3.802  10.332
42664SOL    HW129889   6.460   3.847  10.416
42664SOL    HW229890   6.364   3.762  10.335
42665SOL     OW29891   0.810  14.217   7.714
42665SOL    HW129892   0.885  14.178   7.670
42665SOL    HW229893   0.793  14.158   7.788
42666SOL     OW29894  12.035   2.174  12.108
42666SOL    HW129895  12.092   2.157  12.032
42666SOL    HW229896  11.965   2.228  12.073
42667SOL     OW29897  14.835   5.318   2.510
42667SOL    HW129898  14.751   5.308   2.467
42667SOL    HW229899  14.842   5.241   2.567
42668SOL     OW29900  11.974   2.215  10.941
42668SOL    HW129901  12.067   2.206  10.921
42668SOL    HW229902  11.961   2.309  10.951
42669SOL     OW29903   0.858  12.501  11.614
42669SOL    HW129904   0.849  12.486  11.708
42669SOL    HW229905   0.941  12.459  11.591
42670SOL     OW29906   0.131  14.845   0.834
42670SOL    HW129907   0.129  14.825   0.928
42670SOL    HW229908   0.052  14.803   0.800
42671SOL     OW29909   8.381   7.906  13.335
42671SOL    HW129910   8.370   7.843  13.406
42671SOL    HW229911   8.462   7.878  13.291
42672SOL     OW29912   9.466   1.525   6.880
42672SOL    HW129913   9.440   1.597   6.938
42672SOL    HW229914   9.392   1.464   6.882
42673SOL     OW29915  10.751   7.045   9.949
42673SOL    HW129916  10.783   6.999  10.026
42673SOL    HW229917  10.823   7.103   9.924
42674SOL     OW29918   5.333  13.921   4.203
42674SOL    HW129919   5.414  13.872   4.220
42674SOL    HW229920   5.346  13.959   4.117
42675SOL     OW29921  12.385  13.458   6.730
42675SOL    HW129922  12.406  13.407   6.652
42675SOL    HW229923  12.404  13.549   6.706
42676SOL     OW29924   2.906  13.330  12.969
42676SOL    HW129925   2.936  13.375  13.048
42676SOL    HW229926   2.921  13.392  12.898
42677SOL     OW29927   7.384  10.268  13.491
42677SOL    HW129928   7.348  10.301  13.573
42677SOL    HW229929   7.472  10.304  13.487
42678SOL     OW29930  11.280  13.575   3.107
42678SOL    HW129931  11.294  13.489   3.146
42678SOL    HW229932  11.289  13.560   3.013
42679SOL     OW29933  13.575   6.607  11.680
42679SOL    HW129934  13.494   6.657  11.686
42679SOL    HW229935  13.633   6.648  11.745
42680SOL     OW29936   7.356   0.986   5.701
42680SOL    HW129937   7.429   1.029   5.656
42680SOL    HW229938   7.351   1.030   5.786
42681SOL     OW29939   3.140  11.287  10.523
42681SOL    HW129940   3.158  11.378  10.549
42681SOL    HW229941   3.083  11.253  10.591
42682SOL     OW29942   4.340   6.374   7.023
42682SOL    HW129943   4.338   6.279   7.030
42682SOL    HW229944   4.279   6.395   6.953
42683SOL     OW29945   2.309  12.942   3.917
42683SOL    HW129946   2.237  12.962   3.976
42683SOL    HW229947   2.368  12.887   3.969
42684SOL     OW29948   1.052  12.115   6.051
42684SOL    HW129949   1.104  12.123   6.131
42684SOL    HW229950   1.068  12.196   6.003
42685SOL     OW29951  13.704  12.999   7.775
42685SOL    HW129952  13.748  13.073   7.733
42685SOL    HW229953  13.765  12.970   7.843
42686SOL     OW29954   8.147  13.957   0.476
42686SOL    HW129955   8.119  14.045   0.451
42686SOL    HW229956   8.222  13.971   0.534
42687SOL     OW29957  10.704   1.367  10.889
42687SOL    HW129958  10.743   1.366  10.976
42687SOL    HW229959  10.702   1.275  10.862
42688SOL     OW29960   5.663   4.380  13.061
42688SOL    HW129961   5.574   4.370  13.028
42688SOL    HW229962   5.714   4.315  13.012
42689SOL     OW29963   6.873  11.435  13.049
42689SOL    HW129964   6.953  11.384  13.053
42689SOL    HW229965   6.833  11.410  12.966
42690SOL     OW29966  12.951   2.303   1.271
42690SOL    HW129967  12.959   2.393   1.241
42690SOL    HW229968  12.927   2.310   1.363
42691SOL     OW29969   0.461   5.595   6.441
42691SOL    HW129970   0.387   5.536   6.427
42691SOL    HW229971   0.428   5.681   6.418
42692SOL     OW29972   4.463  12.786  12.767
42692SOL    HW129973   4.515  12.714  12.803
42692SOL    HW229974   4.416  12.748  12.694
42693SOL     OW29975   9.602   9.629  12.427
42693SOL    HW129976   9.584   9.594  12.339
42693SOL    HW229977   9.582   9.722  12.420
42694SOL     OW29978   0.933  13.107   5.055
42694SOL    HW129979   0.923  13.193   5.094
42694SOL    HW229980   1.025  13.104   5.029
42695SOL     OW29981  10.096   9.438   2.777
42695SOL    HW129982  10.100   9.524   2.818
42695SOL    HW229983  10.139   9.380   2.840
42696SOL     OW29984   9.407   4.432  10.285
42696SOL    HW129985   9.415   4.527  10.285
42696SOL    HW229986   9.315   4.416  10.306
42697SOL     OW29987   3.592  14.028   9.114
42697SOL    HW129988   3.663  14.038   9.050
42697SOL    HW229989   3.559  14.117   9.126
42698SOL     OW29990  10.449  14.683   1.871
42698SOL    HW129991  10.430  14.662   1.962
42698SOL    HW229992  10.505  14.761   1.875
42699SOL     OW29993   9.506  10.087  12.743
42699SOL    HW129994   9.570  10.017  12.732
42699SOL    HW229995   9.483  10.113  12.653
42700SOL     OW29996   8.540   5.654  11.072
42700SOL    HW129997   8.536   5.559  11.069
42700SOL    HW229998   8.451   5.683  11.053
42701SOL     OW29999  12.125  10.463   5.147
42701SOL    HW130000  12.105  10.421   5.231
42701SOL    HW230001  12.200  10.414   5.113
42702SOL     OW30002  13.909  11.684   9.852
42702SOL    HW130003  13.943  11.631   9.779
42702SOL    HW230004  13.849  11.625   9.898
42703SOL     OW30005   8.724  12.492   7.861
42703SOL    HW130006   8.656  12.468   7.925
42703SOL    HW230007   8.806  12.490   7.911
42704SOL     OW30008   2.694   6.786   0.842
42704SOL    HW130009   2.694   6.880   0.823
42704SOL    HW230010   2.785   6.766   0.863
42705SOL     OW30011   9.933   8.241   8.256
42705SOL    HW130012   9.864   8.297   8.292
42705SOL    HW230013   9.965   8.288   8.179
42706SOL     OW30014  10.784  12.985   2.801
42706SOL    HW130015  10.785  12.988   2.706
42706SOL    HW230016  10.711  13.042   2.826
42707SOL     OW30017  12.747   4.863   4.968
42707SOL    HW130018  12.673   4.907   4.928
42707SOL    HW230019  12.734   4.770   4.948
42708SOL     OW30020   1.023   3.838   5.600
42708SOL    HW130021   0.980   3.759   5.631
42708SOL    HW230022   1.028   3.827   5.505
42709SOL     OW30023   8.254   8.263  13.618
42709SOL    HW130024   8.246   8.226  13.530
42709SOL    HW230025   8.252   8.188  13.677
42710SOL     OW30026  13.912   4.151   0.557
42710SOL    HW130027  13.877   4.235   0.526
42710SOL    HW230028  13.931   4.102   0.478
42711SOL     OW30029  10.626  14.090   8.537
42711SOL    HW130030  10.647  14.064   8.626
42711SOL    HW230031  10.531  14.083   8.531
42712SOL     OW30032  11.012   5.689  10.186
42712SOL    HW130033  11.079   5.747  10.150
42712SOL    HW230034  11.009   5.616  10.124
42713SOL     OW30035   1.168   6.922   0.073
42713SOL    HW130036   1.254   6.902   0.034
42713SOL    HW230037   1.163   7.018   0.070
42714SOL     OW30038  11.738   4.925  14.503
42714SOL    HW130039  11.829   4.912  14.477
42714SOL    HW230040  11.719   5.016  14.481
42715SOL     OW30041   2.143   5.617   8.279
42715SOL    HW130042   2.207   5.550   8.300
42715SOL    HW230043   2.191   5.681   8.227
42716SOL     OW30044   2.910  14.734   1.842
42716SOL    HW130045   2.907  14.763   1.751
42716SOL    HW230046   2.988  14.678   1.846
42717SOL     OW30047   7.458  12.417   3.084
42717SOL    HW130048   7.438  12.427   3.177
42717SOL    HW230049   7.553  12.419   3.079
42718SOL     OW30050   4.834  11.044   3.253
42718SOL    HW130051   4.762  11.027   3.313
42718SOL    HW230052   4.870  10.958   3.234
42719SOL     OW30053   5.220   3.623  13.857
42719SOL    HW130054   5.256   3.601  13.943
42719SOL    HW230055   5.199   3.716  13.863
42720SOL     OW30056  11.013  13.085   2.984
42720SOL    HW130057  10.951  13.058   2.915
42720SOL    HW230058  11.009  13.181   2.982
42721SOL     OW30059  13.027  13.773   4.012
42721SOL    HW130060  13.036  13.717   3.935
42721SOL    HW230061  12.978  13.720   4.075
42722SOL     OW30062  14.061  10.144   1.967
42722SOL    HW130063  14.040  10.233   1.941
42722SOL    HW230064  13.989  10.118   2.025
42723SOL     OW30065   9.507  10.465  10.900
42723SOL    HW130066   9.513  10.447  10.807
42723SOL    HW230067   9.506  10.378  10.941
42724SOL     OW30068   1.495  13.179   9.717
42724SOL    HW130069   1.453  13.183   9.803
42724SOL    HW230070   1.568  13.118   9.729
42725SOL     OW30071  13.572   1.795  11.363
42725SOL    HW130072  13.639   1.734  11.393
42725SOL    HW230073  13.498   1.739  11.338
42726SOL     OW30074  10.492   7.467   6.808
42726SOL    HW130075  10.529   7.542   6.762
42726SOL    HW230076  10.479   7.498   6.898
42727SOL     OW30077   2.861   2.241   6.825
42727SOL    HW130078   2.838   2.290   6.746
42727SOL    HW230079   2.953   2.219   6.814
42728SOL     OW30080   8.373   5.383   8.027
42728SOL    HW130081   8.418   5.432   7.958
42728SOL    HW230082   8.391   5.291   8.007
42729SOL     OW30083   8.691  11.247   8.605
42729SOL    HW130084   8.756  11.287   8.663
42729SOL    HW230085   8.707  11.153   8.612
42730SOL     OW30086   0.953   2.858   4.563
42730SOL    HW130087   0.908   2.792   4.511
42730SOL    HW230088   0.985   2.921   4.498
42731SOL     OW30089   5.511   9.739   7.650
42731SOL    HW130090   5.475   9.678   7.585
42731SOL    HW230091   5.469   9.823   7.631
42732SOL     OW30092   4.562  12.042   3.390
42732SOL    HW130093   4.569  11.971   3.326
42732SOL    HW230094   4.636  12.100   3.369
42733SOL     OW30095   6.914   4.129  13.022
42733SOL    HW130096   6.930   4.086  12.938
42733SOL    HW230097   6.917   4.058  13.087
42734SOL     OW30098   4.392   2.570   3.556
42734SOL    HW130099   4.402   2.527   3.640
42734SOL    HW230100   4.475   2.555   3.511
42735SOL     OW30101   8.625   7.625   8.803
42735SOL    HW130102   8.647   7.706   8.849
42735SOL    HW230103   8.707   7.577   8.797
42736SOL     OW30104  13.557   4.578  11.475
42736SOL    HW130105  13.552   4.663  11.432
42736SOL    HW230106  13.524   4.594  11.564
42737SOL     OW30107  13.273   1.401   7.708
42737SOL    HW130108  13.332   1.475   7.690
42737SOL    HW230109  13.185   1.437   7.693
42738SOL     OW30110   5.056   0.811   1.990
42738SOL    HW130111   4.966   0.780   1.993
42738SOL    HW230112   5.095   0.765   1.916
42739SOL     OW30113   9.981   3.540  11.066
42739SOL    HW130114   9.890   3.527  11.039
42739SOL    HW230115  10.033   3.501  10.996
42740SOL     OW30116  14.095   7.375  11.873
42740SOL    HW130117  14.079   7.281  11.880
42740SOL    HW230118  14.189   7.385  11.883
42741SOL     OW30119   6.222  14.096  11.119
42741SOL    HW130120   6.237  14.146  11.039
42741SOL    HW230121   6.179  14.016  11.089
42742SOL     OW30122   6.253   8.961   6.757
42742SOL    HW130123   6.261   9.056   6.770
42742SOL    HW230124   6.195   8.932   6.828
42743SOL     OW30125   3.582  11.358   2.768
42743SOL    HW130126   3.487  11.361   2.780
42743SOL    HW230127   3.615  11.428   2.825
42744SOL     OW30128   0.637   9.865  12.239
42744SOL    HW130129   0.544   9.843  12.239
42744SOL    HW230130   0.641   9.951  12.197
42745SOL     OW30131   1.865   5.341  13.547
42745SOL    HW130132   1.798   5.345  13.615
42745SOL    HW230133   1.939   5.296  13.588
42746SOL     OW30134   8.350   4.035   2.043
42746SOL    HW130135   8.358   3.940   2.051
42746SOL    HW230136   8.379   4.069   2.127
42747SOL     OW30137   9.657  13.642   2.436
42747SOL    HW130138   9.697  13.632   2.523
42747SOL    HW230139   9.726  13.681   2.382
42748SOL     OW30140   8.381  13.096   7.374
42748SOL    HW130141   8.337  13.178   7.396
42748SOL    HW230142   8.465  13.101   7.419
42749SOL     OW30143   5.966   2.252   2.472
42749SOL    HW130144   5.947   2.170   2.426
42749SOL    HW230145   5.882   2.298   2.472
42750SOL     OW30146   6.037  14.843   5.634
42750SOL    HW130147   5.948  14.814   5.655
42750SOL    HW230148   6.054   0.048   5.694
42751SOL     OW30149  12.209  12.996  10.357
42751SOL    HW130150  12.145  12.934  10.390
42751SOL    HW230151  12.202  13.072  10.415
42752SOL     OW30152  10.474  12.258   4.175
42752SOL    HW130153  10.499  12.305   4.095
42752SOL    HW230154  10.380  12.271   4.182
42753SOL     OW30155   6.795  14.350   1.989
42753SOL    HW130156   6.841  14.284   2.042
42753SOL    HW230157   6.769  14.417   2.052
42754SOL     OW30158   5.239   1.440   1.367
42754SOL    HW130159   5.147   1.454   1.347
42754SOL    HW230160   5.239   1.408   1.458
42755SOL     OW30161  14.070   9.280   9.627
42755SOL    HW130162  14.162   9.264   9.605
42755SOL    HW230163  14.043   9.201   9.674
42756SOL     OW30164  10.019   1.631  10.969
42756SOL    HW130165   9.925   1.617  10.958
42756SOL    HW230166  10.027   1.674  11.054
42757SOL     OW30167   9.894  14.310   7.830
42757SOL    HW130168   9.939  14.384   7.871
42757SOL    HW230169   9.951  14.235   7.848
42758SOL     OW30170   2.158  11.562   7.374
42758SOL    HW130171   2.176  11.557   7.280
42758SOL    HW230172   2.070  11.525   7.383
42759SOL     OW30173   4.428   6.069   7.081
42759SOL    HW130174   4.333   6.057   7.083
42759SOL    HW230175   4.458   6.013   7.009
42760SOL     OW30176  10.530   9.211   5.813
42760SOL    HW130177  10.509   9.290   5.863
42760SOL    HW230178  10.447   9.183   5.776
42761SOL     OW30179   2.894   6.416  12.776
42761SOL    HW130180   2.914   6.465  12.696
42761SOL    HW230181   2.890   6.325  12.747
42762SOL     OW30182   3.843   8.057  14.689
42762SOL    HW130183   3.849   8.090  14.778
42762SOL    HW230184   3.930   8.073  14.652
42763SOL     OW30185   3.326   2.227  14.865
42763SOL    HW130186   3.263   2.249  14.797
42763SOL    HW230187   3.309   2.135   0.018
42764SOL     OW30188   7.713   1.683   3.762
42764SOL    HW130189   7.637   1.637   3.799
42764SOL    HW230190   7.679   1.770   3.739
42765SOL     OW30191   6.240  13.006   5.169
42765SOL    HW130192   6.198  13.063   5.105
42765SOL    HW230193   6.319  13.054   5.195
42766SOL     OW30194   3.707  10.694   1.018
42766SOL    HW130195   3.639  10.679   0.952
42766SOL    HW230196   3.659  10.705   1.100
42767SOL     OW30197   1.134  14.031   7.917
42767SOL    HW130198   1.111  14.072   8.001
42767SOL    HW230199   1.217  14.073   7.893
42768SOL     OW30200  12.909  11.192  12.361
42768SOL    HW130201  12.816  11.178  12.342
42768SOL    HW230202  12.912  11.280  12.399
42769SOL     OW30203   4.037   3.115   8.047
42769SOL    HW130204   4.048   3.051   7.977
42769SOL    HW230205   4.116   3.105   8.102
42770SOL     OW30206   2.787   8.043   6.112
42770SOL    HW130207   2.781   8.137   6.096
42770SOL    HW230208   2.852   8.012   6.048
42771SOL     OW30209   3.328   3.381   2.459
42771SOL    HW130210   3.379   3.353   2.383
42771SOL    HW230211   3.309   3.473   2.442
42772SOL     OW30212   5.300   6.363  13.448
42772SOL    HW130213   5.278   6.366  13.355
42772SOL    HW230214   5.217   6.379  13.493
42773SOL     OW30215   3.503   4.422   8.510
42773SOL    HW130216   3.413   4.416   8.543
42773SOL    HW230217   3.501   4.496   8.449
42774SOL     OW30218   7.891   5.144  12.486
42774SOL    HW130219   7.858   5.061  12.520
42774SOL    HW230220   7.816   5.204  12.492
42775SOL     OW30221   3.370   7.094   1.559
42775SOL    HW130222   3.309   7.166   1.572
42775SOL    HW230223   3.391   7.096   1.466
42776SOL     OW30224   1.125   5.532   9.082
42776SOL    HW130225   1.096   5.448   9.116
42776SOL    HW230226   1.207   5.551   9.127
42777SOL     OW30227   6.235   0.725   9.176
42777SOL    HW130228   6.220   0.630   9.176
42777SOL    HW230229   6.219   0.752   9.085
42778SOL     OW30230  12.098   8.688  10.878
42778SOL    HW130231  12.057   8.771  10.854
42778SOL    HW230232  12.177   8.713  10.927
42779SOL     OW30233   2.222  11.434   2.215
42779SOL    HW130234   2.282  11.443   2.289
42779SOL    HW230235   2.244  11.349   2.176
42780SOL     OW30236   6.021   2.696   8.547
42780SOL    HW130237   5.967   2.707   8.468
42780SOL    HW230238   6.037   2.602   8.552
42781SOL     OW30239  13.730  13.987   5.604
42781SOL    HW130240  13.650  13.947   5.639
42781SOL    HW230241  13.699  14.043   5.532
42782SOL     OW30242   3.640   8.779   6.475
42782SOL    HW130243   3.632   8.684   6.478
42782SOL    HW230244   3.687   8.797   6.394
42783SOL     OW30245  11.500  10.113  11.382
42783SOL    HW130246  11.409  10.097  11.361
42783SOL    HW230247  11.510  10.081  11.472
42784SOL     OW30248  10.195   4.671   1.624
42784SOL    HW130249  10.110   4.636   1.648
42784SOL    HW230250  10.254   4.645   1.694
42785SOL     OW30251   8.890   0.150   0.805
42785SOL    HW130252   8.829   0.223   0.801
42785SOL    HW230253   8.880   0.116   0.894
42786SOL     OW30254   9.580   1.578   8.199
42786SOL    HW130255   9.634   1.588   8.120
42786SOL    HW230256   9.551   1.667   8.219
42787SOL     OW30257  11.571   9.610   6.944
42787SOL    HW130258  11.487   9.655   6.957
42787SOL    HW230259  11.550   9.517   6.954
42788SOL     OW30260   9.550   1.194   9.197
42788SOL    HW130261   9.503   1.151   9.125
42788SOL    HW230262   9.619   1.244   9.154
42789SOL     OW30263   1.930  12.602   8.053
42789SOL    HW130264   1.893  12.535   7.995
42789SOL    HW230265   1.981  12.658   7.995
42790SOL     OW30266  13.951  14.846  10.478
42790SOL    HW130267  13.938  14.798  10.560
42790SOL    HW230268  13.975   0.066  10.505
42791SOL     OW30269   5.476   4.119   3.257
42791SOL    HW130270   5.406   4.127   3.322
42791SOL    HW230271   5.432   4.087   3.178
42792SOL     OW30272   2.938  14.323   7.143
42792SOL    HW130273   2.976  14.298   7.059
42792SOL    HW230274   2.984  14.404   7.167
42793SOL     OW30275   4.464  10.916  12.215
42793SOL    HW130276   4.435  11.003  12.241
42793SOL    HW230277   4.423  10.857  12.278
42794SOL     OW30278  10.967   9.663   2.898
42794SOL    HW130279  10.939   9.737   2.952
42794SOL    HW230280  10.888   9.637   2.850
42795SOL     OW30281   9.444  10.844   9.837
42795SOL    HW130282   9.371  10.789   9.864
42795SOL    HW230283   9.505  10.841   9.911
42796SOL     OW30284  12.886   6.126   0.880
42796SOL    HW130285  12.907   6.034   0.896
42796SOL    HW230286  12.821   6.147   0.947
42797SOL     OW30287   9.364  12.443  13.410
42797SOL    HW130288   9.363  12.537  13.426
42797SOL    HW230289   9.309  12.430  13.333
42798SOL     OW30290  13.505   5.923   2.931
42798SOL    HW130291  13.552   5.934   2.849
42798SOL    HW230292  13.492   6.012   2.964
42799SOL     OW30293  13.323   1.192  13.295
42799SOL    HW130294  13.320   1.287  13.311
42799SOL    HW230295  13.416   1.172  13.285
42800SOL     OW30296  13.460   3.331   6.498
42800SOL    HW130297  13.399   3.294   6.434
42800SOL    HW230298  13.522   3.382   6.446
42801SOL     OW30299  12.183  12.357  11.643
42801SOL    HW130300  12.193  12.323  11.731
42801SOL    HW230301  12.095  12.331  11.617
42802SOL     OW30302   3.320  11.939  12.821
42802SOL    HW130303   3.241  11.930  12.767
42802SOL    HW230304   3.389  11.962  12.759
42803SOL     OW30305   5.148   0.364   6.393
42803SOL    HW130306   5.198   0.421   6.335
42803SOL    HW230307   5.143   0.281   6.346
42804SOL     OW30308   5.527   2.431   0.702
42804SOL    HW130309   5.547   2.457   0.612
42804SOL    HW230310   5.532   2.513   0.752
42805SOL     OW30311   2.392  10.745   9.266
42805SOL    HW130312   2.306  10.732   9.307
42805SOL    HW230313   2.390  10.836   9.235
42806SOL     OW30314  12.424   8.984   4.108
42806SOL    HW130315  12.329   8.982   4.120
42806SOL    HW230316  12.447   9.077   4.109
42807SOL     OW30317  10.901   0.234   5.470
42807SOL    HW130318  10.823   0.189   5.438
42807SOL    HW230319  10.974   0.177   5.445
42808SOL     OW30320   7.134   2.749  10.135
42808SOL    HW130321   7.082   2.730  10.057
42808SOL    HW230322   7.087   2.820  10.179
42809SOL     OW30323  14.275   7.118   7.264
42809SOL    HW130324  14.336   7.058   7.306
42809SOL    HW230325  14.279   7.198   7.318
42810SOL     OW30326   5.488   4.664   1.657
42810SOL    HW130327   5.456   4.574   1.646
42810SOL    HW230328   5.557   4.673   1.591
42811SOL     OW30329   7.811   2.895   3.501
42811SOL    HW130330   7.847   2.881   3.414
42811SOL    HW230331   7.883   2.875   3.561
42812SOL     OW30332   1.763   7.985   4.395
42812SOL    HW130333   1.771   7.905   4.447
42812SOL    HW230334   1.690   7.968   4.336
42813SOL     OW30335  12.126   3.318  13.684
42813SOL    HW130336  12.146   3.319  13.777
42813SOL    HW230337  12.031   3.306  13.680
42814SOL     OW30338  11.010   5.997   2.041
42814SOL    HW130339  11.011   5.934   1.969
42814SOL    HW230340  10.990   6.080   1.999
42815SOL     OW30341  14.028   6.672  14.424
42815SOL    HW130342  13.984   6.753  14.399
42815SOL    HW230343  13.968   6.630  14.486
42816SOL     OW30344   1.542   0.566   8.893
42816SOL    HW130345   1.536   0.643   8.950
42816SOL    HW230346   1.625   0.577   8.846
42817SOL     OW30347  10.275   8.411   6.692
42817SOL    HW130348  10.187   8.446   6.704
42817SOL    HW230349  10.301   8.381   6.779
42818SOL     OW30350   8.729   4.457  14.386
42818SOL    HW130351   8.651   4.493  14.346
42818SOL    HW230352   8.699   4.423  14.471
42819SOL     OW30353   3.241  12.948  14.016
42819SOL    HW130354   3.184  12.890  14.066
42819SOL    HW230355   3.198  12.955  13.930
42820SOL     OW30356   3.495   0.275   6.899
42820SOL    HW130357   3.573   0.311   6.943
42820SOL    HW230358   3.424   0.289   6.962
42821SOL     OW30359  13.732   3.506   8.746
42821SOL    HW130360  13.707   3.452   8.671
42821SOL    HW230361  13.662   3.569   8.756
42822SOL     OW30362   0.200   2.204  14.590
42822SOL    HW130363   0.194   2.109  14.587
42822SOL    HW230364   0.165   2.233  14.506
42823SOL     OW30365   4.248   7.065  12.663
42823SOL    HW130366   4.305   7.131  12.702
42823SOL    HW230367   4.213   7.107  12.585
42824SOL     OW30368   8.216   6.678   6.469
42824SOL    HW130369   8.232   6.718   6.555
42824SOL    HW230370   8.240   6.746   6.406
42825SOL     OW30371   1.983   2.214   2.870
42825SOL    HW130372   2.047   2.282   2.892
42825SOL    HW230373   1.911   2.261   2.829
42826SOL     OW30374   2.369   6.423   2.522
42826SOL    HW130375   2.460   6.398   2.537
42826SOL    HW230376   2.373   6.487   2.450
42827SOL     OW30377  13.520  12.577  13.705
42827SOL    HW130378  13.514  12.528  13.624
42827SOL    HW230379  13.483  12.662  13.685
42828SOL     OW30380  12.120  10.518   2.390
42828SOL    HW130381  12.155  10.499   2.303
42828SOL    HW230382  12.176  10.589   2.423
42829SOL     OW30383   2.349  12.293   5.050
42829SOL    HW130384   2.320  12.244   4.973
42829SOL    HW230385   2.328  12.384   5.030
42830SOL     OW30386   2.854   5.044   0.212
42830SOL    HW130387   2.766   5.074   0.189
42830SOL    HW230388   2.912   5.102   0.162
42831SOL     OW30389  11.327   0.824  11.672
42831SOL    HW130390  11.253   0.872  11.637
42831SOL    HW230391  11.292   0.777  11.748
42832SOL     OW30392   4.783  13.113   3.547
42832SOL    HW130393   4.689  13.127   3.537
42832SOL    HW230394   4.815  13.194   3.586
42833SOL     OW30395   9.937   2.613   0.058
42833SOL    HW130396   9.937   2.568   0.142
42833SOL    HW230397   9.894   2.697   0.076
42834SOL     OW30398  11.597   5.582   6.036
42834SOL    HW130399  11.671   5.546   5.988
42834SOL    HW230400  11.526   5.520   6.021
42835SOL     OW30401   7.741  14.039   2.062
42835SOL    HW130402   7.824  14.074   2.029
42835SOL    HW230403   7.675  14.101   2.032
42836SOL     OW30404  13.590  14.102   8.204
42836SOL    HW130405  13.658  14.039   8.182
42836SOL    HW230406  13.631  14.162   8.267
42837SOL     OW30407   7.310   6.004   0.157
42837SOL    HW130408   7.401   6.030   0.174
42837SOL    HW230409   7.258   6.064   0.211
42838SOL     OW30410  11.350   0.451   4.706
42838SOL    HW130411  11.351   0.359   4.730
42838SOL    HW230412  11.440   0.471   4.681
42839SOL     OW30413   4.132   3.232   7.208
42839SOL    HW130414   4.140   3.147   7.166
42839SOL    HW230415   4.050   3.268   7.173
42840SOL     OW30416   1.586  13.481   0.469
42840SOL    HW130417   1.500  13.449   0.442
42840SOL    HW230418   1.593  13.458   0.561
42841SOL     OW30419  14.714   2.054   4.950
42841SOL    HW130420  14.710   1.977   5.008
42841SOL    HW230421  14.804   2.055   4.917
42842SOL     OW30422   4.278  11.495   3.311
42842SOL    HW130423   4.192  11.523   3.344
42842SOL    HW230424   4.257  11.434   3.240
42843SOL     OW30425   2.631   1.980  11.342
42843SOL    HW130426   2.663   1.971  11.432
42843SOL    HW230427   2.637   1.892  11.306
42844SOL     OW30428   7.568  10.846   3.521
42844SOL    HW130429   7.576  10.795   3.440
42844SOL    HW230430   7.495  10.906   3.505
42845SOL     OW30431   0.058  12.781  11.206
42845SOL    HW130432   0.049  12.704  11.150
42845SOL    HW230433   0.016  12.756  11.288
42846SOL     OW30434   3.038   2.169  13.460
42846SOL    HW130435   3.084   2.105  13.513
42846SOL    HW230436   2.975   2.210  13.520
42847SOL     OW30437   3.748   6.667   5.644
42847SOL    HW130438   3.808   6.630   5.708
42847SOL    HW230439   3.674   6.607   5.642
42848SOL     OW30440   8.941   2.965   9.578
42848SOL    HW130441   8.959   2.922   9.662
42848SOL    HW230442   8.847   2.985   9.582
42849SOL     OW30443   5.833   1.569  11.148
42849SOL    HW130444   5.758   1.629  11.151
42849SOL    HW230445   5.857   1.555  11.239
42850SOL     OW30446   3.231  13.066   0.374
42850SOL    HW130447   3.267  13.063   0.463
42850SOL    HW230448   3.180  12.985   0.366
42851SOL     OW30449   3.154  10.892   5.177
42851SOL    HW130450   3.196  10.917   5.095
42851SOL    HW230451   3.158  10.796   5.177
42852SOL     OW30452  12.052   8.018  12.328
42852SOL    HW130453  12.001   8.099  12.323
42852SOL    HW230454  12.018   7.973  12.406
42853SOL     OW30455  13.552  14.765  13.405
42853SOL    HW130456  13.596  14.849  13.411
42853SOL    HW230457  13.577  14.718  13.485
42854SOL     OW30458  10.623  11.235   3.040
42854SOL    HW130459  10.531  11.216   3.058
42854SOL    HW230460  10.621  11.302   2.973
42855SOL     OW30461   2.504   5.079   1.442
42855SOL    HW130462   2.551   5.133   1.377
42855SOL    HW230463   2.544   5.102   1.526
42856SOL     OW30464  13.063  14.086  14.482
42856SOL    HW130465  13.149  14.124  14.465
42856SOL    HW230466  13.019  14.087  14.397
42857SOL     OW30467   2.441   9.169   7.882
42857SOL    HW130468   2.445   9.242   7.820
42857SOL    HW230469   2.413   9.209   7.965
42858SOL     OW30470  12.874   3.671   3.141
42858SOL    HW130471  12.954   3.720   3.160
42858SOL    HW230472  12.898   3.580   3.156
42859SOL     OW30473   5.518   7.417  14.703
42859SOL    HW130474   5.492   7.499  14.660
42859SOL    HW230475   5.437   7.383  14.741
42860SOL     OW30476   2.151   2.486   2.380
42860SOL    HW130477   2.093   2.410   2.387
42860SOL    HW230478   2.097   2.560   2.405
42861SOL     OW30479   9.724   0.612   9.152
42861SOL    HW130480   9.697   0.521   9.136
42861SOL    HW230481   9.810   0.605   9.193
42862SOL     OW30482   0.844   4.409   2.875
42862SOL    HW130483   0.805   4.417   2.962
42862SOL    HW230484   0.817   4.322   2.844
42863SOL     OW30485   4.431   6.081  13.340
42863SOL    HW130486   4.399   6.023  13.409
42863SOL    HW230487   4.526   6.083  13.353
42864SOL     OW30488  12.136   5.958   8.779
42864SOL    HW130489  12.148   6.011   8.858
42864SOL    HW230490  12.115   5.871   8.811
42865SOL     OW30491   7.940   2.155   9.158
42865SOL    HW130492   7.903   2.071   9.130
42865SOL    HW230493   7.885   2.182   9.232
42866SOL     OW30494   2.052   3.666  10.398
42866SOL    HW130495   2.110   3.694  10.326
42866SOL    HW230496   2.072   3.728  10.469
42867SOL     OW30497  10.848  11.984   1.822
42867SOL    HW130498  10.805  11.905   1.853
42867SOL    HW230499  10.783  12.027   1.767
42868SOL     OW30500  11.318   7.608   8.679
42868SOL    HW130501  11.336   7.540   8.743
42868SOL    HW230502  11.371   7.583   8.603
42869SOL     OW30503   6.267   2.792  11.762
42869SOL    HW130504   6.191   2.836  11.799
42869SOL    HW230505   6.273   2.824  11.673
42870SOL     OW30506   6.222  13.602   1.493
42870SOL    HW130507   6.172  13.676   1.459
42870SOL    HW230508   6.161  13.557   1.552
42871SOL     OW30509   8.773   1.353   7.837
42871SOL    HW130510   8.771   1.400   7.921
42871SOL    HW230511   8.864   1.324   7.829
42872SOL     OW30512   0.855   4.336  12.058
42872SOL    HW130513   0.871   4.331  12.152
42872SOL    HW230514   0.941   4.353  12.020
42873SOL     OW30515   8.830   5.801   0.542
42873SOL    HW130516   8.780   5.721   0.526
42873SOL    HW230517   8.764   5.867   0.564
42874SOL     OW30518  13.569   9.744  11.631
42874SOL    HW130519  13.636   9.809  11.650
42874SOL    HW230520  13.580   9.724  11.538
42875SOL     OW30521  13.186  13.066   2.141
42875SOL    HW130522  13.262  13.093   2.193
42875SOL    HW230523  13.219  13.063   2.051
42876SOL     OW30524   7.576   0.590   3.701
42876SOL    HW130525   7.576   0.521   3.767
42876SOL    HW230526   7.613   0.549   3.623
42877SOL     OW30527   1.966   2.616   8.140
42877SOL    HW130528   1.955   2.704   8.104
42877SOL    HW230529   2.045   2.582   8.098
42878SOL     OW30530   3.524   7.537   5.447
42878SOL    HW130531   3.480   7.465   5.493
42878SOL    HW230532   3.510   7.518   5.354
42879SOL     OW30533  14.539   6.236   5.988
42879SOL    HW130534  14.493   6.270   5.912
42879SOL    HW230535  14.488   6.159   6.014
42880SOL     OW30536   7.484   7.980  14.329
42880SOL    HW130537   7.457   7.890  14.348
42880SOL    HW230538   7.402   8.027  14.317
42881SOL     OW30539   2.202   9.444   0.111
42881SOL    HW130540   2.272   9.385   0.142
42881SOL    HW230541   2.191   9.507   0.183
42882SOL     OW30542  14.001   1.969  12.779
42882SOL    HW130543  14.077   2.028  12.781
42882SOL    HW230544  13.927   2.026  12.800
42883SOL     OW30545   9.410   7.867   0.273
42883SOL    HW130546   9.454   7.947   0.246
42883SOL    HW230547   9.355   7.843   0.198
42884SOL     OW30548   4.138  12.728  11.197
42884SOL    HW130549   4.135  12.729  11.102
42884SOL    HW230550   4.111  12.816  11.223
42885SOL     OW30551   0.803   3.311   6.018
42885SOL    HW130552   0.708   3.312   6.022
42885SOL    HW230553   0.827   3.221   6.040
42886SOL     OW30554  11.327  10.998   6.244
42886SOL    HW130555  11.308  11.087   6.214
42886SOL    HW230556  11.340  11.008   6.339
42887SOL     OW30557   1.847  12.018   7.465
42887SOL    HW130558   1.765  12.006   7.513
42887SOL    HW230559   1.912  12.041   7.531
42888SOL     OW30560   1.925   5.432  13.078
42888SOL    HW130561   1.939   5.508  13.134
42888SOL    HW230562   1.990   5.441  13.008
42889SOL     OW30563   0.960  12.891   0.297
42889SOL    HW130564   0.901  12.846   0.236
42889SOL    HW230565   0.920  12.977   0.310
42890SOL     OW30566   8.506   8.869   0.795
42890SOL    HW130567   8.539   8.817   0.722
42890SOL    HW230568   8.428   8.822   0.824
42891SOL     OW30569   4.648  12.179  11.787
42891SOL    HW130570   4.671  12.248  11.849
42891SOL    HW230571   4.659  12.218  11.701
42892SOL     OW30572   4.958   5.362   3.831
42892SOL    HW130573   5.041   5.317   3.846
42892SOL    HW230574   4.981   5.436   3.775
42893SOL     OW30575   3.167  10.104   1.187
42893SOL    HW130576   3.102  10.033   1.187
42893SOL    HW230577   3.226  10.082   1.114
42894SOL     OW30578  13.352  13.136  10.014
42894SOL    HW130579  13.408  13.126  10.090
42894SOL    HW230580  13.361  13.228   9.989
42895SOL     OW30581   5.035   1.160   3.663
42895SOL    HW130582   5.028   1.251   3.635
42895SOL    HW230583   4.993   1.158   3.749
42896SOL     OW30584   2.369   9.962   4.060
42896SOL    HW130585   2.437   9.895   4.059
42896SOL    HW230586   2.299   9.924   4.112
42897SOL     OW30587   7.663   5.327  13.708
42897SOL    HW130588   7.593   5.365  13.657
42897SOL    HW230589   7.732   5.393  13.708
42898SOL     OW30590   6.844   4.349  12.093
42898SOL    HW130591   6.860   4.405  12.017
42898SOL    HW230592   6.866   4.403  12.168
42899SOL     OW30593  14.162   7.749   6.909
42899SOL    HW130594  14.097   7.750   6.980
42899SOL    HW230595  14.155   7.662   6.871
42900SOL     OW30596   7.283  14.158  14.633
42900SOL    HW130597   7.217  14.217  14.597
42900SOL    HW230598   7.261  14.151  14.726
42901SOL     OW30599  12.789   1.570   9.094
42901SOL    HW130600  12.836   1.530   9.021
42901SOL    HW230601  12.730   1.500   9.125
42902SOL     OW30602   9.407   1.910   8.956
42902SOL    HW130603   9.359   1.845   8.906
42902SOL    HW230604   9.338   1.964   8.996
42903SOL     OW30605   9.474   1.207  10.348
42903SOL    HW130606   9.434   1.294  10.346
42903SOL    HW230607   9.488   1.190  10.441
42904SOL     OW30608   0.297  13.759   0.763
42904SOL    HW130609   0.358  13.693   0.797
42904SOL    HW230610   0.266  13.804   0.841
42905SOL     OW30611  12.184   0.970   1.172
42905SOL    HW130612  12.158   1.002   1.086
42905SOL    HW230613  12.101   0.952   1.217
42906SOL     OW30614   7.691  14.799  10.971
42906SOL    HW130615   7.697  14.745  10.892
42906SOL    HW230616   7.624  14.755  11.024
42907SOL     OW30617  10.644   5.328   4.441
42907SOL    HW130618  10.671   5.246   4.398
42907SOL    HW230619  10.549   5.319   4.452
42908SOL     OW30620  12.387   4.522  10.087
42908SOL    HW130621  12.355   4.541   9.999
42908SOL    HW230622  12.433   4.438  10.078
42909SOL     OW30623  14.294   8.516  14.245
42909SOL    HW130624  14.361   8.466  14.198
42909SOL    HW230625  14.248   8.565  14.177
42910SOL     OW30626   1.443  11.133  12.216
42910SOL    HW130627   1.433  11.117  12.310
42910SOL    HW230628   1.516  11.194  12.209
42911SOL     OW30629   8.292  12.699   4.253
42911SOL    HW130630   8.347  12.703   4.331
42911SOL    HW230631   8.230  12.629   4.271
42912SOL     OW30632   6.759   1.507  11.205
42912SOL    HW130633   6.784   1.587  11.252
42912SOL    HW230634   6.665   1.516  11.191
42913SOL     OW30635   5.742  14.059   5.707
42913SOL    HW130636   5.783  14.083   5.624
42913SOL    HW230637   5.683  13.988   5.685
42914SOL     OW30638   9.808   3.817   8.559
42914SOL    HW130639   9.802   3.722   8.573
42914SOL    HW230640   9.723   3.851   8.587
42915SOL     OW30641   5.212   0.983   5.960
42915SOL    HW130642   5.126   0.983   6.001
42915SOL    HW230643   5.273   0.986   6.034
42916SOL     OW30644   2.188   1.394   1.191
42916SOL    HW130645   2.186   1.486   1.218
42916SOL    HW230646   2.174   1.345   1.272
42917SOL     OW30647   1.027  13.103   3.632
42917SOL    HW130648   0.996  13.187   3.596
42917SOL    HW230649   0.961  13.079   3.697
42918SOL     OW30650   1.861  14.851   9.972
42918SOL    HW130651   1.906  14.833  10.055
42918SOL    HW230652   1.783  14.795   9.975
42919SOL     OW30653   4.406   9.961   8.526
42919SOL    HW130654   4.429   9.903   8.598
42919SOL    HW230655   4.335   9.915   8.480
42920SOL     OW30656  14.717  10.410   5.945
42920SOL    HW130657  14.761  10.331   5.977
42920SOL    HW230658  14.756  10.481   5.997
42921SOL     OW30659  12.051  11.894  10.267
42921SOL    HW130660  12.067  11.838  10.343
42921SOL    HW230661  11.977  11.853  10.221
42922SOL     OW30662   0.234  14.353   0.195
42922SOL    HW130663   0.220  14.304   0.115
42922SOL    HW230664   0.300  14.418   0.172
42923SOL     OW30665   0.445   0.290  14.779
42923SOL    HW130666   0.440   0.290   0.007
42923SOL    HW230667   0.361   0.253  14.751
42924SOL     OW30668   8.491  14.117   9.878
42924SOL    HW130669   8.543  14.132   9.800
42924SOL    HW230670   8.493  14.022   9.890
42925SOL     OW30671   1.304   7.732   7.831
42925SOL    HW130672   1.260   7.666   7.885
42925SOL    HW230673   1.324   7.687   7.750
42926SOL     OW30674  14.770  10.672  10.011
42926SOL    HW130675  14.705  10.640   9.949
42926SOL    HW230676  14.796  10.594  10.061
42927SOL     OW30677   7.956   6.664  14.514
42927SOL    HW130678   8.004   6.637  14.435
42927SOL    HW230679   7.864   6.648  14.493
42928SOL     OW30680   1.401   5.834  13.287
42928SOL    HW130681   1.366   5.922  13.303
42928SOL    HW230682   1.348   5.777  13.343
42929SOL     OW30683  13.044   4.783   0.012
42929SOL    HW130684  13.019   4.873  14.860
42929SOL    HW230685  12.966   4.746   0.053
42930SOL     OW30686   0.654   5.797   5.829
42930SOL    HW130687   0.602   5.756   5.759
42930SOL    HW230688   0.741   5.808   5.790
42931SOL     OW30689   2.987  10.866   7.764
42931SOL    HW130690   2.934  10.910   7.830
42931SOL    HW230691   3.018  10.935   7.707
42932SOL     OW30692   0.542   4.893   6.289
42932SOL    HW130693   0.613   4.957   6.293
42932SOL    HW230694   0.586   4.808   6.297
42933SOL     OW30695  10.176  12.529  14.760
42933SOL    HW130696  10.221  12.482  14.831
42933SOL    HW230697  10.220  12.614  14.756
42934SOL     OW30698  12.579  12.653   6.966
42934SOL    HW130699  12.591  12.690   7.053
42934SOL    HW230700  12.537  12.723   6.916
42935SOL     OW30701   6.374   4.566   1.628
42935SOL    HW130702   6.355   4.477   1.599
42935SOL    HW230703   6.416   4.555   1.713
42936SOL     OW30704  13.453  11.312   5.329
42936SOL    HW130705  13.460  11.222   5.299
42936SOL    HW230706  13.385  11.351   5.274
42937SOL     OW30707  10.975   5.494   5.868
42937SOL    HW130708  11.070   5.506   5.873
42937SOL    HW230709  10.957   5.483   5.774
42938SOL     OW30710   6.897   5.578   8.806
42938SOL    HW130711   6.814   5.590   8.853
42938SOL    HW230712   6.921   5.666   8.778
42939SOL     OW30713   4.102   9.321   9.078
42939SOL    HW130714   4.150   9.256   9.027
42939SOL    HW230715   4.095   9.282   9.165
42940SOL     OW30716   9.471   2.311   1.461
42940SOL    HW130717   9.516   2.365   1.526
42940SOL    HW230718   9.444   2.232   1.509
42941SOL     OW30719  14.795   3.919   5.928
42941SOL    HW130720  14.806   4.013   5.918
42941SOL    HW230721  14.727   3.909   5.994
42942SOL     OW30722  14.068  14.179   9.134
42942SOL    HW130723  14.127  14.254   9.144
42942SOL    HW230724  14.045  14.154   9.224
42943SOL     OW30725   7.730   7.565  10.270
42943SOL    HW130726   7.730   7.542  10.177
42943SOL    HW230727   7.653   7.621  10.280
42944SOL     OW30728   3.248   6.400   0.286
42944SOL    HW130729   3.257   6.462   0.358
42944SOL    HW230730   3.256   6.314   0.328
42945SOL     OW30731   1.542   9.735  10.780
42945SOL    HW130732   1.546   9.650  10.824
42945SOL    HW230733   1.630   9.773  10.794
42946SOL     OW30734   5.068   6.549  11.457
42946SOL    HW130735   5.146   6.602  11.475
42946SOL    HW230736   5.052   6.501  11.539
42947SOL     OW30737  14.359  11.855  11.630
42947SOL    HW130738  14.343  11.825  11.540
42947SOL    HW230739  14.367  11.950  11.623
42948SOL     OW30740   0.395   3.508   9.085
42948SOL    HW130741   0.456   3.543   9.020
42948SOL    HW230742   0.330   3.577   9.097
42949SOL     OW30743   0.723   5.286   1.788
42949SOL    HW130744   0.641   5.278   1.836
42949SOL    HW230745   0.772   5.207   1.810
42950SOL     OW30746   6.252   5.570  13.395
42950SOL    HW130747   6.276   5.542  13.307
42950SOL    HW230748   6.207   5.495  13.432
42951SOL     OW30749  14.625  13.310  10.303
42951SOL    HW130750  14.674  13.346  10.376
42951SOL    HW230751  14.580  13.386  10.264
42952SOL     OW30752   0.157   3.928   5.729
42952SOL    HW130753   0.097   3.892   5.795
42952SOL    HW230754   0.123   3.895   5.646
42953SOL     OW30755   2.428   3.052   2.479
42953SOL    HW130756   2.350   3.021   2.526
42953SOL    HW230757   2.494   3.063   2.548
42954SOL     OW30758   2.714   2.176   4.042
42954SOL    HW130759   2.717   2.124   4.122
42954SOL    HW230760   2.641   2.237   4.055
42955SOL     OW30761   4.040  13.487   8.072
42955SOL    HW130762   3.970  13.447   8.123
42955SOL    HW230763   4.055  13.425   8.001
42956SOL     OW30764   8.730   1.686   7.193
42956SOL    HW130765   8.813   1.684   7.240
42956SOL    HW230766   8.755   1.696   7.101
42957SOL     OW30767  12.937   5.537   0.803
42957SOL    HW130768  12.884   5.533   0.723
42957SOL    HW230769  12.996   5.612   0.789
42958SOL     OW30770   5.781   8.868   1.854
42958SOL    HW130771   5.719   8.795   1.848
42958SOL    HW230772   5.790   8.900   1.764
42959SOL     OW30773   3.553   5.313   2.723
42959SOL    HW130774   3.618   5.353   2.666
42959SOL    HW230775   3.596   5.235   2.758
42960SOL     OW30776  10.125  14.718   4.818
42960SOL    HW130777  10.123  14.813   4.830
42960SOL    HW230778  10.035  14.690   4.831
42961SOL     OW30779   4.057   3.258   1.763
42961SOL    HW130780   4.071   3.347   1.796
42961SOL    HW230781   4.132   3.241   1.707
42962SOL     OW30782   9.526   4.649   7.352
42962SOL    HW130783   9.472   4.645   7.273
42962SOL    HW230784   9.466   4.631   7.423
42963SOL     OW30785   5.131  14.059  12.264
42963SOL    HW130786   5.068  14.065  12.337
42963SOL    HW230787   5.215  14.044  12.307
42964SOL     OW30788   4.275  13.306   5.159
42964SOL    HW130789   4.199  13.330   5.212
42964SOL    HW230790   4.238  13.281   5.074
42965SOL     OW30791   2.430  14.395   4.192
42965SOL    HW130792   2.480  14.436   4.122
42965SOL    HW230793   2.398  14.313   4.154
42966SOL     OW30794   7.701   0.287   7.299
42966SOL    HW130795   7.667   0.199   7.290
42966SOL    HW230796   7.789   0.276   7.334
42967SOL     OW30797   0.188   6.972  11.149
42967SOL    HW130798   0.244   6.895  11.148
42967SOL    HW230799   0.196   7.006  11.238
42968SOL     OW30800  13.542  10.473  11.645
42968SOL    HW130801  13.449  10.455  11.629
42968SOL    HW230802  13.570  10.527  11.571
42969SOL     OW30803   5.418   4.611   2.910
42969SOL    HW130804   5.349   4.603   2.976
42969SOL    HW230805   5.426   4.705   2.895
42970SOL     OW30806  11.427  13.410   6.850
42970SOL    HW130807  11.367  13.462   6.904
42970SOL    HW230808  11.502  13.468   6.834
42971SOL     OW30809  11.265  13.222   6.513
42971SOL    HW130810  11.273  13.174   6.596
42971SOL    HW230811  11.212  13.298   6.534
42972SOL     OW30812   0.892   7.758  11.984
42972SOL    HW130813   0.907   7.815  11.909
42972SOL    HW230814   0.848   7.813  12.048
42973SOL     OW30815   2.384   6.007  12.700
42973SOL    HW130816   2.318   6.046  12.642
42973SOL    HW230817   2.390   5.916  12.670
42974SOL     OW30818   8.882  10.710   3.071
42974SOL    HW130819   8.901  10.699   2.978
42974SOL    HW230820   8.950  10.660   3.115
42975SOL     OW30821   4.030   3.989   3.688
42975SOL    HW130822   4.020   4.082   3.669
42975SOL    HW230823   3.952   3.965   3.737
42976SOL     OW30824   7.128   0.252   1.028
42976SOL    HW130825   7.107   0.211   0.944
42976SOL    HW230826   7.203   0.203   1.060
42977SOL     OW30827   2.983  12.774  13.705
42977SOL    HW130828   2.975  12.839  13.636
42977SOL    HW230829   2.914  12.796  13.768
42978SOL     OW30830  12.531   4.845  10.039
42978SOL    HW130831  12.604   4.820  10.096
42978SOL    HW230832  12.470   4.772  10.043
42979SOL     OW30833   0.741   6.709   4.253
42979SOL    HW130834   0.724   6.678   4.164
42979SOL    HW230835   0.836   6.701   4.264
42980SOL     OW30836   5.800  13.585  13.283
42980SOL    HW130837   5.820  13.673  13.253
42980SOL    HW230838   5.800  13.592  13.379
42981SOL     OW30839   2.940   2.655  11.311
42981SOL    HW130840   2.859   2.614  11.279
42981SOL    HW230841   2.924   2.670  11.404
42982SOL     OW30842   4.679  13.201  11.429
42982SOL    HW130843   4.622  13.139  11.383
42982SOL    HW230844   4.619  13.256  11.479
42983SOL     OW30845   3.259   3.831   7.326
42983SOL    HW130846   3.286   3.764   7.263
42983SOL    HW230847   3.316   3.906   7.308
42984SOL     OW30848   4.587   2.309   1.467
42984SOL    HW130849   4.542   2.283   1.547
42984SOL    HW230850   4.673   2.267   1.472
42985SOL     OW30851   4.753   2.494   2.032
42985SOL    HW130852   4.687   2.476   2.099
42985SOL    HW230853   4.770   2.408   1.992
42986SOL     OW30854   1.047   3.983  12.741
42986SOL    HW130855   1.045   3.897  12.783
42986SOL    HW230856   0.957   4.015  12.748
42987SOL     OW30857  12.195  14.674   3.968
42987SOL    HW130858  12.141  14.728   4.026
42987SOL    HW230859  12.153  14.680   3.883
42988SOL     OW30860  12.070   5.822   4.173
42988SOL    HW130861  12.080   5.825   4.078
42988SOL    HW230862  11.994   5.877   4.191
42989SOL     OW30863  13.874   9.249   6.776
42989SOL    HW130864  13.897   9.250   6.683
42989SOL    HW230865  13.824   9.330   6.789
42990SOL     OW30866  14.787  10.881   0.538
42990SOL    HW130867  14.815  10.791   0.518
42990SOL    HW230868  14.738  10.873   0.619
42991SOL     OW30869   8.227   5.833  11.866
42991SOL    HW130870   8.286   5.872  11.930
42991SOL    HW230871   8.159   5.792  11.920
42992SOL     OW30872  11.524   8.084   0.958
42992SOL    HW130873  11.614   8.079   0.926
42992SOL    HW230874  11.490   7.995   0.946
42993SOL     OW30875  10.237   4.245  14.081
42993SOL    HW130876  10.254   4.326  14.128
42993SOL    HW230877  10.319   4.226  14.035
42994SOL     OW30878  10.245   7.382   7.156
42994SOL    HW130879  10.246   7.309   7.094
42994SOL    HW230880  10.160   7.374   7.201
42995SOL     OW30881   8.645   3.299   8.776
42995SOL    HW130882   8.702   3.260   8.843
42995SOL    HW230883   8.706   3.331   8.709
42996SOL     OW30884   4.666   7.133  11.660
42996SOL    HW130885   4.647   7.089  11.578
42996SOL    HW230886   4.627   7.220  11.650
42997SOL     OW30887  10.515  13.321   8.640
42997SOL    HW130888  10.444  13.282   8.691
42997SOL    HW230889  10.486  13.313   8.549
42998SOL     OW30890   5.158   0.652  14.363
42998SOL    HW130891   5.200   0.624  14.281
42998SOL    HW230892   5.075   0.690  14.335
42999SOL     OW30893   7.055   1.546   9.929
42999SOL    HW130894   7.049   1.495   9.849
42999SOL    HW230895   7.118   1.498   9.983
43000SOL     OW30896  11.567   1.473  14.286
43000SOL    HW130897  11.626   1.497  14.357
43000SOL    HW230898  11.488   1.441  14.330
43001SOL     OW30899   9.872  10.705   5.542
43001SOL    HW130900   9.814  10.696   5.467
43001SOL    HW230901   9.960  10.712   5.504
43002SOL     OW30902   3.966   0.545   3.605
43002SOL    HW130903   4.058   0.526   3.585
43002SOL    HW230904   3.936   0.599   3.531
43003SOL     OW30905   9.725   1.729   1.284
43003SOL    HW130906   9.727   1.635   1.268
43003SOL    HW230907   9.754   1.768   1.201
43004SOL     OW30908  10.355   4.101   9.019
43004SOL    HW130909  10.438   4.086   9.064
43004SOL    HW230910  10.340   4.021   8.969
43005SOL     OW30911  11.095  10.627   7.412
43005SOL    HW130912  11.156  10.566   7.454
43005SOL    HW230913  11.025  10.639   7.476
43006SOL     OW30914   5.536  10.155   4.933
43006SOL    HW130915   5.557  10.207   4.856
43006SOL    HW230916   5.493  10.077   4.898
43007SOL     OW30917   1.843   0.596   8.387
43007SOL    HW130918   1.823   0.503   8.384
43007SOL    HW230919   1.812   0.629   8.303
43008SOL     OW30920   8.076   4.026  14.069
43008SOL    HW130921   8.070   4.121  14.074
43008SOL    HW230922   7.986   3.995  14.078
43009SOL     OW30923   7.410   6.289   1.371
43009SOL    HW130924   7.349   6.331   1.310
43009SOL    HW230925   7.459   6.227   1.316
43010SOL     OW30926   5.166   1.274  12.682
43010SOL    HW130927   5.085   1.254  12.729
43010SOL    HW230928   5.136   1.316  12.602
43011SOL     OW30929   2.953  14.256   0.530
43011SOL    HW130930   2.878  14.301   0.570
43011SOL    HW230931   2.993  14.322   0.473
43012SOL     OW30932   9.876  11.573   7.607
43012SOL    HW130933   9.888  11.544   7.516
43012SOL    HW230934   9.964  11.599   7.635
43013SOL     OW30935   7.836   7.397   7.434
43013SOL    HW130936   7.753   7.370   7.396
43013SOL    HW230937   7.890   7.317   7.433
43014SOL     OW30938   1.960  13.447  11.224
43014SOL    HW130939   2.022  13.386  11.185
43014SOL    HW230940   1.878  13.398  11.231
43015SOL     OW30941   7.800   4.096  11.197
43015SOL    HW130942   7.775   4.153  11.125
43015SOL    HW230943   7.770   4.142  11.275
43016SOL     OW30944   1.978  11.423   8.203
43016SOL    HW130945   2.064  11.451   8.173
43016SOL    HW230946   1.931  11.398   8.124
43017SOL     OW30947   7.207  11.968  10.862
43017SOL    HW130948   7.153  12.037  10.901
43017SOL    HW230949   7.209  11.900  10.929
43018SOL     OW30950   5.295   4.045  13.594
43018SOL    HW130951   5.223   4.087  13.548
43018SOL    HW230952   5.317   3.969  13.540
43019SOL     OW30953   6.325   3.018   4.727
43019SOL    HW130954   6.380   2.948   4.691
43019SOL    HW230955   6.266   2.974   4.788
43020SOL     OW30956   5.905  11.579  11.588
43020SOL    HW130957   5.847  11.653  11.570
43020SOL    HW230958   5.978  11.590  11.527
43021SOL     OW30959   7.083   3.009   3.436
43021SOL    HW130960   7.148   2.985   3.501
43021SOL    HW230961   7.023   2.935   3.433
43022SOL     OW30962   7.132   2.026   8.313
43022SOL    HW130963   7.138   2.122   8.315
43022SOL    HW230964   7.189   1.997   8.384
43023SOL     OW30965   9.951   1.154   5.072
43023SOL    HW130966   9.876   1.138   5.014
43023SOL    HW230967   9.935   1.241   5.108
43024SOL     OW30968  10.919   4.352   8.814
43024SOL    HW130969  10.884   4.264   8.832
43024SOL    HW230970  10.985   4.366   8.881
43025SOL     OW30971  13.062   4.639   8.971
43025SOL    HW130972  13.116   4.712   9.003
43025SOL    HW230973  13.115   4.600   8.901
43026SOL     OW30974  14.176   6.820   9.980
43026SOL    HW130975  14.203   6.782   9.897
43026SOL    HW230976  14.221   6.905   9.984
43027SOL     OW30977  10.129  14.577   8.722
43027SOL    HW130978  10.147  14.644   8.788
43027SOL    HW230979  10.042  14.545   8.744
43028SOL     OW30980   0.203   7.993   7.599
43028SOL    HW130981   0.183   7.930   7.529
43028SOL    HW230982   0.124   8.046   7.607
43029SOL     OW30983   2.667  11.597   9.469
43029SOL    HW130984   2.617  11.553   9.537
43029SOL    HW230985   2.750  11.620   9.510
43030SOL     OW30986  13.127   8.306   5.135
43030SOL    HW130987  13.124   8.231   5.195
43030SOL    HW230988  13.129   8.266   5.048
43031SOL     OW30989  10.869   6.300  10.439
43031SOL    HW130990  10.948   6.269  10.483
43031SOL    HW230991  10.829   6.221  10.403
43032SOL     OW30992   8.074   6.021   1.166
43032SOL    HW130993   8.124   6.027   1.247
43032SOL    HW230994   7.984   6.045   1.190
43033SOL     OW30995  12.853   5.407   9.303
43033SOL    HW130996  12.887   5.395   9.215
43033SOL    HW230997  12.874   5.326   9.349
43034SOL     OW30998   9.584   6.848   5.817
43034SOL    HW130999   9.676   6.873   5.819
43034SOL    HW231000   9.564   6.836   5.725
43035SOL     OW31001   4.982   0.375   3.201
43035SOL    HW131002   5.069   0.358   3.164
43035SOL    HW231003   4.930   0.405   3.126
43036SOL     OW31004   3.254  10.084   4.430
43036SOL    HW131005   3.280  10.002   4.388
43036SOL    HW231006   3.335  10.132   4.442
43037SOL     OW31007   1.992   1.622   3.583
43037SOL    HW131008   1.956   1.637   3.496
43037SOL    HW231009   1.952   1.540   3.611
43038SOL     OW31010   2.405   9.695   6.143
43038SOL    HW131011   2.498   9.711   6.130
43038SOL    HW231012   2.402   9.629   6.213
43039SOL     OW31013  13.796   8.869  11.786
43039SOL    HW131014  13.863   8.810  11.751
43039SOL    HW231015  13.721   8.857  11.728
43040SOL     OW31016   9.903   1.399   7.418
43040SOL    HW131017   9.963   1.331   7.447
43040SOL    HW231018   9.816   1.358   7.420
43041SOL     OW31019   1.998   8.467   8.779
43041SOL    HW131020   2.026   8.517   8.702
43041SOL    HW231021   2.056   8.495   8.849
43042SOL     OW31022   9.468  12.822   8.750
43042SOL    HW131023   9.433  12.762   8.684
43042SOL    HW231024   9.430  12.791   8.832
43043SOL     OW31025   7.366   4.632   3.705
43043SOL    HW131026   7.370   4.727   3.703
43043SOL    HW231027   7.281   4.610   3.669
43044SOL     OW31028   4.466   8.561  10.131
43044SOL    HW131029   4.421   8.607  10.060
43044SOL    HW231030   4.532   8.507  10.087
43045SOL     OW31031   4.997  10.425   5.621
43045SOL    HW131032   4.956  10.485   5.558
43045SOL    HW231033   4.943  10.346   5.618
43046SOL     OW31034   0.040   4.943   9.137
43046SOL    HW131035   0.073   4.951   9.226
43046SOL    HW231036  14.824   4.898   9.146
43047SOL     OW31037  13.654   0.722   1.311
43047SOL    HW131038  13.683   0.644   1.358
43047SOL    HW231039  13.729   0.781   1.313
43048SOL     OW31040   0.335   1.817   1.553
43048SOL    HW131041   0.242   1.827   1.532
43048SOL    HW231042   0.351   1.723   1.548
43049SOL     OW31043   3.048   9.059   6.161
43049SOL    HW131044   3.064   9.055   6.255
43049SOL    HW231045   3.126   9.102   6.125
43050SOL     OW31046  12.193   2.255   3.287
43050SOL    HW131047  12.170   2.231   3.197
43050SOL    HW231048  12.125   2.317   3.313
43051SOL     OW31049   2.530   5.169   6.079
43051SOL    HW131050   2.489   5.121   6.006
43051SOL    HW231051   2.583   5.236   6.036
43052SOL     OW31052  10.929  11.226   4.044
43052SOL    HW131053  10.870  11.195   3.976
43052SOL    HW231054  10.994  11.279   3.996
43053SOL     OW31055   0.710   1.505   5.666
43053SOL    HW131056   0.647   1.433   5.676
43053SOL    HW231057   0.795   1.465   5.685
43054SOL     OW31058   0.608   4.341   6.208
43054SOL    HW131059   0.576   4.260   6.247
43054SOL    HW231060   0.530   4.396   6.199
43055SOL     OW31061  11.184   8.763  10.064
43055SOL    HW131062  11.275   8.779  10.086
43055SOL    HW231063  11.143   8.850  10.068
43056SOL     OW31064   7.360   9.458   3.879
43056SOL    HW131065   7.376   9.546   3.913
43056SOL    HW231066   7.273   9.435   3.913
43057SOL     OW31067   8.427   7.803   5.248
43057SOL    HW131068   8.374   7.845   5.315
43057SOL    HW231069   8.416   7.709   5.264
43058SOL     OW31070   0.331  10.451  10.919
43058SOL    HW131071   0.396  10.469  10.986
43058SOL    HW231072   0.305  10.360  10.935
43059SOL     OW31073   8.225  10.199   3.632
43059SOL    HW131074   8.193  10.186   3.543
43059SOL    HW231075   8.255  10.112   3.660
43060SOL     OW31076   0.750   7.318   1.401
43060SOL    HW131077   0.775   7.408   1.380
43060SOL    HW231078   0.726   7.320   1.493
43061SOL     OW31079  12.330   0.366   0.369
43061SOL    HW131080  12.293   0.278   0.364
43061SOL    HW231081  12.418   0.353   0.404
43062SOL     OW31082   2.412  13.970  11.790
43062SOL    HW131083   2.482  13.954  11.726
43062SOL    HW231084   2.392  14.063  11.781
43063SOL     OW31085   4.100   4.656   6.730
43063SOL    HW131086   4.093   4.603   6.650
43063SOL    HW231087   4.012   4.657   6.766
43064SOL     OW31088   8.982  11.890  11.515
43064SOL    HW131089   9.034  11.924  11.443
43064SOL    HW231090   9.036  11.820  11.553
43065SOL     OW31091   5.416   8.309  10.422
43065SOL    HW131092   5.372   8.308  10.337
43065SOL    HW231093   5.345   8.303  10.485
43066SOL     OW31094   7.448   1.385   6.481
43066SOL    HW131095   7.518   1.345   6.533
43066SOL    HW231096   7.381   1.317   6.474
43067SOL     OW31097   1.446  13.254  11.223
43067SOL    HW131098   1.410  13.177  11.179
43067SOL    HW231099   1.398  13.328  11.186
43068SOL     OW31100   3.389   3.631   2.949
43068SOL    HW131101   3.420   3.700   2.890
43068SOL    HW231102   3.413   3.661   3.036
43069SOL     OW31103   9.316   2.270  11.287
43069SOL    HW131104   9.405   2.302  11.271
43069SOL    HW231105   9.284   2.322  11.360
43070SOL     OW31106   2.105  14.509   4.547
43070SOL    HW131107   2.042  14.439   4.529
43070SOL    HW231108   2.105  14.562   4.467
43071SOL     OW31109   6.623  14.387  11.124
43071SOL    HW131110   6.560  14.355  11.188
43071SOL    HW231111   6.703  14.403  11.175
43072SOL     OW31112  13.954  12.335   0.030
43072SOL    HW131113  13.878  12.357   0.084
43072SOL    HW231114  13.928  12.359  14.809
43073SOL     OW31115   6.344   8.833  12.344
43073SOL    HW131116   6.340   8.779  12.423
43073SOL    HW231117   6.353   8.770  12.273
43074SOL     OW31118   5.688   4.777   7.307
43074SOL    HW131119   5.663   4.869   7.309
43074SOL    HW231120   5.767   4.772   7.361
43075SOL     OW31121   1.533   5.003   8.788
43075SOL    HW131122   1.545   5.096   8.809
43075SOL    HW231123   1.582   4.990   8.707
43076SOL     OW31124   4.575   5.287  13.682
43076SOL    HW131125   4.648   5.340  13.715
43076SOL    HW231126   4.589   5.282  13.588
43077SOL     OW31127   9.299   2.298  12.924
43077SOL    HW131128   9.351   2.344  12.858
43077SOL    HW231129   9.255   2.228  12.875
43078SOL     OW31130   1.705   2.344   0.905
43078SOL    HW131131   1.782   2.401   0.904
43078SOL    HW231132   1.637   2.396   0.863
43079SOL     OW31133   4.149   7.257  13.231
43079SOL    HW131134   4.184   7.226  13.147
43079SOL    HW231135   4.156   7.352  13.227
43080SOL     OW31136   5.518   8.886   2.371
43080SOL    HW131137   5.428   8.918   2.363
43080SOL    HW231138   5.530   8.829   2.295
43081SOL     OW31139   1.529   6.234   0.828
43081SOL    HW131140   1.554   6.262   0.740
43081SOL    HW231141   1.505   6.315   0.872
43082SOL     OW31142   1.140   0.584   5.889
43082SOL    HW131143   1.153   0.676   5.864
43082SOL    HW231144   1.218   0.539   5.854
43083SOL     OW31145   3.668  11.696   0.290
43083SOL    HW131146   3.619  11.777   0.307
43083SOL    HW231147   3.653  11.679   0.197
43084SOL     OW31148   3.303   6.236   0.940
43084SOL    HW131149   3.259   6.275   1.016
43084SOL    HW231150   3.337   6.152   0.972
43085SOL     OW31151  13.946   5.060  12.241
43085SOL    HW131152  13.952   4.979  12.292
43085SOL    HW231153  14.036   5.084  12.221
43086SOL     OW31154   5.910   7.150   4.570
43086SOL    HW131155   5.989   7.179   4.615
43086SOL    HW231156   5.926   7.171   4.478
43087SOL     OW31157  11.227  13.295  13.683
43087SOL    HW131158  11.215  13.253  13.768
43087SOL    HW231159  11.172  13.243  13.623
43088SOL     OW31160  14.783   3.399   9.533
43088SOL    HW131161  14.788   3.336   9.605
43088SOL    HW231162  14.850   3.464   9.553
43089SOL     OW31163  11.805   1.824   5.458
43089SOL    HW131164  11.898   1.836   5.439
43089SOL    HW231165  11.802   1.747   5.516
43090SOL     OW31166   9.377  11.513   6.705
43090SOL    HW131167   9.395  11.563   6.785
43090SOL    HW231168   9.282  11.506   6.701
43091SOL     OW31169   2.231   6.542   9.180
43091SOL    HW131170   2.258   6.479   9.246
43091SOL    HW231171   2.159   6.499   9.134
43092SOL     OW31172   5.179   1.979   6.543
43092SOL    HW131173   5.171   2.056   6.487
43092SOL    HW231174   5.268   1.983   6.577
43093SOL     OW31175   9.461  14.003  13.459
43093SOL    HW131176   9.496  14.074  13.513
43093SOL    HW231177   9.535  13.943  13.448
43094SOL     OW31178   2.316   5.014   3.335
43094SOL    HW131179   2.332   5.049   3.247
43094SOL    HW231180   2.241   4.955   3.324
43095SOL     OW31181   1.327  13.480   3.195
43095SOL    HW131182   1.350  13.392   3.163
43095SOL    HW231183   1.237  13.471   3.226
43096SOL     OW31184   2.062  10.816   5.514
43096SOL    HW131185   1.998  10.883   5.490
43096SOL    HW231186   2.069  10.761   5.436
43097SOL     OW31187   9.032   2.190   1.840
43097SOL    HW131188   8.991   2.272   1.865
43097SOL    HW231189   8.959   2.130   1.825
43098SOL     OW31190  13.440   1.585  10.612
43098SOL    HW131191  13.510   1.521  10.594
43098SOL    HW231192  13.423   1.626  10.527
43099SOL     OW31193  11.575   6.444   7.782
43099SOL    HW131194  11.647   6.469   7.725
43099SOL    HW231195  11.503   6.502   7.758
43100SOL     OW31196   7.532  13.842   6.374
43100SOL    HW131197   7.468  13.823   6.305
43100SOL    HW231198   7.526  13.767   6.433
43101SOL     OW31199   6.537   1.918   9.748
43101SOL    HW131200   6.585   1.976   9.807
43101SOL    HW231201   6.466   1.972   9.714
43102SOL     OW31202   1.241   5.195   5.780
43102SOL    HW131203   1.258   5.102   5.799
43102SOL    HW231204   1.146   5.201   5.772
43103SOL     OW31205   4.825   5.659  12.640
43103SOL    HW131206   4.763   5.726  12.611
43103SOL    HW231207   4.794   5.633  12.726
43104SOL     OW31208   6.991  14.374   6.273
43104SOL    HW131209   6.956  14.402   6.188
43104SOL    HW231210   7.086  14.378   6.262
43105SOL     OW31211   0.208   2.861   5.712
43105SOL    HW131212   0.262   2.898   5.642
43105SOL    HW231213   0.155   2.935   5.743
43106SOL     OW31214  12.616  11.505   5.049
43106SOL    HW131215  12.696  11.537   5.090
43106SOL    HW231216  12.645  11.465   4.967
43107SOL     OW31217   5.430   3.585   1.546
43107SOL    HW131218   5.360   3.650   1.554
43107SOL    HW231219   5.510   3.637   1.544
43108SOL     OW31220  14.818   2.327   0.242
43108SOL    HW131221  14.800   2.405   0.190
43108SOL    HW231222  14.738   2.275   0.236
43109SOL     OW31223   6.393   2.991  11.601
43109SOL    HW131224   6.362   3.078  11.576
43109SOL    HW231225   6.465   3.008  11.662
43110SOL     OW31226   3.636   3.899   9.730
43110SOL    HW131227   3.602   3.989   9.736
43110SOL    HW231228   3.699   3.903   9.658
43111SOL     OW31229   3.728  11.528  11.891
43111SOL    HW131230   3.685  11.447  11.918
43111SOL    HW231231   3.731  11.582  11.970
43112SOL     OW31232   7.352   3.403  14.223
43112SOL    HW131233   7.387   3.351  14.295
43112SOL    HW231234   7.316   3.481  14.265
43113SOL     OW31235   9.491  11.556   0.959
43113SOL    HW131236   9.559  11.618   0.985
43113SOL    HW231237   9.515  11.474   1.001
43114SOL     OW31238   2.747   1.036   2.332
43114SOL    HW131239   2.821   1.081   2.372
43114SOL    HW231240   2.757   1.051   2.238
43115SOL     OW31241   8.903   2.609  11.738
43115SOL    HW131242   8.948   2.557  11.805
43115SOL    HW231243   8.826   2.644  11.783
43116SOL     OW31244  14.801   3.692   6.634
43116SOL    HW131245  14.773   3.774   6.594
43116SOL    HW231246  14.721   3.640   6.643
43117SOL     OW31247   3.105  12.068   9.460
43117SOL    HW131248   3.162  12.036   9.390
43117SOL    HW231249   3.092  11.992   9.517
43118SOL     OW31250   5.893  13.583   6.019
43118SOL    HW131251   5.886  13.640   6.095
43118SOL    HW231252   5.903  13.643   5.945
43119SOL     OW31253   8.456   7.866   2.084
43119SOL    HW131254   8.422   7.781   2.112
43119SOL    HW231255   8.401   7.891   2.010
43120SOL     OW31256   2.990  10.275   9.455
43120SOL    HW131257   2.941  10.339   9.404
43120SOL    HW231258   3.040  10.225   9.390
43121SOL     OW31259  13.337  13.472   9.164
43121SOL    HW131260  13.300  13.560   9.169
43121SOL    HW231261  13.387  13.463   9.246
43122SOL     OW31262  11.178   3.722   5.029
43122SOL    HW131263  11.170   3.743   4.936
43122SOL    HW231264  11.088   3.702   5.057
43123SOL     OW31265  13.914   9.444   0.220
43123SOL    HW131266  14.003   9.441   0.183
43123SOL    HW231267  13.907   9.364   0.271
43124SOL     OW31268   1.405  12.978   2.685
43124SOL    HW131269   1.367  12.891   2.674
43124SOL    HW231270   1.352  13.020   2.752
43125SOL     OW31271   0.713  13.313   9.856
43125SOL    HW131272   0.689  13.339   9.945
43125SOL    HW231273   0.668  13.230   9.842
43126SOL     OW31274  10.419  13.800   1.422
43126SOL    HW131275  10.383  13.746   1.351
43126SOL    HW231276  10.350  13.803   1.488
43127SOL     OW31277   1.787  10.659   9.674
43127SOL    HW131278   1.787  10.749   9.706
43127SOL    HW231279   1.728  10.612   9.732
43128SOL     OW31280  12.907  12.931   9.253
43128SOL    HW131281  12.841  12.892   9.311
43128SOL    HW231282  12.965  12.980   9.313
43129SOL     OW31283   2.236  10.009   4.524
43129SOL    HW131284   2.144  10.018   4.499
43129SOL    HW231285   2.241   9.924   4.568
43130SOL     OW31286  13.141   3.598   1.437
43130SOL    HW131287  13.079   3.529   1.458
43130SOL    HW231288  13.218   3.551   1.404
43131SOL     OW31289  10.264   8.045   4.383
43131SOL    HW131290  10.333   8.102   4.350
43131SOL    HW231291  10.183   8.082   4.349
43132SOL     OW31292  12.582   7.448  10.365
43132SOL    HW131293  12.629   7.375  10.323
43132SOL    HW231294  12.623   7.456  10.451
43133SOL     OW31295   8.712   2.609   2.165
43133SOL    HW131296   8.638   2.661   2.132
43133SOL    HW231297   8.776   2.673   2.194
43134SOL     OW31298   3.804   0.462  11.452
43134SOL    HW131299   3.864   0.529  11.419
43134SOL    HW231300   3.823   0.385  11.398
43135SOL     OW31301   2.015   7.838  14.559
43135SOL    HW131302   2.084   7.883  14.607
43135SOL    HW231303   2.037   7.852  14.467
43136SOL     OW31304  14.413  13.249   4.586
43136SOL    HW131305  14.500  13.276   4.616
43136SOL    HW231306  14.422  13.156   4.566
43137SOL     OW31307   6.724   7.381   1.109
43137SOL    HW131308   6.753   7.470   1.130
43137SOL    HW231309   6.798   7.342   1.062
43138SOL     OW31310   7.524  12.403   1.813
43138SOL    HW131311   7.610  12.439   1.836
43138SOL    HW231312   7.470  12.480   1.796
43139SOL     OW31313   9.290   6.930   3.371
43139SOL    HW131314   9.338   6.936   3.288
43139SOL    HW231315   9.233   6.854   3.360
43140SOL     OW31316   1.195  11.300   4.391
43140SOL    HW131317   1.168  11.230   4.451
43140SOL    HW231318   1.269  11.343   4.436
43141SOL     OW31319  12.095   5.928   7.556
43141SOL    HW131320  12.185   5.959   7.544
43141SOL    HW231321  12.043   5.984   7.499
43142SOL     OW31322  11.759   6.039  14.039
43142SOL    HW131323  11.708   6.026  13.959
43142SOL    HW231324  11.809   5.958  14.049
43143SOL     OW31325   3.921  14.859   5.062
43143SOL    HW131326   3.905   0.052   5.133
43143SOL    HW231327   3.995   0.029   5.014
43144SOL     OW31328   9.190   2.475  10.085
43144SOL    HW131329   9.123   2.425  10.039
43144SOL    HW231330   9.161   2.477  10.176
43145SOL     OW31331  12.924  13.920  13.690
43145SOL    HW131332  12.894  13.833  13.716
43145SOL    HW231333  13.019  13.916  13.694
43146SOL     OW31334  13.890  11.798  10.348
43146SOL    HW131335  13.888  11.808  10.253
43146SOL    HW231336  13.929  11.879  10.380
43147SOL     OW31337   3.451   5.677   7.501
43147SOL    HW131338   3.453   5.768   7.471
43147SOL    HW231339   3.461   5.625   7.422
43148SOL     OW31340  13.613   1.043   7.902
43148SOL    HW131341  13.524   1.064   7.873
43148SOL    HW231342  13.669   1.069   7.828
43149SOL     OW31343   2.377   8.252  11.916
43149SOL    HW131344   2.341   8.187  11.856
43149SOL    HW231345   2.301   8.295  11.954
43150SOL     OW31346   2.683   7.210   5.747
43150SOL    HW131347   2.633   7.133   5.775
43150SOL    HW231348   2.643   7.235   5.664
43151SOL     OW31349  14.479  13.802  10.915
43151SOL    HW131350  14.533  13.870  10.874
43151SOL    HW231351  14.539  13.755  10.972
43152SOL     OW31352   5.881   6.817   5.317
43152SOL    HW131353   5.957   6.762   5.299
43152SOL    HW231354   5.871   6.813   5.412
43153SOL     OW31355   3.734  12.421   6.863
43153SOL    HW131356   3.647  12.396   6.831
43153SOL    HW231357   3.717  12.489   6.928
43154SOL     OW31358  11.922  13.405   1.282
43154SOL    HW131359  11.992  13.392   1.345
43154SOL    HW231360  11.860  13.335   1.300
43155SOL     OW31361   0.802   9.777   1.194
43155SOL    HW131362   0.870   9.743   1.135
43155SOL    HW231363   0.759   9.699   1.229
43156SOL     OW31364  13.312   3.687  11.997
43156SOL    HW131365  13.404   3.688  12.020
43156SOL    HW231366  13.300   3.605  11.949
43157SOL     OW31367   9.940   8.528   0.629
43157SOL    HW131368  10.031   8.543   0.604
43157SOL    HW231369   9.894   8.606   0.598
43158SOL     OW31370  11.343  11.510   8.274
43158SOL    HW131371  11.369  11.508   8.366
43158SOL    HW231372  11.426  11.502   8.226
43159SOL     OW31373   4.365   8.888   6.094
43159SOL    HW131374   4.288   8.834   6.079
43159SOL    HW231375   4.411   8.890   6.010
43160SOL     OW31376   9.791  12.747   3.383
43160SOL    HW131377   9.858  12.686   3.352
43160SOL    HW231378   9.727  12.751   3.311
43161SOL     OW31379   6.214   6.652   9.871
43161SOL    HW131380   6.130   6.648   9.826
43161SOL    HW231381   6.193   6.630   9.962
43162SOL     OW31382  10.090   5.385   6.668
43162SOL    HW131383  10.139   5.455   6.712
43162SOL    HW231384  10.116   5.305   6.714
43163SOL     OW31385  10.543   1.234  12.437
43163SOL    HW131386  10.571   1.143  12.430
43163SOL    HW231387  10.449   1.229  12.456
43164SOL     OW31388   5.456  14.351  11.866
43164SOL    HW131389   5.396  14.403  11.919
43164SOL    HW231390   5.434  14.374  11.775
43165SOL     OW31391  14.776  11.256   4.628
43165SOL    HW131392  14.727  11.233   4.548
43165SOL    HW231393  14.814  11.173   4.657
43166SOL     OW31394   4.586  12.288   8.849
43166SOL    HW131395   4.598  12.311   8.941
43166SOL    HW231396   4.510  12.229   8.849
43167SOL     OW31397  10.261   7.681   2.869
43167SOL    HW131398  10.267   7.605   2.927
43167SOL    HW231399  10.211   7.649   2.794
43168SOL     OW31400   7.900   3.992  14.631
43168SOL    HW131401   7.979   3.983  14.685
43168SOL    HW231402   7.900   3.913  14.576
43169SOL     OW31403   7.960   7.948   0.473
43169SOL    HW131404   7.966   8.035   0.432
43169SOL    HW231405   7.889   7.956   0.536
43170SOL     OW31406   6.239  12.878   4.740
43170SOL    HW131407   6.246  12.811   4.809
43170SOL    HW231408   6.326  12.881   4.701
43171SOL     OW31409   5.293  14.242   0.018
43171SOL    HW131410   5.283  14.214   0.108
43171SOL    HW231411   5.385  14.225  14.865
43172SOL     OW31412  10.903   7.232   4.373
43172SOL    HW131413  10.935   7.309   4.325
43172SOL    HW231414  10.974   7.168   4.365
43173SOL     OW31415   7.499   4.705   5.911
43173SOL    HW131416   7.468   4.786   5.870
43173SOL    HW231417   7.423   4.671   5.957
43174SOL     OW31418  13.853  14.815   7.711
43174SOL    HW131419  13.926  14.849   7.660
43174SOL    HW231420  13.878  14.831   7.802
43175SOL     OW31421   6.711  13.983   5.380
43175SOL    HW131422   6.660  13.902   5.379
43175SOL    HW231423   6.749  13.989   5.292
43176SOL     OW31424   0.067  14.401  14.028
43176SOL    HW131425   0.162  14.416  14.026
43176SOL    HW231426   0.049  14.369  14.116
43177SOL     OW31427   3.855   8.860   9.294
43177SOL    HW131428   3.851   8.907   9.378
43177SOL    HW231429   3.943   8.822   9.293
43178SOL     OW31430   3.107  10.219  14.653
43178SOL    HW131431   3.101  10.290  14.589
43178SOL    HW231432   3.016  10.196  14.673
43179SOL     OW31433   2.196   1.290  14.294
43179SOL    HW131434   2.229   1.290  14.383
43179SOL    HW231435   2.151   1.206  14.285
43180SOL     OW31436   4.613  10.041   4.752
43180SOL    HW131437   4.574   9.967   4.799
43180SOL    HW231438   4.632  10.006   4.665
43181SOL     OW31439   9.187  13.253   5.404
43181SOL    HW131440   9.177  13.158   5.400
43181SOL    HW231441   9.241  13.275   5.329
43182SOL     OW31442   0.242   6.869   7.898
43182SOL    HW131443   0.179   6.929   7.858
43182SOL    HW231444   0.294   6.836   7.825
43183SOL     OW31445   9.005   8.194  12.648
43183SOL    HW131446   8.936   8.258  12.631
43183SOL    HW231447   8.963   8.109  12.636
43184SOL     OW31448   6.702   5.878   6.282
43184SOL    HW131449   6.796   5.887   6.298
43184SOL    HW231450   6.667   5.848   6.365
43185SOL     OW31451   8.581   1.140  14.794
43185SOL    HW131452   8.553   1.133  14.703
43185SOL    HW231453   8.677   1.149  14.789
43186SOL     OW31454   4.862   1.679   6.434
43186SOL    HW131455   4.805   1.703   6.361
43186SOL    HW231456   4.948   1.712   6.410
43187SOL     OW31457   3.865   3.196   1.503
43187SOL    HW131458   3.771   3.178   1.512
43187SOL    HW231459   3.870   3.272   1.445
43188SOL     OW31460   9.126   6.129   0.528
43188SOL    HW131461   9.156   6.198   0.587
43188SOL    HW231462   9.055   6.169   0.479
43189SOL     OW31463   0.166   0.602  10.870
43189SOL    HW131464   0.213   0.523  10.895
43189SOL    HW231465   0.127   0.582  10.785
43190SOL     OW31466   4.325   7.935   3.780
43190SOL    HW131467   4.288   7.854   3.814
43190SOL    HW231468   4.253   7.979   3.735
43191SOL     OW31469   1.819   4.152  12.929
43191SOL    HW131470   1.770   4.118  12.855
43191SOL    HW231471   1.778   4.111  13.006
43192SOL     OW31472   7.661   5.525   9.390
43192SOL    HW131473   7.713   5.604   9.375
43192SOL    HW231474   7.573   5.547   9.359
43193SOL     OW31475   1.109   9.218   5.118
43193SOL    HW131476   1.114   9.123   5.131
43193SOL    HW231477   1.019   9.241   5.140
43194SOL     OW31478  12.967   2.892   9.097
43194SOL    HW131479  13.027   2.891   9.171
43194SOL    HW231480  12.929   2.980   9.098
43195SOL     OW31481   7.051   2.760  12.741
43195SOL    HW131482   7.140   2.756  12.704
43195SOL    HW231483   7.055   2.828  12.807
43196SOL     OW31484   5.511   8.840  11.918
43196SOL    HW131485   5.452   8.787  11.972
43196SOL    HW231486   5.581   8.780  11.893
43197SOL     OW31487   1.546   6.251   2.799
43197SOL    HW131488   1.628   6.249   2.848
43197SOL    HW231489   1.495   6.179   2.835
43198SOL     OW31490   9.322   4.863  13.879
43198SOL    HW131491   9.271   4.926  13.828
43198SOL    HW231492   9.403   4.851  13.829
43199SOL     OW31493  11.403   1.078  12.924
43199SOL    HW131494  11.475   1.054  12.981
43199SOL    HW231495  11.419   1.029  12.843
43200SOL     OW31496   0.820   5.195   1.245
43200SOL    HW131497   0.904   5.175   1.286
43200SOL    HW231498   0.773   5.112   1.244
43201SOL     OW31499   3.138   5.565   9.641
43201SOL    HW131500   3.216   5.543   9.588
43201SOL    HW231501   3.065   5.551   9.581
43202SOL     OW31502   2.328  13.999   4.421
43202SOL    HW131503   2.268  13.925   4.411
43202SOL    HW231504   2.340  14.008   4.516
43203SOL     OW31505   2.693   4.279  13.379
43203SOL    HW131506   2.623   4.217  13.401
43203SOL    HW231507   2.773   4.236  13.411
43204SOL     OW31508   5.053  11.964   7.473
43204SOL    HW131509   4.968  11.999   7.501
43204SOL    HW231510   5.116  12.002   7.534
43205SOL     OW31511   4.777  13.632   0.788
43205SOL    HW131512   4.860  13.608   0.745
43205SOL    HW231513   4.799  13.637   0.881
43206SOL     OW31514   9.378  14.770   4.192
43206SOL    HW131515   9.395  14.676   4.204
43206SOL    HW231516   9.320  14.793   4.264
43207SOL     OW31517  14.333  10.705   1.946
43207SOL    HW131518  14.347  10.611   1.939
43207SOL    HW231519  14.240  10.717   1.924
43208SOL     OW31520  11.880   6.171  11.341
43208SOL    HW131521  11.843   6.250  11.380
43208SOL    HW231522  11.975   6.182  11.349
43209SOL     OW31523   9.943   4.884   6.114
43209SOL    HW131524   9.870   4.898   6.173
43209SOL    HW231525   9.999   4.821   6.159
43210SOL     OW31526  13.742   0.041   8.492
43210SOL    HW131527  13.736  14.824   8.448
43210SOL    HW231528  13.729   0.021   8.584
43211SOL     OW31529   0.630   5.947   4.530
43211SOL    HW131530   0.548   5.918   4.570
43211SOL    HW231531   0.636   5.897   4.449
43212SOL     OW31532  10.119   9.064  10.430
43212SOL    HW131533  10.202   9.089  10.388
43212SOL    HW231534  10.062   9.041  10.357
43213SOL     OW31535  12.801   9.448   9.454
43213SOL    HW131536  12.808   9.364   9.500
43213SOL    HW231537  12.800   9.426   9.361
43214SOL     OW31538  13.994   9.315  12.425
43214SOL    HW131539  13.937   9.389  12.444
43214SOL    HW231540  14.074   9.354  12.392
43215SOL     OW31541   7.345  14.231   0.047
43215SOL    HW131542   7.264  14.254   0.093
43215SOL    HW231543   7.400  14.309   0.055
43216SOL     OW31544   5.000   9.248   7.246
43216SOL    HW131545   4.975   9.270   7.336
43216SOL    HW231546   4.923   9.271   7.194
43217SOL     OW31547  10.187   1.036  13.683
43217SOL    HW131548  10.266   1.079  13.651
43217SOL    HW231549  10.209   0.943  13.684
43218SOL     OW31550   6.254   4.834   1.764
43218SOL    HW131551   6.241   4.826   1.669
43218SOL    HW231552   6.222   4.922   1.785
43219SOL     OW31553  11.349  13.195   7.903
43219SOL    HW131554  11.263  13.165   7.872
43219SOL    HW231555  11.401  13.115   7.911
43220SOL     OW31556  12.288   7.791   7.846
43220SOL    HW131557  12.312   7.737   7.922
43220SOL    HW231558  12.340   7.757   7.774
43221SOL     OW31559   6.914   4.249   4.768
43221SOL    HW131560   6.882   4.238   4.679
43221SOL    HW231561   6.946   4.340   4.771
43222SOL     OW31562   4.210   4.177  14.636
43222SOL    HW131563   4.192   4.205  14.546
43222SOL    HW231564   4.155   4.100  14.648
43223SOL     OW31565   8.050   7.331   2.894
43223SOL    HW131566   8.103   7.255   2.919
43223SOL    HW231567   8.004   7.303   2.815
43224SOL     OW31568   1.385  10.262   9.166
43224SOL    HW131569   1.302  10.308   9.179
43224SOL    HW231570   1.425  10.306   9.091
43225SOL     OW31571  11.713  10.087  10.156
43225SOL    HW131572  11.766  10.041  10.091
43225SOL    HW231573  11.629  10.042  10.153
43226SOL     OW31574   0.678   4.895  13.093
43226SOL    HW131575   0.724   4.817  13.126
43226SOL    HW231576   0.747   4.951  13.058
43227SOL     OW31577  13.250   5.505  12.541
43227SOL    HW131578  13.338   5.470  12.557
43227SOL    HW231579  13.246   5.515  12.446
43228SOL     OW31580   9.667   7.881   2.358
43228SOL    HW131581   9.695   7.796   2.391
43228SOL    HW231582   9.665   7.937   2.436
43229SOL     OW31583   5.768  10.570   7.194
43229SOL    HW131584   5.804  10.651   7.160
43229SOL    HW231585   5.827  10.502   7.162
43230SOL     OW31586   1.417   5.051  14.580
43230SOL    HW131587   1.348   5.006  14.532
43230SOL    HW231588   1.389   5.047  14.671
43231SOL     OW31589   1.379   3.362   8.160
43231SOL    HW131590   1.332   3.443   8.181
43231SOL    HW231591   1.439   3.350   8.234
43232SOL     OW31592   3.840   2.241   0.460
43232SOL    HW131593   3.863   2.238   0.553
43232SOL    HW231594   3.748   2.215   0.457
43233SOL     OW31595   9.049   1.667  11.886
43233SOL    HW131596   8.967   1.621  11.866
43233SOL    HW231597   9.027   1.760  11.880
43234SOL     OW31598   9.159   1.641   2.912
43234SOL    HW131599   9.236   1.586   2.923
43234SOL    HW231600   9.163   1.668   2.820
43235SOL     OW31601   2.329   7.959  13.976
43235SOL    HW131602   2.325   8.039  13.925
43235SOL    HW231603   2.242   7.951  14.016
43236SOL     OW31604  12.555   2.197   8.431
43236SOL    HW131605  12.507   2.125   8.389
43236SOL    HW231606  12.487   2.252   8.470
43237SOL     OW31607   5.961   3.767   2.645
43237SOL    HW131608   5.993   3.793   2.732
43237SOL    HW231609   5.961   3.672   2.647
43238SOL     OW31610   9.152  10.199   0.821
43238SOL    HW131611   9.194  10.257   0.885
43238SOL    HW231612   9.149  10.251   0.741
43239SOL     OW31613  11.668   7.196  12.248
43239SOL    HW131614  11.707   7.238  12.325
43239SOL    HW231615  11.584   7.239  12.237
43240SOL     OW31616   9.554   9.597   8.920
43240SOL    HW131617   9.482   9.561   8.869
43240SOL    HW231618   9.569   9.684   8.882
43241SOL     OW31619  10.665  11.564   3.437
43241SOL    HW131620  10.602  11.492   3.432
43241SOL    HW231621  10.669  11.598   3.347
43242SOL     OW31622   8.901   9.100  12.309
43242SOL    HW131623   8.995   9.119  12.304
43242SOL    HW231624   8.896   9.005  12.311
43243SOL     OW31625   4.334   2.952   4.601
43243SOL    HW131626   4.318   2.923   4.691
43243SOL    HW231627   4.387   3.032   4.611
43244SOL     OW31628   1.384   1.689  14.591
43244SOL    HW131629   1.453   1.636  14.551
43244SOL    HW231630   1.426   1.731  14.665
43245SOL     OW31631   7.088   6.827   7.336
43245SOL    HW131632   7.140   6.768   7.281
43245SOL    HW231633   6.997   6.807   7.313
43246SOL     OW31634   9.849  14.861   1.702
43246SOL    HW131635   9.826   0.026   1.616
43246SOL    HW231636   9.806   0.053   1.763
43247SOL     OW31637  14.811   1.362   1.325
43247SOL    HW131638   0.035   1.335   1.323
43247SOL    HW231639  14.776   1.332   1.241
43248SOL     OW31640   7.474   0.231   0.726
43248SOL    HW131641   7.453   0.316   0.686
43248SOL    HW231642   7.560   0.209   0.692
43249SOL     OW31643   0.992   6.835   9.027
43249SOL    HW131644   1.030   6.906   8.974
43249SOL    HW231645   0.899   6.858   9.034
43250SOL     OW31646   7.141   1.449   2.089
43250SOL    HW131647   7.068   1.478   2.034
43250SOL    HW231648   7.183   1.530   2.116
43251SOL     OW31649   7.908   2.245   6.901
43251SOL    HW131650   7.944   2.264   6.814
43251SOL    HW231651   7.977   2.195   6.945
43252SOL     OW31652   6.904   4.911   2.979
43252SOL    HW131653   6.961   4.870   2.915
43252SOL    HW231654   6.930   5.004   2.978
43253SOL     OW31655  13.619  11.416   3.821
43253SOL    HW131656  13.667  11.497   3.804
43253SOL    HW231657  13.578  11.394   3.737
43254SOL     OW31658   2.722  10.790   5.653
43254SOL    HW131659   2.780  10.787   5.728
43254SOL    HW231660   2.698  10.882   5.645
43255SOL     OW31661   7.302   4.414  12.877
43255SOL    HW131662   7.220   4.382  12.914
43255SOL    HW231663   7.369   4.381  12.937
43256SOL     OW31664   4.658  12.414  14.752
43256SOL    HW131665   4.657  12.450  14.664
43256SOL    HW231666   4.566  12.400  14.774
43257SOL     OW31667   8.162   0.775   1.355
43257SOL    HW131668   8.197   0.855   1.395
43257SOL    HW231669   8.077   0.802   1.318
43258SOL     OW31670  10.075   3.729  10.645
43258SOL    HW131671  10.086   3.778  10.726
43258SOL    HW231672  10.087   3.637  10.671
43259SOL     OW31673  13.059   5.590   9.686
43259SOL    HW131674  13.018   5.532   9.751
43259SOL    HW231675  13.128   5.537   9.646
43260SOL     OW31676  10.775  11.882   0.910
43260SOL    HW131677  10.778  11.930   0.992
43260SOL    HW231678  10.832  11.931   0.851
43261SOL     OW31679   9.068  11.381  12.743
43261SOL    HW131680   9.119  11.415  12.817
43261SOL    HW231681   8.977  11.403  12.765
43262SOL     OW31682  13.105   3.512   4.998
43262SOL    HW131683  13.200   3.515   4.997
43262SOL    HW231684  13.083   3.474   5.083
43263SOL     OW31685   6.274   4.660   3.397
43263SOL    HW131686   6.220   4.600   3.450
43263SOL    HW231687   6.212   4.726   3.365
43264SOL     OW31688  11.787   5.398   3.641
43264SOL    HW131689  11.860   5.336   3.640
43264SOL    HW231690  11.829   5.484   3.631
43265SOL     OW31691   0.769  13.711  13.845
43265SOL    HW131692   0.686  13.672  13.875
43265SOL    HW231693   0.836  13.652  13.879
43266SOL     OW31694   3.354   0.433   5.963
43266SOL    HW131695   3.429   0.379   5.990
43266SOL    HW231696   3.304   0.375   5.906
43267SOL     OW31697   1.472   0.715  11.561
43267SOL    HW131698   1.427   0.631  11.548
43267SOL    HW231699   1.545   0.713  11.500
43268SOL     OW31700   9.150   2.611  12.342
43268SOL    HW131701   9.148   2.641  12.433
43268SOL    HW231702   9.059   2.614  12.313
43269SOL     OW31703   5.881   1.219  13.018
43269SOL    HW131704   5.795   1.241  12.982
43269SOL    HW231705   5.869   1.133  13.058
43270SOL     OW31706   7.532   5.395   0.713
43270SOL    HW131707   7.625   5.420   0.720
43270SOL    HW231708   7.488   5.475   0.687
43271SOL     OW31709   4.495   7.280  12.278
43271SOL    HW131710   4.475   7.361  12.324
43271SOL    HW231711   4.517   7.307  12.189
43272SOL     OW31712   0.418   3.370  12.564
43272SOL    HW131713   0.488   3.305  12.566
43272SOL    HW231714   0.371   3.353  12.483
43273SOL     OW31715  14.404   7.295   9.208
43273SOL    HW131716  14.363   7.361   9.263
43273SOL    HW231717  14.346   7.219   9.213
43274SOL     OW31718  12.320   2.934   6.189
43274SOL    HW131719  12.416   2.924   6.184
43274SOL    HW231720  12.297   2.984   6.111
43275SOL     OW31721  13.915  11.348   0.341
43275SOL    HW131722  13.861  11.426   0.350
43275SOL    HW231723  13.861  11.286   0.291
43276SOL     OW31724   4.712   5.643   6.427
43276SOL    HW131725   4.665   5.624   6.345
43276SOL    HW231726   4.804   5.625   6.406
43277SOL     OW31727   6.231  12.122   9.701
43277SOL    HW131728   6.285  12.046   9.680
43277SOL    HW231729   6.294  12.188   9.730
43278SOL     OW31730   6.371   1.099   6.010
43278SOL    HW131731   6.305   1.164   6.031
43278SOL    HW231732   6.444   1.149   5.974
43279SOL     OW31733   1.901   9.192  10.762
43279SOL    HW131734   1.965   9.129  10.793
43279SOL    HW231735   1.901   9.261  10.828
43280SOL     OW31736  11.413   9.262   7.346
43280SOL    HW131737  11.350   9.321   7.305
43280SOL    HW231738  11.457   9.219   7.273
43281SOL     OW31739   5.028   2.730   4.063
43281SOL    HW131740   5.094   2.792   4.093
43281SOL    HW231741   5.056   2.646   4.097
43282SOL     OW31742  12.521   8.200  12.610
43282SOL    HW131743  12.562   8.114  12.608
43282SOL    HW231744  12.516   8.227  12.519
43283SOL     OW31745   4.295   6.001   6.427
43283SOL    HW131746   4.249   6.079   6.459
43283SOL    HW231747   4.272   5.932   6.491
43284SOL     OW31748   6.465   7.235   2.913
43284SOL    HW131749   6.370   7.231   2.926
43284SOL    HW231750   6.495   7.300   2.977
43285SOL     OW31751  12.369   3.356  11.847
43285SOL    HW131752  12.341   3.371  11.757
43285SOL    HW231753  12.415   3.272  11.844
43286SOL     OW31754   8.161   0.623   8.201
43286SOL    HW131755   8.237   0.682   8.197
43286SOL    HW231756   8.188   0.554   8.262
43287SOL     OW31757   9.004   0.833   8.983
43287SOL    HW131758   8.972   0.814   8.895
43287SOL    HW231759   8.939   0.793   9.041
43288SOL     OW31760  11.450  10.581   0.082
43288SOL    HW131761  11.544  10.562   0.085
43288SOL    HW231762  11.412  10.506   0.035
43289SOL     OW31763  13.502   2.979   0.922
43289SOL    HW131764  13.477   2.915   0.855
43289SOL    HW231765  13.501   2.930   1.004
43290SOL     OW31766  13.714   7.756   3.136
43290SOL    HW131767  13.695   7.824   3.200
43290SOL    HW231768  13.693   7.674   3.181
43291SOL     OW31769  13.802  11.929   6.720
43291SOL    HW131770  13.871  11.996   6.718
43291SOL    HW231771  13.849  11.847   6.737
43292SOL     OW31772   2.752   5.332   9.018
43292SOL    HW131773   2.740   5.238   9.003
43292SOL    HW231774   2.844   5.348   9.001
43293SOL     OW31775   3.111   9.852   8.034
43293SOL    HW131776   3.139   9.784   7.972
43293SOL    HW231777   3.173   9.845   8.106
43294SOL     OW31778  14.526  10.764  12.390
43294SOL    HW131779  14.496  10.797  12.474
43294SOL    HW231780  14.588  10.830  12.358
43295SOL     OW31781   9.271   7.638   1.019
43295SOL    HW131782   9.252   7.613   0.928
43295SOL    HW231783   9.353   7.593   1.039
43296SOL     OW31784   4.453   4.750  12.524
43296SOL    HW131785   4.372   4.732  12.475
43296SOL    HW231786   4.479   4.665  12.558
43297SOL     OW31787   0.591  12.675   3.680
43297SOL    HW131788   0.678  12.691   3.643
43297SOL    HW231789   0.591  12.583   3.704
43298SOL     OW31790  13.230   5.337   2.118
43298SOL    HW131791  13.320   5.368   2.112
43298SOL    HW231792  13.209   5.308   2.029
43299SOL     OW31793   2.313  12.953   1.224
43299SOL    HW131794   2.282  12.975   1.136
43299SOL    HW231795   2.407  12.935   1.212
43300SOL     OW31796   5.280   7.841   7.178
43300SOL    HW131797   5.218   7.886   7.121
43300SOL    HW231798   5.264   7.748   7.163
43301SOL     OW31799   9.772   0.851   9.975
43301SOL    HW131800   9.824   0.929   9.988
43301SOL    HW231801   9.683   0.883   9.959
43302SOL     OW31802  14.104   1.134   3.484
43302SOL    HW131803  14.198   1.133   3.501
43302SOL    HW231804  14.065   1.106   3.567
43303SOL     OW31805  14.675   2.247   7.382
43303SOL    HW131806  14.585   2.221   7.363
43303SOL    HW231807  14.677   2.341   7.368
43304SOL     OW31808  11.246   2.761   0.803
43304SOL    HW131809  11.151   2.751   0.797
43304SOL    HW231810  11.280   2.681   0.764
43305SOL     OW31811   1.410   0.933  11.402
43305SOL    HW131812   1.403   0.862  11.467
43305SOL    HW231813   1.503   0.951  11.396
43306SOL     OW31814  12.020   4.568   4.211
43306SOL    HW131815  12.077   4.549   4.137
43306SOL    HW231816  11.943   4.514   4.196
43307SOL     OW31817  11.999   6.204   9.389
43307SOL    HW131818  11.941   6.209   9.313
43307SOL    HW231819  11.970   6.126   9.437
43308SOL     OW31820   0.993   1.008   6.959
43308SOL    HW131821   1.083   1.005   6.926
43308SOL    HW231822   0.939   1.010   6.879
43309SOL     OW31823   1.842   4.409   8.446
43309SOL    HW131824   1.816   4.405   8.538
43309SOL    HW231825   1.914   4.346   8.438
43310SOL     OW31826  12.893   4.709   3.403
43310SOL    HW131827  12.872   4.665   3.321
43310SOL    HW231828  12.826   4.778   3.410
43311SOL     OW31829   8.958  11.139   7.584
43311SOL    HW131830   8.876  11.181   7.559
43311SOL    HW231831   8.938  11.045   7.580
43312SOL     OW31832  13.123  12.640   4.197
43312SOL    HW131833  13.199  12.668   4.248
43312SOL    HW231834  13.158  12.614   4.112
43313SOL     OW31835   0.478   9.791  13.539
43313SOL    HW131836   0.490   9.855  13.469
43313SOL    HW231837   0.526   9.714  13.510
43314SOL     OW31838  11.822   1.500   2.753
43314SOL    HW131839  11.882   1.500   2.827
43314SOL    HW231840  11.802   1.407   2.739
43315SOL     OW31841  10.761   4.721   9.696
43315SOL    HW131842  10.789   4.810   9.675
43315SOL    HW231843  10.831   4.685   9.750
43316SOL     OW31844  13.847   7.229  13.836
43316SOL    HW131845  13.802   7.300  13.882
43316SOL    HW231846  13.939   7.240  13.859
43317SOL     OW31847  11.440   8.332   1.045
43317SOL    HW131848  11.463   8.245   1.014
43317SOL    HW231849  11.394   8.317   1.128
43318SOL     OW31850  12.438   7.218  12.129
43318SOL    HW131851  12.363   7.174  12.089
43318SOL    HW231852  12.511   7.199  12.070
43319SOL     OW31853  14.595  12.233   5.546
43319SOL    HW131854  14.684  12.238   5.580
43319SOL    HW231855  14.605  12.228   5.451
43320SOL     OW31856  14.831  10.735   5.598
43320SOL    HW131857  14.861  10.809   5.650
43320SOL    HW231858  14.768  10.690   5.654
43321SOL     OW31859  12.895   9.849   0.755
43321SOL    HW131860  12.802   9.824   0.752
43321SOL    HW231861  12.941   9.775   0.718
43322SOL     OW31862   4.081   2.970   0.489
43322SOL    HW131863   4.079   3.060   0.523
43322SOL    HW231864   4.114   2.918   0.561
43323SOL     OW31865   3.778   4.625   4.743
43323SOL    HW131866   3.803   4.693   4.681
43323SOL    HW231867   3.699   4.659   4.785
43324SOL     OW31868   7.212   5.440   7.875
43324SOL    HW131869   7.246   5.357   7.909
43324SOL    HW231870   7.119   5.438   7.896
43325SOL     OW31871   4.697  11.542  10.697
43325SOL    HW131872   4.715  11.548  10.603
43325SOL    HW231873   4.687  11.448  10.713
43326SOL     OW31874  10.679   7.975  10.508
43326SOL    HW131875  10.589   7.961  10.535
43326SOL    HW231876  10.673   8.019  10.423
43327SOL     OW31877   1.129   9.640   4.765
43327SOL    HW131878   1.127   9.558   4.715
43327SOL    HW231879   1.064   9.629   4.834
43328SOL     OW31880   0.292  11.233   0.764
43328SOL    HW131881   0.368  11.198   0.810
43328SOL    HW231882   0.304  11.206   0.673
43329SOL     OW31883  14.781  11.737   6.238
43329SOL    HW131884  14.692  11.765   6.216
43329SOL    HW231885  14.770  11.670   6.305
43330SOL     OW31886   6.419  11.902   0.492
43330SOL    HW131887   6.429  11.819   0.446
43330SOL    HW231888   6.327  11.903   0.519
43331SOL     OW31889  13.673  13.101   4.488
43331SOL    HW131890  13.648  13.160   4.417
43331SOL    HW231891  13.593  13.052   4.508
43332SOL     OW31892  12.717   6.582   9.007
43332SOL    HW131893  12.799   6.619   9.039
43332SOL    HW231894  12.744   6.510   8.950
43333SOL     OW31895  13.345  11.226   2.727
43333SOL    HW131896  13.418  11.288   2.734
43333SOL    HW231897  13.315  11.212   2.817
43334SOL     OW31898  13.445  14.249  14.189
43334SOL    HW131899  13.508  14.178  14.187
43334SOL    HW231900  13.366  14.212  14.150
43335SOL     OW31901  11.326   3.899   1.945
43335SOL    HW131902  11.236   3.881   1.918
43335SOL    HW231903  11.322   3.988   1.981
43336SOL     OW31904   6.129  14.263   1.086
43336SOL    HW131905   6.056  14.288   1.143
43336SOL    HW231906   6.192  14.222   1.144
43337SOL     OW31907   6.942   1.141   5.783
43337SOL    HW131908   6.955   1.197   5.706
43337SOL    HW231909   6.967   1.196   5.857
43338SOL     OW31910  12.660   9.700   8.324
43338SOL    HW131911  12.712   9.717   8.403
43338SOL    HW231912  12.637   9.607   8.329
43339SOL     OW31913   0.808  12.868   7.354
43339SOL    HW131914   0.740  12.934   7.340
43339SOL    HW231915   0.767  12.785   7.328
43340SOL     OW31916  10.666   9.689   1.115
43340SOL    HW131917  10.606   9.762   1.098
43340SOL    HW231918  10.609   9.616   1.139
43341SOL     OW31919  12.078  11.551   1.771
43341SOL    HW131920  12.005  11.579   1.826
43341SOL    HW231921  12.039  11.539   1.684
43342SOL     OW31922   3.520  13.770   1.207
43342SOL    HW131923   3.535  13.702   1.273
43342SOL    HW231924   3.598  13.825   1.209
43343SOL     OW31925   2.502  11.294   1.097
43343SOL    HW131926   2.498  11.314   1.003
43343SOL    HW231927   2.546  11.369   1.136
43344SOL     OW31928   6.972  13.951   7.784
43344SOL    HW131929   7.049  13.979   7.832
43344SOL    HW231930   6.979  13.856   7.780
43345SOL     OW31931   9.836   2.171  12.913
43345SOL    HW131932   9.874   2.087  12.937
43345SOL    HW231933   9.763   2.148  12.855
43346SOL     OW31934   7.359  11.081  13.512
43346SOL    HW131935   7.291  11.046  13.568
43346SOL    HW231936   7.418  11.008  13.496
43347SOL     OW31937  12.014  12.649  11.154
43347SOL    HW131938  12.059  12.684  11.077
43347SOL    HW231939  11.937  12.704  11.165
43348SOL     OW31940   1.001   6.766   1.444
43348SOL    HW131941   0.910   6.754   1.471
43348SOL    HW231942   1.006   6.858   1.418
43349SOL     OW31943   0.549   6.327   2.394
43349SOL    HW131944   0.498   6.330   2.312
43349SOL    HW231945   0.581   6.237   2.398
43350SOL     OW31946   8.964  11.547  13.818
43350SOL    HW131947   9.002  11.556  13.731
43350SOL    HW231948   8.873  11.573  13.808
43351SOL     OW31949  12.610  10.303   3.880
43351SOL    HW131950  12.619  10.399   3.880
43351SOL    HW231951  12.673  10.274   3.814
43352SOL     OW31952   7.860   4.335   5.823
43352SOL    HW131953   7.850   4.265   5.887
43352SOL    HW231954   7.774   4.377   5.819
43353SOL     OW31955   0.444  12.101   5.938
43353SOL    HW131956   0.492  12.019   5.942
43353SOL    HW231957   0.464  12.145   6.020
43354SOL     OW31958   9.177  13.464  10.497
43354SOL    HW131959   9.206  13.519  10.569
43354SOL    HW231960   9.254  13.412  10.474
43355SOL     OW31961   7.747   3.137  14.793
43355SOL    HW131962   7.759   3.228  14.818
43355SOL    HW231963   7.766   3.135  14.699
43356SOL     OW31964   3.039   3.881  11.018
43356SOL    HW131965   3.111   3.917  11.070
43356SOL    HW231966   2.973   3.855  11.083
43357SOL     OW31967   2.706  13.370   6.659
43357SOL    HW131968   2.715  13.406   6.570
43357SOL    HW231969   2.794  13.371   6.694
43358SOL     OW31970   8.879   8.895   4.086
43358SOL    HW131971   8.920   8.816   4.121
43358SOL    HW231972   8.874   8.955   4.161
43359SOL     OW31973  13.489   5.296   5.111
43359SOL    HW131974  13.397   5.321   5.122
43359SOL    HW231975  13.508   5.239   5.185
43360SOL     OW31976  11.899  13.171   7.329
43360SOL    HW131977  11.832  13.192   7.263
43360SOL    HW231978  11.890  13.076   7.342
43361SOL     OW31979  12.060   3.824   1.947
43361SOL    HW131980  12.055   3.793   1.857
43361SOL    HW231981  11.981   3.790   1.988
43362SOL     OW31982   9.811   5.857   9.988
43362SOL    HW131983   9.788   5.830  10.077
43362SOL    HW231984   9.757   5.801   9.932
43363SOL     OW31985   0.200   9.637   3.061
43363SOL    HW131986   0.263   9.663   2.994
43363SOL    HW231987   0.216   9.544   3.074
43364SOL     OW31988   4.879  14.544  11.709
43364SOL    HW131989   4.890  14.490  11.787
43364SOL    HW231990   4.939  14.506  11.645
43365SOL     OW31991   8.761   5.874   7.394
43365SOL    HW131992   8.699   5.945   7.413
43365SOL    HW231993   8.706   5.796   7.388
43366SOL     OW31994   8.591  11.810   9.966
43366SOL    HW131995   8.641  11.819  10.047
43366SOL    HW231996   8.594  11.897   9.926
43367SOL     OW31997  14.631   4.150   1.789
43367SOL    HW131998  14.548   4.197   1.802
43367SOL    HW231999  14.621   4.107   1.704
43368SOL     OW32000  11.671   7.421  10.070
43368SOL    HW132001  11.714   7.335  10.071
43368SOL    HW232002  11.683   7.453   9.981
43369SOL     OW32003   0.515   5.076  12.057
43369SOL    HW132004   0.512   5.155  12.003
43369SOL    HW232005   0.595   5.087  12.109
43370SOL     OW32006   3.597  14.680   6.298
43370SOL    HW132007   3.545  14.683   6.379
43370SOL    HW232008   3.656  14.606   6.310
43371SOL     OW32009   1.867   1.738   9.526
43371SOL    HW132010   1.790   1.732   9.582
43371SOL    HW232011   1.925   1.668   9.558
43372SOL     OW32012   8.964   2.864  11.482
43372SOL    HW132013   9.044   2.907  11.451
43372SOL    HW232014   8.977   2.858  11.577
43373SOL     OW32015  12.435   5.220   6.937
43373SOL    HW132016  12.460   5.175   7.017
43373SOL    HW232017  12.442   5.313   6.958
43374SOL     OW32018   5.613  10.469   9.977
43374SOL    HW132019   5.575  10.537  10.031
43374SOL    HW232020   5.629  10.396  10.037
43375SOL     OW32021   6.576   6.163   2.356
43375SOL    HW132022   6.653   6.149   2.411
43375SOL    HW232023   6.597   6.240   2.304
43376SOL     OW32024   9.548   0.652   5.049
43376SOL    HW132025   9.601   0.663   5.129
43376SOL    HW232026   9.464   0.617   5.081
43377SOL     OW32027   3.905   7.763   2.572
43377SOL    HW132028   3.846   7.692   2.597
43377SOL    HW232029   3.991   7.735   2.604
43378SOL     OW32030   7.924   5.272  14.433
43378SOL    HW132031   7.941   5.236  14.346
43378SOL    HW232032   7.858   5.214  14.471
43379SOL     OW32033   4.629  12.205   9.883
43379SOL    HW132034   4.681  12.129   9.909
43379SOL    HW232035   4.615  12.193   9.789
43380SOL     OW32036   6.553  10.072   5.402
43380SOL    HW132037   6.602  10.009   5.349
43380SOL    HW232038   6.620  10.116   5.455
43381SOL     OW32039   6.741   5.431   4.764
43381SOL    HW132040   6.743   5.520   4.730
43381SOL    HW232041   6.789   5.379   4.699
43382SOL     OW32042  11.222   6.037  10.173
43382SOL    HW132043  11.128   6.027  10.188
43382SOL    HW232044  11.229   6.066  10.082
43383SOL     OW32045  11.034   1.698   7.818
43383SOL    HW132046  10.949   1.731   7.848
43383SOL    HW232047  11.021   1.682   7.724
43384SOL     OW32048   7.888   5.084   3.091
43384SOL    HW132049   7.971   5.065   3.135
43384SOL    HW232050   7.826   5.022   3.129
43385SOL     OW32051  13.510   0.773   1.598
43385SOL    HW132052  13.499   0.712   1.525
43385SOL    HW232053  13.602   0.799   1.592
43386SOL     OW32054   6.195  13.099   5.505
43386SOL    HW132055   6.108  13.059   5.497
43386SOL    HW232056   6.232  13.094   5.417
43387SOL     OW32057   6.053  14.013  12.269
43387SOL    HW132058   5.977  14.010  12.211
43387SOL    HW232059   6.015  14.024  12.357
43388SOL     OW32060   3.381   8.992   1.155
43388SOL    HW132061   3.309   9.050   1.131
43388SOL    HW232062   3.339   8.918   1.198
43389SOL     OW32063   5.658  14.743  13.238
43389SOL    HW132064   5.702  14.665  13.204
43389SOL    HW232065   5.612  14.779  13.163
43390SOL     OW32066   6.300   2.867   7.603
43390SOL    HW132067   6.349   2.898   7.527
43390SOL    HW232068   6.234   2.808   7.566
43391SOL     OW32069   3.575   1.729   0.915
43391SOL    HW132070   3.660   1.769   0.934
43391SOL    HW232071   3.512   1.787   0.958
43392SOL     OW32072   3.343   3.684  14.254
43392SOL    HW132073   3.383   3.743  14.190
43392SOL    HW232074   3.255   3.668  14.221
43393SOL     OW32075   3.842   6.946   0.295
43393SOL    HW132076   3.850   6.855   0.322
43393SOL    HW232077   3.757   6.974   0.329
43394SOL     OW32078   0.897   5.213   6.004
43394SOL    HW132079   0.925   5.277   5.939
43394SOL    HW232080   0.943   5.133   5.980
43395SOL     OW32081   9.578  11.726   4.111
43395SOL    HW132082   9.657  11.725   4.057
43395SOL    HW232083   9.611  11.720   4.201
43396SOL     OW32084   7.853   1.132   0.967
43396SOL    HW132085   7.923   1.085   1.012
43396SOL    HW232086   7.891   1.155   0.882
43397SOL     OW32087   1.429   9.416   0.879
43397SOL    HW132088   1.441   9.322   0.894
43397SOL    HW232089   1.510   9.444   0.835
43398SOL     OW32090   3.004  12.143   4.064
43398SOL    HW132091   2.918  12.101   4.061
43398SOL    HW232092   3.066  12.073   4.042
43399SOL     OW32093  12.317   0.998   6.797
43399SOL    HW132094  12.242   1.026   6.744
43399SOL    HW232095  12.393   1.032   6.750
43400SOL     OW32096   1.223   0.403   3.645
43400SOL    HW132097   1.174   0.343   3.701
43400SOL    HW232098   1.314   0.395   3.674
43401SOL     OW32099   5.841   7.237   1.138
43401SOL    HW132100   5.795   7.321   1.142
43401SOL    HW232101   5.828   7.198   1.224
43402SOL     OW32102  14.351   1.912   4.975
43402SOL    HW132103  14.338   2.007   4.978
43402SOL    HW232104  14.420   1.895   5.040
43403SOL     OW32105   7.784   0.198  10.973
43403SOL    HW132106   7.731   0.219  10.896
43403SOL    HW232107   7.770   0.105  10.988
43404SOL     OW32108   3.606  14.121   3.052
43404SOL    HW132109   3.556  14.142   2.973
43404SOL    HW232110   3.686  14.173   3.045
43405SOL     OW32111   8.896   9.032  10.195
43405SOL    HW132112   8.864   8.969  10.259
43405SOL    HW232113   8.967   9.078  10.239
43406SOL     OW32114  10.456   6.337   3.179
43406SOL    HW132115  10.427   6.305   3.093
43406SOL    HW232116  10.415   6.423   3.187
43407SOL     OW32117   8.245   6.828  13.297
43407SOL    HW132118   8.296   6.747  13.288
43407SOL    HW232119   8.227   6.834  13.391
43408SOL     OW32120   7.066   9.875   4.977
43408SOL    HW132121   6.994   9.937   4.987
43408SOL    HW232122   7.032   9.793   5.011
43409SOL     OW32123   2.162  12.818   0.043
43409SOL    HW132124   2.142  12.838   0.135
43409SOL    HW232125   2.087  12.768   0.012
43410SOL     OW32126  14.593   8.047   4.872
43410SOL    HW132127  14.531   8.120   4.876
43410SOL    HW232128  14.666   8.075   4.927
43411SOL     OW32129   3.114   3.804   3.199
43411SOL    HW132130   3.093   3.766   3.113
43411SOL    HW232131   3.177   3.743   3.237
43412SOL     OW32132  10.385   2.587  10.426
43412SOL    HW132133  10.349   2.648  10.362
43412SOL    HW232134  10.341   2.610  10.508
43413SOL     OW32135  11.784   4.298   6.084
43413SOL    HW132136  11.802   4.378   6.135
43413SOL    HW232137  11.866   4.248   6.089
43414SOL     OW32138   6.135   9.914   9.266
43414SOL    HW132139   6.153   9.883   9.177
43414SOL    HW232140   6.141   9.836   9.320
43415SOL     OW32141   9.711   7.502   9.555
43415SOL    HW132142   9.749   7.544   9.478
43415SOL    HW232143   9.684   7.415   9.523
43416SOL     OW32144   8.327   0.419  11.616
43416SOL    HW132145   8.348   0.508  11.644
43416SOL    HW232146   8.237   0.405  11.644
43417SOL     OW32147   9.133   2.057   3.267
43417SOL    HW132148   9.128   2.009   3.350
43417SOL    HW232149   9.168   2.143   3.291
43418SOL     OW32150  13.132   1.581   5.177
43418SOL    HW132151  13.199   1.560   5.242
43418SOL    HW232152  13.180   1.584   5.094
43419SOL     OW32153  11.257   5.814   6.607
43419SOL    HW132154  11.175   5.822   6.559
43419SOL    HW232155  11.235   5.764   6.685
43420SOL     OW32156   1.154   4.373  10.435
43420SOL    HW132157   1.099   4.349  10.361
43420SOL    HW232158   1.198   4.453  10.408
43421SOL     OW32159  12.068   7.115   1.802
43421SOL    HW132160  12.163   7.119   1.808
43421SOL    HW232161  12.048   7.025   1.779
43422SOL     OW32162   9.783  10.124   5.450
43422SOL    HW132163   9.818  10.108   5.362
43422SOL    HW232164   9.860  10.126   5.506
43423SOL     OW32165  10.581   5.630   5.356
43423SOL    HW132166  10.579   5.539   5.385
43423SOL    HW232167  10.489   5.657   5.354
43424SOL     OW32168  14.247   1.230   7.517
43424SOL    HW132169  14.293   1.298   7.566
43424SOL    HW232170  14.312   1.162   7.502
43425SOL     OW32171   6.330   2.760   8.743
43425SOL    HW132172   6.344   2.818   8.818
43425SOL    HW232173   6.273   2.810   8.684
43426SOL     OW32174  12.302   9.414   0.713
43426SOL    HW132175  12.368   9.362   0.668
43426SOL    HW232176  12.239   9.350   0.746
43427SOL     OW32177   4.337  10.644   1.668
43427SOL    HW132178   4.288  10.703   1.726
43427SOL    HW232179   4.377  10.702   1.603
43428SOL     OW32180  11.868   6.032   8.894
43428SOL    HW132181  11.791   5.975   8.896
43428SOL    HW232182  11.942   5.972   8.906
43429SOL     OW32183   7.551  10.029   2.515
43429SOL    HW132184   7.534  10.051   2.607
43429SOL    HW232185   7.595   9.944   2.519
43430SOL     OW32186   5.192  11.291  12.879
43430SOL    HW132187   5.212  11.376  12.917
43430SOL    HW232188   5.102  11.273  12.905
43431SOL     OW32189   9.131  11.078  14.058
43431SOL    HW132190   9.132  11.172  14.040
43431SOL    HW232191   9.094  11.070  14.146
43432SOL     OW32192  13.134  13.263   4.266
43432SOL    HW132193  13.215  13.280   4.313
43432SOL    HW232194  13.158  13.200   4.198
43433SOL     OW32195  12.071   8.385   5.728
43433SOL    HW132196  12.010   8.318   5.696
43433SOL    HW232197  12.065   8.379   5.823
43434SOL     OW32198   6.247  14.653   6.498
43434SOL    HW132199   6.316  14.593   6.525
43434SOL    HW232200   6.211  14.614   6.418
43435SOL     OW32201   9.308  14.213   1.758
43435SOL    HW132202   9.251  14.152   1.804
43435SOL    HW232203   9.331  14.279   1.823
43436SOL     OW32204   5.343  11.671   6.812
43436SOL    HW132205   5.372  11.757   6.780
43436SOL    HW232206   5.255  11.660   6.775
43437SOL     OW32207  12.035   8.855   3.640
43437SOL    HW132208  11.958   8.910   3.639
43437SOL    HW232209  12.002   8.766   3.655
43438SOL     OW32210  11.055   4.313   3.170
43438SOL    HW132211  11.129   4.303   3.230
43438SOL    HW232212  11.080   4.261   3.093
43439SOL     OW32213   2.863   2.457   3.577
43439SOL    HW132214   2.806   2.418   3.644
43439SOL    HW232215   2.951   2.427   3.600
43440SOL     OW32216   4.731   9.854  12.155
43440SOL    HW132217   4.804   9.915  12.165
43440SOL    HW232218   4.749   9.808  12.073
43441SOL     OW32219  11.252   9.013   4.384
43441SOL    HW132220  11.341   9.033   4.354
43441SOL    HW232221  11.230   8.930   4.340
43442SOL     OW32222   0.069   5.891  12.187
43442SOL    HW132223   0.023   5.811  12.161
43442SOL    HW232224   0.075   5.885  12.282
43443SOL     OW32225   3.570   4.417  10.267
43443SOL    HW132226   3.518   4.484  10.221
43443SOL    HW232227   3.595   4.459  10.349
43444SOL     OW32228   4.447  12.457   6.837
43444SOL    HW132229   4.504  12.494   6.905
43444SOL    HW232230   4.477  12.367   6.828
43445SOL     OW32231   3.418   4.064   4.357
43445SOL    HW132232   3.358   4.087   4.287
43445SOL    HW232233   3.457   4.147   4.385
43446SOL     OW32234   6.427  10.886   3.270
43446SOL    HW132235   6.382  10.969   3.290
43446SOL    HW232236   6.425  10.882   3.174
43447SOL     OW32237   6.424   9.275   5.553
43447SOL    HW132238   6.516   9.263   5.576
43447SOL    HW232239   6.418   9.366   5.524
43448SOL     OW32240   8.951  11.725   0.925
43448SOL    HW132241   8.872  11.673   0.941
43448SOL    HW232242   9.023  11.671   0.957
43449SOL     OW32243   1.873   5.953   9.618
43449SOL    HW132244   1.803   5.971   9.680
43449SOL    HW232245   1.897   5.862   9.635
43450SOL     OW32246  14.379   0.482  10.909
43450SOL    HW132247  14.466   0.444  10.921
43450SOL    HW232248  14.353   0.458  10.820
43451SOL     OW32249  14.215   3.699   7.288
43451SOL    HW132250  14.222   3.646   7.367
43451SOL    HW232251  14.122   3.722   7.283
43452SOL     OW32252   2.997   6.287   9.984
43452SOL    HW132253   2.912   6.319   9.955
43452SOL    HW232254   2.979   6.205  10.029
43453SOL     OW32255   6.869   2.037  10.590
43453SOL    HW132256   6.936   2.069  10.650
43453SOL    HW232257   6.786   2.064  10.629
43454SOL     OW32258   3.762   2.821   4.655
43454SOL    HW132259   3.842   2.858   4.618
43454SOL    HW232260   3.737   2.751   4.594
43455SOL     OW32261  13.768   3.285   4.126
43455SOL    HW132262  13.811   3.221   4.182
43455SOL    HW232263  13.677   3.257   4.122
43456SOL     OW32264  14.661   2.860   4.077
43456SOL    HW132265  14.675   2.792   4.012
43456SOL    HW232266  14.570   2.850   4.104
43457SOL     OW32267   0.020   7.845  13.725
43457SOL    HW132268   0.060   7.872  13.807
43457SOL    HW232269   0.052   7.756  13.710
43458SOL     OW32270   6.117   8.042   4.766
43458SOL    HW132271   6.033   7.997   4.768
43458SOL    HW232272   6.098   8.127   4.725
43459SOL     OW32273   7.264  14.417   6.472
43459SOL    HW132274   7.306  14.338   6.505
43459SOL    HW232275   7.272  14.411   6.377
43460SOL     OW32276   7.143   8.128   1.486
43460SOL    HW132277   7.049   8.148   1.485
43460SOL    HW232278   7.157   8.077   1.406
43461SOL     OW32279   2.805   2.771  14.393
43461SOL    HW132280   2.711   2.778  14.403
43461SOL    HW232281   2.842   2.826  14.462
43462SOL     OW32282   7.150  10.647   0.880
43462SOL    HW132283   7.150  10.616   0.970
43462SOL    HW232284   7.201  10.728   0.883
43463SOL     OW32285   1.495   0.504  13.680
43463SOL    HW132286   1.578   0.465  13.708
43463SOL    HW232287   1.473   0.566  13.750
43464SOL     OW32288  14.559  14.200   1.937
43464SOL    HW132289  14.536  14.118   1.893
43464SOL    HW232290  14.529  14.188   2.027
43465SOL     OW32291   3.190  12.872   9.515
43465SOL    HW132292   3.219  12.961   9.533
43465SOL    HW232293   3.094  12.876   9.518
43466SOL     OW32294   3.621   7.288   1.543
43466SOL    HW132295   3.568   7.255   1.615
43466SOL    HW232296   3.596   7.380   1.534
43467SOL     OW32297   2.556  10.876  12.604
43467SOL    HW132298   2.490  10.810  12.625
43467SOL    HW232299   2.568  10.925  12.686
43468SOL     OW32300   7.654  12.242   3.498
43468SOL    HW132301   7.576  12.227   3.444
43468SOL    HW232302   7.624  12.303   3.566
43469SOL     OW32303   1.789   3.579   4.020
43469SOL    HW132304   1.812   3.499   4.066
43469SOL    HW232305   1.766   3.641   4.089
43470SOL     OW32306   4.575   1.306  13.531
43470SOL    HW132307   4.514   1.280  13.462
43470SOL    HW232308   4.595   1.225  13.578
43471SOL     OW32309   9.279   6.135   3.827
43471SOL    HW132310   9.308   6.072   3.761
43471SOL    HW232311   9.199   6.173   3.790
43472SOL     OW32312   6.887   3.764   7.172
43472SOL    HW132313   6.827   3.809   7.231
43472SOL    HW232314   6.864   3.671   7.180
43473SOL     OW32315   3.896  10.254   4.964
43473SOL    HW132316   3.965  10.245   4.898
43473SOL    HW232317   3.825  10.299   4.918
43474SOL     OW32318   4.442  14.260   8.061
43474SOL    HW132319   4.500  14.263   8.137
43474SOL    HW232320   4.423  14.352   8.043
43475SOL     OW32321   8.428   0.178   9.218
43475SOL    HW132322   8.396   0.088   9.221
43475SOL    HW232323   8.389   0.215   9.139
43476SOL     OW32324  12.843  10.932   4.562
43476SOL    HW132325  12.832  10.838   4.557
43476SOL    HW232326  12.837  10.953   4.655
43477SOL     OW32327   8.845  14.354  13.268
43477SOL    HW132328   8.827  14.353  13.362
43477SOL    HW232329   8.825  14.266  13.239
43478SOL     OW32330  11.461   8.985   8.193
43478SOL    HW132331  11.391   9.048   8.178
43478SOL    HW232332  11.453   8.962   8.286
43479SOL     OW32333  12.562   7.791  13.554
43479SOL    HW132334  12.629   7.732  13.520
43479SOL    HW232335  12.488   7.781  13.493
43480SOL     OW32336   8.856   2.303  10.809
43480SOL    HW132337   8.904   2.336  10.886
43480SOL    HW232338   8.912   2.234  10.774
43481SOL     OW32339  10.715  13.687  10.555
43481SOL    HW132340  10.726  13.594  10.573
43481SOL    HW232341  10.621  13.703  10.567
43482SOL     OW32342   4.315  12.052   7.414
43482SOL    HW132343   4.290  12.005   7.334
43482SOL    HW232344   4.238  12.047   7.470
43483SOL     OW32345   3.536   0.098   4.746
43483SOL    HW132346   3.607   0.064   4.801
43483SOL    HW232347   3.491   0.162   4.800
43484SOL     OW32348   5.137  14.343   2.829
43484SOL    HW132349   5.045  14.369   2.832
43484SOL    HW232350   5.157  14.334   2.735
43485SOL     OW32351  14.131  13.424   2.526
43485SOL    HW132352  14.187  13.409   2.602
43485SOL    HW232353  14.181  13.390   2.452
43486SOL     OW32354  12.952  10.859   8.139
43486SOL    HW132355  12.981  10.788   8.082
43486SOL    HW232356  12.989  10.938   8.100
43487SOL     OW32357  12.025   4.218   7.082
43487SOL    HW132358  12.095   4.169   7.038
43487SOL    HW232359  12.030   4.306   7.043
43488SOL     OW32360   8.209  12.228  11.909
43488SOL    HW132361   8.129  12.178  11.922
43488SOL    HW232362   8.256  12.182  11.840
43489SOL     OW32363   4.294   1.017   0.271
43489SOL    HW132364   4.355   1.063   0.330
43489SOL    HW232365   4.305   0.925   0.293
43490SOL     OW32366  14.506   7.042   1.512
43490SOL    HW132367  14.573   7.105   1.538
43490SOL    HW232368  14.542   6.957   1.540
43491SOL     OW32369   6.679   9.627   5.512
43491SOL    HW132370   6.697   9.708   5.561
43491SOL    HW232371   6.761   9.578   5.516
43492SOL     OW32372   8.000  12.281   4.673
43492SOL    HW132373   8.063  12.334   4.625
43492SOL    HW232374   8.052  12.207   4.706
43493SOL     OW32375  10.915   1.869   2.569
43493SOL    HW132376  10.932   1.942   2.628
43493SOL    HW232377  10.830   1.834   2.597
43494SOL     OW32378  10.880   9.691   5.119
43494SOL    HW132379  10.800   9.669   5.073
43494SOL    HW232380  10.855   9.761   5.179
43495SOL     OW32381  12.893  10.166   3.404
43495SOL    HW132382  12.921  10.204   3.321
43495SOL    HW232383  12.885  10.072   3.386
43496SOL     OW32384   1.651  10.436   7.011
43496SOL    HW132385   1.600  10.505   6.969
43496SOL    HW232386   1.700  10.480   7.080
43497SOL     OW32387   8.563   6.714  11.944
43497SOL    HW132388   8.469   6.697  11.937
43497SOL    HW232389   8.573   6.804  11.913
43498SOL     OW32390  11.642   1.623  13.209
43498SOL    HW132391  11.715   1.595  13.155
43498SOL    HW232392  11.622   1.712  13.178
43499SOL     OW32393   9.063   1.305   5.392
43499SOL    HW132394   8.978   1.269   5.418
43499SOL    HW232395   9.118   1.228   5.376
43500SOL     OW32396   0.148   2.407   1.369
43500SOL    HW132397   0.219   2.470   1.354
43500SOL    HW232398   0.191   2.321   1.367
43501SOL     OW32399   0.758   6.424  13.062
43501SOL    HW132400   0.812   6.347  13.047
43501SOL    HW232401   0.778   6.450  13.152
43502SOL     OW32402   4.741   9.418  11.112
43502SOL    HW132403   4.740   9.336  11.161
43502SOL    HW232404   4.814   9.468  11.148
43503SOL     OW32405   7.635  10.124   6.533
43503SOL    HW132406   7.542  10.135   6.514
43503SOL    HW232407   7.655  10.035   6.505
43504SOL     OW32408  13.581   2.290  11.283
43504SOL    HW132409  13.640   2.359  11.313
43504SOL    HW232410  13.625   2.208  11.306
43505SOL     OW32411   7.147   8.841   1.501
43505SOL    HW132412   7.185   8.755   1.483
43505SOL    HW232413   7.054   8.832   1.478
43506SOL     OW32414   2.248  13.356   7.356
43506SOL    HW132415   2.230  13.444   7.389
43506SOL    HW232416   2.256  13.367   7.261
43507SOL     OW32417   2.114   0.127   5.129
43507SOL    HW132418   2.078   0.206   5.089
43507SOL    HW232419   2.187   0.102   5.072
43508SOL     OW32420  14.137   7.743   8.078
43508SOL    HW132421  14.103   7.666   8.123
43508SOL    HW232422  14.212   7.709   8.027
43509SOL     OW32423   2.464  13.006   4.668
43509SOL    HW132424   2.520  13.016   4.591
43509SOL    HW232425   2.418  13.089   4.676
43510SOL     OW32426   8.936   7.583  12.852
43510SOL    HW132427   8.908   7.614  12.765
43510SOL    HW232428   8.960   7.663  12.899
43511SOL     OW32429   5.241   9.223  10.505
43511SOL    HW132430   5.303   9.245  10.574
43511SOL    HW232431   5.177   9.167  10.547
43512SOL     OW32432   8.508   5.521  11.867
43512SOL    HW132433   8.490   5.480  11.782
43512SOL    HW232434   8.590   5.568  11.854
43513SOL     OW32435  13.048   4.451  14.191
43513SOL    HW132436  12.992   4.382  14.157
43513SOL    HW232437  13.087   4.491  14.113
43514SOL     OW32438  11.725   3.131  11.899
43514SOL    HW132439  11.633   3.149  11.919
43514SOL    HW232440  11.766   3.118  11.984
43515SOL     OW32441   0.426  12.947   2.934
43515SOL    HW132442   0.417  12.910   2.846
43515SOL    HW232443   0.478  12.882   2.982
43516SOL     OW32444   2.656  14.095  14.450
43516SOL    HW132445   2.571  14.082  14.407
43516SOL    HW232446   2.718  14.107  14.377
43517SOL     OW32447   8.224   4.676   1.308
43517SOL    HW132448   8.273   4.758   1.299
43517SOL    HW232449   8.177   4.685   1.391
43518SOL     OW32450  10.843   8.017   9.921
43518SOL    HW132451  10.772   8.031   9.858
43518SOL    HW232452  10.832   7.926   9.949
43519SOL     OW32453   6.360  11.055  12.320
43519SOL    HW132454   6.424  11.018  12.381
43519SOL    HW232455   6.292  11.094  12.376
43520SOL     OW32456  13.910   2.821  13.159
43520SOL    HW132457  13.850   2.894  13.170
43520SOL    HW232458  13.853   2.745  13.147
43521SOL     OW32459  13.260   7.824   8.867
43521SOL    HW132460  13.253   7.755   8.802
43521SOL    HW232461  13.177   7.872   8.861
43522SOL     OW32462   9.209   7.982   0.542
43522SOL    HW132463   9.127   7.965   0.589
43522SOL    HW232464   9.220   7.905   0.486
43523SOL     OW32465   7.564   3.684   1.075
43523SOL    HW132466   7.507   3.756   1.100
43523SOL    HW232467   7.653   3.718   1.091
43524SOL     OW32468   0.738  10.506   7.257
43524SOL    HW132469   0.701  10.457   7.330
43524SOL    HW232470   0.707  10.459   7.179
43525SOL     OW32471   3.648  14.711  12.277
43525SOL    HW132472   3.654  14.789  12.332
43525SOL    HW232473   3.738  14.680  12.268
43526SOL     OW32474   9.685   8.522   4.224
43526SOL    HW132475   9.768   8.525   4.272
43526SOL    HW232476   9.675   8.610   4.187
43527SOL     OW32477   7.427   5.857  10.721
43527SOL    HW132478   7.505   5.804  10.732
43527SOL    HW232479   7.354   5.800  10.746
43528SOL     OW32480  11.849  14.634   1.664
43528SOL    HW132481  11.906  14.660   1.592
43528SOL    HW232482  11.808  14.553   1.634
43529SOL     OW32483   9.917   2.538   3.085
43529SOL    HW132484   9.988   2.477   3.102
43529SOL    HW232485   9.940   2.579   3.001
43530SOL     OW32486  14.413   9.167   6.486
43530SOL    HW132487  14.365   9.174   6.403
43530SOL    HW232488  14.476   9.096   6.471
43531SOL     OW32489   1.048  11.327  12.552
43531SOL    HW132490   0.982  11.397  12.550
43531SOL    HW232491   1.125  11.365  12.510
43532SOL     OW32492   1.490   9.188   8.034
43532SOL    HW132493   1.482   9.167   8.127
43532SOL    HW232494   1.532   9.274   8.032
43533SOL     OW32495   2.556  12.694  12.936
43533SOL    HW132496   2.558  12.785  12.906
43533SOL    HW232497   2.630  12.652  12.893
43534SOL     OW32498   5.679   7.451  14.241
43534SOL    HW132499   5.740   7.395  14.193
43534SOL    HW232500   5.623   7.489  14.173
43535SOL     OW32501   5.592   1.420   8.913
43535SOL    HW132502   5.661   1.456   8.969
43535SOL    HW232503   5.528   1.491   8.905
43536SOL     OW32504  13.644   8.146   7.377
43536SOL    HW132505  13.710   8.215   7.384
43536SOL    HW232506  13.661   8.087   7.450
43537SOL     OW32507   0.962   3.813  11.673
43537SOL    HW132508   0.979   3.899  11.633
43537SOL    HW232509   1.006   3.816  11.757
43538SOL     OW32510   5.835  12.827   4.555
43538SOL    HW132511   5.883  12.875   4.488
43538SOL    HW232512   5.781  12.765   4.507
43539SOL     OW32513   1.181  13.364   4.579
43539SOL    HW132514   1.270  13.389   4.556
43539SOL    HW232515   1.131  13.445   4.575
43540SOL     OW32516   0.479   1.858   5.503
43540SOL    HW132517   0.461   1.948   5.477
43540SOL    HW232518   0.464   1.807   5.422
43541SOL     OW32519   2.805   3.290   1.574
43541SOL    HW132520   2.733   3.258   1.629
43541SOL    HW232521   2.882   3.243   1.606
43542SOL     OW32522   3.723   8.524   6.741
43542SOL    HW132523   3.737   8.611   6.777
43542SOL    HW232524   3.695   8.539   6.651
43543SOL     OW32525   3.767   5.154  11.959
43543SOL    HW132526   3.750   5.183  11.870
43543SOL    HW232527   3.852   5.192  11.981
43544SOL     OW32528   3.619   3.402   1.767
43544SOL    HW132529   3.634   3.490   1.802
43544SOL    HW232530   3.667   3.400   1.685
43545SOL     OW32531   1.794   1.726   6.242
43545SOL    HW132532   1.867   1.712   6.302
43545SOL    HW232533   1.746   1.643   6.243
43546SOL     OW32534  14.132   3.674   3.687
43546SOL    HW132535  14.092   3.761   3.693
43546SOL    HW232536  14.078   3.619   3.745
43547SOL     OW32537   6.713   1.378   7.648
43547SOL    HW132538   6.641   1.371   7.586
43547SOL    HW232539   6.771   1.445   7.611
43548SOL     OW32540   6.088  12.409   4.846
43548SOL    HW132541   6.065  12.502   4.844
43548SOL    HW232542   6.021  12.366   4.792
43549SOL     OW32543   9.913   0.010   8.996
43549SOL    HW132544   9.958   0.089   8.967
43549SOL    HW232545   9.825   0.016   8.958
43550SOL     OW32546   1.881   3.810   3.489
43550SOL    HW132547   1.916   3.866   3.558
43550SOL    HW232548   1.932   3.832   3.411
43551SOL     OW32549   6.237   9.855   7.336
43551SOL    HW132550   6.257   9.872   7.243
43551SOL    HW232551   6.300   9.789   7.362
43552SOL     OW32552   6.785  12.340  10.931
43552SOL    HW132553   6.753  12.334  10.841
43552SOL    HW232554   6.870  12.385  10.923
43553SOL     OW32555  13.808   2.878   2.286
43553SOL    HW132556  13.721   2.916   2.275
43553SOL    HW232557  13.794   2.801   2.342
43554SOL     OW32558   7.519   8.831  11.608
43554SOL    HW132559   7.522   8.794  11.696
43554SOL    HW232560   7.604   8.874  11.597
43555SOL     OW32561   4.085   4.483   7.344
43555SOL    HW132562   4.009   4.496   7.287
43555SOL    HW232563   4.150   4.546   7.312
43556SOL     OW32564   9.872   5.916   3.834
43556SOL    HW132565   9.824   5.887   3.912
43556SOL    HW232566   9.838   6.003   3.816
43557SOL     OW32567   7.421  13.286   2.167
43557SOL    HW132568   7.451  13.370   2.132
43557SOL    HW232569   7.361  13.309   2.237
43558SOL     OW32570   2.421   2.835  13.913
43558SOL    HW132571   2.484   2.888  13.865
43558SOL    HW232572   2.428   2.747  13.875
43559SOL     OW32573  13.710   7.399  11.559
43559SOL    HW132574  13.666   7.469  11.607
43559SOL    HW232575  13.645   7.328  11.557
43560SOL     OW32576   1.479   9.823   5.393
43560SOL    HW132577   1.559   9.779   5.362
43560SOL    HW232578   1.467   9.897   5.334
43561SOL     OW32579  11.337   3.271   9.108
43561SOL    HW132580  11.334   3.175   9.107
43561SOL    HW232581  11.320   3.297   9.018
43562SOL     OW32582   6.004   9.687  13.266
43562SOL    HW132583   5.966   9.764  13.224
43562SOL    HW232584   5.999   9.705  13.359
43563SOL     OW32585   2.890   2.826   6.197
43563SOL    HW132586   2.851   2.800   6.114
43563SOL    HW232587   2.894   2.921   6.193
43564SOL     OW32588   9.550   1.538   4.448
43564SOL    HW132589   9.497   1.463   4.471
43564SOL    HW232590   9.503   1.613   4.484
43565SOL     OW32591  14.585  12.093   3.180
43565SOL    HW132592  14.595  12.027   3.249
43565SOL    HW232593  14.559  12.043   3.103
43566SOL     OW32594   7.439   1.872   6.865
43566SOL    HW132595   7.530   1.873   6.895
43566SOL    HW232596   7.421   1.963   6.842
43567SOL     OW32597  11.653  11.019   2.959
43567SOL    HW132598  11.731  10.984   2.918
43567SOL    HW232599  11.660  10.993   3.051
43568SOL     OW32600  11.038  10.160  13.410
43568SOL    HW132601  10.997  10.198  13.333
43568SOL    HW232602  10.965  10.125  13.462
43569SOL     OW32603   6.993   6.817   6.276
43569SOL    HW132604   7.059   6.885   6.291
43569SOL    HW232605   6.973   6.785   6.364
43570SOL     OW32606  13.635   9.448   4.710
43570SOL    HW132607  13.635   9.464   4.804
43570SOL    HW232608  13.575   9.375   4.698
43571SOL     OW32609   0.010   2.294   0.888
43571SOL    HW132610  14.837   2.257   0.809
43571SOL    HW232611   0.092   2.332   0.857
43572SOL     OW32612   6.694   4.595   5.326
43572SOL    HW132613   6.737   4.556   5.402
43572SOL    HW232614   6.700   4.689   5.340
43573SOL     OW32615   5.746  11.044  11.167
43573SOL    HW132616   5.703  10.990  11.101
43573SOL    HW232617   5.821  10.992  11.196
43574SOL     OW32618  11.996   7.469   5.162
43574SOL    HW132619  12.058   7.492   5.231
43574SOL    HW232620  12.047   7.414   5.102
43575SOL     OW32621   7.715   9.894  14.115
43575SOL    HW132622   7.638   9.837  14.109
43575SOL    HW232623   7.695   9.952  14.189
43576SOL     OW32624   3.906   8.886   1.828
43576SOL    HW132625   3.932   8.945   1.757
43576SOL    HW232626   3.970   8.903   1.897
43577SOL     OW32627   2.893   4.172  10.322
43577SOL    HW132628   2.885   4.202  10.413
43577SOL    HW232629   2.805   4.142  10.299
43578SOL     OW32630   2.125  13.554  10.169
43578SOL    HW132631   2.148  13.634  10.123
43578SOL    HW232632   2.043  13.575  10.214
43579SOL     OW32633  14.319   4.987   8.580
43579SOL    HW132634  14.354   5.020   8.663
43579SOL    HW232635  14.385   5.011   8.515
43580SOL     OW32636  12.365  10.680  12.971
43580SOL    HW132637  12.391  10.605  12.918
43580SOL    HW232638  12.351  10.644  13.059
43581SOL     OW32639   5.086   6.146  13.745
43581SOL    HW132640   5.076   6.175  13.654
43581SOL    HW232641   5.146   6.072  13.740
43582SOL     OW32642   9.261   0.752   3.892
43582SOL    HW132643   9.295   0.708   3.971
43582SOL    HW232644   9.238   0.840   3.922
43583SOL     OW32645   3.509   9.724   3.517
43583SOL    HW132646   3.600   9.729   3.486
43583SOL    HW232647   3.487   9.814   3.542
43584SOL     OW32648   8.687  13.807   4.197
43584SOL    HW132649   8.690  13.902   4.201
43584SOL    HW232650   8.691  13.778   4.288
43585SOL     OW32651   2.078   3.050   6.466
43585SOL    HW132652   2.164   3.045   6.508
43585SOL    HW232653   2.033   3.119   6.515
43586SOL     OW32654   0.076   7.021   3.324
43586SOL    HW132655   0.045   7.045   3.237
43586SOL    HW232656   0.163   6.983   3.310
43587SOL     OW32657  12.794   2.265   5.763
43587SOL    HW132658  12.869   2.303   5.808
43587SOL    HW232659  12.745   2.340   5.729
43588SOL     OW32660   4.109  12.770  12.949
43588SOL    HW132661   4.189  12.821  12.961
43588SOL    HW232662   4.090  12.776  12.856
43589SOL     OW32663   1.514   9.322   4.853
43589SOL    HW132664   1.509   9.366   4.768
43589SOL    HW232665   1.438   9.354   4.901
43590SOL     OW32666   3.647  13.047   1.821
43590SOL    HW132667   3.565  13.088   1.848
43590SOL    HW232668   3.624  12.956   1.803
43591SOL     OW32669   0.304   5.155   3.182
43591SOL    HW132670   0.273   5.241   3.156
43591SOL    HW232671   0.309   5.160   3.278
43592SOL     OW32672   9.604   5.809  10.191
43592SOL    HW132673   9.557   5.854  10.121
43592SOL    HW232674   9.611   5.718  10.161
43593SOL     OW32675  14.103   7.485   2.060
43593SOL    HW132676  14.130   7.399   2.027
43593SOL    HW232677  14.042   7.518   1.994
43594SOL     OW32678   2.573  13.508   0.935
43594SOL    HW132679   2.527  13.565   0.873
43594SOL    HW232680   2.596  13.565   1.008
43595SOL     OW32681   0.211   3.166   8.808
43595SOL    HW132682   0.286   3.114   8.779
43595SOL    HW232683   0.176   3.203   8.727
43596SOL     OW32684   1.833  11.228   2.880
43596SOL    HW132685   1.791  11.152   2.922
43596SOL    HW232686   1.892  11.189   2.815
43597SOL     OW32687   5.960   4.019   3.050
43597SOL    HW132688   5.912   4.101   3.055
43597SOL    HW232689   5.996   4.018   2.961
43598SOL     OW32690   9.529   6.110  12.954
43598SOL    HW132691   9.467   6.083  13.022
43598SOL    HW232692   9.615   6.103  12.995
43599SOL     OW32693   0.940   1.523   5.213
43599SOL    HW132694   1.003   1.509   5.284
43599SOL    HW232695   0.995   1.540   5.136
43600SOL     OW32696  12.255   9.487  11.044
43600SOL    HW132697  12.244   9.434  11.122
43600SOL    HW232698  12.205   9.567  11.063
43601SOL     OW32699  10.370  11.208   7.324
43601SOL    HW132700  10.310  11.143   7.287
43601SOL    HW232701  10.326  11.239   7.403
43602SOL     OW32702   3.895   6.988   6.719
43602SOL    HW132703   3.878   6.902   6.757
43602SOL    HW232704   3.865   7.051   6.785
43603SOL     OW32705   1.384  10.150  12.529
43603SOL    HW132706   1.309  10.156  12.588
43603SOL    HW232707   1.453  10.199  12.574
43604SOL     OW32708   6.208   8.227  10.253
43604SOL    HW132709   6.175   8.240  10.342
43604SOL    HW232710   6.290   8.276  10.251
43605SOL     OW32711   3.613   2.595   2.330
43605SOL    HW132712   3.684   2.569   2.271
43605SOL    HW232713   3.657   2.641   2.401
43606SOL     OW32714   3.249   6.146   1.908
43606SOL    HW132715   3.261   6.206   1.834
43606SOL    HW232716   3.324   6.086   1.903
43607SOL     OW32717  14.701   4.282   3.255
43607SOL    HW132718  14.702   4.245   3.167
43607SOL    HW232719  14.648   4.221   3.307
43608SOL     OW32720   8.575  10.602  13.369
43608SOL    HW132721   8.588  10.525  13.314
43608SOL    HW232722   8.639  10.665  13.338
43609SOL     OW32723   0.642  14.426   4.506
43609SOL    HW132724   0.571  14.491   4.506
43609SOL    HW232725   0.659  14.409   4.413
43610SOL     OW32726   7.952  11.704  14.138
43610SOL    HW132727   8.011  11.630  14.122
43610SOL    HW232728   7.875  11.666  14.179
43611SOL     OW32729   9.845   9.475  14.282
43611SOL    HW132730   9.869   9.566  14.301
43611SOL    HW232731   9.873   9.426  14.359
43612SOL     OW32732  11.523   2.571   6.378
43612SOL    HW132733  11.438   2.527   6.371
43612SOL    HW232734  11.570   2.523   6.446
43613SOL     OW32735   1.617   2.695   9.508
43613SOL    HW132736   1.622   2.642   9.428
43613SOL    HW232737   1.546   2.757   9.491
43614SOL     OW32738  12.359  11.946   4.877
43614SOL    HW132739  12.321  11.858   4.882
43614SOL    HW232740  12.397  11.951   4.789
43615SOL     OW32741  12.530  10.462   7.955
43615SOL    HW132742  12.485  10.504   8.028
43615SOL    HW232743  12.579  10.390   7.995
43616SOL     OW32744  14.057   1.118   0.228
43616SOL    HW132745  14.065   1.211   0.247
43616SOL    HW232746  13.971   1.109   0.187
43617SOL     OW32747   3.533  10.001   5.082
43617SOL    HW132748   3.600   9.975   5.018
43617SOL    HW232749   3.490  10.076   5.041
43618SOL     OW32750   1.009   6.723   0.413
43618SOL    HW132751   1.093   6.761   0.387
43618SOL    HW232752   1.028   6.630   0.428
43619SOL     OW32753   9.434   8.998   6.049
43619SOL    HW132754   9.470   9.082   6.076
43619SOL    HW232755   9.474   8.935   6.108
43620SOL     OW32756   5.289   7.225   5.588
43620SOL    HW132757   5.239   7.256   5.512
43620SOL    HW232758   5.376   7.264   5.575
43621SOL     OW32759   2.879   3.001  13.727
43621SOL    HW132760   2.961   2.955  13.713
43621SOL    HW232761   2.812   2.943  13.690
43622SOL     OW32762  12.089   3.217   9.736
43622SOL    HW132763  12.005   3.186   9.702
43622SOL    HW232764  12.069   3.249   9.824
43623SOL     OW32765   2.881   3.592   6.718
43623SOL    HW132766   2.865   3.561   6.629
43623SOL    HW232767   2.974   3.616   6.719
43624SOL     OW32768  14.582   4.420   8.165
43624SOL    HW132769  14.504   4.424   8.109
43624SOL    HW232770  14.548   4.435   8.253
43625SOL     OW32771   1.550  10.936   9.943
43625SOL    HW132772   1.460  10.909   9.923
43625SOL    HW232773   1.554  10.934  10.038
43626SOL     OW32774   5.708  14.546   4.464
43626SOL    HW132775   5.697  14.506   4.550
43626SOL    HW232776   5.647  14.498   4.408
43627SOL     OW32777   8.590   4.072   0.913
43627SOL    HW132778   8.647   4.115   0.976
43627SOL    HW232779   8.529   4.020   0.966
43628SOL     OW32780   2.443   8.914   7.987
43628SOL    HW132781   2.513   8.926   8.051
43628SOL    HW232782   2.431   9.001   7.948
43629SOL     OW32783   6.548   5.050  12.164
43629SOL    HW132784   6.469   5.025  12.116
43629SOL    HW232785   6.548   5.146  12.161
43630SOL     OW32786   9.150   0.987   6.574
43630SOL    HW132787   9.192   1.062   6.531
43630SOL    HW232788   9.081   1.026   6.628
43631SOL     OW32789   5.172   3.110   2.042
43631SOL    HW132790   5.116   3.034   2.054
43631SOL    HW232791   5.248   3.093   2.099
43632SOL     OW32792   7.616   5.665   4.524
43632SOL    HW132793   7.673   5.589   4.520
43632SOL    HW232794   7.611   5.688   4.616
43633SOL     OW32795   1.188  13.487   8.116
43633SOL    HW132796   1.202  13.574   8.154
43633SOL    HW232797   1.275  13.446   8.118
43634SOL     OW32798   5.358   4.108  12.160
43634SOL    HW132799   5.319   4.193  12.140
43634SOL    HW232800   5.453   4.124  12.157
43635SOL     OW32801   4.156   8.431   6.319
43635SOL    HW132802   4.075   8.390   6.348
43635SOL    HW232803   4.146   8.440   6.224
43636SOL     OW32804   8.602  11.407   3.057
43636SOL    HW132805   8.638  11.475   3.115
43636SOL    HW232806   8.611  11.444   2.969
43637SOL     OW32807  14.482   6.922   0.475
43637SOL    HW132808  14.387   6.912   0.466
43637SOL    HW232809  14.501   6.888   0.562
43638SOL     OW32810   7.817   5.734   9.255
43638SOL    HW132811   7.772   5.815   9.277
43638SOL    HW232812   7.810   5.727   9.160
43639SOL     OW32813  11.241  14.823   0.854
43639SOL    HW132814  11.274  14.734   0.862
43639SOL    HW232815  11.146  14.814   0.865
43640SOL     OW32816   1.404   7.809   5.481
43640SOL    HW132817   1.319   7.842   5.450
43640SOL    HW232818   1.397   7.714   5.475
43641SOL     OW32819   9.258   9.730   3.437
43641SOL    HW132820   9.289   9.651   3.394
43641SOL    HW232821   9.330   9.793   3.427
43642SOL     OW32822   4.212   0.542   0.043
43642SOL    HW132823   4.230   0.635   0.061
43642SOL    HW232824   4.277   0.517  14.846
43643SOL     OW32825   7.454   8.319  11.985
43643SOL    HW132826   7.403   8.239  12.000
43643SOL    HW232827   7.494   8.339  12.069
43644SOL     OW32828   4.418  11.306   3.057
43644SOL    HW132829   4.344  11.259   3.095
43644SOL    HW232830   4.408  11.294   2.963
43645SOL     OW32831  14.381   7.971   7.586
43645SOL    HW132832  14.332   7.976   7.505
43645SOL    HW232833  14.319   7.935   7.650
43646SOL     OW32834   7.240   3.377   4.867
43646SOL    HW132835   7.325   3.339   4.890
43646SOL    HW232836   7.177   3.307   4.883
43647SOL     OW32837  12.042   2.861   4.203
43647SOL    HW132838  11.986   2.875   4.126
43647SOL    HW232839  12.060   2.949   4.235
43648SOL     OW32840  13.537  14.364  12.644
43648SOL    HW132841  13.553  14.351  12.550
43648SOL    HW232842  13.605  14.426  12.671
43649SOL     OW32843   8.842   3.082   0.769
43649SOL    HW132844   8.837   3.152   0.704
43649SOL    HW232845   8.882   3.008   0.722
43650SOL     OW32846   4.676  10.822  14.758
43650SOL    HW132847   4.769  10.804  14.749
43650SOL    HW232848   4.655  10.797  14.848
43651SOL     OW32849   4.272  10.757   2.766
43651SOL    HW132850   4.289  10.665   2.787
43651SOL    HW232851   4.345  10.783   2.710
43652SOL     OW32852   0.964  11.858  14.100
43652SOL    HW132853   1.004  11.883  14.184
43652SOL    HW232854   0.902  11.789  14.123
43653SOL     OW32855   6.238   1.907  14.802
43653SOL    HW132856   6.256   1.868  14.716
43653SOL    HW232857   6.252   2.001  14.790
43654SOL     OW32858   5.181  11.570  11.803
43654SOL    HW132859   5.207  11.488  11.760
43654SOL    HW232860   5.257  11.594  11.856
43655SOL     OW32861   3.796   4.029   1.883
43655SOL    HW132862   3.884   4.012   1.915
43655SOL    HW232863   3.760   4.093   1.944
43656SOL     OW32864   1.154   1.991   1.814
43656SOL    HW132865   1.151   1.955   1.726
43656SOL    HW232866   1.152   1.915   1.872
43657SOL     OW32867   5.720   1.902  14.333
43657SOL    HW132868   5.744   1.811  14.347
43657SOL    HW232869   5.648   1.899  14.270
43658SOL     OW32870   1.767   0.849   9.626
43658SOL    HW132871   1.753   0.783   9.557
43658SOL    HW232872   1.678   0.876   9.651
43659SOL     OW32873   5.752  14.058   0.116
43659SOL    HW132874   5.820  14.083   0.179
43659SOL    HW232875   5.785  13.978   0.076
43660SOL     OW32876  10.173   3.554   8.820
43660SOL    HW132877  10.091   3.506   8.813
43660SOL    HW232878  10.171   3.615   8.746
43661SOL     OW32879  10.946  11.263   1.664
43661SOL    HW132880  11.005  11.333   1.637
43661SOL    HW232881  10.859  11.304   1.663
43662SOL     OW32882   5.959   1.504   6.475
43662SOL    HW132883   5.970   1.420   6.520
43662SOL    HW232884   5.865   1.522   6.482
43663SOL     OW32885   2.636  12.478   7.956
43663SOL    HW132886   2.546  12.507   7.973
43663SOL    HW232887   2.649  12.405   8.016
43664SOL     OW32888   5.644   3.878   7.914
43664SOL    HW132889   5.629   3.964   7.954
43664SOL    HW232890   5.601   3.816   7.974
43665SOL     OW32891  10.259  10.841   7.011
43665SOL    HW132892  10.174  10.799   6.997
43665SOL    HW232893  10.267  10.904   6.940
43666SOL     OW32894   2.767   7.664   8.146
43666SOL    HW132895   2.842   7.662   8.085
43666SOL    HW232896   2.804   7.638   8.230
43667SOL     OW32897   1.161   7.775  11.710
43667SOL    HW132898   1.173   7.686  11.678
43667SOL    HW232899   1.247   7.803  11.740
43668SOL     OW32900   9.304   1.161   8.547
43668SOL    HW132901   9.359   1.098   8.500
43668SOL    HW232902   9.216   1.125   8.540
43669SOL     OW32903  10.561  10.329   9.232
43669SOL    HW132904  10.616  10.383   9.175
43669SOL    HW232905  10.508  10.277   9.172
43670SOL     OW32906  13.678   5.155   5.810
43670SOL    HW132907  13.588   5.182   5.827
43670SOL    HW232908  13.724   5.176   5.892
43671SOL     OW32909   3.875  13.433  10.781
43671SOL    HW132910   3.810  13.379  10.826
43671SOL    HW232911   3.919  13.481  10.851
43672SOL     OW32912  14.112  14.575   7.622
43672SOL    HW132913  14.146  14.485   7.612
43672SOL    HW232914  14.105  14.607   7.532
43673SOL     OW32915   6.280  13.599   8.184
43673SOL    HW132916   6.364  13.576   8.144
43673SOL    HW232917   6.297  13.598   8.278
43674SOL     OW32918   0.684  12.324   0.071
43674SOL    HW132919   0.716  12.261   0.006
43674SOL    HW232920   0.618  12.275   0.121
43675SOL     OW32921   2.600   9.879  12.978
43675SOL    HW132922   2.530   9.843  12.924
43675SOL    HW232923   2.680   9.843  12.941
43676SOL     OW32924   9.912  10.749   6.657
43676SOL    HW132925   9.817  10.743   6.659
43676SOL    HW232926   9.942  10.662   6.685
43677SOL     OW32927   6.542  14.021   4.497
43677SOL    HW132928   6.593  14.086   4.449
43677SOL    HW232929   6.484  13.982   4.431
43678SOL     OW32930   9.142   5.584  14.844
43678SOL    HW132931   9.047   5.593  14.833
43678SOL    HW232932   9.152   5.514   0.041
43679SOL     OW32933  12.745   0.361   2.795
43679SOL    HW132934  12.741   0.294   2.864
43679SOL    HW232935  12.731   0.443   2.842
43680SOL     OW32936   2.933  10.293   5.889
43680SOL    HW132937   2.867  10.228   5.914
43680SOL    HW232938   2.886  10.355   5.834
43681SOL     OW32939   1.381   2.151   3.762
43681SOL    HW132940   1.409   2.091   3.694
43681SOL    HW232941   1.370   2.235   3.718
43682SOL     OW32942   8.291   1.627   1.099
43682SOL    HW132943   8.214   1.682   1.086
43682SOL    HW232944   8.323   1.651   1.186
43683SOL     OW32945   1.050   9.948   8.274
43683SOL    HW132946   1.029  10.031   8.229
43683SOL    HW232947   1.017   9.960   8.363
43684SOL     OW32948  13.643   9.735  12.486
43684SOL    HW132949  13.615   9.708  12.574
43684SOL    HW232950  13.641   9.830  12.488
43685SOL     OW32951  11.662   3.231   6.863
43685SOL    HW132952  11.720   3.213   6.789
43685SOL    HW232953  11.580   3.258   6.823
43686SOL     OW32954  12.171   7.222  11.874
43686SOL    HW132955  12.143   7.134  11.846
43686SOL    HW232956  12.147   7.226  11.966
43687SOL     OW32957  10.995   4.958   7.118
43687SOL    HW132958  11.044   4.925   7.193
43687SOL    HW232959  10.904   4.957   7.147
43688SOL     OW32960   6.730   1.557   8.270
43688SOL    HW132961   6.799   1.623   8.269
43688SOL    HW232962   6.709   1.545   8.362
43689SOL     OW32963   1.135   3.722  10.341
43689SOL    HW132964   1.142   3.810  10.378
43689SOL    HW232965   1.140   3.734  10.247
43690SOL     OW32966   4.553   4.105   4.010
43690SOL    HW132967   4.647   4.102   3.992
43690SOL    HW232968   4.515   4.040   3.950
43691SOL     OW32969   0.928   6.036   7.131
43691SOL    HW132970   0.964   6.008   7.215
43691SOL    HW232971   1.004   6.070   7.083
43692SOL     OW32972  13.007   3.542  13.646
43692SOL    HW132973  13.069   3.570  13.714
43692SOL    HW232974  12.924   3.531  13.693
43693SOL     OW32975   8.008   6.646  13.087
43693SOL    HW132976   8.091   6.692  13.070
43693SOL    HW232977   8.035   6.566  13.134
43694SOL     OW32978   7.576  11.157   7.046
43694SOL    HW132979   7.619  11.200   6.972
43694SOL    HW232980   7.588  11.063   7.030
43695SOL     OW32981   1.133   3.419   1.676
43695SOL    HW132982   1.209   3.393   1.727
43695SOL    HW232983   1.059   3.374   1.717
43696SOL     OW32984   3.079   3.890   8.746
43696SOL    HW132985   3.150   3.851   8.694
43696SOL    HW232986   3.066   3.829   8.818
43697SOL     OW32987   9.917  11.551   8.266
43697SOL    HW132988   9.931  11.645   8.252
43697SOL    HW232989   9.823  11.540   8.256
43698SOL     OW32990   5.014   1.559   2.333
43698SOL    HW132991   4.999   1.614   2.256
43698SOL    HW232992   4.926   1.541   2.366
43699SOL     OW32993  13.313   4.103  12.086
43699SOL    HW132994  13.253   4.170  12.119
43699SOL    HW232995  13.255   4.037  12.047
43700SOL     OW32996   3.920  14.228  14.089
43700SOL    HW132997   3.861  14.254  14.018
43700SOL    HW232998   3.984  14.170  14.047
43701SOL     OW32999   9.284   7.619   5.224
43701SOL    HW133000   9.200   7.658   5.247
43701SOL    HW233001   9.347   7.660   5.283
43702SOL     OW33002   1.051   9.966  12.232
43702SOL    HW133003   0.978   9.982  12.293
43702SOL    HW233004   1.024   9.889  12.182
43703SOL     OW33005  12.422  11.814   0.850
43703SOL    HW133006  12.507  11.827   0.808
43703SOL    HW233007  12.431  11.731   0.897
43704SOL     OW33008   9.523  11.034   3.960
43704SOL    HW133009   9.438  11.075   3.974
43704SOL    HW233010   9.586  11.092   4.002
43705SOL     OW33011   3.200   5.944  10.723
43705SOL    HW133012   3.146   5.887  10.668
43705SOL    HW233013   3.289   5.913  10.710
43706SOL     OW33014  13.941   7.330   8.200
43706SOL    HW133015  13.897   7.318   8.116
43706SOL    HW233016  14.031   7.355   8.176
43707SOL     OW33017   8.165   1.734   9.853
43707SOL    HW133018   8.168   1.777   9.939
43707SOL    HW233019   8.200   1.646   9.870
43708SOL     OW33020  13.927   8.840  11.021
43708SOL    HW133021  13.883   8.860  10.938
43708SOL    HW233022  13.856   8.813  11.080
43709SOL     OW33023   7.247   9.944  12.838
43709SOL    HW133024   7.288  10.024  12.872
43709SOL    HW233025   7.319   9.894  12.801
43710SOL     OW33026   3.143   5.460  11.353
43710SOL    HW133027   3.193   5.385  11.321
43710SOL    HW233028   3.093   5.490  11.277
43711SOL     OW33029   7.429   2.987   0.024
43711SOL    HW133030   7.451   2.898  14.863
43711SOL    HW233031   7.487   3.043  14.841
43712SOL     OW33032  11.827  14.547   2.775
43712SOL    HW133033  11.908  14.499   2.757
43712SOL    HW233034  11.847  14.638   2.752
43713SOL     OW33035   8.863   8.669   3.453
43713SOL    HW133036   8.934   8.695   3.394
43713SOL    HW233037   8.831   8.751   3.490
43714SOL     OW33038   6.048   1.320   3.386
43714SOL    HW133039   6.047   1.270   3.304
43714SOL    HW233040   6.105   1.269   3.444
43715SOL     OW33041  12.679   2.958   3.405
43715SOL    HW133042  12.599   2.957   3.353
43715SOL    HW233043  12.668   3.030   3.466
43716SOL     OW33044   5.546  10.392  13.530
43716SOL    HW133045   5.558  10.298  13.518
43716SOL    HW233046   5.464  10.412  13.487
43717SOL     OW33047   8.730  12.616  14.224
43717SOL    HW133048   8.722  12.523  14.201
43717SOL    HW233049   8.802  12.618  14.288
43718SOL     OW33050   0.311  12.563   7.123
43718SOL    HW133051   0.377  12.534   7.060
43718SOL    HW233052   0.336  12.520   7.205
43719SOL     OW33053   8.675   6.796   4.425
43719SOL    HW133054   8.669   6.858   4.352
43719SOL    HW233055   8.653   6.848   4.503
43720SOL     OW33056  14.543   8.204   4.336
43720SOL    HW133057  14.509   8.135   4.393
43720SOL    HW233058  14.465   8.251   4.306
43721SOL     OW33059  12.831   5.874   9.748
43721SOL    HW133060  12.788   5.918   9.821
43721SOL    HW233061  12.785   5.791   9.739
43722SOL     OW33062   4.391  10.358   6.129
43722SOL    HW133063   4.475  10.313   6.135
43722SOL    HW233064   4.355  10.332   6.044
43723SOL     OW33065   1.456   3.099   1.751
43723SOL    HW133066   1.463   3.186   1.711
43723SOL    HW233067   1.488   3.039   1.684
43724SOL     OW33068  12.120   6.310   6.105
43724SOL    HW133069  12.032   6.343   6.123
43724SOL    HW233070  12.151   6.277   6.189
43725SOL     OW33071  12.770   1.576  10.255
43725SOL    HW133072  12.793   1.597  10.345
43725SOL    HW233073  12.676   1.591  10.250
43726SOL     OW33074   1.902  10.340  14.077
43726SOL    HW133075   1.892  10.246  14.062
43726SOL    HW233076   1.813  10.373  14.086
43727SOL     OW33077   3.047   1.007  11.014
43727SOL    HW133078   2.959   0.990  11.047
43727SOL    HW233079   3.050   1.102  11.001
43728SOL     OW33080   4.078  12.802   5.802
43728SOL    HW133081   4.085  12.878   5.859
43728SOL    HW233082   4.127  12.733   5.848
43729SOL     OW33083   2.197   3.476   8.810
43729SOL    HW133084   2.118   3.515   8.775
43729SOL    HW233085   2.266   3.502   8.749
43730SOL     OW33086   7.473   8.183   7.426
43730SOL    HW133087   7.379   8.176   7.411
43730SOL    HW233088   7.512   8.127   7.359
43731SOL     OW33089  10.827  13.758   8.679
43731SOL    HW133090  10.848  13.815   8.605
43731SOL    HW233091  10.911  13.744   8.722
43732SOL     OW33092   9.606   2.920  13.601
43732SOL    HW133093   9.608   2.827  13.578
43732SOL    HW233094   9.573   2.922  13.690
43733SOL     OW33095  12.984   6.944   7.372
43733SOL    HW133096  12.919   6.880   7.401
43733SOL    HW233097  13.031   6.968   7.452
43734SOL     OW33098   2.474   0.728  10.195
43734SOL    HW133099   2.527   0.681  10.259
43734SOL    HW233100   2.396   0.756  10.245
43735SOL     OW33101   4.887   2.990   0.770
43735SOL    HW133102   4.826   3.024   0.835
43735SOL    HW233103   4.865   2.897   0.762
43736SOL     OW33104  12.952   8.366  10.185
43736SOL    HW133105  12.961   8.275  10.213
43736SOL    HW233106  12.901   8.407  10.254
43737SOL     OW33107  11.283   0.237   8.813
43737SOL    HW133108  11.370   0.256   8.849
43737SOL    HW233109  11.233   0.203   8.888
43738SOL     OW33110   1.768  14.502   4.424
43738SOL    HW133111   1.847  14.452   4.443
43738SOL    HW233112   1.696  14.446   4.451
43739SOL     OW33113   2.784   1.204   6.128
43739SOL    HW133114   2.692   1.214   6.155
43739SOL    HW233115   2.831   1.269   6.181
43740SOL     OW33116   9.116  14.474  10.369
43740SOL    HW133117   9.056  14.402  10.352
43740SOL    HW233118   9.191  14.433  10.413
43741SOL     OW33119   0.679   6.231  12.668
43741SOL    HW133120   0.704   6.313  12.711
43741SOL    HW233121   0.718   6.237  12.581
43742SOL     OW33122   4.442   6.704   7.925
43742SOL    HW133123   4.371   6.688   7.986
43742SOL    HW233124   4.495   6.771   7.967
43743SOL     OW33125  12.027   3.227   2.666
43743SOL    HW133126  11.945   3.277   2.665
43743SOL    HW233127  12.083   3.272   2.603
43744SOL     OW33128  13.372  10.872  13.362
43744SOL    HW133129  13.323  10.954  13.352
43744SOL    HW233130  13.361  10.827  13.279
43745SOL     OW33131  10.233   2.302  12.195
43745SOL    HW133132  10.247   2.311  12.289
43745SOL    HW233133  10.235   2.391  12.161
43746SOL     OW33134   3.973  14.857   1.205
43746SOL    HW133135   3.998   0.037   1.283
43746SOL    HW233136   3.912   0.047   1.159
43747SOL     OW33137   5.164   1.441   7.506
43747SOL    HW133138   5.159   1.348   7.527
43747SOL    HW233139   5.120   1.485   7.579
43748SOL     OW33140   2.561   0.236   5.559
43748SOL    HW133141   2.566   0.158   5.505
43748SOL    HW233142   2.592   0.207   5.645
43749SOL     OW33143   6.081   6.379   4.400
43749SOL    HW133144   6.038   6.449   4.450
43749SOL    HW233145   6.167   6.370   4.441
43750SOL     OW33146  13.318   4.520   5.568
43750SOL    HW133147  13.248   4.579   5.539
43750SOL    HW233148  13.300   4.438   5.521
43751SOL     OW33149   7.592   1.298   6.130
43751SOL    HW133150   7.545   1.242   6.191
43751SOL    HW233151   7.545   1.381   6.133
43752SOL     OW33152   6.150   3.534  10.096
43752SOL    HW133153   6.184   3.623  10.084
43752SOL    HW233154   6.058   3.540  10.069
43753SOL     OW33155   0.850  13.050   1.209
43753SOL    HW133156   0.933  13.097   1.205
43753SOL    HW233157   0.839  13.015   1.120
43754SOL     OW33158  12.153   9.814   1.743
43754SOL    HW133159  12.202   9.742   1.782
43754SOL    HW233160  12.122   9.779   1.659
43755SOL     OW33161   4.726   1.790   8.577
43755SOL    HW133162   4.762   1.728   8.640
43755SOL    HW233163   4.671   1.736   8.520
43756SOL     OW33164   6.954   2.197   2.838
43756SOL    HW133165   6.899   2.121   2.822
43756SOL    HW233166   6.971   2.233   2.751
43757SOL     OW33167   9.552   6.000  12.694
43757SOL    HW133168   9.562   6.053  12.773
43757SOL    HW233169   9.530   6.063  12.625
43758SOL     OW33170   6.528   3.240   5.055
43758SOL    HW133171   6.534   3.334   5.037
43758SOL    HW233172   6.506   3.201   4.970
43759SOL     OW33173   5.877   5.620  12.793
43759SOL    HW133174   5.821   5.680  12.743
43759SOL    HW233175   5.829   5.537  12.793
43760SOL     OW33176  11.423   8.902   2.150
43760SOL    HW133177  11.502   8.867   2.192
43760SOL    HW233178  11.426   8.996   2.169
43761SOL     OW33179   7.832  13.309   6.419
43761SOL    HW133180   7.824  13.313   6.514
43761SOL    HW233181   7.806  13.396   6.389
43762SOL     OW33182   5.782   1.120   0.489
43762SOL    HW133183   5.842   1.181   0.533
43762SOL    HW233184   5.831   1.038   0.483
43763SOL     OW33185   6.771  12.420   9.301
43763SOL    HW133186   6.794  12.331   9.330
43763SOL    HW233187   6.758  12.468   9.382
43764SOL     OW33188   6.741  13.670   1.085
43764SOL    HW133189   6.708  13.741   1.029
43764SOL    HW233190   6.836  13.681   1.083
43765SOL     OW33191   2.938  12.529   6.701
43765SOL    HW133192   2.987  12.601   6.740
43765SOL    HW233193   2.993  12.452   6.714
43766SOL     OW33194   7.518   7.211   9.360
43766SOL    HW133195   7.596   7.253   9.397
43766SOL    HW233196   7.535   7.207   9.266
43767SOL     OW33197   1.551   4.604   0.549
43767SOL    HW133198   1.612   4.530   0.556
43767SOL    HW233199   1.538   4.633   0.639
43768SOL     OW33200   3.380  14.701  11.378
43768SOL    HW133201   3.310  14.765  11.394
43768SOL    HW233202   3.352  14.623  11.425
43769SOL     OW33203   4.033   5.257  14.154
43769SOL    HW133204   4.000   5.335  14.198
43769SOL    HW233205   4.037   5.281  14.062
43770SOL     OW33206   2.574  13.021   7.509
43770SOL    HW133207   2.644  13.056   7.565
43770SOL    HW233208   2.533  12.953   7.562
43771SOL     OW33209  10.429  10.550   5.633
43771SOL    HW133210  10.485  10.474   5.617
43771SOL    HW233211  10.341  10.513   5.641
43772SOL     OW33212   2.306  10.357  11.228
43772SOL    HW133213   2.264  10.410  11.295
43772SOL    HW233214   2.338  10.280  11.275
43773SOL     OW33215  14.070   2.856   5.689
43773SOL    HW133216  14.147   2.850   5.744
43773SOL    HW233217  14.022   2.932   5.722
43774SOL     OW33218   6.554   3.742  11.102
43774SOL    HW133219   6.551   3.720  11.009
43774SOL    HW233220   6.470   3.785  11.119
43775SOL     OW33221   5.493  11.672   4.211
43775SOL    HW133222   5.457  11.759   4.194
43775SOL    HW233223   5.478  11.623   4.130
43776SOL     OW33224  14.479  11.958   2.952
43776SOL    HW133225  14.436  11.873   2.965
43776SOL    HW233226  14.528  11.948   2.871
43777SOL     OW33227   7.990   9.370   9.941
43777SOL    HW133228   7.947   9.448   9.976
43777SOL    HW233229   7.967   9.300  10.002
43778SOL     OW33230   5.093   9.114   6.023
43778SOL    HW133231   5.003   9.086   6.038
43778SOL    HW233232   5.085   9.202   5.985
43779SOL     OW33233  12.827   8.119   7.029
43779SOL    HW133234  12.733   8.130   7.039
43779SOL    HW233235  12.848   8.159   6.945
43780SOL     OW33236   1.078   6.634  13.343
43780SOL    HW133237   1.145   6.685  13.298
43780SOL    HW233238   1.120   6.606  13.424
43781SOL     OW33239   9.881   1.871  14.670
43781SOL    HW133240   9.862   1.854  14.763
43781SOL    HW233241   9.818   1.938  14.644
43782SOL     OW33242  12.079  13.460  11.274
43782SOL    HW133243  12.080  13.489  11.365
43782SOL    HW233244  12.022  13.524  11.229
43783SOL     OW33245  12.388  13.898  10.471
43783SOL    HW133246  12.314  13.910  10.529
43783SOL    HW233247  12.398  13.803  10.462
43784SOL     OW33248  12.955  12.283   5.085
43784SOL    HW133249  12.884  12.277   5.149
43784SOL    HW233250  13.026  12.231   5.122
43785SOL     OW33251  10.485  14.393   2.278
43785SOL    HW133252  10.509  14.404   2.370
43785SOL    HW233253  10.452  14.304   2.272
43786SOL     OW33254   1.747   2.542   9.098
43786SOL    HW133255   1.819   2.496   9.141
43786SOL    HW233256   1.774   2.549   9.006
43787SOL     OW33257   6.855   5.239   1.517
43787SOL    HW133258   6.875   5.170   1.581
43787SOL    HW233259   6.762   5.229   1.499
43788SOL     OW33260   5.058   1.824   6.762
43788SOL    HW133261   5.077   1.730   6.763
43788SOL    HW233262   5.086   1.853   6.675
43789SOL     OW33263   2.698  10.423   2.211
43789SOL    HW133264   2.793  10.414   2.220
43789SOL    HW233265   2.676  10.502   2.260
43790SOL     OW33266  14.680  14.827   8.517
43790SOL    HW133267  14.775  14.827   8.530
43790SOL    HW233268  14.666   0.028   8.451
43791SOL     OW33269   0.635  12.034   2.971
43791SOL    HW133270   0.640  12.032   3.066
43791SOL    HW233271   0.725  12.049   2.943
43792SOL     OW33272   0.342   4.569   2.524
43792SOL    HW133273   0.368   4.610   2.606
43792SOL    HW233274   0.420   4.573   2.469
43793SOL     OW33275   0.015   2.296   2.841
43793SOL    HW133276   0.022   2.391   2.833
43793SOL    HW233277  14.832   2.282   2.921
43794SOL     OW33278   3.165   4.174  13.528
43794SOL    HW133279   3.154   4.258  13.572
43794SOL    HW233280   3.147   4.108  13.595
43795SOL     OW33281   5.171   6.934  10.646
43795SOL    HW133282   5.107   6.994  10.685
43795SOL    HW233283   5.151   6.849  10.687
43796SOL     OW33284  13.846   3.221   3.382
43796SOL    HW133285  13.928   3.202   3.429
43796SOL    HW233286  13.841   3.153   3.315
43797SOL     OW33287  13.194   0.500   4.050
43797SOL    HW133288  13.234   0.414   4.054
43797SOL    HW233289  13.141   0.499   3.970
43798SOL     OW33290   5.168   9.423   2.743
43798SOL    HW133291   5.226   9.349   2.727
43798SOL    HW233292   5.083   9.384   2.762
43799SOL     OW33293   6.561  13.128  13.861
43799SOL    HW133294   6.577  13.034  13.867
43799SOL    HW233295   6.567  13.147  13.767
43800SOL     OW33296   2.383  14.227  11.115
43800SOL    HW133297   2.364  14.247  11.207
43800SOL    HW233298   2.405  14.134  11.116
43801SOL     OW33299   4.409   6.829   2.031
43801SOL    HW133300   4.338   6.807   2.091
43801SOL    HW233301   4.461   6.749   2.024
43802SOL     OW33302   5.999   4.335   8.726
43802SOL    HW133303   5.936   4.395   8.768
43802SOL    HW233304   6.073   4.332   8.787
43803SOL     OW33305   4.501   5.632  11.018
43803SOL    HW133306   4.585   5.599  11.050
43803SOL    HW233307   4.460   5.672  11.095
43804SOL     OW33308  13.433  10.090   5.508
43804SOL    HW133309  13.405  10.115   5.597
43804SOL    HW233310  13.360  10.115   5.452
43805SOL     OW33311   5.825   7.070   0.905
43805SOL    HW133312   5.790   7.123   0.833
43805SOL    HW233313   5.840   7.133   0.976
43806SOL     OW33314   2.499   1.552   1.814
43806SOL    HW133315   2.461   1.640   1.809
43806SOL    HW233316   2.456   1.503   1.744
43807SOL     OW33317   0.392  10.546   7.304
43807SOL    HW133318   0.322  10.492   7.266
43807SOL    HW233319   0.417  10.606   7.234
43808SOL     OW33320   4.742   9.018  10.570
43808SOL    HW133321   4.676   8.979  10.514
43808SOL    HW233322   4.711   9.107  10.586
43809SOL     OW33323   2.774   0.798   6.325
43809SOL    HW133324   2.789   0.844   6.407
43809SOL    HW233325   2.692   0.835   6.292
43810SOL     OW33326   7.720  12.295  12.356
43810SOL    HW133327   7.715  12.323  12.447
43810SOL    HW233328   7.634  12.318  12.320
43811SOL     OW33329   7.311  13.449  10.015
43811SOL    HW133330   7.344  13.451  10.105
43811SOL    HW233331   7.329  13.360   9.985
43812SOL     OW33332  10.562  12.499  11.146
43812SOL    HW133333  10.525  12.588  11.149
43812SOL    HW233334  10.546  12.470  11.056
43813SOL     OW33335   3.011   3.573   7.007
43813SOL    HW133336   3.055   3.607   7.085
43813SOL    HW233337   2.952   3.643   6.981
43814SOL     OW33338   2.023  13.320   8.799
43814SOL    HW133339   1.959  13.319   8.870
43814SOL    HW233340   1.988  13.258   8.734
43815SOL     OW33341   6.232   9.640   1.287
43815SOL    HW133342   6.319   9.680   1.279
43815SOL    HW233343   6.244   9.551   1.256
43816SOL     OW33344   9.171  11.913   6.798
43816SOL    HW133345   9.136  11.963   6.724
43816SOL    HW233346   9.266  11.910   6.782
43817SOL     OW33347   5.342   9.023   4.706
43817SOL    HW133348   5.346   9.051   4.797
43817SOL    HW233349   5.308   9.098   4.658
43818SOL     OW33350  11.050   7.005   8.956
43818SOL    HW133351  11.021   6.924   8.998
43818SOL    HW233352  10.969   7.053   8.936
43819SOL     OW33353  11.548  10.973  10.777
43819SOL    HW133354  11.592  10.956  10.860
43819SOL    HW233355  11.542  11.069  10.773
43820SOL     OW33356  11.805   0.375  12.616
43820SOL    HW133357  11.834   0.393  12.705
43820SOL    HW233358  11.885   0.358  12.566
43821SOL     OW33359  10.499   9.222   5.528
43821SOL    HW133360  10.515   9.313   5.554
43821SOL    HW233361  10.540   9.214   5.442
43822SOL     OW33362   6.832   5.020   7.393
43822SOL    HW133363   6.861   5.111   7.396
43822SOL    HW233364   6.737   5.025   7.392
43823SOL     OW33365   8.969  13.999  10.911
43823SOL    HW133366   9.042  13.966  10.859
43823SOL    HW233367   8.946  13.926  10.969
43824SOL     OW33368   0.587   6.960   4.244
43824SOL    HW133369   0.628   6.875   4.264
43824SOL    HW233370   0.566   6.996   4.330
43825SOL     OW33371  10.011  12.202   2.413
43825SOL    HW133372  10.019  12.156   2.496
43825SOL    HW233373   9.946  12.152   2.364
43826SOL     OW33374  13.724  10.053   3.785
43826SOL    HW133375  13.679  10.002   3.718
43826SOL    HW233376  13.772  10.121   3.737
43827SOL     OW33377   6.599   6.682   9.145
43827SOL    HW133378   6.652   6.753   9.109
43827SOL    HW233379   6.509   6.709   9.129
43828SOL     OW33380  14.571  14.373   5.206
43828SOL    HW133381  14.572  14.445   5.270
43828SOL    HW233382  14.479  14.368   5.178
43829SOL     OW33383  10.519   4.574  12.625
43829SOL    HW133384  10.437   4.536  12.655
43829SOL    HW233385  10.577   4.569  12.702
43830SOL     OW33386   9.390   1.069   3.723
43830SOL    HW133387   9.326   1.137   3.703
43830SOL    HW233388   9.369   0.997   3.664
43831SOL     OW33389   5.916  12.179  13.930
43831SOL    HW133390   5.963  12.134  13.860
43831SOL    HW233391   5.827  12.144  13.927
43832SOL     OW33392   7.828  13.287  12.543
43832SOL    HW133393   7.921  13.310  12.545
43832SOL    HW233394   7.813  13.257  12.453
43833SOL     OW33395   7.804   3.086  14.188
43833SOL    HW133396   7.892   3.069  14.220
43833SOL    HW233397   7.764   3.142  14.255
43834SOL     OW33398   2.163   4.553  10.266
43834SOL    HW133399   2.257   4.555  10.279
43834SOL    HW233400   2.142   4.636  10.225
43835SOL     OW33401   3.338   3.305  14.751
43835SOL    HW133402   3.377   3.268  14.672
43835SOL    HW233403   3.250   3.268  14.755
43836SOL     OW33404   1.180   6.794   2.889
43836SOL    HW133405   1.205   6.886   2.898
43836SOL    HW233406   1.246   6.758   2.829
43837SOL     OW33407  10.391   6.164  11.618
43837SOL    HW133408  10.449   6.220  11.566
43837SOL    HW233409  10.439   6.148  11.699
43838SOL     OW33410  14.010   8.353  10.447
43838SOL    HW133411  14.009   8.357  10.543
43838SOL    HW233412  14.076   8.417  10.421
43839SOL     OW33413  13.355   1.872   3.965
43839SOL    HW133414  13.358   1.918   3.881
43839SOL    HW233415  13.446   1.845   3.981
43840SOL     OW33416   9.989   9.184   4.275
43840SOL    HW133417  10.064   9.179   4.215
43840SOL    HW233418  10.025   9.222   4.355
43841SOL     OW33419  11.432   4.217  11.246
43841SOL    HW133420  11.500   4.211  11.313
43841SOL    HW233421  11.396   4.305  11.256
43842SOL     OW33422  11.885  10.688   9.073
43842SOL    HW133423  11.854  10.604   9.038
43842SOL    HW233424  11.934  10.666   9.151
43843SOL     OW33425   9.672   5.721  12.379
43843SOL    HW133426   9.584   5.684  12.393
43843SOL    HW233427   9.688   5.708  12.285
43844SOL     OW33428   8.257  14.180   9.070
43844SOL    HW133429   8.256  14.222   8.984
43844SOL    HW233430   8.256  14.252   9.132
43845SOL     OW33431   8.653  10.119   5.833
43845SOL    HW133432   8.589  10.170   5.783
43845SOL    HW233433   8.601  10.049   5.873
43846SOL     OW33434  11.186   0.505   9.874
43846SOL    HW133435  11.240   0.453   9.814
43846SOL    HW233436  11.116   0.541   9.820
43847SOL     OW33437   2.515   1.922   3.924
43847SOL    HW133438   2.604   1.946   3.899
43847SOL    HW233439   2.526   1.850   3.987
43848SOL     OW33440   4.131   5.528   3.439
43848SOL    HW133441   4.082   5.477   3.503
43848SOL    HW233442   4.217   5.486   3.436
43849SOL     OW33443   0.741   9.339  12.716
43849SOL    HW133444   0.764   9.290  12.795
43849SOL    HW233445   0.686   9.280  12.665
43850SOL     OW33446   8.639   6.272  14.250
43850SOL    HW133447   8.574   6.325  14.296
43850SOL    HW233448   8.688   6.228  14.319
43851SOL     OW33449   6.705   3.472   1.866
43851SOL    HW133450   6.620   3.428   1.866
43851SOL    HW233451   6.750   3.435   1.942
43852SOL     OW33452   6.424   1.225   9.754
43852SOL    HW133453   6.455   1.139   9.783
43852SOL    HW233454   6.362   1.206   9.684
43853SOL     OW33455   5.503  10.399   9.007
43853SOL    HW133456   5.563  10.330   8.977
43853SOL    HW233457   5.479  10.446   8.927
43854SOL     OW33458   2.072   6.145  13.087
43854SOL    HW133459   1.992   6.195  13.103
43854SOL    HW233460   2.071   6.126  12.994
43855SOL     OW33461   9.494   1.104  12.132
43855SOL    HW133462   9.459   1.134  12.216
43855SOL    HW233463   9.507   1.185  12.082
43856SOL     OW33464   0.782  10.843   3.431
43856SOL    HW133465   0.863  10.793   3.424
43856SOL    HW233466   0.804  10.929   3.396
43857SOL     OW33467   6.064   8.888   5.142
43857SOL    HW133468   6.092   8.808   5.098
43857SOL    HW233469   6.108   8.885   5.228
43858SOL     OW33470   9.737  10.998  10.412
43858SOL    HW133471   9.764  11.052  10.339
43858SOL    HW233472   9.805  10.930  10.419
43859SOL     OW33473   0.395   3.587  14.449
43859SOL    HW133474   0.434   3.527  14.513
43859SOL    HW233475   0.465   3.648  14.426
43860SOL     OW33476   9.902   3.991  12.032
43860SOL    HW133477   9.986   3.947  12.044
43860SOL    HW233478   9.843   3.922  12.004
43861SOL     OW33479   6.119  11.934  14.865
43861SOL    HW133480   6.141  11.954   0.088
43861SOL    HW233481   6.026  11.953  14.857
43862SOL     OW33482   8.511   6.382   7.133
43862SOL    HW133483   8.417   6.369   7.117
43862SOL    HW233484   8.517   6.471   7.166
43863SOL     OW33485  12.867  10.526  13.965
43863SOL    HW133486  12.882  10.531  13.871
43863SOL    HW233487  12.951  10.498  14.001
43864SOL     OW33488  13.136   9.902  11.812
43864SOL    HW133489  13.104   9.817  11.841
43864SOL    HW233490  13.230   9.889  11.798
43865SOL     OW33491   4.310   2.534   1.666
43865SOL    HW133492   4.253   2.598   1.709
43865SOL    HW233493   4.373   2.587   1.616
43866SOL     OW33494   3.431   0.971   3.589
43866SOL    HW133495   3.422   0.897   3.649
43866SOL    HW233496   3.354   0.965   3.532
43867SOL     OW33497  14.376   8.293  11.030
43867SOL    HW133498  14.347   8.255  11.113
43867SOL    HW233499  14.440   8.360  11.056
43868SOL     OW33500   6.813   9.711   1.676
43868SOL    HW133501   6.779   9.763   1.603
43868SOL    HW233502   6.906   9.700   1.656
43869SOL     OW33503  12.034   3.890   7.921
43869SOL    HW133504  12.068   3.979   7.931
43869SOL    HW233505  11.994   3.889   7.834
43870SOL     OW33506  13.104   5.262   6.243
43870SOL    HW133507  13.014   5.285   6.265
43870SOL    HW233508  13.142   5.343   6.210
43871SOL     OW33509   6.789  10.057   0.374
43871SOL    HW133510   6.856  10.089   0.314
43871SOL    HW233511   6.711  10.046   0.320
43872SOL     OW33512   2.786  12.306   2.811
43872SOL    HW133513   2.751  12.285   2.897
43872SOL    HW233514   2.878  12.327   2.827
43873SOL     OW33515   0.398   9.957  12.079
43873SOL    HW133516   0.411  10.049  12.103
43873SOL    HW233517   0.457   9.942  12.005
43874SOL     OW33518  14.666   4.720  13.356
43874SOL    HW133519  14.754   4.682  13.351
43874SOL    HW233520  14.644   4.742  13.265
43875SOL     OW33521   5.811   9.543  13.670
43875SOL    HW133522   5.789   9.484  13.742
43875SOL    HW233523   5.768   9.505  13.594
43876SOL     OW33524   6.768   1.105  13.580
43876SOL    HW133525   6.806   1.140  13.661
43876SOL    HW233526   6.732   1.020  13.605
43877SOL     OW33527   9.469  14.251   3.278
43877SOL    HW133528   9.532  14.303   3.329
43877SOL    HW233529   9.522  14.211   3.209
43878SOL     OW33530   0.095   0.073   7.726
43878SOL    HW133531   0.054   0.153   7.758
43878SOL    HW233532   0.153   0.045   7.797
43879SOL     OW33533   6.411  11.439   1.577
43879SOL    HW133534   6.354  11.477   1.645
43879SOL    HW233535   6.449  11.515   1.533
43880SOL     OW33536   7.105   5.175  13.271
43880SOL    HW133537   7.174   5.218  13.322
43880SOL    HW233538   7.025   5.197  13.317
43881SOL     OW33539   6.265   9.393   1.132
43881SOL    HW133540   6.355   9.361   1.137
43881SOL    HW233541   6.212   9.322   1.169
43882SOL     OW33542  11.777   7.298  13.526
43882SOL    HW133543  11.736   7.252  13.599
43882SOL    HW233544  11.837   7.234  13.488
43883SOL     OW33545  12.058  10.363   5.393
43883SOL    HW133546  12.135  10.325   5.437
43883SOL    HW233547  12.013  10.288   5.354
43884SOL     OW33548  13.180  11.037   5.137
43884SOL    HW133549  13.255  11.030   5.196
43884SOL    HW233550  13.111  11.076   5.191
43885SOL     OW33551   4.893  10.974  12.827
43885SOL    HW133552   4.982  10.938  12.822
43885SOL    HW233553   4.901  11.048  12.888
43886SOL     OW33554  13.023   0.361  13.995
43886SOL    HW133555  12.978   0.424  14.051
43886SOL    HW233556  12.967   0.354  13.918
43887SOL     OW33557   5.093   6.536   1.555
43887SOL    HW133558   5.114   6.487   1.476
43887SOL    HW233559   5.058   6.470   1.616
43888SOL     OW33560  13.248   7.313   2.896
43888SOL    HW133561  13.272   7.317   2.988
43888SOL    HW233562  13.177   7.249   2.892
43889SOL     OW33563  14.230   7.495   8.795
43889SOL    HW133564  14.304   7.486   8.854
43889SOL    HW233565  14.254   7.566   8.736
43890SOL     OW33566   4.776  12.902   7.258
43890SOL    HW133567   4.813  12.850   7.186
43890SOL    HW233568   4.764  12.840   7.329
43891SOL     OW33569   5.283  14.858  10.725
43891SOL    HW133570   5.250   0.070  10.765
43891SOL    HW233571   5.264   0.000  10.632
43892SOL     OW33572  12.097  12.772  13.339
43892SOL    HW133573  12.111  12.701  13.402
43892SOL    HW233574  12.176  12.772  13.285
43893SOL     OW33575  12.914   7.349   7.421
43893SOL    HW133576  12.926   7.297   7.342
43893SOL    HW233577  12.821   7.341   7.441
43894SOL     OW33578   3.581   8.725   9.470
43894SOL    HW133579   3.554   8.805   9.425
43894SOL    HW233580   3.675   8.736   9.483
43895SOL     OW33581   9.862   7.620  14.164
43895SOL    HW133582   9.906   7.639  14.247
43895SOL    HW233583   9.805   7.695  14.150
43896SOL     OW33584   1.515   8.846   6.309
43896SOL    HW133585   1.436   8.814   6.264
43896SOL    HW233586   1.530   8.932   6.270
43897SOL     OW33587   8.632  12.948   7.625
43897SOL    HW133588   8.627  12.861   7.663
43897SOL    HW233589   8.588  13.004   7.689
43898SOL     OW33590  14.663   0.167   2.868
43898SOL    HW133591  14.744   0.124   2.840
43898SOL    HW233592  14.633   0.116   2.943
43899SOL     OW33593   9.888   5.502  10.746
43899SOL    HW133594   9.938   5.567  10.796
43899SOL    HW233595   9.802   5.542  10.735
43900SOL     OW33596  10.191  12.989   0.430
43900SOL    HW133597  10.213  13.082   0.435
43900SOL    HW233598  10.265  12.949   0.384
43901SOL     OW33599   2.067   6.827   0.880
43901SOL    HW133600   1.999   6.805   0.817
43901SOL    HW233601   2.021   6.830   0.964
43902SOL     OW33602   9.867  10.642   8.511
43902SOL    HW133603   9.943  10.663   8.566
43902SOL    HW233604   9.812  10.720   8.515
43903SOL     OW33605   0.973   5.639  12.053
43903SOL    HW133606   0.960   5.578  12.126
43903SOL    HW233607   1.019   5.713  12.092
43904SOL     OW33608   3.544   4.114   1.766
43904SOL    HW133609   3.507   4.027   1.746
43904SOL    HW233610   3.634   4.095   1.795
43905SOL     OW33611   1.976  11.735   4.277
43905SOL    HW133612   1.892  11.757   4.318
43905SOL    HW233613   1.952  11.685   4.199
43906SOL     OW33614   0.085   5.385  11.103
43906SOL    HW133615   0.168   5.338  11.111
43906SOL    HW233616   0.042   5.346  11.027
43907SOL     OW33617   1.569   0.488   3.473
43907SOL    HW133618   1.612   0.573   3.482
43907SOL    HW233619   1.567   0.452   3.561
43908SOL     OW33620   4.519   5.027  14.098
43908SOL    HW133621   4.608   4.998  14.081
43908SOL    HW233622   4.487   5.056  14.012
43909SOL     OW33623   0.399   5.842   0.808
43909SOL    HW133624   0.329   5.777   0.802
43909SOL    HW233625   0.444   5.836   0.724
43910SOL     OW33626   7.275   1.941   0.630
43910SOL    HW133627   7.284   1.853   0.664
43910SOL    HW233628   7.345   1.950   0.565
43911SOL     OW33629   8.896  13.741   4.661
43911SOL    HW133630   8.862  13.652   4.675
43911SOL    HW233631   8.850  13.773   4.584
43912SOL     OW33632   6.343  11.456   7.940
43912SOL    HW133633   6.393  11.467   8.021
43912SOL    HW233634   6.252  11.463   7.968
43913SOL     OW33635  12.623  11.633   1.507
43913SOL    HW133636  12.601  11.665   1.419
43913SOL    HW233637  12.578  11.549   1.514
43914SOL     OW33638  13.725   7.423   0.066
43914SOL    HW133639  13.753   7.361  14.866
43914SOL    HW233640  13.656   7.475   0.023
43915SOL     OW33641   9.527  11.829   8.539
43915SOL    HW133642   9.621  11.814   8.546
43915SOL    HW233643   9.503  11.795   8.454
43916SOL     OW33644  12.574   0.466  12.644
43916SOL    HW133645  12.615   0.551  12.660
43916SOL    HW233646  12.580   0.454  12.549
43917SOL     OW33647   7.210  14.567  14.843
43917SOL    HW133648   7.299  14.564   0.010
43917SOL    HW233649   7.154  14.551   0.050
43918SOL     OW33650   7.519   8.114   7.859
43918SOL    HW133651   7.549   8.028   7.889
43918SOL    HW233652   7.597   8.156   7.823
43919SOL     OW33653   0.401  10.874  13.144
43919SOL    HW133654   0.376  10.914  13.061
43919SOL    HW233655   0.393  10.944  13.208
43920SOL     OW33656   4.667  10.212  12.203
43920SOL    HW133657   4.642  10.304  12.210
43920SOL    HW233658   4.728  10.199  12.276
43921SOL     OW33659   2.273   5.358   0.083
43921SOL    HW133660   2.257   5.443   0.041
43921SOL    HW233661   2.273   5.295   0.011
43922SOL     OW33662   7.338  11.604  14.584
43922SOL    HW133663   7.398  11.645  14.522
43922SOL    HW233664   7.299  11.531  14.536
43923SOL     OW33665   8.512   6.126   5.702
43923SOL    HW133666   8.508   6.127   5.798
43923SOL    HW233667   8.439   6.181   5.675
43924SOL     OW33668  10.239   4.237   8.147
43924SOL    HW133669  10.275   4.235   8.236
43924SOL    HW233670  10.260   4.325   8.115
43925SOL     OW33671   6.956   4.354   3.284
43925SOL    HW133672   6.908   4.371   3.203
43925SOL    HW233673   6.939   4.431   3.339
43926SOL     OW33674   1.994   7.721   5.087
43926SOL    HW133675   2.062   7.669   5.044
43926SOL    HW233676   2.024   7.729   5.178
43927SOL     OW33677   5.414  10.284   2.615
43927SOL    HW133678   5.476  10.343   2.573
43927SOL    HW233679   5.340  10.339   2.640
43928SOL     OW33680   7.706   2.452   1.974
43928SOL    HW133681   7.702   2.520   1.907
43928SOL    HW233682   7.799   2.439   1.990
43929SOL     OW33683  13.228   3.450  14.790
43929SOL    HW133684  13.275   3.530  14.815
43929SOL    HW233685  13.275   3.380  14.834
43930SOL     OW33686   2.904   3.034   9.306
43930SOL    HW133687   2.907   3.105   9.370
43930SOL    HW233688   2.984   2.984   9.323
43931SOL     OW33689   0.102   9.742   4.635
43931SOL    HW133690   0.079   9.789   4.555
43931SOL    HW233691   0.105   9.650   4.608
43932SOL     OW33692  11.601   7.941   8.436
43932SOL    HW133693  11.507   7.925   8.426
43932SOL    HW233694  11.633   7.866   8.486
43933SOL     OW33695   2.075   0.584   7.961
43933SOL    HW133696   2.071   0.611   8.053
43933SOL    HW233697   2.166   0.596   7.936
43934SOL     OW33698   9.794   4.339   0.171
43934SOL    HW133699   9.862   4.304   0.230
43934SOL    HW233700   9.720   4.280   0.183
43935SOL     OW33701   3.654  11.620   9.992
43935SOL    HW133702   3.620  11.673   9.920
43935SOL    HW233703   3.581  11.564  10.016
43936SOL     OW33704   5.326  11.503   3.684
43936SOL    HW133705   5.305  11.410   3.698
43936SOL    HW233706   5.295  11.547   3.763
43937SOL     OW33707  12.132   7.514   1.766
43937SOL    HW133708  12.219   7.545   1.794
43937SOL    HW233709  12.095   7.472   1.844
43938SOL     OW33710   1.795   9.965  13.830
43938SOL    HW133711   1.750   9.885  13.800
43938SOL    HW233712   1.848   9.992  13.755
43939SOL     OW33713   8.699  11.840   4.839
43939SOL    HW133714   8.758  11.877   4.773
43939SOL    HW233715   8.719  11.747   4.840
43940SOL     OW33716   7.836  10.486  10.428
43940SOL    HW133717   7.871  10.557  10.483
43940SOL    HW233718   7.909  10.424  10.421
43941SOL     OW33719  13.660   9.439   0.280
43941SOL    HW133720  13.744   9.450   0.237
43941SOL    HW233721  13.629   9.528   0.297
43942SOL     OW33722   4.244  12.176   9.239
43942SOL    HW133723   4.223  12.233   9.313
43942SOL    HW233724   4.162  12.130   9.220
43943SOL     OW33725   9.994   7.809   6.027
43943SOL    HW133726   9.985   7.783   6.119
43943SOL    HW233727   9.988   7.727   5.979
43944SOL     OW33728   8.862   9.909   3.883
43944SOL    HW133729   8.866  10.002   3.904
43944SOL    HW233730   8.850   9.865   3.967
43945SOL     OW33731   8.921   7.098  13.138
43945SOL    HW133732   9.014   7.075  13.141
43945SOL    HW233733   8.908   7.156  13.214
43946SOL     OW33734   7.658   2.290  10.034
43946SOL    HW133735   7.576   2.330  10.062
43946SOL    HW233736   7.631   2.212   9.985
43947SOL     OW33737   5.640   3.799   6.877
43947SOL    HW133738   5.555   3.821   6.915
43947SOL    HW233739   5.640   3.842   6.792
43948SOL     OW33740   1.856  10.359   6.872
43948SOL    HW133741   1.778  10.370   6.927
43948SOL    HW233742   1.882  10.448   6.850
43949SOL     OW33743   1.033   6.586   2.989
43949SOL    HW133744   1.062   6.677   2.982
43949SOL    HW233745   0.985   6.570   2.908
43950SOL     OW33746   5.781   7.577   9.442
43950SOL    HW133747   5.766   7.641   9.511
43950SOL    HW233748   5.771   7.627   9.360
43951SOL     OW33749   8.883   3.111   2.893
43951SOL    HW133750   8.815   3.143   2.833
43951SOL    HW233751   8.948   3.181   2.895
43952SOL     OW33752   1.431   7.685   5.791
43952SOL    HW133753   1.398   7.774   5.801
43952SOL    HW233754   1.510   7.695   5.739
43953SOL     OW33755   3.405   4.311   0.711
43953SOL    HW133756   3.320   4.314   0.668
43953SOL    HW233757   3.386   4.292   0.803
43954SOL     OW33758  11.296   5.572   1.932
43954SOL    HW133759  11.225   5.541   1.877
43954SOL    HW233760  11.297   5.667   1.919
43955SOL     OW33761  13.947  10.132  10.531
43955SOL    HW133762  13.953  10.227  10.542
43955SOL    HW233763  14.031  10.107  10.492
43956SOL     OW33764  13.956   4.188  10.282
43956SOL    HW133765  13.990   4.201  10.193
43956SOL    HW233766  14.028   4.148  10.329
43957SOL     OW33767   9.499   2.289   8.029
43957SOL    HW133768   9.523   2.200   8.055
43957SOL    HW233769   9.499   2.288   7.933
43958SOL     OW33770   7.521   0.298   1.176
43958SOL    HW133771   7.458   0.241   1.220
43958SOL    HW233772   7.605   0.253   1.187
43959SOL     OW33773   5.037   2.577  14.741
43959SOL    HW133774   4.944   2.581  14.719
43959SOL    HW233775   5.046   2.631  14.819
43960SOL     OW33776  12.137   9.906   7.963
43960SOL    HW133777  12.056   9.951   7.984
43960SOL    HW233778  12.163   9.942   7.878
43961SOL     OW33779   0.296   8.831  10.665
43961SOL    HW133780   0.344   8.749  10.657
43961SOL    HW233781   0.297   8.868  10.577
43962SOL     OW33782   8.096   9.254   6.606
43962SOL    HW133783   8.148   9.173   6.609
43962SOL    HW233784   8.106   9.285   6.516
43963SOL     OW33785   3.183  11.733  12.159
43963SOL    HW133786   3.099  11.744  12.116
43963SOL    HW233787   3.222  11.821  12.157
43964SOL     OW33788   4.276   2.833  11.814
43964SOL    HW133789   4.188   2.867  11.801
43964SOL    HW233790   4.286   2.826  11.909
43965SOL     OW33791   1.250   3.203   1.904
43965SOL    HW133792   1.331   3.167   1.867
43965SOL    HW233793   1.275   3.231   1.992
43966SOL     OW33794   2.187   1.750   5.857
43966SOL    HW133795   2.231   1.712   5.782
43966SOL    HW233796   2.204   1.844   5.851
43967SOL     OW33797   9.571   4.360  14.518
43967SOL    HW133798   9.634   4.296  14.486
43967SOL    HW233799   9.536   4.321  14.598
43968SOL     OW33800   2.948   3.521   2.569
43968SOL    HW133801   2.960   3.433   2.605
43968SOL    HW233802   3.008   3.576   2.620
43969SOL     OW33803   7.807   0.216   6.465
43969SOL    HW133804   7.758   0.135   6.472
43969SOL    HW233805   7.890   0.191   6.425
43970SOL     OW33806  11.723   9.600   7.520
43970SOL    HW133807  11.768   9.553   7.450
43970SOL    HW233808  11.656   9.652   7.475
43971SOL     OW33809   7.695   4.132   4.787
43971SOL    HW133810   7.671   4.225   4.789
43971SOL    HW233811   7.700   4.110   4.694
43972SOL     OW33812   0.657   1.092   7.870
43972SOL    HW133813   0.684   1.150   7.799
43972SOL    HW233814   0.694   1.007   7.847
43973SOL     OW33815  11.993   9.741  10.673
43973SOL    HW133816  11.967   9.775  10.587
43973SOL    HW233817  11.911   9.717  10.715
43974SOL     OW33818  13.223   6.133   8.796
43974SOL    HW133819  13.276   6.177   8.863
43974SOL    HW233820  13.203   6.202   8.732
43975SOL     OW33821  11.713  14.547   0.297
43975SOL    HW133822  11.808  14.538   0.305
43975SOL    HW233823  11.678  14.502   0.374
43976SOL     OW33824   9.674  11.560   8.688
43976SOL    HW133825   9.730  11.620   8.637
43976SOL    HW233826   9.659  11.607   8.770
43977SOL     OW33827  10.652  12.476  13.761
43977SOL    HW133828  10.728  12.524  13.729
43977SOL    HW233829  10.686  12.388  13.781
43978SOL     OW33830  14.549   8.340  14.826
43978SOL    HW133831  14.534   8.261   0.010
43978SOL    HW233832  14.614   8.390   0.008
43979SOL     OW33833   8.466   4.746  12.138
43979SOL    HW133834   8.470   4.841  12.131
43979SOL    HW233835   8.435   4.729  12.227
43980SOL     OW33836   0.076   0.795   8.654
43980SOL    HW133837   0.029   0.806   8.571
43980SOL    HW233838   0.124   0.712   8.644
43981SOL     OW33839   6.799   7.152  10.336
43981SOL    HW133840   6.735   7.085  10.313
43981SOL    HW233841   6.850   7.165  10.256
43982SOL     OW33842   7.168   0.076   3.901
43982SOL    HW133843   7.165   0.164   3.938
43982SOL    HW233844   7.099   0.028   3.948
43983SOL     OW33845   8.675  12.613  12.862
43983SOL    HW133846   8.650  12.594  12.772
43983SOL    HW233847   8.604  12.668  12.895
43984SOL     OW33848  14.251   0.764   6.067
43984SOL    HW133849  14.223   0.801   5.984
43984SOL    HW233850  14.210   0.678   6.070
43985SOL     OW33851   6.262  11.237   6.361
43985SOL    HW133852   6.191  11.299   6.347
43985SOL    HW233853   6.248  11.203   6.449
43986SOL     OW33854   3.101   6.243   3.599
43986SOL    HW133855   3.105   6.261   3.693
43986SOL    HW233856   3.167   6.301   3.561
43987SOL     OW33857   8.424   4.260   7.458
43987SOL    HW133858   8.404   4.205   7.382
43987SOL    HW233859   8.339   4.290   7.490
43988SOL     OW33860  11.757   0.556  14.676
43988SOL    HW133861  11.678   0.579  14.726
43988SOL    HW233862  11.829   0.577  14.735
43989SOL     OW33863   2.836   4.701  13.032
43989SOL    HW133864   2.837   4.610  13.064
43989SOL    HW233865   2.924   4.714  12.995
43990SOL     OW33866   1.828   6.571   6.900
43990SOL    HW133867   1.898   6.566   6.965
43990SOL    HW233868   1.827   6.484   6.859
43991SOL     OW33869   9.255  14.509  13.847
43991SOL    HW133870   9.318  14.571  13.881
43991SOL    HW233871   9.305  14.454  13.787
43992SOL     OW33872   9.745  10.015   0.372
43992SOL    HW133873   9.798   9.967   0.436
43992SOL    HW233874   9.674   9.955   0.349
43993SOL     OW33875   7.440   1.496   4.451
43993SOL    HW133876   7.453   1.463   4.540
43993SOL    HW233877   7.528   1.523   4.423
43994SOL     OW33878   4.663   7.545   9.922
43994SOL    HW133879   4.672   7.463   9.971
43994SOL    HW233880   4.748   7.556   9.879
43995SOL     OW33881   7.764  10.091  13.647
43995SOL    HW133882   7.713  10.019  13.610
43995SOL    HW233883   7.791  10.143  13.572
43996SOL     OW33884   3.644   2.736  10.667
43996SOL    HW133885   3.551   2.724  10.650
43996SOL    HW233886   3.647   2.795  10.743
43997SOL     OW33887   8.310   8.840   9.194
43997SOL    HW133888   8.340   8.834   9.285
43997SOL    HW233889   8.317   8.751   9.160
43998SOL     OW33890   9.619   7.683  10.948
43998SOL    HW133891   9.652   7.706  11.034
43998SOL    HW233892   9.606   7.588  10.951
43999SOL     OW33893   3.415   8.873   6.629
43999SOL    HW133894   3.471   8.910   6.697
43999SOL    HW233895   3.476   8.841   6.563
44000SOL     OW33896   0.555  11.703   6.881
44000SOL    HW133897   0.589  11.777   6.932
44000SOL    HW233898   0.508  11.650   6.945
44001SOL     OW33899  12.030   7.082  13.761
44001SOL    HW133900  11.974   7.070  13.684
44001SOL    HW233901  12.117   7.054  13.732
44002SOL     OW33902  14.781   7.033  11.213
44002SOL    HW133903   0.006   7.019  11.195
44002SOL    HW233904  14.752   6.950  11.252
44003SOL     OW33905   0.644  13.938   9.642
44003SOL    HW133906   0.704  13.928   9.716
44003SOL    HW233907   0.562  13.966   9.681
44004SOL     OW33908   0.547  10.810  11.986
44004SOL    HW133909   0.559  10.901  12.012
44004SOL    HW233910   0.630  10.768  12.006
44005SOL     OW33911   8.576   0.873   4.649
44005SOL    HW133912   8.485   0.865   4.619
44005SOL    HW233913   8.570   0.863   4.744
44006SOL     OW33914  12.340  12.501   6.222
44006SOL    HW133915  12.334  12.411   6.255
44006SOL    HW233916  12.283  12.551   6.281
44007SOL     OW33917   9.523  13.478  12.443
44007SOL    HW133918   9.504  13.422  12.518
44007SOL    HW233919   9.529  13.417  12.369
44008SOL     OW33920  13.633   6.329   3.730
44008SOL    HW133921  13.605   6.265   3.665
44008SOL    HW233922  13.715   6.364   3.695
44009SOL     OW33923   1.703   2.285   0.099
44009SOL    HW133924   1.665   2.372   0.111
44009SOL    HW233925   1.720   2.278   0.005
44010SOL     OW33926   1.039   7.248   0.305
44010SOL    HW133927   0.973   7.269   0.239
44010SOL    HW233928   0.991   7.247   0.388
44011SOL     OW33929  14.033  12.296   9.991
44011SOL    HW133930  13.947  12.293   9.948
44011SOL    HW233931  14.093  12.259   9.927
44012SOL     OW33932  10.340   4.941  13.907
44012SOL    HW133933  10.408   5.003  13.934
44012SOL    HW233934  10.375   4.899  13.829
44013SOL     OW33935   2.353   6.241   7.448
44013SOL    HW133936   2.287   6.262   7.383
44013SOL    HW233937   2.321   6.161   7.490
44014SOL     OW33938  12.765   8.819   0.172
44014SOL    HW133939  12.825   8.834   0.098
44014SOL    HW233940  12.784   8.728   0.198
44015SOL     OW33941  11.880  14.455   7.937
44015SOL    HW133942  11.961  14.499   7.909
44015SOL    HW233943  11.910  14.379   7.987
44016SOL     OW33944   7.061   0.445   7.201
44016SOL    HW133945   7.122   0.419   7.270
44016SOL    HW233946   7.024   0.528   7.231
44017SOL     OW33947   1.999  12.746  12.078
44017SOL    HW133948   2.014  12.723  11.986
44017SOL    HW233949   2.013  12.664  12.126
44018SOL     OW33950   3.725   8.915   8.316
44018SOL    HW133951   3.811   8.917   8.358
44018SOL    HW233952   3.678   8.990   8.354
44019SOL     OW33953  11.139  12.243   1.683
44019SOL    HW133954  11.207  12.199   1.733
44019SOL    HW233955  11.115  12.319   1.736
44020SOL     OW33956   6.210   8.740   7.563
44020SOL    HW133957   6.217   8.645   7.565
44020SOL    HW233958   6.300   8.771   7.572
44021SOL     OW33959   7.415   5.996   5.819
44021SOL    HW133960   7.439   6.088   5.807
44021SOL    HW233961   7.339   5.983   5.763
44022SOL     OW33962   3.938  10.529   1.929
44022SOL    HW133963   4.010  10.581   1.894
44022SOL    HW233964   3.864  10.549   1.871
44023SOL     OW33965   7.462   6.746   7.735
44023SOL    HW133966   7.373   6.721   7.757
44023SOL    HW233967   7.514   6.722   7.812
44024SOL     OW33968  14.464  14.604  12.522
44024SOL    HW133969  14.428  14.530  12.473
44024SOL    HW233970  14.393  14.668  12.524
44025SOL     OW33971   9.333   3.338   8.146
44025SOL    HW133972   9.379   3.385   8.215
44025SOL    HW233973   9.282   3.405   8.100
44026SOL     OW33974   9.887   7.314  12.902
44026SOL    HW133975   9.933   7.378  12.848
44026SOL    HW233976   9.824   7.273  12.843
44027SOL     OW33977  13.399   3.017  14.260
44027SOL    HW133978  13.426   3.028  14.168
44027SOL    HW233979  13.466   2.960  14.297
44028SOL     OW33980   6.246   7.484  14.636
44028SOL    HW133981   6.309   7.444  14.577
44028SOL    HW233982   6.258   7.578  14.626
44029SOL     OW33983   9.619   3.657  12.449
44029SOL    HW133984   9.549   3.599  12.420
44029SOL    HW233985   9.579   3.744  12.447
44030SOL     OW33986   5.405  12.119  13.881
44030SOL    HW133987   5.359  12.138  13.963
44030SOL    HW233988   5.384  12.192  13.824
44031SOL     OW33989  14.608  10.635   3.769
44031SOL    HW133990  14.567  10.637   3.855
44031SOL    HW233991  14.670  10.708   3.769
44032SOL     OW33992   2.339   5.940   0.847
44032SOL    HW133993   2.278   5.867   0.844
44032SOL    HW233994   2.425   5.899   0.855
44033SOL     OW33995  13.976  10.098   3.133
44033SOL    HW133996  13.986  10.034   3.062
44033SOL    HW233997  14.065  10.120   3.159
44034SOL     OW33998   8.652  13.059   9.486
44034SOL    HW133999   8.568  13.059   9.440
44034SOL    HW234000   8.649  13.138   9.541
44035SOL     OW34001  10.656   3.780   3.499
44035SOL    HW134002  10.606   3.751   3.423
44035SOL    HW234003  10.716   3.846   3.465
44036SOL     OW34004  13.684   9.323  14.783
44036SOL    HW134005  13.723   9.387  14.723
44036SOL    HW234006  13.754   9.259  14.796
44037SOL     OW34007   9.657   0.138  11.830
44037SOL    HW134008   9.707   0.209  11.871
44037SOL    HW234009   9.568   0.173  11.822
44038SOL     OW34010   8.313  12.043   0.517
44038SOL    HW134011   8.406  12.063   0.510
44038SOL    HW234012   8.300  11.966   0.461
44039SOL     OW34013   7.400   8.845  12.267
44039SOL    HW134014   7.426   8.764  12.309
44039SOL    HW234015   7.320   8.824  12.219
44040SOL     OW34016   3.129   1.028   4.679
44040SOL    HW134017   3.142   1.101   4.739
44040SOL    HW234018   3.218   1.001   4.654
44041SOL     OW34019  11.465   8.925  13.160
44041SOL    HW134020  11.459   8.901  13.252
44041SOL    HW234021  11.436   9.016  13.156
44042SOL     OW34022   4.867   0.909   9.747
44042SOL    HW134023   4.848   0.872   9.833
44042SOL    HW234024   4.784   0.945   9.717
44043SOL     OW34025   8.549   5.883   0.157
44043SOL    HW134026   8.629   5.831   0.160
44043SOL    HW234027   8.484   5.829   0.201
44044SOL     OW34028   2.382   0.425   3.309
44044SOL    HW134029   2.472   0.451   3.290
44044SOL    HW234030   2.366   0.350   3.252
44045SOL     OW34031   9.457  10.907   5.371
44045SOL    HW134032   9.534  10.903   5.315
44045SOL    HW234033   9.483  10.861   5.451
44046SOL     OW34034  10.794  11.289   0.294
44046SOL    HW134035  10.845  11.209   0.310
44046SOL    HW234036  10.703  11.262   0.307
44047SOL     OW34037  13.798   0.172  10.872
44047SOL    HW134038  13.813   0.092  10.821
44047SOL    HW234039  13.885   0.195  10.906
44048SOL     OW34040   0.853   2.661   5.363
44048SOL    HW134041   0.880   2.735   5.308
44048SOL    HW234042   0.775   2.626   5.321
44049SOL     OW34043  12.302  14.205  12.209
44049SOL    HW134044  12.266  14.120  12.233
44049SOL    HW234045  12.294  14.208  12.114
44050SOL     OW34046  11.549  10.513  14.610
44050SOL    HW134047  11.501  10.578  14.560
44050SOL    HW234048  11.487  10.483  14.676
44051SOL     OW34049   6.737  10.376   7.511
44051SOL    HW134050   6.754  10.283   7.526
44051SOL    HW234051   6.796  10.421   7.571
44052SOL     OW34052   4.172  14.734   6.740
44052SOL    HW134053   4.209  14.814   6.701
44052SOL    HW234054   4.244  14.697   6.791
44053SOL     OW34055   6.364   7.912  10.428
44053SOL    HW134056   6.421   7.923  10.352
44053SOL    HW234057   6.276   7.902  10.390
44054SOL     OW34058   4.408   0.694   4.991
44054SOL    HW134059   4.495   0.734   4.985
44054SOL    HW234060   4.353   0.759   5.033
44055SOL     OW34061  10.107   2.951   5.077
44055SOL    HW134062  10.170   2.981   5.143
44055SOL    HW234063  10.078   3.032   5.035
44056SOL     OW34064   1.212   5.286   2.851
44056SOL    HW134065   1.154   5.211   2.837
44056SOL    HW234066   1.294   5.261   2.809
44057SOL     OW34067   2.100  10.520  11.316
44057SOL    HW134068   2.100  10.607  11.277
44057SOL    HW234069   2.054  10.465  11.253
44058SOL     OW34070   6.177   6.520  13.432
44058SOL    HW134071   6.139   6.486  13.513
44058SOL    HW234072   6.122   6.485  13.362
44059SOL     OW34073   9.958  10.496   0.561
44059SOL    HW134074   9.864  10.498   0.579
44059SOL    HW234075   9.988  10.586   0.572
44060SOL     OW34076   1.503   3.057  13.794
44060SOL    HW134077   1.571   3.120  13.819
44060SOL    HW234078   1.499   2.995  13.866
44061SOL     OW34079   1.985   2.683   3.558
44061SOL    HW134080   2.035   2.601   3.561
44061SOL    HW234081   1.894   2.656   3.569
44062SOL     OW34082   4.076  11.354   0.533
44062SOL    HW134083   4.013  11.353   0.461
44062SOL    HW234084   4.130  11.431   0.516
44063SOL     OW34085  12.912   7.609  13.873
44063SOL    HW134086  12.931   7.683  13.931
44063SOL    HW234087  12.847   7.558  13.919
44064SOL     OW34088  10.820   8.629  13.586
44064SOL    HW134089  10.882   8.563  13.617
44064SOL    HW234090  10.842   8.641  13.494
44065SOL     OW34091   3.406   7.405  13.103
44065SOL    HW134092   3.456   7.365  13.173
44065SOL    HW234093   3.412   7.499  13.120
44066SOL     OW34094  11.207  13.372   5.276
44066SOL    HW134095  11.127  13.324   5.253
44066SOL    HW234096  11.211  13.444   5.213
44067SOL     OW34097   1.973   6.582   9.787
44067SOL    HW134098   1.881   6.591   9.763
44067SOL    HW234099   1.980   6.492   9.821
44068SOL     OW34100   5.894   2.366  10.806
44068SOL    HW134101   5.818   2.409  10.766
44068SOL    HW234102   5.918   2.423  10.879
44069SOL     OW34103   5.739  11.949  13.019
44069SOL    HW134104   5.782  11.962  13.103
44069SOL    HW234105   5.650  11.982  13.031
44070SOL     OW34106  11.221   7.442  12.036
44070SOL    HW134107  11.266   7.428  11.952
44070SOL    HW234108  11.196   7.355  12.065
44071SOL     OW34109  14.498   5.713  13.238
44071SOL    HW134110  14.505   5.809  13.236
44071SOL    HW234111  14.408   5.695  13.213
44072SOL     OW34112   2.484   2.927  10.351
44072SOL    HW134113   2.555   2.940  10.289
44072SOL    HW234114   2.517   2.963  10.434
44073SOL     OW34115   9.497   1.426   3.512
44073SOL    HW134116   9.439   1.496   3.541
44073SOL    HW234117   9.585   1.461   3.526
44074SOL     OW34118   5.163  14.440   4.392
44074SOL    HW134119   5.206  14.479   4.468
44074SOL    HW234120   5.200  14.352   4.385
44075SOL     OW34121  14.496   5.504   8.693
44075SOL    HW134122  14.469   5.491   8.784
44075SOL    HW234123  14.490   5.417   8.654
44076SOL     OW34124   7.456  12.605   5.040
44076SOL    HW134125   7.518  12.640   5.104
44076SOL    HW234126   7.496  12.623   4.955
44077SOL     OW34127   6.088  12.197  13.483
44077SOL    HW134128   6.011  12.160  13.525
44077SOL    HW234129   6.073  12.291  13.482
44078SOL     OW34130  14.034  12.724   0.357
44078SOL    HW134131  14.052  12.657   0.423
44078SOL    HW234132  14.079  12.694   0.278
44079SOL     OW34133   0.939  13.612   5.835
44079SOL    HW134134   0.892  13.687   5.800
44079SOL    HW234135   0.871  13.549   5.857
44080SOL     OW34136   4.228   7.365   3.556
44080SOL    HW134137   4.171   7.432   3.594
44080SOL    HW234138   4.213   7.288   3.611
44081SOL     OW34139   2.072   2.387   5.887
44081SOL    HW134140   2.051   2.448   5.958
44081SOL    HW234141   2.147   2.427   5.843
44082SOL     OW34142   9.457   5.638   3.455
44082SOL    HW134143   9.407   5.614   3.533
44082SOL    HW234144   9.395   5.687   3.400
44083SOL     OW34145   6.190   8.956   1.360
44083SOL    HW134146   6.257   9.000   1.412
44083SOL    HW234147   6.239   8.902   1.299
44084SOL     OW34148   4.592  13.641   7.889
44084SOL    HW134149   4.537  13.615   7.815
44084SOL    HW234150   4.581  13.736   7.894
44085SOL     OW34151  11.959  12.113   5.367
44085SOL    HW134152  11.954  12.158   5.451
44085SOL    HW234153  11.914  12.029   5.382
44086SOL     OW34154  12.215   9.598   3.832
44086SOL    HW134155  12.126   9.607   3.796
44086SOL    HW234156  12.261   9.676   3.801
44087SOL     OW34157  12.264  10.509   9.964
44087SOL    HW134158  12.232  10.440   9.906
44087SOL    HW234159  12.355  10.523   9.936
44088SOL     OW34160   6.345  10.535   5.688
44088SOL    HW134161   6.374  10.446   5.708
44088SOL    HW234162   6.273  10.551   5.749
44089SOL     OW34163  13.899  14.787   3.817
44089SOL    HW134164  13.809  14.775   3.847
44089SOL    HW234165  13.934  14.856   3.873
44090SOL     OW34166   6.250   0.933   5.519
44090SOL    HW134167   6.313   0.936   5.448
44090SOL    HW234168   6.303   0.938   5.599
44091SOL     OW34169  12.774  12.084   9.101
44091SOL    HW134170  12.745  11.994   9.120
44091SOL    HW234171  12.696  12.126   9.065
44092SOL     OW34172   9.921   9.904  10.088
44092SOL    HW134173   9.926   9.846  10.012
44092SOL    HW234174   9.877   9.852  10.156
44093SOL     OW34175  14.757  11.734   1.344
44093SOL    HW134176  14.777  11.765   1.432
44093SOL    HW234177  14.699  11.801   1.307
44094SOL     OW34178  14.500  12.539  12.690
44094SOL    HW134179  14.521  12.628  12.721
44094SOL    HW234180  14.430  12.510  12.749
44095SOL     OW34181   5.998   8.437   3.986
44095SOL    HW134182   6.074   8.436   3.928
44095SOL    HW234183   6.014   8.509   4.046
44096SOL     OW34184  13.773  13.282   1.689
44096SOL    HW134185  13.851  13.227   1.679
44096SOL    HW234186  13.802  13.355   1.744
44097SOL     OW34187   2.609  13.377   4.993
44097SOL    HW134188   2.528  13.423   5.018
44097SOL    HW234189   2.620  13.311   5.062
44098SOL     OW34190   9.975  13.477   2.487
44098SOL    HW134191   9.924  13.396   2.489
44098SOL    HW234192   9.928  13.537   2.546
44099SOL     OW34193   6.819   5.307   3.655
44099SOL    HW134194   6.906   5.308   3.694
44099SOL    HW234195   6.829   5.355   3.573
44100SOL     OW34196  13.798   3.912  14.610
44100SOL    HW134197  13.792   3.821  14.579
44100SOL    HW234198  13.740   3.915  14.686
44101SOL     OW34199   1.579   0.666   2.133
44101SOL    HW134200   1.648   0.658   2.199
44101SOL    HW234201   1.615   0.623   2.055
44102SOL     OW34202  14.843   9.341   1.927
44102SOL    HW134203   0.059   9.379   1.951
44102SOL    HW234204  14.860   9.293   1.846
44103SOL     OW34205  12.234  13.936   8.009
44103SOL    HW134206  12.236  13.902   8.099
44103SOL    HW234207  12.304  14.002   8.007
44104SOL     OW34208   0.862   0.572   0.463
44104SOL    HW134209   0.940   0.528   0.428
44104SOL    HW234210   0.895   0.624   0.536
44105SOL     OW34211  14.723   6.046   4.904
44105SOL    HW134212  14.667   6.016   4.833
44105SOL    HW234213  14.671   6.112   4.950
44106SOL     OW34214  12.223  14.461  11.803
44106SOL    HW134215  12.176  14.438  11.723
44106SOL    HW234216  12.191  14.548  11.826
44107SOL     OW34217   9.093  13.378   8.881
44107SOL    HW134218   9.023  13.367   8.817
44107SOL    HW234219   9.169  13.405   8.830
44108SOL     OW34220   7.228  13.529   6.189
44108SOL    HW134221   7.161  13.484   6.241
44108SOL    HW234222   7.311  13.502   6.229
44109SOL     OW34223   5.325   5.013   5.743
44109SOL    HW134224   5.340   5.030   5.650
44109SOL    HW234225   5.270   5.086   5.772
44110SOL     OW34226  12.646   0.181   2.459
44110SOL    HW134227  12.635   0.260   2.405
44110SOL    HW234228  12.727   0.194   2.506
44111SOL     OW34229  12.298   6.158  11.112
44111SOL    HW134230  12.380   6.180  11.068
44111SOL    HW234231  12.230   6.179  11.047
44112SOL     OW34232  10.930   6.926   9.571
44112SOL    HW134233  11.023   6.930   9.594
44112SOL    HW234234  10.928   6.873   9.492
44113SOL     OW34235   8.298  11.872   2.308
44113SOL    HW134236   8.279  11.896   2.399
44113SOL    HW234237   8.392  11.855   2.307
44114SOL     OW34238   5.773   2.137  13.606
44114SOL    HW134239   5.683   2.121  13.632
44114SOL    HW234240   5.826   2.082  13.663
44115SOL     OW34241   2.002   7.770  10.692
44115SOL    HW134242   1.950   7.691  10.707
44115SOL    HW234243   2.052   7.781  10.773
44116SOL     OW34244  13.113   9.863   5.195
44116SOL    HW134245  13.051   9.872   5.267
44116SOL    HW234246  13.089   9.933   5.134
44117SOL     OW34247  10.582  14.787  13.583
44117SOL    HW134248  10.574  14.734  13.503
44117SOL    HW234249  10.568   0.008  13.553
44118SOL     OW34250  14.285  14.557   6.627
44118SOL    HW134251  14.336  14.634   6.602
44118SOL    HW234252  14.349  14.493   6.656
44119SOL     OW34253   9.239   6.588   3.623
44119SOL    HW134254   9.208   6.538   3.548
44119SOL    HW234255   9.262   6.523   3.689
44120SOL     OW34256   3.404   4.145   2.368
44120SOL    HW134257   3.377   4.086   2.298
44120SOL    HW234258   3.472   4.097   2.415
44121SOL     OW34259  11.519   3.405  13.534
44121SOL    HW134260  11.532   3.364  13.448
44121SOL    HW234261  11.546   3.496  13.521
44122SOL     OW34262   0.247   8.648   9.234
44122SOL    HW134263   0.157   8.672   9.210
44122SOL    HW234264   0.237   8.579   9.299
44123SOL     OW34265   7.364   0.602   4.018
44123SOL    HW134266   7.452   0.639   4.025
44123SOL    HW234267   7.322   0.653   3.948
44124SOL     OW34268  12.988  12.908  12.101
44124SOL    HW134269  13.067  12.960  12.093
44124SOL    HW234270  12.980  12.863  12.017
44125SOL     OW34271   2.860  12.114  11.853
44125SOL    HW134272   2.954  12.129  11.851
44125SOL    HW234273   2.835  12.131  11.944
44126SOL     OW34274  13.441  13.457   1.123
44126SOL    HW134275  13.536  13.452   1.119
44126SOL    HW234276  13.417  13.395   1.192
44127SOL     OW34277   5.662   1.896   1.422
44127SOL    HW134278   5.639   1.813   1.464
44127SOL    HW234279   5.753   1.911   1.444
44128SOL     OW34280  13.532   4.351   3.777
44128SOL    HW134281  13.506   4.402   3.700
44128SOL    HW234282  13.450   4.333   3.823
44129SOL     OW34283   5.929  11.435   6.205
44129SOL    HW134284   5.947  11.527   6.185
44129SOL    HW234285   5.834  11.426   6.198
44130SOL     OW34286   5.897  12.792   6.334
44130SOL    HW134287   5.867  12.713   6.378
44130SOL    HW234288   5.847  12.863   6.375
44131SOL     OW34289   4.952   9.277  12.840
44131SOL    HW134290   5.038   9.317  12.826
44131SOL    HW234291   4.889   9.344  12.812
44132SOL     OW34292   6.345   2.889   5.659
44132SOL    HW134293   6.365   2.955   5.726
44132SOL    HW234294   6.353   2.935   5.576
44133SOL     OW34295  10.041   6.120   4.855
44133SOL    HW134296   9.983   6.067   4.800
44133SOL    HW234297   9.987   6.196   4.880
44134SOL     OW34298   0.174  12.285   6.996
44134SOL    HW134299   0.187  12.287   7.091
44134SOL    HW234300   0.257  12.316   6.960
44135SOL     OW34301  10.555   3.428   4.547
44135SOL    HW134302  10.552   3.334   4.565
44135SOL    HW234303  10.519   3.437   4.459
44136SOL     OW34304   5.071   2.182   9.963
44136SOL    HW134305   5.116   2.097   9.968
44136SOL    HW234306   5.124   2.234   9.903
44137SOL     OW34307   9.718   1.008  12.555
44137SOL    HW134308   9.692   1.029  12.466
44137SOL    HW234309   9.717   1.092  12.601
44138SOL     OW34310   3.929  14.032   9.637
44138SOL    HW134311   4.003  14.069   9.684
44138SOL    HW234312   3.958  14.025   9.546
44139SOL     OW34313   5.256  10.520   2.991
44139SOL    HW134314   5.311  10.455   3.034
44139SOL    HW234315   5.302  10.603   3.003
44140SOL     OW34316   4.348   4.597   8.412
44140SOL    HW134317   4.293   4.664   8.452
44140SOL    HW234318   4.436   4.634   8.414
44141SOL     OW34319   6.466  10.875   1.441
44141SOL    HW134320   6.495  10.964   1.424
44141SOL    HW234321   6.525  10.844   1.510
44142SOL     OW34322  12.235   4.242   5.606
44142SOL    HW134323  12.221   4.149   5.587
44142SOL    HW234324  12.303   4.269   5.545
44143SOL     OW34325   2.063  13.394   6.833
44143SOL    HW134326   1.992  13.337   6.805
44143SOL    HW234327   2.063  13.465   6.770
44144SOL     OW34328   4.324   9.290   8.646
44144SOL    HW134329   4.241   9.334   8.626
44144SOL    HW234330   4.309   9.199   8.623
44145SOL     OW34331   0.164  11.406  11.742
44145SOL    HW134332   0.142  11.498  11.754
44145SOL    HW234333   0.251  11.396  11.781
44146SOL     OW34334   5.319  12.919  13.262
44146SOL    HW134335   5.336  12.826  13.279
44146SOL    HW234336   5.251  12.943  13.325
44147SOL     OW34337   7.684   0.141   2.371
44147SOL    HW134338   7.715   0.062   2.326
44147SOL    HW234339   7.633   0.188   2.304
44148SOL     OW34340   1.648   4.986   7.935
44148SOL    HW134341   1.607   5.049   7.876
44148SOL    HW234342   1.644   4.902   7.888
44149SOL     OW34343  11.806   9.090   6.180
44149SOL    HW134344  11.763   9.146   6.115
44149SOL    HW234345  11.739   9.078   6.248
44150SOL     OW34346  11.520   0.317   7.708
44150SOL    HW134347  11.479   0.265   7.777
44150SOL    HW234348  11.590   0.261   7.674
44151SOL     OW34349   8.678  13.265   8.087
44151SOL    HW134350   8.761  13.293   8.050
44151SOL    HW234351   8.651  13.191   8.033
44152SOL     OW34352   5.097   2.086   5.055
44152SOL    HW134353   5.082   2.109   4.963
44152SOL    HW234354   5.017   2.042   5.083
44153SOL     OW34355   7.104  13.804  12.911
44153SOL    HW134356   7.111  13.897  12.890
44153SOL    HW234357   7.059  13.765  12.835
44154SOL     OW34358   0.218  11.517   1.249
44154SOL    HW134359   0.132  11.555   1.230
44154SOL    HW234360   0.275  11.552   1.180
44155SOL     OW34361   4.758   9.107   3.335
44155SOL    HW134362   4.673   9.088   3.295
44155SOL    HW234363   4.808   9.151   3.265
44156SOL     OW34364   7.776   0.619  10.623
44156SOL    HW134365   7.770   0.684  10.553
44156SOL    HW234366   7.854   0.568  10.603
44157SOL     OW34367  13.559   2.707   2.101
44157SOL    HW134368  13.605   2.790   2.089
44157SOL    HW234369  13.486   2.729   2.159
44158SOL     OW34370   4.673   3.375  10.273
44158SOL    HW134371   4.636   3.457  10.241
44158SOL    HW234372   4.722   3.400  10.352
44159SOL     OW34373   7.690   6.384   3.670
44159SOL    HW134374   7.774   6.420   3.642
44159SOL    HW234375   7.659   6.444   3.737
44160SOL     OW34376   4.242  10.050   1.557
44160SOL    HW134377   4.211   9.971   1.514
44160SOL    HW234378   4.228  10.120   1.493
44161SOL     OW34379   1.398   6.470   5.194
44161SOL    HW134380   1.457   6.419   5.249
44161SOL    HW234381   1.337   6.512   5.255
44162SOL     OW34382   9.380   5.006  13.393
44162SOL    HW134383   9.316   4.982  13.326
44162SOL    HW234384   9.408   5.094  13.368
44163SOL     OW34385  12.454  11.557  10.789
44163SOL    HW134386  12.379  11.601  10.831
44163SOL    HW234387  12.525  11.565  10.853
44164SOL     OW34388  14.318   1.190   3.290
44164SOL    HW134389  14.328   1.241   3.209
44164SOL    HW234390  14.393   1.217   3.344
44165SOL     OW34391  13.134  11.920   0.054
44165SOL    HW134392  13.187  11.883  14.851
44165SOL    HW234393  13.048  11.880   0.044
44166SOL     OW34394  13.961  13.378   4.694
44166SOL    HW134395  14.053  13.377   4.719
44166SOL    HW234396  13.913  13.378   4.777
44167SOL     OW34397  14.496   8.205  10.775
44167SOL    HW134398  14.578   8.162  10.754
44167SOL    HW234399  14.472   8.173  10.862
44168SOL     OW34400  11.984   7.787   7.307
44168SOL    HW134401  11.903   7.833   7.330
44168SOL    HW234402  12.052   7.829   7.359
44169SOL     OW34403  13.525   7.569  12.296
44169SOL    HW134404  13.541   7.493  12.240
44169SOL    HW234405  13.516   7.532  12.384
44170SOL     OW34406   9.212  14.642   9.504
44170SOL    HW134407   9.270  14.635   9.580
44170SOL    HW234408   9.264  14.608   9.431
44171SOL     OW34409   7.479   1.838   3.315
44171SOL    HW134410   7.512   1.810   3.230
44171SOL    HW234411   7.533   1.791   3.378
44172SOL     OW34412   5.114  11.079  14.114
44172SOL    HW134413   5.138  11.057  14.205
44172SOL    HW234414   5.155  11.010  14.062
44173SOL     OW34415  12.669   4.258   5.239
44173SOL    HW134416  12.667   4.163   5.228
44173SOL    HW234417  12.682   4.292   5.150
44174SOL     OW34418   2.161   1.167   4.452
44174SOL    HW134419   2.238   1.194   4.401
44174SOL    HW234420   2.113   1.249   4.467
44175SOL     OW34421   4.254   2.648   2.149
44175SOL    HW134422   4.324   2.667   2.212
44175SOL    HW234423   4.217   2.565   2.179
44176SOL     OW34424   3.684   1.785   6.868
44176SOL    HW134425   3.764   1.762   6.821
44176SOL    HW234426   3.707   1.866   6.914
44177SOL     OW34427   6.279  11.455   4.487
44177SOL    HW134428   6.325  11.524   4.439
44177SOL    HW234429   6.272  11.489   4.576
44178SOL     OW34430   3.889   4.226   6.630
44178SOL    HW134431   3.868   4.148   6.578
44178SOL    HW234432   3.980   4.214   6.655
44179SOL     OW34433   9.188   6.355   4.131
44179SOL    HW134434   9.216   6.406   4.207
44179SOL    HW234435   9.267   6.308   4.104
44180SOL     OW34436   8.257   9.641   4.545
44180SOL    HW134437   8.197   9.598   4.484
44180SOL    HW234438   8.319   9.689   4.489
44181SOL     OW34439  13.157  13.052   9.378
44181SOL    HW134440  13.237  13.022   9.421
44181SOL    HW234441  13.187  13.088   9.295
44182SOL     OW34442   4.488  11.581   6.723
44182SOL    HW134443   4.477  11.674   6.702
44182SOL    HW234444   4.505  11.580   6.817
44183SOL     OW34445   2.748   9.657  14.285
44183SOL    HW134446   2.689   9.732  14.281
44183SOL    HW234447   2.718   9.606  14.360
44184SOL     OW34448   6.487   1.058  14.451
44184SOL    HW134449   6.567   1.052  14.399
44184SOL    HW234450   6.475   1.152  14.465
44185SOL     OW34451   5.703   2.106   7.405
44185SOL    HW134452   5.748   2.137   7.483
44185SOL    HW234453   5.610   2.112   7.425
44186SOL     OW34454   7.323  12.495   5.637
44186SOL    HW134455   7.319  12.579   5.684
44186SOL    HW234456   7.417  12.482   5.621
44187SOL     OW34457  13.086  11.662   8.135
44187SOL    HW134458  12.991  11.674   8.136
44187SOL    HW234459  13.099  11.568   8.124
44188SOL     OW34460  13.542   2.813  10.002
44188SOL    HW134461  13.613   2.872  10.028
44188SOL    HW234462  13.463   2.867  10.006
44189SOL     OW34463  14.527  11.102  10.334
44189SOL    HW134464  14.432  11.093  10.341
44189SOL    HW234465  14.561  11.051  10.407
44190SOL     OW34466  11.905   9.638  14.245
44190SOL    HW134467  11.866   9.600  14.167
44190SOL    HW234468  11.991   9.595  14.253
44191SOL     OW34469   9.713   4.118  14.712
44191SOL    HW134470   9.767   4.039  14.715
44191SOL    HW234471   9.623   4.085  14.718
44192SOL     OW34472   9.053   1.470   9.137
44192SOL    HW134473   8.997   1.419   9.195
44192SOL    HW234474   9.039   1.431   9.050
44193SOL     OW34475   2.522   0.049  12.647
44193SOL    HW134476   2.556   0.065  12.559
44193SOL    HW234477   2.504  14.823  12.649
44194SOL     OW34478   7.942   0.235   9.578
44194SOL    HW134479   8.010   0.204   9.517
44194SOL    HW234480   7.898   0.155   9.607
44195SOL     OW34481   6.348   1.447   5.258
44195SOL    HW134482   6.374   1.503   5.185
44195SOL    HW234483   6.386   1.489   5.335
44196SOL     OW34484   0.700   9.010   0.967
44196SOL    HW134485   0.761   9.039   1.035
44196SOL    HW234486   0.623   9.066   0.978
44197SOL     OW34487   4.801   5.316   0.217
44197SOL    HW134488   4.800   5.265   0.298
44197SOL    HW234489   4.710   5.316   0.187
44198SOL     OW34490   8.098   2.058   8.402
44198SOL    HW134491   8.098   2.142   8.356
44198SOL    HW234492   8.157   2.003   8.351
44199SOL     OW34493   7.653   8.126   2.569
44199SOL    HW134494   7.620   8.060   2.630
44199SOL    HW234495   7.636   8.209   2.613
44200SOL     OW34496   6.661   4.838   3.122
44200SOL    HW134497   6.747   4.825   3.081
44200SOL    HW234498   6.681   4.881   3.205
44201SOL     OW34499  10.701  11.685   4.143
44201SOL    HW134500  10.673  11.770   4.109
44201SOL    HW234501  10.770  11.657   4.083
44202SOL     OW34502   7.394   0.881   7.662
44202SOL    HW134503   7.373   0.970   7.632
44202SOL    HW234504   7.404   0.889   7.757
44203SOL     OW34505   4.436  10.102  12.308
44203SOL    HW134506   4.513  10.152  12.282
44203SOL    HW234507   4.463  10.011  12.303
44204SOL     OW34508  14.542   2.090  12.351
44204SOL    HW134509  14.468   2.135  12.310
44204SOL    HW234510  14.619   2.126  12.307
44205SOL     OW34511  14.665   6.662  12.683
44205SOL    HW134512  14.703   6.734  12.633
44205SOL    HW234513  14.724   6.588  12.669
44206SOL     OW34514  10.148  10.937   1.118
44206SOL    HW134515  10.094  11.011   1.091
44206SOL    HW234516  10.099  10.896   1.190
44207SOL     OW34517   5.818  14.744  11.827
44207SOL    HW134518   5.745  14.758  11.767
44207SOL    HW234519   5.777  14.720  11.910
44208SOL     OW34520  12.814   0.760   9.055
44208SOL    HW134521  12.814   0.665   9.039
44208SOL    HW234522  12.904   0.788   9.039
44209SOL     OW34523   0.814  10.724   1.073
44209SOL    HW134524   0.805  10.819   1.063
44209SOL    HW234525   0.818  10.711   1.168
44210SOL     OW34526   2.488  12.818   6.331
44210SOL    HW134527   2.517  12.835   6.242
44210SOL    HW234528   2.447  12.899   6.360
44211SOL     OW34529  14.478   0.393   7.951
44211SOL    HW134530  14.412   0.446   7.908
44211SOL    HW234531  14.500   0.442   8.031
44212SOL     OW34532  13.411   7.149   2.737
44212SOL    HW134533  13.486   7.160   2.797
44212SOL    HW234534  13.337   7.187   2.784
44213SOL     OW34535   5.654   2.764   4.105
44213SOL    HW134536   5.629   2.673   4.120
44213SOL    HW234537   5.602   2.814   4.167
44214SOL     OW34538  13.268   3.057   4.509
44214SOL    HW134539  13.313   3.089   4.431
44214SOL    HW234540  13.190   3.013   4.477
44215SOL     OW34541   8.656   2.429  10.373
44215SOL    HW134542   8.644   2.521  10.353
44215SOL    HW234543   8.690   2.428  10.462
44216SOL     OW34544   6.787   8.744   5.934
44216SOL    HW134545   6.811   8.754   5.842
44216SOL    HW234546   6.750   8.656   5.940
44217SOL     OW34547  13.801   0.500  11.064
44217SOL    HW134548  13.896   0.495  11.055
44217SOL    HW234549  13.767   0.462  10.984
44218SOL     OW34550   0.570   7.779   1.910
44218SOL    HW134551   0.532   7.812   1.829
44218SOL    HW234552   0.519   7.700   1.930
44219SOL     OW34553   9.495   1.936   3.616
44219SOL    HW134554   9.555   1.910   3.546
44219SOL    HW234555   9.488   1.859   3.672
44220SOL     OW34556   3.515   8.517   8.756
44220SOL    HW134557   3.588   8.566   8.719
44220SOL    HW234558   3.479   8.574   8.823
44221SOL     OW34559   2.731   6.304   5.299
44221SOL    HW134560   2.745   6.397   5.318
44221SOL    HW234561   2.799   6.259   5.349
44222SOL     OW34562   5.188   2.211   1.602
44222SOL    HW134563   5.221   2.189   1.515
44222SOL    HW234564   5.268   2.226   1.654
44223SOL     OW34565   9.142   8.646   1.519
44223SOL    HW134566   9.209   8.645   1.450
44223SOL    HW234567   9.138   8.556   1.550
44224SOL     OW34568   9.658   1.894   9.056
44224SOL    HW134569   9.569   1.922   9.032
44224SOL    HW234570   9.656   1.799   9.047
44225SOL     OW34571   8.967   2.262   7.881
44225SOL    HW134572   8.958   2.329   7.949
44225SOL    HW234573   9.023   2.303   7.815
44226SOL     OW34574   1.133   6.805   9.726
44226SOL    HW134575   1.135   6.733   9.662
44226SOL    HW234576   1.192   6.871   9.689
44227SOL     OW34577   8.110  12.546   7.263
44227SOL    HW134578   8.067  12.504   7.188
44227SOL    HW234579   8.158  12.619   7.225
44228SOL     OW34580  10.092   0.762   1.040
44228SOL    HW134581  10.135   0.724   0.964
44228SOL    HW234582  10.042   0.836   1.006
44229SOL     OW34583   6.753  12.738   1.682
44229SOL    HW134584   6.824  12.770   1.738
44229SOL    HW234585   6.704  12.816   1.657
44230SOL     OW34586   9.476   0.676  12.116
44230SOL    HW134587   9.486   0.650  12.208
44230SOL    HW234588   9.511   0.602  12.067
44231SOL     OW34589  12.733   4.804   0.787
44231SOL    HW134590  12.804   4.852   0.744
44231SOL    HW234591  12.696   4.749   0.718
44232SOL     OW34592   5.802   2.442   7.920
44232SOL    HW134593   5.747   2.396   7.856
44232SOL    HW234594   5.820   2.527   7.880
44233SOL     OW34595   4.747   2.225  10.052
44233SOL    HW134596   4.804   2.244   9.977
44233SOL    HW234597   4.683   2.297  10.052
44234SOL     OW34598  10.597   8.069  11.267
44234SOL    HW134599  10.595   7.989  11.318
44234SOL    HW234600  10.608   8.139  11.332
44235SOL     OW34601  11.895   3.994  13.571
44235SOL    HW134602  11.850   4.072  13.540
44235SOL    HW234603  11.959   3.975  13.502
44236SOL     OW34604   9.957   2.370  12.768
44236SOL    HW134605   9.918   2.294  12.812
44236SOL    HW234606   9.941   2.355  12.675
44237SOL     OW34607   7.383   3.742   3.557
44237SOL    HW134608   7.409   3.771   3.645
44237SOL    HW234609   7.292   3.714   3.568
44238SOL     OW34610   1.088  10.384   1.018
44238SOL    HW134611   1.172  10.342   1.000
44238SOL    HW234612   1.037  10.319   1.066
44239SOL     OW34613   6.941  14.150   7.138
44239SOL    HW134614   7.012  14.095   7.104
44239SOL    HW234615   6.976  14.186   7.220
44240SOL     OW34616  12.492  11.536   8.972
44240SOL    HW134617  12.416  11.593   8.987
44240SOL    HW234618  12.555  11.592   8.927
44241SOL     OW34619   5.149   8.538   1.396
44241SOL    HW134620   5.165   8.448   1.423
44241SOL    HW234621   5.208   8.591   1.450
44242SOL     OW34622  14.828   9.300   8.750
44242SOL    HW134623  14.814   9.213   8.713
44242SOL    HW234624  14.844   9.356   8.675
44243SOL     OW34625   8.738   3.948  10.461
44243SOL    HW134626   8.674   4.016  10.479
44243SOL    HW234627   8.814   3.995  10.427
44244SOL     OW34628   0.541  13.205   6.851
44244SOL    HW134629   0.598  13.139   6.893
44244SOL    HW234630   0.502  13.252   6.925
44245SOL     OW34631   8.489   7.472   4.680
44245SOL    HW134632   8.540   7.551   4.662
44245SOL    HW234633   8.556   7.403   4.690
44246SOL     OW34634   2.035   8.311  12.859
44246SOL    HW134635   2.110   8.348  12.906
44246SOL    HW234636   1.975   8.385  12.849
44247SOL     OW34637   5.583   5.233   6.286
44247SOL    HW134638   5.660   5.178   6.275
44247SOL    HW234639   5.515   5.190   6.234
44248SOL     OW34640   2.285   0.234   0.061
44248SOL    HW134641   2.207   0.210   0.110
44248SOL    HW234642   2.260   0.313   0.013
44249SOL     OW34643  12.463   0.094  12.638
44249SOL    HW134644  12.457   0.101  12.733
44249SOL    HW234645  12.482   0.002  12.621
44250SOL     OW34646  14.430  14.154   2.174
44250SOL    HW134647  14.449  14.205   2.253
44250SOL    HW234648  14.374  14.082   2.204
44251SOL     OW34649   1.598   4.276   3.580
44251SOL    HW134650   1.596   4.191   3.537
44251SOL    HW234651   1.515   4.317   3.555
44252SOL     OW34652  14.495  12.014  11.947
44252SOL    HW134653  14.530  12.103  11.953
44252SOL    HW234654  14.461  11.997  12.035
44253SOL     OW34655  14.250  13.921  11.698
44253SOL    HW134656  14.262  14.016  11.702
44253SOL    HW234657  14.238  13.903  11.605
44254SOL     OW34658   5.972   7.789   8.494
44254SOL    HW134659   5.915   7.759   8.565
44254SOL    HW234660   5.918   7.782   8.415
44255SOL     OW34661   2.355   0.423  12.040
44255SOL    HW134662   2.386   0.507  12.007
44255SOL    HW234663   2.294   0.446  12.111
44256SOL     OW34664   9.188   1.565  12.158
44256SOL    HW134665   9.142   1.623  12.097
44256SOL    HW234666   9.192   1.481  12.113
44257SOL     OW34667  11.727   9.545   9.417
44257SOL    HW134668  11.728   9.494   9.336
44257SOL    HW234669  11.735   9.636   9.387
44258SOL     OW34670   6.430   1.396  14.166
44258SOL    HW134671   6.466   1.323  14.115
44258SOL    HW234672   6.458   1.380  14.256
44259SOL     OW34673   5.648  12.492   2.818
44259SOL    HW134674   5.688  12.522   2.735
44259SOL    HW234675   5.623  12.402   2.801
44260SOL     OW34676  11.470  12.616   3.706
44260SOL    HW134677  11.502  12.681   3.769
44260SOL    HW234678  11.414  12.666   3.647
44261SOL     OW34679  14.160  13.392   7.578
44261SOL    HW134680  14.136  13.482   7.556
44261SOL    HW234681  14.237  13.401   7.633
44262SOL     OW34682   9.991   3.987   9.008
44262SOL    HW134683   9.905   4.021   9.032
44262SOL    HW234684  10.052   4.029   9.068
44263SOL     OW34685  10.864  13.396   4.946
44263SOL    HW134686  10.793  13.372   5.006
44263SOL    HW234687  10.852  13.338   4.871
44264SOL     OW34688   2.669   9.081   2.308
44264SOL    HW134689   2.585   9.086   2.354
44264SOL    HW234690   2.706   9.169   2.318
44265SOL     OW34691   9.480   6.806   7.856
44265SOL    HW134692   9.398   6.849   7.878
44265SOL    HW234693   9.498   6.748   7.930
44266SOL     OW34694   6.881  10.212   8.984
44266SOL    HW134695   6.873  10.288   8.927
44266SOL    HW234696   6.974  10.208   9.006
44267SOL     OW34697   0.227   0.106   9.565
44267SOL    HW134698   0.256   0.059   9.487
44267SOL    HW234699   0.181   0.183   9.531
44268SOL     OW34700  10.528   7.934   5.518
44268SOL    HW134701  10.596   7.939   5.451
44268SOL    HW234702  10.566   7.978   5.594
44269SOL     OW34703   6.672   5.706  11.378
44269SOL    HW134704   6.655   5.798  11.358
44269SOL    HW234705   6.724   5.675  11.304
44270SOL     OW34706   1.047   8.214   9.884
44270SOL    HW134707   1.117   8.251   9.938
44270SOL    HW234708   1.049   8.265   9.803
44271SOL     OW34709   6.049   3.580   5.424
44271SOL    HW134710   6.087   3.639   5.490
44271SOL    HW234711   5.956   3.603   5.422
44272SOL     OW34712   4.232  11.089   1.314
44272SOL    HW134713   4.285  11.131   1.246
44272SOL    HW234714   4.279  11.007   1.333
44273SOL     OW34715   5.076   9.299   3.676
44273SOL    HW134716   5.035   9.213   3.678
44273SOL    HW234717   5.110   9.308   3.588
44274SOL     OW34718   7.697   5.187   8.034
44274SOL    HW134719   7.717   5.162   7.944
44274SOL    HW234720   7.729   5.114   8.087
44275SOL     OW34721   6.961  11.913   2.101
44275SOL    HW134722   6.880  11.863   2.100
44275SOL    HW234723   7.020  11.866   2.042
44276SOL     OW34724   6.023   6.555   0.754
44276SOL    HW134725   6.065   6.614   0.816
44276SOL    HW234726   5.931   6.580   0.755
44277SOL     OW34727   3.739   5.158  14.059
44277SOL    HW134728   3.821   5.110  14.075
44277SOL    HW234729   3.762   5.250  14.073
44278SOL     OW34730   3.722   8.730   3.481
44278SOL    HW134731   3.703   8.645   3.442
44278SOL    HW234732   3.651   8.787   3.452
44279SOL     OW34733   7.443   0.348   3.181
44279SOL    HW134734   7.381   0.366   3.110
44279SOL    HW234735   7.497   0.277   3.148
44280SOL     OW34736   6.761  14.528   4.212
44280SOL    HW134737   6.828  14.460   4.202
44280SOL    HW234738   6.690  14.485   4.260
44281SOL     OW34739  11.642   0.128   6.096
44281SOL    HW134740  11.687   0.189   6.155
44281SOL    HW234741  11.592   0.184   6.036
44282SOL     OW34742  13.033  14.838  11.029
44282SOL    HW134743  12.986   0.046  10.993
44282SOL    HW234744  13.119  14.842  10.986
44283SOL     OW34745   2.600   6.081   0.206
44283SOL    HW134746   2.667   6.015   0.186
44283SOL    HW234747   2.642   6.164   0.182
44284SOL     OW34748   9.764   5.506   4.111
44284SOL    HW134749   9.819   5.555   4.050
44284SOL    HW234750   9.728   5.572   4.170
44285SOL     OW34751   1.910   7.993  11.577
44285SOL    HW134752   1.978   7.926  11.589
44285SOL    HW234753   1.926   8.029  11.490
44286SOL     OW34754  13.621   4.698   2.236
44286SOL    HW134755  13.623   4.638   2.162
44286SOL    HW234756  13.645   4.783   2.199
44287SOL     OW34757  10.220  14.475   3.419
44287SOL    HW134758  10.315  14.472   3.430
44287SOL    HW234759  10.196  14.389   3.385
44288SOL     OW34760   4.143   7.366  14.210
44288SOL    HW134761   4.150   7.450  14.165
44288SOL    HW234762   4.060   7.329  14.178
44289SOL     OW34763  14.749   8.621  11.010
44289SOL    HW134764  14.789   8.680  11.075
44289SOL    HW234765  14.661   8.606  11.045
44290SOL     OW34766  12.480   2.063   9.319
44290SOL    HW134767  12.514   2.095   9.235
44290SOL    HW234768  12.524   1.978   9.332
44291SOL     OW34769   1.015   1.965   2.607
44291SOL    HW134770   1.062   1.882   2.607
44291SOL    HW234771   1.041   2.007   2.525
44292SOL     OW34772  11.314  11.803  13.347
44292SOL    HW134773  11.378  11.751  13.298
44292SOL    HW234774  11.229  11.770  13.317
44293SOL     OW34775  12.277   9.690   0.180
44293SOL    HW134776  12.221   9.695   0.103
44293SOL    HW234777  12.273   9.778   0.219
44294SOL     OW34778  12.686   6.178   2.402
44294SOL    HW134779  12.709   6.197   2.311
44294SOL    HW234780  12.769   6.183   2.449
44295SOL     OW34781  12.344  10.374  10.327
44295SOL    HW134782  12.437  10.351  10.333
44295SOL    HW234783  12.320  10.402  10.415
44296SOL     OW34784  13.602  14.158  12.821
44296SOL    HW134785  13.653  14.218  12.874
44296SOL    HW234786  13.540  14.214  12.775
44297SOL     OW34787  11.639   6.624   0.468
44297SOL    HW134788  11.561   6.579   0.435
44297SOL    HW234789  11.712   6.581   0.425
44298SOL     OW34790   3.181  13.716  11.335
44298SOL    HW134791   3.199  13.789  11.275
44298SOL    HW234792   3.097  13.737  11.374
44299SOL     OW34793  12.538  14.795  11.446
44299SOL    HW134794  12.604  14.856  11.413
44299SOL    HW234795  12.489  14.846  11.510
44300SOL     OW34796   1.024   7.558   7.617
44300SOL    HW134797   1.103   7.572   7.564
44300SOL    HW234798   1.004   7.645   7.652
44301SOL     OW34799   0.687   3.988   7.104
44301SOL    HW134800   0.763   4.007   7.159
44301SOL    HW234801   0.613   3.992   7.164
44302SOL     OW34802   3.808   6.185   7.749
44302SOL    HW134803   3.773   6.234   7.674
44302SOL    HW234804   3.870   6.246   7.790
44303SOL     OW34805   9.230   4.241  13.481
44303SOL    HW134806   9.260   4.276  13.565
44303SOL    HW234807   9.188   4.315  13.438
44304SOL     OW34808  14.018   6.589   7.582
44304SOL    HW134809  14.070   6.664   7.611
44304SOL    HW234810  13.991   6.546   7.662
44305SOL     OW34811  13.217  13.997  12.641
44305SOL    HW134812  13.259  14.082  12.648
44305SOL    HW234813  13.289  13.934  12.633
44306SOL     OW34814   3.059   6.982   0.658
44306SOL    HW134815   2.989   7.016   0.714
44306SOL    HW234816   3.042   7.020   0.572
44307SOL     OW34817   2.164  14.691   3.129
44307SOL    HW134818   2.133  14.750   3.198
44307SOL    HW234819   2.114  14.611   3.142
44308SOL     OW34820  12.466   9.402   9.766
44308SOL    HW134821  12.422   9.347   9.700
44308SOL    HW234822  12.429   9.374   9.849
44309SOL     OW34823   3.821   5.158   4.787
44309SOL    HW134824   3.769   5.177   4.709
44309SOL    HW234825   3.875   5.236   4.798
44310SOL     OW34826   6.242   3.921   1.289
44310SOL    HW134827   6.295   3.930   1.367
44310SOL    HW234828   6.173   3.859   1.313
44311SOL     OW34829  14.136   0.520  13.197
44311SOL    HW134830  14.141   0.440  13.250
44311SOL    HW234831  14.100   0.586  13.257
44312SOL     OW34832   4.739   4.105  12.981
44312SOL    HW134833   4.805   4.159  12.938
44312SOL    HW234834   4.785   4.066  13.056
44313SOL     OW34835   5.956   8.389  14.006
44313SOL    HW134836   5.888   8.325  14.028
44313SOL    HW234837   5.968   8.441  14.086
44314SOL     OW34838   8.990   0.080   2.892
44314SOL    HW134839   8.908   0.082   2.940
44314SOL    HW234840   9.029  14.863   2.915
44315SOL     OW34841   5.816   1.865  10.953
44315SOL    HW134842   5.892   1.863  11.010
44315SOL    HW234843   5.822   1.949  10.907
44316SOL     OW34844   0.820   1.246   3.211
44316SOL    HW134845   0.750   1.201   3.260
44316SOL    HW234846   0.805   1.221   3.120
44317SOL     OW34847   6.914  10.874   1.365
44317SOL    HW134848   7.008  10.872   1.346
44317SOL    HW234849   6.876  10.921   1.291
44318SOL     OW34850  12.015  10.816  10.315
44318SOL    HW134851  12.078  10.883  10.342
44318SOL    HW234852  12.067  10.737  10.306
44319SOL     OW34853   1.470  12.818   3.727
44319SOL    HW134854   1.391  12.872   3.729
44319SOL    HW234855   1.439  12.730   3.749
44320SOL     OW34856  12.528   6.456  11.650
44320SOL    HW134857  12.607   6.479  11.699
44320SOL    HW234858  12.553   6.377  11.602
44321SOL     OW34859   2.996   0.924   5.988
44321SOL    HW134860   2.921   0.883   5.944
44321SOL    HW234861   3.001   1.011   5.950
44322SOL     OW34862   4.966   2.363   9.594
44322SOL    HW134863   5.035   2.424   9.620
44322SOL    HW234864   4.905   2.416   9.542
44323SOL     OW34865  12.562  12.205   5.082
44323SOL    HW134866  12.595  12.191   4.993
44323SOL    HW234867  12.640  12.199   5.138
44324SOL     OW34868  13.208   3.047   2.804
44324SOL    HW134869  13.222   3.137   2.773
44324SOL    HW234870  13.231   3.050   2.897
44325SOL     OW34871   4.343   5.812  13.505
44325SOL    HW134872   4.422   5.770  13.473
44325SOL    HW234873   4.373   5.871  13.574
44326SOL     OW34874   4.880   4.628   0.406
44326SOL    HW134875   4.875   4.648   0.312
44326SOL    HW234876   4.846   4.706   0.449
44327SOL     OW34877   0.226   2.448  13.084
44327SOL    HW134878   0.298   2.443  13.147
44327SOL    HW234879   0.215   2.359  13.053
44328SOL     OW34880   5.178  11.313   5.853
44328SOL    HW134881   5.124  11.238   5.878
44328SOL    HW234882   5.119  11.369   5.803
44329SOL     OW34883  10.935  11.725  10.772
44329SOL    HW134884  10.895  11.720  10.685
44329SOL    HW234885  10.902  11.807  10.809
44330SOL     OW34886   0.949  11.182   1.685
44330SOL    HW134887   0.891  11.182   1.761
44330SOL    HW234888   0.957  11.090   1.661
44331SOL     OW34889   8.125   8.192  12.314
44331SOL    HW134890   8.213   8.165  12.289
44331SOL    HW234891   8.067   8.134  12.264
44332SOL     OW34892   4.863   3.458   4.604
44332SOL    HW134893   4.835   3.508   4.681
44332SOL    HW234894   4.937   3.507   4.569
44333SOL     OW34895   8.395   3.001   2.068
44333SOL    HW134896   8.435   2.984   2.153
44333SOL    HW234897   8.468   3.031   2.013
44334SOL     OW34898   7.691   0.978   5.711
44334SOL    HW134899   7.712   1.033   5.636
44334SOL    HW234900   7.686   0.889   5.675
44335SOL     OW34901  12.561  14.745   0.985
44335SOL    HW134902  12.503  14.821   0.995
44335SOL    HW234903  12.635  14.777   0.934
44336SOL     OW34904   5.027   5.502   7.424
44336SOL    HW134905   5.029   5.581   7.477
44336SOL    HW234906   5.108   5.504   7.373
44337SOL     OW34907   3.253   7.386   4.975
44337SOL    HW134908   3.164   7.421   4.974
44337SOL    HW234909   3.309   7.463   4.989
44338SOL     OW34910   1.358   1.677   6.993
44338SOL    HW134911   1.340   1.690   6.900
44338SOL    HW234912   1.430   1.737   7.012
44339SOL     OW34913   0.776   2.122  11.763
44339SOL    HW134914   0.782   2.181  11.688
44339SOL    HW234915   0.816   2.040  11.733
44340SOL     OW34916   0.829   4.770   4.190
44340SOL    HW134917   0.899   4.804   4.133
44340SOL    HW234918   0.768   4.843   4.200
44341SOL     OW34919   0.974  10.371   2.934
44341SOL    HW134920   1.050  10.360   2.991
44341SOL    HW234921   0.990  10.453   2.888
44342SOL     OW34922   6.358   4.855  12.753
44342SOL    HW134923   6.325   4.790  12.691
44342SOL    HW234924   6.305   4.844  12.831
44343SOL     OW34925   3.152   6.899   8.990
44343SOL    HW134926   3.180   6.969   8.930
44343SOL    HW234927   3.083   6.939   9.042
44344SOL     OW34928   7.840   8.346   8.435
44344SOL    HW134929   7.907   8.367   8.500
44344SOL    HW234930   7.764   8.319   8.485
44345SOL     OW34931   9.550   5.332  11.457
44345SOL    HW134932   9.635   5.374  11.468
44345SOL    HW234933   9.512   5.374  11.380
44346SOL     OW34934   3.512   1.388  13.530
44346SOL    HW134935   3.545   1.323  13.592
44346SOL    HW234936   3.419   1.395  13.549
44347SOL     OW34937   0.814   1.765  12.474
44347SOL    HW134938   0.793   1.674  12.493
44347SOL    HW234939   0.867   1.762  12.395
44348SOL     OW34940   2.907   9.888   3.650
44348SOL    HW134941   2.821   9.875   3.609
44348SOL    HW234942   2.893   9.867   3.742
44349SOL     OW34943   9.654   5.709   4.755
44349SOL    HW134944   9.662   5.615   4.771
44349SOL    HW234945   9.697   5.750   4.830
44350SOL     OW34946   3.445   1.412  12.891
44350SOL    HW134947   3.522   1.436  12.942
44350SOL    HW234948   3.449   1.316  12.885
44351SOL     OW34949  12.664   8.977  12.763
44351SOL    HW134950  12.721   8.921  12.817
44351SOL    HW234951  12.577   8.966  12.801
44352SOL     OW34952   1.747  10.692   8.358
44352SOL    HW134953   1.719  10.770   8.309
44352SOL    HW234954   1.787  10.727   8.437
44353SOL     OW34955   2.456   0.428  10.867
44353SOL    HW134956   2.486   0.338  10.877
44353SOL    HW234957   2.473   0.469  10.951
44354SOL     OW34958   7.857   1.765   2.842
44354SOL    HW134959   7.919   1.822   2.797
44354SOL    HW234960   7.788   1.824   2.873
44355SOL     OW34961   8.405  11.149   7.152
44355SOL    HW134962   8.344  11.142   7.079
44355SOL    HW234963   8.491  11.133   7.113
44356SOL     OW34964   6.730   3.055   6.335
44356SOL    HW134965   6.803   3.017   6.286
44356SOL    HW234966   6.680   3.105   6.270
44357SOL     OW34967   6.155   1.430  11.336
44357SOL    HW134968   6.216   1.502  11.353
44357SOL    HW234969   6.072   1.473  11.316
44358SOL     OW34970   9.909   7.971  12.139
44358SOL    HW134971   9.927   7.900  12.200
44358SOL    HW234972   9.863   7.929  12.066
44359SOL     OW34973   9.065   9.122   1.270
44359SOL    HW134974   9.026   9.057   1.211
44359SOL    HW234975   9.159   9.105   1.266
44360SOL     OW34976   4.418   9.541   2.527
44360SOL    HW134977   4.451   9.576   2.609
44360SOL    HW234978   4.471   9.583   2.459
44361SOL     OW34979  10.316   9.566   1.082
44361SOL    HW134980  10.378   9.537   1.149
44361SOL    HW234981  10.370   9.579   1.004
44362SOL     OW34982   2.201  10.696   6.711
44362SOL    HW134983   2.238  10.678   6.797
44362SOL    HW234984   2.144  10.772   6.725
44363SOL     OW34985   0.100   5.580   8.764
44363SOL    HW134986   0.122   5.601   8.673
44363SOL    HW234987   0.014   5.620   8.778
44364SOL     OW34988  14.682  14.448   0.488
44364SOL    HW134989  14.596  14.488   0.474
44364SOL    HW234990  14.681  14.370   0.432
44365SOL     OW34991   0.598   0.591  10.028
44365SOL    HW134992   0.615   0.651   9.955
44365SOL    HW234993   0.572   0.509   9.985
44366SOL     OW34994   9.305  12.732   7.011
44366SOL    HW134995   9.222  12.728   7.059
44366SOL    HW234996   9.344  12.815   7.035
44367SOL     OW34997  13.993  14.505   2.021
44367SOL    HW134998  13.985  14.581   2.079
44367SOL    HW234999  14.087  14.487   2.018
44368SOL     OW35000   4.499   2.148  12.239
44368SOL    HW135001   4.566   2.217  12.242
44368SOL    HW235002   4.419   2.193  12.214
44369SOL     OW35003   5.361  13.045  13.614
44369SOL    HW135004   5.438  13.069  13.562
44369SOL    HW235005   5.396  12.995  13.688
44370SOL     OW35006   3.783   3.303  10.554
44370SOL    HW135007   3.796   3.310  10.459
44370SOL    HW235008   3.783   3.209  10.571
44371SOL     OW35009   2.820  11.943   3.455
44371SOL    HW135010   2.865  11.927   3.537
44371SOL    HW235011   2.771  11.863   3.437
44372SOL     OW35012   3.669  10.534   4.365
44372SOL    HW135013   3.647  10.463   4.305
44372SOL    HW235014   3.753  10.508   4.403
44373SOL     OW35015   0.175   6.787   7.014
44373SOL    HW135016   0.092   6.748   6.984
44373SOL    HW235017   0.219   6.814   6.934
44374SOL     OW35018   7.478   7.883   3.710
44374SOL    HW135019   7.432   7.870   3.627
44374SOL    HW235020   7.416   7.854   3.777
44375SOL     OW35021  14.503   1.069  11.508
44375SOL    HW135022  14.595   1.079  11.533
44375SOL    HW235023  14.468   1.006  11.571
44376SOL     OW35024   7.582   0.316  14.394
44376SOL    HW135025   7.554   0.280  14.310
44376SOL    HW235026   7.654   0.375  14.372
44377SOL     OW35027  14.208  10.054   0.277
44377SOL    HW135028  14.258  10.076   0.357
44377SOL    HW235029  14.271  10.067   0.206
44378SOL     OW35030   3.663  13.647  12.436
44378SOL    HW135031   3.604  13.579  12.470
44378SOL    HW235032   3.655  13.720  12.497
44379SOL     OW35033  14.161  10.180   5.878
44379SOL    HW135034  14.254  10.182   5.898
44379SOL    HW235035  14.133  10.093   5.907
44380SOL     OW35036   7.455  13.404   5.971
44380SOL    HW135037   7.363  13.411   5.944
44380SOL    HW235038   7.460  13.452   6.053
44381SOL     OW35039  11.274   7.060   1.427
44381SOL    HW135040  11.304   7.149   1.444
44381SOL    HW235041  11.354   7.011   1.406
44382SOL     OW35042   4.264   9.618   7.235
44382SOL    HW135043   4.286   9.708   7.260
44382SOL    HW235044   4.332   9.565   7.274
44383SOL     OW35045   4.823  10.073  13.786
44383SOL    HW135046   4.796  10.095  13.697
44383SOL    HW235047   4.835   9.978  13.784
44384SOL     OW35048  14.196  12.168  12.196
44384SOL    HW135049  14.119  12.132  12.152
44384SOL    HW235050  14.186  12.143  12.288
44385SOL     OW35051   0.858   1.681  14.592
44385SOL    HW135052   0.772   1.718  14.612
44385SOL    HW235053   0.920   1.745  14.626
44386SOL     OW35054   1.147   8.377   0.348
44386SOL    HW135055   1.167   8.446   0.285
44386SOL    HW235056   1.051   8.374   0.350
44387SOL     OW35057   2.826  10.133   1.059
44387SOL    HW135058   2.794  10.222   1.044
44387SOL    HW235059   2.758  10.091   1.112
44388SOL     OW35060   8.032  10.330   4.876
44388SOL    HW135061   7.960  10.392   4.892
44388SOL    HW235062   8.018  10.260   4.939
44389SOL     OW35063   2.286   9.759   9.163
44389SOL    HW135064   2.259   9.712   9.083
44389SOL    HW235065   2.207   9.762   9.216
44390SOL     OW35066  11.349   7.718  12.845
44390SOL    HW135067  11.253   7.712  12.847
44390SOL    HW235068  11.377   7.674  12.925
44391SOL     OW35069   9.333   9.305  13.922
44391SOL    HW135070   9.372   9.232  13.970
44391SOL    HW235071   9.248   9.318  13.964
44392SOL     OW35072   3.802   2.891   8.255
44392SOL    HW135073   3.781   2.801   8.281
44392SOL    HW235074   3.784   2.943   8.333
44393SOL     OW35075   5.000   3.884   9.637
44393SOL    HW135076   4.949   3.817   9.682
44393SOL    HW235077   5.056   3.836   9.576
44394SOL     OW35078   7.021   6.680   4.844
44394SOL    HW135079   7.029   6.694   4.938
44394SOL    HW235080   6.973   6.756   4.812
44395SOL     OW35081   7.870   5.164   8.664
44395SOL    HW135082   7.941   5.128   8.609
44395SOL    HW235083   7.809   5.091   8.675
44396SOL     OW35084  11.796   1.498  12.657
44396SOL    HW135085  11.715   1.484  12.707
44396SOL    HW235086  11.769   1.488  12.566
44397SOL     OW35087   7.010   4.367   2.237
44397SOL    HW135088   7.029   4.275   2.251
44397SOL    HW235089   6.923   4.380   2.276
44398SOL     OW35090  12.892   5.841  13.947
44398SOL    HW135091  12.957   5.839  14.018
44398SOL    HW235092  12.935   5.796  13.874
44399SOL     OW35093  13.819   5.251   4.816
44399SOL    HW135094  13.756   5.317   4.846
44399SOL    HW235095  13.780   5.215   4.737
44400SOL     OW35096   3.370  13.209  12.381
44400SOL    HW135097   3.290  13.183  12.335
44400SOL    HW235098   3.440  13.159  12.338
44401SOL     OW35099   5.429  10.234   7.215
44401SOL    HW135100   5.342  10.261   7.247
44401SOL    HW235101   5.442  10.285   7.135
44402SOL     OW35102  11.397  12.359   8.759
44402SOL    HW135103  11.399  12.447   8.723
44402SOL    HW235104  11.481  12.350   8.804
44403SOL     OW35105   5.563   0.268  13.918
44403SOL    HW135106   5.594   0.219  13.842
44403SOL    HW235107   5.555   0.358  13.887
44404SOL     OW35108   3.620   1.913   0.519
44404SOL    HW135109   3.707   1.910   0.480
44404SOL    HW235110   3.604   2.006   0.535
44405SOL     OW35111   5.525  14.824   6.064
44405SOL    HW135112   5.561  14.765   5.997
44405SOL    HW235113   5.431  14.813   6.057
44406SOL     OW35114   7.918  11.161  10.433
44406SOL    HW135115   7.830  11.185  10.460
44406SOL    HW235116   7.972  11.237  10.454
44407SOL     OW35117  11.745   0.859   6.439
44407SOL    HW135118  11.715   0.815   6.359
44407SOL    HW235119  11.812   0.800   6.475
44408SOL     OW35120   1.720   1.373   8.234
44408SOL    HW135121   1.726   1.419   8.318
44408SOL    HW235122   1.672   1.433   8.178
44409SOL     OW35123   8.262   9.568   8.743
44409SOL    HW135124   8.267   9.530   8.831
44409SOL    HW235125   8.240   9.660   8.757
44410SOL     OW35126   9.731   6.436   5.842
44410SOL    HW135127   9.730   6.361   5.901
44410SOL    HW235128   9.765   6.401   5.760
44411SOL     OW35129   5.043   3.753  14.380
44411SOL    HW135130   5.106   3.681  14.382
44411SOL    HW235131   5.079   3.819  14.439
44412SOL     OW35132   5.859   2.166  11.844
44412SOL    HW135133   5.765   2.178  11.836
44412SOL    HW235134   5.895   2.206  11.765
44413SOL     OW35135   9.571   3.411   4.799
44413SOL    HW135136   9.480   3.384   4.805
44413SOL    HW235137   9.587   3.422   4.705
44414SOL     OW35138   9.909   2.284  14.225
44414SOL    HW135139   9.820   2.266  14.196
44414SOL    HW235140   9.904   2.284  14.320
44415SOL     OW35141   9.694   2.127   6.552
44415SOL    HW135142   9.692   2.210   6.600
44415SOL    HW235143   9.726   2.063   6.616
44416SOL     OW35144   7.445   7.390   3.922
44416SOL    HW135145   7.480   7.306   3.953
44416SOL    HW235146   7.415   7.372   3.833
44417SOL     OW35147  12.832   7.633   7.114
44417SOL    HW135148  12.834   7.699   7.183
44417SOL    HW235149  12.877   7.674   7.040
44418SOL     OW35150   5.732  12.458  13.985
44418SOL    HW135151   5.696  12.416  14.063
44418SOL    HW235152   5.797  12.396  13.953
44419SOL     OW35153  10.525   6.950   6.162
44419SOL    HW135154  10.442   6.994   6.144
44419SOL    HW235155  10.542   6.897   6.084
44420SOL     OW35156   4.936   2.511  11.443
44420SOL    HW135157   4.971   2.574  11.381
44420SOL    HW235158   4.868   2.560  11.490
44421SOL     OW35159   7.355   6.657   4.806
44421SOL    HW135160   7.399   6.643   4.889
44421SOL    HW235161   7.262   6.644   4.826
44422SOL     OW35162   7.973   3.761  11.087
44422SOL    HW135163   7.974   3.667  11.107
44422SOL    HW235164   8.042   3.773  11.022
44423SOL     OW35165   7.120   0.978   9.106
44423SOL    HW135166   7.096   0.886   9.115
44423SOL    HW235167   7.182   0.979   9.033
44424SOL     OW35168   3.154   1.619   6.868
44424SOL    HW135169   3.244   1.648   6.857
44424SOL    HW235170   3.136   1.632   6.961
44425SOL     OW35171  14.543   7.762   7.415
44425SOL    HW135172  14.448   7.754   7.422
44425SOL    HW235173  14.561   7.753   7.321
44426SOL     OW35174   6.023   1.670  10.339
44426SOL    HW135175   6.073   1.746  10.309
44426SOL    HW235176   6.073   1.637  10.414
44427SOL     OW35177   5.593   9.090   0.761
44427SOL    HW135178   5.520   9.100   0.700
44427SOL    HW235179   5.556   9.111   0.846
44428SOL     OW35180   3.329  11.080   7.748
44428SOL    HW135181   3.369  11.013   7.803
44428SOL    HW235182   3.403  11.127   7.709
44429SOL     OW35183   7.514   5.886   2.130
44429SOL    HW135184   7.500   5.823   2.059
44429SOL    HW235185   7.505   5.835   2.210
44430SOL     OW35186   9.532   1.331  13.836
44430SOL    HW135187   9.456   1.373  13.878
44430SOL    HW235188   9.604   1.392  13.849
44431SOL     OW35189   0.926   3.675   7.522
44431SOL    HW135190   0.915   3.651   7.614
44431SOL    HW235191   0.851   3.731   7.502
44432SOL     OW35192   5.059   0.101  11.976
44432SOL    HW135193   5.101   0.039  12.036
44432SOL    HW235194   5.021   0.047  11.907
44433SOL     OW35195   9.281   0.124  13.260
44433SOL    HW135196   9.302   0.194  13.199
44433SOL    HW235197   9.224   0.065  13.211
44434SOL     OW35198   4.417   4.915   3.445
44434SOL    HW135199   4.322   4.923   3.441
44434SOL    HW235200   4.442   4.971   3.519
44435SOL     OW35201  10.378  13.221   4.937
44435SOL    HW135202  10.307  13.239   4.876
44435SOL    HW235203  10.356  13.136   4.975
44436SOL     OW35204  10.282  11.965   9.338
44436SOL    HW135205  10.239  11.991   9.256
44436SOL    HW235206  10.366  11.929   9.310
44437SOL     OW35207   1.293  12.106  13.185
44437SOL    HW135208   1.234  12.170  13.145
44437SOL    HW235209   1.236  12.052  13.240
44438SOL     OW35210   8.083  13.674   8.864
44438SOL    HW135211   8.016  13.639   8.922
44438SOL    HW235212   8.158  13.691   8.921
44439SOL     OW35213  14.481  14.098   9.273
44439SOL    HW135214  14.477  14.004   9.253
44439SOL    HW235215  14.405  14.113   9.329
44440SOL     OW35216   2.631   6.799   6.062
44440SOL    HW135217   2.723   6.784   6.082
44440SOL    HW235218   2.603   6.865   6.125
44441SOL     OW35219   8.021   0.666   5.063
44441SOL    HW135220   8.107   0.642   5.030
44441SOL    HW235221   8.039   0.730   5.132
44442SOL     OW35222   5.257  12.041   2.105
44442SOL    HW135223   5.204  12.110   2.145
44442SOL    HW235224   5.342  12.082   2.089
44443SOL     OW35225   3.299   3.798   3.848
44443SOL    HW135226   3.340   3.825   3.930
44443SOL    HW235227   3.291   3.879   3.798
44444SOL     OW35228  12.056  14.292   3.631
44444SOL    HW135229  11.987  14.260   3.690
44444SOL    HW235230  12.109  14.350   3.685
44445SOL     OW35231   1.378   3.629   3.928
44445SOL    HW135232   1.436   3.553   3.927
44445SOL    HW235233   1.428   3.697   3.882
44446SOL     OW35234   1.455   9.889   4.454
44446SOL    HW135235   1.378   9.869   4.506
44446SOL    HW235236   1.457   9.822   4.386
44447SOL     OW35237  12.081   5.712  10.088
44447SOL    HW135238  12.017   5.691  10.020
44447SOL    HW235239  12.028   5.745  10.161
44448SOL     OW35240   7.439   8.900  13.932
44448SOL    HW135241   7.426   8.956  13.855
44448SOL    HW235242   7.372   8.832  13.923
44449SOL     OW35243   3.638   4.027   2.497
44449SOL    HW135244   3.667   3.981   2.418
44449SOL    HW235245   3.684   4.111   2.494
44450SOL     OW35246  10.505   9.231   4.352
44450SOL    HW135247  10.528   9.157   4.408
44450SOL    HW235248  10.583   9.244   4.298
44451SOL     OW35249  10.117   9.011   3.113
44451SOL    HW135250  10.037   8.959   3.106
44451SOL    HW235251  10.137   9.013   3.207
44452SOL     OW35252   7.974   3.022   4.775
44452SOL    HW135253   7.889   3.065   4.773
44452SOL    HW235254   7.956   2.931   4.754
44453SOL     OW35255   0.519   9.456  10.350
44453SOL    HW135256   0.550   9.547  10.355
44453SOL    HW235257   0.563   9.420  10.273
44454SOL     OW35258   0.800  11.037   7.405
44454SOL    HW135259   0.747  10.958   7.397
44454SOL    HW235260   0.814  11.067   7.316
44455SOL     OW35261  11.722  10.652   8.083
44455SOL    HW135262  11.787  10.583   8.092
44455SOL    HW235263  11.708  10.684   8.172
44456SOL     OW35264   8.015  13.358   3.942
44456SOL    HW135265   8.052  13.275   3.912
44456SOL    HW235266   7.978  13.338   4.028
44457SOL     OW35267   0.757  13.353   7.347
44457SOL    HW135268   0.675  13.306   7.336
44457SOL    HW235269   0.757  13.419   7.278
44458SOL     OW35270   4.991  10.162   4.248
44458SOL    HW135271   4.927  10.191   4.313
44458SOL    HW235272   4.973  10.069   4.235
44459SOL     OW35273  11.814  12.846  10.248
44459SOL    HW135274  11.748  12.906  10.214
44459SOL    HW235275  11.854  12.893  10.321
44460SOL     OW35276   5.605   6.751   0.133
44460SOL    HW135277   5.655   6.826   0.101
44460SOL    HW235278   5.640   6.734   0.221
44461SOL     OW35279   4.479  11.564   0.621
44461SOL    HW135280   4.513  11.637   0.674
44461SOL    HW235281   4.386  11.560   0.644
44462SOL     OW35282   9.040  11.135  12.459
44462SOL    HW135283   9.104  11.205  12.448
44462SOL    HW235284   9.027  11.101  12.370
44463SOL     OW35285  13.624   7.892   5.319
44463SOL    HW135286  13.571   7.873   5.396
44463SOL    HW235287  13.667   7.809   5.299
44464SOL     OW35288   7.656   2.037  12.601
44464SOL    HW135289   7.571   2.067  12.567
44464SOL    HW235290   7.704   2.008  12.524
44465SOL     OW35291  12.429  11.431   5.210
44465SOL    HW135292  12.484  11.378   5.267
44465SOL    HW235293  12.490  11.474   5.150
44466SOL     OW35294   3.198  14.857   6.923
44466SOL    HW135295   3.275  14.821   6.879
44466SOL    HW235296   3.162   0.052   6.860
44467SOL     OW35297  13.534   7.552   3.330
44467SOL    HW135298  13.593   7.481   3.354
44467SOL    HW235299  13.504   7.587   3.414
44468SOL     OW35300   9.546  10.096  10.031
44468SOL    HW135301   9.503  10.027   9.980
44468SOL    HW235302   9.614  10.130   9.973
44469SOL     OW35303  12.633   9.526  11.621
44469SOL    HW135304  12.683   9.582  11.681
44469SOL    HW235305  12.543   9.558  11.627
44470SOL     OW35306   0.012   0.916   7.834
44470SOL    HW135307   0.083   0.980   7.831
44470SOL    HW235308  14.809   0.961   7.881
44471SOL     OW35309   7.439  11.385  12.678
44471SOL    HW135310   7.487  11.461  12.645
44471SOL    HW235311   7.505  11.316  12.682
44472SOL     OW35312   2.973   9.596   3.357
44472SOL    HW135313   2.966   9.521   3.416
44472SOL    HW235314   3.067   9.611   3.349
44473SOL     OW35315  10.766   8.386   8.483
44473SOL    HW135316  10.742   8.315   8.424
44473SOL    HW235317  10.811   8.449   8.427
44474SOL     OW35318   5.715   8.308   8.099
44474SOL    HW135319   5.742   8.336   8.187
44474SOL    HW235320   5.708   8.213   8.105
44475SOL     OW35321  10.485   2.375   4.166
44475SOL    HW135322  10.497   2.466   4.141
44475SOL    HW235323  10.393   2.368   4.191
44476SOL     OW35324   4.342   4.501   2.488
44476SOL    HW135325   4.354   4.503   2.583
44476SOL    HW235326   4.395   4.427   2.459
44477SOL     OW35327   2.137   2.702   0.906
44477SOL    HW135328   2.175   2.773   0.959
44477SOL    HW235329   2.180   2.709   0.821
44478SOL     OW35330  12.242   1.939   6.012
44478SOL    HW135331  12.212   1.989   5.936
44478SOL    HW235332  12.240   2.001   6.084
44479SOL     OW35333  10.287  13.806   5.148
44479SOL    HW135334  10.346  13.799   5.073
44479SOL    HW235335  10.259  13.898   5.148
44480SOL     OW35336  14.290   0.955   1.967
44480SOL    HW135337  14.259   0.965   2.057
44480SOL    HW235338  14.329   1.039   1.944
44481SOL     OW35339  14.473   2.360   1.191
44481SOL    HW135340  14.410   2.431   1.183
44481SOL    HW235341  14.541   2.380   1.126
44482SOL     OW35342   6.095  13.616  14.433
44482SOL    HW135343   6.125  13.527  14.413
44482SOL    HW235344   6.174  13.661  14.464
44483SOL     OW35345   5.501  12.226   7.489
44483SOL    HW135346   5.510  12.131   7.491
44483SOL    HW235347   5.482  12.247   7.398
44484SOL     OW35348   7.909   8.981  11.099
44484SOL    HW135349   7.847   9.039  11.143
44484SOL    HW235350   7.896   8.896  11.140
44485SOL     OW35351   8.751   9.053  14.247
44485SOL    HW135352   8.700   9.007  14.313
44485SOL    HW235353   8.728   9.010  14.164
44486SOL     OW35354   0.502   9.428   6.823
44486SOL    HW135355   0.548   9.392   6.747
44486SOL    HW235356   0.562   9.413   6.896
44487SOL     OW35357   3.635   2.962   5.419
44487SOL    HW135358   3.546   2.994   5.434
44487SOL    HW235359   3.647   2.895   5.486
44488SOL     OW35360   6.944   4.939   9.161
44488SOL    HW135361   6.945   5.035   9.161
44488SOL    HW235362   6.859   4.917   9.123
44489SOL     OW35363   2.723   7.538   5.002
44489SOL    HW135364   2.685   7.497   5.080
44489SOL    HW235365   2.745   7.464   4.945
44490SOL     OW35366   8.007   6.895  10.390
44490SOL    HW135367   7.944   6.890  10.318
44490SOL    HW235368   8.018   6.804  10.418
44491SOL     OW35369   1.804   2.334   4.855
44491SOL    HW135370   1.786   2.254   4.805
44491SOL    HW235371   1.796   2.405   4.791
44492SOL     OW35372   4.825   3.549  10.913
44492SOL    HW135373   4.754   3.586  10.860
44492SOL    HW235374   4.903   3.555  10.858
44493SOL     OW35375   6.088  13.907  11.985
44493SOL    HW135376   6.127  13.888  12.070
44493SOL    HW235377   6.162  13.904  11.923
44494SOL     OW35378   4.329   1.908  12.794
44494SOL    HW135379   4.249   1.857  12.793
44494SOL    HW235380   4.385   1.864  12.858
44495SOL     OW35381  13.278  10.365   9.434
44495SOL    HW135382  13.317  10.310   9.502
44495SOL    HW235383  13.351  10.416   9.399
44496SOL     OW35384   5.073   8.786  13.230
44496SOL    HW135385   5.009   8.820  13.293
44496SOL    HW235386   5.126   8.725  13.281
44497SOL     OW35387   9.003   9.236  14.277
44497SOL    HW135388   8.920   9.193  14.258
44497SOL    HW235389   8.999   9.319  14.230
44498SOL     OW35390   6.817  12.820  12.625
44498SOL    HW135391   6.876  12.876  12.574
44498SOL    HW235392   6.866  12.738  12.636
44499SOL     OW35393  10.454   1.237   1.320
44499SOL    HW135394  10.547   1.217   1.305
44499SOL    HW235395  10.454   1.318   1.371
44500SOL     OW35396   7.908  13.038   5.769
44500SOL    HW135397   7.865  13.040   5.684
44500SOL    HW235398   7.840  13.065   5.831
44501SOL     OW35399  12.472  13.184  10.771
44501SOL    HW135400  12.386  13.207  10.805
44501SOL    HW235401  12.529  13.188  10.848
44502SOL     OW35402  13.427   2.005   1.745
44502SOL    HW135403  13.445   1.912   1.758
44502SOL    HW235404  13.344   2.007   1.697
44503SOL     OW35405   3.723   3.558   5.253
44503SOL    HW135406   3.785   3.620   5.214
44503SOL    HW235407   3.653   3.549   5.188
44504SOL     OW35408  13.651   6.060  11.779
44504SOL    HW135409  13.561   6.051  11.749
44504SOL    HW235410  13.645   6.110  11.860
44505SOL     OW35411  11.473   0.893   4.224
44505SOL    HW135412  11.512   0.822   4.276
44505SOL    HW235413  11.476   0.970   4.282
44506SOL     OW35414   9.754   2.176  10.483
44506SOL    HW135415   9.798   2.249  10.528
44506SOL    HW235416   9.804   2.164  10.402
44507SOL     OW35417   7.559  12.597  10.615
44507SOL    HW135418   7.623  12.668  10.618
44507SOL    HW235419   7.530  12.594  10.524
44508SOL     OW35420   7.789   6.145   5.157
44508SOL    HW135421   7.830   6.210   5.100
44508SOL    HW235422   7.862   6.110   5.209
44509SOL     OW35423  11.636   7.662  13.942
44509SOL    HW135424  11.728   7.665  13.971
44509SOL    HW235425  11.592   7.726  13.997
44510SOL     OW35426  11.882   9.621   8.006
44510SOL    HW135427  11.974   9.615   7.983
44510SOL    HW235428  11.878   9.690   8.073
44511SOL     OW35429   1.860  12.602   0.950
44511SOL    HW135430   1.885  12.685   0.990
44511SOL    HW235431   1.772  12.584   0.983
44512SOL     OW35432  11.292   4.447   4.872
44512SOL    HW135433  11.377   4.491   4.873
44512SOL    HW235434  11.247   4.484   4.797
44513SOL     OW35435   5.830   4.534   0.986
44513SOL    HW135436   5.786   4.618   0.992
44513SOL    HW235437   5.909   4.551   0.936
44514SOL     OW35438   1.214   0.607   6.883
44514SOL    HW135439   1.269   0.547   6.832
44514SOL    HW235440   1.276   0.665   6.927
44515SOL     OW35441   0.236   7.235   5.796
44515SOL    HW135442   0.165   7.274   5.745
44515SOL    HW235443   0.249   7.294   5.870
44516SOL     OW35444  13.808   0.379   4.452
44516SOL    HW135445  13.763   0.370   4.368
44516SOL    HW235446  13.759   0.447   4.498
44517SOL     OW35447   6.612   5.235  10.915
44517SOL    HW135448   6.520   5.258  10.904
44517SOL    HW235449   6.633   5.263  11.003
44518SOL     OW35450  12.972   7.608   5.297
44518SOL    HW135451  13.009   7.564   5.221
44518SOL    HW235452  12.894   7.556   5.319
44519SOL     OW35453   0.678   2.657   9.435
44519SOL    HW135454   0.590   2.640   9.404
44519SOL    HW235455   0.689   2.599   9.511
44520SOL     OW35456   8.722   1.141   3.988
44520SOL    HW135457   8.662   1.098   3.927
44520SOL    HW235458   8.720   1.087   4.067
44521SOL     OW35459   7.922  14.432   9.815
44521SOL    HW135460   8.002  14.421   9.867
44521SOL    HW235461   7.860  14.473   9.876
44522SOL     OW35462   9.814   6.319  12.830
44522SOL    HW135463   9.897   6.357  12.859
44522SOL    HW235464   9.836   6.275  12.748
44523SOL     OW35465   5.938   0.243   2.933
44523SOL    HW135466   5.898   0.180   2.993
44523SOL    HW235467   5.872   0.312   2.922
44524SOL     OW35468   7.864   8.800   6.451
44524SOL    HW135469   7.957   8.779   6.444
44524SOL    HW235470   7.854   8.882   6.403
44525SOL     OW35471   8.148   9.730   7.543
44525SOL    HW135472   8.211   9.663   7.569
44525SOL    HW235473   8.136   9.784   7.621
44526SOL     OW35474   7.066   4.582  12.146
44526SOL    HW135475   7.050   4.662  12.096
44526SOL    HW235476   7.150   4.597  12.190
44527SOL     OW35477  13.730   3.070   4.693
44527SOL    HW135478  13.667   3.053   4.624
44527SOL    HW235479  13.690   3.034   4.772
44528SOL     OW35480   4.791   2.227   5.608
44528SOL    HW135481   4.760   2.296   5.549
44528SOL    HW235482   4.772   2.260   5.695
44529SOL     OW35483  13.315  10.811   1.239
44529SOL    HW135484  13.388  10.758   1.209
44529SOL    HW235485  13.240  10.780   1.188
44530SOL     OW35486   3.420  14.327   5.019
44530SOL    HW135487   3.392  14.236   5.014
44530SOL    HW235488   3.515  14.323   5.020
44531SOL     OW35489  12.631  10.316   3.450
44531SOL    HW135490  12.681  10.257   3.394
44531SOL    HW235491  12.575  10.365   3.389
44532SOL     OW35492   7.549   8.216   3.746
44532SOL    HW135493   7.617   8.150   3.738
44532SOL    HW235494   7.504   8.194   3.828
44533SOL     OW35495  14.721   6.888   4.882
44533SOL    HW135496  14.780   6.814   4.871
44533SOL    HW235497  14.634   6.852   4.862
44534SOL     OW35498  12.165  14.105  10.760
44534SOL    HW135499  12.125  14.187  10.789
44534SOL    HW235500  12.259  14.117  10.776
44535SOL     OW35501  12.316  11.242   8.535
44535SOL    HW135502  12.281  11.215   8.620
44535SOL    HW235503  12.275  11.327   8.518
44536SOL     OW35504   4.015  13.138  12.886
44536SOL    HW135505   3.954  13.094  12.946
44536SOL    HW235506   3.987  13.111  12.799
44537SOL     OW35507   8.000  10.535  10.749
44537SOL    HW135508   8.088  10.501  10.732
44537SOL    HW235509   7.945  10.457  10.756
44538SOL     OW35510   0.571   3.080   7.045
44538SOL    HW135511   0.583   3.162   7.094
44538SOL    HW235512   0.628   3.088   6.969
44539SOL     OW35513  14.722   4.393  12.165
44539SOL    HW135514  14.816   4.395  12.181
44539SOL    HW235515  14.701   4.300  12.159
44540SOL     OW35516   7.788  11.665  11.182
44540SOL    HW135517   7.725  11.677  11.111
44540SOL    HW235518   7.738  11.688  11.261
44541SOL     OW35519   0.987   5.713   4.533
44541SOL    HW135520   1.005   5.619   4.533
44541SOL    HW235521   1.038   5.747   4.460
44542SOL     OW35522  12.800   1.491   2.276
44542SOL    HW135523  12.708   1.467   2.285
44542SOL    HW235524  12.845   1.408   2.261
44543SOL     OW35525   1.112  12.128  12.811
44543SOL    HW135526   1.096  12.061  12.878
44543SOL    HW235527   1.081  12.210  12.851
44544SOL     OW35528   6.431   6.248  13.398
44544SOL    HW135529   6.455   6.317  13.335
44544SOL    HW235530   6.454   6.286  13.483
44545SOL     OW35531   3.640   0.121   0.661
44545SOL    HW135532   3.638   0.069   0.741
44545SOL    HW235533   3.555   0.166   0.660
44546SOL     OW35534  12.964   3.434   3.253
44546SOL    HW135535  13.013   3.428   3.334
44546SOL    HW235536  13.017   3.385   3.189
44547SOL     OW35537   8.229   3.668   7.945
44547SOL    HW135538   8.247   3.622   7.863
44547SOL    HW235539   8.310   3.658   7.995
44548SOL     OW35540   2.328   2.602   2.128
44548SOL    HW135541   2.240   2.619   2.096
44548SOL    HW235542   2.378   2.681   2.106
44549SOL     OW35543   1.018  12.757   8.999
44549SOL    HW135544   0.986  12.819   8.934
44549SOL    HW235545   0.944  12.699   9.017
44550SOL     OW35546  11.493   6.386   0.126
44550SOL    HW135547  11.405   6.415   0.149
44550SOL    HW235548  11.539   6.467   0.103
44551SOL     OW35549   9.831  10.155  10.874
44551SOL    HW135550   9.887  10.185  10.802
44551SOL    HW235551   9.887  10.097  10.926
44552SOL     OW35552  14.645   6.088   2.250
44552SOL    HW135553  14.661   5.994   2.248
44552SOL    HW235554  14.729   6.126   2.277
44553SOL     OW35555  11.895   1.812  13.955
44553SOL    HW135556  11.876   1.795  14.047
44553SOL    HW235557  11.982   1.852  13.956
44554SOL     OW35558   8.310   0.941  10.853
44554SOL    HW135559   8.215   0.935  10.842
44554SOL    HW235560   8.328   1.035  10.858
44555SOL     OW35561  11.166   6.518   1.988
44555SOL    HW135562  11.167   6.614   1.989
44555SOL    HW235563  11.104   6.494   2.058
44556SOL     OW35564  12.970   4.496   4.936
44556SOL    HW135565  12.902   4.504   5.004
44556SOL    HW235566  12.959   4.407   4.902
44557SOL     OW35567   8.984   6.273   1.372
44557SOL    HW135568   9.038   6.197   1.352
44557SOL    HW235569   8.899   6.252   1.335
44558SOL     OW35570  10.655   2.771  11.269
44558SOL    HW135571  10.588   2.715  11.308
44558SOL    HW235572  10.720   2.782  11.338
44559SOL     OW35573  14.675  10.015  13.955
44559SOL    HW135574  14.720  10.047  14.033
44559SOL    HW235575  14.658  10.093  13.903
44560SOL     OW35576  14.195   9.299   2.664
44560SOL    HW135577  14.106   9.326   2.643
44560SOL    HW235578  14.235   9.377   2.704
44561SOL     OW35579   4.113   6.330   4.959
44561SOL    HW135580   4.068   6.328   4.875
44561SOL    HW235581   4.156   6.415   4.962
44562SOL     OW35582  10.613   2.377  12.903
44562SOL    HW135583  10.685   2.431  12.935
44562SOL    HW235584  10.586   2.325  12.978
44563SOL     OW35585   2.034   6.019  11.183
44563SOL    HW135586   2.021   5.924  11.184
44563SOL    HW235587   2.105   6.033  11.246
44564SOL     OW35588   4.144   0.412   6.589
44564SOL    HW135589   4.181   0.498   6.572
44564SOL    HW235590   4.149   0.402   6.684
44565SOL     OW35591   8.054   7.793   8.815
44565SOL    HW135592   8.029   7.875   8.858
44565SOL    HW235593   8.097   7.742   8.883
44566SOL     OW35594   4.776   6.172   4.229
44566SOL    HW135595   4.689   6.212   4.230
44566SOL    HW235596   4.806   6.182   4.139
44567SOL     OW35597   4.812   3.830   4.316
44567SOL    HW135598   4.822   3.807   4.224
44567SOL    HW235599   4.856   3.914   4.325
44568SOL     OW35600  13.859  11.108   1.716
44568SOL    HW135601  13.875  11.139   1.805
44568SOL    HW235602  13.772  11.068   1.719
44569SOL     OW35603  11.586   1.294   6.945
44569SOL    HW135604  11.567   1.313   7.037
44569SOL    HW235605  11.564   1.202   6.934
44570SOL     OW35606   5.718  14.180   6.259
44570SOL    HW135607   5.663  14.127   6.317
44570SOL    HW235608   5.671  14.262   6.250
44571SOL     OW35609   3.467  13.032   2.975
44571SOL    HW135610   3.526  12.985   2.916
44571SOL    HW235611   3.448  13.114   2.928
44572SOL     OW35612   0.447   1.585  10.654
44572SOL    HW135613   0.508   1.519  10.620
44572SOL    HW235614   0.458   1.661  10.597
44573SOL     OW35615   9.748  11.538   6.156
44573SOL    HW135616   9.709  11.544   6.069
44573SOL    HW235617   9.679  11.569   6.215
44574SOL     OW35618   5.716  14.850   1.605
44574SOL    HW135619   5.770  14.788   1.556
44574SOL    HW235620   5.647   0.007   1.543
44575SOL     OW35621   2.055   7.463   3.809
44575SOL    HW135622   2.061   7.476   3.903
44575SOL    HW235623   1.961   7.467   3.790
44576SOL     OW35624  14.803   5.092   5.493
44576SOL    HW135625  14.849   5.068   5.413
44576SOL    HW235626   0.004   5.112   5.555
44577SOL     OW35627  11.806   9.008   3.659
44577SOL    HW135628  11.796   9.094   3.618
44577SOL    HW235629  11.753   9.013   3.739
44578SOL     OW35630   6.126   4.049   0.336
44578SOL    HW135631   6.132   3.956   0.317
44578SOL    HW235632   6.156   4.057   0.427
44579SOL     OW35633   9.425   8.911   5.239
44579SOL    HW135634   9.513   8.920   5.276
44579SOL    HW235635   9.379   8.853   5.300
44580SOL     OW35636   1.980   5.511   8.540
44580SOL    HW135637   1.944   5.595   8.509
44580SOL    HW235638   2.044   5.536   8.607
44581SOL     OW35639  13.949  11.817   1.186
44581SOL    HW135640  13.968  11.847   1.097
44581SOL    HW235641  13.853  11.812   1.191
44582SOL     OW35642   5.489   9.053  12.902
44582SOL    HW135643   5.515   9.008  12.822
44582SOL    HW235644   5.486   8.984  12.969
44583SOL     OW35645   5.241  12.140   3.969
44583SOL    HW135646   5.177  12.075   3.939
44583SOL    HW235647   5.326  12.098   3.953
44584SOL     OW35648  12.536   2.122  13.679
44584SOL    HW135649  12.586   2.166  13.611
44584SOL    HW235650  12.591   2.128  13.757
44585SOL     OW35651   7.467  11.958   6.259
44585SOL    HW135652   7.440  11.912   6.339
44585SOL    HW235653   7.433  11.904   6.188
44586SOL     OW35654   5.307   5.621   1.652
44586SOL    HW135655   5.346   5.648   1.735
44586SOL    HW235656   5.212   5.633   1.666
44587SOL     OW35657   4.027   7.610   0.757
44587SOL    HW135658   3.978   7.556   0.695
44587SOL    HW235659   3.965   7.678   0.784
44588SOL     OW35660   2.530   1.865   6.044
44588SOL    HW135661   2.609   1.827   6.004
44588SOL    HW235662   2.506   1.803   6.113
44589SOL     OW35663  10.556   4.352  10.186
44589SOL    HW135664  10.548   4.312  10.272
44589SOL    HW235665  10.505   4.433  10.193
44590SOL     OW35666   5.729   6.320  12.301
44590SOL    HW135667   5.731   6.414  12.288
44590SOL    HW235668   5.757   6.283  12.217
44591SOL     OW35669   9.431   2.759  13.289
44591SOL    HW135670   9.359   2.737  13.230
44591SOL    HW235671   9.438   2.854  13.283
44592SOL     OW35672  11.123   7.407   1.922
44592SOL    HW135673  11.051   7.456   1.883
44592SOL    HW235674  11.137   7.448   2.007
44593SOL     OW35675   5.811   4.026   6.811
44593SOL    HW135676   5.830   3.944   6.857
44593SOL    HW235677   5.865   4.091   6.855
44594SOL     OW35678   1.111   4.412   2.894
44594SOL    HW135679   1.019   4.407   2.866
44594SOL    HW235680   1.118   4.346   2.963
44595SOL     OW35681   0.493   7.826   2.791
44595SOL    HW135682   0.448   7.904   2.825
44595SOL    HW235683   0.586   7.848   2.795
44596SOL     OW35684   7.349   7.058   0.563
44596SOL    HW135685   7.262   7.048   0.525
44596SOL    HW235686   7.409   7.028   0.495
44597SOL     OW35687   6.862   2.142   6.611
44597SOL    HW135688   6.793   2.191   6.567
44597SOL    HW235689   6.896   2.082   6.544
44598SOL     OW35690   3.101  14.175   1.859
44598SOL    HW135691   3.145  14.256   1.885
44598SOL    HW235692   3.173  14.117   1.833
44599SOL     OW35693   7.955   3.464   7.779
44599SOL    HW135694   7.865   3.434   7.795
44599SOL    HW235695   7.948   3.560   7.778
44600SOL     OW35696  13.116  11.026  12.792
44600SOL    HW135697  13.073  10.989  12.715
44600SOL    HW235698  13.045  11.066  12.842
44601SOL     OW35699   9.223   5.071  10.008
44601SOL    HW135700   9.191   5.156   9.978
44601SOL    HW235701   9.167   5.007   9.964
44602SOL     OW35702  14.774  13.896   3.104
44602SOL    HW135703  14.684  13.865   3.098
44602SOL    HW235704  14.808  13.858   3.185
44603SOL     OW35705   2.913   5.597   7.950
44603SOL    HW135706   2.975   5.667   7.970
44603SOL    HW235707   2.932   5.529   8.016
44604SOL     OW35708   0.907   6.847   0.011
44604SOL    HW135709   0.992   6.886   0.032
44604SOL    HW235710   0.876   6.896  14.803
44605SOL     OW35711   7.883  14.427   9.558
44605SOL    HW135712   7.852  14.514   9.532
44605SOL    HW235713   7.897  14.434   9.653
44606SOL     OW35714   9.358   0.857  13.174
44606SOL    HW135715   9.287   0.921  13.175
44606SOL    HW235716   9.436   0.908  13.195
44607SOL     OW35717   9.243   5.790  10.895
44607SOL    HW135718   9.200   5.866  10.934
44607SOL    HW235719   9.182   5.717  10.912
44608SOL     OW35720   0.117   0.643   7.471
44608SOL    HW135721   0.075   0.590   7.539
44608SOL    HW235722   0.184   0.587   7.434
44609SOL     OW35723   0.597   1.927   9.208
44609SOL    HW135724   0.510   1.952   9.176
44609SOL    HW235725   0.644   2.010   9.215
44610SOL     OW35726  14.554  12.816   8.554
44610SOL    HW135727  14.472  12.857   8.583
44610SOL    HW235728  14.530  12.725   8.536
44611SOL     OW35729   7.035   2.811   2.438
44611SOL    HW135730   6.990   2.784   2.359
44611SOL    HW235731   6.967   2.816   2.505
44612SOL     OW35732   9.261  12.289   7.879
44612SOL    HW135733   9.253  12.234   7.956
44612SOL    HW235734   9.280  12.228   7.807
44613SOL     OW35735  10.577   0.684   6.059
44613SOL    HW135736  10.645   0.629   6.018
44613SOL    HW235737  10.542   0.630   6.129
44614SOL     OW35738  10.160   0.372   5.231
44614SOL    HW135739  10.085   0.351   5.286
44614SOL    HW235740  10.235   0.330   5.274
44615SOL     OW35741  14.848  11.060   9.083
44615SOL    HW135742  14.776  11.100   9.131
44615SOL    HW235743  14.812  11.041   8.997
44616SOL     OW35744   1.680  12.620  14.798
44616SOL    HW135745   1.690  12.618  14.703
44616SOL    HW235746   1.648  12.532  14.820
44617SOL     OW35747  12.698   2.826   5.054
44617SOL    HW135748  12.670   2.874   5.132
44617SOL    HW235749  12.740   2.892   4.999
44618SOL     OW35750   1.267  10.303   4.183
44618SOL    HW135751   1.286  10.265   4.097
44618SOL    HW235752   1.331  10.262   4.241
44619SOL     OW35753  14.651  14.538  10.088
44619SOL    HW135754  14.671  14.509   9.999
44619SOL    HW235755  14.564  14.503  10.107
44620SOL     OW35756   7.375   1.060   0.430
44620SOL    HW135757   7.300   1.009   0.399
44620SOL    HW235758   7.362   1.066   0.525
44621SOL     OW35759   7.768   8.945  12.982
44621SOL    HW135760   7.699   8.880  12.995
44621SOL    HW235761   7.781   8.948  12.887
44622SOL     OW35762   9.794  10.010   3.081
44622SOL    HW135763   9.869   9.957   3.108
44622SOL    HW235764   9.733   9.947   3.043
44623SOL     OW35765   2.676   9.669   9.803
44623SOL    HW135766   2.668   9.742   9.742
44623SOL    HW235767   2.650   9.705   9.888
44624SOL     OW35768  14.000   0.057  14.465
44624SOL    HW135769  13.980   0.148  14.487
44624SOL    HW235770  13.918   0.022  14.431
44625SOL     OW35771   3.341  11.355   9.133
44625SOL    HW135772   3.313  11.297   9.062
44625SOL    HW235773   3.261  11.374   9.182
44626SOL     OW35774   5.300  10.061   9.101
44626SOL    HW135775   5.329  10.059   9.192
44626SOL    HW235776   5.296  10.154   9.079
44627SOL     OW35777   3.500  13.386   1.804
44627SOL    HW135778   3.566  13.449   1.774
44627SOL    HW235779   3.453  13.362   1.724
44628SOL     OW35780   9.711   6.947   8.172
44628SOL    HW135781   9.621   6.914   8.176
44628SOL    HW235782   9.719   6.984   8.084
44629SOL     OW35783   2.765   0.187  13.646
44629SOL    HW135784   2.731   0.155  13.562
44629SOL    HW235785   2.721   0.132  13.712
44630SOL     OW35786   9.740   6.526   9.379
44630SOL    HW135787   9.678   6.497   9.312
44630SOL    HW235788   9.691   6.586   9.434
44631SOL     OW35789   8.455   5.937   8.016
44631SOL    HW135790   8.536   5.986   8.032
44631SOL    HW235791   8.401   5.954   8.094
44632SOL     OW35792   9.909  13.100   9.683
44632SOL    HW135793   9.912  13.196   9.685
44632SOL    HW235794   9.889  13.078   9.592
44633SOL     OW35795  12.874   1.051   0.812
44633SOL    HW135796  12.954   0.999   0.802
44633SOL    HW235797  12.812   0.992   0.855
44634SOL     OW35798   7.410   0.544   7.751
44634SOL    HW135799   7.485   0.563   7.693
44634SOL    HW235800   7.336   0.589   7.710
44635SOL     OW35801   8.086   1.475   6.493
44635SOL    HW135802   8.015   1.497   6.554
44635SOL    HW235803   8.041   1.458   6.410
44636SOL     OW35804   9.725   1.213   7.580
44636SOL    HW135805   9.663   1.255   7.640
44636SOL    HW235806   9.789   1.172   7.638
44637SOL     OW35807   6.109   3.965  14.029
44637SOL    HW135808   6.150   3.882  14.005
44637SOL    HW235809   6.177   4.012  14.078
44638SOL     OW35810  10.538   3.926   9.928
44638SOL    HW135811  10.622   3.956   9.962
44638SOL    HW235812  10.491   4.007   9.905
44639SOL     OW35813   1.815   5.140   0.396
44639SOL    HW135814   1.853   5.227   0.391
44639SOL    HW235815   1.748   5.139   0.327
44640SOL     OW35816   5.461   4.036   1.237
44640SOL    HW135817   5.505   4.005   1.158
44640SOL    HW235818   5.429   4.123   1.214
44641SOL     OW35819   6.127   8.862   7.248
44641SOL    HW135820   6.201   8.909   7.210
44641SOL    HW235821   6.054   8.878   7.187
44642SOL     OW35822   8.078   0.713  12.881
44642SOL    HW135823   8.109   0.629  12.845
44642SOL    HW235824   8.001   0.735  12.828
44643SOL     OW35825  11.479   3.995  12.019
44643SOL    HW135826  11.542   4.053  12.061
44643SOL    HW235827  11.394   4.027  12.049
44644SOL     OW35828   7.863  10.450   6.246
44644SOL    HW135829   7.800  10.505   6.294
44644SOL    HW235830   7.861  10.366   6.294
44645SOL     OW35831   1.079   7.697  12.513
44645SOL    HW135832   1.145   7.669  12.576
44645SOL    HW235833   1.128   7.748  12.448
44646SOL     OW35834   4.051  11.887  10.924
44646SOL    HW135835   4.060  11.830  10.847
44646SOL    HW235836   3.987  11.953  10.898
44647SOL     OW35837  14.029  12.267   5.408
44647SOL    HW135838  13.957  12.204   5.403
44647SOL    HW235839  14.076  12.244   5.488
44648SOL     OW35840   5.928  12.705   7.709
44648SOL    HW135841   5.926  12.722   7.803
44648SOL    HW235842   5.946  12.611   7.702
44649SOL     OW35843  13.697  11.534   2.007
44649SOL    HW135844  13.656  11.461   2.054
44649SOL    HW235845  13.631  11.563   1.945
44650SOL     OW35846   1.165   1.443   3.276
44650SOL    HW135847   1.167   1.387   3.354
44650SOL    HW235848   1.222   1.517   3.298
44651SOL     OW35849   7.991  12.157   4.257
44651SOL    HW135850   8.020  12.132   4.169
44651SOL    HW235851   7.966  12.249   4.248
44652SOL     OW35852   8.691  11.600  13.492
44652SOL    HW135853   8.728  11.579  13.406
44652SOL    HW235854   8.709  11.522  13.545
44653SOL     OW35855   3.923   7.739   1.445
44653SOL    HW135856   3.969   7.673   1.497
44653SOL    HW235857   3.967   7.821   1.465
44654SOL     OW35858   2.209   4.510  10.863
44654SOL    HW135859   2.124   4.547  10.837
44654SOL    HW235860   2.209   4.423  10.824
44655SOL     OW35861  12.741   8.765  13.353
44655SOL    HW135862  12.682   8.820  13.302
44655SOL    HW235863  12.790   8.716  13.288
44656SOL     OW35864   0.872   7.383  12.819
44656SOL    HW135865   0.911   7.299  12.843
44656SOL    HW235866   0.904   7.444  12.885
44657SOL     OW35867   9.950   8.573  14.621
44657SOL    HW135868   9.928   8.546  14.532
44657SOL    HW235869  10.027   8.520  14.643
44658SOL     OW35870   3.615  11.093   0.449
44658SOL    HW135871   3.599  11.003   0.420
44658SOL    HW235872   3.596  11.147   0.372
44659SOL     OW35873  11.845  11.104  12.612
44659SOL    HW135874  11.840  11.101  12.708
44659SOL    HW235875  11.864  11.015  12.586
44660SOL     OW35876   8.683   2.967   8.355
44660SOL    HW135877   8.744   2.907   8.399
44660SOL    HW235878   8.706   3.053   8.389
44661SOL     OW35879   6.090   2.469   8.333
44661SOL    HW135880   6.001   2.449   8.306
44661SOL    HW235881   6.086   2.470   8.429
44662SOL     OW35882   5.467  12.145   6.241
44662SOL    HW135883   5.531  12.177   6.304
44662SOL    HW235884   5.438  12.061   6.277
44663SOL     OW35885   4.359  12.793  11.308
44663SOL    HW135886   4.321  12.758  11.389
44663SOL    HW235887   4.288  12.786  11.244
44664SOL     OW35888   9.805  10.416   1.984
44664SOL    HW135889   9.762  10.497   1.955
44664SOL    HW235890   9.751  10.346   1.948
44665SOL     OW35891   8.539   0.905   5.570
44665SOL    HW135892   8.593   0.979   5.600
44665SOL    HW235893   8.573   0.829   5.617
44666SOL     OW35894  13.795   6.864   0.277
44666SOL    HW135895  13.719   6.811   0.304
44666SOL    HW235896  13.761   6.953   0.270
44667SOL     OW35897   3.323  14.022   1.817
44667SOL    HW135898   3.417  14.002   1.814
44667SOL    HW235899   3.287  13.957   1.877
44668SOL     OW35900   8.556  14.022   6.269
44668SOL    HW135901   8.643  14.031   6.309
44668SOL    HW235902   8.574  14.021   6.175
44669SOL     OW35903  11.292  13.920  13.583
44669SOL    HW135904  11.286  13.911  13.679
44669SOL    HW235905  11.368  13.975  13.568
44670SOL     OW35906   3.707  10.668  11.850
44670SOL    HW135907   3.644  10.665  11.922
44670SOL    HW235908   3.659  10.711  11.778
44671SOL     OW35909   5.087   8.805   1.242
44671SOL    HW135910   5.063   8.897   1.248
44671SOL    HW235911   5.154   8.792   1.308
44672SOL     OW35912   1.458   1.089  13.007
44672SOL    HW135913   1.487   1.020  12.948
44672SOL    HW235914   1.398   1.046  13.067
44673SOL     OW35915   9.852   7.702  14.456
44673SOL    HW135916   9.855   7.645  14.532
44673SOL    HW235917   9.760   7.701  14.428
44674SOL     OW35918  13.352  12.785  14.368
44674SOL    HW135919  13.438  12.744  14.359
44674SOL    HW235920  13.292  12.724  14.325
44675SOL     OW35921  14.066   5.761   1.797
44675SOL    HW135922  14.157   5.777   1.821
44675SOL    HW235923  14.070   5.693   1.729
44676SOL     OW35924   5.956  12.197  10.693
44676SOL    HW135925   5.892  12.137  10.730
44676SOL    HW235926   5.973  12.163  10.605
44677SOL     OW35927   6.781   1.848   6.065
44677SOL    HW135928   6.839   1.786   6.109
44677SOL    HW235929   6.789   1.929   6.115
44678SOL     OW35930   0.470   7.095   6.098
44678SOL    HW135931   0.445   7.187   6.104
44678SOL    HW235932   0.548   7.088   6.153
44679SOL     OW35933   1.023   2.065   5.754
44679SOL    HW135934   1.089   2.129   5.724
44679SOL    HW235935   1.037   1.989   5.697
44680SOL     OW35936   0.614   7.646   4.441
44680SOL    HW135937   0.566   7.600   4.372
44680SOL    HW235938   0.547   7.698   4.487
44681SOL     OW35939   4.327   4.885   6.043
44681SOL    HW135940   4.282   4.968   6.057
44681SOL    HW235941   4.259   4.818   6.051
44682SOL     OW35942   2.269  11.350  11.388
44682SOL    HW135943   2.273  11.443  11.368
44682SOL    HW235944   2.322  11.308  11.320
44683SOL     OW35945   7.773  10.699   0.194
44683SOL    HW135946   7.862  10.731   0.205
44683SOL    HW235947   7.726  10.773   0.154
44684SOL     OW35948   5.455   9.966   7.275
44684SOL    HW135949   5.463  10.062   7.269
44684SOL    HW235950   5.389   9.951   7.342
44685SOL     OW35951   9.727   5.739   6.162
44685SOL    HW135952   9.745   5.748   6.068
44685SOL    HW235953   9.640   5.699   6.166
44686SOL     OW35954  10.823   7.465   0.153
44686SOL    HW135955  10.918   7.473   0.154
44686SOL    HW235956  10.807   7.386   0.100
44687SOL     OW35957  12.752   0.743   4.383
44687SOL    HW135958  12.797   0.705   4.307
44687SOL    HW235959  12.817   0.799   4.424
44688SOL     OW35960   7.152   2.695   6.399
44688SOL    HW135961   7.109   2.762   6.452
44688SOL    HW235962   7.098   2.617   6.409
44689SOL     OW35963  10.553  10.180  11.408
44689SOL    HW135964  10.574  10.272  11.391
44689SOL    HW235965  10.541  10.142  11.321
44690SOL     OW35966   4.143   6.669   5.162
44690SOL    HW135967   4.197   6.678   5.240
44690SOL    HW235968   4.177   6.734   5.101
44691SOL     OW35969  11.007  11.678   0.594
44691SOL    HW135970  11.087  11.727   0.575
44691SOL    HW235971  10.937  11.730   0.553
44692SOL     OW35972  12.069  14.098   6.203
44692SOL    HW135973  12.085  14.125   6.293
44692SOL    HW235974  11.983  14.058   6.205
44693SOL     OW35975   0.180   6.271   8.575
44693SOL    HW135976   0.213   6.352   8.538
44693SOL    HW235977   0.256   6.229   8.615
44694SOL     OW35978   0.606   8.645  12.957
44694SOL    HW135979   0.564   8.653  13.042
44694SOL    HW235980   0.534   8.626  12.897
44695SOL     OW35981   8.301   8.565   0.568
44695SOL    HW135982   8.331   8.607   0.648
44695SOL    HW235983   8.346   8.481   0.567
44696SOL     OW35984   1.949   4.925  11.626
44696SOL    HW135985   1.862   4.935  11.586
44696SOL    HW235986   1.998   4.873  11.563
44697SOL     OW35987   7.311  11.317   6.895
44697SOL    HW135988   7.337  11.341   6.806
44697SOL    HW235989   7.348  11.385   6.951
44698SOL     OW35990   4.725  12.934   0.963
44698SOL    HW135991   4.694  12.973   0.882
44698SOL    HW235992   4.818  12.917   0.948
44699SOL     OW35993   5.605   5.320   7.133
44699SOL    HW135994   5.525   5.355   7.172
44699SOL    HW235995   5.665   5.395   7.129
44700SOL     OW35996   5.557   4.241   6.918
44700SOL    HW135997   5.612   4.220   6.843
44700SOL    HW235998   5.538   4.334   6.909
44701SOL     OW35999  11.438   9.360   4.974
44701SOL    HW136000  11.357   9.377   5.022
44701SOL    HW236001  11.427   9.406   4.891
44702SOL     OW36002   2.077   5.935   6.682
44702SOL    HW136003   2.137   6.010   6.681
44702SOL    HW236004   2.099   5.885   6.604
44703SOL     OW36005   7.572   0.239  11.250
44703SOL    HW136006   7.488   0.237  11.204
44703SOL    HW236007   7.625   0.303  11.202
44704SOL     OW36008   8.495   0.386   7.750
44704SOL    HW136009   8.511   0.357   7.839
44704SOL    HW236010   8.504   0.306   7.697
44705SOL     OW36011  12.614  13.480  11.253
44705SOL    HW136012  12.536  13.469  11.198
44705SOL    HW236013  12.666  13.402  11.236
44706SOL     OW36014  11.875  12.217   4.111
44706SOL    HW136015  11.862  12.130   4.148
44706SOL    HW236016  11.953  12.209   4.057
44707SOL     OW36017   1.552  11.723   6.798
44707SOL    HW136018   1.490  11.689   6.733
44707SOL    HW236019   1.624  11.758   6.746
44708SOL     OW36020   9.897   4.720   8.352
44708SOL    HW136021   9.916   4.626   8.351
44708SOL    HW236022   9.975   4.759   8.392
44709SOL     OW36023  11.610  14.541   5.835
44709SOL    HW136024  11.679  14.604   5.856
44709SOL    HW236025  11.565  14.525   5.918
44710SOL     OW36026   9.540   2.314  12.470
44710SOL    HW136027   9.629   2.286  12.446
44710SOL    HW236028   9.487   2.234  12.461
44711SOL     OW36029  13.649  14.132   0.306
44711SOL    HW136030  13.686  14.092   0.384
44711SOL    HW236031  13.625  14.221   0.333
44712SOL     OW36032   3.522   0.868  13.899
44712SOL    HW136033   3.455   0.936  13.900
44712SOL    HW236034   3.473   0.786  13.902
44713SOL     OW36035   5.574   0.030   7.163
44713SOL    HW136036   5.546   0.104   7.110
44713SOL    HW236037   5.627   0.068   7.232
44714SOL     OW36038  14.039   3.597  11.481
44714SOL    HW136039  14.129   3.570  11.462
44714SOL    HW236040  13.985   3.543  11.423
44715SOL     OW36041   1.827  10.280   3.324
44715SOL    HW136042   1.901  10.231   3.363
44715SOL    HW236043   1.758  10.215   3.315
44716SOL     OW36044  14.770  10.028   6.565
44716SOL    HW136045  14.750   9.939   6.595
44716SOL    HW236046  14.753  10.083   6.641
44717SOL     OW36047   9.910  14.079  13.180
44717SOL    HW136048   9.824  14.046  13.206
44717SOL    HW236049   9.972  14.024  13.227
44718SOL     OW36050   8.804   6.369  12.917
44718SOL    HW136051   8.816   6.423  12.839
44718SOL    HW236052   8.757   6.425  12.979
44719SOL     OW36053  14.841  11.509   2.700
44719SOL    HW136054  14.819  11.577   2.636
44719SOL    HW236055   0.060  11.533   2.731
44720SOL     OW36056   6.030   1.260   4.384
44720SOL    HW136057   6.118   1.259   4.345
44720SOL    HW236058   6.044   1.285   4.475
44721SOL     OW36059   9.460   2.826   9.627
44721SOL    HW136060   9.541   2.854   9.584
44721SOL    HW236061   9.391   2.866   9.575
44722SOL     OW36062  13.767   9.791  12.923
44722SOL    HW136063  13.837   9.730  12.903
44722SOL    HW236064  13.743   9.772  13.014
44723SOL     OW36065  10.747   4.531  11.625
44723SOL    HW136066  10.723   4.596  11.691
44723SOL    HW236067  10.715   4.448  11.661
44724SOL     OW36068   9.258   9.146   2.003
44724SOL    HW136069   9.226   9.066   1.961
44724SOL    HW236070   9.194   9.164   2.072
44725SOL     OW36071   5.740   3.665  11.946
44725SOL    HW136072   5.716   3.627  12.030
44725SOL    HW236073   5.823   3.624  11.923
44726SOL     OW36074   2.652   4.960  11.476
44726SOL    HW136075   2.710   5.024  11.435
44726SOL    HW236076   2.693   4.940  11.560
44727SOL     OW36077   3.857   1.875   8.317
44727SOL    HW136078   3.788   1.911   8.260
44727SOL    HW236079   3.820   1.793   8.350
44728SOL     OW36080   5.327  14.054   0.919
44728SOL    HW136081   5.390  14.021   0.855
44728SOL    HW236082   5.366  14.033   1.004
44729SOL     OW36083   9.059   7.025   9.643
44729SOL    HW136084   9.027   7.005   9.554
44729SOL    HW236085   9.068   6.939   9.684
44730SOL     OW36086  11.203   7.319   6.749
44730SOL    HW136087  11.284   7.291   6.706
44730SOL    HW236088  11.216   7.412   6.768
44731SOL     OW36089  11.525   0.242  14.760
44731SOL    HW136090  11.524   0.309  14.691
44731SOL    HW236091  11.530   0.292  14.841
44732SOL     OW36092   0.146   1.954  13.395
44732SOL    HW136093   0.214   1.930  13.332
44732SOL    HW236094   0.076   1.989  13.341
44733SOL     OW36095   2.217  12.737  10.639
44733SOL    HW136096   2.150  12.758  10.703
44733SOL    HW236097   2.170  12.721  10.557
44734SOL     OW36098   3.339   8.328  14.420
44734SOL    HW136099   3.389   8.405  14.395
44734SOL    HW236100   3.404   8.257  14.426
44735SOL     OW36101   3.609  14.395  11.990
44735SOL    HW136102   3.660  14.463  11.945
44735SOL    HW236103   3.657  14.379  12.072
44736SOL     OW36104   7.651   8.411   4.000
44736SOL    HW136105   7.567   8.452   3.979
44736SOL    HW236106   7.635   8.317   3.991
44737SOL     OW36107   5.866  10.449  13.722
44737SOL    HW136108   5.791  10.491  13.680
44737SOL    HW236109   5.855  10.356  13.703
44738SOL     OW36110   0.639   7.900   3.236
44738SOL    HW136111   0.657   7.876   3.145
44738SOL    HW236112   0.544   7.898   3.244
44739SOL     OW36113  14.177   0.393  14.183
44739SOL    HW136114  14.095   0.414  14.228
44739SOL    HW236115  14.197   0.473  14.133
44740SOL     OW36116   6.585   6.992  10.317
44740SOL    HW136117   6.531   6.948  10.251
44740SOL    HW236118   6.559   6.951  10.400
44741SOL     OW36119  13.047   3.161   3.627
44741SOL    HW136120  13.016   3.221   3.559
44741SOL    HW236121  13.140   3.180   3.636
44742SOL     OW36122   4.206   6.357  10.109
44742SOL    HW136123   4.261   6.280  10.096
44742SOL    HW236124   4.185   6.357  10.202
44743SOL     OW36125   6.140   1.591   3.472
44743SOL    HW136126   6.090   1.511   3.453
44743SOL    HW236127   6.231   1.561   3.479
44744SOL     OW36128  14.776  14.578   8.258
44744SOL    HW136129  14.788  14.602   8.167
44744SOL    HW236130  14.807  14.487   8.263
44745SOL     OW36131   3.472   8.946  11.376
44745SOL    HW136132   3.532   8.997  11.430
44745SOL    HW236133   3.527   8.909  11.307
44746SOL     OW36134   4.953   9.212   9.447
44746SOL    HW136135   5.030   9.173   9.487
44746SOL    HW236136   4.879   9.169   9.490
44747SOL     OW36137  11.424   1.133  11.836
44747SOL    HW136138  11.351   1.180  11.797
44747SOL    HW236139  11.496   1.146  11.775
44748SOL     OW36140   0.672   4.218   9.296
44748SOL    HW136141   0.708   4.132   9.319
44748SOL    HW236142   0.749   4.275   9.289
44749SOL     OW36143   3.834  10.950  12.734
44749SOL    HW136144   3.869  11.013  12.671
44749SOL    HW236145   3.779  10.892  12.682
44750SOL     OW36146   8.840   0.567  12.200
44750SOL    HW136147   8.785   0.537  12.128
44750SOL    HW236148   8.875   0.651  12.171
44751SOL     OW36149  13.459   1.435  14.369
44751SOL    HW136150  13.511   1.499  14.321
44751SOL    HW236151  13.519   1.400  14.435
44752SOL     OW36152   5.330   3.058  12.691
44752SOL    HW136153   5.254   3.104  12.728
44752SOL    HW236154   5.403   3.118  12.705
44753SOL     OW36155   2.704   9.133  13.131
44753SOL    HW136156   2.701   9.055  13.075
44753SOL    HW236157   2.770   9.189  13.091
44754SOL     OW36158   6.231   6.853  14.420
44754SOL    HW136159   6.138   6.870  14.436
44754SOL    HW236160   6.269   6.940  14.407
44755SOL     OW36161  12.770  11.754   4.606
44755SOL    HW136162  12.772  11.658   4.604
44755SOL    HW236163  12.730  11.779   4.523
44756SOL     OW36164  13.167   6.895   1.941
44756SOL    HW136165  13.205   6.827   1.884
44756SOL    HW236166  13.147   6.850   2.023
44757SOL     OW36167   7.408   9.870   5.997
44757SOL    HW136168   7.346   9.822   5.942
44757SOL    HW236169   7.424   9.952   5.950
44758SOL     OW36170   8.413  10.678   5.054
44758SOL    HW136171   8.422  10.645   5.143
44758SOL    HW236172   8.355  10.615   5.011
44759SOL     OW36173   8.448   4.284   2.059
44759SOL    HW136174   8.454   4.210   1.999
44759SOL    HW236175   8.357   4.283   2.090
44760SOL     OW36176  12.635   1.865   5.965
44760SOL    HW136177  12.717   1.831   6.000
44760SOL    HW236178  12.651   1.875   5.871
44761SOL     OW36179   3.730   7.155   3.197
44761SOL    HW136180   3.683   7.236   3.177
44761SOL    HW236181   3.660   7.092   3.217
44762SOL     OW36182   5.313   7.470   5.807
44762SOL    HW136183   5.386   7.527   5.832
44762SOL    HW236184   5.244   7.530   5.779
44763SOL     OW36185   4.244   4.428   5.160
44763SOL    HW136186   4.155   4.404   5.137
44763SOL    HW236187   4.236   4.516   5.198
44764SOL     OW36188   8.439   8.081   9.568
44764SOL    HW136189   8.454   7.987   9.554
44764SOL    HW236190   8.348   8.095   9.540
44765SOL     OW36191   0.750   3.963   6.147
44765SOL    HW136192   0.749   3.874   6.111
44765SOL    HW236193   0.809   4.011   6.090
44766SOL     OW36194   6.865   6.098   1.378
44766SOL    HW136195   6.815   6.032   1.426
44766SOL    HW236196   6.956   6.070   1.386
44767SOL     OW36197   9.200   7.863   3.471
44767SOL    HW136198   9.209   7.950   3.431
44767SOL    HW236199   9.263   7.863   3.543
44768SOL     OW36200   0.918   0.313  13.356
44768SOL    HW136201   0.997   0.293  13.406
44768SOL    HW236202   0.896   0.231  13.312
44769SOL     OW36203   5.698   2.720  11.043
44769SOL    HW136204   5.699   2.782  11.116
44769SOL    HW236205   5.772   2.661  11.060
44770SOL     OW36206   7.874   0.417   5.407
44770SOL    HW136207   7.813   0.484   5.378
44770SOL    HW236208   7.960   0.449   5.380
44771SOL     OW36209   0.425   9.450   2.034
44771SOL    HW136210   0.343   9.482   1.997
44771SOL    HW236211   0.451   9.377   1.977
44772SOL     OW36212   8.384  13.723   7.100
44772SOL    HW136213   8.369  13.717   7.005
44772SOL    HW236214   8.345  13.806   7.125
44773SOL     OW36215   8.633   0.316   0.759
44773SOL    HW136216   8.553   0.362   0.733
44773SOL    HW236217   8.702   0.358   0.707
44774SOL     OW36218   2.199   5.467   7.067
44774SOL    HW136219   2.106   5.490   7.058
44774SOL    HW236220   2.239   5.498   6.986
44775SOL     OW36221  14.688  10.689  11.366
44775SOL    HW136222  14.663  10.703  11.457
44775SOL    HW236223  14.782  10.673  11.369
44776SOL     OW36224   5.457  10.581  12.899
44776SOL    HW136225   5.406  10.594  12.979
44776SOL    HW236226   5.526  10.520  12.924
44777SOL     OW36227   7.836   5.657  12.471
44777SOL    HW136228   7.834   5.752  12.457
44777SOL    HW236229   7.749   5.627  12.444
44778SOL     OW36230  11.191   7.225   9.494
44778SOL    HW136231  11.272   7.221   9.444
44778SOL    HW236232  11.214   7.188   9.579
44779SOL     OW36233  14.810   9.720   2.953
44779SOL    HW136234  14.724   9.720   2.994
44779SOL    HW236235  14.858   9.651   2.999
44780SOL     OW36236   7.554   9.489   0.031
44780SOL    HW136237   7.488   9.558   0.037
44780SOL    HW236238   7.607   9.513  14.822
44781SOL     OW36239   7.651   8.727   5.390
44781SOL    HW136240   7.745   8.731   5.406
44781SOL    HW236241   7.617   8.675   5.463
44782SOL     OW36242   9.029   5.278  10.421
44782SOL    HW136243   9.114   5.295  10.382
44782SOL    HW236244   8.971   5.262  10.346
44783SOL     OW36245   9.981   7.901   4.925
44783SOL    HW136246   9.888   7.882   4.915
44783SOL    HW236247   9.984   7.992   4.955
44784SOL     OW36248   9.331   2.061  11.878
44784SOL    HW136249   9.347   2.021  11.963
44784SOL    HW236250   9.289   2.145  11.898
44785SOL     OW36251  13.622   4.724   3.576
44785SOL    HW136252  13.681   4.749   3.647
44785SOL    HW236253  13.614   4.803   3.523
44786SOL     OW36254   4.604   2.952   0.141
44786SOL    HW136255   4.557   2.869   0.135
44786SOL    HW236256   4.567   2.995   0.217
44787SOL     OW36257   1.562  11.831   6.195
44787SOL    HW136258   1.531  11.785   6.272
44787SOL    HW236259   1.484  11.845   6.142
44788SOL     OW36260  11.282   1.831   7.814
44788SOL    HW136261  11.191   1.800   7.822
44788SOL    HW236262  11.275   1.926   7.816
44789SOL     OW36263   5.727   8.141   7.101
44789SOL    HW136264   5.631   8.136   7.104
44789SOL    HW236265   5.750   8.099   7.018
44790SOL     OW36266   9.499   9.786   7.125
44790SOL    HW136267   9.537   9.778   7.037
44790SOL    HW236268   9.431   9.719   7.127
44791SOL     OW36269  14.466  14.510   5.732
44791SOL    HW136270  14.448  14.447   5.663
44791SOL    HW236271  14.474  14.594   5.687
44792SOL     OW36272   2.017  11.991   0.570
44792SOL    HW136273   1.963  11.927   0.617
44792SOL    HW236274   1.973  12.001   0.485
44793SOL     OW36275   4.780   2.310   3.314
44793SOL    HW136276   4.791   2.223   3.277
44793SOL    HW236277   4.869   2.344   3.324
44794SOL     OW36278  11.225  13.143   7.483
44794SOL    HW136279  11.278  13.162   7.405
44794SOL    HW236280  11.261  13.060   7.515
44795SOL     OW36281  10.237  14.276  11.614
44795SOL    HW136282  10.151  14.317  11.601
44795SOL    HW236283  10.224  14.185  11.588
44796SOL     OW36284   5.288  11.774   8.724
44796SOL    HW136285   5.258  11.840   8.787
44796SOL    HW236286   5.316  11.701   8.778
44797SOL     OW36287   6.751   0.168   7.404
44797SOL    HW136288   6.795   0.212   7.332
44797SOL    HW236289   6.758   0.074   7.383
44798SOL     OW36290  10.503   7.109   9.967
44798SOL    HW136291  10.599   7.104   9.968
44798SOL    HW236292  10.477   7.079  10.054
44799SOL     OW36293   4.309   3.282   0.655
44799SOL    HW136294   4.314   3.306   0.747
44799SOL    HW236295   4.218   3.302   0.630
44800SOL     OW36296  10.226  11.873   1.916
44800SOL    HW136297  10.146  11.875   1.863
44800SOL    HW236298  10.201  11.914   1.999
44801SOL     OW36299   0.463  14.609   4.466
44801SOL    HW136300   0.403  14.559   4.411
44801SOL    HW236301   0.418  14.691   4.485
44802SOL     OW36302   0.041   7.671   5.925
44802SOL    HW136303   0.065   7.669   5.833
44802SOL    HW236304   0.021   7.579   5.947
44803SOL     OW36305  11.179   0.195  14.776
44803SOL    HW136306  11.197   0.179   0.000
44803SOL    HW236307  11.084   0.204  14.771
44804SOL     OW36308   7.575   3.077   7.699
44804SOL    HW136309   7.504   3.140   7.712
44804SOL    HW236310   7.624   3.111   7.624
44805SOL     OW36311   2.830  12.290  10.560
44805SOL    HW136312   2.752  12.300  10.615
44805SOL    HW236313   2.891  12.240  10.613
44806SOL     OW36314  14.783   1.054   9.765
44806SOL    HW136315  14.711   1.007   9.808
44806SOL    HW236316  14.740   1.127   9.721
44807SOL     OW36317   0.372   3.307   0.593
44807SOL    HW136318   0.408   3.396   0.605
44807SOL    HW236319   0.287   3.310   0.637
44808SOL     OW36320  13.448   6.345   8.151
44808SOL    HW136321  13.377   6.304   8.101
44808SOL    HW236322  13.440   6.309   8.239
44809SOL     OW36323   0.332   1.691   6.130
44809SOL    HW136324   0.396   1.638   6.083
44809SOL    HW236325   0.343   1.666   6.222
44810SOL     OW36326   6.580   3.637   3.989
44810SOL    HW136327   6.648   3.578   4.021
44810SOL    HW236328   6.585   3.713   4.047
44811SOL     OW36329   6.625  12.855  13.883
44811SOL    HW136330   6.596  12.871  13.972
44811SOL    HW236331   6.620  12.760  13.872
44812SOL     OW36332   8.882  14.424   8.451
44812SOL    HW136333   8.879  14.513   8.414
44812SOL    HW236334   8.804  14.381   8.416
44813SOL     OW36335  11.275   4.211   5.310
44813SOL    HW136336  11.278   4.119   5.334
44813SOL    HW236337  11.284   4.212   5.215
44814SOL     OW36338   5.723   0.014   2.150
44814SOL    HW136339   5.667   0.050   2.081
44814SOL    HW236340   5.797   0.075   2.155
44815SOL     OW36341   5.591  13.823   9.743
44815SOL    HW136342   5.596  13.885   9.670
44815SOL    HW236343   5.587  13.737   9.702
44816SOL     OW36344   2.043   8.445   2.726
44816SOL    HW136345   1.967   8.489   2.688
44816SOL    HW236346   2.070   8.502   2.799
44817SOL     OW36347   2.573   0.002   7.366
44817SOL    HW136348   2.637  14.837   7.303
44817SOL    HW236349   2.609  14.846   7.452
44818SOL     OW36350  10.245  12.868   3.051
44818SOL    HW136351  10.212  12.779   3.035
44818SOL    HW236352  10.175  12.910   3.101
44819SOL     OW36353  10.843   0.476   7.731
44819SOL    HW136354  10.936   0.472   7.754
44819SOL    HW236355  10.822   0.569   7.733
44820SOL     OW36356  10.034   0.772   3.771
44820SOL    HW136357  10.120   0.735   3.790
44820SOL    HW236358  10.007   0.813   3.853
44821SOL     OW36359  12.708  10.217   4.163
44821SOL    HW136360  12.632  10.176   4.204
44821SOL    HW236361  12.681  10.232   4.072
44822SOL     OW36362   7.988   8.179   6.319
44822SOL    HW136363   7.924   8.245   6.346
44822SOL    HW236364   7.935   8.103   6.295
44823SOL     OW36365   1.661   5.245   5.192
44823SOL    HW136366   1.601   5.320   5.185
44823SOL    HW236367   1.637   5.188   5.119
44824SOL     OW36368   5.438  10.456   7.506
44824SOL    HW136369   5.399  10.507   7.435
44824SOL    HW236370   5.496  10.518   7.551
44825SOL     OW36371  13.268   3.584   8.203
44825SOL    HW136372  13.364   3.583   8.207
44825SOL    HW236373  13.243   3.492   8.197
44826SOL     OW36374  12.337   4.809   9.511
44826SOL    HW136375  12.427   4.822   9.482
44826SOL    HW236376  12.323   4.714   9.506
44827SOL     OW36377   1.202   1.512   3.004
44827SOL    HW136378   1.183   1.497   3.097
44827SOL    HW236379   1.148   1.447   2.958
44828SOL     OW36380  11.358   0.281   1.731
44828SOL    HW136381  11.385   0.192   1.754
44828SOL    HW236382  11.263   0.282   1.746
44829SOL     OW36383   4.239  11.032  14.544
44829SOL    HW136384   4.189  11.073  14.473
44829SOL    HW236385   4.299  10.973  14.499
44830SOL     OW36386   2.809   4.489   0.460
44830SOL    HW136387   2.724   4.504   0.419
44830SOL    HW236388   2.842   4.576   0.482
44831SOL     OW36389   8.006   5.796   4.399
44831SOL    HW136390   8.017   5.811   4.305
44831SOL    HW236391   8.001   5.884   4.436
44832SOL     OW36392   8.581  13.004   1.449
44832SOL    HW136393   8.514  13.031   1.512
44832SOL    HW236394   8.613  13.086   1.411
44833SOL     OW36395   6.390  11.309  14.675
44833SOL    HW136396   6.455  11.239  14.668
44833SOL    HW236397   6.313  11.266  14.712
44834SOL     OW36398   3.399  11.364   4.239
44834SOL    HW136399   3.370  11.300   4.304
44834SOL    HW236400   3.386  11.449   4.282
44835SOL     OW36401   6.513   8.542   9.668
44835SOL    HW136402   6.421   8.569   9.675
44835SOL    HW236403   6.561   8.623   9.653
44836SOL     OW36404  10.034   5.588   1.829
44836SOL    HW136405  10.063   5.678   1.817
44836SOL    HW236406   9.986   5.568   1.748
44837SOL     OW36407   3.566  11.338  11.129
44837SOL    HW136408   3.566  11.319  11.035
44837SOL    HW236409   3.486  11.389  11.142
44838SOL     OW36410   4.893   3.216   6.494
44838SOL    HW136411   4.984   3.232   6.520
44838SOL    HW236412   4.898   3.148   6.427
44839SOL     OW36413   7.594  11.333  14.186
44839SOL    HW136414   7.533  11.278  14.235
44839SOL    HW236415   7.672  11.279  14.176
44840SOL     OW36416   9.585  13.221   5.195
44840SOL    HW136417   9.596  13.269   5.113
44840SOL    HW236418   9.512  13.263   5.239
44841SOL     OW36419   7.566   0.713   3.248
44841SOL    HW136420   7.476   0.688   3.227
44841SOL    HW236421   7.617   0.687   3.171
44842SOL     OW36422  11.566   9.754   9.643
44842SOL    HW136423  11.581   9.682   9.581
44842SOL    HW236424  11.619   9.731   9.719
44843SOL     OW36425   1.267   0.356   8.323
44843SOL    HW136426   1.247   0.378   8.232
44843SOL    HW236427   1.362   0.348   8.325
44844SOL     OW36428   7.236   2.715   3.248
44844SOL    HW136429   7.274   2.644   3.300
44844SOL    HW236430   7.249   2.688   3.157
44845SOL     OW36431  13.081   5.805  14.150
44845SOL    HW136432  13.140   5.737  14.120
44845SOL    HW236433  13.122   5.840  14.229
44846SOL     OW36434   6.589   2.171   8.201
44846SOL    HW136435   6.676   2.133   8.212
44846SOL    HW236436   6.605   2.256   8.160
44847SOL     OW36437   2.127  10.705   1.627
44847SOL    HW136438   2.153  10.796   1.640
44847SOL    HW236439   2.191  10.654   1.677
44848SOL     OW36440   2.877   7.352   8.978
44848SOL    HW136441   2.909   7.373   9.066
44848SOL    HW236442   2.843   7.435   8.945
44849SOL     OW36443   9.604   6.267   8.161
44849SOL    HW136444   9.534   6.202   8.163
44849SOL    HW236445   9.630   6.271   8.069
44850SOL     OW36446   7.919   9.195  13.533
44850SOL    HW136447   7.858   9.135  13.490
44850SOL    HW236448   7.868   9.233  13.605
44851SOL     OW36449   9.062   1.817   0.763
44851SOL    HW136450   9.025   1.756   0.827
44851SOL    HW236451   9.138   1.856   0.807
44852SOL     OW36452   2.698   8.052  14.742
44852SOL    HW136453   2.696   8.095  14.827
44852SOL    HW236454   2.641   8.106  14.686
44853SOL     OW36455   2.965   1.090   2.954
44853SOL    HW136456   3.061   1.097   2.951
44853SOL    HW236457   2.947   1.031   3.027
44854SOL     OW36458   8.519   9.907  12.929
44854SOL    HW136459   8.437   9.955  12.944
44854SOL    HW236460   8.493   9.833  12.874
44855SOL     OW36461  10.531  13.296  10.758
44855SOL    HW136462  10.530  13.260  10.847
44855SOL    HW236463  10.472  13.371  10.762
44856SOL     OW36464   4.823  12.694   4.032
44856SOL    HW136465   4.883  12.630   4.071
44856SOL    HW236466   4.824  12.769   4.091
44857SOL     OW36467   5.976   2.992   4.030
44857SOL    HW136468   5.949   2.933   3.959
44857SOL    HW236469   5.951   2.945   4.110
44858SOL     OW36470  11.061   0.607  14.727
44858SOL    HW136471  11.096   0.691  14.754
44858SOL    HW236472  11.029   0.567  14.807
44859SOL     OW36473  13.634   0.871  14.318
44859SOL    HW136474  13.575   0.855  14.392
44859SOL    HW236475  13.605   0.954  14.281
44860SOL     OW36476   1.794   0.869  13.345
44860SOL    HW136477   1.730   0.820  13.397
44860SOL    HW236478   1.801   0.953  13.391
44861SOL     OW36479  14.411  14.805   6.575
44861SOL    HW136480  14.464  14.772   6.648
44861SOL    HW236481  14.367   0.015   6.610
44862SOL     OW36482  10.423   1.162   2.268
44862SOL    HW136483  10.355   1.129   2.209
44862SOL    HW236484  10.486   1.206   2.211
44863SOL     OW36485   8.606   5.772   6.464
44863SOL    HW136486   8.626   5.810   6.549
44863SOL    HW236487   8.668   5.699   6.454
44864SOL     OW36488  11.773  11.151  12.171
44864SOL    HW136489  11.771  11.225  12.231
44864SOL    HW236490  11.698  11.097  12.196
44865SOL     OW36491   9.129   0.740   7.580
44865SOL    HW136492   9.087   0.771   7.660
44865SOL    HW236493   9.160   0.819   7.537
44866SOL     OW36494  12.749   7.154  10.699
44866SOL    HW136495  12.679   7.170  10.636
44866SOL    HW236496  12.826   7.133  10.645
44867SOL     OW36497  10.389   8.428   9.331
44867SOL    HW136498  10.324   8.480   9.377
44867SOL    HW236499  10.426   8.371   9.398
44868SOL     OW36500   6.139   5.734   4.251
44868SOL    HW136501   6.218   5.784   4.272
44868SOL    HW236502   6.108   5.700   4.335
44869SOL     OW36503   0.048   2.020  12.371
44869SOL    HW136504   0.123   1.968  12.401
44869SOL    HW236505   0.085   2.105  12.347
44870SOL     OW36506  10.222   2.771   8.845
44870SOL    HW136507  10.314   2.747   8.858
44870SOL    HW236508  10.222   2.867   8.848
44871SOL     OW36509  14.430  10.765   5.614
44871SOL    HW136510  14.417  10.674   5.642
44871SOL    HW236511  14.465  10.757   5.525
44872SOL     OW36512   2.215  12.215  13.005
44872SOL    HW136513   2.156  12.287  12.983
44872SOL    HW236514   2.177  12.175  13.083
44873SOL     OW36515   6.488   0.886   4.010
44873SOL    HW136516   6.521   0.896   3.921
44873SOL    HW236517   6.495   0.974   4.048
44874SOL     OW36518  13.046   3.361   4.256
44874SOL    HW136519  13.102   3.323   4.188
44874SOL    HW236520  12.982   3.292   4.275
44875SOL     OW36521   6.491  14.070   1.088
44875SOL    HW136522   6.583  14.046   1.075
44875SOL    HW236523   6.445  13.986   1.095
44876SOL     OW36524   2.796  14.382   1.800
44876SOL    HW136525   2.738  14.341   1.735
44876SOL    HW236526   2.740  14.445   1.845
44877SOL     OW36527   2.879  10.591   2.988
44877SOL    HW136528   2.969  10.559   2.993
44877SOL    HW236529   2.826  10.511   2.996
44878SOL     OW36530   2.368   8.411  11.065
44878SOL    HW136531   2.388   8.328  11.020
44878SOL    HW236532   2.366   8.388  11.158
44879SOL     OW36533   9.338   3.321  14.678
44879SOL    HW136534   9.273   3.328  14.749
44879SOL    HW236535   9.300   3.372  14.606
44880SOL     OW36536   9.292   8.079   3.965
44880SOL    HW136537   9.357   8.009   3.969
44880SOL    HW236538   9.325   8.139   3.898
44881SOL     OW36539   1.906  14.632  14.665
44881SOL    HW136540   1.858  14.612  14.745
44881SOL    HW236541   1.838  14.644  14.598
44882SOL     OW36542   6.934  10.057   2.782
44882SOL    HW136543   6.872  10.011   2.839
44882SOL    HW236544   6.993   9.988   2.751
44883SOL     OW36545   6.842   0.058   2.540
44883SOL    HW136546   6.931   0.039   2.570
44883SOL    HW236547   6.846   0.149   2.510
44884SOL     OW36548   0.395   0.426   2.569
44884SOL    HW136549   0.429   0.507   2.532
44884SOL    HW236550   0.325   0.453   2.628
44885SOL     OW36551   2.998   3.978  13.977
44885SOL    HW136552   3.012   4.069  14.004
44885SOL    HW236553   3.011   3.927  14.057
44886SOL     OW36554  12.010   4.584   9.863
44886SOL    HW136555  12.049   4.600   9.949
44886SOL    HW236556  11.951   4.510   9.877
44887SOL     OW36557   3.943  12.961   2.862
44887SOL    HW136558   3.981  12.923   2.942
44887SOL    HW236559   3.997  12.927   2.791
44888SOL     OW36560  10.613  10.924  10.023
44888SOL    HW136561  10.596  10.853   9.961
44888SOL    HW236562  10.682  10.976   9.982
44889SOL     OW36563   0.185   0.674  13.845
44889SOL    HW136564   0.236   0.704  13.770
44889SOL    HW236565   0.250   0.657  13.913
44890SOL     OW36566  12.261   1.562   5.790
44890SOL    HW136567  12.327   1.627   5.816
44890SOL    HW236568  12.185   1.614   5.766
44891SOL     OW36569  12.532  11.849   2.096
44891SOL    HW136570  12.577  11.778   2.051
44891SOL    HW236571  12.445  11.814   2.116
44892SOL     OW36572   4.205  10.403   7.626
44892SOL    HW136573   4.219  10.380   7.535
44892SOL    HW236574   4.111  10.391   7.641
44893SOL     OW36575   1.961   8.496  11.655
44893SOL    HW136576   1.878   8.492  11.607
44893SOL    HW236577   1.970   8.409  11.694
44894SOL     OW36578   4.136   4.268   5.914
44894SOL    HW136579   4.213   4.315   5.882
44894SOL    HW236580   4.172   4.199   5.971
44895SOL     OW36581   9.300  14.447   7.922
44895SOL    HW136582   9.219  14.454   7.971
44895SOL    HW236583   9.354  14.520   7.953
44896SOL     OW36584  10.937  12.955  14.823
44896SOL    HW136585  10.887  12.995   0.026
44896SOL    HW236586  10.958  13.028  14.764
44897SOL     OW36587  13.569   0.534   1.098
44897SOL    HW136588  13.492   0.478   1.090
44897SOL    HW236589  13.623   0.492   1.165
44898SOL     OW36590   2.412   7.590  11.833
44898SOL    HW136591   2.411   7.673  11.784
44898SOL    HW236592   2.413   7.617  11.925
44899SOL     OW36593  14.862   1.169   9.989
44899SOL    HW136594   0.055   1.110  10.033
44899SOL    HW236595  14.819   1.114   9.923
44900SOL     OW36596   3.145   7.287   2.973
44900SOL    HW136597   3.068   7.275   3.029
44900SOL    HW236598   3.150   7.206   2.922
44901SOL     OW36599  11.361   9.708   9.942
44901SOL    HW136600  11.420   9.780   9.920
44901SOL    HW236601  11.278   9.731   9.900
44902SOL     OW36602   0.843  10.344  10.596
44902SOL    HW136603   0.843  10.311  10.686
44902SOL    HW236604   0.837  10.439  10.606
44903SOL     OW36605  13.545   3.954  10.038
44903SOL    HW136606  13.465   3.900  10.032
44903SOL    HW236607  13.615   3.896  10.008
44904SOL     OW36608   3.419   0.867   2.838
44904SOL    HW136609   3.481   0.940   2.837
44904SOL    HW236610   3.403   0.847   2.746
44905SOL     OW36611   0.706   0.212  14.176
44905SOL    HW136612   0.716   0.306  14.194
44905SOL    HW236613   0.612   0.199  14.166
44906SOL     OW36614  12.428  11.338  13.267
44906SOL    HW136615  12.409  11.363  13.176
44906SOL    HW236616  12.404  11.246  13.272
44907SOL     OW36617  14.859  14.527   0.901
44907SOL    HW136618  14.847  14.569   0.816
44907SOL    HW236619   0.085  14.512   0.907
44908SOL     OW36620   1.197   9.152   8.835
44908SOL    HW136621   1.277   9.199   8.808
44908SOL    HW236622   1.175   9.190   8.920
44909SOL     OW36623  11.675   6.249  10.987
44909SOL    HW136624  11.621   6.176  10.958
44909SOL    HW236625  11.644   6.268  11.076
44910SOL     OW36626  10.718   6.804   5.313
44910SOL    HW136627  10.737   6.712   5.329
44910SOL    HW236628  10.623   6.808   5.306
44911SOL     OW36629   3.185   3.313   2.675
44911SOL    HW136630   3.244   3.323   2.600
44911SOL    HW236631   3.235   3.263   2.739
44912SOL     OW36632  14.227   7.561   9.112
44912SOL    HW136633  14.222   7.655   9.096
44912SOL    HW236634  14.289   7.530   9.046
44913SOL     OW36635   4.612  12.068  10.262
44913SOL    HW136636   4.670  12.023  10.201
44913SOL    HW236637   4.576  12.141  10.211
44914SOL     OW36638   6.106  13.976   1.070
44914SOL    HW136639   6.078  14.041   1.134
44914SOL    HW236640   6.179  13.930   1.112
44915SOL     OW36641   8.587   0.592   1.732
44915SOL    HW136642   8.669   0.546   1.748
44915SOL    HW236643   8.521   0.540   1.777
44916SOL     OW36644   5.761  14.120  11.311
44916SOL    HW136645   5.747  14.037  11.265
44916SOL    HW236646   5.717  14.109  11.395
44917SOL     OW36647   3.240   8.409   8.660
44917SOL    HW136648   3.326   8.427   8.697
44917SOL    HW236649   3.243   8.447   8.572
44918SOL     OW36650  12.623   4.253   0.647
44918SOL    HW136651  12.693   4.223   0.705
44918SOL    HW236652  12.640   4.208   0.564
44919SOL     OW36653  12.150   5.776  13.942
44919SOL    HW136654  12.198   5.744  14.018
44919SOL    HW236655  12.165   5.710  13.874
44920SOL     OW36656  12.402   5.986   5.036
44920SOL    HW136657  12.478   6.038   5.062
44920SOL    HW236658  12.439   5.903   5.005
44921SOL     OW36659   1.144   6.961   7.211
44921SOL    HW136660   1.201   7.017   7.159
44921SOL    HW236661   1.065   6.950   7.158
44922SOL     OW36662   9.171  12.626   1.721
44922SOL    HW136663   9.122  12.706   1.701
44922SOL    HW236664   9.240  12.655   1.781
44923SOL     OW36665   3.787  13.224  10.970
44923SOL    HW136666   3.843  13.152  10.998
44923SOL    HW236667   3.704  13.183  10.946
44924SOL     OW36668   7.501   9.405   6.067
44924SOL    HW136669   7.585   9.445   6.090
44924SOL    HW236670   7.519   9.311   6.067
44925SOL     OW36671  11.958   7.643   2.833
44925SOL    HW136672  11.915   7.583   2.772
44925SOL    HW236673  11.954   7.599   2.918
44926SOL     OW36674  14.617  10.513  10.214
44926SOL    HW136675  14.543  10.481  10.265
44926SOL    HW236676  14.584  10.520  10.125
44927SOL     OW36677   5.703  11.074  10.358
44927SOL    HW136678   5.776  11.076  10.295
44927SOL    HW236679   5.656  10.994  10.337
44928SOL     OW36680   8.416  11.198  11.826
44928SOL    HW136681   8.402  11.104  11.830
44928SOL    HW236682   8.429  11.216  11.733
44929SOL     OW36683   3.051   6.755  10.538
44929SOL    HW136684   3.146   6.745  10.540
44929SOL    HW236685   3.026   6.725  10.450
44930SOL     OW36686   8.320   4.341   8.755
44930SOL    HW136687   8.366   4.375   8.678
44930SOL    HW236688   8.245   4.399   8.765
44931SOL     OW36689  11.920   8.624   5.373
44931SOL    HW136690  11.875   8.581   5.300
44931SOL    HW236691  11.866   8.606   5.449
44932SOL     OW36692   4.169   1.243  13.568
44932SOL    HW136693   4.158   1.215  13.477
44932SOL    HW236694   4.159   1.338  13.565
44933SOL     OW36695  14.421  12.873   3.656
44933SOL    HW136696  14.367  12.952   3.653
44933SOL    HW236697  14.373  12.813   3.713
44934SOL     OW36698   2.702  14.762   7.608
44934SOL    HW136699   2.787  14.717   7.603
44934SOL    HW236700   2.685  14.770   7.702
44935SOL     OW36701  11.460   8.956   6.273
44935SOL    HW136702  11.516   8.889   6.313
44935SOL    HW236703  11.378   8.911   6.253
44936SOL     OW36704  10.195   1.086   9.327
44936SOL    HW136705  10.246   1.124   9.256
44936SOL    HW236706  10.185   1.157   9.391
44937SOL     OW36707  11.856   8.337  13.482
44937SOL    HW136708  11.810   8.403  13.532
44937SOL    HW236709  11.944   8.334  13.520
44938SOL     OW36710  13.622   3.263   9.295
44938SOL    HW136711  13.626   3.309   9.211
44938SOL    HW236712  13.546   3.302   9.339
44939SOL     OW36713   7.820   7.556   6.692
44939SOL    HW136714   7.735   7.600   6.684
44939SOL    HW236715   7.853   7.551   6.603
44940SOL     OW36716  13.461  14.208   4.747
44940SOL    HW136717  13.556  14.209   4.758
44940SOL    HW236718  13.438  14.299   4.726
44941SOL     OW36719  10.140  12.797   4.056
44941SOL    HW136720  10.195  12.754   4.121
44941SOL    HW236721  10.051  12.786   4.089
44942SOL     OW36722   5.836   9.236  10.159
44942SOL    HW136723   5.819   9.167  10.095
44942SOL    HW236724   5.921   9.272  10.132
44943SOL     OW36725   4.721  13.862   0.013
44943SOL    HW136726   4.697  13.891   0.101
44943SOL    HW236727   4.704  13.768   0.014
44944SOL     OW36728   7.217   0.668   6.052
44944SOL    HW136729   7.272   0.693   5.978
44944SOL    HW236730   7.229   0.574   6.060
44945SOL     OW36731   0.445  12.147  12.021
44945SOL    HW136732   0.475  12.238  12.016
44945SOL    HW236733   0.526  12.096  12.030
44946SOL     OW36734   6.413   3.359   7.218
44946SOL    HW136735   6.453   3.405   7.292
44946SOL    HW236736   6.485   3.309   7.180
44947SOL     OW36737   6.021   5.356   2.511
44947SOL    HW136738   6.109   5.355   2.473
44947SOL    HW236739   5.985   5.441   2.485
44948SOL     OW36740   0.580  12.784  10.393
44948SOL    HW136741   0.491  12.759  10.419
44948SOL    HW236742   0.628  12.791  10.475
44949SOL     OW36743   9.804   4.840  14.565
44949SOL    HW136744   9.846   4.871  14.485
44949SOL    HW236745   9.790   4.746  14.550
44950SOL     OW36746   0.650   5.136  10.233
44950SOL    HW136747   0.642   5.209  10.171
44950SOL    HW236748   0.560   5.105  10.244
44951SOL     OW36749   4.540  12.452   6.586
44951SOL    HW136750   4.456  12.462   6.543
44951SOL    HW236751   4.520  12.456   6.680
44952SOL     OW36752   2.584  12.269   8.639
44952SOL    HW136753   2.670  12.310   8.647
44952SOL    HW236754   2.598  12.197   8.577
44953SOL     OW36755  10.151   9.775   9.191
44953SOL    HW136756  10.119   9.714   9.257
44953SOL    HW236757  10.244   9.755   9.183
44954SOL     OW36758  14.421   9.546   6.426
44954SOL    HW136759  14.510   9.541   6.460
44954SOL    HW236760  14.371   9.487   6.482
44955SOL     OW36761  12.411   2.314  14.179
44955SOL    HW136762  12.352   2.388  14.167
44955SOL    HW236763  12.449   2.299  14.092
44956SOL     OW36764  10.527   3.117   5.446
44956SOL    HW136765  10.537   3.082   5.535
44956SOL    HW236766  10.534   3.212   5.456
44957SOL     OW36767   8.204   5.518   5.322
44957SOL    HW136768   8.288   5.492   5.286
44957SOL    HW236769   8.209   5.614   5.328
44958SOL     OW36770  13.001   9.357  14.435
44958SOL    HW136771  13.091   9.340  14.410
44958SOL    HW236772  12.970   9.275  14.474
44959SOL     OW36773   1.215   5.536   1.906
44959SOL    HW136774   1.276   5.608   1.919
44959SOL    HW236775   1.199   5.533   1.812
44960SOL     OW36776   9.290   7.372   4.235
44960SOL    HW136777   9.305   7.465   4.214
44960SOL    HW236778   9.206   7.371   4.279
44961SOL     OW36779  12.222  12.717   1.638
44961SOL    HW136780  12.250  12.800   1.602
44961SOL    HW236781  12.252  12.651   1.575
44962SOL     OW36782  10.713  12.187  10.849
44962SOL    HW136783  10.618  12.187  10.866
44962SOL    HW236784  10.720  12.174  10.755
44963SOL     OW36785   4.388   6.239   9.325
44963SOL    HW136786   4.364   6.270   9.412
44963SOL    HW236787   4.433   6.156   9.340
44964SOL     OW36788  11.687   2.100   1.763
44964SOL    HW136789  11.757   2.064   1.816
44964SOL    HW236790  11.623   2.029   1.755
44965SOL     OW36791   5.671  10.286  12.938
44965SOL    HW136792   5.638  10.307  12.851
44965SOL    HW236793   5.747  10.343  12.949
44966SOL     OW36794  14.149  13.974   7.858
44966SOL    HW136795  14.112  13.902   7.908
44966SOL    HW236796  14.073  14.026   7.831
44967SOL     OW36797   7.535   0.880  13.202
44967SOL    HW136798   7.608   0.887  13.140
44967SOL    HW236799   7.576   0.853  13.284
44968SOL     OW36800  12.453   9.537  12.715
44968SOL    HW136801  12.539   9.535  12.755
44968SOL    HW236802  12.429   9.445  12.704
44969SOL     OW36803  13.844   5.444   1.797
44969SOL    HW136804  13.832   5.369   1.855
44969SOL    HW236805  13.806   5.417   1.714
44970SOL     OW36806  13.586   6.906  12.834
44970SOL    HW136807  13.588   6.969  12.761
44970SOL    HW236808  13.594   6.821  12.792
44971SOL     OW36809  12.588   8.449   2.506
44971SOL    HW136810  12.552   8.518   2.449
44971SOL    HW236811  12.534   8.372   2.487
44972SOL     OW36812   1.265   1.214   9.800
44972SOL    HW136813   1.305   1.244   9.881
44972SOL    HW236814   1.293   1.279   9.735
44973SOL     OW36815  13.789   9.337   8.938
44973SOL    HW136816  13.793   9.317   8.845
44973SOL    HW236817  13.739   9.419   8.943
44974SOL     OW36818  13.132  13.582   5.435
44974SOL    HW136819  13.202  13.638   5.402
44974SOL    HW236820  13.094  13.631   5.508
44975SOL     OW36821   7.168   9.705   3.832
44975SOL    HW136822   7.161   9.775   3.766
44975SOL    HW236823   7.100   9.642   3.808
44976SOL     OW36824   1.171   6.309   8.326
44976SOL    HW136825   1.242   6.252   8.355
44976SOL    HW236826   1.159   6.371   8.398
44977SOL     OW36827   0.881   8.370  13.418
44977SOL    HW136828   0.860   8.365  13.325
44977SOL    HW236829   0.914   8.459  13.430
44978SOL     OW36830  12.276  12.476   4.862
44978SOL    HW136831  12.358  12.438   4.832
44978SOL    HW236832  12.216  12.402   4.868
44979SOL     OW36833  13.195   4.804  12.580
44979SOL    HW136834  13.149   4.888  12.572
44979SOL    HW236835  13.169   4.771  12.666
44980SOL     OW36836  13.121  11.739   3.990
44980SOL    HW136837  13.136  11.672   3.923
44980SOL    HW236838  13.158  11.819   3.952
44981SOL     OW36839   8.249   9.781  13.751
44981SOL    HW136840   8.170   9.833  13.741
44981SOL    HW236841   8.262   9.739  13.666
44982SOL     OW36842   0.697   6.581   4.016
44982SOL    HW136843   0.742   6.498   4.026
44982SOL    HW236844   0.739   6.623   3.940
44983SOL     OW36845  13.570   1.208   4.526
44983SOL    HW136846  13.537   1.287   4.570
44983SOL    HW236847  13.556   1.138   4.589
44984SOL     OW36848   7.922   8.191   9.218
44984SOL    HW136849   7.913   8.171   9.125
44984SOL    HW236850   7.879   8.118   9.262
44985SOL     OW36851  11.109  11.380   2.057
44985SOL    HW136852  11.016  11.402   2.056
44985SOL    HW236853  11.115  11.301   2.111
44986SOL     OW36854   3.455   8.757   6.178
44986SOL    HW136855   3.541   8.719   6.194
44986SOL    HW236856   3.418   8.705   6.107
44987SOL     OW36857   2.713   5.480   6.889
44987SOL    HW136858   2.795   5.526   6.907
44987SOL    HW236859   2.702   5.488   6.794
44988SOL     OW36860   2.310  13.985   0.263
44988SOL    HW136861   2.275  14.043   0.331
44988SOL    HW236862   2.393  13.954   0.299
44989SOL     OW36863   1.943   6.418  13.709
44989SOL    HW136864   1.907   6.506  13.700
44989SOL    HW236865   2.035   6.427  13.684
44990SOL     OW36866   8.589   5.008   1.425
44990SOL    HW136867   8.629   5.091   1.397
44990SOL    HW236868   8.593   5.011   1.521
44991SOL     OW36869   7.625   0.846   0.102
44991SOL    HW136870   7.640   0.911   0.170
44991SOL    HW236871   7.702   0.789   0.106
44992SOL     OW36872   6.337   8.307  10.016
44992SOL    HW136873   6.264   8.324  10.075
44992SOL    HW236874   6.309   8.345   9.932
44993SOL     OW36875   6.249   4.019   1.901
44993SOL    HW136876   6.266   3.925   1.894
44993SOL    HW236877   6.155   4.028   1.888
44994SOL     OW36878  10.928   2.815  11.412
44994SOL    HW136879  10.987   2.847  11.480
44994SOL    HW236880  10.983   2.762  11.355
44995SOL     OW36881   9.453   8.199   7.787
44995SOL    HW136882   9.459   8.106   7.764
44995SOL    HW236883   9.542   8.225   7.809
44996SOL     OW36884   8.513   1.868  10.222
44996SOL    HW136885   8.462   1.829  10.151
44996SOL    HW236886   8.591   1.903  10.179
44997SOL     OW36887   9.619   2.196  12.067
44997SOL    HW136888   9.704   2.179  12.108
44997SOL    HW236889   9.634   2.183  11.974
44998SOL     OW36890   0.391   4.432   1.177
44998SOL    HW136891   0.378   4.391   1.091
44998SOL    HW236892   0.305   4.467   1.200
44999SOL     OW36893   7.263  11.976  14.104
44999SOL    HW136894   7.264  12.063  14.145
44999SOL    HW236895   7.211  11.987  14.024
45000SOL     OW36896   9.250  13.787   7.510
45000SOL    HW136897   9.233  13.881   7.502
45000SOL    HW236898   9.269  13.759   7.421
45001SOL     OW36899   9.458  12.038   4.530
45001SOL    HW136900   9.373  11.994   4.528
45001SOL    HW236901   9.461  12.089   4.449
45002SOL     OW36902   0.393  14.111   8.492
45002SOL    HW136903   0.361  14.167   8.422
45002SOL    HW236904   0.475  14.152   8.520
45003SOL     OW36905  12.799  14.865   0.428
45003SOL    HW136906  12.741  14.843   0.356
45003SOL    HW236907  12.813   0.092   0.420
45004SOL     OW36908  12.523   0.107   5.388
45004SOL    HW136909  12.461   0.071   5.325
45004SOL    HW236910  12.526   0.043   5.459
45005SOL     OW36911   0.411  13.827   1.365
45005SOL    HW136912   0.481  13.875   1.321
45005SOL    HW236913   0.431  13.735   1.350
45006SOL     OW36914  10.360   4.184   4.491
45006SOL    HW136915  10.362   4.249   4.421
45006SOL    HW236916  10.367   4.100   4.446
45007SOL     OW36917  11.632   6.059   7.949
45007SOL    HW136918  11.668   5.971   7.939
45007SOL    HW236919  11.562   6.064   7.885
45008SOL     OW36920  10.188   2.673   9.383
45008SOL    HW136921  10.220   2.599   9.332
45008SOL    HW236922  10.184   2.745   9.321
45009SOL     OW36923   3.582  10.930  12.995
45009SOL    HW136924   3.624  10.852  12.958
45009SOL    HW236925   3.516  10.955  12.931
45010SOL     OW36926  13.256   0.528   3.152
45010SOL    HW136927  13.255   0.502   3.244
45010SOL    HW236928  13.314   0.604   3.150
45011SOL     OW36929   0.658   3.182  13.831
45011SOL    HW136930   0.658   3.190  13.736
45011SOL    HW236931   0.566   3.182  13.855
45012SOL     OW36932   7.494   0.074   5.200
45012SOL    HW136933   7.461  14.858   5.231
45012SOL    HW236934   7.559   0.100   5.265
45013SOL     OW36935  13.402   6.431   2.457
45013SOL    HW136936  13.420   6.512   2.504
45013SOL    HW236937  13.488   6.390   2.447
45014SOL     OW36938   5.840  13.681  14.547
45014SOL    HW136939   5.924  13.648  14.515
45014SOL    HW236940   5.775  13.636  14.493
45015SOL     OW36941   0.527   9.635  12.015
45015SOL    HW136942   0.432   9.625  12.027
45015SOL    HW236943   0.562   9.635  12.104
45016SOL     OW36944  11.576   5.910  10.711
45016SOL    HW136945  11.514   5.929  10.782
45016SOL    HW236946  11.551   5.970  10.640
45017SOL     OW36947  10.394   9.878   2.969
45017SOL    HW136948  10.364   9.941   3.035
45017SOL    HW236949  10.444   9.931   2.907
45018SOL     OW36950  12.868   9.483  11.259
45018SOL    HW136951  12.936   9.452  11.318
45018SOL    HW236952  12.791   9.494  11.315
45019SOL     OW36953   5.997  12.328   5.121
45019SOL    HW136954   6.009  12.343   5.027
45019SOL    HW236955   5.990  12.233   5.129
45020SOL     OW36956   0.336   8.290   4.975
45020SOL    HW136957   0.252   8.332   4.963
45020SOL    HW236958   0.346   8.281   5.069
45021SOL     OW36959   7.866   1.544   5.515
45021SOL    HW136960   7.824   1.462   5.538
45021SOL    HW236961   7.950   1.542   5.562
45022SOL     OW36962   9.215  10.171  11.524
45022SOL    HW136963   9.263  10.184  11.442
45022SOL    HW236964   9.223  10.255  11.569
45023SOL     OW36965   4.409   1.098  11.045
45023SOL    HW136966   4.487   1.104  10.989
45023SOL    HW236967   4.403   1.183  11.087
45024SOL     OW36968  12.411  14.635  12.605
45024SOL    HW136969  12.501  14.607  12.585
45024SOL    HW236970  12.402  14.621  12.699
45025SOL     OW36971   8.284  14.391   9.363
45025SOL    HW136972   8.358  14.331   9.378
45025SOL    HW236973   8.207  14.340   9.387
45026SOL     OW36974   7.002   4.758   1.111
45026SOL    HW136975   6.949   4.811   1.051
45026SOL    HW236976   7.011   4.813   1.188
45027SOL     OW36977   1.155  14.127  14.772
45027SOL    HW136978   1.078  14.088  14.813
45027SOL    HW236979   1.130  14.218  14.755
45028SOL     OW36980   3.923   6.129   3.213
45028SOL    HW136981   4.000   6.073   3.212
45028SOL    HW236982   3.865   6.092   3.146
45029SOL     OW36983   3.212   0.677  10.578
45029SOL    HW136984   3.170   0.720  10.652
45029SOL    HW236985   3.191   0.732  10.503
45030SOL     OW36986   2.900  12.586   3.598
45030SOL    HW136987   2.805  12.587   3.584
45030SOL    HW236988   2.913  12.519   3.665
45031SOL     OW36989   6.604   3.609   1.308
45031SOL    HW136990   6.518   3.607   1.266
45031SOL    HW236991   6.666   3.597   1.236
45032SOL     OW36992   9.838   9.483   6.451
45032SOL    HW136993   9.890   9.530   6.517
45032SOL    HW236994   9.816   9.400   6.492
45033SOL     OW36995  12.681   6.100  12.737
45033SOL    HW136996  12.604   6.047  12.720
45033SOL    HW236997  12.715   6.069  12.821
45034SOL     OW36998   6.373   3.606   9.865
45034SOL    HW136999   6.293   3.594   9.815
45034SOL    HW237000   6.358   3.687   9.915
45035SOL     OW37001  11.957   0.767  12.473
45035SOL    HW137002  12.038   0.737  12.513
45035SOL    HW237003  11.984   0.840  12.416
45036SOL     OW37004  14.444   3.940   4.894
45036SOL    HW137005  14.385   3.974   4.827
45036SOL    HW237006  14.410   3.973   4.977
45037SOL     OW37007  10.231   8.343  14.315
45037SOL    HW137008  10.297   8.300  14.369
45037SOL    HW237009  10.193   8.409  14.372
45038SOL     OW37010   0.474  10.306   2.732
45038SOL    HW137011   0.424  10.251   2.792
45038SOL    HW237012   0.560  10.317   2.774
45039SOL     OW37013   5.578  12.594  12.618
45039SOL    HW137014   5.500  12.541  12.603
45039SOL    HW237015   5.650  12.531  12.614
45040SOL     OW37016  13.627   7.069  12.604
45040SOL    HW137017  13.694   7.060  12.537
45040SOL    HW237018  13.634   7.160  12.633
45041SOL     OW37019   6.526  11.303  11.235
45041SOL    HW137020   6.472  11.241  11.284
45041SOL    HW237021   6.467  11.339  11.169
45042SOL     OW37022   3.742   9.349  11.679
45042SOL    HW137023   3.832   9.351  11.645
45042SOL    HW237024   3.718   9.256  11.679
45043SOL     OW37025  13.492   1.364   1.023
45043SOL    HW137026  13.424   1.363   0.955
45043SOL    HW237027  13.471   1.290   1.079
45044SOL     OW37028   7.685   1.153   3.485
45044SOL    HW137029   7.760   1.194   3.529
45044SOL    HW237030   7.712   1.147   3.393
45045SOL     OW37031   7.819  13.795   8.504
45045SOL    HW137032   7.817  13.794   8.599
45045SOL    HW237033   7.865  13.715   8.480
45046SOL     OW37034   2.848   8.683  11.477
45046SOL    HW137035   2.882   8.772  11.473
45046SOL    HW237036   2.842   8.655  11.386
45047SOL     OW37037   6.513  12.940   9.882
45047SOL    HW137038   6.521  13.013   9.820
45047SOL    HW237039   6.514  12.862   9.826
45048SOL     OW37040  13.395   9.350  12.833
45048SOL    HW137041  13.313   9.344  12.883
45048SOL    HW237042  13.370   9.395  12.752
45049SOL     OW37043   7.606   6.911  12.660
45049SOL    HW137044   7.649   6.958  12.731
45049SOL    HW237045   7.677   6.861  12.618
45050SOL     OW37046   9.578   7.704   4.045
45050SOL    HW137047   9.590   7.616   4.010
45050SOL    HW237048   9.500   7.698   4.100
45051SOL     OW37049   1.840   0.564  13.052
45051SOL    HW137050   1.915   0.532  13.002
45051SOL    HW237051   1.839   0.658  13.036
45052SOL     OW37052  10.324   8.079   4.003
45052SOL    HW137053  10.337   8.023   3.926
45052SOL    HW237054  10.246   8.043   4.046
45053SOL     OW37055  14.265  11.858  12.470
45053SOL    HW137056  14.209  11.786  12.499
45053SOL    HW237057  14.354  11.829  12.491
45054SOL     OW37058   8.934  14.026   7.084
45054SOL    HW137059   8.933  14.005   7.178
45054SOL    HW237060   8.849  14.066   7.068
45055SOL     OW37061  12.618  13.986   9.501
45055SOL    HW137062  12.527  13.967   9.478
45055SOL    HW237063  12.630  13.946   9.587
45056SOL     OW37064   5.155   5.901   3.672
45056SOL    HW137065   5.193   5.984   3.645
45056SOL    HW237066   5.204   5.835   3.622
45057SOL     OW37067   6.628  10.232   7.904
45057SOL    HW137068   6.632  10.185   7.821
45057SOL    HW237069   6.600  10.320   7.881
45058SOL     OW37070  11.549   7.713   0.637
45058SOL    HW137071  11.623   7.693   0.695
45058SOL    HW237072  11.549   7.641   0.574
45059SOL     OW37073   2.345  13.341   1.496
45059SOL    HW137074   2.292  13.272   1.536
45059SOL    HW237075   2.360  13.312   1.406
45060SOL     OW37076  10.140  10.283   7.494
45060SOL    HW137077  10.218  10.253   7.448
45060SOL    HW237078  10.124  10.216   7.561
45061SOL     OW37079   1.070   4.809   1.411
45061SOL    HW137080   1.149   4.853   1.380
45061SOL    HW237081   1.073   4.722   1.371
45062SOL     OW37082   8.999   6.915   8.767
45062SOL    HW137083   8.972   6.830   8.733
45062SOL    HW237084   8.982   6.976   8.695
45063SOL     OW37085   4.377   0.993  10.682
45063SOL    HW137086   4.460   0.972  10.639
45063SOL    HW237087   4.389   0.968  10.773
45064SOL     OW37088  14.556   2.001   2.299
45064SOL    HW137089  14.629   1.961   2.347
45064SOL    HW237090  14.551   2.090   2.334
45065SOL     OW37091   5.235  10.456   2.731
45065SOL    HW137092   5.243  10.479   2.823
45065SOL    HW237093   5.142  10.437   2.719
45066SOL     OW37094  13.935   8.329   2.405
45066SOL    HW137095  13.917   8.376   2.487
45066SOL    HW237096  13.936   8.237   2.430
45067SOL     OW37097   6.090  13.398   9.672
45067SOL    HW137098   6.100  13.356   9.758
45067SOL    HW237099   6.169  13.375   9.624
45068SOL     OW37100   5.873   8.335   9.248
45068SOL    HW137101   5.800   8.363   9.303
45068SOL    HW237102   5.850   8.245   9.223
45069SOL     OW37103  13.664   1.223  10.005
45069SOL    HW137104  13.689   1.232   9.913
45069SOL    HW237105  13.665   1.312  10.039
45070SOL     OW37106  13.164   5.733   8.885
45070SOL    HW137107  13.113   5.802   8.928
45070SOL    HW237108  13.155   5.657   8.942
45071SOL     OW37109  12.261   3.610  14.009
45071SOL    HW137110  12.239   3.520  13.982
45071SOL    HW237111  12.304   3.648  13.932
45072SOL     OW37112   9.221   4.036   5.136
45072SOL    HW137113   9.220   4.054   5.042
45072SOL    HW237114   9.280   4.102   5.172
45073SOL     OW37115   0.910   5.248  10.256
45073SOL    HW137116   0.820   5.215  10.263
45073SOL    HW237117   0.915   5.318  10.321
45074SOL     OW37118   0.632   9.207   7.955
45074SOL    HW137119   0.657   9.202   8.047
45074SOL    HW237120   0.537   9.223   7.957
45075SOL     OW37121   4.284  13.869   3.310
45075SOL    HW137122   4.224  13.905   3.375
45075SOL    HW237123   4.227  13.823   3.249
45076SOL     OW37124   5.878   8.800  12.746
45076SOL    HW137125   5.942   8.852  12.793
45076SOL    HW237126   5.926   8.760  12.674
45077SOL     OW37127   3.770   1.996   8.634
45077SOL    HW137128   3.771   2.050   8.713
45077SOL    HW237129   3.812   2.051   8.567
45078SOL     OW37130   8.442  13.372   3.657
45078SOL    HW137131   8.488  13.435   3.602
45078SOL    HW237132   8.374  13.424   3.701
45079SOL     OW37133   4.824   3.840  11.236
45079SOL    HW137134   4.780   3.869  11.156
45079SOL    HW237135   4.806   3.909  11.299
45080SOL     OW37136  11.801   3.525   8.104
45080SOL    HW137137  11.839   3.594   8.159
45080SOL    HW237138  11.755   3.467   8.165
45081SOL     OW37139   4.153   4.120   0.623
45081SOL    HW137140   4.217   4.186   0.650
45081SOL    HW237141   4.069   4.165   0.627
45082SOL     OW37142  12.537   5.218  14.631
45082SOL    HW137143  12.582   5.257  14.706
45082SOL    HW237144  12.588   5.247  14.555
45083SOL     OW37145   1.302  10.905  12.749
45083SOL    HW137146   1.279  10.987  12.705
45083SOL    HW237147   1.240  10.841  12.715
45084SOL     OW37148   1.851  12.393   6.099
45084SOL    HW137149   1.892  12.459   6.155
45084SOL    HW237150   1.899  12.313   6.116
45085SOL     OW37151   4.116   4.154   0.154
45085SOL    HW137152   4.177   4.228   0.145
45085SOL    HW237153   4.063   4.157   0.074
45086SOL     OW37154  13.856   8.239   5.612
45086SOL    HW137155  13.845   8.178   5.685
45086SOL    HW237156  13.796   8.206   5.545
45087SOL     OW37157   6.145   5.741  11.577
45087SOL    HW137158   6.072   5.797  11.548
45087SOL    HW237159   6.148   5.671  11.512
45088SOL     OW37160   0.445   6.472   7.646
45088SOL    HW137161   0.419   6.564   7.640
45088SOL    HW237162   0.398   6.429   7.575
45089SOL     OW37163   2.395   9.657  11.539
45089SOL    HW137164   2.466   9.694  11.591
45089SOL    HW237165   2.435   9.639  11.454
45090SOL     OW37166   7.431  14.008   0.252
45090SOL    HW137167   7.484  14.085   0.272
45090SOL    HW237168   7.372  13.999   0.327
45091SOL     OW37169   5.630  12.858   0.665
45091SOL    HW137170   5.682  12.891   0.738
45091SOL    HW237171   5.652  12.914   0.591
45092SOL     OW37172   2.327  12.223  10.985
45092SOL    HW137173   2.291  12.217  11.073
45092SOL    HW237174   2.366  12.137  10.968
45093SOL     OW37175   2.522  14.865   6.997
45093SOL    HW137176   2.584  14.848   6.927
45093SOL    HW237177   2.528   0.091   7.013
45094SOL     OW37178   0.100   3.348  10.112
45094SOL    HW137179   0.022   3.342  10.167
45094SOL    HW237180   0.096   3.435  10.073
45095SOL     OW37181   1.786  13.563   0.029
45095SOL    HW137182   1.824  13.496  14.840
45095SOL    HW237183   1.855  13.583   0.092
45096SOL     OW37184   2.730  13.668  10.577
45096SOL    HW137185   2.743  13.675  10.482
45096SOL    HW237186   2.797  13.725  10.615
45097SOL     OW37187  12.081  11.162  10.425
45097SOL    HW137188  12.139  11.236  10.442
45097SOL    HW237189  12.140  11.088  10.413
45098SOL     OW37190   2.993   8.190   1.505
45098SOL    HW137191   3.082   8.221   1.526
45098SOL    HW237192   2.948   8.268   1.474
45099SOL     OW37193   0.033  14.506   6.178
45099SOL    HW137194   0.001  14.508   6.268
45099SOL    HW237195   0.043  14.413   6.158
45100SOL     OW37196   3.547  11.400   2.494
45100SOL    HW137197   3.490  11.325   2.475
45100SOL    HW237198   3.581  11.381   2.582
45101SOL     OW37199   3.808   6.924  10.910
45101SOL    HW137200   3.887   6.977  10.897
45101SOL    HW237201   3.736   6.982  10.887
45102SOL     OW37202   4.506   7.241   8.534
45102SOL    HW137203   4.435   7.236   8.598
45102SOL    HW237204   4.461   7.244   8.450
45103SOL     OW37205   9.785  12.355  11.214
45103SOL    HW137206   9.798  12.262  11.230
45103SOL    HW237207   9.839  12.373  11.137
45104SOL     OW37208  10.759  10.827   6.183
45104SOL    HW137209  10.764  10.919   6.210
45104SOL    HW237210  10.845  10.808   6.147
45105SOL     OW37211   9.159  12.398   8.205
45105SOL    HW137212   9.135  12.398   8.298
45105SOL    HW237213   9.230  12.334   8.199
45106SOL     OW37214   8.448  12.361  14.318
45106SOL    HW137215   8.540  12.338  14.305
45106SOL    HW237216   8.417  12.298  14.382
45107SOL     OW37217   1.828   7.077   1.694
45107SOL    HW137218   1.872   6.996   1.720
45107SOL    HW237219   1.757   7.049   1.637
45108SOL     OW37220  10.731   3.337   3.365
45108SOL    HW137221  10.727   3.364   3.457
45108SOL    HW237222  10.825   3.329   3.346
45109SOL     OW37223   1.364   3.640   5.188
45109SOL    HW137224   1.281   3.658   5.232
45109SOL    HW237225   1.376   3.545   5.197
45110SOL     OW37226   3.552   5.330  10.742
45110SOL    HW137227   3.565   5.316  10.836
45110SOL    HW237228   3.526   5.245  10.708
45111SOL     OW37229   0.359   8.055   1.528
45111SOL    HW137230   0.288   7.993   1.513
45111SOL    HW237231   0.318   8.141   1.517
45112SOL     OW37232  12.478   2.085   5.713
45112SOL    HW137233  12.568   2.063   5.735
45112SOL    HW237234  12.438   2.001   5.687
45113SOL     OW37235   4.253   0.546   6.843
45113SOL    HW137236   4.300   0.462   6.852
45113SOL    HW237237   4.306   0.596   6.781
45114SOL     OW37238   0.481   4.261   7.097
45114SOL    HW137239   0.513   4.215   7.174
45114SOL    HW237240   0.462   4.191   7.034
45115SOL     OW37241   7.240  12.888  13.145
45115SOL    HW137242   7.154  12.860  13.115
45115SOL    HW237243   7.224  12.931  13.229
45116SOL     OW37244  12.526   3.391   0.685
45116SOL    HW137245  12.448   3.385   0.630
45116SOL    HW237246  12.555   3.300   0.695
45117SOL     OW37247   0.487   2.059   3.027
45117SOL    HW137248   0.420   2.074   2.960
45117SOL    HW237249   0.566   2.040   2.976
45118SOL     OW37250   4.890  12.977  13.201
45118SOL    HW137251   4.944  12.930  13.266
45118SOL    HW237252   4.800  12.951  13.222
45119SOL     OW37253   2.836   8.447   2.261
45119SOL    HW137254   2.931   8.431   2.255
45119SOL    HW237255   2.828   8.542   2.252
45120SOL     OW37256   4.452  12.339  14.356
45120SOL    HW137257   4.414  12.262  14.313
45120SOL    HW237258   4.423  12.333  14.447
45121SOL     OW37259   6.510   1.381  11.505
45121SOL    HW137260   6.537   1.308  11.450
45121SOL    HW237261   6.511   1.457  11.446
45122SOL     OW37262  12.054  10.851   6.490
45122SOL    HW137263  12.069  10.761   6.518
45122SOL    HW237264  12.071  10.850   6.395
45123SOL     OW37265  11.524   6.057  10.462
45123SOL    HW137266  11.446   6.003  10.453
45123SOL    HW237267  11.497   6.144  10.436
45124SOL     OW37268   5.402   6.213   4.309
45124SOL    HW137269   5.399   6.281   4.377
45124SOL    HW237270   5.327   6.156   4.329
45125SOL     OW37271   9.713  10.394   4.729
45125SOL    HW137272   9.736  10.462   4.666
45125SOL    HW237273   9.695  10.317   4.676
45126SOL     OW37274   3.081   1.121  13.860
45126SOL    HW137275   3.011   1.058  13.878
45126SOL    HW237276   3.048   1.172  13.786
45127SOL     OW37277  13.693   5.255  11.363
45127SOL    HW137278  13.679   5.289  11.274
45127SOL    HW237279  13.677   5.330  11.420
45128SOL     OW37280  13.417  11.792  12.214
45128SOL    HW137281  13.441  11.884  12.220
45128SOL    HW237282  13.401  11.777  12.121
45129SOL     OW37283   0.936  12.519   0.240
45129SOL    HW137284   0.881  12.583   0.286
45129SOL    HW237285   1.026  12.545   0.261
45130SOL     OW37286   8.352  13.931  10.725
45130SOL    HW137287   8.373  13.994  10.656
45130SOL    HW237288   8.394  13.850  10.698
45131SOL     OW37289   7.438  14.199   1.150
45131SOL    HW137290   7.358  14.166   1.108
45131SOL    HW237291   7.506  14.188   1.083
45132SOL     OW37292  10.042  12.202  13.414
45132SOL    HW137293   9.990  12.129  13.448
45132SOL    HW237294  10.030  12.273  13.476
45133SOL     OW37295  12.223   5.264   0.743
45133SOL    HW137296  12.306   5.217   0.741
45133SOL    HW237297  12.202   5.282   0.651
45134SOL     OW37298  13.584   3.491   4.001
45134SOL    HW137299  13.653   3.555   3.989
45134SOL    HW237300  13.603   3.423   3.936
45135SOL     OW37301   3.319  12.671   1.116
45135SOL    HW137302   3.271  12.731   1.061
45135SOL    HW237303   3.382  12.629   1.057
45136SOL     OW37304   2.806   1.551  10.468
45136SOL    HW137305   2.751   1.481  10.504
45136SOL    HW237306   2.857   1.509  10.399
45137SOL     OW37307  11.687   7.522   9.824
45137SOL    HW137308  11.698   7.488   9.735
45137SOL    HW237309  11.666   7.615   9.811
45138SOL     OW37310   7.196   8.612   9.470
45138SOL    HW137311   7.290   8.625   9.460
45138SOL    HW237312   7.185   8.581   9.560
45139SOL     OW37313   9.260  10.920   3.997
45139SOL    HW137314   9.200  10.912   3.924
45139SOL    HW237315   9.346  10.898   3.961
45140SOL     OW37316   6.783  12.701  14.119
45140SOL    HW137317   6.816  12.769  14.061
45140SOL    HW237318   6.742  12.637  14.060
45141SOL     OW37319  10.918  12.443   6.408
45141SOL    HW137320  10.970  12.442   6.327
45141SOL    HW237321  10.838  12.490   6.384
45142SOL     OW37322   7.235  13.283   8.182
45142SOL    HW137323   7.281  13.211   8.140
45142SOL    HW237324   7.178  13.319   8.115
45143SOL     OW37325   1.680  13.600   7.847
45143SOL    HW137326   1.725  13.575   7.767
45143SOL    HW237327   1.716  13.685   7.871
45144SOL     OW37328   4.276   1.936   7.283
45144SOL    HW137329   4.362   1.978   7.287
45144SOL    HW237330   4.295   1.842   7.280
45145SOL     OW37331   6.069  12.257   5.596
45145SOL    HW137332   6.105  12.341   5.569
45145SOL    HW237333   6.102  12.195   5.531
45146SOL     OW37334  10.125   6.135   3.961
45146SOL    HW137335  10.201   6.194   3.959
45146SOL    HW237336  10.107   6.115   3.869
45147SOL     OW37337   3.601  12.584   7.797
45147SOL    HW137338   3.669  12.542   7.746
45147SOL    HW237339   3.538  12.514   7.816
45148SOL     OW37340   2.040   2.857   3.328
45148SOL    HW137341   2.024   2.781   3.385
45148SOL    HW237342   2.136   2.862   3.322
45149SOL     OW37343   1.223  10.486   9.272
45149SOL    HW137344   1.236  10.522   9.360
45149SOL    HW237345   1.284  10.533   9.217
45150SOL     OW37346  12.350   7.904   6.904
45150SOL    HW137347  12.283   7.852   6.949
45150SOL    HW237348  12.433   7.860   6.925
45151SOL     OW37349   8.123   2.213  11.296
45151SOL    HW137350   8.185   2.143  11.278
45151SOL    HW237351   8.042   2.168  11.321
45152SOL     OW37352   1.087   2.471   0.059
45152SOL    HW137353   1.074   2.482   0.154
45152SOL    HW237354   1.007   2.506   0.020
45153SOL     OW37355  14.644   2.722   9.201
45153SOL    HW137356  14.625   2.631   9.179
45153SOL    HW237357  14.738   2.730   9.190
45154SOL     OW37358   2.621   1.593   7.823
45154SOL    HW137359   2.533   1.585   7.786
45154SOL    HW237360   2.631   1.686   7.843
45155SOL     OW37361  11.095   3.682   4.123
45155SOL    HW137362  11.184   3.719   4.124
45155SOL    HW237363  11.108   3.589   4.139
45156SOL     OW37364   5.457   4.858   0.155
45156SOL    HW137365   5.478   4.776   0.109
45156SOL    HW237366   5.529   4.917   0.133
45157SOL     OW37367   5.423   2.745  11.622
45157SOL    HW137368   5.444   2.828  11.578
45157SOL    HW237369   5.333   2.726  11.595
45158SOL     OW37370   8.895  10.870   7.592
45158SOL    HW137371   8.917  10.777   7.593
45158SOL    HW237372   8.806  10.874   7.626
45159SOL     OW37373  11.065   9.585   4.927
45159SOL    HW137374  11.023   9.646   4.989
45159SOL    HW237375  11.047   9.499   4.964
45160SOL     OW37376  12.544  11.819  14.455
45160SOL    HW137377  12.614  11.767  14.494
45160SOL    HW237378  12.465  11.793  14.502
45161SOL     OW37379   2.666   8.648   6.361
45161SOL    HW137380   2.610   8.587   6.311
45161SOL    HW237381   2.678   8.722   6.303
45162SOL     OW37382  10.917   7.480  10.851
45162SOL    HW137383  10.872   7.552  10.895
45162SOL    HW237384  10.868   7.402  10.877
45163SOL     OW37385  11.705   8.911   0.314
45163SOL    HW137386  11.682   8.965   0.239
45163SOL    HW237387  11.790   8.945   0.343
45164SOL     OW37388   8.352   4.920   1.284
45164SOL    HW137389   8.354   4.966   1.200
45164SOL    HW237390   8.418   4.965   1.337
45165SOL     OW37391   8.718   2.898   9.764
45165SOL    HW137392   8.712   2.928   9.855
45165SOL    HW237393   8.806   2.861   9.757
45166SOL     OW37394  10.756   3.451   4.082
45166SOL    HW137395  10.743   3.373   4.136
45166SOL    HW237396  10.766   3.522   4.145
45167SOL     OW37397  11.248  11.809   0.596
45167SOL    HW137398  11.293  11.775   0.518
45167SOL    HW237399  11.288  11.762   0.669
45168SOL     OW37400   4.536   5.851   8.575
45168SOL    HW137401   4.618   5.891   8.604
45168SOL    HW237402   4.523   5.886   8.486
45169SOL     OW37403   6.930   1.243  11.415
45169SOL    HW137404   6.880   1.212  11.340
45169SOL    HW237405   6.880   1.213  11.491
45170SOL     OW37406   8.420  12.399   3.953
45170SOL    HW137407   8.425  12.382   3.859
45170SOL    HW237408   8.335  12.441   3.966
45171SOL     OW37409   3.185   1.396  12.689
45171SOL    HW137410   3.165   1.337  12.762
45171SOL    HW237411   3.278   1.416  12.700
45172SOL     OW37412   0.370  11.287   1.929
45172SOL    HW137413   0.292  11.252   1.971
45172SOL    HW237414   0.337  11.349   1.864
45173SOL     OW37415   3.335  13.303  11.032
45173SOL    HW137416   3.248  13.271  11.007
45173SOL    HW237417   3.328  13.398  11.028
45174SOL     OW37418   1.271   8.627   6.756
45174SOL    HW137419   1.311   8.701   6.712
45174SOL    HW237420   1.344   8.572   6.782
45175SOL     OW37421  14.135   0.185  11.258
45175SOL    HW137422  14.045   0.216  11.254
45175SOL    HW237423  14.129   0.101  11.305
45176SOL     OW37424   4.032  14.528   4.820
45176SOL    HW137425   4.000  14.575   4.743
45176SOL    HW237426   3.966  14.543   4.887
45177SOL     OW37427   8.787   6.929  13.569
45177SOL    HW137428   8.876   6.934  13.533
45177SOL    HW237429   8.798   6.886  13.653
45178SOL     OW37430   4.486  13.411   6.861
45178SOL    HW137431   4.406  13.391   6.910
45178SOL    HW237432   4.471  13.374   6.774
45179SOL     OW37433   0.190   4.853   2.745
45179SOL    HW137434   0.221   4.896   2.825
45179SOL    HW237435   0.206   4.917   2.675
45180SOL     OW37436  12.070  14.799  11.564
45180SOL    HW137437  12.106  14.763  11.484
45180SOL    HW237438  12.118   0.013  11.577
45181SOL     OW37439   1.474   0.970   8.676
45181SOL    HW137440   1.416   0.916   8.731
45181SOL    HW237441   1.528   1.018   8.739
45182SOL     OW37442   0.134   1.673  14.608
45182SOL    HW137443   0.120   1.599  14.549
45182SOL    HW237444   0.087   1.649  14.688
45183SOL     OW37445  13.198  13.084   9.736
45183SOL    HW137446  13.105  13.105   9.728
45183SOL    HW237447  13.208  13.051   9.825
45184SOL     OW37448   2.727   8.553   4.070
45184SOL    HW137449   2.681   8.539   3.987
45184SOL    HW237450   2.810   8.594   4.045
45185SOL     OW37451  10.030  12.738   3.780
45185SOL    HW137452  10.000  12.742   3.870
45185SOL    HW237453   9.957  12.772   3.729
45186SOL     OW37454   1.451   3.941   4.166
45186SOL    HW137455   1.383   3.932   4.099
45186SOL    HW237456   1.409   3.914   4.247
45187SOL     OW37457   0.435  12.956   1.857
45187SOL    HW137458   0.512  12.959   1.801
45187SOL    HW237459   0.381  12.885   1.821
45188SOL     OW37460   8.068   0.040  11.157
45188SOL    HW137461   7.979   0.029  11.191
45188SOL    HW237462   8.081   0.135  11.158
45189SOL     OW37463   8.745   9.241  12.521
45189SOL    HW137464   8.718   9.210  12.607
45189SOL    HW237465   8.832   9.202  12.508
45190SOL     OW37466  13.943   8.016   3.235
45190SOL    HW137467  13.927   8.071   3.312
45190SOL    HW237468  13.984   8.076   3.172
45191SOL     OW37469  10.912   9.925   4.935
45191SOL    HW137470  10.948   9.940   4.848
45191SOL    HW237471  10.989   9.909   4.990
45192SOL     OW37472   9.204   4.090   5.785
45192SOL    HW137473   9.284   4.041   5.771
45192SOL    HW237474   9.140   4.025   5.813
45193SOL     OW37475  11.737  13.512   2.155
45193SOL    HW137476  11.815  13.561   2.132
45193SOL    HW237477  11.675  13.531   2.085
45194SOL     OW37478   1.987   7.267   4.560
45194SOL    HW137479   1.907   7.223   4.530
45194SOL    HW237480   1.974   7.359   4.536
45195SOL     OW37481   1.943  10.501   3.899
45195SOL    HW137482   1.897  10.491   3.816
45195SOL    HW237483   1.971  10.593   3.900
45196SOL     OW37484   3.387   2.412  10.165
45196SOL    HW137485   3.405   2.503  10.141
45196SOL    HW237486   3.422   2.360  10.093
45197SOL     OW37487   8.975   6.664   0.531
45197SOL    HW137488   9.035   6.596   0.501
45197SOL    HW237489   9.031   6.737   0.556
45198SOL     OW37490   2.140   2.074   0.099
45198SOL    HW137491   2.048   2.060   0.123
45198SOL    HW237492   2.182   1.990   0.116
45199SOL     OW37493   7.660   6.904   4.269
45199SOL    HW137494   7.682   6.824   4.221
45199SOL    HW237495   7.740   6.927   4.316
45200SOL     OW37496   3.819   5.197  10.012
45200SOL    HW137497   3.912   5.192  10.034
45200SOL    HW237498   3.814   5.170   9.921
45201SOL     OW37499   8.959  12.623  13.568
45201SOL    HW137500   8.887  12.609  13.507
45201SOL    HW237501   8.944  12.710  13.604
45202SOL     OW37502   1.074   7.373  10.692
45202SOL    HW137503   1.089   7.339  10.604
45202SOL    HW237504   0.982   7.354  10.710
45203SOL     OW37505  13.783   6.354   1.090
45203SOL    HW137506  13.860   6.399   1.124
45203SOL    HW237507  13.763   6.287   1.156
45204SOL     OW37508  12.645   9.382   0.402
45204SOL    HW137509  12.582   9.418   0.340
45204SOL    HW237510  12.590   9.342   0.470
45205SOL     OW37511  13.097   6.211   7.776
45205SOL    HW137512  13.012   6.252   7.760
45205SOL    HW237513  13.161   6.272   7.740
45206SOL     OW37514   6.778   5.926   6.878
45206SOL    HW137515   6.773   5.911   6.784
45206SOL    HW237516   6.705   5.876   6.914
45207SOL     OW37517  11.327   3.888  11.309
45207SOL    HW137518  11.381   3.947  11.257
45207SOL    HW237519  11.383   3.862  11.383
45208SOL     OW37520   4.737   1.309  14.815
45208SOL    HW137521   4.780   1.394  14.807
45208SOL    HW237522   4.808   1.245  14.812
45209SOL     OW37523   8.199   1.117  11.143
45209SOL    HW137524   8.129   1.075  11.194
45209SOL    HW237525   8.257   1.155  11.210
45210SOL     OW37526   0.352   6.495  13.271
45210SOL    HW137527   0.355   6.490  13.366
45210SOL    HW237528   0.259   6.484  13.249
45211SOL     OW37529   1.088  11.655  11.558
45211SOL    HW137530   1.156  11.593  11.583
45211SOL    HW237531   1.009  11.623  11.600
45212SOL     OW37532   0.195  11.212   9.121
45212SOL    HW137533   0.144  11.257   9.189
45212SOL    HW237534   0.132  11.152   9.080
45213SOL     OW37535   5.654   9.156   2.457
45213SOL    HW137536   5.705   9.161   2.376
45213SOL    HW237537   5.614   9.070   2.455
45214SOL     OW37538   5.769  10.458   4.373
45214SOL    HW137539   5.727  10.514   4.439
45214SOL    HW237540   5.697  10.409   4.334
45215SOL     OW37541   2.706  10.578  13.286
45215SOL    HW137542   2.745  10.603  13.370
45215SOL    HW237543   2.704  10.660  13.235
45216SOL     OW37544  13.297  11.568   2.653
45216SOL    HW137545  13.315  11.588   2.561
45216SOL    HW237546  13.205  11.539   2.653
45217SOL     OW37547   9.261   4.477   4.818
45217SOL    HW137548   9.265   4.526   4.736
45217SOL    HW237549   9.179   4.505   4.859
45218SOL     OW37550   7.593  12.273   4.852
45218SOL    HW137551   7.677  12.311   4.880
45218SOL    HW237552   7.602  12.262   4.757
45219SOL     OW37553   5.823   8.460   0.901
45219SOL    HW137554   5.830   8.540   0.849
45219SOL    HW237555   5.728   8.444   0.907
45220SOL     OW37556  14.833   1.938  14.542
45220SOL    HW137557  14.840   1.845  14.563
45220SOL    HW237558   0.033   1.952  14.476
45221SOL     OW37559   2.011   9.396   2.014
45221SOL    HW137560   2.062   9.416   2.092
45221SOL    HW237561   2.068   9.419   1.941
45222SOL     OW37562  11.622  13.103   6.554
45222SOL    HW137563  11.628  13.145   6.468
45222SOL    HW237564  11.708  13.119   6.594
45223SOL     OW37565  11.207  13.766   9.405
45223SOL    HW137566  11.203  13.780   9.500
45223SOL    HW237567  11.277  13.702   9.393
45224SOL     OW37568   6.080   1.792   6.874
45224SOL    HW137569   6.169   1.756   6.867
45224SOL    HW237570   6.023   1.717   6.857
45225SOL     OW37571   4.216   6.612   4.622
45225SOL    HW137572   4.152   6.659   4.675
45225SOL    HW237573   4.188   6.627   4.532
45226SOL     OW37574   4.314   1.562   2.446
45226SOL    HW137575   4.251   1.615   2.495
45226SOL    HW237576   4.281   1.563   2.356
45227SOL     OW37577   6.305   6.316  11.844
45227SOL    HW137578   6.234   6.252  11.837
45227SOL    HW237579   6.363   6.281  11.912
45228SOL     OW37580   8.704   8.692  14.521
45228SOL    HW137581   8.657   8.680  14.603
45228SOL    HW237582   8.795   8.708  14.547
45229SOL     OW37583   8.628   4.844   4.818
45229SOL    HW137584   8.562   4.806   4.876
45229SOL    HW237585   8.637   4.934   4.849
45230SOL     OW37586   1.972   7.580  12.501
45230SOL    HW137587   2.055   7.620  12.474
45230SOL    HW237588   1.922   7.571  12.420
45231SOL     OW37589   8.626   9.743   4.493
45231SOL    HW137590   8.553   9.729   4.432
45231SOL    HW237591   8.605   9.825   4.537
45232SOL     OW37592   7.043  12.485   1.166
45232SOL    HW137593   7.069  12.419   1.230
45232SOL    HW237594   6.962  12.451   1.128
45233SOL     OW37595   8.948  12.511  12.283
45233SOL    HW137596   8.888  12.439  12.265
45233SOL    HW237597   8.980  12.493  12.372
45234SOL     OW37598  14.518   0.880  11.088
45234SOL    HW137599  14.568   0.957  11.063
45234SOL    HW237600  14.583   0.821  11.128
45235SOL     OW37601   7.688  12.833   7.825
45235SOL    HW137602   7.740  12.762   7.862
45235SOL    HW237603   7.733  12.856   7.744
45236SOL     OW37604   3.361   0.629   7.003
45236SOL    HW137605   3.278   0.611   6.959
45236SOL    HW237606   3.363   0.568   7.076
45237SOL     OW37607  10.039   5.884   6.504
45237SOL    HW137608  10.080   5.808   6.463
45237SOL    HW237609   9.980   5.918   6.436
45238SOL     OW37610   2.922   8.875   8.083
45238SOL    HW137611   2.883   8.826   8.010
45238SOL    HW237612   2.847   8.904   8.135
45239SOL     OW37613   6.395   2.409   7.841
45239SOL    HW137614   6.431   2.401   7.929
45239SOL    HW237615   6.400   2.502   7.821
45240SOL     OW37616   4.124   3.092  10.304
45240SOL    HW137617   4.040   3.073  10.347
45240SOL    HW237618   4.132   3.187  10.308
45241SOL     OW37619   8.910  10.381   2.936
45241SOL    HW137620   8.853  10.442   2.889
45241SOL    HW237621   8.877  10.382   3.026
45242SOL     OW37622  11.472   0.338  12.659
45242SOL    HW137623  11.509   0.413  12.612
45242SOL    HW237624  11.546   0.280  12.674
45243SOL     OW37625   6.671  11.794   2.210
45243SOL    HW137626   6.622  11.769   2.132
45243SOL    HW237627   6.657  11.888   2.218
45244SOL     OW37628   0.840   4.621   1.303
45244SOL    HW137629   0.788   4.607   1.224
45244SOL    HW237630   0.868   4.533   1.329
45245SOL     OW37631  12.533   3.967   2.833
45245SOL    HW137632  12.541   4.041   2.772
45245SOL    HW237633  12.622   3.931   2.837
45246SOL     OW37634  12.420   3.234   7.353
45246SOL    HW137635  12.476   3.248   7.277
45246SOL    HW237636  12.455   3.154   7.394
45247SOL     OW37637   2.442   2.042  11.795
45247SOL    HW137638   2.516   2.029  11.854
45247SOL    HW237639   2.478   2.092  11.722
45248SOL     OW37640   0.230  10.351   8.443
45248SOL    HW137641   0.262  10.278   8.495
45248SOL    HW237642   0.306  10.377   8.389
45249SOL     OW37643  11.669  11.984  12.454
45249SOL    HW137644  11.635  12.061  12.409
45249SOL    HW237645  11.719  11.937  12.387
45250SOL     OW37646  11.005  13.675   2.370
45250SOL    HW137647  10.924  13.689   2.419
45250SOL    HW237648  10.983  13.698   2.280
45251SOL     OW37649  14.793   3.190   3.057
45251SOL    HW137650  14.718   3.145   3.097
45251SOL    HW237651  14.756   3.239   2.984
45252SOL     OW37652   3.206   5.366   8.281
45252SOL    HW137653   3.288   5.339   8.324
45252SOL    HW237654   3.235   5.412   8.202
45253SOL     OW37655   3.743   0.580  13.711
45253SOL    HW137656   3.723   0.524  13.786
45253SOL    HW237657   3.770   0.663  13.751
45254SOL     OW37658   2.287   4.381  14.770
45254SOL    HW137659   2.283   4.465  14.818
45254SOL    HW237660   2.365   4.338  14.804
45255SOL     OW37661   3.392   9.682   5.042
45255SOL    HW137662   3.485   9.662   5.053
45255SOL    HW237663   3.350   9.643   5.118
45256SOL     OW37664   8.400   2.407   7.441
45256SOL    HW137665   8.368   2.496   7.459
45256SOL    HW237666   8.323   2.351   7.455
45257SOL     OW37667  12.661  12.337  12.511
45257SOL    HW137668  12.717  12.295  12.576
45257SOL    HW237669  12.682  12.292  12.429
45258SOL     OW37670   5.098   4.035  13.960
45258SOL    HW137671   5.089   4.110  13.901
45258SOL    HW237672   5.188   4.004  13.945
45259SOL     OW37673  13.215   7.253   1.169
45259SOL    HW137674  13.267   7.234   1.247
45259SOL    HW237675  13.133   7.289   1.203
45260SOL     OW37676   8.236  14.020   6.563
45260SOL    HW137677   8.214  14.099   6.513
45260SOL    HW237678   8.218  13.948   6.504
45261SOL     OW37679  10.615  12.403   1.585
45261SOL    HW137680  10.547  12.461   1.618
45261SOL    HW237681  10.616  12.330   1.647
45262SOL     OW37682   9.646  13.201  11.304
45262SOL    HW137683   9.721  13.243  11.345
45262SOL    HW237684   9.684  13.149  11.233
45263SOL     OW37685   2.144   3.544  10.748
45263SOL    HW137686   2.155   3.615  10.685
45263SOL    HW237687   2.179   3.580  10.830
45264SOL     OW37688  14.373  10.818  13.979
45264SOL    HW137689  14.413  10.773  14.053
45264SOL    HW237690  14.292  10.854  14.014
45265SOL     OW37691  10.792   6.053   0.580
45265SOL    HW137692  10.807   5.966   0.618
45265SOL    HW237693  10.877   6.078   0.544
45266SOL     OW37694   6.287  12.309   8.441
45266SOL    HW137695   6.259  12.287   8.352
45266SOL    HW237696   6.381  12.327   8.433
45267SOL     OW37697   3.028   7.167  11.079
45267SOL    HW137698   3.048   7.188  11.171
45267SOL    HW237699   2.945   7.210  11.062
45268SOL     OW37700  12.782  10.697  11.500
45268SOL    HW137701  12.778  10.792  11.515
45268SOL    HW237702  12.691  10.669  11.504
45269SOL     OW37703   4.986   9.441   3.247
45269SOL    HW137704   5.028   9.415   3.330
45269SOL    HW237705   4.894   9.453   3.269
45270SOL     OW37706   1.744   5.788   5.535
45270SOL    HW137707   1.726   5.880   5.555
45270SOL    HW237708   1.802   5.758   5.605
45271SOL     OW37709   5.713   3.705   4.677
45271SOL    HW137710   5.774   3.634   4.700
45271SOL    HW237711   5.631   3.679   4.719
45272SOL     OW37712  13.995  13.664   5.877
45272SOL    HW137713  14.012  13.581   5.921
45272SOL    HW237714  14.036  13.730   5.934
45273SOL     OW37715   6.318   4.685   5.217
45273SOL    HW137716   6.310   4.674   5.312
45273SOL    HW237717   6.306   4.779   5.202
45274SOL     OW37718  12.461  14.481   9.174
45274SOL    HW137719  12.525  14.539   9.216
45274SOL    HW237720  12.508  14.442   9.100
45275SOL     OW37721  13.880  10.717   8.444
45275SOL    HW137722  13.850  10.756   8.362
45275SOL    HW237723  13.941  10.648   8.417
45276SOL     OW37724  13.654  13.698  11.118
45276SOL    HW137725  13.681  13.790  11.125
45276SOL    HW237726  13.559  13.699  11.131
45277SOL     OW37727   3.074   1.630  12.586
45277SOL    HW137728   3.022   1.660  12.662
45277SOL    HW237729   3.097   1.540  12.608
45278SOL     OW37730   3.461   4.571   9.885
45278SOL    HW137731   3.465   4.483   9.847
45278SOL    HW237732   3.546   4.609   9.865
45279SOL     OW37733   4.725   8.462  14.561
45279SOL    HW137734   4.707   8.556  14.559
45279SOL    HW237735   4.639   8.421  14.560
45280SOL     OW37736   3.436  12.584  11.486
45280SOL    HW137737   3.370  12.568  11.418
45280SOL    HW237738   3.520  12.570  11.443
45281SOL     OW37739   6.335   5.716   8.536
45281SOL    HW137740   6.420   5.677   8.554
45281SOL    HW237741   6.274   5.641   8.534
45282SOL     OW37742  13.943   6.520   9.732
45282SOL    HW137743  13.884   6.446   9.717
45282SOL    HW237744  14.025   6.481   9.760
45283SOL     OW37745  10.888   5.160   4.933
45283SOL    HW137746  10.947   5.130   4.864
45283SOL    HW237747  10.800   5.152   4.896
45284SOL     OW37748   6.529  10.819   0.909
45284SOL    HW137749   6.463  10.783   0.969
45284SOL    HW237750   6.575  10.885   0.960
45285SOL     OW37751  13.818   8.286   6.969
45285SOL    HW137752  13.750   8.219   6.962
45285SOL    HW237753  13.825   8.322   6.881
45286SOL     OW37754   4.157  13.414   7.710
45286SOL    HW137755   4.233  13.473   7.717
45286SOL    HW237756   4.162  13.360   7.789
45287SOL     OW37757  13.196  11.393  14.502
45287SOL    HW137758  13.250  11.350  14.435
45287SOL    HW237759  13.258  11.444  14.553
45288SOL     OW37760  12.197   7.611  14.783
45288SOL    HW137761  12.217   7.703  14.799
45288SOL    HW237762  12.189   7.603  14.688
45289SOL     OW37763   1.058   9.866   2.214
45289SOL    HW137764   1.086   9.926   2.283
45289SOL    HW237765   1.026   9.789   2.261
45290SOL     OW37766   6.853   4.950  13.426
45290SOL    HW137767   6.760   4.973  13.434
45290SOL    HW237768   6.874   4.965  13.334
45291SOL     OW37769   8.960   6.659   9.600
45291SOL    HW137770   8.898   6.698   9.661
45291SOL    HW237771   9.046   6.677   9.638
45292SOL     OW37772   1.061   5.364   7.607
45292SOL    HW137773   1.083   5.456   7.619
45292SOL    HW237774   0.972   5.356   7.641
45293SOL     OW37775   5.218  12.468  11.308
45293SOL    HW137776   5.202  12.442  11.399
45293SOL    HW237777   5.203  12.389  11.257
45294SOL     OW37778   8.523   8.260   4.302
45294SOL    HW137779   8.492   8.179   4.261
45294SOL    HW237780   8.617   8.247   4.311
45295SOL     OW37781  11.864   4.158   0.357
45295SOL    HW137782  11.852   4.072   0.315
45295SOL    HW237783  11.934   4.199   0.306
45296SOL     OW37784   6.289   7.370   7.256
45296SOL    HW137785   6.323   7.354   7.168
45296SOL    HW237786   6.326   7.454   7.281
45297SOL     OW37787  12.404   7.340   8.856
45297SOL    HW137788  12.319   7.338   8.812
45297SOL    HW237789  12.432   7.249   8.859
45298SOL     OW37790   6.867  13.116   0.469
45298SOL    HW137791   6.918  13.197   0.462
45298SOL    HW237792   6.930  13.046   0.455
45299SOL     OW37793   5.198  10.884   7.756
45299SOL    HW137794   5.217  10.803   7.804
45299SOL    HW237795   5.185  10.949   7.825
45300SOL     OW37796  12.491   8.947   8.720
45300SOL    HW137797  12.551   8.875   8.704
45300SOL    HW237798  12.524   8.989   8.799
45301SOL     OW37799  11.107   8.632   7.230
45301SOL    HW137800  11.162   8.575   7.175
45301SOL    HW237801  11.045   8.572   7.271
45302SOL     OW37802  12.813   9.889   6.209
45302SOL    HW137803  12.819   9.794   6.217
45302SOL    HW237804  12.901   9.920   6.232
45303SOL     OW37805   0.463  12.447   9.200
45303SOL    HW137806   0.549  12.414   9.174
45303SOL    HW237807   0.479  12.535   9.232
45304SOL     OW37808  13.716   0.315  13.866
45304SOL    HW137809  13.784   0.314  13.932
45304SOL    HW237810  13.729   0.398  13.819
45305SOL     OW37811   0.503   3.558   7.289
45305SOL    HW137812   0.454   3.569   7.371
45305SOL    HW237813   0.569   3.627   7.292
45306SOL     OW37814   1.614   4.529   3.353
45306SOL    HW137815   1.541   4.484   3.313
45306SOL    HW237816   1.574   4.590   3.416
45307SOL     OW37817   0.641   6.942   6.305
45307SOL    HW137818   0.667   6.849   6.303
45307SOL    HW237819   0.682   6.976   6.384
45308SOL     OW37820  14.177   5.131   7.229
45308SOL    HW137821  14.215   5.081   7.301
45308SOL    HW237822  14.239   5.203   7.214
45309SOL     OW37823   7.107   1.780  10.756
45309SOL    HW137824   7.102   1.876  10.761
45309SOL    HW237825   7.023   1.750  10.789
45310SOL     OW37826   6.437   3.392   3.120
45310SOL    HW137827   6.373   3.399   3.050
45310SOL    HW237828   6.459   3.482   3.142
45311SOL     OW37829   8.019   1.813  11.210
45311SOL    HW137830   8.015   1.860  11.127
45311SOL    HW237831   8.096   1.848  11.255
45312SOL     OW37832   9.606  11.771   4.386
45312SOL    HW137833   9.526  11.778   4.438
45312SOL    HW237834   9.646  11.858   4.391
45313SOL     OW37835   3.711  14.464   2.860
45313SOL    HW137836   3.763  14.385   2.841
45313SOL    HW237837   3.692  14.501   2.773
45314SOL     OW37838   8.334   3.133   5.658
45314SOL    HW137839   8.344   3.201   5.591
45314SOL    HW237840   8.403   3.070   5.638
45315SOL     OW37841   3.790   4.136   1.593
45315SOL    HW137842   3.820   4.126   1.683
45315SOL    HW237843   3.870   4.142   1.541
45316SOL     OW37844   3.493  13.277  13.018
45316SOL    HW137845   3.409  13.296  12.976
45316SOL    HW237846   3.542  13.359  13.011
45317SOL     OW37847  10.511   8.423  10.416
45317SOL    HW137848  10.583   8.484  10.435
45317SOL    HW237849  10.448   8.438  10.486
45318SOL     OW37850   6.683   9.927   2.662
45318SOL    HW137851   6.712   9.874   2.736
45318SOL    HW237852   6.618   9.987   2.699
45319SOL     OW37853   9.133   1.136   9.816
45319SOL    HW137854   9.129   1.195   9.892
45319SOL    HW237855   9.085   1.182   9.748
45320SOL     OW37856   7.282   6.617   8.364
45320SOL    HW137857   7.221   6.613   8.291
45320SOL    HW237858   7.359   6.568   8.334
45321SOL     OW37859  13.536   3.197   2.430
45321SOL    HW137860  13.484   3.261   2.382
45321SOL    HW237861  13.626   3.225   2.418
45322SOL     OW37862  11.063   5.237  12.036
45322SOL    HW137863  11.110   5.317  12.011
45322SOL    HW237864  11.043   5.194  11.953
45323SOL     OW37865  11.294  10.089   1.458
45323SOL    HW137866  11.247  10.015   1.496
45323SOL    HW237867  11.335  10.132   1.533
45324SOL     OW37868   2.378   2.393   6.698
45324SOL    HW137869   2.392   2.373   6.606
45324SOL    HW237870   2.408   2.315   6.744
45325SOL     OW37871   6.659   8.780   2.623
45325SOL    HW137872   6.693   8.713   2.683
45325SOL    HW237873   6.596   8.733   2.568
45326SOL     OW37874   1.963   6.369  10.183
45326SOL    HW137875   2.002   6.295  10.137
45326SOL    HW237876   1.909   6.330  10.251
45327SOL     OW37877   7.728  10.271  14.398
45327SOL    HW137878   7.774  10.271  14.314
45327SOL    HW237879   7.789  10.312  14.458
45328SOL     OW37880  11.888  10.275  11.558
45328SOL    HW137881  11.944  10.214  11.510
45328SOL    HW237882  11.882  10.352  11.501
45329SOL     OW37883   8.933   0.871  10.384
45329SOL    HW137884   8.892   0.850  10.467
45329SOL    HW237885   8.881   0.826  10.318
45330SOL     OW37886  12.926  10.510  13.665
45330SOL    HW137887  12.994  10.576  13.684
45330SOL    HW237888  12.962  10.429  13.701
45331SOL     OW37889   9.090  10.053   9.264
45331SOL    HW137890   9.168   9.997   9.268
45331SOL    HW237891   9.119  10.138   9.299
45332SOL     OW37892  11.298   7.543   9.204
45332SOL    HW137893  11.348   7.496   9.271
45332SOL    HW237894  11.208   7.516   9.219
45333SOL     OW37895   7.073   9.278  13.420
45333SOL    HW137896   7.090   9.362  13.462
45333SOL    HW237897   6.979   9.265  13.431
45334SOL     OW37898   4.995  13.473   0.744
45334SOL    HW137899   5.079  13.458   0.787
45334SOL    HW237900   5.009  13.445   0.653
45335SOL     OW37901   7.665  11.701  12.855
45335SOL    HW137902   7.687  11.649  12.777
45335SOL    HW237903   7.695  11.789  12.834
45336SOL     OW37904   8.345  12.007   7.323
45336SOL    HW137905   8.277  12.070   7.301
45336SOL    HW237906   8.334  11.936   7.259
45337SOL     OW37907  11.085   6.277   8.526
45337SOL    HW137908  11.141   6.355   8.521
45337SOL    HW237909  11.144   6.208   8.555
45338SOL     OW37910   2.472   1.838   1.015
45338SOL    HW137911   2.496   1.773   0.949
45338SOL    HW237912   2.544   1.901   1.012
45339SOL     OW37913   5.577   0.041   9.742
45339SOL    HW137914   5.527   0.120   9.764
45339SOL    HW237915   5.520  14.837   9.768
45340SOL     OW37916   9.105  11.587  13.507
45340SOL    HW137917   9.190  11.553  13.538
45340SOL    HW237918   9.096  11.552  13.418
45341SOL     OW37919  11.297  14.591   4.890
45341SOL    HW137920  11.249  14.522   4.936
45341SOL    HW237921  11.230  14.636   4.837
45342SOL     OW37922   9.515   0.285   8.141
45342SOL    HW137923   9.558   0.349   8.197
45342SOL    HW237924   9.570   0.280   8.063
45343SOL     OW37925   8.028  14.272   7.054
45343SOL    HW137926   8.001  14.218   6.980
45343SOL    HW237927   8.109  14.313   7.025
45344SOL     OW37928   6.103  14.674  14.214
45344SOL    HW137929   6.104  14.679  14.119
45344SOL    HW237930   6.112  14.765  14.244
45345SOL     OW37931   2.269   0.493   6.024
45345SOL    HW137932   2.276   0.413   6.076
45345SOL    HW237933   2.298   0.467   5.937
45346SOL     OW37934  12.585   5.353   5.341
45346SOL    HW137935  12.570   5.265   5.307
45346SOL    HW237936  12.669   5.347   5.387
45347SOL     OW37937   3.559   9.523   8.599
45347SOL    HW137938   3.507   9.442   8.601
45347SOL    HW237939   3.538   9.563   8.514
45348SOL     OW37940   3.857  13.042   5.891
45348SOL    HW137941   3.883  13.105   5.823
45348SOL    HW237942   3.935  13.033   5.946
45349SOL     OW37943  11.442   4.499   6.214
45349SOL    HW137944  11.360   4.532   6.176
45349SOL    HW237945  11.415   4.426   6.270
45350SOL     OW37946  13.893  13.728  10.673
45350SOL    HW137947  13.913  13.727  10.766
45350SOL    HW237948  13.858  13.816  10.656
45351SOL     OW37949   6.377  12.421   2.165
45351SOL    HW137950   6.454  12.477   2.159
45351SOL    HW237951   6.311  12.474   2.210
45352SOL     OW37952   4.066  14.671   3.762
45352SOL    HW137953   4.082  14.629   3.678
45352SOL    HW237954   4.048  14.763   3.739
45353SOL     OW37955   1.578  12.021   0.124
45353SOL    HW137956   1.520  11.976   0.062
45353SOL    HW237957   1.665  12.015   0.084
45354SOL     OW37958   9.868   7.812  10.633
45354SOL    HW137959   9.816   7.823  10.713
45354SOL    HW237960   9.957   7.836  10.659
45355SOL     OW37961   0.683   5.466   3.626
45355SOL    HW137962   0.700   5.382   3.583
45355SOL    HW237963   0.676   5.443   3.719
45356SOL     OW37964   8.162  10.232   9.316
45356SOL    HW137965   8.106  10.154   9.314
45356SOL    HW237966   8.126  10.286   9.386
45357SOL     OW37967  11.345   4.001   8.177
45357SOL    HW137968  11.276   4.022   8.239
45357SOL    HW237969  11.416   3.965   8.231
45358SOL     OW37970   9.971   3.720  14.839
45358SOL    HW137971   9.960   3.661   0.045
45358SOL    HW237972   9.888   3.767  14.832
45359SOL     OW37973   8.357  14.267   8.341
45359SOL    HW137974   8.314  14.200   8.394
45359SOL    HW237975   8.377  14.223   8.258
45360SOL     OW37976   1.789  13.317   6.696
45360SOL    HW137977   1.839  13.240   6.724
45360SOL    HW237978   1.755  13.355   6.777
45361SOL     OW37979  11.608   1.474   3.761
45361SOL    HW137980  11.514   1.469   3.776
45361SOL    HW237981  11.641   1.526   3.835
45362SOL     OW37982   4.016   2.013  10.122
45362SOL    HW137983   4.053   2.066  10.191
45362SOL    HW237984   4.074   1.938  10.115
45363SOL     OW37985  14.858  14.292   8.586
45363SOL    HW137986  14.804  14.362   8.623
45363SOL    HW237987   0.050  14.268   8.657
45364SOL     OW37988   8.860  13.143   7.268
45364SOL    HW137989   8.946  13.107   7.246
45364SOL    HW237990   8.875  13.237   7.279
45365SOL     OW37991  11.376  12.362   0.439
45365SOL    HW137992  11.320  12.297   0.396
45365SOL    HW237993  11.413  12.413   0.368
45366SOL     OW37994   8.270   6.721  13.019
45366SOL    HW137995   8.318   6.791  12.973
45366SOL    HW237996   8.314   6.714  13.103
45367SOL     OW37997   1.319  12.710   7.110
45367SOL    HW137998   1.322  12.795   7.066
45367SOL    HW237999   1.227  12.684   7.106
45368SOL     OW38000   7.427   6.554   3.519
45368SOL    HW138001   7.386   6.595   3.595
45368SOL    HW238002   7.359   6.497   3.483
45369SOL     OW38003  14.457   8.161   7.784
45369SOL    HW138004  14.394   8.168   7.711
45369SOL    HW238005  14.487   8.070   7.780
45370SOL     OW38006   1.278   7.808   7.441
45370SOL    HW138007   1.182   7.802   7.445
45370SOL    HW238008   1.308   7.720   7.464
45371SOL     OW38009   5.421   1.460   5.625
45371SOL    HW138010   5.364   1.532   5.651
45371SOL    HW238011   5.401   1.389   5.686
45372SOL     OW38012   2.131   5.668   5.820
45372SOL    HW138013   2.156   5.718   5.743
45372SOL    HW238014   2.191   5.593   5.822
45373SOL     OW38015   6.583   8.386  14.228
45373SOL    HW138016   6.585   8.406  14.322
45373SOL    HW238017   6.508   8.327  14.218
45374SOL     OW38018   0.892   3.118   8.873
45374SOL    HW138019   0.866   3.158   8.789
45374SOL    HW238020   0.920   3.030   8.849
45375SOL     OW38021   3.934   6.069   5.307
45375SOL    HW138022   3.912   6.007   5.238
45375SOL    HW238023   4.007   6.120   5.273
45376SOL     OW38024  11.380  12.318   6.879
45376SOL    HW138025  11.364  12.405   6.844
45376SOL    HW238026  11.319  12.309   6.951
45377SOL     OW38027   4.185   2.267   2.448
45377SOL    HW138028   4.117   2.250   2.514
45377SOL    HW238029   4.265   2.281   2.499
45378SOL     OW38030   7.532   7.992   7.231
45378SOL    HW138031   7.487   7.915   7.265
45378SOL    HW238032   7.584   7.960   7.158
45379SOL     OW38033   3.751   8.304   5.890
45379SOL    HW138034   3.697   8.369   5.845
45379SOL    HW238035   3.804   8.265   5.821
45380SOL     OW38036   6.184   3.313   7.976
45380SOL    HW138037   6.126   3.337   8.048
45380SOL    HW238038   6.214   3.397   7.940
45381SOL     OW38039  12.112   5.258  12.685
45381SOL    HW138040  12.196   5.273  12.729
45381SOL    HW238041  12.050   5.242  12.756
45382SOL     OW38042   4.927   8.558   1.731
45382SOL    HW138043   4.910   8.516   1.815
45382SOL    HW238044   4.903   8.650   1.745
45383SOL     OW38045   0.309   4.469   3.181
45383SOL    HW138046   0.261   4.435   3.256
45383SOL    HW238047   0.302   4.400   3.115
45384SOL     OW38048   2.851   2.883  11.517
45384SOL    HW138049   2.843   2.967  11.564
45384SOL    HW238050   2.771   2.878  11.464
45385SOL     OW38051  14.727  12.833  12.525
45385SOL    HW138052  14.658  12.879  12.477
45385SOL    HW238053  14.720  12.743  12.494
45386SOL     OW38054   8.583   9.484   0.319
45386SOL    HW138055   8.622   9.540   0.386
45386SOL    HW238056   8.576   9.398   0.360
45387SOL     OW38057  13.387  10.220   9.151
45387SOL    HW138058  13.335  10.212   9.071
45387SOL    HW238059  13.435  10.302   9.141
45388SOL     OW38060   4.414   3.972  14.625
45388SOL    HW138061   4.358   4.042  14.590
45388SOL    HW238062   4.371   3.891  14.598
45389SOL     OW38063   4.643  11.093  13.602
45389SOL    HW138064   4.737  11.114  13.598
45389SOL    HW238065   4.614  11.132  13.685
45390SOL     OW38066   0.169   8.306   3.665
45390SOL    HW138067   0.096   8.244   3.655
45390SOL    HW238068   0.135   8.374   3.723
45391SOL     OW38069   7.489   9.884   3.695
45391SOL    HW138070   7.456   9.917   3.778
45391SOL    HW238071   7.533   9.960   3.655
45392SOL     OW38072   9.064   9.215  10.344
45392SOL    HW138073   9.121   9.290  10.332
45392SOL    HW238074   9.018   9.233  10.426
45393SOL     OW38075   1.803   7.758   2.538
45393SOL    HW138076   1.857   7.796   2.607
45393SOL    HW238077   1.733   7.713   2.585
45394SOL     OW38078   3.947  13.076  11.495
45394SOL    HW138079   3.932  13.057  11.587
45394SOL    HW238080   3.861  13.101  11.461
45395SOL     OW38081   8.796  13.868   2.777
45395SOL    HW138082   8.768  13.903   2.693
45395SOL    HW238083   8.794  13.773   2.765
45396SOL     OW38084   8.271  10.446  14.705
45396SOL    HW138085   8.246  10.383  14.638
45396SOL    HW238086   8.363  10.427  14.723
45397SOL     OW38087  12.870  12.554   6.773
45397SOL    HW138088  12.844  12.645   6.786
45397SOL    HW238089  12.903  12.525   6.858
45398SOL     OW38090   8.078   2.006  11.005
45398SOL    HW138091   8.030   2.086  10.986
45398SOL    HW238092   8.163   2.035  11.036
45399SOL     OW38093  11.501   8.420   7.314
45399SOL    HW138094  11.480   8.503   7.357
45399SOL    HW238095  11.552   8.445   7.237
45400SOL     OW38096   5.081   6.231   4.989
45400SOL    HW138097   5.067   6.218   5.083
45400SOL    HW238098   5.113   6.321   4.982
45401SOL     OW38099   1.675  11.488   2.155
45401SOL    HW138100   1.582  11.507   2.142
45401SOL    HW238101   1.712  11.569   2.189
45402SOL     OW38102  10.623   6.092  14.585
45402SOL    HW138103  10.660   6.158  14.526
45402SOL    HW238104  10.663   6.009  14.557
45403SOL     OW38105   9.968   5.023   9.934
45403SOL    HW138106  10.063   5.014   9.933
45403SOL    HW238107   9.937   4.955   9.875
45404SOL     OW38108   4.091   8.130   2.645
45404SOL    HW138109   4.116   8.124   2.553
45404SOL    HW238110   4.172   8.152   2.691
45405SOL     OW38111   5.948   1.069   1.611
45405SOL    HW138112   5.935   0.984   1.569
45405SOL    HW238113   6.024   1.106   1.566
45406SOL     OW38114  11.930  10.676  10.583
45406SOL    HW138115  11.861  10.714  10.529
45406SOL    HW238116  12.009  10.725  10.560
45407SOL     OW38117   9.214   5.049   6.453
45407SOL    HW138118   9.272   5.067   6.379
45407SOL    HW238119   9.127   5.072   6.422
45408SOL     OW38120   3.793  13.143   0.343
45408SOL    HW138121   3.809  13.204   0.271
45408SOL    HW238122   3.699  13.126   0.340
45409SOL     OW38123   9.594   6.438   2.308
45409SOL    HW138124   9.645   6.462   2.386
45409SOL    HW238125   9.637   6.485   2.236
45410SOL     OW38126  10.541   2.803   9.351
45410SOL    HW138127  10.536   2.835   9.261
45410SOL    HW238128  10.634   2.782   9.363
45411SOL     OW38129   1.329   3.311   0.918
45411SOL    HW138130   1.361   3.302   0.829
45411SOL    HW238131   1.292   3.226   0.939
45412SOL     OW38132  14.841   6.604   1.668
45412SOL    HW138133  14.802   6.603   1.580
45412SOL    HW238134   0.016   6.689   1.674
45413SOL     OW38135  11.178   7.046  14.559
45413SOL    HW138136  11.101   7.002  14.596
45413SOL    HW238137  11.220   7.088  14.634
45414SOL     OW38138  12.832  13.773   1.849
45414SOL    HW138139  12.783  13.692   1.864
45414SOL    HW238140  12.846  13.775   1.754
45415SOL     OW38141  11.961   1.010   7.224
45415SOL    HW138142  11.877   1.051   7.244
45415SOL    HW238143  11.967   1.013   7.128
45416SOL     OW38144  11.366  12.168   1.843
45416SOL    HW138145  11.446  12.158   1.792
45416SOL    HW238146  11.390  12.226   1.915
45417SOL     OW38147  14.366   2.167   3.042
45417SOL    HW138148  14.322   2.251   3.054
45417SOL    HW238149  14.299   2.110   3.004
45418SOL     OW38150   1.367   9.076   4.733
45418SOL    HW138151   1.404   9.058   4.647
45418SOL    HW238152   1.420   9.147   4.768
45419SOL     OW38153   1.084   2.971   6.126
45419SOL    HW138154   1.122   3.006   6.045
45419SOL    HW238155   1.153   2.916   6.164
45420SOL     OW38156   0.027   8.358   3.259
45420SOL    HW138157   0.100   8.375   3.200
45420SOL    HW238158   0.018   8.439   3.310
45421SOL     OW38159   7.560   4.870   8.056
45421SOL    HW138160   7.538   4.776   8.053
45421SOL    HW238161   7.556   4.899   7.965
45422SOL     OW38162  11.539   1.399   5.884
45422SOL    HW138163  11.594   1.398   5.962
45422SOL    HW238164  11.451   1.379   5.916
45423SOL     OW38165  10.853   0.721   5.702
45423SOL    HW138166  10.831   0.687   5.616
45423SOL    HW238167  10.775   0.768   5.732
45424SOL     OW38168   4.049   1.737   0.759
45424SOL    HW138169   4.002   1.686   0.693
45424SOL    HW238170   4.133   1.691   0.769
45425SOL     OW38171   3.937   1.996   6.925
45425SOL    HW138172   3.862   2.054   6.913
45425SOL    HW238173   3.952   1.996   7.020
45426SOL     OW38174   1.762   4.935  10.554
45426SOL    HW138175   1.757   4.993  10.479
45426SOL    HW238176   1.711   4.858  10.529
45427SOL     OW38177  11.101  13.431   7.766
45427SOL    HW138178  11.087  13.427   7.861
45427SOL    HW238179  11.060  13.513   7.740
45428SOL     OW38180  12.557   0.899   1.513
45428SOL    HW138181  12.487   0.849   1.471
45428SOL    HW238182  12.541   0.990   1.485
45429SOL     OW38183   6.646   8.876   8.776
45429SOL    HW138184   6.651   8.972   8.776
45429SOL    HW238185   6.706   8.849   8.845
45430SOL     OW38186   8.626   9.972  12.237
45430SOL    HW138187   8.551   9.913  12.246
45430SOL    HW238188   8.697   9.916  12.205
45431SOL     OW38189   8.584   6.540   3.989
45431SOL    HW138190   8.623   6.550   4.076
45431SOL    HW238191   8.658   6.544   3.928
45432SOL     OW38192   0.504   0.183   8.924
45432SOL    HW138193   0.587   0.224   8.948
45432SOL    HW238194   0.526   0.125   8.852
45433SOL     OW38195   7.982  11.445   6.112
45433SOL    HW138196   8.044  11.426   6.042
45433SOL    HW238197   8.001  11.380   6.180
45434SOL     OW38198  10.885   9.563   0.907
45434SOL    HW138199  10.843   9.648   0.915
45434SOL    HW238200  10.909   9.540   0.997
45435SOL     OW38201  13.602  13.637   6.835
45435SOL    HW138202  13.666  13.576   6.873
45435SOL    HW238203  13.621  13.635   6.741
45436SOL     OW38204  11.280   2.746   3.750
45436SOL    HW138205  11.321   2.661   3.732
45436SOL    HW238206  11.208   2.751   3.687
45437SOL     OW38207   5.604   5.708   4.085
45437SOL    HW138208   5.509   5.715   4.086
45437SOL    HW238209   5.635   5.788   4.128
45438SOL     OW38210  13.201   2.624   3.855
45438SOL    HW138211  13.196   2.657   3.765
45438SOL    HW238212  13.111   2.596   3.875
45439SOL     OW38213   3.604   2.619  11.780
45439SOL    HW138214   3.555   2.698  11.756
45439SOL    HW238215   3.627   2.631  11.872
45440SOL     OW38216  13.951   9.414   6.528
45440SOL    HW138217  13.882   9.423   6.461
45440SOL    HW238218  13.991   9.501   6.532
45441SOL     OW38219   0.107   6.725  14.648
45441SOL    HW138220   0.202   6.718  14.642
45441SOL    HW238221   0.090   6.739  14.742
45442SOL     OW38222   3.857  13.433   0.594
45442SOL    HW138223   3.811  13.453   0.513
45442SOL    HW238224   3.944  13.473   0.583
45443SOL     OW38225  13.307  14.089   6.131
45443SOL    HW138226  13.395  14.098   6.168
45443SOL    HW238227  13.271  14.012   6.175
45444SOL     OW38228   9.078  11.303  11.209
45444SOL    HW138229   9.161  11.349  11.209
45444SOL    HW238230   9.099  11.213  11.184
45445SOL     OW38231  13.591  11.353   7.593
45445SOL    HW138232  13.603  11.269   7.637
45445SOL    HW238233  13.498  11.354   7.570
45446SOL     OW38234   8.198  13.172  14.735
45446SOL    HW138235   8.174  13.123  14.656
45446SOL    HW238236   8.142  13.135  14.803
45447SOL     OW38237  11.850   1.165  10.611
45447SOL    HW138238  11.777   1.117  10.570
45447SOL    HW238239  11.893   1.101  10.666
45448SOL     OW38240  11.882  10.452   8.786
45448SOL    HW138241  11.938  10.519   8.746
45448SOL    HW238242  11.889  10.469   8.880
45449SOL     OW38243   1.283   8.787  14.317
45449SOL    HW138244   1.187   8.789  14.311
45449SOL    HW238245   1.301   8.745  14.401
45450SOL     OW38246   0.162  14.007   7.206
45450SOL    HW138247   0.115  14.090   7.215
45450SOL    HW238248   0.114  13.960   7.137
45451SOL     OW38249   8.495   1.079   5.338
45451SOL    HW138250   8.478   1.015   5.407
45451SOL    HW238251   8.442   1.155   5.363
45452SOL     OW38252   9.514   2.506   3.839
45452SOL    HW138253   9.518   2.444   3.912
45452SOL    HW238254   9.430   2.489   3.797
45453SOL     OW38255   1.469  12.248   7.674
45453SOL    HW138256   1.554  12.269   7.713
45453SOL    HW238257   1.408  12.308   7.717
45454SOL     OW38258   2.446   9.561   0.928
45454SOL    HW138259   2.389   9.607   0.866
45454SOL    HW238260   2.525   9.615   0.932
45455SOL     OW38261   8.658  13.139   6.778
45455SOL    HW138262   8.709  13.085   6.839
45455SOL    HW238263   8.607  13.076   6.727
45456SOL     OW38264   8.088   4.933   8.870
45456SOL    HW138265   8.007   4.903   8.911
45456SOL    HW238266   8.114   4.860   8.812
45457SOL     OW38267   4.931   9.844  10.378
45457SOL    HW138268   4.967   9.850  10.290
45457SOL    HW238269   5.005   9.819  10.433
45458SOL     OW38270  10.497  10.736   4.160
45458SOL    HW138271  10.472  10.703   4.246
45458SOL    HW238272  10.474  10.829   4.162
45459SOL     OW38273  14.521   9.037  13.395
45459SOL    HW138274  14.531   8.946  13.368
45459SOL    HW238275  14.580   9.047  13.469
45460SOL     OW38276   4.690   6.312  11.736
45460SOL    HW138277   4.635   6.359  11.674
45460SOL    HW238278   4.767   6.287  11.686
45461SOL     OW38279   0.230   6.600   1.104
45461SOL    HW138280   0.167   6.658   1.147
45461SOL    HW238281   0.214   6.514   1.143
45462SOL     OW38282   4.511   0.762   6.398
45462SOL    HW138283   4.500   0.681   6.348
45462SOL    HW238284   4.499   0.832   6.334
45463SOL     OW38285  12.984   6.196  11.457
45463SOL    HW138286  12.971   6.198  11.362
45463SOL    HW238287  12.933   6.271  11.489
45464SOL     OW38288   3.838   9.614  10.346
45464SOL    HW138289   3.867   9.704  10.360
45464SOL    HW238290   3.787   9.617  10.265
45465SOL     OW38291   7.901  12.087  14.650
45465SOL    HW138292   7.864  12.152  14.590
45465SOL    HW238293   7.996  12.096  14.640
45466SOL     OW38294   1.305   5.664   1.094
45466SOL    HW138295   1.292   5.756   1.116
45466SOL    HW238296   1.332   5.665   1.002
45467SOL     OW38297   0.794   9.377   8.761
45467SOL    HW138298   0.863   9.436   8.792
45467SOL    HW238299   0.823   9.290   8.789
45468SOL     OW38300  13.451  13.127  11.703
45468SOL    HW138301  13.532  13.177  11.697
45468SOL    HW238302  13.394  13.181  11.758
45469SOL     OW38303   2.537   5.430  10.007
45469SOL    HW138304   2.514   5.424   9.915
45469SOL    HW238305   2.481   5.499  10.042
45470SOL     OW38306   1.858  12.735   1.747
45470SOL    HW138307   1.946  12.698   1.733
45470SOL    HW238308   1.816  12.675   1.808
45471SOL     OW38309   3.902   8.299  10.067
45471SOL    HW138310   3.820   8.267  10.105
45471SOL    HW238311   3.875   8.365  10.003
45472SOL     OW38312   8.290   4.545  12.027
45472SOL    HW138313   8.307   4.525  12.119
45472SOL    HW238314   8.370   4.586  11.995
45473SOL     OW38315   2.699   2.656   3.223
45473SOL    HW138316   2.702   2.575   3.273
45473SOL    HW238317   2.630   2.642   3.158
45474SOL     OW38318   0.885   6.317  10.957
45474SOL    HW138319   0.879   6.291  10.865
45474SOL    HW238320   0.794   6.317  10.987
45475SOL     OW38321  13.689   8.340   1.636
45475SOL    HW138322  13.755   8.405   1.615
45475SOL    HW238323  13.670   8.354   1.729
45476SOL     OW38324   4.911  13.947   5.886
45476SOL    HW138325   4.913  13.934   5.980
45476SOL    HW238326   4.907  13.858   5.849
45477SOL     OW38327  10.917   6.492   8.811
45477SOL    HW138328  10.872   6.522   8.732
45477SOL    HW238329  10.967   6.415   8.783
45478SOL     OW38330   6.905   0.950  14.787
45478SOL    HW138331   6.900   0.975   0.011
45478SOL    HW238332   6.972   1.007  14.750
45479SOL     OW38333   9.440  10.106   2.799
45479SOL    HW138334   9.534  10.098   2.784
45479SOL    HW238335   9.400  10.071   2.719
45480SOL     OW38336   5.628  12.228   8.773
45480SOL    HW138337   5.642  12.322   8.764
45480SOL    HW238338   5.533  12.217   8.771
45481SOL     OW38339   0.474   6.505   5.359
45481SOL    HW138340   0.515   6.588   5.336
45481SOL    HW238341   0.518   6.479   5.441
45482SOL     OW38342   9.017   3.279  11.954
45482SOL    HW138343   9.088   3.342  11.962
45482SOL    HW238344   9.026   3.243  11.866
45483SOL     OW38345   1.982   3.646   9.706
45483SOL    HW138346   1.940   3.655   9.620
45483SOL    HW238347   2.015   3.733   9.726
45484SOL     OW38348   6.977   2.043  10.866
45484SOL    HW138349   7.011   1.997  10.943
45484SOL    HW238350   7.026   2.124  10.862
45485SOL     OW38351   8.643   0.652  14.471
45485SOL    HW138352   8.730   0.626  14.499
45485SOL    HW238353   8.655   0.682  14.381
45486SOL     OW38354   9.258   5.131  11.703
45486SOL    HW138355   9.341   5.115  11.747
45486SOL    HW238356   9.221   5.043  11.690
45487SOL     OW38357   8.343   5.639  14.828
45487SOL    HW138358   8.309   5.578  14.763
45487SOL    HW238359   8.429   5.663  14.795
45488SOL     OW38360   1.157   9.272   2.715
45488SOL    HW138361   1.091   9.277   2.784
45488SOL    HW238362   1.213   9.199   2.741
45489SOL     OW38363  12.485  12.926  11.805
45489SOL    HW138364  12.472  12.918  11.900
45489SOL    HW238365  12.429  12.858  11.768
45490SOL     OW38366  14.567   1.593  10.897
45490SOL    HW138367  14.535   1.528  10.833
45490SOL    HW238368  14.659   1.570  10.911
45491SOL     OW38369  12.068  14.461   5.861
45491SOL    HW138370  12.083  14.522   5.933
45491SOL    HW238371  12.040  14.515   5.787
45492SOL     OW38372   0.842   7.196   5.151
45492SOL    HW138373   0.804   7.278   5.184
45492SOL    HW238374   0.932   7.197   5.184
45493SOL     OW38375   3.139   9.145   2.257
45493SOL    HW138376   3.185   9.211   2.205
45493SOL    HW238377   3.119   9.189   2.340
45494SOL     OW38378  12.620  12.827   6.439
45494SOL    HW138379  12.630  12.789   6.352
45494SOL    HW238380  12.676  12.774   6.496
45495SOL     OW38381   5.597   9.068   3.791
45495SOL    HW138382   5.611   9.081   3.885
45495SOL    HW238383   5.502   9.056   3.782
45496SOL     OW38384  14.490   6.351   2.619
45496SOL    HW138385  14.495   6.429   2.675
45496SOL    HW238386  14.580   6.338   2.589
45497SOL     OW38387  13.928  14.454   9.340
45497SOL    HW138388  13.915  14.549   9.347
45497SOL    HW238389  13.859  14.416   9.394
45498SOL     OW38390   0.838   6.523  10.376
45498SOL    HW138391   0.886   6.591  10.328
45498SOL    HW238392   0.750   6.527  10.340
45499SOL     OW38393  14.322  12.527   2.844
45499SOL    HW138394  14.376  12.606   2.834
45499SOL    HW238395  14.354  12.467   2.777
45500SOL     OW38396   3.461   0.001  12.623
45500SOL    HW138397   3.496  14.791  12.668
45500SOL    HW238398   3.518   0.072  12.651
45501SOL     OW38399   4.168   8.246   9.125
45501SOL    HW138400   4.199   8.251   9.034
45501SOL    HW238401   4.074   8.263   9.119
45502SOL     OW38402  10.011  11.295   8.736
45502SOL    HW138403  10.097  11.298   8.777
45502SOL    HW238404  10.021  11.231   8.665
45503SOL     OW38405  11.139   2.880   8.804
45503SOL    HW138406  11.049   2.882   8.836
45503SOL    HW238407  11.192   2.902   8.880
45504SOL     OW38408   8.883  14.424   6.810
45504SOL    HW138409   8.813  14.364   6.785
45504SOL    HW238410   8.918  14.388   6.891
45505SOL     OW38411  10.682   5.127  10.241
45505SOL    HW138412  10.654   5.114  10.150
45505SOL    HW238413  10.747   5.058  10.256
45506SOL     OW38414  12.604   7.876   1.960
45506SOL    HW138415  12.513   7.847   1.965
45506SOL    HW238416  12.655   7.795   1.961
45507SOL     OW38417   8.339   5.969   8.266
45507SOL    HW138418   8.271   5.922   8.315
45507SOL    HW238419   8.340   6.057   8.306
45508SOL     OW38420   2.027   7.284   9.170
45508SOL    HW138421   2.044   7.350   9.237
45508SOL    HW238422   2.107   7.282   9.117
45509SOL     OW38423  10.083   7.668   0.887
45509SOL    HW138424  10.090   7.762   0.903
45509SOL    HW238425  10.133   7.627   0.957
45510SOL     OW38426   5.317   2.691  14.154
45510SOL    HW138427   5.237   2.672  14.202
45510SOL    HW238428   5.296   2.770  14.103
45511SOL     OW38429   0.218   1.966   8.943
45511SOL    HW138430   0.276   1.904   8.989
45511SOL    HW238431   0.194   2.030   9.011
45512SOL     OW38432  14.363   6.659  10.199
45512SOL    HW138433  14.312   6.622  10.127
45512SOL    HW238434  14.420   6.588  10.227
45513SOL     OW38435   6.805   3.393   5.130
45513SOL    HW138436   6.728   3.401   5.187
45513SOL    HW238437   6.819   3.482   5.096
45514SOL     OW38438   0.939   1.412  12.819
45514SOL    HW138439   0.985   1.495  12.805
45514SOL    HW238440   0.847   1.435  12.815
45515SOL     OW38441   5.408   5.549   8.681
45515SOL    HW138442   5.376   5.640   8.683
45515SOL    HW238443   5.495   5.554   8.722
45516SOL     OW38444  10.651   8.283   7.398
45516SOL    HW138445  10.556   8.298   7.402
45516SOL    HW238446  10.670   8.229   7.475
45517SOL     OW38447  14.289   4.990  11.848
45517SOL    HW138448  14.196   4.973  11.865
45517SOL    HW238449  14.334   4.913  11.883
45518SOL     OW38450   9.811   1.280   0.550
45518SOL    HW138451   9.795   1.212   0.615
45518SOL    HW238452   9.770   1.358   0.586
45519SOL     OW38453   2.114   4.916  13.817
45519SOL    HW138454   2.134   4.823  13.825
45519SOL    HW238455   2.198   4.956  13.793
45520SOL     OW38456  12.266  10.655   7.505
45520SOL    HW138457  12.255  10.740   7.546
45520SOL    HW238458  12.361  10.643   7.499
45521SOL     OW38459  10.616   2.444   5.753
45521SOL    HW138460  10.520   2.443   5.754
45521SOL    HW238461  10.639   2.418   5.664
45522SOL     OW38462   4.121   0.713   5.274
45522SOL    HW138463   4.113   0.709   5.179
45522SOL    HW238464   4.134   0.806   5.293
45523SOL     OW38465   9.203   8.033  14.602
45523SOL    HW138466   9.182   7.991  14.519
45523SOL    HW238467   9.281   7.987  14.634
45524SOL     OW38468   0.020  14.002   7.938
45524SOL    HW138469  14.840  14.056   7.876
45524SOL    HW238470  14.838  13.920   7.942
45525SOL     OW38471   7.791   5.460  11.472
45525SOL    HW138472   7.759   5.407  11.545
45525SOL    HW238473   7.738   5.540  11.475
45526SOL     OW38474  11.878   6.295   4.020
45526SOL    HW138475  11.953   6.243   3.990
45526SOL    HW238476  11.917   6.368   4.068
45527SOL     OW38477  14.541   0.111  10.494
45527SOL    HW138478  14.550   0.021  10.525
45527SOL    HW238479  14.629   0.137  10.468
45528SOL     OW38480   9.678  14.773   7.565
45528SOL    HW138481   9.591  14.736   7.547
45528SOL    HW238482   9.739  14.711   7.524
45529SOL     OW38483  10.495  11.846  12.677
45529SOL    HW138484  10.552  11.769  12.682
45529SOL    HW238485  10.521  11.900  12.751
45530SOL     OW38486   8.881  10.583   9.549
45530SOL    HW138487   8.808  10.526   9.574
45530SOL    HW238488   8.839  10.656   9.503
45531SOL     OW38489  12.560   9.188   7.085
45531SOL    HW138490  12.496   9.252   7.051
45531SOL    HW238491  12.625   9.242   7.130
45532SOL     OW38492   2.056   5.706   4.952
45532SOL    HW138493   2.101   5.759   4.887
45532SOL    HW238494   2.125   5.677   5.012
45533SOL     OW38495   9.817   4.646  10.450
45533SOL    HW138496   9.822   4.623  10.543
45533SOL    HW238497   9.751   4.715  10.446
45534SOL     OW38498   1.529   5.827  11.039
45534SOL    HW138499   1.502   5.800  10.952
45534SOL    HW238500   1.624   5.813  11.040
45535SOL     OW38501   5.028  12.601   5.886
45535SOL    HW138502   5.117  12.575   5.863
45535SOL    HW238503   5.030  12.697   5.885
45536SOL     OW38504  12.372   8.164   0.192
45536SOL    HW138505  12.343   8.229   0.255
45536SOL    HW238506  12.387   8.085   0.243
45537SOL     OW38507  14.013  12.796   9.271
45537SOL    HW138508  14.003  12.882   9.230
45537SOL    HW238509  13.939  12.745   9.236
45538SOL     OW38510   8.832   1.776  10.472
45538SOL    HW138511   8.741   1.803  10.483
45538SOL    HW238512   8.847   1.780  10.378
45539SOL     OW38513   7.459  14.616   9.220
45539SOL    HW138514   7.468  14.600   9.314
45539SOL    HW238515   7.499  14.540   9.178
45540SOL     OW38516   2.896   7.558   2.602
45540SOL    HW138517   2.835   7.502   2.650
45540SOL    HW238518   2.842   7.628   2.567
45541SOL     OW38519   8.956   5.182   8.672
45541SOL    HW138520   8.937   5.111   8.734
45541SOL    HW238521   8.921   5.260   8.714
45542SOL     OW38522  11.717   9.781   6.798
45542SOL    HW138523  11.660   9.722   6.847
45542SOL    HW238524  11.688   9.869   6.823
45543SOL     OW38525   3.912   5.574   6.410
45543SOL    HW138526   3.973   5.581   6.483
45543SOL    HW238527   3.900   5.480   6.398
45544SOL     OW38528   0.663  13.536  11.910
45544SOL    HW138529   0.745  13.584  11.909
45544SOL    HW238530   0.654  13.501  11.821
45545SOL     OW38531   8.636  14.328   4.231
45545SOL    HW138532   8.668  14.272   4.161
45545SOL    HW238533   8.697  14.402   4.233
45546SOL     OW38534   2.932  12.328   0.963
45546SOL    HW138535   2.876  12.288   0.897
45546SOL    HW238536   2.995  12.381   0.913
45547SOL     OW38537   1.648  13.795   4.686
45547SOL    HW138538   1.561  13.766   4.712
45547SOL    HW238539   1.665  13.747   4.605
45548SOL     OW38540   3.876  11.091  13.362
45548SOL    HW138541   3.894  11.096  13.269
45548SOL    HW238542   3.902  11.002  13.387
45549SOL     OW38543   5.652  12.862   9.189
45549SOL    HW138544   5.634  12.768   9.179
45549SOL    HW238545   5.575  12.896   9.234
45550SOL     OW38546   6.192  14.711  13.319
45550SOL    HW138547   6.215  14.727  13.228
45550SOL    HW238548   6.101  14.682  13.316
45551SOL     OW38549   1.953   2.076   7.683
45551SOL    HW138550   1.976   2.169   7.687
45551SOL    HW238551   1.946   2.050   7.775
45552SOL     OW38552   4.359  13.013   2.644
45552SOL    HW138553   4.386  12.922   2.629
45552SOL    HW238554   4.279  13.022   2.592
45553SOL     OW38555   8.579   1.189   7.896
45553SOL    HW138556   8.654   1.231   7.854
45553SOL    HW238557   8.505   1.209   7.839
45554SOL     OW38558   0.500   9.121   2.970
45554SOL    HW138559   0.519   9.039   3.015
45554SOL    HW238560   0.406   9.119   2.954
45555SOL     OW38561  10.170   2.207  11.916
45555SOL    HW138562  10.174   2.215  12.011
45555SOL    HW238563  10.178   2.113  11.899
45556SOL     OW38564  10.208   0.360   7.821
45556SOL    HW138565  10.232   0.365   7.914
45556SOL    HW238566  10.207   0.451   7.792
45557SOL     OW38567   1.826   8.735  12.506
45557SOL    HW138568   1.763   8.746  12.577
45557SOL    HW238569   1.773   8.730  12.427
45558SOL     OW38570   9.600  12.189   3.480
45558SOL    HW138571   9.638  12.277   3.474
45558SOL    HW238572   9.561  12.185   3.567
45559SOL     OW38573  10.423   4.279  10.731
45559SOL    HW138574  10.479   4.209  10.697
45559SOL    HW238575  10.476   4.358  10.723
45560SOL     OW38576  11.722   4.020   8.919
45560SOL    HW138577  11.702   3.988   8.831
45560SOL    HW238578  11.756   4.108   8.906
45561SOL     OW38579   5.921   8.790  13.401
45561SOL    HW138580   5.974   8.743  13.466
45561SOL    HW238581   5.941   8.883  13.417
45562SOL     OW38582   1.204   6.541  14.298
45562SOL    HW138583   1.276   6.568  14.355
45562SOL    HW238584   1.165   6.624  14.267
45563SOL     OW38585   9.682   6.059   2.499
45563SOL    HW138586   9.734   6.055   2.418
45563SOL    HW238587   9.595   6.028   2.473
45564SOL     OW38588  11.731  11.110   6.714
45564SOL    HW138589  11.794  11.097   6.785
45564SOL    HW238590  11.686  11.191   6.736
45565SOL     OW38591   0.412  11.823  10.917
45565SOL    HW138592   0.379  11.737  10.942
45565SOL    HW238593   0.392  11.879  10.992
45566SOL     OW38594  13.895   0.646   2.697
45566SOL    HW138595  13.887   0.740   2.681
45566SOL    HW238596  13.894   0.637   2.792
45567SOL     OW38597   8.435  10.564   3.220
45567SOL    HW138598   8.425  10.518   3.137
45567SOL    HW238599   8.523  10.541   3.250
45568SOL     OW38600   9.496   6.806   5.557
45568SOL    HW138601   9.554   6.866   5.511
45568SOL    HW238602   9.485   6.732   5.496
45569SOL     OW38603   4.726   2.784  10.101
45569SOL    HW138604   4.744   2.787  10.194
45569SOL    HW238605   4.795   2.729  10.064
45570SOL     OW38606  10.171   5.788   1.657
45570SOL    HW138607  10.086   5.801   1.615
45570SOL    HW238608  10.211   5.875   1.658
45571SOL     OW38609   2.372  10.378   9.696
45571SOL    HW138610   2.455  10.418   9.723
45571SOL    HW238611   2.311  10.401   9.766
45572SOL     OW38612   5.177  14.476  12.319
45572SOL    HW138613   5.224  14.393  12.321
45572SOL    HW238614   5.099  14.461  12.372
45573SOL     OW38615   3.390   2.435   5.761
45573SOL    HW138616   3.301   2.443   5.727
45573SOL    HW238617   3.378   2.419   5.855
45574SOL     OW38618   8.461   3.640   8.085
45574SOL    HW138619   8.547   3.600   8.089
45574SOL    HW238620   8.407   3.589   8.145
45575SOL     OW38621  13.420   6.763  11.140
45575SOL    HW138622  13.476   6.734  11.212
45575SOL    HW238623  13.478   6.768  11.064
45576SOL     OW38624   7.484  13.583   7.614
45576SOL    HW138625   7.549  13.518   7.641
45576SOL    HW238626   7.400  13.538   7.623
45577SOL     OW38627  13.512   6.374   1.007
45577SOL    HW138628  13.606   6.393   1.009
45577SOL    HW238629  13.505   6.282   1.032
45578SOL     OW38630   7.934   0.930  14.540
45578SOL    HW138631   7.868   0.864  14.520
45578SOL    HW238632   7.890   0.991  14.599
45579SOL     OW38633   7.013   3.836  10.088
45579SOL    HW138634   7.082   3.903  10.079
45579SOL    HW238635   6.933   3.881  10.062
45580SOL     OW38636  12.443   2.696   9.591
45580SOL    HW138637  12.520   2.750   9.606
45580SOL    HW238638  12.477   2.607   9.585
45581SOL     OW38639   8.467   8.145   3.913
45581SOL    HW138640   8.531   8.216   3.909
45581SOL    HW238641   8.388   8.186   3.950
45582SOL     OW38642  14.265   8.930  12.884
45582SOL    HW138643  14.335   8.930  12.949
45582SOL    HW238644  14.310   8.910  12.801
45583SOL     OW38645   2.526   3.705   9.173
45583SOL    HW138646   2.506   3.627   9.121
45583SOL    HW238647   2.488   3.685   9.259
45584SOL     OW38648   6.475  13.942   0.720
45584SOL    HW138649   6.412  13.895   0.774
45584SOL    HW238650   6.448  13.924   0.630
45585SOL     OW38651   4.600   8.305   7.755
45585SOL    HW138652   4.669   8.301   7.690
45585SOL    HW238653   4.645   8.318   7.838
45586SOL     OW38654   9.422   9.193   1.393
45586SOL    HW138655   9.495   9.213   1.335
45586SOL    HW238656   9.401   9.102   1.375
45587SOL     OW38657   5.337   1.314   3.833
45587SOL    HW138658   5.317   1.272   3.749
45587SOL    HW238659   5.326   1.245   3.898
45588SOL     OW38660   3.334   2.429   6.033
45588SOL    HW138661   3.243   2.446   6.054
45588SOL    HW238662   3.380   2.511   6.055
45589SOL     OW38663  10.557  14.065   1.356
45589SOL    HW138664  10.513  13.980   1.367
45589SOL    HW238665  10.506  14.110   1.289
45590SOL     OW38666   0.595  12.662   5.842
45590SOL    HW138667   0.564  12.625   5.759
45590SOL    HW238668   0.598  12.587   5.902
45591SOL     OW38669   2.955  12.076   5.940
45591SOL    HW138670   2.886  12.036   5.888
45591SOL    HW238671   3.013  12.117   5.877
45592SOL     OW38672   2.386   9.973   9.721
45592SOL    HW138673   2.404  10.009   9.808
45592SOL    HW238674   2.293   9.991   9.706
45593SOL     OW38675   4.229  12.033   4.690
45593SOL    HW138676   4.277  12.109   4.723
45593SOL    HW238677   4.242  12.036   4.596
45594SOL     OW38678   3.372   1.975   6.855
45594SOL    HW138679   3.437   2.026   6.903
45594SOL    HW238680   3.384   1.885   6.886
45595SOL     OW38681   1.388   0.556  11.033
45595SOL    HW138682   1.374   0.516  10.947
45595SOL    HW238683   1.359   0.646  11.022
45596SOL     OW38684   3.535   5.897   6.733
45596SOL    HW138685   3.443   5.894   6.761
45596SOL    HW238686   3.532   5.931   6.644
45597SOL     OW38687  12.900  10.671   6.266
45597SOL    HW138688  12.864  10.732   6.201
45597SOL    HW238689  12.960  10.616   6.216
45598SOL     OW38690  14.367   9.634  13.499
45598SOL    HW138691  14.448   9.657  13.544
45598SOL    HW238692  14.307   9.608  13.569
45599SOL     OW38693   9.666  11.197   4.142
45599SOL    HW138694   9.703  11.155   4.220
45599SOL    HW238695   9.742  11.228   4.093
45600SOL     OW38696   7.680   6.655  11.097
45600SOL    HW138697   7.687   6.626  11.006
45600SOL    HW238698   7.649   6.578  11.144
45601SOL     OW38699   8.533   9.427   7.468
45601SOL    HW138700   8.513   9.520   7.465
45601SOL    HW238701   8.492   9.391   7.390
45602SOL     OW38702   4.251   2.800   3.495
45602SOL    HW138703   4.318   2.732   3.504
45602SOL    HW238704   4.296   2.881   3.516
45603SOL     OW38705   7.284   2.955   0.280
45603SOL    HW138706   7.252   2.865   0.266
45603SOL    HW238707   7.356   2.964   0.218
45604SOL     OW38708  10.801   2.598  12.537
45604SOL    HW138709  10.754   2.680  12.522
45604SOL    HW238710  10.835   2.605  12.626
45605SOL     OW38711   9.192  12.996  14.335
45605SOL    HW138712   9.249  12.936  14.287
45605SOL    HW238713   9.137  13.037  14.268
45606SOL     OW38714   4.150  14.370   8.491
45606SOL    HW138715   4.150  14.464   8.473
45606SOL    HW238716   4.059  14.350   8.512
45607SOL     OW38717   2.395   9.227  10.502
45607SOL    HW138718   2.368   9.192  10.587
45607SOL    HW238719   2.441   9.154  10.459
45608SOL     OW38720  14.717  10.220  11.395
45608SOL    HW138721  14.652  10.182  11.336
45608SOL    HW238722  14.771  10.276  11.340
45609SOL     OW38723  12.371  14.034  14.382
45609SOL    HW138724  12.413  13.948  14.385
45609SOL    HW238725  12.278  14.015  14.396
45610SOL     OW38726  11.859   3.913  12.599
45610SOL    HW138727  11.854   3.839  12.538
45610SOL    HW238728  11.926   3.970  12.561
45611SOL     OW38729   8.668   7.952  14.722
45611SOL    HW138730   8.713   8.017  14.668
45611SOL    HW238731   8.657   7.877  14.664
45612SOL     OW38732   7.157  12.058   2.241
45612SOL    HW138733   7.112  11.995   2.184
45612SOL    HW238734   7.207  12.113   2.180
45613SOL     OW38735   6.683   2.350   5.434
45613SOL    HW138736   6.654   2.434   5.469
45613SOL    HW238737   6.691   2.293   5.510
45614SOL     OW38738   6.758   5.986   8.399
45614SOL    HW138739   6.775   5.938   8.318
45614SOL    HW238740   6.665   5.974   8.416
45615SOL     OW38741  11.763   1.486  13.641
45615SOL    HW138742  11.817   1.515  13.714
45615SOL    HW238743  11.826   1.463  13.572
45616SOL     OW38744   9.494  12.776   4.851
45616SOL    HW138745   9.453  12.854   4.889
45616SOL    HW238746   9.519  12.802   4.763
45617SOL     OW38747   6.676   2.140   9.354
45617SOL    HW138748   6.612   2.160   9.422
45617SOL    HW238749   6.755   2.188   9.381
45618SOL     OW38750  11.052  10.430   6.544
45618SOL    HW138751  11.054  10.346   6.589
45618SOL    HW238752  11.002  10.414   6.464
45619SOL     OW38753   9.895   3.067  14.539
45619SOL    HW138754   9.871   3.088  14.629
45619SOL    HW238755   9.918   3.151  14.500
45620SOL     OW38756  14.685  10.605  11.637
45620SOL    HW138757  14.618  10.588  11.703
45620SOL    HW238758  14.762  10.557  11.668
45621SOL     OW38759   7.462  10.394   3.568
45621SOL    HW138760   7.550  10.425   3.590
45621SOL    HW238761   7.410  10.474   3.562
45622SOL     OW38762   9.490   3.511   4.374
45622SOL    HW138763   9.423   3.444   4.361
45622SOL    HW238764   9.447   3.577   4.429
45623SOL     OW38765   6.999  12.597   9.456
45623SOL    HW138766   6.951  12.617   9.375
45623SOL    HW238767   6.956  12.518   9.490
45624SOL     OW38768  10.637   2.277   9.842
45624SOL    HW138769  10.594   2.231   9.770
45624SOL    HW238770  10.685   2.210   9.890
45625SOL     OW38771   0.828   9.433   8.042
45625SOL    HW138772   0.790   9.378   8.111
45625SOL    HW238773   0.870   9.371   7.982
45626SOL     OW38774   6.438   4.534  13.514
45626SOL    HW138775   6.499   4.585  13.461
45626SOL    HW238776   6.371   4.597  13.541
45627SOL     OW38777  14.471  11.923   6.464
45627SOL    HW138778  14.488  11.891   6.553
45627SOL    HW238779  14.394  11.875   6.436
45628SOL     OW38780   8.679  14.466   5.297
45628SOL    HW138781   8.752  14.405   5.283
45628SOL    HW238782   8.679  14.481   5.391
45629SOL     OW38783   8.853   3.474  11.840
45629SOL    HW138784   8.909   3.407  11.879
45629SOL    HW238785   8.772   3.427  11.819
45630SOL     OW38786   6.660   2.145   5.927
45630SOL    HW138787   6.646   2.062   5.881
45630SOL    HW238788   6.723   2.123   5.996
45631SOL     OW38789   4.603   2.652   0.353
45631SOL    HW138790   4.528   2.678   0.299
45631SOL    HW238791   4.673   2.634   0.289
45632SOL     OW38792  11.650   8.008   6.770
45632SOL    HW138793  11.619   8.001   6.861
45632SOL    HW238794  11.694   8.093   6.766
45633SOL     OW38795   4.508   7.664   2.232
45633SOL    HW138796   4.592   7.629   2.200
45633SOL    HW238797   4.442   7.623   2.176
45634SOL     OW38798   7.409  11.358   9.483
45634SOL    HW138799   7.454  11.441   9.494
45634SOL    HW238800   7.443  11.322   9.402
45635SOL     OW38801  13.134   7.136   2.504
45635SOL    HW138802  13.181   7.208   2.462
45635SOL    HW238803  13.199   7.067   2.514
45636SOL     OW38804   7.428   2.456   4.561
45636SOL    HW138805   7.492   2.408   4.614
45636SOL    HW238806   7.454   2.439   4.470
45637SOL     OW38807  10.899   1.087  13.876
45637SOL    HW138808  10.860   1.041  13.950
45637SOL    HW238809  10.883   1.180  13.894
45638SOL     OW38810   0.574  13.382   1.948
45638SOL    HW138811   0.517  13.399   2.023
45638SOL    HW238812   0.655  13.347   1.986
45639SOL     OW38813   0.063   4.490   6.226
45639SOL    HW138814   0.109   4.540   6.293
45639SOL    HW238815   0.110   4.508   6.145
45640SOL     OW38816   5.711  10.969   7.041
45640SOL    HW138817   5.766  10.989   6.965
45640SOL    HW238818   5.623  10.963   7.005
45641SOL     OW38819   8.850   0.418   0.631
45641SOL    HW138820   8.926   0.475   0.631
45641SOL    HW238821   8.859   0.367   0.550
45642SOL     OW38822  11.474   0.419   9.214
45642SOL    HW138823  11.546   0.367   9.249
45642SOL    HW238824  11.501   0.509   9.228
45643SOL     OW38825  10.653   8.716  14.866
45643SOL    HW138826  10.723   8.758   0.047
45643SOL    HW238827  10.697   8.648  14.814
45644SOL     OW38828  12.968  10.563   5.264
45644SOL    HW138829  13.014  10.516   5.333
45644SOL    HW238830  12.963  10.653   5.295
45645SOL     OW38831   0.934   7.315  12.544
45645SOL    HW138832   0.882   7.240  12.516
45645SOL    HW238833   0.906   7.330  12.635
45646SOL     OW38834  14.040   5.702   9.546
45646SOL    HW138835  14.063   5.674   9.634
45646SOL    HW238836  14.032   5.797   9.552
45647SOL     OW38837  14.698  13.982   0.513
45647SOL    HW138838  14.781  13.935   0.517
45647SOL    HW238839  14.701  14.042   0.587
45648SOL     OW38840   9.830   3.743   2.702
45648SOL    HW138841   9.906   3.686   2.690
45648SOL    HW238842   9.767   3.715   2.636
45649SOL     OW38843  13.333   7.600   8.364
45649SOL    HW138844  13.288   7.611   8.280
45649SOL    HW238845  13.420   7.569   8.340
45650SOL     OW38846   5.010   7.141   9.983
45650SOL    HW138847   4.922   7.139   9.946
45650SOL    HW238848   5.035   7.049   9.991
45651SOL     OW38849   4.684   0.321   7.741
45651SOL    HW138850   4.777   0.334   7.721
45651SOL    HW238851   4.638   0.351   7.663
45652SOL     OW38852   4.133   8.324   7.609
45652SOL    HW138853   4.215   8.365   7.635
45652SOL    HW238854   4.077   8.398   7.582
45653SOL     OW38855   8.213   5.976   2.974
45653SOL    HW138856   8.119   5.960   2.971
45653SOL    HW238857   8.244   5.922   3.047
45654SOL     OW38858   0.156  12.594   4.824
45654SOL    HW138859   0.120  12.675   4.861
45654SOL    HW238860   0.090  12.528   4.844
45655SOL     OW38861  12.030   4.268  14.314
45655SOL    HW138862  12.098   4.267  14.247
45655SOL    HW238863  12.055   4.199  14.375
45656SOL     OW38864   2.076  11.527   9.732
45656SOL    HW138865   2.112  11.594   9.674
45656SOL    HW238866   2.149  11.467   9.748
45657SOL     OW38867   4.847   1.305   5.520
45657SOL    HW138868   4.924   1.362   5.521
45657SOL    HW238869   4.884   1.216   5.520
45658SOL     OW38870   6.861   3.172   8.775
45658SOL    HW138871   6.897   3.259   8.794
45658SOL    HW238872   6.794   3.188   8.708
45659SOL     OW38873   2.014  14.476   7.756
45659SOL    HW138874   1.980  14.408   7.814
45659SOL    HW238875   2.080  14.430   7.703
45660SOL     OW38876   7.109   0.987   8.388
45660SOL    HW138877   7.185   1.031   8.349
45660SOL    HW238878   7.125   0.894   8.372
45661SOL     OW38879  14.596  10.759   5.078
45661SOL    HW138880  14.554  10.759   5.164
45661SOL    HW238881  14.686  10.732   5.095
45662SOL     OW38882  14.375  12.762   6.124
45662SOL    HW138883  14.322  12.774   6.046
45662SOL    HW238884  14.313  12.733   6.191
45663SOL     OW38885   7.169   3.616  10.135
45663SOL    HW138886   7.114   3.687  10.104
45663SOL    HW238887   7.200   3.645  10.221
45664SOL     OW38888   5.934   3.770  10.136
45664SOL    HW138889   5.842   3.791  10.149
45664SOL    HW238890   5.977   3.796  10.217
45665SOL     OW38891   9.726   2.075  13.213
45665SOL    HW138892   9.710   2.162  13.177
45665SOL    HW238893   9.748   2.091  13.305
45666SOL     OW38894   5.411   3.797   8.057
45666SOL    HW138895   5.388   3.890   8.063
45666SOL    HW238896   5.397   3.763   8.146
45667SOL     OW38897   9.241   8.132   8.472
45667SOL    HW138898   9.204   8.173   8.393
45667SOL    HW238899   9.335   8.139   8.459
45668SOL     OW38900  12.534   6.737  10.850
45668SOL    HW138901  12.452   6.690  10.838
45668SOL    HW238902  12.536   6.800  10.778
45669SOL     OW38903   6.975   8.942  13.490
45669SOL    HW138904   7.055   8.973  13.448
45669SOL    HW238905   7.004   8.866  13.542
45670SOL     OW38906   1.543   6.551   8.300
45670SOL    HW138907   1.625   6.600   8.293
45670SOL    HW238908   1.506   6.554   8.211
45671SOL     OW38909   7.436   9.125   3.119
45671SOL    HW138910   7.343   9.141   3.104
45671SOL    HW238911   7.476   9.211   3.115
45672SOL     OW38912   6.451   8.707   2.207
45672SOL    HW138913   6.479   8.654   2.133
45672SOL    HW238914   6.374   8.754   2.174
45673SOL     OW38915   8.081   3.567  10.793
45673SOL    HW138916   8.037   3.493  10.835
45673SOL    HW238917   8.138   3.527  10.728
45674SOL     OW38918  14.801  14.761   1.543
45674SOL    HW138919  14.847  14.700   1.485
45674SOL    HW238920  14.824  14.847   1.510
45675SOL     OW38921   1.832  12.058   5.188
45675SOL    HW138922   1.854  12.002   5.262
45675SOL    HW238923   1.904  12.046   5.126
45676SOL     OW38924   8.469  12.348  13.686
45676SOL    HW138925   8.526  12.410  13.731
45676SOL    HW238926   8.454  12.278  13.749
45677SOL     OW38927  13.357   8.540   8.532
45677SOL    HW138928  13.274   8.576   8.564
45677SOL    HW238929  13.373   8.464   8.589
45678SOL     OW38930  13.565   9.540  13.965
45678SOL    HW138931  13.625   9.571  13.898
45678SOL    HW238932  13.535   9.619  14.009
45679SOL     OW38933   7.219   5.756  11.790
45679SOL    HW138934   7.185   5.744  11.879
45679SOL    HW238935   7.149   5.801  11.744
45680SOL     OW38936   1.595  14.323  14.788
45680SOL    HW138937   1.615  14.246  14.842
45680SOL    HW238938   1.672  14.379  14.797
45681SOL     OW38939   3.933   8.316   6.449
45681SOL    HW138940   3.950   8.324   6.543
45681SOL    HW238941   3.893   8.230   6.439
45682SOL     OW38942   1.879   5.540  13.822
45682SOL    HW138943   1.796   5.497  13.841
45682SOL    HW238944   1.944   5.488  13.870
45683SOL     OW38945   4.163   7.814   8.566
45683SOL    HW138946   4.229   7.773   8.510
45683SOL    HW238947   4.096   7.747   8.578
45684SOL     OW38948   6.087  14.141   6.367
45684SOL    HW138949   6.154  14.161   6.432
45684SOL    HW238950   6.014  14.200   6.389
45685SOL     OW38951  13.402  13.626   3.158
45685SOL    HW138952  13.332  13.562   3.148
45685SOL    HW238953  13.440  13.634   3.071
45686SOL     OW38954  11.450   7.011   2.245
45686SOL    HW138955  11.471   7.076   2.312
45686SOL    HW238956  11.392   6.949   2.290
45687SOL     OW38957   8.860   7.469   2.814
45687SOL    HW138958   8.849   7.391   2.869
45687SOL    HW238959   8.890   7.537   2.874
45688SOL     OW38960   3.300   8.304   7.232
45688SOL    HW138961   3.305   8.225   7.179
45688SOL    HW238962   3.354   8.368   7.185
45689SOL     OW38963   1.079  13.212  13.255
45689SOL    HW138964   1.057  13.255  13.338
45689SOL    HW238965   1.173  13.224  13.246
45690SOL     OW38966   4.693   8.092  12.108
45690SOL    HW138967   4.696   8.137  12.024
45690SOL    HW238968   4.678   8.000  12.086
45691SOL     OW38969  12.732   9.400   7.192
45691SOL    HW138970  12.691   9.394   7.278
45691SOL    HW238971  12.813   9.449   7.208
45692SOL     OW38972   0.903   2.177  10.314
45692SOL    HW138973   0.873   2.255  10.268
45692SOL    HW238974   0.837   2.110  10.295
45693SOL     OW38975   2.525  13.128   0.804
45693SOL    HW138976   2.555  13.213   0.771
45693SOL    HW238977   2.598  13.095   0.855
45694SOL     OW38978   5.511   0.995   7.688
45694SOL    HW138979   5.464   1.075   7.709
45694SOL    HW238980   5.485   0.975   7.598
45695SOL     OW38981  13.683   9.902   4.233
45695SOL    HW138982  13.653   9.816   4.263
45695SOL    HW238983  13.710   9.947   4.313
45696SOL     OW38984   3.036   5.862   9.650
45696SOL    HW138985   2.956   5.839   9.697
45696SOL    HW238986   3.085   5.780   9.644
45697SOL     OW38987   7.233  12.627   4.543
45697SOL    HW138988   7.251  12.550   4.489
45697SOL    HW238989   7.202  12.591   4.626
45698SOL     OW38990   1.924  13.661  10.301
45698SOL    HW138991   1.851  13.681  10.360
45698SOL    HW238992   1.888  13.675  10.213
45699SOL     OW38993   4.087  10.158  10.601
45699SOL    HW138994   4.016  10.194  10.547
45699SOL    HW238995   4.054  10.166  10.691
45700SOL     OW38996   1.323   2.759   4.743
45700SOL    HW138997   1.410   2.782   4.710
45700SOL    HW238998   1.325   2.664   4.752
45701SOL     OW38999   3.777   2.816   2.687
45701SOL    HW139000   3.730   2.807   2.770
45701SOL    HW239001   3.869   2.824   2.712
45702SOL     OW39002  13.407  13.704   0.161
45702SOL    HW139003  13.377  13.758   0.234
45702SOL    HW239004  13.390  13.759   0.084
45703SOL     OW39005   4.151   7.429  10.430
45703SOL    HW139006   4.084   7.375  10.470
45703SOL    HW239007   4.110   7.515  10.420
45704SOL     OW39008   6.010   7.361   8.686
45704SOL    HW139009   6.009   7.422   8.759
45704SOL    HW239010   5.934   7.386   8.632
45705SOL     OW39011  13.837   2.529  10.569
45705SOL    HW139012  13.796   2.608  10.605
45705SOL    HW239013  13.848   2.471  10.644
45706SOL     OW39014   9.598   7.139   4.805
45706SOL    HW139015   9.550   7.171   4.728
45706SOL    HW239016   9.531   7.095   4.857
45707SOL     OW39017   0.245   9.396  11.459
45707SOL    HW139018   0.161   9.397  11.505
45707SOL    HW239019   0.308   9.363  11.524
45708SOL     OW39020   4.309  13.731  13.799
45708SOL    HW139021   4.318  13.746  13.894
45708SOL    HW239022   4.394  13.754  13.763
45709SOL     OW39023   1.618   4.955   9.699
45709SOL    HW139024   1.531   4.945   9.661
45709SOL    HW239025   1.602   4.991   9.786
45710SOL     OW39026   6.899   3.548   9.920
45710SOL    HW139027   6.935   3.460   9.911
45710SOL    HW239028   6.961   3.605   9.874
45711SOL     OW39029   5.407   5.260   6.819
45711SOL    HW139030   5.457   5.341   6.817
45711SOL    HW239031   5.348   5.269   6.894
45712SOL     OW39032   3.026   6.936  13.489
45712SOL    HW139033   3.041   6.993  13.565
45712SOL    HW239034   3.096   6.871  13.493
45713SOL     OW39035   4.292   3.012   1.052
45713SOL    HW139036   4.319   2.932   1.008
45713SOL    HW239037   4.316   3.082   0.991
45714SOL     OW39038   8.986   6.521   5.182
45714SOL    HW139039   8.943   6.601   5.152
45714SOL    HW239040   9.048   6.551   5.249
45715SOL     OW39041   9.606   4.644   5.672
45715SOL    HW139042   9.685   4.650   5.725
45715SOL    HW239043   9.537   4.620   5.734
45716SOL     OW39044   1.453  11.027   1.506
45716SOL    HW139045   1.418  11.040   1.418
45716SOL    HW239046   1.437  11.110   1.551
45717SOL     OW39047   5.726   1.258   1.494
45717SOL    HW139048   5.631   1.248   1.502
45717SOL    HW239049   5.761   1.171   1.513
45718SOL     OW39050   9.738   0.221   9.227
45718SOL    HW139051   9.674   0.274   9.180
45718SOL    HW239052   9.763   0.273   9.303
45719SOL     OW39053   1.078  14.086   0.850
45719SOL    HW139054   1.094  14.041   0.933
45719SOL    HW239055   1.096  14.178   0.869
45720SOL     OW39056  10.104   8.313   9.497
45720SOL    HW139057  10.052   8.234   9.506
45720SOL    HW239058  10.166   8.295   9.427
45721SOL     OW39059   8.855   6.652   9.071
45721SOL    HW139060   8.822   6.727   9.022
45721SOL    HW239061   8.906   6.690   9.142
45722SOL     OW39062   6.787   8.472   0.094
45722SOL    HW139063   6.862   8.413   0.106
45722SOL    HW239064   6.818   8.557   0.123
45723SOL     OW39065   8.426   0.480  14.678
45723SOL    HW139066   8.485   0.555  14.681
45723SOL    HW239067   8.475   0.413  14.629
45724SOL     OW39068   4.378   6.398   5.936
45724SOL    HW139069   4.465   6.372   5.906
45724SOL    HW239070   4.372   6.364   6.025
45725SOL     OW39071   6.934   1.367   6.389
45725SOL    HW139072   6.865   1.348   6.325
45725SOL    HW239073   6.948   1.283   6.433
45726SOL     OW39074   8.301   0.580  11.357
45726SOL    HW139075   8.288   0.522  11.282
45726SOL    HW239076   8.352   0.528  11.419
45727SOL     OW39077  11.273   3.972  10.353
45727SOL    HW139078  11.225   3.895  10.383
45727SOL    HW239079  11.221   4.006  10.280
45728SOL     OW39080  12.205  10.491   5.913
45728SOL    HW139081  12.119  10.523   5.940
45728SOL    HW239082  12.230  10.429   5.981
45729SOL     OW39083  11.041   7.025   5.367
45729SOL    HW139084  11.064   6.948   5.316
45729SOL    HW239085  10.952   7.009   5.396
45730SOL     OW39086   6.463  13.318   1.694
45730SOL    HW139087   6.542  13.288   1.739
45730SOL    HW239088   6.495  13.369   1.620
45731SOL     OW39089   2.956   0.038  10.955
45731SOL    HW139090   2.896   0.113  10.947
45731SOL    HW239091   2.926  14.844  10.889
45732SOL     OW39092   1.081  12.025  10.553
45732SOL    HW139093   1.024  12.014  10.477
45732SOL    HW239094   1.103  11.936  10.579
45733SOL     OW39095   2.778   5.559   2.936
45733SOL    HW139096   2.860   5.521   2.968
45733SOL    HW239097   2.764   5.517   2.851
45734SOL     OW39098   2.144   9.139   8.190
45734SOL    HW139099   2.080   9.168   8.125
45734SOL    HW239100   2.166   9.050   8.162
45735SOL     OW39101   3.249  13.880  13.586
45735SOL    HW139102   3.294  13.915  13.663
45735SOL    HW239103   3.319  13.857  13.526
45736SOL     OW39104   6.484  11.947  13.127
45736SOL    HW139105   6.453  12.026  13.084
45736SOL    HW239106   6.544  11.907  13.065
45737SOL     OW39107   8.839   5.617   1.056
45737SOL    HW139108   8.756   5.664   1.048
45737SOL    HW239109   8.857   5.584   0.968
45738SOL     OW39110   0.514   8.119   5.528
45738SOL    HW139111   0.474   8.168   5.457
45738SOL    HW239112   0.562   8.184   5.579
45739SOL     OW39113   2.896  12.569   2.449
45739SOL    HW139114   2.915  12.617   2.529
45739SOL    HW239115   2.943  12.486   2.459
45740SOL     OW39116  10.840   3.505  10.048
45740SOL    HW139117  10.859   3.419  10.084
45740SOL    HW239118  10.746   3.506  10.033
45741SOL     OW39119  11.583   3.284   9.793
45741SOL    HW139120  11.553   3.373   9.772
45741SOL    HW239121  11.626   3.253   9.713
45742SOL     OW39122   9.619   9.400   3.830
45742SOL    HW139123   9.592   9.479   3.878
45742SOL    HW239124   9.708   9.419   3.801
45743SOL     OW39125  11.277  11.254   4.737
45743SOL    HW139126  11.225  11.313   4.682
45743SOL    HW239127  11.311  11.310   4.807
45744SOL     OW39128   1.489   5.719   6.864
45744SOL    HW139129   1.543   5.788   6.828
45744SOL    HW239130   1.415   5.712   6.804
45745SOL     OW39131  14.823   4.523   3.726
45745SOL    HW139132  14.739   4.567   3.742
45745SOL    HW239133   0.011   4.552   3.798
45746SOL     OW39134   7.712  14.678   5.737
45746SOL    HW139135   7.735  14.695   5.645
45746SOL    HW239136   7.619  14.657   5.734
45747SOL     OW39137   3.305   3.564  14.650
45747SOL    HW139138   3.307   3.473  14.679
45747SOL    HW239139   3.326   3.615  14.728
45748SOL     OW39140  11.161   7.401   1.248
45748SOL    HW139141  11.238   7.419   1.302
45748SOL    HW239142  11.110   7.339   1.300
45749SOL     OW39143   8.737  10.866  12.087
45749SOL    HW139144   8.798  10.914  12.032
45749SOL    HW239145   8.659  10.921  12.092
45750SOL     OW39146  14.822  13.827   6.279
45750SOL    HW139147  14.816  13.806   6.372
45750SOL    HW239148   0.043  13.861   6.267
45751SOL     OW39149  13.100  13.338  12.460
45751SOL    HW139150  13.075  13.276  12.529
45751SOL    HW239151  13.029  13.402  12.459
45752SOL     OW39152   7.104  14.711   2.066
45752SOL    HW139153   7.174  14.761   2.108
45752SOL    HW239154   7.147  14.663   1.995
45753SOL     OW39155   5.076   4.104   7.088
45753SOL    HW139156   5.034   4.053   7.157
45753SOL    HW239157   5.165   4.120   7.121
45754SOL     OW39158   5.302   6.170  10.820
45754SOL    HW139159   5.258   6.204  10.897
45754SOL    HW239160   5.251   6.092  10.796
45755SOL     OW39161  13.307  13.502   4.981
45755SOL    HW139162  13.370  13.477   5.048
45755SOL    HW239163  13.345  13.468   4.899
45756SOL     OW39164   2.064   2.266  11.225
45756SOL    HW139165   2.150   2.308  11.225
45756SOL    HW239166   2.053   2.236  11.134
45757SOL     OW39167   6.425   3.221   3.849
45757SOL    HW139168   6.484   3.184   3.784
45757SOL    HW239169   6.402   3.147   3.906
45758SOL     OW39170   6.537   4.168  11.358
45758SOL    HW139171   6.546   4.218  11.439
45758SOL    HW239172   6.625   4.133  11.342
45759SOL     OW39173  12.549   0.803   2.097
45759SOL    HW139174  12.527   0.849   2.016
45759SOL    HW239175  12.473   0.748   2.115
45760SOL     OW39176   5.431   1.200  14.728
45760SOL    HW139177   5.488   1.198  14.805
45760SOL    HW239178   5.440   1.290  14.695
45761SOL     OW39179  11.522   2.743  12.503
45761SOL    HW139180  11.500   2.718  12.593
45761SOL    HW239181  11.538   2.837  12.508
45762SOL     OW39182   4.411  14.254  11.241
45762SOL    HW139183   4.329  14.260  11.192
45762SOL    HW239184   4.392  14.297  11.325
45763SOL     OW39185   4.713  10.226   5.434
45763SOL    HW139186   4.689  10.143   5.393
45763SOL    HW239187   4.756  10.201   5.515
45764SOL     OW39188  11.697   3.202   5.960
45764SOL    HW139189  11.775   3.252   5.934
45764SOL    HW239190  11.637   3.268   5.996
45765SOL     OW39191   0.469  11.916   5.127
45765SOL    HW139192   0.548  11.871   5.159
45765SOL    HW239193   0.402  11.898   5.193
45766SOL     OW39194   2.990  10.572  11.200
45766SOL    HW139195   2.981  10.479  11.221
45766SOL    HW239196   3.044  10.574  11.121
45767SOL     OW39197   8.235   1.630   3.184
45767SOL    HW139198   8.319   1.675   3.173
45767SOL    HW239199   8.246   1.547   3.137
45768SOL     OW39200  13.289   7.555  13.987
45768SOL    HW139201  13.240   7.628  14.025
45768SOL    HW239202  13.261   7.553  13.895
45769SOL     OW39203  12.296  10.631  12.163
45769SOL    HW139204  12.338  10.717  12.156
45769SOL    HW239205  12.327  10.596  12.246
45770SOL     OW39206   2.746  14.297   2.178
45770SOL    HW139207   2.751  14.390   2.154
45770SOL    HW239208   2.795  14.252   2.110
45771SOL     OW39209   5.413   6.466   0.651
45771SOL    HW139210   5.374   6.537   0.702
45771SOL    HW239211   5.363   6.465   0.569
45772SOL     OW39212   2.309  12.244   2.705
45772SOL    HW139213   2.321  12.317   2.766
45772SOL    HW239214   2.377  12.182   2.730
45773SOL     OW39215  12.950   7.411   8.744
45773SOL    HW139216  12.881   7.378   8.687
45773SOL    HW239217  12.941   7.507   8.738
45774SOL     OW39218   5.152   2.080   8.202
45774SOL    HW139219   5.239   2.052   8.230
45774SOL    HW239220   5.117   2.130   8.275
45775SOL     OW39221   4.633   1.184  10.873
45775SOL    HW139222   4.642   1.267  10.826
45775SOL    HW239223   4.686   1.122  10.822
45776SOL     OW39224   1.461   3.375   3.104
45776SOL    HW139225   1.478   3.469   3.096
45776SOL    HW239226   1.548   3.335   3.114
45777SOL     OW39227   9.081  12.997   3.925
45777SOL    HW139228   9.152  12.935   3.905
45777SOL    HW239229   9.020  12.988   3.852
45778SOL     OW39230   3.789  10.111   4.699
45778SOL    HW139231   3.824  10.057   4.770
45778SOL    HW239232   3.866  10.139   4.650
45779SOL     OW39233   2.846   1.165   4.250
45779SOL    HW139234   2.849   1.137   4.341
45779SOL    HW239235   2.761   1.134   4.218
45780SOL     OW39236  10.622   7.265   7.449
45780SOL    HW139237  10.683   7.225   7.387
45780SOL    HW239238  10.546   7.289   7.396
45781SOL     OW39239   4.405  11.545  12.075
45781SOL    HW139240   4.487  11.567  12.030
45781SOL    HW239241   4.370  11.471  12.025
45782SOL     OW39242   4.649   7.537   3.804
45782SOL    HW139243   4.673   7.626   3.829
45782SOL    HW239244   4.571   7.547   3.750
45783SOL     OW39245   4.117  11.869   5.037
45783SOL    HW139246   4.198  11.822   5.020
45783SOL    HW239247   4.143  11.942   5.093
45784SOL     OW39248   1.768   8.140   8.192
45784SOL    HW139249   1.797   8.058   8.153
45784SOL    HW239250   1.686   8.161   8.147
45785SOL     OW39251  12.823   7.593   0.853
45785SOL    HW139252  12.750   7.636   0.809
45785SOL    HW239253  12.890   7.661   0.861
45786SOL     OW39254   6.464   0.382  12.049
45786SOL    HW139255   6.521   0.347  12.117
45786SOL    HW239256   6.525   0.421  11.985
45787SOL     OW39257   9.482   1.855   5.774
45787SOL    HW139258   9.572   1.821   5.773
45787SOL    HW239259   9.493   1.950   5.776
45788SOL     OW39260   1.484   7.820   3.176
45788SOL    HW139261   1.462   7.892   3.234
45788SOL    HW239262   1.555   7.854   3.121
45789SOL     OW39263   4.667   7.362  10.290
45789SOL    HW139264   4.571   7.361  10.293
45789SOL    HW239265   4.692   7.431  10.351
45790SOL     OW39266   0.621   5.338  10.048
45790SOL    HW139267   0.539   5.386  10.036
45790SOL    HW239268   0.689   5.400  10.023
45791SOL     OW39269   2.085  12.248   4.746
45791SOL    HW139270   2.068  12.265   4.653
45791SOL    HW239271   2.165  12.195   4.747
45792SOL     OW39272   4.361  12.553   7.367
45792SOL    HW139273   4.440  12.553   7.422
45792SOL    HW239274   4.304  12.488   7.408
45793SOL     OW39275   1.956   0.207   1.167
45793SOL    HW139276   1.935   0.258   1.245
45793SOL    HW239277   2.011   0.264   1.115
45794SOL     OW39278  11.876  14.082  10.170
45794SOL    HW139279  11.856  14.175  10.177
45794SOL    HW239280  11.791  14.039  10.167
45795SOL     OW39281  11.911   4.456   6.526
45795SOL    HW139282  11.981   4.407   6.569
45795SOL    HW239283  11.831   4.429   6.572
45796SOL     OW39284  14.248   9.058   9.228
45796SOL    HW139285  14.288   8.971   9.234
45796SOL    HW239286  14.156   9.044   9.247
45797SOL     OW39287   1.693  10.655   4.108
45797SOL    HW139288   1.737  10.613   4.182
45797SOL    HW239289   1.658  10.583   4.056
45798SOL     OW39290   7.276   9.703   6.323
45798SOL    HW139291   7.348   9.673   6.267
45798SOL    HW239292   7.264   9.632   6.386
45799SOL     OW39293  13.990   5.147   1.794
45799SOL    HW139294  14.062   5.176   1.851
45799SOL    HW239295  14.033   5.119   1.713
45800SOL     OW39296   9.778   0.139   7.442
45800SOL    HW139297   9.844   0.167   7.505
45800SOL    HW239298   9.733   0.067   7.485
45801SOL     OW39299   2.126   4.308  10.569
45801SOL    HW139300   2.121   4.272  10.658
45801SOL    HW239301   2.049   4.273  10.525
45802SOL     OW39302  13.188  14.607  14.152
45802SOL    HW139303  13.142  14.667  14.094
45802SOL    HW239304  13.218  14.536  14.095
45803SOL     OW39305   6.340   5.258  10.963
45803SOL    HW139306   6.307   5.188  10.906
45803SOL    HW239307   6.312   5.339  10.921
45804SOL     OW39308  10.077   2.068   6.579
45804SOL    HW139309  10.021   2.115   6.517
45804SOL    HW239310  10.158   2.118   6.581
45805SOL     OW39311   7.370  11.142  11.042
45805SOL    HW139312   7.313  11.066  11.056
45805SOL    HW239313   7.321  11.198  10.982
45806SOL     OW39314  12.352  13.251   2.743
45806SOL    HW139315  12.426  13.312   2.732
45806SOL    HW239316  12.296  13.268   2.667
45807SOL     OW39317   4.486   2.306   7.412
45807SOL    HW139318   4.556   2.364   7.379
45807SOL    HW239319   4.506   2.296   7.505
45808SOL     OW39320   3.195  11.369   3.037
45808SOL    HW139321   3.148  11.425   3.097
45808SOL    HW239322   3.288  11.382   3.059
45809SOL     OW39323  11.164   7.386   3.707
45809SOL    HW139324  11.201   7.422   3.787
45809SOL    HW239325  11.130   7.300   3.732
45810SOL     OW39326  11.928   3.920   7.671
45810SOL    HW139327  11.996   3.921   7.603
45810SOL    HW239328  11.849   3.891   7.625
45811SOL     OW39329   4.003   9.448   3.783
45811SOL    HW139330   4.032   9.365   3.744
45811SOL    HW239331   4.083   9.498   3.796
45812SOL     OW39332   9.280   8.945   9.679
45812SOL    HW139333   9.252   8.975   9.593
45812SOL    HW239334   9.315   8.858   9.665
45813SOL     OW39335   3.591   6.906   9.999
45813SOL    HW139336   3.539   6.958  10.061
45813SOL    HW239337   3.679   6.943  10.005
45814SOL     OW39338  11.909   8.123  14.574
45814SOL    HW139339  11.889   8.216  14.564
45814SOL    HW239340  11.842   8.091  14.635
45815SOL     OW39341  12.848  14.428   0.542
45815SOL    HW139342  12.876  14.519   0.536
45815SOL    HW239343  12.907  14.389   0.606
45816SOL     OW39344  12.977   4.186   2.667
45816SOL    HW139345  13.031   4.160   2.592
45816SOL    HW239346  12.902   4.231   2.629
45817SOL     OW39347   7.813  11.137  13.256
45817SOL    HW139348   7.816  11.226  13.290
45817SOL    HW239349   7.761  11.089  13.320
45818SOL     OW39350   3.738   7.396   1.295
45818SOL    HW139351   3.707   7.356   1.376
45818SOL    HW239352   3.769   7.323   1.242
45819SOL     OW39353  10.867   5.800   9.133
45819SOL    HW139354  10.862   5.794   9.037
45819SOL    HW239355  10.778   5.779   9.162
45820SOL     OW39356   2.822  12.164  12.112
45820SOL    HW139357   2.901  12.184  12.161
45820SOL    HW239358   2.762  12.127  12.176
45821SOL     OW39359  10.665  13.692   1.021
45821SOL    HW139360  10.713  13.775   1.015
45821SOL    HW239361  10.637  13.675   0.931
45822SOL     OW39362  12.784  12.760   9.582
45822SOL    HW139363  12.846  12.688   9.593
45822SOL    HW239364  12.770  12.765   9.487
45823SOL     OW39365  10.985  12.035   3.842
45823SOL    HW139366  11.006  12.124   3.812
45823SOL    HW239367  11.031  12.027   3.926
45824SOL     OW39368   6.815   5.987   5.582
45824SOL    HW139369   6.878   5.987   5.510
45824SOL    HW239370   6.748   6.049   5.554
45825SOL     OW39371  13.747  12.932   3.088
45825SOL    HW139372  13.713  12.972   3.168
45825SOL    HW239373  13.690  12.856   3.073
45826SOL     OW39374  11.599   0.810   7.136
45826SOL    HW139375  11.516   0.774   7.168
45826SOL    HW239376  11.664   0.742   7.155
45827SOL     OW39377  13.214  10.930   3.702
45827SOL    HW139378  13.144  10.901   3.760
45827SOL    HW239379  13.268  10.852   3.690
45828SOL     OW39380  10.602   6.701   9.633
45828SOL    HW139381  10.515   6.662   9.635
45828SOL    HW239382  10.629   6.704   9.725
45829SOL     OW39383   4.644  12.534  14.312
45829SOL    HW139384   4.580  12.463  14.319
45829SOL    HW239385   4.595  12.613  14.335
45830SOL     OW39386  12.698   8.100  10.792
45830SOL    HW139387  12.603   8.106  10.802
45830SOL    HW239388  12.733   8.116  10.879
45831SOL     OW39389  12.552   9.680   6.321
45831SOL    HW139390  12.599   9.665   6.239
45831SOL    HW239391  12.597   9.625   6.385
45832SOL     OW39392  12.180   2.988   8.279
45832SOL    HW139393  12.131   3.005   8.359
45832SOL    HW239394  12.241   3.061   8.271
45833SOL     OW39395  13.436  12.843  13.015
45833SOL    HW139396  13.470  12.925  13.052
45833SOL    HW239397  13.386  12.870  12.938
45834SOL     OW39398   3.934   1.080   1.509
45834SOL    HW139399   4.018   1.036   1.502
45834SOL    HW239400   3.953   1.162   1.556
45835SOL     OW39401   3.531  13.735  14.602
45835SOL    HW139402   3.548  13.771  14.689
45835SOL    HW239403   3.517  13.641  14.617
45836SOL     OW39404  14.051  13.249  14.762
45836SOL    HW139405  14.010  13.178  14.712
45836SOL    HW239406  14.001  13.327  14.739
45837SOL     OW39407  13.506   3.961  12.986
45837SOL    HW139408  13.520   3.867  12.977
45837SOL    HW239409  13.588   3.995  13.022
45838SOL     OW39410   8.049  12.371   5.127
45838SOL    HW139411   8.043  12.363   5.222
45838SOL    HW239412   8.111  12.304   5.100
45839SOL     OW39413  11.010   1.798  11.999
45839SOL    HW139414  10.966   1.868  12.047
45839SOL    HW239415  10.953   1.722  12.009
45840SOL     OW39416   0.990   7.473   8.110
45840SOL    HW139417   0.974   7.483   8.017
45840SOL    HW239418   0.904   7.457   8.148
45841SOL     OW39419  10.163   1.631   1.099
45841SOL    HW139420  10.102   1.689   1.146
45841SOL    HW239421  10.247   1.644   1.144
45842SOL     OW39422   5.528   4.828   4.171
45842SOL    HW139423   5.549   4.835   4.264
45842SOL    HW239424   5.485   4.742   4.162
45843SOL     OW39425  12.686   0.854   3.417
45843SOL    HW139426  12.752   0.917   3.389
45843SOL    HW239427  12.735   0.788   3.466
45844SOL     OW39428   0.284   3.193  10.719
45844SOL    HW139429   0.347   3.123  10.734
45844SOL    HW239430   0.311   3.233  10.636
45845SOL     OW39431   0.249  14.773   8.809
45845SOL    HW139432   0.223  14.709   8.876
45845SOL    HW239433   0.345  14.766   8.806
45846SOL     OW39434  11.708   3.067   8.910
45846SOL    HW139435  11.715   3.135   8.976
45846SOL    HW239436  11.798   3.037   8.896
45847SOL     OW39437  10.466   0.230   1.015
45847SOL    HW139438  10.433   0.140   1.011
45847SOL    HW239439  10.446   0.267   0.929
45848SOL     OW39440  14.101   5.162   7.850
45848SOL    HW139441  14.076   5.089   7.907
45848SOL    HW239442  14.193   5.145   7.829
45849SOL     OW39443   9.510   3.522   9.031
45849SOL    HW139444   9.576   3.482   9.088
45849SOL    HW239445   9.450   3.451   9.010
45850SOL     OW39446  14.439  10.575   8.234
45850SOL    HW139447  14.399  10.500   8.279
45850SOL    HW239448  14.408  10.651   8.284
45851SOL     OW39449   0.241   4.855   2.244
45851SOL    HW139450   0.159   4.807   2.239
45851SOL    HW239451   0.308   4.787   2.251
45852SOL     OW39452  11.058  12.300   0.905
45852SOL    HW139453  11.053  12.339   0.818
45852SOL    HW239454  11.049  12.374   0.965
45853SOL     OW39455   1.099   7.159   0.972
45853SOL    HW139456   1.106   7.205   0.888
45853SOL    HW239457   1.042   7.085   0.954
45854SOL     OW39458   2.368   8.852  12.072
45854SOL    HW139459   2.309   8.849  12.147
45854SOL    HW239460   2.367   8.762  12.038
45855SOL     OW39461  13.755  11.106  11.440
45855SOL    HW139462  13.809  11.153  11.503
45855SOL    HW239463  13.812  11.093  11.364
45856SOL     OW39464  10.835  11.056   1.183
45856SOL    HW139465  10.796  11.143   1.194
45856SOL    HW239466  10.904  11.070   1.118
45857SOL     OW39467  13.687  14.100   4.558
45857SOL    HW139468  13.688  14.047   4.478
45857SOL    HW239469  13.745  14.054   4.619
45858SOL     OW39470   7.391   1.285  10.579
45858SOL    HW139471   7.384   1.252  10.490
45858SOL    HW239472   7.412   1.208  10.632
45859SOL     OW39473   4.522   9.642   9.000
45859SOL    HW139474   4.436   9.652   8.960
45859SOL    HW239475   4.554   9.558   8.966
45860SOL     OW39476  14.093   5.801   6.296
45860SOL    HW139477  14.166   5.807   6.357
45860SOL    HW239478  14.050   5.887   6.302
45861SOL     OW39479  12.886   3.345   4.630
45861SOL    HW139480  12.936   3.336   4.711
45861SOL    HW239481  12.858   3.256   4.609
45862SOL     OW39482  14.590   0.981   7.714
45862SOL    HW139483  14.653   0.914   7.688
45862SOL    HW239484  14.644   1.059   7.730
45863SOL     OW39485   8.209  11.030   3.817
45863SOL    HW139486   8.285  11.087   3.827
45863SOL    HW239487   8.158  11.045   3.896
45864SOL     OW39488   4.612  13.282  12.370
45864SOL    HW139489   4.625  13.376  12.371
45864SOL    HW239490   4.698  13.245  12.388
45865SOL     OW39491   1.596   9.498   2.541
45865SOL    HW139492   1.602   9.582   2.494
45865SOL    HW239493   1.555   9.521   2.624
45866SOL     OW39494   9.068   7.001   4.387
45866SOL    HW139495   9.073   6.926   4.447
45866SOL    HW239496   9.159   7.017   4.361
45867SOL     OW39497  12.650   7.414   7.501
45867SOL    HW139498  12.582   7.355   7.468
45867SOL    HW239499  12.665   7.385   7.591
45868SOL     OW39500   1.584  12.002  12.732
45868SOL    HW139501   1.551  12.027  12.819
45868SOL    HW239502   1.611  11.911  12.742
45869SOL     OW39503   5.766  10.705  13.932
45869SOL    HW139504   5.726  10.792  13.928
45869SOL    HW239505   5.859  10.722  13.948
45870SOL     OW39506  13.067   8.467   9.130
45870SOL    HW139507  13.025   8.551   9.145
45870SOL    HW239508  13.000   8.402   9.153
45871SOL     OW39509   0.192   5.730   6.282
45871SOL    HW139510   0.130   5.792   6.242
45871SOL    HW239511   0.278   5.761   6.253
45872SOL     OW39512  11.879  11.515   8.099
45872SOL    HW139513  11.861  11.572   8.025
45872SOL    HW239514  11.876  11.426   8.062
45873SOL     OW39515   9.374   5.034   5.351
45873SOL    HW139516   9.352   5.097   5.420
45873SOL    HW239517   9.389   4.952   5.397
45874SOL     OW39518   1.368  14.162  12.126
45874SOL    HW139519   1.324  14.107  12.191
45874SOL    HW239520   1.367  14.249  12.164
45875SOL     OW39521  10.361  11.306  13.984
45875SOL    HW139522  10.417  11.358  14.042
45875SOL    HW239523  10.418  11.236  13.953
45876SOL     OW39524  11.939   5.228   6.759
45876SOL    HW139525  12.004   5.253   6.693
45876SOL    HW239526  11.861   5.277   6.734
45877SOL     OW39527   7.823   0.611   0.523
45877SOL    HW139528   7.775   0.583   0.600
45877SOL    HW239529   7.899   0.659   0.558
45878SOL     OW39530  12.053   8.568  11.908
45878SOL    HW139531  12.078   8.500  11.971
45878SOL    HW239532  11.994   8.626  11.958
45879SOL     OW39533   2.592   5.423   5.300
45879SOL    HW139534   2.683   5.406   5.321
45879SOL    HW239535   2.555   5.463   5.379
45880SOL     OW39536   1.714   2.654  12.746
45880SOL    HW139537   1.729   2.707  12.668
45880SOL    HW239538   1.745   2.566  12.722
45881SOL     OW39539   2.532  11.997   2.082
45881SOL    HW139540   2.552  12.030   1.994
45881SOL    HW239541   2.512  11.904   2.068
45882SOL     OW39542   0.367   2.881  13.283
45882SOL    HW139543   0.418   2.920  13.354
45882SOL    HW239544   0.290   2.937  13.275
45883SOL     OW39545  10.400   1.497  14.076
45883SOL    HW139546  10.335   1.452  14.130
45883SOL    HW239547  10.424   1.434  14.009
45884SOL     OW39548  10.119   4.720  13.395
45884SOL    HW139549  10.186   4.655  13.415
45884SOL    HW239550  10.044   4.669  13.365
45885SOL     OW39551   6.874   5.197   2.109
45885SOL    HW139552   6.815   5.256   2.062
45885SOL    HW239553   6.925   5.255   2.166
45886SOL     OW39554   6.787   5.899  14.517
45886SOL    HW139555   6.769   5.946  14.598
45886SOL    HW239556   6.882   5.884  14.518
45887SOL     OW39557  10.576  11.654   5.616
45887SOL    HW139558  10.489  11.687   5.641
45887SOL    HW239559  10.593  11.694   5.531
45888SOL     OW39560  12.633   9.715   9.479
45888SOL    HW139561  12.555   9.660   9.474
45888SOL    HW239562  12.705   9.652   9.482
45889SOL     OW39563   0.444   2.690  14.411
45889SOL    HW139564   0.423   2.767  14.359
45889SOL    HW239565   0.399   2.704  14.495
45890SOL     OW39566   0.035   6.973  14.315
45890SOL    HW139567  14.835   7.012  14.370
45890SOL    HW239568   0.114   6.974  14.369
45891SOL     OW39569   1.368   5.247   2.391
45891SOL    HW139570   1.422   5.282   2.462
45891SOL    HW239571   1.343   5.160   2.422
45892SOL     OW39572  12.473   5.712   2.917
45892SOL    HW139573  12.496   5.800   2.888
45892SOL    HW239574  12.418   5.726   2.994
45893SOL     OW39575   8.339   2.173   8.621
45893SOL    HW139576   8.402   2.222   8.673
45893SOL    HW239577   8.384   2.091   8.600
45894SOL     OW39578   5.942   0.907   3.607
45894SOL    HW139579   6.033   0.892   3.630
45894SOL    HW239580   5.941   0.994   3.568
45895SOL     OW39581  13.010   6.044   1.761
45895SOL    HW139582  13.077   6.036   1.829
45895SOL    HW239583  13.050   6.099   1.694
45896SOL     OW39584  13.664  11.717   6.545
45896SOL    HW139585  13.631  11.788   6.600
45896SOL    HW239586  13.749  11.696   6.582
45897SOL     OW39587   3.970  10.057  13.956
45897SOL    HW139588   4.032  10.048  13.884
45897SOL    HW239589   4.025  10.059  14.035
45898SOL     OW39590   8.041   1.910  10.048
45898SOL    HW139591   8.106   1.860  10.097
45898SOL    HW239592   8.039   1.995  10.092
45899SOL     OW39593  10.202   3.437   4.775
45899SOL    HW139594  10.181   3.361   4.721
45899SOL    HW239595  10.207   3.403   4.864
45900SOL     OW39596   0.009   7.359   4.503
45900SOL    HW139597   0.052   7.395   4.425
45900SOL    HW239598   0.022   7.264   4.496
45901SOL     OW39599   2.273  14.038   6.194
45901SOL    HW139600   2.283  14.119   6.144
45901SOL    HW239601   2.226  13.979   6.135
45902SOL     OW39602  14.188  13.537   5.450
45902SOL    HW139603  14.110  13.585   5.419
45902SOL    HW239604  14.249  13.606   5.477
45903SOL     OW39605   8.557   2.265   2.869
45903SOL    HW139606   8.630   2.267   2.931
45903SOL    HW239607   8.578   2.334   2.805
45904SOL     OW39608   1.671   6.445   6.182
45904SOL    HW139609   1.725   6.366   6.189
45904SOL    HW239610   1.718   6.510   6.235
45905SOL     OW39611   7.422   2.694   0.803
45905SOL    HW139612   7.366   2.621   0.777
45905SOL    HW239613   7.369   2.746   0.863
45906SOL     OW39614  14.772  14.472  10.827
45906SOL    HW139615  14.790  14.530  10.753
45906SOL    HW239616  14.692  14.425  10.802
45907SOL     OW39617  12.424   1.282   1.646
45907SOL    HW139618  12.438   1.223   1.721
45907SOL    HW239619  12.336   1.262   1.616
45908SOL     OW39620  12.382  13.323   0.543
45908SOL    HW139621  12.451  13.382   0.574
45908SOL    HW239622  12.429  13.253   0.497
45909SOL     OW39623   2.990  14.170   5.390
45909SOL    HW139624   3.076  14.163   5.348
45909SOL    HW239625   2.941  14.096   5.356
45910SOL     OW39626   0.842  10.527   6.961
45910SOL    HW139627   0.857  10.531   6.867
45910SOL    HW239628   0.783  10.453   6.974
45911SOL     OW39629  12.783   7.924   9.594
45911SOL    HW139630  12.744   7.888   9.515
45911SOL    HW239631  12.712   7.925   9.659
45912SOL     OW39632  13.151  13.583   3.283
45912SOL    HW139633  13.079  13.526   3.256
45912SOL    HW239634  13.217  13.523   3.317
45913SOL     OW39635   0.320  13.246   1.713
45913SOL    HW139636   0.245  13.202   1.671
45913SOL    HW239637   0.392  13.234   1.652
45914SOL     OW39638  13.245   8.011  11.334
45914SOL    HW139639  13.274   7.947  11.400
45914SOL    HW239640  13.155   7.985  11.314
45915SOL     OW39641   0.561   1.316  11.360
45915SOL    HW139642   0.574   1.390  11.300
45915SOL    HW239643   0.618   1.247  11.326
45916SOL     OW39644   2.796   3.119   8.588
45916SOL    HW139645   2.823   3.033   8.556
45916SOL    HW239646   2.876   3.171   8.587
45917SOL     OW39647   3.562  13.918   3.509
45917SOL    HW139648   3.529  13.885   3.426
45917SOL    HW239649   3.640  13.866   3.526
45918SOL     OW39650   2.121  14.196  12.942
45918SOL    HW139651   2.135  14.269  13.001
45918SOL    HW239652   2.151  14.228  12.856
45919SOL     OW39653   4.320   7.954   4.047
45919SOL    HW139654   4.399   7.909   4.076
45919SOL    HW239655   4.329   7.958   3.952
45920SOL     OW39656  12.786  10.241   0.459
45920SOL    HW139657  12.826  10.225   0.374
45920SOL    HW239658  12.716  10.176   0.467
45921SOL     OW39659   8.581   2.682   9.055
45921SOL    HW139660   8.532   2.608   9.019
45921SOL    HW239661   8.672   2.652   9.057
45922SOL     OW39662  14.429   0.002   7.645
45922SOL    HW139663  14.343  14.847   7.679
45922SOL    HW239664  14.472   0.047   7.718
45923SOL     OW39665   9.670  12.790   7.040
45923SOL    HW139666   9.616  12.718   7.073
45923SOL    HW239667   9.760  12.762   7.058
45924SOL     OW39668  10.130   4.083   1.365
45924SOL    HW139669  10.220   4.058   1.343
45924SOL    HW239670  10.109   4.031   1.443
45925SOL     OW39671  13.833  13.018   1.041
45925SOL    HW139672  13.923  13.031   1.012
45925SOL    HW239673  13.781  13.022   0.961
45926SOL     OW39674  10.568   6.554   1.251
45926SOL    HW139675  10.612   6.539   1.167
45926SOL    HW239676  10.476   6.535   1.233
45927SOL     OW39677  12.056   6.735   3.927
45927SOL    HW139678  12.049   6.821   3.970
45927SOL    HW239679  12.143   6.735   3.888
45928SOL     OW39680   3.606  10.426  13.586
45928SOL    HW139681   3.600  10.417  13.491
45928SOL    HW239682   3.592  10.337  13.619
45929SOL     OW39683   4.802  11.820   3.375
45929SOL    HW139684   4.814  11.727   3.392
45929SOL    HW239685   4.837  11.863   3.453
45930SOL     OW39686   1.605   3.865   7.550
45930SOL    HW139687   1.608   3.777   7.587
45930SOL    HW239688   1.530   3.906   7.593
45931SOL     OW39689   6.417   6.160   1.831
45931SOL    HW139690   6.398   6.184   1.922
45931SOL    HW239691   6.358   6.086   1.813
45932SOL     OW39692   8.369  12.715   9.205
45932SOL    HW139693   8.325  12.699   9.121
45932SOL    HW239694   8.450  12.664   9.199
45933SOL     OW39695   9.025   7.446   6.707
45933SOL    HW139696   9.108   7.459   6.755
45933SOL    HW239697   9.051   7.404   6.625
45934SOL     OW39698   4.475   3.505   0.045
45934SOL    HW139699   4.570   3.513   0.038
45934SOL    HW239700   4.442   3.594   0.033
45935SOL     OW39701  14.178   8.749   2.584
45935SOL    HW139702  14.213   8.753   2.495
45935SOL    HW239703  14.171   8.655   2.603
45936SOL     OW39704  10.874   3.429  10.765
45936SOL    HW139705  10.812   3.407  10.834
45936SOL    HW239706  10.891   3.346  10.720
45937SOL     OW39707   3.438  14.642  11.046
45937SOL    HW139708   3.525  14.602  11.043
45937SOL    HW239709   3.430  14.673  11.136
45938SOL     OW39710   6.526   9.813   2.181
45938SOL    HW139711   6.482   9.863   2.112
45938SOL    HW239712   6.528   9.873   2.255
45939SOL     OW39713   6.815   7.602   9.150
45939SOL    HW139714   6.844   7.612   9.059
45939SOL    HW239715   6.828   7.509   9.169
45940SOL     OW39716   7.272   0.395   7.381
45940SOL    HW139717   7.350   0.437   7.345
45940SOL    HW239718   7.302   0.310   7.413
45941SOL     OW39719  13.916   3.353   4.698
45941SOL    HW139720  13.999   3.316   4.668
45941SOL    HW239721  13.874   3.387   4.619
45942SOL     OW39722   2.620   9.460  14.080
45942SOL    HW139723   2.677   9.419  14.145
45942SOL    HW239724   2.535   9.468  14.123
45943SOL     OW39725   4.961  10.484   8.817
45943SOL    HW139726   4.916  10.525   8.743
45943SOL    HW239727   4.976  10.556   8.879
45944SOL     OW39728   8.537  11.945  11.457
45944SOL    HW139729   8.467  11.880  11.447
45944SOL    HW239730   8.534  11.969  11.550
45945SOL     OW39731   0.768   1.893   3.958
45945SOL    HW139732   0.746   1.866   3.869
45945SOL    HW239733   0.718   1.834   4.014
45946SOL     OW39734   1.055  14.611   6.022
45946SOL    HW139735   1.109  14.556   5.965
45946SOL    HW239736   1.090  14.596   6.110
45947SOL     OW39737   1.742   9.248   3.679
45947SOL    HW139738   1.740   9.196   3.759
45947SOL    HW239739   1.813   9.311   3.694
45948SOL     OW39740   7.131   8.381   0.773
45948SOL    HW139741   7.054   8.435   0.757
45948SOL    HW239742   7.176   8.377   0.689
45949SOL     OW39743   7.300  12.044  11.482
45949SOL    HW139744   7.225  12.101  11.464
45949SOL    HW239745   7.346  12.038  11.399
45950SOL     OW39746  14.408   1.490   0.618
45950SOL    HW139747  14.352   1.418   0.648
45950SOL    HW239748  14.495   1.452   0.612
45951SOL     OW39749  13.839  12.532   4.431
45951SOL    HW139750  13.920  12.508   4.476
45951SOL    HW239751  13.867  12.572   4.349
45952SOL     OW39752   9.479  10.036  11.507
45952SOL    HW139753   9.385  10.057  11.508
45952SOL    HW239754   9.515  10.087  11.435
45953SOL     OW39755  14.769  11.697   4.992
45953SOL    HW139756  14.787  11.623   4.934
45953SOL    HW239757  14.845  11.700   5.051
45954SOL     OW39758  11.895   4.710   4.671
45954SOL    HW139759  11.925   4.625   4.705
45954SOL    HW239760  11.802   4.697   4.653
45955SOL     OW39761   8.796   2.513   4.838
45955SOL    HW139762   8.778   2.451   4.908
45955SOL    HW239763   8.882   2.488   4.805
45956SOL     OW39764   7.838   8.473   5.401
45956SOL    HW139765   7.778   8.466   5.327
45956SOL    HW239766   7.914   8.519   5.367
45957SOL     OW39767  13.900  12.023  11.337
45957SOL    HW139768  13.872  12.032  11.246
45957SOL    HW239769  13.820  12.003  11.386
45958SOL     OW39770   8.431   3.348   7.156
45958SOL    HW139771   8.381   3.303   7.224
45958SOL    HW239772   8.365   3.394   7.104
45959SOL     OW39773   6.378   7.588  10.503
45959SOL    HW139774   6.345   7.669  10.464
45959SOL    HW239775   6.443   7.618  10.567
45960SOL     OW39776   2.316   9.984  10.703
45960SOL    HW139777   2.404   9.947  10.694
45960SOL    HW239778   2.277   9.972  10.616
45961SOL     OW39779  12.963   6.204  14.664
45961SOL    HW139780  13.002   6.123  14.632
45961SOL    HW239781  13.033   6.247  14.714
45962SOL     OW39782   4.516   9.296   2.099
45962SOL    HW139783   4.585   9.250   2.147
45962SOL    HW239784   4.434   9.258   2.130
45963SOL     OW39785   1.959  10.102  14.807
45963SOL    HW139786   1.964  10.049  14.727
45963SOL    HW239787   2.050  10.114  14.834
45964SOL     OW39788  10.453   4.322   6.296
45964SOL    HW139789  10.537   4.320   6.341
45964SOL    HW239790  10.388   4.322   6.366
45965SOL     OW39791   8.962  11.386  11.494
45965SOL    HW139792   9.042  11.345  11.527
45965SOL    HW239793   8.975  11.392  11.399
45966SOL     OW39794  11.117   1.912   1.222
45966SOL    HW139795  11.189   1.929   1.282
45966SOL    HW239796  11.047   1.877   1.277
45967SOL     OW39797  11.756   1.816   3.670
45967SOL    HW139798  11.796   1.812   3.757
45967SOL    HW239799  11.765   1.727   3.636
45968SOL     OW39800   9.393  13.436   8.860
45968SOL    HW139801   9.450  13.366   8.890
45968SOL    HW239802   9.450  13.512   8.851
45969SOL     OW39803   7.964   0.820   3.210
45969SOL    HW139804   7.924   0.818   3.123
45969SOL    HW239805   7.894   0.792   3.269
45970SOL     OW39806   8.652   4.575   3.460
45970SOL    HW139807   8.642   4.480   3.463
45970SOL    HW239808   8.740   4.588   3.423
45971SOL     OW39809  14.118  11.837   5.866
45971SOL    HW139810  14.161  11.797   5.942
45971SOL    HW239811  14.065  11.907   5.903
45972SOL     OW39812  11.101   2.694   7.981
45972SOL    HW139813  11.030   2.723   8.038
45972SOL    HW239814  11.179   2.695   8.037
45973SOL     OW39815   0.523  12.159   1.557
45973SOL    HW139816   0.587  12.224   1.530
45973SOL    HW239817   0.458  12.157   1.487
45974SOL     OW39818   6.648  11.935   9.901
45974SOL    HW139819   6.698  12.012   9.925
45974SOL    HW239820   6.565  11.944   9.948
45975SOL     OW39821  14.268   7.183   7.006
45975SOL    HW139822  14.230   7.259   6.963
45975SOL    HW239823  14.256   7.200   7.099
45976SOL     OW39824  12.412   4.442   8.003
45976SOL    HW139825  12.500   4.435   8.042
45976SOL    HW239826  12.426   4.493   7.923
45977SOL     OW39827  10.380  12.348  10.864
45977SOL    HW139828  10.305  12.318  10.813
45977SOL    HW239829  10.443  12.378  10.799
45978SOL     OW39830   2.228   2.725  11.973
45978SOL    HW139831   2.296   2.685  12.028
45978SOL    HW239832   2.272   2.745  11.891
45979SOL     OW39833   5.664  10.171   5.877
45979SOL    HW139834   5.609  10.227   5.823
45979SOL    HW239835   5.680  10.094   5.824
45980SOL     OW39836  10.520   5.576  10.222
45980SOL    HW139837  10.474   5.629  10.287
45980SOL    HW239838  10.540   5.495  10.267
45981SOL     OW39839  14.268   5.194   3.455
45981SOL    HW139840  14.239   5.229   3.370
45981SOL    HW239841  14.332   5.259   3.486
45982SOL     OW39842   9.195   0.731   2.441
45982SOL    HW139843   9.242   0.795   2.495
45982SOL    HW239844   9.262   0.669   2.413
45983SOL     OW39845   6.168  14.437   4.522
45983SOL    HW139846   6.245  14.410   4.472
45983SOL    HW239847   6.117  14.357   4.532
45984SOL     OW39848   1.582   7.519   5.412
45984SOL    HW139849   1.578   7.424   5.419
45984SOL    HW239850   1.498   7.544   5.374
45985SOL     OW39851   3.975   0.257   7.975
45985SOL    HW139852   3.921   0.309   7.916
45985SOL    HW239853   3.926   0.176   7.987
45986SOL     OW39854   8.398  10.290   1.734
45986SOL    HW139855   8.381  10.260   1.824
45986SOL    HW239856   8.475  10.241   1.706
45987SOL     OW39857  14.847   0.960   3.245
45987SOL    HW139858  14.826   0.925   3.331
45987SOL    HW239859   0.075   0.952   3.239
45988SOL     OW39860  10.723   1.461   1.880
45988SOL    HW139861  10.808   1.451   1.924
45988SOL    HW239862  10.660   1.425   1.942
45989SOL     OW39863   8.489  11.184   6.351
45989SOL    HW139864   8.504  11.104   6.301
45989SOL    HW239865   8.512  11.160   6.441
45990SOL     OW39866   7.989   3.468  13.774
45990SOL    HW139867   7.915   3.526  13.758
45990SOL    HW239868   8.037   3.466  13.691
45991SOL     OW39869  12.658  11.246   6.702
45991SOL    HW139870  12.628  11.210   6.618
45991SOL    HW239871  12.662  11.170   6.760
45992SOL     OW39872  10.257   0.532   7.118
45992SOL    HW139873  10.261   0.581   7.037
45992SOL    HW239874  10.274   0.597   7.187
45993SOL     OW39875  11.896   9.173  10.574
45993SOL    HW139876  11.922   9.194  10.485
45993SOL    HW239877  11.821   9.114  10.564
45994SOL     OW39878  14.810  10.894  13.823
45994SOL    HW139879   0.015  10.853  13.869
45994SOL    HW239880  14.806  10.983  13.857
45995SOL     OW39881   5.460  12.009   3.916
45995SOL    HW139882   5.549  12.045   3.915
45995SOL    HW239883   5.465  11.929   3.864
45996SOL     OW39884   1.019  10.077   6.179
45996SOL    HW139885   1.061   9.998   6.213
45996SOL    HW239886   1.022  10.068   6.084
45997SOL     OW39887  11.558   9.375   1.883
45997SOL    HW139888  11.470   9.362   1.917
45997SOL    HW239889  11.602   9.292   1.898
45998SOL     OW39890   0.830  14.620   7.900
45998SOL    HW139891   0.769  14.557   7.863
45998SOL    HW239892   0.775  14.687   7.940
45999SOL     OW39893   3.212  10.709   7.815
45999SOL    HW139894   3.135  10.762   7.794
45999SOL    HW239895   3.221  10.716   7.910
46000SOL     OW39896  13.477  11.514   3.298
46000SOL    HW139897  13.438  11.478   3.378
46000SOL    HW239898  13.403  11.550   3.249
46001SOL     OW39899   0.114   4.678   0.572
46001SOL    HW139900   0.186   4.616   0.572
46001SOL    HW239901   0.039   4.627   0.605
46002SOL     OW39902   9.049   6.656   7.427
46002SOL    HW139903   9.091   6.740   7.448
46002SOL    HW239904   9.111   6.590   7.459
46003SOL     OW39905   1.217   1.740   8.929
46003SOL    HW139906   1.306   1.775   8.915
46003SOL    HW239907   1.214   1.661   8.875
46004SOL     OW39908   2.169   7.990   8.820
46004SOL    HW139909   2.155   8.072   8.774
46004SOL    HW239910   2.098   7.933   8.790
46005SOL     OW39911   0.722  10.603  13.753
46005SOL    HW139912   0.628  10.606  13.768
46005SOL    HW239913   0.756  10.547  13.823
46006SOL     OW39914   2.861   4.849  11.645
46006SOL    HW139915   2.839   4.757  11.635
46006SOL    HW239916   2.907   4.871  11.564
46007SOL     OW39917   4.016  11.699  12.086
46007SOL    HW139918   3.974  11.634  12.143
46007SOL    HW239919   4.102  11.712  12.126
46008SOL     OW39920   7.294   6.550   5.974
46008SOL    HW139921   7.274   6.620   6.036
46008SOL    HW239922   7.299   6.471   6.027
46009SOL     OW39923   0.775  14.444  13.983
46009SOL    HW139924   0.749  14.397  14.062
46009SOL    HW239925   0.710  14.419  13.918
46010SOL     OW39926  14.433   4.216   9.579
46010SOL    HW139927  14.391   4.131   9.588
46010SOL    HW239928  14.525   4.200   9.600
46011SOL     OW39929  11.959   5.208  12.949
46011SOL    HW139930  11.868   5.190  12.973
46011SOL    HW239931  11.993   5.259  13.023
46012SOL     OW39932   4.996   2.117   5.489
46012SOL    HW139933   4.927   2.158   5.541
46012SOL    HW239934   5.058   2.082   5.554
46013SOL     OW39935  12.544  10.273   8.582
46013SOL    HW139936  12.529  10.349   8.639
46013SOL    HW239937  12.540  10.308   8.493
46014SOL     OW39938   9.962   4.693   7.629
46014SOL    HW139939   9.902   4.767   7.637
46014SOL    HW239940  10.020   4.717   7.556
46015SOL     OW39941   9.811  14.037   2.960
46015SOL    HW139942   9.735  14.043   3.019
46015SOL    HW239943   9.884  14.016   3.018
46016SOL     OW39944   3.950   2.104   1.899
46016SOL    HW139945   3.940   2.195   1.870
46016SOL    HW239946   3.863   2.066   1.891
46017SOL     OW39947  12.937   5.893  12.009
46017SOL    HW139948  12.978   5.978  11.992
46017SOL    HW239949  12.847   5.913  12.034
46018SOL     OW39950   4.985   5.462   2.613
46018SOL    HW139951   4.985   5.376   2.571
46018SOL    HW239952   5.075   5.472   2.645
46019SOL     OW39953  11.112   9.863  11.576
46019SOL    HW139954  11.126   9.813  11.657
46019SOL    HW239955  11.018   9.880  11.575
46020SOL     OW39956  11.232   2.358  11.691
46020SOL    HW139957  11.267   2.283  11.740
46020SOL    HW239958  11.284   2.360  11.611
46021SOL     OW39959   9.749   6.057   0.678
46021SOL    HW139960   9.695   6.105   0.616
46021SOL    HW239961   9.708   5.970   0.684
46022SOL     OW39962  11.026  11.881   2.375
46022SOL    HW139963  11.101  11.832   2.408
46022SOL    HW239964  11.024  11.961   2.428
46023SOL     OW39965  10.906   6.287   2.642
46023SOL    HW139966  10.948   6.372   2.630
46023SOL    HW239967  10.952   6.249   2.716
46024SOL     OW39968  12.882   9.228   7.399
46024SOL    HW139969  12.787   9.231   7.387
46024SOL    HW239970  12.900   9.299   7.461
46025SOL     OW39971   8.926  12.725   5.251
46025SOL    HW139972   8.978  12.787   5.302
46025SOL    HW239973   8.863  12.779   5.204
46026SOL     OW39974   8.817  14.289   9.305
46026SOL    HW139975   8.820  14.385   9.301
46026SOL    HW239976   8.804  14.262   9.214
46027SOL     OW39977  11.438   6.081  14.057
46027SOL    HW139978  11.384   6.133  14.116
46027SOL    HW239979  11.470   6.143  13.993
46028SOL     OW39980   4.347   3.264   7.941
46028SOL    HW139981   4.435   3.238   7.914
46028SOL    HW239982   4.342   3.238   8.033
46029SOL     OW39983   9.819   6.531   1.345
46029SOL    HW139984   9.818   6.516   1.251
46029SOL    HW239985   9.781   6.451   1.383
46030SOL     OW39986  13.339  10.055  10.007
46030SOL    HW139987  13.405  10.075  10.073
46030SOL    HW239988  13.386  10.006   9.939
46031SOL     OW39989   7.340   2.057  11.113
46031SOL    HW139990   7.331   2.076  11.019
46031SOL    HW239991   7.425   2.014  11.120
46032SOL     OW39992   3.080   3.880   5.869
46032SOL    HW139993   3.172   3.890   5.894
46032SOL    HW239994   3.049   3.969   5.852
46033SOL     OW39995   9.746   8.203   7.676
46033SOL    HW139996   9.709   8.117   7.696
46033SOL    HW239997   9.834   8.201   7.714
46034SOL     OW39998   5.520   6.768  13.699
46034SOL    HW139999   5.487   6.687  13.661
46034SOL    HW240000   5.512   6.756  13.793
46035SOL     OW40001   2.902  13.367  10.024
46035SOL    HW140002   2.830  13.380  10.085
46035SOL    HW240003   2.976  13.341  10.079
46036SOL     OW40004  14.849   3.352   8.697
46036SOL    HW140005   0.013   3.405   8.770
46036SOL    HW240006  14.762   3.386   8.678
46037SOL     OW40007   0.054  11.432   0.360
46037SOL    HW140008   0.130  11.406   0.309
46037SOL    HW240009  14.849  11.426   0.299
46038SOL     OW40010   7.474   5.676   7.420
46038SOL    HW140011   7.414   5.704   7.489
46038SOL    HW240012   7.418   5.644   7.350
46039SOL     OW40013  11.093  14.820   2.872
46039SOL    HW140014  11.022  14.766   2.838
46039SOL    HW240015  11.139  14.764   2.934
46040SOL     OW40016  12.080  10.961  14.587
46040SOL    HW140017  12.118  11.029  14.643
46040SOL    HW240018  12.015  10.917  14.642
46041SOL     OW40019   8.725  13.650   1.020
46041SOL    HW140020   8.701  13.659   0.927
46041SOL    HW240021   8.679  13.723   1.063
46042SOL     OW40022   6.003  14.310  10.734
46042SOL    HW140023   5.929  14.333  10.677
46042SOL    HW240024   6.016  14.387  10.789
46043SOL     OW40025   0.878  13.539   2.401
46043SOL    HW140026   0.791  13.543   2.362
46043SOL    HW240027   0.897  13.445   2.409
46044SOL     OW40028   5.320   1.538  12.946
46044SOL    HW140029   5.309   1.476  13.018
46044SOL    HW240030   5.338   1.483  12.870
46045SOL     OW40031   4.404   2.904   2.545
46045SOL    HW140032   4.488   2.886   2.586
46045SOL    HW240033   4.343   2.914   2.618
46046SOL     OW40034  11.945   7.158   5.941
46046SOL    HW140035  11.998   7.078   5.931
46046SOL    HW240036  11.973   7.214   5.868
46047SOL     OW40037   9.028   6.588  14.241
46047SOL    HW140038   9.072   6.665  14.278
46047SOL    HW240039   9.013   6.612  14.149
46048SOL     OW40040  11.374  11.299   6.831
46048SOL    HW140041  11.428  11.308   6.910
46048SOL    HW240042  11.370  11.388   6.795
46049SOL     OW40043   3.178  10.727   1.274
46049SOL    HW140044   3.093  10.759   1.244
46049SOL    HW240045   3.196  10.650   1.220
46050SOL     OW40046  10.201  11.700  12.780
46050SOL    HW140047  10.201  11.794  12.758
46050SOL    HW240048  10.232  11.697  12.870
46051SOL     OW40049  11.074  14.551   8.208
46051SOL    HW140050  11.142  14.513   8.264
46051SOL    HW240051  11.114  14.631   8.172
46052SOL     OW40052   7.916   2.679   7.773
46052SOL    HW140053   7.915   2.643   7.862
46052SOL    HW240054   7.838   2.736   7.769
46053SOL     OW40055  13.780   3.415  13.334
46053SOL    HW140056  13.875   3.415  13.328
46053SOL    HW240057  13.760   3.351  13.402
46054SOL     OW40058  12.376   1.330   8.125
46054SOL    HW140059  12.357   1.247   8.083
46054SOL    HW240060  12.459   1.316   8.170
46055SOL     OW40061   4.098  14.340   2.094
46055SOL    HW140062   4.063  14.399   2.026
46055SOL    HW240063   4.140  14.398   2.157
46056SOL     OW40064   9.911   2.350  13.682
46056SOL    HW140065   9.878   2.436  13.705
46056SOL    HW240066  10.006   2.361  13.679
46057SOL     OW40067   2.201   4.365  11.701
46057SOL    HW140068   2.255   4.442  11.719
46057SOL    HW240069   2.159   4.384  11.618
46058SOL     OW40070   0.746   3.741  12.564
46058SOL    HW140071   0.761   3.740  12.658
46058SOL    HW240072   0.677   3.677  12.549
46059SOL     OW40073   1.154  13.402   6.879
46059SOL    HW140074   1.096  13.478   6.888
46059SOL    HW240075   1.121  13.339   6.942
46060SOL     OW40076   7.997  13.246  12.090
46060SOL    HW140077   7.922  13.263  12.032
46060SOL    HW240078   8.051  13.184  12.042
46061SOL     OW40079  12.151   6.609   7.528
46061SOL    HW140080  12.215   6.573   7.467
46061SOL    HW240081  12.124   6.535   7.582
46062SOL     OW40082   1.589   5.915   4.440
46062SOL    HW140083   1.637   5.880   4.515
46062SOL    HW240084   1.638   5.993   4.415
46063SOL     OW40085   0.866   9.190  14.342
46063SOL    HW140086   0.772   9.180  14.330
46063SOL    HW240087   0.902   9.179  14.254
46064SOL     OW40088  12.197  14.580   6.145
46064SOL    HW140089  12.105  14.600   6.156
46064SOL    HW240090  12.215  14.509   6.207
46065SOL     OW40091   2.020   0.862  13.176
46065SOL    HW140092   2.015   0.936  13.116
46065SOL    HW240093   1.942   0.870  13.231
46066SOL     OW40094   3.313   6.166  13.174
46066SOL    HW140095   3.313   6.259  13.152
46066SOL    HW240096   3.369   6.125  13.108
46067SOL     OW40097   0.435   0.894   1.750
46067SOL    HW140098   0.405   0.837   1.822
46067SOL    HW240099   0.427   0.983   1.785
46068SOL     OW40100   8.077   0.046   3.680
46068SOL    HW140101   8.080   0.096   3.761
46068SOL    HW240102   8.033   0.104   3.618
46069SOL     OW40103  14.104   6.292   9.070
46069SOL    HW140104  14.141   6.335   8.994
46069SOL    HW240105  14.049   6.358   9.112
46070SOL     OW40106   6.645   2.300  13.921
46070SOL    HW140107   6.736   2.277  13.899
46070SOL    HW240108   6.646   2.314  14.016
46071SOL     OW40109  14.369   0.471   8.993
46071SOL    HW140110  14.434   0.415   9.035
46071SOL    HW240111  14.372   0.447   8.901
46072SOL     OW40112   4.244   8.900   7.711
46072SOL    HW140113   4.151   8.923   7.715
46072SOL    HW240114   4.257   8.840   7.784
46073SOL     OW40115   8.392   5.406  12.776
46073SOL    HW140116   8.392   5.423  12.871
46073SOL    HW240117   8.435   5.483  12.738
46074SOL     OW40118  11.795   9.486   6.506
46074SOL    HW140119  11.876   9.441   6.483
46074SOL    HW240120  11.740   9.420   6.548
46075SOL     OW40121   5.281   9.091   8.039
46075SOL    HW140122   5.251   9.181   8.028
46075SOL    HW240123   5.370   9.091   8.004
46076SOL     OW40124   0.934   5.924   2.411
46076SOL    HW140125   0.877   5.847   2.418
46076SOL    HW240126   0.874   5.998   2.411
46077SOL     OW40127  10.181  14.835   9.623
46077SOL    HW140128  10.223  14.762   9.669
46077SOL    HW240129  10.252   0.027   9.603
46078SOL     OW40130   9.373   7.343  13.851
46078SOL    HW140131   9.331   7.258  13.838
46078SOL    HW240132   9.445   7.325  13.911
46079SOL     OW40133   6.102   3.542  12.834
46079SOL    HW140134   6.135   3.552  12.923
46079SOL    HW240135   6.024   3.597  12.831
46080SOL     OW40136   8.981   8.004  12.271
46080SOL    HW140137   8.940   8.009  12.184
46080SOL    HW240138   9.063   7.957  12.255
46081SOL     OW40139   7.884   2.199  11.700
46081SOL    HW140140   7.933   2.225  11.778
46081SOL    HW240141   7.908   2.107  11.686
46082SOL     OW40142   7.461  10.953   1.648
46082SOL    HW140143   7.425  10.885   1.705
46082SOL    HW240144   7.386  11.009   1.628
46083SOL     OW40145   5.946   0.669   4.335
46083SOL    HW140146   5.977   0.755   4.363
46083SOL    HW240147   5.865   0.687   4.287
46084SOL     OW40148   2.761   4.981   2.117
46084SOL    HW140149   2.769   4.899   2.167
46084SOL    HW240150   2.819   5.042   2.162
46085SOL     OW40151   7.149   3.691   1.811
46085SOL    HW140152   7.105   3.760   1.762
46085SOL    HW240153   7.089   3.616   1.808
46086SOL     OW40154  14.465   2.858   0.738
46086SOL    HW140155  14.421   2.847   0.822
46086SOL    HW240156  14.551   2.818   0.750
46087SOL     OW40157   5.342  14.220   4.328
46087SOL    HW140158   5.328  14.183   4.415
46087SOL    HW240159   5.334  14.146   4.269
46088SOL     OW40160   7.856  12.683   1.520
46088SOL    HW140161   7.761  12.697   1.524
46088SOL    HW240162   7.867  12.609   1.460
46089SOL     OW40163  12.845  10.264   0.164
46089SOL    HW140164  12.809  10.238   0.080
46089SOL    HW240165  12.917  10.203   0.179
46090SOL     OW40166   0.608  12.763   4.806
46090SOL    HW140167   0.579  12.684   4.850
46090SOL    HW240168   0.704  12.760   4.811
46091SOL     OW40169   1.214  13.710   0.975
46091SOL    HW140170   1.257  13.730   1.059
46091SOL    HW240171   1.243  13.781   0.917
46092SOL     OW40172  10.954   7.833   7.899
46092SOL    HW140173  10.907   7.769   7.953
46092SOL    HW240174  10.935   7.917   7.940
46093SOL     OW40175  12.596  13.839   7.996
46093SOL    HW140176  12.565  13.868   7.910
46093SOL    HW240177  12.689  13.825   7.985
46094SOL     OW40178   3.440   2.346   9.892
46094SOL    HW140179   3.463   2.439   9.900
46094SOL    HW240180   3.488   2.316   9.815
46095SOL     OW40181   1.561   0.360   5.674
46095SOL    HW140182   1.648   0.374   5.712
46095SOL    HW240183   1.549   0.265   5.677
46096SOL     OW40184   5.243  14.773   5.998
46096SOL    HW140185   5.237   0.000   5.989
46096SOL    HW240186   5.239  14.740   5.909
46097SOL     OW40187   8.075   5.963  13.804
46097SOL    HW140188   8.160   5.943  13.842
46097SOL    HW240189   8.095   6.008  13.721
46098SOL     OW40190   1.197  14.611   6.576
46098SOL    HW140191   1.280  14.656   6.596
46098SOL    HW240192   1.150  14.672   6.520
46099SOL     OW40193  13.696  14.179   1.984
46099SOL    HW140194  13.697  14.100   2.039
46099SOL    HW240195  13.615  14.172   1.933
46100SOL     OW40196   8.501   2.507   9.964
46100SOL    HW140197   8.583   2.549   9.988
46100SOL    HW240198   8.435   2.547  10.021
46101SOL     OW40199   2.675   3.409   1.349
46101SOL    HW140200   2.729   3.423   1.271
46101SOL    HW240201   2.734   3.371   1.414
46102SOL     OW40202  12.895   4.442   9.489
46102SOL    HW140203  12.960   4.471   9.425
46102SOL    HW240204  12.890   4.514   9.552
46103SOL     OW40205   5.205  10.372   6.839
46103SOL    HW140206   5.148  10.372   6.762
46103SOL    HW240207   5.239  10.282   6.843
46104SOL     OW40208   7.904   7.353   4.823
46104SOL    HW140209   7.884   7.428   4.767
46104SOL    HW240210   7.963   7.389   4.890
46105SOL     OW40211   7.554   4.745  14.686
46105SOL    HW140212   7.613   4.816  14.658
46105SOL    HW240213   7.612   4.672  14.705
46106SOL     OW40214   4.047   1.947  14.279
46106SOL    HW140215   3.959   1.976  14.255
46106SOL    HW240216   4.087   2.023  14.320
46107SOL     OW40217   0.910  10.568   6.035
46107SOL    HW140218   0.981  10.532   6.089
46107SOL    HW240219   0.901  10.504   5.964
46108SOL     OW40220   6.781   4.666  11.252
46108SOL    HW140221   6.744   4.737  11.198
46108SOL    HW240222   6.710   4.603  11.259
46109SOL     OW40223  13.691   4.142   4.517
46109SOL    HW140224  13.743   4.176   4.445
46109SOL    HW240225  13.600   4.159   4.491
46110SOL     OW40226   6.686   8.586   7.528
46110SOL    HW140227   6.663   8.512   7.472
46110SOL    HW240228   6.779   8.602   7.510
46111SOL     OW40229   0.482   8.003   2.493
46111SOL    HW140230   0.532   7.942   2.438
46111SOL    HW240231   0.545   8.071   2.517
46112SOL     OW40232  11.033   2.629   9.843
46112SOL    HW140233  10.985   2.548   9.827
46112SOL    HW240234  11.120   2.612   9.808
46113SOL     OW40235   6.759  10.878   5.215
46113SOL    HW140236   6.810  10.881   5.134
46113SOL    HW240237   6.824  10.865   5.284
46114SOL     OW40238   8.782  11.983   4.343
46114SOL    HW140239   8.740  12.067   4.360
46114SOL    HW240240   8.868  12.006   4.308
46115SOL     OW40241  11.202   1.806   8.766
46115SOL    HW140242  11.183   1.900   8.766
46115SOL    HW240243  11.297   1.801   8.754
46116SOL     OW40244   7.158  11.237  12.124
46116SOL    HW140245   7.166  11.148  12.160
46116SOL    HW240246   7.239  11.251  12.075
46117SOL     OW40247  11.875   4.110  12.024
46117SOL    HW140248  11.793   4.157  12.040
46117SOL    HW240249  11.894   4.066  12.107
46118SOL     OW40250  14.059   8.127  14.557
46118SOL    HW140251  14.143   8.108  14.599
46118SOL    HW240252  14.002   8.155  14.628
46119SOL     OW40253   8.907   5.619   8.457
46119SOL    HW140254   8.850   5.543   8.447
46119SOL    HW240255   8.855   5.682   8.507
46120SOL     OW40256  11.777   4.137  11.660
46120SOL    HW140257  11.744   4.058  11.618
46120SOL    HW240258  11.849   4.107  11.716
46121SOL     OW40259   6.247   3.283   7.421
46121SOL    HW140260   6.311   3.270   7.491
46121SOL    HW240261   6.299   3.304   7.344
46122SOL     OW40262   9.591   9.556   4.798
46122SOL    HW140263   9.532   9.632   4.797
46122SOL    HW240264   9.568   9.509   4.879
46123SOL     OW40265  13.475  10.481  11.189
46123SOL    HW140266  13.433  10.414  11.243
46123SOL    HW240267  13.569  10.470  11.205
46124SOL     OW40268   5.170   4.377  11.695
46124SOL    HW140269   5.238   4.316  11.723
46124SOL    HW240270   5.200   4.408  11.609
46125SOL     OW40271   8.344  14.396  13.165
46125SOL    HW140272   8.363  14.409  13.258
46125SOL    HW240273   8.311  14.480  13.136
46126SOL     OW40274   4.814  11.076   9.880
46126SOL    HW140275   4.790  10.987   9.905
46126SOL    HW240276   4.903  11.088   9.914
46127SOL     OW40277  14.565   7.724   9.147
46127SOL    HW140278  14.501   7.688   9.085
46127SOL    HW240279  14.611   7.647   9.181
46128SOL     OW40280  14.373  11.251   4.816
46128SOL    HW140281  14.378  11.255   4.912
46128SOL    HW240282  14.343  11.162   4.797
46129SOL     OW40283   4.811   8.300   0.315
46129SOL    HW140284   4.775   8.289   0.403
46129SOL    HW240285   4.752   8.252   0.258
46130SOL     OW40286   8.617   3.067   7.405
46130SOL    HW140287   8.685   3.096   7.466
46130SOL    HW240288   8.546   3.036   7.461
46131SOL     OW40289   3.773   8.866   6.245
46131SOL    HW140290   3.838   8.935   6.230
46131SOL    HW240291   3.793   8.800   6.179
46132SOL     OW40292   0.586   3.928   2.083
46132SOL    HW140293   0.530   3.938   2.160
46132SOL    HW240294   0.587   3.834   2.066
46133SOL     OW40295  14.139   7.531   5.147
46133SOL    HW140296  14.090   7.613   5.140
46133SOL    HW240297  14.208   7.549   5.210
46134SOL     OW40298  13.763   1.308  13.453
46134SOL    HW140299  13.820   1.381  13.476
46134SOL    HW240300  13.677   1.349  13.439
46135SOL     OW40301   9.304   5.855  13.597
46135SOL    HW140302   9.386   5.823  13.559
46135SOL    HW240303   9.327   5.878  13.687
46136SOL     OW40304   8.982  13.348  12.748
46136SOL    HW140305   8.932  13.412  12.798
46136SOL    HW240306   9.073  13.370  12.767
46137SOL     OW40307   5.435   6.958  10.671
46137SOL    HW140308   5.342   6.938  10.664
46137SOL    HW240309   5.471   6.937  10.585
46138SOL     OW40310  13.891   2.769   6.257
46138SOL    HW140311  13.832   2.836   6.289
46138SOL    HW240312  13.855   2.687   6.289
46139SOL     OW40313   3.606  10.792   1.856
46139SOL    HW140314   3.608  10.769   1.949
46139SOL    HW240315   3.633  10.712   1.811
46140SOL     OW40316   9.852   5.632   9.373
46140SOL    HW140317   9.781   5.695   9.386
46140SOL    HW240318   9.894   5.626   9.459
46141SOL     OW40319  13.006   0.922   5.639
46141SOL    HW140320  13.059   1.002   5.633
46141SOL    HW240321  13.052   0.868   5.702
46142SOL     OW40322   9.981   6.158   5.542
46142SOL    HW140323   9.990   6.121   5.454
46142SOL    HW240324   9.993   6.084   5.601
46143SOL     OW40325   6.984   1.022  12.304
46143SOL    HW140326   6.895   1.045  12.332
46143SOL    HW240327   7.035   1.102  12.319
46144SOL     OW40328   7.323   0.848   0.625
46144SOL    HW140329   7.245   0.879   0.579
46144SOL    HW240330   7.333   0.909   0.698
46145SOL     OW40331   0.413   4.821   0.601
46145SOL    HW140332   0.354   4.822   0.525
46145SOL    HW240333   0.360   4.784   0.672
46146SOL     OW40334   2.685   3.649  12.037
46146SOL    HW140335   2.739   3.570  12.047
46146SOL    HW240336   2.609   3.633  12.094
46147SOL     OW40337   7.920  11.889   5.440
46147SOL    HW140338   7.933  11.975   5.401
46147SOL    HW240339   8.003  11.843   5.426
46148SOL     OW40340  13.415   5.995   5.097
46148SOL    HW140341  13.402   6.086   5.071
46148SOL    HW240342  13.341   5.976   5.155
46149SOL     OW40343   2.651  10.639   4.648
46149SOL    HW140344   2.679  10.689   4.725
46149SOL    HW240345   2.718  10.657   4.582
46150SOL     OW40346   1.203  14.370   9.911
46150SOL    HW140347   1.272  14.304   9.917
46150SOL    HW240348   1.133  14.338   9.968
46151SOL     OW40349  13.228  12.290   1.946
46151SOL    HW140350  13.174  12.356   1.903
46151SOL    HW240351  13.236  12.219   1.882
46152SOL     OW40352   5.082   7.558  13.638
46152SOL    HW140353   4.994   7.522  13.633
46152SOL    HW240354   5.107   7.547  13.730
46153SOL     OW40355   8.324  12.501   9.367
46153SOL    HW140356   8.325  12.580   9.313
46153SOL    HW240357   8.237  12.464   9.353
46154SOL     OW40358   5.315   8.710  10.843
46154SOL    HW140359   5.365   8.729  10.923
46154SOL    HW240360   5.376   8.732  10.772
46155SOL     OW40361   7.722  13.002   0.173
46155SOL    HW140362   7.752  12.940   0.106
46155SOL    HW240363   7.803  13.041   0.208
46156SOL     OW40364  11.138  11.552   3.639
46156SOL    HW140365  11.073  11.532   3.571
46156SOL    HW240366  11.103  11.630   3.683
46157SOL     OW40367  13.164   6.651   7.008
46157SOL    HW140368  13.151   6.695   7.092
46157SOL    HW240369  13.248   6.605   7.018
46158SOL     OW40370   1.664  14.013   0.598
46158SOL    HW140371   1.654  13.919   0.581
46158SOL    HW240372   1.646  14.054   0.513
46159SOL     OW40373   4.719  12.677  12.184
46159SOL    HW140374   4.770  12.612  12.232
46159SOL    HW240375   4.630  12.668  12.218
46160SOL     OW40376   7.207  12.397  12.422
46160SOL    HW140377   7.173  12.486  12.421
46160SOL    HW240378   7.222  12.378  12.515
46161SOL     OW40379  13.086  11.131   8.941
46161SOL    HW140380  13.096  11.083   9.023
46161SOL    HW240381  13.048  11.067   8.881
46162SOL     OW40382   2.145  13.791   2.019
46162SOL    HW140383   2.156  13.885   2.038
46162SOL    HW240384   2.122  13.752   2.103
46163SOL     OW40385   0.888   4.083  14.471
46163SOL    HW140386   0.859   4.086  14.562
46163SOL    HW240387   0.820   4.033  14.426
46164SOL     OW40388  14.414  12.924  13.786
46164SOL    HW140389  14.351  12.941  13.716
46164SOL    HW240390  14.389  12.984  13.856
46165SOL     OW40391  10.550   3.753   5.124
46165SOL    HW140392  10.637   3.792   5.123
46165SOL    HW240393  10.514   3.772   5.037
46166SOL     OW40394   2.279   6.048  11.312
46166SOL    HW140395   2.362   6.042  11.359
46166SOL    HW240396   2.213   6.057  11.381
46167SOL     OW40397   7.663  12.486   5.457
46167SOL    HW140398   7.670  12.581   5.457
46167SOL    HW240399   7.626  12.464   5.542
46168SOL     OW40400  10.329   2.666   7.451
46168SOL    HW140401  10.400   2.601   7.455
46168SOL    HW240402  10.306   2.682   7.542
46169SOL     OW40403   7.661   3.243  12.721
46169SOL    HW140404   7.650   3.324  12.671
46169SOL    HW240405   7.581   3.193  12.704
46170SOL     OW40406   4.832   1.272   2.893
46170SOL    HW140407   4.851   1.310   2.979
46170SOL    HW240408   4.885   1.323   2.832
46171SOL     OW40409   9.226   4.914  11.261
46171SOL    HW140410   9.212   4.826  11.296
46171SOL    HW240411   9.256   4.965  11.336
46172SOL     OW40412   5.035  12.478   6.543
46172SOL    HW140413   5.000  12.487   6.454
46172SOL    HW240414   5.067  12.387   6.546
46173SOL     OW40415   0.701  14.042  14.095
46173SOL    HW140416   0.723  14.129  14.128
46173SOL    HW240417   0.749  14.035  14.012
46174SOL     OW40418   2.177  11.460   7.116
46174SOL    HW140419   2.197  11.366   7.112
46174SOL    HW240420   2.158  11.484   7.025
46175SOL     OW40421  12.618   1.085  14.168
46175SOL    HW140422  12.674   1.162  14.176
46175SOL    HW240423  12.563   1.103  14.092
46176SOL     OW40424   3.231   3.956  11.199
46176SOL    HW140425   3.279   3.893  11.253
46176SOL    HW240426   3.246   4.041  11.241
46177SOL     OW40427  14.082   1.384   5.306
46177SOL    HW140428  14.002   1.394   5.255
46177SOL    HW240429  14.063   1.426   5.389
46178SOL     OW40430   0.671   9.526   1.248
46178SOL    HW140431   0.721   9.495   1.323
46178SOL    HW240432   0.704   9.474   1.174
46179SOL     OW40433   7.630   9.827   3.069
46179SOL    HW140434   7.595   9.837   2.981
46179SOL    HW240435   7.573   9.880   3.124
46180SOL     OW40436  14.227   5.620   6.713
46180SOL    HW140437  14.263   5.698   6.756
46180SOL    HW240438  14.137   5.645   6.690
46181SOL     OW40439   2.960   6.751   6.882
46181SOL    HW140440   2.915   6.669   6.861
46181SOL    HW240441   2.916   6.817   6.830
46182SOL     OW40442  10.797  10.192   4.996
46182SOL    HW140443  10.781  10.129   5.066
46182SOL    HW240444  10.827  10.139   4.922
46183SOL     OW40445   9.945  10.372   5.575
46183SOL    HW140446   9.876  10.424   5.617
46183SOL    HW240447   9.952  10.293   5.628
46184SOL     OW40448  10.919   9.173   7.984
46184SOL    HW140449  10.992   9.217   8.027
46184SOL    HW240450  10.841   9.219   8.015
46185SOL     OW40451   9.880  13.276  13.469
46185SOL    HW140452   9.838  13.287  13.384
46185SOL    HW240453   9.836  13.339  13.526
46186SOL     OW40454  10.299  14.223  14.844
46186SOL    HW140455  10.268  14.251  14.758
46186SOL    HW240456  10.248  14.276   0.038
46187SOL     OW40457   2.849   8.715  12.463
46187SOL    HW140458   2.837   8.807  12.487
46187SOL    HW240459   2.832   8.713  12.368
46188SOL     OW40460   9.834   9.544   6.916
46188SOL    HW140461   9.928   9.546   6.936
46188SOL    HW240462   9.792   9.528   7.000
46189SOL     OW40463   8.285   7.559   6.629
46189SOL    HW140464   8.373   7.541   6.662
46189SOL    HW240465   8.300   7.597   6.542
46190SOL     OW40466   5.637   0.661   8.446
46190SOL    HW140467   5.659   0.568   8.438
46190SOL    HW240468   5.721   0.707   8.439
46191SOL     OW40469  10.813  12.154   2.194
46191SOL    HW140470  10.780  12.067   2.171
46191SOL    HW240471  10.888  12.168   2.135
46192SOL     OW40472  13.072   5.866   4.140
46192SOL    HW140473  13.050   5.959   4.149
46192SOL    HW240474  13.140   5.851   4.205
46193SOL     OW40475  12.269  10.513   0.183
46193SOL    HW140476  12.365  10.514   0.180
46193SOL    HW240477  12.247  10.420   0.189
46194SOL     OW40478   5.802   0.433   0.031
46194SOL    HW140479   5.819   0.499  14.832
46194SOL    HW240480   5.743   0.371  14.858
46195SOL     OW40481   5.473   0.699   3.945
46195SOL    HW140482   5.444   0.714   4.035
46195SOL    HW240483   5.516   0.613   3.949
46196SOL     OW40484   7.509   9.467   5.415
46196SOL    HW140485   7.494   9.439   5.324
46196SOL    HW240486   7.479   9.394   5.468
46197SOL     OW40487   7.954   4.331   5.582
46197SOL    HW140488   7.928   4.363   5.669
46197SOL    HW240489   8.022   4.266   5.599
46198SOL     OW40490  12.158  14.353   9.727
46198SOL    HW140491  12.132  14.285   9.665
46198SOL    HW240492  12.081  14.367   9.782
46199SOL     OW40493  12.620   6.287   1.638
46199SOL    HW140494  12.587   6.231   1.708
46199SOL    HW240495  12.701   6.245   1.610
46200SOL     OW40496  10.632   3.287   9.401
46200SOL    HW140497  10.619   3.260   9.311
46200SOL    HW240498  10.544   3.305   9.434
46201SOL     OW40499  12.165   4.644   2.132
46201SOL    HW140500  12.169   4.595   2.050
46201SOL    HW240501  12.256   4.644   2.164
46202SOL     OW40502   8.800   7.697   3.528
46202SOL    HW140503   8.792   7.709   3.622
46202SOL    HW240504   8.789   7.603   3.514
46203SOL     OW40505  13.842   9.019   3.817
46203SOL    HW140506  13.856   9.020   3.912
46203SOL    HW240507  13.811   8.931   3.798
46204SOL     OW40508   9.769   0.495  10.060
46204SOL    HW140509   9.726   0.434  10.120
46204SOL    HW240510   9.861   0.468  10.060
46205SOL     OW40511   6.136   9.270  14.782
46205SOL    HW140512   6.099   9.336  14.841
46205SOL    HW240513   6.060   9.223  14.749
46206SOL     OW40514  13.175  13.427   1.002
46206SOL    HW140515  13.247  13.462   1.054
46206SOL    HW240516  13.191  13.332   1.000
46207SOL     OW40517  11.041   9.518   4.202
46207SOL    HW140518  11.131   9.493   4.226
46207SOL    HW240519  11.046   9.613   4.189
46208SOL     OW40520   0.449  14.435  12.012
46208SOL    HW140521   0.451  14.426  11.916
46208SOL    HW240522   0.440  14.346  12.044
46209SOL     OW40523   0.003   5.839  13.551
46209SOL    HW140524   0.026   5.811  13.462
46209SOL    HW240525  14.812   5.913  13.538
46210SOL     OW40526   2.186  13.646   3.975
46210SOL    HW140527   2.281  13.642   3.977
46210SOL    HW240528   2.161  13.594   3.898
46211SOL     OW40529   3.727  12.259   5.130
46211SOL    HW140530   3.741  12.179   5.080
46211SOL    HW240531   3.696  12.322   5.065
46212SOL     OW40532  10.451   8.534   1.122
46212SOL    HW140533  10.507   8.462   1.152
46212SOL    HW240534  10.364   8.512   1.156
46213SOL     OW40535   2.658  14.318   7.202
46213SOL    HW140536   2.641  14.377   7.275
46213SOL    HW240537   2.753  14.304   7.204
46214SOL     OW40538  10.111  11.711   7.404
46214SOL    HW140539  10.120  11.633   7.459
46214SOL    HW240540  10.194  11.715   7.356
46215SOL     OW40541   2.444  13.527  11.739
46215SOL    HW140542   2.484  13.548  11.655
46215SOL    HW240543   2.376  13.463  11.718
46216SOL     OW40544   5.284  14.697   5.747
46216SOL    HW140545   5.245  14.614   5.721
46216SOL    HW240546   5.369  14.699   5.704
46217SOL     OW40547  10.422  12.440  13.648
46217SOL    HW140548  10.377  12.521  13.671
46217SOL    HW240549  10.504  12.443  13.697
46218SOL     OW40550   8.676  12.428   9.653
46218SOL    HW140551   8.711  12.506   9.696
46218SOL    HW240552   8.604  12.400   9.709
46219SOL     OW40553   5.815  13.566  13.586
46219SOL    HW140554   5.757  13.625  13.634
46219SOL    HW240555   5.776  13.479  13.598
46220SOL     OW40556   9.500   8.400  11.922
46220SOL    HW140557   9.470   8.328  11.977
46220SOL    HW240558   9.569   8.443  11.973
46221SOL     OW40559   0.343  10.451   8.707
46221SOL    HW140560   0.363  10.361   8.681
46221SOL    HW240561   0.266  10.443   8.764
46222SOL     OW40562  12.095   9.035  14.709
46222SOL    HW140563  12.071   9.076  14.626
46222SOL    HW240564  12.076   8.942  14.697
46223SOL     OW40565  14.005   2.315   9.466
46223SOL    HW140566  13.957   2.265   9.533
46223SOL    HW240567  13.940   2.375   9.430
46224SOL     OW40568   9.230   6.476   6.403
46224SOL    HW140569   9.248   6.395   6.354
46224SOL    HW240570   9.254   6.546   6.343
46225SOL     OW40571   7.552   2.772   9.093
46225SOL    HW140572   7.594   2.746   9.175
46225SOL    HW240573   7.458   2.767   9.110
46226SOL     OW40574  10.429   2.906   6.279
46226SOL    HW140575  10.476   2.822   6.279
46226SOL    HW240576  10.351   2.890   6.226
46227SOL     OW40577   8.644   5.506   7.982
46227SOL    HW140578   8.602   5.520   7.897
46227SOL    HW240579   8.700   5.583   7.994
46228SOL     OW40580   1.560   1.496  10.586
46228SOL    HW140581   1.614   1.527  10.513
46228SOL    HW240582   1.521   1.576  10.622
46229SOL     OW40583   5.533  11.238   3.389
46229SOL    HW140584   5.611  11.201   3.349
46229SOL    HW240585   5.542  11.218   3.482
46230SOL     OW40586   1.351   2.880   6.215
46230SOL    HW140587   1.320   2.873   6.305
46230SOL    HW240588   1.406   2.958   6.215
46231SOL     OW40589   2.006   6.548  10.404
46231SOL    HW140590   1.925   6.535  10.355
46231SOL    HW240591   2.076   6.524  10.343
46232SOL     OW40592  13.403   4.402  14.624
46232SOL    HW140593  13.391   4.348  14.701
46232SOL    HW240594  13.439   4.484  14.657
46233SOL     OW40595  13.396  14.749   4.782
46233SOL    HW140596  13.335  14.703   4.839
46233SOL    HW240597  13.342  14.811   4.733
46234SOL     OW40598  13.506  14.838   0.309
46234SOL    HW140599  13.536  14.748   0.317
46234SOL    HW240600  13.447  14.837   0.233
46235SOL     OW40601   0.079  11.350   1.477
46235SOL    HW140602  14.863  11.395   1.491
46235SOL    HW240603   0.118  11.396   1.403
46236SOL     OW40604  11.883   3.808   1.360
46236SOL    HW140605  11.893   3.725   1.313
46236SOL    HW240606  11.796   3.839   1.335
46237SOL     OW40607   5.633   4.156   4.345
46237SOL    HW140608   5.710   4.104   4.322
46237SOL    HW240609   5.581   4.098   4.401
46238SOL     OW40610   6.265   0.256  10.659
46238SOL    HW140611   6.290   0.248  10.567
46238SOL    HW240612   6.172   0.232  10.661
46239SOL     OW40613   7.495  10.631   9.285
46239SOL    HW140614   7.498  10.595   9.374
46239SOL    HW240615   7.402  10.648   9.270
46240SOL     OW40616   2.036  12.401   5.351
46240SOL    HW140617   1.980  12.461   5.399
46240SOL    HW240618   2.082  12.456   5.288
46241SOL     OW40619   4.407   1.010   2.001
46241SOL    HW140620   4.468   0.953   1.954
46241SOL    HW240621   4.341   1.034   1.936
46242SOL     OW40622   3.902  11.882  11.939
46242SOL    HW140623   3.980  11.885  11.884
46242SOL    HW240624   3.917  11.808  11.998
46243SOL     OW40625   4.580  13.648  12.049
46243SOL    HW140626   4.651  13.666  11.988
46243SOL    HW240627   4.550  13.735  12.077
46244SOL     OW40628  10.472  11.459   6.366
46244SOL    HW140629  10.498  11.429   6.278
46244SOL    HW240630  10.518  11.542   6.377
46245SOL     OW40631   6.197   7.859   2.068
46245SOL    HW140632   6.126   7.798   2.088
46245SOL    HW240633   6.205   7.912   2.147
46246SOL     OW40634   5.943   8.575  13.809
46246SOL    HW140635   5.991   8.651  13.842
46246SOL    HW240636   5.963   8.505  13.872
46247SOL     OW40637   5.120   5.194   8.560
46247SOL    HW140638   5.156   5.120   8.610
46247SOL    HW240639   5.087   5.155   8.480
46248SOL     OW40640   9.918   6.263  10.741
46248SOL    HW140641   9.840   6.299  10.699
46248SOL    HW240642   9.944   6.329  10.805
46249SOL     OW40643   8.645   6.781   1.575
46249SOL    HW140644   8.665   6.824   1.658
46249SOL    HW240645   8.572   6.723   1.596
46250SOL     OW40646   8.172  12.466   4.882
46250SOL    HW140647   8.162  12.497   4.972
46250SOL    HW240648   8.137  12.537   4.829
46251SOL     OW40649  13.143   3.777   8.047
46251SOL    HW140650  13.187   3.713   8.104
46251SOL    HW240651  13.213   3.818   7.997
46252SOL     OW40652  11.337   1.153   5.890
46252SOL    HW140653  11.249   1.173   5.922
46252SOL    HW240654  11.345   1.205   5.810
46253SOL     OW40655   2.668   7.163   1.062
46253SOL    HW140656   2.694   7.252   1.037
46253SOL    HW240657   2.574   7.172   1.083
46254SOL     OW40658   0.585   4.415   0.619
46254SOL    HW140659   0.610   4.356   0.548
46254SOL    HW240660   0.509   4.463   0.586
46255SOL     OW40661   4.133  14.659  14.735
46255SOL    HW140662   4.220  14.654  14.776
46255SOL    HW240663   4.103  14.748  14.754
46256SOL     OW40664  13.196   7.601   3.900
46256SOL    HW140665  13.217   7.694   3.891
46256SOL    HW240666  13.225   7.578   3.988
46257SOL     OW40667   0.852   6.231  14.387
46257SOL    HW140668   0.881   6.273  14.305
46257SOL    HW240669   0.768   6.191  14.365
46258SOL     OW40670  11.825   1.858   0.069
46258SOL    HW140671  11.847   1.775   0.026
46258SOL    HW240672  11.787   1.912  14.868
46259SOL     OW40673   7.886   9.973   8.177
46259SOL    HW140674   7.826  10.043   8.150
46259SOL    HW240675   7.854   9.896   8.129
46260SOL     OW40676   4.585   4.834  14.617
46260SOL    HW140677   4.577   4.756  14.672
46260SOL    HW240678   4.516   4.824  14.551
46261SOL     OW40679   9.156   8.335   5.606
46261SOL    HW140680   9.100   8.413   5.607
46261SOL    HW240681   9.177   8.319   5.698
46262SOL     OW40682  12.237  11.181  10.733
46262SOL    HW140683  12.231  11.205  10.641
46262SOL    HW240684  12.331  11.186  10.754
46263SOL     OW40685   0.549  13.193   6.565
46263SOL    HW140686   0.555  13.109   6.519
46263SOL    HW240687   0.558  13.170   6.658
46264SOL     OW40688   1.053  13.409  13.063
46264SOL    HW140689   0.973  13.404  13.011
46264SOL    HW240690   1.049  13.334  13.122
46265SOL     OW40691   9.688   4.514   8.748
46265SOL    HW140692   9.659   4.574   8.817
46265SOL    HW240693   9.699   4.569   8.671
46266SOL     OW40694   8.031   1.631  11.822
46266SOL    HW140695   8.019   1.639  11.727
46266SOL    HW240696   7.967   1.691  11.859
46267SOL     OW40697   9.606   2.566   2.864
46267SOL    HW140698   9.678   2.509   2.835
46267SOL    HW240699   9.588   2.622   2.788
46268SOL     OW40700   4.147  11.486  10.104
46268SOL    HW140701   4.182  11.397  10.100
46268SOL    HW240702   4.052  11.475  10.108
46269SOL     OW40703   6.988  11.937  14.158
46269SOL    HW140704   6.996  11.986  14.240
46269SOL    HW240705   6.968  12.004  14.092
46270SOL     OW40706  13.559   6.087   4.764
46270SOL    HW140707  13.465   6.073   4.750
46270SOL    HW240708  13.599   6.006   4.733
46271SOL     OW40709  13.569   8.918   4.123
46271SOL    HW140710  13.528   8.846   4.171
46271SOL    HW240711  13.522   8.996   4.152
46272SOL     OW40712  11.553   8.656   2.603
46272SOL    HW140713  11.613   8.705   2.660
46272SOL    HW240714  11.570   8.564   2.623
46273SOL     OW40715   3.509   2.889   6.145
46273SOL    HW140716   3.601   2.911   6.160
46273SOL    HW240717   3.461   2.955   6.195
46274SOL     OW40718  13.349   5.141   6.174
46274SOL    HW140719  13.367   5.177   6.087
46274SOL    HW240720  13.258   5.166   6.192
46275SOL     OW40721  12.619   2.589   2.528
46275SOL    HW140722  12.705   2.605   2.566
46275SOL    HW240723  12.585   2.676   2.509
46276SOL     OW40724   7.668  10.554   8.810
46276SOL    HW140725   7.736  10.618   8.831
46276SOL    HW240726   7.644  10.516   8.895
46277SOL     OW40727   9.499  12.708   1.608
46277SOL    HW140728   9.520  12.636   1.667
46277SOL    HW240729   9.505  12.786   1.663
46278SOL     OW40730   2.229  11.092   4.149
46278SOL    HW140731   2.159  11.052   4.201
46278SOL    HW240732   2.309  11.052   4.181
46279SOL     OW40733  11.849  11.927   1.168
46279SOL    HW140734  11.801  11.889   1.242
46279SOL    HW240735  11.821  12.018   1.166
46280SOL     OW40736   2.673   9.353   8.676
46280SOL    HW140737   2.591   9.386   8.714
46280SOL    HW240738   2.722   9.321   8.751
46281SOL     OW40739   0.172   6.167   7.711
46281SOL    HW140740   0.167   6.260   7.692
46281SOL    HW240741   0.104   6.152   7.777
46282SOL     OW40742   8.981  13.178   9.730
46282SOL    HW140743   9.071  13.159   9.754
46282SOL    HW240744   8.957  13.108   9.670
46283SOL     OW40745  13.508   1.278  14.037
46283SOL    HW140746  13.594   1.291  13.997
46283SOL    HW240747  13.493   1.355  14.091
46284SOL     OW40748  10.145  13.863   3.345
46284SOL    HW140749  10.114  13.830   3.429
46284SOL    HW240750  10.239  13.842   3.344
46285SOL     OW40751   8.751   6.200   3.012
46285SOL    HW140752   8.712   6.194   3.100
46285SOL    HW240753   8.844   6.181   3.026
46286SOL     OW40754   7.068   3.633   8.909
46286SOL    HW140755   7.117   3.716   8.910
46286SOL    HW240756   6.977   3.658   8.925
46287SOL     OW40757  13.874   1.302  13.705
46287SOL    HW140758  13.845   1.283  13.616
46287SOL    HW240759  13.953   1.250  13.716
46288SOL     OW40760  12.658   1.845   9.309
46288SOL    HW140761  12.613   1.767   9.276
46288SOL    HW240762  12.749   1.817   9.321
46289SOL     OW40763   3.874   8.075   1.789
46289SOL    HW140764   3.833   7.990   1.772
46289SOL    HW240765   3.806   8.139   1.767
46290SOL     OW40766   3.660  14.734   0.825
46290SOL    HW140767   3.636  14.688   0.744
46290SOL    HW240768   3.651  14.668   0.894
46291SOL     OW40769   5.011   2.238  14.016
46291SOL    HW140770   5.048   2.324  13.997
46291SOL    HW240771   4.990   2.241  14.109
46292SOL     OW40772   4.633  12.498   8.680
46292SOL    HW140773   4.603  12.419   8.725
46292SOL    HW240774   4.642  12.470   8.588
46293SOL     OW40775  10.332   2.757   0.733
46293SOL    HW140776  10.265   2.739   0.667
46293SOL    HW240777  10.343   2.852   0.729
46294SOL     OW40778   9.197   7.496   7.319
46294SOL    HW140779   9.138   7.427   7.290
46294SOL    HW240780   9.255   7.453   7.382
46295SOL     OW40781  12.262   9.045   4.636
46295SOL    HW140782  12.337   9.082   4.589
46295SOL    HW240783  12.295   9.027   4.724
46296SOL     OW40784   6.972   7.072   4.657
46296SOL    HW140785   6.994   7.129   4.730
46296SOL    HW240786   7.057   7.036   4.629
46297SOL     OW40787  14.019   1.529   5.898
46297SOL    HW140788  14.081   1.561   5.833
46297SOL    HW240789  14.067   1.531   5.981
46298SOL     OW40790   0.232   1.168  11.929
46298SOL    HW140791   0.327   1.160  11.943
46298SOL    HW240792   0.212   1.259  11.952
46299SOL     OW40793  12.507  10.639   9.156
46299SOL    HW140794  12.600  10.658   9.169
46299SOL    HW240795  12.505  10.550   9.120
46300SOL     OW40796   4.092   1.383  12.122
46300SOL    HW140797   4.000   1.402  12.140
46300SOL    HW240798   4.137   1.465  12.143
46301SOL     OW40799   5.636   9.026  10.753
46301SOL    HW140800   5.588   9.074  10.685
46301SOL    HW240801   5.579   9.030  10.830
46302SOL     OW40802   0.986   4.964  14.696
46302SOL    HW140803   1.028   5.040  14.736
46302SOL    HW240804   0.898   4.996  14.672
46303SOL     OW40805   6.403   8.730  13.010
46303SOL    HW140806   6.355   8.794  13.062
46303SOL    HW240807   6.439   8.669  13.074
46304SOL     OW40808  14.362   3.171  10.697
46304SOL    HW140809  14.268   3.182  10.707
46304SOL    HW240810  14.373   3.137  10.608
46305SOL     OW40811  10.797  13.911  11.975
46305SOL    HW140812  10.830  13.822  11.966
46305SOL    HW240813  10.703  13.904  11.959
46306SOL     OW40814   7.701  10.761  12.436
46306SOL    HW140815   7.627  10.732  12.383
46306SOL    HW240816   7.672  10.842  12.477
46307SOL     OW40817  12.122  12.708   4.440
46307SOL    HW140818  12.145  12.692   4.531
46307SOL    HW240819  12.027  12.692   4.436
46308SOL     OW40820   9.609   4.065  13.137
46308SOL    HW140821   9.667   4.138  13.160
46308SOL    HW240822   9.543   4.064  13.207
46309SOL     OW40823   8.313   5.483   6.300
46309SOL    HW140824   8.240   5.540   6.276
46309SOL    HW240825   8.325   5.426   6.223
46310SOL     OW40826  14.050   1.730   3.043
46310SOL    HW140827  13.965   1.756   3.008
46310SOL    HW240828  14.033   1.649   3.091
46311SOL     OW40829   6.708  13.895   6.454
46311SOL    HW140830   6.641  13.963   6.460
46311SOL    HW240831   6.660  13.812   6.459
46312SOL     OW40832  14.777   5.864   9.320
46312SOL    HW140833  14.769   5.958   9.309
46312SOL    HW240834  14.720   5.843   9.394
46313SOL     OW40835   2.300  12.597   5.531
46313SOL    HW140836   2.317  12.570   5.441
46313SOL    HW240837   2.214  12.639   5.528
46314SOL     OW40838   0.840  13.701   3.304
46314SOL    HW140839   0.898  13.762   3.259
46314SOL    HW240840   0.849  13.725   3.397
46315SOL     OW40841   2.322   7.831   5.906
46315SOL    HW140842   2.380   7.879   5.965
46315SOL    HW240843   2.316   7.887   5.829
46316SOL     OW40844  12.000  12.687   7.285
46316SOL    HW140845  11.989  12.655   7.196
46316SOL    HW240846  12.009  12.607   7.337
46317SOL     OW40847  13.953  14.294   2.962
46317SOL    HW140848  14.046  14.272   2.949
46317SOL    HW240849  13.908  14.210   2.956
46318SOL     OW40850   8.989   1.197   7.735
46318SOL    HW140851   8.916   1.157   7.687
46318SOL    HW240852   9.032   1.124   7.779
46319SOL     OW40853   4.833   2.931  10.340
46319SOL    HW140854   4.883   2.956  10.417
46319SOL    HW240855   4.758   2.991  10.340
46320SOL     OW40856   2.538   3.990   8.862
46320SOL    HW140857   2.485   3.913   8.885
46320SOL    HW240858   2.476   4.051   8.822
46321SOL     OW40859   6.342   0.799   5.837
46321SOL    HW140860   6.305   0.844   5.913
46321SOL    HW240861   6.338   0.706   5.859
46322SOL     OW40862  12.530  11.112   7.489
46322SOL    HW140863  12.491  11.151   7.410
46322SOL    HW240864  12.540  11.020   7.468
46323SOL     OW40865   1.582   8.240  14.420
46323SOL    HW140866   1.527   8.296  14.365
46323SOL    HW240867   1.568   8.152  14.386
46324SOL     OW40868   5.383  11.401   9.852
46324SOL    HW140869   5.305  11.449   9.880
46324SOL    HW240870   5.349  11.331   9.796
46325SOL     OW40871   2.997   9.702  14.555
46325SOL    HW140872   2.939   9.769  14.519
46325SOL    HW240873   3.047   9.747  14.623
46326SOL     OW40874   9.141   9.088   6.322
46326SOL    HW140875   9.217   9.141   6.344
46326SOL    HW240876   9.067   9.136   6.357
46327SOL     OW40877   2.960   4.616  12.058
46327SOL    HW140878   2.964   4.708  12.032
46327SOL    HW240879   2.924   4.618  12.147
46328SOL     OW40880   0.823   9.814   1.795
46328SOL    HW140881   0.741   9.865   1.799
46328SOL    HW240882   0.880   9.856   1.859
46329SOL     OW40883  13.094   2.468  11.577
46329SOL    HW140884  13.137   2.406  11.636
46329SOL    HW240885  13.034   2.414  11.526
46330SOL     OW40886  14.116  14.861   0.799
46330SOL    HW140887  14.066   0.055   0.747
46330SOL    HW240888  14.147   0.044   0.874
46331SOL     OW40889   8.109   3.222  10.199
46331SOL    HW140890   8.061   3.222  10.282
46331SOL    HW240891   8.164   3.300  10.204
46332SOL     OW40892   1.085   9.980   9.211
46332SOL    HW140893   1.158   9.995   9.271
46332SOL    HW240894   1.069  10.066   9.171
46333SOL     OW40895   7.136   6.342   7.379
46333SOL    HW140896   7.147   6.250   7.400
46333SOL    HW240897   7.053   6.347   7.332
46334SOL     OW40898   4.143   2.476   8.612
46334SOL    HW140899   4.072   2.419   8.583
46334SOL    HW240900   4.213   2.463   8.547
46335SOL     OW40901   7.120  10.093  14.603
46335SOL    HW140902   7.167  10.164  14.647
46335SOL    HW240903   7.029  10.103  14.630
46336SOL     OW40904   5.203   4.843  11.190
46336SOL    HW140905   5.177   4.777  11.254
46336SOL    HW240906   5.298   4.848  11.198
46337SOL     OW40907   6.139   3.485   7.670
46337SOL    HW140908   6.071   3.453   7.728
46337SOL    HW240909   6.105   3.468   7.582
46338SOL     OW40910   3.739   4.953   7.764
46338SOL    HW140911   3.761   4.860   7.760
46338SOL    HW240912   3.719   4.977   7.673
46339SOL     OW40913   9.573   4.691   8.903
46339SOL    HW140914   9.617   4.673   8.986
46339SOL    HW240915   9.480   4.686   8.923
46340SOL     OW40916  14.677   4.608   2.525
46340SOL    HW140917  14.718   4.693   2.511
46340SOL    HW240918  14.585   4.628   2.543
46341SOL     OW40919   1.007   6.644   6.256
46341SOL    HW140920   1.053   6.563   6.276
46341SOL    HW240921   1.046   6.675   6.174
46342SOL     OW40922   2.973   5.475   1.532
46342SOL    HW140923   2.951   5.551   1.477
46342SOL    HW240924   3.068   5.467   1.524
46343SOL     OW40925   4.453  13.136   8.305
46343SOL    HW140926   4.499  13.216   8.282
46343SOL    HW240927   4.387  13.163   8.369
46344SOL     OW40928   7.574  13.238   0.095
46344SOL    HW140929   7.633  13.280   0.032
46344SOL    HW240930   7.624  13.163   0.128
46345SOL     OW40931   6.737   3.988  11.481
46345SOL    HW140932   6.725   3.965  11.389
46345SOL    HW240933   6.653   3.970  11.522
46346SOL     OW40934   9.836  11.898   5.679
46346SOL    HW140935   9.801  11.894   5.767
46346SOL    HW240936   9.771  11.852   5.625
46347SOL     OW40937   5.906   2.393   1.474
46347SOL    HW140938   5.849   2.316   1.483
46347SOL    HW240939   5.976   2.378   1.538
46348SOL     OW40940  13.719   6.197   1.308
46348SOL    HW140941  13.672   6.205   1.391
46348SOL    HW240942  13.711   6.105   1.285
46349SOL     OW40943   8.329   8.914   1.113
46349SOL    HW140944   8.404   8.969   1.089
46349SOL    HW240945   8.257   8.976   1.124
46350SOL     OW40946   5.027   7.401   2.826
46350SOL    HW140947   4.981   7.485   2.828
46350SOL    HW240948   4.967   7.339   2.867
46351SOL     OW40949  12.937  13.953   6.982
46351SOL    HW140950  12.884  14.032   6.967
46351SOL    HW240951  12.893  13.908   7.055
46352SOL     OW40952   2.925  10.867   6.076
46352SOL    HW140953   3.000  10.857   6.135
46352SOL    HW240954   2.873  10.938   6.115
46353SOL     OW40955   6.755   2.765  10.106
46353SOL    HW140956   6.691   2.778  10.036
46353SOL    HW240957   6.797   2.681  10.085
46354SOL     OW40958   7.311   1.703  10.166
46354SOL    HW140959   7.301   1.672  10.256
46354SOL    HW240960   7.221   1.707  10.132
46355SOL     OW40961  13.593  10.571   8.383
46355SOL    HW140962  13.659  10.633   8.351
46355SOL    HW240963  13.641  10.489   8.395
46356SOL     OW40964  13.255   7.444  12.966
46356SOL    HW140965  13.222   7.406  12.884
46356SOL    HW240966  13.188   7.506  12.992
46357SOL     OW40967   3.546  14.147  11.846
46357SOL    HW140968   3.505  14.090  11.911
46357SOL    HW240969   3.556  14.231  11.890
46358SOL     OW40970  13.564  10.572   7.261
46358SOL    HW140971  13.492  10.600   7.317
46358SOL    HW240972  13.638  10.627   7.287
46359SOL     OW40973   2.517   7.407   1.268
46359SOL    HW140974   2.509   7.478   1.332
46359SOL    HW240975   2.601   7.366   1.289
46360SOL     OW40976   3.709  12.425  13.388
46360SOL    HW140977   3.742  12.377  13.463
46360SOL    HW240978   3.627  12.381  13.365
46361SOL     OW40979   3.459   2.662   1.410
46361SOL    HW140980   3.461   2.728   1.341
46361SOL    HW240981   3.464   2.713   1.491
46362SOL     OW40982   7.654   9.856   0.009
46362SOL    HW140983   7.693   9.905   0.081
46362SOL    HW240984   7.567   9.832   0.041
46363SOL     OW40985   3.817   4.214  10.244
46363SOL    HW140986   3.911   4.197  10.257
46363SOL    HW240987   3.782   4.221  10.333
46364SOL     OW40988  13.226  10.556   7.646
46364SOL    HW140989  13.149  10.549   7.701
46364SOL    HW240990  13.294  10.509   7.694
46365SOL     OW40991   7.020   1.337  12.417
46365SOL    HW140992   7.097   1.327  12.361
46365SOL    HW240993   6.950   1.363  12.357
46366SOL     OW40994   8.160  13.627  14.187
46366SOL    HW140995   8.239  13.661  14.144
46366SOL    HW240996   8.101  13.606  14.115
46367SOL     OW40997  11.912   8.568  11.013
46367SOL    HW140998  11.968   8.629  10.965
46367SOL    HW240999  11.923   8.592  11.105
46368SOL     OW41000  13.342   1.774   0.861
46368SOL    HW141001  13.343   1.735   0.949
46368SOL    HW241002  13.307   1.862   0.874
46369SOL     OW41003   3.067   9.776   0.298
46369SOL    HW141004   3.139   9.838   0.290
46369SOL    HW241005   3.106   9.691   0.277
46370SOL     OW41006  14.530  13.936   1.856
46370SOL    HW141007  14.536  13.907   1.765
46370SOL    HW241008  14.494  13.861   1.903
46371SOL     OW41009  14.237   4.535  12.573
46371SOL    HW141010  14.145   4.511  12.577
46371SOL    HW241011  14.284   4.456  12.600
46372SOL     OW41012  14.575   2.235   4.660
46372SOL    HW141013  14.609   2.149   4.684
46372SOL    HW241014  14.652   2.288   4.640
46373SOL     OW41015   5.627   2.174   6.191
46373SOL    HW141016   5.641   2.080   6.206
46373SOL    HW241017   5.596   2.207   6.275
46374SOL     OW41018   4.233   1.281   2.245
46374SOL    HW141019   4.196   1.245   2.325
46374SOL    HW241020   4.182   1.361   2.230
46375SOL     OW41021  10.666   8.640  12.676
46375SOL    HW141022  10.734   8.670  12.737
46375SOL    HW241023  10.676   8.697  12.599
46376SOL     OW41024  10.533  11.353   1.972
46376SOL    HW141025  10.506  11.414   1.903
46376SOL    HW241026  10.625  11.334   1.952
46377SOL     OW41027  11.705  13.864  13.439
46377SOL    HW141028  11.686  13.953  13.409
46377SOL    HW241029  11.632  13.811  13.406
46378SOL     OW41030   7.321   9.582   2.034
46378SOL    HW141031   7.236   9.623   2.019
46378SOL    HW241032   7.302   9.488   2.037
46379SOL     OW41033   9.019  10.826   5.936
46379SOL    HW141034   8.936  10.779   5.930
46379SOL    HW241035   9.018  10.865   6.024
46380SOL     OW41036   0.691   6.952   9.009
46380SOL    HW141037   0.721   7.032   8.966
46380SOL    HW241038   0.677   6.977   9.100
46381SOL     OW41039  13.007   1.018   5.117
46381SOL    HW141040  12.912   1.029   5.112
46381SOL    HW241041  13.025   1.011   5.211
46382SOL     OW41042   8.442  14.230   8.757
46382SOL    HW141043   8.488  14.167   8.701
46382SOL    HW241044   8.439  14.311   8.705
46383SOL     OW41045   8.035   7.168   1.578
46383SOL    HW141046   7.958   7.158   1.634
46383SOL    HW241047   8.004   7.220   1.504
46384SOL     OW41048  11.023   4.410  13.704
46384SOL    HW141049  10.987   4.361  13.630
46384SOL    HW241050  10.953   4.472  13.727
46385SOL     OW41051  11.676   1.989   5.671
46385SOL    HW141052  11.654   1.923   5.738
46385SOL    HW241053  11.686   1.939   5.590
46386SOL     OW41054   4.931   7.758  14.438
46386SOL    HW141055   4.869   7.782  14.507
46386SOL    HW241056   4.992   7.697  14.481
46387SOL     OW41057   0.482   8.244   3.060
46387SOL    HW141058   0.399   8.292   3.070
46387SOL    HW241059   0.467   8.186   2.986
46388SOL     OW41060   7.627  12.674  13.213
46388SOL    HW141061   7.592  12.754  13.172
46388SOL    HW241062   7.627  12.609  13.143
46389SOL     OW41063   2.606   1.029   3.804
46389SOL    HW141064   2.627   0.943   3.768
46389SOL    HW241065   2.524   1.054   3.763
46390SOL     OW41066   6.242   1.012  10.859
46390SOL    HW141067   6.278   1.098  10.879
46390SOL    HW241068   6.195   1.024  10.777
46391SOL     OW41069   4.367   7.617   4.000
46391SOL    HW141070   4.430   7.548   3.977
46391SOL    HW241071   4.382   7.633   4.093
46392SOL     OW41072   7.185   8.606  12.089
46392SOL    HW141073   7.121   8.677  12.084
46392SOL    HW241074   7.233   8.611  12.007
46393SOL     OW41075  12.576  11.402  10.575
46393SOL    HW141076  12.549  11.469  10.638
46393SOL    HW241077  12.645  11.445  10.523
46394SOL     OW41078   8.365   6.703   1.100
46394SOL    HW141079   8.349   6.680   1.191
46394SOL    HW241080   8.359   6.620   1.053
46395SOL     OW41081   7.650   3.321   6.198
46395SOL    HW141082   7.592   3.338   6.272
46395SOL    HW241083   7.601   3.263   6.140
46396SOL     OW41084   9.970  13.278  13.024
46396SOL    HW141085  10.050  13.309  12.982
46396SOL    HW241086   9.995  13.194  13.065
46397SOL     OW41087   5.463  13.919   8.542
46397SOL    HW141088   5.372  13.888   8.544
46397SOL    HW241089   5.464  13.994   8.600
46398SOL     OW41090   8.092   5.061  12.792
46398SOL    HW141091   8.000   5.086  12.789
46398SOL    HW241092   8.096   4.978  12.743
46399SOL     OW41093  14.684   6.785   0.056
46399SOL    HW141094  14.676   6.846   0.130
46399SOL    HW241095  14.693   6.842  14.847
46400SOL     OW41096  10.660  12.957   9.114
46400SOL    HW141097  10.646  12.951   9.019
46400SOL    HW241098  10.737  12.903   9.130
46401SOL     OW41099   9.401   7.600  13.741
46401SOL    HW141100   9.477   7.622  13.794
46401SOL    HW241101   9.386   7.507  13.758
46402SOL     OW41102   7.067   4.673   6.084
46402SOL    HW141103   7.121   4.651   6.008
46402SOL    HW241104   7.123   4.656   6.160
46403SOL     OW41105  10.598  13.320   1.010
46403SOL    HW141106  10.600  13.381   1.083
46403SOL    HW241107  10.629  13.370   0.935
46404SOL     OW41108  14.856   8.974   5.305
46404SOL    HW141109  14.856   9.061   5.343
46404SOL    HW241110   0.080   8.953   5.290
46405SOL     OW41111   4.763   5.640   2.881
46405SOL    HW141112   4.756   5.634   2.976
46405SOL    HW241113   4.825   5.711   2.866
46406SOL     OW41114  12.317  12.964  10.925
46406SOL    HW141115  12.392  12.914  10.893
46406SOL    HW241116  12.352  13.017  10.997
46407SOL     OW41117  11.441  13.246   5.051
46407SOL    HW141118  11.502  13.262   5.123
46407SOL    HW241119  11.356  13.234   5.094
46408SOL     OW41120   6.326  14.229   4.343
46408SOL    HW141121   6.371  14.169   4.283
46408SOL    HW241122   6.257  14.177   4.382
46409SOL     OW41123   9.168  12.703   4.327
46409SOL    HW141124   9.097  12.766   4.317
46409SOL    HW241125   9.210  12.700   4.241
46410SOL     OW41126   8.165   6.843   7.324
46410SOL    HW141127   8.088   6.893   7.296
46410SOL    HW241128   8.131   6.781   7.389
46411SOL     OW41129   5.103  14.484   5.673
46411SOL    HW141130   5.135  14.396   5.652
46411SOL    HW241131   5.026  14.495   5.618
46412SOL     OW41132  11.333   2.846  14.061
46412SOL    HW141133  11.349   2.789  13.985
46412SOL    HW241134  11.316   2.932  14.023
46413SOL     OW41135   0.932   6.058  11.588
46413SOL    HW141136   0.998   5.989  11.599
46413SOL    HW241137   0.890   6.065  11.674
46414SOL     OW41138  13.118   9.253   8.436
46414SOL    HW141139  13.176   9.261   8.512
46414SOL    HW241140  13.148   9.173   8.392
46415SOL     OW41141   7.556   7.048   3.661
46415SOL    HW141142   7.626   7.006   3.611
46415SOL    HW241143   7.484   6.985   3.658
46416SOL     OW41144   9.309   2.225  14.212
46416SOL    HW141145   9.392   2.237  14.167
46416SOL    HW241146   9.272   2.313  14.220
46417SOL     OW41147   0.005   0.495   5.219
46417SOL    HW141148   0.029   0.443   5.295
46417SOL    HW241149  14.854   0.431   5.151
46418SOL     OW41150   0.721   6.969   0.955
46418SOL    HW141151   0.693   7.060   0.957
46418SOL    HW241152   0.780   6.964   0.880
46419SOL     OW41153   6.212   5.932   5.605
46419SOL    HW141154   6.271   5.857   5.597
46419SOL    HW241155   6.237   5.973   5.688
46420SOL     OW41156   2.957  14.340   2.513
46420SOL    HW141157   2.940  14.302   2.599
46420SOL    HW241158   3.025  14.284   2.476
46421SOL     OW41159   2.802   1.860   5.345
46421SOL    HW141160   2.859   1.876   5.420
46421SOL    HW241161   2.798   1.764   5.339
46422SOL     OW41162   6.644   3.664   4.751
46422SOL    HW141163   6.671   3.586   4.702
46422SOL    HW241164   6.696   3.735   4.715
46423SOL     OW41165   0.813   8.127   2.006
46423SOL    HW141166   0.856   8.084   1.932
46423SOL    HW241167   0.837   8.075   2.082
46424SOL     OW41168   0.317  11.092  12.215
46424SOL    HW141169   0.405  11.063  12.193
46424SOL    HW241170   0.261  11.052  12.148
46425SOL     OW41171  12.031   5.610  12.427
46425SOL    HW141172  12.106   5.585  12.480
46425SOL    HW241173  12.032   5.706  12.429
46426SOL     OW41174   6.699   6.692  11.304
46426SOL    HW141175   6.639   6.720  11.373
46426SOL    HW241176   6.675   6.601  11.287
46427SOL     OW41177  12.448  11.302  14.089
46427SOL    HW141178  12.410  11.216  14.069
46427SOL    HW241179  12.416  11.358  14.018
46428SOL     OW41180   6.530  12.384   6.621
46428SOL    HW141181   6.573  12.421   6.698
46428SOL    HW241182   6.572  12.428   6.547
46429SOL     OW41183  14.260   9.329  13.857
46429SOL    HW141184  14.313   9.409  13.854
46429SOL    HW241185  14.271   9.290  13.771
46430SOL     OW41186  12.739  13.511   7.028
46430SOL    HW141187  12.777  13.591   7.065
46430SOL    HW241188  12.813  13.452   7.019
46431SOL     OW41189  11.101   7.142  13.086
46431SOL    HW141190  11.006   7.150  13.080
46431SOL    HW241191  11.115   7.075  13.154
46432SOL     OW41192   6.786  14.860   1.903
46432SOL    HW141193   6.708  14.859   1.959
46432SOL    HW241194   6.756   0.028   1.820
46433SOL     OW41195   3.013   8.867   2.621
46433SOL    HW141196   2.948   8.804   2.590
46433SOL    HW241197   2.961   8.938   2.658
46434SOL     OW41198   3.632  13.565   9.183
46434SOL    HW141199   3.658  13.564   9.091
46434SOL    HW241200   3.550  13.517   9.186
46435SOL     OW41201   5.720   2.963   6.154
46435SOL    HW141202   5.720   2.955   6.059
46435SOL    HW241203   5.726   3.057   6.171
46436SOL     OW41204   5.802   3.232  13.428
46436SOL    HW141205   5.791   3.274  13.342
46436SOL    HW241206   5.712   3.222  13.461
46437SOL     OW41207   3.225   7.048   2.873
46437SOL    HW141208   3.163   6.975   2.877
46437SOL    HW241209   3.289   7.022   2.807
46438SOL     OW41210   7.175   1.370  14.537
46438SOL    HW141211   7.229   1.351  14.613
46438SOL    HW241212   7.104   1.425  14.571
46439SOL     OW41213   4.245  13.294  12.551
46439SOL    HW141214   4.259  13.352  12.476
46439SOL    HW241215   4.315  13.229  12.544
46440SOL     OW41216   9.259   4.161  11.103
46440SOL    HW141217   9.350   4.134  11.111
46440SOL    HW241218   9.220   4.098  11.042
46441SOL     OW41219   8.337   5.706   7.033
46441SOL    HW141220   8.360   5.677   6.944
46441SOL    HW241221   8.267   5.769   7.019
46442SOL     OW41222   0.599  12.238   5.633
46442SOL    HW141223   0.533  12.188   5.681
46442SOL    HW241224   0.679  12.225   5.683
46443SOL     OW41225  14.236   7.304  12.196
46443SOL    HW141226  14.146   7.311  12.167
46443SOL    HW241227  14.267   7.394  12.203
46444SOL     OW41228  11.083  12.262   1.206
46444SOL    HW141229  11.001  12.293   1.168
46444SOL    HW241230  11.142  12.250   1.131
46445SOL     OW41231   8.475   3.579  11.412
46445SOL    HW141232   8.512   3.606  11.496
46445SOL    HW241233   8.390   3.542  11.433
46446SOL     OW41234   4.667  14.176   3.021
46446SOL    HW141235   4.648  14.117   3.094
46446SOL    HW241236   4.581  14.211   2.996
46447SOL     OW41237  14.617   8.139   3.021
46447SOL    HW141238  14.640   8.191   3.098
46447SOL    HW241239  14.552   8.191   2.975
46448SOL     OW41240   8.334   4.900   8.658
46448SOL    HW141241   8.315   4.984   8.700
46448SOL    HW241242   8.248   4.865   8.633
46449SOL     OW41243   6.515  10.014   2.374
46449SOL    HW141244   6.588  10.074   2.359
46449SOL    HW241245   6.494  10.025   2.467
46450SOL     OW41246   5.154   9.701   7.877
46450SOL    HW141247   5.088   9.706   7.946
46450SOL    HW241248   5.104   9.691   7.797
46451SOL     OW41249  14.580   5.381   5.873
46451SOL    HW141250  14.620   5.362   5.788
46451SOL    HW241251  14.589   5.476   5.883
46452SOL     OW41252  13.214  11.608  13.463
46452SOL    HW141253  13.258  11.683  13.426
46452SOL    HW241254  13.124  11.614  13.431
46453SOL     OW41255  10.928  13.472   5.994
46453SOL    HW141256  10.865  13.400   5.985
46453SOL    HW241257  10.905  13.532   5.924
46454SOL     OW41258   2.390   0.711  11.235
46454SOL    HW141259   2.399   0.721  11.330
46454SOL    HW241260   2.475   0.735  11.200
46455SOL     OW41261  10.561  12.950   7.065
46455SOL    HW141262  10.479  12.993   7.040
46455SOL    HW241263  10.585  12.896   6.990
46456SOL     OW41264  10.117   6.609   9.703
46456SOL    HW141265  10.073   6.649   9.628
46456SOL    HW241266  10.048   6.599   9.768
46457SOL     OW41267   9.502   4.161   7.338
46457SOL    HW141268   9.498   4.186   7.246
46457SOL    HW241269   9.421   4.112   7.353
46458SOL     OW41270   8.203  11.383   8.000
46458SOL    HW141271   8.210  11.391   8.095
46458SOL    HW241272   8.162  11.465   7.972
46459SOL     OW41273   2.106  11.717   0.443
46459SOL    HW141274   2.150  11.785   0.494
46459SOL    HW241275   2.167  11.696   0.373
46460SOL     OW41276   1.063  11.312  14.365
46460SOL    HW141277   0.995  11.280  14.306
46460SOL    HW241278   1.098  11.390  14.322
46461SOL     OW41279  12.105   3.380   8.541
46461SOL    HW141280  12.089   3.414   8.453
46461SOL    HW241281  12.192   3.341   8.537
46462SOL     OW41282   2.122   8.265   6.752
46462SOL    HW141283   2.096   8.198   6.688
46462SOL    HW241284   2.217   8.274   6.740
46463SOL     OW41285  12.369   3.486   2.727
46463SOL    HW141286  12.462   3.466   2.731
46463SOL    HW241287  12.363   3.578   2.753
46464SOL     OW41288   4.639  11.016  13.351
46464SOL    HW141289   4.699  10.943  13.367
46464SOL    HW241290   4.611  11.043  13.439
46465SOL     OW41291   6.009  12.300   0.011
46465SOL    HW141292   5.943  12.331  14.816
46465SOL    HW241293   6.077  12.260  14.825
46466SOL     OW41294   6.262   3.058  10.857
46466SOL    HW141295   6.286   2.979  10.808
46466SOL    HW241296   6.344   3.091  10.891
46467SOL     OW41297   8.619  12.252   8.657
46467SOL    HW141298   8.528  12.227   8.672
46467SOL    HW241299   8.666  12.220   8.734
46468SOL     OW41300   0.135   7.099  10.441
46468SOL    HW141301   0.204   7.082  10.377
46468SOL    HW241302   0.148   7.033  10.509
46469SOL     OW41303  14.275   1.572  11.747
46469SOL    HW141304  14.356   1.619  11.767
46469SOL    HW241305  14.219   1.638  11.707
46470SOL     OW41306   4.643   3.384   0.812
46470SOL    HW141307   4.646   3.383   0.716
46470SOL    HW241308   4.718   3.437   0.838
46471SOL     OW41309  11.726   5.229   0.730
46471SOL    HW141310  11.696   5.138   0.736
46471SOL    HW241311  11.657   5.280   0.771
46472SOL     OW41312  13.348   1.742   8.580
46472SOL    HW141313  13.412   1.671   8.586
46472SOL    HW241314  13.389   1.815   8.626
46473SOL     OW41315  12.203   2.150  11.876
46473SOL    HW141316  12.222   2.114  11.789
46473SOL    HW241317  12.282   2.198  11.900
46474SOL     OW41318   3.191   4.223   5.018
46474SOL    HW141319   3.264   4.280   5.041
46474SOL    HW241320   3.232   4.138   5.000
46475SOL     OW41321   9.669   7.786   9.229
46475SOL    HW141322   9.721   7.710   9.254
46475SOL    HW241323   9.660   7.836   9.311
46476SOL     OW41324   3.408   8.502  14.702
46476SOL    HW141325   3.433   8.415  14.734
46476SOL    HW241326   3.480   8.528  14.644
46477SOL     OW41327   9.410   2.263  10.666
46477SOL    HW141328   9.475   2.320  10.706
46477SOL    HW241329   9.448   2.175  10.670
46478SOL     OW41330  10.454   5.440   4.122
46478SOL    HW141331  10.526   5.391   4.083
46478SOL    HW241332  10.489   5.474   4.204
46479SOL     OW41333   9.036   9.537   7.806
46479SOL    HW141334   9.098   9.505   7.871
46479SOL    HW241335   8.953   9.546   7.854
46480SOL     OW41336   3.495  13.300   6.708
46480SOL    HW141337   3.575  13.353   6.704
46480SOL    HW241338   3.440  13.345   6.771
46481SOL     OW41339   0.158   2.139   0.258
46481SOL    HW141340   0.104   2.196   0.202
46481SOL    HW241341   0.188   2.069   0.200
46482SOL     OW41342   0.441   2.457   5.455
46482SOL    HW141343   0.354   2.420   5.437
46482SOL    HW241344   0.461   2.430   5.544
46483SOL     OW41345   7.222  13.632   7.350
46483SOL    HW141346   7.266  13.679   7.422
46483SOL    HW241347   7.187  13.702   7.294
46484SOL     OW41348  13.324   6.634  13.976
46484SOL    HW141349  13.410   6.633  13.932
46484SOL    HW241350  13.267   6.682  13.917
46485SOL     OW41351   5.344   3.665   6.098
46485SOL    HW141352   5.259   3.708   6.089
46485SOL    HW241353   5.408   3.736   6.091
46486SOL     OW41354  11.391   6.668   7.428
46486SOL    HW141355  11.336   6.746   7.422
46486SOL    HW241356  11.477   6.700   7.453
46487SOL     OW41357  11.140   0.101   6.599
46487SOL    HW141358  11.163   0.016   6.562
46487SOL    HW241359  11.102   0.081   6.684
46488SOL     OW41360   5.399   4.795   7.603
46488SOL    HW141361   5.414   4.880   7.645
46488SOL    HW241362   5.452   4.733   7.653
46489SOL     OW41363   0.224  11.981  12.573
46489SOL    HW141364   0.145  11.973  12.520
46489SOL    HW241365   0.194  12.016  12.657
46490SOL     OW41366  11.757   1.324  11.030
46490SOL    HW141367  11.712   1.239  11.031
46490SOL    HW241368  11.850   1.302  11.026
46491SOL     OW41369  10.018   1.159   8.287
46491SOL    HW141370   9.993   1.244   8.326
46491SOL    HW241371  10.096   1.134   8.335
46492SOL     OW41372   6.353   9.843   9.445
46492SOL    HW141373   6.389   9.795   9.370
46492SOL    HW241374   6.390   9.931   9.438
46493SOL     OW41375   7.244  12.733   6.364
46493SOL    HW141376   7.151  12.727   6.386
46493SOL    HW241377   7.256  12.669   6.295
46494SOL     OW41378   9.254   4.445   5.216
46494SOL    HW141379   9.326   4.409   5.164
46494SOL    HW241380   9.262   4.540   5.205
46495SOL     OW41381   7.796   5.459   0.883
46495SOL    HW141382   7.719   5.505   0.919
46495SOL    HW241383   7.852   5.530   0.850
46496SOL     OW41384   6.757   0.002  12.707
46496SOL    HW141385   6.798   0.071  12.655
46496SOL    HW241386   6.805   0.000  12.789
46497SOL     OW41387  14.414   8.068   6.635
46497SOL    HW141388  14.357   7.991   6.635
46497SOL    HW241389  14.500   8.034   6.661
46498SOL     OW41390   2.596   4.851  14.656
46498SOL    HW141391   2.648   4.844  14.576
46498SOL    HW241392   2.505   4.844  14.625
46499SOL     OW41393  12.773  10.614  12.843
46499SOL    HW141394  12.867  10.631  12.843
46499SOL    HW241395  12.762  10.539  12.901
46500SOL     OW41396   6.628  10.332   3.011
46500SOL    HW141397   6.554  10.390   2.993
46500SOL    HW241398   6.683  10.338   2.933
46501SOL     OW41399   2.869   7.624  10.422
46501SOL    HW141400   2.895   7.681  10.350
46501SOL    HW241401   2.886   7.535  10.391
46502SOL     OW41402  12.047  10.161   9.050
46502SOL    HW141403  11.981  10.149   8.982
46502SOL    HW241404  11.998  10.166   9.131
46503SOL     OW41405   7.864  12.559   9.397
46503SOL    HW141406   7.912  12.477   9.386
46503SOL    HW241407   7.918  12.611   9.456
46504SOL     OW41408  10.899   3.995  13.295
46504SOL    HW141409  10.861   3.918  13.254
46504SOL    HW241410  10.978   3.963  13.338
46505SOL     OW41411  13.950   8.462   3.134
46505SOL    HW141412  14.030   8.463   3.081
46505SOL    HW241413  13.962   8.387   3.193
46506SOL     OW41414   7.471   5.796  11.940
46506SOL    HW141415   7.396   5.774  11.885
46506SOL    HW241416   7.436   5.851  12.009
46507SOL     OW41417   8.211  12.830   0.796
46507SOL    HW141418   8.271  12.905   0.791
46507SOL    HW241419   8.170  12.826   0.710
46508SOL     OW41420   5.691   4.735  14.858
46508SOL    HW141421   5.689   4.658   0.047
46508SOL    HW241422   5.677   4.700  14.770
46509SOL     OW41423  10.156   2.539   5.900
46509SOL    HW141424  10.100   2.508   5.971
46509SOL    HW241425  10.094   2.574   5.835
46510SOL     OW41426   5.424  10.862   3.580
46510SOL    HW141427   5.337  10.833   3.553
46510SOL    HW241428   5.434  10.830   3.669
46511SOL     OW41429   5.603   6.465   3.727
46511SOL    HW141430   5.591   6.544   3.781
46511SOL    HW241431   5.644   6.498   3.646
46512SOL     OW41432  13.054   4.379  12.630
46512SOL    HW141433  13.004   4.429  12.694
46512SOL    HW241434  13.051   4.431  12.551
46513SOL     OW41435   9.648  12.226   5.756
46513SOL    HW141436   9.740  12.240   5.778
46513SOL    HW241437   9.604  12.215   5.840
46514SOL     OW41438  12.168   7.081   4.609
46514SOL    HW141439  12.227   7.060   4.536
46514SOL    HW241440  12.225   7.121   4.675
46515SOL     OW41441  12.803   6.295   7.400
46515SOL    HW141442  12.856   6.303   7.321
46515SOL    HW241443  12.739   6.227   7.380
46516SOL     OW41444   1.654   1.169   3.494
46516SOL    HW141445   1.594   1.117   3.440
46516SOL    HW241446   1.738   1.163   3.449
46517SOL     OW41447  14.561   0.691   8.660
46517SOL    HW141448  14.602   0.606   8.647
46517SOL    HW241449  14.472   0.670   8.690
46518SOL     OW41450   4.600  13.744   4.004
46518SOL    HW141451   4.628  13.677   3.942
46518SOL    HW241452   4.675  13.757   4.062
46519SOL     OW41453   0.974  13.379   3.019
46519SOL    HW141454   0.883  13.386   3.047
46519SOL    HW241455   0.994  13.463   2.978
46520SOL     OW41456   4.173   0.487   8.335
46520SOL    HW141457   4.084   0.453   8.330
46520SOL    HW241458   4.229   0.410   8.318
46521SOL     OW41459   5.614   9.889  14.733
46521SOL    HW141460   5.657   9.819  14.683
46521SOL    HW241461   5.683   9.954  14.747
46522SOL     OW41462   0.235   1.766  13.644
46522SOL    HW141463   0.220   1.703  13.573
46522SOL    HW241464   0.230   1.852  13.601
46523SOL     OW41465   8.113   8.291   5.548
46523SOL    HW141466   8.182   8.263   5.487
46523SOL    HW241467   8.034   8.298   5.494
46524SOL     OW41468   1.461   9.750  14.483
46524SOL    HW141469   1.475   9.842  14.461
46524SOL    HW241470   1.540   9.705  14.451
46525SOL     OW41471   5.630  11.607   8.352
46525SOL    HW141472   5.702  11.613   8.289
46525SOL    HW241473   5.656  11.538   8.413
46526SOL     OW41474   5.842   1.674   4.605
46526SOL    HW141475   5.801   1.759   4.590
46526SOL    HW241476   5.924   1.695   4.650
46527SOL     OW41477   4.610  10.541  12.227
46527SOL    HW141478   4.679  10.583  12.278
46527SOL    HW241479   4.571  10.612  12.177
46528SOL     OW41480   6.388  13.492   6.527
46528SOL    HW141481   6.308  13.489   6.474
46528SOL    HW241482   6.456  13.457   6.470
46529SOL     OW41483   4.361  10.504   5.220
46529SOL    HW141484   4.454  10.525   5.214
46529SOL    HW241485   4.358  10.409   5.232
46530SOL     OW41486  14.750   7.767   7.139
46530SOL    HW141487  14.794   7.728   7.063
46530SOL    HW241488  14.820   7.815   7.184
46531SOL     OW41489   4.737   2.844   1.285
46531SOL    HW141490   4.743   2.784   1.359
46531SOL    HW241491   4.674   2.804   1.225
46532SOL     OW41492   9.126   9.158   8.080
46532SOL    HW141493   9.121   9.115   8.165
46532SOL    HW241494   9.182   9.234   8.095
46533SOL     OW41495   6.398  14.223   6.098
46533SOL    HW141496   6.413  14.131   6.117
46533SOL    HW241497   6.418  14.232   6.005
46534SOL     OW41498   5.890  10.779  11.639
46534SOL    HW141499   5.839  10.755  11.717
46534SOL    HW241500   5.825  10.819  11.581
46535SOL     OW41501   0.215   7.188  10.811
46535SOL    HW141502   0.277   7.125  10.849
46535SOL    HW241503   0.254   7.273  10.829
46536SOL     OW41504   2.153   2.874   5.537
46536SOL    HW141505   2.193   2.935   5.599
46536SOL    HW241506   2.228   2.832   5.494
46537SOL     OW41507  11.051  10.407   2.394
46537SOL    HW141508  11.029  10.419   2.302
46537SOL    HW241509  11.006  10.327   2.419
46538SOL     OW41510   7.725   7.260   8.866
46538SOL    HW141511   7.720   7.214   8.950
46538SOL    HW241512   7.641   7.305   8.858
46539SOL     OW41513   3.334   9.547   0.471
46539SOL    HW141514   3.424   9.560   0.500
46539SOL    HW241515   3.327   9.453   0.456
46540SOL     OW41516  10.365   7.086  14.621
46540SOL    HW141517  10.314   7.149  14.569
46540SOL    HW241518  10.455   7.119  14.617
46541SOL     OW41519   5.927   1.775   2.912
46541SOL    HW141520   5.926   1.831   2.834
46541SOL    HW241521   6.002   1.717   2.899
46542SOL     OW41522   8.301   5.812  11.093
46542SOL    HW141523   8.226   5.869  11.110
46542SOL    HW241524   8.365   5.869  11.051
46543SOL     OW41525  11.652   4.494   4.426
46543SOL    HW141526  11.687   4.571   4.472
46543SOL    HW241527  11.568   4.477   4.469
46544SOL     OW41528   2.262   3.520  13.834
46544SOL    HW141529   2.195   3.586  13.822
46544SOL    HW241530   2.318   3.555  13.904
46545SOL     OW41531   0.832   0.312   5.605
46545SOL    HW141532   0.861   0.358   5.684
46545SOL    HW241533   0.907   0.317   5.546
46546SOL     OW41534   8.742  11.902   3.411
46546SOL    HW141535   8.803  11.834   3.383
46546SOL    HW241536   8.738  11.963   3.337
46547SOL     OW41537  11.345  12.185  12.572
46547SOL    HW141538  11.252  12.166  12.566
46547SOL    HW241539  11.381  12.155  12.489
46548SOL     OW41540  14.521  11.912   1.291
46548SOL    HW141541  14.449  11.856   1.322
46548SOL    HW241542  14.537  11.883   1.202
46549SOL     OW41543   3.872   7.762  11.221
46549SOL    HW141544   3.815   7.829  11.259
46549SOL    HW241545   3.864   7.774  11.127
46550SOL     OW41546   1.187   9.054   1.732
46550SOL    HW141547   1.239   9.037   1.653
46550SOL    HW241548   1.123   8.983   1.735
46551SOL     OW41549   0.310   1.820  13.911
46551SOL    HW141550   0.403   1.809  13.894
46551SOL    HW241551   0.269   1.816  13.824
46552SOL     OW41552   4.921   0.512  13.736
46552SOL    HW141553   4.867   0.437  13.760
46552SOL    HW241554   5.007   0.474  13.719
46553SOL     OW41555   5.466   9.349   7.806
46553SOL    HW141556   5.411   9.374   7.880
46553SOL    HW241557   5.493   9.259   7.825
46554SOL     OW41558  12.214   4.370   0.431
46554SOL    HW141559  12.188   4.297   0.376
46554SOL    HW241560  12.297   4.342   0.471
46555SOL     OW41561   8.090   3.995  13.639
46555SOL    HW141562   8.102   4.002  13.544
46555SOL    HW241563   8.022   3.928  13.649
46556SOL     OW41564  13.301   2.576   4.197
46556SOL    HW141565  13.293   2.481   4.208
46556SOL    HW241566  13.390   2.588   4.164
46557SOL     OW41567   0.647   8.999   4.564
46557SOL    HW141568   0.573   9.056   4.580
46557SOL    HW241569   0.622   8.915   4.601
46558SOL     OW41570   8.759   7.337  10.813
46558SOL    HW141571   8.762   7.244  10.792
46558SOL    HW241572   8.732   7.379  10.731
46559SOL     OW41573   3.611  14.542  13.377
46559SOL    HW141574   3.598  14.465  13.433
46559SOL    HW241575   3.671  14.511  13.309
46560SOL     OW41576   6.432  13.830  11.299
46560SOL    HW141577   6.340  13.819  11.275
46560SOL    HW241578   6.478  13.841  11.215
46561SOL     OW41579   7.352   8.942  10.893
46561SOL    HW141580   7.327   8.975  10.979
46561SOL    HW241581   7.444   8.966  10.884
46562SOL     OW41582   7.666   2.069   5.703
46562SOL    HW141583   7.623   2.099   5.623
46562SOL    HW241584   7.696   1.981   5.683
46563SOL     OW41585   2.562  10.243   2.344
46563SOL    HW141586   2.633  10.197   2.389
46563SOL    HW241587   2.606  10.298   2.279
46564SOL     OW41588   6.638   3.888   9.004
46564SOL    HW141589   6.617   3.925   8.918
46564SOL    HW241590   6.599   3.948   9.067
46565SOL     OW41591   5.039  10.279   6.298
46565SOL    HW141592   4.954  10.256   6.336
46565SOL    HW241593   5.072  10.197   6.262
46566SOL     OW41594  11.296   4.799   2.220
46566SOL    HW141595  11.264   4.719   2.179
46566SOL    HW241596  11.392   4.792   2.214
46567SOL     OW41597   5.357   8.947  13.860
46567SOL    HW141598   5.364   9.001  13.938
46567SOL    HW241599   5.264   8.952  13.835
46568SOL     OW41600   1.658   9.170  11.027
46568SOL    HW141601   1.726   9.236  11.017
46568SOL    HW241602   1.698   9.102  11.081
46569SOL     OW41603   6.788   4.008   9.246
46569SOL    HW141604   6.877   3.991   9.214
46569SOL    HW241605   6.785   4.103   9.259
46570SOL     OW41606   9.044  14.867   9.429
46570SOL    HW141607   9.095  14.788   9.445
46570SOL    HW241608   9.098   0.052   9.371
46571SOL     OW41609   1.893   0.912   6.620
46571SOL    HW141610   1.806   0.948   6.635
46571SOL    HW241611   1.882   0.851   6.547
46572SOL     OW41612  11.490   4.483  13.498
46572SOL    HW141613  11.408   4.518  13.463
46572SOL    HW241614  11.463   4.410  13.554
46573SOL     OW41615   8.513   4.609  11.805
46573SOL    HW141616   8.583   4.629  11.742
46573SOL    HW241617   8.465   4.691  11.814
46574SOL     OW41618   4.115   3.968   2.914
46574SOL    HW141619   4.122   4.045   2.858
46574SOL    HW241620   4.145   3.895   2.859
46575SOL     OW41621  11.143   7.211   7.354
46575SOL    HW141622  11.169   7.124   7.323
46575SOL    HW241623  11.119   7.198   7.446
46576SOL     OW41624   0.529   9.658   2.610
46576SOL    HW141625   0.608   9.677   2.559
46576SOL    HW241626   0.528   9.724   2.678
46577SOL     OW41627  11.180   1.607   3.363
46577SOL    HW141628  11.113   1.659   3.407
46577SOL    HW241629  11.136   1.526   3.339
46578SOL     OW41630   1.505  13.691   5.311
46578SOL    HW141631   1.432  13.666   5.256
46578SOL    HW241632   1.508  13.625   5.380
46579SOL     OW41633   9.219   0.362   5.980
46579SOL    HW141634   9.192   0.271   5.985
46579SOL    HW241635   9.209   0.385   5.888
46580SOL     OW41636  14.689   6.879  12.418
46580SOL    HW141637  14.599   6.857  12.393
46580SOL    HW241638  14.739   6.871  12.337
46581SOL     OW41639   1.354   8.094   3.109
46581SOL    HW141640   1.350   8.166   3.173
46581SOL    HW241641   1.431   8.113   3.056
46582SOL     OW41642   5.023   5.402   0.086
46582SOL    HW141643   5.036   5.344   0.012
46582SOL    HW241644   4.943   5.371   0.129
46583SOL     OW41645   6.895  12.332   2.270
46583SOL    HW141646   6.888  12.271   2.197
46583SOL    HW241647   6.810  12.330   2.313
46584SOL     OW41648   3.816  12.698   2.056
46584SOL    HW141649   3.785  12.677   1.968
46584SOL    HW241650   3.736  12.711   2.107
46585SOL     OW41651   0.538  14.842   2.947
46585SOL    HW141652   0.592   0.041   2.905
46585SOL    HW241653   0.480   0.023   3.004
46586SOL     OW41654   2.218   1.020  10.570
46586SOL    HW141655   2.224   0.988  10.660
46586SOL    HW241656   2.233   0.943  10.516
46587SOL     OW41657   4.881   2.822  11.095
46587SOL    HW141658   4.818   2.756  11.122
46587SOL    HW241659   4.945   2.825  11.167
46588SOL     OW41660   0.266  14.361   6.052
46588SOL    HW141661   0.230  14.351   5.963
46588SOL    HW241662   0.208  14.308   6.106
46589SOL     OW41663   7.861  12.835   7.621
46589SOL    HW141664   7.944  12.789   7.614
46589SOL    HW241665   7.809  12.804   7.547
46590SOL     OW41666  12.578  11.822  12.347
46590SOL    HW141667  12.594  11.760  12.418
46590SOL    HW241668  12.642  11.798  12.279
46591SOL     OW41669  13.001   4.013  13.204
46591SOL    HW141670  12.948   4.076  13.154
46591SOL    HW241671  13.090   4.028  13.173
46592SOL     OW41672   0.243  11.083   0.092
46592SOL    HW141673   0.167  11.025   0.098
46592SOL    HW241674   0.306  11.036   0.038
46593SOL     OW41675   5.804   9.142   0.217
46593SOL    HW141676   5.782   9.074   0.281
46593SOL    HW241677   5.731   9.204   0.223
46594SOL     OW41678   2.336  12.119  14.523
46594SOL    HW141679   2.312  12.200  14.477
46594SOL    HW241680   2.384  12.149  14.600
46595SOL     OW41681   1.405  11.881   9.790
46595SOL    HW141682   1.480  11.920   9.834
46595SOL    HW241683   1.426  11.788   9.785
46596SOL     OW41684   8.167   6.577   8.091
46596SOL    HW141685   8.253   6.617   8.098
46596SOL    HW241686   8.106   6.651   8.084
46597SOL     OW41687   2.144  12.880  14.122
46597SOL    HW141688   2.123  12.971  14.098
46597SOL    HW241689   2.218  12.858  14.064
46598SOL     OW41690   4.114  12.300  12.428
46598SOL    HW141691   4.045  12.332  12.487
46598SOL    HW241692   4.187  12.359  12.444
46599SOL     OW41693  10.618   9.790   8.478
46599SOL    HW141694  10.532   9.764   8.512
46599SOL    HW241695  10.601   9.817   8.388
46600SOL     OW41696  13.656   0.213   2.223
46600SOL    HW141697  13.629   0.121   2.222
46600SOL    HW241698  13.657   0.236   2.316
46601SOL     OW41699   1.047   5.013  13.273
46601SOL    HW141700   1.052   4.922  13.301
46601SOL    HW241701   1.037   5.063  13.354
46602SOL     OW41702   3.560  14.749   9.864
46602SOL    HW141703   3.604  14.667   9.841
46602SOL    HW241704   3.534  14.787   9.780
46603SOL     OW41705  10.461   4.670   6.900
46603SOL    HW141706  10.434   4.754   6.862
46603SOL    HW241707  10.475   4.690   6.993
46604SOL     OW41708  14.538   2.362  12.634
46604SOL    HW141709  14.463   2.391  12.581
46604SOL    HW241710  14.529   2.410  12.716
46605SOL     OW41711   3.015  12.788   4.993
46605SOL    HW141712   3.009  12.853   5.063
46605SOL    HW241713   2.984  12.834   4.915
46606SOL     OW41714  12.723   9.336   2.190
46606SOL    HW141715  12.700   9.313   2.099
46606SOL    HW241716  12.647   9.384   2.222
46607SOL     OW41717  10.890   3.923   7.547
46607SOL    HW141718  10.848   3.914   7.632
46607SOL    HW241719  10.942   4.004   7.554
46608SOL     OW41720  14.370  14.370   9.067
46608SOL    HW141721  14.459  14.362   9.104
46608SOL    HW241722  14.315  14.390   9.143
46609SOL     OW41723   5.697   1.227  13.714
46609SOL    HW141724   5.725   1.267  13.632
46609SOL    HW241725   5.601   1.235  13.713
46610SOL     OW41726   3.986   6.650  12.970
46610SOL    HW141727   4.014   6.730  13.015
46610SOL    HW241728   3.898   6.671  12.937
46611SOL     OW41729   8.687   4.515   9.270
46611SOL    HW141730   8.618   4.486   9.330
46611SOL    HW241731   8.653   4.496   9.183
46612SOL     OW41732   5.282  11.645   1.832
46612SOL    HW141733   5.325  11.722   1.796
46612SOL    HW241734   5.194  11.647   1.794
46613SOL     OW41735   5.820  10.754  12.943
46613SOL    HW141736   5.818  10.706  13.025
46613SOL    HW241737   5.809  10.846  12.968
46614SOL     OW41738   3.272   5.024   1.715
46614SOL    HW141739   3.197   5.033   1.656
46614SOL    HW241740   3.299   4.932   1.705
46615SOL     OW41741   7.163   6.773  11.405
46615SOL    HW141742   7.108   6.710  11.452
46615SOL    HW241743   7.149   6.856  11.451
46616SOL     OW41744   4.964   0.865   7.586
46616SOL    HW141745   4.989   0.820   7.667
46616SOL    HW241746   4.879   0.905   7.606
46617SOL     OW41747   1.857   3.844  12.673
46617SOL    HW141748   1.907   3.810  12.748
46617SOL    HW241749   1.896   3.800  12.597
46618SOL     OW41750   9.251  10.973   4.949
46618SOL    HW141751   9.267  10.879   4.955
46618SOL    HW241752   9.216  10.997   5.035
46619SOL     OW41753   5.663   6.108   4.336
46619SOL    HW141754   5.585   6.139   4.289
46619SOL    HW241755   5.668   6.015   4.315
46620SOL     OW41756  14.389  10.480   5.158
46620SOL    HW141757  14.347  10.490   5.072
46620SOL    HW241758  14.341  10.539   5.216
46621SOL     OW41759  10.291  13.951   3.089
46621SOL    HW141760  10.361  14.015   3.072
46621SOL    HW241761  10.226  13.968   3.021
46622SOL     OW41762  13.307   0.477  10.102
46622SOL    HW141763  13.327   0.384  10.111
46622SOL    HW241764  13.311   0.511  10.192
46623SOL     OW41765   4.229   7.321   3.252
46623SOL    HW141766   4.189   7.373   3.322
46623SOL    HW241767   4.157   7.267   3.218
46624SOL     OW41768  11.588   2.794   6.508
46624SOL    HW141769  11.536   2.720   6.478
46624SOL    HW241770  11.664   2.795   6.449
46625SOL     OW41771   4.901   4.395  10.190
46625SOL    HW141772   4.815   4.388  10.231
46625SOL    HW241773   4.899   4.329  10.120
46626SOL     OW41774   4.552  12.041  14.582
46626SOL    HW141775   4.528  12.005  14.667
46626SOL    HW241776   4.645  12.020  14.572
46627SOL     OW41777   5.692   7.378  11.322
46627SOL    HW141778   5.739   7.459  11.342
46627SOL    HW241779   5.669   7.386  11.229
46628SOL     OW41780   4.463   7.385  14.107
46628SOL    HW141781   4.420   7.355  14.187
46628SOL    HW241782   4.557   7.377  14.125
46629SOL     OW41783  10.243  11.096   5.652
46629SOL    HW141784  10.213  11.062   5.568
46629SOL    HW241785  10.336  11.076   5.654
46630SOL     OW41786   9.443   4.057  13.411
46630SOL    HW141787   9.495   4.082  13.488
46630SOL    HW241788   9.361   4.106  13.420
46631SOL     OW41789   2.382  10.579   7.478
46631SOL    HW141790   2.314  10.516   7.455
46631SOL    HW241791   2.386  10.575   7.574
46632SOL     OW41792   9.542   2.418   6.064
46632SOL    HW141793   9.519   2.486   6.128
46632SOL    HW241794   9.638   2.413   6.068
46633SOL     OW41795  11.248  11.368   1.166
46633SOL    HW141796  11.343  11.358   1.175
46633SOL    HW241797  11.222  11.296   1.107
46634SOL     OW41798   3.299   2.513   7.379
46634SOL    HW141799   3.341   2.599   7.367
46634SOL    HW241800   3.219   2.519   7.327
46635SOL     OW41801  13.226  10.017   1.871
46635SOL    HW141802  13.266  10.104   1.862
46635SOL    HW241803  13.291   9.967   1.920
46636SOL     OW41804  12.143  13.042  12.717
46636SOL    HW141805  12.088  13.058  12.640
46636SOL    HW241806  12.217  13.101  12.707
46637SOL     OW41807  11.090   5.582   1.747
46637SOL    HW141808  11.135   5.632   1.679
46637SOL    HW241809  11.033   5.523   1.698
46638SOL     OW41810   4.517  11.298   9.272
46638SOL    HW141811   4.491  11.231   9.208
46638SOL    HW241812   4.587  11.258   9.322
46639SOL     OW41813   8.530   6.001  14.022
46639SOL    HW141814   8.501   5.982  14.111
46639SOL    HW241815   8.473   5.947  13.966
46640SOL     OW41816   3.763  12.817   4.940
46640SOL    HW141817   3.673  12.818   4.974
46640SOL    HW241818   3.803  12.740   4.980
46641SOL     OW41819  13.944   3.774   3.049
46641SOL    HW141820  14.036   3.772   3.077
46641SOL    HW241821  13.946   3.748   2.957
46642SOL     OW41822  10.877   8.513   3.410
46642SOL    HW141823  10.903   8.602   3.386
46642SOL    HW241824  10.812   8.524   3.480
46643SOL     OW41825   8.057   1.821   4.878
46643SOL    HW141826   8.095   1.905   4.902
46643SOL    HW241827   8.043   1.826   4.783
46644SOL     OW41828   5.010  11.651   1.720
46644SOL    HW141829   4.936  11.593   1.738
46644SOL    HW241830   4.986  11.734   1.761
46645SOL     OW41831  12.673   4.031   2.387
46645SOL    HW141832  12.654   4.070   2.301
46645SOL    HW241833  12.612   4.074   2.447
46646SOL     OW41834   0.987   4.906   8.879
46646SOL    HW141835   0.969   4.813   8.887
46646SOL    HW241836   1.055   4.912   8.811
46647SOL     OW41837   5.844   1.891  12.881
46647SOL    HW141838   5.776   1.957  12.897
46647SOL    HW241839   5.926   1.939  12.889
46648SOL     OW41840   1.007  10.152  11.338
46648SOL    HW141841   1.009  10.066  11.379
46648SOL    HW241842   1.094  10.163  11.300
46649SOL     OW41843   1.198   0.413   6.102
46649SOL    HW141844   1.113   0.443   6.134
46649SOL    HW241845   1.220   0.472   6.031
46650SOL     OW41846   1.577  10.903   2.314
46650SOL    HW141847   1.506  10.915   2.251
46650SOL    HW241848   1.645  10.963   2.284
46651SOL     OW41849  14.144  10.155   1.390
46651SOL    HW141850  14.096  10.230   1.425
46651SOL    HW241851  14.230  10.191   1.366
46652SOL     OW41852   3.305  10.079   9.142
46652SOL    HW141853   3.255  10.156   9.114
46652SOL    HW241854   3.395  10.109   9.147
46653SOL     OW41855   4.037   2.490  13.824
46653SOL    HW141856   4.091   2.451  13.892
46653SOL    HW241857   4.051   2.585  13.834
46654SOL     OW41858   6.214   0.710  14.381
46654SOL    HW141859   6.288   0.660  14.416
46654SOL    HW241860   6.226   0.708  14.287
46655SOL     OW41861   5.966   1.341   6.692
46655SOL    HW141862   5.882   1.296   6.691
46655SOL    HW241863   6.016   1.298   6.762
46656SOL     OW41864   2.148  11.114   3.638
46656SOL    HW141865   2.193  11.145   3.717
46656SOL    HW241866   2.077  11.177   3.625
46657SOL     OW41867  13.732   7.665   0.214
46657SOL    HW141868  13.768   7.613   0.286
46657SOL    HW241869  13.710   7.601   0.146
46658SOL     OW41870   0.974   8.990   1.451
46658SOL    HW141871   0.935   9.025   1.371
46658SOL    HW241872   0.925   9.032   1.522
46659SOL     OW41873   8.071   5.452   5.786
46659SOL    HW141874   7.997   5.442   5.726
46659SOL    HW241875   8.042   5.519   5.848
46660SOL     OW41876   4.664   2.889  14.724
46660SOL    HW141877   4.649   2.929  14.809
46660SOL    HW241878   4.728   2.946  14.681
46661SOL     OW41879   1.047   3.886  12.305
46661SOL    HW141880   1.075   3.875  12.214
46661SOL    HW241881   0.976   3.823  12.317
46662SOL     OW41882   3.931  14.361   5.043
46662SOL    HW141883   4.018  14.323   5.043
46662SOL    HW241884   3.888  14.322   4.966
46663SOL     OW41885   9.606  12.143  12.821
46663SOL    HW141886   9.599  12.096  12.904
46663SOL    HW241887   9.670  12.212  12.838
46664SOL     OW41888   6.682   3.919   9.741
46664SOL    HW141889   6.671   3.943   9.649
46664SOL    HW241890   6.669   3.824   9.743
46665SOL     OW41891   4.572  13.118   9.389
46665SOL    HW141892   4.621  13.045   9.350
46665SOL    HW241893   4.567  13.097   9.482
46666SOL     OW41894  10.965   6.414  12.493
46666SOL    HW141895  11.000   6.423  12.582
46666SOL    HW241896  10.973   6.320  12.475
46667SOL     OW41897   0.560  12.171   5.374
46667SOL    HW141898   0.569  12.191   5.467
46667SOL    HW241899   0.600  12.085   5.364
46668SOL     OW41900   7.704  10.067   9.724
46668SOL    HW141901   7.740  10.041   9.809
46668SOL    HW241902   7.761  10.139   9.695
46669SOL     OW41903   7.075   5.003  14.098
46669SOL    HW141904   7.104   4.917  14.128
46669SOL    HW241905   7.097   5.004  14.005
46670SOL     OW41906  13.450   2.965  11.051
46670SOL    HW141907  13.518   2.967  11.118
46670SOL    HW241908  13.475   3.034  10.990
46671SOL     OW41909   8.270   8.129   5.092
46671SOL    HW141910   8.306   8.174   5.015
46671SOL    HW241911   8.240   8.045   5.059
46672SOL     OW41912   5.238   6.622  14.426
46672SOL    HW141913   5.153   6.665  14.430
46672SOL    HW241914   5.222   6.541  14.378
46673SOL     OW41915  12.089   1.676   5.217
46673SOL    HW141916  12.145   1.752   5.232
46673SOL    HW241917  12.090   1.629   5.300
46674SOL     OW41918   5.084   8.667  13.641
46674SOL    HW141919   5.011   8.612  13.670
46674SOL    HW241920   5.100   8.640  13.550
46675SOL     OW41921  13.431   1.579   6.831
46675SOL    HW141922  13.451   1.572   6.924
46675SOL    HW241923  13.416   1.489   6.802
46676SOL     OW41924   5.049   4.926   1.834
46676SOL    HW141925   5.024   5.017   1.848
46676SOL    HW241926   5.143   4.929   1.819
46677SOL     OW41927   7.968  14.455   1.716
46677SOL    HW141928   7.996  14.538   1.678
46677SOL    HW241929   7.891  14.430   1.664
46678SOL     OW41930   6.769  13.226  12.952
46678SOL    HW141931   6.835  13.217  13.021
46678SOL    HW241932   6.691  13.184  12.988
46679SOL     OW41933  11.620   7.876   3.266
46679SOL    HW141934  11.687   7.881   3.335
46679SOL    HW241935  11.627   7.960   3.221
46680SOL     OW41936   0.732   9.420   1.517
46680SOL    HW141937   0.645   9.388   1.539
46680SOL    HW241938   0.742   9.501   1.567
46681SOL     OW41939   7.932   2.573   8.049
46681SOL    HW141940   7.892   2.644   8.099
46681SOL    HW241941   7.884   2.494   8.078
46682SOL     OW41942   5.949   2.917  14.441
46682SOL    HW141943   6.009   2.953  14.507
46682SOL    HW241944   5.876   2.882  14.492
46683SOL     OW41945  13.854  12.925   0.363
46683SOL    HW141946  13.780  12.888   0.314
46683SOL    HW241947  13.926  12.864   0.347
46684SOL     OW41948   6.078   3.988   7.832
46684SOL    HW141949   6.025   4.009   7.908
46684SOL    HW241950   6.098   3.895   7.841
46685SOL     OW41951   4.165   8.459   3.448
46685SOL    HW141952   4.220   8.491   3.377
46685SOL    HW241953   4.207   8.378   3.477
46686SOL     OW41954   4.160   5.743   4.871
46686SOL    HW141955   4.131   5.668   4.819
46686SOL    HW241956   4.107   5.739   4.950
46687SOL     OW41957   1.932   0.393   4.307
46687SOL    HW141958   1.856   0.364   4.356
46687SOL    HW241959   2.006   0.380   4.366
46688SOL     OW41960   2.070  14.248   7.561
46688SOL    HW141961   2.115  14.170   7.594
46688SOL    HW241962   2.126  14.281   7.491
46689SOL     OW41963   6.626   7.295   4.137
46689SOL    HW141964   6.563   7.224   4.149
46689SOL    HW241965   6.617   7.320   4.045
46690SOL     OW41966   4.092   2.538   7.256
46690SOL    HW141967   4.133   2.455   7.282
46690SOL    HW241968   4.165   2.595   7.235
46691SOL     OW41969   5.153   0.407  12.488
46691SOL    HW141970   5.118   0.341  12.548
46691SOL    HW241971   5.101   0.485  12.504
46692SOL     OW41972   1.615  11.350   8.192
46692SOL    HW141973   1.643  11.355   8.283
46692SOL    HW241974   1.572  11.434   8.176
46693SOL     OW41975   5.321   4.617  14.729
46693SOL    HW141976   5.272   4.587  14.653
46693SOL    HW241977   5.355   4.703  14.704
46694SOL     OW41978   7.152   9.502   9.540
46694SOL    HW141979   7.115   9.454   9.614
46694SOL    HW241980   7.227   9.450   9.513
46695SOL     OW41981  11.533   2.311   1.287
46695SOL    HW141982  11.445   2.285   1.313
46695SOL    HW241983  11.578   2.228   1.269
46696SOL     OW41984  12.670  11.618   3.902
46696SOL    HW141985  12.704  11.706   3.886
46696SOL    HW241986  12.577  11.625   3.883
46697SOL     OW41987  11.379   6.434   1.057
46697SOL    HW141988  11.311   6.371   1.078
46697SOL    HW241989  11.454   6.408   1.111
46698SOL     OW41990  12.315   9.895   2.697
46698SOL    HW141991  12.366   9.819   2.726
46698SOL    HW241992  12.228   9.880   2.734
46699SOL     OW41993   2.242  10.090   5.976
46699SOL    HW141994   2.324  10.065   5.933
46699SOL    HW241995   2.207  10.008   6.012
46700SOL     OW41996   5.889  14.443   3.757
46700SOL    HW141997   5.823  14.513   3.760
46700SOL    HW241998   5.944  14.459   3.833
46701SOL     OW41999   2.531   2.146  10.150
46701SOL    HW142000   2.443   2.171  10.120
46701SOL    HW242001   2.520   2.131  10.244
46702SOL     OW42002  10.038  13.946   1.085
46702SOL    HW142003  10.029  14.013   1.017
46702SOL    HW242004  10.063  13.995   1.163
46703SOL     OW42005   3.833   6.271  10.502
46703SOL    HW142006   3.864   6.218  10.429
46703SOL    HW242007   3.738   6.266  10.497
46704SOL     OW42008  13.758   8.981   2.542
46704SOL    HW142009  13.674   8.991   2.588
46704SOL    HW242010  13.769   9.062   2.493
46705SOL     OW42011   8.860  13.634   9.473
46705SOL    HW142012   8.879  13.667   9.561
46705SOL    HW242013   8.795  13.695   9.438
46706SOL     OW42014   0.499   1.454   6.210
46706SOL    HW142015   0.428   1.432   6.150
46706SOL    HW242016   0.455   1.478   6.292
46707SOL     OW42017  13.102   5.325   0.330
46707SOL    HW142018  13.177   5.291   0.282
46707SOL    HW242019  13.132   5.407   0.368
46708SOL     OW42020  10.029   6.844   3.805
46708SOL    HW142021  10.013   6.761   3.759
46708SOL    HW242022   9.979   6.835   3.887
46709SOL     OW42023   7.915  13.382   1.090
46709SOL    HW142024   7.989  13.323   1.093
46709SOL    HW242025   7.954  13.470   1.089
46710SOL     OW42026  12.203   9.316  14.548
46710SOL    HW142027  12.199   9.411  14.538
46710SOL    HW242028  12.266   9.301  14.618
46711SOL     OW42029   3.750  12.763   0.945
46711SOL    HW142030   3.717  12.724   0.864
46711SOL    HW242031   3.782  12.849   0.918
46712SOL     OW42032   4.412  11.176   1.645
46712SOL    HW142033   4.460  11.093   1.636
46712SOL    HW242034   4.479  11.243   1.635
46713SOL     OW42035   8.192   7.736  12.012
46713SOL    HW142036   8.114   7.765  12.060
46713SOL    HW242037   8.261   7.734  12.078
46714SOL     OW42038   5.609   0.392   0.681
46714SOL    HW142039   5.627   0.298   0.693
46714SOL    HW242040   5.650   0.413   0.597
46715SOL     OW42041   0.591   3.641   2.119
46715SOL    HW142042   0.602   3.567   2.178
46715SOL    HW242043   0.611   3.605   2.032
46716SOL     OW42044   1.669   5.075  11.921
46716SOL    HW142045   1.643   4.983  11.921
46716SOL    HW242046   1.758   5.075  11.955
46717SOL     OW42047   5.370   5.432   7.239
46717SOL    HW142048   5.303   5.414   7.173
46717SOL    HW242049   5.341   5.515   7.279
46718SOL     OW42050  13.543  10.504   7.004
46718SOL    HW142051  13.454  10.471   6.999
46718SOL    HW242052  13.563  10.504   7.098
46719SOL     OW42053   3.447  14.825  14.648
46719SOL    HW142054   3.483   0.024  14.590
46719SOL    HW242055   3.373  14.867  14.690
46720SOL     OW42056   5.224  12.530   5.451
46720SOL    HW142057   5.239  12.481   5.370
46720SOL    HW242058   5.217  12.463   5.519
46721SOL     OW42059  12.199   9.548   0.495
46721SOL    HW142060  12.279   9.547   0.443
46721SOL    HW242061  12.227   9.523   0.583
46722SOL     OW42062  14.430  14.333   6.682
46722SOL    HW142063  14.379  14.304   6.758
46722SOL    HW242064  14.420  14.262   6.618
46723SOL     OW42065   0.076  14.303   7.593
46723SOL    HW142066   0.147  14.366   7.603
46723SOL    HW242067   0.017  14.322   7.666
46724SOL     OW42068   9.763   4.106   9.340
46724SOL    HW142069   9.780   4.189   9.384
46724SOL    HW242070   9.764   4.041   9.410
46725SOL     OW42071   3.825   6.811   2.259
46725SOL    HW142072   3.773   6.838   2.183
46725SOL    HW242073   3.775   6.842   2.335
46726SOL     OW42074   0.561   9.593   8.362
46726SOL    HW142075   0.650   9.598   8.328
46726SOL    HW242076   0.546   9.499   8.376
46727SOL     OW42077   1.122   7.184  12.096
46727SOL    HW142078   1.168   7.109  12.060
46727SOL    HW242079   1.192   7.239  12.133
46728SOL     OW42080   1.987  10.088   4.021
46728SOL    HW142081   2.020  10.138   3.946
46728SOL    HW242082   1.969  10.001   3.986
46729SOL     OW42083   6.536   8.039   3.781
46729SOL    HW142084   6.580   7.968   3.733
46729SOL    HW242085   6.458   7.997   3.818
46730SOL     OW42086   1.705  11.014   1.348
46730SOL    HW142087   1.649  11.029   1.425
46730SOL    HW242088   1.773  10.955   1.379
46731SOL     OW42089   7.128  12.902   7.466
46731SOL    HW142090   7.076  12.829   7.501
46731SOL    HW242091   7.069  12.948   7.407
46732SOL     OW42092   2.486   3.911   9.777
46732SOL    HW142093   2.534   3.992   9.794
46732SOL    HW242094   2.553   3.847   9.755
46733SOL     OW42095   7.113  12.627  10.619
46733SOL    HW142096   7.139  12.647  10.529
46733SOL    HW242097   7.123  12.711  10.665
46734SOL     OW42098  12.592   5.318   9.610
46734SOL    HW142099  12.667   5.333   9.553
46734SOL    HW242100  12.597   5.225   9.632
46735SOL     OW42101   5.622   8.587  10.958
46735SOL    HW142102   5.638   8.535  10.879
46735SOL    HW242103   5.586   8.669  10.926
46736SOL     OW42104   5.940   0.282  11.328
46736SOL    HW142105   5.891   0.246  11.255
46736SOL    HW242106   5.933   0.217  11.398
46737SOL     OW42107  14.047   6.197  14.594
46737SOL    HW142108  14.038   6.119  14.650
46737SOL    HW242109  14.141   6.211  14.589
46738SOL     OW42110  12.282   2.887   0.029
46738SOL    HW142111  12.232   2.831   0.088
46738SOL    HW242112  12.369   2.847   0.027
46739SOL     OW42113  12.236   4.954   5.755
46739SOL    HW142114  12.233   4.928   5.847
46739SOL    HW242115  12.202   5.043   5.754
46740SOL     OW42116   6.615   6.179   2.890
46740SOL    HW142117   6.622   6.095   2.843
46740SOL    HW242118   6.605   6.155   2.982
46741SOL     OW42119  10.926   6.213   4.305
46741SOL    HW142120  10.868   6.272   4.353
46741SOL    HW242121  11.014   6.248   4.319
46742SOL     OW42122   6.506   5.619  13.096
46742SOL    HW142123   6.575   5.552  13.092
46742SOL    HW242124   6.441   5.590  13.032
46743SOL     OW42125  14.164  14.108   9.963
46743SOL    HW142126  14.093  14.163   9.927
46743SOL    HW242127  14.130  14.077  10.047
46744SOL     OW42128   1.987  10.712  14.393
46744SOL    HW142129   2.048  10.655  14.346
46744SOL    HW242130   1.912  10.656  14.413
46745SOL     OW42131  11.993   5.533   6.921
46745SOL    HW142132  12.076   5.558   6.882
46745SOL    HW242133  12.016   5.467   6.986
46746SOL     OW42134   4.311   1.724  11.321
46746SOL    HW142135   4.393   1.730  11.273
46746SOL    HW242136   4.245   1.759  11.261
46747SOL     OW42137   8.468   3.895   7.923
46747SOL    HW142138   8.442   3.828   7.986
46747SOL    HW242139   8.562   3.882   7.911
46748SOL     OW42140   3.270  10.799  10.245
46748SOL    HW142141   3.190  10.783  10.195
46748SOL    HW242142   3.242  10.855  10.318
46749SOL     OW42143  10.223   0.715   9.753
46749SOL    HW142144  10.153   0.696   9.691
46749SOL    HW242145  10.281   0.776   9.706
46750SOL     OW42146  13.964  12.565   7.382
46750SOL    HW142147  14.055  12.555   7.411
46750SOL    HW242148  13.968  12.632   7.313
46751SOL     OW42149   2.103  10.834   5.188
46751SOL    HW142150   2.162  10.869   5.121
46751SOL    HW242151   2.018  10.871   5.168
46752SOL     OW42152  11.826  10.113   1.509
46752SOL    HW142153  11.913  10.085   1.479
46752SOL    HW242154  11.843  10.169   1.584
46753SOL     OW42155   5.881   9.942   0.333
46753SOL    HW142156   5.931   9.896   0.266
46753SOL    HW242157   5.896   9.890   0.413
46754SOL     OW42158   2.690   9.248   7.559
46754SOL    HW142159   2.624   9.280   7.621
46754SOL    HW242160   2.665   9.158   7.541
46755SOL     OW42161   0.958   4.086   4.511
46755SOL    HW142162   0.871   4.120   4.493
46755SOL    HW242163   0.990   4.138   4.584
46756SOL     OW42164   4.424   1.507   2.960
46756SOL    HW142165   4.473   1.530   3.039
46756SOL    HW242166   4.482   1.449   2.912
46757SOL     OW42167   3.769   7.803   1.710
46757SOL    HW142168   3.747   7.710   1.709
46757SOL    HW242169   3.736   7.836   1.626
46758SOL     OW42170   7.503   5.814   0.029
46758SOL    HW142171   7.438   5.883   0.045
46758SOL    HW242172   7.577   5.859  14.859
46759SOL     OW42173   6.340   9.969  12.747
46759SOL    HW142174   6.326   9.897  12.809
46759SOL    HW242175   6.359   9.926  12.664
46760SOL     OW42176   1.559  10.518  11.126
46760SOL    HW142177   1.563  10.441  11.069
46760SOL    HW242178   1.514  10.584  11.074
46761SOL     OW42179  10.420   0.257   2.326
46761SOL    HW142180  10.445   0.246   2.418
46761SOL    HW242181  10.439   0.172   2.286
46762SOL     OW42182  11.323   4.264   9.458
46762SOL    HW142183  11.232   4.254   9.429
46762SOL    HW242184  11.349   4.350   9.426
46763SOL     OW42185   5.295  14.654   8.262
46763SOL    HW142186   5.279  14.732   8.314
46763SOL    HW242187   5.354  14.601   8.316
46764SOL     OW42188   2.953   3.495  14.368
46764SOL    HW142189   2.880   3.494  14.430
46764SOL    HW242190   2.957   3.405  14.336
46765SOL     OW42191   2.082   9.969   3.179
46765SOL    HW142192   2.060  10.007   3.095
46765SOL    HW242193   2.096  10.044   3.237
46766SOL     OW42194   7.660  12.731   2.468
46766SOL    HW142195   7.732  12.765   2.520
46766SOL    HW242196   7.628  12.655   2.516
46767SOL     OW42197   9.809   8.228  11.566
46767SOL    HW142198   9.872   8.184  11.622
46767SOL    HW242199   9.797   8.314  11.606
46768SOL     OW42200  11.456   1.813   9.858
46768SOL    HW142201  11.402   1.760   9.799
46768SOL    HW242202  11.533   1.836   9.806
46769SOL     OW42203   6.830  13.408   1.949
46769SOL    HW142204   6.754  13.418   2.006
46769SOL    HW242205   6.904  13.437   2.003
46770SOL     OW42206   7.481  11.363   4.651
46770SOL    HW142207   7.419  11.342   4.581
46770SOL    HW242208   7.509  11.278   4.685
46771SOL     OW42209   7.083  12.801  11.402
46771SOL    HW142210   7.135  12.879  11.425
46771SOL    HW242211   7.147  12.740  11.366
46772SOL     OW42212   5.297   7.682  11.699
46772SOL    HW142213   5.334   7.618  11.638
46772SOL    HW242214   5.364   7.749  11.708
46773SOL     OW42215   2.129   7.302  14.641
46773SOL    HW142216   2.088   7.380  14.604
46773SOL    HW242217   2.114   7.234  14.575
46774SOL     OW42218   4.057  11.186   9.598
46774SOL    HW142219   4.111  11.248   9.647
46774SOL    HW242220   4.100  11.102   9.611
46775SOL     OW42221   7.605   5.601   1.041
46775SOL    HW142222   7.667   5.674   1.047
46775SOL    HW242223   7.550   5.609   1.119
46776SOL     OW42224  11.958   5.994   9.960
46776SOL    HW142225  11.891   5.949  10.013
46776SOL    HW242226  12.041   5.971  10.002
46777SOL     OW42227   9.306   7.549  12.876
46777SOL    HW142228   9.386   7.528  12.828
46777SOL    HW242229   9.297   7.644  12.868
46778SOL     OW42230  13.838   9.703   7.424
46778SOL    HW142231  13.821   9.630   7.364
46778SOL    HW242232  13.825   9.666   7.511
46779SOL     OW42233   0.967   4.641   8.860
46779SOL    HW142234   0.931   4.552   8.866
46779SOL    HW242235   1.043   4.631   8.803
46780SOL     OW42236   6.020   3.583   6.327
46780SOL    HW142237   5.958   3.564   6.398
46780SOL    HW242238   6.101   3.537   6.353
46781SOL     OW42239   7.239  10.989  11.403
46781SOL    HW142240   7.250  10.901  11.369
46781SOL    HW242241   7.162  10.984  11.460
46782SOL     OW42242   7.927   3.964   2.875
46782SOL    HW142243   7.992   3.901   2.906
46782SOL    HW242244   7.975   4.047   2.870
46783SOL     OW42245   4.446  13.468   3.045
46783SOL    HW142246   4.400  13.407   2.987
46783SOL    HW242247   4.404  13.456   3.130
46784SOL     OW42248  11.299   9.707   0.685
46784SOL    HW142249  11.290   9.735   0.594
46784SOL    HW242250  11.227   9.645   0.698
46785SOL     OW42251   9.252  10.612  13.484
46785SOL    HW142252   9.200  10.688  13.512
46785SOL    HW242253   9.318  10.648  13.425
46786SOL     OW42254  12.479  11.669   1.259
46786SOL    HW142255  12.398  11.629   1.230
46786SOL    HW242256  12.475  11.759   1.227
46787SOL     OW42257  13.635   1.325   2.714
46787SOL    HW142258  13.656   1.239   2.679
46787SOL    HW242259  13.633   1.383   2.637
46788SOL     OW42260  14.134  13.555  10.903
46788SOL    HW142261  14.171  13.625  10.850
46788SOL    HW242262  14.045  13.583  10.922
46789SOL     OW42263   8.518  12.767   1.268
46789SOL    HW142264   8.458  12.792   1.197
46789SOL    HW242265   8.532  12.848   1.317
46790SOL     OW42266   5.493   6.802   4.992
46790SOL    HW142267   5.574   6.852   4.980
46790SOL    HW242268   5.473   6.809   5.085
46791SOL     OW42269   3.167   6.754   2.232
46791SOL    HW142270   3.129   6.669   2.210
46791SOL    HW242271   3.102   6.818   2.203
46792SOL     OW42272   4.892   3.360   8.226
46792SOL    HW142273   4.906   3.342   8.319
46792SOL    HW242274   4.976   3.338   8.185
46793SOL     OW42275  12.940   3.612   4.239
46793SOL    HW142276  12.980   3.528   4.261
46793SOL    HW242277  13.014   3.671   4.225
46794SOL     OW42278  11.198  10.849  13.624
46794SOL    HW142279  11.138  10.785  13.662
46794SOL    HW242280  11.169  10.933  13.660
46795SOL     OW42281   7.460  11.409   9.778
46795SOL    HW142282   7.433  11.331   9.731
46795SOL    HW242283   7.464  11.477   9.711
46796SOL     OW42284   7.699   7.720   6.241
46796SOL    HW142285   7.628   7.758   6.293
46796SOL    HW242286   7.717   7.635   6.282
46797SOL     OW42287   6.071   4.116   1.165
46797SOL    HW142288   6.146   4.058   1.179
46797SOL    HW242289   6.088   4.156   1.080
46798SOL     OW42290  14.093   7.764  10.110
46798SOL    HW142291  14.033   7.800  10.045
46798SOL    HW242292  14.068   7.672  10.117
46799SOL     OW42293  13.014  11.743   5.898
46799SOL    HW142294  12.936  11.692   5.921
46799SOL    HW242295  12.984  11.801   5.828
46800SOL     OW42296   7.114   1.468   0.770
46800SOL    HW142297   7.124   1.409   0.845
46800SOL    HW242298   7.110   1.556   0.808
46801SOL     OW42299  13.424  10.515  14.486
46801SOL    HW142300  13.413  10.522  14.392
46801SOL    HW242301  13.495  10.577  14.506
46802SOL     OW42302  13.480   9.347   1.926
46802SOL    HW142303  13.470   9.280   1.858
46802SOL    HW242304  13.395   9.392   1.927
46803SOL     OW42305  13.888   8.757   2.532
46803SOL    HW142306  13.965   8.780   2.480
46803SOL    HW242307  13.843   8.841   2.545
46804SOL     OW42308   7.474   9.014   8.087
46804SOL    HW142309   7.493   8.970   8.170
46804SOL    HW242310   7.516   8.960   8.021
46805SOL     OW42311   2.603  10.055   1.856
46805SOL    HW142312   2.615  10.135   1.804
46805SOL    HW242313   2.531  10.076   1.916
46806SOL     OW42314   8.790   4.424  13.954
46806SOL    HW142315   8.795   4.361  14.026
46806SOL    HW242316   8.704   4.410  13.916
46807SOL     OW42317  14.116   9.662   3.015
46807SOL    HW142318  14.026   9.631   3.031
46807SOL    HW242319  14.171   9.586   3.033
46808SOL     OW42320  10.128   1.656   8.747
46808SOL    HW142321  10.033   1.668   8.736
46808SOL    HW242322  10.145   1.569   8.711
46809SOL     OW42323   3.189   2.839  12.246
46809SOL    HW142324   3.220   2.830  12.336
46809SOL    HW242325   3.265   2.869  12.197
46810SOL     OW42326   6.722  14.532   2.888
46810SOL    HW142327   6.642  14.524   2.940
46810SOL    HW242328   6.753  14.621   2.905
46811SOL     OW42329   4.939   4.486  14.807
46811SOL    HW142330   5.008   4.537  14.850
46811SOL    HW242331   4.946   4.508  14.715
46812SOL     OW42332   1.374   2.481   2.015
46812SOL    HW142333   1.386   2.395   1.975
46812SOL    HW242334   1.281   2.485   2.036
46813SOL     OW42335  14.567  10.493  14.447
46813SOL    HW142336  14.512  10.549  14.502
46813SOL    HW242337  14.641  10.470  14.503
46814SOL     OW42338  10.263  13.245  10.573
46814SOL    HW142339  10.353  13.217  10.591
46814SOL    HW242340  10.228  13.271  10.658
46815SOL     OW42341   2.966   4.619   8.854
46815SOL    HW142342   2.891   4.580   8.809
46815SOL    HW242343   2.984   4.700   8.807
46816SOL     OW42344  13.808   1.712   8.777
46816SOL    HW142345  13.839   1.646   8.715
46816SOL    HW242346  13.756   1.662   8.841
46817SOL     OW42347   1.380   9.031   0.513
46817SOL    HW142348   1.465   9.075   0.524
46817SOL    HW242349   1.395   8.969   0.441
46818SOL     OW42350   6.497  11.373   7.204
46818SOL    HW142351   6.507  11.419   7.287
46818SOL    HW242352   6.535  11.432   7.139
46819SOL     OW42353   3.143  10.814   6.229
46819SOL    HW142354   3.167  10.740   6.285
46819SOL    HW242355   3.226  10.843   6.191
46820SOL     OW42356   1.886   1.038  12.531
46820SOL    HW142357   1.835   1.083  12.463
46820SOL    HW242358   1.966   1.090  12.538
46821SOL     OW42359  12.426   7.691   9.355
46821SOL    HW142360  12.398   7.635   9.283
46821SOL    HW242361  12.383   7.775   9.338
46822SOL     OW42362   4.244   5.009   2.868
46822SOL    HW142363   4.250   5.062   2.789
46822SOL    HW242364   4.313   5.044   2.925
46823SOL     OW42365   4.806   2.689   5.991
46823SOL    HW142366   4.887   2.654   6.029
46823SOL    HW242367   4.786   2.629   5.919
46824SOL     OW42368   1.173   7.284   1.427
46824SOL    HW142369   1.098   7.230   1.453
46824SOL    HW242370   1.136   7.345   1.362
46825SOL     OW42371  14.652   5.878  11.500
46825SOL    HW142372  14.697   5.819  11.440
46825SOL    HW242373  14.633   5.956  11.446
46826SOL     OW42374  13.104  12.380   4.470
46826SOL    HW142375  13.142  12.368   4.557
46826SOL    HW242376  13.173  12.420   4.418
46827SOL     OW42377  12.472   7.979  13.343
46827SOL    HW142378  12.476   8.037  13.419
46827SOL    HW242379  12.561   7.982  13.306
46828SOL     OW42380  11.138   6.244   3.463
46828SOL    HW142381  11.095   6.176   3.410
46828SOL    HW242382  11.232   6.229   3.449
46829SOL     OW42383   6.949  13.649   4.412
46829SOL    HW142384   6.871  13.657   4.356
46829SOL    HW242385   6.918  13.602   4.489
46830SOL     OW42386   4.113   3.631   4.385
46830SOL    HW142387   4.158   3.568   4.328
46830SOL    HW242388   4.134   3.602   4.474
46831SOL     OW42389   9.073  12.225   2.739
46831SOL    HW142390   9.101  12.177   2.817
46831SOL    HW242391   9.111  12.313   2.751
46832SOL     OW42392   3.073  13.569   8.329
46832SOL    HW142393   3.146  13.520   8.366
46832SOL    HW242394   3.014  13.501   8.294
46833SOL     OW42395  13.736   3.891   4.624
46833SOL    HW142396  13.730   3.962   4.561
46833SOL    HW242397  13.806   3.917   4.684
46834SOL     OW42398   4.878  10.940   0.569
46834SOL    HW142399   4.902  10.910   0.657
46834SOL    HW242400   4.911  11.030   0.564
46835SOL     OW42401   5.460  12.905  10.811
46835SOL    HW142402   5.375  12.910  10.856
46835SOL    HW242403   5.441  12.859  10.729
46836SOL     OW42404  11.413   4.543  14.486
46836SOL    HW142405  11.449   4.607  14.423
46836SOL    HW242406  11.321   4.535  14.462
46837SOL     OW42407   9.244  13.394   5.887
46837SOL    HW142408   9.314  13.329   5.873
46837SOL    HW242409   9.266  13.465   5.827
46838SOL     OW42410   5.596   3.835  13.829
46838SOL    HW142411   5.655   3.814  13.901
46838SOL    HW242412   5.648   3.890  13.770
46839SOL     OW42413   9.545   7.068  10.024
46839SOL    HW142414   9.473   7.081   9.962
46839SOL    HW242415   9.624   7.088   9.974
46840SOL     OW42416   5.100  13.595   1.047
46840SOL    HW142417   5.050  13.660   1.095
46840SOL    HW242418   5.119  13.635   0.962
46841SOL     OW42419   5.559   1.316  10.792
46841SOL    HW142420   5.522   1.353  10.712
46841SOL    HW242421   5.560   1.389  10.854
46842SOL     OW42422   8.053   1.748   1.085
46842SOL    HW142423   8.027   1.803   1.159
46842SOL    HW242424   8.037   1.803   1.008
46843SOL     OW42425   0.636   0.599   5.143
46843SOL    HW142426   0.701   0.529   5.148
46843SOL    HW242427   0.578   0.584   5.217
46844SOL     OW42428   1.141   3.785  14.305
46844SOL    HW142429   1.183   3.870  14.290
46844SOL    HW242430   1.153   3.768  14.398
46845SOL     OW42431  11.452   1.777  13.905
46845SOL    HW142432  11.409   1.778  13.991
46845SOL    HW242433  11.382   1.799  13.844
46846SOL     OW42434   0.589   9.407  10.086
46846SOL    HW142435   0.630   9.347  10.023
46846SOL    HW242436   0.497   9.410  10.060
46847SOL     OW42437  13.494  14.195   2.371
46847SOL    HW142438  13.490  14.188   2.466
46847SOL    HW242439  13.581  14.230   2.353
46848SOL     OW42440   6.735  13.408  14.573
46848SOL    HW142441   6.659  13.449  14.533
46848SOL    HW242442   6.805  13.472  14.565
46849SOL     OW42443   5.489  13.789   6.961
46849SOL    HW142444   5.404  13.763   6.995
46849SOL    HW242445   5.519  13.859   7.020
46850SOL     OW42446  11.522   1.598  10.032
46850SOL    HW142447  11.442   1.551  10.055
46850SOL    HW242448  11.497   1.655   9.960
46851SOL     OW42449   7.083   6.730  13.672
46851SOL    HW142450   7.118   6.753  13.586
46851SOL    HW242451   7.061   6.637  13.665
46852SOL     OW42452   5.213   3.727   9.523
46852SOL    HW142453   5.292   3.706   9.573
46852SOL    HW242454   5.236   3.808   9.476
46853SOL     OW42455  13.568   1.317   5.817
46853SOL    HW142456  13.626   1.251   5.854
46853SOL    HW242457  13.624   1.372   5.763
46854SOL     OW42458   9.011  11.552  10.837
46854SOL    HW142459   9.087  11.495  10.822
46854SOL    HW242460   8.975  11.524  10.921
46855SOL     OW42461   3.314   3.994   5.937
46855SOL    HW142462   3.341   4.083   5.912
46855SOL    HW242463   3.390   3.958   5.982
46856SOL     OW42464  14.258   2.944   8.547
46856SOL    HW142465  14.313   2.882   8.594
46856SOL    HW242466  14.299   3.029   8.562
46857SOL     OW42467  10.098   5.222  12.710
46857SOL    HW142468  10.168   5.178  12.758
46857SOL    HW242469  10.127   5.220  12.619
46858SOL     OW42470  13.988   3.241   0.291
46858SOL    HW142471  13.948   3.325   0.269
46858SOL    HW242472  13.946   3.178   0.232
46859SOL     OW42473   5.147   3.297   2.665
46859SOL    HW142474   5.116   3.224   2.612
46859SOL    HW242475   5.200   3.350   2.605
46860SOL     OW42476   5.056   5.535   8.306
46860SOL    HW142477   5.143   5.500   8.323
46860SOL    HW242478   5.066   5.591   8.229
46861SOL     OW42479  14.648   3.428  13.234
46861SOL    HW142480  14.633   3.523  13.226
46861SOL    HW242481  14.740   3.420  13.259
46862SOL     OW42482   0.763   3.279   8.654
46862SOL    HW142483   0.734   3.285   8.564
46862SOL    HW242484   0.683   3.275   8.706
46863SOL     OW42485   9.649   3.839   7.592
46863SOL    HW142486   9.638   3.934   7.597
46863SOL    HW242487   9.583   3.810   7.528
46864SOL     OW42488   7.527   5.128   0.619
46864SOL    HW142489   7.487   5.080   0.691
46864SOL    HW242490   7.522   5.219   0.645
46865SOL     OW42491   7.379   2.812  10.537
46865SOL    HW142492   7.463   2.810  10.583
46865SOL    HW242493   7.354   2.720  10.529
46866SOL     OW42494  11.794   6.377   6.803
46866SOL    HW142495  11.801   6.299   6.858
46866SOL    HW242496  11.717   6.360   6.748
46867SOL     OW42497  11.534   4.136   3.654
46867SOL    HW142498  11.458   4.077   3.650
46867SOL    HW242499  11.497   4.224   3.647
46868SOL     OW42500  14.775   5.905  14.777
46868SOL    HW142501  14.778   5.996  14.807
46868SOL    HW242502  14.690   5.872  14.807
46869SOL     OW42503   2.336   4.368   5.689
46869SOL    HW142504   2.266   4.308   5.661
46869SOL    HW242505   2.389   4.382   5.610
46870SOL     OW42506   8.030   4.201  10.842
46870SOL    HW142507   7.971   4.130  10.815
46870SOL    HW242508   8.065   4.172  10.926
46871SOL     OW42509   9.586   1.814   1.874
46871SOL    HW142510   9.639   1.824   1.953
46871SOL    HW242511   9.550   1.902   1.859
46872SOL     OW42512   4.356   3.122  13.216
46872SOL    HW142513   4.319   3.052  13.162
46872SOL    HW242514   4.442   3.089  13.243
46873SOL     OW42515   0.238  10.217   2.866
46873SOL    HW142516   0.231  10.312   2.858
46873SOL    HW242517   0.185  10.183   2.794
46874SOL     OW42518   6.022   8.717   9.093
46874SOL    HW142519   6.089   8.739   9.028
46874SOL    HW242520   5.944   8.697   9.041
46875SOL     OW42521   8.840   5.688   4.662
46875SOL    HW142522   8.838   5.750   4.735
46875SOL    HW242523   8.919   5.709   4.614
46876SOL     OW42524   2.670   1.868   1.401
46876SOL    HW142525   2.689   1.931   1.470
46876SOL    HW242526   2.755   1.842   1.367
46877SOL     OW42527   5.301  14.692   0.836
46877SOL    HW142528   5.316  14.598   0.842
46877SOL    HW242529   5.232  14.710   0.901
46878SOL     OW42530   3.726   1.018   0.392
46878SOL    HW142531   3.649   0.971   0.358
46878SOL    HW242532   3.741   1.089   0.329
46879SOL     OW42533  11.517   7.154   2.031
46879SOL    HW142534  11.429   7.145   1.995
46879SOL    HW242535  11.519   7.096   2.107
46880SOL     OW42536   8.355   0.628   9.369
46880SOL    HW142537   8.430   0.674   9.408
46880SOL    HW242538   8.308   0.696   9.321
46881SOL     OW42539   8.822   8.164   2.735
46881SOL    HW142540   8.799   8.104   2.806
46881SOL    HW242541   8.842   8.247   2.779
46882SOL     OW42542  14.791   4.819   6.923
46882SOL    HW142543  14.734   4.888   6.888
46882SOL    HW242544  14.868   4.866   6.957
46883SOL     OW42545   0.432  13.401   6.397
46883SOL    HW142546   0.487  13.356   6.462
46883SOL    HW242547   0.349  13.355   6.400
46884SOL     OW42548   1.962  13.487   0.737
46884SOL    HW142549   2.031  13.496   0.802
46884SOL    HW242550   1.965  13.396   0.710
46885SOL     OW42551   3.268  11.471   8.385
46885SOL    HW142552   3.206  11.426   8.328
46885SOL    HW242553   3.323  11.401   8.419
46886SOL     OW42554   2.465  12.953   1.592
46886SOL    HW142555   2.418  12.870   1.603
46886SOL    HW242556   2.404  13.009   1.544
46887SOL     OW42557   1.733   1.944   0.191
46887SOL    HW142558   1.798   1.883   0.224
46887SOL    HW242559   1.731   1.928   0.097
46888SOL     OW42560  14.341  10.789   8.722
46888SOL    HW142561  14.311  10.872   8.759
46888SOL    HW242562  14.428  10.775   8.759
46889SOL     OW42563  11.621  14.304   4.484
46889SOL    HW142564  11.551  14.304   4.418
46889SOL    HW242565  11.682  14.237   4.454
46890SOL     OW42566   6.482  14.694  12.955
46890SOL    HW142567   6.450  14.775  12.914
46890SOL    HW242568   6.476  14.629  12.886
46891SOL     OW42569  11.541   2.321   0.704
46891SOL    HW142570  11.473   2.370   0.749
46891SOL    HW242571  11.573   2.258   0.768
46892SOL     OW42572  14.675   8.652  14.186
46892SOL    HW142573  14.608   8.695  14.239
46892SOL    HW242574  14.628   8.585  14.136
46893SOL     OW42575   4.142   7.311   2.367
46893SOL    HW142576   4.109   7.386   2.317
46893SOL    HW242577   4.099   7.318   2.452
46894SOL     OW42578   6.180   0.467   7.850
46894SOL    HW142579   6.109   0.530   7.841
46894SOL    HW242580   6.186   0.425   7.764
46895SOL     OW42581  14.746  13.813  14.258
46895SOL    HW142582  14.698  13.892  14.284
46895SOL    HW242583  14.681  13.759  14.212
46896SOL     OW42584   0.955   0.739   4.174
46896SOL    HW142585   1.006   0.796   4.231
46896SOL    HW242586   0.933   0.664   4.230
46897SOL     OW42587   7.405   5.419   1.039
46897SOL    HW142588   7.487   5.440   0.994
46897SOL    HW242589   7.427   5.418   1.132
46898SOL     OW42590  11.350   2.792   0.253
46898SOL    HW142591  11.259   2.801   0.224
46898SOL    HW242592  11.350   2.711   0.305
46899SOL     OW42593   5.298  14.140   4.941
46899SOL    HW142594   5.347  14.221   4.959
46899SOL    HW242595   5.253  14.158   4.859
46900SOL     OW42596   4.492   0.267  11.188
46900SOL    HW142597   4.485   0.341  11.248
46900SOL    HW242598   4.556   0.294  11.123
46901SOL     OW42599   5.208   0.074   3.460
46901SOL    HW142600   5.259   0.152   3.441
46901SOL    HW242601   5.242   0.007   3.401
46902SOL     OW42602  14.469   2.164   5.064
46902SOL    HW142603  14.497   2.141   5.153
46902SOL    HW242604  14.547   2.151   5.010
46903SOL     OW42605   3.784   4.284   3.723
46903SOL    HW142606   3.697   4.324   3.718
46903SOL    HW242607   3.817   4.310   3.809
46904SOL     OW42608  13.663   7.164   6.348
46904SOL    HW142609  13.628   7.152   6.436
46904SOL    HW242610  13.733   7.099   6.340
46905SOL     OW42611   0.593   0.085   2.180
46905SOL    HW142612   0.582   0.087   2.085
46905SOL    HW242613   0.687   0.068   2.192
46906SOL     OW42614   3.390   8.622   4.968
46906SOL    HW142615   3.407   8.551   5.029
46906SOL    HW242616   3.456   8.688   4.989
46907SOL     OW42617   9.828   3.055   7.823
46907SOL    HW142618   9.773   3.084   7.750
46907SOL    HW242619   9.825   2.959   7.820
46908SOL     OW42620   3.412  13.652   2.352
46908SOL    HW142621   3.333  13.604   2.377
46908SOL    HW242622   3.457  13.593   2.291
46909SOL     OW42623  11.068   4.616   3.154
46909SOL    HW142624  11.000   4.657   3.208
46909SOL    HW242625  11.055   4.522   3.168
46910SOL     OW42626   3.060   3.205   3.533
46910SOL    HW142627   3.093   3.190   3.622
46910SOL    HW242628   3.034   3.118   3.502
46911SOL     OW42629   0.488   1.191   8.335
46911SOL    HW142630   0.484   1.095   8.329
46911SOL    HW242631   0.562   1.216   8.279
46912SOL     OW42632   5.886  10.478   6.019
46912SOL    HW142633   5.939  10.401   6.038
46912SOL    HW242634   5.865  10.515   6.105
46913SOL     OW42635   4.423  10.453  10.924
46913SOL    HW142636   4.354  10.421  10.982
46913SOL    HW242637   4.412  10.403  10.843
46914SOL     OW42638   5.757   0.994   6.581
46914SOL    HW142639   5.735   0.930   6.513
46914SOL    HW242640   5.794   0.941   6.652
46915SOL     OW42641  10.690   2.327   2.719
46915SOL    HW142642  10.619   2.352   2.660
46915SOL    HW242643  10.671   2.236   2.741
46916SOL     OW42644   0.034   0.462   4.623
46916SOL    HW142645   0.077   0.488   4.541
46916SOL    HW242646   0.105   0.428   4.677
46917SOL     OW42647  11.892   8.677  14.120
46917SOL    HW142648  11.950   8.616  14.074
46917SOL    HW242649  11.887   8.642  14.209
46918SOL     OW42650   0.944  13.246   1.745
46918SOL    HW142651   0.859  13.230   1.706
46918SOL    HW242652   0.935  13.330   1.790
46919SOL     OW42653   9.684   0.740   8.849
46919SOL    HW142654   9.761   0.757   8.902
46919SOL    HW242655   9.697   0.794   8.771
46920SOL     OW42656  13.217   8.902   1.149
46920SOL    HW142657  13.228   8.821   1.200
46920SOL    HW242658  13.297   8.952   1.165
46921SOL     OW42659   1.042  14.390   0.494
46921SOL    HW142660   1.072  14.384   0.403
46921SOL    HW242661   1.122  14.380   0.546
46922SOL     OW42662  10.321   1.228  14.191
46922SOL    HW142663  10.406   1.219  14.234
46922SOL    HW242664  10.302   1.141  14.157
46923SOL     OW42665   4.744  11.272  10.142
46923SOL    HW142666   4.836  11.256  10.122
46923SOL    HW242667   4.719  11.201  10.200
46924SOL     OW42668   9.406  11.256   8.414
46924SOL    HW142669   9.374  11.208   8.490
46924SOL    HW242670   9.327  11.286   8.370
46925SOL     OW42671   8.850   0.099  11.412
46925SOL    HW142672   8.807   0.124  11.330
46925SOL    HW242673   8.816   0.011  11.431
46926SOL     OW42674   3.129   1.844  13.604
46926SOL    HW142675   3.185   1.912  13.567
46926SOL    HW242676   3.154   1.765  13.555
46927SOL     OW42677   6.156   2.135   6.663
46927SOL    HW142678   6.078   2.080   6.648
46927SOL    HW242679   6.190   2.106   6.748
46928SOL     OW42680   9.254   4.238   2.417
46928SOL    HW142681   9.324   4.174   2.434
46928SOL    HW242682   9.201   4.238   2.497
46929SOL     OW42683   4.096   6.954  10.589
46929SOL    HW142684   4.025   6.890  10.586
46929SOL    HW242685   4.094   6.987  10.679
46930SOL     OW42686  14.225   8.445  11.387
46930SOL    HW142687  14.299   8.385  11.379
46930SOL    HW242688  14.216   8.461  11.481
46931SOL     OW42689  13.710   0.974  11.166
46931SOL    HW142690  13.643   0.907  11.149
46931SOL    HW242691  13.771   0.965  11.093
46932SOL     OW42692  13.774   3.775   7.110
46932SOL    HW142693  13.836   3.713   7.074
46932SOL    HW242694  13.814   3.806   7.191
46933SOL     OW42695  11.362   2.910  12.059
46933SOL    HW142696  11.448   2.878  12.089
46933SOL    HW242697  11.299   2.857  12.107
46934SOL     OW42698  12.039  10.742   1.023
46934SOL    HW142699  11.957  10.750   1.071
46934SOL    HW242700  12.048  10.648   1.007
46935SOL     OW42701   0.024  13.141  14.717
46935SOL    HW142702   0.057  13.057  14.685
46935SOL    HW242703   0.004  13.191  14.637
46936SOL     OW42704   9.458   4.083  11.936
46936SOL    HW142705   9.551   4.104  11.930
46936SOL    HW242706   9.451   3.996  11.899
46937SOL     OW42707   2.721  10.746   8.641
46937SOL    HW142708   2.632  10.730   8.610
46937SOL    HW242709   2.710  10.777   8.731
46938SOL     OW42710   9.958   3.416   2.326
46938SOL    HW142711  10.015   3.492   2.324
46938SOL    HW242712   9.990   3.360   2.255
46939SOL     OW42713   0.177  11.114   5.399
46939SOL    HW142714   0.101  11.096   5.345
46939SOL    HW242715   0.209  11.028   5.426
46940SOL     OW42716   4.909   0.223  13.337
46940SOL    HW142717   4.880   0.308  13.302
46940SOL    HW242718   4.832   0.189  13.382
46941SOL     OW42719   0.047   9.771   7.643
46941SOL    HW142720   0.139   9.750   7.660
46941SOL    HW242721   0.006   9.685   7.629
46942SOL     OW42722  13.315   8.901   3.390
46942SOL    HW142723  13.325   8.909   3.295
46942SOL    HW242724  13.379   8.834   3.414
46943SOL     OW42725   6.908   5.701  11.222
46943SOL    HW142726   6.977   5.765  11.209
46943SOL    HW242727   6.953   5.623  11.253
46944SOL     OW42728   0.423  12.013   6.921
46944SOL    HW142729   0.502  11.978   6.963
46944SOL    HW242730   0.447  12.020   6.829
46945SOL     OW42731   7.561   7.689   2.567
46945SOL    HW142732   7.548   7.699   2.661
46945SOL    HW242733   7.642   7.639   2.559
46946SOL     OW42734   0.839   4.055   8.325
46946SOL    HW142735   0.791   4.127   8.366
46946SOL    HW242736   0.779   4.020   8.259
46947SOL     OW42737  10.578   6.252   2.351
46947SOL    HW142738  10.567   6.336   2.396
46947SOL    HW242739  10.506   6.248   2.289
46948SOL     OW42740  12.926   2.775  12.959
46948SOL    HW142741  12.921   2.826  12.879
46948SOL    HW242742  12.916   2.684  12.931
46949SOL     OW42743   9.414  13.657   6.120
46949SOL    HW142744   9.363  13.686   6.043
46949SOL    HW242745   9.408  13.730   6.181
46950SOL     OW42746  13.021  10.759   4.797
46950SOL    HW142747  13.039  10.734   4.706
46950SOL    HW242748  13.060  10.689   4.849
46951SOL     OW42749   2.681   7.951  11.544
46951SOL    HW142750   2.735   7.873  11.535
46951SOL    HW242751   2.702   7.985  11.631
46952SOL     OW42752   0.824   5.377   6.219
46952SOL    HW142753   0.732   5.402   6.229
46952SOL    HW242754   0.827   5.330   6.135
46953SOL     OW42755   9.365  10.553  13.850
46953SOL    HW142756   9.414  10.475  13.823
46953SOL    HW242757   9.273  10.529  13.835
46954SOL     OW42758  13.739  11.252  14.746
46954SOL    HW142759  13.723  11.312  14.673
46954SOL    HW242760  13.663  11.195  14.748
46955SOL     OW42761   1.385   3.947  14.219
46955SOL    HW142762   1.454   3.979  14.161
46955SOL    HW242763   1.409   3.856  14.237
46956SOL     OW42764   3.992   5.627  12.815
46956SOL    HW142765   4.027   5.670  12.737
46956SOL    HW242766   4.052   5.653  12.885
46957SOL     OW42767  12.671   4.234   1.975
46957SOL    HW142768  12.705   4.321   1.995
46957SOL    HW242769  12.746   4.187   1.939
46958SOL     OW42770  11.820   6.417  11.474
46958SOL    HW142771  11.733   6.454  11.490
46958SOL    HW242772  11.856   6.469  11.403
46959SOL     OW42773   7.896  10.025   5.693
46959SOL    HW142774   7.889  10.017   5.788
46959SOL    HW242775   7.877   9.937   5.660
46960SOL     OW42776  10.464  13.529   7.109
46960SOL    HW142777  10.546  13.570   7.138
46960SOL    HW242778  10.490  13.443   7.078
46961SOL     OW42779   3.573  12.935   1.442
46961SOL    HW142780   3.554  12.900   1.355
46961SOL    HW242781   3.494  12.983   1.467
46962SOL     OW42782   9.460   9.898  13.419
46962SOL    HW142783   9.473   9.849  13.337
46962SOL    HW242784   9.386   9.955  13.401
46963SOL     OW42785  14.365  11.788   9.404
46963SOL    HW142786  14.418  11.755   9.332
46963SOL    HW242787  14.423  11.786   9.480
46964SOL     OW42788   2.409   4.369   6.096
46964SOL    HW142789   2.413   4.288   6.045
46964SOL    HW242790   2.317   4.377   6.122
46965SOL     OW42791   4.910   4.252  12.816
46965SOL    HW142792   4.967   4.242  12.740
46965SOL    HW242793   4.847   4.318  12.790
46966SOL     OW42794   7.525  12.455   3.757
46966SOL    HW142795   7.521  12.550   3.770
46966SOL    HW242796   7.437  12.424   3.780
46967SOL     OW42797  10.048   6.648   8.585
46967SOL    HW142798   9.954   6.665   8.593
46967SOL    HW242799  10.073   6.606   8.667
46968SOL     OW42800  11.030   1.365  14.327
46968SOL    HW142801  10.994   1.363  14.238
46968SOL    HW242802  11.082   1.446  14.329
46969SOL     OW42803  13.365   4.662  11.100
46969SOL    HW142804  13.357   4.746  11.054
46969SOL    HW242805  13.320   4.676  11.183
46970SOL     OW42806   9.473   9.476   4.350
46970SOL    HW142807   9.413   9.410   4.314
46970SOL    HW242808   9.417   9.533   4.403
46971SOL     OW42809   0.309   8.005   0.777
46971SOL    HW142810   0.278   8.094   0.762
46971SOL    HW242811   0.278   7.956   0.701
46972SOL     OW42812  11.992   6.982  14.818
46972SOL    HW142813  12.066   6.931  14.849
46972SOL    HW242814  11.976   6.950  14.729
46973SOL     OW42815   6.064  12.602   2.102
46973SOL    HW142816   6.139  12.613   2.160
46973SOL    HW242817   5.989  12.593   2.160
46974SOL     OW42818   3.895   0.090   1.955
46974SOL    HW142819   3.867   0.071   2.044
46974SOL    HW242820   3.935   0.008   1.924
46975SOL     OW42821   0.703   9.729   3.174
46975SOL    HW142822   0.764   9.660   3.203
46975SOL    HW242823   0.642   9.683   3.116
46976SOL     OW42824   3.497   5.644  14.019
46976SOL    HW142825   3.425   5.689  14.063
46976SOL    HW242826   3.571   5.705  14.026
46977SOL     OW42827   8.476   7.568   1.379
46977SOL    HW142828   8.410   7.498   1.373
46977SOL    HW242829   8.555   7.530   1.343
46978SOL     OW42830  14.379  14.778   6.319
46978SOL    HW142831  14.383  14.867   6.285
46978SOL    HW242832  14.398  14.786   6.412
46979SOL     OW42833   6.303  13.708  10.695
46979SOL    HW142834   6.294  13.803  10.698
46979SOL    HW242835   6.227  13.677  10.646
46980SOL     OW42836  10.460   8.568   4.890
46980SOL    HW142837  10.431   8.484   4.926
46980SOL    HW242838  10.470   8.624   4.967
46981SOL     OW42839   6.200   0.754   6.756
46981SOL    HW142840   6.110   0.787   6.765
46981SOL    HW242841   6.255   0.831   6.772
46982SOL     OW42842   8.829   9.506   6.269
46982SOL    HW142843   8.735   9.515   6.254
46982SOL    HW242844   8.836   9.458   6.351
46983SOL     OW42845   3.599  13.182   6.206
46983SOL    HW142846   3.616  13.230   6.125
46983SOL    HW242847   3.642  13.097   6.193
46984SOL     OW42848  14.438   9.522   8.854
46984SOL    HW142849  14.436   9.489   8.944
46984SOL    HW242850  14.438   9.617   8.864
46985SOL     OW42851   0.518  13.685   7.555
46985SOL    HW142852   0.538  13.746   7.626
46985SOL    HW242853   0.474  13.739   7.489
46986SOL     OW42854  10.263   9.384   6.581
46986SOL    HW142855  10.197   9.345   6.524
46986SOL    HW242856  10.252   9.340   6.665
46987SOL     OW42857   6.295   6.547   1.505
46987SOL    HW142858   6.234   6.499   1.449
46987SOL    HW242859   6.240   6.593   1.567
46988SOL     OW42860  10.390  11.531   7.379
46988SOL    HW142861  10.349  11.469   7.319
46988SOL    HW242862  10.332  11.532   7.456
46989SOL     OW42863  12.212   7.465   7.399
46989SOL    HW142864  12.288   7.417   7.430
46989SOL    HW242865  12.149   7.397   7.374
46990SOL     OW42866   2.239  14.208  13.631
46990SOL    HW142867   2.197  14.247  13.555
46990SOL    HW242868   2.168  14.168  13.680
46991SOL     OW42869   6.431  10.605   8.557
46991SOL    HW142870   6.445  10.511   8.543
46991SOL    HW242871   6.489  10.627   8.629
46992SOL     OW42872  12.599  12.348  10.164
46992SOL    HW142873  12.640  12.365  10.248
46992SOL    HW242874  12.634  12.262  10.137
46993SOL     OW42875   3.821  10.510   6.456
46993SOL    HW142876   3.758  10.438   6.464
46993SOL    HW242877   3.882  10.495   6.529
46994SOL     OW42878   0.170   4.126   8.672
46994SOL    HW142879   0.165   4.073   8.752
46994SOL    HW242880   0.128   4.073   8.605
46995SOL     OW42881   9.471  11.925   7.612
46995SOL    HW142882   9.556  11.881   7.623
46995SOL    HW242883   9.423  11.871   7.550
46996SOL     OW42884   3.413  14.090  10.698
46996SOL    HW142885   3.480  14.022  10.709
46996SOL    HW242886   3.379  14.076  10.610
46997SOL     OW42887   7.384   2.458   1.191
46997SOL    HW142888   7.345   2.374   1.216
46997SOL    HW242889   7.319   2.498   1.133
46998SOL     OW42890   3.554  13.758  10.030
46998SOL    HW142891   3.501  13.826   9.988
46998SOL    HW242892   3.618  13.733   9.963
46999SOL     OW42893   0.511   8.824  13.463
46999SOL    HW142894   0.490   8.917  13.469
46999SOL    HW242895   0.607   8.822  13.460
47000SOL     OW42896   5.929  11.882  11.686
47000SOL    HW142897   5.987  11.814  11.651
47000SOL    HW242898   5.847  11.871  11.639
47001SOL     OW42899   9.701   9.158   9.820
47001SOL    HW142900   9.739   9.184   9.736
47001SOL    HW242901   9.639   9.228   9.841
47002SOL     OW42902  10.819  12.503   9.642
47002SOL    HW142903  10.865  12.420   9.626
47002SOL    HW242904  10.808  12.542   9.556
47003SOL     OW42905  14.057  14.738  10.214
47003SOL    HW142906  14.024  14.650  10.235
47003SOL    HW242907  14.033  14.791  10.290
47004SOL     OW42908   0.863   7.766   3.767
47004SOL    HW142909   0.889   7.743   3.856
47004SOL    HW242910   0.804   7.841   3.777
47005SOL     OW42911   5.007   9.859   1.217
47005SOL    HW142912   4.946   9.796   1.178
47005SOL    HW242913   5.067   9.883   1.147
47006SOL     OW42914  10.152  10.483   2.107
47006SOL    HW142915  10.182  10.462   2.196
47006SOL    HW242916  10.218  10.443   2.050
47007SOL     OW42917   5.092   8.755   9.796
47007SOL    HW142918   5.140   8.740   9.714
47007SOL    HW242919   5.012   8.798   9.768
47008SOL     OW42920   6.912  13.929  11.102
47008SOL    HW142921   6.859  13.998  11.063
47008SOL    HW242922   6.869  13.848  11.076
47009SOL     OW42923  10.977   3.407   3.275
47009SOL    HW142924  11.029   3.444   3.203
47009SOL    HW242925  10.985   3.470   3.346
47010SOL     OW42926   7.864   1.924   1.260
47010SOL    HW142927   7.941   1.971   1.293
47010SOL    HW242928   7.816   1.989   1.210
47011SOL     OW42929  13.627  14.354   1.760
47011SOL    HW142930  13.545  14.389   1.795
47011SOL    HW242931  13.677  14.327   1.837
47012SOL     OW42932   4.916   5.167   2.474
47012SOL    HW142933   4.859   5.209   2.410
47012SOL    HW242934   4.894   5.074   2.470
47013SOL     OW42935  13.764  11.298   5.993
47013SOL    HW142936  13.701  11.370   5.991
47013SOL    HW242937  13.786  11.283   5.901
47014SOL     OW42938  14.743   5.253  14.818
47014SOL    HW142939  14.662   5.232  14.771
47014SOL    HW242940  14.777   5.168  14.845
47015SOL     OW42941   7.836   9.783   7.817
47015SOL    HW142942   7.808   9.711   7.761
47015SOL    HW242943   7.855   9.855   7.756
47016SOL     OW42944   2.774   2.281   1.421
47016SOL    HW142945   2.776   2.375   1.405
47016SOL    HW242946   2.798   2.272   1.513
47017SOL     OW42947  10.665   7.353   2.699
47017SOL    HW142948  10.681   7.447   2.710
47017SOL    HW242949  10.599   7.347   2.630
47018SOL     OW42950   7.212   9.085   5.282
47018SOL    HW142951   7.183   9.021   5.217
47018SOL    HW242952   7.307   9.087   5.273
47019SOL     OW42953   8.737   1.221   5.860
47019SOL    HW142954   8.762   1.292   5.919
47019SOL    HW242955   8.712   1.149   5.918
47020SOL     OW42956   1.775  10.815   6.128
47020SOL    HW142957   1.750  10.737   6.079
47020SOL    HW242958   1.861  10.794   6.165
47021SOL     OW42959   9.126   6.704  10.383
47021SOL    HW142960   9.036   6.703  10.353
47021SOL    HW242961   9.170   6.636  10.331
47022SOL     OW42962  11.586   1.219   1.420
47022SOL    HW142963  11.500   1.254   1.442
47022SOL    HW242964  11.588   1.216   1.324
47023SOL     OW42965   5.339  12.333   8.956
47023SOL    HW142966   5.278  12.259   8.948
47023SOL    HW242967   5.301  12.402   8.902
47024SOL     OW42968  10.512   4.266  11.365
47024SOL    HW142969  10.538   4.226  11.448
47024SOL    HW242970  10.417   4.257  11.363
47025SOL     OW42971  10.153   2.228  14.141
47025SOL    HW142972  10.172   2.135  14.143
47025SOL    HW242973  10.060   2.235  14.160
47026SOL     OW42974   7.829  10.243  11.939
47026SOL    HW142975   7.750  10.257  11.991
47026SOL    HW242976   7.881  10.182  11.991
47027SOL     OW42977   5.513  13.199  14.411
47027SOL    HW142978   5.477  13.114  14.386
47027SOL    HW242979   5.584  13.214  14.348
47028SOL     OW42980   6.121   2.450  12.152
47028SOL    HW142981   6.148   2.404  12.232
47028SOL    HW242982   6.038   2.491  12.175
47029SOL     OW42983  10.630   1.533  13.378
47029SOL    HW142984  10.703   1.542  13.439
47029SOL    HW242985  10.660   1.574  13.297
47030SOL     OW42986  10.365  11.201  10.848
47030SOL    HW142987  10.388  11.197  10.941
47030SOL    HW242988  10.345  11.293  10.831
47031SOL     OW42989   5.676   9.189   8.827
47031SOL    HW142990   5.669   9.140   8.745
47031SOL    HW242991   5.585   9.196   8.858
47032SOL     OW42992   3.924  14.530  10.050
47032SOL    HW142993   3.884  14.614  10.028
47032SOL    HW242994   3.909  14.520  10.144
47033SOL     OW42995  10.189  10.790   9.782
47033SOL    HW142996  10.105  10.743   9.786
47033SOL    HW242997  10.253  10.724   9.757
47034SOL     OW42998  11.197   3.405   5.763
47034SOL    HW142999  11.279   3.425   5.807
47034SOL    HW243000  11.129   3.424   5.829
47035SOL     OW43001   0.861  12.179   5.740
47035SOL    HW143002   0.884  12.218   5.656
47035SOL    HW243003   0.942  12.138   5.770
47036SOL     OW43004   9.564  10.840   0.916
47036SOL    HW143005   9.574  10.820   0.822
47036SOL    HW243006   9.618  10.775   0.960
47037SOL     OW43007  10.933   4.489   5.120
47037SOL    HW143008  10.910   4.565   5.067
47037SOL    HW243009  11.023   4.506   5.149
47038SOL     OW43010  11.386   7.283   7.531
47038SOL    HW143011  11.367   7.189   7.526
47038SOL    HW243012  11.418   7.297   7.620
47039SOL     OW43013   3.103   8.261  13.225
47039SOL    HW143014   3.115   8.353  13.249
47039SOL    HW243015   3.019   8.258  13.179
47040SOL     OW43016  13.970   0.358   6.611
47040SOL    HW143017  14.003   0.348   6.700
47040SOL    HW243018  14.004   0.281   6.565
47041SOL     OW43019   9.912   0.131   2.801
47041SOL    HW143020   9.957   0.048   2.786
47041SOL    HW243021   9.819   0.110   2.791
47042SOL     OW43022  13.201   1.746   9.153
47042SOL    HW143023  13.239   1.814   9.097
47042SOL    HW243024  13.241   1.664   9.123
47043SOL     OW43025   2.759   8.709   2.559
47043SOL    HW143026   2.751   8.797   2.594
47043SOL    HW243027   2.676   8.693   2.513
47044SOL     OW43028   8.475  13.711   0.254
47044SOL    HW143029   8.496  13.643   0.190
47044SOL    HW243030   8.509  13.792   0.216
47045SOL     OW43031  11.969   0.982  14.633
47045SOL    HW143032  12.063   0.964  14.627
47045SOL    HW243033  11.927   0.901  14.605
47046SOL     OW43034   3.974  11.597   9.713
47046SOL    HW143035   4.042  11.582   9.647
47046SOL    HW243036   3.944  11.687   9.697
47047SOL     OW43037   6.849   3.804   4.612
47047SOL    HW143038   6.834   3.785   4.519
47047SOL    HW243039   6.943   3.817   4.619
47048SOL     OW43040  10.311   1.489   9.594
47048SOL    HW143041  10.340   1.498   9.685
47048SOL    HW243042  10.245   1.558   9.583
47049SOL     OW43043  13.735  14.060   0.562
47049SOL    HW143044  13.737  13.998   0.636
47049SOL    HW243045  13.703  14.142   0.600
47050SOL     OW43046   6.843   7.152   4.348
47050SOL    HW143047   6.769   7.153   4.410
47050SOL    HW243048   6.862   7.244   4.332
47051SOL     OW43049   2.233   1.289  12.132
47051SOL    HW143050   2.277   1.374  12.134
47051SOL    HW243051   2.150   1.306  12.088
47052SOL     OW43052   5.527   0.244   6.962
47052SOL    HW143053   5.585   0.252   6.887
47052SOL    HW243054   5.508   0.334   6.987
47053SOL     OW43055   0.413   4.181   9.201
47053SOL    HW143056   0.423   4.259   9.146
47053SOL    HW243057   0.497   4.174   9.247
47054SOL     OW43058   6.866  14.443   4.850
47054SOL    HW143059   6.868  14.521   4.906
47054SOL    HW243060   6.901  14.473   4.766
47055SOL     OW43061  12.285   2.087  13.569
47055SOL    HW143062  12.372   2.093  13.608
47055SOL    HW243063  12.243   2.171  13.589
47056SOL     OW43064  10.526   4.254  12.099
47056SOL    HW143065  10.493   4.276  12.012
47056SOL    HW243066  10.593   4.188  12.084
47057SOL     OW43067   7.954   5.400   6.341
47057SOL    HW143068   8.034   5.443   6.372
47057SOL    HW243069   7.937   5.333   6.407
47058SOL     OW43070   2.931   1.389   8.826
47058SOL    HW143071   2.927   1.399   8.731
47058SOL    HW243072   3.022   1.407   8.849
47059SOL     OW43073  14.227  12.387  12.395
47059SOL    HW143074  14.156  12.348  12.344
47059SOL    HW243075  14.193  12.472  12.422
47060SOL     OW43076   4.774   7.309   8.460
47060SOL    HW143077   4.821   7.236   8.418
47060SOL    HW243078   4.682   7.285   8.451
47061SOL     OW43079  10.287   3.757   8.481
47061SOL    HW143080  10.293   3.696   8.407
47061SOL    HW243081  10.343   3.830   8.455
47062SOL     OW43082  14.496   8.998  13.050
47062SOL    HW143083  14.492   9.036  12.963
47062SOL    HW243084  14.579   9.029  13.087
47063SOL     OW43085   5.743  10.511   5.387
47063SOL    HW143086   5.663  10.463   5.409
47063SOL    HW243087   5.803  10.443   5.356
47064SOL     OW43088   0.980   1.142   1.122
47064SOL    HW143089   1.015   1.053   1.114
47064SOL    HW243090   0.932   1.157   1.041
47065SOL     OW43091   2.349   9.114   1.182
47065SOL    HW143092   2.356   9.162   1.265
47065SOL    HW243093   2.327   9.180   1.117
47066SOL     OW43094   4.567   4.243   9.476
47066SOL    HW143095   4.657   4.268   9.496
47066SOL    HW243096   4.563   4.242   9.381
47067SOL     OW43097   8.168   4.284   8.479
47067SOL    HW143098   8.253   4.287   8.435
47067SOL    HW243099   8.104   4.291   8.408
47068SOL     OW43100  11.234   6.875   1.085
47068SOL    HW143101  11.277   6.823   1.017
47068SOL    HW243102  11.303   6.895   1.148
47069SOL     OW43103   7.563   2.774   3.807
47069SOL    HW143104   7.607   2.812   3.883
47069SOL    HW243105   7.624   2.708   3.774
47070SOL     OW43106   9.686   3.072   4.341
47070SOL    HW143107   9.710   3.118   4.261
47070SOL    HW243108   9.590   3.079   4.345
47071SOL     OW43109   6.086   7.401   5.259
47071SOL    HW143110   6.006   7.351   5.272
47071SOL    HW243111   6.108   7.388   5.167
47072SOL     OW43112  11.684   1.712  11.253
47072SOL    HW143113  11.654   1.788  11.304
47072SOL    HW243114  11.639   1.720  11.169
47073SOL     OW43115   9.459   9.497  10.093
47073SOL    HW143116   9.426   9.587  10.085
47073SOL    HW243117   9.384   9.447  10.125
47074SOL     OW43118  10.470  11.371   8.211
47074SOL    HW143119  10.547  11.383   8.267
47074SOL    HW243120  10.443  11.460   8.187
47075SOL     OW43121   0.977   2.850   2.307
47075SOL    HW143122   1.061   2.825   2.346
47075SOL    HW243123   0.916   2.854   2.381
47076SOL     OW43124  11.687   1.313   0.949
47076SOL    HW143125  11.745   1.320   0.873
47076SOL    HW243126  11.600   1.333   0.915
47077SOL     OW43127   6.106   3.466  12.064
47077SOL    HW143128   6.058   3.481  11.982
47077SOL    HW243129   6.187   3.515  12.054
47078SOL     OW43130   1.845  10.357  11.748
47078SOL    HW143131   1.902  10.319  11.681
47078SOL    HW243132   1.863  10.451  11.744
47079SOL     OW43133   2.411   4.126  11.086
47079SOL    HW143134   2.318   4.129  11.108
47079SOL    HW243135   2.417   4.057  11.019
47080SOL     OW43136   7.899  10.505  11.016
47080SOL    HW143137   7.896  10.556  10.935
47080SOL    HW243138   7.832  10.438  11.006
47081SOL     OW43139   0.073  13.256  13.483
47081SOL    HW143140   0.003  13.275  13.545
47081SOL    HW243141   0.067  13.161  13.468
47082SOL     OW43142   4.047  11.534   9.125
47082SOL    HW143143   4.078  11.458   9.174
47082SOL    HW243144   4.038  11.603   9.191
47083SOL     OW43145   1.196   3.022   0.899
47083SOL    HW143146   1.205   2.930   0.877
47083SOL    HW243147   1.178   3.065   0.815
47084SOL     OW43148   2.923  11.776   0.215
47084SOL    HW143149   2.933  11.840   0.286
47084SOL    HW243150   3.004  11.725   0.217
47085SOL     OW43151   7.619   5.082   6.378
47085SOL    HW143152   7.585   5.078   6.467
47085SOL    HW243153   7.596   4.998   6.339
47086SOL     OW43154   5.146  11.363  10.803
47086SOL    HW143155   5.094  11.304  10.858
47086SOL    HW243156   5.226  11.314  10.784
47087SOL     OW43157   8.712   8.570   6.617
47087SOL    HW143158   8.715   8.494   6.559
47087SOL    HW243159   8.669   8.538   6.696
47088SOL     OW43160   0.271   3.521  12.751
47088SOL    HW143161   0.309   3.608  12.755
47088SOL    HW243162   0.326   3.474  12.688
47089SOL     OW43163   1.414   9.655  13.034
47089SOL    HW143164   1.331   9.697  13.014
47089SOL    HW243165   1.476   9.692  12.970
47090SOL     OW43166   3.431  11.785   6.894
47090SOL    HW143167   3.493  11.835   6.841
47090SOL    HW243168   3.366  11.849   6.923
47091SOL     OW43169   4.573  10.429  13.643
47091SOL    HW143170   4.647  10.395  13.592
47091SOL    HW243171   4.590  10.400  13.732
47092SOL     OW43172   8.547   7.005   0.340
47092SOL    HW143173   8.506   6.945   0.402
47092SOL    HW243174   8.477   7.028   0.279
47093SOL     OW43175   4.532   4.223   5.882
47093SOL    HW143176   4.522   4.200   5.790
47093SOL    HW243177   4.620   4.192   5.905
47094SOL     OW43178   2.902  13.848  10.734
47094SOL    HW143179   2.973  13.846  10.799
47094SOL    HW243180   2.833  13.795  10.774
47095SOL     OW43181  11.898  13.269  13.404
47095SOL    HW143182  11.931  13.325  13.474
47095SOL    HW243183  11.817  13.313  13.374
47096SOL     OW43184   5.725  11.267   7.217
47096SOL    HW143185   5.818  11.273   7.198
47096SOL    HW243186   5.684  11.331   7.159
47097SOL     OW43187   3.358   6.749   6.170
47097SOL    HW143188   3.418   6.709   6.234
47097SOL    HW243189   3.355   6.686   6.097
47098SOL     OW43190  12.414   1.115  10.089
47098SOL    HW143191  12.403   1.208  10.068
47098SOL    HW243192  12.506   1.108  10.115
47099SOL     OW43193   5.915   2.839   6.853
47099SOL    HW143194   5.997   2.813   6.811
47099SOL    HW243195   5.928   2.819   6.946
47100SOL     OW43196   9.246   6.350   1.444
47100SOL    HW143197   9.277   6.441   1.449
47100SOL    HW243198   9.155   6.358   1.415
47101SOL     OW43199   2.026   3.377  12.529
47101SOL    HW143200   2.119   3.394  12.545
47101SOL    HW243201   2.022   3.351  12.437
47102SOL     OW43202   1.103  13.611   3.653
47102SOL    HW143203   1.141  13.627   3.567
47102SOL    HW243204   1.010  13.597   3.636
47103SOL     OW43205   9.665   6.298  13.427
47103SOL    HW143206   9.665   6.394  13.432
47103SOL    HW243207   9.723   6.278  13.353
47104SOL     OW43208   7.310  14.703   4.399
47104SOL    HW143209   7.335  14.630   4.455
47104SOL    HW243210   7.230  14.738   4.438
47105SOL     OW43211   6.905   1.856   7.704
47105SOL    HW143212   6.998   1.846   7.725
47105SOL    HW243213   6.866   1.892   7.784
47106SOL     OW43214   8.854   0.072   1.993
47106SOL    HW143215   8.852  14.847   1.971
47106SOL    HW243216   8.899   0.075   2.078
47107SOL     OW43217   0.186   2.046  13.681
47107SOL    HW143218   0.134   2.088  13.612
47107SOL    HW243219   0.133   2.053  13.760
47108SOL     OW43220   3.985   2.842   5.093
47108SOL    HW143221   3.913   2.846   5.156
47108SOL    HW243222   3.989   2.930   5.055
47109SOL     OW43223  14.589  11.432   5.294
47109SOL    HW143224  14.610  11.519   5.328
47109SOL    HW243225  14.566  11.447   5.203
47110SOL     OW43226   9.808  10.101  12.486
47110SOL    HW143227   9.787  10.104  12.579
47110SOL    HW243228   9.767  10.179  12.450
47111SOL     OW43229   9.472   4.520  13.934
47111SOL    HW143230   9.450   4.545  13.844
47111SOL    HW243231   9.465   4.424  13.934
47112SOL     OW43232   0.379   3.235   3.643
47112SOL    HW143233   0.400   3.146   3.617
47112SOL    HW243234   0.320   3.226   3.718
47113SOL     OW43235   8.077   6.433  10.285
47113SOL    HW143236   7.987   6.436  10.251
47113SOL    HW243237   8.079   6.502  10.351
47114SOL     OW43238  12.364  11.284   5.472
47114SOL    HW143239  12.409  11.297   5.555
47114SOL    HW243240  12.434  11.275   5.408
47115SOL     OW43241  12.899   1.048   1.548
47115SOL    HW143242  12.890   1.143   1.552
47115SOL    HW243243  12.862   1.017   1.630
47116SOL     OW43244  12.761  12.429   3.997
47116SOL    HW143245  12.748  12.415   4.090
47116SOL    HW243246  12.814  12.509   3.991
47117SOL     OW43247   4.599   7.355  13.071
47117SOL    HW143248   4.564   7.410  13.141
47117SOL    HW243249   4.652   7.415  13.018
47118SOL     OW43250   9.630   5.703   9.773
47118SOL    HW143251   9.659   5.612   9.777
47118SOL    HW243252   9.649   5.731   9.683
47119SOL     OW43253   6.523   9.249   0.596
47119SOL    HW143254   6.528   9.343   0.578
47119SOL    HW243255   6.525   9.243   0.691
47120SOL     OW43256   2.381  12.435   4.535
47120SOL    HW143257   2.414  12.348   4.557
47120SOL    HW243258   2.329  12.462   4.611
47121SOL     OW43259  11.167  14.782   9.302
47121SOL    HW143260  11.081  14.740   9.310
47121SOL    HW243261  11.148   0.007   9.301
47122SOL     OW43262  12.981   4.562   7.607
47122SOL    HW143263  12.954   4.539   7.696
47122SOL    HW243264  13.045   4.495   7.583
47123SOL     OW43265   6.168   3.992   5.059
47123SOL    HW143266   6.128   4.014   4.975
47123SOL    HW243267   6.150   4.068   5.114
47124SOL     OW43268   6.157   0.416   2.700
47124SOL    HW143269   6.215   0.449   2.769
47124SOL    HW243270   6.070   0.445   2.726
47125SOL     OW43271  11.283   4.569   5.217
47125SOL    HW143272  11.292   4.489   5.166
47125SOL    HW243273  11.302   4.543   5.307
47126SOL     OW43274   8.695  14.227   2.978
47126SOL    HW143275   8.714  14.175   3.056
47126SOL    HW243276   8.761  14.200   2.914
47127SOL     OW43277   2.669   9.825   9.592
47127SOL    HW143278   2.617   9.877   9.530
47127SOL    HW243279   2.721   9.767   9.536
47128SOL     OW43280   4.663  12.028  13.537
47128SOL    HW143281   4.693  11.986  13.455
47128SOL    HW243282   4.723  12.102  13.549
47129SOL     OW43283  13.200   3.165   7.220
47129SOL    HW143284  13.204   3.077   7.259
47129SOL    HW243285  13.219   3.151   7.127
47130SOL     OW43286  12.075   2.928   4.998
47130SOL    HW143287  12.007   2.995   5.011
47130SOL    HW243288  12.156   2.978   4.993
47131SOL     OW43289  14.475   6.182   9.162
47131SOL    HW143290  14.395   6.155   9.207
47131SOL    HW243291  14.479   6.127   9.084
47132SOL     OW43292   1.979   2.089   3.728
47132SOL    HW143293   2.064   2.071   3.687
47132SOL    HW243294   1.946   2.003   3.754
47133SOL     OW43295   7.374   9.404  11.635
47133SOL    HW143296   7.412   9.482  11.595
47133SOL    HW243297   7.323   9.364  11.565
47134SOL     OW43298   0.601   4.398   1.882
47134SOL    HW143299   0.553   4.333   1.933
47134SOL    HW243300   0.672   4.348   1.841
47135SOL     OW43301  13.106   4.602  13.953
47135SOL    HW143302  13.022   4.565  13.924
47135SOL    HW243303  13.171   4.560  13.897
47136SOL     OW43304  13.423   3.918   4.714
47136SOL    HW143305  13.352   3.932   4.652
47136SOL    HW243306  13.503   3.934   4.664
47137SOL     OW43307  11.479   7.403   8.784
47137SOL    HW143308  11.441   7.379   8.868
47137SOL    HW243309  11.565   7.438   8.805
47138SOL     OW43310   5.317   6.100   5.374
47138SOL    HW143311   5.406   6.126   5.346
47138SOL    HW243312   5.300   6.019   5.327
47139SOL     OW43313   8.900   0.872   3.008
47139SOL    HW143314   8.981   0.869   2.958
47139SOL    HW243315   8.900   0.791   3.059
47140SOL     OW43316  13.038   8.775  10.062
47140SOL    HW143317  13.114   8.727  10.030
47140SOL    HW243318  13.037   8.856  10.011
47141SOL     OW43319  12.891   8.456  13.781
47141SOL    HW143320  12.850   8.542  13.772
47141SOL    HW243321  12.818   8.394  13.772
47142SOL     OW43322   9.088   7.415   5.415
47142SOL    HW143323   9.129   7.490   5.457
47142SOL    HW243324   9.162   7.362   5.383
47143SOL     OW43325   5.474  10.490   2.414
47143SOL    HW143326   5.565  10.477   2.388
47143SOL    HW243327   5.446  10.568   2.367
47144SOL     OW43328  12.217   5.237   8.102
47144SOL    HW143329  12.294   5.195   8.140
47144SOL    HW243330  12.216   5.208   8.011
47145SOL     OW43331   7.702  12.075  14.166
47145SOL    HW143332   7.757  12.101  14.092
47145SOL    HW243333   7.703  12.152  14.224
47146SOL     OW43334   0.111   1.134   8.645
47146SOL    HW143335   0.154   1.175   8.721
47146SOL    HW243336   0.182   1.088   8.600
47147SOL     OW43337  12.042   1.938   7.806
47147SOL    HW143338  11.984   1.882   7.755
47147SOL    HW243339  11.993   1.959   7.885
47148SOL     OW43340   5.623   2.669  14.590
47148SOL    HW143341   5.661   2.581  14.593
47148SOL    HW243342   5.529   2.653  14.581
47149SOL     OW43343   7.405  10.724   7.136
47149SOL    HW143344   7.434  10.801   7.088
47149SOL    HW243345   7.446  10.650   7.091
47150SOL     OW43346   3.296  13.911  11.130
47150SOL    HW143347   3.283  14.002  11.159
47150SOL    HW243348   3.388  13.907  11.104
47151SOL     OW43349   6.242  12.063   7.998
47151SOL    HW143350   6.306  12.050   8.069
47151SOL    HW243351   6.282  12.130   7.943
47152SOL     OW43352   7.308  12.371   8.990
47152SOL    HW143353   7.365  12.318   8.935
47152SOL    HW243354   7.337  12.354   9.080
47153SOL     OW43355   4.119  10.046   9.702
47153SOL    HW143356   4.168   9.966   9.684
47153SOL    HW243357   4.109  10.089   9.617
47154SOL     OW43358   0.501  12.837   9.860
47154SOL    HW143359   0.467  12.777   9.793
47154SOL    HW243360   0.524  12.780   9.934
47155SOL     OW43361   1.244  12.188  12.535
47155SOL    HW143362   1.254  12.280  12.558
47155SOL    HW243363   1.153  12.180  12.504
47156SOL     OW43364   7.633  11.956   4.096
47156SOL    HW143365   7.677  11.912   4.169
47156SOL    HW243366   7.702  11.972   4.032
47157SOL     OW43367   9.331   8.409   3.004
47157SOL    HW143368   9.275   8.421   3.080
47157SOL    HW243369   9.276   8.433   2.929
47158SOL     OW43370  11.288   3.527   4.820
47158SOL    HW143371  11.373   3.510   4.861
47158SOL    HW243372  11.229   3.465   4.863
47159SOL     OW43373   8.245   6.203   4.198
47159SOL    HW143374   8.251   6.259   4.275
47159SOL    HW243375   8.334   6.204   4.162
47160SOL     OW43376  11.799   8.217   3.518
47160SOL    HW143377  11.843   8.142   3.476
47160SOL    HW243378  11.849   8.231   3.599
47161SOL     OW43379   4.342   3.717   7.871
47161SOL    HW143380   4.306   3.805   7.863
47161SOL    HW243381   4.314   3.688   7.958
47162SOL     OW43382   7.030   0.382   0.738
47162SOL    HW143383   6.973   0.386   0.815
47162SOL    HW243384   7.034   0.289   0.715
47163SOL     OW43385  11.509  12.659   1.100
47163SOL    HW143386  11.518  12.707   1.182
47163SOL    HW243387  11.573  12.588   1.107
47164SOL     OW43388   3.407  13.030   4.635
47164SOL    HW143389   3.334  12.968   4.634
47164SOL    HW243390   3.485  12.975   4.632
47165SOL     OW43391   3.028   5.114   9.109
47165SOL    HW143392   2.943   5.073   9.092
47165SOL    HW243393   3.017   5.205   9.081
47166SOL     OW43394   4.353   7.358   7.634
47166SOL    HW143395   4.401   7.417   7.694
47166SOL    HW243396   4.277   7.330   7.685
47167SOL     OW43397   9.607  10.463   7.941
47167SOL    HW143398   9.561  10.487   7.860
47167SOL    HW243399   9.680  10.408   7.912
47168SOL     OW43400   2.804  12.880  12.620
47168SOL    HW143401   2.752  12.873  12.540
47168SOL    HW243402   2.868  12.809  12.613
47169SOL     OW43403   3.753  13.518  12.042
47169SOL    HW143404   3.684  13.456  12.063
47169SOL    HW243405   3.725  13.558  11.960
47170SOL     OW43406  11.942   9.099   8.856
47170SOL    HW143407  11.980   9.187   8.853
47170SOL    HW243408  11.848   9.113   8.851
47171SOL     OW43409  12.627   1.723  13.361
47171SOL    HW143410  12.582   1.742  13.279
47171SOL    HW243411  12.685   1.650  13.341
47172SOL     OW43412  11.272   1.233   1.182
47172SOL    HW143413  11.230   1.310   1.219
47172SOL    HW243414  11.215   1.207   1.109
47173SOL     OW43415   8.072  14.254   0.491
47173SOL    HW143416   8.034  14.333   0.453
47173SOL    HW243417   7.997  14.205   0.524
47174SOL     OW43418   0.108  13.046   1.803
47174SOL    HW143419   0.035  12.984   1.809
47174SOL    HW243420   0.101  13.098   1.883
47175SOL     OW43421  11.134  11.068  13.821
47175SOL    HW143422  11.123  11.162  13.806
47175SOL    HW243423  11.112  11.055  13.913
47176SOL     OW43424  13.025   6.581   5.077
47176SOL    HW143425  13.067   6.640   5.014
47176SOL    HW243426  13.092   6.563   5.142
47177SOL     OW43427   5.938   3.639   7.291
47177SOL    HW143428   5.880   3.676   7.357
47177SOL    HW243429   5.987   3.571   7.337
47178SOL     OW43430  14.272   5.863   0.308
47178SOL    HW143431  14.278   5.942   0.254
47178SOL    HW243432  14.362   5.831   0.314
47179SOL     OW43433   6.206   9.685   7.884
47179SOL    HW143434   6.163   9.646   7.808
47179SOL    HW243435   6.136   9.730   7.931
47180SOL     OW43436   8.073  11.721   2.560
47180SOL    HW143437   8.046  11.682   2.644
47180SOL    HW243438   8.003  11.781   2.538
47181SOL     OW43439  13.265  12.989   3.819
47181SOL    HW143440  13.223  12.937   3.750
47181SOL    HW243441  13.248  13.080   3.794
47182SOL     OW43442   9.192  13.140   6.904
47182SOL    HW143443   9.223  13.163   6.817
47182SOL    HW243444   9.145  13.057   6.892
47183SOL     OW43445   3.925   9.166   2.559
47183SOL    HW143446   3.979   9.164   2.480
47183SOL    HW243447   3.835   9.162   2.526
47184SOL     OW43448   3.503   8.948   9.363
47184SOL    HW143449   3.445   8.955   9.439
47184SOL    HW243450   3.461   9.002   9.296
47185SOL     OW43451   4.283   1.057  14.679
47185SOL    HW143452   4.360   1.100  14.716
47185SOL    HW243453   4.272   0.977  14.730
47186SOL     OW43454  12.087  13.774  13.756
47186SOL    HW143455  12.050  13.777  13.668
47186SOL    HW243456  12.016  13.804  13.813
47187SOL     OW43457   5.015   4.780   8.931
47187SOL    HW143458   5.058   4.734   8.859
47187SOL    HW243459   4.949   4.719   8.962
47188SOL     OW43460   1.397   2.534   3.270
47188SOL    HW143461   1.362   2.574   3.350
47188SOL    HW243462   1.428   2.448   3.298
47189SOL     OW43463  11.963  10.617  14.770
47189SOL    HW143464  11.906  10.628  14.694
47189SOL    HW243465  12.047  10.655  14.743
47190SOL     OW43466   2.120   7.447   9.387
47190SOL    HW143467   2.187   7.427   9.452
47190SOL    HW243468   2.041   7.465   9.439
47191SOL     OW43469   0.421   6.061   7.701
47191SOL    HW143470   0.493   6.123   7.708
47191SOL    HW243471   0.343   6.116   7.692
47192SOL     OW43472   4.247   9.806   5.406
47192SOL    HW143473   4.240   9.718   5.444
47192SOL    HW243474   4.228   9.793   5.313
47193SOL     OW43475   0.155   2.687   6.492
47193SOL    HW143476   0.241   2.708   6.455
47193SOL    HW243477   0.112   2.772   6.501
47194SOL     OW43478   8.989  13.740   3.413
47194SOL    HW143479   9.011  13.694   3.495
47194SOL    HW243480   8.918  13.689   3.375
47195SOL     OW43481  13.962   3.481   2.293
47195SOL    HW143482  14.007   3.551   2.246
47195SOL    HW243483  13.869   3.501   2.281
47196SOL     OW43484  10.454   3.458   7.954
47196SOL    HW143485  10.502   3.519   7.898
47196SOL    HW243486  10.495   3.466   8.040
47197SOL     OW43487  13.551   1.892  14.156
47197SOL    HW143488  13.637   1.909  14.117
47197SOL    HW243489  13.532   1.971  14.208
47198SOL     OW43490  12.432  14.102   7.953
47198SOL    HW143491  12.526  14.120   7.960
47198SOL    HW243492  12.412  14.115   7.860
47199SOL     OW43493   0.906   3.391   5.296
47199SOL    HW143494   0.886   3.483   5.314
47199SOL    HW243495   0.822   3.352   5.276
47200SOL     OW43496   0.445   6.815   1.959
47200SOL    HW143497   0.510   6.816   2.029
47200SOL    HW243498   0.405   6.901   1.962
47201SOL     OW43499   6.101   8.176  13.157
47201SOL    HW143500   6.173   8.239  13.161
47201SOL    HW243501   6.033   8.221  13.108
47202SOL     OW43502  11.026   6.534   2.711
47202SOL    HW143503  10.990   6.563   2.795
47202SOL    HW243504  11.121   6.535   2.723
47203SOL     OW43505   6.840   1.706   3.030
47203SOL    HW143506   6.845   1.801   3.013
47203SOL    HW243507   6.897   1.693   3.106
47204SOL     OW43508   5.849   4.242  12.861
47204SOL    HW143509   5.902   4.322  12.856
47204SOL    HW243510   5.914   4.173  12.876
47205SOL     OW43511  10.652   4.714   4.193
47205SOL    HW143512  10.594   4.788   4.209
47205SOL    HW243513  10.636   4.692   4.101
47206SOL     OW43514   4.086  13.565   2.096
47206SOL    HW143515   3.998  13.532   2.077
47206SOL    HW243516   4.073  13.658   2.113
47207SOL     OW43517   6.479   0.226   6.165
47207SOL    HW143518   6.430   0.239   6.084
47207SOL    HW243519   6.524   0.310   6.179
47208SOL     OW43520  10.937   6.019   8.875
47208SOL    HW143521  10.890   6.101   8.859
47208SOL    HW243522  10.986   6.034   8.956
47209SOL     OW43523   1.632  13.100   0.307
47209SOL    HW143524   1.624  13.161   0.233
47209SOL    HW243525   1.663  13.018   0.268
47210SOL     OW43526   5.681   7.336   9.287
47210SOL    HW143527   5.663   7.243   9.280
47210SOL    HW243528   5.745   7.343   9.358
47211SOL     OW43529   4.452  11.499   7.219
47211SOL    HW143530   4.428  11.530   7.306
47211SOL    HW243531   4.407  11.559   7.159
47212SOL     OW43532   3.074   7.974   3.272
47212SOL    HW143533   3.168   7.955   3.272
47212SOL    HW243534   3.068   8.067   3.295
47213SOL     OW43535   5.261  12.574   2.084
47213SOL    HW143536   5.309  12.631   2.145
47213SOL    HW243537   5.328  12.518   2.046
47214SOL     OW43538   4.797  14.178  13.516
47214SOL    HW143539   4.739  14.145  13.584
47214SOL    HW243540   4.789  14.115  13.445
47215SOL     OW43541   3.806   0.322   4.874
47215SOL    HW143542   3.807   0.272   4.791
47215SOL    HW243543   3.742   0.276   4.928
47216SOL     OW43544   1.848   3.693  11.103
47216SOL    HW143545   1.892   3.619  11.144
47216SOL    HW243546   1.830   3.753  11.176
47217SOL     OW43547  14.058   0.410   1.884
47217SOL    HW143548  13.982   0.386   1.937
47217SOL    HW243549  14.031   0.490   1.838
47218SOL     OW43550   3.358   0.980  10.241
47218SOL    HW143551   3.413   1.042  10.289
47218SOL    HW243552   3.408   0.898  10.241
47219SOL     OW43553   8.326   0.530   1.381
47219SOL    HW143554   8.290   0.615   1.355
47219SOL    HW243555   8.253   0.486   1.424
47220SOL     OW43556   6.455   5.714   7.182
47220SOL    HW143557   6.428   5.671   7.263
47220SOL    HW243558   6.496   5.644   7.131
47221SOL     OW43559   5.399   4.946   7.295
47221SOL    HW143560   5.463   5.002   7.252
47221SOL    HW243561   5.435   4.931   7.383
47222SOL     OW43562  10.471   1.018   3.219
47222SOL    HW143563  10.526   1.035   3.295
47222SOL    HW243564  10.400   0.962   3.252
47223SOL     OW43565   1.841   8.276  14.824
47223SOL    HW143566   1.802   8.201   0.001
47223SOL    HW243567   1.771   8.313  14.771
47224SOL     OW43568   6.313  11.045  14.814
47224SOL    HW143569   6.270  10.969  14.853
47224SOL    HW243570   6.243  11.094  14.771
47225SOL     OW43571   2.608   1.864   9.129
47225SOL    HW143572   2.669   1.919   9.179
47225SOL    HW243573   2.657   1.840   9.050
47226SOL     OW43574   4.812   6.458   6.644
47226SOL    HW143575   4.800   6.504   6.727
47226SOL    HW243576   4.750   6.501   6.584
47227SOL     OW43577   6.565   8.358   6.551
47227SOL    HW143578   6.496   8.386   6.491
47227SOL    HW243579   6.518   8.330   6.630
47228SOL     OW43580   1.220  12.336  11.352
47228SOL    HW143581   1.290  12.321  11.289
47228SOL    HW243582   1.158  12.265  11.335
47229SOL     OW43583   8.048   1.858   6.406
47229SOL    HW143584   8.036   1.765   6.387
47229SOL    HW243585   8.138   1.877   6.380
47230SOL     OW43586   7.088   4.843  12.041
47230SOL    HW143587   7.053   4.929  12.016
47230SOL    HW243588   7.157   4.825  11.977
47231SOL     OW43589   1.526   3.494   5.972
47231SOL    HW143590   1.443   3.507   5.927
47231SOL    HW243591   1.546   3.579   6.012
47232SOL     OW43592   2.978  14.552  11.519
47232SOL    HW143593   2.888  14.525  11.500
47232SOL    HW243594   2.984  14.641  11.486
47233SOL     OW43595   5.478  11.352   8.062
47233SOL    HW143596   5.550  11.409   8.035
47233SOL    HW243597   5.511  11.263   8.049
47234SOL     OW43598   1.211   6.530  11.503
47234SOL    HW143599   1.176   6.478  11.575
47234SOL    HW243600   1.213   6.470  11.428
47235SOL     OW43601  13.756  13.055   9.989
47235SOL    HW143602  13.851  13.047   9.989
47235SOL    HW243603  13.726  12.987  10.050
47236SOL     OW43604   8.279   5.022   4.552
47236SOL    HW143605   8.356   5.079   4.560
47236SOL    HW243606   8.207   5.074   4.588
47237SOL     OW43607   1.652   7.977  10.671
47237SOL    HW143608   1.618   7.935  10.750
47237SOL    HW243609   1.577   8.026  10.637
47238SOL     OW43610   0.463  12.286   3.408
47238SOL    HW143611   0.430  12.197   3.416
47238SOL    HW243612   0.415  12.335   3.474
47239SOL     OW43613   9.694   5.098   5.786
47239SOL    HW143614   9.717   5.190   5.797
47239SOL    HW243615   9.769   5.060   5.740
47240SOL     OW43616   6.737   6.614   0.225
47240SOL    HW143617   6.785   6.565   0.158
47240SOL    HW243618   6.805   6.645   0.285
47241SOL     OW43619   9.443   4.128  12.203
47241SOL    HW143620   9.419   4.117  12.111
47241SOL    HW243621   9.538   4.117  12.205
47242SOL     OW43622  12.000   1.290  10.898
47242SOL    HW143623  11.974   1.201  10.872
47242SOL    HW243624  12.086   1.302  10.858
47243SOL     OW43625  14.680   9.585   0.943
47243SOL    HW143626  14.729   9.551   0.868
47243SOL    HW243627  14.696   9.522   1.013
47244SOL     OW43628   6.681   8.236  14.611
47244SOL    HW143629   6.723   8.195  14.535
47244SOL    HW243630   6.638   8.164  14.657
47245SOL     OW43631   2.884   6.828   6.119
47245SOL    HW143632   2.923   6.775   6.188
47245SOL    HW243633   2.939   6.906   6.114
47246SOL     OW43634   2.088   1.944   3.100
47246SOL    HW143635   2.000   1.924   3.133
47246SOL    HW243636   2.079   1.942   3.005
47247SOL     OW43637  14.813  10.413   6.963
47247SOL    HW143638  14.756  10.489   6.950
47247SOL    HW243639  14.783  10.349   6.898
47248SOL     OW43640   7.160  13.307  13.676
47248SOL    HW143641   7.208  13.312  13.594
47248SOL    HW243642   7.095  13.377  13.670
47249SOL     OW43643  10.601  12.072   5.544
47249SOL    HW143644  10.569  12.000   5.491
47249SOL    HW243645  10.612  12.035   5.632
47250SOL     OW43646  10.521  12.507   3.439
47250SOL    HW143647  10.584  12.482   3.506
47250SOL    HW243648  10.558  12.473   3.357
47251SOL     OW43649   1.624   1.440   5.364
47251SOL    HW143650   1.591   1.522   5.400
47251SOL    HW243651   1.718   1.441   5.384
47252SOL     OW43652  13.642   1.555   4.577
47252SOL    HW143653  13.586   1.632   4.584
47252SOL    HW243654  13.606   1.493   4.641
47253SOL     OW43655   6.171   0.675   6.483
47253SOL    HW143656   6.223   0.741   6.437
47253SOL    HW243657   6.204   0.678   6.573
47254SOL     OW43658   1.529  10.509  14.751
47254SOL    HW143659   1.448  10.558  14.739
47254SOL    HW243660   1.596  10.564  14.710
47255SOL     OW43661  11.312   6.647   0.473
47255SOL    HW143662  11.243   6.598   0.518
47255SOL    HW243663  11.325   6.725   0.528
47256SOL     OW43664  11.135  11.536  12.455
47256SOL    HW143665  11.064  11.542  12.392
47256SOL    HW243666  11.092  11.536  12.540
47257SOL     OW43667  13.939   3.228   2.154
47257SOL    HW143668  13.971   3.247   2.242
47257SOL    HW243669  14.002   3.166   2.118
47258SOL     OW43670  13.017   0.231   8.552
47258SOL    HW143671  13.014   0.230   8.456
47258SOL    HW243672  13.046   0.143   8.577
47259SOL     OW43673   4.829   5.828   8.533
47259SOL    HW143674   4.913   5.858   8.568
47259SOL    HW243675   4.834   5.733   8.535
47260SOL     OW43676   7.135  11.599  12.536
47260SOL    HW143677   7.059  11.627  12.485
47260SOL    HW243678   7.185  11.544  12.476
47261SOL     OW43679   9.476   0.029   5.986
47261SOL    HW143680   9.516  14.839   5.921
47261SOL    HW243681   9.521   0.007   6.068
47262SOL     OW43682   2.462   5.243   7.294
47262SOL    HW143683   2.395   5.227   7.228
47262SOL    HW243684   2.414   5.247   7.377
47263SOL     OW43685   7.920  12.112  12.256
47263SOL    HW143686   7.862  12.062  12.199
47263SOL    HW243687   7.865  12.182  12.291
47264SOL     OW43688   5.019   5.874  12.365
47264SOL    HW143689   5.074   5.953  12.370
47264SOL    HW243690   4.958   5.891  12.294
47265SOL     OW43691   8.054   2.437  14.697
47265SOL    HW143692   7.977   2.401  14.654
47265SOL    HW243693   8.019   2.503  14.756
47266SOL     OW43694  14.536   1.339   8.428
47266SOL    HW143695  14.511   1.424   8.464
47266SOL    HW243696  14.632   1.341   8.427
47267SOL     OW43697  11.674  12.936  14.661
47267SOL    HW143698  11.594  12.946  14.713
47267SOL    HW243699  11.656  12.862  14.603
47268SOL     OW43700  12.155  12.774   3.849
47268SOL    HW143701  12.065  12.765   3.818
47268SOL    HW243702  12.178  12.687   3.881
47269SOL     OW43703   4.421   8.439  14.740
47269SOL    HW143704   4.419   8.499  14.815
47269SOL    HW243705   4.338   8.390  14.747
47270SOL     OW43706  14.564   4.674   4.970
47270SOL    HW143707  14.534   4.750   5.021
47270SOL    HW243708  14.648   4.701   4.934
47271SOL     OW43709   4.352   5.754   8.740
47271SOL    HW143710   4.405   5.793   8.670
47271SOL    HW243711   4.273   5.808   8.742
47272SOL     OW43712   4.259  12.259  10.393
47272SOL    HW143713   4.314  12.250  10.471
47272SOL    HW243714   4.259  12.172  10.353
47273SOL     OW43715   9.426   3.256   0.483
47273SOL    HW143716   9.427   3.348   0.459
47273SOL    HW243717   9.439   3.209   0.401
47274SOL     OW43718   5.316  10.104   1.425
47274SOL    HW143719   5.304  10.148   1.340
47274SOL    HW243720   5.372  10.163   1.474
47275SOL     OW43721   0.076   0.263   3.023
47275SOL    HW143722   0.138   0.329   3.054
47275SOL    HW243723   0.050   0.215   3.101
47276SOL     OW43724   8.919   0.729   2.433
47276SOL    HW143725   9.012   0.730   2.412
47276SOL    HW243726   8.875   0.753   2.352
47277SOL     OW43727   1.406   7.403   5.717
47277SOL    HW143728   1.394   7.497   5.731
47277SOL    HW243729   1.477   7.378   5.776
47278SOL     OW43730  13.612   3.120   1.189
47278SOL    HW143731  13.569   3.102   1.106
47278SOL    HW243732  13.573   3.059   1.251
47279SOL     OW43733   7.561   6.647   6.154
47279SOL    HW143734   7.616   6.716   6.190
47279SOL    HW243735   7.473   6.666   6.185
47280SOL     OW43736   9.969   1.040  12.706
47280SOL    HW143737  10.028   1.032  12.632
47280SOL    HW243738   9.889   0.996  12.678
47281SOL     OW43739   4.342   5.853   4.363
47281SOL    HW143740   4.247   5.870   4.362
47281SOL    HW243741   4.363   5.832   4.272
47282SOL     OW43742  14.278   7.796   8.976
47282SOL    HW143743  14.351   7.835   9.024
47282SOL    HW243744  14.294   7.819   8.885
47283SOL     OW43745   0.628   0.417  10.829
47283SOL    HW143746   0.585   0.347  10.780
47283SOL    HW243747   0.684   0.461  10.765
47284SOL     OW43748  10.070   6.673  13.901
47284SOL    HW143749  10.116   6.668  13.817
47284SOL    HW243750  10.011   6.747  13.892
47285SOL     OW43751   8.406   8.965  14.867
47285SOL    HW143752   8.478   8.977   0.061
47285SOL    HW243753   8.333   8.934   0.053
47286SOL     OW43754  10.678  11.941   7.729
47286SOL    HW143755  10.743  11.991   7.779
47286SOL    HW243756  10.593  11.975   7.759
47287SOL     OW43757  13.851   9.780   4.059
47287SOL    HW143758  13.798   9.815   4.130
47287SOL    HW243759  13.918   9.727   4.102
47288SOL     OW43760   2.993  11.163  11.473
47288SOL    HW143761   3.036  11.248  11.469
47288SOL    HW243762   3.016  11.120  11.391
47289SOL     OW43763   9.151   9.006  14.283
47289SOL    HW143764   9.097   9.084  14.292
47289SOL    HW243765   9.176   9.005  14.191
47290SOL     OW43766  14.757  12.235  13.886
47290SOL    HW143767  14.773  12.203  13.975
47290SOL    HW243768  14.664  12.257  13.885
47291SOL     OW43769   7.507  12.188   5.115
47291SOL    HW143770   7.471  12.100   5.102
47291SOL    HW243771   7.553  12.208   5.033
47292SOL     OW43772   3.016   7.132  13.195
47292SOL    HW143773   2.965   7.063  13.238
47292SOL    HW243774   3.051   7.090  13.116
47293SOL     OW43775  11.373   8.952   9.093
47293SOL    HW143776  11.388   8.968   9.000
47293SOL    HW243777  11.418   8.869   9.112
47294SOL     OW43778   0.666   8.094  12.184
47294SOL    HW143779   0.717   8.119  12.107
47294SOL    HW243780   0.682   8.000  12.194
47295SOL     OW43781   4.848   9.058   6.095
47295SOL    HW143782   4.884   8.995   6.158
47295SOL    HW243783   4.762   9.022   6.074
47296SOL     OW43784  11.518  13.657   2.471
47296SOL    HW143785  11.433  13.614   2.475
47296SOL    HW243786  11.576  13.601   2.522
47297SOL     OW43787   8.400   1.399   6.796
47297SOL    HW143788   8.342   1.357   6.733
47297SOL    HW243789   8.449   1.326   6.836
47298SOL     OW43790   0.808   7.120   8.244
47298SOL    HW143791   0.843   7.061   8.310
47298SOL    HW243792   0.864   7.108   8.168
47299SOL     OW43793  12.999   9.433  12.052
47299SOL    HW143794  12.907   9.419  12.076
47299SOL    HW243795  13.048   9.408  12.131
47300SOL     OW43796   9.848   2.722   8.733
47300SOL    HW143797   9.890   2.658   8.789
47300SOL    HW243798   9.780   2.673   8.686
47301SOL     OW43799   4.013   0.645  11.392
47301SOL    HW143800   4.094   0.688  11.419
47301SOL    HW243801   3.952   0.718  11.378
47302SOL     OW43802   6.995  11.739  11.167
47302SOL    HW143803   6.990  11.763  11.260
47302SOL    HW243804   6.944  11.806  11.122
47303SOL     OW43805   3.598   9.525   3.015
47303SOL    HW143806   3.639   9.610   2.997
47303SOL    HW243807   3.602   9.478   2.931
47304SOL     OW43808  10.786   1.179   7.207
47304SOL    HW143809  10.690   1.170   7.206
47304SOL    HW243810  10.810   1.178   7.299
47305SOL     OW43811   3.919   9.858  10.406
47305SOL    HW143812   4.000   9.886  10.364
47305SOL    HW243813   3.856   9.927  10.384
47306SOL     OW43814   5.429  12.896   2.908
47306SOL    HW143815   5.422  12.986   2.938
47306SOL    HW243816   5.362  12.849   2.959
47307SOL     OW43817   8.481  13.463   0.793
47307SOL    HW143818   8.539  13.428   0.725
47307SOL    HW243819   8.502  13.556   0.797
47308SOL     OW43820  11.262   4.259  11.840
47308SOL    HW143821  11.197   4.251  11.910
47308SOL    HW243822  11.249   4.347  11.806
47309SOL     OW43823   8.383   2.755   5.832
47309SOL    HW143824   8.397   2.690   5.901
47309SOL    HW243825   8.451   2.821   5.847
47310SOL     OW43826  11.026  12.396   4.438
47310SOL    HW143827  10.942  12.430   4.406
47310SOL    HW243828  11.005  12.350   4.519
47311SOL     OW43829  13.036   7.920   3.163
47311SOL    HW143830  13.051   8.009   3.133
47311SOL    HW243831  12.998   7.875   3.088
47312SOL     OW43832   3.655   8.030   2.149
47312SOL    HW143833   3.690   7.945   2.123
47312SOL    HW243834   3.576   8.041   2.097
47313SOL     OW43835   2.024  10.965   2.858
47313SOL    HW143836   1.989  10.945   2.944
47313SOL    HW243837   2.091  11.032   2.873
47314SOL     OW43838   4.748   2.232  11.157
47314SOL    HW143839   4.726   2.313  11.203
47314SOL    HW243840   4.748   2.257  11.064
47315SOL     OW43841  11.396  10.653  14.412
47315SOL    HW143842  11.462  10.707  14.366
47315SOL    HW243843  11.317  10.706  14.409
47316SOL     OW43844   1.828  12.452   3.224
47316SOL    HW143845   1.788  12.443   3.138
47316SOL    HW243846   1.756  12.473   3.283
47317SOL     OW43847   4.526  14.710   2.214
47317SOL    HW143848   4.512  14.646   2.284
47317SOL    HW243849   4.524  14.795   2.258
47318SOL     OW43850   7.377   4.461   8.543
47318SOL    HW143851   7.283   4.471   8.532
47318SOL    HW243852   7.387   4.383   8.597
47319SOL     OW43853   9.737  11.650  12.903
47319SOL    HW143854   9.777  11.737  12.899
47319SOL    HW243855   9.700  11.644  12.990
47320SOL     OW43856   0.658   8.428   1.731
47320SOL    HW143857   0.576   8.475   1.713
47320SOL    HW243858   0.639   8.337   1.710
47321SOL     OW43859   6.028   8.225   0.764
47321SOL    HW143860   5.962   8.261   0.705
47321SOL    HW243861   6.112   8.244   0.722
47322SOL     OW43862  13.008   0.538   9.300
47322SOL    HW143863  13.010   0.485   9.220
47322SOL    HW243864  12.926   0.587   9.294
47323SOL     OW43865   7.710   1.325  10.221
47323SOL    HW143866   7.705   1.314  10.316
47323SOL    HW243867   7.669   1.246  10.185
47324SOL     OW43868  10.526   3.339  12.905
47324SOL    HW143869  10.431   3.346  12.914
47324SOL    HW243870  10.561   3.408  12.962
47325SOL     OW43871   0.244   3.274   8.099
47325SOL    HW143872   0.291   3.260   8.181
47325SOL    HW243873   0.158   3.307   8.126
47326SOL     OW43874   1.645   8.499   3.852
47326SOL    HW143875   1.594   8.443   3.793
47326SOL    HW243876   1.736   8.486   3.826
47327SOL     OW43877   2.916  12.748   6.422
47327SOL    HW143878   2.828  12.766   6.454
47327SOL    HW243879   2.953  12.688   6.487
47328SOL     OW43880  13.836   9.540  12.571
47328SOL    HW143881  13.904   9.604  12.592
47328SOL    HW243882  13.771   9.590  12.521
47329SOL     OW43883  12.995   5.144   3.784
47329SOL    HW143884  12.963   5.215   3.840
47329SOL    HW243885  13.081   5.122   3.818
47330SOL     OW43886   7.484  10.689   4.355
47330SOL    HW143887   7.454  10.623   4.293
47330SOL    HW243888   7.425  10.764   4.341
47331SOL     OW43889   6.782  11.329   6.223
47331SOL    HW143890   6.694  11.302   6.250
47331SOL    HW243891   6.787  11.422   6.248
47332SOL     OW43892  10.588  10.850   9.394
47332SOL    HW143893  10.599  10.772   9.339
47332SOL    HW243894  10.497  10.846   9.424
47333SOL     OW43895   7.864  10.791   8.686
47333SOL    HW143896   7.845  10.744   8.767
47333SOL    HW243897   7.848  10.727   8.617
47334SOL     OW43898  11.710   8.896   2.144
47334SOL    HW143899  11.786   8.934   2.189
47334SOL    HW243900  11.727   8.910   2.051
47335SOL     OW43901   1.108   4.206   3.105
47335SOL    HW143902   1.157   4.255   3.172
47335SOL    HW243903   1.098   4.119   3.143
47336SOL     OW43904   1.618  14.733   3.598
47336SOL    HW143905   1.551  14.727   3.530
47336SOL    HW243906   1.630  14.827   3.612
47337SOL     OW43907  11.275   0.136   8.213
47337SOL    HW143908  11.180   0.129   8.206
47337SOL    HW243909  11.307   0.048   8.197
47338SOL     OW43910   8.985  10.237   9.022
47338SOL    HW143911   8.993  10.142   9.034
47338SOL    HW243912   8.951  10.247   8.933
47339SOL     OW43913   3.829   1.619   3.510
47339SOL    HW143914   3.847   1.713   3.507
47339SOL    HW243915   3.845   1.595   3.602
47340SOL     OW43916   9.232   5.604   3.628
47340SOL    HW143917   9.140   5.591   3.607
47340SOL    HW243918   9.247   5.550   3.706
47341SOL     OW43919   0.578   4.562  14.206
47341SOL    HW143920   0.663   4.557  14.162
47341SOL    HW243921   0.563   4.474  14.241
47342SOL     OW43922   9.614   2.902  11.245
47342SOL    HW143923   9.615   2.988  11.288
47342SOL    HW243924   9.703   2.869  11.255
47343SOL     OW43925   7.312   6.647   0.844
47343SOL    HW143926   7.302   6.741   0.854
47343SOL    HW243927   7.222   6.614   0.841
47344SOL     OW43928   0.465  10.893   6.337
47344SOL    HW143929   0.431  10.882   6.248
47344SOL    HW243930   0.559  10.908   6.325
47345SOL     OW43931   6.201  12.412   4.194
47345SOL    HW143932   6.195  12.446   4.105
47345SOL    HW243933   6.280  12.452   4.230
47346SOL     OW43934  10.446   2.391   2.585
47346SOL    HW143935  10.376   2.453   2.607
47346SOL    HW243936  10.423   2.360   2.498
47347SOL     OW43937   0.332   1.459   6.591
47347SOL    HW143938   0.262   1.476   6.653
47347SOL    HW243939   0.413   1.470   6.642
47348SOL     OW43940  12.466   9.309   3.822
47348SOL    HW143941  12.472   9.404   3.813
47348SOL    HW243942  12.496   9.275   3.738
47349SOL     OW43943   5.057   9.577   1.048
47349SOL    HW143944   5.109   9.633   0.990
47349SOL    HW243945   4.967   9.605   1.035
47350SOL     OW43946   3.702  10.647  14.484
47350SOL    HW143947   3.755  10.601  14.419
47350SOL    HW243948   3.761  10.661  14.558
47351SOL     OW43949  14.476   2.205   2.728
47351SOL    HW143950  14.535   2.202   2.804
47351SOL    HW243951  14.534   2.211   2.652
47352SOL     OW43952   5.666   0.755   0.858
47352SOL    HW143953   5.747   0.800   0.834
47352SOL    HW243954   5.695   0.670   0.892
47353SOL     OW43955  13.356   5.885   8.753
47353SOL    HW143956  13.323   5.802   8.789
47353SOL    HW243957  13.288   5.949   8.775
47354SOL     OW43958  13.514   4.101   3.588
47354SOL    HW143959  13.425   4.115   3.557
47354SOL    HW243960  13.560   4.183   3.568
47355SOL     OW43961   9.971   1.752   1.886
47355SOL    HW143962   9.933   1.826   1.839
47355SOL    HW243963  10.008   1.790   1.966
47356SOL     OW43964   9.029   6.740  12.691
47356SOL    HW143965   9.014   6.816  12.634
47356SOL    HW243966   9.123   6.725  12.685
47357SOL     OW43967   2.895  14.626  11.091
47357SOL    HW143968   2.929  14.696  11.035
47357SOL    HW243969   2.973  14.589  11.132
47358SOL     OW43970   1.680   3.959   9.094
47358SOL    HW143971   1.729   4.024   9.144
47358SOL    HW243972   1.589   3.989   9.100
47359SOL     OW43973   0.689   6.004   8.452
47359SOL    HW143974   0.601   6.020   8.420
47359SOL    HW243975   0.744   6.005   8.373
47360SOL     OW43976   0.480   0.821   5.783
47360SOL    HW143977   0.417   0.750   5.796
47360SOL    HW243978   0.427   0.900   5.778
47361SOL     OW43979   5.688   2.094  14.560
47361SOL    HW143980   5.659   2.172  14.608
47361SOL    HW243981   5.619   2.030  14.574
47362SOL     OW43982   1.588  10.371   6.461
47362SOL    HW143983   1.677  10.405   6.474
47362SOL    HW243984   1.568  10.325   6.543
47363SOL     OW43985  10.594  12.928   2.148
47363SOL    HW143986  10.590  12.992   2.077
47363SOL    HW243987  10.506  12.928   2.185
47364SOL     OW43988   0.582   0.524  14.679
47364SOL    HW143989   0.546   0.441  14.708
47364SOL    HW243990   0.663   0.534  14.729
47365SOL     OW43991   6.315   1.211   1.151
47365SOL    HW143992   6.224   1.181   1.158
47365SOL    HW243993   6.331   1.218   1.057
47366SOL     OW43994   6.875   2.785   3.067
47366SOL    HW143995   6.876   2.803   3.161
47366SOL    HW243996   6.909   2.864   3.026
47367SOL     OW43997   5.615   4.255   4.644
47367SOL    HW143998   5.595   4.164   4.666
47367SOL    HW243999   5.684   4.249   4.579
47368SOL     OW44000   2.265   1.367   9.566
47368SOL    HW144001   2.270   1.343   9.658
47368SOL    HW244002   2.354   1.355   9.533
47369SOL     OW44003   2.384  14.734  10.525
47369SOL    HW144004   2.349  14.673  10.590
47369SOL    HW244005   2.359  14.820  10.558
47370SOL     OW44006   4.911   4.200   9.945
47370SOL    HW144007   4.989   4.176   9.996
47370SOL    HW244008   4.945   4.229   9.861
47371SOL     OW44009  12.409   6.979   4.990
47371SOL    HW144010  12.352   7.051   4.963
47371SOL    HW244011  12.461   6.959   4.912
47372SOL     OW44012   9.160   3.314   2.909
47372SOL    HW144013   9.214   3.389   2.932
47372SOL    HW244014   9.197   3.241   2.959
47373SOL     OW44015   9.917   4.196  13.457
47373SOL    HW144016   9.989   4.229  13.510
47373SOL    HW244017   9.880   4.125  13.509
47374SOL     OW44018   5.268   1.916   8.605
47374SOL    HW144019   5.174   1.906   8.586
47374SOL    HW244020   5.273   1.908   8.700
47375SOL     OW44021  11.200   1.970   1.882
47375SOL    HW144022  11.239   1.931   1.960
47375SOL    HW244023  11.216   2.064   1.893
47376SOL     OW44024   0.126  13.404  10.140
47376SOL    HW144025   0.183  13.480  10.146
47376SOL    HW244026   0.038  13.440  10.134
47377SOL     OW44027   7.490   9.296   5.611
47377SOL    HW144028   7.401   9.275   5.585
47377SOL    HW244029   7.481   9.334   5.698
47378SOL     OW44030   4.984   2.922   5.492
47378SOL    HW144031   4.978   2.949   5.584
47378SOL    HW244032   4.983   3.004   5.443
47379SOL     OW44033   9.190  10.790   7.756
47379SOL    HW144034   9.134  10.716   7.731
47379SOL    HW244035   9.239  10.811   7.677
47380SOL     OW44036   8.535  10.534   2.610
47380SOL    HW144037   8.550  10.517   2.517
47380SOL    HW244038   8.453  10.583   2.613
47381SOL     OW44039   6.054   8.863  13.679
47381SOL    HW144040   6.090   8.864  13.768
47381SOL    HW244041   6.131   8.874  13.622
47382SOL     OW44042   4.180   8.538   7.025
47382SOL    HW144043   4.202   8.516   7.115
47382SOL    HW244044   4.265   8.545   6.980
47383SOL     OW44045   9.888   5.754   8.632
47383SOL    HW144046   9.819   5.719   8.689
47383SOL    HW244047   9.846   5.827   8.587
47384SOL     OW44048   1.210  14.400  10.330
47384SOL    HW144049   1.273  14.366  10.267
47384SOL    HW244050   1.208  14.334  10.400
47385SOL     OW44051  10.857   7.272   2.070
47385SOL    HW144052  10.906   7.336   2.123
47385SOL    HW244053  10.767   7.278   2.103
47386SOL     OW44054   1.374   4.449  13.336
47386SOL    HW144055   1.282   4.425  13.333
47386SOL    HW244056   1.379   4.530  13.284
47387SOL     OW44057   6.863   7.385   0.262
47387SOL    HW144058   6.843   7.412   0.172
47387SOL    HW244059   6.779   7.389   0.307
47388SOL     OW44060   2.377   4.491   1.461
47388SOL    HW144061   2.318   4.416   1.455
47388SOL    HW244062   2.444   4.475   1.395
47389SOL     OW44063   0.760   3.065   4.047
47389SOL    HW144064   0.785   3.157   4.040
47389SOL    HW244065   0.842   3.016   4.035
47390SOL     OW44066  10.463   5.207   7.668
47390SOL    HW144067  10.398   5.191   7.600
47390SOL    HW244068  10.428   5.281   7.718
47391SOL     OW44069   1.284   7.543   0.981
47391SOL    HW144070   1.318   7.506   0.899
47391SOL    HW244071   1.355   7.600   1.013
47392SOL     OW44072   3.598   3.890  11.056
47392SOL    HW144073   3.537   3.886  10.983
47392SOL    HW244074   3.632   3.979  11.054
47393SOL     OW44075   5.831   4.664   2.628
47393SOL    HW144076   5.840   4.743   2.575
47393SOL    HW244077   5.786   4.602   2.571
47394SOL     OW44078  11.360   4.227  10.121
47394SOL    HW144079  11.299   4.162  10.086
47394SOL    HW244080  11.442   4.209  10.076
47395SOL     OW44081   4.824   6.323   2.092
47395SOL    HW144082   4.765   6.351   2.162
47395SOL    HW244083   4.843   6.232   2.111
47396SOL     OW44084   4.152  12.494   4.507
47396SOL    HW144085   4.174  12.420   4.563
47396SOL    HW244086   4.059  12.482   4.485
47397SOL     OW44087   8.354   9.377   8.565
47397SOL    HW144088   8.348   9.317   8.639
47397SOL    HW244089   8.325   9.461   8.600
47398SOL     OW44090  14.594   1.833   3.236
47398SOL    HW144091  14.509   1.809   3.199
47398SOL    HW244092  14.579   1.919   3.276
47399SOL     OW44093   2.366   1.186  14.078
47399SOL    HW144094   2.331   1.175  14.166
47399SOL    HW244095   2.330   1.114  14.028
47400SOL     OW44096   0.549  12.169   5.018
47400SOL    HW144097   0.519  12.083   5.049
47400SOL    HW244098   0.539  12.227   5.094
47401SOL     OW44099   2.417   9.752  11.066
47401SOL    HW144100   2.488   9.816  11.060
47401SOL    HW244101   2.452   9.681  11.119
47402SOL     OW44102  12.542  11.331   1.730
47402SOL    HW144103  12.571  11.240   1.731
47402SOL    HW244104  12.498  11.341   1.646
47403SOL     OW44105   3.232   6.304  10.679
47403SOL    HW144106   3.150   6.342  10.649
47403SOL    HW244107   3.240   6.332  10.771
47404SOL     OW44108   3.858  11.644   8.939
47404SOL    HW144109   3.925  11.711   8.953
47404SOL    HW244110   3.879  11.575   9.003
47405SOL     OW44111   0.435   9.679   5.053
47405SOL    HW144112   0.396   9.760   5.086
47405SOL    HW244113   0.375   9.650   4.984
47406SOL     OW44114   3.248   2.028   8.256
47406SOL    HW144115   3.322   1.967   8.254
47406SOL    HW244116   3.211   2.019   8.343
47407SOL     OW44117  14.825   2.972   5.970
47407SOL    HW144118   0.030   2.977   6.031
47407SOL    HW244119  14.768   3.045   5.993
47408SOL     OW44120  14.292   2.917  14.121
47408SOL    HW144121  14.235   2.841  14.129
47408SOL    HW244122  14.288   2.959  14.207
47409SOL     OW44123   0.719   9.735  11.363
47409SOL    HW144124   0.661   9.712  11.436
47409SOL    HW244125   0.783   9.664  11.361
47410SOL     OW44126   2.326   4.619   5.787
47410SOL    HW144127   2.389   4.630   5.858
47410SOL    HW244128   2.337   4.528   5.759
47411SOL     OW44129  13.326   3.816  10.643
47411SOL    HW144130  13.238   3.846  10.619
47411SOL    HW244131  13.385   3.874  10.596
47412SOL     OW44132   2.952  11.390  11.094
47412SOL    HW144133   2.946  11.364  11.185
47412SOL    HW244134   2.960  11.485  11.096
47413SOL     OW44135   0.692   9.003   0.029
47413SOL    HW144136   0.700   9.060   0.105
47413SOL    HW244137   0.767   9.026  14.842
47414SOL     OW44138  11.926   1.821   7.292
47414SOL    HW144139  11.859   1.778   7.240
47414SOL    HW244140  11.916   1.914   7.272
47415SOL     OW44141   5.758   7.804  13.144
47415SOL    HW144142   5.828   7.860  13.112
47415SOL    HW244143   5.686   7.816  13.082
47416SOL     OW44144  11.706  14.153  13.936
47416SOL    HW144145  11.796  14.173  13.963
47416SOL    HW244146  11.715  14.114  13.849
47417SOL     OW44147  13.172  14.176   1.140
47417SOL    HW144148  13.239  14.110   1.124
47417SOL    HW244149  13.202  14.224   1.217
47418SOL     OW44150  13.752   8.605   0.826
47418SOL    HW144151  13.712   8.678   0.872
47418SOL    HW244152  13.845   8.627   0.821
47419SOL     OW44153   6.928   2.545  10.854
47419SOL    HW144154   6.925   2.590  10.770
47419SOL    HW244155   6.970   2.607  10.914
47420SOL     OW44156  14.803   0.049   6.195
47420SOL    HW144157  14.834   0.126   6.147
47420SOL    HW244158   0.015   0.006   6.225
47421SOL     OW44159   9.246   8.684  12.156
47421SOL    HW144160   9.318   8.624  12.176
47421SOL    HW244161   9.271   8.766  12.199
47422SOL     OW44162  14.828  10.988   5.714
47422SOL    HW144163  14.760  10.963   5.776
47422SOL    HW244164   0.027  11.031   5.768
47423SOL     OW44165  11.302  10.408  11.393
47423SOL    HW144166  11.252  10.423  11.313
47423SOL    HW244167  11.295  10.313  11.408
47424SOL     OW44168  11.700  10.004  14.389
47424SOL    HW144169  11.753  10.000  14.469
47424SOL    HW244170  11.763   9.997  14.318
47425SOL     OW44171  10.580   2.142   3.113
47425SOL    HW144172  10.524   2.087   3.058
47425SOL    HW244173  10.551   2.231   3.095
47426SOL     OW44174  13.029  12.286   9.923
47426SOL    HW144175  13.026  12.241  10.007
47426SOL    HW244176  13.083  12.363   9.939
47427SOL     OW44177   7.120   8.610   4.744
47427SOL    HW144178   7.148   8.697   4.772
47427SOL    HW244179   7.201   8.559   4.741
47428SOL     OW44180   3.085   5.900   2.481
47428SOL    HW144181   3.060   5.989   2.507
47428SOL    HW244182   3.031   5.843   2.537
47429SOL     OW44183  10.804  13.915   0.911
47429SOL    HW144184  10.778  14.000   0.946
47429SOL    HW244185  10.796  13.925   0.816
47430SOL     OW44186   5.788  14.451  13.173
47430SOL    HW144187   5.742  14.368  13.188
47430SOL    HW244188   5.824  14.444  13.085
47431SOL     OW44189   3.319  10.407  10.564
47431SOL    HW144190   3.372  10.458  10.625
47431SOL    HW244191   3.365  10.414  10.481
47432SOL     OW44192  12.507   2.241   1.391
47432SOL    HW144193  12.453   2.236   1.470
47432SOL    HW244194  12.444   2.256   1.320
47433SOL     OW44195   8.035   6.804  12.031
47433SOL    HW144196   7.978   6.824  11.957
47433SOL    HW244197   8.120   6.783  11.992
47434SOL     OW44198   2.119   5.722   2.080
47434SOL    HW144199   2.031   5.692   2.105
47434SOL    HW244200   2.127   5.809   2.119
47435SOL     OW44201  14.621   5.876   7.322
47435SOL    HW144202  14.675   5.881   7.401
47435SOL    HW244203  14.537   5.842   7.352
47436SOL     OW44204   3.205   5.248   9.355
47436SOL    HW144205   3.178   5.297   9.433
47436SOL    HW244206   3.233   5.315   9.293
47437SOL     OW44207   7.134  13.993   4.508
47437SOL    HW144208   7.055  13.939   4.503
47437SOL    HW244209   7.102  14.083   4.503
47438SOL     OW44210   4.119  12.422   8.910
47438SOL    HW144211   4.111  12.443   8.817
47438SOL    HW244212   4.086  12.332   8.917
47439SOL     OW44213   7.496  14.463   6.088
47439SOL    HW144214   7.476  14.508   6.006
47439SOL    HW244215   7.570  14.511   6.124
47440SOL     OW44216   3.047   5.096  10.967
47440SOL    HW144217   2.997   5.027  10.924
47440SOL    HW244218   3.120   5.114  10.908
47441SOL     OW44219   0.683   9.063  11.817
47441SOL    HW144220   0.774   9.058  11.786
47441SOL    HW244221   0.646   8.978  11.793
47442SOL     OW44222  10.366   9.148   6.988
47442SOL    HW144223  10.449   9.103   6.969
47442SOL    HW244224  10.392   9.230   7.029
47443SOL     OW44225   7.448   7.230   5.973
47443SOL    HW144226   7.489   7.279   5.902
47443SOL    HW244227   7.485   7.268   6.053
47444SOL     OW44228   1.839  10.697   0.092
47444SOL    HW144229   1.797  10.651   0.020
47444SOL    HW244230   1.901  10.757   0.049
47445SOL     OW44231   7.672  10.570   9.624
47445SOL    HW144232   7.756  10.584   9.580
47445SOL    HW244233   7.689  10.594   9.715
47446SOL     OW44234  14.113   2.989   0.102
47446SOL    HW144235  14.189   2.936   0.127
47446SOL    HW244236  14.071   2.939   0.032
47447SOL     OW44237  13.419   0.203   0.450
47447SOL    HW144238  13.469   0.194   0.531
47447SOL    HW244239  13.445   0.128   0.397
47448SOL     OW44240   9.956  14.137   0.127
47448SOL    HW144241  10.004  14.214   0.156
47448SOL    HW244242   9.919  14.162   0.043
47449SOL     OW44243   3.711  11.008   1.127
47449SOL    HW144244   3.802  11.017   1.099
47449SOL    HW244245   3.659  11.022   1.047
47450SOL     OW44246   4.787  10.365   4.196
47450SOL    HW144247   4.750  10.280   4.172
47450SOL    HW244248   4.720  10.429   4.173
47451SOL     OW44249  10.315   3.329   4.308
47451SOL    HW144250  10.361   3.254   4.346
47451SOL    HW244251  10.278   3.296   4.226
47452SOL     OW44252   4.289  11.984  12.822
47452SOL    HW144253   4.343  11.987  12.743
47452SOL    HW244254   4.214  12.041  12.802
47453SOL     OW44255  14.577   9.841  13.659
47453SOL    HW144256  14.651   9.891  13.693
47453SOL    HW244257  14.589   9.752  13.693
47454SOL     OW44258   7.755  11.938  12.094
47454SOL    HW144259   7.681  11.904  12.042
47454SOL    HW244260   7.807  11.860  12.115
47455SOL     OW44261   0.678   4.772   0.968
47455SOL    HW144262   0.682   4.761   0.872
47455SOL    HW244263   0.686   4.684   1.002
47456SOL     OW44264   7.743  14.557  12.589
47456SOL    HW144265   7.753  14.607  12.508
47456SOL    HW244266   7.659  14.511  12.578
47457SOL     OW44267   4.975  14.054   7.723
47457SOL    HW144268   5.042  14.109   7.763
47457SOL    HW244269   4.895  14.105   7.730
47458SOL     OW44270  11.417   2.041  10.967
47458SOL    HW144271  11.345   2.069  11.024
47458SOL    HW244272  11.493   2.034  11.026
47459SOL     OW44273   6.020  11.811   8.834
47459SOL    HW144274   5.998  11.900   8.806
47459SOL    HW244275   5.951  11.756   8.796
47460SOL     OW44276   0.008  14.852   0.227
47460SOL    HW144277   0.060   0.022   0.156
47460SOL    HW244278   0.030  14.759   0.224
47461SOL     OW44279   9.151  12.921  13.834
47461SOL    HW144280   9.125  12.851  13.894
47461SOL    HW244281   9.217  12.971  13.882
47462SOL     OW44282   8.902  11.244  10.008
47462SOL    HW144283   8.867  11.323  10.049
47462SOL    HW244284   8.985  11.272   9.971
47463SOL     OW44285   7.477   7.051  10.029
47463SOL    HW144286   7.417   7.080   9.960
47463SOL    HW244287   7.464   7.114  10.099
47464SOL     OW44288   3.611   4.058   3.520
47464SOL    HW144289   3.669   4.122   3.561
47464SOL    HW244290   3.588   3.997   3.591
47465SOL     OW44291   4.370   2.375   8.520
47465SOL    HW144292   4.377   2.309   8.451
47465SOL    HW244293   4.454   2.371   8.566
47466SOL     OW44294   2.753   5.737   2.208
47466SOL    HW144295   2.721   5.755   2.119
47466SOL    HW244296   2.687   5.775   2.265
47467SOL     OW44297   9.501  13.465   4.702
47467SOL    HW144298   9.415  13.507   4.699
47467SOL    HW244299   9.542  13.486   4.618
47468SOL     OW44300   7.998   4.812   0.798
47468SOL    HW144301   8.021   4.738   0.741
47468SOL    HW244302   8.037   4.790   0.882
47469SOL     OW44303   3.827  13.486   5.082
47469SOL    HW144304   3.855  13.405   5.039
47469SOL    HW244305   3.759  13.457   5.143
47470SOL     OW44306  14.224  14.647   4.132
47470SOL    HW144307  14.242  14.619   4.043
47470SOL    HW244308  14.225  14.743   4.128
47471SOL     OW44309   3.668  12.000  11.974
47471SOL    HW144310   3.719  12.080  11.985
47471SOL    HW244311   3.731  11.936  11.941
47472SOL     OW44312   9.050  13.349   0.178
47472SOL    HW144313   9.104  13.270   0.182
47472SOL    HW244314   8.996  13.338   0.100
47473SOL     OW44315   5.657  11.646   9.158
47473SOL    HW144316   5.648  11.640   9.063
47473SOL    HW244317   5.699  11.731   9.174
47474SOL     OW44318   8.330  12.160  12.230
47474SOL    HW144319   8.264  12.190  12.168
47474SOL    HW244320   8.313  12.212  12.309
47475SOL     OW44321   6.153   3.606   9.695
47475SOL    HW144322   6.082   3.561   9.740
47475SOL    HW244323   6.119   3.694   9.677
47476SOL     OW44324   9.054   1.374  11.735
47476SOL    HW144325   9.023   1.464  11.726
47476SOL    HW244326   8.988   1.321  11.690
47477SOL     OW44327   5.526   8.817   6.541
47477SOL    HW144328   5.454   8.826   6.604
47477SOL    HW244329   5.604   8.809   6.596
47478SOL     OW44330   1.384   0.513  12.434
47478SOL    HW144331   1.405   0.546  12.347
47478SOL    HW244332   1.294   0.542  12.450
47479SOL     OW44333   8.498   0.717   1.520
47479SOL    HW144334   8.546   0.658   1.577
47479SOL    HW244335   8.443   0.660   1.467
47480SOL     OW44336   7.599   5.274  10.358
47480SOL    HW144337   7.646   5.278  10.441
47480SOL    HW244338   7.664   5.244  10.295
47481SOL     OW44339   2.653  11.043   5.721
47481SOL    HW144340   2.691  11.128   5.746
47481SOL    HW244341   2.559  11.057   5.721
47482SOL     OW44342   7.254  12.722   0.517
47482SOL    HW144343   7.174  12.685   0.554
47482SOL    HW244344   7.282  12.657   0.452
47483SOL     OW44345   7.117   1.066   4.541
47483SOL    HW144346   7.053   1.129   4.509
47483SOL    HW244347   7.101   0.986   4.490
47484SOL     OW44348   7.070  13.668   5.586
47484SOL    HW144349   7.096  13.758   5.607
47484SOL    HW244350   6.997  13.650   5.645
47485SOL     OW44351   8.611   4.218  12.812
47485SOL    HW144352   8.633   4.310  12.801
47485SOL    HW244353   8.558   4.196  12.736
47486SOL     OW44354   3.179   9.832  13.575
47486SOL    HW144355   3.258   9.811  13.526
47486SOL    HW244356   3.210   9.884  13.650
47487SOL     OW44357   2.493   7.814   1.129
47487SOL    HW144358   2.428   7.750   1.099
47487SOL    HW244359   2.477   7.822   1.223
47488SOL     OW44360  11.502   5.557  14.727
47488SOL    HW144361  11.485   5.581  14.818
47488SOL    HW244362  11.596   5.539  14.723
47489SOL     OW44363   9.490   2.258   7.770
47489SOL    HW144364   9.478   2.343   7.728
47489SOL    HW244365   9.583   2.237   7.756
47490SOL     OW44366   5.204  13.238   9.173
47490SOL    HW144367   5.218  13.321   9.128
47490SOL    HW244368   5.123  13.251   9.223
47491SOL     OW44369   0.714   3.086  11.014
47491SOL    HW144370   0.633   3.132  10.990
47491SOL    HW244371   0.724   3.103  11.107
47492SOL     OW44372   7.055  14.672   7.856
47492SOL    HW144373   6.999  14.674   7.933
47492SOL    HW244374   7.114  14.598   7.871
47493SOL     OW44375   7.172   6.333   4.770
47493SOL    HW144376   7.266   6.347   4.775
47493SOL    HW244377   7.161   6.264   4.705
47494SOL     OW44378   4.479   6.197   1.416
47494SOL    HW144379   4.539   6.124   1.397
47494SOL    HW244380   4.537   6.270   1.435
47495SOL     OW44381   9.215   7.629   3.643
47495SOL    HW144382   9.181   7.675   3.567
47495SOL    HW244383   9.264   7.695   3.692
47496SOL     OW44384   5.804   3.367   9.034
47496SOL    HW144385   5.857   3.429   9.085
47496SOL    HW244386   5.858   3.345   8.958
47497SOL     OW44387  11.009   3.555   3.498
47497SOL    HW144388  10.977   3.609   3.570
47497SOL    HW244389  11.104   3.550   3.512
47498SOL     OW44390   2.814   2.776   1.803
47498SOL    HW144391   2.852   2.698   1.762
47498SOL    HW244392   2.826   2.845   1.738
47499SOL     OW44393  12.274   5.559  14.411
47499SOL    HW144394  12.292   5.605  14.494
47499SOL    HW244395  12.330   5.482  14.414
47500SOL     OW44396   3.439   0.196  14.294
47500SOL    HW144397   3.412   0.283  14.264
47500SOL    HW244398   3.535   0.198  14.291
47501SOL     OW44399  14.574   4.335   3.774
47501SOL    HW144400  14.511   4.315   3.705
47501SOL    HW244401  14.570   4.430   3.783
47502SOL     OW44402  13.739   0.976   5.236
47502SOL    HW144403  13.832   0.989   5.218
47502SOL    HW244404  13.736   0.908   5.303
47503SOL     OW44405  13.928   2.686   9.238
47503SOL    HW144406  13.917   2.651   9.149
47503SOL    HW244407  14.020   2.668   9.259
47504SOL     OW44408   8.000  10.028   7.796
47504SOL    HW144409   8.047   9.990   7.871
47504SOL    HW244410   7.980  10.118   7.824
47505SOL     OW44411   8.246   1.959   8.887
47505SOL    HW144412   8.303   1.923   8.819
47505SOL    HW244413   8.207   1.882   8.929
47506SOL     OW44414   6.957  10.966   7.444
47506SOL    HW144415   7.012  11.042   7.464
47506SOL    HW244416   7.020  10.895   7.429
47507SOL     OW44417   1.472   6.863  13.837
47507SOL    HW144418   1.448   6.953  13.813
47507SOL    HW244419   1.492   6.868  13.931
47508SOL     OW44420   2.391  11.543  14.500
47508SOL    HW144421   2.396  11.593  14.419
47508SOL    HW244422   2.421  11.603  14.568
47509SOL     OW44423  12.212   9.073   0.572
47509SOL    HW144424  12.174   9.050   0.656
47509SOL    HW244425  12.302   9.040   0.576
47510SOL     OW44426   3.740   7.248  12.536
47510SOL    HW144427   3.811   7.272  12.476
47510SOL    HW244428   3.744   7.153  12.541
47511SOL     OW44429  11.942  12.281   6.155
47511SOL    HW144430  12.011  12.219   6.177
47511SOL    HW244431  11.965  12.312   6.068
47512SOL     OW44432   7.908  13.770   5.518
47512SOL    HW144433   7.909  13.793   5.611
47512SOL    HW244434   7.969  13.832   5.478
47513SOL     OW44435   6.935   2.937  10.246
47513SOL    HW144436   6.935   3.026  10.211
47513SOL    HW244437   6.873   2.890  10.191
47514SOL     OW44438   0.799   5.664   3.869
47514SOL    HW144439   0.864   5.680   3.801
47514SOL    HW244440   0.786   5.569   3.868
47515SOL     OW44441   0.230   7.357   2.784
47515SOL    HW144442   0.238   7.328   2.693
47515SOL    HW244443   0.249   7.451   2.781
47516SOL     OW44444  10.948  13.921   1.297
47516SOL    HW144445  10.884  13.989   1.277
47516SOL    HW244446  10.943  13.912   1.392
47517SOL     OW44447   9.334   6.887   3.077
47517SOL    HW144448   9.348   6.847   2.991
47517SOL    HW244449   9.252   6.935   3.067
47518SOL     OW44450   2.509   8.744   0.983
47518SOL    HW144451   2.467   8.659   0.999
47518SOL    HW244452   2.576   8.751   1.051
47519SOL     OW44453  10.270   1.221  14.561
47519SOL    HW144454  10.256   1.154  14.628
47519SOL    HW244455  10.183   1.259  14.547
47520SOL     OW44456  12.635   5.994   1.231
47520SOL    HW144457  12.613   5.917   1.285
47520SOL    HW244458  12.598   6.068   1.279
47521SOL     OW44459   1.417   5.243   0.501
47521SOL    HW144460   1.506   5.277   0.488
47521SOL    HW244461   1.364   5.291   0.437
47522SOL     OW44462   2.770   5.762  11.096
47522SOL    HW144463   2.821   5.804  11.026
47522SOL    HW244464   2.686   5.808  11.096
47523SOL     OW44465   8.471   3.483   4.236
47523SOL    HW144466   8.421   3.498   4.155
47523SOL    HW244467   8.556   3.452   4.206
47524SOL     OW44468   3.843   8.809  11.193
47524SOL    HW144469   3.856   8.891  11.145
47524SOL    HW244470   3.931   8.774  11.203
47525SOL     OW44471   7.739   1.018   5.161
47525SOL    HW144472   7.689   1.099   5.163
47525SOL    HW244473   7.787   1.017   5.243
47526SOL     OW44474   2.908  10.905  13.145
47526SOL    HW144475   2.834  10.848  13.165
47526SOL    HW244476   2.933  10.882  13.055
47527SOL     OW44477   4.972   4.875  11.071
47527SOL    HW144478   5.052   4.873  11.124
47527SOL    HW244479   4.982   4.802  11.010
47528SOL     OW44480   1.507  10.760   4.371
47528SOL    HW144481   1.599  10.776   4.350
47528SOL    HW244482   1.463  10.758   4.286
47529SOL     OW44483   8.941   8.358  14.762
47529SOL    HW144484   9.003   8.363  14.690
47529SOL    HW244485   8.995   8.355  14.841
47530SOL     OW44486   2.844   4.584   4.739
47530SOL    HW144487   2.778   4.638   4.695
47530SOL    HW244488   2.843   4.614   4.830
47531SOL     OW44489  12.437   8.716   1.561
47531SOL    HW144490  12.433   8.684   1.471
47531SOL    HW244491  12.410   8.808   1.555
47532SOL     OW44492  14.070  13.383  14.227
47532SOL    HW144493  14.067  13.338  14.311
47532SOL    HW244494  14.163  13.399  14.212
47533SOL     OW44495   4.903   3.579   5.760
47533SOL    HW144496   4.950   3.535   5.688
47533SOL    HW244497   4.811   3.572   5.736
47534SOL     OW44498   1.774  11.059   5.843
47534SOL    HW144499   1.815  11.109   5.773
47534SOL    HW244500   1.749  10.976   5.802
47535SOL     OW44501  12.965   1.735   4.386
47535SOL    HW144502  12.930   1.776   4.465
47535SOL    HW244503  12.902   1.759   4.317
47536SOL     OW44504   4.095  12.759  11.770
47536SOL    HW144505   4.127  12.762  11.860
47536SOL    HW244506   4.010  12.716  11.776
47537SOL     OW44507   4.385   4.529   2.758
47537SOL    HW144508   4.348   4.612   2.785
47537SOL    HW244509   4.350   4.465   2.820
47538SOL     OW44510  14.558   9.978  13.399
47538SOL    HW144511  14.498   9.933  13.339
47538SOL    HW244512  14.607   9.908  13.441
47539SOL     OW44513   5.660   9.330  10.995
47539SOL    HW144514   5.615   9.259  11.040
47539SOL    HW244515   5.752   9.301  10.992
47540SOL     OW44516  12.315  10.262   3.300
47540SOL    HW144517  12.292  10.257   3.393
47540SOL    HW244518  12.361  10.345   3.290
47541SOL     OW44519   9.927   9.298  10.341
47541SOL    HW144520   9.858   9.333  10.286
47541SOL    HW244521   9.952   9.216  10.298
47542SOL     OW44522   5.472  13.674   4.214
47542SOL    HW144523   5.425  13.593   4.191
47542SOL    HW244524   5.465  13.678   4.310
47543SOL     OW44525   2.031   4.246   1.413
47543SOL    HW144526   2.017   4.270   1.504
47543SOL    HW244527   1.945   4.218   1.382
47544SOL     OW44528  12.452  13.980   4.326
47544SOL    HW144529  12.393  14.025   4.386
47544SOL    HW244530  12.537  14.022   4.340
47545SOL     OW44531  11.101   9.671   9.569
47545SOL    HW144532  11.070   9.581   9.576
47545SOL    HW244533  11.171   9.667   9.504
47546SOL     OW44534   0.024   2.700  10.007
47546SOL    HW144535  14.859   2.717  10.095
47546SOL    HW244536  14.816   2.706   9.950
47547SOL     OW44537   9.071   1.931   6.168
47547SOL    HW144538   9.056   2.018   6.206
47547SOL    HW244539   9.041   1.939   6.078
47548SOL     OW44540   9.252   1.086  11.342
47548SOL    HW144541   9.291   1.030  11.274
47548SOL    HW244542   9.164   1.106  11.309
47549SOL     OW44543   0.520   7.307   7.131
47549SOL    HW144544   0.534   7.375   7.065
47549SOL    HW244545   0.435   7.268   7.107
47550SOL     OW44546  13.112   1.298  12.411
47550SOL    HW144547  13.023   1.333  12.416
47550SOL    HW244548  13.117   1.236  12.484
47551SOL     OW44549   4.990   0.133   9.850
47551SOL    HW144550   5.048   0.057   9.845
47551SOL    HW244551   4.923   0.117   9.784
47552SOL     OW44552  11.188   0.341  10.101
47552SOL    HW144553  11.215   0.399  10.029
47552SOL    HW244554  11.269   0.322  10.148
47553SOL     OW44555  11.228  13.647   8.514
47553SOL    HW144556  11.180  13.564   8.511
47553SOL    HW244557  11.320  13.621   8.518
47554SOL     OW44558   0.554  13.171  10.997
47554SOL    HW144559   0.642  13.163  11.033
47554SOL    HW244560   0.498  13.186  11.074
47555SOL     OW44561   7.866  11.179   5.818
47555SOL    HW144562   7.844  11.086   5.809
47555SOL    HW244563   7.884  11.208   5.728
47556SOL     OW44564   8.633   3.124   7.134
47556SOL    HW144565   8.569   3.195   7.142
47556SOL    HW244566   8.646   3.095   7.224
47557SOL     OW44567  10.071   9.079   8.979
47557SOL    HW144568  10.079   9.169   9.011
47557SOL    HW244569  10.154   9.038   9.001
47558SOL     OW44570  14.493   9.178   7.177
47558SOL    HW144571  14.457   9.247   7.233
47558SOL    HW244572  14.445   9.099   7.201
47559SOL     OW44573  13.390   2.154   8.843
47559SOL    HW144574  13.304   2.181   8.875
47559SOL    HW244575  13.443   2.234   8.844
47560SOL     OW44576  11.123   9.264   2.874
47560SOL    HW144577  11.209   9.302   2.854
47560SOL    HW244578  11.141   9.171   2.886
47561SOL     OW44579  10.083   5.031   9.004
47561SOL    HW144580  10.123   5.112   8.972
47561SOL    HW244581  10.085   5.041   9.100
47562SOL     OW44582   7.076   7.895  13.346
47562SOL    HW144583   7.103   7.808  13.318
47562SOL    HW244584   6.982   7.888  13.363
47563SOL     OW44585  14.608  10.672  13.459
47563SOL    HW144586  14.596  10.684  13.364
47563SOL    HW244587  14.523  10.640  13.489
47564SOL     OW44588   6.578  12.061   2.178
47564SOL    HW144589   6.546  12.044   2.089
47564SOL    HW244590   6.650  12.123   2.166
47565SOL     OW44591  11.530  12.491   7.931
47565SOL    HW144592  11.624  12.475   7.920
47565SOL    HW244593  11.494  12.405   7.951
47566SOL     OW44594   9.909   4.152   2.577
47566SOL    HW144595   9.858   4.225   2.612
47566SOL    HW244596   9.984   4.193   2.535
47567SOL     OW44597   4.432   5.166  11.856
47567SOL    HW144598   4.426   5.260  11.840
47567SOL    HW244599   4.479   5.131  11.780
47568SOL     OW44600   5.755  14.692   2.373
47568SOL    HW144601   5.836  14.649   2.346
47568SOL    HW244602   5.743  14.762   2.309
47569SOL     OW44603   6.650   3.736  12.713
47569SOL    HW144604   6.617   3.819  12.680
47569SOL    HW244605   6.689   3.694  12.636
47570SOL     OW44606   3.352   6.037   8.095
47570SOL    HW144607   3.395   6.027   8.010
47570SOL    HW244608   3.424   6.039   8.158
47571SOL     OW44609   5.217   1.882   5.875
47571SOL    HW144610   5.210   1.839   5.961
47571SOL    HW244611   5.270   1.961   5.892
47572SOL     OW44612   3.761  12.427  13.027
47572SOL    HW144613   3.678  12.427  12.980
47572SOL    HW244614   3.746  12.484  13.102
47573SOL     OW44615  12.133  14.357   9.422
47573SOL    HW144616  12.038  14.361   9.431
47573SOL    HW244617  12.154  14.426   9.360
47574SOL     OW44618  10.137  11.363   0.148
47574SOL    HW144619  10.178  11.301   0.088
47574SOL    HW244620  10.207  11.386   0.210
47575SOL     OW44621   0.172   5.442   9.458
47575SOL    HW144622   0.240   5.507   9.444
47575SOL    HW244623   0.144   5.417   9.370
47576SOL     OW44624  14.469   8.872   2.837
47576SOL    HW144625  14.501   8.960   2.855
47576SOL    HW244626  14.374   8.878   2.846
47577SOL     OW44627  13.442   1.819   7.089
47577SOL    HW144628  13.439   1.843   6.996
47577SOL    HW244629  13.388   1.885   7.132
47578SOL     OW44630   4.321   6.834   5.010
47578SOL    HW144631   4.322   6.919   5.054
47578SOL    HW244632   4.341   6.855   4.919
47579SOL     OW44633   8.776   9.125   0.149
47579SOL    HW144634   8.847   9.077   0.192
47579SOL    HW244635   8.781   9.098   0.057
47580SOL     OW44636   8.563   3.764   6.115
47580SOL    HW144637   8.510   3.843   6.125
47580SOL    HW244638   8.500   3.693   6.106
47581SOL     OW44639  10.559   2.682   2.029
47581SOL    HW144640  10.594   2.641   2.108
47581SOL    HW244641  10.529   2.769   2.058
47582SOL     OW44642   6.711   1.629   0.134
47582SOL    HW144643   6.701   1.573   0.057
47582SOL    HW244644   6.740   1.570   0.203
47583SOL     OW44645   7.884   4.549   3.397
47583SOL    HW144646   7.888   4.498   3.316
47583SOL    HW244647   7.904   4.485   3.466
47584SOL     OW44648  12.538   4.938   5.687
47584SOL    HW144649  12.557   4.862   5.743
47584SOL    HW244650  12.443   4.946   5.688
47585SOL     OW44651   7.853  11.344   1.015
47585SOL    HW144652   7.812  11.295   0.943
47585SOL    HW244653   7.928  11.291   1.041
47586SOL     OW44654   8.556   2.274   3.600
47586SOL    HW144655   8.606   2.328   3.662
47586SOL    HW244656   8.573   2.184   3.628
47587SOL     OW44657   3.734  12.162   1.493
47587SOL    HW144658   3.714  12.132   1.582
47587SOL    HW244659   3.770  12.086   1.449
47588SOL     OW44660   2.361   2.356   5.169
47588SOL    HW144661   2.452   2.339   5.143
47588SOL    HW244662   2.330   2.272   5.202
47589SOL     OW44663   9.753   1.210  13.659
47589SOL    HW144664   9.679   1.226  13.719
47589SOL    HW244665   9.714   1.212  13.572
47590SOL     OW44666   7.932   8.305  11.495
47590SOL    HW144667   7.920   8.296  11.589
47590SOL    HW244668   8.027   8.304  11.482
47591SOL     OW44669  13.989   5.979   9.509
47591SOL    HW144670  13.908   6.011   9.469
47591SOL    HW244671  14.024   6.055   9.556
47592SOL     OW44672   7.562   1.342  12.295
47592SOL    HW144673   7.572   1.418  12.237
47592SOL    HW244674   7.491   1.367  12.355
47593SOL     OW44675  14.351   4.996   2.182
47593SOL    HW144676  14.339   5.027   2.272
47593SOL    HW244677  14.322   4.905   2.184
47594SOL     OW44678   9.790   8.047  12.719
47594SOL    HW144679   9.843   8.056  12.640
47594SOL    HW244680   9.832   8.104  12.783
47595SOL     OW44681   1.534  11.002   6.036
47595SOL    HW144682   1.609  10.998   6.096
47595SOL    HW244683   1.553  10.937   5.969
47596SOL     OW44684   9.681   5.251   0.890
47596SOL    HW144685   9.687   5.345   0.875
47596SOL    HW244686   9.678   5.213   0.802
47597SOL     OW44687   8.177  13.490   9.220
47597SOL    HW144688   8.192  13.400   9.247
47597SOL    HW244689   8.210  13.543   9.292
47598SOL     OW44690   6.011   2.338   9.294
47598SOL    HW144691   5.922   2.372   9.303
47598SOL    HW244692   6.003   2.266   9.232
47599SOL     OW44693  12.925   1.815   3.053
47599SOL    HW144694  12.951   1.867   3.129
47599SOL    HW244695  12.853   1.761   3.085
47600SOL     OW44696  10.553  11.295  12.272
47600SOL    HW144697  10.633  11.335  12.237
47600SOL    HW244698  10.495  11.368  12.290
47601SOL     OW44699   1.728  10.240   7.912
47601SOL    HW144700   1.746  10.154   7.951
47601SOL    HW244701   1.725  10.300   7.987
47602SOL     OW44702   3.786   6.069   8.857
47602SOL    HW144703   3.757   6.001   8.918
47602SOL    HW244704   3.839   6.128   8.910
47603SOL     OW44705   0.010  13.467  12.134
47603SOL    HW144706  14.838  13.540  12.180
47603SOL    HW244707  14.843  13.472  12.045
47604SOL     OW44708   0.643  11.098   3.056
47604SOL    HW144709   0.563  11.130   3.016
47604SOL    HW244710   0.683  11.043   2.989
47605SOL     OW44711   3.373  14.236   1.656
47605SOL    HW144712   3.364  14.157   1.709
47605SOL    HW244713   3.396  14.204   1.569
47606SOL     OW44714   5.255   1.091   2.380
47606SOL    HW144715   5.198   1.060   2.310
47606SOL    HW244716   5.316   1.019   2.395
47607SOL     OW44717   9.882  12.607  14.426
47607SOL    HW144718   9.866  12.593  14.520
47607SOL    HW244719   9.974  12.632  14.421
47608SOL     OW44720  12.427   2.754   4.097
47608SOL    HW144721  12.372   2.795   4.029
47608SOL    HW244722  12.425   2.661   4.076
47609SOL     OW44723   8.367  13.226   4.450
47609SOL    HW144724   8.363  13.319   4.429
47609SOL    HW244725   8.401  13.224   4.540
47610SOL     OW44726   6.513   5.756  12.662
47610SOL    HW144727   6.477   5.669  12.644
47610SOL    HW244728   6.598   5.739  12.702
47611SOL     OW44729  11.554   9.794   7.404
47611SOL    HW144730  11.615   9.804   7.331
47611SOL    HW244731  11.468   9.790   7.363
47612SOL     OW44732  10.490   1.078  14.742
47612SOL    HW144733  10.404   1.068  14.782
47612SOL    HW244734  10.495   1.170  14.718
47613SOL     OW44735  12.438  12.763   4.616
47613SOL    HW144736  12.431  12.668   4.629
47613SOL    HW244737  12.530  12.778   4.595
47614SOL     OW44738  14.758   9.993   4.279
47614SOL    HW144739  14.732   9.922   4.337
47614SOL    HW244740  14.678  10.043   4.265
47615SOL     OW44741  11.818   9.210   8.112
47615SOL    HW144742  11.771   9.127   8.105
47615SOL    HW244743  11.909   9.188   8.090
47616SOL     OW44744  12.555  13.859   0.531
47616SOL    HW144745  12.572  13.765   0.532
47616SOL    HW244746  12.498  13.872   0.455
47617SOL     OW44747  14.034  13.002   8.833
47617SOL    HW144748  14.081  12.989   8.915
47617SOL    HW244749  14.072  12.938   8.773
47618SOL     OW44750   5.964   0.062   0.015
47618SOL    HW144751   6.053   0.094  14.868
47618SOL    HW244752   5.913   0.099  14.810
47619SOL     OW44753  14.755   6.550   1.383
47619SOL    HW144754  14.809   6.614   1.336
47619SOL    HW244755  14.771   6.468   1.337
47620SOL     OW44756   0.674   1.683   4.130
47620SOL    HW144757   0.698   1.595   4.101
47620SOL    HW244758   0.583   1.674   4.157
47621SOL     OW44759   2.691   3.704   8.891
47621SOL    HW144760   2.718   3.759   8.965
47621SOL    HW244761   2.596   3.700   8.897
47622SOL     OW44762  10.782  11.322   9.194
47622SOL    HW144763  10.790  11.305   9.100
47622SOL    HW244764  10.854  11.383   9.213
47623SOL     OW44765  12.858  11.536   3.626
47623SOL    HW144766  12.941  11.578   3.605
47623SOL    HW244767  12.815  11.597   3.686
47624SOL     OW44768   7.434   9.027   1.142
47624SOL    HW144769   7.355   9.066   1.103
47624SOL    HW244770   7.495   9.100   1.150
47625SOL     OW44771   6.132   4.190   6.685
47625SOL    HW144772   6.168   4.277   6.672
47625SOL    HW244773   6.208   4.135   6.703
47626SOL     OW44774   8.541   8.464   6.877
47626SOL    HW144775   8.486   8.533   6.914
47626SOL    HW244776   8.567   8.411   6.953
47627SOL     OW44777  11.611   1.812   5.883
47627SOL    HW144778  11.596   1.718   5.872
47627SOL    HW244779  11.553   1.838   5.955
47628SOL     OW44780   2.556   0.724   4.543
47628SOL    HW144781   2.631   0.780   4.520
47628SOL    HW244782   2.566   0.647   4.488
47629SOL     OW44783   5.191   0.563   4.473
47629SOL    HW144784   5.233   0.497   4.419
47629SOL    HW244785   5.111   0.586   4.426
47630SOL     OW44786   0.700   2.247   5.185
47630SOL    HW144787   0.673   2.327   5.230
47630SOL    HW244788   0.719   2.185   5.256
47631SOL     OW44789   3.456   6.781   5.852
47631SOL    HW144790   3.547   6.804   5.875
47631SOL    HW244791   3.435   6.706   5.908
47632SOL     OW44792   0.823   9.551   8.502
47632SOL    HW144793   0.866   9.479   8.455
47632SOL    HW244794   0.774   9.507   8.571
47633SOL     OW44795   3.011   4.175   5.750
47633SOL    HW144796   3.075   4.238   5.717
47633SOL    HW244797   2.934   4.187   5.694
47634SOL     OW44798  13.323  13.109  12.344
47634SOL    HW144799  13.262  13.182  12.357
47634SOL    HW244800  13.283  13.036  12.392
47635SOL     OW44801  11.697   8.258  11.659
47635SOL    HW144802  11.741   8.225  11.737
47635SOL    HW244803  11.734   8.346  11.646
47636SOL     OW44804  10.323  12.383  11.583
47636SOL    HW144805  10.317  12.350  11.493
47636SOL    HW244806  10.258  12.332  11.632
47637SOL     OW44807   1.529   4.728  12.903
47637SOL    HW144808   1.533   4.746  12.809
47637SOL    HW244809   1.546   4.812  12.944
47638SOL     OW44810   3.768   8.385   0.999
47638SOL    HW144811   3.800   8.392   1.089
47638SOL    HW244812   3.823   8.445   0.950
47639SOL     OW44813   1.707   2.328   7.759
47639SOL    HW144814   1.667   2.244   7.783
47639SOL    HW244815   1.730   2.368   7.843
47640SOL     OW44816   9.510   0.848   0.961
47640SOL    HW144817   9.510   0.772   0.903
47640SOL    HW244818   9.546   0.919   0.909
47641SOL     OW44819   9.783   3.566   8.613
47641SOL    HW144820   9.720   3.501   8.582
47641SOL    HW244821   9.760   3.579   8.705
47642SOL     OW44822   5.275   9.428   6.770
47642SOL    HW144823   5.184   9.416   6.797
47642SOL    HW244824   5.276   9.400   6.678
47643SOL     OW44825   0.503   8.289   2.785
47643SOL    HW144826   0.562   8.275   2.711
47643SOL    HW244827   0.498   8.384   2.795
47644SOL     OW44828   6.016   9.572   6.955
47644SOL    HW144829   5.982   9.484   6.972
47644SOL    HW244830   5.944   9.630   6.980
47645SOL     OW44831   1.454  14.711  12.103
47645SOL    HW144832   1.542  14.742  12.085
47645SOL    HW244833   1.430  14.751  12.186
47646SOL     OW44834  12.503  11.006   3.075
47646SOL    HW144835  12.435  11.007   3.007
47646SOL    HW244836  12.563  10.937   3.048
47647SOL     OW44837  10.850   5.965   2.669
47647SOL    HW144838  10.924   5.920   2.710
47647SOL    HW244839  10.889   6.041   2.626
47648SOL     OW44840   7.678   7.042   8.472
47648SOL    HW144841   7.619   6.977   8.510
47648SOL    HW244842   7.619   7.108   8.434
47649SOL     OW44843   4.798   9.286   7.811
47649SOL    HW144844   4.880   9.236   7.808
47649SOL    HW244845   4.825   9.377   7.820
47650SOL     OW44846   8.103   2.202  14.848
47650SOL    HW144847   8.075   2.135  14.785
47650SOL    HW244848   8.101   2.283  14.798
47651SOL     OW44849   0.381  10.640  11.855
47651SOL    HW144850   0.426  10.713  11.899
47651SOL    HW244851   0.319  10.683  11.796
47652SOL     OW44852  13.458   1.637   8.250
47652SOL    HW144853  13.529   1.576   8.272
47652SOL    HW244854  13.378   1.592   8.277
47653SOL     OW44855  14.829   9.090  12.985
47653SOL    HW144856  14.857   9.159  13.045
47653SOL    HW244857   0.042   9.047  12.958
47654SOL     OW44858   2.998   4.678   9.123
47654SOL    HW144859   3.000   4.668   9.028
47654SOL    HW244860   3.066   4.743   9.142
47655SOL     OW44861  12.115   9.735   8.614
47655SOL    HW144862  12.173   9.785   8.671
47655SOL    HW244863  12.175   9.681   8.561
47656SOL     OW44864   1.957   4.535  10.748
47656SOL    HW144865   1.927   4.445  10.736
47656SOL    HW244866   1.955   4.573  10.660
47657SOL     OW44867   0.813   1.948   6.551
47657SOL    HW144868   0.893   1.945   6.499
47657SOL    HW244869   0.836   1.905   6.633
47658SOL     OW44870   2.253   1.872  14.131
47658SOL    HW144871   2.230   1.805  14.067
47658SOL    HW244872   2.344   1.853  14.154
47659SOL     OW44873  13.063  10.899  10.924
47659SOL    HW144874  13.024  10.927  10.841
47659SOL    HW244875  13.032  10.810  10.937
47660SOL     OW44876  13.196   7.167   6.647
47660SOL    HW144877  13.146   7.102   6.598
47660SOL    HW244878  13.155   7.170   6.733
47661SOL     OW44879  11.094   9.752   9.842
47661SOL    HW144880  11.016   9.804   9.860
47661SOL    HW244881  11.095   9.742   9.746
47662SOL     OW44882   1.365   2.605   0.830
47662SOL    HW144883   1.331   2.660   0.901
47662SOL    HW244884   1.447   2.648   0.804
47663SOL     OW44885   2.061   9.203   0.858
47663SOL    HW144886   2.067   9.244   0.772
47663SOL    HW244887   2.150   9.170   0.875
47664SOL     OW44888  13.309   6.906   9.735
47664SOL    HW144889  13.321   6.858   9.817
47664SOL    HW244890  13.249   6.977   9.757
47665SOL     OW44891   8.049   7.585   9.074
47665SOL    HW144892   7.983   7.653   9.084
47665SOL    HW244893   8.008   7.519   9.017
47666SOL     OW44894   1.752   8.013   7.769
47666SOL    HW144895   1.760   8.100   7.809
47666SOL    HW244896   1.659   7.991   7.780
47667SOL     OW44897   0.728   1.111   0.057
47667SOL    HW144898   0.710   1.113  14.831
47667SOL    HW244899   0.747   1.020   0.077
47668SOL     OW44900   7.123   1.335  11.122
47668SOL    HW144901   7.148   1.367  11.209
47668SOL    HW244902   7.200   1.287  11.092
47669SOL     OW44903   1.526   5.479   0.201
47669SOL    HW144904   1.442   5.433   0.209
47669SOL    HW244905   1.537   5.491   0.107
47670SOL     OW44906   8.956  11.134   2.812
47670SOL    HW144907   8.891  11.101   2.749
47670SOL    HW244908   8.920  11.109   2.897
47671SOL     OW44909   5.282   0.591   5.216
47671SOL    HW144910   5.316   0.503   5.201
47671SOL    HW244911   5.352   0.649   5.186
47672SOL     OW44912  12.112  13.038   5.244
47672SOL    HW144913  12.185  12.992   5.203
47672SOL    HW244914  12.147  13.070   5.327
47673SOL     OW44915   9.420   0.782  14.457
47673SOL    HW144916   9.403   0.841  14.531
47673SOL    HW244917   9.515   0.775  14.454
47674SOL     OW44918   2.600  13.798   5.086
47674SOL    HW144919   2.597  13.850   5.166
47674SOL    HW244920   2.511  13.762   5.077
47675SOL     OW44921   5.564   5.153  11.122
47675SOL    HW144922   5.560   5.064  11.087
47675SOL    HW244923   5.595   5.205  11.048
47676SOL     OW44924  11.367   4.976  10.224
47676SOL    HW144925  11.301   5.031  10.182
47676SOL    HW244926  11.431   5.038  10.259
47677SOL     OW44927  14.116   5.844  14.094
47677SOL    HW144928  14.116   5.896  14.175
47677SOL    HW244929  14.178   5.774  14.111
47678SOL     OW44930   6.155   4.367  10.328
47678SOL    HW144931   6.118   4.388  10.243
47678SOL    HW244932   6.134   4.275  10.341
47679SOL     OW44933   4.711  12.770   3.037
47679SOL    HW144934   4.761  12.694   3.067
47679SOL    HW244935   4.688  12.749   2.946
47680SOL     OW44936  12.716  13.055   6.576
47680SOL    HW144937  12.667  12.986   6.531
47680SOL    HW244938  12.786  13.078   6.515
47681SOL     OW44939   8.105   5.289  12.559
47681SOL    HW144940   8.032   5.229  12.539
47681SOL    HW244941   8.063   5.363  12.603
47682SOL     OW44942   2.039   1.487  13.037
47682SOL    HW144943   2.000   1.567  13.072
47682SOL    HW244944   2.030   1.423  13.107
47683SOL     OW44945   7.266  13.992   0.484
47683SOL    HW144946   7.179  14.030   0.496
47683SOL    HW244947   7.253  13.898   0.496
47684SOL     OW44948  11.870   4.096   4.968
47684SOL    HW144949  11.948   4.111   4.916
47684SOL    HW244950  11.844   4.183   4.999
47685SOL     OW44951  14.119  13.983  13.913
47685SOL    HW144952  14.152  14.051  13.853
47685SOL    HW244953  14.112  14.027  13.997
47686SOL     OW44954  12.214   3.561   4.791
47686SOL    HW144955  12.128   3.520   4.781
47686SOL    HW244956  12.225   3.571   4.886
47687SOL     OW44957   8.999   0.691   5.728
47687SOL    HW144958   9.012   0.606   5.687
47687SOL    HW244959   8.931   0.676   5.793
47688SOL     OW44960  13.799  10.955   4.584
47688SOL    HW144961  13.705  10.969   4.576
47688SOL    HW244962  13.824  10.910   4.504
47689SOL     OW44963   9.239   8.876   1.689
47689SOL    HW144964   9.185   8.924   1.753
47689SOL    HW244965   9.207   8.786   1.693
47690SOL     OW44966  10.520  14.697   5.283
47690SOL    HW144967  10.547  14.621   5.231
47690SOL    HW244968  10.483  14.757   5.219
47691SOL     OW44969   8.517  13.892   1.693
47691SOL    HW144970   8.581  13.863   1.758
47691SOL    HW244971   8.494  13.812   1.645
47692SOL     OW44972  13.111  10.970  13.838
47692SOL    HW144973  13.074  11.044  13.885
47692SOL    HW244974  13.162  10.922  13.904
47693SOL     OW44975   8.267   5.434   2.619
47693SOL    HW144976   8.225   5.502   2.672
47693SOL    HW244977   8.256   5.463   2.529
47694SOL     OW44978   0.729   1.778  10.982
47694SOL    HW144979   0.687   1.809  10.902
47694SOL    HW244980   0.800   1.840  10.997
47695SOL     OW44981  13.921   2.931  11.803
47695SOL    HW144982  13.993   2.993  11.817
47695SOL    HW244983  13.850   2.985  11.766
47696SOL     OW44984   2.374   5.491   6.831
47696SOL    HW144985   2.468   5.493   6.845
47696SOL    HW244986   2.363   5.519   6.740
47697SOL     OW44987  14.014  13.179   4.159
47697SOL    HW144988  14.085  13.184   4.095
47697SOL    HW244989  14.055  13.200   4.243
47698SOL     OW44990   8.126   9.432   3.506
47698SOL    HW144991   8.069   9.381   3.563
47698SOL    HW244992   8.160   9.503   3.561
47699SOL     OW44993  12.202   2.664   0.187
47699SOL    HW144994  12.122   2.673   0.238
47699SOL    HW244995  12.238   2.579   0.214
47700SOL     OW44996   5.721  13.873   2.498
47700SOL    HW144997   5.725  13.882   2.593
47700SOL    HW244998   5.636  13.831   2.482
47701SOL     OW44999   8.288   6.845   8.452
47701SOL    HW145000   8.295   6.938   8.428
47701SOL    HW245001   8.320   6.842   8.542
47702SOL     OW45002   7.805   3.050   1.024
47702SOL    HW145003   7.738   3.009   0.970
47702SOL    HW245004   7.878   2.989   1.025
47703SOL     OW45005   1.072   8.946   1.003
47703SOL    HW145006   1.129   9.016   0.973
47703SOL    HW245007   1.100   8.928   1.093
47704SOL     OW45008   5.114   6.296  14.011
47704SOL    HW145009   5.072   6.243  13.944
47704SOL    HW245010   5.202   6.314  13.976
47705SOL     OW45011  13.721   4.195   4.079
47705SOL    HW145012  13.775   4.202   4.158
47705SOL    HW245013  13.779   4.219   4.007
47706SOL     OW45014   0.609  12.470   8.002
47706SOL    HW145015   0.588  12.502   8.089
47706SOL    HW245016   0.573  12.537   7.942
47707SOL     OW45017  13.124   7.479  10.114
47707SOL    HW145018  13.035   7.507  10.135
47707SOL    HW245019  13.179   7.555  10.134
47708SOL     OW45020  14.125   7.948   5.571
47708SOL    HW145021  14.103   7.877   5.631
47708SOL    HW245022  14.040   7.977   5.537
47709SOL     OW45023  11.346  12.336  12.799
47709SOL    HW145024  11.271  12.327  12.857
47709SOL    HW245025  11.331  12.272  12.729
47710SOL     OW45026  12.686  11.640   2.026
47710SOL    HW145027  12.723  11.560   2.062
47710SOL    HW245028  12.761  11.689   1.992
47711SOL     OW45029   8.545   5.753   7.561
47711SOL    HW145030   8.546   5.840   7.520
47711SOL    HW245031   8.492   5.699   7.503
47712SOL     OW45032   0.814   2.759   2.531
47712SOL    HW145033   0.723   2.731   2.520
47712SOL    HW245034   0.836   2.732   2.620
47713SOL     OW45035   6.151   4.011   7.088
47713SOL    HW145036   6.202   3.965   7.155
47713SOL    HW245037   6.203   4.089   7.069
47714SOL     OW45038   9.988   9.844   4.699
47714SOL    HW145039   9.945   9.927   4.720
47714SOL    HW245040  10.079   9.867   4.683
47715SOL     OW45041   8.872   0.142  11.110
47715SOL    HW145042   8.815   0.190  11.050
47715SOL    HW245043   8.960   0.169  11.087
47716SOL     OW45044   9.183   6.599  11.847
47716SOL    HW145045   9.187   6.509  11.880
47716SOL    HW245046   9.198   6.654  11.924
47717SOL     OW45047   6.891   0.667   1.996
47717SOL    HW145048   6.812   0.669   2.051
47717SOL    HW245049   6.941   0.592   2.028
47718SOL     OW45050   3.851   3.980   2.283
47718SOL    HW145051   3.925   3.994   2.225
47718SOL    HW245052   3.810   3.900   2.251
47719SOL     OW45053   1.687  12.276   7.851
47719SOL    HW145054   1.703  12.207   7.916
47719SOL    HW245055   1.771  12.289   7.808
47720SOL     OW45056   3.385   3.457  10.103
47720SOL    HW145057   3.383   3.362  10.110
47720SOL    HW245058   3.392   3.473  10.009
47721SOL     OW45059   0.217   0.334  14.608
47721SOL    HW145060   0.223   0.349  14.514
47721SOL    HW245061   0.238   0.419  14.648
47722SOL     OW45062   8.081  10.381   0.927
47722SOL    HW145063   8.113  10.471   0.922
47722SOL    HW245064   7.998  10.388   0.975
47723SOL     OW45065  12.389   3.282   8.465
47723SOL    HW145066  12.474   3.322   8.479
47723SOL    HW245067  12.387   3.259   8.372
47724SOL     OW45068   7.511   5.642   3.948
47724SOL    HW145069   7.516   5.729   3.910
47724SOL    HW245070   7.494   5.657   4.041
47725SOL     OW45071   3.706  13.049  13.663
47725SOL    HW145072   3.667  12.963  13.682
47725SOL    HW245073   3.781  13.029  13.608
47726SOL     OW45074   2.730   6.388   6.966
47726SOL    HW145075   2.791   6.387   7.040
47726SOL    HW245076   2.666   6.321   6.986
47727SOL     OW45077  14.123   6.897   5.824
47727SOL    HW145078  14.120   6.928   5.734
47727SOL    HW245079  14.216   6.888   5.844
47728SOL     OW45080   5.954   2.214   0.096
47728SOL    HW145081   5.995   2.249   0.017
47728SOL    HW245082   5.892   2.282   0.123
47729SOL     OW45083   5.114   9.386   5.931
47729SOL    HW145084   5.154   9.332   5.862
47729SOL    HW245085   5.121   9.476   5.898
47730SOL     OW45086  12.821   9.074   5.789
47730SOL    HW145087  12.848   9.041   5.703
47730SOL    HW245088  12.736   9.115   5.773
47731SOL     OW45089  14.047   4.145   7.109
47731SOL    HW145090  13.976   4.114   7.053
47731SOL    HW245091  14.009   4.146   7.197
47732SOL     OW45092   0.497   3.902  10.687
47732SOL    HW145093   0.485   3.892  10.592
47732SOL    HW245094   0.560   3.834  10.711
47733SOL     OW45095   0.463  10.767  12.759
47733SOL    HW145096   0.457  10.682  12.715
47733SOL    HW245097   0.506  10.824  12.694
47734SOL     OW45098   9.164  10.950   6.723
47734SOL    HW145099   9.251  10.910   6.735
47734SOL    HW245100   9.117  10.927   6.803
47735SOL     OW45101   0.965   3.829  11.974
47735SOL    HW145102   0.919   3.913  11.980
47735SOL    HW245103   0.896   3.763  11.976
47736SOL     OW45104   1.482   3.492  10.785
47736SOL    HW145105   1.444   3.574  10.817
47736SOL    HW245106   1.533   3.459  10.859
47737SOL     OW45107  12.053   1.739   9.563
47737SOL    HW145108  12.104   1.776   9.491
47737SOL    HW245109  12.119   1.708   9.626
47738SOL     OW45110   7.134  13.242   2.052
47738SOL    HW145111   7.070  13.252   2.123
47738SOL    HW245112   7.188  13.168   2.079
47739SOL     OW45113   0.360   0.426  10.935
47739SOL    HW145114   0.456   0.426  10.929
47739SOL    HW245115   0.342   0.407  11.027
47740SOL     OW45116  14.196  11.322   6.258
47740SOL    HW145117  14.143  11.355   6.186
47740SOL    HW245118  14.258  11.262   6.216
47741SOL     OW45119   6.454   7.743   1.485
47741SOL    HW145120   6.516   7.704   1.423
47741SOL    HW245121   6.368   7.726   1.447
47742SOL     OW45122   8.484  11.532   8.268
47742SOL    HW145123   8.547  11.463   8.247
47742SOL    HW245124   8.492  11.594   8.196
47743SOL     OW45125   6.079  13.858   6.296
47743SOL    HW145126   6.094  13.933   6.353
47743SOL    HW245127   6.023  13.891   6.225
47744SOL     OW45128   8.479  13.085  13.258
47744SOL    HW145129   8.440  13.138  13.189
47744SOL    HW245130   8.509  13.149  13.323
47745SOL     OW45131   6.809  14.667   3.548
47745SOL    HW145132   6.850  14.752   3.529
47745SOL    HW245133   6.880  14.614   3.582
47746SOL     OW45134   1.800   9.159   9.416
47746SOL    HW145135   1.831   9.096   9.481
47746SOL    HW245136   1.859   9.148   9.342
47747SOL     OW45137  11.855  13.488   4.645
47747SOL    HW145138  11.945  13.520   4.647
47747SOL    HW245139  11.846  13.435   4.724
47748SOL     OW45140   8.895  11.555   8.617
47748SOL    HW145141   8.864  11.476   8.661
47748SOL    HW245142   8.816  11.603   8.595
47749SOL     OW45143   6.222   9.120  10.393
47749SOL    HW145144   6.174   9.103  10.312
47749SOL    HW245145   6.290   9.053  10.397
47750SOL     OW45146  10.947   1.062   3.337
47750SOL    HW145147  10.974   1.098   3.421
47750SOL    HW245148  10.868   1.111   3.314
47751SOL     OW45149   0.122   5.903  11.556
47751SOL    HW145150   0.177   5.919  11.479
47751SOL    HW245151   0.105   5.808  11.553
47752SOL     OW45152   3.139  12.820   9.024
47752SOL    HW145153   3.086  12.898   9.042
47752SOL    HW245154   3.215  12.829   9.081
47753SOL     OW45155   6.209   6.566  12.612
47753SOL    HW145156   6.298   6.565  12.578
47753SOL    HW245157   6.181   6.474  12.610
47754SOL     OW45158   3.553  10.616  10.674
47754SOL    HW145159   3.630  10.609  10.731
47754SOL    HW245160   3.497  10.680  10.717
47755SOL     OW45161  14.794   4.259   5.226
47755SOL    HW145162  14.739   4.337   5.217
47755SOL    HW245163  14.790   4.217   5.141
47756SOL     OW45164   6.776   9.147   2.144
47756SOL    HW145165   6.789   9.226   2.195
47756SOL    HW245166   6.835   9.156   2.069
47757SOL     OW45167   5.681  14.612  14.199
47757SOL    HW145168   5.744  14.548  14.232
47757SOL    HW245169   5.606  14.604  14.257
47758SOL     OW45170  11.029   8.500   6.812
47758SOL    HW145171  10.987   8.523   6.895
47758SOL    HW245172  11.084   8.575   6.790
47759SOL     OW45173   2.298  14.744   6.705
47759SOL    HW145174   2.241  14.693   6.763
47759SOL    HW245175   2.330  14.680   6.641
47760SOL     OW45176   2.017  13.042  13.908
47760SOL    HW145177   1.970  13.087  13.838
47760SOL    HW245178   1.974  13.071  13.988
47761SOL     OW45179   7.903   3.407   8.645
47761SOL    HW145180   7.977   3.392   8.703
47761SOL    HW245181   7.828   3.371   8.693
47762SOL     OW45182   2.264   5.047   5.490
47762SOL    HW145183   2.222   5.093   5.563
47762SOL    HW245184   2.346   5.013   5.527
47763SOL     OW45185  11.782   4.025   9.608
47763SOL    HW145186  11.843   4.081   9.655
47763SOL    HW245187  11.756   4.076   9.531
47764SOL     OW45188   8.982   2.008   1.525
47764SOL    HW145189   8.959   1.968   1.609
47764SOL    HW245190   8.976   1.937   1.461
47765SOL     OW45191   8.011   4.903   0.480
47765SOL    HW145192   7.998   4.959   0.557
47765SOL    HW245193   7.922   4.887   0.448
47766SOL     OW45194  13.511   7.720   4.131
47766SOL    HW145195  13.586   7.664   4.110
47766SOL    HW245196  13.457   7.719   4.051
47767SOL     OW45197  14.696   6.488  14.810
47767SOL    HW145198  14.734   6.509  14.725
47767SOL    HW245199  14.726   6.558   0.000
47768SOL     OW45200   5.253   6.964   5.621
47768SOL    HW145201   5.276   7.052   5.591
47768SOL    HW245202   5.333   6.913   5.609
47769SOL     OW45203   4.985   0.089   6.891
47769SOL    HW145204   5.066   0.082   6.941
47769SOL    HW245205   4.915   0.075   6.955
47770SOL     OW45206   3.230   9.861   9.939
47770SOL    HW145207   3.197   9.929   9.997
47770SOL    HW245208   3.160   9.847   9.876
47771SOL     OW45209  11.919  13.017   9.249
47771SOL    HW145210  11.955  13.102   9.224
47771SOL    HW245211  11.993  12.969   9.285
47772SOL     OW45212   0.546   4.140  11.361
47772SOL    HW145213   0.482   4.199  11.399
47772SOL    HW245214   0.514   4.124  11.272
47773SOL     OW45215   6.569   9.426  10.765
47773SOL    HW145216   6.493   9.383  10.805
47773SOL    HW245217   6.574   9.511  10.808
47774SOL     OW45218  13.617   7.168   3.133
47774SOL    HW145219  13.592   7.213   3.052
47774SOL    HW245220  13.713   7.165   3.130
47775SOL     OW45221   7.907  11.786   0.812
47775SOL    HW145222   7.869  11.699   0.798
47775SOL    HW245223   7.850  11.826   0.878
47776SOL     OW45224   8.106   2.839   7.341
47776SOL    HW145225   8.082   2.755   7.301
47776SOL    HW245226   8.122   2.897   7.266
47777SOL     OW45227  14.509   1.480  14.302
47777SOL    HW145228  14.491   1.441  14.387
47777SOL    HW245229  14.469   1.420  14.239
47778SOL     OW45230   6.256   0.654   7.010
47778SOL    HW145231   6.220   0.686   6.926
47778SOL    HW245232   6.223   0.717   7.074
47779SOL     OW45233   3.798  12.922   7.065
47779SOL    HW145234   3.721  12.867   7.082
47779SOL    HW245235   3.829  12.947   7.152
47780SOL     OW45236   6.116  13.892  10.960
47780SOL    HW145237   6.063  13.813  10.945
47780SOL    HW245238   6.100  13.946  10.882
47781SOL     OW45239   1.152  11.621   4.805
47781SOL    HW145240   1.106  11.609   4.722
47781SOL    HW245241   1.188  11.535   4.825
47782SOL     OW45242   7.812   8.256   6.844
47782SOL    HW145243   7.881   8.195   6.870
47782SOL    HW245244   7.857   8.322   6.791
47783SOL     OW45245   3.192   3.820   9.354
47783SOL    HW145246   3.281   3.792   9.377
47783SOL    HW245247   3.205   3.897   9.298
47784SOL     OW45248   4.419  14.673  10.474
47784SOL    HW145249   4.433  14.725  10.553
47784SOL    HW245250   4.331  14.636  10.484
47785SOL     OW45251   6.607   3.447  13.779
47785SOL    HW145252   6.533   3.507  13.779
47785SOL    HW245253   6.679   3.497  13.741
47786SOL     OW45254   3.428   2.405   1.250
47786SOL    HW145255   3.471   2.358   1.321
47786SOL    HW245256   3.421   2.495   1.280
47787SOL     OW45257   7.795  10.383   2.719
47787SOL    HW145258   7.790  10.439   2.797
47787SOL    HW245259   7.718  10.327   2.726
47788SOL     OW45260   9.810   5.225   9.814
47788SOL    HW145261   9.852   5.148   9.852
47788SOL    HW245262   9.822   5.214   9.719
47789SOL     OW45263  12.117   1.371   8.224
47789SOL    HW145264  12.101   1.459   8.259
47789SOL    HW245265  12.209   1.372   8.198
47790SOL     OW45266   2.278   8.107  11.303
47790SOL    HW145267   2.286   8.058  11.385
47790SOL    HW245268   2.306   8.196  11.325
47791SOL     OW45269  13.647   5.872   2.426
47791SOL    HW145270  13.679   5.847   2.339
47791SOL    HW245271  13.554   5.891   2.412
47792SOL     OW45272   9.435   7.515   2.373
47792SOL    HW145273   9.518   7.547   2.337
47792SOL    HW245274   9.459   7.436   2.422
47793SOL     OW45275   2.860   6.919   6.703
47793SOL    HW145276   2.891   6.937   6.615
47793SOL    HW245277   2.787   6.981   6.716
47794SOL     OW45278   9.775   9.061   9.039
47794SOL    HW145279   9.831   9.120   8.989
47794SOL    HW245280   9.827   8.981   9.050
47795SOL     OW45281  11.209  10.675   8.970
47795SOL    HW145282  11.144  10.606   8.982
47795SOL    HW245283  11.285  10.630   8.932
47796SOL     OW45284  13.193  14.752   2.166
47796SOL    HW145285  13.211  14.817   2.235
47796SOL    HW245286  13.213  14.798   2.085
47797SOL     OW45287   1.112   1.270   8.084
47797SOL    HW145288   1.115   1.177   8.061
47797SOL    HW245289   1.192   1.284   8.135
47798SOL     OW45290   6.841   9.538   7.342
47798SOL    HW145291   6.853   9.600   7.270
47798SOL    HW245292   6.902   9.467   7.323
47799SOL     OW45293   8.010  14.582  12.143
47799SOL    HW145294   7.972  14.670  12.145
47799SOL    HW245295   8.104  14.595  12.152
47800SOL     OW45296  10.092  14.494   2.397
47800SOL    HW145297  10.038  14.446   2.460
47800SOL    HW245298  10.114  14.429   2.330
47801SOL     OW45299  12.207   0.564  11.419
47801SOL    HW145300  12.275   0.581  11.354
47801SOL    HW245301  12.226   0.625  11.491
47802SOL     OW45302   2.204   6.623  12.375
47802SOL    HW145303   2.288   6.663  12.394
47802SOL    HW245304   2.187   6.644  12.283
47803SOL     OW45305   1.212  12.998  11.445
47803SOL    HW145306   1.271  12.925  11.464
47803SOL    HW245307   1.205  13.000  11.350
47804SOL     OW45308  13.872  12.606   8.559
47804SOL    HW145309  13.842  12.543   8.494
47804SOL    HW245310  13.853  12.564   8.643
47805SOL     OW45311   4.993  10.960   5.576
47805SOL    HW145312   4.905  10.996   5.586
47805SOL    HW245313   5.035  10.974   5.661
47806SOL     OW45314   2.428   0.446   4.948
47806SOL    HW145315   2.474   0.439   5.031
47806SOL    HW245316   2.487   0.495   4.891
47807SOL     OW45317  12.000  12.524  13.509
47807SOL    HW145318  12.094  12.533  13.500
47807SOL    HW245319  11.975  12.461  13.441
47808SOL     OW45320   3.156   1.036  11.979
47808SOL    HW145321   3.119   0.948  11.982
47808SOL    HW245322   3.084   1.093  12.007
47809SOL     OW45323   0.031  13.210   7.192
47809SOL    HW145324   0.118  13.187   7.160
47809SOL    HW245325   0.046  13.248   7.279
47810SOL     OW45326  13.311  13.116   0.754
47810SOL    HW145327  13.364  13.190   0.784
47810SOL    HW245328  13.327  13.113   0.659
47811SOL     OW45329   7.242   9.444   5.458
47811SOL    HW145330   7.187   9.512   5.498
47811SOL    HW245331   7.315   9.492   5.419
47812SOL     OW45332   7.939   1.778   6.988
47812SOL    HW145333   7.980   1.742   6.909
47812SOL    HW245334   7.982   1.733   7.061
47813SOL     OW45335  11.803  11.746   7.882
47813SOL    HW145336  11.801  11.677   7.815
47813SOL    HW245337  11.717  11.788   7.876
47814SOL     OW45338   6.104  14.762   8.289
47814SOL    HW145339   6.055  14.809   8.222
47814SOL    HW245340   6.098  14.670   8.263
47815SOL     OW45341   9.693  12.440  12.474
47815SOL    HW145342   9.693  12.534  12.491
47815SOL    HW245343   9.784  12.413  12.483
47816SOL     OW45344  11.141  12.654   4.434
47816SOL    HW145345  11.067  12.711   4.412
47816SOL    HW245346  11.110  12.565   4.414
47817SOL     OW45347   2.029  12.632  11.826
47817SOL    HW145348   2.095  12.565  11.807
47817SOL    HW245349   1.949  12.599  11.786
47818SOL     OW45350  13.775   3.452   1.726
47818SOL    HW145351  13.814   3.403   1.798
47818SOL    HW245352  13.807   3.542   1.738
47819SOL     OW45353  10.793   6.213   6.352
47819SOL    HW145354  10.797   6.120   6.376
47819SOL    HW245355  10.749   6.214   6.267
47820SOL     OW45356   3.292   2.361   4.796
47820SOL    HW145357   3.275   2.271   4.769
47820SOL    HW245358   3.385   2.376   4.777
47821SOL     OW45359   0.433  10.871   9.369
47821SOL    HW145360   0.441  10.955   9.414
47821SOL    HW245361   0.361  10.883   9.308
47822SOL     OW45362   6.685  13.302   9.632
47822SOL    HW145363   6.740  13.348   9.696
47822SOL    HW245364   6.733  13.309   9.550
47823SOL     OW45365   5.310  10.995   0.332
47823SOL    HW145366   5.268  10.959   0.254
47823SOL    HW245367   5.238  11.028   0.385
47824SOL     OW45368   7.141   0.239  11.561
47824SOL    HW145369   7.206   0.296  11.603
47824SOL    HW245370   7.191   0.161  11.536
47825SOL     OW45371  13.336   0.409  13.667
47825SOL    HW145372  13.427   0.434  13.651
47825SOL    HW245373  13.332   0.317  13.642
47826SOL     OW45374   4.592   0.968   6.608
47826SOL    HW145375   4.671   0.954   6.660
47826SOL    HW245376   4.573   0.882   6.569
47827SOL     OW45377   2.050   9.735   9.844
47827SOL    HW145378   2.061   9.682   9.765
47827SOL    HW245379   1.983   9.689   9.894
47828SOL     OW45380  10.407  13.446   5.086
47828SOL    HW145381  10.419  13.355   5.059
47828SOL    HW245382  10.376  13.490   5.007
47829SOL     OW45383   4.345   5.779  12.952
47829SOL    HW145384   4.268   5.752  13.003
47829SOL    HW245385   4.419   5.738  12.998
47830SOL     OW45386   3.594  14.559   2.602
47830SOL    HW145387   3.646  14.509   2.539
47830SOL    HW245388   3.611  14.650   2.580
47831SOL     OW45389  13.731   9.547   0.625
47831SOL    HW145390  13.722   9.643   0.622
47831SOL    HW245391  13.748   9.522   0.535
47832SOL     OW45392   4.538  12.943  14.074
47832SOL    HW145393   4.473  12.983  14.131
47832SOL    HW245394   4.588  13.016  14.039
47833SOL     OW45395   2.017  10.959   8.668
47833SOL    HW145396   2.020  10.935   8.761
47833SOL    HW245397   2.026  11.055   8.669
47834SOL     OW45398   0.556   1.420   4.445
47834SOL    HW145399   0.504   1.363   4.502
47834SOL    HW245400   0.522   1.404   4.357
47835SOL     OW45401   6.476  12.649   2.477
47835SOL    HW145402   6.490  12.742   2.458
47835SOL    HW245403   6.446  12.648   2.568
47836SOL     OW45404  13.649   9.639   1.318
47836SOL    HW145405  13.629   9.679   1.403
47836SOL    HW245406  13.700   9.561   1.340
47837SOL     OW45407   3.114  13.141  10.078
47837SOL    HW145408   3.183  13.091  10.035
47837SOL    HW245409   3.154  13.225  10.100
47838SOL     OW45410   1.980   6.654   8.449
47838SOL    HW145411   1.995   6.701   8.531
47838SOL    HW245412   1.931   6.576   8.474
47839SOL     OW45413   8.766   6.652  14.805
47839SOL    HW145414   8.815   6.678  14.727
47839SOL    HW245415   8.816   6.689   0.010
47840SOL     OW45416   4.128   0.733   9.759
47840SOL    HW145417   4.141   0.639   9.772
47840SOL    HW245418   4.186   0.756   9.686
47841SOL     OW45419   3.382   7.971   3.266
47841SOL    HW145420   3.400   8.053   3.221
47841SOL    HW245421   3.391   7.904   3.198
47842SOL     OW45422   0.941   5.026  12.563
47842SOL    HW145423   1.022   5.051  12.518
47842SOL    HW245424   0.969   5.005  12.652
47843SOL     OW45425  12.729   5.050   3.850
47843SOL    HW145426  12.708   5.142   3.865
47843SOL    HW245427  12.817   5.052   3.811
47844SOL     OW45428   4.559   8.725   6.890
47844SOL    HW145429   4.562   8.816   6.920
47844SOL    HW245430   4.618   8.679   6.950
47845SOL     OW45431  11.986  12.086   6.922
47845SOL    HW145432  11.917  12.035   6.881
47845SOL    HW245433  12.067  12.052   6.884
47846SOL     OW45434  10.702   4.567  14.568
47846SOL    HW145435  10.644   4.643  14.561
47846SOL    HW245436  10.695   4.540  14.660
47847SOL     OW45437   1.069   5.924  10.598
47847SOL    HW145438   0.997   5.972  10.639
47847SOL    HW245439   1.031   5.839  10.576
47848SOL     OW45440  10.948  14.029   8.895
47848SOL    HW145441  10.996  13.947   8.906
47848SOL    HW245442  11.006  14.086   8.845
47849SOL     OW45443  13.497  10.936  12.232
47849SOL    HW145444  13.443  11.015  12.230
47849SOL    HW245445  13.449  10.873  12.178
47850SOL     OW45446   1.972  13.516   1.533
47850SOL    HW145447   1.952  13.471   1.615
47850SOL    HW245448   2.029  13.454   1.485
47851SOL     OW45449   2.533   9.701   2.741
47851SOL    HW145450   2.587   9.684   2.664
47851SOL    HW245451   2.572   9.648   2.810
47852SOL     OW45452   3.588  14.248   7.597
47852SOL    HW145453   3.602  14.265   7.503
47852SOL    HW245454   3.514  14.188   7.600
47853SOL     OW45455   9.089   9.398  14.002
47853SOL    HW145456   9.009   9.361  13.965
47853SOL    HW245457   9.060   9.479  14.045
47854SOL     OW45458   8.342  10.317   6.619
47854SOL    HW145459   8.257  10.318   6.576
47854SOL    HW245460   8.322  10.299   6.711
47855SOL     OW45461  12.130   7.991   2.499
47855SOL    HW145462  12.089   7.969   2.415
47855SOL    HW245463  12.144   7.906   2.542
47856SOL     OW45464  11.410   1.279   0.480
47856SOL    HW145465  11.344   1.324   0.427
47856SOL    HW245466  11.361   1.240   0.552
47857SOL     OW45467  10.350  10.838  10.504
47857SOL    HW145468  10.356  10.929  10.474
47857SOL    HW245469  10.403  10.789  10.441
47858SOL     OW45470   7.225   3.425   9.378
47858SOL    HW145471   7.297   3.484   9.402
47858SOL    HW245472   7.182   3.470   9.305
47859SOL     OW45473   5.435   5.732  11.837
47859SOL    HW145474   5.520   5.690  11.839
47859SOL    HW245475   5.377   5.668  11.797
47860SOL     OW45476   3.302   4.006   6.956
47860SOL    HW145477   3.320   4.023   7.048
47860SOL    HW245478   3.379   4.038   6.909
47861SOL     OW45479   6.171   2.878  13.470
47861SOL    HW145480   6.241   2.847  13.528
47861SOL    HW245481   6.092   2.872  13.523
47862SOL     OW45482   7.831   0.387   0.368
47862SOL    HW145483   7.925   0.376   0.355
47862SOL    HW245484   7.823   0.445   0.444
47863SOL     OW45485   3.083   0.305   2.794
47863SOL    HW145486   3.120   0.392   2.799
47863SOL    HW245487   3.019   0.302   2.866
47864SOL     OW45488   8.322   9.827  14.430
47864SOL    HW145489   8.401   9.870  14.397
47864SOL    HW245490   8.269   9.898  14.466
47865SOL     OW45491   4.038   5.558   1.322
47865SOL    HW145492   3.989   5.476   1.322
47865SOL    HW245493   4.102   5.547   1.392
47866SOL     OW45494   6.938   0.511  14.597
47866SOL    HW145495   7.000   0.439  14.613
47866SOL    HW245496   6.922   0.549  14.683
47867SOL     OW45497   5.727   3.717   9.745
47867SOL    HW145498   5.711   3.709   9.651
47867SOL    HW245499   5.770   3.802   9.755
47868SOL     OW45500  11.745  14.091   0.465
47868SOL    HW145501  11.786  14.100   0.551
47868SOL    HW245502  11.808  14.130   0.405
47869SOL     OW45503  10.879  10.921   0.532
47869SOL    HW145504  10.797  10.966   0.514
47869SOL    HW245505  10.946  10.976   0.491
47870SOL     OW45506   6.398  10.677   4.385
47870SOL    HW145507   6.347  10.675   4.466
47870SOL    HW245508   6.351  10.616   4.326
47871SOL     OW45509   4.806   3.911   8.307
47871SOL    HW145510   4.809   3.824   8.266
47871SOL    HW245511   4.860   3.965   8.249
47872SOL     OW45512  11.386   0.169  11.019
47872SOL    HW145513  11.305   0.120  11.035
47872SOL    HW245514  11.402   0.215  11.101
47873SOL     OW45515  11.204  11.722   5.353
47873SOL    HW145516  11.286  11.747   5.394
47873SOL    HW245517  11.229  11.674   5.274
47874SOL     OW45518  12.041  13.756  11.979
47874SOL    HW145519  12.021  13.780  12.069
47874SOL    HW245520  12.079  13.668  11.985
47875SOL     OW45521   5.497   2.672   0.831
47875SOL    HW145522   5.408   2.701   0.850
47875SOL    HW245523   5.553   2.732   0.878
47876SOL     OW45524   4.098   4.208   4.548
47876SOL    HW145525   4.104   4.113   4.540
47876SOL    HW245526   4.004   4.225   4.559
47877SOL     OW45527  14.120   5.224   0.860
47877SOL    HW145528  14.141   5.161   0.791
47877SOL    HW245529  14.053   5.281   0.822
47878SOL     OW45530  11.612   9.048  12.852
47878SOL    HW145531  11.563   8.989  12.794
47878SOL    HW245532  11.619   9.129  12.802
47879SOL     OW45533   3.258   2.007   9.821
47879SOL    HW145534   3.283   2.052   9.740
47879SOL    HW245535   3.269   1.914   9.802
47880SOL     OW45536  10.349   3.946   0.928
47880SOL    HW145537  10.376   3.908   1.011
47880SOL    HW245538  10.323   3.872   0.874
47881SOL     OW45539   7.690  14.140  10.276
47881SOL    HW145540   7.620  14.169  10.335
47881SOL    HW245541   7.769  14.144  10.330
47882SOL     OW45542   6.005   8.744  10.517
47882SOL    HW145543   6.048   8.781  10.594
47882SOL    HW245544   5.967   8.819  10.472
47883SOL     OW45545   6.778   0.804  10.857
47883SOL    HW145546   6.717   0.866  10.816
47883SOL    HW245547   6.809   0.849  10.936
47884SOL     OW45548   4.578   4.370   9.171
47884SOL    HW145549   4.504   4.430   9.181
47884SOL    HW245550   4.650   4.410   9.220
47885SOL     OW45551   6.043   8.288   3.084
47885SOL    HW145552   6.117   8.228   3.092
47885SOL    HW245553   5.976   8.250   3.141
47886SOL     OW45554   7.411  12.630   1.612
47886SOL    HW145555   7.468  12.665   1.680
47886SOL    HW245556   7.331  12.682   1.618
47887SOL     OW45557   3.476   4.403   5.822
47887SOL    HW145558   3.534   4.332   5.851
47887SOL    HW245559   3.388   4.368   5.832
47888SOL     OW45560   7.005   1.431   7.321
47888SOL    HW145561   7.083   1.452   7.372
47888SOL    HW245562   6.934   1.476   7.366
47889SOL     OW45563   3.986   5.457   0.141
47889SOL    HW145564   3.926   5.531   0.131
47889SOL    HW245565   4.073   5.497   0.149
47890SOL     OW45566  10.561   8.427   4.660
47890SOL    HW145567  10.596   8.354   4.711
47890SOL    HW245568  10.550   8.498   4.723
47891SOL     OW45569   1.655   9.615   4.541
47891SOL    HW145570   1.749   9.634   4.551
47891SOL    HW245571   1.629   9.664   4.464
47892SOL     OW45572   2.114   9.424   1.178
47892SOL    HW145573   2.183   9.395   1.119
47892SOL    HW245574   2.062   9.346   1.194
47893SOL     OW45575  13.994   6.288   0.614
47893SOL    HW145576  14.035   6.369   0.645
47893SOL    HW245577  13.940   6.314   0.540
47894SOL     OW45578  12.340  14.774  10.107
47894SOL    HW145579  12.281  14.793  10.180
47894SOL    HW245580  12.282  14.751  10.034
47895SOL     OW45581  12.086  13.349  10.137
47895SOL    HW145582  11.994  13.350  10.162
47895SOL    HW245583  12.110  13.441  10.128
47896SOL     OW45584   3.787  10.609  12.964
47896SOL    HW145585   3.852  10.613  12.893
47896SOL    HW245586   3.705  10.633  12.922
47897SOL     OW45587  10.613   3.667   7.848
47897SOL    HW145588  10.681   3.734   7.857
47897SOL    HW245589  10.615   3.643   7.756
47898SOL     OW45590   3.924   5.781   5.802
47898SOL    HW145591   3.884   5.840   5.738
47898SOL    HW245592   3.912   5.826   5.886
47899SOL     OW45593  13.201   0.541   7.234
47899SOL    HW145594  13.132   0.608   7.226
47899SOL    HW245595  13.227   0.545   7.326
47900SOL     OW45596   5.570   3.589  13.259
47900SOL    HW145597   5.648   3.631  13.296
47900SOL    HW245598   5.554   3.514  13.317
47901SOL     OW45599   0.267   8.036  14.358
47901SOL    HW145600   0.348   8.035  14.307
47901SOL    HW245601   0.289   8.084  14.438
47902SOL     OW45602   4.811  10.810   1.624
47902SOL    HW145603   4.880  10.809   1.690
47902SOL    HW245604   4.775  10.721   1.624
47903SOL     OW45605  10.264   5.177   8.841
47903SOL    HW145606  10.243   5.265   8.872
47903SOL    HW245607  10.288   5.188   8.749
47904SOL     OW45608  14.482   9.011   3.596
47904SOL    HW145609  14.461   9.104   3.588
47904SOL    HW245610  14.544   9.007   3.669
47905SOL     OW45611   6.573   8.073   2.534
47905SOL    HW145612   6.548   8.141   2.596
47905SOL    HW245613   6.662   8.048   2.560
47906SOL     OW45614   3.076   1.246  11.514
47906SOL    HW145615   3.054   1.174  11.456
47906SOL    HW245616   3.130   1.206  11.583
47907SOL     OW45617   0.035  13.020  11.597
47907SOL    HW145618   0.028  12.963  11.674
47907SOL    HW245619   0.129  13.037  11.587
47908SOL     OW45620  13.944   8.995  10.527
47908SOL    HW145621  13.995   8.966  10.452
47908SOL    HW245622  13.866   8.938  10.526
47909SOL     OW45623   6.867   4.136   9.759
47909SOL    HW145624   6.792   4.078   9.751
47909SOL    HW245625   6.838   4.219   9.719
47910SOL     OW45626  14.237   4.594  13.385
47910SOL    HW145627  14.225   4.654  13.311
47910SOL    HW245628  14.295   4.641  13.445
47911SOL     OW45629  10.980   0.814   1.194
47911SOL    HW145630  11.032   0.733   1.189
47911SOL    HW245631  10.920   0.800   1.267
47912SOL     OW45632  11.661   4.381   6.613
47912SOL    HW145633  11.588   4.323   6.597
47912SOL    HW245634  11.628   4.444   6.677
47913SOL     OW45635   5.061   6.436  10.296
47913SOL    HW145636   5.029   6.389  10.219
47913SOL    HW245637   5.106   6.369  10.348
47914SOL     OW45638  12.079  12.141   0.830
47914SOL    HW145639  11.986  12.154   0.809
47914SOL    HW245640  12.086  12.049   0.853
47915SOL     OW45641  10.135   6.767   0.819
47915SOL    HW145642  10.179   6.842   0.858
47915SOL    HW245643  10.050   6.801   0.790
47916SOL     OW45644   4.212  12.067   5.234
47916SOL    HW145645   4.188  12.160   5.232
47916SOL    HW245646   4.191  12.039   5.323
47917SOL     OW45647   4.768   3.940   9.987
47917SOL    HW145648   4.759   4.030   9.956
47917SOL    HW245649   4.782   3.888   9.907
47918SOL     OW45650  13.083   0.061   3.128
47918SOL    HW145651  13.171   0.024   3.120
47918SOL    HW245652  13.095   0.143   3.177
47919SOL     OW45653   3.792  13.024   7.343
47919SOL    HW145654   3.703  13.057   7.351
47919SOL    HW245655   3.847  13.100   7.363
47920SOL     OW45656   6.904   6.071   7.265
47920SOL    HW145657   6.829   6.018   7.292
47920SOL    HW245658   6.873   6.162   7.273
47921SOL     OW45659   1.117  11.790   6.108
47921SOL    HW145660   1.133  11.822   6.197
47921SOL    HW245661   1.022  11.793   6.099
47922SOL     OW45662   7.828   5.033   5.534
47922SOL    HW145663   7.917   5.048   5.565
47922SOL    HW245664   7.788   4.979   5.602
47923SOL     OW45665   3.890   0.076   2.417
47923SOL    HW145666   3.851   0.121   2.492
47923SOL    HW245667   3.938   0.003   2.455
47924SOL     OW45668   8.075  14.537  11.140
47924SOL    HW145669   8.140  14.469  11.121
47924SOL    HW245670   8.095  14.608  11.079
47925SOL     OW45671   1.780  11.324  11.832
47925SOL    HW145672   1.703  11.275  11.801
47925SOL    HW245673   1.825  11.262  11.890
47926SOL     OW45674   6.282   5.407  10.479
47926SOL    HW145675   6.331   5.427  10.399
47926SOL    HW245676   6.219   5.340  10.453
47927SOL     OW45677   9.513   2.157  10.329
47927SOL    HW145678   9.461   2.236  10.319
47927SOL    HW245679   9.596   2.187  10.367
47928SOL     OW45680  12.226  10.135   1.663
47928SOL    HW145681  12.218  10.230   1.665
47928SOL    HW245682  12.240  10.111   1.755
47929SOL     OW45683  13.427  10.615   9.908
47929SOL    HW145684  13.432  10.630  10.002
47929SOL    HW245685  13.447  10.700   9.868
47930SOL     OW45686   9.888   7.502  10.590
47930SOL    HW145687   9.899   7.596  10.607
47930SOL    HW245688   9.799   7.483  10.621
47931SOL     OW45689  14.533   2.747   2.057
47931SOL    HW145690  14.479   2.801   2.000
47931SOL    HW245691  14.515   2.657   2.029
47932SOL     OW45692  12.491  10.305   1.234
47932SOL    HW145693  12.426  10.349   1.287
47932SOL    HW245694  12.452  10.220   1.213
47933SOL     OW45695   2.898   8.892   5.989
47933SOL    HW145696   2.967   8.871   5.927
47933SOL    HW245697   2.936   8.959   6.046
47934SOL     OW45698   3.591   8.022  12.061
47934SOL    HW145699   3.557   8.105  12.093
47934SOL    HW245700   3.553   7.956  12.120
47935SOL     OW45701   5.046  14.022  12.565
47935SOL    HW145702   4.966  13.984  12.530
47935SOL    HW245703   5.015  14.092  12.623
47936SOL     OW45704  12.706  14.226   2.531
47936SOL    HW145705  12.673  14.149   2.577
47936SOL    HW245706  12.749  14.191   2.453
47937SOL     OW45707   2.508  12.086  10.456
47937SOL    HW145708   2.485  12.166  10.410
47937SOL    HW245709   2.578  12.047  10.404
47938SOL     OW45710   8.835   0.142   8.604
47938SOL    HW145711   8.779   0.166   8.678
47938SOL    HW245712   8.788   0.073   8.558
47939SOL     OW45713  13.999  14.238  11.373
47939SOL    HW145714  13.923  14.182  11.353
47939SOL    HW245715  13.994  14.252  11.468
47940SOL     OW45716   9.322   6.884  11.446
47940SOL    HW145717   9.295   6.879  11.354
47940SOL    HW245718   9.414   6.911  11.443
47941SOL     OW45719   7.025   2.764   5.790
47941SOL    HW145720   7.069   2.826   5.732
47941SOL    HW245721   6.988   2.698   5.732
47942SOL     OW45722   6.269  13.679  11.710
47942SOL    HW145723   6.179  13.699  11.686
47942SOL    HW245724   6.314  13.667  11.626
47943SOL     OW45725  13.711   5.746   2.980
47943SOL    HW145726  13.747   5.732   3.068
47943SOL    HW245727  13.656   5.824   2.990
47944SOL     OW45728  12.312   8.656   5.957
47944SOL    HW145729  12.262   8.680   6.035
47944SOL    HW245730  12.393   8.619   5.991
47945SOL     OW45731  13.520  10.795  10.735
47945SOL    HW145732  13.476  10.800  10.650
47945SOL    HW245733  13.555  10.883  10.750
47946SOL     OW45734  10.224   3.644   2.108
47946SOL    HW145735  10.234   3.621   2.200
47946SOL    HW245736  10.190   3.734   2.109
47947SOL     OW45737  13.162  10.046  14.667
47947SOL    HW145738  13.150  10.131  14.710
47947SOL    HW245739  13.199   9.990  14.735
47948SOL     OW45740   0.065   2.221   5.200
47948SOL    HW145741   0.069   2.125   5.200
47948SOL    HW245742   0.150   2.249   5.166
47949SOL     OW45743   7.535   8.827   7.918
47949SOL    HW145744   7.529   8.746   7.970
47949SOL    HW245745   7.601   8.807   7.851
47950SOL     OW45746   9.820  13.675  13.098
47950SOL    HW145747   9.855  13.640  13.180
47950SOL    HW245748   9.726  13.683  13.113
47951SOL     OW45749   5.142   0.913   6.323
47951SOL    HW145750   5.231   0.920   6.286
47951SOL    HW245751   5.093   0.983   6.280
47952SOL     OW45752  13.438   5.461  14.142
47952SOL    HW145753  13.429   5.388  14.080
47952SOL    HW245754  13.355   5.463  14.188
47953SOL     OW45755   7.417   4.666   3.016
47953SOL    HW145756   7.508   4.674   3.046
47953SOL    HW245757   7.381   4.594   3.068
47954SOL     OW45758  12.073   4.445   5.646
47954SOL    HW145759  12.136   4.372   5.648
47954SOL    HW245760  12.110   4.507   5.583
47955SOL     OW45761   6.471   3.633   8.973
47955SOL    HW145762   6.398   3.653   8.914
47955SOL    HW245763   6.534   3.704   8.958
47956SOL     OW45764   2.734  10.656   0.649
47956SOL    HW145765   2.765  10.573   0.611
47956SOL    HW245766   2.714  10.711   0.573
47957SOL     OW45767   2.871   1.444   6.301
47957SOL    HW145768   2.930   1.459   6.375
47957SOL    HW245769   2.784   1.464   6.335
47958SOL     OW45770   1.173   4.950  14.467
47958SOL    HW145771   1.145   5.038  14.441
47958SOL    HW245772   1.105   4.921  14.529
47959SOL     OW45773   1.922  13.233   1.994
47959SOL    HW145774   1.827  13.240   1.984
47959SOL    HW245775   1.937  13.143   2.022
47960SOL     OW45776   4.756   2.251   5.889
47960SOL    HW145777   4.780   2.160   5.902
47960SOL    HW245778   4.828   2.301   5.928
47961SOL     OW45779   6.448  14.218   4.752
47961SOL    HW145780   6.375  14.158   4.738
47961SOL    HW245781   6.517  14.185   4.695
47962SOL     OW45782  13.591   7.174   2.555
47962SOL    HW145783  13.503   7.166   2.591
47962SOL    HW245784  13.625   7.085   2.552
47963SOL     OW45785  12.373   3.078  13.251
47963SOL    HW145786  12.401   3.146  13.189
47963SOL    HW245787  12.381   2.996  13.203
47964SOL     OW45788   1.859   6.292   4.988
47964SOL    HW145789   1.935   6.277   5.045
47964SOL    HW245790   1.877   6.375   4.945
47965SOL     OW45791  10.587  11.057  14.514
47965SOL    HW145792  10.518  11.079  14.451
47965SOL    HW245793  10.586  10.962  14.518
47966SOL     OW45794   4.431  11.112   3.810
47966SOL    HW145795   4.525  11.101   3.791
47966SOL    HW245796   4.388  11.097   3.726
47967SOL     OW45797   5.310   6.214   5.626
47967SOL    HW145798   5.216   6.206   5.643
47967SOL    HW245799   5.323   6.173   5.541
47968SOL     OW45800   9.678   4.707  11.497
47968SOL    HW145801   9.733   4.706  11.418
47968SOL    HW245802   9.639   4.794  11.497
47969SOL     OW45803   8.840   4.009   1.852
47969SOL    HW145804   8.917   4.039   1.805
47969SOL    HW245805   8.874   3.955   1.923
47970SOL     OW45806   8.363   3.540   6.119
47970SOL    HW145807   8.341   3.499   6.202
47970SOL    HW245808   8.281   3.540   6.069
47971SOL     OW45809   7.817   1.068   7.956
47971SOL    HW145810   7.888   1.036   8.011
47971SOL    HW245811   7.821   1.013   7.877
47972SOL     OW45812   5.097   7.615   4.756
47972SOL    HW145813   5.098   7.650   4.846
47972SOL    HW245814   5.004   7.599   4.738
47973SOL     OW45815  12.030   6.431  14.755
47973SOL    HW145816  12.003   6.339  14.760
47973SOL    HW245817  11.960   6.479  14.799
47974SOL     OW45818   1.822   7.603   8.832
47974SOL    HW145819   1.840   7.512   8.855
47974SOL    HW245820   1.824   7.650   8.915
47975SOL     OW45821   5.094   0.092  13.897
47975SOL    HW145822   5.027   0.158  13.912
47975SOL    HW245823   5.147   0.128  13.826
47976SOL     OW45824  12.358   3.836   9.110
47976SOL    HW145825  12.312   3.759   9.076
47976SOL    HW245826  12.344   3.903   9.044
47977SOL     OW45827   6.448  10.469   7.837
47977SOL    HW145828   6.530  10.502   7.875
47977SOL    HW245829   6.418  10.539   7.779
47978SOL     OW45830   8.074   4.810   4.623
47978SOL    HW145831   8.089   4.904   4.615
47978SOL    HW245832   8.150   4.777   4.671
47979SOL     OW45833   6.957  14.280   6.725
47979SOL    HW145834   6.986  14.361   6.684
47979SOL    HW245835   6.868  14.298   6.755
47980SOL     OW45836   9.494  10.703   2.003
47980SOL    HW145837   9.417  10.743   1.961
47980SOL    HW245838   9.461  10.673   2.088
47981SOL     OW45839  14.115   5.957   6.879
47981SOL    HW145840  14.067   5.897   6.822
47981SOL    HW245841  14.207   5.933   6.868
47982SOL     OW45842   9.422   6.292  11.196
47982SOL    HW145843   9.337   6.266  11.160
47982SOL    HW245844   9.440   6.228  11.264
47983SOL     OW45845   1.701   9.711   0.272
47983SOL    HW145846   1.788   9.690   0.237
47983SOL    HW245847   1.640   9.669   0.212
47984SOL     OW45848  12.891   1.222   8.232
47984SOL    HW145849  12.958   1.206   8.299
47984SOL    HW245850  12.870   1.135   8.198
47985SOL     OW45851  12.304  10.350   6.837
47985SOL    HW145852  12.337  10.272   6.793
47985SOL    HW245853  12.351  10.423   6.795
47986SOL     OW45854  10.415   4.343   3.360
47986SOL    HW145855  10.405   4.365   3.452
47986SOL    HW245856  10.327   4.351   3.323
47987SOL     OW45857  10.133   8.013   6.326
47987SOL    HW145858  10.117   7.944   6.262
47987SOL    HW245859  10.225   8.035   6.314
47988SOL     OW45860  10.888  13.638   5.785
47988SOL    HW145861  10.840  13.692   5.722
47988SOL    HW245862  10.970  13.617   5.740
47989SOL     OW45863   2.118   5.724   2.529
47989SOL    HW145864   2.085   5.643   2.490
47989SOL    HW245865   2.179   5.760   2.464
47990SOL     OW45866   1.754   8.411   5.395
47990SOL    HW145867   1.730   8.349   5.463
47990SOL    HW245868   1.732   8.497   5.432
47991SOL     OW45869   2.848   9.504   3.839
47991SOL    HW145870   2.847   9.461   3.753
47991SOL    HW245871   2.921   9.565   3.835
47992SOL     OW45872   8.777  12.646  10.354
47992SOL    HW145873   8.848  12.671  10.295
47992SOL    HW245874   8.782  12.709  10.426
47993SOL     OW45875   8.911   5.597   2.277
47993SOL    HW145876   8.909   5.619   2.184
47993SOL    HW245877   8.819   5.586   2.301
47994SOL     OW45878   2.269  13.658  12.091
47994SOL    HW145879   2.244  13.678  12.001
47994SOL    HW245880   2.202  13.596  12.121
47995SOL     OW45881   6.438   2.754  14.745
47995SOL    HW145882   6.478   2.840  14.759
47995SOL    HW245883   6.415   2.754  14.652
47996SOL     OW45884   1.549   1.092   4.865
47996SOL    HW145885   1.628   1.143   4.851
47996SOL    HW245886   1.580   1.008   4.898
47997SOL     OW45887  13.912  10.665  13.207
47997SOL    HW145888  13.889  10.634  13.295
47997SOL    HW245889  13.849  10.623  13.149
47998SOL     OW45890   1.880   0.821  10.624
47998SOL    HW145891   1.972   0.847  10.619
47998SOL    HW245892   1.857   0.795  10.535
47999SOL     OW45893   2.067  12.426  12.942
47999SOL    HW145894   2.110  12.503  12.904
47999SOL    HW245895   1.974  12.442  12.930
48000SOL     OW45896   1.824   7.177  11.990
48000SOL    HW145897   1.869   7.112  12.042
48000SOL    HW245898   1.800   7.132  11.909
48001SOL     OW45899   3.440  14.401   1.858
48001SOL    HW145900   3.463  14.487   1.824
48001SOL    HW245901   3.448  14.343   1.782
48002SOL     OW45902   2.241  10.602  13.094
48002SOL    HW145903   2.259  10.509  13.081
48002SOL    HW245904   2.146  10.609  13.085
48003SOL     OW45905   3.064   0.435   9.863
48003SOL    HW145906   3.060   0.529   9.850
48003SOL    HW245907   3.110   0.424   9.946
48004SOL     OW45908   1.408   4.909   3.765
48004SOL    HW145909   1.402   4.834   3.824
48004SOL    HW245910   1.470   4.882   3.698
48005SOL     OW45911   8.000   4.610  13.049
48005SOL    HW145912   8.095   4.627  13.050
48005SOL    HW245913   7.961   4.696  13.065
48006SOL     OW45914   5.781   5.116   5.294
48006SOL    HW145915   5.831   5.195   5.270
48006SOL    HW245916   5.763   5.073   5.211
48007SOL     OW45917   2.017  11.026   7.000
48007SOL    HW145918   2.099  11.066   7.028
48007SOL    HW245919   1.982  10.984   7.079
48008SOL     OW45920   6.233   4.851   6.070
48008SOL    HW145921   6.151   4.809   6.096
48008SOL    HW245922   6.282   4.861   6.151
48009SOL     OW45923  10.050   2.398  11.783
48009SOL    HW145924  10.095   2.334  11.838
48009SOL    HW245925  10.048   2.478  11.837
48010SOL     OW45926   2.331   5.404   3.191
48010SOL    HW145927   2.390   5.440   3.126
48010SOL    HW245928   2.282   5.336   3.144
48011SOL     OW45929   1.624   9.433  11.783
48011SOL    HW145930   1.534   9.402  11.773
48011SOL    HW245931   1.627   9.469  11.871
48012SOL     OW45932  12.957   9.629   6.251
48012SOL    HW145933  13.023   9.560   6.246
48012SOL    HW245934  13.001   9.701   6.296
48013SOL     OW45935  11.433   4.953   0.593
48013SOL    HW145936  11.355   4.933   0.542
48013SOL    HW245937  11.456   5.042   0.567
48014SOL     OW45938  14.663   3.291   1.831
48014SOL    HW145939  14.635   3.245   1.911
48014SOL    HW245940  14.694   3.376   1.862
48015SOL     OW45941   8.969   0.168   2.631
48015SOL    HW145942   9.059   0.195   2.615
48015SOL    HW245943   8.959   0.172   2.727
48016SOL     OW45944  13.425   0.371   8.169
48016SOL    HW145945  13.444   0.446   8.226
48016SOL    HW245946  13.498   0.370   8.107
48017SOL     OW45947   2.037  12.402   0.505
48017SOL    HW145948   1.961  12.352   0.535
48017SOL    HW245949   2.045  12.474   0.567
48018SOL     OW45950  12.371  10.520  12.412
48018SOL    HW145951  12.460  10.527  12.448
48018SOL    HW245952  12.334  10.444  12.456
48019SOL     OW45953  14.206   3.315   0.012
48019SOL    HW145954  14.149   3.270  14.819
48019SOL    HW245955  14.147   3.366   0.068
48020SOL     OW45956  10.317  11.985   4.886
48020SOL    HW145957  10.280  12.003   4.973
48020SOL    HW245958  10.348  12.071   4.855
48021SOL     OW45959  14.574   3.662   2.124
48021SOL    HW145960  14.604   3.641   2.213
48021SOL    HW245961  14.493   3.613   2.113
48022SOL     OW45962  13.261   6.477  11.687
48022SOL    HW145963  13.275   6.514  11.600
48022SOL    HW245964  13.319   6.402  11.691
48023SOL     OW45965   3.607   5.299  11.010
48023SOL    HW145966   3.557   5.224  11.042
48023SOL    HW245967   3.685   5.260  10.970
48024SOL     OW45968   6.160   0.491  13.869
48024SOL    HW145969   6.074   0.531  13.861
48024SOL    HW245970   6.175   0.448  13.785
48025SOL     OW45971   6.354   4.491   0.352
48025SOL    HW145972   6.384   4.409   0.313
48025SOL    HW245973   6.304   4.534   0.282
48026SOL     OW45974  12.826   2.658   0.477
48026SOL    HW145975  12.857   2.619   0.559
48026SOL    HW245976  12.817   2.585   0.417
48027SOL     OW45977   9.266   7.309  10.532
48027SOL    HW145978   9.266   7.351  10.446
48027SOL    HW245979   9.184   7.259  10.534
48028SOL     OW45980   0.380  14.301   3.523
48028SOL    HW145981   0.400  14.253   3.604
48028SOL    HW245982   0.285  14.296   3.516
48029SOL     OW45983   1.229   5.008  11.089
48029SOL    HW145984   1.180   4.967  11.159
48029SOL    HW245985   1.318   5.018  11.123
48030SOL     OW45986  14.610  14.324   9.202
48030SOL    HW145987  14.630  14.355   9.290
48030SOL    HW245988  14.568  14.239   9.215
48031SOL     OW45989  14.030   8.065  10.392
48031SOL    HW145990  14.004   8.155  10.413
48031SOL    HW245991  14.125   8.067  10.392
48032SOL     OW45992   6.684   4.535  11.603
48032SOL    HW145993   6.609   4.589  11.578
48032SOL    HW245994   6.649   4.447  11.609
48033SOL     OW45995  13.263  13.572  12.400
48033SOL    HW145996  13.355  13.578  12.426
48033SOL    HW245997  13.239  13.482  12.418
48034SOL     OW45998  13.259   0.201   2.547
48034SOL    HW145999  13.212   0.245   2.618
48034SOL    HW246000  13.191   0.156   2.498
48035SOL     OW46001   7.311  12.812   9.690
48035SOL    HW146002   7.389  12.864   9.674
48035SOL    HW246003   7.261  12.818   9.609
48036SOL     OW46004   6.185   5.672  14.200
48036SOL    HW146005   6.210   5.580  14.213
48036SOL    HW246006   6.133   5.693  14.277
48037SOL     OW46007   5.656  14.718   5.340
48037SOL    HW146008   5.685  14.627   5.338
48037SOL    HW246009   5.731  14.768   5.309
48038SOL     OW46010   6.261   9.996   7.774
48038SOL    HW146011   6.290  10.084   7.749
48038SOL    HW246012   6.341   9.944   7.773
48039SOL     OW46013   7.299   0.532   8.564
48039SOL    HW146014   7.338   0.451   8.533
48039SOL    HW246015   7.208   0.509   8.584
48040SOL     OW46016   5.092   7.424   3.203
48040SOL    HW146017   5.064   7.463   3.120
48040SOL    HW246018   5.012   7.417   3.254
48041SOL     OW46019  13.734  11.280   0.162
48041SOL    HW146020  13.745  11.185   0.155
48041SOL    HW246021  13.730  11.310   0.071
48042SOL     OW46022   3.494   4.049   9.218
48042SOL    HW146023   3.430   4.056   9.147
48042SOL    HW246024   3.571   4.095   9.184
48043SOL     OW46025   2.209   9.710   2.014
48043SOL    HW146026   2.169   9.688   1.930
48043SOL    HW246027   2.138   9.699   2.078
48044SOL     OW46028  12.446   5.353   1.989
48044SOL    HW146029  12.385   5.303   1.935
48044SOL    HW246030  12.429   5.323   2.078
48045SOL     OW46031   8.621  13.637  12.686
48045SOL    HW146032   8.564  13.707  12.655
48045SOL    HW246033   8.616  13.642  12.781
48046SOL     OW46034   6.609  10.428   5.471
48046SOL    HW146035   6.535  10.368   5.474
48046SOL    HW246036   6.650  10.421   5.557
48047SOL     OW46037   4.664   8.697  14.101
48047SOL    HW146038   4.608   8.627  14.134
48047SOL    HW246039   4.707   8.659  14.024
48048SOL     OW46040  11.636  14.128   5.014
48048SOL    HW146041  11.634  14.176   4.931
48048SOL    HW246042  11.550  14.087   5.019
48049SOL     OW46043   0.921   2.709  10.805
48049SOL    HW146044   0.932   2.797  10.842
48049SOL    HW246045   1.007   2.686  10.771
48050SOL     OW46046   0.483   6.000   0.256
48050SOL    HW146047   0.433   6.018   0.336
48050SOL    HW246048   0.551   5.939   0.283
48051SOL     OW46049   5.953   6.661  11.333
48051SOL    HW146050   5.968   6.625  11.420
48051SOL    HW246051   5.886   6.728  11.346
48052SOL     OW46052   5.056  14.056   6.956
48052SOL    HW146053   5.001  14.123   6.997
48052SOL    HW246054   5.115  14.028   7.025
48053SOL     OW46055   1.244   9.293  13.998
48053SOL    HW146056   1.280   9.336  14.076
48053SOL    HW246057   1.298   9.214  13.988
48054SOL     OW46058   8.203  11.888   1.811
48054SOL    HW146059   8.224  11.910   1.721
48054SOL    HW246060   8.287  11.871   1.853
48055SOL     OW46061   3.957   0.631   9.505
48055SOL    HW146062   3.945   0.584   9.588
48055SOL    HW246063   4.050   0.656   9.506
48056SOL     OW46064  10.267  14.356   6.988
48056SOL    HW146065  10.318  14.306   6.924
48056SOL    HW246066  10.177  14.347   6.959
48057SOL     OW46067   2.753   5.503  10.660
48057SOL    HW146068   2.757   5.553  10.742
48057SOL    HW246069   2.819   5.434  10.671
48058SOL     OW46070   3.834   6.117  12.307
48058SOL    HW146071   3.926   6.135  12.284
48058SOL    HW246072   3.823   6.024  12.289
48059SOL     OW46073  11.806  11.988   3.457
48059SOL    HW146074  11.737  12.033   3.505
48059SOL    HW246075  11.849  12.056   3.407
48060SOL     OW46076   4.758  13.351  14.328
48060SOL    HW146077   4.785  13.316  14.412
48060SOL    HW246078   4.840  13.359  14.278
48061SOL     OW46079  10.067   5.469   5.458
48061SOL    HW146080  10.129   5.397   5.440
48061SOL    HW246081   9.993   5.452   5.400
48062SOL     OW46082   9.942  11.618  10.311
48062SOL    HW146083   9.988  11.574  10.381
48062SOL    HW246084   9.962  11.711  10.324
48063SOL     OW46085   1.979   9.981   1.786
48063SOL    HW146086   1.970  10.017   1.874
48063SOL    HW246087   1.928   9.899   1.788
48064SOL     OW46088  14.728  14.169   3.206
48064SOL    HW146089  14.721  14.113   3.129
48064SOL    HW246090  14.723  14.258   3.170
48065SOL     OW46091   9.557   8.075   1.446
48065SOL    HW146092   9.529   8.038   1.530
48065SOL    HW246093   9.521   8.015   1.380
48066SOL     OW46094   8.006   1.613   5.761
48066SOL    HW146095   7.934   1.617   5.824
48066SOL    HW246096   8.073   1.561   5.806
48067SOL     OW46097  14.280  12.818  11.979
48067SOL    HW146098  14.281  12.771  12.062
48067SOL    HW246099  14.187  12.839  11.965
48068SOL     OW46100   8.545   1.929  13.210
48068SOL    HW146101   8.451   1.931  13.188
48068SOL    HW246102   8.548   1.951  13.303
48069SOL     OW46103   2.769  12.670   9.579
48069SOL    HW146104   2.744  12.629   9.662
48069SOL    HW246105   2.816  12.602   9.531
48070SOL     OW46106   8.795   1.952  14.814
48070SOL    HW146107   8.825   1.908  14.734
48070SOL    HW246108   8.705   1.978  14.795
48071SOL     OW46109  12.600   9.009   6.896
48071SOL    HW146110  12.587   9.083   6.955
48071SOL    HW246111  12.680   8.966   6.929
48072SOL     OW46112  12.738   7.010   8.772
48072SOL    HW146113  12.647   7.037   8.763
48072SOL    HW246114  12.742   6.925   8.729
48073SOL     OW46115   8.675   2.363   5.394
48073SOL    HW146116   8.694   2.286   5.340
48073SOL    HW246117   8.647   2.326   5.478
48074SOL     OW46118   2.804   3.769   3.101
48074SOL    HW146119   2.866   3.829   3.142
48074SOL    HW246120   2.794   3.698   3.163
48075SOL     OW46121  10.253  12.766   9.690
48075SOL    HW146122  10.249  12.717   9.607
48075SOL    HW246123  10.345  12.792   9.697
48076SOL     OW46124   0.977  11.073  10.013
48076SOL    HW146125   1.025  11.154   9.999
48076SOL    HW246126   0.964  11.068  10.108
48077SOL     OW46127  14.361  11.552  14.273
48077SOL    HW146128  14.411  11.494  14.215
48077SOL    HW246129  14.273  11.552  14.237
48078SOL     OW46130   5.365   3.463   8.806
48078SOL    HW146131   5.456   3.455   8.780
48078SOL    HW246132   5.356   3.407   8.883
48079SOL     OW46133   5.886   1.691   7.466
48079SOL    HW146134   5.920   1.779   7.451
48079SOL    HW246135   5.932   1.660   7.543
48080SOL     OW46136   1.242   2.979  12.532
48080SOL    HW146137   1.303   2.944  12.467
48080SOL    HW246138   1.236   2.911  12.599
48081SOL     OW46139  12.735   9.601   6.109
48081SOL    HW146140  12.751   9.521   6.058
48081SOL    HW246141  12.811   9.608   6.166
48082SOL     OW46142   5.647   9.135   8.536
48082SOL    HW146143   5.557   9.103   8.537
48082SOL    HW246144   5.678   9.116   8.447
48083SOL     OW46145   5.020  11.406   2.557
48083SOL    HW146146   4.993  11.426   2.646
48083SOL    HW246147   4.939  11.400   2.507
48084SOL     OW46148   7.778   8.406   8.170
48084SOL    HW146149   7.834   8.380   8.243
48084SOL    HW246150   7.818   8.486   8.136
48085SOL     OW46151   2.489   7.019   3.364
48085SOL    HW146152   2.513   7.071   3.441
48085SOL    HW246153   2.420   6.960   3.396
48086SOL     OW46154  13.879   9.589  10.870
48086SOL    HW146155  13.829   9.624  10.944
48086SOL    HW246156  13.830   9.618  10.793
48087SOL     OW46157  13.547  13.174  11.452
48087SOL    HW146158  13.489  13.157  11.527
48087SOL    HW246159  13.623  13.118  11.467
48088SOL     OW46160   4.169   4.259   1.937
48088SOL    HW146161   4.232   4.303   1.993
48088SOL    HW246162   4.118   4.329   1.898
48089SOL     OW46163   0.541   9.955   2.750
48089SOL    HW146164   0.497   9.985   2.671
48089SOL    HW246165   0.588  10.032   2.782
48090SOL     OW46166   3.023   4.649   7.742
48090SOL    HW146167   2.998   4.643   7.835
48090SOL    HW246168   3.014   4.742   7.721
48091SOL     OW46169   6.301   9.162   3.605
48091SOL    HW146170   6.242   9.090   3.627
48091SOL    HW246171   6.350   9.178   3.686
48092SOL     OW46172   6.439   3.727   3.007
48092SOL    HW146173   6.419   3.818   2.983
48092SOL    HW246174   6.400   3.675   2.937
48093SOL     OW46175  10.397   4.769   2.816
48093SOL    HW146176  10.378   4.685   2.774
48093SOL    HW246177  10.493   4.776   2.815
48094SOL     OW46178   0.276  11.070   4.220
48094SOL    HW146179   0.231  11.028   4.146
48094SOL    HW246180   0.369  11.060   4.200
48095SOL     OW46181  13.898   4.273   0.136
48095SOL    HW146182  13.935   4.275   0.048
48095SOL    HW246183  13.909   4.363   0.168
48096SOL     OW46184  13.859  14.430   3.942
48096SOL    HW146185  13.889  14.359   3.998
48096SOL    HW246186  13.890  14.407   3.855
48097SOL     OW46187   0.551  11.163   0.882
48097SOL    HW146188   0.549  11.206   0.967
48097SOL    HW246189   0.642  11.171   0.853
48098SOL     OW46190   8.551   3.953   4.358
48098SOL    HW146191   8.525   3.863   4.378
48098SOL    HW246192   8.633   3.945   4.309
48099SOL     OW46193  11.186   2.279   9.342
48099SOL    HW146194  11.270   2.252   9.379
48099SOL    HW246195  11.121   2.255   9.408
48100SOL     OW46196   4.421   3.136  14.367
48100SOL    HW146197   4.448   3.044  14.371
48100SOL    HW246198   4.385   3.146  14.279
48101SOL     OW46199   1.890  13.671   1.962
48101SOL    HW146200   1.904  13.650   2.055
48101SOL    HW246201   1.967  13.722   1.937
48102SOL     OW46202  13.360   6.655  10.268
48102SOL    HW146203  13.278   6.649  10.318
48102SOL    HW246204  13.366   6.747  10.244
48103SOL     OW46205   6.614   4.527  12.399
48103SOL    HW146206   6.588   4.524  12.491
48103SOL    HW246207   6.552   4.469  12.354
48104SOL     OW46208   3.725   8.204   4.284
48104SOL    HW146209   3.754   8.292   4.259
48104SOL    HW246210   3.805   8.160   4.312
48105SOL     OW46211   7.362   3.183   5.011
48105SOL    HW146212   7.391   3.099   5.045
48105SOL    HW246213   7.267   3.180   5.018
48106SOL     OW46214   5.304  11.875   2.913
48106SOL    HW146215   5.336  11.858   2.824
48106SOL    HW246216   5.312  11.791   2.958
48107SOL     OW46217   4.511   2.288   6.458
48107SOL    HW146218   4.421   2.262   6.481
48107SOL    HW246219   4.553   2.306   6.542
48108SOL     OW46220   3.279   1.097   6.287
48108SOL    HW146221   3.370   1.069   6.277
48108SOL    HW246222   3.229   1.016   6.288
48109SOL     OW46223   5.376   7.060   8.301
48109SOL    HW146224   5.301   7.118   8.318
48109SOL    HW246225   5.336   6.977   8.275
48110SOL     OW46226  10.220  10.538  14.685
48110SOL    HW146227  10.301  10.529  14.735
48110SOL    HW246228  10.242  10.509  14.597
48111SOL     OW46229   9.738  13.774   0.615
48111SOL    HW146230   9.828  13.752   0.592
48111SOL    HW246231   9.735  13.767   0.710
48112SOL     OW46232   5.097   8.044  13.874
48112SOL    HW146233   5.080   8.004  13.788
48112SOL    HW246234   5.017   8.092  13.895
48113SOL     OW46235  13.089   6.378   3.157
48113SOL    HW146236  13.051   6.455   3.115
48113SOL    HW246237  13.168   6.411   3.201
48114SOL     OW46238  12.998   3.999  12.295
48114SOL    HW146239  12.950   4.036  12.368
48114SOL    HW246240  13.061   3.939  12.335
48115SOL     OW46241   5.304   5.482   3.624
48115SOL    HW146242   5.324   5.397   3.585
48115SOL    HW246243   5.388   5.516   3.654
48116SOL     OW46244  10.733   3.386   2.813
48116SOL    HW146245  10.774   3.313   2.859
48116SOL    HW246246  10.806   3.441   2.786
48117SOL     OW46247  14.196   7.218   6.470
48117SOL    HW146248  14.214   7.305   6.506
48117SOL    HW246249  14.281   7.188   6.437
48118SOL     OW46250   2.156   6.909  11.960
48118SOL    HW146251   2.218   6.907  11.887
48118SOL    HW246252   2.070   6.899  11.920
48119SOL     OW46253   0.897   8.757  12.060
48119SOL    HW146254   0.820   8.728  12.011
48119SOL    HW246255   0.970   8.745  12.000
48120SOL     OW46256   3.946   4.136  11.182
48120SOL    HW146257   3.963   4.083  11.104
48120SOL    HW246258   3.858   4.110  11.210
48121SOL     OW46259  10.052   4.514   5.660
48121SOL    HW146260   9.968   4.554   5.683
48121SOL    HW246261  10.058   4.437   5.716
48122SOL     OW46262   8.245  10.810  13.480
48122SOL    HW146263   8.192  10.855  13.545
48122SOL    HW246264   8.315  10.767  13.531
48123SOL     OW46265   6.686   1.245  10.833
48123SOL    HW146266   6.733   1.228  10.915
48123SOL    HW246267   6.753   1.270  10.770
48124SOL     OW46268   6.846   6.790  12.094
48124SOL    HW146269   6.818   6.829  12.011
48124SOL    HW246270   6.939   6.811  12.101
48125SOL     OW46271   3.594  10.260  10.886
48125SOL    HW146272   3.629  10.180  10.846
48125SOL    HW246273   3.634  10.332  10.837
48126SOL     OW46274   1.315   5.491   7.775
48126SOL    HW146275   1.303   5.489   7.680
48126SOL    HW246276   1.226   5.484   7.810
48127SOL     OW46277   4.853   3.137   2.107
48127SOL    HW146278   4.913   3.086   2.052
48127SOL    HW246279   4.910   3.188   2.164
48128SOL     OW46280   2.567  12.862  10.447
48128SOL    HW146281   2.641  12.900  10.400
48128SOL    HW246282   2.512  12.937  10.469
48129SOL     OW46283   7.959   1.890   0.863
48129SOL    HW146284   7.993   1.979   0.873
48129SOL    HW246285   7.986   1.864   0.775
48130SOL     OW46286  13.991   7.636  11.819
48130SOL    HW146287  13.901   7.664  11.838
48130SOL    HW246288  13.988   7.541  11.822
48131SOL     OW46289  11.908   8.005   1.481
48131SOL    HW146290  11.905   7.911   1.501
48131SOL    HW246291  11.889   8.047   1.565
48132SOL     OW46292   9.067  11.615   1.957
48132SOL    HW146293   9.064  11.549   1.889
48132SOL    HW246294   9.012  11.686   1.924
48133SOL     OW46295   6.449  12.714   2.997
48133SOL    HW146296   6.492  12.770   3.062
48133SOL    HW246297   6.516  12.699   2.930
48134SOL     OW46298   0.589  13.901  10.004
48134SOL    HW146299   0.587  13.839  10.077
48134SOL    HW246300   0.665  13.874   9.952
48135SOL     OW46301   1.716   7.002   2.073
48135SOL    HW146302   1.648   7.062   2.104
48135SOL    HW246303   1.756   7.048   1.999
48136SOL     OW46304   9.771   3.903   2.270
48136SOL    HW146305   9.733   3.821   2.303
48136SOL    HW246306   9.846   3.919   2.327
48137SOL     OW46307   2.853   3.802  11.231
48137SOL    HW146308   2.911   3.842  11.296
48137SOL    HW246309   2.781   3.765  11.283
48138SOL     OW46310  10.619   9.909  12.483
48138SOL    HW146311  10.541   9.873  12.526
48138SOL    HW246312  10.585   9.969  12.417
48139SOL     OW46313   9.194   8.724   7.466
48139SOL    HW146314   9.136   8.655   7.434
48139SOL    HW246315   9.274   8.713   7.415
48140SOL     OW46316   5.439   5.912   9.574
48140SOL    HW146317   5.505   5.946   9.514
48140SOL    HW246318   5.365   5.888   9.519
48141SOL     OW46319  10.316   6.347  10.144
48141SOL    HW146320  10.274   6.275  10.192
48141SOL    HW246321  10.282   6.426  10.184
48142SOL     OW46322   2.793   8.555   6.836
48142SOL    HW146323   2.711   8.603   6.825
48142SOL    HW246324   2.793   8.491   6.765
48143SOL     OW46325   9.072   9.135   3.464
48143SOL    HW146326   9.039   9.221   3.492
48143SOL    HW246327   9.159   9.128   3.504
48144SOL     OW46328   5.451  12.125   9.269
48144SOL    HW146329   5.424  12.214   9.244
48144SOL    HW246330   5.491  12.089   9.190
48145SOL     OW46331   2.705   0.552   9.725
48145SOL    HW146332   2.686   0.615   9.795
48145SOL    HW246333   2.797   0.566   9.704
48146SOL     OW46334   9.267   6.117  14.541
48146SOL    HW146335   9.240   6.195  14.492
48146SOL    HW246336   9.347   6.144  14.587
48147SOL     OW46337   0.732   1.648   8.260
48147SOL    HW146338   0.753   1.649   8.167
48147SOL    HW246339   0.656   1.591   8.267
48148SOL     OW46340   3.476   4.160   8.892
48148SOL    HW146341   3.544   4.209   8.939
48148SOL    HW246342   3.395   4.208   8.909
48149SOL     OW46343   6.806  14.122  10.095
48149SOL    HW146344   6.863  14.100  10.021
48149SOL    HW246345   6.718  14.103  10.064
48150SOL     OW46346   0.963   3.842  13.646
48150SOL    HW146347   1.024   3.804  13.583
48150SOL    HW246348   0.893   3.878  13.593
48151SOL     OW46349   6.701   4.558   7.895
48151SOL    HW146350   6.736   4.470   7.878
48151SOL    HW246351   6.777   4.608   7.925
48152SOL     OW46352   9.896   7.204   2.682
48152SOL    HW146353   9.985   7.183   2.654
48152SOL    HW246354   9.842   7.134   2.647
48153SOL     OW46355   9.354   2.983   1.012
48153SOL    HW146356   9.350   2.936   1.095
48153SOL    HW246357   9.329   2.918   0.946
48154SOL     OW46358  14.492  12.509   5.500
48154SOL    HW146359  14.546  12.429   5.506
48154SOL    HW246360  14.556  12.580   5.501
48155SOL     OW46361  13.092  12.016   9.216
48155SOL    HW146362  13.153  12.044   9.148
48155SOL    HW246363  13.060  11.931   9.186
48156SOL     OW46364  13.840  13.676  13.963
48156SOL    HW146365  13.871  13.659  14.052
48156SOL    HW246366  13.920  13.675  13.910
48157SOL     OW46367  11.236   4.070  12.147
48157SOL    HW146368  11.174   4.000  12.128
48157SOL    HW246369  11.194   4.149  12.114
48158SOL     OW46370   3.477  10.554   6.328
48158SOL    HW146371   3.410  10.514   6.272
48158SOL    HW246372   3.464  10.513   6.413
48159SOL     OW46373  14.704   1.903  12.822
48159SOL    HW146374  14.642   1.975  12.832
48159SOL    HW246375  14.783   1.945  12.786
48160SOL     OW46376  14.439   0.364  13.313
48160SOL    HW146377  14.457   0.393  13.403
48160SOL    HW246378  14.394   0.280  13.324
48161SOL     OW46379   4.663   8.029   2.622
48161SOL    HW146380   4.752   8.041   2.589
48161SOL    HW246381   4.674   7.978   2.702
48162SOL     OW46382   7.222   8.963   7.037
48162SOL    HW146383   7.186   9.046   7.006
48162SOL    HW246384   7.226   8.908   6.959
48163SOL     OW46385   0.142   4.123   3.190
48163SOL    HW146386   0.223   4.136   3.241
48163SOL    HW246387   0.072   4.135   3.254
48164SOL     OW46388   6.962   4.879   5.451
48164SOL    HW146389   6.924   4.891   5.364
48164SOL    HW246390   7.042   4.932   5.450
48165SOL     OW46391   2.485   7.058   5.848
48165SOL    HW146392   2.436   6.992   5.897
48165SOL    HW246393   2.419   7.123   5.823
48166SOL     OW46394   9.352   4.188   0.731
48166SOL    HW146395   9.399   4.224   0.656
48166SOL    HW246396   9.304   4.262   0.768
48167SOL     OW46397   3.637   1.564   4.835
48167SOL    HW146398   3.554   1.571   4.882
48167SOL    HW246399   3.644   1.646   4.786
48168SOL     OW46400   0.332   8.578   7.323
48168SOL    HW146401   0.307   8.625   7.244
48168SOL    HW246402   0.418   8.541   7.304
48169SOL     OW46403   5.985   8.315   7.537
48169SOL    HW146404   6.015   8.232   7.575
48169SOL    HW246405   5.950   8.290   7.452
48170SOL     OW46406   3.004   4.154   8.105
48170SOL    HW146407   2.959   4.216   8.047
48170SOL    HW246408   3.047   4.092   8.046
48171SOL     OW46409   5.055  14.645  10.212
48171SOL    HW146410   5.001  14.712  10.169
48171SOL    HW246411   5.010  14.627  10.295
48172SOL     OW46412   1.765  13.434   6.447
48172SOL    HW146413   1.729  13.515   6.485
48172SOL    HW246414   1.806  13.389   6.521
48173SOL     OW46415  14.045   0.521   4.726
48173SOL    HW146416  14.067   0.467   4.801
48173SOL    HW246417  14.060   0.611   4.756
48174SOL     OW46418   7.207   9.539   9.836
48174SOL    HW146419   7.195   9.621   9.884
48174SOL    HW246420   7.145   9.545   9.763
48175SOL     OW46421  11.208   6.034   2.686
48175SOL    HW146422  11.163   6.096   2.744
48175SOL    HW246423  11.154   5.955   2.689
48176SOL     OW46424   1.863   6.897  10.794
48176SOL    HW146425   1.873   6.989  10.818
48176SOL    HW246426   1.873   6.850  10.877
48177SOL     OW46427   2.371   0.494  14.091
48177SOL    HW146428   2.309   0.552  14.047
48177SOL    HW246429   2.348   0.406  14.059
48178SOL     OW46430   0.239   2.079   2.231
48178SOL    HW146431   0.235   2.126   2.148
48178SOL    HW246432   0.224   1.987   2.207
48179SOL     OW46433   3.089   2.872   0.331
48179SOL    HW146434   3.101   2.834   0.418
48179SOL    HW246435   3.096   2.967   0.345
48180SOL     OW46436   3.894  13.689  12.319
48180SOL    HW146437   3.814  13.675  12.369
48180SOL    HW246438   3.922  13.602  12.293
48181SOL     OW46439   4.457  12.818   1.763
48181SOL    HW146440   4.408  12.897   1.744
48181SOL    HW246441   4.391  12.749   1.768
48182SOL     OW46442  11.072  10.310   4.963
48182SOL    HW146443  10.979  10.309   4.986
48182SOL    HW246444  11.078  10.255   4.885
48183SOL     OW46445   3.074   2.395   4.531
48183SOL    HW146446   3.092   2.454   4.604
48183SOL    HW246447   3.080   2.307   4.569
48184SOL     OW46448   7.909   8.965   4.719
48184SOL    HW146449   7.960   8.951   4.799
48184SOL    HW246450   7.975   8.976   4.650
48185SOL     OW46451   3.364   9.326   8.515
48185SOL    HW146452   3.334   9.286   8.434
48185SOL    HW246453   3.416   9.257   8.558
48186SOL     OW46454   4.874  14.778  12.189
48186SOL    HW146455   4.805  14.754  12.251
48186SOL    HW246456   4.938  14.827  12.241
48187SOL     OW46457  12.916   8.337  14.199
48187SOL    HW146458  12.972   8.281  14.144
48187SOL    HW246459  12.953   8.328  14.287
48188SOL     OW46460   1.863  10.561   4.527
48188SOL    HW146461   1.833  10.635   4.579
48188SOL    HW246462   1.950  10.540   4.562
48189SOL     OW46463   4.561   1.489  11.902
48189SOL    HW146464   4.520   1.575  11.892
48189SOL    HW246465   4.647   1.498  11.863
48190SOL     OW46466  13.938  14.696   5.554
48190SOL    HW146467  14.014  14.677   5.499
48190SOL    HW246468  13.940  14.628   5.622
48191SOL     OW46469   1.051  11.216  10.593
48191SOL    HW146470   1.069  11.190  10.503
48191SOL    HW246471   1.072  11.309  10.595
48192SOL     OW46472   7.776  10.013  11.223
48192SOL    HW146473   7.799  10.105  11.212
48192SOL    HW246474   7.845   9.977  11.279
48193SOL     OW46475   0.599   8.624   5.649
48193SOL    HW146476   0.688   8.646   5.624
48193SOL    HW246477   0.574   8.692   5.712
48194SOL     OW46478   9.087   5.596  12.523
48194SOL    HW146479   9.104   5.561  12.435
48194SOL    HW246480   9.120   5.686  12.519
48195SOL     OW46481  12.316   4.779   7.616
48195SOL    HW146482  12.253   4.842   7.651
48195SOL    HW246483  12.302   4.699   7.667
48196SOL     OW46484   5.130   7.105   5.090
48196SOL    HW146485   5.043   7.101   5.050
48196SOL    HW246486   5.151   7.198   5.092
48197SOL     OW46487   3.597   5.159   4.977
48197SOL    HW146488   3.685   5.170   4.939
48197SOL    HW246489   3.605   5.082   5.034
48198SOL     OW46490  12.093   5.616   9.643
48198SOL    HW146491  11.999   5.623   9.628
48198SOL    HW246492  12.117   5.700   9.683
48199SOL     OW46493  11.789   4.668   7.784
48199SOL    HW146494  11.781   4.763   7.783
48199SOL    HW246495  11.710   4.638   7.829
48200SOL     OW46496   2.601   1.920   2.744
48200SOL    HW146497   2.551   1.939   2.665
48200SOL    HW246498   2.669   1.987   2.746
48201SOL     OW46499  11.566   4.264  11.501
48201SOL    HW146500  11.658   4.290  11.512
48201SOL    HW246501  11.557   4.185  11.554
48202SOL     OW46502   5.050  12.852   5.781
48202SOL    HW146503   4.995  12.916   5.736
48202SOL    HW246504   5.053  12.776   5.723
48203SOL     OW46505  12.301   0.648   4.129
48203SOL    HW146506  12.395   0.648   4.112
48203SOL    HW246507  12.289   0.585   4.200
48204SOL     OW46508  11.105   9.791  12.763
48204SOL    HW146509  11.016   9.758  12.758
48204SOL    HW246510  11.138   9.759  12.848
48205SOL     OW46511  10.293   3.004   8.019
48205SOL    HW146512  10.199   2.994   8.034
48205SOL    HW246513  10.303   2.992   7.925
48206SOL     OW46514   4.418   3.338  12.341
48206SOL    HW146515   4.418   3.414  12.399
48206SOL    HW246516   4.440   3.375  12.255
48207SOL     OW46517   3.340   2.241   5.054
48207SOL    HW146518   3.314   2.275   4.968
48207SOL    HW246519   3.342   2.146   5.042
48208SOL     OW46520  11.213   5.585   5.737
48208SOL    HW146521  11.205   5.509   5.680
48208SOL    HW246522  11.306   5.606   5.735
48209SOL     OW46523   8.767   3.989   6.382
48209SOL    HW146524   8.748   4.028   6.468
48209SOL    HW246525   8.735   3.900   6.389
48210SOL     OW46526   8.732   8.683   9.967
48210SOL    HW146527   8.669   8.653  10.032
48210SOL    HW246528   8.689   8.758   9.925
48211SOL     OW46529   6.553   5.553   4.102
48211SOL    HW146530   6.475   5.498   4.093
48211SOL    HW246531   6.584   5.566   4.013
48212SOL     OW46532  13.109   5.844   2.727
48212SOL    HW146533  13.155   5.804   2.800
48212SOL    HW246534  13.026   5.797   2.723
48213SOL     OW46535   8.886  10.712   4.631
48213SOL    HW146536   8.959  10.656   4.658
48213SOL    HW246537   8.897  10.724   4.537
48214SOL     OW46538   8.301   0.597  10.622
48214SOL    HW146539   8.222   0.617  10.571
48214SOL    HW246540   8.299   0.502  10.633
48215SOL     OW46541   5.175   0.722   6.807
48215SOL    HW146542   5.149   0.783   6.877
48215SOL    HW246543   5.156   0.635   6.843
48216SOL     OW46544  10.376  12.986   7.879
48216SOL    HW146545  10.360  13.076   7.908
48216SOL    HW246546  10.435  12.996   7.804
48217SOL     OW46547   0.846  10.308   8.363
48217SOL    HW146548   0.929  10.352   8.379
48217SOL    HW246549   0.780  10.377   8.372
48218SOL     OW46550  14.175   8.285  10.809
48218SOL    HW146551  14.264   8.273  10.843
48218SOL    HW246552  14.119   8.246  10.876
48219SOL     OW46553   8.130  11.207  12.026
48219SOL    HW146554   8.105  11.281  11.971
48219SOL    HW246555   8.198  11.161  11.977
48220SOL     OW46556   4.915   2.573   2.278
48220SOL    HW146557   4.871   2.547   2.197
48220SOL    HW246558   4.987   2.629   2.249
48221SOL     OW46559   7.011   6.824   0.223
48221SOL    HW146560   7.040   6.890   0.160
48221SOL    HW246561   7.067   6.839   0.300
48222SOL     OW46562  12.490  14.690   6.982
48222SOL    HW146563  12.565  14.747   6.966
48222SOL    HW246564  12.477  14.643   6.900
48223SOL     OW46565  14.061   8.546  14.538
48223SOL    HW146566  14.001   8.596  14.594
48223SOL    HW246567  14.126   8.510  14.599
48224SOL     OW46568   0.030  10.801  10.852
48224SOL    HW146569   0.033  10.711  10.821
48224SOL    HW246570   0.020  10.794  10.947
48225SOL     OW46571  14.372  13.577   1.421
48225SOL    HW146572  14.346  13.669   1.420
48225SOL    HW246573  14.464  13.578   1.396
48226SOL     OW46574   1.621  14.427  14.361
48226SOL    HW146575   1.709  14.399  14.386
48226SOL    HW246576   1.605  14.385  14.276
48227SOL     OW46577   6.595   5.271  11.356
48227SOL    HW146578   6.568   5.345  11.302
48227SOL    HW246579   6.537   5.275  11.432
48228SOL     OW46580  13.100   2.404   8.268
48228SOL    HW146581  13.170   2.460   8.236
48228SOL    HW246582  13.079   2.348   8.193
48229SOL     OW46583   0.087  12.801  10.332
48229SOL    HW146584   0.016  12.744  10.301
48229SOL    HW246585   0.145  12.810  10.256
48230SOL     OW46586   0.106  10.487  13.135
48230SOL    HW146587   0.098  10.391  13.135
48230SOL    HW246588   0.157  10.506  13.214
48231SOL     OW46589   7.985   3.959  11.733
48231SOL    HW146590   7.931   3.949  11.812
48231SOL    HW246591   7.962   4.044  11.698
48232SOL     OW46592  14.457   0.235  14.413
48232SOL    HW146593  14.385   0.219  14.475
48232SOL    HW246594  14.475   0.149  14.375
48233SOL     OW46595   0.191   4.142  10.945
48233SOL    HW146596   0.153   4.140  11.033
48233SOL    HW246597   0.116   4.138  10.887
48234SOL     OW46598  12.764  11.686   0.270
48234SOL    HW146599  12.687  11.640   0.306
48234SOL    HW246600  12.730  11.734   0.195
48235SOL     OW46601   9.631   2.687   0.846
48235SOL    HW146602   9.552   2.637   0.825
48235SOL    HW246603   9.644   2.674   0.939
48236SOL     OW46604  11.907  12.610  12.453
48236SOL    HW146605  11.969  12.677  12.426
48236SOL    HW246606  11.927  12.595  12.546
48237SOL     OW46607   6.164  12.578  14.550
48237SOL    HW146608   6.079  12.618  14.566
48237SOL    HW246609   6.150  12.485  14.566
48238SOL     OW46610   9.340  10.888   4.396
48238SOL    HW146611   9.343  10.853   4.484
48238SOL    HW246612   9.278  10.832   4.349
48239SOL     OW46613   9.883   0.077  10.037
48239SOL    HW146614   9.894   0.090   9.943
48239SOL    HW246615   9.971   0.054  10.068
48240SOL     OW46616   6.984  11.861   5.566
48240SOL    HW146617   6.934  11.780   5.552
48240SOL    HW246618   6.960  11.916   5.491
48241SOL     OW46619   9.278   6.302   6.163
48241SOL    HW146620   9.349   6.278   6.223
48241SOL    HW246621   9.209   6.238   6.181
48242SOL     OW46622  12.389   0.728   1.354
48242SOL    HW146623  12.376   0.672   1.278
48242SOL    HW246624  12.414   0.668   1.424
48243SOL     OW46625   8.016   5.791   5.730
48243SOL    HW146626   8.095   5.778   5.783
48243SOL    HW246627   8.045   5.843   5.656
48244SOL     OW46628  14.013   9.629  14.774
48244SOL    HW146629  14.050   9.569  14.710
48244SOL    HW246630  14.052   9.601  14.858
48245SOL     OW46631   1.892   9.206   1.873
48245SOL    HW146632   1.950   9.268   1.919
48245SOL    HW246633   1.951   9.136   1.843
48246SOL     OW46634   2.114   9.055  11.224
48246SOL    HW146635   2.200   9.069  11.184
48246SOL    HW246636   2.133   9.013  11.308
48247SOL     OW46637   7.503   6.893   5.018
48247SOL    HW146638   7.409   6.902   5.006
48247SOL    HW246639   7.515   6.804   5.049
48248SOL     OW46640  12.429   3.887   4.307
48248SOL    HW146641  12.379   3.965   4.283
48248SOL    HW246642  12.459   3.852   4.223
48249SOL     OW46643  10.358  13.133   1.210
48249SOL    HW146644  10.384  13.158   1.121
48249SOL    HW246645  10.379  13.040   1.216
48250SOL     OW46646   6.996   4.359   2.772
48250SOL    HW146647   7.005   4.268   2.744
48250SOL    HW246648   6.976   4.407   2.692
48251SOL     OW46649   5.466   7.891  11.732
48251SOL    HW146650   5.476   7.970  11.678
48251SOL    HW246651   5.554   7.852  11.733
48252SOL     OW46652  10.664   6.868   8.941
48252SOL    HW146653  10.623   6.861   9.027
48252SOL    HW246654  10.667   6.962   8.923
48253SOL     OW46655  14.527  13.836  13.087
48253SOL    HW146656  14.540  13.759  13.031
48253SOL    HW246657  14.500  13.905  13.027
48254SOL     OW46658   2.664  13.198   0.424
48254SOL    HW146659   2.632  13.270   0.370
48254SOL    HW246660   2.676  13.236   0.511
48255SOL     OW46661   2.437   8.844   9.497
48255SOL    HW146662   2.443   8.937   9.519
48255SOL    HW246663   2.424   8.844   9.402
48256SOL     OW46664   0.875  13.724   3.859
48256SOL    HW146665   0.860  13.818   3.854
48256SOL    HW246666   0.852  13.691   3.772
48257SOL     OW46667   3.514   6.754   5.347
48257SOL    HW146668   3.481   6.705   5.422
48257SOL    HW246669   3.609   6.757   5.361
48258SOL     OW46670   7.655  12.348  13.592
48258SOL    HW146671   7.585  12.283  13.581
48258SOL    HW246672   7.666  12.385  13.504
48259SOL     OW46673  11.695  12.606  13.674
48259SOL    HW146674  11.733  12.650  13.599
48259SOL    HW246675  11.603  12.632  13.673
48260SOL     OW46676   2.309   0.497   7.506
48260SOL    HW146677   2.386   0.480   7.560
48260SOL    HW246678   2.249   0.425   7.524
48261SOL     OW46679   2.579  13.428   8.962
48261SOL    HW146680   2.609  13.370   8.892
48261SOL    HW246681   2.631  13.508   8.951
48262SOL     OW46682   9.284  11.704   5.295
48262SOL    HW146683   9.250  11.632   5.242
48262SOL    HW246684   9.333  11.757   5.233
48263SOL     OW46685   0.262   2.495   9.156
48263SOL    HW146686   0.335   2.464   9.210
48263SOL    HW246687   0.237   2.420   9.103
48264SOL     OW46688   6.102   4.485  14.413
48264SOL    HW146689   6.134   4.424  14.346
48264SOL    HW246690   6.041   4.434  14.466
48265SOL     OW46691   9.006   5.598  13.039
48265SOL    HW146692   9.095   5.565  13.050
48265SOL    HW246693   9.014   5.668  12.974
48266SOL     OW46694   1.361   7.981   9.048
48266SOL    HW146695   1.424   8.012   8.984
48266SOL    HW246696   1.409   7.918   9.101
48267SOL     OW46697   8.107  13.243   2.083
48267SOL    HW146698   8.043  13.311   2.105
48267SOL    HW246699   8.145  13.272   2.000
48268SOL     OW46700  11.593  12.553   6.188
48268SOL    HW146701  11.512  12.511   6.157
48268SOL    HW246702  11.563  12.631   6.235
48269SOL     OW46703   8.078   3.409  11.813
48269SOL    HW146704   8.016   3.377  11.747
48269SOL    HW246705   8.035   3.486  11.850
48270SOL     OW46706  11.070   9.875  13.508
48270SOL    HW146707  11.063   9.791  13.552
48270SOL    HW246708  11.021   9.936  13.563
48271SOL     OW46709   7.400   4.872   1.963
48271SOL    HW146710   7.389   4.932   2.037
48271SOL    HW246711   7.352   4.793   1.989
48272SOL     OW46712   5.350   5.849   7.142
48272SOL    HW146713   5.422   5.836   7.081
48272SOL    HW246714   5.305   5.926   7.110
48273SOL     OW46715  12.174   2.476   9.145
48273SOL    HW146716  12.249   2.418   9.134
48273SOL    HW246717  12.117   2.429   9.206
48274SOL     OW46718  13.434   7.184   6.974
48274SOL    HW146719  13.399   7.095   6.979
48274SOL    HW246720  13.361   7.240   6.999
48275SOL     OW46721   4.784   4.028   1.292
48275SOL    HW146722   4.860   4.003   1.344
48275SOL    HW246723   4.745   3.945   1.265
48276SOL     OW46724  10.461   9.159   6.577
48276SOL    HW146725  10.518   9.175   6.502
48276SOL    HW246726  10.401   9.234   6.579
48277SOL     OW46727   1.167   1.942   6.117
48277SOL    HW146728   1.108   1.910   6.049
48277SOL    HW246729   1.251   1.951   6.073
48278SOL     OW46730   6.500   2.639   4.378
48278SOL    HW146731   6.591   2.615   4.361
48278SOL    HW246732   6.450   2.561   4.352
48279SOL     OW46733  12.383  10.834  13.353
48279SOL    HW146734  12.379  10.855  13.260
48279SOL    HW246735  12.463  10.783  13.363
48280SOL     OW46736  12.005  12.953  11.239
48280SOL    HW146737  12.062  13.028  11.225
48280SOL    HW246738  12.064  12.877  11.232
48281SOL     OW46739   5.257   0.677   3.815
48281SOL    HW146740   5.203   0.756   3.815
48281SOL    HW246741   5.320   0.692   3.886
48282SOL     OW46742  10.164  14.713   5.494
48282SOL    HW146743  10.164  14.666   5.410
48282SOL    HW246744  10.103  14.664   5.549
48283SOL     OW46745  10.753   4.598   5.396
48283SOL    HW146746  10.782   4.533   5.332
48283SOL    HW246747  10.784   4.682   5.362
48284SOL     OW46748  11.813  13.753   1.971
48284SOL    HW146749  11.866  13.783   1.898
48284SOL    HW246750  11.876  13.716   2.033
48285SOL     OW46751   6.367   5.885  13.052
48285SOL    HW146752   6.372   5.922  13.140
48285SOL    HW246753   6.432   5.814  13.051
48286SOL     OW46754   5.978  14.440   3.307
48286SOL    HW146755   5.935  14.452   3.391
48286SOL    HW246756   5.953  14.353   3.278
48287SOL     OW46757   1.812   0.838   6.317
48287SOL    HW146758   1.878   0.823   6.250
48287SOL    HW246759   1.770   0.920   6.290
48288SOL     OW46760   0.978   3.911   1.407
48288SOL    HW146761   0.987   3.905   1.502
48288SOL    HW246762   0.960   3.821   1.379
48289SOL     OW46763  10.730  11.017   7.412
48289SOL    HW146764  10.745  11.086   7.478
48289SOL    HW246765  10.666  11.055   7.352
48290SOL     OW46766   2.585  13.221  12.339
48290SOL    HW146767   2.509  13.183  12.382
48290SOL    HW246768   2.572  13.316  12.347
48291SOL     OW46769  10.612   1.338   5.348
48291SOL    HW146770  10.581   1.406   5.408
48291SOL    HW246771  10.565   1.259   5.375
48292SOL     OW46772   7.623   4.480   0.089
48292SOL    HW146773   7.647   4.467  14.865
48292SOL    HW246774   7.581   4.566   0.090
48293SOL     OW46775   9.086  14.142  13.880
48293SOL    HW146776   9.149  14.095  13.934
48293SOL    HW246777   9.107  14.234  13.894
48294SOL     OW46778   1.604  11.184   5.307
48294SOL    HW146779   1.594  11.276   5.283
48294SOL    HW246780   1.646  11.186   5.393
48295SOL     OW46781  10.217   2.102   2.549
48295SOL    HW146782  10.249   2.138   2.466
48295SOL    HW246783  10.281   2.035   2.573
48296SOL     OW46784   5.412   1.844   3.720
48296SOL    HW146785   5.409   1.753   3.749
48296SOL    HW246786   5.337   1.853   3.661
48297SOL     OW46787   3.488  14.460   3.125
48297SOL    HW146788   3.492  14.445   3.030
48297SOL    HW246789   3.442  14.544   3.133
48298SOL     OW46790   9.661   7.747   0.300
48298SOL    HW146791   9.644   7.661   0.338
48298SOL    HW246792   9.574   7.781   0.280
48299SOL     OW46793   2.143  10.719  10.625
48299SOL    HW146794   2.130  10.625  10.613
48299SOL    HW246795   2.202  10.744  10.554
48300SOL     OW46796  13.449   2.986   0.123
48300SOL    HW146797  13.406   2.916   0.173
48300SOL    HW246798  13.495   2.941   0.052
48301SOL     OW46799   2.900   2.892   4.392
48301SOL    HW146800   2.989   2.921   4.375
48301SOL    HW246801   2.899   2.801   4.363
48302SOL     OW46802   8.314   6.079   2.453
48302SOL    HW146803   8.219   6.071   2.464
48302SOL    HW246804   8.342   6.133   2.527
48303SOL     OW46805  13.818   1.665  12.602
48303SOL    HW146806  13.851   1.733  12.543
48303SOL    HW246807  13.888   1.601  12.606
48304SOL     OW46808   6.437   4.074  14.383
48304SOL    HW146809   6.466   3.993  14.340
48304SOL    HW246810   6.343   4.062  14.395
48305SOL     OW46811   0.457  11.291   8.522
48305SOL    HW146812   0.364  11.302   8.503
48305SOL    HW246813   0.477  11.202   8.496
48306SOL     OW46814   1.433  13.736   8.417
48306SOL    HW146815   1.511  13.765   8.465
48306SOL    HW246816   1.368  13.719   8.485
48307SOL     OW46817   0.503   0.862   5.112
48307SOL    HW146818   0.583   0.915   5.106
48307SOL    HW246819   0.532   0.779   5.151
48308SOL     OW46820  12.736   8.023   0.725
48308SOL    HW146821  12.810   7.988   0.675
48308SOL    HW246822  12.700   8.092   0.670
48309SOL     OW46823   6.673   4.687   0.173
48309SOL    HW146824   6.685   4.592   0.172
48309SOL    HW246825   6.583   4.700   0.203
48310SOL     OW46826  12.603  11.820  10.563
48310SOL    HW146827  12.644  11.756  10.504
48310SOL    HW246828  12.648  11.808  10.647
48311SOL     OW46829   6.928   9.852   9.398
48311SOL    HW146830   6.833   9.860   9.389
48311SOL    HW246831   6.941   9.808   9.482
48312SOL     OW46832   3.845   7.974   7.011
48312SOL    HW146833   3.884   8.057   6.981
48312SOL    HW246834   3.919   7.915   7.022
48313SOL     OW46835   1.946   7.542   1.701
48313SOL    HW146836   2.027   7.501   1.671
48313SOL    HW246837   1.885   7.469   1.710
48314SOL     OW46838   2.649  13.900   9.657
48314SOL    HW146839   2.578  13.883   9.594
48314SOL    HW246840   2.655  13.820   9.709
48315SOL     OW46841   9.449   9.403   1.821
48315SOL    HW146842   9.417   9.398   1.731
48315SOL    HW246843   9.485   9.491   1.828
48316SOL     OW46844   0.826   7.975   8.078
48316SOL    HW146845   0.902   7.929   8.113
48316SOL    HW246846   0.780   7.909   8.027
48317SOL     OW46847  14.073   9.956  14.030
48317SOL    HW146848  14.128  10.033  14.035
48317SOL    HW246849  14.101   9.900  14.103
48318SOL     OW46850   2.015  11.571   4.742
48318SOL    HW146851   2.059  11.626   4.677
48318SOL    HW246852   2.038  11.611   4.826
48319SOL     OW46853   1.877   0.627   6.975
48319SOL    HW146854   1.836   0.616   7.061
48319SOL    HW246855   1.928   0.547   6.962
48320SOL     OW46856   6.096   3.735   7.914
48320SOL    HW146857   6.182   3.704   7.940
48320SOL    HW246858   6.046   3.655   7.895
48321SOL     OW46859  10.943  13.648   7.730
48321SOL    HW146860  11.001  13.696   7.671
48321SOL    HW246861  10.904  13.716   7.785
48322SOL     OW46862   6.547   4.024   4.575
48322SOL    HW146863   6.579   4.072   4.498
48322SOL    HW246864   6.581   4.073   4.650
48323SOL     OW46865   7.372  11.324   6.441
48323SOL    HW146866   7.313  11.331   6.366
48323SOL    HW246867   7.381  11.229   6.456
48324SOL     OW46868  11.609   6.854   4.297
48324SOL    HW146869  11.642   6.843   4.386
48324SOL    HW246870  11.524   6.897   4.308
48325SOL     OW46871   0.282  11.512   0.842
48325SOL    HW146872   0.370  11.544   0.823
48325SOL    HW246873   0.279  11.425   0.803
48326SOL     OW46874  14.016   4.338  12.071
48326SOL    HW146875  13.932   4.384  12.073
48326SOL    HW246876  14.000   4.258  12.120
48327SOL     OW46877  12.656   6.202   5.116
48327SOL    HW146878  12.730   6.144   5.101
48327SOL    HW246879  12.666   6.231   5.207
48328SOL     OW46880   0.028   2.649   3.048
48328SOL    HW146881   0.037   2.569   3.100
48328SOL    HW246882  14.826   2.698   3.091
48329SOL     OW46883  12.807   7.203   0.471
48329SOL    HW146884  12.803   7.120   0.425
48329SOL    HW246885  12.893   7.204   0.512
48330SOL     OW46886  10.605   8.205  13.290
48330SOL    HW146887  10.698   8.226  13.276
48330SOL    HW246888  10.574   8.274  13.348
48331SOL     OW46889   2.790  14.557   2.049
48331SOL    HW146890   2.751  14.629   2.098
48331SOL    HW246891   2.835  14.599   1.975
48332SOL     OW46892   2.071  10.143  14.295
48332SOL    HW146893   2.163  10.116  14.298
48332SOL    HW246894   2.048  10.139  14.202
48333SOL     OW46895   2.755   5.540   1.718
48333SOL    HW146896   2.850   5.536   1.707
48333SOL    HW246897   2.741   5.520   1.810
48334SOL     OW46898  12.746   4.292   9.275
48334SOL    HW146899  12.716   4.225   9.213
48334SOL    HW246900  12.840   4.278   9.281
48335SOL     OW46901   6.179   7.428   2.162
48335SOL    HW146902   6.201   7.335   2.164
48335SOL    HW246903   6.226   7.465   2.237
48336SOL     OW46904   1.883   1.446   9.795
48336SOL    HW146905   1.909   1.354   9.788
48336SOL    HW246906   1.966   1.494   9.799
48337SOL     OW46907  14.807   1.899   9.307
48337SOL    HW146908  14.820   1.993   9.315
48337SOL    HW246909   0.003   1.871   9.242
48338SOL     OW46910   3.640   5.438  11.385
48338SOL    HW146911   3.595   5.432  11.470
48338SOL    HW246912   3.659   5.347  11.362
48339SOL     OW46913   9.461   0.260   1.553
48339SOL    HW146914   9.463   0.195   1.483
48339SOL    HW246915   9.435   0.210   1.631
48340SOL     OW46916   0.196   4.499   9.221
48340SOL    HW146917   0.182   4.417   9.268
48340SOL    HW246918   0.219   4.563   9.290
48341SOL     OW46919  11.541   9.193   2.802
48341SOL    HW146920  11.560   9.102   2.825
48341SOL    HW246921  11.507   9.232   2.883
48342SOL     OW46922   8.170   0.539  14.365
48342SOL    HW146923   8.139   0.528  14.275
48342SOL    HW246924   8.265   0.530  14.359
48343SOL     OW46925   0.330   8.929   3.380
48343SOL    HW146926   0.326   8.929   3.284
48343SOL    HW246927   0.250   8.976   3.407
48344SOL     OW46928   0.012   4.993  10.546
48344SOL    HW146929   0.075   5.062  10.527
48344SOL    HW246930  14.797   5.026  10.512
48345SOL     OW46931  13.767   4.585  10.834
48345SOL    HW146932  13.802   4.671  10.858
48345SOL    HW246933  13.678   4.603  10.802
48346SOL     OW46934   6.909   7.280  11.037
48346SOL    HW146935   6.884   7.298  11.128
48346SOL    HW246936   6.991   7.230  11.044
48347SOL     OW46937   2.972   9.898  12.981
48347SOL    HW146938   2.965   9.987  13.016
48347SOL    HW246939   3.032   9.854  13.041
48348SOL     OW46940   0.256   0.170  10.036
48348SOL    HW146941   0.256   0.212  10.121
48348SOL    HW246942   0.304   0.088  10.049
48349SOL     OW46943   5.955  14.284  14.081
48349SOL    HW146944   5.932  14.197  14.049
48349SOL    HW246945   5.911  14.344  14.021
48350SOL     OW46946   3.904   6.475   5.159
48350SOL    HW146947   3.883   6.503   5.248
48350SOL    HW246948   3.999   6.482   5.154
48351SOL     OW46949   9.728   8.970  10.574
48351SOL    HW146950   9.803   8.952  10.516
48351SOL    HW246951   9.664   8.902  10.552
48352SOL     OW46952  10.499   6.814   4.021
48352SOL    HW146953  10.537   6.850   3.940
48352SOL    HW246954  10.565   6.752   4.052
48353SOL     OW46955   8.034  10.793   0.008
48353SOL    HW146956   8.095  10.852   0.053
48353SOL    HW246957   8.020  10.722   0.070
48354SOL     OW46958  12.095   1.700   6.963
48354SOL    HW146959  12.143   1.649   6.897
48354SOL    HW246960  12.046   1.634   7.013
48355SOL     OW46961   5.657   4.006   1.430
48355SOL    HW146962   5.584   4.024   1.370
48355SOL    HW246963   5.735   4.033   1.382
48356SOL     OW46964   4.911  13.257   1.902
48356SOL    HW146965   4.897  13.213   1.986
48356SOL    HW246966   4.872  13.198   1.837
48357SOL     OW46967   8.540   2.792   9.582
48357SOL    HW146968   8.585   2.812   9.665
48357SOL    HW246969   8.514   2.700   9.590
48358SOL     OW46970   1.073  14.611  14.180
48358SOL    HW146971   0.985  14.648  14.178
48358SOL    HW246972   1.124  14.674  14.231
48359SOL     OW46973   6.135   1.238  12.929
48359SOL    HW146974   6.044   1.245  12.957
48359SOL    HW246975   6.131   1.220  12.836
48360SOL     OW46976  11.027   5.781   6.447
48360SOL    HW146977  11.033   5.774   6.352
48360SOL    HW246978  11.042   5.692   6.479
48361SOL     OW46979   1.525   1.456   9.867
48361SOL    HW146980   1.490   1.421   9.786
48361SOL    HW246981   1.455   1.444   9.931
48362SOL     OW46982   6.853   3.869   2.194
48362SOL    HW146983   6.834   3.804   2.127
48362SOL    HW246984   6.794   3.848   2.266
48363SOL     OW46985  12.605   2.553  10.949
48363SOL    HW146986  12.550   2.484  10.986
48363SOL    HW246987  12.563   2.635  10.976
48364SOL     OW46988  11.605   0.065  10.676
48364SOL    HW146989  11.559  14.859  10.637
48364SOL    HW246990  11.538   0.113  10.724
48365SOL     OW46991   6.922   8.450  13.206
48365SOL    HW146992   6.948   8.472  13.295
48365SOL    HW246993   6.942   8.528  13.154
48366SOL     OW46994   4.684   3.776   7.245
48366SOL    HW146995   4.607   3.832   7.236
48366SOL    HW246996   4.697   3.768   7.340
48367SOL     OW46997   8.274   3.929  11.625
48367SOL    HW146998   8.362   3.928  11.663
48367SOL    HW246999   8.244   4.019  11.636
48368SOL     OW47000   3.464   4.060  13.796
48368SOL    HW147001   3.437   3.977  13.834
48368SOL    HW247002   3.555   4.046  13.768
48369SOL     OW47003   0.552   4.374   8.613
48369SOL    HW147004   0.505   4.450   8.581
48369SOL    HW247005   0.620   4.409   8.670
48370SOL     OW47006   8.069  14.452   4.961
48370SOL    HW147007   8.092  14.381   4.902
48370SOL    HW247008   8.015  14.511   4.908
48371SOL     OW47009   4.248   8.298   9.867
48371SOL    HW147010   4.331   8.345   9.861
48371SOL    HW247011   4.225   8.301   9.960
48372SOL     OW47012   5.549   5.179  13.133
48372SOL    HW147013   5.635   5.143  13.113
48372SOL    HW247014   5.534   5.245  13.065
48373SOL     OW47015  11.060   8.786  12.259
48373SOL    HW147016  11.056   8.859  12.319
48373SOL    HW247017  11.006   8.718  12.299
48374SOL     OW47018   8.709   8.921  14.011
48374SOL    HW147019   8.667   8.841  13.980
48374SOL    HW247020   8.794   8.892  14.044
48375SOL     OW47021   2.018  14.261   2.745
48375SOL    HW147022   2.028  14.276   2.839
48375SOL    HW247023   2.069  14.182   2.728
48376SOL     OW47024   5.311   8.039   4.173
48376SOL    HW147025   5.231   8.080   4.206
48376SOL    HW247026   5.381   8.076   4.227
48377SOL     OW47027   9.419  13.466  12.041
48377SOL    HW147028   9.392  13.421  12.121
48377SOL    HW247029   9.439  13.396  11.979
48378SOL     OW47030   2.413  11.516   1.770
48378SOL    HW147031   2.366  11.443   1.809
48378SOL    HW247032   2.345  11.580   1.749
48379SOL     OW47033   0.110   6.149  14.388
48379SOL    HW147034   0.141   6.121  14.302
48379SOL    HW247035   0.160   6.095  14.450
48380SOL     OW47036   0.018   3.793   4.153
48380SOL    HW147037   0.055   3.829   4.072
48380SOL    HW247038   0.058   3.707   4.161
48381SOL     OW47039   6.396   7.856   4.321
48381SOL    HW147040   6.474   7.860   4.266
48381SOL    HW247041   6.342   7.788   4.281
48382SOL     OW47042  14.263   1.809   4.151
48382SOL    HW147043  14.294   1.752   4.222
48382SOL    HW247044  14.289   1.764   4.071
48383SOL     OW47045   1.091   2.208   8.467
48383SOL    HW147046   1.024   2.198   8.535
48383SOL    HW247047   1.041   2.225   8.387
48384SOL     OW47048   2.568   9.956  10.590
48384SOL    HW147049   2.644   9.928  10.538
48384SOL    HW247050   2.589  10.045  10.616
48385SOL     OW47051   9.860  11.490  13.242
48385SOL    HW147052   9.937  11.505  13.296
48385SOL    HW247053   9.803  11.435  13.295
48386SOL     OW47054   6.736   5.789  12.061
48386SOL    HW147055   6.701   5.700  12.072
48386SOL    HW247056   6.825   5.784  12.096
48387SOL     OW47057  11.804   2.022   9.825
48387SOL    HW147058  11.808   1.976   9.909
48387SOL    HW247059  11.727   1.987   9.782
48388SOL     OW47060   6.871  11.720  12.481
48388SOL    HW147061   6.890  11.796  12.536
48388SOL    HW247062   6.860  11.755  12.393
48389SOL     OW47063  14.547  14.411   1.736
48389SOL    HW147064  14.574  14.330   1.780
48389SOL    HW247065  14.465  14.436   1.779
48390SOL     OW47066   0.380   7.902   3.256
48390SOL    HW147067   0.339   7.908   3.343
48390SOL    HW247068   0.310   7.872   3.198
48391SOL     OW47069   8.768   4.501   0.723
48391SOL    HW147070   8.710   4.425   0.728
48391SOL    HW247071   8.797   4.503   0.632
48392SOL     OW47072  11.671   1.193   8.100
48392SOL    HW147073  11.622   1.159   8.175
48392SOL    HW247074  11.710   1.115   8.059
48393SOL     OW47075   9.777   4.555   2.366
48393SOL    HW147076   9.831   4.570   2.443
48393SOL    HW247077   9.839   4.534   2.296
48394SOL     OW47078  14.149   5.378  14.717
48394SOL    HW147079  14.056   5.373  14.738
48394SOL    HW247080  14.193   5.362  14.801
48395SOL     OW47081  13.996   9.500  14.418
48395SOL    HW147082  13.967   9.529  14.331
48395SOL    HW247083  14.061   9.432  14.400
48396SOL     OW47084  11.395   6.968  10.611
48396SOL    HW147085  11.366   6.996  10.698
48396SOL    HW247086  11.315   6.949  10.563
48397SOL     OW47087   5.623   5.003  12.539
48397SOL    HW147088   5.558   5.014  12.469
48397SOL    HW247089   5.610   5.079  12.596
48398SOL     OW47090   8.063   4.497   9.030
48398SOL    HW147091   8.015   4.571   8.993
48398SOL    HW247092   8.150   4.532   9.051
48399SOL     OW47093   6.750  13.514   6.759
48399SOL    HW147094   6.779  13.605   6.760
48399SOL    HW247095   6.825  13.464   6.791
48400SOL     OW47096  12.978  13.918  10.088
48400SOL    HW147097  13.005  13.914   9.996
48400SOL    HW247098  12.973  14.012  10.108
48401SOL     OW47099   2.253   1.780  11.742
48401SOL    HW147100   2.310   1.745  11.673
48401SOL    HW247101   2.207   1.853  11.701
48402SOL     OW47102   3.214   6.349   1.430
48402SOL    HW147103   3.248   6.427   1.385
48402SOL    HW247104   3.120   6.364   1.435
48403SOL     OW47105   4.026  13.422  12.634
48403SOL    HW147106   4.107  13.387  12.596
48403SOL    HW247107   4.037  13.517  12.628
48404SOL     OW47108   5.601   0.275   2.097
48404SOL    HW147109   5.571   0.364   2.083
48404SOL    HW247110   5.691   0.274   2.065
48405SOL     OW47111  14.478   8.738   7.240
48405SOL    HW147112  14.466   8.775   7.152
48405SOL    HW247113  14.546   8.672   7.230
48406SOL     OW47114   9.900   3.293   9.122
48406SOL    HW147115   9.926   3.349   9.049
48406SOL    HW247116   9.962   3.220   9.119
48407SOL     OW47117   5.707   3.167   7.828
48407SOL    HW147118   5.627   3.139   7.872
48407SOL    HW247119   5.745   3.233   7.886
48408SOL     OW47120  11.617  10.196   7.722
48408SOL    HW147121  11.588  10.243   7.801
48408SOL    HW247122  11.541  10.146   7.695
48409SOL     OW47123  11.829   8.483   4.248
48409SOL    HW147124  11.903   8.521   4.200
48409SOL    HW247125  11.869   8.418   4.306
48410SOL     OW47126   8.983   0.094  13.415
48410SOL    HW147127   8.966   0.003  13.390
48410SOL    HW247128   8.900   0.125  13.451
48411SOL     OW47129   1.620   9.276   5.645
48411SOL    HW147130   1.584   9.203   5.596
48411SOL    HW247131   1.633   9.345   5.579
48412SOL     OW47132   0.177   2.508   9.638
48412SOL    HW147133   0.168   2.477   9.729
48412SOL    HW247134   0.180   2.603   9.645
48413SOL     OW47135   3.871   2.129   6.428
48413SOL    HW147136   3.857   2.060   6.492
48413SOL    HW247137   3.951   2.102   6.381
48414SOL     OW47138   6.105   6.420  10.982
48414SOL    HW147139   6.085   6.435  10.889
48414SOL    HW247140   6.040   6.472  11.029
48415SOL     OW47141   0.104   1.302  13.913
48415SOL    HW147142   0.118   1.221  13.964
48415SOL    HW247143   0.192   1.328  13.886
48416SOL     OW47144  14.047  13.939   1.796
48416SOL    HW147145  14.033  14.001   1.868
48416SOL    HW247146  14.043  13.992   1.717
48417SOL     OW47147   9.498  13.814   4.614
48417SOL    HW147148   9.442  13.792   4.689
48417SOL    HW247149   9.446  13.875   4.562
48418SOL     OW47150  12.778   9.608  13.076
48418SOL    HW147151  12.788   9.703  13.079
48418SOL    HW247152  12.867   9.575  13.062
48419SOL     OW47153   6.093   1.806   3.918
48419SOL    HW147154   6.011   1.790   3.870
48419SOL    HW247155   6.160   1.763   3.866
48420SOL     OW47156   3.408   0.141   5.833
48420SOL    HW147157   3.443   0.188   5.757
48420SOL    HW247158   3.449   0.182   5.908
48421SOL     OW47159  12.538  13.808   7.720
48421SOL    HW147160  12.449  13.778   7.737
48421SOL    HW247161  12.540  13.826   7.625
48422SOL     OW47162   3.799   6.887   3.962
48422SOL    HW147163   3.776   6.908   4.052
48422SOL    HW247164   3.719   6.903   3.912
48423SOL     OW47165  10.819   7.008   5.942
48423SOL    HW147166  10.788   6.996   5.852
48423SOL    HW247167  10.779   7.090   5.971
48424SOL     OW47168   1.745   1.761   5.266
48424SOL    HW147169   1.763   1.673   5.232
48424SOL    HW247170   1.650   1.764   5.272
48425SOL     OW47171   9.640  13.076   7.860
48425SOL    HW147172   9.556  13.076   7.814
48425SOL    HW247173   9.705  13.097   7.793
48426SOL     OW47174  12.525   1.075   9.480
48426SOL    HW147175  12.499   0.983   9.484
48426SOL    HW247176  12.621   1.073   9.482
48427SOL     OW47177   4.319   6.716  13.466
48427SOL    HW147178   4.388   6.739  13.404
48427SOL    HW247179   4.366   6.682  13.542
48428SOL     OW47180   1.988   3.795  13.488
48428SOL    HW147181   2.004   3.758  13.575
48428SOL    HW247182   1.903   3.759  13.463
48429SOL     OW47183   8.694  12.360   6.555
48429SOL    HW147184   8.617  12.313   6.525
48429SOL    HW247185   8.660  12.441   6.592
48430SOL     OW47186  10.853  13.149  13.382
48430SOL    HW147187  10.828  13.154  13.290
48430SOL    HW247188  10.780  13.191  13.428
48431SOL     OW47189  13.846  12.052   9.030
48431SOL    HW147190  13.808  12.069   8.944
48431SOL    HW247191  13.773  12.020   9.083
48432SOL     OW47192   0.387  10.915  12.462
48432SOL    HW147193   0.363  10.989  12.406
48432SOL    HW247194   0.314  10.854  12.455
48433SOL     OW47195   8.103  13.886  11.324
48433SOL    HW147196   8.084  13.855  11.236
48433SOL    HW247197   8.180  13.836  11.352
48434SOL     OW47198   5.066  12.144   2.411
48434SOL    HW147199   5.113  12.204   2.468
48434SOL    HW247200   5.051  12.195   2.331
48435SOL     OW47201   8.165   8.091   2.150
48435SOL    HW147202   8.254   8.111   2.177
48435SOL    HW247203   8.146   8.155   2.081
48436SOL     OW47204   6.885   9.446   5.446
48436SOL    HW147205   6.915   9.452   5.536
48436SOL    HW247206   6.921   9.364   5.414
48437SOL     OW47207   1.565   3.353  14.544
48437SOL    HW147208   1.501   3.424  14.547
48437SOL    HW247209   1.557   3.310  14.629
48438SOL     OW47210  13.524   7.262   7.300
48438SOL    HW147211  13.430   7.245   7.298
48438SOL    HW247212  13.537   7.317   7.377
48439SOL     OW47213   2.638   8.593  12.789
48439SOL    HW147214   2.576   8.565  12.856
48439SOL    HW247215   2.697   8.519  12.778
48440SOL     OW47216   8.972  14.195   1.429
48440SOL    HW147217   8.885  14.229   1.411
48440SOL    HW247218   8.995  14.144   1.352
48441SOL     OW47219   9.913   2.249   5.579
48441SOL    HW147220   9.863   2.284   5.652
48441SOL    HW247221   9.847   2.212   5.519
48442SOL     OW47222   4.665   1.122   4.032
48442SOL    HW147223   4.694   1.063   4.101
48442SOL    HW247224   4.611   1.068   3.974
48443SOL     OW47225   1.676  13.233   3.209
48443SOL    HW147226   1.650  13.187   3.129
48443SOL    HW247227   1.771  13.234   3.207
48444SOL     OW47228   9.773  12.747   3.662
48444SOL    HW147229   9.742  12.796   3.586
48444SOL    HW247230   9.796  12.660   3.627
48445SOL     OW47231   4.603   6.729  13.905
48445SOL    HW147232   4.619   6.735  13.811
48445SOL    HW247233   4.509   6.742  13.913
48446SOL     OW47234   5.883  12.980   2.584
48446SOL    HW147235   5.902  12.903   2.531
48446SOL    HW247236   5.790  12.995   2.574
48447SOL     OW47237  11.271  12.400   4.787
48447SOL    HW147238  11.359  12.434   4.798
48447SOL    HW247239  11.214  12.475   4.805
48448SOL     OW47240  11.507  11.782   2.624
48448SOL    HW147241  11.446  11.826   2.684
48448SOL    HW247242  11.489  11.689   2.636
48449SOL     OW47243   7.141   7.619  14.795
48449SOL    HW147244   7.153   7.566  14.717
48449SOL    HW247245   7.189   7.699  14.778
48450SOL     OW47246   5.113  13.022   1.915
48450SOL    HW147247   5.176  12.956   1.886
48450SOL    HW247248   5.033  12.973   1.933
48451SOL     OW47249   7.830   7.916  14.228
48451SOL    HW147250   7.910   7.967  14.211
48451SOL    HW247251   7.768   7.980  14.263
48452SOL     OW47252   2.232   6.282  11.585
48452SOL    HW147253   2.300   6.252  11.645
48452SOL    HW247254   2.188   6.202  11.557
48453SOL     OW47255   3.370   5.855   2.734
48453SOL    HW147256   3.401   5.883   2.648
48453SOL    HW247257   3.436   5.793   2.764
48454SOL     OW47258   5.042   9.143   7.751
48454SOL    HW147259   5.099   9.068   7.766
48454SOL    HW247260   5.102   9.215   7.732
48455SOL     OW47261   6.853  11.085   3.319
48455SOL    HW147262   6.850  11.055   3.228
48455SOL    HW247263   6.784  11.036   3.363
48456SOL     OW47264   3.750   2.630  13.721
48456SOL    HW147265   3.687   2.672  13.779
48456SOL    HW247266   3.734   2.670  13.635
48457SOL     OW47267   8.149   7.393  11.425
48457SOL    HW147268   8.241   7.410  11.445
48457SOL    HW247269   8.123   7.463  11.365
48458SOL     OW47270   6.562  10.880   2.653
48458SOL    HW147271   6.495  10.936   2.613
48458SOL    HW247272   6.606  10.938   2.716
48459SOL     OW47273  14.047   4.236   7.560
48459SOL    HW147274  14.037   4.329   7.581
48459SOL    HW247275  14.056   4.194   7.645
48460SOL     OW47276   5.016   2.025   3.400
48460SOL    HW147277   4.960   1.956   3.365
48460SOL    HW247278   5.050   2.069   3.323
48461SOL     OW47279  14.081   2.930   6.454
48461SOL    HW147280  14.025   2.925   6.377
48461SOL    HW247281  14.038   2.875   6.519
48462SOL     OW47282   2.405   2.683   8.793
48462SOL    HW147283   2.424   2.590   8.797
48462SOL    HW247284   2.392   2.709   8.885
48463SOL     OW47285   6.100   4.836  14.128
48463SOL    HW147286   6.015   4.846  14.172
48463SOL    HW247287   6.148   4.774  14.184
48464SOL     OW47288   7.919  12.546  13.973
48464SOL    HW147289   7.841  12.534  13.918
48464SOL    HW247290   7.900  12.626  14.023
48465SOL     OW47291   4.975   5.937  12.651
48465SOL    HW147292   4.961   5.880  12.575
48465SOL    HW247293   5.042   5.999  12.622
48466SOL     OW47294   2.194   6.866   2.948
48466SOL    HW147295   2.106   6.858   2.987
48466SOL    HW247296   2.253   6.856   3.023
48467SOL     OW47297   0.212   8.451   4.581
48467SOL    HW147298   0.232   8.527   4.526
48467SOL    HW247299   0.293   8.401   4.584
48468SOL     OW47300  12.712   4.758   0.087
48468SOL    HW147301  12.677   4.814   0.018
48468SOL    HW247302  12.739   4.678   0.043
48469SOL     OW47303   2.873  12.762  11.725
48469SOL    HW147304   2.784  12.792  11.744
48469SOL    HW247305   2.910  12.830  11.669
48470SOL     OW47306   9.670   8.942  11.539
48470SOL    HW147307   9.740   8.988  11.586
48470SOL    HW247308   9.641   9.005  11.473
48471SOL     OW47309  12.483  14.521  10.860
48471SOL    HW147310  12.509  14.491  10.773
48471SOL    HW247311  12.387  14.517  10.859
48472SOL     OW47312  11.039  14.806   1.848
48472SOL    HW147313  11.033   0.033   1.837
48472SOL    HW247314  10.950  14.779   1.871
48473SOL     OW47315  13.900   4.152   2.533
48473SOL    HW147316  13.819   4.115   2.570
48473SOL    HW247317  13.968   4.088   2.555
48474SOL     OW47318   7.717  12.432   5.987
48474SOL    HW147319   7.792  12.386   5.952
48474SOL    HW247320   7.725  12.423   6.082
48475SOL     OW47321   4.089   8.512  14.283
48475SOL    HW147322   4.165   8.480  14.234
48475SOL    HW247323   4.026   8.540  14.216
48476SOL     OW47324   0.166  11.092   7.839
48476SOL    HW147325   0.094  11.133   7.888
48476SOL    HW247326   0.164  11.000   7.867
48477SOL     OW47327   2.873   5.324   7.745
48477SOL    HW147328   2.921   5.270   7.807
48477SOL    HW247329   2.790   5.278   7.731
48478SOL     OW47330   3.229   3.431   7.446
48478SOL    HW147331   3.244   3.338   7.463
48478SOL    HW247332   3.291   3.453   7.377
48479SOL     OW47333  10.222  13.636   7.092
48479SOL    HW147334  10.305  13.591   7.109
48479SOL    HW247335  10.167  13.616   7.167
48480SOL     OW47336   8.136  10.098   1.763
48480SOL    HW147337   8.124  10.142   1.679
48480SOL    HW247338   8.228  10.070   1.762
48481SOL     OW47339   3.623  11.878  14.558
48481SOL    HW147340   3.610  11.837  14.473
48481SOL    HW247341   3.534  11.895  14.590
48482SOL     OW47342   9.285   8.088   5.903
48482SOL    HW147343   9.192   8.070   5.914
48482SOL    HW247344   9.318   8.104   5.991
48483SOL     OW47345  11.551  13.757  14.153
48483SOL    HW147346  11.469  13.730  14.111
48483SOL    HW247347  11.550  13.853  14.148
48484SOL     OW47348   6.015   9.973   3.224
48484SOL    HW147349   5.991  10.029   3.298
48484SOL    HW247350   5.988  10.022   3.147
48485SOL     OW47351   3.509   0.295  11.067
48485SOL    HW147352   3.599   0.323  11.083
48485SOL    HW247353   3.477   0.355  10.999
48486SOL     OW47354   4.542   9.830  12.337
48486SOL    HW147355   4.561   9.757  12.396
48486SOL    HW247356   4.620   9.838  12.282
48487SOL     OW47357   9.274  11.999  12.637
48487SOL    HW147358   9.348  12.057  12.618
48487SOL    HW247359   9.197  12.050  12.611
48488SOL     OW47360   1.350   4.126  12.125
48488SOL    HW147361   1.409   4.052  12.113
48488SOL    HW247362   1.407   4.202  12.131
48489SOL     OW47363   5.414   7.555   8.347
48489SOL    HW147364   5.461   7.471   8.340
48489SOL    HW247365   5.329   7.537   8.307
48490SOL     OW47366  12.428   8.697   2.035
48490SOL    HW147367  12.337   8.726   2.041
48490SOL    HW247368  12.447   8.699   1.941
48491SOL     OW47369  12.362   3.851   0.842
48491SOL    HW147370  12.432   3.794   0.873
48491SOL    HW247371  12.387   3.875   0.753
48492SOL     OW47372   7.695   6.411  13.006
48492SOL    HW147373   7.709   6.496  12.963
48492SOL    HW247374   7.626   6.369  12.954
48493SOL     OW47375   0.438   1.771   2.688
48493SOL    HW147376   0.447   1.866   2.694
48493SOL    HW247377   0.388   1.746   2.765
48494SOL     OW47378   8.043   0.798  11.940
48494SOL    HW147379   8.120   0.756  11.979
48494SOL    HW247380   8.071   0.822  11.852
48495SOL     OW47381   6.236   0.423   4.746
48495SOL    HW147382   6.163   0.362   4.736
48495SOL    HW247383   6.261   0.416   4.839
48496SOL     OW47384   2.569   3.921   1.781
48496SOL    HW147385   2.497   3.912   1.718
48496SOL    HW247386   2.528   3.956   1.860
48497SOL     OW47387  11.600  10.785   6.432
48497SOL    HW147388  11.674  10.796   6.491
48497SOL    HW247389  11.608  10.855   6.368
48498SOL     OW47390   2.427   6.700   7.485
48498SOL    HW147391   2.428   6.701   7.580
48498SOL    HW247392   2.348   6.650   7.462
48499SOL     OW47393   3.003   1.819  10.079
48499SOL    HW147394   2.916   1.818  10.118
48499SOL    HW247395   3.000   1.890  10.014
48500SOL     OW47396  10.757  13.031   3.820
48500SOL    HW147397  10.662  13.026   3.820
48500SOL    HW247398  10.782  13.010   3.730
48501SOL     OW47399   6.843  12.838   2.755
48501SOL    HW147400   6.844  12.925   2.717
48501SOL    HW247401   6.935  12.817   2.771
48502SOL     OW47402   9.359   3.317  11.311
48502SOL    HW147403   9.264   3.322  11.321
48502SOL    HW247404   9.378   3.372  11.235
48503SOL     OW47405  10.076  14.030   9.438
48503SOL    HW147406  10.020  13.962   9.474
48503SOL    HW247407  10.104  13.996   9.353
48504SOL     OW47408  12.819   5.600  12.677
48504SOL    HW147409  12.751   5.552  12.725
48504SOL    HW247410  12.901   5.564  12.710
48505SOL     OW47411  12.973   1.914   6.258
48505SOL    HW147412  12.912   1.987   6.252
48505SOL    HW247413  12.966   1.885   6.349
48506SOL     OW47414   9.106   1.278  10.047
48506SOL    HW147415   9.146   1.258  10.131
48506SOL    HW247416   9.012   1.278  10.064
48507SOL     OW47417   1.677   2.487   3.343
48507SOL    HW147418   1.663   2.398   3.373
48507SOL    HW247419   1.755   2.482   3.287
48508SOL     OW47420  14.657   1.175   2.435
48508SOL    HW147421  14.615   1.153   2.352
48508SOL    HW247422  14.698   1.260   2.419
48509SOL     OW47423  10.946   4.024   8.508
48509SOL    HW147424  10.993   3.967   8.447
48509SOL    HW247425  10.871   3.972   8.536
48510SOL     OW47426   2.553   0.260   0.424
48510SOL    HW147427   2.524   0.261   0.333
48510SOL    HW247428   2.473   0.239   0.474
48511SOL     OW47429   0.962  13.656  13.433
48511SOL    HW147430   0.877  13.635  13.472
48511SOL    HW247431   0.983  13.743  13.466
48512SOL     OW47432   6.141   8.781  10.780
48512SOL    HW147433   6.191   8.859  10.754
48512SOL    HW247434   6.207   8.712  10.785
48513SOL     OW47435  11.619  13.867   0.870
48513SOL    HW147436  11.558  13.805   0.910
48513SOL    HW247437  11.704  13.823   0.875
48514SOL     OW47438   7.818   1.678  13.503
48514SOL    HW147439   7.857   1.764  13.515
48514SOL    HW247440   7.736   1.681  13.553
48515SOL     OW47441   7.318   3.606  10.367
48515SOL    HW147442   7.401   3.651  10.351
48515SOL    HW247443   7.342   3.514  10.373
48516SOL     OW47444  13.797   6.050   9.765
48516SOL    HW147445  13.793   6.037   9.670
48516SOL    HW247446  13.733   5.989   9.801
48517SOL     OW47447   1.297   4.477  10.663
48517SOL    HW147448   1.209   4.457  10.630
48517SOL    HW247449   1.296   4.445  10.754
48518SOL     OW47450   1.736   0.494  10.728
48518SOL    HW147451   1.661   0.512  10.671
48518SOL    HW247452   1.752   0.577  10.774
48519SOL     OW47453   5.314   5.823   1.070
48519SOL    HW147454   5.290   5.840   0.979
48519SOL    HW247455   5.290   5.903   1.117
48520SOL     OW47456   9.321   2.954   1.539
48520SOL    HW147457   9.355   2.866   1.525
48520SOL    HW247458   9.359   3.007   1.469
48521SOL     OW47459   1.259  11.889   6.930
48521SOL    HW147460   1.330  11.843   6.976
48521SOL    HW247461   1.192  11.902   6.996
48522SOL     OW47462  12.074   7.088   8.976
48522SOL    HW147463  12.057   7.167   8.924
48522SOL    HW247464  12.055   7.016   8.916
48523SOL     OW47465   7.003   8.462   2.031
48523SOL    HW147466   6.976   8.388   1.976
48523SOL    HW247467   6.953   8.536   1.997
48524SOL     OW47468   5.460  10.612   2.665
48524SOL    HW147469   5.408  10.538   2.696
48524SOL    HW247470   5.477  10.592   2.573
48525SOL     OW47471  12.575   9.564   3.831
48525SOL    HW147472  12.579   9.626   3.758
48525SOL    HW247473  12.538   9.615   3.903
48526SOL     OW47474  10.683   6.622   4.553
48526SOL    HW147475  10.592   6.607   4.526
48526SOL    HW247476  10.707   6.704   4.511
48527SOL     OW47477   4.871   8.920  13.431
48527SOL    HW147478   4.942   8.984  13.439
48527SOL    HW247479   4.813   8.958  13.365
48528SOL     OW47480   0.788  14.378   2.187
48528SOL    HW147481   0.814  14.287   2.201
48528SOL    HW247482   0.695  14.372   2.163
48529SOL     OW47483   5.284   7.017   2.625
48529SOL    HW147484   5.286   6.924   2.647
48529SOL    HW247485   5.277   7.019   2.529
48530SOL     OW47486   3.667  10.048   6.193
48530SOL    HW147487   3.717  10.127   6.175
48530SOL    HW247488   3.706  10.012   6.272
48531SOL     OW47489  10.100   4.861   4.141
48531SOL    HW147490  10.005   4.876   4.145
48531SOL    HW247491  10.127   4.864   4.233
48532SOL     OW47492   5.472  14.513   8.389
48532SOL    HW147493   5.543  14.470   8.341
48532SOL    HW247494   5.485  14.486   8.480
48533SOL     OW47495   9.810  10.033   6.605
48533SOL    HW147496   9.901  10.030   6.637
48533SOL    HW247497   9.807   9.966   6.536
48534SOL     OW47498   2.676  10.019   3.218
48534SOL    HW147499   2.658  10.043   3.309
48534SOL    HW247500   2.765  10.052   3.201
48535SOL     OW47501   6.783   8.700   0.510
48535SOL    HW147502   6.697   8.672   0.543
48535SOL    HW247503   6.845   8.669   0.576
48536SOL     OW47504   9.604   0.696   2.663
48536SOL    HW147505   9.659   0.764   2.624
48536SOL    HW247506   9.665   0.628   2.690
48537SOL     OW47507  14.025   9.908   7.417
48537SOL    HW147508  13.966   9.833   7.419
48537SOL    HW247509  14.040   9.929   7.510
48538SOL     OW47510   1.270  14.188   5.368
48538SOL    HW147511   1.190  14.162   5.323
48538SOL    HW247512   1.313  14.106   5.390
48539SOL     OW47513  14.336  13.061  12.332
48539SOL    HW147514  14.286  13.122  12.278
48539SOL    HW247515  14.272  13.022  12.391
48540SOL     OW47516  13.318  13.816   4.400
48540SOL    HW147517  13.308  13.839   4.492
48540SOL    HW247518  13.272  13.885   4.353
48541SOL     OW47519   0.285   7.077   4.181
48541SOL    HW147520   0.278   6.983   4.164
48541SOL    HW247521   0.352   7.109   4.121
48542SOL     OW47522   8.834  14.644   2.197
48542SOL    HW147523   8.854  14.729   2.235
48542SOL    HW247524   8.892  14.583   2.243
48543SOL     OW47525  13.430  14.400   8.513
48543SOL    HW147526  13.425  14.476   8.571
48543SOL    HW247527  13.507  14.351   8.543
48544SOL     OW47528  12.887   6.301  13.831
48544SOL    HW147529  12.820   6.362  13.801
48544SOL    HW247530  12.944   6.287  13.755
48545SOL     OW47531   7.590   1.237   5.451
48545SOL    HW147532   7.589   1.298   5.525
48545SOL    HW247533   7.500   1.236   5.420
48546SOL     OW47534   1.191  13.156   0.112
48546SOL    HW147535   1.118  13.218   0.116
48546SOL    HW247536   1.230  13.159   0.200
48547SOL     OW47537   5.926   0.919   4.046
48547SOL    HW147538   5.958   0.920   4.136
48547SOL    HW247539   5.930   0.827   4.021
48548SOL     OW47540   8.747   0.634   7.027
48548SOL    HW147541   8.840   0.625   7.047
48548SOL    HW247542   8.727   0.725   7.046
48549SOL     OW47543  10.867   7.792   9.727
48549SOL    HW147544  10.802   7.857   9.697
48549SOL    HW247545  10.870   7.803   9.822
48550SOL     OW47546  12.684   9.434   5.271
48550SOL    HW147547  12.652   9.367   5.210
48550SOL    HW247548  12.634   9.419   5.351
48551SOL     OW47549   6.152   8.230   9.025
48551SOL    HW147550   6.089   8.302   9.029
48551SOL    HW247551   6.221   8.256   9.086
48552SOL     OW47552   9.551   9.102  11.258
48552SOL    HW147553   9.480   9.127  11.200
48552SOL    HW247554   9.553   9.006  11.254
48553SOL     OW47555   1.730   3.335   6.055
48553SOL    HW147556   1.702   3.414   6.009
48553SOL    HW247557   1.698   3.345   6.144
48554SOL     OW47558  12.291   5.435  11.407
48554SOL    HW147559  12.206   5.407  11.373
48554SOL    HW247560  12.272   5.514  11.457
48555SOL     OW47561   3.211  13.596  10.497
48555SOL    HW147562   3.259  13.657  10.553
48555SOL    HW247563   3.184  13.648  10.422
48556SOL     OW47564  11.292  12.208   3.997
48556SOL    HW147565  11.217  12.266   4.003
48556SOL    HW247566  11.337  12.235   3.917
48557SOL     OW47567   6.785  10.672  10.565
48557SOL    HW147568   6.779  10.643  10.656
48557SOL    HW247569   6.707  10.726  10.552
48558SOL     OW47570   3.809  10.518  14.268
48558SOL    HW147571   3.844  10.429  14.270
48558SOL    HW247572   3.779  10.529  14.177
48559SOL     OW47573   0.139   5.801  14.852
48559SOL    HW147574   0.168   5.755  14.774
48559SOL    HW247575   0.058   5.845  14.825
48560SOL     OW47576  13.754  12.273   7.106
48560SOL    HW147577  13.828  12.291   7.049
48560SOL    HW247578  13.791  12.273   7.194
48561SOL     OW47579   1.282   4.072  13.609
48561SOL    HW147580   1.319   3.987  13.635
48561SOL    HW247581   1.358   4.125  13.584
48562SOL     OW47582   7.222   1.786   3.743
48562SOL    HW147583   7.256   1.838   3.815
48562SOL    HW247584   7.187   1.707   3.784
48563SOL     OW47585   9.774   0.658   3.367
48563SOL    HW147586   9.795   0.607   3.289
48563SOL    HW247587   9.708   0.720   3.338
48564SOL     OW47588   0.308   0.451  11.444
48564SOL    HW147589   0.345   0.539  11.443
48564SOL    HW247590   0.372   0.398  11.493
48565SOL     OW47591   0.740   4.813  12.809
48565SOL    HW147592   0.670   4.866  12.770
48565SOL    HW247593   0.742   4.839  12.901
48566SOL     OW47594   5.814   5.540   2.015
48566SOL    HW147595   5.882   5.541   1.947
48566SOL    HW247596   5.761   5.618   1.998
48567SOL     OW47597  10.778  14.542  13.450
48567SOL    HW147598  10.813  14.465  13.406
48567SOL    HW247599  10.718  14.581  13.386
48568SOL     OW47600   7.458   5.495  12.902
48568SOL    HW147601   7.437   5.457  12.988
48568SOL    HW247602   7.459   5.589  12.918
48569SOL     OW47603  10.052   1.080   4.056
48569SOL    HW147604   9.992   1.135   4.005
48569SOL    HW247605  10.016   1.081   4.145
48570SOL     OW47606   9.917   0.982   3.657
48570SOL    HW147607   9.860   1.012   3.729
48570SOL    HW247608   9.969   0.912   3.695
48571SOL     OW47609   9.984  10.979   8.853
48571SOL    HW147610   9.939  11.019   8.779
48571SOL    HW247611  10.016  11.054   8.904
48572SOL     OW47612   5.502  10.961  13.994
48572SOL    HW147613   5.566  11.026  14.020
48572SOL    HW247614   5.504  10.895  14.064
48573SOL     OW47615   3.584   0.066  10.059
48573SOL    HW147616   3.578  14.861   9.997
48573SOL    HW247617   3.544   0.033  10.140
48574SOL     OW47618  14.371  14.539  11.539
48574SOL    HW147619  14.348  14.591  11.616
48574SOL    HW247620  14.294  14.545  11.482
48575SOL     OW47621   2.567   5.212   6.559
48575SOL    HW147622   2.608   5.175   6.481
48575SOL    HW247623   2.593   5.304   6.558
48576SOL     OW47624   6.849  10.252   7.048
48576SOL    HW147625   6.755  10.263   7.055
48576SOL    HW247626   6.880  10.331   7.003
48577SOL     OW47627   9.423   0.286   3.706
48577SOL    HW147628   9.381   0.354   3.758
48577SOL    HW247629   9.452   0.331   3.627
48578SOL     OW47630  12.523   0.894   8.762
48578SOL    HW147631  12.470   0.875   8.685
48578SOL    HW247632  12.509   0.987   8.778
48579SOL     OW47633  11.933  13.875   6.634
48579SOL    HW147634  11.975  13.789   6.640
48579SOL    HW247635  11.898  13.890   6.722
48580SOL     OW47636  12.713   1.357  14.447
48580SOL    HW147637  12.697   1.442  14.406
48580SOL    HW247638  12.738   1.378  14.537
48581SOL     OW47639   6.186   8.800   9.864
48581SOL    HW147640   6.145   8.881   9.895
48581SOL    HW247641   6.139   8.730   9.910
48582SOL     OW47642   9.222  12.429   0.106
48582SOL    HW147643   9.182  12.380   0.178
48582SOL    HW247644   9.150  12.478   0.067
48583SOL     OW47645   1.524   3.382  13.434
48583SOL    HW147646   1.590   3.375  13.365
48583SOL    HW247647   1.547   3.312  13.496
48584SOL     OW47648   7.483   0.469   8.813
48584SOL    HW147649   7.434   0.551   8.802
48584SOL    HW247650   7.508   0.444   8.724
48585SOL     OW47651  11.976   3.464   4.741
48585SOL    HW147652  11.922   3.540   4.722
48585SOL    HW247653  11.925   3.413   4.804
48586SOL     OW47654   4.478   7.937   8.556
48586SOL    HW147655   4.560   7.919   8.510
48586SOL    HW247656   4.414   7.881   8.515
48587SOL     OW47657   1.223   0.234  13.788
48587SOL    HW147658   1.141   0.221  13.740
48587SOL    HW247659   1.258   0.146  13.800
48588SOL     OW47660   6.461   8.456   1.391
48588SOL    HW147661   6.423   8.400   1.459
48588SOL    HW247662   6.496   8.531   1.440
48589SOL     OW47663  12.718   8.836   9.195
48589SOL    HW147664  12.695   8.826   9.287
48589SOL    HW247665  12.636   8.818   9.148
48590SOL     OW47666   6.237   8.592   7.230
48590SOL    HW147667   6.166   8.574   7.168
48590SOL    HW247668   6.206   8.667   7.281
48591SOL     OW47669  11.975   5.425  11.836
48591SOL    HW147670  11.917   5.393  11.904
48591SOL    HW247671  12.039   5.356  11.823
48592SOL     OW47672   1.477   0.758   9.465
48592SOL    HW147673   1.422   0.766   9.543
48592SOL    HW247674   1.457   0.671   9.430
48593SOL     OW47675  14.258   6.774   8.503
48593SOL    HW147676  14.265   6.693   8.555
48593SOL    HW247677  14.299   6.841   8.557
48594SOL     OW47678   5.914   5.390  11.954
48594SOL    HW147679   5.860   5.324  11.911
48594SOL    HW247680   5.998   5.387  11.907
48595SOL     OW47681   1.165   3.101  11.015
48595SOL    HW147682   1.258   3.082  11.006
48595SOL    HW247683   1.152   3.114  11.109
48596SOL     OW47684  13.975   3.680   3.419
48596SOL    HW147685  13.932   3.691   3.504
48596SOL    HW247686  14.058   3.726   3.427
48597SOL     OW47687   4.440   7.962   6.734
48597SOL    HW147688   4.508   7.925   6.791
48597SOL    HW247689   4.484   8.034   6.688
48598SOL     OW47690   6.809   0.947   3.078
48598SOL    HW147691   6.868   0.979   3.146
48598SOL    HW247692   6.834   0.995   2.999
48599SOL     OW47693   7.396   3.716   1.677
48599SOL    HW147694   7.364   3.779   1.612
48599SOL    HW247695   7.317   3.681   1.718
48600SOL     OW47696   6.753   0.337   3.244
48600SOL    HW147697   6.721   0.322   3.333
48600SOL    HW247698   6.691   0.400   3.207
48601SOL     OW47699   0.394  11.634  10.143
48601SOL    HW147700   0.341  11.642  10.222
48601SOL    HW247701   0.331  11.618  10.073
48602SOL     OW47702   7.011  10.069   2.292
48602SOL    HW147703   7.086  10.116   2.328
48602SOL    HW247704   7.032  10.057   2.200
48603SOL     OW47705  11.864  12.083  10.353
48603SOL    HW147706  11.912  12.165  10.338
48603SOL    HW247707  11.917  12.016  10.309
48604SOL     OW47708  10.317   6.438   5.463
48604SOL    HW147709  10.320   6.514   5.521
48604SOL    HW247710  10.391   6.450   5.403
48605SOL     OW47711   3.934  12.905  12.253
48605SOL    HW147712   3.922  13.000  12.243
48605SOL    HW247713   3.928  12.871  12.164
48606SOL     OW47714   5.268   0.238  12.292
48606SOL    HW147715   5.227   0.320  12.319
48606SOL    HW247716   5.318   0.209  12.369
48607SOL     OW47717   4.884   1.530   1.028
48607SOL    HW147718   4.881   1.626   1.026
48607SOL    HW247719   4.949   1.508   0.961
48608SOL     OW47720   1.067   1.500  12.314
48608SOL    HW147721   1.147   1.469  12.273
48608SOL    HW247722   0.999   1.488  12.248
48609SOL     OW47723  13.036  14.405  13.093
48609SOL    HW147724  13.085  14.432  13.016
48609SOL    HW247725  13.054  14.312  13.102
48610SOL     OW47726   0.212   3.966   7.741
48610SOL    HW147727   0.269   3.936   7.812
48610SOL    HW247728   0.195   3.888   7.688
48611SOL     OW47729  13.379  12.974   9.552
48611SOL    HW147730  13.336  13.017   9.626
48611SOL    HW247731  13.458  13.025   9.537
48612SOL     OW47732   2.769   0.928   3.138
48612SOL    HW147733   2.719   0.905   3.060
48612SOL    HW247734   2.721   0.887   3.210
48613SOL     OW47735   6.183   6.273   3.662
48613SOL    HW147736   6.116   6.207   3.645
48613SOL    HW247737   6.256   6.224   3.699
48614SOL     OW47738  12.870   4.913  14.030
48614SOL    HW147739  12.810   4.979  14.067
48614SOL    HW247740  12.865   4.839  14.090
48615SOL     OW47741   0.039   4.578  10.560
48615SOL    HW147742   0.068   4.655  10.511
48615SOL    HW247743   0.111   4.558  10.619
48616SOL     OW47744   8.823  11.455  10.582
48616SOL    HW147745   8.864  11.521  10.639
48616SOL    HW247746   8.770  11.402  10.642
48617SOL     OW47747   0.244  10.789  11.459
48617SOL    HW147748   0.336  10.789  11.434
48617SOL    HW247749   0.214  10.878  11.439
48618SOL     OW47750   1.186   7.152  12.579
48618SOL    HW147751   1.172   7.188  12.667
48618SOL    HW247752   1.139   7.212  12.521
48619SOL     OW47753  11.880   8.938  11.840
48619SOL    HW147754  11.874   8.853  11.796
48619SOL    HW247755  11.973   8.961  11.834
48620SOL     OW47756   1.252   5.112   3.340
48620SOL    HW147757   1.302   5.183   3.301
48620SOL    HW247758   1.315   5.042   3.353
48621SOL     OW47759   0.458   3.651   2.375
48621SOL    HW147760   0.510   3.669   2.297
48621SOL    HW247761   0.523   3.635   2.444
48622SOL     OW47762  12.842  11.245   7.000
48622SOL    HW147763  12.817  11.332   6.970
48622SOL    HW247764  12.775  11.187   6.965
48623SOL     OW47765   5.426   7.129   9.602
48623SOL    HW147766   5.394   7.106   9.515
48623SOL    HW247767   5.348   7.129   9.657
48624SOL     OW47768   4.564  10.982   4.729
48624SOL    HW147769   4.554  10.937   4.645
48624SOL    HW247770   4.551  10.913   4.794
48625SOL     OW47771  12.200   6.322  12.747
48625SOL    HW147772  12.149   6.399  12.772
48625SOL    HW247773  12.287   6.337  12.784
48626SOL     OW47774  11.967   3.561   1.238
48626SOL    HW147775  11.967   3.466   1.242
48626SOL    HW247776  12.056   3.586   1.264
48627SOL     OW47777  10.025   2.758   2.661
48627SOL    HW147778  10.040   2.824   2.593
48627SOL    HW247779   9.933   2.735   2.652
48628SOL     OW47780  13.213  12.468  13.202
48628SOL    HW147781  13.171  12.383  13.189
48628SOL    HW247782  13.301  12.448  13.231
48629SOL     OW47783  11.337   6.671   0.966
48629SOL    HW147784  11.357   6.578   0.977
48629SOL    HW247785  11.419   6.716   0.987
48630SOL     OW47786   6.663   2.497   6.902
48630SOL    HW147787   6.710   2.414   6.901
48630SOL    HW247788   6.595   2.486   6.969
48631SOL     OW47789  14.832  13.204   6.880
48631SOL    HW147790   0.046  13.155   6.872
48631SOL    HW247791  14.844  13.257   6.959
48632SOL     OW47792  10.748   0.410   8.052
48632SOL    HW147793  10.680   0.372   7.997
48632SOL    HW247794  10.830   0.376   8.016
48633SOL     OW47795  11.868   4.865   5.555
48633SOL    HW147796  11.833   4.785   5.595
48633SOL    HW247797  11.870   4.846   5.462
48634SOL     OW47798   5.126  14.496   7.303
48634SOL    HW147799   5.209  14.544   7.299
48634SOL    HW247800   5.105  14.476   7.212
48635SOL     OW47801   3.853  10.975   5.307
48635SOL    HW147802   3.944  10.945   5.310
48635SOL    HW247803   3.830  10.990   5.399
48636SOL     OW47804   4.267   7.820   5.979
48636SOL    HW147805   4.291   7.893   5.922
48636SOL    HW247806   4.220   7.861   6.051
48637SOL     OW47807  10.802   7.263  13.679
48637SOL    HW147808  10.851   7.208  13.740
48637SOL    HW247809  10.710   7.249  13.703
48638SOL     OW47810   8.335   5.561   4.118
48638SOL    HW147811   8.359   5.484   4.067
48638SOL    HW247812   8.246   5.542   4.148
48639SOL     OW47813   6.840   0.448   5.256
48639SOL    HW147814   6.864   0.496   5.177
48639SOL    HW247815   6.784   0.508   5.305
48640SOL     OW47816   0.009  13.455   0.916
48640SOL    HW147817  14.787  13.426   0.932
48640SOL    HW247818   0.008  13.490   0.827
48641SOL     OW47819   4.697   1.942   6.908
48641SOL    HW147820   4.621   1.915   6.959
48641SOL    HW247821   4.765   1.879   6.932
48642SOL     OW47822   9.388   2.816   6.329
48642SOL    HW147823   9.435   2.846   6.407
48642SOL    HW247824   9.402   2.722   6.327
48643SOL     OW47825   3.048   5.714   4.312
48643SOL    HW147826   3.039   5.683   4.222
48643SOL    HW247827   2.976   5.777   4.322
48644SOL     OW47828   7.838   9.146  11.894
48644SOL    HW147829   7.896   9.217  11.924
48644SOL    HW247830   7.771   9.140  11.961
48645SOL     OW47831   0.666  11.010   6.935
48645SOL    HW147832   0.646  11.090   6.984
48645SOL    HW247833   0.710  10.953   6.998
48646SOL     OW47834   1.181  13.239  12.551
48646SOL    HW147835   1.105  13.204  12.598
48646SOL    HW247836   1.151  13.325  12.520
48647SOL     OW47837   0.470   3.990   7.269
48647SOL    HW147838   0.384   4.012   7.234
48647SOL    HW247839   0.457   3.980   7.363
48648SOL     OW47840   9.165   0.550  14.079
48648SOL    HW147841   9.106   0.484  14.043
48648SOL    HW247842   9.181   0.610  14.006
48649SOL     OW47843   2.756   2.026   1.603
48649SOL    HW147844   2.809   2.094   1.643
48649SOL    HW247845   2.737   1.965   1.674
48650SOL     OW47846   4.948   5.725   2.531
48650SOL    HW147847   4.857   5.749   2.511
48650SOL    HW247848   4.941   5.644   2.580
48651SOL     OW47849   0.255  13.696   6.614
48651SOL    HW147850   0.314  13.707   6.539
48651SOL    HW247851   0.309  13.718   6.690
48652SOL     OW47852   7.249  11.506   2.897
48652SOL    HW147853   7.175  11.567   2.888
48652SOL    HW247854   7.259  11.495   2.991
48653SOL     OW47855   4.754   4.727   4.327
48653SOL    HW147856   4.724   4.817   4.336
48653SOL    HW247857   4.685   4.683   4.277
48654SOL     OW47858   9.815   6.538  14.861
48654SOL    HW147859   9.775   6.495  14.785
48654SOL    HW247860   9.835   6.467   0.054
48655SOL     OW47861   1.305   6.339   7.540
48655SOL    HW147862   1.235   6.354   7.604
48655SOL    HW247863   1.386   6.349   7.589
48656SOL     OW47864  12.239  10.261   7.612
48656SOL    HW147865  12.287  10.338   7.580
48656SOL    HW247866  12.161  10.297   7.654
48657SOL     OW47867   8.592  14.392  11.796
48657SOL    HW147868   8.547  14.462  11.749
48657SOL    HW247869   8.555  14.395  11.884
48658SOL     OW47870   5.133   2.934  13.507
48658SOL    HW147871   5.195   2.876  13.463
48658SOL    HW247872   5.103   2.994  13.438
48659SOL     OW47873  14.259  13.146   0.320
48659SOL    HW147874  14.188  13.179   0.375
48659SOL    HW247875  14.217  13.122   0.238
48660SOL     OW47876   6.295  10.658   9.566
48660SOL    HW147877   6.314  10.647   9.659
48660SOL    HW247878   6.247  10.579   9.542
48661SOL     OW47879   5.099   4.962  13.400
48661SOL    HW147880   5.153   5.028  13.358
48661SOL    HW247881   5.143   4.879  13.381
48662SOL     OW47882   8.242   6.566   8.898
48662SOL    HW147883   8.186   6.625   8.948
48662SOL    HW247884   8.329   6.606   8.903
48663SOL     OW47885   2.140  12.289   6.905
48663SOL    HW147886   2.056  12.331   6.887
48663SOL    HW247887   2.122  12.195   6.894
48664SOL     OW47888   2.966  13.549   2.714
48664SOL    HW147889   3.015  13.594   2.646
48664SOL    HW247890   2.893  13.507   2.668
48665SOL     OW47891  12.463  10.098   4.217
48665SOL    HW147892  12.374  10.065   4.225
48665SOL    HW247893  12.517  10.019   4.209
48666SOL     OW47894   3.183   3.826   0.847
48666SOL    HW147895   3.267   3.851   0.885
48666SOL    HW247896   3.128   3.805   0.922
48667SOL     OW47897  11.368   2.968   6.866
48667SOL    HW147898  11.405   2.880   6.872
48667SOL    HW247899  11.368   2.987   6.772
48668SOL     OW47900   8.666   6.129   5.325
48668SOL    HW147901   8.693   6.216   5.354
48668SOL    HW247902   8.577   6.119   5.359
48669SOL     OW47903   8.977  10.351   7.370
48669SOL    HW147904   8.884  10.342   7.351
48669SOL    HW247905   8.984  10.341   7.465
48670SOL     OW47906   4.867   1.859  14.036
48670SOL    HW147907   4.909   1.909  14.106
48670SOL    HW247908   4.921   1.780  14.028
48671SOL     OW47909   6.401  10.323  14.515
48671SOL    HW147910   6.313  10.331  14.479
48671SOL    HW247911   6.437  10.411  14.510
48672SOL     OW47912   4.534   9.706   9.551
48672SOL    HW147913   4.548   9.613   9.570
48672SOL    HW247914   4.521   9.710   9.456
48673SOL     OW47915  10.326   3.411   1.286
48673SOL    HW147916  10.379   3.413   1.206
48673SOL    HW247917  10.376   3.358   1.347
48674SOL     OW47918  12.322   6.451   4.546
48674SOL    HW147919  12.235   6.487   4.528
48674SOL    HW247920  12.320   6.363   4.508
48675SOL     OW47921   7.623   2.557  14.520
48675SOL    HW147922   7.677   2.621  14.566
48675SOL    HW247923   7.635   2.578  14.427
48676SOL     OW47924   4.841   1.553   0.601
48676SOL    HW147925   4.771   1.490   0.621
48676SOL    HW247926   4.909   1.534   0.667
48677SOL     OW47927  14.605  14.826   7.067
48677SOL    HW147928  14.636  14.767   7.136
48677SOL    HW247929  14.685  14.857   7.024
48678SOL     OW47930  14.370   6.059   1.961
48678SOL    HW147931  14.290   6.022   1.998
48678SOL    HW247932  14.339   6.116   1.890
48679SOL     OW47933  13.399   6.522  10.545
48679SOL    HW147934  13.459   6.448  10.533
48679SOL    HW247935  13.398   6.565  10.459
48680SOL     OW47936   7.285  11.504   7.096
48680SOL    HW147937   7.313  11.584   7.051
48680SOL    HW247938   7.231  11.535   7.169
48681SOL     OW47939   1.183   9.168  13.386
48681SOL    HW147940   1.111   9.109  13.409
48681SOL    HW247941   1.143   9.255  13.386
48682SOL     OW47942   8.377  14.421  14.184
48682SOL    HW147943   8.442  14.376  14.237
48682SOL    HW247944   8.294  14.380  14.208
48683SOL     OW47945  12.012  11.045   1.169
48683SOL    HW147946  12.023  10.972   1.229
48683SOL    HW247947  12.081  11.032   1.104
48684SOL     OW47948  10.707   5.621   7.581
48684SOL    HW147949  10.679   5.712   7.574
48684SOL    HW247950  10.664   5.576   7.508
48685SOL     OW47951  13.686   0.606   3.109
48685SOL    HW147952  13.733   0.600   3.026
48685SOL    HW247953  13.691   0.517   3.145
48686SOL     OW47954  10.201  11.849   2.463
48686SOL    HW147955  10.225  11.937   2.433
48686SOL    HW247956  10.180  11.859   2.555
48687SOL     OW47957   0.603   4.793   7.159
48687SOL    HW147958   0.631   4.772   7.248
48687SOL    HW247959   0.550   4.717   7.132
48688SOL     OW47960   5.356  12.349   2.938
48688SOL    HW147961   5.265  12.318   2.941
48688SOL    HW247962   5.353  12.425   2.879
48689SOL     OW47963   5.419   4.480   6.881
48689SOL    HW147964   5.464   4.562   6.859
48689SOL    HW247965   5.327   4.496   6.860
48690SOL     OW47966   9.219  14.577   0.156
48690SOL    HW147967   9.289  14.568   0.221
48690SOL    HW247968   9.139  14.584   0.207
48691SOL     OW47969   3.335   6.027   4.559
48691SOL    HW147970   3.270   6.088   4.595
48691SOL    HW247971   3.419   6.061   4.590
48692SOL     OW47972  10.473   7.586   4.566
48692SOL    HW147973  10.425   7.668   4.557
48692SOL    HW247974  10.404   7.519   4.569
48693SOL     OW47975   5.856  13.378  10.697
48693SOL    HW147976   5.866  13.306  10.634
48693SOL    HW247977   5.828  13.453  10.644
48694SOL     OW47978   7.384  14.568   8.736
48694SOL    HW147979   7.320  14.573   8.807
48694SOL    HW247980   7.333  14.541   8.660
48695SOL     OW47981   6.238   6.770   5.535
48695SOL    HW147982   6.161   6.749   5.588
48695SOL    HW247983   6.206   6.832   5.470
48696SOL     OW47984   0.999  11.186   0.451
48696SOL    HW147985   0.982  11.093   0.437
48696SOL    HW247986   0.980  11.201   0.544
48697SOL     OW47987  13.052  13.797  10.396
48697SOL    HW147988  12.971  13.776  10.349
48697SOL    HW247989  13.065  13.723  10.455
48698SOL     OW47990  13.700   2.654   6.611
48698SOL    HW147991  13.793   2.674   6.619
48698SOL    HW247992  13.676   2.617   6.695
48699SOL     OW47993   2.934   6.441  10.275
48699SOL    HW147994   2.979   6.524  10.260
48699SOL    HW247995   2.841   6.462  10.265
48700SOL     OW47996   4.852   9.414  13.965
48700SOL    HW147997   4.759   9.428  13.952
48700SOL    HW247998   4.876   9.351  13.897
48701SOL     OW47999   4.945   0.374   8.017
48701SOL    HW148000   4.932   0.449   7.959
48701SOL    HW248001   5.020   0.327   7.979
48702SOL     OW48002   1.030   4.548   8.097
48702SOL    HW148003   1.031   4.617   8.031
48702SOL    HW248004   1.060   4.470   8.051
48703SOL     OW48005  13.156   8.854   9.317
48703SOL    HW148006  13.156   8.822   9.408
48703SOL    HW248007  13.245   8.836   9.286
48704SOL     OW48008   9.516   3.109  12.492
48704SOL    HW148009   9.564   3.112  12.575
48704SOL    HW248010   9.423   3.109  12.518
48705SOL     OW48011  10.558   2.272   1.694
48705SOL    HW148012  10.626   2.309   1.637
48705SOL    HW248013  10.516   2.348   1.734
48706SOL     OW48014   6.589   7.940   1.812
48706SOL    HW148015   6.561   8.004   1.746
48706SOL    HW248016   6.684   7.948   1.815
48707SOL     OW48017  10.923   9.789  13.010
48707SOL    HW148018  10.899   9.872  12.969
48707SOL    HW248019  10.907   9.803  13.103
48708SOL     OW48020  13.185  13.908   6.889
48708SOL    HW148021  13.223  13.990   6.859
48708SOL    HW248022  13.114  13.934   6.947
48709SOL     OW48023   1.822   9.170   2.358
48709SOL    HW148024   1.734   9.178   2.394
48709SOL    HW248025   1.867   9.111   2.418
48710SOL     OW48026   4.938   6.626   5.268
48710SOL    HW148027   4.972   6.601   5.182
48710SOL    HW248028   4.990   6.703   5.292
48711SOL     OW48029   3.100   3.628  14.146
48711SOL    HW148030   3.035   3.590  14.205
48711SOL    HW248031   3.123   3.557  14.086
48712SOL     OW48032   9.890  10.429  11.820
48712SOL    HW148033   9.910  10.496  11.754
48712SOL    HW248034   9.972  10.419  11.869
48713SOL     OW48035  13.796   0.146   7.353
48713SOL    HW148036  13.850   0.177   7.280
48713SOL    HW248037  13.857   0.100   7.410
48714SOL     OW48038   7.033   9.924   4.239
48714SOL    HW148039   7.089   9.971   4.301
48714SOL    HW248040   7.004   9.846   4.286
48715SOL     OW48041   8.563   8.838   9.802
48715SOL    HW148042   8.631   8.837   9.735
48715SOL    HW248043   8.534   8.929   9.805
48716SOL     OW48044  10.637  11.470  13.897
48716SOL    HW148045  10.681  11.404  13.951
48716SOL    HW248046  10.632  11.547  13.953
48717SOL     OW48047   4.269   3.582   8.150
48717SOL    HW148048   4.206   3.526   8.105
48717SOL    HW248049   4.266   3.552   8.241
48718SOL     OW48050   1.939  12.310  13.789
48718SOL    HW148051   1.907  12.397  13.764
48718SOL    HW248052   1.886  12.250  13.737
48719SOL     OW48053   9.993   8.416   2.908
48719SOL    HW148054  10.071   8.395   2.856
48719SOL    HW248055  10.026   8.426   2.998
48720SOL     OW48056   7.581   1.346   5.821
48720SOL    HW148057   7.495   1.327   5.858
48720SOL    HW248058   7.563   1.381   5.734
48721SOL     OW48059   6.705   7.260   6.332
48721SOL    HW148060   6.640   7.270   6.263
48721SOL    HW248061   6.723   7.166   6.336
48722SOL     OW48062   6.700  14.000   3.706
48722SOL    HW148063   6.723  13.915   3.743
48722SOL    HW248064   6.784  14.036   3.675
48723SOL     OW48065   4.339   6.115   7.739
48723SOL    HW148066   4.358   6.127   7.646
48723SOL    HW248067   4.419   6.144   7.784
48724SOL     OW48068   8.285   2.178   6.740
48724SOL    HW148069   8.380   2.167   6.727
48724SOL    HW248070   8.269   2.148   6.829
48725SOL     OW48071   2.743   7.926   0.738
48725SOL    HW148072   2.757   7.845   0.787
48725SOL    HW248073   2.654   7.918   0.703
48726SOL     OW48074   4.664   7.526  12.867
48726SOL    HW148075   4.746   7.570  12.843
48726SOL    HW248076   4.606   7.542  12.793
48727SOL     OW48077  11.402   2.948   7.726
48727SOL    HW148078  11.438   3.012   7.665
48727SOL    HW248079  11.441   2.971   7.811
48728SOL     OW48080   8.049   9.605  13.491
48728SOL    HW148081   8.038   9.611  13.396
48728SOL    HW248082   8.143   9.609  13.504
48729SOL     OW48083   5.234   3.752   1.627
48729SOL    HW148084   5.164   3.772   1.564
48729SOL    HW248085   5.227   3.820   1.693
48730SOL     OW48086  10.972   2.418  13.548
48730SOL    HW148087  10.960   2.333  13.505
48730SOL    HW248088  11.005   2.475  13.479
48731SOL     OW48089  14.417  13.811   8.647
48731SOL    HW148090  14.513  13.813   8.652
48731SOL    HW248091  14.395  13.718   8.641
48732SOL     OW48092   1.329  13.898   0.803
48732SOL    HW148093   1.258  13.961   0.818
48732SOL    HW248094   1.313  13.866   0.714
48733SOL     OW48095  12.550  12.619   3.993
48733SOL    HW148096  12.615  12.548   3.988
48733SOL    HW248097  12.553  12.660   3.907
48734SOL     OW48098   8.066   4.745  12.047
48734SOL    HW148099   8.022   4.674  11.999
48734SOL    HW248100   8.159   4.723  12.042
48735SOL     OW48101   3.763   8.914   7.341
48735SOL    HW148102   3.789   8.919   7.249
48735SOL    HW248103   3.748   9.005   7.366
48736SOL     OW48104   3.193  14.837   3.576
48736SOL    HW148105   3.213   0.002   3.489
48736SOL    HW248106   3.276  14.804   3.610
48737SOL     OW48107   0.671   5.157  10.570
48737SOL    HW148108   0.647   5.094  10.638
48737SOL    HW248109   0.709   5.103  10.501
48738SOL     OW48110  10.198   7.999  13.765
48738SOL    HW148111  10.267   8.053  13.726
48738SOL    HW248112  10.244   7.921  13.796
48739SOL     OW48113   4.761  11.241   6.873
48739SOL    HW148114   4.836  11.202   6.828
48739SOL    HW248115   4.795  11.265   6.959
48740SOL     OW48116  14.510   6.746   7.151
48740SOL    HW148117  14.477   6.697   7.227
48740SOL    HW248118  14.437   6.746   7.089
48741SOL     OW48119   3.540  11.426   4.011
48741SOL    HW148120   3.591  11.502   4.039
48741SOL    HW248121   3.487  11.403   4.087
48742SOL     OW48122   8.366   6.571  13.270
48742SOL    HW148123   8.373   6.481  13.236
48742SOL    HW248124   8.400   6.566  13.359
48743SOL     OW48125   3.052  12.841   0.379
48743SOL    HW148126   3.048  12.797   0.464
48743SOL    HW248127   2.995  12.917   0.389
48744SOL     OW48128   3.032   2.835   2.560
48744SOL    HW148129   3.062   2.837   2.470
48744SOL    HW248130   3.063   2.750   2.594
48745SOL     OW48131   8.090  12.116   4.022
48745SOL    HW148132   8.062  12.092   3.934
48745SOL    HW248133   8.181  12.085   4.027
48746SOL     OW48134   4.004   8.361   8.310
48746SOL    HW148135   4.045   8.443   8.286
48746SOL    HW248136   3.910   8.381   8.310
48747SOL     OW48137   7.130   7.870   7.266
48747SOL    HW148138   7.110   7.944   7.209
48747SOL    HW248139   7.045   7.829   7.284
48748SOL     OW48140   1.970   1.989  13.824
48748SOL    HW148141   1.979   2.035  13.741
48748SOL    HW248142   1.969   1.896  13.801
48749SOL     OW48143   8.774  12.273   0.198
48749SOL    HW148144   8.789  12.337   0.269
48749SOL    HW248145   8.759  12.327   0.121
48750SOL     OW48146   6.043   0.885  11.031
48750SOL    HW148147   6.118   0.920  10.982
48750SOL    HW248148   6.073   0.800  11.064
48751SOL     OW48149   0.472   6.568   9.797
48751SOL    HW148150   0.520   6.608   9.724
48751SOL    HW248151   0.471   6.636   9.865
48752SOL     OW48152   2.056   5.176  13.719
48752SOL    HW148153   2.114   5.213  13.786
48752SOL    HW248154   2.056   5.082  13.737
48753SOL     OW48155   1.776   2.920  10.563
48753SOL    HW148156   1.836   2.994  10.548
48753SOL    HW248157   1.727   2.945  10.642
48754SOL     OW48158  10.983   0.026  13.340
48754SOL    HW148159  10.935   0.107  13.324
48754SOL    HW248160  10.928  14.845  13.401
48755SOL     OW48161   0.726  10.655   9.458
48755SOL    HW148162   0.781  10.581   9.485
48755SOL    HW248163   0.748  10.725   9.519
48756SOL     OW48164   0.357  14.069   4.000
48756SOL    HW148165   0.439  14.036   4.038
48756SOL    HW248166   0.288  14.019   4.044
48757SOL     OW48167   8.030   9.294  11.242
48757SOL    HW148168   8.101   9.354  11.264
48757SOL    HW248169   8.060   9.209  11.275
48758SOL     OW48170   5.546  12.056   9.032
48758SOL    HW148171   5.517  12.106   8.956
48758SOL    HW248172   5.603  11.988   8.997
48759SOL     OW48173   4.142  13.899  12.337
48759SOL    HW148174   4.178  13.890  12.249
48759SOL    HW248175   4.189  13.974  12.374
48760SOL     OW48176   0.190  11.345  14.141
48760SOL    HW148177   0.263  11.362  14.199
48760SOL    HW248178   0.120  11.313  14.198
48761SOL     OW48179  11.454  11.152  10.137
48761SOL    HW148180  11.427  11.095  10.209
48761SOL    HW248181  11.498  11.093  10.075
48762SOL     OW48182   3.277  11.881   9.224
48762SOL    HW148183   3.341  11.945   9.191
48762SOL    HW248184   3.250  11.832   9.146
48763SOL     OW48185  13.062   1.032   5.366
48763SOL    HW148186  13.132   1.055   5.427
48763SOL    HW248187  12.982   1.033   5.419
48764SOL     OW48188   6.947   0.236   6.562
48764SOL    HW148189   6.970   0.326   6.540
48764SOL    HW248190   6.934   0.237   6.657
48765SOL     OW48191   0.258   0.129  11.626
48765SOL    HW148192   0.230   0.121  11.534
48765SOL    HW248193   0.218   0.053  11.669
48766SOL     OW48194   4.459   8.245  11.833
48766SOL    HW148195   4.450   8.340  11.845
48766SOL    HW248196   4.428   8.207  11.915
48767SOL     OW48197   5.167   3.220   5.372
48767SOL    HW148198   5.229   3.281   5.333
48767SOL    HW248199   5.189   3.221   5.466
48768SOL     OW48200  10.614   9.538   1.461
48768SOL    HW148201  10.570   9.562   1.543
48768SOL    HW248202  10.679   9.473   1.486
48769SOL     OW48203   0.183   0.753   0.105
48769SOL    HW148204   0.232   0.757   0.187
48769SOL    HW248205   0.249   0.735   0.038
48770SOL     OW48206   1.491   5.414  14.201
48770SOL    HW148207   1.431   5.359  14.151
48770SOL    HW248208   1.492   5.375  14.288
48771SOL     OW48209   6.807  13.487   5.976
48771SOL    HW148210   6.848  13.447   5.899
48771SOL    HW248211   6.747  13.552   5.939
48772SOL     OW48212   3.018  11.691  10.738
48772SOL    HW148213   2.961  11.616  10.756
48772SOL    HW248214   2.964  11.767  10.761
48773SOL     OW48215  12.647   5.480  12.865
48773SOL    HW148216  12.672   5.461  12.955
48773SOL    HW248217  12.600   5.563  12.870
48774SOL     OW48218   9.083  14.360   0.582
48774SOL    HW148219   9.033  14.437   0.610
48774SOL    HW248220   9.164  14.365   0.632
48775SOL     OW48221  11.376   3.079   9.924
48775SOL    HW148222  11.401   3.007   9.866
48775SOL    HW248223  11.430   3.153   9.896
48776SOL     OW48224  12.186   1.905  10.829
48776SOL    HW148225  12.211   1.899  10.737
48776SOL    HW248226  12.136   1.826  10.845
48777SOL     OW48227  12.241   9.276   3.303
48777SOL    HW148228  12.196   9.235   3.229
48777SOL    HW248229  12.193   9.246   3.380
48778SOL     OW48230   8.858   5.101  11.827
48778SOL    HW148231   8.941   5.057  11.848
48778SOL    HW248232   8.792   5.052  11.875
48779SOL     OW48233   6.154  12.510   5.833
48779SOL    HW148234   6.131  12.559   5.754
48779SOL    HW248235   6.209  12.570   5.883
48780SOL     OW48236  13.823   5.494   0.444
48780SOL    HW148237  13.909   5.451   0.447
48780SOL    HW248238  13.775   5.446   0.377
48781SOL     OW48239   1.538  14.641   0.789
48781SOL    HW148240   1.504  14.552   0.790
48781SOL    HW248241   1.622  14.636   0.836
48782SOL     OW48242   2.312   3.420  10.210
48782SOL    HW148243   2.335   3.433  10.303
48782SOL    HW248244   2.397   3.409  10.167
48783SOL     OW48245   5.473   8.613  12.129
48783SOL    HW148246   5.393   8.663  12.140
48783SOL    HW248247   5.535   8.654  12.189
48784SOL     OW48248   5.628   7.232   4.611
48784SOL    HW148249   5.710   7.183   4.606
48784SOL    HW248250   5.624   7.280   4.529
48785SOL     OW48251  11.418   2.793   3.398
48785SOL    HW148252  11.480   2.814   3.328
48785SOL    HW248253  11.433   2.861   3.464
48786SOL     OW48254   8.199   5.916   7.862
48786SOL    HW148255   8.119   5.915   7.913
48786SOL    HW248256   8.266   5.883   7.921
48787SOL     OW48257   0.255   4.229   2.175
48787SOL    HW148258   0.255   4.208   2.269
48787SOL    HW248259   0.178   4.285   2.163
48788SOL     OW48260   7.428   5.438  11.301
48788SOL    HW148261   7.478   5.509  11.343
48788SOL    HW248262   7.447   5.361  11.354
48789SOL     OW48263   1.107   4.763  10.629
48789SOL    HW148264   1.060   4.753  10.711
48789SOL    HW248265   1.187   4.809  10.652
48790SOL     OW48266   1.944   0.931   3.660
48790SOL    HW148267   1.913   0.993   3.726
48790SOL    HW248268   2.008   0.979   3.609
48791SOL     OW48269   9.586  12.105   2.305
48791SOL    HW148270   9.677  12.113   2.276
48791SOL    HW248271   9.555  12.025   2.261
48792SOL     OW48272  12.668   5.320   4.085
48792SOL    HW148273  12.630   5.313   3.997
48792SOL    HW248274  12.645   5.237   4.127
48793SOL     OW48275   7.168   3.028   1.185
48793SOL    HW148276   7.197   3.058   1.271
48793SOL    HW248277   7.228   3.070   1.124
48794SOL     OW48278   1.824   2.389  14.689
48794SOL    HW148279   1.883   2.412  14.617
48794SOL    HW248280   1.843   2.453  14.758
48795SOL     OW48281   4.571  14.695   9.009
48795SOL    HW148282   4.506  14.737   8.953
48795SOL    HW248283   4.590  14.761   9.077
48796SOL     OW48284   9.637   6.371   8.401
48796SOL    HW148285   9.624   6.330   8.315
48796SOL    HW248286   9.729   6.353   8.422
48797SOL     OW48287   5.902  10.024   2.291
48797SOL    HW148288   5.872  10.011   2.201
48797SOL    HW248289   5.825  10.056   2.338
48798SOL     OW48290  14.742   7.914  12.286
48798SOL    HW148291  14.783   8.001  12.285
48798SOL    HW248292  14.661   7.926  12.237
48799SOL     OW48293  14.860   9.257  12.225
48799SOL    HW148294  14.816   9.340  12.206
48799SOL    HW248295  14.793   9.204  12.267
48800SOL     OW48296   2.735  10.140   8.541
48800SOL    HW148297   2.675  10.198   8.493
48800SOL    HW248298   2.776  10.197   8.606
48801SOL     OW48299   0.188   5.952   1.050
48801SOL    HW148300   0.275   5.981   1.021
48801SOL    HW248301   0.206   5.881   1.112
48802SOL     OW48302   9.872  13.305   5.873
48802SOL    HW148303   9.793  13.352   5.898
48802SOL    HW248304   9.859  13.284   5.780
48803SOL     OW48305  12.678   8.753  11.619
48803SOL    HW148306  12.735   8.714  11.686
48803SOL    HW248307  12.592   8.758  11.662
48804SOL     OW48308  13.363   7.081   4.022
48804SOL    HW148309  13.346   7.032   3.942
48804SOL    HW248310  13.336   7.170   4.002
48805SOL     OW48311   8.140   2.222   8.188
48805SOL    HW148312   8.056   2.206   8.145
48805SOL    HW248313   8.138   2.316   8.209
48806SOL     OW48314   6.340  10.504  12.739
48806SOL    HW148315   6.373  10.540  12.657
48806SOL    HW248316   6.315  10.414  12.717
48807SOL     OW48317   8.335   3.174  14.172
48807SOL    HW148318   8.336   3.209  14.261
48807SOL    HW248319   8.247   3.192  14.140
48808SOL     OW48320  13.185  12.740   7.856
48808SOL    HW148321  13.206  12.716   7.947
48808SOL    HW248322  13.270  12.761   7.817
48809SOL     OW48323   0.630  13.835   0.859
48809SOL    HW148324   0.625  13.843   0.955
48809SOL    HW248325   0.717  13.800   0.843
48810SOL     OW48326  11.001   1.752  14.390
48810SOL    HW148327  10.920   1.703  14.405
48810SOL    HW248328  10.999   1.824  14.452
48811SOL     OW48329  10.242  10.231   9.321
48811SOL    HW148330  10.333  10.215   9.346
48811SOL    HW248331  10.192  10.166   9.370
48812SOL     OW48332   1.676   5.944  14.114
48812SOL    HW148333   1.603   5.986  14.160
48812SOL    HW248334   1.639   5.865  14.076
48813SOL     OW48335  10.277   9.467   7.953
48813SOL    HW148336  10.342   9.470   7.883
48813SOL    HW248337  10.328   9.464   8.034
48814SOL     OW48338   8.359   4.164  14.557
48814SOL    HW148339   8.443   4.118  14.566
48814SOL    HW248340   8.370   4.218  14.479
48815SOL     OW48341   6.332   5.265   1.349
48815SOL    HW148342   6.403   5.205   1.325
48815SOL    HW248343   6.376   5.347   1.370
48816SOL     OW48344  13.360   0.556   8.676
48816SOL    HW148345  13.450   0.534   8.654
48816SOL    HW248346  13.309   0.530   8.599
48817SOL     OW48347  13.959   9.606   9.067
48817SOL    HW148348  14.023   9.623   8.998
48817SOL    HW248349  13.958   9.511   9.077
48818SOL     OW48350  12.153   4.908  12.962
48818SOL    HW148351  12.214   4.867  13.024
48818SOL    HW248352  12.159   5.002  12.981
48819SOL     OW48353  11.856   6.146  11.986
48819SOL    HW148354  11.798   6.208  11.943
48819SOL    HW248355  11.910   6.111  11.915
48820SOL     OW48356   6.513   7.216   6.812
48820SOL    HW148357   6.476   7.147   6.867
48820SOL    HW248358   6.548   7.280   6.874
48821SOL     OW48359   9.588   3.521   1.512
48821SOL    HW148360   9.537   3.473   1.446
48821SOL    HW248361   9.600   3.608   1.474
48822SOL     OW48362   5.211   2.959   1.449
48822SOL    HW148363   5.224   2.932   1.540
48822SOL    HW248364   5.117   2.954   1.435
48823SOL     OW48365   0.987   8.839   0.671
48823SOL    HW148366   1.066   8.892   0.678
48823SOL    HW248367   0.972   8.808   0.760
48824SOL     OW48368   8.523  13.172   8.708
48824SOL    HW148369   8.563  13.086   8.695
48824SOL    HW248370   8.589  13.221   8.758
48825SOL     OW48371   7.309   4.766   1.677
48825SOL    HW148372   7.369   4.801   1.743
48825SOL    HW248373   7.336   4.675   1.666
48826SOL     OW48374   0.154   3.122  12.607
48826SOL    HW148375   0.221   3.110  12.540
48826SOL    HW248376   0.202   3.158  12.682
48827SOL     OW48377  11.448   3.165   1.714
48827SOL    HW148378  11.493   3.244   1.741
48827SOL    HW248379  11.368   3.163   1.767
48828SOL     OW48380  11.904   9.911   3.832
48828SOL    HW148381  11.813   9.920   3.803
48828SOL    HW248382  11.916   9.816   3.843
48829SOL     OW48383   4.157  11.789   6.580
48829SOL    HW148384   4.137  11.808   6.488
48829SOL    HW248385   4.246  11.821   6.592
48830SOL     OW48386  10.316   0.712   2.538
48830SOL    HW148387  10.374   0.685   2.609
48830SOL    HW248388  10.370   0.770   2.483
48831SOL     OW48389   1.816   3.405   8.749
48831SOL    HW148390   1.773   3.423   8.665
48831SOL    HW248391   1.877   3.478   8.760
48832SOL     OW48392   9.343   1.634   6.430
48832SOL    HW148393   9.372   1.639   6.339
48832SOL    HW248394   9.359   1.722   6.465
48833SOL     OW48395  10.488   7.830   9.612
48833SOL    HW148396  10.397   7.836   9.582
48833SOL    HW248397  10.482   7.820   9.707
48834SOL     OW48398   4.054   2.191   0.265
48834SOL    HW148399   3.992   2.227   0.328
48834SOL    HW248400   4.018   2.215   0.179
48835SOL     OW48401   5.178   7.696   6.053
48835SOL    HW148402   5.121   7.684   5.977
48835SOL    HW248403   5.118   7.699   6.127
48836SOL     OW48404   7.289  14.057  12.027
48836SOL    HW148405   7.195  14.044  12.040
48836SOL    HW248406   7.329  14.026  12.108
48837SOL     OW48407   0.108   8.672  11.379
48837SOL    HW148408   0.104   8.576  11.373
48837SOL    HW248409   0.053   8.693  11.455
48838SOL     OW48410  11.497   3.640   5.897
48838SOL    HW148411  11.495   3.719   5.952
48838SOL    HW248412  11.491   3.673   5.808
48839SOL     OW48413   4.960   0.627   8.274
48839SOL    HW148414   4.960   0.551   8.332
48839SOL    HW248415   5.027   0.686   8.311
48840SOL     OW48416  10.377  10.359   2.544
48840SOL    HW148417  10.374  10.391   2.634
48840SOL    HW248418  10.458  10.394   2.509
48841SOL     OW48419   1.436   6.765   7.856
48841SOL    HW148420   1.389   6.740   7.777
48841SOL    HW248421   1.508   6.820   7.825
48842SOL     OW48422  14.218  10.759   3.109
48842SOL    HW148423  14.150  10.779   3.174
48842SOL    HW248424  14.298  10.797   3.146
48843SOL     OW48425   0.329   7.864   6.241
48843SOL    HW148426   0.337   7.771   6.222
48843SOL    HW248427   0.266   7.896   6.176
48844SOL     OW48428   5.365   4.086   2.576
48844SOL    HW148429   5.396   4.059   2.490
48844SOL    HW248430   5.441   4.075   2.633
48845SOL     OW48431  10.209  12.183  11.764
48845SOL    HW148432  10.155  12.131  11.705
48845SOL    HW248433  10.147  12.215  11.830
48846SOL     OW48434   1.549  12.929   1.930
48846SOL    HW148435   1.576  13.021   1.938
48846SOL    HW248436   1.461  12.927   1.966
48847SOL     OW48437   7.903   0.569   4.601
48847SOL    HW148438   7.958   0.598   4.528
48847SOL    HW248439   7.820   0.545   4.561
48848SOL     OW48440   3.889   4.419  12.834
48848SOL    HW148441   3.961   4.462  12.789
48848SOL    HW248442   3.890   4.457  12.922
48849SOL     OW48443   4.463  13.914  12.067
48849SOL    HW148444   4.418  13.970  12.004
48849SOL    HW248445   4.497  13.974  12.133
48850SOL     OW48446   2.533  13.904  11.280
48850SOL    HW148447   2.468  13.866  11.340
48850SOL    HW248448   2.523  13.854  11.199
48851SOL     OW48449  13.250  10.497   7.129
48851SOL    HW148450  13.241  10.423   7.069
48851SOL    HW248451  13.292  10.460   7.207
48852SOL     OW48452   2.220   9.598  14.034
48852SOL    HW148453   2.231   9.566  13.944
48852SOL    HW248454   2.138   9.647  14.032
48853SOL     OW48455   1.302   1.882   0.157
48853SOL    HW148456   1.335   1.971   0.142
48853SOL    HW248457   1.343   1.829   0.088
48854SOL     OW48458   2.316   0.780   8.779
48854SOL    HW148459   2.358   0.862   8.752
48854SOL    HW248460   2.258   0.758   8.706
48855SOL     OW48461   7.195  11.703   9.474
48855SOL    HW148462   7.232  11.732   9.391
48855SOL    HW248463   7.170  11.612   9.458
48856SOL     OW48464   9.784  10.559   7.337
48856SOL    HW148465   9.820  10.646   7.319
48856SOL    HW248466   9.690  10.568   7.318
48857SOL     OW48467  10.192   9.680   0.811
48857SOL    HW148468  10.180   9.775   0.812
48857SOL    HW248469  10.286   9.668   0.822
48858SOL     OW48470   8.160   3.213   3.862
48858SOL    HW148471   8.122   3.200   3.949
48858SOL    HW248472   8.190   3.126   3.836
48859SOL     OW48473   8.088   6.215   6.295
48859SOL    HW148474   8.156   6.171   6.346
48859SOL    HW248475   8.099   6.308   6.317
48860SOL     OW48476  12.290   6.790  10.095
48860SOL    HW148477  12.201   6.761  10.075
48860SOL    HW248478  12.345   6.746  10.031
48861SOL     OW48479   0.499   3.206   4.770
48861SOL    HW148480   0.429   3.191   4.834
48861SOL    HW248481   0.453   3.233   4.690
48862SOL     OW48482   7.968  14.724   3.294
48862SOL    HW148483   8.023  14.669   3.350
48862SOL    HW248484   7.885  14.731   3.342
48863SOL     OW48485  10.099  10.470   4.808
48863SOL    HW148486  10.090  10.451   4.901
48863SOL    HW248487  10.193  10.482   4.794
48864SOL     OW48488  10.424   7.476   6.521
48864SOL    HW148489  10.396   7.567   6.518
48864SOL    HW248490  10.444   7.460   6.613
48865SOL     OW48491  10.755   4.642   3.651
48865SOL    HW148492  10.706   4.625   3.570
48865SOL    HW248493  10.835   4.590   3.642
48866SOL     OW48494  14.320  10.110   7.100
48866SOL    HW148495  14.246  10.108   7.161
48866SOL    HW248496  14.349  10.019   7.094
48867SOL     OW48497   6.346   1.611  10.397
48867SOL    HW148498   6.327   1.528  10.352
48867SOL    HW248499   6.424   1.645  10.353
48868SOL     OW48500   6.768   1.378  13.196
48868SOL    HW148501   6.801   1.289  13.199
48868SOL    HW248502   6.675   1.368  13.174
48869SOL     OW48503   3.766  14.078   8.509
48869SOL    HW148504   3.860  14.062   8.502
48869SOL    HW248505   3.729  13.994   8.534
48870SOL     OW48506   3.297  10.694   1.833
48870SOL    HW148507   3.201  10.701   1.834
48870SOL    HW248508   3.327  10.783   1.850
48871SOL     OW48509   7.001  13.573   0.529
48871SOL    HW148510   6.938  13.604   0.594
48871SOL    HW248511   6.947  13.530   0.462
48872SOL     OW48512   2.097   6.130  13.577
48872SOL    HW148513   2.171   6.141  13.517
48872SOL    HW248514   2.051   6.052  13.546
48873SOL     OW48515   8.181   1.339   3.196
48873SOL    HW148516   8.172   1.268   3.260
48873SOL    HW248517   8.098   1.385   3.200
48874SOL     OW48518   6.898  10.775   0.912
48874SOL    HW148519   6.968  10.730   0.864
48874SOL    HW248520   6.817  10.745   0.871
48875SOL     OW48521   3.203   6.784   1.208
48875SOL    HW148522   3.238   6.790   1.298
48875SOL    HW248523   3.138   6.714   1.213
48876SOL     OW48524   7.898  11.280  14.689
48876SOL    HW148525   7.928  11.351  14.632
48876SOL    HW248526   7.879  11.208  14.629
48877SOL     OW48527   5.532  13.060   8.744
48877SOL    HW148528   5.559  13.027   8.830
48877SOL    HW248529   5.580  13.142   8.734
48878SOL     OW48530  14.802   2.126  10.470
48878SOL    HW148531  14.722   2.108  10.521
48878SOL    HW248532   0.000   2.146  10.537
48879SOL     OW48533   4.924   1.170   2.541
48879SOL    HW148534   4.938   1.253   2.587
48879SOL    HW248535   4.829   1.165   2.529
48880SOL     OW48536  14.034  14.383  14.027
48880SOL    HW148537  14.031  14.394  13.932
48880SOL    HW248538  14.083  14.459  14.059
48881SOL     OW48539  11.928   7.410  14.757
48881SOL    HW148540  11.927   7.490  14.810
48881SOL    HW248541  12.019   7.401  14.729
48882SOL     OW48542   7.517   5.738   2.361
48882SOL    HW148543   7.577   5.774   2.426
48882SOL    HW248544   7.461   5.679   2.411
48883SOL     OW48545   7.389   8.618  13.520
48883SOL    HW148546   7.475   8.583  13.545
48883SOL    HW248547   7.407   8.676  13.446
48884SOL     OW48548   9.273   0.549   7.139
48884SOL    HW148549   9.341   0.520   7.200
48884SOL    HW248550   9.316   0.547   7.053
48885SOL     OW48551  12.826  11.480   8.248
48885SOL    HW148552  12.802  11.387   8.248
48885SOL    HW248553  12.743  11.526   8.232
48886SOL     OW48554   1.097   6.239  12.437
48886SOL    HW148555   1.163   6.267  12.500
48886SOL    HW248556   1.059   6.321  12.404
48887SOL     OW48557  13.433   6.615   7.122
48887SOL    HW148558  13.489   6.661   7.059
48887SOL    HW248559  13.470   6.527   7.128
48888SOL     OW48560   1.892  14.481   8.868
48888SOL    HW148561   1.834  14.414   8.904
48888SOL    HW248562   1.863  14.563   8.909
48889SOL     OW48563   1.736  13.624   2.620
48889SOL    HW148564   1.803  13.691   2.612
48889SOL    HW248565   1.760  13.558   2.554
48890SOL     OW48566  13.732   2.819   0.554
48890SOL    HW148567  13.783   2.840   0.476
48890SOL    HW248568  13.642   2.841   0.529
48891SOL     OW48569   2.981  10.229  12.632
48891SOL    HW148570   2.976  10.137  12.657
48891SOL    HW248571   3.074  10.249  12.634
48892SOL     OW48572   2.240   7.153   4.299
48892SOL    HW148573   2.269   7.196   4.380
48892SOL    HW248574   2.145   7.151   4.306
48893SOL     OW48575   5.333   8.379  14.143
48893SOL    HW148576   5.298   8.318  14.208
48893SOL    HW248577   5.330   8.330  14.060
48894SOL     OW48578  13.814   5.576   2.758
48894SOL    HW148579  13.751   5.611   2.695
48894SOL    HW248580  13.793   5.621   2.840
48895SOL     OW48581   3.377   6.450  13.185
48895SOL    HW148582   3.422   6.533  13.167
48895SOL    HW248583   3.439   6.399  13.236
48896SOL     OW48584   4.887   4.794  11.979
48896SOL    HW148585   4.820   4.771  11.915
48896SOL    HW248586   4.942   4.716  11.986
48897SOL     OW48587   7.565  11.140   1.107
48897SOL    HW148588   7.519  11.215   1.144
48897SOL    HW248589   7.605  11.096   1.182
48898SOL     OW48590   2.767   4.764   9.287
48898SOL    HW148591   2.857   4.765   9.253
48898SOL    HW248592   2.768   4.827   9.359
48899SOL     OW48593   4.212  14.288   5.107
48899SOL    HW148594   4.296  14.331   5.093
48899SOL    HW248595   4.205  14.278   5.202
48900SOL     OW48596   2.526   1.307   4.183
48900SOL    HW148597   2.528   1.297   4.278
48900SOL    HW248598   2.433   1.304   4.160
48901SOL     OW48599  14.325   7.060   8.340
48901SOL    HW148600  14.339   7.150   8.310
48901SOL    HW248601  14.413   7.026   8.356
48902SOL     OW48602  11.617   3.286   5.677
48902SOL    HW148603  11.571   3.333   5.747
48902SOL    HW248604  11.642   3.355   5.616
48903SOL     OW48605   0.105   9.853   7.969
48903SOL    HW148606   0.143   9.894   7.891
48903SOL    HW248607   0.044   9.788   7.934
48904SOL     OW48608  10.674   5.590   6.779
48904SOL    HW148609  10.657   5.587   6.873
48904SOL    HW248610  10.587   5.597   6.739
48905SOL     OW48611   0.085   4.963   3.131
48905SOL    HW148612   0.163   5.018   3.145
48905SOL    HW248613   0.117   4.874   3.141
48906SOL     OW48614   2.365   4.160   1.394
48906SOL    HW148615   2.285   4.168   1.342
48906SOL    HW248616   2.402   4.076   1.368
48907SOL     OW48617  13.782   6.974  11.259
48907SOL    HW148618  13.775   6.878  11.259
48907SOL    HW248619  13.691   7.004  11.254
48908SOL     OW48620   5.822  12.756   3.284
48908SOL    HW148621   5.898  12.750   3.227
48908SOL    HW248622   5.755  12.702   3.241
48909SOL     OW48623   6.651  10.073   8.449
48909SOL    HW148624   6.606  10.004   8.400
48909SOL    HW248625   6.639  10.050   8.541
48910SOL     OW48626   6.289  11.887   8.769
48910SOL    HW148627   6.331  11.968   8.799
48910SOL    HW248628   6.207  11.884   8.817
48911SOL     OW48629   3.087  11.804   8.396
48911SOL    HW148630   3.160  11.865   8.403
48911SOL    HW248631   3.114  11.743   8.327
48912SOL     OW48632   5.514  11.710   4.826
48912SOL    HW148633   5.555  11.751   4.750
48912SOL    HW248634   5.573  11.639   4.849
48913SOL     OW48635  13.532   4.055   6.200
48913SOL    HW148636  13.510   4.009   6.280
48913SOL    HW248637  13.487   4.139   6.207
48914SOL     OW48638   5.754   6.365   4.884
48914SOL    HW148639   5.772   6.433   4.950
48914SOL    HW248640   5.725   6.414   4.807
48915SOL     OW48641  11.827   5.804   0.827
48915SOL    HW148642  11.794   5.889   0.798
48915SOL    HW248643  11.756   5.743   0.807
48916SOL     OW48644  13.944   2.088   5.048
48916SOL    HW148645  13.897   2.160   5.007
48916SOL    HW248646  14.036   2.111   5.040
48917SOL     OW48647   1.473   2.980   5.056
48917SOL    HW148648   1.458   3.065   5.097
48917SOL    HW248649   1.479   3.000   4.963
48918SOL     OW48650  12.580   4.770  12.681
48918SOL    HW148651  12.599   4.678  12.695
48918SOL    HW248652  12.502   4.771  12.627
48919SOL     OW48653   1.143   3.625  13.501
48919SOL    HW148654   1.050   3.626  13.527
48919SOL    HW248655   1.141   3.641  13.407
48920SOL     OW48656   0.514   1.616   6.722
48920SOL    HW148657   0.454   1.679   6.761
48920SOL    HW248658   0.543   1.656   6.640
48921SOL     OW48659   0.395  10.876   6.041
48921SOL    HW148660   0.463  10.914   5.986
48921SOL    HW248661   0.318  10.871   5.984
48922SOL     OW48662   8.463   3.181  13.739
48922SOL    HW148663   8.468   3.178  13.835
48922SOL    HW248664   8.548   3.148  13.710
48923SOL     OW48665   6.198  14.100   6.748
48923SOL    HW148666   6.115  14.119   6.790
48923SOL    HW248667   6.250  14.055   6.814
48924SOL     OW48668   8.472   1.430   2.332
48924SOL    HW148669   8.568   1.427   2.329
48924SOL    HW248670   8.447   1.344   2.366
48925SOL     OW48671  10.936  10.011   2.756
48925SOL    HW148672  10.878   9.942   2.723
48925SOL    HW248673  10.987  10.038   2.679
48926SOL     OW48674   4.061   6.986   0.973
48926SOL    HW148675   4.120   7.011   1.044
48926SOL    HW248676   4.104   7.016   0.893
48927SOL     OW48677  12.865   7.785   5.791
48927SOL    HW148678  12.805   7.773   5.864
48927SOL    HW248679  12.952   7.768   5.829
48928SOL     OW48680   9.833   3.887   4.812
48928SOL    HW148681   9.881   3.804   4.812
48928SOL    HW248682   9.740   3.861   4.809
48929SOL     OW48683  11.070  11.398  12.977
48929SOL    HW148684  11.043  11.309  12.999
48929SOL    HW248685  11.024  11.453  13.041
48930SOL     OW48686   4.862  14.389   6.061
48930SOL    HW148687   4.771  14.416   6.068
48930SOL    HW248688   4.871  14.354   5.972
48931SOL     OW48689   2.305   3.861  11.014
48931SOL    HW148690   2.212   3.866  10.993
48931SOL    HW248691   2.338   3.790  10.958
48932SOL     OW48692   3.350   8.355   6.055
48932SOL    HW148693   3.270   8.407   6.050
48932SOL    HW248694   3.328   8.283   6.115
48933SOL     OW48695  10.209  12.621  11.452
48933SOL    HW148696  10.123  12.618  11.494
48933SOL    HW248697  10.257  12.548  11.491
48934SOL     OW48698  11.645   1.911  10.810
48934SOL    HW148699  11.629   1.844  10.744
48934SOL    HW248700  11.565   1.964  10.809
48935SOL     OW48701  11.479   3.668   5.625
48935SOL    HW148702  11.519   3.592   5.582
48935SOL    HW248703  11.387   3.664   5.599
48936SOL     OW48704   7.369  11.081   2.855
48936SOL    HW148705   7.278  11.108   2.870
48936SOL    HW248706   7.422  11.153   2.889
48937SOL     OW48707   0.662  14.327   6.722
48937SOL    HW148708   0.601  14.398   6.701
48937SOL    HW248709   0.749  14.366   6.712
48938SOL     OW48710   8.878   0.912  14.680
48938SOL    HW148711   8.865   0.927  14.587
48938SOL    HW248712   8.866   0.818  14.691
48939SOL     OW48713  10.797   7.277   3.171
48939SOL    HW148714  10.712   7.243   3.198
48939SOL    HW248715  10.818   7.344   3.236
48940SOL     OW48716   3.996   0.465  11.974
48940SOL    HW148717   4.030   0.487  12.061
48940SOL    HW248718   3.924   0.527  11.961
48941SOL     OW48719   5.253   0.155   5.932
48941SOL    HW148720   5.218   0.203   5.857
48941SOL    HW248721   5.348   0.173   5.930
48942SOL     OW48722  10.694   3.520   0.473
48942SOL    HW148723  10.738   3.576   0.537
48942SOL    HW248724  10.624   3.478   0.523
48943SOL     OW48725  14.326  11.426  13.071
48943SOL    HW148726  14.369  11.356  13.121
48943SOL    HW248727  14.368  11.424  12.985
48944SOL     OW48728   5.610  11.309   7.790
48944SOL    HW148729   5.667  11.339   7.719
48944SOL    HW248730   5.621  11.213   7.790
48945SOL     OW48731  11.911   5.841   7.229
48945SOL    HW148732  11.848   5.861   7.299
48945SOL    HW248733  11.962   5.921   7.219
48946SOL     OW48734   4.556  10.788   2.920
48946SOL    HW148735   4.507  10.866   2.946
48946SOL    HW248736   4.590  10.809   2.833
48947SOL     OW48737   2.497   7.833  10.996
48947SOL    HW148738   2.554   7.810  11.069
48947SOL    HW248739   2.450   7.911  11.026
48948SOL     OW48740   3.083   9.427  12.374
48948SOL    HW148741   3.129   9.402  12.294
48948SOL    HW248742   3.061   9.519  12.361
48949SOL     OW48743   7.703   2.016   1.045
48949SOL    HW148744   7.623   2.067   1.038
48949SOL    HW248745   7.697   1.953   0.973
48950SOL     OW48746   4.917   6.187   9.021
48950SOL    HW148747   4.879   6.111   9.065
48950SOL    HW248748   4.842   6.232   8.982
48951SOL     OW48749  12.023   9.958  11.933
48951SOL    HW148750  11.984  10.033  11.978
48951SOL    HW248751  12.107   9.944  11.977
48952SOL     OW48752   1.997  13.503   3.797
48952SOL    HW148753   1.997  13.413   3.830
48952SOL    HW248754   2.004  13.493   3.702
48953SOL     OW48755   3.281   7.425   6.396
48953SOL    HW148756   3.190   7.437   6.369
48953SOL    HW248757   3.282   7.447   6.489
48954SOL     OW48758   4.885  10.560  14.470
48954SOL    HW148759   4.869  10.615  14.547
48954SOL    HW248760   4.812  10.497  14.470
48955SOL     OW48761   3.547   4.401   2.447
48955SOL    HW148762   3.544   4.469   2.515
48955SOL    HW248763   3.638   4.371   2.448
48956SOL     OW48764   8.795   7.716  10.947
48956SOL    HW148765   8.714   7.737  10.901
48956SOL    HW248766   8.862   7.767  10.901
48957SOL     OW48767   3.301   2.623   0.708
48957SOL    HW148768   3.262   2.621   0.795
48957SOL    HW248769   3.385   2.667   0.720
48958SOL     OW48770   5.923   9.823   0.049
48958SOL    HW148771   6.011   9.794   0.024
48958SOL    HW248772   5.910   9.904  14.868
48959SOL     OW48773   7.369   9.675   1.719
48959SOL    HW148774   7.425   9.721   1.781
48959SOL    HW248775   7.421   9.671   1.638
48960SOL     OW48776   7.189   1.599  10.380
48960SOL    HW148777   7.180   1.634  10.469
48960SOL    HW248778   7.114   1.539  10.370
48961SOL     OW48779   2.317   1.812   8.325
48961SOL    HW148780   2.267   1.754   8.384
48961SOL    HW248781   2.258   1.886   8.310
48962SOL     OW48782  12.269  12.892   1.845
48962SOL    HW148783  12.286  12.976   1.803
48962SOL    HW248784  12.258  12.831   1.772
48963SOL     OW48785   6.568   8.115   4.084
48963SOL    HW148786   6.483   8.078   4.109
48963SOL    HW248787   6.596   8.063   4.008
48964SOL     OW48788  10.362   6.252   3.940
48964SOL    HW148789  10.406   6.307   4.005
48964SOL    HW248790  10.418   6.257   3.863
48965SOL     OW48791  12.330  10.520   7.091
48965SOL    HW148792  12.380  10.471   7.156
48965SOL    HW248793  12.384  10.516   7.012
48966SOL     OW48794  14.569   6.980   6.119
48966SOL    HW148795  14.633   7.029   6.066
48966SOL    HW248796  14.490   7.035   6.117
48967SOL     OW48797   4.344   0.305   5.096
48967SOL    HW148798   4.419   0.266   5.052
48967SOL    HW248799   4.381   0.374   5.151
48968SOL     OW48800   7.324   4.483  11.698
48968SOL    HW148801   7.285   4.549  11.640
48968SOL    HW248802   7.252   4.457  11.756
48969SOL     OW48803   4.826  14.403   4.643
48969SOL    HW148804   4.851  14.429   4.555
48969SOL    HW248805   4.890  14.446   4.700
48970SOL     OW48806  13.897  11.989   3.066
48970SOL    HW148807  13.935  11.926   3.128
48970SOL    HW248808  13.813  11.950   3.042
48971SOL     OW48809   7.942  10.768   6.392
48971SOL    HW148810   7.849  10.777   6.374
48971SOL    HW248811   7.956  10.817   6.473
48972SOL     OW48812   9.844  11.320   4.931
48972SOL    HW148813   9.847  11.247   4.994
48972SOL    HW248814   9.756  11.315   4.895
48973SOL     OW48815   5.343   1.595   1.122
48973SOL    HW148816   5.285   1.671   1.126
48973SOL    HW248817   5.422   1.629   1.080
48974SOL     OW48818   8.694  13.448   8.583
48974SOL    HW148819   8.775  13.404   8.610
48974SOL    HW248820   8.655  13.389   8.518
48975SOL     OW48821   8.226   2.065   2.523
48975SOL    HW148822   8.305   2.093   2.568
48975SOL    HW248823   8.193   2.145   2.481
48976SOL     OW48824   3.749  10.868   3.136
48976SOL    HW148825   3.795  10.796   3.093
48976SOL    HW248826   3.766  10.856   3.230
48977SOL     OW48827   0.582   1.504  11.183
48977SOL    HW148828   0.543   1.507  11.095
48977SOL    HW248829   0.628   1.587  11.192
48978SOL     OW48830   2.077  14.220   3.009
48978SOL    HW148831   2.016  14.149   3.031
48978SOL    HW248832   2.156  14.200   3.060
48979SOL     OW48833  11.476   6.937   1.675
48979SOL    HW148834  11.502   6.867   1.615
48979SOL    HW248835  11.478   6.896   1.761
48980SOL     OW48836  12.172  14.565   0.014
48980SOL    HW148837  12.235  14.507  14.840
48980SOL    HW248838  12.092  14.555  14.830
48981SOL     OW48839   7.239   4.374   8.261
48981SOL    HW148840   7.274   4.384   8.172
48981SOL    HW248841   7.283   4.443   8.312
48982SOL     OW48842   7.972   4.147   0.520
48982SOL    HW148843   7.958   4.103   0.604
48982SOL    HW248844   7.893   4.128   0.469
48983SOL     OW48845  12.601  10.062   6.265
48983SOL    HW148846  12.542   9.986   6.263
48983SOL    HW248847  12.686  10.027   6.241
48984SOL     OW48848   7.342   3.051  10.357
48984SOL    HW148849   7.282   2.994  10.406
48984SOL    HW248850   7.339   3.018  10.268
48985SOL     OW48851   8.214   8.068   6.204
48985SOL    HW148852   8.152   8.099   6.269
48985SOL    HW248853   8.251   7.988   6.242
48986SOL     OW48854   9.931   3.618   5.966
48986SOL    HW148855  10.006   3.648   6.018
48986SOL    HW248856   9.857   3.668   6.000
48987SOL     OW48857   1.339   3.488  14.627
48987SOL    HW148858   1.301   3.575  14.613
48987SOL    HW248859   1.273   3.442  14.678
48988SOL     OW48860  11.071  14.105   3.222
48988SOL    HW148861  11.165  14.111   3.209
48988SOL    HW248862  11.049  14.015   3.194
48989SOL     OW48863   8.675   5.076   4.962
48989SOL    HW148864   8.672   5.042   5.052
48989SOL    HW248865   8.711   5.164   4.971
48990SOL     OW48866   0.970   9.575  11.315
48990SOL    HW148867   1.044   9.576  11.254
48990SOL    HW248868   0.991   9.505  11.377
48991SOL     OW48869  14.146   7.446  13.000
48991SOL    HW148870  14.172   7.380  13.064
48991SOL    HW248871  14.074   7.493  13.043
48992SOL     OW48872   2.151   0.839  13.442
48992SOL    HW148873   2.242   0.825  13.416
48992SOL    HW248874   2.102   0.834  13.360
48993SOL     OW48875   4.059   7.818   7.103
48993SOL    HW148876   4.103   7.746   7.150
48993SOL    HW248877   4.109   7.827   7.021
48994SOL     OW48878  13.962   2.551  14.304
48994SOL    HW148879  13.954   2.579  14.395
48994SOL    HW248880  13.923   2.464  14.302
48995SOL     OW48881   3.589  13.992   1.787
48995SOL    HW148882   3.644  14.058   1.745
48995SOL    HW248883   3.617  13.909   1.747
48996SOL     OW48884   5.353  12.947   7.463
48996SOL    HW148885   5.448  12.947   7.478
48996SOL    HW248886   5.327  13.038   7.469
48997SOL     OW48887  12.182   0.884   7.703
48997SOL    HW148888  12.125   0.922   7.770
48997SOL    HW248889  12.157   0.792   7.700
48998SOL     OW48890   3.778  13.929   4.953
48998SOL    HW148891   3.748  13.933   4.862
48998SOL    HW248892   3.870  13.902   4.946
48999SOL     OW48893   2.280   4.454  12.819
48999SOL    HW148894   2.309   4.390  12.754
48999SOL    HW248895   2.189   4.430  12.837
49000SOL     OW48896   7.160   8.502  12.544
49000SOL    HW148897   7.070   8.478  12.563
49000SOL    HW248898   7.194   8.535  12.627
49001SOL     OW48899  11.820   3.494   3.707
49001SOL    HW148900  11.797   3.520   3.796
49001SOL    HW248901  11.876   3.565   3.675
49002SOL     OW48902   0.494  11.760   0.204
49002SOL    HW148903   0.509  11.787   0.295
49002SOL    HW248904   0.442  11.831   0.167
49003SOL     OW48905   2.664   9.256   1.307
49003SOL    HW148906   2.682   9.185   1.369
49003SOL    HW248907   2.749   9.298   1.294
49004SOL     OW48908  11.922   9.433   1.454
49004SOL    HW148909  12.000   9.479   1.486
49004SOL    HW248910  11.952   9.387   1.375
49005SOL     OW48911   6.036   1.759   1.640
49005SOL    HW148912   5.970   1.740   1.707
49005SOL    HW248913   6.073   1.673   1.619
49006SOL     OW48914  11.157   3.486  12.068
49006SOL    HW148915  11.225   3.431  12.029
49006SOL    HW248916  11.185   3.576  12.047
49007SOL     OW48917   5.914  12.362  11.946
49007SOL    HW148918   5.887  12.271  11.942
49007SOL    HW248919   5.988  12.368  11.886
49008SOL     OW48920  10.305   4.278  13.019
49008SOL    HW148921  10.319   4.367  12.988
49008SOL    HW248922  10.350   4.275  13.103
49009SOL     OW48923   2.325  13.319   6.408
49009SOL    HW148924   2.374  13.237   6.403
49009SOL    HW248925   2.354  13.360   6.489
49010SOL     OW48926   6.411  10.545  10.768
49010SOL    HW148927   6.422  10.618  10.829
49010SOL    HW248928   6.317  10.529  10.765
49011SOL     OW48929   4.242   2.211   6.524
49011SOL    HW148930   4.179   2.263   6.575
49011SOL    HW248931   4.202   2.206   6.436
49012SOL     OW48932   4.429   1.875   9.522
49012SOL    HW148933   4.392   1.952   9.479
49012SOL    HW248934   4.489   1.838   9.458
49013SOL     OW48935   2.618   6.431   3.569
49013SOL    HW148936   2.562   6.473   3.635
49013SOL    HW248937   2.668   6.366   3.618
49014SOL     OW48938   7.443   7.685   5.071
49014SOL    HW148939   7.374   7.653   5.013
49014SOL    HW248940   7.491   7.607   5.097
49015SOL     OW48941   8.261  12.651   5.233
49015SOL    HW148942   8.316  12.723   5.265
49015SOL    HW248943   8.319  12.603   5.173
49016SOL     OW48944  10.402   9.242   9.618
49016SOL    HW148945  10.348   9.245   9.539
49016SOL    HW248946  10.480   9.193   9.593
49017SOL     OW48947   4.128   1.475   0.166
49017SOL    HW148948   4.216   1.440   0.158
49017SOL    HW248949   4.094   1.474   0.076
49018SOL     OW48950   4.558  12.871   1.462
49018SOL    HW148951   4.541  12.860   1.555
49018SOL    HW248952   4.589  12.785   1.433
49019SOL     OW48953   7.663   7.752   4.295
49019SOL    HW148954   7.656   7.669   4.247
49019SOL    HW248955   7.612   7.814   4.244
49020SOL     OW48956   9.275  11.744   8.606
49020SOL    HW148957   9.266  11.664   8.555
49020SOL    HW248958   9.359  11.781   8.578
49021SOL     OW48959   1.614   8.662   8.164
49021SOL    HW148960   1.552   8.641   8.233
49021SOL    HW248961   1.615   8.758   8.161
49022SOL     OW48962  11.287  13.872   7.020
49022SOL    HW148963  11.345  13.927   7.072
49022SOL    HW248964  11.208  13.925   7.008
49023SOL     OW48965  13.976   6.986   2.155
49023SOL    HW148966  13.944   6.927   2.223
49023SOL    HW248967  14.056   7.024   2.193
49024SOL     OW48968   4.573  14.746   9.341
49024SOL    HW148969   4.657  14.739   9.386
49024SOL    HW248970   4.540  14.657   9.338
49025SOL     OW48971   8.983  12.267  10.583
49025SOL    HW148972   8.984  12.266  10.488
49025SOL    HW248973   8.891  12.250  10.606
49026SOL     OW48974  10.909   0.830  13.336
49026SOL    HW148975  10.974   0.846  13.405
49026SOL    HW248976  10.960   0.824  13.256
49027SOL     OW48977   1.515   8.480  12.703
49027SOL    HW148978   1.467   8.403  12.733
49027SOL    HW248979   1.590   8.444  12.654
49028SOL     OW48980   7.525   1.968  14.610
49028SOL    HW148981   7.578   1.963  14.689
49028SOL    HW248982   7.460   1.898  14.620
49029SOL     OW48983   0.669   7.843   0.052
49029SOL    HW148984   0.707   7.906   0.113
49029SOL    HW248985   0.578   7.871   0.043
49030SOL     OW48986  10.725   7.696   9.387
49030SOL    HW148987  10.665   7.751   9.437
49030SOL    HW248988  10.689   7.697   9.298
49031SOL     OW48989   1.633   5.334   5.665
49031SOL    HW148990   1.620   5.286   5.747
49031SOL    HW248991   1.574   5.409   5.672
49032SOL     OW48992   4.074  11.203  14.390
49032SOL    HW148993   4.022  11.243  14.460
49032SOL    HW248994   4.015  11.139  14.349
49033SOL     OW48995   8.757   8.644   8.881
49033SOL    HW148996   8.708   8.570   8.845
49033SOL    HW248997   8.690   8.704   8.914
49034SOL     OW48998   4.381   7.355  11.804
49034SOL    HW148999   4.414   7.407  11.731
49034SOL    HW249000   4.286   7.354  11.792
49035SOL     OW49001   8.624  13.653   7.966
49035SOL    HW149002   8.575  13.615   7.893
49035SOL    HW249003   8.611  13.592   8.038
49036SOL     OW49004  11.111  11.068  10.243
49036SOL    HW149005  11.123  11.015  10.321
49036SOL    HW249006  11.078  11.007  10.177
49037SOL     OW49007   6.219   6.881  10.816
49037SOL    HW149008   6.264   6.835  10.886
49037SOL    HW249009   6.253   6.971  10.820
49038SOL     OW49010   8.975   7.582   0.768
49038SOL    HW149011   8.962   7.674   0.744
49038SOL    HW249012   8.899   7.560   0.822
49039SOL     OW49013   8.528   2.426   3.398
49039SOL    HW149014   8.616   2.433   3.360
49039SOL    HW249015   8.539   2.370   3.475
49040SOL     OW49016   4.258  13.485  11.330
49040SOL    HW149017   4.234  13.565  11.283
49040SOL    HW249018   4.350  13.499  11.355
49041SOL     OW49019   5.617   1.762  11.195
49041SOL    HW149020   5.667   1.830  11.150
49041SOL    HW249021   5.526   1.790  11.188
49042SOL     OW49022   3.463   6.322  13.952
49042SOL    HW149023   3.443   6.232  13.930
49042SOL    HW249024   3.463   6.368  13.869
49043SOL     OW49025   8.531   0.276   1.626
49043SOL    HW149026   8.491   0.314   1.704
49043SOL    HW249027   8.605   0.226   1.658
49044SOL     OW49028   4.612   3.445   8.988
49044SOL    HW149029   4.541   3.509   8.997
49044SOL    HW249030   4.632   3.419   9.078
49045SOL     OW49031   6.188  14.757   7.119
49045SOL    HW149032   6.114  14.708   7.083
49045SOL    HW249033   6.262  14.732   7.064
49046SOL     OW49034   1.010   6.992   6.152
49046SOL    HW149035   0.937   6.936   6.128
49046SOL    HW249036   1.005   7.066   6.091
49047SOL     OW49037   6.396   6.805  14.184
49047SOL    HW149038   6.329   6.760  14.132
49047SOL    HW249039   6.352   6.883  14.217
49048SOL     OW49040   7.660   0.597   7.591
49048SOL    HW149041   7.664   0.692   7.581
49048SOL    HW249042   7.743   0.573   7.632
49049SOL     OW49043   3.591   3.749  10.646
49049SOL    HW149044   3.601   3.750  10.551
49049SOL    HW249045   3.681   3.754  10.679
49050SOL     OW49046   2.547   9.119  12.514
49050SOL    HW149047   2.517   9.160  12.595
49050SOL    HW249048   2.472   9.067  12.484
49051SOL     OW49049   7.606  10.374  10.873
49051SOL    HW149050   7.547  10.342  10.805
49051SOL    HW249051   7.563  10.453  10.906
49052SOL     OW49052   5.453   4.090   2.241
49052SOL    HW149053   5.511   4.151   2.195
49052SOL    HW249054   5.503   4.009   2.248
49053SOL     OW49055   0.480   7.991   8.251
49053SOL    HW149056   0.425   7.999   8.174
49053SOL    HW249057   0.439   7.921   8.302
49054SOL     OW49058   9.227   7.179   7.798
49054SOL    HW149059   9.148   7.131   7.772
49054SOL    HW249060   9.204   7.271   7.786
49055SOL     OW49061   1.553   1.856   6.977
49055SOL    HW149062   1.567   1.891   7.065
49055SOL    HW249063   1.642   1.848   6.941
49056SOL     OW49064   0.168  13.437   5.642
49056SOL    HW149065   0.073  13.445   5.644
49056SOL    HW249066   0.198  13.475   5.725
49057SOL     OW49067   2.605   8.119  14.101
49057SOL    HW149068   2.619   8.030  14.070
49057SOL    HW249069   2.530   8.112  14.159
49058SOL     OW49070  11.573   5.541   8.390
49058SOL    HW149071  11.562   5.449   8.416
49058SOL    HW249072  11.646   5.540   8.328
49059SOL     OW49073   7.232  12.354  13.022
49059SOL    HW149074   7.180  12.293  13.074
49059SOL    HW249075   7.242  12.431  13.079
49060SOL     OW49076   7.486  13.486   2.865
49060SOL    HW149077   7.505  13.557   2.803
49060SOL    HW249078   7.534  13.509   2.944
49061SOL     OW49079  11.831  11.200   6.463
49061SOL    HW149080  11.918  11.235   6.440
49061SOL    HW249081  11.831  11.198   6.559
49062SOL     OW49082   0.005   7.349   5.250
49062SOL    HW149083  14.849   7.434   5.214
49062SOL    HW249084   0.011   7.290   5.174
49063SOL     OW49085   1.360  14.414  12.214
49063SOL    HW149086   1.282  14.463  12.240
49063SOL    HW249087   1.425  14.481  12.192
49064SOL     OW49088   1.862   1.750   1.698
49064SOL    HW149089   1.913   1.751   1.779
49064SOL    HW249090   1.925   1.724   1.630
49065SOL     OW49091   7.860   7.081   8.680
49065SOL    HW149092   7.811   7.150   8.724
49065SOL    HW249093   7.809   7.063   8.601
49066SOL     OW49094   6.441  14.650   3.262
49066SOL    HW149095   6.482  14.719   3.314
49066SOL    HW249096   6.376  14.611   3.321
49067SOL     OW49097  11.534   9.522  10.284
49067SOL    HW149098  11.460   9.479  10.242
49067SOL    HW249099  11.512   9.616  10.282
49068SOL     OW49100  13.416  13.990  10.013
49068SOL    HW149101  13.395  13.918   9.954
49068SOL    HW249102  13.410  14.069   9.959
49069SOL     OW49103  11.949  14.381   9.909
49069SOL    HW149104  11.882  14.443   9.936
49069SOL    HW249105  11.931  14.302   9.960
49070SOL     OW49106   3.711   1.204   1.396
49070SOL    HW149107   3.785   1.155   1.429
49070SOL    HW249108   3.728   1.213   1.302
49071SOL     OW49109   7.435   3.406   6.334
49071SOL    HW149110   7.407   3.470   6.399
49071SOL    HW249111   7.367   3.410   6.266
49072SOL     OW49112  11.702  12.183  13.723
49072SOL    HW149113  11.728  12.257  13.777
49072SOL    HW249114  11.613  12.203  13.694
49073SOL     OW49115   2.362   2.446  14.449
49073SOL    HW149116   2.386   2.444  14.357
49073SOL    HW249117   2.445   2.460  14.496
49074SOL     OW49118   3.211  14.844   0.676
49074SOL    HW149119   3.275  14.864   0.607
49074SOL    HW249120   3.126  14.857   0.634
49075SOL     OW49121  13.650   5.357  14.652
49075SOL    HW149122  13.560   5.327  14.647
49075SOL    HW249123  13.650   5.442  14.608
49076SOL     OW49124   1.342   2.073  10.473
49076SOL    HW149125   1.268   2.128  10.498
49076SOL    HW249126   1.368   2.030  10.555
49077SOL     OW49127   7.125   8.256  13.893
49077SOL    HW149128   7.101   8.347  13.910
49077SOL    HW249129   7.061   8.204  13.942
49078SOL     OW49130   8.395   8.260   7.608
49078SOL    HW149131   8.311   8.275   7.652
49078SOL    HW249132   8.382   8.180   7.557
49079SOL     OW49133   5.144  12.889  13.673
49079SOL    HW149134   5.074  12.928  13.725
49079SOL    HW249135   5.204  12.961  13.656
49080SOL     OW49136   3.869   3.454   1.619
49080SOL    HW149137   3.893   3.363   1.633
49080SOL    HW249138   3.922   3.482   1.544
49081SOL     OW49139   7.048   8.655  10.334
49081SOL    HW149140   7.047   8.562  10.313
49081SOL    HW249141   7.131   8.669  10.379
49082SOL     OW49142   0.083   8.622   3.583
49082SOL    HW149143   0.176   8.626   3.558
49082SOL    HW249144   0.040   8.587   3.505
49083SOL     OW49145   5.801   7.542   8.351
49083SOL    HW149146   5.819   7.503   8.437
49083SOL    HW249147   5.705   7.550   8.349
49084SOL     OW49148  13.011   5.546   6.009
49084SOL    HW149149  12.964   5.623   5.979
49084SOL    HW249150  12.946   5.493   6.055
49085SOL     OW49151   7.860   4.611  13.417
49085SOL    HW149152   7.798   4.653  13.358
49085SOL    HW249153   7.841   4.518  13.411
49086SOL     OW49154   4.185   6.958   0.695
49086SOL    HW149155   4.105   6.919   0.658
49086SOL    HW249156   4.233   6.884   0.732
49087SOL     OW49157   1.417   0.090   3.195
49087SOL    HW149158   1.459   0.009   3.225
49087SOL    HW249159   1.397   0.074   3.103
49088SOL     OW49160  10.670   2.593   1.172
49088SOL    HW149161  10.750   2.594   1.119
49088SOL    HW249162  10.696   2.552   1.254
49089SOL     OW49163   4.025   6.242  12.725
49089SOL    HW149164   3.984   6.160  12.696
49089SOL    HW249165   3.952   6.293  12.760
49090SOL     OW49166  14.317   2.397   0.814
49090SOL    HW149167  14.385   2.332   0.794
49090SOL    HW249168  14.314   2.399   0.909
49091SOL     OW49169   9.838   1.271   5.747
49091SOL    HW149170   9.822   1.337   5.814
49091SOL    HW249171   9.922   1.295   5.709
49092SOL     OW49172   8.975   7.093   4.825
49092SOL    HW149173   8.932   7.124   4.905
49092SOL    HW249174   9.067   7.115   4.838
49093SOL     OW49175   4.951   4.320   4.488
49093SOL    HW149176   5.041   4.291   4.472
49093SOL    HW249177   4.913   4.326   4.400
49094SOL     OW49178   6.120   3.261  12.818
49094SOL    HW149179   6.107   3.353  12.797
49094SOL    HW249180   6.212   3.255  12.845
49095SOL     OW49181  13.033   5.970   3.402
49095SOL    HW149182  13.011   5.956   3.310
49095SOL    HW249183  13.122   6.004   3.400
49096SOL     OW49184  14.585   2.392   8.974
49096SOL    HW149185  14.554   2.420   9.061
49096SOL    HW249186  14.508   2.402   8.918
49097SOL     OW49187  10.666   1.725  12.529
49097SOL    HW149188  10.623   1.644  12.500
49097SOL    HW249189  10.755   1.719  12.494
49098SOL     OW49190  13.445   6.063   7.732
49098SOL    HW149191  13.485   6.043   7.817
49098SOL    HW249192  13.438   5.978   7.688
49099SOL     OW49193  11.160   6.364  13.269
49099SOL    HW149194  11.243   6.318  13.281
49099SOL    HW249195  11.140   6.400  13.355
49100SOL     OW49196   3.334   5.047   9.196
49100SOL    HW149197   3.396   5.118   9.179
49100SOL    HW249198   3.270   5.084   9.256
49101SOL     OW49199  14.596   1.448   3.868
49101SOL    HW149200  14.664   1.427   3.804
49101SOL    HW249201  14.644   1.478   3.945
49102SOL     OW49202   2.615  12.503  10.067
49102SOL    HW149203   2.519  12.504  10.074
49102SOL    HW249204   2.645  12.496  10.158
49103SOL     OW49205   3.923   2.978   6.796
49103SOL    HW149206   3.910   2.918   6.870
49103SOL    HW249207   3.968   2.926   6.730
49104SOL     OW49208  11.774   4.481   4.183
49104SOL    HW149209  11.727   4.489   4.266
49104SOL    HW249210  11.729   4.409   4.137
49105SOL     OW49211   7.415   4.523   4.809
49105SOL    HW149212   7.352   4.511   4.880
49105SOL    HW249213   7.428   4.617   4.804
49106SOL     OW49214  11.817   7.230   0.544
49106SOL    HW149215  11.796   7.323   0.533
49106SOL    HW249216  11.908   7.222   0.515
49107SOL     OW49217  14.600  13.731  11.538
49107SOL    HW149218  14.608  13.811  11.590
49107SOL    HW249219  14.560  13.759  11.456
49108SOL     OW49220   3.055  14.500   5.190
49108SOL    HW149221   3.112  14.575   5.208
49108SOL    HW249222   3.067  14.481   5.097
49109SOL     OW49223   2.240   2.123   5.237
49109SOL    HW149224   2.240   2.052   5.302
49109SOL    HW249225   2.233   2.078   5.152
49110SOL     OW49226   2.765   9.880   8.573
49110SOL    HW149227   2.763   9.973   8.552
49110SOL    HW249228   2.858   9.856   8.567
49111SOL     OW49229  14.604   4.182  12.941
49111SOL    HW149230  14.618   4.176  12.847
49111SOL    HW249231  14.687   4.212  12.977
49112SOL     OW49232  11.708  10.258   7.012
49112SOL    HW149233  11.686  10.319   6.943
49112SOL    HW249234  11.789  10.293   7.051
49113SOL     OW49235  11.117   8.286   1.775
49113SOL    HW149236  11.125   8.305   1.682
49113SOL    HW249237  11.120   8.372   1.817
49114SOL     OW49238   9.067   5.699   9.363
49114SOL    HW149239   9.120   5.619   9.359
49114SOL    HW249240   9.036   5.712   9.274
49115SOL     OW49241   6.587   4.000   2.181
49115SOL    HW149242   6.624   3.986   2.268
49115SOL    HW249243   6.512   3.941   2.178
49116SOL     OW49244   2.291   5.454   9.013
49116SOL    HW149245   2.279   5.379   8.954
49116SOL    HW249246   2.383   5.479   9.000
49117SOL     OW49247   1.972   5.722  10.609
49117SOL    HW149248   1.957   5.627  10.608
49117SOL    HW249249   2.066   5.731  10.626
49118SOL     OW49250   0.052   5.369  11.718
49118SOL    HW149251   0.073   5.455  11.681
49118SOL    HW249252   0.067   5.308  11.646
49119SOL     OW49253  11.053   5.891   1.063
49119SOL    HW149254  11.118   5.946   1.108
49119SOL    HW249255  11.067   5.803   1.098
49120SOL     OW49256  11.946  13.113   3.036
49120SOL    HW149257  11.940  13.132   3.130
49120SOL    HW249258  11.992  13.189   3.000
49121SOL     OW49259   3.606   7.141  10.507
49121SOL    HW149260   3.616   7.225  10.462
49121SOL    HW249261   3.626   7.076  10.441
49122SOL     OW49262   2.582   1.631   9.885
49122SOL    HW149263   2.556   1.623   9.793
49122SOL    HW249264   2.676   1.610   9.885
49123SOL     OW49265  14.702   4.200   9.642
49123SOL    HW149266  14.751   4.231   9.718
49123SOL    HW249267  14.760   4.216   9.567
49124SOL     OW49268   3.702   9.740   9.660
49124SOL    HW149269   3.791   9.737   9.695
49124SOL    HW249270   3.654   9.795   9.722
49125SOL     OW49271  13.195  12.732   8.290
49125SOL    HW149272  13.121  12.673   8.303
49125SOL    HW249273  13.267  12.676   8.264
49126SOL     OW49274   7.892   2.334  10.380
49126SOL    HW149275   7.968   2.322  10.437
49126SOL    HW249276   7.844   2.251  10.386
49127SOL     OW49277   2.510  11.916  10.665
49127SOL    HW149278   2.437  11.855  10.677
49127SOL    HW249279   2.485  11.969  10.589
49128SOL     OW49280  14.472   7.882  10.446
49128SOL    HW149281  14.562   7.912  10.434
49128SOL    HW249282  14.444   7.853  10.359
49129SOL     OW49283   4.451   7.925   4.810
49129SOL    HW149284   4.473   7.952   4.899
49129SOL    HW249285   4.452   8.006   4.759
49130SOL     OW49286   0.126  13.871  14.187
49130SOL    HW149287   0.182  13.810  14.235
49130SOL    HW249288   0.037  13.850  14.214
49131SOL     OW49289   2.123  12.422   2.893
49131SOL    HW149290   2.127  12.411   2.987
49131SOL    HW249291   2.082  12.342   2.860
49132SOL     OW49292   2.947  12.952   3.854
49132SOL    HW149293   2.918  12.899   3.928
49132SOL    HW249294   2.866  12.981   3.812
49133SOL     OW49295   2.841   6.340   2.111
49133SOL    HW149296   2.822   6.315   2.201
49133SOL    HW249297   2.754   6.354   2.071
49134SOL     OW49298  11.402   3.231   1.269
49134SOL    HW149299  11.423   3.312   1.315
49134SOL    HW249300  11.373   3.171   1.339
49135SOL     OW49301   3.152   2.201   3.416
49135SOL    HW149302   3.093   2.132   3.386
49135SOL    HW249303   3.126   2.278   3.365
49136SOL     OW49304  11.394   6.060  14.590
49136SOL    HW149305  11.454   6.126  14.622
49136SOL    HW249306  11.345   6.103  14.520
49137SOL     OW49307  14.484   7.086  10.275
49137SOL    HW149308  14.561   7.131  10.311
49137SOL    HW249309  14.488   6.998  10.312
49138SOL     OW49310   7.389  12.869   1.019
49138SOL    HW149311   7.391  12.903   1.109
49138SOL    HW249312   7.305  12.825   1.011
49139SOL     OW49313   4.133  12.430   0.224
49139SOL    HW149314   4.038  12.437   0.211
49139SOL    HW249315   4.166  12.515   0.197
49140SOL     OW49316   4.872   7.634  12.543
49140SOL    HW149317   4.965   7.623  12.526
49140SOL    HW249318   4.829   7.583  12.474
49141SOL     OW49319  13.680  10.434   4.004
49141SOL    HW149320  13.731  10.384   4.069
49141SOL    HW249321  13.639  10.504   4.055
49142SOL     OW49322   6.209  11.244   8.604
49142SOL    HW149323   6.154  11.168   8.589
49142SOL    HW249324   6.152  11.319   8.588
49143SOL     OW49325  12.800   3.424   6.128
49143SOL    HW149326  12.803   3.423   6.032
49143SOL    HW249327  12.758   3.341   6.152
49144SOL     OW49328   4.001  11.170   4.986
49144SOL    HW149329   4.076  11.190   4.931
49144SOL    HW249330   3.939  11.126   4.927
49145SOL     OW49331   6.762   1.227   1.267
49145SOL    HW149332   6.807   1.245   1.350
49145SOL    HW249333   6.755   1.132   1.264
49146SOL     OW49334  10.456   5.956   3.997
49146SOL    HW149335  10.403   6.018   4.047
49146SOL    HW249336  10.421   5.870   4.020
49147SOL     OW49337   8.732  11.287   0.846
49147SOL    HW149338   8.645  11.291   0.805
49147SOL    HW249339   8.730  11.357   0.911
49148SOL     OW49340   0.815   8.227   4.175
49148SOL    HW149341   0.862   8.146   4.156
49148SOL    HW249342   0.793   8.263   4.089
49149SOL     OW49343   8.803   7.380  10.301
49149SOL    HW149344   8.730   7.423  10.258
49149SOL    HW249345   8.794   7.288  10.278
49150SOL     OW49346   1.622   0.310   2.468
49150SOL    HW149347   1.696   0.250   2.484
49150SOL    HW249348   1.545   0.254   2.474
49151SOL     OW49349   4.209  11.345  12.225
49151SOL    HW149350   4.298  11.378  12.214
49151SOL    HW249351   4.220  11.256  12.257
49152SOL     OW49352   5.617  10.211  11.979
49152SOL    HW149353   5.706  10.208  11.943
49152SOL    HW249354   5.567  10.148  11.927
49153SOL     OW49355   6.286   2.162   0.277
49153SOL    HW149356   6.224   2.098   0.242
49153SOL    HW249357   6.232   2.221   0.329
49154SOL     OW49358  11.726  10.150   4.951
49154SOL    HW149359  11.793  10.197   4.902
49154SOL    HW249360  11.649  10.151   4.893
49155SOL     OW49361  10.024   3.539  14.102
49155SOL    HW149362  10.083   3.476  14.061
49155SOL    HW249363  10.050   3.540  14.194
49156SOL     OW49364  13.348   3.144   4.925
49156SOL    HW149365  13.382   3.216   4.978
49156SOL    HW249366  13.426   3.102   4.889
49157SOL     OW49367   8.541   7.987   7.814
49157SOL    HW149368   8.484   7.912   7.823
49157SOL    HW249369   8.497   8.058   7.860
49158SOL     OW49370   2.730   9.507  10.085
49158SOL    HW149371   2.819   9.524  10.115
49158SOL    HW249372   2.741   9.464  10.000
49159SOL     OW49373   0.168  14.135  12.325
49159SOL    HW149374   0.135  14.105  12.409
49159SOL    HW249375   0.263  14.135  12.335
49160SOL     OW49376   9.898   6.360   9.105
49160SOL    HW149377   9.863   6.442   9.070
49160SOL    HW249378   9.992   6.364   9.086
49161SOL     OW49379   6.999  13.941   9.020
49161SOL    HW149380   6.907  13.957   9.041
49161SOL    HW249381   7.042  14.025   9.032
49162SOL     OW49382  10.446  12.194   6.641
49162SOL    HW149383  10.400  12.238   6.569
49162SOL    HW249384  10.501  12.128   6.598
49163SOL     OW49385  12.551   2.583   0.775
49163SOL    HW149386  12.525   2.612   0.863
49163SOL    HW249387  12.599   2.502   0.790
49164SOL     OW49388   6.850   7.396   9.453
49164SOL    HW149389   6.928   7.341   9.445
49164SOL    HW249390   6.876   7.465   9.514
49165SOL     OW49391   5.778  13.004   3.383
49165SOL    HW149392   5.723  12.997   3.461
49165SOL    HW249393   5.803  12.914   3.364
49166SOL     OW49394   1.793   3.658  10.440
49166SOL    HW149395   1.884   3.635  10.424
49166SOL    HW249396   1.760   3.588  10.497
49167SOL     OW49397   8.614  12.951  11.658
49167SOL    HW149398   8.639  13.031  11.612
49167SOL    HW249399   8.541  12.916  11.607
49168SOL     OW49400  13.730   6.394   6.525
49168SOL    HW149401  13.754   6.485   6.541
49168SOL    HW249402  13.636   6.389   6.546
49169SOL     OW49403  13.413   5.092   9.004
49169SOL    HW149404  13.349   5.101   9.075
49169SOL    HW249405  13.492   5.136   9.037
49170SOL     OW49406   6.658   7.216   3.257
49170SOL    HW149407   6.625   7.128   3.241
49170SOL    HW249408   6.614   7.244   3.337
49171SOL     OW49409   9.695   6.614   9.900
49171SOL    HW149410   9.651   6.645   9.821
49171SOL    HW249411   9.733   6.530   9.875
49172SOL     OW49412  11.528  12.150   1.083
49172SOL    HW149413  11.436  12.147   1.058
49172SOL    HW249414  11.535  12.093   1.160
49173SOL     OW49415   1.439   1.638  10.342
49173SOL    HW149416   1.382   1.704  10.382
49173SOL    HW249417   1.527   1.678  10.345
49174SOL     OW49418   1.443   8.813   5.996
49174SOL    HW149419   1.471   8.834   5.907
49174SOL    HW249420   1.483   8.728   6.014
49175SOL     OW49421   5.882   2.720   8.334
49175SOL    HW149422   5.863   2.634   8.296
49175SOL    HW249423   5.863   2.782   8.264
49176SOL     OW49424  14.576   0.062   0.097
49176SOL    HW149425  14.656   0.045   0.146
49176SOL    HW249426  14.508   0.066   0.164
49177SOL     OW49427   4.247  11.260  12.581
49177SOL    HW149428   4.223  11.190  12.642
49177SOL    HW249429   4.165  11.308  12.566
49178SOL     OW49430  10.062   9.457  10.530
49178SOL    HW149431  10.001   9.410  10.472
49178SOL    HW249432  10.143   9.407  10.526
49179SOL     OW49433   5.434   8.008   0.815
49179SOL    HW149434   5.492   8.073   0.776
49179SOL    HW249435   5.380   7.978   0.743
49180SOL     OW49436   8.710   2.322  11.229
49180SOL    HW149437   8.632   2.275  11.200
49180SOL    HW249438   8.783   2.278  11.185
49181SOL     OW49439  13.091  14.808   6.681
49181SOL    HW149440  13.182  14.791   6.656
49181SOL    HW249441  13.063  14.727   6.724
49182SOL     OW49442   7.145   5.929  13.538
49182SOL    HW149443   7.155   5.841  13.573
49182SOL    HW249444   7.099   5.977  13.606
49183SOL     OW49445  10.624  11.065   3.320
49183SOL    HW149446  10.620  10.995   3.384
49183SOL    HW249447  10.713  11.062   3.285
49184SOL     OW49448   8.683  14.285  14.011
49184SOL    HW149449   8.603  14.338  14.001
49184SOL    HW249450   8.718  14.278  13.923
49185SOL     OW49451  14.070   8.235   4.223
49185SOL    HW149452  14.014   8.287   4.281
49185SOL    HW249453  14.017   8.159   4.199
49186SOL     OW49454  12.155  12.338  11.916
49186SOL    HW149455  12.126  12.376  12.000
49186SOL    HW249456  12.190  12.252  11.939
49187SOL     OW49457  12.715   6.272   4.480
49187SOL    HW149458  12.679   6.227   4.557
49187SOL    HW249459  12.805   6.242   4.476
49188SOL     OW49460   2.317  11.231   8.588
49188SOL    HW149461   2.285  11.306   8.638
49188SOL    HW249462   2.266  11.232   8.508
49189SOL     OW49463   2.856  10.156   8.068
49189SOL    HW149464   2.888  10.133   7.981
49189SOL    HW249465   2.781  10.097   8.082
49190SOL     OW49466  14.510   3.993  11.579
49190SOL    HW149467  14.472   4.037  11.503
49190SOL    HW249468  14.436   3.949  11.620
49191SOL     OW49469   8.983   8.730  14.661
49191SOL    HW149470   9.027   8.807  14.624
49191SOL    HW249471   9.048   8.692  14.720
49192SOL     OW49472  10.865   2.080  12.596
49192SOL    HW149473  10.907   2.166  12.592
49192SOL    HW249474  10.790   2.092  12.654
49193SOL     OW49475  10.333   4.163  12.770
49193SOL    HW149476  10.303   4.207  12.850
49193SOL    HW249477  10.409   4.215  12.742
49194SOL     OW49478   8.786   1.722   7.842
49194SOL    HW149479   8.834   1.801   7.818
49194SOL    HW249480   8.777   1.673   7.760
49195SOL     OW49481  12.707   4.357   8.563
49195SOL    HW149482  12.774   4.292   8.587
49195SOL    HW249483  12.752   4.414   8.500
49196SOL     OW49484  14.616   6.827  10.012
49196SOL    HW149485  14.649   6.905   9.968
49196SOL    HW249486  14.522   6.842  10.019
49197SOL     OW49487  12.045   6.435  10.167
49197SOL    HW149488  12.089   6.490  10.232
49197SOL    HW249489  12.099   6.357  10.161
49198SOL     OW49490  13.039  12.331  12.336
49198SOL    HW149491  12.981  12.277  12.283
49198SOL    HW249492  12.981  12.384  12.390
49199SOL     OW49493   7.758  13.512   9.975
49199SOL    HW149494   7.741  13.418   9.980
49199SOL    HW249495   7.681  13.548   9.931
49200SOL     OW49496   5.694  12.900   6.135
49200SOL    HW149497   5.788  12.903   6.152
49200SOL    HW249498   5.653  12.911   6.221
49201SOL     OW49499   8.895   4.653  10.143
49201SOL    HW149500   8.978   4.676  10.183
49201SOL    HW249501   8.918   4.593  10.072
49202SOL     OW49502   6.695   0.288  12.875
49202SOL    HW149503   6.728   0.199  12.862
49202SOL    HW249504   6.671   0.291  12.968
49203SOL     OW49505   5.636   5.564   5.867
49203SOL    HW149506   5.652   5.564   5.772
49203SOL    HW249507   5.576   5.638   5.880
49204SOL     OW49508   2.418  13.054   0.548
49204SOL    HW149509   2.495  13.097   0.509
49204SOL    HW249510   2.431  13.063   0.643
49205SOL     OW49511   5.893   5.908  11.860
49205SOL    HW149512   5.879   6.003  11.850
49205SOL    HW249513   5.806   5.873  11.880
49206SOL     OW49514  13.937   0.260   8.662
49206SOL    HW149515  13.874   0.231   8.729
49206SOL    HW249516  13.993   0.322   8.708
49207SOL     OW49517   9.260  14.528   2.749
49207SOL    HW149518   9.171  14.561   2.734
49207SOL    HW249519   9.256  14.485   2.834
49208SOL     OW49520   3.169   8.620   3.626
49208SOL    HW149521   3.161   8.580   3.713
49208SOL    HW249522   3.095   8.679   3.620
49209SOL     OW49523  10.005   4.434   9.222
49209SOL    HW149524  10.092   4.440   9.184
49209SOL    HW249525  10.013   4.479   9.307
49210SOL     OW49526   6.206   9.280  12.749
49210SOL    HW149527   6.254   9.302  12.669
49210SOL    HW249528   6.270   9.232  12.803
49211SOL     OW49529   7.493   3.129   6.077
49211SOL    HW149530   7.412   3.155   6.033
49211SOL    HW249531   7.466   3.056   6.133
49212SOL     OW49532  13.945   1.413   0.299
49212SOL    HW149533  13.870   1.454   0.344
49212SOL    HW249534  14.021   1.442   0.349
49213SOL     OW49535   8.463  14.039  14.795
49213SOL    HW149536   8.376  14.001  14.800
49213SOL    HW249537   8.448  14.133  14.784
49214SOL     OW49538   0.257   2.070   6.441
49214SOL    HW149539   0.221   1.989   6.477
49214SOL    HW249540   0.186   2.133   6.448
49215SOL     OW49541   0.427   9.492   8.769
49215SOL    HW149542   0.512   9.450   8.754
49215SOL    HW249543   0.393   9.450   8.848
49216SOL     OW49544  14.253  10.205   9.373
49216SOL    HW149545  14.220  10.295   9.378
49216SOL    HW249546  14.345  10.214   9.347
49217SOL     OW49547   3.815   1.467   5.012
49217SOL    HW149548   3.750   1.480   4.943
49217SOL    HW249549   3.763   1.459   5.092
49218SOL     OW49550   7.682  12.620  13.862
49218SOL    HW149551   7.745  12.670  13.809
49218SOL    HW249552   7.599  12.634  13.817
49219SOL     OW49553   5.625  13.423   3.424
49219SOL    HW149554   5.637  13.518   3.420
49219SOL    HW249555   5.530  13.412   3.436
49220SOL     OW49556  10.856  12.807   3.469
49220SOL    HW149557  10.885  12.732   3.522
49220SOL    HW249558  10.817  12.767   3.391
49221SOL     OW49559  14.504  14.632   4.757
49221SOL    HW149560  14.536  14.543   4.768
49221SOL    HW249561  14.557  14.685   4.816
49222SOL     OW49562   8.629   8.616   6.235
49222SOL    HW149563   8.626   8.608   6.330
49222SOL    HW249564   8.565   8.553   6.203
49223SOL     OW49565  14.100   0.673   7.918
49223SOL    HW149566  14.084   0.635   7.832
49223SOL    HW249567  14.039   0.746   7.924
49224SOL     OW49568   9.823   4.786  12.048
49224SOL    HW149569   9.813   4.789  12.143
49224SOL    HW249570   9.739   4.754  12.016
49225SOL     OW49571   6.453  13.282   8.875
49225SOL    HW149572   6.420  13.254   8.960
49225SOL    HW249573   6.409  13.364   8.858
49226SOL     OW49574  10.982   8.082   5.248
49226SOL    HW149575  10.942   8.162   5.212
49226SOL    HW249576  11.020   8.039   5.171
49227SOL     OW49577   2.068   1.116  11.196
49227SOL    HW149578   2.021   1.039  11.227
49227SOL    HW249579   2.054   1.117  11.101
49228SOL     OW49580   2.814   7.009  11.750
49228SOL    HW149581   2.759   6.933  11.770
49228SOL    HW249582   2.757   7.085  11.766
49229SOL     OW49583   4.334   4.842   4.309
49229SOL    HW149584   4.384   4.766   4.279
49229SOL    HW249585   4.293   4.876   4.230
49230SOL     OW49586  13.329   5.813   3.211
49230SOL    HW149587  13.418   5.840   3.190
49230SOL    HW249588  13.333   5.787   3.303
49231SOL     OW49589   1.610  13.876   1.373
49231SOL    HW149590   1.566  13.805   1.419
49231SOL    HW249591   1.699  13.843   1.357
49232SOL     OW49592   9.503   6.349   2.861
49232SOL    HW149593   9.504   6.305   2.776
49232SOL    HW249594   9.478   6.281   2.923
49233SOL     OW49595  10.263   4.228   0.823
49233SOL    HW149596  10.343   4.281   0.829
49233SOL    HW249597  10.292   4.139   0.845
49234SOL     OW49598  12.136   9.771  10.187
49234SOL    HW149599  12.114   9.794  10.278
49234SOL    HW249600  12.086   9.833  10.134
49235SOL     OW49601   2.054  13.603   6.642
49235SOL    HW149602   1.966  13.628   6.613
49235SOL    HW249603   2.106  13.599   6.562
49236SOL     OW49604   8.863   5.123   3.084
49236SOL    HW149605   8.855   5.048   3.025
49236SOL    HW249606   8.821   5.095   3.165
49237SOL     OW49607   3.031   0.515  11.039
49237SOL    HW149608   3.062   0.502  11.129
49237SOL    HW249609   2.935   0.521  11.048
49238SOL     OW49610  13.757   3.769   9.924
49238SOL    HW149611  13.843   3.797   9.894
49238SOL    HW249612  13.772   3.687   9.970
49239SOL     OW49613   0.100   6.764   6.577
49239SOL    HW149614   0.144   6.680   6.571
49239SOL    HW249615   0.009   6.742   6.598
49240SOL     OW49616   2.888  11.493   4.811
49240SOL    HW149617   2.908  11.404   4.783
49240SOL    HW249618   2.839  11.531   4.738
49241SOL     OW49619   0.272   3.331   4.286
49241SOL    HW149620   0.353   3.317   4.335
49241SOL    HW249621   0.239   3.243   4.269
49242SOL     OW49622   2.833   3.848   8.197
49242SOL    HW149623   2.810   3.896   8.277
49242SOL    HW249624   2.926   3.869   8.183
49243SOL     OW49625   5.068   5.365   1.668
49243SOL    HW149626   5.043   5.429   1.734
49243SOL    HW249627   5.056   5.410   1.585
49244SOL     OW49628   9.921  12.811  12.178
49244SOL    HW149629   9.984  12.748  12.143
49244SOL    HW249630   9.961  12.897  12.161
49245SOL     OW49631   5.762   1.733   8.868
49245SOL    HW149632   5.807   1.729   8.784
49245SOL    HW249633   5.780   1.821   8.901
49246SOL     OW49634   1.616   5.393  11.864
49246SOL    HW149635   1.683   5.362  11.804
49246SOL    HW249636   1.660   5.400  11.949
49247SOL     OW49637   0.470  11.294   7.509
49247SOL    HW149638   0.539  11.260   7.566
49247SOL    HW249639   0.447  11.220   7.454
49248SOL     OW49640   5.292  10.570   4.496
49248SOL    HW149641   5.223  10.511   4.526
49248SOL    HW249642   5.335  10.524   4.424
49249SOL     OW49643  13.625  12.421   8.026
49249SOL    HW149644  13.706  12.462   7.995
49249SOL    HW249645  13.574  12.406   7.946
49250SOL     OW49646   1.137   0.998   3.935
49250SOL    HW149647   1.171   0.914   3.905
49250SOL    HW249648   1.140   0.992   4.031
49251SOL     OW49649   8.534   2.674  11.580
49251SOL    HW149650   8.629   2.679  11.564
49251SOL    HW249651   8.520   2.729  11.657
49252SOL     OW49652   5.847   1.584  12.028
49252SOL    HW149653   5.888   1.504  11.994
49252SOL    HW249654   5.883   1.654  11.972
49253SOL     OW49655   9.945  12.620   2.222
49253SOL    HW149656   9.853  12.595   2.226
49253SOL    HW249657   9.943  12.715   2.207
49254SOL     OW49658   1.178   5.184  13.127
49254SOL    HW149659   1.118   5.124  13.172
49254SOL    HW249660   1.203   5.137  13.048
49255SOL     OW49661  13.111   5.556  10.152
49255SOL    HW149662  13.071   5.643  10.151
49255SOL    HW249663  13.203   5.573  10.128
49256SOL     OW49664   1.478   7.142   2.100
49256SOL    HW149665   1.408   7.095   2.054
49256SOL    HW249666   1.464   7.234   2.077
49257SOL     OW49667  11.481   9.723  12.012
49257SOL    HW149668  11.518   9.755  12.094
49257SOL    HW249669  11.555   9.684  11.965
49258SOL     OW49670  13.996   3.245   8.590
49258SOL    HW149671  13.900   3.249   8.587
49258SOL    HW249672  14.015   3.202   8.673
49259SOL     OW49673   2.032   9.525  14.402
49259SOL    HW149674   1.958   9.504  14.459
49259SOL    HW249675   2.109   9.498  14.451
49260SOL     OW49676   2.044   9.549   5.770
49260SOL    HW149677   2.088   9.501   5.840
49260SOL    HW249678   2.103   9.622   5.751
49261SOL     OW49679  13.979  10.635  14.337
49261SOL    HW149680  14.057  10.579  14.333
49261SOL    HW249681  13.917  10.594  14.277
49262SOL     OW49682  14.228  13.203   3.972
49262SOL    HW149683  14.213  13.287   3.929
49262SOL    HW249684  14.312  13.213   4.016
49263SOL     OW49685   3.280   1.285   3.427
49263SOL    HW149686   3.271   1.233   3.347
49263SOL    HW249687   3.374   1.301   3.436
49264SOL     OW49688  11.824   9.474   4.318
49264SOL    HW149689  11.905   9.422   4.318
49264SOL    HW249690  11.755   9.411   4.300
49265SOL     OW49691   7.761   8.389   9.341
49265SOL    HW149692   7.825   8.340   9.290
49265SOL    HW249693   7.802   8.474   9.357
49266SOL     OW49694   0.204  12.295   1.358
49266SOL    HW149695   0.268  12.226   1.339
49266SOL    HW249696   0.125  12.248   1.383
49267SOL     OW49697   5.697  14.760   6.940
49267SOL    HW149698   5.678  14.820   7.013
49267SOL    HW249699   5.739  14.815   6.874
49268SOL     OW49700  11.003   4.317   5.640
49268SOL    HW149701  10.959   4.276   5.566
49268SOL    HW249702  11.084   4.267   5.651
49269SOL     OW49703   2.173   8.789   7.824
49269SOL    HW149704   2.097   8.778   7.766
49269SOL    HW249705   2.212   8.872   7.795
49270SOL     OW49706   7.378   0.741   7.401
49270SOL    HW149707   7.391   0.765   7.493
49270SOL    HW249708   7.434   0.665   7.388
49271SOL     OW49709   1.266   8.031   2.132
49271SOL    HW149710   1.207   7.992   2.196
49271SOL    HW249711   1.294   7.958   2.077
49272SOL     OW49712   5.873   1.374   5.761
49272SOL    HW149713   5.821   1.453   5.746
49272SOL    HW249714   5.840   1.311   5.697
49273SOL     OW49715   2.053   5.811   8.843
49273SOL    HW149716   1.973   5.862   8.833
49273SOL    HW249717   2.122   5.876   8.854
49274SOL     OW49718  13.291   5.786   1.120
49274SOL    HW149719  13.242   5.868   1.136
49274SOL    HW249720  13.374   5.815   1.084
49275SOL     OW49721   8.496  13.341   6.725
49275SOL    HW149722   8.485  13.334   6.631
49275SOL    HW249723   8.565  13.278   6.747
49276SOL     OW49724  13.681   8.431   1.227
49276SOL    HW149725  13.599   8.421   1.276
49276SOL    HW249726  13.731   8.352   1.247
49277SOL     OW49727   5.902  13.685   3.918
49277SOL    HW149728   5.975  13.627   3.937
49277SOL    HW249729   5.827  13.645   3.962
49278SOL     OW49730  13.585   3.678  13.928
49278SOL    HW149731  13.606   3.768  13.901
49278SOL    HW249732  13.513   3.652  13.871
49279SOL     OW49733   3.346   2.148   6.005
49279SOL    HW149734   3.326   2.241   6.010
49279SOL    HW249735   3.270   2.109   5.962
49280SOL     OW49736   4.473   3.281   6.611
49280SOL    HW149737   4.555   3.235   6.595
49280SOL    HW249738   4.480   3.312   6.701
49281SOL     OW49739   0.940  12.924   8.149
49281SOL    HW149740   0.981  12.848   8.108
49281SOL    HW249741   1.014  12.979   8.175
49282SOL     OW49742   1.853   9.379  10.986
49282SOL    HW149743   1.905   9.406  11.061
49282SOL    HW249744   1.876   9.442  10.917
49283SOL     OW49745   7.339   0.324  12.564
49283SOL    HW149746   7.306   0.245  12.607
49283SOL    HW249747   7.260   0.367  12.531
49284SOL     OW49748  12.523  10.299   8.238
49284SOL    HW149749  12.606  10.346   8.232
49284SOL    HW249750  12.547  10.207   8.247
49285SOL     OW49751   1.722   9.988   5.161
49285SOL    HW149752   1.767  10.067   5.192
49285SOL    HW249753   1.759   9.917   5.214
49286SOL     OW49754   8.622   6.734   7.502
49286SOL    HW149755   8.709   6.724   7.541
49286SOL    HW249756   8.563   6.737   7.578
49287SOL     OW49757  13.900   4.131   0.820
49287SOL    HW149758  13.892   4.107   0.728
49287SOL    HW249759  13.983   4.179   0.825
49288SOL     OW49760   9.083   3.654   6.938
49288SOL    HW149761   9.014   3.587   6.935
49288SOL    HW249762   9.071   3.697   7.023
49289SOL     OW49763   7.434   4.546   1.688
49289SOL    HW149764   7.417   4.478   1.753
49289SOL    HW249765   7.528   4.540   1.670
49290SOL     OW49766   0.553   8.757   9.934
49290SOL    HW149767   0.554   8.755   9.838
49290SOL    HW249768   0.643   8.737   9.960
49291SOL     OW49769  10.069  11.985   6.972
49291SOL    HW149770  10.161  11.994   6.948
49291SOL    HW249771  10.026  11.951   6.893
49292SOL     OW49772   9.629   1.280   7.190
49292SOL    HW149773   9.601   1.194   7.159
49292SOL    HW249774   9.694   1.309   7.126
49293SOL     OW49775   7.815   1.912   9.084
49293SOL    HW149776   7.785   1.825   9.057
49293SOL    HW249777   7.742   1.948   9.134
49294SOL     OW49778   6.411  13.770  13.081
49294SOL    HW149779   6.363  13.790  13.161
49294SOL    HW249780   6.413  13.852  13.033
49295SOL     OW49781  11.618   7.010   3.452
49295SOL    HW149782  11.689   7.049   3.402
49295SOL    HW249783  11.631   6.915   3.442
49296SOL     OW49784   3.546  11.436  13.053
49296SOL    HW149785   3.608  11.426  13.125
49296SOL    HW249786   3.568  11.520  13.014
49297SOL     OW49787  12.649   2.968   1.462
49297SOL    HW149788  12.710   3.041   1.472
49297SOL    HW249789  12.704   2.895   1.435
49298SOL     OW49790   1.353   0.343   7.912
49298SOL    HW149791   1.318   0.394   7.839
49298SOL    HW249792   1.278   0.292   7.944
49299SOL     OW49793   8.616   1.182   5.624
49299SOL    HW149794   8.690   1.185   5.563
49299SOL    HW249795   8.656   1.192   5.711
49300SOL     OW49796   3.021   1.527   0.943
49300SOL    HW149797   3.115   1.543   0.953
49300SOL    HW249798   3.001   1.550   0.853
49301SOL     OW49799   9.596  11.149   4.771
49301SOL    HW149800   9.598  11.053   4.761
49301SOL    HW249801   9.579  11.181   4.682
49302SOL     OW49802  12.118  12.630   0.510
49302SOL    HW149803  12.028  12.653   0.488
49302SOL    HW249804  12.163  12.715   0.515
49303SOL     OW49805   8.573   4.045  10.804
49303SOL    HW149806   8.480   4.036  10.822
49303SOL    HW249807   8.578   4.077  10.714
49304SOL     OW49808  12.331  12.250  13.187
49304SOL    HW149809  12.289  12.171  13.153
49304SOL    HW249810  12.272  12.282  13.255
49305SOL     OW49811  13.767  12.779   1.644
49305SOL    HW149812  13.759  12.852   1.583
49305SOL    HW249813  13.860  12.773   1.662
49306SOL     OW49814   1.787   4.390   8.764
49306SOL    HW149815   1.700   4.362   8.793
49306SOL    HW249816   1.841   4.311   8.771
49307SOL     OW49817  10.236   6.685   7.276
49307SOL    HW149818  10.175   6.708   7.206
49307SOL    HW249819  10.216   6.593   7.295
49308SOL     OW49820  14.368   7.164   9.696
49308SOL    HW149821  14.398   7.231   9.635
49308SOL    HW249822  14.303   7.115   9.647
49309SOL     OW49823   4.948   8.360   8.172
49309SOL    HW149824   4.963   8.266   8.174
49309SOL    HW249825   4.871   8.373   8.227
49310SOL     OW49826   5.517   7.873   9.835
49310SOL    HW149827   5.534   7.790   9.792
49310SOL    HW249828   5.471   7.850   9.915
49311SOL     OW49829   6.275   2.298  10.630
49311SOL    HW149830   6.329   2.356  10.684
49311SOL    HW249831   6.201   2.276  10.686
49312SOL     OW49832   5.165   2.583   0.928
49312SOL    HW149833   5.074   2.611   0.932
49312SOL    HW249834   5.215   2.663   0.913
49313SOL     OW49835   1.714  12.705   8.368
49313SOL    HW149836   1.746  12.782   8.321
49313SOL    HW249837   1.619  12.717   8.370
49314SOL     OW49838   0.074  12.241   8.450
49314SOL    HW149839   0.124  12.240   8.531
49314SOL    HW249840   0.130  12.196   8.386
49315SOL     OW49841  10.350   2.211  13.510
49315SOL    HW149842  10.270   2.251  13.476
49315SOL    HW249843  10.330   2.196  13.603
49316SOL     OW49844  13.129   5.766   5.631
49316SOL    HW149845  13.096   5.677   5.644
49316SOL    HW249846  13.059   5.811   5.582
49317SOL     OW49847   8.515  10.070   0.038
49317SOL    HW149848   8.585  10.010   0.010
49317SOL    HW249849   8.497  10.123  14.828
49318SOL     OW49850   4.240   4.629  10.459
49318SOL    HW149851   4.299   4.686  10.509
49318SOL    HW249852   4.196   4.576  10.525
49319SOL     OW49853   1.908   8.157   5.448
49319SOL    HW149854   1.860   8.201   5.518
49319SOL    HW249855   1.999   8.160   5.475
49320SOL     OW49856   1.636   8.986  12.265
49320SOL    HW149857   1.720   9.029  12.282
49320SOL    HW249858   1.605   9.027  12.184
49321SOL     OW49859   2.135  14.215  12.648
49321SOL    HW149860   2.180  14.236  12.566
49321SOL    HW249861   2.042  14.218  12.626
49322SOL     OW49862   2.721   6.662   8.913
49322SOL    HW149863   2.806   6.634   8.946
49322SOL    HW249864   2.737   6.750   8.878
49323SOL     OW49865  13.677  14.644   7.889
49323SOL    HW149866  13.593  14.689   7.895
49323SOL    HW249867  13.688  14.626   7.795
49324SOL     OW49868   9.181   3.699  11.411
49324SOL    HW149869   9.210   3.616  11.450
49324SOL    HW249870   9.254   3.724  11.353
49325SOL     OW49871  10.440   9.259   3.076
49325SOL    HW149872  10.477   9.224   2.995
49325SOL    HW249873  10.478   9.346   3.084
49326SOL     OW49874   4.011   7.468   3.702
49326SOL    HW149875   4.009   7.413   3.780
49326SOL    HW249876   3.924   7.457   3.664
49327SOL     OW49877   9.254   2.649  12.080
49327SOL    HW149878   9.251   2.622  12.172
49327SOL    HW249879   9.338   2.694  12.071
49328SOL     OW49880   1.252   6.942   1.505
49328SOL    HW149881   1.301   6.934   1.424
49328SOL    HW249882   1.168   6.980   1.479
49329SOL     OW49883   2.978   1.189  12.158
49329SOL    HW149884   2.988   1.233  12.243
49329SOL    HW249885   2.886   1.201  12.136
49330SOL     OW49886   7.137  13.436   8.380
49330SOL    HW149887   7.082  13.480   8.316
49330SOL    HW249888   7.185  13.370   8.330
49331SOL     OW49889   2.488   6.360  12.625
49331SOL    HW149890   2.575   6.366  12.586
49331SOL    HW249891   2.444   6.291  12.575
49332SOL     OW49892  14.143  11.601  13.761
49332SOL    HW149893  14.082  11.642  13.701
49332SOL    HW249894  14.223  11.587  13.710
49333SOL     OW49895   1.214   3.118   5.939
49333SOL    HW149896   1.240   3.027   5.923
49333SOL    HW249897   1.191   3.151   5.852
49334SOL     OW49898   1.463  11.673   6.412
49334SOL    HW149899   1.464  11.758   6.455
49334SOL    HW249900   1.475  11.610   6.484
49335SOL     OW49901   4.244  10.249  12.100
49335SOL    HW149902   4.274  10.163  12.129
49335SOL    HW249903   4.287  10.310  12.160
49336SOL     OW49904   9.348   0.859   2.647
49336SOL    HW149905   9.415   0.791   2.636
49336SOL    HW249906   9.378   0.910   2.723
49337SOL     OW49907  14.753   3.834  14.111
49337SOL    HW149908  14.733   3.740  14.118
49337SOL    HW249909  14.712   3.861  14.029
49338SOL     OW49910   8.907  14.649  11.103
49338SOL    HW149911   8.998  14.627  11.085
49338SOL    HW249912   8.899  14.741  11.076
49339SOL     OW49913  10.002   6.014  10.592
49339SOL    HW149914   9.935   6.078  10.616
49339SOL    HW249915  10.073   6.030  10.654
49340SOL     OW49916   6.346  13.903   4.345
49340SOL    HW149917   6.301  13.918   4.262
49340SOL    HW249918   6.304  13.825   4.381
49341SOL     OW49919  12.874   9.373  11.616
49341SOL    HW149920  12.904   9.425  11.690
49341SOL    HW249921  12.778   9.381  11.618
49342SOL     OW49922   2.251   8.023  11.855
49342SOL    HW149923   2.280   7.975  11.932
49342SOL    HW249924   2.165   8.058  11.880
49343SOL     OW49925   8.967   3.421   0.771
49343SOL    HW149926   8.925   3.370   0.840
49343SOL    HW249927   9.024   3.357   0.726
49344SOL     OW49928   4.275   4.129  10.705
49344SOL    HW149929   4.352   4.100  10.755
49344SOL    HW249930   4.307   4.137  10.615
49345SOL     OW49931   1.050   0.853  13.890
49345SOL    HW149932   0.955   0.859  13.892
49345SOL    HW249933   1.069   0.760  13.879
49346SOL     OW49934   4.631  14.741   4.554
49346SOL    HW149935   4.674  14.739   4.640
49346SOL    HW249936   4.537  14.736   4.574
49347SOL     OW49937   0.448   9.393   9.176
49347SOL    HW149938   0.398   9.323   9.219
49347SOL    HW249939   0.535   9.355   9.164
49348SOL     OW49940   6.776   8.219  11.650
49348SOL    HW149941   6.709   8.270  11.696
49348SOL    HW249942   6.819   8.169  11.719
49349SOL     OW49943   9.677   1.518   3.943
49349SOL    HW149944   9.726   1.535   3.862
49349SOL    HW249945   9.629   1.437   3.924
49350SOL     OW49946   4.839  14.778  13.999
49350SOL    HW149947   4.927  14.769  13.963
49350SOL    HW249948   4.793  14.699  13.972
49351SOL     OW49949   2.912  12.759   2.250
49351SOL    HW149950   2.822  12.774   2.222
49351SOL    HW249951   2.903  12.720   2.338
49352SOL     OW49952   0.645   0.140  14.710
49352SOL    HW149953   0.594   0.211  14.747
49352SOL    HW249954   0.623   0.141  14.616
49353SOL     OW49955   5.818   1.981   8.895
49353SOL    HW149956   5.752   2.047   8.875
49353SOL    HW249957   5.843   1.945   8.810
49354SOL     OW49958   9.386   4.820   6.229
49354SOL    HW149959   9.414   4.730   6.245
49354SOL    HW249960   9.306   4.830   6.280
49355SOL     OW49961  12.228   3.005   0.617
49355SOL    HW149962  12.231   2.932   0.679
49355SOL    HW249963  12.248   2.966   0.532
49356SOL     OW49964   5.219   6.192  11.164
49356SOL    HW149965   5.192   6.108  11.127
49356SOL    HW249966   5.194   6.186  11.256
49357SOL     OW49967   7.586   5.453  11.704
49357SOL    HW149968   7.628   5.370  11.680
49357SOL    HW249969   7.597   5.459  11.799
49358SOL     OW49970  14.134   9.166  12.793
49358SOL    HW149971  14.152   9.215  12.873
49358SOL    HW249972  14.188   9.207  12.726
49359SOL     OW49973   3.359  10.947   1.867
49359SOL    HW149974   3.302  11.024   1.866
49359SOL    HW249975   3.447  10.982   1.852
49360SOL     OW49976   7.839   5.700   1.768
49360SOL    HW149977   7.882   5.633   1.820
49360SOL    HW249978   7.876   5.690   1.680
49361SOL     OW49979   8.436   4.100   2.287
49361SOL    HW149980   8.463   4.055   2.368
49361SOL    HW249981   8.364   4.156   2.314
49362SOL     OW49982   2.027   3.691   2.560
49362SOL    HW149983   1.982   3.740   2.490
49362SOL    HW249984   1.996   3.732   2.641
49363SOL     OW49985  14.195   5.168   3.175
49363SOL    HW149986  14.105   5.203   3.179
49363SOL    HW249987  14.235   5.214   3.102
49364SOL     OW49988  11.190   2.120   7.071
49364SOL    HW149989  11.117   2.106   7.011
49364SOL    HW249990  11.224   2.206   7.049
49365SOL     OW49991   7.880   4.510   6.098
49365SOL    HW149992   7.789   4.512   6.071
49365SOL    HW249993   7.902   4.417   6.105
49366SOL     OW49994  11.653  14.420   1.869
49366SOL    HW149995  11.740  14.420   1.909
49366SOL    HW249996  11.670  14.417   1.775
49367SOL     OW49997   0.295   4.999   9.580
49367SOL    HW149998   0.374   4.945   9.582
49367SOL    HW249999   0.324   5.083   9.616
49368SOL     OW50000  10.897   8.174  13.555
49368SOL    HW150001  10.895   8.205  13.464
49368SOL    HW250002  10.857   8.087  13.550
49369SOL     OW50003  13.643   6.802   7.874
49369SOL    HW150004  13.614   6.726   7.824
49369SOL    HW250005  13.649   6.872   7.809
49370SOL     OW50006   9.712  11.123   5.299
49370SOL    HW150007   9.644  11.106   5.234
49370SOL    HW250008   9.792  11.136   5.247
49371SOL     OW50009  11.685   3.416  13.735
49371SOL    HW150010  11.645   3.402  13.649
49371SOL    HW250011  11.612   3.411  13.797
49372SOL     OW50012   7.212  14.804  12.609
49372SOL    HW150013   7.185   0.022  12.642
49372SOL    HW250014   7.132  14.766  12.574
49373SOL     OW50015   8.830  14.429   2.794
49373SOL    HW150016   8.838  14.334   2.802
49373SOL    HW250017   8.745  14.442   2.750
49374SOL     OW50018   0.179   9.515   9.579
49374SOL    HW150019   0.155   9.434   9.624
49374SOL    HW250020   0.121   9.582   9.616
49375SOL     OW50021  12.195  10.185   2.170
49375SOL    HW150022  12.229  10.096   2.157
49375SOL    HW250023  12.269  10.242   2.151
49376SOL     OW50024   1.480   6.162   9.093
49376SOL    HW150025   1.476   6.075   9.054
49376SOL    HW250026   1.570   6.171   9.125
49377SOL     OW50027  14.176   4.484   5.626
49377SOL    HW150028  14.262   4.479   5.583
49377SOL    HW250029  14.172   4.404   5.680
49378SOL     OW50030   1.703   9.004   4.398
49378SOL    HW150031   1.686   9.053   4.478
49378SOL    HW250032   1.797   9.012   4.385
49379SOL     OW50033   0.953   9.341  11.482
49379SOL    HW150034   0.940   9.338  11.576
49379SOL    HW250035   0.865   9.350  11.445
49380SOL     OW50036  10.387  10.266  12.555
49380SOL    HW150037  10.360  10.274  12.646
49380SOL    HW250038  10.458  10.329  12.545
49381SOL     OW50039   3.035  14.056  13.518
49381SOL    HW150040   3.061  14.144  13.546
49381SOL    HW250041   3.101  13.999  13.558
49382SOL     OW50042  11.851   7.854  11.637
49382SOL    HW150043  11.922   7.891  11.690
49382SOL    HW250044  11.832   7.769  11.678
49383SOL     OW50045   8.197   9.638  14.604
49383SOL    HW150046   8.260   9.671  14.540
49383SOL    HW250047   8.224   9.547  14.619
49384SOL     OW50048  11.012   5.022  11.840
49384SOL    HW150049  11.066   5.082  11.789
49384SOL    HW250050  11.070   4.949  11.862
49385SOL     OW50051   3.297   2.225  11.741
49385SOL    HW150052   3.392   2.237  11.744
49385SOL    HW250053   3.277   2.212  11.648
49386SOL     OW50054   5.249   3.544   6.802
49386SOL    HW150055   5.274   3.612   6.864
49386SOL    HW250056   5.314   3.475   6.814
49387SOL     OW50057   1.592   4.898   0.038
49387SOL    HW150058   1.588   4.935   0.126
49387SOL    HW250059   1.685   4.894   0.018
49388SOL     OW50060   4.525  11.255   6.213
49388SOL    HW150061   4.435  11.227   6.194
49388SOL    HW250062   4.526  11.268   6.307
49389SOL     OW50063  14.769   6.373   8.174
49389SOL    HW150064  14.839   6.421   8.219
49389SOL    HW250065  14.688   6.404   8.216
49390SOL     OW50066   1.120   5.638  12.429
49390SOL    HW150067   1.065   5.562  12.447
49390SOL    HW250068   1.189   5.634  12.495
49391SOL     OW50069   9.252   1.383  10.660
49391SOL    HW150070   9.168   1.425  10.674
49391SOL    HW250071   9.233   1.312  10.597
49392SOL     OW50072  11.354  13.484   9.932
49392SOL    HW150073  11.406  13.522   9.862
49392SOL    HW250074  11.357  13.390   9.916
49393SOL     OW50075   5.771   9.737  14.567
49393SOL    HW150076   5.761   9.756  14.474
49393SOL    HW250077   5.838   9.668  14.570
49394SOL     OW50078  13.948   3.710   2.769
49394SOL    HW150079  14.043   3.697   2.768
49394SOL    HW250080  13.913   3.631   2.727
49395SOL     OW50081   4.972  12.734  12.321
49395SOL    HW150082   5.019  12.779  12.391
49395SOL    HW250083   4.892  12.786  12.309
49396SOL     OW50084   4.962   9.169   3.147
49396SOL    HW150085   4.968   9.263   3.135
49396SOL    HW250086   5.040   9.146   3.198
49397SOL     OW50087   8.471  12.530   1.439
49397SOL    HW150088   8.519  12.613   1.434
49397SOL    HW250089   8.379  12.557   1.443
49398SOL     OW50090   9.436   2.514   7.645
49398SOL    HW150091   9.356   2.562   7.621
49398SOL    HW250092   9.443   2.526   7.740
49399SOL     OW50093  11.188   6.879   9.529
49399SOL    HW150094  11.166   6.787   9.518
49399SOL    HW250095  11.205   6.911   9.441
49400SOL     OW50096  12.019   7.832   2.280
49400SOL    HW150097  11.959   7.764   2.311
49400SOL    HW250098  12.102   7.786   2.266
49401SOL     OW50099   5.478  10.133  13.819
49401SOL    HW150100   5.471  10.049  13.864
49401SOL    HW250101   5.402  10.183  13.849
49402SOL     OW50102  12.305  10.101   8.064
49402SOL    HW150103  12.245  10.027   8.053
49402SOL    HW250104  12.366  10.093   7.991
49403SOL     OW50105   6.378  14.486  14.137
49403SOL    HW150106   6.326  14.533  14.203
49403SOL    HW250107   6.417  14.555  14.084
49404SOL     OW50108  10.800   6.532   9.343
49404SOL    HW150109  10.793   6.627   9.331
49404SOL    HW250110  10.720   6.498   9.303
49405SOL     OW50111   9.968  14.423   0.642
49405SOL    HW150112   9.974  14.459   0.731
49405SOL    HW250113   9.875  14.413   0.627
49406SOL     OW50114   1.984  14.006   6.472
49406SOL    HW150115   2.030  13.926   6.445
49406SOL    HW250116   1.892  13.983   6.468
49407SOL     OW50117  11.447  10.729   2.754
49407SOL    HW150118  11.398  10.678   2.818
49407SOL    HW250119  11.512  10.669   2.719
49408SOL     OW50120   1.075  10.881   7.264
49408SOL    HW150121   1.050  10.813   7.202
49408SOL    HW250122   1.014  10.953   7.247
49409SOL     OW50123   2.650   6.476  11.646
49409SOL    HW150124   2.654   6.461  11.741
49409SOL    HW250125   2.728   6.530  11.628
49410SOL     OW50126  11.348  14.277  14.807
49410SOL    HW150127  11.433  14.239  14.831
49410SOL    HW250128  11.369  14.345  14.743
49411SOL     OW50129   1.646  13.822  12.724
49411SOL    HW150130   1.652  13.735  12.684
49411SOL    HW250131   1.725  13.829  12.778
49412SOL     OW50132  14.860   0.935   2.397
49412SOL    HW150133  14.815   0.896   2.322
49412SOL    HW250134  14.793   0.938   2.466
49413SOL     OW50135   2.183  13.241   0.795
49413SOL    HW150136   2.093  13.218   0.773
49413SOL    HW250137   2.227  13.253   0.711
49414SOL     OW50138   9.430  11.144   9.294
49414SOL    HW150139   9.430  11.088   9.371
49414SOL    HW250140   9.375  11.097   9.231
49415SOL     OW50141   5.320   8.816  10.442
49415SOL    HW150142   5.329   8.869  10.521
49415SOL    HW250143   5.228   8.826  10.417
49416SOL     OW50144  11.661   9.100   8.518
49416SOL    HW150145  11.624   9.064   8.438
49416SOL    HW250146  11.689   9.023   8.569
49417SOL     OW50147   1.175   9.192  10.452
49417SOL    HW150148   1.266   9.210  10.473
49417SOL    HW250149   1.138   9.156  10.532
49418SOL     OW50150  12.400  11.529  11.310
49418SOL    HW150151  12.395  11.525  11.405
49418SOL    HW250152  12.309  11.540  11.281
49419SOL     OW50153   2.717   3.676  11.482
49419SOL    HW150154   2.785   3.743  11.481
49419SOL    HW250155   2.693   3.667  11.574
49420SOL     OW50156  12.673   0.698   8.180
49420SOL    HW150157  12.757   0.655   8.195
49420SOL    HW250158  12.609   0.645   8.227
49421SOL     OW50159  11.839  10.182  11.037
49421SOL    HW150160  11.744  10.181  11.052
49421SOL    HW250161  11.849  10.223  10.951
49422SOL     OW50162  12.939   3.840   2.053
49422SOL    HW150163  12.874   3.865   2.119
49422SOL    HW250164  12.961   3.922   2.009
49423SOL     OW50165   1.919   1.185   6.288
49423SOL    HW150166   1.878   1.192   6.374
49423SOL    HW250167   1.914   1.273   6.252
49424SOL     OW50168   9.514  12.746   7.399
49424SOL    HW150169   9.550  12.663   7.429
49424SOL    HW250170   9.426  12.750   7.437
49425SOL     OW50171  13.902   8.733  13.959
49425SOL    HW150172  13.917   8.732  13.864
49425SOL    HW250173  13.972   8.680  13.996
49426SOL     OW50174  10.591   7.651   9.119
49426SOL    HW150175  10.604   7.559   9.140
49426SOL    HW250176  10.498   7.667   9.136
49427SOL     OW50177   7.667  11.248  14.467
49427SOL    HW150178   7.600  11.262  14.400
49427SOL    HW250179   7.632  11.291  14.545
49428SOL     OW50180  14.708   2.464  11.052
49428SOL    HW150181  14.746   2.552  11.056
49428SOL    HW250182  14.741   2.427  10.970
49429SOL     OW50183  12.198   3.539   2.054
49429SOL    HW150184  12.257   3.614   2.068
49429SOL    HW250185  12.129   3.550   2.120
49430SOL     OW50186   6.598   9.435  12.513
49430SOL    HW150187   6.626   9.344  12.498
49430SOL    HW250188   6.610   9.449  12.607
49431SOL     OW50189  11.501   6.687   5.783
49431SOL    HW150190  11.443   6.700   5.858
49431SOL    HW250191  11.455   6.727   5.709
49432SOL     OW50192  10.524   9.359   2.002
49432SOL    HW150193  10.517   9.388   1.912
49432SOL    HW250194  10.588   9.287   2.000
49433SOL     OW50195   4.151   9.450   8.045
49433SOL    HW150196   4.232   9.501   8.038
49433SOL    HW250197   4.165   9.374   7.988
49434SOL     OW50198   8.834   1.525  14.340
49434SOL    HW150199   8.782   1.508  14.419
49434SOL    HW250200   8.798   1.606  14.305
49435SOL     OW50201   4.950   9.263   2.639
49435SOL    HW150202   4.904   9.257   2.555
49435SOL    HW250203   4.893   9.219   2.702
49436SOL     OW50204   2.441   1.786  12.002
49436SOL    HW150205   2.411   1.820  11.918
49436SOL    HW250206   2.365   1.738  12.036
49437SOL     OW50207   3.857  13.171   9.120
49437SOL    HW150208   3.819  13.204   9.038
49437SOL    HW250209   3.814  13.086   9.133
49438SOL     OW50210  13.678   6.849   2.003
49438SOL    HW150211  13.767   6.856   2.039
49438SOL    HW250212  13.669   6.757   1.979
49439SOL     OW50213   9.369   6.754  12.423
49439SOL    HW150214   9.426   6.680  12.442
49439SOL    HW250215   9.421   6.831  12.444
49440SOL     OW50216   9.144  14.081   8.021
49440SOL    HW150217   9.221  14.112   7.974
49440SOL    HW250218   9.169  14.087   8.114
49441SOL     OW50219  14.681   4.327  10.021
49441SOL    HW150220  14.611   4.278   9.977
49441SOL    HW250221  14.671   4.416   9.989
49442SOL     OW50222  12.885  14.436  12.566
49442SOL    HW150223  12.818  14.412  12.501
49442SOL    HW250224  12.962  14.457  12.514
49443SOL     OW50225  14.594  11.070  11.042
49443SOL    HW150226  14.620  10.984  11.076
49443SOL    HW250227  14.667  11.127  11.064
49444SOL     OW50228   2.115  13.182   4.974
49444SOL    HW150229   2.208  13.195   4.960
49444SOL    HW250230   2.074  13.205   4.891
49445SOL     OW50231   4.513   6.073   2.073
49445SOL    HW150232   4.483   6.148   2.123
49445SOL    HW250233   4.433   6.026   2.048
49446SOL     OW50234  10.400  12.048   9.584
49446SOL    HW150235  10.382  12.033   9.491
49446SOL    HW250236  10.489  12.014   9.596
49447SOL     OW50237  13.514  14.569  11.530
49447SOL    HW150238  13.550  14.550  11.617
49447SOL    HW250239  13.429  14.608  11.548
49448SOL     OW50240   8.790   8.227  11.283
49448SOL    HW150241   8.722   8.198  11.221
49448SOL    HW250242   8.767   8.184  11.365
49449SOL     OW50243  10.523   3.565   9.583
49449SOL    HW150244  10.581   3.490   9.601
49449SOL    HW250245  10.549   3.595   9.496
49450SOL     OW50246   8.610   8.725   0.590
49450SOL    HW150247   8.559   8.654   0.551
49450SOL    HW250248   8.700   8.694   0.588
49451SOL     OW50249   4.431   1.724   0.292
49451SOL    HW150250   4.497   1.683   0.347
49451SOL    HW250251   4.382   1.781   0.352
49452SOL     OW50252  13.073   7.082   2.861
49452SOL    HW150253  13.074   6.986   2.866
49452SOL    HW250254  12.987   7.103   2.826
49453SOL     OW50255  11.148   9.910  14.296
49453SOL    HW150256  11.226   9.858  14.316
49453SOL    HW250257  11.091   9.897  14.372
49454SOL     OW50258   2.171  13.925  11.170
49454SOL    HW150259   2.234  13.882  11.229
49454SOL    HW250260   2.091  13.931  11.222
49455SOL     OW50261  12.046   3.680  10.658
49455SOL    HW150262  12.104   3.714  10.726
49455SOL    HW250263  11.985   3.623  10.705
49456SOL     OW50264   7.732  11.042  14.658
49456SOL    HW150265   7.706  11.117  14.711
49456SOL    HW250266   7.707  11.067  14.569
49457SOL     OW50267   3.244   4.458   8.382
49457SOL    HW150268   3.196   4.508   8.449
49457SOL    HW250269   3.284   4.525   8.327
49458SOL     OW50270  14.116   1.148   6.933
49458SOL    HW150271  14.112   1.240   6.909
49458SOL    HW250272  14.194   1.114   6.888
49459SOL     OW50273   2.992   4.388   7.030
49459SOL    HW150274   2.947   4.472   7.040
49459SOL    HW250275   2.924   4.322   7.044
49460SOL     OW50276  10.906   7.225   2.704
49460SOL    HW150277  10.960   7.272   2.641
49460SOL    HW250278  10.817   7.257   2.689
49461SOL     OW50279   9.580   5.091  14.425
49461SOL    HW150280   9.498   5.068  14.468
49461SOL    HW250281   9.647   5.043  14.472
49462SOL     OW50282   1.677   9.008  10.793
49462SOL    HW150283   1.754   9.052  10.829
49462SOL    HW250284   1.605   9.067  10.813
49463SOL     OW50285  12.778   2.692   8.888
49463SOL    HW150286  12.812   2.740   8.963
49463SOL    HW250287  12.687   2.721   8.879
49464SOL     OW50288   5.198   6.559   4.179
49464SOL    HW150289   5.236   6.498   4.116
49464SOL    HW250290   5.158   6.628   4.125
49465SOL     OW50291   9.122  13.372   9.150
49465SOL    HW150292   9.181  13.303   9.120
49465SOL    HW250293   9.090  13.413   9.070
49466SOL     OW50294  12.514   1.870   7.459
49466SOL    HW150295  12.557   1.884   7.544
49466SOL    HW250296  12.421   1.857   7.481
49467SOL     OW50297   2.358   6.154   5.839
49467SOL    HW150298   2.327   6.141   5.929
49467SOL    HW250299   2.294   6.213   5.800
49468SOL     OW50300   8.762   7.993   6.731
49468SOL    HW150301   8.733   7.907   6.763
49468SOL    HW250302   8.841   8.012   6.782
49469SOL     OW50303   6.585   3.016  10.330
49469SOL    HW150304   6.489   3.017  10.331
49469SOL    HW250305   6.609   3.079  10.262
49470SOL     OW50306  11.601   9.056  10.205
49470SOL    HW150307  11.667   9.004  10.250
49470SOL    HW250308  11.518   9.013  10.226
49471SOL     OW50309   9.521   2.181   2.263
49471SOL    HW150310   9.449   2.131   2.301
49471SOL    HW250311   9.495   2.195   2.172
49472SOL     OW50312   1.111   9.688   6.883
49472SOL    HW150313   1.168   9.757   6.851
49472SOL    HW250314   1.165   9.609   6.880
49473SOL     OW50315   2.202  14.664   1.722
49473SOL    HW150316   2.186  14.592   1.660
49473SOL    HW250317   2.214  14.741   1.666
49474SOL     OW50318   7.031   0.784   6.214
49474SOL    HW150319   7.118   0.757   6.185
49474SOL    HW250320   6.972   0.750   6.147
49475SOL     OW50321  12.194   8.728   2.198
49475SOL    HW150322  12.169   8.791   2.266
49475SOL    HW250323  12.143   8.649   2.219
49476SOL     OW50324   9.460   7.437  14.532
49476SOL    HW150325   9.508   7.418  14.613
49476SOL    HW250326   9.377   7.391  14.542
49477SOL     OW50327   7.694  13.423   3.038
49477SOL    HW150328   7.764  13.357   3.040
49477SOL    HW250329   7.729  13.495   3.090
49478SOL     OW50330   1.442   5.263  10.656
49478SOL    HW150331   1.427   5.176  10.618
49478SOL    HW250332   1.355   5.303  10.658
49479SOL     OW50333   7.569   2.087   8.154
49479SOL    HW150334   7.598   2.158   8.211
49479SOL    HW250335   7.489   2.121   8.113
49480SOL     OW50336  12.511  10.518  13.643
49480SOL    HW150337  12.579  10.453  13.626
49480SOL    HW250338  12.430  10.477  13.611
49481SOL     OW50339   1.618   3.673   0.939
49481SOL    HW150340   1.571   3.598   0.975
49481SOL    HW250341   1.574   3.749   0.977
49482SOL     OW50342   7.936  12.332   5.561
49482SOL    HW150343   7.934  12.407   5.501
49482SOL    HW250344   7.906  12.259   5.508
49483SOL     OW50345   2.400   1.384   3.119
49483SOL    HW150346   2.396   1.478   3.100
49483SOL    HW250347   2.403   1.342   3.033
49484SOL     OW50348   3.071   6.516   2.145
49484SOL    HW150349   2.989   6.478   2.112
49484SOL    HW250350   3.136   6.492   2.079
49485SOL     OW50351   7.149  13.953   5.196
49485SOL    HW150352   7.059  13.933   5.172
49485SOL    HW250353   7.141  14.010   5.273
49486SOL     OW50354   6.648   3.282   2.969
49486SOL    HW150355   6.589   3.297   3.042
49486SOL    HW250356   6.623   3.196   2.935
49487SOL     OW50357   2.979   6.747   0.889
49487SOL    HW150358   2.974   6.786   0.977
49487SOL    HW250359   3.016   6.816   0.834
49488SOL     OW50360  12.151   7.241   9.204
49488SOL    HW150361  12.111   7.217   9.121
49488SOL    HW250362  12.082   7.288   9.251
49489SOL     OW50363  12.443   5.402  14.144
49489SOL    HW150364  12.527   5.441  14.165
49489SOL    HW250365  12.446   5.315  14.184
49490SOL     OW50366   5.804   5.821   2.691
49490SOL    HW150367   5.837   5.902   2.729
49490SOL    HW250368   5.749   5.849   2.618
49491SOL     OW50369   5.226   5.491   0.268
49491SOL    HW150370   5.172   5.430   0.218
49491SOL    HW250371   5.310   5.491   0.224
49492SOL     OW50372  12.700   7.805   9.351
49492SOL    HW150373  12.769   7.742   9.332
49492SOL    HW250374  12.619   7.753   9.348
49493SOL     OW50375  12.236   2.503  11.556
49493SOL    HW150376  12.281   2.420  11.565
49493SOL    HW250377  12.289   2.553  11.493
49494SOL     OW50378  10.023   3.558   1.018
49494SOL    HW150379   9.957   3.496   1.048
49494SOL    HW250380  10.006   3.569   0.924
49495SOL     OW50381   5.207  13.574  13.899
49495SOL    HW150382   5.134  13.521  13.931
49495SOL    HW250383   5.236  13.528  13.820
49496SOL     OW50384   8.906  11.383   2.330
49496SOL    HW150385   8.820  11.350   2.352
49496SOL    HW250386   8.966  11.336   2.387
49497SOL     OW50387   1.229  13.547  11.890
49497SOL    HW150388   1.212  13.620  11.831
49497SOL    HW250389   1.174  13.476  11.857
49498SOL     OW50390   3.756  10.296  12.805
49498SOL    HW150391   3.720  10.208  12.804
49498SOL    HW250392   3.800  10.303  12.891
49499SOL     OW50393   3.060   1.743  11.735
49499SOL    HW150394   3.137   1.693  11.709
49499SOL    HW250395   2.995   1.677  11.758
49500SOL     OW50396  13.530  11.017   1.206
49500SOL    HW150397  13.437  11.007   1.224
49500SOL    HW250398  13.536  11.025   1.111
49501SOL     OW50399   2.268  11.128   0.973
49501SOL    HW150400   2.317  11.188   0.916
49501SOL    HW250401   2.244  11.180   1.049
49502SOL     OW50402   5.281  14.270   8.926
49502SOL    HW150403   5.300  14.363   8.938
49502SOL    HW250404   5.207  14.269   8.865
49503SOL     OW50405  10.542  12.431   0.293
49503SOL    HW150406  10.525  12.428   0.199
49503SOL    HW250407  10.455  12.438   0.333
49504SOL     OW50408  12.755   9.486   4.464
49504SOL    HW150409  12.686   9.551   4.472
49504SOL    HW250410  12.763   9.448   4.552
49505SOL     OW50411   3.203  10.831  13.749
49505SOL    HW150412   3.235  10.749  13.785
49505SOL    HW250413   3.251  10.842  13.667
49506SOL     OW50414  12.470   5.897   0.985
49506SOL    HW150415  12.543   5.923   1.041
49506SOL    HW250416  12.393   5.898   1.042
49507SOL     OW50417   4.766   4.543   1.573
49507SOL    HW150418   4.814   4.615   1.614
49507SOL    HW250419   4.676   4.576   1.565
49508SOL     OW50420  11.073   3.975   4.916
49508SOL    HW150421  11.003   4.030   4.950
49508SOL    HW250422  11.118   4.030   4.851
49509SOL     OW50423  14.514   5.896   6.197
49509SOL    HW150424  14.435   5.947   6.179
49509SOL    HW250425  14.488   5.805   6.182
49510SOL     OW50426  11.588   3.913   5.671
49510SOL    HW150427  11.567   3.824   5.643
49510SOL    HW250428  11.577   3.966   5.592
49511SOL     OW50429   7.106   1.057  13.157
49511SOL    HW150430   7.162   1.134  13.161
49511SOL    HW250431   7.034   1.077  13.217
49512SOL     OW50432  11.951  14.722   9.308
49512SOL    HW150433  11.947  14.758   9.397
49512SOL    HW250434  12.019  14.656   9.312
49513SOL     OW50435   7.897  14.141   1.586
49513SOL    HW150436   7.963  14.131   1.654
49513SOL    HW250437   7.848  14.220   1.610
49514SOL     OW50438   2.158   1.980  12.071
49514SOL    HW150439   2.221   1.984  11.999
49514SOL    HW250440   2.072   1.988  12.028
49515SOL     OW50441   7.911   4.129   3.185
49515SOL    HW150442   7.867   4.050   3.218
49515SOL    HW250443   8.000   4.101   3.166
49516SOL     OW50444  12.356   5.187   0.028
49516SOL    HW150445  12.275   5.218   0.067
49516SOL    HW250446  12.402   5.267   0.001
49517SOL     OW50447   0.792   9.053   0.718
49517SOL    HW150448   0.760   9.023   0.803
49517SOL    HW250449   0.848   8.982   0.686
49518SOL     OW50450  13.150  13.859  12.414
49518SOL    HW150451  13.199  13.777  12.420
49518SOL    HW250452  13.160  13.899  12.500
49519SOL     OW50453   6.891   6.358   6.233
49519SOL    HW150454   6.900   6.450   6.209
49519SOL    HW250455   6.796   6.343   6.233
49520SOL     OW50456   1.626   4.512   2.762
49520SOL    HW150457   1.721   4.512   2.762
49520SOL    HW250458   1.603   4.592   2.811
49521SOL     OW50459   2.643  13.418   1.329
49521SOL    HW150460   2.570  13.361   1.307
49521SOL    HW250461   2.721  13.368   1.302
49522SOL     OW50462  13.913   1.395  10.313
49522SOL    HW150463  13.959   1.358  10.238
49522SOL    HW250464  13.864   1.469  10.277
49523SOL     OW50465   1.497   4.189   8.213
49523SOL    HW150466   1.404   4.192   8.235
49523SOL    HW250467   1.506   4.110   8.159
49524SOL     OW50468   3.544  11.056   6.573
49524SOL    HW150469   3.538  11.151   6.561
49524SOL    HW250470   3.469  11.022   6.524
49525SOL     OW50471   9.272   0.847   9.056
49525SOL    HW150472   9.340   0.899   9.013
49525SOL    HW250473   9.192   0.869   9.009
49526SOL     OW50474   4.919  13.105   0.749
49526SOL    HW150475   4.829  13.135   0.735
49526SOL    HW250476   4.940  13.132   0.838
49527SOL     OW50477   8.880  11.159   4.337
49527SOL    HW150478   8.822  11.230   4.307
49527SOL    HW250479   8.968  11.196   4.329
49528SOL     OW50480   7.816   1.613   4.650
49528SOL    HW150481   7.839   1.559   4.725
49528SOL    HW250482   7.896   1.615   4.597
49529SOL     OW50483   3.088   5.083  12.806
49529SOL    HW150484   2.996   5.077  12.832
49529SOL    HW250485   3.121   5.161  12.849
49530SOL     OW50486  11.087   2.054   6.533
49530SOL    HW150487  11.006   2.019   6.570
49530SOL    HW250488  11.066   2.144   6.508
49531SOL     OW50489   2.596   9.216  10.812
49531SOL    HW150490   2.529   9.228  10.745
49531SOL    HW250491   2.596   9.123  10.830
49532SOL     OW50492  10.032   7.290   6.724
49532SOL    HW150493  10.118   7.251   6.709
49532SOL    HW250494  10.002   7.315   6.636
49533SOL     OW50495  10.233   3.570   2.382
49533SOL    HW150496  10.270   3.484   2.400
49533SOL    HW250497  10.273   3.628   2.446
49534SOL     OW50498   5.967   3.055   6.672
49534SOL    HW150499   5.925   2.995   6.734
49534SOL    HW250500   6.060   3.049   6.692
49535SOL     OW50501   5.018  12.887   6.199
49535SOL    HW150502   4.977  12.937   6.129
49535SOL    HW250503   5.093  12.939   6.226
49536SOL     OW50504  14.244  12.654   3.218
49536SOL    HW150505  14.317  12.715   3.211
49536SOL    HW250506  14.263  12.602   3.297
49537SOL     OW50507  11.086   7.690   3.387
49537SOL    HW150508  11.178   7.710   3.406
49537SOL    HW250509  11.054   7.766   3.338
49538SOL     OW50510   6.935   9.964   6.977
49538SOL    HW150511   6.842   9.944   6.976
49538SOL    HW250512   6.952   9.993   7.067
49539SOL     OW50513   6.094   6.243  11.652
49539SOL    HW150514   6.166   6.181  11.637
49539SOL    HW250515   6.041   6.238  11.572
49540SOL     OW50516  12.281   2.490   0.833
49540SOL    HW150517  12.335   2.423   0.875
49540SOL    HW250518  12.263   2.455   0.746
49541SOL     OW50519   4.023  12.715  13.210
49541SOL    HW150520   3.934  12.683  13.197
49541SOL    HW250521   4.060  12.720  13.121
49542SOL     OW50522  10.988  13.266  12.497
49542SOL    HW150523  10.965  13.307  12.580
49542SOL    HW250524  11.080  13.243  12.506
49543SOL     OW50525   1.298   3.249   0.247
49543SOL    HW150526   1.305   3.270   0.340
49543SOL    HW250527   1.283   3.155   0.245
49544SOL     OW50528   8.569   4.570  13.547
49544SOL    HW150529   8.595   4.598  13.635
49544SOL    HW250530   8.650   4.539  13.507
49545SOL     OW50531   7.570   8.510  12.634
49545SOL    HW150532   7.516   8.432  12.629
49545SOL    HW250533   7.541   8.554  12.714
49546SOL     OW50534   7.187  10.276   1.185
49546SOL    HW150535   7.206  10.285   1.278
49546SOL    HW250536   7.101  10.234   1.183
49547SOL     OW50537   8.448   0.702   9.734
49547SOL    HW150538   8.490   0.778   9.693
49547SOL    HW250539   8.499   0.627   9.703
49548SOL     OW50540   3.613  10.137  10.478
49548SOL    HW150541   3.556  10.213  10.491
49548SOL    HW250542   3.630  10.105  10.567
49549SOL     OW50543  10.336  12.734  12.828
49549SOL    HW150544  10.256  12.750  12.878
49549SOL    HW250545  10.338  12.804  12.763
49550SOL     OW50546   4.955   8.751   2.565
49550SOL    HW150547   4.903   8.822   2.601
49550SOL    HW250548   4.896   8.703   2.507
49551SOL     OW50549   2.747   7.072   6.389
49551SOL    HW150550   2.697   7.112   6.460
49551SOL    HW250551   2.687   7.072   6.314
49552SOL     OW50552   6.397   6.943   2.042
49552SOL    HW150553   6.402   6.873   1.977
49552SOL    HW250554   6.406   7.024   1.992
49553SOL     OW50555   6.697   8.212   5.460
49553SOL    HW150556   6.652   8.286   5.499
49553SOL    HW250557   6.700   8.233   5.366
49554SOL     OW50558  14.633   9.515  10.540
49554SOL    HW150559  14.568   9.562  10.488
49554SOL    HW250560  14.680   9.583  10.588
49555SOL     OW50561  13.754   3.904  12.807
49555SOL    HW150562  13.786   3.986  12.845
49555SOL    HW250563  13.748   3.844  12.881
49556SOL     OW50564   0.159   9.897   6.456
49556SOL    HW150565   0.187   9.850   6.378
49556SOL    HW250566   0.064   9.885   6.459
49557SOL     OW50567   2.422   6.197   2.960
49557SOL    HW150568   2.503   6.248   2.967
49557SOL    HW250569   2.390   6.190   3.050
49558SOL     OW50570   4.235   4.517   8.092
49558SOL    HW150571   4.274   4.474   8.016
49558SOL    HW250572   4.306   4.569   8.129
49559SOL     OW50573   8.969   9.343   5.282
49559SOL    HW150574   8.984   9.259   5.238
49559SOL    HW250575   8.916   9.394   5.221
49560SOL     OW50576   5.895  13.469  12.343
49560SOL    HW150577   5.914  13.553  12.385
49560SOL    HW250578   5.822  13.488  12.284
49561SOL     OW50579   4.762   6.299  14.779
49561SOL    HW150580   4.777   6.257  14.863
49561SOL    HW250581   4.814   6.379  14.782
49562SOL     OW50582   2.628   9.559  10.873
49562SOL    HW150583   2.560   9.562  10.805
49562SOL    HW250584   2.711   9.557  10.824
49563SOL     OW50585   2.511  13.984   2.454
49563SOL    HW150586   2.415  13.982   2.450
49563SOL    HW250587   2.536  14.050   2.389
49564SOL     OW50588   6.559   6.430  14.420
49564SOL    HW150589   6.630   6.494  14.408
49564SOL    HW250590   6.490   6.479  14.464
49565SOL     OW50591   1.481   6.205  13.017
49565SOL    HW150592   1.514   6.290  12.989
49565SOL    HW250593   1.525   6.142  12.960
49566SOL     OW50594   0.550   7.983   9.693
49566SOL    HW150595   0.573   8.042   9.764
49566SOL    HW250596   0.621   7.991   9.630
49567SOL     OW50597  11.309   8.770   4.677
49567SOL    HW150598  11.350   8.815   4.750
49567SOL    HW250599  11.215   8.787   4.687
49568SOL     OW50600   7.075  12.955   4.005
49568SOL    HW150601   7.122  13.035   4.028
49568SOL    HW250602   7.049  12.917   4.089
49569SOL     OW50603   7.571  14.761   4.416
49569SOL    HW150604   7.600  14.814   4.341
49569SOL    HW250605   7.481  14.736   4.394
49570SOL     OW50606   2.400   8.540  10.838
49570SOL    HW150607   2.395   8.479  10.912
49570SOL    HW250608   2.318   8.527  10.790
49571SOL     OW50609   3.829   5.002   5.459
49571SOL    HW150610   3.738   4.986   5.437
49571SOL    HW250611   3.863   5.055   5.388
49572SOL     OW50612  13.600   0.554  12.628
49572SOL    HW150613  13.508   0.535  12.609
49572SOL    HW250614  13.632   0.598  12.549
49573SOL     OW50615   7.736   2.489  10.223
49573SOL    HW150616   7.701   2.422  10.165
49573SOL    HW250617   7.802   2.444  10.275
49574SOL     OW50618  12.908   4.566  12.795
49574SOL    HW150619  12.894   4.529  12.882
49574SOL    HW250620  12.826   4.550  12.748
49575SOL     OW50621  14.155  11.812  12.838
49575SOL    HW150622  14.095  11.743  12.810
49575SOL    HW250623  14.210  11.771  12.905
49576SOL     OW50624   5.175   0.352  11.337
49576SOL    HW150625   5.083   0.333  11.319
49576SOL    HW250626   5.195   0.428  11.282
49577SOL     OW50627   6.206   7.650   4.494
49577SOL    HW150628   6.176   7.739   4.476
49577SOL    HW250629   6.301   7.656   4.496
49578SOL     OW50630   1.506   2.453  13.511
49578SOL    HW150631   1.543   2.487  13.592
49578SOL    HW250632   1.541   2.511  13.443
49579SOL     OW50633  12.300   6.153  14.390
49579SOL    HW150634  12.394   6.171  14.391
49579SOL    HW250635  12.261   6.222  14.445
49580SOL     OW50636   7.378   0.772   3.456
49580SOL    HW150637   7.351   0.714   3.385
49580SOL    HW250638   7.472   0.787   3.441
49581SOL     OW50639  11.305   6.623  13.253
49581SOL    HW150640  11.273   6.546  13.205
49581SOL    HW250641  11.263   6.617  13.338
49582SOL     OW50642  11.326  14.454  13.449
49582SOL    HW150643  11.391  14.390  13.420
49582SOL    HW250644  11.369  14.504  13.518
49583SOL     OW50645   6.883   2.024   9.637
49583SOL    HW150646   6.832   1.943   9.648
49583SOL    HW250647   6.909   2.023   9.545
49584SOL     OW50648   9.945  11.776  14.209
49584SOL    HW150649   9.897  11.709  14.159
49584SOL    HW250650   9.882  11.806  14.274
49585SOL     OW50651  11.425  12.531   4.491
49585SOL    HW150652  11.414  12.437   4.504
49585SOL    HW250653  11.380  12.571   4.566
49586SOL     OW50654   7.999  13.918   7.762
49586SOL    HW150655   7.986  13.961   7.847
49586SOL    HW250656   8.090  13.888   7.765
49587SOL     OW50657   9.879   4.786   9.823
49587SOL    HW150658   9.845   4.771   9.911
49587SOL    HW250659   9.804   4.768   9.765
49588SOL     OW50660  10.922   3.270  13.517
49588SOL    HW150661  10.901   3.332  13.587
49588SOL    HW250662  10.910   3.184  13.558
49589SOL     OW50663   2.650   6.938   5.005
49589SOL    HW150664   2.609   7.007   5.058
49589SOL    HW250665   2.744   6.952   5.016
49590SOL     OW50666  10.254   3.841   9.895
49590SOL    HW150667  10.230   3.783   9.967
49590SOL    HW250668  10.350   3.842   9.895
49591SOL     OW50669  14.796   7.662   5.557
49591SOL    HW150670  14.855   7.598   5.518
49591SOL    HW250671  14.850   7.709   5.621
49592SOL     OW50672   8.518   2.938   8.952
49592SOL    HW150673   8.542   2.858   8.999
49592SOL    HW250674   8.427   2.924   8.926
49593SOL     OW50675   2.840   2.046  13.914
49593SOL    HW150676   2.853   2.098  13.834
49593SOL    HW250677   2.868   2.103  13.985
49594SOL     OW50678  14.263  10.807   9.782
49594SOL    HW150679  14.273  10.738   9.716
49594SOL    HW250680  14.352  10.835   9.801
49595SOL     OW50681   1.488  11.805  12.424
49595SOL    HW150682   1.572  11.838  12.456
49595SOL    HW250683   1.431  11.807  12.501
49596SOL     OW50684  11.551  12.353   9.019
49596SOL    HW150685  11.589  12.280   8.971
49596SOL    HW250686  11.482  12.314   9.072
49597SOL     OW50687   2.298  14.285   8.299
49597SOL    HW150688   2.310  14.194   8.271
49597SOL    HW250689   2.249  14.326   8.228
49598SOL     OW50690   3.459  14.359   6.034
49598SOL    HW150691   3.482  14.448   6.008
49598SOL    HW250692   3.463  14.309   5.953
49599SOL     OW50693   2.101  12.723  10.115
49599SOL    HW150694   2.068  12.781  10.046
49599SOL    HW250695   2.048  12.643  10.106
49600SOL     OW50696   0.934   9.986  12.696
49600SOL    HW150697   0.877  10.055  12.660
49600SOL    HW250698   0.977   9.949  12.619
49601SOL     OW50699  14.247   7.872   0.475
49601SOL    HW150700  14.319   7.850   0.416
49601SOL    HW250701  14.208   7.788   0.499
49602SOL     OW50702   4.111  11.577   5.982
49602SOL    HW150703   4.052  11.651   5.965
49602SOL    HW250704   4.136  11.545   5.896
49603SOL     OW50705   2.880   5.415   2.097
49603SOL    HW150706   2.876   5.438   2.190
49603SOL    HW250707   2.791   5.434   2.065
49604SOL     OW50708   1.403   4.902   0.806
49604SOL    HW150709   1.491   4.939   0.816
49604SOL    HW250710   1.409   4.814   0.844
49605SOL     OW50711   7.995  12.010   8.722
49605SOL    HW150712   8.085  11.995   8.751
49605SOL    HW250713   7.943  12.008   8.803
49606SOL     OW50714  13.113   5.895  10.235
49606SOL    HW150715  13.097   5.937  10.150
49606SOL    HW250716  13.030   5.902  10.281
49607SOL     OW50717  10.865   6.804   3.408
49607SOL    HW150718  10.803   6.782   3.477
49607SOL    HW250719  10.893   6.720   3.373
49608SOL     OW50720   6.363   6.937   0.839
49608SOL    HW150721   6.307   6.888   0.779
49608SOL    HW250722   6.407   7.001   0.783
49609SOL     OW50723   7.914  12.742   1.809
49609SOL    HW150724   7.866  12.825   1.816
49609SOL    HW250725   7.924  12.728   1.715
49610SOL     OW50726   4.685   4.068  11.345
49610SOL    HW150727   4.695   4.126  11.270
49610SOL    HW250728   4.594   4.039  11.343
49611SOL     OW50729   0.761  12.070  11.501
49611SOL    HW150730   0.831  12.095  11.441
49611SOL    HW250731   0.806  12.021  11.571
49612SOL     OW50732  14.308   0.933  14.058
49612SOL    HW150733  14.377   0.970  14.113
49612SOL    HW250734  14.246   1.005  14.046
49613SOL     OW50735   5.434   8.031  10.531
49613SOL    HW150736   5.343   8.013  10.509
49613SOL    HW250737   5.452   8.117  10.492
49614SOL     OW50738   1.503   5.181  12.090
49614SOL    HW150739   1.491   5.254  12.030
49614SOL    HW250740   1.553   5.117  12.040
49615SOL     OW50741   4.659   2.024  11.955
49615SOL    HW150742   4.586   1.963  11.966
49615SOL    HW250743   4.737   1.968  11.953
49616SOL     OW50744   4.831   4.695  10.474
49616SOL    HW150745   4.817   4.601  10.462
49616SOL    HW250746   4.753   4.725  10.521
49617SOL     OW50747   6.608  13.867  13.919
49617SOL    HW150748   6.580  13.780  13.889
49617SOL    HW250749   6.662  13.901  13.847
49618SOL     OW50750   2.253   2.232   0.312
49618SOL    HW150751   2.194   2.178   0.260
49618SOL    HW250752   2.239   2.204   0.402
49619SOL     OW50753   6.953   4.317   0.923
49619SOL    HW150754   7.006   4.326   0.844
49619SOL    HW250755   6.989   4.382   0.983
49620SOL     OW50756   9.920   5.981   7.238
49620SOL    HW150757   9.831   5.984   7.272
49620SOL    HW250758   9.914   5.926   7.160
49621SOL     OW50759   3.761  13.523   0.317
49621SOL    HW150760   3.705  13.597   0.296
49621SOL    HW250761   3.745  13.459   0.248
49622SOL     OW50762   5.980   3.838   8.422
49622SOL    HW150763   6.072   3.812   8.420
49622SOL    HW250764   5.933   3.755   8.428
49623SOL     OW50765   5.727   9.774  11.715
49623SOL    HW150766   5.768   9.703  11.765
49623SOL    HW250767   5.654   9.731  11.669
49624SOL     OW50768   0.064   6.879  13.925
49624SOL    HW150769   0.141   6.929  13.898
49624SOL    HW250770   0.003   6.887  13.851
49625SOL     OW50771   7.529   5.763   6.339
49625SOL    HW150772   7.490   5.680   6.311
49625SOL    HW250773   7.485   5.785   6.421
49626SOL     OW50774   9.098  13.719  13.748
49626SOL    HW150775   9.167  13.731  13.683
49626SOL    HW250776   9.144  13.718  13.832
49627SOL     OW50777   2.287   6.100   8.304
49627SOL    HW150778   2.350   6.156   8.349
49627SOL    HW250779   2.210   6.155   8.292
49628SOL     OW50780  12.287   8.938   8.349
49628SOL    HW150781  12.299   8.847   8.377
49628SOL    HW250782  12.318   8.940   8.258
49629SOL     OW50783  14.465  11.632   1.913
49629SOL    HW150784  14.370  11.637   1.926
49629SOL    HW250785  14.479  11.545   1.874
49630SOL     OW50786   0.748  11.620   9.367
49630SOL    HW150787   0.687  11.592   9.299
49630SOL    HW250788   0.757  11.543   9.424
49631SOL     OW50789   7.151   3.002   7.203
49631SOL    HW150790   7.218   3.005   7.271
49631SOL    HW250791   7.185   3.057   7.133
49632SOL     OW50792   9.694   3.394   0.702
49632SOL    HW150793   9.636   3.468   0.686
49632SOL    HW250794   9.636   3.317   0.705
49633SOL     OW50795   0.744   5.786   3.243
49633SOL    HW150796   0.707   5.703   3.213
49633SOL    HW250797   0.757   5.774   3.337
49634SOL     OW50798   0.905   8.282   5.641
49634SOL    HW150799   0.907   8.187   5.655
49634SOL    HW250800   0.813   8.306   5.652
49635SOL     OW50801  10.037  12.876   7.999
49635SOL    HW150802  10.066  12.954   8.047
49635SOL    HW250803  10.016  12.812   8.067
49636SOL     OW50804  10.325   9.093  13.690
49636SOL    HW150805  10.394   9.049  13.640
49636SOL    HW250806  10.371   9.158  13.743
49637SOL     OW50807   7.621   0.031  11.516
49637SOL    HW150808   7.668   0.020  11.598
49637SOL    HW250809   7.654   0.114  11.481
49638SOL     OW50810   8.963  12.528   1.431
49638SOL    HW150811   8.963  12.544   1.525
49638SOL    HW250812   8.904  12.594   1.395
49639SOL     OW50813  10.950   3.878   1.439
49639SOL    HW150814  10.988   3.791   1.429
49639SOL    HW250815  10.879   3.867   1.502
49640SOL     OW50816   3.295  10.857   2.498
49640SOL    HW150817   3.275  10.770   2.535
49640SOL    HW250818   3.389  10.868   2.515
49641SOL     OW50819  10.971   4.977   6.590
49641SOL    HW150820  10.936   4.925   6.518
49641SOL    HW250821  10.927   4.943   6.668
49642SOL     OW50822  11.114  12.182  10.859
49642SOL    HW150823  11.108  12.255  10.921
49642SOL    HW250824  11.196  12.196  10.813
49643SOL     OW50825   0.110   8.238  13.033
49643SOL    HW150826   0.195   8.235  12.989
49643SOL    HW250827   0.130   8.219  13.125
49644SOL     OW50828   8.683   5.745  13.399
49644SOL    HW150829   8.606   5.727  13.346
49644SOL    HW250830   8.709   5.834  13.376
49645SOL     OW50831   3.149   7.698  12.450
49645SOL    HW150832   3.158   7.665  12.361
49645SOL    HW250833   3.119   7.788  12.440
49646SOL     OW50834   8.291   0.082  10.373
49646SOL    HW150835   8.234   0.123  10.308
49646SOL    HW250836   8.252   0.106  10.457
49647SOL     OW50837  11.925  10.370   7.196
49647SOL    HW150838  11.943  10.394   7.287
49647SOL    HW250839  12.011  10.357   7.157
49648SOL     OW50840  11.247   6.004  13.543
49648SOL    HW150841  11.259   6.083  13.596
49648SOL    HW250842  11.261   5.932  13.605
49649SOL     OW50843  10.338   0.429   5.529
49649SOL    HW150844  10.314   0.351   5.478
49649SOL    HW250845  10.255   0.472   5.546
49650SOL     OW50846   8.410   6.135   4.891
49650SOL    HW150847   8.343   6.202   4.877
49650SOL    HW250848   8.382   6.091   4.971
49651SOL     OW50849  13.076  12.149   1.467
49651SOL    HW150850  12.988  12.188   1.470
49651SOL    HW250851  13.131  12.210   1.517
49652SOL     OW50852   9.728   3.125   5.071
49652SOL    HW150853   9.743   3.195   5.135
49652SOL    HW250854   9.784   3.148   4.997
49653SOL     OW50855   5.581   6.635   1.138
49653SOL    HW150856   5.627   6.560   1.100
49653SOL    HW250857   5.607   6.635   1.230
49654SOL     OW50858   4.447   8.970  11.635
49654SOL    HW150859   4.368   9.018  11.609
49654SOL    HW250860   4.504   8.976  11.558
49655SOL     OW50861  14.252   7.480   4.074
49655SOL    HW150862  14.262   7.396   4.030
49655SOL    HW250863  14.308   7.473   4.152
49656SOL     OW50864   8.353   4.086   4.200
49656SOL    HW150865   8.356   4.000   4.158
49656SOL    HW250866   8.418   4.081   4.270
49657SOL     OW50867   9.391   8.464   7.675
49657SOL    HW150868   9.412   8.399   7.743
49657SOL    HW250869   9.304   8.440   7.644
49658SOL     OW50870  14.857  12.564   8.823
49658SOL    HW150871   0.001  12.650   8.864
49658SOL    HW250872  14.765  12.543   8.838
49659SOL     OW50873  14.162   7.868   0.773
49659SOL    HW150874  14.165   7.804   0.844
49659SOL    HW250875  14.235   7.844   0.716
49660SOL     OW50876   8.904   1.108   9.576
49660SOL    HW150877   8.866   1.185   9.619
49660SOL    HW250878   8.992   1.136   9.550
49661SOL     OW50879   5.777   1.591   4.864
49661SOL    HW150880   5.806   1.665   4.918
49661SOL    HW250881   5.790   1.620   4.774
49662SOL     OW50882   5.318   2.432   3.476
49662SOL    HW150883   5.245   2.376   3.500
49662SOL    HW250884   5.280   2.519   3.465
49663SOL     OW50885   4.315   9.151   3.800
49663SOL    HW150886   4.371   9.078   3.827
49663SOL    HW250887   4.362   9.229   3.828
49664SOL     OW50888   4.365   7.231   4.926
49664SOL    HW150889   4.439   7.292   4.925
49664SOL    HW250890   4.349   7.212   4.833
49665SOL     OW50891   6.196  14.420   0.624
49665SOL    HW150892   6.195  14.466   0.540
49665SOL    HW250893   6.152  14.337   0.606
49666SOL     OW50894   1.490  14.044  11.134
49666SOL    HW150895   1.519  14.135  11.134
49666SOL    HW250896   1.552  13.998  11.190
49667SOL     OW50897   8.723   2.969  10.489
49667SOL    HW150898   8.760   2.888  10.524
49667SOL    HW250899   8.730   3.032  10.561
49668SOL     OW50900   5.097   6.009   3.310
49668SOL    HW150901   5.071   6.051   3.392
49668SOL    HW250902   5.116   6.082   3.251
49669SOL     OW50903  11.984   0.749   6.587
49669SOL    HW150904  12.055   0.802   6.550
49669SOL    HW250905  12.016   0.659   6.581
49670SOL     OW50906   1.435   5.791   1.596
49670SOL    HW150907   1.413   5.873   1.550
49670SOL    HW250908   1.493   5.818   1.667
49671SOL     OW50909  14.514   1.063   4.424
49671SOL    HW150910  14.564   0.982   4.425
49671SOL    HW250911  14.467   1.063   4.507
49672SOL     OW50912   6.683  10.034  10.141
49672SOL    HW150913   6.680  10.052  10.235
49672SOL    HW250914   6.618  10.092  10.102
49673SOL     OW50915   9.736  13.926  12.659
49673SOL    HW150916   9.726  13.920  12.754
49673SOL    HW250917   9.696  13.846  12.625
49674SOL     OW50918  13.982  11.914   4.556
49674SOL    HW150919  13.935  11.966   4.490
49674SOL    HW250920  13.992  11.828   4.516
49675SOL     OW50921   5.151   4.906   2.797
49675SOL    HW150922   5.059   4.913   2.772
49675SOL    HW250923   5.171   4.990   2.839
49676SOL     OW50924   1.833   5.824   6.751
49676SOL    HW150925   1.760   5.877   6.783
49676SOL    HW250926   1.906   5.885   6.742
49677SOL     OW50927   5.980   8.321   1.354
49677SOL    HW150928   6.021   8.388   1.299
49677SOL    HW250929   6.006   8.344   1.443
49678SOL     OW50930  11.190   8.938   9.489
49678SOL    HW150931  11.241   9.014   9.518
49678SOL    HW250932  11.257   8.876   9.459
49679SOL     OW50933  12.369  13.254  14.247
49679SOL    HW150934  12.434  13.185  14.258
49679SOL    HW250935  12.347  13.252  14.154
49680SOL     OW50936  12.210   0.452   3.101
49680SOL    HW150937  12.233   0.470   3.192
49680SOL    HW250938  12.285   0.483   3.051
49681SOL     OW50939   1.971   3.456   0.504
49681SOL    HW150940   1.968   3.399   0.581
49681SOL    HW250941   2.001   3.540   0.537
49682SOL     OW50942   5.465   7.108  11.362
49682SOL    HW150943   5.557   7.100  11.385
49682SOL    HW250944   5.436   7.018  11.348
49683SOL     OW50945  10.542   7.329  12.841
49683SOL    HW150946  10.458   7.281  12.839
49683SOL    HW250947  10.522   7.413  12.800
49684SOL     OW50948  10.737   0.005   3.069
49684SOL    HW150949  10.715  14.842   2.981
49684SOL    HW250950  10.653   0.035   3.104
49685SOL     OW50951  13.960   6.365   7.751
49685SOL    HW150952  14.048   6.396   7.775
49685SOL    HW250953  13.947   6.287   7.804
49686SOL     OW50954   4.457   6.694   7.661
49686SOL    HW150955   4.482   6.601   7.662
49686SOL    HW250956   4.424   6.711   7.749
49687SOL     OW50957   7.477  14.125   0.611
49687SOL    HW150958   7.390  14.097   0.580
49687SOL    HW250959   7.490  14.075   0.692
49688SOL     OW50960   1.828  11.055  12.312
49688SOL    HW150961   1.742  11.026  12.341
49688SOL    HW250962   1.811  11.117  12.242
49689SOL     OW50963  10.621  14.483  11.905
49689SOL    HW150964  10.593  14.574  11.893
49689SOL    HW250965  10.594  14.461  11.994
49690SOL     OW50966  10.218   3.797  14.745
49690SOL    HW150967  10.141   3.756  14.784
49690SOL    HW250968  10.189   3.884  14.719
49691SOL     OW50969   2.270  13.370  13.203
49691SOL    HW150970   2.296  13.304  13.268
49691SOL    HW250971   2.183  13.343  13.176
49692SOL     OW50972  13.773   4.785   0.711
49692SOL    HW150973  13.865   4.778   0.684
49692SOL    HW250974  13.728   4.716   0.662
49693SOL     OW50975  14.635   3.123  10.763
49693SOL    HW150976  14.654   3.076  10.681
49693SOL    HW250977  14.541   3.140  10.760
49694SOL     OW50978  11.991   8.217   5.195
49694SOL    HW150979  12.054   8.231   5.265
49694SOL    HW250980  11.971   8.123   5.199
49695SOL     OW50981   4.656   7.226  10.071
49695SOL    HW150982   4.672   7.280  10.149
49695SOL    HW250983   4.563   7.240  10.051
49696SOL     OW50984   6.005   2.194   8.436
49696SOL    HW150985   6.071   2.218   8.501
49696SOL    HW250986   6.049   2.132   8.379
49697SOL     OW50987  14.283   0.691   5.360
49697SOL    HW150988  14.209   0.678   5.301
49697SOL    HW250989  14.360   0.688   5.302
49698SOL     OW50990   5.127   7.170  12.244
49698SOL    HW150991   5.113   7.205  12.157
49698SOL    HW250992   5.204   7.217  12.277
49699SOL     OW50993   9.598  10.791  12.337
49699SOL    HW150994   9.616  10.847  12.261
49699SOL    HW250995   9.582  10.853  12.409
49700SOL     OW50996  12.439   6.184   1.936
49700SOL    HW150997  12.413   6.109   1.882
49700SOL    HW250998  12.486   6.146   2.010
49701SOL     OW50999   7.207   7.115  13.981
49701SOL    HW151000   7.268   7.165  13.927
49701SOL    HW251001   7.182   7.041  13.927
49702SOL     OW51002   7.211   6.454  10.583
49702SOL    HW151003   7.196   6.543  10.614
49702SOL    HW251004   7.123   6.418  10.572
49703SOL     OW51005  13.132   7.826   6.370
49703SOL    HW151006  13.168   7.872   6.294
49703SOL    HW251007  13.188   7.852   6.443
49704SOL     OW51008   3.088   6.814   9.646
49704SOL    HW151009   3.057   6.726   9.625
49704SOL    HW251010   3.008   6.868   9.644
49705SOL     OW51011   6.438   8.623   6.522
49705SOL    HW151012   6.381   8.546   6.522
49705SOL    HW251013   6.379   8.696   6.503
49706SOL     OW51014  11.373   7.116   6.387
49706SOL    HW151015  11.316   7.184   6.350
49706SOL    HW251016  11.461   7.142   6.362
49707SOL     OW51017   6.765   1.760   8.556
49707SOL    HW151018   6.725   1.679   8.524
49707SOL    HW251019   6.851   1.734   8.587
49708SOL     OW51020   8.431   1.354   5.730
49708SOL    HW151021   8.492   1.305   5.674
49708SOL    HW251022   8.417   1.298   5.806
49709SOL     OW51023  13.573   6.339  11.663
49709SOL    HW151024  13.566   6.434  11.668
49709SOL    HW251025  13.623   6.314  11.740
49710SOL     OW51026   2.566  11.156   2.550
49710SOL    HW151027   2.624  11.232   2.549
49710SOL    HW251028   2.564  11.125   2.460
49711SOL     OW51029   6.081  11.304   3.382
49711SOL    HW151030   6.122  11.391   3.383
49711SOL    HW251031   6.011  11.311   3.446
49712SOL     OW51032  11.044  11.725   4.171
49712SOL    HW151033  11.022  11.815   4.146
49712SOL    HW251034  11.006  11.671   4.102
49713SOL     OW51035   0.110   5.541   1.834
49713SOL    HW151036   0.073   5.539   1.922
49713SOL    HW251037   0.071   5.466   1.790
49714SOL     OW51038  10.378   7.648   1.620
49714SOL    HW151039  10.319   7.686   1.685
49714SOL    HW251040  10.322   7.594   1.565
49715SOL     OW51041   4.230  12.716   8.194
49715SOL    HW151042   4.318  12.678   8.202
49715SOL    HW251043   4.236  12.773   8.117
49716SOL     OW51044   9.149   7.887   9.240
49716SOL    HW151045   9.187   7.974   9.245
49716SOL    HW251046   9.101   7.877   9.322
49717SOL     OW51047  13.472   4.941   7.394
49717SOL    HW151048  13.480   4.916   7.302
49717SOL    HW251049  13.551   4.906   7.435
49718SOL     OW51050   9.191   8.817   6.328
49718SOL    HW151051   9.205   8.912   6.329
49718SOL    HW251052   9.128   8.802   6.258
49719SOL     OW51053  11.633  12.020   2.631
49719SOL    HW151054  11.600  11.933   2.653
49719SOL    HW251055  11.710  12.004   2.577
49720SOL     OW51056  13.308  12.588   6.550
49720SOL    HW151057  13.306  12.664   6.607
49720SOL    HW251058  13.284  12.514   6.607
49721SOL     OW51059   5.024   2.644  12.959
49721SOL    HW151060   5.075   2.567  12.934
49721SOL    HW251061   5.067   2.717  12.914
49722SOL     OW51062   9.974  11.338  12.577
49722SOL    HW151063   9.888  11.366  12.547
49722SOL    HW251064   9.985  11.381  12.662
49723SOL     OW51065   5.748   1.150   1.122
49723SOL    HW151066   5.684   1.220   1.131
49723SOL    HW251067   5.696   1.072   1.100
49724SOL     OW51068   3.707   0.760   1.776
49724SOL    HW151069   3.686   0.676   1.735
49724SOL    HW251070   3.631   0.815   1.756
49725SOL     OW51071   4.907  11.735  11.436
49725SOL    HW151072   4.854  11.813  11.418
49725SOL    HW251073   4.971  11.764  11.501
49726SOL     OW51074   2.210   5.401   7.687
49726SOL    HW151075   2.188   5.494   7.687
49726SOL    HW251076   2.182   5.370   7.773
49727SOL     OW51077  11.721   3.487  10.496
49727SOL    HW151078  11.765   3.459  10.415
49727SOL    HW251079  11.703   3.580  10.482
49728SOL     OW51080  11.990   3.571   2.232
49728SOL    HW151081  11.989   3.622   2.314
49728SOL    HW251082  11.938   3.624   2.171
49729SOL     OW51083   6.917  10.721   5.692
49729SOL    HW151084   6.924  10.764   5.777
49729SOL    HW251085   6.943  10.789   5.629
49730SOL     OW51086  14.650  10.297   8.447
49730SOL    HW151087  14.642  10.228   8.512
49730SOL    HW251088  14.591  10.271   8.376
49731SOL     OW51089  11.482   3.199  10.721
49731SOL    HW151090  11.473   3.183  10.815
49731SOL    HW251091  11.572   3.228  10.710
49732SOL     OW51092  11.286   7.314  11.349
49732SOL    HW151093  11.258   7.369  11.423
49732SOL    HW251094  11.223   7.334  11.280
49733SOL     OW51095   5.242   3.667  10.347
49733SOL    HW151096   5.318   3.724  10.358
49733SOL    HW251097   5.240   3.613  10.426
49734SOL     OW51098   4.410   3.800   1.172
49734SOL    HW151099   4.393   3.796   1.077
49734SOL    HW251100   4.503   3.822   1.178
49735SOL     OW51101   7.802  13.015   4.386
49735SOL    HW151102   7.896  13.033   4.388
49735SOL    HW251103   7.763  13.089   4.432
49736SOL     OW51104   5.859   1.340   7.574
49736SOL    HW151105   5.891   1.412   7.628
49736SOL    HW251106   5.936   1.308   7.528
49737SOL     OW51107   8.911   1.497  14.689
49737SOL    HW151108   8.818   1.479  14.674
49737SOL    HW251109   8.917   1.593  14.685
49738SOL     OW51110   4.543  11.662   9.378
49738SOL    HW151111   4.491  11.656   9.458
49738SOL    HW251112   4.502  11.600   9.318
49739SOL     OW51113  11.003  11.531  13.657
49739SOL    HW151114  11.055  11.609  13.678
49739SOL    HW251115  10.917  11.566  13.632
49740SOL     OW51116   9.812   0.611   3.652
49740SOL    HW151117   9.884   0.673   3.658
49740SOL    HW251118   9.789   0.610   3.559
49741SOL     OW51119  14.540   8.660   4.205
49741SOL    HW151120  14.501   8.599   4.143
49741SOL    HW251121  14.615   8.613   4.241
49742SOL     OW51122   4.070  10.867   5.622
49742SOL    HW151123   4.133  10.936   5.603
49742SOL    HW251124   4.079  10.852   5.716
49743SOL     OW51125   9.880   4.352   1.080
49743SOL    HW151126   9.968   4.370   1.048
49743SOL    HW251127   9.887   4.267   1.123
49744SOL     OW51128  14.772   8.719   3.787
49744SOL    HW151129  14.831   8.706   3.861
49744SOL    HW251130  14.826   8.703   3.710
49745SOL     OW51131   0.014   1.657   0.002
49745SOL    HW151132   0.007   1.744   0.043
49745SOL    HW251133  14.828   1.600   0.056
49746SOL     OW51134  12.122  13.898   6.437
49746SOL    HW151135  12.031  13.919   6.417
49746SOL    HW251136  12.118  13.814   6.482
49747SOL     OW51137  11.499   1.581   1.531
49747SOL    HW151138  11.465   1.494   1.550
49747SOL    HW251139  11.435   1.641   1.569
49748SOL     OW51140   7.867   4.680   4.551
49748SOL    HW151141   7.957   4.696   4.579
49748SOL    HW251142   7.866   4.701   4.458
49749SOL     OW51143   4.177   2.506   3.383
49749SOL    HW151144   4.238   2.553   3.440
49749SOL    HW251145   4.109   2.474   3.442
49750SOL     OW51146   7.116   4.007   9.782
49750SOL    HW151147   7.029   4.045   9.769
49750SOL    HW251148   7.157   4.009   9.695
49751SOL     OW51149   8.008   0.091  13.014
49751SOL    HW151150   8.020   0.185  13.023
49751SOL    HW251151   7.956   0.080  12.935
49752SOL     OW51152  14.770  12.633   6.622
49752SOL    HW151153  14.682  12.604   6.649
49752SOL    HW251154  14.830  12.581   6.676
49753SOL     OW51155  11.390  14.537   2.361
49753SOL    HW151156  11.467  14.579   2.398
49753SOL    HW251157  11.419  14.508   2.274
49754SOL     OW51158  14.618  12.098   2.534
49754SOL    HW151159  14.633  12.064   2.622
49754SOL    HW251160  14.564  12.176   2.547
49755SOL     OW51161  13.508  11.842   8.149
49755SOL    HW151162  13.474  11.927   8.175
49755SOL    HW251163  13.449  11.812   8.080
49756SOL     OW51164   3.014   6.374  10.534
49756SOL    HW151165   2.945   6.398  10.596
49756SOL    HW251166   2.996   6.427  10.457
49757SOL     OW51167  14.397   2.584   7.911
49757SOL    HW151168  14.344   2.553   7.984
49757SOL    HW251169  14.433   2.504   7.872
49758SOL     OW51170   5.321  13.668   7.630
49758SOL    HW151171   5.321  13.658   7.535
49758SOL    HW251172   5.399  13.721   7.648
49759SOL     OW51173   9.409  13.937   6.294
49759SOL    HW151174   9.346  13.959   6.225
49759SOL    HW251175   9.484  13.993   6.277
49760SOL     OW51176   0.586   0.778  10.900
49760SOL    HW151177   0.672   0.803  10.931
49760SOL    HW251178   0.572   0.832  10.822
49761SOL     OW51179  10.059  14.830   3.987
49761SOL    HW151180  10.016   0.031   3.936
49761SOL    HW251181  10.145  14.821   3.947
49762SOL     OW51182   7.139   9.376  11.815
49762SOL    HW151183   7.113   9.299  11.867
49762SOL    HW251184   7.226   9.355  11.783
49763SOL     OW51185  13.048   5.953  14.581
49763SOL    HW151186  13.034   5.869  14.625
49763SOL    HW251187  13.117   5.935  14.517
49764SOL     OW51188   5.227  13.351   1.039
49764SOL    HW151189   5.261  13.362   0.951
49764SOL    HW251190   5.190  13.436   1.062
49765SOL     OW51191   0.949  14.066   1.484
49765SOL    HW151192   0.949  14.002   1.413
49765SOL    HW251193   0.894  14.026   1.551
49766SOL     OW51194   8.420   6.663   2.793
49766SOL    HW151195   8.473   6.598   2.746
49766SOL    HW251196   8.473   6.684   2.870
49767SOL     OW51197   2.487   3.423   0.893
49767SOL    HW151198   2.431   3.402   0.967
49767SOL    HW251199   2.426   3.447   0.823
49768SOL     OW51200   6.314  11.828   0.815
49768SOL    HW151201   6.333  11.739   0.784
49768SOL    HW251202   6.257  11.865   0.748
49769SOL     OW51203   4.419   6.815   3.522
49769SOL    HW151204   4.376   6.749   3.576
49769SOL    HW251205   4.351   6.879   3.503
49770SOL     OW51206   8.612   4.855  14.440
49770SOL    HW151207   8.667   4.881  14.366
49770SOL    HW251208   8.647   4.904  14.515
49771SOL     OW51209   2.447   0.889   4.199
49771SOL    HW151210   2.495   0.937   4.133
49771SOL    HW251211   2.414   0.811   4.153
49772SOL     OW51212   1.383  10.275  14.341
49772SOL    HW151213   1.429  10.200  14.380
49772SOL    HW251214   1.347  10.240  14.259
49773SOL     OW51215  12.153   4.556   3.968
49773SOL    HW151216  12.201   4.570   3.887
49773SOL    HW251217  12.074   4.609   3.958
49774SOL     OW51218   6.878   0.314   9.994
49774SOL    HW151219   6.845   0.316   9.904
49774SOL    HW251220   6.847   0.396  10.032
49775SOL     OW51221   2.898  14.552   2.316
49775SOL    HW151222   2.899  14.527   2.224
49775SOL    HW251223   2.926  14.472   2.362
49776SOL     OW51224  11.942   0.513  11.401
49776SOL    HW151225  12.035   0.534  11.411
49776SOL    HW251226  11.911   0.573  11.333
49777SOL     OW51227  11.508   6.298  11.560
49777SOL    HW151228  11.543   6.220  11.604
49777SOL    HW251229  11.496   6.362  11.631
49778SOL     OW51230  12.608   3.093  12.739
49778SOL    HW151231  12.576   3.014  12.783
49778SOL    HW251232  12.580   3.082  12.648
49779SOL     OW51233   6.143   1.524  13.704
49779SOL    HW151234   6.101   1.584  13.642
49779SOL    HW251235   6.127   1.437  13.667
49780SOL     OW51236   4.810   6.119  12.757
49780SOL    HW151237   4.853   6.044  12.717
49780SOL    HW251238   4.728   6.085  12.790
49781SOL     OW51239  14.491   6.720  13.740
49781SOL    HW151240  14.515   6.664  13.815
49781SOL    HW251241  14.399   6.699  13.724
49782SOL     OW51242   3.507   0.335   5.680
49782SOL    HW151243   3.591   0.289   5.673
49782SOL    HW251244   3.528   0.421   5.716
49783SOL     OW51245  11.633  14.109   8.108
49783SOL    HW151246  11.601  14.094   8.197
49783SOL    HW251247  11.728  14.103   8.115
49784SOL     OW51248   2.396   8.708   4.629
49784SOL    HW151249   2.490   8.713   4.642
49784SOL    HW251250   2.366   8.646   4.696
49785SOL     OW51251  11.565   5.262   3.716
49785SOL    HW151252  11.647   5.293   3.679
49785SOL    HW251253  11.571   5.167   3.713
49786SOL     OW51254   8.201   4.402  10.782
49786SOL    HW151255   8.158   4.320  10.809
49786SOL    HW251256   8.210   4.452  10.863
49787SOL     OW51257   2.414   0.648  12.368
49787SOL    HW151258   2.351   0.576  12.375
49787SOL    HW251259   2.488   0.610  12.321
49788SOL     OW51260   6.724   4.205  13.848
49788SOL    HW151261   6.731   4.140  13.778
49788SOL    HW251262   6.638   4.246  13.834
49789SOL     OW51263   4.082   6.018   6.116
49789SOL    HW151264   4.149   5.964   6.158
49789SOL    HW251265   3.999   5.980   6.144
49790SOL     OW51266   0.033   6.401   3.373
49790SOL    HW151267   0.070   6.401   3.285
49790SOL    HW251268  14.822   6.347   3.365
49791SOL     OW51269  11.590   2.444   8.126
49791SOL    HW151270  11.616   2.467   8.215
49791SOL    HW251271  11.517   2.384   8.137
49792SOL     OW51272   5.201  12.810   2.536
49792SOL    HW151273   5.212  12.832   2.443
49792SOL    HW251274   5.182  12.895   2.578
49793SOL     OW51275   7.862   1.141  14.684
49793SOL    HW151276   7.792   1.161  14.746
49793SOL    HW251277   7.943   1.156  14.733
49794SOL     OW51278  14.693   9.572   1.631
49794SOL    HW151279  14.661   9.543   1.546
49794SOL    HW251280  14.655   9.511   1.694
49795SOL     OW51281   0.087  11.841   4.705
49795SOL    HW151282   0.013  11.783   4.721
49795SOL    HW251283   0.135  11.842   4.788
49796SOL     OW51284   5.246   4.082   4.593
49796SOL    HW151285   5.194   4.063   4.671
49796SOL    HW251286   5.337   4.082   4.625
49797SOL     OW51287   8.156   2.977  14.598
49797SOL    HW151288   8.122   2.955  14.685
49797SOL    HW251289   8.248   2.999  14.613
49798SOL     OW51290   0.162   7.415   2.179
49798SOL    HW151291   0.242   7.371   2.207
49798SOL    HW251292   0.114   7.430   2.261
49799SOL     OW51293   4.874   6.522  10.523
49799SOL    HW151294   4.915   6.471  10.452
49799SOL    HW251295   4.804   6.571  10.480
49800SOL     OW51296   9.400   9.560   7.409
49800SOL    HW151297   9.311   9.592   7.396
49800SOL    HW251298   9.454   9.639   7.411
49801SOL     OW51299  10.141   3.930   1.614
49801SOL    HW151300  10.151   3.836   1.628
49801SOL    HW251301  10.056   3.951   1.653
49802SOL     OW51302  10.025   7.329   9.299
49802SOL    HW151303  10.115   7.361   9.291
49802SOL    HW251304  10.027   7.271   9.375
49803SOL     OW51305   5.721   0.494   0.915
49803SOL    HW151306   5.647   0.477   0.857
49803SOL    HW251307   5.725   0.418   0.973
49804SOL     OW51308  12.842   8.164   5.052
49804SOL    HW151309  12.814   8.096   4.990
49804SOL    HW251310  12.909   8.121   5.105
49805SOL     OW51311   3.674   7.480   0.939
49805SOL    HW151312   3.608   7.545   0.914
49805SOL    HW251313   3.735   7.479   0.866
49806SOL     OW51314   7.568   1.001  14.254
49806SOL    HW151315   7.489   0.948  14.262
49806SOL    HW251316   7.588   1.001  14.160
49807SOL     OW51317   2.044  14.794   2.120
49807SOL    HW151318   2.078  14.761   2.203
49807SOL    HW251319   2.031  14.716   2.067
49808SOL     OW51320  12.334   0.068   8.656
49808SOL    HW151321  12.397   0.081   8.585
49808SOL    HW251322  12.387   0.043   8.731
49809SOL     OW51323  12.588   1.445   3.692
49809SOL    HW151324  12.633   1.492   3.762
49809SOL    HW251325  12.522   1.506   3.661
49810SOL     OW51326  11.240  14.479  10.145
49810SOL    HW151327  11.293  14.414  10.100
49810SOL    HW251328  11.149  14.451  10.131
49811SOL     OW51329   7.050   0.256  14.578
49811SOL    HW151330   7.133   0.209  14.593
49811SOL    HW251331   7.002   0.200  14.517
49812SOL     OW51332   2.407   1.270  12.962
49812SOL    HW151333   2.466   1.288  12.890
49812SOL    HW251334   2.425   1.340  13.026
49813SOL     OW51335  12.673   6.102   4.085
49813SOL    HW151336  12.635   6.061   4.007
49813SOL    HW251337  12.652   6.042   4.157
49814SOL     OW51338   1.399   1.771   0.914
49814SOL    HW151339   1.467   1.815   0.863
49814SOL    HW251340   1.321   1.777   0.859
49815SOL     OW51341   1.607   2.938   1.529
49815SOL    HW151342   1.539   2.971   1.470
49815SOL    HW251343   1.601   2.843   1.523
49816SOL     OW51344   5.674  12.034   7.277
49816SOL    HW151345   5.761  12.042   7.317
49816SOL    HW251346   5.639  11.952   7.313
49817SOL     OW51347   5.934  11.575   1.102
49817SOL    HW151348   6.014  11.594   1.053
49817SOL    HW251349   5.965  11.554   1.190
49818SOL     OW51350  10.442   1.790   3.380
49818SOL    HW151351  10.359   1.837   3.388
49818SOL    HW251352  10.498   1.829   3.447
49819SOL     OW51353  11.153  12.846   5.602
49819SOL    HW151354  11.155  12.842   5.697
49819SOL    HW251355  11.227  12.792   5.573
49820SOL     OW51356   9.667   8.998   4.073
49820SOL    HW151357   9.754   8.993   4.113
49820SOL    HW251358   9.648   9.092   4.071
49821SOL     OW51359   0.616   3.771   0.102
49821SOL    HW151360   0.618   3.866   0.115
49821SOL    HW251361   0.545   3.741   0.159
49822SOL     OW51362   9.349   5.299  13.345
49822SOL    HW151363   9.441   5.288  13.323
49822SOL    HW251364   9.347   5.379  13.398
49823SOL     OW51365   3.760  11.370   5.802
49823SOL    HW151366   3.724  11.309   5.866
49823SOL    HW251367   3.685  11.394   5.747
49824SOL     OW51368   3.310   3.761   8.219
49824SOL    HW151369   3.263   3.827   8.269
49824SOL    HW251370   3.243   3.720   8.164
49825SOL     OW51371   3.745   6.687  11.045
49825SOL    HW151372   3.650   6.697  11.049
49825SOL    HW251373   3.777   6.772  11.015
49826SOL     OW51374   8.607  13.870   9.593
49826SOL    HW151375   8.685  13.894   9.644
49826SOL    HW251376   8.537  13.867   9.657
49827SOL     OW51377  13.692   1.651   1.530
49827SOL    HW151378  13.748   1.652   1.452
49827SOL    HW251379  13.691   1.743   1.560
49828SOL     OW51380  12.973   9.685  11.914
49828SOL    HW151381  12.989   9.660  11.823
49828SOL    HW251382  12.996   9.607  11.965
49829SOL     OW51383   6.328   8.915   7.853
49829SOL    HW151384   6.350   9.004   7.879
49829SOL    HW251385   6.238   8.920   7.822
49830SOL     OW51386  10.869   4.118   0.617
49830SOL    HW151387  10.928   4.071   0.677
49830SOL    HW251388  10.927   4.174   0.565
49831SOL     OW51389   6.915   1.421   8.475
49831SOL    HW151390   6.835   1.457   8.512
49831SOL    HW251391   6.893   1.330   8.454
49832SOL     OW51392   0.481   9.431   2.758
49832SOL    HW151393   0.549   9.375   2.720
49832SOL    HW251394   0.478   9.507   2.701
49833SOL     OW51395   7.576  13.367  13.317
49833SOL    HW151396   7.618  13.285  13.344
49833SOL    HW251397   7.505  13.341  13.260
49834SOL     OW51398   7.220   2.589  14.608
49834SOL    HW151399   7.190   2.516  14.554
49834SOL    HW251400   7.154   2.596  14.677
49835SOL     OW51401   6.031  10.083   5.141
49835SOL    HW151402   6.041  10.159   5.084
49835SOL    HW251403   6.079  10.106   5.220
49836SOL     OW51404   0.343  14.682  11.842
49836SOL    HW151405   0.355  14.720  11.755
49836SOL    HW251406   0.382  14.595  11.837
49837SOL     OW51407  13.444   2.059   7.710
49837SOL    HW151408  13.410   2.144   7.738
49837SOL    HW251409  13.443   2.005   7.790
49838SOL     OW51410   8.680   9.534   2.388
49838SOL    HW151411   8.744   9.579   2.443
49838SOL    HW251412   8.617   9.496   2.450
49839SOL     OW51413   0.998   3.343  14.548
49839SOL    HW151414   0.930   3.277  14.529
49839SOL    HW251415   0.956   3.403  14.610
49840SOL     OW51416   8.862   3.135  11.294
49840SOL    HW151417   8.931   3.120  11.230
49840SOL    HW251418   8.791   3.174  11.243
49841SOL     OW51419   4.026   5.033   8.320
49841SOL    HW151420   4.030   4.984   8.238
49841SOL    HW251421   3.986   5.116   8.297
49842SOL     OW51422   5.779   1.588  10.325
49842SOL    HW151423   5.873   1.604  10.323
49842SOL    HW251424   5.758   1.580  10.418
49843SOL     OW51425   8.001   1.645   1.816
49843SOL    HW151426   8.056   1.598   1.878
49843SOL    HW251427   7.967   1.720   1.865
49844SOL     OW51428   5.805   3.032   1.873
49844SOL    HW151429   5.900   3.036   1.873
49844SOL    HW251430   5.782   2.993   1.789
49845SOL     OW51431   5.073  11.343  12.042
49845SOL    HW151432   5.127  11.307  11.972
49845SOL    HW251433   5.090  11.285  12.117
49846SOL     OW51434  11.907  13.738   7.130
49846SOL    HW151435  11.878  13.653   7.096
49846SOL    HW251436  11.832  13.771   7.180
49847SOL     OW51437   6.546  11.572   7.000
49847SOL    HW151438   6.596  11.554   6.921
49847SOL    HW251439   6.479  11.635   6.973
49848SOL     OW51440   4.546   2.353   4.959
49848SOL    HW151441   4.575   2.275   4.911
49848SOL    HW251442   4.538   2.420   4.891
49849SOL     OW51443  12.030  12.439   7.401
49849SOL    HW151444  12.017  12.361   7.347
49849SOL    HW251445  11.984  12.420   7.483
49850SOL     OW51446   1.830   8.354  10.297
49850SOL    HW151447   1.831   8.380  10.389
49850SOL    HW251448   1.913   8.309  10.283
49851SOL     OW51449  13.908   4.007  11.232
49851SOL    HW151450  13.969   4.041  11.297
49851SOL    HW251451  13.917   4.066  11.157
49852SOL     OW51452   8.489  11.692  12.749
49852SOL    HW151453   8.440  11.709  12.668
49852SOL    HW251454   8.449  11.613  12.785
49853SOL     OW51455   2.347  14.593   0.808
49853SOL    HW151456   2.322  14.604   0.717
49853SOL    HW251457   2.267  14.567   0.853
49854SOL     OW51458   1.405   5.818  10.801
49854SOL    HW151459   1.398   5.805  10.706
49854SOL    HW251460   1.379   5.909  10.815
49855SOL     OW51461   5.551  14.120   2.048
49855SOL    HW151462   5.486  14.139   2.116
49855SOL    HW251463   5.626  14.176   2.070
49856SOL     OW51464   5.139  13.379   1.597
49856SOL    HW151465   5.223  13.411   1.563
49856SOL    HW251466   5.080  13.382   1.522
49857SOL     OW51467   3.993   9.915  12.626
49857SOL    HW151468   3.972   9.993  12.574
49857SOL    HW251469   4.060   9.870  12.574
49858SOL     OW51470  12.176   5.064   4.826
49858SOL    HW151471  12.165   5.152   4.862
49858SOL    HW251472  12.094   5.020   4.845
49859SOL     OW51473  12.072   1.185   8.640
49859SOL    HW151474  11.994   1.206   8.588
49859SOL    HW251475  12.038   1.171   8.729
49860SOL     OW51476   6.435   3.389   0.066
49860SOL    HW151477   6.492   3.344   0.128
49860SOL    HW251478   6.360   3.331   0.056
49861SOL     OW51479   6.900  11.920  10.984
49861SOL    HW151480   6.941  12.003  10.962
49861SOL    HW251481   6.821  11.917  10.930
49862SOL     OW51482  11.722  13.805   8.384
49862SOL    HW151483  11.670  13.811   8.303
49862SOL    HW251484  11.667  13.845   8.451
49863SOL     OW51485   2.688  12.186   6.091
49863SOL    HW151486   2.718  12.100   6.061
49863SOL    HW251487   2.737  12.248   6.037
49864SOL     OW51488   1.797   2.885  12.201
49864SOL    HW151489   1.745   2.952  12.246
49864SOL    HW251490   1.886   2.897  12.235
49865SOL     OW51491   7.857  14.829   5.275
49865SOL    HW151492   7.786   0.026   5.274
49865SOL    HW251493   7.937   0.013   5.283
49866SOL     OW51494   8.031  13.574   6.633
49866SOL    HW151495   8.110  13.556   6.684
49866SOL    HW251496   8.058  13.560   6.542
49867SOL     OW51497   5.183   6.847   0.884
49867SOL    HW151498   5.206   6.849   0.977
49867SOL    HW251499   5.224   6.768   0.850
49868SOL     OW51500  13.519   3.991  11.010
49868SOL    HW151501  13.598   3.997  10.955
49868SOL    HW251502  13.533   4.056  11.078
49869SOL     OW51503  10.593   5.452   9.327
49869SOL    HW151504  10.597   5.489   9.415
49869SOL    HW251505  10.654   5.506   9.276
49870SOL     OW51506   7.694  11.936  11.370
49870SOL    HW151507   7.698  11.907  11.279
49870SOL    HW251508   7.641  12.016  11.368
49871SOL     OW51509   8.394   4.178  14.249
49871SOL    HW151510   8.411   4.272  14.253
49871SOL    HW251511   8.481   4.138  14.257
49872SOL     OW51512  10.654   3.089   5.056
49872SOL    HW151513  10.686   3.081   5.146
49872SOL    HW251514  10.728   3.063   5.002
49873SOL     OW51515   2.485   3.923   8.486
49873SOL    HW151516   2.526   3.844   8.521
49873SOL    HW251517   2.398   3.896   8.460
49874SOL     OW51518   3.842   5.900   5.110
49874SOL    HW151519   3.890   5.884   5.028
49874SOL    HW251520   3.764   5.947   5.083
49875SOL     OW51521   4.709   6.386   2.556
49875SOL    HW151522   4.682   6.463   2.605
49875SOL    HW251523   4.691   6.313   2.615
49876SOL     OW51524  13.964   7.396   3.934
49876SOL    HW151525  13.965   7.312   3.889
49876SOL    HW251526  13.885   7.393   3.988
49877SOL     OW51527   8.581   2.115   2.441
49877SOL    HW151528   8.514   2.175   2.473
49877SOL    HW251529   8.646   2.172   2.399
49878SOL     OW51530   2.302   3.747  14.099
49878SOL    HW151531   2.329   3.664  14.140
49878SOL    HW251532   2.381   3.802  14.103
49879SOL     OW51533   3.054   8.472   0.531
49879SOL    HW151534   2.975   8.421   0.547
49879SOL    HW251535   3.126   8.415   0.559
49880SOL     OW51536   5.819  11.216  10.565
49880SOL    HW151537   5.892  11.250  10.513
49880SOL    HW251538   5.775  11.155  10.506
49881SOL     OW51539   8.455  12.301   9.254
49881SOL    HW151540   8.399  12.366   9.295
49881SOL    HW251541   8.524  12.284   9.319
49882SOL     OW51542  10.925   8.201   8.841
49882SOL    HW151543  10.964   8.123   8.801
49882SOL    HW251544  10.834   8.199   8.812
49883SOL     OW51545   1.551   8.913   1.401
49883SOL    HW151546   1.646   8.914   1.415
49883SOL    HW251547   1.525   8.823   1.415
49884SOL     OW51548   9.683   0.719   0.609
49884SOL    HW151549   9.715   0.714   0.519
49884SOL    HW251550   9.763   0.724   0.662
49885SOL     OW51551   8.500  10.866  11.548
49885SOL    HW151552   8.442  10.801  11.590
49885SOL    HW251553   8.535  10.820  11.472
49886SOL     OW51554   6.760   6.792   8.901
49886SOL    HW151555   6.728   6.704   8.880
49886SOL    HW251556   6.731   6.846   8.827
49887SOL     OW51557  12.210   9.366  11.546
49887SOL    HW151558  12.117   9.352  11.563
49887SOL    HW251559  12.238   9.426  11.616
49888SOL     OW51560  11.551  11.750  12.243
49888SOL    HW151561  11.530  11.741  12.337
49888SOL    HW251562  11.538  11.843  12.225
49889SOL     OW51563   2.928   4.109   7.120
49889SOL    HW151564   3.013   4.087   7.081
49889SOL    HW251565   2.869   4.119   7.044
49890SOL     OW51566  12.918   7.152   4.463
49890SOL    HW151567  12.842   7.095   4.448
49890SOL    HW251568  12.904   7.187   4.552
49891SOL     OW51569   8.287   8.965  10.489
49891SOL    HW151570   8.276   9.028  10.417
49891SOL    HW251571   8.311   9.019  10.564
49892SOL     OW51572   0.487  12.792   2.378
49892SOL    HW151573   0.498  12.697   2.373
49892SOL    HW251574   0.449  12.816   2.293
49893SOL     OW51575   1.506   4.191   7.818
49893SOL    HW151576   1.488   4.236   7.900
49893SOL    HW251577   1.601   4.176   7.818
49894SOL     OW51578   4.728   2.942   1.609
49894SOL    HW151579   4.633   2.946   1.619
49894SOL    HW251580   4.745   2.850   1.588
49895SOL     OW51581   1.298   4.628   6.845
49895SOL    HW151582   1.382   4.641   6.802
49895SOL    HW251583   1.251   4.710   6.832
49896SOL     OW51584   2.103   0.350   5.545
49896SOL    HW151585   2.125   0.436   5.511
49896SOL    HW251586   2.026   0.323   5.495
49897SOL     OW51587  12.924   7.538   4.301
49897SOL    HW151588  12.965   7.587   4.230
49897SOL    HW251589  12.852   7.593   4.331
49898SOL     OW51590   5.332  10.411  14.422
49898SOL    HW151591   5.305  10.490  14.469
49898SOL    HW251592   5.315  10.339  14.483
49899SOL     OW51593   4.998   1.166   4.634
49899SOL    HW151594   5.049   1.164   4.552
49899SOL    HW251595   4.979   1.259   4.647
49900SOL     OW51596   8.717   8.587  11.782
49900SOL    HW151597   8.691   8.662  11.730
49900SOL    HW251598   8.779   8.622  11.846
49901SOL     OW51599  13.412  12.621   8.108
49901SOL    HW151600  13.441  12.655   8.023
49901SOL    HW251601  13.404  12.526   8.093
49902SOL     OW51602   8.536   6.963   2.197
49902SOL    HW151603   8.457   6.953   2.144
49902SOL    HW251604   8.564   6.874   2.216
49903SOL     OW51605   2.753   2.800   0.867
49903SOL    HW151606   2.706   2.867   0.819
49903SOL    HW251607   2.820   2.769   0.806
49904SOL     OW51608   2.282  14.387  12.171
49904SOL    HW151609   2.254  14.474  12.141
49904SOL    HW251610   2.378  14.389  12.160
49905SOL     OW51611   5.116  10.881  11.768
49905SOL    HW151612   5.192  10.939  11.774
49905SOL    HW251613   5.120  10.829  11.849
49906SOL     OW51614   5.694   6.568  12.207
49906SOL    HW151615   5.680   6.653  12.249
49906SOL    HW251616   5.701   6.588  12.114
49907SOL     OW51617  12.342  12.254   0.852
49907SOL    HW151618  12.348  12.297   0.767
49907SOL    HW251619  12.254  12.217   0.854
49908SOL     OW51620  12.392   9.894  10.670
49908SOL    HW151621  12.299   9.915  10.675
49908SOL    HW251622  12.411   9.853  10.754
49909SOL     OW51623  10.621   9.369   6.355
49909SOL    HW151624  10.617   9.446   6.298
49909SOL    HW251625  10.619   9.405   6.444
49910SOL     OW51626  10.961   5.076   8.807
49910SOL    HW151627  10.964   5.025   8.726
49910SOL    HW251628  10.934   5.163   8.779
49911SOL     OW51629  10.467  12.151   3.370
49911SOL    HW151630  10.514  12.158   3.287
49911SOL    HW251631  10.404  12.224   3.368
49912SOL     OW51632   9.443   8.263   3.794
49912SOL    HW151633   9.480   8.272   3.706
49912SOL    HW251634   9.503   8.312   3.851
49913SOL     OW51635   6.220   3.284  13.227
49913SOL    HW151636   6.169   3.210  13.195
49913SOL    HW251637   6.160   3.359  13.223
49914SOL     OW51638   8.336   6.879   6.287
49914SOL    HW151639   8.379   6.930   6.356
49914SOL    HW251640   8.400   6.813   6.262
49915SOL     OW51641  14.248   2.999   2.093
49915SOL    HW151642  14.252   3.084   2.137
49915SOL    HW251643  14.154   2.979   2.088
49916SOL     OW51644  13.460   5.318  10.800
49916SOL    HW151645  13.472   5.399  10.752
49916SOL    HW251646  13.371   5.290  10.778
49917SOL     OW51647  10.908   6.861   0.580
49917SOL    HW151648  10.855   6.886   0.504
49917SOL    HW251649  10.972   6.798   0.545
49918SOL     OW51650   2.604   3.949  10.516
49918SOL    HW151651   2.591   4.019  10.452
49918SOL    HW251652   2.698   3.933  10.516
49919SOL     OW51653   4.770   5.721  13.229
49919SOL    HW151654   4.741   5.683  13.312
49919SOL    HW251655   4.861   5.746  13.244
49920SOL     OW51656   1.073   0.802  11.211
49920SOL    HW151657   1.165   0.777  11.196
49920SOL    HW251658   1.032   0.723  11.246
49921SOL     OW51659  10.767   3.035  10.612
49921SOL    HW151660  10.683   3.075  10.590
49921SOL    HW251661  10.829   3.074  10.551
49922SOL     OW51662   2.493   3.953  11.593
49922SOL    HW151663   2.473   4.001  11.513
49922SOL    HW251664   2.452   3.867  11.581
49923SOL     OW51665  14.376   1.875  11.004
49923SOL    HW151666  14.354   1.812  10.935
49923SOL    HW251667  14.319   1.852  11.077
49924SOL     OW51668   5.450   5.405   3.070
49924SOL    HW151669   5.456   5.397   3.165
49924SOL    HW251670   5.491   5.325   3.037
49925SOL     OW51671   8.637   3.021   4.747
49925SOL    HW151672   8.625   2.926   4.752
49925SOL    HW251673   8.678   3.035   4.661
49926SOL     OW51674   3.248  13.930   2.860
49926SOL    HW151675   3.192  14.006   2.878
49926SOL    HW251676   3.307  13.926   2.935
49927SOL     OW51677   8.466  10.510  10.120
49927SOL    HW151678   8.491  10.600  10.097
49927SOL    HW251679   8.544  10.474  10.162
49928SOL     OW51680  13.115  10.619   5.002
49928SOL    HW151681  13.177  10.681   5.041
49928SOL    HW251682  13.059  10.593   5.075
49929SOL     OW51683   0.111  14.639  11.371
49929SOL    HW151684   0.030  14.606  11.411
49929SOL    HW251685   0.157  14.682  11.443
49930SOL     OW51686  12.215   2.166   6.195
49930SOL    HW151687  12.275   2.115   6.248
49930SOL    HW251688  12.149   2.197   6.257
49931SOL     OW51689   6.325   9.639   2.235
49931SOL    HW151690   6.350   9.648   2.327
49931SOL    HW251691   6.377   9.704   2.189
49932SOL     OW51692  14.129  14.420  11.175
49932SOL    HW151693  14.084  14.378  11.248
49932SOL    HW251694  14.067  14.412  11.102
49933SOL     OW51695  12.556   9.824  12.056
49933SOL    HW151696  12.543   9.813  12.150
49933SOL    HW251697  12.520   9.910  12.036
49934SOL     OW51698   3.263   7.668   9.881
49934SOL    HW151699   3.316   7.688   9.804
49934SOL    HW251700   3.246   7.753   9.922
49935SOL     OW51701  10.852   1.859  13.380
49935SOL    HW151702  10.906   1.787  13.347
49935SOL    HW251703  10.836   1.838  13.472
49936SOL     OW51704   7.348  13.496   5.685
49936SOL    HW151705   7.435  13.487   5.724
49936SOL    HW251706   7.288  13.461   5.752
49937SOL     OW51707   5.105   6.404   5.682
49937SOL    HW151708   5.057   6.486   5.693
49937SOL    HW251709   5.182   6.427   5.631
49938SOL     OW51710  10.743  11.059   5.241
49938SOL    HW151711  10.728  11.115   5.165
49938SOL    HW251712  10.838  11.058   5.253
49939SOL     OW51713   5.569  10.529   8.241
49939SOL    HW151714   5.517  10.560   8.167
49939SOL    HW251715   5.505  10.495   8.303
49940SOL     OW51716  10.061  11.483  12.264
49940SOL    HW151717  10.114  11.416  12.220
49940SOL    HW251718  10.088  11.478  12.356
49941SOL     OW51719   5.005   1.946  12.022
49941SOL    HW151720   4.987   2.022  11.967
49941SOL    HW251721   5.012   1.873  11.960
49942SOL     OW51722  14.388   9.590  13.852
49942SOL    HW151723  14.388   9.673  13.898
49942SOL    HW251724  14.474   9.586  13.808
49943SOL     OW51725  12.830  11.883   1.936
49943SOL    HW151726  12.924  11.876   1.947
49943SOL    HW251727  12.817  11.891   1.841
49944SOL     OW51728   9.811  11.947   4.394
49944SOL    HW151729   9.848  11.937   4.481
49944SOL    HW251730   9.869  11.895   4.338
49945SOL     OW51731  13.816   7.030  10.860
49945SOL    HW151732  13.872   6.971  10.910
49945SOL    HW251733  13.866   7.111  10.854
49946SOL     OW51734   6.677   7.419  12.971
49946SOL    HW151735   6.769   7.434  12.993
49946SOL    HW251736   6.628   7.471  13.034
49947SOL     OW51737   3.200  13.671   4.815
49947SOL    HW151738   3.264  13.628   4.872
49947SOL    HW251739   3.125  13.686   4.872
49948SOL     OW51740   9.765   4.333   9.513
49948SOL    HW151741   9.706   4.358   9.584
49948SOL    HW251742   9.758   4.404   9.450
49949SOL     OW51743  10.516   3.848   0.577
49949SOL    HW151744  10.604   3.848   0.541
49949SOL    HW251745  10.524   3.803   0.661
49950SOL     OW51746   0.554  10.063   5.400
49950SOL    HW151747   0.544  10.149   5.360
49950SOL    HW251748   0.474  10.051   5.452
49951SOL     OW51749  12.470  13.637   6.068
49951SOL    HW151750  12.441  13.639   5.977
49951SOL    HW251751  12.560  13.670   6.066
49952SOL     OW51752  14.418   2.008   3.650
49952SOL    HW151753  14.490   1.967   3.699
49952SOL    HW251754  14.339   1.977   3.692
49953SOL     OW51755   7.569   3.979   1.410
49953SOL    HW151756   7.521   4.002   1.489
49953SOL    HW251757   7.610   4.061   1.382
49954SOL     OW51758   0.384   7.218   1.722
49954SOL    HW151759   0.416   7.171   1.645
49954SOL    HW251760   0.446   7.196   1.791
49955SOL     OW51761   0.265   6.678   7.253
49955SOL    HW151762   0.326   6.608   7.229
49955SOL    HW251763   0.248   6.724   7.171
49956SOL     OW51764   7.304   5.848   4.231
49956SOL    HW151765   7.380   5.790   4.237
49956SOL    HW251766   7.280   5.865   4.322
49957SOL     OW51767   6.703   2.878   7.268
49957SOL    HW151768   6.754   2.886   7.348
49957SOL    HW251769   6.761   2.833   7.207
49958SOL     OW51770  14.651   3.000   9.720
49958SOL    HW151771  14.735   3.022   9.679
49958SOL    HW251772  14.589   2.999   9.647
49959SOL     OW51773  13.709  10.817   6.547
49959SOL    HW151774  13.685  10.895   6.597
49959SOL    HW251775  13.803  10.808   6.558
49960SOL     OW51776   2.011   9.054   4.378
49960SOL    HW151777   2.005   9.143   4.344
49960SOL    HW251778   2.104   9.042   4.397
49961SOL     OW51779   2.772  12.469   9.140
49961SOL    HW151780   2.774  12.457   9.235
49961SOL    HW251781   2.852  12.518   9.121
49962SOL     OW51782  12.958   6.182   2.450
49962SOL    HW151783  13.053   6.193   2.437
49962SOL    HW251784  12.948   6.173   2.545
49963SOL     OW51785   2.983   4.695   6.676
49963SOL    HW151786   2.932   4.617   6.698
49963SOL    HW251787   3.053   4.663   6.619
49964SOL     OW51788  10.883   9.336   8.205
49964SOL    HW151789  10.935   9.416   8.197
49964SOL    HW251790  10.942   9.273   8.245
49965SOL     OW51791  14.575   0.984   9.901
49965SOL    HW151792  14.508   1.014   9.840
49965SOL    HW251793  14.549   0.895   9.923
49966SOL     OW51794   8.722   3.265  10.929
49966SOL    HW151795   8.659   3.278  10.999
49966SOL    HW251796   8.807   3.270  10.972
49967SOL     OW51797  13.973  14.344   0.599
49967SOL    HW151798  13.980  14.274   0.534
49967SOL    HW251799  13.964  14.424   0.546
49968SOL     OW51800   4.699   4.182   7.656
49968SOL    HW151801   4.630   4.194   7.591
49968SOL    HW251802   4.780   4.185   7.606
49969SOL     OW51803   9.970   6.901   1.842
49969SOL    HW151804   9.978   6.806   1.857
49969SOL    HW251805  10.035   6.940   1.900
49970SOL     OW51806   6.092   2.717   1.789
49970SOL    HW151807   6.031   2.758   1.727
49970SOL    HW251808   6.161   2.782   1.801
49971SOL     OW51809   1.456   1.956   6.756
49971SOL    HW151810   1.499   1.898   6.693
49971SOL    HW251811   1.476   1.918   6.842
49972SOL     OW51812   1.096  10.760   9.032
49972SOL    HW151813   1.159  10.818   9.075
49972SOL    HW251814   1.150  10.696   8.986
49973SOL     OW51815   4.779   2.679   1.516
49973SOL    HW151816   4.821   2.614   1.460
49973SOL    HW251817   4.759   2.632   1.597
49974SOL     OW51818   2.286  10.725   2.035
49974SOL    HW151819   2.199  10.764   2.042
49974SOL    HW251820   2.293  10.697   1.943
49975SOL     OW51821  10.146   1.252   2.434
49975SOL    HW151822  10.121   1.308   2.360
49975SOL    HW251823  10.103   1.169   2.417
49976SOL     OW51824  13.687   1.838  10.469
49976SOL    HW151825  13.771   1.875  10.494
49976SOL    HW251826  13.624   1.908  10.486
49977SOL     OW51827   6.606  12.116  10.189
49977SOL    HW151828   6.563  12.162  10.261
49977SOL    HW251829   6.544  12.124  10.116
49978SOL     OW51830  14.313  14.020   2.477
49978SOL    HW151831  14.248  14.020   2.547
49978SOL    HW251832  14.380  14.083   2.507
49979SOL     OW51833   6.584   7.061  14.540
49979SOL    HW151834   6.623   6.985  14.582
49979SOL    HW251835   6.544   7.027  14.460
49980SOL     OW51836   4.246  13.396   6.361
49980SOL    HW151837   4.198  13.398   6.444
49980SOL    HW251838   4.253  13.303   6.340
49981SOL     OW51839  10.309  14.450  10.429
49981SOL    HW151840  10.240  14.429  10.366
49981SOL    HW251841  10.376  14.383  10.413
49982SOL     OW51842   2.778   2.320   5.475
49982SOL    HW151843   2.855   2.326   5.419
49982SOL    HW251844   2.797   2.249   5.535
49983SOL     OW51845  14.400  10.731   7.560
49983SOL    HW151846  14.309  10.737   7.534
49983SOL    HW251847  14.449  10.757   7.482
49984SOL     OW51848   1.519  14.755  13.302
49984SOL    HW151849   1.484  14.812  13.233
49984SOL    HW251850   1.471  14.781  13.381
49985SOL     OW51851  11.250   5.991  11.344
49985SOL    HW151852  11.288   5.910  11.377
49985SOL    HW251853  11.156   5.982  11.359
49986SOL     OW51854   6.868  11.022   1.009
49986SOL    HW151855   6.907  10.936   0.991
49986SOL    HW251856   6.856  11.062   0.923
49987SOL     OW51857   7.634   8.144   6.545
49987SOL    HW151858   7.549   8.183   6.521
49987SOL    HW251859   7.697   8.191   6.491
49988SOL     OW51860   1.225   9.458   8.779
49988SOL    HW151861   1.237   9.451   8.874
49988SOL    HW251862   1.141   9.416   8.763
49989SOL     OW51863   4.062  11.737   8.732
49989SOL    HW151864   4.103  11.809   8.683
49989SOL    HW251865   4.056  11.665   8.669
49990SOL     OW51866  12.995   7.620  11.240
49990SOL    HW151867  13.013   7.713  11.254
49990SOL    HW251868  13.052   7.596  11.167
49991SOL     OW51869   1.051   7.484   6.991
49991SOL    HW151870   0.980   7.546   7.011
49991SOL    HW251871   1.061   7.489   6.896
49992SOL     OW51872  13.215  12.430   6.748
49992SOL    HW151873  13.127  12.401   6.723
49992SOL    HW251874  13.220  12.415   6.842
49993SOL     OW51875  14.735  11.920   1.852
49993SOL    HW151876  14.696  12.000   1.888
49993SOL    HW251877  14.829  11.936   1.854
49994SOL     OW51878   4.672   4.703  13.686
49994SOL    HW151879   4.714   4.772  13.635
49994SOL    HW251880   4.699   4.622  13.643
49995SOL     OW51881   0.218   1.196   2.087
49995SOL    HW151882   0.159   1.134   2.045
49995SOL    HW251883   0.212   1.176   2.180
49996SOL     OW51884   5.547   4.764   2.105
49996SOL    HW151885   5.596   4.841   2.080
49996SOL    HW251886   5.553   4.705   2.029
49997SOL     OW51887   5.111  10.115  11.733
49997SOL    HW151888   5.029  10.123  11.685
49997SOL    HW251889   5.149  10.203  11.729
49998SOL     OW51890  12.038   2.955   8.039
49998SOL    HW151891  12.007   3.045   8.034
49998SOL    HW251892  12.089   2.952   8.120
49999SOL     OW51893   0.547   0.555  13.095
49999SOL    HW151894   0.589   0.503  13.163
49999SOL    HW251895   0.456   0.527  13.095
50000SOL     OW51896   2.661   2.554  13.535
50000SOL    HW151897   2.755   2.556  13.556
50000SOL    HW251898   2.637   2.462  13.544
50001SOL     OW51899   7.206   4.254   4.447
50001SOL    HW151900   7.145   4.314   4.404
50001SOL    HW251901   7.283   4.254   4.390
50002SOL     OW51902  14.149   7.688   2.594
50002SOL    HW151903  14.144   7.773   2.639
50002SOL    HW251904  14.071   7.641   2.623
50003SOL     OW51905   6.879   9.421   6.210
50003SOL    HW151906   6.846   9.494   6.159
50003SOL    HW251907   6.813   9.352   6.198
50004SOL     OW51908   1.178   3.719  14.584
50004SOL    HW151909   1.241   3.777  14.627
50004SOL    HW251910   1.093   3.757  14.606
50005SOL     OW51911   5.282   2.486   2.183
50005SOL    HW151912   5.317   2.490   2.094
50005SOL    HW251913   5.333   2.416   2.225
50006SOL     OW51914  12.946   7.537   3.851
50006SOL    HW151915  13.034   7.564   3.880
50006SOL    HW251916  12.894   7.537   3.932
50007SOL     OW51917   5.672   9.974   8.257
50007SOL    HW151918   5.677   9.917   8.180
50007SOL    HW251919   5.593  10.025   8.244
50008SOL     OW51920  12.641   3.378   2.655
50008SOL    HW151921  12.681   3.318   2.592
50008SOL    HW251922  12.697   3.456   2.652
50009SOL     OW51923   4.812  12.247  13.630
50009SOL    HW151924   4.773  12.331  13.604
50009SOL    HW251925   4.806  12.247  13.726
50010SOL     OW51926   6.983  12.759  10.390
50010SOL    HW151927   6.977  12.838  10.442
50010SOL    HW251928   7.041  12.782  10.317
50011SOL     OW51929   5.984   3.331   5.600
50011SOL    HW151930   5.986   3.412   5.549
50011SOL    HW251931   5.894   3.300   5.592
50012SOL     OW51932   2.215   9.329  10.341
50012SOL    HW151933   2.297   9.291  10.375
50012SOL    HW251934   2.153   9.320  10.413
50013SOL     OW51935   8.888  12.505  10.005
50013SOL    HW151936   8.851  12.550   9.929
50013SOL    HW251937   8.816  12.451  10.038
50014SOL     OW51938   7.394   4.289   0.136
50014SOL    HW151939   7.331   4.350   0.175
50014SOL    HW251940   7.468   4.344   0.110
50015SOL     OW51941   3.839  10.581   1.438
50015SOL    HW151942   3.804  10.492   1.433
50015SOL    HW251943   3.933  10.569   1.452
50016SOL     OW51944   6.343   1.821   6.568
50016SOL    HW151945   6.397   1.887   6.612
50016SOL    HW251946   6.275   1.871   6.523
50017SOL     OW51947   0.228   5.212   9.236
50017SOL    HW151948   0.230   5.167   9.151
50017SOL    HW251949   0.182   5.293   9.219
50018SOL     OW51950  11.869   3.725  11.021
50018SOL    HW151951  11.792   3.776  11.047
50018SOL    HW251952  11.835   3.638  11.002
50019SOL     OW51953   8.042   1.919   2.682
50019SOL    HW151954   7.989   1.998   2.670
50019SOL    HW251955   8.124   1.939   2.637
50020SOL     OW51956   1.590   0.382  12.552
50020SOL    HW151957   1.526   0.439  12.510
50020SOL    HW251958   1.619   0.431  12.629
50021SOL     OW51959  11.202   0.553   4.503
50021SOL    HW151960  11.175   0.476   4.453
50021SOL    HW251961  11.240   0.517   4.583
50022SOL     OW51962  10.647   4.167   4.463
50022SOL    HW151963  10.722   4.125   4.504
50022SOL    HW251964  10.634   4.118   4.382
50023SOL     OW51965   0.662   4.937  14.855
50023SOL    HW151966   0.681   5.022   0.026
50023SOL    HW251967   0.687   4.947  14.763
50024SOL     OW51968  12.040  10.598   0.737
50024SOL    HW151969  12.066  10.601   0.644
50024SOL    HW251970  11.992  10.515   0.745
50025SOL     OW51971  14.092   1.033   7.685
50025SOL    HW151972  14.096   1.091   7.610
50025SOL    HW251973  14.168   1.058   7.739
50026SOL     OW51974   7.772   9.477   3.500
50026SOL    HW151975   7.824   9.486   3.581
50026SOL    HW251976   7.836   9.450   3.434
50027SOL     OW51977   8.745   6.006   2.406
50027SOL    HW151978   8.728   5.916   2.435
50027SOL    HW251979   8.717   6.060   2.480
50028SOL     OW51980   9.776   0.178   0.924
50028SOL    HW151981   9.868   0.194   0.942
50028SOL    HW251982   9.736   0.168   1.011
50029SOL     OW51983   2.885  12.418   5.625
50029SOL    HW151984   2.930  12.492   5.666
50029SOL    HW251985   2.903  12.428   5.531
50030SOL     OW51986   7.805  14.033   5.978
50030SOL    HW151987   7.726  14.076   6.011
50030SOL    HW251988   7.873  14.100   5.984
50031SOL     OW51989   2.412  11.089   8.306
50031SOL    HW151990   2.428  11.076   8.400
50031SOL    HW251991   2.319  11.112   8.300
50032SOL     OW51992  12.308   8.896   8.088
50032SOL    HW151993  12.280   8.836   8.019
50032SOL    HW251994  12.245   8.968   8.084
50033SOL     OW51995  14.775  10.489  11.997
50033SOL    HW151996  14.787  10.398  12.025
50033SOL    HW251997  14.851  10.507  11.941
50034SOL     OW51998  11.547   4.337   3.182
50034SOL    HW151999  11.481   4.380   3.236
50034SOL    HW252000  11.520   4.356   3.092
50035SOL     OW52001   5.062  10.621   1.685
50035SOL    HW152002   5.052  10.673   1.764
50035SOL    HW252003   5.017  10.538   1.705
50036SOL     OW52004   3.021   3.378  12.993
50036SOL    HW152005   2.964   3.323  13.046
50036SOL    HW252006   2.990   3.364  12.903
50037SOL     OW52007   4.663  14.415   4.882
50037SOL    HW152008   4.736  14.438   4.939
50037SOL    HW252009   4.704  14.387   4.801
50038SOL     OW52010   6.869   0.121   6.109
50038SOL    HW152011   6.867   0.119   6.013
50038SOL    HW252012   6.802   0.058   6.135
50039SOL     OW52013  11.657   9.047  11.916
50039SOL    HW152014  11.642   9.123  11.859
50039SOL    HW252015  11.750   9.026  11.905
50040SOL     OW52016   9.844  10.976   1.064
50040SOL    HW152017   9.814  10.886   1.079
50040SOL    HW252018   9.855  10.982   0.969
50041SOL     OW52019  11.175   5.476   9.859
50041SOL    HW152020  11.238   5.515   9.920
50041SOL    HW252021  11.097   5.462   9.912
50042SOL     OW52022   2.703   0.610   8.723
50042SOL    HW152023   2.678   0.636   8.812
50042SOL    HW252024   2.799   0.600   8.727
50043SOL     OW52025  11.235   7.915  14.452
50043SOL    HW152026  11.328   7.922  14.433
50043SOL    HW252027  11.199   7.861  14.382
50044SOL     OW52028  11.777   2.721  10.528
50044SOL    HW152029  11.721   2.643  10.521
50044SOL    HW252030  11.746   2.767  10.606
50045SOL     OW52031   7.282  14.854  13.375
50045SOL    HW152032   7.362  14.829  13.329
50045SOL    HW252033   7.250  14.772  13.414
50046SOL     OW52034  13.620  12.519   8.739
50046SOL    HW152035  13.650  12.567   8.662
50046SOL    HW252036  13.534  12.485   8.713
50047SOL     OW52037   3.233  13.977  12.806
50047SOL    HW152038   3.145  14.016  12.808
50047SOL    HW252039   3.231  13.911  12.876
50048SOL     OW52040   0.237   0.347   7.567
50048SOL    HW152041   0.317   0.358   7.515
50048SOL    HW252042   0.261   0.284   7.636
50049SOL     OW52043   2.642   6.933   3.724
50049SOL    HW152044   2.554   6.896   3.722
50049SOL    HW252045   2.697   6.867   3.684
50050SOL     OW52046   5.351   0.034   6.423
50050SOL    HW152047   5.422   0.061   6.365
50050SOL    HW252048   5.272   0.072   6.385
50051SOL     OW52049   5.935   5.541  13.701
50051SOL    HW152050   6.014   5.537  13.755
50051SOL    HW252051   5.964   5.581  13.619
50052SOL     OW52052   7.527   4.333  14.318
50052SOL    HW152053   7.434   4.347  14.298
50052SOL    HW252054   7.573   4.373  14.245
50053SOL     OW52055  10.487   8.040   0.241
50053SOL    HW152056  10.479   8.007   0.330
50053SOL    HW252057  10.400   8.027   0.203
50054SOL     OW52058  12.535   7.192   0.104
50054SOL    HW152059  12.542   7.286   0.116
50054SOL    HW252060  12.498   7.159   0.186
50055SOL     OW52061   0.420   3.959   8.926
50055SOL    HW152062   0.462   3.981   9.009
50055SOL    HW252063   0.486   3.978   8.859
50056SOL     OW52064   4.338   7.828   7.984
50056SOL    HW152065   4.280   7.864   7.917
50056SOL    HW252066   4.388   7.760   7.939
50057SOL     OW52067  13.349   7.859   9.748
50057SOL    HW152068  13.363   7.778   9.699
50057SOL    HW252069  13.270   7.897   9.710
50058SOL     OW52070   3.542   9.579   3.822
50058SOL    HW152071   3.602   9.543   3.756
50058SOL    HW252072   3.594   9.580   3.902
50059SOL     OW52073   0.905   1.312   7.386
50059SOL    HW152074   0.894   1.272   7.300
50059SOL    HW252075   0.992   1.352   7.382
50060SOL     OW52076   9.520   9.664  11.334
50060SOL    HW152077   9.516   9.670  11.238
50060SOL    HW252078   9.607   9.629  11.352
50061SOL     OW52079   7.621  14.561   8.103
50061SOL    HW152080   7.623  14.604   8.188
50061SOL    HW252081   7.656  14.474   8.119
50062SOL     OW52082  13.223   3.409  11.977
50062SOL    HW152083  13.181   3.478  12.028
50062SOL    HW252084  13.151   3.356  11.943
50063SOL     OW52085  12.802  10.304   8.733
50063SOL    HW152086  12.872  10.239   8.731
50063SOL    HW252087  12.751  10.288   8.653
50064SOL     OW52088   4.239  10.968   9.565
50064SOL    HW152089   4.330  10.962   9.593
50064SOL    HW252090   4.243  10.973   9.470
50065SOL     OW52091   8.980   2.816   1.832
50065SOL    HW152092   8.981   2.863   1.749
50065SOL    HW252093   8.911   2.859   1.883
50066SOL     OW52094   5.702   2.993   8.423
50066SOL    HW152095   5.777   2.941   8.452
50066SOL    HW252096   5.738   3.050   8.355
50067SOL     OW52097  10.558  13.177  13.070
50067SOL    HW152098  10.531  13.190  12.980
50067SOL    HW252099  10.644  13.134  13.064
50068SOL     OW52100  10.626   0.524   3.625
50068SOL    HW152101  10.715   0.556   3.633
50068SOL    HW252102  10.620   0.491   3.535
50069SOL     OW52103   9.184  11.064  10.098
50069SOL    HW152104   9.126  11.021  10.035
50069SOL    HW252105   9.147  11.042  10.184
50070SOL     OW52106   4.860   4.112   5.396
50070SOL    HW152107   4.782   4.057   5.387
50070SOL    HW252108   4.909   4.071   5.468
50071SOL     OW52109   8.289   5.391   0.097
50071SOL    HW152110   8.278   5.335   0.174
50071SOL    HW252111   8.225   5.461   0.110
50072SOL     OW52112   3.129   5.123  11.225
50072SOL    HW152113   3.192   5.193  11.212
50072SOL    HW252114   3.103   5.097  11.137
50073SOL     OW52115  13.054   6.468   5.679
50073SOL    HW152116  13.116   6.419   5.626
50073SOL    HW252117  12.972   6.465   5.629
50074SOL     OW52118   5.832  10.230  11.225
50074SOL    HW152119   5.776  10.239  11.302
50074SOL    HW252120   5.803  10.148  11.184
50075SOL     OW52121  10.769   7.387  14.083
50075SOL    HW152122  10.753   7.364  14.175
50075SOL    HW252123  10.808   7.475  14.087
50076SOL     OW52124  10.072   5.288   0.855
50076SOL    HW152125  10.023   5.209   0.877
50076SOL    HW252126  10.164   5.264   0.866
50077SOL     OW52127  12.764   5.582   4.729
50077SOL    HW152128  12.838   5.523   4.738
50077SOL    HW252129  12.771   5.616   4.640
50078SOL     OW52130   4.241  13.516  13.276
50078SOL    HW152131   4.297  13.504  13.352
50078SOL    HW252132   4.236  13.428  13.236
50079SOL     OW52133   1.333   2.085  11.330
50079SOL    HW152134   1.344   2.114  11.421
50079SOL    HW252135   1.343   2.165  11.279
50080SOL     OW52136   0.942   6.559   4.511
50080SOL    HW152137   0.964   6.625   4.446
50080SOL    HW252138   1.021   6.551   4.565
50081SOL     OW52139   1.438   3.183  12.971
50081SOL    HW152140   1.480   3.186  12.885
50081SOL    HW252141   1.375   3.111  12.964
50082SOL     OW52142   9.191   5.478   8.331
50082SOL    HW152143   9.283   5.478   8.358
50082SOL    HW252144   9.153   5.401   8.374
50083SOL     OW52145   2.809   3.141  12.160
50083SOL    HW152146   2.898   3.115  12.134
50083SOL    HW252147   2.779   3.070  12.217
50084SOL     OW52148  12.141   7.243   2.754
50084SOL    HW152149  12.100   7.319   2.795
50084SOL    HW252150  12.093   7.232   2.672
50085SOL     OW52151   3.452   3.391   7.258
50085SOL    HW152152   3.506   3.347   7.323
50085SOL    HW252153   3.512   3.408   7.185
50086SOL     OW52154  14.525   6.038   7.664
50086SOL    HW152155  14.546   6.112   7.608
50086SOL    HW252156  14.588   5.971   7.640
50087SOL     OW52157  12.846  12.116   6.059
50087SOL    HW152158  12.800  12.200   6.068
50087SOL    HW252159  12.895  12.106   6.140
50088SOL     OW52160   7.516  14.225   4.010
50088SOL    HW152161   7.464  14.151   3.978
50088SOL    HW252162   7.455  14.299   4.011
50089SOL     OW52163  10.400   3.316   6.752
50089SOL    HW152164  10.355   3.393   6.719
50089SOL    HW252165  10.414   3.261   6.674
50090SOL     OW52166   9.567  10.296   1.444
50090SOL    HW152167   9.522  10.358   1.387
50090SOL    HW252168   9.660  10.307   1.421
50091SOL     OW52169   2.815  14.818   1.155
50091SOL    HW152170   2.756   0.016   1.118
50091SOL    HW252171   2.788  14.810   1.246
50092SOL     OW52172   9.509   3.290   0.219
50092SOL    HW152173   9.491   3.237   0.142
50092SOL    HW252174   9.521   3.379   0.185
50093SOL     OW52175  13.836   1.971   6.586
50093SOL    HW152176  13.781   1.902   6.624
50093SOL    HW252177  13.915   1.971   6.639
50094SOL     OW52178   9.587   1.073   3.098
50094SOL    HW152179   9.577   1.143   3.163
50094SOL    HW252180   9.664   1.099   3.047
50095SOL     OW52181   5.882  13.402   1.427
50095SOL    HW152182   5.947  13.424   1.493
50095SOL    HW252183   5.891  13.470   1.360
50096SOL     OW52184   2.147  11.690   5.045
50096SOL    HW152185   2.126  11.700   5.138
50096SOL    HW252186   2.068  11.718   4.999
50097SOL     OW52187  14.565  14.848   7.992
50097SOL    HW152188  14.513   0.044   8.041
50097SOL    HW252189  14.591   0.027   7.913
50098SOL     OW52190  10.721  12.388  11.864
50098SOL    HW152191  10.670  12.372  11.784
50098SOL    HW252192  10.655  12.391  11.934
50099SOL     OW52193   8.691  12.336   1.351
50099SOL    HW152194   8.734  12.359   1.434
50099SOL    HW252195   8.604  12.374   1.358
50100SOL     OW52196  14.524   0.431   3.974
50100SOL    HW152197  14.598   0.480   3.939
50100SOL    HW252198  14.457   0.497   3.990
50101SOL     OW52199  13.714   8.326   4.384
50101SOL    HW152200  13.804   8.310   4.412
50101SOL    HW252201  13.661   8.272   4.443
50102SOL     OW52202  12.136  12.803  12.464
50102SOL    HW152203  12.189  12.723  12.457
50102SOL    HW252204  12.107  12.804  12.556
50103SOL     OW52205  14.297   4.315   0.892
50103SOL    HW152206  14.206   4.307   0.864
50103SOL    HW252207  14.300   4.398   0.939
50104SOL     OW52208   6.564   8.665   1.667
50104SOL    HW152209   6.570   8.571   1.679
50104SOL    HW252210   6.521   8.697   1.747
50105SOL     OW52211   7.957   2.153   0.972
50105SOL    HW152212   7.878   2.100   0.979
50105SOL    HW252213   7.925   2.244   0.978
50106SOL     OW52214   9.147   3.850  10.334
50106SOL    HW152215   9.209   3.896  10.390
50106SOL    HW252216   9.194   3.838  10.251
50107SOL     OW52217   7.527   7.425   2.707
50107SOL    HW152218   7.475   7.502   2.685
50107SOL    HW252219   7.617   7.456   2.707
50108SOL     OW52220   3.827   3.456   6.490
50108SOL    HW152221   3.807   3.548   6.472
50108SOL    HW252222   3.872   3.456   6.575
50109SOL     OW52223   1.852   5.923  12.558
50109SOL    HW152224   1.828   5.984  12.488
50109SOL    HW252225   1.774   5.869  12.570
50110SOL     OW52226  14.323   7.020  12.528
50110SOL    HW152227  14.271   6.940  12.532
50110SOL    HW252228  14.267   7.084  12.484
50111SOL     OW52229   7.912   0.431   6.892
50111SOL    HW152230   7.995   0.478   6.896
50111SOL    HW252231   7.891   0.426   6.799
50112SOL     OW52232   6.106   7.291  11.406
50112SOL    HW152233   6.136   7.358  11.344
50112SOL    HW252234   6.152   7.312  11.488
50113SOL     OW52235   8.627   5.826  11.269
50113SOL    HW152236   8.588   5.817  11.356
50113SOL    HW252237   8.579   5.763  11.215
50114SOL     OW52238   3.887   8.654   0.719
50114SOL    HW152239   3.826   8.675   0.789
50114SOL    HW252240   3.973   8.659   0.760
50115SOL     OW52241  10.175   5.312   3.613
50115SOL    HW152242  10.131   5.267   3.541
50115SOL    HW252243  10.261   5.334   3.577
50116SOL     OW52244   3.976   3.707   1.972
50116SOL    HW152245   4.004   3.748   2.054
50116SOL    HW252246   3.998   3.614   1.983
50117SOL     OW52247   9.968   3.964   3.944
50117SOL    HW152248   9.925   3.879   3.935
50117SOL    HW252249   9.917   4.011   4.009
50118SOL     OW52250   6.817  11.481   6.537
50118SOL    HW152251   6.830  11.531   6.456
50118SOL    HW252252   6.741  11.427   6.519
50119SOL     OW52253   7.131   8.290   4.526
50119SOL    HW152254   7.127   8.370   4.578
50119SOL    HW252255   7.056   8.295   4.467
50120SOL     OW52256   9.366  12.533   3.666
50120SOL    HW152257   9.303  12.462   3.657
50120SOL    HW252258   9.407  12.539   3.580
50121SOL     OW52259  13.510   3.088   2.679
50121SOL    HW152260  13.456   3.011   2.659
50121SOL    HW252261  13.505   3.141   2.599
50122SOL     OW52262   0.223   9.130   2.197
50122SOL    HW152263   0.244   9.220   2.219
50122SOL    HW252264   0.240   9.124   2.103
50123SOL     OW52265  12.785   8.586   3.320
50123SOL    HW152266  12.772   8.609   3.412
50123SOL    HW252267  12.824   8.664   3.281
50124SOL     OW52268  10.710  11.973   4.082
50124SOL    HW152269  10.800  12.002   4.095
50124SOL    HW252270  10.705  11.952   3.989
50125SOL     OW52271   9.535   9.539  13.629
50125SOL    HW152272   9.527   9.513  13.538
50125SOL    HW252273   9.488   9.622  13.635
50126SOL     OW52274  11.355  10.073  10.531
50126SOL    HW152275  11.403  10.020  10.595
50126SOL    HW252276  11.359  10.162  10.565
50127SOL     OW52277   0.331  13.006   7.161
50127SOL    HW152278   0.294  12.938   7.218
50127SOL    HW252279   0.270  13.012   7.088
50128SOL     OW52280   0.665   4.724   5.715
50128SOL    HW152281   0.583   4.690   5.752
50128SOL    HW252282   0.638   4.799   5.662
50129SOL     OW52283   6.638   6.121   3.181
50129SOL    HW152284   6.556   6.113   3.230
50129SOL    HW252285   6.669   6.031   3.171
50130SOL     OW52286   6.402   3.801   9.632
50130SOL    HW152287   6.357   3.717   9.634
50130SOL    HW252288   6.494   3.779   9.645
50131SOL     OW52289   6.596   5.631  14.411
50131SOL    HW152290   6.684   5.658  14.437
50131SOL    HW252291   6.584   5.669  14.324
50132SOL     OW52292   4.138  14.588   7.434
50132SOL    HW152293   4.163  14.656   7.497
50132SOL    HW252294   4.090  14.524   7.486
50133SOL     OW52295  13.584  13.035   1.693
50133SOL    HW152296  13.519  12.971   1.723
50133SOL    HW252297  13.623  13.070   1.773
50134SOL     OW52298   7.615   3.963   4.535
50134SOL    HW152299   7.617   4.058   4.522
50134SOL    HW252300   7.584   3.951   4.625
50135SOL     OW52301   5.625  11.486  12.003
50135SOL    HW152302   5.547  11.447  12.041
50135SOL    HW252303   5.594  11.534  11.927
50136SOL     OW52304  13.397  14.286   3.414
50136SOL    HW152305  13.490  14.287   3.439
50136SOL    HW252306  13.354  14.238   3.484
50137SOL     OW52307   1.361  11.330   1.253
50137SOL    HW152308   1.454  11.311   1.265
50137SOL    HW252309   1.348  11.414   1.297
50138SOL     OW52310  13.895   7.084  11.690
50138SOL    HW152311  13.814   7.035  11.698
50138SOL    HW252312  13.913   7.085  11.595
50139SOL     OW52313   4.212  14.642   8.813
50139SOL    HW152314   4.176  14.562   8.852
50139SOL    HW252315   4.297  14.653   8.855
50140SOL     OW52316  12.596   7.120   3.465
50140SOL    HW152317  12.533   7.071   3.412
50140SOL    HW252318  12.682   7.091   3.433
50141SOL     OW52319   4.688  12.478   9.240
50141SOL    HW152320   4.646  12.401   9.201
50141SOL    HW252321   4.630  12.504   9.312
50142SOL     OW52322  11.029   0.662   9.727
50142SOL    HW152323  10.942   0.702   9.722
50142SOL    HW252324  11.082   0.710   9.662
50143SOL     OW52325   2.864   6.511   6.057
50143SOL    HW152326   2.777   6.549   6.045
50143SOL    HW252327   2.892   6.540   6.143
50144SOL     OW52328   8.181  11.563  12.681
50144SOL    HW152329   8.150  11.484  12.638
50144SOL    HW252330   8.234  11.607  12.615
50145SOL     OW52331   3.920   7.274   3.881
50145SOL    HW152332   3.935   7.193   3.833
50145SOL    HW252333   3.825   7.276   3.897
50146SOL     OW52334   4.384   9.205   7.287
50146SOL    HW152335   4.445   9.277   7.305
50146SOL    HW252336   4.307   9.247   7.249
50147SOL     OW52337   9.117   1.975   3.519
50147SOL    HW152338   9.075   1.992   3.604
50147SOL    HW252339   9.060   1.911   3.477
50148SOL     OW52340  12.673   2.224   7.639
50148SOL    HW152341  12.603   2.265   7.690
50148SOL    HW252342  12.641   2.225   7.549
50149SOL     OW52343  13.275  11.957   2.712
50149SOL    HW152344  13.198  11.904   2.694
50149SOL    HW252345  13.327  11.952   2.631
50150SOL     OW52346   8.211   0.793  14.532
50150SOL    HW152347   8.184   0.708  14.498
50150SOL    HW252348   8.135   0.825  14.581
50151SOL     OW52349  13.615   7.772   1.460
50151SOL    HW152350  13.654   7.723   1.387
50151SOL    HW252351  13.570   7.705   1.512
50152SOL     OW52352   0.013  12.514  14.311
50152SOL    HW152353  14.792  12.509  14.276
50152SOL    HW252354   0.058  12.578  14.255
50153SOL     OW52355   1.828   0.663  12.258
50153SOL    HW152356   1.792   0.636  12.343
50153SOL    HW252357   1.826   0.759  12.262
50154SOL     OW52358   6.245   4.484  13.866
50154SOL    HW152359   6.210   4.505  13.780
50154SOL    HW252360   6.197   4.406  13.894
50155SOL     OW52361   7.332   1.516   9.120
50155SOL    HW152362   7.343   1.609   9.101
50155SOL    HW252363   7.321   1.475   9.034
50156SOL     OW52364   4.113  10.078   1.145
50156SOL    HW152365   4.124  10.001   1.200
50156SOL    HW252366   4.055  10.049   1.074
50157SOL     OW52367  13.474  13.839   9.625
50157SOL    HW152368  13.504  13.796   9.545
50157SOL    HW252369  13.537  13.812   9.692
50158SOL     OW52370   7.107   8.112   5.467
50158SOL    HW152371   7.198   8.124   5.441
50158SOL    HW252372   7.109   8.108   5.562
50159SOL     OW52373  14.517  13.917   4.168
50159SOL    HW152374  14.535  13.984   4.102
50159SOL    HW252375  14.524  13.834   4.121
50160SOL     OW52376   6.819   6.571   1.639
50160SOL    HW152377   6.751   6.600   1.578
50160SOL    HW252378   6.771   6.522   1.706
50161SOL     OW52379   2.619  12.265  11.314
50161SOL    HW152380   2.581  12.178  11.303
50161SOL    HW252381   2.708  12.249  11.346
50162SOL     OW52382   9.455   6.428  14.699
50162SOL    HW152383   9.495   6.514  14.690
50162SOL    HW252384   9.387   6.440  14.766
50163SOL     OW52385   7.377   7.772  12.403
50163SOL    HW152386   7.422   7.854  12.423
50163SOL    HW252387   7.409   7.710  12.470
50164SOL     OW52388   9.708   5.640  12.128
50164SOL    HW152389   9.792   5.596  12.115
50164SOL    HW252390   9.682   5.669  12.041
50165SOL     OW52391   0.081  11.741   6.036
50165SOL    HW152392   0.136  11.819   6.042
50165SOL    HW252393   0.017  11.750   6.107
50166SOL     OW52394   3.195   3.835   1.354
50166SOL    HW152395   3.102   3.821   1.371
50166SOL    HW252396   3.237   3.752   1.377
50167SOL     OW52397   0.031   1.505   8.029
50167SOL    HW152398   0.017   1.554   7.948
50167SOL    HW252399   0.063   1.570   8.091
50168SOL     OW52400   8.869   1.163  10.612
50168SOL    HW152401   8.877   1.072  10.582
50168SOL    HW252402   8.841   1.211  10.534
50169SOL     OW52403   1.704   7.083   5.179
50169SOL    HW152404   1.646   7.157   5.169
50169SOL    HW252405   1.777   7.116   5.232
50170SOL     OW52406   7.283   8.400  10.883
50170SOL    HW152407   7.303   8.494  10.884
50170SOL    HW252408   7.196   8.393  10.922
50171SOL     OW52409   6.880   7.262   8.231
50171SOL    HW152410   6.911   7.314   8.157
50171SOL    HW252411   6.786   7.251   8.215
50172SOL     OW52412   4.838   6.596   4.255
50172SOL    HW152413   4.880   6.534   4.314
50172SOL    HW252414   4.881   6.680   4.274
50173SOL     OW52415   1.331   4.290   1.853
50173SOL    HW152416   1.286   4.218   1.808
50173SOL    HW252417   1.328   4.266   1.945
50174SOL     OW52418  13.928   2.162  13.260
50174SOL    HW152419  13.838   2.189  13.241
50174SOL    HW252420  13.950   2.102  13.188
50175SOL     OW52421  11.297   9.142   6.419
50175SOL    HW152422  11.351   9.221   6.422
50175SOL    HW252423  11.348   9.081   6.365
50176SOL     OW52424   6.508  14.360   9.560
50176SOL    HW152425   6.513  14.279   9.612
50176SOL    HW252426   6.423  14.397   9.582
50177SOL     OW52427   5.121  14.143  13.016
50177SOL    HW152428   5.117  14.192  13.098
50177SOL    HW252429   5.036  14.099  13.010
50178SOL     OW52430   6.929   7.443   7.217
50178SOL    HW152431   6.929   7.406   7.305
50178SOL    HW252432   6.967   7.530   7.228
50179SOL     OW52433  12.237  10.000  14.076
50179SOL    HW152434  12.247   9.905  14.084
50179SOL    HW252435  12.315  10.036  14.119
50180SOL     OW52436   2.123   5.776   5.357
50180SOL    HW152437   2.052   5.712   5.350
50180SOL    HW252438   2.180   5.755   5.283
50181SOL     OW52439   2.068   8.779   0.602
50181SOL    HW152440   2.142   8.719   0.589
50181SOL    HW252441   2.032   8.756   0.687
50182SOL     OW52442  13.720  12.174   5.506
50182SOL    HW152443  13.738  12.268   5.505
50182SOL    HW252444  13.627  12.167   5.485
50183SOL     OW52445   7.398   2.267   9.753
50183SOL    HW152446   7.364   2.189   9.707
50183SOL    HW252447   7.325   2.296   9.807
50184SOL     OW52448   9.113   2.321   7.459
50184SOL    HW152449   9.137   2.368   7.379
50184SOL    HW252450   9.195   2.284   7.491
50185SOL     OW52451   2.331   7.552   3.224
50185SOL    HW152452   2.249   7.589   3.194
50185SOL    HW252453   2.399   7.607   3.185
50186SOL     OW52454  14.589   5.100  14.023
50186SOL    HW152455  14.619   5.083  13.934
50186SOL    HW252456  14.528   5.173  14.015
50187SOL     OW52457   2.801   9.021   4.757
50187SOL    HW152458   2.768   9.056   4.674
50187SOL    HW252459   2.829   9.098   4.806
50188SOL     OW52460  12.545   6.403   3.678
50188SOL    HW152461  12.637   6.403   3.703
50188SOL    HW252462  12.539   6.342   3.605
50189SOL     OW52463   3.166  12.370   1.803
50189SOL    HW152464   3.096  12.421   1.843
50189SOL    HW252465   3.227  12.353   1.874
50190SOL     OW52466   2.522   3.092   9.300
50190SOL    HW152467   2.443   3.144   9.317
50190SOL    HW252468   2.503   3.045   9.219
50191SOL     OW52469  13.781   1.205  14.031
50191SOL    HW152470  13.800   1.162  14.115
50191SOL    HW252471  13.865   1.203  13.984
50192SOL     OW52472   7.564   9.472  13.876
50192SOL    HW152473   7.551   9.396  13.933
50192SOL    HW252474   7.637   9.519  13.915
50193SOL     OW52475   9.293   3.297  12.965
50193SOL    HW152476   9.291   3.318  13.058
50193SOL    HW252477   9.338   3.371  12.925
50194SOL     OW52478   3.852   1.432   7.853
50194SOL    HW152479   3.874   1.340   7.865
50194SOL    HW252480   3.880   1.452   7.764
50195SOL     OW52481  12.980   7.666   8.820
50195SOL    HW152482  13.026   7.717   8.754
50195SOL    HW252483  12.897   7.712   8.832
50196SOL     OW52484   0.959   7.249  14.230
50196SOL    HW152485   0.969   7.158  14.258
50196SOL    HW252486   1.012   7.256  14.151
50197SOL     OW52487  14.654  11.924   4.891
50197SOL    HW152488  14.596  11.888   4.824
50197SOL    HW252489  14.688  11.847   4.937
50198SOL     OW52490   4.442   6.908   7.404
50198SOL    HW152491   4.431   6.857   7.325
50198SOL    HW252492   4.438   6.999   7.375
50199SOL     OW52493   2.401  10.430   7.031
50199SOL    HW152494   2.385  10.379   6.951
50199SOL    HW252495   2.492  10.457   7.024
50200SOL     OW52496  14.506  11.154  12.410
50200SOL    HW152497  14.549  11.088  12.356
50200SOL    HW252498  14.433  11.186  12.356
50201SOL     OW52499   4.627   7.129  13.774
50201SOL    HW152500   4.686   7.135  13.849
50201SOL    HW252501   4.561   7.196  13.789
50202SOL     OW52502   6.727   5.352  11.783
50202SOL    HW152503   6.725   5.444  11.810
50202SOL    HW252504   6.773   5.352  11.699
50203SOL     OW52505   4.155  14.376   1.641
50203SOL    HW152506   4.210  14.452   1.621
50203SOL    HW252507   4.214  14.316   1.687
50204SOL     OW52508   6.956   2.395  12.251
50204SOL    HW152509   7.038   2.434  12.222
50204SOL    HW252510   6.972   2.370  12.342
50205SOL     OW52511  12.412   2.342   5.815
50205SOL    HW152512  12.416   2.258   5.769
50205SOL    HW252513  12.497   2.351   5.857
50206SOL     OW52514   9.591  10.511  11.768
50206SOL    HW152515   9.537  10.473  11.698
50206SOL    HW252516   9.679  10.478  11.751
50207SOL     OW52517   7.571  12.366   5.717
50207SOL    HW152518   7.509  12.294   5.724
50207SOL    HW252519   7.609  12.373   5.805
50208SOL     OW52520   7.058  13.613   2.054
50208SOL    HW152521   7.042  13.693   2.004
50208SOL    HW252522   7.012  13.628   2.137
50209SOL     OW52523  14.211   4.311   2.097
50209SOL    HW152524  14.203   4.300   2.192
50209SOL    HW252525  14.126   4.283   2.063
50210SOL     OW52526  11.107  14.711  13.097
50210SOL    HW152527  11.078  14.769  13.167
50210SOL    HW252528  11.195  14.683  13.124
50211SOL     OW52529   5.751   4.905  14.461
50211SOL    HW152530   5.816   4.873  14.398
50211SOL    HW252531   5.747   4.837  14.529
50212SOL     OW52532  10.622   0.000   0.348
50212SOL    HW152533  10.622  14.792   0.290
50212SOL    HW252534  10.658  14.836   0.430
50213SOL     OW52535   6.359   2.159   7.738
50213SOL    HW152536   6.388   2.238   7.783
50213SOL    HW252537   6.415   2.154   7.660
50214SOL     OW52538   0.351   0.798  10.781
50214SOL    HW152539   0.286   0.734  10.808
50214SOL    HW252540   0.422   0.789  10.844
50215SOL     OW52541   0.487   2.024   4.058
50215SOL    HW152542   0.469   2.118   4.050
50215SOL    HW252543   0.557   2.018   4.122
50216SOL     OW52544  14.806  14.022   0.188
50216SOL    HW152545   0.018  13.992   0.144
50216SOL    HW252546  14.836  14.054   0.273
50217SOL     OW52547   6.826  14.132  13.817
50217SOL    HW152548   6.829  14.228  13.813
50217SOL    HW252549   6.871  14.109  13.897
50218SOL     OW52550  10.646   9.403   3.639
50218SOL    HW152551  10.593   9.353   3.577
50218SOL    HW252552  10.642   9.493   3.606
50219SOL     OW52553   7.463   2.838   9.367
50219SOL    HW152554   7.543   2.883   9.393
50219SOL    HW252555   7.407   2.907   9.330
50220SOL     OW52556   4.568  12.114   7.311
50220SOL    HW152557   4.545  12.175   7.241
50220SOL    HW252558   4.488  12.106   7.363
50221SOL     OW52559   8.105   3.048  11.524
50221SOL    HW152560   8.137   3.028  11.612
50221SOL    HW252561   8.048   3.124  11.536
50222SOL     OW52562   3.628   6.453  12.282
50222SOL    HW152563   3.700   6.468  12.221
50222SOL    HW252564   3.575   6.532  12.277
50223SOL     OW52565   2.643   1.965  10.984
50223SOL    HW152566   2.713   2.029  10.993
50223SOL    HW252567   2.686   1.880  10.993
50224SOL     OW52568  11.832  12.907   7.328
50224SOL    HW152569  11.915  12.868   7.300
50224SOL    HW252570  11.769  12.875   7.264
50225SOL     OW52571   3.677   3.229  11.597
50225SOL    HW152572   3.689   3.323  11.581
50225SOL    HW252573   3.584   3.221  11.621
50226SOL     OW52574  11.739   4.195  13.491
50226SOL    HW152575  11.719   4.265  13.429
50226SOL    HW252576  11.654   4.153  13.508
50227SOL     OW52577  12.003  14.578  13.565
50227SOL    HW152578  12.048  14.499  13.593
50227SOL    HW252579  11.916  14.572  13.605
50228SOL     OW52580   4.618  12.593   5.170
50228SOL    HW152581   4.657  12.604   5.083
50228SOL    HW252582   4.661  12.515   5.205
50229SOL     OW52583   8.341   3.372  11.737
50229SOL    HW152584   8.286   3.412  11.670
50229SOL    HW252585   8.282   3.356  11.811
50230SOL     OW52586   5.755   2.016  14.855
50230SOL    HW152587   5.830   1.967  14.820
50230SOL    HW252588   5.679   1.961  14.835
50231SOL     OW52589  12.303   9.928   5.700
50231SOL    HW152590  12.356   9.877   5.761
50231SOL    HW252591  12.270  10.001   5.753
50232SOL     OW52592  11.796   5.179  11.696
50232SOL    HW152593  11.733   5.151  11.763
50232SOL    HW252594  11.799   5.274  11.706
50233SOL     OW52595  14.552   8.502  12.867
50233SOL    HW152596  14.616   8.548  12.813
50233SOL    HW252597  14.468   8.516  12.822
50234SOL     OW52598   9.006   5.186   5.219
50234SOL    HW152599   9.003   5.116   5.153
50234SOL    HW252600   9.022   5.266   5.168
50235SOL     OW52601   3.577  11.740   9.754
50235SOL    HW152602   3.570  11.835   9.761
50235SOL    HW252603   3.552  11.721   9.664
50236SOL     OW52604  11.019   6.470   0.366
50236SOL    HW152605  11.043   6.488   0.456
50236SOL    HW252606  11.100   6.438   0.325
50237SOL     OW52607   8.407  11.821  12.000
50237SOL    HW152608   8.411  11.911  11.967
50237SOL    HW252609   8.498  11.793  12.001
50238SOL     OW52610  11.415   1.008   9.165
50238SOL    HW152611  11.386   1.076   9.105
50238SOL    HW252612  11.384   0.926   9.127
50239SOL     OW52613  11.845  11.872  13.245
50239SOL    HW152614  11.822  11.805  13.180
50239SOL    HW252615  11.809  11.953  13.209
50240SOL     OW52616  13.448   0.392  14.442
50240SOL    HW152617  13.448   0.461  14.376
50240SOL    HW252618  13.364   0.348  14.431
50241SOL     OW52619  13.055   3.685  12.684
50241SOL    HW152620  12.960   3.682  12.680
50241SOL    HW252621  13.075   3.737  12.762
50242SOL     OW52622   0.370   5.403  12.509
50242SOL    HW152623   0.282   5.439  12.522
50242SOL    HW252624   0.420   5.434  12.584
50243SOL     OW52625   4.879   0.010   0.799
50243SOL    HW152626   4.906   0.090   0.755
50243SOL    HW252627   4.788   0.026   0.825
50244SOL     OW52628  10.173  14.697   3.216
50244SOL    HW152629  10.162  14.634   3.287
50244SOL    HW252630  10.266  14.717   3.215
50245SOL     OW52631  11.264   9.756   4.835
50245SOL    HW152632  11.325   9.753   4.908
50245SOL    HW252633  11.192   9.698   4.861
50246SOL     OW52634   7.226   4.109   8.547
50246SOL    HW152635   7.301   4.156   8.583
50246SOL    HW252636   7.162   4.177   8.527
50247SOL     OW52637   2.951  11.255  14.382
50247SOL    HW152638   2.858  11.276  14.371
50247SOL    HW252639   2.997  11.330  14.343
50248SOL     OW52640   0.382   0.340   5.855
50248SOL    HW152641   0.459   0.397   5.850
50248SOL    HW252642   0.365   0.314   5.765
50249SOL     OW52643  13.305   3.880  10.226
50249SOL    HW152644  13.366   3.943  10.263
50249SOL    HW252645  13.250   3.932  10.167
50250SOL     OW52646   8.171  11.721  13.923
50250SOL    HW152647   8.150  11.805  13.962
50250SOL    HW252648   8.136  11.656  13.985
50251SOL     OW52649   5.276   6.719  11.479
50251SOL    HW152650   5.365   6.726  11.512
50251SOL    HW252651   5.276   6.772  11.400
50252SOL     OW52652   8.698   3.787   1.866
50252SOL    HW152653   8.603   3.794   1.857
50252SOL    HW252654   8.727   3.754   1.781
50253SOL     OW52655   9.774  10.122   7.559
50253SOL    HW152656   9.806  10.191   7.616
50253SOL    HW252657   9.702  10.162   7.510
50254SOL     OW52658   0.225   8.497   0.338
50254SOL    HW152659   0.271   8.480   0.255
50254SOL    HW252660   0.256   8.583   0.365
50255SOL     OW52661  12.824  10.796   2.701
50255SOL    HW152662  12.786  10.788   2.614
50255SOL    HW252663  12.881  10.872   2.696
50256SOL     OW52664  13.916   5.395  10.492
50256SOL    HW152665  13.919   5.430  10.581
50256SOL    HW252666  13.907   5.300  10.504
50257SOL     OW52667   0.719  10.895   6.195
50257SOL    HW152668   0.759  10.873   6.111
50257SOL    HW252669   0.780  10.956   6.236
50258SOL     OW52670   4.803   5.465  12.385
50258SOL    HW152671   4.887   5.505  12.407
50258SOL    HW252672   4.820   5.414  12.306
50259SOL     OW52673   1.268   2.041  10.204
50259SOL    HW152674   1.315   2.062  10.285
50259SOL    HW252675   1.217   2.120  10.185
50260SOL     OW52676   7.570   1.759   1.830
50260SOL    HW152677   7.563   1.676   1.878
50260SOL    HW252678   7.573   1.826   1.899
50261SOL     OW52679   2.873   8.079   0.935
50261SOL    HW152680   2.844   8.017   1.002
50261SOL    HW252681   2.827   8.053   0.855
50262SOL     OW52682  11.816  10.893  14.675
50262SOL    HW152683  11.773  10.819  14.633
50262SOL    HW252684  11.777  10.970  14.634
50263SOL     OW52685   9.579  14.070   3.094
50263SOL    HW152686   9.498  14.025   3.117
50263SOL    HW252687   9.553  14.134   3.028
50264SOL     OW52688  10.444   0.880  12.056
50264SOL    HW152689  10.477   0.970  12.062
50264SOL    HW252690  10.360   0.888  12.011
50265SOL     OW52691   4.864  11.233  12.963
50265SOL    HW152692   4.822  11.315  12.991
50265SOL    HW252693   4.790  11.174  12.944
50266SOL     OW52694   2.464   7.361  12.819
50266SOL    HW152695   2.554   7.393  12.824
50266SOL    HW252696   2.471   7.266  12.828
50267SOL     OW52697   7.205   7.228  11.069
50267SOL    HW152698   7.267   7.285  11.025
50267SOL    HW252699   7.258   7.155  11.101
50268SOL     OW52700   0.428   1.993   9.481
50268SOL    HW152701   0.522   1.993   9.500
50268SOL    HW252702   0.386   1.971   9.563
50269SOL     OW52703   5.694   6.421   0.908
50269SOL    HW152704   5.709   6.506   0.866
50269SOL    HW252705   5.694   6.358   0.836
50270SOL     OW52706  13.286  12.490  10.948
50270SOL    HW152707  13.376  12.462  10.967
50270SOL    HW252708  13.296  12.566  10.890
50271SOL     OW52709   8.201   2.284  13.880
50271SOL    HW152710   8.174   2.346  13.812
50271SOL    HW252711   8.279   2.242  13.844
50272SOL     OW52712  10.926  13.059   0.788
50272SOL    HW152713  10.983  13.065   0.712
50272SOL    HW252714  10.983  13.032   0.860
50273SOL     OW52715   8.604   5.576   8.246
50273SOL    HW152716   8.611   5.528   8.164
50273SOL    HW252717   8.645   5.519   8.311
50274SOL     OW52718   1.477   8.520   9.406
50274SOL    HW152719   1.549   8.582   9.389
50274SOL    HW252720   1.403   8.556   9.357
50275SOL     OW52721   6.439  10.761  10.953
50275SOL    HW152722   6.475  10.711  11.027
50275SOL    HW252723   6.450  10.852  10.978
50276SOL     OW52724   3.510  14.107   5.215
50276SOL    HW152725   3.505  14.012   5.220
50276SOL    HW252726   3.553  14.125   5.131
50277SOL     OW52727   9.415   3.590   1.713
50277SOL    HW152728   9.480   3.565   1.647
50277SOL    HW252729   9.453   3.562   1.796
50278SOL     OW52730   2.779   0.989   1.112
50278SOL    HW152731   2.704   0.932   1.095
50278SOL    HW252732   2.746   1.054   1.173
50279SOL     OW52733  11.941  11.537   9.216
50279SOL    HW152734  12.030  11.540   9.249
50279SOL    HW252735  11.898  11.613   9.255
50280SOL     OW52736  11.511   1.931   6.178
50280SOL    HW152737  11.551   2.001   6.125
50280SOL    HW252738  11.423   1.963   6.198
50281SOL     OW52739   3.359  13.266   2.000
50281SOL    HW152740   3.382  13.324   1.927
50281SOL    HW252741   3.370  13.178   1.965
50282SOL     OW52742  14.271   4.540   7.717
50282SOL    HW152743  14.334   4.501   7.777
50282SOL    HW252744  14.261   4.476   7.647
50283SOL     OW52745   2.641  14.292   4.695
50283SOL    HW152746   2.617  14.283   4.603
50283SOL    HW252747   2.580  14.357   4.730
50284SOL     OW52748  10.023   0.315   2.643
50284SOL    HW152749   9.983   0.266   2.715
50284SOL    HW252750  10.116   0.314   2.662
50285SOL     OW52751  11.141   3.116   6.183
50285SOL    HW152752  11.097   3.089   6.264
50285SOL    HW252753  11.179   3.036   6.148
50286SOL     OW52754   5.281   7.637   3.033
50286SOL    HW152755   5.309   7.557   2.988
50286SOL    HW252756   5.342   7.704   3.001
50287SOL     OW52757  10.805  11.783   2.196
50287SOL    HW152758  10.886  11.808   2.241
50287SOL    HW252759  10.765  11.718   2.254
50288SOL     OW52760  14.084   9.493   0.966
50288SOL    HW152761  14.126   9.501   0.880
50288SOL    HW252762  13.992   9.516   0.949
50289SOL     OW52763   6.454   6.173   4.328
50289SOL    HW152764   6.533   6.148   4.280
50289SOL    HW252765   6.424   6.091   4.368
50290SOL     OW52766   8.698   8.798   7.809
50290SOL    HW152767   8.713   8.703   7.813
50290SOL    HW252768   8.605   8.807   7.790
50291SOL     OW52769  11.746  10.227   3.660
50291SOL    HW152770  11.665  10.191   3.625
50291SOL    HW252771  11.734  10.226   3.755
50292SOL     OW52772   4.206   2.824   8.133
50292SOL    HW152773   4.254   2.842   8.214
50292SOL    HW252774   4.262   2.762   8.086
50293SOL     OW52775  13.883  13.281  13.829
50293SOL    HW152776  13.865  13.316  13.916
50293SOL    HW252777  13.964  13.324  13.802
50294SOL     OW52778  12.912   2.563  12.566
50294SOL    HW152779  12.916   2.625  12.493
50294SOL    HW252780  12.822   2.568  12.598
50295SOL     OW52781  13.500   5.611   7.150
50295SOL    HW152782  13.432   5.678   7.142
50295SOL    HW252783  13.574   5.657   7.189
50296SOL     OW52784  12.678   0.300  13.415
50296SOL    HW152785  12.603   0.252  13.382
50296SOL    HW252786  12.750   0.273  13.358
50297SOL     OW52787   5.067   1.486   5.519
50297SOL    HW152788   5.106   1.441   5.595
50297SOL    HW252789   5.136   1.545   5.489
50298SOL     OW52790   3.537   6.475   5.635
50298SOL    HW152791   3.500   6.427   5.708
50298SOL    HW252792   3.474   6.544   5.616
50299SOL     OW52793   0.692   8.474   5.029
50299SOL    HW152794   0.744   8.497   5.106
50299SOL    HW252795   0.755   8.439   4.966
50300SOL     OW52796  10.888  12.699  13.924
50300SOL    HW152797  10.843  12.724  14.004
50300SOL    HW252798  10.968  12.753  13.922
50301SOL     OW52799   7.683  10.832   0.472
50301SOL    HW152800   7.635  10.754   0.445
50301SOL    HW252801   7.752  10.842   0.407
50302SOL     OW52802   1.391   3.964   1.268
50302SOL    HW152803   1.428   3.888   1.313
50302SOL    HW252804   1.423   4.040   1.318
50303SOL     OW52805   2.898   0.779   0.105
50303SOL    HW152806   2.939   0.706   0.059
50303SOL    HW252807   2.841   0.820   0.039
50304SOL     OW52808  10.078   2.469   3.861
50304SOL    HW152809  10.055   2.413   3.935
50304SOL    HW252810  10.029   2.550   3.876
50305SOL     OW52811  12.065  13.599   5.084
50305SOL    HW152812  12.071  13.506   5.105
50305SOL    HW252813  11.972  13.616   5.073
50306SOL     OW52814   7.970   4.936  12.303
50306SOL    HW152815   7.939   5.012  12.351
50306SOL    HW252816   8.031   4.971  12.238
50307SOL     OW52817   3.836   4.415  13.281
50307SOL    HW152818   3.851   4.385  13.370
50307SOL    HW252819   3.780   4.348  13.242
50308SOL     OW52820   6.770  12.731   8.638
50308SOL    HW152821   6.859  12.696   8.629
50308SOL    HW252822   6.767  12.804   8.576
50309SOL     OW52823   6.462   8.164  11.146
50309SOL    HW152824   6.488   8.236  11.205
50309SOL    HW252825   6.457   8.087  11.203
50310SOL     OW52826   3.136  14.782   2.912
50310SOL    HW152827   3.053  14.742   2.886
50310SOL    HW252828   3.111  14.863   2.957
50311SOL     OW52829   5.666   0.094  14.679
50311SOL    HW152830   5.619   0.131  14.754
50311SOL    HW252831   5.612   0.117  14.603
50312SOL     OW52832   1.601   9.430  14.789
50312SOL    HW152833   1.625   9.383   0.001
50312SOL    HW252834   1.652   9.511  14.793
50313SOL     OW52835   7.819  10.198   7.218
50313SOL    HW152836   7.789  10.251   7.292
50313SOL    HW252837   7.761  10.222   7.146
50314SOL     OW52838  14.572   2.681  12.660
50314SOL    HW152839  14.533   2.766  12.646
50314SOL    HW252840  14.516   2.639  12.726
50315SOL     OW52841   3.544   1.926  11.529
50315SOL    HW152842   3.536   1.894  11.439
50315SOL    HW252843   3.457   1.912  11.567
50316SOL     OW52844   0.311  13.398  11.355
50316SOL    HW152845   0.264  13.462  11.302
50316SOL    HW252846   0.245  13.366  11.417
50317SOL     OW52847  11.114  10.677  11.027
50317SOL    HW152848  11.148  10.737  11.093
50317SOL    HW252849  11.135  10.718  10.943
50318SOL     OW52850  10.080  14.118   4.356
50318SOL    HW152851  10.150  14.077   4.305
50318SOL    HW252852  10.123  14.189   4.403
50319SOL     OW52853   7.389   8.338   7.751
50319SOL    HW152854   7.468   8.388   7.773
50319SOL    HW252855   7.414   8.247   7.764
50320SOL     OW52856   5.354  13.628   3.148
50320SOL    HW152857   5.352  13.662   3.238
50320SOL    HW252858   5.371  13.534   3.159
50321SOL     OW52859   1.564  11.564  11.837
50321SOL    HW152860   1.575  11.620  11.760
50321SOL    HW252861   1.611  11.483  11.814
50322SOL     OW52862   7.748  10.448   7.051
50322SOL    HW152863   7.688  10.500   6.998
50322SOL    HW252864   7.834  10.463   7.011
50323SOL     OW52865   0.041  13.232  12.673
50323SOL    HW152866   0.086  13.149  12.687
50323SOL    HW252867   0.007  13.256  12.759
50324SOL     OW52868  13.662   7.246   6.061
50324SOL    HW152869  13.660   7.186   6.135
50324SOL    HW252870  13.723   7.206   5.999
50325SOL     OW52871   7.396   7.402   2.355
50325SOL    HW152872   7.372   7.364   2.270
50325SOL    HW252873   7.480   7.445   2.339
50326SOL     OW52874  11.690  11.391   9.159
50326SOL    HW152875  11.776  11.426   9.182
50326SOL    HW252876  11.689  11.303   9.198
50327SOL     OW52877   4.285  13.610  10.405
50327SOL    HW152878   4.357  13.671  10.416
50327SOL    HW252879   4.307  13.536  10.463
50328SOL     OW52880  10.244   7.214  11.080
50328SOL    HW152881  10.277   7.153  11.146
50328SOL    HW252882  10.164   7.173  11.048
50329SOL     OW52883   3.219   1.482   2.548
50329SOL    HW152884   3.205   1.571   2.582
50329SOL    HW252885   3.132   1.443   2.545
50330SOL     OW52886   9.673   2.030   7.661
50330SOL    HW152887   9.659   2.080   7.581
50330SOL    HW252888   9.587   2.028   7.704
50331SOL     OW52889  14.395   1.647   9.214
50331SOL    HW152890  14.316   1.657   9.267
50331SOL    HW252891  14.460   1.702   9.258
50332SOL     OW52892   5.880  14.234   7.152
50332SOL    HW152893   5.873  14.229   7.247
50332SOL    HW252894   5.795  14.268   7.123
50333SOL     OW52895   5.275   8.043   0.003
50333SOL    HW152896   5.238   8.127  14.844
50333SOL    HW252897   5.355   8.034  14.820
50334SOL     OW52898   5.310   0.799   6.592
50334SOL    HW152899   5.259   0.785   6.672
50334SOL    HW252900   5.282   0.885   6.560
50335SOL     OW52901   8.046  14.372  12.935
50335SOL    HW152902   7.997  14.290  12.946
50335SOL    HW252903   8.054  14.382  12.840
50336SOL     OW52904   1.169   4.420   5.133
50336SOL    HW152905   1.210   4.505   5.144
50336SOL    HW252906   1.122   4.405   5.215
50337SOL     OW52907  11.529   5.648  12.321
50337SOL    HW152908  11.561   5.705  12.391
50337SOL    HW252909  11.580   5.567  12.332
50338SOL     OW52910  14.367   3.132   4.042
50338SOL    HW152911  14.440   3.176   4.086
50338SOL    HW252912  14.308   3.106   4.113
50339SOL     OW52913   9.149   2.642   2.820
50339SOL    HW152914   9.081   2.589   2.861
50339SOL    HW252915   9.183   2.696   2.891
50340SOL     OW52916   7.910  12.940  11.508
50340SOL    HW152917   7.904  12.913  11.600
50340SOL    HW252918   7.871  12.867  11.460
50341SOL     OW52919   2.069   7.446   6.211
50341SOL    HW152920   2.127   7.499   6.156
50341SOL    HW252921   1.999   7.418   6.152
50342SOL     OW52922   2.521   3.779   0.966
50342SOL    HW152923   2.519   3.846   0.897
50342SOL    HW252924   2.430   3.751   0.975
50343SOL     OW52925   2.095  13.043   3.402
50343SOL    HW152926   2.020  12.989   3.376
50343SOL    HW252927   2.106  13.026   3.495
50344SOL     OW52928  12.326   0.331   1.363
50344SOL    HW152929  12.249   0.373   1.400
50344SOL    HW252930  12.400   0.375   1.404
50345SOL     OW52931   3.218   6.433  12.640
50345SOL    HW152932   3.223   6.466  12.730
50345SOL    HW252933   3.266   6.350  12.642
50346SOL     OW52934  12.478  12.316   1.612
50346SOL    HW152935  12.489  12.369   1.532
50346SOL    HW252936  12.439  12.376   1.675
50347SOL     OW52937   4.870  10.204   5.958
50347SOL    HW152938   4.922  10.127   5.979
50347SOL    HW252939   4.831  10.231   6.041
50348SOL     OW52940  11.708  14.546  12.335
50348SOL    HW152941  11.614  14.544  12.318
50348SOL    HW252942  11.716  14.567  12.428
50349SOL     OW52943   9.285   2.656   8.798
50349SOL    HW152944   9.374   2.631   8.825
50349SOL    HW252945   9.298   2.699   8.713
50350SOL     OW52946  10.786   5.482  13.035
50350SOL    HW152947  10.864   5.464  12.983
50350SOL    HW252948  10.766   5.574  13.016
50351SOL     OW52949   8.305   4.663   4.461
50351SOL    HW152950   8.343   4.592   4.512
50351SOL    HW252951   8.284   4.730   4.525
50352SOL     OW52952   0.327   7.093  10.011
50352SOL    HW152953   0.246   7.046   9.995
50352SOL    HW252954   0.330   7.162   9.945
50353SOL     OW52955   0.059   8.942   9.300
50353SOL    HW152956   0.054   8.880   9.228
50353SOL    HW252957   0.007   8.902   9.370
50354SOL     OW52958   3.855   6.548   9.106
50354SOL    HW152959   3.850   6.461   9.146
50354SOL    HW252960   3.937   6.585   9.138
50355SOL     OW52961   0.134  14.327  10.879
50355SOL    HW152962   0.139  14.290  10.791
50355SOL    HW252963   0.050  14.372  10.881
50356SOL     OW52964  11.895   0.223  14.207
50356SOL    HW152965  11.868   0.313  14.188
50356SOL    HW252966  11.910   0.183  14.121
50357SOL     OW52967   5.450   5.359  14.255
50357SOL    HW152968   5.420   5.325  14.170
50357SOL    HW252969   5.501   5.287  14.292
50358SOL     OW52970   3.828   8.454  12.820
50358SOL    HW152971   3.914   8.458  12.779
50358SOL    HW252972   3.783   8.383  12.775
50359SOL     OW52973   7.482   6.563   1.456
50359SOL    HW152974   7.477   6.469   1.470
50359SOL    HW252975   7.447   6.576   1.367
50360SOL     OW52976  11.601   6.773  10.873
50360SOL    HW152977  11.592   6.697  10.816
50360SOL    HW252978  11.652   6.836  10.822
50361SOL     OW52979   4.202  10.502   4.813
50361SOL    HW152980   4.153  10.419   4.814
50361SOL    HW252981   4.293  10.476   4.807
50362SOL     OW52982  11.079   9.540   0.731
50362SOL    HW152983  11.013   9.549   0.800
50362SOL    HW252984  11.030   9.509   0.655
50363SOL     OW52985   6.751   7.484   0.771
50363SOL    HW152986   6.746   7.545   0.844
50363SOL    HW252987   6.824   7.427   0.792
50364SOL     OW52988  10.869   8.668   2.466
50364SOL    HW152989  10.778   8.664   2.435
50364SOL    HW252990  10.886   8.581   2.502
50365SOL     OW52991  12.392   3.173  10.498
50365SOL    HW152992  12.409   3.229  10.574
50365SOL    HW252993  12.298   3.185  10.480
50366SOL     OW52994   2.826   2.124   3.598
50366SOL    HW152995   2.896   2.128   3.533
50366SOL    HW252996   2.788   2.036   3.588
50367SOL     OW52997   4.547   0.049   8.142
50367SOL    HW152998   4.548   0.119   8.077
50367SOL    HW252999   4.542   0.094   8.226
50368SOL     OW53000   7.451   4.488   6.209
50368SOL    HW153001   7.403   4.436   6.144
50368SOL    HW253002   7.478   4.424   6.275
50369SOL     OW53003   9.500   6.287   6.317
50369SOL    HW153004   9.556   6.363   6.330
50369SOL    HW253005   9.524   6.227   6.388
50370SOL     OW53006  10.857   2.043   6.350
50370SOL    HW153007  10.807   2.107   6.401
50370SOL    HW253008  10.808   1.962   6.360
50371SOL     OW53009   0.046  12.619   9.853
50371SOL    HW153010   0.020  12.553   9.917
50371SOL    HW253011   0.012  12.701   9.888
50372SOL     OW53012   4.688   4.862  11.158
50372SOL    HW153013   4.783   4.876  11.150
50372SOL    HW253014   4.661   4.924  11.226
50373SOL     OW53015   0.840  13.700   8.421
50373SOL    HW153016   0.904  13.738   8.482
50373SOL    HW253017   0.889  13.689   8.340
50374SOL     OW53018  14.521   7.302  14.338
50374SOL    HW153019  14.573   7.350  14.273
50374SOL    HW253020  14.450   7.362  14.360
50375SOL     OW53021   7.902   6.309   4.927
50375SOL    HW153022   7.980   6.357   4.955
50375SOL    HW253023   7.918   6.288   4.835
50376SOL     OW53024   8.163   1.466   5.535
50376SOL    HW153025   8.255   1.459   5.507
50376SOL    HW253026   8.156   1.405   5.608
50377SOL     OW53027   9.783  11.111  12.793
50377SOL    HW153028   9.720  11.059  12.843
50377SOL    HW253029   9.731  11.180  12.753
50378SOL     OW53030  13.370   1.742  13.405
50378SOL    HW153031  13.426   1.725  13.481
50378SOL    HW253032  13.378   1.663  13.352
50379SOL     OW53033  10.400   6.516   3.551
50379SOL    HW153034  10.355   6.451   3.497
50379SOL    HW253035  10.338   6.536   3.621
50380SOL     OW53036   7.170   7.701   2.898
50380SOL    HW153037   7.215   7.739   2.973
50380SOL    HW253038   7.187   7.607   2.904
50381SOL     OW53039  11.534   0.471  11.330
50381SOL    HW153040  11.495   0.490  11.415
50381SOL    HW253041  11.599   0.541  11.318
50382SOL     OW53042  12.138  13.782   7.265
50382SOL    HW153043  12.051  13.775   7.225
50382SOL    HW253044  12.177  13.696   7.252
50383SOL     OW53045   4.333   2.276  11.495
50383SOL    HW153046   4.388   2.254  11.571
50383SOL    HW253047   4.284   2.353  11.524
50384SOL     OW53048  11.869   2.079  13.091
50384SOL    HW153049  11.776   2.099  13.097
50384SOL    HW253050  11.912   2.164  13.083
50385SOL     OW53051  13.339   8.464  14.564
50385SOL    HW153052  13.339   8.538  14.625
50385SOL    HW253053  13.412   8.410  14.592
50386SOL     OW53054   6.327   0.267  11.613
50386SOL    HW153055   6.385   0.342  11.599
50386SOL    HW253056   6.363   0.199  11.556
50387SOL     OW53057   4.002   6.890  12.236
50387SOL    HW153058   4.056   6.815  12.257
50387SOL    HW253059   4.039   6.925  12.155
50388SOL     OW53060  14.758  12.172   3.753
50388SOL    HW153061  14.704  12.160   3.675
50388SOL    HW253062  14.816  12.096   3.754
50389SOL     OW53063  13.802   7.376   7.218
50389SOL    HW153064  13.838   7.376   7.307
50389SOL    HW253065  13.759   7.291   7.209
50390SOL     OW53066   1.289   2.974   0.223
50390SOL    HW153067   1.280   2.891   0.270
50390SOL    HW253068   1.369   2.964   0.172
50391SOL     OW53069  13.461  10.541   8.627
50391SOL    HW153070  13.368  10.550   8.607
50391SOL    HW253071  13.504  10.551   8.542
50392SOL     OW53072   9.681  11.207   9.044
50392SOL    HW153073   9.690  11.276   9.109
50392SOL    HW253074   9.725  11.131   9.082
50393SOL     OW53075  13.445  12.016  14.574
50393SOL    HW153076  13.525  12.055  14.611
50393SOL    HW253077  13.476  11.964  14.500
50394SOL     OW53078  13.791  10.281   9.056
50394SOL    HW153079  13.722  10.279   8.990
50394SOL    HW253080  13.744  10.277   9.140
50395SOL     OW53081   0.431   7.174  13.637
50395SOL    HW153082   0.486   7.236  13.685
50395SOL    HW253083   0.490   7.131  13.576
50396SOL     OW53084  14.532  14.526   2.122
50396SOL    HW153085  14.464  14.589   2.098
50396SOL    HW253086  14.516  14.451   2.065
50397SOL     OW53087   2.386  12.835   5.635
50397SOL    HW153088   2.356  12.895   5.566
50397SOL    HW253089   2.353  12.749   5.608
50398SOL     OW53090  12.444  13.097   9.440
50398SOL    HW153091  12.398  13.051   9.511
50398SOL    HW253092  12.500  13.160   9.486
50399SOL     OW53093   3.154  11.210  13.979
50399SOL    HW153094   3.222  11.206  13.912
50399SOL    HW253095   3.193  11.261  14.050
50400SOL     OW53096  14.646   7.472   9.260
50400SOL    HW153097  14.642   7.378   9.276
50400SOL    HW253098  14.729   7.485   9.214
50401SOL     OW53099   3.986   0.929  14.023
50401SOL    HW153100   4.009   1.022  14.026
50401SOL    HW253101   4.069   0.883  14.015
50402SOL     OW53102   0.721  10.062   7.163
50402SOL    HW153103   0.713  10.057   7.067
50402SOL    HW253104   0.815  10.059   7.179
50403SOL     OW53105  13.531   9.577  12.264
50403SOL    HW153106  13.600   9.626  12.310
50403SOL    HW253107  13.462   9.641  12.249
50404SOL     OW53108   1.334   2.915  13.315
50404SOL    HW153109   1.292   3.000  13.325
50404SOL    HW253110   1.395   2.910  13.389
50405SOL     OW53111  13.255   7.830   1.442
50405SOL    HW153112  13.298   7.909   1.408
50405SOL    HW253113  13.162   7.848   1.433
50406SOL     OW53114  10.002   0.016  11.974
50406SOL    HW153115  10.079  14.848  12.018
50406SOL    HW253116   9.967  14.811  11.924
50407SOL     OW53117   7.022   2.446  11.175
50407SOL    HW153118   6.963   2.499  11.228
50407SOL    HW253119   7.078   2.401  11.238
50408SOL     OW53120  13.740   8.592   3.980
50408SOL    HW153121  13.806   8.619   4.044
50408SOL    HW253122  13.701   8.674   3.950
50409SOL     OW53123  11.541   2.134   6.569
50409SOL    HW153124  11.622   2.181   6.585
50409SOL    HW253125  11.567   2.043   6.555
50410SOL     OW53126   9.367  11.317   5.900
50410SOL    HW153127   9.318  11.371   5.837
50410SOL    HW253128   9.456  11.314   5.865
50411SOL     OW53129   1.423   7.716   0.628
50411SOL    HW153130   1.370   7.725   0.707
50411SOL    HW253131   1.437   7.622   0.619
50412SOL     OW53132   4.521   8.002   5.054
50412SOL    HW153133   4.462   7.955   5.113
50412SOL    HW253134   4.513   8.093   5.081
50413SOL     OW53135  11.293  12.564   4.053
50413SOL    HW153136  11.369  12.506   4.047
50413SOL    HW253137  11.317  12.629   4.119
50414SOL     OW53138  14.764  11.284  12.502
50414SOL    HW153139  14.762  11.370  12.460
50414SOL    HW253140  14.722  11.225  12.440
50415SOL     OW53141   3.996   5.341   5.384
50415SOL    HW153142   4.057   5.298   5.323
50415SOL    HW253143   3.923   5.368   5.329
50416SOL     OW53144   6.072   5.439   4.896
50416SOL    HW153145   6.137   5.447   4.826
50416SOL    HW253146   6.123   5.442   4.976
50417SOL     OW53147   3.260  13.912   4.664
50417SOL    HW153148   3.267  13.831   4.714
50417SOL    HW253149   3.221  13.885   4.581
50418SOL     OW53150   5.448  12.410   9.211
50418SOL    HW153151   5.446  12.398   9.116
50418SOL    HW253152   5.408  12.496   9.225
50419SOL     OW53153   6.937   9.947   8.522
50419SOL    HW153154   6.992  10.014   8.482
50419SOL    HW253155   6.881   9.996   8.583
50420SOL     OW53156   2.803   9.661   6.694
50420SOL    HW153157   2.783   9.568   6.706
50420SOL    HW253158   2.888   9.663   6.652
50421SOL     OW53159   6.915  11.923   7.513
50421SOL    HW153160   6.937  11.866   7.440
50421SOL    HW253161   6.868  11.867   7.575
50422SOL     OW53162  12.618  14.834   7.606
50422SOL    HW153163  12.707  14.867   7.613
50422SOL    HW253164  12.565   0.044   7.584
50423SOL     OW53165   4.753  12.079   0.083
50423SOL    HW153166   4.684  12.080   0.016
50423SOL    HW253167   4.834  12.066   0.034
50424SOL     OW53168   8.168   7.870   7.996
50424SOL    HW153169   8.080   7.854   8.028
50424SOL    HW253170   8.211   7.919   8.067
50425SOL     OW53171   1.478  10.851   9.684
50425SOL    HW153172   1.398  10.820   9.727
50425SOL    HW253173   1.534  10.879   9.756
50426SOL     OW53174   0.321  13.961   2.366
50426SOL    HW153175   0.232  13.963   2.403
50426SOL    HW253176   0.373  14.014   2.427
50427SOL     OW53177   5.756   0.604  13.452
50427SOL    HW153178   5.813   0.601  13.375
50427SOL    HW253179   5.721   0.693  13.453
50428SOL     OW53180   8.251   6.333  14.652
50428SOL    HW153181   8.330   6.291  14.685
50428SOL    HW253182   8.266   6.427  14.666
50429SOL     OW53183   6.497  10.361  14.767
50429SOL    HW153184   6.485  10.333  14.676
50429SOL    HW253185   6.559  10.434  14.762
50430SOL     OW53186  14.216  11.088  13.222
50430SOL    HW153187  14.251  11.107  13.135
50430SOL    HW253188  14.232  11.168  13.272
50431SOL     OW53189  10.514   0.691   9.455
50431SOL    HW153190  10.517   0.770   9.510
50431SOL    HW253191  10.446   0.710   9.390
50432SOL     OW53192   1.369   6.204   1.166
50432SOL    HW153193   1.345   6.291   1.197
50432SOL    HW253194   1.342   6.203   1.074
50433SOL     OW53195  11.047   6.484   9.084
50433SOL    HW153196  10.989   6.435   9.143
50433SOL    HW253197  11.022   6.455   8.996
50434SOL     OW53198   2.625   7.595  11.476
50434SOL    HW153199   2.708   7.631  11.508
50434SOL    HW253200   2.594   7.540  11.547
50435SOL     OW53201   5.519  11.761   8.119
50435SOL    HW153202   5.528  11.843   8.167
50435SOL    HW253203   5.512  11.694   8.187
50436SOL     OW53204   9.713  12.041   8.427
50436SOL    HW153205   9.658  12.036   8.349
50436SOL    HW253206   9.708  12.133   8.453
50437SOL     OW53207   4.571   6.449  12.903
50437SOL    HW153208   4.550   6.538  12.875
50437SOL    HW253209   4.620   6.412  12.830
50438SOL     OW53210  10.889   2.106   5.356
50438SOL    HW153211  10.901   2.099   5.262
50438SOL    HW253212  10.891   2.200   5.375
50439SOL     OW53213  12.130   2.380  13.575
50439SOL    HW153214  12.098   2.427  13.653
50439SOL    HW253215  12.203   2.433  13.544
50440SOL     OW53216  12.381   2.377   6.591
50440SOL    HW153217  12.310   2.430   6.554
50440SOL    HW253218  12.343   2.334   6.667
50441SOL     OW53219  13.033  12.924  14.152
50441SOL    HW153220  12.994  12.997  14.104
50441SOL    HW253221  13.127  12.941  14.150
50442SOL     OW53222   5.185   3.527  13.081
50442SOL    HW153223   5.240   3.536  13.003
50442SOL    HW253224   5.140   3.443  13.068
50443SOL     OW53225   0.113   7.389  11.338
50443SOL    HW153226   0.150   7.324  11.279
50443SOL    HW253227   0.019   7.384  11.324
50444SOL     OW53228   9.538   2.699  14.203
50444SOL    HW153229   9.626   2.662  14.199
50444SOL    HW253230   9.497   2.675  14.120
50445SOL     OW53231   2.001   8.718   1.896
50445SOL    HW153232   1.961   8.703   1.982
50445SOL    HW253233   2.082   8.666   1.899
50446SOL     OW53234   0.332   6.130   3.315
50446SOL    HW153235   0.302   6.130   3.224
50446SOL    HW253236   0.363   6.041   3.330
50447SOL     OW53237  12.717  11.812  13.050
50447SOL    HW153238  12.810  11.818  13.072
50447SOL    HW253239  12.673  11.866  13.116
50448SOL     OW53240  13.925   6.625   0.885
50448SOL    HW153241  13.957   6.542   0.922
50448SOL    HW253242  14.003   6.665   0.846
50449SOL     OW53243   6.725   9.979   3.317
50449SOL    HW153244   6.756  10.059   3.360
50449SOL    HW253245   6.777   9.973   3.237
50450SOL     OW53246   2.941  13.624  11.514
50450SOL    HW153247   2.959  13.558  11.446
50450SOL    HW253248   2.976  13.585  11.594
50451SOL     OW53249   5.440  11.963  10.665
50451SOL    HW153250   5.371  11.996  10.722
50451SOL    HW253251   5.471  11.884  10.707
50452SOL     OW53252   6.448   8.672   1.916
50452SOL    HW153253   6.445   8.584   1.880
50452SOL    HW253254   6.363   8.710   1.896
50453SOL     OW53255   6.563  13.769   5.414
50453SOL    HW153256   6.502  13.702   5.382
50453SOL    HW253257   6.643  13.720   5.433
50454SOL     OW53258   6.835  13.647   7.294
50454SOL    HW153259   6.906  13.650   7.230
50454SOL    HW253260   6.875  13.610   7.372
50455SOL     OW53261   6.357   1.156   1.934
50455SOL    HW153262   6.398   1.109   1.861
50455SOL    HW253263   6.358   1.247   1.906
50456SOL     OW53264   5.212   8.637   1.721
50456SOL    HW153265   5.178   8.716   1.764
50456SOL    HW253266   5.134   8.594   1.685
50457SOL     OW53267   2.732   1.749   2.949
50457SOL    HW153268   2.686   1.676   2.991
50457SOL    HW253269   2.663   1.810   2.924
50458SOL     OW53270   3.318  14.050   0.511
50458SOL    HW153271   3.337  14.071   0.419
50458SOL    HW253272   3.312  14.135   0.554
50459SOL     OW53273   3.188   2.253  12.293
50459SOL    HW153274   3.217   2.192  12.225
50459SOL    HW253275   3.261   2.255  12.356
50460SOL     OW53276   9.220  12.621   2.473
50460SOL    HW153277   9.236  12.703   2.427
50460SOL    HW253278   9.125  12.608   2.466
50461SOL     OW53279   0.723   9.281   3.067
50461SOL    HW153280   0.759   9.258   3.153
50461SOL    HW253281   0.666   9.207   3.044
50462SOL     OW53282  10.287  12.680   0.151
50462SOL    HW153283  10.245  12.763   0.128
50462SOL    HW253284  10.342  12.702   0.227
50463SOL     OW53285   2.622  11.951   5.460
50463SOL    HW153286   2.635  12.037   5.501
50463SOL    HW253287   2.710  11.913   5.455
50464SOL     OW53288   9.690   0.399  12.355
50464SOL    HW153289   9.647   0.313  12.351
50464SOL    HW253290   9.619   0.461  12.368
50465SOL     OW53291   8.983   2.054  10.077
50465SOL    HW153292   9.021   1.971  10.050
50465SOL    HW253293   9.050   2.119  10.058
50466SOL     OW53294  14.191   5.560  13.916
50466SOL    HW153295  14.264   5.596  13.967
50466SOL    HW253296  14.232   5.496  13.858
50467SOL     OW53297  14.051  10.454  13.057
50467SOL    HW153298  14.110  10.529  13.063
50467SOL    HW253299  14.066  10.406  13.139
50468SOL     OW53300   9.730   3.919   5.765
50468SOL    HW153301   9.725   4.014   5.780
50468SOL    HW253302   9.815   3.906   5.724
50469SOL     OW53303   0.430   7.230   4.010
50469SOL    HW153304   0.349   7.216   3.962
50469SOL    HW253305   0.436   7.325   4.020
50470SOL     OW53306   8.210   4.984  12.190
50470SOL    HW153307   8.298   5.008  12.162
50470SOL    HW253308   8.175   4.931  12.118
50471SOL     OW53309  13.234   1.725  11.954
50471SOL    HW153310  13.239   1.645  11.901
50471SOL    HW253311  13.260   1.696  12.042
50472SOL     OW53312  13.688   1.937  11.631
50472SOL    HW153313  13.747   1.982  11.571
50472SOL    HW253314  13.681   1.995  11.707
50473SOL     OW53315  13.182   3.751   1.970
50473SOL    HW153316  13.176   3.709   1.884
50473SOL    HW253317  13.092   3.753   2.002
50474SOL     OW53318  11.627  12.787   5.890
50474SOL    HW153319  11.646  12.694   5.887
50474SOL    HW253320  11.554  12.795   5.952
50475SOL     OW53321   5.203   2.915   2.401
50475SOL    HW153322   5.180   2.853   2.470
50475SOL    HW253323   5.149   2.992   2.420
50476SOL     OW53324   2.659   9.838   3.542
50476SOL    HW153325   2.601   9.839   3.618
50476SOL    HW253326   2.607   9.797   3.472
50477SOL     OW53327  10.668  14.853   2.806
50477SOL    HW153328  10.732   0.046   2.770
50477SOL    HW253329  10.658  14.786   2.738
50478SOL     OW53330  12.739   5.828   8.559
50478SOL    HW153331  12.831   5.822   8.534
50478SOL    HW253332  12.720   5.744   8.600
50479SOL     OW53333   8.305  10.113   5.195
50479SOL    HW153334   8.286  10.064   5.275
50479SOL    HW253335   8.219  10.140   5.162
50480SOL     OW53336   5.753   3.345  13.177
50480SOL    HW153337   5.725   3.261  13.142
50480SOL    HW253338   5.702   3.410  13.128
50481SOL     OW53339   1.070  10.636   0.967
50481SOL    HW153340   0.985  10.666   0.998
50481SOL    HW253341   1.071  10.542   0.985
50482SOL     OW53342   1.532   0.212   4.297
50482SOL    HW153343   1.438   0.220   4.315
50482SOL    HW253344   1.541   0.131   4.247
50483SOL     OW53345   8.411   6.849   8.697
50483SOL    HW153346   8.484   6.794   8.668
50483SOL    HW253347   8.446   6.895   8.774
50484SOL     OW53348   6.507   6.869   6.334
50484SOL    HW153349   6.437   6.829   6.282
50484SOL    HW253350   6.478   6.859   6.425
50485SOL     OW53351   1.786  12.131  11.426
50485SOL    HW153352   1.717  12.084  11.378
50485SOL    HW253353   1.757  12.131  11.517
50486SOL     OW53354   7.001   7.623  14.229
50486SOL    HW153355   7.071   7.689  14.233
50486SOL    HW253356   7.047   7.539  14.233
50487SOL     OW53357  12.705   7.509  12.941
50487SOL    HW153358  12.671   7.598  12.944
50487SOL    HW253359  12.666   7.471  12.862
50488SOL     OW53360   7.471   3.743   3.313
50488SOL    HW153361   7.544   3.805   3.319
50488SOL    HW253362   7.425   3.752   3.396
50489SOL     OW53363   3.190   4.003   4.058
50489SOL    HW153364   3.278   3.965   4.057
50489SOL    HW253365   3.198   4.079   4.116
50490SOL     OW53366   5.093   7.029   6.431
50490SOL    HW153367   5.067   7.116   6.400
50490SOL    HW253368   5.019   7.001   6.486
50491SOL     OW53369   8.870   6.956   2.344
50491SOL    HW153370   8.822   6.924   2.267
50491SOL    HW253371   8.930   7.022   2.309
50492SOL     OW53372  12.409   8.324  14.100
50492SOL    HW153373  12.348   8.362  14.163
50492SOL    HW253374  12.496   8.350  14.132
50493SOL     OW53375   0.827   4.264  11.006
50493SOL    HW153376   0.743   4.310  11.004
50493SOL    HW253377   0.822   4.208  11.084
50494SOL     OW53378   2.569   8.362   6.981
50494SOL    HW153379   2.619   8.383   7.060
50494SOL    HW253380   2.578   8.267   6.972
50495SOL     OW53381   1.292  13.789   6.280
50495SOL    HW153382   1.237  13.860   6.247
50495SOL    HW253383   1.255  13.710   6.241
50496SOL     OW53384  14.321   7.195  11.444
50496SOL    HW153385  14.250   7.257  11.432
50496SOL    HW253386  14.304   7.125  11.381
50497SOL     OW53387   1.226  14.244   9.274
50497SOL    HW153388   1.167  14.319   9.270
50497SOL    HW253389   1.292  14.269   9.339
50498SOL     OW53390  13.909   5.837   4.451
50498SOL    HW153391  13.933   5.745   4.466
50498SOL    HW253392  13.921   5.878   4.537
50499SOL     OW53393  14.445  14.740  14.475
50499SOL    HW153394  14.467  14.791  14.397
50499SOL    HW253395  14.528  14.727  14.519
50500SOL     OW53396   1.382   8.214  12.396
50500SOL    HW153397   1.463   8.163  12.399
50500SOL    HW253398   1.348   8.200  12.308
50501SOL     OW53399  10.932  12.582   8.245
50501SOL    HW153400  10.848  12.610   8.209
50501SOL    HW253401  10.911  12.505   8.297
50502SOL     OW53402  11.922  13.641  10.041
50502SOL    HW153403  11.939  13.589  10.119
50502SOL    HW253404  11.995  13.703  10.038
50503SOL     OW53405   6.498   0.104  11.442
50503SOL    HW153406   6.540   0.028  11.402
50503SOL    HW253407   6.559   0.176  11.427
50504SOL     OW53408  12.770   5.247   3.277
50504SOL    HW153409  12.787   5.320   3.216
50504SOL    HW253410  12.695   5.277   3.329
50505SOL     OW53411   0.678   1.740   5.836
50505SOL    HW153412   0.692   1.654   5.797
50505SOL    HW253413   0.734   1.740   5.914
50506SOL     OW53414   0.370  10.737   5.269
50506SOL    HW153415   0.427  10.670   5.232
50506SOL    HW253416   0.313  10.762   5.197
50507SOL     OW53417   7.344  11.529   1.366
50507SOL    HW153418   7.273  11.591   1.383
50507SOL    HW253419   7.421  11.570   1.406
50508SOL     OW53420  14.082   9.321  11.937
50508SOL    HW153421  14.147   9.256  11.909
50508SOL    HW253422  14.020   9.325  11.864
50509SOL     OW53423  10.307   0.795  11.132
50509SOL    HW153424  10.229   0.823  11.083
50509SOL    HW253425  10.354   0.738  11.071
50510SOL     OW53426   7.875   1.044  13.579
50510SOL    HW153427   7.803   1.049  13.642
50510SOL    HW253428   7.954   1.039  13.633
50511SOL     OW53429   5.968   4.597   1.398
50511SOL    HW153430   5.951   4.530   1.332
50511SOL    HW253431   6.048   4.568   1.443
50512SOL     OW53432   3.958   4.298   5.418
50512SOL    HW153433   3.945   4.209   5.451
50512SOL    HW253434   3.870   4.330   5.399
50513SOL     OW53435  13.923   1.846  12.190
50513SOL    HW153436  13.839   1.802  12.176
50513SOL    HW253437  13.930   1.853  12.285
50514SOL     OW53438   4.822   9.724   1.081
50514SOL    HW153439   4.766   9.678   1.144
50514SOL    HW253440   4.770   9.724   1.000
50515SOL     OW53441  14.229   6.833   2.415
50515SOL    HW153442  14.308   6.779   2.407
50515SOL    HW253443  14.159   6.769   2.429
50516SOL     OW53444   0.565   2.081  12.434
50516SOL    HW153445   0.652   2.084  12.474
50516SOL    HW253446   0.546   2.172  12.413
50517SOL     OW53447   5.526   2.746   2.352
50517SOL    HW153448   5.480   2.750   2.435
50517SOL    HW253449   5.619   2.758   2.375
50518SOL     OW53450   0.508  14.314  10.479
50518SOL    HW153451   0.496  14.223  10.450
50518SOL    HW253452   0.461  14.318  10.563
50519SOL     OW53453   6.401   1.555   9.002
50519SOL    HW153454   6.330   1.618   8.992
50519SOL    HW253455   6.378   1.482   8.945
50520SOL     OW53456   9.499  10.755  11.857
50520SOL    HW153457   9.515  10.661  11.862
50520SOL    HW253458   9.403  10.764  11.861
50521SOL     OW53459  10.889   0.484   8.449
50521SOL    HW153460  10.849   0.480   8.536
50521SOL    HW253461  10.832   0.430   8.394
50522SOL     OW53462  12.512   4.491   0.676
50522SOL    HW153463  12.543   4.403   0.654
50522SOL    HW253464  12.564   4.549   0.620
50523SOL     OW53465   5.411  12.290   4.593
50523SOL    HW153466   5.381  12.199   4.597
50523SOL    HW253467   5.482  12.295   4.657
50524SOL     OW53468   3.650  14.695  11.476
50524SOL    HW153469   3.562  14.729  11.463
50524SOL    HW253470   3.650  14.611  11.432
50525SOL     OW53471   6.022   8.066  10.563
50525SOL    HW153472   6.043   7.973  10.558
50525SOL    HW253473   5.965   8.073  10.639
50526SOL     OW53474   8.361  11.414   2.244
50526SOL    HW153475   8.333  11.356   2.173
50526SOL    HW253476   8.296  11.485   2.243
50527SOL     OW53477   9.308   0.198  14.373
50527SOL    HW153478   9.341   0.200  14.283
50527SOL    HW253479   9.275   0.108  14.384
50528SOL     OW53480  10.716   2.526   9.717
50528SOL    HW153481  10.706   2.439   9.756
50528SOL    HW253482  10.699   2.513   9.624
50529SOL     OW53483   0.046   4.616  13.330
50529SOL    HW153484   0.115   4.676  13.303
50529SOL    HW253485   0.091   4.544  13.372
50530SOL     OW53486   6.863   0.532   7.790
50530SOL    HW153487   6.938   0.473   7.780
50530SOL    HW253488   6.880   0.603   7.728
50531SOL     OW53489   4.462  14.701   5.724
50531SOL    HW153490   4.444  14.651   5.803
50531SOL    HW253491   4.405  14.662   5.657
50532SOL     OW53492  12.686  12.707  11.573
50532SOL    HW153493  12.605  12.748  11.542
50532SOL    HW253494  12.749  12.779  11.579
50533SOL     OW53495  14.364   8.775   9.303
50533SOL    HW153496  14.432   8.710   9.325
50533SOL    HW253497  14.283   8.725   9.302
50534SOL     OW53498   6.943   8.338  10.348
50534SOL    HW153499   6.883   8.283  10.400
50534SOL    HW253500   6.885   8.392  10.294
50535SOL     OW53501   8.944   1.275   0.907
50535SOL    HW153502   8.895   1.267   0.988
50535SOL    HW253503   9.032   1.245   0.929
50536SOL     OW53504   5.900   0.449   1.336
50536SOL    HW153505   5.889   0.416   1.247
50536SOL    HW253506   5.840   0.523   1.342
50537SOL     OW53507  10.020  11.513   3.341
50537SOL    HW153508   9.965  11.531   3.417
50537SOL    HW253509   9.959  11.514   3.267
50538SOL     OW53510  10.167   4.939   3.254
50538SOL    HW153511  10.208   4.860   3.220
50538SOL    HW253512  10.211   5.011   3.208
50539SOL     OW53513   9.148  10.974   0.465
50539SOL    HW153514   9.188  11.048   0.509
50539SOL    HW253515   9.060  10.969   0.502
50540SOL     OW53516   9.736  12.640   2.456
50540SOL    HW153517   9.814  12.585   2.454
50540SOL    HW253518   9.690  12.614   2.536
50541SOL     OW53519   4.328   7.458  10.627
50541SOL    HW153520   4.271   7.440  10.552
50541SOL    HW253521   4.270   7.455  10.703
50542SOL     OW53522  14.211   2.287   2.704
50542SOL    HW153523  14.300   2.254   2.715
50542SOL    HW253524  14.156   2.216   2.737
50543SOL     OW53525  13.719   4.383   8.385
50543SOL    HW153526  13.672   4.407   8.306
50543SOL    HW253527  13.654   4.391   8.455
50544SOL     OW53528   8.210   2.630   8.044
50544SOL    HW153529   8.222   2.579   8.124
50544SOL    HW253530   8.115   2.640   8.036
50545SOL     OW53531  10.187  11.451   1.317
50545SOL    HW153532  10.135  11.391   1.263
50545SOL    HW253533  10.270  11.459   1.270
50546SOL     OW53534  12.720   4.177  13.933
50546SOL    HW153535  12.720   4.219  13.847
50546SOL    HW253536  12.639   4.127  13.935
50547SOL     OW53537  13.169  11.605   9.183
50547SOL    HW153538  13.122  11.687   9.171
50547SOL    HW253539  13.164  11.561   9.098
50548SOL     OW53540   3.298  13.083   7.044
50548SOL    HW153541   3.303  13.178   7.048
50548SOL    HW253542   3.206  13.063   7.059
50549SOL     OW53543  10.384  13.414   8.127
50549SOL    HW153544  10.293  13.423   8.155
50549SOL    HW253545  10.431  13.389   8.207
50550SOL     OW53546   6.912  12.171   5.871
50550SOL    HW153547   6.871  12.240   5.923
50550SOL    HW253548   7.002  12.199   5.860
50551SOL     OW53549  14.801   6.444   5.565
50551SOL    HW153550  14.795   6.469   5.657
50551SOL    HW253551  14.795   6.526   5.517
50552SOL     OW53552  11.401  12.742   6.386
50552SOL    HW153553  11.478  12.761   6.332
50552SOL    HW253554  11.328  12.781   6.338
50553SOL     OW53555  12.940  12.098   4.868
50553SOL    HW153556  12.924  12.142   4.952
50553SOL    HW253557  12.855  12.100   4.824
50554SOL     OW53558  10.814   9.385   8.482
50554SOL    HW153559  10.772   9.419   8.403
50554SOL    HW253560  10.908   9.389   8.462
50555SOL     OW53561  14.678   5.399  14.312
50555SOL    HW153562  14.584   5.382  14.323
50555SOL    HW253563  14.713   5.318  14.274
50556SOL     OW53564  12.763   8.704   2.980
50556SOL    HW153565  12.728   8.712   2.891
50556SOL    HW253566  12.841   8.760   2.980
50557SOL     OW53567   3.221   0.426  10.800
50557SOL    HW153568   3.270   0.507  10.815
50557SOL    HW253569   3.158   0.423  10.872
50558SOL     OW53570   3.187   8.970   7.258
50558SOL    HW153571   3.268   8.933   7.294
50558SOL    HW253572   3.153   8.901   7.201
50559SOL     OW53573   5.376   8.849   7.746
50559SOL    HW153574   5.287   8.839   7.711
50559SOL    HW253575   5.366   8.835   7.840
50560SOL     OW53576   7.990   5.216   2.509
50560SOL    HW153577   8.050   5.167   2.453
50560SOL    HW253578   7.903   5.199   2.473
50561SOL     OW53579   5.109   1.261  14.809
50561SOL    HW153580   5.082   1.194   0.004
50561SOL    HW253581   5.195   1.231  14.779
50562SOL     OW53582  13.249  12.398   8.069
50562SOL    HW153583  13.245  12.303   8.059
50562SOL    HW253584  13.163  12.423   8.101
50563SOL     OW53585  11.019   6.711   8.609
50563SOL    HW153586  10.949   6.648   8.627
50563SOL    HW253587  10.975   6.783   8.563
50564SOL     OW53588  13.070   8.178   0.342
50564SOL    HW153589  13.131   8.215   0.407
50564SOL    HW253590  13.126   8.155   0.268
50565SOL     OW53591   0.083  10.361   3.857
50565SOL    HW153592   0.067  10.362   3.762
50565SOL    HW253593   0.062  10.272   3.884
50566SOL     OW53594  13.520   2.196  14.214
50566SOL    HW153595  13.503   2.175  14.123
50566SOL    HW253596  13.500   2.289  14.222
50567SOL     OW53597  11.096  12.589   4.856
50567SOL    HW153598  11.117  12.628   4.941
50567SOL    HW253599  11.058  12.662   4.805
50568SOL     OW53600   1.946   0.440  12.510
50568SOL    HW153601   1.913   0.359  12.551
50568SOL    HW253602   1.870   0.498  12.508
50569SOL     OW53603  12.720  14.330  10.094
50569SOL    HW153604  12.746  14.416  10.126
50569SOL    HW253605  12.699  14.343  10.002
50570SOL     OW53606   5.129   7.290  14.576
50570SOL    HW153607   5.074   7.249  14.644
50570SOL    HW253608   5.207   7.235  14.573
50571SOL     OW53609   1.476   6.444  10.913
50571SOL    HW153610   1.516   6.508  10.972
50571SOL    HW253611   1.388   6.430  10.950
50572SOL     OW53612   3.221  14.259  13.275
50572SOL    HW153613   3.201  14.276  13.367
50572SOL    HW253614   3.316  14.247  13.272
50573SOL     OW53615   7.390   3.958   1.201
50573SOL    HW153616   7.453   3.953   1.273
50573SOL    HW253617   7.442   3.981   1.124
50574SOL     OW53618   2.082  11.008   1.811
50574SOL    HW153619   2.172  10.999   1.780
50574SOL    HW253620   2.029  10.988   1.734
50575SOL     OW53621   6.901  13.112   0.829
50575SOL    HW153622   6.940  13.184   0.779
50575SOL    HW253623   6.951  13.035   0.803
50576SOL     OW53624   8.020  10.711  13.597
50576SOL    HW153625   8.041  10.695  13.505
50576SOL    HW253626   7.971  10.634  13.625
50577SOL     OW53627  11.991   2.621   4.077
50577SOL    HW153628  12.018   2.702   4.120
50577SOL    HW253629  12.064   2.598   4.020
50578SOL     OW53630   7.530  10.706  12.208
50578SOL    HW153631   7.449  10.753  12.188
50578SOL    HW253632   7.597  10.752  12.156
50579SOL     OW53633   3.133   6.284   1.149
50579SOL    HW153634   3.173   6.291   1.236
50579SOL    HW253635   3.080   6.204   1.154
50580SOL     OW53636   7.252   3.822   3.880
50580SOL    HW153637   7.183   3.877   3.844
50580SOL    HW253638   7.265   3.854   3.969
50581SOL     OW53639   5.688  14.263   9.854
50581SOL    HW153640   5.738  14.318   9.914
50581SOL    HW253641   5.755  14.211   9.809
50582SOL     OW53642   4.193   5.255   7.810
50582SOL    HW153643   4.192   5.264   7.715
50582SOL    HW253644   4.116   5.202   7.830
50583SOL     OW53645   3.678   7.938  11.327
50583SOL    HW153646   3.618   7.866  11.346
50583SOL    HW253647   3.649   8.009  11.385
50584SOL     OW53648   5.755   5.720   7.578
50584SOL    HW153649   5.813   5.756   7.511
50584SOL    HW253650   5.768   5.777   7.654
50585SOL     OW53651   0.342  12.261   0.770
50585SOL    HW153652   0.372  12.203   0.840
50585SOL    HW253653   0.407  12.249   0.701
50586SOL     OW53654   5.406   7.800  13.980
50586SOL    HW153655   5.335   7.755  14.026
50586SOL    HW253656   5.375   7.890  13.971
50587SOL     OW53657   2.968   5.688   1.353
50587SOL    HW153658   3.041   5.746   1.373
50587SOL    HW253659   2.922   5.731   1.281
50588SOL     OW53660   6.127   6.836   8.712
50588SOL    HW153661   6.220   6.817   8.716
50588SOL    HW253662   6.096   6.823   8.801
50589SOL     OW53663   3.968   9.623   9.523
50589SOL    HW153664   3.924   9.649   9.441
50589SOL    HW253665   3.923   9.542   9.549
50590SOL     OW53666   9.500  10.140   1.226
50590SOL    HW153667   9.458  10.057   1.248
50590SOL    HW253668   9.531  10.175   1.309
50591SOL     OW53669  11.384   0.983   3.745
50591SOL    HW153670  11.387   0.896   3.704
50591SOL    HW253671  11.437   0.974   3.824
50592SOL     OW53672   5.020   4.440  12.557
50592SOL    HW153673   4.945   4.499  12.570
50592SOL    HW253674   4.981   4.363  12.515
50593SOL     OW53675   0.322   7.920  12.094
50593SOL    HW153676   0.246   7.874  12.127
50593SOL    HW253677   0.349   7.871  12.016
50594SOL     OW53678   2.375   1.759   7.498
50594SOL    HW153679   2.288   1.727   7.475
50594SOL    HW253680   2.364   1.854   7.508
50595SOL     OW53681  10.534   8.338   2.819
50595SOL    HW153682  10.596   8.349   2.891
50595SOL    HW253683  10.486   8.258   2.841
50596SOL     OW53684   1.656  14.715   9.873
50596SOL    HW153685   1.708  14.682   9.799
50596SOL    HW253686   1.599  14.641   9.896
50597SOL     OW53687  10.318   2.786   6.800
50597SOL    HW153688  10.384   2.838   6.846
50597SOL    HW253689  10.275   2.849   6.742
50598SOL     OW53690  10.359   4.240   8.383
50598SOL    HW153691  10.430   4.281   8.433
50598SOL    HW253692  10.285   4.239   8.443
50599SOL     OW53693  11.340   3.419   4.354
50599SOL    HW153694  11.357   3.495   4.410
50599SOL    HW253695  11.368   3.344   4.406
50600SOL     OW53696   4.379   4.047   6.021
50600SOL    HW153697   4.388   3.972   5.962
50600SOL    HW253698   4.436   4.114   5.984
50601SOL     OW53699   6.702   0.389   1.233
50601SOL    HW153700   6.714   0.314   1.174
50601SOL    HW253701   6.757   0.369   1.309
50602SOL     OW53702  12.448  14.272   6.093
50602SOL    HW153703  12.525  14.245   6.043
50602SOL    HW253704  12.376  14.272   6.030
50603SOL     OW53705  10.468   9.118   3.693
50603SOL    HW153706  10.518   9.092   3.616
50603SOL    HW253707  10.519   9.189   3.732
50604SOL     OW53708   1.245  12.044   7.585
50604SOL    HW153709   1.314  12.105   7.607
50604SOL    HW253710   1.168  12.099   7.570
50605SOL     OW53711   2.462   1.022  13.177
50605SOL    HW153712   2.381   1.073  13.170
50605SOL    HW253713   2.479   0.992  13.088
50606SOL     OW53714   5.419   5.607  13.644
50606SOL    HW153715   5.512   5.604  13.666
50606SOL    HW253716   5.383   5.675  13.700
50607SOL     OW53717   0.270  12.768   7.295
50607SOL    HW153718   0.176  12.764   7.315
50607SOL    HW253719   0.285  12.693   7.237
50608SOL     OW53720   7.054   1.005  13.868
50608SOL    HW153721   7.103   0.980  13.790
50608SOL    HW253722   7.019   0.922  13.902
50609SOL     OW53723   6.985   6.734   1.850
50609SOL    HW153724   6.915   6.799   1.855
50609SOL    HW253725   6.943   6.651   1.873
50610SOL     OW53726  11.104   1.672   2.524
50610SOL    HW153727  11.066   1.604   2.469
50610SOL    HW253728  11.030   1.715   2.565
50611SOL     OW53729   0.797  13.846   0.521
50611SOL    HW153730   0.811  13.936   0.549
50611SOL    HW253731   0.705  13.842   0.495
50612SOL     OW53732   9.176   6.671  13.669
50612SOL    HW153733   9.154   6.745  13.612
50612SOL    HW253734   9.216   6.607  13.610
50613SOL     OW53735   8.282   8.129  13.859
50613SOL    HW153736   8.373   8.104  13.847
50613SOL    HW253737   8.285   8.224  13.872
50614SOL     OW53738   5.918  13.382   6.666
50614SOL    HW153739   5.823  13.374   6.666
50614SOL    HW253740   5.935  13.464   6.620
50615SOL     OW53741   8.950  12.812   2.169
50615SOL    HW153742   8.912  12.860   2.243
50615SOL    HW253743   8.932  12.868   2.093
50616SOL     OW53744   6.974  14.765   8.401
50616SOL    HW153745   6.888  14.780   8.441
50616SOL    HW253746   7.036  14.783   8.471
50617SOL     OW53747   5.923  13.076  13.274
50617SOL    HW153748   5.870  13.149  13.243
50617SOL    HW253749   5.963  13.109  13.355
50618SOL     OW53750   4.633  12.323   1.867
50618SOL    HW153751   4.676  12.350   1.786
50618SOL    HW253752   4.549  12.287   1.840
50619SOL     OW53753  13.867  14.121  12.166
50619SOL    HW153754  13.887  14.028  12.169
50619SOL    HW253755  13.850  14.146  12.257
50620SOL     OW53756  11.104   2.681   5.689
50620SOL    HW153757  11.149   2.731   5.757
50620SOL    HW253758  11.107   2.591   5.719
50621SOL     OW53759   0.716   5.910  10.005
50621SOL    HW153760   0.771   5.923   9.928
50621SOL    HW253761   0.646   5.975   9.996
50622SOL     OW53762   2.804   5.636  12.329
50622SOL    HW153763   2.806   5.626  12.234
50622SOL    HW253764   2.855   5.562  12.362
50623SOL     OW53765   8.913   8.181  11.908
50623SOL    HW153766   9.001   8.169  11.945
50623SOL    HW253767   8.888   8.269  11.935
50624SOL     OW53768  11.223  13.654   6.242
50624SOL    HW153769  11.210  13.735   6.292
50624SOL    HW253770  11.181  13.671   6.157
50625SOL     OW53771   2.933   6.526  11.615
50625SOL    HW153772   3.011   6.543  11.668
50625SOL    HW253773   2.921   6.605  11.563
50626SOL     OW53774  11.617  14.208   9.891
50626SOL    HW153775  11.650  14.250   9.970
50626SOL    HW253776  11.649  14.118   9.896
50627SOL     OW53777   5.783   0.230   9.842
50627SOL    HW153778   5.746   0.148   9.809
50627SOL    HW253779   5.746   0.298   9.785
50628SOL     OW53780  13.573  14.386   7.260
50628SOL    HW153781  13.566  14.391   7.355
50628SOL    HW253782  13.632  14.311   7.245
50629SOL     OW53783  10.696   0.575  13.801
50629SOL    HW153784  10.720   0.643  13.739
50629SOL    HW253785  10.771   0.568  13.860
50630SOL     OW53786  12.095   5.430   6.194
50630SOL    HW153787  12.012   5.398   6.159
50630SOL    HW253788  12.122   5.499   6.133
50631SOL     OW53789   2.669   6.629   5.274
50631SOL    HW153790   2.711   6.690   5.334
50631SOL    HW253791   2.580   6.664   5.262
50632SOL     OW53792   9.082   9.675   9.831
50632SOL    HW153793   9.115   9.761   9.808
50632SOL    HW253794   8.987   9.684   9.832
50633SOL     OW53795  13.261   5.637  13.197
50633SOL    HW153796  13.279   5.690  13.274
50633SOL    HW253797  13.324   5.669  13.132
50634SOL     OW53798   8.751   6.249   6.867
50634SOL    HW153799   8.713   6.202   6.941
50634SOL    HW253800   8.678   6.264   6.808
50635SOL     OW53801  13.186   9.104   3.603
50635SOL    HW153802  13.260   9.101   3.542
50635SOL    HW253803  13.126   9.037   3.571
50636SOL     OW53804   0.218   9.503  11.907
50636SOL    HW153805   0.241   9.427  11.959
50636SOL    HW253806   0.280   9.503  11.834
50637SOL     OW53807   7.573   9.964   7.824
50637SOL    HW153808   7.527   9.922   7.897
50637SOL    HW253809   7.652   9.911   7.811
50638SOL     OW53810   0.735   7.040  14.195
50638SOL    HW153811   0.814   7.066  14.149
50638SOL    HW253812   0.676   7.009  14.127
50639SOL     OW53813   3.167   2.162   2.087
50639SOL    HW153814   3.193   2.175   2.179
50639SOL    HW253815   3.212   2.232   2.040
50640SOL     OW53816   6.712  12.157  12.114
50640SOL    HW153817   6.644  12.090  12.113
50640SOL    HW253818   6.794  12.109  12.112
50641SOL     OW53819  12.647  11.254   9.123
50641SOL    HW153820  12.626  11.161   9.117
50641SOL    HW253821  12.601  11.294   9.050
50642SOL     OW53822   9.126   8.285   3.928
50642SOL    HW153823   9.183   8.220   3.967
50642SOL    HW253824   9.073   8.236   3.864
50643SOL     OW53825   7.569  10.967   7.591
50643SOL    HW153826   7.613  10.895   7.635
50643SOL    HW253827   7.531  10.927   7.512
50644SOL     OW53828   7.720   2.888  13.850
50644SOL    HW153829   7.800   2.939  13.839
50644SOL    HW253830   7.721   2.825  13.778
50645SOL     OW53831   9.325   0.579   3.507
50645SOL    HW153832   9.302   0.664   3.469
50645SOL    HW253833   9.325   0.519   3.433
50646SOL     OW53834   4.119   8.002  13.221
50646SOL    HW153835   4.198   8.053  13.241
50646SOL    HW253836   4.047   8.056  13.253
50647SOL     OW53837   9.333   3.720   3.798
50647SOL    HW153838   9.258   3.675   3.759
50647SOL    HW253839   9.396   3.650   3.815
50648SOL     OW53840   9.748   6.725   4.529
50648SOL    HW153841   9.787   6.708   4.444
50648SOL    HW253842   9.743   6.821   4.534
50649SOL     OW53843   5.198  11.490  13.068
50649SOL    HW153844   5.236  11.462  13.152
50649SOL    HW253845   5.106  11.507  13.088
50650SOL     OW53846   7.795   5.098   0.704
50650SOL    HW153847   7.707   5.118   0.672
50650SOL    HW253848   7.854   5.146   0.645
50651SOL     OW53849   5.493  12.610   3.450
50651SOL    HW153850   5.527  12.562   3.375
50651SOL    HW253851   5.401  12.628   3.427
50652SOL     OW53852  12.967   6.949   6.283
50652SOL    HW153853  12.920   7.018   6.331
50652SOL    HW253854  13.058   6.979   6.281
50653SOL     OW53855   8.044  12.005   8.254
50653SOL    HW153856   8.032  12.054   8.335
50653SOL    HW253857   8.055  12.072   8.187
50654SOL     OW53858  11.232   9.444   5.160
50654SOL    HW153859  11.278   9.409   5.236
50654SOL    HW253860  11.197   9.528   5.189
50655SOL     OW53861   1.754  14.193   2.714
50655SOL    HW153862   1.822  14.229   2.772
50655SOL    HW253863   1.790  14.204   2.626
50656SOL     OW53864   9.259   0.309   9.006
50656SOL    HW153865   9.262   0.404   9.018
50656SOL    HW253866   9.191   0.296   8.940
50657SOL     OW53867   2.596   2.561  13.169
50657SOL    HW153868   2.656   2.529  13.102
50657SOL    HW253869   2.597   2.656  13.159
50658SOL     OW53870  13.580   1.472   2.180
50658SOL    HW153871  13.574   1.414   2.256
50658SOL    HW253872  13.671   1.464   2.151
50659SOL     OW53873   2.784  14.172  12.468
50659SOL    HW153874   2.826  14.119  12.536
50659SOL    HW253875   2.814  14.133  12.386
50660SOL     OW53876   6.559   9.605   6.878
50660SOL    HW153877   6.484   9.614   6.937
50660SOL    HW253878   6.550   9.517   6.840
50661SOL     OW53879   0.299   3.991   9.697
50661SOL    HW153880   0.284   4.009   9.605
50661SOL    HW253881   0.221   4.024   9.742
50662SOL     OW53882  11.130  10.860   5.519
50662SOL    HW153883  11.058  10.905   5.563
50662SOL    HW253884  11.137  10.776   5.566
50663SOL     OW53885   8.995   3.663   3.986
50663SOL    HW153886   8.919   3.719   3.970
50663SOL    HW253887   9.027   3.691   4.072
50664SOL     OW53888  11.209   8.266  10.009
50664SOL    HW153889  11.247   8.350  10.035
50664SOL    HW253890  11.131   8.290   9.959
50665SOL     OW53891  14.277  13.534   9.577
50665SOL    HW153892  14.188  13.510   9.602
50665SOL    HW253893  14.280  13.629   9.588
50666SOL     OW53894   5.183   5.006   9.016
50666SOL    HW153895   5.108   5.039   9.066
50666SOL    HW253896   5.149   4.928   8.972
50667SOL     OW53897  11.202  13.844  11.411
50667SOL    HW153898  11.295  13.846  11.433
50667SOL    HW253899  11.157  13.859  11.494
50668SOL     OW53900  13.062  12.431   3.857
50668SOL    HW153901  13.106  12.372   3.919
50668SOL    HW253902  13.034  12.505   3.910
50669SOL     OW53903  12.502   9.392   5.503
50669SOL    HW153904  12.435   9.325   5.488
50669SOL    HW253905  12.479   9.432   5.587
50670SOL     OW53906   9.521  11.903   7.167
50670SOL    HW153907   9.559  11.860   7.243
50670SOL    HW253908   9.589  11.900   7.100
50671SOL     OW53909   5.186  13.584   7.910
50671SOL    HW153910   5.231  13.594   7.826
50671SOL    HW253911   5.127  13.509   7.897
50672SOL     OW53912  13.788   8.318  10.229
50672SOL    HW153913  13.844   8.373  10.283
50672SOL    HW253914  13.712   8.300  10.284
50673SOL     OW53915  10.909   7.573   5.899
50673SOL    HW153916  10.991   7.621   5.887
50673SOL    HW253917  10.916   7.534   5.986
50674SOL     OW53918   4.159   5.482   5.542
50674SOL    HW153919   4.243   5.445   5.515
50674SOL    HW253920   4.094   5.422   5.505
50675SOL     OW53921   1.249   0.943  13.152
50675SOL    HW153922   1.197   0.953  13.232
50675SOL    HW253923   1.211   0.868  13.107
50676SOL     OW53924  14.367   5.576   1.869
50676SOL    HW153925  14.408   5.595   1.785
50676SOL    HW253926  14.360   5.480   1.871
50677SOL     OW53927   6.497   1.419  10.589
50677SOL    HW153928   6.534   1.427  10.677
50677SOL    HW253929   6.473   1.509  10.565
50678SOL     OW53930   6.267   2.430   7.326
50678SOL    HW153931   6.361   2.411   7.324
50678SOL    HW253932   6.227   2.352   7.365
50679SOL     OW53933   5.462  12.778  11.101
50679SOL    HW153934   5.489  12.849  11.160
50679SOL    HW253935   5.521  12.786  11.026
50680SOL     OW53936   8.357  10.510   4.562
50680SOL    HW153937   8.331  10.433   4.511
50680SOL    HW253938   8.274  10.548   4.591
50681SOL     OW53939  11.525   5.550   3.715
50681SOL    HW153940  11.569   5.466   3.726
50681SOL    HW253941  11.432   5.528   3.717
50682SOL     OW53942   7.117  11.272  10.081
50682SOL    HW153943   7.134  11.210  10.011
50682SOL    HW253944   7.047  11.328  10.047
50683SOL     OW53945   2.088   5.036   1.833
50683SOL    HW153946   2.078   5.131   1.831
50683SOL    HW253947   2.120   5.017   1.922
50684SOL     OW53948   5.904  10.889   3.236
50684SOL    HW153949   5.861  10.909   3.153
50684SOL    HW253950   5.885  10.965   3.291
50685SOL     OW53951   4.107   2.439   3.866
50685SOL    HW153952   4.170   2.369   3.848
50685SOL    HW253953   4.073   2.464   3.781
50686SOL     OW53954  11.969   5.724   0.382
50686SOL    HW153955  12.057   5.760   0.374
50686SOL    HW253956  11.966   5.685   0.469
50687SOL     OW53957  11.550  13.229   4.800
50687SOL    HW153958  11.626  13.284   4.823
50687SOL    HW253959  11.496  13.229   4.879
50688SOL     OW53960   0.297   7.421   2.475
50688SOL    HW153961   0.208   7.397   2.447
50688SOL    HW253962   0.331   7.341   2.516
50689SOL     OW53963   1.360  11.797   0.321
50689SOL    HW153964   1.427  11.750   0.271
50689SOL    HW253965   1.286  11.805   0.261
50690SOL     OW53966   6.959   0.029   1.615
50690SOL    HW153967   6.890   0.022   1.549
50690SOL    HW253968   6.960  14.812   1.658
50691SOL     OW53969   3.975   7.412   4.144
50691SOL    HW153970   4.008   7.493   4.105
50691SOL    HW253971   3.946   7.359   4.070
50692SOL     OW53972   7.785   8.620   9.870
50692SOL    HW153973   7.776   8.530   9.901
50692SOL    HW253974   7.829   8.665   9.941
50693SOL     OW53975   5.936   8.863   9.289
50693SOL    HW153976   5.849   8.822   9.290
50693SOL    HW253977   5.985   8.814   9.224
50694SOL     OW53978   3.873   4.912   4.829
50694SOL    HW153979   3.929   4.887   4.755
50694SOL    HW253980   3.852   5.004   4.814
50695SOL     OW53981   1.468   4.847  11.885
50695SOL    HW153982   1.374   4.856  11.868
50695SOL    HW253983   1.474   4.775  11.948
50696SOL     OW53984   7.950   4.591   5.536
50696SOL    HW153985   8.030   4.615   5.584
50696SOL    HW253986   7.943   4.496   5.546
50697SOL     OW53987  14.140   7.262  10.079
50697SOL    HW153988  14.143   7.222  10.166
50697SOL    HW253989  14.052   7.243  10.046
50698SOL     OW53990  13.406  12.055  14.238
50698SOL    HW153991  13.326  12.104  14.256
50698SOL    HW253992  13.378  11.964  14.234
50699SOL     OW53993   6.639  10.842   1.712
50699SOL    HW153994   6.623  10.922   1.762
50699SOL    HW253995   6.616  10.771   1.772
50700SOL     OW53996   0.467  13.083  13.662
50700SOL    HW153997   0.430  13.141  13.596
50700SOL    HW253998   0.391  13.056  13.715
50701SOL     OW53999   6.480   8.394   2.387
50701SOL    HW154000   6.563   8.352   2.365
50701SOL    HW254001   6.504   8.484   2.412
50702SOL     OW54002  12.736  14.638  13.413
50702SOL    HW154003  12.737  14.668  13.504
50702SOL    HW254004  12.812  14.580  13.406
50703SOL     OW54005   1.374   1.513  13.845
50703SOL    HW154006   1.444   1.453  13.872
50703SOL    HW254007   1.295   1.459  13.842
50704SOL     OW54008   9.037  11.030  12.928
50704SOL    HW154009   8.941  11.031  12.934
50704SOL    HW254010   9.055  10.980  12.849
50705SOL     OW54011   5.540   5.040  14.635
50705SOL    HW154012   5.536   4.993  14.718
50705SOL    HW254013   5.591   4.982  14.578
50706SOL     OW54014  14.670  10.434   5.161
50706SOL    HW154015  14.580  10.436   5.128
50706SOL    HW254016  14.664  10.470   5.249
50707SOL     OW54017   4.431   2.867  12.641
50707SOL    HW154018   4.351   2.868  12.588
50707SOL    HW254019   4.412   2.804  12.711
50708SOL     OW54020  13.328  13.959   5.521
50708SOL    HW154021  13.383  13.889   5.556
50708SOL    HW254022  13.306  14.013   5.596
50709SOL     OW54023  13.013  11.977  10.472
50709SOL    HW154024  12.955  12.038  10.425
50709SOL    HW254025  12.987  11.985  10.563
50710SOL     OW54026  12.859   4.108   0.693
50710SOL    HW154027  12.865   4.026   0.742
50710SOL    HW254028  12.950   4.137   0.683
50711SOL     OW54029  11.003  11.214  11.249
50711SOL    HW154030  11.091  11.222  11.287
50711SOL    HW254031  10.947  11.264  11.309
50712SOL     OW54032   1.345   2.034   3.159
50712SOL    HW154033   1.295   2.000   3.085
50712SOL    HW254034   1.316   1.983   3.234
50713SOL     OW54035   8.241   5.279   8.996
50713SOL    HW154036   8.300   5.350   9.021
50713SOL    HW254037   8.244   5.277   8.900
50714SOL     OW54038   3.069   9.465   6.380
50714SOL    HW154039   3.055   9.468   6.475
50714SOL    HW254040   3.158   9.430   6.370
50715SOL     OW54041   3.041  10.225   6.262
50715SOL    HW154042   2.949  10.203   6.281
50715SOL    HW254043   3.087  10.212   6.345
50716SOL     OW54044  10.112   2.246   9.268
50716SOL    HW154045  10.101   2.151   9.279
50716SOL    HW254046  10.024   2.281   9.280
50717SOL     OW54047   2.424  11.904   8.958
50717SOL    HW154048   2.402  11.858   8.877
50717SOL    HW254049   2.391  11.993   8.945
50718SOL     OW54050  10.433   3.116   2.456
50718SOL    HW154051  10.410   3.159   2.539
50718SOL    HW254052  10.447   3.024   2.480
50719SOL     OW54053   9.444   0.899  11.965
50719SOL    HW154054   9.474   0.818  12.005
50719SOL    HW254055   9.473   0.969  12.024
50720SOL     OW54056   2.367  10.350   6.546
50720SOL    HW154057   2.422  10.422   6.579
50720SOL    HW254058   2.418  10.271   6.566
50721SOL     OW54059   4.660   1.339  12.601
50721SOL    HW154060   4.691   1.376  12.518
50721SOL    HW254061   4.617   1.257  12.576
50722SOL     OW54062   8.157  10.355   1.623
50722SOL    HW154063   8.243  10.332   1.658
50722SOL    HW254064   8.173  10.426   1.562
50723SOL     OW54065  10.873   3.752   5.514
50723SOL    HW154066  10.778   3.757   5.502
50723SOL    HW254067  10.897   3.665   5.482
50724SOL     OW54068  13.451   9.061   5.905
50724SOL    HW154069  13.539   9.021   5.903
50724SOL    HW254070  13.459   9.138   5.850
50725SOL     OW54071  14.716   5.175   2.762
50725SOL    HW154072  14.811   5.191   2.757
50725SOL    HW254073  14.687   5.231   2.835
50726SOL     OW54074  14.114   9.083   3.095
50726SOL    HW154075  14.112   9.117   3.006
50726SOL    HW254076  14.122   8.988   3.085
50727SOL     OW54077  10.764  11.305   8.926
50727SOL    HW154078  10.814  11.384   8.943
50727SOL    HW254079  10.707  11.328   8.852
50728SOL     OW54080  11.076  13.721   3.267
50728SOL    HW154081  11.153  13.675   3.232
50728SOL    HW254082  11.043  13.663   3.335
50729SOL     OW54083   1.765  12.120   3.327
50729SOL    HW154084   1.715  12.061   3.383
50729SOL    HW254085   1.848  12.134   3.374
50730SOL     OW54086   0.176   1.456   4.153
50730SOL    HW154087   0.259   1.503   4.163
50730SOL    HW254088   0.175   1.392   4.224
50731SOL     OW54089   9.372  12.547   6.082
50731SOL    HW154090   9.419  12.468   6.109
50731SOL    HW254091   9.417  12.576   6.003
50732SOL     OW54092   6.535  10.995   2.265
50732SOL    HW154093   6.549  11.087   2.241
50732SOL    HW254094   6.608  10.948   2.224
50733SOL     OW54095  11.498   9.488  11.292
50733SOL    HW154096  11.527   9.558  11.350
50733SOL    HW254097  11.577   9.437  11.275
50734SOL     OW54098  14.602   8.619  14.539
50734SOL    HW154099  14.507   8.619  14.530
50734SOL    HW254100  14.627   8.527  14.536
50735SOL     OW54101   8.096  12.961   3.169
50735SOL    HW154102   8.008  12.945   3.202
50735SOL    HW254103   8.085  12.972   3.074
50736SOL     OW54104   2.568  13.879   4.604
50736SOL    HW154105   2.599  13.965   4.576
50736SOL    HW254106   2.568  13.884   4.700
50737SOL     OW54107   0.457  11.108   8.167
50737SOL    HW154108   0.364  11.084   8.163
50737SOL    HW254109   0.503  11.025   8.174
50738SOL     OW54110   0.243   4.331  10.580
50738SOL    HW154111   0.275   4.422  10.574
50738SOL    HW254112   0.322   4.280  10.599
50739SOL     OW54113  11.064   8.790   4.171
50739SOL    HW154114  11.089   8.752   4.255
50739SOL    HW254115  11.010   8.723   4.129
50740SOL     OW54116  12.355   2.732   2.243
50740SOL    HW154117  12.380   2.780   2.165
50740SOL    HW254118  12.414   2.657   2.246
50741SOL     OW54119  13.287   0.169  10.608
50741SOL    HW154120  13.267   0.082  10.574
50741SOL    HW254121  13.373   0.160  10.648
50742SOL     OW54122  12.206   6.928   2.066
50742SOL    HW154123  12.185   6.997   2.129
50742SOL    HW254124  12.259   6.972   1.999
50743SOL     OW54125   6.853   5.247  12.026
50743SOL    HW154126   6.929   5.306  12.025
50743SOL    HW254127   6.800   5.275  11.951
50744SOL     OW54128   5.651   6.081  13.671
50744SOL    HW154129   5.683   6.009  13.616
50744SOL    HW254130   5.580   6.120  13.621
50745SOL     OW54131  11.865   2.771  11.133
50745SOL    HW154132  11.878   2.766  11.038
50745SOL    HW254133  11.797   2.838  11.144
50746SOL     OW54134   3.980   2.741   9.094
50746SOL    HW154135   3.893   2.739   9.054
50746SOL    HW254136   4.040   2.761   9.022
50747SOL     OW54137   4.557   6.782   5.190
50747SOL    HW154138   4.474   6.802   5.146
50747SOL    HW254139   4.607   6.864   5.185
50748SOL     OW54140   9.873   5.497   7.857
50748SOL    HW154141   9.916   5.555   7.794
50748SOL    HW254142   9.808   5.450   7.805
50749SOL     OW54143   1.650   6.424   9.488
50749SOL    HW154144   1.638   6.388   9.576
50749SOL    HW254145   1.744   6.442   9.482
50750SOL     OW54146  13.336  11.036   6.943
50750SOL    HW154147  13.254  11.084   6.928
50750SOL    HW254148  13.404  11.104   6.940
50751SOL     OW54149   0.478   2.491   7.700
50751SOL    HW154150   0.403   2.549   7.687
50751SOL    HW254151   0.543   2.520   7.637
50752SOL     OW54152   1.884   4.714   6.106
50752SOL    HW154153   1.841   4.682   6.027
50752SOL    HW254154   1.966   4.664   6.110
50753SOL     OW54155  14.752   7.576  11.601
50753SOL    HW154156  14.814   7.505  11.614
50753SOL    HW254157  14.687   7.565  11.670
50754SOL     OW54158   5.193  12.941   0.808
50754SOL    HW154159   5.211  12.982   0.724
50754SOL    HW254160   5.217  13.007   0.873
50755SOL     OW54161   3.663   7.055   0.619
50755SOL    HW154162   3.610   6.979   0.643
50755SOL    HW254163   3.649   7.117   0.690
50756SOL     OW54164  11.907  10.386   2.346
50756SOL    HW154165  11.852  10.437   2.287
50756SOL    HW254166  11.977  10.446   2.373
50757SOL     OW54167   1.169   7.911   1.463
50757SOL    HW154168   1.207   7.836   1.416
50757SOL    HW254169   1.194   7.987   1.411
50758SOL     OW54170  11.608  11.524   7.681
50758SOL    HW154171  11.579  11.556   7.766
50758SOL    HW254172  11.553  11.448   7.664
50759SOL     OW54173  11.312  11.113   7.897
50759SOL    HW154174  11.303  11.185   7.959
50759SOL    HW254175  11.359  11.045   7.946
50760SOL     OW54176   0.661  10.575   6.144
50760SOL    HW154177   0.748  10.568   6.106
50760SOL    HW254178   0.676  10.571   6.238
50761SOL     OW54179  12.299   6.654   9.085
50761SOL    HW154180  12.389   6.637   9.112
50761SOL    HW254181  12.293   6.749   9.083
50762SOL     OW54182   4.779   3.436   9.653
50762SOL    HW154183   4.773   3.371   9.723
50762SOL    HW254184   4.868   3.470   9.659
50763SOL     OW54185   6.472   5.266   4.397
50763SOL    HW154186   6.499   5.256   4.488
50763SOL    HW254187   6.388   5.311   4.402
50764SOL     OW54188  13.154   1.992   1.690
50764SOL    HW154189  13.088   2.039   1.741
50764SOL    HW254190  13.116   1.985   1.602
50765SOL     OW54191   6.374   3.581  13.744
50765SOL    HW154192   6.379   3.668  13.706
50765SOL    HW254193   6.310   3.535  13.690
50766SOL     OW54194   2.071  10.645   3.515
50766SOL    HW154195   2.000  10.647   3.450
50766SOL    HW254196   2.075  10.734   3.549
50767SOL     OW54197  14.215   2.925   9.136
50767SOL    HW154198  14.163   2.873   9.075
50767SOL    HW254199  14.262   2.987   9.081
50768SOL     OW54200   0.334  13.024   3.167
50768SOL    HW154201   0.354  12.999   3.077
50768SOL    HW254202   0.406  12.987   3.218
50769SOL     OW54203   9.717  11.809   7.652
50769SOL    HW154204   9.777  11.735   7.654
50769SOL    HW254205   9.768  11.882   7.687
50770SOL     OW54206   2.510   6.457  14.805
50770SOL    HW154207   2.458   6.477  14.727
50770SOL    HW254208   2.446   6.426   0.001
50771SOL     OW54209  10.176   8.292  10.106
50771SOL    HW154210  10.152   8.249  10.188
50771SOL    HW254211  10.235   8.363  10.132
50772SOL     OW54212   7.220   3.284   0.724
50772SOL    HW154213   7.215   3.350   0.654
50772SOL    HW254214   7.165   3.320   0.794
50773SOL     OW54215   4.507  14.561   3.126
50773SOL    HW154216   4.467  14.479   3.156
50773SOL    HW254217   4.445  14.629   3.152
50774SOL     OW54218   4.161   7.567   5.637
50774SOL    HW154219   4.134   7.628   5.705
50774SOL    HW254220   4.251   7.544   5.660
50775SOL     OW54221   9.877  14.412   2.138
50775SOL    HW154222   9.808  14.472   2.167
50775SOL    HW254223   9.880  14.424   2.043
50776SOL     OW54224   4.717   0.996   3.150
50776SOL    HW154225   4.793   0.982   3.206
50776SOL    HW254226   4.645   0.951   3.194
50777SOL     OW54227   5.705   0.674   2.081
50777SOL    HW154228   5.741   0.763   2.087
50777SOL    HW254229   5.621   0.684   2.037
50778SOL     OW54230   4.360   3.400   0.902
50778SOL    HW154231   4.408   3.383   0.982
50778SOL    HW254232   4.408   3.471   0.859
50779SOL     OW54233  11.782   7.711   6.572
50779SOL    HW154234  11.756   7.759   6.493
50779SOL    HW254235  11.699   7.681   6.609
50780SOL     OW54236   8.939   6.645   8.685
50780SOL    HW154237   8.995   6.618   8.612
50780SOL    HW254238   8.924   6.565   8.735
50781SOL     OW54239  12.404  10.837   7.834
50781SOL    HW154240  12.348  10.872   7.765
50781SOL    HW254241  12.452  10.913   7.866
50782SOL     OW54242   5.439  13.383   8.920
50782SOL    HW154243   5.412  13.375   8.828
50782SOL    HW254244   5.462  13.294   8.946
50783SOL     OW54245  10.367  13.436   4.033
50783SOL    HW154246  10.350  13.407   3.943
50783SOL    HW254247  10.435  13.502   4.024
50784SOL     OW54248   9.157   7.708  11.733
50784SOL    HW154249   9.142   7.707  11.638
50784SOL    HW254250   9.096   7.775  11.766
50785SOL     OW54251   5.296   4.394   8.847
50785SOL    HW154252   5.251   4.313   8.825
50785SOL    HW254253   5.267   4.457   8.781
50786SOL     OW54254   8.546   9.633   0.901
50786SOL    HW154255   8.557   9.576   0.977
50786SOL    HW254256   8.543   9.721   0.938
50787SOL     OW54257   6.002   2.465  10.507
50787SOL    HW154258   5.914   2.493  10.481
50787SOL    HW254259   5.996   2.450  10.601
50788SOL     OW54260  11.725   9.338  11.208
50788SOL    HW154261  11.782   9.384  11.270
50788SOL    HW254262  11.784   9.283  11.157
50789SOL     OW54263  11.732   1.141   7.190
50789SOL    HW154264  11.717   1.105   7.103
50789SOL    HW254265  11.648   1.178   7.216
50790SOL     OW54266  13.991   4.516  14.247
50790SOL    HW154267  13.963   4.592  14.299
50790SOL    HW254268  13.992   4.547  14.157
50791SOL     OW54269   4.139   8.093   7.297
50791SOL    HW154270   4.153   8.074   7.204
50791SOL    HW254271   4.215   8.144   7.322
50792SOL     OW54272  11.174  13.478   4.371
50792SOL    HW154273  11.259  13.434   4.371
50792SOL    HW254274  11.189  13.560   4.417
50793SOL     OW54275   1.999  14.288   5.630
50793SOL    HW154276   1.999  14.197   5.602
50793SOL    HW254277   1.907  14.316   5.621
50794SOL     OW54278  12.236   3.662   7.608
50794SOL    HW154279  12.172   3.733   7.615
50794SOL    HW254280  12.296   3.691   7.540
50795SOL     OW54281  10.208  11.728   0.708
50795SOL    HW154282  10.233  11.793   0.775
50795SOL    HW254283  10.173  11.654   0.757
50796SOL     OW54284  13.333   0.965   1.423
50796SOL    HW154285  13.317   0.878   1.385
50796SOL    HW254286  13.328   1.024   1.348
50797SOL     OW54287  13.700   9.122   4.562
50797SOL    HW154288  13.627   9.084   4.514
50797SOL    HW254289  13.662   9.158   4.641
50798SOL     OW54290  12.588   4.077   7.515
50798SOL    HW154291  12.591   4.082   7.420
50798SOL    HW254292  12.595   4.169   7.543
50799SOL     OW54293   7.161  12.277   0.329
50799SOL    HW154294   7.249  12.238   0.329
50799SOL    HW254295   7.112  12.225   0.265
50800SOL     OW54296  10.438   7.809   8.291
50800SOL    HW154297  10.359   7.852   8.325
50800SOL    HW254298  10.493   7.881   8.262
50801SOL     OW54299   3.353   5.648  13.161
50801SOL    HW154300   3.395   5.589  13.224
50801SOL    HW254301   3.348   5.732  13.206
50802SOL     OW54302  11.597   7.880  13.378
50802SOL    HW154303  11.639   7.877  13.292
50802SOL    HW254304  11.651   7.940  13.429
50803SOL     OW54305  14.107   8.463   0.502
50803SOL    HW154306  14.100   8.428   0.590
50803SOL    HW254307  14.029   8.518   0.491
50804SOL     OW54308   8.896   1.539   5.340
50804SOL    HW154309   8.962   1.486   5.384
50804SOL    HW254310   8.896   1.507   5.250
50805SOL     OW54311  11.272  12.275  11.655
50805SOL    HW154312  11.234  12.221  11.725
50805SOL    HW254313  11.203  12.281  11.589
50806SOL     OW54314   1.239   7.900   8.323
50806SOL    HW154315   1.295   7.823   8.330
50806SOL    HW254316   1.294   7.973   8.351
50807SOL     OW54317  13.876  13.760  14.675
50807SOL    HW154318  13.847  13.764  14.766
50807SOL    HW254319  13.930  13.839  14.664
50808SOL     OW54320   1.976   2.743   5.903
50808SOL    HW154321   1.895   2.695   5.922
50808SOL    HW254322   1.953   2.835   5.918
50809SOL     OW54323  11.924  11.947  12.348
50809SOL    HW154324  11.954  11.857  12.337
50809SOL    HW254325  11.984  11.985  12.412
50810SOL     OW54326  12.213   7.406   3.203
50810SOL    HW154327  12.280   7.465   3.170
50810SOL    HW254328  12.243   7.319   3.178
50811SOL     OW54329   7.052  10.952  11.882
50811SOL    HW154330   6.962  10.926  11.863
50811SOL    HW254331   7.073  10.909  11.966
50812SOL     OW54332   9.410   8.792   8.339
50812SOL    HW154333   9.423   8.843   8.258
50812SOL    HW254334   9.315   8.791   8.352
50813SOL     OW54335  12.934   4.226   4.860
50813SOL    HW154336  12.898   4.178   4.785
50813SOL    HW254337  12.942   4.161   4.929
50814SOL     OW54338   7.602  11.859   8.277
50814SOL    HW154339   7.614  11.765   8.293
50814SOL    HW254340   7.683  11.887   8.235
50815SOL     OW54341  11.392   2.595   6.694
50815SOL    HW154342  11.354   2.522   6.645
50815SOL    HW254343  11.486   2.589   6.676
50816SOL     OW54344   3.862   9.713   0.447
50816SOL    HW154345   3.946   9.759   0.451
50816SOL    HW254346   3.802   9.772   0.493
50817SOL     OW54347  12.406   9.881   0.693
50817SOL    HW154348  12.333   9.926   0.650
50817SOL    HW254349  12.364   9.811   0.743
50818SOL     OW54350   0.507  14.829   0.797
50818SOL    HW154351   0.448   0.020   0.751
50818SOL    HW254352   0.511  14.863   0.887
50819SOL     OW54353   4.512   9.837   4.906
50819SOL    HW154354   4.599   9.797   4.915
50819SOL    HW254355   4.456   9.766   4.876
50820SOL     OW54356  14.704   3.573  14.125
50820SOL    HW154357  14.788   3.550  14.166
50820SOL    HW254358  14.638   3.534  14.182
50821SOL     OW54359   0.568   0.877  13.273
50821SOL    HW154360   0.524   0.938  13.333
50821SOL    HW254361   0.527   0.893  13.188
50822SOL     OW54362   4.547   0.529   6.272
50822SOL    HW154363   4.636   0.536   6.236
50822SOL    HW254364   4.547   0.444   6.316
50823SOL     OW54365   1.144   1.837  13.517
50823SOL    HW154366   1.103   1.869  13.597
50823SOL    HW254367   1.103   1.752  13.501
50824SOL     OW54368   5.712  11.906  12.061
50824SOL    HW154369   5.760  11.984  12.032
50824SOL    HW254370   5.621  11.935  12.066
50825SOL     OW54371   7.243  10.760  13.532
50825SOL    HW154372   7.237  10.699  13.605
50825SOL    HW254373   7.153  10.766  13.497
50826SOL     OW54374   9.605  10.351   9.431
50826SOL    HW154375   9.524  10.300   9.424
50826SOL    HW254376   9.641  10.327   9.516
50827SOL     OW54377   1.537   3.616  13.070
50827SOL    HW154378   1.463   3.673  13.050
50827SOL    HW254379   1.497   3.532  13.092
50828SOL     OW54380   9.065   7.218   7.473
50828SOL    HW154381   9.120   7.284   7.514
50828SOL    HW254382   9.127   7.155   7.436
50829SOL     OW54383  11.357   3.983   4.053
50829SOL    HW154384  11.387   3.914   4.111
50829SOL    HW254385  11.415   4.057   4.072
50830SOL     OW54386   9.981   2.565  13.271
50830SOL    HW154387   9.929   2.498  13.227
50830SOL    HW254388   9.929   2.588  13.349
50831SOL     OW54389   9.367  12.969   7.173
50831SOL    HW154390   9.423  13.046   7.182
50831SOL    HW254391   9.406  12.903   7.229
50832SOL     OW54392   4.627  11.250   4.063
50832SOL    HW154393   4.691  11.284   4.125
50832SOL    HW254394   4.671  11.178   4.019
50833SOL     OW54395  11.718  14.800   2.973
50833SOL    HW154396  11.775  14.729   3.000
50833SOL    HW254397  11.772   0.011   2.982
50834SOL     OW54398  12.953   9.561   7.298
50834SOL    HW154399  12.997   9.614   7.365
50834SOL    HW254400  12.926   9.625   7.231
50835SOL     OW54401   4.814  14.266   8.578
50835SOL    HW154402   4.731  14.234   8.613
50835SOL    HW254403   4.837  14.204   8.509
50836SOL     OW54404  14.268   8.218   3.262
50836SOL    HW154405  14.215   8.189   3.187
50836SOL    HW254406  14.287   8.137   3.310
50837SOL     OW54407   7.941   9.555   9.287
50837SOL    HW154408   7.965   9.533   9.197
50837SOL    HW254409   7.990   9.493   9.341
50838SOL     OW54410   6.097  10.343   0.423
50838SOL    HW154411   6.051  10.310   0.500
50838SOL    HW254412   6.052  10.425   0.402
50839SOL     OW54413   6.849   1.559  12.105
50839SOL    HW154414   6.913   1.578  12.173
50839SOL    HW254415   6.845   1.638  12.051
50840SOL     OW54416   0.805   5.936  13.852
50840SOL    HW154417   0.761   6.005  13.901
50840SOL    HW254418   0.748   5.919  13.777
50841SOL     OW54419  11.868  14.660   0.798
50841SOL    HW154420  11.868  14.680   0.891
50841SOL    HW254421  11.817  14.579   0.791
50842SOL     OW54422   2.542   7.717   1.853
50842SOL    HW154423   2.573   7.681   1.936
50842SOL    HW254424   2.448   7.729   1.865
50843SOL     OW54425   4.765  13.943  13.246
50843SOL    HW154426   4.788  14.027  13.207
50843SOL    HW254427   4.689  13.914  13.197
50844SOL     OW54428   6.210   5.968   3.852
50844SOL    HW154429   6.139   6.030   3.868
50844SOL    HW254430   6.173   5.882   3.874
50845SOL     OW54431  14.789  13.230   6.466
50845SOL    HW154432  14.725  13.290   6.505
50845SOL    HW254433  14.864  13.286   6.446
50846SOL     OW54434   4.654   9.024  12.415
50846SOL    HW154435   4.574   9.057  12.456
50846SOL    HW254436   4.720   9.089  12.436
50847SOL     OW54437   7.749  14.455   3.313
50847SOL    HW154438   7.704  14.539   3.323
50847SOL    HW254439   7.805  14.448   3.390
50848SOL     OW54440   6.349   1.836  11.726
50848SOL    HW154441   6.389   1.898  11.666
50848SOL    HW254442   6.270   1.879  11.757
50849SOL     OW54443   2.816  12.441   7.312
50849SOL    HW154444   2.780  12.356   7.336
50849SOL    HW254445   2.911  12.429   7.315
50850SOL     OW54446   8.083   3.049   0.299
50850SOL    HW154447   8.179   3.056   0.298
50850SOL    HW254448   8.053   3.138   0.277
50851SOL     OW54449  11.587   5.469  10.631
50851SOL    HW154450  11.555   5.490  10.543
50851SOL    HW254451  11.611   5.554  10.669
50852SOL     OW54452  10.580  14.594   9.297
50852SOL    HW154453  10.563  14.517   9.350
50852SOL    HW254454  10.618  14.559   9.216
50853SOL     OW54455   1.344  12.994   2.373
50853SOL    HW154456   1.406  12.928   2.404
50853SOL    HW254457   1.375  13.076   2.413
50854SOL     OW54458   4.550   8.513   7.574
50854SOL    HW154459   4.559   8.450   7.646
50854SOL    HW254460   4.515   8.461   7.501
50855SOL     OW54461   4.316   7.669   6.998
50855SOL    HW154462   4.382   7.644   6.933
50855SOL    HW254463   4.237   7.622   6.972
50856SOL     OW54464  13.237   7.480  11.613
50856SOL    HW154465  13.190   7.409  11.568
50856SOL    HW254466  13.307   7.504  11.552
50857SOL     OW54467  10.675   6.399  10.100
50857SOL    HW154468  10.734   6.330  10.132
50857SOL    HW254469  10.725   6.480  10.110
50858SOL     OW54470   5.234  14.008   2.098
50858SOL    HW154471   5.150  13.975   2.131
50858SOL    HW254472   5.254  14.083   2.153
50859SOL     OW54473   8.451   5.808   4.107
50859SOL    HW154474   8.400   5.728   4.107
50859SOL    HW254475   8.412   5.862   4.175
50860SOL     OW54476  12.316   4.166   2.983
50860SOL    HW154477  12.279   4.254   2.969
50860SOL    HW254478  12.352   4.168   3.071
50861SOL     OW54479   5.459   2.650   7.016
50861SOL    HW154480   5.455   2.638   6.921
50861SOL    HW254481   5.544   2.691   7.032
50862SOL     OW54482   3.470   4.978   0.085
50862SOL    HW154483   3.454   4.896   0.132
50862SOL    HW254484   3.384   5.004   0.053
50863SOL     OW54485   1.248  11.967   0.533
50863SOL    HW154486   1.288  11.943   0.449
50863SOL    HW254487   1.313  12.023   0.576
50864SOL     OW54488   9.464   3.206   2.912
50864SOL    HW154489   9.488   3.298   2.908
50864SOL    HW254490   9.547   3.159   2.920
50865SOL     OW54491   1.547  13.385   4.320
50865SOL    HW154492   1.532  13.291   4.329
50865SOL    HW254493   1.609  13.393   4.247
50866SOL     OW54494   9.410   7.244  11.143
50866SOL    HW154495   9.467   7.190  11.088
50866SOL    HW254496   9.346   7.281  11.082
50867SOL     OW54497   8.825   8.898   8.717
50867SOL    HW154498   8.743   8.928   8.757
50867SOL    HW254499   8.893   8.934   8.774
50868SOL     OW54500   6.457   0.293   5.336
50868SOL    HW154501   6.541   0.290   5.290
50868SOL    HW254502   6.446   0.385   5.359
50869SOL     OW54503  14.494   2.803  10.456
50869SOL    HW154504  14.502   2.756  10.539
50869SOL    HW254505  14.458   2.739  10.395
50870SOL     OW54506   3.848   0.775   6.436
50870SOL    HW154507   3.877   0.856   6.478
50870SOL    HW254508   3.918   0.752   6.376
50871SOL     OW54509   4.469   5.660   6.092
50871SOL    HW154510   4.559   5.627   6.093
50871SOL    HW254511   4.428   5.614   6.018
50872SOL     OW54512  12.456   0.230  14.295
50872SOL    HW154513  12.435   0.323  14.284
50872SOL    HW254514  12.371   0.187  14.300
50873SOL     OW54515   3.247   7.443   6.685
50873SOL    HW154516   3.343   7.441   6.695
50873SOL    HW254517   3.213   7.435   6.774
50874SOL     OW54518  13.307   7.735   7.870
50874SOL    HW154519  13.368   7.674   7.911
50874SOL    HW254520  13.286   7.696   7.786
50875SOL     OW54521   3.777  14.306   9.990
50875SOL    HW154522   3.726  14.340   9.917
50875SOL    HW254523   3.820  14.383  10.028
50876SOL     OW54524   8.643   2.143  13.901
50876SOL    HW154525   8.708   2.213  13.907
50876SOL    HW254526   8.683   2.070  13.948
50877SOL     OW54527   9.955  12.404   1.696
50877SOL    HW154528   9.859  12.407   1.687
50877SOL    HW254529   9.987  12.446   1.617
50878SOL     OW54530  14.385  13.287   4.215
50878SOL    HW154531  14.419  13.200   4.234
50878SOL    HW254532  14.309  13.296   4.272
50879SOL     OW54533   9.680   6.288   1.461
50879SOL    HW154534   9.757   6.239   1.489
50879SOL    HW254535   9.666   6.351   1.531
50880SOL     OW54536  12.674   7.786   5.432
50880SOL    HW154537  12.698   7.713   5.489
50880SOL    HW254538  12.588   7.762   5.397
50881SOL     OW54539   6.261   5.560   6.559
50881SOL    HW154540   6.289   5.651   6.567
50881SOL    HW254541   6.275   5.522   6.645
50882SOL     OW54542   9.357   2.945   3.955
50882SOL    HW154543   9.409   2.889   3.896
50882SOL    HW254544   9.303   2.883   4.003
50883SOL     OW54545   5.416  10.822   4.389
50883SOL    HW154546   5.358  10.898   4.392
50883SOL    HW254547   5.362  10.750   4.423
50884SOL     OW54548   8.316   0.619  13.833
50884SOL    HW154549   8.252   0.687  13.817
50884SOL    HW254550   8.399   0.666  13.847
50885SOL     OW54551   7.071  11.564  10.955
50885SOL    HW154552   6.986  11.532  10.926
50885SOL    HW254553   7.053  11.609  11.038
50886SOL     OW54554  10.404   7.826   9.872
50886SOL    HW154555  10.326   7.823   9.927
50886SOL    HW254556  10.456   7.897   9.908
50887SOL     OW54557  14.800   7.302   7.060
50887SOL    HW154558  14.825   7.221   7.017
50887SOL    HW254559  14.704   7.301   7.059
50888SOL     OW54560   9.981   1.073  11.200
50888SOL    HW154561  10.008   0.985  11.175
50888SOL    HW254562  10.053   1.129  11.169
50889SOL     OW54563  13.009   5.629   3.237
50889SOL    HW154564  13.045   5.701   3.186
50889SOL    HW254565  12.922   5.614   3.199
50890SOL     OW54566   8.472   4.715   9.216
50890SOL    HW154567   8.509   4.680   9.297
50890SOL    HW254568   8.547   4.756   9.171
50891SOL     OW54569   6.077  10.637  13.726
50891SOL    HW154570   5.996  10.588  13.709
50891SOL    HW254571   6.075  10.709  13.663
50892SOL     OW54572   2.742   7.183   8.815
50892SOL    HW154573   2.780   7.253   8.869
50892SOL    HW254574   2.670   7.224   8.769
50893SOL     OW54575   8.033   6.455  14.068
50893SOL    HW154576   8.019   6.396  13.994
50893SOL    HW254577   8.057   6.539  14.028
50894SOL     OW54578   8.916   5.760   9.581
50894SOL    HW154579   8.937   5.851   9.602
50894SOL    HW254580   8.956   5.745   9.495
50895SOL     OW54581  10.345  12.124   7.110
50895SOL    HW154582  10.409  12.194   7.118
50895SOL    HW254583  10.351  12.097   7.019
50896SOL     OW54584  13.120   8.658   3.520
50896SOL    HW154585  13.087   8.748   3.517
50896SOL    HW254586  13.215   8.667   3.518
50897SOL     OW54587   3.101   8.259  10.564
50897SOL    HW154588   3.069   8.310  10.638
50897SOL    HW254589   3.155   8.321  10.514
50898SOL     OW54590   6.442   8.759   9.054
50898SOL    HW154591   6.430   8.714   8.971
50898SOL    HW254592   6.413   8.849   9.037
50899SOL     OW54593  14.358   1.499   5.267
50899SOL    HW154594  14.268   1.483   5.236
50899SOL    HW254595  14.377   1.426   5.326
50900SOL     OW54596   5.247   8.102   9.984
50900SOL    HW154597   5.300   8.179   9.961
50900SOL    HW254598   5.219   8.066   9.900
50901SOL     OW54599   1.509  10.433  10.802
50901SOL    HW154600   1.567  10.503  10.833
50901SOL    HW254601   1.553  10.400  10.723
50902SOL     OW54602   2.214  11.731  11.521
50902SOL    HW154603   2.259  11.699  11.444
50902SOL    HW254604   2.124  11.746  11.493
50903SOL     OW54605  13.996   2.297   9.876
50903SOL    HW154606  14.070   2.357   9.862
50903SOL    HW254607  13.918   2.350   9.858
50904SOL     OW54608   5.618   1.143  13.990
50904SOL    HW154609   5.673   1.200  13.935
50904SOL    HW254610   5.677   1.107  14.055
50905SOL     OW54611   9.568  12.189   7.065
50905SOL    HW154612   9.630  12.237   7.119
50905SOL    HW254613   9.544  12.113   7.119
50906SOL     OW54614  13.204   8.098  13.825
50906SOL    HW154615  13.241   8.155  13.758
50906SOL    HW254616  13.157   8.030  13.775
50907SOL     OW54617   3.030   2.056   1.484
50907SOL    HW154618   3.048   2.148   1.465
50907SOL    HW254619   2.937   2.045   1.464
50908SOL     OW54620   4.712   3.340  12.199
50908SOL    HW154621   4.694   3.265  12.142
50908SOL    HW254622   4.764   3.399  12.145
50909SOL     OW54623   8.432   1.514  11.294
50909SOL    HW154624   8.506   1.487  11.240
50909SOL    HW254625   8.404   1.598  11.257
50910SOL     OW54626  14.166   4.733   2.584
50910SOL    HW154627  14.082   4.702   2.551
50910SOL    HW254628  14.164   4.712   2.678
50911SOL     OW54629   6.368  13.805   8.520
50911SOL    HW154630   6.429  13.768   8.457
50911SOL    HW254631   6.282  13.790   8.483
50912SOL     OW54632   4.331  14.224   1.802
50912SOL    HW154633   4.388  14.265   1.866
50912SOL    HW254634   4.311  14.138   1.839
50913SOL     OW54635   0.773   6.988   6.534
50913SOL    HW154636   0.862   6.955   6.518
50913SOL    HW254637   0.784   7.083   6.539
50914SOL     OW54638  12.529   5.107   8.645
50914SOL    HW154639  12.482   5.180   8.686
50914SOL    HW254640  12.566   5.059   8.719
50915SOL     OW54641   7.628   7.403  13.578
50915SOL    HW154642   7.665   7.317  13.601
50915SOL    HW254643   7.539   7.383  13.548
50916SOL     OW54644   4.467  12.557   5.523
50916SOL    HW154645   4.502  12.580   5.609
50916SOL    HW254646   4.444  12.465   5.530
50917SOL     OW54647   9.106   2.016   7.278
50917SOL    HW154648   9.141   2.103   7.259
50917SOL    HW254649   9.016   2.033   7.306
50918SOL     OW54650  10.993   9.497   7.228
50918SOL    HW154651  10.999   9.422   7.286
50918SOL    HW254652  10.957   9.567   7.282
50919SOL     OW54653   9.579   6.509   0.740
50919SOL    HW154654   9.665   6.523   0.777
50919SOL    HW254655   9.595   6.485   0.649
50920SOL     OW54656   4.635   6.800  14.840
50920SOL    HW154657   4.625   6.717  14.794
50920SOL    HW254658   4.596   6.784   0.058
50921SOL     OW54659  14.326   2.378  10.829
50921SOL    HW154660  14.308   2.399  10.737
50921SOL    HW254661  14.260   2.313  10.852
50922SOL     OW54662   2.577   1.029   6.605
50922SOL    HW154663   2.501   1.076   6.571
50922SOL    HW254664   2.624   1.094   6.658
50923SOL     OW54665   8.426   5.205   3.986
50923SOL    HW154666   8.495   5.149   3.950
50923SOL    HW254667   8.345   5.168   3.952
50924SOL     OW54668   5.047  14.492   5.194
50924SOL    HW154669   4.994  14.522   5.267
50924SOL    HW254670   5.018  14.544   5.120
50925SOL     OW54671   9.713  14.115   3.624
50925SOL    HW154672   9.706  14.196   3.573
50925SOL    HW254673   9.807  14.100   3.633
50926SOL     OW54674  14.867   0.433  14.452
50926SOL    HW154675  14.792   0.457  14.398
50926SOL    HW254676  14.852   0.341  14.474
50927SOL     OW54677   5.512   7.214  12.328
50927SOL    HW154678   5.432   7.263  12.350
50927SOL    HW254679   5.530   7.162  12.406
50928SOL     OW54680   6.443   0.896   1.187
50928SOL    HW154681   6.484   0.815   1.159
50928SOL    HW254682   6.413   0.937   1.105
50929SOL     OW54683   8.217  10.900   2.870
50929SOL    HW154684   8.251  10.940   2.950
50929SOL    HW254685   8.295  10.878   2.819
50930SOL     OW54686   8.287   9.962   9.165
50930SOL    HW154687   8.263  10.048   9.200
50930SOL    HW254688   8.298   9.907   9.243
50931SOL     OW54689   5.595   9.299  12.998
50931SOL    HW154690   5.504   9.287  12.968
50931SOL    HW254691   5.645   9.308  12.917
50932SOL     OW54692   4.003   2.965   4.611
50932SOL    HW154693   4.094   2.936   4.622
50932SOL    HW254694   4.011   3.058   4.589
50933SOL     OW54695   5.014   1.117   4.369
50933SOL    HW154696   4.943   1.169   4.331
50933SOL    HW254697   4.985   1.026   4.359
50934SOL     OW54698   9.368  10.986   9.493
50934SOL    HW154699   9.335  11.007   9.580
50934SOL    HW254700   9.291  10.991   9.436
50935SOL     OW54701  11.294  11.125  11.315
50935SOL    HW154702  11.328  11.191  11.376
50935SOL    HW254703  11.372  11.077  11.286
50936SOL     OW54704   7.355   8.480   3.485
50936SOL    HW154705   7.435   8.468   3.536
50936SOL    HW254706   7.385   8.487   3.395
50937SOL     OW54707   4.356   5.466   8.693
50937SOL    HW154708   4.318   5.551   8.714
50937SOL    HW254709   4.421   5.451   8.761
50938SOL     OW54710  12.501  14.150  10.473
50938SOL    HW154711  12.583  14.142  10.424
50938SOL    HW254712  12.460  14.064  10.464
50939SOL     OW54713  11.012  10.881   2.408
50939SOL    HW154714  10.950  10.883   2.336
50939SOL    HW254715  11.007  10.968   2.448
50940SOL     OW54716   1.554  10.072   1.777
50940SOL    HW154717   1.536   9.992   1.827
50940SOL    HW254718   1.528  10.050   1.688
50941SOL     OW54719  10.320   0.749   0.686
50941SOL    HW154720  10.387   0.720   0.747
50941SOL    HW254721  10.295   0.670   0.638
50942SOL     OW54722  11.369   5.238   7.022
50942SOL    HW154723  11.294   5.222   7.080
50942SOL    HW254724  11.400   5.325   7.046
50943SOL     OW54725   3.663   1.216  11.228
50943SOL    HW154726   3.606   1.251  11.297
50943SOL    HW254727   3.696   1.134  11.264
50944SOL     OW54728   6.163   9.386   9.836
50944SOL    HW154729   6.189   9.306   9.792
50944SOL    HW254730   6.244   9.434   9.850
50945SOL     OW54731  14.115   0.751   4.882
50945SOL    HW154732  14.207   0.766   4.903
50945SOL    HW254733  14.085   0.835   4.846
50946SOL     OW54734  11.786   6.517  14.275
50946SOL    HW154735  11.850   6.456  14.312
50946SOL    HW254736  11.838   6.594  14.251
50947SOL     OW54737   0.829  13.883   2.628
50947SOL    HW154738   0.791  13.970   2.636
50947SOL    HW254739   0.802  13.852   2.542
50948SOL     OW54740   8.991   4.239   9.865
50948SOL    HW154741   8.936   4.205   9.935
50948SOL    HW254742   9.022   4.160   9.819
50949SOL     OW54743  12.133   7.673   8.855
50949SOL    HW154744  12.112   7.663   8.762
50949SOL    HW254745  12.228   7.667   8.859
50950SOL     OW54746  12.837   0.375   4.615
50950SOL    HW154747  12.887   0.363   4.534
50950SOL    HW254748  12.883   0.322   4.679
50951SOL     OW54749  11.509   5.990  11.063
50951SOL    HW154750  11.414   5.987  11.061
50951SOL    HW254751  11.536   5.906  11.025
50952SOL     OW54752   2.130   4.592  14.089
50952SOL    HW154753   2.118   4.556  14.001
50952SOL    HW254754   2.041   4.610  14.120
50953SOL     OW54755   0.779  11.368   3.801
50953SOL    HW154756   0.751  11.309   3.731
50953SOL    HW254757   0.851  11.323   3.845
50954SOL     OW54758   9.023  14.317   7.466
50954SOL    HW154759   9.093  14.309   7.531
50954SOL    HW254760   8.949  14.270   7.504
50955SOL     OW54761   3.264  13.247   1.382
50955SOL    HW154762   3.249  13.157   1.410
50955SOL    HW254763   3.285  13.240   1.289
50956SOL     OW54764   8.839   0.334   9.257
50956SOL    HW154765   8.780   0.410   9.258
50956SOL    HW254766   8.919   0.366   9.299
50957SOL     OW54767   1.873   1.309  11.654
50957SOL    HW154768   1.860   1.220  11.621
50957SOL    HW254769   1.948   1.343  11.605
50958SOL     OW54770   3.018  11.171  10.302
50958SOL    HW154771   3.039  11.255  10.260
50958SOL    HW254772   2.982  11.117  10.231
50959SOL     OW54773  13.099  10.893  11.793
50959SOL    HW154774  13.149  10.955  11.739
50959SOL    HW254775  13.013  10.933  11.801
50960SOL     OW54776   5.811   0.435   7.628
50960SOL    HW154777   5.789   0.528   7.619
50960SOL    HW254778   5.904   0.431   7.605
50961SOL     OW54779   2.186  14.550   5.026
50961SOL    HW154780   2.122  14.531   5.094
50961SOL    HW254781   2.139  14.536   4.944
50962SOL     OW54782   5.829  11.481  12.824
50962SOL    HW154783   5.837  11.482  12.919
50962SOL    HW254784   5.743  11.442  12.808
50963SOL     OW54785   4.980   6.311   2.627
50963SOL    HW154786   5.020   6.233   2.590
50963SOL    HW254787   4.888   6.306   2.601
50964SOL     OW54788   6.474  10.845  10.015
50964SOL    HW154789   6.444  10.931   9.984
50964SOL    HW254790   6.453  10.845  10.108
50965SOL     OW54791   9.971  12.006   1.420
50965SOL    HW154792   9.912  12.032   1.491
50965SOL    HW254793  10.053  12.052   1.438
50966SOL     OW54794   5.994   1.955  11.584
50966SOL    HW154795   6.052   1.974  11.658
50966SOL    HW254796   6.053   1.949  11.509
50967SOL     OW54797   8.490   1.681   7.795
50967SOL    HW154798   8.429   1.750   7.768
50967SOL    HW254799   8.571   1.729   7.814
50968SOL     OW54800   1.142  11.489   5.991
50968SOL    HW154801   1.148  11.568   6.045
50968SOL    HW254802   1.179  11.420   6.046
50969SOL     OW54803  11.586   6.424   5.748
50969SOL    HW154804  11.566   6.510   5.785
50969SOL    HW254805  11.510   6.371   5.769
50970SOL     OW54806  12.367  14.684   2.131
50970SOL    HW154807  12.410  14.629   2.065
50970SOL    HW254808  12.440  14.725   2.179
50971SOL     OW54809   9.027   3.888   5.240
50971SOL    HW154810   8.958   3.928   5.293
50971SOL    HW254811   9.085   3.960   5.217
50972SOL     OW54812   1.821   7.308   2.023
50972SOL    HW154813   1.785   7.395   2.039
50972SOL    HW254814   1.837   7.272   2.111
50973SOL     OW54815  11.396   5.146   3.422
50973SOL    HW154816  11.356   5.187   3.499
50973SOL    HW254817  11.444   5.216   3.380
50974SOL     OW54818   3.948   6.681   0.034
50974SOL    HW154819   3.860   6.703   0.064
50974SOL    HW254820   3.941   6.683  14.807
50975SOL     OW54821   3.423   7.780   9.031
50975SOL    HW154822   3.436   7.845   8.962
50975SOL    HW254823   3.500   7.723   9.026
50976SOL     OW54824  13.117   0.085  12.047
50976SOL    HW154825  13.039   0.029  12.041
50976SOL    HW254826  13.115   0.120  12.136
50977SOL     OW54827  11.533  13.886   8.568
50977SOL    HW154828  11.476  13.813   8.542
50977SOL    HW254829  11.483  13.934   8.633
50978SOL     OW54830   3.219   2.549   0.949
50978SOL    HW154831   3.161   2.581   1.018
50978SOL    HW254832   3.305   2.543   0.991
50979SOL     OW54833  10.163   1.978   6.114
50979SOL    HW154834  10.188   1.906   6.057
50979SOL    HW254835  10.237   1.989   6.174
50980SOL     OW54836   3.259   3.859  13.526
50980SOL    HW154837   3.208   3.779  13.536
50980SOL    HW254838   3.222   3.919  13.591
50981SOL     OW54839   3.430  10.003   2.586
50981SOL    HW154840   3.456  10.047   2.505
50981SOL    HW254841   3.379   9.927   2.558
50982SOL     OW54842  10.431   3.324  10.415
50982SOL    HW154843  10.455   3.243  10.461
50982SOL    HW254844  10.444   3.304  10.323
50983SOL     OW54845   8.556   2.202   7.259
50983SOL    HW154846   8.603   2.255   7.324
50983SOL    HW254847   8.518   2.267   7.199
50984SOL     OW54848   6.466  12.188   2.720
50984SOL    HW154849   6.515  12.264   2.691
50984SOL    HW254850   6.374  12.212   2.705
50985SOL     OW54851   8.153  10.881  12.460
50985SOL    HW154852   8.079  10.942  12.454
50985SOL    HW254853   8.112  10.797  12.483
50986SOL     OW54854   0.263   1.051   7.762
50986SOL    HW154855   0.320   1.104   7.706
50986SOL    HW254856   0.254   0.968   7.715
50987SOL     OW54857   5.113  10.784  14.238
50987SOL    HW154858   5.067  10.841  14.176
50987SOL    HW254859   5.197  10.766  14.195
50988SOL     OW54860  12.700  13.466   2.237
50988SOL    HW154861  12.631  13.403   2.261
50988SOL    HW254862  12.765  13.413   2.191
50989SOL     OW54863   4.480   0.976   6.192
50989SOL    HW154864   4.387   0.957   6.181
50989SOL    HW254865   4.515   0.981   6.103
50990SOL     OW54866   4.715   7.199  14.042
50990SOL    HW154867   4.804   7.164  14.034
50990SOL    HW254868   4.689   7.178  14.132
50991SOL     OW54869   8.666   7.863   8.176
50991SOL    HW154870   8.761   7.872   8.164
50991SOL    HW254871   8.641   7.789   8.122
50992SOL     OW54872   8.416  12.677  14.102
50992SOL    HW154873   8.424  12.640  14.014
50992SOL    HW254874   8.506  12.687  14.133
50993SOL     OW54875   8.878   0.156   0.331
50993SOL    HW154876   8.923   0.241   0.327
50993SOL    HW254877   8.914   0.106   0.258
50994SOL     OW54878   2.307  10.352  12.341
50994SOL    HW154879   2.361  10.318  12.412
50994SOL    HW254880   2.247  10.413  12.384
50995SOL     OW54881   2.896  13.350   6.172
50995SOL    HW154882   2.939  13.361   6.088
50995SOL    HW254883   2.948  13.402   6.233
50996SOL     OW54884   9.261   9.710  12.367
50996SOL    HW154885   9.294   9.629  12.328
50996SOL    HW254886   9.339   9.763  12.381
50997SOL     OW54887  13.109   3.328   3.041
50997SOL    HW154888  13.188   3.342   3.093
50997SOL    HW254889  13.118   3.387   2.966
50998SOL     OW54890  13.560   2.330  13.721
50998SOL    HW154891  13.522   2.389  13.656
50998SOL    HW254892  13.511   2.249  13.711
50999SOL     OW54893   3.930  13.632   9.588
50999SOL    HW154894   3.919  13.687   9.510
50999SOL    HW254895   3.985  13.684   9.646
51000SOL     OW54896   5.410  12.241  14.418
51000SOL    HW154897   5.458  12.171  14.374
51000SOL    HW254898   5.352  12.276  14.351
51001SOL     OW54899  12.023   1.653  12.568
51001SOL    HW154900  11.951   1.597  12.596
51001SOL    HW254901  12.085   1.650  12.640
51002SOL     OW54902  14.343   3.292   2.900
51002SOL    HW154903  14.435   3.316   2.894
51002SOL    HW254904  14.315   3.279   2.809
51003SOL     OW54905   6.794  12.463   3.228
51003SOL    HW154906   6.768  12.422   3.145
51003SOL    HW254907   6.890  12.465   3.225
51004SOL     OW54908   1.158   2.390   8.070
51004SOL    HW154909   1.174   2.402   8.163
51004SOL    HW254910   1.144   2.478   8.036
51005SOL     OW54911  11.326   5.616   4.787
51005SOL    HW154912  11.295   5.525   4.790
51005SOL    HW254913  11.414   5.609   4.750
51006SOL     OW54914   4.074  10.706   4.146
51006SOL    HW154915   4.107  10.707   4.056
51006SOL    HW254916   4.024  10.787   4.155
51007SOL     OW54917   0.122   5.619   3.327
51007SOL    HW154918   0.031   5.614   3.298
51007SOL    HW254919   0.127   5.701   3.375
51008SOL     OW54920   7.492   4.685   1.316
51008SOL    HW154921   7.570   4.690   1.261
51008SOL    HW254922   7.468   4.776   1.332
51009SOL     OW54923   0.926   3.566   1.134
51009SOL    HW154924   0.941   3.639   1.074
51009SOL    HW254925   1.012   3.543   1.167
51010SOL     OW54926  11.956   8.088   2.223
51010SOL    HW154927  11.878   8.072   2.276
51010SOL    HW254928  12.003   8.005   2.224
51011SOL     OW54929   2.785  10.806  13.934
51011SOL    HW154930   2.777  10.725  13.883
51011SOL    HW254931   2.837  10.864  13.878
51012SOL     OW54932  11.785   1.037   0.986
51012SOL    HW154933  11.733   1.103   1.031
51012SOL    HW254934  11.745   1.030   0.899
51013SOL     OW54935  11.118   2.770  10.071
51013SOL    HW154936  11.084   2.730   9.990
51013SOL    HW254937  11.103   2.864  10.059
51014SOL     OW54938   7.893   2.685  10.560
51014SOL    HW154939   7.966   2.654  10.506
51014SOL    HW254940   7.829   2.614  10.556
51015SOL     OW54941  13.781   3.714   4.005
51015SOL    HW154942  13.838   3.705   4.082
51015SOL    HW254943  13.736   3.798   4.019
51016SOL     OW54944   9.678   6.618  13.898
51016SOL    HW154945   9.598   6.591  13.852
51016SOL    HW254946   9.715   6.536  13.931
51017SOL     OW54947  11.818   3.560   1.820
51017SOL    HW154948  11.911   3.559   1.802
51017SOL    HW254949  11.783   3.631   1.767
51018SOL     OW54950   5.432  11.550  10.215
51018SOL    HW154951   5.369  11.608  10.257
51018SOL    HW254952   5.504  11.544  10.277
51019SOL     OW54953  10.732   5.354  12.706
51019SOL    HW154954  10.731   5.347  12.611
51019SOL    HW254955  10.783   5.432  12.725
51020SOL     OW54956  11.886  10.192   9.268
51020SOL    HW154957  11.810  10.230   9.312
51020SOL    HW254958  11.917  10.124   9.328
51021SOL     OW54959  10.030  11.960   8.889
51021SOL    HW154960   9.959  12.003   8.841
51021SOL    HW254961   9.990  11.881   8.925
51022SOL     OW54962   4.507  12.267   9.158
51022SOL    HW154963   4.413  12.272   9.140
51022SOL    HW254964   4.514  12.208   9.233
51023SOL     OW54965  11.567   0.385  14.488
51023SOL    HW154966  11.638   0.324  14.467
51023SOL    HW254967  11.612   0.465  14.516
51024SOL     OW54968   7.390   4.674  10.080
51024SOL    HW154969   7.369   4.733  10.152
51024SOL    HW254970   7.485   4.682  10.070
51025SOL     OW54971  12.173  12.518  10.294
51025SOL    HW154972  12.151  12.427  10.278
51025SOL    HW254973  12.208  12.550  10.210
51026SOL     OW54974   5.100   6.857   0.398
51026SOL    HW154975   5.073   6.810   0.476
51026SOL    HW254976   5.148   6.933   0.431
51027SOL     OW54977   6.896  13.920   6.188
51027SOL    HW154978   6.980  13.937   6.232
51027SOL    HW254979   6.838  13.890   6.258
51028SOL     OW54980  12.319   2.227  14.624
51028SOL    HW154981  12.291   2.226  14.716
51028SOL    HW254982  12.408   2.192  14.626
51029SOL     OW54983   2.411   0.581   1.048
51029SOL    HW154984   2.448   0.501   1.010
51029SOL    HW254985   2.337   0.552   1.100
51030SOL     OW54986   7.218   8.476  11.658
51030SOL    HW154987   7.283   8.473  11.588
51030SOL    HW254988   7.156   8.544  11.631
51031SOL     OW54989   6.085   8.577   1.285
51031SOL    HW154990   6.130   8.607   1.206
51031SOL    HW254991   6.044   8.656   1.320
51032SOL     OW54992  14.854   7.704  11.369
51032SOL    HW154993  14.787   7.666  11.311
51032SOL    HW254994  14.829   7.675  11.457
51033SOL     OW54995   3.074   2.323   3.691
51033SOL    HW154996   3.110   2.275   3.617
51033SOL    HW254997   3.047   2.256   3.753
51034SOL     OW54998   1.928  14.733   7.694
51034SOL    HW154999   1.955  14.644   7.717
51034SOL    HW255000   2.000  14.767   7.641
51035SOL     OW55001   9.413  13.740   0.307
51035SOL    HW155002   9.405  13.727   0.401
51035SOL    HW255003   9.507  13.736   0.290
51036SOL     OW55004   6.421   3.147   7.658
51036SOL    HW155005   6.429   3.161   7.753
51036SOL    HW255006   6.416   3.052   7.649
51037SOL     OW55007  11.001   4.610  11.533
51037SOL    HW155008  10.915   4.582  11.564
51037SOL    HW255009  10.998   4.706  11.536
51038SOL     OW55010   0.840   5.993   0.746
51038SOL    HW155011   0.774   6.014   0.681
51038SOL    HW255012   0.790   5.968   0.824
51039SOL     OW55013   0.111   3.933   3.956
51039SOL    HW155014   0.131   3.971   3.870
51039SOL    HW255015   0.057   4.000   3.999
51040SOL     OW55016   3.464   5.257   1.537
51040SOL    HW155017   3.552   5.225   1.554
51040SOL    HW255018   3.477   5.337   1.486
51041SOL     OW55019  12.127   5.188   5.208
51041SOL    HW155020  12.180   5.109   5.218
51041SOL    HW255021  12.141   5.237   5.289
51042SOL     OW55022   2.436  13.288   9.422
51042SOL    HW155023   2.370  13.327   9.479
51042SOL    HW255024   2.418  13.326   9.336
51043SOL     OW55025   7.286   3.906   1.500
51043SOL    HW155026   7.202   3.951   1.489
51043SOL    HW255027   7.296   3.854   1.421
51044SOL     OW55028   8.863  10.221   1.489
51044SOL    HW155029   8.923  10.267   1.547
51044SOL    HW255030   8.896  10.131   1.486
51045SOL     OW55031  12.855   7.386  10.466
51045SOL    HW155032  12.883   7.427  10.383
51045SOL    HW255033  12.924   7.409  10.528
51046SOL     OW55034  12.866  13.141   6.367
51046SOL    HW155035  12.839  13.124   6.277
51046SOL    HW255036  12.936  13.206   6.360
51047SOL     OW55037  13.369   6.884  11.612
51047SOL    HW155038  13.337   6.923  11.531
51047SOL    HW255039  13.293   6.840  11.650
51048SOL     OW55040  10.468   7.866   7.839
51048SOL    HW155041  10.455   7.860   7.744
51048SOL    HW255042  10.490   7.776   7.865
51049SOL     OW55043  11.129  13.627  12.505
51049SOL    HW155044  11.204  13.662  12.457
51049SOL    HW255045  11.147  13.533  12.512
51050SOL     OW55046   2.220   8.756  14.571
51050SOL    HW155047   2.311   8.728  14.563
51050SOL    HW255048   2.170   8.677  14.551
51051SOL     OW55049   2.954   2.374  12.033
51051SOL    HW155050   3.032   2.420  12.067
51051SOL    HW255051   2.979   2.348  11.945
51052SOL     OW55052   5.529  11.774   0.489
51052SOL    HW155053   5.574  11.857   0.501
51052SOL    HW255054   5.597  11.713   0.462
51053SOL     OW55055   6.864   0.042  12.969
51053SOL    HW155056   6.837  14.819  12.983
51053SOL    HW255057   6.858   0.082  13.056
51054SOL     OW55058  10.424   8.989   2.341
51054SOL    HW155059  10.352   9.027   2.392
51054SOL    HW255060  10.503   9.018   2.385
51055SOL     OW55061   9.713   3.764  13.660
51055SOL    HW155062   9.756   3.737  13.741
51055SOL    HW255063   9.737   3.855  13.648
51056SOL     OW55064   3.225   9.181  14.722
51056SOL    HW155065   3.255   9.129  14.648
51056SOL    HW255066   3.174   9.119  14.775
51057SOL     OW55067   0.817  13.387   2.677
51057SOL    HW155068   0.902  13.418   2.710
51057SOL    HW255069   0.811  13.297   2.709
51058SOL     OW55070  14.635   6.983   2.362
51058SOL    HW155071  14.663   6.912   2.420
51058SOL    HW255072  14.561   7.023   2.407
51059SOL     OW55073  11.507   0.043   2.202
51059SOL    HW155074  11.508   0.135   2.228
51059SOL    HW255075  11.485  14.863   2.283
51060SOL     OW55076  11.227   9.990   7.765
51060SOL    HW155077  11.241   9.941   7.845
51060SOL    HW255078  11.295   9.960   7.705
51061SOL     OW55079   5.777   6.145   1.353
51061SOL    HW155080   5.841   6.201   1.308
51061SOL    HW255081   5.727   6.206   1.408
51062SOL     OW55082   2.546   5.151   8.332
51062SOL    HW155083   2.607   5.218   8.363
51062SOL    HW255084   2.561   5.076   8.390
51063SOL     OW55085  10.188  12.212   1.187
51063SOL    HW155086  10.149  12.148   1.246
51063SOL    HW255087  10.118  12.232   1.125
51064SOL     OW55088  14.525   8.042   3.337
51064SOL    HW155089  14.453   8.022   3.277
51064SOL    HW255090  14.545   8.134   3.320
51065SOL     OW55091  14.663   1.119   0.532
51065SOL    HW155092  14.675   1.068   0.452
51065SOL    HW255093  14.745   1.109   0.580
51066SOL     OW55094   3.195   7.966   9.722
51066SOL    HW155095   3.283   8.001   9.732
51066SOL    HW255096   3.149   7.991   9.802
51067SOL     OW55097   8.108   8.909   6.864
51067SOL    HW155098   8.020   8.916   6.827
51067SOL    HW255099   8.140   8.824   6.835
51068SOL     OW55100   2.831  11.174   0.992
51068SOL    HW155101   2.775  11.101   1.019
51068SOL    HW255102   2.919  11.137   0.991
51069SOL     OW55103   3.880   3.775  10.746
51069SOL    HW155104   3.911   3.685  10.733
51069SOL    HW255105   3.951   3.830  10.711
51070SOL     OW55106  10.515   1.489   1.015
51070SOL    HW155107  10.510   1.524   0.925
51070SOL    HW255108  10.481   1.560   1.069
51071SOL     OW55109   9.499   4.277  10.649
51071SOL    HW155110   9.410   4.247  10.669
51071SOL    HW255111   9.507   4.266  10.554
51072SOL     OW55112   2.886   5.941  10.896
51072SOL    HW155113   2.860   5.895  10.816
51072SOL    HW255114   2.936   6.017  10.865
51073SOL     OW55115  14.364  14.573   5.985
51073SOL    HW155116  14.436  14.625   6.020
51073SOL    HW255117  14.387  14.559   5.893
51074SOL     OW55118  13.577   5.136   1.613
51074SOL    HW155119  13.484   5.156   1.615
51074SOL    HW255120  13.618   5.213   1.573
51075SOL     OW55121  14.696   3.551   1.092
51075SOL    HW155122  14.747   3.564   1.172
51075SOL    HW255123  14.675   3.457   1.092
51076SOL     OW55124   9.299   7.603   5.553
51076SOL    HW155125   9.270   7.589   5.644
51076SOL    HW255126   9.289   7.697   5.539
51077SOL     OW55127   2.877   1.734   7.310
51077SOL    HW155128   2.800   1.677   7.305
51077SOL    HW255129   2.935   1.691   7.372
51078SOL     OW55130   5.219   7.926   7.659
51078SOL    HW155131   5.284   7.918   7.588
51078SOL    HW255132   5.140   7.888   7.623
51079SOL     OW55133   4.384   1.629   5.682
51079SOL    HW155134   4.447   1.577   5.732
51079SOL    HW255135   4.396   1.718   5.714
51080SOL     OW55136   0.063  11.803   3.086
51080SOL    HW155137   0.124  11.819   3.158
51080SOL    HW255138  14.845  11.795   3.128
51081SOL     OW55139   9.726   9.628   3.128
51081SOL    HW155140   9.783   9.671   3.064
51081SOL    HW255141   9.661   9.582   3.075
51082SOL     OW55142  14.428   1.322   1.562
51082SOL    HW155143  14.508   1.314   1.614
51082SOL    HW255144  14.400   1.232   1.546
51083SOL     OW55145  14.370   2.416   9.820
51083SOL    HW155146  14.464   2.432   9.827
51083SOL    HW255147  14.330   2.503   9.815
51084SOL     OW55148   2.174   9.790  14.297
51084SOL    HW155149   2.209   9.718  14.244
51084SOL    HW255150   2.211   9.869  14.258
51085SOL     OW55151   4.585   3.092  12.461
51085SOL    HW155152   4.541   3.171  12.430
51085SOL    HW255153   4.521   3.048  12.516
51086SOL     OW55154   3.378   4.030   6.377
51086SOL    HW155155   3.296   4.056   6.335
51086SOL    HW255156   3.439   4.101   6.357
51087SOL     OW55157   8.118   0.307  13.481
51087SOL    HW155158   8.190   0.349  13.528
51087SOL    HW255159   8.083   0.376  13.424
51088SOL     OW55160   0.709   3.125   8.369
51088SOL    HW155161   0.633   3.066   8.369
51088SOL    HW255162   0.785   3.066   8.376
51089SOL     OW55163   2.432  13.752  13.069
51089SOL    HW155164   2.427  13.657  13.061
51089SOL    HW255165   2.507  13.777  13.016
51090SOL     OW55166   9.286  11.301   1.463
51090SOL    HW155167   9.303  11.246   1.386
51090SOL    HW255168   9.197  11.333   1.450
51091SOL     OW55169  11.545  13.095   1.488
51091SOL    HW155170  11.498  13.049   1.558
51091SOL    HW255171  11.517  13.186   1.495
51092SOL     OW55172   5.786  14.780   5.701
51092SOL    HW155173   5.812  14.763   5.791
51092SOL    HW255174   5.736  14.703   5.675
51093SOL     OW55175   4.250  13.170   3.458
51093SOL    HW155176   4.252  13.244   3.518
51093SOL    HW255177   4.342  13.146   3.445
51094SOL     OW55178  11.625   5.653   1.985
51094SOL    HW155179  11.632   5.748   1.988
51094SOL    HW255180  11.532   5.636   1.971
51095SOL     OW55181   3.799   4.423   9.599
51095SOL    HW155182   3.745   4.476   9.657
51095SOL    HW255183   3.737   4.380   9.540
51096SOL     OW55184  12.251   5.753  13.386
51096SOL    HW155185  12.221   5.662  13.380
51096SOL    HW255186  12.324   5.750  13.448
51097SOL     OW55187  14.713  14.405  11.608
51097SOL    HW155188  14.796  14.418  11.653
51097SOL    HW255189  14.664  14.346  11.665
51098SOL     OW55190   7.980   5.235   6.572
51098SOL    HW155191   8.060   5.184   6.574
51098SOL    HW255192   7.913   5.178   6.609
51099SOL     OW55193   1.233  14.076   1.850
51099SOL    HW155194   1.237  14.169   1.827
51099SOL    HW255195   1.159  14.070   1.910
51100SOL     OW55196   6.622   0.433   4.090
51100SOL    HW155197   6.707   0.476   4.075
51100SOL    HW255198   6.558   0.504   4.086
51101SOL     OW55199  12.789   0.827  14.253
51101SOL    HW155200  12.759   0.917  14.265
51101SOL    HW255201  12.877   0.836  14.217
51102SOL     OW55202   8.360   9.275   1.833
51102SOL    HW155203   8.391   9.187   1.854
51102SOL    HW255204   8.439   9.323   1.808
51103SOL     OW55205   3.420   0.213   1.810
51103SOL    HW155206   3.461   0.130   1.835
51103SOL    HW255207   3.393   0.253   1.892
51104SOL     OW55208  14.357  11.814  14.204
51104SOL    HW155209  14.363  11.784  14.114
51104SOL    HW255210  14.337  11.736  14.255
51105SOL     OW55211   4.752   9.616   0.806
51105SOL    HW155212   4.825   9.562   0.777
51105SOL    HW255213   4.674   9.571   0.772
51106SOL     OW55214  14.353   2.370  12.396
51106SOL    HW155215  14.364   2.318  12.316
51106SOL    HW255216  14.259   2.364  12.414
51107SOL     OW55217   3.353   6.616  14.092
51107SOL    HW155218   3.410   6.646  14.021
51107SOL    HW255219   3.362   6.521  14.093
51108SOL     OW55220   6.315   6.233   0.575
51108SOL    HW155221   6.228   6.202   0.599
51108SOL    HW255222   6.304   6.272   0.488
51109SOL     OW55223   0.463   1.925   6.368
51109SOL    HW155224   0.381   1.972   6.358
51109SOL    HW255225   0.524   1.969   6.309
51110SOL     OW55226   2.559  10.015   2.660
51110SOL    HW155227   2.579  10.103   2.692
51110SOL    HW255228   2.598   9.957   2.726
51111SOL     OW55229  14.188   7.238   1.021
51111SOL    HW155230  14.101   7.261   0.988
51111SOL    HW255231  14.208   7.155   0.978
51112SOL     OW55232  11.347   4.002  14.606
51112SOL    HW155233  11.371   4.094  14.607
51112SOL    HW255234  11.373   3.969  14.692
51113SOL     OW55235   4.949  10.413   2.669
51113SOL    HW155236   4.940  10.508   2.673
51113SOL    HW255237   4.859  10.380   2.670
51114SOL     OW55238   2.891   4.423  11.896
51114SOL    HW155239   2.942   4.504  11.891
51114SOL    HW255240   2.813   4.447  11.946
51115SOL     OW55241  14.505  12.958   0.086
51115SOL    HW155242  14.412  12.943   0.067
51115SOL    HW255243  14.549  12.933   0.005
51116SOL     OW55244   7.696  14.772   1.098
51116SOL    HW155245   7.781  14.729   1.108
51116SOL    HW255246   7.706  14.856   1.143
51117SOL     OW55247   5.440  14.423  10.681
51117SOL    HW155248   5.510  14.487  10.675
51117SOL    HW255249   5.422  14.398  10.591
51118SOL     OW55250   4.302   1.620  12.721
51118SOL    HW155251   4.295   1.611  12.816
51118SOL    HW255252   4.226   1.573  12.687
51119SOL     OW55253   6.962  14.732   7.032
51119SOL    HW155254   7.038  14.790   7.025
51119SOL    HW255255   6.972  14.688   7.116
51120SOL     OW55256  10.664   5.500   2.708
51120SOL    HW155257  10.728   5.472   2.643
51120SOL    HW255258  10.703   5.578   2.749
51121SOL     OW55259   1.995  14.609  10.534
51121SOL    HW155260   1.989  14.705  10.534
51121SOL    HW255261   1.951  14.582  10.614
51122SOL     OW55262  13.326   1.363  10.731
51122SOL    HW155263  13.415   1.338  10.755
51122SOL    HW255264  13.336   1.448  10.688
51123SOL     OW55265  11.059   5.104   9.815
51123SOL    HW155266  11.152   5.118   9.833
51123SOL    HW255267  11.028   5.054   9.891
51124SOL     OW55268   2.297   6.728   8.591
51124SOL    HW155269   2.300   6.798   8.525
51124SOL    HW255270   2.371   6.672   8.569
51125SOL     OW55271   4.848  11.086   5.201
51125SOL    HW155272   4.854  11.059   5.109
51125SOL    HW255273   4.755  11.104   5.215
51126SOL     OW55274   5.251  11.750  13.007
51126SOL    HW155275   5.251  11.778  13.099
51126SOL    HW255276   5.268  11.656  13.010
51127SOL     OW55277  14.535   5.234   9.847
51127SOL    HW155278  14.446   5.259   9.871
51127SOL    HW255279  14.590   5.274   9.916
51128SOL     OW55280   1.497  10.529   9.594
51128SOL    HW155281   1.546  10.489   9.667
51128SOL    HW255282   1.519  10.476   9.518
51129SOL     OW55283   2.004   6.439   3.961
51129SOL    HW155284   2.054   6.520   3.968
51129SOL    HW255285   2.026   6.390   4.041
51130SOL     OW55286  13.487   8.190   4.013
51130SOL    HW155287  13.528   8.261   4.063
51130SOL    HW255288  13.498   8.113   4.068
51131SOL     OW55289   1.643  13.384   7.420
51131SOL    HW155290   1.581  13.374   7.492
51131SOL    HW255291   1.697  13.305   7.424
51132SOL     OW55292   7.874  11.371  12.638
51132SOL    HW155293   7.872  11.461  12.605
51132SOL    HW255294   7.957  11.336  12.608
51133SOL     OW55295   4.721   8.608   6.449
51133SOL    HW155296   4.656   8.603   6.378
51133SOL    HW255297   4.790   8.548   6.421
51134SOL     OW55298   3.171  11.815   2.678
51134SOL    HW155299   3.229  11.786   2.748
51134SOL    HW255300   3.226  11.812   2.599
51135SOL     OW55301  11.390   0.252  10.778
51135SOL    HW155302  11.391   0.199  10.857
51135SOL    HW255303  11.299   0.278  10.766
51136SOL     OW55304  11.699  13.673   5.372
51136SOL    HW155305  11.652  13.606   5.422
51136SOL    HW255306  11.783  13.633   5.351
51137SOL     OW55307   2.716  10.542   3.665
51137SOL    HW155308   2.630  10.575   3.692
51137SOL    HW255309   2.707  10.530   3.570
51138SOL     OW55310   8.386  10.700   0.012
51138SOL    HW155311   8.395  10.729  14.789
51138SOL    HW255312   8.292  10.699   0.027
51139SOL     OW55313  14.223   9.763   0.229
51139SOL    HW155314  14.163   9.711   0.282
51139SOL    HW255315  14.182   9.850   0.225
51140SOL     OW55316   8.878   7.693  12.129
51140SOL    HW155317   8.957   7.742  12.106
51140SOL    HW255318   8.807   7.754  12.114
51141SOL     OW55319   1.252   0.407  14.630
51141SOL    HW155320   1.272   0.372  14.717
51141SOL    HW255321   1.264   0.501  14.638
51142SOL     OW55322   9.957  13.968   8.751
51142SOL    HW155323   9.953  13.880   8.790
51142SOL    HW255324   9.870  13.982   8.714
51143SOL     OW55325  13.218   0.753   1.617
51143SOL    HW155326  13.308   0.784   1.609
51143SOL    HW255327  13.226   0.659   1.630
51144SOL     OW55328   2.635  14.829   2.007
51144SOL    HW155329   2.633  14.800   1.915
51144SOL    HW255330   2.665   0.052   2.003
51145SOL     OW55331  11.516  10.655   9.607
51145SOL    HW155332  11.500  10.707   9.528
51145SOL    HW255333  11.612  10.645   9.611
51146SOL     OW55334  11.256   8.855  12.788
51146SOL    HW155335  11.346   8.831  12.813
51146SOL    HW255336  11.226   8.911  12.860
51147SOL     OW55337  10.306   7.479   5.149
51147SOL    HW155338  10.282   7.482   5.241
51147SOL    HW255339  10.222   7.477   5.102
51148SOL     OW55340  13.586   9.343   1.122
51148SOL    HW155341  13.568   9.431   1.089
51148SOL    HW255342  13.658   9.311   1.067
51149SOL     OW55343   9.399  10.230  13.213
51149SOL    HW155344   9.365  10.247  13.125
51149SOL    HW255345   9.335  10.171  13.252
51150SOL     OW55346   8.486   1.570   7.246
51150SOL    HW155347   8.567   1.620   7.236
51150SOL    HW255348   8.461   1.545   7.157
51151SOL     OW55349   4.451   3.919   7.263
51151SOL    HW155350   4.366   3.881   7.285
51151SOL    HW255351   4.429   4.007   7.230
51152SOL     OW55352   8.620   9.528   3.707
51152SOL    HW155353   8.712   9.504   3.721
51152SOL    HW255354   8.609   9.610   3.755
51153SOL     OW55355   2.645   1.735  11.211
51153SOL    HW155356   2.558   1.722  11.172
51153SOL    HW255357   2.706   1.705  11.143
51154SOL     OW55358   4.326   6.331  13.466
51154SOL    HW155359   4.370   6.253  13.434
51154SOL    HW255360   4.347   6.399  13.402
51155SOL     OW55361   3.918   5.375   0.894
51155SOL    HW155362   3.845   5.330   0.852
51155SOL    HW255363   3.912   5.465   0.862
51156SOL     OW55364  14.201   5.095  12.493
51156SOL    HW155365  14.207   5.125  12.403
51156SOL    HW255366  14.109   5.105  12.516
51157SOL     OW55367   2.199  13.932   1.239
51157SOL    HW155368   2.120  13.968   1.279
51157SOL    HW255369   2.177  13.840   1.222
51158SOL     OW55370   0.786   5.392  10.511
51158SOL    HW155371   0.810   5.405  10.603
51158SOL    HW255372   0.726   5.317  10.512
51159SOL     OW55373   5.620   1.244   0.296
51159SOL    HW155374   5.681   1.213   0.363
51159SOL    HW255375   5.636   1.338   0.291
51160SOL     OW55376   7.738  14.257  11.134
51160SOL    HW155377   7.749  14.350  11.113
51160SOL    HW255378   7.827  14.223  11.140
51161SOL     OW55379   0.530   9.284   9.480
51161SOL    HW155380   0.542   9.233   9.560
51161SOL    HW255381   0.511   9.219   9.413
51162SOL     OW55382  11.354   5.266   9.339
51162SOL    HW155383  11.273   5.314   9.323
51162SOL    HW255384  11.364   5.270   9.435
51163SOL     OW55385   4.122  12.550   5.582
51163SOL    HW155386   4.069  12.545   5.502
51163SOL    HW255387   4.151  12.641   5.587
51164SOL     OW55388  10.581   2.453   0.543
51164SOL    HW155389  10.646   2.441   0.612
51164SOL    HW255390  10.607   2.391   0.474
51165SOL     OW55391   0.448   7.357  12.721
51165SOL    HW155392   0.526   7.391  12.765
51165SOL    HW255393   0.441   7.408  12.640
51166SOL     OW55394   8.997  10.598   7.776
51166SOL    HW155395   8.945  10.598   7.856
51166SOL    HW255396   8.949  10.541   7.716
51167SOL     OW55397   1.358   8.736   4.634
51167SOL    HW155398   1.391   8.822   4.607
51167SOL    HW255399   1.370   8.680   4.558
51168SOL     OW55400  13.987   4.440   1.081
51168SOL    HW155401  13.988   4.355   1.125
51168SOL    HW255402  13.909   4.483   1.115
51169SOL     OW55403   9.448  13.295   8.285
51169SOL    HW155404   9.484  13.226   8.341
51169SOL    HW255405   9.486  13.279   8.199
51170SOL     OW55406   7.612  12.526   6.296
51170SOL    HW155407   7.670  12.450   6.296
51170SOL    HW255408   7.671  12.601   6.306
51171SOL     OW55409   3.885   5.699  10.695
51171SOL    HW155410   3.833   5.758  10.641
51171SOL    HW255411   3.860   5.611  10.666
51172SOL     OW55412   4.467   2.953  11.037
51172SOL    HW155413   4.551   2.979  11.076
51172SOL    HW255414   4.409   2.938  11.112
51173SOL     OW55415  12.527   8.460   4.168
51173SOL    HW155416  12.569   8.398   4.227
51173SOL    HW255417  12.445   8.416   4.142
51174SOL     OW55418  13.350  12.991   6.977
51174SOL    HW155419  13.266  13.025   6.945
51174SOL    HW255420  13.362  12.909   6.930
51175SOL     OW55421   9.698   2.280   3.994
51175SOL    HW155422   9.624   2.280   3.934
51175SOL    HW255423   9.749   2.202   3.969
51176SOL     OW55424  11.455   1.206   9.685
51176SOL    HW155425  11.441   1.299   9.666
51176SOL    HW255426  11.467   1.202   9.780
51177SOL     OW55427   9.555  10.432   0.882
51177SOL    HW155428   9.504  10.375   0.825
51177SOL    HW255429   9.490  10.475   0.938
51178SOL     OW55430   2.974   4.458  12.540
51178SOL    HW155431   2.903   4.401  12.511
51178SOL    HW255432   3.001   4.421  12.624
51179SOL     OW55433   5.441   5.041   5.121
51179SOL    HW155434   5.462   5.076   5.207
51179SOL    HW255435   5.484   4.956   5.118
51180SOL     OW55436   4.277   3.318   2.465
51180SOL    HW155437   4.352   3.373   2.444
51180SOL    HW255438   4.307   3.228   2.447
51181SOL     OW55439   7.788  14.303   5.439
51181SOL    HW155440   7.711  14.307   5.495
51181SOL    HW255441   7.768  14.235   5.374
51182SOL     OW55442   0.971   2.357   5.523
51182SOL    HW155443   1.054   2.314   5.541
51182SOL    HW255444   0.994   2.448   5.506
51183SOL     OW55445   9.192  13.278   4.969
51183SOL    HW155446   9.132  13.345   4.999
51183SOL    HW255447   9.147  13.236   4.896
51184SOL     OW55448   4.956  14.288  11.304
51184SOL    HW155449   4.971  14.195  11.292
51184SOL    HW255450   4.864  14.301  11.281
51185SOL     OW55451   4.728   2.873   0.966
51185SOL    HW155452   4.648   2.825   0.987
51185SOL    HW255453   4.716   2.959   1.007
51186SOL     OW55454  13.508  13.487   4.721
51186SOL    HW155455  13.578  13.508   4.659
51186SOL    HW255456  13.439  13.550   4.701
51187SOL     OW55457   2.390   6.919   8.418
51187SOL    HW155458   2.364   6.991   8.476
51187SOL    HW255459   2.433   6.962   8.344
51188SOL     OW55460   2.785   4.937  12.093
51188SOL    HW155461   2.726   4.991  12.040
51188SOL    HW255462   2.729   4.871  12.133
51189SOL     OW55463  11.859   6.393   5.872
51189SOL    HW155464  11.892   6.304   5.882
51189SOL    HW255465  11.782   6.384   5.816
51190SOL     OW55466  12.090   1.383   6.712
51190SOL    HW155467  12.004   1.384   6.671
51190SOL    HW255468  12.084   1.317   6.781
51191SOL     OW55469  10.306  10.866   3.489
51191SOL    HW155470  10.348  10.790   3.449
51191SOL    HW255471  10.239  10.828   3.547
51192SOL     OW55472  10.150   1.372   5.641
51192SOL    HW155473  10.216   1.394   5.707
51192SOL    HW255474  10.185   1.295   5.597
51193SOL     OW55475   2.129  10.693   2.793
51193SOL    HW155476   2.090  10.780   2.783
51193SOL    HW255477   2.220  10.704   2.764
51194SOL     OW55478   7.862  10.453  11.531
51194SOL    HW155479   7.801  10.395  11.577
51194SOL    HW255480   7.807  10.497  11.466
51195SOL     OW55481   7.731   2.454   6.952
51195SOL    HW155482   7.803   2.394   6.932
51195SOL    HW255483   7.723   2.508   6.873
51196SOL     OW55484  10.604  13.071   4.375
51196SOL    HW155485  10.635  13.148   4.424
51196SOL    HW255486  10.626  13.089   4.284
51197SOL     OW55487  12.061   3.310   3.762
51197SOL    HW155488  11.980   3.350   3.731
51197SOL    HW255489  12.128   3.376   3.747
51198SOL     OW55490  14.101   0.138   6.535
51198SOL    HW155491  14.056   0.058   6.560
51198SOL    HW255492  14.125   0.125   6.444
51199SOL     OW55493  10.939  11.806   5.474
51199SOL    HW155494  10.880  11.757   5.416
51199SOL    HW255495  11.026  11.774   5.453
51200SOL     OW55496  14.690  13.892  14.868
51200SOL    HW155497  14.761  13.836  14.838
51200SOL    HW255498  14.720  13.927   0.083
51201SOL     OW55499   6.107  14.638   4.221
51201SOL    HW155500   6.058  14.674   4.295
51201SOL    HW255501   6.194  14.621   4.256
51202SOL     OW55502   3.566  10.349  11.983
51202SOL    HW155503   3.580  10.256  12.001
51202SOL    HW255504   3.485  10.352  11.932
51203SOL     OW55505  10.936   0.685  11.372
51203SOL    HW155506  10.877   0.632  11.427
51203SOL    HW255507  10.889   0.767  11.359
51204SOL     OW55508  11.850   8.225  11.879
51204SOL    HW155509  11.931   8.252  11.835
51204SOL    HW255510  11.854   8.267  11.965
51205SOL     OW55511   3.194  13.673   9.033
51205SOL    HW155512   3.235  13.723   8.962
51205SOL    HW255513   3.257  13.678   9.105
51206SOL     OW55514   3.280  10.312  11.814
51206SOL    HW155515   3.311  10.399  11.790
51206SOL    HW255516   3.221  10.287  11.743
51207SOL     OW55517   7.977   5.326  14.866
51207SOL    HW155518   7.981   5.418  14.840
51207SOL    HW255519   7.915   5.324   0.070
51208SOL     OW55520  11.418  10.961  10.418
51208SOL    HW155521  11.331  10.995  10.442
51208SOL    HW255522  11.428  10.882  10.471
51209SOL     OW55523   9.468   1.109  13.171
51209SOL    HW155524   9.393   1.167  13.185
51209SOL    HW255525   9.520   1.118  13.251
51210SOL     OW55526   1.693   3.991  11.596
51210SOL    HW155527   1.613   3.940  11.608
51210SOL    HW255528   1.764   3.927  11.602
51211SOL     OW55529   2.094  12.119   5.267
51211SOL    HW155530   2.036  12.161   5.330
51211SOL    HW255531   2.080  12.167   5.185
51212SOL     OW55532  11.395  10.539  14.040
51212SOL    HW155533  11.301  10.527  14.031
51212SOL    HW255534  11.433  10.469  13.988
51213SOL     OW55535  13.400   7.827  14.845
51213SOL    HW155536  13.466   7.872   0.029
51213SOL    HW255537  13.326   7.888  14.842
51214SOL     OW55538  13.551   2.813   6.006
51214SOL    HW155539  13.626   2.873   6.008
51214SOL    HW255540  13.587   2.728   6.030
51215SOL     OW55541   0.860   7.362   4.098
51215SOL    HW155542   0.879   7.276   4.136
51215SOL    HW255543   0.935   7.381   4.042
51216SOL     OW55544   8.715   0.676  13.005
51216SOL    HW155545   8.789   0.691  13.063
51216SOL    HW255546   8.639   0.672  13.063
51217SOL     OW55547   7.071  11.161   0.821
51217SOL    HW155548   7.053  11.232   0.883
51217SOL    HW255549   6.985  11.137   0.787
51218SOL     OW55550   9.948   4.657   2.009
51218SOL    HW155551  10.031   4.703   2.019
51218SOL    HW255552   9.952   4.586   2.073
51219SOL     OW55553  11.238   5.019   0.858
51219SOL    HW155554  11.168   5.068   0.902
51219SOL    HW255555  11.192   4.946   0.815
51220SOL     OW55556  12.053   6.794   3.602
51220SOL    HW155557  11.961   6.792   3.630
51220SOL    HW255558  12.050   6.767   3.510
51221SOL     OW55559   3.710   0.024   0.246
51221SOL    HW155560   3.672  14.820   0.196
51221SOL    HW255561   3.755  14.850   0.320
51222SOL     OW55562  13.652   9.047  13.681
51222SOL    HW155563  13.593   8.985  13.637
51222SOL    HW255564  13.594   9.099  13.737
51223SOL     OW55565   8.252  11.467   5.348
51223SOL    HW155566   8.324  11.437   5.404
51223SOL    HW255567   8.289  11.466   5.260
51224SOL     OW55568   9.048   9.776  10.940
51224SOL    HW155569   8.998   9.803  11.017
51224SOL    HW255570   8.992   9.714  10.894
51225SOL     OW55571   9.641   7.916  14.849
51225SOL    HW155572   9.654   7.930   0.075
51225SOL    HW255573   9.548   7.935  14.834
51226SOL     OW55574   3.246   0.889   3.948
51226SOL    HW155575   3.338   0.865   3.956
51226SOL    HW255576   3.244   0.951   3.874
51227SOL     OW55577   7.917   3.423  13.247
51227SOL    HW155578   7.994   3.478  13.234
51227SOL    HW255579   7.852   3.458  13.186
51228SOL     OW55580   5.009   8.841  10.336
51228SOL    HW155581   5.053   8.815  10.255
51228SOL    HW255582   4.932   8.890  10.306
51229SOL     OW55583  10.072  11.820  14.485
51229SOL    HW155584  10.074  11.898  14.539
51229SOL    HW255585  10.124  11.844  14.407
51230SOL     OW55586   7.957   2.791   5.632
51230SOL    HW155587   7.995   2.823   5.714
51230SOL    HW255588   7.966   2.864   5.571
51231SOL     OW55589  14.167   8.641   7.030
51231SOL    HW155590  14.230   8.713   7.017
51231SOL    HW255591  14.111   8.672   7.101
51232SOL     OW55592   9.410   7.241   0.011
51232SOL    HW155593   9.366   7.163  14.844
51232SOL    HW255594   9.468   7.207   0.079
51233SOL     OW55595   3.978   3.656   7.883
51233SOL    HW155596   4.010   3.571   7.912
51233SOL    HW255597   3.885   3.655   7.905
51234SOL     OW55598   4.238  14.812   6.116
51234SOL    HW155599   4.290   0.015   6.078
51234SOL    HW255600   4.285  14.788   6.196
51235SOL     OW55601   5.156  13.511   4.111
51235SOL    HW155602   5.070  13.550   4.124
51235SOL    HW255603   5.190  13.497   4.199
51236SOL     OW55604   2.022   7.982   4.269
51236SOL    HW155605   2.004   8.028   4.187
51236SOL    HW255606   1.936   7.955   4.301
51237SOL     OW55607  13.487  13.638  13.312
51237SOL    HW155608  13.575  13.617  13.345
51237SOL    HW255609  13.428  13.610  13.382
51238SOL     OW55610  12.565  14.578   1.950
51238SOL    HW155611  12.537  14.538   1.868
51238SOL    HW255612  12.643  14.529   1.976
51239SOL     OW55613   3.778   7.019   5.182
51239SOL    HW155614   3.797   7.091   5.243
51239SOL    HW255615   3.772   6.941   5.238
51240SOL     OW55616   2.897   2.478  13.357
51240SOL    HW155617   2.910   2.509  13.447
51240SOL    HW255618   2.805   2.495  13.339
51241SOL     OW55619  11.029   2.116  14.861
51241SOL    HW155620  11.122   2.094   0.004
51241SOL    HW255621  11.028   2.177  14.788
51242SOL     OW55622   2.954  13.486  13.226
51242SOL    HW155623   3.006  13.514  13.151
51242SOL    HW255624   2.962  13.558  13.289
51243SOL     OW55625   5.149   0.726  12.811
51243SOL    HW155626   5.173   0.816  12.836
51243SOL    HW255627   5.183   0.672  12.882
51244SOL     OW55628   9.246   1.727   5.195
51244SOL    HW155629   9.275   1.818   5.191
51244SOL    HW255630   9.190   1.716   5.118
51245SOL     OW55631   2.131   0.122   6.983
51245SOL    HW155632   2.184   0.059   7.032
51245SOL    HW255633   2.188   0.151   6.911
51246SOL     OW55634   6.171   2.998   6.859
51246SOL    HW155635   6.182   2.910   6.895
51246SOL    HW255636   6.106   3.039   6.916
51247SOL     OW55637   5.991  13.594   8.884
51247SOL    HW155638   6.042  13.535   8.941
51247SOL    HW255639   5.911  13.545   8.864
51248SOL     OW55640   9.832   0.946   5.788
51248SOL    HW155641   9.746   0.915   5.759
51248SOL    HW255642   9.823   1.042   5.790
51249SOL     OW55643   7.027   3.198   4.756
51249SOL    HW155644   7.069   3.247   4.685
51249SOL    HW255645   6.941   3.237   4.765
51250SOL     OW55646  14.628   5.789   8.294
51250SOL    HW155647  14.641   5.794   8.199
51250SOL    HW255648  14.707   5.829   8.331
51251SOL     OW55649   1.473   0.834   9.746
51251SOL    HW155650   1.475   0.870   9.835
51251SOL    HW255651   1.403   0.882   9.702
51252SOL     OW55652   8.663   0.251   2.876
51252SOL    HW155653   8.697   0.325   2.825
51252SOL    HW255654   8.666   0.282   2.967
51253SOL     OW55655   2.377   0.379   5.772
51253SOL    HW155656   2.374   0.469   5.740
51253SOL    HW255657   2.398   0.327   5.694
51254SOL     OW55658   7.615   8.486   6.630
51254SOL    HW155659   7.690   8.428   6.643
51254SOL    HW255660   7.543   8.427   6.609
51255SOL     OW55661  11.329   7.041  12.609
51255SOL    HW155662  11.291   7.099  12.543
51255SOL    HW255663  11.424   7.056  12.602
51256SOL     OW55664   9.862  10.558  11.547
51256SOL    HW155665   9.788  10.615  11.567
51256SOL    HW255666   9.923  10.614  11.498
51257SOL     OW55667   2.019   1.122  10.932
51257SOL    HW155668   1.992   1.168  10.852
51257SOL    HW255669   2.082   1.057  10.901
51258SOL     OW55670   1.810   5.072  13.153
51258SOL    HW155671   1.904   5.086  13.159
51258SOL    HW255672   1.775   5.111  13.234
51259SOL     OW55673   3.790   4.223   2.814
51259SOL    HW155674   3.720   4.160   2.797
51259SOL    HW255675   3.746   4.308   2.814
51260SOL     OW55676   3.057  12.957   6.734
51260SOL    HW155677   3.113  13.033   6.746
51260SOL    HW255678   3.024  12.965   6.645
51261SOL     OW55679   6.386  12.160   1.362
51261SOL    HW155680   6.364  12.254   1.364
51261SOL    HW255681   6.380  12.132   1.453
51262SOL     OW55682   9.387  13.878   9.454
51262SOL    HW155683   9.396  13.886   9.549
51262SOL    HW255684   9.436  13.952   9.419
51263SOL     OW55685  14.626  10.855   5.900
51263SOL    HW155686  14.583  10.796   5.837
51263SOL    HW255687  14.630  10.804   5.981
51264SOL     OW55688   9.897   8.787   0.782
51264SOL    HW155689   9.892   8.868   0.833
51264SOL    HW255690   9.887   8.717   0.846
51265SOL     OW55691   0.846  12.577   0.976
51265SOL    HW155692   0.868  12.590   1.068
51265SOL    HW255693   0.925  12.605   0.929
51266SOL     OW55694   8.892   6.280  12.492
51266SOL    HW155695   8.927   6.343  12.554
51266SOL    HW255696   8.935   6.302  12.409
51267SOL     OW55697  10.705   6.562   8.994
51267SOL    HW155698  10.692   6.655   8.973
51267SOL    HW255699  10.781   6.536   8.944
51268SOL     OW55700  12.509  14.563   9.676
51268SOL    HW155701  12.493  14.518   9.593
51268SOL    HW255702  12.425  14.560   9.721
51269SOL     OW55703  12.162   4.263  12.437
51269SOL    HW155704  12.129   4.342  12.394
51269SOL    HW255705  12.247   4.247  12.395
51270SOL     OW55706   9.088   0.231   8.532
51270SOL    HW155707   9.108   0.162   8.469
51270SOL    HW255708   8.998   0.214   8.560
51271SOL     OW55709   3.069   5.363  13.120
51271SOL    HW155710   3.116   5.312  13.186
51271SOL    HW255711   3.012   5.422  13.170
51272SOL     OW55712   0.217  10.555   3.589
51272SOL    HW155713   0.214  10.601   3.505
51272SOL    HW255714   0.307  10.525   3.598
51273SOL     OW55715   5.046   6.869  11.458
51273SOL    HW155716   5.116   6.811  11.490
51273SOL    HW255717   4.965   6.829  11.490
51274SOL     OW55718   8.014  11.034   8.635
51274SOL    HW155719   7.982  10.947   8.660
51274SOL    HW255720   8.040  11.024   8.543
51275SOL     OW55721   8.681   6.471  10.395
51275SOL    HW155722   8.628   6.473  10.316
51275SOL    HW255723   8.691   6.378  10.415
51276SOL     OW55724  12.614   1.264   4.033
51276SOL    HW155725  12.653   1.249   4.119
51276SOL    HW255726  12.663   1.208   3.974
51277SOL     OW55727   3.023   5.972   7.361
51277SOL    HW155728   2.998   5.907   7.427
51277SOL    HW255729   2.946   6.027   7.350
51278SOL     OW55730   5.012  12.457   0.696
51278SOL    HW155731   5.048  12.543   0.671
51278SOL    HW255732   4.935  12.478   0.748
51279SOL     OW55733   7.524  14.756   2.491
51279SOL    HW155734   7.455  14.818   2.471
51279SOL    HW255735   7.479  14.680   2.527
51280SOL     OW55736   3.131   7.179   8.282
51280SOL    HW155737   3.166   7.091   8.266
51280SOL    HW255738   3.116   7.215   8.195
51281SOL     OW55739  10.863  14.131   5.191
51281SOL    HW155740  10.769  14.148   5.181
51281SOL    HW255741  10.906  14.202   5.144
51282SOL     OW55742   6.921  11.533   3.129
51282SOL    HW155743   7.004  11.490   3.148
51282SOL    HW255744   6.904  11.511   3.037
51283SOL     OW55745   0.219   4.432  13.462
51283SOL    HW155746   0.215   4.471  13.550
51283SOL    HW255747   0.177   4.347  13.472
51284SOL     OW55748   3.851   5.357   1.398
51284SOL    HW155749   3.804   5.376   1.317
51284SOL    HW255750   3.821   5.269   1.423
51285SOL     OW55751   2.359   6.569   1.160
51285SOL    HW155752   2.415   6.498   1.193
51285SOL    HW255753   2.311   6.599   1.237
51286SOL     OW55754   7.834   7.962   6.243
51286SOL    HW155755   7.769   7.895   6.264
51286SOL    HW255756   7.885   7.925   6.171
51287SOL     OW55757  10.356   3.581  11.525
51287SOL    HW155758  10.421   3.565  11.593
51287SOL    HW255759  10.284   3.521  11.545
51288SOL     OW55760   5.964  14.505   5.273
51288SOL    HW155761   5.931  14.527   5.186
51288SOL    HW255762   5.985  14.589   5.314
51289SOL     OW55763   3.599  11.552  10.451
51289SOL    HW155764   3.661  11.606  10.403
51289SOL    HW255765   3.651  11.481  10.488
51290SOL     OW55766   4.145   9.364   0.268
51290SOL    HW155767   4.117   9.325   0.351
51290SOL    HW255768   4.226   9.411   0.289
51291SOL     OW55769   9.330   9.101   2.903
51291SOL    HW155770   9.326   9.117   2.997
51291SOL    HW255771   9.267   9.163   2.866
51292SOL     OW55772   2.240   9.916   5.433
51292SOL    HW155773   2.299   9.887   5.364
51292SOL    HW255774   2.284   9.990   5.474
51293SOL     OW55775   8.687   5.840   3.146
51293SOL    HW155776   8.596   5.828   3.174
51293SOL    HW255777   8.738   5.788   3.208
51294SOL     OW55778  11.105   8.782   8.278
51294SOL    HW155779  11.130   8.874   8.277
51294SOL    HW255780  11.184   8.735   8.250
51295SOL     OW55781   6.789   0.588   6.979
51295SOL    HW155782   6.728   0.569   7.050
51295SOL    HW255783   6.743   0.558   6.900
51296SOL     OW55784   7.621   8.031   5.828
51296SOL    HW155785   7.589   7.943   5.811
51296SOL    HW255786   7.550   8.073   5.878
51297SOL     OW55787   7.559  10.902   6.942
51297SOL    HW155788   7.474  10.918   6.902
51297SOL    HW255789   7.610  10.858   6.874
51298SOL     OW55790  10.896  11.478   3.501
51298SOL    HW155791  10.815  11.513   3.464
51298SOL    HW255792  10.887  11.383   3.492
51299SOL     OW55793   2.115  11.606   0.042
51299SOL    HW155794   2.146  11.523   0.006
51299SOL    HW255795   2.025  11.589   0.070
51300SOL     OW55796  14.566   8.949   6.390
51300SOL    HW155797  14.569   8.856   6.414
51300SOL    HW255798  14.560   8.948   6.294
51301SOL     OW55799   0.298   9.674  11.048
51301SOL    HW155800   0.305   9.587  11.087
51301SOL    HW255801   0.234   9.720  11.103
51302SOL     OW55802   6.098  10.453   6.808
51302SOL    HW155803   6.068  10.433   6.897
51302SOL    HW255804   6.021  10.491   6.765
51303SOL     OW55805   4.109  14.863  12.878
51303SOL    HW155806   4.126  14.794  12.813
51303SOL    HW255807   4.090  14.815  12.959
51304SOL     OW55808   9.809   9.288   1.055
51304SOL    HW155809   9.882   9.298   1.117
51304SOL    HW255810   9.816   9.198   1.024
51305SOL     OW55811  11.655   7.893   4.687
51305SOL    HW155812  11.653   7.848   4.771
51305SOL    HW255813  11.660   7.986   4.710
51306SOL     OW55814   4.183  11.242   7.899
51306SOL    HW155815   4.220  11.191   7.971
51306SOL    HW255816   4.162  11.176   7.832
51307SOL     OW55817   0.543  12.496  13.780
51307SOL    HW155818   0.493  12.577  13.768
51307SOL    HW255819   0.545  12.457  13.693
51308SOL     OW55820   9.805   4.131   2.078
51308SOL    HW155821   9.795   4.054   2.135
51308SOL    HW255822   9.785   4.206   2.135
51309SOL     OW55823  12.454  11.260   3.071
51309SOL    HW155824  12.494  11.258   2.984
51309SOL    HW255825  12.456  11.168   3.100
51310SOL     OW55826   0.764   7.157   8.823
51310SOL    HW155827   0.805   7.244   8.821
51310SOL    HW255828   0.697   7.161   8.755
51311SOL     OW55829  13.685   8.629  10.350
51311SOL    HW155830  13.682   8.589  10.437
51311SOL    HW255831  13.770   8.602  10.314
51312SOL     OW55832   0.508   1.130   3.867
51312SOL    HW155833   0.528   1.081   3.947
51312SOL    HW255834   0.507   1.222   3.895
51313SOL     OW55835  14.273   3.150   7.651
51313SOL    HW155836  14.363   3.181   7.652
51313SOL    HW255837  14.231   3.199   7.581
51314SOL     OW55838   9.395   2.525   6.967
51314SOL    HW155839   9.447   2.602   6.988
51314SOL    HW255840   9.458   2.453   6.967
51315SOL     OW55841   2.221   0.600   0.182
51315SOL    HW155842   2.204   0.536   0.113
51315SOL    HW255843   2.181   0.680   0.151
51316SOL     OW55844   4.394  11.398  13.749
51316SOL    HW155845   4.371  11.322  13.802
51316SOL    HW255846   4.348  11.471  13.789
51317SOL     OW55847  14.040  10.739  10.546
51317SOL    HW155848  14.091  10.817  10.522
51317SOL    HW255849  14.095  10.694  10.610
51318SOL     OW55850   6.489  12.462   6.100
51318SOL    HW155851   6.539  12.380   6.105
51318SOL    HW255852   6.399  12.434   6.085
51319SOL     OW55853  10.253   5.435   0.250
51319SOL    HW155854  10.320   5.501   0.266
51319SOL    HW255855  10.173   5.485   0.234
51320SOL     OW55856   5.265  13.867   6.035
51320SOL    HW155857   5.220  13.948   6.058
51320SOL    HW255858   5.335  13.860   6.100
51321SOL     OW55859   9.604  10.874   4.731
51321SOL    HW155860   9.613  10.819   4.809
51321SOL    HW255861   9.516  10.855   4.699
51322SOL     OW55862   9.588   4.704   5.149
51322SOL    HW155863   9.570   4.798   5.144
51322SOL    HW255864   9.598   4.686   5.242
51323SOL     OW55865  12.037   6.523   4.102
51323SOL    HW155866  12.071   6.568   4.179
51323SOL    HW255867  12.072   6.572   4.028
51324SOL     OW55868   4.677  10.945   2.703
51324SOL    HW155869   4.753  10.978   2.751
51324SOL    HW255870   4.715  10.889   2.635
51325SOL     OW55871  14.507   8.785   4.477
51325SOL    HW155872  14.517   8.833   4.394
51325SOL    HW255873  14.554   8.703   4.463
51326SOL     OW55874   9.442  14.820   5.278
51326SOL    HW155875   9.535  14.801   5.269
51326SOL    HW255876   9.405  14.740   5.316
51327SOL     OW55877   3.547  12.713  11.109
51327SOL    HW155878   3.503  12.756  11.036
51327SOL    HW255879   3.629  12.763  11.120
51328SOL     OW55880  12.585  12.463   8.185
51328SOL    HW155881  12.543  12.510   8.258
51328SOL    HW255882  12.628  12.388   8.227
51329SOL     OW55883  11.657  11.651  11.903
51329SOL    HW155884  11.651  11.592  11.978
51329SOL    HW255885  11.736  11.703  11.920
51330SOL     OW55886   9.115  10.497   4.944
51330SOL    HW155887   9.127  10.521   4.852
51330SOL    HW255888   9.152  10.409   4.951
51331SOL     OW55889   4.660   3.005   6.741
51331SOL    HW155890   4.603   2.977   6.669
51331SOL    HW255891   4.747   2.973   6.717
51332SOL     OW55892   4.357   8.434   6.028
51332SOL    HW155893   4.395   8.347   6.018
51332SOL    HW255894   4.271   8.419   6.066
51333SOL     OW55895  11.743   5.137   5.425
51333SOL    HW155896  11.719   5.068   5.487
51333SOL    HW255897  11.839   5.136   5.423
51334SOL     OW55898  13.833   5.265   9.865
51334SOL    HW155899  13.916   5.283   9.821
51334SOL    HW255900  13.829   5.329   9.936
51335SOL     OW55901  11.922   0.752   3.489
51335SOL    HW155902  11.948   0.735   3.398
51335SOL    HW255903  11.961   0.837   3.509
51336SOL     OW55904   4.535   0.077   4.210
51336SOL    HW155905   4.625   0.078   4.241
51336SOL    HW255906   4.542   0.049   4.118
51337SOL     OW55907   1.289   6.092   6.358
51337SOL    HW155908   1.244   6.160   6.408
51337SOL    HW255909   1.342   6.046   6.423
51338SOL     OW55910   2.696   4.768   0.734
51338SOL    HW155911   2.642   4.743   0.808
51338SOL    HW255912   2.644   4.745   0.657
51339SOL     OW55913  10.735   8.838   4.030
51339SOL    HW155914  10.756   8.850   4.123
51339SOL    HW255915  10.642   8.862   4.024
51340SOL     OW55916   4.794  11.590   0.411
51340SOL    HW155917   4.826  11.640   0.336
51340SOL    HW255918   4.776  11.655   0.478
51341SOL     OW55919   0.596   8.978   1.907
51341SOL    HW155920   0.542   8.948   1.980
51341SOL    HW255921   0.686   8.964   1.936
51342SOL     OW55922  13.633   6.923   4.456
51342SOL    HW155923  13.710   6.946   4.509
51342SOL    HW255924  13.592   6.851   4.504
51343SOL     OW55925  11.194   0.964   6.386
51343SOL    HW155926  11.191   1.048   6.341
51343SOL    HW255927  11.116   0.963   6.441
51344SOL     OW55928   7.122   7.168   2.493
51344SOL    HW155929   7.205   7.127   2.518
51344SOL    HW255930   7.145   7.258   2.469
51345SOL     OW55931   9.025  10.392   4.336
51345SOL    HW155932   9.073  10.363   4.413
51345SOL    HW255933   9.010  10.486   4.350
51346SOL     OW55934  13.982   3.572   7.730
51346SOL    HW155935  13.973   3.505   7.799
51346SOL    HW255936  13.906   3.628   7.742
51347SOL     OW55937   3.871  14.160   9.267
51347SOL    HW155938   3.914  14.094   9.321
51347SOL    HW255939   3.866  14.237   9.324
51348SOL     OW55940   5.778   2.745  11.368
51348SOL    HW155941   5.862   2.746  11.415
51348SOL    HW255942   5.771   2.655  11.335
51349SOL     OW55943   5.112   2.537  10.981
51349SOL    HW155944   5.112   2.616  10.926
51349SOL    HW255945   5.020   2.520  10.999
51350SOL     OW55946   5.058   8.347   4.878
51350SOL    HW155947   4.998   8.337   4.804
51350SOL    HW255948   5.091   8.436   4.871
51351SOL     OW55949   4.114   4.937  12.081
51351SOL    HW155950   4.106   4.892  12.165
51351SOL    HW255951   4.103   4.867  12.016
51352SOL     OW55952   3.231  10.974   1.494
51352SOL    HW155953   3.302  10.942   1.550
51352SOL    HW255954   3.214  10.901   1.434
51353SOL     OW55955   4.791  13.453  11.464
51353SOL    HW155956   4.824  13.431  11.551
51353SOL    HW255957   4.745  13.375  11.435
51354SOL     OW55958   9.773   6.934  12.496
51354SOL    HW155959   9.821   7.005  12.540
51354SOL    HW255960   9.681   6.957  12.506
51355SOL     OW55961  14.233   6.954   9.600
51355SOL    HW155962  14.164   7.006   9.639
51355SOL    HW255963  14.201   6.931   9.513
51356SOL     OW55964   3.810   6.993   1.558
51356SOL    HW155965   3.825   7.039   1.475
51356SOL    HW255966   3.748   6.923   1.536
51357SOL     OW55967  13.906   2.954   8.509
51357SOL    HW155968  13.825   2.908   8.531
51357SOL    HW255969  13.879   3.021   8.446
51358SOL     OW55970  11.730  10.872   7.383
51358SOL    HW155971  11.689  10.813   7.446
51358SOL    HW255972  11.663  10.884   7.315
51359SOL     OW55973   7.787   8.039   1.735
51359SOL    HW155974   7.843   7.980   1.785
51359SOL    HW255975   7.837   8.057   1.655
51360SOL     OW55976  11.532  11.344   2.704
51360SOL    HW155977  11.540  11.249   2.697
51360SOL    HW255978  11.487  11.358   2.788
51361SOL     OW55979   1.396  13.982  10.761
51361SOL    HW155980   1.302  13.970  10.778
51361SOL    HW255981   1.401  14.061  10.707
51362SOL     OW55982   3.715  11.370   8.512
51362SOL    HW155983   3.732  11.430   8.585
51362SOL    HW255984   3.798  11.325   8.498
51363SOL     OW55985  12.521   6.182   6.647
51363SOL    HW155986  12.529   6.273   6.618
51363SOL    HW255987  12.583   6.134   6.591
51364SOL     OW55988   0.956  12.973  14.423
51364SOL    HW155989   0.905  12.964  14.343
51364SOL    HW255990   0.912  13.042  14.472
51365SOL     OW55991  12.770   8.236   6.389
51365SOL    HW155992  12.736   8.228   6.299
51365SOL    HW255993  12.859   8.267   6.378
51366SOL     OW55994   9.008   2.854   1.016
51366SOL    HW155995   8.937   2.795   1.043
51366SOL    HW255996   8.963   2.926   0.971
51367SOL     OW55997  14.846   6.298  13.528
51367SOL    HW155998  14.814   6.385  13.550
51367SOL    HW255999   0.061   6.290  13.576
51368SOL     OW56000   7.599  11.490   6.160
51368SOL    HW156001   7.544  11.419   6.194
51368SOL    HW256002   7.646  11.450   6.087
51369SOL     OW56003   6.798   9.377   6.936
51369SOL    HW156004   6.759   9.457   6.970
51369SOL    HW256005   6.853   9.406   6.863
51370SOL     OW56006   1.273  10.997   7.092
51370SOL    HW156007   1.203  10.952   7.139
51370SOL    HW256008   1.351  10.944   7.108
51371SOL     OW56009  11.079   5.095   1.527
51371SOL    HW156010  11.004   5.149   1.553
51371SOL    HW256011  11.121   5.144   1.457
51372SOL     OW56012   3.097   8.949   3.663
51372SOL    HW156013   3.139   9.034   3.671
51372SOL    HW256014   3.165   8.885   3.684
51373SOL     OW56015   2.815   1.019   8.303
51373SOL    HW156016   2.725   0.987   8.295
51373SOL    HW256017   2.810   1.110   8.275
51374SOL     OW56018   3.727   3.023   2.499
51374SOL    HW156019   3.807   3.075   2.499
51374SOL    HW256020   3.741   2.958   2.569
51375SOL     OW56021  12.404   3.660   8.662
51375SOL    HW156022  12.471   3.636   8.726
51375SOL    HW256023  12.417   3.754   8.648
51376SOL     OW56024   0.368   8.817  14.736
51376SOL    HW156025   0.369   8.722  14.750
51376SOL    HW256026   0.383   8.827  14.641
51377SOL     OW56027   7.128  14.528   0.736
51377SOL    HW156028   7.044  14.483   0.738
51377SOL    HW256029   7.193  14.457   0.741
51378SOL     OW56030  14.826   2.350  11.404
51378SOL    HW156031  14.745   2.397  11.422
51378SOL    HW256032  14.826   2.277  11.467
51379SOL     OW56033   0.622   7.751   8.988
51379SOL    HW156034   0.658   7.691   8.924
51379SOL    HW256035   0.568   7.696   9.045
51380SOL     OW56036   1.935   7.476   0.413
51380SOL    HW156037   1.979   7.472   0.328
51380SOL    HW256038   1.976   7.550   0.457
51381SOL     OW56039   7.302   7.694   1.017
51381SOL    HW156040   7.353   7.627   0.971
51381SOL    HW256041   7.307   7.770   0.959
51382SOL     OW56042   6.342  13.294  13.405
51382SOL    HW156043   6.264  13.349  13.398
51382SOL    HW256044   6.410  13.344  13.359
51383SOL     OW56045   0.102   5.123   7.997
51383SOL    HW156046   0.064   5.052   7.946
51383SOL    HW256047   0.089   5.202   7.944
51384SOL     OW56048   2.218   7.296  12.205
51384SOL    HW156049   2.163   7.245  12.146
51384SOL    HW256050   2.166   7.303  12.285
51385SOL     OW56051   8.492  13.956   2.481
51385SOL    HW156052   8.578  13.915   2.491
51385SOL    HW256053   8.446  13.935   2.562
51386SOL     OW56054  12.700   6.597   3.181
51386SOL    HW156055  12.772   6.572   3.123
51386SOL    HW256056  12.742   6.630   3.259
51387SOL     OW56057   9.301  12.086  14.754
51387SOL    HW156058   9.363  12.054  14.819
51387SOL    HW256059   9.253  12.156  14.799
51388SOL     OW56060   6.356   3.043  13.358
51388SOL    HW156061   6.298   3.119  13.357
51388SOL    HW256062   6.298   2.968  13.369
51389SOL     OW56063   4.256   9.249  13.689
51389SOL    HW156064   4.179   9.273  13.740
51389SOL    HW256065   4.318   9.321  13.703
51390SOL     OW56066  12.799   6.088  13.967
51390SOL    HW156067  12.831   6.000  13.948
51390SOL    HW256068  12.873   6.146  13.949
51391SOL     OW56069   9.805   9.197   9.576
51391SOL    HW156070   9.756   9.247   9.511
51391SOL    HW256071   9.895   9.198   9.544
51392SOL     OW56072  14.661   1.057   0.910
51392SOL    HW156073  14.752   1.038   0.885
51392SOL    HW256074  14.611   0.981   0.879
51393SOL     OW56075  12.069   9.312   4.343
51393SOL    HW156076  12.097   9.350   4.426
51393SOL    HW256077  12.097   9.220   4.348
51394SOL     OW56078   6.682  13.917  14.509
51394SOL    HW156079   6.588  13.936  14.515
51394SOL    HW256080   6.724  13.993  14.549
51395SOL     OW56081   7.595  11.387  11.209
51395SOL    HW156082   7.550  11.461  11.250
51395SOL    HW256083   7.596  11.408  11.116
51396SOL     OW56084   9.294   4.286   6.407
51396SOL    HW156085   9.302   4.257   6.497
51396SOL    HW256086   9.207   4.326   6.402
51397SOL     OW56087   4.163   4.340   4.272
51397SOL    HW156088   4.157   4.328   4.367
51397SOL    HW256089   4.169   4.251   4.237
51398SOL     OW56090  14.043  12.741  10.053
51398SOL    HW156091  14.022  12.723   9.961
51398SOL    HW256092  13.973  12.697  10.102
51399SOL     OW56093   5.605  12.207   0.806
51399SOL    HW156094   5.648  12.290   0.826
51399SOL    HW256095   5.568  12.219   0.718
51400SOL     OW56096  12.292   6.998   4.380
51400SOL    HW156097  12.350   6.956   4.316
51400SOL    HW256098  12.236   7.055   4.328
51401SOL     OW56099   9.761   5.827  13.203
51401SOL    HW156100   9.831   5.872  13.157
51401SOL    HW256101   9.804   5.780  13.274
51402SOL     OW56102   1.673   7.980  10.313
51402SOL    HW156103   1.670   8.075  10.314
51402SOL    HW256104   1.592   7.953  10.270
51403SOL     OW56105   0.234  14.335   0.594
51403SOL    HW156106   0.196  14.257   0.635
51403SOL    HW256107   0.159  14.391   0.574
51404SOL     OW56108  10.533  12.311   7.175
51404SOL    HW156109  10.575  12.310   7.261
51404SOL    HW256110  10.605  12.331   7.115
51405SOL     OW56111   2.521   2.734  14.337
51405SOL    HW156112   2.438   2.687  14.343
51405SOL    HW256113   2.550   2.719  14.247
51406SOL     OW56114   7.018   3.989   2.998
51406SOL    HW156115   7.056   4.040   3.069
51406SOL    HW256116   6.996   4.053   2.930
51407SOL     OW56117   9.247   7.486   8.410
51407SOL    HW156118   9.231   7.435   8.331
51407SOL    HW256119   9.188   7.450   8.475
51408SOL     OW56120   2.639  10.263   0.753
51408SOL    HW156121   2.665  10.263   0.661
51408SOL    HW256122   2.642  10.171   0.779
51409SOL     OW56123  12.103   6.050  13.654
51409SOL    HW156124  12.057   6.089  13.729
51409SOL    HW256125  12.189   6.093  13.654
51410SOL     OW56126   5.692   2.064  13.041
51410SOL    HW156127   5.626   2.002  13.071
51410SOL    HW256128   5.748   2.079  13.117
51411SOL     OW56129   9.115   1.041  14.569
51411SOL    HW156130   9.048   1.040  14.638
51411SOL    HW256131   9.108   1.128  14.531
51412SOL     OW56132   9.578  10.876  14.829
51412SOL    HW156133   9.664  10.846  14.860
51412SOL    HW256134   9.565  10.960   0.006
51413SOL     OW56135  10.419   8.458   6.241
51413SOL    HW156136  10.433   8.439   6.334
51413SOL    HW256137  10.353   8.528   6.240
51414SOL     OW56138   9.445   9.747   0.959
51414SOL    HW156139   9.401   9.705   1.034
51414SOL    HW256140   9.375   9.797   0.917
51415SOL     OW56141   7.712   4.715   5.529
51415SOL    HW156142   7.657   4.637   5.525
51415SOL    HW256143   7.802   4.681   5.531
51416SOL     OW56144  11.721   9.858  11.616
51416SOL    HW156145  11.653   9.913  11.655
51416SOL    HW256146  11.784   9.920  11.580
51417SOL     OW56147   4.480  14.866   1.549
51417SOL    HW156148   4.538  14.826   1.614
51417SOL    HW256149   4.518  14.840   1.464
51418SOL     OW56150   9.008  12.346  14.437
51418SOL    HW156151   8.991  12.255  14.414
51418SOL    HW256152   9.063  12.341  14.515
51419SOL     OW56153  12.712  11.620  14.584
51419SOL    HW156154  12.782  11.559  14.565
51419SOL    HW256155  12.695  11.610  14.677
51420SOL     OW56156  10.664  14.298   4.449
51420SOL    HW156157  10.721  14.357   4.499
51420SOL    HW256158  10.584  14.349   4.434
51421SOL     OW56159  14.417   9.953   3.069
51421SOL    HW156160  14.489  10.005   3.033
51421SOL    HW256161  14.449   9.863   3.068
51422SOL     OW56162  10.379  14.361   1.560
51422SOL    HW156163  10.313  14.414   1.606
51422SOL    HW256164  10.397  14.410   1.479
51423SOL     OW56165   9.358   4.760  11.615
51423SOL    HW156166   9.408   4.758  11.697
51423SOL    HW256167   9.281   4.813  11.634
51424SOL     OW56168   0.562   6.342  13.845
51424SOL    HW156169   0.506   6.327  13.769
51424SOL    HW256170   0.505   6.326  13.920
51425SOL     OW56171   0.683   8.362  13.820
51425SOL    HW156172   0.660   8.421  13.748
51425SOL    HW256173   0.778   8.367  13.826
51426SOL     OW56174   9.673   2.342  13.156
51426SOL    HW156175   9.580   2.322  13.141
51426SOL    HW256176   9.672   2.426  13.201
51427SOL     OW56177   8.535   9.969   4.617
51427SOL    HW156178   8.476   9.972   4.692
51427SOL    HW256179   8.530  10.057   4.579
51428SOL     OW56180  11.653   7.410   6.837
51428SOL    HW156181  11.586   7.417   6.906
51428SOL    HW256182  11.714   7.344   6.869
51429SOL     OW56183  13.143   2.952   4.849
51429SOL    HW156184  13.146   2.943   4.754
51429SOL    HW256185  13.215   3.013   4.869
51430SOL     OW56186   6.937  11.356   4.434
51430SOL    HW156187   6.962  11.286   4.495
51430SOL    HW256188   6.967  11.326   4.349
51431SOL     OW56189  10.172   5.226   2.030
51431SOL    HW156190  10.110   5.289   1.992
51431SOL    HW256191  10.176   5.155   1.967
51432SOL     OW56192  12.428   8.499   7.335
51432SOL    HW156193  12.367   8.431   7.364
51432SOL    HW256194  12.457   8.470   7.248
51433SOL     OW56195  13.751   2.895  14.556
51433SOL    HW156196  13.787   2.857  14.636
51433SOL    HW256197  13.705   2.974  14.585
51434SOL     OW56198   4.817  13.128   7.066
51434SOL    HW156199   4.903  13.138   7.108
51434SOL    HW256200   4.771  13.065   7.120
51435SOL     OW56201  11.595   0.175   5.384
51435SOL    HW156202  11.682   0.208   5.363
51435SOL    HW256203  11.535   0.231   5.335
51436SOL     OW56204   2.202   6.504   4.961
51436SOL    HW156205   2.229   6.517   4.870
51436SOL    HW256206   2.107   6.514   4.961
51437SOL     OW56207   5.912  12.925  14.402
51437SOL    HW156208   5.924  12.987  14.474
51437SOL    HW256209   5.958  12.965  14.328
51438SOL     OW56210   7.776   9.311  12.841
51438SOL    HW156211   7.770   9.266  12.926
51438SOL    HW256212   7.722   9.258  12.782
51439SOL     OW56213   9.180  11.261   7.693
51439SOL    HW156214   9.087  11.252   7.674
51439SOL    HW256215   9.201  11.352   7.668
51440SOL     OW56216  12.023   4.249   8.319
51440SOL    HW156217  12.062   4.277   8.236
51440SOL    HW256218  12.003   4.157   8.306
51441SOL     OW56219  10.259   6.979   0.930
51441SOL    HW156220  10.253   7.073   0.913
51441SOL    HW256221  10.329   6.970   0.994
51442SOL     OW56222  11.274   7.834  12.131
51442SOL    HW156223  11.348   7.889  12.156
51442SOL    HW256224  11.232   7.881  12.058
51443SOL     OW56225  11.278   5.714   5.042
51443SOL    HW156226  11.209   5.648   5.043
51443SOL    HW256227  11.332   5.691   4.966
51444SOL     OW56228   8.937   3.463  13.889
51444SOL    HW156229   8.987   3.458  13.808
51444SOL    HW256230   8.924   3.557  13.904
51445SOL     OW56231   4.045   6.275   0.007
51445SOL    HW156232   4.021   6.182   0.006
51445SOL    HW256233   4.028   6.305  14.786
51446SOL     OW56234   3.831   6.726   6.172
51446SOL    HW156235   3.792   6.733   6.085
51446SOL    HW256236   3.912   6.677   6.158
51447SOL     OW56237   9.680   4.395   7.793
51447SOL    HW156238   9.642   4.387   7.705
51447SOL    HW256239   9.774   4.382   7.779
51448SOL     OW56240   1.566   0.808  12.413
51448SOL    HW156241   1.514   0.759  12.350
51448SOL    HW256242   1.568   0.898  12.379
51449SOL     OW56243  10.068   5.853   6.014
51449SOL    HW156244  10.080   5.938   6.056
51449SOL    HW256245  10.140   5.800   6.046
51450SOL     OW56246  13.583   6.444   1.363
51450SOL    HW156247  13.594   6.365   1.310
51450SOL    HW256248  13.532   6.415   1.439
51451SOL     OW56249   7.969   2.814  13.572
51451SOL    HW156250   7.877   2.808  13.597
51451SOL    HW256251   8.017   2.811  13.654
51452SOL     OW56252   4.402   1.351  11.173
51452SOL    HW156253   4.391   1.378  11.264
51452SOL    HW256254   4.336   1.400  11.125
51453SOL     OW56255   6.656  14.023  10.746
51453SOL    HW156256   6.596  14.068  10.685
51453SOL    HW256257   6.629  13.931  10.743
51454SOL     OW56258   5.136   1.778  13.362
51454SOL    HW156259   5.099   1.690  13.351
51454SOL    HW256260   5.111   1.825  13.282
51455SOL     OW56261   6.910   2.956   2.786
51455SOL    HW156262   6.905   3.013   2.709
51455SOL    HW256263   7.002   2.927   2.789
51456SOL     OW56264  14.539  11.331   5.799
51456SOL    HW156265  14.588  11.407   5.831
51456SOL    HW256266  14.577  11.312   5.713
51457SOL     OW56267  10.409   1.540  11.724
51457SOL    HW156268  10.433   1.477  11.656
51457SOL    HW256269  10.359   1.490  11.787
51458SOL     OW56270  11.601   9.320   4.278
51458SOL    HW156271  11.586   9.233   4.315
51458SOL    HW256272  11.514   9.352   4.254
51459SOL     OW56273   2.220  11.414  14.766
51459SOL    HW156274   2.207  11.320  14.783
51459SOL    HW256275   2.209  11.422  14.671
51460SOL     OW56276   6.961  13.015   5.720
51460SOL    HW156277   7.039  13.016   5.665
51460SOL    HW256278   6.934  12.923   5.723
51461SOL     OW56279   8.529   4.297   1.657
51461SOL    HW156280   8.542   4.202   1.660
51461SOL    HW256281   8.438   4.308   1.631
51462SOL     OW56282  11.557   6.266  14.684
51462SOL    HW156283  11.548   6.341  14.625
51462SOL    HW256284  11.541   6.302  14.771
51463SOL     OW56285   7.633   5.946  14.642
51463SOL    HW156286   7.628   5.929  14.548
51463SOL    HW256287   7.638   6.041  14.649
51464SOL     OW56288   0.238   3.201  12.874
51464SOL    HW156289   0.305   3.267  12.861
51464SOL    HW256290   0.161   3.249  12.905
51465SOL     OW56291  14.351   0.312   4.426
51465SOL    HW156292  14.322   0.279   4.511
51465SOL    HW256293  14.272   0.311   4.372
51466SOL     OW56294   8.278   9.378  14.660
51466SOL    HW156295   8.294   9.287  14.632
51466SOL    HW256296   8.319   9.383  14.747
51467SOL     OW56297  14.061   6.392   6.923
51467SOL    HW156298  14.022   6.477   6.902
51467SOL    HW256299  14.046   6.381   7.017
51468SOL     OW56300   4.289   9.567   9.254
51468SOL    HW156301   4.325   9.651   9.281
51468SOL    HW256302   4.282   9.573   9.158
51469SOL     OW56303   6.006  13.435   0.493
51469SOL    HW156304   6.021  13.413   0.585
51469SOL    HW256305   6.088  13.413   0.449
51470SOL     OW56306   2.355   2.669   7.312
51470SOL    HW156307   2.351   2.655   7.217
51470SOL    HW256308   2.321   2.589   7.350
51471SOL     OW56309  12.279   1.003  13.089
51471SOL    HW156310  12.310   0.949  13.162
51471SOL    HW256311  12.307   0.956  13.011
51472SOL     OW56312   2.206   1.567   4.270
51472SOL    HW156313   2.242   1.494   4.219
51472SOL    HW256314   2.137   1.603   4.214
51473SOL     OW56315   9.238   3.810  11.039
51473SOL    HW156316   9.295   3.791  11.113
51473SOL    HW256317   9.229   3.726  10.994
51474SOL     OW56318  14.154   7.820   3.570
51474SOL    HW156319  14.110   7.874   3.635
51474SOL    HW256320  14.242   7.856   3.565
51475SOL     OW56321   7.472   1.529  14.802
51475SOL    HW156322   7.552   1.529  14.749
51475SOL    HW256323   7.421   1.456  14.768
51476SOL     OW56324  10.650   6.664   6.958
51476SOL    HW156325  10.679   6.649   6.868
51476SOL    HW256326  10.685   6.590   7.006
51477SOL     OW56327   3.950  13.763   9.907
51477SOL    HW156328   3.868  13.772   9.859
51477SOL    HW256329   4.017  13.757   9.840
51478SOL     OW56330  13.196   8.932   6.627
51478SOL    HW156331  13.143   9.000   6.669
51478SOL    HW256332  13.271   8.979   6.591
51479SOL     OW56333   2.549   7.163   3.574
51479SOL    HW156334   2.559   7.107   3.651
51479SOL    HW256335   2.546   7.252   3.608
51480SOL     OW56336   7.157  12.930   7.835
51480SOL    HW156337   7.139  12.929   7.929
51480SOL    HW256338   7.154  12.838   7.809
51481SOL     OW56339  10.964   2.682   5.087
51481SOL    HW156340  11.001   2.662   5.001
51481SOL    HW256341  11.041   2.697   5.143
51482SOL     OW56342   6.304   2.074  13.770
51482SOL    HW156343   6.339   1.999  13.818
51482SOL    HW256344   6.232   2.038  13.718
51483SOL     OW56345   4.842  12.713   2.765
51483SOL    HW156346   4.855  12.638   2.707
51483SOL    HW256347   4.846  12.677   2.853
51484SOL     OW56348   7.558  10.013  10.059
51484SOL    HW156349   7.549   9.919  10.043
51484SOL    HW256350   7.651  10.031  10.046
51485SOL     OW56351  13.821   0.418  10.771
51485SOL    HW156352  13.733   0.456  10.779
51485SOL    HW256353  13.817   0.339  10.824
51486SOL     OW56354   2.781  13.339  13.791
51486SOL    HW156355   2.792  13.244  13.793
51486SOL    HW256356   2.714  13.357  13.857
51487SOL     OW56357   3.052   9.146  11.609
51487SOL    HW156358   3.005   9.199  11.673
51487SOL    HW256359   3.145   9.162  11.629
51488SOL     OW56360   4.817  10.575   8.605
51488SOL    HW156361   4.818  10.669   8.623
51488SOL    HW256362   4.724  10.552   8.601
51489SOL     OW56363   3.293  10.227  10.918
51489SOL    HW156364   3.384  10.258  10.912
51489SOL    HW256365   3.288  10.157  10.852
51490SOL     OW56366   0.874  12.210   0.631
51490SOL    HW156367   0.842  12.265   0.559
51490SOL    HW256368   0.900  12.128   0.588
51491SOL     OW56369   5.147   1.842   4.758
51491SOL    HW156370   5.233   1.804   4.738
51491SOL    HW256371   5.125   1.806   4.844
51492SOL     OW56372  11.952  11.187   9.506
51492SOL    HW156373  11.884  11.125   9.534
51492SOL    HW256374  11.948  11.186   9.411
51493SOL     OW56375   2.636   9.349   1.010
51493SOL    HW156376   2.708   9.338   1.073
51493SOL    HW256377   2.660   9.428   0.961
51494SOL     OW56378   7.042   9.342  14.421
51494SOL    HW156379   7.109   9.274  14.419
51494SOL    HW256380   7.084   9.417  14.378
51495SOL     OW56381  11.293  12.437   8.407
51495SOL    HW156382  11.221  12.395   8.455
51495SOL    HW256383  11.348  12.365   8.378
51496SOL     OW56384   8.500   6.430   5.601
51496SOL    HW156385   8.577   6.410   5.655
51496SOL    HW256386   8.429   6.443   5.664
51497SOL     OW56387   0.597   9.730   8.810
51497SOL    HW156388   0.519   9.704   8.761
51497SOL    HW256389   0.617   9.653   8.864
51498SOL     OW56390  12.098   4.597   4.470
51498SOL    HW156391  12.016   4.620   4.514
51498SOL    HW256392  12.076   4.598   4.377
51499SOL     OW56393  10.004  11.794   7.902
51499SOL    HW156394  10.033  11.711   7.940
51499SOL    HW256395  10.083  11.848   7.897
51500SOL     OW56396  14.637   8.557   3.487
51500SOL    HW156397  14.595   8.544   3.572
51500SOL    HW256398  14.581   8.513   3.424
51501SOL     OW56399  12.088   2.647   9.888
51501SOL    HW156400  12.172   2.661   9.932
51501SOL    HW256401  12.044   2.731   9.895
51502SOL     OW56402   3.070  13.577   7.349
51502SOL    HW156403   3.097  13.510   7.411
51502SOL    HW256404   3.151  13.623   7.326
51503SOL     OW56405   8.843   4.118   8.686
51503SOL    HW156406   8.858   4.028   8.654
51503SOL    HW256407   8.847   4.110   8.781
51504SOL     OW56408   7.685   5.090  14.106
51504SOL    HW156409   7.692   5.081  14.011
51504SOL    HW256410   7.661   5.002  14.137
51505SOL     OW56411   5.786   5.872  10.981
51505SOL    HW156412   5.881   5.868  10.976
51505SOL    HW256413   5.760   5.923  10.904
51506SOL     OW56414  12.211   5.543   3.820
51506SOL    HW156415  12.117   5.540   3.802
51506SOL    HW256416  12.230   5.635   3.835
51507SOL     OW56417  10.875  13.646  11.897
51507SOL    HW156418  10.960  13.648  11.853
51507SOL    HW256419  10.825  13.579  11.850
51508SOL     OW56420   3.234   7.220   7.637
51508SOL    HW156421   3.147   7.258   7.629
51508SOL    HW256422   3.294   7.294   7.641
51509SOL     OW56423   5.736   0.520   9.030
51509SOL    HW156424   5.688   0.459   8.975
51509SOL    HW256425   5.758   0.593   8.973
51510SOL     OW56426   9.432  14.717   2.657
51510SOL    HW156427   9.512  14.694   2.704
51510SOL    HW256428   9.362  14.674   2.706
51511SOL     OW56429  12.009   3.690  13.311
51511SOL    HW156430  12.023   3.658  13.222
51511SOL    HW256431  11.929   3.646  13.341
51512SOL     OW56432  12.755   8.410   5.621
51512SOL    HW156433  12.666   8.443   5.634
51512SOL    HW256434  12.798   8.477   5.568
51513SOL     OW56435   1.441   7.190   6.295
51513SOL    HW156436   1.502   7.165   6.226
51513SOL    HW256437   1.368   7.129   6.285
51514SOL     OW56438   8.617  10.752   2.916
51514SOL    HW156439   8.661  10.757   3.001
51514SOL    HW256440   8.652  10.672   2.876
51515SOL     OW56441   0.080   0.358  10.988
51515SOL    HW156442   0.121   0.370  11.074
51515SOL    HW256443   0.122   0.279  10.953
51516SOL     OW56444  12.802   3.612   3.944
51516SOL    HW156445  12.719   3.657   3.928
51516SOL    HW256446  12.784   3.555   4.019
51517SOL     OW56447   2.918   0.265   3.017
51517SOL    HW156448   2.981   0.203   3.053
51517SOL    HW256449   2.920   0.339   3.078
51518SOL     OW56450  12.603   4.469  10.540
51518SOL    HW156451  12.638   4.475  10.629
51518SOL    HW256452  12.680   4.476  10.484
51519SOL     OW56453   0.803   6.699  10.062
51519SOL    HW156454   0.708   6.689  10.052
51519SOL    HW256455   0.814   6.739  10.148
51520SOL     OW56456   2.989   9.703   8.562
51520SOL    HW156457   3.081   9.680   8.574
51520SOL    HW256458   2.956   9.639   8.498
51521SOL     OW56459   0.685   7.632   3.503
51521SOL    HW156460   0.672   7.550   3.552
51521SOL    HW256461   0.666   7.609   3.412
51522SOL     OW56462   0.053   8.416   1.588
51522SOL    HW156463  14.832   8.382   1.579
51522SOL    HW256464   0.047   8.507   1.558
51523SOL     OW56465   6.826  13.450   1.696
51523SOL    HW156466   6.757  13.505   1.659
51523SOL    HW256467   6.822  13.467   1.790
51524SOL     OW56468   7.982  12.092   6.572
51524SOL    HW156469   7.919  12.037   6.524
51524SOL    HW256470   8.060  12.037   6.580
51525SOL     OW56471   0.132  13.176   8.791
51525SOL    HW156472   0.135  13.256   8.739
51525SOL    HW256473   0.186  13.114   8.743
51526SOL     OW56474  12.102   1.146   1.667
51526SOL    HW156475  12.138   1.132   1.579
51526SOL    HW256476  12.013   1.113   1.661
51527SOL     OW56477   1.274   7.977  13.987
51527SOL    HW156478   1.239   8.062  13.958
51527SOL    HW256479   1.349   8.000  14.043
51528SOL     OW56480  13.586   5.118   8.774
51528SOL    HW156481  13.523   5.074   8.830
51528SOL    HW256482  13.568   5.084   8.686
51529SOL     OW56483  11.451  11.117  14.113
51529SOL    HW156484  11.512  11.185  14.142
51529SOL    HW256485  11.365  11.160  14.112
51530SOL     OW56486   7.928   6.979   3.733
51530SOL    HW156487   8.015   6.964   3.696
51530SOL    HW256488   7.876   7.011   3.660
51531SOL     OW56489  10.678  12.757   8.491
51531SOL    HW156490  10.765  12.739   8.526
51531SOL    HW256491  10.690  12.833   8.434
51532SOL     OW56492  14.735   2.526   0.056
51532SOL    HW156493  14.717   2.548  14.833
51532SOL    HW256494  14.660   2.560   0.105
51533SOL     OW56495   5.657   8.312  12.022
51533SOL    HW156496   5.661   8.392  12.073
51533SOL    HW256497   5.563   8.293  12.014
51534SOL     OW56498   6.193   0.084  14.084
51534SOL    HW156499   6.279   0.125  14.094
51534SOL    HW256500   6.144   0.110  14.162
51535SOL     OW56501  12.472   9.145   6.670
51535SOL    HW156502  12.556   9.186   6.654
51535SOL    HW256503  12.493   9.066   6.720
51536SOL     OW56504   2.223  12.967   2.131
51536SOL    HW156505   2.313  12.993   2.149
51536SOL    HW256506   2.225  12.871   2.133
51537SOL     OW56507  10.377   5.335   9.142
51537SOL    HW156508  10.423   5.381   9.212
51537SOL    HW256509  10.438   5.267   9.113
51538SOL     OW56510  13.587   0.335   7.953
51538SOL    HW156511  13.512   0.378   7.911
51538SOL    HW256512  13.653   0.328   7.884
51539SOL     OW56513   0.489   6.594   3.657
51539SOL    HW156514   0.503   6.511   3.702
51539SOL    HW256515   0.424   6.574   3.589
51540SOL     OW56516   7.191  14.040   7.953
51540SOL    HW156517   7.224  13.950   7.949
51540SOL    HW256518   7.144  14.045   8.036
51541SOL     OW56519  10.619   2.908   6.038
51541SOL    HW156520  10.648   2.906   5.946
51541SOL    HW256521  10.604   3.001   6.056
51542SOL     OW56522  11.340   7.861   4.515
51542SOL    HW156523  11.298   7.806   4.582
51542SOL    HW256524  11.433   7.860   4.538
51543SOL     OW56525   1.160   0.204   6.295
51543SOL    HW156526   1.156   0.265   6.221
51543SOL    HW256527   1.253   0.186   6.306
51544SOL     OW56528   2.784   7.589   4.086
51544SOL    HW156529   2.860   7.558   4.135
51544SOL    HW256530   2.760   7.672   4.128
51545SOL     OW56531  14.729   0.121   4.406
51545SOL    HW156532  14.723   0.213   4.430
51545SOL    HW256533  14.675   0.076   4.470
51546SOL     OW56534  10.971   1.088   1.241
51546SOL    HW156535  11.004   1.111   1.154
51546SOL    HW256536  10.976   0.993   1.245
51547SOL     OW56537  14.154   0.415   4.132
51547SOL    HW156538  14.133   0.360   4.208
51547SOL    HW256539  14.223   0.368   4.087
51548SOL     OW56540   4.821   4.828  12.268
51548SOL    HW156541   4.848   4.844  12.178
51548SOL    HW256542   4.860   4.743  12.291
51549SOL     OW56543  14.120  14.833   9.079
51549SOL    HW156544  14.085  14.744   9.089
51549SOL    HW256545  14.214  14.823   9.092
51550SOL     OW56546   2.044  12.160   2.730
51550SOL    HW156547   2.128  12.199   2.705
51550SOL    HW256548   2.065  12.067   2.745
51551SOL     OW56549   8.554   6.169   2.835
51551SOL    HW156550   8.635   6.188   2.882
51551SOL    HW256551   8.581   6.113   2.763
51552SOL     OW56552   2.470   2.146   4.936
51552SOL    HW156553   2.426   2.069   4.899
51552SOL    HW256554   2.534   2.110   4.998
51553SOL     OW56555  12.256   5.579   0.207
51553SOL    HW156556  12.338   5.592   0.159
51553SOL    HW256557  12.280   5.594   0.299
51554SOL     OW56558   1.570  10.178   7.118
51554SOL    HW156559   1.594  10.150   7.207
51554SOL    HW256560   1.620  10.258   7.104
51555SOL     OW56561   8.268   4.591   8.124
51555SOL    HW156562   8.226   4.669   8.086
51555SOL    HW256563   8.325   4.626   8.192
51556SOL     OW56564   1.616  10.117   4.243
51556SOL    HW156565   1.645  10.026   4.251
51556SOL    HW256566   1.534  10.120   4.292
51557SOL     OW56567   2.067   1.449   4.492
51557SOL    HW156568   2.090   1.524   4.548
51557SOL    HW256569   2.105   1.471   4.407
51558SOL     OW56570   5.262   9.669   2.581
51558SOL    HW156571   5.254   9.718   2.500
51558SOL    HW256572   5.347   9.626   2.575
51559SOL     OW56573  13.609  11.013  14.667
51559SOL    HW156574  13.576  10.980  14.751
51559SOL    HW256575  13.551  10.974  14.602
51560SOL     OW56576  11.773   0.769  12.961
51560SOL    HW156577  11.800   0.767  12.869
51560SOL    HW256578  11.709   0.698  12.968
51561SOL     OW56579   5.668   2.414  14.614
51561SOL    HW156580   5.658   2.355  14.689
51561SOL    HW256581   5.749   2.386  14.572
51562SOL     OW56582  14.578  13.179   0.745
51562SOL    HW156583  14.621  13.102   0.782
51562SOL    HW256584  14.504  13.143   0.696
51563SOL     OW56585   2.902   0.386   2.226
51563SOL    HW156586   2.911   0.396   2.321
51563SOL    HW256587   2.981   0.339   2.200
51564SOL     OW56588   8.464  10.823   2.469
51564SOL    HW156589   8.420  10.741   2.449
51564SOL    HW256590   8.453  10.833   2.564
51565SOL     OW56591   2.334   5.228   7.543
51565SOL    HW156592   2.368   5.184   7.621
51565SOL    HW256593   2.278   5.298   7.578
51566SOL     OW56594   7.689   1.488   4.030
51566SOL    HW156595   7.769   1.445   4.059
51566SOL    HW256596   7.703   1.581   4.048
51567SOL     OW56597   8.879  13.288  13.879
51567SOL    HW156598   8.938  13.300  13.805
51567SOL    HW256599   8.932  13.307  13.956
51568SOL     OW56600   0.395  11.059   2.932
51568SOL    HW156601   0.421  11.080   2.842
51568SOL    HW256602   0.300  11.054   2.930
51569SOL     OW56603   0.025   5.168  13.188
51569SOL    HW156604   0.043   5.209  13.272
51569SOL    HW256605   0.096   5.198  13.131
51570SOL     OW56606  14.475   7.368  13.743
51570SOL    HW156607  14.431   7.419  13.676
51570SOL    HW256608  14.532   7.430  13.789
51571SOL     OW56609   0.311   2.303   8.856
51571SOL    HW156610   0.255   2.272   8.927
51571SOL    HW256611   0.390   2.249   8.862
51572SOL     OW56612  10.972  11.699   8.328
51572SOL    HW156613  10.987  11.789   8.359
51572SOL    HW256614  10.952  11.649   8.407
51573SOL     OW56615   4.938   4.413   2.526
51573SOL    HW156616   4.976   4.456   2.602
51573SOL    HW256617   4.984   4.452   2.451
51574SOL     OW56618   7.980  11.458   6.455
51574SOL    HW156619   7.942  11.478   6.540
51574SOL    HW256620   7.928  11.385   6.422
51575SOL     OW56621  11.416   6.270   4.527
51575SOL    HW156622  11.464   6.349   4.503
51575SOL    HW256623  11.463   6.236   4.603
51576SOL     OW56624   6.074   0.597  12.945
51576SOL    HW156625   6.162   0.574  12.915
51576SOL    HW256626   6.052   0.676  12.896
51577SOL     OW56627   9.354  10.752   4.668
51577SOL    HW156628   9.365  10.676   4.611
51577SOL    HW256629   9.313  10.718   4.747
51578SOL     OW56630   0.666   1.845  10.703
51578SOL    HW156631   0.682   1.938  10.715
51578SOL    HW256632   0.636   1.837  10.612
51579SOL     OW56633   1.911   7.220   5.274
51579SOL    HW156634   1.937   7.297   5.224
51579SOL    HW256635   1.932   7.241   5.365
51580SOL     OW56636  13.408   0.287  11.608
51580SOL    HW156637  13.354   0.250  11.678
51580SOL    HW256638  13.389   0.381  11.610
51581SOL     OW56639   3.753  11.970   7.982
51581SOL    HW156640   3.817  12.032   7.948
51581SOL    HW256641   3.672  12.021   7.989
51582SOL     OW56642   0.912   7.350   8.904
51582SOL    HW156643   0.971   7.420   8.878
51582SOL    HW256644   0.945   7.319   8.988
51583SOL     OW56645   9.637   1.816   3.414
51583SOL    HW156646   9.663   1.897   3.371
51583SOL    HW256647   9.599   1.763   3.343
51584SOL     OW56648   2.762   7.582   0.807
51584SOL    HW156649   2.824   7.655   0.811
51584SOL    HW256650   2.770   7.539   0.892
51585SOL     OW56651  12.814  14.433   7.887
51585SOL    HW156652  12.752  14.507   7.887
51585SOL    HW256653  12.873  14.452   7.960
51586SOL     OW56654   0.466  12.244  13.863
51586SOL    HW156655   0.492  12.205  13.947
51586SOL    HW256656   0.525  12.319  13.851
51587SOL     OW56657   6.142  14.227   8.299
51587SOL    HW156658   6.080  14.298   8.316
51587SOL    HW256659   6.104  14.179   8.226
51588SOL     OW56660   3.532  11.257   2.133
51588SOL    HW156661   3.479  11.231   2.209
51588SOL    HW256662   3.546  11.175   2.085
51589SOL     OW56663  10.363   1.716   8.915
51589SOL    HW156664  10.347   1.772   8.992
51589SOL    HW256665  10.276   1.699   8.880
51590SOL     OW56666   6.728   4.645   3.620
51590SOL    HW156667   6.654   4.659   3.561
51590SOL    HW256668   6.718   4.555   3.650
51591SOL     OW56669   1.863   6.788  13.999
51591SOL    HW156670   1.952   6.788  14.036
51591SOL    HW256671   1.827   6.873  14.024
51592SOL     OW56672   6.002  13.018  12.490
51592SOL    HW156673   6.012  12.963  12.412
51592SOL    HW256674   6.047  13.100  12.468
51593SOL     OW56675  11.339   0.018  10.144
51593SOL    HW156676  11.277   0.036  10.073
51593SOL    HW256677  11.422   0.051  10.112
51594SOL     OW56678   2.220   2.076  11.380
51594SOL    HW156679   2.156   2.139  11.346
51594SOL    HW256680   2.283   2.064  11.309
51595SOL     OW56681   3.060  10.098  11.370
51595SOL    HW156682   3.143  10.051  11.365
51595SOL    HW256683   3.044  10.127  11.280
51596SOL     OW56684   5.859  12.256   8.380
51596SOL    HW156685   5.803  12.197   8.429
51596SOL    HW256686   5.932  12.202   8.351
51597SOL     OW56687   6.780   0.397  11.165
51597SOL    HW156688   6.872   0.386  11.138
51597SOL    HW256689   6.733   0.414  11.083
51598SOL     OW56690   8.302   8.641   0.832
51598SOL    HW156691   8.269   8.552   0.845
51598SOL    HW256692   8.250   8.694   0.892
51599SOL     OW56693  14.594   7.268  13.148
51599SOL    HW156694  14.564   7.179  13.130
51599SOL    HW256695  14.593   7.275  13.243
51600SOL     OW56696  11.302   6.435   6.064
51600SOL    HW156697  11.312   6.397   5.977
51600SOL    HW256698  11.391   6.460   6.090
51601SOL     OW56699   1.347  13.639  11.226
51601SOL    HW156700   1.370  13.715  11.279
51601SOL    HW256701   1.262  13.612  11.260
51602SOL     OW56702  12.170  12.594   0.160
51602SOL    HW156703  12.141  12.583   0.069
51602SOL    HW256704  12.265  12.605   0.153
51603SOL     OW56705   2.815   8.670  13.593
51603SOL    HW156706   2.813   8.603  13.525
51603SOL    HW256707   2.908   8.690  13.604
51604SOL     OW56708  12.440   2.046   4.758
51604SOL    HW156709  12.472   2.128   4.796
51604SOL    HW256710  12.517   2.005   4.720
51605SOL     OW56711   5.098   6.620   3.026
51605SOL    HW156712   5.053   6.696   3.063
51605SOL    HW256713   5.189   6.649   3.015
51606SOL     OW56714  11.268   9.343   6.133
51606SOL    HW156715  11.324   9.419   6.145
51606SOL    HW256716  11.315   9.287   6.071
51607SOL     OW56717   0.666  13.047  11.957
51607SOL    HW156718   0.598  12.982  11.976
51607SOL    HW256719   0.624  13.131  11.977
51608SOL     OW56720   2.137  13.032   4.445
51608SOL    HW156721   2.079  13.070   4.512
51608SOL    HW256722   2.148  13.102   4.380
51609SOL     OW56723   9.000  13.613  10.044
51609SOL    HW156724   8.983  13.535  10.097
51609SOL    HW256725   9.025  13.579   9.958
51610SOL     OW56726  13.226   3.404  10.555
51610SOL    HW156727  13.167   3.458  10.502
51610SOL    HW256728  13.196   3.315  10.539
51611SOL     OW56729  14.240  11.465   8.879
51611SOL    HW156730  14.174  11.432   8.819
51611SOL    HW256731  14.258  11.554   8.849
51612SOL     OW56732  14.697  14.282   5.877
51612SOL    HW156733  14.612  14.286   5.922
51612SOL    HW256734  14.677  14.250   5.790
51613SOL     OW56735  12.958   3.438   8.950
51613SOL    HW156736  12.922   3.481   9.028
51613SOL    HW256737  13.025   3.379   8.984
51614SOL     OW56738   4.499  13.748   2.434
51614SOL    HW156739   4.527  13.711   2.350
51614SOL    HW256740   4.484  13.672   2.490
51615SOL     OW56741   2.234   6.365   3.789
51615SOL    HW156742   2.241   6.339   3.881
51615SOL    HW256743   2.180   6.297   3.749
51616SOL     OW56744  14.670  10.953  10.778
51616SOL    HW156745  14.747  10.904  10.808
51616SOL    HW256746  14.627  10.983  10.858
51617SOL     OW56747   3.033   9.138  12.896
51617SOL    HW156748   3.045   9.233  12.907
51617SOL    HW256749   2.945   9.129  12.859
51618SOL     OW56750  14.810   8.399   2.095
51618SOL    HW156751  14.862   8.347   2.156
51618SOL    HW256752  14.851   8.383   2.010
51619SOL     OW56753  13.404   6.371  14.274
51619SOL    HW156754  13.412   6.366  14.369
51619SOL    HW256755  13.463   6.442  14.248
51620SOL     OW56756   0.440  10.962  14.323
51620SOL    HW156757   0.471  11.033  14.267
51620SOL    HW256758   0.469  10.987  14.411
51621SOL     OW56759  12.047   3.679  14.200
51621SOL    HW156760  12.126   3.677  14.145
51621SOL    HW256761  12.034   3.771  14.220
51622SOL     OW56762   9.841  10.080   1.389
51622SOL    HW156763   9.820  10.073   1.482
51622SOL    HW256764   9.844  10.174   1.372
51623SOL     OW56765   0.638   6.339  11.054
51623SOL    HW156766   0.564   6.320  10.996
51623SOL    HW256767   0.603   6.401  11.119
51624SOL     OW56768  14.669   9.025  13.637
51624SOL    HW156769  14.637   8.987  13.719
51624SOL    HW256770  14.744   8.970  13.613
51625SOL     OW56771  13.790   4.860  10.939
51625SOL    HW156772  13.722   4.885  11.002
51625SOL    HW256773  13.872   4.867  10.988
51626SOL     OW56774   2.912   5.866   6.151
51626SOL    HW156775   2.917   5.829   6.062
51626SOL    HW256776   3.003   5.886   6.174
51627SOL     OW56777   6.157   8.559  13.353
51627SOL    HW156778   6.152   8.469  13.385
51627SOL    HW256779   6.089   8.565  13.286
51628SOL     OW56780   8.463  12.993   5.573
51628SOL    HW156781   8.465  12.970   5.666
51628SOL    HW256782   8.430  13.083   5.571
51629SOL     OW56783   3.918   1.922  11.590
51629SOL    HW156784   3.933   2.016  11.595
51629SOL    HW256785   3.915   1.903  11.497
51630SOL     OW56786  14.527  14.404   4.880
51630SOL    HW156787  14.493  14.315   4.888
51630SOL    HW256788  14.527  14.438   4.969
51631SOL     OW56789   1.284  13.184   3.549
51631SOL    HW156790   1.201  13.138   3.562
51631SOL    HW256791   1.285  13.251   3.617
51632SOL     OW56792   4.042   1.608  12.797
51632SOL    HW156793   4.020   1.610  12.891
51632SOL    HW256794   4.043   1.515  12.775
51633SOL     OW56795   2.287   8.020   5.716
51633SOL    HW156796   2.350   8.032   5.645
51633SOL    HW256797   2.202   8.015   5.672
51634SOL     OW56798   7.722   5.487   0.388
51634SOL    HW156799   7.722   5.556   0.322
51634SOL    HW256800   7.630   5.475   0.411
51635SOL     OW56801   2.637   9.362  12.374
51635SOL    HW156802   2.597   9.283  12.411
51635SOL    HW256803   2.635   9.348  12.279
51636SOL     OW56804   7.724   6.064   7.958
51636SOL    HW156805   7.680   6.100   7.880
51636SOL    HW256806   7.741   5.973   7.935
51637SOL     OW56807   7.276   8.701  13.970
51637SOL    HW156808   7.194   8.660  13.944
51637SOL    HW256809   7.316   8.638  14.030
51638SOL     OW56810   0.707   6.145   4.072
51638SOL    HW156811   0.629   6.120   4.121
51638SOL    HW256812   0.747   6.062   4.047
51639SOL     OW56813   7.717   2.368   6.112
51639SOL    HW156814   7.760   2.405   6.034
51639SOL    HW256815   7.754   2.280   6.119
51640SOL     OW56816  13.938   2.791   7.714
51640SOL    HW156817  13.874   2.834   7.658
51640SOL    HW256818  13.965   2.858   7.777
51641SOL     OW56819   2.732   4.189   0.333
51641SOL    HW156820   2.712   4.176   0.426
51641SOL    HW256821   2.715   4.103   0.293
51642SOL     OW56822   0.835   1.845   5.036
51642SOL    HW156823   0.897   1.823   5.105
51642SOL    HW256824   0.797   1.928   5.063
51643SOL     OW56825   7.340   9.332   2.798
51643SOL    HW156826   7.255   9.329   2.753
51643SOL    HW256827   7.328   9.277   2.875
51644SOL     OW56828   8.780  11.634   2.367
51644SOL    HW156829   8.859  11.580   2.358
51644SOL    HW256830   8.733  11.621   2.285
51645SOL     OW56831   6.483   2.658   3.362
51645SOL    HW156832   6.561   2.679   3.310
51645SOL    HW256833   6.472   2.563   3.351
51646SOL     OW56834   4.244   3.517  13.670
51646SOL    HW156835   4.315   3.490  13.611
51646SOL    HW256836   4.285   3.577  13.731
51647SOL     OW56837   7.217  10.232   2.329
51647SOL    HW156838   7.187  10.322   2.340
51647SOL    HW256839   7.311  10.236   2.344
51648SOL     OW56840  10.706   5.560   1.409
51648SOL    HW156841  10.723   5.480   1.359
51648SOL    HW256842  10.619   5.588   1.380
51649SOL     OW56843  12.157   3.219   7.443
51649SOL    HW156844  12.244   3.205   7.407
51649SOL    HW256845  12.135   3.136   7.486
51650SOL     OW56846   3.467   0.750   8.664
51650SOL    HW156847   3.445   0.833   8.621
51650SOL    HW256848   3.553   0.727   8.629
51651SOL     OW56849  12.474   5.973   2.295
51651SOL    HW156850  12.569   5.967   2.294
51651SOL    HW256851  12.445   5.895   2.342
51652SOL     OW56852  12.293  14.381   4.931
51652SOL    HW156853  12.199  14.373   4.951
51652SOL    HW256854  12.308  14.315   4.864
51653SOL     OW56855  12.446  12.784  14.086
51653SOL    HW156856  12.485  12.721  14.026
51653SOL    HW256857  12.429  12.861  14.032
51654SOL     OW56858   5.024  13.810   3.121
51654SOL    HW156859   5.010  13.731   3.174
51654SOL    HW256860   4.997  13.785   3.033
51655SOL     OW56861   5.380   4.742   8.420
51655SOL    HW156862   5.458   4.715   8.470
51655SOL    HW256863   5.373   4.678   8.350
51656SOL     OW56864  10.168   1.010  10.811
51656SOL    HW156865  10.154   1.079  10.747
51656SOL    HW256866  10.088   0.958  10.808
51657SOL     OW56867   9.112   1.914   7.598
51657SOL    HW156868   9.039   1.945   7.651
51657SOL    HW256869   9.120   1.979   7.528
51658SOL     OW56870   9.926   1.998  14.187
51658SOL    HW156871   9.834   2.000  14.214
51658SOL    HW256872   9.923   1.967  14.096
51659SOL     OW56873   5.381   8.098  13.685
51659SOL    HW156874   5.404   8.104  13.592
51659SOL    HW256875   5.417   8.014  13.713
51660SOL     OW56876   0.067   4.584   6.790
51660SOL    HW156877   0.047   4.656   6.850
51660SOL    HW256878   0.088   4.510   6.847
51661SOL     OW56879  12.642   1.404  13.161
51661SOL    HW156880  12.680   1.317  13.147
51661SOL    HW256881  12.599   1.398  13.247
51662SOL     OW56882   0.472   7.258   5.383
51662SOL    HW156883   0.563   7.246   5.412
51662SOL    HW256884   0.437   7.324   5.443
51663SOL     OW56885  11.444   9.245   0.848
51663SOL    HW156886  11.513   9.263   0.911
51663SOL    HW256887  11.441   9.149   0.842
51664SOL     OW56888   5.309   9.333  11.780
51664SOL    HW156889   5.249   9.378  11.720
51664SOL    HW256890   5.331   9.399  11.846
51665SOL     OW56891   5.715   2.677  11.710
51665SOL    HW156892   5.680   2.719  11.632
51665SOL    HW256893   5.643   2.621  11.741
51666SOL     OW56894   0.454  13.196   5.379
51666SOL    HW156895   0.413  13.270   5.333
51666SOL    HW256896   0.381  13.142   5.408
51667SOL     OW56897   1.950   1.477  11.426
51667SOL    HW156898   2.011   1.428  11.370
51667SOL    HW256899   1.865   1.466  11.383
51668SOL     OW56900   9.067  13.416  12.456
51668SOL    HW156901   9.141  13.472  12.435
51668SOL    HW256902   9.006  13.473  12.502
51669SOL     OW56903   5.103  12.712   0.053
51669SOL    HW156904   5.154  12.769  14.863
51669SOL    HW256905   5.094  12.762   0.134
51670SOL     OW56906   1.229  11.681   5.424
51670SOL    HW156907   1.270  11.594   5.425
51670SOL    HW256908   1.254  11.718   5.339
51671SOL     OW56909   6.545   1.533   2.142
51671SOL    HW156910   6.467   1.539   2.086
51671SOL    HW256911   6.546   1.442   2.170
51672SOL     OW56912   3.220   9.196   5.302
51672SOL    HW156913   3.198   9.190   5.395
51672SOL    HW256914   3.314   9.176   5.298
51673SOL     OW56915   6.955  10.816  14.323
51673SOL    HW156916   6.969  10.901  14.364
51673SOL    HW256917   7.042  10.790  14.292
51674SOL     OW56918   0.515   4.389   4.438
51674SOL    HW156919   0.466   4.434   4.508
51674SOL    HW256920   0.495   4.439   4.359
51675SOL     OW56921   7.726   5.044   8.287
51675SOL    HW156922   7.693   5.109   8.348
51675SOL    HW256923   7.682   4.962   8.312
51676SOL     OW56924  12.613   0.687  14.732
51676SOL    HW156925  12.590   0.606  14.686
51676SOL    HW256926  12.673   0.659  14.801
51677SOL     OW56927  10.502  13.717   9.933
51677SOL    HW156928  10.574  13.751   9.880
51677SOL    HW256929  10.540  13.646   9.983
51678SOL     OW56930  11.423   9.198  13.861
51678SOL    HW156931  11.411   9.259  13.788
51678SOL    HW256932  11.371   9.122  13.838
51679SOL     OW56933  13.109   2.246   2.549
51679SOL    HW156934  13.180   2.229   2.487
51679SOL    HW256935  13.067   2.160   2.561
51680SOL     OW56936   4.010   1.172   3.607
51680SOL    HW156937   3.990   1.080   3.592
51680SOL    HW256938   3.936   1.205   3.657
51681SOL     OW56939  12.763   8.300  10.479
51681SOL    HW156940  12.730   8.250  10.404
51681SOL    HW256941  12.775   8.389  10.446
51682SOL     OW56942   1.082   3.094   3.857
51682SOL    HW156943   1.082   3.141   3.773
51682SOL    HW256944   1.124   3.155   3.918
51683SOL     OW56945   5.163   6.069   4.361
51683SOL    HW156946   5.076   6.086   4.326
51683SOL    HW256947   5.162   5.975   4.381
51684SOL     OW56948   1.002  14.494   7.716
51684SOL    HW156949   0.940  14.551   7.761
51684SOL    HW256950   1.070  14.552   7.683
51685SOL     OW56951   7.333   3.664   2.015
51685SOL    HW156952   7.294   3.577   2.023
51685SOL    HW256953   7.280   3.708   1.948
51686SOL     OW56954   2.649  14.487   1.500
51686SOL    HW156955   2.707  14.533   1.561
51686SOL    HW256956   2.704  14.466   1.425
51687SOL     OW56957   5.537  11.710  13.216
51687SOL    HW156958   5.582  11.698  13.132
51687SOL    HW256959   5.484  11.789  13.203
51688SOL     OW56960   7.011   0.744   8.785
51688SOL    HW156961   7.048   0.823   8.748
51688SOL    HW256962   7.086   0.689   8.806
51689SOL     OW56963   0.846   3.751   3.404
51689SOL    HW156964   0.884   3.701   3.332
51689SOL    HW256965   0.921   3.786   3.452
51690SOL     OW56966   5.268   5.440   4.137
51690SOL    HW156967   5.215   5.379   4.086
51690SOL    HW256968   5.358   5.412   4.124
51691SOL     OW56969   0.953   4.540   8.370
51691SOL    HW156970   0.972   4.518   8.279
51691SOL    HW256971   0.907   4.623   8.366
51692SOL     OW56972   7.389   8.843  13.333
51692SOL    HW156973   7.461   8.866  13.391
51692SOL    HW256974   7.315   8.894  13.365
51693SOL     OW56975  10.527   9.610  14.334
51693SOL    HW156976  10.554   9.667  14.406
51693SOL    HW256977  10.599   9.547  14.326
51694SOL     OW56978   1.077   2.114  12.708
51694SOL    HW156979   1.144   2.127  12.775
51694SOL    HW256980   0.994   2.115  12.756
51695SOL     OW56981  13.493   2.141   6.306
51695SOL    HW156982  13.518   2.097   6.225
51695SOL    HW256983  13.576   2.163   6.348
51696SOL     OW56984   3.283   3.459   5.619
51696SOL    HW156985   3.232   3.495   5.546
51696SOL    HW256986   3.281   3.527   5.685
51697SOL     OW56987   2.141  11.643   1.155
51697SOL    HW156988   2.127  11.734   1.180
51697SOL    HW256989   2.236  11.630   1.163
51698SOL     OW56990  10.566   0.450   6.948
51698SOL    HW156991  10.509   0.415   6.880
51698SOL    HW256992  10.623   0.376   6.973
51699SOL     OW56993  14.486   2.480   6.263
51699SOL    HW156994  14.440   2.442   6.338
51699SOL    HW256995  14.511   2.404   6.210
51700SOL     OW56996   0.732   9.401   1.018
51700SOL    HW156997   0.687   9.317   1.025
51700SOL    HW256998   0.820   9.383   1.052
51701SOL     OW56999   7.494   9.752   0.844
51701SOL    HW157000   7.453   9.761   0.758
51701SOL    HW257001   7.475   9.662   0.870
51702SOL     OW57002   8.404   4.334   4.105
51702SOL    HW157003   8.400   4.241   4.124
51702SOL    HW257004   8.329   4.350   4.048
51703SOL     OW57005  13.628   8.338   1.924
51703SOL    HW157006  13.539   8.334   1.961
51703SOL    HW257007  13.645   8.431   1.912
51704SOL     OW57008   8.954   0.144  12.903
51704SOL    HW157009   8.883   0.083  12.883
51704SOL    HW257010   8.961   0.199  12.825
51705SOL     OW57011  11.069   1.828   1.718
51705SOL    HW157012  11.119   1.890   1.771
51705SOL    HW257013  11.002   1.881   1.675
51706SOL     OW57014   9.445   2.221   2.010
51706SOL    HW157015   9.380   2.152   2.022
51706SOL    HW257016   9.396   2.303   2.016
51707SOL     OW57017  11.024  10.033   0.065
51707SOL    HW157018  10.934  10.066   0.069
51707SOL    HW257019  11.015   9.942   0.037
51708SOL     OW57020   1.578   6.357   3.289
51708SOL    HW157021   1.642   6.390   3.352
51708SOL    HW257022   1.513   6.313   3.343
51709SOL     OW57023  11.903  10.078   8.678
51709SOL    HW157024  11.993  10.084   8.707
51709SOL    HW257025  11.905  10.012   8.608
51710SOL     OW57026   7.162   9.300   4.259
51710SOL    HW157027   7.150   9.363   4.330
51710SOL    HW257028   7.078   9.297   4.214
51711SOL     OW57029  11.947   5.829   4.436
51711SOL    HW157030  11.972   5.885   4.510
51711SOL    HW257031  11.930   5.890   4.365
51712SOL     OW57032  11.724   4.252   1.610
51712SOL    HW157033  11.756   4.289   1.693
51712SOL    HW257034  11.800   4.258   1.551
51713SOL     OW57035   9.410   7.661   8.300
51713SOL    HW157036   9.359   7.592   8.342
51713SOL    HW257037   9.389   7.740   8.350
51714SOL     OW57038   3.800   1.368  10.819
51714SOL    HW157039   3.848   1.297  10.776
51714SOL    HW257040   3.732   1.392  10.757
51715SOL     OW57041   1.567   7.311   5.037
51715SOL    HW157042   1.524   7.281   4.957
51715SOL    HW257043   1.614   7.390   5.012
51716SOL     OW57044   6.749   7.788   7.512
51716SOL    HW157045   6.667   7.741   7.530
51716SOL    HW257046   6.750   7.859   7.577
51717SOL     OW57047  13.767  10.490   9.833
51717SOL    HW157048  13.846  10.538   9.808
51717SOL    HW257049  13.797  10.401   9.851
51718SOL     OW57050  13.621   2.594   9.622
51718SOL    HW157051  13.612   2.682   9.660
51718SOL    HW257052  13.532   2.560   9.620
51719SOL     OW57053   3.796   4.564  12.132
51719SOL    HW157054   3.702   4.563  12.151
51719SOL    HW257055   3.817   4.657  12.125
51720SOL     OW57056  10.466   4.510   4.039
51720SOL    HW157057  10.455   4.542   4.129
51720SOL    HW257058  10.403   4.439   4.031
51721SOL     OW57059   2.746  11.143  13.119
51721SOL    HW157060   2.665  11.139  13.169
51721SOL    HW257061   2.793  11.063  13.144
51722SOL     OW57062   9.154   8.965   6.818
51722SOL    HW157063   9.136   8.871   6.823
51722SOL    HW257064   9.247   8.972   6.842
51723SOL     OW57065   1.343  13.588   6.778
51723SOL    HW157066   1.308  13.598   6.690
51723SOL    HW257067   1.292  13.517   6.817
51724SOL     OW57068   4.133  12.814   9.186
51724SOL    HW157069   4.046  12.805   9.147
51724SOL    HW257070   4.193  12.785   9.117
51725SOL     OW57071   9.113   5.888   0.627
51725SOL    HW157072   9.029   5.849   0.603
51725SOL    HW257073   9.114   5.973   0.584
51726SOL     OW57074   1.648  12.703   4.471
51726SOL    HW157075   1.567  12.653   4.473
51726SOL    HW257076   1.715  12.642   4.503
51727SOL     OW57077  13.309   0.832  12.986
51727SOL    HW157078  13.383   0.802  13.039
51727SOL    HW257079  13.262   0.893  13.043
51728SOL     OW57080   9.993  10.991   0.536
51728SOL    HW157081  10.065  10.971   0.476
51728SOL    HW257082   9.956  11.072   0.502
51729SOL     OW57083   9.663   5.058  10.821
51729SOL    HW157084   9.719   5.129  10.789
51729SOL    HW257085   9.579   5.100  10.840
51730SOL     OW57086  10.585  12.458  12.194
51730SOL    HW157087  10.664  12.420  12.233
51730SOL    HW257088  10.517  12.391  12.206
51731SOL     OW57089   8.256   5.058   9.870
51731SOL    HW157090   8.270   5.053   9.775
51731SOL    HW257091   8.189   5.124   9.882
51732SOL     OW57092   7.004   0.353   5.864
51732SOL    HW157093   6.977   0.405   5.788
51732SOL    HW257094   7.094   0.380   5.880
51733SOL     OW57095   0.916  13.243  10.711
51733SOL    HW157096   0.935  13.297  10.634
51733SOL    HW257097   0.998  13.242  10.761
51734SOL     OW57098  11.022   0.155   3.928
51734SOL    HW157099  11.078   0.110   3.991
51734SOL    HW257100  11.018   0.095   3.853
51735SOL     OW57101   6.381  13.317   9.715
51735SOL    HW157102   6.439  13.375   9.765
51735SOL    HW257103   6.433  13.290   9.640
51736SOL     OW57104   0.114  13.413   6.401
51736SOL    HW157105   0.111  13.452   6.488
51736SOL    HW257106   0.079  13.481   6.343
51737SOL     OW57107   4.983   5.955   4.163
51737SOL    HW157108   4.972   5.888   4.231
51737SOL    HW257109   4.898   5.959   4.119
51738SOL     OW57110   0.638  11.901   5.406
51738SOL    HW157111   0.687  11.899   5.489
51738SOL    HW257112   0.666  11.822   5.360
51739SOL     OW57113   7.632   1.914   4.246
51739SOL    HW157114   7.552   1.872   4.216
51739SOL    HW257115   7.650   1.874   4.332
51740SOL     OW57116   4.171   7.096  11.735
51740SOL    HW157117   4.168   7.191  11.728
51740SOL    HW257118   4.234   7.068  11.669
51741SOL     OW57119  10.765  12.291   8.295
51741SOL    HW157120  10.754  12.198   8.317
51741SOL    HW257121  10.740  12.337   8.375
51742SOL     OW57122   8.176   6.027  10.702
51742SOL    HW157123   8.103   6.084  10.728
51742SOL    HW257124   8.176   6.030  10.606
51743SOL     OW57125   0.063  12.694   0.607
51743SOL    HW157126   0.130  12.759   0.629
51743SOL    HW257127   0.109  12.610   0.613
51744SOL     OW57128   2.915  14.572   0.310
51744SOL    HW157129   2.944  14.534   0.227
51744SOL    HW257130   2.820  14.574   0.303
51745SOL     OW57131   1.416   7.455   0.761
51745SOL    HW157132   1.377   7.375   0.799
51745SOL    HW257133   1.466   7.423   0.686
51746SOL     OW57134   6.980   6.244   0.517
51746SOL    HW157135   6.884   6.239   0.513
51746SOL    HW257136   7.006   6.166   0.566
51747SOL     OW57137  12.095  13.348   5.128
51747SOL    HW157138  12.173  13.329   5.076
51747SOL    HW257139  12.079  13.268   5.178
51748SOL     OW57140  10.104   6.565   9.284
51748SOL    HW157141  10.047   6.642   9.291
51748SOL    HW257142  10.087   6.516   9.365
51749SOL     OW57143   3.727  10.320   1.391
51749SOL    HW157144   3.637  10.320   1.422
51749SOL    HW257145   3.765  10.239   1.424
51750SOL     OW57146   8.713  13.000   2.316
51750SOL    HW157147   8.731  12.978   2.408
51750SOL    HW257148   8.624  12.968   2.301
51751SOL     OW57149   2.643   8.050   2.348
51751SOL    HW157150   2.648   8.142   2.371
51751SOL    HW257151   2.663   8.047   2.254
51752SOL     OW57152  10.166   9.444  11.886
51752SOL    HW157153  10.072   9.429  11.893
51752SOL    HW257154  10.206   9.376  11.940
51753SOL     OW57155  14.676  12.723   5.472
51753SOL    HW157156  14.761  12.724   5.516
51753SOL    HW257157  14.633  12.803   5.500
51754SOL     OW57158   0.059  13.241  10.600
51754SOL    HW157159  14.866  13.196  10.542
51754SOL    HW257160   0.128  13.273  10.542
51755SOL     OW57161  11.293   5.480  14.137
51755SOL    HW157162  11.315   5.542  14.206
51755SOL    HW257163  11.349   5.405  14.152
51756SOL     OW57164   6.275  10.295   2.799
51756SOL    HW157165   6.190  10.331   2.774
51756SOL    HW257166   6.257  10.249   2.881
51757SOL     OW57167  14.674   3.533   3.090
51757SOL    HW157168  14.625   3.522   3.008
51757SOL    HW257169  14.717   3.617   3.081
51758SOL     OW57170   6.529   8.132   7.901
51758SOL    HW157171   6.474   8.079   7.959
51758SOL    HW257172   6.594   8.171   7.959
51759SOL     OW57173  11.433   2.144   1.587
51759SOL    HW157174  11.435   2.198   1.666
51759SOL    HW257175  11.384   2.197   1.524
51760SOL     OW57176   9.313   3.242   1.604
51760SOL    HW157177   9.236   3.279   1.561
51760SOL    HW257178   9.293   3.149   1.615
51761SOL     OW57179   7.352  10.320   0.748
51761SOL    HW157180   7.273  10.372   0.760
51761SOL    HW257181   7.335  10.239   0.796
51762SOL     OW57182  14.723   1.965   4.317
51762SOL    HW157183  14.754   1.985   4.405
51762SOL    HW257184  14.730   1.870   4.310
51763SOL     OW57185  11.804   6.064  13.461
51763SOL    HW157186  11.884   6.019  13.433
51763SOL    HW257187  11.793   6.134  13.396
51764SOL     OW57188   3.224   4.283   8.711
51764SOL    HW157189   3.197   4.365   8.668
51764SOL    HW257190   3.273   4.236   8.643
51765SOL     OW57191   5.841  10.641  14.237
51765SOL    HW157192   5.831  10.596  14.321
51765SOL    HW257193   5.835  10.571  14.171
51766SOL     OW57194  11.512   5.403   5.228
51766SOL    HW157195  11.439   5.446   5.273
51766SOL    HW257196  11.544   5.469   5.166
51767SOL     OW57197   6.914   7.330  11.310
51767SOL    HW157198   7.001   7.311  11.346
51767SOL    HW257199   6.857   7.333  11.387
51768SOL     OW57200  12.230   5.249   1.252
51768SOL    HW157201  12.219   5.314   1.182
51768SOL    HW257202  12.304   5.196   1.224
51769SOL     OW57203  10.143   1.892  10.397
51769SOL    HW157204  10.222   1.946  10.395
51769SOL    HW257205  10.119   1.882  10.305
51770SOL     OW57206   1.132   3.335  13.537
51770SOL    HW157207   1.135   3.431  13.544
51770SOL    HW257208   1.199   3.304  13.598
51771SOL     OW57209   0.203  10.860   5.474
51771SOL    HW157210   0.254  10.846   5.394
51771SOL    HW257211   0.157  10.777   5.488
51772SOL     OW57212  12.517   7.499   0.102
51772SOL    HW157213  12.576   7.486   0.176
51772SOL    HW257214  12.430   7.485   0.138
51773SOL     OW57215   7.581   8.896  13.546
51773SOL    HW157216   7.603   8.823  13.604
51773SOL    HW257217   7.520   8.949  13.596
51774SOL     OW57218   3.215   4.130  10.489
51774SOL    HW157219   3.203   4.133  10.584
51774SOL    HW257220   3.160   4.057  10.460
51775SOL     OW57221   0.464   2.852  11.238
51775SOL    HW157222   0.407   2.776  11.246
51775SOL    HW257223   0.549   2.822  11.268
51776SOL     OW57224   7.826  10.414  12.414
51776SOL    HW157225   7.778  10.430  12.495
51776SOL    HW257226   7.760  10.425  12.345
51777SOL     OW57227   9.781   2.501  12.377
51777SOL    HW157228   9.687   2.486  12.369
51777SOL    HW257229   9.810   2.521  12.288
51778SOL     OW57230  14.703  12.025   2.264
51778SOL    HW157231  14.697  12.046   2.357
51778SOL    HW257232  14.767  11.954   2.259
51779SOL     OW57233   9.809  13.253   2.512
51779SOL    HW157234   9.830  13.207   2.431
51779SOL    HW257235   9.836  13.193   2.582
51780SOL     OW57236   7.874   2.007  13.264
51780SOL    HW157237   7.931   1.953  13.209
51780SOL    HW257238   7.809   2.043  13.204
51781SOL     OW57239  10.446  14.444  14.361
51781SOL    HW157240  10.474  14.453  14.270
51781SOL    HW257241  10.527  14.433  14.410
51782SOL     OW57242   9.118  11.320   4.249
51782SOL    HW157243   9.184  11.382   4.282
51782SOL    HW257244   9.117  11.334   4.155
51783SOL     OW57245   6.612   8.516  11.010
51783SOL    HW157246   6.580   8.470  10.933
51783SOL    HW257247   6.572   8.469  11.084
51784SOL     OW57248   1.574   5.298   8.107
51784SOL    HW157249   1.633   5.369   8.132
51784SOL    HW257250   1.608   5.268   8.023
51785SOL     OW57251  12.367   0.095   3.434
51785SOL    HW157252  12.404   0.181   3.417
51785SOL    HW257253  12.290   0.112   3.488
51786SOL     OW57254  10.433  13.452  11.182
51786SOL    HW157255  10.426  13.416  11.271
51786SOL    HW257256  10.346  13.488  11.164
51787SOL     OW57257   1.571  11.402   3.327
51787SOL    HW157258   1.513  11.470   3.361
51787SOL    HW257259   1.577  11.420   3.233
51788SOL     OW57260  12.308   6.346  13.871
51788SOL    HW157261  12.332   6.385  13.955
51788SOL    HW257262  12.387   6.298  13.843
51789SOL     OW57263   0.322   9.412   6.316
51789SOL    HW157264   0.278   9.466   6.250
51789SOL    HW257265   0.279   9.435   6.398
51790SOL     OW57266   4.894   0.794   3.793
51790SOL    HW157267   4.823   0.833   3.743
51790SOL    HW257268   4.926   0.722   3.739
51791SOL     OW57269   4.927   6.191   7.238
51791SOL    HW157270   4.930   6.247   7.316
51791SOL    HW257271   5.012   6.149   7.235
51792SOL     OW57272   6.345  10.986   3.537
51792SOL    HW157273   6.371  10.941   3.618
51792SOL    HW257274   6.286  10.924   3.493
51793SOL     OW57275   2.135   2.908   2.040
51793SOL    HW157276   2.059   2.855   2.016
51793SOL    HW257277   2.209   2.863   1.999
51794SOL     OW57278   1.273   2.893  10.648
51794SOL    HW157279   1.316   2.923  10.728
51794SOL    HW257280   1.343   2.889  10.583
51795SOL     OW57281   2.360   4.643  11.368
51795SOL    HW157282   2.357   4.577  11.298
51795SOL    HW257283   2.409   4.716  11.331
51796SOL     OW57284   0.543   8.720   7.159
51796SOL    HW157285   0.570   8.629   7.172
51796SOL    HW257286   0.624   8.767   7.141
51797SOL     OW57287   6.751  14.281   8.751
51797SOL    HW157288   6.817  14.214   8.735
51797SOL    HW257289   6.703  14.287   8.668
51798SOL     OW57290  14.710   1.099   7.935
51798SOL    HW157291  14.708   1.148   8.017
51798SOL    HW257292  14.649   1.146   7.877
51799SOL     OW57293  12.686   4.544   9.968
51799SOL    HW157294  12.657   4.581  10.051
51799SOL    HW257295  12.710   4.454   9.989
51800SOL     OW57296   3.027   9.235  13.792
51800SOL    HW157297   3.007   9.320  13.832
51800SOL    HW257298   2.941   9.202  13.764
51801SOL     OW57299   9.728  12.416   3.527
51801SOL    HW157300   9.758  12.411   3.618
51801SOL    HW257301   9.801  12.381   3.476
51802SOL     OW57302  14.101   5.892  13.232
51802SOL    HW157303  14.042   5.876  13.159
51802SOL    HW257304  14.051   5.949  13.291
51803SOL     OW57305   7.703  12.273  10.005
51803SOL    HW157306   7.660  12.199   9.963
51803SOL    HW257307   7.726  12.241  10.092
51804SOL     OW57308   5.527   1.371   6.363
51804SOL    HW157309   5.449   1.336   6.408
51804SOL    HW257310   5.582   1.295   6.347
51805SOL     OW57311   2.986  13.099  10.307
51805SOL    HW157312   3.032  13.120  10.226
51805SOL    HW257313   3.017  13.164  10.370
51806SOL     OW57314   9.673   8.520   7.095
51806SOL    HW157315   9.765   8.542   7.086
51806SOL    HW257316   9.672   8.424   7.101
51807SOL     OW57317   8.784   7.798   6.237
51807SOL    HW157318   8.796   7.853   6.315
51807SOL    HW257319   8.849   7.729   6.247
51808SOL     OW57320   4.215  14.520  10.563
51808SOL    HW157321   4.227  14.428  10.587
51808SOL    HW257322   4.123  14.527  10.537
51809SOL     OW57323  14.294   5.274   5.937
51809SOL    HW157324  14.381   5.241   5.914
51809SOL    HW257325  14.266   5.219   6.010
51810SOL     OW57326   7.085   7.970   8.366
51810SOL    HW157327   7.142   7.903   8.329
51810SOL    HW257328   7.095   8.045   8.306
51811SOL     OW57329  12.631   5.165   9.223
51811SOL    HW157330  12.700   5.202   9.168
51811SOL    HW257331  12.672   5.090   9.267
51812SOL     OW57332   2.797  13.619   5.123
51812SOL    HW157333   2.735  13.556   5.160
51812SOL    HW257334   2.743  13.692   5.093
51813SOL     OW57335  12.886   1.956   5.493
51813SOL    HW157336  12.904   1.885   5.430
51813SOL    HW257337  12.922   2.034   5.451
51814SOL     OW57338   1.706   3.321   7.629
51814SOL    HW157339   1.754   3.312   7.712
51814SOL    HW257340   1.726   3.409   7.599
51815SOL     OW57341   8.147  11.752   5.405
51815SOL    HW157342   8.192  11.668   5.398
51815SOL    HW257343   8.180  11.789   5.487
51816SOL     OW57344   8.211   5.307   0.606
51816SOL    HW157345   8.240   5.239   0.666
51816SOL    HW257346   8.117   5.312   0.619
51817SOL     OW57347  10.528   7.682  14.615
51817SOL    HW157348  10.487   7.765  14.637
51817SOL    HW257349  10.579   7.659  14.693
51818SOL     OW57350  10.922  13.764   6.854
51818SOL    HW157351  10.958  13.690   6.806
51818SOL    HW257352  10.879  13.818   6.787
51819SOL     OW57353   4.075   2.809   0.722
51819SOL    HW157354   3.984   2.841   0.724
51819SOL    HW257355   4.111   2.835   0.807
51820SOL     OW57356  12.835  13.909  12.025
51820SOL    HW157357  12.832  13.856  12.104
51820SOL    HW257358  12.843  13.846  11.954
51821SOL     OW57359  14.214   5.418   2.540
51821SOL    HW157360  14.186   5.331   2.570
51821SOL    HW257361  14.134   5.459   2.508
51822SOL     OW57362   1.435  10.969   6.365
51822SOL    HW157363   1.450  11.063   6.376
51822SOL    HW257364   1.350  10.963   6.322
51823SOL     OW57365   1.024   9.999  14.493
51823SOL    HW157366   1.103   9.965  14.536
51823SOL    HW257367   0.956   9.935  14.513
51824SOL     OW57368   1.217   5.265   4.639
51824SOL    HW157369   1.179   5.319   4.709
51824SOL    HW257370   1.279   5.208   4.684
51825SOL     OW57371   2.137  10.567   8.667
51825SOL    HW157372   2.162  10.482   8.703
51825SOL    HW257373   2.195  10.579   8.592
51826SOL     OW57374   8.154   9.012   8.082
51826SOL    HW157375   8.182   9.022   7.991
51826SOL    HW257376   8.059   9.023   8.079
51827SOL     OW57377  10.688   3.650   6.054
51827SOL    HW157378  10.668   3.743   6.042
51827SOL    HW257379  10.624   3.620   6.119
51828SOL     OW57380   7.256   2.577  10.923
51828SOL    HW157381   7.311   2.605  10.997
51828SOL    HW257382   7.184   2.640  10.922
51829SOL     OW57383   3.648   1.517   8.950
51829SOL    HW157384   3.659   1.433   8.905
51829SOL    HW257385   3.569   1.505   9.002
51830SOL     OW57386  14.067   3.855   1.492
51830SOL    HW157387  14.005   3.914   1.449
51830SOL    HW257388  14.108   3.807   1.420
51831SOL     OW57389  13.152   9.007  11.480
51831SOL    HW157390  13.217   9.002  11.550
51831SOL    HW257391  13.139   9.101  11.467
51832SOL     OW57392   0.614   3.587   2.599
51832SOL    HW157393   0.632   3.652   2.667
51832SOL    HW257394   0.583   3.510   2.646
51833SOL     OW57395   2.727  13.343  13.285
51833SOL    HW157396   2.686  13.342  13.198
51833SOL    HW257397   2.791  13.414  13.280
51834SOL     OW57398   8.913   2.563  14.819
51834SOL    HW157399   8.912   2.500   0.023
51834SOL    HW257400   8.883   2.513  14.743
51835SOL     OW57401   6.056   2.485   6.619
51835SOL    HW157402   5.965   2.485   6.589
51835SOL    HW257403   6.106   2.518   6.545
51836SOL     OW57404  13.320   7.634  10.569
51836SOL    HW157405  13.400   7.629  10.517
51836SOL    HW257406  13.347   7.679  10.650
51837SOL     OW57407  13.120   7.818   9.219
51837SOL    HW157408  13.092   7.759   9.289
51837SOL    HW257409  13.172   7.762   9.160
51838SOL     OW57410  11.490  14.542   3.926
51838SOL    HW157411  11.538  14.622   3.904
51838SOL    HW257412  11.496  14.537   4.022
51839SOL     OW57413  11.421   1.038   2.282
51839SOL    HW157414  11.350   1.093   2.249
51839SOL    HW257415  11.497   1.096   2.285
51840SOL     OW57416  13.480   3.958   0.402
51840SOL    HW157417  13.539   3.919   0.338
51840SOL    HW257418  13.517   4.045   0.419
51841SOL     OW57419   9.361   4.070  11.642
51841SOL    HW157420   9.456   4.062  11.633
51841SOL    HW257421   9.336   4.138  11.580
51842SOL     OW57422   9.249  11.507   5.079
51842SOL    HW157423   9.264  11.422   5.038
51842SOL    HW257424   9.156  11.524   5.065
51843SOL     OW57425  12.348   2.943   3.874
51843SOL    HW157426  12.302   3.023   3.900
51843SOL    HW257427  12.431   2.974   3.837
51844SOL     OW57428   5.854   6.339   0.109
51844SOL    HW157429   5.925   6.324   0.172
51844SOL    HW257430   5.831   6.432   0.120
51845SOL     OW57431   5.540   1.310  10.227
51845SOL    HW157432   5.531   1.403  10.205
51845SOL    HW257433   5.634   1.295  10.230
51846SOL     OW57434   2.194   9.940   8.904
51846SOL    HW157435   2.210   9.845   8.902
51846SOL    HW257436   2.188   9.961   8.997
51847SOL     OW57437   6.878  14.861   6.486
51847SOL    HW157438   6.783  14.855   6.498
51847SOL    HW257439   6.904   0.066   6.542
51848SOL     OW57440   3.320   3.944   3.000
51848SOL    HW157441   3.391   3.894   3.041
51848SOL    HW257442   3.283   3.995   3.072
51849SOL     OW57443  11.023   8.998  12.558
51849SOL    HW157444  11.049   9.019  12.647
51849SOL    HW257445  11.057   8.910  12.542
51850SOL     OW57446  10.651   8.340   5.756
51850SOL    HW157447  10.600   8.326   5.676
51850SOL    HW257448  10.595   8.393   5.812
51851SOL     OW57449   7.905   8.944  14.256
51851SOL    HW157450   7.823   8.926  14.211
51851SOL    HW257451   7.898   8.895  14.338
51852SOL     OW57452   4.940  11.859   1.185
51852SOL    HW157453   4.929  11.785   1.246
51852SOL    HW257454   5.016  11.906   1.219
51853SOL     OW57455   7.777   4.612  10.938
51853SOL    HW157456   7.794   4.580  11.027
51853SOL    HW257457   7.820   4.547  10.882
51854SOL     OW57458  11.638  10.281   8.697
51854SOL    HW157459  11.579  10.349   8.667
51854SOL    HW257460  11.719  10.327   8.718
51855SOL     OW57461  13.970   0.074   4.867
51855SOL    HW157462  13.963   0.159   4.910
51855SOL    HW257463  13.929   0.086   4.782
51856SOL     OW57464   7.871   8.894   9.236
51856SOL    HW157465   7.799   8.956   9.249
51856SOL    HW257466   7.898   8.869   9.325
51857SOL     OW57467  14.210   0.056   4.085
51857SOL    HW157468  14.147   0.106   4.034
51857SOL    HW257469  14.295   0.079   4.049
51858SOL     OW57470  14.051   9.037   2.297
51858SOL    HW157471  14.129   9.005   2.343
51858SOL    HW257472  14.008   8.958   2.267
51859SOL     OW57473   5.598   4.851   4.449
51859SOL    HW157474   5.527   4.845   4.512
51859SOL    HW257475   5.654   4.776   4.470
51860SOL     OW57476   8.172  14.248   0.758
51860SOL    HW157477   8.236  14.314   0.785
51860SOL    HW257478   8.166  14.258   0.663
51861SOL     OW57479   8.270   0.108   0.484
51861SOL    HW157480   8.269   0.181   0.546
51861SOL    HW257481   8.362   0.086   0.473
51862SOL     OW57482   4.169   0.020  14.534
51862SOL    HW157483   4.215  14.835  14.469
51862SOL    HW257484   4.095   0.056  14.487
51863SOL     OW57485   9.616   0.879   1.659
51863SOL    HW157486   9.521   0.872   1.665
51863SOL    HW257487   9.637   0.847   1.571
51864SOL     OW57488  10.474   7.330   5.944
51864SOL    HW157489  10.496   7.408   5.893
51864SOL    HW257490  10.379   7.327   5.942
51865SOL     OW57491   9.593  13.568   4.440
51865SOL    HW157492   9.683  13.569   4.407
51865SOL    HW257493   9.570  13.660   4.450
51866SOL     OW57494   7.178  11.571  14.800
51866SOL    HW157495   7.237  11.585  14.726
51866SOL    HW257496   7.218  11.616   0.005
51867SOL     OW57497   0.342   4.618   2.090
51867SOL    HW157498   0.438   4.617   2.087
51867SOL    HW257499   0.317   4.680   2.022
51868SOL     OW57500  12.038  12.879   1.269
51868SOL    HW157501  11.964  12.819   1.270
51868SOL    HW257502  12.049  12.906   1.360
51869SOL     OW57503   4.439   3.505  12.849
51869SOL    HW157504   4.485   3.561  12.912
51869SOL    HW257505   4.367   3.467  12.900
51870SOL     OW57506   0.860  12.512   5.452
51870SOL    HW157507   0.918  12.578   5.488
51870SOL    HW257508   0.915  12.435   5.440
51871SOL     OW57509   6.276   8.408   3.907
51871SOL    HW157510   6.283   8.330   3.852
51871SOL    HW257511   6.355   8.405   3.962
51872SOL     OW57512   2.947   5.077   9.367
51872SOL    HW157513   2.903   5.123   9.296
51872SOL    HW257514   3.035   5.115   9.370
51873SOL     OW57515   6.705   2.223   8.771
51873SOL    HW157516   6.722   2.158   8.839
51873SOL    HW257517   6.718   2.177   8.689
51874SOL     OW57518   0.131  11.480   5.889
51874SOL    HW157519   0.044  11.442   5.876
51874SOL    HW257520   0.116  11.555   5.945
51875SOL     OW57521   4.936   2.849  12.272
51875SOL    HW157522   4.869   2.782  12.285
51875SOL    HW257523   4.896   2.930  12.306
51876SOL     OW57524   4.087   8.460   2.181
51876SOL    HW157525   4.175   8.451   2.144
51876SOL    HW257526   4.076   8.382   2.236
51877SOL     OW57527   9.432   1.402   1.605
51877SOL    HW157528   9.378   1.396   1.526
51877SOL    HW257529   9.423   1.493   1.633
51878SOL     OW57530  11.547   7.803   8.719
51878SOL    HW157531  11.567   7.774   8.808
51878SOL    HW257532  11.584   7.892   8.715
51879SOL     OW57533   9.826   2.396   6.095
51879SOL    HW157534   9.818   2.376   6.188
51879SOL    HW257535   9.913   2.363   6.070
51880SOL     OW57536   5.261   2.599  11.406
51880SOL    HW157537   5.293   2.662  11.342
51880SOL    HW257538   5.224   2.528  11.353
51881SOL     OW57539   2.483   6.179   4.661
51881SOL    HW157540   2.403   6.188   4.712
51881SOL    HW257541   2.464   6.108   4.599
51882SOL     OW57542   3.890   2.405   3.101
51882SOL    HW157543   3.894   2.439   3.190
51882SOL    HW257544   3.846   2.320   3.110
51883SOL     OW57545   1.447  12.615   4.727
51883SOL    HW157546   1.392  12.541   4.754
51883SOL    HW257547   1.421  12.633   4.637
51884SOL     OW57548   7.255  12.379  10.720
51884SOL    HW157549   7.291  12.438  10.786
51884SOL    HW257550   7.207  12.436  10.661
51885SOL     OW57551   8.725   4.449   4.243
51885SOL    HW157552   8.821   4.449   4.235
51885SOL    HW257553   8.696   4.515   4.181
51886SOL     OW57554   4.925   3.342  11.282
51886SOL    HW157555   5.021   3.341  11.277
51886SOL    HW257556   4.900   3.424  11.238
51887SOL     OW57557   7.961   3.622   2.447
51887SOL    HW157558   7.875   3.593   2.417
51887SOL    HW257559   7.942   3.694   2.506
51888SOL     OW57560   9.130   8.548   0.934
51888SOL    HW157561   9.205   8.594   0.971
51888SOL    HW257562   9.098   8.493   1.005
51889SOL     OW57563  11.664   8.428   7.075
51889SOL    HW157564  11.740   8.486   7.078
51889SOL    HW257565  11.698   8.346   7.040
51890SOL     OW57566   9.782  13.812   4.830
51890SOL    HW157567   9.785  13.718   4.811
51890SOL    HW257568   9.800  13.855   4.746
51891SOL     OW57569   7.823  12.765  10.853
51891SOL    HW157570   7.851  12.721  10.934
51891SOL    HW257571   7.834  12.858  10.872
51892SOL     OW57572  13.668   5.752   1.503
51892SOL    HW157573  13.713   5.723   1.424
51892SOL    HW257574  13.694   5.843   1.514
51893SOL     OW57575  12.169  11.277   2.263
51893SOL    HW157576  12.239  11.242   2.208
51893SOL    HW257577  12.162  11.369   2.236
51894SOL     OW57578   9.105   1.840  14.167
51894SOL    HW157579   9.073   1.922  14.204
51894SOL    HW257580   9.158   1.867  14.092
51895SOL     OW57581   5.870  12.959  13.914
51895SOL    HW157582   5.905  12.933  14.000
51895SOL    HW257583   5.913  12.900  13.852
51896SOL     OW57584  10.051   7.421   7.821
51896SOL    HW157585  10.069   7.330   7.800
51896SOL    HW257586  10.133   7.454   7.857
51897SOL     OW57587  14.709  14.293   4.088
51897SOL    HW157588  14.621  14.254   4.079
51897SOL    HW257589  14.699  14.382   4.055
51898SOL     OW57590  12.116   3.024   2.443
51898SOL    HW157591  12.207   3.051   2.434
51898SOL    HW257592  12.095   3.040   2.535
51899SOL     OW57593   1.778  11.651  13.583
51899SOL    HW157594   1.741  11.653  13.495
51899SOL    HW257595   1.749  11.567  13.619
51900SOL     OW57596   5.265   7.018   3.433
51900SOL    HW157597   5.197   7.011   3.365
51900SOL    HW257598   5.228   7.078   3.498
51901SOL     OW57599   4.308   5.414  10.142
51901SOL    HW157600   4.380   5.352  10.148
51901SOL    HW257601   4.319   5.472  10.218
51902SOL     OW57602   6.808  10.439  10.789
51902SOL    HW157603   6.821  10.409  10.699
51902SOL    HW257604   6.721  10.407  10.812
51903SOL     OW57605  14.066   9.563  11.567
51903SOL    HW157606  14.026   9.513  11.496
51903SOL    HW257607  14.121   9.500  11.613
51904SOL     OW57608  13.866   2.637   8.966
51904SOL    HW157609  13.845   2.726   8.939
51904SOL    HW257610  13.858   2.586   8.885
51905SOL     OW57611   7.283   2.357  14.076
51905SOL    HW157612   7.268   2.440  14.121
51905SOL    HW257613   7.218   2.298  14.113
51906SOL     OW57614   1.574   7.057  10.914
51906SOL    HW157615   1.623   7.122  10.862
51906SOL    HW257616   1.502   7.107  10.952
51907SOL     OW57617   4.855   0.076   8.926
51907SOL    HW157618   4.879   0.133   8.999
51907SOL    HW257619   4.775   0.033   8.954
51908SOL     OW57620  11.212   8.049   6.851
51908SOL    HW157621  11.134   7.993   6.848
51908SOL    HW257622  11.277   8.002   6.800
51909SOL     OW57623  10.809  13.796   3.226
51909SOL    HW157624  10.904  13.792   3.230
51909SOL    HW257625  10.781  13.705   3.238
51910SOL     OW57626   7.045   0.378   3.856
51910SOL    HW157627   7.067   0.373   3.950
51910SOL    HW257628   6.986   0.305   3.842
51911SOL     OW57629   9.756   0.571   4.184
51911SOL    HW157630   9.685   0.571   4.119
51911SOL    HW257631   9.774   0.479   4.200
51912SOL     OW57632   6.776   0.915   0.955
51912SOL    HW157633   6.836   0.989   0.946
51912SOL    HW257634   6.750   0.915   1.047
51913SOL     OW57635   4.345   5.140   5.358
51913SOL    HW157636   4.323   5.047   5.352
51913SOL    HW257637   4.287   5.174   5.427
51914SOL     OW57638  13.987   5.427  12.581
51914SOL    HW157639  14.044   5.494  12.619
51914SOL    HW257640  14.009   5.347  12.629
51915SOL     OW57641   3.047  13.388   9.523
51915SOL    HW157642   2.995  13.322   9.570
51915SOL    HW257643   3.001  13.470   9.539
51916SOL     OW57644   9.904   1.747   5.185
51916SOL    HW157645   9.922   1.831   5.228
51916SOL    HW257646   9.901   1.684   5.257
51917SOL     OW57647  11.481   0.894  12.669
51917SOL    HW157648  11.543   0.874  12.600
51917SOL    HW257649  11.423   0.818  12.672
51918SOL     OW57650   7.878  11.880  10.374
51918SOL    HW157651   7.851  11.861  10.464
51918SOL    HW257652   7.937  11.955  10.382
51919SOL     OW57653  11.466   7.462   3.471
51919SOL    HW157654  11.382   7.415   3.469
51919SOL    HW257655  11.447   7.546   3.429
51920SOL     OW57656   6.768   8.615  12.341
51920SOL    HW157657   6.711   8.540  12.358
51920SOL    HW257658   6.815   8.630  12.423
51921SOL     OW57659   8.755   8.013   9.502
51921SOL    HW157660   8.719   8.009   9.591
51921SOL    HW257661   8.681   8.040   9.448
51922SOL     OW57662  11.574   9.653   4.834
51922SOL    HW157663  11.524   9.689   4.907
51922SOL    HW257664  11.650   9.612   4.874
51923SOL     OW57665  11.779   2.501   0.919
51923SOL    HW157666  11.764   2.591   0.948
51923SOL    HW257667  11.844   2.509   0.849
51924SOL     OW57668   9.480   9.590   3.012
51924SOL    HW157669   9.419   9.656   2.980
51924SOL    HW257670   9.443   9.559   3.095
51925SOL     OW57671   0.090   8.743  14.713
51925SOL    HW157672   0.039   8.786  14.644
51925SOL    HW257673   0.159   8.807  14.735
51926SOL     OW57674  13.866   1.564   3.368
51926SOL    HW157675  13.879   1.469   3.366
51926SOL    HW257676  13.951   1.599   3.398
51927SOL     OW57677   8.749   8.295   9.118
51927SOL    HW157678   8.658   8.266   9.121
51927SOL    HW257679   8.771   8.312   9.210
51928SOL     OW57680  11.143   8.209   7.654
51928SOL    HW157681  11.236   8.187   7.650
51928SOL    HW257682  11.098   8.131   7.620
51929SOL     OW57683   3.057   6.941   2.560
51929SOL    HW157684   2.963   6.936   2.543
51929SOL    HW257685   3.071   7.030   2.593
51930SOL     OW57686   7.119  10.613   7.063
51930SOL    HW157687   7.053  10.556   7.023
51930SOL    HW257688   7.167  10.556   7.122
51931SOL     OW57689   3.169   7.774   9.504
51931SOL    HW157690   3.210   7.805   9.424
51931SOL    HW257691   3.202   7.832   9.572
51932SOL     OW57692  11.991   4.762  10.419
51932SOL    HW157693  12.040   4.681  10.426
51932SOL    HW257694  11.945   4.755  10.335
51933SOL     OW57695   0.560   8.291   6.097
51933SOL    HW157696   0.534   8.200   6.111
51933SOL    HW257697   0.550   8.305   6.003
51934SOL     OW57698   4.236   8.608  11.445
51934SOL    HW157699   4.207   8.585  11.533
51934SOL    HW257700   4.299   8.679  11.458
51935SOL     OW57701   1.557   3.754   8.504
51935SOL    HW157702   1.540   3.666   8.537
51935SOL    HW257703   1.622   3.790   8.565
51936SOL     OW57704  12.655   3.443   1.133
51936SOL    HW157705  12.706   3.511   1.177
51936SOL    HW257706  12.589   3.417   1.198
51937SOL     OW57707   5.519   7.714   9.509
51937SOL    HW157708   5.531   7.678   9.597
51937SOL    HW257709   5.516   7.637   9.452
51938SOL     OW57710   3.426  13.608   8.701
51938SOL    HW157711   3.388  13.695   8.714
51938SOL    HW257712   3.350  13.551   8.690
51939SOL     OW57713   5.976  12.455   1.512
51939SOL    HW157714   5.891  12.496   1.492
51939SOL    HW257715   6.017  12.514   1.575
51940SOL     OW57716   7.099  11.794   3.161
51940SOL    HW157717   7.195  11.791   3.163
51940SOL    HW257718   7.072  11.704   3.146
51941SOL     OW57719   2.544   4.289   6.828
51941SOL    HW157720   2.523   4.268   6.919
51941SOL    HW257721   2.504   4.374   6.813
51942SOL     OW57722  12.828  10.819   0.452
51942SOL    HW157723  12.810  10.725   0.457
51942SOL    HW257724  12.822  10.840   0.359
51943SOL     OW57725   4.314   5.316  13.763
51943SOL    HW157726   4.320   5.343  13.855
51943SOL    HW257727   4.405   5.304  13.736
51944SOL     OW57728  13.857   1.571   2.080
51944SOL    HW157729  13.875   1.664   2.097
51944SOL    HW257730  13.835   1.567   1.987
51945SOL     OW57731  10.437  10.431   7.121
51945SOL    HW157732  10.452  10.523   7.142
51945SOL    HW257733  10.354  10.430   7.074
51946SOL     OW57734   0.708  10.709  12.912
51946SOL    HW157735   0.616  10.698  12.887
51946SOL    HW257736   0.724  10.638  12.974
51947SOL     OW57737  12.729   8.119   2.483
51947SOL    HW157738  12.687   8.189   2.434
51947SOL    HW257739  12.674   8.042   2.468
51948SOL     OW57740   2.600   0.989   0.601
51948SOL    HW157741   2.685   1.030   0.616
51948SOL    HW257742   2.618   0.918   0.540
51949SOL     OW57743   6.807   4.787   6.075
51949SOL    HW157744   6.802   4.764   6.168
51949SOL    HW257745   6.884   4.844   6.068
51950SOL     OW57746   1.966  11.116   2.652
51950SOL    HW157747   1.983  11.041   2.708
51950SOL    HW257748   1.891  11.091   2.598
51951SOL     OW57749  11.396   8.710   2.951
51951SOL    HW157750  11.460   8.774   2.919
51951SOL    HW257751  11.431   8.682   3.036
51952SOL     OW57752   1.014   5.284   4.898
51952SOL    HW157753   1.070   5.305   4.972
51952SOL    HW257754   0.965   5.364   4.880
51953SOL     OW57755  14.302   2.463   0.163
51953SOL    HW157756  14.320   2.384   0.112
51953SOL    HW257757  14.374   2.469   0.225
51954SOL     OW57758   7.448  11.727   8.814
51954SOL    HW157759   7.400  11.645   8.818
51954SOL    HW257760   7.488  11.727   8.727
51955SOL     OW57761   6.355   3.819   1.713
51955SOL    HW157762   6.343   3.735   1.669
51955SOL    HW257763   6.444   3.817   1.747
51956SOL     OW57764  12.491  11.955   4.096
51956SOL    HW157765  12.413  11.916   4.133
51956SOL    HW257766  12.466  11.976   4.005
51957SOL     OW57767  10.450  14.265   6.762
51957SOL    HW157768  10.403  14.347   6.742
51957SOL    HW257769  10.421  14.204   6.694
51958SOL     OW57770  13.850   3.462  13.647
51958SOL    HW157771  13.773   3.414  13.615
51958SOL    HW257772  13.921   3.398  13.644
51959SOL     OW57773  14.389   2.907   0.005
51959SOL    HW157774  14.359   2.985   0.052
51959SOL    HW257775  14.377   2.836   0.068
51960SOL     OW57776   3.943  12.607  12.077
51960SOL    HW157777   4.036  12.598  12.100
51960SOL    HW257778   3.900  12.623  12.161
51961SOL     OW57779   3.149   9.723   0.577
51961SOL    HW157780   3.092   9.769   0.515
51961SOL    HW257781   3.208   9.672   0.522
51962SOL     OW57782  14.184   4.302   8.223
51962SOL    HW157783  14.260   4.286   8.279
51962SOL    HW257784  14.153   4.388   8.249
51963SOL     OW57785   0.647   2.771   0.940
51963SOL    HW157786   0.718   2.801   0.882
51963SOL    HW257787   0.584   2.843   0.939
51964SOL     OW57788   2.784  11.262  12.148
51964SOL    HW157789   2.862  11.313  12.128
51964SOL    HW257790   2.789  11.186  12.089
51965SOL     OW57791  13.374  11.998   2.447
51965SOL    HW157792  13.428  11.922   2.424
51965SOL    HW257793  13.404  12.068   2.389
51966SOL     OW57794  11.806   0.948   7.650
51966SOL    HW157795  11.848   0.885   7.591
51966SOL    HW257796  11.803   1.029   7.599
51967SOL     OW57797  11.316   7.311   2.291
51967SOL    HW157798  11.302   7.340   2.201
51967SOL    HW257799  11.264   7.230   2.299
51968SOL     OW57800   0.862  11.732  11.939
51968SOL    HW157801   0.832  11.659  11.993
51968SOL    HW257802   0.951  11.708  11.914
51969SOL     OW57803   7.419   1.484   4.058
51969SOL    HW157804   7.515   1.485   4.052
51969SOL    HW257805   7.400   1.412   4.117
51970SOL     OW57806  14.487  13.344  12.576
51970SOL    HW157807  14.513  13.392  12.498
51970SOL    HW257808  14.393  13.361  12.585
51971SOL     OW57809   8.168  11.320   5.926
51971SOL    HW157810   8.210  11.239   5.955
51971SOL    HW257811   8.214  11.344   5.846
51972SOL     OW57812   0.977   0.231   0.168
51972SOL    HW157813   0.933   0.314   0.187
51972SOL    HW257814   0.919   0.164   0.206
51973SOL     OW57815   0.261   9.101   9.707
51973SOL    HW157816   0.209   9.107   9.627
51973SOL    HW257817   0.265   9.007   9.725
51974SOL     OW57818   1.878  11.032   6.506
51974SOL    HW157819   1.870  11.126   6.486
51974SOL    HW257820   1.802  10.992   6.463
51975SOL     OW57821  12.423   8.620   9.379
51975SOL    HW157822  12.370   8.667   9.315
51975SOL    HW257823  12.364   8.556   9.417
51976SOL     OW57824   4.084   1.699   5.802
51976SOL    HW157825   4.113   1.608   5.799
51976SOL    HW257826   4.027   1.704   5.878
51977SOL     OW57827   6.507  10.797   4.702
51977SOL    HW157828   6.417  10.813   4.672
51977SOL    HW257829   6.504  10.811   4.796
51978SOL     OW57830   1.596   3.192   0.313
51978SOL    HW157831   1.686   3.187   0.281
51978SOL    HW257832   1.544   3.144   0.249
51979SOL     OW57833  10.569  11.251   0.718
51979SOL    HW157834  10.540  11.162   0.702
51979SOL    HW257835  10.660  11.253   0.689
51980SOL     OW57836  11.763   3.529   5.274
51980SOL    HW157837  11.807   3.575   5.202
51980SOL    HW257838  11.825   3.461   5.301
51981SOL     OW57839  12.784   0.689   7.378
51981SOL    HW157840  12.775   0.630   7.303
51981SOL    HW257841  12.801   0.631   7.452
51982SOL     OW57842  10.952   1.145  11.322
51982SOL    HW157843  11.013   1.218  11.337
51982SOL    HW257844  11.009   1.069  11.309
51983SOL     OW57845   3.911   0.023   8.888
51983SOL    HW157846   3.977   0.064   8.943
51983SOL    HW257847   3.943   0.034   8.798
51984SOL     OW57848   8.143   8.365  10.166
51984SOL    HW157849   8.197   8.401  10.237
51984SOL    HW257850   8.057   8.351  10.206
51985SOL     OW57851   7.097   0.816  14.359
51985SOL    HW157852   7.014   0.775  14.335
51985SOL    HW257853   7.159   0.743  14.361
51986SOL     OW57854  13.353   5.179  12.770
51986SOL    HW157855  13.379   5.172  12.678
51986SOL    HW257856  13.333   5.090  12.797
51987SOL     OW57857   3.537   6.162   1.439
51987SOL    HW157858   3.503   6.246   1.470
51987SOL    HW257859   3.460   6.115   1.407
51988SOL     OW57860   8.571  12.322  10.420
51988SOL    HW157861   8.568  12.270  10.340
51988SOL    HW257862   8.625  12.272  10.480
51989SOL     OW57863   7.080   3.841   2.529
51989SOL    HW157864   7.083   3.841   2.433
51989SOL    HW257865   7.001   3.791   2.551
51990SOL     OW57866  12.922   3.298  11.324
51990SOL    HW157867  12.921   3.239  11.249
51990SOL    HW257868  12.847   3.271  11.377
51991SOL     OW57869   7.346   4.570   2.477
51991SOL    HW157870   7.349   4.474   2.483
51991SOL    HW257871   7.422   4.599   2.528
51992SOL     OW57872   0.497  10.305   5.292
51992SOL    HW157873   0.588  10.334   5.290
51992SOL    HW257874   0.450  10.375   5.337
51993SOL     OW57875   1.084   6.132  14.453
51993SOL    HW157876   1.026   6.195  14.411
51993SOL    HW257877   1.063   6.138  14.546
51994SOL     OW57878  13.377   0.540   0.759
51994SOL    HW157879  13.304   0.529   0.820
51994SOL    HW257880  13.423   0.456   0.762
51995SOL     OW57881   9.270   3.436   4.705
51995SOL    HW157882   9.227   3.367   4.654
51995SOL    HW257883   9.269   3.404   4.795
51996SOL     OW57884   3.962  10.664   5.028
51996SOL    HW157885   3.974  10.594   4.964
51996SOL    HW257886   4.049  10.679   5.064
51997SOL     OW57887   5.032   8.875   4.199
51997SOL    HW157888   5.047   8.781   4.198
51997SOL    HW257889   4.996   8.894   4.112
51998SOL     OW57890   6.420  13.647  12.082
51998SOL    HW157891   6.343  13.705  12.080
51998SOL    HW257892   6.468  13.667  12.002
51999SOL     OW57893  10.461   6.674  14.743
51999SOL    HW157894  10.498   6.652  14.658
51999SOL    HW257895  10.455   6.590  14.789
52000SOL     OW57896   7.560   1.833   2.639
52000SOL    HW157897   7.465   1.843   2.647
52000SOL    HW257898   7.595   1.921   2.647
52001SOL     OW57899   2.666   7.742   4.480
52001SOL    HW157900   2.636   7.708   4.565
52001SOL    HW257901   2.646   7.673   4.418
52002SOL     OW57902  10.956   2.988   3.599
52002SOL    HW157903  10.964   2.905   3.553
52002SOL    HW257904  10.864   2.992   3.624
52003SOL     OW57905   3.712   8.957   0.055
52003SOL    HW157906   3.724   9.046   0.089
52003SOL    HW257907   3.799   8.930   0.025
52004SOL     OW57908   6.150   5.009   5.387
52004SOL    HW157909   6.206   4.946   5.432
52004SOL    HW257910   6.076   4.956   5.355
52005SOL     OW57911  14.399   5.974  13.921
52005SOL    HW157912  14.421   5.890  13.881
52005SOL    HW257913  14.440   6.039  13.864
52006SOL     OW57914   5.468   8.326   4.150
52006SOL    HW157915   5.451   8.420   4.151
52006SOL    HW257916   5.530   8.312   4.221
52007SOL     OW57917  11.865  11.077   1.454
52007SOL    HW157918  11.876  11.159   1.405
52007SOL    HW257919  11.791  11.033   1.412
52008SOL     OW57920   4.184   7.936  10.886
52008SOL    HW157921   4.273   7.902  10.889
52008SOL    HW257922   4.131   7.861  10.859
52009SOL     OW57923   6.643   9.162  12.508
52009SOL    HW157924   6.684   9.114  12.580
52009SOL    HW257925   6.660   9.109  12.430
52010SOL     OW57926  12.334   6.051  12.683
52010SOL    HW157927  12.325   6.005  12.600
52010SOL    HW257928  12.331   6.144  12.659
52011SOL     OW57929   7.102   9.064   6.315
52011SOL    HW157930   7.143   8.983   6.287
52011SOL    HW257931   7.017   9.038   6.350
52012SOL     OW57932   2.486   4.887   9.612
52012SOL    HW157933   2.472   4.950   9.683
52012SOL    HW257934   2.432   4.920   9.540
52013SOL     OW57935   4.547  12.215  11.117
52013SOL    HW157936   4.620  12.233  11.176
52013SOL    HW257937   4.471  12.204  11.175
52014SOL     OW57938  14.313  13.053   2.253
52014SOL    HW157939  14.311  13.050   2.349
52014SOL    HW257940  14.396  13.097   2.233
52015SOL     OW57941   7.560  13.195   4.706
52015SOL    HW157942   7.500  13.263   4.736
52015SOL    HW257943   7.624  13.242   4.652
52016SOL     OW57944   7.009   9.876   9.785
52016SOL    HW157945   6.958   9.868   9.865
52016SOL    HW257946   6.990   9.796   9.736
52017SOL     OW57947  12.734   0.924  14.633
52017SOL    HW157948  12.671   0.960  14.570
52017SOL    HW257949  12.699   0.838  14.657
52018SOL     OW57950   0.722   5.024  11.744
52018SOL    HW157951   0.801   5.075  11.727
52018SOL    HW257952   0.650   5.084  11.725
52019SOL     OW57953  13.346   1.501  12.706
52019SOL    HW157954  13.412   1.465  12.647
52019SOL    HW257955  13.304   1.424  12.744
52020SOL     OW57956  13.443   7.408   6.035
52020SOL    HW157957  13.434   7.454   6.118
52020SOL    HW257958  13.529   7.366   6.039
52021SOL     OW57959   0.455   5.475  12.782
52021SOL    HW157960   0.522   5.526  12.827
52021SOL    HW257961   0.391   5.454  12.850
52022SOL     OW57962  14.789   0.435  12.638
52022SOL    HW157963  14.773   0.420  12.544
52022SOL    HW257964  14.723   0.500  12.663
52023SOL     OW57965   1.048   7.638   6.403
52023SOL    HW157966   1.048   7.543   6.393
52023SOL    HW257967   1.140   7.661   6.411
52024SOL     OW57968  13.685   4.649   5.311
52024SOL    HW157969  13.594   4.673   5.298
52024SOL    HW257970  13.734   4.730   5.301
52025SOL     OW57971   3.731   6.864  14.794
52025SOL    HW157972   3.789   6.934  14.763
52025SOL    HW257973   3.653   6.910  14.825
52026SOL     OW57974   0.262  14.456  11.274
52026SOL    HW157975   0.350  14.486  11.299
52026SOL    HW257976   0.204  14.527  11.302
52027SOL     OW57977   6.635   3.473   3.445
52027SOL    HW157978   6.622   3.552   3.391
52027SOL    HW257979   6.547   3.436   3.455
52028SOL     OW57980   7.694   0.363   9.573
52028SOL    HW157981   7.775   0.315   9.553
52028SOL    HW257982   7.697   0.440   9.516
52029SOL     OW57983  12.439   4.230   3.211
52029SOL    HW157984  12.470   4.319   3.229
52029SOL    HW257985  12.433   4.189   3.297
52030SOL     OW57986   6.516   1.323   7.863
52030SOL    HW157987   6.570   1.332   7.941
52030SOL    HW257988   6.579   1.311   7.792
52031SOL     OW57989   1.649   0.894   4.988
52031SOL    HW157990   1.740   0.921   5.003
52031SOL    HW257991   1.647   0.802   5.014
52032SOL     OW57992   7.103   8.117   9.957
52032SOL    HW157993   7.021   8.165   9.943
52032SOL    HW257994   7.137   8.151  10.040
52033SOL     OW57995   3.725   0.297  10.590
52033SOL    HW157996   3.698   0.304  10.682
52033SOL    HW257997   3.815   0.329  10.589
52034SOL     OW57998   3.898   3.346   2.754
52034SOL    HW157999   3.803   3.337   2.751
52034SOL    HW258000   3.920   3.394   2.674
52035SOL     OW58001   1.854   8.533  12.805
52035SOL    HW158002   1.824   8.609  12.856
52035SOL    HW258003   1.800   8.536  12.725
52036SOL     OW58004   9.509   0.416   2.677
52036SOL    HW158005   9.476   0.389   2.762
52036SOL    HW258006   9.602   0.431   2.690
52037SOL     OW58007   1.229   2.579   2.835
52037SOL    HW158008   1.308   2.632   2.830
52037SOL    HW258009   1.251   2.498   2.789
52038SOL     OW58010   5.607   0.208  13.072
52038SOL    HW158011   5.702   0.220  13.075
52038SOL    HW258012   5.574   0.290  13.035
52039SOL     OW58013   2.506   8.003   1.656
52039SOL    HW158014   2.527   8.021   1.564
52039SOL    HW258015   2.528   7.911   1.669
52040SOL     OW58016   9.649  11.522  14.332
52040SOL    HW158017   9.701  11.441  14.332
52040SOL    HW258018   9.677  11.568  14.253
52041SOL     OW58019   8.966   0.929  13.638
52041SOL    HW158020   8.906   0.884  13.578
52041SOL    HW258021   8.911   0.995  13.681
52042SOL     OW58022   0.099   7.034   4.546
52042SOL    HW158023   0.177   7.087   4.560
52042SOL    HW258024   0.052   7.038   4.629
52043SOL     OW58025   4.016   3.074   4.157
52043SOL    HW158026   3.923   3.084   4.178
52043SOL    HW258027   4.021   2.995   4.104
52044SOL     OW58028  10.365  11.204   4.260
52044SOL    HW158029  10.358  11.219   4.354
52044SOL    HW258030  10.415  11.279   4.227
52045SOL     OW58031   8.080   3.142   4.413
52045SOL    HW158032   8.001   3.171   4.368
52045SOL    HW258033   8.075   3.182   4.500
52046SOL     OW58034   8.182   5.138   8.743
52046SOL    HW158035   8.146   5.062   8.790
52046SOL    HW258036   8.111   5.169   8.688
52047SOL     OW58037  10.986   7.663   9.328
52047SOL    HW158038  10.897   7.676   9.362
52047SOL    HW258039  10.984   7.574   9.293
52048SOL     OW58040   8.191   5.826   8.482
52048SOL    HW158041   8.130   5.764   8.523
52048SOL    HW258042   8.217   5.885   8.553
52049SOL     OW58043   3.061   9.042   2.948
52049SOL    HW158044   3.153   9.066   2.965
52049SOL    HW258045   3.039   9.091   2.868
52050SOL     OW58046   4.465   7.092  13.117
52050SOL    HW158047   4.476   7.108  13.211
52050SOL    HW258048   4.491   7.174  13.075
52051SOL     OW58049   5.170   0.300   6.696
52051SOL    HW158050   5.144   0.336   6.611
52051SOL    HW258051   5.175   0.205   6.681
52052SOL     OW58052  12.457   5.726   4.940
52052SOL    HW158053  12.535   5.689   4.982
52052SOL    HW258054  12.391   5.657   4.947
52053SOL     OW58055  14.244   5.513   6.099
52053SOL    HW158056  14.279   5.508   6.188
52053SOL    HW258057  14.295   5.448   6.050
52054SOL     OW58058   0.049  10.689   8.478
52054SOL    HW158059   0.042  10.597   8.505
52054SOL    HW258060   0.129  10.720   8.520
52055SOL     OW58061  11.383   6.087   6.642
52055SOL    HW158062  11.383   6.056   6.733
52055SOL    HW258063  11.401   6.008   6.591
52056SOL     OW58064   4.793  11.960  10.638
52056SOL    HW158065   4.813  11.893  10.573
52056SOL    HW258066   4.755  12.032  10.588
52057SOL     OW58067   4.667   4.967  11.405
52057SOL    HW158068   4.727   5.041  11.414
52057SOL    HW258069   4.580   5.005  11.412
52058SOL     OW58070   2.645  11.244  14.111
52058SOL    HW158071   2.731  11.232  14.070
52058SOL    HW258072   2.612  11.155  14.123
52059SOL     OW58073   7.827  11.206  12.966
52059SOL    HW158074   7.803  11.206  13.059
52059SOL    HW258075   7.905  11.260  12.961
52060SOL     OW58076  11.945   2.347   0.463
52060SOL    HW158077  11.856   2.361   0.493
52060SOL    HW258078  11.941   2.267   0.411
52061SOL     OW58079   5.180  11.513   7.310
52061SOL    HW158080   5.163  11.568   7.387
52061SOL    HW258081   5.229  11.439   7.344
52062SOL     OW58082   4.614  11.849  13.120
52062SOL    HW158083   4.679  11.844  13.190
52062SOL    HW258084   4.558  11.773  13.133
52063SOL     OW58085   0.298  12.579  10.100
52063SOL    HW158086   0.247  12.554  10.177
52063SOL    HW258087   0.274  12.515  10.034
52064SOL     OW58088   3.260   5.138   4.377
52064SOL    HW158089   3.266   5.082   4.299
52064SOL    HW258090   3.224   5.221   4.345
52065SOL     OW58091   4.029   4.575  11.397
52065SOL    HW158092   4.015   4.492  11.351
52065SOL    HW258093   4.124   4.584  11.401
52066SOL     OW58094   9.996   2.663   5.705
52066SOL    HW158095   9.978   2.657   5.611
52066SOL    HW258096   9.986   2.756   5.725
52067SOL     OW58097   5.242   4.896   1.114
52067SOL    HW158098   5.328   4.939   1.110
52067SOL    HW258099   5.228   4.878   1.207
52068SOL     OW58100   6.440   7.619   2.299
52068SOL    HW158101   6.413   7.678   2.369
52068SOL    HW258102   6.403   7.656   2.220
52069SOL     OW58103   9.722   1.862  11.766
52069SOL    HW158104   9.641   1.845  11.718
52069SOL    HW258105   9.699   1.850  11.858
52070SOL     OW58106   0.210   7.354   3.512
52070SOL    HW158107   0.151   7.421   3.479
52070SOL    HW258108   0.272   7.340   3.440
52071SOL     OW58109   4.626   8.054  12.460
52071SOL    HW158110   4.677   8.116  12.408
52071SOL    HW258111   4.596   7.989  12.396
52072SOL     OW58112   8.983   7.156   2.549
52072SOL    HW158113   8.956   7.201   2.469
52072SOL    HW258114   8.941   7.070   2.544
52073SOL     OW58115   3.036  14.451   8.851
52073SOL    HW158116   3.044  14.545   8.839
52073SOL    HW258117   3.063  14.413   8.767
52074SOL     OW58118   9.111   8.408  12.337
52074SOL    HW158119   9.053   8.333  12.352
52074SOL    HW258120   9.058   8.469  12.285
52075SOL     OW58121   4.259   3.244   2.991
52075SOL    HW158122   4.218   3.248   2.904
52075SOL    HW258123   4.308   3.326   2.998
52076SOL     OW58124  12.257   2.743   3.708
52076SOL    HW158125  12.165   2.763   3.690
52076SOL    HW258126  12.282   2.807   3.776
52077SOL     OW58127  10.827   3.555   7.588
52077SOL    HW158128  10.874   3.606   7.654
52077SOL    HW258129  10.864   3.467   7.595
52078SOL     OW58130  13.844   0.827   0.749
52078SOL    HW158131  13.848   0.912   0.793
52078SOL    HW258132  13.776   0.779   0.796
52079SOL     OW58133   1.354   3.292   2.127
52079SOL    HW158134   1.417   3.272   2.197
52079SOL    HW258135   1.399   3.356   2.072
52080SOL     OW58136   9.809  14.082   0.358
52080SOL    HW158137   9.742  14.101   0.292
52080SOL    HW258138   9.892  14.085   0.311
52081SOL     OW58139   4.390  10.927   0.648
52081SOL    HW158140   4.371  10.992   0.580
52081SOL    HW258141   4.367  10.970   0.730
52082SOL     OW58142   3.392  11.606   6.520
52082SOL    HW158143   3.349  11.589   6.604
52082SOL    HW258144   3.321  11.630   6.461
52083SOL     OW58145  11.328   0.200   4.752
52083SOL    HW158146  11.404   0.141   4.746
52083SOL    HW258147  11.261   0.147   4.795
52084SOL     OW58148  12.620   7.193   0.833
52084SOL    HW158149  12.550   7.166   0.774
52084SOL    HW258150  12.700   7.186   0.780
52085SOL     OW58151  11.855   0.108  13.955
52085SOL    HW158152  11.938   0.071  13.926
52085SOL    HW258153  11.800   0.109  13.876
52086SOL     OW58154   1.828   3.969   4.322
52086SOL    HW158155   1.755   3.936   4.271
52086SOL    HW258156   1.800   3.960   4.413
52087SOL     OW58157  13.772  12.964   8.801
52087SOL    HW158158  13.769  12.943   8.708
52087SOL    HW258159  13.853  13.014   8.812
52088SOL     OW58160   0.340   1.845  12.900
52088SOL    HW158161   0.273   1.800  12.849
52088SOL    HW258162   0.420   1.796  12.882
52089SOL     OW58163   2.088   3.768   5.917
52089SOL    HW158164   2.155   3.746   5.852
52089SOL    HW258165   2.136   3.776   5.999
52090SOL     OW58166   1.792   0.352  10.234
52090SOL    HW158167   1.715   0.363  10.290
52090SOL    HW258168   1.757   0.338  10.146
52091SOL     OW58169   9.317   4.177   0.397
52091SOL    HW158170   9.396   4.219   0.432
52091SOL    HW258171   9.308   4.213   0.308
52092SOL     OW58172   5.348   7.203   9.284
52092SOL    HW158173   5.303   7.126   9.321
52092SOL    HW258174   5.437   7.173   9.267
52093SOL     OW58175   4.889  13.221   2.866
52093SOL    HW158176   4.976  13.250   2.895
52093SOL    HW258177   4.896  13.126   2.861
52094SOL     OW58178  10.721   0.004   5.420
52094SOL    HW158179  10.773  14.845   5.344
52094SOL    HW258180  10.641  14.820   5.413
52095SOL     OW58181  12.737   9.422  12.347
52095SOL    HW158182  12.642   9.414  12.335
52095SOL    HW258183  12.775   9.362  12.283
52096SOL     OW58184  13.562   2.773   9.195
52096SOL    HW158185  13.600   2.775   9.283
52096SOL    HW258186  13.502   2.848   9.193
52097SOL     OW58187  12.912   8.760   2.458
52097SOL    HW158188  12.821   8.770   2.429
52097SOL    HW258189  12.912   8.789   2.549
52098SOL     OW58190  13.775   6.168   4.082
52098SOL    HW158191  13.695   6.116   4.073
52098SOL    HW258192  13.845   6.103   4.091
52099SOL     OW58193   3.867   0.008   7.987
52099SOL    HW158194   3.920  14.815   8.038
52099SOL    HW258195   3.815  14.819   7.930
52100SOL     OW58196   8.874  13.901   9.999
52100SOL    HW158197   8.823  13.962  10.052
52100SOL    HW258198   8.951  13.882  10.052
52101SOL     OW58199  10.256  10.200   3.985
52101SOL    HW158200  10.302  10.222   4.067
52101SOL    HW258201  10.320  10.221   3.916
52102SOL     OW58202   7.425   0.199  13.525
52102SOL    HW158203   7.407   0.121  13.472
52102SOL    HW258204   7.421   0.272  13.463
52103SOL     OW58205  12.353  12.757  14.699
52103SOL    HW158206  12.325  12.844  14.672
52103SOL    HW258207  12.375  12.766  14.791
52104SOL     OW58208  14.003   4.881   3.370
52104SOL    HW158209  14.090   4.897   3.333
52104SOL    HW258210  14.011   4.795   3.412
52105SOL     OW58211   3.668   2.104   2.845
52105SOL    HW158212   3.686   2.079   2.936
52105SOL    HW258213   3.653   2.198   2.848
52106SOL     OW58214   9.912   6.483   6.135
52106SOL    HW158215   9.927   6.410   6.075
52106SOL    HW258216   9.958   6.557   6.094
52107SOL     OW58217  10.768   0.176   6.740
52107SOL    HW158218  10.791   0.185   6.833
52107SOL    HW258219  10.823   0.241   6.696
52108SOL     OW58220   7.827   0.819  10.058
52108SOL    HW158221   7.863   0.767   9.986
52108SOL    HW258222   7.776   0.757  10.110
52109SOL     OW58223  14.317  14.001   8.074
52109SOL    HW158224  14.346  13.911   8.058
52109SOL    HW258225  14.276  14.028   7.992
52110SOL     OW58226   3.758   8.366   1.914
52110SOL    HW158227   3.849   8.394   1.905
52110SOL    HW258228   3.743   8.360   2.008
52111SOL     OW58229   3.427   5.326   8.910
52111SOL    HW158230   3.516   5.360   8.907
52111SOL    HW258231   3.438   5.233   8.933
52112SOL     OW58232   5.634   6.406  12.715
52112SOL    HW158233   5.673   6.485  12.678
52112SOL    HW258234   5.587   6.436  12.792
52113SOL     OW58235   9.890   1.715  11.597
52113SOL    HW158236   9.840   1.640  11.566
52113SOL    HW258237   9.830   1.762  11.655
52114SOL     OW58238  14.514   5.425   4.393
52114SOL    HW158239  14.547   5.358   4.452
52114SOL    HW258240  14.571   5.420   4.316
52115SOL     OW58241   8.930   3.415   6.971
52115SOL    HW158242   8.943   3.322   6.953
52115SOL    HW258243   8.865   3.416   7.042
52116SOL     OW58244   2.521  12.492   2.328
52116SOL    HW158245   2.567  12.418   2.368
52116SOL    HW258246   2.428  12.470   2.338
52117SOL     OW58247  14.505  12.443  12.442
52117SOL    HW158248  14.413  12.424  12.424
52117SOL    HW258249  14.508  12.463  12.536
52118SOL     OW58250   2.592  12.039   6.398
52118SOL    HW158251   2.643  12.011   6.322
52118SOL    HW258252   2.650  12.023   6.473
52119SOL     OW58253   4.446   3.966   8.569
52119SOL    HW158254   4.384   4.020   8.618
52119SOL    HW258255   4.443   4.001   8.480
52120SOL     OW58256   4.919   9.331   0.319
52120SOL    HW158257   4.932   9.270   0.246
52120SOL    HW258258   4.927   9.276   0.397
52121SOL     OW58259  10.111   5.182   6.857
52121SOL    HW158260  10.183   5.132   6.894
52121SOL    HW258261  10.034   5.156   6.908
52122SOL     OW58262   1.864   7.280   6.120
52122SOL    HW158263   1.783   7.312   6.160
52122SOL    HW258264   1.844   7.275   6.027
52123SOL     OW58265   3.130  11.851   1.233
52123SOL    HW158266   3.178  11.799   1.168
52123SOL    HW258267   3.072  11.906   1.180
52124SOL     OW58268   0.301   0.393   0.642
52124SOL    HW158269   0.229   0.453   0.663
52124SOL    HW258270   0.375   0.427   0.691
52125SOL     OW58271   2.775  12.460   4.590
52125SOL    HW158272   2.814  12.377   4.563
52125SOL    HW258273   2.684  12.454   4.560
52126SOL     OW58274  14.437   8.916   8.936
52126SOL    HW158275  14.509   8.870   8.892
52126SOL    HW258276  14.468   8.928   9.026
52127SOL     OW58277  10.200   5.668   4.729
52127SOL    HW158278  10.258   5.615   4.674
52127SOL    HW258279  10.115   5.624   4.723
52128SOL     OW58280   2.685   5.766   9.004
52128SOL    HW158281   2.748   5.732   8.940
52128SOL    HW258282   2.670   5.856   8.975
52129SOL     OW58283   6.526   3.430   6.776
52129SOL    HW158284   6.481   3.346   6.765
52129SOL    HW258285   6.502   3.481   6.699
52130SOL     OW58286  10.136  12.713   8.765
52130SOL    HW158287  10.132  12.796   8.814
52130SOL    HW258288  10.100  12.734   8.679
52131SOL     OW58289  13.106   0.412   7.855
52131SOL    HW158290  13.032   0.468   7.879
52131SOL    HW258291  13.132   0.371   7.937
52132SOL     OW58292   0.585   0.728   1.587
52132SOL    HW158293   0.545   0.792   1.646
52132SOL    HW258294   0.664   0.771   1.555
52133SOL     OW58295   8.869  13.147  14.839
52133SOL    HW158296   8.940  13.116  14.783
52133SOL    HW258297   8.799  13.083  14.828
52134SOL     OW58298   0.401  11.609   1.072
52134SOL    HW158299   0.489  11.637   1.048
52134SOL    HW258300   0.365  11.570   0.993
52135SOL     OW58301   5.437   2.090   1.123
52135SOL    HW158302   5.447   2.164   1.183
52135SOL    HW258303   5.414   2.131   1.039
52136SOL     OW58304   5.630   1.281   3.553
52136SOL    HW158305   5.557   1.221   3.569
52136SOL    HW258306   5.610   1.320   3.468
52137SOL     OW58307   5.516   1.461   1.394
52137SOL    HW158308   5.421   1.469   1.392
52137SOL    HW258309   5.539   1.424   1.308
52138SOL     OW58310  10.820   0.654   9.382
52138SOL    HW158311  10.779   0.569   9.368
52138SOL    HW258312  10.801   0.675   9.474
52139SOL     OW58313   0.730   7.058   1.396
52139SOL    HW158314   0.639   7.036   1.415
52139SOL    HW258315   0.734   7.153   1.407
52140SOL     OW58316   8.783   5.995  11.655
52140SOL    HW158317   8.691   6.000  11.629
52140SOL    HW258318   8.827   5.955  11.580
52141SOL     OW58319   7.479   6.267   1.624
52141SOL    HW158320   7.472   6.263   1.529
52141SOL    HW258321   7.407   6.323   1.652
52142SOL     OW58322  10.679   5.584   0.009
52142SOL    HW158323  10.765   5.544  14.860
52142SOL    HW258324  10.645   5.605  14.790
52143SOL     OW58325   8.071  12.769   4.893
52143SOL    HW158326   8.085  12.863   4.889
52143SOL    HW258327   7.988  12.755   4.847
52144SOL     OW58328   6.282   3.049   3.521
52144SOL    HW158329   6.262   2.956   3.535
52144SOL    HW258330   6.197   3.088   3.499
52145SOL     OW58331  12.372  13.886   0.995
52145SOL    HW158332  12.334  13.908   0.910
52145SOL    HW258333  12.429  13.811   0.977
52146SOL     OW58334  11.620   1.752   1.871
52146SOL    HW158335  11.709   1.721   1.856
52146SOL    HW258336  11.599   1.805   1.795
52147SOL     OW58337   9.263   1.583   8.788
52147SOL    HW158338   9.244   1.506   8.842
52147SOL    HW258339   9.207   1.572   8.711
52148SOL     OW58340   2.073   6.103   7.126
52148SOL    HW158341   2.161   6.101   7.088
52148SOL    HW258342   2.055   6.011   7.147
52149SOL     OW58343   5.496  14.735  14.784
52149SOL    HW158344   5.434  14.665  14.804
52149SOL    HW258345   5.440  14.812  14.767
52150SOL     OW58346  10.644   9.110  14.143
52150SOL    HW158347  10.578   9.090  14.077
52150SOL    HW258348  10.676   9.025  14.172
52151SOL     OW58349  14.214   2.115  10.354
52151SOL    HW158350  14.168   2.056  10.293
52151SOL    HW258351  14.162   2.195  10.352
52152SOL     OW58352   9.469   7.811   9.004
52152SOL    HW158353   9.405   7.883   9.003
52152SOL    HW258354   9.522   7.829   9.081
52153SOL     OW58355  10.328   5.843   0.123
52153SOL    HW158356  10.320   5.825   0.029
52153SOL    HW258357  10.373   5.765   0.158
52154SOL     OW58358  12.574   4.697   9.770
52154SOL    HW158359  12.520   4.641   9.714
52154SOL    HW258360  12.591   4.644   9.848
52155SOL     OW58361  12.975   3.937   5.705
52155SOL    HW158362  13.067   3.957   5.687
52155SOL    HW258363  12.936   3.925   5.618
52156SOL     OW58364  13.828   4.612  11.703
52156SOL    HW158365  13.777   4.571  11.633
52156SOL    HW258366  13.785   4.697  11.716
52157SOL     OW58367   9.595   5.335  10.355
52157SOL    HW158368   9.500   5.325  10.356
52157SOL    HW258369   9.623   5.293  10.274
52158SOL     OW58370  14.809   6.506   3.741
52158SOL    HW158371  14.810   6.574   3.674
52158SOL    HW258372  14.865   6.436   3.707
52159SOL     OW58373   6.477  13.002   7.006
52159SOL    HW158374   6.452  13.094   6.999
52159SOL    HW258375   6.527  12.984   6.927
52160SOL     OW58376   6.663  10.977  12.133
52160SOL    HW158377   6.690  10.916  12.201
52160SOL    HW258378   6.734  11.040  12.127
52161SOL     OW58379   9.920   3.365   5.933
52161SOL    HW158380   9.898   3.366   5.840
52161SOL    HW258381   9.912   3.456   5.961
52162SOL     OW58382  11.599  13.061   5.836
52162SOL    HW158383  11.621  12.969   5.824
52162SOL    HW258384  11.605  13.099   5.748
52163SOL     OW58385   0.154   5.745   7.453
52163SOL    HW158386   0.127   5.823   7.404
52163SOL    HW258387   0.214   5.700   7.394
52164SOL     OW58388   1.198  14.034  11.269
52164SOL    HW158389   1.264  14.006  11.332
52164SOL    HW258390   1.162  13.952  11.234
52165SOL     OW58391   2.049  10.601  10.163
52165SOL    HW158392   2.011  10.582  10.249
52165SOL    HW258393   2.142  10.581  10.174
52166SOL     OW58394   1.558   2.069  10.781
52166SOL    HW158395   1.491   2.001  10.779
52166SOL    HW258396   1.509   2.150  10.768
52167SOL     OW58397  14.077   7.326   9.657
52167SOL    HW158398  14.035   7.361   9.579
52167SOL    HW258399  14.145   7.389   9.678
52168SOL     OW58400  11.184  10.790   6.623
52168SOL    HW158401  11.247  10.861   6.638
52168SOL    HW258402  11.148  10.771   6.710
52169SOL     OW58403  13.797  12.410   1.824
52169SOL    HW158404  13.884  12.389   1.790
52169SOL    HW258405  13.736  12.383   1.756
52170SOL     OW58406   0.798   4.062  14.719
52170SOL    HW158407   0.809   4.101  14.805
52170SOL    HW258408   0.722   4.005  14.727
52171SOL     OW58409  10.084   9.823   1.472
52171SOL    HW158410  10.032   9.814   1.392
52171SOL    HW258411  10.139   9.899   1.456
52172SOL     OW58412  14.668  14.368   8.063
52172SOL    HW158413  14.594  14.322   8.104
52172SOL    HW258414  14.630  14.449   8.030
52173SOL     OW58415  13.369   0.650  11.365
52173SOL    HW158416  13.321   0.718  11.317
52173SOL    HW258417  13.414   0.601  11.296
52174SOL     OW58418   5.391   0.060  11.722
52174SOL    HW158419   5.375   0.141  11.770
52174SOL    HW258420   5.404   0.088  11.631
52175SOL     OW58421   0.197   4.632   6.420
52175SOL    HW158422   0.210   4.581   6.500
52175SOL    HW258423   0.195   4.723   6.449
52176SOL     OW58424   1.885   4.604  14.240
52176SOL    HW158425   1.875   4.652  14.323
52176SOL    HW258426   1.910   4.516  14.266
52177SOL     OW58427   0.571   8.884  11.018
52177SOL    HW158428   0.571   8.944  10.943
52177SOL    HW258429   0.509   8.816  10.994
52178SOL     OW58430   5.343  10.045   9.373
52178SOL    HW158431   5.282  10.047   9.447
52178SOL    HW258432   5.429  10.051   9.413
52179SOL     OW58433  13.250   2.279   1.420
52179SOL    HW158434  13.315   2.209   1.428
52179SOL    HW258435  13.253   2.325   1.504
52180SOL     OW58436  14.373   7.381  13.448
52180SOL    HW158437  14.455   7.333  13.436
52180SOL    HW258438  14.385   7.462  13.398
52181SOL     OW58439   2.412  13.089   6.300
52181SOL    HW158440   2.337  13.118   6.248
52181SOL    HW258441   2.483  13.079   6.236
52182SOL     OW58442   4.099   1.057  12.209
52182SOL    HW158443   4.128   1.103  12.129
52182SOL    HW258444   4.128   1.114  12.280
52183SOL     OW58445   2.505   4.666   7.089
52183SOL    HW158446   2.548   4.741   7.048
52183SOL    HW258447   2.574   4.602   7.102
52184SOL     OW58448  11.073   8.655  10.333
52184SOL    HW158449  11.129   8.577  10.344
52184SOL    HW258450  11.094   8.687  10.245
52185SOL     OW58451   0.200   9.624   0.288
52185SOL    HW158452   0.199   9.678   0.367
52185SOL    HW258453   0.114   9.639   0.249
52186SOL     OW58454  10.274   2.888   6.061
52186SOL    HW158455  10.252   2.981   6.057
52186SOL    HW258456  10.303   2.867   5.972
52187SOL     OW58457   6.507  13.949   1.926
52187SOL    HW158458   6.455  13.921   2.001
52187SOL    HW258459   6.587  13.896   1.931
52188SOL     OW58460   1.514  14.433  11.916
52188SOL    HW158461   1.495  14.462  12.005
52188SOL    HW258462   1.596  14.477  11.893
52189SOL     OW58463  13.518   4.666   2.496
52189SOL    HW158464  13.579   4.672   2.423
52189SOL    HW258465  13.453   4.602   2.468
52190SOL     OW58466   7.029   7.512  10.944
52190SOL    HW158467   6.984   7.444  10.994
52190SOL    HW258468   7.034   7.477  10.855
52191SOL     OW58469  11.480   5.017   9.667
52191SOL    HW158470  11.443   4.986   9.584
52191SOL    HW258471  11.573   4.996   9.661
52192SOL     OW58472   8.024  11.935   3.170
52192SOL    HW158473   8.053  12.019   3.134
52192SOL    HW258474   7.947  11.912   3.118
52193SOL     OW58475  14.583   3.945   5.663
52193SOL    HW158476  14.596   3.854   5.635
52193SOL    HW258477  14.523   3.940   5.737
52194SOL     OW58478  11.580   9.857   4.675
52194SOL    HW158479  11.575   9.795   4.747
52194SOL    HW258480  11.584   9.803   4.596
52195SOL     OW58481   9.946   4.329   1.378
52195SOL    HW158482   9.991   4.397   1.328
52195SOL    HW258483  10.017   4.279   1.419
52196SOL     OW58484   1.518   7.936   7.491
52196SOL    HW158485   1.426   7.918   7.473
52196SOL    HW258486   1.526   7.927   7.586
52197SOL     OW58487   9.436   1.117   5.418
52197SOL    HW158488   9.492   1.082   5.487
52197SOL    HW258489   9.454   1.211   5.419
52198SOL     OW58490   5.469   9.033   7.201
52198SOL    HW158491   5.440   9.022   7.291
52198SOL    HW258492   5.422   8.965   7.152
52199SOL     OW58493   8.114   7.100   9.807
52199SOL    HW158494   8.180   7.064   9.866
52199SOL    HW258495   8.162   7.164   9.754
52200SOL     OW58496   6.316   7.132  10.871
52200SOL    HW158497   6.383   7.180  10.822
52200SOL    HW258498   6.287   7.193  10.939
52201SOL     OW58499   6.731   6.811  12.336
52201SOL    HW158500   6.775   6.790  12.253
52201SOL    HW258501   6.745   6.905  12.347
52202SOL     OW58502  10.031   8.059   6.592
52202SOL    HW158503  10.113   8.072   6.641
52202SOL    HW258504  10.059   8.030   6.505
52203SOL     OW58505   2.860   8.070   9.133
52203SOL    HW158506   2.887   8.097   9.046
52203SOL    HW258507   2.782   8.016   9.118
52204SOL     OW58508   9.523  10.413   4.065
52204SOL    HW158509   9.496  10.345   4.126
52204SOL    HW258510   9.444  10.464   4.049
52205SOL     OW58511   2.981   5.274   6.485
52205SOL    HW158512   3.055   5.231   6.529
52205SOL    HW258513   2.906   5.219   6.504
52206SOL     OW58514  10.541  12.026   0.847
52206SOL    HW158515  10.615  12.016   0.907
52206SOL    HW258516  10.563  12.104   0.796
52207SOL     OW58517  14.249   0.233   8.525
52207SOL    HW158518  14.183   0.177   8.484
52207SOL    HW258519  14.211   0.256   8.610
52208SOL     OW58520  11.997  13.894   8.388
52208SOL    HW158521  12.048  13.848   8.321
52208SOL    HW258522  11.908  13.860   8.376
52209SOL     OW58523  12.127   0.591   7.760
52209SOL    HW158524  12.072   0.561   7.687
52209SOL    HW258525  12.077   0.566   7.838
52210SOL     OW58526   5.758   8.884   0.727
52210SOL    HW158527   5.830   8.884   0.791
52210SOL    HW258528   5.712   8.966   0.743
52211SOL     OW58529   2.351   1.605   7.730
52211SOL    HW158530   2.258   1.588   7.744
52211SOL    HW258531   2.356   1.636   7.640
52212SOL     OW58532   5.781  10.653  10.324
52212SOL    HW158533   5.823  10.568  10.333
52212SOL    HW258534   5.848  10.716  10.351
52213SOL     OW58535   8.416  11.496   8.837
52213SOL    HW158536   8.421  11.529   8.747
52213SOL    HW258537   8.439  11.404   8.830
52214SOL     OW58538   6.706   8.259   3.856
52214SOL    HW158539   6.640   8.193   3.837
52214SOL    HW258540   6.789   8.217   3.834
52215SOL     OW58541   8.874   2.742   0.620
52215SOL    HW158542   8.874   2.730   0.525
52215SOL    HW258543   8.961   2.711   0.648
52216SOL     OW58544   3.199   5.527   7.127
52216SOL    HW158545   3.167   5.617   7.122
52216SOL    HW258546   3.241   5.512   7.043
52217SOL     OW58547  12.029   7.633  11.722
52217SOL    HW158548  12.122   7.648  11.740
52217SOL    HW258549  12.002   7.568  11.787
52218SOL     OW58550  11.334  11.013   5.395
52218SOL    HW158551  11.363  10.940   5.341
52218SOL    HW258552  11.260  10.978   5.445
52219SOL     OW58553   4.226   9.860  10.877
52219SOL    HW158554   4.237   9.880  10.784
52219SOL    HW258555   4.143   9.900  10.900
52220SOL     OW58556   5.019   3.120   2.466
52220SOL    HW158557   4.934   3.087   2.496
52220SOL    HW258558   4.998   3.184   2.398
52221SOL     OW58559  11.945   0.233   8.105
52221SOL    HW158560  11.869   0.198   8.152
52221SOL    HW258561  11.913   0.248   8.016
52222SOL     OW58562   7.325   0.043   8.084
52222SOL    HW158563   7.365  14.835   8.042
52222SOL    HW258564   7.336   0.027   8.178
52223SOL     OW58565  13.652   2.215   1.120
52223SOL    HW158566  13.707   2.277   1.167
52223SOL    HW258567  13.651   2.247   1.030
52224SOL     OW58568  12.787   0.463   1.753
52224SOL    HW158569  12.805   0.467   1.660
52224SOL    HW258570  12.701   0.504   1.763
52225SOL     OW58571   9.347  12.248   5.562
52225SOL    HW158572   9.378  12.303   5.490
52225SOL    HW258573   9.275  12.198   5.524
52226SOL     OW58574  10.262  11.593  11.540
52226SOL    HW158575  10.308  11.615  11.621
52226SOL    HW258576  10.202  11.666  11.526
52227SOL     OW58577  14.544   9.210  11.634
52227SOL    HW158578  14.589   9.162  11.564
52227SOL    HW258579  14.478   9.263  11.588
52228SOL     OW58580  14.619   9.871   1.417
52228SOL    HW158581  14.547   9.840   1.361
52228SOL    HW258582  14.586   9.954   1.453
52229SOL     OW58583   7.590  13.493   0.722
52229SOL    HW158584   7.544  13.567   0.762
52229SOL    HW258585   7.662  13.534   0.674
52230SOL     OW58586  12.631   7.216  11.940
52230SOL    HW158587  12.683   7.296  11.929
52230SOL    HW258588  12.616   7.185  11.850
52231SOL     OW58589   6.688  11.896  12.633
52231SOL    HW158590   6.618  11.840  12.666
52231SOL    HW258591   6.646  11.950  12.566
52232SOL     OW58592   9.851   6.384  14.573
52232SOL    HW158593   9.770   6.394  14.523
52232SOL    HW258594   9.918   6.426  14.520
52233SOL     OW58595   2.000   0.866   4.045
52233SOL    HW158596   1.915   0.876   4.087
52233SOL    HW258597   2.063   0.893   4.112
52234SOL     OW58598   5.516   9.441   8.190
52234SOL    HW158599   5.507   9.510   8.256
52234SOL    HW258600   5.428   9.431   8.153
52235SOL     OW58601  12.158   9.495   4.104
52235SOL    HW158602  12.184   9.523   4.017
52235SOL    HW258603  12.112   9.413   4.090
52236SOL     OW58604  11.914   0.376  10.301
52236SOL    HW158605  11.873   0.458  10.329
52236SOL    HW258606  12.001   0.378  10.341
52237SOL     OW58607   1.074   6.360  13.175
52237SOL    HW158608   1.027   6.300  13.118
52237SOL    HW258609   1.081   6.441  13.124
52238SOL     OW58610   6.703   3.542   6.246
52238SOL    HW158611   6.648   3.514   6.319
52238SOL    HW258612   6.685   3.478   6.177
52239SOL     OW58613   8.056   2.922   5.416
52239SOL    HW158614   8.133   2.943   5.364
52239SOL    HW258615   8.055   2.988   5.485
52240SOL     OW58616   6.107   6.668  14.797
52240SOL    HW158617   6.145   6.584  14.772
52240SOL    HW258618   6.014   6.650  14.808
52241SOL     OW58619   1.657   6.582  14.031
52241SOL    HW158620   1.589   6.638  14.069
52241SOL    HW258621   1.728   6.642  14.009
52242SOL     OW58622  10.532   2.774  14.281
52242SOL    HW158623  10.620   2.804  14.261
52242SOL    HW258624  10.475   2.825  14.222
52243SOL     OW58625   4.641   7.834   3.121
52243SOL    HW158626   4.546   7.836   3.121
52243SOL    HW258627   4.664   7.772   3.191
52244SOL     OW58628   0.923   2.181   8.694
52244SOL    HW158629   0.989   2.186   8.763
52244SOL    HW258630   0.849   2.231   8.729
52245SOL     OW58631  14.099  11.035  12.329
52245SOL    HW158632  14.186  11.002  12.306
52245SOL    HW258633  14.050  11.033  12.247
52246SOL     OW58634  13.695   8.620   2.129
52246SOL    HW158635  13.770   8.562   2.140
52246SOL    HW258636  13.679   8.621   2.034
52247SOL     OW58637  10.464   0.324  11.200
52247SOL    HW158638  10.409   0.249  11.178
52247SOL    HW258639  10.470   0.323  11.295
52248SOL     OW58640  13.380   5.082   6.917
52248SOL    HW158641  13.474   5.098   6.932
52248SOL    HW258642  13.340   5.169   6.922
52249SOL     OW58643  14.550   9.329  11.061
52249SOL    HW158644  14.519   9.374  10.983
52249SOL    HW258645  14.552   9.236  11.036
52250SOL     OW58646   3.233  10.043  13.266
52250SOL    HW158647   3.176   9.966  13.256
52250SOL    HW258648   3.315  10.007  13.299
52251SOL     OW58649  13.682   3.849   0.263
52251SOL    HW158650  13.739   3.824   0.190
52251SOL    HW258651  13.681   3.772   0.320
52252SOL     OW58652  13.797   4.078  13.126
52252SOL    HW158653  13.825   4.148  13.067
52252SOL    HW258654  13.820   4.109  13.213
52253SOL     OW58655   7.241   3.836   4.165
52253SOL    HW158656   7.308   3.793   4.217
52253SOL    HW258657   7.246   3.928   4.191
52254SOL     OW58658   2.822   6.532   8.116
52254SOL    HW158659   2.848   6.455   8.166
52254SOL    HW258660   2.899   6.589   8.118
52255SOL     OW58661  11.481   6.192   7.772
52255SOL    HW158662  11.524   6.277   7.762
52255SOL    HW258663  11.395   6.212   7.807
52256SOL     OW58664   2.055   7.021  10.603
52256SOL    HW158665   2.066   6.926  10.595
52256SOL    HW258666   2.105   7.044  10.681
52257SOL     OW58667   9.344   3.664  12.667
52257SOL    HW158668   9.353   3.686  12.574
52257SOL    HW258669   9.263   3.708  12.693
52258SOL     OW58670   9.082   0.919  11.140
52258SOL    HW158671   9.082   0.824  11.131
52258SOL    HW258672   8.990   0.944  11.131
52259SOL     OW58673   0.786   9.722   7.603
52259SOL    HW158674   0.860   9.701   7.547
52259SOL    HW258675   0.754   9.806   7.570
52260SOL     OW58676   0.826  13.358   4.273
52260SOL    HW158677   0.842  13.414   4.197
52260SOL    HW258678   0.780  13.414   4.335
52261SOL     OW58679   6.416   7.607   7.193
52261SOL    HW158680   6.401   7.672   7.125
52261SOL    HW258681   6.511   7.597   7.195
52262SOL     OW58682   5.719   7.805  10.847
52262SOL    HW158683   5.637   7.783  10.803
52262SOL    HW258684   5.757   7.721  10.872
52263SOL     OW58685   8.685  11.989  13.718
52263SOL    HW158686   8.643  11.953  13.640
52263SOL    HW258687   8.766  11.938  13.727
52264SOL     OW58688  10.019  11.544   8.839
52264SOL    HW158689  10.013  11.449   8.825
52264SOL    HW258690  10.068  11.576   8.764
52265SOL     OW58691   0.128  14.222  10.636
52265SOL    HW158692   0.151  14.256  10.549
52265SOL    HW258693   0.049  14.170  10.621
52266SOL     OW58694  13.229  12.144   0.284
52266SOL    HW158695  13.149  12.102   0.252
52266SOL    HW258696  13.300  12.092   0.245
52267SOL     OW58697   6.471   6.557   7.816
52267SOL    HW158698   6.513   6.534   7.899
52267SOL    HW258699   6.411   6.628   7.838
52268SOL     OW58700   0.668  11.815  10.989
52268SOL    HW158701   0.583  11.801  10.947
52268SOL    HW258702   0.732  11.792  10.922
52269SOL     OW58703  11.703  12.771  14.122
52269SOL    HW158704  11.688  12.775  14.027
52269SOL    HW258705  11.637  12.709  14.154
52270SOL     OW58706   9.753   4.865   2.088
52270SOL    HW158707   9.825   4.825   2.040
52270SOL    HW258708   9.691   4.794   2.104
52271SOL     OW58709   5.138   1.910   6.995
52271SOL    HW158710   5.052   1.914   7.039
52271SOL    HW258711   5.118   1.881   6.906
52272SOL     OW58712   7.908   2.561  12.325
52272SOL    HW158713   7.968   2.636  12.317
52272SOL    HW258714   7.825   2.594  12.290
52273SOL     OW58715   1.215  14.629   9.957
52273SOL    HW158716   1.200  14.539   9.929
52273SOL    HW258717   1.192  14.683   9.881
52274SOL     OW58718   3.833   6.367   4.486
52274SOL    HW158719   3.751   6.416   4.481
52274SOL    HW258720   3.825   6.315   4.565
52275SOL     OW58721   3.107   8.228   3.361
52275SOL    HW158722   3.106   8.323   3.353
52275SOL    HW258723   3.162   8.211   3.437
52276SOL     OW58724  14.344   8.159   0.423
52276SOL    HW158725  14.436   8.144   0.445
52276SOL    HW258726  14.295   8.102   0.482
52277SOL     OW58727   6.609   9.500   2.205
52277SOL    HW158728   6.678   9.519   2.269
52277SOL    HW258729   6.550   9.575   2.211
52278SOL     OW58730   3.767   0.282   7.480
52278SOL    HW158731   3.850   0.300   7.525
52278SOL    HW258732   3.722   0.219   7.536
52279SOL     OW58733   1.872   2.956  11.900
52279SOL    HW158734   1.875   2.904  11.980
52279SOL    HW258735   1.853   2.894  11.830
52280SOL     OW58736   2.874   8.765   1.952
52280SOL    HW158737   2.813   8.832   1.983
52280SOL    HW258738   2.846   8.746   1.863
52281SOL     OW58739   4.114   7.762   2.380
52281SOL    HW158740   4.082   7.681   2.341
52281SOL    HW258741   4.040   7.797   2.429
52282SOL     OW58742   5.577   7.505   9.063
52282SOL    HW158743   5.574   7.485   8.970
52282SOL    HW258744   5.650   7.452   9.096
52283SOL     OW58745  12.219   3.045   9.935
52283SOL    HW158746  12.263   3.021   9.853
52283SOL    HW258747  12.234   3.139   9.943
52284SOL     OW58748  10.251  10.209   0.833
52284SOL    HW158749  10.312  10.217   0.906
52284SOL    HW258750  10.300  10.243   0.758
52285SOL     OW58751  14.747   7.599   4.267
52285SOL    HW158752  14.689   7.667   4.233
52285SOL    HW258753  14.707   7.517   4.240
52286SOL     OW58754  10.880   7.130   8.179
52286SOL    HW158755  10.921   7.159   8.097
52286SOL    HW258756  10.945   7.072   8.219
52287SOL     OW58757  11.771   9.916  10.777
52287SOL    HW158758  11.681   9.943  10.758
52287SOL    HW258759  11.782   9.836  10.725
52288SOL     OW58760   9.738  13.875   2.001
52288SOL    HW158761   9.794  13.860   2.077
52288SOL    HW258762   9.790  13.843   1.927
52289SOL     OW58763   8.867  14.571  14.525
52289SOL    HW158764   8.864  14.634  14.597
52289SOL    HW258765   8.959  14.543  14.522
52290SOL     OW58766   9.624  11.443   7.252
52290SOL    HW158767   9.545  11.416   7.205
52290SOL    HW258768   9.668  11.505   7.193
52291SOL     OW58769   9.179   1.144   6.347
52291SOL    HW158770   9.248   1.209   6.363
52291SOL    HW258771   9.109   1.194   6.305
52292SOL     OW58772   7.621  10.790  13.010
52292SOL    HW158773   7.606  10.747  13.095
52292SOL    HW258774   7.551  10.855  13.004
52293SOL     OW58775   9.939  12.292   1.038
52293SOL    HW158776   9.891  12.217   1.004
52293SOL    HW258777   9.901  12.307   1.125
52294SOL     OW58778   2.202  10.086   8.676
52294SOL    HW158779   2.196  10.025   8.750
52294SOL    HW258780   2.128  10.061   8.620
52295SOL     OW58781   9.471   2.487   5.802
52295SOL    HW158782   9.562   2.517   5.801
52295SOL    HW258783   9.459   2.448   5.888
52296SOL     OW58784   3.533  11.367  12.076
52296SOL    HW158785   3.468  11.297  12.087
52296SOL    HW258786   3.481  11.442  12.047
52297SOL     OW58787   2.107  12.481   1.267
52297SOL    HW158788   2.059  12.420   1.211
52297SOL    HW258789   2.116  12.560   1.213
52298SOL     OW58790   1.908   3.162   8.647
52298SOL    HW158791   2.002   3.145   8.637
52298SOL    HW258792   1.901   3.216   8.726
52299SOL     OW58793  12.625  13.190   0.794
52299SOL    HW158794  12.626  13.138   0.874
52299SOL    HW258795  12.706  13.166   0.748
52300SOL     OW58796   2.686   9.327   6.049
52300SOL    HW158797   2.758   9.267   6.030
52300SOL    HW258798   2.717   9.412   6.018
52301SOL     OW58799  11.041  14.191   1.723
52301SOL    HW158800  10.980  14.265   1.721
52301SOL    HW258801  11.128  14.231   1.714
52302SOL     OW58802   1.124   3.534   1.430
52302SOL    HW158803   1.030   3.538   1.413
52302SOL    HW258804   1.132   3.489   1.514
52303SOL     OW58805   4.910   4.985   3.005
52303SOL    HW158806   4.835   4.947   2.959
52303SOL    HW258807   4.877   5.069   3.037
52304SOL     OW58808  14.178   9.709   5.338
52304SOL    HW158809  14.255   9.656   5.318
52304SOL    HW258810  14.164   9.761   5.260
52305SOL     OW58811   1.185   3.036   0.611
52305SOL    HW158812   1.095   3.051   0.583
52305SOL    HW258813   1.209   2.952   0.572
52306SOL     OW58814   4.738   4.842   1.398
52306SOL    HW158815   4.816   4.807   1.355
52306SOL    HW258816   4.761   4.847   1.490
52307SOL     OW58817   8.271   4.134   3.891
52307SOL    HW158818   8.183   4.144   3.927
52307SOL    HW258819   8.262   4.065   3.825
52308SOL     OW58820   8.257   1.530   0.547
52308SOL    HW158821   8.346   1.500   0.525
52308SOL    HW258822   8.204   1.451   0.545
52309SOL     OW58823   6.051   6.717   7.980
52309SOL    HW158824   5.994   6.670   7.919
52309SOL    HW258825   6.086   6.649   8.037
52310SOL     OW58826  14.222   6.912   3.887
52310SOL    HW158827  14.141   6.933   3.840
52310SOL    HW258828  14.291   6.952   3.834
52311SOL     OW58829   7.070   2.235   3.610
52311SOL    HW158830   7.042   2.284   3.688
52311SOL    HW258831   7.163   2.217   3.625
52312SOL     OW58832   9.444   8.837  12.744
52312SOL    HW158833   9.379   8.769  12.763
52312SOL    HW258834   9.395   8.905  12.698
52313SOL     OW58835   3.307  13.367   7.008
52313SOL    HW158836   3.213  13.385   7.020
52313SOL    HW258837   3.337  13.437   6.950
52314SOL     OW58838   4.127   2.803   6.161
52314SOL    HW158839   4.117   2.896   6.137
52314SOL    HW258840   4.065   2.790   6.232
52315SOL     OW58841  10.487  12.060   3.002
52315SOL    HW158842  10.559  12.091   3.057
52315SOL    HW258843  10.443  12.140   2.973
52316SOL     OW58844   6.749  11.732   4.990
52316SOL    HW158845   6.671  11.748   5.043
52316SOL    HW258846   6.716  11.703   4.905
52317SOL     OW58847  11.617   5.262   0.088
52317SOL    HW158848  11.571   5.261   0.004
52317SOL    HW258849  11.645   5.172   0.101
52318SOL     OW58850   3.077  10.682   0.655
52318SOL    HW158851   3.093  10.605   0.600
52318SOL    HW258852   3.046  10.749   0.595
52319SOL     OW58853  13.551   0.358   9.190
52319SOL    HW158854  13.480   0.420   9.172
52319SOL    HW258855  13.569   0.369   9.283
52320SOL     OW58856   9.308   9.448  12.998
52320SOL    HW158857   9.245   9.412  13.061
52320SOL    HW258858   9.274   9.422  12.913
52321SOL     OW58859   4.037   1.994   3.171
52321SOL    HW158860   4.012   1.987   3.079
52321SOL    HW258861   4.055   2.087   3.184
52322SOL     OW58862   0.105  14.608   0.205
52322SOL    HW158863   0.137  14.528   0.248
52322SOL    HW258864   0.061  14.576   0.126
52323SOL     OW58865   7.841   3.087  11.729
52323SOL    HW158866   7.816   3.023  11.796
52323SOL    HW258867   7.768   3.148  11.726
52324SOL     OW58868   0.737   3.291   7.894
52324SOL    HW158869   0.821   3.256   7.924
52324SOL    HW258870   0.746   3.299   7.799
52325SOL     OW58871  10.629   7.802   2.250
52325SOL    HW158872  10.594   7.779   2.164
52325SOL    HW258873  10.577   7.878   2.278
52326SOL     OW58874   3.571   0.934   1.217
52326SOL    HW158875   3.518   0.977   1.149
52326SOL    HW258876   3.523   0.854   1.237
52327SOL     OW58877   8.354   7.192  13.277
52327SOL    HW158878   8.275   7.139  13.271
52327SOL    HW258879   8.409   7.160  13.206
52328SOL     OW58880  14.808   6.365   8.473
52328SOL    HW158881  14.851   6.450   8.477
52328SOL    HW258882   0.007   6.303   8.502
52329SOL     OW58883   8.226   4.028   1.781
52329SOL    HW158884   8.283   4.044   1.856
52329SOL    HW258885   8.140   4.056   1.811
52330SOL     OW58886   3.820   6.671   1.606
52330SOL    HW158887   3.885   6.621   1.557
52330SOL    HW258888   3.768   6.716   1.539
52331SOL     OW58889   0.508  14.022   6.272
52331SOL    HW158890   0.447  13.987   6.337
52331SOL    HW258891   0.513  14.116   6.292
52332SOL     OW58892   1.706   0.442  14.742
52332SOL    HW158893   1.736   0.379  14.676
52332SOL    HW258894   1.650   0.392  14.801
52333SOL     OW58895   5.943   4.713  13.430
52333SOL    HW158896   5.857   4.752  13.449
52333SOL    HW258897   6.001   4.747  13.498
52334SOL     OW58898   4.279  13.482   9.141
52334SOL    HW158899   4.353  13.534   9.110
52334SOL    HW258900   4.316  13.396   9.161
52335SOL     OW58901  14.354   8.968  11.079
52335SOL    HW158902  14.401   8.886  11.064
52335SOL    HW258903  14.416   9.036  11.054
52336SOL     OW58904   7.494   9.673  10.217
52336SOL    HW158905   7.420   9.682  10.277
52336SOL    HW258906   7.568   9.710  10.265
52337SOL     OW58907  13.074   0.139   3.830
52337SOL    HW158908  13.160   0.116   3.864
52337SOL    HW258909  13.044   0.060   3.785
52338SOL     OW58910  10.970  14.334   9.015
52338SOL    HW158911  11.046  14.328   9.073
52338SOL    HW258912  10.992  14.280   8.939
52339SOL     OW58913   1.232   7.358   3.094
52339SOL    HW158914   1.321   7.324   3.083
52339SOL    HW258915   1.241   7.426   3.162
52340SOL     OW58916   4.229  10.610   9.956
52340SOL    HW158917   4.140  10.601   9.990
52340SOL    HW258918   4.260  10.520   9.945
52341SOL     OW58919  11.649   2.281   5.258
52341SOL    HW158920  11.711   2.304   5.189
52341SOL    HW258921  11.658   2.352   5.321
52342SOL     OW58922  10.726   0.885  11.321
52342SOL    HW158923  10.653   0.826  11.341
52342SOL    HW258924  10.701   0.968  11.362
52343SOL     OW58925  10.476  11.090   2.625
52343SOL    HW158926  10.511  11.155   2.564
52343SOL    HW258927  10.412  11.041   2.573
52344SOL     OW58928   4.446  13.225   7.513
52344SOL    HW158929   4.371  13.272   7.476
52344SOL    HW258930   4.462  13.155   7.450
52345SOL     OW58931  10.135   7.448  14.074
52345SOL    HW158932  10.108   7.537  14.052
52345SOL    HW258933  10.190   7.420  14.001
52346SOL     OW58934   2.598   1.208   4.799
52346SOL    HW158935   2.515   1.161   4.794
52346SOL    HW258936   2.648   1.160   4.866
52347SOL     OW58937  13.408   7.914   9.347
52347SOL    HW158938  13.435   7.827   9.376
52347SOL    HW258939  13.485   7.969   9.360
52348SOL     OW58940  11.251  12.371   5.224
52348SOL    HW158941  11.215  12.298   5.275
52348SOL    HW258942  11.207  12.366   5.140
52349SOL     OW58943   1.312   8.161  12.131
52349SOL    HW158944   1.346   8.249  12.112
52349SOL    HW258945   1.329   8.112  12.051
52350SOL     OW58946   1.781   0.240  12.297
52350SOL    HW158947   1.719   0.306  12.329
52350SOL    HW258948   1.751   0.221  12.207
52351SOL     OW58949   5.858   7.742   1.402
52351SOL    HW158950   5.817   7.824   1.429
52351SOL    HW258951   5.917   7.767   1.331
52352SOL     OW58952   9.592   2.493   1.625
52352SOL    HW158953   9.584   2.459   1.714
52352SOL    HW258954   9.683   2.520   1.617
52353SOL     OW58955   6.713   7.621  10.104
52353SOL    HW158956   6.763   7.694  10.069
52353SOL    HW258957   6.621   7.645  10.091
52354SOL     OW58958   0.476   1.279  13.722
52354SOL    HW158959   0.535   1.323  13.784
52354SOL    HW258960   0.411   1.345  13.700
52355SOL     OW58961   9.162  13.289   8.290
52355SOL    HW158962   9.216  13.254   8.220
52355SOL    HW258963   9.135  13.212   8.340
52356SOL     OW58964  12.314   0.813   8.094
52356SOL    HW158965  12.257   0.747   8.055
52356SOL    HW258966  12.399   0.800   8.052
52357SOL     OW58967  11.600  11.469  12.149
52357SOL    HW158968  11.572  11.412  12.221
52357SOL    HW258969  11.571  11.557  12.175
52358SOL     OW58970   5.717   3.916   6.397
52358SOL    HW158971   5.674   3.895   6.480
52358SOL    HW258972   5.657   3.976   6.353
52359SOL     OW58973   5.331  14.531  14.860
52359SOL    HW158974   5.264  14.552   0.057
52359SOL    HW258975   5.317  14.439  14.841
52360SOL     OW58976   8.772  13.737   3.955
52360SOL    HW158977   8.866  13.743   3.974
52360SOL    HW258978   8.730  13.780   4.030
52361SOL     OW58979   1.096   4.287  10.991
52361SOL    HW158980   1.003   4.266  10.986
52361SOL    HW258981   1.106   4.368  10.942
52362SOL     OW58982   2.436  12.495   9.733
52362SOL    HW158983   2.357  12.478   9.786
52362SOL    HW258984   2.426  12.585   9.703
52363SOL     OW58985   8.140   5.354  10.027
52363SOL    HW158986   8.154   5.428   9.968
52363SOL    HW258987   8.099   5.287   9.971
52364SOL     OW58988   4.952  12.770   0.494
52364SOL    HW158989   5.008  12.735   0.563
52364SOL    HW258990   4.932  12.695   0.438
52365SOL     OW58991   1.568   7.519   2.959
52365SOL    HW158992   1.635   7.562   3.012
52365SOL    HW258993   1.487   7.530   3.009
52366SOL     OW58994   2.669   5.658   4.671
52366SOL    HW158995   2.760   5.662   4.641
52366SOL    HW258996   2.668   5.588   4.735
52367SOL     OW58997  12.727   4.562   6.335
52367SOL    HW158998  12.782   4.548   6.412
52367SOL    HW258999  12.703   4.655   6.339
52368SOL     OW59000   7.518   6.639   0.633
52368SOL    HW159001   7.453   6.592   0.686
52368SOL    HW259002   7.556   6.703   0.694
52369SOL     OW59003   3.376   3.998   0.520
52369SOL    HW159004   3.311   4.023   0.585
52369SOL    HW259005   3.457   4.041   0.548
52370SOL     OW59006   9.333  12.947  11.168
52370SOL    HW159007   9.252  12.964  11.217
52370SOL    HW259008   9.350  13.028  11.122
52371SOL     OW59009   6.462   3.289  10.445
52371SOL    HW159010   6.535   3.256  10.393
52371SOL    HW259011   6.487   3.379  10.467
52372SOL     OW59012   1.484   2.634   8.796
52372SOL    HW159013   1.426   2.654   8.870
52372SOL    HW259014   1.435   2.662   8.719
52373SOL     OW59015   3.374   6.720   8.477
52373SOL    HW159016   3.408   6.692   8.562
52373SOL    HW259017   3.452   6.751   8.430
52374SOL     OW59018   3.281  11.089   2.909
52374SOL    HW159019   3.195  11.089   2.952
52374SOL    HW259020   3.342  11.117   2.977
52375SOL     OW59021   8.003   1.574   1.456
52375SOL    HW159022   7.912   1.579   1.427
52375SOL    HW259023   8.030   1.665   1.465
52376SOL     OW59024   7.659   3.245   5.572
52376SOL    HW159025   7.564   3.234   5.574
52376SOL    HW259026   7.691   3.191   5.644
52377SOL     OW59027   4.296   1.168  14.219
52377SOL    HW159028   4.255   1.113  14.285
52377SOL    HW259029   4.223   1.200  14.165
52378SOL     OW59030  11.000   7.530  10.581
52378SOL    HW159031  10.973   7.528  10.673
52378SOL    HW259032  11.075   7.589  10.579
52379SOL     OW59033   0.472   1.604  13.568
52379SOL    HW159034   0.397   1.651  13.534
52379SOL    HW259035   0.536   1.672  13.590
52380SOL     OW59036   4.368   3.030   3.537
52380SOL    HW159037   4.373   3.043   3.632
52380SOL    HW259038   4.386   3.116   3.500
52381SOL     OW59039   6.451  13.358  12.085
52381SOL    HW159040   6.363  13.319  12.079
52381SOL    HW259041   6.434  13.452  12.092
52382SOL     OW59042   7.184   5.942  14.772
52382SOL    HW159043   7.249   5.890  14.726
52382SOL    HW259044   7.225   5.962  14.857
52383SOL     OW59045   3.001  13.988  11.400
52383SOL    HW159046   2.947  13.950  11.331
52383SOL    HW259047   2.963  13.954  11.481
52384SOL     OW59048   7.715   0.606   6.368
52384SOL    HW159049   7.774   0.534   6.346
52384SOL    HW259050   7.628   0.566   6.369
52385SOL     OW59051   6.587   0.555  12.441
52385SOL    HW159052   6.623   0.642  12.429
52385SOL    HW259053   6.636   0.518  12.514
52386SOL     OW59054  10.135   7.843   1.505
52386SOL    HW159055  10.151   7.807   1.593
52386SOL    HW259056  10.045   7.819   1.485
52387SOL     OW59057   4.217  11.364   8.294
52387SOL    HW159058   4.151  11.365   8.224
52387SOL    HW259059   4.246  11.455   8.300
52388SOL     OW59060   6.945   3.031   4.409
52388SOL    HW159061   6.870   2.979   4.436
52388SOL    HW259062   6.907   3.107   4.365
52389SOL     OW59063  13.537  12.961   5.517
52389SOL    HW159064  13.527  13.003   5.432
52389SOL    HW259065  13.451  12.924   5.536
52390SOL     OW59066   2.752  11.965   6.899
52390SOL    HW159067   2.779  11.884   6.943
52390SOL    HW259068   2.785  11.955   6.809
52391SOL     OW59069  14.579   5.376  12.286
52391SOL    HW159070  14.581   5.378  12.381
52391SOL    HW259071  14.576   5.468  12.260
52392SOL     OW59072  10.122   5.684   2.211
52392SOL    HW159073  10.116   5.591   2.188
52392SOL    HW259074  10.190   5.687   2.279
52393SOL     OW59075   4.883  11.297   4.302
52393SOL    HW159076   4.797  11.322   4.269
52393SOL    HW259077   4.884  11.328   4.393
52394SOL     OW59078   4.766  11.962   3.154
52394SOL    HW159079   4.786  11.913   3.234
52394SOL    HW259080   4.782  11.899   3.084
52395SOL     OW59081   1.244   2.367  11.381
52395SOL    HW159082   1.290   2.365  11.465
52395SOL    HW259083   1.227   2.460  11.366
52396SOL     OW59084  14.263   0.001   4.618
52396SOL    HW159085  14.266  14.831   4.705
52396SOL    HW259086  14.268   0.096   4.633
52397SOL     OW59087   6.974  12.230   7.217
52397SOL    HW159088   6.921  12.270   7.287
52397SOL    HW259089   7.039  12.177   7.264
52398SOL     OW59090   8.550  14.136  11.088
52398SOL    HW159091   8.471  14.162  11.134
52398SOL    HW259092   8.557  14.198  11.015
52399SOL     OW59093  12.823  11.103   2.854
52399SOL    HW159094  12.754  11.161   2.822
52399SOL    HW259095  12.778  11.022   2.877
52400SOL     OW59096  11.251   0.343   6.587
52400SOL    HW159097  11.200   0.361   6.665
52400SOL    HW259098  11.226   0.254   6.560
52401SOL     OW59099   7.957  12.972  10.324
52401SOL    HW159100   8.038  12.931  10.352
52401SOL    HW259101   7.959  13.059  10.363
52402SOL     OW59102   1.858  11.813   8.433
52402SOL    HW159103   1.849  11.725   8.469
52402SOL    HW259104   1.908  11.861   8.499
52403SOL     OW59105   6.187  11.654   1.025
52403SOL    HW159106   6.231  11.708   0.959
52403SOL    HW259107   6.257  11.627   1.084
52404SOL     OW59108   6.191   5.515   5.790
52404SOL    HW159109   6.097   5.515   5.776
52404SOL    HW259110   6.218   5.425   5.774
52405SOL     OW59111   4.288   5.968   5.481
52405SOL    HW159112   4.362   5.933   5.431
52405SOL    HW259113   4.320   6.051   5.516
52406SOL     OW59114   4.455  10.561  10.188
52406SOL    HW159115   4.402  10.577  10.266
52406SOL    HW259116   4.404  10.499  10.136
52407SOL     OW59117   9.433  12.854   8.379
52407SOL    HW159118   9.470  12.769   8.402
52407SOL    HW259119   9.347  12.855   8.421
52408SOL     OW59120  13.606   8.111   7.018
52408SOL    HW159121  13.638   8.026   7.048
52408SOL    HW259122  13.568   8.151   7.096
52409SOL     OW59123   8.528   7.806   9.657
52409SOL    HW159124   8.587   7.731   9.648
52409SOL    HW259125   8.533   7.830   9.750
52410SOL     OW59126   8.648  13.159  13.942
52410SOL    HW159127   8.616  13.238  13.986
52410SOL    HW259128   8.737  13.182  13.915
52411SOL     OW59129  11.369   4.466   4.474
52411SOL    HW159130  11.321   4.528   4.529
52411SOL    HW259131  11.362   4.503   4.386
52412SOL     OW59132   4.693  13.873   9.695
52412SOL    HW159133   4.769  13.817   9.709
52412SOL    HW259134   4.622  13.830   9.742
52413SOL     OW59135  10.227   8.476   2.388
52413SOL    HW159136  10.235   8.490   2.294
52413SOL    HW259137  10.201   8.561   2.423
52414SOL     OW59138  12.385  12.340  10.703
52414SOL    HW159139  12.350  12.300  10.623
52414SOL    HW259140  12.480  12.336  10.692
52415SOL     OW59141  12.317   8.738   0.831
52415SOL    HW159142  12.357   8.768   0.913
52415SOL    HW259143  12.391   8.714   0.775
52416SOL     OW59144   8.815  10.096   2.667
52416SOL    HW159145   8.787  10.102   2.758
52416SOL    HW259146   8.910  10.083   2.671
52417SOL     OW59147   9.812   7.254   9.105
52417SOL    HW159148   9.808   7.204   9.023
52417SOL    HW259149   9.849   7.193   9.169
52418SOL     OW59150   2.121   1.805   3.975
52418SOL    HW159151   2.055   1.819   3.908
52418SOL    HW259152   2.178   1.882   3.969
52419SOL     OW59153  12.860   6.277   7.681
52419SOL    HW159154  12.795   6.320   7.736
52419SOL    HW259155  12.832   6.297   7.591
52420SOL     OW59156   8.947   3.804   5.702
52420SOL    HW159157   8.897   3.847   5.771
52420SOL    HW259158   8.921   3.850   5.622
52421SOL     OW59159  14.181   5.036   1.991
52421SOL    HW159160  14.210   4.997   1.908
52421SOL    HW259161  14.251   5.015   2.053
52422SOL     OW59162   8.131  13.319   8.995
52422SOL    HW159163   8.048  13.346   8.956
52422SOL    HW259164   8.142  13.377   9.070
52423SOL     OW59165   5.142  13.325   2.730
52423SOL    HW159166   5.121  13.360   2.816
52423SOL    HW259167   5.063  13.341   2.677
52424SOL     OW59168   5.569   6.491  10.849
52424SOL    HW159169   5.551   6.403  10.881
52424SOL    HW259170   5.491   6.515  10.799
52425SOL     OW59171   3.157   6.339  14.655
52425SOL    HW159172   3.221   6.348  14.726
52425SOL    HW259173   3.074   6.365  14.694
52426SOL     OW59174   1.526   3.994   6.122
52426SOL    HW159175   1.449   3.939   6.134
52426SOL    HW259176   1.566   3.999   6.208
52427SOL     OW59177   5.717  14.340  11.997
52427SOL    HW159178   5.631  14.357  11.960
52427SOL    HW259179   5.768  14.304  11.924
52428SOL     OW59180   9.549  11.374   9.381
52428SOL    HW159181   9.512  11.287   9.364
52428SOL    HW259182   9.644  11.359   9.386
52429SOL     OW59183   7.840   1.349  13.300
52429SOL    HW159184   7.762   1.305  13.265
52429SOL    HW259185   7.831   1.440  13.272
52430SOL     OW59186   3.934   4.034   6.001
52430SOL    HW159187   3.896   3.996   5.922
52430SOL    HW259188   4.025   4.052   5.978
52431SOL     OW59189   1.506   0.064   9.764
52431SOL    HW159190   1.584   0.119   9.759
52431SOL    HW259191   1.538  14.847   9.795
52432SOL     OW59192  14.700   4.166  13.457
52432SOL    HW159193  14.711   4.153  13.552
52432SOL    HW259194  14.787   4.189  13.426
52433SOL     OW59195  13.939   2.363   4.317
52433SOL    HW159196  13.872   2.297   4.334
52433SOL    HW259197  13.968   2.344   4.228
52434SOL     OW59198  13.823   7.992   8.111
52434SOL    HW159199  13.772   7.915   8.086
52434SOL    HW259200  13.903   7.957   8.150
52435SOL     OW59201   8.265   5.737  12.591
52435SOL    HW159202   8.191   5.708  12.538
52435SOL    HW259203   8.334   5.672  12.574
52436SOL     OW59204   3.761  13.851   3.090
52436SOL    HW159205   3.706  13.789   3.137
52436SOL    HW259206   3.701  13.901   3.036
52437SOL     OW59207  13.715   5.753   0.652
52437SOL    HW159208  13.731   5.825   0.712
52437SOL    HW259209  13.745   5.675   0.699
52438SOL     OW59210   2.008  14.755   7.236
52438SOL    HW159211   1.994  14.826   7.174
52438SOL    HW259212   2.067  14.694   7.191
52439SOL     OW59213   7.181  14.206   6.857
52439SOL    HW159214   7.191  14.296   6.890
52439SOL    HW259215   7.103  14.209   6.801
52440SOL     OW59216   5.911  12.286   6.850
52440SOL    HW159217   5.924  12.281   6.945
52440SOL    HW259218   5.837  12.346   6.839
52441SOL     OW59219   0.500   6.346   3.326
52441SOL    HW159220   0.436   6.275   3.337
52441SOL    HW259221   0.554   6.319   3.253
52442SOL     OW59222   3.558   3.988   5.558
52442SOL    HW159223   3.537   3.901   5.591
52442SOL    HW259224   3.479   4.040   5.573
52443SOL     OW59225   1.864   9.210   0.454
52443SOL    HW159226   1.950   9.252   0.455
52443SOL    HW259227   1.818   9.247   0.529
52444SOL     OW59228   8.680   3.836   2.126
52444SOL    HW159229   8.626   3.759   2.145
52444SOL    HW259230   8.694   3.833   2.031
52445SOL     OW59231   7.476   3.862   6.556
52445SOL    HW159232   7.386   3.831   6.547
52445SOL    HW259233   7.520   3.793   6.605
52446SOL     OW59234   4.426   0.713   5.996
52446SOL    HW159235   4.344   0.684   6.037
52446SOL    HW259236   4.459   0.634   5.952
52447SOL     OW59237   0.656   8.385   0.787
52447SOL    HW159238   0.712   8.309   0.771
52447SOL    HW259239   0.687   8.420   0.870
52448SOL     OW59240   5.184  12.617  11.805
52448SOL    HW159241   5.122  12.599  11.875
52448SOL    HW259242   5.203  12.711  11.813
52449SOL     OW59243   1.597   7.061   1.539
52449SOL    HW159244   1.549   7.137   1.505
52449SOL    HW259245   1.540   7.025   1.607
52450SOL     OW59246  12.983  13.860   8.033
52450SOL    HW159247  12.985  13.806   7.954
52450SOL    HW259248  12.981  13.950   8.000
52451SOL     OW59249   6.905   9.853   9.061
52451SOL    HW159250   6.920   9.904   9.141
52451SOL    HW259251   6.847   9.782   9.089
52452SOL     OW59252  13.167   5.814   0.409
52452SOL    HW159253  13.079   5.835   0.377
52452SOL    HW259254  13.189   5.885   0.468
52453SOL     OW59255   4.519  13.504  13.070
52453SOL    HW159256   4.551  13.567  13.136
52453SOL    HW259257   4.505  13.423  13.119
52454SOL     OW59258   1.587   2.035   2.450
52454SOL    HW159259   1.607   2.126   2.429
52454SOL    HW259260   1.498   2.021   2.417
52455SOL     OW59261   8.282   3.211   9.545
52455SOL    HW159262   8.204   3.158   9.526
52455SOL    HW259263   8.345   3.186   9.478
52456SOL     OW59264   0.363   2.565   1.290
52456SOL    HW159265   0.444   2.547   1.242
52456SOL    HW259266   0.390   2.626   1.359
52457SOL     OW59267   5.329   2.407   7.394
52457SOL    HW159268   5.422   2.431   7.393
52457SOL    HW259269   5.283   2.488   7.374
52458SOL     OW59270   0.678  13.268   3.012
52458SOL    HW159271   0.703  13.317   3.090
52458SOL    HW259272   0.582  13.264   3.016
52459SOL     OW59273  11.216   1.374   6.909
52459SOL    HW159274  11.271   1.308   6.867
52459SOL    HW259275  11.210   1.346   7.000
52460SOL     OW59276  10.153  12.945  10.726
52460SOL    HW159277  10.110  12.945  10.640
52460SOL    HW259278  10.246  12.954  10.706
52461SOL     OW59279   7.447  12.347  12.308
52461SOL    HW159280   7.438  12.286  12.235
52461SOL    HW259281   7.357  12.368  12.333
52462SOL     OW59282  13.542   2.158   5.651
52462SOL    HW159283  13.466   2.173   5.595
52462SOL    HW259284  13.532   2.067   5.681
52463SOL     OW59285   3.708   0.444   7.035
52463SOL    HW159286   3.769   0.400   7.094
52463SOL    HW259287   3.709   0.536   7.064
52464SOL     OW59288   4.350   7.139   9.579
52464SOL    HW159289   4.435   7.117   9.617
52464SOL    HW259290   4.333   7.068   9.516
52465SOL     OW59291   8.687  12.520   6.088
52465SOL    HW159292   8.681  12.429   6.059
52465SOL    HW259293   8.679  12.571   6.007
52466SOL     OW59294   6.833   2.874   0.046
52466SOL    HW159295   6.836   2.968   0.060
52466SOL    HW259296   6.784   2.840   0.121
52467SOL     OW59297   1.611   1.041   6.605
52467SOL    HW159298   1.531   0.996   6.580
52467SOL    HW259299   1.581   1.119   6.652
52468SOL     OW59300   0.751   7.451   7.574
52468SOL    HW159301   0.745   7.406   7.490
52468SOL    HW259302   0.836   7.495   7.571
52469SOL     OW59303   0.501   4.167   6.692
52469SOL    HW159304   0.440   4.150   6.620
52469SOL    HW259305   0.470   4.110   6.763
52470SOL     OW59306  10.768   0.330  10.370
52470SOL    HW159307  10.753   0.235  10.376
52470SOL    HW259308  10.853   0.338  10.328
52471SOL     OW59309   9.993  13.748   0.507
52471SOL    HW159310  10.029  13.831   0.477
52471SOL    HW259311   9.975  13.699   0.427
52472SOL     OW59312  13.077   5.052  11.042
52472SOL    HW159313  13.091   5.069  11.135
52472SOL    HW259314  12.982   5.051  11.032
52473SOL     OW59315   0.459   2.113  12.718
52473SOL    HW159316   0.494   2.152  12.638
52473SOL    HW259317   0.510   2.033  12.730
52474SOL     OW59318   5.627   6.341   1.474
52474SOL    HW159319   5.606   6.429   1.503
52474SOL    HW259320   5.619   6.287   1.553
52475SOL     OW59321  10.410   3.256  14.114
52475SOL    HW159322  10.346   3.187  14.131
52475SOL    HW259323  10.455   3.228  14.034
52476SOL     OW59324  11.623  12.704   2.637
52476SOL    HW159325  11.545  12.724   2.584
52476SOL    HW259326  11.602  12.738   2.724
52477SOL     OW59327   2.174   4.055   8.969
52477SOL    HW159328   2.181   4.115   8.895
52477SOL    HW259329   2.264   4.045   8.999
52478SOL     OW59330   4.750   8.813   9.975
52478SOL    HW159331   4.669   8.844   9.934
52478SOL    HW259332   4.745   8.846  10.065
52479SOL     OW59333  12.928   2.609   3.879
52479SOL    HW159334  12.874   2.664   3.822
52479SOL    HW259335  12.924   2.652   3.964
52480SOL     OW59336   2.415   7.084  12.411
52480SOL    HW159337   2.407   7.038  12.328
52480SOL    HW259338   2.348   7.045  12.467
52481SOL     OW59339  10.099   8.424   1.698
52481SOL    HW159340  10.011   8.450   1.729
52481SOL    HW259341  10.092   8.425   1.603
52482SOL     OW59342   3.099   6.828   9.373
52482SOL    HW159343   3.108   6.872   9.458
52482SOL    HW259344   3.174   6.768   9.370
52483SOL     OW59345   2.511  14.739   1.030
52483SOL    HW159346   2.532  14.645   1.027
52483SOL    HW259347   2.456  14.749   1.108
52484SOL     OW59348   4.261   3.878   6.218
52484SOL    HW159349   4.229   3.931   6.291
52484SOL    HW259350   4.291   3.943   6.153
52485SOL     OW59351   5.666  14.603  12.735
52485SOL    HW159352   5.683  14.552  12.655
52485SOL    HW259353   5.628  14.685  12.703
52486SOL     OW59354   5.264  14.090   1.833
52486SOL    HW159355   5.268  14.186   1.830
52486SOL    HW259356   5.278  14.069   1.926
52487SOL     OW59357  13.488   9.954  12.751
52487SOL    HW159358  13.484   9.903  12.831
52487SOL    HW259359  13.402   9.995  12.743
52488SOL     OW59360   3.484  10.964   9.260
52488SOL    HW159361   3.480  11.056   9.232
52488SOL    HW259362   3.448  10.964   9.348
52489SOL     OW59363   6.901   3.945   6.600
52489SOL    HW159364   6.858   3.876   6.549
52489SOL    HW259365   6.845   3.957   6.677
52490SOL     OW59366   5.740   0.719   2.564
52490SOL    HW159367   5.719   0.633   2.602
52490SOL    HW259368   5.834   0.716   2.550
52491SOL     OW59369   5.004   1.403  12.455
52491SOL    HW159370   5.084   1.457  12.463
52491SOL    HW259371   4.933   1.466  12.454
52492SOL     OW59372   3.238   6.115  12.686
52492SOL    HW159373   3.181   6.095  12.612
52492SOL    HW259374   3.218   6.047  12.750
52493SOL     OW59375   1.175  12.033   0.028
52493SOL    HW159376   1.174  12.116   0.075
52493SOL    HW259377   1.267  12.020   0.004
52494SOL     OW59378   6.297  11.757  13.058
52494SOL    HW159379   6.387  11.783  13.079
52494SOL    HW259380   6.244  11.794  13.127
52495SOL     OW59381   4.128   6.951  14.211
52495SOL    HW159382   4.108   6.957  14.117
52495SOL    HW259383   4.211   6.903  14.215
52496SOL     OW59384   9.668  12.324   3.026
52496SOL    HW159385   9.740  12.269   3.060
52496SOL    HW259386   9.645  12.284   2.942
52497SOL     OW59387   2.865   4.990   8.439
52497SOL    HW159388   2.901   5.077   8.419
52497SOL    HW259389   2.937   4.930   8.421
52498SOL     OW59390   6.413   8.665   7.039
52498SOL    HW159391   6.497   8.664   7.085
52498SOL    HW259392   6.347   8.657   7.107
52499SOL     OW59393  10.480   0.613   9.819
52499SOL    HW159394  10.396   0.644   9.787
52499SOL    HW259395  10.461   0.578   9.907
52500SOL     OW59396   8.838   7.589   3.262
52500SOL    HW159397   8.906   7.631   3.315
52500SOL    HW259398   8.756   7.625   3.295
52501SOL     OW59399  14.791   5.813   5.711
52501SOL    HW159400  14.725   5.876   5.681
52501SOL    HW259401  14.832   5.781   5.631
52502SOL     OW59402   6.708  13.150   4.681
52502SOL    HW159403   6.668  13.094   4.747
52502SOL    HW259404   6.802  13.138   4.693
52503SOL     OW59405   0.993   0.806   1.154
52503SOL    HW159406   0.908   0.775   1.121
52503SOL    HW259407   1.032   0.729   1.196
52504SOL     OW59408  12.596   3.146   0.734
52504SOL    HW159409  12.557   3.060   0.716
52504SOL    HW259410  12.678   3.145   0.686
52505SOL     OW59411  11.611  12.113   4.366
52505SOL    HW159412  11.527  12.096   4.323
52505SOL    HW259413  11.612  12.053   4.440
52506SOL     OW59414   9.576   5.312   4.533
52506SOL    HW159415   9.621   5.305   4.617
52506SOL    HW259416   9.535   5.227   4.521
52507SOL     OW59417   4.461   5.855   9.914
52507SOL    HW159418   4.420   5.864   9.828
52507SOL    HW259419   4.393   5.815   9.968
52508SOL     OW59420   6.158   7.572   8.312
52508SOL    HW159421   6.115   7.639   8.366
52508SOL    HW259422   6.153   7.606   8.223
52509SOL     OW59423   3.484  11.010  13.250
52509SOL    HW159424   3.502  10.996  13.157
52509SOL    HW259425   3.555  11.068  13.279
52510SOL     OW59426   3.026   5.781   2.211
52510SOL    HW159427   3.026   5.813   2.301
52510SOL    HW259428   2.934   5.778   2.187
52511SOL     OW59429   5.686   7.758   3.468
52511SOL    HW159430   5.709   7.781   3.558
52511SOL    HW259431   5.595   7.730   3.473
52512SOL     OW59432   0.646   0.775   8.606
52512SOL    HW159433   0.700   0.698   8.624
52512SOL    HW259434   0.709   0.847   8.599
52513SOL     OW59435   7.611  10.582  11.398
52513SOL    HW159436   7.620  10.509  11.337
52513SOL    HW259437   7.574  10.542  11.477
52514SOL     OW59438  10.020   9.745  11.252
52514SOL    HW159439  10.015   9.826  11.202
52514SOL    HW259440  10.052   9.680  11.189
52515SOL     OW59441  10.536  11.144   0.135
52515SOL    HW159442  10.617  11.113   0.095
52515SOL    HW259443  10.479  11.067   0.138
52516SOL     OW59444   8.087  13.599   3.683
52516SOL    HW159445   8.096  13.676   3.740
52516SOL    HW259446   8.035  13.630   3.609
52517SOL     OW59447   5.811   7.130   3.102
52517SOL    HW159448   5.736   7.119   3.161
52517SOL    HW259449   5.884   7.153   3.160
52518SOL     OW59450  14.695   7.018   3.721
52518SOL    HW159451  14.638   6.967   3.663
52518SOL    HW259452  14.743   7.076   3.663
52519SOL     OW59453   3.276   6.423   6.931
52519SOL    HW159454   3.352   6.479   6.915
52519SOL    HW259455   3.275   6.411   7.026
52520SOL     OW59456  10.821   2.099   9.969
52520SOL    HW159457  10.768   2.027  10.004
52520SOL    HW259458  10.842   2.152  10.046
52521SOL     OW59459  13.543   9.949   0.459
52521SOL    HW159460  13.632   9.960   0.492
52521SOL    HW259461  13.497  10.028   0.487
52522SOL     OW59462  13.756  10.043   4.452
52522SOL    HW159463  13.823   9.994   4.500
52522SOL    HW259464  13.685  10.056   4.515
52523SOL     OW59465   1.982   3.735  12.404
52523SOL    HW159466   1.979   3.787  12.324
52523SOL    HW259467   2.071   3.701  12.408
52524SOL     OW59468   8.194   8.179   1.564
52524SOL    HW159469   8.109   8.207   1.529
52524SOL    HW259470   8.226   8.115   1.501
52525SOL     OW59471   2.874   3.575   3.489
52525SOL    HW159472   2.853   3.559   3.582
52525SOL    HW259473   2.970   3.572   3.486
52526SOL     OW59474   8.630   5.998   0.575
52526SOL    HW159475   8.556   6.059   0.573
52526SOL    HW259476   8.590   5.912   0.579
52527SOL     OW59477   3.781   2.514   7.886
52527SOL    HW159478   3.839   2.439   7.874
52527SOL    HW259479   3.728   2.491   7.962
52528SOL     OW59480   8.315   8.902   3.430
52528SOL    HW159481   8.369   8.919   3.507
52528SOL    HW259482   8.225   8.913   3.460
52529SOL     OW59483   7.902   3.863   9.893
52529SOL    HW159484   7.879   3.784   9.943
52529SOL    HW259485   7.980   3.838   9.844
52530SOL     OW59486   4.386   2.173   3.316
52530SOL    HW159487   4.395   2.086   3.354
52530SOL    HW259488   4.293   2.179   3.292
52531SOL     OW59489   1.012   1.212   4.930
52531SOL    HW159490   0.978   1.126   4.906
52531SOL    HW259491   1.101   1.195   4.962
52532SOL     OW59492   7.916   2.308  14.109
52532SOL    HW159493   7.969   2.234  14.079
52532SOL    HW259494   7.838   2.305  14.054
52533SOL     OW59495  10.713   1.083   1.018
52533SOL    HW159496  10.776   1.011   1.011
52533SOL    HW259497  10.748   1.140   1.086
52534SOL     OW59498   7.541   9.233  14.005
52534SOL    HW159499   7.583   9.221  14.090
52534SOL    HW259500   7.460   9.182  14.010
52535SOL     OW59501  10.370   5.280   1.784
52535SOL    HW159502  10.463   5.273   1.763
52535SOL    HW259503  10.325   5.264   1.701
52536SOL     OW59504  12.798  11.184   8.547
52536SOL    HW159505  12.868  11.237   8.585
52536SOL    HW259506  12.821  11.094   8.572
52537SOL     OW59507   3.338  12.190   0.053
52537SOL    HW159508   3.388  12.109   0.051
52537SOL    HW259509   3.252  12.167   0.016
52538SOL     OW59510  11.010  13.248  10.704
52538SOL    HW159511  11.070  13.198  10.759
52538SOL    HW259512  10.967  13.309  10.764
52539SOL     OW59513   1.804   2.736   7.024
52539SOL    HW159514   1.796   2.641   7.023
52539SOL    HW259515   1.833   2.759   6.936
52540SOL     OW59516   1.629  12.877   5.362
52540SOL    HW159517   1.666  12.906   5.445
52540SOL    HW259518   1.572  12.803   5.385
52541SOL     OW59519  10.739   1.304  14.052
52541SOL    HW159520  10.715   1.394  14.030
52541SOL    HW259521  10.834   1.307  14.064
52542SOL     OW59522   1.749  13.614  11.101
52542SOL    HW159523   1.827  13.669  11.091
52542SOL    HW259524   1.746  13.594  11.195
52543SOL     OW59525  12.338  11.996  12.382
52543SOL    HW159526  12.408  11.935  12.358
52543SOL    HW259527  12.350  12.011  12.476
52544SOL     OW59528   6.700  13.183   3.127
52544SOL    HW159529   6.669  13.142   3.208
52544SOL    HW259530   6.739  13.111   3.077
52545SOL     OW59531  12.004   2.497  11.413
52545SOL    HW159532  12.024   2.571  11.355
52545SOL    HW259533  12.089   2.471  11.448
52546SOL     OW59534   9.272   0.473   1.626
52546SOL    HW159535   9.190   0.426   1.641
52546SOL    HW259536   9.330   0.408   1.586
52547SOL     OW59537   1.593  11.418   8.507
52547SOL    HW159538   1.561  11.508   8.498
52547SOL    HW259539   1.524  11.373   8.556
52548SOL     OW59540   5.029   0.401   9.958
52548SOL    HW159541   5.005   0.313   9.928
52548SOL    HW259542   4.945   0.445   9.970
52549SOL     OW59543   0.488   3.393  13.343
52549SOL    HW159544   0.407   3.431  13.376
52549SOL    HW259545   0.466   3.356  13.258
52550SOL     OW59546   4.764  11.966   1.399
52550SOL    HW159547   4.770  11.958   1.304
52550SOL    HW259548   4.808  11.887   1.432
52551SOL     OW59549  14.469   5.411   2.629
52551SOL    HW159550  14.459   5.321   2.660
52551SOL    HW259551  14.384   5.432   2.590
52552SOL     OW59552   2.208  12.464  10.921
52552SOL    HW159553   2.226  12.535  10.982
52552SOL    HW259554   2.251  12.387  10.958
52553SOL     OW59555  13.130  10.683  13.720
52553SOL    HW159556  13.122  10.755  13.783
52553SOL    HW259557  13.202  10.710  13.663
52554SOL     OW59558   6.480   5.859   9.279
52554SOL    HW159559   6.423   5.860   9.201
52554SOL    HW259560   6.493   5.766   9.298
52555SOL     OW59561  10.809  11.329   9.834
52555SOL    HW159562  10.751  11.383   9.888
52555SOL    HW259563  10.751  11.282   9.775
52556SOL     OW59564   1.777   1.695   5.716
52556SOL    HW159565   1.731   1.620   5.677
52556SOL    HW259566   1.790   1.755   5.643
52557SOL     OW59567  12.834   5.529   1.353
52557SOL    HW159568  12.810   5.572   1.435
52557SOL    HW259569  12.751   5.515   1.307
52558SOL     OW59570   8.549   9.496  14.170
52558SOL    HW159571   8.565   9.412  14.214
52558SOL    HW259572   8.604   9.492  14.092
52559SOL     OW59573   0.883  12.485  11.911
52559SOL    HW159574   0.893  12.560  11.970
52559SOL    HW259575   0.971  12.449  11.903
52560SOL     OW59576   2.682   5.621  11.386
52560SOL    HW159577   2.706   5.567  11.311
52560SOL    HW259578   2.761   5.673  11.404
52561SOL     OW59579  10.164   9.374   9.129
52561SOL    HW159580  10.233   9.369   9.063
52561SOL    HW259581  10.088   9.407   9.082
52562SOL     OW59582   5.511   0.110   7.616
52562SOL    HW159583   5.520   0.044   7.547
52562SOL    HW259584   5.600   0.123   7.648
52563SOL     OW59585  13.366   6.156   4.195
52563SOL    HW159586  13.371   6.250   4.181
52563SOL    HW259587  13.413   6.118   4.121
52564SOL     OW59588  10.526   1.192   7.193
52564SOL    HW159589  10.532   1.284   7.169
52564SOL    HW259590  10.432   1.176   7.205
52565SOL     OW59591   9.377  14.743  13.966
52565SOL    HW159592   9.452  14.795  13.939
52565SOL    HW259593   9.399  14.711  14.054
52566SOL     OW59594  13.389   0.879   6.988
52566SOL    HW159595  13.349   0.875   6.902
52566SOL    HW259596  13.353   0.804   7.035
52567SOL     OW59597   4.854   6.093   2.282
52567SOL    HW159598   4.827   6.022   2.223
52567SOL    HW259599   4.809   6.074   2.364
52568SOL     OW59600  10.074   5.385  12.473
52568SOL    HW159601  10.124   5.404  12.394
52568SOL    HW259602  10.079   5.466  12.524
52569SOL     OW59603   1.684   1.836   3.568
52569SOL    HW159604   1.629   1.900   3.613
52569SOL    HW259605   1.772   1.849   3.605
52570SOL     OW59606  13.765   5.554   3.567
52570SOL    HW159607  13.790   5.466   3.539
52570SOL    HW259608  13.812   5.568   3.649
52571SOL     OW59609   2.887   7.599   0.056
52571SOL    HW159610   2.793   7.581   0.048
52571SOL    HW259611   2.896   7.692   0.037
52572SOL     OW59612   2.563  14.499   6.763
52572SOL    HW159613   2.602  14.426   6.811
52572SOL    HW259614   2.530  14.460   6.682
52573SOL     OW59615  12.004   1.298  14.325
52573SOL    HW159616  12.060   1.365  14.364
52573SOL    HW259617  12.065   1.232  14.292
52574SOL     OW59618  12.321  12.242   6.764
52574SOL    HW159619  12.262  12.298   6.815
52574SOL    HW259620  12.338  12.167   6.821
52575SOL     OW59621   3.739  11.234   7.328
52575SOL    HW159622   3.754  11.149   7.371
52575SOL    HW259623   3.803  11.237   7.257
52576SOL     OW59624   3.353   9.779   3.890
52576SOL    HW159625   3.408   9.713   3.849
52576SOL    HW259626   3.408   9.858   3.894
52577SOL     OW59627   1.165   7.648  11.985
52577SOL    HW159628   1.077   7.639  12.023
52577SOL    HW259629   1.156   7.614  11.896
52578SOL     OW59630   4.256  11.930   7.171
52578SOL    HW159631   4.318  11.866   7.206
52578SOL    HW259632   4.265  11.922   7.076
52579SOL     OW59633   2.677  14.558  11.585
52579SOL    HW159634   2.671  14.480  11.530
52579SOL    HW259635   2.596  14.558  11.636
52580SOL     OW59636  13.757  10.691   8.698
52580SOL    HW159637  13.804  10.696   8.614
52580SOL    HW259638  13.787  10.609   8.737
52581SOL     OW59639  10.351   9.540   9.273
52581SOL    HW159640  10.272   9.495   9.244
52581SOL    HW259641  10.404   9.551   9.194
52582SOL     OW59642   2.724  13.628  12.658
52582SOL    HW159643   2.755  13.642  12.569
52582SOL    HW259644   2.629  13.625  12.651
52583SOL     OW59645   8.043  13.703   4.189
52583SOL    HW159646   8.125  13.752   4.196
52583SOL    HW259647   8.066  13.614   4.218
52584SOL     OW59648   6.927  13.000   7.309
52584SOL    HW159649   6.841  13.015   7.347
52584SOL    HW259650   6.949  13.083   7.266
52585SOL     OW59651   2.476   9.909  12.349
52585SOL    HW159652   2.387   9.878  12.366
52585SOL    HW259653   2.524   9.831  12.321
52586SOL     OW59654  11.909   6.186  14.777
52586SOL    HW159655  11.941   6.159  14.863
52586SOL    HW259656  11.922   6.108  14.722
52587SOL     OW59657   6.151  11.952  13.254
52587SOL    HW159658   6.236  11.957  13.299
52587SOL    HW259659   6.093  12.007  13.307
52588SOL     OW59660  14.818   9.744   6.282
52588SOL    HW159661  14.768   9.760   6.362
52588SOL    HW259662  14.760   9.691   6.227
52589SOL     OW59663   5.789   9.248  12.824
52589SOL    HW159664   5.865   9.268  12.770
52589SOL    HW259665   5.818   9.180  12.885
52590SOL     OW59666   4.209   9.105   1.258
52590SOL    HW159667   4.251   9.020   1.273
52590SOL    HW259668   4.269   9.152   1.200
52591SOL     OW59669  13.916   1.752   9.248
52591SOL    HW159670  13.926   1.790   9.160
52591SOL    HW259671  13.851   1.807   9.290
52592SOL     OW59672   8.741   9.228   0.480
52592SOL    HW159673   8.723   9.149   0.530
52592SOL    HW259674   8.730   9.201   0.388
52593SOL     OW59675   9.406   7.081   2.233
52593SOL    HW159676   9.467   7.155   2.227
52593SOL    HW259677   9.332   7.107   2.177
52594SOL     OW59678   9.364   5.056  10.524
52594SOL    HW159679   9.307   5.064  10.447
52594SOL    HW259680   9.364   4.962  10.544
52595SOL     OW59681   7.629   0.087   4.214
52595SOL    HW159682   7.647   0.134   4.295
52595SOL    HW259683   7.577   0.148   4.162
52596SOL     OW59684  11.623   4.565   6.796
52596SOL    HW159685  11.549   4.614   6.831
52596SOL    HW259686  11.683   4.633   6.765
52597SOL     OW59687   8.812   2.972  10.801
52597SOL    HW159688   8.818   3.046  10.741
52597SOL    HW259689   8.739   2.993  10.859
52598SOL     OW59690   1.395   5.811   4.018
52598SOL    HW159691   1.490   5.817   4.007
52598SOL    HW259692   1.375   5.873   4.089
52599SOL     OW59693   4.628  12.397  10.915
52599SOL    HW159694   4.616  12.308  10.947
52599SOL    HW259695   4.596  12.395  10.824
52600SOL     OW59696   7.864   0.639  14.465
52600SOL    HW159697   7.938   0.579  14.455
52600SOL    HW259698   7.798   0.607  14.405
52601SOL     OW59699   4.651  11.330  10.513
52601SOL    HW159700   4.747  11.324  10.521
52601SOL    HW259701   4.619  11.245  10.545
52602SOL     OW59702   3.245   3.357  10.884
52602SOL    HW159703   3.229   3.326  10.973
52602SOL    HW259704   3.291   3.440  10.896
52603SOL     OW59705   3.490   8.257   1.921
52603SOL    HW159706   3.459   8.325   1.981
52603SOL    HW259707   3.585   8.271   1.916
52604SOL     OW59708  11.505  14.214   4.264
52604SOL    HW159709  11.572  14.245   4.203
52604SOL    HW259710  11.454  14.150   4.215
52605SOL     OW59711   2.605  14.271   6.942
52605SOL    HW159712   2.518  14.303   6.918
52605SOL    HW259713   2.619  14.304   7.030
52606SOL     OW59714   3.280   7.157   4.321
52606SOL    HW159715   3.251   7.232   4.373
52606SOL    HW259716   3.359   7.126   4.366
52607SOL     OW59717  14.260   7.541   9.604
52607SOL    HW159718  14.315   7.517   9.529
52607SOL    HW259719  14.235   7.631   9.587
52608SOL     OW59720   5.146   7.674  12.546
52608SOL    HW159721   5.178   7.693  12.458
52608SOL    HW259722   5.187   7.591  12.570
52609SOL     OW59723   9.954   9.755   7.140
52609SOL    HW159724   9.969   9.795   7.225
52609SOL    HW259725   9.923   9.826   7.084
52610SOL     OW59726   0.939   7.693   4.009
52610SOL    HW159727   0.997   7.617   4.012
52610SOL    HW259728   0.884   7.685   4.086
52611SOL     OW59729   0.350  11.587   1.500
52611SOL    HW159730   0.292  11.653   1.539
52611SOL    HW259731   0.311  11.569   1.415
52612SOL     OW59732   4.390   5.562   7.825
52612SOL    HW159733   4.479   5.589   7.848
52612SOL    HW259734   4.374   5.602   7.740
52613SOL     OW59735  10.597   0.380   9.727
52613SOL    HW159736  10.581   0.455   9.784
52613SOL    HW259737  10.533   0.389   9.657
52614SOL     OW59738  14.115  14.487   1.228
52614SOL    HW159739  14.144  14.415   1.172
52614SOL    HW259740  14.188  14.502   1.288
52615SOL     OW59741   7.532   0.274   4.972
52615SOL    HW159742   7.506   0.209   4.907
52615SOL    HW259743   7.533   0.226   5.055
52616SOL     OW59744   0.200   9.555  13.096
52616SOL    HW159745   0.188   9.633  13.042
52616SOL    HW259746   0.178   9.482  13.038
52617SOL     OW59747   1.399  10.206   3.591
52617SOL    HW159748   1.310  10.171   3.597
52617SOL    HW259749   1.448  10.139   3.544
52618SOL     OW59750   0.283   3.229   9.080
52618SOL    HW159751   0.320   3.318   9.085
52618SOL    HW259752   0.209   3.237   9.020
52619SOL     OW59753   2.671   1.086   5.427
52619SOL    HW159754   2.621   1.017   5.383
52619SOL    HW259755   2.740   1.108   5.364
52620SOL     OW59756  13.226  11.794   0.310
52620SOL    HW159757  13.141  11.832   0.333
52620SOL    HW259758  13.242  11.824   0.221
52621SOL     OW59759  13.403  14.306   5.349
52621SOL    HW159760  13.322  14.271   5.310
52621SOL    HW259761  13.382  14.315   5.442
52622SOL     OW59762  13.055   4.278   2.033
52622SOL    HW159763  13.049   4.228   1.952
52622SOL    HW259764  12.986   4.241   2.089
52623SOL     OW59765  13.816   9.292   5.150
52623SOL    HW159766  13.728   9.299   5.113
52623SOL    HW259767  13.874   9.297   5.074
52624SOL     OW59768   7.798  13.086  13.065
52624SOL    HW159769   7.811  13.101  12.972
52624SOL    HW259770   7.852  13.152  13.108
52625SOL     OW59771   6.204   7.376  11.934
52625SOL    HW159772   6.144   7.432  11.984
52625SOL    HW259773   6.277   7.360  11.994
52626SOL     OW59774  11.466   9.892   4.066
52626SOL    HW159775  11.536   9.957   4.067
52626SOL    HW259776  11.493   9.829   3.999
52627SOL     OW59777   5.514  11.014   9.214
52627SOL    HW159778   5.599  11.056   9.218
52627SOL    HW259779   5.472  11.050   9.136
52628SOL     OW59780  10.668  12.666  10.074
52628SOL    HW159781  10.674  12.728  10.147
52628SOL    HW259782  10.686  12.581  10.113
52629SOL     OW59783   7.745   4.071   2.478
52629SOL    HW159784   7.721   3.992   2.527
52629SOL    HW259785   7.838   4.084   2.498
52630SOL     OW59786   5.223   7.505   3.868
52630SOL    HW159787   5.267   7.513   3.953
52630SOL    HW259788   5.134   7.538   3.884
52631SOL     OW59789   1.022  10.080   7.108
52631SOL    HW159790   0.988  10.157   7.154
52631SOL    HW259791   1.058  10.114   7.026
52632SOL     OW59792   5.829  11.811  12.609
52632SOL    HW159793   5.866  11.869  12.676
52632SOL    HW259794   5.752  11.858  12.576
52633SOL     OW59795   2.608   9.958  12.075
52633SOL    HW159796   2.564   9.892  12.021
52633SOL    HW259797   2.556   9.961  12.156
52634SOL     OW59798   7.778   3.267   2.004
52634SOL    HW159799   7.824   3.338   2.048
52634SOL    HW259800   7.847   3.212   1.968
52635SOL     OW59801   1.717   5.353   7.848
52635SOL    HW159802   1.801   5.308   7.852
52635SOL    HW259803   1.676   5.322   7.768
52636SOL     OW59804   6.451   3.335   5.566
52636SOL    HW159805   6.386   3.383   5.616
52636SOL    HW259806   6.533   3.346   5.615
52637SOL     OW59807   5.898   2.266  13.929
52637SOL    HW159808   5.813   2.281  13.969
52637SOL    HW259809   5.961   2.295  13.995
52638SOL     OW59810   8.244  11.303   8.538
52638SOL    HW159811   8.235  11.209   8.524
52638SOL    HW259812   8.337  11.316   8.554
52639SOL     OW59813  12.474   6.915   5.843
52639SOL    HW159814  12.520   6.902   5.760
52639SOL    HW259815  12.466   6.828   5.881
52640SOL     OW59816  10.668   9.128  11.647
52640SOL    HW159817  10.764   9.128  11.643
52640SOL    HW259818  10.642   9.051  11.597
52641SOL     OW59819   9.306   6.594  12.767
52641SOL    HW159820   9.331   6.531  12.835
52641SOL    HW259821   9.276   6.539  12.694
52642SOL     OW59822   4.644   2.622   4.340
52642SOL    HW159823   4.590   2.689   4.298
52642SOL    HW259824   4.714   2.605   4.277
52643SOL     OW59825   0.243  11.834   1.565
52643SOL    HW159826   0.308  11.832   1.636
52643SOL    HW259827   0.289  11.876   1.492
52644SOL     OW59828   3.734  11.383  10.656
52644SOL    HW159829   3.692  11.317  10.712
52644SOL    HW259830   3.815  11.342  10.627
52645SOL     OW59831   3.350   0.017   7.979
52645SOL    HW159832   3.328  14.791   7.981
52645SOL    HW259833   3.394   0.030   7.895
52646SOL     OW59834  13.593   3.381  13.580
52646SOL    HW159835  13.502   3.353  13.578
52646SOL    HW259836  13.596   3.460  13.526
52647SOL     OW59837  12.802   6.494  12.220
52647SOL    HW159838  12.769   6.484  12.131
52647SOL    HW259839  12.729   6.532  12.269
52648SOL     OW59840  13.138   0.864   4.323
52648SOL    HW159841  13.079   0.884   4.395
52648SOL    HW259842  13.191   0.790   4.355
52649SOL     OW59843   5.954   4.846  12.406
52649SOL    HW159844   6.041   4.809  12.423
52649SOL    HW259845   5.967   4.903  12.331
52650SOL     OW59846   0.209   5.507   0.629
52650SOL    HW159847   0.278   5.442   0.618
52650SOL    HW259848   0.216   5.562   0.551
52651SOL     OW59849   1.641   7.852   1.536
52651SOL    HW159850   1.718   7.838   1.592
52651SOL    HW259851   1.673   7.836   1.447
52652SOL     OW59852   9.416   3.726   0.821
52652SOL    HW159853   9.468   3.697   0.746
52652SOL    HW259854   9.332   3.681   0.810
52653SOL     OW59855  10.577   1.891   0.227
52653SOL    HW159856  10.576   1.919   0.319
52653SOL    HW259857  10.617   1.964   0.180
52654SOL     OW59858  12.872   7.810  13.371
52654SOL    HW159859  12.963   7.781  13.364
52654SOL    HW259860  12.862   7.836  13.462
52655SOL     OW59861   1.323  10.149  12.266
52655SOL    HW159862   1.311  10.244  12.268
52655SOL    HW259863   1.327  10.123  12.359
52656SOL     OW59864  11.528   2.684   0.637
52656SOL    HW159865  11.617   2.707   0.663
52656SOL    HW259866  11.497   2.762   0.591
52657SOL     OW59867   7.700   3.549   5.235
52657SOL    HW159868   7.622   3.500   5.208
52657SOL    HW259869   7.699   3.628   5.181
52658SOL     OW59870   3.777   6.880   4.833
52658SOL    HW159871   3.856   6.880   4.779
52658SOL    HW259872   3.785   6.800   4.885
52659SOL     OW59873  12.501   0.518  11.978
52659SOL    HW159874  12.507   0.423  11.975
52659SOL    HW259875  12.487   0.544  11.887
52660SOL     OW59876   1.426  14.814  12.346
52660SOL    HW159877   1.441   0.040  12.331
52660SOL    HW259878   1.375  14.811  12.427
52661SOL     OW59879   9.805   9.283   3.280
52661SOL    HW159880   9.884   9.310   3.232
52661SOL    HW259881   9.741   9.264   3.212
52662SOL     OW59882  13.954   2.669  11.699
52662SOL    HW159883  13.988   2.624  11.777
52662SOL    HW259884  13.934   2.758  11.730
52663SOL     OW59885   7.775   5.681   5.759
52663SOL    HW159886   7.731   5.743   5.817
52663SOL    HW259887   7.857   5.726   5.735
52664SOL     OW59888   6.208   1.598   1.025
52664SOL    HW159889   6.270   1.550   0.970
52664SOL    HW259890   6.263   1.659   1.074
52665SOL     OW59891   3.147  13.164   4.662
52665SOL    HW159892   3.231  13.119   4.661
52665SOL    HW259893   3.169  13.257   4.670
52666SOL     OW59894   8.592   3.104  14.427
52666SOL    HW159895   8.645   3.033  14.391
52666SOL    HW259896   8.514   3.105  14.372
52667SOL     OW59897  12.716   4.251   9.953
52667SOL    HW159898  12.775   4.188   9.995
52667SOL    HW259899  12.758   4.268   9.868
52668SOL     OW59900  13.912  11.235  13.230
52668SOL    HW159901  13.980  11.257  13.166
52668SOL    HW259902  13.894  11.143  13.215
52669SOL     OW59903   0.528   6.805   6.008
52669SOL    HW159904   0.495   6.874   6.066
52669SOL    HW259905   0.504   6.835   5.920
52670SOL     OW59906   4.110   8.700   3.879
52670SOL    HW159907   4.099   8.645   3.802
52670SOL    HW259908   4.021   8.709   3.914
52671SOL     OW59909   7.462   8.024  11.108
52671SOL    HW159910   7.443   8.029  11.015
52671SOL    HW259911   7.540   8.078  11.120
52672SOL     OW59912   1.218  10.488  14.382
52672SOL    HW159913   1.252  10.525  14.301
52672SOL    HW259914   1.273  10.412  14.400
52673SOL     OW59915   9.691  12.507  10.881
52673SOL    HW159916   9.673  12.599  10.859
52673SOL    HW259917   9.777  12.490  10.844
52674SOL     OW59918   5.684   9.994   4.670
52674SOL    HW159919   5.769   9.996   4.713
52674SOL    HW259920   5.660  10.086   4.659
52675SOL     OW59921   1.429   6.577   9.475
52675SOL    HW159922   1.496   6.509   9.471
52675SOL    HW259923   1.461   6.638   9.541
52676SOL     OW59924  10.547   7.621   3.058
52676SOL    HW159925  10.493   7.620   3.138
52676SOL    HW259926  10.500   7.564   2.997
52677SOL     OW59927   8.489   5.064   0.419
52677SOL    HW159928   8.508   5.007   0.344
52677SOL    HW259929   8.556   5.041   0.484
52678SOL     OW59930   4.198  11.237  10.065
52678SOL    HW159931   4.285  11.221  10.029
52678SOL    HW259932   4.139  11.187  10.008
52679SOL     OW59933  14.065  12.652   0.789
52679SOL    HW159934  14.153  12.690   0.791
52679SOL    HW259935  14.049  12.632   0.697
52680SOL     OW59936  13.140   7.310   0.893
52680SOL    HW159937  13.082   7.236   0.877
52680SOL    HW259938  13.148   7.314   0.988
52681SOL     OW59939   3.436   3.018  10.926
52681SOL    HW159940   3.525   2.996  10.899
52681SOL    HW259941   3.401   3.070  10.853
52682SOL     OW59942   2.996   3.307  10.127
52682SOL    HW159943   3.059   3.317  10.056
52682SOL    HW259944   3.048   3.276  10.201
52683SOL     OW59945   8.300   7.790   3.094
52683SOL    HW159946   8.274   7.705   3.058
52683SOL    HW259947   8.235   7.808   3.162
52684SOL     OW59948   4.106   0.699  14.308
52684SOL    HW159949   4.011   0.714  14.313
52684SOL    HW259950   4.115   0.604  14.297
52685SOL     OW59951   0.443  11.540   6.073
52685SOL    HW159952   0.533  11.546   6.105
52685SOL    HW259953   0.391  11.584   6.140
52686SOL     OW59954  12.491   4.651   3.565
52686SOL    HW159955  12.556   4.716   3.591
52686SOL    HW259956  12.462   4.679   3.478
52687SOL     OW59957   7.373   6.556   8.741
52687SOL    HW159958   7.301   6.495   8.759
52687SOL    HW259959   7.332   6.630   8.696
52688SOL     OW59960  12.505   4.628   7.814
52688SOL    HW159961  12.493   4.701   7.875
52688SOL    HW259962  12.551   4.666   7.740
52689SOL     OW59963   0.190  13.223   4.007
52689SOL    HW159964   0.200  13.129   3.993
52689SOL    HW259965   0.271  13.261   3.974
52690SOL     OW59966   8.077   0.436   7.385
52690SOL    HW159967   8.056   0.503   7.320
52690SOL    HW259968   8.101   0.485   7.463
52691SOL     OW59969  10.318   1.851   1.751
52691SOL    HW159970  10.400   1.817   1.715
52691SOL    HW259971  10.342   1.935   1.790
52692SOL     OW59972   4.671  12.755   8.468
52692SOL    HW159973   4.602  12.689   8.459
52692SOL    HW259974   4.752  12.704   8.467
52693SOL     OW59975   9.358   8.491  14.490
52693SOL    HW159976   9.447   8.521  14.505
52693SOL    HW259977   9.321   8.555  14.429
52694SOL     OW59978   6.183   7.360   6.793
52694SOL    HW159979   6.092   7.368   6.824
52694SOL    HW259980   6.231   7.426   6.844
52695SOL     OW59981  11.288  11.748   5.909
52695SOL    HW159982  11.377  11.738   5.876
52695SOL    HW259983  11.234  11.697   5.848
52696SOL     OW59984   7.218   3.844   8.635
52696SOL    HW159985   7.212   3.931   8.596
52696SOL    HW259986   7.276   3.796   8.576
52697SOL     OW59987   0.582  12.565   3.278
52697SOL    HW159988   0.537  12.627   3.335
52697SOL    HW259989   0.563  12.479   3.316
52698SOL     OW59990  13.387   7.578   1.542
52698SOL    HW159991  13.377   7.519   1.468
52698SOL    HW259992  13.364   7.665   1.508
52699SOL     OW59993   1.059   0.551   6.636
52699SOL    HW159994   1.094   0.616   6.696
52699SOL    HW259995   1.114   0.474   6.649
52700SOL     OW59996  11.815  12.900  12.603
52700SOL    HW159997  11.856  12.909  12.689
52700SOL    HW259998  11.762  12.821  12.610
52701SOL     OW59999   3.895  14.309   8.587
52701SOL    HW160000   3.847  14.392   8.578
52701SOL    HW260001   3.830  14.242   8.568
52702SOL     OW60002   2.929   6.910   8.365
52702SOL    HW160003   2.846   6.888   8.324
52702SOL    HW260004   2.906   6.968   8.438
52703SOL     OW60005  12.881   8.140   9.753
52703SOL    HW160006  12.863   8.232   9.737
52703SOL    HW260007  12.819   8.093   9.696
52704SOL     OW60008   1.792   0.244   4.818
52704SOL    HW160009   1.744   0.175   4.771
52704SOL    HW260010   1.815   0.203   4.902
52705SOL     OW60011   3.636   7.193   6.378
52705SOL    HW160012   3.621   7.146   6.460
52705SOL    HW260013   3.728   7.220   6.381
52706SOL     OW60014   2.863   2.765  12.998
52706SOL    HW160015   2.801   2.825  13.040
52706SOL    HW260016   2.854   2.783  12.905
52707SOL     OW60017   3.987  10.208   9.883
52707SOL    HW160018   3.914  10.218   9.821
52707SOL    HW260019   4.050  10.152   9.838
52708SOL     OW60020  13.390  14.091   8.999
52708SOL    HW160021  13.481  14.108   8.975
52708SOL    HW260022  13.342  14.092   8.916
52709SOL     OW60023   1.867  13.655  14.157
52709SOL    HW160024   1.854  13.727  14.095
52709SOL    HW260025   1.873  13.577  14.102
52710SOL     OW60026  12.286  11.191  14.576
52710SOL    HW160027  12.252  11.222  14.660
52710SOL    HW260028  12.241  11.245  14.510
52711SOL     OW60029   2.161  10.672  12.257
52711SOL    HW160030   2.149  10.766  12.268
52711SOL    HW260031   2.239  10.663  12.203
52712SOL     OW60032   7.632  12.255  11.734
52712SOL    HW160033   7.571  12.328  11.729
52712SOL    HW260034   7.694  12.270  11.662
52713SOL     OW60035   8.450   2.952   8.191
52713SOL    HW160036   8.450   2.878   8.131
52713SOL    HW260037   8.532   2.943   8.240
52714SOL     OW60038  11.578   8.169   9.976
52714SOL    HW160039  11.652   8.227   9.959
52714SOL    HW260040  11.538   8.155   9.891
52715SOL     OW60041  12.629  12.450   9.358
52715SOL    HW160042  12.698  12.412   9.413
52715SOL    HW260043  12.640  12.406   9.273
52716SOL     OW60044  10.794   8.186  13.040
52716SOL    HW160045  10.855   8.243  13.087
52716SOL    HW260046  10.745   8.245  12.982
52717SOL     OW60047  10.952   7.482   6.323
52717SOL    HW160048  10.989   7.427   6.254
52717SOL    HW260049  10.963   7.432   6.403
52718SOL     OW60050   3.444  10.965   9.527
52718SOL    HW160051   3.362  10.977   9.574
52718SOL    HW260052   3.490  10.897   9.575
52719SOL     OW60053  12.639  14.369  11.026
52719SOL    HW160054  12.569  14.410  10.974
52719SOL    HW260055  12.593  14.318  11.092
52720SOL     OW60056   6.616   0.021  10.335
52720SOL    HW160057   6.664  14.820  10.381
52720SOL    HW260058   6.524  14.863  10.342
52721SOL     OW60059   1.526   7.902   6.719
52721SOL    HW160060   1.483   7.820   6.693
52721SOL    HW260061   1.615   7.877   6.741
52722SOL     OW60062   9.536   5.779   7.969
52722SOL    HW160063   9.514   5.740   8.053
52722SOL    HW260064   9.511   5.713   7.904
52723SOL     OW60065   8.270   1.338   9.320
52723SOL    HW160066   8.324   1.299   9.251
52723SOL    HW260067   8.286   1.284   9.397
52724SOL     OW60068   0.769   7.466   8.526
52724SOL    HW160069   0.725   7.384   8.549
52724SOL    HW260070   0.739   7.486   8.438
52725SOL     OW60071   9.114   8.347   1.581
52725SOL    HW160072   9.200   8.323   1.616
52725SOL    HW260073   9.099   8.283   1.511
52726SOL     OW60074   0.385   1.672   4.186
52726SOL    HW160075   0.350   1.718   4.110
52726SOL    HW260076   0.376   1.735   4.258
52727SOL     OW60077   6.804  12.620  10.728
52727SOL    HW160078   6.761  12.535  10.716
52727SOL    HW260079   6.870  12.624  10.659
52728SOL     OW60080   8.241   7.885   4.478
52728SOL    HW160081   8.310   7.839   4.527
52728SOL    HW260082   8.206   7.948   4.541
52729SOL     OW60083  12.961  10.075  14.445
52729SOL    HW160084  13.020  10.074  14.521
52729SOL    HW260085  12.878  10.040  14.479
52730SOL     OW60086   3.184   0.959   3.486
52730SOL    HW160087   3.139   0.886   3.530
52730SOL    HW260088   3.114   1.017   3.459
52731SOL     OW60089   7.675   0.071   3.376
52731SOL    HW160090   7.629   0.009   3.318
52731SOL    HW260091   7.606   0.129   3.408
52732SOL     OW60092   6.513   9.246   1.183
52732SOL    HW160093   6.496   9.292   1.265
52732SOL    HW260094   6.555   9.164   1.211
52733SOL     OW60095  12.259  10.245   9.226
52733SOL    HW160096  12.214  10.262   9.309
52733SOL    HW260097  12.208  10.176   9.184
52734SOL     OW60098  11.441   4.729   0.907
52734SOL    HW160099  11.480   4.754   0.990
52734SOL    HW260100  11.381   4.801   0.886
52735SOL     OW60101   3.558   6.367   8.802
52735SOL    HW160102   3.627   6.355   8.737
52735SOL    HW260103   3.483   6.400   8.752
52736SOL     OW60104   2.302  11.076  14.197
52736SOL    HW160105   2.308  11.172  14.196
52736SOL    HW260106   2.384  11.046  14.159
52737SOL     OW60107   5.809   9.945   7.302
52737SOL    HW160108   5.715   9.964   7.297
52737SOL    HW260109   5.851  10.031   7.307
52738SOL     OW60110  12.834   4.516   0.035
52738SOL    HW160111  12.825   4.496   0.128
52738SOL    HW260112  12.752   4.483  14.864
52739SOL     OW60113   9.322   9.079   3.577
52739SOL    HW160114   9.387   9.144   3.602
52739SOL    HW260115   9.374   9.003   3.550
52740SOL     OW60116   4.415  13.487   0.303
52740SOL    HW160117   4.425  13.534   0.386
52740SOL    HW260118   4.355  13.541   0.252
52741SOL     OW60119  12.041   0.543  13.716
52741SOL    HW160120  12.046   0.618  13.657
52741SOL    HW260121  12.066   0.578  13.802
52742SOL     OW60122  10.418   2.640   6.555
52742SOL    HW160123  10.329   2.612   6.536
52742SOL    HW260124  10.414   2.674   6.644
52743SOL     OW60125   6.212   9.300  11.366
52743SOL    HW160126   6.135   9.348  11.338
52743SOL    HW260127   6.205   9.296  11.462
52744SOL     OW60128   1.009  10.980   0.650
52744SOL    HW160129   0.931  10.930   0.675
52744SOL    HW260130   1.076  10.914   0.634
52745SOL     OW60131   9.018   8.694   8.948
52745SOL    HW160132   9.044   8.602   8.957
52745SOL    HW260133   8.926   8.692   8.924
52746SOL     OW60134  13.915   3.993   5.277
52746SOL    HW160135  13.936   4.078   5.238
52746SOL    HW260136  13.857   3.951   5.213
52747SOL     OW60137   9.026   9.052   7.832
52747SOL    HW160138   9.047   9.076   7.922
52747SOL    HW260139   9.107   9.018   7.796
52748SOL     OW60140   2.714  14.364  12.714
52748SOL    HW160141   2.721  14.394  12.805
52748SOL    HW260142   2.620  14.359  12.698
52749SOL     OW60143   1.961   6.793  11.764
52749SOL    HW160144   1.896   6.727  11.739
52749SOL    HW260145   2.043   6.744  11.770
52750SOL     OW60146   0.640   4.696  10.870
52750SOL    HW160147   0.593   4.614  10.855
52750SOL    HW260148   0.601   4.758  10.809
52751SOL     OW60149  11.780  13.883   4.284
52751SOL    HW160150  11.712  13.828   4.246
52751SOL    HW260151  11.801  13.841   4.367
52752SOL     OW60152   3.974   6.710  14.633
52752SOL    HW160153   3.950   6.802  14.636
52752SOL    HW260154   3.981   6.690  14.539
52753SOL     OW60155   7.575   8.419  12.221
52753SOL    HW160156   7.593   8.348  12.283
52753SOL    HW260157   7.520   8.480  12.269
52754SOL     OW60158  11.248  13.228   9.631
52754SOL    HW160159  11.232  13.267   9.546
52754SOL    HW260160  11.296  13.147   9.612
52755SOL     OW60161   1.812   4.722  10.008
52755SOL    HW160162   1.732   4.687  10.047
52755SOL    HW260163   1.878   4.654  10.023
52756SOL     OW60164   0.344  11.842  12.260
52756SOL    HW160165   0.340  11.782  12.334
52756SOL    HW260166   0.252  11.858  12.237
52757SOL     OW60167   3.641   4.421  13.658
52757SOL    HW160168   3.715   4.364  13.678
52757SOL    HW260169   3.677   4.510  13.668
52758SOL     OW60170   8.585  11.443   5.229
52758SOL    HW160171   8.585  11.538   5.222
52758SOL    HW260172   8.504  11.415   5.186
52759SOL     OW60173  12.948   7.656  11.534
52759SOL    HW160174  13.032   7.674  11.576
52759SOL    HW260175  12.970   7.647  11.441
52760SOL     OW60176   3.548   6.696   9.174
52760SOL    HW160177   3.636   6.659   9.169
52760SOL    HW260178   3.546   6.762   9.104
52761SOL     OW60179   9.507  11.334   0.308
52761SOL    HW160180   9.436  11.312   0.367
52761SOL    HW260181   9.496  11.427   0.290
52762SOL     OW60182  12.452  13.844   6.866
52762SOL    HW160183  12.428  13.772   6.924
52762SOL    HW260184  12.480  13.801   6.785
52763SOL     OW60185  11.168   6.969   1.666
52763SOL    HW160186  11.206   6.999   1.748
52763SOL    HW260187  11.221   7.010   1.598
52764SOL     OW60188  10.354   5.114   3.105
52764SOL    HW160189  10.290   5.157   3.048
52764SOL    HW260190  10.400   5.052   3.048
52765SOL     OW60191  12.436  13.467   9.819
52765SOL    HW160192  12.521  13.508   9.839
52765SOL    HW260193  12.444  13.379   9.856
52766SOL     OW60194   0.366   1.816   6.832
52766SOL    HW160195   0.368   1.906   6.798
52766SOL    HW260196   0.415   1.821   6.914
52767SOL     OW60197  11.699   5.953  12.152
52767SOL    HW160198  11.763   6.012  12.112
52767SOL    HW260199  11.701   5.975  12.245
52768SOL     OW60200  13.720   2.903   7.982
52768SOL    HW160201  13.762   2.817   7.976
52768SOL    HW260202  13.793   2.964   7.990
52769SOL     OW60203   7.417   6.112   4.171
52769SOL    HW160204   7.490   6.124   4.110
52769SOL    HW260205   7.408   6.017   4.178
52770SOL     OW60206   4.815   9.471   6.323
52770SOL    HW160207   4.813   9.379   6.350
52770SOL    HW260208   4.820   9.468   6.227
52771SOL     OW60209   0.559  10.275  14.109
52771SOL    HW160210   0.517  10.302  14.191
52771SOL    HW260211   0.582  10.183  14.122
52772SOL     OW60212  10.495   0.209   2.567
52772SOL    HW160213  10.572   0.214   2.623
52772SOL    HW260214  10.439   0.143   2.608
52773SOL     OW60215  10.221   4.129   2.599
52773SOL    HW160216  10.269   4.178   2.533
52773SOL    HW260217  10.235   4.037   2.576
52774SOL     OW60218   4.621   2.789   2.918
52774SOL    HW160219   4.578   2.713   2.959
52774SOL    HW260220   4.569   2.864   2.945
52775SOL     OW60221   2.896   2.528   9.618
52775SOL    HW160222   2.972   2.572   9.658
52775SOL    HW260223   2.884   2.449   9.671
52776SOL     OW60224   7.390   8.582  11.875
52776SOL    HW160225   7.323   8.554  11.812
52776SOL    HW260226   7.425   8.500  11.910
52777SOL     OW60227  13.203   3.446   6.952
52777SOL    HW160228  13.234   3.437   6.862
52777SOL    HW260229  13.118   3.402   6.952
52778SOL     OW60230   1.958   8.519   7.850
52778SOL    HW160231   1.904   8.498   7.926
52778SOL    HW260232   1.913   8.480   7.776
52779SOL     OW60233   6.087   5.915  14.831
52779SOL    HW160234   6.026   5.864   0.017
52779SOL    HW260235   6.043   5.925  14.747
52780SOL     OW60236  13.139  11.055  12.293
52780SOL    HW160237  13.103  10.972  12.259
52780SOL    HW260238  13.062  11.105  12.320
52781SOL     OW60239  14.103   2.129  11.853
52781SOL    HW160240  14.058   2.201  11.809
52781SOL    HW260241  14.032   2.072  11.882
52782SOL     OW60242  10.005  12.789  12.672
52782SOL    HW160243   9.916  12.772  12.642
52782SOL    HW260244  10.052  12.818  12.594
52783SOL     OW60245   8.388   6.741   4.366
52783SOL    HW160246   8.428   6.730   4.452
52783SOL    HW260247   8.461   6.732   4.304
52784SOL     OW60248  10.142   5.283  11.997
52784SOL    HW160249  10.148   5.187  11.999
52784SOL    HW260250  10.139   5.305  11.904
52785SOL     OW60251  11.819  12.951  13.497
52785SOL    HW160252  11.811  12.860  13.466
52785SOL    HW260253  11.732  12.988  13.486
52786SOL     OW60254   8.502   1.828   2.815
52786SOL    HW160255   8.494   1.919   2.787
52786SOL    HW260256   8.591   1.821   2.849
52787SOL     OW60257   2.435  14.347   1.022
52787SOL    HW160258   2.389  14.394   0.953
52787SOL    HW260259   2.448  14.412   1.091
52788SOL     OW60260  12.299   2.236   1.579
52788SOL    HW160261  12.232   2.170   1.595
52788SOL    HW260262  12.265   2.315   1.621
52789SOL     OW60263  12.938   9.523   5.176
52789SOL    HW160264  12.855   9.496   5.215
52789SOL    HW260265  12.980   9.575   5.245
52790SOL     OW60266   9.896  13.001  13.493
52790SOL    HW160267   9.913  13.095  13.489
52790SOL    HW260268   9.822  12.987  13.433
52791SOL     OW60269   0.225   3.505  13.453
52791SOL    HW160270   0.191   3.539  13.536
52791SOL    HW260271   0.173   3.550  13.386
52792SOL     OW60272  12.923  12.620   8.340
52792SOL    HW160273  12.886  12.677   8.408
52792SOL    HW260274  12.879  12.536   8.351
52793SOL     OW60275  12.587  11.019   5.763
52793SOL    HW160276  12.508  10.978   5.728
52793SOL    HW260277  12.561  11.049   5.850
52794SOL     OW60278   4.902   7.083   8.379
52794SOL    HW160279   4.882   7.023   8.307
52794SOL    HW260280   4.974   7.040   8.426
52795SOL     OW60281   0.483   1.719   5.252
52795SOL    HW160282   0.556   1.657   5.258
52795SOL    HW260283   0.524   1.803   5.232
52796SOL     OW60284  11.693   1.347  12.064
52796SOL    HW160285  11.763   1.389  12.013
52796SOL    HW260286  11.739   1.308  12.138
52797SOL     OW60287   1.842   3.739   9.134
52797SOL    HW160288   1.778   3.809   9.121
52797SOL    HW260289   1.923   3.773   9.096
52798SOL     OW60290  10.107   3.461   8.291
52798SOL    HW160291  10.124   3.500   8.205
52798SOL    HW260292  10.012   3.452   8.295
52799SOL     OW60293   8.202  11.678  12.070
52799SOL    HW160294   8.214  11.613  12.001
52799SOL    HW260295   8.265  11.747  12.049
52800SOL     OW60296   2.408  14.745  10.925
52800SOL    HW160297   2.452  14.660  10.935
52800SOL    HW260298   2.316  14.722  10.909
52801SOL     OW60299  13.758  13.021  14.394
52801SOL    HW160300  13.663  13.021  14.387
52801SOL    HW260301  13.788  13.054  14.309
52802SOL     OW60302   5.652  12.665  10.925
52802SOL    HW160303   5.578  12.703  10.877
52802SOL    HW260304   5.730  12.699  10.880
52803SOL     OW60305   7.350  13.332  11.719
52803SOL    HW160306   7.370  13.424  11.736
52803SOL    HW260307   7.398  13.283  11.785
52804SOL     OW60308   3.039  14.027   9.397
52804SOL    HW160309   3.112  14.085   9.419
52804SOL    HW260310   3.081  13.948   9.364
52805SOL     OW60311  13.622   2.483   3.997
52805SOL    HW160312  13.607   2.518   4.085
52805SOL    HW260313  13.716   2.498   3.982
52806SOL     OW60314   5.246   8.751   6.600
52806SOL    HW160315   5.184   8.681   6.579
52806SOL    HW260316   5.241   8.760   6.696
52807SOL     OW60317   7.634  11.693   1.275
52807SOL    HW160318   7.644  11.706   1.369
52807SOL    HW260319   7.712  11.733   1.237
52808SOL     OW60320   3.956   2.723  13.086
52808SOL    HW160321   3.983   2.731  12.994
52808SOL    HW260322   3.872   2.676  13.082
52809SOL     OW60323   1.994   7.412   5.450
52809SOL    HW160324   1.933   7.472   5.406
52809SOL    HW260325   2.078   7.427   5.406
52810SOL     OW60326   2.026  11.772   5.562
52810SOL    HW160327   2.055  11.681   5.567
52810SOL    HW260328   2.087  11.814   5.501
52811SOL     OW60329   4.392   8.098  12.080
52811SOL    HW160330   4.460   8.031  12.081
52811SOL    HW260331   4.406   8.149  12.160
52812SOL     OW60332  13.391   2.507   7.948
52812SOL    HW160333  13.362   2.525   8.037
52812SOL    HW260334  13.401   2.593   7.907
52813SOL     OW60335   2.495  11.993  11.360
52813SOL    HW160336   2.536  11.915  11.324
52813SOL    HW260337   2.475  11.971  11.451
52814SOL     OW60338   5.238  11.499   4.892
52814SOL    HW160339   5.216  11.592   4.894
52814SOL    HW260340   5.322  11.493   4.939
52815SOL     OW60341  10.580   7.264   2.195
52815SOL    HW160342  10.549   7.233   2.109
52815SOL    HW260343  10.589   7.359   2.184
52816SOL     OW60344  13.144   3.936  10.002
52816SOL    HW160345  13.137   3.843   9.978
52816SOL    HW260346  13.177   3.979   9.924
52817SOL     OW60347  11.826  12.549   9.523
52817SOL    HW160348  11.900  12.493   9.548
52817SOL    HW260349  11.773  12.494   9.465
52818SOL     OW60350   5.727  12.368  12.702
52818SOL    HW160351   5.718  12.286  12.654
52818SOL    HW260352   5.814  12.401  12.678
52819SOL     OW60353  13.374  13.554  12.059
52819SOL    HW160354  13.304  13.582  12.117
52819SOL    HW260355  13.391  13.629  12.003
52820SOL     OW60356  13.804   7.985   8.754
52820SOL    HW160357  13.849   7.995   8.671
52820SOL    HW260358  13.856   7.921   8.802
52821SOL     OW60359   8.393  14.217   4.363
52821SOL    HW160360   8.367  14.171   4.283
52821SOL    HW260361   8.471  14.266   4.337
52822SOL     OW60362   6.976   5.092  14.563
52822SOL    HW160363   6.944   5.102  14.474
52822SOL    HW260364   7.045   5.157  14.572
52823SOL     OW60365  14.597   2.267   0.404
52823SOL    HW160366  14.664   2.267   0.473
52823SOL    HW260367  14.541   2.193   0.424
52824SOL     OW60368   4.205   5.280   3.119
52824SOL    HW160369   4.199   5.376   3.118
52824SOL    HW260370   4.294   5.261   3.089
52825SOL     OW60371   7.039   8.066   3.374
52825SOL    HW160372   7.083   8.101   3.451
52825SOL    HW260373   7.108   8.058   3.308
52826SOL     OW60374   6.916  14.453   0.007
52826SOL    HW160375   6.853  14.505   0.057
52826SOL    HW260376   6.976  14.417   0.073
52827SOL     OW60377   2.576  11.652  10.751
52827SOL    HW160378   2.605  11.734  10.790
52827SOL    HW260379   2.494  11.631  10.795
52828SOL     OW60380   5.953   3.353   8.793
52828SOL    HW160381   5.957   3.447   8.777
52828SOL    HW260382   6.017   3.339   8.863
52829SOL     OW60383  14.603   9.109   1.719
52829SOL    HW160384  14.532   9.164   1.751
52829SOL    HW260385  14.558   9.034   1.679
52830SOL     OW60386   4.054   1.486   2.568
52830SOL    HW160387   4.009   1.540   2.633
52830SOL    HW260388   3.988   1.470   2.501
52831SOL     OW60389   5.925   7.646   3.358
52831SOL    HW160390   5.895   7.587   3.288
52831SOL    HW260391   5.845   7.673   3.402
52832SOL     OW60392  12.989   2.344   5.928
52832SOL    HW160393  12.997   2.427   5.975
52832SOL    HW260394  13.076   2.304   5.933
52833SOL     OW60395  10.197   6.969  10.109
52833SOL    HW160396  10.165   7.051  10.146
52833SOL    HW260397  10.291   6.969  10.127
52834SOL     OW60398   8.080   4.524  10.459
52834SOL    HW160399   8.058   4.446  10.510
52834SOL    HW260400   8.070   4.497  10.368
52835SOL     OW60401   8.705  14.006   4.994
52835SOL    HW160402   8.684  13.928   5.045
52835SOL    HW260403   8.801  14.007   4.990
52836SOL     OW60404   6.256  12.353   7.798
52836SOL    HW160405   6.347  12.364   7.826
52836SOL    HW260406   6.231  12.439   7.764
52837SOL     OW60407   7.073   9.387   5.093
52837SOL    HW160408   6.993   9.335   5.095
52837SOL    HW260409   7.143   9.323   5.078
52838SOL     OW60410   7.888   8.834   7.427
52838SOL    HW160411   7.799   8.798   7.419
52838SOL    HW260412   7.901   8.884   7.347
52839SOL     OW60413   1.365  12.295  13.376
52839SOL    HW160414   1.347  12.237  13.302
52839SOL    HW260415   1.330  12.248  13.452
52840SOL     OW60416   5.741   8.754   3.881
52840SOL    HW160417   5.673   8.771   3.946
52840SOL    HW260418   5.792   8.834   3.878
52841SOL     OW60419   5.109   5.230  12.310
52841SOL    HW160420   5.040   5.263  12.252
52841SOL    HW260421   5.119   5.138  12.286
52842SOL     OW60422  13.696  12.604   9.590
52842SOL    HW160423  13.615  12.555   9.572
52842SOL    HW260424  13.766  12.542   9.569
52843SOL     OW60425   9.290   3.373   9.837
52843SOL    HW160426   9.338   3.345   9.759
52843SOL    HW260427   9.204   3.331   9.828
52844SOL     OW60428   9.271   2.091  12.733
52844SOL    HW160429   9.299   2.093  12.641
52844SOL    HW260430   9.331   2.030  12.775
52845SOL     OW60431   8.022   1.095   6.510
52845SOL    HW160432   7.954   1.036   6.544
52845SOL    HW260433   7.973   1.169   6.473
52846SOL     OW60434  12.532  11.190  14.497
52846SOL    HW160435  12.504  11.197  14.406
52846SOL    HW260436  12.451  11.179  14.547
52847SOL     OW60437   3.472  10.262  11.560
52847SOL    HW160438   3.385  10.259  11.600
52847SOL    HW260439   3.521  10.193  11.604
52848SOL     OW60440  12.720   1.768  10.485
52848SOL    HW160441  12.812   1.792  10.493
52848SOL    HW260442  12.676   1.848  10.457
52849SOL     OW60443   6.520  12.632   9.414
52849SOL    HW160444   6.450  12.581   9.373
52849SOL    HW260445   6.580  12.654   9.341
52850SOL     OW60446   0.343   1.587   4.609
52850SOL    HW160447   0.292   1.507   4.597
52850SOL    HW260448   0.403   1.589   4.534
52851SOL     OW60449   0.830  13.575   3.617
52851SOL    HW160450   0.816  13.666   3.590
52851SOL    HW260451   0.742  13.544   3.639
52852SOL     OW60452   7.882   4.216  12.053
52852SOL    HW160453   7.881   4.312  12.043
52852SOL    HW260454   7.960   4.198  12.105
52853SOL     OW60455   1.712  12.085  11.691
52853SOL    HW160456   1.673  12.162  11.734
52853SOL    HW260457   1.656  12.012  11.716
52854SOL     OW60458   7.858   7.611   4.721
52854SOL    HW160459   7.777   7.638   4.764
52854SOL    HW260460   7.926   7.665   4.763
52855SOL     OW60461   8.621  10.554   4.586
52855SOL    HW160462   8.621  10.643   4.552
52855SOL    HW260463   8.529  10.526   4.577
52856SOL     OW60464  14.102   5.492   5.051
52856SOL    HW160465  14.185   5.508   5.006
52856SOL    HW260466  14.089   5.398   5.045
52857SOL     OW60467   5.932   2.774   7.107
52857SOL    HW160468   6.021   2.743   7.123
52857SOL    HW260469   5.883   2.743   7.183
52858SOL     OW60470  13.221  11.698   1.038
52858SOL    HW160471  13.265  11.631   0.985
52858SOL    HW260472  13.203  11.769   0.977
52859SOL     OW60473  10.585   5.651  14.639
52859SOL    HW160474  10.662   5.704  14.659
52859SOL    HW260475  10.566   5.670  14.547
52860SOL     OW60476   2.701   5.356   1.138
52860SOL    HW160477   2.707   5.261   1.138
52860SOL    HW260478   2.629   5.375   1.199
52861SOL     OW60479   1.959   4.919   3.534
52861SOL    HW160480   1.960   4.984   3.464
52861SOL    HW260481   2.021   4.852   3.505
52862SOL     OW60482   2.781  11.547   7.528
52862SOL    HW160483   2.716  11.606   7.489
52862SOL    HW260484   2.732  11.469   7.553
52863SOL     OW60485   4.059   5.774  13.518
52863SOL    HW160486   4.052   5.713  13.592
52863SOL    HW260487   4.153   5.780  13.502
52864SOL     OW60488   9.991   8.338   1.388
52864SOL    HW160489   9.967   8.246   1.396
52864SOL    HW260490   9.922   8.385   1.433
52865SOL     OW60491  10.597   4.456   3.002
52865SOL    HW160492  10.691   4.439   2.991
52865SOL    HW260493  10.563   4.375   3.039
52866SOL     OW60494   2.784   1.670  10.710
52866SOL    HW160495   2.731   1.607  10.760
52866SOL    HW260496   2.799   1.627  10.626
52867SOL     OW60497  11.424   3.767   4.212
52867SOL    HW160498  11.468   3.812   4.285
52867SOL    HW260499  11.448   3.675   4.223
52868SOL     OW60500  10.979   5.877  13.668
52868SOL    HW160501  10.970   5.914  13.756
52868SOL    HW260502  11.072   5.857  13.659
52869SOL     OW60503   1.395   8.737   8.393
52869SOL    HW160504   1.360   8.648   8.391
52869SOL    HW260505   1.379   8.768   8.482
52870SOL     OW60506   2.153  10.849  14.589
52870SOL    HW160507   2.100  10.808  14.520
52870SOL    HW260508   2.161  10.940  14.562
52871SOL     OW60509   8.735   3.759   7.058
52871SOL    HW160510   8.724   3.666   7.078
52871SOL    HW260511   8.648   3.797   7.075
52872SOL     OW60512   4.946   6.702   4.611
52872SOL    HW160513   4.993   6.782   4.589
52872SOL    HW260514   5.013   6.634   4.616
52873SOL     OW60515  10.354   2.612   7.718
52873SOL    HW160516  10.354   2.571   7.804
52873SOL    HW260517  10.332   2.542   7.657
52874SOL     OW60518   8.519   7.168  10.928
52874SOL    HW160519   8.468   7.224  10.869
52874SOL    HW260520   8.549   7.096  10.874
52875SOL     OW60521  11.636  10.037   8.527
52875SOL    HW160522  11.728  10.021   8.545
52875SOL    HW260523  11.611  10.104   8.591
52876SOL     OW60524   4.825   4.025  11.668
52876SOL    HW160525   4.772   4.074  11.732
52876SOL    HW260526   4.873   4.093  11.621
52877SOL     OW60527   6.656  13.443   8.937
52877SOL    HW160528   6.639  13.511   8.872
52877SOL    HW260529   6.580  13.386   8.934
52878SOL     OW60530   3.667   2.825   5.664
52878SOL    HW160531   3.678   2.887   5.735
52878SOL    HW260532   3.581   2.785   5.680
52879SOL     OW60533  11.196   8.713  11.230
52879SOL    HW160534  11.228   8.626  11.252
52879SOL    HW260535  11.268   8.754  11.182
52880SOL     OW60536   1.084   6.350  11.662
52880SOL    HW160537   1.040   6.276  11.619
52880SOL    HW260538   1.083   6.328  11.755
52881SOL     OW60539   5.567  12.342   6.639
52881SOL    HW160540   5.484  12.297   6.656
52881SOL    HW260541   5.592  12.315   6.551
52882SOL     OW60542  10.477  11.948   6.485
52882SOL    HW160543  10.544  11.900   6.534
52882SOL    HW260544  10.509  11.949   6.395
52883SOL     OW60545   1.108   5.996   0.275
52883SOL    HW160546   1.138   6.087   0.273
52883SOL    HW260547   1.013   6.002   0.283
52884SOL     OW60548   9.388   4.839   9.889
52884SOL    HW160549   9.387   4.911   9.826
52884SOL    HW260550   9.432   4.876   9.966
52885SOL     OW60551   7.123  10.661   4.010
52885SOL    HW160552   7.037  10.664   4.052
52885SOL    HW260553   7.112  10.597   3.939
52886SOL     OW60554  11.343  10.329   0.965
52886SOL    HW160555  11.316  10.276   0.890
52886SOL    HW260556  11.322  10.276   1.041
52887SOL     OW60557   1.310  11.867   8.051
52887SOL    HW160558   1.294  11.913   8.133
52887SOL    HW260559   1.349  11.932   7.993
52888SOL     OW60560  13.256   0.881   4.070
52888SOL    HW160561  13.229   0.914   4.156
52888SOL    HW260562  13.182   0.830   4.040
52889SOL     OW60563   0.992  14.657  10.489
52889SOL    HW160564   1.047  14.594  10.537
52889SOL    HW260565   1.019  14.645  10.397
52890SOL     OW60566  11.993  11.719   7.591
52890SOL    HW160567  12.007  11.625   7.605
52890SOL    HW260568  12.074  11.749   7.550
52891SOL     OW60569   5.986  14.571  10.824
52891SOL    HW160570   5.911  14.530  10.868
52891SOL    HW260571   6.021  14.632  10.889
52892SOL     OW60572   1.305   3.698  10.838
52892SOL    HW160573   1.224   3.746  10.819
52892SOL    HW260574   1.275   3.616  10.876
52893SOL     OW60575  11.184   6.861   3.540
52893SOL    HW160576  11.236   6.915   3.479
52893SOL    HW260577  11.093   6.875   3.512
52894SOL     OW60578   0.675   5.417   0.679
52894SOL    HW160579   0.642   5.342   0.630
52894SOL    HW260580   0.677   5.387   0.770
52895SOL     OW60581   6.579   1.705  13.111
52895SOL    HW160582   6.644   1.746  13.169
52895SOL    HW260583   6.632   1.656  13.048
52896SOL     OW60584  10.476  13.781   2.837
52896SOL    HW160585  10.453  13.697   2.876
52896SOL    HW260586  10.545  13.816   2.893
52897SOL     OW60587   6.818  12.325   7.437
52897SOL    HW160588   6.774  12.325   7.522
52897SOL    HW260589   6.761  12.378   7.381
52898SOL     OW60590   7.927   9.046   4.369
52898SOL    HW160591   7.942   8.965   4.319
52898SOL    HW260592   7.859   9.092   4.321
52899SOL     OW60593  10.493  14.513  13.854
52899SOL    HW160594  10.540  14.596  13.839
52899SOL    HW260595  10.527  14.454  13.786
52900SOL     OW60596   4.616   2.002   5.143
52900SOL    HW160597   4.628   2.097   5.132
52900SOL    HW260598   4.522   1.992   5.156
52901SOL     OW60599   7.026   8.635   4.391
52901SOL    HW160600   6.975   8.655   4.470
52901SOL    HW260601   7.117   8.640   4.420
52902SOL     OW60602   7.788  10.142   1.599
52902SOL    HW160603   7.781  10.139   1.503
52902SOL    HW260604   7.783  10.050   1.626
52903SOL     OW60605  10.067  11.190  14.662
52903SOL    HW160606   9.978  11.176  14.693
52903SOL    HW260607  10.123  11.163  14.735
52904SOL     OW60608  14.112  13.332  11.417
52904SOL    HW160609  14.059  13.408  11.393
52904SOL    HW260610  14.201  13.366  11.426
52905SOL     OW60611   1.888   8.872   4.128
52905SOL    HW160612   1.971   8.909   4.098
52905SOL    HW260613   1.911   8.822   4.206
52906SOL     OW60614   8.615   8.542   4.670
52906SOL    HW160615   8.528   8.502   4.676
52906SOL    HW260616   8.613   8.591   4.588
52907SOL     OW60617  14.748  12.612  10.972
52907SOL    HW160618  14.838  12.638  10.950
52907SOL    HW260619  14.700  12.694  10.975
52908SOL     OW60620   1.835  14.708   2.869
52908SOL    HW160621   1.930  14.705   2.880
52908SOL    HW260622   1.814  14.631   2.816
52909SOL     OW60623  13.272   8.213   3.857
52909SOL    HW160624  13.200   8.219   3.919
52909SOL    HW260625  13.351   8.221   3.911
52910SOL     OW60626  10.163   9.341   3.060
52910SOL    HW160627  10.251   9.305   3.055
52910SOL    HW260628  10.163   9.394   3.140
52911SOL     OW60629  13.817   3.071   4.276
52911SOL    HW160630  13.827   3.025   4.193
52911SOL    HW260631  13.852   3.011   4.342
52912SOL     OW60632   0.317  11.859   9.982
52912SOL    HW160633   0.240  11.824   9.937
52912SOL    HW260634   0.355  11.784  10.026
52913SOL     OW60635   1.422   7.672   8.313
52913SOL    HW160636   1.473   7.595   8.339
52913SOL    HW260637   1.482   7.745   8.325
52914SOL     OW60638   4.152  14.096  12.115
52914SOL    HW160639   4.198  14.106  12.031
52914SOL    HW260640   4.059  14.099  12.092
52915SOL     OW60641  12.910   8.981   8.041
52915SOL    HW160642  12.835   8.977   7.981
52915SOL    HW260643  12.959   9.058   8.013
52916SOL     OW60644   8.013   3.626  10.164
52916SOL    HW160645   7.928   3.635  10.122
52916SOL    HW260646   7.994   3.629  10.258
52917SOL     OW60647  10.783   8.414   9.959
52917SOL    HW160648  10.849   8.352   9.928
52917SOL    HW260649  10.822   8.455  10.036
52918SOL     OW60650   7.928  13.958   7.459
52918SOL    HW160651   7.929  14.028   7.524
52918SOL    HW260652   7.932  13.877   7.510
52919SOL     OW60653   3.837   0.704   0.973
52919SOL    HW160654   3.851   0.672   1.062
52919SOL    HW260655   3.919   0.746   0.949
52920SOL     OW60656   8.082   2.603  11.111
52920SOL    HW160657   8.104   2.601  11.018
52920SOL    HW260658   8.135   2.533  11.150
52921SOL     OW60659   2.455   3.338   9.798
52921SOL    HW160660   2.518   3.285   9.750
52921SOL    HW260661   2.495   3.353   9.883
52922SOL     OW60662   5.929   4.109   8.276
52922SOL    HW160663   6.008   4.122   8.327
52922SOL    HW260664   5.899   4.021   8.300
52923SOL     OW60665   4.865  13.073   5.724
52923SOL    HW160666   4.881  13.166   5.742
52923SOL    HW260667   4.849  13.070   5.630
52924SOL     OW60668   0.385  13.675   5.562
52924SOL    HW160669   0.412  13.602   5.618
52924SOL    HW260670   0.411  13.753   5.610
52925SOL     OW60671   2.874   4.491   5.050
52925SOL    HW160672   2.839   4.406   5.076
52925SOL    HW260673   2.955   4.471   5.005
52926SOL     OW60674  14.183   4.085   4.041
52926SOL    HW160675  14.271   4.049   4.029
52926SOL    HW260676  14.129   4.039   3.976
52927SOL     OW60677   8.517   9.868   7.710
52927SOL    HW160678   8.571   9.946   7.701
52927SOL    HW260679   8.520   9.847   7.804
52928SOL     OW60680   3.069   7.173  11.807
52928SOL    HW160681   2.994   7.115  11.810
52928SOL    HW260682   3.106   7.170  11.895
52929SOL     OW60683   2.807   2.777   5.894
52929SOL    HW160684   2.717   2.805   5.912
52929SOL    HW260685   2.799   2.724   5.815
52930SOL     OW60686   5.993   0.066  11.551
52930SOL    HW160687   6.035   0.058  11.636
52930SOL    HW260688   6.064   0.052  11.488
52931SOL     OW60689  12.221  13.946   1.422
52931SOL    HW160690  12.261  13.890   1.355
52931SOL    HW260691  12.131  13.914   1.428
52932SOL     OW60692   7.770  12.638  12.351
52932SOL    HW160693   7.682  12.613  12.382
52932SOL    HW260694   7.829  12.607  12.420
52933SOL     OW60695   7.658   1.594   7.075
52933SOL    HW160696   7.669   1.680   7.034
52933SOL    HW260697   7.616   1.613   7.159
52934SOL     OW60698   2.214   2.039   2.499
52934SOL    HW160699   2.164   1.962   2.524
52934SOL    HW260700   2.148   2.109   2.491
52935SOL     OW60701  11.568  11.170   6.145
52935SOL    HW160702  11.614  11.210   6.071
52935SOL    HW260703  11.475  11.175   6.120
52936SOL     OW60704   3.167   4.811   3.591
52936SOL    HW160705   3.127   4.887   3.633
52936SOL    HW260706   3.123   4.805   3.506
52937SOL     OW60707   4.487  13.515   2.558
52937SOL    HW160708   4.427  13.512   2.633
52937SOL    HW260709   4.474  13.432   2.513
52938SOL     OW60710   4.335   8.702  10.487
52938SOL    HW160711   4.244   8.706  10.517
52938SOL    HW260712   4.331   8.655  10.404
52939SOL     OW60713  14.611   2.927  14.718
52939SOL    HW160714  14.541   2.890  14.772
52939SOL    HW260715  14.613   2.871  14.640
52940SOL     OW60716   7.325  10.330  14.102
52940SOL    HW160717   7.415  10.339  14.134
52940SOL    HW260718   7.298  10.242  14.129
52941SOL     OW60719   4.659   7.210   4.044
52941SOL    HW160720   4.662   7.140   4.109
52941SOL    HW260721   4.746   7.248   4.044
52942SOL     OW60722   5.963  14.045   3.538
52942SOL    HW160723   5.987  13.972   3.482
52942SOL    HW260724   5.895  14.091   3.489
52943SOL     OW60725   5.494  11.416   5.571
52943SOL    HW160726   5.556  11.401   5.643
52943SOL    HW260727   5.465  11.329   5.546
52944SOL     OW60728   5.773  11.417  13.547
52944SOL    HW160729   5.778  11.321  13.549
52944SOL    HW260730   5.828  11.441  13.472
52945SOL     OW60731  10.989  10.753  14.410
52945SOL    HW160732  11.066  10.803  14.439
52945SOL    HW260733  10.966  10.791  14.325
52946SOL     OW60734   9.768   1.650  10.337
52946SOL    HW160735   9.800   1.703  10.263
52946SOL    HW260736   9.775   1.709  10.412
52947SOL     OW60737  14.296  10.333   2.951
52947SOL    HW160738  14.271  10.285   3.030
52947SOL    HW260739  14.272  10.423   2.970
52948SOL     OW60740  13.053   1.832   5.803
52948SOL    HW160741  13.008   1.813   5.720
52948SOL    HW260742  12.996   1.794   5.870
52949SOL     OW60743   9.795   4.670   4.574
52949SOL    HW160744   9.738   4.733   4.530
52949SOL    HW260745   9.836   4.621   4.504
52950SOL     OW60746  12.298  13.298  13.032
52950SOL    HW160747  12.233  13.228  13.029
52950SOL    HW260748  12.259  13.368  12.979
52951SOL     OW60749  11.252   7.680   7.307
52951SOL    HW160750  11.297   7.759   7.339
52951SOL    HW260751  11.230   7.632   7.386
52952SOL     OW60752   9.845   2.622   4.105
52952SOL    HW160753   9.821   2.597   4.016
52952SOL    HW260754   9.772   2.675   4.136
52953SOL     OW60755  10.918   4.773  12.534
52953SOL    HW160756  10.909   4.773  12.629
52953SOL    HW260757  10.904   4.864  12.508
52954SOL     OW60758   8.577   3.316   0.482
52954SOL    HW160759   8.523   3.322   0.561
52954SOL    HW260760   8.583   3.406   0.450
52955SOL     OW60761   7.508  12.123   0.790
52955SOL    HW160762   7.593  12.096   0.823
52955SOL    HW260763   7.447  12.104   0.861
52956SOL     OW60764   9.227  12.008   9.784
52956SOL    HW160765   9.255  12.092   9.820
52956SOL    HW260766   9.264  12.005   9.696
52957SOL     OW60767   0.197  11.361  10.340
52957SOL    HW160768   0.214  11.348  10.247
52957SOL    HW260769   0.143  11.286  10.365
52958SOL     OW60770  11.836   4.490  11.285
52958SOL    HW160771  11.863   4.512  11.375
52958SOL    HW260772  11.818   4.396  11.288
52959SOL     OW60773   0.800   0.823   7.122
52959SOL    HW160774   0.819   0.730   7.111
52959SOL    HW260775   0.870   0.867   7.074
52960SOL     OW60776   4.619   0.095   9.103
52960SOL    HW160777   4.644   0.154   9.174
52960SOL    HW260778   4.624   0.149   9.024
52961SOL     OW60779   0.092   4.664   8.690
52961SOL    HW160780   0.063   4.647   8.600
52961SOL    HW260781   0.099   4.577   8.729
52962SOL     OW60782   4.777  12.915   3.367
52962SOL    HW160783   4.799  12.971   3.292
52962SOL    HW260784   4.776  12.975   3.442
52963SOL     OW60785   9.564   5.233   9.543
52963SOL    HW160786   9.660   5.233   9.550
52963SOL    HW260787   9.540   5.325   9.542
52964SOL     OW60788  11.757  10.443   4.049
52964SOL    HW160789  11.830  10.448   4.111
52964SOL    HW260790  11.683  10.411   4.102
52965SOL     OW60791   5.331   2.992   2.816
52965SOL    HW160792   5.249   2.976   2.864
52965SOL    HW260793   5.395   3.013   2.884
52966SOL     OW60794  11.419  13.155   7.289
52966SOL    HW160795  11.426  13.247   7.265
52966SOL    HW260796  11.487  13.142   7.355
52967SOL     OW60797   8.382  14.841   9.499
52967SOL    HW160798   8.427   0.045   9.543
52967SOL    HW260799   8.300   0.011   9.469
52968SOL     OW60800   0.997   7.959   9.788
52968SOL    HW160801   1.000   8.047   9.826
52968SOL    HW260802   1.052   7.907   9.847
52969SOL     OW60803  12.163  11.195   0.636
52969SOL    HW160804  12.146  11.233   0.550
52969SOL    HW260805  12.166  11.101   0.620
52970SOL     OW60806  14.133   1.231  12.896
52970SOL    HW160807  14.042   1.258  12.893
52970SOL    HW260808  14.171   1.265  12.814
52971SOL     OW60809   3.486   0.678   7.629
52971SOL    HW160810   3.470   0.746   7.694
52971SOL    HW260811   3.446   0.599   7.666
52972SOL     OW60812   3.619  12.107   0.680
52972SOL    HW160813   3.701  12.057   0.679
52972SOL    HW260814   3.595  12.115   0.588
52973SOL     OW60815  12.177   9.722  12.086
52973SOL    HW160816  12.246   9.655  12.087
52973SOL    HW260817  12.168   9.748  12.177
52974SOL     OW60818   3.977   7.256  11.423
52974SOL    HW160819   4.034   7.331  11.407
52974SOL    HW260820   3.912   7.287  11.485
52975SOL     OW60821  12.109   5.257   8.629
52975SOL    HW160822  12.162   5.178   8.639
52975SOL    HW260823  12.019   5.227   8.644
52976SOL     OW60824  10.721   1.084   2.180
52976SOL    HW160825  10.706   1.124   2.095
52976SOL    HW260826  10.721   1.157   2.242
52977SOL     OW60827   3.188   5.909   5.073
52977SOL    HW160828   3.280   5.886   5.086
52977SOL    HW260829   3.190   5.989   5.022
52978SOL     OW60830  14.278   5.582  11.455
52978SOL    HW160831  14.293   5.601  11.362
52978SOL    HW260832  14.366   5.564  11.489
52979SOL     OW60833  10.198   1.002   9.041
52979SOL    HW160834  10.147   1.056   8.980
52979SOL    HW260835  10.267   1.060   9.073
52980SOL     OW60836   6.618   0.408   5.729
52980SOL    HW160837   6.547   0.470   5.713
52980SOL    HW260838   6.683   0.427   5.660
52981SOL     OW60839   4.876   2.924   4.694
52981SOL    HW160840   4.966   2.892   4.696
52981SOL    HW260841   4.884   3.018   4.711
52982SOL     OW60842   1.773   8.070   1.351
52982SOL    HW160843   1.779   8.151   1.300
52982SOL    HW260844   1.829   8.085   1.427
52983SOL     OW60845   8.394  11.145  13.962
52983SOL    HW160846   8.376  11.052  13.947
52983SOL    HW260847   8.470  11.164  13.908
52984SOL     OW60848   3.341   6.394  12.081
52984SOL    HW160849   3.397   6.470  12.065
52984SOL    HW260850   3.309   6.369  11.995
52985SOL     OW60851  13.425   4.688   1.344
52985SOL    HW160852  13.342   4.721   1.379
52985SOL    HW260853  13.402   4.603   1.306
52986SOL     OW60854   0.509   3.240   4.435
52986SOL    HW160855   0.565   3.317   4.427
52986SOL    HW260856   0.566   3.172   4.472
52987SOL     OW60857   8.446   5.030  12.455
52987SOL    HW160858   8.535   5.029  12.490
52987SOL    HW260859   8.458   5.034  12.360
52988SOL     OW60860   0.773   7.480   6.736
52988SOL    HW160861   0.861   7.456   6.706
52988SOL    HW260862   0.715   7.424   6.684
52989SOL     OW60863   7.781  12.044   1.503
52989SOL    HW160864   7.765  12.065   1.411
52989SOL    HW260865   7.815  12.125   1.540
52990SOL     OW60866   4.279   0.100   1.401
52990SOL    HW160867   4.297   0.063   1.314
52990SOL    HW260868   4.351   0.070   1.456
52991SOL     OW60869   6.865  13.089   5.463
52991SOL    HW160870   6.845  13.108   5.555
52991SOL    HW260871   6.903  13.171   5.430
52992SOL     OW60872  12.921   4.022   9.382
52992SOL    HW160873  12.991   4.069   9.427
52992SOL    HW260874  12.845   4.031   9.440
52993SOL     OW60875  10.929   5.339   8.742
52993SOL    HW160876  10.882   5.416   8.775
52993SOL    HW260877  10.993   5.374   8.680
52994SOL     OW60878   8.258  12.982   6.903
52994SOL    HW160879   8.333  13.013   6.954
52994SOL    HW260880   8.236  13.055   6.845
52995SOL     OW60881  12.823   2.366   3.770
52995SOL    HW160882  12.797   2.328   3.854
52995SOL    HW260883  12.860   2.451   3.793
52996SOL     OW60884  12.653   5.384   3.467
52996SOL    HW160885  12.589   5.376   3.537
52996SOL    HW260886  12.735   5.408   3.511
52997SOL     OW60887  13.123  14.253   8.231
52997SOL    HW160888  13.151  14.342   8.253
52997SOL    HW260889  13.075  14.224   8.308
52998SOL     OW60890   1.412   0.362   2.185
52998SOL    HW160891   1.430   0.336   2.276
52998SOL    HW260892   1.462   0.301   2.132
52999SOL     OW60893   0.869   9.683   6.238
52999SOL    HW160894   0.920   9.709   6.161
52999SOL    HW260895   0.787   9.732   6.230
53000SOL     OW60896  13.014  13.161   7.251
53000SOL    HW160897  13.022  13.239   7.306
53000SOL    HW260898  13.074  13.098   7.291
53001SOL     OW60899  12.047  10.596  11.201
53001SOL    HW160900  11.974  10.611  11.262
53001SOL    HW260901  12.109  10.544  11.251
53002SOL     OW60902   1.453  10.741   6.148
53002SOL    HW160903   1.468  10.833   6.172
53002SOL    HW260904   1.360  10.737   6.126
53003SOL     OW60905   0.154   7.089   2.449
53003SOL    HW160906   0.161   7.018   2.512
53003SOL    HW260907   0.096   7.153   2.491
53004SOL     OW60908   4.175   9.930   0.036
53004SOL    HW160909   4.192  10.022   0.054
53004SOL    HW260910   4.257   9.898  14.865
53005SOL     OW60911   3.209  14.558  12.246
53005SOL    HW160912   3.136  14.618  12.232
53005SOL    HW260913   3.174  14.490  12.304
53006SOL     OW60914   9.944  13.382   9.757
53006SOL    HW160915   9.882  13.447   9.723
53006SOL    HW260916   9.949  13.402   9.851
53007SOL     OW60917   6.754  11.494   6.802
53007SOL    HW160918   6.828  11.520   6.858
53007SOL    HW260919   6.793  11.480   6.716
53008SOL     OW60920  12.142   8.396  12.566
53008SOL    HW160921  12.166   8.303  12.571
53008SOL    HW260922  12.127   8.412  12.473
53009SOL     OW60923   1.369   2.478  10.541
53009SOL    HW160924   1.363   2.508  10.451
53009SOL    HW260925   1.451   2.516  10.574
53010SOL     OW60926   9.160  12.647   6.626
53010SOL    HW160927   9.089  12.624   6.566
53010SOL    HW260928   9.218  12.702   6.573
53011SOL     OW60929   9.693   3.632   0.278
53011SOL    HW160930   9.683   3.642   0.183
53011SOL    HW260931   9.784   3.606   0.290
53012SOL     OW60932  14.292   3.345  11.098
53012SOL    HW160933  14.255   3.300  11.175
53012SOL    HW260934  14.239   3.314  11.025
53013SOL     OW60935  13.638   0.731  11.496
53013SOL    HW160936  13.554   0.750  11.455
53013SOL    HW260937  13.664   0.646  11.459
53014SOL     OW60938   8.397  12.547   0.442
53014SOL    HW160939   8.409  12.583   0.354
53014SOL    HW260940   8.331  12.478   0.430
53015SOL     OW60941  11.273  10.813   0.812
53015SOL    HW160942  11.227  10.749   0.866
53015SOL    HW260943  11.230  10.807   0.726
53016SOL     OW60944  13.782  10.217   7.296
53016SOL    HW160945  13.753  10.225   7.205
53016SOL    HW260946  13.877  10.231   7.292
53017SOL     OW60947   0.782   7.466   0.467
53017SOL    HW160948   0.717   7.407   0.506
53017SOL    HW260949   0.846   7.480   0.537
53018SOL     OW60950   1.451  11.378   6.012
53018SOL    HW160951   1.393  11.453   6.028
53018SOL    HW260952   1.532  11.399   6.059
53019SOL     OW60953   9.825   2.159   1.816
53019SOL    HW160954   9.812   2.097   1.888
53019SOL    HW260955   9.828   2.104   1.738
53020SOL     OW60956   6.556   2.346   6.644
53020SOL    HW160957   6.487   2.405   6.675
53020SOL    HW260958   6.607   2.325   6.723
53021SOL     OW60959   5.756  12.633  13.681
53021SOL    HW160960   5.738  12.544  13.711
53021SOL    HW260961   5.851  12.634  13.667
53022SOL     OW60962   2.962   7.189  10.649
53022SOL    HW160963   2.976   7.191  10.744
53022SOL    HW260964   2.934   7.099  10.631
53023SOL     OW60965   0.555   4.777   8.535
53023SOL    HW160966   0.586   4.754   8.623
53023SOL    HW260967   0.490   4.709   8.514
53024SOL     OW60968   5.192  10.883   8.266
53024SOL    HW160969   5.186  10.892   8.361
53024SOL    HW260970   5.181  10.789   8.250
53025SOL     OW60971  13.263   9.619   5.100
53025SOL    HW160972  13.277   9.597   5.192
53025SOL    HW260973  13.225   9.707   5.101
53026SOL     OW60974   6.351   0.428  13.093
53026SOL    HW160975   6.308   0.353  13.136
53026SOL    HW260976   6.373   0.396  13.006
53027SOL     OW60977   4.361  14.572   1.994
53027SOL    HW160978   4.267  14.562   1.981
53027SOL    HW260979   4.369  14.622   2.076
53028SOL     OW60980  14.652   1.690  14.410
53028SOL    HW160981  14.648   1.699  14.505
53028SOL    HW260982  14.586   1.624  14.390
53029SOL     OW60983   6.490   3.715  13.483
53029SOL    HW160984   6.447   3.760  13.555
53029SOL    HW260985   6.431   3.726  13.409
53030SOL     OW60986   2.606   3.817   7.647
53030SOL    HW160987   2.581   3.817   7.555
53030SOL    HW260988   2.651   3.733   7.659
53031SOL     OW60989   5.012  13.362   9.595
53031SOL    HW160990   4.917  13.365   9.583
53031SOL    HW260991   5.024  13.306   9.672
53032SOL     OW60992   3.313   3.386   1.031
53032SOL    HW160993   3.224   3.395   1.063
53032SOL    HW260994   3.350   3.474   1.039
53033SOL     OW60995   1.319  11.482   8.474
53033SOL    HW160996   1.247  11.545   8.481
53033SOL    HW260997   1.278  11.397   8.491
53034SOL     OW60998  12.704   3.138   6.102
53034SOL    HW160999  12.767   3.093   6.046
53034SOL    HW261000  12.656   3.196   6.043
53035SOL     OW61001   4.442  11.712   2.113
53035SOL    HW161002   4.509  11.686   2.177
53035SOL    HW261003   4.477  11.681   2.029
53036SOL     OW61004   8.464   7.958  10.858
53036SOL    HW161005   8.504   7.937  10.942
53036SOL    HW261006   8.384   7.905  10.856
53037SOL     OW61007   1.574  11.680   3.821
53037SOL    HW161008   1.615  11.610   3.771
53037SOL    HW261009   1.514  11.635   3.881
53038SOL     OW61010  12.249   6.244   5.326
53038SOL    HW161011  12.316   6.300   5.368
53038SOL    HW261012  12.262   6.158   5.366
53039SOL     OW61013  13.554   3.607   2.742
53039SOL    HW161014  13.520   3.527   2.781
53039SOL    HW261015  13.649   3.598   2.748
53040SOL     OW61016   2.391  12.461  10.713
53040SOL    HW161017   2.330  12.445  10.785
53040SOL    HW261018   2.374  12.551  10.686
53041SOL     OW61019   1.354   8.145  14.604
53041SOL    HW161020   1.323   8.228  14.640
53041SOL    HW261021   1.447   8.143  14.625
53042SOL     OW61022  10.592   5.892   3.489
53042SOL    HW161023  10.530   5.944   3.438
53042SOL    HW261024  10.583   5.803   3.456
53043SOL     OW61025   6.851   8.797   7.754
53043SOL    HW161026   6.896   8.791   7.670
53043SOL    HW261027   6.916   8.834   7.814
53044SOL     OW61028  14.198   7.516   7.871
53044SOL    HW161029  14.152   7.434   7.854
53044SOL    HW261030  14.272   7.514   7.810
53045SOL     OW61031   8.934   9.626  14.708
53045SOL    HW161032   8.926   9.565  14.635
53045SOL    HW261033   8.853   9.613  14.758
53046SOL     OW61034   9.880   9.537   5.824
53046SOL    HW161035   9.879   9.480   5.747
53046SOL    HW261036   9.790   9.566   5.834
53047SOL     OW61037   4.094   6.165  10.908
53047SOL    HW161038   4.087   6.092  10.847
53047SOL    HW261039   4.168   6.143  10.965
53048SOL     OW61040   1.537   6.687   5.103
53048SOL    HW161041   1.489   6.608   5.128
53048SOL    HW261042   1.619   6.682   5.152
53049SOL     OW61043  11.557  12.105   1.669
53049SOL    HW161044  11.619  12.044   1.710
53049SOL    HW261045  11.612  12.157   1.610
53050SOL     OW61046  10.030  14.295  11.894
53050SOL    HW161047   9.962  14.327  11.954
53050SOL    HW261048   9.989  14.299  11.807
53051SOL     OW61049   1.166   4.245   5.695
53051SOL    HW161050   1.138   4.173   5.751
53051SOL    HW261051   1.085   4.287   5.667
53052SOL     OW61052   1.557   8.739   5.015
53052SOL    HW161053   1.651   8.729   5.004
53052SOL    HW261054   1.537   8.688   5.093
53053SOL     OW61055   8.867   7.633   8.349
53053SOL    HW161056   8.937   7.691   8.321
53053SOL    HW261057   8.816   7.616   8.269
53054SOL     OW61058  10.806  12.263   4.094
53054SOL    HW161059  10.793  12.242   4.187
53054SOL    HW261060  10.727  12.311   4.069
53055SOL     OW61061   5.667   1.655  10.862
53055SOL    HW161062   5.606   1.727  10.875
53055SOL    HW261063   5.745   1.680  10.911
53056SOL     OW61064   9.902  14.793  14.109
53056SOL    HW161065   9.867   0.008  14.076
53056SOL    HW261066   9.835  14.760  14.169
53057SOL     OW61067  14.228   6.680  12.873
53057SOL    HW161068  14.148   6.704  12.826
53057SOL    HW261069  14.296   6.733  12.833
53058SOL     OW61070   5.089   8.311  12.590
53058SOL    HW161071   5.097   8.270  12.676
53058SOL    HW261072   5.160   8.375  12.587
53059SOL     OW61073  13.179   4.795   4.125
53059SOL    HW161074  13.151   4.723   4.182
53059SOL    HW261075  13.220   4.858   4.185
53060SOL     OW61076   8.148  12.450   7.931
53060SOL    HW161077   8.159  12.422   8.022
53060SOL    HW261078   8.057  12.430   7.911
53061SOL     OW61079  10.710   9.787   2.784
53061SOL    HW161080  10.718   9.704   2.737
53061SOL    HW261081  10.663   9.844   2.724
53062SOL     OW61082   2.410   6.372   2.107
53062SOL    HW161083   2.448   6.305   2.164
53062SOL    HW261084   2.320   6.342   2.092
53063SOL     OW61085   7.337   0.236   7.726
53063SOL    HW161086   7.403   0.277   7.671
53063SOL    HW261087   7.254   0.250   7.680
53064SOL     OW61088  14.046  10.312  11.443
53064SOL    HW161089  13.997  10.274  11.515
53064SOL    HW261090  14.122  10.353  11.484
53065SOL     OW61091  13.537  10.227  14.128
53065SOL    HW161092  13.585  10.183  14.199
53065SOL    HW261093  13.587  10.206  14.049
53066SOL     OW61094   1.081   9.993  10.708
53066SOL    HW161095   1.026   9.926  10.668
53066SOL    HW261096   1.149   9.945  10.754
53067SOL     OW61097  10.230   2.346   4.474
53067SOL    HW161098  10.231   2.381   4.385
53067SOL    HW261099  10.310   2.381   4.514
53068SOL     OW61100   1.679   3.971   2.227
53068SOL    HW161101   1.621   3.912   2.275
53068SOL    HW261102   1.622   4.040   2.194
53069SOL     OW61103  12.034   1.121   2.695
53069SOL    HW161104  12.005   1.031   2.707
53069SOL    HW261105  11.953   1.173   2.697
53070SOL     OW61106   5.538  13.209   9.749
53070SOL    HW161107   5.539  13.116   9.725
53070SOL    HW261108   5.447  13.226   9.774
53071SOL     OW61109   1.835   9.762   1.858
53071SOL    HW161110   1.842   9.749   1.764
53071SOL    HW261111   1.796   9.682   1.891
53072SOL     OW61112  13.850   7.662   3.862
53072SOL    HW161113  13.928   7.607   3.855
53072SOL    HW261114  13.881   7.743   3.902
53073SOL     OW61115   1.707   9.434   1.478
53073SOL    HW161116   1.802   9.423   1.485
53073SOL    HW261117   1.672   9.391   1.557
53074SOL     OW61118   2.030  10.270   5.117
53074SOL    HW161119   2.093  10.321   5.168
53074SOL    HW261120   2.026  10.185   5.161
53075SOL     OW61121  14.122  14.692  14.341
53075SOL    HW161122  14.135  14.637  14.418
53075SOL    HW261123  14.084  14.773  14.376
53076SOL     OW61124   7.020  10.927  12.516
53076SOL    HW161125   6.990  10.881  12.595
53076SOL    HW261126   7.085  10.868  12.478
53077SOL     OW61127  10.360   2.642   9.585
53077SOL    HW161128  10.300   2.654   9.511
53077SOL    HW261129  10.391   2.731   9.605
53078SOL     OW61130  12.898  10.411  14.677
53078SOL    HW161131  12.889  10.468  14.601
53078SOL    HW261132  12.816  10.361  14.679
53079SOL     OW61133  12.137  11.551  11.168
53079SOL    HW161134  12.126  11.457  11.157
53079SOL    HW261135  12.062  11.578  11.222
53080SOL     OW61136   4.728  11.985   3.890
53080SOL    HW161137   4.709  11.958   3.980
53080SOL    HW261138   4.661  12.051   3.870
53081SOL     OW61139  10.684   0.230  11.429
53081SOL    HW161140  10.608   0.281  11.454
53081SOL    HW261141  10.648   0.157  11.378
53082SOL     OW61142   6.038   8.414   2.218
53082SOL    HW161143   5.968   8.388   2.278
53082SOL    HW261144   5.993   8.455   2.144
53083SOL     OW61145  14.545   5.940  10.028
53083SOL    HW161146  14.493   5.961   9.950
53083SOL    HW261147  14.490   5.880  10.078
53084SOL     OW61148   5.550  13.708  10.642
53084SOL    HW161149   5.472  13.687  10.693
53084SOL    HW261150   5.533  13.671  10.556
53085SOL     OW61151   9.276  13.533   6.540
53085SOL    HW161152   9.304  13.502   6.453
53085SOL    HW261153   9.182  13.515   6.543
53086SOL     OW61154   0.633  10.329  10.433
53086SOL    HW161155   0.673  10.368  10.356
53086SOL    HW261156   0.696  10.343  10.503
53087SOL     OW61157   1.951   8.338   3.129
53087SOL    HW161158   1.915   8.425   3.110
53087SOL    HW261159   1.921   8.318   3.217
53088SOL     OW61160  11.561  12.423  12.541
53088SOL    HW161161  11.501  12.376  12.599
53088SOL    HW261162  11.648  12.391  12.565
53089SOL     OW61163  10.232  11.072   8.133
53089SOL    HW161164  10.161  11.014   8.162
53089SOL    HW261165  10.195  11.122   8.061
53090SOL     OW61166   4.130   6.197   6.582
53090SOL    HW161167   4.087   6.133   6.638
53090SOL    HW261168   4.118   6.281   6.627
53091SOL     OW61169   7.383  11.710   6.135
53091SOL    HW161170   7.436  11.630   6.131
53091SOL    HW261171   7.301  11.682   6.176
53092SOL     OW61172   6.607   9.336   4.871
53092SOL    HW161173   6.604   9.425   4.908
53092SOL    HW261174   6.683   9.337   4.813
53093SOL     OW61175   1.649  14.299   3.563
53093SOL    HW161176   1.712  14.318   3.633
53093SOL    HW261177   1.565  14.289   3.609
53094SOL     OW61178   6.055   7.072  11.995
53094SOL    HW161179   6.110   7.069  11.917
53094SOL    HW261180   6.082   6.997  12.047
53095SOL     OW61181   4.443   5.116   4.372
53095SOL    HW161182   4.402   5.194   4.335
53095SOL    HW261183   4.376   5.048   4.365
53096SOL     OW61184  13.945   5.978   0.653
53096SOL    HW161185  14.020   6.036   0.638
53096SOL    HW261186  13.953   5.909   0.587
53097SOL     OW61187   6.327   7.811  12.490
53097SOL    HW161188   6.325   7.728  12.536
53097SOL    HW261189   6.399   7.860  12.530
53098SOL     OW61190   5.545   0.433   5.394
53098SOL    HW161191   5.602   0.504   5.426
53098SOL    HW261192   5.459   0.452   5.431
53099SOL     OW61193   6.612   0.042   1.683
53099SOL    HW161194   6.632   0.075   1.595
53099SOL    HW261195   6.557  14.833   1.668
53100SOL     OW61196  11.480   2.528   9.559
53100SOL    HW161197  11.553   2.590   9.570
53100SOL    HW261198  11.498   2.486   9.475
53101SOL     OW61199   4.198   7.532  13.502
53101SOL    HW161200   4.123   7.485  13.537
53101SOL    HW261201   4.190   7.524  13.407
53102SOL     OW61202   6.584  14.047  14.150
53102SOL    HW161203   6.573  14.036  14.055
53102SOL    HW261204   6.558  13.963  14.187
53103SOL     OW61205   2.570   0.725   5.458
53103SOL    HW161206   2.600   0.635   5.467
53103SOL    HW261207   2.590   0.766   5.542
53104SOL     OW61208  12.171  11.094   4.951
53104SOL    HW161209  12.189  11.182   4.984
53104SOL    HW261210  12.229  11.084   4.875
53105SOL     OW61211  13.081  14.812   7.318
53105SOL    HW161212  12.987  14.794   7.313
53105SOL    HW261213  13.105  14.837   7.229
53106SOL     OW61214   9.893  12.158   5.478
53106SOL    HW161215   9.974  12.114   5.502
53106SOL    HW261216   9.858  12.105   5.406
53107SOL     OW61217   1.796  11.019  10.219
53107SOL    HW161218   1.828  11.108  10.233
53107SOL    HW261219   1.858  10.964  10.267
53108SOL     OW61220   9.221  13.217   2.779
53108SOL    HW161221   9.187  13.245   2.864
53108SOL    HW261222   9.286  13.150   2.799
53109SOL     OW61223   4.777  14.139   4.605
53109SOL    HW161224   4.709  14.205   4.618
53109SOL    HW261225   4.852  14.188   4.571
53110SOL     OW61226   5.459   5.097   2.690
53110SOL    HW161227   5.506   5.166   2.643
53110SOL    HW261228   5.389   5.143   2.737
53111SOL     OW61229  12.053   3.524   0.533
53111SOL    HW161230  12.004   3.529   0.616
53111SOL    HW261231  11.996   3.473   0.475
53112SOL     OW61232   2.794   6.163   5.032
53112SOL    HW161233   2.834   6.079   5.054
53112SOL    HW261234   2.810   6.218   5.109
53113SOL     OW61235   9.579   5.179   6.421
53113SOL    HW161236   9.586   5.192   6.326
53113SOL    HW261237   9.622   5.256   6.458
53114SOL     OW61238   8.598   8.562  12.983
53114SOL    HW161239   8.688   8.593  12.996
53114SOL    HW261240   8.608   8.470  12.958
53115SOL     OW61241   6.714  11.013   0.563
53115SOL    HW161242   6.670  10.939   0.603
53115SOL    HW261243   6.665  11.030   0.483
53116SOL     OW61244   8.789   8.269   7.225
53116SOL    HW161245   8.844   8.194   7.248
53116SOL    HW261246   8.851   8.336   7.196
53117SOL     OW61247   9.047   0.766   6.803
53117SOL    HW161248   9.033   0.694   6.865
53117SOL    HW261249   9.090   0.834   6.854
53118SOL     OW61250   7.602   3.876   8.062
53118SOL    HW161251   7.687   3.918   8.049
53118SOL    HW261252   7.539   3.936   8.021
53119SOL     OW61253  12.178   3.809   6.229
53119SOL    HW161254  12.218   3.896   6.233
53119SOL    HW261255  12.104   3.814   6.290
53120SOL     OW61256   1.057  11.560  12.028
53120SOL    HW161257   1.014  11.536  12.110
53120SOL    HW261258   1.083  11.476  11.989
53121SOL     OW61259  11.726   0.884   5.799
53121SOL    HW161260  11.738   0.889   5.894
53121SOL    HW261261  11.721   0.975   5.771
53122SOL     OW61262   7.280   6.965  14.473
53122SOL    HW161263   7.303   6.890  14.418
53122SOL    HW261264   7.237   7.026  14.413
53123SOL     OW61265   1.420   4.303   5.254
53123SOL    HW161266   1.329   4.330   5.265
53123SOL    HW261267   1.417   4.240   5.182
53124SOL     OW61268   9.587   3.073   7.983
53124SOL    HW161269   9.653   3.101   7.920
53124SOL    HW261270   9.588   2.977   7.978
53125SOL     OW61271   0.187   2.261  10.155
53125SOL    HW161272   0.281   2.277  10.165
53125SOL    HW261273   0.181   2.173  10.119
53126SOL     OW61274  12.517  11.194   3.713
53126SOL    HW161275  12.535  11.146   3.794
53126SOL    HW261276  12.529  11.286   3.737
53127SOL     OW61277   2.105   2.996   9.179
53127SOL    HW161278   2.068   2.937   9.245
53127SOL    HW261279   2.114   3.080   9.224
53128SOL     OW61280   2.580  10.094  13.119
53128SOL    HW161281   2.656  10.086  13.177
53128SOL    HW261282   2.593  10.026  13.053
53129SOL     OW61283   7.323   0.247   0.445
53129SOL    HW161284   7.308   0.189   0.519
53129SOL    HW261285   7.356   0.328   0.484
53130SOL     OW61286   6.260   6.573  14.420
53130SOL    HW161287   6.167   6.562  14.439
53130SOL    HW261288   6.271   6.667  14.407
53131SOL     OW61289   1.639  13.778  13.499
53131SOL    HW161290   1.646  13.700  13.444
53131SOL    HW261291   1.725  13.819  13.493
53132SOL     OW61292  10.491   2.348  12.034
53132SOL    HW161293  10.535   2.392  12.107
53132SOL    HW261294  10.492   2.256  12.058
53133SOL     OW61295   7.207   5.731  11.228
53133SOL    HW161296   7.292   5.753  11.189
53133SOL    HW261297   7.156   5.811  11.221
53134SOL     OW61298  12.435  14.134   3.453
53134SOL    HW161299  12.413  14.157   3.363
53134SOL    HW261300  12.441  14.219   3.498
53135SOL     OW61301   2.929   6.082  12.227
53135SOL    HW161302   2.931   6.061  12.134
53135SOL    HW261303   2.980   6.013  12.270
53136SOL     OW61304  10.008   1.040   8.760
53136SOL    HW161305  10.091   1.089   8.768
53136SOL    HW261306  10.030   0.967   8.702
53137SOL     OW61307   0.830   0.071  13.272
53137SOL    HW161308   0.863  14.857  13.310
53137SOL    HW261309   0.809   0.049  13.181
53138SOL     OW61310   2.411   1.804   6.951
53138SOL    HW161311   2.497   1.844   6.946
53138SOL    HW261312   2.396   1.791   7.045
53139SOL     OW61313   9.022  14.279   6.357
53139SOL    HW161314   9.104  14.319   6.325
53139SOL    HW261315   8.972  14.352   6.393
53140SOL     OW61316   5.611  11.569   3.490
53140SOL    HW161317   5.635  11.581   3.582
53140SOL    HW261318   5.547  11.498   3.491
53141SOL     OW61319   2.413   3.022   8.631
53141SOL    HW161320   2.446   3.031   8.542
53141SOL    HW261321   2.487   2.987   8.681
53142SOL     OW61322  14.842   3.058   0.500
53142SOL    HW161323   0.066   3.069   0.474
53142SOL    HW261324  14.847   3.011   0.583
53143SOL     OW61325  14.834   1.794   6.025
53143SOL    HW161326   0.016   1.722   6.064
53143SOL    HW261327  14.817   1.765   5.935
53144SOL     OW61328   4.650   7.965  13.310
53144SOL    HW161329   4.661   8.059  13.318
53144SOL    HW261330   4.739   7.930  13.315
53145SOL     OW61331   6.695  11.648   4.733
53145SOL    HW161332   6.673  11.568   4.686
53145SOL    HW261333   6.703  11.714   4.664
53146SOL     OW61334  11.972   1.790   1.642
53146SOL    HW161335  11.889   1.759   1.607
53146SOL    HW261336  12.019   1.826   1.567
53147SOL     OW61337  11.537  13.850   1.235
53147SOL    HW161338  11.582  13.782   1.185
53147SOL    HW261339  11.458  13.808   1.268
53148SOL     OW61340  14.374  10.267  13.136
53148SOL    HW161341  14.415  10.295  13.218
53148SOL    HW261342  14.280  10.279  13.151
53149SOL     OW61343   5.757  14.359  10.590
53149SOL    HW161344   5.753  14.417  10.514
53149SOL    HW261345   5.725  14.275  10.558
53150SOL     OW61346  13.118   9.451   3.412
53150SOL    HW161347  13.033   9.416   3.439
53150SOL    HW261348  13.175   9.375   3.404
53151SOL     OW61349   4.530  10.960   5.181
53151SOL    HW161350   4.559  11.048   5.203
53151SOL    HW261351   4.494  10.925   5.262
53152SOL     OW61352  12.393   6.713   0.355
53152SOL    HW161353  12.391   6.647   0.423
53152SOL    HW261354  12.486   6.735   0.346
53153SOL     OW61355   9.655   3.825  12.956
53153SOL    HW161356   9.628   3.850  12.867
53153SOL    HW261357   9.692   3.905  12.993
53154SOL     OW61358   1.380  11.711  12.186
53154SOL    HW161359   1.456  11.666  12.148
53154SOL    HW261360   1.408  11.733  12.275
53155SOL     OW61361  14.682   5.272   7.802
53155SOL    HW161362  14.766   5.258   7.758
53155SOL    HW261363  14.619   5.279   7.730
53156SOL     OW61364   5.658   7.429   1.830
53156SOL    HW161365   5.601   7.502   1.854
53156SOL    HW261366   5.736   7.442   1.884
53157SOL     OW61367   8.253   1.893   7.168
53157SOL    HW161368   8.346   1.912   7.178
53157SOL    HW261369   8.237   1.818   7.226
53158SOL     OW61370  13.526   5.954   0.747
53158SOL    HW161371  13.602   6.012   0.739
53158SOL    HW261372  13.495   5.944   0.657
53159SOL     OW61373   0.054   5.797   6.535
53159SOL    HW161374   0.036   5.877   6.485
53159SOL    HW261375   0.091   5.737   6.471
53160SOL     OW61376   3.046   3.750   8.404
53160SOL    HW161377   2.973   3.760   8.465
53160SOL    HW261378   3.064   3.839   8.374
53161SOL     OW61379   8.392  10.456   8.481
53161SOL    HW161380   8.375  10.362   8.474
53161SOL    HW261381   8.306  10.494   8.500
53162SOL     OW61382   0.149   2.229   3.822
53162SOL    HW161383   0.089   2.246   3.750
53162SOL    HW261384   0.095   2.240   3.901
53163SOL     OW61385   9.224   3.008   9.817
53163SOL    HW161386   9.211   2.923   9.775
53163SOL    HW261387   9.136   3.032   9.847
53164SOL     OW61388   4.444   8.374   1.064
53164SOL    HW161389   4.416   8.348   1.152
53164SOL    HW261390   4.518   8.318   1.044
53165SOL     OW61391  10.930   4.745   7.319
53165SOL    HW161392  10.905   4.828   7.358
53165SOL    HW261393  11.009   4.719   7.367
53166SOL     OW61394   6.532   9.494  13.578
53166SOL    HW161395   6.488   9.517  13.659
53166SOL    HW261396   6.543   9.399  13.583
53167SOL     OW61397   1.495   7.584   6.875
53167SOL    HW161398   1.544   7.636   6.938
53167SOL    HW261399   1.562   7.549   6.815
53168SOL     OW61400   2.171   7.077   3.855
53168SOL    HW161401   2.166   7.066   3.760
53168SOL    HW261402   2.206   7.165   3.867
53169SOL     OW61403   9.240   6.066   7.863
53169SOL    HW161404   9.191   6.117   7.798
53169SOL    HW261405   9.309   6.023   7.813
53170SOL     OW61406  12.476   6.715   6.772
53170SOL    HW161407  12.399   6.667   6.801
53170SOL    HW261408  12.465   6.723   6.678
53171SOL     OW61409   2.612  13.786   3.309
53171SOL    HW161410   2.601  13.845   3.234
53171SOL    HW261411   2.621  13.845   3.384
53172SOL     OW61412   7.643   3.288   2.258
53172SOL    HW161413   7.679   3.291   2.169
53172SOL    HW261414   7.646   3.378   2.288
53173SOL     OW61415  10.769   3.055   5.325
53173SOL    HW161416  10.849   3.103   5.346
53173SOL    HW261417  10.701   3.100   5.375
53174SOL     OW61418  11.476   4.729   0.362
53174SOL    HW161419  11.501   4.814   0.398
53174SOL    HW261420  11.414   4.750   0.292
53175SOL     OW61421   5.887  10.615   6.249
53175SOL    HW161422   5.859  10.706   6.263
53175SOL    HW261423   5.834  10.564   6.310
53176SOL     OW61424   3.096   1.145  12.868
53176SOL    HW161425   3.116   1.099  12.787
53176SOL    HW261426   3.172   1.130  12.924
53177SOL     OW61427   2.735  11.828   1.460
53177SOL    HW161428   2.656  11.775   1.474
53177SOL    HW261429   2.806  11.765   1.456
53178SOL     OW61430   1.364  13.161   9.964
53178SOL    HW161431   1.375  13.151  10.059
53178SOL    HW261432   1.328  13.077   9.935
53179SOL     OW61433   8.728   7.303  12.061
53179SOL    HW161434   8.806   7.282  12.113
53179SOL    HW261435   8.759   7.366  11.996
53180SOL     OW61436   9.467   3.452   8.360
53180SOL    HW161437   9.519   3.408   8.428
53180SOL    HW261438   9.525   3.522   8.329
53181SOL     OW61439  13.555  11.081  12.686
53181SOL    HW161440  13.581  11.025  12.759
53181SOL    HW261441  13.554  11.023  12.610
53182SOL     OW61442   0.816  12.570  11.200
53182SOL    HW161443   0.786  12.566  11.110
53182SOL    HW261444   0.871  12.492  11.210
53183SOL     OW61445   0.786   8.290   4.429
53183SOL    HW161446   0.806   8.201   4.455
53183SOL    HW261447   0.805   8.293   4.335
53184SOL     OW61448   2.725  11.880   6.205
53184SOL    HW161449   2.714  11.797   6.251
53184SOL    HW261450   2.640  11.899   6.167
53185SOL     OW61451   0.928   3.907   2.097
53185SOL    HW161452   0.840   3.943   2.081
53185SOL    HW261453   0.913   3.814   2.113
53186SOL     OW61454   3.952   2.667  11.997
53186SOL    HW161455   3.979   2.630  12.081
53186SOL    HW261456   3.862   2.638  11.984
53187SOL     OW61457  12.682   5.982  11.376
53187SOL    HW161458  12.758   5.946  11.421
53187SOL    HW261459  12.620   5.910  11.371
53188SOL     OW61460   6.518   0.699   6.951
53188SOL    HW161461   6.438   0.675   6.998
53188SOL    HW261462   6.538   0.623   6.897
53189SOL     OW61463   9.403  10.024   9.109
53189SOL    HW161464   9.467  10.086   9.144
53189SOL    HW261465   9.348  10.076   9.050
53190SOL     OW61466   1.740   3.116   0.006
53190SOL    HW161467   1.826   3.157   0.018
53190SOL    HW261468   1.728   3.114  14.779
53191SOL     OW61469   4.131  10.086   8.329
53191SOL    HW161470   4.043  10.092   8.293
53191SOL    HW261471   4.165  10.176   8.322
53192SOL     OW61472   8.282   7.680   0.240
53192SOL    HW161473   8.251   7.750   0.182
53192SOL    HW261474   8.254   7.707   0.328
53193SOL     OW61475   3.839  14.286  12.270
53193SOL    HW161476   3.850  14.195  12.298
53193SOL    HW261477   3.902  14.296  12.198
53194SOL     OW61478   1.617  10.577  12.840
53194SOL    HW161479   1.538  10.621  12.871
53194SOL    HW261480   1.689  10.636  12.862
53195SOL     OW61481   0.725   8.218  10.647
53195SOL    HW161482   0.704   8.281  10.579
53195SOL    HW261483   0.783   8.155  10.605
53196SOL     OW61484  11.566   9.634   6.003
53196SOL    HW161485  11.555   9.631   5.908
53196SOL    HW261486  11.627   9.706   6.018
53197SOL     OW61487  14.742   6.792   8.591
53197SOL    HW161488  14.787   6.859   8.643
53197SOL    HW261489  14.696   6.738   8.657
53198SOL     OW61490   3.339   2.019   0.520
53198SOL    HW161491   3.401   1.960   0.476
53198SOL    HW261492   3.323   2.089   0.457
53199SOL     OW61493   4.276   2.364   6.237
53199SOL    HW161494   4.305   2.429   6.173
53199SOL    HW261495   4.327   2.285   6.216
53200SOL     OW61496   9.040   3.378   5.075
53200SOL    HW161497   9.034   3.456   5.129
53200SOL    HW261498   9.130   3.378   5.042
53201SOL     OW61499   1.779   4.624   5.862
53201SOL    HW161500   1.807   4.704   5.817
53201SOL    HW261501   1.727   4.577   5.798
53202SOL     OW61502  11.692  10.449   5.784
53202SOL    HW161503  11.764  10.453   5.720
53202SOL    HW261504  11.722  10.502   5.857
53203SOL     OW61505   6.372  12.492  14.384
53203SOL    HW161506   6.455  12.535  14.405
53203SOL    HW261507   6.307  12.538  14.435
53204SOL     OW61508   5.272  12.373   5.669
53204SOL    HW161509   5.223  12.296   5.697
53204SOL    HW261510   5.241  12.443   5.727
53205SOL     OW61511   7.545   7.751  11.389
53205SOL    HW161512   7.497   7.825  11.427
53205SOL    HW261513   7.588   7.788  11.312
53206SOL     OW61514   6.167   9.857  11.059
53206SOL    HW161515   6.110   9.781  11.067
53206SOL    HW261516   6.150   9.909  11.137
53207SOL     OW61517  13.660   5.314   9.593
53207SOL    HW161518  13.721   5.364   9.539
53207SOL    HW261519  13.713   5.246   9.635
53208SOL     OW61520   0.225  10.283   1.626
53208SOL    HW161521   0.275  10.210   1.590
53208SOL    HW261522   0.135  10.251   1.627
53209SOL     OW61523   5.563   8.818  14.685
53209SOL    HW161524   5.480   8.863  14.698
53209SOL    HW261525   5.604   8.817  14.772
53210SOL     OW61526   0.436  10.785   7.083
53210SOL    HW161527   0.440  10.698   7.042
53210SOL    HW261528   0.363  10.829   7.041
53211SOL     OW61529   2.338   9.013  13.656
53211SOL    HW161530   2.276   9.015  13.584
53211SOL    HW261531   2.304   8.946  13.715
53212SOL     OW61532  13.352   4.299  11.777
53212SOL    HW161533  13.446   4.308  11.788
53212SOL    HW261534  13.314   4.351  11.849
53213SOL     OW61535  12.481   3.935   7.729
53213SOL    HW161536  12.518   3.983   7.655
53213SOL    HW261537  12.531   3.853   7.731
53214SOL     OW61538  14.667   1.530  10.572
53214SOL    HW161539  14.659   1.470  10.497
53214SOL    HW261540  14.627   1.611  10.541
53215SOL     OW61541   6.585  14.450   9.825
53215SOL    HW161542   6.552  14.443   9.735
53215SOL    HW261543   6.588  14.544   9.842
53216SOL     OW61544  14.333  14.488   1.392
53216SOL    HW161545  14.411  14.532   1.361
53216SOL    HW261546  14.308  14.536   1.471
53217SOL     OW61547   4.593   3.013   2.228
53217SOL    HW161548   4.653   2.945   2.197
53217SOL    HW261549   4.620   3.092   2.181
53218SOL     OW61550   6.318  14.274   0.130
53218SOL    HW161551   6.373  14.350   0.147
53218SOL    HW261552   6.359  14.231   0.054
53219SOL     OW61553  12.905  12.830   9.954
53219SOL    HW161554  12.978  12.892   9.953
53219SOL    HW261555  12.917  12.781  10.036
53220SOL     OW61556   7.636   6.934  13.060
53220SOL    HW161557   7.695   6.973  13.125
53220SOL    HW261558   7.680   6.949  12.976
53221SOL     OW61559  12.461   5.767  13.194
53221SOL    HW161560  12.373   5.767  13.233
53221SOL    HW261561  12.517   5.807  13.260
53222SOL     OW61562   6.924   2.467  13.649
53222SOL    HW161563   6.843   2.513  13.673
53222SOL    HW261564   6.981   2.479  13.725
53223SOL     OW61565  14.284   5.613   7.106
53223SOL    HW161566  14.252   5.600   7.195
53223SOL    HW261567  14.378   5.627   7.116
53224SOL     OW61568  11.515   6.706  12.543
53224SOL    HW161569  11.583   6.674  12.484
53224SOL    HW261570  11.561   6.726  12.625
53225SOL     OW61571  14.296   6.140   8.015
53225SOL    HW161572  14.373   6.150   8.072
53225SOL    HW261573  14.235   6.087   8.066
53226SOL     OW61574   1.651   4.394   5.741
53226SOL    HW161575   1.647   4.307   5.781
53226SOL    HW261576   1.698   4.380   5.658
53227SOL     OW61577   8.968   9.227   9.321
53227SOL    HW161578   9.036   9.274   9.370
53227SOL    HW261579   8.982   9.251   9.230
53228SOL     OW61580   1.818  13.457  12.030
53228SOL    HW161581   1.857  13.544  12.018
53228SOL    HW261582   1.851  13.427  12.115
53229SOL     OW61583   3.384   2.734  10.591
53229SOL    HW161584   3.341   2.707  10.672
53229SOL    HW261585   3.343   2.817  10.568
53230SOL     OW61586   4.387   9.860   7.320
53230SOL    HW161587   4.408   9.875   7.411
53230SOL    HW261588   4.441   9.922   7.271
53231SOL     OW61589  11.968   5.033   9.214
53231SOL    HW161590  11.967   5.037   9.119
53231SOL    HW261591  12.028   5.103   9.241
53232SOL     OW61592   6.511  11.989  10.581
53232SOL    HW161593   6.512  12.060  10.645
53232SOL    HW261594   6.454  11.922  10.620
53233SOL     OW61595  11.802  14.856  12.579
53233SOL    HW161596  11.739   0.036  12.526
53233SOL    HW261597  11.834   0.052  12.643
53234SOL     OW61598   2.619   9.839   0.488
53234SOL    HW161599   2.523   9.837   0.496
53234SOL    HW261600   2.639   9.927   0.457
53235SOL     OW61601   1.518   9.842   8.687
53235SOL    HW161602   1.499   9.899   8.761
53235SOL    HW261603   1.596   9.793   8.714
53236SOL     OW61604  11.541  10.612   4.200
53236SOL    HW161605  11.611  10.677   4.189
53236SOL    HW261606  11.542  10.562   4.118
53237SOL     OW61607  11.687   3.005   7.598
53237SOL    HW161608  11.755   3.057   7.640
53237SOL    HW261609  11.691   3.030   7.506
53238SOL     OW61610  11.676  11.023   0.198
53238SOL    HW161611  11.591  11.002   0.159
53238SOL    HW261612  11.728  10.944   0.186
53239SOL     OW61613   9.606   3.309  10.287
53239SOL    HW161614   9.543   3.369  10.326
53239SOL    HW261615   9.689   3.356  10.288
53240SOL     OW61616   1.085   5.362   6.197
53240SOL    HW161617   0.994   5.362   6.167
53240SOL    HW261618   1.085   5.305   6.274
53241SOL     OW61619   0.475  14.391  13.316
53241SOL    HW161620   0.492  14.316  13.258
53241SOL    HW261621   0.554  14.445  13.308
53242SOL     OW61622  10.605  14.831   8.380
53242SOL    HW161623  10.568  14.841   8.467
53242SOL    HW261624  10.665  14.757   8.387
53243SOL     OW61625   0.586  11.721  13.973
53243SOL    HW161626   0.643  11.798  13.969
53243SOL    HW261627   0.560  11.706  13.882
53244SOL     OW61628   4.978   4.178   2.647
53244SOL    HW161629   5.024   4.228   2.580
53244SOL    HW261630   4.983   4.232   2.726
53245SOL     OW61631   5.938  14.033  13.571
53245SOL    HW161632   5.952  14.081  13.489
53245SOL    HW261633   5.950  13.941  13.547
53246SOL     OW61634   5.347   1.682   5.061
53246SOL    HW161635   5.414   1.674   4.993
53246SOL    HW261636   5.293   1.604   5.050
53247SOL     OW61637   2.362   5.952  10.007
53247SOL    HW161638   2.270   5.948   9.982
53247SOL    HW261639   2.380   6.046  10.016
53248SOL     OW61640  11.120  12.358   9.003
53248SOL    HW161641  11.185  12.348   8.933
53248SOL    HW261642  11.159  12.313   9.078
53249SOL     OW61643   9.859   0.234   2.164
53249SOL    HW161644   9.869   0.142   2.139
53249SOL    HW261645   9.783   0.236   2.221
53250SOL     OW61646   8.739  13.022  10.348
53250SOL    HW161647   8.643  13.018  10.343
53250SOL    HW261648   8.757  13.047  10.439
53251SOL     OW61649   7.743   7.487   9.424
53251SOL    HW161650   7.785   7.409   9.387
53251SOL    HW261651   7.709   7.535   9.348
53252SOL     OW61652  12.291   7.061   9.374
53252SOL    HW161653  12.384   7.083   9.374
53252SOL    HW261654  12.255   7.105   9.297
53253SOL     OW61655   0.802   4.405   9.571
53253SOL    HW161656   0.892   4.418   9.542
53253SOL    HW261657   0.795   4.455   9.652
53254SOL     OW61658   3.252   1.655  12.154
53254SOL    HW161659   3.323   1.604  12.116
53254SOL    HW261660   3.285   1.744  12.158
53255SOL     OW61661  10.429  11.519   5.918
53255SOL    HW161662  10.438  11.445   5.857
53255SOL    HW261663  10.345  11.503   5.961
53256SOL     OW61664   9.005   0.922  12.403
53256SOL    HW161665   8.948   0.978  12.351
53256SOL    HW261666   9.058   0.876  12.339
53257SOL     OW61667   6.426   4.777   0.214
53257SOL    HW161668   6.442   4.861   0.172
53257SOL    HW261669   6.391   4.799   0.300
53258SOL     OW61670   8.240   0.487   7.785
53258SOL    HW161671   8.330   0.463   7.766
53258SOL    HW261672   8.197   0.405   7.809
53259SOL     OW61673   0.639  14.517   8.181
53259SOL    HW161674   0.603  14.586   8.236
53259SOL    HW261675   0.564  14.481   8.134
53260SOL     OW61676   3.460   1.535   6.323
53260SOL    HW161677   3.543   1.496   6.299
53260SOL    HW261678   3.482   1.605   6.384
53261SOL     OW61679   8.826   5.111  12.830
53261SOL    HW161680   8.857   5.131  12.742
53261SOL    HW261681   8.854   5.186  12.883
53262SOL     OW61682   7.705  10.588   4.593
53262SOL    HW161683   7.681  10.507   4.637
53262SOL    HW261684   7.762  10.561   4.521
53263SOL     OW61685   5.968  13.477   4.889
53263SOL    HW161686   5.930  13.447   4.971
53263SOL    HW261687   6.039  13.415   4.872
53264SOL     OW61688  12.345   6.394   8.065
53264SOL    HW161689  12.340   6.298   8.061
53264SOL    HW261690  12.257   6.422   8.089
53265SOL     OW61691   6.848   0.660  12.121
53265SOL    HW161692   6.794   0.588  12.153
53265SOL    HW261693   6.804   0.739  12.151
53266SOL     OW61694   1.338  11.921  13.542
53266SOL    HW161695   1.287  11.842  13.529
53266SOL    HW261696   1.273  11.989  13.562
53267SOL     OW61697   7.278   3.125   3.955
53267SOL    HW161698   7.219   3.063   3.913
53267SOL    HW261699   7.230   3.154   4.033
53268SOL     OW61700  10.612   2.657  13.321
53268SOL    HW161701  10.629   2.563  13.313
53268SOL    HW261702  10.684   2.689  13.376
53269SOL     OW61703   9.679  12.494   8.654
53269SOL    HW161704   9.640  12.469   8.738
53269SOL    HW261705   9.770  12.514   8.674
53270SOL     OW61706   4.772   8.710   9.390
53270SOL    HW161707   4.709   8.748   9.452
53270SOL    HW261708   4.844   8.773   9.389
53271SOL     OW61709   0.797   7.129   5.606
53271SOL    HW161710   0.738   7.154   5.677
53271SOL    HW261711   0.792   7.202   5.545
53272SOL     OW61712   5.221   8.327  11.109
53272SOL    HW161713   5.303   8.369  11.136
53272SOL    HW261714   5.248   8.261  11.045
53273SOL     OW61715  13.110   8.209   7.083
53273SOL    HW161716  13.122   8.222   7.177
53273SOL    HW261717  13.016   8.197   7.072
53274SOL     OW61718   3.505   6.496   9.568
53274SOL    HW161719   3.454   6.434   9.620
53274SOL    HW261720   3.596   6.469   9.581
53275SOL     OW61721  14.757  13.427   5.591
53275SOL    HW161722  14.770  13.488   5.519
53275SOL    HW261723  14.662  13.423   5.602
53276SOL     OW61724   9.669   4.497   1.723
53276SOL    HW161725   9.606   4.462   1.659
53276SOL    HW261726   9.639   4.461   1.807
53277SOL     OW61727  14.834   6.604   2.651
53277SOL    HW161728  14.823   6.634   2.742
53277SOL    HW261729  14.813   6.511   2.654
53278SOL     OW61730   4.339   9.617  12.719
53278SOL    HW161731   4.284   9.563  12.775
53278SOL    HW261732   4.335   9.574  12.633
53279SOL     OW61733   8.842   9.067   3.579
53279SOL    HW161734   8.867   9.104   3.663
53279SOL    HW261735   8.924   9.060   3.530
53280SOL     OW61736   2.496   3.061   6.213
53280SOL    HW161737   2.463   3.138   6.259
53280SOL    HW261738   2.455   2.987   6.257
53281SOL     OW61739   1.111   2.886   4.259
53281SOL    HW161740   1.044   2.945   4.295
53281SOL    HW261741   1.168   2.866   4.333
53282SOL     OW61742   0.545  11.036   8.477
53282SOL    HW161743   0.582  11.040   8.565
53282SOL    HW261744   0.622  11.041   8.419
53283SOL     OW61745   5.120   4.323   3.065
53283SOL    HW161746   5.178   4.254   3.031
53283SOL    HW261747   5.049   4.276   3.109
53284SOL     OW61748  13.862   8.227   0.847
53284SOL    HW161749  13.909   8.184   0.918
53284SOL    HW261750  13.795   8.280   0.890
53285SOL     OW61751   7.812  11.292   0.698
53285SOL    HW161752   7.738  11.264   0.644
53285SOL    HW261753   7.861  11.211   0.714
53286SOL     OW61754  10.920   3.291   7.421
53286SOL    HW161755  10.934   3.198   7.403
53286SOL    HW261756  10.916   3.332   7.335
53287SOL     OW61757  12.700   8.385   6.889
53287SOL    HW161758  12.734   8.343   6.809
53287SOL    HW261759  12.768   8.448   6.913
53288SOL     OW61760   6.030  11.937   9.316
53288SOL    HW161761   6.049  12.029   9.331
53288SOL    HW261762   6.052  11.894   9.399
53289SOL     OW61763   6.140   0.361   4.068
53289SOL    HW161764   6.226   0.322   4.085
53289SOL    HW261765   6.143   0.445   4.113
53290SOL     OW61766   9.856   7.746   1.468
53290SOL    HW161767   9.824   7.751   1.558
53290SOL    HW261768   9.891   7.657   1.460
53291SOL     OW61769  12.245   7.488  11.194
53291SOL    HW161770  12.211   7.552  11.131
53291SOL    HW261771  12.336   7.476  11.170
53292SOL     OW61772   1.243  10.362  13.747
53292SOL    HW161773   1.195  10.312  13.813
53292SOL    HW261774   1.194  10.443  13.739
53293SOL     OW61775  14.368   8.542   3.045
53293SOL    HW161776  14.428   8.520   2.974
53293SOL    HW261777  14.284   8.504   3.019
53294SOL     OW61778   7.396   8.453  14.114
53294SOL    HW161779   7.365   8.454  14.204
53294SOL    HW261780   7.400   8.360  14.091
53295SOL     OW61781   6.442   7.015   3.762
53295SOL    HW161782   6.506   7.036   3.830
53295SOL    HW261783   6.405   6.931   3.789
53296SOL     OW61784  10.601   0.175   8.958
53296SOL    HW161785  10.510   0.196   8.979
53296SOL    HW261786  10.641   0.260   8.937
53297SOL     OW61787   9.859  11.010   0.765
53297SOL    HW161788   9.915  11.004   0.688
53297SOL    HW261789   9.808  11.090   0.752
53298SOL     OW61790   7.672   2.668   2.658
53298SOL    HW161791   7.644   2.702   2.573
53298SOL    HW261792   7.767   2.674   2.656
53299SOL     OW61793   3.392   5.459   4.285
53299SOL    HW161794   3.388   5.552   4.306
53299SOL    HW261795   3.301   5.433   4.272
53300SOL     OW61796   1.600   5.044  13.700
53300SOL    HW161797   1.513   5.008  13.717
53300SOL    HW261798   1.658   4.995  13.759
53301SOL     OW61799  11.660   5.303   4.057
53301SOL    HW161800  11.680   5.312   4.150
53301SOL    HW261801  11.744   5.283   4.016
53302SOL     OW61802  11.282   8.882  11.996
53302SOL    HW161803  11.326   8.900  11.913
53302SOL    HW261804  11.189   8.873  11.972
53303SOL     OW61805   3.621   7.392   3.151
53303SOL    HW161806   3.643   7.483   3.168
53303SOL    HW261807   3.531   7.394   3.118
53304SOL     OW61808  12.923   1.132   7.224
53304SOL    HW161809  12.831   1.120   7.200
53304SOL    HW261810  12.922   1.135   7.320
53305SOL     OW61811   0.885  12.467   8.712
53305SOL    HW161812   0.893  12.499   8.622
53305SOL    HW261813   0.792  12.445   8.721
53306SOL     OW61814   4.703   0.827   5.107
53306SOL    HW161815   4.752   0.772   5.046
53306SOL    HW261816   4.684   0.770   5.182
53307SOL     OW61817   3.099   2.792   9.303
53307SOL    HW161818   3.099   2.702   9.334
53307SOL    HW261819   3.151   2.790   9.223
53308SOL     OW61820   5.163   2.575   9.660
53308SOL    HW161821   5.142   2.668   9.652
53308SOL    HW261822   5.256   2.570   9.637
53309SOL     OW61823   7.808   5.523  10.672
53309SOL    HW161824   7.724   5.564  10.690
53309SOL    HW261825   7.843   5.571  10.597
53310SOL     OW61826   0.081   6.955   9.865
53310SOL    HW161827   0.011   7.008   9.826
53310SOL    HW261828   0.089   6.880   9.807
53311SOL     OW61829   9.553   4.771  13.410
53311SOL    HW161830   9.625   4.791  13.350
53311SOL    HW261831   9.484   4.833  13.386
53312SOL     OW61832   2.323  10.626  10.937
53312SOL    HW161833   2.345  10.657  11.025
53312SOL    HW261834   2.296  10.535  10.950
53313SOL     OW61835   5.989   5.740   2.275
53313SOL    HW161836   6.002   5.763   2.367
53313SOL    HW261837   5.985   5.645   2.274
53314SOL     OW61838  10.163   1.099  12.268
53314SOL    HW161839  10.068   1.108  12.270
53314SOL    HW261840  10.185   1.051  12.347
53315SOL     OW61841   9.566  11.458   3.551
53315SOL    HW161842   9.586  11.490   3.462
53315SOL    HW261843   9.640  11.402   3.573
53316SOL     OW61844   2.319   9.910   2.638
53316SOL    HW161845   2.304   9.904   2.543
53316SOL    HW261846   2.411   9.933   2.646
53317SOL     OW61847   1.675   3.799  13.481
53317SOL    HW161848   1.601   3.738  13.488
53317SOL    HW261849   1.714   3.799  13.569
53318SOL     OW61850   3.587   7.878   7.865
53318SOL    HW161851   3.665   7.858   7.916
53318SOL    HW261852   3.619   7.887   7.775
53319SOL     OW61853   1.298   0.128   6.783
53319SOL    HW161854   1.283   0.129   6.877
53319SOL    HW261855   1.369   0.066   6.770
53320SOL     OW61856  14.744   7.452  10.013
53320SOL    HW161857  14.652   7.441   9.989
53320SOL    HW261858  14.770   7.533   9.970
53321SOL     OW61859  11.501   8.668  10.006
53321SOL    HW161860  11.584   8.623  10.019
53321SOL    HW261861  11.515   8.724   9.930
53322SOL     OW61862  11.035  10.629  14.804
53322SOL    HW161863  11.019  10.536  14.819
53322SOL    HW261864  11.097  10.632  14.731
53323SOL     OW61865   0.898   6.393   3.159
53323SOL    HW161866   0.938   6.465   3.111
53323SOL    HW261867   0.860   6.336   3.092
53324SOL     OW61868   8.710   7.411   1.256
53324SOL    HW161869   8.715   7.502   1.225
53324SOL    HW261870   8.800   7.387   1.275
53325SOL     OW61871   5.622   3.701   9.181
53325SOL    HW161872   5.613   3.623   9.126
53325SOL    HW261873   5.613   3.775   9.121
53326SOL     OW61874   5.767   0.099   8.858
53326SOL    HW161875   5.861   0.084   8.870
53326SOL    HW261876   5.755   0.192   8.875
53327SOL     OW61877  14.660   2.272  14.543
53327SOL    HW161878  14.681   2.316  14.461
53327SOL    HW261879  14.735   2.290  14.600
53328SOL     OW61880  12.633  10.969   9.745
53328SOL    HW161881  12.621  10.902   9.677
53328SOL    HW261882  12.697  10.930   9.805
53329SOL     OW61883  11.057   4.096   6.903
53329SOL    HW161884  11.075   4.061   6.990
53329SOL    HW261885  11.039   4.189   6.917
53330SOL     OW61886   5.069   7.398   7.627
53330SOL    HW161887   5.148   7.356   7.660
53330SOL    HW261888   5.092   7.429   7.540
53331SOL     OW61889  13.836   4.430   7.284
53331SOL    HW161890  13.871   4.504   7.235
53331SOL    HW261891  13.743   4.429   7.262
53332SOL     OW61892   8.630  11.956   9.508
53332SOL    HW161893   8.642  12.048   9.487
53332SOL    HW261894   8.701  11.935   9.569
53333SOL     OW61895   9.078  13.503   5.470
53333SOL    HW161896   8.984  13.519   5.481
53333SOL    HW261897   9.084  13.414   5.437
53334SOL     OW61898   7.085   8.411   8.041
53334SOL    HW161899   7.027   8.421   7.966
53334SOL    HW261900   7.169   8.447   8.011
53335SOL     OW61901  10.241   1.146   7.233
53335SOL    HW161902  10.248   1.137   7.328
53335SOL    HW261903  10.149   1.168   7.217
53336SOL     OW61904   9.495   6.121  10.715
53336SOL    HW161905   9.425   6.117  10.780
53336SOL    HW261906   9.504   6.215  10.695
53337SOL     OW61907   5.003   2.761   7.040
53337SOL    HW161908   5.069   2.708   6.994
53337SOL    HW261909   5.053   2.834   7.076
53338SOL     OW61910  13.453   1.245   8.276
53338SOL    HW161911  13.509   1.283   8.343
53338SOL    HW261912  13.496   1.268   8.193
53339SOL     OW61913  11.710   7.633   6.204
53339SOL    HW161914  11.781   7.568   6.204
53339SOL    HW261915  11.756   7.718   6.199
53340SOL     OW61916  13.790  10.281   0.151
53340SOL    HW161917  13.712  10.295   0.205
53340SOL    HW261918  13.823  10.196   0.177
53341SOL     OW61919   8.718  10.210  10.516
53341SOL    HW161920   8.690  10.166  10.435
53341SOL    HW261921   8.758  10.141  10.568
53342SOL     OW61922  10.429  11.290  11.368
53342SOL    HW161923  10.466  11.377  11.385
53342SOL    HW261924  10.381  11.268  11.448
53343SOL     OW61925   6.602   5.079   7.534
53343SOL    HW161926   6.553   5.104   7.612
53343SOL    HW261927   6.597   4.983   7.532
53344SOL     OW61928   3.019   2.511   1.161
53344SOL    HW161929   2.954   2.458   1.115
53344SOL    HW261930   3.049   2.456   1.233
53345SOL     OW61931   5.852   9.416   3.057
53345SOL    HW161932   5.933   9.380   3.020
53345SOL    HW261933   5.880   9.494   3.104
53346SOL     OW61934  11.408   9.529   5.702
53346SOL    HW161935  11.421   9.435   5.713
53346SOL    HW261936  11.496   9.566   5.704
53347SOL     OW61937   1.069   8.086   5.199
53347SOL    HW161938   1.077   8.173   5.238
53347SOL    HW261939   1.085   8.100   5.106
53348SOL     OW61940   6.845  14.355   2.728
53348SOL    HW161941   6.892  14.418   2.674
53348SOL    HW261942   6.794  14.408   2.789
53349SOL     OW61943   0.588   2.900   7.839
53349SOL    HW161944   0.576   2.987   7.878
53349SOL    HW261945   0.526   2.844   7.886
53350SOL     OW61946  11.401   4.175  12.814
53350SOL    HW161947  11.326   4.194  12.757
53350SOL    HW261948  11.447   4.104  12.769
53351SOL     OW61949   3.880   3.903  13.285
53351SOL    HW161950   3.800   3.931  13.329
53351SOL    HW261951   3.858   3.818  13.246
53352SOL     OW61952   3.379   3.670   6.160
53352SOL    HW161953   3.411   3.694   6.247
53352SOL    HW261954   3.406   3.578   6.149
53353SOL     OW61955  14.096   2.719   3.413
53353SOL    HW161956  14.125   2.705   3.323
53353SOL    HW261957  14.163   2.675   3.466
53354SOL     OW61958  10.895   5.611   7.774
53354SOL    HW161959  10.825   5.611   7.709
53354SOL    HW261960  10.893   5.699   7.812
53355SOL     OW61961   5.816   0.789  12.914
53355SOL    HW161962   5.791   0.856  12.850
53355SOL    HW261963   5.761   0.714  12.892
53356SOL     OW61964  14.616   1.637  12.889
53356SOL    HW161965  14.522   1.635  12.905
53356SOL    HW261966  14.630   1.715  12.836
53357SOL     OW61967  14.008   2.733  11.265
53357SOL    HW161968  13.972   2.720  11.178
53357SOL    HW261969  14.008   2.646  11.306
53358SOL     OW61970   9.334   1.972   3.917
53358SOL    HW161971   9.373   1.958   3.830
53358SOL    HW261972   9.294   2.059   3.911
53359SOL     OW61973   8.700   6.561  13.225
53359SOL    HW161974   8.643   6.506  13.172
53359SOL    HW261975   8.785   6.560  13.179
53360SOL     OW61976   6.758  12.524   9.555
53360SOL    HW161977   6.674  12.567   9.539
53360SOL    HW261978   6.734  12.440   9.595
53361SOL     OW61979   3.572  13.734   0.293
53361SOL    HW161980   3.522  13.811   0.267
53361SOL    HW261981   3.519  13.693   0.361
53362SOL     OW61982   7.430  13.822  14.138
53362SOL    HW161983   7.338  13.798  14.126
53362SOL    HW261984   7.463  13.758  14.201
53363SOL     OW61985   8.230   8.178   8.138
53363SOL    HW161986   8.218   8.273   8.143
53363SOL    HW261987   8.231   8.150   8.230
53364SOL     OW61988   0.728   6.476   2.816
53364SOL    HW161989   0.757   6.393   2.779
53364SOL    HW261990   0.720   6.535   2.741
53365SOL     OW61991   0.777  13.333  13.694
53365SOL    HW161992   0.769  13.277  13.616
53365SOL    HW261993   0.743  13.418  13.665
53366SOL     OW61994   9.667   9.878  12.694
53366SOL    HW161995   9.683   9.835  12.610
53366SOL    HW261996   9.751   9.873  12.740
53367SOL     OW61997  14.565   8.607   2.857
53367SOL    HW161998  14.533   8.579   2.771
53367SOL    HW261999  14.551   8.702   2.858
53368SOL     OW62000   9.153   0.477   2.178
53368SOL    HW162001   9.167   0.437   2.264
53368SOL    HW262002   9.189   0.565   2.187
53369SOL     OW62003   9.217   6.467   3.022
53369SOL    HW162004   9.248   6.436   3.107
53369SOL    HW262005   9.238   6.560   3.021
53370SOL     OW62006   6.545  13.401   4.670
53370SOL    HW162007   6.453  13.373   4.668
53370SOL    HW262008   6.591  13.328   4.711
53371SOL     OW62009  12.335   5.273  12.844
53371SOL    HW162010  12.367   5.319  12.922
53371SOL    HW262011  12.410   5.224  12.812
53372SOL     OW62012   4.350  10.468   8.982
53372SOL    HW162013   4.341  10.383   8.938
53372SOL    HW262014   4.445  10.484   8.982
53373SOL     OW62015   4.621  14.620   8.584
53373SOL    HW162016   4.543  14.606   8.531
53373SOL    HW262017   4.624  14.714   8.597
53374SOL     OW62018   1.325   2.710  12.607
53374SOL    HW162019   1.376   2.755  12.674
53374SOL    HW262020   1.282   2.638  12.653
53375SOL     OW62021  11.608  13.062   5.567
53375SOL    HW162022  11.669  13.030   5.501
53375SOL    HW262023  11.535  13.098   5.517
53376SOL     OW62024   8.054  10.188  10.311
53376SOL    HW162025   8.070  10.255  10.378
53376SOL    HW262026   8.022  10.238  10.236
53377SOL     OW62027   8.564  12.546  10.946
53377SOL    HW162028   8.521  12.621  10.905
53377SOL    HW262029   8.657  12.570  10.949
53378SOL     OW62030   7.558   7.117   7.809
53378SOL    HW162031   7.652   7.100   7.814
53378SOL    HW262032   7.551   7.210   7.790
53379SOL     OW62033  10.875   4.193  14.179
53379SOL    HW162034  10.882   4.147  14.095
53379SOL    HW262035  10.964   4.224  14.196
53380SOL     OW62036   4.154  10.532   6.393
53380SOL    HW162037   4.169  10.606   6.452
53380SOL    HW262038   4.121  10.462   6.451
53381SOL     OW62039   4.848  13.691   1.112
53381SOL    HW162040   4.787  13.743   1.060
53381SOL    HW262041   4.881  13.752   1.178
53382SOL     OW62042  12.616  10.259   7.740
53382SOL    HW162043  12.615  10.272   7.645
53382SOL    HW262044  12.633  10.346   7.775
53383SOL     OW62045  13.694   0.408   9.899
53383SOL    HW162046  13.749   0.409   9.820
53383SOL    HW262047  13.614   0.453   9.873
53384SOL     OW62048   6.474  11.424  10.095
53384SOL    HW162049   6.547  11.362  10.089
53384SOL    HW262050   6.399  11.370  10.119
53385SOL     OW62051  10.843   4.613   8.730
53385SOL    HW162052  10.880   4.623   8.642
53385SOL    HW262053  10.857   4.521   8.751
53386SOL     OW62054  14.008   6.969  14.534
53386SOL    HW162055  14.077   6.957  14.468
53386SOL    HW262056  13.958   7.045  14.503
53387SOL     OW62057   1.848   4.635   3.293
53387SOL    HW162058   1.755   4.619   3.312
53387SOL    HW262059   1.894   4.596   3.368
53388SOL     OW62060   9.957   2.692   4.501
53388SOL    HW162061   9.937   2.599   4.489
53388SOL    HW262062   9.990   2.721   4.415
53389SOL     OW62063   4.294  10.686   8.689
53389SOL    HW162064   4.251  10.644   8.764
53389SOL    HW262065   4.362  10.741   8.728
53390SOL     OW62066   0.094   6.983  11.793
53390SOL    HW162067   0.110   6.938  11.710
53390SOL    HW262068   0.142   6.931  11.858
53391SOL     OW62069  10.007   9.098   8.525
53391SOL    HW162070  10.011   9.007   8.552
53391SOL    HW262071   9.920   9.128   8.553
53392SOL     OW62072   1.993   7.778   5.641
53392SOL    HW162073   1.979   7.857   5.693
53392SOL    HW262074   1.906   7.739   5.631
53393SOL     OW62075   3.058   6.686   6.567
53393SOL    HW162076   2.971   6.661   6.599
53393SOL    HW262077   3.051   6.779   6.549
53394SOL     OW62078  11.967   0.397  10.749
53394SOL    HW162079  11.916   0.318  10.767
53394SOL    HW262080  11.927   0.434  10.670
53395SOL     OW62081   6.730   5.851   3.439
53395SOL    HW162082   6.809   5.905   3.430
53395SOL    HW262083   6.747   5.775   3.383
53396SOL     OW62084  11.748  10.566  11.452
53396SOL    HW162085  11.661  10.564  11.492
53396SOL    HW262086  11.738  10.513  11.373
53397SOL     OW62087   7.909  10.331   2.236
53397SOL    HW162088   7.905  10.282   2.318
53397SOL    HW262089   7.885  10.421   2.261
53398SOL     OW62090   9.019   0.429   0.313
53398SOL    HW162091   8.970   0.458   0.236
53398SOL    HW262092   9.102   0.478   0.308
53399SOL     OW62093   2.224   9.020   8.814
53399SOL    HW162094   2.204   9.079   8.741
53399SOL    HW262095   2.221   8.932   8.775
53400SOL     OW62096   0.446   2.091   8.650
53400SOL    HW162097   0.498   2.010   8.650
53400SOL    HW262098   0.364   2.067   8.607
53401SOL     OW62099   1.144  14.112   8.599
53401SOL    HW162100   1.088  14.188   8.615
53401SOL    HW262101   1.125  14.087   8.509
53402SOL     OW62102   4.618  11.851   2.674
53402SOL    HW162103   4.681  11.828   2.606
53402SOL    HW262104   4.627  11.945   2.686
53403SOL     OW62105   9.502   1.659   0.272
53403SOL    HW162106   9.487   1.589   0.209
53403SOL    HW262107   9.499   1.739   0.221
53404SOL     OW62108  10.408   2.329  14.053
53404SOL    HW162109  10.320   2.294  14.064
53404SOL    HW262110  10.403   2.419  14.085
53405SOL     OW62111   5.526   8.746   9.054
53405SOL    HW162112   5.547   8.822   9.000
53405SOL    HW262113   5.451   8.706   9.011
53406SOL     OW62114  11.884   0.183   7.236
53406SOL    HW162115  11.925   0.188   7.322
53406SOL    HW262116  11.837   0.266   7.227
53407SOL     OW62117   2.337   4.227   9.619
53407SOL    HW162118   2.364   4.281   9.545
53407SOL    HW262119   2.380   4.267   9.695
53408SOL     OW62120   2.143   8.470   0.509
53408SOL    HW162121   2.185   8.518   0.438
53408SOL    HW262122   2.078   8.414   0.466
53409SOL     OW62123   5.177   1.391   1.083
53409SOL    HW162124   5.229   1.448   1.140
53409SOL    HW262125   5.225   1.390   1.000
53410SOL     OW62126   5.023  13.504   8.894
53410SOL    HW162127   4.961  13.575   8.909
53410SOL    HW262128   4.995  13.434   8.953
53411SOL     OW62129   8.983   8.044   6.857
53411SOL    HW162130   9.064   8.093   6.837
53411SOL    HW262131   8.968   8.059   6.950
53412SOL     OW62132   3.644   4.015  12.515
53412SOL    HW162133   3.591   4.077  12.463
53412SOL    HW262134   3.732   4.054  12.515
53413SOL     OW62135   0.703   9.395   6.628
53413SOL    HW162136   0.789   9.412   6.665
53413SOL    HW262137   0.696   9.300   6.625
53414SOL     OW62138   1.567   6.925   8.492
53414SOL    HW162139   1.479   6.898   8.466
53414SOL    HW262140   1.604   6.965   8.413
53415SOL     OW62141  13.246   6.610  12.147
53415SOL    HW162142  13.152   6.602  12.130
53415SOL    HW262143  13.258   6.578  12.236
53416SOL     OW62144  12.390   1.865   5.542
53416SOL    HW162145  12.378   1.849   5.449
53416SOL    HW262146  12.302   1.881   5.576
53417SOL     OW62147   6.082   3.453  13.727
53417SOL    HW162148   6.005   3.466  13.782
53417SOL    HW262149   6.067   3.369  13.684
53418SOL     OW62150   2.777  10.080  13.915
53418SOL    HW162151   2.828  10.104  13.838
53418SOL    HW262152   2.810   9.993  13.940
53419SOL     OW62153  12.512   0.165  13.924
53419SOL    HW162154  12.503   0.227  13.996
53419SOL    HW262155  12.598   0.126  13.936
53420SOL     OW62156   0.707   5.068   4.172
53420SOL    HW162157   0.678   5.156   4.147
53420SOL    HW262158   0.632   5.012   4.153
53421SOL     OW62159   9.686   1.638   9.393
53421SOL    HW162160   9.618   1.613   9.331
53421SOL    HW262161   9.755   1.573   9.379
53422SOL     OW62162  13.375   5.816  14.688
53422SOL    HW162163  13.444   5.878  14.665
53422SOL    HW262164  13.386   5.744  14.626
53423SOL     OW62165  11.835   1.896   9.490
53423SOL    HW162166  11.865   1.981   9.457
53423SOL    HW262167  11.914   1.855   9.524
53424SOL     OW62168  10.365   4.691  12.445
53424SOL    HW162169  10.415   4.683  12.364
53424SOL    HW262170  10.427   4.668  12.514
53425SOL     OW62171  12.254   1.386   7.855
53425SOL    HW162172  12.280   1.303   7.894
53425SOL    HW262173  12.307   1.452   7.901
53426SOL     OW62174  13.370   3.068  10.702
53426SOL    HW162175  13.373   3.150  10.752
53426SOL    HW262176  13.421   3.086  10.623
53427SOL     OW62177   4.236   8.138  13.859
53427SOL    HW162178   4.211   8.217  13.811
53427SOL    HW262179   4.152   8.099  13.886
53428SOL     OW62180   7.089   9.820  12.585
53428SOL    HW162181   7.065   9.892  12.643
53428SOL    HW262182   7.007   9.794  12.543
53429SOL     OW62183   7.422  11.300   3.963
53429SOL    HW162184   7.496  11.280   4.020
53429SOL    HW262185   7.368  11.221   3.965
53430SOL     OW62186   6.474   3.284   1.899
53430SOL    HW162187   6.384   3.286   1.933
53430SOL    HW262188   6.465   3.312   1.808
53431SOL     OW62189  10.009   8.000   2.453
53431SOL    HW162190  10.043   7.914   2.477
53431SOL    HW262191   9.954   8.026   2.528
53432SOL     OW62192   6.210   6.136   9.265
53432SOL    HW162193   6.149   6.078   9.220
53432SOL    HW262194   6.168   6.156   9.349
53433SOL     OW62195   4.267   0.193  13.547
53433SOL    HW162196   4.192   0.167  13.494
53433SOL    HW262197   4.299   0.111  13.585
53434SOL     OW62198  12.865   6.898  10.277
53434SOL    HW162199  12.810   6.913  10.200
53434SOL    HW262200  12.833   6.815  10.313
53435SOL     OW62201  13.580   2.793  14.328
53435SOL    HW162202  13.552   2.710  14.367
53435SOL    HW262203  13.638   2.832  14.393
53436SOL     OW62204  13.330   2.150  13.955
53436SOL    HW162205  13.369   2.236  13.936
53436SOL    HW262206  13.280   2.164  14.035
53437SOL     OW62207  13.927  12.479   1.135
53437SOL    HW162208  13.920  12.384   1.130
53437SOL    HW262209  13.905  12.500   1.225
53438SOL     OW62210   0.665  10.140   2.961
53438SOL    HW162211   0.688  10.231   2.942
53438SOL    HW262212   0.676  10.132   3.055
53439SOL     OW62213   0.798  12.102  12.950
53439SOL    HW162214   0.890  12.078  12.943
53439SOL    HW262215   0.783  12.112  13.044
53440SOL     OW62216  10.392  12.922  12.640
53440SOL    HW162217  10.457  12.906  12.571
53440SOL    HW262218  10.395  13.016  12.654
53441SOL     OW62219   8.067   0.213   8.752
53441SOL    HW162220   8.021   0.269   8.815
53441SOL    HW262221   8.060   0.261   8.669
53442SOL     OW62222   0.241   2.544  13.873
53442SOL    HW162223   0.149   2.519  13.875
53442SOL    HW262224   0.242   2.629  13.829
53443SOL     OW62225   9.980   8.122   7.391
53443SOL    HW162226   9.912   8.062   7.361
53443SOL    HW262227  10.033   8.070   7.451
53444SOL     OW62228   7.380   1.704   0.645
53444SOL    HW162229   7.383   1.643   0.572
53444SOL    HW262230   7.439   1.666   0.710
53445SOL     OW62231  10.103   8.265  10.972
53445SOL    HW162232  10.199   8.263  10.972
53445SOL    HW262233  10.080   8.320  10.897
53446SOL     OW62234  11.297   0.796   7.795
53446SOL    HW162235  11.388   0.803   7.766
53446SOL    HW262236  11.260   0.726   7.741
53447SOL     OW62237  13.344   8.343  14.003
53447SOL    HW162238  13.406   8.270  13.996
53447SOL    HW262239  13.390   8.409  14.055
53448SOL     OW62240  13.130   8.643  13.128
53448SOL    HW162241  13.192   8.709  13.158
53448SOL    HW262242  13.129   8.577  13.197
53449SOL     OW62243   4.955  12.148  12.426
53449SOL    HW162244   4.908  12.147  12.509
53449SOL    HW262245   5.016  12.075  12.432
53450SOL     OW62246  12.746  14.430   4.879
53450SOL    HW162247  12.659  14.390   4.874
53450SOL    HW262248  12.756  14.476   4.796
53451SOL     OW62249   8.590   0.306   8.002
53451SOL    HW162250   8.588   0.357   8.083
53451SOL    HW262251   8.608   0.216   8.031
53452SOL     OW62252   7.077  10.631   5.952
53452SOL    HW162253   7.171  10.616   5.951
53452SOL    HW262254   7.067  10.726   5.951
53453SOL     OW62255   7.618   4.111  10.337
53453SOL    HW162256   7.585   4.024  10.319
53453SOL    HW262257   7.594   4.128  10.428
53454SOL     OW62258  12.501   5.922  10.175
53454SOL    HW162259  12.512   5.827  10.165
53454SOL    HW262260  12.421   5.942  10.127
53455SOL     OW62261  13.398  10.838   0.276
53455SOL    HW162262  13.306  10.867   0.280
53455SOL    HW262263  13.423  10.828   0.368
53456SOL     OW62264   2.044  12.896   0.817
53456SOL    HW162265   1.974  12.958   0.835
53456SOL    HW262266   1.998  12.814   0.798
53457SOL     OW62267   0.895   1.908   4.325
53457SOL    HW162268   0.855   1.897   4.412
53457SOL    HW262269   0.965   1.843   4.323
53458SOL     OW62270   6.584   8.912   0.605
53458SOL    HW162271   6.541   8.851   0.665
53458SOL    HW262272   6.513   8.970   0.576
53459SOL     OW62273  13.904   8.320   8.201
53459SOL    HW162274  13.820   8.302   8.159
53459SOL    HW262275  13.965   8.331   8.128
53460SOL     OW62276  13.089   9.348   9.694
53460SOL    HW162277  13.072   9.376   9.784
53460SOL    HW262278  13.130   9.262   9.703
53461SOL     OW62279   7.697  14.534   5.271
53461SOL    HW162280   7.709  14.482   5.350
53461SOL    HW262281   7.621  14.495   5.228
53462SOL     OW62282   8.795   0.165   3.733
53462SOL    HW162283   8.846   0.230   3.780
53462SOL    HW262284   8.855   0.092   3.720
53463SOL     OW62285   3.961  13.837  14.114
53463SOL    HW162286   3.987  13.924  14.084
53463SOL    HW262287   4.006  13.777  14.055
53464SOL     OW62288   6.244   1.611  14.118
53464SOL    HW162289   6.302   1.537  14.134
53464SOL    HW262290   6.270   1.643  14.031
53465SOL     OW62291   5.448  10.501   0.781
53465SOL    HW162292   5.477  10.459   0.700
53465SOL    HW262293   5.381  10.443   0.816
53466SOL     OW62294   5.691  11.988   1.658
53466SOL    HW162295   5.684  11.899   1.623
53466SOL    HW262296   5.605  12.026   1.644
53467SOL     OW62297   5.623   1.160   0.822
53467SOL    HW162298   5.648   1.103   0.895
53467SOL    HW262299   5.696   1.222   0.814
53468SOL     OW62300   3.716   5.831  12.324
53468SOL    HW162301   3.718   5.738  12.347
53468SOL    HW262302   3.681   5.832  12.235
53469SOL     OW62303  13.602   6.068   2.694
53469SOL    HW162304  13.690   6.034   2.711
53469SOL    HW262305  13.611   6.116   2.612
53470SOL     OW62306   4.420  11.380  12.384
53470SOL    HW162307   4.409  11.473  12.404
53470SOL    HW262308   4.353  11.336  12.437
53471SOL     OW62309  12.406   1.709   0.345
53471SOL    HW162310  12.400   1.682   0.254
53471SOL    HW262311  12.480   1.770   0.347
53472SOL     OW62312  10.891   5.303  12.243
53472SOL    HW162313  10.963   5.300  12.180
53472SOL    HW262314  10.914   5.375  12.302
53473SOL     OW62315  11.539   2.829  10.957
53473SOL    HW162316  11.609   2.829  10.892
53473SOL    HW262317  11.517   2.736  10.968
53474SOL     OW62318   5.411  10.123   2.266
53474SOL    HW162319   5.448  10.107   2.180
53474SOL    HW262320   5.370  10.210   2.260
53475SOL     OW62321   8.716   1.171  10.821
53475SOL    HW162322   8.773   1.170  10.744
53475SOL    HW262323   8.653   1.102  10.804
53476SOL     OW62324   5.402   3.763  14.654
53476SOL    HW162325   5.357   3.815  14.720
53476SOL    HW262326   5.474   3.819  14.624
53477SOL     OW62327   5.582   7.440   2.496
53477SOL    HW162328   5.673   7.431   2.469
53477SOL    HW262329   5.564   7.361   2.547
53478SOL     OW62330  11.214   1.914  12.574
53478SOL    HW162331  11.120   1.894  12.572
53478SOL    HW262332  11.237   1.931  12.483
53479SOL     OW62333   3.724   3.319   3.726
53479SOL    HW162334   3.760   3.355   3.646
53479SOL    HW262335   3.775   3.239   3.741
53480SOL     OW62336  10.957   5.604  13.435
53480SOL    HW162337  11.041   5.612  13.389
53480SOL    HW262338  10.977   5.549  13.510
53481SOL     OW62339   0.491   5.284   4.734
53481SOL    HW162340   0.496   5.332   4.651
53481SOL    HW262341   0.403   5.247   4.736
53482SOL     OW62342   9.246   0.717   0.543
53482SOL    HW162343   9.218   0.650   0.605
53482SOL    HW262344   9.220   0.682   0.457
53483SOL     OW62345   8.801   5.070  13.350
53483SOL    HW162346   8.800   5.114  13.265
53483SOL    HW262347   8.893   5.070  13.376
53484SOL     OW62348  10.088   8.653   9.818
53484SOL    HW162349  10.066   8.578   9.873
53484SOL    HW262350  10.070   8.623   9.728
53485SOL     OW62351  13.440   8.374   0.775
53485SOL    HW162352  13.441   8.467   0.752
53485SOL    HW262353  13.475   8.371   0.865
53486SOL     OW62354   8.863  10.382  14.252
53486SOL    HW162355   8.842  10.321  14.323
53486SOL    HW262356   8.958  10.373  14.241
53487SOL     OW62357   2.158   4.904   2.448
53487SOL    HW162358   2.158   4.818   2.491
53487SOL    HW262359   2.065   4.928   2.444
53488SOL     OW62360   8.410   9.435  13.896
53488SOL    HW162361   8.445   9.349  13.920
53488SOL    HW262362   8.416   9.486  13.977
53489SOL     OW62363  10.687  11.855  11.529
53489SOL    HW162364  10.736  11.929  11.493
53489SOL    HW262365  10.649  11.812  11.452
53490SOL     OW62366   4.676   1.776  10.222
53490SOL    HW162367   4.738   1.730  10.166
53490SOL    HW262368   4.680   1.867  10.191
53491SOL     OW62369   5.687   9.080  14.554
53491SOL    HW162370   5.677   8.985  14.560
53491SOL    HW262371   5.635   9.114  14.626
53492SOL     OW62372   6.313  14.047   8.084
53492SOL    HW162373   6.244  14.000   8.130
53492SOL    HW262374   6.268  14.091   8.012
53493SOL     OW62375   8.828   8.806   9.667
53493SOL    HW162376   8.856   8.891   9.633
53493SOL    HW262377   8.893   8.784   9.734
53494SOL     OW62378   9.897   7.281   8.711
53494SOL    HW162379   9.825   7.240   8.758
53494SOL    HW262380   9.913   7.223   8.636
53495SOL     OW62381  11.702   2.233  11.897
53495SOL    HW162382  11.757   2.169  11.852
53495SOL    HW262383  11.762   2.303  11.922
53496SOL     OW62384   3.782   4.086  11.637
53496SOL    HW162385   3.865   4.093  11.684
53496SOL    HW262386   3.730   4.160  11.668
53497SOL     OW62387  11.888   8.642  13.595
53497SOL    HW162388  11.795   8.621  13.585
53497SOL    HW262389  11.922   8.573  13.653
53498SOL     OW62390   7.967   2.766   6.905
53498SOL    HW162391   7.954   2.702   6.835
53498SOL    HW262392   8.013   2.839   6.863
53499SOL     OW62393   8.766  13.707   7.244
53499SOL    HW162394   8.858  13.712   7.270
53499SOL    HW262395   8.751  13.614   7.228
53500SOL     OW62396   9.676   9.029  12.244
53500SOL    HW162397   9.641   8.993  12.163
53500SOL    HW262398   9.734   9.100  12.216
53501SOL     OW62399   7.444   1.810  12.594
53501SOL    HW162400   7.394   1.890  12.609
53501SOL    HW262401   7.532   1.831  12.624
53502SOL     OW62402   4.992  12.288   7.798
53502SOL    HW162403   4.943  12.370   7.807
53502SOL    HW262404   5.019  12.266   7.887
53503SOL     OW62405   8.344   8.186  13.323
53503SOL    HW162406   8.435   8.214  13.331
53503SOL    HW262407   8.347   8.091  13.331
53504SOL     OW62408   2.072  11.003   6.288
53504SOL    HW162409   2.036  11.072   6.231
53504SOL    HW262410   2.025  11.014   6.371
53505SOL     OW62411   8.681  14.163   9.664
53505SOL    HW162412   8.682  14.258   9.675
53505SOL    HW262413   8.755  14.145   9.607
53506SOL     OW62414  12.427   7.250  11.337
53506SOL    HW162415  12.361   7.182  11.329
53506SOL    HW262416  12.448   7.273  11.246
53507SOL     OW62417   6.026   3.838   3.569
53507SOL    HW162418   6.104   3.892   3.577
53507SOL    HW262419   6.006   3.837   3.475
53508SOL     OW62420  12.254   2.240  13.032
53508SOL    HW162421  12.230   2.262  13.122
53508SOL    HW262422  12.248   2.322  12.984
53509SOL     OW62423  14.331  12.098   3.965
53509SOL    HW162424  14.320  12.109   3.870
53509SOL    HW262425  14.421  12.126   3.981
53510SOL     OW62426  12.690  12.966  12.662
53510SOL    HW162427  12.628  12.897  12.683
53510SOL    HW262428  12.766  12.948  12.717
53511SOL     OW62429   9.947   8.102   7.877
53511SOL    HW162430  10.006   8.163   7.834
53511SOL    HW262431   9.993   8.075   7.957
53512SOL     OW62432   6.065   4.112   4.832
53512SOL    HW162433   6.025   4.194   4.859
53512SOL    HW262434   6.012   4.082   4.758
53513SOL     OW62435   2.196  14.430   8.055
53513SOL    HW162436   2.255  14.499   8.022
53513SOL    HW262437   2.109  14.459   8.029
53514SOL     OW62438  10.811   2.580   2.035
53514SOL    HW162439  10.797   2.487   2.054
53514SOL    HW262440  10.752   2.598   1.961
53515SOL     OW62441   5.043   0.574   5.758
53515SOL    HW162442   5.047   0.481   5.778
53515SOL    HW262443   5.058   0.617   5.843
53516SOL     OW62444   7.765   0.254  13.767
53516SOL    HW162445   7.843   0.306  13.785
53516SOL    HW262446   7.798   0.177  13.720
53517SOL     OW62447   2.762   6.037   1.685
53517SOL    HW162448   2.765   5.987   1.604
53517SOL    HW262449   2.839   6.093   1.682
53518SOL     OW62450   7.375   6.301  14.600
53518SOL    HW162451   7.407   6.267  14.516
53518SOL    HW262452   7.279   6.300  14.591
53519SOL     OW62453   1.043   0.212   0.489
53519SOL    HW162454   1.130   0.249   0.473
53519SOL    HW262455   1.013   0.256   0.568
53520SOL     OW62456   3.508  10.315   5.185
53520SOL    HW162457   3.429  10.267   5.165
53520SOL    HW262458   3.576  10.248   5.193
53521SOL     OW62459   2.769  11.891  12.133
53521SOL    HW162460   2.807  11.979  12.124
53521SOL    HW262461   2.678  11.907  12.160
53522SOL     OW62462   1.576   0.084   0.550
53522SOL    HW162463   1.614   0.039   0.475
53522SOL    HW262464   1.626   0.052   0.625
53523SOL     OW62465   0.478  14.311   6.213
53523SOL    HW162466   0.426  14.345   6.141
53523SOL    HW262467   0.427  14.331   6.291
53524SOL     OW62468  12.465   3.271  13.029
53524SOL    HW162469  12.447   3.362  13.006
53524SOL    HW262470  12.411   3.220  12.968
53525SOL     OW62471   1.801   9.271   0.923
53525SOL    HW162472   1.795   9.268   1.019
53525SOL    HW262473   1.894   9.257   0.905
53526SOL     OW62474  10.977   0.339   7.350
53526SOL    HW162475  10.884   0.325   7.370
53526SOL    HW262476  10.978   0.418   7.295
53527SOL     OW62477   8.534   9.468   5.969
53527SOL    HW162478   8.524   9.440   6.060
53527SOL    HW262479   8.626   9.453   5.949
53528SOL     OW62480  12.453   1.091   8.971
53528SOL    HW162481  12.389   1.022   8.951
53528SOL    HW262482  12.508   1.053   9.040
53529SOL     OW62483  12.574  10.028   4.613
53529SOL    HW162484  12.498   9.985   4.652
53529SOL    HW262485  12.636   9.956   4.595
53530SOL     OW62486   0.692  12.685   6.714
53530SOL    HW162487   0.716  12.618   6.649
53530SOL    HW262488   0.714  12.645   6.798
53531SOL     OW62489  13.089   3.543   7.671
53531SOL    HW162490  13.051   3.486   7.737
53531SOL    HW262491  13.013   3.575   7.621
53532SOL     OW62492  12.826   8.789  10.204
53532SOL    HW162493  12.911   8.766  10.167
53532SOL    HW262494  12.784   8.843  10.137
53533SOL     OW62495  13.060   1.974  11.053
53533SOL    HW162496  13.108   1.891  11.057
53533SOL    HW262497  12.970   1.950  11.078
53534SOL     OW62498   1.009   9.196   7.146
53534SOL    HW162499   1.061   9.270   7.177
53534SOL    HW262500   1.073   9.131   7.117
53535SOL     OW62501   9.888   8.431  13.105
53535SOL    HW162502   9.861   8.518  13.076
53535SOL    HW262503   9.807   8.390  13.135
53536SOL     OW62504   1.525   2.531  13.952
53536SOL    HW162505   1.577   2.580  13.889
53536SOL    HW262506   1.517   2.590  14.027
53537SOL     OW62507   1.879   9.072  10.198
53537SOL    HW162508   1.878   9.030  10.112
53537SOL    HW262509   1.901   9.163  10.180
53538SOL     OW62510   1.169   5.529   5.151
53538SOL    HW162511   1.092   5.480   5.180
53538SOL    HW262512   1.240   5.500   5.209
53539SOL     OW62513   4.095   9.899   6.985
53539SOL    HW162514   4.168   9.842   6.962
53539SOL    HW262515   4.076   9.948   6.905
53540SOL     OW62516   4.427  13.543   7.705
53540SOL    HW162517   4.443  13.589   7.623
53540SOL    HW262518   4.483  13.465   7.701
53541SOL     OW62519  12.997   7.004  10.475
53541SOL    HW162520  13.014   7.096  10.454
53541SOL    HW262521  12.921   6.981  10.422
53542SOL     OW62522  13.965   2.247  10.627
53542SOL    HW162523  13.931   2.237  10.538
53542SOL    HW262524  14.018   2.327  10.623
53543SOL     OW62525   3.435   2.938   3.601
53543SOL    HW162526   3.457   2.974   3.515
53543SOL    HW262527   3.365   2.876   3.584
53544SOL     OW62528   8.119  13.627  12.584
53544SOL    HW162529   8.100  13.681  12.661
53544SOL    HW262530   8.073  13.670  12.512
53545SOL     OW62531  10.741  10.755   4.395
53545SOL    HW162532  10.730  10.772   4.301
53545SOL    HW262533  10.719  10.663   4.405
53546SOL     OW62534   6.372   2.044   7.147
53546SOL    HW162535   6.276   2.045   7.146
53546SOL    HW262536   6.394   1.952   7.161
53547SOL     OW62537   4.915  11.332  10.590
53547SOL    HW162538   4.966  11.356  10.667
53547SOL    HW262539   4.978  11.334  10.518
53548SOL     OW62540   9.980   6.155   3.506
53548SOL    HW162541   9.929   6.078   3.481
53548SOL    HW262542  10.065   6.120   3.531
53549SOL     OW62543   1.303  10.253  10.259
53549SOL    HW162544   1.379  10.300  10.225
53549SOL    HW262545   1.241  10.322  10.283
53550SOL     OW62546   3.091   5.829   7.133
53550SOL    HW162547   3.083   5.878   7.215
53550SOL    HW262548   3.131   5.891   7.072
53551SOL     OW62549   1.783   5.745   3.292
53551SOL    HW162550   1.688   5.747   3.302
53551SOL    HW262551   1.810   5.667   3.340
53552SOL     OW62552   0.196  14.186   9.319
53552SOL    HW162553   0.158  14.231   9.394
53552SOL    HW262554   0.239  14.109   9.356
53553SOL     OW62555  11.421   5.354   2.845
53553SOL    HW162556  11.410   5.282   2.783
53553SOL    HW262557  11.493   5.325   2.902
53554SOL     OW62558   5.100   1.186   1.428
53554SOL    HW162559   5.158   1.200   1.502
53554SOL    HW262560   5.014   1.214   1.459
53555SOL     OW62561   7.641   7.778  12.991
53555SOL    HW162562   7.627   7.857  13.043
53555SOL    HW262563   7.717   7.799  12.936
53556SOL     OW62564  10.670  10.866   7.075
53556SOL    HW162565  10.634  10.953   7.094
53556SOL    HW262566  10.707  10.873   6.987
53557SOL     OW62567   8.464   0.543   4.759
53557SOL    HW162568   8.444   0.619   4.704
53557SOL    HW262569   8.556   0.524   4.741
53558SOL     OW62570   2.414   3.754  13.088
53558SOL    HW162571   2.364   3.764  13.169
53558SOL    HW262572   2.353   3.782  13.019
53559SOL     OW62573  14.752   5.399   7.480
53559SOL    HW162574  14.746   5.401   7.385
53559SOL    HW262575  14.662   5.387   7.510
53560SOL     OW62576   8.332   1.787  10.925
53560SOL    HW162577   8.246   1.747  10.939
53560SOL    HW262578   8.360   1.755  10.839
53561SOL     OW62579   7.679  14.253   8.038
53561SOL    HW162580   7.585  14.254   8.054
53561SOL    HW262581   7.706  14.163   8.057
53562SOL     OW62582   6.600   6.345   5.906
53562SOL    HW162583   6.607   6.334   5.811
53562SOL    HW262584   6.682   6.308   5.940
53563SOL     OW62585   0.056   3.913  13.288
53563SOL    HW162586   0.066   3.979  13.220
53563SOL    HW262587   0.143   3.905  13.327
53564SOL     OW62588  12.532   3.354   1.399
53564SOL    HW162589  12.575   3.322   1.479
53564SOL    HW262590  12.493   3.275   1.361
53565SOL     OW62591   1.448   2.709   1.840
53565SOL    HW162592   1.484   2.622   1.853
53565SOL    HW262593   1.373   2.713   1.899
53566SOL     OW62594  13.440   4.094   7.667
53566SOL    HW162595  13.494   4.021   7.636
53566SOL    HW262596  13.358   4.086   7.618
53567SOL     OW62597   4.103   0.439   7.338
53567SOL    HW162598   4.049   0.509   7.375
53567SOL    HW262599   4.165   0.418   7.409
53568SOL     OW62600  14.644   0.099   1.870
53568SOL    HW162601  14.708   0.089   1.941
53568SOL    HW262602  14.654   0.190   1.841
53569SOL     OW62603   9.462   5.564   5.710
53569SOL    HW162604   9.502   5.638   5.755
53569SOL    HW262605   9.368   5.585   5.707
53570SOL     OW62606  11.786   9.630   0.877
53570SOL    HW162607  11.699   9.669   0.875
53570SOL    HW262608  11.822   9.655   0.961
53571SOL     OW62609   8.960   2.208   9.037
53571SOL    HW162610   8.987   2.287   9.083
53571SOL    HW262611   8.865   2.212   9.036
53572SOL     OW62612   7.180  12.265   1.300
53572SOL    HW162613   7.256  12.240   1.248
53572SOL    HW262614   7.186  12.211   1.379
53573SOL     OW62615   8.729   1.936  13.726
53573SOL    HW162616   8.663   1.866  13.727
53573SOL    HW262617   8.679   2.016  13.741
53574SOL     OW62618   3.853   9.345   5.904
53574SOL    HW162619   3.936   9.350   5.857
53574SOL    HW262620   3.859   9.264   5.955
53575SOL     OW62621   7.863   1.508   8.056
53575SOL    HW162622   7.949   1.483   8.022
53575SOL    HW262623   7.834   1.432   8.106
53576SOL     OW62624   9.913   4.327   5.336
53576SOL    HW162625   9.835   4.292   5.380
53576SOL    HW262626   9.938   4.260   5.273
53577SOL     OW62627  13.338   5.739  10.204
53577SOL    HW162628  13.323   5.696  10.288
53577SOL    HW262629  13.266   5.801  10.195
53578SOL     OW62630   8.082   4.111  12.242
53578SOL    HW162631   8.078   4.124  12.337
53578SOL    HW262632   8.170   4.074  12.227
53579SOL     OW62633   4.371  13.005  10.794
53579SOL    HW162634   4.294  13.045  10.836
53579SOL    HW262635   4.391  13.064  10.721
53580SOL     OW62636   5.153  13.671   3.582
53580SOL    HW162637   5.150  13.759   3.622
53580SOL    HW262638   5.139  13.612   3.656
53581SOL     OW62639   9.082   3.822   3.323
53581SOL    HW162640   9.131   3.852   3.246
53581SOL    HW262641   9.136   3.754   3.361
53582SOL     OW62642   8.846  10.852   3.947
53582SOL    HW162643   8.820  10.837   4.038
53582SOL    HW262644   8.843  10.766   3.906
53583SOL     OW62645  14.511   6.144  10.262
53583SOL    HW162646  14.596   6.103  10.245
53583SOL    HW262647  14.460   6.076  10.305
53584SOL     OW62648  10.095  11.951   6.097
53584SOL    HW162649  10.144  11.925   6.175
53584SOL    HW262650  10.112  12.045   6.089
53585SOL     OW62651   0.745  14.287  11.185
53585SOL    HW162652   0.767  14.194  11.194
53585SOL    HW262653   0.772  14.326  11.268
53586SOL     OW62654   9.168   8.830   4.949
53586SOL    HW162655   9.103   8.899   4.935
53586SOL    HW262656   9.151   8.766   4.880
53587SOL     OW62657   2.482  11.658   0.750
53587SOL    HW162658   2.486  11.668   0.655
53587SOL    HW262659   2.389  11.642   0.768
53588SOL     OW62660   0.949  10.636  14.837
53588SOL    HW162661   0.904  10.668   0.047
53588SOL    HW262662   1.010  10.570   0.001
53589SOL     OW62663   7.305  13.761  12.368
53589SOL    HW162664   7.330  13.833  12.426
53589SOL    HW262665   7.355  13.686  12.400
53590SOL     OW62666   0.799  10.461  13.516
53590SOL    HW162667   0.853  10.387  13.543
53590SOL    HW262668   0.767  10.498  13.599
53591SOL     OW62669   8.162   0.108   9.429
53591SOL    HW162670   8.184   0.199   9.446
53591SOL    HW262671   8.136   0.106   9.337
53592SOL     OW62672  13.970   4.448  12.476
53592SOL    HW162673  14.002   4.361  12.498
53592SOL    HW262674  13.889   4.433  12.429
53593SOL     OW62675  12.066   0.721   9.401
53593SOL    HW162676  12.036   0.630   9.404
53593SOL    HW262677  12.085   0.743   9.492
53594SOL     OW62678   8.801  12.153  11.562
53594SOL    HW162679   8.891  12.181  11.544
53594SOL    HW262680   8.810  12.088  11.631
53595SOL     OW62681   5.256   9.679   2.152
53595SOL    HW162682   5.273   9.753   2.093
53595SOL    HW262683   5.292   9.707   2.236
53596SOL     OW62684  11.320   3.696  11.769
53596SOL    HW162685  11.235   3.739  11.757
53596SOL    HW262686  11.345   3.717  11.859
53597SOL     OW62687   6.985  13.192   3.355
53597SOL    HW162688   7.018  13.173   3.267
53597SOL    HW262689   7.057  13.168   3.413
53598SOL     OW62690   2.516   8.103  10.245
53598SOL    HW162691   2.449   8.171  10.254
53598SOL    HW262692   2.533   8.075  10.335
53599SOL     OW62693   4.289  13.648   1.445
53599SOL    HW162694   4.354  13.694   1.392
53599SOL    HW262695   4.205  13.677   1.411
53600SOL     OW62696   8.695   4.866   9.070
53600SOL    HW162697   8.679   4.931   9.001
53600SOL    HW262698   8.686   4.916   9.151
53601SOL     OW62699   7.822   6.438  10.136
53601SOL    HW162700   7.760   6.423  10.208
53601SOL    HW262701   7.784   6.391  10.062
53602SOL     OW62702   6.645   6.606  13.854
53602SOL    HW162703   6.559   6.641  13.831
53602SOL    HW262704   6.677   6.665  13.922
53603SOL     OW62705   0.126  11.175   6.674
53603SOL    HW162706   0.175  11.245   6.631
53603SOL    HW262707   0.187  11.140   6.739
53604SOL     OW62708   0.495  12.537   6.086
53604SOL    HW162709   0.417  12.501   6.128
53604SOL    HW262710   0.500  12.627   6.120
53605SOL     OW62711  10.548  10.472   7.888
53605SOL    HW162712  10.553  10.549   7.944
53605SOL    HW262713  10.554  10.506   7.799
53606SOL     OW62714   4.830   2.728   0.673
53606SOL    HW162715   4.745   2.684   0.685
53606SOL    HW262716   4.860   2.699   0.587
53607SOL     OW62717   8.541  10.459   6.727
53607SOL    HW162718   8.456  10.450   6.685
53607SOL    HW262719   8.574  10.543   6.696
53608SOL     OW62720  11.028   1.909   3.078
53608SOL    HW162721  10.966   1.912   3.151
53608SOL    HW262722  10.988   1.850   3.015
53609SOL     OW62723  12.076  14.714  12.409
53609SOL    HW162724  11.983  14.735  12.417
53609SOL    HW262725  12.090  14.646  12.475
53610SOL     OW62726   5.821   2.948   3.094
53610SOL    HW162727   5.842   2.874   3.152
53610SOL    HW262728   5.890   3.012   3.112
53611SOL     OW62729   5.914   7.890   8.950
53611SOL    HW162730   5.972   7.903   8.875
53611SOL    HW262731   5.918   7.973   8.998
53612SOL     OW62732  13.856   7.988   2.936
53612SOL    HW162733  13.810   7.933   2.872
53612SOL    HW262734  13.847   7.941   3.019
53613SOL     OW62735   1.100  10.471   0.105
53613SOL    HW162736   1.050  10.390   0.118
53613SOL    HW262737   1.173  10.464   0.166
53614SOL     OW62738   7.755  11.864   9.535
53614SOL    HW162739   7.666  11.900   9.542
53614SOL    HW262740   7.751  11.806   9.459
53615SOL     OW62741   6.007   1.596   0.656
53615SOL    HW162742   6.072   1.533   0.686
53615SOL    HW262743   5.970   1.632   0.736
53616SOL     OW62744   6.563   0.283   2.940
53616SOL    HW162745   6.591   0.208   2.888
53616SOL    HW262746   6.521   0.245   3.017
53617SOL     OW62747   6.461   4.731   5.964
53617SOL    HW162748   6.392   4.787   6.001
53617SOL    HW262749   6.449   4.646   6.008
53618SOL     OW62750   5.673  12.199   6.405
53618SOL    HW162751   5.760  12.199   6.365
53618SOL    HW262752   5.688  12.170   6.495
53619SOL     OW62753   0.187  14.291  14.470
53619SOL    HW162754   0.114  14.316  14.414
53619SOL    HW262755   0.155  14.216  14.519
53620SOL     OW62756   1.502  13.396   9.525
53620SOL    HW162757   1.481  13.317   9.574
53620SOL    HW262758   1.528  13.365   9.439
53621SOL     OW62759   0.149   1.295  11.405
53621SOL    HW162760   0.125   1.238  11.478
53621SOL    HW262761   0.085   1.366  11.407
53622SOL     OW62762   5.516   8.506   8.147
53622SOL    HW162763   5.602   8.471   8.127
53622SOL    HW262764   5.468   8.501   8.065
53623SOL     OW62765   3.244   8.896  11.818
53623SOL    HW162766   3.187   8.819  11.808
53623SOL    HW262767   3.281   8.909  11.731
53624SOL     OW62768   9.255  11.735   8.264
53624SOL    HW162769   9.338  11.708   8.305
53624SOL    HW262770   9.188  11.690   8.315
53625SOL     OW62771   5.936   1.670   3.741
53625SOL    HW162772   5.860   1.650   3.688
53625SOL    HW262773   6.011   1.659   3.682
53626SOL     OW62774  14.078   6.454  11.794
53626SOL    HW162775  14.135   6.473  11.868
53626SOL    HW262776  14.012   6.394  11.828
53627SOL     OW62777  11.892   7.582   2.401
53627SOL    HW162778  11.976   7.537   2.387
53627SOL    HW262779  11.831   7.537   2.343
53628SOL     OW62780  12.636  12.666   7.452
53628SOL    HW162781  12.622  12.589   7.507
53628SOL    HW262782  12.666  12.734   7.512
53629SOL     OW62783  12.815  12.000   4.140
53629SOL    HW162784  12.723  12.010   4.116
53629SOL    HW262785  12.845  11.926   4.088
53630SOL     OW62786  12.453   5.926   5.701
53630SOL    HW162787  12.393   5.855   5.724
53630SOL    HW262788  12.510   5.889   5.634
53631SOL     OW62789   2.794   7.652  12.222
53631SOL    HW162790   2.814   7.559  12.210
53631SOL    HW262791   2.733   7.654  12.296
53632SOL     OW62792  10.986   4.764   4.028
53632SOL    HW162793  10.922   4.767   3.957
53632SOL    HW262794  11.051   4.700   3.998
53633SOL     OW62795   0.827  10.853   5.498
53633SOL    HW162796   0.752  10.814   5.454
53633SOL    HW262797   0.798  10.941   5.521
53634SOL     OW62798   8.872   6.098   1.841
53634SOL    HW162799   8.921   6.176   1.864
53634SOL    HW262800   8.787   6.131   1.810
53635SOL     OW62801   5.970   9.345  12.623
53635SOL    HW162802   5.962   9.433  12.660
53635SOL    HW262803   6.061   9.319  12.641
53636SOL     OW62804  13.986   5.852  11.890
53636SOL    HW162805  14.061   5.824  11.942
53636SOL    HW262806  13.925   5.889  11.954
53637SOL     OW62807  14.091   1.396   3.666
53637SOL    HW162808  14.123   1.454   3.597
53637SOL    HW262809  14.011   1.358   3.630
53638SOL     OW62810   2.552   5.897  11.064
53638SOL    HW162811   2.577   5.987  11.086
53638SOL    HW262812   2.488   5.873  11.130
53639SOL     OW62813   1.127  10.364  12.021
53639SOL    HW162814   1.207  10.388  11.976
53639SOL    HW262815   1.150  10.365  12.114
53640SOL     OW62816   5.080   8.635  11.466
53640SOL    HW162817   5.001   8.582  11.452
53640SOL    HW262818   5.047   8.725  11.467
53641SOL     OW62819  14.730   5.046   3.272
53641SOL    HW162820  14.811   5.020   3.228
53641SOL    HW262821  14.749   5.132   3.309
53642SOL     OW62822  11.011  10.122  10.738
53642SOL    HW162823  11.034  10.045  10.790
53642SOL    HW262824  11.092  10.173  10.733
53643SOL     OW62825   2.133   6.375   2.096
53643SOL    HW162826   2.123   6.444   2.161
53643SOL    HW262827   2.047   6.367   2.055
53644SOL     OW62828   7.682  11.449   9.929
53644SOL    HW162829   7.672  11.356   9.949
53644SOL    HW262830   7.604  11.471   9.878
53645SOL     OW62831  11.408  14.843   5.410
53645SOL    HW162832  11.458   0.054   5.390
53645SOL    HW262833  11.465  14.794   5.470
53646SOL     OW62834   8.872  10.339   9.968
53646SOL    HW162835   8.810  10.274   9.936
53646SOL    HW262836   8.957  10.296   9.961
53647SOL     OW62837  11.152  10.563   0.837
53647SOL    HW162838  11.187  10.487   0.883
53647SOL    HW262839  11.188  10.556   0.749
53648SOL     OW62840   6.893  11.987   5.010
53648SOL    HW162841   6.951  11.987   4.934
53648SOL    HW262842   6.854  11.900   5.010
53649SOL     OW62843   1.651   0.052  12.024
53649SOL    HW162844   1.732   0.099  12.004
53649SOL    HW262845   1.584   0.119  12.022
53650SOL     OW62846   0.874   4.389   1.605
53650SOL    HW162847   0.845   4.318   1.548
53650SOL    HW262848   0.869   4.352   1.693
53651SOL     OW62849   3.154   0.405   8.459
53651SOL    HW162850   3.194   0.367   8.536
53651SOL    HW262851   3.224   0.455   8.417
53652SOL     OW62852   9.423   6.386   9.082
53652SOL    HW162853   9.478   6.347   9.013
53652SOL    HW262854   9.400   6.472   9.047
53653SOL     OW62855   1.719   8.340   2.907
53653SOL    HW162856   1.804   8.375   2.933
53653SOL    HW262857   1.707   8.263   2.964
53654SOL     OW62858   0.057   5.602  13.698
53654SOL    HW162859   0.018   5.686  13.673
53654SOL    HW262860  14.861   5.537  13.668
53655SOL     OW62861  14.718   4.188   2.965
53655SOL    HW162862  14.691   4.096   2.969
53655SOL    HW262863  14.801   4.186   2.917
53656SOL     OW62864  14.661   6.740  11.618
53656SOL    HW162865  14.726   6.807  11.599
53656SOL    HW262866  14.686   6.706  11.703
53657SOL     OW62867  10.692   8.693   8.212
53657SOL    HW162868  10.769   8.696   8.269
53657SOL    HW262869  10.642   8.771   8.235
53658SOL     OW62870   2.356  13.163  13.333
53658SOL    HW162871   2.340  13.078  13.374
53658SOL    HW262872   2.450  13.163  13.314
53659SOL     OW62873   1.337  12.986   7.052
53659SOL    HW162874   1.265  13.026   7.002
53659SOL    HW262875   1.412  13.043   7.035
53660SOL     OW62876   9.955   9.547  14.594
53660SOL    HW162877   9.953   9.600  14.674
53660SOL    HW262878  10.015   9.475  14.614
53661SOL     OW62879   7.547  14.176   8.773
53661SOL    HW162880   7.533  14.150   8.682
53661SOL    HW262881   7.605  14.109   8.809
53662SOL     OW62882   5.357   6.477   2.123
53662SOL    HW162883   5.308   6.560   2.115
53662SOL    HW262884   5.301   6.412   2.081
53663SOL     OW62885   7.866   4.942   5.285
53663SOL    HW162886   7.942   4.998   5.275
53663SOL    HW262887   7.836   4.957   5.375
53664SOL     OW62888   6.015   9.734  13.533
53664SOL    HW162889   6.041   9.818  13.571
53664SOL    HW262890   5.942   9.705  13.587
53665SOL     OW62891   5.665   8.256   1.121
53665SOL    HW162892   5.642   8.313   1.047
53665SOL    HW262893   5.688   8.172   1.080
53666SOL     OW62894   4.224   2.825   6.502
53666SOL    HW162895   4.205   2.750   6.557
53666SOL    HW262896   4.140   2.872   6.497
53667SOL     OW62897   2.008   9.270   5.342
53667SOL    HW162898   2.089   9.312   5.313
53667SOL    HW262899   2.013   9.271   5.437
53668SOL     OW62900   2.136   4.312  13.230
53668SOL    HW162901   2.043   4.333  13.219
53668SOL    HW262902   2.137   4.218  13.248
53669SOL     OW62903  12.304   3.402   7.587
53669SOL    HW162904  12.267   3.489   7.582
53669SOL    HW262905  12.251   3.349   7.528
53670SOL     OW62906   2.954   2.121  10.497
53670SOL    HW162907   3.038   2.119  10.542
53670SOL    HW262908   2.976   2.118  10.404
53671SOL     OW62909   3.936   5.330   3.564
53671SOL    HW162910   3.938   5.389   3.639
53671SOL    HW262911   3.850   5.288   3.569
53672SOL     OW62912   5.543   5.416   4.102
53672SOL    HW162913   5.549   5.374   4.016
53672SOL    HW262914   5.584   5.502   4.089
53673SOL     OW62915  13.251  13.888   7.273
53673SOL    HW162916  13.317  13.895   7.203
53673SOL    HW262917  13.208  13.974   7.273
53674SOL     OW62918  10.910  14.084   5.919
53674SOL    HW162919  10.869  14.121   5.840
53674SOL    HW262920  10.860  14.120   5.991
53675SOL     OW62921   2.574  13.369   0.631
53675SOL    HW162922   2.492  13.409   0.602
53675SOL    HW262923   2.631  13.443   0.651
53676SOL     OW62924   1.123   8.709  11.413
53676SOL    HW162925   1.180   8.727  11.488
53676SOL    HW262926   1.166   8.636  11.368
53677SOL     OW62927   5.215   1.550  12.495
53677SOL    HW162928   5.201   1.632  12.448
53677SOL    HW262929   5.306   1.554  12.525
53678SOL     OW62930   2.004   9.033  13.362
53678SOL    HW162931   2.027   9.091  13.435
53678SOL    HW262932   1.911   9.014  13.375
53679SOL     OW62933  13.955  11.845   3.996
53679SOL    HW162934  13.992  11.928   4.026
53679SOL    HW262935  14.017  11.779   4.025
53680SOL     OW62936   4.689   8.763   7.229
53680SOL    HW162937   4.710   8.728   7.315
53680SOL    HW262938   4.734   8.705   7.167
53681SOL     OW62939  14.836  11.325   0.619
53681SOL    HW162940   0.018  11.267   0.561
53681SOL    HW262941  14.853  11.413   0.585
53682SOL     OW62942  14.524  14.180   2.524
53682SOL    HW162943  14.518  14.274   2.537
53682SOL    HW262944  14.568  14.147   2.603
53683SOL     OW62945   3.092   5.446   1.238
53683SOL    HW162946   3.058   5.437   1.149
53683SOL    HW262947   3.049   5.524   1.273
53684SOL     OW62948   4.753   4.743  12.858
53684SOL    HW162949   4.813   4.768  12.789
53684SOL    HW262950   4.681   4.806  12.852
53685SOL     OW62951   1.425  11.407   0.467
53685SOL    HW162952   1.395  11.351   0.396
53685SOL    HW262953   1.369  11.384   0.541
53686SOL     OW62954   4.783  14.582   1.405
53686SOL    HW162955   4.827  14.644   1.347
53686SOL    HW262956   4.740  14.520   1.345
53687SOL     OW62957   6.032   5.110   3.250
53687SOL    HW162958   6.116   5.122   3.206
53687SOL    HW262959   6.035   5.168   3.326
53688SOL     OW62960   1.046   6.142   4.735
53688SOL    HW162961   0.986   6.217   4.741
53688SOL    HW262962   0.989   6.067   4.717
53689SOL     OW62963   4.872   8.842   3.367
53689SOL    HW162964   4.952   8.817   3.322
53689SOL    HW262965   4.856   8.932   3.340
53690SOL     OW62966   2.631  13.275   7.283
53690SOL    HW162967   2.662  13.327   7.357
53690SOL    HW262968   2.565  13.216   7.319
53691SOL     OW62969   0.475  10.489  12.068
53691SOL    HW162970   0.466  10.529  11.981
53691SOL    HW262971   0.494  10.563  12.126
53692SOL     OW62972  12.184   5.655   7.878
53692SOL    HW162973  12.100   5.618   7.852
53692SOL    HW262974  12.198   5.622   7.968
53693SOL     OW62975   3.866   1.528   3.764
53693SOL    HW162976   3.838   1.528   3.855
53693SOL    HW262977   3.961   1.536   3.767
53694SOL     OW62978  13.076   4.369  13.759
53694SOL    HW162979  13.081   4.345  13.666
53694SOL    HW262980  12.992   4.414  13.768
53695SOL     OW62981  14.246  13.945   1.156
53695SOL    HW162982  14.158  13.947   1.117
53695SOL    HW262983  14.296  13.888   1.099
53696SOL     OW62984  13.010  13.651  14.516
53696SOL    HW162985  12.933  13.705  14.500
53696SOL    HW262986  13.084  13.709  14.498
53697SOL     OW62987   1.743   7.001   9.761
53697SOL    HW162988   1.821   6.954   9.791
53697SOL    HW262989   1.749   6.999   9.665
53698SOL     OW62990  12.810  12.328   9.532
53698SOL    HW162991  12.774  12.317   9.620
53698SOL    HW262992  12.870  12.402   9.541
53699SOL     OW62993   9.218   2.420  14.816
53699SOL    HW162994   9.131   2.448  14.787
53699SOL    HW262995   9.252   2.370  14.741
53700SOL     OW62996  13.670  10.877  12.011
53700SOL    HW162997  13.634  10.924  12.086
53700SOL    HW262998  13.616  10.903  11.937
53701SOL     OW62999   7.803   2.474   5.855
53701SOL    HW163000   7.771   2.542   5.796
53701SOL    HW263001   7.898   2.470   5.838
53702SOL     OW63002   3.870   9.659  13.482
53702SOL    HW163003   3.864   9.694  13.393
53702SOL    HW263004   3.822   9.722  13.536
53703SOL     OW63005   5.155  14.507  14.063
53703SOL    HW163006   5.178  14.565  13.990
53703SOL    HW263007   5.100  14.440  14.024
53704SOL     OW63008  11.406   3.858   1.671
53704SOL    HW163009  11.382   3.862   1.763
53704SOL    HW263010  11.442   3.945   1.652
53705SOL     OW63011   6.587   8.259   9.326
53705SOL    HW163012   6.646   8.184   9.319
53705SOL    HW263013   6.608   8.313   9.250
53706SOL     OW63014  14.745   7.131   4.751
53706SOL    HW163015  14.671   7.182   4.717
53706SOL    HW263016  14.707   7.045   4.771
53707SOL     OW63017   2.746   9.803  10.217
53707SOL    HW163018   2.757   9.857  10.295
53707SOL    HW263019   2.790   9.721  10.238
53708SOL     OW63020  12.613   5.649  11.231
53708SOL    HW163021  12.638   5.557  11.219
53708SOL    HW263022  12.696   5.696  11.235
53709SOL     OW63023   3.256   8.991  12.388
53709SOL    HW163024   3.185   9.022  12.444
53709SOL    HW263025   3.215   8.978  12.303
53710SOL     OW63026   7.362   2.180   5.218
53710SOL    HW163027   7.381   2.274   5.212
53710SOL    HW263028   7.425   2.139   5.159
53711SOL     OW63029   2.757   0.069   8.592
53711SOL    HW163030   2.833   0.126   8.584
53711SOL    HW263031   2.740   0.064   8.686
53712SOL     OW63032   7.480  12.676   4.795
53712SOL    HW163033   7.397  12.704   4.833
53712SOL    HW263034   7.521  12.757   4.765
53713SOL     OW63035   7.234   9.962   7.225
53713SOL    HW163036   7.139   9.969   7.232
53713SOL    HW263037   7.261  10.046   7.188
53714SOL     OW63038  13.874   6.317  10.889
53714SOL    HW163039  13.917   6.248  10.839
53714SOL    HW263040  13.938   6.388  10.893
53715SOL     OW63041   6.241   4.570   2.952
53715SOL    HW163042   6.310   4.635   2.959
53715SOL    HW263043   6.161   4.621   2.940
53716SOL     OW63044  12.881  14.826   4.898
53716SOL    HW163045  12.938  14.750   4.911
53716SOL    HW263046  12.794  14.795   4.921
53717SOL     OW63047   6.425   9.614   0.925
53717SOL    HW163048   6.480   9.684   0.889
53717SOL    HW263049   6.433   9.624   1.020
53718SOL     OW63050  11.756   6.414   2.110
53718SOL    HW163051  11.726   6.333   2.151
53718SOL    HW263052  11.846   6.425   2.141
53719SOL     OW63053   8.742   1.892   1.221
53719SOL    HW163054   8.651   1.921   1.231
53719SOL    HW263055   8.783   1.959   1.167
53720SOL     OW63056  11.409   0.813  10.485
53720SOL    HW163057  11.466   0.748  10.526
53720SOL    HW263058  11.389   0.777  10.399
53721SOL     OW63059   9.664  13.656  12.586
53721SOL    HW163060   9.610  13.608  12.523
53721SOL    HW263061   9.625  13.637  12.671
53722SOL     OW63062  11.806   0.621  10.826
53722SOL    HW163063  11.873   0.564  10.788
53722SOL    HW263064  11.836   0.636  10.916
53723SOL     OW63065  10.075   6.538   3.530
53723SOL    HW163066   9.983   6.524   3.553
53723SOL    HW263067  10.111   6.449   3.522
53724SOL     OW63068   9.111  13.111  12.638
53724SOL    HW163069   9.049  13.184  12.634
53724SOL    HW263070   9.139  13.109  12.730
53725SOL     OW63071  10.166   7.929   9.282
53725SOL    HW163072  10.196   7.841   9.303
53725SOL    HW263073  10.184   7.939   9.189
53726SOL     OW63074   3.019   9.963   8.755
53726SOL    HW163075   2.977   9.878   8.765
53726SOL    HW263076   2.993  10.012   8.833
53727SOL     OW63077   0.171   9.545  14.305
53727SOL    HW163078   0.250   9.497  14.281
53727SOL    HW263079   0.191   9.582  14.391
53728SOL     OW63080  10.858   0.630   3.818
53728SOL    HW163081  10.935   0.664   3.771
53728SOL    HW263082  10.812   0.708   3.848
53729SOL     OW63083  11.490   9.290   0.573
53729SOL    HW163084  11.521   9.381   0.572
53729SOL    HW263085  11.480   9.269   0.666
53730SOL     OW63086   0.993   3.264  10.499
53730SOL    HW163087   0.998   3.346  10.449
53730SOL    HW263088   1.012   3.290  10.589
53731SOL     OW63089   8.366   4.014  12.228
53731SOL    HW163090   8.461   4.021  12.227
53731SOL    HW263091   8.347   3.954  12.300
53732SOL     OW63092   7.989   6.204   5.413
53732SOL    HW163093   8.001   6.289   5.372
53732SOL    HW263094   7.963   6.224   5.503
53733SOL     OW63095   9.723  14.286  10.451
53733SOL    HW163096   9.725  14.320  10.541
53733SOL    HW263097   9.776  14.206  10.454
53734SOL     OW63098   9.322  14.589   5.383
53734SOL    HW163099   9.293  14.499   5.368
53734SOL    HW263100   9.290  14.611   5.470
53735SOL     OW63101   2.347  13.629   1.538
53735SOL    HW163102   2.357  13.534   1.534
53735SOL    HW263103   2.323  13.647   1.629
53736SOL     OW63104   3.196   9.533  13.378
53736SOL    HW163105   3.266   9.524  13.443
53736SOL    HW263106   3.169   9.443  13.359
53737SOL     OW63107   2.779  13.641   0.632
53737SOL    HW163108   2.707  13.705   0.628
53737SOL    HW263109   2.849  13.687   0.679
53738SOL     OW63110   4.789   3.060   9.979
53738SOL    HW163111   4.721   3.006  10.021
53738SOL    HW263112   4.869   3.038  10.026
53739SOL     OW63113   8.747  11.573   3.847
53739SOL    HW163114   8.728  11.604   3.759
53739SOL    HW263115   8.724  11.647   3.904
53740SOL     OW63116   1.836   4.158   6.025
53740SOL    HW163117   1.829   4.150   6.120
53740SOL    HW263118   1.807   4.248   6.006
53741SOL     OW63119   8.822  10.954   2.143
53741SOL    HW163120   8.743  10.912   2.179
53741SOL    HW263121   8.851  11.012   2.213
53742SOL     OW63122   8.976   2.983   3.833
53742SOL    HW163123   8.957   2.897   3.869
53742SOL    HW263124   8.933   2.983   3.747
53743SOL     OW63125   9.524   6.575   4.860
53743SOL    HW163126   9.484   6.591   4.774
53743SOL    HW263127   9.450   6.556   4.917
53744SOL     OW63128  12.402  13.544   2.563
53744SOL    HW163129  12.480  13.584   2.523
53744SOL    HW263130  12.352  13.617   2.597
53745SOL     OW63131   2.954   3.882   0.639
53745SOL    HW163132   3.007   3.897   0.560
53745SOL    HW263133   3.017   3.890   0.711
53746SOL     OW63134   7.569   0.675   4.477
53746SOL    HW163135   7.529   0.594   4.507
53746SOL    HW263136   7.566   0.733   4.552
53747SOL     OW63137  11.219   6.175  14.382
53747SOL    HW163138  11.257   6.251  14.337
53747SOL    HW263139  11.127   6.175  14.353
53748SOL     OW63140   7.952   7.392   8.874
53748SOL    HW163141   7.866   7.350   8.861
53748SOL    HW263142   7.957   7.457   8.804
53749SOL     OW63143  13.361  13.286  12.030
53749SOL    HW163144  13.443  13.256  12.069
53749SOL    HW263145  13.354  13.378  12.056
53750SOL     OW63146   0.971  12.231  14.740
53750SOL    HW163147   0.969  12.259  14.832
53750SOL    HW263148   0.909  12.159  14.736
53751SOL     OW63149  14.116   3.058  13.902
53751SOL    HW163150  14.165   3.028  13.826
53751SOL    HW263151  14.144   3.000  13.973
53752SOL     OW63152   9.708   7.407  14.266
53752SOL    HW163153   9.737   7.405  14.357
53752SOL    HW263154   9.781   7.445  14.218
53753SOL     OW63155   2.057   5.254  13.232
53753SOL    HW163156   2.097   5.320  13.288
53753SOL    HW263157   2.011   5.303  13.164
53754SOL     OW63158   0.487  10.563  13.114
53754SOL    HW163159   0.439  10.560  13.197
53754SOL    HW263160   0.473  10.653  13.083
53755SOL     OW63161   3.897  14.647   0.147
53755SOL    HW163162   3.934  14.584   0.208
53755SOL    HW263163   3.943  14.729   0.165
53756SOL     OW63164  10.249   7.905   3.571
53756SOL    HW163165  10.232   7.853   3.493
53756SOL    HW263166  10.324   7.864   3.613
53757SOL     OW63167  11.966  10.836   7.238
53757SOL    HW163168  12.020  10.763   7.268
53757SOL    HW263169  11.895  10.841   7.302
53758SOL     OW63170   4.258  11.221   2.089
53758SOL    HW163171   4.211  11.303   2.077
53758SOL    HW263172   4.220  11.162   2.023
53759SOL     OW63173   5.808  14.470  11.579
53759SOL    HW163174   5.718  14.500  11.587
53759SOL    HW263175   5.861  14.547  11.603
53760SOL     OW63176  14.713  14.281   0.121
53760SOL    HW163177  14.734  14.193   0.152
53760SOL    HW263178  14.662  14.319   0.193
53761SOL     OW63179  11.792   6.176   3.437
53761SOL    HW163180  11.761   6.088   3.460
53761SOL    HW263181  11.866   6.160   3.378
53762SOL     OW63182   0.410   0.204   1.700
53762SOL    HW163183   0.374   0.290   1.719
53762SOL    HW263184   0.345   0.162   1.644
53763SOL     OW63185   6.628   5.235  14.054
53763SOL    HW163186   6.719   5.262  14.067
53763SOL    HW263187   6.584   5.315  14.025
53764SOL     OW63188  14.137   8.659   1.015
53764SOL    HW163189  14.227   8.625   1.016
53764SOL    HW263190  14.088   8.599   1.071
53765SOL     OW63191  10.366   2.417   1.202
53765SOL    HW163192  10.284   2.461   1.222
53765SOL    HW263193  10.398   2.461   1.123
53766SOL     OW63194   6.233   3.505   8.365
53766SOL    HW163195   6.152   3.501   8.314
53766SOL    HW263196   6.232   3.592   8.405
53767SOL     OW63197   0.703   3.489  10.533
53767SOL    HW163198   0.699   3.399  10.502
53767SOL    HW263199   0.623   3.530  10.499
53768SOL     OW63200   2.821  12.382   3.241
53768SOL    HW163201   2.872  12.463   3.243
53768SOL    HW263202   2.859  12.327   3.310
53769SOL     OW63203   5.614   8.377   1.833
53769SOL    HW163204   5.620   8.294   1.881
53769SOL    HW263205   5.530   8.414   1.860
53770SOL     OW63206  10.324  11.170   2.818
53770SOL    HW163207  10.407  11.139   2.780
53770SOL    HW263208  10.257  11.139   2.757
53771SOL     OW63209   7.702   7.795   1.022
53771SOL    HW163210   7.654   7.810   1.103
53771SOL    HW263211   7.772   7.734   1.046
53772SOL     OW63212   4.402   7.821  10.955
53772SOL    HW163213   4.432   7.827  10.864
53772SOL    HW263214   4.457   7.752  10.993
53773SOL     OW63215   9.157   0.230   3.566
53773SOL    HW163216   9.222   0.242   3.635
53773SOL    HW263217   9.129   0.318   3.543
53774SOL     OW63218   2.086   9.989   9.749
53774SOL    HW163219   2.072   9.897   9.768
53774SOL    HW263220   2.064  10.035   9.830
53775SOL     OW63221   0.475   8.154  10.432
53775SOL    HW163222   0.463   8.232  10.377
53775SOL    HW263223   0.498   8.084  10.370
53776SOL     OW63224  10.851   4.491  10.792
53776SOL    HW163225  10.874   4.485  10.699
53776SOL    HW263226  10.809   4.408  10.812
53777SOL     OW63227   5.752   1.696   2.087
53777SOL    HW163228   5.753   1.685   2.182
53777SOL    HW263229   5.694   1.627   2.055
53778SOL     OW63230  11.662   0.190   0.505
53778SOL    HW163231  11.708   0.257   0.555
53778SOL    HW263232  11.673   0.110   0.557
53779SOL     OW63233  14.671  13.153  14.322
53779SOL    HW163234  14.583  13.121  14.305
53779SOL    HW263235  14.728  13.081  14.296
53780SOL     OW63236  14.125  12.430   3.582
53780SOL    HW163237  14.081  12.352   3.550
53780SOL    HW263238  14.094  12.439   3.673
53781SOL     OW63239   5.416   2.184   8.116
53781SOL    HW163240   5.385   2.230   8.038
53781SOL    HW263241   5.437   2.096   8.085
53782SOL     OW63242  13.187   6.955   0.788
53782SOL    HW163243  13.257   6.981   0.729
53782SOL    HW263244  13.137   6.890   0.738
53783SOL     OW63245   5.125   4.686   0.969
53783SOL    HW163246   5.192   4.734   0.921
53783SOL    HW263247   5.115   4.734   1.051
53784SOL     OW63248   3.593   5.153  13.821
53784SOL    HW163249   3.564   5.241  13.845
53784SOL    HW263250   3.665   5.134  13.881
53785SOL     OW63251  10.270   2.731   0.054
53785SOL    HW163252  10.268   2.639   0.080
53785SOL    HW263253  10.201   2.772   0.106
53786SOL     OW63254   7.680   5.806  10.872
53786SOL    HW163255   7.733   5.884  10.885
53786SOL    HW263256   7.714   5.743  10.936
53787SOL     OW63257   5.073  13.809   7.297
53787SOL    HW163258   4.985  13.832   7.268
53787SOL    HW263259   5.100  13.882   7.352
53788SOL     OW63260  11.158  10.041  12.820
53788SOL    HW163261  11.113  10.098  12.757
53788SOL    HW263262  11.132   9.952  12.795
53789SOL     OW63263  12.632  13.194   8.562
53789SOL    HW163264  12.613  13.163   8.473
53789SOL    HW263265  12.695  13.265   8.549
53790SOL     OW63266   1.956   9.093   9.214
53790SOL    HW163267   2.041   9.049   9.209
53790SOL    HW263268   1.957   9.156   9.142
53791SOL     OW63269   5.890   1.687  12.294
53791SOL    HW163270   5.889   1.641  12.211
53791SOL    HW263271   5.875   1.779  12.271
53792SOL     OW63272   6.965   7.343  14.344
53792SOL    HW163273   7.036   7.340  14.280
53792SOL    HW263274   6.982   7.268  14.401
53793SOL     OW63275   2.795   7.686   6.383
53793SOL    HW163276   2.835   7.765   6.346
53793SOL    HW263277   2.736   7.655   6.313
53794SOL     OW63278  12.738  11.698   0.984
53794SOL    HW163279  12.767  11.772   0.931
53794SOL    HW263280  12.818  11.668   1.028
53795SOL     OW63281  11.365   8.053  10.714
53795SOL    HW163282  11.397   7.979  10.661
53795SOL    HW263283  11.276   8.028  10.738
53796SOL     OW63284   6.924   5.525   4.227
53796SOL    HW163285   6.904   5.602   4.280
53796SOL    HW263286   6.939   5.560   4.139
53797SOL     OW63287   4.565   3.448   4.151
53797SOL    HW163288   4.593   3.419   4.238
53797SOL    HW263289   4.547   3.367   4.103
53798SOL     OW63290  14.468   2.771   8.356
53798SOL    HW163291  14.475   2.775   8.451
53798SOL    HW263292  14.394   2.712   8.340
53799SOL     OW63293   0.097   5.964   5.009
53799SOL    HW163294   0.145   6.040   5.042
53799SOL    HW263295   0.008   5.997   4.993
53800SOL     OW63296   9.296  14.318   6.260
53800SOL    HW163297   9.284  14.413   6.263
53800SOL    HW263298   9.334  14.301   6.174
53801SOL     OW63299  12.230   7.620  10.551
53801SOL    HW163300  12.148   7.643  10.594
53801SOL    HW263301  12.298   7.659  10.607
53802SOL     OW63302   8.064   7.383   0.104
53802SOL    HW163303   8.149   7.413   0.137
53802SOL    HW263304   8.071   7.288   0.102
53803SOL     OW63305   7.273  11.306   1.543
53803SOL    HW163306   7.295  11.384   1.492
53803SOL    HW263307   7.223  11.252   1.482
53804SOL     OW63308   5.153   3.017   9.157
53804SOL    HW163309   5.236   3.011   9.206
53804SOL    HW263310   5.157   3.101   9.113
53805SOL     OW63311   8.798   6.298   2.270
53805SOL    HW163312   8.867   6.233   2.252
53805SOL    HW263313   8.758   6.268   2.352
53806SOL     OW63314  10.389  12.649   7.780
53806SOL    HW163315  10.446  12.572   7.787
53806SOL    HW263316  10.424  12.699   7.707
53807SOL     OW63317  14.077   8.671   1.594
53807SOL    HW163318  14.100   8.764   1.597
53807SOL    HW263319  14.130   8.631   1.664
53808SOL     OW63320   9.938  13.005   8.321
53808SOL    HW163321   9.885  12.928   8.341
53808SOL    HW263322   9.875  13.069   8.288
53809SOL     OW63323  10.735  10.155  12.576
53809SOL    HW163324  10.701  10.072  12.541
53809SOL    HW263325  10.681  10.171  12.654
53810SOL     OW63326  12.287   3.821  11.780
53810SOL    HW163327  12.236   3.834  11.860
53810SOL    HW263328  12.235   3.758  11.730
53811SOL     OW63329   7.981   6.120   6.778
53811SOL    HW163330   7.901   6.151   6.734
53811SOL    HW263331   7.956   6.109   6.869
53812SOL     OW63332  13.992   0.010   7.983
53812SOL    HW163333  13.991  14.805   8.045
53812SOL    HW263334  14.008   0.087   8.038
53813SOL     OW63335   2.632   0.498   6.846
53813SOL    HW163336   2.701   0.516   6.782
53813SOL    HW263337   2.551   0.524   6.802
53814SOL     OW63338  14.260   1.979   7.012
53814SOL    HW163339  14.223   1.986   7.100
53814SOL    HW263340  14.245   2.065   6.973
53815SOL     OW63341   1.059  11.380   4.980
53815SOL    HW163342   1.041  11.313   4.914
53815SOL    HW263343   1.114  11.336   5.044
53816SOL     OW63344  11.323  10.467   2.833
53816SOL    HW163345  11.240  10.419   2.826
53816SOL    HW263346  11.383  10.418   2.776
53817SOL     OW63347   4.075   5.055   7.600
53817SOL    HW163348   4.164   5.079   7.575
53817SOL    HW263349   4.085   5.009   7.684
53818SOL     OW63350  13.811  14.009   3.346
53818SOL    HW163351  13.817  13.924   3.301
53818SOL    HW263352  13.779  13.986   3.434
53819SOL     OW63353   0.531  11.117   2.238
53819SOL    HW163354   0.460  11.174   2.267
53819SOL    HW263355   0.493  11.069   2.164
53820SOL     OW63356   9.023   1.260   5.025
53820SOL    HW163357   9.009   1.177   5.071
53820SOL    HW263358   8.936   1.283   4.990
53821SOL     OW63359   2.490  11.542  12.413
53821SOL    HW163360   2.428  11.469  12.416
53821SOL    HW263361   2.436  11.620  12.421
53822SOL     OW63362  14.506   7.902  10.946
53822SOL    HW163363  14.416   7.869  10.942
53822SOL    HW263364  14.553   7.852  10.880
53823SOL     OW63365  13.769   3.325  14.070
53823SOL    HW163366  13.703   3.323  14.000
53823SOL    HW263367  13.718   3.335  14.150
53824SOL     OW63368  13.733  12.587   7.142
53824SOL    HW163369  13.812  12.623   7.102
53824SOL    HW263370  13.685  12.547   7.070
53825SOL     OW63371   0.234  12.232   8.759
53825SOL    HW163372   0.227  12.143   8.793
53825SOL    HW263373   0.214  12.288   8.834
53826SOL     OW63374  11.264  12.054   8.357
53826SOL    HW163375  11.334  12.102   8.400
53826SOL    HW263376  11.290  11.962   8.363
53827SOL     OW63377   3.604   5.417   0.897
53827SOL    HW163378   3.640   5.359   0.830
53827SOL    HW263379   3.513   5.430   0.871
53828SOL     OW63380   0.523   8.705  10.220
53828SOL    HW163381   0.614   8.729  10.233
53828SOL    HW263382   0.513   8.701  10.124
53829SOL     OW63383  14.356   9.130   8.725
53829SOL    HW163384  14.425   9.102   8.785
53829SOL    HW263385  14.399   9.191   8.665
53830SOL     OW63386  10.340  10.706   4.387
53830SOL    HW163387  10.298  10.623   4.407
53830SOL    HW263388  10.347  10.751   4.472
53831SOL     OW63389   5.412   7.140   4.344
53831SOL    HW163390   5.336   7.196   4.359
53831SOL    HW263391   5.439   7.159   4.254
53832SOL     OW63392  14.617   1.669   2.393
53832SOL    HW163393  14.635   1.686   2.485
53832SOL    HW263394  14.674   1.729   2.345
53833SOL     OW63395  10.822  12.676   6.661
53833SOL    HW163396  10.865  12.661   6.745
53833SOL    HW263397  10.894  12.686   6.598
53834SOL     OW63398  14.312   5.953  10.347
53834SOL    HW163399  14.234   5.944  10.292
53834SOL    HW263400  14.284   5.927  10.434
53835SOL     OW63401  11.275   8.367   4.064
53835SOL    HW163402  11.351   8.323   4.025
53835SOL    HW263403  11.201   8.310   4.042
53836SOL     OW63404  13.050   7.668  10.485
53836SOL    HW163405  13.145   7.669  10.472
53836SOL    HW263406  13.014   7.691  10.399
53837SOL     OW63407  13.176   6.796  11.800
53837SOL    HW163408  13.116   6.819  11.871
53837SOL    HW263409  13.215   6.713  11.828
53838SOL     OW63410   1.454  11.752  13.732
53838SOL    HW163411   1.360  11.738  13.745
53838SOL    HW263412   1.460  11.801  13.650
53839SOL     OW63413   3.484   8.032   1.770
53839SOL    HW163414   3.467   8.120   1.804
53839SOL    HW263415   3.404   7.983   1.788
53840SOL     OW63416   9.776   7.723  10.371
53840SOL    HW163417   9.828   7.751  10.446
53840SOL    HW263418   9.838   7.715  10.299
53841SOL     OW63419   5.060  14.473   1.292
53841SOL    HW163420   5.041  14.567   1.297
53841SOL    HW263421   5.063  14.445   1.384
53842SOL     OW63422   6.321   3.623   0.749
53842SOL    HW163423   6.253   3.688   0.771
53842SOL    HW263424   6.310   3.554   0.814
53843SOL     OW63425   4.583  10.212  12.543
53843SOL    HW163426   4.676  10.189  12.553
53843SOL    HW263427   4.554  10.160  12.468
53844SOL     OW63428   8.857  13.328  13.319
53844SOL    HW163429   8.779  13.367  13.279
53844SOL    HW263430   8.822  13.257  13.374
53845SOL     OW63431  12.277   2.780   0.778
53845SOL    HW163432  12.276   2.816   0.867
53845SOL    HW263433  12.302   2.688   0.789
53846SOL     OW63434  10.579   3.696  10.911
53846SOL    HW163435  10.644   3.727  10.848
53846SOL    HW263436  10.532   3.627  10.865
53847SOL     OW63437   3.188   8.195   1.185
53847SOL    HW163438   3.274   8.164   1.214
53847SOL    HW263439   3.127   8.126   1.212
53848SOL     OW63440   7.834   5.374  10.892
53848SOL    HW163441   7.866   5.290  10.860
53848SOL    HW263442   7.819   5.425  10.812
53849SOL     OW63443   9.769   1.087  10.761
53849SOL    HW163444   9.793   1.178  10.776
53849SOL    HW263445   9.724   1.087  10.677
53850SOL     OW63446   2.000  10.254   0.522
53850SOL    HW163447   2.084  10.289   0.491
53850SOL    HW263448   2.002  10.162   0.498
53851SOL     OW63449  14.603   9.014   4.651
53851SOL    HW163450  14.545   9.064   4.594
53851SOL    HW263451  14.580   8.923   4.634
53852SOL     OW63452   3.671   8.381   0.012
53852SOL    HW163453   3.692   8.307   0.070
53852SOL    HW263454   3.678   8.458   0.069
53853SOL     OW63455  12.746   3.039   6.461
53853SOL    HW163456  12.771   2.995   6.542
53853SOL    HW263457  12.669   3.091   6.485
53854SOL     OW63458  13.773   8.809  10.137
53854SOL    HW163459  13.846   8.774  10.188
53854SOL    HW263460  13.711   8.840  10.203
53855SOL     OW63461   0.812   1.362   5.027
53855SOL    HW163462   0.846   1.440   5.071
53855SOL    HW263463   0.882   1.298   5.033
53856SOL     OW63464   4.535   9.160   8.367
53856SOL    HW163465   4.458   9.203   8.330
53856SOL    HW263466   4.529   9.070   8.336
53857SOL     OW63467   6.005   0.507   8.896
53857SOL    HW163468   5.935   0.475   8.953
53857SOL    HW263469   6.011   0.442   8.827
53858SOL     OW63470   4.344   5.605  10.369
53858SOL    HW163471   4.366   5.684  10.417
53858SOL    HW263472   4.411   5.541  10.396
53859SOL     OW63473   2.857  13.956   2.766
53859SOL    HW163474   2.880  13.908   2.687
53859SOL    HW263475   2.808  14.032   2.735
53860SOL     OW63476   7.246   4.160   4.927
53860SOL    HW163477   7.248   4.066   4.908
53860SOL    HW263478   7.282   4.201   4.849
53861SOL     OW63479   8.998  14.773   3.291
53861SOL    HW163480   9.060  14.845   3.304
53861SOL    HW263481   8.985  14.770   3.196
53862SOL     OW63482  10.756  10.412  10.488
53862SOL    HW163483  10.724  10.501  10.473
53862SOL    HW263484  10.851  10.420  10.484
53863SOL     OW63485   8.036  10.578   0.474
53863SOL    HW163486   7.953  10.622   0.453
53863SOL    HW263487   8.068  10.545   0.390
53864SOL     OW63488   7.236   5.595   1.434
53864SOL    HW163489   7.184   5.515   1.440
53864SOL    HW263490   7.181   5.657   1.386
53865SOL     OW63491   9.153   3.391  11.675
53865SOL    HW163492   9.162   3.414  11.767
53865SOL    HW263493   9.059   3.378  11.663
53866SOL     OW63494   2.859  13.427   4.862
53866SOL    HW163495   2.930  13.415   4.925
53866SOL    HW263496   2.779  13.414   4.913
53867SOL     OW63497   9.391   2.073   1.557
53867SOL    HW163498   9.341   2.025   1.623
53867SOL    HW263499   9.456   2.010   1.525
53868SOL     OW63500   4.241  10.596   6.124
53868SOL    HW163501   4.304  10.532   6.091
53868SOL    HW263502   4.217  10.563   6.210
53869SOL     OW63503  13.994  12.309  12.884
53869SOL    HW163504  13.967  12.398  12.861
53869SOL    HW263505  14.058  12.322  12.955
53870SOL     OW63506   3.021   6.563   1.163
53870SOL    HW163507   2.944   6.583   1.110
53870SOL    HW263508   3.053   6.479   1.128
53871SOL     OW63509  10.718  13.886  14.019
53871SOL    HW163510  10.646  13.930  13.975
53871SOL    HW263511  10.796  13.933  13.993
53872SOL     OW63512   5.190   3.194   3.207
53872SOL    HW163513   5.157   3.106   3.191
53872SOL    HW263514   5.213   3.228   3.120
53873SOL     OW63515  11.288   4.121   0.433
53873SOL    HW163516  11.228   4.049   0.412
53873SOL    HW263517  11.329   4.096   0.515
53874SOL     OW63518  14.296   8.024   0.152
53874SOL    HW163519  14.296   8.078   0.232
53874SOL    HW263520  14.220   7.967   0.163
53875SOL     OW63521  13.671   8.533   9.624
53875SOL    HW163522  13.592   8.512   9.574
53875SOL    HW263523  13.646   8.610   9.676
53876SOL     OW63524  12.011   6.114   4.639
53876SOL    HW163525  11.925   6.137   4.673
53876SOL    HW263526  12.046   6.052   4.703
53877SOL     OW63527  14.611  14.667  14.847
53877SOL    HW163528  14.548  14.624   0.037
53877SOL    HW263529  14.621  14.755   0.016
53878SOL     OW63530   7.407   3.440  13.415
53878SOL    HW163531   7.360   3.429  13.497
53878SOL    HW263532   7.345   3.487  13.359
53879SOL     OW63533   2.744  13.188  12.561
53879SOL    HW163534   2.827  13.145  12.542
53879SOL    HW263535   2.702  13.197  12.475
53880SOL     OW63536  14.272   1.086  11.299
53880SOL    HW163537  14.354   1.087  11.348
53880SOL    HW263538  14.293   1.126  11.215
53881SOL     OW63539  10.226  11.821  11.902
53881SOL    HW163540  10.184  11.782  11.979
53881SOL    HW263541  10.167  11.892  11.876
53882SOL     OW63542  10.375   1.450   3.703
53882SOL    HW163543  10.421   1.421   3.782
53882SOL    HW263544  10.446   1.467   3.640
53883SOL     OW63545  10.465   0.300   7.244
53883SOL    HW163546  10.493   0.222   7.195
53883SOL    HW263547  10.444   0.364   7.176
53884SOL     OW63548   8.537  11.913  11.733
53884SOL    HW163549   8.493  11.831  11.711
53884SOL    HW263550   8.615  11.886  11.782
53885SOL     OW63551  13.441  12.460   1.980
53885SOL    HW163552  13.405  12.548   1.982
53885SOL    HW263553  13.372  12.406   1.941
53886SOL     OW63554   2.072   6.118  10.149
53886SOL    HW163555   2.072   6.044  10.089
53886SOL    HW263556   2.104   6.082  10.231
53887SOL     OW63557   8.599   5.562   4.319
53887SOL    HW163558   8.551   5.569   4.236
53887SOL    HW263559   8.570   5.478   4.356
53888SOL     OW63560   6.196   1.748  12.080
53888SOL    HW163561   6.158   1.824  12.124
53888SOL    HW263562   6.276   1.729  12.129
53889SOL     OW63563   3.536   2.502  11.364
53889SOL    HW163564   3.611   2.505  11.424
53889SOL    HW263565   3.538   2.414  11.327
53890SOL     OW63566   6.404   5.284  13.424
53890SOL    HW163567   6.395   5.354  13.360
53890SOL    HW263568   6.328   5.294  13.482
53891SOL     OW63569   4.320   5.272  11.140
53891SOL    HW163570   4.402   5.321  11.152
53891SOL    HW263571   4.259   5.314  11.200
53892SOL     OW63572  13.238   8.520   4.292
53892SOL    HW163573  13.198   8.575   4.359
53892SOL    HW263574  13.291   8.580   4.240
53893SOL     OW63575  13.613  10.728  13.121
53893SOL    HW163576  13.523  10.757  13.133
53893SOL    HW263577  13.625  10.660  13.188
53894SOL     OW63578   8.317   5.805   2.326
53894SOL    HW163579   8.308   5.889   2.371
53894SOL    HW263580   8.376   5.822   2.253
53895SOL     OW63581  14.016   8.523   4.700
53895SOL    HW163582  13.929   8.561   4.710
53895SOL    HW263583  14.029   8.473   4.781
53896SOL     OW63584  12.030  11.471  14.051
53896SOL    HW163585  12.084  11.492  14.128
53896SOL    HW263586  12.092  11.472  13.978
53897SOL     OW63587   6.586   8.308  13.964
53897SOL    HW163588   6.591   8.217  13.991
53897SOL    HW263589   6.620   8.358  14.039
53898SOL     OW63590   2.654   2.977   9.747
53898SOL    HW163591   2.672   2.884   9.730
53898SOL    HW263592   2.595   3.003   9.676
53899SOL     OW63593   9.548   6.361  12.818
53899SOL    HW163594   9.642   6.377  12.814
53899SOL    HW263595   9.540   6.276  12.861
53900SOL     OW63596   1.669   7.508   1.137
53900SOL    HW163597   1.610   7.433   1.139
53900SOL    HW263598   1.614   7.581   1.108
53901SOL     OW63599   3.812  11.906  11.608
53901SOL    HW163600   3.898  11.942  11.586
53901SOL    HW263601   3.823  11.867  11.695
53902SOL     OW63602   9.104  13.266   3.469
53902SOL    HW163603   9.198  13.253   3.483
53902SOL    HW263604   9.078  13.192   3.414
53903SOL     OW63605  11.375  12.325   7.203
53903SOL    HW163606  11.466  12.350   7.217
53903SOL    HW263607  11.352  12.274   7.281
53904SOL     OW63608   1.550  13.424   9.959
53904SOL    HW163609   1.493  13.347   9.954
53904SOL    HW263610   1.599  13.413  10.041
53905SOL     OW63611  12.943  14.486   3.907
53905SOL    HW163612  12.952  14.521   3.995
53905SOL    HW263613  13.022  14.433   3.894
53906SOL     OW63614   0.948   6.540   8.065
53906SOL    HW163615   1.032   6.573   8.096
53906SOL    HW263616   0.887   6.557   8.138
53907SOL     OW63617   7.722   0.016  14.374
53907SOL    HW163618   7.659   0.004  14.445
53907SOL    HW263619   7.669   0.043  14.299
53908SOL     OW63620   7.179   1.220  12.223
53908SOL    HW163621   7.142   1.195  12.139
53908SOL    HW263622   7.255   1.274  12.201
53909SOL     OW63623  11.822   1.162  14.466
53909SOL    HW163624  11.880   1.216  14.412
53909SOL    HW263625  11.880   1.096  14.504
53910SOL     OW63626   2.854  12.853  12.297
53910SOL    HW163627   2.774  12.832  12.346
53910SOL    HW263628   2.823  12.889  12.215
53911SOL     OW63629   8.665   5.539   1.872
53911SOL    HW163630   8.608   5.513   1.944
53911SOL    HW263631   8.613   5.521   1.793
53912SOL     OW63632   4.015   5.883   4.620
53912SOL    HW163633   4.075   5.957   4.607
53912SOL    HW263634   4.040   5.846   4.705
53913SOL     OW63635   4.204   6.623  14.181
53913SOL    HW163636   4.238   6.538  14.152
53913SOL    HW263637   4.274   6.685  14.163
53914SOL     OW63638   0.432   4.607   6.273
53914SOL    HW163639   0.346   4.613   6.314
53914SOL    HW263640   0.492   4.590   6.346
53915SOL     OW63641   1.855  12.904  12.236
53915SOL    HW163642   1.833  12.979  12.182
53915SOL    HW263643   1.890  12.839  12.175
53916SOL     OW63644   4.548   5.534  13.467
53916SOL    HW163645   4.467   5.547  13.418
53916SOL    HW263646   4.586   5.455  13.430
53917SOL     OW63647  10.274  10.303  10.357
53917SOL    HW163648  10.179  10.313  10.365
53917SOL    HW263649  10.307  10.317  10.446
53918SOL     OW63650   3.841  12.570   5.845
53918SOL    HW163651   3.788  12.649   5.858
53918SOL    HW263652   3.916  12.599   5.793
53919SOL     OW63653   2.288   1.673   8.621
53919SOL    HW163654   2.362   1.691   8.678
53919SOL    HW263655   2.253   1.759   8.598
53920SOL     OW63656   7.363   9.949   1.319
53920SOL    HW163657   7.439   9.890   1.312
53920SOL    HW263658   7.399  10.030   1.354
53921SOL     OW63659  12.792   8.412   1.636
53921SOL    HW163660  12.866   8.470   1.650
53921SOL    HW263661  12.768   8.381   1.724
53922SOL     OW63662   0.660   2.519  11.872
53922SOL    HW163663   0.650   2.455  11.943
53922SOL    HW263664   0.574   2.523  11.830
53923SOL     OW63665  14.204   3.974   0.209
53923SOL    HW163666  14.229   3.898   0.156
53923SOL    HW263667  14.108   3.979   0.200
53924SOL     OW63668   2.209  13.054   1.842
53924SOL    HW163669   2.292  13.098   1.860
53924SOL    HW263670   2.192  13.001   1.919
53925SOL     OW63671   5.441   2.009   3.008
53925SOL    HW163672   5.504   1.946   2.972
53925SOL    HW263673   5.481   2.095   2.992
53926SOL     OW63674   7.183   3.783  14.191
53926SOL    HW163675   7.223   3.758  14.108
53926SOL    HW263676   7.089   3.781  14.173
53927SOL     OW63677   0.522   9.589  12.290
53927SOL    HW163678   0.435   9.612  12.323
53927SOL    HW263679   0.582   9.619  12.359
53928SOL     OW63680   1.266   8.637  13.710
53928SOL    HW163681   1.237   8.705  13.649
53928SOL    HW263682   1.362   8.638  13.702
53929SOL     OW63683   7.802   8.090  12.463
53929SOL    HW163684   7.802   8.101  12.558
53929SOL    HW263685   7.870   8.026  12.446
53930SOL     OW63686   0.081  10.990   4.433
53930SOL    HW163687   0.138  11.034   4.371
53930SOL    HW263688   0.003  10.967   4.382
53931SOL     OW63689  11.412   2.212  11.865
53931SOL    HW163690  11.408   2.140  11.802
53931SOL    HW263691  11.504   2.216  11.891
53932SOL     OW63692   9.491   2.441   2.328
53932SOL    HW163693   9.403   2.431   2.366
53932SOL    HW263694   9.505   2.359   2.280
53933SOL     OW63695  12.575  11.589   8.217
53933SOL    HW163696  12.506  11.567   8.279
53933SOL    HW263697  12.561  11.531   8.143
53934SOL     OW63698  10.428   0.432  12.332
53934SOL    HW163699  10.456   0.450  12.422
53934SOL    HW263700  10.434   0.517  12.288
53935SOL     OW63701  13.437  12.712   8.570
53935SOL    HW163702  13.431  12.797   8.613
53935SOL    HW263703  13.446  12.733   8.477
53936SOL     OW63704   4.931   4.116   9.402
53936SOL    HW163705   4.841   4.116   9.370
53936SOL    HW263706   4.964   4.203   9.381
53937SOL     OW63707  10.242   2.363  14.369
53937SOL    HW163708  10.214   2.328  14.284
53937SOL    HW263709  10.165   2.354  14.425
53938SOL     OW63710  13.484   9.047  11.590
53938SOL    HW163711  13.455   9.075  11.503
53938SOL    HW263712  13.571   9.086  11.600
53939SOL     OW63713   1.499  10.826   7.701
53939SOL    HW163714   1.516  10.887   7.772
53939SOL    HW263715   1.555  10.856   7.629
53940SOL     OW63716  13.018   9.696   4.299
53940SOL    HW163717  13.063   9.657   4.224
53940SOL    HW263718  12.974   9.772   4.262
53941SOL     OW63719  14.128  14.516  12.902
53941SOL    HW163720  14.160  14.512  12.992
53941SOL    HW263721  14.174  14.445  12.857
53942SOL     OW63722  14.178  10.441  13.835
53942SOL    HW163723  14.119  10.407  13.768
53942SOL    HW263724  14.119  10.474  13.903
53943SOL     OW63725   7.352   0.334   5.700
53943SOL    HW163726   7.351   0.425   5.671
53943SOL    HW263727   7.360   0.282   5.620
53944SOL     OW63728   6.829   3.493   7.266
53944SOL    HW163729   6.764   3.441   7.314
53944SOL    HW263730   6.909   3.485   7.317
53945SOL     OW63731   3.975   8.894  14.384
53945SOL    HW163732   3.940   8.806  14.401
53945SOL    HW263733   4.060   8.879  14.345
53946SOL     OW63734  14.449  12.409  10.414
53946SOL    HW163735  14.409  12.496  10.423
53946SOL    HW263736  14.397  12.367  10.345
53947SOL     OW63737   7.782   4.227   8.119
53947SOL    HW163738   7.756   4.280   8.044
53947SOL    HW263739   7.840   4.160   8.082
53948SOL     OW63740  13.793   8.546  10.798
53948SOL    HW163741  13.852   8.553  10.873
53948SOL    HW263742  13.849   8.519  10.725
53949SOL     OW63743   5.528   3.863  10.645
53949SOL    HW163744   5.598   3.836  10.586
53949SOL    HW263745   5.447   3.850  10.596
53950SOL     OW63746  12.444   7.923   3.933
53950SOL    HW163747  12.478   7.997   3.984
53950SOL    HW263748  12.423   7.961   3.847
53951SOL     OW63749  13.562  12.840   6.297
53951SOL    HW163750  13.575  12.786   6.375
53951SOL    HW263751  13.643  12.830   6.247
53952SOL     OW63752  10.838   8.061   8.002
53952SOL    HW163753  10.874   8.124   7.939
53952SOL    HW263754  10.744   8.075   7.999
53953SOL     OW63755   7.978  10.027   2.614
53953SOL    HW163756   7.995  10.096   2.678
53953SOL    HW263757   7.940   9.956   2.665
53954SOL     OW63758  13.162  10.294  14.770
53954SOL    HW163759  13.179  10.325  14.859
53954SOL    HW263760  13.093  10.352  14.737
53955SOL     OW63761   6.927   7.540   8.433
53955SOL    HW163762   6.906   7.612   8.374
53955SOL    HW263763   7.017   7.515   8.410
53956SOL     OW63764   3.890   8.038   9.800
53956SOL    HW163765   3.873   7.977   9.872
53956SOL    HW263766   3.985   8.049   9.800
53957SOL     OW63767  12.186   0.434   9.141
53957SOL    HW163768  12.172   0.362   9.079
53957SOL    HW263769  12.214   0.391   9.222
53958SOL     OW63770   7.236  11.150   0.570
53958SOL    HW163771   7.166  11.191   0.621
53958SOL    HW263772   7.214  11.057   0.569
53959SOL     OW63773   0.541  11.547   2.272
53959SOL    HW163774   0.502  11.587   2.349
53959SOL    HW263775   0.485  11.575   2.199
53960SOL     OW63776   1.764   7.129  14.009
53960SOL    HW163777   1.765   7.108  13.915
53960SOL    HW263778   1.709   7.208  14.014
53961SOL     OW63779  13.724  14.846  10.260
53961SOL    HW163780  13.721  14.799  10.176
53961SOL    HW263781  13.767   0.061  10.240
53962SOL     OW63782  14.447  10.585   4.418
53962SOL    HW163783  14.460  10.678   4.437
53962SOL    HW263784  14.524  10.541   4.453
53963SOL     OW63785   0.847  12.629   8.471
53963SOL    HW163786   0.938  12.657   8.480
53963SOL    HW263787   0.826  12.645   8.379
53964SOL     OW63788  13.855  13.124  13.228
53964SOL    HW163789  13.879  13.142  13.319
53964SOL    HW263790  13.938  13.132  13.180
53965SOL     OW63791  11.812   4.545   1.395
53965SOL    HW163792  11.806   4.581   1.483
53965SOL    HW263793  11.725   4.509   1.377
53966SOL     OW63794   6.490   0.570   7.580
53966SOL    HW163795   6.455   0.549   7.494
53966SOL    HW263796   6.550   0.499   7.601
53967SOL     OW63797   0.091  13.364   4.707
53967SOL    HW163798   0.175  13.389   4.746
53967SOL    HW263799   0.115  13.305   4.635
53968SOL     OW63800  12.470  14.181  13.119
53968SOL    HW163801  12.477  14.089  13.148
53968SOL    HW263802  12.560  14.210  13.109
53969SOL     OW63803   8.865   1.744   6.962
53969SOL    HW163804   8.823   1.704   6.886
53969SOL    HW263805   8.957   1.718   6.955
53970SOL     OW63806   1.881   5.186  14.798
53970SOL    HW163807   1.946   5.117  14.783
53970SOL    HW263808   1.900   5.217   0.019
53971SOL     OW63809  12.207   2.965   7.801
53971SOL    HW163810  12.203   2.993   7.892
53971SOL    HW263811  12.161   3.033   7.752
53972SOL     OW63812   2.030   2.561  11.441
53972SOL    HW163813   2.102   2.595  11.494
53972SOL    HW263814   2.049   2.592  11.352
53973SOL     OW63815  12.074   6.549   8.051
53973SOL    HW163816  12.113   6.594   8.127
53973SOL    HW263817  11.980   6.569   8.058
53974SOL     OW63818   8.422  14.548  10.115
53974SOL    HW163819   8.352  14.495  10.077
53974SOL    HW263820   8.402  14.637  10.087
53975SOL     OW63821  10.636   4.231  12.377
53975SOL    HW163822  10.596   4.168  12.317
53975SOL    HW263823  10.658   4.306  12.322
53976SOL     OW63824   7.553  10.597   0.365
53976SOL    HW163825   7.545  10.513   0.410
53976SOL    HW263826   7.597  10.576   0.283
53977SOL     OW63827  11.960   3.126  13.951
53977SOL    HW163828  11.902   3.160  13.883
53977SOL    HW263829  11.945   3.182  14.026
53978SOL     OW63830   2.894   0.385   0.849
53978SOL    HW163831   2.828   0.366   0.782
53978SOL    HW263832   2.867   0.469   0.885
53979SOL     OW63833   7.700   9.305   2.381
53979SOL    HW163834   7.621   9.290   2.433
53979SOL    HW263835   7.772   9.283   2.440
53980SOL     OW63836   3.710   5.614   5.752
53980SOL    HW163837   3.764   5.648   5.824
53980SOL    HW263838   3.765   5.626   5.674
53981SOL     OW63839  12.962  12.241  10.658
53981SOL    HW163840  12.997  12.297  10.728
53981SOL    HW263841  12.970  12.152  10.692
53982SOL     OW63842  10.456  10.266   8.994
53982SOL    HW163843  10.371  10.271   8.952
53982SOL    HW263844  10.480  10.173   8.989
53983SOL     OW63845  10.093   6.521  14.789
53983SOL    HW163846  10.083   6.601  14.737
53983SOL    HW263847  10.004   6.490  14.804
53984SOL     OW63848   0.078   4.480   5.883
53984SOL    HW163849   0.110   4.390   5.893
53984SOL    HW263850   0.154   4.535   5.904
53985SOL     OW63851  10.712   0.135  14.203
53985SOL    HW163852  10.756   0.053  14.229
53985SOL    HW263853  10.735   0.145  14.111
53986SOL     OW63854  11.571  12.205  12.346
53986SOL    HW163855  11.559  12.209  12.251
53986SOL    HW263856  11.632  12.275  12.366
53987SOL     OW63857   1.876   2.966   4.178
53987SOL    HW163858   1.933   3.032   4.219
53987SOL    HW263859   1.874   2.990   4.086
53988SOL     OW63860   6.091  10.957   9.136
53988SOL    HW163861   6.122  10.868   9.124
53988SOL    HW263862   6.121  11.004   9.058
53989SOL     OW63863  11.675   6.917   4.015
53989SOL    HW163864  11.668   6.907   4.110
53989SOL    HW263865  11.769   6.909   3.997
53990SOL     OW63866  10.134   1.385   7.130
53990SOL    HW163867  10.070   1.314   7.124
53990SOL    HW263868  10.101   1.452   7.070
53991SOL     OW63869   0.856  12.145   7.324
53991SOL    HW163870   0.888  12.055   7.337
53991SOL    HW263871   0.862  12.185   7.410
53992SOL     OW63872  14.487  10.891   1.781
53992SOL    HW163873  14.447  10.821   1.832
53992SOL    HW263874  14.428  10.966   1.791
53993SOL     OW63875   0.848  11.518   5.041
53993SOL    HW163876   0.931  11.479   5.013
53993SOL    HW263877   0.813  11.456   5.105
53994SOL     OW63878   5.985   3.523  10.606
53994SOL    HW163879   6.048   3.474  10.552
53994SOL    HW263880   5.949   3.457  10.665
53995SOL     OW63881   9.735  10.266   2.515
53995SOL    HW163882   9.819  10.252   2.472
53995SOL    HW263883   9.703  10.348   2.478
53996SOL     OW63884   6.750   6.944   4.185
53996SOL    HW163885   6.789   7.010   4.242
53996SOL    HW263886   6.758   6.862   4.233
53997SOL     OW63887   8.500   9.977   1.229
53997SOL    HW163888   8.561   9.979   1.302
53997SOL    HW263889   8.433  10.041   1.251
53998SOL     OW63890   4.887   0.321   4.277
53998SOL    HW163891   4.837   0.249   4.315
53998SOL    HW263892   4.946   0.279   4.215
53999SOL     OW63893   8.865   4.704  12.508
53999SOL    HW163894   8.798   4.648  12.547
53999SOL    HW263895   8.888   4.660  12.426
54000SOL     OW63896  14.690  10.270   9.081
54000SOL    HW163897  14.626  10.240   9.145
54000SOL    HW263898  14.773  10.272   9.128
54001SOL     OW63899   8.689   0.692   5.657
54001SOL    HW163900   8.723   0.619   5.708
54001SOL    HW263901   8.682   0.658   5.567
54002SOL     OW63902   0.974  10.652  10.271
54002SOL    HW163903   1.039  10.584  10.288
54002SOL    HW263904   0.993  10.721  10.335
54003SOL     OW63905   8.550   0.813   4.934
54003SOL    HW163906   8.587   0.845   5.016
54003SOL    HW263907   8.500   0.735   4.959
54004SOL     OW63908   0.861   5.046   2.913
54004SOL    HW163909   0.890   5.135   2.891
54004SOL    HW263910   0.870   5.040   3.008
54005SOL     OW63911   3.342  10.408  13.306
54005SOL    HW163912   3.298  10.490  13.329
54005SOL    HW263913   3.351  10.412  13.210
54006SOL     OW63914   5.741   2.917   8.125
54006SOL    HW163915   5.774   2.939   8.038
54006SOL    HW263916   5.661   2.868   8.109
54007SOL     OW63917   6.702   1.154   8.187
54007SOL    HW163918   6.715   1.239   8.145
54007SOL    HW263919   6.616   1.160   8.229
54008SOL     OW63920  14.253   0.463   0.868
54008SOL    HW163921  14.176   0.519   0.883
54008SOL    HW263922  14.256   0.406   0.945
54009SOL     OW63923  11.387   9.797   6.713
54009SOL    HW163924  11.342   9.881   6.700
54009SOL    HW263925  11.467   9.804   6.660
54010SOL     OW63926  13.288  10.079  13.178
54010SOL    HW163927  13.246  10.003  13.138
54010SOL    HW263928  13.372  10.046  13.210
54011SOL     OW63929   5.066   6.197   0.057
54011SOL    HW163930   5.097   6.207   0.147
54011SOL    HW263931   4.976   6.165   0.066
54012SOL     OW63932  13.944   7.336   2.974
54012SOL    HW163933  13.926   7.428   2.952
54012SOL    HW263934  14.036   7.336   3.003
54013SOL     OW63935   1.440   1.417  12.545
54013SOL    HW163936   1.360   1.373  12.576
54013SOL    HW263937   1.420   1.510  12.551
54014SOL     OW63938   0.055   1.450   2.692
54014SOL    HW163939  14.836   1.468   2.729
54014SOL    HW263940   0.067   1.518   2.626
54015SOL     OW63941   8.682   9.252   7.820
54015SOL    HW163942   8.738   9.250   7.897
54015SOL    HW263943   8.727   9.198   7.755
54016SOL     OW63944  10.886   1.404   1.033
54016SOL    HW163945  10.952   1.464   1.067
54016SOL    HW263946  10.809   1.420   1.087
54017SOL     OW63947  13.637   5.874  10.568
54017SOL    HW163948  13.620   5.818  10.644
54017SOL    HW263949  13.605   5.961  10.595
54018SOL     OW63950  10.807   8.120   4.438
54018SOL    HW163951  10.786   8.080   4.353
54018SOL    HW263952  10.856   8.199   4.414
54019SOL     OW63953   6.175   1.211   2.132
54019SOL    HW163954   6.094   1.243   2.093
54019SOL    HW263955   6.218   1.163   2.061
54020SOL     OW63956   6.283   0.372   0.507
54020SOL    HW163957   6.334   0.365   0.587
54020SOL    HW263958   6.206   0.317   0.523
54021SOL     OW63959   2.684   3.262   9.428
54021SOL    HW163960   2.695   3.327   9.359
54021SOL    HW263961   2.630   3.194   9.388
54022SOL     OW63962  10.055  13.292  11.069
54022SOL    HW163963  10.082  13.351  11.139
54022SOL    HW263964  10.074  13.204  11.102
54023SOL     OW63965   4.243   0.186  10.630
54023SOL    HW163966   4.310   0.247  10.662
54023SOL    HW263967   4.228   0.126  10.702
54024SOL     OW63968   2.582  13.053   3.997
54024SOL    HW163969   2.560  12.977   4.050
54024SOL    HW263970   2.671  13.077   4.026
54025SOL     OW63971   5.498   0.621   8.753
54025SOL    HW163972   5.461   0.550   8.805
54025SOL    HW263973   5.582   0.640   8.795
54026SOL     OW63974   5.254   9.247   4.544
54026SOL    HW163975   5.248   9.197   4.463
54026SOL    HW263976   5.165   9.277   4.561
54027SOL     OW63977  11.271  13.208   2.607
54027SOL    HW163978  11.299  13.234   2.695
54027SOL    HW263979  11.351  13.174   2.565
54028SOL     OW63980   6.761   4.297  14.617
54028SOL    HW163981   6.677   4.309  14.572
54028SOL    HW263982   6.789   4.209  14.592
54029SOL     OW63983  14.179   8.084   6.945
54029SOL    HW163984  14.241   8.140   6.990
54029SOL    HW263985  14.232   8.014   6.907
54030SOL     OW63986   6.682   6.234   6.790
54030SOL    HW163987   6.645   6.211   6.876
54030SOL    HW263988   6.691   6.150   6.745
54031SOL     OW63989   3.903   1.581   6.273
54031SOL    HW163990   3.992   1.579   6.241
54031SOL    HW263991   3.897   1.664   6.321
54032SOL     OW63992   9.629   2.063   4.511
54032SOL    HW163993   9.628   1.992   4.575
54032SOL    HW263994   9.719   2.067   4.480
54033SOL     OW63995   6.815   3.810   4.333
54033SOL    HW163996   6.756   3.820   4.259
54033SOL    HW263997   6.894   3.771   4.295
54034SOL     OW63998  13.360   7.820  11.481
54034SOL    HW163999  13.365   7.737  11.433
54034SOL    HW264000  13.413   7.805  11.560
54035SOL     OW64001   1.973   5.797   4.266
54035SOL    HW164002   1.967   5.719   4.321
54035SOL    HW264003   1.927   5.774   4.185
54036SOL     OW64004   1.770   2.947   0.447
54036SOL    HW164005   1.842   2.884   0.448
54036SOL    HW264006   1.805   3.022   0.398
54037SOL     OW64007   0.634  10.200  13.009
54037SOL    HW164008   0.613  10.108  12.994
54037SOL    HW264009   0.727  10.207  12.988
54038SOL     OW64010   9.307   0.837  10.022
54038SOL    HW164011   9.361   0.913  10.042
54038SOL    HW264012   9.338   0.769  10.081
54039SOL     OW64013  14.851   9.664   0.155
54039SOL    HW164014  14.791   9.737   0.168
54039SOL    HW264015  14.837   9.637   0.064
54040SOL     OW64016   2.190   4.997   6.889
54040SOL    HW164017   2.188   4.951   6.805
54040SOL    HW264018   2.226   5.083   6.868
54041SOL     OW64019   9.858  13.354   4.529
54041SOL    HW164020   9.939  13.304   4.531
54041SOL    HW264021   9.864  13.406   4.448
54042SOL     OW64022  13.434   9.371   4.385
54042SOL    HW164023  13.474   9.435   4.444
54042SOL    HW264024  13.343   9.364   4.414
54043SOL     OW64025   1.489   3.778  12.374
54043SOL    HW164026   1.452   3.793  12.461
54043SOL    HW264027   1.437   3.835  12.317
54044SOL     OW64028  12.794   5.628   4.449
54044SOL    HW164029  12.880   5.588   4.436
54044SOL    HW264030  12.737   5.585   4.386
54045SOL     OW64031   9.765   1.156   2.894
54045SOL    HW164032   9.782   1.132   2.803
54045SOL    HW264033   9.734   1.247   2.890
54046SOL     OW64034   6.324   6.505  11.140
54046SOL    HW164035   6.277   6.588  11.143
54046SOL    HW264036   6.256   6.439  11.135
54047SOL     OW64037  11.157   9.282   3.398
54047SOL    HW164038  11.076   9.232   3.402
54047SOL    HW264039  11.136   9.358   3.342
54048SOL     OW64040   6.845   8.211   3.003
54048SOL    HW164041   6.775   8.149   3.023
54048SOL    HW264042   6.802   8.297   3.004
54049SOL     OW64043  13.744  11.275   7.385
54049SOL    HW164044  13.711  11.324   7.461
54049SOL    HW264045  13.667  11.261   7.330
54050SOL     OW64046   9.219   2.401  10.881
54050SOL    HW164047   9.213   2.456  10.804
54050SOL    HW264048   9.268   2.324  10.852
54051SOL     OW64049  14.829   5.388   6.337
54051SOL    HW164050  14.762   5.426   6.394
54051SOL    HW264051  14.803   5.414   6.249
54052SOL     OW64052  10.914   5.744   3.790
54052SOL    HW164053  10.884   5.813   3.731
54052SOL    HW264054  10.974   5.788   3.850
54053SOL     OW64055   6.102  10.278   6.402
54053SOL    HW164056   6.134  10.188   6.391
54053SOL    HW264057   6.070  10.303   6.315
54054SOL     OW64058   8.772  10.341   4.515
54054SOL    HW164059   8.723  10.419   4.543
54054SOL    HW264060   8.844  10.375   4.463
54055SOL     OW64061  10.485   1.935  12.647
54055SOL    HW164062  10.555   1.996  12.673
54055SOL    HW264063  10.530   1.864  12.603
54056SOL     OW64064  12.968  14.640   6.492
54056SOL    HW164065  13.014  14.705   6.439
54056SOL    HW264066  12.965  14.677   6.580
54057SOL     OW64067   9.020  12.022  13.065
54057SOL    HW164068   8.974  12.064  13.138
54057SOL    HW264069   8.956  11.959  13.030
54058SOL     OW64070  12.499  14.550  10.210
54058SOL    HW164071  12.496  14.479  10.146
54058SOL    HW264072  12.440  14.616  10.175
54059SOL     OW64073  12.420  10.717  14.500
54059SOL    HW164074  12.441  10.671  14.582
54059SOL    HW264075  12.495  10.701  14.444
54060SOL     OW64076   2.774   1.482  14.738
54060SOL    HW164077   2.836   1.447  14.674
54060SOL    HW264078   2.825   1.490  14.819
54061SOL     OW64079   8.509  12.825  13.214
54061SOL    HW164080   8.479  12.916  13.213
54061SOL    HW264081   8.578  12.823  13.280
54062SOL     OW64082   1.657   9.774  13.704
54062SOL    HW164083   1.600   9.850  13.717
54062SOL    HW264084   1.600   9.709  13.662
54063SOL     OW64085  12.452   2.432   2.646
54063SOL    HW164086  12.488   2.416   2.733
54063SOL    HW264087  12.518   2.485   2.602
54064SOL     OW64088   9.913  10.003   5.216
54064SOL    HW164089   9.941   9.923   5.172
54064SOL    HW264090   9.908  10.068   5.145
54065SOL     OW64091   0.453  14.739  11.571
54065SOL    HW164092   0.424  14.792  11.497
54065SOL    HW264093   0.546  14.758  11.579
54066SOL     OW64094   0.279   3.738   8.439
54066SOL    HW164095   0.314   3.650   8.422
54066SOL    HW264096   0.186   3.724   8.455
54067SOL     OW64097   0.607   1.394  10.555
54067SOL    HW164098   0.681   1.380  10.497
54067SOL    HW264099   0.548   1.322  10.537
54068SOL     OW64100  14.774   3.376  10.828
54068SOL    HW164101  14.704   3.431  10.865
54068SOL    HW264102  14.735   3.289  10.822
54069SOL     OW64103   4.326   9.050  12.456
54069SOL    HW164104   4.331   9.044  12.361
54069SOL    HW264105   4.282   9.134  12.473
54070SOL     OW64106   1.371  13.725   3.000
54070SOL    HW164107   1.392  13.682   2.916
54070SOL    HW264108   1.382  13.656   3.065
54071SOL     OW64109   4.078  10.543   3.630
54071SOL    HW164110   4.161  10.504   3.605
54071SOL    HW264111   4.027  10.546   3.549
54072SOL     OW64112   2.128  14.619  11.996
54072SOL    HW164113   2.222  14.639  11.988
54072SOL    HW264114   2.110  14.558  11.925
54073SOL     OW64115  11.675   7.828   9.911
54073SOL    HW164116  11.708   7.863   9.994
54073SOL    HW264117  11.580   7.827   9.922
54074SOL     OW64118   8.138   9.240   8.415
54074SOL    HW164119   8.189   9.283   8.483
54074SOL    HW264120   8.103   9.312   8.362
54075SOL     OW64121  10.947   8.242   7.837
54075SOL    HW164122  10.937   8.337   7.836
54075SOL    HW264123  11.022   8.225   7.779
54076SOL     OW64124   4.209   9.701   3.883
54076SOL    HW164125   4.138   9.751   3.924
54076SOL    HW264126   4.287   9.757   3.894
54077SOL     OW64127   8.017   0.187   1.355
54077SOL    HW164128   8.051   0.272   1.382
54077SOL    HW264129   8.029   0.131   1.431
54078SOL     OW64130   4.583   4.922  12.042
54078SOL    HW164131   4.640   4.852  12.075
54078SOL    HW264132   4.510   4.875  12.001
54079SOL     OW64133   1.305   3.374  10.588
54079SOL    HW164134   1.241   3.441  10.565
54079SOL    HW264135   1.364   3.418  10.650
54080SOL     OW64136   9.440  14.110   6.810
54080SOL    HW164137   9.510  14.143   6.866
54080SOL    HW264138   9.446  14.163   6.731
54081SOL     OW64139   0.358  12.458   0.077
54081SOL    HW164140   0.432  12.437   0.134
54081SOL    HW264141   0.346  12.380   0.023
54082SOL     OW64142  10.703   2.018   5.538
54082SOL    HW164143  10.743   2.050   5.457
54082SOL    HW264144  10.739   2.075   5.606
54083SOL     OW64145   7.970   2.347   4.967
54083SOL    HW164146   8.045   2.398   4.996
54083SOL    HW264147   8.007   2.263   4.938
54084SOL     OW64148  14.734  10.251  10.003
54084SOL    HW164149  14.819  10.239  10.045
54084SOL    HW264150  14.671  10.254  10.075
54085SOL     OW64151  13.633   3.075   8.401
54085SOL    HW164152  13.607   3.084   8.309
54085SOL    HW264153  13.650   2.981   8.412
54086SOL     OW64154   7.964   2.745   5.013
54086SOL    HW164155   8.003   2.684   4.950
54086SOL    HW264156   7.993   2.832   4.983
54087SOL     OW64157   6.765   4.958  12.618
54087SOL    HW164158   6.823   5.023  12.577
54087SOL    HW264159   6.742   4.899  12.547
54088SOL     OW64160  12.855   4.395   4.423
54088SOL    HW164161  12.840   4.336   4.497
54088SOL    HW264162  12.950   4.406   4.419
54089SOL     OW64163  13.847  11.778  11.738
54089SOL    HW164164  13.909  11.806  11.806
54089SOL    HW264165  13.775  11.737  11.787
54090SOL     OW64166  10.475  11.507   1.252
54090SOL    HW164167  10.485  11.588   1.202
54090SOL    HW264168  10.564  11.481   1.275
54091SOL     OW64169   8.375  13.824   8.559
54091SOL    HW164170   8.463  13.804   8.591
54091SOL    HW264171   8.331  13.864   8.634
54092SOL     OW64172  11.282   1.776  14.122
54092SOL    HW164173  11.290   1.711  14.192
54092SOL    HW264174  11.189   1.773  14.097
54093SOL     OW64175  13.677  11.992  12.986
54093SOL    HW164176  13.698  12.085  12.976
54093SOL    HW264177  13.746  11.957  13.042
54094SOL     OW64178   7.624   1.076   9.475
54094SOL    HW164179   7.677   1.153   9.494
54094SOL    HW264180   7.562   1.070   9.549
54095SOL     OW64181   1.756   7.098   5.883
54095SOL    HW164182   1.837   7.127   5.842
54095SOL    HW264183   1.738   7.013   5.843
54096SOL     OW64184   6.793   2.123  12.390
54096SOL    HW164185   6.724   2.132  12.456
54096SOL    HW264186   6.870   2.165  12.428
54097SOL     OW64187   1.764   1.496   9.335
54097SOL    HW164188   1.858   1.481   9.329
54097SOL    HW264189   1.742   1.474   9.425
54098SOL     OW64190   6.372   3.298  12.914
54098SOL    HW164191   6.409   3.372  12.962
54098SOL    HW264192   6.437   3.229  12.922
54099SOL     OW64193   6.334   0.889  13.655
54099SOL    HW164194   6.348   0.977  13.690
54099SOL    HW264195   6.298   0.903  13.568
54100SOL     OW64196   3.138   0.768   7.930
54100SOL    HW164197   3.067   0.822   7.895
54100SOL    HW264198   3.199   0.757   7.857
54101SOL     OW64199   2.210   0.122   2.793
54101SOL    HW164200   2.133   0.163   2.832
54101SOL    HW264201   2.206   0.031   2.822
54102SOL     OW64202   7.728   1.249   8.141
54102SOL    HW164203   7.774   1.206   8.214
54102SOL    HW264204   7.760   1.204   8.063
54103SOL     OW64205   4.684   3.825  11.560
54103SOL    HW164206   4.738   3.904  11.554
54103SOL    HW264207   4.601   3.848  11.518
54104SOL     OW64208   8.640   9.201  11.747
54104SOL    HW164209   8.563   9.212  11.803
54104SOL    HW264210   8.660   9.289  11.716
54105SOL     OW64211   8.365   3.409   3.978
54105SOL    HW164212   8.278   3.422   4.015
54105SOL    HW264213   8.352   3.347   3.907
54106SOL     OW64214   0.351   4.565   9.709
54106SOL    HW164215   0.316   4.478   9.729
54106SOL    HW264216   0.349   4.612   9.792
54107SOL     OW64217   6.146   8.597   2.592
54107SOL    HW164218   6.139   8.640   2.507
54107SOL    HW264219   6.131   8.667   2.656
54108SOL     OW64220   0.822   0.273  11.326
54108SOL    HW164221   0.733   0.297  11.301
54108SOL    HW264222   0.874   0.291  11.247
54109SOL     OW64223   8.410   5.046   8.195
54109SOL    HW164224   8.433   5.099   8.118
54109SOL    HW264225   8.382   5.110   8.261
54110SOL     OW64226   4.804   3.497   1.587
54110SOL    HW164227   4.821   3.434   1.518
54110SOL    HW264228   4.726   3.545   1.558
54111SOL     OW64229   8.048   3.333   0.142
54111SOL    HW164230   8.105   3.264   0.109
54111SOL    HW264231   8.084   3.413   0.102
54112SOL     OW64232   3.420  12.119   9.070
54112SOL    HW164233   3.351  12.171   9.112
54112SOL    HW264234   3.502  12.160   9.099
54113SOL     OW64235  11.855   7.706  10.928
54113SOL    HW164236  11.865   7.728  11.020
54113SOL    HW264237  11.797   7.774  10.893
54114SOL     OW64238  11.240   4.687   3.500
54114SOL    HW164239  11.330   4.719   3.497
54114SOL    HW264240  11.188   4.761   3.470
54115SOL     OW64241  14.193   7.162  10.371
54115SOL    HW164242  14.274   7.135  10.328
54115SOL    HW264243  14.208   7.146  10.464
54116SOL     OW64244  12.959   7.355   9.361
54116SOL    HW164245  12.916   7.365   9.276
54116SOL    HW264246  13.036   7.301   9.343
54117SOL     OW64247   7.036  11.074  14.691
54117SOL    HW164248   7.042  11.167  14.713
54117SOL    HW264249   7.017  11.030  14.775
54118SOL     OW64250   3.914  14.731   0.907
54118SOL    HW164251   3.831  14.739   0.861
54118SOL    HW264252   3.891  14.697   0.993
54119SOL     OW64253   8.709   7.888  12.081
54119SOL    HW164254   8.711   7.981  12.101
54119SOL    HW264255   8.640   7.879  12.015
54120SOL     OW64256   5.242   9.630   9.905
54120SOL    HW164257   5.169   9.603   9.961
54120SOL    HW264258   5.248   9.561   9.838
54121SOL     OW64259   4.685   0.653  13.903
54121SOL    HW164260   4.714   0.562  13.899
54121SOL    HW264261   4.637   0.667  13.822
54122SOL     OW64262   8.849   7.026   7.221
54122SOL    HW164263   8.782   7.025   7.154
54122SOL    HW264264   8.919   7.080   7.185
54123SOL     OW64265  10.020  12.282  10.090
54123SOL    HW164266   9.995  12.209  10.033
54123SOL    HW264267  10.109  12.304  10.063
54124SOL     OW64268   6.235  13.456   1.891
54124SOL    HW164269   6.182  13.452   1.970
54124SOL    HW264270   6.269  13.367   1.881
54125SOL     OW64271   7.739   8.940   3.776
54125SOL    HW164272   7.661   8.975   3.820
54125SOL    HW264273   7.776   9.014   3.729
54126SOL     OW64274   2.645   6.355   1.564
54126SOL    HW164275   2.705   6.403   1.621
54126SOL    HW264276   2.559   6.366   1.605
54127SOL     OW64277   1.216  13.417   7.831
54127SOL    HW164278   1.157  13.446   7.901
54127SOL    HW264279   1.287  13.481   7.831
54128SOL     OW64280  13.434   9.478  13.447
54128SOL    HW164281  13.474   9.455  13.364
54128SOL    HW264282  13.496   9.447  13.513
54129SOL     OW64283   0.082   6.638  10.799
54129SOL    HW164284  14.867   6.644  10.752
54129SOL    HW264285   0.089   6.545  10.821
54130SOL     OW64286   8.408  12.381  14.040
54130SOL    HW164287   8.314  12.362  14.041
54130SOL    HW264288   8.434  12.378  14.132
54131SOL     OW64289   1.592   2.629  10.592
54131SOL    HW164290   1.650   2.672  10.654
54131SOL    HW264291   1.564   2.699  10.533
54132SOL     OW64292   5.857  10.341   8.787
54132SOL    HW164293   5.913  10.349   8.710
54132SOL    HW264294   5.821  10.429   8.799
54133SOL     OW64295  11.283  10.029   5.615
54133SOL    HW164296  11.378  10.038   5.603
54133SOL    HW264297  11.255  10.116   5.643
54134SOL     OW64298  10.825   3.379   6.137
54134SOL    HW164299  10.854   3.437   6.207
54134SOL    HW264300  10.766   3.432   6.084
54135SOL     OW64301   1.069  12.870  12.686
54135SOL    HW164302   1.001  12.921  12.642
54135SOL    HW264303   1.034  12.853  12.773
54136SOL     OW64304  10.341  10.591   8.585
54136SOL    HW164305  10.289  10.666   8.612
54136SOL    HW264306  10.381  10.617   8.502
54137SOL     OW64307  11.961   6.304  14.377
54137SOL    HW164308  11.961   6.278  14.285
54137SOL    HW264309  11.930   6.226  14.424
54138SOL     OW64310   9.552   6.565  12.513
54138SOL    HW164311   9.636   6.580  12.470
54138SOL    HW264312   9.575   6.525  12.597
54139SOL     OW64313   3.993  11.015   3.765
54139SOL    HW164314   3.960  11.100   3.794
54139SOL    HW264315   4.067  10.996   3.823
54140SOL     OW64316   3.421   1.956   2.139
54140SOL    HW164317   3.460   2.044   2.142
54140SOL    HW264318   3.345   1.962   2.197
54141SOL     OW64319   8.631   1.549  14.631
54141SOL    HW164320   8.648   1.492  14.706
54141SOL    HW264321   8.551   1.596  14.655
54142SOL     OW64322   3.786   1.211  12.932
54142SOL    HW164323   3.786   1.230  13.026
54142SOL    HW264324   3.808   1.118  12.927
54143SOL     OW64325   5.460   2.706  12.522
54143SOL    HW164326   5.374   2.730  12.557
54143SOL    HW264327   5.496   2.787  12.486
54144SOL     OW64328   2.977   1.810   5.969
54144SOL    HW164329   2.884   1.793   5.957
54144SOL    HW264330   3.020   1.762   5.897
54145SOL     OW64331   9.244  10.567  12.408
54145SOL    HW164332   9.225  10.617  12.329
54145SOL    HW264333   9.338  10.547  12.401
54146SOL     OW64334  12.822  10.014   1.789
54146SOL    HW164335  12.728  10.001   1.776
54146SOL    HW264336  12.859  10.005   1.701
54147SOL     OW64337   0.136   2.626   8.232
54147SOL    HW164338   0.151   2.552   8.172
54147SOL    HW264339   0.067   2.678   8.190
54148SOL     OW64340   1.098   7.687   2.190
54148SOL    HW164341   1.148   7.667   2.269
54148SOL    HW264342   1.101   7.606   2.139
54149SOL     OW64343   6.404   4.619   4.968
54149SOL    HW164344   6.408   4.701   4.919
54149SOL    HW264345   6.372   4.643   5.054
54150SOL     OW64346   5.259  10.396   6.483
54150SOL    HW164347   5.171  10.409   6.448
54150SOL    HW264348   5.278  10.304   6.465
54151SOL     OW64349   3.989   2.456   6.858
54151SOL    HW164350   3.903   2.477   6.895
54151SOL    HW264351   4.040   2.537   6.869
54152SOL     OW64352   8.584   8.884   5.267
54152SOL    HW164353   8.633   8.958   5.230
54152SOL    HW264354   8.543   8.920   5.346
54153SOL     OW64355   7.162   6.862   9.620
54153SOL    HW164356   7.104   6.793   9.654
54153SOL    HW264357   7.127   6.881   9.533
54154SOL     OW64358   2.056   1.832   2.569
54154SOL    HW164359   2.095   1.751   2.535
54154SOL    HW264360   2.007   1.804   2.647
54155SOL     OW64361   8.705   6.674   0.604
54155SOL    HW164362   8.799   6.660   0.609
54155SOL    HW264363   8.676   6.678   0.695
54156SOL     OW64364   2.670   7.206   9.231
54156SOL    HW164365   2.650   7.299   9.221
54156SOL    HW264366   2.707   7.198   9.319
54157SOL     OW64367   1.427  12.184  10.640
54157SOL    HW164368   1.502  12.244  10.633
54157SOL    HW264369   1.352  12.241  10.654
54158SOL     OW64370   6.550  10.236   4.534
54158SOL    HW164371   6.635  10.278   4.550
54158SOL    HW264372   6.505  10.240   4.619
54159SOL     OW64373  10.111   0.583   5.645
54159SOL    HW164374  10.134   0.668   5.606
54159SOL    HW264375  10.117   0.599   5.740
54160SOL     OW64376  10.012   9.971  14.475
54160SOL    HW164377  10.024  10.053  14.426
54160SOL    HW264378   9.917   9.966  14.489
54161SOL     OW64379   7.995   2.705   3.757
54161SOL    HW164380   8.048   2.625   3.763
54161SOL    HW264381   7.979   2.730   3.848
54162SOL     OW64382   8.427   8.203   9.099
54162SOL    HW164383   8.333   8.203   9.116
54162SOL    HW264384   8.444   8.290   9.063
54163SOL     OW64385   1.628   3.089  12.002
54163SOL    HW164386   1.702   3.087  12.061
54163SOL    HW264387   1.657   3.040  11.925
54164SOL     OW64388   7.356  10.825   0.817
54164SOL    HW164389   7.426  10.764   0.839
54164SOL    HW264390   7.375  10.852   0.728
54165SOL     OW64391  12.864   5.712   2.688
54165SOL    HW164392  12.828   5.694   2.775
54165SOL    HW264393  12.894   5.627   2.657
54166SOL     OW64394  12.676   8.496   0.956
54166SOL    HW164395  12.677   8.553   1.033
54166SOL    HW264396  12.767   8.471   0.943
54167SOL     OW64397   2.731   0.398  13.833
54167SOL    HW164398   2.700   0.346  13.759
54167SOL    HW264399   2.679   0.479  13.829
54168SOL     OW64400  14.633   1.359   7.764
54168SOL    HW164401  14.596   1.444   7.740
54168SOL    HW264402  14.725   1.363   7.739
54169SOL     OW64403   2.469  14.682  11.715
54169SOL    HW164404   2.429  14.681  11.802
54169SOL    HW264405   2.397  14.702  11.656
54170SOL     OW64406   5.395   2.979   1.835
54170SOL    HW164407   5.445   2.944   1.909
54170SOL    HW264408   5.318   3.019   1.874
54171SOL     OW64409   6.078  10.278  12.803
54171SOL    HW164410   6.022  10.259  12.878
54171SOL    HW264411   6.023  10.332  12.745
54172SOL     OW64412  14.061   1.887  10.514
54172SOL    HW164413  14.136   1.828  10.520
54172SOL    HW264414  14.088   1.966  10.560
54173SOL     OW64415   3.657   6.886   2.038
54173SOL    HW164416   3.676   6.842   1.955
54173SOL    HW264417   3.573   6.851   2.065
54174SOL     OW64418   0.617   1.969  11.445
54174SOL    HW164419   0.624   1.887  11.493
54174SOL    HW264420   0.525   1.973  11.417
54175SOL     OW64421   6.931   8.842   3.178
54175SOL    HW164422   6.862   8.844   3.244
54175SOL    HW264423   7.011   8.862   3.226
54176SOL     OW64424   9.724  14.183   5.910
54176SOL    HW164425   9.804  14.203   5.862
54176SOL    HW264426   9.653  14.203   5.847
54177SOL     OW64427   3.967   1.812   9.278
54177SOL    HW164428   4.022   1.847   9.348
54177SOL    HW264429   3.913   1.745   9.321
54178SOL     OW64430   9.106  11.827   2.765
54178SOL    HW164431   9.036  11.876   2.723
54178SOL    HW264432   9.063  11.774   2.831
54179SOL     OW64433   1.943   3.238   9.436
54179SOL    HW164434   1.956   3.268   9.526
54179SOL    HW264435   2.032   3.236   9.399
54180SOL     OW64436  13.696   0.349  11.947
54180SOL    HW164437  13.670   0.391  11.865
54180SOL    HW264438  13.791   0.340  11.939
54181SOL     OW64439  10.808  12.445   1.847
54181SOL    HW164440  10.867  12.379   1.882
54181SOL    HW264441  10.865  12.505   1.798
54182SOL     OW64442  13.969  12.362  12.085
54182SOL    HW164443  13.949  12.389  11.996
54182SOL    HW264444  13.910  12.288  12.102
54183SOL     OW64445   0.489   1.513   2.406
54183SOL    HW164446   0.418   1.492   2.467
54183SOL    HW264447   0.566   1.524   2.463
54184SOL     OW64448   3.241   4.532   3.181
54184SOL    HW164449   3.330   4.545   3.211
54184SOL    HW264450   3.250   4.511   3.088
54185SOL     OW64451  14.015   3.136   9.696
54185SOL    HW164452  13.975   3.079   9.631
54185SOL    HW264453  14.099   3.162   9.658
54186SOL     OW64454  13.674   8.018  14.357
54186SOL    HW164455  13.670   7.976  14.443
54186SOL    HW264456  13.620   8.096  14.366
54187SOL     OW64457   4.793   0.784   8.101
54187SOL    HW164458   4.774   0.866   8.148
54187SOL    HW264459   4.874   0.752   8.141
54188SOL     OW64460  14.655  10.349   1.514
54188SOL    HW164461  14.711  10.275   1.538
54188SOL    HW264462  14.692  10.423   1.562
54189SOL     OW64463   9.558   0.212  12.819
54189SOL    HW164464   9.516   0.297  12.808
54189SOL    HW264465   9.605   0.220  12.902
54190SOL     OW64466  12.690  14.756   3.994
54190SOL    HW164467  12.651  14.716   3.915
54190SOL    HW264468  12.615  14.790   4.042
54191SOL     OW64469  11.037   9.166   6.318
54191SOL    HW164470  11.128   9.161   6.348
54191SOL    HW264471  11.043   9.157   6.223
54192SOL     OW64472   7.245   4.867  11.340
54192SOL    HW164473   7.201   4.866  11.425
54192SOL    HW264474   7.203   4.796  11.291
54193SOL     OW64475   3.871  13.757   4.328
54193SOL    HW164476   3.928  13.832   4.315
54193SOL    HW264477   3.930  13.685   4.351
54194SOL     OW64478   2.022   7.068  13.954
54194SOL    HW164479   1.989   7.032  13.872
54194SOL    HW264480   1.944   7.099  14.000
54195SOL     OW64481   5.628   4.294   2.343
54195SOL    HW164482   5.645   4.388   2.342
54195SOL    HW264483   5.558   4.283   2.408
54196SOL     OW64484   7.219  10.467   7.263
54196SOL    HW164485   7.309  10.445   7.285
54196SOL    HW264486   7.169  10.447   7.342
54197SOL     OW64487  13.804  13.611   2.822
54197SOL    HW164488  13.854  13.614   2.903
54197SOL    HW264489  13.787  13.518   2.808
54198SOL     OW64490   7.427   4.243   8.692
54198SOL    HW164491   7.411   4.286   8.776
54198SOL    HW264492   7.487   4.171   8.712
54199SOL     OW64493  14.865  11.317  12.814
54199SOL    HW164494   0.057  11.242  12.819
54199SOL    HW264495  14.780  11.279  12.795
54200SOL     OW64496   9.334   4.718  13.047
54200SOL    HW164497   9.379   4.679  13.122
54200SOL    HW264498   9.379   4.680  12.971
54201SOL     OW64499   3.121  14.762   9.592
54201SOL    HW164500   3.107  14.817   9.670
54201SOL    HW264501   3.102  14.821   9.518
54202SOL     OW64502  12.505  13.279  14.004
54202SOL    HW164503  12.484  13.369  14.031
54202SOL    HW264504  12.513  13.284  13.909
54203SOL     OW64505  11.005   2.840   9.672
54203SOL    HW164506  11.024   2.924   9.713
54203SOL    HW264507  10.971   2.786   9.743
54204SOL     OW64508   5.349  13.926  10.349
54204SOL    HW164509   5.327  13.971  10.431
54204SOL    HW264510   5.444  13.921  10.348
54205SOL     OW64511   2.057   6.222   2.345
54205SOL    HW164512   1.967   6.198   2.323
54205SOL    HW264513   2.111   6.171   2.285
54206SOL     OW64514   8.003   7.502  14.277
54206SOL    HW164515   7.977   7.463  14.360
54206SOL    HW264516   7.984   7.595  14.288
54207SOL     OW64517  13.795  11.067   6.152
54207SOL    HW164518  13.809  11.120   6.073
54207SOL    HW264519  13.863  11.097   6.213
54208SOL     OW64520  10.479  13.946  14.348
54208SOL    HW164521  10.506  13.950  14.256
54208SOL    HW264522  10.384  13.959  14.345
54209SOL     OW64523   5.243  13.772  11.272
54209SOL    HW164524   5.206  13.683  11.276
54209SOL    HW264525   5.189  13.823  11.332
54210SOL     OW64526  10.504   1.581  11.160
54210SOL    HW164527  10.553   1.534  11.228
54210SOL    HW264528  10.500   1.520  11.087
54211SOL     OW64529   7.864   4.743   1.393
54211SOL    HW164530   7.876   4.786   1.308
54211SOL    HW264531   7.942   4.766   1.443
54212SOL     OW64532  14.137  13.701  10.533
54212SOL    HW164533  14.225  13.725  10.561
54212SOL    HW264534  14.080  13.734  10.603
54213SOL     OW64535   9.869   3.326   7.623
54213SOL    HW164536   9.940   3.267   7.597
54213SOL    HW264537   9.795   3.269   7.642
54214SOL     OW64538  12.364  11.485   8.360
54214SOL    HW164539  12.315  11.476   8.278
54214SOL    HW264540  12.297  11.487   8.428
54215SOL     OW64541  11.524   2.957   0.137
54215SOL    HW164542  11.550   3.041   0.174
54215SOL    HW264543  11.463   2.920   0.201
54216SOL     OW64544   3.603  10.307  11.159
54216SOL    HW164545   3.582  10.294  11.067
54216SOL    HW264546   3.690  10.348  11.158
54217SOL     OW64547   3.883   2.234   0.730
54217SOL    HW164548   3.935   2.311   0.707
54217SOL    HW264549   3.891   2.228   0.825
54218SOL     OW64550  11.370  14.072  11.054
54218SOL    HW164551  11.304  14.037  11.114
54218SOL    HW264552  11.353  14.028  10.971
54219SOL     OW64553   0.587   6.671   9.588
54219SOL    HW164554   0.529   6.632   9.522
54219SOL    HW264555   0.560   6.763   9.591
54220SOL     OW64556   9.816   8.782   1.903
54220SOL    HW164557   9.909   8.763   1.917
54220SOL    HW264558   9.793   8.843   1.973
54221SOL     OW64559   9.803   5.304   9.011
54221SOL    HW164560   9.799   5.399   9.021
54221SOL    HW264561   9.897   5.283   9.016
54222SOL     OW64562  10.931   3.504   6.372
54222SOL    HW164563  10.943   3.599   6.381
54222SOL    HW264564  10.881   3.478   6.449
54223SOL     OW64565  10.475   1.940   1.322
54223SOL    HW164566  10.411   1.967   1.388
54223SOL    HW264567  10.473   2.011   1.257
54224SOL     OW64568   4.035   4.232   2.270
54224SOL    HW164569   4.125   4.251   2.246
54224SOL    HW264570   4.038   4.144   2.308
54225SOL     OW64571   6.333  12.668   1.301
54225SOL    HW164572   6.320  12.718   1.381
54225SOL    HW264573   6.376  12.729   1.241
54226SOL     OW64574   3.052   4.288   7.775
54226SOL    HW164575   2.983   4.274   7.840
54226SOL    HW264576   3.008   4.282   7.690
54227SOL     OW64577   0.550   3.000   4.211
54227SOL    HW164578   0.620   3.051   4.170
54227SOL    HW264579   0.517   3.056   4.281
54228SOL     OW64580   2.923   0.643   0.535
54228SOL    HW164581   2.839   0.599   0.519
54228SOL    HW264582   2.914   0.728   0.491
54229SOL     OW64583  12.545  13.348  12.894
54229SOL    HW164584  12.477  13.318  12.954
54229SOL    HW264585  12.533  13.443  12.890
54230SOL     OW64586  10.258   2.841   9.150
54230SOL    HW164587  10.197   2.911   9.126
54230SOL    HW264588  10.344   2.876   9.127
54231SOL     OW64589  14.061  10.759   1.877
54231SOL    HW164590  13.968  10.737   1.876
54231SOL    HW264591  14.074  10.809   1.797
54232SOL     OW64592  12.593   0.397  11.466
54232SOL    HW164593  12.631   0.470  11.515
54232SOL    HW264594  12.534   0.438  11.403
54233SOL     OW64595   0.130   8.869   0.487
54233SOL    HW164596   0.103   8.873   0.395
54233SOL    HW264597   0.220   8.836   0.485
54234SOL     OW64598  12.824   1.474  12.974
54234SOL    HW164599  12.769   1.503  12.901
54234SOL    HW264600  12.762   1.454  13.043
54235SOL     OW64601   0.447   0.107   5.093
54235SOL    HW164602   0.366   0.059   5.073
54235SOL    HW264603   0.424   0.198   5.080
54236SOL     OW64604  14.217   8.716   2.310
54236SOL    HW164605  14.276   8.789   2.291
54236SOL    HW264606  14.247   8.645   2.253
54237SOL     OW64607   1.660   2.217   0.372
54237SOL    HW164608   1.636   2.173   0.290
54237SOL    HW264609   1.748   2.250   0.358
54238SOL     OW64610   2.615   2.887   7.225
54238SOL    HW164611   2.607   2.832   7.303
54238SOL    HW264612   2.586   2.830   7.153
54239SOL     OW64613  12.374   2.489  13.169
54239SOL    HW164614  12.309   2.505  13.237
54239SOL    HW264615  12.419   2.410  13.198
54240SOL     OW64616   2.789   9.243   6.315
54240SOL    HW164617   2.796   9.295   6.396
54240SOL    HW264618   2.774   9.308   6.246
54241SOL     OW64619   7.469  13.780  10.801
54241SOL    HW164620   7.432  13.706  10.847
54241SOL    HW264621   7.537  13.814  10.860
54242SOL     OW64622   2.038   0.806   8.363
54242SOL    HW164623   2.100   0.736   8.344
54242SOL    HW264624   1.953   0.764   8.361
54243SOL     OW64625  13.836   6.391   7.211
54243SOL    HW164626  13.894   6.467   7.220
54243SOL    HW264627  13.847   6.344   7.294
54244SOL     OW64628   1.917  14.045  13.000
54244SOL    HW164629   1.855  14.100  12.952
54244SOL    HW264630   2.000  14.092  12.993
54245SOL     OW64631  10.500  12.421  14.863
54245SOL    HW164632  10.451  12.340   0.007
54245SOL    HW264633  10.488  12.443  14.771
54246SOL     OW64634  10.046   7.373   8.998
54246SOL    HW164635   9.961   7.358   9.040
54246SOL    HW264636  10.075   7.457   9.033
54247SOL     OW64637  12.808  10.489   2.411
54247SOL    HW164638  12.723  10.473   2.371
54247SOL    HW264639  12.809  10.582   2.432
54248SOL     OW64640  11.212   7.377  13.523
54248SOL    HW164641  11.126   7.408  13.550
54248SOL    HW264642  11.254   7.347  13.604
54249SOL     OW64643   3.635  14.848   8.142
54249SOL    HW164644   3.567  14.837   8.075
54249SOL    HW264645   3.715  14.866   8.092
54250SOL     OW64646   9.128   4.001  10.886
54250SOL    HW164647   9.032   3.998  10.893
54250SOL    HW264648   9.157   3.926  10.938
54251SOL     OW64649   3.223   1.773  13.866
54251SOL    HW164650   3.145   1.781  13.921
54251SOL    HW264651   3.212   1.840  13.798
54252SOL     OW64652   1.316   4.332  14.593
54252SOL    HW164653   1.288   4.259  14.538
54252SOL    HW264654   1.400   4.359  14.555
54253SOL     OW64655  13.828   4.668   9.516
54253SOL    HW164656  13.876   4.628   9.590
54253SOL    HW264657  13.889   4.733   9.481
54254SOL     OW64658   9.361   4.237   7.107
54254SOL    HW164659   9.316   4.298   7.165
54254SOL    HW264660   9.293   4.176   7.078
54255SOL     OW64661   0.917  14.853   5.415
54255SOL    HW164662   0.913   0.063   5.359
54255SOL    HW264663   0.839  14.803   5.393
54256SOL     OW64664   1.875  13.457  10.865
54256SOL    HW164665   1.789  13.444  10.825
54256SOL    HW264666   1.857  13.506  10.945
54257SOL     OW64667   0.866  11.831   3.720
54257SOL    HW164668   0.910  11.905   3.761
54257SOL    HW264669   0.898  11.754   3.768
54258SOL     OW64670   7.833  14.699   2.142
54258SOL    HW164671   7.820  14.607   2.119
54258SOL    HW264672   7.804  14.705   2.233
54259SOL     OW64673  13.922   8.872   8.189
54259SOL    HW164674  13.927   8.783   8.223
54259SOL    HW264675  13.954   8.927   8.261
54260SOL     OW64676   6.002  13.752  11.648
54260SOL    HW164677   5.996  13.744  11.553
54260SOL    HW264678   5.929  13.809  11.672
54261SOL     OW64679   6.276   4.236   3.620
54261SOL    HW164680   6.233   4.310   3.663
54261SOL    HW264681   6.272   4.257   3.527
54262SOL     OW64682   8.797   6.531   1.182
54262SOL    HW164683   8.871   6.472   1.166
54262SOL    HW264684   8.824   6.583   1.258
54263SOL     OW64685   6.620  14.531   5.034
54263SOL    HW164686   6.702  14.579   5.019
54263SOL    HW264687   6.569  14.545   4.954
54264SOL     OW64688  14.190  13.177   9.192
54264SOL    HW164689  14.207  13.271   9.196
54264SOL    HW264690  14.101  13.168   9.227
54265SOL     OW64691  14.792   7.177  11.974
54265SOL    HW164692  14.743   7.238  11.919
54265SOL    HW264693  14.867   7.151  11.921
54266SOL     OW64694   5.595   0.966   3.792
54266SOL    HW164695   5.619   1.053   3.760
54266SOL    HW264696   5.660   0.945   3.858
54267SOL     OW64697   7.486   3.995  11.109
54267SOL    HW164698   7.564   3.949  11.139
54267SOL    HW264699   7.416   3.930  11.113
54268SOL     OW64700   9.648   7.917  11.703
54268SOL    HW164701   9.652   7.887  11.612
54268SOL    HW264702   9.555   7.928  11.721
54269SOL     OW64703   3.401  13.259   5.765
54269SOL    HW164704   3.475  13.233   5.820
54269SOL    HW264705   3.356  13.327   5.815
54270SOL     OW64706   6.478   9.399   1.402
54270SOL    HW164707   6.408   9.420   1.463
54270SOL    HW264708   6.541   9.471   1.410
54271SOL     OW64709   8.839   3.691   4.980
54271SOL    HW164710   8.771   3.716   4.918
54271SOL    HW264711   8.904   3.762   4.974
54272SOL     OW64712   3.130  13.656  13.583
54272SOL    HW164713   3.210  13.612  13.555
54272SOL    HW264714   3.151  13.750  13.580
54273SOL     OW64715   0.466   9.341   8.259
54273SOL    HW164716   0.439   9.343   8.167
54273SOL    HW264717   0.389   9.309   8.306
54274SOL     OW64718   1.387   1.300   9.395
54274SOL    HW164719   1.390   1.381   9.344
54274SOL    HW264720   1.445   1.240   9.349
54275SOL     OW64721   4.135  13.487   5.572
54275SOL    HW164722   4.087  13.552   5.622
54275SOL    HW264723   4.192  13.445   5.637
54276SOL     OW64724   0.141   7.248   9.552
54276SOL    HW164725   0.090   7.173   9.581
54276SOL    HW264726   0.200   7.213   9.485
54277SOL     OW64727   0.114   8.932   7.979
54277SOL    HW164728   0.146   8.867   7.916
54277SOL    HW264729   0.144   8.900   8.064
54278SOL     OW64730   0.404  11.804   4.461
54278SOL    HW164731   0.326  11.781   4.409
54278SOL    HW264732   0.438  11.719   4.490
54279SOL     OW64733  11.342   5.166   4.537
54279SOL    HW164734  11.343   5.122   4.452
54279SOL    HW264735  11.249   5.182   4.554
54280SOL     OW64736   4.644  11.730   7.862
54280SOL    HW164737   4.677  11.772   7.783
54280SOL    HW264738   4.722  11.689   7.901
54281SOL     OW64739  14.002   9.846   8.640
54281SOL    HW164740  13.965   9.767   8.679
54281SOL    HW264741  13.976   9.916   8.701
54282SOL     OW64742   7.958   7.343  10.877
54282SOL    HW164743   7.995   7.295  10.803
54282SOL    HW264744   8.034   7.367  10.930
54283SOL     OW64745   4.788   4.881   2.762
54283SOL    HW164746   4.723   4.934   2.717
54283SOL    HW264747   4.738   4.805   2.795
54284SOL     OW64748  12.593  12.998   2.809
54284SOL    HW164749  12.513  13.043   2.782
54284SOL    HW264750  12.566  12.908   2.824
54285SOL     OW64751   1.597  14.466   8.450
54285SOL    HW164752   1.657  14.466   8.525
54285SOL    HW264753   1.654  14.466   8.373
54286SOL     OW64754  13.265   3.003   0.449
54286SOL    HW164755  13.184   2.981   0.403
54286SOL    HW264756  13.236   3.044   0.530
54287SOL     OW64757   8.255   4.920  13.341
54287SOL    HW164758   8.229   4.934  13.251
54287SOL    HW264759   8.202   4.846  13.370
54288SOL     OW64760  10.855   2.459   9.390
54288SOL    HW164761  10.843   2.408   9.310
54288SOL    HW264762  10.773   2.507   9.401
54289SOL     OW64763  10.580   6.492   2.532
54289SOL    HW164764  10.629   6.494   2.614
54289SOL    HW264765  10.492   6.522   2.556
54290SOL     OW64766  13.921   2.229   1.545
54290SOL    HW164767  13.867   2.191   1.614
54290SOL    HW264768  13.938   2.155   1.486
54291SOL     OW64769   6.687   0.076   6.736
54291SOL    HW164770   6.667  14.852   6.719
54291SOL    HW264771   6.645   0.095   6.820
54292SOL     OW64772   6.868  14.408   9.922
54292SOL    HW164773   6.860  14.313   9.929
54292SOL    HW264774   6.794  14.434   9.867
54293SOL     OW64775   0.434   7.294   8.028
54293SOL    HW164776   0.489   7.224   7.992
54293SOL    HW264777   0.477   7.375   8.001
54294SOL     OW64778  11.172   7.247  14.184
54294SOL    HW164779  11.181   7.275  14.093
54294SOL    HW264780  11.117   7.315  14.224
54295SOL     OW64781   3.514   8.834   7.633
54295SOL    HW164782   3.501   8.782   7.713
54295SOL    HW264783   3.426   8.858   7.606
54296SOL     OW64784   9.715   9.146   8.171
54296SOL    HW164785   9.749   9.218   8.117
54296SOL    HW264786   9.791   9.111   8.216
54297SOL     OW64787   7.166  13.096   3.153
54297SOL    HW164788   7.146  13.115   3.061
54297SOL    HW264789   7.226  13.166   3.178
54298SOL     OW64790  14.794   6.848   5.188
54298SOL    HW164791  14.745   6.773   5.156
54298SOL    HW264792  14.774   6.918   5.126
54299SOL     OW64793   7.211  13.765   0.290
54299SOL    HW164794   7.231  13.722   0.373
54299SOL    HW264795   7.293  13.805   0.262
54300SOL     OW64796   5.307   2.464   5.425
54300SOL    HW164797   5.370   2.500   5.363
54300SOL    HW264798   5.284   2.537   5.481
54301SOL     OW64799  11.604   1.533   9.474
54301SOL    HW164800  11.691   1.515   9.509
54301SOL    HW264801  11.607   1.501   9.384
54302SOL     OW64802  12.739   1.631   2.500
54302SOL    HW164803  12.820   1.631   2.551
54302SOL    HW264804  12.756   1.571   2.427
54303SOL     OW64805   7.688   0.861  13.466
54303SOL    HW164806   7.625   0.845  13.536
54303SOL    HW264807   7.761   0.905  13.509
54304SOL     OW64808   8.211   3.921   0.464
54304SOL    HW164809   8.194   3.978   0.389
54304SOL    HW264810   8.125   3.899   0.499
54305SOL     OW64811   2.871  11.323   9.558
54305SOL    HW164812   2.786  11.353   9.527
54305SOL    HW264813   2.870  11.343   9.652
54306SOL     OW64814   9.967   4.947  14.372
54306SOL    HW164815  10.006   4.997  14.443
54306SOL    HW264816  10.028   4.956  14.299
54307SOL     OW64817   2.942   8.081  11.002
54307SOL    HW164818   2.920   8.005  10.948
54307SOL    HW264819   3.029   8.060  11.037
54308SOL     OW64820   4.183  12.346  13.517
54308SOL    HW164821   4.259  12.342  13.575
54308SOL    HW264822   4.120  12.401  13.564
54309SOL     OW64823   4.172   0.881   1.735
54309SOL    HW164824   4.162   0.947   1.804
54309SOL    HW264825   4.090   0.832   1.736
54310SOL     OW64826  10.655  14.156   3.643
54310SOL    HW164827  10.689  14.076   3.682
54310SOL    HW264828  10.645  14.135   3.550
54311SOL     OW64829   5.869   3.054  13.826
54311SOL    HW164830   5.832   3.063  13.914
54311SOL    HW264831   5.947   3.000  13.839
54312SOL     OW64832   4.612  11.464  14.624
54312SOL    HW164833   4.685  11.488  14.567
54312SOL    HW264834   4.571  11.389  14.580
54313SOL     OW64835  11.012  12.961   3.897
54313SOL    HW164836  11.040  12.944   3.806
54313SOL    HW264837  10.922  12.992   3.888
54314SOL     OW64838   0.960   3.253   7.176
54314SOL    HW164839   1.000   3.166   7.172
54314SOL    HW264840   0.908   3.251   7.256
54315SOL     OW64841   4.867   3.740   2.917
54315SOL    HW164842   4.872   3.815   2.856
54315SOL    HW264843   4.958   3.721   2.939
54316SOL     OW64844   9.798   9.037   3.400
54316SOL    HW164845   9.804   9.129   3.374
54316SOL    HW264846   9.887   9.013   3.424
54317SOL     OW64847  10.564   2.766   4.006
54317SOL    HW164848  10.507   2.742   3.933
54317SOL    HW264849  10.560   2.862   4.008
54318SOL     OW64850   5.561  13.025  13.204
54318SOL    HW164851   5.480  12.975  13.203
54318SOL    HW264852   5.536  13.112  13.172
54319SOL     OW64853   3.171   2.042   3.974
54319SOL    HW164854   3.081   2.074   3.969
54319SOL    HW264855   3.170   1.978   4.045
54320SOL     OW64856  12.201   0.168  11.389
54320SOL    HW164857  12.172   0.231  11.323
54320SOL    HW264858  12.221   0.221  11.466
54321SOL     OW64859   9.988   4.938  11.525
54321SOL    HW164860  10.060   4.931  11.587
54321SOL    HW264861  10.009   4.875  11.456
54322SOL     OW64862   9.145   3.884  13.224
54322SOL    HW164863   9.177   3.800  13.257
54322SOL    HW264864   9.152   3.944  13.298
54323SOL     OW64865   7.344   1.193   1.474
54323SOL    HW164866   7.334   1.109   1.430
54323SOL    HW264867   7.258   1.210   1.513
54324SOL     OW64868  12.870  13.916   1.306
54324SOL    HW164869  12.824  13.844   1.350
54324SOL    HW264870  12.813  13.992   1.318
54325SOL     OW64871  12.751   1.748  11.547
54325SOL    HW164872  12.759   1.655  11.524
54325SOL    HW264873  12.839   1.784  11.531
54326SOL     OW64874   4.610   3.585   2.182
54326SOL    HW164875   4.688   3.631   2.214
54326SOL    HW264876   4.641   3.536   2.105
54327SOL     OW64877  11.415   7.987  13.109
54327SOL    HW164878  11.379   7.912  13.157
54327SOL    HW264879  11.340   8.045  13.096
54328SOL     OW64880  13.491   3.302  11.944
54328SOL    HW164881  13.489   3.231  11.880
54328SOL    HW264882  13.405   3.342  11.939
54329SOL     OW64883   4.393  12.325  12.179
54329SOL    HW164884   4.418  12.281  12.097
54329SOL    HW264885   4.409  12.260  12.247
54330SOL     OW64886   2.823   6.058  14.728
54330SOL    HW164887   2.761   6.126  14.704
54330SOL    HW264888   2.907   6.090  14.696
54331SOL     OW64889   9.230   0.408  11.655
54331SOL    HW164890   9.209   0.459  11.577
54331SOL    HW264891   9.171   0.442  11.722
54332SOL     OW64892   8.529   2.249  11.422
54332SOL    HW164893   8.484   2.310  11.480
54332SOL    HW264894   8.576   2.305  11.360
54333SOL     OW64895   9.193   7.295   6.528
54333SOL    HW164896   9.263   7.321   6.467
54333SOL    HW264897   9.200   7.200   6.533
54334SOL     OW64898  14.780   8.619   3.275
54334SOL    HW164899  14.726   8.606   3.353
54334SOL    HW264900  14.717   8.617   3.202
54335SOL     OW64901  14.499  12.221   8.859
54335SOL    HW164902  14.408  12.193   8.868
54335SOL    HW264903  14.546  12.170   8.926
54336SOL     OW64904  10.495  12.645   8.859
54336SOL    HW164905  10.422  12.677   8.912
54336SOL    HW264906  10.561  12.715   8.865
54337SOL     OW64907   1.271   0.855   5.334
54337SOL    HW164908   1.291   0.774   5.288
54337SOL    HW264909   1.351   0.907   5.328
54338SOL     OW64910  11.417   5.343  12.446
54338SOL    HW164911  11.359   5.299  12.384
54338SOL    HW264912  11.408   5.436  12.425
54339SOL     OW64913   7.054  12.534   3.564
54339SOL    HW164914   7.002  12.603   3.606
54339SOL    HW264915   7.125  12.581   3.520
54340SOL     OW64916   1.561  12.909   8.963
54340SOL    HW164917   1.472  12.879   8.945
54340SOL    HW264918   1.615  12.829   8.959
54341SOL     OW64919   1.570   5.660   9.503
54341SOL    HW164920   1.480   5.689   9.521
54341SOL    HW264921   1.565   5.564   9.506
54342SOL     OW64922  12.117  11.155   2.865
54342SOL    HW164923  12.100  11.183   2.956
54342SOL    HW264924  12.098  11.233   2.813
54343SOL     OW64925   0.231  11.549   4.947
54343SOL    HW164926   0.203  11.544   5.039
54343SOL    HW264927   0.152  11.527   4.897
54344SOL     OW64928   8.568   7.407   7.883
54344SOL    HW164929   8.630   7.352   7.835
54344SOL    HW264930   8.559   7.364   7.968
54345SOL     OW64931   7.734   1.154   1.733
54345SOL    HW164932   7.829   1.165   1.730
54345SOL    HW264933   7.702   1.197   1.654
54346SOL     OW64934   3.151   4.457  12.322
54346SOL    HW164935   3.102   4.453  12.404
54346SOL    HW264936   3.126   4.541  12.283
54347SOL     OW64937   8.334  14.537   8.319
54347SOL    HW164938   8.263  14.574   8.372
54347SOL    HW264939   8.320  14.443   8.322
54348SOL     OW64940   5.118   8.627   3.516
54348SOL    HW164941   5.102   8.705   3.568
54348SOL    HW264942   5.116   8.657   3.426
54349SOL     OW64943   1.800  10.228  14.391
54349SOL    HW164944   1.767  10.163  14.453
54349SOL    HW264945   1.882  10.259  14.429
54350SOL     OW64946   6.088  13.471  10.815
54350SOL    HW164947   6.054  13.479  10.904
54350SOL    HW264948   6.013  13.442  10.763
54351SOL     OW64949   7.256  11.947  10.347
54351SOL    HW164950   7.244  11.993  10.431
54351SOL    HW264951   7.193  11.989  10.288
54352SOL     OW64952  10.629   1.736  11.717
54352SOL    HW164953  10.576   1.664  11.753
54352SOL    HW264954  10.655   1.705  11.630
54353SOL     OW64955   7.503  12.928   8.797
54353SOL    HW164956   7.538  12.885   8.718
54353SOL    HW264957   7.415  12.893   8.805
54354SOL     OW64958   1.688   1.636   0.878
54354SOL    HW164959   1.629   1.613   0.950
54354SOL    HW264960   1.667   1.727   0.857
54355SOL     OW64961  13.685   8.730   9.373
54355SOL    HW164962  13.774   8.720   9.408
54355SOL    HW264963  13.645   8.796   9.429
54356SOL     OW64964   8.753   1.016   3.182
54356SOL    HW164965   8.739   0.925   3.208
54356SOL    HW264966   8.819   1.012   3.113
54357SOL     OW64967   6.775   8.015   3.313
54357SOL    HW164968   6.762   8.109   3.308
54357SOL    HW264969   6.870   8.004   3.325
54358SOL     OW64970  14.203   8.712   9.615
54358SOL    HW164971  14.132   8.690   9.677
54358SOL    HW264972  14.264   8.639   9.623
54359SOL     OW64973   9.247  11.017  11.565
54359SOL    HW164974   9.191  10.942  11.542
54359SOL    HW264975   9.306  11.026  11.490
54360SOL     OW64976   6.992   3.545   2.770
54360SOL    HW164977   7.051   3.470   2.775
54360SOL    HW264978   7.040   3.616   2.813
54361SOL     OW64979   4.001   6.366   4.011
54361SOL    HW164980   4.032   6.328   4.093
54361SOL    HW264981   3.973   6.454   4.035
54362SOL     OW64982   4.180  10.749   4.698
54362SOL    HW164983   4.196  10.668   4.746
54362SOL    HW264984   4.232  10.741   4.619
54363SOL     OW64985  11.641   7.615   7.322
54363SOL    HW164986  11.567   7.560   7.348
54363SOL    HW264987  11.656   7.673   7.397
54364SOL     OW64988   9.664   6.120   7.052
54364SOL    HW164989   9.600   6.157   7.113
54364SOL    HW264990   9.660   6.026   7.069
54365SOL     OW64991  11.937   8.990   9.608
54365SOL    HW164992  11.902   8.910   9.649
54365SOL    HW264993  11.985   8.958   9.532
54366SOL     OW64994   7.707  10.991  10.569
54366SOL    HW164995   7.764  10.962  10.498
54366SOL    HW264996   7.627  11.020  10.526
54367SOL     OW64997  14.320   6.711   8.937
54367SOL    HW164998  14.245   6.667   8.978
54367SOL    HW264999  14.394   6.689   8.993
54368SOL     OW65000   7.854  12.889   8.754
54368SOL    HW165001   7.818  12.806   8.723
54368SOL    HW265002   7.848  12.948   8.679
54369SOL     OW65003   5.179   8.103  13.086
54369SOL    HW165004   5.085   8.098  13.103
54369SOL    HW265005   5.215   8.024  13.129
54370SOL     OW65006   6.038   9.881  11.750
54370SOL    HW165007   6.032   9.803  11.696
54370SOL    HW265008   5.980   9.944  11.708
54371SOL     OW65009   5.276   0.368   4.290
54371SOL    HW165010   5.362   0.338   4.319
54371SOL    HW265011   5.263   0.326   4.205
54372SOL     OW65012  11.727  13.920   5.761
54372SOL    HW165013  11.721  13.841   5.815
54372SOL    HW265014  11.806  13.907   5.708
54373SOL     OW65015  14.686   7.592  12.792
54373SOL    HW165016  14.628   7.567  12.864
54373SOL    HW265017  14.633   7.649  12.737
54374SOL     OW65018   0.052  10.148   7.893
54374SOL    HW165019   0.051  10.055   7.916
54374SOL    HW265020  14.836  10.182   7.924
54375SOL     OW65021   6.926   3.956  12.013
54375SOL    HW165022   6.844   3.963  11.964
54375SOL    HW265023   6.980   4.028  11.981
54376SOL     OW65024   3.495   9.786  11.958
54376SOL    HW165025   3.453   9.819  11.878
54376SOL    HW265026   3.437   9.716  11.988
54377SOL     OW65027   9.856   4.260  11.916
54377SOL    HW165028   9.852   4.169  11.945
54377SOL    HW265029   9.936   4.294  11.954
54378SOL     OW65030   0.858   6.004   1.295
54378SOL    HW165031   0.920   6.071   1.268
54378SOL    HW265032   0.783   6.053   1.329
54379SOL     OW65033   7.387   4.728   8.471
54379SOL    HW165034   7.365   4.635   8.479
54379SOL    HW265035   7.468   4.738   8.522
54380SOL     OW65036  11.056  10.737   0.603
54380SOL    HW165037  10.990  10.794   0.565
54380SOL    HW265038  11.009  10.687   0.671
54381SOL     OW65039  11.168   8.254   3.733
54381SOL    HW165040  11.148   8.201   3.656
54381SOL    HW265041  11.144   8.198   3.807
54382SOL     OW65042  14.366   3.873   8.728
54382SOL    HW165043  14.301   3.938   8.754
54382SOL    HW265044  14.348   3.855   8.636
54383SOL     OW65045   7.919  13.885  10.873
54383SOL    HW165046   7.996  13.942  10.873
54383SOL    HW265047   7.952  13.800  10.844
54384SOL     OW65048   5.383   5.085   4.066
54384SOL    HW165049   5.450   5.152   4.079
54384SOL    HW265050   5.431   5.009   4.034
54385SOL     OW65051   2.157   2.002   2.800
54385SOL    HW165052   2.145   2.008   2.705
54385SOL    HW265053   2.091   2.062   2.836
54386SOL     OW65054   7.780   7.699  14.380
54386SOL    HW165055   7.806   7.784  14.343
54386SOL    HW265056   7.800   7.707  14.473
54387SOL     OW65057   8.146   6.261   3.668
54387SOL    HW165058   8.122   6.353   3.681
54387SOL    HW265059   8.169   6.255   3.576
54388SOL     OW65060   3.332   7.040  13.961
54388SOL    HW165061   3.318   7.134  13.952
54388SOL    HW265062   3.274   7.013  14.032
54389SOL     OW65063  12.910   5.293   1.162
54389SOL    HW165064  12.897   5.375   1.210
54389SOL    HW265065  12.924   5.321   1.071
54390SOL     OW65066  14.178   2.173   7.768
54390SOL    HW165067  14.273   2.184   7.763
54390SOL    HW265068  14.163   2.133   7.853
54391SOL     OW65069  13.098   0.857   1.867
54391SOL    HW165070  13.165   0.922   1.890
54391SOL    HW265071  13.122   0.828   1.779
54392SOL     OW65072   6.696   8.437   3.010
54392SOL    HW165073   6.717   8.496   2.937
54392SOL    HW265074   6.610   8.465   3.041
54393SOL     OW65075  12.465   9.617   9.196
54393SOL    HW165076  12.389   9.566   9.168
54393SOL    HW265077  12.486   9.582   9.282
54394SOL     OW65078  11.836   2.139   6.056
54394SOL    HW165079  11.819   2.077   6.127
54394SOL    HW265080  11.905   2.196   6.091
54395SOL     OW65081   7.880   0.754   4.840
54395SOL    HW165082   7.938   0.722   4.909
54395SOL    HW265083   7.891   0.691   4.769
54396SOL     OW65084   0.373   1.194   7.307
54396SOL    HW165085   0.417   1.273   7.277
54396SOL    HW265086   0.291   1.192   7.258
54397SOL     OW65087   0.325   1.218  10.995
54397SOL    HW165088   0.288   1.270  10.924
54397SOL    HW265089   0.326   1.278  11.070
54398SOL     OW65090  11.041   9.478   4.685
54398SOL    HW165091  11.079   9.541   4.624
54398SOL    HW265092  11.044   9.522   4.770
54399SOL     OW65093   9.505   5.540  13.093
54399SOL    HW165094   9.517   5.545  13.188
54399SOL    HW265095   9.573   5.481  13.062
54400SOL     OW65096  11.907   8.793  10.559
54400SOL    HW165097  11.868   8.805  10.646
54400SOL    HW265098  11.894   8.701  10.539
54401SOL     OW65099  11.580   5.856   5.182
54401SOL    HW165100  11.553   5.935   5.135
54401SOL    HW265101  11.514   5.845   5.250
54402SOL     OW65102   1.324   1.033   9.615
54402SOL    HW165103   1.268   1.068   9.546
54402SOL    HW265104   1.318   1.098   9.685
54403SOL     OW65105   4.193   9.916  10.618
54403SOL    HW165106   4.164  10.007  10.611
54403SOL    HW265107   4.184   9.881  10.530
54404SOL     OW65108  13.097   9.123   6.321
54404SOL    HW165109  13.034   9.077   6.376
54404SOL    HW265110  13.054   9.128   6.235
54405SOL     OW65111   9.837  13.295  13.905
54405SOL    HW165112   9.813  13.215  13.952
54405SOL    HW265113   9.930  13.286  13.887
54406SOL     OW65114  13.223   3.260   8.289
54406SOL    HW165115  13.238   3.211   8.369
54406SOL    HW265116  13.128   3.273   8.285
54407SOL     OW65117  13.181   9.826  10.967
54407SOL    HW165118  13.114   9.881  10.927
54407SOL    HW265119  13.133   9.770  11.028
54408SOL     OW65120   4.421  13.341   8.560
54408SOL    HW165121   4.340  13.343   8.611
54408SOL    HW265122   4.489  13.322   8.624
54409SOL     OW65123  11.151  12.814  13.921
54409SOL    HW165124  11.226  12.754  13.918
54409SOL    HW265125  11.164  12.864  14.002
54410SOL     OW65126   3.703   9.915   4.546
54410SOL    HW165127   3.711   9.831   4.591
54410SOL    HW265128   3.758   9.975   4.597
54411SOL     OW65129   1.915   2.531  14.036
54411SOL    HW165130   1.993   2.487  14.069
54411SOL    HW265131   1.844   2.468  14.050
54412SOL     OW65132   8.979   2.996  12.470
54412SOL    HW165133   8.912   2.957  12.415
54412SOL    HW265134   8.958   3.089  12.472
54413SOL     OW65135  14.663   3.915  13.867
54413SOL    HW165136  14.747   3.942  13.830
54413SOL    HW265137  14.599   3.972  13.825
54414SOL     OW65138   0.484   5.047   2.178
54414SOL    HW165139   0.451   5.125   2.222
54414SOL    HW265140   0.421   5.031   2.107
54415SOL     OW65141  13.599   9.604   2.000
54415SOL    HW165142  13.617   9.579   2.090
54415SOL    HW265143  13.591   9.521   1.953
54416SOL     OW65144   3.335   6.860  11.318
54416SOL    HW165145   3.394   6.839  11.391
54416SOL    HW265146   3.281   6.931  11.351
54417SOL     OW65147   1.160   5.326  13.772
54417SOL    HW165148   1.230   5.267  13.743
54417SOL    HW265149   1.193   5.414  13.753
54418SOL     OW65150  14.802   6.915  12.075
54418SOL    HW165151  14.793   6.989  12.015
54418SOL    HW265152   0.017   6.931  12.120
54419SOL     OW65153   8.961   4.706   8.437
54419SOL    HW165154   8.988   4.661   8.517
54419SOL    HW265155   8.987   4.797   8.451
54420SOL     OW65156  13.955  14.230   8.190
54420SOL    HW165157  13.945  14.259   8.099
54420SOL    HW265158  13.874  14.258   8.233
54421SOL     OW65159   9.210   0.432   1.308
54421SOL    HW165160   9.184   0.512   1.353
54421SOL    HW265161   9.251   0.462   1.227
54422SOL     OW65162   2.800  14.301   8.695
54422SOL    HW165163   2.767  14.303   8.784
54422SOL    HW265164   2.834  14.389   8.680
54423SOL     OW65165   4.814   5.541   7.257
54423SOL    HW165166   4.896   5.532   7.305
54423SOL    HW265167   4.804   5.635   7.242
54424SOL     OW65168   6.329   8.815   8.555
54424SOL    HW165169   6.350   8.908   8.559
54424SOL    HW265170   6.270   8.807   8.480
54425SOL     OW65171   3.211   8.867   4.201
54425SOL    HW165172   3.277   8.845   4.135
54425SOL    HW265173   3.137   8.899   4.149
54426SOL     OW65174   1.912   4.143   5.727
54426SOL    HW165175   1.844   4.161   5.793
54426SOL    HW265176   1.875   4.072   5.674
54427SOL     OW65177  12.052  11.447   7.387
54427SOL    HW165178  11.997  11.453   7.310
54427SOL    HW265179  11.992  11.428   7.459
54428SOL     OW65180   7.260  12.493  14.626
54428SOL    HW165181   7.208  12.451  14.694
54428SOL    HW265182   7.347  12.502  14.665
54429SOL     OW65183   8.637   3.263   1.518
54429SOL    HW165184   8.563   3.299   1.469
54429SOL    HW265185   8.645   3.320   1.595
54430SOL     OW65186   7.373   9.268  12.007
54430SOL    HW165187   7.402   9.319  11.931
54430SOL    HW265188   7.347   9.335  12.071
54431SOL     OW65189   3.736  13.161   6.951
54431SOL    HW165190   3.772  13.077   6.980
54431SOL    HW265191   3.664  13.179   7.012
54432SOL     OW65192  10.335   3.183  11.289
54432SOL    HW165193  10.361   3.103  11.244
54432SOL    HW265194  10.400   3.194  11.358
54433SOL     OW65195  10.710   3.890   1.581
54433SOL    HW165196  10.646   3.955   1.551
54433SOL    HW265197  10.661   3.809   1.588
54434SOL     OW65198  14.769   0.395  14.758
54434SOL    HW165199  14.854   0.406  14.800
54434SOL    HW265200  14.788   0.341  14.681
54435SOL     OW65201   2.735   2.553   1.413
54435SOL    HW165202   2.640   2.565   1.417
54435SOL    HW265203   2.765   2.619   1.351
54436SOL     OW65204  10.023  11.225   8.022
54436SOL    HW165205   9.954  11.241   7.957
54436SOL    HW265206   9.977  11.219   8.105
54437SOL     OW65207   0.197   4.758   5.659
54437SOL    HW165208   0.123   4.699   5.646
54437SOL    HW265209   0.173   4.811   5.735
54438SOL     OW65210  11.597   6.282   6.648
54438SOL    HW165211  11.652   6.342   6.598
54438SOL    HW265212  11.571   6.215   6.585
54439SOL     OW65213   3.579   0.413   2.690
54439SOL    HW165214   3.507   0.353   2.708
54439SOL    HW265215   3.591   0.462   2.772
54440SOL     OW65216   3.567  12.005   9.931
54440SOL    HW165217   3.643  12.063   9.922
54440SOL    HW265218   3.497  12.050   9.884
54441SOL     OW65219  13.007   2.245  13.381
54441SOL    HW165220  12.990   2.172  13.321
54441SOL    HW265221  13.014   2.321  13.324
54442SOL     OW65222   5.571  12.026  14.293
54442SOL    HW165223   5.640  12.024  14.226
54442SOL    HW265224   5.495  11.987  14.250
54443SOL     OW65225   8.719  10.014   9.426
54443SOL    HW165226   8.700  10.088   9.484
54443SOL    HW265227   8.634   9.971   9.414
54444SOL     OW65228   5.777   5.870   3.085
54444SOL    HW165229   5.793   5.869   3.180
54444SOL    HW265230   5.683   5.854   3.076
54445SOL     OW65231   0.392   3.892   2.871
54445SOL    HW165232   0.460   3.858   2.931
54445SOL    HW265233   0.435   3.963   2.824
54446SOL     OW65234  13.181   5.317   9.769
54446SOL    HW165235  13.214   5.252   9.831
54446SOL    HW265236  13.118   5.369   9.819
54447SOL     OW65237   1.220   4.336   7.965
54447SOL    HW165238   1.241   4.380   8.047
54447SOL    HW265239   1.240   4.401   7.897
54448SOL     OW65240  11.984   3.722   9.306
54448SOL    HW165241  11.975   3.799   9.250
54448SOL    HW265242  12.020   3.654   9.249
54449SOL     OW65243   2.970   2.886   5.321
54449SOL    HW165244   2.907   2.949   5.355
54449SOL    HW265245   3.054   2.916   5.356
54450SOL     OW65246   9.122   4.635   1.100
54450SOL    HW165247   9.107   4.683   1.181
54450SOL    HW265248   9.045   4.579   1.090
54451SOL     OW65249   0.711   2.419   2.631
54451SOL    HW165250   0.673   2.331   2.628
54451SOL    HW265251   0.799   2.406   2.668
54452SOL     OW65252  13.739   9.948  11.636
54452SOL    HW165253  13.699  10.004  11.569
54452SOL    HW265254  13.722   9.994  11.718
54453SOL     OW65255   5.333   5.487   8.342
54453SOL    HW165256   5.364   5.424   8.278
54453SOL    HW265257   5.412   5.528   8.377
54454SOL     OW65258   8.735  13.225   4.529
54454SOL    HW165259   8.667  13.171   4.569
54454SOL    HW265260   8.774  13.168   4.463
54455SOL     OW65261  11.946   9.872   1.148
54455SOL    HW165262  11.904   9.958   1.141
54455SOL    HW265263  11.956   9.842   1.058
54456SOL     OW65264  13.898  12.842   5.079
54456SOL    HW165265  13.939  12.842   5.166
54456SOL    HW265266  13.966  12.808   5.021
54457SOL     OW65267  12.349   0.005   5.168
54457SOL    HW165268  12.270   0.022   5.218
54457SOL    HW265269  12.327  14.797   5.114
54458SOL     OW65270   6.143   9.646   0.947
54458SOL    HW165271   6.159   9.615   1.036
54458SOL    HW265272   6.217   9.613   0.896
54459SOL     OW65273  10.813  14.448  12.275
54459SOL    HW165274  10.862  14.501  12.338
54459SOL    HW265275  10.804  14.504  12.198
54460SOL     OW65276   9.106  12.712  10.908
54460SOL    HW165277   9.061  12.646  10.962
54460SOL    HW265278   9.197  12.709  10.937
54461SOL     OW65279   9.478   4.706  11.208
54461SOL    HW165280   9.522   4.775  11.258
54461SOL    HW265281   9.390   4.701  11.246
54462SOL     OW65282   9.046   1.912   1.120
54462SOL    HW165283   9.098   1.940   1.196
54462SOL    HW265284   8.978   1.978   1.111
54463SOL     OW65285  14.480   1.994   5.291
54463SOL    HW165286  14.569   1.966   5.313
54463SOL    HW265287  14.429   1.913   5.292
54464SOL     OW65288   5.573  12.769   4.100
54464SOL    HW165289   5.597  12.705   4.033
54464SOL    HW265290   5.656  12.811   4.124
54465SOL     OW65291  11.663   0.496   3.815
54465SOL    HW165292  11.692   0.527   3.729
54465SOL    HW265293  11.614   0.569   3.852
54466SOL     OW65294   6.673   1.927   4.437
54466SOL    HW165295   6.603   1.977   4.478
54466SOL    HW265296   6.653   1.928   4.343
54467SOL     OW65297  10.129   8.988   7.097
54467SOL    HW165298  10.060   9.037   7.141
54467SOL    HW265299  10.201   9.050   7.090
54468SOL     OW65300   1.046   5.534   5.566
54468SOL    HW165301   0.972   5.522   5.507
54468SOL    HW265302   1.112   5.472   5.535
54469SOL     OW65303   7.117   6.265  14.286
54469SOL    HW165304   7.061   6.188  14.296
54469SOL    HW265305   7.075   6.318  14.218
54470SOL     OW65306   3.999  13.850  10.157
54470SOL    HW165307   4.003  13.833  10.063
54470SOL    HW265308   4.085  13.887  10.179
54471SOL     OW65309  13.307   3.352   4.106
54471SOL    HW165310  13.355   3.291   4.161
54471SOL    HW265311  13.332   3.439   4.139
54472SOL     OW65312   0.996  14.250  10.646
54472SOL    HW165313   1.012  14.217  10.558
54472SOL    HW265314   1.029  14.340  10.644
54473SOL     OW65315  14.429  11.969   9.914
54473SOL    HW165316  14.412  11.885   9.957
54473SOL    HW265317  14.476  12.021   9.979
54474SOL     OW65318   5.160   5.573   0.525
54474SOL    HW165319   5.168   5.532   0.439
54474SOL    HW265320   5.088   5.635   0.515
54475SOL     OW65321  13.571   4.281   2.485
54475SOL    HW165322  13.591   4.296   2.392
54475SOL    HW265323  13.614   4.198   2.505
54476SOL     OW65324   6.498   3.917   0.651
54476SOL    HW165325   6.527   3.852   0.587
54476SOL    HW265326   6.561   3.988   0.643
54477SOL     OW65327   3.063   2.038   2.679
54477SOL    HW165328   3.011   1.959   2.692
54477SOL    HW265329   3.076   2.073   2.767
54478SOL     OW65330   8.049   3.371   1.584
54478SOL    HW165331   8.019   3.318   1.659
54478SOL    HW265332   8.009   3.456   1.598
54479SOL     OW65333   5.495  11.913   7.022
54479SOL    HW165334   5.527  11.829   7.056
54479SOL    HW265335   5.575  11.962   7.002
54480SOL     OW65336   4.646  11.399   0.298
54480SOL    HW165337   4.687  11.398   0.212
54480SOL    HW265338   4.685  11.475   0.342
54481SOL     OW65339   2.393   1.826  13.178
54481SOL    HW165340   2.404   1.812  13.084
54481SOL    HW265341   2.476   1.798  13.217
54482SOL     OW65342   4.466   4.946   1.584
54482SOL    HW165343   4.477   5.019   1.523
54482SOL    HW265344   4.554   4.928   1.616
54483SOL     OW65345  12.825   5.310  13.450
54483SOL    HW165346  12.821   5.318  13.545
54483SOL    HW265347  12.786   5.225  13.431
54484SOL     OW65348  14.135   8.099   3.035
54484SOL    HW165349  14.076   8.111   2.960
54484SOL    HW265350  14.205   8.044   3.001
54485SOL     OW65351   5.369   6.849  12.611
54485SOL    HW165352   5.278   6.868  12.635
54485SOL    HW265353   5.385   6.761  12.644
54486SOL     OW65354   6.893  14.665  11.454
54486SOL    HW165355   6.928  14.684  11.367
54486SOL    HW265356   6.964  14.689  11.514
54487SOL     OW65357   9.241  11.453  13.720
54487SOL    HW165358   9.239  11.541  13.759
54487SOL    HW265359   9.335  11.434  13.710
54488SOL     OW65360  11.286  14.300   2.000
54488SOL    HW165361  11.304  14.214   1.961
54488SOL    HW265362  11.260  14.355   1.926
54489SOL     OW65363  10.055   8.285  10.662
54489SOL    HW165364  10.004   8.365  10.649
54489SOL    HW265365   9.988   8.217  10.673
54490SOL     OW65366  11.208   4.202   0.750
54490SOL    HW165367  11.254   4.125   0.782
54490SOL    HW265368  11.187   4.252   0.830
54491SOL     OW65369  13.159  14.674   4.556
54491SOL    HW165370  13.205  14.593   4.577
54491SOL    HW265371  13.229  14.739   4.542
54492SOL     OW65372  10.497  10.540  11.200
54492SOL    HW165373  10.579  10.504  11.167
54492SOL    HW265374  10.436  10.533  11.126
54493SOL     OW65375   9.533   8.098   5.523
54493SOL    HW165376   9.525   8.170   5.585
54493SOL    HW265377   9.607   8.122   5.467
54494SOL     OW65378   5.859   0.257   2.014
54494SOL    HW165379   5.950   0.250   2.041
54494SOL    HW265380   5.862   0.263   1.919
54495SOL     OW65381  11.454  12.638   7.590
54495SOL    HW165382  11.474  12.584   7.666
54495SOL    HW265383  11.376  12.597   7.551
54496SOL     OW65384   3.763  12.394   1.350
54496SOL    HW165385   3.802  12.350   1.275
54496SOL    HW265386   3.752  12.325   1.415
54497SOL     OW65387   8.386   5.606   2.960
54497SOL    HW165388   8.319   5.639   3.019
54497SOL    HW265389   8.350   5.526   2.924
54498SOL     OW65390   3.248   5.708   2.054
54498SOL    HW165391   3.204   5.667   1.980
54498SOL    HW265392   3.178   5.736   2.112
54499SOL     OW65393  12.726   6.011   9.955
54499SOL    HW165394  12.760   6.086  10.004
54499SOL    HW265395  12.631   6.019   9.961
54500SOL     OW65396  11.674  13.238   6.315
54500SOL    HW165397  11.699  13.156   6.273
54500SOL    HW265398  11.711  13.306   6.258
54501SOL     OW65399   0.323  11.534   5.427
54501SOL    HW165400   0.242  11.492   5.401
54501SOL    HW265401   0.309  11.560   5.518
54502SOL     OW65402  10.035  13.878   6.105
54502SOL    HW165403  10.034  13.936   6.029
54502SOL    HW265404  10.021  13.790   6.067
54503SOL     OW65405   2.245   7.834   3.766
54503SOL    HW165406   2.311   7.842   3.698
54503SOL    HW265407   2.251   7.916   3.816
54504SOL     OW65408   0.093   5.904   2.871
54504SOL    HW165409   0.073   5.878   2.781
54504SOL    HW265410   0.009   5.898   2.917
54505SOL     OW65411   3.433   7.815  12.197
54505SOL    HW165412   3.424   7.869  12.276
54505SOL    HW265413   3.343   7.794  12.172
54506SOL     OW65414   6.780   3.291   6.705
54506SOL    HW165415   6.751   3.202   6.685
54506SOL    HW265416   6.700   3.338   6.725
54507SOL     OW65417   7.612  13.021   0.999
54507SOL    HW165418   7.535  12.966   0.985
54507SOL    HW265419   7.646  12.993   1.083
54508SOL     OW65420   4.106  10.176  11.268
54508SOL    HW165421   4.074  10.085  11.264
54508SOL    HW265422   4.100  10.199  11.360
54509SOL     OW65423  11.560   4.204   7.548
54509SOL    HW165424  11.634   4.252   7.585
54509SOL    HW265425  11.585   4.187   7.457
54510SOL     OW65426  10.829   7.173   7.308
54510SOL    HW165427  10.784   7.111   7.250
54510SOL    HW265428  10.869   7.236   7.248
54511SOL     OW65429  11.857  11.637   8.586
54511SOL    HW165430  11.925  11.699   8.611
54511SOL    HW265431  11.876  11.617   8.494
54512SOL     OW65432   8.946   2.398   5.979
54512SOL    HW165433   8.975   2.344   5.905
54512SOL    HW265434   8.871   2.447   5.945
54513SOL     OW65435   6.249   7.896   9.130
54513SOL    HW165436   6.244   7.966   9.065
54513SOL    HW265437   6.216   7.936   9.211
54514SOL     OW65438   1.076   7.565   5.681
54514SOL    HW165439   1.153   7.589   5.733
54514SOL    HW265440   1.106   7.493   5.626
54515SOL     OW65441   9.893   7.158  12.548
54515SOL    HW165442   9.979   7.139  12.510
54515SOL    HW265443   9.856   7.226  12.491
54516SOL     OW65444   0.443   4.789  14.277
54516SOL    HW165445   0.410   4.793  14.187
54516SOL    HW265446   0.506   4.716  14.276
54517SOL     OW65447  10.492  11.961   0.505
54517SOL    HW165448  10.406  12.004   0.508
54517SOL    HW265449  10.551  12.024   0.546
54518SOL     OW65450   7.918  14.100   7.980
54518SOL    HW165451   7.997  14.153   7.972
54518SOL    HW265452   7.850  14.162   8.006
54519SOL     OW65453  13.974   3.521   8.834
54519SOL    HW165454  13.891   3.530   8.788
54519SOL    HW265455  13.980   3.428   8.856
54520SOL     OW65456  11.671   3.698  10.075
54520SOL    HW165457  11.658   3.754  10.151
54520SOL    HW265458  11.676   3.758  10.000
54521SOL     OW65459   7.599   1.831   7.377
54521SOL    HW165460   7.652   1.835   7.457
54521SOL    HW265461   7.608   1.918   7.338
54522SOL     OW65462   5.683   2.764  12.872
54522SOL    HW165463   5.621   2.694  12.852
54522SOL    HW265464   5.666   2.787  12.963
54523SOL     OW65465   2.562   0.773   1.589
54523SOL    HW165466   2.621   0.848   1.582
54523SOL    HW265467   2.597   0.723   1.662
54524SOL     OW65468   5.615   6.460   5.330
54524SOL    HW165469   5.563   6.380   5.326
54524SOL    HW265470   5.572   6.514   5.396
54525SOL     OW65471   7.334   2.335  10.394
54525SOL    HW165472   7.429   2.343  10.395
54525SOL    HW265473   7.310   2.343  10.301
54526SOL     OW65474  10.561   9.505  10.861
54526SOL    HW165475  10.595   9.590  10.832
54526SOL    HW265476  10.474   9.525  10.896
54527SOL     OW65477  10.207   2.767  11.206
54527SOL    HW165478  10.152   2.692  11.182
54527SOL    HW265479  10.264   2.734  11.275
54528SOL     OW65480   9.797   6.115   9.007
54528SOL    HW165481   9.876   6.118   8.953
54528SOL    HW265482   9.789   6.204   9.042
54529SOL     OW65483  13.085   1.962   2.835
54529SOL    HW165484  13.032   1.936   2.910
54529SOL    HW265485  13.162   1.905   2.839
54530SOL     OW65486  12.153  12.892  14.293
54530SOL    HW165487  12.194  12.808  14.274
54530SOL    HW265488  12.176  12.947  14.218
54531SOL     OW65489   3.558   6.114   6.086
54531SOL    HW165490   3.622   6.049   6.115
54531SOL    HW265491   3.482   6.062   6.058
54532SOL     OW65492  14.201  12.892  10.196
54532SOL    HW165493  14.142  12.837  10.145
54532SOL    HW265494  14.272  12.913  10.136
54533SOL     OW65495  10.225  13.241  10.852
54533SOL    HW165496  10.196  13.278  10.935
54533SOL    HW265497  10.208  13.147  10.861
54534SOL     OW65498   0.593  13.542   5.155
54534SOL    HW165499   0.502  13.512   5.158
54534SOL    HW265500   0.610  13.575   5.243
54535SOL     OW65501   1.281  13.132   1.447
54535SOL    HW165502   1.286  13.047   1.402
54535SOL    HW265503   1.368  13.170   1.436
54536SOL     OW65504   8.864  14.385  11.893
54536SOL    HW165505   8.802  14.361  11.824
54536SOL    HW265506   8.850  14.320  11.962
54537SOL     OW65507   6.444  12.472  13.466
54537SOL    HW165508   6.443  12.378  13.481
54537SOL    HW265509   6.453  12.511  13.553
54538SOL     OW65510   2.663   6.035   2.468
54538SOL    HW165511   2.604   6.062   2.538
54538SOL    HW265512   2.684   5.944   2.488
54539SOL     OW65513   5.764   1.638  14.335
54539SOL    HW165514   5.765   1.570  14.267
54539SOL    HW265515   5.705   1.603  14.402
54540SOL     OW65516   6.281   3.322   2.413
54540SOL    HW165517   6.352   3.386   2.419
54540SOL    HW265518   6.243   3.319   2.501
54541SOL     OW65519   9.211  10.586   2.103
54541SOL    HW165520   9.300  10.567   2.131
54541SOL    HW265521   9.190  10.670   2.144
54542SOL     OW65522   3.438   3.849   1.679
54542SOL    HW165523   3.462   3.760   1.650
54542SOL    HW265524   3.343   3.846   1.688
54543SOL     OW65525   1.527   9.840   5.833
54543SOL    HW165526   1.484   9.791   5.763
54543SOL    HW265527   1.468   9.913   5.851
54544SOL     OW65528   2.147   3.141   0.051
54544SOL    HW165529   2.096   3.212   0.092
54544SOL    HW265530   2.091   3.110  14.848
54545SOL     OW65531   2.595  10.682   9.883
54545SOL    HW165532   2.591  10.591   9.852
54545SOL    HW265533   2.687  10.696   9.904
54546SOL     OW65534   7.329   2.517   1.828
54546SOL    HW165535   7.375   2.529   1.911
54546SOL    HW265536   7.241   2.491   1.853
54547SOL     OW65537   8.269  14.641   6.503
54547SOL    HW165538   8.322  14.720   6.508
54547SOL    HW265539   8.255  14.628   6.409
54548SOL     OW65540   2.854   0.471   1.398
54548SOL    HW165541   2.833   0.564   1.394
54548SOL    HW265542   2.896   0.452   1.314
54549SOL     OW65543  12.623   4.080  11.029
54549SOL    HW165544  12.670   4.148  11.077
54549SOL    HW265545  12.568   4.129  10.967
54550SOL     OW65546   4.080   0.471  10.080
54550SOL    HW165547   4.088   0.538  10.012
54550SOL    HW265548   4.069   0.389  10.031
54551SOL     OW65549  11.342   1.486   6.597
54551SOL    HW165550  11.398   1.551   6.640
54551SOL    HW265551  11.258   1.495   6.641
54552SOL     OW65552  11.796   4.244   8.647
54552SOL    HW165553  11.786   4.339   8.640
54552SOL    HW265554  11.736   4.209   8.581
54553SOL     OW65555  11.316   5.439   8.318
54553SOL    HW165556  11.323   5.446   8.223
54553SOL    HW265557  11.387   5.494   8.352
54554SOL     OW65558  12.894   2.298  14.188
54554SOL    HW165559  12.826   2.323  14.125
54554SOL    HW265560  12.850   2.303  14.273
54555SOL     OW65561   4.094   7.629   4.041
54555SOL    HW165562   4.062   7.719   4.042
54555SOL    HW265563   4.187   7.637   4.064
54556SOL     OW65564  10.875  14.617  12.479
54556SOL    HW165565  10.806  14.667  12.521
54556SOL    HW265566  10.928  14.584  12.551
54557SOL     OW65567   4.923   1.794   7.449
54557SOL    HW165568   5.012   1.758   7.442
54557SOL    HW265569   4.935   1.877   7.496
54558SOL     OW65570   5.665   8.343   0.106
54558SOL    HW165571   5.659   8.248   0.093
54558SOL    HW265572   5.718   8.374   0.033
54559SOL     OW65573   6.877   6.630   0.502
54559SOL    HW165574   6.841   6.613   0.589
54559SOL    HW265575   6.941   6.700   0.516
54560SOL     OW65576  13.649   7.512  10.105
54560SOL    HW165577  13.686   7.600  10.107
54560SOL    HW265578  13.571   7.519  10.051
54561SOL     OW65579   4.119   0.316   5.296
54561SOL    HW165580   4.043   0.259   5.285
54561SOL    HW265581   4.150   0.332   5.207
54562SOL     OW65582   2.301  14.250   4.779
54562SOL    HW165583   2.265  14.177   4.728
54562SOL    HW265584   2.349  14.208   4.850
54563SOL     OW65585   2.552   0.193   0.137
54563SOL    HW165586   2.554   0.099   0.120
54563SOL    HW265587   2.459   0.215   0.138
54564SOL     OW65588   3.448   9.693  13.058
54564SOL    HW165589   3.421   9.637  12.986
54564SOL    HW265590   3.544   9.688  13.058
54565SOL     OW65591  14.319  13.660   5.181
54565SOL    HW165592  14.353  13.670   5.092
54565SOL    HW265593  14.343  13.741   5.226
54566SOL     OW65594   4.029   9.878   4.096
54566SOL    HW165595   3.992   9.815   4.158
54566SOL    HW265596   4.112   9.905   4.135
54567SOL     OW65597   9.352  13.845   5.378
54567SOL    HW165598   9.433  13.859   5.328
54567SOL    HW265599   9.285  13.829   5.311
54568SOL     OW65600   8.377   5.407   9.677
54568SOL    HW165601   8.382   5.490   9.631
54568SOL    HW265602   8.299   5.364   9.641
54569SOL     OW65603  12.169  10.356  12.180
54569SOL    HW165604  12.258  10.370  12.148
54569SOL    HW265605  12.175  10.369  12.275
54570SOL     OW65606  10.104   5.121  14.586
54570SOL    HW165607  10.172   5.161  14.640
54570SOL    HW265608  10.088   5.185  14.516
54571SOL     OW65609  14.786  13.260   4.914
54571SOL    HW165610  14.862  13.317   4.926
54571SOL    HW265611  14.721  13.315   4.871
54572SOL     OW65612  11.823   4.542   7.190
54572SOL    HW165613  11.734   4.575   7.178
54572SOL    HW265614  11.830   4.523   7.283
54573SOL     OW65615   7.514  13.368  10.482
54573SOL    HW165616   7.444  13.321  10.527
54573SOL    HW265617   7.469  13.432  10.426
54574SOL     OW65618  14.745  14.744  12.252
54574SOL    HW165619  14.779  14.684  12.318
54574SOL    HW265620  14.816  14.751  12.188
54575SOL     OW65621  13.789   4.442  11.091
54575SOL    HW165622  13.799   4.477  11.002
54575SOL    HW265623  13.695   4.433  11.103
54576SOL     OW65624   0.976  12.660   6.476
54576SOL    HW165625   0.907  12.726   6.472
54576SOL    HW265626   0.946  12.591   6.417
54577SOL     OW65627   0.647   5.058   4.440
54577SOL    HW165628   0.678   5.066   4.349
54577SOL    HW265629   0.713   5.003   4.482
54578SOL     OW65630   9.838   5.137   9.538
54578SOL    HW165631   9.872   5.206   9.480
54578SOL    HW265632   9.873   5.056   9.501
54579SOL     OW65633   8.234  10.618   7.001
54579SOL    HW165634   8.324  10.631   7.031
54579SOL    HW265635   8.204  10.541   7.050
54580SOL     OW65636  12.554  12.686   3.468
54580SOL    HW165637  12.604  12.608   3.446
54580SOL    HW265638  12.581  12.751   3.404
54581SOL     OW65639   7.292  13.508   1.642
54581SOL    HW165640   7.381  13.473   1.634
54581SOL    HW265641   7.261  13.477   1.727
54582SOL     OW65642  12.923   8.494   1.399
54582SOL    HW165643  12.880   8.425   1.449
54582SOL    HW265644  12.918   8.464   1.308
54583SOL     OW65645  13.284   2.276   1.843
54583SOL    HW165646  13.257   2.352   1.791
54583SOL    HW265647  13.255   2.201   1.791
54584SOL     OW65648  13.755  12.183  12.087
54584SOL    HW165649  13.735  12.112  12.026
54584SOL    HW265650  13.791  12.140  12.164
54585SOL     OW65651   7.535  11.234   3.009
54585SOL    HW165652   7.553  11.288   3.086
54585SOL    HW265653   7.616  11.186   2.995
54586SOL     OW65654  13.100   3.955   6.402
54586SOL    HW165655  13.080   3.964   6.309
54586SOL    HW265656  13.045   4.021   6.444
54587SOL     OW65657  11.591  13.734   7.906
54587SOL    HW165658  11.624  13.724   7.817
54587SOL    HW265659  11.500  13.761   7.895
54588SOL     OW65660   7.614  13.845   3.648
54588SOL    HW165661   7.573  13.809   3.727
54588SOL    HW265662   7.596  13.939   3.653
54589SOL     OW65663  13.347   8.948   7.800
54589SOL    HW165664  13.356   8.865   7.753
54589SOL    HW265665  13.385   8.932   7.886
54590SOL     OW65666   9.639  13.068   9.251
54590SOL    HW165667   9.572  13.083   9.319
54590SOL    HW265668   9.594  13.017   9.184
54591SOL     OW65669   5.770   9.558   0.390
54591SOL    HW165670   5.755   9.466   0.370
54591SOL    HW265671   5.728   9.571   0.475
54592SOL     OW65672  14.504   5.206   0.448
54592SOL    HW165673  14.565   5.184   0.378
54592SOL    HW265674  14.480   5.297   0.432
54593SOL     OW65675   0.292   6.508   3.473
54593SOL    HW165676   0.356   6.444   3.444
54593SOL    HW265677   0.211   6.457   3.485
54594SOL     OW65678   9.210   7.055   0.507
54594SOL    HW165679   9.217   7.098   0.592
54594SOL    HW265680   9.131   7.093   0.468
54595SOL     OW65681  14.469   3.872  10.720
54595SOL    HW165682  14.556   3.855  10.756
54595SOL    HW265683  14.486   3.905  10.631
54596SOL     OW65684   5.813   0.909   0.035
54596SOL    HW165685   5.866   0.950  14.835
54596SOL    HW265686   5.873   0.901   0.110
54597SOL     OW65687   4.293   0.066   9.831
54597SOL    HW165688   4.254   0.011   9.762
54597SOL    HW265689   4.223   0.076   9.896
54598SOL     OW65690  11.627  12.722  14.520
54598SOL    HW165691  11.568  12.650  14.542
54598SOL    HW265692  11.628  12.725  14.424
54599SOL     OW65693   4.038   3.819   8.111
54599SOL    HW165694   4.130   3.807   8.132
54599SOL    HW265695   4.034   3.813   8.015
54600SOL     OW65696  14.715   2.535   4.113
54600SOL    HW165697  14.679   2.579   4.036
54600SOL    HW265698  14.809   2.530   4.096
54601SOL     OW65699   2.594  13.689  14.589
54601SOL    HW165700   2.503  13.659  14.589
54601SOL    HW265701   2.610  13.717  14.499
54602SOL     OW65702   3.838   6.737  10.227
54602SOL    HW165703   3.773   6.691  10.280
54602SOL    HW265704   3.821   6.708  10.138
54603SOL     OW65705  11.656   6.030  13.689
54603SOL    HW165706  11.687   5.939  13.692
54603SOL    HW265707  11.696   6.066  13.610
54604SOL     OW65708   7.852  13.668  12.371
54604SOL    HW165709   7.913  13.596  12.354
54604SOL    HW265710   7.843  13.712  12.287
54605SOL     OW65711  12.501   1.319   7.313
54605SOL    HW165712  12.429   1.371   7.349
54605SOL    HW265713  12.535   1.371   7.240
54606SOL     OW65714   7.415   8.936  11.929
54606SOL    HW165715   7.480   9.003  11.910
54606SOL    HW265716   7.459   8.876  11.990
54607SOL     OW65717   6.680  14.028   7.832
54607SOL    HW165718   6.737  13.952   7.825
54607SOL    HW265719   6.739  14.101   7.851
54608SOL     OW65720   9.583   0.808   5.723
54608SOL    HW165721   9.511   0.752   5.694
54608SOL    HW265722   9.551   0.897   5.710
54609SOL     OW65723   9.290  11.211   1.727
54609SOL    HW165724   9.303  11.236   1.636
54609SOL    HW265725   9.236  11.133   1.724
54610SOL     OW65726   3.144   9.554   5.953
54610SOL    HW165727   3.120   9.580   6.042
54610SOL    HW265728   3.234   9.583   5.943
54611SOL     OW65729  13.043   1.319   2.704
54611SOL    HW165730  13.134   1.348   2.697
54611SOL    HW265731  13.043   1.258   2.777
54612SOL     OW65732   0.543  14.329   3.321
54612SOL    HW165733   0.461  14.303   3.363
54612SOL    HW265734   0.522  14.411   3.276
54613SOL     OW65735   9.579   0.828   9.139
54613SOL    HW165736   9.607   0.875   9.060
54613SOL    HW265737   9.638   0.753   9.144
54614SOL     OW65738  13.481   0.905   0.097
54614SOL    HW165739  13.514   0.825   0.139
54614SOL    HW265740  13.499   0.893   0.004
54615SOL     OW65741  10.418   4.974   0.792
54615SOL    HW165742  10.466   5.023   0.726
54615SOL    HW265743  10.471   4.896   0.808
54616SOL     OW65744  12.945   0.222   4.832
54616SOL    HW165745  13.031   0.232   4.874
54616SOL    HW265746  12.920   0.132   4.848
54617SOL     OW65747  13.846   8.525   5.658
54617SOL    HW165748  13.832   8.557   5.747
54617SOL    HW265749  13.849   8.429   5.667
54618SOL     OW65750   2.956   0.602   9.657
54618SOL    HW165751   2.973   0.657   9.734
54618SOL    HW265752   3.041   0.590   9.617
54619SOL     OW65753   1.361   3.058  10.145
54619SOL    HW165754   1.402   2.975  10.171
54619SOL    HW265755   1.361   3.110  10.225
54620SOL     OW65756   5.011   9.663   8.937
54620SOL    HW165757   5.058   9.744   8.913
54620SOL    HW265758   4.981   9.679   9.026
54621SOL     OW65759   5.236   8.641  11.755
54621SOL    HW165760   5.236   8.736  11.768
54621SOL    HW265761   5.168   8.626  11.689
54622SOL     OW65762   6.341   5.273   3.770
54622SOL    HW165763   6.300   5.359   3.782
54622SOL    HW265764   6.422   5.292   3.723
54623SOL     OW65765   0.870   4.774   2.977
54623SOL    HW165766   0.939   4.714   2.949
54623SOL    HW265767   0.847   4.823   2.898
54624SOL     OW65768   7.120  12.209  12.191
54624SOL    HW165769   7.120  12.303  12.173
54624SOL    HW265770   7.192  12.197  12.254
54625SOL     OW65771  12.845   6.319  10.889
54625SOL    HW165772  12.916   6.335  10.951
54625SOL    HW265773  12.793   6.399  10.890
54626SOL     OW65774   8.590   0.603  12.372
54626SOL    HW165775   8.598   0.691  12.409
54626SOL    HW265776   8.642   0.607  12.292
54627SOL     OW65777  13.459  12.505   9.548
54627SOL    HW165778  13.422  12.441   9.609
54627SOL    HW265779  13.417  12.588   9.572
54628SOL     OW65780  13.453  13.783  11.922
54628SOL    HW165781  13.542  13.773  11.956
54628SOL    HW265782  13.412  13.847  11.980
54629SOL     OW65783   5.355  12.760   3.157
54629SOL    HW165784   5.342  12.719   3.242
54629SOL    HW265785   5.438  12.724   3.125
54630SOL     OW65786   3.700   8.800   0.923
54630SOL    HW165787   3.740   8.879   0.961
54630SOL    HW265788   3.622   8.785   0.977
54631SOL     OW65789   0.650   5.655  12.614
54631SOL    HW165790   0.656   5.615  12.700
54631SOL    HW265791   0.677   5.586  12.553
54632SOL     OW65792  12.565   2.155  10.494
54632SOL    HW165793  12.488   2.205  10.466
54632SOL    HW265794  12.556   2.070  10.450
54633SOL     OW65795   1.323  12.401  10.235
54633SOL    HW165796   1.281  12.336  10.291
54633SOL    HW265797   1.293  12.379  10.147
54634SOL     OW65798   6.654  12.521   2.333
54634SOL    HW165799   6.622  12.532   2.244
54634SOL    HW265800   6.597  12.577   2.386
54635SOL     OW65801   3.862  12.019   3.797
54635SOL    HW165802   3.815  12.102   3.798
54635SOL    HW265803   3.932  12.031   3.733
54636SOL     OW65804   1.733  12.762   1.147
54636SOL    HW165805   1.727  12.674   1.185
54636SOL    HW265806   1.791  12.810   1.206
54637SOL     OW65807   1.255   2.426  11.910
54637SOL    HW165808   1.258   2.476  11.829
54637SOL    HW265809   1.323   2.465  11.964
54638SOL     OW65810  11.717   1.117   5.656
54638SOL    HW165811  11.793   1.157   5.698
54638SOL    HW265812  11.735   1.123   5.562
54639SOL     OW65813   9.059   4.110   1.233
54639SOL    HW165814   9.053   4.101   1.328
54639SOL    HW265815   9.068   4.020   1.201
54640SOL     OW65816  14.798   1.276   0.275
54640SOL    HW165817  14.846   1.220   0.213
54640SOL    HW265818  14.849   1.357   0.278
54641SOL     OW65819  12.473   7.181  10.567
54641SOL    HW165820  12.420   7.260  10.580
54641SOL    HW265821  12.453   7.154  10.477
54642SOL     OW65822   5.255   8.894  12.767
54642SOL    HW165823   5.253   8.938  12.852
54642SOL    HW265824   5.319   8.823  12.779
54643SOL     OW65825   5.646   2.292  14.052
54643SOL    HW165826   5.663   2.278  14.145
54643SOL    HW265827   5.567   2.241  14.034
54644SOL     OW65828   8.671   3.969  12.464
54644SOL    HW165829   8.688   3.993  12.373
54644SOL    HW265830   8.610   3.896  12.459
54645SOL     OW65831   8.854  14.848   0.538
54645SOL    HW165832   8.880   0.049   0.475
54645SOL    HW265833   8.888   0.011   0.622
54646SOL     OW65834  12.444  14.477   1.695
54646SOL    HW165835  12.385  14.475   1.620
54646SOL    HW265836  12.392  14.444   1.768
54647SOL     OW65837   0.411  11.418  14.298
54647SOL    HW165838   0.447  11.341  14.252
54647SOL    HW265839   0.460  11.492  14.263
54648SOL     OW65840  12.918   6.697  12.398
54648SOL    HW165841  12.937   6.761  12.330
54648SOL    HW265842  12.869   6.628  12.353
54649SOL     OW65843   1.253   0.466  10.174
54649SOL    HW165844   1.189   0.524  10.215
54649SOL    HW265845   1.301   0.523  10.114
54650SOL     OW65846  11.982  11.355   7.002
54650SOL    HW165847  11.895  11.315   7.009
54650SOL    HW265848  11.991  11.377   6.909
54651SOL     OW65849   0.309  10.236   5.085
54651SOL    HW165850   0.354  10.245   5.170
54651SOL    HW265851   0.227  10.284   5.097
54652SOL     OW65852   1.726   1.554   2.209
54652SOL    HW165853   1.639   1.533   2.173
54652SOL    HW265854   1.712   1.633   2.261
54653SOL     OW65855   2.811  14.688   9.538
54653SOL    HW165856   2.769  14.708   9.621
54653SOL    HW265857   2.862  14.766   9.517
54654SOL     OW65858   7.533   7.766   5.744
54654SOL    HW165859   7.487   7.787   5.662
54654SOL    HW265860   7.465   7.731   5.801
54655SOL     OW65861   5.805  12.177  13.235
54655SOL    HW165862   5.836  12.260  13.270
54655SOL    HW265863   5.715  12.170  13.267
54656SOL     OW65864  10.146   8.715   4.507
54656SOL    HW165865  10.115   8.805   4.518
54656SOL    HW265866  10.164   8.685   4.596
54657SOL     OW65867  10.934   8.425   6.359
54657SOL    HW165868  10.861   8.453   6.304
54657SOL    HW265869  10.923   8.330   6.366
54658SOL     OW65870  11.046   2.572   3.849
54658SOL    HW165871  11.125   2.622   3.873
54658SOL    HW265872  10.991   2.577   3.928
54659SOL     OW65873  10.262   8.308   5.225
54659SOL    HW165874  10.252   8.259   5.307
54659SOL    HW265875  10.263   8.399   5.252
54660SOL     OW65876  10.112   4.569  14.432
54660SOL    HW165877  10.186   4.626  14.411
54660SOL    HW265878  10.101   4.579  14.527
54661SOL     OW65879   7.061   5.303   9.573
54661SOL    HW165880   7.060   5.226   9.631
54661SOL    HW265881   6.969   5.331   9.569
54662SOL     OW65882  12.322   2.244   1.158
54662SOL    HW165883  12.248   2.305   1.153
54662SOL    HW265884  12.364   2.250   1.072
54663SOL     OW65885  13.541   3.292   4.692
54663SOL    HW165886  13.543   3.381   4.727
54663SOL    HW265887  13.634   3.267   4.686
54664SOL     OW65888  10.856   0.057   7.981
54664SOL    HW165889  10.893   0.103   8.057
54664SOL    HW265890  10.931   0.040   7.924
54665SOL     OW65891   5.565  13.192  13.974
54665SOL    HW165892   5.608  13.166  14.056
54665SOL    HW265893   5.561  13.287  13.978
54666SOL     OW65894  10.564   4.882   0.304
54666SOL    HW165895  10.526   4.944   0.241
54666SOL    HW265896  10.496   4.871   0.371
54667SOL     OW65897  10.879   3.282   4.986
54667SOL    HW165898  10.920   3.195   4.991
54667SOL    HW265899  10.792   3.269   5.022
54668SOL     OW65900   4.521   0.089  11.625
54668SOL    HW165901   4.567   0.172  11.613
54668SOL    HW265902   4.507   0.083  11.720
54669SOL     OW65903  11.425  12.000   5.674
54669SOL    HW165904  11.379  11.955   5.745
54669SOL    HW265905  11.477  12.067   5.718
54670SOL     OW65906   6.791   8.619  14.661
54670SOL    HW165907   6.711   8.592  14.707
54670SOL    HW265908   6.855   8.552  14.682
54671SOL     OW65909   2.513  11.709   5.548
54671SOL    HW165910   2.441  11.745   5.599
54671SOL    HW265911   2.560  11.786   5.516
54672SOL     OW65912   6.053  11.454  11.126
54672SOL    HW165913   6.047  11.383  11.190
54672SOL    HW265914   6.008  11.420  11.048
54673SOL     OW65915   5.450  13.724  13.047
54673SOL    HW165916   5.409  13.797  13.092
54673SOL    HW265917   5.529  13.761  13.007
54674SOL     OW65918   4.845  10.253   9.410
54674SOL    HW165919   4.798  10.205   9.478
54674SOL    HW265920   4.883  10.185   9.354
54675SOL     OW65921   6.136  11.216  14.717
54675SOL    HW165922   6.100  11.257  14.795
54675SOL    HW265923   6.071  11.233  14.649
54676SOL     OW65924   2.534  12.097   3.235
54676SOL    HW165925   2.454  12.048   3.251
54676SOL    HW265926   2.585  12.087   3.315
54677SOL     OW65927   6.140   9.912  10.110
54677SOL    HW165928   6.149   9.816  10.111
54677SOL    HW265929   6.050   9.927  10.084
54678SOL     OW65930  13.816   1.349   9.319
54678SOL    HW165931  13.783   1.432   9.355
54678SOL    HW265932  13.768   1.339   9.236
54679SOL     OW65933   9.813   9.336   8.419
54679SOL    HW165934   9.891   9.331   8.365
54679SOL    HW265935   9.766   9.413   8.387
54680SOL     OW65936   3.706   7.071   8.603
54680SOL    HW165937   3.754   7.110   8.676
54680SOL    HW265938   3.670   7.146   8.555
54681SOL     OW65939   0.569   7.878  14.036
54681SOL    HW165940   0.611   7.907  14.117
54681SOL    HW265941   0.634   7.894  13.968
54682SOL     OW65942  12.887   3.030   8.432
54682SOL    HW165943  12.855   3.000   8.518
54682SOL    HW265944  12.976   2.995   8.426
54683SOL     OW65945   1.352   7.310   2.601
54683SOL    HW165946   1.324   7.363   2.675
54683SOL    HW265947   1.347   7.369   2.526
54684SOL     OW65948  11.007   1.398  14.039
54684SOL    HW165949  11.011   1.465  13.971
54684SOL    HW265950  11.098   1.379  14.059
54685SOL     OW65951   9.637   4.788   1.652
54685SOL    HW165952   9.647   4.718   1.587
54685SOL    HW265953   9.658   4.747   1.736
54686SOL     OW65954   8.393   9.105   7.272
54686SOL    HW165955   8.438   9.132   7.352
54686SOL    HW265956   8.344   9.027   7.298
54687SOL     OW65957   7.252   8.441   9.748
54687SOL    HW165958   7.337   8.431   9.792
54687SOL    HW265959   7.190   8.452   9.820
54688SOL     OW65960  10.290  11.321   3.666
54688SOL    HW165961  10.371  11.276   3.644
54688SOL    HW265962  10.221  11.257   3.651
54689SOL     OW65963   8.461   8.924   4.124
54689SOL    HW165964   8.522   8.874   4.180
54689SOL    HW265965   8.408   8.974   4.186
54690SOL     OW65966  12.667  13.135   3.662
54690SOL    HW165967  12.618  13.075   3.717
54690SOL    HW265968  12.694  13.205   3.721
54691SOL     OW65969  13.494   6.022  13.883
54691SOL    HW165970  13.562   6.070  13.932
54691SOL    HW265971  13.427   6.003  13.949
54692SOL     OW65972   4.732   5.307   2.262
54692SOL    HW165973   4.666   5.375   2.254
54692SOL    HW265974   4.710   5.243   2.195
54693SOL     OW65975  12.348   5.257  11.595
54693SOL    HW165976  12.340   5.315  11.519
54693SOL    HW265977  12.264   5.210  11.597
54694SOL     OW65978   3.847   6.505  11.260
54694SOL    HW165979   3.768   6.454  11.240
54694SOL    HW265980   3.841   6.581  11.202
54695SOL     OW65981   7.275  10.631   7.535
54695SOL    HW165982   7.337  10.695   7.569
54695SOL    HW265983   7.289  10.553   7.589
54696SOL     OW65984   4.271  13.320   2.846
54696SOL    HW165985   4.305  13.402   2.811
54696SOL    HW265986   4.185  13.310   2.806
54697SOL     OW65987  14.136  12.657  13.863
54697SOL    HW165988  14.184  12.738  13.881
54697SOL    HW265989  14.135  12.651  13.767
54698SOL     OW65990   1.606  12.922   0.962
54698SOL    HW165991   1.557  12.986   1.012
54698SOL    HW265992   1.636  12.858   1.027
54699SOL     OW65993  10.880   7.524   9.610
54699SOL    HW165994  10.887   7.610   9.650
54699SOL    HW265995  10.809   7.481   9.657
54700SOL     OW65996  12.435  12.796   1.070
54700SOL    HW165997  12.449  12.703   1.051
54700SOL    HW265998  12.357  12.819   1.020
54701SOL     OW65999   2.639   7.226   7.118
54701SOL    HW166000   2.576   7.274   7.065
54701SOL    HW266001   2.706   7.291   7.142
54702SOL     OW66002  12.199   9.209   1.362
54702SOL    HW166003  12.113   9.169   1.347
54702SOL    HW266004  12.198   9.290   1.310
54703SOL     OW66005   8.733   8.451   2.485
54703SOL    HW166006   8.730   8.358   2.466
54703SOL    HW266007   8.658   8.466   2.543
54704SOL     OW66008  13.687  13.459   6.411
54704SOL    HW166009  13.735  13.477   6.330
54704SOL    HW266010  13.724  13.377   6.443
54705SOL     OW66011  11.513  11.901  13.790
54705SOL    HW166012  11.489  11.896  13.697
54705SOL    HW266013  11.534  11.993  13.805
54706SOL     OW66014   6.755   4.345   3.653
54706SOL    HW166015   6.721   4.282   3.589
54706SOL    HW266016   6.710   4.323   3.734
54707SOL     OW66017   9.549   3.192   6.629
54707SOL    HW166018   9.495   3.168   6.554
54707SOL    HW266019   9.504   3.152   6.704
54708SOL     OW66020   6.976   8.548  10.654
54708SOL    HW166021   6.906   8.568  10.592
54708SOL    HW266022   6.930   8.511  10.730
54709SOL     OW66023   5.129  11.726   3.478
54709SOL    HW166024   5.208  11.681   3.507
54709SOL    HW266025   5.148  11.819   3.495
54710SOL     OW66026   6.508   8.899   1.007
54710SOL    HW166027   6.569   8.938   1.070
54710SOL    HW266028   6.447   8.969   0.986
54711SOL     OW66029   4.594   0.069   3.956
54711SOL    HW166030   4.587   0.157   3.918
54711SOL    HW266031   4.652   0.021   3.897
54712SOL     OW66032  10.216  13.748  11.781
54712SOL    HW166033  10.148  13.805  11.816
54712SOL    HW266034  10.192  13.660  11.808
54713SOL     OW66035  10.791  14.731   8.705
54713SOL    HW166036  10.775  14.759   8.795
54713SOL    HW266037  10.816  14.639   8.713
54714SOL     OW66038  12.693   1.207   3.637
54714SOL    HW166039  12.646   1.289   3.652
54714SOL    HW266040  12.698   1.199   3.542
54715SOL     OW66041   6.249   6.511  12.919
54715SOL    HW166042   6.322   6.571  12.930
54715SOL    HW266043   6.238   6.504  12.824
54716SOL     OW66044   2.236   2.195  14.551
54716SOL    HW166045   2.272   2.271  14.505
54716SOL    HW266046   2.252   2.122  14.491
54717SOL     OW66047  14.466  11.843   2.207
54717SOL    HW166048  14.516  11.923   2.218
54717SOL    HW266049  14.522  11.786   2.154
54718SOL     OW66050  13.616   4.878   3.211
54718SOL    HW166051  13.662   4.959   3.191
54718SOL    HW266052  13.546   4.905   3.270
54719SOL     OW66053   0.828   1.943   3.153
54719SOL    HW166054   0.756   1.937   3.215
54719SOL    HW266055   0.787   1.930   3.067
54720SOL     OW66056   3.457   3.808   4.415
54720SOL    HW166057   3.457   3.903   4.405
54720SOL    HW266058   3.413   3.776   4.336
54721SOL     OW66059  13.233   9.441  10.938
54721SOL    HW166060  13.293   9.415  10.869
54721SOL    HW266061  13.283   9.502  10.993
54722SOL     OW66062   3.076   7.519   0.753
54722SOL    HW166063   3.092   7.534   0.846
54722SOL    HW266064   3.123   7.438   0.732
54723SOL     OW66065   8.835   4.095  10.951
54723SOL    HW166066   8.790   4.029  11.004
54723SOL    HW266067   8.780   4.104  10.873
54724SOL     OW66068   4.281   2.608   8.367
54724SOL    HW166069   4.340   2.552   8.417
54724SOL    HW266070   4.309   2.697   8.387
54725SOL     OW66071   5.732   5.679   6.673
54725SOL    HW166072   5.766   5.591   6.690
54725SOL    HW266073   5.811   5.731   6.653
54726SOL     OW66074   4.157   2.596  13.238
54726SOL    HW166075   4.138   2.503  13.232
54726SOL    HW266076   4.111   2.635  13.164
54727SOL     OW66077   3.138   8.133   7.803
54727SOL    HW166078   3.120   8.165   7.892
54727SOL    HW266079   3.167   8.043   7.816
54728SOL     OW66080   0.767   9.527   0.774
54728SOL    HW166081   0.724   9.461   0.719
54728SOL    HW266082   0.743   9.503   0.863
54729SOL     OW66083  12.300   6.839  11.047
54729SOL    HW166084  12.349   6.821  10.967
54729SOL    HW266085  12.354   6.801  11.117
54730SOL     OW66086   4.647   6.897   7.580
54730SOL    HW166087   4.580   6.922   7.515
54730SOL    HW266088   4.608   6.823   7.626
54731SOL     OW66089  12.911  14.631  10.924
54731SOL    HW166090  12.962  14.693  10.976
54731SOL    HW266091  12.893  14.677  10.843
54732SOL     OW66092   0.752  10.854   0.742
54732SOL    HW166093   0.729  10.762   0.749
54732SOL    HW266094   0.681  10.900   0.787
54733SOL     OW66095  11.233  14.396  12.564
54733SOL    HW166096  11.245  14.416  12.471
54733SOL    HW266097  11.142  14.420  12.582
54734SOL     OW66098   2.331   7.839   9.892
54734SOL    HW166099   2.282   7.780   9.833
54734SOL    HW266100   2.281   7.921   9.890
54735SOL     OW66101   5.739   3.034  10.762
54735SOL    HW166102   5.832   3.028  10.785
54735SOL    HW266103   5.735   3.108  10.702
54736SOL     OW66104   4.349  10.136   0.091
54736SOL    HW166105   4.312  10.194   0.158
54736SOL    HW266106   4.385  10.196   0.025
54737SOL     OW66107  11.907   7.275  11.469
54737SOL    HW166108  11.980   7.268  11.407
54737SOL    HW266109  11.880   7.366  11.462
54738SOL     OW66110   0.465   1.896   7.581
54738SOL    HW166111   0.408   1.827   7.614
54738SOL    HW266112   0.529   1.850   7.526
54739SOL     OW66113   7.384   2.177  14.791
54739SOL    HW166114   7.320   2.147  14.727
54739SOL    HW266115   7.468   2.170  14.746
54740SOL     OW66116   7.530   0.616   9.714
54740SOL    HW166117   7.453   0.643   9.764
54740SOL    HW266118   7.494   0.580   9.633
54741SOL     OW66119   0.248   7.050  13.335
54741SOL    HW166120   0.218   6.966  13.371
54741SOL    HW266121   0.279   7.028  13.247
54742SOL     OW66122   1.752   7.711   1.324
54742SOL    HW166123   1.743   7.656   1.246
54742SOL    HW266124   1.807   7.660   1.383
54743SOL     OW66125   2.310   8.735  13.162
54743SOL    HW166126   2.348   8.731  13.250
54743SOL    HW266127   2.220   8.705  13.174
54744SOL     OW66128   0.442   2.494   2.921
54744SOL    HW166129   0.354   2.496   2.883
54744SOL    HW266130   0.496   2.455   2.852
54745SOL     OW66131   8.624   5.907   1.849
54745SOL    HW166132   8.627   5.877   1.758
54745SOL    HW266133   8.623   6.002   1.843
54746SOL     OW66134  14.429  13.856   9.167
54746SOL    HW166135  14.420  13.818   9.255
54746SOL    HW266136  14.432  13.781   9.109
54747SOL     OW66137   0.204   4.229  12.819
54747SOL    HW166138   0.167   4.312  12.848
54747SOL    HW266139   0.129   4.179  12.787
54748SOL     OW66140   2.369   2.722   9.054
54748SOL    HW166141   2.277   2.745   9.050
54748SOL    HW266142   2.376   2.662   9.128
54749SOL     OW66143  13.936   9.346   2.622
54749SOL    HW166144  13.880   9.423   2.636
54749SOL    HW266145  13.887   9.292   2.560
54750SOL     OW66146   7.281   3.226   9.696
54750SOL    HW166147   7.351   3.216   9.760
54750SOL    HW266148   7.325   3.226   9.611
54751SOL     OW66149   1.811   5.973   5.967
54751SOL    HW166150   1.810   5.894   5.913
54751SOL    HW266151   1.903   5.995   5.978
54752SOL     OW66152   0.418   8.307   4.724
54752SOL    HW166153   0.452   8.396   4.733
54752SOL    HW266154   0.388   8.284   4.812
54753SOL     OW66155  13.004  13.868  14.726
54753SOL    HW166156  13.036  13.778  14.731
54753SOL    HW266157  13.050  13.906  14.652
54754SOL     OW66158  12.488  11.583   1.832
54754SOL    HW166159  12.553  11.598   1.900
54754SOL    HW266160  12.495  11.489   1.813
54755SOL     OW66161   2.569   3.096  13.917
54755SOL    HW166162   2.505   3.163  13.940
54755SOL    HW266163   2.644   3.145  13.884
54756SOL     OW66164   1.241   2.894   3.238
54756SOL    HW166165   1.324   2.850   3.219
54756SOL    HW266166   1.224   2.949   3.162
54757SOL     OW66167  12.922   8.270   8.216
54757SOL    HW166168  12.970   8.347   8.246
54757SOL    HW266169  12.988   8.201   8.212
54758SOL     OW66170   8.120   7.149   0.537
54758SOL    HW166171   8.146   7.060   0.563
54758SOL    HW266172   8.035   7.162   0.579
54759SOL     OW66173  13.563   9.067   4.914
54759SOL    HW166174  13.477   9.027   4.906
54759SOL    HW266175  13.618   9.017   4.854
54760SOL     OW66176   4.441   7.190   3.408
54760SOL    HW166177   4.426   7.130   3.336
54760SOL    HW266178   4.355   7.228   3.426
54761SOL     OW66179  14.413   0.456  14.633
54761SOL    HW166180  14.367   0.417  14.559
54761SOL    HW266181  14.437   0.382  14.689
54762SOL     OW66182  14.245   1.253   3.836
54762SOL    HW166183  14.203   1.268   3.921
54762SOL    HW266184  14.195   1.306   3.775
54763SOL     OW66185   8.311  10.542   7.858
54763SOL    HW166186   8.316  10.528   7.764
54763SOL    HW266187   8.219  10.561   7.876
54764SOL     OW66188   7.579   2.296  14.589
54764SOL    HW166189   7.573   2.390  14.574
54764SOL    HW266190   7.547   2.257  14.507
54765SOL     OW66191   0.180   1.349  10.813
54765SOL    HW166192   0.178   1.320  10.722
54765SOL    HW266193   0.104   1.405  10.823
54766SOL     OW66194   5.265   6.855  11.911
54766SOL    HW166195   5.222   6.791  11.967
54766SOL    HW266196   5.351   6.816  11.893
54767SOL     OW66197  13.812  11.169  13.560
54767SOL    HW166198  13.835  11.096  13.503
54767SOL    HW266199  13.728  11.146  13.597
54768SOL     OW66200  12.967   0.805   0.054
54768SOL    HW166201  12.911   0.727   0.063
54768SOL    HW266202  13.033   0.779  14.858
54769SOL     OW66203   9.680   0.187   1.832
54769SOL    HW166204   9.690   0.273   1.873
54769SOL    HW266205   9.586   0.168   1.839
54770SOL     OW66206  12.655  12.104   1.349
54770SOL    HW166207  12.716  12.131   1.280
54770SOL    HW266208  12.585  12.058   1.302
54771SOL     OW66209   2.441  11.966  10.166
54771SOL    HW166210   2.438  12.042  10.108
54771SOL    HW266211   2.533  11.957  10.189
54772SOL     OW66212   5.409   1.334  12.768
54772SOL    HW166213   5.315   1.319  12.757
54772SOL    HW266214   5.449   1.281  12.699
54773SOL     OW66215  11.662   7.083   3.072
54773SOL    HW166216  11.730   7.091   3.139
54773SOL    HW266217  11.585   7.126   3.110
54774SOL     OW66218   8.139   4.914   7.803
54774SOL    HW166219   8.124   4.820   7.818
54774SOL    HW266220   8.083   4.936   7.729
54775SOL     OW66221   6.031   9.948   1.343
54775SOL    HW166222   6.010   9.986   1.429
54775SOL    HW266223   6.037  10.023   1.284
54776SOL     OW66224   4.594   1.239   3.057
54776SOL    HW166225   4.600   1.263   3.149
54776SOL    HW266226   4.625   1.148   3.054
54777SOL     OW66227   9.747  13.541   6.691
54777SOL    HW166228   9.793  13.539   6.607
54777SOL    HW266229   9.730  13.449   6.710
54778SOL     OW66230   3.736  13.103  11.259
54778SOL    HW166231   3.643  13.122  11.251
54778SOL    HW266232   3.780  13.183  11.231
54779SOL     OW66233   4.194  14.675  13.512
54779SOL    HW166234   4.115  14.714  13.548
54779SOL    HW266235   4.163  14.617  13.442
54780SOL     OW66236  12.908  14.782   8.544
54780SOL    HW166237  12.860  14.855   8.583
54780SOL    HW266238  12.913  14.804   8.450
54781SOL     OW66239   5.370  10.991  12.074
54781SOL    HW166240   5.450  10.954  12.036
54781SOL    HW266241   5.336  11.050  12.007
54782SOL     OW66242   5.000   3.427   2.856
54782SOL    HW166243   5.031   3.514   2.882
54782SOL    HW266244   5.050   3.407   2.776
54783SOL     OW66245   8.423   5.096   5.277
54783SOL    HW166246   8.366   5.096   5.354
54783SOL    HW266247   8.452   5.187   5.268
54784SOL     OW66248  11.092  11.026   1.399
54784SOL    HW166249  11.155  11.096   1.413
54784SOL    HW266250  11.066  10.999   1.488
54785SOL     OW66251   2.925   8.419   6.196
54785SOL    HW166252   2.956   8.464   6.275
54785SOL    HW266253   3.000   8.420   6.137
54786SOL     OW66254   5.145   4.049   2.983
54786SOL    HW166255   5.151   4.001   2.901
54786SOL    HW266256   5.102   3.988   3.043
54787SOL     OW66257   9.754  11.479   5.683
54787SOL    HW166258   9.737  11.468   5.589
54787SOL    HW266259   9.736  11.393   5.720
54788SOL     OW66260  10.989   6.127   5.902
54788SOL    HW166261  10.905   6.084   5.917
54788SOL    HW266262  11.047   6.058   5.871
54789SOL     OW66263  13.708  11.026  10.775
54789SOL    HW166264  13.700  11.121  10.777
54789SOL    HW266265  13.722  11.005  10.683
54790SOL     OW66266  10.304  12.484   0.898
54790SOL    HW166267  10.239  12.436   0.847
54790SOL    HW266268  10.388  12.463   0.858
54791SOL     OW66269   1.864   6.926   4.168
54791SOL    HW166270   1.804   6.959   4.102
54791SOL    HW266271   1.903   6.848   4.128
54792SOL     OW66272  10.160   6.406   5.773
54792SOL    HW166273  10.136   6.463   5.699
54792SOL    HW266274  10.242   6.365   5.746
54793SOL     OW66275   9.353   7.638  13.470
54793SOL    HW166276   9.404   7.643  13.552
54793SOL    HW266277   9.299   7.560  13.480
54794SOL     OW66278   2.166   4.183   5.836
54794SOL    HW166279   2.157   4.276   5.856
54794SOL    HW266280   2.077   4.153   5.818
54795SOL     OW66281   7.711   8.359   1.403
54795SOL    HW166282   7.656   8.433   1.379
54795SOL    HW266283   7.703   8.351   1.498
54796SOL     OW66284   4.979  13.798   7.851
54796SOL    HW166285   4.986  13.881   7.805
54796SOL    HW266286   4.926  13.818   7.928
54797SOL     OW66287  11.693   6.004  14.598
54797SOL    HW166288  11.602   5.984  14.579
54797SOL    HW266289  11.691   6.090  14.641
54798SOL     OW66290   7.120  12.373   5.904
54798SOL    HW166291   7.169  12.314   5.962
54798SOL    HW266292   7.185  12.435   5.872
54799SOL     OW66293   9.394   2.801   1.801
54799SOL    HW166294   9.364   2.874   1.747
54799SOL    HW266295   9.356   2.724   1.760
54800SOL     OW66296   4.965   0.501   9.289
54800SOL    HW166297   5.044   0.499   9.344
54800SOL    HW266298   4.995   0.538   9.206
54801SOL     OW66299  12.961   7.872   4.454
54801SOL    HW166300  12.996   7.821   4.380
54801SOL    HW266301  12.904   7.936   4.413
54802SOL     OW66302  13.546   6.010   0.385
54802SOL    HW166303  13.603   6.032   0.459
54802SOL    HW266304  13.587   5.933   0.345
54803SOL     OW66305   0.791  11.660   2.197
54803SOL    HW166306   0.714  11.603   2.197
54803SOL    HW266307   0.865  11.600   2.199
54804SOL     OW66308   0.323  10.241   7.354
54804SOL    HW166309   0.377  10.184   7.409
54804SOL    HW266310   0.255  10.274   7.413
54805SOL     OW66311   5.967   5.895  14.591
54805SOL    HW166312   5.904   5.861  14.528
54805SOL    HW266313   5.999   5.977  14.551
54806SOL     OW66314   1.889   9.827   7.131
54806SOL    HW166315   1.800   9.825   7.166
54806SOL    HW266316   1.878   9.826   7.036
54807SOL     OW66317   5.996   4.136   5.663
54807SOL    HW166318   5.964   4.085   5.588
54807SOL    HW266319   5.972   4.226   5.642
54808SOL     OW66320   5.582  13.475  13.926
54808SOL    HW166321   5.667  13.501  13.891
54808SOL    HW266322   5.564  13.538  13.996
54809SOL     OW66323  13.000   4.891   3.054
54809SOL    HW166324  12.982   4.903   3.147
54809SOL    HW266325  13.033   4.801   3.048
54810SOL     OW66326   5.816   1.245  14.777
54810SOL    HW166327   5.743   1.231  14.837
54810SOL    HW266328   5.875   1.304  14.824
54811SOL     OW66329   3.462   4.241  14.562
54811SOL    HW166330   3.459   4.313  14.499
54811SOL    HW266331   3.547   4.198  14.545
54812SOL     OW66332  12.452   8.890   6.125
54812SOL    HW166333  12.397   8.813   6.133
54812SOL    HW266334  12.391   8.964   6.128
54813SOL     OW66335   5.072   0.023  13.486
54813SOL    HW166336   5.003   0.067  13.437
54813SOL    HW266337   5.080  14.805  13.443
54814SOL     OW66338  13.396  12.818   9.282
54814SOL    HW166339  13.486  12.789   9.287
54814SOL    HW266340  13.385  12.875   9.359
54815SOL     OW66341  11.960   6.638   5.426
54815SOL    HW166342  11.964   6.733   5.418
54815SOL    HW266343  11.882   6.613   5.377
54816SOL     OW66344   2.618   3.548   0.296
54816SOL    HW166345   2.574   3.566   0.214
54816SOL    HW266346   2.709   3.529   0.272
54817SOL     OW66347   0.789   8.704   6.959
54817SOL    HW166348   0.743   8.634   6.912
54817SOL    HW266349   0.745   8.784   6.930
54818SOL     OW66350  10.168  11.881   2.751
54818SOL    HW166351  10.258  11.894   2.780
54818SOL    HW266352  10.130  11.820   2.814
54819SOL     OW66353   5.307  10.120  13.240
54819SOL    HW166354   5.272  10.174  13.169
54819SOL    HW266355   5.229  10.089  13.287
54820SOL     OW66356  12.700   9.379   9.195
54820SOL    HW166357  12.728   9.297   9.154
54820SOL    HW266358  12.632   9.353   9.257
54821SOL     OW66359   0.728  10.647   8.080
54821SOL    HW166360   0.821  10.646   8.104
54821SOL    HW266361   0.727  10.618   7.989
54822SOL     OW66362  10.679   6.836   0.074
54822SOL    HW166363  10.676   6.836  14.846
54822SOL    HW266364  10.616   6.770   0.100
54823SOL     OW66365  13.342   6.502   3.235
54823SOL    HW166366  13.402   6.503   3.309
54823SOL    HW266367  13.319   6.594   3.221
54824SOL     OW66368   2.780   0.256  10.910
54824SOL    HW166369   2.745   0.269  10.821
54824SOL    HW266370   2.846   0.324  10.920
54825SOL     OW66371   4.042   7.538   1.637
54825SOL    HW166372   4.113   7.488   1.597
54825SOL    HW266373   3.981   7.470   1.668
54826SOL     OW66374   8.934   3.506   9.002
54826SOL    HW166375   9.024   3.536   9.013
54826SOL    HW266376   8.895   3.514   9.089
54827SOL     OW66377   9.718  11.046   5.563
54827SOL    HW166378   9.750  11.067   5.475
54827SOL    HW266379   9.774  11.096   5.621
54828SOL     OW66380   4.019  10.387   8.978
54828SOL    HW166381   4.000  10.355   8.890
54828SOL    HW266382   4.067  10.316   9.020
54829SOL     OW66383   5.703   0.079   6.679
54829SOL    HW166384   5.796   0.099   6.693
54829SOL    HW266385   5.668   0.156   6.636
54830SOL     OW66386   1.250   3.849   9.834
54830SOL    HW166387   1.233   3.923   9.777
54830SOL    HW266388   1.340   3.822   9.813
54831SOL     OW66389   7.197   5.519   8.819
54831SOL    HW166390   7.222   5.604   8.784
54831SOL    HW266391   7.101   5.521   8.819
54832SOL     OW66392   0.494   4.804   9.888
54832SOL    HW166393   0.487   4.814   9.793
54832SOL    HW266394   0.515   4.892   9.919
54833SOL     OW66395   1.883   6.213  13.968
54833SOL    HW166396   1.858   6.155  13.897
54833SOL    HW266397   1.909   6.295  13.925
54834SOL     OW66398   1.863  13.804   7.919
54834SOL    HW166399   1.955  13.778   7.923
54834SOL    HW266400   1.864  13.886   7.870
54835SOL     OW66401  14.010   1.666  12.842
54835SOL    HW166402  13.970   1.747  12.811
54835SOL    HW266403  14.054   1.629  12.766
54836SOL     OW66404   3.586   5.553   3.674
54836SOL    HW166405   3.612   5.463   3.695
54836SOL    HW266406   3.662   5.606   3.698
54837SOL     OW66407   9.851   5.985  13.657
54837SOL    HW166408   9.900   5.903  13.650
54837SOL    HW266409   9.873   6.020  13.743
54838SOL     OW66410   7.774   8.059   4.645
54838SOL    HW166411   7.827   8.002   4.589
54838SOL    HW266412   7.827   8.073   4.723
54839SOL     OW66413   6.424   8.839   9.463
54839SOL    HW166414   6.407   8.933   9.457
54839SOL    HW266415   6.347   8.804   9.507
54840SOL     OW66416   4.588   1.758   4.975
54840SOL    HW166417   4.650   1.822   4.942
54840SOL    HW266418   4.569   1.788   5.065
54841SOL     OW66419   5.883  11.065   0.136
54841SOL    HW166420   5.911  11.144   0.183
54841SOL    HW266421   5.846  11.008   0.204
54842SOL     OW66422   8.155  12.120   5.165
54842SOL    HW166423   8.246  12.135   5.190
54842SOL    HW266424   8.158  12.047   5.104
54843SOL     OW66425   1.866   5.264   5.775
54843SOL    HW166426   1.833   5.183   5.814
54843SOL    HW266427   1.787   5.310   5.745
54844SOL     OW66428   7.688   5.173   2.908
54844SOL    HW166429   7.596   5.157   2.928
54844SOL    HW266430   7.735   5.138   2.984
54845SOL     OW66431   2.100   3.111  11.848
54845SOL    HW166432   2.018   3.065  11.862
54845SOL    HW266433   2.165   3.058  11.894
54846SOL     OW66434  11.239   0.486  11.725
54846SOL    HW166435  11.227   0.554  11.791
54846SOL    HW266436  11.231   0.404  11.773
54847SOL     OW66437  10.768   1.037   5.327
54847SOL    HW166438  10.721   1.091   5.263
54847SOL    HW266439  10.762   0.948   5.293
54848SOL     OW66440  13.401   8.772   0.146
54848SOL    HW166441  13.409   8.858   0.105
54848SOL    HW266442  13.483   8.761   0.194
54849SOL     OW66443   4.157   8.007   8.903
54849SOL    HW166444   4.214   7.944   8.858
54849SOL    HW266445   4.159   7.980   8.995
54850SOL     OW66446   4.878   7.402   4.100
54850SOL    HW166447   4.971   7.400   4.119
54850SOL    HW266448   4.847   7.485   4.138
54851SOL     OW66449   4.891   4.439   5.524
54851SOL    HW166450   4.828   4.392   5.468
54851SOL    HW266451   4.839   4.508   5.565
54852SOL     OW66452   4.224   8.152  10.415
54852SOL    HW166453   4.262   8.072  10.449
54852SOL    HW266454   4.266   8.222  10.466
54853SOL     OW66455   0.072  14.641  12.448
54853SOL    HW166456   0.134  14.592  12.502
54853SOL    HW266457   0.125  14.708  12.405
54854SOL     OW66458   0.178   1.138   5.445
54854SOL    HW166459   0.216   1.201   5.384
54854SOL    HW266460   0.224   1.056   5.427
54855SOL     OW66461   2.056   7.955  14.061
54855SOL    HW166462   2.018   7.940  13.974
54855SOL    HW266463   2.101   8.039  14.053
54856SOL     OW66464   1.849   6.040   3.403
54856SOL    HW166465   1.759   6.072   3.416
54856SOL    HW266466   1.852   5.958   3.451
54857SOL     OW66467   7.897  14.195  11.399
54857SOL    HW166468   7.952  14.199  11.477
54857SOL    HW266469   7.860  14.107  11.400
54858SOL     OW66470   9.271   1.600  11.750
54858SOL    HW166471   9.208   1.613  11.820
54858SOL    HW266472   9.237   1.650  11.676
54859SOL     OW66473  12.700  12.353  10.732
54859SOL    HW166474  12.762  12.282  10.719
54859SOL    HW266475  12.685  12.355  10.826
54860SOL     OW66476   5.758   8.615  10.188
54860SOL    HW166477   5.667   8.596  10.211
54860SOL    HW266478   5.807   8.593  10.267
54861SOL     OW66479  10.913  13.552   9.773
54861SOL    HW166480  10.948  13.529   9.859
54861SOL    HW266481  10.847  13.485   9.756
54862SOL     OW66482  10.436  14.684   7.592
54862SOL    HW166483  10.421  14.626   7.666
54862SOL    HW266484  10.351  14.724   7.575
54863SOL     OW66485   4.450   7.548   9.738
54863SOL    HW166486   4.424   7.478   9.678
54863SOL    HW266487   4.541   7.566   9.716
54864SOL     OW66488   2.790   4.989  10.640
54864SOL    HW166489   2.726   5.025  10.578
54864SOL    HW266490   2.867   5.046  10.631
54865SOL     OW66491   6.493   8.037   5.865
54865SOL    HW166492   6.491   7.970   5.933
54865SOL    HW266493   6.419   8.015   5.808
54866SOL     OW66494  10.965   3.070   1.067
54866SOL    HW166495  10.912   2.998   1.032
54866SOL    HW266496  11.052   3.055   1.029
54867SOL     OW66497   2.607   5.652  14.772
54867SOL    HW166498   2.632   5.729  14.823
54867SOL    HW266499   2.548   5.686  14.705
54868SOL     OW66500   9.292   6.142   9.387
54868SOL    HW166501   9.276   6.204   9.457
54868SOL    HW266502   9.291   6.056   9.430
54869SOL     OW66503   6.549  14.316   2.247
54869SOL    HW166504   6.614  14.384   2.231
54869SOL    HW266505   6.483  14.330   2.178
54870SOL     OW66506   3.728   3.902  14.483
54870SOL    HW166507   3.785   3.846  14.431
54870SOL    HW266508   3.639   3.882  14.453
54871SOL     OW66509   4.153  12.403   2.463
54871SOL    HW166510   4.228  12.404   2.404
54871SOL    HW266511   4.134  12.496   2.479
54872SOL     OW66512   0.540  10.461   1.551
54872SOL    HW166513   0.616  10.518   1.566
54872SOL    HW266514   0.546  10.437   1.459
54873SOL     OW66515   7.856   3.188   7.933
54873SOL    HW166516   7.807   3.269   7.917
54873SOL    HW266517   7.790   3.119   7.929
54874SOL     OW66518   7.561   0.464   0.244
54874SOL    HW166519   7.531   0.537   0.298
54874SOL    HW266520   7.575   0.392   0.306
54875SOL     OW66521  11.597   7.617  11.333
54875SOL    HW166522  11.531   7.576  11.276
54875SOL    HW266523  11.578   7.711  11.328
54876SOL     OW66524   2.616  12.249   5.100
54876SOL    HW166525   2.524  12.271   5.083
54876SOL    HW266526   2.636  12.179   5.037
54877SOL     OW66527  10.805  14.220  12.509
54877SOL    HW166528  10.745  14.234  12.436
54877SOL    HW266529  10.891  14.214  12.469
54878SOL     OW66530   7.438  11.731   4.499
54878SOL    HW166531   7.432  11.659   4.436
54878SOL    HW266532   7.438  11.688   4.585
54879SOL     OW66533   9.199   1.724   9.508
54879SOL    HW166534   9.233   1.699   9.422
54879SOL    HW266535   9.121   1.777   9.488
54880SOL     OW66536   7.079   1.198   9.874
54880SOL    HW166537   7.007   1.172   9.932
54880SOL    HW266538   7.040   1.265   9.817
54881SOL     OW66539   5.835   3.304  12.887
54881SOL    HW166540   5.853   3.284  12.796
54881SOL    HW266541   5.880   3.388  12.903
54882SOL     OW66542  12.504  11.207  10.761
54882SOL    HW166543  12.543  11.285  10.721
54882SOL    HW266544  12.576  11.144  10.766
54883SOL     OW66545   7.184  12.242   4.766
54883SOL    HW166546   7.265  12.226   4.718
54883SOL    HW266547   7.147  12.321   4.727
54884SOL     OW66548   2.584   6.600   6.589
54884SOL    HW166549   2.545   6.615   6.503
54884SOL    HW266550   2.525   6.642   6.650
54885SOL     OW66551   0.250   7.777   3.629
54885SOL    HW166552   0.325   7.732   3.668
54885SOL    HW266553   0.279   7.868   3.619
54886SOL     OW66554   9.947  12.730   9.696
54886SOL    HW166555  10.040  12.735   9.675
54886SOL    HW266556   9.921  12.642   9.670
54887SOL     OW66557  11.735   5.444  11.487
54887SOL    HW166558  11.646   5.407  11.484
54887SOL    HW266559  11.792   5.367  11.490
54888SOL     OW66560   1.112  11.381   8.021
54888SOL    HW166561   1.021  11.406   8.037
54888SOL    HW266562   1.164  11.456   8.050
54889SOL     OW66563  14.112   8.402   6.936
54889SOL    HW166564  14.130   8.494   6.957
54889SOL    HW266565  14.017   8.396   6.938
54890SOL     OW66566   8.885   0.017   4.382
54890SOL    HW166567   8.859  14.819   4.446
54890SOL    HW266568   8.846   0.099   4.414
54891SOL     OW66569  12.287  10.083   8.352
54891SOL    HW166570  12.297  10.127   8.268
54891SOL    HW266571  12.319   9.994   8.338
54892SOL     OW66572   2.957  14.642   1.339
54892SOL    HW166573   2.991  14.608   1.256
54892SOL    HW266574   3.010  14.720   1.357
54893SOL     OW66575  12.382  10.683   2.019
54893SOL    HW166576  12.358  10.684   1.926
54893SOL    HW266577  12.477  10.667   2.019
54894SOL     OW66578  11.782   9.178   7.720
54894SOL    HW166579  11.763   9.110   7.784
54894SOL    HW266580  11.697   9.200   7.682
54895SOL     OW66581   4.105  13.004  11.290
54895SOL    HW166582   4.165  13.062  11.245
54895SOL    HW266583   4.059  13.059  11.353
54896SOL     OW66584   3.798   7.244   6.128
54896SOL    HW166585   3.841   7.298   6.062
54896SOL    HW266586   3.807   7.293   6.209
54897SOL     OW66587  11.224   8.835   6.246
54897SOL    HW166588  11.151   8.875   6.200
54897SOL    HW266589  11.184   8.766   6.299
54898SOL     OW66590   7.951  13.701   2.233
54898SOL    HW166591   7.884  13.768   2.233
54898SOL    HW266592   7.998  13.714   2.150
54899SOL     OW66593  13.993   5.867   7.963
54899SOL    HW166594  14.053   5.909   7.902
54899SOL    HW266595  13.964   5.938   8.021
54900SOL     OW66596  14.694   4.337   8.678
54900SOL    HW166597  14.783   4.360   8.706
54900SOL    HW266598  14.652   4.422   8.664
54901SOL     OW66599   1.417   2.586   6.035
54901SOL    HW166600   1.454   2.524   5.972
54901SOL    HW266601   1.323   2.565   6.036
54902SOL     OW66602  10.270  14.755  12.947
54902SOL    HW166603  10.203  14.797  12.893
54902SOL    HW266604  10.278  14.811  13.024
54903SOL     OW66605   2.309   8.795  10.654
54903SOL    HW166606   2.291   8.727  10.590
54903SOL    HW266607   2.396   8.829  10.630
54904SOL     OW66608   7.670  12.436   9.674
54904SOL    HW166609   7.742  12.483   9.715
54904SOL    HW266610   7.689  12.343   9.690
54905SOL     OW66611   2.481   5.625  12.199
54905SOL    HW166612   2.525   5.680  12.264
54905SOL    HW266613   2.551   5.599  12.138
54906SOL     OW66614   3.774   7.047  14.084
54906SOL    HW166615   3.811   7.014  14.002
54906SOL    HW266616   3.688   7.007  14.089
54907SOL     OW66617  14.074   5.471   8.281
54907SOL    HW166618  14.148   5.530   8.297
54907SOL    HW266619  14.049   5.489   8.190
54908SOL     OW66620  12.835   6.101   1.547
54908SOL    HW166621  12.838   6.069   1.457
54908SOL    HW266622  12.894   6.043   1.594
54909SOL     OW66623   7.994   5.320   2.191
54909SOL    HW166624   7.908   5.278   2.196
54909SOL    HW266625   8.045   5.277   2.260
54910SOL     OW66626   2.981   7.699   3.284
54910SOL    HW166627   3.056   7.683   3.341
54910SOL    HW266628   2.984   7.793   3.265
54911SOL     OW66629   3.593  12.022   2.142
54911SOL    HW166630   3.609  12.038   2.235
54911SOL    HW266631   3.680  12.004   2.105
54912SOL     OW66632   8.870   8.265   4.110
54912SOL    HW166633   8.935   8.196   4.104
54912SOL    HW266634   8.913   8.335   4.160
54913SOL     OW66635   6.827   8.285   8.365
54913SOL    HW166636   6.798   8.322   8.448
54913SOL    HW266637   6.885   8.351   8.328
54914SOL     OW66638  12.303   2.965  14.556
54914SOL    HW166639  12.388   3.003  14.578
54914SOL    HW266640  12.309   2.874  14.586
54915SOL     OW66641  14.460   3.524  13.014
54915SOL    HW166642  14.413   3.489  12.938
54915SOL    HW266643  14.401   3.591  13.049
54916SOL     OW66644   6.509   3.888   3.507
54916SOL    HW166645   6.542   3.836   3.580
54916SOL    HW266646   6.550   3.849   3.429
54917SOL     OW66647  14.729   7.867  14.540
54917SOL    HW166648  14.729   7.959  14.516
54917SOL    HW266649  14.639   7.838  14.527
54918SOL     OW66650   8.725   2.012   5.480
54918SOL    HW166651   8.771   2.082   5.434
54918SOL    HW266652   8.633   2.032   5.466
54919SOL     OW66653   1.175   2.763   1.978
54919SOL    HW166654   1.196   2.796   1.890
54919SOL    HW266655   1.203   2.833   2.037
54920SOL     OW66656   2.315  10.952   6.948
54920SOL    HW166657   2.303  10.858   6.964
54920SOL    HW266658   2.396  10.974   6.993
54921SOL     OW66659   1.585   2.281   9.709
54921SOL    HW166660   1.551   2.230   9.636
54921SOL    HW266661   1.574   2.224   9.785
54922SOL     OW66662   5.997   7.611  11.697
54922SOL    HW166663   5.917   7.619  11.749
54922SOL    HW266664   6.036   7.699  11.698
54923SOL     OW66665   6.638   7.230  10.923
54923SOL    HW166666   6.646   7.148  10.972
54923SOL    HW266667   6.727   7.250  10.895
54924SOL     OW66668   1.694   9.963   1.371
54924SOL    HW166669   1.628   9.896   1.352
54924SOL    HW266670   1.705  10.009   1.288
54925SOL     OW66671  14.342   3.992  12.967
54925SOL    HW166672  14.373   3.935  12.896
54925SOL    HW266673  14.410   3.985  13.034
54926SOL     OW66674  10.973   3.578   1.393
54926SOL    HW166675  10.892   3.611   1.354
54926SOL    HW266676  11.011   3.523   1.325
54927SOL     OW66677   3.753  14.440   3.241
54927SOL    HW166678   3.708  14.395   3.312
54927SOL    HW266679   3.688  14.446   3.171
54928SOL     OW66680  12.860   1.576   3.623
54928SOL    HW166681  12.793   1.641   3.600
54928SOL    HW266682  12.812   1.507   3.669
54929SOL     OW66683  12.305  12.501   8.710
54929SOL    HW166684  12.264  12.583   8.683
54929SOL    HW266685  12.375  12.528   8.769
54930SOL     OW66686  10.633   2.357   5.471
54930SOL    HW166687  10.721   2.364   5.433
54930SOL    HW266688  10.575   2.387   5.402
54931SOL     OW66689   2.306  13.764  11.368
54931SOL    HW166690   2.356  13.686  11.393
54931SOL    HW266691   2.215  13.735  11.368
54932SOL     OW66692   9.166   1.798  11.262
54932SOL    HW166693   9.129   1.806  11.174
54932SOL    HW266694   9.170   1.887  11.296
54933SOL     OW66695   2.331   5.941   4.052
54933SOL    HW166696   2.363   5.851   4.058
54933SOL    HW266697   2.407   5.991   4.022
54934SOL     OW66698   9.560  14.210   4.620
54934SOL    HW166699   9.524  14.297   4.602
54934SOL    HW266700   9.508  14.151   4.565
54935SOL     OW66701   9.991   9.931   1.715
54935SOL    HW166702   9.929   9.994   1.677
54935SOL    HW266703  10.017   9.876   1.640
54936SOL     OW66704   9.459  10.262   0.694
54936SOL    HW166705   9.501  10.192   0.645
54936SOL    HW266706   9.418  10.317   0.628
54937SOL     OW66707   1.037  14.306  12.012
54937SOL    HW166708   1.050  14.366  12.085
54937SOL    HW266709   1.125  14.287  11.980
54938SOL     OW66710  12.497  10.476   9.685
54938SOL    HW166711  12.563  10.410   9.662
54938SOL    HW266712  12.520  10.502   9.775
54939SOL     OW66713   8.596  10.932   9.766
54939SOL    HW166714   8.540  11.006   9.742
54939SOL    HW266715   8.634  10.956   9.850
54940SOL     OW66716   8.833  13.794  13.184
54940SOL    HW166717   8.806  13.758  13.268
54940SOL    HW266718   8.878  13.722  13.140
54941SOL     OW66719  14.408   6.506   4.505
54941SOL    HW166720  14.464   6.467   4.438
54941SOL    HW266721  14.468   6.535   4.573
54942SOL     OW66722  13.794   9.899   1.838
54942SOL    HW166723  13.793   9.989   1.804
54942SOL    HW266724  13.762   9.907   1.928
54943SOL     OW66725   8.026   8.918  13.011
54943SOL    HW166726   8.042   8.826  12.991
54943SOL    HW266727   7.931   8.928  13.006
54944SOL     OW66728  12.749   1.214   4.262
54944SOL    HW166729  12.793   1.274   4.323
54944SOL    HW266730  12.817   1.151   4.238
54945SOL     OW66731   4.019   9.031   4.210
54945SOL    HW166732   4.058   8.962   4.156
54945SOL    HW266733   3.991   8.987   4.290
54946SOL     OW66734   9.650  14.584   2.768
54946SOL    HW166735   9.638  14.490   2.764
54946SOL    HW266736   9.640  14.605   2.861
54947SOL     OW66737  11.876   5.819   3.344
54947SOL    HW166738  11.877   5.740   3.397
54947SOL    HW266739  11.806   5.873   3.382
54948SOL     OW66740  13.761   3.567  12.243
54948SOL    HW166741  13.701   3.577  12.317
54948SOL    HW266742  13.835   3.625  12.263
54949SOL     OW66743   2.584  13.310   6.894
54949SOL    HW166744   2.662  13.317   6.949
54949SOL    HW266745   2.615  13.332   6.806
54950SOL     OW66746  10.729   7.982  13.444
54950SOL    HW166747  10.691   8.044  13.382
54950SOL    HW266748  10.696   7.897  13.416
54951SOL     OW66749   5.448  14.140   1.401
54951SOL    HW166750   5.498  14.091   1.466
54951SOL    HW266751   5.493  14.223   1.393
54952SOL     OW66752  12.609  14.580   4.687
54952SOL    HW166753  12.530  14.565   4.635
54952SOL    HW266754  12.579  14.629   4.763
54953SOL     OW66755  14.713  12.536  13.026
54953SOL    HW166756  14.650  12.607  13.017
54953SOL    HW266757  14.666  12.468  13.074
54954SOL     OW66758   6.687   2.803  12.422
54954SOL    HW166759   6.618   2.830  12.362
54954SOL    HW266760   6.669   2.711  12.440
54955SOL     OW66761  12.744   0.762   0.310
54955SOL    HW166762  12.719   0.809   0.389
54955SOL    HW266763  12.826   0.803   0.283
54956SOL     OW66764   3.692   7.402  13.761
54956SOL    HW166765   3.708   7.479  13.815
54956SOL    HW266766   3.601   7.412  13.731
54957SOL     OW66767  10.484  13.758   1.795
54957SOL    HW166768  10.550  13.785   1.859
54957SOL    HW266769  10.520  13.679   1.756
54958SOL     OW66770   9.700   5.859  14.063
54958SOL    HW166771   9.631   5.925  14.064
54958SOL    HW266772   9.665   5.787  14.116
54959SOL     OW66773   9.024   1.931   5.877
54959SOL    HW166774   9.099   1.899   5.828
54959SOL    HW266775   8.948   1.899   5.828
54960SOL     OW66776  12.580   5.640   5.959
54960SOL    HW166777  12.502   5.666   6.008
54960SOL    HW266778  12.652   5.690   5.997
54961SOL     OW66779  11.471   3.637   1.530
54961SOL    HW166780  11.449   3.705   1.593
54961SOL    HW266781  11.490   3.685   1.449
54962SOL     OW66782   6.830  11.651   8.199
54962SOL    HW166783   6.840  11.619   8.109
54962SOL    HW266784   6.741  11.625   8.223
54963SOL     OW66785   7.221  10.403  10.049
54963SOL    HW166786   7.295  10.358  10.009
54963SOL    HW266787   7.146  10.347  10.032
54964SOL     OW66788   4.185   2.288   7.688
54964SOL    HW166789   4.224   2.203   7.665
54964SOL    HW266790   4.243   2.352   7.648
54965SOL     OW66791   2.139  10.461   5.946
54965SOL    HW166792   2.158  10.552   5.969
54965SOL    HW266793   2.048  10.448   5.972
54966SOL     OW66794   7.942   3.893  13.101
54966SOL    HW166795   7.971   3.812  13.143
54966SOL    HW266796   7.892   3.938  13.169
54967SOL     OW66797   3.417   7.436   0.698
54967SOL    HW166798   3.329   7.404   0.718
54967SOL    HW266799   3.431   7.507   0.761
54968SOL     OW66800   7.698   3.030   4.214
54968SOL    HW166801   7.608   3.055   4.233
54968SOL    HW266802   7.747   3.112   4.223
54969SOL     OW66803   4.154   6.911   3.885
54969SOL    HW166804   4.117   6.876   3.966
54969SOL    HW266805   4.196   6.835   3.844
54970SOL     OW66806  13.088  14.754  13.199
54970SOL    HW166807  13.156  14.692  13.172
54970SOL    HW266808  13.097  14.760  13.294
54971SOL     OW66809  10.702  14.582  10.196
54971SOL    HW166810  10.751  14.570  10.277
54971SOL    HW266811  10.731  14.668  10.163
54972SOL     OW66812  14.516   7.404  12.134
54972SOL    HW166813  14.549   7.398  12.044
54972SOL    HW266814  14.571   7.345  12.184
54973SOL     OW66815   0.935   0.296   1.329
54973SOL    HW166816   0.962   0.281   1.239
54973SOL    HW266817   0.904   0.211   1.360
54974SOL     OW66818   5.703  10.831  10.120
54974SOL    HW166819   5.781  10.821  10.066
54974SOL    HW266820   5.728  10.795  10.205
54975SOL     OW66821   6.444   7.697   3.863
54975SOL    HW166822   6.418   7.774   3.914
54975SOL    HW266823   6.393   7.625   3.900
54976SOL     OW66824   0.850   7.383   4.766
54976SOL    HW166825   0.810   7.302   4.731
54976SOL    HW266826   0.910   7.352   4.834
54977SOL     OW66827   7.170  12.735   1.609
54977SOL    HW166828   7.130  12.770   1.689
54977SOL    HW266829   7.126  12.782   1.538
54978SOL     OW66830  10.828  12.940  12.233
54978SOL    HW166831  10.767  13.005  12.198
54978SOL    HW266832  10.787  12.856  12.214
54979SOL     OW66833  11.351   6.700  11.196
54979SOL    HW166834  11.437   6.694  11.236
54979SOL    HW266835  11.363   6.760  11.122
54980SOL     OW66836   1.249  10.204   8.025
54980SOL    HW166837   1.176  10.265   8.027
54980SOL    HW266838   1.211  10.121   7.996
54981SOL     OW66839   9.146   8.695   8.379
54981SOL    HW166840   9.092   8.752   8.324
54981SOL    HW266841   9.096   8.683   8.459
54982SOL     OW66842   8.189  11.277  13.860
54982SOL    HW166843   8.111  11.259  13.912
54982SOL    HW266844   8.261  11.235  13.908
54983SOL     OW66845   9.292   8.151   9.237
54983SOL    HW166846   9.203   8.186   9.232
54983SOL    HW266847   9.317   8.136   9.146
54984SOL     OW66848   9.938  11.314   2.919
54984SOL    HW166849  10.012  11.357   2.962
54984SOL    HW266850   9.944  11.341   2.827
54985SOL     OW66851   3.489   5.841   5.470
54985SOL    HW166852   3.569   5.828   5.420
54985SOL    HW266853   3.480   5.936   5.476
54986SOL     OW66854   8.799   0.657   4.531
54986SOL    HW166855   8.739   0.710   4.478
54986SOL    HW266856   8.813   0.709   4.610
54987SOL     OW66857   4.641  13.968   3.781
54987SOL    HW166858   4.546  13.968   3.791
54987SOL    HW266859   4.663  13.877   3.762
54988SOL     OW66860   3.706   7.208  11.647
54988SOL    HW166861   3.752   7.291  11.633
54988SOL    HW266862   3.766   7.141  11.614
54989SOL     OW66863  10.709   2.903   3.349
54989SOL    HW166864  10.803   2.889   3.333
54989SOL    HW266865  10.666   2.843   3.289
54990SOL     OW66866  13.911   1.240   9.038
54990SOL    HW166867  13.904   1.169   9.102
54990SOL    HW266868  14.005   1.254   9.027
54991SOL     OW66869   3.737   0.486  13.265
54991SOL    HW166870   3.801   0.545  13.225
54991SOL    HW266871   3.769   0.473  13.354
54992SOL     OW66872   8.145   1.180  14.760
54992SOL    HW166873   8.165   1.174  14.667
54992SOL    HW266874   8.162   1.092  14.794
54993SOL     OW66875   7.160  13.494  11.385
54993SOL    HW166876   7.164  13.412  11.435
54993SOL    HW266877   7.241  13.495  11.334
54994SOL     OW66878   1.738   9.409   4.985
54994SOL    HW166879   1.731   9.504   4.985
54994SOL    HW266880   1.661   9.380   4.937
54995SOL     OW66881   2.163   2.994   4.774
54995SOL    HW166882   2.094   2.938   4.740
54995SOL    HW266883   2.230   2.934   4.805
54996SOL     OW66884   8.009   0.502  14.862
54996SOL    HW166885   8.057   0.484  14.781
54996SOL    HW266886   7.947   0.430   0.001
54997SOL     OW66887  14.176  13.292   4.397
54997SOL    HW166888  14.236  13.295   4.471
54997SOL    HW266889  14.097  13.249   4.431
54998SOL     OW66890   6.280   2.208  11.705
54998SOL    HW166891   6.337   2.279  11.675
54998SOL    HW266892   6.241   2.242  11.786
54999SOL     OW66893   1.336   8.436   7.876
54999SOL    HW166894   1.339   8.341   7.870
54999SOL    HW266895   1.324   8.454   7.969
55000SOL     OW66896   2.637   2.524   8.293
55000SOL    HW166897   2.581   2.477   8.355
55000SOL    HW266898   2.612   2.616   8.303
55001SOL     OW66899   8.738  13.802  11.968
55001SOL    HW166900   8.726  13.794  12.062
55001SOL    HW266901   8.829  13.831  11.958
55002SOL     OW66902   6.352  10.719  12.904
55002SOL    HW166903   6.403  10.683  12.977
55002SOL    HW266904   6.353  10.650  12.838
55003SOL     OW66905   6.154   4.015  13.306
55003SOL    HW166906   6.222   4.080  13.322
55003SOL    HW266907   6.074   4.055  13.339
55004SOL     OW66908  13.345   5.382  11.461
55004SOL    HW166909  13.401   5.458  11.446
55004SOL    HW266910  13.395   5.327  11.522
55005SOL     OW66911   8.545   0.512  13.275
55005SOL    HW166912   8.550   0.452  13.350
55005SOL    HW266913   8.544   0.455  13.198
55006SOL     OW66914   3.135   7.518   1.016
55006SOL    HW166915   3.205   7.571   1.053
55006SOL    HW266916   3.084   7.489   1.091
55007SOL     OW66917  12.617   5.503   7.495
55007SOL    HW166918  12.560   5.580   7.489
55007SOL    HW266919  12.703   5.538   7.516
55008SOL     OW66920   7.262   0.148   9.209
55008SOL    HW166921   7.204   0.106   9.272
55008SOL    HW266922   7.304   0.219   9.257
55009SOL     OW66923  11.490  12.945   7.826
55009SOL    HW166924  11.425  12.931   7.757
55009SOL    HW266925  11.478  12.870   7.885
55010SOL     OW66926  12.042  13.563   7.878
55010SOL    HW166927  11.973  13.505   7.911
55010SOL    HW266928  12.123  13.522   7.907
55011SOL     OW66929  12.020   6.060   8.392
55011SOL    HW166930  12.005   6.154   8.381
55011SOL    HW266931  11.968   6.020   8.323
55012SOL     OW66932   7.931  12.390   3.515
55012SOL    HW166933   8.007  12.342   3.484
55012SOL    HW266934   7.858  12.328   3.508
55013SOL     OW66935   6.876   9.978   8.798
55013SOL    HW166936   6.874   9.965   8.893
55013SOL    HW266937   6.969   9.968   8.775
55014SOL     OW66938  10.730   8.279   3.648
55014SOL    HW166939  10.637   8.284   3.626
55014SOL    HW266940  10.746   8.358   3.701
55015SOL     OW66941   4.308  10.521   7.855
55015SOL    HW166942   4.251  10.596   7.870
55015SOL    HW266943   4.272  10.478   7.778
55016SOL     OW66944   7.632   4.234   4.505
55016SOL    HW166945   7.546   4.264   4.479
55016SOL    HW266946   7.679   4.314   4.530
55017SOL     OW66947  10.041  13.403   9.218
55017SOL    HW166948   9.987  13.368   9.147
55017SOL    HW266949  10.031  13.340   9.289
55018SOL     OW66950  14.245   9.265   6.267
55018SOL    HW166951  14.162   9.241   6.307
55018SOL    HW266952  14.221   9.318   6.191
55019SOL     OW66953   9.775  10.622   9.972
55019SOL    HW166954   9.687  10.611   9.934
55019SOL    HW266955   9.759  10.647  10.063
55020SOL     OW66956  13.692   4.269   3.172
55020SOL    HW166957  13.632   4.216   3.120
55020SOL    HW266958  13.764   4.210   3.194
55021SOL     OW66959   3.933   6.433   6.358
55021SOL    HW166960   3.992   6.357   6.359
55021SOL    HW266961   3.866   6.410   6.294
55022SOL     OW66962   9.120  12.467  12.793
55022SOL    HW166963   9.064  12.506  12.860
55022SOL    HW266964   9.093  12.376  12.790
55023SOL     OW66965   8.270  14.600   5.568
55023SOL    HW166966   8.333  14.661   5.606
55023SOL    HW266967   8.316  14.516   5.565
55024SOL     OW66968  11.543   5.155  13.639
55024SOL    HW166969  11.474   5.217  13.618
55024SOL    HW266970  11.574   5.124  13.554
55025SOL     OW66971   5.849   4.520   9.628
55025SOL    HW166972   5.854   4.441   9.682
55025SOL    HW266973   5.758   4.546   9.632
55026SOL     OW66974   9.073  13.618  13.017
55026SOL    HW166975   9.055  13.644  12.927
55026SOL    HW266976   9.000  13.560  13.040
55027SOL     OW66977  12.652   5.502  14.309
55027SOL    HW166978  12.703   5.582  14.297
55027SOL    HW266979  12.664   5.478  14.401
55028SOL     OW66980  10.800  11.268   1.935
55028SOL    HW166981  10.830  11.195   1.882
55028SOL    HW266982  10.845  11.344   1.899
55029SOL     OW66983   3.988  11.002   1.036
55029SOL    HW166984   4.072  11.046   1.027
55029SOL    HW266985   4.008  10.909   1.023
55030SOL     OW66986   9.512   4.572  12.545
55030SOL    HW166987   9.466   4.543  12.466
55030SOL    HW266988   9.602   4.544  12.532
55031SOL     OW66989   2.647   7.299  13.479
55031SOL    HW166990   2.693   7.383  13.483
55031SOL    HW266991   2.706   7.237  13.522
55032SOL     OW66992   1.717  12.357  14.346
55032SOL    HW166993   1.811  12.353  14.364
55032SOL    HW266994   1.697  12.275  14.301
55033SOL     OW66995   0.498   1.304   9.702
55033SOL    HW166996   0.589   1.328   9.682
55033SOL    HW266997   0.505   1.239   9.772
55034SOL     OW66998   3.053   3.946   9.544
55034SOL    HW166999   3.129   3.979   9.591
55034SOL    HW267000   3.090   3.901   9.468
55035SOL     OW67001   2.118   1.298   3.729
55035SOL    HW167002   2.053   1.353   3.771
55035SOL    HW267003   2.113   1.320   3.636
55036SOL     OW67004   9.198   1.339   8.367
55036SOL    HW167005   9.262   1.341   8.296
55036SOL    HW267006   9.241   1.289   8.437
55037SOL     OW67007   9.601   1.983  11.438
55037SOL    HW167008   9.621   2.059  11.385
55037SOL    HW267009   9.534   2.013  11.499
55038SOL     OW67010   9.704   6.464   6.343
55038SOL    HW167011   9.739   6.445   6.429
55038SOL    HW267012   9.777   6.450   6.283
55039SOL     OW67013   6.895   1.057  14.145
55039SOL    HW167014   6.885   0.974  14.097
55039SOL    HW267015   6.985   1.056  14.175
55040SOL     OW67016   2.680   0.862   5.231
55040SOL    HW167017   2.634   0.819   5.304
55040SOL    HW267018   2.722   0.790   5.184
55041SOL     OW67019  13.658   8.878  12.207
55041SOL    HW167020  13.595   8.862  12.137
55041SOL    HW267021  13.677   8.972  12.201
55042SOL     OW67022  13.658  12.486   0.442
55042SOL    HW167023  13.701  12.417   0.492
55042SOL    HW267024  13.667  12.564   0.496
55043SOL     OW67025  10.917   2.027   1.600
55043SOL    HW167026  10.846   2.042   1.662
55043SOL    HW267027  10.950   2.115   1.581
55044SOL     OW67028   6.396   8.190  14.218
55044SOL    HW167029   6.374   8.097  14.218
55044SOL    HW267030   6.311   8.234  14.228
55045SOL     OW67031  11.643  13.099   2.745
55045SOL    HW167032  11.578  13.087   2.676
55045SOL    HW267033  11.679  13.012   2.760
55046SOL     OW67034  10.045   7.655   8.668
55046SOL    HW167035  10.107   7.582   8.667
55046SOL    HW267036   9.963   7.617   8.636
55047SOL     OW67037  11.535  11.354   0.235
55047SOL    HW167038  11.630  11.360   0.247
55047SOL    HW267039  11.509  11.275   0.283
55048SOL     OW67040   2.597   2.951  12.792
55048SOL    HW167041   2.683   2.911  12.778
55048SOL    HW267042   2.601   2.986  12.880
55049SOL     OW67043   9.485  11.911   0.319
55049SOL    HW167044   9.491  11.915   0.415
55049SOL    HW267045   9.563  11.861   0.293
55050SOL     OW67046   0.867   0.887   3.453
55050SOL    HW167047   0.921   0.924   3.523
55050SOL    HW267048   0.927   0.877   3.379
55051SOL     OW67049  14.371   0.690   4.681
55051SOL    HW167050  14.438   0.752   4.709
55051SOL    HW267051  14.306   0.691   4.751
55052SOL     OW67052   7.694   4.728   6.899
55052SOL    HW167053   7.606   4.695   6.918
55052SOL    HW267054   7.692   4.820   6.925
55053SOL     OW67055   1.144   1.701   9.185
55053SOL    HW167056   1.174   1.728   9.098
55053SOL    HW267057   1.050   1.716   9.183
55054SOL     OW67058  12.169   7.072  10.657
55054SOL    HW167059  12.177   7.119  10.574
55054SOL    HW267060  12.112   7.127  10.710
55055SOL     OW67061   8.759   1.315   1.106
55055SOL    HW167062   8.691   1.248   1.107
55055SOL    HW267063   8.712   1.397   1.088
55056SOL     OW67064   1.918   7.454   1.003
55056SOL    HW167065   1.831   7.446   1.042
55056SOL    HW267066   1.905   7.435   0.910
55057SOL     OW67067   2.690  12.779   9.223
55057SOL    HW167068   2.604  12.737   9.230
55057SOL    HW267069   2.749  12.722   9.272
55058SOL     OW67070  12.275   5.184   3.265
55058SOL    HW167071  12.342   5.250   3.245
55058SOL    HW267072  12.195   5.218   3.225
55059SOL     OW67073  11.968   6.758   4.957
55059SOL    HW167074  12.041   6.787   5.010
55059SOL    HW267075  11.950   6.831   4.898
55060SOL     OW67076  12.146   7.513   2.400
55060SOL    HW167077  12.224   7.522   2.345
55060SOL    HW267078  12.151   7.424   2.433
55061SOL     OW67079   2.695  12.512   0.764
55061SOL    HW167080   2.630  12.520   0.693
55061SOL    HW267081   2.668  12.435   0.813
55062SOL     OW67082   0.870   1.099  11.477
55062SOL    HW167083   0.959   1.099  11.512
55062SOL    HW267084   0.849   1.007  11.463
55063SOL     OW67085   0.103   0.347  12.274
55063SOL    HW167086   0.166   0.304  12.333
55063SOL    HW267087   0.019   0.307  12.296
55064SOL     OW67088  14.381  12.296   1.761
55064SOL    HW167089  14.395  12.328   1.851
55064SOL    HW267090  14.376  12.201   1.770
55065SOL     OW67091   7.736   7.174   1.625
55065SOL    HW167092   7.666   7.108   1.625
55065SOL    HW267093   7.732   7.213   1.537
55066SOL     OW67094  13.551   0.960  13.602
55066SOL    HW167095  13.638   0.973  13.562
55066SOL    HW267096  13.513   0.888  13.553
55067SOL     OW67097   4.528   3.241   9.339
55067SOL    HW167098   4.565   3.320   9.300
55067SOL    HW267099   4.564   3.169   9.286
55068SOL     OW67100  10.865   9.078   1.198
55068SOL    HW167101  10.772   9.060   1.184
55068SOL    HW267102  10.910   9.005   1.156
55069SOL     OW67103   4.786   5.830   6.122
55069SOL    HW167104   4.863   5.774   6.112
55069SOL    HW267105   4.733   5.813   6.045
55070SOL     OW67106   7.872  13.696   7.357
55070SOL    HW167107   7.794  13.749   7.369
55070SOL    HW267108   7.883  13.650   7.440
55071SOL     OW67109  13.086  10.137   0.269
55071SOL    HW167110  13.093  10.117   0.363
55071SOL    HW267111  13.137  10.217   0.258
55072SOL     OW67112   3.907  11.786  13.683
55072SOL    HW167113   3.883  11.715  13.742
55072SOL    HW267114   4.003  11.780  13.676
55073SOL     OW67115   0.695   3.800   0.656
55073SOL    HW167116   0.658   3.716   0.626
55073SOL    HW267117   0.632   3.866   0.627
55074SOL     OW67118  12.001  11.742  14.296
55074SOL    HW167119  11.950  11.711  14.221
55074SOL    HW267120  11.937  11.790  14.349
55075SOL     OW67121  11.250  11.070   3.891
55075SOL    HW167122  11.187  11.005   3.922
55075SOL    HW267123  11.213  11.154   3.916
55076SOL     OW67124   1.425  13.269   8.791
55076SOL    HW167125   1.340  13.227   8.804
55076SOL    HW267126   1.447  13.251   8.700
55077SOL     OW67127   3.459   2.757   4.642
55077SOL    HW167128   3.499   2.758   4.729
55077SOL    HW267129   3.433   2.848   4.628
55078SOL     OW67130  14.271   3.949  11.756
55078SOL    HW167131  14.257   3.912  11.843
55078SOL    HW267132  14.190   3.930  11.708
55079SOL     OW67133  11.338   6.270  11.313
55079SOL    HW167134  11.403   6.283  11.383
55079SOL    HW267135  11.300   6.184  11.332
55080SOL     OW67136   6.566   5.217   6.389
55080SOL    HW167137   6.518   5.279   6.334
55080SOL    HW267138   6.658   5.233   6.368
55081SOL     OW67139   6.173  13.665   6.888
55081SOL    HW167140   6.262  13.693   6.910
55081SOL    HW267141   6.174  13.570   6.903
55082SOL     OW67142   0.804  12.240   1.969
55082SOL    HW167143   0.870  12.283   1.914
55082SOL    HW267144   0.843  12.154   1.989
55083SOL     OW67145   3.174   6.534   5.181
55083SOL    HW167146   3.080   6.537   5.164
55083SOL    HW267147   3.197   6.622   5.209
55084SOL     OW67148   9.168   9.091  14.742
55084SOL    HW167149   9.201   9.180  14.735
55084SOL    HW267150   9.233   9.044  14.794
55085SOL     OW67151   9.626   0.209   8.686
55085SOL    HW167152   9.639   0.304   8.687
55085SOL    HW267153   9.712   0.173   8.665
55086SOL     OW67154   1.000   1.215   0.155
55086SOL    HW167155   0.912   1.220   0.116
55086SOL    HW267156   1.048   1.286   0.113
55087SOL     OW67157   0.348   0.418   9.577
55087SOL    HW167158   0.269   0.364   9.564
55087SOL    HW267159   0.419   0.365   9.542
55088SOL     OW67160  14.043  12.474   2.751
55088SOL    HW167161  14.113  12.469   2.816
55088SOL    HW267162  14.079  12.530   2.682
55089SOL     OW67163   8.877   0.406   3.404
55089SOL    HW167164   8.929   0.448   3.473
55089SOL    HW267165   8.839   0.329   3.447
55090SOL     OW67166   3.098  13.969  14.300
55090SOL    HW167167   3.119  14.059  14.323
55090SOL    HW267168   3.060  13.975  14.212
55091SOL     OW67169  10.698  11.541   2.415
55091SOL    HW167170  10.635  11.575   2.350
55091SOL    HW267171  10.732  11.618   2.458
55092SOL     OW67172   8.163   0.991   7.853
55092SOL    HW167173   8.188   0.899   7.841
55092SOL    HW267174   8.236   1.041   7.816
55093SOL     OW67175   3.032   1.417  11.826
55093SOL    HW167176   3.008   1.378  11.742
55093SOL    HW267177   2.967   1.487  11.839
55094SOL     OW67178  10.731   8.216  11.008
55094SOL    HW167179  10.711   8.278  10.937
55094SOL    HW267180  10.656   8.156  11.009
55095SOL     OW67181   3.049   7.061   4.589
55095SOL    HW167182   3.108   6.992   4.558
55095SOL    HW267183   2.964   7.017   4.598
55096SOL     OW67184  14.488  10.345  14.112
55096SOL    HW167185  14.447  10.429  14.128
55096SOL    HW267186  14.582  10.363  14.114
55097SOL     OW67187   1.135   5.929   5.028
55097SOL    HW167188   1.068   5.997   5.019
55097SOL    HW267189   1.086   5.848   5.037
55098SOL     OW67190  11.453   3.098   6.239
55098SOL    HW167191  11.374   3.151   6.231
55098SOL    HW267192  11.442   3.051   6.322
55099SOL     OW67193   9.838   2.119  13.826
55099SOL    HW167194   9.752   2.139  13.789
55099SOL    HW267195   9.896   2.186  13.790
55100SOL     OW67196   8.256   4.374   3.600
55100SOL    HW167197   8.206   4.445   3.639
55100SOL    HW267198   8.242   4.385   3.506
55101SOL     OW67199  12.805   7.123   6.967
55101SOL    HW167200  12.734   7.066   6.994
55101SOL    HW267201  12.770   7.212   6.976
55102SOL     OW67202   5.508   5.387  11.708
55102SOL    HW167203   5.426   5.436  11.716
55102SOL    HW267204   5.573   5.452  11.680
55103SOL     OW67205  12.392  14.225   3.820
55103SOL    HW167206  12.350  14.266   3.896
55103SOL    HW267207  12.421  14.139   3.853
55104SOL     OW67208  14.610   2.216   3.016
55104SOL    HW167209  14.656   2.160   3.078
55104SOL    HW267210  14.518   2.191   3.024
55105SOL     OW67211  12.190   2.111  14.413
55105SOL    HW167212  12.265   2.052  14.413
55105SOL    HW267213  12.204   2.167  14.490
55106SOL     OW67214   2.367  13.080  12.453
55106SOL    HW167215   2.336  13.130  12.528
55106SOL    HW267216   2.385  12.992  12.488
55107SOL     OW67217   5.562   9.051   1.455
55107SOL    HW167218   5.607   9.124   1.497
55107SOL    HW267219   5.628   8.983   1.447
55108SOL     OW67220   3.060   8.162  12.495
55108SOL    HW167221   3.149   8.143  12.525
55108SOL    HW267222   3.067   8.247  12.451
55109SOL     OW67223   1.170   1.015   8.030
55109SOL    HW167224   1.250   1.032   8.079
55109SOL    HW267225   1.170   0.920   8.017
55110SOL     OW67226   7.133  12.836   9.455
55110SOL    HW167227   7.070  12.896   9.417
55110SOL    HW267228   7.088  12.751   9.455
55111SOL     OW67229  14.769   3.876   8.736
55111SOL    HW167230  14.845   3.869   8.793
55111SOL    HW267231  14.802   3.918   8.657
55112SOL     OW67232  12.943   1.455   9.351
55112SOL    HW167233  12.883   1.459   9.277
55112SOL    HW267234  12.887   1.463   9.428
55113SOL     OW67235  10.857  10.923   8.921
55113SOL    HW167236  10.775  10.924   8.872
55113SOL    HW267237  10.832  10.940   9.011
55114SOL     OW67238   6.956  10.398  11.869
55114SOL    HW167239   6.946  10.409  11.774
55114SOL    HW267240   6.999  10.313  11.879
55115SOL     OW67241  13.505   3.425   2.238
55115SOL    HW167242  13.532   3.362   2.171
55115SOL    HW267243  13.580   3.483   2.248
55116SOL     OW67244  10.741   7.600   2.783
55116SOL    HW167245  10.766   7.591   2.875
55116SOL    HW267246  10.822   7.580   2.735
55117SOL     OW67247  13.962  11.552   2.996
55117SOL    HW167248  13.936  11.574   2.906
55117SOL    HW267249  14.052  11.583   3.003
55118SOL     OW67250  13.545   6.584   2.679
55118SOL    HW167251  13.631   6.573   2.638
55118SOL    HW267252  13.556   6.658   2.739
55119SOL     OW67253   0.660  13.663   9.058
55119SOL    HW167254   0.721  13.713   9.113
55119SOL    HW267255   0.712  13.588   9.027
55120SOL     OW67256   5.819  12.776  12.321
55120SOL    HW167257   5.906  12.814  12.311
55120SOL    HW267258   5.805  12.726  12.240
55121SOL     OW67259   4.126  14.790   2.500
55121SOL    HW167260   4.209  14.810   2.456
55121SOL    HW267261   4.143  14.707   2.545
55122SOL     OW67262   5.420   8.773  11.072
55122SOL    HW167263   5.496   8.731  11.112
55122SOL    HW267264   5.359   8.786  11.145
55123SOL     OW67265   9.356   4.477   1.043
55123SOL    HW167266   9.293   4.536   1.084
55123SOL    HW267267   9.361   4.402   1.103
55124SOL     OW67268  13.314  12.907  14.827
55124SOL    HW167269  13.382  12.961  14.867
55124SOL    HW267270  13.327  12.820  14.863
55125SOL     OW67271   3.101   3.267   0.797
55125SOL    HW167272   3.068   3.351   0.830
55125SOL    HW267273   3.109   3.212   0.875
55126SOL     OW67274  11.213   4.024   6.299
55126SOL    HW167275  11.240   4.057   6.384
55126SOL    HW267276  11.190   4.102   6.248
55127SOL     OW67277   3.435   0.668  10.388
55127SOL    HW167278   3.385   0.664  10.469
55127SOL    HW267279   3.506   0.605  10.400
55128SOL     OW67280  11.235   8.444   4.326
55128SOL    HW167281  11.256   8.442   4.233
55128SOL    HW267282  11.293   8.378   4.365
55129SOL     OW67283  11.229   3.161  14.337
55129SOL    HW167284  11.190   3.074  14.345
55129SOL    HW267285  11.323   3.146  14.350
55130SOL     OW67286   4.379  12.107  11.325
55130SOL    HW167287   4.378  12.119  11.420
55130SOL    HW267288   4.288  12.119  11.298
55131SOL     OW67289   0.079   5.878  10.886
55131SOL    HW167290   0.040   5.884  10.799
55131SOL    HW267291   0.033   5.805  10.928
55132SOL     OW67292  10.030   0.443  10.007
55132SOL    HW167293  10.111   0.394  10.019
55132SOL    HW267294  10.052   0.532  10.034
55133SOL     OW67295  12.189   4.561  13.207
55133SOL    HW167296  12.113   4.608  13.241
55133SOL    HW267297  12.242   4.629  13.165
55134SOL     OW67298   8.213  14.571  13.983
55134SOL    HW167299   8.231  14.477  13.970
55134SOL    HW267300   8.146  14.572  14.052
55135SOL     OW67301   3.679   0.989   7.505
55135SOL    HW167302   3.584   0.996   7.490
55135SOL    HW267303   3.709   1.080   7.506
55136SOL     OW67304   6.394   8.297  12.761
55136SOL    HW167305   6.374   8.386  12.790
55136SOL    HW267306   6.438   8.257  12.837
55137SOL     OW67307  11.380   0.704  14.698
55137SOL    HW167308  11.355   0.612  14.697
55137SOL    HW267309  11.299   0.751  14.677
55138SOL     OW67310   4.738   3.307  11.467
55138SOL    HW167311   4.807   3.304  11.401
55138SOL    HW267312   4.712   3.399  11.470
55139SOL     OW67313   4.947  10.809   3.133
55139SOL    HW167314   5.040  10.793   3.123
55139SOL    HW267315   4.907  10.777   3.052
55140SOL     OW67316   0.034  12.841   3.622
55140SOL    HW167317  14.841  12.804   3.686
55140SOL    HW267318   0.036  12.934   3.642
55141SOL     OW67319   3.963   5.346   7.389
55141SOL    HW167320   3.895   5.297   7.434
55141SOL    HW267321   4.017   5.383   7.460
55142SOL     OW67322   2.165  11.182   8.330
55142SOL    HW167323   2.070  11.172   8.317
55142SOL    HW267324   2.183  11.272   8.303
55143SOL     OW67325   2.917  10.246  10.385
55143SOL    HW167326   2.877  10.318  10.434
55143SOL    HW267327   2.960  10.288  10.310
55144SOL     OW67328   8.538   3.066   1.686
55144SOL    HW167329   8.444   3.053   1.701
55144SOL    HW267330   8.543   3.132   1.618
55145SOL     OW67331   0.282  10.344   0.056
55145SOL    HW167332   0.369  10.324   0.021
55145SOL    HW267333   0.223  10.287   0.008
55146SOL     OW67334  13.201  10.812   7.932
55146SOL    HW167335  13.173  10.724   7.956
55146SOL    HW267336  13.266  10.836   7.998
55147SOL     OW67337   4.004  13.367   8.648
55147SOL    HW167338   4.011  13.427   8.574
55147SOL    HW267339   4.094  13.352   8.676
55148SOL     OW67340   9.600   4.085  13.631
55148SOL    HW167341   9.690   4.055  13.622
55148SOL    HW267342   9.603   4.178  13.611
55149SOL     OW67343  11.111   5.113  13.163
55149SOL    HW167344  11.048   5.113  13.235
55149SOL    HW267345  11.114   5.021  13.135
55150SOL     OW67346   9.493  13.111   1.787
55150SOL    HW167347   9.510  13.177   1.855
55150SOL    HW267348   9.398  13.110   1.778
55151SOL     OW67349   6.915  12.536   2.455
55151SOL    HW167350   6.831  12.551   2.412
55151SOL    HW267351   6.963  12.480   2.393
55152SOL     OW67352   2.057   0.504  12.896
55152SOL    HW167353   2.086   0.419  12.863
55152SOL    HW267354   2.108   0.568  12.846
55153SOL     OW67355   8.311  13.746   8.288
55153SOL    HW167356   8.294  13.765   8.380
55153SOL    HW267357   8.404  13.766   8.276
55154SOL     OW67358   5.740  10.467   2.354
55154SOL    HW167359   5.820  10.436   2.396
55154SOL    HW267360   5.765  10.551   2.315
55155SOL     OW67361   8.138   2.075  12.344
55155SOL    HW167362   8.191   2.075  12.424
55155SOL    HW267363   8.065   2.133  12.365
55156SOL     OW67364  13.374   8.738   1.529
55156SOL    HW167365  13.384   8.681   1.606
55156SOL    HW267366  13.457   8.786   1.525
55157SOL     OW67367   1.967   4.478   9.925
55157SOL    HW167368   1.988   4.412   9.992
55157SOL    HW267369   2.048   4.528   9.916
55158SOL     OW67370   6.728   9.525   1.054
55158SOL    HW167371   6.636   9.538   1.033
55158SOL    HW267372   6.746   9.435   1.027
55159SOL     OW67373   6.988  11.162   2.192
55159SOL    HW167374   6.999  11.182   2.099
55159SOL    HW267375   6.958  11.244   2.231
55160SOL     OW67376  12.228  10.469  11.379
55160SOL    HW167377  12.229  10.386  11.428
55160SOL    HW267378  12.290  10.455  11.307
55161SOL     OW67379   8.320   2.400   0.954
55161SOL    HW167380   8.245   2.459   0.960
55161SOL    HW267381   8.286   2.315   0.981
55162SOL     OW67382   3.510   2.698   8.091
55162SOL    HW167383   3.511   2.703   8.186
55162SOL    HW267384   3.526   2.606   8.070
55163SOL     OW67385   2.630   7.599   7.622
55163SOL    HW167386   2.543   7.562   7.606
55163SOL    HW267387   2.620   7.649   7.702
55164SOL     OW67388  12.288  11.148   7.809
55164SOL    HW167389  12.362  11.192   7.769
55164SOL    HW267390  12.214  11.206   7.793
55165SOL     OW67391   1.696   8.775   7.699
55165SOL    HW167392   1.659   8.688   7.692
55165SOL    HW267393   1.700   8.792   7.793
55166SOL     OW67394   7.160   8.742  14.317
55166SOL    HW167395   7.168   8.733  14.222
55166SOL    HW267396   7.070   8.772  14.331
55167SOL     OW67397  13.893   7.396   2.692
55167SOL    HW167398  13.912   7.351   2.774
55167SOL    HW267399  13.940   7.346   2.625
55168SOL     OW67400   7.657   4.543   3.128
55168SOL    HW167401   7.749   4.567   3.121
55168SOL    HW267402   7.654   4.450   3.103
55169SOL     OW67403  12.072   4.640   7.477
55169SOL    HW167404  11.990   4.591   7.469
55169SOL    HW267405  12.132   4.579   7.520
55170SOL     OW67406  13.993   8.294  11.669
55170SOL    HW167407  14.076   8.333  11.642
55170SOL    HW267408  14.017   8.234  11.740
55171SOL     OW67409  13.100   7.048   0.149
55171SOL    HW167410  13.102   6.987   0.223
55171SOL    HW267411  13.180   7.031   0.101
55172SOL     OW67412  11.024  10.769   4.449
55172SOL    HW167413  10.934  10.740   4.431
55172SOL    HW267414  11.029  10.856   4.408
55173SOL     OW67415   4.737   6.731   1.641
55173SOL    HW167416   4.648   6.755   1.664
55173SOL    HW267417   4.737   6.723   1.545
55174SOL     OW67418  11.360   1.354   1.487
55174SOL    HW167419  11.298   1.330   1.555
55174SOL    HW267420  11.305   1.385   1.415
55175SOL     OW67421   0.833   2.814  14.458
55175SOL    HW167422   0.761   2.750  14.453
55175SOL    HW267423   0.880   2.805  14.375
55176SOL     OW67424  14.422   4.404   4.968
55176SOL    HW167425  14.451   4.370   4.884
55176SOL    HW267426  14.491   4.463   4.995
55177SOL     OW67427  14.255  12.955  11.367
55177SOL    HW167428  14.225  13.000  11.446
55177SOL    HW267429  14.351  12.963  11.370
55178SOL     OW67430  13.482   5.806   4.495
55178SOL    HW167431  13.516   5.836   4.580
55178SOL    HW267432  13.553   5.823   4.434
55179SOL     OW67433   4.874  12.830   6.442
55179SOL    HW167434   4.909  12.840   6.353
55179SOL    HW267435   4.831  12.744   6.441
55180SOL     OW67436  14.363   4.222  12.121
55180SOL    HW167437  14.308   4.296  12.094
55180SOL    HW267438  14.387   4.179  12.039
55181SOL     OW67439  14.529   7.835   1.197
55181SOL    HW167440  14.539   7.740   1.192
55181SOL    HW267441  14.537   7.855   1.290
55182SOL     OW67442   2.812  13.074  14.791
55182SOL    HW167443   2.903  13.078  14.818
55182SOL    HW267444   2.812  13.108  14.701
55183SOL     OW67445  14.693   3.264  13.027
55183SOL    HW167446  14.631   3.192  13.030
55183SOL    HW267447  14.656   3.330  13.085
55184SOL     OW67448   6.971  11.785  13.862
55184SOL    HW167449   7.061  11.759  13.845
55184SOL    HW267450   6.919  11.737  13.797
55185SOL     OW67451   9.997  10.605   2.367
55185SOL    HW167452  10.066  10.539   2.365
55185SOL    HW267453   9.968  10.611   2.275
55186SOL     OW67454   0.933   4.904   9.331
55186SOL    HW167455   0.956   4.946   9.248
55186SOL    HW267456   0.837   4.903   9.332
55187SOL     OW67457   9.527   0.147  11.403
55187SOL    HW167458   9.500   0.090  11.331
55187SOL    HW267459   9.513   0.094  11.482
55188SOL     OW67460  13.745  10.328  10.408
55188SOL    HW167461  13.733  10.238  10.378
55188SOL    HW267462  13.839  10.340  10.415
55189SOL     OW67463   3.932  13.252   7.628
55189SOL    HW167464   3.985  13.327   7.653
55189SOL    HW267465   3.991  13.197   7.576
55190SOL     OW67466   8.495   8.063   7.072
55190SOL    HW167467   8.579   8.107   7.056
55190SOL    HW267468   8.470   8.026   6.987
55191SOL     OW67469  11.531   5.829   7.124
55191SOL    HW167470  11.609   5.805   7.174
55191SOL    HW267471  11.524   5.762   7.056
55192SOL     OW67472  11.110   4.822   1.395
55192SOL    HW167473  11.139   4.886   1.460
55192SOL    HW267474  11.031   4.860   1.356
55193SOL     OW67475   0.873   3.489  14.057
55193SOL    HW167476   0.915   3.482  14.143
55193SOL    HW267477   0.882   3.401  14.020
55194SOL     OW67478   9.665   5.164  11.190
55194SOL    HW167479   9.642   5.073  11.207
55194SOL    HW267480   9.581   5.208  11.178
55195SOL     OW67481  10.321   5.729  10.391
55195SOL    HW167482  10.361   5.739  10.477
55195SOL    HW267483  10.227   5.734  10.406
55196SOL     OW67484   2.862   2.216  13.229
55196SOL    HW167485   2.886   2.305  13.254
55196SOL    HW267486   2.921   2.160  13.278
55197SOL     OW67487  10.377   4.211   9.330
55197SOL    HW167488  10.375   4.249   9.242
55197SOL    HW267489  10.335   4.278   9.385
55198SOL     OW67490   0.944  12.619  14.628
55198SOL    HW167491   0.884  12.693  14.623
55198SOL    HW267492   0.894  12.545  14.596
55199SOL     OW67493   3.999   9.382   8.288
55199SOL    HW167494   4.015   9.297   8.330
55199SOL    HW267495   4.067   9.389   8.221
55200SOL     OW67496   2.587  12.326   6.907
55200SOL    HW167497   2.580  12.383   6.831
55200SOL    HW267498   2.535  12.249   6.885
55201SOL     OW67499   9.762  13.792   6.493
55201SOL    HW167500   9.686  13.799   6.550
55201SOL    HW267501   9.754  13.705   6.453
55202SOL     OW67502   5.521  11.610  11.787
55202SOL    HW167503   5.523  11.705  11.773
55202SOL    HW267504   5.523  11.573  11.699
55203SOL     OW67505  14.139   6.197   9.627
55203SOL    HW167506  14.151   6.236   9.541
55203SOL    HW267507  14.137   6.272   9.687
55204SOL     OW67508  13.615  12.395   9.331
55204SOL    HW167509  13.555  12.322   9.315
55204SOL    HW267510  13.564  12.456   9.385
55205SOL     OW67511   1.746   1.173   8.489
55205SOL    HW167512   1.775   1.135   8.406
55205SOL    HW267513   1.809   1.243   8.506
55206SOL     OW67514  14.148   9.062  14.609
55206SOL    HW167515  14.176   9.055  14.518
55206SOL    HW267516  14.209   9.007  14.658
55207SOL     OW67517   3.305  11.974   8.415
55207SOL    HW167518   3.345  12.055   8.383
55207SOL    HW267519   3.379  11.920   8.443
55208SOL     OW67520   0.682   9.456   7.038
55208SOL    HW167521   0.631   9.444   7.119
55208SOL    HW267522   0.732   9.536   7.053
55209SOL     OW67523   1.769   3.296   4.458
55209SOL    HW167524   1.770   3.385   4.493
55209SOL    HW267525   1.683   3.261   4.482
55210SOL     OW67526  13.344   1.549  11.765
55210SOL    HW167527  13.355   1.455  11.756
55210SOL    HW267528  13.401   1.586  11.698
55211SOL     OW67529   6.564   7.983   1.260
55211SOL    HW167530   6.639   7.924   1.262
55211SOL    HW267531   6.568   8.025   1.174
55212SOL     OW67532   0.985   5.579  10.191
55212SOL    HW167533   1.017   5.588  10.101
55212SOL    HW267534   0.911   5.638  10.197
55213SOL     OW67535   3.063   7.216   2.633
55213SOL    HW167536   3.011   7.256   2.702
55213SOL    HW267537   3.070   7.284   2.566
55214SOL     OW67538   6.432  10.599  14.090
55214SOL    HW167539   6.458  10.677  14.138
55214SOL    HW267540   6.477  10.606  14.006
55215SOL     OW67541   1.589  11.036   1.045
55215SOL    HW167542   1.668  11.087   1.064
55215SOL    HW267543   1.623  10.949   1.022
55216SOL     OW67544   9.931   2.992   8.924
55216SOL    HW167545   9.922   3.031   8.837
55216SOL    HW267546  10.016   3.021   8.954
55217SOL     OW67547  12.077  10.230   3.097
55217SOL    HW167548  12.099  10.218   3.189
55217SOL    HW267549  12.131  10.166   3.051
55218SOL     OW67550  14.636   3.696   9.459
55218SOL    HW167551  14.727   3.709   9.485
55218SOL    HW267552  14.641   3.641   9.381
55219SOL     OW67553   1.980   5.665   4.523
55219SOL    HW167554   2.023   5.726   4.583
55219SOL    HW267555   1.887   5.675   4.541
55220SOL     OW67556  11.732   4.177  10.520
55220SOL    HW167557  11.689   4.228  10.589
55220SOL    HW267558  11.661   4.133  10.474
55221SOL     OW67559  14.679   0.376   4.494
55221SOL    HW167560  14.755   0.422   4.532
55221SOL    HW267561  14.604   0.430   4.518
55222SOL     OW67562   0.021   1.943   3.934
55222SOL    HW167563   0.096   1.937   3.993
55222SOL    HW267564  14.859   2.034   3.943
55223SOL     OW67565   9.902  10.515   9.224
55223SOL    HW167566   9.878  10.558   9.306
55223SOL    HW267567   9.860  10.569   9.156
55224SOL     OW67568   9.399  14.726  11.201
55224SOL    HW167569   9.490  14.726  11.229
55224SOL    HW267570   9.386  14.812  11.161
55225SOL     OW67571   8.553   3.158  13.998
55225SOL    HW167572   8.465   3.165  14.035
55225SOL    HW267573   8.603   3.229  14.040
55226SOL     OW67574   7.006  13.444  10.417
55226SOL    HW167575   7.056  13.512  10.372
55226SOL    HW267576   6.970  13.488  10.493
55227SOL     OW67577  10.969  12.444   7.643
55227SOL    HW167578  11.001  12.397   7.720
55227SOL    HW267579  10.961  12.535   7.672
55228SOL     OW67580   0.571  12.233   0.611
55228SOL    HW167581   0.615  12.317   0.603
55228SOL    HW267582   0.637  12.175   0.649
55229SOL     OW67583   5.410   7.646  11.249
55229SOL    HW167584   5.447   7.622  11.164
55229SOL    HW267585   5.453   7.729  11.270
55230SOL     OW67586   1.619  11.415   9.954
55230SOL    HW167587   1.695  11.381  10.002
55230SOL    HW267588   1.592  11.343   9.898
55231SOL     OW67589  14.824  11.897   1.569
55231SOL    HW167590   0.046  11.864   1.564
55231SOL    HW267591  14.790  11.862   1.651
55232SOL     OW67592  13.222   8.190   0.116
55232SOL    HW167593  13.265   8.276   0.120
55232SOL    HW267594  13.185   8.186   0.028
55233SOL     OW67595   0.772  13.667   1.840
55233SOL    HW167596   0.740  13.729   1.774
55233SOL    HW267597   0.808  13.722   1.909
55234SOL     OW67598   0.075  11.961   5.231
55234SOL    HW167599   0.009  11.912   5.279
55234SOL    HW267600   0.153  11.957   5.286
55235SOL     OW67601  12.421  11.615  14.810
55235SOL    HW167602  12.440  11.673   0.016
55235SOL    HW267603  12.390  11.674  14.741
55236SOL     OW67604  11.364   3.155   7.965
55236SOL    HW167605  11.350   3.230   7.907
55236SOL    HW267606  11.282   3.105   7.959
55237SOL     OW67607   6.392   9.976  10.000
55237SOL    HW167608   6.393  10.069   9.976
55237SOL    HW267609   6.304   9.960  10.034
55238SOL     OW67610  10.190   0.601   4.751
55238SOL    HW167611  10.110   0.647   4.777
55238SOL    HW267612  10.165   0.509   4.746
55239SOL     OW67613   1.185   5.286   1.990
55239SOL    HW167614   1.175   5.227   1.915
55239SOL    HW267615   1.190   5.373   1.951
55240SOL     OW67616   2.775   7.124  14.492
55240SOL    HW167617   2.866   7.138  14.521
55240SOL    HW267618   2.724   7.127  14.573
55241SOL     OW67619   0.239   6.819   4.096
55241SOL    HW167620   0.320   6.802   4.048
55241SOL    HW267621   0.170   6.816   4.030
55242SOL     OW67622  14.837   4.131   4.107
55242SOL    HW167623  14.783   4.171   4.038
55242SOL    HW267624   0.037   4.195   4.125
55243SOL     OW67625   8.118   4.456   5.882
55243SOL    HW167626   8.123   4.523   5.814
55243SOL    HW267627   8.032   4.416   5.870
55244SOL     OW67628   5.743   8.627   7.964
55244SOL    HW167629   5.694   8.707   7.983
55244SOL    HW267630   5.688   8.579   7.902
55245SOL     OW67631   0.141   5.717  14.588
55245SOL    HW167632   0.072   5.687  14.530
55245SOL    HW267633   0.222   5.682  14.549
55246SOL     OW67634  10.069  13.415   8.786
55246SOL    HW167635  10.135  13.421   8.717
55246SOL    HW267636   9.998  13.364   8.746
55247SOL     OW67637  11.104  13.216   5.830
55247SOL    HW167638  11.143  13.288   5.879
55247SOL    HW267639  11.016  13.208   5.865
55248SOL     OW67640   1.637  14.109   7.700
55248SOL    HW167641   1.659  14.029   7.652
55248SOL    HW267642   1.702  14.115   7.769
55249SOL     OW67643   0.554   8.134   1.873
55249SOL    HW167644   0.585   8.101   1.788
55249SOL    HW267645   0.634   8.140   1.926
55250SOL     OW67646  12.400   2.574   8.706
55250SOL    HW167647  12.411   2.538   8.618
55250SOL    HW267648  12.305   2.583   8.716
55251SOL     OW67649   1.163   2.989   2.544
55251SOL    HW167650   1.213   2.912   2.518
55251SOL    HW267651   1.230   3.053   2.570
55252SOL     OW67652   1.402   5.432   7.198
55252SOL    HW167653   1.459   5.501   7.164
55252SOL    HW267654   1.355   5.399   7.122
55253SOL     OW67655  11.578  12.059   8.196
55253SOL    HW167656  11.646  12.045   8.130
55253SOL    HW267657  11.625  12.063   8.279
55254SOL     OW67658  11.949  14.761   1.449
55254SOL    HW167659  11.931  14.854   1.461
55254SOL    HW267660  11.991  14.756   1.363
55255SOL     OW67661  12.801   2.342   8.674
55255SOL    HW167662  12.858   2.384   8.610
55255SOL    HW267663  12.818   2.248   8.662
55256SOL     OW67664   7.611  14.442   8.839
55256SOL    HW167665   7.580  14.353   8.826
55256SOL    HW267666   7.541  14.498   8.804
55257SOL     OW67667  13.799  14.042  10.223
55257SOL    HW167668  13.758  14.099  10.159
55257SOL    HW267669  13.745  14.051  10.301
55258SOL     OW67670   9.436   8.717   4.434
55258SOL    HW167671   9.372   8.750   4.372
55258SOL    HW267672   9.388   8.654   4.488
55259SOL     OW67673  11.104   0.615   1.984
55259SOL    HW167674  11.025   0.647   1.941
55259SOL    HW267675  11.175   0.641   1.926
55260SOL     OW67676  12.832  14.538   6.144
55260SOL    HW167677  12.848  14.508   6.233
55260SOL    HW267678  12.826  14.633   6.151
55261SOL     OW67679   2.615   7.126  11.896
55261SOL    HW167680   2.550   7.189  11.926
55261SOL    HW267681   2.621   7.062  11.968
55262SOL     OW67682  14.426  11.600   4.190
55262SOL    HW167683  14.447  11.663   4.120
55262SOL    HW267684  14.502  11.542   4.193
55263SOL     OW67685   8.963  13.328   6.872
55263SOL    HW167686   8.917  13.288   6.798
55263SOL    HW267687   9.039  13.272   6.887
55264SOL     OW67688   5.747   3.354   2.871
55264SOL    HW167689   5.716   3.345   2.961
55264SOL    HW267690   5.816   3.420   2.876
55265SOL     OW67691   4.766   3.326  12.730
55265SOL    HW167692   4.748   3.340  12.637
55265SOL    HW267693   4.798   3.411  12.761
55266SOL     OW67694   1.860   5.816  13.749
55266SOL    HW167695   1.835   5.724  13.754
55266SOL    HW267696   1.865   5.844  13.840
55267SOL     OW67697   7.840   0.697  12.729
55267SOL    HW167698   7.788   0.742  12.661
55267SOL    HW267699   7.804   0.609  12.732
55268SOL     OW67700   0.313   9.530  13.600
55268SOL    HW167701   0.359   9.511  13.518
55268SOL    HW267702   0.295   9.624  13.596
55269SOL     OW67703  10.580  13.052   5.935
55269SOL    HW167704  10.543  13.042   5.847
55269SOL    HW267705  10.504  13.052   5.993
55270SOL     OW67706   8.583   9.375   8.379
55270SOL    HW167707   8.560   9.307   8.317
55270SOL    HW267708   8.511   9.377   8.441
55271SOL     OW67709  11.893  11.664  11.286
55271SOL    HW167710  11.887  11.689  11.194
55271SOL    HW267711  11.860  11.740  11.334
55272SOL     OW67712   4.162   3.419   7.637
55272SOL    HW167713   4.101   3.354   7.672
55272SOL    HW267714   4.115   3.456   7.562
55273SOL     OW67715   0.558  13.831  11.239
55273SOL    HW167716   0.499  13.895  11.278
55273SOL    HW267717   0.512  13.799  11.162
55274SOL     OW67718   5.311   6.474   3.265
55274SOL    HW167719   5.282   6.548   3.212
55274SOL    HW267720   5.310   6.399   3.206
55275SOL     OW67721   1.760   6.243   8.315
55275SOL    HW167722   1.709   6.179   8.266
55275SOL    HW267723   1.795   6.302   8.248
55276SOL     OW67724  14.132   7.442  14.815
55276SOL    HW167725  14.193   7.374  14.786
55276SOL    HW267726  14.107   7.415   0.036
55277SOL     OW67727   0.650   8.120  11.260
55277SOL    HW167728   0.676   8.181  11.329
55277SOL    HW267729   0.732   8.087  11.224
55278SOL     OW67730   0.891   3.108  11.518
55278SOL    HW167731   0.964   3.116  11.579
55278SOL    HW267732   0.831   3.048  11.561
55279SOL     OW67733   8.960   0.045   1.598
55279SOL    HW167734   9.031   0.101   1.569
55279SOL    HW267735   9.000  14.827   1.609
55280SOL     OW67736  13.917   0.241  12.458
55280SOL    HW167737  13.890   0.329  12.484
55280SOL    HW267738  13.848   0.184  12.491
55281SOL     OW67739   0.954   4.439   5.598
55281SOL    HW167740   0.976   4.524   5.635
55281SOL    HW267741   0.876   4.412   5.645
55282SOL     OW67742   7.401   5.825   1.347
55282SOL    HW167743   7.356   5.741   1.356
55282SOL    HW267744   7.330   5.890   1.340
55283SOL     OW67745  10.797  14.481   4.576
55283SOL    HW167746  10.893  14.476   4.574
55283SOL    HW267747  10.778  14.567   4.612
55284SOL     OW67748   7.790   9.137   1.549
55284SOL    HW167749   7.817   9.198   1.618
55284SOL    HW267750   7.703   9.108   1.576
55285SOL     OW67751   9.847  14.575   1.581
55285SOL    HW167752   9.762  14.535   1.595
55285SOL    HW267753   9.842  14.660   1.625
55286SOL     OW67754  14.437  12.766   4.068
55286SOL    HW167755  14.499  12.707   4.026
55286SOL    HW267756  14.357  12.759   4.016
55287SOL     OW67757  12.325  14.705   2.389
55287SOL    HW167758  12.415  14.673   2.392
55287SOL    HW267759  12.294  14.684   2.301
55288SOL     OW67760   7.095   4.537   4.733
55288SOL    HW167761   7.149   4.556   4.810
55288SOL    HW267762   7.005   4.544   4.765
55289SOL     OW67763   7.834   0.796   8.236
55289SOL    HW167764   7.835   0.890   8.220
55289SOL    HW267765   7.915   0.779   8.284
55290SOL     OW67766   2.385   7.168   1.094
55290SOL    HW167767   2.416   7.078   1.094
55290SOL    HW267768   2.291   7.161   1.078
55291SOL     OW67769   6.495   8.802   4.685
55291SOL    HW167770   6.540   8.761   4.758
55291SOL    HW267771   6.407   8.823   4.718
55292SOL     OW67772   3.333   8.211  13.538
55292SOL    HW167773   3.241   8.216  13.510
55292SOL    HW267774   3.351   8.117  13.545
55293SOL     OW67775   9.545   5.758  13.539
55293SOL    HW167776   9.587   5.755  13.625
55293SOL    HW267777   9.567   5.844  13.504
55294SOL     OW67778  12.439   6.778   4.169
55294SOL    HW167779  12.506   6.745   4.228
55294SOL    HW267780  12.446   6.723   4.091
55295SOL     OW67781  12.400   6.245  10.301
55295SOL    HW167782  12.338   6.253  10.373
55295SOL    HW267783  12.344   6.231  10.224
55296SOL     OW67784   1.690   8.882  14.380
55296SOL    HW167785   1.696   8.974  14.405
55296SOL    HW267786   1.736   8.835  14.449
55297SOL     OW67787   9.209   5.090   7.131
55297SOL    HW167788   9.135   5.031   7.118
55297SOL    HW267789   9.283   5.046   7.089
55298SOL     OW67790   0.787  12.859   7.857
55298SOL    HW167791   0.851  12.789   7.870
55298SOL    HW267792   0.833  12.939   7.882
55299SOL     OW67793   2.953   6.261  11.579
55299SOL    HW167794   2.943   6.352  11.605
55299SOL    HW267795   3.003   6.264  11.497
55300SOL     OW67796   6.862   0.284   8.034
55300SOL    HW167797   6.887   0.342   7.962
55300SOL    HW267798   6.913   0.204   8.019
55301SOL     OW67799   1.661  13.151  14.489
55301SOL    HW167800   1.733  13.092  14.467
55301SOL    HW267801   1.599  13.096  14.538
55302SOL     OW67802   4.761   8.573   7.023
55302SOL    HW167803   4.728   8.490   7.059
55302SOL    HW267804   4.838   8.548   6.972
55303SOL     OW67805  10.227   3.415   5.106
55303SOL    HW167806  10.308   3.394   5.154
55303SOL    HW267807  10.184   3.481   5.161
55304SOL     OW67808  11.094  12.577  14.130
55304SOL    HW167809  11.045  12.518  14.186
55304SOL    HW267810  11.142  12.520  14.070
55305SOL     OW67811   7.221  11.801   4.812
55305SOL    HW167812   7.152  11.866   4.798
55305SOL    HW267813   7.301  11.843   4.781
55306SOL     OW67814   3.691   5.152  14.664
55306SOL    HW167815   3.675   5.058  14.656
55306SOL    HW267816   3.619   5.184  14.717
55307SOL     OW67817  12.361  11.472  12.109
55307SOL    HW167818  12.341  11.566  12.100
55307SOL    HW267819  12.279  11.432  12.136
55308SOL     OW67820  10.410  10.429  14.819
55308SOL    HW167821  10.419  10.469   0.037
55308SOL    HW267822  10.348  10.357  14.832
55309SOL     OW67823  11.429  10.531  13.094
55309SOL    HW167824  11.378  10.609  13.117
55309SOL    HW267825  11.432  10.480  13.175
55310SOL     OW67826   7.024  13.547   7.515
55310SOL    HW167827   7.022  13.455   7.490
55310SOL    HW267828   7.088  13.587   7.455
55311SOL     OW67829   1.070  14.561   5.300
55311SOL    HW167830   1.029  14.648   5.301
55311SOL    HW267831   1.050  14.524   5.386
55312SOL     OW67832   1.050   9.733   6.062
55312SOL    HW167833   1.091   9.707   6.145
55312SOL    HW267834   1.068   9.660   6.003
55313SOL     OW67835  13.873   4.446   5.290
55313SOL    HW167836  13.940   4.494   5.337
55313SOL    HW267837  13.801   4.509   5.280
55314SOL     OW67838   0.331   3.281   5.608
55314SOL    HW167839   0.253   3.243   5.648
55314SOL    HW267840   0.304   3.369   5.582
55315SOL     OW67841  10.099  12.456   5.107
55315SOL    HW167842  10.110  12.447   5.202
55315SOL    HW267843  10.055  12.375   5.081
55316SOL     OW67844  12.304  11.060   6.699
55316SOL    HW167845  12.273  10.974   6.726
55316SOL    HW267846  12.343  11.098   6.777
55317SOL     OW67847  12.839  14.447   2.678
55317SOL    HW167848  12.786  14.520   2.645
55317SOL    HW267849  12.787  14.369   2.658
55318SOL     OW67850   3.021   6.309  14.046
55318SOL    HW167851   3.050   6.336  13.959
55318SOL    HW267852   3.028   6.388  14.100
55319SOL     OW67853   0.862   3.882  10.510
55319SOL    HW167854   0.856   3.843  10.422
55319SOL    HW267855   0.926   3.953  10.501
55320SOL     OW67856   3.342   6.732  14.337
55320SOL    HW167857   3.261   6.729  14.388
55320SOL    HW267858   3.320   6.688  14.255
55321SOL     OW67859   7.786   7.364   5.723
55321SOL    HW167860   7.702   7.319   5.731
55321SOL    HW267861   7.762   7.456   5.712
55322SOL     OW67862  13.239  13.860  13.617
55322SOL    HW167863  13.247  13.945  13.573
55322SOL    HW267864  13.218  13.882  13.708
55323SOL     OW67865   6.318   8.953  11.584
55323SOL    HW167866   6.351   9.038  11.613
55323SOL    HW267867   6.382   8.924  11.519
55324SOL     OW67868   9.053  14.518   9.047
55324SOL    HW167869   9.127  14.564   9.086
55324SOL    HW267870   8.976  14.559   9.086
55325SOL     OW67871  14.623   9.197   0.115
55325SOL    HW167872  14.631   9.148   0.033
55325SOL    HW267873  14.712   9.204   0.148
55326SOL     OW67874   2.974   3.733   2.315
55326SOL    HW167875   2.905   3.688   2.365
55326SOL    HW267876   2.949   3.720   2.224
55327SOL     OW67877  14.608  14.075   6.250
55327SOL    HW167878  14.645  14.038   6.331
55327SOL    HW267879  14.680  14.126   6.213
55328SOL     OW67880   7.158  13.331   7.918
55328SOL    HW167881   7.252  13.313   7.916
55328SOL    HW267882   7.117  13.246   7.900
55329SOL     OW67883  11.211   9.403  12.934
55329SOL    HW167884  11.201   9.458  12.856
55329SOL    HW267885  11.292   9.434  12.975
55330SOL     OW67886   3.951   8.708   9.803
55330SOL    HW167887   4.020   8.735   9.741
55330SOL    HW267888   3.972   8.754   9.884
55331SOL     OW67889   0.552   2.504   7.273
55331SOL    HW167890   0.625   2.501   7.334
55331SOL    HW267891   0.586   2.460   7.194
55332SOL     OW67892  11.889   6.772   2.313
55332SOL    HW167893  11.937   6.746   2.392
55332SOL    HW267894  11.946   6.746   2.241
55333SOL     OW67895  12.441   4.377   9.044
55333SOL    HW167896  12.409   4.353   8.957
55333SOL    HW267897  12.364   4.367   9.101
55334SOL     OW67898   5.442   5.057  13.925
55334SOL    HW167899   5.361   5.066  13.874
55334SOL    HW267900   5.413   5.058  14.016
55335SOL     OW67901   2.485  12.945  12.846
55335SOL    HW167902   2.455  13.000  12.918
55335SOL    HW267903   2.525  13.006  12.784
55336SOL     OW67904   1.531   9.605  13.270
55336SOL    HW167905   1.544   9.516  13.237
55336SOL    HW267906   1.474   9.647  13.206
55337SOL     OW67907   9.120  14.295  12.529
55337SOL    HW167908   9.104  14.389  12.539
55337SOL    HW267909   9.201  14.279  12.576
55338SOL     OW67910   1.942   7.991   3.413
55338SOL    HW167911   1.960   7.938   3.491
55338SOL    HW267912   2.028   8.002   3.372
55339SOL     OW67913  12.440  14.781   9.253
55339SOL    HW167914  12.524  14.735   9.266
55339SOL    HW267915  12.439  14.848   9.321
55340SOL     OW67916  13.773   9.334   3.099
55340SOL    HW167917  13.824   9.409   3.129
55340SOL    HW267918  13.790   9.266   3.164
55341SOL     OW67919   8.292   8.430   4.877
55341SOL    HW167920   8.264   8.485   4.804
55341SOL    HW267921   8.304   8.343   4.837
55342SOL     OW67922   5.787   1.510   9.099
55342SOL    HW167923   5.764   1.555   9.180
55342SOL    HW267924   5.833   1.577   9.048
55343SOL     OW67925  10.987   2.019   3.535
55343SOL    HW167926  10.906   2.042   3.581
55343SOL    HW267927  11.054   2.020   3.603
55344SOL     OW67928  11.917   5.241  11.088
55344SOL    HW167929  11.989   5.181  11.069
55344SOL    HW267930  11.953   5.328  11.068
55345SOL     OW67931  10.592   7.303   3.598
55345SOL    HW167932  10.530   7.302   3.525
55345SOL    HW267933  10.550   7.358   3.664
55346SOL     OW67934   4.509  10.201  11.933
55346SOL    HW167935   4.495  10.160  12.018
55346SOL    HW267936   4.538  10.129  11.876
55347SOL     OW67937  12.044   2.281   7.079
55347SOL    HW167938  12.127   2.239   7.098
55347SOL    HW267939  12.050   2.366   7.122
55348SOL     OW67940   2.203  11.223  10.832
55348SOL    HW167941   2.140  11.239  10.902
55348SOL    HW267942   2.255  11.304  10.827
55349SOL     OW67943   8.420   2.413  11.613
55349SOL    HW167944   8.469   2.494  11.599
55349SOL    HW267945   8.332   2.442  11.638
55350SOL     OW67946  11.729   2.048  10.452
55350SOL    HW167947  11.769   2.114  10.395
55350SOL    HW267948  11.785   2.046  10.529
55351SOL     OW67949   8.435   2.670   2.021
55351SOL    HW167950   8.501   2.732   1.992
55351SOL    HW267951   8.351   2.707   1.993
55352SOL     OW67952  10.219   2.417   9.812
55352SOL    HW167953  10.239   2.510   9.810
55352SOL    HW267954  10.171   2.401   9.731
55353SOL     OW67955  12.514  11.679   9.351
55353SOL    HW167956  12.571  11.677   9.428
55353SOL    HW267957  12.488  11.771   9.342
55354SOL     OW67958  12.329   1.838   9.141
55354SOL    HW167959  12.416   1.799   9.150
55354SOL    HW267960  12.282   1.779   9.083
55355SOL     OW67961   9.004  11.800  12.530
55355SOL    HW167962   9.017  11.893  12.551
55355SOL    HW267963   8.967  11.763  12.610
55356SOL     OW67964   4.881   6.675  12.991
55356SOL    HW167965   4.852   6.611  13.057
55356SOL    HW267966   4.841   6.644  12.910
55357SOL     OW67967   3.205   8.065  11.073
55357SOL    HW167968   3.197   8.062  11.168
55357SOL    HW267969   3.298   8.054  11.056
55358SOL     OW67970   2.521   7.966   6.073
55358SOL    HW167971   2.588   8.029   6.098
55358SOL    HW267972   2.560   7.880   6.092
55359SOL     OW67973  10.882   3.682   6.878
55359SOL    HW167974  10.820   3.753   6.860
55359SOL    HW267975  10.872   3.664   6.972
55360SOL     OW67976  13.767   6.865  13.346
55360SOL    HW167977  13.797   6.918  13.272
55360SOL    HW267978  13.735   6.784  13.306
55361SOL     OW67979   7.196   0.036  10.773
55361SOL    HW167980   7.222   0.063  10.685
55361SOL    HW267981   7.278   0.018  10.818
55362SOL     OW67982  10.120   5.252   6.091
55362SOL    HW167983  10.181   5.193   6.045
55362SOL    HW267984  10.160   5.338   6.083
55363SOL     OW67985   4.010   5.674   8.203
55363SOL    HW167986   4.018   5.767   8.222
55363SOL    HW267987   4.061   5.661   8.123
55364SOL     OW67988  14.834  11.719  10.479
55364SOL    HW167989  14.866  11.782  10.414
55364SOL    HW267990  14.819  11.771  10.558
55365SOL     OW67991   2.802  13.133   4.198
55365SOL    HW167992   2.837  13.222   4.198
55365SOL    HW267993   2.880  13.077   4.200
55366SOL     OW67994  10.429   2.433   4.613
55366SOL    HW167995  10.498   2.464   4.553
55366SOL    HW267996  10.409   2.509   4.667
55367SOL     OW67997  14.687  14.083   8.279
55367SOL    HW167998  14.643  14.047   8.356
55367SOL    HW267999  14.617  14.123   8.228
55368SOL     OW68000  10.134   7.365   5.496
55368SOL    HW168001  10.214   7.411   5.518
55368SOL    HW268002  10.088   7.422   5.435
55369SOL     OW68003   2.296  14.365   0.231
55369SOL    HW168004   2.359  14.313   0.181
55369SOL    HW268005   2.345  14.397   0.307
55370SOL     OW68006   1.913   0.307   5.355
55370SOL    HW168007   1.833   0.360   5.348
55370SOL    HW268008   1.952   0.310   5.268
55371SOL     OW68009   0.757   9.305   7.714
55371SOL    HW168010   0.848   9.276   7.704
55371SOL    HW268011   0.725   9.258   7.790
55372SOL     OW68012   8.304   3.175   6.724
55372SOL    HW168013   8.307   3.270   6.739
55372SOL    HW268014   8.386   3.143   6.762
55373SOL     OW68015   3.987   4.205   6.318
55373SOL    HW168016   4.075   4.179   6.294
55373SOL    HW268017   3.957   4.138   6.380
55374SOL     OW68018   9.305  12.793   0.108
55374SOL    HW168019   9.290  12.836   0.192
55374SOL    HW268020   9.241  12.833   0.049
55375SOL     OW68021  13.308   4.868  11.974
55375SOL    HW168022  13.382   4.911  12.016
55375SOL    HW268023  13.286   4.925  11.900
55376SOL     OW68024   6.536   1.235  12.161
55376SOL    HW168025   6.461   1.208  12.214
55376SOL    HW268026   6.543   1.168  12.093
55377SOL     OW68027   5.808   4.220  14.762
55377SOL    HW168028   5.880   4.242  14.821
55377SOL    HW268029   5.849   4.168  14.692
55378SOL     OW68030   3.569   6.164   4.462
55378SOL    HW168031   3.631   6.092   4.466
55378SOL    HW268032   3.586   6.207   4.378
55379SOL     OW68033  10.093  14.747  14.549
55379SOL    HW168034  10.155  14.702  14.491
55379SOL    HW268035  10.115  14.717  14.637
55380SOL     OW68036   9.608   4.149  10.890
55380SOL    HW168037   9.612   4.190  10.803
55380SOL    HW268038   9.584   4.058  10.872
55381SOL     OW68039   3.814   0.968  11.112
55381SOL    HW168040   3.894   1.010  11.081
55381SOL    HW268041   3.831   0.946  11.203
55382SOL     OW68042   4.349   8.593   3.123
55382SOL    HW168043   4.406   8.580   3.199
55382SOL    HW268044   4.363   8.684   3.098
55383SOL     OW68045  12.031   9.263   6.604
55383SOL    HW168046  12.086   9.190   6.632
55383SOL    HW268047  12.021   9.317   6.682
55384SOL     OW68048   7.142   8.857   0.184
55384SOL    HW168049   7.089   8.892   0.256
55384SOL    HW268050   7.159   8.931   0.127
55385SOL     OW68051  10.515  12.799   9.777
55385SOL    HW168052  10.505  12.874   9.836
55385SOL    HW268053  10.503  12.723   9.834
55386SOL     OW68054   9.559   0.609   4.571
55386SOL    HW168055   9.496   0.636   4.637
55386SOL    HW268056   9.634   0.666   4.584
55387SOL     OW68057   2.120   7.060  14.451
55387SOL    HW168058   2.204   7.053  14.497
55387SOL    HW268059   2.079   6.975  14.464
55388SOL     OW68060  12.807  10.757  13.112
55388SOL    HW168061  12.743  10.703  13.067
55388SOL    HW268062  12.814  10.836  13.058
55389SOL     OW68063  11.729   3.096  13.423
55389SOL    HW168064  11.691   3.009  13.409
55389SOL    HW268065  11.815   3.092  13.382
55390SOL     OW68066   0.629  13.435   0.995
55390SOL    HW168067   0.615  13.366   1.060
55390SOL    HW268068   0.596  13.514   1.036
55391SOL     OW68069   8.641  13.040  14.200
55391SOL    HW168070   8.631  13.071  14.110
55391SOL    HW268071   8.697  12.963  14.193
55392SOL     OW68072  13.328   3.920   5.742
55392SOL    HW168073  13.381   3.921   5.822
55392SOL    HW268074  13.279   3.839   5.747
55393SOL     OW68075  12.642   9.790   2.229
55393SOL    HW168076  12.696   9.866   2.248
55393SOL    HW268077  12.667   9.725   2.296
55394SOL     OW68078  14.459   6.857  14.220
55394SOL    HW168079  14.551   6.875  14.201
55394SOL    HW268080  14.454   6.761  14.226
55395SOL     OW68081   1.940  10.332   0.805
55395SOL    HW168082   1.964  10.310   0.715
55395SOL    HW268083   2.005  10.396   0.833
55396SOL     OW68084   2.562   2.995   3.338
55396SOL    HW168085   2.646   2.970   3.375
55396SOL    HW268086   2.561   3.091   3.341
55397SOL     OW68087   1.241  12.982   5.990
55397SOL    HW168088   1.215  13.041   5.920
55397SOL    HW268089   1.327  12.950   5.964
55398SOL     OW68090   7.228   2.604  14.157
55398SOL    HW168091   7.188   2.620  14.242
55398SOL    HW268092   7.204   2.680  14.104
55399SOL     OW68093  13.326  13.738   1.698
55399SOL    HW168094  13.257  13.784   1.650
55399SOL    HW268095  13.362  13.676   1.635
55400SOL     OW68096   6.057  14.144   5.040
55400SOL    HW168097   6.046  14.196   5.119
55400SOL    HW268098   6.054  14.053   5.071
55401SOL     OW68099   5.665   5.850   6.878
55401SOL    HW168100   5.676   5.798   6.798
55401SOL    HW268101   5.634   5.787   6.943
55402SOL     OW68102   5.699   5.767   1.936
55402SOL    HW168103   5.671   5.840   1.991
55402SOL    HW268104   5.712   5.805   1.849
55403SOL     OW68105   3.695   2.553  12.030
55403SOL    HW168106   3.740   2.471  12.015
55403SOL    HW268107   3.681   2.556  12.125
55404SOL     OW68108  11.699   2.462   5.438
55404SOL    HW168109  11.730   2.466   5.529
55404SOL    HW268110  11.641   2.537   5.430
55405SOL     OW68111  12.436  11.113  12.015
55405SOL    HW168112  12.431  11.022  11.986
55405SOL    HW268113  12.419  11.109  12.109
55406SOL     OW68114  14.196   8.876   6.265
55406SOL    HW168115  14.135   8.900   6.335
55406SOL    HW268116  14.203   8.781   6.270
55407SOL     OW68117  13.844   8.140  13.251
55407SOL    HW168118  13.833   8.052  13.217
55407SOL    HW268119  13.883   8.189  13.178
55408SOL     OW68120   3.503  10.963   7.953
55408SOL    HW168121   3.523  10.891   7.893
55408SOL    HW268122   3.579  11.021   7.947
55409SOL     OW68123  12.743  10.064   2.300
55409SOL    HW168124  12.827  10.043   2.341
55409SOL    HW268125  12.689  10.099   2.371
55410SOL     OW68126  10.572   1.041   7.996
55410SOL    HW168127  10.650   1.086   7.965
55410SOL    HW268128  10.601   0.992   8.073
55411SOL     OW68129  12.778   5.488  10.107
55411SOL    HW168130  12.793   5.578  10.078
55411SOL    HW268131  12.687   5.470  10.084
55412SOL     OW68132   1.262  10.616  14.614
55412SOL    HW168133   1.210  10.573  14.545
55412SOL    HW268134   1.278  10.704  14.580
55413SOL     OW68135  10.465  10.301  11.807
55413SOL    HW168136  10.531  10.367  11.783
55413SOL    HW268137  10.430  10.331  11.891
55414SOL     OW68138   7.961   1.639   5.071
55414SOL    HW168139   8.021   1.564   5.064
55414SOL    HW268140   7.998   1.704   5.011
55415SOL     OW68141   3.950   4.534  13.075
55415SOL    HW168142   3.912   4.471  13.136
55415SOL    HW268143   4.014   4.582  13.127
55416SOL     OW68144  10.109   3.663   6.173
55416SOL    HW168145  10.058   3.592   6.212
55416SOL    HW268146  10.188   3.669   6.227
55417SOL     OW68147  13.942   6.306   1.562
55417SOL    HW168148  13.919   6.366   1.490
55417SOL    HW268149  13.990   6.361   1.624
55418SOL     OW68150  10.465   8.281   9.539
55418SOL    HW168151  10.422   8.291   9.624
55418SOL    HW268152  10.420   8.207   9.498
55419SOL     OW68153   6.183  14.787  10.632
55419SOL    HW168154   6.242  14.712  10.633
55419SOL    HW268155   6.175  14.812  10.724
55420SOL     OW68156  11.867  11.427   7.636
55420SOL    HW168157  11.843  11.334   7.645
55420SOL    HW268158  11.785  11.474   7.650
55421SOL     OW68159   7.060   0.438  13.037
55421SOL    HW168160   6.974   0.397  13.036
55421SOL    HW268161   7.108   0.398  12.965
55422SOL     OW68162  13.947   4.464  12.792
55422SOL    HW168163  14.018   4.523  12.766
55422SOL    HW268164  13.881   4.473  12.724
55423SOL     OW68165   2.051  14.236  10.412
55423SOL    HW168166   2.121  14.213  10.474
55423SOL    HW268167   2.066  14.179  10.337
55424SOL     OW68168  14.284  11.457   3.133
55424SOL    HW168169  14.327  11.505   3.062
55424SOL    HW268170  14.258  11.374   3.094
55425SOL     OW68171   3.376   0.299  10.580
55425SOL    HW168172   3.339   0.332  10.662
55425SOL    HW268173   3.423   0.220  10.605
55426SOL     OW68174   4.060   4.274  13.794
55426SOL    HW168175   4.118   4.201  13.813
55426SOL    HW268176   4.028   4.302  13.880
55427SOL     OW68177   0.402   0.543   1.149
55427SOL    HW168178   0.360   0.600   1.214
55427SOL    HW268179   0.331   0.521   1.088
55428SOL     OW68180   8.360   5.856   6.272
55428SOL    HW168181   8.434   5.833   6.327
55428SOL    HW268182   8.310   5.920   6.324
55429SOL     OW68183   0.419   4.155  13.755
55429SOL    HW168184   0.347   4.211  13.727
55429SOL    HW268185   0.460   4.126  13.674
55430SOL     OW68186   7.517  10.949  11.539
55430SOL    HW168187   7.445  10.944  11.476
55430SOL    HW268188   7.596  10.938  11.486
55431SOL     OW68189   0.421   8.910  13.175
55431SOL    HW168190   0.492   8.973  13.185
55431SOL    HW268191   0.464   8.824  13.177
55432SOL     OW68192  10.383   0.130   9.566
55432SOL    HW168193  10.412   0.160   9.479
55432SOL    HW268194  10.348   0.208   9.608
55433SOL     OW68195   3.832   7.427   7.281
55433SOL    HW168196   3.768   7.499   7.286
55433SOL    HW268197   3.897   7.457   7.218
55434SOL     OW68198  11.932   8.381  13.750
55434SOL    HW168199  12.017   8.374  13.707
55434SOL    HW268200  11.941   8.327  13.829
55435SOL     OW68201  11.180   6.402   2.979
55435SOL    HW168202  11.225   6.470   2.929
55435SOL    HW268203  11.183   6.433   3.069
55436SOL     OW68204   3.123   3.995   8.307
55436SOL    HW168205   3.169   4.048   8.373
55436SOL    HW268206   3.091   4.059   8.244
55437SOL     OW68207   2.760  12.571  10.583
55437SOL    HW168208   2.734  12.500  10.642
55437SOL    HW268209   2.728  12.650  10.626
55438SOL     OW68210  10.926   4.809   9.172
55438SOL    HW168211  10.903   4.812   9.079
55438SOL    HW268212  10.872   4.738   9.207
55439SOL     OW68213  13.017   1.972  12.111
55439SOL    HW168214  12.997   1.878  12.105
55439SOL    HW268215  12.961   2.004  12.182
55440SOL     OW68216   5.365  11.145   0.655
55440SOL    HW168217   5.436  11.172   0.596
55440SOL    HW268218   5.287  11.143   0.600
55441SOL     OW68219   5.100   6.624  12.519
55441SOL    HW168220   5.047   6.668  12.586
55441SOL    HW268221   5.083   6.531  12.532
55442SOL     OW68222  14.659  10.497   1.933
55442SOL    HW168223  14.566  10.476   1.931
55442SOL    HW268224  14.686  10.499   1.842
55443SOL     OW68225   7.083  10.041  14.337
55443SOL    HW168226   7.169  10.037  14.297
55443SOL    HW268227   7.097  10.083  14.421
55444SOL     OW68228   6.778   0.332   2.466
55444SOL    HW168229   6.831   0.336   2.386
55444SOL    HW268230   6.692   0.365   2.439
55445SOL     OW68231   0.728  13.837   6.835
55445SOL    HW168232   0.784  13.777   6.786
55445SOL    HW268233   0.759  13.830   6.925
55446SOL     OW68234   6.163   8.192   5.290
55446SOL    HW168235   6.197   8.263   5.235
55446SOL    HW268236   6.068   8.194   5.276
55447SOL     OW68237  10.805   4.177   2.444
55447SOL    HW168238  10.757   4.212   2.519
55447SOL    HW268239  10.743   4.118   2.401
55448SOL     OW68240   8.662   9.545   1.283
55448SOL    HW168241   8.595   9.609   1.258
55448SOL    HW268242   8.714   9.532   1.204
55449SOL     OW68243  13.668  14.815   1.721
55449SOL    HW168244  13.613  14.785   1.793
55449SOL    HW268245  13.703   0.032   1.751
55450SOL     OW68246  13.768   9.282   0.938
55450SOL    HW168247  13.817   9.242   1.010
55450SOL    HW268248  13.820   9.262   0.860
55451SOL     OW68249  10.669  12.666  10.879
55451SOL    HW168250  10.698  12.628  10.962
55451SOL    HW268251  10.583  12.703  10.897
55452SOL     OW68252   5.879   6.016   6.975
55452SOL    HW168253   5.867   5.929   6.936
55452SOL    HW268254   5.911   5.998   7.064
55453SOL     OW68255  13.760   8.190   2.087
55453SOL    HW168256  13.722   8.254   2.027
55453SOL    HW268257  13.718   8.209   2.171
55454SOL     OW68258   4.569   8.449   0.443
55454SOL    HW168259   4.497   8.388   0.457
55454SOL    HW268260   4.644   8.409   0.488
55455SOL     OW68261   4.779   2.538   9.504
55455SOL    HW168262   4.810   2.611   9.558
55455SOL    HW268263   4.688   2.560   9.485
55456SOL     OW68264   7.855   6.737   9.191
55456SOL    HW168265   7.878   6.645   9.199
55456SOL    HW268266   7.898   6.766   9.110
55457SOL     OW68267  11.476   6.979   0.870
55457SOL    HW168268  11.436   7.046   0.925
55457SOL    HW268269  11.526   7.028   0.806
55458SOL     OW68270   5.925  11.372   3.088
55458SOL    HW168271   6.010  11.409   3.111
55458SOL    HW268272   5.863  11.418   3.144
55459SOL     OW68273   0.361  11.213   5.077
55459SOL    HW168274   0.416  11.290   5.088
55459SOL    HW268275   0.365  11.168   5.161
55460SOL     OW68276   9.224   9.442   9.830
55460SOL    HW168277   9.184   9.529   9.828
55460SOL    HW268278   9.160   9.387   9.876
55461SOL     OW68279   5.175  14.603   3.017
55461SOL    HW168280   5.224  14.685   3.010
55461SOL    HW268281   5.167  14.572   2.926
55462SOL     OW68282  13.613  10.889  12.476
55462SOL    HW168283  13.621  10.801  12.440
55462SOL    HW268284  13.597  10.945  12.400
55463SOL     OW68285   0.717  13.196   6.206
55463SOL    HW168286   0.746  13.113   6.169
55463SOL    HW268287   0.640  13.220   6.155
55464SOL     OW68288   9.668   5.805  11.638
55464SOL    HW168289   9.682   5.714  11.612
55464SOL    HW268290   9.754   5.846  11.630
55465SOL     OW68291   8.600   4.008   9.057
55465SOL    HW168292   8.544   4.049   8.991
55465SOL    HW268293   8.570   4.045   9.140
55466SOL     OW68294   4.694   1.431  13.068
55466SOL    HW168295   4.604   1.438  13.102
55466SOL    HW268296   4.710   1.516  13.026
55467SOL     OW68297   6.110   1.134  14.199
55467SOL    HW168298   6.159   1.069  14.251
55467SOL    HW268299   6.121   1.105  14.109
55468SOL     OW68300  12.628   2.618   9.281
55468SOL    HW168301  12.677   2.560   9.222
55468SOL    HW268302  12.579   2.558   9.338
55469SOL     OW68303   6.240  10.100  13.248
55469SOL    HW168304   6.224  10.007  13.262
55469SOL    HW268305   6.198  10.119  13.164
55470SOL     OW68306   3.916   6.599   5.854
55470SOL    HW168307   4.003   6.603   5.894
55470SOL    HW268308   3.908   6.510   5.821
55471SOL     OW68309   9.361   5.464   2.236
55471SOL    HW168310   9.296   5.455   2.166
55471SOL    HW268311   9.373   5.376   2.270
55472SOL     OW68312   3.384   5.033  13.719
55472SOL    HW168313   3.384   4.939  13.701
55472SOL    HW268314   3.461   5.047  13.774
55473SOL     OW68315   3.276   0.377  11.965
55473SOL    HW168316   3.345   0.328  11.920
55473SOL    HW268317   3.217   0.309  11.998
55474SOL     OW68318  12.931   1.750   5.279
55474SOL    HW168319  12.874   1.762   5.203
55474SOL    HW268320  12.998   1.688   5.249
55475SOL     OW68321   0.860   1.865   8.645
55475SOL    HW168322   0.955   1.861   8.639
55475SOL    HW268323   0.843   1.947   8.691
55476SOL     OW68324  13.585  11.999   3.300
55476SOL    HW168325  13.580  12.004   3.205
55476SOL    HW268326  13.507  12.046   3.331
55477SOL     OW68327  13.486   6.658   3.011
55477SOL    HW168328  13.573   6.631   3.041
55477SOL    HW268329  13.440   6.681   3.092
55478SOL     OW68330   5.100   5.282  12.779
55478SOL    HW168331   5.082   5.356  12.838
55478SOL    HW268332   5.118   5.322  12.694
55479SOL     OW68333   3.806   0.860  10.243
55479SOL    HW168334   3.852   0.890  10.321
55479SOL    HW268335   3.869   0.803  10.199
55480SOL     OW68336   7.575   2.618  10.388
55480SOL    HW168337   7.615   2.558  10.325
55480SOL    HW268338   7.484   2.626  10.360
55481SOL     OW68339   4.556  10.915   6.577
55481SOL    HW168340   4.637  10.864   6.579
55481SOL    HW268341   4.507  10.880   6.502
55482SOL     OW68342   1.178   9.632  14.435
55482SOL    HW168343   1.167   9.639  14.529
55482SOL    HW268344   1.272   9.645  14.421
55483SOL     OW68345   0.226  13.205   5.090
55483SOL    HW168346   0.220  13.151   5.012
55483SOL    HW268347   0.215  13.144   5.163
55484SOL     OW68348   6.838  14.357   7.008
55484SOL    HW168349   6.744  14.357   7.026
55484SOL    HW268350   6.873  14.289   7.067
55485SOL     OW68351   0.878  13.809   4.850
55485SOL    HW168352   0.926  13.817   4.767
55485SOL    HW268353   0.877  13.898   4.886
55486SOL     OW68354  11.687  12.174   2.320
55486SOL    HW168355  11.694  12.235   2.394
55486SOL    HW268356  11.741  12.099   2.346
55487SOL     OW68357  13.689  12.201   2.443
55487SOL    HW168358  13.625  12.185   2.512
55487SOL    HW268359  13.723  12.289   2.462
55488SOL     OW68360  14.718   5.260  10.628
55488SOL    HW168361  14.653   5.206  10.584
55488SOL    HW268362  14.670   5.337  10.658
55489SOL     OW68363   2.127   1.060   3.527
55489SOL    HW168364   2.192   1.127   3.549
55489SOL    HW268365   2.140   1.045   3.433
55490SOL     OW68366   1.117   0.733  10.017
55490SOL    HW168367   1.208   0.710  10.037
55490SOL    HW268368   1.100   0.812  10.069
55491SOL     OW68369   7.045  11.197   5.885
55491SOL    HW168370   7.033  11.291   5.900
55491SOL    HW268371   7.098  11.192   5.805
55492SOL     OW68372  14.352   9.590   6.163
55492SOL    HW168373  14.288   9.526   6.131
55492SOL    HW268374  14.352   9.577   6.258
55493SOL     OW68375  11.800   2.520   7.037
55493SOL    HW168376  11.856   2.507   6.961
55493SOL    HW268377  11.858   2.508   7.112
55494SOL     OW68378  14.229   7.606  11.670
55494SOL    HW168379  14.222   7.613  11.575
55494SOL    HW268380  14.139   7.605  11.701
55495SOL     OW68381   5.316   9.860   5.393
55495SOL    HW168382   5.397   9.851   5.444
55495SOL    HW268383   5.257   9.794   5.430
55496SOL     OW68384  12.822   1.561   0.540
55496SOL    HW168385  12.832   1.544   0.634
55496SOL    HW268386  12.904   1.602   0.514
55497SOL     OW68387   6.213   3.304  12.464
55497SOL    HW168388   6.298   3.317  12.422
55497SOL    HW268389   6.149   3.311  12.393
55498SOL     OW68390   3.714  14.164   6.470
55498SOL    HW168391   3.641  14.207   6.426
55498SOL    HW268392   3.736  14.222   6.543
55499SOL     OW68393   9.337  13.105  11.654
55499SOL    HW168394   9.364  13.134  11.567
55499SOL    HW268395   9.402  13.039  11.678
55500SOL     OW68396   6.392  13.066   8.085
55500SOL    HW168397   6.324  13.125   8.053
55500SOL    HW268398   6.425  13.022   8.007
55501SOL     OW68399  12.618   2.442   8.863
55501SOL    HW168400  12.657   2.407   8.784
55501SOL    HW268401  12.531   2.473   8.835
55502SOL     OW68402   3.977   2.661  12.549
55502SOL    HW168403   4.067   2.680  12.523
55502SOL    HW268404   3.923   2.716  12.492
55503SOL     OW68405   5.584   0.542  11.157
55503SOL    HW168406   5.629   0.484  11.096
55503SOL    HW268407   5.529   0.483  11.209
55504SOL     OW68408   4.583   9.063   1.829
55504SOL    HW168409   4.629   9.128   1.881
55504SOL    HW268410   4.502   9.106   1.801
55505SOL     OW68411   9.066  13.593   0.033
55505SOL    HW168412   9.078  13.512   0.083
55505SOL    HW268413   9.127  13.584  14.827
55506SOL     OW68414   5.463   4.466   4.090
55506SOL    HW168415   5.391   4.528   4.072
55506SOL    HW268416   5.419   4.382   4.104
55507SOL     OW68417   3.706   0.435   3.611
55507SOL    HW168418   3.751   0.364   3.565
55507SOL    HW268419   3.775   0.497   3.633
55508SOL     OW68420   9.270   4.566   8.611
55508SOL    HW168421   9.338   4.538   8.550
55508SOL    HW268422   9.211   4.491   8.618
55509SOL     OW68423   2.469   8.440   9.175
55509SOL    HW168424   2.498   8.531   9.177
55509SOL    HW268425   2.411   8.432   9.251
55510SOL     OW68426  12.267   4.367   4.136
55510SOL    HW168427  12.342   4.402   4.184
55510SOL    HW268428  12.265   4.417   4.054
55511SOL     OW68429  13.983  10.952   0.724
55511SOL    HW168430  14.073  10.942   0.696
55511SOL    HW268431  13.987  10.950   0.820
55512SOL     OW68432   9.626   8.311   6.431
55512SOL    HW168433   9.537   8.323   6.465
55512SOL    HW268434   9.660   8.234   6.477
55513SOL     OW68435   9.216   1.827   5.678
55513SOL    HW168436   9.302   1.827   5.721
55513SOL    HW268437   9.229   1.775   5.599
55514SOL     OW68438   8.594   8.815  10.969
55514SOL    HW168439   8.505   8.780  10.970
55514SOL    HW268440   8.649   8.741  10.993
55515SOL     OW68441   2.377   9.127  14.071
55515SOL    HW168442   2.437   9.167  14.008
55515SOL    HW268443   2.290   9.150  14.039
55516SOL     OW68444   5.729  12.889   1.683
55516SOL    HW168445   5.789  12.944   1.633
55516SOL    HW268446   5.655  12.874   1.625
55517SOL     OW68447   7.202   9.065   8.069
55517SOL    HW168448   7.297   9.065   8.066
55517SOL    HW268449   7.179   9.154   8.097
55518SOL     OW68450  14.324   8.361   2.332
55518SOL    HW168451  14.312   8.275   2.293
55518SOL    HW268452  14.301   8.423   2.262
55519SOL     OW68453   5.387   2.476  13.165
55519SOL    HW168454   5.313   2.421  13.192
55519SOL    HW268455   5.464   2.431  13.199
55520SOL     OW68456   0.776  12.596   9.012
55520SOL    HW168457   0.768  12.542   9.091
55520SOL    HW268458   0.781  12.533   8.940
55521SOL     OW68459  13.405   0.227   7.131
55521SOL    HW168460  13.362   0.280   7.064
55521SOL    HW268461  13.472   0.177   7.084
55522SOL     OW68462   4.294   9.015  12.910
55522SOL    HW168463   4.374   8.968  12.889
55522SOL    HW268464   4.237   9.001  12.834
55523SOL     OW68465   5.958   4.732  14.365
55523SOL    HW168466   5.977   4.639  14.355
55523SOL    HW268467   6.019   4.762  14.432
55524SOL     OW68468   6.773   1.124   0.558
55524SOL    HW168469   6.700   1.143   0.616
55524SOL    HW268470   6.776   1.028   0.553
55525SOL     OW68471  11.606   4.623   6.407
55525SOL    HW168472  11.562   4.558   6.352
55525SOL    HW268473  11.644   4.573   6.479
55526SOL     OW68474  11.843  12.866   0.605
55526SOL    HW168475  11.786  12.918   0.549
55526SOL    HW268476  11.834  12.776   0.571
55527SOL     OW68477   7.519  10.239   4.151
55527SOL    HW168478   7.528  10.145   4.138
55527SOL    HW268479   7.572  10.278   4.081
55528SOL     OW68480   0.724   0.206   1.042
55528SOL    HW168481   0.703   0.270   1.110
55528SOL    HW268482   0.813   0.229   1.013
55529SOL     OW68483   3.690   2.707  12.853
55529SOL    HW168484   3.721   2.780  12.799
55529SOL    HW268485   3.767   2.650  12.862
55530SOL     OW68486  14.559   7.670   6.877
55530SOL    HW168487  14.636   7.656   6.932
55530SOL    HW268488  14.512   7.586   6.880
55531SOL     OW68489   8.615   2.940   2.728
55531SOL    HW168490   8.629   3.034   2.720
55531SOL    HW268491   8.520   2.930   2.731
55532SOL     OW68492   6.168   7.405  11.656
55532SOL    HW168493   6.109   7.480  11.665
55532SOL    HW268494   6.171   7.366  11.743
55533SOL     OW68495  13.117  10.095  13.560
55533SOL    HW168496  13.138  10.188  13.551
55533SOL    HW268497  13.031  10.094  13.601
55534SOL     OW68498   5.204   0.799   4.829
55534SOL    HW168499   5.290   0.793   4.787
55534SOL    HW268500   5.154   0.725   4.792
55535SOL     OW68501  13.042   4.809  13.278
55535SOL    HW168502  13.137   4.798  13.289
55535SOL    HW268503  13.021   4.885  13.332
55536SOL     OW68504   3.921   0.146   6.127
55536SOL    HW168505   3.928   0.105   6.040
55536SOL    HW268506   3.839   0.113   6.163
55537SOL     OW68507   9.693   8.452  11.705
55537SOL    HW168508   9.655   8.464  11.618
55537SOL    HW268509   9.622   8.414  11.757
55538SOL     OW68510  13.075  10.414  12.732
55538SOL    HW168511  13.040  10.476  12.796
55538SOL    HW268512  13.004  10.403  12.668
55539SOL     OW68513   9.273   9.740  11.437
55539SOL    HW168514   9.237   9.810  11.382
55539SOL    HW268515   9.353   9.712  11.392
55540SOL     OW68516   5.692  13.277   8.683
55540SOL    HW168517   5.725  13.362   8.654
55540SOL    HW268518   5.768  13.219   8.677
55541SOL     OW68519  11.068   0.658   9.244
55541SOL    HW168520  10.975   0.674   9.262
55541SOL    HW268521  11.074   0.562   9.237
55542SOL     OW68522   3.804  10.343  12.543
55542SOL    HW168523   3.730  10.370  12.487
55542SOL    HW268524   3.764  10.330  12.629
55543SOL     OW68525  11.530   7.082   2.758
55543SOL    HW168526  11.439   7.106   2.774
55543SOL    HW268527  11.546   7.007   2.815
55544SOL     OW68528   1.498  10.170  11.373
55544SOL    HW168529   1.542  10.224  11.438
55544SOL    HW268530   1.561  10.101  11.351
55545SOL     OW68531   0.546   0.441   1.821
55545SOL    HW168532   0.468   0.476   1.778
55545SOL    HW268533   0.515   0.364   1.869
55546SOL     OW68534   7.673  13.891  10.947
55546SOL    HW168535   7.670  13.854  11.036
55546SOL    HW268536   7.766  13.887  10.923
55547SOL     OW68537  11.665  12.418   3.250
55547SOL    HW168538  11.732  12.361   3.214
55547SOL    HW268539  11.645  12.480   3.180
55548SOL     OW68540   9.515   8.116   0.217
55548SOL    HW168541   9.534   8.129   0.124
55548SOL    HW268542   9.433   8.162   0.232
55549SOL     OW68543   0.042   2.151  12.713
55549SOL    HW168544  14.821   2.131  12.683
55549SOL    HW268545   0.029   2.216  12.782
55550SOL     OW68546  14.803  13.927   1.903
55550SOL    HW168547  14.711  13.957   1.899
55550SOL    HW268548  14.847  13.992   1.958
55551SOL     OW68549   6.129   9.503   2.842
55551SOL    HW168550   6.064   9.462   2.785
55551SOL    HW268551   6.167   9.430   2.891
55552SOL     OW68552  14.803   0.180  10.378
55552SOL    HW168553  14.862   0.108  10.356
55552SOL    HW268554  14.822   0.248  10.313
55553SOL     OW68555   3.472   5.817   3.223
55553SOL    HW168556   3.552   5.803   3.172
55553SOL    HW268557   3.488   5.897   3.272
55554SOL     OW68558   4.285   1.643   4.703
55554SOL    HW168559   4.342   1.651   4.626
55554SOL    HW268560   4.225   1.718   4.695
55555SOL     OW68561   1.761  10.215   9.052
55555SOL    HW168562   1.767  10.305   9.083
55555SOL    HW268563   1.671  10.189   9.069
55556SOL     OW68564   9.962  11.020  14.429
55556SOL    HW168565   9.982  11.094  14.487
55556SOL    HW268566   9.977  11.054  14.341
55557SOL     OW68567   3.331   7.917   8.611
55557SOL    HW168568   3.323   7.824   8.633
55557SOL    HW268569   3.309   7.921   8.518
55558SOL     OW68570  14.224   5.473   9.142
55558SOL    HW168571  14.220   5.563   9.108
55558SOL    HW268572  14.218   5.483   9.237
55559SOL     OW68573   7.053  13.921   1.587
55559SOL    HW168574   6.978  13.874   1.624
55559SOL    HW268575   7.121  13.855   1.576
55560SOL     OW68576  12.507   3.179  13.464
55560SOL    HW168577  12.580   3.224  13.422
55560SOL    HW268578  12.457   3.140  13.392
55561SOL     OW68579   0.299  11.374   6.859
55561SOL    HW168580   0.307  11.367   6.764
55561SOL    HW268581   0.290  11.284   6.890
55562SOL     OW68582   3.121   7.825   4.123
55562SOL    HW168583   3.170   7.884   4.180
55562SOL    HW268584   3.050   7.791   4.178
55563SOL     OW68585  14.678   3.951   4.237
55563SOL    HW168586  14.707   4.019   4.177
55563SOL    HW268587  14.747   3.884   4.232
55564SOL     OW68588  12.809   8.215   8.993
55564SOL    HW168589  12.715   8.230   8.982
55564SOL    HW268590  12.822   8.220   9.088
55565SOL     OW68591   0.704   5.266   0.898
55565SOL    HW168592   0.735   5.178   0.877
55565SOL    HW268593   0.775   5.305   0.948
55566SOL     OW68594  12.561   1.378   2.301
55566SOL    HW168595  12.509   1.299   2.320
55566SOL    HW268596  12.519   1.416   2.224
55567SOL     OW68597  10.473   1.188   0.147
55567SOL    HW168598  10.533   1.238   0.092
55567SOL    HW268599  10.519   1.106   0.166
55568SOL     OW68600   9.492   1.375   5.457
55568SOL    HW168601   9.443   1.439   5.406
55568SOL    HW268602   9.448   1.374   5.542
55569SOL     OW68603   2.950   9.413   3.118
55569SOL    HW168604   3.001   9.390   3.195
55569SOL    HW268605   2.892   9.484   3.148
55570SOL     OW68606   0.694  10.152  13.309
55570SOL    HW168607   0.774  10.138  13.359
55570SOL    HW268608   0.724  10.172  13.220
55571SOL     OW68609  13.011   5.944  10.911
55571SOL    HW168610  12.926   5.986  10.919
55571SOL    HW268611  13.050   5.951  10.999
55572SOL     OW68612   8.788   4.702  13.994
55572SOL    HW168613   8.762   4.623  13.947
55572SOL    HW268614   8.815   4.763  13.925
55573SOL     OW68615  12.289  14.248   4.408
55573SOL    HW168616  12.281  14.298   4.327
55573SOL    HW268617  12.199  14.232   4.436
55574SOL     OW68618   1.603  14.714  11.762
55574SOL    HW168619   1.657  14.746  11.834
55574SOL    HW268620   1.518  14.697  11.801
55575SOL     OW68621  12.232  13.125  10.111
55575SOL    HW168622  12.228  13.084  10.198
55575SOL    HW268623  12.156  13.183  10.109
55576SOL     OW68624  12.601  13.708  10.809
55576SOL    HW168625  12.507  13.724  10.812
55576SOL    HW268626  12.610  13.615  10.830
55577SOL     OW68627  13.863   8.603   7.817
55577SOL    HW168628  13.837   8.692   7.793
55577SOL    HW268629  13.933   8.614   7.881
55578SOL     OW68630  10.891  10.125   5.824
55578SOL    HW168631  10.883  10.110   5.919
55578SOL    HW268632  10.915  10.040   5.788
55579SOL     OW68633   4.044   1.301   8.539
55579SOL    HW168634   4.076   1.369   8.480
55579SOL    HW268635   3.955   1.328   8.562
55580SOL     OW68636   9.880  10.733   3.553
55580SOL    HW168637   9.915  10.667   3.493
55580SOL    HW268638   9.850  10.804   3.496
55581SOL     OW68639   9.678   4.587   5.420
55581SOL    HW168640   9.761   4.630   5.402
55581SOL    HW268641   9.656   4.613   5.510
55582SOL     OW68642   1.467   7.281   0.197
55582SOL    HW168643   1.404   7.340   0.157
55582SOL    HW268644   1.533   7.265   0.129
55583SOL     OW68645  14.627  12.762   6.053
55583SOL    HW168646  14.536  12.762   6.083
55583SOL    HW268647  14.640  12.674   6.017
55584SOL     OW68648   9.543  12.000  14.096
55584SOL    HW168649   9.621  12.007  14.152
55584SOL    HW268650   9.486  11.938  14.142
55585SOL     OW68651  12.339  11.627   4.838
55585SOL    HW168652  12.420  11.634   4.787
55585SOL    HW268653  12.304  11.541   4.816
55586SOL     OW68654   6.645  10.119   6.569
55586SOL    HW168655   6.716  10.059   6.593
55586SOL    HW268656   6.611  10.084   6.486
55587SOL     OW68657  11.490   5.509  13.863
55587SOL    HW168658  11.582   5.482  13.871
55587SOL    HW268659  11.481   5.582  13.924
55588SOL     OW68660   5.169   8.534  10.498
55588SOL    HW168661   5.102   8.510  10.563
55588SOL    HW268662   5.228   8.593  10.545
55589SOL     OW68663   8.001  12.063  11.904
55589SOL    HW168664   7.935  12.035  11.840
55589SOL    HW268665   7.980  12.012  11.983
55590SOL     OW68666  14.466  14.323   5.507
55590SOL    HW168667  14.436  14.247   5.458
55590SOL    HW268668  14.540  14.356   5.456
55591SOL     OW68669   3.514   0.664  11.660
55591SOL    HW168670   3.512   0.568  11.666
55591SOL    HW268671   3.605   0.687  11.680
55592SOL     OW68672   7.958   4.987  13.432
55592SOL    HW168673   7.969   4.991  13.337
55592SOL    HW268674   8.042   5.016  13.468
55593SOL     OW68675  11.921   4.553   9.338
55593SOL    HW168676  11.955   4.619   9.279
55593SOL    HW268677  11.978   4.558   9.415
55594SOL     OW68678   4.001   6.698  14.350
55594SOL    HW168679   3.952   6.778  14.333
55594SOL    HW268680   4.059   6.688  14.274
55595SOL     OW68681   7.053   2.733  13.330
55595SOL    HW168682   7.032   2.812  13.280
55595SOL    HW268683   7.051   2.761  13.421
55596SOL     OW68684   0.530  12.818   1.491
55596SOL    HW168685   0.454  12.787   1.539
55596SOL    HW268686   0.530  12.767   1.410
55597SOL     OW68687  12.645   2.143  13.926
55597SOL    HW168688  12.710   2.078  13.954
55597SOL    HW268689  12.687   2.227  13.940
55598SOL     OW68690   8.481  11.524   6.918
55598SOL    HW168691   8.417  11.498   6.852
55598SOL    HW268692   8.534  11.445   6.934
55599SOL     OW68693  14.276  12.211  11.939
55599SOL    HW168694  14.270  12.219  12.034
55599SOL    HW268695  14.326  12.130  11.925
55600SOL     OW68696   0.543  12.023  12.326
55600SOL    HW168697   0.462  11.981  12.299
55600SOL    HW268698   0.602  12.012  12.252
55601SOL     OW68699   9.827   2.644  13.506
55601SOL    HW168700   9.735   2.632  13.531
55601SOL    HW268701   9.876   2.627  13.586
55602SOL     OW68702   0.609  10.955   5.880
55602SOL    HW168703   0.695  10.970   5.918
55602SOL    HW268704   0.585  11.040   5.841
55603SOL     OW68705  13.028   4.065  14.262
55603SOL    HW168706  13.057   4.000  14.198
55603SOL    HW268707  12.980   4.130  14.211
55604SOL     OW68708   5.185   4.351   5.680
55604SOL    HW168709   5.190   4.446   5.668
55604SOL    HW268710   5.094   4.329   5.663
55605SOL     OW68711  12.845  11.295   6.381
55605SOL    HW168712  12.793  11.222   6.347
55605SOL    HW268713  12.903  11.254   6.446
55606SOL     OW68714   1.445   5.036   5.318
55606SOL    HW168715   1.449   5.098   5.391
55606SOL    HW268716   1.377   5.072   5.260
55607SOL     OW68717   5.064   3.222   8.997
55607SOL    HW168718   5.116   3.230   8.917
55607SOL    HW268719   4.977   3.197   8.966
55608SOL     OW68720  11.408   7.642   9.731
55608SOL    HW168721  11.326   7.598   9.710
55608SOL    HW268722  11.393   7.679   9.818
55609SOL     OW68723  14.560  14.107   5.674
55609SOL    HW168724  14.513  14.180   5.634
55609SOL    HW268725  14.503  14.077   5.744
55610SOL     OW68726   8.815  13.124   4.850
55610SOL    HW168727   8.788  13.079   4.770
55610SOL    HW268728   8.766  13.206   4.849
55611SOL     OW68729  10.011   8.118   0.431
55611SOL    HW168730  10.018   8.023   0.422
55611SOL    HW268731   9.917   8.136   0.421
55612SOL     OW68732   2.337   7.779  10.713
55612SOL    HW168733   2.417   7.831  10.719
55612SOL    HW268734   2.286   7.803  10.791
55613SOL     OW68735   5.396   8.270   3.105
55613SOL    HW168736   5.436   8.325   3.038
55613SOL    HW268737   5.303   8.268   3.084
55614SOL     OW68738   7.345   4.375   3.057
55614SOL    HW168739   7.425   4.325   3.045
55614SOL    HW268740   7.311   4.389   2.968
55615SOL     OW68741   4.739  14.581   8.341
55615SOL    HW168742   4.706  14.575   8.430
55615SOL    HW268743   4.824  14.536   8.343
55616SOL     OW68744   2.912   7.968   2.758
55616SOL    HW168745   2.980   7.903   2.772
55616SOL    HW268746   2.874   7.946   2.673
55617SOL     OW68747   2.767   1.293   3.294
55617SOL    HW168748   2.844   1.321   3.245
55617SOL    HW268749   2.704   1.268   3.226
55618SOL     OW68750  11.751  14.569   4.784
55618SOL    HW168751  11.794  14.655   4.782
55618SOL    HW268752  11.707  14.567   4.869
55619SOL     OW68753   6.463   1.851  12.881
55619SOL    HW168754   6.477   1.807  12.965
55619SOL    HW268755   6.517   1.930  12.887
55620SOL     OW68756   9.968  13.699  12.846
55620SOL    HW168757   9.899  13.702  12.912
55620SOL    HW268758   9.922  13.691  12.763
55621SOL     OW68759  14.725  14.692  13.149
55621SOL    HW168760  14.630  14.701  13.148
55621SOL    HW268761  14.755  14.766  13.202
55622SOL     OW68762  11.880  10.303  14.315
55622SOL    HW168763  11.943  10.295  14.243
55622SOL    HW268764  11.829  10.381  14.293
55623SOL     OW68765   0.315  12.326   4.946
55623SOL    HW168766   0.280  12.270   4.877
55623SOL    HW268767   0.372  12.268   4.997
55624SOL     OW68768   7.803   4.970  10.824
55624SOL    HW168769   7.813   4.943  10.915
55624SOL    HW268770   7.831   4.894  10.773
55625SOL     OW68771   8.004   8.700   7.110
55625SOL    HW168772   7.912   8.676   7.123
55625SOL    HW268773   8.048   8.616   7.096
55626SOL     OW68774   1.630   1.909   0.824
55626SOL    HW168775   1.597   1.968   0.893
55626SOL    HW268776   1.618   1.959   0.743
55627SOL     OW68777   1.265   4.386   9.943
55627SOL    HW168778   1.175   4.404   9.969
55627SOL    HW268779   1.292   4.313   9.999
55628SOL     OW68780   2.721   8.183   7.196
55628SOL    HW168781   2.814   8.189   7.218
55628SOL    HW268782   2.682   8.133   7.268
55629SOL     OW68783   9.376   8.632   1.384
55629SOL    HW168784   9.413   8.563   1.440
55629SOL    HW268785   9.342   8.585   1.308
55630SOL     OW68786   4.491  12.093  14.862
55630SOL    HW168787   4.421  12.039   0.030
55630SOL    HW268788   4.514  12.154   0.064
55631SOL     OW68789   5.043   7.327   4.829
55631SOL    HW168790   5.101   7.396   4.864
55631SOL    HW268791   4.972   7.322   4.892
55632SOL     OW68792  14.630   3.281   5.653
55632SOL    HW168793  14.676   3.289   5.569
55632SOL    HW268794  14.562   3.216   5.638
55633SOL     OW68795   7.215   8.038   4.451
55633SOL    HW168796   7.169   8.003   4.527
55633SOL    HW268797   7.196   8.132   4.452
55634SOL     OW68798   9.903   7.707   8.886
55634SOL    HW168799   9.946   7.675   8.965
55634SOL    HW268800   9.968   7.697   8.817
55635SOL     OW68801   4.465  13.207   6.629
55635SOL    HW168802   4.530  13.214   6.560
55635SOL    HW268803   4.508  13.156   6.698
55636SOL     OW68804  10.531   4.339   3.685
55636SOL    HW168805  10.445   4.296   3.685
55636SOL    HW268806  10.511   4.432   3.694
55637SOL     OW68807   2.571   5.014   1.914
55637SOL    HW168808   2.583   5.037   1.822
55637SOL    HW268809   2.657   4.984   1.943
55638SOL     OW68810   6.733  12.341   9.955
55638SOL    HW168811   6.663  12.406   9.962
55638SOL    HW268812   6.794  12.365  10.025
55639SOL     OW68813   3.029   3.167   7.869
55639SOL    HW168814   2.952   3.223   7.883
55639SOL    HW268815   3.012   3.090   7.923
55640SOL     OW68816   5.603  10.727   0.925
55640SOL    HW168817   5.534  10.664   0.943
55640SOL    HW268818   5.557  10.811   0.918
55641SOL     OW68819   5.818   6.140  14.792
55641SOL    HW168820   5.805   6.224  14.835
55641SOL    HW268821   5.910   6.120  14.809
55642SOL     OW68822   2.875   9.193   5.911
55642SOL    HW168823   2.921   9.246   5.845
55642SOL    HW268824   2.945   9.148   5.958
55643SOL     OW68825   8.014  12.352   1.853
55643SOL    HW168826   8.071  12.277   1.867
55643SOL    HW268827   8.056  12.423   1.902
55644SOL     OW68828   5.367  11.873  11.885
55644SOL    HW168829   5.407  11.945  11.934
55644SOL    HW268830   5.339  11.913  11.802
55645SOL     OW68831  10.108   6.157   1.486
55645SOL    HW168832  10.185   6.100   1.492
55645SOL    HW268833  10.085   6.156   1.393
55646SOL     OW68834   1.749  11.281  12.703
55646SOL    HW168835   1.710  11.196  12.720
55646SOL    HW268836   1.770  11.315  12.790
55647SOL     OW68837   2.908   6.708   4.083
55647SOL    HW168838   2.955   6.746   4.009
55647SOL    HW268839   2.820   6.690   4.050
55648SOL     OW68840   7.317  14.847   8.359
55648SOL    HW168841   7.260  14.791   8.412
55648SOL    HW268842   7.297   0.068   8.388
55649SOL     OW68843   1.343   4.259   7.290
55649SOL    HW168844   1.396   4.252   7.370
55649SOL    HW268845   1.261   4.299   7.320
55650SOL     OW68846   3.805   8.487   9.742
55650SOL    HW168847   3.745   8.481   9.817
55650SOL    HW268848   3.837   8.577   9.744
55651SOL     OW68849  10.775  13.767  12.242
55651SOL    HW168850  10.786  13.808  12.328
55651SOL    HW268851  10.862  13.771  12.203
55652SOL     OW68852   1.677   7.416   3.953
55652SOL    HW168853   1.726   7.480   4.004
55652SOL    HW268854   1.706   7.431   3.863
55653SOL     OW68855   9.022   3.292   9.834
55653SOL    HW168856   8.965   3.363   9.866
55653SOL    HW268857   9.001   3.218   9.891
55654SOL     OW68858  11.691   6.184   2.212
55654SOL    HW168859  11.629   6.118   2.181
55654SOL    HW268860  11.744   6.138   2.278
55655SOL     OW68861   3.257  10.717   8.822
55655SOL    HW168862   3.333  10.662   8.805
55655SOL    HW268863   3.200  10.704   8.746
55656SOL     OW68864   1.593   1.896   3.834
55656SOL    HW168865   1.505   1.862   3.851
55656SOL    HW268866   1.644   1.820   3.808
55657SOL     OW68867   4.488   4.504   3.206
55657SOL    HW168868   4.563   4.456   3.169
55657SOL    HW268869   4.526   4.558   3.275
55658SOL     OW68870  13.864   4.147  12.278
55658SOL    HW168871  13.807   4.215  12.313
55658SOL    HW268872  13.806   4.089  12.229
55659SOL     OW68873   5.979  10.420  13.437
55659SOL    HW168874   6.038  10.477  13.389
55659SOL    HW268875   6.032  10.341  13.455
55660SOL     OW68876  13.579   5.930  11.313
55660SOL    HW168877  13.527   5.882  11.377
55660SOL    HW268878  13.620   6.001  11.364
55661SOL     OW68879  10.009  10.101   5.635
55661SOL    HW168880  10.035  10.051   5.712
55661SOL    HW268881  10.078  10.083   5.571
55662SOL     OW68882   8.878  14.272   5.264
55662SOL    HW168883   8.938  14.204   5.293
55662SOL    HW268884   8.903  14.291   5.174
55663SOL     OW68885  11.131   4.054   7.158
55663SOL    HW168886  11.090   3.987   7.213
55663SOL    HW268887  11.112   4.137   7.203
55664SOL     OW68888  14.347   7.951   3.878
55664SOL    HW168889  14.312   7.862   3.877
55664SOL    HW268890  14.299   7.996   3.809
55665SOL     OW68891   2.732   9.469   7.162
55665SOL    HW168892   2.653   9.415   7.175
55665SOL    HW268893   2.795   9.409   7.123
55666SOL     OW68894  12.883   1.660   5.646
55666SOL    HW168895  12.789   1.666   5.662
55666SOL    HW268896  12.890   1.599   5.572
55667SOL     OW68897  10.631  12.507   6.529
55667SOL    HW168898  10.701  12.571   6.518
55667SOL    HW268899  10.551  12.554   6.506
55668SOL     OW68900   1.584   9.235  13.932
55668SOL    HW168901   1.563   9.225  14.025
55668SOL    HW268902   1.627   9.321  13.927
55669SOL     OW68903   8.366  12.722   2.528
55669SOL    HW168904   8.365  12.750   2.437
55669SOL    HW268905   8.437  12.658   2.533
55670SOL     OW68906   0.084   9.449   8.398
55670SOL    HW168907   0.105   9.531   8.353
55670SOL    HW268908   0.166   9.424   8.441
55671SOL     OW68909  12.286  10.582   0.446
55671SOL    HW168910  12.260  10.588   0.354
55671SOL    HW268911  12.350  10.653   0.457
55672SOL     OW68912   6.062   3.777  14.649
55672SOL    HW168913   6.019   3.691  14.647
55672SOL    HW268914   6.140   3.763  14.703
55673SOL     OW68915   6.488   8.948   6.380
55673SOL    HW168916   6.500   8.874   6.320
55673SOL    HW268917   6.414   8.922   6.435
55674SOL     OW68918  11.101   0.413  12.356
55674SOL    HW168919  11.117   0.378  12.443
55674SOL    HW268920  11.188   0.431  12.321
55675SOL     OW68921  14.396   9.318   0.160
55675SOL    HW168922  14.477   9.272   0.136
55675SOL    HW268923  14.422   9.376   0.232
55676SOL     OW68924  12.127   8.943   0.254
55676SOL    HW168925  12.118   9.011   0.188
55676SOL    HW268926  12.120   8.861   0.205
55677SOL     OW68927   8.213  10.464  12.112
55677SOL    HW168928   8.299  10.444  12.148
55677SOL    HW268929   8.155  10.466  12.189
55678SOL     OW68930  13.522   1.667  13.646
55678SOL    HW168931  13.443   1.663  13.699
55678SOL    HW268932  13.590   1.628  13.700
55679SOL     OW68933  10.249   6.739   8.051
55679SOL    HW168934  10.261   6.829   8.019
55679SOL    HW268935  10.338   6.705   8.060
55680SOL     OW68936  14.309  11.539  10.981
55680SOL    HW168937  14.380  11.477  10.967
55680SOL    HW268938  14.260  11.504  11.055
55681SOL     OW68939  11.333  11.976  13.567
55681SOL    HW168940  11.242  11.994  13.543
55681SOL    HW268941  11.360  11.905  13.509
55682SOL     OW68942  12.771  12.822   6.793
55682SOL    HW168943  12.778  12.904   6.744
55682SOL    HW268944  12.690  12.831   6.843
55683SOL     OW68945   9.120   1.613   5.841
55683SOL    HW168946   9.117   1.630   5.747
55683SOL    HW268947   9.166   1.689   5.878
55684SOL     OW68948  12.519  12.746   7.210
55684SOL    HW168949  12.445  12.792   7.250
55684SOL    HW268950  12.580  12.732   7.283
55685SOL     OW68951   1.590  13.237   4.800
55685SOL    HW168952   1.585  13.174   4.872
55685SOL    HW268953   1.542  13.195   4.729
55686SOL     OW68954   8.388   2.182   5.771
55686SOL    HW168955   8.456   2.233   5.727
55686SOL    HW268956   8.369   2.110   5.711
55687SOL     OW68957  14.214  10.666   9.013
55687SOL    HW168958  14.133  10.714   9.028
55687SOL    HW268959  14.203  10.624   8.928
55688SOL     OW68960   1.265   6.086  12.280
55688SOL    HW168961   1.256   6.113  12.188
55688SOL    HW268962   1.196   6.135  12.325
55689SOL     OW68963   1.526  14.374   7.517
55689SOL    HW168964   1.484  14.395   7.433
55689SOL    HW268965   1.603  14.323   7.492
55690SOL     OW68966  11.151   1.787   6.662
55690SOL    HW168967  11.206   1.833   6.725
55690SOL    HW268968  11.180   1.819   6.576
55691SOL     OW68969   2.613   3.318  10.415
55691SOL    HW168970   2.689   3.376  10.418
55691SOL    HW268971   2.641   3.245  10.360
55692SOL     OW68972   9.922  12.340  11.892
55692SOL    HW168973   9.893  12.423  11.930
55692SOL    HW268974   9.860  12.322  11.822
55693SOL     OW68975   2.238   9.081  12.810
55693SOL    HW168976   2.294   9.133  12.869
55693SOL    HW268977   2.192   9.020  12.867
55694SOL     OW68978   8.142   5.697  14.475
55694SOL    HW168979   8.065   5.732  14.431
55694SOL    HW268980   8.108   5.632  14.536
55695SOL     OW68981  10.147  13.538   1.525
55695SOL    HW168982  10.131  13.575   1.439
55695SOL    HW268983  10.237  13.505   1.521
55696SOL     OW68984   3.294   4.025   9.677
55696SOL    HW168985   3.348   4.054   9.603
55696SOL    HW268986   3.353   4.027   9.752
55697SOL     OW68987   7.581  10.507  10.543
55697SOL    HW168988   7.645  10.499  10.472
55697SOL    HW268989   7.614  10.579  10.597
55698SOL     OW68990   7.298   5.026   5.530
55698SOL    HW168991   7.298   5.107   5.479
55698SOL    HW268992   7.383   4.986   5.513
55699SOL     OW68993   2.375   0.814  13.314
55699SOL    HW168994   2.392   0.902  13.279
55699SOL    HW268995   2.383   0.757  13.238
55700SOL     OW68996   7.372   5.742   2.997
55700SOL    HW168997   7.304   5.798   3.034
55700SOL    HW268998   7.381   5.773   2.907
55701SOL     OW68999  14.190   8.454   2.556
55701SOL    HW169000  14.187   8.380   2.616
55701SOL    HW269001  14.201   8.415   2.469
55702SOL     OW69002   4.499   8.793   7.507
55702SOL    HW169003   4.409   8.769   7.488
55702SOL    HW269004   4.536   8.717   7.551
55703SOL     OW69005   3.591   2.180   5.889
55703SOL    HW169006   3.569   2.135   5.808
55703SOL    HW269007   3.507   2.191   5.934
55704SOL     OW69008   6.966   4.119  10.039
55704SOL    HW169009   7.046   4.170  10.029
55704SOL    HW269010   6.910   4.146   9.966
55705SOL     OW69011  11.956   8.152   1.269
55705SOL    HW169012  11.971   8.086   1.337
55705SOL    HW269013  11.917   8.226   1.315
55706SOL     OW69014   3.705   3.886   4.243
55706SOL    HW169015   3.648   3.859   4.315
55706SOL    HW269016   3.771   3.817   4.238
55707SOL     OW69017   7.346   3.013  14.246
55707SOL    HW169018   7.347   2.953  14.320
55707SOL    HW269019   7.435   3.008  14.210
55708SOL     OW69020   6.571   0.014   2.089
55708SOL    HW169021   6.501  14.820   2.074
55708SOL    HW269022   6.620  14.846   2.163
55709SOL     OW69023   3.811  11.654  10.768
55709SOL    HW169024   3.904  11.657  10.746
55709SOL    HW269025   3.777  11.580  10.718
55710SOL     OW69026  10.302   0.099   2.927
55710SOL    HW169027  10.352   0.018   2.913
55710SOL    HW269028  10.293   0.137   2.839
55711SOL     OW69029   0.377   8.728   0.457
55711SOL    HW169030   0.408   8.674   0.530
55711SOL    HW269031   0.428   8.808   0.463
55712SOL     OW69032   4.298  13.984   9.352
55712SOL    HW169033   4.257  14.023   9.275
55712SOL    HW269034   4.365  13.925   9.317
55713SOL     OW69035   1.049   9.984   5.914
55713SOL    HW169036   0.976  10.014   5.861
55713SOL    HW269037   1.061   9.892   5.888
55714SOL     OW69038   0.472  13.482  13.635
55714SOL    HW169039   0.425  13.429  13.570
55714SOL    HW269040   0.454  13.439  13.719
55715SOL     OW69041   1.172   4.116   7.522
55715SOL    HW169042   1.140   4.170   7.449
55715SOL    HW269043   1.251   4.162   7.552
55716SOL     OW69044   0.185  14.065   5.729
55716SOL    HW169045   0.243  13.990   5.741
55716SOL    HW269046   0.100  14.025   5.709
55717SOL     OW69047  10.187   9.190   7.540
55717SOL    HW169048  10.268   9.183   7.590
55717SOL    HW269049  10.180   9.283   7.517
55718SOL     OW69050   9.617   5.222   1.522
55718SOL    HW169051   9.584   5.311   1.513
55718SOL    HW269052   9.554   5.179   1.580
55719SOL     OW69053  12.475  12.178   2.818
55719SOL    HW169054  12.408  12.128   2.864
55719SOL    HW269055  12.558  12.144   2.853
55720SOL     OW69056  11.206  12.727   9.763
55720SOL    HW169057  11.177  12.784   9.691
55720SOL    HW269058  11.128  12.677   9.786
55721SOL     OW69059  12.287   4.575  10.664
55721SOL    HW169060  12.353   4.509  10.685
55721SOL    HW269061  12.337   4.651  10.636
55722SOL     OW69062   8.972   4.673   6.348
55722SOL    HW169063   9.029   4.614   6.398
55722SOL    HW269064   8.935   4.731   6.415
55723SOL     OW69065   9.466  10.366   3.152
55723SOL    HW169066   9.528  10.340   3.085
55723SOL    HW269067   9.487  10.458   3.171
55724SOL     OW69068   9.874   9.032  11.698
55724SOL    HW169069   9.867   8.979  11.777
55724SOL    HW269070   9.969   9.039  11.683
55725SOL     OW69071   0.334  14.818   0.063
55725SOL    HW169072   0.287  14.748   0.108
55725SOL    HW269073   0.345   0.019   0.128
55726SOL     OW69074   3.256   5.486  13.803
55726SOL    HW169075   3.339   5.440  13.810
55726SOL    HW269076   3.240   5.495  13.709
55727SOL     OW69077   6.222   8.345   2.663
55727SOL    HW169078   6.222   8.436   2.632
55727SOL    HW269079   6.315   8.324   2.674
55728SOL     OW69080  10.745  12.174  12.701
55728SOL    HW169081  10.803  12.249  12.693
55728SOL    HW269082  10.760  12.141  12.790
55729SOL     OW69083   3.735  12.929  13.279
55729SOL    HW169084   3.792  13.005  13.289
55729SOL    HW269085   3.705  12.909  13.367
55730SOL     OW69086   7.331  13.980  12.543
55730SOL    HW169087   7.327  13.952  12.635
55730SOL    HW269088   7.348  14.074  12.547
55731SOL     OW69089   0.914   0.322   0.687
55731SOL    HW169090   0.829   0.303   0.647
55731SOL    HW269091   0.930   0.248   0.745
55732SOL     OW69092  12.913   7.919   7.211
55732SOL    HW169093  12.895   7.993   7.154
55732SOL    HW269094  12.981   7.869   7.166
55733SOL     OW69095  12.963   2.664   8.335
55733SOL    HW169096  13.011   2.606   8.275
55733SOL    HW269097  12.978   2.626   8.421
55734SOL     OW69098   5.010   3.412   1.040
55734SOL    HW169099   5.048   3.342   0.986
55734SOL    HW269100   5.056   3.491   1.013
55735SOL     OW69101  12.365   2.674  10.063
55735SOL    HW169102  12.345   2.671  10.157
55735SOL    HW269103  12.437   2.736  10.055
55736SOL     OW69104   6.277  11.871  14.652
55736SOL    HW169105   6.322  11.950  14.622
55736SOL    HW269106   6.224  11.901  14.726
55737SOL     OW69107  13.926  12.309   7.316
55737SOL    HW169108  13.918  12.399   7.347
55737SOL    HW269109  14.020  12.299   7.299
55738SOL     OW69110   0.738   4.313  14.436
55738SOL    HW169111   0.814   4.268  14.471
55738SOL    HW269112   0.713   4.263  14.359
55739SOL     OW69113   3.217  10.815  11.820
55739SOL    HW169114   3.246  10.834  11.731
55739SOL    HW269115   3.190  10.723  11.817
55740SOL     OW69116   6.340   3.637   2.741
55740SOL    HW169117   6.431   3.642   2.713
55740SOL    HW269118   6.289   3.662   2.664
55741SOL     OW69119   5.705   9.554   4.960
55741SOL    HW169120   5.684   9.494   5.031
55741SOL    HW269121   5.794   9.531   4.934
55742SOL     OW69122  14.132  10.777   5.067
55742SOL    HW169123  14.121  10.869   5.043
55742SOL    HW269124  14.112  10.775   5.161
55743SOL     OW69125   2.831   9.424   9.788
55743SOL    HW169126   2.806   9.516   9.791
55743SOL    HW269127   2.919   9.422   9.825
55744SOL     OW69128   4.799  10.851   9.536
55744SOL    HW169129   4.863  10.921   9.553
55744SOL    HW269130   4.826  10.814   9.452
55745SOL     OW69131   1.084   6.233   3.302
55745SOL    HW169132   1.077   6.260   3.210
55745SOL    HW269133   0.994   6.235   3.335
55746SOL     OW69134   6.909   8.270   4.055
55746SOL    HW169135   6.979   8.248   3.993
55746SOL    HW269136   6.834   8.292   4.000
55747SOL     OW69137  12.845  12.073   0.025
55747SOL    HW169138  12.935  12.102   0.007
55747SOL    HW269139  12.840  12.069   0.121
55748SOL     OW69140  10.155   5.768   8.625
55748SOL    HW169141  10.170   5.726   8.710
55748SOL    HW269142  10.060   5.780   8.621
55749SOL     OW69143   3.663   3.956  13.418
55749SOL    HW169144   3.603   3.978  13.347
55749SOL    HW269145   3.647   3.864  13.436
55750SOL     OW69146   3.887   7.817   8.485
55750SOL    HW169147   3.925   7.729   8.476
55750SOL    HW269148   3.874   7.827   8.580
55751SOL     OW69149   7.379   5.011  13.978
55751SOL    HW169150   7.294   5.054  13.969
55751SOL    HW269151   7.435   5.056  13.915
55752SOL     OW69152   9.097  10.355  11.076
55752SOL    HW169153   9.016  10.326  11.119
55752SOL    HW269154   9.120  10.284  11.016
55753SOL     OW69155   9.188   5.768   4.788
55753SOL    HW169156   9.274   5.775   4.831
55753SOL    HW269157   9.175   5.674   4.776
55754SOL     OW69158   9.773   3.293  13.413
55754SOL    HW169159   9.809   3.378  13.438
55754SOL    HW269160   9.680   3.309  13.402
55755SOL     OW69161  14.522   3.362   2.276
55755SOL    HW169162  14.483   3.443   2.308
55755SOL    HW269163  14.583   3.336   2.346
55756SOL     OW69164   3.048  14.347   5.831
55756SOL    HW169165   3.055  14.443   5.827
55756SOL    HW269166   2.954  14.331   5.838
55757SOL     OW69167  12.207   4.602   8.798
55757SOL    HW169168  12.146   4.561   8.860
55757SOL    HW269169  12.242   4.529   8.747
55758SOL     OW69170   1.542  13.674  11.816
55758SOL    HW169171   1.619  13.654  11.764
55758SOL    HW269172   1.472  13.621  11.778
55759SOL     OW69173  13.110   9.036  14.598
55759SOL    HW169174  13.201   9.060  14.615
55759SOL    HW269175  13.099   9.046  14.504
55760SOL     OW69176  10.825  10.859   1.411
55760SOL    HW169177  10.862  10.934   1.363
55760SOL    HW269178  10.901  10.812   1.445
55761SOL     OW69179  10.012   0.022  10.687
55761SOL    HW169180  10.077   0.065  10.633
55761SOL    HW269181   9.994   0.084  10.758
55762SOL     OW69182   5.953   9.363  11.257
55762SOL    HW169183   5.966   9.284  11.204
55762SOL    HW269184   5.875   9.344  11.309
55763SOL     OW69185   5.195   5.121   5.024
55763SOL    HW169186   5.177   5.087   4.936
55763SOL    HW269187   5.267   5.066   5.056
55764SOL     OW69188  10.682   2.243   4.714
55764SOL    HW169189  10.691   2.190   4.793
55764SOL    HW269190  10.588   2.246   4.697
55765SOL     OW69191   4.908  14.472   4.340
55765SOL    HW169192   5.003  14.468   4.356
55765SOL    HW269193   4.889  14.391   4.292
55766SOL     OW69194   3.590   6.016   8.270
55766SOL    HW169195   3.626   5.950   8.211
55766SOL    HW269196   3.549   5.966   8.340
55767SOL     OW69197   7.518   4.283   6.367
55767SOL    HW169198   7.552   4.279   6.456
55767SOL    HW269199   7.498   4.192   6.345
55768SOL     OW69200  13.862  12.290   6.539
55768SOL    HW169201  13.853  12.375   6.495
55768SOL    HW269202  13.929  12.243   6.488
55769SOL     OW69203   8.842   9.581   3.199
55769SOL    HW169204   8.893   9.577   3.280
55769SOL    HW269205   8.906   9.604   3.131
55770SOL     OW69206   1.996   0.795  12.489
55770SOL    HW169207   1.928   0.731  12.509
55770SOL    HW269208   1.959   0.879  12.514
55771SOL     OW69209  13.125   4.482  11.110
55771SOL    HW169210  13.143   4.465  11.202
55771SOL    HW269211  13.206   4.521  11.077
55772SOL     OW69212   4.638   2.245   3.927
55772SOL    HW169213   4.598   2.291   4.001
55772SOL    HW269214   4.727   2.280   3.921
55773SOL     OW69215   2.211   4.561   4.952
55773SOL    HW169216   2.167   4.632   4.905
55773SOL    HW269217   2.256   4.604   5.024
55774SOL     OW69218   0.515   0.809  14.584
55774SOL    HW169219   0.503   0.852  14.669
55774SOL    HW269220   0.525   0.716  14.606
55775SOL     OW69221   0.942   9.439  10.594
55775SOL    HW169222   0.921   9.354  10.557
55775SOL    HW269223   0.928   9.501  10.523
55776SOL     OW69224   9.040  12.741   3.329
55776SOL    HW169225   9.088  12.666   3.293
55776SOL    HW269226   8.950  12.711   3.338
55777SOL     OW69227   2.978   7.821   1.314
55777SOL    HW169228   3.066   7.801   1.348
55777SOL    HW269229   2.919   7.769   1.368
55778SOL     OW69230  10.811   0.937   0.532
55778SOL    HW169231  10.796   0.873   0.601
55778SOL    HW269232  10.746   1.005   0.547
55779SOL     OW69233   3.656   8.968  12.154
55779SOL    HW169234   3.736   8.935  12.195
55779SOL    HW269235   3.642   8.910  12.079
55780SOL     OW69236   4.667   9.315  10.619
55780SOL    HW169237   4.678   9.293  10.712
55780SOL    HW269238   4.717   9.396  10.607
55781SOL     OW69239  11.576   2.619   4.676
55781SOL    HW169240  11.653   2.563   4.688
55781SOL    HW269241  11.502   2.560   4.693
55782SOL     OW69242   7.488   0.254   5.909
55782SOL    HW169243   7.448   0.170   5.934
55782SOL    HW269244   7.444   0.278   5.828
55783SOL     OW69245  10.538   6.819   7.466
55783SOL    HW169246  10.623   6.785   7.492
55783SOL    HW269247  10.526   6.788   7.376
55784SOL     OW69248   4.628   5.943   6.326
55784SOL    HW169249   4.669   5.921   6.410
55784SOL    HW269250   4.677   5.891   6.261
55785SOL     OW69251   8.350   5.515   0.471
55785SOL    HW169252   8.301   5.584   0.426
55785SOL    HW269253   8.284   5.451   0.497
55786SOL     OW69254   8.335   2.282  12.141
55786SOL    HW169255   8.317   2.311  12.051
55786SOL    HW269256   8.250   2.281  12.184
55787SOL     OW69257  10.411  10.162   5.038
55787SOL    HW169258  10.394  10.134   4.948
55787SOL    HW269259  10.477  10.230   5.030
55788SOL     OW69260   2.357   7.456   7.066
55788SOL    HW169261   2.432   7.505   7.099
55788SOL    HW269262   2.320   7.414   7.144
55789SOL     OW69263  14.148   6.191  12.187
55789SOL    HW169264  14.088   6.234  12.247
55789SOL    HW269265  14.099   6.187  12.104
55790SOL     OW69266  11.467  13.127  11.450
55790SOL    HW169267  11.432  13.121  11.361
55790SOL    HW269268  11.538  13.063  11.453
55791SOL     OW69269   3.011  11.045  13.327
55791SOL    HW169270   2.981  10.990  13.254
55791SOL    HW269271   3.083  11.095  13.291
55792SOL     OW69272  12.228  11.967   1.864
55792SOL    HW169273  12.308  12.017   1.850
55792SOL    HW269274  12.237  11.892   1.805
55793SOL     OW69275  10.559  13.193   4.097
55793SOL    HW169276  10.467  13.217   4.106
55793SOL    HW269277  10.559  13.120   4.036
55794SOL     OW69278   9.653   2.781   5.924
55794SOL    HW169279   9.594   2.813   5.993
55794SOL    HW269280   9.603   2.793   5.843
55795SOL     OW69281   7.327   3.259  12.082
55795SOL    HW169282   7.264   3.263  12.009
55795SOL    HW269283   7.392   3.326  12.061
55796SOL     OW69284   6.392  11.383   9.732
55796SOL    HW169285   6.316  11.434   9.707
55796SOL    HW269286   6.370  11.293   9.706
55797SOL     OW69287   0.296   7.750  10.665
55797SOL    HW169288   0.325   7.659  10.657
55797SOL    HW269289   0.306   7.770  10.759
55798SOL     OW69290   3.834  11.353  13.977
55798SOL    HW169291   3.804  11.311  13.896
55798SOL    HW269292   3.776  11.319  14.045
55799SOL     OW69293  13.603   9.684   0.354
55799SOL    HW169294  13.618   9.779   0.359
55799SOL    HW269295  13.511   9.673   0.379
55800SOL     OW69296   4.420  13.263   2.503
55800SOL    HW169297   4.421  13.189   2.563
55800SOL    HW269298   4.453  13.228   2.420
55801SOL     OW69299   8.124   3.347   1.322
55801SOL    HW169300   8.050   3.403   1.297
55801SOL    HW269301   8.101   3.314   1.409
55802SOL     OW69302   3.725   2.839  14.464
55802SOL    HW169303   3.687   2.752  14.478
55802SOL    HW269304   3.819   2.826  14.480
55803SOL     OW69305  10.623   2.211   0.401
55803SOL    HW169306  10.581   2.198   0.316
55803SOL    HW269307  10.696   2.149   0.402
55804SOL     OW69308   5.795   2.866  13.178
55804SOL    HW169309   5.884   2.866  13.213
55804SOL    HW269310   5.747   2.805  13.234
55805SOL     OW69311  12.881   3.693  14.007
55805SOL    HW169312  12.945   3.737  14.064
55805SOL    HW269313  12.897   3.599  14.022
55806SOL     OW69314  10.363   2.384   9.285
55806SOL    HW169315  10.317   2.416   9.208
55806SOL    HW269316  10.311   2.310   9.316
55807SOL     OW69317   0.398  10.227   3.158
55807SOL    HW169318   0.420  10.275   3.078
55807SOL    HW269319   0.481  10.189   3.187
55808SOL     OW69320   9.741   7.964   6.450
55808SOL    HW169321   9.735   7.869   6.466
55808SOL    HW269322   9.714   8.004   6.533
55809SOL     OW69323   8.815   7.926  12.968
55809SOL    HW169324   8.906   7.899  12.977
55809SOL    HW269325   8.810   8.010  13.013
55810SOL     OW69326   1.914  10.806   0.512
55810SOL    HW169327   1.829  10.772   0.538
55810SOL    HW269328   1.924  10.888   0.561
55811SOL     OW69329   4.694   3.443   9.259
55811SOL    HW169330   4.781   3.405   9.270
55811SOL    HW269331   4.705   3.536   9.276
55812SOL     OW69332   7.111   5.632   5.333
55812SOL    HW169333   7.154   5.660   5.253
55812SOL    HW269334   7.025   5.601   5.305
55813SOL     OW69335   4.919   0.094  11.461
55813SOL    HW169336   4.945   0.074  11.371
55813SOL    HW269337   4.832   0.054  11.470
55814SOL     OW69338  12.668   2.264   5.390
55814SOL    HW169339  12.697   2.355   5.394
55814SOL    HW269340  12.747   2.215   5.369
55815SOL     OW69341   8.945   8.507   1.809
55815SOL    HW169342   8.889   8.541   1.739
55815SOL    HW269343   8.903   8.425   1.835
55816SOL     OW69344   0.943  13.103   9.142
55816SOL    HW169345   0.872  13.041   9.127
55816SOL    HW269346   0.939  13.163   9.068
55817SOL     OW69347   2.679   6.840   8.530
55817SOL    HW169348   2.698   6.929   8.560
55817SOL    HW269349   2.660   6.850   8.436
55818SOL     OW69350  12.018   8.292  14.015
55818SOL    HW169351  12.105   8.255  14.030
55818SOL    HW269352  12.032   8.387  14.017
55819SOL     OW69353   5.174   0.127   9.563
55819SOL    HW169354   5.218   0.055   9.517
55819SOL    HW269355   5.164   0.094   9.653
55820SOL     OW69356   3.501   8.374   8.335
55820SOL    HW169357   3.530   8.443   8.394
55820SOL    HW269358   3.571   8.309   8.337
55821SOL     OW69359  10.273  10.070   1.669
55821SOL    HW169360  10.241  10.057   1.580
55821SOL    HW269361  10.307   9.984   1.696
55822SOL     OW69362  12.383   7.319   5.896
55822SOL    HW169363  12.299   7.281   5.871
55822SOL    HW269364  12.426   7.338   5.813
55823SOL     OW69365   6.715   9.188  13.994
55823SOL    HW169366   6.794   9.242  14.001
55823SOL    HW269367   6.741   9.114  13.939
55824SOL     OW69368   0.836  14.760   4.573
55824SOL    HW169369   0.846  14.850   4.604
55824SOL    HW269370   0.772  14.721   4.632
55825SOL     OW69371  12.623   1.983  11.031
55825SOL    HW169372  12.536   2.019  11.015
55825SOL    HW269373  12.613   1.889  11.013
55826SOL     OW69374  12.825   5.693   0.162
55826SOL    HW169375  12.886   5.623   0.137
55826SOL    HW269376  12.881   5.762   0.197
55827SOL     OW69377   7.517   1.901   2.356
55827SOL    HW169378   7.546   1.877   2.444
55827SOL    HW269379   7.598   1.919   2.308
55828SOL     OW69380   7.743   2.344  12.914
55828SOL    HW169381   7.829   2.332  12.874
55828SOL    HW269382   7.687   2.373  12.842
55829SOL     OW69383   6.110   4.493   3.539
55829SOL    HW169384   6.097   4.555   3.611
55829SOL    HW269385   6.025   4.451   3.529
55830SOL     OW69386  10.288   1.202   5.490
55830SOL    HW169387  10.275   1.148   5.412
55830SOL    HW269388  10.370   1.169   5.528
55831SOL     OW69389  10.804   7.991   8.552
55831SOL    HW169390  10.879   7.990   8.612
55831SOL    HW269391  10.753   8.068   8.579
55832SOL     OW69392  11.883   1.439  10.582
55832SOL    HW169393  11.880   1.458  10.676
55832SOL    HW269394  11.873   1.344  10.575
55833SOL     OW69395   1.438  10.671   8.127
55833SOL    HW169396   1.454  10.618   8.206
55833SOL    HW269397   1.517  10.724   8.117
55834SOL     OW69398   6.778  10.215  14.805
55834SOL    HW169399   6.717  10.288  14.804
55834SOL    HW269400   6.836  10.234   0.012
55835SOL     OW69401   9.689   9.472   7.159
55835SOL    HW169402   9.664   9.549   7.210
55835SOL    HW269403   9.739   9.418   7.220
55836SOL     OW69404  13.249  13.744   0.478
55836SOL    HW169405  13.191  13.675   0.511
55836SOL    HW269406  13.230  13.820   0.535
55837SOL     OW69407   3.055   9.672   6.608
55837SOL    HW169408   3.137   9.722   6.597
55837SOL    HW269409   3.064   9.632   6.695
55838SOL     OW69410  12.445   4.554   5.306
55838SOL    HW169411  12.359   4.584   5.336
55838SOL    HW269412  12.505   4.582   5.375
55839SOL     OW69413  12.133   8.104   6.379
55839SOL    HW169414  12.103   8.112   6.288
55839SOL    HW269415  12.214   8.155   6.382
55840SOL     OW69416  14.029  12.949   5.690
55840SOL    HW169417  14.064  13.011   5.754
55840SOL    HW269418  14.062  12.980   5.606
55841SOL     OW69419   1.356  13.288  13.291
55841SOL    HW169420   1.367  13.258  13.382
55841SOL    HW269421   1.341  13.382  13.298
55842SOL     OW69422   8.978  10.773  11.081
55842SOL    HW169423   8.897  10.812  11.047
55842SOL    HW269424   9.003  10.709  11.015
55843SOL     OW69425   8.707   2.598  13.251
55843SOL    HW169426   8.668   2.651  13.181
55843SOL    HW269427   8.797   2.582  13.222
55844SOL     OW69428  13.505   2.662   5.483
55844SOL    HW169429  13.569   2.596   5.509
55844SOL    HW269430  13.492   2.648   5.389
55845SOL     OW69431  13.492   0.502  10.361
55845SOL    HW169432  13.521   0.579  10.409
55845SOL    HW269433  13.542   0.504  10.279
55846SOL     OW69434  13.420   4.495   3.012
55846SOL    HW169435  13.413   4.555   3.086
55846SOL    HW269436  13.514   4.477   3.004
55847SOL     OW69437  12.385   0.925   5.760
55847SOL    HW169438  12.435   1.005   5.748
55847SOL    HW269439  12.357   0.901   5.672
55848SOL     OW69440   7.468   5.402   0.378
55848SOL    HW169441   7.438   5.399   0.469
55848SOL    HW269442   7.391   5.375   0.327
55849SOL     OW69443   2.288   8.101   3.534
55849SOL    HW169444   2.363   8.135   3.486
55849SOL    HW269445   2.263   8.022   3.487
55850SOL     OW69446   3.102   2.147   5.532
55850SOL    HW169447   3.059   2.193   5.459
55850SOL    HW269448   3.108   2.212   5.601
55851SOL     OW69449   6.262   0.420   8.194
55851SOL    HW169450   6.266   0.464   8.109
55851SOL    HW269451   6.244   0.490   8.257
55852SOL     OW69452   4.821   9.205   6.402
55852SOL    HW169453   4.903   9.164   6.374
55852SOL    HW269454   4.809   9.175   6.492
55853SOL     OW69455  12.108  14.121   6.699
55853SOL    HW169456  12.040  14.185   6.678
55853SOL    HW269457  12.068  14.036   6.683
55854SOL     OW69458   8.267   7.200   8.065
55854SOL    HW169459   8.249   7.294   8.064
55854SOL    HW269460   8.237   7.171   8.151
55855SOL     OW69461  14.371   1.170   9.138
55855SOL    HW169462  14.329   1.251   9.165
55855SOL    HW269463  14.465   1.188   9.144
55856SOL     OW69464  12.155   0.494  11.815
55856SOL    HW169465  12.176   0.453  11.898
55856SOL    HW269466  12.064   0.471  11.798
55857SOL     OW69467  14.831   4.672   7.703
55857SOL    HW169468  14.786   4.751   7.674
55857SOL    HW269469  14.808   4.606   7.638
55858SOL     OW69470   6.642   4.191   4.840
55858SOL    HW169471   6.728   4.213   4.803
55858SOL    HW269472   6.662   4.132   4.912
55859SOL     OW69473   2.705  14.612   4.357
55859SOL    HW169474   2.646  14.572   4.294
55859SOL    HW269475   2.792  14.600   4.319
55860SOL     OW69476   6.412   3.380   1.644
55860SOL    HW169477   6.401   3.474   1.656
55860SOL    HW269478   6.323   3.347   1.633
55861SOL     OW69479   0.620  12.890   7.628
55861SOL    HW169480   0.664  12.900   7.544
55861SOL    HW269481   0.690  12.865   7.688
55862SOL     OW69482  10.252  13.190   0.730
55862SOL    HW169483  10.324  13.181   0.793
55862SOL    HW269484  10.198  13.112   0.745
55863SOL     OW69485  13.198   6.310  10.480
55863SOL    HW169486  13.209   6.321  10.574
55863SOL    HW269487  13.230   6.392  10.442
55864SOL     OW69488   5.638  13.569   8.118
55864SOL    HW169489   5.636  13.578   8.213
55864SOL    HW269490   5.601  13.482   8.101
55865SOL     OW69491   6.983   9.590   0.820
55865SOL    HW169492   6.956   9.652   0.888
55865SOL    HW269493   6.934   9.616   0.742
55866SOL     OW69494  12.909   7.291  12.898
55866SOL    HW169495  12.841   7.357  12.909
55866SOL    HW269496  12.918   7.282  12.803
55867SOL     OW69497   0.507  14.332   7.528
55867SOL    HW169498   0.418  14.319   7.496
55867SOL    HW269499   0.539  14.244   7.548
55868SOL     OW69500   5.412   2.999  11.872
55868SOL    HW169501   5.452   3.037  11.950
55868SOL    HW269502   5.434   2.906  11.876
55869SOL     OW69503  11.394   4.853   2.893
55869SOL    HW169504  11.371   4.768   2.855
55869SOL    HW269505  11.344   4.857   2.975
55870SOL     OW69506   1.651  12.423   1.591
55870SOL    HW169507   1.629  12.500   1.537
55870SOL    HW269508   1.721  12.380   1.542
55871SOL     OW69509  12.149   0.364   5.272
55871SOL    HW169510  12.165   0.414   5.192
55871SOL    HW269511  12.084   0.415   5.320
55872SOL     OW69512  14.351  11.454   3.919
55872SOL    HW169513  14.280  11.407   3.875
55872SOL    HW269514  14.373  11.398   3.994
55873SOL     OW69515   1.042  13.576   4.923
55873SOL    HW169516   0.992  13.636   4.868
55873SOL    HW269517   1.021  13.603   5.012
55874SOL     OW69518   4.506   1.981   1.606
55874SOL    HW169519   4.584   1.990   1.660
55874SOL    HW269520   4.433   2.003   1.664
55875SOL     OW69521   4.288  12.816   7.926
55875SOL    HW169522   4.277  12.843   7.835
55875SOL    HW269523   4.338  12.734   7.920
55876SOL     OW69524  14.865   7.512  10.878
55876SOL    HW169525   0.045   7.536  10.958
55876SOL    HW269526  14.788   7.466  10.910
55877SOL     OW69527   3.593   5.780   0.108
55877SOL    HW169528   3.531   5.847   0.137
55877SOL    HW269529   3.620   5.808   0.021
55878SOL     OW69530   0.886   7.835  14.577
55878SOL    HW169531   0.980   7.852  14.573
55878SOL    HW269532   0.872   7.797  14.664
55879SOL     OW69533   9.926  13.509   8.471
55879SOL    HW169534   9.968  13.487   8.388
55879SOL    HW269535   9.854  13.447   8.478
55880SOL     OW69536   1.601   9.882  11.771
55880SOL    HW169537   1.584   9.811  11.709
55880SOL    HW269538   1.694   9.901  11.760
55881SOL     OW69539  12.798   9.403   1.465
55881SOL    HW169540  12.782   9.451   1.385
55881SOL    HW269541  12.855   9.460   1.517
55882SOL     OW69542   1.786   8.055  11.034
55882SOL    HW169543   1.732   8.085  10.961
55882SOL    HW269544   1.778   8.124  11.100
55883SOL     OW69545   5.132   9.151  13.925
55883SOL    HW169546   5.154   9.212  13.855
55883SOL    HW269547   5.121   9.067  13.881
55884SOL     OW69548  12.332   7.850  11.317
55884SOL    HW169549  12.248   7.819  11.352
55884SOL    HW269550  12.385   7.771  11.307
55885SOL     OW69551   8.440   8.783  13.351
55885SOL    HW169552   8.384   8.842  13.402
55885SOL    HW269553   8.398   8.779  13.265
55886SOL     OW69554  11.063  12.462  10.017
55886SOL    HW169555  11.090  12.406   9.944
55886SOL    HW269556  11.009  12.530   9.977
55887SOL     OW69557  13.654   9.453  11.202
55887SOL    HW169558  13.568   9.494  11.202
55887SOL    HW269559  13.712   9.517  11.160
55888SOL     OW69560  11.869  11.366  13.823
55888SOL    HW169561  11.788  11.317  13.838
55888SOL    HW269562  11.934  11.320  13.875
55889SOL     OW69563  13.102  10.772   0.506
55889SOL    HW169564  13.013  10.805   0.494
55889SOL    HW269565  13.115  10.708   0.436
55890SOL     OW69566   9.257   4.688  11.386
55890SOL    HW169567   9.310   4.715  11.462
55890SOL    HW269568   9.205   4.614  11.418
55891SOL     OW69569  13.597  12.276  12.363
55891SOL    HW169570  13.611  12.366  12.333
55891SOL    HW269571  13.684  12.236  12.360
55892SOL     OW69572   4.255   6.705   2.234
55892SOL    HW169573   4.322   6.689   2.301
55892SOL    HW269574   4.180   6.741   2.283
55893SOL     OW69575   7.210   5.487   7.018
55893SOL    HW169576   7.279   5.551   7.036
55893SOL    HW269577   7.238   5.408   7.064
55894SOL     OW69578  14.809   1.292  12.292
55894SOL    HW169579   0.008   1.358  12.278
55894SOL    HW269580  14.726   1.339  12.283
55895SOL     OW69581   1.826   9.398   9.063
55895SOL    HW169582   1.881   9.459   9.111
55895SOL    HW269583   1.888   9.339   9.019
55896SOL     OW69584   9.586   6.295  13.877
55896SOL    HW169585   9.528   6.371  13.884
55896SOL    HW269586   9.563   6.256  13.793
55897SOL     OW69587   6.751   8.558   4.122
55897SOL    HW169588   6.729   8.512   4.203
55897SOL    HW269589   6.846   8.562   4.121
55898SOL     OW69590   0.783   4.836   9.643
55898SOL    HW169591   0.861   4.891   9.653
55898SOL    HW269592   0.775   4.822   9.549
55899SOL     OW69593   0.557   6.849   3.478
55899SOL    HW169594   0.520   6.782   3.536
55899SOL    HW269595   0.563   6.927   3.533
55900SOL     OW69596   6.383  10.369  13.613
55900SOL    HW169597   6.453  10.304  13.620
55900SOL    HW269598   6.426  10.452  13.636
55901SOL     OW69599  10.637  10.163   3.194
55901SOL    HW169600  10.649  10.069   3.208
55901SOL    HW269601  10.702  10.186   3.128
55902SOL     OW69602   3.351  11.015   0.093
55902SOL    HW169603   3.270  11.064   0.081
55902SOL    HW269604   3.327  10.924   0.073
55903SOL     OW69605   4.584   2.817   5.174
55903SOL    HW169606   4.644   2.800   5.101
55903SOL    HW269607   4.498   2.824   5.133
55904SOL     OW69608   8.495  14.554  10.804
55904SOL    HW169609   8.545  14.572  10.725
55904SOL    HW269610   8.506  14.632  10.858
55905SOL     OW69611   4.563  12.189   0.891
55905SOL    HW169612   4.637  12.134   0.865
55905SOL    HW269613   4.598  12.247   0.958
55906SOL     OW69614   8.058   2.085   4.982
55906SOL    HW169615   8.098   2.123   5.061
55906SOL    HW269616   7.991   2.026   5.014
55907SOL     OW69617   3.270   2.731   2.064
55907SOL    HW169618   3.332   2.767   2.127
55907SOL    HW269619   3.231   2.808   2.021
55908SOL     OW69620   4.913  14.489   2.128
55908SOL    HW169621   4.992  14.524   2.170
55908SOL    HW269622   4.849  14.559   2.136
55909SOL     OW69623   1.519   8.554   4.771
55909SOL    HW169624   1.467   8.630   4.745
55909SOL    HW269625   1.544   8.572   4.862
55910SOL     OW69626   2.503   0.058   6.109
55910SOL    HW169627   2.577   0.000   6.129
55910SOL    HW269628   2.464   0.020   6.031
55911SOL     OW69629   1.749   3.611   7.560
55911SOL    HW169630   1.692   3.559   7.504
55911SOL    HW269631   1.762   3.693   7.513
55912SOL     OW69632   8.966  11.481  14.820
55912SOL    HW169633   9.019  11.552  14.857
55912SOL    HW269634   9.002  11.401  14.859
55913SOL     OW69635   9.499   0.567   8.551
55913SOL    HW169636   9.409   0.539   8.535
55913SOL    HW269637   9.503   0.580   8.646
55914SOL     OW69638  10.527   0.010  11.376
55914SOL    HW169639  10.468   0.049  11.441
55914SOL    HW269640  10.582  14.818  11.427
55915SOL     OW69641  14.054   4.931   5.910
55915SOL    HW169642  13.994   4.954   5.982
55915SOL    HW269643  14.020   4.848   5.877
55916SOL     OW69644   2.725  11.438   5.038
55916SOL    HW169645   2.775  11.466   4.961
55916SOL    HW269646   2.658  11.505   5.049
55917SOL     OW69647  12.925   4.198   7.601
55917SOL    HW169648  12.876   4.234   7.675
55917SOL    HW269649  13.014   4.232   7.612
55918SOL     OW69650   1.838   7.701   3.402
55918SOL    HW169651   1.790   7.778   3.371
55918SOL    HW269652   1.872   7.727   3.487
55919SOL     OW69653   9.875   7.327   0.887
55919SOL    HW169654   9.811   7.332   0.816
55919SOL    HW269655   9.835   7.377   0.959
55920SOL     OW69656   7.415   5.524  10.261
55920SOL    HW169657   7.414   5.619  10.259
55920SOL    HW269658   7.487   5.501  10.320
55921SOL     OW69659  11.801   8.388  14.590
55921SOL    HW169660  11.740   8.411  14.660
55921SOL    HW269661  11.759   8.420  14.510
55922SOL     OW69662  10.421   1.500  14.858
55922SOL    HW169663  10.333   1.479   0.023
55922SOL    HW269664  10.431   1.594   0.006
55923SOL     OW69665  10.028   7.725   2.509
55923SOL    HW169666  10.026   7.629   2.513
55923SOL    HW269667  10.001   7.754   2.596
55924SOL     OW69668  14.172  12.408  13.102
55924SOL    HW169669  14.232  12.340  13.073
55924SOL    HW269670  14.211  12.441  13.183
55925SOL     OW69671  11.969   0.613  14.862
55925SOL    HW169672  12.052   0.649  14.831
55925SOL    HW269673  11.992   0.566   0.074
55926SOL     OW69674   3.181   3.319   9.915
55926SOL    HW169675   3.271   3.337   9.888
55926SOL    HW269676   3.145   3.268   9.842
55927SOL     OW69677   6.401   5.133   5.330
55927SOL    HW169678   6.385   5.169   5.243
55927SOL    HW269679   6.317   5.098   5.358
55928SOL     OW69680   1.683   5.398  12.930
55928SOL    HW169681   1.595   5.380  12.961
55928SOL    HW269682   1.738   5.390  13.007
55929SOL     OW69683   3.153   8.506  10.758
55929SOL    HW169684   3.149   8.471  10.847
55929SOL    HW269685   3.245   8.498  10.733
55930SOL     OW69686   4.020  14.733   8.169
55930SOL    HW169687   4.107  14.761   8.195
55930SOL    HW269688   4.033  14.646   8.131
55931SOL     OW69689   3.745  10.611   5.225
55931SOL    HW169690   3.771  10.632   5.314
55931SOL    HW269691   3.822  10.629   5.172
55932SOL     OW69692  11.221   4.768  10.349
55932SOL    HW169693  11.270   4.688  10.368
55932SOL    HW269694  11.284   4.825  10.303
55933SOL     OW69695  11.875   0.020   8.613
55933SOL    HW169696  11.877   0.109   8.578
55933SOL    HW269697  11.940   0.020   8.683
55934SOL     OW69698   2.219   5.305   1.351
55934SOL    HW169699   2.211   5.235   1.416
55934SOL    HW269700   2.181   5.382   1.394
55935SOL     OW69701   9.681   1.678  14.592
55935SOL    HW169702   9.691   1.627  14.672
55935SOL    HW269703   9.748   1.746  14.598
55936SOL     OW69704   9.615  10.573   1.661
55936SOL    HW169705   9.686  10.543   1.604
55936SOL    HW269706   9.659  10.605   1.739
55937SOL     OW69707   2.946  11.729   4.402
55937SOL    HW169708   3.035  11.763   4.406
55937SOL    HW269709   2.956  11.635   4.385
55938SOL     OW69710  10.721   5.515   5.974
55938SOL    HW169711  10.766   5.432   5.959
55938SOL    HW269712  10.784   5.568   6.023
55939SOL     OW69713   7.734  10.587  14.172
55939SOL    HW169714   7.745  10.591  14.266
55939SOL    HW269715   7.814  10.626  14.136
55940SOL     OW69716   1.025   9.922   5.039
55940SOL    HW169717   1.096   9.862   5.019
55940SOL    HW269718   0.976   9.930   4.958
55941SOL     OW69719   4.839   0.944   1.598
55941SOL    HW169720   4.836   0.854   1.630
55941SOL    HW269721   4.908   0.944   1.532
55942SOL     OW69722   0.013  13.860   7.033
55942SOL    HW169723  14.794  13.888   7.003
55942SOL    HW269724   0.006  13.766   7.042
55943SOL     OW69725   7.538  11.446  11.802
55943SOL    HW169726   7.467  11.456  11.865
55943SOL    HW269727   7.556  11.352  11.802
55944SOL     OW69728   8.382   2.433  14.295
55944SOL    HW169729   8.318   2.375  14.254
55944SOL    HW269730   8.376   2.412  14.388
55945SOL     OW69731   3.270  12.954   5.169
55945SOL    HW169732   3.207  13.026   5.157
55945SOL    HW269733   3.252  12.920   5.257
55946SOL     OW69734  11.889   8.000   8.995
55946SOL    HW169735  11.832   8.027   9.067
55946SOL    HW269736  11.900   7.906   9.007
55947SOL     OW69737   7.502   1.618   0.338
55947SOL    HW169738   7.445   1.660   0.274
55947SOL    HW269739   7.524   1.533   0.298
55948SOL     OW69740  11.190  11.738   3.103
55948SOL    HW169741  11.179  11.644   3.116
55948SOL    HW269742  11.164  11.753   3.012
55949SOL     OW69743   3.485   2.445  10.697
55949SOL    HW169744   3.404   2.493  10.714
55949SOL    HW269745   3.463   2.353  10.715
55950SOL     OW69746  12.741   5.378  13.110
55950SOL    HW169747  12.832   5.371  13.081
55950SOL    HW269748  12.744   5.439  13.184
55951SOL     OW69749   1.738  14.014   1.062
55951SOL    HW169750   1.660  14.046   1.017
55951SOL    HW269751   1.744  14.069   1.140
55952SOL     OW69752   0.836   7.418  11.108
55952SOL    HW169753   0.868   7.405  11.197
55952SOL    HW269754   0.908   7.388  11.052
55953SOL     OW69755   6.701   4.768   2.342
55953SOL    HW169756   6.682   4.842   2.400
55953SOL    HW269757   6.786   4.789   2.303
55954SOL     OW69758  10.304  10.720   1.757
55954SOL    HW169759  10.344  10.693   1.674
55954SOL    HW269760  10.321  10.647   1.817
55955SOL     OW69761   3.399   3.024   2.373
55955SOL    HW169762   3.491   3.048   2.372
55955SOL    HW269763   3.394   2.943   2.322
55956SOL     OW69764  11.100   7.414  14.744
55956SOL    HW169765  11.168   7.409  14.677
55956SOL    HW269766  11.062   7.501  14.733
55957SOL     OW69767   9.609   6.655   8.474
55957SOL    HW169768   9.682   6.605   8.438
55957SOL    HW269769   9.584   6.715   8.404
55958SOL     OW69770   4.773  10.920   1.922
55958SOL    HW169771   4.785  11.004   1.967
55958SOL    HW269772   4.684  10.924   1.886
55959SOL     OW69773   0.559   9.214   1.294
55959SOL    HW169774   0.519   9.260   1.367
55959SOL    HW269775   0.652   9.208   1.316
55960SOL     OW69776   8.017   9.847  13.650
55960SOL    HW169777   8.027   9.925  13.595
55960SOL    HW269778   8.027   9.773  13.589
55961SOL     OW69779   4.301   7.913   4.533
55961SOL    HW169780   4.395   7.901   4.547
55961SOL    HW269781   4.280   7.996   4.575
55962SOL     OW69782  12.755   6.441  10.490
55962SOL    HW169783  12.751   6.533  10.517
55962SOL    HW269784  12.673   6.426  10.444
55963SOL     OW69785  13.766   6.836   0.984
55963SOL    HW169786  13.770   6.848   1.079
55963SOL    HW269787  13.829   6.766   0.966
55964SOL     OW69788   9.254   5.954   5.550
55964SOL    HW169789   9.324   6.015   5.572
55964SOL    HW269790   9.175   6.008   5.546
55965SOL     OW69791   2.749   6.582  11.152
55965SOL    HW169792   2.668   6.531  11.148
55965SOL    HW269793   2.807   6.531  11.209
55966SOL     OW69794   1.577   1.359   4.601
55966SOL    HW169795   1.539   1.376   4.515
55966SOL    HW269796   1.665   1.325   4.581
55967SOL     OW69797  10.770   2.260  14.713
55967SOL    HW169798  10.732   2.176  14.687
55967SOL    HW269799  10.815   2.290  14.634
55968SOL     OW69800  11.533  13.935   1.729
55968SOL    HW169801  11.610  13.878   1.721
55968SOL    HW269802  11.567  14.018   1.762
55969SOL     OW69803  14.510   8.268   2.056
55969SOL    HW169804  14.524   8.351   2.101
55969SOL    HW269805  14.596   8.245   2.020
55970SOL     OW69806   1.229   2.720   8.352
55970SOL    HW169807   1.214   2.744   8.261
55970SOL    HW269808   1.232   2.624   8.351
55971SOL     OW69809   3.743   2.936   6.332
55971SOL    HW169810   3.680   2.957   6.401
55971SOL    HW269811   3.752   2.841   6.335
55972SOL     OW69812   8.815  11.847   6.261
55972SOL    HW169813   8.723  11.871   6.277
55972SOL    HW269814   8.810  11.759   6.223
55973SOL     OW69815   4.682   8.023  13.756
55973SOL    HW169816   4.715   7.937  13.729
55973SOL    HW269817   4.589   8.007  13.774
55974SOL     OW69818   1.493   2.181  13.579
55974SOL    HW169819   1.482   2.274  13.560
55974SOL    HW269820   1.575   2.176  13.628
55975SOL     OW69821  13.560   3.442   0.095
55975SOL    HW169822  13.493   3.490   0.143
55975SOL    HW269823  13.615   3.510   0.056
55976SOL     OW69824  11.817   2.582   2.341
55976SOL    HW169825  11.885   2.629   2.389
55976SOL    HW269826  11.765   2.651   2.300
55977SOL     OW69827  10.222  11.040   9.018
55977SOL    HW169828  10.209  11.082   9.104
55977SOL    HW269829  10.291  10.976   9.033
55978SOL     OW69830   2.349   4.986   4.271
55978SOL    HW169831   2.263   5.005   4.236
55978SOL    HW269832   2.353   5.032   4.355
55979SOL     OW69833  10.720   1.862  12.947
55979SOL    HW169834  10.697   1.771  12.927
55979SOL    HW269835  10.804   1.876  12.903
55980SOL     OW69836   3.926   9.421  12.810
55980SOL    HW169837   3.856   9.414  12.746
55980SOL    HW269838   3.881   9.438  12.893
55981SOL     OW69839  12.042   8.395  10.825
55981SOL    HW169840  11.949   8.375  10.832
55981SOL    HW269841  12.048   8.487  10.853
55982SOL     OW69842   7.869   3.226   9.754
55982SOL    HW169843   7.911   3.252   9.837
55982SOL    HW269844   7.872   3.305   9.700
55983SOL     OW69845   0.468   5.223  11.235
55983SOL    HW169846   0.529   5.149  11.241
55983SOL    HW269847   0.403   5.195  11.170
55984SOL     OW69848   4.873   0.450   8.930
55984SOL    HW169849   4.896   0.440   8.838
55984SOL    HW269850   4.957   0.461   8.975
55985SOL     OW69851   2.385  13.258   8.771
55985SOL    HW169852   2.341  13.315   8.835
55985SOL    HW269853   2.460  13.223   8.819
55986SOL     OW69854   8.380   8.625   9.846
55986SOL    HW169855   8.458   8.680   9.851
55986SOL    HW269856   8.311   8.685   9.816
55987SOL     OW69857  11.330  11.862   4.513
55987SOL    HW169858  11.307  11.814   4.433
55987SOL    HW269859  11.414  11.902   4.494
55988SOL     OW69860  11.408   5.852   0.798
55988SOL    HW169861  11.337   5.851   0.863
55988SOL    HW269862  11.399   5.936   0.754
55989SOL     OW69863   9.709   1.622   9.791
55989SOL    HW169864   9.670   1.700   9.830
55989SOL    HW269865   9.641   1.587   9.733
55990SOL     OW69866  13.747  12.237   3.023
55990SOL    HW169867  13.811  12.176   3.060
55990SOL    HW269868  13.797  12.317   3.006
55991SOL     OW69869   2.392   7.386   6.560
55991SOL    HW169870   2.390   7.358   6.651
55991SOL    HW269871   2.477   7.430   6.550
55992SOL     OW69872  12.532   6.585   3.446
55992SOL    HW169873  12.600   6.604   3.511
55992SOL    HW269874  12.563   6.506   3.402
55993SOL     OW69875   8.732  14.293  12.786
55993SOL    HW169876   8.726  14.371  12.840
55993SOL    HW269877   8.792  14.235  12.834
55994SOL     OW69878  10.574  11.850   9.839
55994SOL    HW169879  10.550  11.764   9.803
55994SOL    HW269880  10.499  11.875   9.893
55995SOL     OW69881   1.949  10.546  13.040
55995SOL    HW169882   1.981  10.527  12.952
55995SOL    HW269883   1.876  10.607  13.028
55996SOL     OW69884   4.420  10.977  14.126
55996SOL    HW169885   4.326  10.987  14.144
55996SOL    HW269886   4.427  10.894  14.079
55997SOL     OW69887  12.840   1.239   8.659
55997SOL    HW169888  12.806   1.152   8.640
55997SOL    HW269889  12.935   1.231   8.651
55998SOL     OW69890   3.204   2.684   4.299
55998SOL    HW169891   3.207   2.660   4.207
55998SOL    HW269892   3.119   2.652   4.330
55999SOL     OW69893   5.152   0.768   8.704
55999SOL    HW169894   5.185   0.735   8.787
55999SOL    HW269895   5.189   0.856   8.696
56000SOL     OW69896  10.403   5.758   0.574
56000SOL    HW169897  10.309   5.742   0.569
56000SOL    HW269898  10.412   5.853   0.562
56001SOL     OW69899   7.014  11.838   3.741
56001SOL    HW169900   7.029  11.832   3.647
56001SOL    HW269901   7.101  11.856   3.778
56002SOL     OW69902   3.895  12.252   2.087
56002SOL    HW169903   3.925  12.219   2.171
56002SOL    HW269904   3.950  12.208   2.022
56003SOL     OW69905   0.331   7.837  13.587
56003SOL    HW169906   0.331   7.747  13.619
56003SOL    HW269907   0.249   7.845  13.539
56004SOL     OW69908   6.079  12.294  14.586
56004SOL    HW169909   5.984  12.298  14.592
56004SOL    HW269910   6.096  12.227  14.519
56005SOL     OW69911  14.351   7.543   5.339
56005SOL    HW169912  14.403   7.596   5.400
56005SOL    HW269913  14.384   7.454   5.350
56006SOL     OW69914   2.397  13.478   4.119
56006SOL    HW169915   2.381  13.394   4.076
56006SOL    HW269916   2.493  13.486   4.119
56007SOL     OW69917   4.211   5.974  10.604
56007SOL    HW169918   4.228   5.883  10.582
56007SOL    HW269919   4.298   6.016  10.601
56008SOL     OW69920  13.600  13.365   3.503
56008SOL    HW169921  13.583  13.356   3.410
56008SOL    HW269922  13.580  13.279   3.540
56009SOL     OW69923  13.534   6.469   7.643
56009SOL    HW169924  13.621   6.507   7.634
56009SOL    HW269925  13.518   6.426   7.559
56010SOL     OW69926   3.578   5.398   8.573
56010SOL    HW169927   3.670   5.371   8.573
56010SOL    HW269928   3.580   5.492   8.591
56011SOL     OW69929   5.712   2.703   5.684
56011SOL    HW169930   5.763   2.777   5.650
56011SOL    HW269931   5.709   2.640   5.612
56012SOL     OW69932   3.987   9.166   9.735
56012SOL    HW169933   3.939   9.196   9.812
56012SOL    HW269934   3.984   9.239   9.674
56013SOL     OW69935  12.178   3.729  12.055
56013SOL    HW169936  12.200   3.777  12.135
56013SOL    HW269937  12.181   3.637  12.080
56014SOL     OW69938   2.567  11.472   9.037
56014SOL    HW169939   2.526  11.456   8.952
56014SOL    HW269940   2.597  11.563   9.032
56015SOL     OW69941   4.560  12.667  12.405
56015SOL    HW169942   4.509  12.685  12.484
56015SOL    HW269943   4.645  12.638  12.437
56016SOL     OW69944   9.025  11.300   7.184
56016SOL    HW169945   8.938  11.261   7.190
56016SOL    HW269946   9.067  11.252   7.112
56017SOL     OW69947   6.704  14.522   6.604
56017SOL    HW169948   6.759  14.521   6.683
56017SOL    HW269949   6.657  14.605   6.609
56018SOL     OW69950   8.187   1.171   3.453
56018SOL    HW169951   8.166   1.134   3.538
56018SOL    HW269952   8.260   1.118   3.421
56019SOL     OW69953   1.841   7.207   2.278
56019SOL    HW169954   1.852   7.261   2.356
56019SOL    HW269955   1.883   7.124   2.301
56020SOL     OW69956   6.990   1.038  11.091
56020SOL    HW169957   6.961   1.119  11.133
56020SOL    HW269958   6.912   0.982  11.092
56021SOL     OW69959   9.062   1.624   0.550
56021SOL    HW169960   9.074   1.548   0.608
56021SOL    HW269961   9.066   1.700   0.608
56022SOL     OW69962   3.190   8.100  14.489
56022SOL    HW169963   3.174   8.193  14.505
56022SOL    HW269964   3.280   8.086  14.518
56023SOL     OW69965   0.645  10.696  11.317
56023SOL    HW169966   0.609  10.759  11.255
56023SOL    HW269967   0.586  10.621  11.313
56024SOL     OW69968   5.434   7.250  11.019
56024SOL    HW169969   5.492   7.212  11.085
56024SOL    HW269970   5.354   7.198  11.024
56025SOL     OW69971  11.759   6.445   7.570
56025SOL    HW169972  11.843   6.411   7.602
56025SOL    HW269973  11.721   6.371   7.523
56026SOL     OW69974   0.918   6.957   0.777
56026SOL    HW169975   1.001   6.911   0.788
56026SOL    HW269976   0.877   6.915   0.701
56027SOL     OW69977  13.382  12.544   5.729
56027SOL    HW169978  13.374  12.454   5.698
56027SOL    HW269979  13.426  12.537   5.814
56028SOL     OW69980  11.370   2.995   9.104
56028SOL    HW169981  11.447   3.004   9.160
56028SOL    HW269982  11.329   2.913   9.132
56029SOL     OW69983  14.133   6.005   3.690
56029SOL    HW169984  14.184   6.007   3.770
56029SOL    HW269985  14.077   5.928   3.699
56030SOL     OW69986   9.041  11.968  12.288
56030SOL    HW169987   9.015  11.881  12.259
56030SOL    HW269988   8.984  11.987  12.363
56031SOL     OW69989   4.033   0.279   9.833
56031SOL    HW169990   3.947   0.252   9.801
56031SOL    HW269991   4.056   0.213   9.899
56032SOL     OW69992   3.443   0.919   7.124
56032SOL    HW169993   3.462   0.959   7.040
56032SOL    HW269994   3.410   0.831   7.102
56033SOL     OW69995   2.784   6.553   2.889
56033SOL    HW169996   2.801   6.518   2.802
56033SOL    HW269997   2.735   6.483   2.933
56034SOL     OW69998  14.679   3.620   4.130
56034SOL    HW169999  14.695   3.607   4.036
56034SOL    HW270000  14.746   3.682   4.157
56035SOL     OW70001   1.822   6.193  11.456
56035SOL    HW170002   1.761   6.129  11.420
56035SOL    HW270003   1.769   6.248  11.513
56036SOL     OW70004   9.101  13.672  11.580
56036SOL    HW170005   9.164  13.602  11.595
56036SOL    HW270006   9.102  13.686  11.485
56037SOL     OW70007  12.063  10.372   6.952
56037SOL    HW170008  12.016  10.353   6.870
56037SOL    HW270009  12.152  10.342   6.935
56038SOL     OW70010   0.074  14.657  12.819
56038SOL    HW170011  14.849  14.658  12.796
56038SOL    HW270012   0.110  14.735  12.778
56039SOL     OW70013  14.577  13.138   7.793
56039SOL    HW170014  14.556  13.076   7.863
56039SOL    HW270015  14.534  13.103   7.715
56040SOL     OW70016   3.522   6.053   4.802
56040SOL    HW170017   3.504   6.144   4.779
56040SOL    HW270018   3.587   6.059   4.872
56041SOL     OW70019   2.114   5.749   1.479
56041SOL    HW170020   2.065   5.755   1.561
56041SOL    HW270021   2.059   5.793   1.414
56042SOL     OW70022  11.320   1.032  12.483
56042SOL    HW170023  11.249   1.053  12.422
56042SOL    HW270024  11.397   1.025  12.427
56043SOL     OW70025  12.510  12.747   2.830
56043SOL    HW170026  12.451  12.723   2.902
56043SOL    HW270027  12.508  12.671   2.772
56044SOL     OW70028   4.925   1.591  13.771
56044SOL    HW170029   4.925   1.551  13.858
56044SOL    HW270030   4.891   1.523  13.713
56045SOL     OW70031   0.338   4.469  11.971
56045SOL    HW170032   0.433   4.473  11.972
56045SOL    HW270033   0.317   4.396  11.913
56046SOL     OW70034   4.997  12.559  14.730
56046SOL    HW170035   5.027  12.597  14.813
56046SOL    HW270036   4.912  12.599  14.714
56047SOL     OW70037   3.897  12.222  11.143
56047SOL    HW170038   3.901  12.150  11.205
56047SOL    HW270039   3.891  12.301  11.197
56048SOL     OW70040   2.649   1.536  11.384
56048SOL    HW170041   2.646   1.617  11.333
56048SOL    HW270042   2.737   1.534  11.421
56049SOL     OW70043   1.122   5.575   2.809
56049SOL    HW170044   1.212   5.599   2.783
56049SOL    HW270045   1.126   5.482   2.826
56050SOL     OW70046   8.428   2.556  13.016
56050SOL    HW170047   8.371   2.509  13.076
56050SOL    HW270048   8.436   2.499  12.940
56051SOL     OW70049   5.845   4.912   9.720
56051SOL    HW170050   5.776   4.953   9.772
56051SOL    HW270051   5.882   4.984   9.668
56052SOL     OW70052   3.005   2.114  10.240
56052SOL    HW170053   2.938   2.179  10.218
56052SOL    HW270054   3.073   2.125  10.174
56053SOL     OW70055   6.156  10.550  13.295
56053SOL    HW170056   6.245  10.562  13.329
56053SOL    HW270057   6.151  10.608  13.219
56054SOL     OW70058   7.794   7.660   5.402
56054SOL    HW170059   7.772   7.703   5.319
56054SOL    HW270060   7.727   7.593   5.413
56055SOL     OW70061  12.246   8.314  10.668
56055SOL    HW170062  12.154   8.301  10.689
56055SOL    HW270063  12.249   8.397  10.621
56056SOL     OW70064   8.472   1.112   9.296
56056SOL    HW170065   8.472   1.158   9.380
56056SOL    HW270066   8.555   1.064   9.295
56057SOL     OW70067  13.121   1.027  11.540
56057SOL    HW170068  13.084   1.062  11.458
56057SOL    HW270069  13.064   0.954  11.562
56058SOL     OW70070  10.129   4.682   6.198
56058SOL    HW170071  10.200   4.677   6.262
56058SOL    HW270072  10.168   4.649   6.117
56059SOL     OW70073   5.408  11.664   6.110
56059SOL    HW170074   5.348  11.675   6.183
56059SOL    HW270075   5.495  11.674   6.149
56060SOL     OW70076   8.201  14.449   2.205
56060SOL    HW170077   8.201  14.384   2.275
56060SOL    HW270078   8.132  14.421   2.145
56061SOL     OW70079  10.840   2.367  14.416
56061SOL    HW170080  10.883   2.289  14.380
56061SOL    HW270081  10.777   2.393  14.348
56062SOL     OW70082   3.190   2.352   2.790
56062SOL    HW170083   3.191   2.258   2.805
56062SOL    HW270084   3.256   2.367   2.723
56063SOL     OW70085   1.067   7.114   4.694
56063SOL    HW170086   1.062   7.084   4.785
56063SOL    HW270087   0.987   7.164   4.681
56064SOL     OW70088  12.649  12.309  12.011
56064SOL    HW170089  12.590  12.240  12.042
56064SOL    HW270090  12.619  12.327  11.922
56065SOL     OW70091   5.499   4.303  14.342
56065SOL    HW170092   5.434   4.241  14.309
56065SOL    HW270093   5.521   4.271  14.429
56066SOL     OW70094   4.164   6.311   9.145
56066SOL    HW170095   4.232   6.247   9.164
56066SOL    HW270096   4.141   6.349   9.230
56067SOL     OW70097  13.491  13.640   2.910
56067SOL    HW170098  13.499  13.628   2.816
56067SOL    HW270099  13.539  13.567   2.948
56068SOL     OW70100   5.786   9.570  11.896
56068SOL    HW170101   5.701   9.540  11.928
56068SOL    HW270102   5.841   9.492  11.898
56069SOL     OW70103   2.037   9.842   2.198
56069SOL    HW170104   1.949   9.815   2.223
56069SOL    HW270105   2.027   9.932   2.166
56070SOL     OW70106  14.639   4.872   8.119
56070SOL    HW170107  14.669   4.810   8.186
56070SOL    HW270108  14.590   4.818   8.058
56071SOL     OW70109  13.683   5.491  14.386
56071SOL    HW170110  13.669   5.466  14.295
56071SOL    HW270111  13.777   5.511  14.392
56072SOL     OW70112  13.372  11.420   9.213
56072SOL    HW170113  13.452  11.437   9.263
56072SOL    HW270114  13.321  11.500   9.223
56073SOL     OW70115  13.456   7.088   7.612
56073SOL    HW170116  13.393   7.040   7.666
56073SOL    HW270117  13.541   7.050   7.634
56074SOL     OW70118   8.438   7.277   2.473
56074SOL    HW170119   8.345   7.298   2.485
56074SOL    HW270120   8.484   7.339   2.529
56075SOL     OW70121   2.556  10.294  12.129
56075SOL    HW170122   2.470  10.252  12.124
56075SOL    HW270123   2.593  10.264  12.212
56076SOL     OW70124   3.510  14.286  13.010
56076SOL    HW170125   3.489  14.320  13.097
56076SOL    HW270126   3.517  14.364  12.955
56077SOL     OW70127   4.482  12.598   3.392
56077SOL    HW170128   4.463  12.619   3.483
56077SOL    HW270129   4.487  12.683   3.348
56078SOL     OW70130   7.901   3.114  12.993
56078SOL    HW170131   7.830   3.171  13.023
56078SOL    HW270132   7.865   3.068  12.918
56079SOL     OW70133   8.646   8.373   7.718
56079SOL    HW170134   8.727   8.335   7.683
56079SOL    HW270135   8.589   8.298   7.734
56080SOL     OW70136   9.702  12.327   5.106
56080SOL    HW170137   9.630  12.378   5.071
56080SOL    HW270138   9.675  12.303   5.194
56081SOL     OW70139  10.925   9.354   5.383
56081SOL    HW170140  10.836   9.353   5.347
56081SOL    HW270141  10.932   9.272   5.432
56082SOL     OW70142   6.915   7.368   1.463
56082SOL    HW170143   6.895   7.285   1.419
56082SOL    HW270144   7.009   7.379   1.453
56083SOL     OW70145  12.823   7.495   4.652
56083SOL    HW170146  12.743   7.470   4.606
56083SOL    HW270147  12.827   7.590   4.643
56084SOL     OW70148   0.602   3.289   5.620
56084SOL    HW170149   0.507   3.299   5.618
56084SOL    HW270150   0.632   3.356   5.681
56085SOL     OW70151  10.238  13.920   8.059
56085SOL    HW170152  10.320  13.891   8.098
56085SOL    HW270153  10.218  14.003   8.103
56086SOL     OW70154  10.726   1.573   2.823
56086SOL    HW170155  10.704   1.496   2.771
56086SOL    HW270156  10.689   1.555   2.910
56087SOL     OW70157   5.136   4.688   0.083
56087SOL    HW170158   5.160   4.610   0.133
56087SOL    HW270159   5.157   4.666  14.860
56088SOL     OW70160  14.794  14.229   6.414
56088SOL    HW170161  14.749  14.205   6.495
56088SOL    HW270162   0.011  14.187   6.420
56089SOL     OW70163   6.150   5.672  12.362
56089SOL    HW170164   6.160   5.588  12.405
56089SOL    HW270165   6.109   5.729  12.427
56090SOL     OW70166   1.303  10.137  11.718
56090SOL    HW170167   1.236  10.113  11.782
56090SOL    HW270168   1.384  10.100  11.754
56091SOL     OW70169  10.696  11.300  10.163
56091SOL    HW170170  10.686  11.353  10.242
56091SOL    HW270171  10.624  11.237  10.167
56092SOL     OW70172  10.914   0.681   8.178
56092SOL    HW170173  10.826   0.660   8.207
56092SOL    HW270174  10.935   0.764   8.222
56093SOL     OW70175   6.787   5.662   4.677
56093SOL    HW170176   6.844   5.684   4.603
56093SOL    HW270177   6.721   5.731   4.677
56094SOL     OW70178   9.697   8.480  10.203
56094SOL    HW170179   9.697   8.461  10.296
56094SOL    HW270180   9.605   8.493  10.180
56095SOL     OW70181   7.013   0.470   8.182
56095SOL    HW170182   7.083   0.417   8.142
56095SOL    HW270183   6.933   0.422   8.163
56096SOL     OW70184   3.331   6.191  11.513
56096SOL    HW170185   3.284   6.111  11.490
56096SOL    HW270186   3.415   6.184  11.469
56097SOL     OW70187   8.425   7.758  12.212
56097SOL    HW170188   8.377   7.724  12.288
56097SOL    HW270189   8.488   7.689  12.191
56098SOL     OW70190   9.360   8.258  11.441
56098SOL    HW170191   9.427   8.322  11.464
56098SOL    HW270192   9.373   8.185  11.501
56099SOL     OW70193   2.639  11.371  14.639
56099SOL    HW170194   2.614  11.348  14.550
56099SOL    HW270195   2.714  11.314  14.658
56100SOL     OW70196   1.900  11.668  12.454
56100SOL    HW170197   1.833  11.601  12.440
56100SOL    HW270198   1.851  11.748  12.471
56101SOL     OW70199   4.377   3.545   3.569
56101SOL    HW170200   4.362   3.581   3.482
56101SOL    HW270201   4.296   3.566   3.617
56102SOL     OW70202   7.802   8.531  11.185
56102SOL    HW170203   7.764   8.618  11.198
56102SOL    HW270204   7.784   8.510  11.094
56103SOL     OW70205   0.867   3.421   3.012
56103SOL    HW170206   0.778   3.387   3.023
56103SOL    HW270207   0.871   3.447   2.919
56104SOL     OW70208   8.651  11.301  13.911
56104SOL    HW170209   8.658  11.277  13.819
56104SOL    HW270210   8.714  11.245  13.955
56105SOL     OW70211  12.276   8.416   6.154
56105SOL    HW170212  12.323   8.499   6.158
56105SOL    HW270213  12.340   8.354   6.116
56106SOL     OW70214   7.199   2.491   0.062
56106SOL    HW170215   7.281   2.499   0.013
56106SOL    HW270216   7.134   2.465  14.865
56107SOL     OW70217   5.257   7.295   8.624
56107SOL    HW170218   5.238   7.205   8.649
56107SOL    HW270219   5.238   7.300   8.531
56108SOL     OW70220   6.745  12.343  10.648
56108SOL    HW170221   6.673  12.388  10.603
56108SOL    HW270222   6.756  12.262  10.600
56109SOL     OW70223   6.825  12.660   4.015
56109SOL    HW170224   6.866  12.649   4.101
56109SOL    HW270225   6.733  12.677   4.034
56110SOL     OW70226   8.179   8.849   0.117
56110SOL    HW170227   8.106   8.911   0.126
56110SOL    HW270228   8.137   8.766   0.092
56111SOL     OW70229  14.797   0.085   8.910
56111SOL    HW170230  14.852   0.083   8.832
56111SOL    HW270231  14.834   0.155   8.964
56112SOL     OW70232  12.730   0.243  14.276
56112SOL    HW170233  12.635   0.246  14.275
56112SOL    HW270234  12.752   0.150  14.265
56113SOL     OW70235   3.517   8.271   8.896
56113SOL    HW170236   3.586   8.276   8.963
56113SOL    HW270237   3.519   8.357   8.854
56114SOL     OW70238  11.029   6.090   6.983
56114SOL    HW170239  11.050   6.150   6.912
56114SOL    HW270240  10.954   6.040   6.950
56115SOL     OW70241   7.770   6.069  13.114
56115SOL    HW170242   7.817   6.074  13.031
56115SOL    HW270243   7.686   6.110  13.097
56116SOL     OW70244   1.868   9.281   4.306
56116SOL    HW170245   1.823   9.292   4.222
56116SOL    HW270246   1.796   9.272   4.370
56117SOL     OW70247  12.723  13.031   7.445
56117SOL    HW170248  12.787  12.972   7.484
56117SOL    HW270249  12.758  13.119   7.462
56118SOL     OW70250   3.238   4.732  11.962
56118SOL    HW170251   3.158   4.782  11.944
56118SOL    HW270252   3.249   4.740  12.057
56119SOL     OW70253   1.764   6.352   3.835
56119SOL    HW170254   1.835   6.371   3.896
56119SOL    HW270255   1.704   6.426   3.845
56120SOL     OW70256   0.510   3.804  10.434
56120SOL    HW170257   0.587   3.832  10.385
56120SOL    HW270258   0.483   3.722  10.392
56121SOL     OW70259   1.026   1.538  11.774
56121SOL    HW170260   1.084   1.490  11.714
56121SOL    HW270261   0.975   1.470  11.817
56122SOL     OW70262   4.280  12.351   5.164
56122SOL    HW170263   4.188  12.352   5.139
56122SOL    HW270264   4.295  12.435   5.207
56123SOL     OW70265   3.941  10.477   0.160
56123SOL    HW170266   3.906  10.388   0.153
56123SOL    HW270267   3.875  10.531   0.116
56124SOL     OW70268   9.715   8.465  12.099
56124SOL    HW170269   9.784   8.518  12.139
56124SOL    HW270270   9.750   8.375  12.100
56125SOL     OW70271  12.203  13.037  14.008
56125SOL    HW170272  12.150  13.024  13.929
56125SOL    HW270273  12.202  13.131  14.022
56126SOL     OW70274  14.603   4.629   7.081
56126SOL    HW170275  14.678   4.675   7.045
56126SOL    HW270276  14.542   4.698   7.106
56127SOL     OW70277   7.139   5.756   6.971
56127SOL    HW170278   7.057   5.778   6.926
56127SOL    HW270279   7.135   5.661   6.981
56128SOL     OW70280   9.534   3.412  13.346
56128SOL    HW170281   9.565   3.491  13.389
56128SOL    HW270282   9.585   3.406  13.266
56129SOL     OW70283  11.225  12.189   3.639
56129SOL    HW170284  11.265  12.264   3.683
56129SOL    HW270285  11.299  12.132   3.616
56130SOL     OW70286   3.322  13.059   9.920
56130SOL    HW170287   3.371  13.006   9.857
56130SOL    HW270288   3.328  13.148   9.887
56131SOL     OW70289   5.976   8.523   3.257
56131SOL    HW170290   6.032   8.468   3.202
56131SOL    HW270291   6.025   8.535   3.338
56132SOL     OW70292   5.005  14.170   0.296
56132SOL    HW170293   4.933  14.108   0.290
56132SOL    HW270294   4.967  14.248   0.335
56133SOL     OW70295  12.246  12.158   7.609
56133SOL    HW170296  12.308  12.112   7.666
56133SOL    HW270297  12.288  12.243   7.592
56134SOL     OW70298   2.609   3.642  11.043
56134SOL    HW170299   2.550   3.654  11.117
56134SOL    HW270300   2.552   3.644  10.966
56135SOL     OW70301   4.991   1.797  14.432
56135SOL    HW170302   5.041   1.846  14.497
56135SOL    HW270303   4.909   1.847  14.423
56136SOL     OW70304  11.155   6.272   4.445
56136SOL    HW170305  11.154   6.277   4.540
56136SOL    HW270306  11.248   6.272   4.422
56137SOL     OW70307   8.159  14.658   9.611
56137SOL    HW170308   8.136  14.612   9.530
56137SOL    HW270309   8.251  14.683   9.599
56138SOL     OW70310   5.089  14.736   1.334
56138SOL    HW170311   5.167  14.719   1.387
56138SOL    HW270312   5.121  14.789   1.261
56139SOL     OW70313  13.108   9.626   4.753
56139SOL    HW170314  13.050   9.655   4.823
56139SOL    HW270315  13.190   9.604   4.796
56140SOL     OW70316   4.707   8.426   3.737
56140SOL    HW170317   4.745   8.422   3.825
56140SOL    HW270318   4.761   8.368   3.685
56141SOL     OW70319  10.236  10.158   4.807
56141SOL    HW170320  10.204  10.171   4.718
56141SOL    HW270321  10.164  10.188   4.863
56142SOL     OW70322  12.464   7.727   0.985
56142SOL    HW170323  12.532   7.713   1.051
56142SOL    HW270324  12.510   7.727   0.901
56143SOL     OW70325   2.369  13.775  13.320
56143SOL    HW170326   2.456  13.759  13.355
56143SOL    HW270327   2.379  13.768  13.225
56144SOL     OW70328   9.097  13.065   4.406
56144SOL    HW170329   9.029  13.007   4.440
56144SOL    HW270330   9.053  13.149   4.393
56145SOL     OW70331  11.034   9.028   3.174
56145SOL    HW170332  11.086   9.070   3.105
56145SOL    HW270333  11.069   9.066   3.255
56146SOL     OW70334   5.952   3.459   4.042
56146SOL    HW170335   6.045   3.446   4.025
56146SOL    HW270336   5.937   3.552   4.027
56147SOL     OW70337   5.854   0.626  12.265
56147SOL    HW170338   5.889   0.552  12.217
56147SOL    HW270339   5.826   0.688  12.197
56148SOL     OW70340   5.579   3.198  12.682
56148SOL    HW170341   5.629   3.261  12.630
56148SOL    HW270342   5.642   3.129  12.704
56149SOL     OW70343   6.267   3.871  12.149
56149SOL    HW170344   6.218   3.946  12.180
56149SOL    HW270345   6.339   3.861  12.212
56150SOL     OW70346   9.893  11.256   0.223
56150SOL    HW170347   9.895  11.176   0.172
56150SOL    HW270348   9.983  11.289   0.221
56151SOL     OW70349  14.649  13.370  14.725
56151SOL    HW170350  14.721  13.341  14.669
56151SOL    HW270351  14.622  13.291  14.772
56152SOL     OW70352   6.179   3.353   4.414
56152SOL    HW170353   6.155   3.273   4.461
56152SOL    HW270354   6.269   3.370   4.441
56153SOL     OW70355  14.517   8.726   8.392
56153SOL    HW170356  14.536   8.640   8.356
56153SOL    HW270357  14.482   8.708   8.479
56154SOL     OW70358   0.076   4.799  10.372
56154SOL    HW170359   0.036   4.856  10.437
56154SOL    HW270360   0.034   4.824  10.289
56155SOL     OW70361  11.384   3.241   6.825
56155SOL    HW170362  11.376   3.154   6.864
56155SOL    HW270363  11.395   3.299   6.900
56156SOL     OW70364   8.705  11.147  12.966
56156SOL    HW170365   8.714  11.052  12.974
56156SOL    HW270366   8.722  11.165  12.873
56157SOL     OW70367   6.892  12.594   6.733
56157SOL    HW170368   6.957  12.593   6.662
56157SOL    HW270369   6.935  12.642   6.804
56158SOL     OW70370  11.565   1.522  10.797
56158SOL    HW170371  11.556   1.431  10.771
56158SOL    HW270372  11.574   1.570  10.714
56159SOL     OW70373   0.654   2.927   9.373
56159SOL    HW170374   0.559   2.924   9.384
56159SOL    HW270375   0.684   2.839   9.394
56160SOL     OW70376   3.403   1.391   6.812
56160SOL    HW170377   3.370   1.379   6.723
56160SOL    HW270378   3.479   1.333   6.818
56161SOL     OW70379   8.252   7.805  11.460
56161SOL    HW170380   8.254   7.768  11.548
56161SOL    HW270381   8.192   7.880  11.467
56162SOL     OW70382   6.159  13.262  12.192
56162SOL    HW170383   6.105  13.183  12.196
56162SOL    HW270384   6.104  13.327  12.148
56163SOL     OW70385   8.862   7.601   9.401
56163SOL    HW170386   8.920   7.675   9.383
56163SOL    HW270387   8.920   7.526   9.413
56164SOL     OW70388   8.196   6.768   4.908
56164SOL    HW170389   8.240   6.833   4.853
56164SOL    HW270390   8.254   6.692   4.907
56165SOL     OW70391  14.336   0.578   2.622
56165SOL    HW170392  14.333   0.663   2.667
56165SOL    HW270393  14.407   0.531   2.666
56166SOL     OW70394   8.114   6.620  14.309
56166SOL    HW170395   8.044   6.591  14.249
56166SOL    HW270396   8.174   6.546  14.312
56167SOL     OW70397  12.171  13.353  14.037
56167SOL    HW170398  12.112  13.377  14.108
56167SOL    HW270399  12.169  13.427  13.977
56168SOL     OW70400  11.593   6.970  12.098
56168SOL    HW170401  11.649   6.912  12.150
56168SOL    HW270402  11.601   7.055  12.142
56169SOL     OW70403   9.765   8.078   2.162
56169SOL    HW170404   9.778   8.005   2.102
56169SOL    HW270405   9.752   8.037   2.247
56170SOL     OW70406  10.037  10.790   8.680
56170SOL    HW170407  10.007  10.856   8.742
56170SOL    HW270408  10.132  10.802   8.676
56171SOL     OW70409   8.800   7.560  13.379
56171SOL    HW170410   8.775   7.473  13.348
56171SOL    HW270411   8.896   7.558  13.382
56172SOL     OW70412   3.589  10.354   6.050
56172SOL    HW170413   3.610  10.358   5.957
56172SOL    HW270414   3.662  10.308   6.090
56173SOL     OW70415   1.410  11.467   6.646
56173SOL    HW170416   1.330  11.458   6.697
56173SOL    HW270417   1.464  11.393   6.672
56174SOL     OW70418   4.181   6.636   9.676
56174SOL    HW170419   4.271   6.605   9.682
56174SOL    HW270420   4.163   6.640   9.582
56175SOL     OW70421  11.850   2.771   9.288
56175SOL    HW170422  11.876   2.681   9.311
56175SOL    HW270423  11.828   2.766   9.195
56176SOL     OW70424   3.379   0.934   2.297
56176SOL    HW170425   3.289   0.903   2.289
56176SOL    HW270426   3.424   0.897   2.221
56177SOL     OW70427  12.072   4.820  12.553
56177SOL    HW170428  12.029   4.877  12.616
56177SOL    HW270429  12.078   4.735  12.599
56178SOL     OW70430   8.363  11.853  13.747
56178SOL    HW170431   8.324  11.797  13.814
56178SOL    HW270432   8.309  11.932  13.746
56179SOL     OW70433   4.926   4.639   7.322
56179SOL    HW170434   4.986   4.705   7.286
56179SOL    HW270435   4.983   4.578   7.368
56180SOL     OW70436   6.146   9.570  11.739
56180SOL    HW170437   6.221   9.618  11.774
56180SOL    HW270438   6.113   9.520  11.814
56181SOL     OW70439  12.033  14.403   4.984
56181SOL    HW170440  11.966  14.339   4.958
56181SOL    HW270441  11.984  14.475   5.024
56182SOL     OW70442   2.389   4.715  12.875
56182SOL    HW170443   2.358   4.627  12.853
56182SOL    HW270444   2.310   4.766  12.892
56183SOL     OW70445   0.920   0.065   4.203
56183SOL    HW170446   0.923  14.849   4.250
56183SOL    HW270447   0.898   0.041   4.113
56184SOL     OW70448   4.796   3.483   0.428
56184SOL    HW170449   4.738   3.440   0.366
56184SOL    HW270450   4.839   3.552   0.377
56185SOL     OW70451   7.053  13.379   2.809
56185SOL    HW170452   7.142  13.344   2.811
56185SOL    HW270453   7.037  13.410   2.899
56186SOL     OW70454   8.270   4.985   3.719
56186SOL    HW170455   8.210   5.000   3.792
56186SOL    HW270456   8.220   4.932   3.657
56187SOL     OW70457   0.083   4.094   0.011
56187SOL    HW170458   0.095   4.057  14.791
56187SOL    HW270459   0.004   4.052   0.044
56188SOL     OW70460   8.940  10.976   0.089
56188SOL    HW170461   8.879  10.999   0.019
56188SOL    HW270462   8.936  10.881   0.094
56189SOL     OW70463   6.139   4.823  14.528
56189SOL    HW170464   6.227   4.817  14.492
56189SOL    HW270465   6.150   4.813  14.623
56190SOL     OW70466   7.167   4.474  10.941
56190SOL    HW170467   7.151   4.429  10.858
56190SOL    HW270468   7.079   4.492  10.975
56191SOL     OW70469  13.907   7.723   7.356
56191SOL    HW170470  13.832   7.669   7.332
56191SOL    HW270471  13.880   7.768   7.436
56192SOL     OW70472  14.522   3.909  13.157
56192SOL    HW170473  14.596   3.904  13.096
56192SOL    HW270474  14.562   3.936  13.240
56193SOL     OW70475   5.488   3.735  14.378
56193SOL    HW170476   5.535   3.802  14.429
56193SOL    HW270477   5.430   3.693  14.441
56194SOL     OW70478  10.425  11.262  13.065
56194SOL    HW170479  10.436  11.189  13.004
56194SOL    HW270480  10.367  11.323  13.019
56195SOL     OW70481  11.709  12.952   3.111
56195SOL    HW170482  11.771  13.012   3.070
56195SOL    HW270483  11.763  12.884   3.150
56196SOL     OW70484  13.823   9.387   9.575
56196SOL    HW170485  13.770   9.348   9.646
56196SOL    HW270486  13.912   9.357   9.593
56197SOL     OW70487  10.355   7.295   2.779
56197SOL    HW170488  10.322   7.384   2.786
56197SOL    HW270489  10.418   7.288   2.851
56198SOL     OW70490  11.177  13.939   0.072
56198SOL    HW170491  11.187  13.981   0.158
56198SOL    HW270492  11.215  13.851   0.084
56199SOL     OW70493   9.242   8.684   9.118
56199SOL    HW170494   9.244   8.687   9.022
56199SOL    HW270495   9.333   8.696   9.144
56200SOL     OW70496   2.323   9.306   0.960
56200SOL    HW170497   2.315   9.318   0.865
56200SOL    HW270498   2.376   9.380   0.989
56201SOL     OW70499   0.799   9.898  11.085
56201SOL    HW170500   0.773   9.920  10.995
56201SOL    HW270501   0.730   9.934  11.140
56202SOL     OW70502   6.649   9.397   9.648
56202SOL    HW170503   6.593   9.473   9.636
56202SOL    HW270504   6.616   9.354   9.726
56203SOL     OW70505   3.767   9.421   8.117
56203SOL    HW170506   3.844   9.426   8.173
56203SOL    HW270507   3.694   9.405   8.178
56204SOL     OW70508   4.545   9.438   8.777
56204SOL    HW170509   4.498   9.366   8.734
56204SOL    HW270510   4.632   9.437   8.737
56205SOL     OW70511   2.091   7.992   9.892
56205SOL    HW170512   2.082   8.058   9.960
56205SOL    HW270513   2.034   7.920   9.920
56206SOL     OW70514   8.626   2.093   4.160
56206SOL    HW170515   8.629   2.000   4.182
56206SOL    HW270516   8.575   2.133   4.230
56207SOL     OW70517   3.428   8.588   8.180
56207SOL    HW170518   3.497   8.642   8.140
56207SOL    HW270519   3.468   8.502   8.189
56208SOL     OW70520   6.459   0.862   8.965
56208SOL    HW170521   6.521   0.795   8.996
56208SOL    HW270522   6.382   0.812   8.937
56209SOL     OW70523   9.355   0.568   3.060
56209SOL    HW170524   9.427   0.615   3.017
56209SOL    HW270525   9.283   0.572   2.996
56210SOL     OW70526  14.105   4.251   4.228
56210SOL    HW170527  14.137   4.214   4.146
56210SOL    HW270528  14.183   4.286   4.271
56211SOL     OW70529   0.031   5.668  12.419
56211SOL    HW170530   0.062   5.578  12.423
56211SOL    HW270531   0.030   5.698  12.510
56212SOL     OW70532  12.533   6.131   6.160
56212SOL    HW170533  12.493   6.057   6.114
56212SOL    HW270534  12.626   6.109   6.166
56213SOL     OW70535   7.737   2.661   1.802
56213SOL    HW170536   7.830   2.667   1.782
56213SOL    HW270537   7.693   2.664   1.717
56214SOL     OW70538   0.330  11.037   3.481
56214SOL    HW170539   0.257  10.976   3.489
56214SOL    HW270540   0.372  11.014   3.398
56215SOL     OW70541   5.973   3.606  13.499
56215SOL    HW170542   5.883   3.616  13.528
56215SOL    HW270543   6.016   3.557  13.570
56216SOL     OW70544   2.113  11.148  10.502
56216SOL    HW170545   2.034  11.129  10.451
56216SOL    HW270546   2.140  11.235  10.473
56217SOL     OW70547   0.849   9.161  13.610
56217SOL    HW170548   0.782   9.097  13.635
56217SOL    HW270549   0.903   9.170  13.689
56218SOL     OW70550   9.808  12.779   7.828
56218SOL    HW170551   9.795  12.873   7.810
56218SOL    HW270552   9.902  12.770   7.843
56219SOL     OW70553  13.274   6.165   6.217
56219SOL    HW170554  13.179   6.167   6.208
56219SOL    HW270555  13.306   6.139   6.131
56220SOL     OW70556   6.791  11.150  10.465
56220SOL    HW170557   6.874  11.153  10.417
56220SOL    HW270558   6.749  11.233  10.445
56221SOL     OW70559   8.314   5.133   2.120
56221SOL    HW170560   8.240   5.074   2.103
56221SOL    HW270561   8.303   5.160   2.211
56222SOL     OW70562   3.237   2.114  10.094
56222SOL    HW170563   3.220   2.190  10.038
56222SOL    HW270564   3.266   2.046  10.034
56223SOL     OW70565   4.845   4.660   6.142
56223SOL    HW170566   4.878   4.659   6.052
56223SOL    HW270567   4.785   4.586   6.146
56224SOL     OW70568   8.324  10.540  10.363
56224SOL    HW170569   8.314  10.625  10.407
56224SOL    HW270570   8.370  10.561  10.282
56225SOL     OW70571  11.136  12.013   5.632
56225SOL    HW170572  11.105  11.950   5.567
56225SOL    HW270573  11.230  12.017   5.618
56226SOL     OW70574   4.250   0.420   8.785
56226SOL    HW170575   4.334   0.454   8.815
56226SOL    HW270576   4.207   0.495   8.744
56227SOL     OW70577   3.486   0.057   5.125
56227SOL    HW170578   3.543  14.858   5.161
56227SOL    HW270579   3.414   0.008   5.084
56228SOL     OW70580  13.413   8.609   6.402
56228SOL    HW170581  13.505   8.628   6.422
56228SOL    HW270582  13.367   8.691   6.420
56229SOL     OW70583   9.663   1.142  13.381
56229SOL    HW170584   9.688   1.231  13.356
56229SOL    HW270585   9.732   1.087  13.344
56230SOL     OW70586   2.805   4.474   2.331
56230SOL    HW170587   2.854   4.536   2.385
56230SOL    HW270588   2.836   4.388   2.358
56231SOL     OW70589   7.650  10.706  10.696
56231SOL    HW170590   7.695  10.785  10.666
56231SOL    HW270591   7.564  10.737  10.724
56232SOL     OW70592  14.466   2.238   3.926
56232SOL    HW170593  14.501   2.245   4.015
56232SOL    HW270594  14.505   2.158   3.891
56233SOL     OW70595   3.384   2.731   0.346
56233SOL    HW170596   3.446   2.671   0.303
56233SOL    HW270597   3.390   2.812   0.295
56234SOL     OW70598  10.597  14.302   9.297
56234SOL    HW170599  10.675  14.274   9.249
56234SOL    HW270600  10.525  14.288   9.236
56235SOL     OW70601   5.332   3.312   8.342
56235SOL    HW170602   5.377   3.393   8.362
56235SOL    HW270603   5.384   3.244   8.386
56236SOL     OW70604   1.614   9.065   1.972
56236SOL    HW170605   1.677   9.133   1.947
56236SOL    HW270606   1.661   9.010   2.034
56237SOL     OW70607  13.761   8.632   0.119
56237SOL    HW170608  13.840   8.678   0.092
56237SOL    HW270609  13.722   8.688   0.186
56238SOL     OW70610   2.792   8.226  13.375
56238SOL    HW170611   2.697   8.235  13.386
56238SOL    HW270612   2.804   8.141  13.333
56239SOL     OW70613   1.255   3.244  14.139
56239SOL    HW170614   1.192   3.190  14.188
56239SOL    HW270615   1.229   3.232  14.048
56240SOL     OW70616  13.540   6.322   7.423
56240SOL    HW170617  13.562   6.317   7.330
56240SOL    HW270618  13.589   6.250   7.463
56241SOL     OW70619   1.328  14.279  13.743
56241SOL    HW170620   1.313  14.237  13.658
56241SOL    HW270621   1.297  14.215  13.807
56242SOL     OW70622  11.567  14.112  11.214
56242SOL    HW170623  11.634  14.138  11.150
56242SOL    HW270624  11.486  14.107  11.164
56243SOL     OW70625   5.970   4.146   2.059
56243SOL    HW170626   5.974   4.050   2.051
56243SOL    HW270627   5.922   4.161   2.140
56244SOL     OW70628   4.878   3.409   4.996
56244SOL    HW170629   4.846   3.456   4.919
56244SOL    HW270630   4.943   3.468   5.035
56245SOL     OW70631   5.297   3.017   8.579
56245SOL    HW170632   5.332   3.009   8.668
56245SOL    HW270633   5.374   3.036   8.525
56246SOL     OW70634   4.322   9.687  11.048
56246SOL    HW170635   4.307   9.767  10.997
56246SOL    HW270636   4.383   9.636  10.995
56247SOL     OW70637   3.301  10.527   3.204
56247SOL    HW170638   3.332  10.443   3.236
56247SOL    HW270639   3.209  10.512   3.181
56248SOL     OW70640   1.534   0.187   1.795
56248SOL    HW170641   1.541   0.279   1.769
56248SOL    HW270642   1.548   0.188   1.889
56249SOL     OW70643  11.043   0.016   6.825
56249SOL    HW170644  11.027  14.795   6.857
56249SOL    HW270645  10.990   0.072   6.883
56250SOL     OW70646   2.939  10.695  14.413
56250SOL    HW170647   2.998  10.768  14.433
56250SOL    HW270648   2.901  10.717  14.328
56251SOL     OW70649  11.414  11.761   1.228
56251SOL    HW170650  11.379  11.718   1.306
56251SOL    HW270651  11.423  11.853   1.253
56252SOL     OW70652   0.712  13.388   8.945
56252SOL    HW170653   0.739  13.299   8.924
56252SOL    HW270654   0.770  13.444   8.893
56253SOL     OW70655   1.917  12.409  10.384
56253SOL    HW170656   2.011  12.410  10.369
56253SOL    HW270657   1.892  12.317  10.373
56254SOL     OW70658   8.795  10.896  12.962
56254SOL    HW170659   8.823  10.811  12.996
56254SOL    HW270660   8.727  10.875  12.898
56255SOL     OW70661   6.306   9.299   5.269
56255SOL    HW170662   6.346   9.376   5.310
56255SOL    HW270663   6.365   9.227   5.291
56256SOL     OW70664   8.706   1.603   1.563
56256SOL    HW170665   8.670   1.635   1.646
56256SOL    HW270666   8.756   1.677   1.528
56257SOL     OW70667  14.010  10.701   8.074
56257SOL    HW170668  14.072  10.704   8.001
56257SOL    HW270669  14.053  10.751   8.143
56258SOL     OW70670  11.628   2.756   4.426
56258SOL    HW170671  11.594   2.704   4.499
56258SOL    HW270672  11.719   2.727   4.417
56259SOL     OW70673   1.335   0.115   1.637
56259SOL    HW170674   1.383   0.073   1.565
56259SOL    HW270675   1.400   0.125   1.706
56260SOL     OW70676  12.371   4.299  10.460
56260SOL    HW170677  12.408   4.375  10.503
56260SOL    HW270678  12.436   4.275  10.393
56261SOL     OW70679   8.270   3.257   9.142
56261SOL    HW170680   8.333   3.216   9.201
56261SOL    HW270681   8.294   3.350   9.143
56262SOL     OW70682   3.139   6.514  11.827
56262SOL    HW170683   3.212   6.487  11.772
56262SOL    HW270684   3.127   6.442  11.889
56263SOL     OW70685   7.874  14.585   7.459
56263SOL    HW170686   7.954  14.541   7.427
56263SOL    HW270687   7.890  14.598   7.552
56264SOL     OW70688   0.131   1.966   7.080
56264SOL    HW170689   0.111   2.004   6.994
56264SOL    HW270690   0.052   1.981   7.132
56265SOL     OW70691   7.453   0.952   7.925
56265SOL    HW170692   7.364   0.924   7.946
56265SOL    HW270693   7.482   0.998   8.004
56266SOL     OW70694   7.038  13.206  10.277
56266SOL    HW170695   7.047  13.284  10.332
56266SOL    HW270696   7.123  13.196  10.235
56267SOL     OW70697   1.786   6.490   8.491
56267SOL    HW170698   1.805   6.453   8.577
56267SOL    HW270699   1.739   6.420   8.444
56268SOL     OW70700   9.215  10.509   3.159
56268SOL    HW170701   9.283  10.442   3.157
56268SOL    HW270702   9.236  10.567   3.085
56269SOL     OW70703   1.437   8.423   6.529
56269SOL    HW170704   1.352   8.386   6.506
56269SOL    HW270705   1.426   8.455   6.619
56270SOL     OW70706   3.336   1.377   2.955
56270SOL    HW170707   3.288   1.303   2.917
56270SOL    HW270708   3.389   1.338   3.024
56271SOL     OW70709   1.952  14.257   4.856
56271SOL    HW170710   1.967  14.327   4.793
56271SOL    HW270711   1.883  14.204   4.817
56272SOL     OW70712   5.422   6.962   1.048
56272SOL    HW170713   5.512   6.991   1.063
56272SOL    HW270714   5.400   6.912   1.126
56273SOL     OW70715   0.935  10.013   4.780
56273SOL    HW170716   0.908  10.004   4.689
56273SOL    HW270717   1.009  10.074   4.777
56274SOL     OW70718  11.682   9.004  11.145
56274SOL    HW170719  11.630   8.971  11.072
56274SOL    HW270720  11.716   9.088  11.114
56275SOL     OW70721   1.003   6.447  12.808
56275SOL    HW170722   1.072   6.502  12.846
56275SOL    HW270723   1.048   6.368  12.780
56276SOL     OW70724  14.699   0.647  13.063
56276SOL    HW170725  14.724   0.689  12.981
56276SOL    HW270726  14.657   0.565  13.037
56277SOL     OW70727   0.182  10.772  12.439
56277SOL    HW170728   0.151  10.726  12.517
56277SOL    HW270729   0.136  10.729  12.366
56278SOL     OW70730   6.976   4.703  12.552
56278SOL    HW170731   6.901   4.729  12.498
56278SOL    HW270732   7.028   4.783  12.561
56279SOL     OW70733  14.158  12.607   2.545
56279SOL    HW170734  14.145  12.683   2.488
56279SOL    HW270735  14.238  12.566   2.512
56280SOL     OW70736   9.689   1.038  14.205
56280SOL    HW170737   9.731   1.002  14.127
56280SOL    HW270738   9.647   1.118  14.175
56281SOL     OW70739   0.681   4.662   3.491
56281SOL    HW170740   0.601   4.667   3.439
56281SOL    HW270741   0.747   4.707   3.438
56282SOL     OW70742  11.652   5.646  13.413
56282SOL    HW170743  11.588   5.656  13.342
56282SOL    HW270744  11.728   5.697  13.384
56283SOL     OW70745   0.572   5.117   8.087
56283SOL    HW170746   0.483   5.150   8.103
56283SOL    HW270747   0.562   5.056   8.014
56284SOL     OW70748   4.371   5.324  12.641
56284SOL    HW170749   4.368   5.397  12.703
56284SOL    HW270750   4.439   5.348  12.579
56285SOL     OW70751   1.137  11.311   1.064
56285SOL    HW170752   1.160  11.233   1.013
56285SOL    HW270753   1.207  11.319   1.129
56286SOL     OW70754   5.389   9.590   9.039
56286SOL    HW170755   5.375   9.624   9.127
56286SOL    HW270756   5.411   9.667   8.986
56287SOL     OW70757   0.851   2.457   3.993
56287SOL    HW170758   0.826   2.366   3.975
56287SOL    HW270759   0.890   2.488   3.912
56288SOL     OW70760   2.105   0.442  11.339
56288SOL    HW170761   2.093   0.347  11.331
56288SOL    HW270762   2.017   0.477  11.353
56289SOL     OW70763  11.523   7.445   2.029
56289SOL    HW170764  11.590   7.441   2.098
56289SOL    HW270765  11.500   7.353   2.014
56290SOL     OW70766   5.122   8.743  10.096
56290SOL    HW170767   5.192   8.804  10.072
56290SOL    HW270768   5.072   8.730  10.015
56291SOL     OW70769   9.205  11.706  11.121
56291SOL    HW170770   9.224  11.753  11.039
56291SOL    HW270771   9.221  11.614  11.100
56292SOL     OW70772  13.563   2.286  10.999
56292SOL    HW170773  13.472   2.262  10.979
56292SOL    HW270774  13.558   2.326  11.085
56293SOL     OW70775  10.742   7.928   3.490
56293SOL    HW170776  10.797   7.947   3.414
56293SOL    HW270777  10.653   7.943   3.459
56294SOL     OW70778   0.031   9.283  14.550
56294SOL    HW170779   0.092   9.236  14.493
56294SOL    HW270780   0.017   9.367  14.505
56295SOL     OW70781   7.394   2.323   6.567
56295SOL    HW170782   7.421   2.394   6.509
56295SOL    HW270783   7.361   2.367   6.645
56296SOL     OW70784   1.241  12.685   3.223
56296SOL    HW170785   1.191  12.761   3.194
56296SOL    HW270786   1.292  12.659   3.147
56297SOL     OW70787   8.768   0.976   6.034
56297SOL    HW170788   8.735   0.932   6.112
56297SOL    HW270789   8.863   0.981   6.048
56298SOL     OW70790   2.414   2.925   1.092
56298SOL    HW170791   2.321   2.947   1.097
56298SOL    HW270792   2.416   2.830   1.080
56299SOL     OW70793   8.717   1.650   1.038
56299SOL    HW170794   8.646   1.678   0.982
56299SOL    HW270795   8.725   1.719   1.104
56300SOL     OW70796   4.866   4.217  12.491
56300SOL    HW170797   4.789   4.199  12.544
56300SOL    HW270798   4.832   4.258  12.411
56301SOL     OW70799   4.075   4.631   8.525
56301SOL    HW170800   4.034   4.561   8.576
56301SOL    HW270801   4.063   4.709   8.579
56302SOL     OW70802  14.370   7.383   0.839
56302SOL    HW170803  14.317   7.354   0.913
56302SOL    HW270804  14.418   7.306   0.811
56303SOL     OW70805  13.072  12.719  12.281
56303SOL    HW170806  13.065  12.744  12.373
56303SOL    HW270807  13.047  12.797  12.232
56304SOL     OW70808  11.885  14.397  12.637
56304SOL    HW170809  11.973  14.427  12.618
56304SOL    HW270810  11.829  14.473  12.624
56305SOL     OW70811   5.733   3.092   9.128
56305SOL    HW170812   5.804   3.038   9.095
56305SOL    HW270813   5.762   3.182   9.115
56306SOL     OW70814   4.204  12.201   6.189
56306SOL    HW170815   4.123  12.151   6.187
56306SOL    HW270816   4.254  12.170   6.114
56307SOL     OW70817   5.916   2.697   4.759
56307SOL    HW170818   5.943   2.607   4.773
56307SOL    HW270819   5.834   2.706   4.806
56308SOL     OW70820   1.404   9.339   1.386
56308SOL    HW170821   1.494   9.367   1.405
56308SOL    HW270822   1.352   9.420   1.394
56309SOL     OW70823  10.043  11.120   5.964
56309SOL    HW170824  10.007  11.180   6.028
56309SOL    HW270825  10.011  11.152   5.880
56310SOL     OW70826   8.212   2.203  13.585
56310SOL    HW170827   8.195   2.296  13.601
56310SOL    HW270828   8.214   2.196  13.489
56311SOL     OW70829  13.363   2.614   2.433
56311SOL    HW170830  13.406   2.550   2.489
56311SOL    HW270831  13.280   2.573   2.409
56312SOL     OW70832   5.862   8.130   1.675
56312SOL    HW170833   5.779   8.161   1.710
56312SOL    HW270834   5.906   8.087   1.749
56313SOL     OW70835   1.913   7.542   8.485
56313SOL    HW170836   1.827   7.552   8.526
56313SOL    HW270837   1.973   7.587   8.545
56314SOL     OW70838   5.151   8.541   2.404
56314SOL    HW170839   5.124   8.589   2.482
56314SOL    HW270840   5.069   8.510   2.366
56315SOL     OW70841   0.541   0.521   3.557
56315SOL    HW170842   0.634   0.508   3.577
56315SOL    HW270843   0.540   0.598   3.500
56316SOL     OW70844  14.606  10.332   5.559
56316SOL    HW170845  14.623  10.238   5.554
56316SOL    HW270846  14.527  10.345   5.507
56317SOL     OW70847   3.727   2.468   3.673
56317SOL    HW170848   3.665   2.452   3.602
56317SOL    HW270849   3.705   2.555   3.706
56318SOL     OW70850  14.263   5.974   9.768
56318SOL    HW170851  14.335   5.930   9.723
56318SOL    HW270852  14.266   6.064   9.736
56319SOL     OW70853  14.751   5.562   1.495
56319SOL    HW170854  14.701   5.536   1.572
56319SOL    HW270855  14.811   5.488   1.480
56320SOL     OW70856   7.356   0.561  10.092
56320SOL    HW170857   7.385   0.485  10.143
56320SOL    HW270858   7.264   0.543  10.074
56321SOL     OW70859  14.781   5.019   7.274
56321SOL    HW170860  14.782   5.005   7.179
56321SOL    HW270861   0.001   5.051   7.295
56322SOL     OW70862   7.301   4.120   8.962
56322SOL    HW170863   7.356   4.194   8.987
56322SOL    HW270864   7.212   4.152   8.970
56323SOL     OW70865   8.818   9.969   0.496
56323SOL    HW170866   8.903  10.006   0.519
56323SOL    HW270867   8.791   9.923   0.575
56324SOL     OW70868  12.547   5.474  11.012
56324SOL    HW170869  12.626   5.502  10.965
56324SOL    HW270870  12.574   5.471  11.104
56325SOL     OW70871   6.658  12.047   0.297
56325SOL    HW170872   6.603  12.105   0.349
56325SOL    HW270873   6.745  12.056   0.336
56326SOL     OW70874  14.813   5.645  14.381
56326SOL    HW170875  14.795   5.560  14.342
56326SOL    HW270876  14.761   5.646  14.462
56327SOL     OW70877   3.846  12.331   7.243
56327SOL    HW170878   3.773  12.275   7.219
56327SOL    HW270879   3.924  12.280   7.220
56328SOL     OW70880   5.346   7.230   1.531
56328SOL    HW170881   5.320   7.288   1.459
56328SOL    HW270882   5.352   7.288   1.607
56329SOL     OW70883  14.300   2.244   8.230
56329SOL    HW170884  14.218   2.251   8.279
56329SOL    HW270885  14.304   2.324   8.178
56330SOL     OW70886   3.093   2.820   0.594
56330SOL    HW170887   3.027   2.753   0.614
56330SOL    HW270888   3.176   2.782   0.623
56331SOL     OW70889  12.518   7.409   1.330
56331SOL    HW170890  12.592   7.360   1.294
56331SOL    HW270891  12.557   7.484   1.374
56332SOL     OW70892   2.656   4.327  12.855
56332SOL    HW170893   2.736   4.334  12.907
56332SOL    HW270894   2.681   4.274  12.779
56333SOL     OW70895  13.253   0.840   6.455
56333SOL    HW170896  13.233   0.832   6.548
56333SOL    HW270897  13.177   0.882   6.417
56334SOL     OW70898   5.704   0.985   4.508
56334SOL    HW170899   5.676   1.071   4.539
56334SOL    HW270900   5.623   0.942   4.480
56335SOL     OW70901   1.787   8.861   3.619
56335SOL    HW170902   1.878   8.880   3.597
56335SOL    HW270903   1.786   8.859   3.715
56336SOL     OW70904   0.283   5.211  10.827
56336SOL    HW170905   0.334   5.237  10.750
56336SOL    HW270906   0.260   5.119  10.811
56337SOL     OW70907   7.591   6.586  14.814
56337SOL    HW170908   7.620   6.638  14.739
56337SOL    HW270909   7.671   6.547  14.848
56338SOL     OW70910   0.895  12.221   8.970
56338SOL    HW170911   0.956  12.187   8.905
56338SOL    HW270912   0.930  12.308   8.992
56339SOL     OW70913  14.728   3.566   1.908
56339SOL    HW170914  14.661   3.622   1.947
56339SOL    HW270915  14.785   3.543   1.981
56340SOL     OW70916  13.140  13.477   8.542
56340SOL    HW170917  13.116  13.555   8.492
56340SOL    HW270918  13.200  13.430   8.484
56341SOL     OW70919   1.224  12.700   7.716
56341SOL    HW170920   1.149  12.660   7.672
56341SOL    HW270921   1.244  12.779   7.666
56342SOL     OW70922  11.958   5.024   2.080
56342SOL    HW170923  11.947   5.069   2.163
56342SOL    HW270924  11.944   5.092   2.014
56343SOL     OW70925   7.980  13.176  10.515
56343SOL    HW170926   7.932  13.175  10.599
56343SOL    HW270927   8.072  13.169  10.540
56344SOL     OW70928   6.841   3.240   8.349
56344SOL    HW170929   6.936   3.251   8.355
56344SOL    HW270930   6.809   3.322   8.313
56345SOL     OW70931   0.463   9.854   4.145
56345SOL    HW170932   0.453   9.773   4.094
56345SOL    HW270933   0.388   9.907   4.120
56346SOL     OW70934   5.445   0.071   5.273
56346SOL    HW170935   5.488  14.853   5.274
56346SOL    HW270936   5.363   0.058   5.319
56347SOL     OW70937   5.795  11.916   3.108
56347SOL    HW170938   5.821  11.939   3.197
56347SOL    HW270939   5.699  11.915   3.111
56348SOL     OW70940  14.615  14.070  10.862
56348SOL    HW170941  14.661  14.093  10.781
56348SOL    HW270942  14.684  14.055  10.926
56349SOL     OW70943   7.682   1.876   6.991
56349SOL    HW170944   7.673   1.953   7.048
56349SOL    HW270945   7.768   1.841   7.012
56350SOL     OW70946   4.738   8.331   8.699
56350SOL    HW170947   4.692   8.253   8.729
56350SOL    HW270948   4.768   8.308   8.611
56351SOL     OW70949   7.609  12.780   0.371
56351SOL    HW170950   7.633  12.862   0.413
56351SOL    HW270951   7.576  12.805   0.285
56352SOL     OW70952   2.929   7.633  10.691
56352SOL    HW170953   2.909   7.618  10.598
56352SOL    HW270954   3.023   7.613  10.699
56353SOL     OW70955   7.166   0.150   3.618
56353SOL    HW170956   7.165   0.102   3.700
56353SOL    HW270957   7.187   0.240   3.642
56354SOL     OW70958   5.448   1.440  10.575
56354SOL    HW170959   5.370   1.389  10.556
56354SOL    HW270960   5.419   1.531  10.567
56355SOL     OW70961  10.815  14.267  13.966
56355SOL    HW170962  10.908  14.243  13.967
56355SOL    HW270963  10.811  14.345  13.910
56356SOL     OW70964  14.265  11.213   4.061
56356SOL    HW170965  14.295  11.241   4.147
56356SOL    HW270966  14.300  11.124   4.051
56357SOL     OW70967   5.192   1.353   7.240
56357SOL    HW170968   5.174   1.408   7.163
56357SOL    HW270969   5.192   1.414   7.314
56358SOL     OW70970   9.698   6.348   1.723
56358SOL    HW170971   9.749   6.267   1.725
56358SOL    HW270972   9.759   6.416   1.750
56359SOL     OW70973   9.457   5.410   8.988
56359SOL    HW170974   9.426   5.323   9.013
56359SOL    HW270975   9.507   5.396   8.907
56360SOL     OW70976   7.252   2.226   0.146
56360SOL    HW170977   7.282   2.194   0.061
56360SOL    HW270978   7.293   2.312   0.155
56361SOL     OW70979   8.546   1.290  13.727
56361SOL    HW170980   8.502   1.364  13.684
56361SOL    HW270981   8.485   1.262  13.795
56362SOL     OW70982   0.134   9.906  13.225
56362SOL    HW170983   0.110   9.993  13.256
56362SOL    HW270984   0.054   9.855  13.230
56363SOL     OW70985  11.439   8.246   9.362
56363SOL    HW170986  11.349   8.275   9.344
56363SOL    HW270987  11.477   8.232   9.276
56364SOL     OW70988  14.409   8.602   0.989
56364SOL    HW170989  14.423   8.554   0.908
56364SOL    HW270990  14.496   8.632   1.015
56365SOL     OW70991   8.574   4.180   9.279
56365SOL    HW170992   8.498   4.128   9.304
56365SOL    HW270993   8.539   4.266   9.259
56366SOL     OW70994   8.093   9.286   9.695
56366SOL    HW170995   8.052   9.340   9.762
56366SOL    HW270996   8.108   9.345   9.621
56367SOL     OW70997   8.227   2.641   1.335
56367SOL    HW170998   8.158   2.578   1.315
56367SOL    HW270999   8.286   2.637   1.260
56368SOL     OW71000   0.833  11.298  14.162
56368SOL    HW171001   0.781  11.293  14.082
56368SOL    HW271002   0.769  11.311  14.232
56369SOL     OW71003   4.128   1.027   6.458
56369SOL    HW171004   4.215   1.054   6.489
56369SOL    HW271005   4.078   1.010   6.538
56370SOL     OW71006  10.332   4.090   0.329
56370SOL    HW171007  10.275   4.025   0.289
56370SOL    HW271008  10.324   4.074   0.423
56371SOL     OW71009   2.287   2.739   1.863
56371SOL    HW171010   2.256   2.755   1.774
56371SOL    HW271011   2.382   2.726   1.853
56372SOL     OW71012   0.748   6.032   1.033
56372SOL    HW171013   0.687   5.959   1.046
56372SOL    HW271014   0.795   6.039   1.116
56373SOL     OW71015   7.137   9.882   8.767
56373SOL    HW171016   7.215   9.871   8.712
56373SOL    HW271017   7.115   9.794   8.796
56374SOL     OW71018  11.220  12.348   0.174
56374SOL    HW171019  11.159  12.360   0.101
56374SOL    HW271020  11.193  12.413   0.239
56375SOL     OW71021   3.693  11.526   2.940
56375SOL    HW171022   3.782  11.492   2.927
56375SOL    HW271023   3.704  11.621   2.946
56376SOL     OW71024  11.759   2.419   1.688
56376SOL    HW171025  11.688   2.447   1.630
56376SOL    HW271026  11.786   2.334   1.654
56377SOL     OW71027   1.457   7.818  10.205
56377SOL    HW171028   1.439   7.898  10.157
56377SOL    HW271029   1.386   7.758  10.180
56378SOL     OW71030   3.080  10.037   9.315
56378SOL    HW171031   3.153  10.033   9.254
56378SOL    HW271032   3.029   9.957   9.298
56379SOL     OW71033  13.784   1.642   5.932
56379SOL    HW171034  13.745   1.650   5.845
56379SOL    HW271035  13.869   1.601   5.916
56380SOL     OW71036  13.293   0.589  10.939
56380SOL    HW171037  13.263   0.657  10.879
56380SOL    HW271038  13.241   0.512  10.917
56381SOL     OW71039  11.631   7.211   4.919
56381SOL    HW171040  11.569   7.141   4.898
56381SOL    HW271041  11.587   7.263   4.986
56382SOL     OW71042  13.066  13.572   6.229
56382SOL    HW171043  13.033  13.644   6.175
56382SOL    HW271044  13.033  13.592   6.317
56383SOL     OW71045   8.503   8.592  14.314
56383SOL    HW171046   8.588   8.622  14.345
56383SOL    HW271047   8.501   8.615  14.221
56384SOL     OW71048  10.961   1.749   3.441
56384SOL    HW171049  10.991   1.834   3.473
56384SOL    HW271050  10.896   1.721   3.504
56385SOL     OW71051   7.595   3.108  13.766
56385SOL    HW171052   7.514   3.116  13.817
56385SOL    HW271053   7.629   3.021  13.790
56386SOL     OW71054   7.343   5.511   4.625
56386SOL    HW171055   7.367   5.418   4.633
56386SOL    HW271056   7.341   5.527   4.531
56387SOL     OW71057   5.226  14.036  14.028
56387SOL    HW171058   5.251  14.053  14.119
56387SOL    HW271059   5.286  13.967  14.000
56388SOL     OW71060  12.342   2.069   9.571
56388SOL    HW171061  12.389   2.064   9.488
56388SOL    HW271062  12.378   1.997   9.623
56389SOL     OW71063   6.170   5.336  13.565
56389SOL    HW171064   6.209   5.290  13.639
56389SOL    HW271065   6.076   5.321  13.574
56390SOL     OW71066   3.692   9.066  12.984
56390SOL    HW171067   3.639   8.992  13.014
56390SOL    HW271068   3.781   9.046  13.013
56391SOL     OW71069  14.543   6.970   7.750
56391SOL    HW171070  14.495   6.943   7.829
56391SOL    HW271071  14.476   7.000   7.690
56392SOL     OW71072  13.649  10.976   5.767
56392SOL    HW171073  13.633  11.053   5.821
56392SOL    HW271074  13.722  10.931   5.810
56393SOL     OW71075  11.113  12.189  14.513
56393SOL    HW171076  11.078  12.176  14.424
56393SOL    HW271077  11.113  12.101  14.551
56394SOL     OW71078  13.695   4.530   2.035
56394SOL    HW171079  13.703   4.494   1.947
56394SOL    HW271080  13.784   4.529   2.070
56395SOL     OW71081   2.125   7.268   2.740
56395SOL    HW171082   2.194   7.328   2.713
56395SOL    HW271083   2.070   7.258   2.662
56396SOL     OW71084   5.397   0.662   6.359
56396SOL    HW171085   5.351   0.697   6.435
56396SOL    HW271086   5.482   0.634   6.393
56397SOL     OW71087   0.073  14.208   6.141
56397SOL    HW171088   0.012  14.151   6.093
56397SOL    HW271089   0.067  14.178   6.232
56398SOL     OW71090   0.239   2.678   6.218
56398SOL    HW171091   0.147   2.670   6.242
56398SOL    HW271092   0.276   2.591   6.233
56399SOL     OW71093   0.523   3.565   1.548
56399SOL    HW171094   0.553   3.508   1.477
56399SOL    HW271095   0.497   3.646   1.504
56400SOL     OW71096   4.194   6.322  10.648
56400SOL    HW171097   4.162   6.298  10.735
56400SOL    HW271098   4.260   6.255  10.628
56401SOL     OW71099   9.257   1.899   0.926
56401SOL    HW171100   9.314   1.975   0.939
56401SOL    HW271101   9.204   1.896   1.006
56402SOL     OW71102  14.517  11.617   5.062
56402SOL    HW171103  14.468  11.697   5.042
56402SOL    HW271104  14.608  11.645   5.070
56403SOL     OW71105   6.323   6.915  10.183
56403SOL    HW171106   6.229   6.927  10.194
56403SOL    HW271107   6.331   6.842  10.122
56404SOL     OW71108   7.366   5.803  10.259
56404SOL    HW171109   7.386   5.867  10.327
56404SOL    HW271110   7.285   5.836  10.218
56405SOL     OW71111  10.779  10.774  13.159
56405SOL    HW171112  10.815  10.686  13.172
56405SOL    HW271113  10.688  10.759  13.132
56406SOL     OW71114  13.016   2.348  14.786
56406SOL    HW171115  12.945   2.379  14.842
56406SOL    HW271116  13.092   2.344  14.844
56407SOL     OW71117   0.325  11.344   6.603
56407SOL    HW171118   0.378  11.266   6.620
56407SOL    HW271119   0.359  11.379   6.521
56408SOL     OW71120   2.127   3.685   6.523
56408SOL    HW171121   2.196   3.751   6.512
56408SOL    HW271122   2.167   3.603   6.497
56409SOL     OW71123  10.425   0.019   7.956
56409SOL    HW171124  10.342   0.048   7.917
56409SOL    HW271125  10.421   0.051   8.046
56410SOL     OW71126   4.327  14.568   1.553
56410SOL    HW171127   4.288  14.616   1.480
56410SOL    HW271128   4.374  14.634   1.603
56411SOL     OW71129   2.663   4.016   9.389
56411SOL    HW171130   2.578   4.031   9.429
56411SOL    HW271131   2.686   4.101   9.350
56412SOL     OW71132  10.459  13.309   3.787
56412SOL    HW171133  10.486  13.244   3.722
56412SOL    HW271134  10.512  13.288   3.864
56413SOL     OW71135  12.806  10.642   7.427
56413SOL    HW171136  12.796  10.572   7.363
56413SOL    HW271137  12.899  10.663   7.425
56414SOL     OW71138   0.496  11.696   5.697
56414SOL    HW171139   0.403  11.671   5.693
56414SOL    HW271140   0.539  11.639   5.633
56415SOL     OW71141   7.134   6.138   0.314
56415SOL    HW171142   7.064   6.158   0.377
56415SOL    HW271143   7.172   6.224   0.293
56416SOL     OW71144  13.617   6.970  14.484
56416SOL    HW171145  13.651   6.882  14.470
56416SOL    HW271146  13.691   7.028  14.467
56417SOL     OW71147  12.123   1.844   2.941
56417SOL    HW171148  12.037   1.866   2.906
56417SOL    HW271149  12.183   1.905   2.897
56418SOL     OW71150   6.822   7.357   9.860
56418SOL    HW171151   6.883   7.312   9.802
56418SOL    HW271152   6.776   7.419   9.803
56419SOL     OW71153   4.540   5.012   0.372
56419SOL    HW171154   4.498   4.926   0.376
56419SOL    HW271155   4.558   5.026   0.279
56420SOL     OW71156   7.669   2.817  10.030
56420SOL    HW171157   7.618   2.811  10.111
56420SOL    HW271158   7.621   2.763   9.967
56421SOL     OW71159   5.030   8.656  12.712
56421SOL    HW171160   5.019   8.585  12.775
56421SOL    HW271161   5.116   8.639  12.673
56422SOL     OW71162  13.689   0.779   5.501
56422SOL    HW171163  13.727   0.742   5.421
56422SOL    HW271164  13.736   0.735   5.572
56423SOL     OW71165   5.803   1.367   8.262
56423SOL    HW171166   5.829   1.458   8.248
56423SOL    HW271167   5.875   1.329   8.312
56424SOL     OW71168  11.014   0.007  12.623
56424SOL    HW171169  11.095  14.852  12.669
56424SOL    HW271170  11.002  14.805  12.559
56425SOL     OW71171  10.116   3.228   0.025
56425SOL    HW171172  10.094   3.305   0.077
56425SOL    HW271173  10.174   3.260  14.825
56426SOL     OW71174  13.846   3.900   6.723
56426SOL    HW171175  13.754   3.878   6.738
56426SOL    HW271176  13.871   3.848   6.647
56427SOL     OW71177   1.726   8.376   9.052
56427SOL    HW171178   1.681   8.460   9.064
56427SOL    HW271179   1.707   8.352   8.961
56428SOL     OW71180   2.605   7.029  10.825
56428SOL    HW171181   2.686   7.075  10.803
56428SOL    HW271182   2.622   6.989  10.911
56429SOL     OW71183   6.946  12.562   0.726
56429SOL    HW171184   6.895  12.633   0.687
56429SOL    HW271185   6.985  12.517   0.651
56430SOL     OW71186   1.489  14.803   6.345
56430SOL    HW171187   1.470  14.742   6.273
56430SOL    HW271188   1.486   0.022   6.304
56431SOL     OW71189   9.365   8.495   3.321
56431SOL    HW171190   9.389   8.403   3.324
56431SOL    HW271191   9.431   8.540   3.374
56432SOL     OW71192   9.506   7.428   0.991
56432SOL    HW171193   9.564   7.447   1.064
56432SOL    HW271194   9.529   7.492   0.924
56433SOL     OW71195   7.324   3.455   4.080
56433SOL    HW171196   7.344   3.365   4.054
56433SOL    HW271197   7.354   3.508   4.006
56434SOL     OW71198  14.210   9.080  12.009
56434SOL    HW171199  14.304   9.074  12.028
56434SOL    HW271200  14.179   8.990  12.010
56435SOL     OW71201   6.496   5.177  10.072
56435SOL    HW171202   6.548   5.101  10.045
56435SOL    HW271203   6.559   5.237  10.110
56436SOL     OW71204   0.804   0.905  12.260
56436SOL    HW171205   0.871   0.909  12.191
56436SOL    HW271206   0.727   0.946  12.220
56437SOL     OW71207   5.168   4.866  12.840
56437SOL    HW171208   5.248   4.813  12.849
56437SOL    HW271209   5.199   4.956  12.842
56438SOL     OW71210  10.257   7.326   1.224
56438SOL    HW171211  10.205   7.281   1.290
56438SOL    HW271212  10.342   7.282   1.227
56439SOL     OW71213   8.014   1.500   9.445
56439SOL    HW171214   8.058   1.415   9.430
56439SOL    HW271215   7.966   1.488   9.527
56440SOL     OW71216  10.320  12.345   6.453
56440SOL    HW171217  10.323  12.439   6.436
56440SOL    HW271218  10.331  12.305   6.367
56441SOL     OW71219   8.881  12.877   4.937
56441SOL    HW171220   8.866  12.970   4.922
56441SOL    HW271221   8.973  12.871   4.962
56442SOL     OW71222  11.767  11.383   0.837
56442SOL    HW171223  11.765  11.292   0.866
56442SOL    HW271224  11.738  11.380   0.746
56443SOL     OW71225   1.128   8.858  13.591
56443SOL    HW171226   1.169   8.935  13.630
56443SOL    HW271227   1.053   8.839  13.648
56444SOL     OW71228   5.031  14.763   5.033
56444SOL    HW171229   4.950  14.787   4.987
56444SOL    HW271230   5.016  14.790   5.124
56445SOL     OW71231  13.210   0.793   8.614
56445SOL    HW171232  13.152   0.743   8.671
56445SOL    HW271233  13.280   0.731   8.591
56446SOL     OW71234   1.303   0.467   4.225
56446SOL    HW171235   1.291   0.373   4.240
56446SOL    HW271236   1.285   0.507   4.310
56447SOL     OW71237   3.783   6.746   5.371
56447SOL    HW171238   3.830   6.704   5.298
56447SOL    HW271239   3.795   6.685   5.444
56448SOL     OW71240   1.236  12.672   2.110
56448SOL    HW171241   1.253  12.672   2.205
56448SOL    HW271242   1.255  12.761   2.082
56449SOL     OW71243   7.284  10.334  11.462
56449SOL    HW171244   7.294  10.354  11.369
56449SOL    HW271245   7.365  10.367  11.502
56450SOL     OW71246   7.632   7.272   2.083
56450SOL    HW171247   7.543   7.265   2.048
56450SOL    HW271248   7.643   7.366   2.100
56451SOL     OW71249   0.563  14.483  10.101
56451SOL    HW171250   0.566  14.543  10.026
56451SOL    HW271251   0.545  14.398  10.062
56452SOL     OW71252   3.652   9.985  11.053
56452SOL    HW171253   3.589   9.921  11.022
56452SOL    HW271254   3.643   9.984  11.148
56453SOL     OW71255   4.733   4.557   9.329
56453SOL    HW171256   4.687   4.638   9.352
56453SOL    HW271257   4.732   4.505   9.410
56454SOL     OW71258   3.471  12.339   7.843
56454SOL    HW171259   3.470  12.246   7.866
56454SOL    HW271260   3.523  12.343   7.762
56455SOL     OW71261   0.443   8.800   6.716
56455SOL    HW171262   0.530   8.797   6.674
56455SOL    HW271263   0.440   8.721   6.769
56456SOL     OW71264   9.339   1.345  14.605
56456SOL    HW171265   9.367   1.335  14.514
56456SOL    HW271266   9.406   1.299  14.655
56457SOL     OW71267   5.828   5.224  14.533
56457SOL    HW171268   5.760   5.163  14.562
56457SOL    HW271269   5.910   5.180  14.555
56458SOL     OW71270   6.302   2.907   1.796
56458SOL    HW171271   6.359   2.973   1.757
56458SOL    HW271272   6.332   2.899   1.886
56459SOL     OW71273   4.184  11.554   7.367
56459SOL    HW171274   4.118  11.508   7.419
56459SOL    HW271275   4.262  11.500   7.375
56460SOL     OW71276   4.648   0.654   0.249
56460SOL    HW171277   4.663   0.618   0.161
56460SOL    HW271278   4.614   0.580   0.299
56461SOL     OW71279  10.013  14.670  10.136
56461SOL    HW171280  10.040  14.579  10.146
56461SOL    HW271281   9.918  14.666  10.125
56462SOL     OW71282   1.102  14.276   4.560
56462SOL    HW171283   1.152  14.267   4.641
56462SOL    HW271284   1.119  14.195   4.513
56463SOL     OW71285   6.274   1.879   2.768
56463SOL    HW171286   6.240   1.902   2.681
56463SOL    HW271287   6.263   1.959   2.819
56464SOL     OW71288  12.507  12.816  10.797
56464SOL    HW171289  12.584  12.831  10.852
56464SOL    HW271290  12.542  12.810  10.708
56465SOL     OW71291   9.762   8.847  13.966
56465SOL    HW171292   9.834   8.795  13.930
56465SOL    HW271293   9.805   8.909  14.025
56466SOL     OW71294   2.894   8.765   0.098
56466SOL    HW171295   2.940   8.713   0.033
56466SOL    HW271296   2.802   8.743   0.086
56467SOL     OW71297  10.755   1.503  10.660
56467SOL    HW171298  10.717   1.467  10.740
56467SOL    HW271299  10.688   1.562  10.625
56468SOL     OW71300   7.082   9.396   7.288
56468SOL    HW171301   7.119   9.407   7.201
56468SOL    HW271302   7.155   9.414   7.347
56469SOL     OW71303  12.580   8.476   6.464
56469SOL    HW171304  12.648   8.544   6.464
56469SOL    HW271305  12.607   8.416   6.394
56470SOL     OW71306   5.099   8.157   6.186
56470SOL    HW171307   5.147   8.238   6.171
56470SOL    HW271308   5.145   8.092   6.133
56471SOL     OW71309  10.849   1.883   9.668
56471SOL    HW171310  10.834   1.855   9.758
56471SOL    HW271311  10.805   1.816   9.614
56472SOL     OW71312   6.075   5.991  10.810
56472SOL    HW171313   6.086   5.906  10.853
56472SOL    HW271314   6.027   5.971  10.730
56473SOL     OW71315   5.738  12.142  11.904
56473SOL    HW171316   5.675  12.095  11.849
56473SOL    HW271317   5.689  12.217  11.936
56474SOL     OW71318   1.122  13.091   6.896
56474SOL    HW171319   1.087  13.114   6.811
56474SOL    HW271320   1.048  13.056   6.945
56475SOL     OW71321   2.123   8.244   5.221
56475SOL    HW171322   2.188   8.310   5.247
56475SOL    HW271323   2.060   8.244   5.293
56476SOL     OW71324   4.921  11.541   4.777
56476SOL    HW171325   4.948  11.517   4.688
56476SOL    HW271326   5.003  11.554   4.824
56477SOL     OW71327  12.261  10.660   4.890
56477SOL    HW171328  12.315  10.642   4.813
56477SOL    HW271329  12.177  10.688   4.854
56478SOL     OW71330  10.038  13.186  10.131
56478SOL    HW171331  10.125  13.150  10.151
56478SOL    HW271332   9.988  13.111  10.100
56479SOL     OW71333  14.215  13.283   6.828
56479SOL    HW171334  14.196  13.376   6.839
56479SOL    HW271335  14.293  13.281   6.772
56480SOL     OW71336  12.942   2.475   8.886
56480SOL    HW171337  12.870   2.539   8.888
56480SOL    HW271338  12.933   2.430   8.802
56481SOL     OW71339  12.863   9.032   6.466
56481SOL    HW171340  12.933   8.979   6.503
56481SOL    HW271341  12.783   8.981   6.482
56482SOL     OW71342   0.545   0.427   7.699
56482SOL    HW171343   0.509   0.506   7.741
56482SOL    HW271344   0.513   0.355   7.754
56483SOL     OW71345  13.684   8.472   3.022
56483SOL    HW171346  13.674   8.378   3.007
56483SOL    HW271347  13.764   8.480   3.074
56484SOL     OW71348  10.004   9.920   6.313
56484SOL    HW171349   9.956  10.002   6.301
56484SOL    HW271350   9.936   9.853   6.323
56485SOL     OW71351  11.597   5.919   1.983
56485SOL    HW171352  11.528   5.929   2.048
56485SOL    HW271353  11.569   5.972   1.909
56486SOL     OW71354   9.270  13.357   7.089
56486SOL    HW171355   9.256  13.274   7.043
56486SOL    HW271356   9.352  13.391   7.053
56487SOL     OW71357   3.864  13.020   0.818
56487SOL    HW171358   3.925  13.059   0.880
56487SOL    HW271359   3.882  13.065   0.735
56488SOL     OW71360   5.427  10.713   0.269
56488SOL    HW171361   5.414  10.802   0.303
56488SOL    HW271362   5.349  10.665   0.297
56489SOL     OW71363   1.499   4.634   3.581
56489SOL    HW171364   1.485   4.542   3.604
56489SOL    HW271365   1.550   4.669   3.654
56490SOL     OW71366   8.903   1.171   1.300
56490SOL    HW171367   8.855   1.229   1.241
56490SOL    HW271368   8.904   1.218   1.383
56491SOL     OW71369   1.537   3.712   7.174
56491SOL    HW171370   1.574   3.801   7.171
56491SOL    HW271371   1.443   3.726   7.174
56492SOL     OW71372   8.939   9.379  13.318
56492SOL    HW171373   8.890   9.460  13.305
56492SOL    HW271374   9.009   9.382  13.254
56493SOL     OW71375  10.433   1.361   2.006
56493SOL    HW171376  10.425   1.415   2.085
56493SOL    HW271377  10.356   1.304   2.008
56494SOL     OW71378   4.180   9.588   5.529
56494SOL    HW171379   4.099   9.565   5.483
56494SOL    HW271380   4.206   9.508   5.573
56495SOL     OW71381   2.932   4.660   0.810
56495SOL    HW171382   2.847   4.681   0.772
56495SOL    HW271383   2.918   4.575   0.852
56496SOL     OW71384   4.248   4.238   8.664
56496SOL    HW171385   4.176   4.175   8.657
56496SOL    HW271386   4.210   4.311   8.714
56497SOL     OW71387   4.608   0.047   6.479
56497SOL    HW171388   4.557  14.837   6.499
56497SOL    HW271389   4.678   0.047   6.545
56498SOL     OW71390  11.284   6.437   1.677
56498SOL    HW171391  11.240   6.368   1.726
56498SOL    HW271392  11.299   6.506   1.741
56499SOL     OW71393   2.607   1.037   4.076
56499SOL    HW171394   2.627   1.047   3.983
56499SOL    HW271395   2.569   1.121   4.102
56500SOL     OW71396  12.857  12.770   4.241
56500SOL    HW171397  12.881  12.862   4.245
56500SOL    HW271398  12.939  12.722   4.249
56501SOL     OW71399   1.545   4.744   2.878
56501SOL    HW171400   1.495   4.811   2.832
56501SOL    HW271401   1.619   4.790   2.917
56502SOL     OW71402  14.007   8.708   0.799
56502SOL    HW171403  14.073   8.699   0.730
56502SOL    HW271404  14.057   8.705   0.881
56503SOL     OW71405   2.605   9.710  13.982
56503SOL    HW171406   2.614   9.640  14.047
56503SOL    HW271407   2.692   9.720  13.945
56504SOL     OW71408   4.132   5.530   8.393
56504SOL    HW171409   4.198   5.490   8.335
56504SOL    HW271410   4.092   5.598   8.340
56505SOL     OW71411  10.861   9.032  13.889
56505SOL    HW171412  10.825   9.120  13.899
56505SOL    HW271413  10.839   8.987  13.970
56506SOL     OW71414   6.982   6.688   6.536
56506SOL    HW171415   6.905   6.634   6.556
56506SOL    HW271416   7.057   6.636   6.565
56507SOL     OW71417   3.221  10.406  13.726
56507SOL    HW171418   3.149  10.450  13.680
56507SOL    HW271419   3.264  10.354  13.658
56508SOL     OW71420  11.114  12.867   1.986
56508SOL    HW171421  11.114  12.863   1.891
56508SOL    HW271422  11.029  12.830   2.012
56509SOL     OW71423   2.830   7.911   2.508
56509SOL    HW171424   2.780   7.983   2.469
56509SOL    HW271425   2.813   7.836   2.451
56510SOL     OW71426  10.027  14.394  14.362
56510SOL    HW171427   9.982  14.319  14.323
56510SOL    HW271428  10.078  14.431  14.289
56511SOL     OW71429   4.037  14.397   9.845
56511SOL    HW171430   3.963  14.392   9.784
56511SOL    HW271431   4.002  14.445   9.920
56512SOL     OW71432   8.041   4.401   0.897
56512SOL    HW171433   8.010   4.479   0.943
56512SOL    HW271434   7.961   4.357   0.868
56513SOL     OW71435   5.534   8.572  14.571
56513SOL    HW171436   5.500   8.586  14.483
56513SOL    HW271437   5.547   8.661  14.606
56514SOL     OW71438  13.221  10.270  11.082
56514SOL    HW171439  13.174  10.313  11.153
56514SOL    HW271440  13.199  10.177  11.092
56515SOL     OW71441  13.267   6.377   3.603
56515SOL    HW171442  13.248   6.452   3.660
56515SOL    HW271443  13.335   6.409   3.543
56516SOL     OW71444   4.466   4.338   5.052
56516SOL    HW171445   4.460   4.253   5.097
56516SOL    HW271446   4.387   4.384   5.078
56517SOL     OW71447  12.328  13.720  10.875
56517SOL    HW171448  12.310  13.778  10.948
56517SOL    HW271449  12.264  13.649  10.883
56518SOL     OW71450  14.856   4.186   5.918
56518SOL    HW171451  14.819   4.238   5.989
56518SOL    HW271452   0.083   4.196   5.927
56519SOL     OW71453   7.453  13.252  11.464
56519SOL    HW171454   7.430  13.316  11.396
56519SOL    HW271455   7.394  13.273  11.536
56520SOL     OW71456   8.411  10.679   8.804
56520SOL    HW171457   8.360  10.599   8.808
56520SOL    HW271458   8.452  10.686   8.890
56521SOL     OW71459  13.874   4.170  12.820
56521SOL    HW171460  13.856   4.263  12.836
56521SOL    HW271461  13.957   4.154  12.864
56522SOL     OW71462  12.888   7.856   5.253
56522SOL    HW171463  12.828   7.860   5.328
56522SOL    HW271464  12.931   7.771   5.262
56523SOL     OW71465  14.455  11.242   9.413
56523SOL    HW171466  14.363  11.217   9.405
56523SOL    HW271467  14.453  11.327   9.457
56524SOL     OW71468   1.796   6.161  13.079
56524SOL    HW171469   1.818   6.092  13.141
56524SOL    HW271470   1.707   6.140  13.051
56525SOL     OW71471   3.514   9.356  12.717
56525SOL    HW171472   3.437   9.318  12.676
56525SOL    HW271473   3.509   9.328  12.809
56526SOL     OW71474   8.888  13.603   8.867
56526SOL    HW171475   8.827  13.598   8.940
56526SOL    HW271476   8.974  13.615   8.908
56527SOL     OW71477  11.145   3.625  12.382
56527SOL    HW171478  11.116   3.563  12.316
56527SOL    HW271479  11.163   3.571  12.459
56528SOL     OW71480   9.249   1.264   3.188
56528SOL    HW171481   9.195   1.223   3.256
56528SOL    HW271482   9.215   1.228   3.106
56529SOL     OW71483   4.557  10.131   5.918
56529SOL    HW171484   4.574  10.037   5.929
56529SOL    HW271485   4.536  10.141   5.825
56530SOL     OW71486   2.152   0.419  13.771
56530SOL    HW171487   2.122   0.380  13.689
56530SOL    HW271488   2.075   0.420  13.827
56531SOL     OW71489  10.267   7.973   0.699
56531SOL    HW171490  10.228   8.013   0.777
56531SOL    HW271491  10.285   7.883   0.725
56532SOL     OW71492   8.693   7.488   3.926
56532SOL    HW171493   8.627   7.530   3.871
56532SOL    HW271494   8.664   7.505   4.016
56533SOL     OW71495   8.435   6.953   1.138
56533SOL    HW171496   8.465   6.957   1.229
56533SOL    HW271497   8.409   6.862   1.125
56534SOL     OW71498   8.352   3.858   6.751
56534SOL    HW171499   8.324   3.792   6.814
56534SOL    HW271500   8.419   3.815   6.698
56535SOL     OW71501   6.225  10.584   6.294
56535SOL    HW171502   6.221  10.649   6.224
56535SOL    HW271503   6.146  10.532   6.283
56536SOL     OW71504   2.193  11.699   4.578
56536SOL    HW171505   2.264  11.648   4.619
56536SOL    HW271506   2.223  11.713   4.488
56537SOL     OW71507   5.854   3.660  14.363
56537SOL    HW171508   5.839   3.742  14.316
56537SOL    HW271509   5.943   3.634  14.340
56538SOL     OW71510   6.805   9.775   7.708
56538SOL    HW171511   6.827   9.684   7.688
56538SOL    HW271512   6.874   9.826   7.665
56539SOL     OW71513  11.656  14.148   1.838
56539SOL    HW171514  11.631  14.237   1.816
56539SOL    HW271515  11.687  14.152   1.928
56540SOL     OW71516   1.240   5.824   3.799
56540SOL    HW171517   1.154   5.854   3.827
56540SOL    HW271518   1.294   5.830   3.878
56541SOL     OW71519   4.064   6.570   6.138
56541SOL    HW171520   4.104   6.484   6.149
56541SOL    HW271521   4.114   6.611   6.068
56542SOL     OW71522   1.426  14.809  11.321
56542SOL    HW171523   1.379  14.726  11.324
56542SOL    HW271524   1.484  14.806  11.398
56543SOL     OW71525   7.321   3.381  13.950
56543SOL    HW171526   7.320   3.395  14.044
56543SOL    HW271527   7.257   3.444  13.915
56544SOL     OW71528   8.038   1.721   3.343
56544SOL    HW171529   7.963   1.663   3.328
56544SOL    HW271530   8.103   1.695   3.277
56545SOL     OW71531   0.886   8.595   7.238
56545SOL    HW171532   0.876   8.561   7.149
56545SOL    HW271533   0.881   8.518   7.295
56546SOL     OW71534   2.668   0.733   0.451
56546SOL    HW171535   2.646   0.666   0.515
56546SOL    HW271536   2.609   0.717   0.377
56547SOL     OW71537   8.272  11.536   0.878
56547SOL    HW171538   8.239  11.462   0.827
56547SOL    HW271539   8.300  11.600   0.812
56548SOL     OW71540   0.145   5.776  12.661
56548SOL    HW171541   0.229   5.745  12.626
56548SOL    HW271542   0.165   5.863  12.694
56549SOL     OW71543  10.982   1.321   6.457
56549SOL    HW171544  10.889   1.301   6.468
56549SOL    HW271545  11.022   1.293   6.539
56550SOL     OW71546   9.101   2.263   8.804
56550SOL    HW171547   9.067   2.190   8.752
56550SOL    HW271548   9.052   2.260   8.886
56551SOL     OW71549   6.799  13.534   1.338
56551SOL    HW171550   6.820  13.512   1.248
56551SOL    HW271551   6.883  13.551   1.380
56552SOL     OW71552   1.437  14.170   1.149
56552SOL    HW171553   1.469  14.257   1.128
56552SOL    HW271554   1.350  14.184   1.187
56553SOL     OW71555   8.103  12.493   4.329
56553SOL    HW171556   8.064  12.470   4.245
56553SOL    HW271557   8.040  12.553   4.369
56554SOL     OW71558  11.546   1.079   2.595
56554SOL    HW171559  11.459   1.043   2.613
56554SOL    HW271560  11.606   1.011   2.626
56555SOL     OW71561   9.591   1.969   5.211
56555SOL    HW171562   9.584   1.966   5.306
56555SOL    HW271563   9.667   2.025   5.194
56556SOL     OW71564   9.592   6.650  14.575
56556SOL    HW171565   9.498   6.649  14.562
56556SOL    HW271566   9.608   6.726  14.631
56557SOL     OW71567   7.415  14.151   9.014
56557SOL    HW171568   7.445  14.160   8.923
56557SOL    HW271569   7.321  14.172   9.010
56558SOL     OW71570   0.488  13.581   1.211
56558SOL    HW171571   0.420  13.514   1.208
56558SOL    HW271572   0.556  13.544   1.268
56559SOL     OW71573   1.841   3.622  11.788
56559SOL    HW171574   1.842   3.661  11.875
56559SOL    HW271575   1.758   3.573  11.785
56560SOL     OW71576   4.647   0.299   5.543
56560SOL    HW171577   4.620   0.218   5.586
56560SOL    HW271578   4.704   0.342   5.606
56561SOL     OW71579   4.163   2.961  13.530
56561SOL    HW171580   4.161   3.041  13.479
56561SOL    HW271581   4.219   2.982  13.605
56562SOL     OW71582  14.794  13.280   1.219
56562SOL    HW171583  14.747  13.349   1.172
56562SOL    HW271584  14.860  13.249   1.157
56563SOL     OW71585   6.167  10.796   1.981
56563SOL    HW171586   6.108  10.723   2.001
56563SOL    HW271587   6.190  10.832   2.067
56564SOL     OW71588   4.735   0.162   2.689
56564SOL    HW171589   4.755   0.156   2.782
56564SOL    HW271590   4.708   0.253   2.676
56565SOL     OW71591   8.049   4.213   8.212
56565SOL    HW171592   8.115   4.259   8.159
56565SOL    HW271593   7.985   4.281   8.235
56566SOL     OW71594   6.736  10.131   9.468
56566SOL    HW171595   6.690  10.047   9.456
56566SOL    HW271596   6.801  10.132   9.398
56567SOL     OW71597   7.936   1.730   9.693
56567SOL    HW171598   8.020   1.752   9.733
56567SOL    HW271599   7.870   1.764   9.754
56568SOL     OW71600   8.274   8.908  14.452
56568SOL    HW171601   8.208   8.977  14.438
56568SOL    HW271602   8.253   8.841  14.387
56569SOL     OW71603  12.412   6.775   6.203
56569SOL    HW171604  12.400   6.719   6.126
56569SOL    HW271605  12.499   6.813   6.192
56570SOL     OW71606  12.060  13.263   2.614
56570SOL    HW171607  12.036  13.170   2.614
56570SOL    HW271608  12.115  13.273   2.536
56571SOL     OW71609  10.125   7.710   0.530
56571SOL    HW171610  10.200   7.720   0.589
56571SOL    HW271611  10.055   7.676   0.586
56572SOL     OW71612   7.195   1.726   8.047
56572SOL    HW171613   7.102   1.715   8.027
56572SOL    HW271614   7.205   1.688   8.134
56573SOL     OW71615   8.704   5.132  13.591
56573SOL    HW171616   8.702   5.056  13.649
56573SOL    HW271617   8.742   5.099  13.509
56574SOL     OW71618   1.301   9.802   4.915
56574SOL    HW171619   1.260   9.731   4.866
56574SOL    HW271620   1.325   9.762   4.999
56575SOL     OW71621  12.997   4.412   5.970
56575SOL    HW171622  12.954   4.329   5.991
56575SOL    HW271623  12.979   4.468   6.046
56576SOL     OW71624  13.572  12.661   6.489
56576SOL    HW171625  13.495  12.633   6.538
56576SOL    HW271626  13.635  12.688   6.556
56577SOL     OW71627   9.106   0.998   8.562
56577SOL    HW171628   9.161   0.952   8.626
56577SOL    HW271629   9.022   0.953   8.566
56578SOL     OW71630  12.532   6.787  11.177
56578SOL    HW171631  12.538   6.824  11.265
56578SOL    HW271632  12.617   6.805  11.138
56579SOL     OW71633   4.205   8.198  11.371
56579SOL    HW171634   4.154   8.243  11.438
56579SOL    HW271635   4.295   8.200  11.404
56580SOL     OW71636  11.962   9.657   3.707
56580SOL    HW171637  11.891   9.615   3.755
56580SOL    HW271638  11.940   9.645   3.615
56581SOL     OW71639   5.141  13.205  13.314
56581SOL    HW171640   5.103  13.267  13.252
56581SOL    HW271641   5.214  13.252  13.353
56582SOL     OW71642   1.319   5.830   8.205
56582SOL    HW171643   1.368   5.900   8.250
56582SOL    HW271644   1.228   5.844   8.231
56583SOL     OW71645  10.001   7.267  13.144
56583SOL    HW171646  10.010   7.262  13.049
56583SOL    HW271647   9.967   7.355  13.160
56584SOL     OW71648  10.719   1.792   1.974
56584SOL    HW171649  10.724   1.879   1.934
56584SOL    HW271650  10.686   1.736   1.904
56585SOL     OW71651  10.319  10.002   7.973
56585SOL    HW171652  10.349  10.086   7.938
56585SOL    HW271653  10.361   9.936   7.918
56586SOL     OW71654   0.072  10.500   1.036
56586SOL    HW171655   0.057  10.593   1.022
56586SOL    HW271656   0.067  10.488   1.131
56587SOL     OW71657   2.347   4.357   0.249
56587SOL    HW171658   2.375   4.363   0.341
56587SOL    HW271659   2.253   4.372   0.252
56588SOL     OW71660  10.051  12.913   7.113
56588SOL    HW171661  10.014  12.882   7.196
56588SOL    HW271662  10.104  12.840   7.082
56589SOL     OW71663  11.016   8.560  12.763
56589SOL    HW171664  11.036   8.648  12.731
56589SOL    HW271665  11.044   8.502  12.692
56590SOL     OW71666   6.425  10.275   4.756
56590SOL    HW171667   6.453  10.220   4.829
56590SOL    HW271668   6.336  10.246   4.737
56591SOL     OW71669   8.370   1.280   5.143
56591SOL    HW171670   8.289   1.332   5.143
56591SOL    HW271671   8.373   1.242   5.055
56592SOL     OW71672   2.453  14.191   5.751
56592SOL    HW171673   2.380  14.130   5.753
56592SOL    HW271674   2.413  14.276   5.731
56593SOL     OW71675   4.467   8.880  13.583
56593SOL    HW171676   4.554   8.882  13.622
56593SOL    HW271677   4.451   8.970  13.555
56594SOL     OW71678   1.482   1.431   1.302
56594SOL    HW171679   1.407   1.468   1.254
56594SOL    HW271680   1.544   1.407   1.234
56595SOL     OW71681  10.038   3.513   3.918
56595SOL    HW171682  10.006   3.437   3.966
56595SOL    HW271683  10.072   3.476   3.836
56596SOL     OW71684   1.217   2.855   3.867
56596SOL    HW171685   1.179   2.941   3.852
56596SOL    HW271686   1.292   2.851   3.807
56597SOL     OW71687   0.131   7.898   6.071
56597SOL    HW171688   0.058   7.936   6.119
56597SOL    HW271689   0.092   7.826   6.021
56598SOL     OW71690   2.061  12.893  11.775
56598SOL    HW171691   2.096  12.809  11.803
56598SOL    HW271692   1.988  12.871  11.717
56599SOL     OW71693  13.785   8.045   5.808
56599SOL    HW171694  13.716   8.052   5.875
56599SOL    HW271695  13.860   8.007   5.854
56600SOL     OW71696   1.083   9.781   9.940
56600SOL    HW171697   1.062   9.703   9.889
56600SOL    HW271698   1.065   9.854   9.880
56601SOL     OW71699  14.009   4.648   5.823
56601SOL    HW171700  14.083   4.637   5.763
56601SOL    HW271701  13.936   4.604   5.778
56602SOL     OW71702   7.770   1.744   6.035
56602SOL    HW171703   7.793   1.660   5.995
56602SOL    HW271704   7.693   1.773   5.985
56603SOL     OW71705   3.615   0.982   9.738
56603SOL    HW171706   3.563   1.005   9.815
56603SOL    HW271707   3.706   0.998   9.766
56604SOL     OW71708   8.212  11.448  10.388
56604SOL    HW171709   8.128  11.482  10.357
56604SOL    HW271710   8.244  11.514  10.449
56605SOL     OW71711   8.116   8.061   7.455
56605SOL    HW171712   8.083   7.977   7.421
56605SOL    HW271713   8.184   8.036   7.517
56606SOL     OW71714  10.574   6.098   2.577
56606SOL    HW171715  10.652   6.044   2.584
56606SOL    HW271716  10.588   6.151   2.499
56607SOL     OW71717   2.594   4.915   2.593
56607SOL    HW171718   2.540   4.928   2.515
56607SOL    HW271719   2.638   4.831   2.577
56608SOL     OW71720   5.895  12.130   2.131
56608SOL    HW171721   5.968  12.192   2.129
56608SOL    HW271722   5.889  12.096   2.042
56609SOL     OW71723   0.822  11.249  10.792
56609SOL    HW171724   0.889  11.217  10.732
56609SOL    HW271725   0.855  11.334  10.822
56610SOL     OW71726   6.454  10.663  12.088
56610SOL    HW171727   6.455  10.758  12.096
56610SOL    HW271728   6.513  10.644  12.015
56611SOL     OW71729  12.541   2.301  12.515
56611SOL    HW171730  12.503   2.364  12.576
56611SOL    HW271731  12.587   2.238  12.571
56612SOL     OW71732   3.775   3.146   3.302
56612SOL    HW171733   3.771   3.104   3.217
56612SOL    HW271734   3.806   3.078   3.362
56613SOL     OW71735  14.866   0.903  10.726
56613SOL    HW171736   0.038   0.914  10.812
56613SOL    HW271737  14.855   0.992  10.693
56614SOL     OW71738   8.440   6.790   4.628
56614SOL    HW171739   8.358   6.824   4.664
56614SOL    HW271740   8.503   6.798   4.699
56615SOL     OW71741   8.854   2.239   7.469
56615SOL    HW171742   8.809   2.318   7.441
56615SOL    HW271743   8.944   2.267   7.488
56616SOL     OW71744   1.505   2.178   0.590
56616SOL    HW171745   1.557   2.150   0.515
56616SOL    HW271746   1.488   2.271   0.576
56617SOL     OW71747   0.346  11.696  10.453
56617SOL    HW171748   0.272  11.739  10.410
56617SOL    HW271749   0.306  11.635  10.515
56618SOL     OW71750   0.733   7.186   0.108
56618SOL    HW171751   0.705   7.129   0.036
56618SOL    HW271752   0.776   7.260   0.065
56619SOL     OW71753  11.315   9.382  10.192
56619SOL    HW171754  11.258   9.445  10.148
56619SOL    HW271755  11.261   9.345  10.262
56620SOL     OW71756   9.476  13.147   4.000
56620SOL    HW171757   9.436  13.096   3.929
56620SOL    HW271758   9.570  13.134   3.988
56621SOL     OW71759   8.007   8.263  10.745
56621SOL    HW171760   8.034   8.355  10.752
56621SOL    HW271761   8.070   8.216  10.800
56622SOL     OW71762   2.631  11.680   8.600
56622SOL    HW171763   2.642  11.723   8.685
56622SOL    HW271764   2.720  11.671   8.565
56623SOL     OW71765  12.182   3.657   3.455
56623SOL    HW171766  12.218   3.619   3.375
56623SOL    HW271767  12.209   3.748   3.452
56624SOL     OW71768   0.045   2.519   1.121
56624SOL    HW171769   0.007   2.607   1.117
56624SOL    HW271770   0.038   2.493   1.213
56625SOL     OW71771  14.525  11.294   8.183
56625SOL    HW171772  14.479  11.378   8.180
56625SOL    HW271773  14.518  11.260   8.093
56626SOL     OW71774  12.883  12.110  13.671
56626SOL    HW171775  12.883  12.083  13.580
56626SOL    HW271776  12.791  12.122  13.693
56627SOL     OW71777   4.366  13.226   9.219
56627SOL    HW171778   4.387  13.223   9.126
56627SOL    HW271779   4.445  13.195   9.263
56628SOL     OW71780  10.525  11.686   2.251
56628SOL    HW171781  10.479  11.700   2.168
56628SOL    HW271782  10.565  11.771   2.270
56629SOL     OW71783   4.094   2.612   0.341
56629SOL    HW171784   4.120   2.643   0.254
56629SOL    HW271785   4.159   2.544   0.363
56630SOL     OW71786   6.306  12.469   6.886
56630SOL    HW171787   6.395  12.433   6.888
56630SOL    HW271788   6.307  12.531   6.813
56631SOL     OW71789   4.309   5.321  13.021
56631SOL    HW171790   4.273   5.360  13.101
56631SOL    HW271791   4.366   5.389  12.986
56632SOL     OW71792  13.532   7.777   5.578
56632SOL    HW171793  13.465   7.715   5.550
56632SOL    HW271794  13.533   7.771   5.673
56633SOL     OW71795   2.665   0.247  13.154
56633SOL    HW171796   2.746   0.276  13.113
56633SOL    HW271797   2.623   0.328  13.184
56634SOL     OW71798   2.740   6.928   8.868
56634SOL    HW171799   2.771   7.018   8.859
56634SOL    HW271800   2.645   6.934   8.865
56635SOL     OW71801   3.730  13.303   2.256
56635SOL    HW171802   3.767  13.221   2.225
56635SOL    HW271803   3.636  13.284   2.266
56636SOL     OW71804   9.685   4.818   0.176
56636SOL    HW171805   9.767   4.787   0.139
56636SOL    HW271806   9.622   4.749   0.156
56637SOL     OW71807   6.434   1.970   0.455
56637SOL    HW171808   6.351   2.014   0.474
56637SOL    HW271809   6.410   1.897   0.397
56638SOL     OW71810   5.197  13.382   5.766
56638SOL    HW171811   5.271  13.427   5.808
56638SOL    HW271812   5.234  13.346   5.686
56639SOL     OW71813   0.831  12.484  13.926
56639SOL    HW171814   0.904  12.543  13.911
56639SOL    HW271815   0.753  12.540  13.916
56640SOL     OW71816   0.490   1.817   2.150
56640SOL    HW171817   0.539   1.744   2.112
56640SOL    HW271818   0.491   1.884   2.082
56641SOL     OW71819   3.804   3.655  13.159
56641SOL    HW171820   3.713   3.645  13.130
56641SOL    HW271821   3.850   3.583  13.115
56642SOL     OW71822   8.562   6.945   3.930
56642SOL    HW171823   8.471   6.917   3.938
56642SOL    HW271824   8.556   7.040   3.918
56643SOL     OW71825   3.285   5.709   5.673
56643SOL    HW171826   3.374   5.734   5.649
56643SOL    HW271827   3.265   5.635   5.616
56644SOL     OW71828   4.860   2.096   7.611
56644SOL    HW171829   4.835   2.114   7.520
56644SOL    HW271830   4.893   2.179   7.644
56645SOL     OW71831   7.781  14.688   2.430
56645SOL    HW171832   7.822  14.754   2.486
56645SOL    HW271833   7.687  14.702   2.442
56646SOL     OW71834   5.516  11.158   6.597
56646SOL    HW171835   5.460  11.221   6.552
56646SOL    HW271836   5.528  11.087   6.533
56647SOL     OW71837   4.207  11.921   8.278
56647SOL    HW171838   4.175  11.949   8.193
56647SOL    HW271839   4.273  11.986   8.302
56648SOL     OW71840   3.347   1.920   3.802
56648SOL    HW171841   3.276   1.966   3.846
56648SOL    HW271842   3.394   1.989   3.754
56649SOL     OW71843   8.274  10.647   2.647
56649SOL    HW171844   8.254  10.613   2.733
56649SOL    HW271845   8.198  10.700   2.623
56650SOL     OW71846  11.741   6.471  13.387
56650SOL    HW171847  11.752   6.433  13.300
56650SOL    HW271848  11.816   6.439  13.437
56651SOL     OW71849   0.642  12.390   8.753
56651SOL    HW171850   0.592  12.451   8.807
56651SOL    HW271851   0.575  12.342   8.703
56652SOL     OW71852  14.813   0.484  10.495
56652SOL    HW171853  14.835   0.446  10.409
56652SOL    HW271854   0.020   0.538  10.517
56653SOL     OW71855  11.800   5.430  14.229
56653SOL    HW171856  11.741   5.505  14.232
56653SOL    HW271857  11.873   5.454  14.286
56654SOL     OW71858  13.660  14.432   5.038
56654SOL    HW171859  13.711  14.386   4.972
56654SOL    HW271860  13.618  14.504   4.990
56655SOL     OW71861   7.664  12.097  10.616
56655SOL    HW171862   7.597  12.119  10.680
56655SOL    HW271863   7.636  12.142  10.536
56656SOL     OW71864   1.246  14.850   0.359
56656SOL    HW171865   1.157  14.841   0.325
56656SOL    HW271866   1.248  14.797   0.439
56657SOL     OW71867   6.061   4.893   9.307
56657SOL    HW171868   6.092   4.930   9.390
56657SOL    HW271869   6.029   4.806   9.329
56658SOL     OW71870   7.074   8.122   7.102
56658SOL    HW171871   7.167   8.139   7.115
56658SOL    HW271872   7.034   8.209   7.097
56659SOL     OW71873  13.569  10.844   5.255
56659SOL    HW171874  13.608  10.891   5.329
56659SOL    HW271875  13.597  10.753   5.267
56660SOL     OW71876   4.009   2.532   8.318
56660SOL    HW171877   4.095   2.557   8.352
56660SOL    HW271878   4.029   2.471   8.247
56661SOL     OW71879  12.070   5.752   2.690
56661SOL    HW171880  12.042   5.746   2.599
56661SOL    HW271881  12.022   5.827   2.725
56662SOL     OW71882   7.942   1.501   3.692
56662SOL    HW171883   7.891   1.581   3.710
56662SOL    HW271884   7.914   1.474   3.605
56663SOL     OW71885  10.598   3.135   4.738
56663SOL    HW171886  10.568   3.064   4.682
56663SOL    HW271887  10.691   3.143   4.720
56664SOL     OW71888   9.514  11.444   5.226
56664SOL    HW171889   9.608  11.425   5.225
56664SOL    HW271890   9.482  11.411   5.142
56665SOL     OW71891   6.830  12.782   5.659
56665SOL    HW171892   6.871  12.720   5.598
56665SOL    HW271893   6.741  12.750   5.669
56666SOL     OW71894   7.781  11.738   4.650
56666SOL    HW171895   7.805  11.820   4.691
56666SOL    HW271896   7.691  11.751   4.620
56667SOL     OW71897  14.378   2.607  10.316
56667SOL    HW171898  14.284   2.627  10.312
56667SOL    HW271899  14.383   2.513  10.302
56668SOL     OW71900   0.490  14.748  14.470
56668SOL    HW171901   0.437  14.748  14.549
56668SOL    HW271902   0.526  14.660  14.465
56669SOL     OW71903   2.060   3.900   1.376
56669SOL    HW171904   2.134   3.927   1.431
56669SOL    HW271905   2.060   3.805   1.382
56670SOL     OW71906   0.993   2.843   3.399
56670SOL    HW171907   1.032   2.766   3.441
56670SOL    HW271908   1.062   2.877   3.343
56671SOL     OW71909   1.449  11.731   7.032
56671SOL    HW171910   1.499  11.800   7.076
56671SOL    HW271911   1.487  11.727   6.944
56672SOL     OW71912   2.568  12.692   1.981
56672SOL    HW171913   2.530  12.607   2.005
56672SOL    HW271914   2.604  12.726   2.063
56673SOL     OW71915   3.361   4.255   2.641
56673SOL    HW171916   3.381   4.239   2.549
56673SOL    HW271917   3.267   4.240   2.648
56674SOL     OW71918  14.133   4.223   9.325
56674SOL    HW171919  14.197   4.293   9.315
56674SOL    HW271920  14.060   4.263   9.371
56675SOL     OW71921   3.877   9.605   1.600
56675SOL    HW171922   3.785   9.630   1.613
56675SOL    HW271923   3.907   9.577   1.687
56676SOL     OW71924   8.303   1.021   0.744
56676SOL    HW171925   8.280   0.937   0.783
56676SOL    HW271926   8.389   1.042   0.780
56677SOL     OW71927   0.008  14.774  11.897
56677SOL    HW171928  14.803  14.727  11.937
56677SOL    HW271929   0.030  14.842  11.960
56678SOL     OW71930   5.262  11.009   3.879
56678SOL    HW171931   5.256  11.038   3.970
56678SOL    HW271932   5.180  10.961   3.864
56679SOL     OW71933   0.816  10.197  13.674
56679SOL    HW171934   0.869  10.126  13.639
56679SOL    HW271935   0.726  10.177  13.647
56680SOL     OW71936   1.879   6.897   3.513
56680SOL    HW171937   1.802   6.841   3.526
56680SOL    HW271938   1.949   6.836   3.490
56681SOL     OW71939  12.680   5.272  13.795
56681SOL    HW171940  12.648   5.227  13.873
56681SOL    HW271941  12.750   5.216  13.761
56682SOL     OW71942   3.661   0.099   6.216
56682SOL    HW171943   3.633   0.012   6.243
56682SOL    HW271944   3.641   0.155   6.291
56683SOL     OW71945   4.377  14.413   6.743
56683SOL    HW171946   4.420  14.328   6.731
56683SOL    HW271947   4.376  14.426   6.837
56684SOL     OW71948   5.162  11.593   4.450
56684SOL    HW171949   5.102  11.563   4.382
56684SOL    HW271950   5.165  11.688   4.439
56685SOL     OW71951   6.757   6.896   1.916
56685SOL    HW171952   6.764   6.991   1.923
56685SOL    HW271953   6.763   6.864   2.006
56686SOL     OW71954   3.723  11.369   5.394
56686SOL    HW171955   3.726  11.301   5.327
56686SOL    HW271956   3.814  11.400   5.401
56687SOL     OW71957   9.439   4.055   4.856
56687SOL    HW171958   9.421   4.037   4.764
56687SOL    HW271959   9.444   4.150   4.862
56688SOL     OW71960  13.216  10.208   1.416
56688SOL    HW171961  13.227  10.291   1.463
56688SOL    HW271962  13.129  10.215   1.376
56689SOL     OW71963   2.157   1.936   0.530
56689SOL    HW171964   2.184   1.866   0.590
56689SOL    HW271965   2.171   1.900   0.443
56690SOL     OW71966   4.864   6.108  13.136
56690SOL    HW171967   4.795   6.102  13.070
56690SOL    HW271968   4.822   6.080  13.218
56691SOL     OW71969   2.122   0.367   1.926
56691SOL    HW171970   2.032   0.354   1.956
56691SOL    HW271971   2.147   0.452   1.961
56692SOL     OW71972   6.810  14.774   7.365
56692SOL    HW171973   6.877  14.711   7.339
56692SOL    HW271974   6.740  14.720   7.403
56693SOL     OW71975  12.716  12.122  10.031
56693SOL    HW171976  12.805  12.088  10.039
56693SOL    HW271977  12.661  12.044  10.024
56694SOL     OW71978  10.091   0.237   6.182
56694SOL    HW171979  10.090   0.142   6.186
56694SOL    HW271980  10.109   0.257   6.090
56695SOL     OW71981   8.761  11.331   5.030
56695SOL    HW171982   8.762  11.244   5.069
56695SOL    HW271983   8.707  11.383   5.089
56696SOL     OW71984   8.686   5.825  14.468
56696SOL    HW171985   8.704   5.910  14.509
56696SOL    HW271986   8.590   5.820  14.464
56697SOL     OW71987  12.857   5.698   4.143
56697SOL    HW171988  12.818   5.760   4.204
56697SOL    HW271989  12.940   5.738   4.117
56698SOL     OW71990   9.015  13.709   5.783
56698SOL    HW171991   8.985  13.619   5.787
56698SOL    HW271992   9.078  13.711   5.710
56699SOL     OW71993   1.930  14.028   4.123
56699SOL    HW171994   1.922  14.042   4.029
56699SOL    HW271995   1.924  13.933   4.134
56700SOL     OW71996   8.910   9.953   6.122
56700SOL    HW171997   8.940  10.007   6.048
56700SOL    HW271998   8.926  10.008   6.199
56701SOL     OW71999   3.006   3.649   9.276
56701SOL    HW172000   2.943   3.675   9.344
56701SOL    HW272001   3.087   3.695   9.300
56702SOL     OW72002   8.930   8.744   3.108
56702SOL    HW172003   8.894   8.828   3.136
56702SOL    HW272004   9.023   8.760   3.094
56703SOL     OW72005   8.742   5.515  11.289
56703SOL    HW172006   8.674   5.513  11.357
56703SOL    HW272007   8.712   5.582  11.227
56704SOL     OW72008   5.141  11.815   2.050
56704SOL    HW172009   5.184  11.900   2.061
56704SOL    HW272010   5.214  11.754   2.034
56705SOL     OW72011  11.190   9.276  13.337
56705SOL    HW172012  11.155   9.227  13.411
56705SOL    HW272013  11.285   9.264  13.343
56706SOL     OW72014  14.407  13.743   2.103
56706SOL    HW172015  14.355  13.814   2.140
56706SOL    HW272016  14.466  13.718   2.174
56707SOL     OW72017   6.831   6.125   3.566
56707SOL    HW172018   6.852   6.107   3.474
56707SOL    HW272019   6.881   6.204   3.586
56708SOL     OW72020   4.866   1.193  11.518
56708SOL    HW172021   4.897   1.227  11.602
56708SOL    HW272022   4.939   1.140  11.485
56709SOL     OW72023   8.491   2.566   5.998
56709SOL    HW172024   8.480   2.473   6.016
56709SOL    HW272025   8.476   2.609   6.083
56710SOL     OW72026   3.655   3.130   5.938
56710SOL    HW172027   3.707   3.061   5.897
56710SOL    HW272028   3.674   3.123   6.031
56711SOL     OW72029   9.963  11.530  10.713
56711SOL    HW172030   9.992  11.612  10.753
56711SOL    HW272031  10.025  11.516  10.641
56712SOL     OW72032  12.927   3.051   5.962
56712SOL    HW172033  12.949   2.982   6.024
56712SOL    HW272034  13.012   3.089   5.938
56713SOL     OW72035   0.041   0.247  10.648
56713SOL    HW172036   0.068   0.172  10.595
56713SOL    HW272037  14.837   0.286  10.598
56714SOL     OW72038  13.769  10.381   8.376
56714SOL    HW172039  13.779  10.294   8.337
56714SOL    HW272040  13.801  10.441   8.309
56715SOL     OW72041  12.317   3.376   1.710
56715SOL    HW172042  12.371   3.338   1.780
56715SOL    HW272043  12.308   3.305   1.647
56716SOL     OW72044  12.323  13.516  14.322
56716SOL    HW172045  12.415  13.510  14.348
56716SOL    HW272046  12.306  13.436  14.273
56717SOL     OW72047   0.046   2.974   6.522
56717SOL    HW172048   0.073   2.989   6.431
56717SOL    HW272049  14.819   2.960   6.516
56718SOL     OW72050   9.082  10.869   3.818
56718SOL    HW172051   9.059  10.816   3.742
56718SOL    HW272052   9.011  10.854   3.880
56719SOL     OW72053  10.988   4.904   4.540
56719SOL    HW172054  10.998   4.926   4.448
56719SOL    HW272055  10.917   4.839   4.542
56720SOL     OW72056   8.672   3.199   2.733
56720SOL    HW172057   8.617   3.271   2.763
56720SOL    HW272058   8.730   3.238   2.667
56721SOL     OW72059  11.627  12.398   0.626
56721SOL    HW172060  11.561  12.441   0.571
56721SOL    HW272061  11.576  12.362   0.699
56722SOL     OW72062  11.554   4.068  10.315
56722SOL    HW172063  11.461   4.044  10.310
56722SOL    HW272064  11.569   4.122  10.238
56723SOL     OW72065  10.552   3.929  14.758
56723SOL    HW172066  10.475   3.923  14.815
56723SOL    HW272067  10.534   4.003  14.700
56724SOL     OW72068   2.257   8.783   4.418
56724SOL    HW172069   2.177   8.741   4.450
56724SOL    HW272070   2.328   8.744   4.470
56725SOL     OW72071   6.737   9.680   6.029
56725SOL    HW172072   6.701   9.602   5.987
56725SOL    HW272073   6.686   9.753   5.995
56726SOL     OW72074   0.843   1.626   9.479
56726SOL    HW172075   0.871   1.540   9.510
56726SOL    HW272076   0.867   1.686   9.549
56727SOL     OW72077   0.210   3.696   1.067
56727SOL    HW172078   0.260   3.618   1.089
56727SOL    HW272079   0.258   3.768   1.110
56728SOL     OW72080  12.993  13.689  13.126
56728SOL    HW172081  13.031  13.668  13.211
56728SOL    HW272082  12.913  13.636  13.122
56729SOL     OW72083  13.472  11.638   4.088
56729SOL    HW172084  13.554  11.661   4.130
56729SOL    HW272085  13.431  11.576   4.148
56730SOL     OW72086  11.015  12.578   4.015
56730SOL    HW172087  10.988  12.500   3.966
56730SOL    HW272088  11.111  12.573   4.015
56731SOL     OW72089  12.881   0.282  12.577
56731SOL    HW172090  12.969   0.248  12.590
56731SOL    HW272091  12.894   0.368  12.537
56732SOL     OW72092   1.137   6.211  12.842
56732SOL    HW172093   1.233   6.219  12.843
56732SOL    HW272094   1.119   6.147  12.774
56733SOL     OW72095   1.943   3.970  10.678
56733SOL    HW172096   1.929   4.017  10.760
56733SOL    HW272097   1.978   4.035  10.617
56734SOL     OW72098   8.413   3.168   4.702
56734SOL    HW172099   8.358   3.164   4.780
56734SOL    HW272100   8.495   3.125   4.728
56735SOL     OW72101   7.343   8.447   7.173
56735SOL    HW172102   7.258   8.476   7.207
56735SOL    HW272103   7.333   8.353   7.163
56736SOL     OW72104  13.788   1.071  10.647
56736SOL    HW172105  13.877   1.066  10.681
56736SOL    HW272106  13.796   1.120  10.565
56737SOL     OW72107  11.834   7.867   2.646
56737SOL    HW172108  11.921   7.836   2.619
56737SOL    HW272109  11.776   7.793   2.631
56738SOL     OW72110   5.026   1.883  11.724
56738SOL    HW172111   5.071   1.967  11.719
56738SOL    HW272112   5.095   1.817  11.726
56739SOL     OW72113  13.812   1.302   8.806
56739SOL    HW172114  13.778   1.224   8.763
56739SOL    HW272115  13.846   1.270   8.890
56740SOL     OW72116  14.263   8.256   8.744
56740SOL    HW172117  14.338   8.200   8.726
56740SOL    HW272118  14.301   8.341   8.766
56741SOL     OW72119  11.406  11.944  11.032
56741SOL    HW172120  11.323  11.928  10.986
56741SOL    HW272121  11.393  11.904  11.118
56742SOL     OW72122  11.819   3.711   2.029
56742SOL    HW172123  11.823   3.651   1.955
56742SOL    HW272124  11.727   3.715   2.052
56743SOL     OW72125   3.403   4.587  11.063
56743SOL    HW172126   3.367   4.508  11.103
56743SOL    HW272127   3.400   4.652  11.133
56744SOL     OW72128   5.043  11.076   4.943
56744SOL    HW172129   4.975  11.011   4.927
56744SOL    HW272130   5.123  11.024   4.953
56745SOL     OW72131  11.106   3.893   3.440
56745SOL    HW172132  11.133   3.869   3.528
56745SOL    HW272133  11.166   3.964   3.416
56746SOL     OW72134  12.308   8.346   0.398
56746SOL    HW172135  12.225   8.386   0.424
56746SOL    HW272136  12.368   8.369   0.469
56747SOL     OW72137   7.637   3.289   6.910
56747SOL    HW172138   7.647   3.377   6.948
56747SOL    HW272139   7.590   3.304   6.828
56748SOL     OW72140   7.857   4.433  10.763
56748SOL    HW172141   7.923   4.367  10.785
56748SOL    HW272142   7.820   4.403  10.679
56749SOL     OW72143   9.452   3.635  14.219
56749SOL    HW172144   9.541   3.602  14.229
56749SOL    HW272145   9.463   3.722  14.180
56750SOL     OW72146  13.317   2.446  11.424
56750SOL    HW172147  13.236   2.477  11.463
56750SOL    HW272148  13.294   2.361  11.385
56751SOL     OW72149   8.301   5.081  10.685
56751SOL    HW172150   8.285   5.175  10.687
56751SOL    HW272151   8.218   5.042  10.710
56752SOL     OW72152  11.219  14.700   6.507
56752SOL    HW172153  11.291  14.746   6.464
56752SOL    HW272154  11.258  14.662   6.586
56753SOL     OW72155   5.693   9.244   1.580
56753SOL    HW172156   5.780   9.260   1.544
56753SOL    HW272157   5.691   9.295   1.661
56754SOL     OW72158   9.082  13.396   8.532
56754SOL    HW172159   9.100  13.367   8.443
56754SOL    HW272160   9.157  13.451   8.556
56755SOL     OW72161   4.161   0.101   4.942
56755SOL    HW172162   4.208   0.180   4.970
56755SOL    HW272163   4.171   0.101   4.847
56756SOL     OW72164   9.788   1.288   9.076
56756SOL    HW172165   9.848   1.241   9.133
56756SOL    HW272166   9.839   1.305   8.996
56757SOL     OW72167   9.697   8.779   0.034
56757SOL    HW172168   9.734   8.840  14.838
56757SOL    HW272169   9.748   8.699   0.022
56758SOL     OW72170   7.520   0.190   2.793
56758SOL    HW172171   7.501   0.113   2.738
56758SOL    HW272172   7.524   0.155   2.882
56759SOL     OW72173   8.518  12.802   3.243
56759SOL    HW172174   8.543  12.895   3.240
56759SOL    HW272175   8.479  12.785   3.157
56760SOL     OW72176   0.634   4.529   0.262
56760SOL    HW172177   0.682   4.602   0.222
56760SOL    HW272178   0.687   4.505   0.338
56761SOL     OW72179  10.243   3.030   0.763
56761SOL    HW172180  10.170   3.063   0.711
56761SOL    HW272181  10.201   2.993   0.841
56762SOL     OW72182   2.893   2.655   0.344
56762SOL    HW172183   2.955   2.727   0.340
56762SOL    HW272184   2.824   2.685   0.403
56763SOL     OW72185   1.170  12.425   1.126
56763SOL    HW172186   1.194  12.483   1.055
56763SOL    HW272187   1.101  12.472   1.174
56764SOL     OW72188   2.698   7.475   9.644
56764SOL    HW172189   2.747   7.555   9.623
56764SOL    HW272190   2.626   7.505   9.699
56765SOL     OW72191   0.425  12.890   2.135
56765SOL    HW172192   0.400  12.954   2.068
56765SOL    HW272193   0.501  12.845   2.099
56766SOL     OW72194  10.264  14.081   1.511
56766SOL    HW172195  10.275  13.998   1.558
56766SOL    HW272196  10.349  14.123   1.516
56767SOL     OW72197  13.619   5.824  13.040
56767SOL    HW172198  13.525   5.831  13.024
56767SOL    HW272199  13.657   5.900  12.996
56768SOL     OW72200  13.117  12.183  14.217
56768SOL    HW172201  13.030  12.214  14.241
56768SOL    HW272202  13.106  12.089  14.203
56769SOL     OW72203   5.150  14.381  14.497
56769SOL    HW172204   5.200  14.350  14.421
56769SOL    HW272205   5.159  14.476  14.494
56770SOL     OW72206  13.502   2.596   1.855
56770SOL    HW172207  13.547   2.645   1.786
56770SOL    HW272208  13.537   2.632   1.937
56771SOL     OW72209  13.635   8.456  13.919
56771SOL    HW172210  13.713   8.423  13.964
56771SOL    HW272211  13.669   8.522  13.857
56772SOL     OW72212  12.991  11.803   3.680
56772SOL    HW172213  13.078  11.843   3.679
56772SOL    HW272214  12.951  11.830   3.597
56773SOL     OW72215   7.882   0.763   6.199
56773SOL    HW172216   7.846   0.691   6.252
56773SOL    HW272217   7.901   0.723   6.114
56774SOL     OW72218   1.800  12.554   4.206
56774SOL    HW172219   1.817  12.472   4.252
56774SOL    HW272220   1.857  12.618   4.249
56775SOL     OW72221  12.710  14.318   4.542
56775SOL    HW172222  12.802  14.295   4.536
56775SOL    HW272223  12.708  14.413   4.530
56776SOL     OW72224   8.157  10.516   8.577
56776SOL    HW172225   8.171  10.473   8.662
56776SOL    HW272226   8.090  10.462   8.534
56777SOL     OW72227  10.376   7.433   8.916
56777SOL    HW172228  10.471   7.437   8.903
56777SOL    HW272229  10.352   7.524   8.937
56778SOL     OW72230   0.246   3.541   5.893
56778SOL    HW172231   0.285   3.627   5.910
56778SOL    HW272232   0.152   3.558   5.888
56779SOL     OW72233   8.136  14.586   2.987
56779SOL    HW172234   8.049  14.592   3.026
56779SOL    HW272235   8.195  14.625   3.051
56780SOL     OW72236   9.564  12.854  14.568
56780SOL    HW172237   9.494  12.799  14.534
56780SOL    HW272238   9.613  12.881  14.491
56781SOL     OW72239   4.058   0.070   3.611
56781SOL    HW172240   3.968   0.050   3.586
56781SOL    HW272241   4.053   0.159   3.648
56782SOL     OW72242   5.837   6.270  11.133
56782SOL    HW172243   5.859   6.363  11.142
56782SOL    HW272244   5.842   6.254  11.038
56783SOL     OW72245   5.283  10.133   5.210
56783SOL    HW172246   5.263  10.133   5.116
56783SOL    HW272247   5.200  10.114   5.253
56784SOL     OW72248   8.689  12.894  12.942
56784SOL    HW172249   8.713  12.930  13.027
56784SOL    HW272250   8.594  12.884  12.947
56785SOL     OW72251   3.393   3.263  11.664
56785SOL    HW172252   3.357   3.282  11.577
56785SOL    HW272253   3.348   3.325  11.722
56786SOL     OW72254   4.062  13.414   9.346
56786SOL    HW172255   4.099  13.360   9.275
56786SOL    HW272256   3.969  13.420   9.325
56787SOL     OW72257   2.639   9.881  14.807
56787SOL    HW172258   2.604   9.918   0.020
56787SOL    HW272259   2.734   9.879  14.821
56788SOL     OW72260   4.588   8.507   0.151
56788SOL    HW172261   4.503   8.546   0.130
56788SOL    HW272262   4.570   8.448   0.223
56789SOL     OW72263   1.964   8.100   0.478
56789SOL    HW172264   2.024   8.076   0.408
56789SOL    HW272265   1.996   8.051   0.554
56790SOL     OW72266  11.958  10.793   1.345
56790SOL    HW172267  11.953  10.720   1.407
56790SOL    HW272268  11.910  10.762   1.268
56791SOL     OW72269   3.922   1.690   5.505
56791SOL    HW172270   3.940   1.688   5.599
56791SOL    HW272271   3.842   1.638   5.495
56792SOL     OW72272  11.346   2.017  11.362
56792SOL    HW172273  11.297   2.038  11.282
56792SOL    HW272274  11.438   2.020  11.336
56793SOL     OW72275   3.941   4.901   9.339
56793SOL    HW172276   3.971   4.821   9.296
56793SOL    HW272277   4.022   4.949   9.359
56794SOL     OW72278   8.545   5.132   9.924
56794SOL    HW172279   8.475   5.098   9.868
56794SOL    HW272280   8.509   5.126  10.013
56795SOL     OW72281   9.635  12.533   2.695
56795SOL    HW172282   9.558  12.493   2.736
56795SOL    HW272283   9.709  12.497   2.743
56796SOL     OW72284   1.124   5.151   8.653
56796SOL    HW172285   1.148   5.205   8.578
56796SOL    HW272286   1.123   5.212   8.727
56797SOL     OW72287  12.613   3.882   1.957
56797SOL    HW172288  12.591   3.967   1.995
56797SOL    HW272289  12.560   3.819   2.007
56798SOL     OW72290  12.882   5.266   7.450
56798SOL    HW172291  12.969   5.245   7.481
56798SOL    HW272292  12.845   5.183   7.421
56799SOL     OW72293  12.103   7.466   4.320
56799SOL    HW172294  12.041   7.476   4.247
56799SOL    HW272295  12.188   7.491   4.283
56800SOL     OW72296  13.974   8.578  13.708
56800SOL    HW172297  13.885   8.565  13.678
56800SOL    HW272298  13.995   8.669  13.686
56801SOL     OW72299   0.626   9.479   3.351
56801SOL    HW172300   0.535   9.484   3.323
56801SOL    HW272301   0.676   9.472   3.270
56802SOL     OW72302  13.329  13.624  11.615
56802SOL    HW172303  13.313  13.700  11.672
56802SOL    HW272304  13.293  13.650  11.530
56803SOL     OW72305   4.322   3.972  11.999
56803SOL    HW172306   4.410   3.941  12.023
56803SOL    HW272307   4.338   4.053  11.952
56804SOL     OW72308   8.399   8.135   2.304
56804SOL    HW172309   8.471   8.077   2.327
56804SOL    HW272310   8.352   8.149   2.386
56805SOL     OW72311   7.734  12.704   7.415
56805SOL    HW172312   7.772  12.727   7.330
56805SOL    HW272313   7.642  12.731   7.408
56806SOL     OW72314   4.484   1.225   5.864
56806SOL    HW172315   4.508   1.174   5.787
56806SOL    HW272316   4.394   1.200   5.883
56807SOL     OW72317   5.903   6.216  10.528
56807SOL    HW172318   5.847   6.141  10.507
56807SOL    HW272319   5.992   6.184  10.513
56808SOL     OW72320  13.631   6.517  14.235
56808SOL    HW172321  13.661   6.445  14.291
56808SOL    HW272322  13.646   6.486  14.146
56809SOL     OW72323   0.578  14.224   8.046
56809SOL    HW172324   0.555  14.164   7.974
56809SOL    HW272325   0.528  14.303   8.028
56810SOL     OW72326   2.203   9.870  12.408
56810SOL    HW172327   2.153   9.845  12.487
56810SOL    HW272328   2.160   9.823  12.337
56811SOL     OW72329  11.507   0.566   3.391
56811SOL    HW172330  11.451   0.490   3.405
56811SOL    HW272331  11.533   0.561   3.299
56812SOL     OW72332   2.086  10.963  12.276
56812SOL    HW172333   2.114  11.039  12.225
56812SOL    HW272334   1.998  10.986  12.307
56813SOL     OW72335   4.863   6.807   7.434
56813SOL    HW172336   4.806   6.856   7.494
56813SOL    HW272337   4.918   6.874   7.394
56814SOL     OW72338   1.318   8.139   7.915
56814SOL    HW172339   1.258   8.177   7.850
56814SOL    HW272340   1.261   8.091   7.975
56815SOL     OW72341  13.343  10.474   2.904
56815SOL    HW172342  13.411  10.536   2.879
56815SOL    HW272343  13.289  10.465   2.826
56816SOL     OW72344   9.008   7.587  10.133
56816SOL    HW172345   8.978   7.505  10.094
56816SOL    HW272346   9.091   7.606  10.088
56817SOL     OW72347   1.379   3.210   8.795
56817SOL    HW172348   1.346   3.299   8.791
56817SOL    HW272349   1.446   3.212   8.864
56818SOL     OW72350   5.167   7.897   0.199
56818SOL    HW172351   5.202   7.949   0.127
56818SOL    HW272352   5.212   7.813   0.192
56819SOL     OW72353   3.361  10.947  13.494
56819SOL    HW172354   3.408  10.998  13.560
56819SOL    HW272355   3.413  10.957  13.415
56820SOL     OW72356   7.041  10.841   9.905
56820SOL    HW172357   7.117  10.859   9.851
56820SOL    HW272358   7.073  10.782   9.973
56821SOL     OW72359   6.108  14.222  11.777
56821SOL    HW172360   6.144  14.223  11.866
56821SOL    HW272361   6.182  14.244  11.720
56822SOL     OW72362   8.502   8.559   2.557
56822SOL    HW172363   8.435   8.617   2.593
56822SOL    HW272364   8.496   8.479   2.609
56823SOL     OW72365  12.271  12.739   0.827
56823SOL    HW172366  12.314  12.689   0.758
56823SOL    HW272367  12.298  12.829   0.812
56824SOL     OW72368   1.121   6.494   4.700
56824SOL    HW172369   1.207   6.526   4.671
56824SOL    HW272370   1.127   6.492   4.795
56825SOL     OW72371   9.132   9.765  12.071
56825SOL    HW172372   9.103   9.838  12.017
56825SOL    HW272373   9.051   9.725  12.103
56826SOL     OW72374   1.643   1.421   6.329
56826SOL    HW172375   1.711   1.407   6.263
56826SOL    HW272376   1.615   1.333   6.354
56827SOL     OW72377   1.675   9.874   0.887
56827SOL    HW172378   1.754   9.835   0.925
56827SOL    HW272379   1.697   9.967   0.876
56828SOL     OW72380   8.892  13.123   9.296
56828SOL    HW172381   8.938  13.206   9.312
56828SOL    HW272382   8.817  13.127   9.355
56829SOL     OW72383   5.494   0.454   3.112
56829SOL    HW172384   5.408   0.414   3.122
56829SOL    HW272385   5.555   0.380   3.120
56830SOL     OW72386   7.415  10.239   1.044
56830SOL    HW172387   7.407  10.164   0.985
56830SOL    HW272388   7.328  10.249   1.082
56831SOL     OW72389  10.778  11.828  13.788
56831SOL    HW172390  10.719  11.777  13.844
56831SOL    HW272391  10.786  11.776  13.708
56832SOL     OW72392   3.241   4.922   0.499
56832SOL    HW172393   3.183   4.973   0.443
56832SOL    HW272394   3.208   4.832   0.493
56833SOL     OW72395  12.964  12.178   8.927
56833SOL    HW172396  12.889  12.166   8.986
56833SOL    HW272397  12.938  12.133   8.846
56834SOL     OW72398  12.152   4.613  14.039
56834SOL    HW172399  12.084   4.561  13.996
56834SOL    HW272400  12.219   4.626  13.973
56835SOL     OW72401   0.294  13.372  13.019
56835SOL    HW172402   0.259  13.408  12.938
56835SOL    HW272403   0.289  13.444  13.082
56836SOL     OW72404   5.957   0.014   6.811
56836SOL    HW172405   6.024  14.815   6.797
56836SOL    HW272406   5.962   0.035   6.904
56837SOL     OW72407   4.384   3.153  14.077
56837SOL    HW172408   4.418   3.176  13.990
56837SOL    HW272409   4.296   3.119  14.060
56838SOL     OW72410   3.519   1.585  11.192
56838SOL    HW172411   3.593   1.564  11.249
56838SOL    HW272412   3.515   1.681  11.192
56839SOL     OW72413   9.275  10.263   4.953
56839SOL    HW172414   9.261  10.180   4.906
56839SOL    HW272415   9.294  10.237   5.043
56840SOL     OW72416   3.618   3.492   7.673
56840SOL    HW172417   3.538   3.464   7.716
56840SOL    HW272418   3.632   3.581   7.705
56841SOL     OW72419   9.247   1.906   0.305
56841SOL    HW172420   9.175   1.916   0.367
56841SOL    HW272421   9.234   1.819   0.266
56842SOL     OW72422   4.816  12.678  12.543
56842SOL    HW172423   4.898  12.728  12.543
56842SOL    HW272424   4.794  12.667  12.635
56843SOL     OW72425   1.202   9.850   4.211
56843SOL    HW172426   1.162   9.912   4.271
56843SOL    HW272427   1.256   9.904   4.153
56844SOL     OW72428   3.685  11.073   2.713
56844SOL    HW172429   3.631  11.140   2.672
56844SOL    HW272430   3.682  11.093   2.807
56845SOL     OW72431   7.537  11.100   4.672
56845SOL    HW172432   7.620  11.117   4.717
56845SOL    HW272433   7.549  11.015   4.629
56846SOL     OW72434  12.822   1.387   0.268
56846SOL    HW172435  12.780   1.473   0.268
56846SOL    HW272436  12.872   1.385   0.349
56847SOL     OW72437   6.593   9.928   9.648
56847SOL    HW172438   6.637   9.982   9.714
56847SOL    HW272439   6.538   9.990   9.600
56848SOL     OW72440   1.580   6.678   6.990
56848SOL    HW172441   1.666   6.664   6.952
56848SOL    HW272442   1.519   6.657   6.920
56849SOL     OW72443   2.440   5.931  11.703
56849SOL    HW172444   2.460   5.866  11.770
56849SOL    HW272445   2.344   5.932  11.699
56850SOL     OW72446   9.878  14.596   4.832
56850SOL    HW172447   9.881  14.565   4.741
56850SOL    HW272448   9.833  14.526   4.879
56851SOL     OW72449  10.418  14.692  10.468
56851SOL    HW172450  10.447  14.736  10.388
56851SOL    HW272451  10.392  14.605  10.439
56852SOL     OW72452  12.808   3.484   0.868
56852SOL    HW172453  12.808   3.442   0.954
56852SOL    HW272454  12.719   3.519   0.858
56853SOL     OW72455   4.768   2.025  12.270
56853SOL    HW172456   4.767   1.952  12.208
56853SOL    HW272457   4.696   2.081  12.242
56854SOL     OW72458   8.030  13.926   8.782
56854SOL    HW172459   8.112  13.975   8.789
56854SOL    HW272460   8.054  13.835   8.795
56855SOL     OW72461  12.387  12.232   3.131
56855SOL    HW172462  12.474  12.244   3.169
56855SOL    HW272463  12.327  12.268   3.197
56856SOL     OW72464  14.433   9.806  13.203
56856SOL    HW172465  14.467   9.788  13.115
56856SOL    HW272466  14.480   9.745  13.259
56857SOL     OW72467   4.912  10.518  14.028
56857SOL    HW172468   4.966  10.475  13.962
56857SOL    HW272469   4.889  10.448  14.089
56858SOL     OW72470   8.586  12.053  10.186
56858SOL    HW172471   8.529  12.049  10.263
56858SOL    HW272472   8.662  12.000  10.208
56859SOL     OW72473   8.265  14.421  12.320
56859SOL    HW172474   8.254  14.501  12.372
56859SOL    HW272475   8.339  14.376  12.361
56860SOL     OW72476  11.382  11.416   3.713
56860SOL    HW172477  11.296  11.443   3.682
56860SOL    HW272478  11.444  11.469   3.662
56861SOL     OW72479   1.964   5.517   0.076
56861SOL    HW172480   1.900   5.552   0.014
56861SOL    HW272481   2.019   5.460   0.023
56862SOL     OW72482  13.110  10.006   8.519
56862SOL    HW172483  13.049  10.024   8.591
56862SOL    HW272484  13.056  10.013   8.440
56863SOL     OW72485  11.402   0.194   1.456
56863SOL    HW172486  11.382   0.253   1.529
56863SOL    HW272487  11.417   0.109   1.498
56864SOL     OW72488  10.474   6.682   2.306
56864SOL    HW172489  10.406   6.632   2.261
56864SOL    HW272490  10.486   6.636   2.389
56865SOL     OW72491   8.624   7.247   8.528
56865SOL    HW172492   8.555   7.255   8.592
56865SOL    HW272493   8.682   7.321   8.545
56866SOL     OW72494   8.641   3.816   8.804
56866SOL    HW172495   8.565   3.871   8.788
56866SOL    HW272496   8.613   3.754   8.871
56867SOL     OW72497  13.463   8.566   9.850
56867SOL    HW172498  13.478   8.513   9.928
56867SOL    HW272499  13.415   8.643   9.883
56868SOL     OW72500  10.279   8.935   8.692
56868SOL    HW172501  10.205   8.910   8.637
56868SOL    HW272502  10.301   8.855   8.740
56869SOL     OW72503   7.546   7.996   2.802
56869SOL    HW172504   7.568   7.906   2.828
56869SOL    HW272505   7.623   8.047   2.827
56870SOL     OW72506   7.632   9.774   6.151
56870SOL    HW172507   7.562   9.774   6.086
56870SOL    HW272508   7.692   9.706   6.122
56871SOL     OW72509   7.408  12.938   7.247
56871SOL    HW172510   7.463  12.961   7.173
56871SOL    HW272511   7.370  12.854   7.223
56872SOL     OW72512   4.872  14.569   0.745
56872SOL    HW172513   4.902  14.634   0.681
56872SOL    HW272514   4.870  14.617   0.828
56873SOL     OW72515  10.026  14.455   5.577
56873SOL    HW172516   9.939  14.434   5.612
56873SOL    HW272517  10.013  14.458   5.482
56874SOL     OW72518   0.969  10.225   9.123
56874SOL    HW172519   0.899  10.160   9.118
56874SOL    HW272520   0.927  10.307   9.095
56875SOL     OW72521   2.036   3.250   4.795
56875SOL    HW172522   2.118   3.202   4.811
56875SOL    HW272523   1.975   3.183   4.764
56876SOL     OW72524  10.452   7.005  10.210
56876SOL    HW172525  10.510   6.933  10.235
56876SOL    HW272526  10.482   7.079  10.262
56877SOL     OW72527  10.623   4.924  14.677
56877SOL    HW172528  10.551   4.874  14.716
56877SOL    HW272529  10.624   4.895  14.586
56878SOL     OW72530  12.401   9.637  11.674
56878SOL    HW172531  12.380   9.706  11.737
56878SOL    HW272532  12.395   9.680  11.589
56879SOL     OW72533   6.021  11.341  12.476
56879SOL    HW172534   6.095  11.402  12.475
56879SOL    HW272535   5.993  11.336  12.385
56880SOL     OW72536  13.588  12.341   0.111
56880SOL    HW172537  13.590  12.282   0.186
56880SOL    HW272538  13.613  12.426   0.146
56881SOL     OW72539   0.513  14.501  13.711
56881SOL    HW172540   0.438  14.474  13.658
56881SOL    HW272541   0.514  14.439  13.784
56882SOL     OW72542  12.646   6.054   7.315
56882SOL    HW172543  12.604   6.084   7.235
56882SOL    HW272544  12.657   5.960   7.303
56883SOL     OW72545  10.339  13.142  11.338
56883SOL    HW172546  10.310  13.230  11.362
56883SOL    HW272547  10.434  13.149  11.332
56884SOL     OW72548  12.746   0.994   2.101
56884SOL    HW172549  12.705   1.079   2.088
56884SOL    HW272550  12.673   0.932   2.108
56885SOL     OW72551   3.117   5.570   0.785
56885SOL    HW172552   3.054   5.628   0.743
56885SOL    HW272553   3.064   5.511   0.839
56886SOL     OW72554   8.321   7.758   3.421
56886SOL    HW172555   8.267   7.778   3.498
56886SOL    HW272556   8.259   7.732   3.354
56887SOL     OW72557  12.886   3.269  12.607
56887SOL    HW172558  12.856   3.320  12.682
56887SOL    HW272559  12.861   3.321  12.531
56888SOL     OW72560   5.986  14.036  10.756
56888SOL    HW172561   5.975  14.131  10.761
56888SOL    HW272562   5.907  14.004  10.713
56889SOL     OW72563   5.962  13.204  14.863
56889SOL    HW172564   6.010  13.138  14.813
56889SOL    HW272565   6.028  13.267   0.022
56890SOL     OW72566  10.254   5.820   3.097
56890SOL    HW172567  10.346   5.840   3.112
56890SOL    HW272568  10.207   5.875   3.159
56891SOL     OW72569  11.705  10.513   6.146
56891SOL    HW172570  11.698  10.586   6.084
56891SOL    HW272571  11.623  10.516   6.195
56892SOL     OW72572   4.042   4.566  10.040
56892SOL    HW172573   4.076   4.651  10.013
56892SOL    HW272574   3.965   4.587  10.094
56893SOL     OW72575   1.322  11.811  10.202
56893SOL    HW172576   1.233  11.779  10.215
56893SOL    HW272577   1.375  11.732  10.193
56894SOL     OW72578  11.934  14.615   2.261
56894SOL    HW172579  11.842  14.637   2.248
56894SOL    HW272580  11.979  14.651   2.185
56895SOL     OW72581   3.871   0.001   9.754
56895SOL    HW172582   3.835  14.841   9.670
56895SOL    HW272583   3.966  14.859   9.744
56896SOL     OW72584  10.676  13.406  10.561
56896SOL    HW172585  10.741  13.341  10.535
56896SOL    HW272586  10.637  13.371  10.641
56897SOL     OW72587   8.963   1.924   8.971
56897SOL    HW172588   8.965   1.899   8.878
56897SOL    HW272589   8.969   2.019   8.970
56898SOL     OW72590  10.749   5.142   2.519
56898SOL    HW172591  10.745   5.217   2.579
56898SOL    HW272592  10.828   5.158   2.467
56899SOL     OW72593   1.343   4.621   2.731
56899SOL    HW172594   1.311   4.547   2.782
56899SOL    HW272595   1.386   4.677   2.795
56900SOL     OW72596   1.891  11.980   5.919
56900SOL    HW172597   1.886  12.033   5.840
56900SOL    HW272598   1.820  12.013   5.974
56901SOL     OW72599   7.565  11.974   3.131
56901SOL    HW172600   7.605  12.047   3.179
56901SOL    HW272601   7.542  12.012   3.046
56902SOL     OW72602   8.159   4.032   3.187
56902SOL    HW172603   8.167   4.058   3.279
56902SOL    HW272604   8.247   4.044   3.150
56903SOL     OW72605   6.078   9.749   6.656
56903SOL    HW172606   6.008   9.710   6.604
56903SOL    HW272607   6.157   9.739   6.602
56904SOL     OW72608  13.420  12.234   6.837
56904SOL    HW172609  13.492  12.210   6.779
56904SOL    HW272610  13.341  12.218   6.785
56905SOL     OW72611   8.671   3.508   1.135
56905SOL    HW172612   8.670   3.566   1.211
56905SOL    HW272613   8.615   3.552   1.071
56906SOL     OW72614   9.518   1.274   7.740
56906SOL    HW172615   9.452   1.328   7.784
56906SOL    HW272616   9.493   1.184   7.761
56907SOL     OW72617   5.232   3.384   4.739
56907SOL    HW172618   5.192   3.470   4.727
56907SOL    HW272619   5.306   3.400   4.797
56908SOL     OW72620   7.987  11.222   7.097
56908SOL    HW172621   7.966  11.313   7.117
56908SOL    HW272622   7.985  11.178   7.182
56909SOL     OW72623   4.680   6.893  14.112
56909SOL    HW172624   4.678   6.852  14.025
56909SOL    HW272625   4.772   6.916  14.125
56910SOL     OW72626  14.419  14.397  13.099
56910SOL    HW172627  14.327  14.412  13.121
56910SOL    HW272628  14.447  14.478  13.056
56911SOL     OW72629   3.884   9.497   0.229
56911SOL    HW172630   3.880   9.571   0.290
56911SOL    HW272631   3.972   9.461   0.241
56912SOL     OW72632   4.012   6.595  11.690
56912SOL    HW172633   3.928   6.640  11.700
56912SOL    HW272634   4.074   6.647  11.741
56913SOL     OW72635   1.614  14.333   1.666
56913SOL    HW172636   1.606  14.247   1.625
56913SOL    HW272637   1.540  14.383   1.631
56914SOL     OW72638   5.676   5.608  11.753
56914SOL    HW172639   5.684   5.678  11.689
56914SOL    HW272640   5.763   5.570  11.759
56915SOL     OW72641   9.624   5.393  13.685
56915SOL    HW172642   9.566   5.317  13.688
56915SOL    HW272643   9.579   5.459  13.738
56916SOL     OW72644  14.558   6.110   0.719
56916SOL    HW172645  14.533   6.047   0.787
56916SOL    HW272646  14.520   6.074   0.639
56917SOL     OW72647   6.579   6.834   1.695
56917SOL    HW172648   6.631   6.847   1.774
56917SOL    HW272649   6.492   6.869   1.717
56918SOL     OW72650   5.277   4.156   3.429
56918SOL    HW172651   5.306   4.123   3.514
56918SOL    HW272652   5.205   4.215   3.448
56919SOL     OW72653   0.674   8.825   6.043
56919SOL    HW172654   0.631   8.838   5.959
56919SOL    HW272655   0.627   8.883   6.103
56920SOL     OW72656  10.319   4.844  13.106
56920SOL    HW172657  10.392   4.880  13.054
56920SOL    HW272658  10.356   4.766  13.148
56921SOL     OW72659   1.417   8.248   9.918
56921SOL    HW172660   1.369   8.320   9.878
56921SOL    HW272661   1.504   8.283   9.935
56922SOL     OW72662  13.372  10.486  13.948
56922SOL    HW172663  13.395  10.503  13.857
56922SOL    HW272664  13.342  10.395  13.949
56923SOL     OW72665   4.064   1.352  12.708
56923SOL    HW172666   4.099   1.361  12.619
56923SOL    HW272667   4.096   1.267  12.738
56924SOL     OW72668   8.562  12.105   9.832
56924SOL    HW172669   8.538  12.104   9.739
56924SOL    HW272670   8.479  12.094   9.878
56925SOL     OW72671   8.002   5.194   9.885
56925SOL    HW172672   7.948   5.115   9.885
56925SOL    HW272673   7.944   5.263   9.855
56926SOL     OW72674  13.011   0.844  12.666
56926SOL    HW172675  13.106   0.830  12.672
56926SOL    HW272676  12.983   0.787  12.595
56927SOL     OW72677   0.138   8.065   4.866
56927SOL    HW172678   0.070   8.128   4.890
56927SOL    HW272679   0.093   7.980   4.868
56928SOL     OW72680  10.456  12.092  11.607
56928SOL    HW172681  10.429  12.094  11.699
56928SOL    HW272682  10.375  12.073  11.559
56929SOL     OW72683   1.545  14.562   7.242
56929SOL    HW172684   1.627  14.601   7.273
56929SOL    HW272685   1.479  14.630   7.256
56930SOL     OW72686  12.347   1.549  10.761
56930SOL    HW172687  12.431   1.582  10.728
56930SOL    HW272688  12.284   1.617  10.738
56931SOL     OW72689  14.863   9.239  11.830
56931SOL    HW172690  14.829   9.312  11.882
56931SOL    HW272691  14.852   9.267  11.739
56932SOL     OW72692  13.524   7.419  14.413
56932SOL    HW172693  13.478   7.390  14.334
56932SOL    HW272694  13.538   7.513  14.400
56933SOL     OW72695   7.736  11.733  13.266
56933SOL    HW172696   7.693  11.732  13.181
56933SOL    HW272697   7.829  11.718  13.245
56934SOL     OW72698   7.286   4.041  13.192
56934SOL    HW172699   7.334   4.120  13.213
56934SOL    HW272700   7.266   4.001  13.277
56935SOL     OW72701  11.930   0.394   3.837
56935SOL    HW172702  11.854   0.448   3.860
56935SOL    HW272703  11.900   0.340   3.764
56936SOL     OW72704  10.122   0.698   4.401
56936SOL    HW172705  10.033   0.712   4.433
56936SOL    HW272706  10.122   0.736   4.313
56937SOL     OW72707  14.717   9.153   2.070
56937SOL    HW172708  14.695   9.165   2.162
56937SOL    HW272709  14.756   9.236   2.043
56938SOL     OW72710   9.506   9.942   5.202
56938SOL    HW172711   9.576   9.879   5.183
56938SOL    HW272712   9.478   9.920   5.291
56939SOL     OW72713   2.024   4.238   3.346
56939SOL    HW172714   2.015   4.236   3.441
56939SOL    HW272715   1.936   4.258   3.314
56940SOL     OW72716   8.316   3.625  12.266
56940SOL    HW172717   8.224   3.631  12.291
56940SOL    HW272718   8.322   3.678  12.186
56941SOL     OW72719  10.431  12.862  14.153
56941SOL    HW172720  10.401  12.947  14.183
56941SOL    HW272721  10.422  12.865  14.057
56942SOL     OW72722   2.342   1.848   9.203
56942SOL    HW172723   2.357   1.773   9.261
56942SOL    HW272724   2.429   1.872   9.172
56943SOL     OW72725   7.528  13.343   8.242
56943SOL    HW172726   7.559  13.427   8.208
56943SOL    HW272727   7.457  13.318   8.183
56944SOL     OW72728   7.907   9.529  10.271
56944SOL    HW172729   7.879   9.438  10.275
56944SOL    HW272730   7.930   9.551  10.362
56945SOL     OW72731  13.583   7.189   8.605
56945SOL    HW172732  13.624   7.190   8.519
56945SOL    HW272733  13.656   7.195   8.667
56946SOL     OW72734   2.948   5.719  14.239
56946SOL    HW172735   2.966   5.791  14.299
56946SOL    HW272736   2.879   5.753  14.181
56947SOL     OW72737   7.331  14.143  13.567
56947SOL    HW172738   7.415  14.145  13.521
56947SOL    HW272739   7.297  14.056  13.550
56948SOL     OW72740  10.936   2.250   8.196
56948SOL    HW172741  10.994   2.309   8.147
56948SOL    HW272742  10.861   2.303   8.219
56949SOL     OW72743   2.433   9.312  13.833
56949SOL    HW172744   2.424   9.274  13.745
56949SOL    HW272745   2.424   9.406  13.820
56950SOL     OW72746   2.076   7.951  10.505
56950SOL    HW172747   2.159   7.982  10.539
56950SOL    HW272748   2.042   7.892  10.572
56951SOL     OW72749   3.940   6.234   6.800
56951SOL    HW172750   3.877   6.213   6.731
56951SOL    HW272751   3.952   6.329   6.793
56952SOL     OW72752   8.809   6.981   5.983
56952SOL    HW172753   8.731   6.985   5.927
56952SOL    HW272754   8.847   7.068   5.977
56953SOL     OW72755   4.921   3.950   8.925
56953SOL    HW172756   4.972   4.016   8.972
56953SOL    HW272757   4.973   3.929   8.848
56954SOL     OW72758   3.086   3.582   6.133
56954SOL    HW172759   3.039   3.528   6.069
56954SOL    HW272760   3.147   3.634   6.080
56955SOL     OW72761   2.352   9.117  12.093
56955SOL    HW172762   2.324   9.102  12.184
56955SOL    HW272763   2.359   9.030  12.056
56956SOL     OW72764  11.373  12.981  13.836
56956SOL    HW172765  11.435  12.950  13.770
56956SOL    HW272766  11.316  13.042  13.789
56957SOL     OW72767  13.329   8.759  14.500
56957SOL    HW172768  13.288   8.724  14.421
56957SOL    HW272769  13.423   8.754  14.483
56958SOL     OW72770  13.710   9.946   5.836
56958SOL    HW172771  13.800   9.958   5.807
56958SOL    HW272772  13.667   9.897   5.766
56959SOL     OW72773   6.171   5.447   7.747
56959SOL    HW172774   6.166   5.494   7.830
56959SOL    HW272775   6.109   5.492   7.690
56960SOL     OW72776   3.893   9.662  13.868
56960SOL    HW172777   3.821   9.600  13.875
56960SOL    HW272778   3.961   9.613  13.820
56961SOL     OW72779  14.029  11.726   0.210
56961SOL    HW172780  14.070  11.781   0.277
56961SOL    HW272781  13.945  11.701   0.249
56962SOL     OW72782  10.357  11.492  10.345
56962SOL    HW172783  10.366  11.452  10.432
56962SOL    HW272784  10.446  11.493  10.311
56963SOL     OW72785   6.788   1.662   9.931
56963SOL    HW172786   6.866   1.614   9.960
56963SOL    HW272787   6.792   1.744   9.980
56964SOL     OW72788  10.323   4.769  11.072
56964SOL    HW172789  10.404   4.819  11.087
56964SOL    HW272790  10.352   4.683  11.042
56965SOL     OW72791   6.130  12.533   5.514
56965SOL    HW172792   6.044  12.569   5.535
56965SOL    HW272793   6.142  12.551   5.421
56966SOL     OW72794   1.578   4.035   3.080
56966SOL    HW172795   1.548   3.985   3.004
56966SOL    HW272796   1.648   3.981   3.117
56967SOL     OW72797  13.134   8.569   7.008
56967SOL    HW172798  13.214   8.517   7.004
56967SOL    HW272799  13.112   8.571   7.101
56968SOL     OW72800   3.108   0.579   8.890
56968SOL    HW172801   3.202   0.572   8.874
56968SOL    HW272802   3.068   0.537   8.814
56969SOL     OW72803   9.963   2.891  10.352
56969SOL    HW172804   9.983   2.943  10.274
56969SOL    HW272805   9.981   2.950  10.425
56970SOL     OW72806   1.959   0.372  10.606
56970SOL    HW172807   2.014   0.370  10.684
56970SOL    HW272808   1.881   0.421  10.632
56971SOL     OW72809  14.325   7.277  14.694
56971SOL    HW172810  14.356   7.327  14.619
56971SOL    HW272811  14.389   7.207  14.705
56972SOL     OW72812   3.390   1.337   0.346
56972SOL    HW172813   3.408   1.378   0.431
56972SOL    HW272814   3.380   1.244   0.366
56973SOL     OW72815   2.156   3.117   8.366
56973SOL    HW172816   2.112   3.033   8.379
56973SOL    HW272817   2.152   3.132   8.272
56974SOL     OW72818   6.953   4.510  11.079
56974SOL    HW172819   6.873   4.487  11.126
56974SOL    HW272820   6.994   4.578  11.134
56975SOL     OW72821   9.748   3.212   3.084
56975SOL    HW172822   9.754   3.145   3.017
56975SOL    HW272823   9.792   3.288   3.047
56976SOL     OW72824   3.679  11.902   7.657
56976SOL    HW172825   3.606  11.867   7.605
56976SOL    HW272826   3.688  11.840   7.729
56977SOL     OW72827   4.454  12.124  12.986
56977SOL    HW172828   4.527  12.063  12.996
56977SOL    HW272829   4.380  12.068  12.961
56978SOL     OW72830   6.022  12.442   9.389
56978SOL    HW172831   6.006  12.506   9.459
56978SOL    HW272832   6.013  12.357   9.432
56979SOL     OW72833   6.304  14.270  10.162
56979SOL    HW172834   6.219  14.230  10.146
56979SOL    HW272835   6.285  14.351  10.208
56980SOL     OW72836   4.626   1.009  14.544
56980SOL    HW172837   4.678   1.058  14.607
56980SOL    HW272838   4.574   0.949  14.597
56981SOL     OW72839   4.432   8.576   6.617
56981SOL    HW172840   4.342   8.603   6.635
56981SOL    HW272841   4.423   8.489   6.576
56982SOL     OW72842   7.625   3.706  11.609
56982SOL    HW172843   7.702   3.750  11.572
56982SOL    HW272844   7.576   3.776  11.652
56983SOL     OW72845   6.343   3.983   8.570
56983SOL    HW172846   6.342   4.067   8.616
56983SOL    HW272847   6.434   3.971   8.544
56984SOL     OW72848  13.759   5.303   6.063
56984SOL    HW172849  13.838   5.357   6.073
56984SOL    HW272850  13.687   5.362   6.084
56985SOL     OW72851  11.625  11.620   9.426
56985SOL    HW172852  11.666  11.699   9.462
56985SOL    HW272853  11.693  11.553   9.432
56986SOL     OW72854   2.496   3.804  14.675
56986SOL    HW172855   2.587   3.798  14.646
56986SOL    HW272856   2.480   3.898  14.684
56987SOL     OW72857   9.316   8.356  14.251
56987SOL    HW172858   9.320   8.405  14.333
56987SOL    HW272859   9.408   8.341  14.228
56988SOL     OW72860   3.098   3.082  13.057
56988SOL    HW172861   3.063   3.039  12.979
56988SOL    HW272862   3.031   3.144  13.084
56989SOL     OW72863   5.954   6.170   5.348
56989SOL    HW172864   5.924   6.261   5.346
56989SOL    HW272865   5.938   6.141   5.438
56990SOL     OW72866   1.186   9.805   0.848
56990SOL    HW172867   1.223   9.744   0.785
56990SOL    HW272868   1.203   9.892   0.811
56991SOL     OW72869  14.682  11.199   2.370
56991SOL    HW172870  14.766  11.194   2.416
56991SOL    HW272871  14.626  11.250   2.428
56992SOL     OW72872   1.837   7.796   0.078
56992SOL    HW172873   1.863   7.796   0.170
56992SOL    HW272874   1.745   7.771   0.079
56993SOL     OW72875   4.259  11.241  13.036
56993SOL    HW172876   4.315  11.319  13.031
56993SOL    HW272877   4.310  11.178  13.087
56994SOL     OW72878  10.219   6.752   9.160
56994SOL    HW172879  10.178   6.751   9.073
56994SOL    HW272880  10.176   6.683   9.209
56995SOL     OW72881   7.652   9.109  14.463
56995SOL    HW172882   7.621   9.158  14.540
56995SOL    HW272883   7.726   9.058  14.496
56996SOL     OW72884  10.200   7.729  11.455
56996SOL    HW172885  10.106   7.744  11.462
56996SOL    HW272886  10.220   7.671  11.529
56997SOL     OW72887   7.152  12.724   3.848
56997SOL    HW172888   7.170  12.809   3.887
56997SOL    HW272889   7.092  12.742   3.775
56998SOL     OW72890  13.512   1.317   1.825
56998SOL    HW172891  13.461   1.291   1.901
56998SOL    HW272892  13.510   1.413   1.825
56999SOL     OW72893  12.517  13.045   8.058
56999SOL    HW172894  12.458  13.033   7.982
56999SOL    HW272895  12.570  13.121   8.035
57000SOL     OW72896   1.544   3.912   4.894
57000SOL    HW172897   1.631   3.874   4.879
57000SOL    HW272898   1.495   3.889   4.815
57001SOL     OW72899   9.144  10.064  12.670
57001SOL    HW172900   9.199   9.991  12.640
57001SOL    HW272901   9.175  10.082  12.758
57002SOL     OW72902   2.144   0.628   2.011
57002SOL    HW172903   2.174   0.645   2.101
57002SOL    HW272904   2.203   0.679   1.956
57003SOL     OW72905   4.124   8.676  13.538
57003SOL    HW172906   4.197   8.671  13.476
57003SOL    HW272907   4.048   8.650  13.487
57004SOL     OW72908   9.416  14.441   4.634
57004SOL    HW172909   9.328  14.425   4.669
57004SOL    HW272910   9.454  14.506   4.693
57005SOL     OW72911   1.969  11.259   7.703
57005SOL    HW172912   2.006  11.346   7.694
57005SOL    HW272913   2.044  11.200   7.704
57006SOL     OW72914   8.735  10.271   0.988
57006SOL    HW172915   8.757  10.275   1.081
57006SOL    HW272916   8.750  10.360   0.956
57007SOL     OW72917   5.489   6.705   6.417
57007SOL    HW172918   5.454   6.793   6.428
57007SOL    HW272919   5.414   6.653   6.386
57008SOL     OW72920  13.119  14.346  14.259
57008SOL    HW172921  13.145  14.438  14.257
57008SOL    HW272922  13.179  14.303  14.198
57009SOL     OW72923   3.869  13.332   6.257
57009SOL    HW172924   3.852  13.242   6.286
57009SOL    HW272925   3.833  13.387   6.325
57010SOL     OW72926  11.192   1.970   0.978
57010SOL    HW172927  11.169   1.927   1.061
57010SOL    HW272928  11.112   1.963   0.925
57011SOL     OW72929  11.723   7.049   6.076
57011SOL    HW172930  11.795   7.067   6.015
57011SOL    HW272931  11.700   6.957   6.060
57012SOL     OW72932  10.744  12.078   7.055
57012SOL    HW172933  10.767  12.145   6.991
57012SOL    HW272934  10.707  12.006   7.003
57013SOL     OW72935  14.815  10.790   1.616
57013SOL    HW172936   0.038  10.818   1.608
57013SOL    HW272937  14.765  10.871   1.619
57014SOL     OW72938   5.103   7.864  11.423
57014SOL    HW172939   5.104   7.786  11.480
57014SOL    HW272940   5.103   7.828  11.334
57015SOL     OW72941  10.973   1.451   5.812
57015SOL    HW172942  11.035   1.504   5.762
57015SOL    HW272943  10.973   1.366   5.767
57016SOL     OW72944   2.669   2.727  11.715
57016SOL    HW172945   2.686   2.677  11.795
57016SOL    HW272946   2.655   2.661  11.648
57017SOL     OW72947   7.263   1.873  14.437
57017SOL    HW172948   7.340   1.906  14.392
57017SOL    HW272949   7.297   1.826  14.513
57018SOL     OW72950   3.370   7.828   6.341
57018SOL    HW172951   3.348   7.834   6.434
57018SOL    HW272952   3.464   7.843   6.337
57019SOL     OW72953  13.457   1.301   8.527
57019SOL    HW172954  13.502   1.221   8.552
57019SOL    HW272955  13.364   1.280   8.536
57020SOL     OW72956   3.533   9.879   5.334
57020SOL    HW172957   3.568   9.925   5.258
57020SOL    HW272958   3.503   9.949   5.392
57021SOL     OW72959   5.745  14.425  10.918
57021SOL    HW172960   5.669  14.483  10.919
57021SOL    HW272961   5.718  14.350  10.972
57022SOL     OW72962  13.156   8.749  11.922
57022SOL    HW172963  13.197   8.801  11.853
57022SOL    HW272964  13.132   8.812  11.990
57023SOL     OW72965   9.659   6.890   7.528
57023SOL    HW172966   9.584   6.939   7.563
57023SOL    HW272967   9.683   6.937   7.448
57024SOL     OW72968   9.169   0.200   1.495
57024SOL    HW172969   9.230   0.128   1.478
57024SOL    HW272970   9.200   0.271   1.438
57025SOL     OW72971  11.324   6.253   2.119
57025SOL    HW172972  11.228   6.253   2.120
57025SOL    HW272973  11.348   6.344   2.107
57026SOL     OW72974   2.658   1.491   3.056
57026SOL    HW172975   2.680   1.505   3.149
57026SOL    HW272976   2.617   1.404   3.054
57027SOL     OW72977  10.632   5.813   0.790
57027SOL    HW172978  10.572   5.858   0.731
57027SOL    HW272979  10.588   5.729   0.809
57028SOL     OW72980   7.588   8.905   3.122
57028SOL    HW172981   7.558   8.995   3.115
57028SOL    HW272982   7.518   8.859   3.168
57029SOL     OW72983   4.051  11.707   0.404
57029SOL    HW172984   4.062  11.719   0.310
57029SOL    HW272985   4.100  11.779   0.443
57030SOL     OW72986  13.935  12.803  11.164
57030SOL    HW172987  13.879  12.759  11.100
57030SOL    HW272988  13.965  12.882  11.119
57031SOL     OW72989   8.154   7.527   2.045
57031SOL    HW172990   8.059   7.532   2.054
57031SOL    HW272991   8.184   7.618   2.055
57032SOL     OW72992  10.875   1.165   2.627
57032SOL    HW172993  10.846   1.090   2.575
57032SOL    HW272994  10.824   1.159   2.708
57033SOL     OW72995  13.307   8.582   9.227
57033SOL    HW172996  13.339   8.506   9.275
57033SOL    HW272997  13.227   8.552   9.184
57034SOL     OW72998   3.863   8.875   5.434
57034SOL    HW172999   3.947   8.909   5.403
57034SOL    HW273000   3.885   8.794   5.480
57035SOL     OW73001   5.919   6.444   2.776
57035SOL    HW173002   5.884   6.441   2.865
57035SOL    HW273003   6.013   6.426   2.787
57036SOL     OW73004   5.940  10.989   6.847
57036SOL    HW173005   5.936  11.076   6.806
57036SOL    HW273006   6.034  10.969   6.850
57037SOL     OW73007  11.892   5.523  12.942
57037SOL    HW173008  11.920   5.598  12.890
57037SOL    HW273009  11.881   5.452  12.878
57038SOL     OW73010  10.053  12.018  10.715
57038SOL    HW173011   9.999  12.097  10.718
57038SOL    HW273012  10.035  11.981  10.629
57039SOL     OW73013  10.654  11.232   5.830
57039SOL    HW173014  10.684  11.300   5.770
57039SOL    HW273015  10.733  11.181   5.849
57040SOL     OW73016  13.901   7.610   0.969
57040SOL    HW173017  13.978   7.660   0.998
57040SOL    HW273018  13.827   7.670   0.981
57041SOL     OW73019   5.866   3.804   8.099
57041SOL    HW173020   5.787   3.789   8.151
57041SOL    HW273021   5.834   3.839   8.017
57042SOL     OW73022   1.197  11.667  13.413
57042SOL    HW173023   1.123  11.623  13.455
57042SOL    HW273024   1.179  11.661  13.320
57043SOL     OW73025  10.616   5.703   5.797
57043SOL    HW173026  10.644   5.623   5.842
57043SOL    HW273027  10.525   5.715   5.825
57044SOL     OW73028   6.725   9.958  12.540
57044SOL    HW173029   6.698   9.872  12.509
57044SOL    HW273030   6.761   9.943  12.627
57045SOL     OW73031   0.995   8.600  14.816
57045SOL    HW173032   0.921   8.643  14.772
57045SOL    HW273033   0.999   8.641   0.034
57046SOL     OW73034   9.906  14.778   9.257
57046SOL    HW173035   9.909  14.792   9.163
57046SOL    HW273036   9.832  14.829   9.287
57047SOL     OW73037   1.080   8.517   0.936
57047SOL    HW173038   1.105   8.497   1.026
57047SOL    HW273039   1.023   8.593   0.943
57048SOL     OW73040   6.688  14.275   6.390
57048SOL    HW173041   6.702  14.252   6.298
57048SOL    HW273042   6.602  14.239   6.410
57049SOL     OW73043  12.228  10.501  13.525
57049SOL    HW173044  12.173  10.553  13.466
57049SOL    HW273045  12.217  10.411  13.495
57050SOL     OW73046   0.391  14.666   4.896
57050SOL    HW173047   0.342  14.723   4.954
57050SOL    HW273048   0.384  14.579   4.937
57051SOL     OW73049   7.305  13.411   4.715
57051SOL    HW173050   7.322  13.434   4.806
57051SOL    HW273051   7.224  13.457   4.694
57052SOL     OW73052   7.163  13.358   7.083
57052SOL    HW173053   7.191  13.278   7.126
57052SOL    HW273054   7.190  13.347   6.992
57053SOL     OW73055   6.276   1.843  12.433
57053SOL    HW173056   6.204   1.783  12.450
57053SOL    HW273057   6.288   1.891  12.515
57054SOL     OW73058  13.944  10.124   8.722
57054SOL    HW173059  13.930  10.157   8.634
57054SOL    HW273060  13.991  10.194   8.767
57055SOL     OW73061   3.021   6.790   4.897
57055SOL    HW173062   3.007   6.883   4.916
57055SOL    HW273063   3.043   6.787   4.804
57056SOL     OW73064   6.380   1.474   6.009
57056SOL    HW173065   6.339   1.405   6.060
57056SOL    HW273066   6.311   1.505   5.951
57057SOL     OW73067   1.370   0.698  14.344
57057SOL    HW173068   1.312   0.692  14.419
57057SOL    HW273069   1.409   0.785  14.350
57058SOL     OW73070   2.498  10.702   0.123
57058SOL    HW173071   2.490  10.608   0.104
57058SOL    HW273072   2.498  10.744   0.036
57059SOL     OW73073   1.161   0.349  12.338
57059SOL    HW173074   1.085   0.299  12.369
57059SOL    HW273075   1.145   0.438  12.371
57060SOL     OW73076  14.620   8.218   7.289
57060SOL    HW173077  14.683   8.149   7.308
57060SOL    HW273078  14.645   8.251   7.203
57061SOL     OW73079  14.054  11.185   2.538
57061SOL    HW173080  14.064  11.093   2.560
57061SOL    HW273081  14.040  11.229   2.621
57062SOL     OW73082   1.238  12.933   7.962
57062SOL    HW173083   1.182  12.932   7.884
57062SOL    HW273084   1.283  13.017   7.958
57063SOL     OW73085   4.660   6.394   2.280
57063SOL    HW173086   4.665   6.399   2.376
57063SOL    HW273087   4.585   6.339   2.263
57064SOL     OW73088   0.067   1.527  10.516
57064SOL    HW173089  14.851   1.494  10.484
57064SOL    HW273090   0.049   1.617  10.544
57065SOL     OW73091   3.645  10.016  11.322
57065SOL    HW173092   3.642  10.110  11.306
57065SOL    HW273093   3.725  10.003  11.374
57066SOL     OW73094   5.164  10.274   9.487
57066SOL    HW173095   5.182  10.248   9.396
57066SOL    HW273096   5.170  10.193   9.537
57067SOL     OW73097   9.906  13.231   1.169
57067SOL    HW173098   9.850  13.170   1.216
57067SOL    HW273099   9.944  13.180   1.098
57068SOL     OW73100   5.429   2.230   2.342
57068SOL    HW173101   5.364   2.160   2.347
57068SOL    HW273102   5.490   2.201   2.274
57069SOL     OW73103   4.897   0.316  11.257
57069SOL    HW173104   4.811   0.276  11.245
57069SOL    HW273105   4.909   0.371  11.180
57070SOL     OW73106   6.042   0.561   1.021
57070SOL    HW173107   6.015   0.621   1.090
57070SOL    HW273108   6.002   0.477   1.046
57071SOL     OW73109  11.112   8.153   6.449
57071SOL    HW173110  11.123   8.058   6.458
57071SOL    HW273111  11.132   8.187   6.537
57072SOL     OW73112   6.668   5.131   2.929
57072SOL    HW173113   6.724   5.107   2.855
57072SOL    HW273114   6.689   5.067   2.997
57073SOL     OW73115   8.961   1.225  11.184
57073SOL    HW173116   8.959   1.284  11.259
57073SOL    HW273117   8.909   1.149  11.212
57074SOL     OW73118   3.585  13.669  12.188
57074SOL    HW173119   3.658  13.629  12.141
57074SOL    HW273120   3.610  13.663  12.281
57075SOL     OW73121  14.068   1.228   6.541
57075SOL    HW173122  14.101   1.142   6.515
57075SOL    HW273123  14.147   1.281   6.552
57076SOL     OW73124  10.166   5.877   8.037
57076SOL    HW173125  10.200   5.789   8.052
57076SOL    HW273126  10.154   5.913   8.125
57077SOL     OW73127  13.637   1.728   6.152
57077SOL    HW173128  13.697   1.706   6.081
57077SOL    HW273129  13.603   1.644   6.183
57078SOL     OW73130   1.562  10.559  13.981
57078SOL    HW173131   1.645  10.593  14.016
57078SOL    HW273132   1.498  10.576  14.050
57079SOL     OW73133   4.044   3.957   3.401
57079SOL    HW173134   4.073   3.954   3.493
57079SOL    HW273135   4.049   4.049   3.377
57080SOL     OW73136  13.615   1.377   0.043
57080SOL    HW173137  13.543   1.435   0.064
57080SOL    HW273138  13.574   1.299   0.005
57081SOL     OW73139  10.048  12.976  12.884
57081SOL    HW173140  10.044  12.891  12.842
57081SOL    HW273141  10.035  13.039  12.813
57082SOL     OW73142   7.939   8.376   4.667
57082SOL    HW173143   7.913   8.347   4.754
57082SOL    HW273144   7.858   8.373   4.615
57083SOL     OW73145   2.388  11.445  10.908
57083SOL    HW173146   2.480  11.446  10.883
57083SOL    HW273147   2.349  11.517  10.857
57084SOL     OW73148   1.121   4.563  14.102
57084SOL    HW173149   1.212   4.533  14.094
57084SOL    HW273150   1.127   4.658  14.096
57085SOL     OW73151   8.596  13.321   6.421
57085SOL    HW173152   8.578  13.229   6.438
57085SOL    HW273153   8.530  13.346   6.355
57086SOL     OW73154   3.339   4.970   5.176
57086SOL    HW173155   3.274   4.960   5.107
57086SOL    HW273156   3.372   4.881   5.191
57087SOL     OW73157   1.187   1.594   4.566
57087SOL    HW173158   1.205   1.635   4.651
57087SOL    HW273159   1.144   1.511   4.588
57088SOL     OW73160  10.858  11.302   6.092
57088SOL    HW173161  10.850  11.210   6.065
57088SOL    HW273162  10.913  11.341   6.024
57089SOL     OW73163   8.451   0.164   7.592
57089SOL    HW173164   8.479   0.075   7.615
57089SOL    HW273165   8.381   0.152   7.529
57090SOL     OW73166  13.443   2.133   9.121
57090SOL    HW173167  13.356   2.141   9.084
57090SOL    HW273168  13.492   2.079   9.059
57091SOL     OW73169   3.501  12.119   3.052
57091SOL    HW173170   3.529  12.211   3.054
57091SOL    HW273171   3.582  12.070   3.041
57092SOL     OW73172  13.867   5.276   4.018
57092SOL    HW173173  13.850   5.320   4.101
57092SOL    HW273174  13.780   5.265   3.979
57093SOL     OW73175   6.077  12.114   0.734
57093SOL    HW173176   5.997  12.157   0.702
57093SOL    HW273177   6.118  12.180   0.790
57094SOL     OW73178   1.568   1.115   9.554
57094SOL    HW173179   1.490   1.065   9.580
57094SOL    HW273180   1.579   1.096   9.461
57095SOL     OW73181  13.132   8.746   7.532
57095SOL    HW173182  13.135   8.837   7.504
57095SOL    HW273183  13.083   8.747   7.613
57096SOL     OW73184   8.337   7.125   3.150
57096SOL    HW173185   8.425   7.129   3.187
57096SOL    HW273186   8.351   7.106   3.057
57097SOL     OW73187   9.712   1.753  13.491
57097SOL    HW173188   9.695   1.847  13.486
57097SOL    HW273189   9.627   1.713  13.476
57098SOL     OW73190  11.303   4.655   5.785
57098SOL    HW173191  11.353   4.654   5.703
57098SOL    HW273192  11.303   4.563   5.813
57099SOL     OW73193   3.921  10.780  13.141
57099SOL    HW173194   3.861  10.724  13.092
57099SOL    HW273195   4.003  10.730  13.144
57100SOL     OW73196   0.231   5.778   5.206
57100SOL    HW173197   0.150   5.824   5.186
57100SOL    HW273198   0.300   5.843   5.193
57101SOL     OW73199   6.021   6.749  12.905
57101SOL    HW173200   6.108   6.736  12.943
57101SOL    HW273201   5.963   6.697  12.959
57102SOL     OW73202  13.502  12.914   5.873
57102SOL    HW173203  13.537  12.832   5.908
57102SOL    HW273204  13.408  12.898   5.865
57103SOL     OW73205   6.306   8.452  12.199
57103SOL    HW173206   6.388   8.501  12.189
57103SOL    HW273207   6.332   8.369  12.239
57104SOL     OW73208   5.700   4.234  14.176
57104SOL    HW173209   5.671   4.184  14.099
57104SOL    HW273210   5.620   4.267  14.215
57105SOL     OW73211   9.038  11.055  10.361
57105SOL    HW173212   8.980  11.130  10.373
57105SOL    HW273213   9.019  10.998  10.435
57106SOL     OW73214   9.527  13.688   2.122
57106SOL    HW173215   9.471  13.643   2.059
57106SOL    HW273216   9.595  13.730   2.068
57107SOL     OW73217  12.750   3.415   9.843
57107SOL    HW173218  12.673   3.370   9.878
57107SOL    HW273219  12.754   3.389   9.751
57108SOL     OW73220  12.066  10.312   6.658
57108SOL    HW173221  12.155  10.300   6.692
57108SOL    HW273222  12.051  10.235   6.603
57109SOL     OW73223  10.833   8.961  13.637
57109SOL    HW173224  10.851   8.989  13.727
57109SOL    HW273225  10.841   8.866  13.639
57110SOL     OW73226   0.507   1.066   8.729
57110SOL    HW173227   0.420   1.049   8.693
57110SOL    HW273228   0.517   1.161   8.723
57111SOL     OW73229   6.877   9.923   0.620
57111SOL    HW173230   6.847   9.967   0.541
57111SOL    HW273231   6.830   9.966   0.691
57112SOL     OW73232   0.044   4.911  10.104
57112SOL    HW173233   0.024   5.004  10.101
57112SOL    HW273234   0.137   4.905  10.082
57113SOL     OW73235  14.372  12.310   5.182
57113SOL    HW173236  14.430  12.284   5.111
57113SOL    HW273237  14.402  12.399   5.206
57114SOL     OW73238   6.534   1.966   0.122
57114SOL    HW173239   6.547   2.030   0.052
57114SOL    HW273240   6.522   2.020   0.201
57115SOL     OW73241  14.523   4.097   2.334
57115SOL    HW173242  14.522   4.145   2.251
57115SOL    HW273243  14.612   4.061   2.339
57116SOL     OW73244  11.921   1.599   7.565
57116SOL    HW173245  11.882   1.685   7.577
57116SOL    HW273246  11.930   1.590   7.470
57117SOL     OW73247   5.213  11.424  14.176
57117SOL    HW173248   5.231  11.458  14.263
57117SOL    HW273249   5.233  11.330  14.182
57118SOL     OW73250   2.503   7.047   6.185
57118SOL    HW173251   2.441   7.009   6.124
57118SOL    HW273252   2.449   7.086   6.254
57119SOL     OW73253   5.444   7.890  13.404
57119SOL    HW173254   5.412   7.808  13.440
57119SOL    HW273255   5.518   7.914  13.460
57120SOL     OW73256  13.757  13.234  10.840
57120SOL    HW173257  13.833  13.185  10.871
57120SOL    HW273258  13.752  13.311  10.896
57121SOL     OW73259  13.683  11.616   0.938
57121SOL    HW173260  13.723  11.537   0.902
57121SOL    HW273261  13.648  11.589   1.023
57122SOL     OW73262  10.065   1.854   0.606
57122SOL    HW173263  10.036   1.768   0.636
57122SOL    HW273264   9.990   1.911   0.622
57123SOL     OW73265   9.181  12.123  14.250
57123SOL    HW173266   9.166  12.030  14.236
57123SOL    HW273267   9.195  12.131  14.344
57124SOL     OW73268   4.601   8.102   1.255
57124SOL    HW173269   4.613   8.018   1.300
57124SOL    HW273270   4.582   8.165   1.325
57125SOL     OW73271   1.695   5.994  13.600
57125SOL    HW173272   1.761   5.940  13.644
57125SOL    HW273273   1.703   6.080  13.642
57126SOL     OW73274   5.575   5.637  12.444
57126SOL    HW173275   5.609   5.678  12.365
57126SOL    HW273276   5.481   5.628  12.429
57127SOL     OW73277   7.932  14.853  12.182
57127SOL    HW173278   8.002   0.024  12.130
57127SOL    HW273279   7.930   0.037  12.263
57128SOL     OW73280  13.302   4.360   9.981
57128SOL    HW173281  13.302   4.456   9.979
57128SOL    HW273282  13.211   4.336   9.959
57129SOL     OW73283   3.502   7.357  11.506
57129SOL    HW173284   3.555   7.310  11.570
57129SOL    HW273285   3.469   7.289  11.447
57130SOL     OW73286   9.369  14.029   0.389
57130SOL    HW173287   9.401  13.990   0.471
57130SOL    HW273288   9.370  13.956   0.326
57131SOL     OW73289   9.649   4.041   2.521
57131SOL    HW173290   9.622   3.951   2.500
57131SOL    HW273291   9.742   4.045   2.499
57132SOL     OW73292   6.875  12.707   9.247
57132SOL    HW173293   6.872  12.797   9.278
57132SOL    HW273294   6.840  12.710   9.158
57133SOL     OW73295   7.720  14.520   2.997
57133SOL    HW173296   7.739  14.582   2.926
57133SOL    HW273297   7.746  14.435   2.962
57134SOL     OW73298   5.035  12.001   3.846
57134SOL    HW173299   5.045  11.915   3.887
57134SOL    HW273300   4.946  12.002   3.813
57135SOL     OW73301  12.998  10.371   7.429
57135SOL    HW173302  13.030  10.460   7.444
57135SOL    HW273303  12.916  10.367   7.477
57136SOL     OW73304  12.095  14.480   9.080
57136SOL    HW173305  12.158  14.441   9.019
57136SOL    HW273306  12.010  14.470   9.036
57137SOL     OW73307   2.067   4.293   0.804
57137SOL    HW173308   2.122   4.343   0.865
57137SOL    HW273309   2.078   4.338   0.720
57138SOL     OW73310   8.131   8.803   6.403
57138SOL    HW173311   8.189   8.738   6.444
57138SOL    HW273312   8.139   8.787   6.309
57139SOL     OW73313  13.904   4.995  10.300
57139SOL    HW173314  13.993   4.992  10.333
57139SOL    HW273315  13.867   5.075  10.338
57140SOL     OW73316   8.922   9.713   2.350
57140SOL    HW173317   8.995   9.774   2.353
57140SOL    HW273318   8.849   9.762   2.388
57141SOL     OW73319   2.074   1.311   0.942
57141SOL    HW173320   2.114   1.342   1.023
57141SOL    HW273321   2.144   1.266   0.896
57142SOL     OW73322   2.299   3.075   5.690
57142SOL    HW173323   2.329   3.077   5.781
57142SOL    HW273324   2.280   3.166   5.669
57143SOL     OW73325   7.077  11.611  13.077
57143SOL    HW173326   7.006  11.547  13.081
57143SOL    HW273327   7.078  11.640  12.985
57144SOL     OW73328   5.710  12.553   1.554
57144SOL    HW173329   5.625  12.596   1.562
57144SOL    HW273330   5.706  12.481   1.617
57145SOL     OW73331  12.045   6.799   8.356
57145SOL    HW173332  12.124   6.747   8.344
57145SOL    HW273333  12.010   6.772   8.441
57146SOL     OW73334   1.663  12.818   5.640
57146SOL    HW173335   1.607  12.748   5.672
57146SOL    HW273336   1.750  12.796   5.673
57147SOL     OW73337  13.413  13.748   6.299
57147SOL    HW173338  13.351  13.821   6.305
57147SOL    HW273339  13.391  13.692   6.374
57148SOL     OW73340   5.637   9.540   7.235
57148SOL    HW173341   5.684   9.609   7.188
57148SOL    HW273342   5.675   9.459   7.203
57149SOL     OW73343   2.133   9.333   4.197
57149SOL    HW173344   2.068   9.366   4.258
57149SOL    HW273345   2.092   9.343   4.111
57150SOL     OW73346   6.637   4.489   8.219
57150SOL    HW173347   6.636   4.561   8.282
57150SOL    HW273348   6.546   4.461   8.213
57151SOL     OW73349  11.402   1.752  11.362
57151SOL    HW173350  11.371   1.841  11.378
57151SOL    HW273351  11.392   1.707  11.446
57152SOL     OW73352   7.308  12.881   9.205
57152SOL    HW173353   7.226  12.874   9.255
57152SOL    HW273354   7.368  12.820   9.249
57153SOL     OW73355   2.403   8.632   7.885
57153SOL    HW173356   2.411   8.694   7.957
57153SOL    HW273357   2.319   8.653   7.844
57154SOL     OW73358   9.050   4.625  12.936
57154SOL    HW173359   9.013   4.714  12.934
57154SOL    HW273360   9.126   4.632  12.994
57155SOL     OW73361   1.192  13.087  14.732
57155SOL    HW173362   1.201  13.107  14.825
57155SOL    HW273363   1.150  13.164  14.694
57156SOL     OW73364   5.043   1.058  12.983
57156SOL    HW173365   5.017   1.146  13.010
57156SOL    HW273366   5.054   1.010  13.065
57157SOL     OW73367  13.684  11.851   1.242
57157SOL    HW173368  13.592  11.845   1.214
57157SOL    HW273369  13.678  11.861   1.337
57158SOL     OW73370   5.181   2.562  12.185
57158SOL    HW173371   5.268   2.555  12.145
57158SOL    HW273372   5.191   2.634  12.249
57159SOL     OW73373  14.626  13.276   2.547
57159SOL    HW173374  14.645  13.301   2.456
57159SOL    HW273375  14.558  13.337   2.575
57160SOL     OW73376   7.860   6.959   6.202
57160SOL    HW173377   7.795   6.928   6.264
57160SOL    HW273378   7.835   6.919   6.119
57161SOL     OW73379  13.145   6.716   9.182
57161SOL    HW173380  13.166   6.682   9.269
57161SOL    HW273381  13.217   6.776   9.162
57162SOL     OW73382   7.400   3.299  14.548
57162SOL    HW173383   7.317   3.269  14.583
57162SOL    HW273384   7.453   3.219  14.540
57163SOL     OW73385   0.703  13.432   5.924
57163SOL    HW173386   0.663  13.355   5.965
57163SOL    HW273387   0.632  13.496   5.920
57164SOL     OW73388   9.482  13.139   6.908
57164SOL    HW173389   9.526  13.068   6.956
57164SOL    HW273390   9.389  13.119   6.916
57165SOL     OW73391  11.580  10.901   2.273
57165SOL    HW173392  11.530  10.979   2.249
57165SOL    HW273393  11.524  10.855   2.335
57166SOL     OW73394   7.405   0.947   0.864
57166SOL    HW173395   7.353   1.013   0.909
57166SOL    HW273396   7.400   0.870   0.922
57167SOL     OW73397   2.845   8.955  11.195
57167SOL    HW173398   2.925   9.001  11.167
57167SOL    HW273399   2.867   8.919  11.281
57168SOL     OW73400   9.627   7.996   6.824
57168SOL    HW173401   9.670   7.913   6.845
57168SOL    HW273402   9.679   8.032   6.752
57169SOL     OW73403  14.415   9.577   5.320
57169SOL    HW173404  14.492   9.524   5.301
57169SOL    HW273405  14.447   9.647   5.376
57170SOL     OW73406   3.568  11.736   2.109
57170SOL    HW173407   3.625  11.724   2.033
57170SOL    HW273408   3.580  11.827   2.134
57171SOL     OW73409   5.561  13.112   0.952
57171SOL    HW173410   5.650  13.106   0.986
57171SOL    HW273411   5.507  13.130   1.029
57172SOL     OW73412   4.343   7.401   9.545
57172SOL    HW173413   4.401   7.423   9.472
57172SOL    HW273414   4.362   7.309   9.563
57173SOL     OW73415   4.455   1.792  13.912
57173SOL    HW173416   4.360   1.791  13.918
57173SOL    HW273417   4.480   1.699  13.911
57174SOL     OW73418   8.338   7.977   4.217
57174SOL    HW173419   8.257   7.970   4.167
57174SOL    HW273420   8.314   7.950   4.306
57175SOL     OW73421   7.881  12.918   5.370
57175SOL    HW173422   7.834  12.982   5.316
57175SOL    HW273423   7.934  12.869   5.307
57176SOL     OW73424  14.299   9.767  10.639
57176SOL    HW173425  14.280   9.673  10.644
57176SOL    HW273426  14.343   9.787  10.722
57177SOL     OW73427   6.612   5.371   5.713
57177SOL    HW173428   6.684   5.309   5.715
57177SOL    HW273429   6.647   5.449   5.670
57178SOL     OW73430   3.526   0.456  13.094
57178SOL    HW173431   3.578   0.466  13.014
57178SOL    HW273432   3.590   0.461  13.165
57179SOL     OW73433   3.801  11.483   0.560
57179SOL    HW173434   3.875  11.425   0.579
57179SOL    HW273435   3.834  11.543   0.493
57180SOL     OW73436   0.812   4.428   7.461
57180SOL    HW173437   0.864   4.492   7.510
57180SOL    HW273438   0.788   4.362   7.526
57181SOL     OW73439  12.626  11.699  13.400
57181SOL    HW173440  12.643  11.761  13.471
57181SOL    HW273441  12.533  11.708  13.381
57182SOL     OW73442  13.966   9.475   7.031
57182SOL    HW173443  13.886   9.475   6.979
57182SOL    HW273444  13.936   9.479   7.122
57183SOL     OW73445   8.144   3.314   7.667
57183SOL    HW173446   8.124   3.283   7.579
57183SOL    HW273447   8.070   3.370   7.691
57184SOL     OW73448   1.554  10.408   8.940
57184SOL    HW173449   1.649  10.399   8.947
57184SOL    HW273450   1.528  10.342   8.876
57185SOL     OW73451  10.396   0.650  10.158
57185SOL    HW173452  10.315   0.691  10.186
57185SOL    HW273453  10.381   0.556  10.168
57186SOL     OW73454  13.148  14.529   1.950
57186SOL    HW173455  13.107  14.519   1.864
57186SOL    HW273456  13.096  14.596   1.994
57187SOL     OW73457   5.223  11.526  14.486
57187SOL    HW173458   5.230  11.436  14.520
57187SOL    HW273459   5.171  11.572  14.552
57188SOL     OW73460   6.934  12.943   4.986
57188SOL    HW173461   7.000  12.874   4.994
57188SOL    HW273462   6.896  12.929   4.900
57189SOL     OW73463  12.853   8.420  14.515
57189SOL    HW173464  12.940   8.434  14.477
57189SOL    HW273465  12.867   8.432  14.610
57190SOL     OW73466   8.694   5.842   8.266
57190SOL    HW173467   8.681   5.861   8.359
57190SOL    HW273468   8.638   5.767   8.248
57191SOL     OW73469  10.024   3.690   3.538
57191SOL    HW173470   9.964   3.752   3.495
57191SOL    HW273471  10.109   3.732   3.534
57192SOL     OW73472   4.183   0.748   7.825
57192SOL    HW173473   4.120   0.708   7.764
57192SOL    HW273474   4.250   0.681   7.838
57193SOL     OW73475   0.347   5.299   9.657
57193SOL    HW173476   0.367   5.279   9.565
57193SOL    HW273477   0.271   5.356   9.654
57194SOL     OW73478   8.603   6.444   0.040
57194SOL    HW173479   8.666   6.503  14.865
57194SOL    HW273480   8.628   6.447   0.132
57195SOL     OW73481   3.214  12.986   3.480
57195SOL    HW173482   3.277  13.042   3.526
57195SOL    HW273483   3.176  12.931   3.548
57196SOL     OW73484   7.238   9.720   5.679
57196SOL    HW173485   7.294   9.673   5.741
57196SOL    HW273486   7.192   9.784   5.733
57197SOL     OW73487   4.896  10.350  13.622
57197SOL    HW173488   4.913  10.264  13.658
57197SOL    HW273489   4.966  10.405  13.656
57198SOL     OW73490   9.144   3.601   4.223
57198SOL    HW173491   9.205   3.675   4.227
57198SOL    HW273492   9.199   3.523   4.228
57199SOL     OW73493   8.933   0.124   9.647
57199SOL    HW173494   8.983   0.189   9.696
57199SOL    HW273495   8.995   0.087   9.584
57200SOL     OW73496   0.506   8.875   5.782
57200SOL    HW173497   0.419   8.838   5.800
57200SOL    HW273498   0.488   8.962   5.746
57201SOL     OW73499   5.498   5.795   5.618
57201SOL    HW173500   5.515   5.885   5.592
57201SOL    HW273501   5.582   5.751   5.608
57202SOL     OW73502  11.655   9.811   7.902
57202SOL    HW173503  11.706   9.813   7.821
57202SOL    HW273504  11.602   9.732   7.896
57203SOL     OW73505  13.222   6.081   9.810
57203SOL    HW173506  13.190   5.993   9.790
57203SOL    HW273507  13.191   6.098   9.899
57204SOL     OW73508  14.352   7.534   7.625
57204SOL    HW173509  14.382   7.511   7.537
57204SOL    HW273510  14.431   7.562   7.671
57205SOL     OW73511   3.125   8.367   6.864
57205SOL    HW173512   3.093   8.451   6.828
57205SOL    HW273513   3.219   8.368   6.846
57206SOL     OW73514  12.785   3.333   3.802
57206SOL    HW173515  12.842   3.325   3.878
57206SOL    HW273516  12.841   3.372   3.735
57207SOL     OW73517   8.018  10.379   3.654
57207SOL    HW173518   8.102  10.333   3.662
57207SOL    HW273519   7.963  10.318   3.605
57208SOL     OW73520  13.827   3.313  10.294
57208SOL    HW173521  13.839   3.389  10.351
57208SOL    HW273522  13.815   3.240  10.354
57209SOL     OW73523  13.590   7.695   7.422
57209SOL    HW173524  13.504   7.730   7.399
57209SOL    HW273525  13.600   7.714   7.515
57210SOL     OW73526  12.462   3.682  13.018
57210SOL    HW173527  12.523   3.701  13.089
57210SOL    HW273528  12.387   3.740  13.035
57211SOL     OW73529   1.946  11.235  10.271
57211SOL    HW173530   1.952  11.255  10.178
57211SOL    HW273531   2.016  11.286  10.311
57212SOL     OW73532  12.855   0.429   8.705
57212SOL    HW173533  12.801   0.508   8.704
57212SOL    HW273534  12.873   0.410   8.613
57213SOL     OW73535   1.678  10.442   9.178
57213SOL    HW173536   1.604  10.430   9.119
57213SOL    HW273537   1.695  10.536   9.177
57214SOL     OW73538   2.819   6.223   2.367
57214SOL    HW173539   2.765   6.145   2.373
57214SOL    HW273540   2.877   6.218   2.444
57215SOL     OW73541  12.899   0.863  10.523
57215SOL    HW173542  12.806   0.866  10.498
57215SOL    HW273543  12.901   0.900  10.612
57216SOL     OW73544   5.174   4.225  14.794
57216SOL    HW173545   5.113   4.216  14.721
57216SOL    HW273546   5.252   4.264  14.755
57217SOL     OW73547   3.552   0.750   6.881
57217SOL    HW173548   3.550   0.709   6.794
57217SOL    HW273549   3.488   0.703   6.932
57218SOL     OW73550  13.704   4.482  10.430
57218SOL    HW173551  13.692   4.401  10.480
57218SOL    HW273552  13.795   4.479  10.401
57219SOL     OW73553   0.903   5.712   1.555
57219SOL    HW173554   0.974   5.690   1.494
57219SOL    HW273555   0.914   5.651   1.628
57220SOL     OW73556   0.678   1.319   1.501
57220SOL    HW173557   0.685   1.410   1.528
57220SOL    HW273558   0.766   1.296   1.470
57221SOL     OW73559  11.571   9.519   0.236
57221SOL    HW173560  11.595   9.440   0.188
57221SOL    HW273561  11.476   9.527   0.223
57222SOL     OW73562   9.073   4.894   0.173
57222SOL    HW173563   9.157   4.892   0.219
57222SOL    HW273564   9.057   4.803   0.148
57223SOL     OW73565   2.289   5.057   6.256
57223SOL    HW173566   2.355   5.110   6.300
57223SOL    HW273567   2.292   4.972   6.300
57224SOL     OW73568   3.076   0.798  10.793
57224SOL    HW173569   3.092   0.841  10.877
57224SOL    HW273570   3.070   0.870  10.730
57225SOL     OW73571   7.436   2.474   2.560
57225SOL    HW173572   7.413   2.508   2.474
57225SOL    HW273573   7.487   2.545   2.601
57226SOL     OW73574  10.245   3.184  10.645
57226SOL    HW173575  10.241   3.188  10.741
57226SOL    HW273576  10.316   3.123  10.627
57227SOL     OW73577  14.384   1.601  10.371
57227SOL    HW173578  14.374   1.517  10.414
57227SOL    HW273579  14.409   1.580  10.281
57228SOL     OW73580  11.827   8.183   6.078
57228SOL    HW173581  11.794   8.181   6.168
57228SOL    HW273582  11.764   8.130   6.028
57229SOL     OW73583   5.923  13.963   3.088
57229SOL    HW173584   5.966  13.963   3.174
57229SOL    HW273585   5.969  14.030   3.038
57230SOL     OW73586   4.587   6.094  14.695
57230SOL    HW173587   4.638   6.142  14.760
57230SOL    HW273588   4.601   6.142  14.613
57231SOL     OW73589   8.975   1.447  13.409
57231SOL    HW173590   8.894   1.427  13.456
57231SOL    HW273591   8.994   1.367  13.360
57232SOL     OW73592   5.299   5.153  13.281
57232SOL    HW173593   5.386   5.169  13.244
57232SOL    HW273594   5.258   5.239  13.285
57233SOL     OW73595  14.300  11.725   1.341
57233SOL    HW173596  14.250  11.654   1.301
57233SOL    HW273597  14.237  11.769   1.398
57234SOL     OW73598   5.593  12.850   6.801
57234SOL    HW173599   5.679  12.871   6.838
57234SOL    HW273600   5.608  12.773   6.747
57235SOL     OW73601  14.085   8.849   9.978
57235SOL    HW173602  14.144   8.825  10.050
57235SOL    HW273603  14.006   8.879  10.022
57236SOL     OW73604   2.700   4.046  10.122
57236SOL    HW173605   2.735   4.104  10.055
57236SOL    HW273606   2.777   4.001  10.157
57237SOL     OW73607  11.219  11.555   0.978
57237SOL    HW173608  11.242  11.499   1.052
57237SOL    HW273609  11.127  11.578   0.993
57238SOL     OW73610   1.438   0.103   9.023
57238SOL    HW173611   1.412   0.160   8.950
57238SOL    HW273612   1.516   0.145   9.059
57239SOL     OW73613   8.006   4.447  10.224
57239SOL    HW173614   8.008   4.472  10.131
57239SOL    HW273615   7.936   4.381  10.229
57240SOL     OW73616   9.950  12.762   9.261
57240SOL    HW173617  10.042  12.767   9.290
57240SOL    HW273618   9.925  12.672   9.278
57241SOL     OW73619   3.006   2.869   9.844
57241SOL    HW173620   2.964   2.811   9.908
57241SOL    HW273621   2.985   2.957   9.875
57242SOL     OW73622  11.052  12.367   5.050
57242SOL    HW173623  10.967  12.382   5.092
57242SOL    HW273624  11.072  12.449   5.006
57243SOL     OW73625  11.043  11.581   2.510
57243SOL    HW173626  11.134  11.555   2.499
57243SOL    HW273627  11.010  11.525   2.581
57244SOL     OW73628  10.049   2.162   0.743
57244SOL    HW173629  10.112   2.132   0.810
57244SOL    HW273630   9.988   2.089   0.734
57245SOL     OW73631  10.070   5.414  11.528
57245SOL    HW173632  10.063   5.335  11.474
57245SOL    HW273633  10.100   5.482  11.469
57246SOL     OW73634   9.932  11.882   7.305
57246SOL    HW173635   9.983  11.801   7.304
57246SOL    HW273636   9.979  11.939   7.366
57247SOL     OW73637  12.094   6.205   9.653
57247SOL    HW173638  12.078   6.226   9.561
57247SOL    HW273639  12.007   6.192   9.690
57248SOL     OW73640  12.948  14.794   0.699
57248SOL    HW173641  12.989   0.012   0.698
57248SOL    HW273642  12.983  14.749   0.622
57249SOL     OW73643   9.400   4.548   6.345
57249SOL    HW173644   9.351   4.473   6.379
57249SOL    HW273645   9.487   4.540   6.385
57250SOL     OW73646  13.146   2.113  14.413
57250SOL    HW173647  13.132   2.191  14.467
57250SOL    HW273648  13.180   2.147  14.330
57251SOL     OW73649   7.344   9.837   9.747
57251SOL    HW173650   7.366   9.771   9.813
57251SOL    HW273651   7.311   9.912   9.797
57252SOL     OW73652   4.976   0.823   0.440
57252SOL    HW173653   5.057   0.848   0.395
57252SOL    HW273654   4.948   0.742   0.397
57253SOL     OW73655  13.132  10.412   1.625
57253SOL    HW173656  13.054  10.357   1.618
57253SOL    HW273657  13.100  10.498   1.652
57254SOL     OW73658   2.377   6.244   3.252
57254SOL    HW173659   2.395   6.150   3.241
57254SOL    HW273660   2.367   6.256   3.346
57255SOL     OW73661   1.815   1.211   6.527
57255SOL    HW173662   1.804   1.303   6.550
57255SOL    HW273663   1.756   1.164   6.586
57256SOL     OW73664   2.697  10.826   9.262
57256SOL    HW173665   2.651  10.797   9.183
57256SOL    HW273666   2.628  10.858   9.320
57257SOL     OW73667   2.737   5.835   7.258
57257SOL    HW173668   2.732   5.873   7.170
57257SOL    HW273669   2.729   5.741   7.244
57258SOL     OW73670   4.098   1.185   0.381
57258SOL    HW173671   4.142   1.107   0.346
57258SOL    HW273672   4.016   1.190   0.333
57259SOL     OW73673   8.542   4.964   4.170
57259SOL    HW173674   8.516   4.888   4.221
57259SOL    HW273675   8.461   5.012   4.155
57260SOL     OW73676   7.001  11.862   4.028
57260SOL    HW173677   7.072  11.846   3.966
57260SOL    HW273678   6.922  11.862   3.974
57261SOL     OW73679   9.314  13.750  13.908
57261SOL    HW173680   9.387  13.737  13.848
57261SOL    HW273681   9.326  13.684  13.976
57262SOL     OW73682   5.231   9.656  13.594
57262SOL    HW173683   5.294   9.603  13.547
57262SOL    HW273684   5.276   9.738  13.612
57263SOL     OW73685  11.285   2.367   6.971
57263SOL    HW173686  11.255   2.404   7.054
57263SOL    HW273687  11.373   2.403   6.959
57264SOL     OW73688   3.515   1.222   3.742
57264SOL    HW173689   3.453   1.154   3.715
57264SOL    HW273690   3.521   1.212   3.837
57265SOL     OW73691   2.339   1.567   4.850
57265SOL    HW173692   2.349   1.567   4.945
57265SOL    HW273693   2.422   1.604   4.818
57266SOL     OW73694   0.988  13.974   4.266
57266SOL    HW173695   1.026  14.000   4.350
57266SOL    HW273696   0.938  14.051   4.237
57267SOL     OW73697  11.212   6.831   7.631
57267SOL    HW173698  11.205   6.862   7.541
57267SOL    HW273699  11.234   6.909   7.682
57268SOL     OW73700   3.397  11.186   3.729
57268SOL    HW173701   3.336  11.115   3.712
57268SOL    HW273702   3.362  11.230   3.807
57269SOL     OW73703   9.696  10.223   1.014
57269SOL    HW173704   9.627  10.203   1.077
57269SOL    HW273705   9.657  10.289   0.956
57270SOL     OW73706   4.988   1.303   3.156
57270SOL    HW173707   4.957   1.393   3.158
57270SOL    HW273708   5.083   1.311   3.144
57271SOL     OW73709  12.976   3.262   7.374
57271SOL    HW173710  13.015   3.212   7.446
57271SOL    HW273711  13.043   3.262   7.305
57272SOL     OW73712  11.123   4.959  14.616
57272SOL    HW173713  11.093   4.870  14.636
57272SOL    HW273714  11.205   4.969  14.665
57273SOL     OW73715   6.348   4.972  11.994
57273SOL    HW173716   6.273   4.926  12.032
57273SOL    HW273717   6.379   4.915  11.924
57274SOL     OW73718   9.837   6.393   5.599
57274SOL    HW173719   9.900   6.321   5.595
57274SOL    HW273720   9.876   6.461   5.545
57275SOL     OW73721  10.065   7.652   9.094
57275SOL    HW173722  10.063   7.663   9.189
57275SOL    HW273723  10.156   7.670   9.069
57276SOL     OW73724   4.466  13.113  12.493
57276SOL    HW173725   4.491  13.191  12.443
57276SOL    HW273726   4.492  13.040  12.437
57277SOL     OW73727  14.546  11.052   7.534
57277SOL    HW173728  14.454  11.070   7.556
57277SOL    HW273729  14.541  10.983   7.468
57278SOL     OW73730   9.463   5.498   0.088
57278SOL    HW173731   9.385   5.451   0.116
57278SOL    HW273732   9.429   5.573   0.039
57279SOL     OW73733  10.267   0.666   7.739
57279SOL    HW173734  10.177   0.696   7.753
57279SOL    HW273735  10.317   0.705   7.811
57280SOL     OW73736   2.882   7.994  12.603
57280SOL    HW173737   2.871   7.915  12.551
57280SOL    HW273738   2.955   8.040  12.562
57281SOL     OW73739   0.318   3.387   7.512
57281SOL    HW173740   0.393   3.339   7.477
57281SOL    HW273741   0.270   3.322   7.564
57282SOL     OW73742  14.281  11.891  13.694
57282SOL    HW173743  14.198  11.857  13.659
57282SOL    HW273744  14.257  11.930  13.778
57283SOL     OW73745   1.528  14.336   7.045
57283SOL    HW173746   1.576  14.271   7.096
57283SOL    HW273747   1.525  14.413   7.102
57284SOL     OW73748  10.404  13.788   8.703
57284SOL    HW173749  10.442  13.774   8.790
57284SOL    HW273750  10.385  13.881   8.700
57285SOL     OW73751   0.391   1.848  13.239
57285SOL    HW173752   0.385   1.827  13.145
57285SOL    HW273753   0.459   1.789  13.272
57286SOL     OW73754   9.739  11.618  14.088
57286SOL    HW173755   9.722  11.539  14.037
57286SOL    HW273756   9.747  11.688  14.023
57287SOL     OW73757  11.908   2.944  12.607
57287SOL    HW173758  11.896   2.958  12.700
57287SOL    HW273759  12.003   2.941  12.595
57288SOL     OW73760   3.437   7.649  13.833
57288SOL    HW173761   3.438   7.612  13.745
57288SOL    HW273762   3.441   7.744  13.820
57289SOL     OW73763   8.136   4.975   5.218
57289SOL    HW173764   8.202   4.937   5.159
57289SOL    HW273765   8.112   5.058   5.177
57290SOL     OW73766   1.483   5.219   3.609
57290SOL    HW173767   1.441   5.135   3.592
57290SOL    HW273768   1.424   5.265   3.669
57291SOL     OW73769   8.596   7.786   3.376
57291SOL    HW173770   8.506   7.768   3.404
57291SOL    HW273771   8.650   7.758   3.450
57292SOL     OW73772   2.835  10.290  11.746
57292SOL    HW173773   2.800  10.378  11.752
57292SOL    HW273774   2.794  10.242  11.818
57293SOL     OW73775   8.621  12.804   0.900
57293SOL    HW173776   8.591  12.778   0.813
57293SOL    HW273777   8.690  12.869   0.883
57294SOL     OW73778   9.482   7.385  14.106
57294SOL    HW173779   9.421   7.429  14.165
57294SOL    HW273780   9.566   7.390  14.150
57295SOL     OW73781  10.999   7.806  11.823
57295SOL    HW173782  11.002   7.758  11.906
57295SOL    HW273783  10.913   7.849  11.824
57296SOL     OW73784   1.021   7.713   6.662
57296SOL    HW173785   0.979   7.741   6.581
57296SOL    HW273786   1.018   7.617   6.659
57297SOL     OW73787  11.885  10.369   0.310
57297SOL    HW173788  11.819  10.377   0.379
57297SOL    HW273789  11.867  10.442   0.251
57298SOL     OW73790  13.266   8.021   0.798
57298SOL    HW173791  13.254   8.018   0.893
57298SOL    HW273792  13.346   7.971   0.782
57299SOL     OW73793   4.040   4.411   9.095
57299SOL    HW173794   4.056   4.437   9.185
57299SOL    HW273795   3.971   4.469   9.065
57300SOL     OW73796   9.442   1.621  13.993
57300SOL    HW173797   9.408   1.604  14.081
57300SOL    HW273798   9.429   1.715  13.979
57301SOL     OW73799   3.008  10.034   7.861
57301SOL    HW173800   3.027   9.977   7.786
57301SOL    HW273801   3.037   9.984   7.937
57302SOL     OW73802  13.784   2.196   9.219
57302SOL    HW173803  13.701   2.155   9.195
57302SOL    HW273804  13.774   2.288   9.194
57303SOL     OW73805  14.266   0.930   3.120
57303SOL    HW173806  14.273   1.001   3.183
57303SOL    HW273807  14.252   0.973   3.036
57304SOL     OW73808   0.068   0.799   5.496
57304SOL    HW173809   0.091   0.860   5.566
57304SOL    HW273810   0.151   0.763   5.467
57305SOL     OW73811   2.001  12.161   2.386
57305SOL    HW173812   1.991  12.189   2.477
57305SOL    HW273813   1.938  12.214   2.337
57306SOL     OW73814   9.483  13.878  10.771
57306SOL    HW173815   9.407  13.917  10.813
57306SOL    HW273816   9.520  13.948  10.718
57307SOL     OW73817   5.040   8.788   6.158
57307SOL    HW173818   4.966   8.803   6.217
57307SOL    HW273819   5.008   8.724   6.095
57308SOL     OW73820   1.195   6.909   0.774
57308SOL    HW173821   1.253   6.944   0.706
57308SOL    HW273822   1.254   6.876   0.842
57309SOL     OW73823  10.231   6.922  12.756
57309SOL    HW173824  10.281   6.960  12.829
57309SOL    HW273825  10.191   6.844  12.793
57310SOL     OW73826  10.241   3.655   4.006
57310SOL    HW173827  10.318   3.614   3.968
57310SOL    HW273828  10.169   3.596   3.984
57311SOL     OW73829   3.758   4.226   7.355
57311SOL    HW173830   3.807   4.165   7.409
57311SOL    HW273831   3.791   4.312   7.380
57312SOL     OW73832   5.808   4.327   1.407
57312SOL    HW173833   5.791   4.320   1.501
57312SOL    HW273834   5.727   4.362   1.371
57313SOL     OW73835  13.273   9.135   3.895
57313SOL    HW173836  13.355   9.176   3.870
57313SOL    HW273837  13.231   9.113   3.812
57314SOL     OW73838   0.967  14.823  11.206
57314SOL    HW173839   0.989  14.770  11.130
57314SOL    HW273840   0.878  14.853  11.190
57315SOL     OW73841  12.219  10.667   2.895
57315SOL    HW173842  12.219  10.574   2.874
57315SOL    HW273843  12.195  10.710   2.813
57316SOL     OW73844   6.299   2.525  10.803
57316SOL    HW173845   6.265   2.587  10.739
57316SOL    HW273846   6.394   2.538  10.802
57317SOL     OW73847  12.334  14.771   7.463
57317SOL    HW173848  12.303  14.732   7.381
57317SOL    HW273849  12.377  14.852   7.436
57318SOL     OW73850  11.826   3.959   5.238
57318SOL    HW173851  11.914   3.941   5.270
57318SOL    HW273852  11.838   4.004   5.154
57319SOL     OW73853   8.045   1.535   3.988
57319SOL    HW173854   8.075   1.605   3.929
57319SOL    HW273855   8.099   1.460   3.966
57320SOL     OW73856   5.961   5.945   4.749
57320SOL    HW173857   5.886   5.948   4.808
57320SOL    HW273858   5.949   6.020   4.691
57321SOL     OW73859   3.517   2.497   9.013
57321SOL    HW173860   3.504   2.406   8.988
57321SOL    HW273861   3.595   2.496   9.068
57322SOL     OW73862   3.801   7.949  11.932
57322SOL    HW173863   3.846   7.903  12.003
57322SOL    HW273864   3.722   7.984  11.972
57323SOL     OW73865  11.677  11.904   8.717
57323SOL    HW173866  11.637  11.870   8.798
57323SOL    HW273867  11.751  11.846   8.702
57324SOL     OW73868  14.179   0.056  11.708
57324SOL    HW173869  14.126   0.017  11.639
57324SOL    HW273870  14.143   0.021  11.789
57325SOL     OW73871   3.123  12.362   3.159
57325SOL    HW173872   3.210  12.371   3.198
57325SOL    HW273873   3.081  12.446   3.174
57326SOL     OW73874  13.610   8.828   0.586
57326SOL    HW173875  13.543   8.882   0.630
57326SOL    HW273876  13.693   8.865   0.616
57327SOL     OW73877  13.938  10.290   0.729
57327SOL    HW173878  13.902  10.377   0.742
57327SOL    HW273879  14.021  10.305   0.684
57328SOL     OW73880   0.699  12.773  13.504
57328SOL    HW173881   0.707  12.690  13.550
57328SOL    HW273882   0.788  12.806  13.497
57329SOL     OW73883   5.932   8.352  13.029
57329SOL    HW173884   5.935   8.447  13.038
57329SOL    HW273885   5.841   8.332  13.009
57330SOL     OW73886   4.228  12.675   8.485
57330SOL    HW173887   4.184  12.696   8.402
57330SOL    HW273888   4.322  12.678   8.464
57331SOL     OW73889   3.257   9.684  10.627
57331SOL    HW173890   3.324   9.742  10.662
57331SOL    HW273891   3.252   9.612  10.691
57332SOL     OW73892   3.689   5.557   5.028
57332SOL    HW173893   3.756   5.614   5.066
57332SOL    HW273894   3.652   5.609   4.956
57333SOL     OW73895   2.346  11.431   7.531
57333SOL    HW173896   2.295  11.393   7.603
57333SOL    HW273897   2.281  11.459   7.468
57334SOL     OW73898  12.980   6.713  14.432
57334SOL    HW173899  12.970   6.707  14.337
57334SOL    HW273900  12.895   6.685  14.467
57335SOL     OW73901  12.973   7.796  10.258
57335SOL    HW173902  13.026   7.840  10.192
57335SOL    HW273903  12.884   7.826  10.242
57336SOL     OW73904  13.607   5.640   2.615
57336SOL    HW173905  13.514   5.663   2.613
57336SOL    HW273906  13.645   5.693   2.545
57337SOL     OW73907   5.637  11.712   8.680
57337SOL    HW173908   5.560  11.686   8.731
57337SOL    HW273909   5.612  11.795   8.640
57338SOL     OW73910   0.976  10.036  11.881
57338SOL    HW173911   1.057  10.031  11.932
57338SOL    HW273912   1.001  10.009  11.793
57339SOL     OW73913   3.747   4.781  11.154
57339SOL    HW173914   3.815   4.811  11.094
57339SOL    HW273915   3.752   4.685  11.149
57340SOL     OW73916   6.598   0.891   5.827
57340SOL    HW173917   6.598   0.965   5.766
57340SOL    HW273918   6.509   0.855   5.821
57341SOL     OW73919  12.128   5.345   3.480
57341SOL    HW173920  12.157   5.435   3.467
57341SOL    HW273921  12.071   5.327   3.405
57342SOL     OW73922   9.534   3.179  11.445
57342SOL    HW173923   9.481   3.119  11.498
57342SOL    HW273924   9.470   3.239  11.406
57343SOL     OW73925  10.948  14.538   1.410
57343SOL    HW173926  11.015  14.588   1.365
57343SOL    HW273927  10.934  14.585   1.493
57344SOL     OW73928  10.665   7.935  14.551
57344SOL    HW173929  10.668   7.862  14.613
57344SOL    HW273930  10.712   7.903  14.474
57345SOL     OW73931   6.952  10.157  10.806
57345SOL    HW173932   7.048  10.156  10.798
57345SOL    HW273933   6.934  10.230  10.865
57346SOL     OW73934   0.095   0.313   9.457
57346SOL    HW173935   0.128   0.359   9.380
57346SOL    HW273936   0.010   0.279   9.430
57347SOL     OW73937   7.841   3.118   3.846
57347SOL    HW173938   7.767   3.178   3.838
57347SOL    HW273939   7.889   3.149   3.923
57348SOL     OW73940  14.581  13.463   4.837
57348SOL    HW173941  14.581  13.553   4.871
57348SOL    HW273942  14.518  13.417   4.891
57349SOL     OW73943   0.142   1.382   1.013
57349SOL    HW173944   0.178   1.375   0.925
57349SOL    HW273945   0.209   1.345   1.070
57350SOL     OW73946  13.675  10.585   5.254
57350SOL    HW173947  13.660  10.525   5.181
57350SOL    HW273948  13.765  10.567   5.281
57351SOL     OW73949  11.288   7.504  14.509
57351SOL    HW173950  11.352   7.475  14.574
57351SOL    HW273951  11.337   7.561  14.450
57352SOL     OW73952   9.376   3.224  10.095
57352SOL    HW173953   9.353   3.303  10.045
57352SOL    HW273954   9.469   3.211  10.076
57353SOL     OW73955   0.246   2.968   7.525
57353SOL    HW173956   0.225   2.912   7.600
57353SOL    HW273957   0.338   2.951   7.507
57354SOL     OW73958  14.451   9.920   4.930
57354SOL    HW173959  14.489   9.893   5.013
57354SOL    HW273960  14.413   9.839   4.894
57355SOL     OW73961   8.122   9.886   6.626
57355SOL    HW173962   8.147   9.898   6.718
57355SOL    HW273963   8.102   9.793   6.619
57356SOL     OW73964   6.841  14.561   0.266
57356SOL    HW173965   6.924  14.608   0.268
57356SOL    HW273966   6.863  14.472   0.295
57357SOL     OW73967   2.677  11.289   8.186
57357SOL    HW173968   2.684  11.314   8.094
57357SOL    HW273969   2.709  11.199   8.189
57358SOL     OW73970  13.395  13.072   5.268
57358SOL    HW173971  13.449  13.083   5.190
57358SOL    HW273972  13.309  13.048   5.234
57359SOL     OW73973   8.638   6.119   9.020
57359SOL    HW173974   8.579   6.100   9.093
57359SOL    HW273975   8.597   6.193   8.974
57360SOL     OW73976   0.612  14.512   0.617
57360SOL    HW173977   0.592  14.420   0.602
57360SOL    HW273978   0.544  14.559   0.568
57361SOL     OW73979   7.595   4.028   0.999
57361SOL    HW173980   7.682   4.008   1.034
57361SOL    HW273981   7.612   4.062   0.911
57362SOL     OW73982   7.342   9.166  12.359
57362SOL    HW173983   7.398   9.220  12.415
57362SOL    HW273984   7.320   9.224  12.285
57363SOL     OW73985   4.544   8.030   4.316
57363SOL    HW173986   4.506   8.102   4.365
57363SOL    HW273987   4.623   8.067   4.275
57364SOL     OW73988  14.741   2.736   8.237
57364SOL    HW173989  14.663   2.766   8.284
57364SOL    HW273990  14.717   2.745   8.145
57365SOL     OW73991   3.370  12.102   2.022
57365SOL    HW173992   3.457  12.070   2.043
57365SOL    HW273993   3.380  12.146   1.938
57366SOL     OW73994   1.874  14.422   7.293
57366SOL    HW173995   1.840  14.362   7.360
57366SOL    HW273996   1.824  14.503   7.306
57367SOL     OW73997   8.246  10.242   9.890
57367SOL    HW173998   8.214  10.323   9.929
57367SOL    HW273999   8.303  10.204   9.957
57368SOL     OW74000  10.577  11.855  13.520
57368SOL    HW174001  10.496  11.805  13.516
57368SOL    HW274002  10.564  11.915  13.594
57369SOL     OW74003  11.055   7.560   8.661
57369SOL    HW174004  11.148   7.581   8.667
57369SOL    HW274005  11.036   7.560   8.567
57370SOL     OW74006   7.128   7.427   0.408
57370SOL    HW174007   7.197   7.466   0.354
57370SOL    HW274008   7.046   7.450   0.364
57371SOL     OW74009   6.480   3.457   4.356
57371SOL    HW174010   6.496   3.382   4.299
57371SOL    HW274011   6.446   3.525   4.298
57372SOL     OW74012  13.652  13.504   2.198
57372SOL    HW174013  13.640  13.436   2.131
57372SOL    HW274014  13.653  13.586   2.149
57373SOL     OW74015  11.466  11.991  12.124
57373SOL    HW174016  11.505  12.071  12.088
57373SOL    HW274017  11.386  12.021  12.166
57374SOL     OW74018   6.220   6.229   6.129
57374SOL    HW174019   6.221   6.295   6.059
57374SOL    HW274020   6.238   6.279   6.208
57375SOL     OW74021   7.611  10.009   0.857
57375SOL    HW174022   7.628   9.915   0.856
57375SOL    HW274023   7.519  10.017   0.830
57376SOL     OW74024   8.449   1.129   2.754
57376SOL    HW174025   8.357   1.149   2.738
57376SOL    HW274026   8.464   1.156   2.845
57377SOL     OW74027   7.760   4.290   5.375
57377SOL    HW174028   7.781   4.311   5.466
57377SOL    HW274029   7.709   4.210   5.380
57378SOL     OW74030   2.011   6.658   9.381
57378SOL    HW174031   2.101   6.663   9.347
57378SOL    HW274032   2.017   6.599   9.456
57379SOL     OW74033  13.558   9.407   0.769
57379SOL    HW174034  13.624   9.451   0.716
57379SOL    HW274035  13.608   9.351   0.829
57380SOL     OW74036  11.328   6.949   3.097
57380SOL    HW174037  11.348   6.976   3.187
57380SOL    HW274038  11.319   7.031   3.049
57381SOL     OW74039   3.253  13.947   9.209
57381SOL    HW174040   3.287  13.980   9.292
57381SOL    HW274041   3.315  13.878   9.184
57382SOL     OW74042   5.330   7.090  13.156
57382SOL    HW174043   5.281   7.029  13.211
57382SOL    HW274044   5.359   7.037  13.082
57383SOL     OW74045   1.073  11.329  10.097
57383SOL    HW174046   1.002  11.392  10.092
57383SOL    HW274047   1.063  11.287  10.183
57384SOL     OW74048   0.425   1.067   7.975
57384SOL    HW174049   0.516   1.079   7.947
57384SOL    HW274050   0.373   1.081   7.895
57385SOL     OW74051   6.810   2.220  12.111
57385SOL    HW174052   6.755   2.199  12.187
57385SOL    HW274053   6.878   2.277  12.147
57386SOL     OW74054  14.539   8.512  11.770
57386SOL    HW174055  14.510   8.450  11.837
57386SOL    HW274056  14.465   8.571  11.759
57387SOL     OW74057   5.536   3.317   0.386
57387SOL    HW174058   5.626   3.343   0.405
57387SOL    HW274059   5.487   3.345   0.463
57388SOL     OW74060   4.356   9.756   9.787
57388SOL    HW174061   4.445   9.764   9.752
57388SOL    HW274062   4.300   9.768   9.711
57389SOL     OW74063  13.657   3.512  11.573
57389SOL    HW174064  13.735   3.472  11.537
57389SOL    HW274065  13.627   3.572  11.504
57390SOL     OW74066   5.617   3.979  13.357
57390SOL    HW174067   5.660   3.928  13.289
57390SOL    HW274068   5.533   3.935  13.371
57391SOL     OW74069  10.378   8.120   6.314
57391SOL    HW174070  10.435   8.128   6.238
57391SOL    HW274071  10.388   8.202   6.362
57392SOL     OW74072  13.569  11.278   4.270
57392SOL    HW174073  13.608  11.343   4.328
57392SOL    HW274074  13.523  11.330   4.203
57393SOL     OW74075   1.489   0.523   5.460
57393SOL    HW174076   1.493   0.609   5.501
57393SOL    HW274077   1.501   0.461   5.532
57394SOL     OW74078   5.634  12.422   7.764
57394SOL    HW174079   5.706  12.443   7.704
57394SOL    HW274080   5.673  12.363   7.829
57395SOL     OW74081  10.798   0.935   2.471
57395SOL    HW174082  10.818   0.846   2.502
57395SOL    HW274083  10.874   0.960   2.419
57396SOL     OW74084   2.693   9.414   1.896
57396SOL    HW174085   2.708   9.505   1.870
57396SOL    HW274086   2.599   9.408   1.911
57397SOL     OW74087  14.356  14.790   7.318
57397SOL    HW174088  14.429  14.781   7.379
57397SOL    HW274089  14.367   0.009   7.280
57398SOL     OW74090  14.738   5.148   1.198
57398SOL    HW174091  14.819   5.113   1.236
57398SOL    HW274092  14.697   5.074   1.155
57399SOL     OW74093  10.915  11.777   6.719
57399SOL    HW174094  10.960  11.813   6.642
57399SOL    HW274095  10.934  11.840   6.789
57400SOL     OW74096   0.108  14.830   8.182
57400SOL    HW174097   0.128  14.829   8.276
57400SOL    HW274098   0.050   0.038   8.171
57401SOL     OW74099  13.716  11.242   5.437
57401SOL    HW174100  13.781  11.308   5.412
57401SOL    HW274101  13.634  11.274   5.399
57402SOL     OW74102   3.883   1.250   4.865
57402SOL    HW174103   3.859   1.334   4.905
57402SOL    HW274104   3.914   1.196   4.938
57403SOL     OW74105   6.685  14.803   6.100
57403SOL    HW174106   6.601  14.847   6.116
57403SOL    HW274107   6.667  14.740   6.030
57404SOL     OW74108  12.763  13.638  13.557
57404SOL    HW174109  12.699  13.588  13.505
57404SOL    HW274110  12.843  13.587  13.552
57405SOL     OW74111  12.914   7.957   9.111
57405SOL    HW174112  13.001   7.924   9.134
57405SOL    HW274113  12.930   8.022   9.042
57406SOL     OW74114   3.847   3.123  11.871
57406SOL    HW174115   3.806   3.207  11.851
57406SOL    HW274116   3.840   3.073  11.791
57407SOL     OW74117  13.992  14.063   9.402
57407SOL    HW174118  13.990  14.057   9.498
57407SOL    HW274119  13.907  14.030   9.374
57408SOL     OW74120   0.508   0.483   3.294
57408SOL    HW174121   0.564   0.413   3.260
57408SOL    HW274122   0.437   0.437   3.338
57409SOL     OW74123   8.672  10.373  11.588
57409SOL    HW174124   8.726  10.299  11.561
57409SOL    HW274125   8.735  10.438  11.621
57410SOL     OW74126   7.795  14.527  11.125
57410SOL    HW174127   7.774  14.591  11.192
57410SOL    HW274128   7.888  14.539  11.109
57411SOL     OW74129   6.537   7.175   2.527
57411SOL    HW174130   6.568   7.147   2.613
57411SOL    HW274131   6.602   7.238   2.498
57412SOL     OW74132   2.165   1.070   2.183
57412SOL    HW174133   2.250   1.035   2.158
57412SOL    HW274134   2.112   1.061   2.103
57413SOL     OW74135   5.834  12.949   1.417
57413SOL    HW174136   5.752  12.903   1.399
57413SOL    HW274137   5.902  12.892   1.382
57414SOL     OW74138   8.342   2.435  14.576
57414SOL    HW174139   8.249   2.413  14.572
57414SOL    HW274140   8.344   2.530  14.566
57415SOL     OW74141   5.452  11.145   4.281
57415SOL    HW174142   5.410  11.095   4.351
57415SOL    HW274143   5.543  11.154   4.309
57416SOL     OW74144  13.571   0.237   9.693
57416SOL    HW174145  13.549   0.151   9.726
57416SOL    HW274146  13.614   0.281   9.766
57417SOL     OW74147  14.304   9.300  11.241
57417SOL    HW174148  14.357   9.367  11.198
57417SOL    HW274149  14.222   9.300  11.192
57418SOL     OW74150  12.706   1.801   2.239
57418SOL    HW174151  12.758   1.769   2.313
57418SOL    HW274152  12.616   1.803   2.273
57419SOL     OW74153   5.240  11.249  11.834
57419SOL    HW174154   5.330  11.218  11.828
57419SOL    HW274155   5.207  11.244  11.745
57420SOL     OW74156   4.510   2.531   9.995
57420SOL    HW174157   4.519   2.493   9.908
57420SOL    HW274158   4.556   2.614   9.991
57421SOL     OW74159   0.351   3.393   9.761
57421SOL    HW174160   0.391   3.352   9.685
57421SOL    HW274161   0.424   3.435   9.807
57422SOL     OW74162  10.110  11.816   0.151
57422SOL    HW174163  10.127  11.842   0.241
57422SOL    HW274164  10.146  11.728   0.144
57423SOL     OW74165   4.010  11.513  10.423
57423SOL    HW174166   4.092  11.562  10.416
57423SOL    HW274167   4.037  11.422  10.431
57424SOL     OW74168  12.055  13.751  10.402
57424SOL    HW174169  12.087  13.783  10.486
57424SOL    HW274170  11.960  13.764  10.405
57425SOL     OW74171   3.097  11.449   7.132
57425SOL    HW174172   3.165  11.516   7.130
57425SOL    HW274173   3.017  11.494   7.106
57426SOL     OW74174   9.900  14.607  11.885
57426SOL    HW174175   9.810  14.620  11.914
57426SOL    HW274176   9.893  14.596  11.790
57427SOL     OW74177  10.195   4.077   5.524
57427SOL    HW174178  10.144   4.046   5.449
57427SOL    HW274179  10.245   4.001   5.553
57428SOL     OW74180   7.888   5.922   1.331
57428SOL    HW174181   7.964   5.931   1.388
57428SOL    HW274182   7.817   5.898   1.390
57429SOL     OW74183   9.627   2.353  14.511
57429SOL    HW174184   9.631   2.417  14.582
57429SOL    HW274185   9.599   2.403  14.434
57430SOL     OW74186  14.664   5.953   3.677
57430SOL    HW174187  14.602   6.010   3.722
57430SOL    HW274188  14.654   5.975   3.584
57431SOL     OW74189   0.457   2.977  10.661
57431SOL    HW174190   0.514   2.938  10.728
57431SOL    HW274191   0.401   2.905  10.632
57432SOL     OW74192   4.408  11.903   6.638
57432SOL    HW174193   4.432  11.939   6.552
57432SOL    HW274194   4.478  11.930   6.697
57433SOL     OW74195  13.991  10.542  14.037
57433SOL    HW174196  14.048  10.528  14.113
57433SOL    HW274197  13.949  10.457  14.023
57434SOL     OW74198  12.197   8.569  12.961
57434SOL    HW174199  12.276   8.577  12.908
57434SOL    HW274200  12.204   8.640  13.025
57435SOL     OW74201  12.302   2.902  13.909
57435SOL    HW174202  12.209   2.901  13.929
57435SOL    HW274203  12.311   2.850  13.829
57436SOL     OW74204   5.783   1.427   4.517
57436SOL    HW174205   5.864   1.412   4.467
57436SOL    HW274206   5.796   1.511   4.560
57437SOL     OW74207  11.474   2.714   1.009
57437SOL    HW174208  11.419   2.768   0.953
57437SOL    HW274209  11.562   2.751   0.998
57438SOL     OW74210   7.594   2.108   9.187
57438SOL    HW174211   7.560   2.127   9.275
57438SOL    HW274212   7.540   2.161   9.128
57439SOL     OW74213   7.225  12.735   8.325
57439SOL    HW174214   7.265  12.818   8.352
57439SOL    HW274215   7.256  12.671   8.389
57440SOL     OW74216  13.992  10.667  12.439
57440SOL    HW174217  13.975  10.742  12.497
57440SOL    HW274218  13.924  10.673  12.372
57441SOL     OW74219   8.159  13.785   6.385
57441SOL    HW174220   8.168  13.689   6.386
57441SOL    HW274221   8.065  13.801   6.389
57442SOL     OW74222   9.748   4.584   9.086
57442SOL    HW174223   9.759   4.679   9.095
57442SOL    HW274224   9.837   4.549   9.092
57443SOL     OW74225   8.944   9.710   0.303
57443SOL    HW174226   8.855   9.744   0.292
57443SOL    HW274227   8.998   9.788   0.313
57444SOL     OW74228   2.954  12.004   8.913
57444SOL    HW174229   2.886  12.057   8.869
57444SOL    HW274230   2.998  12.066   8.971
57445SOL     OW74231   5.090   5.296  14.144
57445SOL    HW174232   4.997   5.272  14.139
57445SOL    HW274233   5.123   5.250  14.221
57446SOL     OW74234   9.370   1.044   7.723
57446SOL    HW174235   9.340   1.045   7.813
57446SOL    HW274236   9.410   0.958   7.711
57447SOL     OW74237   2.639  10.272   4.016
57447SOL    HW174238   2.713  10.213   3.999
57447SOL    HW274239   2.588  10.227   4.084
57448SOL     OW74240  12.640   5.585  12.412
57448SOL    HW174241  12.618   5.666  12.365
57448SOL    HW274242  12.681   5.615  12.493
57449SOL     OW74243  11.384  12.221  10.743
57449SOL    HW174244  11.400  12.127  10.742
57449SOL    HW274245  11.376  12.246  10.651
57450SOL     OW74246   3.258  13.471   0.994
57450SOL    HW174247   3.231  13.562   0.989
57450SOL    HW274248   3.328  13.470   1.058
57451SOL     OW74249   8.258   1.879   8.286
57451SOL    HW174250   8.338   1.875   8.234
57451SOL    HW274251   8.232   1.787   8.296
57452SOL     OW74252  10.831   4.547   7.134
57452SOL    HW174253  10.884   4.598   7.195
57452SOL    HW274254  10.776   4.492   7.190
57453SOL     OW74255  10.455  13.515   4.430
57453SOL    HW174256  10.431  13.444   4.490
57453SOL    HW274257  10.371  13.555   4.406
57454SOL     OW74258   6.395  10.746   5.353
57454SOL    HW174259   6.451  10.718   5.425
57454SOL    HW274260   6.432  10.830   5.325
57455SOL     OW74261  14.811  11.715   0.192
57455SOL    HW174262  14.846  11.773   0.260
57455SOL    HW274263   0.020  11.684   0.145
57456SOL     OW74264  12.001   6.178   0.513
57456SOL    HW174265  12.096   6.188   0.520
57456SOL    HW274266  11.965   6.232   0.584
57457SOL     OW74267  11.400   2.016   0.801
57457SOL    HW174268  11.475   2.048   0.851
57457SOL    HW274269  11.345   1.970   0.865
57458SOL     OW74270  12.284   6.375   7.614
57458SOL    HW174271  12.350   6.405   7.676
57458SOL    HW274272  12.333   6.352   7.536
57459SOL     OW74273  10.986   7.468   8.136
57459SOL    HW174274  10.913   7.516   8.096
57459SOL    HW274275  11.001   7.394   8.077
57460SOL     OW74276   7.292   9.238   0.961
57460SOL    HW174277   7.221   9.294   0.994
57460SOL    HW274278   7.366   9.297   0.950
57461SOL     OW74279   9.788   0.103  11.588
57461SOL    HW174280   9.730   0.098  11.664
57461SOL    HW274281   9.730   0.125  11.515
57462SOL     OW74282  14.309  11.052   0.968
57462SOL    HW174283  14.284  11.081   0.880
57462SOL    HW274284  14.380  11.111   0.993
57463SOL     OW74285   2.988   9.953  10.614
57463SOL    HW174286   3.079   9.976  10.634
57463SOL    HW274287   2.987   9.857  10.610
57464SOL     OW74288   3.581   3.085   2.849
57464SOL    HW174289   3.507   3.116   2.900
57464SOL    HW274290   3.603   3.158   2.791
57465SOL     OW74291   1.389   9.539   1.652
57465SOL    HW174292   1.311   9.593   1.643
57465SOL    HW274293   1.461   9.595   1.626
57466SOL     OW74294  10.742  13.008   5.364
57466SOL    HW174295  10.800  13.080   5.386
57466SOL    HW274296  10.799  12.932   5.357
57467SOL     OW74297   7.594   5.209   0.071
57467SOL    HW174298   7.501   5.197   0.048
57467SOL    HW274299   7.640   5.202  14.855
57468SOL     OW74300   4.729   4.936   1.680
57468SOL    HW174301   4.818   4.912   1.654
57468SOL    HW274302   4.695   4.859   1.726
57469SOL     OW74303   0.979   8.361  12.616
57469SOL    HW174304   0.950   8.301  12.684
57469SOL    HW274305   1.074   8.361  12.623
57470SOL     OW74306   3.534   0.229   9.833
57470SOL    HW174307   3.539   0.158   9.768
57470SOL    HW274308   3.546   0.185   9.917
57471SOL     OW74309   2.831   8.291   0.649
57471SOL    HW174310   2.858   8.201   0.632
57471SOL    HW274311   2.775   8.285   0.726
57472SOL     OW74312  13.741   0.371  10.319
57472SOL    HW174313  13.726   0.450  10.371
57472SOL    HW274314  13.664   0.317  10.335
57473SOL     OW74315  10.119  12.236   7.711
57473SOL    HW174316  10.070  12.262   7.633
57473SOL    HW274317  10.102  12.306   7.775
57474SOL     OW74318   2.846  10.669  12.716
57474SOL    HW174319   2.785  10.665  12.642
57474SOL    HW274320   2.842  10.581  12.754
57475SOL     OW74321   0.472   4.144  10.994
57475SOL    HW174322   0.444   4.076  11.055
57475SOL    HW274323   0.400   4.208  10.995
57476SOL     OW74324   8.172   9.383   6.820
57476SOL    HW174325   8.185   9.463   6.770
57476SOL    HW274326   8.121   9.326   6.763
57477SOL     OW74327   1.316   7.345  13.688
57477SOL    HW174328   1.244   7.306  13.639
57477SOL    HW274329   1.329   7.287  13.763
57478SOL     OW74330  14.193   5.925   2.175
57478SOL    HW174331  14.214   5.836   2.147
57478SOL    HW274332  14.100   5.920   2.199
57479SOL     OW74333   8.071  10.765   7.251
57479SOL    HW174334   8.014  10.808   7.187
57479SOL    HW274335   8.041  10.675   7.253
57480SOL     OW74336   6.664   2.328   0.632
57480SOL    HW174337   6.661   2.404   0.574
57480SOL    HW274338   6.685   2.255   0.574
57481SOL     OW74339  13.553   3.711  12.133
57481SOL    HW174340  13.634   3.665  12.153
57481SOL    HW274341  13.564   3.797  12.173
57482SOL     OW74342   3.589  10.129   9.869
57482SOL    HW174343   3.494  10.126   9.870
57482SOL    HW274344   3.611  10.188   9.797
57483SOL     OW74345  10.474   3.370   3.850
57483SOL    HW174346  10.496   3.451   3.897
57483SOL    HW274347  10.466   3.397   3.759
57484SOL     OW74348  11.155   6.722  14.839
57484SOL    HW174349  11.132   6.805  14.798
57484SOL    HW274350  11.083   6.705   0.032
57485SOL     OW74351   5.083   6.756   4.013
57485SOL    HW174352   5.060   6.837   3.968
57485SOL    HW274353   5.047   6.687   3.958
57486SOL     OW74354   2.036  14.101   5.901
57486SOL    HW174355   2.015  14.184   5.943
57486SOL    HW274356   2.029  14.036   5.970
57487SOL     OW74357   9.439   9.754   9.246
57487SOL    HW174358   9.461   9.831   9.194
57487SOL    HW274359   9.413   9.687   9.183
57488SOL     OW74360  11.051  10.458   8.967
57488SOL    HW174361  11.060  10.376   8.920
57488SOL    HW274362  10.973  10.500   8.930
57489SOL     OW74363  10.311   6.861   6.549
57489SOL    HW174364  10.332   6.833   6.638
57489SOL    HW274365  10.389   6.908   6.519
57490SOL     OW74366   5.824   3.142   0.530
57490SOL    HW174367   5.833   3.138   0.435
57490SOL    HW274368   5.800   3.053   0.556
57491SOL     OW74369   4.960   5.351   1.311
57491SOL    HW174370   4.938   5.393   1.228
57491SOL    HW274371   4.982   5.423   1.370
57492SOL     OW74372   1.742  11.280   6.056
57492SOL    HW174373   1.830  11.244   6.045
57492SOL    HW274374   1.688  11.231   5.994
57493SOL     OW74375   4.360   7.056  12.048
57493SOL    HW174376   4.279   7.104  12.036
57493SOL    HW274377   4.334   6.964  12.044
57494SOL     OW74378  10.081   6.027  12.679
57494SOL    HW174379  10.113   6.080  12.752
57494SOL    HW274380  10.091   6.083  12.602
57495SOL     OW74381   9.788   1.223   4.600
57495SOL    HW174382   9.764   1.314   4.618
57495SOL    HW274383   9.784   1.179   4.685
57496SOL     OW74384   5.671   8.172  12.982
57496SOL    HW174385   5.692   8.094  13.033
57496SOL    HW274386   5.588   8.204  13.018
57497SOL     OW74387   9.403   1.773   1.387
57497SOL    HW174388   9.434   1.728   1.466
57497SOL    HW274389   9.480   1.775   1.330
57498SOL     OW74390  10.107  10.698  14.057
57498SOL    HW174391  10.185  10.741  14.092
57498SOL    HW274392  10.118  10.703  13.962
57499SOL     OW74393  13.883   8.984   4.387
57499SOL    HW174394  13.827   9.026   4.453
57499SOL    HW274395  13.972   9.009   4.413
57500SOL     OW74396  12.172   2.949  12.612
57500SOL    HW174397  12.220   3.013  12.559
57500SOL    HW274398  12.232   2.874  12.618
57501SOL     OW74399   1.480   9.417   4.619
57501SOL    HW174400   1.515   9.496   4.578
57501SOL    HW274401   1.385   9.431   4.620
57502SOL     OW74402   0.505   7.103   6.661
57502SOL    HW174403   0.495   7.198   6.657
57502SOL    HW274404   0.539   7.085   6.748
57503SOL     OW74405   2.604   3.132   4.013
57503SOL    HW174406   2.636   3.221   4.029
57503SOL    HW274407   2.676   3.075   4.041
57504SOL     OW74408  11.166   4.334   2.866
57504SOL    HW174409  11.138   4.279   2.793
57504SOL    HW274410  11.248   4.373   2.836
57505SOL     OW74411   6.704  12.313  11.656
57505SOL    HW174412   6.620  12.358  11.652
57505SOL    HW274413   6.743  12.328  11.570
57506SOL     OW74414  14.201   5.583  12.621
57506SOL    HW174415  14.173   5.650  12.558
57506SOL    HW274416  14.295   5.575  12.607
57507SOL     OW74417   5.405   6.500   2.494
57507SOL    HW174418   5.465   6.515   2.421
57507SOL    HW274419   5.320   6.528   2.460
57508SOL     OW74420  11.002   3.316  11.847
57508SOL    HW174421  11.094   3.329  11.825
57508SOL    HW274422  11.003   3.259  11.924
57509SOL     OW74423  14.807  10.139   6.067
57509SOL    HW174424  14.777  10.157   6.156
57509SOL    HW274425  14.749  10.070   6.036
57510SOL     OW74426   0.623  11.452  11.542
57510SOL    HW174427   0.625  11.514  11.615
57510SOL    HW274428   0.633  11.366  11.584
57511SOL     OW74429   6.333   4.047   0.869
57511SOL    HW174430   6.343   4.030   0.776
57511SOL    HW274431   6.398   3.990   0.911
57512SOL     OW74432   4.050  10.526  14.002
57512SOL    HW174433   3.964  10.498  14.034
57512SOL    HW274434   4.037  10.618  13.979
57513SOL     OW74435   0.638   3.761   8.002
57513SOL    HW174436   0.681   3.824   7.944
57513SOL    HW274437   0.703   3.692   8.015
57514SOL     OW74438   1.203   5.259   0.664
57514SOL    HW174439   1.291   5.261   0.627
57514SOL    HW274440   1.179   5.352   0.673
57515SOL     OW74441   2.873  11.089   6.240
57515SOL    HW174442   2.853  11.085   6.334
57515SOL    HW274443   2.948  11.149   6.234
57516SOL     OW74444   2.671  11.219   6.027
57516SOL    HW174445   2.728  11.195   6.101
57516SOL    HW274446   2.689  11.312   6.012
57517SOL     OW74447   3.247   9.430   5.560
57517SOL    HW174448   3.329   9.443   5.513
57517SOL    HW274449   3.224   9.516   5.594
57518SOL     OW74450   2.775   8.805   1.119
57518SOL    HW174451   2.849   8.800   1.059
57518SOL    HW274452   2.746   8.896   1.112
57519SOL     OW74453   5.368   9.876  13.719
57519SOL    HW174454   5.349   9.935  13.646
57519SOL    HW274455   5.455   9.841  13.700
57520SOL     OW74456  12.858   6.623   5.289
57520SOL    HW174457  12.821   6.711   5.283
57520SOL    HW274458  12.888   6.604   5.201
57521SOL     OW74459   2.996  11.382   9.888
57521SOL    HW174460   2.916  11.334   9.910
57521SOL    HW274461   3.024  11.421   9.971
57522SOL     OW74462  13.961  13.152  11.019
57522SOL    HW174463  13.970  13.143  11.114
57522SOL    HW274464  14.047  13.179  10.988
57523SOL     OW74465   3.466   3.495  13.504
57523SOL    HW174466   3.405   3.451  13.444
57523SOL    HW274467   3.503   3.424  13.557
57524SOL     OW74468   1.727   0.003   8.095
57524SOL    HW174469   1.671   0.047   8.030
57524SOL    HW274470   1.674  14.799   8.128
57525SOL     OW74471  10.475  12.087   7.932
57525SOL    HW174472  10.492  12.055   8.021
57525SOL    HW274473  10.503  12.178   7.933
57526SOL     OW74474   9.871   4.033   1.731
57526SOL    HW174475   9.839   4.060   1.645
57526SOL    HW274476   9.835   4.098   1.791
57527SOL     OW74477  14.671   3.219   7.116
57527SOL    HW174478  14.625   3.182   7.190
57527SOL    HW274479  14.663   3.314   7.127
57528SOL     OW74480   4.357  10.047  14.565
57528SOL    HW174481   4.277   9.995  14.565
57528SOL    HW274482   4.387  10.045  14.656
57529SOL     OW74483  11.812  12.666   0.389
57529SOL    HW174484  11.727  12.678   0.430
57529SOL    HW274485  11.807  12.579   0.348
57530SOL     OW74486  12.328   0.550  12.746
57530SOL    HW174487  12.420   0.561  12.721
57530SOL    HW274488  12.322   0.458  12.772
57531SOL     OW74489   4.764   9.463   9.433
57531SOL    HW174490   4.715   9.456   9.352
57531SOL    HW274491   4.703   9.436   9.502
57532SOL     OW74492   0.581  11.596  10.616
57532SOL    HW174493   0.520  11.649  10.566
57532SOL    HW274494   0.539  11.510  10.621
57533SOL     OW74495   4.356  11.192   7.533
57533SOL    HW174496   4.312  11.106   7.537
57533SOL    HW274497   4.299  11.245   7.478
57534SOL     OW74498  12.399   9.372   7.343
57534SOL    HW174499  12.351   9.427   7.281
57534SOL    HW274500  12.333   9.349   7.409
57535SOL     OW74501  14.423   6.988  13.973
57535SOL    HW174502  14.344   6.943  13.942
57535SOL    HW274503  14.412   6.995  14.067
57536SOL     OW74504   1.116   3.639  12.102
57536SOL    HW174505   1.103   3.708  12.037
57536SOL    HW274506   1.031   3.630  12.145
57537SOL     OW74507  13.025  11.190   5.601
57537SOL    HW174508  13.040  11.284   5.600
57537SOL    HW274509  13.113  11.152   5.606
57538SOL     OW74510   0.077  14.259   1.373
57538SOL    HW174511   0.131  14.313   1.315
57538SOL    HW274512  14.856  14.293   1.363
57539SOL     OW74513   1.793   5.241  14.539
57539SOL    HW174514   1.818   5.214  14.628
57539SOL    HW274515   1.805   5.162  14.486
57540SOL     OW74516   1.961   7.891  11.163
57540SOL    HW174517   1.911   7.809  11.172
57540SOL    HW274518   1.902   7.949  11.115
57541SOL     OW74519   8.660  13.676  13.702
57541SOL    HW174520   8.752  13.652  13.705
57541SOL    HW274521   8.613  13.594  13.716
57542SOL     OW74522   0.245   2.106  12.999
57542SOL    HW174523   0.190   2.034  13.030
57542SOL    HW274524   0.276   2.077  12.913
57543SOL     OW74525   9.141   4.490  10.329
57543SOL    HW174526   9.192   4.516  10.406
57543SOL    HW274527   9.135   4.570  10.276
57544SOL     OW74528   7.651  13.092   9.203
57544SOL    HW174529   7.736  13.050   9.190
57544SOL    HW274530   7.600  13.028   9.253
57545SOL     OW74531   1.967   9.846   7.829
57545SOL    HW174532   1.871   9.854   7.832
57545SOL    HW274533   1.987   9.847   7.735
57546SOL     OW74534   3.369   3.936  14.110
57546SOL    HW174535   3.414   4.020  14.108
57546SOL    HW274536   3.294   3.950  14.169
57547SOL     OW74537  12.768   7.215   1.263
57547SOL    HW174538  12.805   7.134   1.229
57547SOL    HW274539  12.786   7.280   1.195
57548SOL     OW74540   0.563   9.613   6.404
57548SOL    HW174541   0.592   9.635   6.315
57548SOL    HW274542   0.475   9.576   6.392
57549SOL     OW74543   0.533   7.356  13.800
57549SOL    HW174544   0.518   7.380  13.891
57549SOL    HW274545   0.627   7.369  13.786
57550SOL     OW74546   6.415   9.268   2.656
57550SOL    HW174547   6.392   9.175   2.664
57550SOL    HW274548   6.473   9.284   2.730
57551SOL     OW74549   1.200  14.350   2.440
57551SOL    HW174550   1.149  14.359   2.360
57551SOL    HW274551   1.266  14.284   2.418
57552SOL     OW74552   4.106   5.454  11.915
57552SOL    HW174553   4.141   5.369  11.943
57552SOL    HW274554   4.066   5.490  11.995
57553SOL     OW74555   8.375   1.865   0.543
57553SOL    HW174556   8.442   1.829   0.602
57553SOL    HW274557   8.408   1.847   0.455
57554SOL     OW74558   7.196   5.146  12.215
57554SOL    HW174559   7.106   5.118  12.230
57554SOL    HW274560   7.220   5.194  12.294
57555SOL     OW74561  13.154   6.222  12.991
57555SOL    HW174562  13.148   6.153  12.925
57555SOL    HW274563  13.075   6.275  12.978
57556SOL     OW74564   5.557   5.038   3.469
57556SOL    HW174565   5.611   4.992   3.405
57556SOL    HW274566   5.552   4.978   3.543
57557SOL     OW74567  13.548  12.667  14.061
57557SOL    HW174568  13.562  12.634  14.150
57557SOL    HW274569  13.598  12.608  14.005
57558SOL     OW74570   4.477  13.076   5.915
57558SOL    HW174571   4.499  13.165   5.940
57558SOL    HW274572   4.528  13.021   5.976
57559SOL     OW74573   6.063   7.196  12.719
57559SOL    HW174574   5.979   7.201  12.673
57559SOL    HW274575   6.086   7.288  12.737
57560SOL     OW74576   0.050  14.546   3.316
57560SOL    HW174577   0.135  14.588   3.317
57560SOL    HW274578   0.031  14.531   3.223
57561SOL     OW74579   2.792   6.881   0.256
57561SOL    HW174580   2.823   6.955   0.204
57561SOL    HW274581   2.700   6.870   0.230
57562SOL     OW74582   3.947   2.340   1.743
57562SOL    HW174583   3.978   2.346   1.652
57562SOL    HW274584   3.867   2.393   1.745
57563SOL     OW74585   4.634  10.318  13.885
57563SOL    HW174586   4.647  10.225  13.903
57563SOL    HW274587   4.722  10.350  13.864
57564SOL     OW74588   9.272  13.347  10.209
57564SOL    HW174589   9.219  13.343  10.288
57564SOL    HW274590   9.212  13.378  10.141
57565SOL     OW74591   1.692   6.709  13.196
57565SOL    HW174592   1.663   6.701  13.287
57565SOL    HW274593   1.786   6.726  13.202
57566SOL     OW74594   2.060   5.753  12.483
57566SOL    HW174595   1.996   5.822  12.501
57566SOL    HW274596   2.009   5.682  12.446
57567SOL     OW74597   3.726   3.514   9.585
57567SOL    HW174598   3.730   3.557   9.671
57567SOL    HW274599   3.689   3.428   9.603
57568SOL     OW74600   1.909  14.073   1.690
57568SOL    HW174601   1.832  14.094   1.743
57568SOL    HW274602   1.899  13.979   1.670
57569SOL     OW74603  13.320  14.050  11.047
57569SOL    HW174604  13.235  14.090  11.068
57569SOL    HW274605  13.299  13.981  10.985
57570SOL     OW74606   9.980  12.960   9.942
57570SOL    HW174607  10.040  12.887   9.927
57570SOL    HW274608   9.961  12.993   9.854
57571SOL     OW74609  12.525   1.283   1.159
57571SOL    HW174610  12.509   1.349   1.091
57571SOL    HW274611  12.510   1.199   1.116
57572SOL     OW74612  10.675   4.590  12.846
57572SOL    HW174613  10.673   4.505  12.889
57572SOL    HW274614  10.768   4.608  12.833
57573SOL     OW74615  11.655  14.140   8.740
57573SOL    HW174616  11.584  14.085   8.705
57573SOL    HW274617  11.702  14.169   8.662
57574SOL     OW74618   7.329   4.260   5.709
57574SOL    HW174619   7.251   4.254   5.765
57574SOL    HW274620   7.309   4.329   5.646
57575SOL     OW74621   9.613   8.939   0.414
57575SOL    HW174622   9.681   8.918   0.477
57575SOL    HW274623   9.581   9.025   0.440
57576SOL     OW74624  11.991   2.285   7.562
57576SOL    HW174625  11.957   2.367   7.598
57576SOL    HW274626  11.920   2.222   7.574
57577SOL     OW74627   9.740   0.968  10.355
57577SOL    HW174628   9.700   1.014  10.281
57577SOL    HW274629   9.797   1.033  10.396
57578SOL     OW74630   0.169  12.002   6.042
57578SOL    HW174631   0.214  12.049   5.971
57578SOL    HW274632   0.240  11.966   6.095
57579SOL     OW74633   5.022  12.921  10.206
57579SOL    HW174634   4.949  12.963  10.250
57579SOL    HW274635   5.048  12.982  10.137
57580SOL     OW74636  12.366  12.402   6.556
57580SOL    HW174637  12.438  12.462   6.577
57580SOL    HW274638  12.364  12.340   6.629
57581SOL     OW74639   9.274  11.566   4.344
57581SOL    HW174640   9.270  11.508   4.420
57581SOL    HW274641   9.360  11.549   4.306
57582SOL     OW74642   0.659   0.157   2.774
57582SOL    HW174643   0.690   0.241   2.809
57582SOL    HW274644   0.727   0.131   2.711
57583SOL     OW74645   7.533  12.178   4.283
57583SOL    HW174646   7.559  12.113   4.218
57583SOL    HW274647   7.614  12.200   4.329
57584SOL     OW74648   0.009  10.484   2.922
57584SOL    HW174649  14.811  10.553   2.931
57584SOL    HW274650  14.847  10.415   2.982
57585SOL     OW74651   1.996   7.022   0.627
57585SOL    HW174652   2.068   7.072   0.666
57585SOL    HW274653   1.927   7.087   0.612
57586SOL     OW74654   1.900   7.153   3.577
57586SOL    HW174655   1.902   7.066   3.537
57586SOL    HW274656   1.992   7.176   3.590
57587SOL     OW74657   9.315   7.641   8.775
57587SOL    HW174658   9.368   7.622   8.853
57587SOL    HW274659   9.252   7.706   8.805
57588SOL     OW74660   8.535   1.259   7.279
57588SOL    HW174661   8.511   1.341   7.322
57588SOL    HW274662   8.463   1.199   7.300
57589SOL     OW74663   9.967  12.855   1.572
57589SOL    HW174664   9.945  12.947   1.583
57589SOL    HW274665   9.981  12.823   1.662
57590SOL     OW74666  11.735  12.184  10.872
57590SOL    HW174667  11.817  12.202  10.917
57590SOL    HW274668  11.760  12.168  10.781
57591SOL     OW74669   2.369   1.449   1.603
57591SOL    HW174670   2.329   1.516   1.546
57591SOL    HW274671   2.434   1.406   1.547
57592SOL     OW74672   7.410   2.960   3.226
57592SOL    HW174673   7.367   2.874   3.230
57592SOL    HW274674   7.465   2.963   3.304
57593SOL     OW74675  14.755  10.177   5.060
57593SOL    HW174676  14.798  10.196   4.977
57593SOL    HW274677  14.758  10.260   5.108
57594SOL     OW74678  11.921   9.795   1.412
57594SOL    HW174679  11.832   9.826   1.427
57594SOL    HW274680  11.944   9.828   1.325
57595SOL     OW74681   2.237   4.840   0.417
57595SOL    HW174682   2.299   4.904   0.451
57595SOL    HW274683   2.154   4.887   0.414
57596SOL     OW74684   7.745   7.462  14.853
57596SOL    HW174685   7.776   7.371  14.847
57596SOL    HW274686   7.671   7.466  14.792
57597SOL     OW74687   3.001  10.158   8.313
57597SOL    HW174688   2.942  10.146   8.239
57597SOL    HW274689   3.022  10.069   8.342
57598SOL     OW74690  14.048  14.627   8.138
57598SOL    HW174691  14.140  14.644   8.118
57598SOL    HW274692  14.048  14.595   8.228
57599SOL     OW74693   9.853  12.183   6.214
57599SOL    HW174694   9.870  12.165   6.306
57599SOL    HW274695   9.939  12.197   6.175
57600SOL     OW74696   6.138   9.536   1.890
57600SOL    HW174697   6.117   9.541   1.983
57600SOL    HW274698   6.069   9.586   1.846
57601SOL     OW74699   8.808   5.960   3.491
57601SOL    HW174700   8.830   5.970   3.583
57601SOL    HW274701   8.716   5.934   3.490
57602SOL     OW74702  12.618   5.852  14.147
57602SOL    HW174703  12.533   5.895  14.154
57602SOL    HW274704  12.663   5.899  14.077
57603SOL     OW74705  13.201  10.113   4.889
57603SOL    HW174706  13.190  10.115   4.794
57603SOL    HW274707  13.205  10.205   4.915
57604SOL     OW74708   6.714  11.212  14.153
57604SOL    HW174709   6.725  11.117  14.150
57604SOL    HW274710   6.803  11.246  14.158
57605SOL     OW74711   8.219  14.102   1.436
57605SOL    HW174712   8.161  14.147   1.374
57605SOL    HW274713   8.165  14.089   1.514
57606SOL     OW74714  11.903   9.917   4.443
57606SOL    HW174715  11.895  10.012   4.450
57606SOL    HW274716  11.990   9.897   4.479
57607SOL     OW74717  11.762   4.217  11.244
57607SOL    HW174718  11.767   4.212  11.149
57607SOL    HW274719  11.819   4.147  11.275
57608SOL     OW74720   4.805   6.088   0.068
57608SOL    HW174721   4.763   6.072   0.152
57608SOL    HW274722   4.792   6.008   0.018
57609SOL     OW74723   4.069  10.021   8.910
57609SOL    HW174724   4.002  10.078   8.873
57609SOL    HW274725   4.072   9.945   8.851
57610SOL     OW74726   8.984  10.375   8.239
57610SOL    HW174727   8.915  10.367   8.305
57610SOL    HW274728   8.942  10.350   8.157
57611SOL     OW74729   7.056  14.486  13.411
57611SOL    HW174730   7.042  14.391  13.417
57611SOL    HW274731   7.044  14.506  13.318
57612SOL     OW74732   5.875   8.579   4.617
57612SOL    HW174733   5.789   8.538   4.607
57612SOL    HW274734   5.911   8.582   4.528
57613SOL     OW74735   9.212   7.100   1.796
57613SOL    HW174736   9.134   7.075   1.745
57613SOL    HW274737   9.260   7.018   1.807
57614SOL     OW74738  10.283  10.330  13.071
57614SOL    HW174739  10.265  10.258  13.131
57614SOL    HW274740  10.289  10.288  12.985
57615SOL     OW74741  10.023  13.429  10.022
57615SOL    HW174742  10.101  13.482  10.006
57615SOL    HW274743  10.056  13.352  10.068
57616SOL     OW74744  12.279   9.630   0.931
57616SOL    HW174745  12.364   9.603   0.966
57616SOL    HW274746  12.258   9.565   0.865
57617SOL     OW74747  11.376  14.093   3.133
57617SOL    HW174748  11.427  14.028   3.181
57617SOL    HW274749  11.396  14.076   3.041
57618SOL     OW74750   3.984   2.485   9.273
57618SOL    HW174751   4.028   2.570   9.283
57618SOL    HW274752   4.008   2.457   9.184
57619SOL     OW74753   4.707  11.124   9.398
57619SOL    HW174754   4.643  11.093   9.462
57619SOL    HW274755   4.744  11.203   9.437
57620SOL     OW74756   4.200   1.039   7.770
57620SOL    HW174757   4.210   0.950   7.735
57620SOL    HW274758   4.241   1.095   7.704
57621SOL     OW74759   8.233   8.781   2.551
57621SOL    HW174760   8.192   8.808   2.633
57621SOL    HW274761   8.171   8.718   2.514
57622SOL     OW74762   7.859   1.931   5.082
57622SOL    HW174763   7.815   1.893   5.005
57622SOL    HW274764   7.912   1.859   5.117
57623SOL     OW74765  14.686   9.390  11.310
57623SOL    HW174766  14.604   9.349  11.283
57623SOL    HW274767  14.687   9.474  11.264
57624SOL     OW74768  11.710   6.152   1.031
57624SOL    HW174769  11.628   6.190   1.064
57624SOL    HW274770  11.776   6.219   1.049
57625SOL     OW74771   5.231   1.794   3.501
57625SOL    HW174772   5.169   1.780   3.429
57625SOL    HW274773   5.198   1.738   3.572
57626SOL     OW74774  13.386  14.277   3.144
57626SOL    HW174775  13.325  14.208   3.120
57626SOL    HW274776  13.409  14.259   3.235
57627SOL     OW74777   8.412   6.190  14.431
57627SOL    HW174778   8.378   6.242  14.504
57627SOL    HW274779   8.497   6.160  14.461
57628SOL     OW74780   2.975   0.235   8.740
57628SOL    HW174781   3.064   0.270   8.731
57628SOL    HW274782   2.985   0.156   8.792
57629SOL     OW74783   6.552  14.543   1.867
57629SOL    HW174784   6.535  14.584   1.952
57629SOL    HW274785   6.571  14.451   1.888
57630SOL     OW74786   3.562  10.344  14.411
57630SOL    HW174787   3.542  10.336  14.318
57630SOL    HW274788   3.585  10.437  14.423
57631SOL     OW74789   0.421   1.283   1.601
57631SOL    HW174790   0.427   1.229   1.680
57631SOL    HW274791   0.509   1.316   1.587
57632SOL     OW74792  11.089   2.376   5.237
57632SOL    HW174793  11.096   2.467   5.207
57632SOL    HW274794  11.128   2.325   5.167
57633SOL     OW74795   8.997   0.183  12.593
57633SOL    HW174796   8.962   0.207  12.507
57633SOL    HW274797   9.058   0.112  12.575
57634SOL     OW74798   6.288  13.891   0.497
57634SOL    HW174799   6.236  13.825   0.451
57634SOL    HW274800   6.239  13.973   0.483
57635SOL     OW74801   3.520   8.507   3.072
57635SOL    HW174802   3.612   8.513   3.096
57635SOL    HW274803   3.519   8.465   2.986
57636SOL     OW74804   2.062   8.456   9.615
57636SOL    HW174805   1.990   8.479   9.674
57636SOL    HW274806   2.019   8.439   9.531
57637SOL     OW74807   5.718  14.593   7.893
57637SOL    HW174808   5.628  14.567   7.876
57637SOL    HW274809   5.762  14.511   7.916
57638SOL     OW74810   1.175   8.602   9.897
57638SOL    HW174811   1.226   8.594   9.978
57638SOL    HW274812   1.227   8.557   9.831
57639SOL     OW74813  12.133   2.503   9.458
57639SOL    HW174814  12.189   2.444   9.409
57639SOL    HW274815  12.190   2.575   9.484
57640SOL     OW74816   1.540  14.019  13.750
57640SOL    HW174817   1.629  14.015  13.717
57640SOL    HW274818   1.549  14.043  13.843
57641SOL     OW74819   6.381   4.877  11.405
57641SOL    HW174820   6.360   4.835  11.322
57641SOL    HW274821   6.394   4.805  11.467
57642SOL     OW74822   3.751   3.006  10.554
57642SOL    HW174823   3.795   2.947  10.615
57642SOL    HW274824   3.763   2.965  10.468
57643SOL     OW74825  14.837   8.510  12.550
57643SOL    HW174826  14.756   8.541  12.591
57643SOL    HW274827  14.828   8.533  12.458
57644SOL     OW74828  13.039  13.085  14.405
57644SOL    HW174829  13.002  13.009  14.361
57644SOL    HW274830  13.100  13.049  14.469
57645SOL     OW74831   0.391   2.884   0.373
57645SOL    HW174832   0.371   2.966   0.418
57645SOL    HW274833   0.405   2.821   0.444
57646SOL     OW74834   4.100   4.303  10.874
57646SOL    HW174835   4.090   4.230  10.812
57646SOL    HW274836   4.193   4.325  10.872
57647SOL     OW74837  14.233   4.397   6.804
57647SOL    HW174838  14.260   4.359   6.720
57647SOL    HW274839  14.249   4.491   6.794
57648SOL     OW74840   5.549   4.836   2.535
57648SOL    HW174841   5.596   4.870   2.612
57648SOL    HW274842   5.465   4.880   2.536
57649SOL     OW74843   9.996  12.559   3.354
57649SOL    HW174844  10.075  12.555   3.407
57649SOL    HW274845   9.962  12.469   3.357
57650SOL     OW74846   0.671  12.693  14.645
57650SOL    HW174847   0.585  12.693  14.603
57650SOL    HW274848   0.675  12.776  14.691
57651SOL     OW74849   6.735   0.999   3.465
57651SOL    HW174850   6.725   1.093   3.473
57651SOL    HW274851   6.782   0.972   3.544
57652SOL     OW74852  13.738   9.771   3.109
57652SOL    HW174853  13.762   9.772   3.017
57652SOL    HW274854  13.749   9.861   3.138
57653SOL     OW74855   8.121   2.042   2.159
57653SOL    HW174856   8.152   1.965   2.206
57653SOL    HW274857   8.141   2.115   2.218
57654SOL     OW74858   6.867   9.277   3.240
57654SOL    HW174859   6.783   9.242   3.268
57654SOL    HW274860   6.846   9.335   3.167
57655SOL     OW74861   5.243  13.362   0.397
57655SOL    HW174862   5.293  13.431   0.441
57655SOL    HW274863   5.263  13.373   0.304
57656SOL     OW74864   4.924   4.756   7.905
57656SOL    HW174865   4.861   4.707   7.852
57656SOL    HW274866   4.895   4.847   7.897
57657SOL     OW74867   1.923  14.646   2.407
57657SOL    HW174868   1.953  14.576   2.465
57657SOL    HW274869   1.993  14.710   2.409
57658SOL     OW74870   4.425   5.165  10.419
57658SOL    HW174871   4.482   5.203  10.353
57658SOL    HW274872   4.398   5.239  10.474
57659SOL     OW74873   6.091   4.910   3.486
57659SOL    HW174874   6.067   4.831   3.535
57659SOL    HW274875   6.080   4.982   3.548
57660SOL     OW74876   7.803   2.440   9.068
57660SOL    HW174877   7.851   2.365   9.032
57660SOL    HW274878   7.872   2.500   9.098
57661SOL     OW74879   3.760   8.077   9.131
57661SOL    HW174880   3.665   8.073   9.147
57661SOL    HW274881   3.788   8.159   9.172
57662SOL     OW74882   9.282   9.709   1.494
57662SOL    HW174883   9.310   9.618   1.498
57662SOL    HW274884   9.341   9.750   1.431
57663SOL     OW74885   5.049   6.228   4.689
57663SOL    HW174886   5.067   6.222   4.782
57663SOL    HW274887   5.008   6.145   4.666
57664SOL     OW74888   4.141   1.512  10.404
57664SOL    HW174889   4.103   1.600  10.403
57664SOL    HW274890   4.176   1.500  10.316
57665SOL     OW74891   0.302   6.845   2.844
57665SOL    HW174892   0.256   6.825   2.925
57665SOL    HW274893   0.337   6.761   2.815
57666SOL     OW74894   1.555   5.468   1.543
57666SOL    HW174895   1.565   5.494   1.451
57666SOL    HW274896   1.492   5.532   1.578
57667SOL     OW74897   9.330   5.414   9.903
57667SOL    HW174898   9.236   5.410   9.886
57667SOL    HW274899   9.367   5.452   9.823
57668SOL     OW74900   8.279   7.287   9.666
57668SOL    HW174901   8.334   7.345   9.612
57668SOL    HW274902   8.191   7.325   9.659
57669SOL     OW74903   2.099  14.208   8.565
57669SOL    HW174904   2.069  14.286   8.518
57669SOL    HW274905   2.099  14.138   8.500
57670SOL     OW74906   9.063   6.497   2.125
57670SOL    HW174907   8.973   6.472   2.146
57670SOL    HW274908   9.066   6.592   2.140
57671SOL     OW74909   3.005  14.861   7.416
57671SOL    HW174910   3.088   0.008   7.370
57671SOL    HW274911   2.938   0.004   7.348
57672SOL     OW74912  12.087   4.204   1.212
57672SOL    HW174913  12.023   4.147   1.169
57672SOL    HW274914  12.090   4.282   1.156
57673SOL     OW74915   8.209   8.275  13.068
57673SOL    HW174916   8.281   8.327  13.032
57673SOL    HW274917   8.242   8.244  13.152
57674SOL     OW74918   8.213   8.458   7.169
57674SOL    HW174919   8.281   8.502   7.220
57674SOL    HW274920   8.193   8.379   7.219
57675SOL     OW74921  11.072   8.091   2.173
57675SOL    HW174922  10.981   8.068   2.193
57675SOL    HW274923  11.077   8.086   2.077
57676SOL     OW74924   3.311   6.330  10.406
57676SOL    HW174925   3.261   6.257  10.371
57676SOL    HW274926   3.267   6.353  10.488
57677SOL     OW74927   0.262   4.147  12.497
57677SOL    HW174928   0.277   4.055  12.520
57677SOL    HW274929   0.348   4.188  12.506
57678SOL     OW74930   1.823   9.084   6.090
57678SOL    HW174931   1.829   9.105   5.997
57678SOL    HW274932   1.728   9.079   6.107
57679SOL     OW74933   9.745  10.216  13.682
57679SOL    HW174934   9.834  10.182  13.674
57679SOL    HW274935   9.705  10.197  13.597
57680SOL     OW74936   9.421   9.027  14.846
57680SOL    HW174937   9.432   9.008   0.072
57680SOL    HW274938   9.490   9.091  14.827
57681SOL     OW74939  10.682  12.961  10.593
57681SOL    HW174940  10.735  13.035  10.566
57681SOL    HW274941  10.714  12.939  10.681
57682SOL     OW74942  12.423  14.423   9.460
57682SOL    HW174943  12.374  14.341   9.457
57682SOL    HW274944  12.406  14.463   9.375
57683SOL     OW74945   2.263   9.065   1.974
57683SOL    HW174946   2.193   9.001   1.955
57683SOL    HW274947   2.243   9.098   2.061
57684SOL     OW74948  11.141   0.276  13.547
57684SOL    HW174949  11.201   0.242  13.480
57684SOL    HW274950  11.188   0.265  13.629
57685SOL     OW74951   0.879   6.729   4.830
57685SOL    HW174952   0.824   6.660   4.792
57685SOL    HW274953   0.885   6.795   4.761
57686SOL     OW74954   3.695   1.668   0.191
57686SOL    HW174955   3.615   1.721   0.186
57686SOL    HW274956   3.759   1.717   0.139
57687SOL     OW74957   3.677  13.662   1.000
57687SOL    HW174958   3.625  13.720   1.057
57687SOL    HW274959   3.629  13.661   0.917
57688SOL     OW74960  11.718   1.631  10.221
57688SOL    HW174961  11.683   1.713  10.257
57688SOL    HW274962  11.653   1.603  10.158
57689SOL     OW74963   0.923   1.360   7.664
57689SOL    HW174964   0.901   1.393   7.577
57689SOL    HW274965   0.891   1.270   7.664
57690SOL     OW74966   1.140   7.182   0.019
57690SOL    HW174967   1.199   7.258   0.023
57690SOL    HW274968   1.055   7.217   0.045
57691SOL     OW74969   5.584   0.968   1.018
57691SOL    HW174970   5.608   0.892   0.965
57691SOL    HW274971   5.489   0.969   1.016
57692SOL     OW74972   1.619   8.895  10.092
57692SOL    HW174973   1.657   8.840  10.160
57692SOL    HW274974   1.569   8.962  10.139
57693SOL     OW74975   2.038   7.130   5.553
57693SOL    HW174976   2.005   7.220   5.550
57693SOL    HW274977   2.117   7.135   5.607
57694SOL     OW74978   7.818   1.272   5.644
57694SOL    HW174979   7.906   1.298   5.674
57694SOL    HW274980   7.767   1.263   5.724
57695SOL     OW74981   4.762   7.686   4.118
57695SOL    HW174982   4.795   7.702   4.207
57695SOL    HW274983   4.671   7.658   4.131
57696SOL     OW74984   9.648  10.194  14.315
57696SOL    HW174985   9.641  10.216  14.222
57696SOL    HW274986   9.637  10.278  14.360
57697SOL     OW74987   9.724   1.439  13.074
57697SOL    HW174988   9.819   1.435  13.089
57697SOL    HW274989   9.705   1.359  13.026
57698SOL     OW74990   3.786   1.410   8.580
57698SOL    HW174991   3.751   1.499   8.579
57698SOL    HW274992   3.795   1.387   8.487
57699SOL     OW74993   2.138  10.794  10.876
57699SOL    HW174994   2.129  10.787  10.781
57699SOL    HW274995   2.207  10.731  10.899
57700SOL     OW74996   0.835   0.618  12.238
57700SOL    HW174997   0.912   0.611  12.293
57700SOL    HW274998   0.809   0.710  12.245
57701SOL     OW74999  12.666   1.078   7.170
57701SOL    HW175000  12.605   1.127   7.115
57701SOL    HW275001  12.676   0.994   7.125
57702SOL     OW75002   7.341   4.339  13.853
57702SOL    HW175003   7.269   4.372  13.799
57702SOL    HW275004   7.330   4.244  13.852
57703SOL     OW75005   3.350  11.298   6.861
57703SOL    HW175006   3.375  11.281   6.952
57703SOL    HW275007   3.365  11.214   6.816
57704SOL     OW75008  10.853  13.447   8.696
57704SOL    HW175009  10.912  13.478   8.627
57704SOL    HW275010  10.788  13.517   8.705
57705SOL     OW75011   1.998   9.288   0.062
57705SOL    HW175012   2.073   9.348   0.068
57705SOL    HW275013   2.037   9.201   0.075
57706SOL     OW75014   2.269   6.765   5.718
57706SOL    HW175015   2.249   6.719   5.800
57706SOL    HW275016   2.363   6.751   5.705
57707SOL     OW75017   0.762   2.489  13.117
57707SOL    HW175018   0.708   2.456  13.189
57707SOL    HW275019   0.716   2.567  13.087
57708SOL     OW75020   5.387  13.748   4.865
57708SOL    HW175021   5.478  13.769   4.847
57708SOL    HW275022   5.365  13.801   4.942
57709SOL     OW75023  10.044   4.894   5.861
57709SOL    HW175024  10.002   4.880   5.946
57709SOL    HW275025  10.137   4.880   5.878
57710SOL     OW75026  13.403   7.228   0.467
57710SOL    HW175027  13.408   7.315   0.429
57710SOL    HW275028  13.494   7.201   0.477
57711SOL     OW75029   5.107   1.545   6.738
57711SOL    HW175030   5.191   1.501   6.752
57711SOL    HW275031   5.064   1.493   6.670
57712SOL     OW75032  10.861   3.020  12.564
57712SOL    HW175033  10.831   2.983  12.481
57712SOL    HW275034  10.808   2.977  12.630
57713SOL     OW75035  10.348   2.882   1.875
57713SOL    HW175036  10.419   2.904   1.935
57713SOL    HW275037  10.279   2.945   1.896
57714SOL     OW75038  11.491   3.342  14.740
57714SOL    HW175039  11.399   3.329  14.766
57714SOL    HW275040  11.487   3.357  14.645
57715SOL     OW75041   5.746   7.821  10.503
57715SOL    HW175042   5.738   7.799  10.410
57715SOL    HW275043   5.687   7.895  10.515
57716SOL     OW75044   6.762   0.794  14.618
57716SOL    HW175045   6.808   0.864  14.666
57716SOL    HW275046   6.711   0.749  14.685
57717SOL     OW75047   3.858   2.330   2.496
57717SOL    HW175048   3.900   2.332   2.582
57717SOL    HW275049   3.836   2.422   2.478
57718SOL     OW75050   9.729   3.474  11.009
57718SOL    HW175051   9.739   3.437  11.097
57718SOL    HW275052   9.719   3.397  10.952
57719SOL     OW75053   3.572  10.245   1.000
57719SOL    HW175054   3.479  10.261   0.987
57719SOL    HW275055   3.576  10.172   1.061
57720SOL     OW75056  10.682   8.529   4.415
57720SOL    HW175057  10.775   8.539   4.433
57720SOL    HW275058  10.647   8.486   4.494
57721SOL     OW75059   4.413  11.073   4.176
57721SOL    HW175060   4.333  11.123   4.195
57721SOL    HW275061   4.474  11.137   4.140
57722SOL     OW75062  13.455  10.005   6.845
57722SOL    HW175063  13.541  10.012   6.803
57722SOL    HW275064  13.397   9.972   6.777
57723SOL     OW75065   1.796   9.253   1.187
57723SOL    HW175066   1.743   9.178   1.161
57723SOL    HW275067   1.872   9.214   1.231
57724SOL     OW75068   2.574   7.303   5.512
57724SOL    HW175069   2.487   7.298   5.473
57724SOL    HW275070   2.626   7.352   5.449
57725SOL     OW75071  12.032  13.213   2.233
57725SOL    HW175072  11.989  13.261   2.304
57725SOL    HW275073  12.066  13.282   2.175
57726SOL     OW75074   0.424   9.423   5.133
57726SOL    HW175075   0.333   9.395   5.131
57726SOL    HW275076   0.423   9.511   5.096
57727SOL     OW75077   7.601   3.438  13.939
57727SOL    HW175078   7.508   3.435  13.962
57727SOL    HW275079   7.647   3.442  14.023
57728SOL     OW75080   1.898   4.697  14.518
57728SOL    HW175081   1.827   4.750  14.554
57728SOL    HW275082   1.901   4.619  14.573
57729SOL     OW75083   6.526   9.040  13.409
57729SOL    HW175084   6.432   9.029  13.397
57729SOL    HW275085   6.560   9.054  13.321
57730SOL     OW75086  10.778   6.839  10.746
57730SOL    HW175087  10.815   6.920  10.782
57730SOL    HW275088  10.771   6.856  10.652
57731SOL     OW75089  13.516   8.022   2.613
57731SOL    HW175090  13.436   8.009   2.664
57731SOL    HW275091  13.529   8.117   2.612
57732SOL     OW75092   1.353  12.627  11.470
57732SOL    HW175093   1.419  12.599  11.407
57732SOL    HW275094   1.270  12.620  11.423
57733SOL     OW75095  14.124   8.307   9.927
57733SOL    HW175096  14.143   8.239   9.991
57733SOL    HW275097  14.042   8.347   9.958
57734SOL     OW75098   7.305   2.041   8.990
57734SOL    HW175099   7.239   2.072   9.052
57734SOL    HW275100   7.312   2.111   8.925
57735SOL     OW75101   3.766   7.775  10.010
57735SOL    HW175102   3.711   7.706   9.973
57735SOL    HW275103   3.830   7.729  10.063
57736SOL     OW75104   0.499   5.180   1.089
57736SOL    HW175105   0.575   5.197   1.033
57736SOL    HW275106   0.483   5.086   1.079
57737SOL     OW75107   6.401   9.609   4.922
57737SOL    HW175108   6.340   9.539   4.947
57737SOL    HW275109   6.348   9.670   4.871
57738SOL     OW75110   6.790   6.577  14.428
57738SOL    HW175111   6.847   6.500  14.423
57738SOL    HW275112   6.836   6.636  14.487
57739SOL     OW75113   2.605  14.639   9.355
57739SOL    HW175114   2.591  14.544   9.363
57739SOL    HW275115   2.662  14.661   9.429
57740SOL     OW75116   0.014   8.733   9.123
57740SOL    HW175117  14.842   8.661   9.074
57740SOL    HW275118   0.083   8.766   9.065
57741SOL     OW75119   3.828   0.521  10.926
57741SOL    HW175120   3.759   0.510  10.862
57741SOL    HW275121   3.854   0.613  10.919
57742SOL     OW75122  10.489   8.461  12.682
57742SOL    HW175123  10.568   8.511  12.658
57742SOL    HW275124  10.421   8.495  12.624
57743SOL     OW75125   2.758   5.487   6.217
57743SOL    HW175126   2.703   5.564   6.207
57743SOL    HW275127   2.824   5.512   6.281
57744SOL     OW75128   6.906   7.989   1.504
57744SOL    HW175129   6.838   7.922   1.507
57744SOL    HW275130   6.865   8.062   1.457
57745SOL     OW75131   8.609   6.313  11.365
57745SOL    HW175132   8.636   6.305  11.456
57745SOL    HW275133   8.639   6.232  11.324
57746SOL     OW75134  10.714   8.276   4.906
57746SOL    HW175135  10.630   8.256   4.948
57746SOL    HW275136  10.757   8.191   4.899
57747SOL     OW75137  12.251   7.746   3.512
57747SOL    HW175138  12.327   7.757   3.454
57747SOL    HW275139  12.224   7.655   3.499
57748SOL     OW75140   8.758  10.345   1.275
57748SOL    HW175141   8.791  10.435   1.272
57748SOL    HW275142   8.817  10.300   1.335
57749SOL     OW75143  12.541  10.919   8.584
57749SOL    HW175144  12.635  10.911   8.595
57749SOL    HW275145  12.504  10.862   8.652
57750SOL     OW75146   7.534   5.285  14.286
57750SOL    HW175147   7.533   5.191  14.271
57750SOL    HW275148   7.570   5.323  14.206
57751SOL     OW75149  11.957   2.760   7.265
57751SOL    HW175150  11.875   2.739   7.220
57751SOL    HW275151  11.968   2.854   7.252
57752SOL     OW75152   2.414  14.652  13.282
57752SOL    HW175153   2.392  14.740  13.250
57752SOL    HW275154   2.412  14.661  13.377
57753SOL     OW75155   1.920  11.883   3.241
57753SOL    HW175156   1.984  11.878   3.312
57753SOL    HW275157   1.898  11.976   3.235
57754SOL     OW75158  12.270   8.514   4.328
57754SOL    HW175159  12.337   8.575   4.359
57754SOL    HW275160  12.315   8.429   4.325
57755SOL     OW75161   0.298   4.816  10.073
57755SOL    HW175162   0.364   4.793  10.007
57755SOL    HW275163   0.263   4.732  10.102
57756SOL     OW75164   6.532   7.119   1.775
57756SOL    HW175165   6.583   7.129   1.855
57756SOL    HW275166   6.583   7.163   1.707
57757SOL     OW75167   2.016  14.459   0.064
57757SOL    HW175168   2.089  14.521   0.059
57757SOL    HW275169   2.054  14.375   0.040
57758SOL     OW75170   8.290   3.409   3.296
57758SOL    HW175171   8.349   3.335   3.315
57758SOL    HW275172   8.246   3.426   3.379
57759SOL     OW75173   7.871   1.752   9.392
57759SOL    HW175174   7.919   1.711   9.463
57759SOL    HW275175   7.901   1.843   9.392
57760SOL     OW75176  10.921   5.544   3.191
57760SOL    HW175177  10.991   5.552   3.257
57760SOL    HW275178  10.873   5.466   3.217
57761SOL     OW75179   8.774  12.433   8.269
57761SOL    HW175180   8.748  12.341   8.272
57761SOL    HW275181   8.831  12.440   8.193
57762SOL     OW75182  11.577   6.645  13.194
57762SOL    HW175183  11.490   6.659  13.229
57762SOL    HW275184  11.628   6.612  13.268
57763SOL     OW75185   6.541   1.573   6.192
57763SOL    HW175186   6.492   1.554   6.112
57763SOL    HW275187   6.482   1.628   6.244
57764SOL     OW75188   0.910  14.655  13.245
57764SOL    HW175189   0.912  14.686  13.155
57764SOL    HW275190   1.002  14.642  13.268
57765SOL     OW75191   3.214   9.582   7.642
57765SOL    HW175192   3.277   9.510   7.641
57765SOL    HW275193   3.253   9.649   7.586
57766SOL     OW75194  11.219   1.541  12.431
57766SOL    HW175195  11.187   1.582  12.511
57766SOL    HW275196  11.250   1.455  12.458
57767SOL     OW75197   1.910   0.403   6.169
57767SOL    HW175198   1.921   0.406   6.264
57767SOL    HW275199   1.908   0.309   6.148
57768SOL     OW75200  12.237   0.483   4.332
57768SOL    HW175201  12.242   0.436   4.415
57768SOL    HW275202  12.149   0.466   4.300
57769SOL     OW75203  12.537   5.289   2.386
57769SOL    HW175204  12.459   5.251   2.427
57769SOL    HW275205  12.598   5.216   2.379
57770SOL     OW75206  14.466   7.135   4.725
57770SOL    HW175207  14.459   7.174   4.813
57770SOL    HW275208  14.476   7.211   4.667
57771SOL     OW75209   8.530   6.880  13.437
57771SOL    HW175210   8.444   6.921  13.447
57771SOL    HW275211   8.584   6.918  13.506
57772SOL     OW75212   6.043   3.047   0.859
57772SOL    HW175213   5.998   3.131   0.865
57772SOL    HW275214   5.978   2.986   0.825
57773SOL     OW75215  12.270   8.872   7.434
57773SOL    HW175216  12.354   8.840   7.465
57773SOL    HW275217  12.293   8.942   7.372
57774SOL     OW75218  14.357  14.742  10.134
57774SOL    HW175219  14.379  14.670  10.075
57774SOL    HW275220  14.286  14.708  10.188
57775SOL     OW75221   8.214   0.919   6.514
57775SOL    HW175222   8.167   1.001   6.502
57775SOL    HW275223   8.160   0.854   6.469
57776SOL     OW75224  11.418  14.759   8.221
57776SOL    HW175225  11.443  14.708   8.144
57776SOL    HW275226  11.404  14.695   8.290
57777SOL     OW75227  13.866   9.146  11.302
57777SOL    HW175228  13.939   9.125  11.244
57777SOL    HW275229  13.791   9.156  11.244
57778SOL     OW75230   7.240   3.994  10.039
57778SOL    HW175231   7.294   4.072  10.051
57778SOL    HW275232   7.201   4.004   9.953
57779SOL     OW75233   9.302   9.869   4.420
57779SOL    HW175234   9.309   9.905   4.331
57779SOL    HW275235   9.387   9.889   4.460
57780SOL     OW75236  13.861   8.331   2.744
57780SOL    HW175237  13.839   8.300   2.832
57780SOL    HW275238  13.901   8.417   2.760
57781SOL     OW75239   6.980   4.267   7.536
57781SOL    HW175240   7.006   4.346   7.583
57781SOL    HW275241   6.885   4.262   7.549
57782SOL     OW75242   7.844   5.653  12.858
57782SOL    HW175243   7.811   5.623  12.943
57782SOL    HW275244   7.915   5.713  12.880
57783SOL     OW75245   1.817   4.477   7.640
57783SOL    HW175246   1.896   4.447   7.594
57783SOL    HW275247   1.746   4.460   7.578
57784SOL     OW75248  14.036   1.757  13.924
57784SOL    HW175249  14.084   1.840  13.934
57784SOL    HW275250  13.991   1.766  13.839
57785SOL     OW75251  12.224   0.379   3.860
57785SOL    HW175252  12.130   0.393   3.851
57785SOL    HW275253  12.253   0.353   3.773
57786SOL     OW75254   5.948   3.580   6.739
57786SOL    HW175255   5.953   3.669   6.776
57786SOL    HW275256   5.891   3.590   6.663
57787SOL     OW75257   0.660   8.217   8.199
57787SOL    HW175258   0.618   8.131   8.197
57787SOL    HW275259   0.689   8.232   8.109
57788SOL     OW75260   0.375  10.854  10.643
57788SOL    HW175261   0.357  10.933  10.694
57788SOL    HW275262   0.382  10.784  10.709
57789SOL     OW75263   0.815   1.147   5.271
57789SOL    HW175264   0.883   1.083   5.249
57789SOL    HW275265   0.851   1.198   5.343
57790SOL     OW75266   3.386   5.159   6.043
57790SOL    HW175267   3.308   5.155   5.988
57790SOL    HW275268   3.427   5.242   6.021
57791SOL     OW75269   6.075   0.113  14.314
57791SOL    HW175270   5.986   0.096  14.281
57791SOL    HW275271   6.071   0.202  14.350
57792SOL     OW75272   0.292   6.855   9.550
57792SOL    HW175273   0.365   6.864   9.612
57792SOL    HW275274   0.325   6.794   9.484
57793SOL     OW75275   6.423   1.579  12.734
57793SOL    HW175276   6.372   1.572  12.654
57793SOL    HW275277   6.417   1.672  12.759
57794SOL     OW75278   0.989   3.377   9.888
57794SOL    HW175279   1.062   3.436   9.868
57794SOL    HW275280   1.030   3.300   9.926
57795SOL     OW75281  10.529  14.461   6.009
57795SOL    HW175282  10.480  14.382   6.029
57795SOL    HW275283  10.552  14.497   6.095
57796SOL     OW75284   1.578   5.023   4.491
57796SOL    HW175285   1.511   4.955   4.492
57796SOL    HW275286   1.628   5.009   4.572
57797SOL     OW75287   3.106   2.811  10.771
57797SOL    HW175288   3.175   2.822  10.837
57797SOL    HW275289   3.035   2.868  10.802
57798SOL     OW75290   1.916  14.108   8.735
57798SOL    HW175291   2.006  14.130   8.711
57798SOL    HW275292   1.888  14.182   8.789
57799SOL     OW75293   3.692   5.639   1.026
57799SOL    HW175294   3.660   5.549   1.019
57799SOL    HW275295   3.651   5.674   1.105
57800SOL     OW75296  11.490   8.855   6.537
57800SOL    HW175297  11.396   8.870   6.542
57800SOL    HW275298  11.529   8.936   6.569
57801SOL     OW75299  11.709   6.170   5.012
57801SOL    HW175300  11.792   6.194   5.054
57801SOL    HW275301  11.643   6.186   5.080
57802SOL     OW75302   8.916   5.557   6.826
57802SOL    HW175303   8.864   5.530   6.751
57802SOL    HW275304   8.903   5.488   6.891
57803SOL     OW75305   2.716   3.051  13.323
57803SOL    HW175306   2.710   2.957  13.338
57803SOL    HW275307   2.685   3.091  13.404
57804SOL     OW75308  14.065   8.075   0.495
57804SOL    HW175309  14.052   8.123   0.413
57804SOL    HW275310  14.136   8.013   0.476
57805SOL     OW75311  12.091   6.329  11.790
57805SOL    HW175312  12.058   6.247  11.827
57805SOL    HW275313  12.015   6.388  11.792
57806SOL     OW75314   7.406  11.051   4.313
57806SOL    HW175315   7.417  10.998   4.392
57806SOL    HW275316   7.326  11.016   4.273
57807SOL     OW75317  13.291   4.070  11.423
57807SOL    HW175318  13.256   4.067  11.511
57807SOL    HW275319  13.355   4.142  11.425
57808SOL     OW75320  11.742  13.423   7.317
57808SOL    HW175321  11.667  13.371   7.345
57808SOL    HW275322  11.818  13.372   7.344
57809SOL     OW75323  13.607   0.821   5.016
57809SOL    HW175324  13.674   0.814   4.948
57809SOL    HW275325  13.653   0.857   5.092
57810SOL     OW75326   0.257   1.026   3.235
57810SOL    HW175327   0.351   1.012   3.227
57810SOL    HW275328   0.241   1.109   3.190
57811SOL     OW75329   8.078   2.550   0.946
57811SOL    HW175330   8.011   2.557   1.014
57811SOL    HW275331   8.079   2.636   0.904
57812SOL     OW75332   7.952   7.954   4.815
57812SOL    HW175333   7.955   7.977   4.907
57812SOL    HW275334   7.978   7.862   4.812
57813SOL     OW75335  12.105   3.851   2.397
57813SOL    HW175336  12.154   3.864   2.315
57813SOL    HW275337  12.123   3.930   2.448
57814SOL     OW75338  10.069  11.117  12.417
57814SOL    HW175339  10.046  11.206  12.445
57814SOL    HW275340  10.141  11.130  12.355
57815SOL     OW75341  11.649   0.183   3.672
57815SOL    HW175342  11.664   0.276   3.657
57815SOL    HW275343  11.568   0.179   3.722
57816SOL     OW75344   8.460   9.832   5.202
57816SOL    HW175345   8.456   9.925   5.223
57816SOL    HW275346   8.442   9.788   5.286
57817SOL     OW75347   5.960  11.706   3.001
57817SOL    HW175348   5.883  11.755   3.029
57817SOL    HW275349   5.997  11.672   3.082
57818SOL     OW75350  14.162  10.469   9.375
57818SOL    HW175351  14.174  10.561   9.395
57818SOL    HW275352  14.103  10.468   9.300
57819SOL     OW75353   8.110   3.872  14.761
57819SOL    HW175354   8.139   3.875  14.852
57819SOL    HW275355   8.162   3.802  14.722
57820SOL     OW75356   5.175  10.692  11.967
57820SOL    HW175357   5.110  10.627  11.942
57820SOL    HW275358   5.155  10.713  12.058
57821SOL     OW75359   5.516  10.740   5.330
57821SOL    HW175360   5.423  10.724   5.319
57821SOL    HW275361   5.555  10.654   5.339
57822SOL     OW75362   9.053  13.485   3.202
57822SOL    HW175363   8.987  13.467   3.269
57822SOL    HW275364   9.097  13.564   3.232
57823SOL     OW75365   2.299   6.407   8.187
57823SOL    HW175366   2.386   6.390   8.151
57823SOL    HW275367   2.310   6.488   8.237
57824SOL     OW75368   1.424   7.386  10.310
57824SOL    HW175369   1.463   7.301  10.291
57824SOL    HW275370   1.499   7.444  10.322
57825SOL     OW75371   0.787  13.777  12.736
57825SOL    HW175372   0.762  13.770  12.828
57825SOL    HW275373   0.864  13.833  12.735
57826SOL     OW75374  13.739   0.806  10.711
57826SOL    HW175375  13.814   0.769  10.758
57826SOL    HW275376  13.774   0.883  10.666
57827SOL     OW75377   6.667  10.644   7.901
57827SOL    HW175378   6.723  10.646   7.978
57827SOL    HW275379   6.620  10.727   7.903
57828SOL     OW75380  13.708   0.183   1.401
57828SOL    HW175381  13.655   0.116   1.445
57828SOL    HW275382  13.786   0.136   1.373
57829SOL     OW75383   9.803   4.181   3.660
57829SOL    HW175384   9.739   4.116   3.687
57829SOL    HW275385   9.753   4.263   3.653
57830SOL     OW75386   6.403  13.266   4.941
57830SOL    HW175387   6.437  13.314   5.017
57830SOL    HW275388   6.444  13.180   4.947
57831SOL     OW75389   5.268  12.231  11.168
57831SOL    HW175390   5.221  12.174  11.107
57831SOL    HW275391   5.358  12.232  11.135
57832SOL     OW75392   1.244  13.339   8.396
57832SOL    HW175393   1.176  13.303   8.453
57832SOL    HW275394   1.217  13.429   8.380
57833SOL     OW75395   3.753  13.676  12.840
57833SOL    HW175396   3.829  13.734  12.833
57833SOL    HW275397   3.791  13.588  12.849
57834SOL     OW75398   2.887  14.322   3.958
57834SOL    HW175399   2.912  14.245   3.907
57834SOL    HW275400   2.882  14.393   3.893
57835SOL     OW75401  10.385   2.703  11.402
57835SOL    HW175402  10.430   2.764  11.460
57835SOL    HW275403  10.341   2.641  11.460
57836SOL     OW75404  10.097   3.311  11.339
57836SOL    HW175405  10.166   3.265  11.292
57836SOL    HW275406  10.020   3.255  11.329
57837SOL     OW75407  13.552   3.705   6.963
57837SOL    HW175408  13.620   3.706   7.031
57837SOL    HW275409  13.561   3.789   6.919
57838SOL     OW75410  14.499   1.388   6.144
57838SOL    HW175411  14.546   1.456   6.192
57838SOL    HW275412  14.471   1.432   6.063
57839SOL     OW75413   7.818  14.477   9.191
57839SOL    HW175414   7.813  14.572   9.195
57839SOL    HW275415   7.728  14.447   9.200
57840SOL     OW75416  14.360  10.558   2.561
57840SOL    HW175417  14.327  10.647   2.574
57840SOL    HW275418  14.372  10.551   2.466
57841SOL     OW75419   3.737  10.911   3.682
57841SOL    HW175420   3.706  10.987   3.633
57841SOL    HW275421   3.829  10.929   3.700
57842SOL     OW75422  10.407   6.321   5.180
57842SOL    HW175423  10.449   6.322   5.094
57842SOL    HW275424  10.314   6.311   5.161
57843SOL     OW75425   6.997   9.384  12.721
57843SOL    HW175426   6.914   9.432  12.720
57843SOL    HW275427   7.019   9.376  12.814
57844SOL     OW75428   6.166   1.262   4.953
57844SOL    HW175429   6.071   1.257   4.948
57844SOL    HW275430   6.184   1.292   5.042
57845SOL     OW75431  13.573   6.675  13.298
57845SOL    HW175432  13.545   6.741  13.235
57845SOL    HW275433  13.523   6.695  13.377
57846SOL     OW75434  10.332   5.491  14.417
57846SOL    HW175435  10.371   5.428  14.356
57846SOL    HW275436  10.398   5.560  14.426
57847SOL     OW75437   3.202   7.408   9.351
57847SOL    HW175438   3.158   7.329   9.320
57847SOL    HW275439   3.175   7.417   9.443
57848SOL     OW75440   4.198   6.636   3.827
57848SOL    HW175441   4.123   6.631   3.886
57848SOL    HW275442   4.272   6.604   3.879
57849SOL     OW75443   6.745   5.102   2.640
57849SOL    HW175444   6.711   5.151   2.565
57849SOL    HW275445   6.838   5.091   2.620
57850SOL     OW75446   9.232  10.735   0.633
57850SOL    HW175447   9.185  10.794   0.693
57850SOL    HW275448   9.189  10.747   0.549
57851SOL     OW75449   7.975   1.921   1.913
57851SOL    HW175450   8.050   1.966   1.953
57851SOL    HW275451   7.931   1.988   1.862
57852SOL     OW75452  10.058   6.131  14.664
57852SOL    HW175453  10.152   6.133  14.645
57852SOL    HW275454  10.024   6.211  14.625
57853SOL     OW75455   1.464   6.640   6.368
57853SOL    HW175456   1.403   6.675   6.433
57853SOL    HW275457   1.537   6.702   6.367
57854SOL     OW75458  11.889  13.176  12.212
57854SOL    HW175459  11.942  13.098  12.193
57854SOL    HW275460  11.909  13.237  12.141
57855SOL     OW75461   6.490   9.044   2.781
57855SOL    HW175462   6.467   8.991   2.705
57855SOL    HW275463   6.560   8.996   2.824
57856SOL     OW75464   6.168   7.687   0.346
57856SOL    HW175465   6.249   7.636   0.356
57856SOL    HW275466   6.105   7.624   0.310
57857SOL     OW75467   7.319  11.072   6.528
57857SOL    HW175468   7.241  11.089   6.581
57857SOL    HW275469   7.290  11.011   6.461
57858SOL     OW75470   2.787  14.296   5.760
57858SOL    HW175471   2.717  14.230   5.754
57858SOL    HW275472   2.815  14.310   5.670
57859SOL     OW75473   3.890   2.556   8.778
57859SOL    HW175474   3.907   2.541   8.871
57859SOL    HW275475   3.962   2.512   8.733
57860SOL     OW75476  11.393   9.147   0.153
57860SOL    HW175477  11.459   9.215   0.143
57860SOL    HW275478  11.336   9.178   0.223
57861SOL     OW75479   8.190   0.323   0.653
57861SOL    HW175480   8.273   0.371   0.658
57861SOL    HW275481   8.179   0.285   0.741
57862SOL     OW75482   5.628   5.018   7.480
57862SOL    HW175483   5.711   5.057   7.455
57862SOL    HW275484   5.584   5.086   7.531
57863SOL     OW75485  13.164  10.261   8.063
57863SOL    HW175486  13.210  10.201   8.121
57863SOL    HW275487  13.233  10.316   8.025
57864SOL     OW75488   7.971   1.934   6.072
57864SOL    HW175489   7.908   1.862   6.079
57864SOL    HW275490   7.956   1.971   5.985
57865SOL     OW75491   0.312   0.326   5.594
57865SOL    HW175492   0.300   0.238   5.559
57865SOL    HW275493   0.350   0.376   5.522
57866SOL     OW75494   9.602  12.107  11.109
57866SOL    HW175495   9.554  12.096  11.027
57866SOL    HW275496   9.657  12.185  11.095
57867SOL     OW75497  11.590   8.823  12.051
57867SOL    HW175498  11.622   8.893  11.995
57867SOL    HW275499  11.499   8.811  12.024
57868SOL     OW75500   1.414   6.927  14.807
57868SOL    HW175501   1.478   6.877  14.756
57868SOL    HW275502   1.452   6.929   0.028
57869SOL     OW75503   7.198   8.669   9.092
57869SOL    HW175504   7.274   8.631   9.047
57869SOL    HW275505   7.176   8.605   9.160
57870SOL     OW75506  13.655   4.345   2.233
57870SOL    HW175507  13.635   4.420   2.178
57870SOL    HW275508  13.627   4.269   2.182
57871SOL     OW75509  13.273   4.126   3.506
57871SOL    HW175510  13.232   4.205   3.539
57871SOL    HW275511  13.203   4.082   3.457
57872SOL     OW75512   5.184   5.773   0.810
57872SOL    HW175513   5.181   5.753   0.717
57872SOL    HW275514   5.104   5.733   0.846
57873SOL     OW75515  14.655   7.770   5.980
57873SOL    HW175516  14.596   7.808   5.914
57873SOL    HW275517  14.742   7.781   5.943
57874SOL     OW75518  13.997  13.552   3.084
57874SOL    HW175519  14.021  13.598   3.164
57874SOL    HW275520  14.025  13.462   3.098
57875SOL     OW75521   9.999  11.798  13.075
57875SOL    HW175522  10.063  11.728  13.087
57875SOL    HW275523   9.976  11.826  13.164
57876SOL     OW75524   1.053  13.296   7.159
57876SOL    HW175525   1.000  13.358   7.210
57876SOL    HW275526   1.022  13.210   7.186
57877SOL     OW75527   6.586   5.929   8.971
57877SOL    HW175528   6.576   5.938   8.876
57877SOL    HW275529   6.509   5.973   9.007
57878SOL     OW75530   6.699  14.429  13.853
57878SOL    HW175531   6.688  14.522  13.872
57878SOL    HW275532   6.767  14.426  13.785
57879SOL     OW75533   0.253  11.408   7.598
57879SOL    HW175534   0.332  11.363   7.567
57879SOL    HW275535   0.183  11.373   7.543
57880SOL     OW75536   5.698   3.546   3.404
57880SOL    HW175537   5.705   3.453   3.426
57880SOL    HW275538   5.720   3.591   3.486
57881SOL     OW75539  11.953   6.549   9.745
57881SOL    HW175540  11.987   6.617   9.803
57881SOL    HW275541  11.950   6.590   9.659
57882SOL     OW75542   2.619   7.904  10.088
57882SOL    HW175543   2.594   7.813  10.107
57882SOL    HW275544   2.563   7.957  10.145
57883SOL     OW75545   2.097   2.370  14.144
57883SOL    HW175546   2.185   2.364  14.181
57883SOL    HW275547   2.089   2.292  14.089
57884SOL     OW75548   9.807   9.891   4.150
57884SOL    HW175549   9.876   9.955   4.134
57884SOL    HW275550   9.843   9.835   4.219
57885SOL     OW75551   2.471   8.951  10.418
57885SOL    HW175552   2.565   8.964  10.409
57885SOL    HW275553   2.443   8.918  10.332
57886SOL     OW75554   3.691  14.027   6.770
57886SOL    HW175555   3.730  14.106   6.732
57886SOL    HW275556   3.764  13.966   6.778
57887SOL     OW75557   0.292   5.564  10.710
57887SOL    HW175558   0.210   5.542  10.666
57887SOL    HW275559   0.347   5.486  10.698
57888SOL     OW75560   5.325  12.253  13.191
57888SOL    HW175561   5.344  12.215  13.277
57888SOL    HW275562   5.236  12.286  13.198
57889SOL     OW75563   4.246  14.048  12.839
57889SOL    HW175564   4.294  14.105  12.899
57889SOL    HW275565   4.203  14.108  12.778
57890SOL     OW75566   5.412  11.187   5.424
57890SOL    HW175567   5.504  11.167   5.413
57890SOL    HW275568   5.368  11.137   5.356
57891SOL     OW75569   4.842   8.186  13.875
57891SOL    HW175570   4.882   8.238  13.805
57891SOL    HW275571   4.788   8.121  13.830
57892SOL     OW75572   2.636  11.008   8.192
57892SOL    HW175573   2.611  10.927   8.147
57892SOL    HW275574   2.553  11.044   8.224
57893SOL     OW75575   7.759  11.740   9.250
57893SOL    HW175576   7.667  11.718   9.235
57893SOL    HW275577   7.803  11.655   9.251
57894SOL     OW75578   7.104  13.548   3.721
57894SOL    HW175579   7.021  13.541   3.767
57894SOL    HW275580   7.165  13.495   3.773
57895SOL     OW75581   5.403   0.333   7.741
57895SOL    HW175582   5.482   0.355   7.790
57895SOL    HW275583   5.423   0.248   7.701
57896SOL     OW75584   5.382   8.877   7.427
57896SOL    HW175585   5.287   8.871   7.434
57896SOL    HW275586   5.410   8.789   7.401
57897SOL     OW75587  11.351   3.139   2.558
57897SOL    HW175588  11.429   3.139   2.613
57897SOL    HW275589  11.382   3.109   2.472
57898SOL     OW75590   9.590  12.629  13.813
57898SOL    HW175591   9.520  12.580  13.770
57898SOL    HW275592   9.545  12.692  13.869
57899SOL     OW75593   2.872   0.084  11.964
57899SOL    HW175594   2.840   0.044  11.884
57899SOL    HW275595   2.965   0.062  11.966
57900SOL     OW75596  11.585   9.134   5.087
57900SOL    HW175597  11.539   9.204   5.041
57900SOL    HW275598  11.613   9.174   5.170
57901SOL     OW75599   0.931   1.463   8.463
57901SOL    HW175600   0.918   1.491   8.373
57901SOL    HW275601   1.021   1.430   8.465
57902SOL     OW75602   7.282   8.675   2.023
57902SOL    HW175603   7.298   8.593   1.975
57902SOL    HW275604   7.279   8.648   2.115
57903SOL     OW75605  10.202   5.355   9.777
57903SOL    HW175606  10.246   5.353   9.692
57903SOL    HW275607  10.163   5.268   9.785
57904SOL     OW75608   3.141   2.654   9.738
57904SOL    HW175609   3.144   2.617   9.826
57904SOL    HW275610   3.112   2.744   9.751
57905SOL     OW75611  12.373  10.084   7.411
57905SOL    HW175612  12.456  10.045   7.438
57905SOL    HW275613  12.334  10.116   7.493
57906SOL     OW75614   6.563   3.074   9.126
57906SOL    HW175615   6.589   3.130   9.198
57906SOL    HW275616   6.641   3.068   9.071
57907SOL     OW75617   1.731   1.450  11.838
57907SOL    HW175618   1.785   1.421  11.765
57907SOL    HW275619   1.782   1.519  11.880
57908SOL     OW75620  11.102   4.982  10.986
57908SOL    HW175621  11.084   4.980  10.892
57908SOL    HW275622  11.161   4.908  11.001
57909SOL     OW75623   6.697   7.565   2.387
57909SOL    HW175624   6.769   7.600   2.335
57909SOL    HW275625   6.618   7.596   2.342
57910SOL     OW75626   7.083  14.125   0.628
57910SOL    HW175627   7.047  14.210   0.654
57910SOL    HW275628   7.014  14.063   0.651
57911SOL     OW75629  13.251   8.986   2.340
57911SOL    HW175630  13.312   8.949   2.276
57911SOL    HW275631  13.211   9.060   2.295
57912SOL     OW75632  12.456   1.877   9.722
57912SOL    HW175633  12.509   1.869   9.802
57912SOL    HW275634  12.500   1.819   9.660
57913SOL     OW75635  14.437  11.862  11.117
57913SOL    HW175636  14.450  11.793  11.052
57913SOL    HW275637  14.425  11.942  11.066
57914SOL     OW75638   2.116  14.312   9.462
57914SOL    HW175639   2.146  14.341   9.375
57914SOL    HW275640   2.137  14.219   9.465
57915SOL     OW75641   3.137  10.027   6.053
57915SOL    HW175642   3.226   9.996   6.037
57915SOL    HW275643   3.148  10.113   6.093
57916SOL     OW75644  12.699   7.372   6.996
57916SOL    HW175645  12.683   7.451   7.048
57916SOL    HW275646  12.698   7.402   6.905
57917SOL     OW75647   4.764  13.001   4.548
57917SOL    HW175648   4.780  12.908   4.534
57917SOL    HW275649   4.684  13.019   4.498
57918SOL     OW75650   5.569  14.720  11.726
57918SOL    HW175651   5.536  14.668  11.652
57918SOL    HW275652   5.511  14.796  11.729
57919SOL     OW75653  10.393   1.274  10.779
57919SOL    HW175654  10.366   1.273  10.871
57919SOL    HW275655  10.441   1.193  10.767
57920SOL     OW75656   1.192   8.165   4.957
57920SOL    HW175657   1.187   8.199   4.867
57920SOL    HW275658   1.285   8.155   4.974
57921SOL     OW75659   7.617  13.233   7.206
57921SOL    HW175660   7.702  13.209   7.242
57921SOL    HW275661   7.556  13.221   7.279
57922SOL     OW75662   7.033   0.916  10.586
57922SOL    HW175663   7.061   0.979  10.652
57922SOL    HW275664   6.981   0.852  10.635
57923SOL     OW75665  13.970   2.348  11.751
57923SOL    HW175666  13.877   2.329  11.761
57923SOL    HW275667  13.988   2.418  11.813
57924SOL     OW75668  11.540   9.233   4.575
57924SOL    HW175669  11.513   9.312   4.621
57924SOL    HW275670  11.621   9.257   4.531
57925SOL     OW75671   9.271   1.225   8.810
57925SOL    HW175672   9.271   1.186   8.722
57925SOL    HW275673   9.361   1.213   8.841
57926SOL     OW75674  13.620   0.122   5.229
57926SOL    HW175675  13.693   0.105   5.287
57926SOL    HW275676  13.573   0.039   5.224
57927SOL     OW75677  13.012   7.416  14.241
57927SOL    HW175678  12.982   7.370  14.319
57927SOL    HW275679  13.075   7.480  14.273
57928SOL     OW75680   4.683   0.271  10.955
57928SOL    HW175681   4.774   0.245  10.967
57928SOL    HW275682   4.688   0.360  10.919
57929SOL     OW75683  13.033   0.313   4.429
57929SOL    HW175684  13.030   0.382   4.363
57929SOL    HW275685  13.043   0.232   4.379
57930SOL     OW75686   6.435   0.401   6.518
57930SOL    HW175687   6.496   0.327   6.513
57930SOL    HW275688   6.371   0.384   6.449
57931SOL     OW75689   6.870  12.240  11.882
57931SOL    HW175690   6.804  12.206  11.942
57931SOL    HW275691   6.820  12.266  11.805
57932SOL     OW75692   2.431  14.789   1.338
57932SOL    HW175693   2.352  14.810   1.288
57932SOL    HW275694   2.413  14.824   1.425
57933SOL     OW75695  11.208   6.410   4.976
57933SOL    HW175696  11.126   6.391   4.932
57933SOL    HW275697  11.201   6.364   5.060
57934SOL     OW75698   4.330   3.989   3.095
57934SOL    HW175699   4.347   3.990   3.189
57934SOL    HW275700   4.237   4.010   3.087
57935SOL     OW75701   5.498   0.281  13.319
57935SOL    HW175702   5.522   0.245  13.233
57935SOL    HW275703   5.403   0.273  13.321
57936SOL     OW75704  13.668   7.764   8.514
57936SOL    HW175705  13.753   7.808   8.511
57936SOL    HW275706  13.668   7.708   8.436
57937SOL     OW75707   2.890   6.929  10.643
57937SOL    HW175708   2.810   6.904  10.598
57937SOL    HW275709   2.952   6.859  10.622
57938SOL     OW75710   8.447  14.337  12.095
57938SOL    HW175711   8.379  14.343  12.162
57938SOL    HW275712   8.528  14.355  12.143
57939SOL     OW75713   7.642   5.281   8.469
57939SOL    HW175714   7.593   5.201   8.488
57939SOL    HW275715   7.624   5.338   8.543
57940SOL     OW75716  13.487   9.831   0.755
57940SOL    HW175717  13.408   9.778   0.752
57940SOL    HW275718  13.499   9.851   0.848
57941SOL     OW75719  13.418   9.215  12.132
57941SOL    HW175720  13.462   9.244  12.052
57941SOL    HW275721  13.479   9.153  12.172
57942SOL     OW75722  14.708   1.166   5.436
57942SOL    HW175723  14.750   1.252   5.428
57942SOL    HW275724  14.779   1.103   5.424
57943SOL     OW75725  13.557   1.556   8.571
57943SOL    HW175726  13.519   1.474   8.538
57943SOL    HW275727  13.650   1.536   8.582
57944SOL     OW75728   9.969   3.450   6.227
57944SOL    HW175729   9.879   3.482   6.232
57944SOL    HW275730   9.971   3.395   6.149
57945SOL     OW75731  12.073   8.120   4.559
57945SOL    HW175732  12.014   8.054   4.522
57945SOL    HW275733  12.155   8.073   4.574
57946SOL     OW75734   6.616   8.642  14.104
57946SOL    HW175735   6.663   8.561  14.123
57946SOL    HW275736   6.597   8.680  14.190
57947SOL     OW75737  12.590   2.019   2.722
57947SOL    HW175738  12.677   2.056   2.735
57947SOL    HW275739  12.566   2.044   2.633
57948SOL     OW75740  13.108  12.302  11.517
57948SOL    HW175741  13.171  12.347  11.573
57948SOL    HW275742  13.026  12.306  11.566
57949SOL     OW75743  12.863   6.678   9.909
57949SOL    HW175744  12.781   6.703   9.954
57949SOL    HW275745  12.926   6.745   9.936
57950SOL     OW75746   8.782  13.611   2.729
57950SOL    HW175747   8.715  13.565   2.679
57950SOL    HW275748   8.807  13.550   2.798
57951SOL     OW75749   6.690  12.462  11.154
57951SOL    HW175750   6.671  12.551  11.126
57951SOL    HW275751   6.750  12.428  11.087
57952SOL     OW75752   4.355   6.940   4.771
57952SOL    HW175753   4.288   6.995   4.731
57952SOL    HW275754   4.366   6.867   4.710
57953SOL     OW75755   6.932  12.921   6.555
57953SOL    HW175756   6.892  13.007   6.563
57953SOL    HW275757   7.024  12.938   6.535
57954SOL     OW75758   5.441   9.820  10.492
57954SOL    HW175759   5.393   9.902  10.508
57954SOL    HW275760   5.447   9.815  10.397
57955SOL     OW75761   1.054   9.481   5.630
57955SOL    HW175762   1.140   9.444   5.614
57955SOL    HW275763   1.056   9.566   5.585
57956SOL     OW75764   4.084   9.428   6.459
57956SOL    HW175765   4.075   9.431   6.364
57956SOL    HW275766   4.100   9.335   6.478
57957SOL     OW75767   7.950  11.729   8.708
57957SOL    HW175768   8.014  11.711   8.639
57957SOL    HW275769   7.952  11.824   8.718
57958SOL     OW75770   7.611  10.088  11.445
57958SOL    HW175771   7.681  10.028  11.471
57958SOL    HW275772   7.573  10.048  11.366
57959SOL     OW75773   0.220  13.805   3.876
57959SOL    HW175774   0.142  13.853   3.848
57959SOL    HW275775   0.232  13.829   3.968
57960SOL     OW75776   2.994   7.740  13.423
57960SOL    HW175777   3.012   7.823  13.378
57960SOL    HW275778   3.019   7.757  13.514
57961SOL     OW75779  14.099   9.481   9.298
57961SOL    HW175780  14.047   9.415   9.253
57961SOL    HW275781  14.039   9.554   9.312
57962SOL     OW75782   1.987  14.790   0.303
57962SOL    HW175783   2.057  14.743   0.257
57962SOL    HW275784   2.024  14.809   0.389
57963SOL     OW75785   9.361   8.026   2.353
57963SOL    HW175786   9.317   8.111   2.355
57963SOL    HW275787   9.326   7.983   2.275
57964SOL     OW75788   3.914  14.772   1.591
57964SOL    HW175789   3.915  14.858   1.549
57964SOL    HW275790   3.848  14.780   1.661
57965SOL     OW75791   5.691   1.631  12.465
57965SOL    HW175792   5.701   1.687  12.542
57965SOL    HW275793   5.768   1.651  12.411
57966SOL     OW75794   6.372   0.546   9.715
57966SOL    HW175795   6.312   0.487   9.670
57966SOL    HW275796   6.391   0.614   9.651
57967SOL     OW75797  10.533  10.865   2.831
57967SOL    HW175798  10.543  10.936   2.767
57967SOL    HW275799  10.440  10.862   2.849
57968SOL     OW75800   1.251  14.856   5.276
57968SOL    HW175801   1.270   0.080   5.295
57968SOL    HW275802   1.182  14.833   5.339
57969SOL     OW75803  11.066  12.482   8.017
57969SOL    HW175804  10.992  12.497   8.077
57969SOL    HW275805  11.131  12.437   8.070
57970SOL     OW75806   4.716   0.960  14.304
57970SOL    HW175807   4.794   1.016  14.311
57970SOL    HW275808   4.669   0.973  14.386
57971SOL     OW75809  13.805   3.306   9.749
57971SOL    HW175810  13.824   3.381   9.694
57971SOL    HW275811  13.881   3.249   9.739
57972SOL     OW75812  14.388   6.693  11.219
57972SOL    HW175813  14.387   6.597  11.218
57972SOL    HW275814  14.459   6.717  11.160
57973SOL     OW75815   5.411   2.774  12.034
57973SOL    HW175816   5.464   2.728  12.099
57973SOL    HW275817   5.333   2.802  12.082
57974SOL     OW75818  10.572  14.590   6.848
57974SOL    HW175819  10.548  14.584   6.940
57974SOL    HW275820  10.492  14.566   6.801
57975SOL     OW75821  14.599  14.078  14.289
57975SOL    HW175822  14.540  14.022  14.238
57975SOL    HW275823  14.556  14.163  14.290
57976SOL     OW75824   4.977   9.565   7.697
57976SOL    HW175825   4.915   9.631   7.669
57976SOL    HW275826   5.047   9.567   7.632
57977SOL     OW75827  11.263   3.988   8.556
57977SOL    HW175828  11.232   4.079   8.549
57977SOL    HW275829  11.203   3.938   8.501
57978SOL     OW75830   3.802   7.958  10.224
57978SOL    HW175831   3.751   8.039  10.229
57978SOL    HW275832   3.808   7.939  10.131
57979SOL     OW75833   5.391   3.838  13.441
57979SOL    HW175834   5.447   3.788  13.500
57979SOL    HW275835   5.334   3.773  13.400
57980SOL     OW75836  12.479   5.724   9.229
57980SOL    HW175837  12.552   5.696   9.285
57980SOL    HW275838  12.514   5.717   9.140
57981SOL     OW75839  14.791   4.679   7.304
57981SOL    HW175840  14.834   4.753   7.347
57981SOL    HW275841  14.701   4.681   7.338
57982SOL     OW75842   3.855   9.008  13.474
57982SOL    HW175843   3.898   9.077  13.424
57982SOL    HW275844   3.807   8.958  13.408
57983SOL     OW75845   0.747  13.244  14.287
57983SOL    HW175846   0.812  13.312  14.307
57983SOL    HW275847   0.789  13.191  14.219
57984SOL     OW75848   9.121  13.331   2.554
57984SOL    HW175849   9.038  13.291   2.580
57984SOL    HW275850   9.185  13.297   2.616
57985SOL     OW75851   6.651   2.717   9.249
57985SOL    HW175852   6.737   2.752   9.226
57985SOL    HW275853   6.619   2.677   9.168
57986SOL     OW75854   9.782  13.675  13.737
57986SOL    HW175855   9.842  13.701  13.667
57986SOL    HW275856   9.840  13.650  13.809
57987SOL     OW75857  14.254  14.246  12.240
57987SOL    HW175858  14.259  14.163  12.194
57987SOL    HW275859  14.211  14.225  12.323
57988SOL     OW75860  12.769   3.228   8.626
57988SOL    HW175861  12.802   3.316   8.646
57988SOL    HW275862  12.792   3.175   8.702
57989SOL     OW75863   5.517   1.957   2.136
57989SOL    HW175864   5.487   1.929   2.223
57989SOL    HW275865   5.480   1.893   2.076
57990SOL     OW75866   2.418   6.953  13.317
57990SOL    HW175867   2.337   6.923  13.277
57990SOL    HW275868   2.391   7.007  13.391
57991SOL     OW75869   9.828   1.993   0.703
57991SOL    HW175870   9.786   2.026   0.624
57991SOL    HW275871   9.758   1.947   0.750
57992SOL     OW75872  13.042   6.741  13.250
57992SOL    HW175873  13.116   6.704  13.203
57992SOL    HW275874  13.077   6.820  13.292
57993SOL     OW75875   6.960   8.731   5.653
57993SOL    HW175876   6.961   8.635   5.653
57993SOL    HW275877   7.033   8.756   5.597
57994SOL     OW75878  14.788   0.483   9.654
57994SOL    HW175879  14.831   0.413   9.605
57994SOL    HW275880  14.836   0.562   9.630
57995SOL     OW75881   2.661   0.707   8.978
57995SOL    HW175882   2.634   0.672   9.063
57995SOL    HW275883   2.754   0.726   8.990
57996SOL     OW75884   0.251   3.954  12.024
57996SOL    HW175885   0.323   3.892  12.018
57996SOL    HW275886   0.191   3.929  11.954
57997SOL     OW75887   2.274   2.543  11.090
57997SOL    HW175888   2.296   2.456  11.123
57997SOL    HW275889   2.271   2.533  10.994
57998SOL     OW75890   8.582   7.261  14.498
57998SOL    HW175891   8.552   7.342  14.457
57998SOL    HW275892   8.508   7.201  14.491
57999SOL     OW75893   0.791   9.069   8.980
57999SOL    HW175894   0.701   9.049   8.954
57999SOL    HW275895   0.838   9.077   8.897
58000SOL     OW75896  14.672   8.473   7.931
58000SOL    HW175897  14.581   8.443   7.939
58000SOL    HW275898  14.690   8.469   7.838
58001SOL     OW75899  10.866   1.477  12.897
58001SOL    HW175900  10.917   1.531  12.837
58001SOL    HW275901  10.865   1.390  12.857
58002SOL     OW75902   7.899  11.826  10.970
58002SOL    HW175903   7.963  11.816  10.900
58002SOL    HW275904   7.909  11.746  11.023
58003SOL     OW75905   6.292   2.995  10.244
58003SOL    HW175906   6.275   3.090  10.241
58003SOL    HW275907   6.206   2.956  10.260
58004SOL     OW75908   1.555  14.130  11.893
58004SOL    HW175909   1.485  14.129  11.958
58004SOL    HW275910   1.561  14.221  11.865
58005SOL     OW75911   3.401   9.829  13.421
58005SOL    HW175912   3.436   9.751  13.379
58005SOL    HW275913   3.471   9.894  13.416
58006SOL     OW75914  12.573   2.212  12.234
58006SOL    HW175915  12.563   2.277  12.164
58006SOL    HW275916  12.527   2.251  12.309
58007SOL     OW75917  11.772  10.362  13.754
58007SOL    HW175918  11.764  10.450  13.790
58007SOL    HW275919  11.737  10.305  13.823
58008SOL     OW75920   1.307   4.688   9.253
58008SOL    HW175921   1.303   4.724   9.165
58008SOL    HW275922   1.398   4.659   9.262
58009SOL     OW75923   0.609   6.499   2.118
58009SOL    HW175924   0.553   6.431   2.155
58009SOL    HW275925   0.584   6.504   2.026
58010SOL     OW75926   3.001   6.390   1.875
58010SOL    HW175927   3.096   6.402   1.882
58010SOL    HW275928   2.984   6.310   1.926
58011SOL     OW75929   3.901   2.566  13.384
58011SOL    HW175930   3.825   2.619  13.410
58011SOL    HW275931   3.976   2.622  13.404
58012SOL     OW75932   4.077  12.581   0.903
58012SOL    HW175933   3.995  12.628   0.917
58012SOL    HW275934   4.070  12.547   0.814
58013SOL     OW75935   2.322   6.700   8.979
58013SOL    HW175936   2.295   6.644   9.053
58013SOL    HW275937   2.244   6.752   8.959
58014SOL     OW75938   0.240   0.893  12.867
58014SOL    HW175939   0.197   0.808  12.875
58014SOL    HW275940   0.318   0.886  12.921
58015SOL     OW75941   5.255   9.895  12.495
58015SOL    HW175942   5.265   9.919  12.587
58015SOL    HW275943   5.344   9.896  12.461
58016SOL     OW75944   1.074   5.454  12.919
58016SOL    HW175945   1.147   5.459  12.982
58016SOL    HW275946   1.093   5.375  12.868
58017SOL     OW75947   7.218  14.122   1.008
58017SOL    HW175948   7.134  14.078   0.999
58017SOL    HW275949   7.281  14.063   0.968
58018SOL     OW75950   7.435   6.195   6.452
58018SOL    HW175951   7.465   6.285   6.441
58018SOL    HW275952   7.510   6.149   6.489
58019SOL     OW75953   8.798   1.810  12.985
58019SOL    HW175954   8.870   1.756  13.014
58019SOL    HW275955   8.725   1.787  13.043
58020SOL     OW75956   6.780  11.364   7.414
58020SOL    HW175957   6.857  11.399   7.370
58020SOL    HW275958   6.766  11.279   7.372
58021SOL     OW75959   7.667  11.241   8.575
58021SOL    HW175960   7.662  11.292   8.655
58021SOL    HW275961   7.686  11.152   8.604
58022SOL     OW75962   2.055  13.365   4.661
58022SOL    HW175963   2.062  13.274   4.631
58022SOL    HW275964   1.986  13.364   4.726
58023SOL     OW75965  14.613   6.354  12.108
58023SOL    HW175966  14.599   6.412  12.183
58023SOL    HW275967  14.680   6.292  12.138
58024SOL     OW75968   7.211  11.510   8.605
58024SOL    HW175969   7.176  11.545   8.523
58024SOL    HW275970   7.164  11.558   8.673
58025SOL     OW75971  11.544   1.888   1.636
58025SOL    HW175972  11.623   1.868   1.585
58025SOL    HW275973  11.511   1.969   1.599
58026SOL     OW75974   9.792  11.240   3.139
58026SOL    HW175975   9.823  11.267   3.053
58026SOL    HW275976   9.703  11.207   3.124
58027SOL     OW75977  11.147   4.567  14.413
58027SOL    HW175978  11.120   4.656  14.436
58027SOL    HW275979  11.081   4.511  14.454
58028SOL     OW75980   6.436   2.242  12.538
58028SOL    HW175981   6.505   2.186  12.574
58028SOL    HW275982   6.382   2.265  12.614
58029SOL     OW75983  13.302  10.885  12.481
58029SOL    HW175984  13.260  10.955  12.432
58029SOL    HW275985  13.395  10.892  12.458
58030SOL     OW75986   5.006   7.297  14.043
58030SOL    HW175987   4.932   7.357  14.041
58030SOL    HW275988   5.032   7.293  14.135
58031SOL     OW75989   1.046  11.920   9.616
58031SOL    HW175990   1.105  11.846   9.632
58031SOL    HW275991   0.961  11.880   9.601
58032SOL     OW75992   2.686   4.458  13.176
58032SOL    HW175993   2.700   4.394  13.245
58032SOL    HW275994   2.604   4.430  13.134
58033SOL     OW75995   7.742   8.320   6.368
58033SOL    HW175996   7.721   8.413   6.364
58033SOL    HW275997   7.708   8.283   6.287
58034SOL     OW75998  10.897   1.539  12.003
58034SOL    HW175999  10.814   1.518  12.047
58034SOL    HW276000  10.964   1.497  12.057
58035SOL     OW76001   1.330   3.381   5.221
58035SOL    HW176002   1.352   3.346   5.307
58035SOL    HW276003   1.373   3.322   5.159
58036SOL     OW76004  14.443   3.098   0.581
58036SOL    HW176005  14.384   3.103   0.506
58036SOL    HW276006  14.470   3.006   0.585
58037SOL     OW76007   4.455   3.749  11.084
58037SOL    HW176008   4.407   3.753  11.001
58037SOL    HW276009   4.436   3.662  11.119
58038SOL     OW76010  10.323   8.220  13.630
58038SOL    HW176011  10.242   8.271  13.622
58038SOL    HW276012  10.393   8.286  13.633
58039SOL     OW76013  12.992   5.069   8.037
58039SOL    HW176014  12.909   5.106   8.067
58039SOL    HW276015  13.052   5.081   8.110
58040SOL     OW76016  10.610  12.962  11.999
58040SOL    HW176017  10.597  12.875  12.036
58040SOL    HW276018  10.523  13.001  11.997
58041SOL     OW76019   0.831   7.501   2.821
58041SOL    HW176020   0.874   7.437   2.765
58041SOL    HW276021   0.745   7.513   2.781
58042SOL     OW76022   9.467   1.613   2.591
58042SOL    HW176023   9.555   1.601   2.627
58042SOL    HW276024   9.418   1.537   2.622
58043SOL     OW76025   8.864   3.422   4.025
58043SOL    HW176026   8.795   3.469   3.978
58043SOL    HW276027   8.938   3.482   4.026
58044SOL     OW76028  11.533   3.106   4.927
58044SOL    HW176029  11.561   3.094   5.017
58044SOL    HW276030  11.570   3.032   4.880
58045SOL     OW76031   5.971   1.328   3.062
58045SOL    HW176032   5.995   1.235   3.064
58045SOL    HW276033   6.000   1.358   2.976
58046SOL     OW76034   8.385   6.913  11.151
58046SOL    HW176035   8.332   6.975  11.202
58046SOL    HW276036   8.473   6.922  11.187
58047SOL     OW76037   8.385   2.710   2.426
58047SOL    HW176038   8.326   2.779   2.393
58047SOL    HW276039   8.456   2.758   2.468
58048SOL     OW76040   1.987   0.788   2.313
58048SOL    HW176041   1.946   0.830   2.238
58048SOL    HW276042   1.952   0.699   2.313
58049SOL     OW76043  12.591   3.224   6.656
58049SOL    HW176044  12.593   3.300   6.598
58049SOL    HW276045  12.498   3.202   6.663
58050SOL     OW76046  14.375   2.162   3.439
58050SOL    HW176047  14.408   2.100   3.505
58050SOL    HW276048  14.284   2.178   3.464
58051SOL     OW76049   7.020   2.263   8.648
58051SOL    HW176050   7.053   2.290   8.734
58051SOL    HW276051   6.930   2.236   8.665
58052SOL     OW76052   1.146   9.503   5.913
58052SOL    HW176053   1.105   9.526   5.830
58052SOL    HW276054   1.237   9.484   5.890
58053SOL     OW76055   3.626   1.559   7.776
58053SOL    HW176056   3.553   1.497   7.781
58053SOL    HW276057   3.702   1.508   7.804
58054SOL     OW76058   6.469  12.472  12.747
58054SOL    HW176059   6.456  12.552  12.797
58054SOL    HW276060   6.554  12.439  12.774
58055SOL     OW76061   6.065   2.493   5.638
58055SOL    HW176062   6.115   2.574   5.654
58055SOL    HW276063   6.105   2.457   5.559
58056SOL     OW76064   5.739  13.229   0.534
58056SOL    HW176065   5.727  13.161   0.468
58056SOL    HW276066   5.670  13.293   0.517
58057SOL     OW76067  13.717   2.546   1.450
58057SOL    HW176068  13.631   2.530   1.487
58057SOL    HW276069  13.775   2.552   1.525
58058SOL     OW76070  12.008   7.663   6.385
58058SOL    HW176071  11.988   7.702   6.470
58058SOL    HW276072  11.967   7.721   6.321
58059SOL     OW76073   5.927  13.643   5.248
58059SOL    HW176074   5.968  13.662   5.333
58059SOL    HW276075   5.835  13.668   5.260
58060SOL     OW76076   3.232  11.181   8.949
58060SOL    HW176077   3.238  11.102   8.895
58060SOL    HW276078   3.257  11.252   8.890
58061SOL     OW76079  11.128  13.788   4.189
58061SOL    HW176080  11.040  13.821   4.169
58061SOL    HW276081  11.125  13.696   4.164
58062SOL     OW76082   5.886   2.274   6.771
58062SOL    HW176083   5.944   2.281   6.695
58062SOL    HW276084   5.897   2.184   6.802
58063SOL     OW76085   1.767   4.550   6.435
58063SOL    HW176086   1.861   4.538   6.448
58063SOL    HW276087   1.757   4.644   6.418
58064SOL     OW76088   6.282  10.496   4.217
58064SOL    HW176089   6.332  10.415   4.213
58064SOL    HW276090   6.191  10.468   4.218
58065SOL     OW76091   3.553  13.516  10.446
58065SOL    HW176092   3.553  13.611  10.453
58065SOL    HW276093   3.571  13.499  10.353
58066SOL     OW76094   0.262   8.564   3.870
58066SOL    HW176095   0.171   8.545   3.847
58066SOL    HW276096   0.268   8.659   3.865
58067SOL     OW76097  10.674   3.583  11.347
58067SOL    HW176098  10.675   3.502  11.397
58067SOL    HW276099  10.635   3.558  11.263
58068SOL     OW76100  11.192  13.224   0.090
58068SOL    HW176101  11.272  13.218   0.038
58068SOL    HW276102  11.200  13.153   0.153
58069SOL     OW76103   1.811   3.836  14.758
58069SOL    HW176104   1.813   3.918  14.809
58069SOL    HW276105   1.860   3.774  14.812
58070SOL     OW76106   8.322  11.833   4.874
58070SOL    HW176107   8.367  11.783   4.806
58070SOL    HW276108   8.244  11.781   4.893
58071SOL     OW76109   7.777   2.359   4.480
58071SOL    HW176110   7.814   2.365   4.568
58071SOL    HW276111   7.698   2.306   4.491
58072SOL     OW76112   9.303   4.306   8.389
58072SOL    HW176113   9.395   4.288   8.409
58072SOL    HW276114   9.303   4.393   8.350
58073SOL     OW76115   3.304  12.677   1.398
58073SOL    HW176116   3.399  12.673   1.386
58073SOL    HW276117   3.268  12.647   1.314
58074SOL     OW76118   4.547  14.789   3.356
58074SOL    HW176119   4.640  14.810   3.356
58074SOL    HW276120   4.515  14.824   3.273
58075SOL     OW76121   1.546   2.402  10.015
58075SOL    HW176122   1.504   2.470  10.068
58075SOL    HW276123   1.636   2.434  10.002
58076SOL     OW76124  11.738   0.570   3.536
58076SOL    HW176125  11.789   0.651   3.529
58076SOL    HW276126  11.668   0.580   3.472
58077SOL     OW76127  12.049   8.231   2.637
58077SOL    HW176128  12.070   8.161   2.575
58077SOL    HW276129  12.037   8.187   2.721
58078SOL     OW76130  11.960   0.519   3.069
58078SOL    HW176131  11.944   0.580   3.141
58078SOL    HW276132  12.055   0.505   3.070
58079SOL     OW76133  10.009   2.139   2.174
58079SOL    HW176134  10.045   2.217   2.131
58079SOL    HW276135  10.045   2.066   2.125
58080SOL     OW76136  13.162   7.103   9.004
58080SOL    HW176137  13.100   7.153   8.951
58080SOL    HW276138  13.115   7.023   9.028
58081SOL     OW76139   7.359   0.900  11.679
58081SOL    HW176140   7.377   0.950  11.759
58081SOL    HW276141   7.285   0.945  11.638
58082SOL     OW76142   0.428  12.200   7.998
58082SOL    HW176143   0.389  12.121   8.037
58082SOL    HW276144   0.483  12.236   8.068
58083SOL     OW76145   0.791   1.812   2.664
58083SOL    HW176146   0.728   1.872   2.624
58083SOL    HW276147   0.875   1.856   2.657
58084SOL     OW76148   6.684  11.473  13.545
58084SOL    HW176149   6.592  11.476  13.569
58084SOL    HW276150   6.685  11.452  13.452
58085SOL     OW76151   7.105  12.499   8.041
58085SOL    HW176152   7.185  12.447   8.048
58085SOL    HW276153   7.047  12.464   8.109
58086SOL     OW76154   9.109   1.355   0.708
58086SOL    HW176155   9.188   1.370   0.760
58086SOL    HW276156   9.041   1.334   0.773
58087SOL     OW76157   6.325   8.077   4.944
58087SOL    HW176158   6.311   7.997   4.995
58087SOL    HW276159   6.271   8.065   4.866
58088SOL     OW76160   7.437  10.832   5.055
58088SOL    HW176161   7.421  10.905   4.995
58088SOL    HW276162   7.350  10.799   5.077
58089SOL     OW76163   5.588   0.451   1.586
58089SOL    HW176164   5.651   0.451   1.658
58089SOL    HW276165   5.554   0.361   1.585
58090SOL     OW76166   9.439  14.811   1.960
58090SOL    HW176167   9.510  14.856   2.005
58090SOL    HW276168   9.393   0.012   1.912
58091SOL     OW76169   3.045  10.320   1.283
58091SOL    HW176170   3.055  10.235   1.241
58091SOL    HW276171   3.134  10.350   1.297
58092SOL     OW76172  10.513   6.330   6.622
58092SOL    HW176173  10.553   6.361   6.703
58092SOL    HW276174  10.529   6.400   6.558
58093SOL     OW76175   9.672   2.530   8.147
58093SOL    HW176176   9.690   2.440   8.120
58093SOL    HW276177   9.616   2.521   8.224
58094SOL     OW76178  13.549  10.460   1.847
58094SOL    HW176179  13.613  10.459   1.918
58094SOL    HW276180  13.601  10.467   1.767
58095SOL     OW76181  14.551  14.867   4.560
58095SOL    HW176182  14.559  14.814   4.639
58095SOL    HW276183  14.464   0.039   4.567
58096SOL     OW76184   4.920   8.564  13.150
58096SOL    HW176185   4.957   8.652  13.156
58096SOL    HW276186   4.912   8.536  13.241
58097SOL     OW76187   4.920  14.804  11.753
58097SOL    HW176188   4.847  14.840  11.803
58097SOL    HW276189   4.904  14.710  11.753
58098SOL     OW76190   9.398  10.981  11.342
58098SOL    HW176191   9.491  10.962  11.356
58098SOL    HW276192   9.398  11.046  11.271
58099SOL     OW76193  10.785   3.382  12.500
58099SOL    HW176194  10.758   3.473  12.490
58099SOL    HW276195  10.879   3.383  12.482
58100SOL     OW76196   1.456   8.760   5.622
58100SOL    HW176197   1.481   8.841   5.668
58100SOL    HW276198   1.370   8.780   5.585
58101SOL     OW76199  10.431  11.894   3.480
58101SOL    HW176200  10.460  11.980   3.451
58101SOL    HW276201  10.432  11.840   3.401
58102SOL     OW76202   9.416   9.806   0.061
58102SOL    HW176203   9.425   9.714   0.083
58102SOL    HW276204   9.347   9.808  14.862
58103SOL     OW76205   2.545  13.878  14.773
58103SOL    HW176206   2.583  13.820  14.707
58103SOL    HW276207   2.579  13.965  14.751
58104SOL     OW76208   7.133   7.590  10.402
58104SOL    HW176209   7.089   7.538  10.335
58104SOL    HW276210   7.172   7.663  10.354
58105SOL     OW76211   1.169  11.571   6.780
58105SOL    HW176212   1.191  11.566   6.873
58105SOL    HW276213   1.092  11.515   6.771
58106SOL     OW76214  12.501   6.335   0.568
58106SOL    HW176215  12.581   6.318   0.618
58106SOL    HW276216  12.533   6.361   0.482
58107SOL     OW76217   1.813   5.048   4.949
58107SOL    HW176218   1.767   4.996   5.014
58107SOL    HW276219   1.905   5.041   4.972
58108SOL     OW76220  13.830   9.995  10.215
58108SOL    HW176221  13.913   9.952  10.235
58108SOL    HW276222  13.837  10.019  10.123
58109SOL     OW76223   4.103   2.618  10.434
58109SOL    HW176224   4.056   2.682  10.488
58109SOL    HW276225   4.160   2.671  10.378
58110SOL     OW76226   4.622   3.338  10.991
58110SOL    HW176227   4.646   3.413  10.936
58110SOL    HW276228   4.696   3.278  10.982
58111SOL     OW76229  10.409   1.682   3.127
58111SOL    HW176230  10.445   1.594   3.138
58111SOL    HW276231  10.395   1.714   3.217
58112SOL     OW76232  13.400   5.927   2.326
58112SOL    HW176233  13.356   5.968   2.251
58112SOL    HW276234  13.328   5.905   2.386
58113SOL     OW76235   5.598   9.421   4.409
58113SOL    HW176236   5.639   9.466   4.482
58113SOL    HW276237   5.586   9.331   4.439
58114SOL     OW76238   5.924   9.684  12.164
58114SOL    HW176239   5.875   9.647  12.091
58114SOL    HW276240   5.977   9.753  12.125
58115SOL     OW76241  13.116  11.905   1.902
58115SOL    HW176242  13.178  11.939   1.966
58115SOL    HW276243  13.095  11.980   1.847
58116SOL     OW76244   1.433   6.136   5.458
58116SOL    HW176245   1.411   6.087   5.378
58116SOL    HW276246   1.358   6.194   5.471
58117SOL     OW76247  13.451   7.691   3.579
58117SOL    HW176248  13.521   7.672   3.641
58117SOL    HW276249  13.446   7.786   3.577
58118SOL     OW76250   7.897   8.336   7.700
58118SOL    HW176251   7.911   8.387   7.621
58118SOL    HW276252   7.809   8.298   7.690
58119SOL     OW76253   3.581   5.952  12.533
58119SOL    HW176254   3.646   5.906  12.480
58119SOL    HW276255   3.556   6.027  12.478
58120SOL     OW76256   5.027   9.621  13.976
58120SOL    HW176257   5.115   9.584  13.987
58120SOL    HW276258   4.969   9.544  13.977
58121SOL     OW76259   1.163   8.035   5.628
58121SOL    HW176260   1.185   7.958   5.575
58121SOL    HW276261   1.212   8.107   5.587
58122SOL     OW76262  10.950   7.234   5.105
58122SOL    HW176263  10.910   7.148   5.120
58122SOL    HW276264  10.962   7.270   5.193
58123SOL     OW76265   4.634   5.924   5.618
58123SOL    HW176266   4.559   5.880   5.658
58123SOL    HW276267   4.621   5.915   5.524
58124SOL     OW76268  13.058   8.176   1.278
58124SOL    HW176269  12.984   8.181   1.338
58124SOL    HW276270  13.118   8.244   1.308
58125SOL     OW76271   6.038  14.811   4.027
58125SOL    HW176272   5.946  14.830   4.045
58125SOL    HW276273   6.066  14.757   4.100
58126SOL     OW76274   1.026  13.239  10.133
58126SOL    HW176275   1.087  13.312  10.141
58126SOL    HW276276   1.013  13.229  10.038
58127SOL     OW76277  10.085   6.496   0.901
58127SOL    HW176278  10.166   6.448   0.917
58127SOL    HW276279  10.111   6.570   0.846
58128SOL     OW76280   6.478   6.128   1.195
58128SOL    HW176281   6.487   6.199   1.258
58128SOL    HW276282   6.567   6.093   1.186
58129SOL     OW76283   1.435   6.351   1.496
58129SOL    HW176284   1.370   6.419   1.516
58129SOL    HW276285   1.389   6.268   1.512
58130SOL     OW76286   4.707  13.937   2.079
58130SOL    HW176287   4.768  14.011   2.078
58130SOL    HW276288   4.720  13.893   1.995
58131SOL     OW76289   7.644   4.391   0.549
58131SOL    HW176290   7.725   4.380   0.499
58131SOL    HW276291   7.634   4.486   0.556
58132SOL     OW76292  11.172   0.479   5.274
58132SOL    HW176293  11.161   0.473   5.369
58132SOL    HW276294  11.253   0.430   5.256
58133SOL     OW76295  13.141   6.339   2.186
58133SOL    HW176296  13.046   6.337   2.197
58133SOL    HW276297  13.176   6.317   2.273
58134SOL     OW76298   8.259   4.587   5.602
58134SOL    HW176299   8.270   4.649   5.674
58134SOL    HW276300   8.313   4.622   5.531
58135SOL     OW76301  13.005   8.931   3.562
58135SOL    HW176302  13.003   8.982   3.481
58135SOL    HW276303  12.913   8.927   3.590
58136SOL     OW76304   6.258   5.730   3.368
58136SOL    HW176305   6.248   5.704   3.277
58136SOL    HW276306   6.310   5.661   3.408
58137SOL     OW76307  11.730   7.009   4.642
58137SOL    HW176308  11.727   6.925   4.596
58137SOL    HW276309  11.640   7.040   4.643
58138SOL     OW76310   3.490   6.739   3.690
58138SOL    HW176311   3.548   6.669   3.661
58138SOL    HW276312   3.435   6.698   3.757
58139SOL     OW76313   7.485   2.042   4.463
58139SOL    HW176314   7.568   2.019   4.422
58139SOL    HW276315   7.438   1.959   4.471
58140SOL     OW76316  10.435   2.299  10.373
58140SOL    HW176317  10.433   2.394  10.367
58140SOL    HW276318  10.505   2.280  10.435
58141SOL     OW76319  13.107  10.531  13.192
58141SOL    HW176320  13.119  10.450  13.142
58141SOL    HW276321  13.079  10.502  13.278
58142SOL     OW76322   7.093   9.043   4.465
58142SOL    HW176323   7.042   8.991   4.403
58142SOL    HW276324   7.184   9.029   4.439
58143SOL     OW76325  14.839  14.510   0.006
58143SOL    HW176326  14.767  14.568  14.852
58143SOL    HW276327  14.798  14.426   0.024
58144SOL     OW76328   4.642   4.234   9.948
58144SOL    HW176329   4.621   4.278  10.030
58144SOL    HW276330   4.735   4.211   9.957
58145SOL     OW76331   6.868   5.314  14.129
58145SOL    HW176332   6.930   5.328  14.058
58145SOL    HW276333   6.858   5.400  14.170
58146SOL     OW76334   6.748  12.741   0.653
58146SOL    HW176335   6.681  12.809   0.664
58146SOL    HW276336   6.768  12.742   0.559
58147SOL     OW76337  14.250  11.730   2.055
58147SOL    HW176338  14.211  11.803   2.007
58147SOL    HW276339  14.298  11.770   2.127
58148SOL     OW76340  11.747   2.538   9.842
58148SOL    HW176341  11.750   2.606   9.910
58148SOL    HW276342  11.823   2.483   9.860
58149SOL     OW76343  14.569   5.591  14.162
58149SOL    HW176344  14.596   5.512  14.208
58149SOL    HW276345  14.612   5.585  14.077
58150SOL     OW76346   1.869   9.131  12.313
58150SOL    HW176347   1.927   9.075  12.260
58150SOL    HW276348   1.924   9.164  12.383
58151SOL     OW76349   6.854   0.816  13.695
58151SOL    HW176350   6.928   0.755  13.696
58151SOL    HW276351   6.815   0.807  13.782
58152SOL     OW76352   2.701   8.513   5.754
58152SOL    HW176353   2.722   8.420   5.746
58152SOL    HW276354   2.701   8.529   5.848
58153SOL     OW76355  14.549   8.702   5.946
58153SOL    HW176356  14.536   8.784   5.994
58153SOL    HW276357  14.517   8.634   6.005
58154SOL     OW76358   8.463  10.422   1.285
58154SOL    HW176359   8.550  10.382   1.279
58154SOL    HW276360   8.409  10.369   1.227
58155SOL     OW76361   4.746   4.895   3.667
58155SOL    HW176362   4.822   4.953   3.668
58155SOL    HW276363   4.777   4.816   3.622
58156SOL     OW76364   5.579  11.755   6.470
58156SOL    HW176365   5.600  11.746   6.377
58156SOL    HW276366   5.573  11.665   6.502
58157SOL     OW76367   7.584  11.470  12.249
58157SOL    HW176368   7.568  11.515  12.166
58157SOL    HW276369   7.501  11.476  12.296
58158SOL     OW76370   7.326  14.844   9.035
58158SOL    HW176371   7.355  14.772   9.092
58158SOL    HW276372   7.298   0.044   9.096
58159SOL     OW76373   1.474  13.809  10.359
58159SOL    HW176374   1.393  13.760  10.350
58159SOL    HW276375   1.446  13.899  10.375
58160SOL     OW76376  11.528  13.462   9.108
58160SOL    HW176377  11.497  13.552   9.122
58160SOL    HW276378  11.530  13.424   9.196
58161SOL     OW76379   9.207   1.184   1.286
58161SOL    HW176380   9.191   1.172   1.193
58161SOL    HW276381   9.119   1.186   1.325
58162SOL     OW76382   3.449  10.119  14.481
58162SOL    HW176383   3.478  10.210  14.474
58162SOL    HW276384   3.446  10.102  14.576
58163SOL     OW76385   2.616   4.302   1.721
58163SOL    HW176386   2.641   4.262   1.804
58163SOL    HW276387   2.586   4.390   1.744
58164SOL     OW76388   6.899   3.629   6.722
58164SOL    HW176389   6.863   3.706   6.765
58164SOL    HW276390   6.874   3.639   6.630
58165SOL     OW76391   7.253  12.587   4.072
58165SOL    HW176392   7.232  12.494   4.063
58165SOL    HW276393   7.234  12.625   3.986
58166SOL     OW76394   2.066   7.743  12.759
58166SOL    HW176395   2.007   7.718  12.688
58166SOL    HW276396   2.061   7.838  12.762
58167SOL     OW76397  13.207  10.377   0.157
58167SOL    HW176398  13.296  10.407   0.136
58167SOL    HW276399  13.178  10.437   0.226
58168SOL     OW76400   5.412   1.630   8.949
58168SOL    HW176401   5.475   1.673   9.006
58168SOL    HW276402   5.351   1.699   8.924
58169SOL     OW76403  11.144  11.554   6.903
58169SOL    HW176404  11.213  11.589   6.846
58169SOL    HW276405  11.191  11.505   6.970
58170SOL     OW76406  12.030   0.892  11.907
58170SOL    HW176407  12.083   0.905  11.828
58170SOL    HW276408  12.045   0.971  11.959
58171SOL     OW76409   7.136   3.259   8.546
58171SOL    HW176410   7.214   3.285   8.594
58171SOL    HW276411   7.081   3.337   8.544
58172SOL     OW76412   5.582   6.117  11.429
58172SOL    HW176413   5.494   6.078  11.430
58172SOL    HW276414   5.611   6.111  11.338
58173SOL     OW76415  10.367   0.369  10.303
58173SOL    HW176416  10.343   0.442  10.360
58173SOL    HW276417  10.300   0.302  10.320
58174SOL     OW76418   7.118   8.752  13.105
58174SOL    HW176419   7.194   8.802  13.076
58174SOL    HW276420   7.148   8.662  13.108
58175SOL     OW76421   7.813   0.018  11.273
58175SOL    HW176422   7.816  14.791  11.291
58175SOL    HW276423   7.732   0.030  11.224
58176SOL     OW76424   0.689   7.662   2.190
58176SOL    HW176425   0.697   7.736   2.251
58176SOL    HW276426   0.701   7.701   2.104
58177SOL     OW76427   3.696  12.588  11.416
58177SOL    HW176428   3.754  12.530  11.368
58177SOL    HW276429   3.743  12.672  11.419
58178SOL     OW76430   7.242  10.629   2.253
58178SOL    HW176431   7.279  10.678   2.327
58178SOL    HW276432   7.210  10.548   2.293
58179SOL     OW76433  13.840   2.034  13.818
58179SOL    HW176434  13.821   2.126  13.797
58179SOL    HW276435  13.778   1.984  13.766
58180SOL     OW76436   8.037  11.929   1.504
58180SOL    HW176437   7.945  11.956   1.497
58180SOL    HW276438   8.079  11.999   1.555
58181SOL     OW76439  12.832  11.466   9.019
58181SOL    HW176440  12.748  11.473   8.973
58181SOL    HW276441  12.809  11.428   9.104
58182SOL     OW76442   4.250  13.618  12.907
58182SOL    HW176443   4.304  13.599  12.984
58182SOL    HW276444   4.233  13.533  12.867
58183SOL     OW76445   2.231   0.632   9.439
58183SOL    HW176446   2.294   0.638   9.511
58183SOL    HW276447   2.149   0.607   9.482
58184SOL     OW76448  12.181   9.872   1.274
58184SOL    HW176449  12.109   9.867   1.211
58184SOL    HW276450  12.222   9.786   1.270
58185SOL     OW76451   0.469   0.880   0.218
58185SOL    HW176452   0.486   0.953   0.279
58185SOL    HW276453   0.444   0.807   0.275
58186SOL     OW76454  11.330   9.454  10.639
58186SOL    HW176455  11.282   9.417  10.714
58186SOL    HW276456  11.263   9.469  10.573
58187SOL     OW76457  11.118  12.086  10.576
58187SOL    HW176458  11.094  12.162  10.630
58187SOL    HW276459  11.036  12.062  10.532
58188SOL     OW76460   0.830  12.850   9.426
58188SOL    HW176461   0.823  12.869   9.519
58188SOL    HW276462   0.885  12.920   9.391
58189SOL     OW76463   2.453   5.813   3.051
58189SOL    HW176464   2.439   5.866   2.972
58189SOL    HW276465   2.465   5.724   3.018
58190SOL     OW76466   3.023   2.349   0.534
58190SOL    HW176467   3.057   2.356   0.623
58190SOL    HW276468   3.071   2.416   0.485
58191SOL     OW76469   0.121   2.439   4.276
58191SOL    HW176470   0.079   2.512   4.322
58191SOL    HW276471   0.214   2.463   4.273
58192SOL     OW76472   0.179   3.903   8.258
58192SOL    HW176473   0.139   3.973   8.309
58192SOL    HW276474   0.231   3.854   8.322
58193SOL     OW76475  14.154  12.796   8.397
58193SOL    HW176476  14.069  12.783   8.355
58193SOL    HW276477  14.196  12.866   8.346
58194SOL     OW76478   3.288  10.630   7.270
58194SOL    HW176479   3.301  10.665   7.359
58194SOL    HW276480   3.269  10.537   7.284
58195SOL     OW76481   5.266  13.293  10.701
58195SOL    HW176482   5.182  13.273  10.660
58195SOL    HW276483   5.331  13.251  10.644
58196SOL     OW76484   7.756   0.127   1.243
58196SOL    HW176485   7.720   0.117   1.331
58196SOL    HW276486   7.850   0.143   1.257
58197SOL     OW76487  13.967   8.537   2.195
58197SOL    HW176488  13.941   8.503   2.281
58197SOL    HW276489  14.014   8.618   2.215
58198SOL     OW76490  10.882  10.547   1.646
58198SOL    HW176491  10.821  10.556   1.720
58198SOL    HW276492  10.956  10.499   1.683
58199SOL     OW76493   5.099   7.579  14.548
58199SOL    HW176494   5.086   7.493  14.588
58199SOL    HW276495   5.153   7.627  14.610
58200SOL     OW76496   6.149   7.425  13.212
58200SOL    HW176497   6.225   7.463  13.167
58200SOL    HW276498   6.137   7.340  13.170
58201SOL     OW76499   2.917   5.925   3.076
58201SOL    HW176500   2.969   5.943   2.998
58201SOL    HW276501   2.975   5.871   3.131
58202SOL     OW76502  10.768   2.554   7.966
58202SOL    HW176503  10.847   2.503   7.983
58202SOL    HW276504  10.791   2.643   7.992
58203SOL     OW76505  14.090   8.293   0.715
58203SOL    HW176506  14.002   8.259   0.730
58203SOL    HW276507  14.128   8.233   0.651
58204SOL     OW76508   5.165  13.503   5.100
58204SOL    HW176509   5.256  13.509   5.068
58204SOL    HW276510   5.164  13.555   5.180
58205SOL     OW76511   6.830   0.560  13.383
58205SOL    HW176512   6.834   0.520  13.470
58205SOL    HW276513   6.758   0.515  13.339
58206SOL     OW76514  13.355   8.827   2.772
58206SOL    HW176515  13.446   8.851   2.755
58206SOL    HW276516  13.360   8.739   2.810
58207SOL     OW76517  10.364   7.755   6.170
58207SOL    HW176518  10.325   7.676   6.132
58207SOL    HW276519  10.290   7.803   6.207
58208SOL     OW76520   1.646   4.115   0.412
58208SOL    HW176521   1.569   4.142   0.363
58208SOL    HW276522   1.618   4.117   0.503
58209SOL     OW76523   6.796   2.761   8.866
58209SOL    HW176524   6.783   2.669   8.844
58209SOL    HW276525   6.777   2.809   8.786
58210SOL     OW76526   2.843  14.480   3.111
58210SOL    HW176527   2.920  14.533   3.131
58210SOL    HW276528   2.783  14.541   3.066
58211SOL     OW76529  13.219   2.461  10.160
58211SOL    HW176530  13.174   2.523  10.103
58211SOL    HW276531  13.174   2.467  10.244
58212SOL     OW76532  14.821  12.819  13.249
58212SOL    HW176533   0.024  12.826  13.185
58212SOL    HW276534  14.748  12.783  13.200
58213SOL     OW76535  10.101  14.764   6.199
58213SOL    HW176536  10.177  14.756   6.143
58213SOL    HW276537  10.088  14.677   6.236
58214SOL     OW76538   7.973   6.229  10.625
58214SOL    HW176539   8.006   6.200  10.539
58214SOL    HW276540   8.017   6.313  10.640
58215SOL     OW76541  14.349  14.716   5.493
58215SOL    HW176542  14.275  14.680   5.444
58215SOL    HW276543  14.337  14.811   5.489
58216SOL     OW76544  10.368  11.102   8.778
58216SOL    HW176545  10.357  11.197   8.781
58216SOL    HW276546  10.306  11.069   8.843
58217SOL     OW76547  14.099   8.952   3.546
58217SOL    HW176548  14.100   9.032   3.494
58217SOL    HW276549  14.006   8.934   3.560
58218SOL     OW76550   4.016   2.008   0.600
58218SOL    HW176551   4.102   1.980   0.633
58218SOL    HW276552   3.993   2.083   0.656
58219SOL     OW76553   0.286  11.969  11.863
58219SOL    HW176554   0.329  12.043  11.906
58219SOL    HW276555   0.210  11.950  11.918
58220SOL     OW76556   1.135   7.370   1.138
58220SOL    HW176557   1.168   7.441   1.083
58220SOL    HW276558   1.108   7.302   1.077
58221SOL     OW76559   0.795   8.139   0.736
58221SOL    HW176560   0.817   8.054   0.771
58221SOL    HW276561   0.874   8.191   0.745
58222SOL     OW76562  10.892   8.495   0.243
58222SOL    HW176563  10.820   8.445   0.282
58222SOL    HW276564  10.878   8.585   0.273
58223SOL     OW76565   8.748  14.322   0.842
58223SOL    HW176566   8.817  14.382   0.870
58223SOL    HW276567   8.739  14.260   0.914
58224SOL     OW76568   1.217  11.933   3.784
58224SOL    HW176569   1.201  11.844   3.814
58224SOL    HW276570   1.136  11.980   3.804
58225SOL     OW76571   0.224   8.208  13.840
58225SOL    HW176572   0.302   8.164  13.872
58225SOL    HW276573   0.214   8.285  13.897
58226SOL     OW76574   2.154   5.298   0.840
58226SOL    HW176575   2.227   5.281   0.781
58226SOL    HW276576   2.194   5.310   0.926
58227SOL     OW76577   3.334  11.541   5.078
58227SOL    HW176578   3.285  11.497   5.148
58227SOL    HW276579   3.425  11.532   5.105
58228SOL     OW76580   0.722   4.410   5.736
58228SOL    HW176581   0.746   4.318   5.748
58228SOL    HW276582   0.658   4.427   5.804
58229SOL     OW76583   2.274   5.566  11.930
58229SOL    HW176584   2.230   5.526  11.855
58229SOL    HW276585   2.367   5.552  11.914
58230SOL     OW76586  13.529  11.251   6.879
58230SOL    HW176587  13.574  11.302   6.812
58230SOL    HW276588  13.599  11.203   6.923
58231SOL     OW76589   6.765  12.813  14.595
58231SOL    HW176590   6.848  12.858  14.608
58231SOL    HW276591   6.754  12.758  14.672
58232SOL     OW76592  10.922   0.552   5.180
58232SOL    HW176593  10.987   0.550   5.110
58232SOL    HW276594  10.974   0.561   5.260
58233SOL     OW76595   5.945   8.233   6.803
58233SOL    HW176596   5.885   8.286   6.854
58233SOL    HW276597   5.906   8.145   6.803
58234SOL     OW76598  12.508  12.022   7.161
58234SOL    HW176599  12.487  12.046   7.070
58234SOL    HW276600  12.546  11.934   7.154
58235SOL     OW76601   5.593   8.998  11.219
58235SOL    HW176602   5.680   8.968  11.194
58235SOL    HW276603   5.557   8.928  11.273
58236SOL     OW76604  11.688   0.903   6.074
58236SOL    HW176605  11.732   0.826   6.109
58236SOL    HW276606  11.604   0.906   6.120
58237SOL     OW76607   6.189   0.920   1.728
58237SOL    HW176608   6.101   0.957   1.721
58237SOL    HW276609   6.183   0.835   1.685
58238SOL     OW76610   5.302   7.642   0.217
58238SOL    HW176611   5.293   7.616   0.126
58238SOL    HW276612   5.296   7.560   0.266
58239SOL     OW76613   8.100   3.160   5.977
58239SOL    HW176614   8.092   3.190   6.067
58239SOL    HW276615   8.046   3.221   5.927
58240SOL     OW76616   2.447   8.104   0.768
58240SOL    HW176617   2.491   8.129   0.686
58240SOL    HW276618   2.428   8.010   0.757
58241SOL     OW76619   3.842   1.631  10.989
58241SOL    HW176620   3.848   1.664  10.899
58241SOL    HW276621   3.833   1.536  10.980
58242SOL     OW76622   5.202   9.102   4.324
58242SOL    HW176623   5.152   9.140   4.252
58242SOL    HW276624   5.202   9.008   4.307
58243SOL     OW76625  14.383  14.125   5.347
58243SOL    HW176626  14.426  14.101   5.264
58243SOL    HW276627  14.344  14.043   5.378
58244SOL     OW76628   9.199   1.725   3.958
58244SOL    HW176629   9.173   1.721   3.866
58244SOL    HW276630   9.222   1.817   3.972
58245SOL     OW76631   0.983   2.530   6.553
58245SOL    HW176632   1.061   2.501   6.506
58245SOL    HW276633   0.919   2.551   6.484
58246SOL     OW76634  11.951   3.965   6.794
58246SOL    HW176635  11.903   4.000   6.720
58246SOL    HW276636  12.021   3.913   6.755
58247SOL     OW76637  13.687   2.049  11.332
58247SOL    HW176638  13.674   1.960  11.365
58247SOL    HW276639  13.776   2.071  11.357
58248SOL     OW76640  12.771  10.175   0.930
58248SOL    HW176641  12.698  10.123   0.897
58248SOL    HW276642  12.731  10.256   0.960
58249SOL     OW76643   2.965  10.805   7.241
58249SOL    HW176644   2.928  10.728   7.284
58249SOL    HW276645   3.027  10.769   7.177
58250SOL     OW76646   0.748   7.601  13.978
58250SOL    HW176647   0.833   7.643  13.971
58250SOL    HW276648   0.695   7.642  13.910
58251SOL     OW76649   4.339   9.351   9.670
58251SOL    HW176650   4.278   9.411   9.713
58251SOL    HW276651   4.293   9.325   9.590
58252SOL     OW76652   7.072   7.929   4.199
58252SOL    HW176653   7.162   7.935   4.166
58252SOL    HW276654   7.081   7.932   4.294
58253SOL     OW76655   0.268  10.199   4.605
58253SOL    HW176656   0.258  10.128   4.541
58253SOL    HW276657   0.219  10.272   4.567
58254SOL     OW76658   1.492  12.577  10.403
58254SOL    HW176659   1.529  12.526  10.475
58254SOL    HW276660   1.448  12.513  10.348
58255SOL     OW76661   5.360  12.009  10.990
58255SOL    HW176662   5.430  12.069  10.964
58255SOL    HW276663   5.396  11.961  11.065
58256SOL     OW76664  12.928  11.638   6.757
58256SOL    HW176665  12.838  11.666   6.742
58256SOL    HW276666  12.929  11.546   6.731
58257SOL     OW76667   6.123  14.172   7.574
58257SOL    HW176668   6.173  14.249   7.601
58257SOL    HW276669   6.189  14.111   7.542
58258SOL     OW76670   4.416  11.483   7.515
58258SOL    HW176671   4.498  11.460   7.558
58258SOL    HW276672   4.351  11.423   7.552
58259SOL     OW76673   5.142   8.529   8.324
58259SOL    HW176674   5.083   8.600   8.299
58259SOL    HW276675   5.108   8.452   8.278
58260SOL     OW76676   8.720   4.599   3.983
58260SOL    HW176677   8.726   4.546   3.904
58260SOL    HW276678   8.781   4.672   3.969
58261SOL     OW76679  10.423   3.505  13.847
58261SOL    HW176680  10.481   3.508  13.924
58261SOL    HW276681  10.402   3.412  13.837
58262SOL     OW76682   9.319   6.583   0.824
58262SOL    HW176683   9.406   6.560   0.792
58262SOL    HW276684   9.293   6.508   0.879
58263SOL     OW76685  14.304  12.815   0.792
58263SOL    HW176686  14.287  12.908   0.781
58263SOL    HW276687  14.303  12.779   0.703
58264SOL     OW76688  10.259  11.197   7.813
58264SOL    HW176689  10.351  11.214   7.833
58264SOL    HW276690  10.211  11.247   7.878
58265SOL     OW76691   7.687  13.241   6.019
58265SOL    HW176692   7.755  13.308   6.018
58265SOL    HW276693   7.612  13.284   6.060
58266SOL     OW76694   2.348   0.477   3.581
58266SOL    HW176695   2.255   0.459   3.594
58266SOL    HW276696   2.363   0.461   3.488
58267SOL     OW76697   1.179   8.662  12.273
58267SOL    HW176698   1.094   8.628  12.302
58267SOL    HW276699   1.240   8.589  12.287
58268SOL     OW76700   6.783   9.084   3.530
58268SOL    HW176701   6.855   9.073   3.469
58268SOL    HW276702   6.786   9.177   3.554
58269SOL     OW76703  11.472  12.222   8.475
58269SOL    HW176704  11.553  12.171   8.476
58269SOL    HW276705  11.476  12.275   8.554
58270SOL     OW76706  11.691   4.086   2.605
58270SOL    HW176707  11.666   4.172   2.637
58270SOL    HW276708  11.613   4.054   2.560
58271SOL     OW76709   1.378  11.108   5.421
58271SOL    HW176710   1.456  11.131   5.371
58271SOL    HW276711   1.364  11.184   5.479
58272SOL     OW76712  14.322   3.091   6.810
58272SOL    HW176713  14.249   3.139   6.771
58272SOL    HW276714  14.304   3.000   6.789
58273SOL     OW76715   7.384  10.484   4.191
58273SOL    HW176716   7.295  10.471   4.157
58273SOL    HW276717   7.433  10.408   4.161
58274SOL     OW76718  13.443   7.870   0.603
58274SOL    HW176719  13.464   7.831   0.518
58274SOL    HW276720  13.347   7.864   0.609
58275SOL     OW76721   9.441  11.002   3.405
58275SOL    HW176722   9.374  10.970   3.344
58275SOL    HW276723   9.408  11.087   3.434
58276SOL     OW76724   9.003  10.662   8.849
58276SOL    HW176725   8.937  10.645   8.782
58276SOL    HW276726   9.052  10.580   8.855
58277SOL     OW76727   6.373   2.558   3.059
58277SOL    HW176728   6.357   2.524   3.147
58277SOL    HW276729   6.312   2.631   3.050
58278SOL     OW76730   5.010  12.116  14.808
58278SOL    HW176731   5.081  12.173  14.779
58278SOL    HW276732   5.017  12.039  14.752
58279SOL     OW76733   4.583  14.074   8.467
58279SOL    HW176734   4.560  13.981   8.465
58279SOL    HW276735   4.607  14.094   8.376
58280SOL     OW76736   8.873   3.772  13.918
58280SOL    HW176737   8.803   3.757  13.982
58280SOL    HW276738   8.945   3.808  13.969
58281SOL     OW76739   5.224   7.500   3.434
58281SOL    HW176740   5.207   7.495   3.340
58281SOL    HW276741   5.139   7.519   3.474
58282SOL     OW76742  14.784   9.778  13.343
58282SOL    HW176743  14.745   9.753  13.259
58282SOL    HW276744  14.777   9.699  13.396
58283SOL     OW76745   4.289  11.486   0.186
58283SOL    HW176746   4.314  11.445   0.269
58283SOL    HW276747   4.315  11.422   0.119
58284SOL     OW76748   8.191  11.581   4.488
58284SOL    HW176749   8.169  11.502   4.438
58284SOL    HW276750   8.255  11.552   4.552
58285SOL     OW76751   0.910  14.867   3.910
58285SOL    HW176752   0.871   0.010   3.823
58285SOL    HW276753   0.944  14.778   3.910
58286SOL     OW76754  13.119   6.995  11.084
58286SOL    HW176755  13.141   6.928  11.020
58286SOL    HW276756  13.034   6.968  11.120
58287SOL     OW76757  14.079   3.453  10.407
58287SOL    HW176758  14.001   3.493  10.447
58287SOL    HW276759  14.069   3.470  10.313
58288SOL     OW76760   2.986  12.667  10.414
58288SOL    HW176761   3.063  12.618  10.443
58288SOL    HW276762   2.912  12.619  10.451
58289SOL     OW76763   3.968   7.452   7.537
58289SOL    HW176764   3.922   7.456   7.453
58289SOL    HW276765   4.022   7.373   7.530
58290SOL     OW76766   0.568   5.098  14.424
58290SOL    HW176767   0.501   5.034  14.397
58290SOL    HW276768   0.621   5.112  14.346
58291SOL     OW76769   6.353   0.875  12.489
58291SOL    HW176770   6.407   0.887  12.567
58291SOL    HW276771   6.369   0.785  12.462
58292SOL     OW76772   9.357   1.515  10.263
58292SOL    HW176773   9.280   1.479  10.307
58292SOL    HW276774   9.323   1.589  10.213
58293SOL     OW76775   8.756   1.988   9.811
58293SOL    HW176776   8.732   1.928   9.741
58293SOL    HW276777   8.781   2.069   9.766
58294SOL     OW76778  13.128   4.701  12.142
58294SOL    HW176779  13.035   4.703  12.117
58294SOL    HW276780  13.156   4.793  12.137
58295SOL     OW76781   5.847   1.564  13.282
58295SOL    HW176782   5.916   1.500  13.265
58295SOL    HW276783   5.845   1.618  13.203
58296SOL     OW76784  13.817   3.632  12.996
58296SOL    HW176785  13.766   3.684  13.058
58296SOL    HW276786  13.752   3.582  12.947
58297SOL     OW76787   1.760   8.957  12.900
58297SOL    HW176788   1.782   8.987  12.988
58297SOL    HW276789   1.729   8.867  12.913
58298SOL     OW76790   4.283   3.828   9.443
58298SOL    HW176791   4.203   3.825   9.496
58298SOL    HW276792   4.306   3.736   9.429
58299SOL     OW76793   6.152   2.241   4.567
58299SOL    HW176794   6.166   2.279   4.653
58299SOL    HW276795   6.057   2.230   4.561
58300SOL     OW76796   1.837  10.273  13.694
58300SOL    HW176797   1.914  10.276  13.750
58300SOL    HW276798   1.775  10.333  13.736
58301SOL     OW76799  14.332  12.499   3.416
58301SOL    HW176800  14.369  12.413   3.397
58301SOL    HW276801  14.268  12.482   3.485
58302SOL     OW76802  13.507  10.342   8.034
58302SOL    HW176803  13.585  10.393   8.011
58302SOL    HW276804  13.535  10.251   8.025
58303SOL     OW76805  11.816  12.301   6.907
58303SOL    HW176806  11.865  12.218   6.912
58303SOL    HW276807  11.837  12.335   6.820
58304SOL     OW76808   5.268   5.201   7.576
58304SOL    HW176809   5.245   5.119   7.617
58304SOL    HW276810   5.198   5.261   7.600
58305SOL     OW76811   9.052   6.979  12.111
58305SOL    HW176812   9.076   6.894  12.149
58305SOL    HW276813   9.134   7.028  12.109
58306SOL     OW76814  13.679   5.587  14.035
58306SOL    HW176815  13.628   5.511  14.062
58306SOL    HW276816  13.628   5.626  13.964
58307SOL     OW76817   9.189  14.694  13.175
58307SOL    HW176818   9.104  14.694  13.219
58307SOL    HW276819   9.175  14.747  13.097
58308SOL     OW76820   6.614   9.933   4.479
58308SOL    HW176821   6.555  10.005   4.462
58308SOL    HW276822   6.634   9.939   4.573
58309SOL     OW76823  13.451   4.845   2.997
58309SOL    HW176824  13.491   4.771   2.951
58309SOL    HW276825  13.493   4.846   3.082
58310SOL     OW76826  13.182  12.119   7.946
58310SOL    HW176827  13.110  12.177   7.973
58310SOL    HW276828  13.204  12.148   7.857
58311SOL     OW76829   5.244  14.328   2.551
58311SOL    HW176830   5.304  14.397   2.521
58311SOL    HW276831   5.199  14.300   2.472
58312SOL     OW76832   2.805  12.756   6.111
58312SOL    HW176833   2.820  12.729   6.201
58312SOL    HW276834   2.890  12.746   6.068
58313SOL     OW76835   1.127   3.920   8.969
58313SOL    HW176836   1.164   3.856   9.030
58313SOL    HW276837   1.156   3.890   8.883
58314SOL     OW76838  12.063   4.134   6.006
58314SOL    HW176839  12.152   4.167   5.996
58314SOL    HW276840  12.013   4.175   5.935
58315SOL     OW76841   4.718   6.905   3.400
58315SOL    HW176842   4.770   6.969   3.448
58315SOL    HW276843   4.706   6.833   3.461
58316SOL     OW76844  10.262   9.192   3.825
58316SOL    HW176845  10.341   9.184   3.772
58316SOL    HW276846  10.215   9.265   3.785
58317SOL     OW76847   5.601  12.091  14.701
58317SOL    HW176848   5.512  12.116  14.727
58317SOL    HW276849   5.591  12.006  14.658
58318SOL     OW76850  13.382   2.638  13.756
58318SOL    HW176851  13.342   2.567  13.707
58318SOL    HW276852  13.447   2.596  13.811
58319SOL     OW76853   5.972   9.487   9.673
58319SOL    HW176854   5.914   9.413   9.656
58319SOL    HW276855   6.038   9.453   9.733
58320SOL     OW76856   4.458   1.116  12.679
58320SOL    HW176857   4.426   1.070  12.601
58320SOL    HW276858   4.395   1.095  12.747
58321SOL     OW76859   0.734   7.081  11.483
58321SOL    HW176860   0.659   7.064  11.427
58321SOL    HW276861   0.713   7.039  11.566
58322SOL     OW76862   6.166   0.937  13.144
58322SOL    HW176863   6.170   0.871  13.075
58322SOL    HW276864   6.211   1.013  13.107
58323SOL     OW76865   0.453  11.986   8.431
58323SOL    HW176866   0.534  11.936   8.443
58323SOL    HW276867   0.410  11.945   8.356
58324SOL     OW76868   9.256  14.058   9.648
58324SOL    HW176869   9.163  14.065   9.668
58324SOL    HW276870   9.273  14.130   9.588
58325SOL     OW76871  11.962  12.802   9.013
58325SOL    HW176872  12.045  12.832   8.975
58325SOL    HW276873  11.946  12.863   9.086
58326SOL     OW76874  13.026   7.718   6.005
58326SOL    HW176875  13.119   7.704   6.019
58326SOL    HW276876  12.987   7.631   6.006
58327SOL     OW76877   2.897   4.165  12.499
58327SOL    HW176878   2.877   4.107  12.572
58327SOL    HW276879   2.917   4.106  12.426
58328SOL     OW76880   2.388  14.142   3.067
58328SOL    HW176881   2.345  14.057   3.074
58328SOL    HW276882   2.481  14.123   3.076
58329SOL     OW76883   8.825  14.800   6.123
58329SOL    HW176884   8.843  14.809   6.216
58329SOL    HW276885   8.735  14.831   6.113
58330SOL     OW76886  13.048   5.084   8.908
58330SOL    HW176887  13.003   5.010   8.867
58330SOL    HW276888  13.140   5.074   8.882
58331SOL     OW76889  11.403   5.930   8.384
58331SOL    HW176890  11.322   5.917   8.335
58331SOL    HW276891  11.443   6.007   8.344
58332SOL     OW76892  10.784   9.909  13.848
58332SOL    HW176893  10.806   9.816  13.840
58332SOL    HW276894  10.823   9.935  13.931
58333SOL     OW76895   9.081   3.029   2.661
58333SOL    HW176896   9.108   3.121   2.656
58333SOL    HW276897   9.034   3.023   2.744
58334SOL     OW76898  12.024   9.276  13.214
58334SOL    HW176899  11.977   9.335  13.273
58334SOL    HW276900  12.082   9.334  13.165
58335SOL     OW76901   2.310   2.777   1.563
58335SOL    HW176902   2.330   2.866   1.536
58335SOL    HW276903   2.359   2.721   1.502
58336SOL     OW76904   9.905   3.406  12.643
58336SOL    HW176905   9.925   3.316  12.617
58336SOL    HW276906   9.965   3.423  12.716
58337SOL     OW76907  10.028  11.679   1.488
58337SOL    HW176908  10.119  11.684   1.458
58337SOL    HW276909   9.983  11.747   1.438
58338SOL     OW76910   8.445   9.239  11.912
58338SOL    HW176911   8.436   9.328  11.946
58338SOL    HW276912   8.421   9.183  11.985
58339SOL     OW76913   9.779   0.926   4.177
58339SOL    HW176914   9.810   0.855   4.120
58339SOL    HW276915   9.716   0.974   4.123
58340SOL     OW76916   6.850  14.724  12.375
58340SOL    HW176917   6.854  14.723  12.280
58340SOL    HW276918   6.896  14.645  12.402
58341SOL     OW76919  12.416   9.551   9.518
58341SOL    HW176920  12.451   9.532   9.605
58341SOL    HW276921  12.322   9.560   9.532
58342SOL     OW76922   9.556   8.127  11.511
58342SOL    HW176923   9.642   8.169  11.521
58342SOL    HW276924   9.576   8.034  11.497
58343SOL     OW76925  14.512  11.755  12.576
58343SOL    HW176926  14.599  11.722  12.554
58343SOL    HW276927  14.521  11.791  12.664
58344SOL     OW76928   4.009  10.114   2.030
58344SOL    HW176929   3.993  10.051   1.960
58344SOL    HW276930   4.003  10.199   1.987
58345SOL     OW76931   6.171   5.470   0.341
58345SOL    HW176932   6.078   5.465   0.363
58345SOL    HW276933   6.188   5.563   0.328
58346SOL     OW76934  12.135  13.067  12.998
58346SOL    HW176935  12.104  13.054  12.909
58346SOL    HW276936  12.056  13.089  13.048
58347SOL     OW76937   1.692   8.746  10.689
58347SOL    HW176938   1.696   8.841  10.702
58347SOL    HW276939   1.746   8.730  10.611
58348SOL     OW76940   2.788   4.702  10.298
58348SOL    HW176941   2.851   4.764  10.261
58348SOL    HW276942   2.806   4.620  10.251
58349SOL     OW76943  11.334   0.134   4.364
58349SOL    HW176944  11.374   0.053   4.396
58349SOL    HW276945  11.408   0.196   4.358
58350SOL     OW76946   6.037   2.338  14.168
58350SOL    HW176947   6.110   2.276  14.157
58350SOL    HW276948   6.079   2.418  14.200
58351SOL     OW76949   1.194  13.193   6.649
58351SOL    HW176950   1.272  13.167   6.697
58351SOL    HW276951   1.190  13.288   6.656
58352SOL     OW76952   5.587  10.239   9.300
58352SOL    HW176953   5.641  10.317   9.292
58352SOL    HW276954   5.649  10.166   9.293
58353SOL     OW76955   3.587   3.667  12.765
58353SOL    HW176956   3.579   3.748  12.815
58353SOL    HW276957   3.575   3.597  12.830
58354SOL     OW76958  11.385   3.016  14.669
58354SOL    HW176959  11.315   3.080  14.684
58354SOL    HW276960  11.410   3.029  14.578
58355SOL     OW76961   0.031  11.054  14.141
58355SOL    HW176962  14.853  10.986  14.190
58355SOL    HW276963  14.835  11.081  14.074
58356SOL     OW76964   2.660   1.568   6.438
58356SOL    HW176965   2.611   1.486   6.444
58356SOL    HW276966   2.677   1.591   6.529
58357SOL     OW76967  10.804   2.621   5.829
58357SOL    HW176968  10.734   2.557   5.819
58357SOL    HW276969  10.845   2.625   5.743
58358SOL     OW76970  12.950   7.162   7.212
58358SOL    HW176971  12.959   7.077   7.255
58358SOL    HW276972  12.929   7.141   7.122
58359SOL     OW76973   6.207   4.848   9.083
58359SOL    HW176974   6.164   4.866   9.167
58359SOL    HW276975   6.135   4.845   9.020
58360SOL     OW76976   3.240  12.279   2.396
58360SOL    HW176977   3.289  12.301   2.317
58360SOL    HW276978   3.306  12.273   2.465
58361SOL     OW76979   4.133   0.015   2.765
58361SOL    HW176980   4.117   0.009   2.670
58361SOL    HW276981   4.070  14.822   2.803
58362SOL     OW76982   0.494  13.594   5.856
58362SOL    HW176983   0.407  13.630   5.871
58362SOL    HW276984   0.553  13.668   5.866
58363SOL     OW76985  10.033   2.903   7.385
58363SOL    HW176986  10.088   2.852   7.445
58363SOL    HW276987  10.091   2.924   7.312
58364SOL     OW76988   5.760   4.516   8.770
58364SOL    HW176989   5.697   4.503   8.699
58364SOL    HW276990   5.748   4.607   8.797
58365SOL     OW76991   9.444  11.549   0.155
58365SOL    HW176992   9.471  11.489   0.086
58365SOL    HW276993   9.348  11.542   0.156
58366SOL     OW76994   4.461   3.527   3.910
58366SOL    HW176995   4.384   3.584   3.914
58366SOL    HW276996   4.498   3.530   3.998
58367SOL     OW76997   8.850  11.709   0.388
58367SOL    HW176998   8.809  11.758   0.459
58367SOL    HW276999   8.805  11.625   0.387
58368SOL     OW77000   3.121   5.900   1.325
58368SOL    HW177001   3.109   5.891   1.231
58368SOL    HW277002   3.192   5.964   1.334
58369SOL     OW77003  10.297  13.226   5.343
58369SOL    HW177004  10.354  13.195   5.273
58369SOL    HW277005  10.268  13.146   5.388
58370SOL     OW77006   2.779   7.038   1.426
58370SOL    HW177007   2.778   6.999   1.338
58370SOL    HW277008   2.741   6.970   1.482
58371SOL     OW77009  14.217   8.987   4.151
58371SOL    HW177010  14.206   8.924   4.079
58371SOL    HW277011  14.156   9.058   4.129
58372SOL     OW77012  10.353   7.536   5.442
58372SOL    HW177013  10.302   7.616   5.460
58372SOL    HW277014  10.442   7.567   5.426
58373SOL     OW77015  10.348   4.871  12.699
58373SOL    HW177016  10.304   4.818  12.633
58373SOL    HW277017  10.277   4.908  12.752
58374SOL     OW77018  13.461   7.874   8.129
58374SOL    HW177019  13.408   7.931   8.073
58374SOL    HW277020  13.529   7.840   8.071
58375SOL     OW77021   0.448   8.026  12.321
58375SOL    HW177022   0.416   7.989  12.239
58375SOL    HW277023   0.540   8.046  12.304
58376SOL     OW77024   8.641  13.708  14.491
58376SOL    HW177025   8.580  13.635  14.483
58376SOL    HW277026   8.633  13.755  14.408
58377SOL     OW77027   4.775  12.231  13.914
58377SOL    HW177028   4.865  12.217  13.944
58377SOL    HW277029   4.724  12.237  13.994
58378SOL     OW77030  10.340   9.904   1.391
58378SOL    HW177031  10.282   9.860   1.328
58378SOL    HW277032  10.425   9.864   1.378
58379SOL     OW77033   7.243   5.595  10.470
58379SOL    HW177034   7.194   5.672  10.440
58379SOL    HW277035   7.230   5.531  10.400
58380SOL     OW77036   8.049   5.062   8.474
58380SOL    HW177037   8.057   4.980   8.424
58380SOL    HW277038   8.127   5.112   8.450
58381SOL     OW77039   6.199  12.096   2.425
58381SOL    HW177040   6.171  12.149   2.500
58381SOL    HW277041   6.184  12.005   2.454
58382SOL     OW77042  11.220   7.146   0.218
58382SOL    HW177043  11.227   7.143   0.123
58382SOL    HW277044  11.310   7.155   0.249
58383SOL     OW77045   6.629   7.295   8.492
58383SOL    HW177046   6.534   7.295   8.487
58383SOL    HW277047   6.658   7.263   8.407
58384SOL     OW77048  11.222   2.858  14.306
58384SOL    HW177049  11.217   2.832  14.214
58384SOL    HW277050  11.315   2.866  14.324
58385SOL     OW77051   3.891   8.390   4.500
58385SOL    HW177052   3.901   8.420   4.410
58385SOL    HW277053   3.903   8.295   4.495
58386SOL     OW77054  11.875  11.301   3.807
58386SOL    HW177055  11.930  11.325   3.733
58386SOL    HW277056  11.835  11.218   3.782
58387SOL     OW77057   2.289   7.642  11.081
58387SOL    HW177058   2.380   7.660  11.059
58387SOL    HW277059   2.289   7.625  11.175
58388SOL     OW77060   1.847   1.985   2.409
58388SOL    HW177061   1.880   1.895   2.410
58388SOL    HW277062   1.767   1.982   2.461
58389SOL     OW77063   7.434   2.531  14.754
58389SOL    HW177064   7.511   2.530  14.698
58389SOL    HW277065   7.363   2.563  14.698
58390SOL     OW77066   1.010  12.335  13.782
58390SOL    HW177067   1.068  12.362  13.853
58390SOL    HW277068   0.922  12.344  13.819
58391SOL     OW77069   4.891  12.807   5.182
58391SOL    HW177070   4.813  12.863   5.182
58391SOL    HW277071   4.925  12.813   5.271
58392SOL     OW77072   3.923  13.217  14.850
58392SOL    HW177073   3.964  13.185  14.769
58392SOL    HW277074   3.970  13.173   0.052
58393SOL     OW77075  11.070  12.844  12.138
58393SOL    HW177076  11.025  12.782  12.081
58393SOL    HW277077  11.001  12.880  12.193
58394SOL     OW77078  10.053   0.939   0.625
58394SOL    HW177079  10.040   0.966   0.716
58394SOL    HW277080  10.091   0.851   0.631
58395SOL     OW77081   7.014   7.201   3.293
58395SOL    HW177082   6.935   7.227   3.341
58395SOL    HW277083   7.071   7.162   3.360
58396SOL     OW77084   7.674   2.574   0.986
58396SOL    HW177085   7.616   2.498   0.980
58396SOL    HW277086   7.654   2.626   0.909
58397SOL     OW77087  14.801  12.229  12.890
58397SOL    HW177088   0.025  12.202  12.890
58397SOL    HW277089  14.757  12.166  12.833
58398SOL     OW77090   7.576   3.453   1.273
58398SOL    HW177091   7.588   3.523   1.210
58398SOL    HW277092   7.657   3.403   1.269
58399SOL     OW77093   5.274   3.511   0.215
58399SOL    HW177094   5.247   3.594   0.255
58399SOL    HW277095   5.307   3.459   0.288
58400SOL     OW77096  13.910  10.738  11.344
58400SOL    HW177097  13.882  10.781  11.425
58400SOL    HW277098  13.863  10.783  11.275
58401SOL     OW77099  12.098   1.261   0.607
58401SOL    HW177100  12.085   1.171   0.579
58401SOL    HW277101  12.074   1.313   0.530
58402SOL     OW77102  12.697   0.079  12.242
58402SOL    HW177103  12.660   0.069  12.155
58402SOL    HW277104  12.659   0.008  12.293
58403SOL     OW77105  13.932   0.962  11.375
58403SOL    HW177106  14.001   0.903  11.345
58403SOL    HW277107  13.864   0.955  11.308
58404SOL     OW77108   7.599  14.033   5.054
58404SOL    HW177109   7.515  14.045   5.010
58404SOL    HW277110   7.641  14.119   5.049
58405SOL     OW77111   7.755  11.504   0.247
58405SOL    HW177112   7.783  11.567   0.313
58405SOL    HW277113   7.825  11.439   0.244
58406SOL     OW77114   3.681   9.847   6.862
58406SOL    HW177115   3.704   9.864   6.954
58406SOL    HW277116   3.757   9.801   6.826
58407SOL     OW77117   5.817  11.102   1.768
58407SOL    HW177118   5.890  11.097   1.829
58407SOL    HW277119   5.856  11.086   1.682
58408SOL     OW77120   9.391   2.564   0.811
58408SOL    HW177121   9.320   2.626   0.824
58408SOL    HW277122   9.370   2.490   0.868
58409SOL     OW77123  14.402   8.245  11.639
58409SOL    HW177124  14.377   8.164  11.595
58409SOL    HW277125  14.496   8.237  11.655
58410SOL     OW77126  10.639  11.849  11.249
58410SOL    HW177127  10.577  11.776  11.246
58410SOL    HW277128  10.723  11.810  11.223
58411SOL     OW77129   2.406  11.780  10.379
58411SOL    HW177130   2.471  11.715  10.352
58411SOL    HW277131   2.408  11.846  10.309
58412SOL     OW77132   8.792   4.256  14.172
58412SOL    HW177133   8.768   4.310  14.248
58412SOL    HW277134   8.878   4.221  14.194
58413SOL     OW77135   6.369   1.661   4.394
58413SOL    HW177136   6.361   1.730   4.460
58413SOL    HW277137   6.296   1.602   4.412
58414SOL     OW77138   1.152   4.391  13.207
58414SOL    HW177139   1.081   4.416  13.266
58414SOL    HW277140   1.126   4.427  13.122
58415SOL     OW77141   2.838  14.155   1.946
58415SOL    HW177142   2.826  14.232   1.891
58415SOL    HW277143   2.921  14.118   1.916
58416SOL     OW77144   3.150  11.917   1.959
58416SOL    HW177145   3.222  11.969   1.995
58416SOL    HW277146   3.153  11.934   1.865
58417SOL     OW77147   1.695   3.762   5.359
58417SOL    HW177148   1.646   3.844   5.352
58417SOL    HW277149   1.639   3.697   5.316
58418SOL     OW77150   2.004  10.369  12.209
58418SOL    HW177151   2.019  10.284  12.249
58418SOL    HW277152   2.009  10.352  12.115
58419SOL     OW77153   1.945   9.111   6.528
58419SOL    HW177154   1.864   9.068   6.557
58419SOL    HW277155   2.000   9.041   6.495
58420SOL     OW77156  12.345   4.775  13.120
58420SOL    HW177157  12.431   4.734  13.115
58420SOL    HW277158  12.349   4.831  13.198
58421SOL     OW77159   4.611   3.529  10.699
58421SOL    HW177160   4.682   3.488  10.649
58421SOL    HW277161   4.534   3.474  10.680
58422SOL     OW77162   3.855   8.722  14.621
58422SOL    HW177163   3.939   8.705  14.580
58422SOL    HW277164   3.875   8.780  14.695
58423SOL     OW77165   7.129  11.295  13.033
58423SOL    HW177166   7.142  11.214  12.984
58423SOL    HW277167   7.179  11.361  12.985
58424SOL     OW77168  13.839   6.024   7.305
58424SOL    HW177169  13.792   6.105   7.325
58424SOL    HW277170  13.891   6.045   7.227
58425SOL     OW77171   2.845   2.637   7.854
58425SOL    HW177172   2.790   2.569   7.815
58425SOL    HW277173   2.783   2.700   7.890
58426SOL     OW77174   3.314   1.912  12.986
58426SOL    HW177175   3.268   1.905  12.903
58426SOL    HW277176   3.393   1.961  12.965
58427SOL     OW77177   7.294   5.677   6.681
58427SOL    HW177178   7.236   5.744   6.646
58427SOL    HW277179   7.254   5.650   6.763
58428SOL     OW77180   7.409   5.996  13.730
58428SOL    HW177181   7.430   5.908  13.760
58428SOL    HW277182   7.390   5.986  13.637
58429SOL     OW77183   2.324   8.299   6.377
58429SOL    HW177184   2.234   8.300   6.409
58429SOL    HW277185   2.332   8.216   6.331
58430SOL     OW77186   4.638  13.429   3.845
58430SOL    HW177187   4.613  13.442   3.753
58430SOL    HW277188   4.718  13.479   3.855
58431SOL     OW77189   9.930   4.758   7.324
58431SOL    HW177190   9.970   4.813   7.256
58431SOL    HW277191   9.849   4.803   7.347
58432SOL     OW77192   6.085   5.997   5.945
58432SOL    HW177193   6.121   5.928   6.001
58432SOL    HW277194   6.087   6.076   5.999
58433SOL     OW77195   8.255  14.191   4.099
58433SOL    HW177196   8.317  14.137   4.049
58433SOL    HW277197   8.271  14.280   4.067
58434SOL     OW77198   1.450   5.711   5.695
58434SOL    HW177199   1.484   5.690   5.782
58434SOL    HW277200   1.510   5.778   5.661
58435SOL     OW77201  13.477  10.204   4.285
58435SOL    HW177202  13.463  10.299   4.289
58435SOL    HW277203  13.500  10.179   4.374
58436SOL     OW77204  12.500   8.639   2.305
58436SOL    HW177205  12.593   8.632   2.283
58436SOL    HW277206  12.457   8.661   2.222
58437SOL     OW77207  14.386  12.841   1.356
58437SOL    HW177208  14.400  12.878   1.269
58437SOL    HW277209  14.434  12.758   1.355
58438SOL     OW77210   6.614  14.735  11.306
58438SOL    HW177211   6.707  14.729  11.329
58438SOL    HW277212   6.613  14.739  11.211
58439SOL     OW77213   9.522   6.995   2.901
58439SOL    HW177214   9.614   7.012   2.921
58439SOL    HW277215   9.481   6.984   2.987
58440SOL     OW77216   4.938   3.785   1.816
58440SOL    HW177217   4.876   3.836   1.764
58440SOL    HW277218   5.011   3.845   1.833
58441SOL     OW77219   9.789   9.828  14.151
58441SOL    HW177220   9.697   9.828  14.125
58441SOL    HW277221   9.829   9.760  14.098
58442SOL     OW77222  11.887   5.390  12.500
58442SOL    HW177223  11.950   5.452  12.465
58442SOL    HW277224  11.907   5.383  12.593
58443SOL     OW77225  11.094  10.642   6.848
58443SOL    HW177226  11.162  10.637   6.914
58443SOL    HW277227  11.017  10.674   6.895
58444SOL     OW77228   1.011  12.812  12.949
58444SOL    HW177229   1.019  12.748  13.019
58444SOL    HW277230   0.963  12.886  12.988
58445SOL     OW77231   4.612   9.630  12.510
58445SOL    HW177232   4.613   9.676  12.594
58445SOL    HW277233   4.529   9.583  12.509
58446SOL     OW77234   5.343   9.124   4.959
58446SOL    HW177235   5.249   9.134   4.968
58446SOL    HW277236   5.368   9.068   5.033
58447SOL     OW77237  12.970   2.332   4.415
58447SOL    HW177238  13.037   2.278   4.456
58447SOL    HW277239  12.984   2.419   4.452
58448SOL     OW77240   5.617  13.922   5.523
58448SOL    HW177241   5.668  13.867   5.464
58448SOL    HW277242   5.564  13.977   5.466
58449SOL     OW77243   6.503   0.279   7.526
58449SOL    HW177244   6.592   0.244   7.516
58449SOL    HW277245   6.459   0.218   7.584
58450SOL     OW77246  11.269   9.141   2.387
58450SOL    HW177247  11.176   9.126   2.404
58450SOL    HW277248  11.313   9.062   2.420
58451SOL     OW77249   3.428   0.537   0.785
58451SOL    HW177250   3.413   0.551   0.879
58451SOL    HW277251   3.380   0.607   0.742
58452SOL     OW77252   4.315   9.096   6.242
58452SOL    HW177253   4.331   9.027   6.178
58452SOL    HW277254   4.402   9.117   6.277
58453SOL     OW77255   9.186   2.933  10.695
58453SOL    HW177256   9.247   2.915  10.623
58453SOL    HW277257   9.164   3.025  10.685
58454SOL     OW77258   4.813   4.344   1.747
58454SOL    HW177259   4.849   4.383   1.826
58454SOL    HW277260   4.834   4.406   1.677
58455SOL     OW77261  10.224   8.408   2.717
58455SOL    HW177262  10.318   8.423   2.705
58455SOL    HW277263  10.197   8.360   2.639
58456SOL     OW77264   3.700   7.637   3.177
58456SOL    HW177265   3.695   7.700   3.249
58456SOL    HW277266   3.723   7.690   3.100
58457SOL     OW77267  14.220   2.487  12.984
58457SOL    HW177268  14.141   2.462  13.032
58457SOL    HW277269  14.228   2.581  13.000
58458SOL     OW77270   2.368  11.577  11.793
58458SOL    HW177271   2.299  11.619  11.742
58458SOL    HW277272   2.442  11.639  11.790
58459SOL     OW77273  12.554   5.863   7.933
58459SOL    HW177274  12.624   5.926   7.914
58459SOL    HW277275  12.585   5.818   8.012
58460SOL     OW77276  10.922   5.884   7.853
58460SOL    HW177277  10.827   5.893   7.859
58460SOL    HW277278  10.956   5.964   7.892
58461SOL     OW77279  14.795   2.209   3.384
58461SOL    HW177280  14.755   2.131   3.422
58461SOL    HW277281   0.016   2.181   3.360
58462SOL     OW77282   0.077  10.753  13.351
58462SOL    HW177283   0.133  10.676  13.343
58462SOL    HW277284   0.039  10.745  13.439
58463SOL     OW77285  10.173   6.807   0.219
58463SOL    HW177286  10.227   6.874   0.178
58463SOL    HW277287  10.233   6.734   0.234
58464SOL     OW77288   7.098   4.136   1.668
58464SOL    HW177289   7.077   4.229   1.671
58464SOL    HW277290   7.086   4.112   1.576
58465SOL     OW77291   0.999   4.501   7.658
58465SOL    HW177292   1.009   4.446   7.735
58465SOL    HW277293   1.087   4.536   7.642
58466SOL     OW77294   4.584  12.406   3.985
58466SOL    HW177295   4.578  12.318   3.948
58466SOL    HW277296   4.658  12.447   3.939
58467SOL     OW77297  12.531   9.262  11.164
58467SOL    HW177298  12.552   9.215  11.244
58467SOL    HW277299  12.454   9.315  11.187
58468SOL     OW77300   3.669   3.971   0.668
58468SOL    HW177301   3.674   4.037   0.599
58468SOL    HW277302   3.708   3.893   0.629
58469SOL     OW77303  12.049   6.836   7.164
58469SOL    HW177304  12.102   6.915   7.173
58469SOL    HW277305  11.971   6.864   7.117
58470SOL     OW77306   2.021   9.686  11.916
58470SOL    HW177307   2.056   9.774  11.902
58470SOL    HW277308   1.986   9.688  12.005
58471SOL     OW77309   3.269  12.605   8.460
58471SOL    HW177310   3.301  12.567   8.378
58471SOL    HW277311   3.344  12.599   8.520
58472SOL     OW77312   7.630   5.051   3.946
58472SOL    HW177313   7.571   5.126   3.939
58472SOL    HW277314   7.703   5.072   3.888
58473SOL     OW77315  12.412   9.447  11.904
58473SOL    HW177316  12.398   9.515  11.970
58473SOL    HW277317  12.478   9.483  11.846
58474SOL     OW77318  13.198   2.476   2.957
58474SOL    HW177319  13.208   2.420   3.035
58474SOL    HW277320  13.169   2.560   2.991
58475SOL     OW77321   4.372   6.302   4.804
58475SOL    HW177322   4.409   6.244   4.870
58475SOL    HW277323   4.348   6.381   4.852
58476SOL     OW77324   1.421  14.158   2.957
58476SOL    HW177325   1.367  14.214   3.013
58476SOL    HW277326   1.450  14.216   2.887
58477SOL     OW77327   7.679  12.837   2.995
58477SOL    HW177328   7.718  12.904   2.938
58477SOL    HW277329   7.613  12.794   2.940
58478SOL     OW77330   3.263  11.138   5.356
58478SOL    HW177331   3.347  11.104   5.323
58478SOL    HW277332   3.197  11.087   5.309
58479SOL     OW77333  13.372   6.736   4.226
58479SOL    HW177334  13.346   6.828   4.226
58479SOL    HW277335  13.404   6.721   4.315
58480SOL     OW77336   7.293  10.866   4.522
58480SOL    HW177337   7.230  10.822   4.465
58480SOL    HW277338   7.242  10.930   4.570
58481SOL     OW77339   1.298  13.232  10.469
58481SOL    HW177340   1.358  13.294  10.428
58481SOL    HW277341   1.339  13.211  10.553
58482SOL     OW77342  14.343   0.230   6.658
58482SOL    HW177343  14.254   0.206   6.632
58482SOL    HW277344  14.383   0.266   6.578
58483SOL     OW77345   2.345   1.313   5.676
58483SOL    HW177346   2.345   1.301   5.581
58483SOL    HW277347   2.420   1.261   5.707
58484SOL     OW77348   7.598   4.905   8.664
58484SOL    HW177349   7.537   4.878   8.734
58484SOL    HW277350   7.567   4.991   8.637
58485SOL     OW77351   5.411  10.577  11.435
58485SOL    HW177352   5.356  10.543  11.364
58485SOL    HW277353   5.412  10.671  11.422
58486SOL     OW77354   6.734   9.079  11.789
58486SOL    HW177355   6.765   8.992  11.761
58486SOL    HW277356   6.794   9.140  11.748
58487SOL     OW77357   6.589  10.936  14.463
58487SOL    HW177358   6.519  10.964  14.403
58487SOL    HW277359   6.624  11.017  14.499
58488SOL     OW77360   9.632   4.010  14.385
58488SOL    HW177361   9.576   4.069  14.334
58488SOL    HW277362   9.583   3.994  14.466
58489SOL     OW77363   1.199   1.320  12.718
58489SOL    HW177364   1.195   1.381  12.792
58489SOL    HW277365   1.109   1.315  12.686
58490SOL     OW77366  10.171  12.794  11.835
58490SOL    HW177367  10.124  12.711  11.836
58490SOL    HW277368  10.176  12.818  11.742
58491SOL     OW77369  13.327   7.300  10.726
58491SOL    HW177370  13.406   7.245  10.733
58491SOL    HW277371  13.268   7.264  10.793
58492SOL     OW77372   8.548   9.552  11.972
58492SOL    HW177373   8.519   9.639  11.945
58492SOL    HW277374   8.468   9.505  11.992
58493SOL     OW77375   1.713   7.104   3.959
58493SOL    HW177376   1.700   7.128   3.867
58493SOL    HW277377   1.664   7.171   4.007
58494SOL     OW77378  12.011   4.131  10.581
58494SOL    HW177379  11.954   4.205  10.602
58494SOL    HW277380  11.951   4.063  10.550
58495SOL     OW77381   6.263   7.034   6.494
58495SOL    HW177382   6.352   7.023   6.527
58495SOL    HW277383   6.210   6.973   6.545
58496SOL     OW77384   0.729   1.155   6.652
58496SOL    HW177385   0.645   1.153   6.606
58496SOL    HW277386   0.756   1.247   6.649
58497SOL     OW77387   5.955  13.505   8.127
58497SOL    HW177388   5.995  13.541   8.048
58497SOL    HW277389   5.901  13.433   8.096
58498SOL     OW77390   9.906   0.536  14.716
58498SOL    HW177391   9.983   0.479  14.717
58498SOL    HW277392   9.937   0.616  14.673
58499SOL     OW77393   7.381  12.612   8.809
58499SOL    HW177394   7.473  12.597   8.786
58499SOL    HW277395   7.366  12.554   8.884
58500SOL     OW77396  10.564   9.936   8.156
58500SOL    HW177397  10.562   9.865   8.092
58500SOL    HW277398  10.472   9.957   8.170
58501SOL     OW77399  12.452   6.913   5.346
58501SOL    HW177400  12.431   6.970   5.272
58501SOL    HW277401  12.480   6.831   5.307
58502SOL     OW77402   9.786   4.302   4.676
58502SOL    HW177403   9.801   4.208   4.665
58502SOL    HW277404   9.859   4.343   4.631
58503SOL     OW77405   9.866  14.184  14.239
58503SOL    HW177406   9.863  14.103  14.290
58503SOL    HW277407   9.796  14.174  14.174
58504SOL     OW77408   8.512   1.176  11.831
58504SOL    HW177409   8.529   1.243  11.897
58504SOL    HW277410   8.417   1.165  11.831
58505SOL     OW77411   3.100   8.031   8.708
58505SOL    HW177412   3.034   7.962   8.710
58505SOL    HW277413   3.181   7.985   8.686
58506SOL     OW77414  10.031  10.282  10.693
58506SOL    HW177415  10.044  10.263  10.599
58506SOL    HW277416  10.103  10.341  10.715
58507SOL     OW77417   0.362   2.476  11.799
58507SOL    HW177418   0.334   2.393  11.761
58507SOL    HW277419   0.281   2.518  11.827
58508SOL     OW77420   8.673   5.378  12.283
58508SOL    HW177421   8.595   5.418  12.245
58508SOL    HW277422   8.724   5.348  12.208
58509SOL     OW77423   3.414   8.369   0.151
58509SOL    HW177424   3.334   8.421   0.139
58509SOL    HW277425   3.452   8.404   0.232
58510SOL     OW77426   4.975   6.609  11.182
58510SOL    HW177427   5.016   6.596  11.267
58510SOL    HW277428   4.953   6.521  11.152
58511SOL     OW77429   6.805   9.334   4.690
58511SOL    HW177430   6.891   9.302   4.718
58511SOL    HW277431   6.804   9.319   4.596
58512SOL     OW77432   0.351  10.981   0.957
58512SOL    HW177433   0.420  11.039   0.925
58512SOL    HW277434   0.397  10.917   1.011
58513SOL     OW77435  11.431   6.756   7.071
58513SOL    HW177436  11.522   6.729   7.080
58513SOL    HW277437  11.431   6.850   7.090
58514SOL     OW77438   4.935  14.090   5.577
58514SOL    HW177439   4.841  14.095   5.593
58514SOL    HW277440   4.964  14.012   5.624
58515SOL     OW77441   9.681  13.625   3.678
58515SOL    HW177442   9.626  13.637   3.601
58515SOL    HW277443   9.626  13.651   3.752
58516SOL     OW77444  13.231   5.568   1.609
58516SOL    HW177445  13.205   5.488   1.565
58516SOL    HW277446  13.323   5.581   1.584
58517SOL     OW77447   4.903  11.563   7.538
58517SOL    HW177448   4.997  11.581   7.541
58517SOL    HW277449   4.870  11.620   7.468
58518SOL     OW77450  10.651   1.467   1.268
58518SOL    HW177451  10.598   1.512   1.334
58518SOL    HW277452  10.595   1.464   1.191
58519SOL     OW77453   3.408   0.734  13.338
58519SOL    HW177454   3.451   0.665  13.389
58519SOL    HW277455   3.474   0.802  13.329
58520SOL     OW77456  13.471  12.379   3.695
58520SOL    HW177457  13.562  12.350   3.692
58520SOL    HW277458  13.475  12.467   3.733
58521SOL     OW77459   6.120   0.073  13.683
58521SOL    HW177460   6.055   0.083  13.752
58521SOL    HW277461   6.198   0.118  13.716
58522SOL     OW77462   3.720   4.418  14.761
58522SOL    HW177463   3.645   4.360  14.750
58522SOL    HW277464   3.700   4.494  14.706
58523SOL     OW77465   6.666   8.625   6.687
58523SOL    HW177466   6.574   8.613   6.662
58523SOL    HW277467   6.665   8.700   6.747
58524SOL     OW77468   0.466   4.026   6.919
58524SOL    HW177469   0.384   3.982   6.942
58524SOL    HW277470   0.534   3.968   6.953
58525SOL     OW77471   0.458   9.583   8.051
58525SOL    HW177472   0.485   9.673   8.035
58525SOL    HW277473   0.498   9.560   8.134
58526SOL     OW77474   5.325   5.925   2.951
58526SOL    HW177475   5.378   5.852   2.985
58526SOL    HW277476   5.236   5.904   2.979
58527SOL     OW77477   9.660   8.760   3.015
58527SOL    HW177478   9.716   8.833   3.041
58527SOL    HW277479   9.582   8.801   2.978
58528SOL     OW77480  11.952   7.253   8.006
58528SOL    HW177481  11.912   7.269   7.921
58528SOL    HW277482  11.966   7.159   8.010
58529SOL     OW77483   2.070  10.164   7.020
58529SOL    HW177484   1.989  10.161   6.970
58529SOL    HW277485   2.139  10.155   6.955
58530SOL     OW77486  14.578   4.440   5.238
58530SOL    HW177487  14.528   4.501   5.292
58530SOL    HW277488  14.512   4.399   5.182
58531SOL     OW77489  11.248   7.828   5.243
58531SOL    HW177490  11.185   7.836   5.171
58531SOL    HW277491  11.318   7.773   5.208
58532SOL     OW77492   8.132  12.710   3.286
58532SOL    HW177493   8.115  12.793   3.242
58532SOL    HW277494   8.059  12.699   3.347
58533SOL     OW77495   6.947   9.321   1.580
58533SOL    HW177496   6.950   9.249   1.517
58533SOL    HW277497   7.026   9.372   1.561
58534SOL     OW77498   6.043  12.792   1.273
58534SOL    HW177499   6.023  12.699   1.261
58534SOL    HW277500   6.112  12.792   1.339
58535SOL     OW77501  10.459   2.636   8.426
58535SOL    HW177502  10.510   2.580   8.485
58535SOL    HW277503  10.372   2.638   8.464
58536SOL     OW77504   9.215   0.096  14.726
58536SOL    HW177505   9.270   0.024  14.757
58536SOL    HW277506   9.277   0.159  14.689
58537SOL     OW77507  12.121   4.161   1.629
58537SOL    HW177508  12.080   4.178   1.545
58537SOL    HW277509  12.213   4.182   1.616
58538SOL     OW77510  13.629  10.686  11.491
58538SOL    HW177511  13.686  10.745  11.541
58538SOL    HW277512  13.672  10.678  11.406
58539SOL     OW77513   9.265   3.927  10.094
58539SOL    HW177514   9.357   3.949  10.108
58539SOL    HW277515   9.219   4.010  10.106
58540SOL     OW77516  14.033   4.401   2.604
58540SOL    HW177517  13.960   4.462   2.616
58540SOL    HW277518  13.993   4.314   2.613
58541SOL     OW77519  11.350   5.871   9.696
58541SOL    HW177520  11.368   5.964   9.699
58541SOL    HW277521  11.264   5.861   9.737
58542SOL     OW77522   5.774   7.904  12.000
58542SOL    HW177523   5.817   7.901  11.914
58542SOL    HW277524   5.782   7.814  12.033
58543SOL     OW77525   4.202   2.590  11.937
58543SOL    HW177526   4.125   2.646  11.934
58543SOL    HW277527   4.188   2.533  12.013
58544SOL     OW77528   3.779   3.712   0.056
58544SOL    HW177529   3.843   3.659   0.103
58544SOL    HW277530   3.726   3.649   0.007
58545SOL     OW77531  14.457   4.621  10.297
58545SOL    HW177532  14.481   4.710  10.270
58545SOL    HW277533  14.538   4.571  10.288
58546SOL     OW77534   7.107   1.619  13.982
58546SOL    HW177535   7.158   1.663  14.050
58546SOL    HW277536   7.072   1.541  14.026
58547SOL     OW77537  10.669   6.090  10.455
58547SOL    HW177538  10.734   6.062  10.520
58547SOL    HW277539  10.585   6.077  10.498
58548SOL     OW77540  13.294  10.152  11.482
58548SOL    HW177541  13.231  10.217  11.513
58548SOL    HW277542  13.340  10.123  11.560
58549SOL     OW77543   6.254   1.629   3.760
58549SOL    HW177544   6.256   1.635   3.665
58549SOL    HW277545   6.346   1.632   3.787
58550SOL     OW77546   1.564   5.457   2.502
58550SOL    HW177547   1.513   5.490   2.427
58550SOL    HW277548   1.625   5.528   2.522
58551SOL     OW77549  14.829   6.365  12.796
58551SOL    HW177550  14.843   6.396  12.707
58551SOL    HW277551  14.848   6.440  12.852
58552SOL     OW77552   6.725   6.892   0.616
58552SOL    HW177553   6.656   6.924   0.558
58552SOL    HW277554   6.710   6.797   0.620
58553SOL     OW77555  12.840   3.471   8.115
58553SOL    HW177556  12.746   3.462   8.130
58553SOL    HW277557  12.849   3.553   8.066
58554SOL     OW77558  10.035   2.632  12.210
58554SOL    HW177559  10.120   2.622  12.169
58554SOL    HW277560   9.973   2.597  12.146
58555SOL     OW77561  12.786   6.708   1.063
58555SOL    HW177562  12.861   6.703   1.123
58555SOL    HW277563  12.796   6.633   1.005
58556SOL     OW77564  13.593   5.380   6.480
58556SOL    HW177565  13.533   5.444   6.440
58556SOL    HW277566  13.609   5.316   6.411
58557SOL     OW77567  11.998   3.027   7.269
58557SOL    HW177568  11.965   3.115   7.249
58557SOL    HW277569  11.995   3.022   7.365
58558SOL     OW77570   1.492   3.889   1.027
58558SOL    HW177571   1.437   3.912   1.102
58558SOL    HW277572   1.489   3.967   0.971
58559SOL     OW77573   4.613   9.701   9.849
58559SOL    HW177574   4.678   9.686   9.918
58559SOL    HW277575   4.530   9.674   9.888
58560SOL     OW77576  11.527   3.254   6.516
58560SOL    HW177577  11.500   3.272   6.426
58560SOL    HW277578  11.489   3.169   6.536
58561SOL     OW77579   4.077  14.751  11.426
58561SOL    HW177580   4.136  14.801  11.482
58561SOL    HW277581   4.012  14.714  11.487
58562SOL     OW77582  10.875   2.613   5.539
58562SOL    HW177583  10.956   2.662   5.548
58562SOL    HW277584  10.822   2.665   5.478
58563SOL     OW77585   3.145   0.824  12.441
58563SOL    HW177586   3.213   0.761  12.464
58563SOL    HW277587   3.106   0.790  12.360
58564SOL     OW77588   5.301   6.908   5.215
58564SOL    HW177589   5.228   6.948   5.168
58564SOL    HW277590   5.366   6.977   5.222
58565SOL     OW77591   3.751  10.255  14.834
58565SOL    HW177592   3.807  10.270  14.758
58565SOL    HW277593   3.681  10.198  14.800
58566SOL     OW77594   8.805   9.036   7.686
58566SOL    HW177595   8.773   8.949   7.712
58566SOL    HW277596   8.888   9.046   7.733
58567SOL     OW77597  13.360  10.826   4.271
58567SOL    HW177598  13.280  10.782   4.239
58567SOL    HW277599  13.368  10.903   4.215
58568SOL     OW77600   9.612  13.444   4.082
58568SOL    HW177601   9.577  13.362   4.118
58568SOL    HW277602   9.706  13.427   4.072
58569SOL     OW77603   4.812   1.873   4.848
58569SOL    HW177604   4.838   1.876   4.756
58569SOL    HW277605   4.894   1.880   4.896
58570SOL     OW77606   6.831   7.864   2.483
58570SOL    HW177607   6.824   7.916   2.563
58570SOL    HW277608   6.846   7.774   2.514
58571SOL     OW77609   2.044   6.660   8.162
58571SOL    HW177610   2.078   6.748   8.145
58571SOL    HW277611   2.001   6.667   8.248
58572SOL     OW77612   7.610   0.878  11.294
58572SOL    HW177613   7.609   0.973  11.283
58572SOL    HW277614   7.640   0.865  11.384
58573SOL     OW77615   6.326  10.187   0.633
58573SOL    HW177616   6.404  10.135   0.619
58573SOL    HW277617   6.254  10.124   0.631
58574SOL     OW77618  11.280  11.277   2.414
58574SOL    HW177619  11.189  11.274   2.385
58574SOL    HW277620  11.275  11.264   2.509
58575SOL     OW77621   4.181   2.527  14.264
58575SOL    HW177622   4.266   2.550  14.303
58575SOL    HW277623   4.203   2.484  14.182
58576SOL     OW77624   6.233   4.288   8.104
58576SOL    HW177625   6.294   4.357   8.129
58576SOL    HW277626   6.258   4.213   8.158
58577SOL     OW77627   4.448   1.390   4.418
58577SOL    HW177628   4.534   1.429   4.435
58577SOL    HW277629   4.404   1.392   4.502
58578SOL     OW77630  10.107   8.953   1.601
58578SOL    HW177631  10.194   8.974   1.566
58578SOL    HW277632  10.119   8.957   1.696
58579SOL     OW77633   7.187   7.109   1.243
58579SOL    HW177634   7.105   7.146   1.274
58579SOL    HW277635   7.188   7.128   1.149
58580SOL     OW77636  14.557  12.773   9.318
58580SOL    HW177637  14.480  12.727   9.282
58580SOL    HW277638  14.573  12.844   9.256
58581SOL     OW77639   1.804  12.332   5.185
58581SOL    HW177640   1.822  12.239   5.199
58581SOL    HW277641   1.877  12.378   5.227
58582SOL     OW77642  14.728   3.065   4.683
58582SOL    HW177643  14.658   3.049   4.619
58582SOL    HW277644  14.706   3.008   4.757
58583SOL     OW77645  14.422  12.375   6.578
58583SOL    HW177646  14.346  12.399   6.526
58583SOL    HW277647  14.495  12.372   6.516
58584SOL     OW77648   2.465   9.063   6.810
58584SOL    HW177649   2.431   8.984   6.852
58584SOL    HW277650   2.397   9.129   6.823
58585SOL     OW77651   8.811  11.444   1.252
58585SOL    HW177652   8.718  11.440   1.275
58585SOL    HW277653   8.832  11.356   1.220
58586SOL     OW77654  13.639   0.449   4.253
58586SOL    HW177655  13.547   0.461   4.277
58586SOL    HW277656  13.644   0.477   4.162
58587SOL     OW77657   2.190  13.281   7.976
58587SOL    HW177658   2.240  13.302   8.055
58587SOL    HW277659   2.249  13.225   7.925
58588SOL     OW77660   5.683   9.851   4.432
58588SOL    HW177661   5.669   9.905   4.510
58588SOL    HW277662   5.657   9.907   4.359
58589SOL     OW77663   0.351  13.262  13.488
58589SOL    HW177664   0.258  13.262  13.466
58589SOL    HW277665   0.394  13.228  13.410
58590SOL     OW77666   6.373   7.791   1.118
58590SOL    HW177667   6.374   7.811   1.212
58590SOL    HW277668   6.281   7.790   1.094
58591SOL     OW77669   6.264  12.158   3.520
58591SOL    HW177670   6.243  12.072   3.555
58591SOL    HW277671   6.343  12.145   3.468
58592SOL     OW77672  13.495   7.732  14.371
58592SOL    HW177673  13.531   7.767  14.453
58592SOL    HW277674  13.487   7.809  14.314
58593SOL     OW77675   3.099   2.604   8.119
58593SOL    HW177676   3.005   2.616   8.132
58593SOL    HW277677   3.139   2.687   8.146
58594SOL     OW77678   8.176   1.239  12.245
58594SOL    HW177679   8.230   1.226  12.323
58594SOL    HW277680   8.202   1.168  12.185
58595SOL     OW77681   0.109   9.152   9.473
58595SOL    HW177682   0.045   9.223   9.481
58595SOL    HW277683   0.078   9.099   9.400
58596SOL     OW77684   6.769   5.822  12.731
58596SOL    HW177685   6.746   5.879  12.657
58596SOL    HW277686   6.789   5.883  12.802
58597SOL     OW77687   9.326   5.691  14.491
58597SOL    HW177688   9.397   5.647  14.444
58597SOL    HW277689   9.252   5.630  14.485
58598SOL     OW77690  14.756   7.976   2.109
58598SOL    HW177691  14.707   8.021   2.177
58598SOL    HW277692  14.740   8.027   2.030
58599SOL     OW77693   5.165  12.718  12.694
58599SOL    HW177694   5.200  12.648  12.639
58599SOL    HW277695   5.123  12.673  12.767
58600SOL     OW77696  13.001  11.346   7.839
58600SOL    HW177697  13.014  11.440   7.852
58600SOL    HW277698  13.015  11.307   7.925
58601SOL     OW77699   1.928   2.569   0.379
58601SOL    HW177700   2.013   2.535   0.349
58601SOL    HW277701   1.950   2.650   0.425
58602SOL     OW77702   8.593   2.515   2.387
58602SOL    HW177703   8.513   2.566   2.372
58602SOL    HW277704   8.648   2.537   2.312
58603SOL     OW77705   3.842   8.932  14.143
58603SOL    HW177706   3.881   8.943  14.229
58603SOL    HW277707   3.878   8.850  14.110
58604SOL     OW77708   3.331   6.295   1.693
58604SOL    HW177709   3.425   6.303   1.684
58604SOL    HW277710   3.295   6.333   1.613
58605SOL     OW77711   9.457  14.279   7.337
58605SOL    HW177712   9.444  14.283   7.431
58605SOL    HW277713   9.499  14.194   7.322
58606SOL     OW77714   1.113   0.720   8.040
58606SOL    HW177715   1.076   0.748   8.124
58606SOL    HW277716   1.207   0.717   8.055
58607SOL     OW77717   6.890   8.965  13.195
58607SOL    HW177718   6.867   8.879  13.232
58607SOL    HW277719   6.815   9.020  13.216
58608SOL     OW77720  11.018   4.657  10.512
58608SOL    HW177721  11.061   4.714  10.447
58608SOL    HW277722  11.085   4.644  10.579
58609SOL     OW77723   7.857   4.964  11.548
58609SOL    HW177724   7.910   4.899  11.595
58609SOL    HW277725   7.794   4.913  11.498
58610SOL     OW77726  13.114  12.070   2.359
58610SOL    HW177727  13.070  11.995   2.319
58610SOL    HW277728  13.181  12.031   2.415
58611SOL     OW77729   9.281  11.318   7.312
58611SOL    HW177730   9.328  11.352   7.236
58611SOL    HW277731   9.194  11.296   7.278
58612SOL     OW77732   6.342   3.591   6.054
58612SOL    HW177733   6.249   3.571   6.065
58612SOL    HW277734   6.381   3.509   6.023
58613SOL     OW77735   0.832   3.806   3.887
58613SOL    HW177736   0.837   3.898   3.913
58613SOL    HW277737   0.741   3.794   3.860
58614SOL     OW77738  13.039   5.168  14.183
58614SOL    HW177739  13.063   5.203  14.097
58614SOL    HW277740  13.107   5.105  14.203
58615SOL     OW77741  10.079   5.804   1.254
58615SOL    HW177742  10.074   5.716   1.216
58615SOL    HW277743  10.103   5.860   1.180
58616SOL     OW77744  11.956   8.994  13.339
58616SOL    HW177745  11.939   9.016  13.248
58616SOL    HW277746  11.899   9.053  13.389
58617SOL     OW77747  12.401   1.503  11.979
58617SOL    HW177748  12.366   1.570  12.038
58617SOL    HW277749  12.333   1.493  11.911
58618SOL     OW77750   1.432   8.253   8.689
58618SOL    HW177751   1.453   8.170   8.732
58618SOL    HW277752   1.515   8.301   8.686
58619SOL     OW77753   0.293   3.484  11.408
58619SOL    HW177754   0.251   3.441  11.333
58619SOL    HW277755   0.365   3.426  11.432
58620SOL     OW77756   4.656  12.811   9.063
58620SOL    HW177757   4.702  12.834   8.983
58620SOL    HW277758   4.577  12.766   9.034
58621SOL     OW77759  11.141   1.328   7.170
58621SOL    HW177760  11.202   1.401   7.179
58621SOL    HW277761  11.058   1.361   7.203
58622SOL     OW77762   7.609  10.253  11.661
58622SOL    HW177763   7.564  10.234  11.744
58622SOL    HW277764   7.578  10.185  11.602
58623SOL     OW77765   0.297  14.272   9.837
58623SOL    HW177766   0.215  14.276   9.887
58623SOL    HW277767   0.289  14.192   9.786
58624SOL     OW77768   5.590  13.560   9.674
58624SOL    HW177769   5.677  13.522   9.667
58624SOL    HW277770   5.565  13.546   9.765
58625SOL     OW77771  13.161   1.818   5.478
58625SOL    HW177772  13.159   1.865   5.395
58625SOL    HW277773  13.081   1.844   5.523
58626SOL     OW77774   6.014  14.554   2.297
58626SOL    HW177775   6.042  14.470   2.261
58626SOL    HW277776   6.018  14.542   2.392
58627SOL     OW77777   5.032  13.857  14.121
58627SOL    HW177778   4.995  13.910  14.191
58627SOL    HW277779   5.092  13.917  14.075
58628SOL     OW77780   3.057   8.648   6.823
58628SOL    HW177781   3.041   8.733   6.782
58628SOL    HW277782   2.970   8.609   6.833
58629SOL     OW77783   5.415   7.956   2.986
58629SOL    HW177784   5.451   7.879   3.029
58629SOL    HW277785   5.339   7.980   3.039
58630SOL     OW77786   6.969  11.949  12.684
58630SOL    HW177787   6.879  11.978  12.675
58630SOL    HW277788   7.017  11.995  12.616
58631SOL     OW77789   5.185   5.003   2.129
58631SOL    HW177790   5.121   5.023   2.060
58631SOL    HW277791   5.174   5.074   2.192
58632SOL     OW77792   6.360   7.248   8.385
58632SOL    HW177793   6.351   7.156   8.411
58632SOL    HW277794   6.351   7.247   8.290
58633SOL     OW77795   1.532  10.037  13.840
58633SOL    HW177796   1.625  10.035  13.816
58633SOL    HW277797   1.512  10.129  13.850
58634SOL     OW77798  12.660   7.038   7.821
58634SOL    HW177799  12.644   7.132   7.809
58634SOL    HW277800  12.755   7.030   7.811
58635SOL     OW77801   3.652   0.457   1.195
58635SOL    HW177802   3.676   0.380   1.247
58635SOL    HW277803   3.619   0.520   1.259
58636SOL     OW77804  10.347   6.017   0.386
58636SOL    HW177805  10.440   6.000   0.401
58636SOL    HW277806  10.329   5.979   0.300
58637SOL     OW77807   3.988  11.761   6.893
58637SOL    HW177808   3.975  11.760   6.988
58637SOL    HW277809   3.928  11.694   6.861
58638SOL     OW77810   4.569   4.052  14.352
58638SOL    HW177811   4.626   4.044  14.428
58638SOL    HW277812   4.513   3.975  14.355
58639SOL     OW77813  14.100  12.728  11.363
58639SOL    HW177814  14.161  12.802  11.363
58639SOL    HW277815  14.031  12.754  11.302
58640SOL     OW77816  10.685   5.385   0.714
58640SOL    HW177817  10.767   5.428   0.688
58640SOL    HW277818  10.675   5.405   0.807
58641SOL     OW77819   7.663  10.975   8.629
58641SOL    HW177820   7.709  10.907   8.678
58641SOL    HW277821   7.672  10.949   8.537
58642SOL     OW77822   2.139   6.374   7.241
58642SOL    HW177823   2.088   6.295   7.220
58642SOL    HW277824   2.137   6.425   7.160
58643SOL     OW77825   1.273  10.837   1.813
58643SOL    HW177826   1.278  10.761   1.871
58643SOL    HW277827   1.318  10.810   1.733
58644SOL     OW77828   6.142   2.615   0.757
58644SOL    HW177829   6.080   2.682   0.728
58644SOL    HW277830   6.178   2.580   0.675
58645SOL     OW77831  11.202   7.030   5.600
58645SOL    HW177832  11.154   7.021   5.517
58645SOL    HW277833  11.179   6.951   5.649
58646SOL     OW77834   2.467   1.257   4.431
58646SOL    HW177835   2.462   1.162   4.436
58646SOL    HW277836   2.426   1.287   4.512
58647SOL     OW77837   2.733   9.253   3.037
58647SOL    HW177838   2.813   9.303   3.047
58647SOL    HW277839   2.750   9.170   3.082
58648SOL     OW77840  14.690   6.623   9.810
58648SOL    HW177841  14.673   6.695   9.871
58648SOL    HW277842  14.785   6.610   9.814
58649SOL     OW77843   5.162  12.936   9.869
58649SOL    HW177844   5.119  12.986   9.938
58649SOL    HW277845   5.123  12.849   9.875
58650SOL     OW77846  14.625  10.771   8.171
58650SOL    HW177847  14.698  10.764   8.231
58650SOL    HW277848  14.567  10.698   8.194
58651SOL     OW77849   3.963  14.065   6.346
58651SOL    HW177850   3.869  14.068   6.361
58651SOL    HW277851   4.000  14.039   6.430
58652SOL     OW77852   3.575   3.762  12.045
58652SOL    HW177853   3.552   3.689  12.103
58652SOL    HW277854   3.636   3.815  12.097
58653SOL     OW77855  12.354   3.797   5.138
58653SOL    HW177856  12.376   3.828   5.226
58653SOL    HW277857  12.432   3.817   5.086
58654SOL     OW77858   8.771   2.264  10.174
58654SOL    HW177859   8.727   2.326  10.232
58654SOL    HW277860   8.701   2.205  10.144
58655SOL     OW77861  10.127   4.976   5.056
58655SOL    HW177862  10.129   4.892   5.102
58655SOL    HW277863  10.189   4.965   4.984
58656SOL     OW77864  13.326   3.520   7.487
58656SOL    HW177865  13.299   3.498   7.398
58656SOL    HW277866  13.244   3.539   7.532
58657SOL     OW77867   9.366   0.826  13.994
58657SOL    HW177868   9.432   0.759  14.014
58657SOL    HW277869   9.367   0.884  14.070
58658SOL     OW77870  12.203   5.076   7.244
58658SOL    HW177871  12.191   4.981   7.255
58658SOL    HW277872  12.169   5.113   7.326
58659SOL     OW77873   2.952  13.217   5.384
58659SOL    HW177874   2.933  13.296   5.334
58659SOL    HW277875   2.867  13.189   5.417
58660SOL     OW77876   2.832   0.120   3.313
58660SOL    HW177877   2.854   0.095   3.403
58660SOL    HW277878   2.917   0.136   3.272
58661SOL     OW77879   9.448   9.976   9.473
58661SOL    HW177880   9.409  10.057   9.441
58661SOL    HW277881   9.468   9.926   9.393
58662SOL     OW77882   6.559   2.155  13.690
58662SOL    HW177883   6.468   2.153  13.719
58662SOL    HW277884   6.602   2.218  13.748
58663SOL     OW77885  14.388   4.599   1.107
58663SOL    HW177886  14.421   4.689   1.107
58663SOL    HW277887  14.467   4.546   1.114
58664SOL     OW77888   7.526   5.762   0.349
58664SOL    HW177889   7.548   5.739   0.259
58664SOL    HW277890   7.548   5.854   0.356
58665SOL     OW77891   2.098  10.136  11.743
58665SOL    HW177892   2.087  10.044  11.719
58665SOL    HW277893   2.083  10.184  11.661
58666SOL     OW77894  13.059   9.610   4.053
58666SOL    HW177895  13.087   9.526   4.089
58666SOL    HW277896  12.983   9.590   3.999
58667SOL     OW77897   8.911  13.216   2.692
58667SOL    HW177898   8.965  13.162   2.748
58667SOL    HW277899   8.832  13.164   2.677
58668SOL     OW77900   0.980   6.391  14.210
58668SOL    HW177901   1.054   6.433  14.254
58668SOL    HW277902   0.925   6.463  14.179
58669SOL     OW77903   3.430  13.433   1.212
58669SOL    HW177904   3.499  13.493   1.239
58669SOL    HW277905   3.475  13.367   1.159
58670SOL     OW77906  13.900   3.349   4.993
58670SOL    HW177907  13.919   3.337   4.900
58670SOL    HW277908  13.974   3.400   5.027
58671SOL     OW77909  13.651   6.000   6.678
58671SOL    HW177910  13.565   6.021   6.642
58671SOL    HW277911  13.671   6.072   6.737
58672SOL     OW77912   8.099   1.909   0.425
58672SOL    HW177913   8.098   1.823   0.383
58672SOL    HW277914   8.173   1.905   0.486
58673SOL     OW77915  12.576  10.301   0.005
58673SOL    HW177916  12.573  10.214   0.044
58673SOL    HW277917  12.594  10.286  14.781
58674SOL     OW77918  12.864   5.777   5.988
58674SOL    HW177919  12.917   5.848   6.024
58674SOL    HW277920  12.819   5.816   5.913
58675SOL     OW77921  13.069   0.879   9.497
58675SOL    HW177922  13.133   0.810   9.479
58675SOL    HW277923  13.056   0.876   9.591
58676SOL     OW77924   8.092   7.826   3.598
58676SOL    HW177925   8.024   7.869   3.546
58676SOL    HW277926   8.056   7.740   3.619
58677SOL     OW77927   1.846   9.103   6.866
58677SOL    HW177928   1.831   9.185   6.819
58677SOL    HW277929   1.863   9.129   6.956
58678SOL     OW77930  11.653   4.910   2.141
58678SOL    HW177931  11.692   4.835   2.185
58678SOL    HW277932  11.722   4.940   2.080
58679SOL     OW77933   2.709   8.488  10.948
58679SOL    HW177934   2.765   8.543  11.003
58679SOL    HW277935   2.673   8.547  10.883
58680SOL     OW77936   7.932   0.615   8.032
58680SOL    HW177937   7.862   0.664   8.077
58680SOL    HW277938   8.009   0.629   8.087
58681SOL     OW77939  10.732   8.810  11.610
58681SOL    HW177940  10.657   8.796  11.667
58681SOL    HW277941  10.694   8.841  11.528
58682SOL     OW77942   4.275   7.257   0.036
58682SOL    HW177943   4.199   7.201   0.021
58682SOL    HW277944   4.335   7.203   0.088
58683SOL     OW77945   0.531  14.663   8.396
58683SOL    HW177946   0.598  14.628   8.455
58683SOL    HW277947   0.449  14.630   8.432
58684SOL     OW77948  14.216  12.657   5.497
58684SOL    HW177949  14.159  12.594   5.540
58684SOL    HW277950  14.303  12.619   5.502
58685SOL     OW77951   2.507  14.122  12.516
58685SOL    HW177952   2.599  14.146  12.502
58685SOL    HW277953   2.486  14.160  12.601
58686SOL     OW77954   8.947   4.827   7.329
58686SOL    HW177955   8.854   4.850   7.325
58686SOL    HW277956   8.953   4.762   7.399
58687SOL     OW77957   0.051  11.599   9.155
58687SOL    HW177958  14.859  11.668   9.183
58687SOL    HW277959   0.049  11.603   9.059
58688SOL     OW77960   4.141   0.439  13.624
58688SOL    HW177961   4.188   0.357  13.609
58688SOL    HW277962   4.127   0.443  13.718
58689SOL     OW77963   5.393   9.237   2.136
58689SOL    HW177964   5.390   9.325   2.098
58689SOL    HW277965   5.328   9.239   2.206
58690SOL     OW77966   2.501   2.409   8.806
58690SOL    HW177967   2.432   2.351   8.774
58690SOL    HW277968   2.532   2.367   8.887
58691SOL     OW77969  10.236   5.173  14.180
58691SOL    HW177970  10.193   5.098  14.139
58691SOL    HW277971  10.280   5.218  14.108
58692SOL     OW77972   7.051  12.628   6.981
58692SOL    HW177973   7.021  12.704   7.030
58692SOL    HW277974   6.993  12.557   7.008
58693SOL     OW77975  12.398  10.425   4.280
58693SOL    HW177976  12.334  10.356   4.265
58693SOL    HW277977  12.384  10.451   4.371
58694SOL     OW77978   4.172   4.054   4.195
58694SOL    HW177979   4.266   4.036   4.184
58694SOL    HW277980   4.150   4.016   4.280
58695SOL     OW77981   8.947   9.857   5.303
58695SOL    HW177982   8.958   9.952   5.312
58695SOL    HW277983   8.935   9.825   5.392
58696SOL     OW77984  11.302   7.156  14.811
58696SOL    HW177985  11.394   7.129  14.819
58696SOL    HW277986  11.306   7.251  14.802
58697SOL     OW77987   8.878   2.726   3.433
58697SOL    HW177988   8.932   2.793   3.474
58697SOL    HW277989   8.895   2.647   3.484
58698SOL     OW77990  12.374   3.873   4.563
58698SOL    HW177991  12.423   3.800   4.601
58698SOL    HW277992  12.389   3.865   4.469
58699SOL     OW77993   0.152  14.840  12.291
58699SOL    HW177994   0.179   0.048  12.343
58699SOL    HW277995   0.202  14.847  12.210
58700SOL     OW77996  14.651   3.216  11.956
58700SOL    HW177997  14.633   3.127  11.925
58700SOL    HW277998  14.740   3.234  11.924
58701SOL     OW77999   4.338  14.671   0.321
58701SOL    HW178000   4.257  14.620   0.330
58701SOL    HW278001   4.328  14.742   0.384
58702SOL     OW78002   5.684   6.158   6.629
58702SOL    HW178003   5.726   6.186   6.548
58702SOL    HW278004   5.591   6.154   6.608
58703SOL     OW78005  10.842  14.681   2.095
58703SOL    HW178006  10.879  14.757   2.139
58703SOL    HW278007  10.778  14.646   2.157
58704SOL     OW78008   3.692  13.173  12.876
58704SOL    HW178009   3.722  13.096  12.925
58704SOL    HW278010   3.624  13.211  12.931
58705SOL     OW78011   5.550  12.491   3.229
58705SOL    HW178012   5.577  12.562   3.171
58705SOL    HW278013   5.554  12.412   3.174
58706SOL     OW78014   1.378   1.812  13.379
58706SOL    HW178015   1.290   1.797  13.413
58706SOL    HW278016   1.429   1.737  13.408
58707SOL     OW78017   5.617   9.844   9.183
58707SOL    HW178018   5.672   9.817   9.256
58707SOL    HW278019   5.548   9.778   9.178
58708SOL     OW78020  13.346  13.201   0.194
58708SOL    HW178021  13.364  13.267   0.127
58708SOL    HW278022  13.263  13.227   0.233
58709SOL     OW78023  13.516  13.884  12.349
58709SOL    HW178024  13.596  13.835  12.328
58709SOL    HW278025  13.543  13.975  12.351
58710SOL     OW78026   4.477   7.171   9.102
58710SOL    HW178027   4.480   7.096   9.043
58710SOL    HW278028   4.399   7.157   9.156
58711SOL     OW78029   4.330  12.630   4.326
58711SOL    HW178030   4.267  12.585   4.383
58711SOL    HW278031   4.363  12.562   4.268
58712SOL     OW78032   3.463  10.574   2.228
58712SOL    HW178033   3.410  10.573   2.307
58712SOL    HW278034   3.537  10.632   2.249
58713SOL     OW78035  13.551  13.754   3.827
58713SOL    HW178036  13.611  13.681   3.813
58713SOL    HW278037  13.464  13.718   3.806
58714SOL     OW78038   4.465  11.351  11.570
58714SOL    HW178039   4.476  11.444  11.589
58714SOL    HW278040   4.553  11.314  11.577
58715SOL     OW78041   3.387  10.911   1.078
58715SOL    HW178042   3.360  10.853   1.007
58715SOL    HW278043   3.371  10.860   1.158
58716SOL     OW78044   1.743  11.315  11.474
58716SOL    HW178045   1.717  11.389  11.420
58716SOL    HW278046   1.817  11.347  11.526
58717SOL     OW78047   0.264   9.976   3.198
58717SOL    HW178048   0.185   9.962   3.251
58717SOL    HW278049   0.290  10.066   3.216
58718SOL     OW78050  14.721  10.683   2.588
58718SOL    HW178051  14.690  10.595   2.568
58718SOL    HW278052  14.701  10.734   2.509
58719SOL     OW78053   8.092   6.323   2.779
58719SOL    HW178054   8.179   6.355   2.755
58719SOL    HW278055   8.079   6.245   2.726
58720SOL     OW78056   9.472   2.866   6.076
58720SOL    HW178057   9.390   2.861   6.027
58720SOL    HW278058   9.445   2.867   6.168
58721SOL     OW78059  10.117   6.862   2.820
58721SOL    HW178060  10.178   6.857   2.894
58721SOL    HW278061  10.172   6.879   2.744
58722SOL     OW78062   5.885   2.296   6.188
58722SOL    HW178063   5.790   2.286   6.188
58722SOL    HW278064   5.919   2.210   6.164
58723SOL     OW78065  11.096   6.596   7.427
58723SOL    HW178066  11.171   6.547   7.394
58723SOL    HW278067  11.036   6.601   7.353
58724SOL     OW78068  11.185  13.716   5.173
58724SOL    HW178069  11.147  13.650   5.114
58724SOL    HW278070  11.116  13.731   5.239
58725SOL     OW78071   0.323   4.338   2.724
58725SOL    HW178072   0.325   4.347   2.819
58725SOL    HW278073   0.340   4.426   2.691
58726SOL     OW78074   2.657   8.420  11.242
58726SOL    HW178075   2.692   8.400  11.156
58726SOL    HW278076   2.697   8.355  11.300
58727SOL     OW78077   3.507   7.455   6.740
58727SOL    HW178078   3.586   7.404   6.720
58727SOL    HW278079   3.538   7.544   6.751
58728SOL     OW78080  11.304   2.452   4.903
58728SOL    HW178081  11.367   2.498   4.959
58728SOL    HW278082  11.322   2.360   4.918
58729SOL     OW78083   2.882  11.129   8.644
58729SOL    HW178084   2.858  11.222   8.648
58729SOL    HW278085   2.805  11.086   8.607
58730SOL     OW78086   1.501   5.660  14.483
58730SOL    HW178087   1.570   5.599  14.459
58730SOL    HW278088   1.486   5.712  14.403
58731SOL     OW78089   0.457   4.626   3.816
58731SOL    HW178090   0.404   4.671   3.750
58731SOL    HW278091   0.535   4.680   3.825
58732SOL     OW78092   6.943  14.346   9.537
58732SOL    HW178093   6.964  14.300   9.618
58732SOL    HW278094   7.026  14.353   9.490
58733SOL     OW78095   4.608   2.279   8.690
58733SOL    HW178096   4.532   2.260   8.745
58733SOL    HW278097   4.679   2.297   8.752
58734SOL     OW78098   2.142   9.725  13.077
58734SOL    HW178099   2.216   9.769  13.119
58734SOL    HW278100   2.139   9.638  13.116
58735SOL     OW78101   9.642   3.571   8.203
58735SOL    HW178102   9.621   3.588   8.111
58735SOL    HW278103   9.699   3.494   8.201
58736SOL     OW78104   1.709   7.745  10.472
58736SOL    HW178105   1.715   7.778  10.561
58736SOL    HW278106   1.669   7.817  10.422
58737SOL     OW78107   6.395   2.289   8.374
58737SOL    HW178108   6.477   2.264   8.331
58737SOL    HW278109   6.333   2.301   8.301
58738SOL     OW78110   2.978   7.197   7.834
58738SOL    HW178111   3.001   7.126   7.775
58738SOL    HW278112   2.928   7.259   7.779
58739SOL     OW78113   2.616   1.124  14.177
58739SOL    HW178114   2.553   1.182  14.135
58739SOL    HW278115   2.578   1.107  14.263
58740SOL     OW78116  12.738  12.031  13.236
58740SOL    HW178117  12.812  12.029  13.297
58740SOL    HW278118  12.710  12.123  13.235
58741SOL     OW78119   6.687  10.739  14.593
58741SOL    HW178120   6.783  10.740  14.594
58741SOL    HW278121   6.663  10.813  14.537
58742SOL     OW78122   9.731  13.010   0.603
58742SOL    HW178123   9.811  12.963   0.628
58742SOL    HW278124   9.666  12.985   0.669
58743SOL     OW78125   7.079   0.407  10.535
58743SOL    HW178126   7.123   0.353  10.469
58743SOL    HW278127   7.127   0.391  10.616
58744SOL     OW78128  14.351  11.502   7.902
58744SOL    HW178129  14.394  11.583   7.926
58744SOL    HW278130  14.290  11.484   7.974
58745SOL     OW78131  14.609  12.476   2.556
58745SOL    HW178132  14.642  12.419   2.625
58745SOL    HW278133  14.678  12.542   2.546
58746SOL     OW78134   1.764   3.906   0.287
58746SOL    HW178135   1.723   3.980   0.331
58746SOL    HW278136   1.776   3.934   0.197
58747SOL     OW78137   1.295   9.484   6.939
58747SOL    HW178138   1.345   9.553   6.896
58747SOL    HW278139   1.351   9.407   6.932
58748SOL     OW78140   7.562  11.991   6.698
58748SOL    HW178141   7.542  11.903   6.664
58748SOL    HW278142   7.542  11.985   6.792
58749SOL     OW78143   4.811   0.076  14.724
58749SOL    HW178144   4.841   0.089  14.634
58749SOL    HW278145   4.878   0.119  14.777
58750SOL     OW78146   0.716   2.010  12.198
58750SOL    HW178147   0.659   2.049  12.264
58750SOL    HW278148   0.657   1.985  12.127
58751SOL     OW78149  12.440   9.992   8.989
58751SOL    HW178150  12.480  10.078   8.998
58751SOL    HW278151  12.410   9.970   9.077
58752SOL     OW78152   1.311  12.446  13.658
58752SOL    HW178153   1.390  12.499  13.663
58752SOL    HW278154   1.278  12.460  13.569
58753SOL     OW78155   5.048   5.449  11.521
58753SOL    HW178156   4.985   5.521  11.512
58753SOL    HW278157   5.088   5.441  11.435
58754SOL     OW78158   7.702   1.815   0.333
58754SOL    HW178159   7.731   1.783   0.248
58754SOL    HW278160   7.639   1.749   0.364
58755SOL     OW78161   2.583  11.022   3.983
58755SOL    HW178162   2.665  11.020   4.031
58755SOL    HW278163   2.515  11.018   4.050
58756SOL     OW78164   3.480   9.625  14.169
58756SOL    HW178165   3.536   9.562  14.213
58756SOL    HW278166   3.528   9.650  14.091
58757SOL     OW78167   9.451   5.231  10.058
58757SOL    HW178168   9.394   5.297  10.018
58757SOL    HW278169   9.424   5.149  10.018
58758SOL     OW78170   8.701   9.391   8.859
58758SOL    HW178171   8.638   9.344   8.914
58758SOL    HW278172   8.729   9.326   8.794
58759SOL     OW78173   4.366   8.299   7.432
58759SOL    HW178174   4.446   8.262   7.396
58759SOL    HW278175   4.337   8.235   7.498
58760SOL     OW78176   9.134   1.121   5.609
58760SOL    HW178177   9.161   1.054   5.672
58760SOL    HW278178   9.047   1.148   5.639
58761SOL     OW78179   2.123  12.777   8.574
58761SOL    HW178180   2.159  12.823   8.499
58761SOL    HW278181   2.126  12.841   8.645
58762SOL     OW78182   1.843   2.670   6.375
58762SOL    HW178183   1.885   2.738   6.323
58762SOL    HW278184   1.763   2.648   6.326
58763SOL     OW78185   1.903   6.181   0.391
58763SOL    HW178186   1.956   6.163   0.468
58763SOL    HW278187   1.878   6.095   0.359
58764SOL     OW78188  13.837   6.136  12.189
58764SOL    HW178189  13.854   6.100  12.276
58764SOL    HW278190  13.864   6.228  12.195
58765SOL     OW78191   5.222   6.210   3.829
58765SOL    HW178192   5.260   6.202   3.916
58765SOL    HW278193   5.249   6.297   3.800
58766SOL     OW78194  14.251   1.359   0.022
58766SOL    HW178195  14.177   1.344  14.831
58766SOL    HW278196  14.315   1.292  14.865
58767SOL     OW78197   3.596  13.982   6.218
58767SOL    HW178198   3.530  13.961   6.152
58767SOL    HW278199   3.579  13.922   6.290
58768SOL     OW78200   2.942   9.821   9.158
58768SOL    HW178201   2.929   9.909   9.122
58768SOL    HW278202   2.913   9.762   9.088
58769SOL     OW78203   2.665  11.617  12.707
58769SOL    HW178204   2.729  11.630  12.637
58769SOL    HW278205   2.638  11.526  12.698
58770SOL     OW78206  13.232  13.831   0.925
58770SOL    HW178207  13.210  13.847   1.017
58770SOL    HW278208  13.160  13.871   0.875
58771SOL     OW78209   7.461   9.263  13.459
58771SOL    HW178210   7.442   9.324  13.388
58771SOL    HW278211   7.455   9.315  13.539
58772SOL     OW78212   5.570   3.907   6.612
58772SOL    HW178213   5.579   4.002   6.621
58772SOL    HW278214   5.476   3.891   6.614
58773SOL     OW78215  10.106   4.219  14.458
58773SOL    HW178216  10.102   4.315  14.449
58773SOL    HW278217  10.014   4.191  14.460
58774SOL     OW78218  12.082  14.046   1.732
58774SOL    HW178219  12.146  14.108   1.696
58774SOL    HW278220  12.057  14.084   1.816
58775SOL     OW78221   2.666  13.262  10.842
58775SOL    HW178222   2.591  13.288  10.788
58775SOL    HW278223   2.634  13.268  10.932
58776SOL     OW78224   3.092   2.469   6.532
58776SOL    HW178225   3.020   2.411   6.557
58776SOL    HW278226   3.141   2.419   6.467
58777SOL     OW78227   8.032  12.694   9.585
58777SOL    HW178228   8.044  12.783   9.619
58777SOL    HW278229   8.119  12.654   9.590
58778SOL     OW78230   4.905   0.095   4.610
58778SOL    HW178231   4.837   0.115   4.546
58778SOL    HW278232   4.967   0.167   4.602
58779SOL     OW78233   0.293  13.990   9.474
58779SOL    HW178234   0.242  14.005   9.553
58779SOL    HW278235   0.312  13.896   9.475
58780SOL     OW78236  14.290   6.609  10.871
58780SOL    HW178237  14.339   6.637  10.794
58780SOL    HW278238  14.351   6.555  10.921
58781SOL     OW78239   9.058   3.485  10.231
58781SOL    HW178240   9.030   3.567  10.190
58781SOL    HW278241   9.154   3.486  10.223
58782SOL     OW78242  11.714   5.986   6.659
58782SOL    HW178243  11.636   5.977   6.605
58782SOL    HW278244  11.729   5.898   6.694
58783SOL     OW78245   6.700   6.398   2.690
58783SOL    HW178246   6.660   6.423   2.607
58783SOL    HW278247   6.639   6.336   2.730
58784SOL     OW78248   9.289   4.704   4.203
58784SOL    HW178249   9.318   4.640   4.137
58784SOL    HW278250   9.197   4.721   4.180
58785SOL     OW78251  12.258   5.618  14.136
58785SOL    HW178252  12.240   5.629  14.230
58785SOL    HW278253  12.308   5.537  14.131
58786SOL     OW78254   7.759  12.842  13.431
58786SOL    HW178255   7.757  12.878  13.343
58786SOL    HW278256   7.696  12.770  13.430
58787SOL     OW78257   5.898   1.922   7.751
58787SOL    HW178258   5.940   1.993   7.702
58787SOL    HW278259   5.970   1.884   7.802
58788SOL     OW78260   6.493   5.566   6.790
58788SOL    HW178261   6.407   5.525   6.783
58788SOL    HW278262   6.478   5.646   6.839
58789SOL     OW78263   1.847   1.156   3.830
58789SOL    HW178264   1.759   1.192   3.835
58789SOL    HW278265   1.883   1.168   3.918
58790SOL     OW78266   8.520  10.756   3.481
58790SOL    HW178267   8.475  10.800   3.553
58790SOL    HW278268   8.505  10.662   3.497
58791SOL     OW78269   0.282   7.376   6.897
58791SOL    HW178270   0.229   7.425   6.960
58791SOL    HW278271   0.356   7.433   6.877
58792SOL     OW78272   5.265  11.158   9.673
58792SOL    HW178273   5.279  11.157   9.579
58792SOL    HW278274   5.189  11.215   9.685
58793SOL     OW78275  10.642   0.007  14.828
58793SOL    HW178276  10.576  14.808  14.814
58793SOL    HW278277  10.694  14.842   0.034
58794SOL     OW78278   9.016   1.976  11.636
58794SOL    HW178279   8.979   1.954  11.722
58794SOL    HW278280   9.032   2.070  11.641
58795SOL     OW78281   7.037   0.468   9.237
58795SOL    HW178282   7.053   0.457   9.331
58795SOL    HW278283   7.120   0.501   9.202
58796SOL     OW78284   2.313   3.829  11.980
58796SOL    HW178285   2.345   3.842  12.069
58796SOL    HW278286   2.356   3.898  11.929
58797SOL     OW78287  12.215  10.700  14.719
58797SOL    HW178288  12.265  10.775  14.752
58797SOL    HW278289  12.273  10.625  14.731
58798SOL     OW78290   7.310   6.109   0.903
58798SOL    HW178291   7.400   6.083   0.924
58798SOL    HW278292   7.318   6.166   0.827
58799SOL     OW78293   7.690  13.517   5.034
58799SOL    HW178294   7.649  13.603   5.046
58799SOL    HW278295   7.631  13.456   5.078
58800SOL     OW78296  10.923   4.696  13.616
58800SOL    HW178297  10.977   4.709  13.538
58800SOL    HW278298  10.833   4.700  13.585
58801SOL     OW78299  13.823   5.345  11.665
58801SOL    HW178300  13.757   5.410  11.644
58801SOL    HW278301  13.903   5.395  11.682
58802SOL     OW78302   8.993   4.410   1.418
58802SOL    HW178303   8.969   4.427   1.327
58802SOL    HW278304   8.918   4.439   1.469
58803SOL     OW78305   0.030   5.489  10.294
58803SOL    HW178306  14.853   5.435  10.229
58803SOL    HW278307   0.111   5.440  10.313
58804SOL     OW78308   7.645   5.081  13.029
58804SOL    HW178309   7.622   5.152  13.089
58804SOL    HW278310   7.694   5.125  12.959
58805SOL     OW78311   0.219   3.182   7.677
58805SOL    HW178312   0.204   3.136   7.760
58805SOL    HW278313   0.236   3.112   7.613
58806SOL     OW78314   7.573   2.433   3.032
58806SOL    HW178315   7.579   2.528   3.016
58806SOL    HW278316   7.552   2.426   3.125
58807SOL     OW78317  10.206   1.918  13.814
58807SOL    HW178318  10.156   1.864  13.753
58807SOL    HW278319  10.239   1.857  13.879
58808SOL     OW78320   1.776  12.193   3.677
58808SOL    HW178321   1.829  12.181   3.599
58808SOL    HW278322   1.817  12.136   3.743
58809SOL     OW78323   7.771   9.708  10.758
58809SOL    HW178324   7.830   9.775  10.722
58809SOL    HW278325   7.760   9.732  10.850
58810SOL     OW78326  11.484   8.291   4.478
58810SOL    HW178327  11.483   8.306   4.572
58810SOL    HW278328  11.492   8.379   4.440
58811SOL     OW78329  10.467   3.978   2.973
58811SOL    HW178330  10.520   3.962   2.895
58811SOL    HW278331  10.463   3.894   3.018
58812SOL     OW78332   4.121   2.543   4.311
58812SOL    HW178333   4.200   2.510   4.355
58812SOL    HW278334   4.151   2.572   4.225
58813SOL     OW78335  10.524   7.282  10.686
58813SOL    HW178336  10.578   7.274  10.764
58813SOL    HW278337  10.570   7.232  10.619
58814SOL     OW78338  14.699   2.902  11.658
58814SOL    HW178339  14.726   2.958  11.586
58814SOL    HW278340  14.776   2.895  11.714
58815SOL     OW78341   3.684   6.298   7.464
58815SOL    HW178342   3.618   6.345   7.514
58815SOL    HW278343   3.698   6.352   7.386
58816SOL     OW78344  10.387   6.642   0.985
58816SOL    HW178345  10.448   6.580   0.943
58816SOL    HW278346  10.358   6.698   0.913
58817SOL     OW78347   9.271  14.837  11.855
58817SOL    HW178348   9.231  14.819  11.770
58817SOL    HW278349   9.344   0.027  11.836
58818SOL     OW78350  13.708   7.115   0.221
58818SOL    HW178351  13.721   7.149   0.310
58818SOL    HW278352  13.618   7.137   0.200
58819SOL     OW78353  14.252   9.468  10.596
58819SOL    HW178354  14.290   9.380  10.594
58819SOL    HW278355  14.177   9.460  10.655
58820SOL     OW78356   0.226  13.556   0.239
58820SOL    HW178357   0.270  13.634   0.205
58820SOL    HW278358   0.242  13.559   0.334
58821SOL     OW78359  13.782   5.195   1.972
58821SOL    HW178360  13.828   5.219   2.052
58821SOL    HW278361  13.851   5.160   1.915
58822SOL     OW78362   3.098   8.448   2.409
58822SOL    HW178363   3.130   8.366   2.446
58822SOL    HW278364   3.007   8.454   2.439
58823SOL     OW78365   4.435   1.456   8.025
58823SOL    HW178366   4.514   1.503   7.997
58823SOL    HW278367   4.413   1.496   8.110
58824SOL     OW78368  10.122  10.784  12.153
58824SOL    HW178369  10.090  10.805  12.240
58824SOL    HW278370  10.145  10.869  12.114
58825SOL     OW78371   7.602   4.286   7.448
58825SOL    HW178372   7.635   4.219   7.509
58825SOL    HW278373   7.538   4.239   7.394
58826SOL     OW78374   1.762   3.934   9.813
58826SOL    HW178375   1.843   3.911   9.767
58826SOL    HW278376   1.790   3.994   9.882
58827SOL     OW78377  10.869   7.910   9.183
58827SOL    HW178378  10.901   7.916   9.273
58827SOL    HW278379  10.868   8.000   9.152
58828SOL     OW78380   4.996   9.436   5.454
58828SOL    HW178381   5.049   9.356   5.462
58828SOL    HW278382   4.915   9.416   5.501
58829SOL     OW78383   5.879   4.950  11.468
58829SOL    HW178384   5.872   5.045  11.467
58829SOL    HW278385   5.965   4.931  11.430
58830SOL     OW78386   0.187   6.069   2.600
58830SOL    HW178387   0.099   6.044   2.574
58830SOL    HW278388   0.244   6.020   2.541
58831SOL     OW78389   3.200   8.688   3.905
58831SOL    HW178390   3.239   8.759   3.854
58831SOL    HW278391   3.265   8.617   3.901
58832SOL     OW78392   0.978  10.630   7.188
58832SOL    HW178393   0.981  10.632   7.284
58832SOL    HW278394   0.912  10.563   7.167
58833SOL     OW78395  11.259   9.433   9.886
58833SOL    HW178396  11.311   9.504   9.923
58833SOL    HW278397  11.179   9.432   9.938
58834SOL     OW78398  12.902   2.821   7.840
58834SOL    HW178399  12.878   2.871   7.918
58834SOL    HW278400  12.904   2.886   7.770
58835SOL     OW78401   3.487  11.883  11.750
58835SOL    HW178402   3.530  11.921  11.826
58835SOL    HW278403   3.524  11.930  11.675
58836SOL     OW78404  11.813  14.776   5.863
58836SOL    HW178405  11.803  14.844   5.929
58836SOL    HW278406  11.812  14.823   5.780
58837SOL     OW78407   9.862   6.758   6.958
58837SOL    HW178408   9.833   6.702   6.887
58837SOL    HW278409   9.954   6.777   6.938
58838SOL     OW78410   4.578  10.024   1.325
58838SOL    HW178411   4.629   9.987   1.398
58838SOL    HW278412   4.544   9.947   1.279
58839SOL     OW78413   5.010   0.196   2.254
58839SOL    HW178414   4.981   0.135   2.186
58839SOL    HW278415   4.947   0.185   2.325
58840SOL     OW78416   3.948  13.622   1.060
58840SOL    HW178417   3.855  13.644   1.053
58840SOL    HW278418   3.955  13.571   1.140
58841SOL     OW78419  12.562   7.921  12.537
58841SOL    HW178420  12.504   7.915  12.612
58841SOL    HW278421  12.507   7.898  12.462
58842SOL     OW78422  10.464   8.214   3.649
58842SOL    HW178423  10.398   8.205   3.580
58842SOL    HW278424  10.418   8.258   3.720
58843SOL     OW78425   8.405  12.626   3.055
58843SOL    HW178426   8.471  12.583   3.110
58843SOL    HW278427   8.324  12.579   3.074
58844SOL     OW78428  13.139   4.489   9.275
58844SOL    HW178429  13.135   4.576   9.315
58844SOL    HW278430  13.221   4.489   9.225
58845SOL     OW78431  12.549  11.300   4.275
58845SOL    HW178432  12.532  11.211   4.305
58845SOL    HW278433  12.477  11.320   4.215
58846SOL     OW78434  13.825   3.150   6.511
58846SOL    HW178435  13.905   3.171   6.464
58846SOL    HW278436  13.829   3.202   6.591
58847SOL     OW78437  11.390   3.502   8.233
58847SOL    HW178438  11.344   3.538   8.310
58847SOL    HW278439  11.476   3.544   8.235
58848SOL     OW78440   4.612  12.952   5.441
58848SOL    HW178441   4.640  12.868   5.477
58848SOL    HW278442   4.543  12.930   5.379
58849SOL     OW78443   9.614   3.539   7.098
58849SOL    HW178444   9.606   3.500   7.011
58849SOL    HW278445   9.708   3.558   7.107
58850SOL     OW78446  14.289   1.273  12.679
58850SOL    HW178447  14.254   1.194  12.638
58850SOL    HW278448  14.380   1.277  12.651
58851SOL     OW78449   2.475   5.952  14.075
58851SOL    HW178450   2.567   5.963  14.097
58851SOL    HW278451   2.450   6.034  14.033
58852SOL     OW78452  10.923   7.585   1.806
58852SOL    HW178453  11.012   7.599   1.775
58852SOL    HW278454  10.894   7.671   1.836
58853SOL     OW78455   1.790   5.221   5.422
58853SOL    HW178456   1.754   5.224   5.333
58853SOL    HW278457   1.740   5.287   5.470
58854SOL     OW78458  10.905  10.223   0.427
58854SOL    HW178459  10.868  10.138   0.452
58854SOL    HW278460  10.900  10.276   0.507
58855SOL     OW78461   2.319   7.416   7.342
58855SOL    HW178462   2.344   7.508   7.329
58855SOL    HW278463   2.350   7.395   7.430
58856SOL     OW78464   2.343   7.704  13.215
58856SOL    HW178465   2.382   7.641  13.155
58856SOL    HW278466   2.273   7.745  13.165
58857SOL     OW78467   5.655   8.328   3.861
58857SOL    HW178468   5.692   8.384   3.793
58857SOL    HW278469   5.728   8.274   3.890
58858SOL     OW78470   0.581   9.891   1.205
58858SOL    HW178471   0.554   9.870   1.116
58858SOL    HW278472   0.677   9.886   1.202
58859SOL     OW78473   9.537   1.448   4.861
58859SOL    HW178474   9.481   1.397   4.919
58859SOL    HW278475   9.605   1.387   4.833
58860SOL     OW78476  13.687   6.171   1.931
58860SOL    HW178477  13.607   6.128   1.962
58860SOL    HW278478  13.657   6.250   1.887
58861SOL     OW78479  10.475  13.538   8.977
58861SOL    HW178480  10.523  13.602   8.925
58861SOL    HW278481  10.495  13.560   9.068
58862SOL     OW78482  10.040   3.462   9.477
58862SOL    HW178483  10.105   3.525   9.509
58862SOL    HW278484   9.972   3.517   9.437
58863SOL     OW78485   8.897  12.919  12.395
58863SOL    HW178486   8.917  12.906  12.488
58863SOL    HW278487   8.828  12.854  12.377
58864SOL     OW78488  12.429   4.564   2.036
58864SOL    HW178489  12.395   4.508   1.966
58864SOL    HW278490  12.523   4.549   2.035
58865SOL     OW78491   3.978   4.518   3.667
58865SOL    HW178492   4.009   4.435   3.703
58865SOL    HW278493   4.053   4.554   3.620
58866SOL     OW78494   9.059   0.506   3.588
58866SOL    HW178495   9.143   0.547   3.566
58866SOL    HW278496   9.019   0.566   3.651
58867SOL     OW78497   6.338  13.513   8.840
58867SOL    HW178498   6.290  13.574   8.784
58867SOL    HW278499   6.378  13.569   8.907
58868SOL     OW78500  13.389   4.622   4.115
58868SOL    HW178501  13.443   4.653   4.188
58868SOL    HW278502  13.325   4.692   4.102
58869SOL     OW78503  10.130  13.748   2.731
58869SOL    HW178504  10.142  13.771   2.639
58869SOL    HW278505  10.166  13.659   2.737
58870SOL     OW78506   7.309  12.530   0.310
58870SOL    HW178507   7.376  12.527   0.242
58870SOL    HW278508   7.283  12.438   0.322
58871SOL     OW78509   6.144   4.300   0.238
58871SOL    HW178510   6.095   4.237   0.291
58871SOL    HW278511   6.234   4.267   0.239
58872SOL     OW78512   4.131   7.164   1.443
58872SOL    HW178513   4.158   7.252   1.470
58872SOL    HW278514   4.165   7.107   1.512
58873SOL     OW78515   7.040   6.419   5.256
58873SOL    HW178516   7.069   6.429   5.347
58873SOL    HW278517   6.945   6.427   5.261
58874SOL     OW78518   0.204  14.225  12.043
58874SOL    HW178519   0.295  14.198  12.056
58874SOL    HW278520   0.163  14.215  12.129
58875SOL     OW78521   8.980   3.834   9.057
58875SOL    HW178522   8.902   3.778   9.055
58875SOL    HW278523   8.988   3.860   9.149
58876SOL     OW78524   1.707   8.693  10.314
58876SOL    HW178525   1.788   8.670  10.359
58876SOL    HW278526   1.693   8.785  10.337
58877SOL     OW78527  13.215  11.825   4.898
58877SOL    HW178528  13.256  11.740   4.916
58877SOL    HW278529  13.125  11.802   4.873
58878SOL     OW78530  10.051   8.065   3.352
58878SOL    HW178531   9.984   8.082   3.285
58878SOL    HW278532  10.062   7.970   3.351
58879SOL     OW78533  10.175  14.712  14.083
58879SOL    HW178534  10.150  14.619  14.082
58879SOL    HW278535  10.094  14.758  14.102
58880SOL     OW78536   0.352  14.458   2.722
58880SOL    HW178537   0.381  14.521   2.657
58880SOL    HW278538   0.403  14.379   2.703
58881SOL     OW78539   9.006  10.546  12.289
58881SOL    HW178540   8.978  10.631  12.321
58881SOL    HW278541   9.077  10.520  12.347
58882SOL     OW78542   3.299  11.636   8.602
58882SOL    HW178543   3.266  11.570   8.541
58882SOL    HW278544   3.232  11.641   8.670
58883SOL     OW78545   9.102   5.340  11.819
58883SOL    HW178546   9.115   5.249  11.793
58883SOL    HW278547   9.025   5.369  11.769
58884SOL     OW78548  10.754   4.853   3.830
58884SOL    HW178549  10.661   4.869   3.844
58884SOL    HW278550  10.756   4.782   3.766
58885SOL     OW78551   9.273   7.142   7.334
58885SOL    HW178552   9.362   7.138   7.368
58885SOL    HW278553   9.284   7.140   7.239
58886SOL     OW78554   4.859   9.320   3.838
58886SOL    HW178555   4.831   9.304   3.747
58886SOL    HW278556   4.954   9.335   3.831
58887SOL     OW78557   4.825   2.861   3.930
58887SOL    HW178558   4.895   2.809   3.970
58887SOL    HW278559   4.815   2.937   3.988
58888SOL     OW78560   0.783   1.896   0.034
58888SOL    HW178561   0.810   1.813   0.073
58888SOL    HW278562   0.848   1.912  14.833
58889SOL     OW78563   3.530  11.503   4.586
58889SOL    HW178564   3.569  11.499   4.673
58889SOL    HW278565   3.440  11.475   4.599
58890SOL     OW78566   5.107   4.590   4.236
58890SOL    HW178567   5.177   4.602   4.300
58890SOL    HW278568   5.071   4.677   4.223
58891SOL     OW78569   9.961  13.164  12.700
58891SOL    HW178570  10.026  13.232  12.680
58891SOL    HW278571   9.885  13.187  12.646
58892SOL     OW78572   6.208   8.790   3.099
58892SOL    HW178573   6.220   8.740   3.179
58892SOL    HW278574   6.230   8.728   3.029
58893SOL     OW78575   1.466   3.292   2.566
58893SOL    HW178576   1.413   3.230   2.616
58893SOL    HW278577   1.541   3.241   2.536
58894SOL     OW78578   8.521  10.114  12.488
58894SOL    HW178579   8.596  10.169  12.510
58894SOL    HW278580   8.541  10.079  12.401
58895SOL     OW78581   0.240  10.389   9.659
58895SOL    HW178582   0.214  10.312   9.711
58895SOL    HW278583   0.316  10.359   9.610
58896SOL     OW78584   7.721   0.640   2.112
58896SOL    HW178585   7.781   0.571   2.140
58896SOL    HW278586   7.728   0.639   2.016
58897SOL     OW78587   3.581   7.690  14.733
58897SOL    HW178588   3.502   7.703  14.786
58897SOL    HW278589   3.560   7.617  14.675
58898SOL     OW78590   6.557  10.718   2.242
58898SOL    HW178591   6.608  10.637   2.246
58898SOL    HW278592   6.574  10.754   2.156
58899SOL     OW78593   2.663   1.829  14.023
58899SOL    HW178594   2.605   1.784  13.962
58899SOL    HW278595   2.707   1.895  13.970
58900SOL     OW78596   0.335   6.115   6.749
58900SOL    HW178597   0.263   6.121   6.686
58900SOL    HW278598   0.295   6.075   6.827
58901SOL     OW78599   6.244  14.438   0.920
58901SOL    HW178600   6.184  14.423   0.847
58901SOL    HW278601   6.215  14.375   0.987
58902SOL     OW78602  12.593   6.364   4.256
58902SOL    HW178603  12.628   6.307   4.188
58902SOL    HW278604  12.637   6.336   4.336
58903SOL     OW78605   3.437  12.798   8.692
58903SOL    HW178606   3.472  12.775   8.778
58903SOL    HW278607   3.503  12.767   8.630
58904SOL     OW78608  13.842  11.384   4.241
58904SOL    HW178609  13.918  11.432   4.274
58904SOL    HW278610  13.815  11.432   4.163
58905SOL     OW78611   4.476   8.531   3.357
58905SOL    HW178612   4.514   8.461   3.410
58905SOL    HW278613   4.551   8.578   3.321
58906SOL     OW78614   3.006   9.766  11.367
58906SOL    HW178615   2.929   9.742  11.316
58906SOL    HW278616   2.997   9.860  11.382
58907SOL     OW78617  12.131   4.454   5.947
58907SOL    HW178618  12.094   4.449   5.859
58907SOL    HW278619  12.080   4.521   5.991
58908SOL     OW78620   5.883   5.214   7.450
58908SOL    HW178621   5.950   5.204   7.382
58908SOL    HW278622   5.825   5.283   7.417
58909SOL     OW78623   4.463  10.425   6.907
58909SOL    HW178624   4.369  10.441   6.896
58909SOL    HW278625   4.498  10.423   6.818
58910SOL     OW78626   9.685   4.310   5.456
58910SOL    HW178627   9.711   4.401   5.470
58910SOL    HW278628   9.601   4.302   5.500
58911SOL     OW78629   7.766   4.161  12.482
58911SOL    HW178630   7.772   4.130  12.392
58911SOL    HW278631   7.850   4.204  12.498
58912SOL     OW78632   4.397   8.052   9.320
58912SOL    HW178633   4.393   8.095   9.235
58912SOL    HW278634   4.484   8.012   9.323
58913SOL     OW78635  13.108  11.055   0.878
58913SOL    HW178636  13.067  10.969   0.892
58913SOL    HW278637  13.151  11.048   0.793
58914SOL     OW78638   1.971  14.832   6.810
58914SOL    HW178639   2.024   0.018   6.869
58914SOL    HW278640   1.888   0.012   6.803
58915SOL     OW78641   2.502   4.548  14.112
58915SOL    HW178642   2.543   4.539  14.026
58915SOL    HW278643   2.513   4.463  14.153
58916SOL     OW78644  13.408  13.924  10.275
58916SOL    HW178645  13.394  13.955  10.186
58916SOL    HW278646  13.374  13.835  10.276
58917SOL     OW78647  10.476   6.332   2.907
58917SOL    HW178648  10.514   6.244   2.909
58917SOL    HW278649  10.532   6.382   2.847
58918SOL     OW78650   9.767  14.861   4.696
58918SOL    HW178651   9.782  14.828   4.784
58918SOL    HW278652   9.812  14.798   4.639
58919SOL     OW78653   5.135   7.636  10.319
58919SOL    HW178654   5.107   7.545  10.328
58919SOL    HW278655   5.224   7.630  10.285
58920SOL     OW78656   4.036  11.002  10.720
58920SOL    HW178657   4.065  10.964  10.803
58920SOL    HW278658   4.044  10.930  10.657
58921SOL     OW78659  10.714   8.453  13.939
58921SOL    HW178660  10.763   8.372  13.952
58921SOL    HW278661  10.624   8.431  13.965
58922SOL     OW78662   6.467   3.568  12.460
58922SOL    HW178663   6.475   3.473  12.454
58922SOL    HW278664   6.522   3.592  12.535
58923SOL     OW78665  13.899   7.310   4.879
58923SOL    HW178666  13.817   7.320   4.831
58923SOL    HW278667  13.960   7.271   4.816
58924SOL     OW78668   5.634   8.647   0.748
58924SOL    HW178669   5.683   8.730   0.745
58924SOL    HW278670   5.607   8.639   0.839
58925SOL     OW78671  10.799   2.774   8.886
58925SOL    HW178672  10.781   2.692   8.840
58925SOL    HW278673  10.793   2.842   8.818
58926SOL     OW78674   8.957   7.312   4.184
58926SOL    HW178675   8.928   7.393   4.143
58926SOL    HW278676   8.979   7.254   4.111
58927SOL     OW78677  14.200   2.021   3.854
58927SOL    HW178678  14.279   2.046   3.903
58927SOL    HW278679  14.130   2.021   3.919
58928SOL     OW78680  10.956   2.688  11.083
58928SOL    HW178681  10.863   2.673  11.065
58928SOL    HW278682  10.975   2.637  11.161
58929SOL     OW78683  11.246  11.616   2.040
58929SOL    HW178684  11.186  11.690   2.052
58929SOL    HW278685  11.190  11.539   2.033
58930SOL     OW78686   5.767   4.058   0.899
58930SOL    HW178687   5.788   4.080   0.990
58930SOL    HW278688   5.851   4.067   0.853
58931SOL     OW78689   9.572   1.301   3.833
58931SOL    HW178690   9.549   1.211   3.858
58931SOL    HW278691   9.551   1.306   3.740
58932SOL     OW78692   3.100   8.857  14.408
58932SOL    HW178693   3.048   8.924  14.453
58932SOL    HW278694   3.152   8.906  14.345
58933SOL     OW78695   1.505   8.000   1.261
58933SOL    HW178696   1.588   8.012   1.307
58933SOL    HW278697   1.518   7.922   1.207
58934SOL     OW78698   3.650   8.929   6.788
58934SOL    HW178699   3.739   8.957   6.764
58934SOL    HW278700   3.644   8.947   6.882
58935SOL     OW78701   0.994   2.633  14.126
58935SOL    HW178702   1.034   2.717  14.145
58935SOL    HW278703   0.978   2.634  14.032
58936SOL     OW78704  10.348   6.152   0.039
58936SOL    HW178705  10.259   6.155   0.073
58936SOL    HW278706  10.379   6.064   0.059
58937SOL     OW78707   0.823   6.309   1.702
58937SOL    HW178708   0.827   6.230   1.756
58937SOL    HW278709   0.834   6.381   1.765
58938SOL     OW78710   9.608  11.158   7.730
58938SOL    HW178711   9.585  11.213   7.655
58938SOL    HW278712   9.526  11.118   7.757
58939SOL     OW78713  14.060  12.105   0.090
58939SOL    HW178714  14.153  12.122   0.104
58939SOL    HW278715  14.026  12.187   0.055
58940SOL     OW78716   1.671  12.424  11.010
58940SOL    HW178717   1.756  12.449  10.972
58940SOL    HW278718   1.614  12.498  10.992
58941SOL     OW78719   7.054  13.991  10.678
58941SOL    HW178720   7.066  13.903  10.713
58941SOL    HW278721   7.107  14.047  10.735
58942SOL     OW78722   4.254  10.740   6.587
58942SOL    HW178723   4.309  10.744   6.666
58942SOL    HW278724   4.317  10.723   6.517
58943SOL     OW78725  10.060   5.923  14.284
58943SOL    HW178726  10.082   5.932  14.191
58943SOL    HW278727  10.062   5.829  14.300
58944SOL     OW78728   6.974   1.402   9.678
58944SOL    HW178729   6.889   1.445   9.684
58944SOL    HW278730   7.021   1.451   9.610
58945SOL     OW78731   6.476   6.940  13.394
58945SOL    HW178732   6.544   6.951  13.460
58945SOL    HW278733   6.419   6.871  13.429
58946SOL     OW78734  10.733  11.777   8.531
58946SOL    HW178735  10.748  11.795   8.624
58946SOL    HW278736  10.764  11.856   8.486
58947SOL     OW78737  14.786   8.248   5.532
58947SOL    HW178738  14.808   8.167   5.485
58947SOL    HW278739  14.733   8.297   5.469
58948SOL     OW78740   5.821  13.479   7.749
58948SOL    HW178741   5.792  13.425   7.823
58948SOL    HW278742   5.773  13.445   7.674
58949SOL     OW78743   0.946  10.223   5.423
58949SOL    HW178744   0.882  10.154   5.441
58949SOL    HW278745   1.009  10.215   5.495
58950SOL     OW78746   2.180  11.774   8.399
58950SOL    HW178747   2.125  11.723   8.339
58950SOL    HW278748   2.243  11.711   8.434
58951SOL     OW78749   6.793  13.960  13.462
58951SOL    HW178750   6.836  14.037  13.425
58951SOL    HW278751   6.743  13.923  13.389
58952SOL     OW78752   7.109  10.084   2.046
58952SOL    HW178753   7.158  10.166   2.039
58952SOL    HW278754   7.171  10.017   2.017
58953SOL     OW78755   0.255  12.957   4.019
58953SOL    HW178756   0.273  12.868   3.987
58953SOL    HW278757   0.334  12.981   4.067
58954SOL     OW78758   6.604   8.285  13.232
58954SOL    HW178759   6.641   8.294  13.320
58954SOL    HW278760   6.679   8.261  13.177
58955SOL     OW78761  12.489   1.256  10.776
58955SOL    HW178762  12.490   1.312  10.699
58955SOL    HW278763  12.440   1.305  10.841
58956SOL     OW78764   6.670   5.650  11.076
58956SOL    HW178765   6.687   5.609  10.992
58956SOL    HW278766   6.754   5.686  11.103
58957SOL     OW78767   0.753   3.113   3.682
58957SOL    HW178768   0.730   3.171   3.609
58957SOL    HW278769   0.768   3.172   3.755
58958SOL     OW78770   8.787  10.055   2.247
58958SOL    HW178771   8.770   9.978   2.192
58958SOL    HW278772   8.804  10.018   2.334
58959SOL     OW78773   7.027   5.860   1.681
58959SOL    HW178774   7.009   5.922   1.752
58959SOL    HW278775   7.073   5.911   1.615
58960SOL     OW78776   3.225   4.334   1.530
58960SOL    HW178777   3.145   4.281   1.529
58960SOL    HW278778   3.228   4.375   1.443
58961SOL     OW78779   3.385  14.207   1.372
58961SOL    HW178780   3.479  14.214   1.384
58961SOL    HW278781   3.356  14.297   1.359
58962SOL     OW78782   9.562   2.347  11.592
58962SOL    HW178783   9.525   2.388  11.670
58962SOL    HW278784   9.645   2.309  11.622
58963SOL     OW78785  13.114   5.045   7.546
58963SOL    HW178786  13.162   5.081   7.471
58963SOL    HW278787  13.178   5.046   7.617
58964SOL     OW78788   8.208  12.382   2.895
58964SOL    HW178789   8.166  12.467   2.910
58964SOL    HW278790   8.135  12.322   2.880
58965SOL     OW78791   2.768   4.082   2.286
58965SOL    HW178792   2.757   4.089   2.380
58965SOL    HW278793   2.688   4.119   2.249
58966SOL     OW78794   5.290  13.468   6.335
58966SOL    HW178795   5.246  13.415   6.269
58966SOL    HW278796   5.375  13.489   6.297
58967SOL     OW78797   0.416   5.464  13.108
58967SOL    HW178798   0.445   5.391  13.164
58967SOL    HW278799   0.333   5.434  13.071
58968SOL     OW78800   4.012  12.027   9.190
58968SOL    HW178801   4.021  11.959   9.123
58968SOL    HW278802   3.919  12.024   9.215
58969SOL     OW78803   2.182  10.243   9.925
58969SOL    HW178804   2.159  10.205  10.010
58969SOL    HW278805   2.223  10.327   9.948
58970SOL     OW78806   0.111   4.873   5.912
58970SOL    HW178807   0.168   4.947   5.931
58970SOL    HW278808   0.024   4.911   5.904
58971SOL     OW78809   2.612   4.128   8.037
58971SOL    HW178810   2.578   4.112   8.124
58971SOL    HW278811   2.595   4.046   7.989
58972SOL     OW78812  14.414   7.988  11.520
58972SOL    HW178813  14.446   7.969  11.432
58972SOL    HW278814  14.464   7.929  11.577
58973SOL     OW78815   7.717   7.188  14.866
58973SOL    HW178816   7.623   7.201  14.859
58973SOL    HW278817   7.727   7.108   0.049
58974SOL     OW78818  10.646   5.044   3.499
58974SOL    HW178819  10.585   5.021   3.429
58974SOL    HW278820  10.592   5.056   3.576
58975SOL     OW78821   8.356  14.179   2.058
58975SOL    HW178822   8.378  14.160   2.150
58975SOL    HW278823   8.415  14.251   2.035
58976SOL     OW78824   9.967   6.418   2.183
58976SOL    HW178825   9.880   6.449   2.206
58976SOL    HW278826   9.986   6.348   2.246
58977SOL     OW78827  12.596   0.024  11.976
58977SOL    HW178828  12.663  14.839  11.934
58977SOL    HW278829  12.531  14.829  12.007
58978SOL     OW78830  11.918  11.679  14.789
58978SOL    HW178831  11.872  11.650   0.000
58978SOL    HW278832  11.959  11.762  14.814
58979SOL     OW78833   4.160   5.795   2.206
58979SOL    HW178834   4.119   5.737   2.270
58979SOL    HW278835   4.120   5.771   2.123
58980SOL     OW78836   0.132  12.370   0.306
58980SOL    HW178837   0.208  12.408   0.350
58980SOL    HW278838   0.084  12.446   0.272
58981SOL     OW78839   3.655   1.190   5.173
58981SOL    HW178840   3.651   1.116   5.233
58981SOL    HW278841   3.684   1.263   5.228
58982SOL     OW78842  10.058   3.490  12.872
58982SOL    HW178843   9.993   3.555  12.899
58982SOL    HW278844  10.135   3.542  12.848
58983SOL     OW78845   5.661   1.203   4.664
58983SOL    HW178846   5.716   1.260   4.610
58983SOL    HW278847   5.701   1.205   4.750
58984SOL     OW78848  10.858  13.986  13.760
58984SOL    HW178849  10.868  13.930  13.682
58984SOL    HW278850  10.773  14.029  13.748
58985SOL     OW78851  11.860   7.850   6.190
58985SOL    HW178852  11.843   7.937   6.227
58985SOL    HW278853  11.915   7.867   6.113
58986SOL     OW78854   1.918  12.189  14.587
58986SOL    HW178855   1.960  12.116  14.543
58986SOL    HW278856   1.962  12.267  14.553
58987SOL     OW78857  13.764   0.211   1.745
58987SOL    HW178858  13.706   0.278   1.710
58987SOL    HW278859  13.757   0.221   1.840
58988SOL     OW78860  14.691   9.442   6.838
58988SOL    HW178861  14.622   9.410   6.780
58988SOL    HW278862  14.707   9.370   6.899
58989SOL     OW78863  12.214   6.513   5.944
58989SOL    HW178864  12.171   6.446   5.995
58989SOL    HW278865  12.196   6.490   5.853
58990SOL     OW78866   0.217   0.931   6.039
58990SOL    HW178867   0.140   0.975   6.073
58990SOL    HW278868   0.263   0.998   5.987
58991SOL     OW78869   6.873  13.826   3.823
58991SOL    HW178870   6.939  13.810   3.756
58991SOL    HW278871   6.913  13.893   3.879
58992SOL     OW78872   6.091   2.976   3.765
58992SOL    HW178873   6.075   2.968   3.671
58992SOL    HW278874   6.094   3.071   3.781
58993SOL     OW78875   6.370   7.438   4.776
58993SOL    HW178876   6.452   7.455   4.822
58993SOL    HW278877   6.389   7.458   4.684
58994SOL     OW78878  10.999  11.187   3.505
58994SOL    HW178879  11.020  11.186   3.411
58994SOL    HW278880  11.083  11.197   3.548
58995SOL     OW78881  13.495   4.073   1.018
58995SOL    HW178882  13.501   3.978   1.022
58995SOL    HW278883  13.584   4.104   1.036
58996SOL     OW78884   7.359   6.907   9.264
58996SOL    HW178885   7.352   7.003   9.267
58996SOL    HW278886   7.420   6.890   9.192
58997SOL     OW78887  14.605   1.615   8.031
58997SOL    HW178888  14.689   1.573   8.010
58997SOL    HW278889  14.547   1.543   8.054
58998SOL     OW78890   4.343   1.590   8.242
58998SOL    HW178891   4.251   1.612   8.253
58998SOL    HW278892   4.375   1.575   8.331
58999SOL     OW78893  10.762   8.656  11.930
58999SOL    HW178894  10.727   8.628  12.015
58999SOL    HW278895  10.856   8.640  11.936
59000SOL     OW78896  14.819  11.454   4.873
59000SOL    HW178897  14.848  11.377   4.922
59000SOL    HW278898  14.781  11.419   4.793
59001SOL     OW78899  13.399   4.861   5.018
59001SOL    HW178900  13.352   4.828   4.941
59001SOL    HW278901  13.351   4.939   5.044
59002SOL     OW78902  13.527   5.955   0.066
59002SOL    HW178903  13.572   6.035   0.091
59002SOL    HW278904  13.578   5.921  14.860
59003SOL     OW78905   1.096   4.711   2.815
59003SOL    HW178906   1.154   4.641   2.786
59003SOL    HW278907   1.129   4.789   2.772
59004SOL     OW78908   9.036  14.654   7.881
59004SOL    HW178909   8.998  14.568   7.867
59004SOL    HW278910   9.081  14.647   7.966
59005SOL     OW78911   7.957  13.967  13.703
59005SOL    HW178912   8.003  14.011  13.775
59005SOL    HW278913   7.882  14.024  13.684
59006SOL     OW78914  10.730   0.323  10.023
59006SOL    HW178915  10.729   0.415   9.998
59006SOL    HW278916  10.823   0.303  10.036
59007SOL     OW78917   2.315  11.832   7.970
59007SOL    HW178918   2.261  11.898   8.014
59007SOL    HW278919   2.367  11.883   7.907
59008SOL     OW78920   2.227   2.319   8.201
59008SOL    HW178921   2.163   2.348   8.266
59008SOL    HW278922   2.178   2.314   8.119
59009SOL     OW78923  14.072   8.057   7.192
59009SOL    HW178924  14.061   8.143   7.232
59009SOL    HW278925  14.072   8.074   7.098
59010SOL     OW78926   7.442   5.800  12.943
59010SOL    HW178927   7.493   5.806  12.863
59010SOL    HW278928   7.384   5.876  12.940
59011SOL     OW78929   7.660   9.737   7.424
59011SOL    HW178930   7.694   9.818   7.387
59011SOL    HW278931   7.573   9.728   7.387
59012SOL     OW78932  11.801  10.080  12.892
59012SOL    HW178933  11.818  10.113  12.803
59012SOL    HW278934  11.876  10.024  12.911
59013SOL     OW78935   9.691  10.241  11.672
59013SOL    HW178936   9.623  10.298  11.637
59013SOL    HW278937   9.769  10.261  11.621
59014SOL     OW78938   2.882   1.272  12.620
59014SOL    HW178939   2.830   1.192  12.605
59014SOL    HW278940   2.939   1.250  12.694
59015SOL     OW78941   5.723  10.364  12.659
59015SOL    HW178942   5.738  10.315  12.579
59015SOL    HW278943   5.785  10.437  12.655
59016SOL     OW78944   2.146  12.961   9.905
59016SOL    HW178945   2.225  12.911   9.925
59016SOL    HW278946   2.175  13.053   9.907
59017SOL     OW78947   5.992   7.040   3.750
59017SOL    HW178948   6.022   6.954   3.720
59017SOL    HW278949   5.974   7.027   3.844
59018SOL     OW78950   2.099   0.024   3.704
59018SOL    HW178951   2.141   0.098   3.748
59018SOL    HW278952   2.171  14.838   3.672
59019SOL     OW78953   7.050   5.124   8.623
59019SOL    HW178954   6.976   5.185   8.626
59019SOL    HW278955   7.077   5.125   8.531
59020SOL     OW78956  13.958   6.266  12.382
59020SOL    HW178957  13.996   6.350  12.408
59020SOL    HW278958  13.898   6.243  12.453
59021SOL     OW78959   4.790  13.117   7.640
59021SOL    HW178960   4.807  13.199   7.593
59021SOL    HW278961   4.695  13.112   7.647
59022SOL     OW78962   9.851  11.699   0.532
59022SOL    HW178963   9.784  11.711   0.599
59022SOL    HW278964   9.867  11.605   0.532
59023SOL     OW78965   7.447   8.578  12.399
59023SOL    HW178966   7.362   8.581  12.442
59023SOL    HW278967   7.509   8.600  12.469
59024SOL     OW78968   9.534   7.308   8.097
59024SOL    HW178969   9.625   7.277   8.094
59024SOL    HW278970   9.534   7.376   8.163
59025SOL     OW78971   5.990   8.883   0.875
59025SOL    HW178972   6.064   8.835   0.837
59025SOL    HW278973   5.983   8.851   0.964
59026SOL     OW78974  14.032  10.537   9.792
59026SOL    HW178975  14.060  10.565   9.705
59026SOL    HW278976  14.080  10.593   9.852
59027SOL     OW78977   0.469   0.581   6.821
59027SOL    HW178978   0.409   0.517   6.859
59027SOL    HW278979   0.475   0.650   6.887
59028SOL     OW78980   1.036   4.843   5.593
59028SOL    HW178981   1.129   4.832   5.577
59028SOL    HW278982   1.012   4.768   5.647
59029SOL     OW78983   8.009   5.105  11.898
59029SOL    HW178984   8.031   5.145  11.814
59029SOL    HW278985   7.932   5.153  11.927
59030SOL     OW78986  13.966   4.597  13.964
59030SOL    HW178987  13.929   4.684  13.955
59030SOL    HW278988  14.029   4.589  13.892
59031SOL     OW78989  11.352   2.790  14.823
59031SOL    HW178990  11.346   2.877  14.784
59031SOL    HW278991  11.398   2.804   0.038
59032SOL     OW78992   5.909   9.735   9.786
59032SOL    HW178993   5.960   9.788   9.725
59032SOL    HW278994   5.907   9.648   9.746
59033SOL     OW78995   8.480  10.911   2.750
59033SOL    HW178996   8.514  10.852   2.816
59033SOL    HW278997   8.487  10.998   2.790
59034SOL     OW78998  13.431   9.634   2.640
59034SOL    HW178999  13.427   9.655   2.733
59034SOL    HW279000  13.522   9.611   2.624
59035SOL     OW79001  13.214   5.799   6.174
59035SOL    HW179002  13.150   5.741   6.215
59035SOL    HW279003  13.232   5.865   6.241
59036SOL     OW79004   3.355   4.078  11.713
59036SOL    HW179005   3.328   4.124  11.792
59036SOL    HW279006   3.425   4.133  11.677
59037SOL     OW79007  10.275   1.558   2.662
59037SOL    HW179008  10.318   1.502   2.597
59037SOL    HW279009  10.236   1.496   2.725
59038SOL     OW79010   0.228   6.039   5.487
59038SOL    HW179011   0.213   6.134   5.490
59038SOL    HW279012   0.222   6.011   5.578
59039SOL     OW79013   4.218  11.283  11.506
59039SOL    HW179014   4.306  11.299  11.539
59039SOL    HW279015   4.186  11.209  11.559
59040SOL     OW79016   0.067   9.753   7.008
59040SOL    HW179017   0.106   9.775   7.093
59040SOL    HW279018   0.025   9.668   7.023
59041SOL     OW79019  13.486   2.441   2.603
59041SOL    HW179020  13.555   2.418   2.540
59041SOL    HW279021  13.444   2.357   2.623
59042SOL     OW79022   0.211   1.261   4.335
59042SOL    HW179023   0.143   1.200   4.362
59042SOL    HW279024   0.263   1.277   4.414
59043SOL     OW79025  12.852  13.866   7.365
59043SOL    HW179026  12.889  13.898   7.447
59043SOL    HW279027  12.790  13.798   7.391
59044SOL     OW79028  11.339  13.764  12.352
59044SOL    HW179029  11.339  13.715  12.270
59044SOL    HW279030  11.431  13.778  12.372
59045SOL     OW79031   0.762  14.614  11.886
59045SOL    HW179032   0.835  14.665  11.850
59045SOL    HW279033   0.775  14.526  11.850
59046SOL     OW79034   6.963   5.117  12.467
59046SOL    HW179035   6.933   5.114  12.376
59046SOL    HW279036   6.948   5.207  12.494
59047SOL     OW79037   4.190   0.082   7.292
59047SOL    HW179038   4.163   0.082   7.384
59047SOL    HW279039   4.260   0.147   7.288
59048SOL     OW79040  12.256  13.868  11.283
59048SOL    HW179041  12.205  13.828  11.353
59048SOL    HW279042  12.328  13.807  11.267
59049SOL     OW79043  11.049   6.870   6.859
59049SOL    HW179044  10.993   6.873   6.781
59049SOL    HW279045  11.133   6.836   6.826
59050SOL     OW79046   6.837   8.878   2.244
59050SOL    HW179047   6.763   8.887   2.304
59050SOL    HW279048   6.821   8.946   2.178
59051SOL     OW79049   6.883   4.863   8.480
59051SOL    HW179050   6.844   4.943   8.447
59051SOL    HW279051   6.974   4.866   8.449
59052SOL     OW79052  14.707  10.442   4.088
59052SOL    HW179053  14.653  10.402   4.156
59052SOL    HW279054  14.660  10.423   4.006
59053SOL     OW79055   1.977   9.202  14.476
59053SOL    HW179056   2.019   9.206  14.390
59053SOL    HW279057   2.047   9.178  14.536
59054SOL     OW79058  13.331   4.027   2.261
59054SOL    HW179059  13.346   3.932   2.260
59054SOL    HW279060  13.379   4.060   2.185
59055SOL     OW79061  14.568   0.451   5.231
59055SOL    HW179062  14.587   0.530   5.281
59055SOL    HW279063  14.570   0.380   5.295
59056SOL     OW79064   1.531  12.429   2.639
59056SOL    HW179065   1.464  12.490   2.671
59056SOL    HW279066   1.605  12.442   2.699
59057SOL     OW79067   0.904   6.975   1.172
59057SOL    HW179068   0.845   6.996   1.244
59057SOL    HW279069   0.848   6.975   1.095
59058SOL     OW79070  12.587   1.007  11.797
59058SOL    HW179071  12.552   1.090  11.831
59058SOL    HW279072  12.662   0.987  11.853
59059SOL     OW79073  10.695  14.380   3.498
59059SOL    HW179074  10.688  14.297   3.544
59059SOL    HW279075  10.726  14.357   3.411
59060SOL     OW79076   9.458   1.996  10.612
59060SOL    HW179077   9.363   2.007  10.610
59060SOL    HW279078   9.485   2.008  10.520
59061SOL     OW79079   4.936   9.850   5.676
59061SOL    HW179080   4.923   9.837   5.582
59061SOL    HW279081   4.871   9.793   5.718
59062SOL     OW79082   6.540   2.336   0.349
59062SOL    HW179083   6.485   2.295   0.283
59062SOL    HW279084   6.603   2.268   0.373
59063SOL     OW79085   5.575  13.414  11.345
59063SOL    HW179086   5.539  13.461  11.421
59063SOL    HW279087   5.534  13.328  11.349
59064SOL     OW79088   4.136   2.713   7.569
59064SOL    HW179089   4.111   2.744   7.481
59064SOL    HW279090   4.068   2.749   7.626
59065SOL     OW79091  11.678   1.417   0.421
59065SOL    HW179092  11.656   1.494   0.370
59065SOL    HW279093  11.594   1.383   0.451
59066SOL     OW79094  13.141   8.693   0.941
59066SOL    HW179095  13.128   8.763   1.005
59066SOL    HW279096  13.107   8.728   0.859
59067SOL     OW79097   1.835  11.849   5.359
59067SOL    HW179098   1.815  11.756   5.347
59067SOL    HW279099   1.896  11.852   5.432
59068SOL     OW79100  10.201  13.124  14.213
59068SOL    HW179101  10.216  13.197  14.272
59068SOL    HW279102  10.244  13.150  14.131
59069SOL     OW79103  13.279   3.413   2.403
59069SOL    HW179104  13.292   3.490   2.459
59069SOL    HW279105  13.333   3.430   2.325
59070SOL     OW79106   0.579   9.786   4.823
59070SOL    HW179107   0.621   9.851   4.879
59070SOL    HW279108   0.486   9.808   4.825
59071SOL     OW79109   0.661   5.400  11.244
59071SOL    HW179110   0.676   5.401  11.339
59071SOL    HW279111   0.590   5.337  11.232
59072SOL     OW79112   9.831   9.393   8.725
59072SOL    HW179113   9.828   9.371   8.631
59072SOL    HW279114   9.739   9.387   8.753
59073SOL     OW79115   5.409   2.527  10.696
59073SOL    HW179116   5.430   2.535  10.789
59073SOL    HW279117   5.327   2.575  10.685
59074SOL     OW79118   6.216   9.896   3.394
59074SOL    HW179119   6.144   9.922   3.338
59074SOL    HW279120   6.288   9.956   3.370
59075SOL     OW79121   4.040  12.244   3.378
59075SOL    HW179122   4.109  12.281   3.433
59075SOL    HW279123   4.042  12.150   3.396
59076SOL     OW79124   7.706   1.757  13.991
59076SOL    HW179125   7.746   1.839  13.961
59076SOL    HW279126   7.615   1.763  13.961
59077SOL     OW79127  10.784   9.599   5.740
59077SOL    HW179128  10.821   9.615   5.653
59077SOL    HW279129  10.807   9.509   5.760
59078SOL     OW79130   4.876   1.857   5.412
59078SOL    HW179131   4.908   1.947   5.419
59078SOL    HW279132   4.882   1.823   5.501
59079SOL     OW79133  13.871   6.237  11.155
59079SOL    HW179134  13.885   6.276  11.068
59079SOL    HW279135  13.789   6.275  11.185
59080SOL     OW79136   6.351   9.802   5.452
59080SOL    HW179137   6.407   9.876   5.478
59080SOL    HW279138   6.280   9.803   5.516
59081SOL     OW79139   8.072   9.664  14.028
59081SOL    HW179140   8.132   9.667  13.953
59081SOL    HW279141   8.125   9.627  14.099
59082SOL     OW79142   2.811   2.469   6.216
59082SOL    HW179143   2.811   2.491   6.309
59082SOL    HW279144   2.768   2.543   6.173
59083SOL     OW79145   0.113   5.514   2.694
59083SOL    HW179146   0.146   5.481   2.611
59083SOL    HW279147   0.062   5.592   2.670
59084SOL     OW79148  14.541   2.155   1.692
59084SOL    HW179149  14.481   2.142   1.766
59084SOL    HW279150  14.574   2.245   1.704
59085SOL     OW79151   6.980   5.371  10.347
59085SOL    HW179152   7.066   5.330  10.358
59085SOL    HW279153   6.958   5.355  10.255
59086SOL     OW79154   1.303   4.528   2.448
59086SOL    HW179155   1.237   4.460   2.441
59086SOL    HW279156   1.294   4.561   2.538
59087SOL     OW79157   4.663   8.428  12.458
59087SOL    HW179158   4.676   8.367  12.530
59087SOL    HW279159   4.743   8.420  12.405
59088SOL     OW79160  14.331   3.181  11.688
59088SOL    HW179161  14.292   3.153  11.771
59088SOL    HW279162  14.257   3.195  11.630
59089SOL     OW79163  10.898  14.790   5.680
59089SOL    HW179164  10.893  14.736   5.601
59089SOL    HW279165  10.813  14.836   5.683
59090SOL     OW79166   9.621  11.364   1.129
59090SOL    HW179167   9.699  11.404   1.168
59090SOL    HW279168   9.630  11.271   1.147
59091SOL     OW79169  12.967   2.046  13.213
59091SOL    HW179170  13.019   1.966  13.200
59091SOL    HW279171  12.891   2.018  13.263
59092SOL     OW79172  13.272   0.577   7.493
59092SOL    HW179173  13.285   0.483   7.506
59092SOL    HW279174  13.294   0.617   7.577
59093SOL     OW79175  11.251  14.621   3.024
59093SOL    HW179176  11.337  14.655   3.049
59093SOL    HW279177  11.267  14.569   2.945
59094SOL     OW79178  13.388   7.243   6.347
59094SOL    HW179179  13.404   7.306   6.418
59094SOL    HW279180  13.473   7.203   6.331
59095SOL     OW79181   9.625  10.718  10.482
59095SOL    HW179182   9.569  10.796  10.489
59095SOL    HW279183   9.699  10.737  10.539
59096SOL     OW79184   2.276  11.976   0.846
59096SOL    HW179185   2.268  12.050   0.907
59096SOL    HW279186   2.355  11.994   0.796
59097SOL     OW79187  14.807  10.836  10.230
59097SOL    HW179188  14.825  10.773  10.301
59097SOL    HW279189  14.816  10.785  10.150
59098SOL     OW79190   8.262  12.173   7.793
59098SOL    HW179191   8.254  12.204   7.883
59098SOL    HW279192   8.216  12.239   7.741
59099SOL     OW79193   3.027  13.653   5.474
59099SOL    HW179194   3.112  13.642   5.518
59099SOL    HW279195   3.030  13.593   5.400
59100SOL     OW79196   2.194  13.347  13.922
59100SOL    HW179197   2.150  13.262  13.914
59100SOL    HW279198   2.225  13.366  13.834
59101SOL     OW79199  13.062  10.743   2.302
59101SOL    HW179200  13.090  10.776   2.216
59101SOL    HW279201  13.137  10.693   2.334
59102SOL     OW79202  14.479   9.307   2.991
59102SOL    HW179203  14.431   9.385   3.017
59102SOL    HW279204  14.484   9.313   2.896
59103SOL     OW79205   8.691   1.347  12.535
59103SOL    HW179206   8.694   1.339  12.440
59103SOL    HW279207   8.746   1.423  12.554
59104SOL     OW79208   6.681   4.722   8.370
59104SOL    HW179209   6.758   4.763   8.408
59104SOL    HW279210   6.611   4.786   8.382
59105SOL     OW79211   3.983   9.527  12.497
59105SOL    HW179212   3.956   9.544  12.406
59105SOL    HW279213   3.911   9.477  12.534
59106SOL     OW79214   0.783   2.194  14.434
59106SOL    HW179215   0.834   2.259  14.386
59106SOL    HW279216   0.695   2.200  14.398
59107SOL     OW79217   4.395   2.172   2.621
59107SOL    HW179218   4.420   2.168   2.713
59107SOL    HW279219   4.388   2.080   2.594
59108SOL     OW79220   3.713  11.349   7.004
59108SOL    HW179221   3.764  11.424   7.036
59108SOL    HW279222   3.685  11.375   6.916
59109SOL     OW79223   9.558   1.063   7.441
59109SOL    HW179224   9.608   1.058   7.359
59109SOL    HW279225   9.619   1.100   7.504
59110SOL     OW79226  13.168  14.176   8.833
59110SOL    HW179227  13.177  14.202   8.741
59110SOL    HW279228  13.087  14.126   8.835
59111SOL     OW79229   9.809   1.385   1.006
59111SOL    HW179230   9.904   1.382   1.000
59111SOL    HW279231   9.791   1.452   1.073
59112SOL     OW79232   3.939   9.865  14.781
59112SOL    HW179233   4.023   9.892  14.818
59112SOL    HW279234   3.955   9.778  14.746
59113SOL     OW79235  14.473   8.898   1.557
59113SOL    HW179236  14.423   8.852   1.490
59113SOL    HW279237  14.431   8.873   1.639
59114SOL     OW79238  11.610   0.554   2.773
59114SOL    HW179239  11.515   0.562   2.764
59114SOL    HW279240  11.641   0.644   2.778
59115SOL     OW79241   4.151   9.663  13.154
59115SOL    HW179242   4.166   9.745  13.108
59115SOL    HW279243   4.237   9.637  13.187
59116SOL     OW79244  11.767   2.629  12.319
59116SOL    HW179245  11.808   2.620  12.405
59116SOL    HW279246  11.678   2.659  12.338
59117SOL     OW79247   1.193  13.177   1.722
59117SOL    HW179248   1.107  13.218   1.713
59117SOL    HW279249   1.209  13.136   1.637
59118SOL     OW79250   0.975  12.167  11.320
59118SOL    HW179251   0.911  12.231  11.287
59118SOL    HW279252   0.960  12.089  11.268
59119SOL     OW79253   3.469  11.629  11.091
59119SOL    HW179254   3.564  11.634  11.085
59119SOL    HW279255   3.439  11.633  11.000
59120SOL     OW79256   5.932   6.222   4.214
59120SOL    HW179257   5.977   6.275   4.280
59120SOL    HW279258   5.850   6.196   4.256
59121SOL     OW79259   3.052  12.986  11.313
59121SOL    HW179260   3.048  12.918  11.245
59121SOL    HW279261   3.146  12.994  11.332
59122SOL     OW79262   9.030   1.711   4.193
59122SOL    HW179263   9.086   1.690   4.117
59122SOL    HW279264   9.071   1.788   4.231
59123SOL     OW79265  11.869  10.633   1.875
59123SOL    HW179266  11.939  10.627   1.809
59123SOL    HW279267  11.855  10.726   1.887
59124SOL     OW79268   4.072  11.596  14.752
59124SOL    HW179269   4.019  11.645  14.689
59124SOL    HW279270   4.125  11.537  14.699
59125SOL     OW79271  13.231   9.434   5.489
59125SOL    HW179272  13.315   9.428   5.534
59125SOL    HW279273  13.208   9.344   5.468
59126SOL     OW79274   8.919   7.230   2.971
59126SOL    HW179275   8.946   7.152   2.921
59126SOL    HW279276   8.880   7.195   3.051
59127SOL     OW79277   7.112   0.114   7.082
59127SOL    HW179278   7.108   0.209   7.079
59127SOL    HW279279   7.122   0.093   7.175
59128SOL     OW79280   4.940  11.104   6.713
59128SOL    HW179281   4.891  11.136   6.638
59128SOL    HW279282   4.976  11.020   6.684
59129SOL     OW79283   0.737   9.999   7.438
59129SOL    HW179284   0.656   9.960   7.472
59129SOL    HW279285   0.717  10.018   7.346
59130SOL     OW79286   2.612   6.136   0.838
59130SOL    HW179287   2.606   6.224   0.801
59130SOL    HW279288   2.576   6.145   0.927
59131SOL     OW79289   4.199  13.334  12.933
59131SOL    HW179290   4.275  13.305  12.882
59131SOL    HW279291   4.138  13.260  12.930
59132SOL     OW79292  11.060  12.241  11.463
59132SOL    HW179293  11.120  12.195  11.404
59132SOL    HW279294  11.090  12.332  11.461
59133SOL     OW79295   0.792   5.762   0.392
59133SOL    HW179296   0.767   5.813   0.469
59133SOL    HW279297   0.835   5.684   0.426
59134SOL     OW79298   9.898   3.006   1.807
59134SOL    HW179299   9.850   3.008   1.724
59134SOL    HW279300   9.836   3.042   1.871
59135SOL     OW79301  14.477  12.362   2.999
59135SOL    HW179302  14.412  12.419   2.959
59135SOL    HW279303  14.500  12.405   3.081
59136SOL     OW79304   2.711  13.890   9.075
59136SOL    HW179305   2.652  13.933   9.136
59136SOL    HW279306   2.798  13.901   9.114
59137SOL     OW79307   6.634   0.318   3.490
59137SOL    HW179308   6.611   0.384   3.556
59137SOL    HW279309   6.550   0.289   3.455
59138SOL     OW79310  12.954   7.248  11.752
59138SOL    HW179311  12.867   7.213  11.735
59138SOL    HW279312  12.999   7.177  11.799
59139SOL     OW79313   6.884  10.418  10.292
59139SOL    HW179314   6.813  10.475  10.260
59139SOL    HW279315   6.905  10.362  10.217
59140SOL     OW79316  13.075   6.608   2.970
59140SOL    HW179317  13.117   6.672   2.914
59140SOL    HW279318  12.982   6.631   2.967
59141SOL     OW79319   5.151  10.109  10.354
59141SOL    HW179320   5.156  10.025  10.308
59141SOL    HW279321   5.205  10.097  10.433
59142SOL     OW79322   0.049  10.635   9.694
59142SOL    HW179323   0.059  10.543   9.721
59142SOL    HW279324  14.826  10.642   9.666
59143SOL     OW79325  10.922   2.758   1.836
59143SOL    HW179326  10.891   2.747   1.926
59143SOL    HW279327  10.911   2.671   1.796
59144SOL     OW79328  14.493   2.782  10.081
59144SOL    HW179329  14.476   2.740  10.166
59144SOL    HW279330  14.472   2.874  10.096
59145SOL     OW79331   7.917  14.449   8.011
59145SOL    HW179332   8.011  14.431   8.022
59145SOL    HW279333   7.886  14.470   8.099
59146SOL     OW79334   9.338   9.617   4.518
59146SOL    HW179335   9.374   9.666   4.592
59146SOL    HW279336   9.296   9.684   4.463
59147SOL     OW79337  13.691   2.712  10.735
59147SOL    HW179338  13.606   2.750  10.754
59147SOL    HW279339  13.698   2.637  10.793
59148SOL     OW79340   6.816   6.174  14.444
59148SOL    HW179341   6.886   6.114  14.469
59148SOL    HW279342   6.800   6.227  14.523
59149SOL     OW79343   2.213   8.938   9.073
59149SOL    HW179344   2.210   8.976   8.985
59149SOL    HW279345   2.127   8.898   9.085
59150SOL     OW79346  14.716   9.822  14.658
59150SOL    HW179347  14.792   9.877  14.677
59150SOL    HW279348  14.736   9.739  14.700
59151SOL     OW79349   1.959  13.227   3.257
59151SOL    HW179350   1.994  13.193   3.340
59151SOL    HW279351   2.029  13.283   3.223
59152SOL     OW79352  12.838   3.512   0.146
59152SOL    HW179353  12.864   3.499   0.237
59152SOL    HW279354  12.791   3.432   0.123
59153SOL     OW79355   1.929   1.650   1.279
59153SOL    HW179356   1.837   1.635   1.298
59153SOL    HW279357   1.943   1.612   1.192
59154SOL     OW79358   8.459   4.509  12.763
59154SOL    HW179359   8.433   4.464  12.844
59154SOL    HW279360   8.426   4.598  12.774
59155SOL     OW79361  12.637   5.874  10.814
59155SOL    HW179362  12.661   5.916  10.732
59155SOL    HW279363  12.681   5.925  10.882
59156SOL     OW79364   9.859   3.797   4.218
59156SOL    HW179365   9.799   3.741   4.169
59156SOL    HW279366   9.812   3.817   4.299
59157SOL     OW79367   6.224   2.793  11.105
59157SOL    HW179368   6.277   2.787  11.026
59157SOL    HW279369   6.280   2.836  11.169
59158SOL     OW79370   2.064  11.247   0.761
59158SOL    HW179371   2.066  11.331   0.714
59158SOL    HW279372   2.148  11.243   0.806
59159SOL     OW79373  11.434  12.621  11.117
59159SOL    HW179374  11.450  12.536  11.158
59159SOL    HW279375  11.432  12.603  11.023
59160SOL     OW79376   3.316   1.400  10.261
59160SOL    HW179377   3.326   1.346  10.339
59160SOL    HW279378   3.397   1.386  10.212
59161SOL     OW79379  10.406   2.274  14.860
59161SOL    HW179380  10.395   2.355   0.041
59161SOL    HW279381  10.338   2.216   0.026
59162SOL     OW79382   9.164  12.241  11.794
59162SOL    HW179383   9.245  12.205  11.831
59162SOL    HW279384   9.094  12.204  11.847
59163SOL     OW79385  14.045   0.882   1.790
59163SOL    HW179386  14.035   0.966   1.837
59163SOL    HW279387  13.963   0.873   1.741
59164SOL     OW79388   3.540   5.348   3.172
59164SOL    HW179389   3.582   5.413   3.115
59164SOL    HW279390   3.533   5.393   3.257
59165SOL     OW79391   8.908   9.256  10.563
59165SOL    HW179392   8.892   9.163  10.546
59165SOL    HW279393   8.927   9.260  10.657
59166SOL     OW79394   8.099   5.322   7.977
59166SOL    HW179395   8.049   5.403   7.968
59166SOL    HW279396   8.181   5.349   8.017
59167SOL     OW79397   5.521   8.120  11.598
59167SOL    HW179398   5.568   8.189  11.645
59167SOL    HW279399   5.495   8.160  11.515
59168SOL     OW79400   9.865   5.314  12.801
59168SOL    HW179401   9.948   5.265  12.802
59168SOL    HW279402   9.886   5.397  12.843
59169SOL     OW79403   9.766   6.522   4.300
59169SOL    HW179404   9.719   6.462   4.359
59169SOL    HW279405   9.726   6.507   4.214
59170SOL     OW79406   4.153  13.991   0.372
59170SOL    HW179407   4.093  14.008   0.444
59170SOL    HW279408   4.203  14.072   0.361
59171SOL     OW79409  14.058   4.812   7.002
59171SOL    HW179410  14.028   4.882   7.060
59171SOL    HW279411  14.035   4.843   6.914
59172SOL     OW79412   6.154   8.406   6.722
59172SOL    HW179413   6.070   8.367   6.749
59172SOL    HW279414   6.164   8.483   6.778
59173SOL     OW79415   8.905   7.057  13.945
59173SOL    HW179416   8.863   6.984  13.902
59173SOL    HW279417   8.854   7.134  13.919
59174SOL     OW79418   1.206  12.344   7.931
59174SOL    HW179419   1.134  12.309   7.878
59174SOL    HW279420   1.200  12.296   8.014
59175SOL     OW79421   8.688  14.052  10.533
59175SOL    HW179422   8.775  14.029  10.500
59175SOL    HW279423   8.698  14.141  10.568
59176SOL     OW79424   6.389  12.311  11.643
59176SOL    HW179425   6.398  12.405  11.659
59176SOL    HW279426   6.317  12.304  11.580
59177SOL     OW79427   6.885   6.569   2.142
59177SOL    HW179428   6.926   6.656   2.139
59177SOL    HW279429   6.791   6.587   2.133
59178SOL     OW79430   6.567   0.825   0.764
59178SOL    HW179431   6.641   0.837   0.822
59178SOL    HW279432   6.589   0.748   0.711
59179SOL     OW79433  13.478   3.637   9.274
59179SOL    HW179434  13.531   3.675   9.204
59179SOL    HW279435  13.390   3.671   9.259
59180SOL     OW79436  11.191  12.999   2.207
59180SOL    HW179437  11.122  12.988   2.272
59180SOL    HW279438  11.153  12.963   2.126
59181SOL     OW79439  12.137   4.665  10.127
59181SOL    HW179440  12.226   4.632  10.112
59181SOL    HW279441  12.146   4.760  10.119
59182SOL     OW79442   7.720   9.325   8.364
59182SOL    HW179443   7.634   9.285   8.350
59182SOL    HW279444   7.729   9.387   8.291
59183SOL     OW79445   1.723  13.181  13.582
59183SOL    HW179446   1.751  13.264  13.545
59183SOL    HW279447   1.803  13.128  13.586
59184SOL     OW79448   1.202  10.527   7.073
59184SOL    HW179449   1.242  10.559   7.154
59184SOL    HW279450   1.109  10.541   7.085
59185SOL     OW79451   5.196   0.310  13.398
59185SOL    HW179452   5.134   0.240  13.377
59185SOL    HW279453   5.172   0.382  13.340
59186SOL     OW79454   9.558  10.488  14.748
59186SOL    HW179455   9.491  10.555  14.734
59186SOL    HW279456   9.610  10.520  14.822
59187SOL     OW79457   1.226  11.296   6.180
59187SOL    HW179458   1.218  11.328   6.270
59187SOL    HW279459   1.320  11.286   6.165
59188SOL     OW79460   2.326   4.306  10.405
59188SOL    HW179461   2.248   4.328  10.456
59188SOL    HW279462   2.321   4.212  10.391
59189SOL     OW79463   2.550   0.213   8.204
59189SOL    HW179464   2.622   0.258   8.248
59189SOL    HW279465   2.491   0.283   8.176
59190SOL     OW79466  10.509   0.695  11.328
59190SOL    HW179467  10.440   0.734  11.274
59190SOL    HW279468  10.547   0.627  11.273
59191SOL     OW79469   6.135  12.797   4.417
59191SOL    HW179470   6.161  12.889   4.417
59191SOL    HW279471   6.106  12.780   4.327
59192SOL     OW79472   0.429   2.458   5.956
59192SOL    HW179473   0.335   2.447   5.945
59192SOL    HW279474   0.443   2.448   6.050
59193SOL     OW79475   3.172   4.876   9.095
59193SOL    HW179476   3.234   4.925   9.149
59193SOL    HW279477   3.096   4.933   9.087
59194SOL     OW79478   9.777   7.873   5.533
59194SOL    HW179479   9.746   7.963   5.517
59194SOL    HW279480   9.859   7.884   5.581
59195SOL     OW79481   9.651  10.022   0.067
59195SOL    HW179482   9.725  10.010   0.127
59195SOL    HW279483   9.583   9.963   0.099
59196SOL     OW79484  11.756  14.328  10.126
59196SOL    HW179485  11.725  14.416  10.104
59196SOL    HW279486  11.768  14.330  10.221
59197SOL     OW79487  11.205  12.290   5.803
59197SOL    HW179488  11.124  12.262   5.845
59197SOL    HW279489  11.271  12.227   5.833
59198SOL     OW79490   2.445   6.679   4.193
59198SOL    HW179491   2.482   6.755   4.239
59198SOL    HW279492   2.522   6.633   4.159
59199SOL     OW79493  12.086  13.530   0.756
59199SOL    HW179494  12.003  13.553   0.797
59199SOL    HW279495  12.146  13.601   0.781
59200SOL     OW79496  11.851   6.126   6.903
59200SOL    HW179497  11.781   6.135   6.968
59200SOL    HW279498  11.815   6.068   6.836
59201SOL     OW79499  13.364  12.967  12.760
59201SOL    HW179500  13.276  12.946  12.789
59201SOL    HW279501  13.391  12.891  12.708
59202SOL     OW79502   5.555  12.189  10.268
59202SOL    HW179503   5.646  12.174  10.245
59202SOL    HW279504   5.553  12.188  10.364
59203SOL     OW79505  11.368   8.562   6.399
59203SOL    HW179506  11.447   8.611   6.376
59203SOL    HW279507  11.386   8.526   6.485
59204SOL     OW79508   8.843   3.844   9.771
59204SOL    HW179509   8.812   3.839   9.861
59204SOL    HW279510   8.893   3.763   9.759
59205SOL     OW79511   6.412   2.853  12.718
59205SOL    HW179512   6.341   2.793  12.697
59205SOL    HW279513   6.385   2.937  12.681
59206SOL     OW79514  11.451  14.022   2.100
59206SOL    HW179515  11.478  13.942   2.145
59206SOL    HW279516  11.467  14.092   2.163
59207SOL     OW79517   4.882   1.085   5.142
59207SOL    HW179518   4.919   1.108   5.057
59207SOL    HW279519   4.871   0.990   5.139
59208SOL     OW79520   5.820   4.544   2.385
59208SOL    HW179521   5.840   4.485   2.312
59208SOL    HW279522   5.759   4.608   2.348
59209SOL     OW79523   7.713   7.758   3.642
59209SOL    HW179524   7.705   7.689   3.708
59209SOL    HW279525   7.629   7.803   3.644
59210SOL     OW79526   4.478   0.544   8.857
59210SOL    HW179527   4.471   0.638   8.873
59210SOL    HW279528   4.517   0.509   8.937
59211SOL     OW79529  14.848   3.422  12.430
59211SOL    HW179530  14.805   3.338  12.412
59211SOL    HW279531  14.834   3.436  12.523
59212SOL     OW79532  10.274   5.754   6.178
59212SOL    HW179533  10.353   5.714   6.214
59212SOL    HW279534  10.204   5.727   6.237
59213SOL     OW79535   9.674  14.053   9.634
59213SOL    HW179536   9.731  14.057   9.558
59213SOL    HW279537   9.627  14.137   9.633
59214SOL     OW79538   0.127   7.050   9.329
59214SOL    HW179539   0.136   6.975   9.271
59214SOL    HW279540   0.073   7.018   9.401
59215SOL     OW79541  10.993   9.351   5.085
59215SOL    HW179542  11.082   9.379   5.107
59215SOL    HW279543  10.937   9.391   5.151
59216SOL     OW79544   7.379  10.907   9.389
59216SOL    HW179545   7.323  10.830   9.397
59216SOL    HW279546   7.370  10.952   9.473
59217SOL     OW79547   3.964  13.544   8.928
59217SOL    HW179548   4.012  13.554   8.845
59217SOL    HW279549   3.893  13.484   8.907
59218SOL     OW79550  14.036   4.241  11.758
59218SOL    HW179551  14.067   4.297  11.686
59218SOL    HW279552  14.044   4.296  11.835
59219SOL     OW79553   7.599  12.935   6.992
59219SOL    HW179554   7.609  13.026   7.018
59219SOL    HW279555   7.562  12.938   6.904
59220SOL     OW79556  13.425  13.714  14.085
59220SOL    HW179557  13.483  13.641  14.062
59220SOL    HW279558  13.440  13.728  14.178
59221SOL     OW79559   5.001   0.660   6.362
59221SOL    HW179560   5.064   0.729   6.341
59221SOL    HW279561   4.936   0.703   6.418
59222SOL     OW79562  14.711   2.937  10.530
59222SOL    HW179563  14.635   2.894  10.492
59222SOL    HW279564  14.756   2.977  10.455
59223SOL     OW79565  12.977   7.337   6.363
59223SOL    HW179566  13.060   7.291   6.353
59223SOL    HW279567  12.922   7.276   6.413
59224SOL     OW79568   9.945  11.071   5.145
59224SOL    HW179569  10.032  11.071   5.184
59224SOL    HW279570   9.942  10.992   5.091
59225SOL     OW79571  10.155   2.423  13.691
59225SOL    HW179572  10.239   2.418  13.646
59225SOL    HW279573  10.135   2.517  13.693
59226SOL     OW79574  10.336  11.605   7.026
59226SOL    HW179575  10.318  11.551   7.103
59226SOL    HW279576  10.356  11.691   7.061
59227SOL     OW79577   4.604  14.481   2.860
59227SOL    HW179578   4.559  14.549   2.809
59227SOL    HW279579   4.576  14.497   2.950
59228SOL     OW79580   4.230   6.211  11.429
59228SOL    HW179581   4.193   6.246  11.511
59228SOL    HW279582   4.183   6.257  11.360
59229SOL     OW79583   2.286   8.766   6.139
59229SOL    HW179584   2.336   8.733   6.214
59229SOL    HW279585   2.278   8.690   6.081
59230SOL     OW79586   4.384   0.697  10.204
59230SOL    HW179587   4.377   0.626  10.139
59230SOL    HW279588   4.442   0.662  10.271
59231SOL     OW79589   9.162   1.051  12.902
59231SOL    HW179590   9.155   0.973  12.846
59231SOL    HW279591   9.137   1.020  12.989
59232SOL     OW79592   8.744  13.684   5.633
59232SOL    HW179593   8.684  13.651   5.566
59232SOL    HW279594   8.804  13.742   5.586
59233SOL     OW79595   0.844   9.242   1.296
59233SOL    HW179596   0.869   9.272   1.383
59233SOL    HW279597   0.914   9.273   1.239
59234SOL     OW79598   7.465  11.220   7.537
59234SOL    HW179599   7.393  11.249   7.593
59234SOL    HW279600   7.494  11.138   7.577
59235SOL     OW79601   6.277   0.305   1.147
59235SOL    HW179602   6.255   0.230   1.091
59235SOL    HW279603   6.310   0.371   1.086
59236SOL     OW79604   0.817   4.568  13.558
59236SOL    HW179605   0.830   4.554  13.652
59236SOL    HW279606   0.729   4.536  13.541
59237SOL     OW79607   0.329   6.075  13.006
59237SOL    HW179608   0.321   6.110  12.918
59237SOL    HW279609   0.304   5.982  12.998
59238SOL     OW79610  11.166   6.777   7.124
59238SOL    HW179611  11.139   6.821   7.043
59238SOL    HW279612  11.252   6.741   7.104
59239SOL     OW79613  13.272   1.371  13.529
59239SOL    HW179614  13.354   1.352  13.574
59239SOL    HW279615  13.210   1.390  13.599
59240SOL     OW79616   5.029  13.370  11.771
59240SOL    HW179617   5.047  13.284  11.809
59240SOL    HW279618   4.935  13.383  11.783
59241SOL     OW79619   3.072  11.551  13.460
59241SOL    HW179620   3.085  11.522  13.370
59241SOL    HW279621   3.147  11.607  13.479
59242SOL     OW79622   8.828   1.616   7.571
59242SOL    HW179623   8.805   1.543   7.514
59242SOL    HW279624   8.923   1.614   7.578
59243SOL     OW79625   7.341  10.701   8.078
59243SOL    HW179626   7.390  10.729   8.155
59243SOL    HW279627   7.269  10.763   8.071
59244SOL     OW79628  14.474   7.023  14.794
59244SOL    HW179629  14.455   7.049   0.017
59244SOL    HW279630  14.430   6.939  14.783
59245SOL     OW79631   7.887  10.316   6.730
59245SOL    HW179632   7.917  10.297   6.819
59245SOL    HW279633   7.883  10.231   6.687
59246SOL     OW79634   2.593   3.314  11.364
59246SOL    HW179635   2.550   3.359  11.291
59246SOL    HW279636   2.583   3.374  11.438
59247SOL     OW79637   7.354  10.693  12.879
59247SOL    HW179638   7.262  10.679  12.902
59247SOL    HW279639   7.390  10.604  12.873
59248SOL     OW79640  10.485   9.403   2.284
59248SOL    HW179641  10.432   9.357   2.219
59248SOL    HW279642  10.574   9.397   2.250
59249SOL     OW79643   3.428  13.290   0.536
59249SOL    HW179644   3.449  13.332   0.620
59249SOL    HW279645   3.363  13.223   0.559
59250SOL     OW79646  12.206  10.358  12.724
59250SOL    HW179647  12.125  10.405  12.704
59250SOL    HW279648  12.235  10.324  12.639
59251SOL     OW79649   7.012   2.774  10.969
59251SOL    HW179650   7.093   2.821  10.991
59251SOL    HW279651   6.952   2.841  10.937
59252SOL     OW79652  14.576   1.706   8.917
59252SOL    HW179653  14.662   1.736   8.888
59252SOL    HW279654  14.551   1.766   8.987
59253SOL     OW79655  10.681   2.015  10.838
59253SOL    HW179656  10.689   1.926  10.872
59253SOL    HW279657  10.712   2.071  10.909
59254SOL     OW79658   8.051   0.663   7.180
59254SOL    HW179659   7.959   0.638   7.174
59254SOL    HW279660   8.051   0.758   7.165
59255SOL     OW79661   2.488   3.591   5.579
59255SOL    HW179662   2.490   3.499   5.607
59255SOL    HW279663   2.496   3.588   5.484
59256SOL     OW79664   0.850   0.908   5.916
59256SOL    HW179665   0.884   0.858   5.989
59256SOL    HW279666   0.834   0.995   5.951
59257SOL     OW79667   0.389   8.158  11.263
59257SOL    HW179668   0.352   8.134  11.348
59257SOL    HW279669   0.483   8.144  11.272
59258SOL     OW79670   4.508   0.289   6.373
59258SOL    HW179671   4.533   0.197   6.366
59258SOL    HW279672   4.535   0.315   6.461
59259SOL     OW79673  14.469   5.043   8.350
59259SOL    HW179674  14.391   5.070   8.303
59259SOL    HW279675  14.530   5.016   8.282
59260SOL     OW79676   2.416   2.424   2.438
59260SOL    HW179677   2.334   2.433   2.389
59260SOL    HW279678   2.452   2.513   2.440
59261SOL     OW79679  10.012   0.560   8.969
59261SOL    HW179680   9.984   0.650   8.955
59261SOL    HW279681   9.985   0.540   9.059
59262SOL     OW79682   2.401   2.542   3.320
59262SOL    HW179683   2.387   2.625   3.365
59262SOL    HW279684   2.405   2.566   3.227
59263SOL     OW79685   3.500   6.943   0.069
59263SOL    HW179686   3.428   6.881   0.087
59263SOL    HW279687   3.498   7.003   0.143
59264SOL     OW79688   9.552   5.602   1.957
59264SOL    HW179689   9.466   5.573   1.988
59264SOL    HW279690   9.596   5.633   2.036
59265SOL     OW79691  13.372   1.933  12.107
59265SOL    HW179692  13.332   1.896  12.186
59265SOL    HW279693  13.302   1.929  12.042
59266SOL     OW79694   8.147  14.017   3.696
59266SOL    HW179695   8.200  13.959   3.641
59266SOL    HW279696   8.210  14.062   3.751
59267SOL     OW79697  11.571   8.114   2.743
59267SOL    HW179698  11.480   8.145   2.745
59267SOL    HW279699  11.572   8.040   2.805
59268SOL     OW79700   6.939  12.983   9.318
59268SOL    HW179701   6.882  13.056   9.344
59268SOL    HW279702   6.955  12.997   9.225
59269SOL     OW79703   7.581   9.266  11.452
59269SOL    HW179704   7.555   9.342  11.505
59269SOL    HW279705   7.659   9.296  11.405
59270SOL     OW79706   7.976   9.935  11.399
59270SOL    HW179707   7.975   9.859  11.457
59270SOL    HW279708   8.015  10.005  11.452
59271SOL     OW79709  11.305   9.168   0.432
59271SOL    HW179710  11.360   9.220   0.491
59271SOL    HW279711  11.343   9.080   0.434
59272SOL     OW79712  14.056   9.489  13.093
59272SOL    HW179713  14.128   9.466  13.152
59272SOL    HW279714  13.983   9.433  13.122
59273SOL     OW79715   5.330   7.779   4.471
59273SOL    HW179716   5.321   7.695   4.516
59273SOL    HW279717   5.424   7.789   4.457
59274SOL     OW79718   8.785  12.452   7.594
59274SOL    HW179719   8.735  12.460   7.513
59274SOL    HW279720   8.731  12.497   7.660
59275SOL     OW79721  11.150  11.608   8.128
59275SOL    HW179722  11.215  11.564   8.183
59275SOL    HW279723  11.080  11.632   8.189
59276SOL     OW79724  10.096  11.899  10.954
59276SOL    HW179725  10.109  11.953  10.876
59276SOL    HW279726  10.003  11.906  10.973
59277SOL     OW79727   4.216   5.747  11.919
59277SOL    HW179728   4.190   5.663  11.883
59277SOL    HW279729   4.304   5.732  11.954
59278SOL     OW79730   8.194   4.773  11.186
59278SOL    HW179731   8.211   4.866  11.200
59278SOL    HW279732   8.203   4.761  11.092
59279SOL     OW79733   0.980  10.625   8.165
59279SOL    HW179734   1.034  10.571   8.107
59279SOL    HW279735   0.995  10.588   8.252
59280SOL     OW79736  11.702   8.204   8.871
59280SOL    HW179737  11.782   8.160   8.844
59280SOL    HW279738  11.636   8.178   8.806
59281SOL     OW79739   6.981  10.102   7.217
59281SOL    HW179740   6.935  10.158   7.155
59281SOL    HW279741   7.011  10.160   7.286
59282SOL     OW79742   6.605   6.630   5.423
59282SOL    HW179743   6.546   6.639   5.498
59282SOL    HW279744   6.639   6.718   5.409
59283SOL     OW79745  13.495  14.194   2.646
59283SOL    HW179746  13.438  14.212   2.721
59283SOL    HW279747  13.543  14.276   2.633
59284SOL     OW79748   7.322   7.658  11.657
59284SOL    HW179749   7.259   7.712  11.609
59284SOL    HW279750   7.284   7.648  11.744
59285SOL     OW79751   9.163   4.324   3.742
59285SOL    HW179752   9.147   4.234   3.771
59285SOL    HW279753   9.240   4.319   3.686
59286SOL     OW79754  10.287   2.875   4.591
59286SOL    HW179755  10.276   2.912   4.678
59286SOL    HW279756  10.198   2.867   4.556
59287SOL     OW79757   5.678  10.102  13.648
59287SOL    HW179758   5.637  10.100  13.561
59287SOL    HW279759   5.606  10.118  13.708
59288SOL     OW79760   0.752   6.462   9.050
59288SOL    HW179761   0.735   6.537   8.994
59288SOL    HW279762   0.752   6.387   8.990
59289SOL     OW79763   0.708  12.813   8.861
59289SOL    HW179764   0.691  12.783   8.772
59289SOL    HW279765   0.729  12.733   8.910
59290SOL     OW79766   0.517  10.921   7.502
59290SOL    HW179767   0.578  10.911   7.575
59290SOL    HW279768   0.557  10.871   7.430
59291SOL     OW79769   7.061  13.585  12.361
59291SOL    HW179770   7.042  13.510  12.305
59291SOL    HW279771   7.135  13.628  12.319
59292SOL     OW79772   8.557   1.910   1.555
59292SOL    HW179773   8.593   1.999   1.551
59292SOL    HW279774   8.559   1.888   1.648
59293SOL     OW79775  10.217  10.270   5.213
59293SOL    HW179776  10.169  10.332   5.158
59293SOL    HW279777  10.285  10.235   5.156
59294SOL     OW79778  10.028  14.667  10.510
59294SOL    HW179779  10.039  14.715  10.592
59294SOL    HW279780   9.939  14.630  10.516
59295SOL     OW79781   5.090   0.242  14.253
59295SOL    HW179782   5.090   0.320  14.198
59295SOL    HW279783   5.027   0.183  14.210
59296SOL     OW79784   6.332  12.630   3.262
59296SOL    HW179785   6.423  12.640   3.290
59296SOL    HW279786   6.306  12.719   3.236
59297SOL     OW79787   3.864   9.983   3.883
59297SOL    HW179788   3.876   9.935   3.801
59297SOL    HW279789   3.918   9.937   3.946
59298SOL     OW79790   6.993  12.601  12.599
59298SOL    HW179791   7.022  12.619  12.509
59298SOL    HW279792   6.966  12.509  12.597
59299SOL     OW79793   2.879   0.934  10.170
59299SOL    HW179794   2.944   0.961  10.235
59299SOL    HW279795   2.852   0.846  10.198
59300SOL     OW79796  14.175  10.365   0.631
59300SOL    HW179797  14.169  10.388   0.538
59300SOL    HW279798  14.266  10.341   0.644
59301SOL     OW79799  10.359   8.774   8.091
59301SOL    HW179800  10.422   8.727   8.036
59301SOL    HW279801  10.363   8.730   8.176
59302SOL     OW79802   6.383   1.403   1.834
59302SOL    HW179803   6.387   1.421   1.740
59302SOL    HW279804   6.368   1.488   1.874
59303SOL     OW79805   4.661  13.363  12.053
59303SOL    HW179806   4.596  13.433  12.058
59303SOL    HW279807   4.695  13.368  11.964
59304SOL     OW79808   6.402   2.750   6.966
59304SOL    HW179809   6.361   2.718   7.046
59304SOL    HW279810   6.408   2.673   6.909
59305SOL     OW79811   0.805   5.590   7.599
59305SOL    HW179812   0.710   5.582   7.600
59305SOL    HW279813   0.829   5.573   7.507
59306SOL     OW79814   2.832   6.225   3.533
59306SOL    HW179815   2.914   6.212   3.580
59306SOL    HW279816   2.827   6.151   3.473
59307SOL     OW79817   8.452   9.699   2.930
59307SOL    HW179818   8.461   9.707   3.024
59307SOL    HW279819   8.465   9.788   2.897
59308SOL     OW79820   1.530   0.934   7.975
59308SOL    HW179821   1.480   0.944   8.055
59308SOL    HW279822   1.502   0.851   7.938
59309SOL     OW79823   1.623  10.757   9.168
59309SOL    HW179824   1.541  10.726   9.130
59309SOL    HW279825   1.607  10.756   9.263
59310SOL     OW79826   6.302  13.640   3.033
59310SOL    HW179827   6.279  13.728   3.061
59310SOL    HW279828   6.218  13.601   3.007
59311SOL     OW79829   5.112   5.844   8.696
59311SOL    HW179830   5.198   5.867   8.659
59311SOL    HW279831   5.104   5.899   8.774
59312SOL     OW79832   6.200  10.148   4.715
59312SOL    HW179833   6.222  10.087   4.785
59312SOL    HW279834   6.111  10.178   4.735
59313SOL     OW79835  10.139  14.331   4.601
59313SOL    HW179836  10.056  14.300   4.638
59313SOL    HW279837  10.117  14.415   4.561
59314SOL     OW79838   0.450  14.610   2.514
59314SOL    HW179839   0.526  14.659   2.547
59314SOL    HW279840   0.427  14.655   2.433
59315SOL     OW79841  10.381   5.421   6.407
59315SOL    HW179842  10.452   5.370   6.368
59315SOL    HW279843  10.316   5.356   6.432
59316SOL     OW79844   0.832  13.004   2.041
59316SOL    HW179845   0.814  13.089   2.081
59316SOL    HW279846   0.900  13.021   1.976
59317SOL     OW79847  10.958   0.928   6.499
59317SOL    HW179848  10.889   0.980   6.540
59317SOL    HW279849  10.958   0.846   6.548
59318SOL     OW79850  13.734   3.079   8.824
59318SOL    HW179851  13.809   3.132   8.853
59318SOL    HW279852  13.727   3.009   8.888
59319SOL     OW79853   6.861  14.788  11.845
59319SOL    HW179854   6.952  14.819  11.843
59319SOL    HW279855   6.868  14.695  11.822
59320SOL     OW79856  12.317   8.943   1.796
59320SOL    HW179857  12.245   8.920   1.856
59320SOL    HW279858  12.287   9.022   1.752
59321SOL     OW79859  13.170   9.358  10.534
59321SOL    HW179860  13.141   9.387  10.448
59321SOL    HW279861  13.187   9.440  10.582
59322SOL     OW79862   6.956   9.874  14.083
59322SOL    HW179863   7.028   9.859  14.144
59322SOL    HW279864   6.880   9.889  14.139
59323SOL     OW79865  10.487  10.273   0.277
59323SOL    HW179866  10.512  10.207   0.341
59323SOL    HW279867  10.554  10.341   0.284
59324SOL     OW79868   0.367  13.202   9.738
59324SOL    HW179869   0.280  13.163   9.738
59324SOL    HW279870   0.361  13.275   9.676
59325SOL     OW79871  13.269  10.220  13.859
59325SOL    HW179872  13.331  10.198  13.790
59325SOL    HW279873  13.272  10.146  13.919
59326SOL     OW79874   0.133  12.026   8.927
59326SOL    HW179875   0.043  12.014   8.955
59326SOL    HW279876   0.179  12.059   9.004
59327SOL     OW79877   4.860   2.751   9.704
59327SOL    HW179878   4.940   2.794   9.674
59327SOL    HW279879   4.882   2.718   9.791
59328SOL     OW79880  13.894  12.949  12.804
59328SOL    HW179881  13.951  13.021  12.829
59328SOL    HW279882  13.940  12.906  12.732
59329SOL     OW79883  12.942   5.935   6.397
59329SOL    HW179884  13.033   5.949   6.423
59329SOL    HW279885  12.918   5.852   6.439
59330SOL     OW79886   2.429   4.834  12.156
59330SOL    HW179887   2.404   4.829  12.249
59330SOL    HW279888   2.409   4.924  12.131
59331SOL     OW79889   1.369   0.994  11.138
59331SOL    HW179890   1.399   0.977  11.227
59331SOL    HW279891   1.312   1.071  11.146
59332SOL     OW79892   6.740  14.329  11.938
59332SOL    HW179893   6.650  14.326  11.907
59332SOL    HW279894   6.792  14.292  11.866
59333SOL     OW79895  12.964  14.314   6.881
59333SOL    HW179896  13.008  14.261   6.947
59333SOL    HW279897  13.035  14.350   6.829
59334SOL     OW79898  12.231  12.335   1.851
59334SOL    HW179899  12.178  12.257   1.833
59334SOL    HW279900  12.168  12.407   1.849
59335SOL     OW79901   5.182   2.379   6.773
59335SOL    HW179902   5.171   2.472   6.794
59335SOL    HW279903   5.170   2.334   6.857
59336SOL     OW79904   8.767  13.585   6.141
59336SOL    HW179905   8.762  13.676   6.113
59336SOL    HW279906   8.859  13.572   6.165
59337SOL     OW79907   8.812  12.508   9.414
59337SOL    HW179908   8.754  12.461   9.474
59337SOL    HW279909   8.795  12.601   9.431
59338SOL     OW79910   1.889  14.452  10.786
59338SOL    HW179911   1.870  14.492  10.871
59338SOL    HW279912   1.952  14.382  10.806
59339SOL     OW79913   3.810   8.403   1.260
59339SOL    HW179914   3.876   8.357   1.312
59339SOL    HW279915   3.762   8.456   1.324
59340SOL     OW79916   2.677  11.970  13.987
59340SOL    HW179917   2.729  11.892  13.968
59340SOL    HW279918   2.705  11.996  14.075
59341SOL     OW79919   6.599   3.336   2.375
59341SOL    HW179920   6.611   3.290   2.459
59341SOL    HW279921   6.674   3.308   2.322
59342SOL     OW79922  13.078   1.739   8.558
59342SOL    HW179923  13.075   1.745   8.653
59342SOL    HW279924  13.171   1.751   8.537
59343SOL     OW79925   2.319  11.875  12.457
59343SOL    HW179926   2.244  11.909  12.506
59343SOL    HW279927   2.395  11.896  12.511
59344SOL     OW79928   2.362   9.693   9.687
59344SOL    HW179929   2.457   9.684   9.675
59344SOL    HW279930   2.337   9.763   9.627
59345SOL     OW79931   7.585   3.178   8.567
59345SOL    HW179932   7.658   3.132   8.524
59345SOL    HW279933   7.562   3.248   8.506
59346SOL     OW79934   1.910   6.436  11.077
59346SOL    HW179935   1.885   6.484  11.156
59346SOL    HW279936   1.842   6.369  11.067
59347SOL     OW79937   7.791  12.043   2.076
59347SOL    HW179938   7.718  12.072   2.020
59347SOL    HW279939   7.849  11.996   2.016
59348SOL     OW79940   6.737   9.300   6.623
59348SOL    HW179941   6.684   9.288   6.701
59348SOL    HW279942   6.688   9.257   6.553
59349SOL     OW79943  10.998   7.450  13.722
59349SOL    HW179944  10.935   7.382  13.696
59349SOL    HW279945  10.963   7.531  13.683
59350SOL     OW79946   2.014   6.586  10.859
59350SOL    HW179947   1.959   6.541  10.923
59350SOL    HW279948   1.991   6.547  10.775
59351SOL     OW79949   0.052   3.854  11.374
59351SOL    HW179950  14.857   3.864  11.445
59351SOL    HW279951   0.004   3.809  11.305
59352SOL     OW79952  12.126   3.712   8.701
59352SOL    HW179953  12.214   3.683   8.680
59352SOL    HW279954  12.096   3.650   8.768
59353SOL     OW79955  14.082  13.735   9.816
59353SOL    HW179956  14.008  13.713   9.872
59353SOL    HW279957  14.098  13.656   9.765
59354SOL     OW79958  11.874   4.815   0.273
59354SOL    HW179959  11.863   4.725   0.241
59354SOL    HW279960  11.784   4.845   0.289
59355SOL     OW79961  12.005  12.260  14.092
59355SOL    HW179962  12.018  12.258  13.998
59355SOL    HW279963  12.021  12.351  14.117
59356SOL     OW79964  13.460  10.590   0.687
59356SOL    HW179965  13.505  10.521   0.736
59356SOL    HW279966  13.389  10.618   0.744
59357SOL     OW79967   6.936  11.570   4.826
59357SOL    HW179968   6.907  11.580   4.917
59357SOL    HW279969   6.863  11.602   4.773
59358SOL     OW79970   3.589  10.111   8.198
59358SOL    HW179971   3.498  10.115   8.228
59358SOL    HW279972   3.582  10.086   8.105
59359SOL     OW79973   5.759   7.389  11.069
59359SOL    HW179974   5.767   7.457  11.002
59359SOL    HW279975   5.763   7.307  11.019
59360SOL     OW79976   3.635   4.200   0.539
59360SOL    HW179977   3.563   4.236   0.591
59360SOL    HW279978   3.654   4.267   0.474
59361SOL     OW79979   2.472   5.301  14.090
59361SOL    HW179980   2.479   5.384  14.137
59361SOL    HW279981   2.418   5.245  14.146
59362SOL     OW79982   0.492  13.335   4.870
59362SOL    HW179983   0.515  13.276   4.798
59362SOL    HW279984   0.512  13.285   4.949
59363SOL     OW79985   2.745  13.025   0.919
59363SOL    HW179986   2.739  12.950   0.859
59363SOL    HW279987   2.838  13.032   0.940
59364SOL     OW79988   7.574   4.224   5.843
59364SOL    HW179989   7.501   4.208   5.783
59364SOL    HW279990   7.581   4.320   5.847
59365SOL     OW79991   0.463  13.696   0.106
59365SOL    HW179992   0.554  13.724   0.100
59365SOL    HW279993   0.426  13.715   0.020
59366SOL     OW79994   2.084   8.031   6.594
59366SOL    HW179995   2.099   8.050   6.501
59366SOL    HW279996   1.997   7.992   6.597
59367SOL     OW79997   9.793   7.069   0.955
59367SOL    HW179998   9.802   7.162   0.938
59367SOL    HW279999   9.723   7.063   1.019
59368SOL     OW80000  11.298   9.221   8.164
59368SOL    HW180001  11.320   9.223   8.071
59368SOL    HW280002  11.337   9.301   8.199
59369SOL     OW80003   3.152   1.194   9.020
59369SOL    HW180004   3.160   1.207   9.115
59369SOL    HW280005   3.230   1.236   8.984
59370SOL     OW80006   3.676   5.343   8.886
59370SOL    HW180007   3.727   5.279   8.937
59370SOL    HW280008   3.731   5.422   8.885
59371SOL     OW80009   1.488  14.108  10.288
59371SOL    HW180010   1.539  14.079  10.213
59371SOL    HW280011   1.549  14.106  10.361
59372SOL     OW80012   2.145   7.309  14.043
59372SOL    HW180013   2.102   7.223  14.037
59372SOL    HW280014   2.237   7.289  14.060
59373SOL     OW80015   2.699   1.188   1.811
59373SOL    HW180016   2.734   1.155   1.894
59373SOL    HW280017   2.711   1.283   1.816
59374SOL     OW80018   7.447   9.531   2.589
59374SOL    HW180019   7.385   9.534   2.516
59374SOL    HW280020   7.406   9.474   2.654
59375SOL     OW80021  14.510  12.901   4.515
59375SOL    HW180022  14.498  12.816   4.473
59375SOL    HW280023  14.448  12.901   4.587
59376SOL     OW80024  13.574   9.636   1.062
59376SOL    HW180025  13.577   9.616   1.156
59376SOL    HW280026  13.604   9.727   1.057
59377SOL     OW80027   4.287   0.623   2.373
59377SOL    HW180028   4.198   0.587   2.379
59377SOL    HW280029   4.344   0.551   2.401
59378SOL     OW80030   2.664   0.840  14.174
59378SOL    HW180031   2.656   0.926  14.133
59378SOL    HW280032   2.693   0.782  14.103
59379SOL     OW80033  13.399   0.781  14.455
59379SOL    HW180034  13.340   0.853  14.435
59379SOL    HW280035  13.380   0.714  14.389
59380SOL     OW80036   5.844   3.620  12.815
59380SOL    HW180037   5.851   3.623  12.719
59380SOL    HW280038   5.767   3.674  12.834
59381SOL     OW80039  13.942  11.939   1.709
59381SOL    HW180040  13.963  11.894   1.792
59381SOL    HW280041  13.848  11.924   1.698
59382SOL     OW80042   5.760   5.266  10.539
59382SOL    HW180043   5.726   5.350  10.569
59382SOL    HW280044   5.784   5.219  10.619
59383SOL     OW80045   0.951  12.831   7.582
59383SOL    HW180046   0.951  12.901   7.647
59383SOL    HW280047   0.889  12.860   7.515
59384SOL     OW80048   5.830  14.516   8.972
59384SOL    HW180049   5.822  14.604   9.009
59384SOL    HW280050   5.895  14.474   9.028
59385SOL     OW80051  10.158  14.178  13.321
59385SOL    HW180052  10.105  14.250  13.286
59385SOL    HW280053  10.226  14.221  13.373
59386SOL     OW80054  13.966   4.453   3.279
59386SOL    HW180055  13.955   4.400   3.199
59386SOL    HW280056  13.888   4.507   3.283
59387SOL     OW80057   9.288   2.911   0.472
59387SOL    HW180058   9.226   2.917   0.399
59387SOL    HW280059   9.326   2.823   0.464
59388SOL     OW80060   3.547  13.983   5.711
59388SOL    HW180061   3.618  14.005   5.650
59388SOL    HW280062   3.482  13.939   5.657
59389SOL     OW80063   9.647  10.799  13.405
59389SOL    HW180064   9.731  10.784  13.360
59389SOL    HW280065   9.581  10.770  13.342
59390SOL     OW80066  13.043  11.344   0.867
59390SOL    HW180067  13.044  11.249   0.863
59390SOL    HW280068  12.960  11.370   0.827
59391SOL     OW80069   8.879   8.610   1.269
59391SOL    HW180070   8.871   8.529   1.219
59391SOL    HW280071   8.844   8.678   1.210
59392SOL     OW80072  14.744   7.898   3.042
59392SOL    HW180073  14.742   7.874   3.135
59392SOL    HW280074  14.712   7.989   3.040
59393SOL     OW80075  12.006  12.611   8.709
59393SOL    HW180076  12.076  12.666   8.675
59393SOL    HW280077  12.028  12.598   8.802
59394SOL     OW80078   9.803   9.239   5.756
59394SOL    HW180079   9.778   9.307   5.694
59394SOL    HW280080   9.722   9.189   5.770
59395SOL     OW80081   6.200   2.367   5.423
59395SOL    HW180082   6.239   2.422   5.355
59395SOL    HW280083   6.269   2.307   5.448
59396SOL     OW80084   2.759   1.056  10.972
59396SOL    HW180085   2.689   1.049  10.907
59396SOL    HW280086   2.720   1.103  11.046
59397SOL     OW80087  12.446  12.621   0.086
59397SOL    HW180088  12.533  12.580   0.090
59397SOL    HW280089  12.451  12.692   0.150
59398SOL     OW80090   6.325   6.395   2.045
59398SOL    HW180091   6.361   6.382   2.133
59398SOL    HW280092   6.253   6.457   2.057
59399SOL     OW80093   0.649  10.952  10.932
59399SOL    HW180094   0.724  11.002  10.965
59399SOL    HW280095   0.629  10.994  10.848
59400SOL     OW80096   1.431   5.508   5.511
59400SOL    HW180097   1.402   5.585   5.559
59400SOL    HW280098   1.494   5.542   5.447
59401SOL     OW80099  14.517   8.406   7.465
59401SOL    HW180100  14.547   8.331   7.415
59401SOL    HW280101  14.445   8.372   7.519
59402SOL     OW80102  13.843   7.860   7.576
59402SOL    HW180103  13.834   7.950   7.545
59402SOL    HW280104  13.804   7.862   7.664
59403SOL     OW80105  10.614   3.494   6.816
59403SOL    HW180106  10.529   3.537   6.807
59403SOL    HW280107  10.648   3.526   6.900
59404SOL     OW80108   3.718   2.189  10.690
59404SOL    HW180109   3.756   2.267  10.650
59404SOL    HW280110   3.711   2.125  10.619
59405SOL     OW80111  12.354   7.990  10.277
59405SOL    HW180112  12.416   8.046  10.325
59405SOL    HW280113  12.377   7.901  10.303
59406SOL     OW80114   4.845   0.999   2.885
59406SOL    HW180115   4.827   1.093   2.874
59406SOL    HW280116   4.795   0.974   2.963
59407SOL     OW80117   5.408   1.893   8.091
59407SOL    HW180118   5.388   1.805   8.059
59407SOL    HW280119   5.382   1.892   8.183
59408SOL     OW80120   3.379   4.721   9.044
59408SOL    HW180121   3.313   4.790   9.048
59408SOL    HW280122   3.376   4.679   9.130
59409SOL     OW80123  13.178   7.299   3.891
59409SOL    HW180124  13.210   7.384   3.923
59409SOL    HW280125  13.089   7.292   3.925
59410SOL     OW80126   6.825  13.168   6.625
59410SOL    HW180127   6.792  13.240   6.570
59410SOL    HW280128   6.900  13.206   6.671
59411SOL     OW80129   2.397   0.287  13.791
59411SOL    HW180130   2.407   0.243  13.875
59411SOL    HW280131   2.328   0.352  13.807
59412SOL     OW80132   5.551   3.985   4.553
59412SOL    HW180133   5.529   3.947   4.638
59412SOL    HW280134   5.570   3.909   4.497
59413SOL     OW80135   0.751   9.044   3.727
59413SOL    HW180136   0.741   9.128   3.682
59413SOL    HW280137   0.728   9.064   3.818
59414SOL     OW80138   0.573   0.747   7.026
59414SOL    HW180139   0.592   0.653   7.027
59414SOL    HW280140   0.650   0.787   7.067
59415SOL     OW80141  10.980   5.192  14.665
59415SOL    HW180142  11.032   5.120  14.630
59415SOL    HW280143  11.035   5.232  14.732
59416SOL     OW80144   3.803  14.567   2.188
59416SOL    HW180145   3.776  14.659   2.192
59416SOL    HW280146   3.818  14.551   2.095
59417SOL     OW80147   5.083   6.832   5.366
59417SOL    HW180148   5.045   6.917   5.384
59417SOL    HW280149   5.172   6.852   5.335
59418SOL     OW80150   0.844   0.724   7.629
59418SOL    HW180151   0.860   0.632   7.647
59418SOL    HW280152   0.931   0.763   7.625
59419SOL     OW80153  12.718  12.114   4.555
59419SOL    HW180154  12.656  12.120   4.483
59419SOL    HW280155  12.704  12.027   4.592
59420SOL     OW80156  10.437   7.236   0.805
59420SOL    HW180157  10.383   7.292   0.749
59420SOL    HW280158  10.466   7.293   0.876
59421SOL     OW80159  13.737  14.091  14.151
59421SOL    HW180160  13.773  14.015  14.196
59421SOL    HW280161  13.684  14.054  14.080
59422SOL     OW80162   2.473   2.870   5.202
59422SOL    HW180163   2.556   2.885   5.157
59422SOL    HW280164   2.430   2.955   5.204
59423SOL     OW80165   6.587   2.225   1.337
59423SOL    HW180166   6.650   2.175   1.388
59423SOL    HW280167   6.565   2.168   1.263
59424SOL     OW80168   8.728   0.286  13.949
59424SOL    HW180169   8.744   0.309  14.041
59424SOL    HW280170   8.712   0.370  13.906
59425SOL     OW80171   9.479   6.162  12.451
59425SOL    HW180172   9.548   6.105  12.416
59425SOL    HW280173   9.497   6.248  12.414
59426SOL     OW80174   1.643  13.997  11.677
59426SOL    HW180175   1.633  13.904  11.696
59426SOL    HW280176   1.636  14.040  11.762
59427SOL     OW80177  12.556  12.091   6.896
59427SOL    HW180178  12.634  12.069   6.846
59427SOL    HW280179  12.559  12.186   6.906
59428SOL     OW80180   5.992   8.660   8.412
59428SOL    HW180181   5.915   8.696   8.368
59428SOL    HW280182   6.014   8.582   8.362
59429SOL     OW80183   8.155   0.284   4.940
59429SOL    HW180184   8.063   0.257   4.937
59429SOL    HW280185   8.154   0.376   4.914
59430SOL     OW80186   2.198  12.295  11.901
59430SOL    HW180187   2.141  12.248  11.962
59430SOL    HW280188   2.236  12.226  11.846
59431SOL     OW80189   6.227   0.610   9.940
59431SOL    HW180190   6.277   0.583   9.863
59431SOL    HW280191   6.136   0.612   9.910
59432SOL     OW80192  14.842   0.147   1.425
59432SOL    HW180193   0.034   0.194   1.366
59432SOL    HW280194  14.757   0.152   1.382
59433SOL     OW80195   4.798   4.366   9.540
59433SOL    HW180196   4.860   4.328   9.602
59433SOL    HW280197   4.845   4.366   9.456
59434SOL     OW80198   4.384  11.647  12.436
59434SOL    HW180199   4.326  11.678  12.367
59434SOL    HW280200   4.441  11.722  12.456
59435SOL     OW80201  11.016  13.237  12.862
59435SOL    HW180202  10.994  13.274  12.947
59435SOL    HW280203  10.939  13.185  12.838
59436SOL     OW80204   5.153   3.900   3.771
59436SOL    HW180205   5.206   3.851   3.834
59436SOL    HW280206   5.130   3.837   3.703
59437SOL     OW80207   3.305  10.932  14.320
59437SOL    HW180208   3.370  10.951  14.252
59437SOL    HW280209   3.351  10.874  14.381
59438SOL     OW80210  11.702   9.197   2.573
59438SOL    HW180211  11.695   9.292   2.574
59438SOL    HW280212  11.660   9.169   2.654
59439SOL     OW80213   3.241  13.351   8.418
59439SOL    HW180214   3.318  13.317   8.464
59439SOL    HW280215   3.198  13.273   8.383
59440SOL     OW80216   9.665   7.919   7.747
59440SOL    HW180217   9.644   7.917   7.841
59440SOL    HW280218   9.643   7.832   7.716
59441SOL     OW80219   3.928   8.918   0.432
59441SOL    HW180220   3.860   8.904   0.366
59441SOL    HW280221   3.964   8.831   0.447
59442SOL     OW80222   9.421   1.162   1.731
59442SOL    HW180223   9.431   1.250   1.693
59442SOL    HW280224   9.422   1.104   1.655
59443SOL     OW80225   7.788  14.676   5.049
59443SOL    HW180226   7.768  14.618   5.123
59443SOL    HW280227   7.842  14.746   5.087
59444SOL     OW80228  11.638  14.189  14.809
59444SOL    HW180229  11.688  14.171  14.729
59444SOL    HW280230  11.639  14.284  14.817
59445SOL     OW80231   8.530   4.345  13.892
59445SOL    HW180232   8.458   4.290  13.860
59445SOL    HW280233   8.487   4.408  13.950
59446SOL     OW80234   8.998   8.585  11.208
59446SOL    HW180235   9.053   8.656  11.175
59446SOL    HW280236   9.049   8.506  11.191
59447SOL     OW80237   9.789  13.885   8.097
59447SOL    HW180238   9.695  13.880   8.113
59447SOL    HW280239   9.798  13.949   8.026
59448SOL     OW80240   1.153   2.375   3.841
59448SOL    HW180241   1.110   2.459   3.823
59448SOL    HW280242   1.232   2.377   3.788
59449SOL     OW80243   8.819   9.218   2.479
59449SOL    HW180244   8.807   9.301   2.526
59449SOL    HW280245   8.766   9.155   2.527
59450SOL     OW80246   7.589   6.073   5.005
59450SOL    HW180247   7.664   6.098   5.058
59450SOL    HW280248   7.624   6.068   4.916
59451SOL     OW80249  11.883   6.349   7.301
59451SOL    HW180250  11.793   6.374   7.278
59451SOL    HW280251  11.929   6.433   7.312
59452SOL     OW80252  11.787   8.076   6.325
59452SOL    HW180253  11.707   8.064   6.375
59452SOL    HW280254  11.852   8.104   6.390
59453SOL     OW80255  10.144   4.887   7.504
59453SOL    HW180256  10.074   4.870   7.440
59453SOL    HW280257  10.224   4.863   7.457
59454SOL     OW80258   1.017   9.081  12.191
59454SOL    HW180259   1.095   9.028  12.205
59454SOL    HW280260   0.948   9.017  12.171
59455SOL     OW80261  12.192   7.745   7.075
59455SOL    HW180262  12.137   7.763   7.151
59455SOL    HW280263  12.254   7.678   7.105
59456SOL     OW80264   2.321  12.147   6.135
59456SOL    HW180265   2.323  12.178   6.045
59456SOL    HW280266   2.397  12.089   6.142
59457SOL     OW80267   2.094   1.453   9.378
59457SOL    HW180268   2.072   1.363   9.352
59457SOL    HW280269   2.170   1.443   9.435
59458SOL     OW80270  11.785   8.502   3.504
59458SOL    HW180271  11.847   8.429   3.499
59458SOL    HW280272  11.703   8.460   3.531
59459SOL     OW80273   7.959   8.666  12.923
59459SOL    HW180274   8.023   8.624  12.865
59459SOL    HW280275   7.954   8.608  12.999
59460SOL     OW80276  13.847   0.349   5.638
59460SOL    HW180277  13.771   0.343   5.579
59460SOL    HW280278  13.891   0.265   5.629
59461SOL     OW80279   4.688   0.799   0.561
59461SOL    HW180280   4.683   0.737   0.488
59461SOL    HW280281   4.597   0.825   0.576
59462SOL     OW80282  14.830   3.704   8.437
59462SOL    HW180283  14.829   3.690   8.343
59462SOL    HW280284  14.747   3.667   8.468
59463SOL     OW80285   8.594   6.787   5.479
59463SOL    HW180286   8.597   6.868   5.429
59463SOL    HW280287   8.513   6.793   5.529
59464SOL     OW80288   5.550   4.193  14.610
59464SOL    HW180289   5.493   4.258  14.652
59464SOL    HW280290   5.632   4.198  14.659
59465SOL     OW80291   0.836  12.281   4.056
59465SOL    HW180292   0.833  12.320   3.968
59465SOL    HW280293   0.768  12.214   4.054
59466SOL     OW80294  11.906   4.773   5.279
59466SOL    HW180295  11.992   4.733   5.271
59466SOL    HW280296  11.912   4.854   5.229
59467SOL     OW80297   5.776   3.354  13.721
59467SOL    HW180298   5.751   3.285  13.784
59467SOL    HW280299   5.779   3.309  13.637
59468SOL     OW80300   3.576  10.644   0.012
59468SOL    HW180301   3.545  10.554   0.026
59468SOL    HW280302   3.664  10.633  14.844
59469SOL     OW80303  10.611   0.180  13.493
59469SOL    HW180304  10.603   0.244  13.422
59469SOL    HW280305  10.705   0.178  13.512
59470SOL     OW80306   9.883   5.307   8.671
59470SOL    HW180307   9.924   5.241   8.616
59470SOL    HW280308   9.793   5.312   8.639
59471SOL     OW80309  11.683   1.259  11.698
59471SOL    HW180310  11.704   1.341  11.741
59471SOL    HW280311  11.721   1.267  11.610
59472SOL     OW80312   0.608   8.941   3.162
59472SOL    HW180313   0.531   8.886   3.146
59472SOL    HW280314   0.600   8.967   3.254
59473SOL     OW80315   1.493   4.740  10.993
59473SOL    HW180316   1.450   4.706  11.072
59473SOL    HW280317   1.586   4.734  11.011
59474SOL     OW80318   8.226  14.762   2.746
59474SOL    HW180319   8.190  14.695   2.804
59474SOL    HW280320   8.195  14.845   2.783
59475SOL     OW80321  10.306   7.317  10.524
59475SOL    HW180322  10.381   7.284  10.573
59475SOL    HW280323  10.230   7.298  10.579
59476SOL     OW80324   3.544  14.292  10.822
59476SOL    HW180325   3.520  14.361  10.760
59476SOL    HW280326   3.491  14.217  10.795
59477SOL     OW80327   6.767  10.657   4.677
59477SOL    HW180328   6.750  10.593   4.608
59477SOL    HW280329   6.685  10.706   4.684
59478SOL     OW80330   7.604   3.968  11.714
59478SOL    HW180331   7.584   3.989  11.623
59478SOL    HW280332   7.640   4.049  11.750
59479SOL     OW80333   9.716   5.713  12.921
59479SOL    HW180334   9.690   5.790  12.971
59479SOL    HW280335   9.716   5.742  12.830
59480SOL     OW80336   9.753  14.300   6.981
59480SOL    HW180337   9.757  14.394   6.960
59480SOL    HW280338   9.659  14.283   6.994
59481SOL     OW80339  10.854   6.176  11.674
59481SOL    HW180340  10.824   6.256  11.633
59481SOL    HW280341  10.807   6.106  11.629
59482SOL     OW80342   7.373   0.344   9.379
59482SOL    HW180343   7.467   0.352   9.364
59482SOL    HW280344   7.338   0.431   9.360
59483SOL     OW80345   2.737  13.105  14.531
59483SOL    HW180346   2.663  13.160  14.504
59483SOL    HW280347   2.800  13.114  14.460
59484SOL     OW80348  11.516   7.162   8.391
59484SOL    HW180349  11.490   7.169   8.482
59484SOL    HW280350  11.434   7.160   8.342
59485SOL     OW80351   4.983   3.415  13.282
59485SOL    HW180352   4.920   3.480  13.250
59485SOL    HW280353   5.008   3.366  13.203
59486SOL     OW80354   1.845  14.124  13.688
59486SOL    HW180355   1.925  14.109  13.738
59486SOL    HW280356   1.792  14.182  13.743
59487SOL     OW80357   5.068  11.678   6.694
59487SOL    HW180358   5.020  11.646   6.618
59487SOL    HW280359   5.052  11.613   6.763
59488SOL     OW80360   8.520  13.396   2.304
59488SOL    HW180361   8.489  13.487   2.301
59488SOL    HW280362   8.553  13.385   2.393
59489SOL     OW80363   7.637  13.767  11.201
59489SOL    HW180364   7.689  13.812  11.267
59489SOL    HW280365   7.688  13.688  11.181
59490SOL     OW80366   1.104   0.488  10.785
59490SOL    HW180367   1.140   0.446  10.707
59490SOL    HW280368   1.124   0.426  10.856
59491SOL     OW80369   8.291  11.626  10.579
59491SOL    HW180370   8.275  11.590  10.666
59491SOL    HW280371   8.331  11.711  10.594
59492SOL     OW80372  13.675   4.846   8.100
59492SOL    HW180373  13.611   4.909   8.067
59492SOL    HW280374  13.641   4.817   8.184
59493SOL     OW80375   5.135  11.271  14.654
59493SOL    HW180376   5.074  11.233  14.590
59493SOL    HW280377   5.170  11.196  14.701
59494SOL     OW80378   9.622   0.264  14.778
59494SOL    HW180379   9.545   0.270  14.720
59494SOL    HW280380   9.696   0.258  14.718
59495SOL     OW80381   5.835  13.719   4.498
59495SOL    HW180382   5.916  13.680   4.531
59495SOL    HW280383   5.777  13.722   4.574
59496SOL     OW80384   1.401  12.148   1.714
59496SOL    HW180385   1.481  12.095   1.720
59496SOL    HW280386   1.330  12.085   1.720
59497SOL     OW80387   9.862   5.554   1.595
59497SOL    HW180388   9.859   5.646   1.569
59497SOL    HW280389   9.871   5.506   1.512
59498SOL     OW80390  10.137   5.892   9.522
59498SOL    HW180391  10.088   5.896   9.604
59498SOL    HW280392  10.081   5.936   9.459
59499SOL     OW80393  11.303  11.246   6.122
59499SOL    HW180394  11.302  11.337   6.091
59499SOL    HW280395  11.275  11.195   6.047
59500SOL     OW80396   3.461   0.629  10.939
59500SOL    HW180397   3.379   0.656  10.980
59500SOL    HW280398   3.529   0.676  10.988
59501SOL     OW80399  10.533   7.123   6.848
59501SOL    HW180400  10.608   7.078   6.809
59501SOL    HW280401  10.549   7.116   6.943
59502SOL     OW80402   3.481   0.462   3.440
59502SOL    HW180403   3.401   0.490   3.484
59502SOL    HW280404   3.549   0.470   3.507
59503SOL     OW80405  12.426   5.731  10.890
59503SOL    HW180406  12.491   5.798  10.871
59503SOL    HW280407  12.476   5.658  10.926
59504SOL     OW80408   3.924   5.097   9.133
59504SOL    HW180409   3.921   5.024   9.194
59504SOL    HW280410   4.010   5.137   9.147
59505SOL     OW80411  14.664   1.175   4.049
59505SOL    HW180412  14.627   1.087   4.040
59505SOL    HW280413  14.597   1.234   4.015
59506SOL     OW80414   3.435  13.220   8.923
59506SOL    HW180415   3.361  13.267   8.961
59506SOL    HW280416   3.395  13.152   8.869
59507SOL     OW80417  10.899  13.631  10.343
59507SOL    HW180418  10.948  13.562  10.387
59507SOL    HW280419  10.847  13.671  10.412
59508SOL     OW80420   7.659   5.665   8.696
59508SOL    HW180421   7.606   5.585   8.696
59508SOL    HW280422   7.724   5.650   8.627
59509SOL     OW80423   1.081   3.790   3.034
59509SOL    HW180424   1.106   3.843   3.110
59509SOL    HW280425   1.016   3.844   2.988
59510SOL     OW80426   7.442  14.511   0.377
59510SOL    HW180427   7.387  14.572   0.426
59510SOL    HW280428   7.531  14.528   0.408
59511SOL     OW80429   5.607   6.816  12.802
59511SOL    HW180430   5.574   6.786  12.717
59511SOL    HW280431   5.701   6.797  12.799
59512SOL     OW80432  10.534   3.674   1.507
59512SOL    HW180433  10.455   3.639   1.465
59512SOL    HW280434  10.606   3.646   1.450
59513SOL     OW80435   9.241  14.678   9.200
59513SOL    HW180436   9.266  14.771   9.207
59513SOL    HW280437   9.310  14.632   9.249
59514SOL     OW80438   3.110  14.738  10.544
59514SOL    HW180439   3.158  14.665  10.583
59514SOL    HW280440   3.138  14.814  10.595
59515SOL     OW80441  13.020   6.058   7.021
59515SOL    HW180442  13.114   6.040   7.016
59515SOL    HW280443  12.980   5.973   7.040
59516SOL     OW80444  14.551   1.740   1.223
59516SOL    HW180445  14.507   1.667   1.180
59516SOL    HW280446  14.612   1.698   1.284
59517SOL     OW80447  11.908   7.104   0.175
59517SOL    HW180448  11.903   7.034   0.240
59517SOL    HW280449  11.920   7.058   0.092
59518SOL     OW80450   2.840   3.015  12.528
59518SOL    HW180451   2.898   3.076  12.482
59518SOL    HW280452   2.778   2.985  12.462
59519SOL     OW80453   5.127  14.376   3.290
59519SOL    HW180454   5.173  14.340   3.214
59519SOL    HW280455   5.040  14.336   3.287
59520SOL     OW80456  10.954  10.241   9.226
59520SOL    HW180457  10.935  10.334   9.243
59520SOL    HW280458  10.901  10.194   9.291
59521SOL     OW80459   9.097   4.923  11.663
59521SOL    HW180460   9.086   4.918  11.758
59521SOL    HW280461   9.036   4.858  11.628
59522SOL     OW80462   0.936  10.271   7.350
59522SOL    HW180463   0.949  10.353   7.398
59522SOL    HW280464   0.843  10.251   7.361
59523SOL     OW80465  13.901   3.990   3.970
59523SOL    HW180466  13.880   4.040   3.891
59523SOL    HW280467  13.819   3.989   4.020
59524SOL     OW80468  12.130   6.437   9.092
59524SOL    HW180469  12.139   6.421   9.186
59524SOL    HW280470  12.185   6.514   9.076
59525SOL     OW80471  12.710   4.538  10.795
59525SOL    HW180472  12.698   4.629  10.824
59525SOL    HW280473  12.681   4.485  10.869
59526SOL     OW80474   8.188  11.501   4.861
59526SOL    HW180475   8.162  11.452   4.782
59526SOL    HW280476   8.139  11.583   4.855
59527SOL     OW80477   5.404   4.321   4.843
59527SOL    HW180478   5.494   4.314   4.814
59527SOL    HW280479   5.393   4.249   4.906
59528SOL     OW80480  12.978  10.117   3.137
59528SOL    HW180481  13.067  10.083   3.131
59528SOL    HW280482  12.933  10.079   3.061
59529SOL     OW80483  11.522   8.669  10.703
59529SOL    HW180484  11.496   8.674  10.611
59529SOL    HW280485  11.570   8.587  10.710
59530SOL     OW80486  12.137   1.650  11.157
59530SOL    HW180487  12.060   1.633  11.211
59530SOL    HW280488  12.164   1.564  11.124
59531SOL     OW80489   0.326  11.279  14.522
59531SOL    HW180490   0.346  11.336  14.448
59531SOL    HW280491   0.232  11.261  14.513
59532SOL     OW80492   3.886  14.084   2.428
59532SOL    HW180493   3.959  14.025   2.410
59532SOL    HW280494   3.873  14.132   2.346
59533SOL     OW80495   4.733   3.788   1.202
59533SOL    HW180496   4.800   3.751   1.260
59533SOL    HW280497   4.738   3.735   1.123
59534SOL     OW80498  12.544   6.704   7.980
59534SOL    HW180499  12.520   6.644   8.051
59534SOL    HW280500  12.463   6.715   7.930
59535SOL     OW80501   7.947  11.934   0.561
59535SOL    HW180502   7.906  11.894   0.637
59535SOL    HW280503   8.035  11.957   0.591
59536SOL     OW80504   2.296   3.927   0.865
59536SOL    HW180505   2.335   3.882   0.790
59536SOL    HW280506   2.283   4.017   0.834
59537SOL     OW80507  13.551   3.574  12.907
59537SOL    HW180508  13.540   3.480  12.918
59537SOL    HW280509  13.477   3.612  12.955
59538SOL     OW80510   5.141   3.874  10.194
59538SOL    HW180511   5.133   3.848  10.102
59538SOL    HW280512   5.170   3.794  10.239
59539SOL     OW80513   8.244  14.280   3.778
59539SOL    HW180514   8.256  14.313   3.867
59539SOL    HW280515   8.149  14.284   3.764
59540SOL     OW80516   6.253   8.618   4.232
59540SOL    HW180517   6.303   8.543   4.200
59540SOL    HW280518   6.316   8.667   4.285
59541SOL     OW80519   5.156  13.514  11.254
59541SOL    HW180520   5.165  13.475  11.341
59541SOL    HW280521   5.164  13.440  11.194
59542SOL     OW80522  10.834   8.334   8.164
59542SOL    HW180523  10.900   8.363   8.227
59542SOL    HW280524  10.787   8.263   8.209
59543SOL     OW80525   3.037   0.281  13.615
59543SOL    HW180526   3.069   0.300  13.527
59543SOL    HW280527   2.948   0.248  13.602
59544SOL     OW80528   4.048   5.357   4.418
59544SOL    HW180529   4.100   5.303   4.478
59544SOL    HW280530   4.061   5.447   4.450
59545SOL     OW80531  11.826   6.390   3.223
59545SOL    HW180532  11.742   6.417   3.184
59545SOL    HW280533  11.801   6.334   3.296
59546SOL     OW80534   1.723   9.875  10.049
59546SOL    HW180535   1.646   9.824  10.075
59546SOL    HW280536   1.788   9.809  10.024
59547SOL     OW80537   0.739  10.431   5.328
59547SOL    HW180538   0.783  10.490   5.267
59547SOL    HW280539   0.810  10.390   5.377
59548SOL     OW80540  10.318   5.561   1.828
59548SOL    HW180541  10.224   5.543   1.824
59548SOL    HW280542  10.359   5.486   1.786
59549SOL     OW80543   1.003   9.210   7.567
59549SOL    HW180544   1.086   9.214   7.616
59549SOL    HW280545   1.000   9.294   7.521
59550SOL     OW80546  12.077   3.396  10.666
59550SOL    HW180547  12.043   3.337  10.598
59550SOL    HW280548  12.112   3.471  10.618
59551SOL     OW80549   8.583  13.229   0.022
59551SOL    HW180550   8.540  13.314   0.024
59551SOL    HW280551   8.675  13.248   0.009
59552SOL     OW80552   8.879  10.221  10.874
59552SOL    HW180553   8.785  10.229  10.890
59552SOL    HW280554   8.891  10.251  10.784
59553SOL     OW80555   5.825   6.882   2.925
59553SOL    HW180556   5.880   6.922   2.992
59553SOL    HW280557   5.736   6.908   2.948
59554SOL     OW80558   9.205  11.045   6.492
59554SOL    HW180559   9.173  11.004   6.572
59554SOL    HW280560   9.293  11.011   6.480
59555SOL     OW80561   2.051  11.954   4.101
59555SOL    HW180562   2.130  11.948   4.046
59555SOL    HW280563   2.039  11.864   4.133
59556SOL     OW80564  11.839   9.915   6.434
59556SOL    HW180565  11.878   9.840   6.478
59556SOL    HW280566  11.787   9.958   6.502
59557SOL     OW80567   4.037  11.722   1.099
59557SOL    HW180568   4.120  11.678   1.081
59557SOL    HW280569   4.048  11.761   1.185
59558SOL     OW80570  13.370  14.807  10.521
59558SOL    HW180571  13.382  14.816  10.427
59558SOL    HW280572  13.449  14.763  10.552
59559SOL     OW80573   9.480   9.952   6.422
59559SOL    HW180574   9.392   9.931   6.392
59559SOL    HW280575   9.466   9.998   6.505
59560SOL     OW80576   2.867   8.006   6.602
59560SOL    HW180577   2.951   8.003   6.647
59560SOL    HW280578   2.886   7.979   6.512
59561SOL     OW80579  13.633  10.799   7.526
59561SOL    HW180580  13.580  10.869   7.564
59561SOL    HW280581  13.659  10.833   7.439
59562SOL     OW80582   8.893  10.266   8.773
59562SOL    HW180583   8.826  10.206   8.806
59562SOL    HW280584   8.845  10.322   8.711
59563SOL     OW80585  14.028   1.422   1.747
59563SOL    HW180586  14.012   1.384   1.661
59563SOL    HW280587  13.944   1.458   1.774
59564SOL     OW80588   5.712  11.790  11.075
59564SOL    HW180589   5.792  11.791  11.127
59564SOL    HW280590   5.729  11.726  11.005
59565SOL     OW80591   5.073  12.013   5.441
59565SOL    HW180592   5.141  12.007   5.374
59565SOL    HW280593   5.101  11.954   5.510
59566SOL     OW80594   8.246  10.345   6.295
59566SOL    HW180595   8.183  10.327   6.364
59566SOL    HW280596   8.245  10.267   6.240
59567SOL     OW80597   5.108   1.058   2.132
59567SOL    HW180598   5.087   1.105   2.051
59567SOL    HW280599   5.090   0.966   2.111
59568SOL     OW80600   5.239   1.252  10.953
59568SOL    HW180601   5.223   1.346  10.944
59568SOL    HW280602   5.248   1.220  10.864
59569SOL     OW80603  14.483   9.296   8.535
59569SOL    HW180604  14.575   9.304   8.509
59569SOL    HW280605  14.447   9.384   8.524
59570SOL     OW80606   6.649   0.010   4.574
59570SOL    HW180607   6.622  14.787   4.560
59570SOL    HW280608   6.700   0.008   4.655
59571SOL     OW80609   8.751  12.507  13.407
59571SOL    HW180610   8.727  12.478  13.319
59571SOL    HW280611   8.764  12.426  13.456
59572SOL     OW80612   6.212  12.419  11.211
59572SOL    HW180613   6.302  12.393  11.231
59572SOL    HW280614   6.159  12.344  11.235
59573SOL     OW80615   1.976   8.318   4.747
59573SOL    HW180616   2.052   8.376   4.752
59573SOL    HW280617   1.987   8.272   4.663
59574SOL     OW80618   1.856   9.602   4.115
59574SOL    HW180619   1.786   9.545   4.146
59574SOL    HW280620   1.891   9.557   4.038
59575SOL     OW80621   2.848  12.581  13.894
59575SOL    HW180622   2.903  12.610  13.821
59575SOL    HW280623   2.762  12.566  13.854
59576SOL     OW80624  12.005   5.554  11.609
59576SOL    HW180625  11.990   5.513  11.694
59576SOL    HW280626  11.942   5.511  11.551
59577SOL     OW80627   1.928  14.447  10.318
59577SOL    HW180628   1.948  14.506  10.392
59577SOL    HW280629   1.973  14.366  10.339
59578SOL     OW80630   9.550   5.283   2.491
59578SOL    HW180631   9.630   5.293   2.439
59578SOL    HW280632   9.559   5.348   2.560
59579SOL     OW80633  12.500   8.222   9.882
59579SOL    HW180634  12.510   8.259   9.794
59579SOL    HW280635  12.557   8.274   9.937
59580SOL     OW80636   8.048   3.710  12.304
59580SOL    HW180637   7.985   3.660  12.251
59580SOL    HW280638   7.993   3.767  12.358
59581SOL     OW80639   2.663  12.296  13.574
59581SOL    HW180640   2.591  12.255  13.526
59581SOL    HW280641   2.713  12.343  13.507
59582SOL     OW80642   4.597  14.421  13.761
59582SOL    HW180643   4.644  14.503  13.745
59582SOL    HW280644   4.511  14.434  13.722
59583SOL     OW80645  13.421  14.777   5.228
59583SOL    HW180646  13.345  14.815   5.186
59583SOL    HW280647  13.386  14.709   5.286
59584SOL     OW80648   8.282  13.859  13.135
59584SOL    HW180649   8.235  13.781  13.167
59584SOL    HW280650   8.236  13.932  13.175
59585SOL     OW80651   7.645   2.884   7.358
59585SOL    HW180652   7.621   2.793   7.375
59585SOL    HW280653   7.714   2.902   7.422
59586SOL     OW80654  13.587   6.113  10.709
59586SOL    HW180655  13.515   6.062  10.744
59586SOL    HW280656  13.635   6.143  10.786
59587SOL     OW80657   5.215   6.190  10.138
59587SOL    HW180658   5.310   6.185  10.127
59587SOL    HW280659   5.182   6.208  10.050
59588SOL     OW80660   6.353   2.554   4.916
59588SOL    HW180661   6.329   2.461   4.909
59588SOL    HW280662   6.442   2.553   4.952
59589SOL     OW80663   0.168   1.996  11.672
59589SOL    HW180664   0.154   1.949  11.754
59589SOL    HW280665   0.212   1.934  11.615
59590SOL     OW80666   9.488   6.011  14.132
59590SOL    HW180667   9.417   5.951  14.154
59590SOL    HW280668   9.474   6.087  14.188
59591SOL     OW80669   7.810   1.627   0.971
59591SOL    HW180670   7.864   1.680   1.030
59591SOL    HW280671   7.813   1.674   0.888
59592SOL     OW80672   1.290   1.097   6.210
59592SOL    HW180673   1.340   1.142   6.141
59592SOL    HW280674   1.256   1.019   6.167
59593SOL     OW80675   8.473   1.607   8.860
59593SOL    HW180676   8.412   1.555   8.913
59593SOL    HW280677   8.549   1.550   8.850
59594SOL     OW80678   3.079  12.734   6.020
59594SOL    HW180679   3.064  12.642   6.002
59594SOL    HW280680   3.127  12.735   6.103
59595SOL     OW80681   0.250  10.113   4.355
59595SOL    HW180682   0.338  10.093   4.387
59595SOL    HW280683   0.260  10.121   4.260
59596SOL     OW80684  14.642   9.594   4.227
59596SOL    HW180685  14.573   9.619   4.166
59596SOL    HW280686  14.681   9.515   4.189
59597SOL     OW80687  13.245   5.074   4.576
59597SOL    HW180688  13.259   5.009   4.507
59597SOL    HW280689  13.289   5.153   4.543
59598SOL     OW80690   9.674  10.274   6.873
59598SOL    HW180691   9.639  10.228   6.950
59598SOL    HW280692   9.739  10.213   6.837
59599SOL     OW80693  11.336  10.793   4.742
59599SOL    HW180694  11.412  10.816   4.688
59599SOL    HW280695  11.342  10.853   4.817
59600SOL     OW80696   4.135   9.819   8.728
59600SOL    HW180697   4.178   9.790   8.647
59600SOL    HW280698   4.043   9.824   8.705
59601SOL     OW80699   7.009   6.720   5.139
59601SOL    HW180700   6.920   6.687   5.138
59601SOL    HW280701   7.051   6.674   5.212
59602SOL     OW80702   1.182   5.129   7.636
59602SOL    HW180703   1.212   5.110   7.547
59602SOL    HW280704   1.141   5.215   7.630
59603SOL     OW80705   1.179   2.864   1.500
59603SOL    HW180706   1.160   2.903   1.585
59603SOL    HW280707   1.199   2.773   1.519
59604SOL     OW80708   7.308  10.796   9.051
59604SOL    HW180709   7.237  10.783   9.114
59604SOL    HW280710   7.284  10.742   8.976
59605SOL     OW80711  13.656   3.856   5.146
59605SOL    HW180712  13.643   3.785   5.209
59605SOL    HW280713  13.592   3.923   5.172
59606SOL     OW80714   2.936  11.148   3.404
59606SOL    HW180715   3.008  11.173   3.346
59606SOL    HW280716   2.862  11.133   3.345
59607SOL     OW80717   1.734   6.656  12.845
59607SOL    HW180718   1.741   6.583  12.907
59607SOL    HW280719   1.707   6.615  12.763
59608SOL     OW80720   3.012  14.408  10.592
59608SOL    HW180721   2.919  14.423  10.613
59608SOL    HW280722   3.021  14.436  10.501
59609SOL     OW80723   1.420   3.334   6.524
59609SOL    HW180724   1.440   3.240   6.533
59609SOL    HW280725   1.439   3.371   6.610
59610SOL     OW80726   7.212  14.293   5.864
59610SOL    HW180727   7.299  14.312   5.828
59610SOL    HW280728   7.176  14.379   5.886
59611SOL     OW80729   2.982   9.292  11.837
59611SOL    HW180730   3.067   9.249  11.830
59611SOL    HW280731   2.924   9.225  11.875
59612SOL     OW80732   7.611  14.344   1.311
59612SOL    HW180733   7.560  14.273   1.274
59612SOL    HW280734   7.564  14.424   1.287
59613SOL     OW80735  13.941   1.245   7.122
59613SOL    HW180736  13.992   1.204   7.053
59613SOL    HW280737  13.947   1.338   7.104
59614SOL     OW80738   5.402   2.831   0.468
59614SOL    HW180739   5.328   2.840   0.528
59614SOL    HW280740   5.373   2.766   0.404
59615SOL     OW80741   9.016   6.474   0.050
59615SOL    HW180742   8.997   6.557   0.094
59615SOL    HW280743   8.955   6.412   0.089
59616SOL     OW80744   3.479   2.627   1.896
59616SOL    HW180745   3.440   2.676   1.824
59616SOL    HW280746   3.424   2.649   1.972
59617SOL     OW80747   1.012   6.239   2.744
59617SOL    HW180748   1.069   6.163   2.753
59617SOL    HW280749   1.072   6.314   2.745
59618SOL     OW80750  11.055   4.317   0.057
59618SOL    HW180751  11.083   4.405   0.084
59618SOL    HW280752  11.135   4.266   0.051
59619SOL     OW80753  10.799   7.120  14.051
59619SOL    HW180754  10.860   7.100  13.980
59619SOL    HW280755  10.814   7.212  14.070
59620SOL     OW80756   6.737   7.157   3.636
59620SOL    HW180757   6.786   7.226   3.592
59620SOL    HW280758   6.645   7.183   3.625
59621SOL     OW80759  14.714   0.228   9.325
59621SOL    HW180760  14.635   0.256   9.370
59621SOL    HW280761  14.714   0.133   9.332
59622SOL     OW80762   6.347   0.526  10.745
59622SOL    HW180763   6.322   0.447  10.697
59622SOL    HW280764   6.301   0.597  10.699
59623SOL     OW80765  14.213  12.472   4.847
59623SOL    HW180766  14.185  12.381   4.860
59623SOL    HW280767  14.291  12.480   4.901
59624SOL     OW80768   5.628   6.261   2.884
59624SOL    HW180769   5.622   6.334   2.822
59624SOL    HW280770   5.700   6.286   2.943
59625SOL     OW80771  11.602  12.432  11.301
59625SOL    HW180772  11.696  12.415  11.306
59625SOL    HW280773  11.562  12.365  11.358
59626SOL     OW80774  10.847   7.055  13.031
59626SOL    HW180775  10.843   6.971  13.076
59626SOL    HW280776  10.757   7.087  13.030
59627SOL     OW80777   2.156  12.915  12.991
59627SOL    HW180778   2.069  12.909  12.953
59627SOL    HW280779   2.145  12.888  13.082
59628SOL     OW80780  14.070  10.085   8.118
59628SOL    HW180781  14.140  10.021   8.106
59628SOL    HW280782  14.042  10.073   8.209
59629SOL     OW80783  13.634  11.880  14.274
59629SOL    HW180784  13.571  11.930  14.223
59629SOL    HW280785  13.719  11.920  14.254
59630SOL     OW80786  13.990   6.176  13.772
59630SOL    HW180787  13.969   6.267  13.752
59630SOL    HW280788  14.015   6.177  13.865
59631SOL     OW80789   7.044   7.488  11.569
59631SOL    HW180790   7.066   7.465  11.659
59631SOL    HW280791   6.952   7.513  11.571
59632SOL     OW80792  11.109   1.520  13.091
59632SOL    HW180793  11.020   1.498  13.066
59632SOL    HW280794  11.157   1.437  13.086
59633SOL     OW80795   9.079  10.260   4.601
59633SOL    HW180796   8.996  10.226   4.567
59633SOL    HW280797   9.106  10.196   4.667
59634SOL     OW80798   4.065  12.003   3.609
59634SOL    HW180799   4.001  11.960   3.553
59634SOL    HW280800   4.139  12.021   3.552
59635SOL     OW80801   6.261   9.129   5.712
59635SOL    HW180802   6.306   9.189   5.653
59635SOL    HW280803   6.291   9.042   5.686
59636SOL     OW80804   2.363   0.450   5.339
59636SOL    HW180805   2.382   0.367   5.295
59636SOL    HW280806   2.425   0.451   5.413
59637SOL     OW80807  12.311   5.707   8.994
59637SOL    HW180808  12.297   5.651   9.071
59637SOL    HW280809  12.224   5.720   8.957
59638SOL     OW80810   3.771   0.823  12.434
59638SOL    HW180811   3.832   0.875  12.485
59638SOL    HW280812   3.813   0.812  12.349
59639SOL     OW80813  12.794   1.861   1.012
59639SOL    HW180814  12.710   1.884   1.051
59639SOL    HW280815  12.822   1.782   1.060
59640SOL     OW80816   1.411  14.694   3.381
59640SOL    HW180817   1.337  14.647   3.419
59640SOL    HW280818   1.412  14.668   3.289
59641SOL     OW80819   1.310   3.613  14.083
59641SOL    HW180820   1.269   3.562  14.153
59641SOL    HW280821   1.242   3.674  14.054
59642SOL     OW80822   8.174   8.127  14.193
59642SOL    HW180823   8.250   8.159  14.144
59642SOL    HW280824   8.099   8.173  14.155
59643SOL     OW80825   5.440   6.759   9.551
59643SOL    HW180826   5.389   6.830   9.511
59643SOL    HW280827   5.420   6.683   9.497
59644SOL     OW80828  13.640   6.341  13.680
59644SOL    HW180829  13.639   6.246  13.686
59644SOL    HW280830  13.732   6.363  13.660
59645SOL     OW80831   1.015   2.740   9.505
59645SOL    HW180832   0.955   2.775   9.571
59645SOL    HW280833   1.102   2.755   9.542
59646SOL     OW80834   1.930  11.952   4.624
59646SOL    HW180835   1.882  12.034   4.631
59646SOL    HW280836   2.006  11.972   4.570
59647SOL     OW80837   3.777  10.237   0.827
59647SOL    HW180838   3.710  10.256   0.892
59647SOL    HW280839   3.839  10.309   0.833
59648SOL     OW80840   8.286  13.160   2.734
59648SOL    HW180841   8.235  13.149   2.654
59648SOL    HW280842   8.377  13.144   2.707
59649SOL     OW80843   1.674  13.052   0.580
59649SOL    HW180844   1.680  13.083   0.489
59649SOL    HW280845   1.589  13.009   0.585
59650SOL     OW80846  10.516  10.293  10.249
59650SOL    HW180847  10.559  10.377  10.234
59650SOL    HW280848  10.432  10.316  10.290
59651SOL     OW80849   5.074   2.071  13.235
59651SOL    HW180850   5.014   2.133  13.276
59651SOL    HW280851   5.016   2.006  13.194
59652SOL     OW80852   0.736  11.657   4.840
59652SOL    HW180853   0.646  11.635   4.863
59652SOL    HW280854   0.789  11.609   4.903
59653SOL     OW80855  12.631   0.415   2.323
59653SOL    HW180856  12.712   0.457   2.351
59653SOL    HW280857  12.614   0.450   2.236
59654SOL     OW80858   9.800   4.503  10.158
59654SOL    HW180859   9.800   4.449  10.237
59654SOL    HW280860   9.828   4.443  10.089
59655SOL     OW80861  13.078   2.973   6.992
59655SOL    HW180862  13.056   2.895   7.043
59655SOL    HW280863  13.003   3.031   7.001
59656SOL     OW80864   0.259  12.746   0.870
59656SOL    HW180865   0.267  12.817   0.806
59656SOL    HW280866   0.317  12.677   0.836
59657SOL     OW80867  14.720   5.424   9.032
59657SOL    HW180868  14.754   5.338   9.007
59657SOL    HW280869  14.640   5.435   8.979
59658SOL     OW80870   8.397   9.240   7.872
59658SOL    HW180871   8.488   9.246   7.842
59658SOL    HW280872   8.402   9.262   7.965
59659SOL     OW80873  14.139  13.124   1.882
59659SOL    HW180874  14.189  13.078   1.949
59659SOL    HW280875  14.137  13.215   1.912
59660SOL     OW80876   6.956   3.420   0.023
59660SOL    HW180877   7.026   3.440   0.085
59660SOL    HW280878   6.883   3.475   0.050
59661SOL     OW80879  13.991   3.394   4.022
59661SOL    HW180880  13.974   3.460   3.954
59661SOL    HW280881  13.906   3.354   4.037
59662SOL     OW80882  10.370  12.402  10.154
59662SOL    HW180883  10.352  12.309  10.141
59662SOL    HW280884  10.339  12.420  10.243
59663SOL     OW80885   2.751   9.577   0.901
59663SOL    HW180886   2.776   9.631   0.826
59663SOL    HW280887   2.822   9.513   0.909
59664SOL     OW80888  11.433  12.702   9.889
59664SOL    HW180889  11.352  12.703   9.839
59664SOL    HW280890  11.497  12.661   9.830
59665SOL     OW80891   0.810  10.115   4.534
59665SOL    HW180892   0.847  10.202   4.523
59665SOL    HW280893   0.752  10.122   4.610
59666SOL     OW80894   4.725   7.722   2.480
59666SOL    HW180895   4.821   7.725   2.483
59666SOL    HW280896   4.701   7.789   2.416
59667SOL     OW80897  12.280  14.542  14.177
59667SOL    HW180898  12.188  14.521  14.189
59667SOL    HW280899  12.318  14.532  14.265
59668SOL     OW80900  14.402   0.741   9.338
59668SOL    HW180901  14.441   0.775   9.258
59668SOL    HW280902  14.478   0.720   9.394
59669SOL     OW80903   8.309  10.881   3.586
59669SOL    HW180904   8.266  10.795   3.581
59669SOL    HW280905   8.268  10.924   3.661
59670SOL     OW80906  12.879   9.967   3.902
59670SOL    HW180907  12.971   9.970   3.876
59670SOL    HW280908  12.831   9.979   3.821
59671SOL     OW80909   9.281   3.339  13.219
59671SOL    HW180910   9.358   3.354  13.273
59671SOL    HW280911   9.209   3.378  13.269
59672SOL     OW80912   9.482  12.269  10.671
59672SOL    HW180913   9.450  12.216  10.744
59672SOL    HW280914   9.511  12.205  10.606
59673SOL     OW80915  13.553   8.217  13.053
59673SOL    HW180916  13.580   8.201  13.144
59673SOL    HW280917  13.600   8.151  13.003
59674SOL     OW80918   5.829   6.945   1.347
59674SOL    HW180919   5.883   6.870   1.324
59674SOL    HW280920   5.767   6.954   1.275
59675SOL     OW80921   8.419   6.750  12.447
59675SOL    HW180922   8.351   6.734  12.382
59675SOL    HW280923   8.435   6.665  12.487
59676SOL     OW80924  13.772   6.322   9.081
59676SOL    HW180925  13.726   6.322   9.165
59676SOL    HW280926  13.718   6.267   9.024
59677SOL     OW80927   3.687  10.127   7.346
59677SOL    HW180928   3.759  10.105   7.405
59677SOL    HW280929   3.703  10.075   7.267
59678SOL     OW80930   5.334  10.602  10.027
59678SOL    HW180931   5.294  10.685  10.055
59678SOL    HW280932   5.342  10.611   9.932
59679SOL     OW80933   8.166   3.010   9.932
59679SOL    HW180934   8.117   3.005  10.014
59679SOL    HW280935   8.207   3.096   9.935
59680SOL     OW80936  13.987   5.220  14.375
59680SOL    HW180937  14.003   5.314  14.375
59680SOL    HW280938  13.923   5.206  14.445
59681SOL     OW80939   9.349   1.799  14.772
59681SOL    HW180940   9.331   1.875  14.828
59681SOL    HW280941   9.389   1.735  14.830
59682SOL     OW80942   4.767   5.921  10.888
59682SOL    HW180943   4.699   5.882  10.832
59682SOL    HW280944   4.818   5.976  10.828
59683SOL     OW80945  13.892   7.378   9.858
59683SOL    HW180946  13.834   7.438   9.811
59683SOL    HW280947  13.952   7.345   9.792
59684SOL     OW80948  14.632   5.011  11.875
59684SOL    HW180949  14.579   4.995  11.953
59684SOL    HW280950  14.649   5.106  11.876
59685SOL     OW80951  14.023  10.322   2.871
59685SOL    HW180952  14.055  10.239   2.905
59685SOL    HW280953  14.041  10.319   2.777
59686SOL     OW80954   8.946   1.221   1.966
59686SOL    HW180955   9.028   1.252   1.929
59686SOL    HW280956   8.880   1.247   1.902
59687SOL     OW80957   2.251   5.376  13.812
59687SOL    HW180958   2.248   5.465  13.847
59687SOL    HW280959   2.343   5.362  13.789
59688SOL     OW80960   8.609   6.302   6.634
59688SOL    HW180961   8.538   6.360   6.608
59688SOL    HW280962   8.688   6.355   6.623
59689SOL     OW80963   9.286   6.955  10.445
59689SOL    HW180964   9.278   6.862  10.420
59689SOL    HW280965   9.378   6.976  10.428
59690SOL     OW80966   3.198   1.216   0.972
59690SOL    HW180967   3.207   1.286   1.036
59690SOL    HW280968   3.129   1.159   1.006
59691SOL     OW80969  12.048  11.509   2.812
59691SOL    HW180970  12.035  11.428   2.763
59691SOL    HW280971  12.127  11.547   2.774
59692SOL     OW80972  13.733  11.647  14.434
59692SOL    HW180973  13.719  11.688  14.519
59692SOL    HW280974  13.686  11.702  14.372
59693SOL     OW80975   7.781   0.030   6.972
59693SOL    HW180976   7.831   0.057   7.049
59693SOL    HW280977   7.824   0.073   6.898
59694SOL     OW80978   4.387   9.422  14.242
59694SOL    HW180979   4.362   9.510  14.270
59694SOL    HW280980   4.309   9.386  14.201
59695SOL     OW80981   8.936   0.720   3.368
59695SOL    HW180982   8.914   0.637   3.412
59695SOL    HW280983   8.946   0.695   3.276
59696SOL     OW80984  13.918   4.067   9.892
59696SOL    HW180985  13.980   4.013   9.843
59696SOL    HW280986  13.832   4.035   9.865
59697SOL     OW80987   4.040  10.284   6.895
59697SOL    HW180988   3.959  10.325   6.866
59697SOL    HW280989   4.051  10.208   6.839
59698SOL     OW80990   7.440   6.162   3.745
59698SOL    HW180991   7.372   6.230   3.750
59698SOL    HW280992   7.397   6.082   3.775
59699SOL     OW80993   3.307   1.581  12.423
59699SOL    HW180994   3.269   1.584  12.335
59699SOL    HW280995   3.237   1.609  12.481
59700SOL     OW80996  14.044   7.633  14.418
59700SOL    HW180997  14.121   7.677  14.380
59700SOL    HW280998  13.996   7.702  14.463
59701SOL     OW80999   3.601  11.112   1.804
59701SOL    HW181000   3.696  11.103   1.807
59701SOL    HW281001   3.587  11.202   1.775
59702SOL     OW81002  12.246   7.595   4.533
59702SOL    HW181003  12.215   7.523   4.479
59702SOL    HW281004  12.183   7.665   4.519
59703SOL     OW81005   5.123   0.127   6.261
59703SOL    HW181006   5.028   0.137   6.248
59703SOL    HW281007   5.152   0.077   6.185
59704SOL     OW81008   9.840  12.305  14.201
59704SOL    HW181009   9.833  12.212  14.178
59704SOL    HW281010   9.827  12.307  14.296
59705SOL     OW81011   3.112   5.726   8.129
59705SOL    HW181012   3.204   5.700   8.132
59705SOL    HW281013   3.114   5.822   8.136
59706SOL     OW81014   2.535   9.557   9.334
59706SOL    HW181015   2.482   9.523   9.406
59706SOL    HW281016   2.606   9.604   9.376
59707SOL     OW81017  12.425  14.115   0.705
59707SOL    HW181018  12.376  14.034   0.718
59707SOL    HW281019  12.515  14.087   0.693
59708SOL     OW81020   8.431   8.321   4.586
59708SOL    HW181021   8.415   8.280   4.670
59708SOL    HW281022   8.500   8.268   4.546
59709SOL     OW81023   1.991   5.672  13.225
59709SOL    HW181024   1.918   5.730  13.246
59709SOL    HW281025   2.015   5.632  13.309
59710SOL     OW81026   8.411   4.452   4.583
59710SOL    HW181027   8.446   4.437   4.496
59710SOL    HW281028   8.383   4.366   4.614
59711SOL     OW81029   9.903   1.367   6.390
59711SOL    HW181030   9.818   1.410   6.395
59711SOL    HW281031   9.886   1.277   6.417
59712SOL     OW81032   4.022  14.013  13.284
59712SOL    HW181033   4.033  14.000  13.190
59712SOL    HW281034   3.933  13.980  13.302
59713SOL     OW81035  10.701   6.925   5.667
59713SOL    HW181036  10.739   6.841   5.642
59713SOL    HW281037  10.719   6.982   5.592
59714SOL     OW81038   7.800   5.318   0.187
59714SOL    HW181039   7.723   5.265   0.168
59714SOL    HW281040   7.776   5.366   0.267
59715SOL     OW81041   0.027   5.155   7.618
59715SOL    HW181042   0.095   5.115   7.564
59715SOL    HW281043  14.850   5.216   7.559
59716SOL     OW81044   8.110   5.532  10.762
59716SOL    HW181045   8.109   5.625  10.784
59716SOL    HW281046   8.029   5.518  10.713
59717SOL     OW81047   0.130   1.455   2.168
59717SOL    HW181048   0.191   1.518   2.207
59717SOL    HW281049   0.187   1.388   2.129
59718SOL     OW81050  14.400  12.700  11.313
59718SOL    HW181051  14.340  12.733  11.246
59718SOL    HW281052  14.418  12.609  11.286
59719SOL     OW81053   6.797   8.889  14.622
59719SOL    HW181054   6.810   8.796  14.638
59719SOL    HW281055   6.792   8.928  14.710
59720SOL     OW81056   6.958   6.893   2.788
59720SOL    HW181057   6.900   6.817   2.793
59720SOL    HW281058   7.030   6.866   2.732
59721SOL     OW81059   9.199   2.108  10.924
59721SOL    HW181060   9.124   2.163  10.946
59721SOL    HW281061   9.161   2.029  10.885
59722SOL     OW81062   5.285   7.420   1.327
59722SOL    HW181063   5.230   7.448   1.255
59722SOL    HW281064   5.374   7.419   1.291
59723SOL     OW81065  14.340   9.937  12.599
59723SOL    HW181066  14.339   9.948  12.504
59723SOL    HW281067  14.281   9.864  12.615
59724SOL     OW81068   4.997  13.572   7.682
59724SOL    HW181069   5.025  13.636   7.748
59724SOL    HW281070   4.954  13.504   7.733
59725SOL     OW81071  11.460   0.226   7.313
59725SOL    HW181072  11.397   0.190   7.376
59725SOL    HW281073  11.503   0.149   7.276
59726SOL     OW81074   0.989   3.244   8.469
59726SOL    HW181075   0.947   3.160   8.489
59726SOL    HW281076   1.050   3.224   8.397
59727SOL     OW81077  13.025   2.460   1.865
59727SOL    HW181078  12.939   2.424   1.843
59727SOL    HW281079  13.051   2.412   1.944
59728SOL     OW81080   9.452   3.065   5.022
59728SOL    HW181081   9.530   3.107   5.056
59728SOL    HW281082   9.484   2.988   4.975
59729SOL     OW81083  11.636   6.765  11.244
59729SOL    HW181084  11.700   6.711  11.199
59729SOL    HW281085  11.666   6.855  11.229
59730SOL     OW81086   6.750   2.778   3.461
59730SOL    HW181087   6.834   2.736   3.446
59730SOL    HW281088   6.717   2.738   3.542
59731SOL     OW81089   5.118   0.699   0.186
59731SOL    HW181090   5.064   0.637   0.236
59731SOL    HW281091   5.102   0.676   0.095
59732SOL     OW81092   1.793   2.925   0.965
59732SOL    HW181093   1.846   2.950   1.041
59732SOL    HW281094   1.703   2.940   0.993
59733SOL     OW81095  12.167   3.970   4.743
59733SOL    HW181096  12.129   3.897   4.694
59733SOL    HW281097  12.259   3.970   4.717
59734SOL     OW81098  12.437  12.774  13.556
59734SOL    HW181099  12.499  12.718  13.602
59734SOL    HW281100  12.456  12.759  13.463
59735SOL     OW81101  11.546   6.710   1.492
59735SOL    HW181102  11.613   6.712   1.423
59735SOL    HW281103  11.480   6.649   1.459
59736SOL     OW81104  14.026   0.778   6.538
59736SOL    HW181105  14.023   0.704   6.598
59736SOL    HW281106  13.935   0.809   6.533
59737SOL     OW81107   8.675   1.796  12.134
59737SOL    HW181108   8.747   1.736  12.154
59737SOL    HW281109   8.682   1.864  12.201
59738SOL     OW81110  14.479  14.661  12.990
59738SOL    HW181111  14.398  14.704  12.963
59738SOL    HW281112  14.542  14.733  12.998
59739SOL     OW81113  14.745   0.419   9.909
59739SOL    HW181114  14.747   0.484   9.839
59739SOL    HW281115  14.825   0.368   9.898
59740SOL     OW81116   7.705   1.697  11.254
59740SOL    HW181117   7.788   1.745  11.248
59740SOL    HW281118   7.679   1.682  11.164
59741SOL     OW81119   4.567  11.668   4.106
59741SOL    HW181120   4.493  11.679   4.046
59741SOL    HW281121   4.558  11.741   4.167
59742SOL     OW81122   9.859   5.695   2.861
59742SOL    HW181123   9.888   5.619   2.910
59742SOL    HW281124   9.884   5.677   2.771
59743SOL     OW81125   5.833   1.796  13.667
59743SOL    HW181126   5.754   1.850  13.665
59743SOL    HW281127   5.884   1.832  13.740
59744SOL     OW81128  12.900  12.838  13.677
59744SOL    HW181129  12.926  12.771  13.740
59744SOL    HW281130  12.943  12.918  13.708
59745SOL     OW81131  10.970  13.230   5.242
59745SOL    HW181132  10.901  13.223   5.308
59745SOL    HW281133  10.931  13.280   5.171
59746SOL     OW81134  14.266  12.185   3.064
59746SOL    HW181135  14.321  12.261   3.046
59746SOL    HW281136  14.323  12.124   3.111
59747SOL     OW81137   1.389  14.582  12.666
59747SOL    HW181138   1.345  14.656  12.623
59747SOL    HW281139   1.400  14.517  12.597
59748SOL     OW81140  14.729   9.833   0.517
59748SOL    HW181141  14.719   9.928   0.511
59748SOL    HW281142  14.711   9.801   0.429
59749SOL     OW81143   7.430  14.530  11.704
59749SOL    HW181144   7.398  14.454  11.655
59749SOL    HW281145   7.361  14.547  11.768
59750SOL     OW81146  11.752   4.275   4.503
59750SOL    HW181147  11.760   4.350   4.443
59750SOL    HW281148  11.667   4.286   4.545
59751SOL     OW81149   7.754  11.445   1.833
59751SOL    HW181150   7.842  11.439   1.871
59751SOL    HW281151   7.769  11.442   1.738
59752SOL     OW81152  14.592  12.461   0.756
59752SOL    HW181153  14.676  12.492   0.788
59752SOL    HW281154  14.534  12.466   0.832
59753SOL     OW81155  13.085   9.835   5.685
59753SOL    HW181156  13.127   9.834   5.599
59753SOL    HW281157  13.157   9.836   5.748
59754SOL     OW81158  14.303   2.470   5.315
59754SOL    HW181159  14.290   2.525   5.392
59754SOL    HW281160  14.393   2.488   5.287
59755SOL     OW81161  10.535   4.537  10.667
59755SOL    HW181162  10.612   4.581  10.631
59755SOL    HW281163  10.465   4.556  10.604
59756SOL     OW81164   7.188   6.489   5.020
59756SOL    HW181165   7.130   6.437   4.964
59756SOL    HW281166   7.148   6.485   5.107
59757SOL     OW81167  14.380   5.695   1.576
59757SOL    HW181168  14.457   5.748   1.595
59757SOL    HW281169  14.368   5.704   1.482
59758SOL     OW81170   5.145   7.854  10.479
59758SOL    HW181171   5.130   7.773  10.430
59758SOL    HW281172   5.173   7.917  10.413
59759SOL     OW81173   9.429   8.397   4.271
59759SOL    HW181174   9.499   8.460   4.259
59759SOL    HW281175   9.458   8.319   4.224
59760SOL     OW81176  13.736  13.581  10.470
59760SOL    HW181177  13.702  13.506  10.520
59760SOL    HW281178  13.793  13.627  10.532
59761SOL     OW81179   0.495  11.373   3.424
59761SOL    HW181180   0.574  11.399   3.377
59761SOL    HW281181   0.513  11.395   3.515
59762SOL     OW81182  10.008   5.743   9.162
59762SOL    HW181183   9.938   5.693   9.204
59762SOL    HW281184   9.990   5.833   9.187
59763SOL     OW81185   0.405  12.510  13.343
59763SOL    HW181186   0.380  12.461  13.266
59763SOL    HW281187   0.477  12.460  13.382
59764SOL     OW81188  14.266   4.814   4.390
59764SOL    HW181189  14.224   4.738   4.429
59764SOL    HW281190  14.325   4.847   4.457
59765SOL     OW81191   8.433   4.493   0.659
59765SOL    HW181192   8.436   4.545   0.739
59765SOL    HW281193   8.494   4.421   0.675
59766SOL     OW81194   1.242   3.556   4.914
59766SOL    HW181195   1.190   3.482   4.945
59766SOL    HW281196   1.239   3.619   4.986
59767SOL     OW81197   1.507   7.275   5.484
59767SOL    HW181198   1.460   7.299   5.564
59767SOL    HW281199   1.565   7.203   5.511
59768SOL     OW81200  12.189   4.870   6.343
59768SOL    HW181201  12.114   4.840   6.394
59768SOL    HW281202  12.159   4.950   6.301
59769SOL     OW81203  10.975   3.062  14.509
59769SOL    HW181204  10.914   3.028  14.574
59769SOL    HW281205  11.057   3.015  14.525
59770SOL     OW81206   1.470  11.840  10.576
59770SOL    HW181207   1.533  11.780  10.538
59770SOL    HW281208   1.465  11.913  10.514
59771SOL     OW81209   5.406   0.925  14.742
59771SOL    HW181210   5.392   0.904  14.650
59771SOL    HW281211   5.417   1.020  14.743
59772SOL     OW81212   5.213   8.392   6.043
59772SOL    HW181213   5.260   8.347   5.973
59772SOL    HW281214   5.230   8.485   6.027
59773SOL     OW81215   0.587   5.595   0.301
59773SOL    HW181216   0.548   5.626   0.219
59773SOL    HW281217   0.661   5.652   0.316
59774SOL     OW81218   1.686   2.431  10.918
59774SOL    HW181219   1.765   2.438  10.864
59774SOL    HW281220   1.713   2.378  10.993
59775SOL     OW81221  11.433   5.837   6.211
59775SOL    HW181222  11.414   5.840   6.118
59775SOL    HW281223  11.348   5.832   6.254
59776SOL     OW81224   0.184   4.847  13.109
59776SOL    HW181225   0.149   4.820  13.024
59776SOL    HW281226   0.263   4.896  13.088
59777SOL     OW81227   5.631   9.170  12.601
59777SOL    HW181228   5.603   9.079  12.611
59777SOL    HW281229   5.682   9.188  12.681
59778SOL     OW81230   5.472   6.223   0.228
59778SOL    HW181231   5.516   6.307   0.240
59778SOL    HW281232   5.457   6.218   0.133
59779SOL     OW81233   9.102   8.458   0.666
59779SOL    HW181234   9.181   8.492   0.625
59779SOL    HW281235   9.117   8.467   0.760
59780SOL     OW81236   6.417   4.260   0.229
59780SOL    HW181237   6.402   4.247   0.135
59780SOL    HW281238   6.417   4.172   0.266
59781SOL     OW81239  12.485   7.382  13.100
59781SOL    HW181240  12.445   7.467  13.117
59781SOL    HW281241  12.577   7.394  13.124
59782SOL     OW81242   4.311  14.702   3.930
59782SOL    HW181243   4.230  14.722   3.883
59782SOL    HW281244   4.379  14.706   3.862
59783SOL     OW81245   2.838   8.382   1.915
59783SOL    HW181246   2.794   8.297   1.908
59783SOL    HW281247   2.771   8.441   1.950
59784SOL     OW81248  11.840   4.726   5.005
59784SOL    HW181249  11.867   4.689   5.089
59784SOL    HW281250  11.839   4.651   4.946
59785SOL     OW81251  13.653   8.042   5.583
59785SOL    HW181252  13.716   8.031   5.654
59785SOL    HW281253  13.604   7.960   5.582
59786SOL     OW81254   0.949   3.829   8.624
59786SOL    HW181255   0.901   3.753   8.655
59786SOL    HW281256   0.944   3.824   8.529
59787SOL     OW81257   6.673   4.702  12.948
59787SOL    HW181258   6.658   4.784  12.900
59787SOL    HW281259   6.590   4.655  12.941
59788SOL     OW81260   0.317   1.434  10.344
59788SOL    HW181261   0.246   1.455  10.405
59788SOL    HW281262   0.392   1.416  10.401
59789SOL     OW81263   4.103   0.015   5.615
59789SOL    HW181264   4.080  14.826   5.542
59789SOL    HW281265   4.082   0.103   5.585
59790SOL     OW81266  13.939   1.346  12.357
59790SOL    HW181267  13.984   1.265  12.380
59790SOL    HW281268  13.981   1.375  12.276
59791SOL     OW81269   6.906  13.450  11.049
59791SOL    HW181270   6.869  13.538  11.048
59791SOL    HW281271   6.833  13.393  11.075
59792SOL     OW81272  13.024   4.559  12.409
59792SOL    HW181273  13.042   4.621  12.338
59792SOL    HW281274  12.948   4.595  12.454
59793SOL     OW81275  13.091   9.600  12.948
59793SOL    HW181276  13.101   9.577  12.856
59793SOL    HW281277  13.084   9.516  12.993
59794SOL     OW81278   5.719   0.244   9.322
59794SOL    HW181279   5.667   0.313   9.364
59794SOL    HW281280   5.704   0.166   9.376
59795SOL     OW81281  11.390  13.056  11.862
59795SOL    HW181282  11.350  13.077  11.778
59795SOL    HW281283  11.331  13.094  11.927
59796SOL     OW81284   6.181   2.591  12.586
59796SOL    HW181285   6.194   2.670  12.532
59796SOL    HW281286   6.086   2.586  12.597
59797SOL     OW81287   6.339   4.655   2.605
59797SOL    HW181288   6.266   4.618   2.556
59797SOL    HW281289   6.303   4.734   2.647
59798SOL     OW81290   3.921   8.144   8.911
59798SOL    HW181291   3.849   8.136   8.973
59798SOL    HW281292   3.995   8.103   8.955
59799SOL     OW81293   9.507   2.543   8.371
59799SOL    HW181294   9.483   2.635   8.375
59799SOL    HW281295   9.426   2.497   8.349
59800SOL     OW81296   7.735   9.123  12.481
59800SOL    HW181297   7.711   9.199  12.428
59800SOL    HW281298   7.655   9.071  12.485
59801SOL     OW81299   3.423  10.636  11.249
59801SOL    HW181300   3.349  10.653  11.306
59801SOL    HW281301   3.498  10.674  11.294
59802SOL     OW81302   3.664   7.436  11.197
59802SOL    HW181303   3.665   7.483  11.114
59802SOL    HW281304   3.696   7.348  11.175
59803SOL     OW81305   7.279  13.587   6.527
59803SOL    HW181306   7.355  13.555   6.575
59803SOL    HW281307   7.227  13.634   6.592
59804SOL     OW81308  14.687   4.122  12.058
59804SOL    HW181309  14.782   4.113  12.066
59804SOL    HW281310  14.670   4.115  11.964
59805SOL     OW81311   1.351  10.392   6.322
59805SOL    HW181312   1.444  10.401   6.344
59805SOL    HW281313   1.308  10.463   6.369
59806SOL     OW81314   0.497  11.575   4.921
59806SOL    HW181315   0.404  11.562   4.900
59806SOL    HW281316   0.506  11.540   5.010
59807SOL     OW81317   3.504  11.793  10.841
59807SOL    HW181318   3.598  11.811  10.846
59807SOL    HW281319   3.499  11.706  10.801
59808SOL     OW81320   4.981   0.825  11.413
59808SOL    HW181321   5.068   0.801  11.380
59808SOL    HW281322   4.979   0.921  11.405
59809SOL     OW81323  11.217   1.173   6.721
59809SOL    HW181324  11.287   1.161   6.656
59809SOL    HW281325  11.203   1.086   6.758
59810SOL     OW81326   7.195  13.151  13.907
59810SOL    HW181327   7.181  13.200  13.826
59810SOL    HW281328   7.127  13.183  13.966
59811SOL     OW81329   2.939  11.705   6.190
59811SOL    HW181330   3.014  11.731   6.136
59811SOL    HW281331   2.874  11.773   6.175
59812SOL     OW81332   5.719  10.364   2.044
59812SOL    HW181333   5.806  10.389   2.010
59812SOL    HW281334   5.737  10.292   2.105
59813SOL     OW81335   2.445   1.938   3.469
59813SOL    HW181336   2.375   1.926   3.534
59813SOL    HW281337   2.400   1.936   3.385
59814SOL     OW81338  14.654   0.042  13.622
59814SOL    HW181339  14.676   0.080  13.707
59814SOL    HW281340  14.677   0.110  13.558
59815SOL     OW81341   3.295   4.691   5.798
59815SOL    HW181342   3.387   4.693   5.827
59815SOL    HW281343   3.292   4.753   5.725
59816SOL     OW81344   3.383   3.899   1.031
59816SOL    HW181345   3.475   3.882   1.010
59816SOL    HW281346   3.383   3.919   1.124
59817SOL     OW81347   0.106   1.000   3.748
59817SOL    HW181348   0.158   0.926   3.720
59817SOL    HW281349   0.149   1.031   3.828
59818SOL     OW81350  12.225   7.007  12.932
59818SOL    HW181351  12.264   7.090  12.958
59818SOL    HW281352  12.167   7.029  12.859
59819SOL     OW81353   7.197  13.800   2.556
59819SOL    HW181354   7.162  13.718   2.593
59819SOL    HW281355   7.213  13.855   2.633
59820SOL     OW81356   0.002  14.389   1.691
59820SOL    HW181357   0.053  14.438   1.627
59820SOL    HW281358   0.000  14.300   1.658
59821SOL     OW81359   5.539   1.795  13.076
59821SOL    HW181360   5.475   1.754  13.017
59821SOL    HW281361   5.604   1.726  13.091
59822SOL     OW81362  13.973   4.684  12.116
59822SOL    HW181363  13.880   4.666  12.130
59822SOL    HW281364  13.993   4.755  12.177
59823SOL     OW81365  12.104   2.556  14.359
59823SOL    HW181366  12.046   2.500  14.410
59823SOL    HW281367  12.057   2.638  14.349
59824SOL     OW81368   6.988   2.760   1.771
59824SOL    HW181369   7.039   2.822   1.720
59824SOL    HW281370   7.034   2.752   1.855
59825SOL     OW81371  11.282   4.071  11.604
59825SOL    HW181372  11.276   4.104  11.693
59825SOL    HW281373  11.364   4.020  11.602
59826SOL     OW81374   9.487   7.925   8.702
59826SOL    HW181375   9.556   7.882   8.652
59826SOL    HW281376   9.533   7.991   8.754
59827SOL     OW81377   8.015  14.737  10.548
59827SOL    HW181378   8.021  14.684  10.627
59827SOL    HW281379   8.005  14.674  10.477
59828SOL     OW81380  12.856   8.208   7.578
59828SOL    HW181381  12.830   8.122   7.545
59828SOL    HW281382  12.920   8.240   7.515
59829SOL     OW81383   5.032  14.048   8.039
59829SOL    HW181384   5.085  14.105   8.096
59829SOL    HW281385   5.092  13.978   8.014
59830SOL     OW81386  10.285   7.819  13.009
59830SOL    HW181387  10.352   7.843  12.944
59830SOL    HW281388  10.314   7.863  13.089
59831SOL     OW81389   5.823   6.238  10.843
59831SOL    HW181390   5.739   6.282  10.856
59831SOL    HW281391   5.801   6.162  10.789
59832SOL     OW81392   7.942  11.732  12.105
59832SOL    HW181393   7.908  11.645  12.126
59832SOL    HW281394   8.036  11.717  12.088
59833SOL     OW81395  13.788   5.784   5.430
59833SOL    HW181396  13.746   5.858   5.387
59833SOL    HW281397  13.723   5.751   5.491
59834SOL     OW81398  14.537   9.931   3.377
59834SOL    HW181399  14.490   9.923   3.294
59834SOL    HW281400  14.469   9.947   3.442
59835SOL     OW81401   9.193   2.461  14.214
59835SOL    HW181402   9.186   2.497  14.302
59835SOL    HW281403   9.105   2.469  14.178
59836SOL     OW81404  14.188   0.513   5.729
59836SOL    HW181405  14.205   0.603   5.699
59836SOL    HW281406  14.138   0.523   5.810
59837SOL     OW81407  13.480   2.953  12.145
59837SOL    HW181408  13.546   2.913  12.201
59837SOL    HW281409  13.465   3.040  12.184
59838SOL     OW81410   4.310  12.800   8.951
59838SOL    HW181411   4.263  12.853   8.886
59838SOL    HW281412   4.366  12.742   8.899
59839SOL     OW81413   6.243  11.505  12.446
59839SOL    HW181414   6.335  11.495  12.474
59839SOL    HW281415   6.248  11.522  12.352
59840SOL     OW81416  12.042   9.069   0.803
59840SOL    HW181417  12.022   9.137   0.739
59840SOL    HW281418  11.961   9.020   0.812
59841SOL     OW81419   9.062   9.499   4.608
59841SOL    HW181420   9.082   9.530   4.696
59841SOL    HW281421   9.145   9.505   4.561
59842SOL     OW81422  14.417   2.231   7.294
59842SOL    HW181423  14.348   2.168   7.273
59842SOL    HW281424  14.387   2.314   7.258
59843SOL     OW81425   6.230   4.655   2.139
59843SOL    HW181426   6.300   4.625   2.197
59843SOL    HW281427   6.277   4.695   2.065
59844SOL     OW81428   7.811   0.316   0.002
59844SOL    HW181429   7.776   0.293  14.784
59844SOL    HW281430   7.734   0.332   0.056
59845SOL     OW81431   0.469   6.864   1.166
59845SOL    HW181432   0.536   6.818   1.116
59845SOL    HW281433   0.433   6.929   1.105
59846SOL     OW81434   4.433   0.766   1.301
59846SOL    HW181435   4.371   0.749   1.229
59846SOL    HW281436   4.385   0.823   1.360
59847SOL     OW81437   7.123   4.372   6.356
59847SOL    HW181438   7.087   4.286   6.340
59847SOL    HW281439   7.155   4.369   6.447
59848SOL     OW81440   2.117   1.028   1.093
59848SOL    HW181441   2.057   0.954   1.085
59848SOL    HW281442   2.104   1.079   1.013
59849SOL     OW81443   3.607   6.411   0.313
59849SOL    HW181444   3.547   6.485   0.323
59849SOL    HW281445   3.579   6.368   0.231
59850SOL     OW81446  14.610  13.966   6.943
59850SOL    HW181447  14.642  14.056   6.936
59850SOL    HW281448  14.525  13.968   6.898
59851SOL     OW81449   3.250  12.239   6.246
59851SOL    HW181450   3.343  12.260   6.234
59851SOL    HW281451   3.219  12.304   6.310
59852SOL     OW81452   7.032   9.415  11.266
59852SOL    HW181453   6.959   9.367  11.306
59852SOL    HW281454   7.025   9.503  11.304
59853SOL     OW81455  12.636   6.338   9.802
59853SOL    HW181456  12.555   6.368   9.760
59853SOL    HW281457  12.693   6.314   9.729
59854SOL     OW81458  14.145   7.935  11.520
59854SOL    HW181459  14.111   7.977  11.441
59854SOL    HW281460  14.234   7.968  11.528
59855SOL     OW81461  14.631   8.856  10.631
59855SOL    HW181462  14.682   8.819  10.558
59855SOL    HW281463  14.696   8.877  10.698
59856SOL     OW81464  11.787   1.917   0.988
59856SOL    HW181465  11.697   1.947   0.986
59856SOL    HW281466  11.836   1.984   0.939
59857SOL     OW81467   2.402   7.417   8.377
59857SOL    HW181468   2.391   7.512   8.367
59857SOL    HW281469   2.496   7.403   8.375
59858SOL     OW81470  10.508   9.730   5.233
59858SOL    HW181471  10.442   9.799   5.229
59858SOL    HW281472  10.577   9.759   5.173
59859SOL     OW81473   0.122   6.444   0.108
59859SOL    HW181474   0.158   6.391   0.037
59859SOL    HW281475   0.199   6.472   0.158
59860SOL     OW81476   1.353   8.006  10.021
59860SOL    HW181477   1.258   8.010  10.012
59860SOL    HW281478   1.384   8.088   9.982
59861SOL     OW81479  14.350  10.619   6.128
59861SOL    HW181480  14.286  10.630   6.058
59861SOL    HW281481  14.435  10.623   6.084
59862SOL     OW81482   3.501  10.797  11.706
59862SOL    HW181483   3.503  10.878  11.758
59862SOL    HW281484   3.506  10.827  11.615
59863SOL     OW81485   6.477   4.762  10.908
59863SOL    HW181486   6.460   4.807  10.826
59863SOL    HW281487   6.438   4.675  10.898
59864SOL     OW81488   6.175   0.924   4.200
59864SOL    HW181489   6.262   0.942   4.236
59864SOL    HW281490   6.115   0.949   4.271
59865SOL     OW81491  10.241   5.931   5.087
59865SOL    HW181492  10.151   5.914   5.114
59865SOL    HW281493  10.283   5.845   5.090
59866SOL     OW81494  11.097   0.882  14.700
59866SOL    HW181495  11.072   0.832  14.623
59866SOL    HW281496  11.078   0.973  14.676
59867SOL     OW81497  14.391  13.657  11.715
59867SOL    HW181498  14.465  13.671  11.656
59867SOL    HW281499  14.318  13.705  11.674
59868SOL     OW81500   9.170  10.865   2.655
59868SOL    HW181501   9.139  10.889   2.568
59868SOL    HW281502   9.261  10.895   2.657
59869SOL     OW81503   6.176  10.036  12.966
59869SOL    HW181504   6.230  10.018  12.889
59869SOL    HW281505   6.092  10.064  12.930
59870SOL     OW81506   8.316  13.756  11.437
59870SOL    HW181507   8.324  13.807  11.517
59870SOL    HW281508   8.265  13.679  11.463
59871SOL     OW81509   5.005  11.960  10.831
59871SOL    HW181510   4.924  11.961  10.780
59871SOL    HW281511   4.985  12.012  10.909
59872SOL     OW81512   9.284   4.037   7.378
59872SOL    HW181513   9.245   3.988   7.450
59872SOL    HW281514   9.293   3.972   7.308
59873SOL     OW81515  14.068   4.173   3.776
59873SOL    HW181516  13.997   4.208   3.722
59873SOL    HW281517  14.076   4.234   3.849
59874SOL     OW81518   7.253  10.339   9.045
59874SOL    HW181519   7.273  10.346   9.139
59874SOL    HW281520   7.267  10.246   9.025
59875SOL     OW81521   1.137  10.790  11.751
59875SOL    HW181522   1.082  10.716  11.728
59875SOL    HW281523   1.130  10.850  11.677
59876SOL     OW81524   3.460  13.647   9.625
59876SOL    HW181525   3.410  13.635   9.706
59876SOL    HW281526   3.402  13.615   9.557
59877SOL     OW81527   1.886  14.402   9.553
59877SOL    HW181528   1.981  14.399   9.565
59877SOL    HW281529   1.870  14.344   9.478
59878SOL     OW81530  12.636   4.834   5.454
59878SOL    HW181531  12.613   4.744   5.473
59878SOL    HW281532  12.617   4.881   5.535
59879SOL     OW81533  12.060   5.391  11.286
59879SOL    HW181534  12.002   5.322  11.319
59879SOL    HW281535  12.001   5.459  11.253
59880SOL     OW81536   7.658  12.981   1.263
59880SOL    HW181537   7.696  13.029   1.337
59880SOL    HW281538   7.714  12.905   1.253
59881SOL     OW81539  14.039   1.720   4.821
59881SOL    HW181540  13.948   1.718   4.850
59881SOL    HW281541  14.039   1.671   4.739
59882SOL     OW81542   3.583   1.145  14.633
59882SOL    HW181543   3.628   1.200  14.697
59882SOL    HW281544   3.528   1.087  14.685
59883SOL     OW81545  11.213  12.477  14.510
59883SOL    HW181546  11.208  12.385  14.486
59883SOL    HW281547  11.123  12.509  14.503
59884SOL     OW81548   3.771   3.618   8.072
59884SOL    HW181549   3.830   3.685   8.106
59884SOL    HW281550   3.688   3.632   8.119
59885SOL     OW81551  12.359  10.893   5.021
59885SOL    HW181552  12.276  10.936   5.042
59885SOL    HW281553  12.335  10.802   5.000
59886SOL     OW81554  13.589  14.113   1.265
59886SOL    HW181555  13.545  14.060   1.332
59886SOL    HW281556  13.678  14.124   1.298
59887SOL     OW81557   0.040   7.587   9.211
59887SOL    HW181558   0.032   7.654   9.279
59887SOL    HW281559   0.075   7.633   9.135
59888SOL     OW81560   2.481  14.812  11.207
59888SOL    HW181561   2.442  14.788  11.123
59888SOL    HW281562   2.529  14.734  11.234
59889SOL     OW81563  10.548  13.106  10.202
59889SOL    HW181564  10.531  13.118  10.296
59889SOL    HW281565  10.624  13.160  10.184
59890SOL     OW81566   3.851   3.457   4.027
59890SOL    HW181567   3.809   3.526   3.978
59890SOL    HW281568   3.917   3.421   3.968
59891SOL     OW81569  11.306   0.086   3.553
59891SOL    HW181570  11.306   0.071   3.459
59891SOL    HW281571  11.342   0.005   3.590
59892SOL     OW81572   9.933  13.904   7.446
59892SOL    HW181573   9.864  13.850   7.407
59892SOL    HW281574   9.940  13.872   7.536
59893SOL     OW81575  12.707   6.850  11.636
59893SOL    HW181576  12.671   6.856  11.548
59893SOL    HW281577  12.797   6.821  11.624
59894SOL     OW81578  13.297   4.689   3.197
59894SOL    HW181579  13.235   4.689   3.124
59894SOL    HW281580  13.256   4.745   3.263
59895SOL     OW81581   3.966   1.482   4.268
59895SOL    HW181582   3.975   1.423   4.342
59895SOL    HW281583   3.966   1.570   4.307
59896SOL     OW81584   6.194  12.122  12.071
59896SOL    HW181585   6.119  12.158  12.118
59896SOL    HW281586   6.165  12.034  12.044
59897SOL     OW81587  11.025  12.305   3.320
59897SOL    HW181588  11.049  12.398   3.319
59897SOL    HW281589  10.999  12.288   3.410
59898SOL     OW81590   7.197   3.923   8.024
59898SOL    HW181591   7.208   3.961   8.111
59898SOL    HW281592   7.168   3.833   8.040
59899SOL     OW81593   0.833   7.952  11.140
59899SOL    HW181594   0.872   8.028  11.097
59899SOL    HW281595   0.893   7.880  11.121
59900SOL     OW81596  11.310   4.845   8.773
59900SOL    HW181597  11.280   4.754   8.780
59900SOL    HW281598  11.268   4.890   8.846
59901SOL     OW81599  13.608   3.437   3.322
59901SOL    HW181600  13.635   3.348   3.341
59901SOL    HW281601  13.685   3.478   3.283
59902SOL     OW81602   7.740  13.025  11.758
59902SOL    HW181603   7.797  13.094  11.793
59902SOL    HW281604   7.656  13.068  11.743
59903SOL     OW81605   9.502  12.083  10.473
59903SOL    HW181606   9.558  12.061  10.398
59903SOL    HW281607   9.413  12.079  10.438
59904SOL     OW81608   7.476   6.196  12.524
59904SOL    HW181609   7.422   6.252  12.580
59904SOL    HW281610   7.478   6.242  12.440
59905SOL     OW81611   1.898  14.089   3.858
59905SOL    HW181612   1.816  14.044   3.835
59905SOL    HW281613   1.884  14.179   3.829
59906SOL     OW81614   8.136  14.839   8.966
59906SOL    HW181615   8.093  14.759   8.936
59906SOL    HW281616   8.136   0.029   8.889
59907SOL     OW81617   2.305   4.638   6.304
59907SOL    HW181618   2.212   4.616   6.308
59907SOL    HW281619   2.315   4.685   6.222
59908SOL     OW81620   7.229   4.596   6.298
59908SOL    HW181621   7.314   4.557   6.279
59908SOL    HW281622   7.176   4.523   6.330
59909SOL     OW81623  13.287  13.303   8.082
59909SOL    HW181624  13.288  13.306   7.986
59909SOL    HW281625  13.287  13.209   8.103
59910SOL     OW81626   8.288  10.302   5.500
59910SOL    HW181627   8.235  10.223   5.510
59910SOL    HW281628   8.230  10.365   5.456
59911SOL     OW81629   4.809  13.497   8.226
59911SOL    HW181630   4.898  13.480   8.194
59911SOL    HW281631   4.812  13.588   8.256
59912SOL     OW81632  11.797  12.778   8.462
59912SOL    HW181633  11.804  12.806   8.553
59912SOL    HW281634  11.841  12.846   8.412
59913SOL     OW81635   3.613   8.367   0.690
59913SOL    HW181636   3.586   8.318   0.612
59913SOL    HW281637   3.671   8.436   0.656
59914SOL     OW81638   5.162   0.420  13.649
59914SOL    HW181639   5.163   0.373  13.565
59914SOL    HW281640   5.224   0.491  13.637
59915SOL     OW81641   8.248   8.145   0.290
59915SOL    HW181642   8.341   8.124   0.291
59915SOL    HW281643   8.231   8.183   0.377
59916SOL     OW81644   9.589  12.829   4.234
59916SOL    HW181645   9.505  12.854   4.273
59916SOL    HW281646   9.566  12.789   4.150
59917SOL     OW81647   4.775  10.210   1.069
59917SOL    HW181648   4.737  10.224   1.155
59917SOL    HW281649   4.803  10.296   1.040
59918SOL     OW81650  11.210   8.855   5.819
59918SOL    HW181651  11.283   8.855   5.758
59918SOL    HW281652  11.221   8.774   5.869
59919SOL     OW81653  10.224   7.561  11.926
59919SOL    HW181654  10.261   7.554  11.839
59919SOL    HW281655  10.264   7.640  11.964
59920SOL     OW81656   8.599  11.990  12.638
59920SOL    HW181657   8.506  11.989  12.617
59920SOL    HW281658   8.614  12.078  12.673
59921SOL     OW81659   0.132  11.483   6.468
59921SOL    HW181660   0.165  11.395   6.453
59921SOL    HW281661   0.061  11.473   6.531
59922SOL     OW81662   8.110   5.934   3.477
59922SOL    HW181663   8.024   5.913   3.512
59922SOL    HW281664   8.171   5.880   3.527
59923SOL     OW81665  10.767   4.482  13.842
59923SOL    HW181666  10.790   4.575  13.840
59923SOL    HW281667  10.726   4.470  13.927
59924SOL     OW81668   0.874   0.299   8.087
59924SOL    HW181669   0.903   0.390   8.095
59924SOL    HW281670   0.877   0.265   8.176
59925SOL     OW81671   9.396   4.820   8.455
59925SOL    HW181672   9.440   4.767   8.390
59925SOL    HW281673   9.362   4.758   8.519
59926SOL     OW81674  10.169   5.040   0.980
59926SOL    HW181675  10.082   4.999   0.983
59926SOL    HW281676  10.208   5.005   0.900
59927SOL     OW81677   5.267   8.816  14.809
59927SOL    HW181678   5.179   8.781  14.822
59927SOL    HW281679   5.253   8.905  14.776
59928SOL     OW81680  11.802   8.038   1.024
59928SOL    HW181681  11.844   8.035   0.938
59928SOL    HW281682  11.861   8.091   1.077
59929SOL     OW81683  10.970   4.274   6.373
59929SOL    HW181684  11.031   4.296   6.303
59929SOL    HW281685  11.017   4.293   6.454
59930SOL     OW81686  10.160   8.113   4.986
59930SOL    HW181687  10.190   8.162   4.909
59930SOL    HW281688  10.145   8.180   5.053
59931SOL     OW81689   5.001   4.152  12.058
59931SOL    HW181690   5.055   4.091  12.006
59931SOL    HW281691   4.918   4.104  12.071
59932SOL     OW81692   7.136  12.654   2.546
59932SOL    HW181693   7.057  12.604   2.523
59932SOL    HW281694   7.181  12.599   2.609
59933SOL     OW81695  14.537  10.101  11.783
59933SOL    HW181696  14.531  10.183  11.734
59933SOL    HW281697  14.564  10.036  11.717
59934SOL     OW81698  14.777  11.323  11.370
59934SOL    HW181699  14.721  11.255  11.409
59934SOL    HW281700  14.794  11.291  11.281
59935SOL     OW81701   5.018  13.490   7.057
59935SOL    HW181702   5.016  13.473   6.963
59935SOL    HW281703   5.069  13.418   7.094
59936SOL     OW81704   8.473   7.730   4.362
59936SOL    HW181705   8.437   7.649   4.399
59936SOL    HW281706   8.417   7.748   4.286
59937SOL     OW81707   9.632  12.153   9.781
59937SOL    HW181708   9.609  12.129   9.870
59937SOL    HW281709   9.683  12.079   9.748
59938SOL     OW81710   9.717   6.745   2.234
59938SOL    HW181711   9.805   6.773   2.258
59938SOL    HW281712   9.666   6.754   2.314
59939SOL     OW81713  14.439  12.438  11.788
59939SOL    HW181714  14.450  12.499  11.715
59939SOL    HW281715  14.345  12.438  11.804
59940SOL     OW81716  11.514  12.004   0.348
59940SOL    HW181717  11.524  11.981   0.440
59940SOL    HW281718  11.419  12.008   0.335
59941SOL     OW81719   0.048   5.481  10.621
59941SOL    HW181720  14.854   5.476  10.549
59941SOL    HW281721   0.021   5.410  10.681
59942SOL     OW81722   6.082   3.434  10.928
59942SOL    HW181723   6.176   3.446  10.917
59942SOL    HW281724   6.051   3.409  10.840
59943SOL     OW81725   0.813  12.246   5.991
59943SOL    HW181726   0.868  12.181   6.036
59943SOL    HW281727   0.823  12.225   5.898
59944SOL     OW81728   2.636   9.676   2.507
59944SOL    HW181729   2.693   9.717   2.442
59944SOL    HW281730   2.575   9.623   2.455
59945SOL     OW81731   7.472   6.587   6.910
59945SOL    HW181732   7.534   6.608   6.981
59945SOL    HW281733   7.389   6.571   6.955
59946SOL     OW81734   5.639   7.691   3.774
59946SOL    HW181735   5.549   7.692   3.805
59946SOL    HW281736   5.682   7.762   3.821
59947SOL     OW81737   8.482   2.801   9.271
59947SOL    HW181738   8.531   2.777   9.349
59947SOL    HW281739   8.507   2.736   9.206
59948SOL     OW81740  14.017   2.285  14.552
59948SOL    HW181741  14.007   2.343  14.627
59948SOL    HW281742  13.943   2.308  14.494
59949SOL     OW81743   0.858   9.939   8.792
59949SOL    HW181744   0.825   9.954   8.881
59949SOL    HW281745   0.855  10.025   8.751
59950SOL     OW81746  13.805   1.924  14.073
59950SOL    HW181747  13.891   1.923  14.114
59950SOL    HW281748  13.820   1.960  13.986
59951SOL     OW81749  13.003  10.495   8.431
59951SOL    HW181750  13.030  10.448   8.509
59951SOL    HW281751  12.985  10.427   8.366
59952SOL     OW81752   8.294  10.929   6.249
59952SOL    HW181753   8.212  10.945   6.297
59952SOL    HW281754   8.362  10.929   6.317
59953SOL     OW81755  14.413   8.368   7.969
59953SOL    HW181756  14.432   8.304   7.901
59953SOL    HW281757  14.354   8.322   8.029
59954SOL     OW81758   3.461  12.111  12.436
59954SOL    HW181759   3.375  12.082  12.467
59954SOL    HW281760   3.523  12.067  12.495
59955SOL     OW81761  13.266   4.203   5.041
59955SOL    HW181762  13.223   4.128   4.999
59955SOL    HW281763  13.282   4.264   4.969
59956SOL     OW81764  13.441   4.539   9.060
59956SOL    HW181765  13.513   4.601   9.076
59956SOL    HW281766  13.362   4.592   9.068
59957SOL     OW81767   7.655  11.625  13.500
59957SOL    HW181768   7.702  11.670  13.569
59957SOL    HW281769   7.670  11.678  13.422
59958SOL     OW81770  13.786   9.454   5.619
59958SOL    HW181771  13.765   9.400   5.542
59958SOL    HW281772  13.874   9.488   5.601
59959SOL     OW81773  12.548   4.501  14.816
59959SOL    HW181774  12.582   4.498  14.727
59959SOL    HW281775  12.468   4.553  14.811
59960SOL     OW81776   0.692  11.074   2.763
59960SOL    HW181777   0.762  11.138   2.772
59960SOL    HW281778   0.630  11.114   2.703
59961SOL     OW81779   2.376   4.250   4.157
59961SOL    HW181780   2.449   4.282   4.211
59961SOL    HW281781   2.403   4.266   4.067
59962SOL     OW81782   0.721   2.069  13.286
59962SOL    HW181783   0.656   2.004  13.261
59962SOL    HW281784   0.805   2.030  13.262
59963SOL     OW81785   8.334   3.495  13.784
59963SOL    HW181786   8.311   3.403  13.773
59963SOL    HW281787   8.427   3.494  13.805
59964SOL     OW81788   4.567   7.704   2.704
59964SOL    HW181789   4.617   7.759   2.764
59964SOL    HW281790   4.620   7.700   2.624
59965SOL     OW81791  12.917   8.123  12.724
59965SOL    HW181792  12.927   8.193  12.659
59965SOL    HW281793  13.002   8.120  12.768
59966SOL     OW81794   8.079   5.677   6.015
59966SOL    HW181795   7.991   5.680   5.976
59966SOL    HW281796   8.090   5.763   6.056
59967SOL     OW81797  14.557   1.952  14.450
59967SOL    HW181798  14.588   1.863  14.432
59967SOL    HW281799  14.632   1.996  14.490
59968SOL     OW81800   0.405   1.363   9.169
59968SOL    HW181801   0.430   1.383   9.260
59968SOL    HW281802   0.485   1.327   9.130
59969SOL     OW81803  11.256   1.540  10.118
59969SOL    HW181804  11.194   1.467  10.123
59969SOL    HW281805  11.258   1.576  10.207
59970SOL     OW81806   5.997  13.914   2.431
59970SOL    HW181807   5.985  13.917   2.336
59970SOL    HW281808   5.917  13.872   2.464
59971SOL     OW81809   5.298  12.541   6.003
59971SOL    HW181810   5.309  12.585   6.087
59971SOL    HW281811   5.349  12.460   6.012
59972SOL     OW81812   3.282   4.888   7.241
59972SOL    HW181813   3.252   4.817   7.185
59972SOL    HW281814   3.234   4.877   7.323
59973SOL     OW81815   6.093   9.244   2.342
59973SOL    HW181816   6.019   9.247   2.281
59973SOL    HW281817   6.105   9.150   2.359
59974SOL     OW81818   2.909   1.317   7.607
59974SOL    HW181819   2.918   1.380   7.679
59974SOL    HW281820   2.833   1.264   7.631
59975SOL     OW81821   8.496  12.437   5.254
59975SOL    HW181822   8.467  12.476   5.337
59975SOL    HW281823   8.459  12.348   5.256
59976SOL     OW81824   0.120   2.638   5.425
59976SOL    HW181825   0.052   2.578   5.457
59976SOL    HW281826   0.177   2.653   5.500
59977SOL     OW81827   5.027   9.489  13.615
59977SOL    HW181828   4.952   9.526  13.662
59977SOL    HW281829   5.093   9.558  13.617
59978SOL     OW81830   0.511  13.545   8.310
59978SOL    HW181831   0.580  13.489   8.273
59978SOL    HW281832   0.518  13.531   8.405
59979SOL     OW81833   5.304   4.341  14.093
59979SOL    HW181834   5.226   4.383  14.130
59979SOL    HW281835   5.300   4.251  14.126
59980SOL     OW81836   1.168  10.194   7.590
59980SOL    HW181837   1.144  10.208   7.498
59980SOL    HW281838   1.090  10.156   7.630
59981SOL     OW81839   8.263  14.798   4.853
59981SOL    HW181840   8.238  14.726   4.795
59981SOL    HW281841   8.267   0.007   4.796
59982SOL     OW81842   7.021   8.913   0.851
59982SOL    HW181843   7.096   8.888   0.797
59982SOL    HW281844   7.052   8.903   0.941
59983SOL     OW81845   6.137   8.707  14.835
59983SOL    HW181846   6.196   8.690   0.040
59983SOL    HW281847   6.186   8.766  14.777
59984SOL     OW81848   6.636   4.263   9.353
59984SOL    HW181849   6.613   4.252   9.261
59984SOL    HW281850   6.554   4.248   9.400
59985SOL     OW81851   8.265   1.003   1.482
59985SOL    HW181852   8.327   0.980   1.551
59985SOL    HW281853   8.315   1.059   1.423
59986SOL     OW81854  13.982  13.881   2.473
59986SOL    HW181855  13.920  13.924   2.533
59986SOL    HW281856  13.974  13.788   2.495
59987SOL     OW81857  14.741   1.410  10.016
59987SOL    HW181858  14.770   1.319  10.008
59987SOL    HW281859  14.708   1.433   9.929
59988SOL     OW81860  13.799   1.409   5.186
59988SOL    HW181861  13.733   1.470   5.220
59988SOL    HW281862  13.787   1.329   5.237
59989SOL     OW81863   8.143  10.455   9.546
59989SOL    HW181864   8.096  10.390   9.597
59989SOL    HW281865   8.230  10.458   9.586
59990SOL     OW81866   5.403  12.800  12.963
59990SOL    HW181867   5.473  12.798  12.897
59990SOL    HW281868   5.404  12.713  13.002
59991SOL     OW81869   4.305  10.717   7.086
59991SOL    HW181870   4.262  10.706   7.002
59991SOL    HW281871   4.374  10.782   7.070
59992SOL     OW81872   6.355   2.112   8.091
59992SOL    HW181873   6.332   2.203   8.076
59992SOL    HW281874   6.435   2.115   8.144
59993SOL     OW81875   3.182   7.665  10.442
59993SOL    HW181876   3.165   7.589  10.497
59993SOL    HW281877   3.167   7.635  10.353
59994SOL     OW81878  10.562   1.833   1.658
59994SOL    HW181879  10.631   1.898   1.675
59994SOL    HW281880  10.573   1.811   1.566
59995SOL     OW81881   3.877  12.252   5.709
59995SOL    HW181882   3.965  12.275   5.738
59995SOL    HW281883   3.869  12.292   5.623
59996SOL     OW81884   7.038  14.778  14.734
59996SOL    HW181885   7.090  14.714  14.783
59996SOL    HW281886   6.952  14.775  14.774
59997SOL     OW81887  11.646   1.136   9.452
59997SOL    HW181888  11.703   1.126   9.528
59997SOL    HW281889  11.562   1.164   9.488
59998SOL     OW81890  14.103   3.793   5.490
59998SOL    HW181891  14.139   3.755   5.570
59998SOL    HW281892  14.012   3.810   5.510
59999SOL     OW81893   1.190   9.855   6.435
59999SOL    HW181894   1.218   9.795   6.366
59999SOL    HW281895   1.121   9.808   6.482
60000SOL     OW81896   0.663   4.077   5.806
60000SOL    HW181897   0.675   3.982   5.803
60000SOL    HW281898   0.568   4.089   5.806
60001SOL     OW81899   0.141   3.457  10.716
60001SOL    HW181900   0.060   3.418  10.749
60001SOL    HW281901   0.201   3.383  10.706
60002SOL     OW81902  13.782   0.642  13.303
60002SOL    HW181903  13.869   0.673  13.329
60002SOL    HW281904  13.774   0.666  13.211
60003SOL     OW81905   9.056   4.757   3.812
60003SOL    HW181906   9.118   4.819   3.774
60003SOL    HW281907   9.007   4.723   3.737
60004SOL     OW81908   2.441   8.296  11.646
60004SOL    HW181909   2.488   8.371  11.610
60004SOL    HW281910   2.428   8.318  11.738
60005SOL     OW81911  13.269   2.955   3.906
60005SOL    HW181912  13.306   3.041   3.925
60005SOL    HW281913  13.344   2.902   3.881
60006SOL     OW81914   8.815   8.688  13.449
60006SOL    HW181915   8.786   8.767  13.403
60006SOL    HW281916   8.910   8.692  13.446
60007SOL     OW81917  11.906   2.358  13.061
60007SOL    HW181918  11.860   2.441  13.078
60007SOL    HW281919  11.891   2.341  12.968
60008SOL     OW81920   3.568  10.862   1.300
60008SOL    HW181921   3.628  10.916   1.250
60008SOL    HW281922   3.559  10.906   1.385
60009SOL     OW81923  12.410   4.267   5.387
60009SOL    HW181924  12.488   4.219   5.358
60009SOL    HW281925  12.430   4.358   5.367
60010SOL     OW81926   4.523   9.105   9.173
60010SOL    HW181927   4.614   9.132   9.178
60010SOL    HW281928   4.517   9.054   9.092
60011SOL     OW81929   1.246   0.829   7.291
60011SOL    HW181930   1.272   0.797   7.377
60011SOL    HW281931   1.151   0.833   7.295
60012SOL     OW81932   1.829   1.660  11.965
60012SOL    HW181933   1.901   1.699  12.013
60012SOL    HW281934   1.790   1.732  11.916
60013SOL     OW81935   2.715  10.890  13.554
60013SOL    HW181936   2.642  10.951  13.554
60013SOL    HW281937   2.789  10.940  13.587
60014SOL     OW81938   1.932   9.666   0.116
60014SOL    HW181939   1.875   9.629   0.048
60014SOL    HW281940   2.021   9.650   0.084
60015SOL     OW81941   7.377   9.497   8.655
60015SOL    HW181942   7.425   9.420   8.686
60015SOL    HW281943   7.437   9.541   8.595
60016SOL     OW81944   7.068   2.685   4.841
60016SOL    HW181945   7.004   2.667   4.772
60016SOL    HW281946   7.095   2.775   4.826
60017SOL     OW81947   4.002   3.300   1.037
60017SOL    HW181948   4.012   3.219   0.987
60017SOL    HW281949   4.002   3.369   0.971
60018SOL     OW81950   5.678   1.584   5.644
60018SOL    HW181951   5.672   1.657   5.705
60018SOL    HW281952   5.588   1.566   5.618
60019SOL     OW81953   2.012   4.345  11.892
60019SOL    HW181954   2.071   4.368  11.964
60019SOL    HW281955   2.063   4.362  11.813
60020SOL     OW81956   7.725   1.653   5.276
60020SOL    HW181957   7.786   1.650   5.350
60020SOL    HW281958   7.774   1.618   5.202
60021SOL     OW81959  14.419   2.938   1.346
60021SOL    HW181960  14.444   2.984   1.266
60021SOL    HW281961  14.499   2.935   1.399
60022SOL     OW81962   5.866   2.566   1.272
60022SOL    HW181963   5.851   2.522   1.355
60022SOL    HW281964   5.802   2.527   1.212
60023SOL     OW81965   8.772  12.944  10.069
60023SOL    HW181966   8.846  12.886  10.089
60023SOL    HW281967   8.738  12.970  10.154
60024SOL     OW81968   8.571   8.939   8.807
60024SOL    HW181969   8.540   9.028   8.822
60024SOL    HW281970   8.526   8.910   8.727
60025SOL     OW81971  12.413   9.562  10.068
60025SOL    HW181972  12.367   9.521   9.995
60025SOL    HW281973  12.462   9.634  10.028
60026SOL     OW81974  13.245  13.518  13.987
60026SOL    HW181975  13.159  13.562  13.988
60026SOL    HW281976  13.307  13.587  14.008
60027SOL     OW81977   1.326   2.197  12.855
60027SOL    HW181978   1.376   2.277  12.869
60027SOL    HW281979   1.265   2.193  12.928
60028SOL     OW81980   2.848  13.096  13.841
60028SOL    HW181981   2.944  13.098  13.838
60028SOL    HW281982   2.826  13.003  13.831
60029SOL     OW81983   1.770  14.252  13.954
60029SOL    HW181984   1.853  14.283  13.991
60029SOL    HW281985   1.708  14.260  14.027
60030SOL     OW81986   9.224   0.357   8.213
60030SOL    HW181987   9.292   0.366   8.146
60030SOL    HW281988   9.169   0.284   8.183
60031SOL     OW81989   9.039  12.231   0.004
60031SOL    HW181990   9.019  12.137   0.005
60031SOL    HW281991   9.083  12.248   0.087
60032SOL     OW81992  13.660  11.204  12.177
60032SOL    HW181993  13.722  11.168  12.240
60032SOL    HW281994  13.574  11.189  12.217
60033SOL     OW81995  14.295   1.235   1.918
60033SOL    HW181996  14.215   1.262   1.873
60033SOL    HW281997  14.359   1.303   1.895
60034SOL     OW81998   5.928  12.867   9.977
60034SOL    HW181999   5.917  12.791  10.034
60034SOL    HW282000   5.845  12.913   9.981
60035SOL     OW82001  11.302  11.514   2.776
60035SOL    HW182002  11.236  11.475   2.833
60035SOL    HW282003  11.312  11.603   2.808
60036SOL     OW82004  10.334   8.143   8.074
60036SOL    HW182005  10.256   8.090   8.088
60036SOL    HW282006  10.325   8.216   8.137
60037SOL     OW82007   2.243   7.118   1.685
60037SOL    HW182008   2.318   7.090   1.632
60037SOL    HW282009   2.276   7.193   1.735
60038SOL     OW82010  12.588   4.899   3.669
60038SOL    HW182011  12.510   4.885   3.722
60038SOL    HW282012  12.644   4.956   3.723
60039SOL     OW82013  14.273   6.275   4.640
60039SOL    HW182014  14.332   6.338   4.599
60039SOL    HW282015  14.271   6.301   4.733
60040SOL     OW82016   4.794   2.083  10.303
60040SOL    HW182017   4.772   2.099  10.211
60040SOL    HW282018   4.883   2.115  10.312
60041SOL     OW82019   6.989   9.499   8.497
60041SOL    HW182020   6.918   9.439   8.518
60041SOL    HW282021   6.946   9.573   8.455
60042SOL     OW82022  12.336   9.513  13.622
60042SOL    HW182023  12.360   9.517  13.715
60042SOL    HW282024  12.406   9.463  13.581
60043SOL     OW82025   5.008   7.756   6.282
60043SOL    HW182026   4.932   7.770   6.339
60043SOL    HW282027   5.076   7.813   6.318
60044SOL     OW82028   2.129  11.890   1.443
60044SOL    HW182029   2.054  11.831   1.453
60044SOL    HW282030   2.154  11.911   1.533
60045SOL     OW82031   5.030  14.703   4.571
60045SOL    HW182032   5.124  14.720   4.572
60045SOL    HW282033   4.990  14.788   4.551
60046SOL     OW82034   5.472   0.889   3.303
60046SOL    HW182035   5.491   0.795   3.295
60046SOL    HW282036   5.487   0.910   3.395
60047SOL     OW82037  10.068   2.557   8.757
60047SOL    HW182038  10.115   2.496   8.814
60047SOL    HW282039  10.102   2.643   8.781
60048SOL     OW82040   1.306   2.381  13.882
60048SOL    HW182041   1.287   2.393  13.789
60048SOL    HW282042   1.397   2.410  13.892
60049SOL     OW82043  11.551   1.591   1.079
60049SOL    HW182044  11.611   1.539   1.133
60049SOL    HW282045  11.597   1.603   0.996
60050SOL     OW82046   6.599  10.819  13.461
60050SOL    HW182047   6.641  10.844  13.544
60050SOL    HW282048   6.505  10.825  13.479
60051SOL     OW82049   6.447   1.154   3.996
60051SOL    HW182050   6.359   1.167   4.030
60051SOL    HW282051   6.485   1.242   3.991
60052SOL     OW82052   8.988   0.324  13.222
60052SOL    HW182053   9.059   0.388  13.235
60052SOL    HW282054   8.999   0.261  13.293
60053SOL     OW82055  10.533   3.474  13.366
60053SOL    HW182056  10.552   3.410  13.298
60053SOL    HW282057  10.519   3.422  13.445
60054SOL     OW82058  11.254  13.166  11.621
60054SOL    HW182059  11.329  13.179  11.564
60054SOL    HW282060  11.189  13.123  11.565
60055SOL     OW82061   3.644   4.080   7.124
60055SOL    HW182062   3.676   4.160   7.166
60055SOL    HW282063   3.717   4.050   7.071
60056SOL     OW82064  12.255   7.388   9.775
60056SOL    HW182065  12.249   7.454   9.844
60056SOL    HW282066  12.206   7.427   9.702
60057SOL     OW82067  10.540  13.968  14.846
60057SOL    HW182068  10.586  14.021   0.043
60057SOL    HW282069  10.448  13.990  14.859
60058SOL     OW82070   0.468   4.653  13.170
60058SOL    HW182071   0.462   4.747  13.154
60058SOL    HW282072   0.430   4.613  13.092
60059SOL     OW82073  14.582  14.565   3.974
60059SOL    HW182074  14.490  14.543   3.959
60059SOL    HW282075  14.580  14.653   4.012
60060SOL     OW82076  10.835   4.021   4.035
60060SOL    HW182077  10.859   4.064   3.953
60060SOL    HW282078  10.904   4.044   4.096
60061SOL     OW82079  12.251  10.192  14.553
60061SOL    HW182080  12.293  10.266  14.597
60061SOL    HW282081  12.228  10.225  14.467
60062SOL     OW82082   3.166   3.812  12.222
60062SOL    HW182083   3.246   3.832  12.175
60062SOL    HW282084   3.099   3.805  12.154
60063SOL     OW82085   1.199  10.714   6.062
60063SOL    HW182086   1.176  10.635   6.110
60063SOL    HW282087   1.163  10.700   5.974
60064SOL     OW82088   7.515   8.215  13.042
60064SOL    HW182089   7.433   8.249  13.080
60064SOL    HW282090   7.583   8.272  13.078
60065SOL     OW82091   9.148   8.978   0.598
60065SOL    HW182092   9.183   9.058   0.559
60065SOL    HW282093   9.216   8.913   0.585
60066SOL     OW82094   8.935   0.336   6.691
60066SOL    HW182095   9.026   0.363   6.706
60066SOL    HW282096   8.916   0.276   6.764
60067SOL     OW82097  13.079   3.611   9.890
60067SOL    HW182098  13.042   3.609   9.978
60067SOL    HW282099  13.164   3.654   9.900
60068SOL     OW82100  12.692   9.810  13.648
60068SOL    HW182101  12.751   9.751  13.601
60068SOL    HW282102  12.731   9.897  13.637
60069SOL     OW82103  11.435   9.922   8.702
60069SOL    HW182104  11.527   9.944   8.717
60069SOL    HW282105  11.425   9.833   8.737
60070SOL     OW82106   2.327   3.622   5.785
60070SOL    HW182107   2.371   3.602   5.703
60070SOL    HW282108   2.262   3.552   5.794
60071SOL     OW82109   2.033  12.137  12.052
60071SOL    HW182110   2.005  12.120  12.142
60071SOL    HW282111   1.993  12.067  12.001
60072SOL     OW82112   4.216   6.932   5.616
60072SOL    HW182113   4.161   6.969   5.546
60072SOL    HW282114   4.287   6.887   5.570
60073SOL     OW82115  11.752   4.395   9.201
60073SOL    HW182116  11.759   4.439   9.116
60073SOL    HW282117  11.821   4.434   9.254
60074SOL     OW82118  14.638  10.616   2.973
60074SOL    HW182119  14.596  10.677   2.912
60074SOL    HW282120  14.567  10.580   3.025
60075SOL     OW82121   6.225   1.309  10.637
60075SOL    HW182122   6.312   1.343  10.614
60075SOL    HW282123   6.240   1.250  10.710
60076SOL     OW82124   2.298   5.618  14.413
60076SOL    HW182125   2.247   5.676  14.357
60076SOL    HW282126   2.357   5.676  14.461
60077SOL     OW82127   9.882   1.776  12.007
60077SOL    HW182128   9.883   1.705  12.071
60077SOL    HW282129   9.944   1.749  11.939
60078SOL     OW82130   3.390  13.081   1.116
60078SOL    HW182131   3.471  13.125   1.089
60078SOL    HW282132   3.418  12.992   1.139
60079SOL     OW82133   1.859  14.332  14.421
60079SOL    HW182134   1.849  14.237  14.430
60079SOL    HW282135   1.926  14.355  14.485
60080SOL     OW82136  12.268   3.841   3.125
60080SOL    HW182137  12.204   3.909   3.102
60080SOL    HW282138  12.312   3.820   3.043
60081SOL     OW82139   5.900  14.787  13.847
60081SOL    HW182140   5.906  14.713  13.787
60081SOL    HW282141   5.830  14.764  13.908
60082SOL     OW82142   7.587   4.477   4.122
60082SOL    HW182143   7.679   4.480   4.095
60082SOL    HW282144   7.545   4.547   4.072
60083SOL     OW82145   7.506  13.572   0.979
60083SOL    HW182146   7.549  13.620   1.049
60083SOL    HW282147   7.514  13.480   1.004
60084SOL     OW82148   5.018  14.405   1.861
60084SOL    HW182149   4.968  14.438   1.936
60084SOL    HW282150   4.954  14.402   1.790
60085SOL     OW82151   7.401  10.803  10.721
60085SOL    HW182152   7.380  10.896  10.711
60085SOL    HW282153   7.374  10.764  10.638
60086SOL     OW82154   0.052  12.547  13.254
60086SOL    HW182155   0.051  12.627  13.306
60086SOL    HW282156  14.853  12.561  13.187
60087SOL     OW82157  12.006   6.592   0.748
60087SOL    HW182158  12.012   6.652   0.674
60087SOL    HW282159  12.094   6.592   0.786
60088SOL     OW82160   4.400   3.751  14.864
60088SOL    HW182161   4.343   3.798  14.803
60088SOL    HW282162   4.423   3.817   0.062
60089SOL     OW82163   9.639  13.936   5.978
60089SOL    HW182164   9.687  13.911   6.057
60089SOL    HW282165   9.675  14.021   5.954
60090SOL     OW82166   9.441   0.874   9.370
60090SOL    HW182167   9.474   0.860   9.281
60090SOL    HW282168   9.503   0.828   9.426
60091SOL     OW82169   9.718   3.368   2.439
60091SOL    HW182170   9.806   3.379   2.402
60091SOL    HW282171   9.661   3.355   2.363
60092SOL     OW82172   1.602   8.849   0.778
60092SOL    HW182173   1.681   8.904   0.777
60092SOL    HW282174   1.614   8.791   0.702
60093SOL     OW82175  14.865   3.600  14.641
60093SOL    HW182176  14.826   3.516  14.667
60093SOL    HW282177  14.811   3.629  14.567
60094SOL     OW82178   9.864  12.977   9.402
60094SOL    HW182179   9.892  12.890   9.371
60094SOL    HW282180   9.815  13.014   9.328
60095SOL     OW82181   4.419   6.551  12.310
60095SOL    HW182182   4.449   6.551  12.401
60095SOL    HW282183   4.484   6.604  12.263
60096SOL     OW82184  14.670   7.968  14.112
60096SOL    HW182185  14.740   7.979  14.177
60096SOL    HW282186  14.589   7.974  14.163
60097SOL     OW82187  14.284  11.414   1.625
60097SOL    HW182188  14.236  11.497   1.628
60097SOL    HW282189  14.215  11.348   1.625
60098SOL     OW82190  14.570   6.763   6.480
60098SOL    HW182191  14.478   6.772   6.454
60098SOL    HW282192  14.619   6.770   6.398
60099SOL     OW82193   8.702   5.063   9.292
60099SOL    HW182194   8.797   5.063   9.282
60099SOL    HW282195   8.682   5.147   9.333
60100SOL     OW82196   4.803   2.477   1.135
60100SOL    HW182197   4.812   2.496   1.041
60100SOL    HW282198   4.855   2.398   1.148
60101SOL     OW82199   4.767  10.215   0.531
60101SOL    HW182200   4.811  10.284   0.481
60101SOL    HW282201   4.747  10.148   0.465
60102SOL     OW82202  13.243   7.487   4.133
60102SOL    HW182203  13.184   7.424   4.174
60102SOL    HW282204  13.330   7.450   4.145
60103SOL     OW82205  10.828   6.253   7.678
60103SOL    HW182206  10.872   6.197   7.614
60103SOL    HW282207  10.873   6.337   7.670
60104SOL     OW82208   1.498   3.757  11.345
60104SOL    HW182209   1.446   3.811  11.286
60104SOL    HW282210   1.453   3.673  11.346
60105SOL     OW82211   2.082   8.067   0.975
60105SOL    HW182212   2.150   8.095   1.036
60105SOL    HW282213   2.053   8.147   0.932
60106SOL     OW82214   8.378   1.493  12.095
60106SOL    HW182215   8.379   1.490  11.999
60106SOL    HW282216   8.329   1.572  12.116
60107SOL     OW82217   2.017  11.861  11.916
60107SOL    HW182218   2.025  11.770  11.886
60107SOL    HW282219   2.003  11.911  11.836
60108SOL     OW82220   8.923   7.994   8.604
60108SOL    HW182221   8.830   7.988   8.582
60108SOL    HW282222   8.924   8.010   8.698
60109SOL     OW82223   0.828   6.729   7.756
60109SOL    HW182224   0.824   6.664   7.827
60109SOL    HW282225   0.921   6.752   7.752
60110SOL     OW82226   8.801  11.186   7.219
60110SOL    HW182227   8.758  11.236   7.288
60110SOL    HW282228   8.839  11.111   7.264
60111SOL     OW82229  13.674   2.819   8.430
60111SOL    HW182230  13.696   2.730   8.401
60111SOL    HW282231  13.655   2.810   8.523
60112SOL     OW82232   0.282   6.433   9.168
60112SOL    HW182233   0.218   6.398   9.230
60112SOL    HW282234   0.366   6.424   9.212
60113SOL     OW82235   6.399  11.644   0.366
60113SOL    HW182236   6.413  11.595   0.447
60113SOL    HW282237   6.471  11.618   0.309
60114SOL     OW82238   1.633   9.572   0.822
60114SOL    HW182239   1.702   9.638   0.814
60114SOL    HW282240   1.600   9.583   0.912
60115SOL     OW82241  12.852  12.838   3.414
60115SOL    HW182242  12.868  12.793   3.330
60115SOL    HW282243  12.773  12.889   3.399
60116SOL     OW82244  13.897   1.948  11.927
60116SOL    HW182245  13.917   1.909  12.012
60116SOL    HW282246  13.802   1.958  11.927
60117SOL     OW82247  11.211   6.369   7.784
60117SOL    HW182248  11.232   6.461   7.769
60117SOL    HW282249  11.122   6.371   7.820
60118SOL     OW82250   2.357  12.198  14.054
60118SOL    HW182251   2.397  12.170  13.972
60118SOL    HW282252   2.425  12.182  14.120
60119SOL     OW82253   6.353  10.523   4.850
60119SOL    HW182254   6.422  10.459   4.832
60119SOL    HW282255   6.337  10.565   4.765
60120SOL     OW82256   4.557   4.056   8.304
60120SOL    HW182257   4.640   4.013   8.288
60120SOL    HW282258   4.581   4.141   8.342
60121SOL     OW82259  10.932   7.115   1.605
60121SOL    HW182260  11.008   7.058   1.616
60121SOL    HW282261  10.889   7.114   1.690
60122SOL     OW82262  11.292  10.454  13.439
60122SOL    HW182263  11.257  10.380  13.488
60122SOL    HW282264  11.382  10.429  13.419
60123SOL     OW82265   9.188   2.440  11.134
60123SOL    HW182266   9.213   2.460  11.044
60123SOL    HW282267   9.248   2.371  11.161
60124SOL     OW82268   4.160   3.968  13.020
60124SOL    HW182269   4.162   3.997  13.111
60124SOL    HW282270   4.069   3.944  13.004
60125SOL     OW82271   5.405   2.801   5.395
60125SOL    HW182272   5.313   2.775   5.387
60125SOL    HW282273   5.453   2.718   5.399
60126SOL     OW82274   6.433  10.380   2.549
60126SOL    HW182275   6.344  10.354   2.525
60126SOL    HW282276   6.423  10.431   2.629
60127SOL     OW82277  14.220   5.002  13.649
60127SOL    HW182278  14.131   5.038  13.654
60127SOL    HW282279  14.232   4.957  13.732
60128SOL     OW82280  11.699   5.103   4.390
60128SOL    HW182281  11.781   5.129   4.431
60128SOL    HW282282  11.644   5.181   4.394
60129SOL     OW82283   2.359   0.566   1.682
60129SOL    HW182284   2.400   0.618   1.613
60129SOL    HW282285   2.341   0.628   1.752
60130SOL     OW82286   6.617  10.620   1.952
60130SOL    HW182287   6.542  10.562   1.962
60130SOL    HW282288   6.690  10.561   1.930
60131SOL     OW82289   6.244   1.894   8.568
60131SOL    HW182290   6.211   1.858   8.650
60131SOL    HW282291   6.268   1.984   8.590
60132SOL     OW82292   8.184   6.773   6.066
60132SOL    HW182293   8.187   6.836   6.138
60132SOL    HW282294   8.232   6.697   6.099
60133SOL     OW82295   3.305  11.561   7.839
60133SOL    HW182296   3.276  11.594   7.924
60133SOL    HW282297   3.301  11.637   7.781
60134SOL     OW82298  12.456   2.812   1.991
60134SOL    HW182299  12.483   2.876   1.925
60134SOL    HW282300  12.510   2.735   1.974
60135SOL     OW82301  11.466   9.047  13.575
60135SOL    HW182302  11.385   9.020  13.618
60135SOL    HW282303  11.535   9.008  13.628
60136SOL     OW82304   4.114   6.828   4.145
60136SOL    HW182305   4.171   6.830   4.223
60136SOL    HW282306   4.086   6.736   4.139
60137SOL     OW82307   5.267   4.195   8.577
60137SOL    HW182308   5.228   4.259   8.518
60137SOL    HW282309   5.207   4.192   8.651
60138SOL     OW82310  12.984   5.908   0.211
60138SOL    HW182311  13.035   5.989   0.216
60138SOL    HW282312  12.967   5.896   0.117
60139SOL     OW82313   7.632   7.286   4.217
60139SOL    HW182314   7.593   7.365   4.255
60139SOL    HW282315   7.561   7.246   4.167
60140SOL     OW82316   1.095  12.498  12.873
60140SOL    HW182317   1.175  12.543  12.901
60140SOL    HW282318   1.087  12.519  12.781
60141SOL     OW82319   1.977   3.179   3.455
60141SOL    HW182320   1.975   3.263   3.501
60141SOL    HW282321   1.965   3.202   3.363
60142SOL     OW82322   3.850   7.775  12.914
60142SOL    HW182323   3.781   7.768  12.980
60142SOL    HW282324   3.884   7.864  12.923
60143SOL     OW82325  10.232  11.432  11.875
60143SOL    HW182326  10.240  11.446  11.969
60143SOL    HW282327  10.137  11.430  11.859
60144SOL     OW82328   3.636   5.943   3.883
60144SOL    HW182329   3.553   5.896   3.885
60144SOL    HW282330   3.618   6.020   3.829
60145SOL     OW82331   6.755   0.350   9.736
60145SOL    HW182332   6.666   0.380   9.753
60145SOL    HW282333   6.746   0.288   9.664
60146SOL     OW82334  14.445  11.592  12.369
60146SOL    HW182335  14.445  11.647  12.447
60146SOL    HW282336  14.369  11.622  12.319
60147SOL     OW82337   5.910   9.143  11.090
60147SOL    HW182338   5.873   9.055  11.100
60147SOL    HW282339   5.949   9.143  11.003
60148SOL     OW82340  11.820   8.750   9.687
60148SOL    HW182341  11.833   8.672   9.633
60148SOL    HW282342  11.726   8.751   9.704
60149SOL     OW82343  14.445   6.458   6.211
60149SOL    HW182344  14.500   6.481   6.136
60149SOL    HW282345  14.497   6.395   6.261
60150SOL     OW82346  11.763   0.405   8.871
60150SOL    HW182347  11.677   0.377   8.904
60150SOL    HW282348  11.812   0.430   8.949
60151SOL     OW82349   2.318   1.831   7.891
60151SOL    HW182350   2.351   1.755   7.844
60151SOL    HW282351   2.232   1.803   7.924
60152SOL     OW82352  11.498   5.503   7.292
60152SOL    HW182353  11.575   5.527   7.343
60152SOL    HW282354  11.433   5.475   7.357
60153SOL     OW82355   3.631   6.691   8.412
60153SOL    HW182356   3.702   6.737   8.457
60153SOL    HW282357   3.675   6.622   8.362
60154SOL     OW82358  12.274  10.114  12.824
60154SOL    HW182359  12.191  10.073  12.849
60154SOL    HW282360  12.250  10.174  12.754
60155SOL     OW82361   9.126   1.763  14.603
60155SOL    HW182362   9.129   1.688  14.544
60155SOL    HW282363   9.217   1.778  14.629
60156SOL     OW82364  12.125   0.557   2.311
60156SOL    HW182365  12.141   0.468   2.280
60156SOL    HW282366  12.115   0.549   2.406
60157SOL     OW82367   8.071  12.612   7.537
60157SOL    HW182368   8.073  12.602   7.442
60157SOL    HW282369   8.156  12.648   7.560
60158SOL     OW82370  14.842   9.230   5.850
60158SOL    HW182371   0.045   9.275   5.804
60158SOL    HW282372  14.773   9.221   5.785
60159SOL     OW82373  12.107  13.655   6.659
60159SOL    HW182374  12.070  13.567   6.670
60159SOL    HW282375  12.194  13.650   6.697
60160SOL     OW82376   1.906   1.102  13.070
60160SOL    HW182377   1.845   1.119  12.998
60160SOL    HW282378   1.909   1.184  13.119
60161SOL     OW82379   2.447   5.645   3.354
60161SOL    HW182380   2.395   5.574   3.317
60161SOL    HW282381   2.536   5.630   3.321
60162SOL     OW82382  10.221   4.340   9.084
60162SOL    HW182383  10.253   4.388   9.008
60162SOL    HW282384  10.266   4.255   9.079
60163SOL     OW82385  14.795   8.215   4.989
60163SOL    HW182386   0.012   8.220   5.034
60163SOL    HW282387  14.797   8.288   4.927
60164SOL     OW82388   7.130  10.455  10.476
60164SOL    HW182389   7.119  10.460  10.571
60164SOL    HW282390   7.066  10.389  10.448
60165SOL     OW82391   2.927  12.701   2.681
60165SOL    HW182392   3.016  12.721   2.712
60165SOL    HW282393   2.869  12.736   2.749
60166SOL     OW82394   9.920  13.267  10.619
60166SOL    HW182395   9.970  13.296  10.543
60166SOL    HW282396   9.831  13.300  10.603
60167SOL     OW82397   5.277  11.814   0.110
60167SOL    HW182398   5.235  11.896   0.132
60167SOL    HW282399   5.264  11.758   0.187
60168SOL     OW82400  14.397   1.382   3.511
60168SOL    HW182401  14.479   1.425   3.486
60168SOL    HW282402  14.420   1.328   3.586
60169SOL     OW82403  10.472   1.467   2.936
60169SOL    HW182404  10.484   1.562   2.926
60169SOL    HW282405  10.377   1.455   2.940
60170SOL     OW82406   5.786  12.883  10.719
60170SOL    HW182407   5.716  12.823  10.693
60170SOL    HW282408   5.865  12.845  10.682
60171SOL     OW82409  14.306   7.977  13.753
60171SOL    HW182410  14.305   7.901  13.694
60171SOL    HW282411  14.397   8.009  13.748
60172SOL     OW82412  12.709  10.548   3.897
60172SOL    HW182413  12.666  10.575   3.978
60172SOL    HW282414  12.698  10.622   3.838
60173SOL     OW82415  12.966  14.528   5.296
60173SOL    HW182416  12.941  14.438   5.276
60173SOL    HW282417  13.037  14.520   5.360
60174SOL     OW82418   8.967  14.652  11.801
60174SOL    HW182419   9.055  14.620  11.780
60174SOL    HW282420   8.917  14.574  11.822
60175SOL     OW82421   8.267   7.564   5.166
60175SOL    HW182422   8.193   7.519   5.127
60175SOL    HW282423   8.238   7.655   5.176
60176SOL     OW82424   6.702  14.017   7.156
60176SOL    HW182425   6.718  13.935   7.110
60176SOL    HW282426   6.781  14.069   7.141
60177SOL     OW82427   1.012   7.255  10.953
60177SOL    HW182428   1.070   7.199  11.005
60177SOL    HW282429   0.967   7.194  10.894
60178SOL     OW82430   4.409   1.490  12.395
60178SOL    HW182431   4.415   1.580  12.426
60178SOL    HW282432   4.499   1.463  12.380
60179SOL     OW82433   3.111  10.935   9.295
60179SOL    HW182434   3.165  10.893   9.227
60179SOL    HW282435   3.053  10.866   9.326
60180SOL     OW82436   9.247   2.780  11.179
60180SOL    HW182437   9.233   2.760  11.086
60180SOL    HW282438   9.319   2.723  11.205
60181SOL     OW82439   4.125   5.153   6.623
60181SOL    HW182440   4.109   5.212   6.697
60181SOL    HW282441   4.123   5.065   6.662
60182SOL     OW82442  10.533   7.156  12.188
60182SOL    HW182443  10.559   7.248  12.184
60182SOL    HW282444  10.615   7.108  12.186
60183SOL     OW82445   3.068   3.342   0.533
60183SOL    HW182446   3.092   3.335   0.626
60183SOL    HW282447   3.025   3.427   0.526
60184SOL     OW82448  11.402  11.395  14.448
60184SOL    HW182449  11.327  11.351  14.408
60184SOL    HW282450  11.477  11.342  14.423
60185SOL     OW82451  11.267   5.406  14.625
60185SOL    HW182452  11.347   5.431  14.671
60185SOL    HW282453  11.295   5.335  14.566
60186SOL     OW82454   6.685   5.831   0.707
60186SOL    HW182455   6.615   5.785   0.659
60186SOL    HW282456   6.650   5.919   0.721
60187SOL     OW82457   5.089  14.115  14.483
60187SOL    HW182458   5.042  14.081  14.559
60187SOL    HW282459   5.128  14.197  14.513
60188SOL     OW82460   8.736   4.911  13.081
60188SOL    HW182461   8.718   4.859  13.159
60188SOL    HW282462   8.671   4.981  13.084
60189SOL     OW82463  10.763   2.471   8.834
60189SOL    HW182464  10.683   2.451   8.785
60189SOL    HW282465  10.829   2.486   8.766
60190SOL     OW82466  14.516  11.001  13.355
60190SOL    HW182467  14.435  10.965  13.391
60190SOL    HW282468  14.575  11.008  13.429
60191SOL     OW82469   8.458  13.716  10.614
60191SOL    HW182470   8.458  13.684  10.524
60191SOL    HW282471   8.543  13.689  10.648
60192SOL     OW82472  13.796  12.242   7.770
60192SOL    HW182473  13.756  12.156   7.781
60192SOL    HW282474  13.878  12.236   7.820
60193SOL     OW82475   9.631   8.093   8.857
60193SOL    HW182476   9.707   8.047   8.893
60193SOL    HW282477   9.669   8.164   8.805
60194SOL     OW82478  14.156   1.129   6.109
60194SOL    HW182479  14.229   1.069   6.092
60194SOL    HW282480  14.171   1.160   6.199
60195SOL     OW82481  11.662  13.687  10.024
60195SOL    HW182482  11.617  13.651  10.100
60195SOL    HW282483  11.754  13.664  10.038
60196SOL     OW82484   9.331  12.707   5.488
60196SOL    HW182485   9.237  12.709   5.508
60196SOL    HW282486   9.347  12.616   5.463
60197SOL     OW82487   3.241   9.935   6.814
60197SOL    HW182488   3.334   9.953   6.830
60197SOL    HW282489   3.239   9.903   6.723
60198SOL     OW82490  14.838  11.786   5.776
60198SOL    HW182491  14.754  11.782   5.822
60198SOL    HW282492   0.036  11.791   5.846
60199SOL     OW82493   5.748  14.403   8.539
60199SOL    HW182494   5.811  14.390   8.610
60199SOL    HW282495   5.747  14.498   8.526
60200SOL     OW82496  13.140   6.551   7.700
60200SOL    HW182497  13.144   6.540   7.605
60200SOL    HW282498  13.216   6.504   7.733
60201SOL     OW82499  12.398   5.695   7.525
60201SOL    HW182500  12.368   5.747   7.450
60201SOL    HW282501  12.451   5.755   7.577
60202SOL     OW82502  12.857   1.951   9.948
60202SOL    HW182503  12.866   1.942  10.043
60202SOL    HW282504  12.946   1.959   9.916
60203SOL     OW82505  12.469   0.435   9.019
60203SOL    HW182506  12.466   0.382   8.939
60203SOL    HW282507  12.504   0.519   8.991
60204SOL     OW82508  10.114   5.370   4.494
60204SOL    HW182509  10.027   5.360   4.457
60204SOL    HW282510  10.101   5.423   4.573
60205SOL     OW82511   7.373   5.037   5.040
60205SOL    HW182512   7.396   5.115   5.089
60205SOL    HW282513   7.445   4.976   5.055
60206SOL     OW82514   5.726   0.893   7.154
60206SOL    HW182515   5.786   0.824   7.183
60206SOL    HW282516   5.648   0.846   7.126
60207SOL     OW82517   3.870  12.444   0.214
60207SOL    HW182518   3.870  12.373   0.279
60207SOL    HW282519   3.822  12.515   0.257
60208SOL     OW82520  13.433   9.792   4.893
60208SOL    HW182521  13.392   9.708   4.871
60208SOL    HW282522  13.527   9.774   4.892
60209SOL     OW82523   5.079   2.655   7.826
60209SOL    HW182524   4.990   2.684   7.806
60209SOL    HW282525   5.068   2.569   7.867
60210SOL     OW82526   3.817   4.695   2.954
60210SOL    HW182527   3.727   4.719   2.933
60210SOL    HW282528   3.863   4.696   2.870
60211SOL     OW82529  12.153   3.737  10.411
60211SOL    HW182530  12.160   3.830  10.387
60211SOL    HW282531  12.132   3.738  10.504
60212SOL     OW82532   6.843  11.130  13.331
60212SOL    HW182533   6.836  11.224  13.344
60212SOL    HW282534   6.923  11.105  13.378
60213SOL     OW82535   6.558   0.490   6.798
60213SOL    HW182536   6.529   0.511   6.709
60213SOL    HW282537   6.547   0.395   6.805
60214SOL     OW82538   8.561   2.417   2.626
60214SOL    HW182539   8.588   2.429   2.535
60214SOL    HW282540   8.577   2.502   2.668
60215SOL     OW82541   9.881   2.423  11.162
60215SOL    HW182542   9.798   2.450  11.122
60215SOL    HW282543   9.874   2.453  11.253
60216SOL     OW82544  10.609   9.032   6.013
60216SOL    HW182545  10.575   9.098   5.952
60216SOL    HW282546  10.676   9.078   6.064
60217SOL     OW82547   6.091   1.572   5.421
60217SOL    HW182548   6.163   1.523   5.382
60217SOL    HW282549   6.133   1.636   5.478
60218SOL     OW82550  12.876   0.516  10.517
60218SOL    HW182551  12.836   0.504  10.431
60218SOL    HW282552  12.965   0.543  10.499
60219SOL     OW82553   6.774   7.650   6.051
60219SOL    HW182554   6.726   7.585   5.999
60219SOL    HW282555   6.712   7.681   6.115
60220SOL     OW82556   9.768   5.129  12.090
60220SOL    HW182557   9.839   5.111  12.151
60220SOL    HW282558   9.789   5.077  12.012
60221SOL     OW82559  12.026   5.460  13.540
60221SOL    HW182560  12.102   5.401  13.536
60221SOL    HW282561  11.996   5.465  13.449
60222SOL     OW82562  11.521   4.439   5.656
60222SOL    HW182563  11.530   4.442   5.752
60222SOL    HW282564  11.599   4.483   5.623
60223SOL     OW82565  13.454  10.512   8.896
60223SOL    HW182566  13.505  10.432   8.904
60223SOL    HW282567  13.437  10.520   8.802
60224SOL     OW82568  13.622  10.734   8.981
60224SOL    HW182569  13.572  10.656   8.956
60224SOL    HW282570  13.680  10.751   8.906
60225SOL     OW82571  10.880   1.351  13.654
60225SOL    HW182572  10.792   1.317  13.636
60225SOL    HW282573  10.883   1.435  13.608
60226SOL     OW82574   4.240   2.009   7.723
60226SOL    HW182575   4.295   2.013   7.802
60226SOL    HW282576   4.165   1.956   7.749
60227SOL     OW82577   2.661  12.962   0.100
60227SOL    HW182578   2.700  13.022   0.163
60227SOL    HW282579   2.672  13.005   0.016
60228SOL     OW82580   1.846   2.470  12.138
60228SOL    HW182581   1.901   2.532  12.091
60228SOL    HW282582   1.874   2.384  12.108
60229SOL     OW82583   9.566   3.160  12.209
60229SOL    HW182584   9.482   3.206  12.209
60229SOL    HW282585   9.573   3.122  12.296
60230SOL     OW82586  12.824  11.357  11.998
60230SOL    HW182587  12.731  11.370  11.983
60230SOL    HW282588  12.835  11.262  12.006
60231SOL     OW82589   7.127   1.962   4.141
60231SOL    HW182590   7.067   2.007   4.201
60231SOL    HW282591   7.139   1.875   4.180
60232SOL     OW82592  13.163  11.191   5.902
60232SOL    HW182593  13.168  11.287   5.901
60232SOL    HW282594  13.073  11.171   5.928
60233SOL     OW82595   8.998   8.819   8.144
60233SOL    HW182596   8.992   8.748   8.080
60233SOL    HW282597   8.911   8.823   8.183
60234SOL     OW82598   8.195   2.976  11.283
60234SOL    HW182599   8.173   3.025  11.363
60234SOL    HW282600   8.176   2.885  11.304
60235SOL     OW82601  14.778   4.251   6.170
60235SOL    HW182602  14.812   4.337   6.195
60235SOL    HW282603  14.706   4.235   6.231
60236SOL     OW82604   5.062  10.134  14.414
60236SOL    HW182605   5.033  10.046  14.388
60236SOL    HW282606   5.075  10.129  14.508
60237SOL     OW82607  10.584   2.204  12.421
60237SOL    HW182608  10.648   2.274  12.410
60237SOL    HW282609  10.523   2.238  12.488
60238SOL     OW82610   8.325   2.591   7.798
60238SOL    HW182611   8.240   2.549   7.783
60238SOL    HW282612   8.314   2.637   7.881
60239SOL     OW82613   6.576   6.006  13.608
60239SOL    HW182614   6.565   6.018  13.702
60239SOL    HW282615   6.540   6.084  13.568
60240SOL     OW82616   7.604   4.350  12.978
60240SOL    HW182617   7.555   4.425  13.010
60240SOL    HW282618   7.689   4.356  13.022
60241SOL     OW82619   5.935   6.855   2.673
60241SOL    HW182620   5.905   6.898   2.753
60241SOL    HW282621   6.014   6.808   2.699
60242SOL     OW82622  13.630  13.027  11.928
60242SOL    HW182623  13.639  13.091  11.857
60242SOL    HW282624  13.610  13.079  12.005
60243SOL     OW82625   4.403   1.307  14.497
60243SOL    HW182626   4.369   1.245  14.433
60243SOL    HW282627   4.336   1.376  14.502
60244SOL     OW82628   5.657  12.703  10.152
60244SOL    HW182629   5.658  12.692  10.057
60244SOL    HW282630   5.572  12.745  10.170
60245SOL     OW82631   3.298  11.039   4.559
60245SOL    HW182632   3.386  11.074   4.546
60245SOL    HW282633   3.313  10.953   4.600
60246SOL     OW82634   3.989   2.414  11.420
60246SOL    HW182635   3.914   2.456  11.463
60246SOL    HW282636   4.055   2.483  11.416
60247SOL     OW82637  13.380   1.116   9.929
60247SOL    HW182638  13.368   1.194   9.983
60247SOL    HW282639  13.444   1.142   9.863
60248SOL     OW82640  13.329   4.868  11.523
60248SOL    HW182641  13.333   4.779  11.490
60248SOL    HW282642  13.261   4.866  11.591
60249SOL     OW82643   0.033   7.856  12.524
60249SOL    HW182644  14.848   7.843  12.445
60249SOL    HW282645   0.077   7.940  12.510
60250SOL     OW82646  11.140  14.139   1.093
60250SOL    HW182647  11.071  14.143   1.160
60250SOL    HW282648  11.212  14.190   1.129
60251SOL     OW82649   6.242  13.402  14.408
60251SOL    HW182650   6.187  13.325  14.392
60251SOL    HW282651   6.332  13.369  14.405
60252SOL     OW82652   7.178  11.875   0.954
60252SOL    HW182653   7.240  11.930   1.002
60252SOL    HW282654   7.094  11.891   0.998
60253SOL     OW82655   8.590  12.058   0.474
60253SOL    HW182656   8.676  12.095   0.491
60253SOL    HW282657   8.574  12.073   0.381
60254SOL     OW82658   7.638  13.718  13.489
60254SOL    HW182659   7.647  13.750  13.580
60254SOL    HW282660   7.650  13.624  13.496
60255SOL     OW82661   5.534  10.046   2.053
60255SOL    HW182662   5.528  10.056   1.958
60255SOL    HW282663   5.628  10.035   2.069
60256SOL     OW82664   0.507   1.063   3.070
60256SOL    HW182665   0.586   1.109   3.040
60256SOL    HW282666   0.538   0.976   3.096
60257SOL     OW82667  13.241   2.758   6.688
60257SOL    HW182668  13.327   2.756   6.647
60257SOL    HW282669  13.258   2.782   6.779
60258SOL     OW82670   2.922   6.631   5.123
60258SOL    HW182671   2.946   6.675   5.041
60258SOL    HW282672   2.830   6.609   5.112
60259SOL     OW82673   4.720   0.774   8.549
60259SOL    HW182674   4.769   0.748   8.627
60259SOL    HW282675   4.787   0.796   8.484
60260SOL     OW82676   4.324  12.308  13.751
60260SOL    HW182677   4.394  12.250  13.783
60260SOL    HW282678   4.318  12.377  13.818
60261SOL     OW82679   0.058   6.959   7.467
60261SOL    HW182680   0.083   6.967   7.375
60261SOL    HW282681  14.831   6.971   7.467
60262SOL     OW82682   4.670  13.794  12.955
60262SOL    HW182683   4.678  13.722  12.893
60262SOL    HW282684   4.577  13.815  12.957
60263SOL     OW82685   5.486   4.279  13.762
60263SOL    HW182686   5.458   4.204  13.709
60263SOL    HW282687   5.577   4.257  13.786
60264SOL     OW82688   7.786   1.350  11.835
60264SOL    HW182689   7.830   1.352  11.920
60264SOL    HW282690   7.856   1.331  11.772
60265SOL     OW82691  12.037   6.953  11.018
60265SOL    HW182692  12.018   6.884  10.955
60265SOL    HW282693  12.127   6.938  11.045
60266SOL     OW82694   0.468  10.463   8.006
60266SOL    HW182695   0.530  10.497   8.071
60266SOL    HW282696   0.396  10.428   8.058
60267SOL     OW82697  12.512   4.985   7.760
60267SOL    HW182698  12.536   4.962   7.670
60267SOL    HW282699  12.527   5.079   7.766
60268SOL     OW82700   4.374  14.701   4.615
60268SOL    HW182701   4.291  14.749   4.624
60268SOL    HW282702   4.347  14.611   4.596
60269SOL     OW82703   9.962   2.296  12.523
60269SOL    HW182704   9.943   2.231  12.455
60269SOL    HW282705   9.918   2.376  12.493
60270SOL     OW82706  10.907   5.732   1.885
60270SOL    HW182707  10.922   5.815   1.840
60270SOL    HW282708  10.973   5.673   1.849
60271SOL     OW82709   8.359   7.919  12.871
60271SOL    HW182710   8.311   7.836  12.866
60271SOL    HW282711   8.341   7.952  12.959
60272SOL     OW82712   5.228   8.084  13.415
60272SOL    HW182713   5.158   8.029  13.449
60272SOL    HW282714   5.300   8.023  13.397
60273SOL     OW82715  12.818   0.400  10.257
60273SOL    HW182716  12.858   0.454  10.189
60273SOL    HW282717  12.889   0.344  10.288
60274SOL     OW82718  14.039   6.793   6.429
60274SOL    HW182719  14.125   6.764   6.402
60274SOL    HW282720  14.049   6.816   6.522
60275SOL     OW82721  11.557   6.393   3.165
60275SOL    HW182722  11.496   6.423   3.232
60275SOL    HW282723  11.537   6.447   3.088
60276SOL     OW82724  10.827   5.807   8.727
60276SOL    HW182725  10.877   5.871   8.777
60276SOL    HW282726  10.760   5.858   8.681
60277SOL     OW82727   1.929   0.343   8.474
60277SOL    HW182728   1.857   0.377   8.527
60277SOL    HW282729   1.885   0.299   8.401
60278SOL     OW82730   5.033   3.195   3.775
60278SOL    HW182731   5.060   3.120   3.828
60278SOL    HW282732   4.960   3.163   3.723
60279SOL     OW82733   3.642  11.064  11.197
60279SOL    HW182734   3.550  11.039  11.197
60279SOL    HW282735   3.641  11.160  11.192
60280SOL     OW82736   0.333   8.406   5.633
60280SOL    HW182737   0.412   8.406   5.579
60280SOL    HW282738   0.349   8.337   5.698
60281SOL     OW82739  13.262   9.645  12.227
60281SOL    HW182740  13.273   9.552  12.213
60281SOL    HW282741  13.197   9.651  12.297
60282SOL     OW82742  14.061   2.872   4.623
60282SOL    HW182743  14.003   2.799   4.645
60282SOL    HW282744  14.047   2.937   4.692
60283SOL     OW82745   8.965   0.416   5.974
60283SOL    HW182746   8.916   0.362   6.036
60283SOL    HW282747   9.044   0.441   6.021
60284SOL     OW82748   5.859  10.383  10.318
60284SOL    HW182749   5.773  10.358  10.285
60284SOL    HW282750   5.921  10.341  10.259
60285SOL     OW82751  12.552  14.145  12.577
60285SOL    HW182752  12.553  14.197  12.657
60285SOL    HW282753  12.615  14.075  12.593
60286SOL     OW82754   3.054  11.662   4.914
60286SOL    HW182755   2.986  11.598   4.890
60286SOL    HW282756   3.135  11.623   4.881
60287SOL     OW82757   5.902  12.502  13.464
60287SOL    HW182758   5.887  12.576  13.405
60287SOL    HW282759   5.988  12.517  13.501
60288SOL     OW82760   1.553   6.642   0.720
60288SOL    HW182761   1.619   6.581   0.690
60288SOL    HW282762   1.503   6.665   0.642
60289SOL     OW82763  13.482   2.251  12.916
60289SOL    HW182764  13.487   2.287  12.828
60289SOL    HW282765  13.390   2.226  12.927
60290SOL     OW82766  10.934  11.305   5.438
60290SOL    HW182767  11.003  11.371   5.446
60290SOL    HW282768  10.897  11.319   5.351
60291SOL     OW82769   6.840  10.226   3.405
60291SOL    HW182770   6.907  10.212   3.339
60291SOL    HW282771   6.771  10.274   3.359
60292SOL     OW82772   6.770  11.840   0.948
60292SOL    HW182773   6.773  11.796   0.863
60292SOL    HW282774   6.676  11.847   0.968
60293SOL     OW82775   3.790   9.472   3.202
60293SOL    HW182776   3.709   9.444   3.158
60293SOL    HW282777   3.802   9.409   3.273
60294SOL     OW82778   9.792   9.866  10.874
60294SOL    HW182779   9.866   9.904  10.920
60294SOL    HW282780   9.789   9.775  10.902
60295SOL     OW82781  14.521   5.205  14.683
60295SOL    HW182782  14.449   5.199  14.746
60295SOL    HW282783  14.482   5.243  14.605
60296SOL     OW82784   0.464   0.420  13.963
60296SOL    HW182785   0.530   0.376  13.910
60296SOL    HW282786   0.437   0.356  14.028
60297SOL     OW82787  10.944   7.876   2.594
60297SOL    HW182788  10.930   7.941   2.525
60297SOL    HW282789  10.884   7.805   2.571
60298SOL     OW82790   1.820   7.834  10.088
60298SOL    HW182791   1.812   7.891  10.165
60298SOL    HW282792   1.748   7.860  10.031
60299SOL     OW82793   4.746   9.354   8.310
60299SOL    HW182794   4.695   9.428   8.344
60299SOL    HW282795   4.681   9.284   8.298
60300SOL     OW82796  14.480   3.298   6.641
60300SOL    HW182797  14.444   3.319   6.555
60300SOL    HW282798  14.405   3.266   6.691
60301SOL     OW82799   0.577   7.683   0.856
60301SOL    HW182800   0.583   7.647   0.944
60301SOL    HW282801   0.649   7.746   0.850
60302SOL     OW82802   5.062   7.329   0.521
60302SOL    HW182803   5.035   7.373   0.602
60302SOL    HW282804   5.013   7.246   0.521
60303SOL     OW82805   8.875   5.923   2.945
60303SOL    HW182806   8.861   5.872   2.866
60303SOL    HW282807   8.805   5.895   3.004
60304SOL     OW82808  14.055   8.345   4.901
60304SOL    HW182809  14.047   8.273   4.838
60304SOL    HW282810  14.073   8.303   4.984
60305SOL     OW82811   7.992   8.508   9.531
60305SOL    HW182812   7.972   8.421   9.566
60305SOL    HW282813   8.085   8.503   9.509
60306SOL     OW82814   8.367   3.723   7.330
60306SOL    HW182815   8.294   3.753   7.383
60306SOL    HW282816   8.393   3.640   7.370
60307SOL     OW82817   8.933   8.490   7.103
60307SOL    HW182818   8.886   8.474   7.021
60307SOL    HW282819   9.013   8.535   7.077
60308SOL     OW82820  12.487   9.268   0.612
60308SOL    HW182821  12.443   9.189   0.580
60308SOL    HW282822  12.529   9.240   0.693
60309SOL     OW82823  10.822   2.945  14.730
60309SOL    HW182824  10.748   2.966  14.788
60309SOL    HW282825  10.810   2.853  14.708
60310SOL     OW82826   6.436  11.723   7.277
60310SOL    HW182827   6.465  11.649   7.330
60310SOL    HW282828   6.343  11.705   7.259
60311SOL     OW82829   0.698  10.771   8.498
60311SOL    HW182830   0.721  10.760   8.590
60311SOL    HW282831   0.616  10.820   8.500
60312SOL     OW82832  13.573  14.441  12.387
60312SOL    HW182833  13.625  14.442  12.306
60312SOL    HW282834  13.600  14.521  12.433
60313SOL     OW82835   2.340   3.241   5.954
60313SOL    HW182836   2.254   3.254   5.993
60313SOL    HW282837   2.374   3.161   5.996
60314SOL     OW82838   8.243   6.425   1.993
60314SOL    HW182839   8.244   6.429   2.089
60314SOL    HW282840   8.153   6.446   1.969
60315SOL     OW82841   1.205  12.198  13.620
60315SOL    HW182842   1.248  12.275  13.656
60315SOL    HW282843   1.111  12.219  13.623
60316SOL     OW82844   3.226  10.221   2.303
60316SOL    HW182845   3.214  10.295   2.245
60316SOL    HW282846   3.192  10.251   2.388
60317SOL     OW82847   0.062   2.628   1.503
60317SOL    HW182848   0.101   2.561   1.446
60317SOL    HW282849   0.135   2.659   1.557
60318SOL     OW82850  13.393  12.624   6.986
60318SOL    HW182851  13.317  12.578   7.023
60318SOL    HW282852  13.455  12.555   6.965
60319SOL     OW82853   5.344   0.712   0.770
60319SOL    HW182854   5.391   0.768   0.708
60319SOL    HW282855   5.297   0.773   0.827
60320SOL     OW82856   2.869  14.252  10.113
60320SOL    HW182857   2.815  14.173  10.110
60320SOL    HW282858   2.863  14.281  10.204
60321SOL     OW82859   9.726  11.843   5.932
60321SOL    HW182860   9.695  11.849   6.023
60321SOL    HW282861   9.679  11.769   5.895
60322SOL     OW82862   0.075  11.688   0.738
60322SOL    HW182863   0.142  11.625   0.767
60322SOL    HW282864   0.125  11.764   0.707
60323SOL     OW82865   7.191   2.583   1.058
60323SOL    HW182866   7.204   2.514   0.993
60323SOL    HW282867   7.203   2.664   1.008
60324SOL     OW82868   2.183  10.778  13.462
60324SOL    HW182869   2.253  10.720  13.430
60324SOL    HW282870   2.107  10.756  13.408
60325SOL     OW82871  13.412   3.478   8.656
60325SOL    HW182872  13.324   3.508   8.676
60325SOL    HW282873  13.406   3.445   8.566
60326SOL     OW82874  12.150   3.925   9.453
60326SOL    HW182875  12.141   3.840   9.411
60326SOL    HW282876  12.136   3.908   9.546
60327SOL     OW82877  10.046   7.677   5.566
60327SOL    HW182878   9.971   7.682   5.507
60327SOL    HW282879  10.079   7.766   5.571
60328SOL     OW82880   4.861  10.392   3.875
60328SOL    HW182881   4.767  10.407   3.868
60328SOL    HW282882   4.877  10.386   3.970
60329SOL     OW82883   3.614   8.592   2.166
60329SOL    HW182884   3.701   8.625   2.188
60329SOL    HW282885   3.617   8.499   2.188
60330SOL     OW82886  11.726   3.401   2.441
60330SOL    HW182887  11.645   3.350   2.434
60330SOL    HW282888  11.773   3.383   2.359
60331SOL     OW82889   1.303   2.250   6.073
60331SOL    HW182890   1.208   2.238   6.077
60331SOL    HW282891   1.321   2.268   5.980
60332SOL     OW82892   6.986   2.817  11.664
60332SOL    HW182893   6.956   2.881  11.728
60332SOL    HW282894   7.058   2.771  11.708
60333SOL     OW82895   6.471  10.194  12.245
60333SOL    HW182896   6.478  10.140  12.324
60333SOL    HW282897   6.545  10.166  12.191
60334SOL     OW82898  10.609   7.153   4.098
60334SOL    HW182899  10.565   7.237   4.104
60334SOL    HW282900  10.588   7.121   4.010
60335SOL     OW82901   3.066   3.835  14.681
60335SOL    HW182902   3.145   3.840  14.735
60335SOL    HW282903   3.091   3.779  14.608
60336SOL     OW82904  13.351  13.260   8.444
60336SOL    HW182905  13.331  13.201   8.372
60336SOL    HW282906  13.438  13.294   8.424
60337SOL     OW82907  14.815  12.364   4.362
60337SOL    HW182908   0.041  12.375   4.375
60337SOL    HW282909  14.780  12.453   4.369
60338SOL     OW82910   9.661  11.796   5.477
60338SOL    HW182911   9.595  11.731   5.454
60338SOL    HW282912   9.615  11.880   5.474
60339SOL     OW82913   7.375  12.056   1.033
60339SOL    HW182914   7.374  12.140   1.078
60339SOL    HW282915   7.454  12.012   1.066
60340SOL     OW82916  13.765   2.885   9.032
60340SOL    HW182917  13.793   2.930   9.112
60340SOL    HW282918  13.706   2.817   9.062
60341SOL     OW82919   5.446  10.332   1.543
60341SOL    HW182920   5.375  10.379   1.500
60341SOL    HW282921   5.464  10.383   1.623
60342SOL     OW82922   1.121   1.863   7.063
60342SOL    HW182923   1.118   1.925   6.989
60342SOL    HW282924   1.201   1.814   7.049
60343SOL     OW82925  10.663   1.139   0.631
60343SOL    HW182926  10.600   1.158   0.561
60343SOL    HW282927  10.625   1.180   0.709
60344SOL     OW82928  10.446   5.269  12.540
60344SOL    HW182929  10.437   5.325  12.617
60344SOL    HW282930  10.486   5.189  12.574
60345SOL     OW82931   6.069   3.409   3.461
60345SOL    HW182932   6.073   3.463   3.539
60345SOL    HW282933   6.053   3.470   3.389
60346SOL     OW82934   4.134  10.235  12.806
60346SOL    HW182935   4.190  10.161  12.829
60346SOL    HW282936   4.048  10.196  12.789
60347SOL     OW82937   4.272   1.357   5.596
60347SOL    HW182938   4.339   1.320   5.538
60347SOL    HW282939   4.308   1.441   5.624
60348SOL     OW82940   0.024  13.666  11.569
60348SOL    HW182941   0.110  13.702  11.591
60348SOL    HW282942  14.838  13.742  11.549
60349SOL     OW82943   8.691   6.550   8.391
60349SOL    HW182944   8.763   6.518   8.337
60349SOL    HW282945   8.642   6.471   8.415
60350SOL     OW82946  12.364   4.868   0.301
60350SOL    HW182947  12.292   4.902   0.248
60350SOL    HW282948  12.341   4.892   0.391
60351SOL     OW82949  14.100   4.205  12.529
60351SOL    HW182950  14.144   4.222  12.613
60351SOL    HW282951  14.167   4.164  12.475
60352SOL     OW82952   3.023   1.350  11.032
60352SOL    HW182953   3.048   1.442  11.026
60352SOL    HW282954   3.067   1.317  11.110
60353SOL     OW82955   4.210  10.088  14.083
60353SOL    HW182956   4.295  10.115  14.048
60353SOL    HW282957   4.183  10.162  14.138
60354SOL     OW82958   7.067   2.568  13.852
60354SOL    HW182959   7.156   2.533  13.855
60354SOL    HW282960   7.066   2.637  13.917
60355SOL     OW82961   1.936   0.374   9.736
60355SOL    HW182962   2.001   0.424   9.686
60355SOL    HW282963   1.976   0.288   9.748
60356SOL     OW82964   6.885   4.990   5.679
60356SOL    HW182965   6.925   4.941   5.608
60356SOL    HW282966   6.941   4.973   5.755
60357SOL     OW82967   7.834   0.248  10.613
60357SOL    HW182968   7.789   0.197  10.679
60357SOL    HW282969   7.770   0.259  10.542
60358SOL     OW82970   8.842   6.968   5.652
60358SOL    HW182971   8.767   7.021   5.679
60358SOL    HW282972   8.810   6.878   5.655
60359SOL     OW82973  10.152   9.451   3.636
60359SOL    HW182974  10.243   9.470   3.616
60359SOL    HW282975  10.103   9.525   3.601
60360SOL     OW82976  11.462   1.112   6.123
60360SOL    HW182977  11.408   1.171   6.177
60360SOL    HW282978  11.450   1.144   6.034
60361SOL     OW82979  13.166   5.801  12.479
60361SOL    HW182980  13.216   5.745  12.539
60361SOL    HW282981  13.176   5.759  12.393
60362SOL     OW82982   2.779   9.081  12.814
60362SOL    HW182983   2.721   9.148  12.780
60362SOL    HW282984   2.727   9.000  12.811
60363SOL     OW82985   5.307   7.717   9.242
60363SOL    HW182986   5.345   7.686   9.324
60363SOL    HW282987   5.288   7.637   9.192
60364SOL     OW82988   2.271   1.910   5.051
60364SOL    HW182989   2.186   1.892   5.009
60364SOL    HW282990   2.336   1.879   4.988
60365SOL     OW82991   1.975   3.272   9.708
60365SOL    HW182992   1.958   3.208   9.778
60365SOL    HW282993   2.032   3.337   9.749
60366SOL     OW82994   1.917   6.407   1.954
60366SOL    HW182995   1.948   6.406   1.863
60366SOL    HW282996   1.895   6.498   1.971
60367SOL     OW82997  11.134   9.559  10.094
60367SOL    HW182998  11.074   9.579  10.166
60367SOL    HW282999  11.153   9.643  10.054
60368SOL     OW83000   6.456  10.075   2.736
60368SOL    HW183001   6.413  10.160   2.732
60368SOL    HW283002   6.431  10.039   2.821
60369SOL     OW83003  13.285  14.573  12.310
60369SOL    HW183004  13.332  14.515  12.369
60369SOL    HW283005  13.260  14.518  12.236
60370SOL     OW83006   4.517   3.311   9.609
60370SOL    HW183007   4.550   3.232   9.566
60370SOL    HW283008   4.582   3.378   9.590
60371SOL     OW83009   7.639   7.159  13.979
60371SOL    HW183010   7.609   7.086  14.033
60371SOL    HW283011   7.559   7.198  13.944
60372SOL     OW83012   1.391  13.727   7.106
60372SOL    HW183013   1.390  13.634   7.086
60372SOL    HW283014   1.350  13.769   7.031
60373SOL     OW83015   4.209   2.574   9.954
60373SOL    HW183016   4.285   2.555   9.900
60373SOL    HW283017   4.203   2.500  10.014
60374SOL     OW83018   7.624   5.119   1.305
60374SOL    HW183019   7.719   5.108   1.312
60374SOL    HW283020   7.595   5.042   1.256
60375SOL     OW83021  12.835   1.277  12.412
60375SOL    HW183022  12.753   1.308  12.450
60375SOL    HW283023  12.838   1.184  12.436
60376SOL     OW83024   3.401  12.025  13.061
60376SOL    HW183025   3.355  11.976  12.993
60376SOL    HW283026   3.488  12.041  13.026
60377SOL     OW83027   3.178   2.949   4.383
60377SOL    HW183028   3.194   2.855   4.375
60377SOL    HW283029   3.227   2.975   4.460
60378SOL     OW83030  11.118   9.806  11.841
60378SOL    HW183031  11.141   9.892  11.877
60378SOL    HW283032  11.028   9.792  11.868
60379SOL     OW83033  11.558   2.162   7.395
60379SOL    HW183034  11.581   2.246   7.354
60379SOL    HW283035  11.467   2.146   7.369
60380SOL     OW83036   5.604   3.926  14.534
60380SOL    HW183037   5.676   3.948  14.475
60380SOL    HW283038   5.558   4.008  14.549
60381SOL     OW83039  13.003   5.505  12.385
60381SOL    HW183040  13.030   5.425  12.430
60381SOL    HW283041  12.952   5.553  12.450
60382SOL     OW83042   7.541   1.284   3.870
60382SOL    HW183043   7.461   1.232   3.877
60382SOL    HW283044   7.558   1.315   3.959
60383SOL     OW83045  14.627  13.042  11.648
60383SOL    HW183046  14.565  13.114  11.644
60383SOL    HW283047  14.712  13.083  11.632
60384SOL     OW83048  11.952   5.110  14.791
60384SOL    HW183049  12.017   5.153  14.845
60384SOL    HW283050  11.966   5.016  14.806
60385SOL     OW83051   9.380   8.416   1.178
60385SOL    HW183052   9.458   8.471   1.186
60385SOL    HW283053   9.393   8.369   1.096
60386SOL     OW83054   0.681   8.778   3.793
60386SOL    HW183055   0.653   8.783   3.884
60386SOL    HW283056   0.677   8.869   3.762
60387SOL     OW83057   1.201   4.570   1.271
60387SOL    HW183058   1.213   4.565   1.366
60387SOL    HW283059   1.156   4.489   1.248
60388SOL     OW83060   1.447   9.957   1.036
60388SOL    HW183061   1.522   9.902   1.011
60388SOL    HW283062   1.399   9.970   0.955
60389SOL     OW83063  11.213   4.952  11.582
60389SOL    HW183064  11.120   4.954  11.558
60389SOL    HW283065  11.258   4.981  11.503
60390SOL     OW83066   4.697   2.209   7.843
60390SOL    HW183067   4.660   2.174   7.924
60390SOL    HW283068   4.685   2.139   7.779
60391SOL     OW83069  11.598   4.516   5.973
60391SOL    HW183070  11.658   4.447   6.003
60391SOL    HW283071  11.513   4.491   6.010
60392SOL     OW83072   5.900  13.775   0.261
60392SOL    HW183073   5.988  13.790   0.297
60392SOL    HW283074   5.847  13.751   0.337
60393SOL     OW83075  12.569   7.726  12.095
60393SOL    HW183076  12.652   7.702  12.055
60393SOL    HW283077  12.504   7.670  12.053
60394SOL     OW83078  10.934  10.413  11.632
60394SOL    HW183079  10.908  10.356  11.560
60394SOL    HW283080  10.967  10.492  11.589
60395SOL     OW83081  10.620   9.195   8.564
60395SOL    HW183082  10.703   9.151   8.580
60395SOL    HW283083  10.643   9.283   8.536
60396SOL     OW83084   4.570   4.246   8.748
60396SOL    HW183085   4.606   4.294   8.822
60396SOL    HW283086   4.508   4.307   8.708
60397SOL     OW83087  10.189   0.491   9.397
60397SOL    HW183088  10.097   0.488   9.422
60397SOL    HW283089  10.189   0.475   9.303
60398SOL     OW83090   6.855   9.873   7.947
60398SOL    HW183091   6.846   9.831   7.861
60398SOL    HW283092   6.839   9.966   7.929
60399SOL     OW83093   1.669  12.400   7.046
60399SOL    HW183094   1.603  12.442   7.101
60399SOL    HW283095   1.639  12.416   6.956
60400SOL     OW83096   3.147   3.981  13.756
60400SOL    HW183097   3.229   3.967  13.804
60400SOL    HW283098   3.079   3.964  13.821
60401SOL     OW83099   7.651   7.818   5.192
60401SOL    HW183100   7.616   7.896   5.235
60401SOL    HW283101   7.579   7.755   5.193
60402SOL     OW83102   4.355   9.618   1.078
60402SOL    HW183103   4.437   9.569   1.077
60402SOL    HW283104   4.287   9.551   1.087
60403SOL     OW83105   4.811  10.635   0.773
60403SOL    HW183106   4.848  10.722   0.787
60403SOL    HW283107   4.719  10.651   0.752
60404SOL     OW83108   1.739  12.366   2.842
60404SOL    HW183109   1.794  12.429   2.888
60404SOL    HW283110   1.723  12.297   2.906
60405SOL     OW83111   8.613   0.933   6.726
60405SOL    HW183112   8.671   0.868   6.687
60405SOL    HW283113   8.525   0.895   6.717
60406SOL     OW83114  13.974   0.991  13.876
60406SOL    HW183115  14.036   1.017  13.943
60406SOL    HW283116  14.014   1.019  13.794
60407SOL     OW83117   1.095  11.965   2.284
60407SOL    HW183118   1.157  11.954   2.356
60407SOL    HW283119   1.133  11.916   2.212
60408SOL     OW83120  13.178   0.024   7.052
60408SOL    HW183121  13.247  14.860   6.994
60408SOL    HW283122  13.129   0.087   6.999
60409SOL     OW83123   2.413   4.080   2.730
60409SOL    HW183124   2.479   4.033   2.680
60409SOL    HW283125   2.426   4.051   2.820
60410SOL     OW83126   0.965   0.884   2.134
60410SOL    HW183127   0.877   0.923   2.137
60410SOL    HW283128   0.961   0.812   2.196
60411SOL     OW83129  12.647  14.771  10.614
60411SOL    HW183130  12.743  14.766  10.620
60411SOL    HW283131  12.621  14.685  10.581
60412SOL     OW83132   3.232  11.509   3.721
60412SOL    HW183133   3.324  11.488   3.736
60412SOL    HW283134   3.197  11.528   3.808
60413SOL     OW83135  12.633   9.159   7.515
60413SOL    HW183136  12.585   9.227   7.561
60413SOL    HW283137  12.670   9.104   7.584
60414SOL     OW83138   3.611   6.214   4.159
60414SOL    HW183139   3.522   6.179   4.150
60414SOL    HW283140   3.628   6.258   4.076
60415SOL     OW83141   4.714   6.241   4.706
60415SOL    HW183142   4.637   6.208   4.753
60415SOL    HW283143   4.775   6.268   4.776
60416SOL     OW83144  13.815  13.739   4.134
60416SOL    HW183145  13.721  13.737   4.151
60416SOL    HW283146  13.826  13.692   4.051
60417SOL     OW83147   3.487   2.070   6.608
60417SOL    HW183148   3.465   2.163   6.601
60417SOL    HW283149   3.434   2.038   6.681
60418SOL     OW83150   6.117   6.419   1.340
60418SOL    HW183151   6.042   6.437   1.396
60418SOL    HW283152   6.103   6.331   1.306
60419SOL     OW83153  10.167   7.243   4.830
60419SOL    HW183154  10.240   7.220   4.887
60419SOL    HW283155  10.089   7.220   4.880
60420SOL     OW83156  13.979  12.917   7.407
60420SOL    HW183157  14.054  12.955   7.361
60420SOL    HW283158  14.017  12.873   7.482
60421SOL     OW83159  12.212  11.097   0.160
60421SOL    HW183160  12.220  11.139   0.074
60421SOL    HW283161  12.223  11.004   0.143
60422SOL     OW83162   8.795   5.235   4.295
60422SOL    HW183163   8.793   5.146   4.260
60422SOL    HW283164   8.716   5.242   4.348
60423SOL     OW83165   7.668   7.276   0.753
60423SOL    HW183166   7.721   7.223   0.693
60423SOL    HW283167   7.632   7.213   0.814
60424SOL     OW83168   7.383   8.171   8.093
60424SOL    HW183169   7.311   8.119   8.060
60424SOL    HW283170   7.455   8.156   8.031
60425SOL     OW83171  10.885   2.808   8.140
60425SOL    HW183172  10.794   2.794   8.168
60425SOL    HW283173  10.903   2.899   8.165
60426SOL     OW83174  13.402   2.681  11.845
60426SOL    HW183175  13.487   2.698  11.885
60426SOL    HW283176  13.352   2.634  11.912
60427SOL     OW83177  12.399   5.122  14.189
60427SOL    HW183178  12.375   5.030  14.193
60427SOL    HW283179  12.353   5.162  14.263
60428SOL     OW83180  11.587   2.779   2.193
60428SOL    HW183181  11.623   2.823   2.115
60428SOL    HW283182  11.567   2.851   2.253
60429SOL     OW83183   0.334   4.588  10.544
60429SOL    HW183184   0.320   4.664  10.600
60429SOL    HW283185   0.419   4.604  10.503
60430SOL     OW83186   3.541   7.037   2.785
60430SOL    HW183187   3.605   6.967   2.788
60430SOL    HW283188   3.460   6.995   2.755
60431SOL     OW83189   5.823  12.585   0.687
60431SOL    HW183190   5.757  12.653   0.672
60431SOL    HW283191   5.901  12.618   0.643
60432SOL     OW83192   6.244   1.295  12.398
60432SOL    HW183193   6.319   1.279  12.457
60432SOL    HW283194   6.263   1.240  12.321
60433SOL     OW83195   2.983   1.414   1.690
60433SOL    HW183196   2.950   1.398   1.602
60433SOL    HW283197   2.919   1.474   1.729
60434SOL     OW83198   9.467  11.192   0.867
60434SOL    HW183199   9.521  11.124   0.906
60434SOL    HW283200   9.407  11.145   0.809
60435SOL     OW83201   5.211  10.877  13.160
60435SOL    HW183202   5.259  10.796  13.175
60435SOL    HW283203   5.239  10.907  13.074
60436SOL     OW83204   3.845   7.478   0.125
60436SOL    HW183205   3.803   7.474   0.040
60436SOL    HW283206   3.864   7.386   0.147
60437SOL     OW83207  14.772   3.049   6.862
60437SOL    HW183208  14.723   3.036   6.781
60437SOL    HW283209  14.714   3.101   6.917
60438SOL     OW83210   0.718   6.538  12.327
60438SOL    HW183211   0.713   6.496  12.241
60438SOL    HW283212   0.801   6.586  12.326
60439SOL     OW83213   0.171   7.057   6.110
60439SOL    HW183214   0.153   6.994   6.180
60439SOL    HW283215   0.266   7.072   6.115
60440SOL     OW83216   5.410  13.351   4.959
60440SOL    HW183217   5.377  13.284   5.018
60440SOL    HW283218   5.380  13.324   4.872
60441SOL     OW83219   2.085   6.557   7.061
60441SOL    HW183220   2.087   6.639   7.111
60441SOL    HW283221   2.142   6.573   6.986
60442SOL     OW83222   5.582  11.038   7.833
60442SOL    HW183223   5.560  10.985   7.757
60442SOL    HW283224   5.608  10.975   7.900
60443SOL     OW83225   8.835   0.093  13.783
60443SOL    HW183226   8.806   0.147  13.857
60443SOL    HW283227   8.885   0.023  13.823
60444SOL     OW83228   3.158   8.753  13.546
60444SOL    HW183229   3.171   8.659  13.549
60444SOL    HW283230   3.156   8.781  13.638
60445SOL     OW83231   0.406   6.632   6.412
60445SOL    HW183232   0.402   6.691   6.487
60445SOL    HW283233   0.491   6.651   6.371
60446SOL     OW83234  12.887   3.712   7.950
60446SOL    HW183235  12.971   3.751   7.973
60446SOL    HW283236  12.876   3.732   7.858
60447SOL     OW83237  13.432  11.197   8.415
60447SOL    HW183238  13.420  11.217   8.322
60447SOL    HW283239  13.525  11.210   8.431
60448SOL     OW83240  10.145   3.044  10.175
60448SOL    HW183241  10.103   3.058  10.090
60448SOL    HW283242  10.149   3.132  10.214
60449SOL     OW83243  12.573   0.490   6.063
60449SOL    HW183244  12.565   0.545   5.985
60449SOL    HW283245  12.607   0.406   6.030
60450SOL     OW83246   2.117   6.949   5.317
60450SOL    HW183247   2.072   6.984   5.394
60450SOL    HW283248   2.047   6.923   5.258
60451SOL     OW83249  14.457   6.018   2.974
60451SOL    HW183250  14.500   5.998   2.891
60451SOL    HW283251  14.364   6.026   2.952
60452SOL     OW83252  10.961   4.665   8.478
60452SOL    HW183253  10.917   4.656   8.393
60452SOL    HW283254  10.933   4.751   8.510
60453SOL     OW83255   2.720   9.358  12.076
60453SOL    HW183256   2.773   9.438  12.078
60453SOL    HW283257   2.779   9.289  12.105
60454SOL     OW83258   1.977   5.451  12.716
60454SOL    HW183259   2.071   5.467  12.727
60454SOL    HW283260   1.966   5.358  12.731
60455SOL     OW83261  13.140   5.990  11.155
60455SOL    HW183262  13.216   6.043  11.131
60455SOL    HW283263  13.165   5.948  11.237
60456SOL     OW83264  12.492   6.866  10.302
60456SOL    HW183265  12.413   6.861  10.249
60456SOL    HW283266  12.487   6.951  10.345
60457SOL     OW83267  10.668   4.427   9.947
60457SOL    HW183268  10.649   4.432  10.041
60457SOL    HW283269  10.601   4.481   9.906
60458SOL     OW83270   0.467   1.549   3.520
60458SOL    HW183271   0.423   1.468   3.496
60458SOL    HW283272   0.520   1.526   3.597
60459SOL     OW83273   2.014   7.638  13.839
60459SOL    HW183274   2.060   7.651  13.922
60459SOL    HW283275   2.046   7.708  13.783
60460SOL     OW83276   6.923  13.456  14.278
60460SOL    HW183277   6.944  13.509  14.355
60460SOL    HW283278   6.844  13.496  14.243
60461SOL     OW83279   6.840   2.605   6.709
60461SOL    HW183280   6.874   2.674   6.766
60461SOL    HW283281   6.771   2.563   6.761
60462SOL     OW83282   7.256  12.774  14.500
60462SOL    HW183283   7.235  12.696  14.552
60462SOL    HW283284   7.171  12.814  14.483
60463SOL     OW83285   5.486  13.836   7.912
60463SOL    HW183286   5.515  13.800   7.996
60463SOL    HW283287   5.545  13.796   7.848
60464SOL     OW83288   9.590   6.747   2.714
60464SOL    HW183289   9.590   6.843   2.717
60464SOL    HW283290   9.505   6.721   2.749
60465SOL     OW83291   9.698  13.208   6.750
60465SOL    HW183292   9.622  13.177   6.798
60465SOL    HW283293   9.751  13.253   6.816
60466SOL     OW83294   1.581   0.339   3.716
60466SOL    HW183295   1.632   0.262   3.689
60466SOL    HW283296   1.560   0.324   3.808
60467SOL     OW83297   0.916   1.822  12.222
60467SOL    HW183298   0.848   1.887  12.206
60467SOL    HW283299   0.941   1.791  12.134
60468SOL     OW83300   0.952  10.533   9.851
60468SOL    HW183301   0.953  10.600   9.919
60468SOL    HW283302   0.866  10.541   9.810
60469SOL     OW83303  14.511   5.343   2.961
60469SOL    HW183304  14.516   5.322   3.054
60469SOL    HW283305  14.422   5.316   2.935
60470SOL     OW83306   9.929   0.283  13.276
60470SOL    HW183307   9.871   0.345  13.321
60470SOL    HW283308  10.002   0.271  13.337
60471SOL     OW83309  13.759  13.545  13.466
60471SOL    HW183310  13.703  13.498  13.404
60471SOL    HW283311  13.771  13.485  13.539
60472SOL     OW83312   3.756   0.349   9.672
60472SOL    HW183313   3.681   0.301   9.709
60472SOL    HW283314   3.780   0.300   9.594
60473SOL     OW83315   0.533   6.847   8.506
60473SOL    HW183316   0.520   6.774   8.566
60473SOL    HW283317   0.617   6.884   8.532
60474SOL     OW83318   5.562   1.564  12.069
60474SOL    HW183319   5.655   1.587  12.072
60474SOL    HW283320   5.556   1.483  12.121
60475SOL     OW83321   0.131  13.728  10.585
60475SOL    HW183322   0.153  13.792  10.653
60475SOL    HW283323   0.168  13.765  10.505
60476SOL     OW83324   1.191   3.447  10.944
60476SOL    HW183325   1.213   3.423  10.853
60476SOL    HW283326   1.095   3.450  10.945
60477SOL     OW83327  10.479  11.683  10.939
60477SOL    HW183328  10.438  11.767  10.919
60477SOL    HW283329  10.550  11.675  10.876
60478SOL     OW83330   7.158  11.428  13.590
60478SOL    HW183331   7.216  11.496  13.555
60478SOL    HW283332   7.150  11.449  13.683
60479SOL     OW83333  14.545  10.296  11.612
60479SOL    HW183334  14.609  10.280  11.543
60479SOL    HW283335  14.586  10.362  11.668
60480SOL     OW83336  14.550  12.302  12.006
60480SOL    HW183337  14.507  12.349  12.077
60480SOL    HW283338  14.517  12.344  11.926
60481SOL     OW83339  10.560  12.963  11.593
60481SOL    HW183340  10.572  12.911  11.514
60481SOL    HW283341  10.537  12.899  11.661
60482SOL     OW83342  10.737   2.023   8.489
60482SOL    HW183343  10.744   1.951   8.427
60482SOL    HW283344  10.748   1.982   8.575
60483SOL     OW83345   3.188  11.931   6.289
60483SOL    HW183346   3.163  11.888   6.208
60483SOL    HW283347   3.177  12.024   6.271
60484SOL     OW83348   7.623  11.301  10.942
60484SOL    HW183349   7.562  11.231  10.963
60484SOL    HW283350   7.601  11.328  10.853
60485SOL     OW83351   8.498   3.709   3.608
60485SOL    HW183352   8.594   3.714   3.611
60485SOL    HW283353   8.471   3.788   3.562
60486SOL     OW83354   5.200  13.062  13.062
60486SOL    HW183355   5.271  12.997  13.065
60486SOL    HW283356   5.186  13.086  13.153
60487SOL     OW83357  11.606   0.302   5.078
60487SOL    HW183358  11.533   0.360   5.101
60487SOL    HW283359  11.675   0.361   5.048
60488SOL     OW83360  13.262  13.064   8.950
60488SOL    HW183361  13.215  13.118   9.013
60488SOL    HW283362  13.288  13.124   8.880
60489SOL     OW83363  10.101   3.311   0.971
60489SOL    HW183364  10.177   3.297   1.028
60489SOL    HW283365  10.081   3.404   0.980
60490SOL     OW83366   3.582  13.763   3.916
60490SOL    HW183367   3.607  13.847   3.878
60490SOL    HW283368   3.514  13.786   3.981
60491SOL     OW83369  13.655  12.578  12.272
60491SOL    HW183370  13.573  12.573  12.321
60491SOL    HW283371  13.636  12.635  12.198
60492SOL     OW83372  10.579   9.312   2.544
60492SOL    HW183373  10.599   9.360   2.463
60492SOL    HW283374  10.609   9.223   2.526
60493SOL     OW83375   5.607   9.641   8.366
60493SOL    HW183376   5.534   9.702   8.378
60493SOL    HW283377   5.680   9.681   8.413
60494SOL     OW83378  13.403   9.743  12.938
60494SOL    HW183379  13.328   9.763  12.995
60494SOL    HW283380  13.468   9.705  12.996
60495SOL     OW83381   7.906   7.806   8.065
60495SOL    HW183382   7.864   7.769   8.142
60495SOL    HW283383   7.834   7.838   8.011
60496SOL     OW83384   1.076   0.229   9.208
60496SOL    HW183385   1.131   0.274   9.273
60496SOL    HW283386   1.115   0.252   9.124
60497SOL     OW83387  10.625   4.434   4.724
60497SOL    HW183388  10.645   4.457   4.634
60497SOL    HW283389  10.594   4.343   4.720
60498SOL     OW83390   5.867   1.926  14.094
60498SOL    HW183391   5.877   1.931  14.190
60498SOL    HW283392   5.853   1.833  14.076
60499SOL     OW83393   3.974   3.421  13.171
60499SOL    HW183394   4.049   3.449  13.118
60499SOL    HW283395   4.006   3.344  13.218
60500SOL     OW83396  14.792   4.108   4.517
60500SOL    HW183397  14.703   4.118   4.483
60500SOL    HW283398  14.837   4.188   4.489
60501SOL     OW83399   6.144  10.031  10.724
60501SOL    HW183400   6.149  10.052  10.817
60501SOL    HW283401   6.072   9.969  10.716
60502SOL     OW83402   8.809   9.161   6.710
60502SOL    HW183403   8.850   9.129   6.791
60502SOL    HW283404   8.724   9.118   6.707
60503SOL     OW83405  14.835   4.710   4.998
60503SOL    HW183406  14.845   4.620   4.967
60503SOL    HW283407  14.803   4.702   5.087
60504SOL     OW83408   0.878   8.324  11.837
60504SOL    HW183409   0.862   8.268  11.913
60504SOL    HW283410   0.847   8.273  11.762
60505SOL     OW83411   8.578   1.682   8.426
60505SOL    HW183412   8.646   1.671   8.492
60505SOL    HW283413   8.499   1.646   8.467
60506SOL     OW83414   5.340   5.816  12.761
60506SOL    HW183415   5.415   5.782  12.810
60506SOL    HW283416   5.269   5.821  12.826
60507SOL     OW83417   7.656  10.955   4.045
60507SOL    HW183418   7.596  10.978   3.974
60507SOL    HW283419   7.660  11.033   4.100
60508SOL     OW83420   8.161   7.807  10.937
60508SOL    HW183421   8.192   7.782  11.024
60508SOL    HW283422   8.090   7.746  10.918
60509SOL     OW83423   8.742   6.891   8.953
60509SOL    HW183424   8.670   6.941   8.914
60509SOL    HW283425   8.807   6.884   8.882
60510SOL     OW83426  10.804  10.804  11.835
60510SOL    HW183427  10.856  10.783  11.913
60510SOL    HW283428  10.861  10.784  11.761
60511SOL     OW83429  10.474  13.762  13.628
60511SOL    HW183430  10.512  13.802  13.550
60511SOL    HW283431  10.546  13.714  13.668
60512SOL     OW83432  12.629   5.728   8.160
60512SOL    HW183433  12.641   5.634   8.175
60512SOL    HW283434  12.703   5.769   8.205
60513SOL     OW83435   3.201   4.326   4.605
60513SOL    HW183436   3.131   4.350   4.544
60513SOL    HW283437   3.189   4.232   4.619
60514SOL     OW83438   7.490  13.944   3.021
60514SOL    HW183439   7.574  13.938   3.066
60514SOL    HW283440   7.437  13.873   3.059
60515SOL     OW83441  10.089   3.198   9.380
60515SOL    HW183442  10.174   3.184   9.422
60515SOL    HW283443  10.063   3.286   9.408
60516SOL     OW83444   5.205   6.932  13.347
60516SOL    HW183445   5.169   6.863  13.291
60516SOL    HW283446   5.131   6.990  13.364
60517SOL     OW83447   5.405   9.387  12.284
60517SOL    HW183448   5.362   9.315  12.329
60517SOL    HW283449   5.485   9.402  12.335
60518SOL     OW83450  12.169   6.209  11.339
60518SOL    HW183451  12.175   6.301  11.363
60518SOL    HW283452  12.222   6.201  11.260
60519SOL     OW83453  14.631  11.896   7.449
60519SOL    HW183454  14.672  11.854   7.374
60519SOL    HW283455  14.639  11.989   7.432
60520SOL     OW83456   4.562   1.297   2.793
60520SOL    HW183457   4.630   1.287   2.859
60520SOL    HW283458   4.486   1.252   2.829
60521SOL     OW83459   7.248   3.232   6.574
60521SOL    HW183460   7.173   3.285   6.544
60521SOL    HW283461   7.216   3.187   6.651
60522SOL     OW83462  14.480   1.277   2.676
60522SOL    HW183463  14.479   1.202   2.735
60522SOL    HW283464  14.533   1.247   2.602
60523SOL     OW83465   2.779   3.000  11.781
60523SOL    HW183466   2.837   2.967  11.849
60523SOL    HW283467   2.718   2.928  11.764
60524SOL     OW83468   1.733   2.484  13.706
60524SOL    HW183469   1.823   2.469  13.679
60524SOL    HW283470   1.708   2.403  13.752
60525SOL     OW83471   5.301   0.898  14.496
60525SOL    HW183472   5.238   0.843  14.450
60525SOL    HW283473   5.325   0.965  14.431
60526SOL     OW83474   7.878   2.999   1.696
60526SOL    HW183475   7.870   3.004   1.601
60526SOL    HW283476   7.797   3.038   1.729
60527SOL     OW83477  11.946   2.746   8.221
60527SOL    HW183478  12.040   2.741   8.203
60527SOL    HW283479  11.905   2.741   8.134
60528SOL     OW83480   2.010   1.197  10.652
60528SOL    HW183481   2.084   1.148  10.617
60528SOL    HW283482   1.985   1.257  10.582
60529SOL     OW83483   9.877   7.109  10.585
60529SOL    HW183484   9.865   7.032  10.641
60529SOL    HW283485   9.788   7.144  10.574
60530SOL     OW83486   0.615   1.087   5.472
60530SOL    HW183487   0.541   1.060   5.418
60530SOL    HW283488   0.678   1.122   5.410
60531SOL     OW83489  10.876   8.913   7.208
60531SOL    HW183490  10.821   8.974   7.160
60531SOL    HW283491  10.865   8.938   7.300
60532SOL     OW83492   3.488   3.287   5.816
60532SOL    HW183493   3.557   3.225   5.839
60532SOL    HW283494   3.409   3.250   5.856
60533SOL     OW83495   0.999  12.041   3.309
60533SOL    HW183496   0.958  12.035   3.223
60533SOL    HW283497   0.999  12.135   3.328
60534SOL     OW83498   5.862   3.701   4.306
60534SOL    HW183499   5.948   3.661   4.318
60534SOL    HW283500   5.854   3.710   4.211
60535SOL     OW83501   4.886  11.736  14.400
60535SOL    HW183502   4.932  11.706  14.321
60535SOL    HW283503   4.843  11.658  14.434
60536SOL     OW83504  14.014   1.533   2.639
60536SOL    HW183505  13.964   1.587   2.577
60536SOL    HW283506  14.073   1.595   2.683
60537SOL     OW83507  11.031  11.287  13.979
60537SOL    HW183508  11.062  11.218  14.038
60537SOL    HW283509  10.957  11.326  14.025
60538SOL     OW83510   8.795   9.427   0.132
60538SOL    HW183511   8.814   9.334   0.137
60538SOL    HW283512   8.784   9.454   0.223
60539SOL     OW83513   3.462   1.418   0.570
60539SOL    HW183514   3.490   1.506   0.595
60539SOL    HW283515   3.434   1.378   0.652
60540SOL     OW83516   0.550   3.739   6.914
60540SOL    HW183517   0.614   3.734   6.985
60540SOL    HW283518   0.520   3.649   6.901
60541SOL     OW83519   6.536  11.916   3.996
60541SOL    HW183520   6.529  11.843   4.057
60541SOL    HW283521   6.529  11.994   4.050
60542SOL     OW83522  14.767   4.003   2.219
60542SOL    HW183523  14.797   4.092   2.203
60542SOL    HW283524  14.716   3.981   2.141
60543SOL     OW83525   9.228  11.966   5.957
60543SOL    HW183526   9.155  11.990   6.015
60543SOL    HW283527   9.186  11.929   5.880
60544SOL     OW83528   7.921   2.964   0.523
60544SOL    HW183529   7.987   2.986   0.458
60544SOL    HW283530   7.847   3.020   0.503
60545SOL     OW83531  13.652  10.469   1.160
60545SOL    HW183532  13.732  10.420   1.140
60545SOL    HW283533  13.646  10.468   1.255
60546SOL     OW83534   1.567  14.487  11.206
60546SOL    HW183535   1.471  14.476  11.204
60546SOL    HW283536   1.599  14.422  11.144
60547SOL     OW83537   0.078  10.354  10.237
60547SOL    HW183538   0.161  10.352  10.189
60547SOL    HW283539   0.076  10.442  10.276
60548SOL     OW83540   7.162  12.326  14.001
60548SOL    HW183541   7.242  12.277  14.017
60548SOL    HW283542   7.156  12.332  13.906
60549SOL     OW83543  11.678  10.650   0.375
60549SOL    HW183544  11.667  10.626   0.283
60549SOL    HW283545  11.668  10.568   0.423
60550SOL     OW83546   3.273   8.920  10.678
60550SOL    HW183547   3.204   8.887  10.735
60550SOL    HW283548   3.242   8.905  10.589
60551SOL     OW83549   6.459   5.469  10.307
60551SOL    HW183550   6.509   5.549  10.290
60551SOL    HW283551   6.505   5.402  10.257
60552SOL     OW83552   4.137   9.272  12.461
60552SOL    HW183553   4.065   9.324  12.496
60552SOL    HW283554   4.095   9.207  12.405
60553SOL     OW83555   6.112   8.448  10.717
60553SOL    HW183556   6.079   8.379  10.774
60553SOL    HW283557   6.058   8.524  10.738
60554SOL     OW83558   6.890   4.066   5.858
60554SOL    HW183559   6.891   3.991   5.798
60554SOL    HW283560   6.821   4.123   5.825
60555SOL     OW83561  13.412   3.232   3.091
60555SOL    HW183562  13.352   3.162   3.116
60555SOL    HW283563  13.482   3.188   3.043
60556SOL     OW83564   1.124  14.131  12.766
60556SOL    HW183565   1.103  14.219  12.734
60556SOL    HW283566   1.205  14.143  12.815
60557SOL     OW83567  12.822   6.437  13.299
60557SOL    HW183568  12.896   6.387  13.333
60557SOL    HW283569  12.828   6.522  13.342
60558SOL     OW83570   5.167   9.133  11.400
60558SOL    HW183571   5.073   9.141  11.383
60558SOL    HW283572   5.209   9.158  11.317
60559SOL     OW83573   0.331   0.489   8.400
60559SOL    HW183574   0.239   0.511   8.388
60559SOL    HW283575   0.374   0.574   8.413
60560SOL     OW83576  13.302   1.197  14.380
60560SOL    HW183577  13.223   1.223  14.428
60560SOL    HW283578  13.342   1.280  14.354
60561SOL     OW83579   3.928   9.278   3.474
60561SOL    HW183580   3.967   9.257   3.559
60561SOL    HW283581   4.002   9.303   3.419
60562SOL     OW83582  14.664   1.028  13.804
60562SOL    HW183583  14.592   0.967  13.823
60562SOL    HW283584  14.702   1.047  13.890
60563SOL     OW83585   7.498   8.103   2.291
60563SOL    HW183586   7.439   8.132   2.361
60563SOL    HW283587   7.440   8.080   2.219
60564SOL     OW83588  10.476  11.004   5.471
60564SOL    HW183589  10.435  11.044   5.395
60564SOL    HW283590  10.515  10.923   5.437
60565SOL     OW83591  11.084   0.852   4.961
60565SOL    HW183592  11.119   0.870   5.048
60565SOL    HW283593  11.117   0.765   4.939
60566SOL     OW83594  14.693  11.686   2.922
60566SOL    HW183595  14.693  11.672   3.016
60566SOL    HW283596  14.767  11.634   2.889
60567SOL     OW83597   9.104   2.138   4.340
60567SOL    HW183598   9.125   2.136   4.433
60567SOL    HW283599   9.104   2.046   4.314
60568SOL     OW83600   0.960   6.851   9.362
60568SOL    HW183601   0.893   6.812   9.305
60568SOL    HW283602   0.918   6.857   9.448
60569SOL     OW83603  11.959   7.507   5.800
60569SOL    HW183604  11.953   7.479   5.891
60569SOL    HW283605  12.043   7.472   5.770
60570SOL     OW83606   7.693   1.186   3.175
60570SOL    HW183607   7.658   1.131   3.105
60570SOL    HW283608   7.781   1.153   3.190
60571SOL     OW83609  11.600   0.271   2.936
60571SOL    HW183610  11.687   0.237   2.958
60571SOL    HW283611  11.595   0.355   2.981
60572SOL     OW83612  12.158   9.083   5.021
60572SOL    HW183613  12.185   9.156   4.966
60572SOL    HW283614  12.203   9.098   5.104
60573SOL     OW83615  13.967   4.535  10.325
60573SOL    HW183616  14.024   4.507  10.397
60573SOL    HW283617  14.026   4.580  10.264
60574SOL     OW83618  11.010   8.959  14.189
60574SOL    HW183619  10.955   8.888  14.154
60574SOL    HW283620  11.088   8.958  14.133
60575SOL     OW83621   4.599  13.204   5.565
60575SOL    HW183622   4.550  13.215   5.483
60575SOL    HW283623   4.576  13.117   5.596
60576SOL     OW83624   0.187  12.795   9.333
60576SOL    HW183625   0.238  12.854   9.278
60576SOL    HW283626   0.207  12.821   9.422
60577SOL     OW83627   6.559   4.931   6.751
60577SOL    HW183628   6.636   4.875   6.757
60577SOL    HW283629   6.531   4.943   6.842
60578SOL     OW83630   5.279  14.561  11.931
60578SOL    HW183631   5.223  14.608  11.992
60578SOL    HW283632   5.277  14.613  11.851
60579SOL     OW83633  11.729   1.685   7.211
60579SOL    HW183634  11.659   1.746   7.233
60579SOL    HW283635  11.711   1.607   7.264
60580SOL     OW83636   7.892  10.699   2.070
60580SOL    HW183637   7.943  10.690   2.151
60580SOL    HW283638   7.954  10.676   2.001
60581SOL     OW83639  13.889  13.051   3.820
60581SOL    HW183640  13.922  13.121   3.763
60581SOL    HW283641  13.804  13.083   3.851
60582SOL     OW83642   0.291   6.134   6.022
60582SOL    HW183643   0.381   6.100   6.023
60582SOL    HW283644   0.238   6.061   6.053
60583SOL     OW83645   4.913   1.588  10.465
60583SOL    HW183646   4.946   1.673  10.493
60583SOL    HW283647   4.933   1.529  10.538
60584SOL     OW83648   2.657  10.076  10.049
60584SOL    HW183649   2.701  10.130  10.115
60584SOL    HW283650   2.590  10.133  10.013
60585SOL     OW83651  11.928  10.145   3.481
60585SOL    HW183652  11.860  10.158   3.547
60585SOL    HW283653  11.999  10.203   3.507
60586SOL     OW83654   3.573  14.458   7.988
60586SOL    HW183655   3.637  14.497   8.048
60586SOL    HW283656   3.540  14.381   8.035
60587SOL     OW83657   0.546  11.747  12.003
60587SOL    HW183658   0.475  11.688  11.981
60587SOL    HW283659   0.511  11.800  12.076
60588SOL     OW83660   0.892  10.276  12.958
60588SOL    HW183661   0.929  10.364  12.971
60588SOL    HW283662   0.938  10.242  12.881
60589SOL     OW83663   7.560   5.483   7.608
60589SOL    HW183664   7.547   5.554   7.545
60589SOL    HW283665   7.573   5.528   7.692
60590SOL     OW83666  10.620  10.391   6.537
60590SOL    HW183667  10.584  10.479   6.528
60590SOL    HW283668  10.543  10.334   6.537
60591SOL     OW83669   9.625   3.078   5.367
60591SOL    HW183670   9.565   3.085   5.442
60591SOL    HW283671   9.624   2.986   5.343
60592SOL     OW83672   6.098  10.264   4.969
60592SOL    HW183673   6.182  10.308   4.984
60592SOL    HW283674   6.032  10.332   4.984
60593SOL     OW83675   1.050   2.353   0.836
60593SOL    HW183676   1.134   2.318   0.863
60593SOL    HW283677   1.001   2.277   0.804
60594SOL     OW83678   0.662  11.394   1.984
60594SOL    HW183679   0.585  11.336   1.983
60594SOL    HW283680   0.632  11.474   1.941
60595SOL     OW83681   8.937   1.771  10.725
60595SOL    HW183682   8.850   1.750  10.759
60595SOL    HW283683   8.925   1.776  10.630
60596SOL     OW83684  14.378   9.809   7.193
60596SOL    HW183685  14.448   9.745   7.182
60596SOL    HW283686  14.422   9.886   7.231
60597SOL     OW83687   5.859   3.620  14.627
60597SOL    HW183688   5.838   3.646  14.538
60597SOL    HW283689   5.807   3.679  14.682
60598SOL     OW83690  12.935  12.665   3.945
60598SOL    HW183691  12.925  12.751   3.904
60598SOL    HW283692  12.944  12.684   4.039
60599SOL     OW83693   4.215   2.330   1.838
60599SOL    HW183694   4.135   2.382   1.834
60599SOL    HW283695   4.277   2.378   1.783
60600SOL     OW83696   2.715   6.124   7.375
60600SOL    HW183697   2.707   6.029   7.373
60600SOL    HW283698   2.731   6.145   7.467
60601SOL     OW83699   9.845   3.167   6.154
60601SOL    HW183700   9.862   3.225   6.228
60601SOL    HW283701   9.752   3.180   6.134
60602SOL     OW83702   8.860   3.854   8.627
60602SOL    HW183703   8.938   3.809   8.661
60602SOL    HW283704   8.792   3.835   8.692
60603SOL     OW83705   8.500   4.449   1.188
60603SOL    HW183706   8.498   4.487   1.276
60603SOL    HW283707   8.553   4.370   1.197
60604SOL     OW83708  11.642   2.258   7.746
60604SOL    HW183709  11.608   2.340   7.709
60604SOL    HW283710  11.580   2.235   7.815
60605SOL     OW83711  14.078   4.968   8.914
60605SOL    HW183712  13.990   4.986   8.881
60605SOL    HW283713  14.124   4.930   8.839
60606SOL     OW83714   8.344   1.478  13.634
60606SOL    HW183715   8.281   1.505  13.700
60606SOL    HW283716   8.321   1.530  13.556
60607SOL     OW83717   3.439   8.111   0.292
60607SOL    HW183718   3.517   8.100   0.237
60607SOL    HW283719   3.394   8.187   0.254
60608SOL     OW83720   5.065   5.646  12.514
60608SOL    HW183721   4.980   5.644  12.559
60608SOL    HW283722   5.054   5.712  12.445
60609SOL     OW83723  13.156   7.730  10.930
60609SOL    HW183724  13.115   7.730  10.844
60609SOL    HW283725  13.199   7.816  10.936
60610SOL     OW83726  13.795  12.611   9.192
60610SOL    HW183727  13.803  12.635   9.100
60610SOL    HW283728  13.784  12.516   9.191
60611SOL     OW83729  14.169   5.525   3.493
60611SOL    HW183730  14.256   5.501   3.527
60611SOL    HW283731  14.113   5.452   3.521
60612SOL     OW83732   6.416   1.869   6.137
60612SOL    HW183733   6.484   1.846   6.074
60612SOL    HW283734   6.455   1.851   6.222
60613SOL     OW83735   3.459  10.590   0.925
60613SOL    HW183736   3.415  10.507   0.943
60613SOL    HW283737   3.448  10.603   0.831
60614SOL     OW83738  10.945   0.861   6.217
60614SOL    HW183739  10.964   0.894   6.305
60614SOL    HW283740  11.027   0.821   6.188
60615SOL     OW83741   2.640   8.051   3.911
60615SOL    HW183742   2.723   8.018   3.876
60615SOL    HW283743   2.640   8.023   4.003
60616SOL     OW83744   9.007  11.791   8.617
60616SOL    HW183745   8.970  11.703   8.615
60616SOL    HW283746   9.102  11.777   8.607
60617SOL     OW83747  13.335   6.909   9.110
60617SOL    HW183748  13.427   6.904   9.085
60617SOL    HW283749  13.308   6.997   9.084
60618SOL     OW83750   3.667  13.737   5.133
60618SOL    HW183751   3.678  13.648   5.099
60618SOL    HW283752   3.706  13.793   5.066
60619SOL     OW83753   2.930   2.621   1.588
60619SOL    HW183754   2.861   2.592   1.528
60619SOL    HW283755   3.012   2.602   1.543
60620SOL     OW83756   8.885   5.784  12.244
60620SOL    HW183757   8.919   5.837  12.171
60620SOL    HW283758   8.957   5.726  12.267
60621SOL     OW83759  14.134   1.441   1.310
60621SOL    HW183760  14.140   1.403   1.223
60621SOL    HW283761  14.224   1.460   1.335
60622SOL     OW83762   1.131  12.602  14.335
60622SOL    HW183763   1.103  12.560  14.416
60622SOL    HW283764   1.120  12.535  14.267
60623SOL     OW83765   7.017  12.437  11.258
60623SOL    HW183766   7.034  12.522  11.218
60623SOL    HW283767   7.013  12.376  11.185
60624SOL     OW83768   2.941  12.888   4.744
60624SOL    HW183769   2.869  12.846   4.698
60624SOL    HW283770   2.927  12.982   4.731
60625SOL     OW83771   9.996   8.030  13.041
60625SOL    HW183772   9.948   8.029  13.124
60625SOL    HW283773  10.087   8.048  13.065
60626SOL     OW83774   4.637   0.092   0.909
60626SOL    HW183775   4.606   0.155   0.843
60626SOL    HW283776   4.635   0.142   0.991
60627SOL     OW83777  12.686   4.388  10.242
60627SOL    HW183778  12.634   4.467  10.246
60627SOL    HW283779  12.624   4.317  10.258
60628SOL     OW83780   3.706   9.465   6.931
60628SOL    HW183781   3.618   9.432   6.949
60628SOL    HW283782   3.739   9.407   6.862
60629SOL     OW83783   5.281  10.370   9.182
60629SOL    HW183784   5.375  10.362   9.168
60629SOL    HW283785   5.273  10.430   9.256
60630SOL     OW83786   8.822  10.427  10.684
60630SOL    HW183787   8.908  10.407  10.648
60630SOL    HW283788   8.762  10.367  10.639
60631SOL     OW83789   6.207   9.418   2.534
60631SOL    HW183790   6.183   9.344   2.478
60631SOL    HW283791   6.280   9.386   2.587
60632SOL     OW83792   6.535  13.899   2.423
60632SOL    HW183793   6.561  13.880   2.513
60632SOL    HW283794   6.599  13.963   2.392
60633SOL     OW83795   3.624  13.753   2.485
60633SOL    HW183796   3.538  13.732   2.448
60633SOL    HW283797   3.648  13.675   2.536
60634SOL     OW83798  12.090  11.534  13.624
60634SOL    HW183799  12.080  11.629  13.626
60634SOL    HW283800  12.167  11.519  13.568
60635SOL     OW83801   8.496   4.942  11.301
60635SOL    HW183802   8.537   5.008  11.357
60635SOL    HW283803   8.466   4.990  11.224
60636SOL     OW83804   0.851   5.763  13.181
60636SOL    HW183805   0.780   5.807  13.229
60636SOL    HW283806   0.911   5.834  13.158
60637SOL     OW83807   6.299  10.656  11.462
60637SOL    HW183808   6.337  10.731  11.416
60637SOL    HW283809   6.205  10.660  11.442
60638SOL     OW83810   0.965  11.800  12.553
60638SOL    HW183811   0.905  11.875  12.556
60638SOL    HW283812   0.970  11.776  12.461
60639SOL     OW83813  12.173   9.296  13.859
60639SOL    HW183814  12.208   9.214  13.827
60639SOL    HW283815  12.106   9.270  13.922
60640SOL     OW83816   3.067   0.947   5.339
60640SOL    HW183817   3.002   0.877   5.348
60640SOL    HW283818   3.039   1.013   5.403
60641SOL     OW83819   5.361   1.347  11.694
60641SOL    HW183820   5.378   1.440  11.706
60641SOL    HW283821   5.445   1.310  11.666
60642SOL     OW83822   6.782   4.966   1.325
60642SOL    HW183823   6.774   4.968   1.421
60642SOL    HW283824   6.875   4.984   1.309
60643SOL     OW83825  13.466   8.546   3.762
60643SOL    HW183826  13.378   8.544   3.800
60643SOL    HW283827  13.502   8.629   3.791
60644SOL     OW83828  12.631   3.492   5.622
60644SOL    HW183829  12.670   3.444   5.548
60644SOL    HW283830  12.644   3.584   5.600
60645SOL     OW83831   3.727   8.070   3.147
60645SOL    HW183832   3.797   8.113   3.194
60645SOL    HW283833   3.705   8.130   3.075
60646SOL     OW83834   5.592  13.080   3.856
60646SOL    HW183835   5.524  13.052   3.918
60646SOL    HW283836   5.674  13.054   3.897
60647SOL     OW83837   2.751   5.392   3.993
60647SOL    HW183838   2.810   5.365   4.064
60647SOL    HW283839   2.664   5.361   4.022
60648SOL     OW83840   0.619   9.263   4.973
60648SOL    HW183841   0.561   9.332   5.007
60648SOL    HW283842   0.625   9.282   4.879
60649SOL     OW83843  12.593   3.137  11.127
60649SOL    HW183844  12.596   3.075  11.200
60649SOL    HW283845  12.510   3.183  11.139
60650SOL     OW83846   4.267  10.319   8.072
60650SOL    HW183847   4.293  10.387   8.010
60650SOL    HW283848   4.284  10.357   8.158
60651SOL     OW83849   9.352   5.451   4.152
60651SOL    HW183850   9.367   5.531   4.102
60651SOL    HW283851   9.258   5.436   4.146
60652SOL     OW83852   5.013   7.669   0.467
60652SOL    HW183853   5.035   7.629   0.383
60652SOL    HW283854   5.096   7.701   0.501
60653SOL     OW83855   4.851   1.533   3.157
60653SOL    HW183856   4.847   1.582   3.075
60653SOL    HW283857   4.763   1.498   3.170
60654SOL     OW83858   4.809  11.989   9.969
60654SOL    HW183859   4.880  12.053   9.974
60654SOL    HW283860   4.852  11.904   9.971
60655SOL     OW83861   4.027   5.307   6.803
60655SOL    HW183862   4.102   5.316   6.862
60655SOL    HW283863   3.957   5.272   6.858
60656SOL     OW83864   5.312   8.220  11.801
60656SOL    HW183865   5.390   8.177  11.766
60656SOL    HW283866   5.343   8.270  11.876
60657SOL     OW83867   6.963   4.662   3.776
60657SOL    HW183868   6.886   4.676   3.721
60657SOL    HW283869   7.024   4.614   3.721
60658SOL     OW83870   4.976   3.748   9.114
60658SOL    HW183871   4.935   3.801   9.046
60658SOL    HW283872   4.907   3.733   9.179
60659SOL     OW83873   9.361   6.886  12.710
60659SOL    HW183874   9.311   6.955  12.753
60659SOL    HW283875   9.318   6.805  12.738
60660SOL     OW83876   9.376  12.056   7.319
60660SOL    HW183877   9.405  11.991   7.255
60660SOL    HW283878   9.454  12.074   7.372
60661SOL     OW83879  12.940   5.275   4.424
60661SOL    HW183880  12.847   5.274   4.401
60661SOL    HW283881  12.944   5.230   4.508
60662SOL     OW83882   8.430   2.413   1.746
60662SOL    HW183883   8.393   2.354   1.681
60662SOL    HW283884   8.473   2.482   1.695
60663SOL     OW83885   8.406  12.155   3.454
60663SOL    HW183886   8.353  12.197   3.522
60663SOL    HW283887   8.486  12.128   3.498
60664SOL     OW83888   7.451   5.774  11.096
60664SOL    HW183889   7.504   5.700  11.123
60664SOL    HW283890   7.446   5.767  11.001
60665SOL     OW83891   5.437  13.219  10.496
60665SOL    HW183892   5.410  13.128  10.480
60665SOL    HW283893   5.397  13.268  10.424
60666SOL     OW83894   4.760  14.183   2.439
60666SOL    HW183895   4.707  14.109   2.411
60666SOL    HW283896   4.734  14.199   2.530
60667SOL     OW83897  14.861   2.660  12.424
60667SOL    HW183898  14.845   2.721  12.496
60667SOL    HW283899  14.795   2.592  12.435
60668SOL     OW83900   0.229  14.822   4.216
60668SOL    HW183901   0.228  14.739   4.168
60668SOL    HW283902   0.318  14.855   4.206
60669SOL     OW83903  12.583   7.072   3.914
60669SOL    HW183904  12.644   7.115   3.854
60669SOL    HW283905  12.554   6.994   3.866
60670SOL     OW83906   3.342   4.128   7.931
60670SOL    HW183907   3.394   4.073   7.990
60670SOL    HW283908   3.331   4.075   7.852
60671SOL     OW83909   8.532  11.242   8.826
60671SOL    HW183910   8.558  11.256   8.735
60671SOL    HW283911   8.488  11.156   8.826
60672SOL     OW83912   6.373   4.467   8.258
60672SOL    HW183913   6.292   4.512   8.283
60672SOL    HW283914   6.386   4.401   8.326
60673SOL     OW83915  13.120  11.047  14.232
60673SOL    HW183916  13.153  11.094  14.155
60673SOL    HW283917  13.026  11.041  14.218
60674SOL     OW83918   7.185   8.996  12.078
60674SOL    HW183919   7.189   9.060  12.149
60674SOL    HW283920   7.270   9.001  12.036
60675SOL     OW83921   9.439   5.774   4.889
60675SOL    HW183922   9.454   5.811   4.976
60675SOL    HW283923   9.524   5.741   4.861
60676SOL     OW83924  13.138   1.516   5.659
60676SOL    HW183925  13.107   1.603   5.684
60676SOL    HW283926  13.069   1.482   5.601
60677SOL     OW83927  13.357   9.509   8.967
60677SOL    HW183928  13.320   9.584   9.015
60677SOL    HW283929  13.443   9.539   8.938
60678SOL     OW83930   3.853   2.610   2.493
60678SOL    HW183931   3.905   2.651   2.424
60678SOL    HW283932   3.839   2.681   2.556
60679SOL     OW83933   7.984   7.839   0.021
60679SOL    HW183934   7.962   7.786   0.097
60679SOL    HW283935   8.067   7.880   0.044
60680SOL     OW83936   3.471  12.571  11.754
60680SOL    HW183937   3.518  12.654  11.757
60680SOL    HW283938   3.466  12.549  11.661
60681SOL     OW83939   5.175  13.834   8.615
60681SOL    HW183940   5.189  13.867   8.704
60681SOL    HW283941   5.090  13.869   8.590
60682SOL     OW83942   1.065   6.366   6.799
60682SOL    HW183943   1.159   6.380   6.812
60682SOL    HW283944   1.045   6.409   6.717
60683SOL     OW83945   5.182   9.323   3.411
60683SOL    HW183946   5.215   9.235   3.424
60683SOL    HW283947   5.260   9.378   3.407
60684SOL     OW83948   7.883   6.048   5.955
60684SOL    HW183949   7.805   6.039   6.010
60684SOL    HW283950   7.852   6.095   5.878
60685SOL     OW83951   6.091   9.326  10.818
60685SOL    HW183952   6.012   9.273  10.814
60685SOL    HW283953   6.109   9.350  10.726
60686SOL     OW83954   3.655   8.788  11.645
60686SOL    HW183955   3.734   8.779  11.698
60686SOL    HW283956   3.685   8.773  11.555
60687SOL     OW83957   8.828  14.301   6.138
60687SOL    HW183958   8.876  14.383   6.139
60687SOL    HW283959   8.821  14.275   6.230
60688SOL     OW83960   1.177   8.500   9.289
60688SOL    HW183961   1.230   8.468   9.216
60688SOL    HW283962   1.124   8.570   9.251
60689SOL     OW83963   1.599  12.738   8.063
60689SOL    HW183964   1.691  12.724   8.044
60689SOL    HW283965   1.555  12.662   8.025
60690SOL     OW83966   7.409  12.498   3.330
60690SOL    HW183967   7.369  12.568   3.382
60690SOL    HW283968   7.392  12.418   3.380
60691SOL     OW83969  13.898   9.407   3.694
60691SOL    HW183970  13.848   9.451   3.763
60691SOL    HW283971  13.978   9.459   3.685
60692SOL     OW83972   5.936   5.526   7.576
60692SOL    HW183973   5.901   5.469   7.507
60692SOL    HW283974   5.862   5.579   7.604
60693SOL     OW83975   5.879  10.453  12.972
60693SOL    HW183976   5.871  10.503  13.053
60693SOL    HW283977   5.892  10.519  12.904
60694SOL     OW83978   4.562   9.179  13.467
60694SOL    HW183979   4.609   9.255  13.433
60694SOL    HW283980   4.570   9.186  13.562
60695SOL     OW83981   4.129   8.724   3.237
60695SOL    HW183982   4.171   8.797   3.282
60695SOL    HW283983   4.200   8.663   3.217
60696SOL     OW83984   4.628   1.545   4.768
60696SOL    HW183985   4.664   1.469   4.815
60696SOL    HW283986   4.652   1.620   4.822
60697SOL     OW83987   5.945   0.032   4.426
60697SOL    HW183988   5.940  14.811   4.461
60697SOL    HW283989   6.039   0.048   4.414
60698SOL     OW83990  10.887   2.806   7.126
60698SOL    HW183991  10.868   2.858   7.048
60698SOL    HW283992  10.801   2.787   7.163
60699SOL     OW83993   7.643   5.730   4.795
60699SOL    HW183994   7.603   5.743   4.881
60699SOL    HW283995   7.731   5.699   4.814
60700SOL     OW83996   4.229   0.866  10.015
60700SOL    HW183997   4.274   0.811  10.079
60700SOL    HW283998   4.163   0.809   9.976
60701SOL     OW83999  12.801   4.683   4.180
60701SOL    HW184000  12.760   4.600   4.159
60701SOL    HW284001  12.886   4.660   4.219
60702SOL     OW84002   6.590   6.405  12.726
60702SOL    HW184003   6.591   6.416  12.631
60702SOL    HW284004   6.572   6.312  12.740
60703SOL     OW84005  11.038  10.848  12.287
60703SOL    HW184006  11.008  10.800  12.210
60703SOL    HW284007  10.962  10.848  12.346
60704SOL     OW84008   9.657   1.596   7.375
60704SOL    HW184009   9.694   1.546   7.303
60704SOL    HW284010   9.695   1.683   7.366
60705SOL     OW84011  12.884   1.400   8.882
60705SOL    HW184012  12.856   1.347   8.807
60705SOL    HW284013  12.970   1.433   8.857
60706SOL     OW84014   2.475   6.918   4.321
60706SOL    HW184015   2.416   6.950   4.390
60706SOL    HW284016   2.462   6.977   4.248
60707SOL     OW84017   9.212  10.175   9.645
60707SOL    HW184018   9.168  10.090   9.637
60707SOL    HW284019   9.146  10.238   9.617
60708SOL     OW84020   8.930  11.622   3.041
60708SOL    HW184021   8.958  11.603   3.131
60708SOL    HW284022   8.954  11.544   2.992
60709SOL     OW84023   1.856   1.536   8.940
60709SOL    HW184024   1.931   1.513   8.886
60709SOL    HW284025   1.893   1.553   9.027
60710SOL     OW84026   4.954  11.537   9.121
60710SOL    HW184027   4.966  11.535   9.216
60710SOL    HW284028   4.887  11.470   9.104
60711SOL     OW84029   7.408   1.429  12.711
60711SOL    HW184030   7.428   1.512  12.755
60711SOL    HW284031   7.312   1.424  12.712
60712SOL     OW84032   7.964   3.329   9.994
60712SOL    HW184033   8.055   3.324   9.963
60712SOL    HW284034   7.958   3.260  10.061
60713SOL     OW84035   9.140   5.907  14.711
60713SOL    HW184036   9.089   5.844  14.660
60713SOL    HW284037   9.173   5.969  14.647
60714SOL     OW84038   8.102   0.951  11.433
60714SOL    HW184039   8.028   1.011  11.429
60714SOL    HW284040   8.091   0.894  11.357
60715SOL     OW84041   9.740   0.302  13.768
60715SOL    HW184042   9.660   0.321  13.718
60715SOL    HW284043   9.756   0.381  13.819
60716SOL     OW84044   5.993   2.713  13.607
60716SOL    HW184045   6.085   2.712  13.635
60716SOL    HW284046   5.945   2.677  13.681
60717SOL     OW84047   5.715   8.252  14.105
60717SOL    HW184048   5.654   8.179  14.099
60717SOL    HW284049   5.659   8.330  14.103
60718SOL     OW84050   8.874   6.069   9.176
60718SOL    HW184051   8.846   6.115   9.255
60718SOL    HW284052   8.816   6.102   9.107
60719SOL     OW84053   5.469   4.358  12.607
60719SOL    HW184054   5.561   4.375  12.591
60719SOL    HW284055   5.422   4.420  12.551
60720SOL     OW84056  13.637  10.690   9.443
60720SOL    HW184057  13.561  10.748   9.436
60720SOL    HW284058  13.690  10.728   9.513
60721SOL     OW84059  10.280   3.212   2.673
60721SOL    HW184060  10.330   3.157   2.734
60721SOL    HW284061  10.191   3.176   2.677
60722SOL     OW84062   1.423   7.840   2.569
60722SOL    HW184063   1.458   7.756   2.597
60722SOL    HW284064   1.473   7.861   2.490
60723SOL     OW84065   3.899   9.504   9.843
60723SOL    HW184066   3.871   9.593   9.864
60723SOL    HW284067   3.867   9.451   9.916
60724SOL     OW84068   9.657   5.789   9.517
60724SOL    HW184069   9.700   5.874   9.507
60724SOL    HW284070   9.580   5.794   9.460
60725SOL     OW84071  14.587   5.264  12.903
60725SOL    HW184072  14.537   5.212  12.840
60725SOL    HW284073  14.523   5.325  12.939
60726SOL     OW84074   8.348   9.182   6.863
60726SOL    HW184075   8.319   9.268   6.832
60726SOL    HW284076   8.292   9.165   6.939
60727SOL     OW84077   4.490   0.671  14.435
60727SOL    HW184078   4.559   0.724  14.475
60727SOL    HW284079   4.495   0.691  14.342
60728SOL     OW84080   1.337   0.549   7.259
60728SOL    HW184081   1.280   0.542   7.182
60728SOL    HW284082   1.371   0.461   7.272
60729SOL     OW84083   1.587  14.119   4.948
60729SOL    HW184084   1.595  14.211   4.923
60729SOL    HW284085   1.656  14.075   4.898
60730SOL     OW84086   2.753  14.388   0.646
60730SOL    HW184087   2.707  14.469   0.623
60730SOL    HW284088   2.740  14.380   0.741
60731SOL     OW84089   6.111  10.551  14.606
60731SOL    HW184090   6.193  10.596  14.582
60731SOL    HW284091   6.119  10.464  14.567
60732SOL     OW84092  14.817   4.054  13.687
60732SOL    HW184093   0.022   3.993  13.672
60732SOL    HW284094  14.853   4.119  13.747
60733SOL     OW84095  14.325   2.938   3.462
60733SOL    HW184096  14.420   2.941   3.470
60733SOL    HW284097  14.311   2.895   3.377
60734SOL     OW84098   7.136   2.057   7.685
60734SOL    HW184099   7.136   1.962   7.682
60734SOL    HW284100   7.158   2.084   7.597
60735SOL     OW84101   6.722   6.731   7.978
60735SOL    HW184102   6.685   6.780   7.905
60735SOL    HW284103   6.655   6.667   8.002
60736SOL     OW84104   1.230  12.472   4.304
60736SOL    HW184105   1.296  12.488   4.237
60736SOL    HW284106   1.154  12.523   4.276
60737SOL     OW84107  14.073  10.369  11.169
60737SOL    HW184108  14.066  10.332  11.257
60737SOL    HW284109  14.104  10.458  11.182
60738SOL     OW84110   1.923  14.111   7.826
60738SOL    HW184111   2.008  14.069   7.809
60738SOL    HW284112   1.932  14.199   7.790
60739SOL     OW84113   7.075   0.645  10.022
60739SOL    HW184114   7.057   0.738  10.008
60739SOL    HW284115   7.007   0.617  10.084
60740SOL     OW84116   3.244  12.989   3.908
60740SOL    HW184117   3.259  13.021   3.997
60740SOL    HW284118   3.150  12.994   3.895
60741SOL     OW84119   2.060   4.560   4.689
60741SOL    HW184120   2.027   4.546   4.600
60741SOL    HW284121   2.118   4.635   4.682
60742SOL     OW84122   4.473   4.400   5.484
60742SOL    HW184123   4.445   4.446   5.564
60742SOL    HW284124   4.444   4.457   5.413
60743SOL     OW84125   7.620   8.139   4.443
60743SOL    HW184126   7.690   8.120   4.506
60743SOL    HW284127   7.637   8.229   4.415
60744SOL     OW84128   6.724  11.884  10.747
60744SOL    HW184129   6.754  11.864  10.659
60744SOL    HW284130   6.666  11.959  10.736
60745SOL     OW84131   5.445   6.678   9.826
60745SOL    HW184132   5.418   6.703   9.738
60745SOL    HW284133   5.446   6.582   9.825
60746SOL     OW84134   4.521   0.087   8.547
60746SOL    HW184135   4.514   0.158   8.484
60746SOL    HW284136   4.602   0.107   8.595
60747SOL     OW84137  14.841   6.987   8.764
60747SOL    HW184138  14.808   7.062   8.716
60747SOL    HW284139   0.053   6.961   8.717
60748SOL     OW84140   0.790   5.424   2.482
60748SOL    HW184141   0.759   5.425   2.391
60748SOL    HW284142   0.829   5.511   2.495
60749SOL     OW84143   2.336   8.415   9.694
60749SOL    HW184144   2.354   8.331   9.652
60749SOL    HW284145   2.242   8.428   9.682
60750SOL     OW84146   1.378   8.750   9.603
60750SOL    HW184147   1.382   8.783   9.513
60750SOL    HW284148   1.380   8.655   9.594
60751SOL     OW84149   7.343  12.559   5.293
60751SOL    HW184150   7.343  12.466   5.316
60751SOL    HW284151   7.398  12.564   5.215
60752SOL     OW84152  13.145   8.056   5.783
60752SOL    HW184153  13.104   8.143   5.789
60752SOL    HW284154  13.108   8.017   5.704
60753SOL     OW84155   9.808   9.700   1.051
60753SOL    HW184156   9.714   9.713   1.034
60753SOL    HW284157   9.852   9.756   0.987
60754SOL     OW84158  13.601   9.196   2.701
60754SOL    HW184159  13.545   9.198   2.624
60754SOL    HW284160  13.615   9.103   2.719
60755SOL     OW84161   4.031   8.619   3.626
60755SOL    HW184162   4.022   8.681   3.554
60755SOL    HW284163   4.102   8.561   3.599
60756SOL     OW84164   0.697   7.605  10.953
60756SOL    HW184165   0.638   7.663  11.002
60756SOL    HW284166   0.755   7.568  11.019
60757SOL     OW84167  14.794  12.219  12.117
60757SOL    HW184168  14.723  12.267  12.074
60757SOL    HW284169  14.847  12.286  12.159
60758SOL     OW84170  14.698   4.874   2.902
60758SOL    HW184171  14.710   4.800   2.962
60758SOL    HW284172  14.756   4.942   2.937
60759SOL     OW84173   9.136  10.085   8.671
60759SOL    HW184174   9.053  10.125   8.693
60759SOL    HW284175   9.154  10.026   8.745
60760SOL     OW84176   1.270   4.064   8.044
60760SOL    HW184177   1.212   4.083   8.119
60760SOL    HW284178   1.261   4.141   7.988
60761SOL     OW84179   1.402  12.030   4.174
60761SOL    HW184180   1.389  12.014   4.267
60761SOL    HW284181   1.398  11.943   4.134
60762SOL     OW84182   8.493   0.554   5.071
60762SOL    HW184183   8.487   0.458   5.066
60762SOL    HW284184   8.427   0.585   5.009
60763SOL     OW84185   7.142   0.614   1.772
60763SOL    HW184186   7.072   0.665   1.732
60763SOL    HW284187   7.111   0.593   1.860
60764SOL     OW84188  10.668   1.783   5.779
60764SOL    HW184189  10.612   1.848   5.737
60764SOL    HW284190  10.711   1.831   5.850
60765SOL     OW84191   7.340   7.738   1.293
60765SOL    HW184192   7.270   7.802   1.294
60765SOL    HW284193   7.355   7.720   1.200
60766SOL     OW84194   2.541  12.626  12.000
60766SOL    HW184195   2.452  12.590  11.996
60766SOL    HW284196   2.531  12.718  11.975
60767SOL     OW84197   4.038  14.035  11.458
60767SOL    HW184198   4.123  14.010  11.421
60767SOL    HW284199   3.977  14.028  11.385
60768SOL     OW84200   6.605   1.748  14.653
60768SOL    HW184201   6.530   1.753  14.712
60768SOL    HW284202   6.611   1.655  14.629
60769SOL     OW84203   6.836   7.972   6.621
60769SOL    HW184204   6.848   8.031   6.695
60769SOL    HW284205   6.778   8.019   6.561
60770SOL     OW84206   6.114   9.014   9.417
60770SOL    HW184207   6.054   8.967   9.360
60770SOL    HW284208   6.139   8.951   9.484
60771SOL     OW84209  11.000   2.025   7.550
60771SOL    HW184210  11.038   2.110   7.529
60771SOL    HW284211  11.022   2.010   7.642
60772SOL     OW84212   0.624  14.273   2.664
60772SOL    HW184213   0.677  14.226   2.728
60772SOL    HW284214   0.686  14.329   2.618
60773SOL     OW84215   6.954   8.948   5.198
60773SOL    HW184216   6.922   9.036   5.180
60773SOL    HW284217   6.890   8.911   5.258
60774SOL     OW84218   0.616   5.009  11.287
60774SOL    HW184219   0.554   4.936  11.288
60774SOL    HW284220   0.693   4.975  11.331
60775SOL     OW84221  13.532   1.113  14.243
60775SOL    HW184222  13.513   1.152  14.158
60775SOL    HW284223  13.451   1.123  14.293
60776SOL     OW84224   7.969   1.146  11.721
60776SOL    HW184225   7.915   1.098  11.658
60776SOL    HW284226   7.994   1.227  11.676
60777SOL     OW84227   5.970  11.532   1.654
60777SOL    HW184228   6.029  11.457   1.648
60777SOL    HW284229   6.009  11.588   1.720
60778SOL     OW84230   6.619   5.332  12.182
60778SOL    HW184231   6.706   5.292  12.180
60778SOL    HW284232   6.630   5.413  12.130
60779SOL     OW84233   3.645  14.616  13.702
60779SOL    HW184234   3.589  14.687  13.668
60779SOL    HW284235   3.631  14.544  13.641
60780SOL     OW84236   2.003  10.022  14.561
60780SOL    HW184237   2.014  10.073  14.481
60780SOL    HW284238   2.091   9.991  14.583
60781SOL     OW84239   7.615   2.921  11.583
60781SOL    HW184240   7.696   2.967  11.564
60781SOL    HW284241   7.546   2.977  11.547
60782SOL     OW84242   5.618   5.994   5.469
60782SOL    HW184243   5.649   6.068   5.522
60782SOL    HW284244   5.660   6.007   5.384
60783SOL     OW84245   2.977   5.370   0.998
60783SOL    HW184246   2.889   5.406   0.986
60783SOL    HW284247   2.987   5.305   0.929
60784SOL     OW84248   0.407   1.843   5.802
60784SOL    HW184249   0.437   1.888   5.723
60784SOL    HW284250   0.481   1.790   5.829
60785SOL     OW84251  11.604   5.859   0.168
60785SOL    HW184252  11.578   5.947   0.138
60785SOL    HW284253  11.700   5.859   0.161
60786SOL     OW84254   2.496   7.264   3.262
60786SOL    HW184255   2.469   7.175   3.285
60786SOL    HW284256   2.431   7.293   3.197
60787SOL     OW84257   8.191  10.652   6.488
60787SOL    HW184258   8.167  10.565   6.520
60787SOL    HW284259   8.112  10.683   6.443
60788SOL     OW84260   4.718   8.288  13.543
60788SOL    HW184261   4.646   8.230  13.566
60788SOL    HW284262   4.689   8.332  13.463
60789SOL     OW84263   2.325   5.133   2.303
60789SOL    HW184264   2.362   5.073   2.368
60789SOL    HW284265   2.235   5.102   2.289
60790SOL     OW84266  10.585  10.470  12.913
60790SOL    HW184267  10.508  10.525  12.924
60790SOL    HW284268  10.645  10.523  12.860
60791SOL     OW84269   5.136   2.855   4.778
60791SOL    HW184270   5.232   2.858   4.774
60791SOL    HW284271   5.117   2.833   4.870
60792SOL     OW84272   2.357   4.813   1.915
60792SOL    HW184273   2.405   4.882   1.961
60792SOL    HW284274   2.415   4.788   1.843
60793SOL     OW84275  14.338   7.686   7.168
60793SOL    HW184276  14.301   7.686   7.256
60793SOL    HW284277  14.262   7.696   7.110
60794SOL     OW84278   0.447   8.539   8.688
60794SOL    HW184279   0.438   8.444   8.689
60794SOL    HW284280   0.432   8.566   8.778
60795SOL     OW84281   5.913   5.865  13.799
60795SOL    HW184282   5.994   5.814  13.798
60795SOL    HW284283   5.890   5.876  13.707
60796SOL     OW84284   7.777   0.265   8.910
60796SOL    HW184285   7.785   0.186   8.856
60796SOL    HW284286   7.719   0.322   8.859
60797SOL     OW84287   9.331   1.985   5.160
60797SOL    HW184288   9.419   1.950   5.171
60797SOL    HW284289   9.322   2.051   5.229
60798SOL     OW84290   4.955   6.416  11.686
60798SOL    HW184291   4.972   6.445  11.776
60798SOL    HW284292   4.972   6.322  11.688
60799SOL     OW84293   9.832   1.591   5.433
60799SOL    HW184294   9.745   1.627   5.416
60799SOL    HW284295   9.815   1.502   5.463
60800SOL     OW84296  12.421  13.411  11.074
60800SOL    HW184297  12.482  13.419  11.001
60800SOL    HW284298  12.335  13.403  11.032
60801SOL     OW84299  14.218  11.980   8.495
60801SOL    HW184300  14.300  11.945   8.529
60801SOL    HW284301  14.241  12.069   8.466
60802SOL     OW84302  10.958   0.317   2.525
60802SOL    HW184303  10.998   0.231   2.537
60802SOL    HW284304  11.028   0.370   2.487
60803SOL     OW84305   5.419  14.697   6.914
60803SOL    HW184306   5.395  14.784   6.881
60803SOL    HW284307   5.514  14.693   6.904
60804SOL     OW84308   2.887  13.664   4.029
60804SOL    HW184309   2.948  13.727   4.065
60804SOL    HW284310   2.925  13.638   3.946
60805SOL     OW84311   2.959   5.871  13.261
60805SOL    HW184312   2.896   5.931  13.222
60805SOL    HW284313   3.042   5.892  13.218
60806SOL     OW84314   8.981   4.917  12.655
60806SOL    HW184315   8.931   4.882  12.581
60806SOL    HW284316   9.008   5.004  12.626
60807SOL     OW84317  11.071   0.033  12.258
60807SOL    HW184318  11.029   0.097  12.315
60807SOL    HW284319  11.003  14.836  12.239
60808SOL     OW84320   8.726   5.413   2.532
60808SOL    HW184321   8.750   5.377   2.446
60808SOL    HW284322   8.805   5.458   2.562
60809SOL     OW84323  11.825  12.606   2.015
60809SOL    HW184324  11.748  12.549   2.009
60809SOL    HW284325  11.896  12.556   1.976
60810SOL     OW84326   0.935  11.803   3.447
60810SOL    HW184327   0.944  11.889   3.405
60810SOL    HW284328   0.923  11.823   3.540
60811SOL     OW84329   0.470   6.371  13.569
60811SOL    HW184330   0.519   6.449  13.596
60811SOL    HW284331   0.518   6.337  13.494
60812SOL     OW84332   1.548   0.384   8.322
60812SOL    HW184333   1.626   0.329   8.321
60812SOL    HW284334   1.538   0.410   8.414
60813SOL     OW84335  11.684  13.063   4.587
60813SOL    HW184336  11.727  13.079   4.670
60813SOL    HW284337  11.608  13.122   4.587
60814SOL     OW84338  11.029  13.816   8.105
60814SOL    HW184339  10.966  13.883   8.079
60814SOL    HW284340  10.977  13.735   8.107
60815SOL     OW84341   0.523   4.034   1.276
60815SOL    HW184342   0.566   4.092   1.213
60815SOL    HW284343   0.503   4.091   1.351
60816SOL     OW84344  14.247  12.986   9.019
60816SOL    HW184345  14.233  13.069   9.065
60816SOL    HW284346  14.341  12.968   9.030
60817SOL     OW84347  10.520   9.539  11.931
60817SOL    HW184348  10.491   9.524  12.021
60817SOL    HW284349  10.513   9.633  11.919
60818SOL     OW84350  13.484   9.829   5.665
60818SOL    HW184351  13.413   9.829   5.729
60818SOL    HW284352  13.449   9.879   5.591
60819SOL     OW84353  12.126  11.017  12.657
60819SOL    HW184354  12.051  11.030  12.716
60819SOL    HW284355  12.158  10.930  12.678
60820SOL     OW84356   4.657  10.429  14.434
60820SOL    HW184357   4.635  10.408  14.344
60820SOL    HW284358   4.572  10.439  14.478
60821SOL     OW84359   8.282   1.072   5.555
60821SOL    HW184360   8.198   1.037   5.584
60821SOL    HW284361   8.328   1.093   5.636
60822SOL     OW84362   6.450   9.739   3.210
60822SOL    HW184363   6.537   9.718   3.177
60822SOL    HW284364   6.464   9.801   3.281
60823SOL     OW84365   3.125   2.113   6.830
60823SOL    HW184366   3.098   2.141   6.918
60823SOL    HW284367   3.186   2.040   6.846
60824SOL     OW84368   6.393   9.461   9.242
60824SOL    HW184369   6.477   9.415   9.249
60824SOL    HW284370   6.344   9.434   9.320
60825SOL     OW84371   1.966   4.086  14.535
60825SOL    HW184372   2.032   4.155  14.524
60825SOL    HW284373   2.009   4.006  14.502
60826SOL     OW84374  10.903   8.653  11.376
60826SOL    HW184375  10.946   8.737  11.393
60826SOL    HW284376  10.971   8.588  11.387
60827SOL     OW84377   6.514  10.584  10.276
60827SOL    HW184378   6.493  10.530  10.353
60827SOL    HW284379   6.446  10.651  10.275
60828SOL     OW84380   6.246  11.352  13.301
60828SOL    HW184381   6.278  11.296  13.371
60828SOL    HW284382   6.326  11.382  13.257
60829SOL     OW84383   2.339  12.985  14.824
60829SOL    HW184384   2.280  12.921  14.862
60829SOL    HW284385   2.426  12.948  14.837
60830SOL     OW84386   5.793   6.644   3.132
60830SOL    HW184387   5.723   6.615   3.191
60830SOL    HW284388   5.747   6.680   3.056
60831SOL     OW84389   3.983  13.054  10.614
60831SOL    HW184390   3.900  13.038  10.660
60831SOL    HW284391   3.988  13.149  10.606
60832SOL     OW84392   4.591   6.570   3.315
60832SOL    HW184393   4.496   6.574   3.323
60832SOL    HW284394   4.623   6.629   3.384
60833SOL     OW84395  11.091  13.011   2.651
60833SOL    HW184396  11.051  12.998   2.565
60833SOL    HW284397  11.152  13.084   2.638
60834SOL     OW84398   0.824   8.636  13.193
60834SOL    HW184399   0.867   8.552  13.179
60834SOL    HW284400   0.742   8.629  13.142
60835SOL     OW84401   1.101  10.175   6.844
60835SOL    HW184402   1.180  10.229   6.853
60835SOL    HW284403   1.078  10.179   6.752
60836SOL     OW84404  12.354   9.428   4.290
60836SOL    HW184405  12.289   9.456   4.226
60836SOL    HW284406  12.371   9.507   4.343
60837SOL     OW84407  10.329   6.649  11.065
60837SOL    HW184408  10.398   6.660  11.000
60837SOL    HW284409  10.368   6.678  11.147
60838SOL     OW84410   8.708   3.264  14.613
60838SOL    HW184411   8.790   3.237  14.572
60838SOL    HW284412   8.640   3.233  14.552
60839SOL     OW84413   1.547   6.343   6.427
60839SOL    HW184414   1.566   6.267   6.372
60839SOL    HW284415   1.579   6.417   6.377
60840SOL     OW84416   8.093  10.794   5.328
60840SOL    HW184417   8.032  10.866   5.313
60840SOL    HW284418   8.083  10.738   5.251
60841SOL     OW84419   7.454  13.260   0.661
60841SOL    HW184420   7.376  13.310   0.637
60841SOL    HW284421   7.522  13.326   0.675
60842SOL     OW84422   9.500   9.188   7.699
60842SOL    HW184423   9.588   9.225   7.686
60842SOL    HW284424   9.443   9.243   7.646
60843SOL     OW84425   0.323   5.465  10.064
60843SOL    HW184426   0.296   5.487  10.153
60843SOL    HW284427   0.366   5.544  10.032
60844SOL     OW84428  11.371  13.315   1.514
60844SOL    HW184429  11.418  13.398   1.526
60844SOL    HW284430  11.285  13.330   1.552
60845SOL     OW84431  10.493   8.914   7.052
60845SOL    HW184432  10.506   8.827   7.015
60845SOL    HW284433  10.415   8.906   7.106
60846SOL     OW84434  14.120   6.909  13.245
60846SOL    HW184435  14.140   6.903  13.338
60846SOL    HW284436  14.175   6.843  13.204
60847SOL     OW84437  11.430   1.373   3.036
60847SOL    HW184438  11.437   1.338   2.948
60847SOL    HW284439  11.423   1.468   3.024
60848SOL     OW84440   8.641  12.621   9.225
60848SOL    HW184441   8.679  12.552   9.279
60848SOL    HW284442   8.660  12.702   9.273
60849SOL     OW84443   8.519  12.707   4.068
60849SOL    HW184444   8.479  12.761   3.999
60849SOL    HW284445   8.449  12.694   4.132
60850SOL     OW84446  13.295   5.735  10.709
60850SOL    HW184447  13.237   5.762  10.638
60850SOL    HW284448  13.239   5.681  10.766
60851SOL     OW84449  11.773  14.212   2.132
60851SOL    HW184450  11.769  14.117   2.141
60851SOL    HW284451  11.771  14.244   2.222
60852SOL     OW84452   0.117   1.201   6.434
60852SOL    HW184453   0.105   1.131   6.370
60852SOL    HW284454   0.063   1.176   6.508
60853SOL     OW84455  11.134   8.131   2.961
60853SOL    HW184456  11.053   8.165   2.999
60853SOL    HW284457  11.109   8.045   2.925
60854SOL     OW84458   8.831   1.569  12.149
60854SOL    HW184459   8.784   1.499  12.193
60854SOL    HW284460   8.835   1.543  12.057
60855SOL     OW84461   4.049   3.744  12.116
60855SOL    HW184462   4.111   3.784  12.176
60855SOL    HW284463   4.047   3.652  12.140
60856SOL     OW84464  10.037   0.487  13.648
60856SOL    HW184465   9.981   0.467  13.723
60856SOL    HW284466   9.977   0.484  13.573
60857SOL     OW84467  12.264   9.812   5.040
60857SOL    HW184468  12.293   9.806   5.131
60857SOL    HW284469  12.204   9.739   5.029
60858SOL     OW84470  11.846   1.240   1.366
60858SOL    HW184471  11.849   1.152   1.330
60858SOL    HW284472  11.758   1.249   1.401
60859SOL     OW84473   5.862  14.503   5.014
60859SOL    HW184474   5.828  14.562   4.947
60859SOL    HW284475   5.877  14.421   4.967
60860SOL     OW84476   3.008  10.139   6.849
60860SOL    HW184477   2.958  10.089   6.785
60860SOL    HW284478   3.091  10.093   6.858
60861SOL     OW84479   7.798   1.165  14.272
60861SOL    HW184480   7.724   1.105  14.287
60861SOL    HW284481   7.802   1.218  14.352
60862SOL     OW84482  10.513  12.940  13.487
60862SOL    HW184483  10.459  12.963  13.563
60862SOL    HW284484  10.469  12.981  13.413
60863SOL     OW84485   2.096  10.003   1.420
60863SOL    HW184486   2.059  10.024   1.506
60863SOL    HW284487   2.067  10.074   1.363
60864SOL     OW84488   2.455   9.393   5.733
60864SOL    HW184489   2.450   9.454   5.660
60864SOL    HW284490   2.542   9.354   5.726
60865SOL     OW84491   8.144   9.910   8.062
60865SOL    HW184492   8.070   9.953   8.105
60865SOL    HW284493   8.202   9.885   8.133
60866SOL     OW84494   7.238   8.674  10.541
60866SOL    HW184495   7.301   8.660  10.612
60866SOL    HW284496   7.162   8.622  10.567
60867SOL     OW84497   5.231   3.832   5.152
60867SOL    HW184498   5.325   3.844   5.158
60867SOL    HW284499   5.199   3.847   5.241
60868SOL     OW84500   6.232  12.260   5.864
60868SOL    HW184501   6.223  12.356   5.864
60868SOL    HW284502   6.194  12.232   5.781
60869SOL     OW84503   6.910  10.797   8.432
60869SOL    HW184504   6.943  10.708   8.437
60869SOL    HW284505   6.985  10.852   8.455
60870SOL     OW84506   4.328   9.749   6.854
60870SOL    HW184507   4.296   9.659   6.846
60870SOL    HW284508   4.404   9.742   6.912
60871SOL     OW84509  14.621   4.816   9.849
60871SOL    HW184510  14.600   4.741   9.794
60871SOL    HW284511  14.538   4.844   9.887
60872SOL     OW84512   2.243  10.231   2.575
60872SOL    HW184513   2.209  10.259   2.660
60872SOL    HW284514   2.307  10.163   2.597
60873SOL     OW84515   4.002  13.484  13.059
60873SOL    HW184516   4.071  13.426  13.028
60873SOL    HW284517   3.935  13.481  12.990
60874SOL     OW84518  13.000  12.193   0.702
60874SOL    HW184519  13.031  12.107   0.673
60874SOL    HW284520  13.053  12.212   0.780
60875SOL     OW84521  11.136   0.651  10.436
60875SOL    HW184522  11.142   0.739  10.473
60875SOL    HW284523  11.168   0.593  10.505
60876SOL     OW84524   1.782   3.788   1.218
60876SOL    HW184525   1.698   3.755   1.187
60876SOL    HW284526   1.831   3.808   1.138
60877SOL     OW84527   7.175  11.365   4.202
60877SOL    HW184528   7.152  11.428   4.134
60877SOL    HW284529   7.180  11.281   4.156
60878SOL     OW84530   8.465   2.511   4.316
60878SOL    HW184531   8.421   2.592   4.292
60878SOL    HW284532   8.486   2.522   4.409
60879SOL     OW84533   2.504  14.015  10.909
60879SOL    HW184534   2.588  14.057  10.928
60879SOL    HW284535   2.511  13.929  10.950
60880SOL     OW84536  11.966  10.262  10.341
60880SOL    HW184537  12.045  10.249  10.393
60880SOL    HW284538  11.916  10.182  10.351
60881SOL     OW84539  11.836   3.506  13.402
60881SOL    HW184540  11.924   3.471  13.418
60881SOL    HW284541  11.784   3.430  13.378
60882SOL     OW84542  13.358   9.176   0.867
60882SOL    HW184543  13.297   9.179   0.941
60882SOL    HW284544  13.339   9.256   0.818
60883SOL     OW84545   2.747  13.693  14.336
60883SOL    HW184546   2.757  13.614  14.283
60883SOL    HW284547   2.834  13.710  14.371
60884SOL     OW84548   1.363   1.032   0.646
60884SOL    HW184549   1.394   1.055   0.734
60884SOL    HW284550   1.272   1.063   0.644
60885SOL     OW84551   6.326   4.845  11.129
60885SOL    HW184552   6.375   4.923  11.156
60885SOL    HW284553   6.373   4.812  11.052
60886SOL     OW84554   3.371   3.093  13.223
60886SOL    HW184555   3.365   3.005  13.258
60886SOL    HW284556   3.323   3.090  13.140
60887SOL     OW84557  14.632   4.388   4.506
60887SOL    HW184558  14.599   4.474   4.479
60887SOL    HW284559  14.724   4.388   4.478
60888SOL     OW84560  14.321   0.097  12.339
60888SOL    HW184561  14.405   0.098  12.385
60888SOL    HW284562  14.259   0.065  12.404
60889SOL     OW84563  10.970  11.984  12.156
60889SOL    HW184564  10.917  12.014  12.083
60889SOL    HW284565  10.990  12.063  12.206
60890SOL     OW84566  12.772   1.795  13.065
60890SOL    HW184567  12.764   1.766  12.974
60890SOL    HW284568  12.682   1.803  13.096
60891SOL     OW84569   7.352   6.362  12.692
60891SOL    HW184570   7.281   6.397  12.638
60891SOL    HW284571   7.390   6.439  12.734
60892SOL     OW84572   7.838   1.618  13.244
60892SOL    HW184573   7.847   1.661  13.329
60892SOL    HW284574   7.744   1.597  13.238
60893SOL     OW84575   3.443   7.879   3.771
60893SOL    HW184576   3.465   7.937   3.699
60893SOL    HW284577   3.528   7.852   3.806
60894SOL     OW84578   7.466  12.841   3.300
60894SOL    HW184579   7.373  12.855   3.282
60894SOL    HW284580   7.495  12.783   3.229
60895SOL     OW84581   1.343   7.706   9.098
60895SOL    HW184582   1.250   7.699   9.120
60895SOL    HW284583   1.387   7.658   9.168
60896SOL     OW84584   0.248   9.101   2.869
60896SOL    HW184585   0.215   9.162   2.803
60896SOL    HW284586   0.239   9.015   2.828
60897SOL     OW84587   5.937   0.721   1.896
60897SOL    HW184588   5.872   0.688   1.958
60897SOL    HW284589   5.919   0.673   1.815
60898SOL     OW84590   2.732   8.416   6.596
60898SOL    HW184591   2.679   8.364   6.656
60898SOL    HW284592   2.671   8.443   6.528
60899SOL     OW84593   1.152  11.060   1.966
60899SOL    HW184594   1.182  11.003   1.895
60899SOL    HW284595   1.173  11.148   1.936
60900SOL     OW84596  13.939  13.122  10.615
60900SOL    HW184597  14.015  13.177  10.634
60900SOL    HW284598  13.869  13.156  10.671
60901SOL     OW84599  11.853   4.069   6.386
60901SOL    HW184600  11.826   4.116   6.465
60901SOL    HW284601  11.868   3.979   6.416
60902SOL     OW84602  10.667   9.553   4.922
60902SOL    HW184603  10.602   9.621   4.940
60902SOL    HW284604  10.693   9.569   4.831
60903SOL     OW84605  10.305  11.345   4.517
60903SOL    HW184606  10.299  11.419   4.577
60903SOL    HW284607  10.339  11.273   4.571
60904SOL     OW84608   0.349  10.668  14.639
60904SOL    HW184609   0.281  10.641  14.701
60904SOL    HW284610   0.304  10.673  14.554
60905SOL     OW84611   8.242  14.636   1.815
60905SOL    HW184612   8.209  14.655   1.903
60905SOL    HW284613   8.173  14.668   1.756
60906SOL     OW84614   2.525  14.267  13.966
60906SOL    HW184615   2.536  14.344  13.910
60906SOL    HW284616   2.615  14.243  13.991
60907SOL     OW84617   0.348  10.212  14.445
60907SOL    HW184618   0.375  10.279  14.382
60907SOL    HW284619   0.428  10.161  14.463
60908SOL     OW84620  12.826   6.371   2.200
60908SOL    HW184621  12.743   6.420   2.206
60908SOL    HW284622  12.864   6.399   2.117
60909SOL     OW84623  12.584   0.717   8.942
60909SOL    HW184624  12.656   0.750   8.996
60909SOL    HW284625  12.562   0.790   8.884
60910SOL     OW84626  10.341  10.981   3.813
60910SOL    HW184627  10.289  10.976   3.893
60910SOL    HW284628  10.283  11.022   3.749
60911SOL     OW84629   8.060  12.992  14.531
60911SOL    HW184630   8.053  13.017  14.439
60911SOL    HW284631   7.995  13.045  14.576
60912SOL     OW84632  10.727  11.676   7.125
60912SOL    HW184633  10.783  11.657   7.200
60912SOL    HW284634  10.749  11.608   7.061
60913SOL     OW84635   5.938   1.590   3.268
60913SOL    HW184636   5.972   1.520   3.212
60913SOL    HW284637   5.904   1.544   3.345
60914SOL     OW84638  12.825  12.579   8.879
60914SOL    HW184639  12.859  12.655   8.925
60914SOL    HW284640  12.903  12.528   8.857
60915SOL     OW84641   1.900   0.754   5.050
60915SOL    HW184642   1.873   0.669   5.013
60915SOL    HW284643   1.987   0.769   5.014
60916SOL     OW84644   8.132   7.796   2.052
60916SOL    HW184645   8.172   7.875   2.016
60916SOL    HW284646   8.076   7.827   2.123
60917SOL     OW84647   1.784   7.407   3.698
60917SOL    HW184648   1.740   7.323   3.710
60917SOL    HW284649   1.838   7.394   3.620
60918SOL     OW84650   8.890   6.358  12.201
60918SOL    HW184651   8.911   6.413  12.277
60918SOL    HW284652   8.822   6.407  12.154
60919SOL     OW84653  10.882  10.339  12.373
60919SOL    HW184654  10.809  10.301  12.423
60919SOL    HW284655  10.925  10.264  12.332
60920SOL     OW84656  11.363   4.364   8.586
60920SOL    HW184657  11.424   4.345   8.657
60920SOL    HW284658  11.389   4.451   8.555
60921SOL     OW84659   7.024  14.419  13.097
60921SOL    HW184660   7.016  14.369  13.015
60921SOL    HW284661   7.078  14.363  13.153
60922SOL     OW84662   8.451  10.180  11.519
60922SOL    HW184663   8.535  10.160  11.559
60922SOL    HW284664   8.450  10.276  11.511
60923SOL     OW84665   8.964  13.478  10.284
60923SOL    HW184666   9.033  13.497  10.348
60923SOL    HW284667   8.895  13.542  10.304
60924SOL     OW84668   0.117   7.890   9.145
60924SOL    HW184669   0.077   7.965   9.101
60924SOL    HW284670   0.131   7.919   9.235
60925SOL     OW84671   1.060   9.308   1.674
60925SOL    HW184672   0.989   9.320   1.737
60925SOL    HW284673   1.084   9.216   1.681
60926SOL     OW84674   1.559   2.710   0.081
60926SOL    HW184675   1.611   2.681   0.156
60926SOL    HW284676   1.565   2.638   0.019
60927SOL     OW84677  10.447   1.503   1.454
60927SOL    HW184678  10.403   1.587   1.466
60927SOL    HW284679  10.438   1.459   1.539
60928SOL     OW84680  13.868  12.400  14.632
60928SOL    HW184681  13.886  12.423  14.541
60928SOL    HW284682  13.773  12.395  14.637
60929SOL     OW84683   4.680   3.571  11.383
60929SOL    HW184684   4.765   3.607  11.356
60929SOL    HW284685   4.643   3.638  11.441
60930SOL     OW84686   6.777  14.330  14.619
60930SOL    HW184687   6.780  14.245  14.662
60930SOL    HW284688   6.792  14.393  14.690
60931SOL     OW84689   1.095   3.220   2.845
60931SOL    HW184690   1.179   3.258   2.823
60931SOL    HW284691   1.053   3.286   2.901
60932SOL     OW84692   6.173  11.908   0.596
60932SOL    HW184693   6.104  11.901   0.530
60932SOL    HW284694   6.151  11.986   0.646
60933SOL     OW84695  10.821  14.501   6.734
60933SOL    HW184696  10.867  14.552   6.668
60933SOL    HW284697  10.738  14.548   6.748
60934SOL     OW84698   0.088   9.691  13.849
60934SOL    HW184699   0.089   9.741  13.930
60934SOL    HW284700   0.065   9.602  13.876
60935SOL     OW84701  14.815   9.961   9.786
60935SOL    HW184702  14.721   9.970   9.801
60935SOL    HW284703  14.821   9.927   9.697
60936SOL     OW84704   6.195   3.385   3.979
60936SOL    HW184705   6.165   3.294   3.981
60936SOL    HW284706   6.231   3.396   3.891
60937SOL     OW84707   0.657   9.030   6.272
60937SOL    HW184708   0.642   9.123   6.291
60937SOL    HW284709   0.585   8.985   6.316
60938SOL     OW84710  13.182   2.171   9.052
60938SOL    HW184711  13.149   2.257   9.078
60938SOL    HW284712  13.139   2.109   9.112
60939SOL     OW84713   6.226   0.554  13.434
60939SOL    HW184714   6.286   0.617  13.394
60939SOL    HW284715   6.144   0.567  13.387
60940SOL     OW84716   8.940  14.828   7.235
60940SOL    HW184717   9.033  14.817   7.217
60940SOL    HW284718   8.898  14.754   7.191
60941SOL     OW84719   4.258   5.229   3.619
60941SOL    HW184720   4.237   5.145   3.577
60941SOL    HW284721   4.175   5.259   3.656
60942SOL     OW84722   9.658   9.656   2.137
60942SOL    HW184723   9.691   9.646   2.048
60942SOL    HW284724   9.600   9.581   2.150
60943SOL     OW84725   1.201   3.804   6.891
60943SOL    HW184726   1.192   3.898   6.874
60943SOL    HW284727   1.236   3.799   6.980
60944SOL     OW84728   5.774   3.997  14.321
60944SOL    HW184729   5.740   4.070  14.269
60944SOL    HW284730   5.807   3.934  14.257
60945SOL     OW84731   0.154   0.298  12.667
60945SOL    HW184732   0.219   0.367  12.652
60945SOL    HW284733   0.070   0.344  12.664
60946SOL     OW84734   6.276  14.386   9.712
60946SOL    HW184735   6.224  14.452   9.757
60946SOL    HW284736   6.248  14.303   9.750
60947SOL     OW84737   3.871  11.601  13.042
60947SOL    HW184738   3.802  11.660  13.011
60947SOL    HW284739   3.876  11.533  12.975
60948SOL     OW84740   2.134   2.442   0.964
60948SOL    HW184741   2.117   2.528   0.926
60948SOL    HW284742   2.214   2.454   1.016
60949SOL     OW84743   9.830  10.978   4.403
60949SOL    HW184744   9.840  10.954   4.495
60949SOL    HW284745   9.902  11.039   4.385
60950SOL     OW84746  10.087  11.255   1.673
60950SOL    HW184747  10.055  11.333   1.719
60950SOL    HW284748  10.172  11.280   1.639
60951SOL     OW84749   3.798  13.355   9.340
60951SOL    HW184750   3.728  13.402   9.295
60951SOL    HW284751   3.816  13.279   9.284
60952SOL     OW84752   3.308  12.817  11.890
60952SOL    HW184753   3.285  12.726  11.909
60952SOL    HW284754   3.259  12.868  11.954
60953SOL     OW84755  11.671   6.333  12.763
60953SOL    HW184756  11.720   6.260  12.801
60953SOL    HW284757  11.623   6.294  12.690
60954SOL     OW84758   2.649  13.488   8.289
60954SOL    HW184759   2.718  13.437   8.247
60954SOL    HW284760   2.692  13.568   8.319
60955SOL     OW84761   2.644   2.674   7.455
60955SOL    HW184762   2.682   2.704   7.537
60955SOL    HW284763   2.559   2.637   7.479
60956SOL     OW84764   1.750  10.960  14.130
60956SOL    HW184765   1.844  10.978  14.125
60956SOL    HW284766   1.708  11.039  14.095
60957SOL     OW84767   0.514   1.872   8.209
60957SOL    HW184768   0.484   1.879   8.300
60957SOL    HW284769   0.562   1.790   8.206
60958SOL     OW84770   3.719  14.847   1.765
60958SOL    HW184771   3.651  14.837   1.832
60958SOL    HW284772   3.776   0.048   1.800
60959SOL     OW84773   0.713   6.103  12.073
60959SOL    HW184774   0.732   6.195  12.087
60959SOL    HW284775   0.704   6.067  12.161
60960SOL     OW84776   5.829   4.887   2.483
60960SOL    HW184777   5.802   4.933   2.404
60960SOL    HW284778   5.883   4.949   2.531
60961SOL     OW84779  10.792  14.511  10.438
60961SOL    HW184780  10.768  14.593  10.481
60961SOL    HW284781  10.747  14.443  10.487
60962SOL     OW84782   3.063  14.272  14.445
60962SOL    HW184783   3.001  14.227  14.387
60962SOL    HW284784   3.069  14.215  14.521
60963SOL     OW84785   4.624   1.708   9.776
60963SOL    HW184786   4.714   1.675   9.775
60963SOL    HW284787   4.569   1.631   9.764
60964SOL     OW84788   0.618   8.733   0.209
60964SOL    HW184789   0.600   8.820   0.174
60964SOL    HW284790   0.558   8.675   0.162
60965SOL     OW84791   6.133   3.506   0.979
60965SOL    HW184792   6.196   3.440   0.949
60965SOL    HW284793   6.089   3.535   0.899
60966SOL     OW84794  11.296  10.712   5.945
60966SOL    HW184795  11.337  10.630   5.919
60966SOL    HW284796  11.366  10.761   5.988
60967SOL     OW84797  12.368   4.385   5.866
60967SOL    HW184798  12.361   4.312   5.804
60967SOL    HW284799  12.278   4.399   5.896
60968SOL     OW84800  12.512   5.435   4.661
60968SOL    HW184801  12.483   5.497   4.593
60968SOL    HW284802  12.605   5.454   4.673
60969SOL     OW84803   5.504   8.052   3.713
60969SOL    HW184804   5.534   8.105   3.639
60969SOL    HW284805   5.571   8.063   3.780
60970SOL     OW84806  11.011  10.241   0.697
60970SOL    HW184807  11.067  10.251   0.620
60970SOL    HW284808  11.043  10.162   0.740
60971SOL     OW84809  12.177   3.721  13.726
60971SOL    HW184810  12.254   3.771  13.755
60971SOL    HW284811  12.211   3.663  13.658
60972SOL     OW84812   5.661   1.757  12.719
60972SOL    HW184813   5.725   1.815  12.760
60972SOL    HW284814   5.677   1.672  12.759
60973SOL     OW84815   7.848   2.661   9.884
60973SOL    HW184816   7.818   2.668   9.975
60973SOL    HW284817   7.786   2.714   9.834
60974SOL     OW84818   1.791   5.610   1.755
60974SOL    HW184819   1.730   5.548   1.796
60974SOL    HW284820   1.785   5.592   1.661
60975SOL     OW84821   5.119   3.966   9.921
60975SOL    HW184822   5.126   4.018   9.841
60975SOL    HW284823   5.034   3.922   9.913
60976SOL     OW84824  12.622  14.014   2.681
60976SOL    HW184825  12.700  13.976   2.640
60976SOL    HW284826  12.639  14.005   2.775
60977SOL     OW84827  11.925   2.526   6.629
60977SOL    HW184828  11.965   2.483   6.554
60977SOL    HW284829  11.967   2.487   6.706
60978SOL     OW84830  12.577   6.399   4.954
60978SOL    HW184831  12.611   6.337   5.018
60978SOL    HW284832  12.487   6.416   4.982
60979SOL     OW84833  12.946   1.708  11.086
60979SOL    HW184834  12.885   1.700  11.158
60979SOL    HW284835  12.927   1.634  11.029
60980SOL     OW84836   6.030   4.700  13.141
60980SOL    HW184837   5.960   4.657  13.093
60980SOL    HW284838   6.016   4.675  13.232
60981SOL     OW84839   0.995   5.121   2.690
60981SOL    HW184840   0.980   5.144   2.599
60981SOL    HW284841   0.946   5.040   2.702
60982SOL     OW84842   0.514   5.203  11.678
60982SOL    HW184843   0.445   5.213  11.612
60982SOL    HW284844   0.482   5.253  11.753
60983SOL     OW84845   8.991  10.208   5.639
60983SOL    HW184846   9.073  10.162   5.659
60983SOL    HW284847   9.019  10.295   5.610
60984SOL     OW84848   9.111   6.088   5.900
60984SOL    HW184849   9.062   6.054   5.824
60984SOL    HW284850   9.172   6.017   5.922
60985SOL     OW84851   3.534   4.438   6.145
60985SOL    HW184852   3.448   4.474   6.124
60985SOL    HW284853   3.567   4.404   6.062
60986SOL     OW84854  12.644   9.129  13.122
60986SOL    HW184855  12.730   9.119  13.080
60986SOL    HW284856  12.658   9.196  13.189
60987SOL     OW84857   5.015  12.284   8.190
60987SOL    HW184858   5.011  12.379   8.178
60987SOL    HW284859   5.014  12.272   8.285
60988SOL     OW84860   4.072   2.380  10.577
60988SOL    HW184861   4.110   2.465  10.557
60988SOL    HW284862   3.977   2.394  10.575
60989SOL     OW84863  11.566  12.594   3.074
60989SOL    HW184864  11.546  12.674   3.026
60989SOL    HW284865  11.490  12.538   3.061
60990SOL     OW84866  11.990   1.957   3.229
60990SOL    HW184867  11.950   1.886   3.178
60990SOL    HW284868  11.948   1.952   3.314
60991SOL     OW84869   7.920   6.738   8.684
60991SOL    HW184870   7.936   6.730   8.590
60991SOL    HW284871   7.826   6.724   8.693
60992SOL     OW84872   8.286  11.543   0.246
60992SOL    HW184873   8.276  11.461   0.295
60992SOL    HW284874   8.206  11.550   0.194
60993SOL     OW84875  11.323   8.225   2.802
60993SOL    HW184876  11.252   8.201   2.862
60993SOL    HW284877  11.314   8.320   2.790
60994SOL     OW84878  10.061   9.070   2.114
60994SOL    HW184879  10.070   9.139   2.180
60994SOL    HW284880  10.012   9.001   2.158
60995SOL     OW84881  12.973  10.515   7.738
60995SOL    HW184882  12.926  10.569   7.675
60995SOL    HW284883  12.949  10.551   7.824
60996SOL     OW84884   5.488   3.173  10.427
60996SOL    HW184885   5.410   3.125  10.455
60996SOL    HW284886   5.474   3.262  10.459
60997SOL     OW84887   9.046  12.523   7.596
60997SOL    HW184888   8.952  12.512   7.611
60997SOL    HW284889   9.074  12.439   7.560
60998SOL     OW84890  10.548  10.083   6.653
60998SOL    HW184891  10.609  10.129   6.711
60998SOL    HW284892  10.603  10.046   6.585
60999SOL     OW84893  13.435   6.511   9.356
60999SOL    HW184894  13.417   6.605   9.354
60999SOL    HW284895  13.439   6.489   9.449
61000SOL     OW84896   8.100   9.057   5.519
61000SOL    HW184897   8.160   9.129   5.501
61000SOL    HW284898   8.084   9.016   5.434
61001SOL     OW84899  11.016  13.385   8.921
61001SOL    HW184900  10.985  13.419   8.838
61001SOL    HW284901  10.937  13.374   8.974
61002SOL     OW84902   3.367   2.144   7.924
61002SOL    HW184903   3.393   2.145   7.832
61002SOL    HW284904   3.339   2.233   7.942
61003SOL     OW84905   0.680   4.147  12.142
61003SOL    HW184906   0.678   4.239  12.168
61003SOL    HW284907   0.749   4.142  12.076
61004SOL     OW84908  12.107   1.456   9.180
61004SOL    HW184909  12.135   1.476   9.090
61004SOL    HW284910  12.124   1.363   9.190
61005SOL     OW84911  13.405   6.807  14.771
61005SOL    HW184912  13.496   6.781  14.783
61005SOL    HW284913  13.377   6.763  14.691
61006SOL     OW84914  10.972  14.343   5.041
61006SOL    HW184915  10.942  14.349   4.950
61006SOL    HW284916  11.067  14.329   5.034
61007SOL     OW84917  11.725  10.601   3.459
61007SOL    HW184918  11.644  10.597   3.408
61007SOL    HW284919  11.763  10.686   3.436
61008SOL     OW84920   7.190   0.606   1.276
61008SOL    HW184921   7.261   0.669   1.277
61008SOL    HW284922   7.118   0.649   1.323
61009SOL     OW84923  11.545   7.409   1.055
61009SOL    HW184924  11.589   7.440   0.975
61009SOL    HW284925  11.563   7.477   1.120
61010SOL     OW84926  12.564   9.488   0.033
61010SOL    HW184927  12.536   9.496   0.124
61010SOL    HW284928  12.621   9.411   0.033
61011SOL     OW84929   1.157  10.121   9.994
61011SOL    HW184930   1.213  10.048   9.969
61011SOL    HW284931   1.171  10.187   9.926
61012SOL     OW84932  13.654  10.248   8.611
61012SOL    HW184933  13.714  10.287   8.547
61012SOL    HW284934  13.656  10.154   8.592
61013SOL     OW84935  10.968   3.925   2.287
61013SOL    HW184936  11.045   3.884   2.247
61013SOL    HW284937  10.894   3.875   2.253
61014SOL     OW84938  11.811   3.794   1.654
61014SOL    HW184939  11.769   3.858   1.597
61014SOL    HW284940  11.904   3.805   1.639
61015SOL     OW84941   8.985   0.064  12.071
61015SOL    HW184942   8.946   0.090  11.987
61015SOL    HW284943   8.966  14.839  12.079
61016SOL     OW84944   7.360   5.790  14.634
61016SOL    HW184945   7.413   5.736  14.693
61016SOL    HW284946   7.410   5.792  14.552
61017SOL     OW84947   4.273   7.021   8.869
61017SOL    HW184948   4.186   7.055   8.849
61017SOL    HW284949   4.305   6.986   8.786
61018SOL     OW84950  10.209   8.834  14.446
61018SOL    HW184951  10.298   8.811  14.473
61018SOL    HW284952  10.202   8.927  14.465
61019SOL     OW84953  13.445   4.777   8.702
61019SOL    HW184954  13.530   4.769   8.746
61019SOL    HW284955  13.447   4.711   8.633
61020SOL     OW84956   0.982   2.534   9.047
61020SOL    HW184957   0.969   2.532   9.141
61020SOL    HW284958   1.023   2.618   9.029
61021SOL     OW84959   1.592   8.491  10.758
61021SOL    HW184960   1.500   8.473  10.737
61021SOL    HW284961   1.610   8.574  10.714
61022SOL     OW84962   4.034   9.911   6.097
61022SOL    HW184963   4.090   9.965   6.041
61022SOL    HW284964   4.018   9.965   6.174
61023SOL     OW84965   0.856   2.393   1.369
61023SOL    HW184966   0.882   2.360   1.283
61023SOL    HW284967   0.762   2.377   1.374
61024SOL     OW84968  10.022   3.093   2.991
61024SOL    HW184969  10.000   3.185   3.000
61024SOL    HW284970   9.978   3.050   3.064
61025SOL     OW84971  14.568   7.750   4.952
61025SOL    HW184972  14.528   7.676   4.907
61025SOL    HW284973  14.549   7.826   4.897
61026SOL     OW84974   8.491   3.034  13.035
61026SOL    HW184975   8.398   3.058  13.032
61026SOL    HW284976   8.537   3.116  13.019
61027SOL     OW84977   8.981  12.551   0.706
61027SOL    HW184978   8.967  12.493   0.780
61027SOL    HW284979   8.895  12.560   0.666
61028SOL     OW84980  12.809   4.545   1.311
61028SOL    HW184981  12.743   4.561   1.243
61028SOL    HW284982  12.886   4.514   1.262
61029SOL     OW84983  13.783   9.491  12.153
61029SOL    HW184984  13.755   9.495  12.062
61029SOL    HW284985  13.703   9.477  12.203
61030SOL     OW84986   1.675   8.260   7.261
61030SOL    HW184987   1.691   8.353   7.275
61030SOL    HW284988   1.720   8.217   7.335
61031SOL     OW84989   7.287   8.308  11.207
61031SOL    HW184990   7.367   8.316  11.155
61031SOL    HW284991   7.221   8.278  11.145
61032SOL     OW84992  13.922   4.015   0.305
61032SOL    HW184993  13.853   3.952   0.284
61032SOL    HW284994  13.933   4.065   0.224
61033SOL     OW84995  11.561  12.243   5.776
61033SOL    HW184996  11.643  12.214   5.735
61033SOL    HW284997  11.584  12.259   5.867
61034SOL     OW84998  10.527   8.592  12.943
61034SOL    HW184999  10.613   8.634  12.936
61034SOL    HW285000  10.505   8.568  12.853
61035SOL     OW85001   9.251   1.334   4.889
61035SOL    HW185002   9.312   1.331   4.962
61035SOL    HW285003   9.167   1.305   4.926
61036SOL     OW85004  13.634  14.448   0.156
61036SOL    HW185005  13.577  14.442   0.232
61036SOL    HW285006  13.575  14.459   0.082
61037SOL     OW85007  11.755  14.033   4.670
61037SOL    HW185008  11.692  13.990   4.728
61037SOL    HW285009  11.808  13.961   4.635
61038SOL     OW85010   8.764   8.442   4.380
61038SOL    HW185011   8.821   8.427   4.455
61038SOL    HW285012   8.785   8.531   4.351
61039SOL     OW85013   1.347  12.611  12.933
61039SOL    HW185014   1.398  12.618  13.014
61039SOL    HW285015   1.339  12.701  12.902
61040SOL     OW85016   7.608   1.170  11.311
61040SOL    HW185017   7.554   1.200  11.238
61040SOL    HW285018   7.585   1.227  11.384
61041SOL     OW85019   9.758   7.240  13.279
61041SOL    HW185020   9.836   7.215  13.229
61041SOL    HW285021   9.687   7.237  13.216
61042SOL     OW85022   9.969  10.692   0.214
61042SOL    HW185023   9.915  10.653   0.283
61042SOL    HW285024  10.040  10.630   0.201
61043SOL     OW85025   5.203   9.316  10.936
61043SOL    HW185026   5.143   9.363  10.878
61043SOL    HW285027   5.288   9.356  10.920
61044SOL     OW85028   0.972   9.930  12.955
61044SOL    HW185029   0.967   9.953  12.862
61044SOL    HW285030   0.900   9.868  12.968
61045SOL     OW85031  12.673  10.691   5.228
61045SOL    HW185032  12.721  10.671   5.308
61045SOL    HW285033  12.582  10.667   5.247
61046SOL     OW85034  14.083  11.723   6.458
61046SOL    HW185035  14.124  11.762   6.535
61046SOL    HW285036  14.154  11.678   6.413
61047SOL     OW85037  12.072   7.808   9.357
61047SOL    HW185038  12.110   7.858   9.430
61047SOL    HW285039  11.977   7.820   9.366
61048SOL     OW85040  10.304   2.172  13.782
61048SOL    HW185041  10.287   2.084  13.815
61048SOL    HW285042  10.224   2.221  13.801
61049SOL     OW85043   8.985   4.953  11.171
61049SOL    HW185044   9.069   4.931  11.211
61049SOL    HW285045   9.001   4.949  11.077
61050SOL     OW85046   4.978  12.269   8.457
61050SOL    HW185047   4.990  12.287   8.550
61050SOL    HW285048   5.006  12.178   8.446
61051SOL     OW85049   2.640   3.889   4.352
61051SOL    HW185050   2.730   3.910   4.375
61051SOL    HW285051   2.590   3.967   4.378
61052SOL     OW85052   3.281   5.961   3.635
61052SOL    HW185053   3.195   5.972   3.674
61052SOL    HW285054   3.272   5.886   3.576
61053SOL     OW85055   5.552   1.312   7.005
61053SOL    HW185056   5.602   1.308   7.087
61053SOL    HW285057   5.500   1.232   7.005
61054SOL     OW85058   4.399   9.512   9.968
61054SOL    HW185059   4.347   9.443  10.010
61054SOL    HW285060   4.349   9.535   9.890
61055SOL     OW85061   4.566   9.796  14.348
61055SOL    HW185062   4.563   9.789  14.444
61055SOL    HW285063   4.515   9.721  14.317
61056SOL     OW85064  12.827   0.940   1.829
61056SOL    HW185065  12.919   0.915   1.841
61056SOL    HW285066  12.790   0.936   1.917
61057SOL     OW85067  13.489   8.041   3.067
61057SOL    HW185068  13.466   8.016   3.156
61057SOL    HW285069  13.441   7.979   3.011
61058SOL     OW85070  11.925  10.027  12.306
61058SOL    HW185071  11.940  10.102  12.249
61058SOL    HW285072  11.830  10.013  12.304
61059SOL     OW85073  14.032   0.637   3.871
61059SOL    HW185074  14.083   0.701   3.821
61059SOL    HW285075  14.043   0.664   3.962
61060SOL     OW85076  12.599  14.679   2.387
61060SOL    HW185077  12.607  14.584   2.382
61060SOL    HW285078  12.625  14.700   2.477
61061SOL     OW85079   1.806   0.836   9.917
61061SOL    HW185080   1.813   0.741   9.929
61061SOL    HW285081   1.803   0.848   9.822
61062SOL     OW85082   4.422   1.946   2.008
61062SOL    HW185083   4.447   2.037   2.021
61062SOL    HW285084   4.503   1.896   2.020
61063SOL     OW85085  13.651   6.412  11.186
61063SOL    HW185086  13.592   6.391  11.258
61063SOL    HW285087  13.695   6.492  11.213
61064SOL     OW85088   1.544   7.639  14.837
61064SOL    HW185089   1.602   7.593  14.776
61064SOL    HW285090   1.487   7.692  14.780
61065SOL     OW85091   2.987  12.489   5.992
61065SOL    HW185092   2.952  12.457   6.075
61065SOL    HW285093   3.063  12.433   5.975
61066SOL     OW85094   2.592  11.087   9.788
61066SOL    HW185095   2.623  11.177   9.791
61066SOL    HW285096   2.631  11.051   9.709
61067SOL     OW85097   3.133   9.530   9.005
61067SOL    HW185098   3.182   9.608   8.977
61067SOL    HW285099   3.140   9.470   8.931
61068SOL     OW85100   1.062   4.575   9.302
61068SOL    HW185101   1.009   4.654   9.319
61068SOL    HW285102   1.136   4.607   9.250
61069SOL     OW85103   9.894   7.654   2.833
61069SOL    HW185104   9.807   7.646   2.873
61069SOL    HW285105   9.899   7.745   2.804
61070SOL     OW85106   3.410  11.583  14.008
61070SOL    HW185107   3.498  11.599  14.043
61070SOL    HW285108   3.387  11.663  13.962
61071SOL     OW85109   0.175  11.218  12.533
61071SOL    HW185110   0.159  11.129  12.565
61071SOL    HW285111   0.088  11.258  12.531
61072SOL     OW85112  10.611  13.156   2.954
61072SOL    HW185113  10.579  13.242   2.979
61072SOL    HW285114  10.537  13.097   2.966
61073SOL     OW85115   1.166  11.891   1.313
61073SOL    HW185116   1.237  11.943   1.274
61073SOL    HW285117   1.186  11.801   1.286
61074SOL     OW85118   4.528   9.903   7.553
61074SOL    HW185119   4.484   9.906   7.638
61074SOL    HW285120   4.589   9.976   7.554
61075SOL     OW85121  11.289   8.699   2.031
61075SOL    HW185122  11.261   8.647   2.106
61075SOL    HW285123  11.338   8.772   2.069
61076SOL     OW85124   4.558   5.195   6.302
61076SOL    HW185125   4.609   5.132   6.352
61076SOL    HW285126   4.487   5.220   6.361
61077SOL     OW85127   0.765   8.569   4.147
61077SOL    HW185128   0.799   8.579   4.236
61077SOL    HW285129   0.721   8.652   4.128
61078SOL     OW85130   5.987   3.010  12.677
61078SOL    HW185131   6.050   2.966  12.735
61078SOL    HW285132   6.025   3.097  12.662
61079SOL     OW85133   7.378   9.564   8.208
61079SOL    HW185134   7.288   9.553   8.178
61079SOL    HW285135   7.371   9.610   8.291
61080SOL     OW85136  11.521   5.134   1.040
61080SOL    HW185137  11.534   5.229   1.044
61080SOL    HW285138  11.434   5.121   1.079
61081SOL     OW85139   9.836  11.699   2.730
61081SOL    HW185140   9.877  11.667   2.650
61081SOL    HW285141   9.841  11.625   2.791
61082SOL     OW85142   1.523  12.737   6.695
61082SOL    HW185143   1.565  12.776   6.772
61082SOL    HW285144   1.437  12.779   6.692
61083SOL     OW85145  14.260  13.076   3.572
61083SOL    HW185146  14.328  13.140   3.549
61083SOL    HW285147  14.239  13.033   3.489
61084SOL     OW85148   4.062   8.438   5.005
61084SOL    HW185149   4.137   8.492   5.027
61084SOL    HW285150   4.065   8.430   4.909
61085SOL     OW85151   9.192  12.317   3.626
61085SOL    HW185152   9.181  12.300   3.719
61085SOL    HW285153   9.105  12.339   3.594
61086SOL     OW85154   5.568   2.145   4.679
61086SOL    HW185155   5.623   2.141   4.757
61086SOL    HW285156   5.587   2.063   4.632
61087SOL     OW85157  13.243   8.737   8.191
61087SOL    HW185158  13.198   8.732   8.276
61087SOL    HW285159  13.183   8.694   8.130
61088SOL     OW85160  13.748   2.496   8.453
61088SOL    HW185161  13.682   2.498   8.384
61088SOL    HW285162  13.716   2.429   8.514
61089SOL     OW85163  12.982   9.787   2.434
61089SOL    HW185164  13.004   9.855   2.371
61089SOL    HW285165  13.045   9.717   2.416
61090SOL     OW85166  13.291   7.386   8.140
61090SOL    HW185167  13.239   7.460   8.112
61090SOL    HW285168  13.233   7.335   8.196
61091SOL     OW85169  13.722   9.364   8.628
61091SOL    HW185170  13.665   9.307   8.576
61091SOL    HW285171  13.805   9.317   8.633
61092SOL     OW85172   5.167   8.326   3.270
61092SOL    HW185173   5.087   8.367   3.302
61092SOL    HW285174   5.231   8.341   3.339
61093SOL     OW85175   9.391  14.351   8.699
61093SOL    HW185176   9.391  14.284   8.767
61093SOL    HW285177   9.316  14.328   8.644
61094SOL     OW85178   6.996   3.793   6.012
61094SOL    HW185179   7.087   3.820   6.004
61094SOL    HW285180   6.991   3.709   5.966
61095SOL     OW85181   0.692   2.043   3.548
61095SOL    HW185182   0.636   2.053   3.471
61095SOL    HW285183   0.781   2.054   3.515
61096SOL     OW85184   1.603   7.571   0.231
61096SOL    HW185185   1.614   7.482   0.198
61096SOL    HW285186   1.577   7.622   0.154
61097SOL     OW85187   3.826  12.062  14.332
61097SOL    HW185188   3.746  12.012  14.347
61097SOL    HW285189   3.865  12.021  14.255
61098SOL     OW85190   7.053  14.763   7.601
61098SOL    HW185191   7.067  14.739   7.693
61098SOL    HW285192   7.138  14.749   7.560
61099SOL     OW85193   4.948   5.049   4.055
61099SOL    HW185194   5.008   5.114   4.017
61099SOL    HW285195   4.861   5.075   4.025
61100SOL     OW85196  14.740   0.117   2.530
61100SOL    HW185197  14.802   0.054   2.565
61100SOL    HW285198  14.661   0.106   2.583
61101SOL     OW85199  12.072   0.537   8.743
61101SOL    HW185200  12.124   0.575   8.672
61101SOL    HW285201  12.083   0.443   8.733
61102SOL     OW85202   6.530  10.350   9.462
61102SOL    HW185203   6.498  10.351   9.372
61102SOL    HW285204   6.596  10.280   9.464
61103SOL     OW85205   2.478   8.603  13.623
61103SOL    HW185206   2.490   8.687  13.579
61103SOL    HW285207   2.384   8.588  13.620
61104SOL     OW85208   1.388   0.136   2.457
61104SOL    HW185209   1.325   0.146   2.386
61104SOL    HW285210   1.354   0.062   2.509
61105SOL     OW85211   9.146   6.310   8.209
61105SOL    HW185212   9.217   6.310   8.146
61105SOL    HW285213   9.151   6.224   8.251
61106SOL     OW85214   3.411   1.174   8.002
61106SOL    HW185215   3.503   1.171   8.029
61106SOL    HW285216   3.408   1.241   7.933
61107SOL     OW85217  12.993  12.300   5.807
61107SOL    HW185218  12.963  12.210   5.799
61107SOL    HW285219  12.925  12.352   5.763
61108SOL     OW85220   5.239  12.300   0.132
61108SOL    HW185221   5.248  12.322   0.225
61108SOL    HW285222   5.155  12.255   0.126
61109SOL     OW85223  11.007   1.778  14.103
61109SOL    HW185224  10.923   1.814  14.074
61109SOL    HW285225  10.993   1.754  14.194
61110SOL     OW85226   2.056   3.305  11.667
61110SOL    HW185227   2.056   3.219  11.711
61110SOL    HW285228   1.963   3.321  11.648
61111SOL     OW85229   5.858   9.203   5.105
61111SOL    HW185230   5.946   9.194   5.067
61111SOL    HW285231   5.809   9.129   5.070
61112SOL     OW85232   5.442   6.396   9.759
61112SOL    HW185233   5.439   6.301   9.770
61112SOL    HW285234   5.390   6.412   9.680
61113SOL     OW85235   2.183   9.517  12.477
61113SOL    HW185236   2.139   9.569  12.409
61113SOL    HW285237   2.128   9.527  12.555
61114SOL     OW85238   8.982   0.625   8.803
61114SOL    HW185239   8.961   0.607   8.712
61114SOL    HW285240   8.909   0.588   8.853
61115SOL     OW85241  10.345   5.664  11.594
61115SOL    HW185242  10.385   5.618  11.520
61115SOL    HW285243  10.252   5.640  11.589
61116SOL     OW85244   7.075   4.961   4.393
61116SOL    HW185245   7.022   4.893   4.435
61116SOL    HW285246   7.152   4.914   4.361
61117SOL     OW85247   0.600  11.827   0.520
61117SOL    HW185248   0.588  11.734   0.540
61117SOL    HW285249   0.689  11.832   0.484
61118SOL     OW85250   7.929  10.523   7.272
61118SOL    HW185251   7.948  10.488   7.359
61118SOL    HW285252   7.838  10.497   7.255
61119SOL     OW85253  14.103   8.905   5.883
61119SOL    HW185254  14.032   8.901   5.946
61119SOL    HW285255  14.179   8.932   5.934
61120SOL     OW85256   0.286  13.087   4.674
61120SOL    HW185257   0.236  13.065   4.752
61120SOL    HW285258   0.224  13.077   4.602
61121SOL     OW85259   0.869  11.373   2.172
61121SOL    HW185260   0.838  11.315   2.242
61121SOL    HW285261   0.791  11.389   2.118
61122SOL     OW85262   5.136  12.708   0.694
61122SOL    HW185263   5.214  12.697   0.641
61122SOL    HW285264   5.151  12.788   0.744
61123SOL     OW85265   1.435   7.962   4.620
61123SOL    HW185266   1.440   8.014   4.540
61123SOL    HW285267   1.525   7.934   4.637
61124SOL     OW85268   1.217   3.062  12.884
61124SOL    HW185269   1.171   3.006  12.821
61124SOL    HW285270   1.170   3.050  12.966
61125SOL     OW85271   8.235  10.105   6.156
61125SOL    HW185272   8.291  10.062   6.092
61125SOL    HW285273   8.248  10.054   6.236
61126SOL     OW85274   8.460   1.568  10.100
61126SOL    HW185275   8.513   1.545  10.177
61126SOL    HW285276   8.522   1.614  10.042
61127SOL     OW85277   5.588  11.963   4.388
61127SOL    HW185278   5.561  11.915   4.310
61127SOL    HW285279   5.666  12.012   4.361
61128SOL     OW85280   2.346   2.644  11.459
61128SOL    HW185281   2.302   2.687  11.532
61128SOL    HW285282   2.312   2.688  11.381
61129SOL     OW85283   9.269   8.758  10.024
61129SOL    HW185284   9.199   8.761  10.089
61129SOL    HW285285   9.348   8.741  10.074
61130SOL     OW85286   5.469   7.490   9.369
61130SOL    HW185287   5.560   7.473   9.343
61130SOL    HW285288   5.431   7.403   9.381
61131SOL     OW85289  12.834   5.940   1.937
61131SOL    HW185290  12.881   5.991   1.870
61131SOL    HW285291  12.866   5.976   2.020
61132SOL     OW85292   1.928   9.277   2.715
61132SOL    HW185293   1.996   9.321   2.767
61132SOL    HW285294   1.853   9.273   2.774
61133SOL     OW85295   2.926  13.916   7.121
61133SOL    HW185296   2.844  13.955   7.092
61133SOL    HW285297   2.910  13.822   7.118
61134SOL     OW85298  13.196   9.346  12.229
61134SOL    HW185299  13.274   9.315  12.183
61134SOL    HW285300  13.156   9.266  12.263
61135SOL     OW85301   2.106   6.695  12.121
61135SOL    HW185302   2.107   6.784  12.085
61135SOL    HW285303   2.123   6.639  12.046
61136SOL     OW85304   8.478  12.170  13.870
61136SOL    HW185305   8.556  12.114  13.875
61136SOL    HW285306   8.477  12.216  13.954
61137SOL     OW85307   1.490   0.140   7.028
61137SOL    HW185308   1.560   0.176   7.083
61137SOL    HW285309   1.536   0.094   6.958
61138SOL     OW85310   5.493   0.994  10.472
61138SOL    HW185311   5.559   1.064  10.473
61138SOL    HW285312   5.516   0.941  10.395
61139SOL     OW85313   7.585   1.430  14.289
61139SOL    HW185314   7.537   1.373  14.350
61139SOL    HW285315   7.580   1.383  14.206
61140SOL     OW85316   4.189   7.013   3.478
61140SOL    HW185317   4.100   7.042   3.461
61140SOL    HW285318   4.212   7.052   3.563
61141SOL     OW85319   4.950  12.954   2.845
61141SOL    HW185320   4.977  12.903   2.922
61141SOL    HW285321   4.981  12.903   2.770
61142SOL     OW85322   0.445   4.641   6.777
61142SOL    HW185323   0.406   4.615   6.693
61142SOL    HW285324   0.471   4.558   6.818
61143SOL     OW85325  10.716   8.035   9.683
61143SOL    HW185326  10.627   8.048   9.651
61143SOL    HW285327  10.770   8.039   9.605
61144SOL     OW85328  10.327   3.555  12.569
61144SOL    HW185329  10.286   3.599  12.643
61144SOL    HW285330  10.358   3.472  12.605
61145SOL     OW85331  10.806  14.563   7.308
61145SOL    HW185332  10.793  14.626   7.379
61145SOL    HW285333  10.837  14.483   7.353
61146SOL     OW85334   9.604  10.688  11.565
61146SOL    HW185335   9.521  10.667  11.522
61146SOL    HW285336   9.583  10.689  11.659
61147SOL     OW85337   7.016   4.641  10.106
61147SOL    HW185338   7.104   4.619  10.077
61147SOL    HW285339   6.990   4.569  10.164
61148SOL     OW85340  14.445  11.159   2.056
61148SOL    HW185341  14.429  11.157   1.961
61148SOL    HW285342  14.361  11.135   2.095
61149SOL     OW85343   1.390   0.572   2.648
61149SOL    HW185344   1.366   0.493   2.696
61149SOL    HW285345   1.354   0.644   2.699
61150SOL     OW85346   3.352   6.143   4.126
61150SOL    HW185347   3.310   6.087   4.191
61150SOL    HW285348   3.298   6.134   4.048
61151SOL     OW85349   1.244   9.139   0.912
61151SOL    HW185350   1.334   9.123   0.884
61151SOL    HW285351   1.253   9.189   0.993
61152SOL     OW85352   2.069   3.248   3.133
61152SOL    HW185353   2.150   3.296   3.150
61152SOL    HW285354   2.092   3.156   3.144
61153SOL     OW85355   6.188  14.225   7.850
61153SOL    HW185356   6.179  14.139   7.810
61153SOL    HW285357   6.281  14.246   7.840
61154SOL     OW85358   5.920  13.753   2.195
61154SOL    HW185359   5.836  13.791   2.168
61154SOL    HW285360   5.897  13.668   2.231
61155SOL     OW85361   8.111   9.967  13.330
61155SOL    HW185362   8.195  10.000  13.362
61155SOL    HW285363   8.070  10.043  13.288
61156SOL     OW85364   8.952   9.748   7.641
61156SOL    HW185365   9.004   9.677   7.680
61156SOL    HW285366   8.887   9.703   7.587
61157SOL     OW85367   6.101   7.851   3.197
61157SOL    HW185368   6.027   7.897   3.156
61157SOL    HW285369   6.060   7.788   3.256
61158SOL     OW85370  12.923   3.397  14.329
61158SOL    HW185371  12.948   3.457  14.400
61158SOL    HW285372  12.827   3.402  14.327
61159SOL     OW85373  14.401   6.906  12.777
61159SOL    HW185374  14.371   6.909  12.686
61159SOL    HW285375  14.492   6.937  12.773
61160SOL     OW85376   3.053  12.853  10.216
61160SOL    HW185377   3.044  12.932  10.268
61160SOL    HW285378   3.047  12.781  10.279
61161SOL     OW85379   7.277   6.955   1.593
61161SOL    HW185380   7.346   6.942   1.527
61161SOL    HW285381   7.195   6.950   1.544
61162SOL     OW85382   9.058   8.020   9.817
61162SOL    HW185383   9.123   7.952   9.837
61162SOL    HW285384   9.079   8.047   9.728
61163SOL     OW85385   7.478   8.688   9.886
61163SOL    HW185386   7.560   8.736   9.874
61163SOL    HW285387   7.500   8.618   9.948
61164SOL     OW85388  10.254  11.163   9.258
61164SOL    HW185389  10.271  11.131   9.347
61164SOL    HW285390  10.321  11.230   9.244
61165SOL     OW85391  10.412  14.627   7.901
61165SOL    HW185392  10.377  14.712   7.929
61165SOL    HW285393  10.507  14.639   7.900
61166SOL     OW85394   5.285   5.882   0.548
61166SOL    HW185395   5.367   5.920   0.577
61166SOL    HW285396   5.308   5.828   0.472
61167SOL     OW85397  11.910  13.493  12.468
61167SOL    HW185398  11.961  13.533  12.538
61167SOL    HW285399  11.974  13.445  12.416
61168SOL     OW85400  12.721   5.688   3.611
61168SOL    HW185401  12.638   5.646   3.633
61168SOL    HW285402  12.785   5.618   3.612
61169SOL     OW85403   8.344  14.674  10.455
61169SOL    HW185404   8.343  14.757  10.407
61169SOL    HW285405   8.253  14.656  10.476
61170SOL     OW85406   9.222   4.090  11.366
61170SOL    HW185407   9.309   4.127  11.374
61170SOL    HW285408   9.194   4.113  11.277
61171SOL     OW85409   6.581   7.629  10.938
61171SOL    HW185410   6.668   7.669  10.939
61171SOL    HW285411   6.550   7.642  10.849
61172SOL     OW85412   5.323   4.615   0.708
61172SOL    HW185413   5.259   4.674   0.668
61172SOL    HW285414   5.371   4.577   0.634
61173SOL     OW85415  13.824   1.549  10.685
61173SOL    HW185416  13.869   1.629  10.714
61173SOL    HW285417  13.867   1.479  10.735
61174SOL     OW85418   9.266  10.665   6.083
61174SOL    HW185419   9.201  10.735   6.075
61174SOL    HW285420   9.348  10.711   6.098
61175SOL     OW85421  10.416   0.373   1.621
61175SOL    HW185422  10.415   0.420   1.705
61175SOL    HW285423  10.389   0.284   1.644
61176SOL     OW85424   5.792   0.975   8.684
61176SOL    HW185425   5.860   0.987   8.750
61176SOL    HW285426   5.739   1.055   8.689
61177SOL     OW85427   5.257  12.028   6.917
61177SOL    HW185428   5.227  12.085   6.988
61177SOL    HW285429   5.331  11.981   6.955
61178SOL     OW85430   2.264   1.089   8.597
61178SOL    HW185431   2.289   1.012   8.545
61178SOL    HW285432   2.276   1.163   8.538
61179SOL     OW85433   5.739  13.225   0.222
61179SOL    HW185434   5.735  13.314   0.256
61179SOL    HW285435   5.833  13.207   0.211
61180SOL     OW85436  11.525  12.011  13.284
61180SOL    HW185437  11.597  11.978  13.338
61180SOL    HW285438  11.461  11.939  13.282
61181SOL     OW85439   5.499   8.885   2.887
61181SOL    HW185440   5.405   8.874   2.872
61181SOL    HW285441   5.514   8.979   2.882
61182SOL     OW85442   1.130   2.749   0.761
61182SOL    HW185443   1.198   2.691   0.796
61182SOL    HW285444   1.152   2.759   0.668
61183SOL     OW85445   3.094   7.649  12.713
61183SOL    HW185446   3.173   7.606  12.747
61183SOL    HW285447   3.106   7.651  12.619
61184SOL     OW85448   4.661  14.476  14.261
61184SOL    HW185449   4.739  14.493  14.313
61184SOL    HW285450   4.642  14.383  14.275
61185SOL     OW85451  12.560   7.327   3.634
61185SOL    HW185452  12.626   7.283   3.687
61185SOL    HW285453  12.553   7.274   3.554
61186SOL     OW85454  14.591   1.720   6.832
61186SOL    HW185455  14.497   1.735   6.826
61186SOL    HW285456  14.604   1.684   6.920
61187SOL     OW85457   5.184  14.676   7.044
61187SOL    HW185458   5.270  14.690   7.004
61187SOL    HW285459   5.166  14.583   7.032
61188SOL     OW85460   0.314  12.990   8.404
61188SOL    HW185461   0.324  12.944   8.321
61188SOL    HW285462   0.310  13.083   8.380
61189SOL     OW85463  14.563   8.106  13.743
61189SOL    HW185464  14.653   8.139  13.750
61189SOL    HW285465  14.512   8.166  13.798
61190SOL     OW85466  10.574   9.258   0.571
61190SOL    HW185467  10.640   9.222   0.513
61190SOL    HW285468  10.612   9.252   0.659
61191SOL     OW85469   0.049  13.983   8.214
61191SOL    HW185470  14.832  14.014   8.245
61191SOL    HW285471   0.046  13.994   8.119
61192SOL     OW85472  14.168   4.001   8.188
61192SOL    HW185473  14.123   3.994   8.272
61192SOL    HW285474  14.155   4.092   8.161
61193SOL     OW85475   6.839   6.303   3.174
61193SOL    HW185476   6.761   6.252   3.195
61193SOL    HW285477   6.819   6.344   3.089
61194SOL     OW85478  13.366   2.487   5.868
61194SOL    HW185479  13.446   2.472   5.819
61194SOL    HW285480  13.390   2.548   5.937
61195SOL     OW85481  11.823   8.871   5.651
61195SOL    HW185482  11.879   8.878   5.728
61195SOL    HW285483  11.817   8.777   5.634
61196SOL     OW85484   3.939   4.507   2.265
61196SOL    HW185485   3.990   4.426   2.266
61196SOL    HW285486   3.936   4.535   2.356
61197SOL     OW85487   3.522   6.822   0.688
61197SOL    HW185488   3.554   6.850   0.773
61197SOL    HW285489   3.555   6.733   0.678
61198SOL     OW85490   1.978   3.722   1.644
61198SOL    HW185491   1.957   3.666   1.569
61198SOL    HW285492   1.990   3.661   1.717
61199SOL     OW85493  10.627   0.713  11.945
61199SOL    HW185494  10.566   0.738  12.014
61199SOL    HW285495  10.710   0.700  11.990
61200SOL     OW85496   7.035   7.146   6.215
61200SOL    HW185497   7.122   7.105   6.215
61200SOL    HW285498   6.984   7.094   6.153
61201SOL     OW85499   4.429   1.020  14.014
61201SOL    HW185500   4.389   1.028  13.927
61201SOL    HW285501   4.403   1.101  14.059
61202SOL     OW85502   4.557   0.677  10.425
61202SOL    HW185503   4.493   0.657  10.493
61202SOL    HW285504   4.624   0.609  10.434
61203SOL     OW85505   9.573   5.971   1.639
61203SOL    HW185506   9.636   6.041   1.658
61203SOL    HW285507   9.494   6.017   1.610
61204SOL     OW85508  14.817   4.297   2.181
61204SOL    HW185509  14.867   4.355   2.239
61204SOL    HW285510  14.745   4.352   2.150
61205SOL     OW85511   6.777   8.652  10.522
61205SOL    HW185512   6.812   8.738  10.498
61205SOL    HW285513   6.703   8.671  10.580
61206SOL     OW85514   9.710   9.400  10.199
61206SOL    HW185515   9.617   9.411  10.219
61206SOL    HW285516   9.740   9.487  10.172
61207SOL     OW85517   7.738  12.659   3.804
61207SOL    HW185518   7.663  12.712   3.830
61207SOL    HW285519   7.746  12.674   3.709
61208SOL     OW85520   8.641  10.384   9.122
61208SOL    HW185521   8.548  10.375   9.099
61208SOL    HW285522   8.688  10.344   9.050
61209SOL     OW85523  11.652   8.799   1.873
61209SOL    HW185524  11.641   8.704   1.875
61209SOL    HW285525  11.563   8.833   1.866
61210SOL     OW85526   4.330   2.998   1.298
61210SOL    HW185527   4.298   2.990   1.208
61210SOL    HW285528   4.267   3.056   1.341
61211SOL     OW85529   5.674   5.919   6.465
61211SOL    HW185530   5.615   5.945   6.535
61211SOL    HW285531   5.756   5.965   6.485
61212SOL     OW85532  13.429   1.008   7.277
61212SOL    HW185533  13.387   0.944   7.219
61212SOL    HW285534  13.413   1.093   7.235
61213SOL     OW85535  14.110   6.852   2.699
61213SOL    HW185536  14.047   6.909   2.656
61213SOL    HW285537  14.059   6.799   2.759
61214SOL     OW85538  11.420  11.265  11.537
61214SOL    HW185539  11.356  11.217  11.589
61214SOL    HW285540  11.420  11.354  11.573
61215SOL     OW85541  11.823   1.194   7.532
61215SOL    HW185542  11.913   1.203   7.501
61215SOL    HW285543  11.815   1.261   7.600
61216SOL     OW85544   9.572   0.441   7.668
61216SOL    HW185545   9.487   0.474   7.698
61216SOL    HW285546   9.573   0.459   7.574
61217SOL     OW85547   3.249   9.542   0.969
61217SOL    HW185548   3.171   9.561   0.917
61217SOL    HW285549   3.321   9.582   0.921
61218SOL     OW85550   2.401   9.707   8.268
61218SOL    HW185551   2.374   9.667   8.351
61218SOL    HW285552   2.440   9.791   8.294
61219SOL     OW85553   0.346  12.715   8.759
61219SOL    HW185554   0.354  12.657   8.682
61219SOL    HW285555   0.384  12.664   8.831
61220SOL     OW85556   5.076   2.666  11.651
61220SOL    HW185557   5.130   2.643  11.575
61220SOL    HW285558   5.040   2.752  11.630
61221SOL     OW85559  11.437  13.402   1.010
61221SOL    HW185560  11.514  13.348   0.990
61221SOL    HW285561  11.364  13.356   0.969
61222SOL     OW85562  12.391   1.668   7.150
61222SOL    HW185563  12.408   1.680   7.056
61222SOL    HW285564  12.327   1.735   7.171
61223SOL     OW85565   3.440   6.814   1.546
61223SOL    HW185566   3.357   6.765   1.547
61223SOL    HW285567   3.413   6.906   1.550
61224SOL     OW85568  11.562  10.906   7.148
61224SOL    HW185569  11.509  10.963   7.091
61224SOL    HW285570  11.503  10.834   7.171
61225SOL     OW85571  10.293  11.944  12.179
61225SOL    HW185572  10.236  11.973  12.250
61225SOL    HW285573  10.242  11.880  12.130
61226SOL     OW85574   1.639   7.748   3.975
61226SOL    HW185575   1.587   7.682   3.930
61226SOL    HW285576   1.701   7.697   4.028
61227SOL     OW85577  14.542  14.728   6.791
61227SOL    HW185578  14.564  14.794   6.857
61227SOL    HW285579  14.626  14.687   6.770
61228SOL     OW85580   5.061   6.461   6.139
61228SOL    HW185581   5.123   6.402   6.181
61228SOL    HW285582   5.110   6.499   6.066
61229SOL     OW85583   9.325  11.958   0.793
61229SOL    HW185584   9.357  12.044   0.818
61229SOL    HW285585   9.253  11.941   0.853
61230SOL     OW85586   5.729  13.200   1.471
61230SOL    HW185587   5.793  13.134   1.443
61230SOL    HW285588   5.768  13.284   1.446
61231SOL     OW85589   7.134  14.002  13.295
61231SOL    HW185590   7.105  13.925  13.247
61231SOL    HW285591   7.196  13.968  13.360
61232SOL     OW85592  12.509  13.143   4.900
61232SOL    HW185593  12.604  13.135   4.911
61232SOL    HW285594  12.496  13.146   4.805
61233SOL     OW85595   5.643   9.832   8.026
61233SOL    HW185596   5.571   9.777   7.994
61233SOL    HW285597   5.720   9.800   7.979
61234SOL     OW85598   5.196   5.432  11.186
61234SOL    HW185599   5.106   5.441  11.156
61234SOL    HW285600   5.210   5.337  11.190
61235SOL     OW85601  12.365   3.679   1.234
61235SOL    HW185602  12.354   3.766   1.272
61235SOL    HW285603  12.369   3.620   1.309
61236SOL     OW85604   3.141  11.063  12.097
61236SOL    HW185605   3.111  10.973  12.102
61236SOL    HW285606   3.110  11.095  12.012
61237SOL     OW85607  13.679   5.759  14.800
61237SOL    HW185608  13.763   5.751  14.844
61237SOL    HW285609  13.701   5.768  14.707
61238SOL     OW85610   2.605  11.884  14.370
61238SOL    HW185611   2.604  11.909  14.463
61238SOL    HW285612   2.563  11.958  14.325
61239SOL     OW85613  12.159   7.230  10.432
61239SOL    HW185614  12.197   7.308  10.391
61239SOL    HW285615  12.073   7.221  10.390
61240SOL     OW85616  12.400  10.675   5.301
61240SOL    HW185617  12.396  10.613   5.374
61240SOL    HW285618  12.353  10.752   5.332
61241SOL     OW85619   4.273  10.459  13.821
61241SOL    HW185620   4.327  10.536  13.805
61241SOL    HW285621   4.190  10.494  13.854
61242SOL     OW85622   4.576   8.984  14.554
61242SOL    HW185623   4.570   9.037  14.633
61242SOL    HW285624   4.578   9.047  14.482
61243SOL     OW85625   5.342   2.899   6.136
61243SOL    HW185626   5.355   2.904   6.042
61243SOL    HW285627   5.387   2.818   6.162
61244SOL     OW85628   5.587   6.705   1.612
61244SOL    HW185629   5.637   6.693   1.532
61244SOL    HW285630   5.648   6.746   1.673
61245SOL     OW85631   2.955   5.880   8.686
61245SOL    HW185632   2.886   5.815   8.672
61245SOL    HW285633   2.935   5.949   8.622
61246SOL     OW85634   9.701   0.819   9.631
61246SOL    HW185635   9.618   0.851   9.666
61246SOL    HW285636   9.717   0.737   9.678
61247SOL     OW85637   7.428  13.984   1.368
61247SOL    HW185638   7.429  14.048   1.296
61247SOL    HW285639   7.406  14.036   1.445
61248SOL     OW85640   0.202   7.405  10.428
61248SOL    HW185641   0.247   7.321  10.416
61248SOL    HW285642   0.117   7.382  10.463
61249SOL     OW85643   8.242  13.793   0.743
61249SOL    HW185644   8.241  13.715   0.799
61249SOL    HW285645   8.247  13.866   0.804
61250SOL     OW85646   2.493   2.533  13.815
61250SOL    HW185647   2.469   2.442  13.800
61250SOL    HW285648   2.588   2.531  13.828
61251SOL     OW85649   1.149   1.434  13.583
61251SOL    HW185650   1.176   1.413  13.672
61251SOL    HW285651   1.231   1.442  13.534
61252SOL     OW85652   8.665   4.153  11.668
61252SOL    HW185653   8.760   4.154  11.669
61252SOL    HW285654   8.640   4.228  11.721
61253SOL     OW85655   3.437   3.367   3.325
61253SOL    HW185656   3.435   3.350   3.420
61253SOL    HW285657   3.523   3.407   3.310
61254SOL     OW85658   0.593  12.312  13.524
61254SOL    HW185659   0.636  12.242  13.573
61254SOL    HW285660   0.537  12.267  13.462
61255SOL     OW85661   3.312   1.941   5.817
61255SOL    HW185662   3.232   1.979   5.854
61255SOL    HW285663   3.313   1.851   5.851
61256SOL     OW85664   2.933   7.459  11.341
61256SOL    HW185665   2.860   7.398  11.338
61256SOL    HW285666   2.897   7.542  11.309
61257SOL     OW85667   0.726   7.360   5.487
61257SOL    HW185668   0.771   7.397   5.411
61257SOL    HW285669   0.705   7.435   5.542
61258SOL     OW85670   5.783   6.920  10.348
61258SOL    HW185671   5.791   6.856  10.278
61258SOL    HW285672   5.840   6.887  10.418
61259SOL     OW85673   3.762   3.428   9.993
61259SOL    HW185674   3.745   3.378   9.914
61259SOL    HW285675   3.766   3.519   9.963
61260SOL     OW85676  11.220   6.363   4.053
61260SOL    HW185677  11.231   6.457   4.068
61260SOL    HW285678  11.204   6.356   3.959
61261SOL     OW85679  11.855   7.630   9.590
61261SOL    HW185680  11.856   7.680   9.508
61261SOL    HW285681  11.860   7.697   9.658
61262SOL     OW85682  10.674   1.469  12.420
61262SOL    HW185683  10.643   1.382  12.444
61262SOL    HW285684  10.764   1.473  12.452
61263SOL     OW85685   7.625   5.345  12.178
61263SOL    HW185686   7.615   5.398  12.257
61263SOL    HW285687   7.576   5.392  12.111
61264SOL     OW85688  12.024  13.063   6.306
61264SOL    HW185689  12.119  13.055   6.300
61264SOL    HW285690  12.009  13.156   6.322
61265SOL     OW85691   1.795   2.075   4.033
61265SOL    HW185692   1.708   2.113   4.044
61265SOL    HW285693   1.782   1.981   4.047
61266SOL     OW85694   4.023   5.194   2.087
61266SOL    HW185695   4.032   5.266   2.024
61266SOL    HW285696   3.929   5.175   2.089
61267SOL     OW85697   2.684   9.253   5.724
61267SOL    HW185698   2.730   9.206   5.794
61267SOL    HW285699   2.730   9.228   5.644
61268SOL     OW85700   3.457  11.298   8.470
61268SOL    HW185701   3.528  11.354   8.501
61268SOL    HW285702   3.502  11.222   8.432
61269SOL     OW85703   8.313   7.361   0.705
61269SOL    HW185704   8.309   7.337   0.613
61269SOL    HW285705   8.317   7.277   0.752
61270SOL     OW85706   7.983   3.204  10.428
61270SOL    HW185707   7.935   3.123  10.442
61270SOL    HW285708   8.054   3.201  10.493
61271SOL     OW85709   4.975  11.415   5.547
61271SOL    HW185710   4.994  11.328   5.510
61271SOL    HW285711   5.055  11.465   5.532
61272SOL     OW85712   4.883   0.688   5.573
61272SOL    HW185713   4.898   0.628   5.500
61272SOL    HW285714   4.945   0.660   5.640
61273SOL     OW85715   2.319   3.110   5.194
61273SOL    HW185716   2.278   3.138   5.276
61273SOL    HW285717   2.247   3.095   5.134
61274SOL     OW85718  12.436   6.144  13.104
61274SOL    HW185719  12.395   6.115  13.186
61274SOL    HW285720  12.502   6.208  13.132
61275SOL     OW85721   1.870  11.115   9.636
61275SOL    HW185722   1.847  11.193   9.687
61275SOL    HW285723   1.879  11.046   9.701
61276SOL     OW85724  11.110  12.433   3.593
61276SOL    HW185725  11.182  12.443   3.530
61276SOL    HW285726  11.126  12.348   3.635
61277SOL     OW85727   5.346  10.796  13.549
61277SOL    HW185728   5.356  10.702  13.562
61277SOL    HW285729   5.422  10.835  13.593
61278SOL     OW85730   2.515  10.919   9.986
61278SOL    HW185731   2.545  10.836   9.948
61278SOL    HW285732   2.532  10.984   9.918
61279SOL     OW85733  14.335   6.799  14.784
61279SOL    HW185734  14.317   6.820  14.693
61279SOL    HW285735  14.261   6.744  14.811
61280SOL     OW85736  12.052   2.958   9.255
61280SOL    HW185737  11.994   2.912   9.316
61280SOL    HW285738  12.087   2.888   9.199
61281SOL     OW85739   5.759   9.518  14.770
61281SOL    HW185740   5.738   9.563  14.689
61281SOL    HW285741   5.731   9.578  14.839
61282SOL     OW85742   8.085  13.073   0.077
61282SOL    HW185743   8.143  13.140   0.113
61282SOL    HW285744   8.108  12.993   0.125
61283SOL     OW85745   9.681  10.314  12.795
61283SOL    HW185746   9.645  10.225  12.790
61283SOL    HW285747   9.775  10.302  12.810
61284SOL     OW85748   0.886   9.919   4.318
61284SOL    HW185749   0.828   9.956   4.385
61284SOL    HW285750   0.956   9.984   4.308
61285SOL     OW85751   3.444  13.774   9.132
61285SOL    HW185752   3.520  13.727   9.169
61285SOL    HW285753   3.474  13.865   9.124
61286SOL     OW85754   6.931   2.808   2.185
61286SOL    HW185755   6.884   2.885   2.154
61286SOL    HW285756   6.985   2.781   2.111
61287SOL     OW85757  14.531   1.497   0.938
61287SOL    HW185758  14.623   1.521   0.950
61287SOL    HW285759  14.495   1.566   0.881
61288SOL     OW85760   9.206   8.805  13.629
61288SOL    HW185761   9.245   8.890  13.611
61288SOL    HW285762   9.264   8.765  13.694
61289SOL     OW85763   2.308   6.334   9.581
61289SOL    HW185764   2.372   6.366   9.645
61289SOL    HW285765   2.238   6.296   9.634
61290SOL     OW85766  14.568   2.753  11.423
61290SOL    HW185767  14.620   2.795  11.355
61290SOL    HW285768  14.541   2.825  11.480
61291SOL     OW85769  10.819  12.085   0.461
61291SOL    HW185770  10.835  12.170   0.421
61291SOL    HW285771  10.854  12.022   0.398
61292SOL     OW85772   7.556  14.045  11.579
61292SOL    HW185773   7.556  14.025  11.672
61292SOL    HW285774   7.641  14.016  11.547
61293SOL     OW85775  12.207   7.977   3.142
61293SOL    HW185776  12.207   7.889   3.181
61293SOL    HW285777  12.199   7.962   3.048
61294SOL     OW85778   2.587   4.272  14.225
61294SOL    HW185779   2.661   4.326  14.252
61294SOL    HW285780   2.623   4.183  14.224
61295SOL     OW85781   5.120   4.108   1.131
61295SOL    HW185782   5.137   4.149   1.046
61295SOL    HW285783   5.150   4.018   1.121
61296SOL     OW85784   4.854  14.127  11.950
61296SOL    HW185785   4.837  14.064  11.879
61296SOL    HW285786   4.900  14.199  11.907
61297SOL     OW85787   3.429   8.501   9.532
61297SOL    HW185788   3.455   8.588   9.501
61297SOL    HW285789   3.334   8.503   9.531
61298SOL     OW85790   6.525  10.013   5.854
61298SOL    HW185791   6.602  10.020   5.910
61298SOL    HW285792   6.451  10.022   5.914
61299SOL     OW85793   6.705  13.319  11.768
61299SOL    HW185794   6.615  13.351  11.757
61299SOL    HW285795   6.738  13.367  11.844
61300SOL     OW85796  11.873   3.294  14.158
61300SOL    HW185797  11.857   3.385  14.135
61300SOL    HW285798  11.954   3.295  14.208
61301SOL     OW85799  11.549  10.805   0.794
61301SOL    HW185800  11.457  10.827   0.780
61301SOL    HW285801  11.592  10.889   0.809
61302SOL     OW85802   7.714  12.738  11.708
61302SOL    HW185803   7.732  12.817  11.760
61302SOL    HW285804   7.622  12.719  11.727
61303SOL     OW85805   9.141   5.802   7.214
61303SOL    HW185806   9.149   5.707   7.223
61303SOL    HW285807   9.071   5.814   7.150
61304SOL     OW85808  13.188   6.838   1.252
61304SOL    HW185809  13.270   6.823   1.299
61304SOL    HW285810  13.209   6.906   1.188
61305SOL     OW85811   3.985  12.215   2.347
61305SOL    HW185812   4.042  12.290   2.367
61305SOL    HW285813   3.961  12.180   2.433
61306SOL     OW85814   7.092  12.983   4.278
61306SOL    HW185815   7.066  13.075   4.277
61306SOL    HW285816   7.029  12.941   4.337
61307SOL     OW85817  12.592   3.408  10.088
61307SOL    HW185818  12.537   3.479  10.121
61307SOL    HW285819  12.648   3.385  10.161
61308SOL     OW85820   2.056   4.506   5.786
61308SOL    HW185821   1.993   4.500   5.714
61308SOL    HW285822   2.005   4.488   5.865
61309SOL     OW85823  13.137   9.411   0.559
61309SOL    HW185824  13.153   9.317   0.558
61309SOL    HW285825  13.183   9.442   0.637
61310SOL     OW85826  11.436   3.425   7.026
61310SOL    HW185827  11.348   3.460   7.020
61310SOL    HW285828  11.489   3.481   6.970
61311SOL     OW85829   0.832   6.422   4.991
61311SOL    HW185830   0.916   6.466   5.008
61311SOL    HW285831   0.836   6.399   4.898
61312SOL     OW85832   7.412   8.506   8.964
61312SOL    HW185833   7.442   8.450   9.035
61312SOL    HW285834   7.377   8.445   8.899
61313SOL     OW85835   1.045   0.011   5.957
61313SOL    HW185836   1.006   0.026   5.871
61313SOL    HW285837   1.032  14.786   5.974
61314SOL     OW85838   0.496  14.334  13.920
61314SOL    HW185839   0.433  14.388  13.968
61314SOL    HW285840   0.496  14.250  13.966
61315SOL     OW85841   6.104  12.897  10.985
61315SOL    HW185842   6.051  12.932  11.057
61315SOL    HW285843   6.074  12.807  10.974
61316SOL     OW85844   6.862   8.379   0.400
61316SOL    HW185845   6.923   8.308   0.379
61316SOL    HW285846   6.884   8.448   0.337
61317SOL     OW85847   5.338  10.657   7.323
61317SOL    HW185848   5.381  10.741   7.305
61317SOL    HW285849   5.245  10.679   7.329
61318SOL     OW85850   0.754   5.996   6.500
61318SOL    HW185851   0.713   5.982   6.585
61318SOL    HW285852   0.827   5.934   6.498
61319SOL     OW85853   6.753   5.247   4.967
61319SOL    HW185854   6.749   5.321   4.908
61319SOL    HW285855   6.736   5.284   5.054
61320SOL     OW85856   3.588   9.421   2.756
61320SOL    HW185857   3.679   9.438   2.780
61320SOL    HW285858   3.586   9.328   2.734
61321SOL     OW85859   2.972   0.205   1.248
61321SOL    HW185860   2.878   0.216   1.232
61321SOL    HW285861   3.011   0.207   1.160
61322SOL     OW85862   3.752   9.548   7.841
61322SOL    HW185863   3.676   9.502   7.806
61322SOL    HW285864   3.747   9.534   7.936
61323SOL     OW85865   9.056   3.097  12.831
61323SOL    HW185866   9.050   3.115  12.925
61323SOL    HW285867   8.965   3.080  12.805
61324SOL     OW85868   7.727   0.541  14.236
61324SOL    HW185869   7.645   0.528  14.188
61324SOL    HW285870   7.793   0.556  14.169
61325SOL     OW85871   2.051   1.297  12.500
61325SOL    HW185872   2.131   1.347  12.487
61325SOL    HW285873   1.984   1.363  12.519
61326SOL     OW85874  10.340  10.261   1.382
61326SOL    HW185875  10.309  10.171   1.380
61326SOL    HW285876  10.406  10.263   1.452
61327SOL     OW85877   1.191   9.198   6.722
61327SOL    HW185878   1.189   9.156   6.636
61327SOL    HW285879   1.284   9.206   6.742
61328SOL     OW85880   9.192   4.724  12.113
61328SOL    HW185881   9.235   4.791  12.166
61328SOL    HW285882   9.136   4.676  12.174
61329SOL     OW85883   7.948   0.298   1.952
61329SOL    HW185884   7.948   0.205   1.977
61329SOL    HW285885   7.863   0.311   1.911
61330SOL     OW85886   4.906   1.311  11.260
61330SOL    HW185887   4.827   1.285  11.212
61330SOL    HW285888   4.896   1.272  11.347
61331SOL     OW85889   5.636  13.917   8.835
61331SOL    HW185890   5.550  13.938   8.798
61331SOL    HW285891   5.616  13.875   8.919
61332SOL     OW85892   3.470  12.812   3.327
61332SOL    HW185893   3.402  12.847   3.270
61332SOL    HW285894   3.536  12.882   3.331
61333SOL     OW85895  12.060  10.859   9.603
61333SOL    HW185896  12.154  10.865   9.582
61333SOL    HW285897  12.057  10.844   9.697
61334SOL     OW85898  14.032  11.599   0.735
61334SOL    HW185899  13.982  11.526   0.769
61334SOL    HW285900  14.067  11.642   0.813
61335SOL     OW85901   2.092   3.080   1.497
61335SOL    HW185902   2.074   2.987   1.490
61335SOL    HW285903   2.006   3.120   1.512
61336SOL     OW85904   9.275   7.528   9.058
61336SOL    HW185905   9.263   7.460   8.992
61336SOL    HW285906   9.193   7.578   9.057
61337SOL     OW85907   3.770   2.771   4.181
61337SOL    HW185908   3.777   2.694   4.237
61337SOL    HW285909   3.861   2.790   4.155
61338SOL     OW85910   2.425   4.565  10.016
61338SOL    HW185911   2.424   4.541  10.109
61338SOL    HW285912   2.500   4.624  10.007
61339SOL     OW85913   1.336   6.428   6.598
61339SOL    HW185914   1.402   6.382   6.546
61339SOL    HW285915   1.278   6.468   6.534
61340SOL     OW85916   0.233   0.016   6.945
61340SOL    HW185917   0.158  14.837   6.983
61340SOL    HW285918   0.196   0.065   6.872
61341SOL     OW85919   5.141   5.585   2.951
61341SOL    HW185920   5.184   5.550   3.029
61341SOL    HW285921   5.114   5.673   2.976
61342SOL     OW85922   2.975  13.913  12.004
61342SOL    HW185923   2.967  14.004  11.975
61342SOL    HW285924   2.890  13.874  11.982
61343SOL     OW85925   1.200   4.477  13.693
61343SOL    HW185926   1.215   4.479  13.598
61343SOL    HW285927   1.151   4.397  13.708
61344SOL     OW85928   8.728   4.837  11.174
61344SOL    HW185929   8.667   4.869  11.241
61344SOL    HW285930   8.813   4.872  11.201
61345SOL     OW85931  13.126   4.002   3.772
61345SOL    HW185932  13.103   3.919   3.815
61345SOL    HW285933  13.076   4.001   3.690
61346SOL     OW85934  11.139   3.412   7.582
61346SOL    HW185935  11.068   3.370   7.532
61346SOL    HW285936  11.189   3.460   7.516
61347SOL     OW85937   7.800   3.562  12.796
61347SOL    HW185938   7.764   3.549  12.708
61347SOL    HW285939   7.892   3.536  12.788
61348SOL     OW85940   2.679   1.617   8.416
61348SOL    HW185941   2.638   1.536   8.447
61348SOL    HW285942   2.629   1.640   8.338
61349SOL     OW85943  10.853   4.007  11.882
61349SOL    HW185944  10.859   3.936  11.818
61349SOL    HW285945  10.842   4.086  11.830
61350SOL     OW85946  12.569   8.662   9.672
61350SOL    HW185947  12.521   8.734   9.713
61350SOL    HW285948  12.581   8.689   9.581
61351SOL     OW85949   4.167  11.428   6.235
61351SOL    HW185950   4.154  11.342   6.195
61351SOL    HW285951   4.119  11.489   6.179
61352SOL     OW85952   8.473   0.012  10.155
61352SOL    HW185953   8.398  14.853  10.208
61352SOL    HW285954   8.461  14.835  10.071
61353SOL     OW85955  14.649  14.518   7.290
61353SOL    HW185956  14.572  14.504   7.235
61353SOL    HW285957  14.614  14.546   7.375
61354SOL     OW85958   5.604   7.968   4.943
61354SOL    HW185959   5.610   8.047   4.890
61354SOL    HW285960   5.573   7.901   4.882
61355SOL     OW85961   1.045   5.609  11.142
61355SOL    HW185962   1.093   5.608  11.225
61355SOL    HW285963   1.108   5.643  11.078
61356SOL     OW85964   3.365   4.087   4.662
61356SOL    HW185965   3.406   4.171   4.642
61356SOL    HW285966   3.437   4.024   4.659
61357SOL     OW85967  10.925   0.816   6.773
61357SOL    HW185968  10.846   0.863   6.797
61357SOL    HW285969  10.913   0.728   6.809
61358SOL     OW85970  11.398   2.772   9.961
61358SOL    HW185971  11.475   2.764  10.017
61358SOL    HW285972  11.335   2.821  10.013
61359SOL     OW85973   2.761   8.566   5.273
61359SOL    HW185974   2.826   8.512   5.319
61359SOL    HW285975   2.779   8.655   5.301
61360SOL     OW85976   0.256   6.283   2.766
61360SOL    HW185977   0.339   6.307   2.726
61360SOL    HW285978   0.226   6.206   2.718
61361SOL     OW85979   1.636   0.059  14.403
61361SOL    HW185980   1.651   0.149  14.373
61361SOL    HW285981   1.591   0.017  14.330
61362SOL     OW85982   8.096  14.232   5.883
61362SOL    HW185983   8.161  14.181   5.834
61362SOL    HW285984   8.037  14.267   5.815
61363SOL     OW85985  10.685   2.490   3.856
61363SOL    HW185986  10.726   2.570   3.823
61363SOL    HW285987  10.618   2.522   3.917
61364SOL     OW85988  10.388  11.232  13.632
61364SOL    HW185989  10.402  11.175  13.707
61364SOL    HW285990  10.454  11.204  13.568
61365SOL     OW85991   4.072   5.755  12.571
61365SOL    HW185992   4.042   5.679  12.521
61365SOL    HW285993   4.163   5.767  12.545
61366SOL     OW85994   6.788   8.936   6.318
61366SOL    HW185995   6.743   8.854   6.340
61366SOL    HW285996   6.815   8.972   6.403
61367SOL     OW85997   5.188  10.253  13.626
61367SOL    HW185998   5.249  10.240  13.699
61367SOL    HW285999   5.190  10.171  13.578
61368SOL     OW86000  11.044  11.662   1.400
61368SOL    HW186001  11.030  11.702   1.314
61368SOL    HW286002  11.039  11.568   1.382
61369SOL     OW86003   6.183   5.532   3.834
61369SOL    HW186004   6.173   5.622   3.864
61369SOL    HW286005   6.094   5.496   3.835
61370SOL     OW86006   7.913   2.554   3.398
61370SOL    HW186007   7.991   2.502   3.380
61370SOL    HW286008   7.929   2.637   3.353
61371SOL     OW86009   6.778   7.171   1.940
61371SOL    HW186010   6.829   7.244   1.907
61371SOL    HW286011   6.711   7.212   1.996
61372SOL     OW86012   7.197   9.594  10.829
61372SOL    HW186013   7.111   9.613  10.792
61372SOL    HW286014   7.210   9.663  10.895
61373SOL     OW86015   2.459   2.868  14.654
61373SOL    HW186016   2.402   2.814  14.708
61373SOL    HW286017   2.428   2.957  14.668
61374SOL     OW86018   9.245  13.909  12.079
61374SOL    HW186019   9.275  13.862  12.001
61374SOL    HW286020   9.322  13.915  12.135
61375SOL     OW86021   4.314   3.286   3.326
61375SOL    HW186022   4.388   3.347   3.323
61375SOL    HW286023   4.296   3.267   3.234
61376SOL     OW86024   8.362  13.662   1.633
61376SOL    HW186025   8.326  13.585   1.589
61376SOL    HW286026   8.350  13.733   1.569
61377SOL     OW86027  13.917   4.727  11.316
61377SOL    HW186028  13.927   4.636  11.344
61377SOL    HW286029  13.954   4.730  11.228
61378SOL     OW86030   9.484   8.420   4.754
61378SOL    HW186031   9.492   8.423   4.849
61378SOL    HW286032   9.474   8.511   4.727
61379SOL     OW86033  12.538  13.687  12.590
61379SOL    HW186034  12.607  13.699  12.524
61379SOL    HW286035  12.477  13.759  12.573
61380SOL     OW86036   9.675   8.409  10.496
61380SOL    HW186037   9.675   8.314  10.500
61380SOL    HW286038   9.765   8.434  10.517
61381SOL     OW86039  11.943   4.178  14.858
61381SOL    HW186040  12.026   4.224  14.846
61381SOL    HW286041  11.893   4.232   0.051
61382SOL     OW86042   8.036   6.327   3.955
61382SOL    HW186043   8.087   6.408   3.960
61382SOL    HW286044   8.094   6.264   3.912
61383SOL     OW86045   0.527   0.211  11.689
61383SOL    HW186046   0.439   0.215  11.650
61383SOL    HW286047   0.511   0.205  11.783
61384SOL     OW86048   8.726   0.126  10.066
61384SOL    HW186049   8.756   0.056  10.009
61384SOL    HW286050   8.650   0.090  10.111
61385SOL     OW86051   0.904   2.388   3.491
61385SOL    HW186052   0.932   2.322   3.428
61385SOL    HW286053   0.900   2.340   3.574
61386SOL     OW86054   1.012   1.073   7.489
61386SOL    HW186055   0.998   0.981   7.466
61386SOL    HW286056   1.095   1.096   7.447
61387SOL     OW86057   7.262   1.458  10.064
61387SOL    HW186058   7.338   1.516  10.074
61387SOL    HW286059   7.281   1.408   9.985
61388SOL     OW86060   5.065   3.710   8.423
61388SOL    HW186061   5.025   3.734   8.506
61388SOL    HW286062   4.991   3.685   8.367
61389SOL     OW86063   9.074   7.242  11.363
61389SOL    HW186064   9.106   7.282  11.283
61389SOL    HW286065   9.152   7.213  11.409
61390SOL     OW86066  12.657  11.695   0.631
61390SOL    HW186067  12.627  11.662   0.547
61390SOL    HW286068  12.664  11.617   0.686
61391SOL     OW86069  10.134  10.735  10.667
61391SOL    HW186070  10.209  10.705  10.617
61391SOL    HW286071  10.171  10.781  10.742
61392SOL     OW86072   3.819   6.777  12.398
61392SOL    HW186073   3.891   6.821  12.352
61392SOL    HW286074   3.855   6.692  12.424
61393SOL     OW86075   7.406  11.008   0.262
61393SOL    HW186076   7.460  11.078   0.298
61393SOL    HW286077   7.356  11.049   0.192
61394SOL     OW86078  10.458   2.616  12.449
61394SOL    HW186079  10.477   2.561  12.373
61394SOL    HW286080  10.362   2.614  12.457
61395SOL     OW86081   9.208   5.946  12.177
61395SOL    HW186082   9.170   5.974  12.093
61395SOL    HW286083   9.299   5.925  12.156
61396SOL     OW86084   4.584   5.269   6.814
61396SOL    HW186085   4.619   5.358   6.811
61396SOL    HW286086   4.524   5.269   6.888
61397SOL     OW86087  12.188   9.860  13.690
61397SOL    HW186088  12.271   9.829  13.726
61397SOL    HW286089  12.180   9.817  13.605
61398SOL     OW86090   8.896   6.590  10.611
61398SOL    HW186091   8.864   6.500  10.620
61398SOL    HW286092   8.980   6.581  10.566
61399SOL     OW86093   9.946   8.237  12.870
61399SOL    HW186094   9.940   8.322  12.912
61399SOL    HW286095   9.977   8.178  12.938
61400SOL     OW86096   1.434   0.217  12.314
61400SOL    HW186097   1.392   0.282  12.370
61400SOL    HW286098   1.432   0.255  12.226
61401SOL     OW86099   0.378   6.263  12.649
61401SOL    HW186100   0.385   6.334  12.714
61401SOL    HW286101   0.462   6.218  12.654
61402SOL     OW86102   3.925   1.034   8.470
61402SOL    HW186103   3.982   1.103   8.436
61402SOL    HW286104   3.839   1.075   8.475
61403SOL     OW86105   5.270   4.022  14.541
61403SOL    HW186106   5.287   4.030  14.635
61403SOL    HW286107   5.175   4.027  14.534
61404SOL     OW86108  12.149  11.799  11.373
61404SOL    HW186109  12.200  11.754  11.306
61404SOL    HW286110  12.070  11.746  11.384
61405SOL     OW86111  13.234   5.372   8.558
61405SOL    HW186112  13.152   5.409   8.589
61405SOL    HW286113  13.223   5.277   8.568
61406SOL     OW86114   8.043   9.218   5.048
61406SOL    HW186115   8.075   9.228   5.137
61406SOL    HW286116   8.105   9.266   4.994
61407SOL     OW86117   6.494  13.962   9.318
61407SOL    HW186118   6.528  14.052   9.319
61407SOL    HW286119   6.516  13.930   9.230
61408SOL     OW86120  14.434  13.308   1.784
61408SOL    HW186121  14.460  13.388   1.831
61408SOL    HW286122  14.512  13.253   1.785
61409SOL     OW86123   7.687  12.217   8.690
61409SOL    HW186124   7.646  12.196   8.606
61409SOL    HW286125   7.776  12.242   8.668
61410SOL     OW86126   4.672   0.255   3.125
61410SOL    HW186127   4.687   0.263   3.219
61410SOL    HW286128   4.738   0.192   3.095
61411SOL     OW86129  11.227   9.479  11.254
61411SOL    HW186130  11.318   9.470  11.281
61411SOL    HW286131  11.201   9.566  11.286
61412SOL     OW86132  11.320   3.012   3.167
61412SOL    HW186133  11.249   3.005   3.231
61412SOL    HW286134  11.341   3.105   3.166
61413SOL     OW86135  13.648   7.052   6.926
61413SOL    HW186136  13.580   7.109   6.960
61413SOL    HW286137  13.704   7.109   6.874
61414SOL     OW86138  11.335  10.850  13.107
61414SOL    HW186139  11.310  10.828  13.018
61414SOL    HW286140  11.430  10.861  13.103
61415SOL     OW86141   3.813   7.013  11.963
61415SOL    HW186142   3.784   7.103  11.944
61415SOL    HW286143   3.816   6.970  11.877
61416SOL     OW86144   6.475   2.376  11.473
61416SOL    HW186145   6.467   2.349  11.565
61416SOL    HW286146   6.510   2.464  11.477
61417SOL     OW86147   0.347   6.592   3.152
61417SOL    HW186148   0.329   6.516   3.208
61417SOL    HW286149   0.435   6.577   3.118
61418SOL     OW86150   8.459   5.587  12.496
61418SOL    HW186151   8.458   5.492  12.486
61418SOL    HW286152   8.541   5.606  12.542
61419SOL     OW86153   9.778   9.583  11.353
61419SOL    HW186154   9.841   9.652  11.334
61419SOL    HW286155   9.805   9.510  11.297
61420SOL     OW86156   1.383  10.267   9.948
61420SOL    HW186157   1.392  10.353   9.989
61420SOL    HW286158   1.361  10.208  10.021
61421SOL     OW86159   2.714   2.452   0.717
61421SOL    HW186160   2.698   2.398   0.640
61421SOL    HW286161   2.634   2.445   0.769
61422SOL     OW86162   7.540   2.818   6.830
61422SOL    HW186163   7.590   2.777   6.900
61422SOL    HW286164   7.573   2.778   6.749
61423SOL     OW86165  12.591  10.655   7.761
61423SOL    HW186166  12.536  10.730   7.784
61423SOL    HW286167  12.574  10.590   7.830
61424SOL     OW86168   7.288   6.702   6.200
61424SOL    HW186169   7.261   6.725   6.289
61424SOL    HW286170   7.237   6.761   6.144
61425SOL     OW86171  14.354  11.161   5.619
61425SOL    HW186172  14.303  11.228   5.572
61425SOL    HW286173  14.370  11.198   5.705
61426SOL     OW86174   1.381   5.724  14.213
61426SOL    HW186175   1.396   5.630  14.200
61426SOL    HW286176   1.291   5.731  14.243
61427SOL     OW86177   0.552   9.359  13.071
61427SOL    HW186178   0.560   9.440  13.022
61427SOL    HW286179   0.507   9.383  13.152
61428SOL     OW86180   2.063  11.234   7.379
61428SOL    HW186181   2.147  11.250   7.336
61428SOL    HW286182   2.017  11.318   7.376
61429SOL     OW86183  13.099  12.421   0.631
61429SOL    HW186184  13.052  12.340   0.648
61429SOL    HW286185  13.146  12.406   0.549
61430SOL     OW86186   8.681   2.442   7.414
61430SOL    HW186187   8.594   2.415   7.442
61430SOL    HW286188   8.666   2.512   7.350
61431SOL     OW86189   8.463   8.978   5.980
61431SOL    HW186190   8.501   8.901   5.936
61431SOL    HW286191   8.462   9.046   5.913
61432SOL     OW86192   0.056  10.104   8.314
61432SOL    HW186193   0.091  10.134   8.399
61432SOL    HW286194   0.128  10.055   8.274
61433SOL     OW86195   4.158   3.093  11.049
61433SOL    HW186196   4.231   3.105  10.988
61433SOL    HW286197   4.186   3.137  11.129
61434SOL     OW86198   6.754   6.132   7.690
61434SOL    HW186199   6.803   6.086   7.621
61434SOL    HW286200   6.667   6.144   7.654
61435SOL     OW86201   9.709   8.946  13.722
61435SOL    HW186202   9.696   8.867  13.670
61435SOL    HW286203   9.717   8.916  13.812
61436SOL     OW86204   8.613   0.120   6.159
61436SOL    HW186205   8.548   0.090   6.223
61436SOL    HW286206   8.564   0.181   6.104
61437SOL     OW86207  11.116  13.738   9.717
61437SOL    HW186208  11.049  13.670   9.716
61437SOL    HW286209  11.111  13.776   9.805
61438SOL     OW86210  12.958   3.078  11.156
61438SOL    HW186211  13.050   3.097  11.135
61438SOL    HW286212  12.932   3.011  11.093
61439SOL     OW86213  11.982  10.126  14.768
61439SOL    HW186214  12.005  10.215  14.740
61439SOL    HW286215  11.943  10.086  14.690
61440SOL     OW86216  12.428   8.293   4.404
61440SOL    HW186217  12.457   8.204   4.380
61440SOL    HW286218  12.503   8.331   4.450
61441SOL     OW86219   1.156   6.544   7.752
61441SOL    HW186220   1.144   6.588   7.668
61441SOL    HW286221   1.150   6.615   7.817
61442SOL     OW86222   1.016   0.160   4.606
61442SOL    HW186223   1.076   0.175   4.680
61442SOL    HW286224   0.937   0.208   4.630
61443SOL     OW86225   0.614  13.703   5.409
61443SOL    HW186226   0.664  13.751   5.476
61443SOL    HW286227   0.525  13.699   5.444
61444SOL     OW86228   2.452  13.823   6.185
61444SOL    HW186229   2.482  13.824   6.275
61444SOL    HW286230   2.397  13.901   6.177
61445SOL     OW86231   2.392   4.749   2.933
61445SOL    HW186232   2.301   4.771   2.917
61445SOL    HW286233   2.393   4.654   2.942
61446SOL     OW86234   4.695  12.098   5.185
61446SOL    HW186235   4.666  12.098   5.094
61446SOL    HW286236   4.788  12.078   5.181
61447SOL     OW86237   5.995  13.461  12.634
61447SOL    HW186238   5.956  13.459  12.547
61447SOL    HW286239   6.082  13.425  12.624
61448SOL     OW86240   0.560  13.682  14.301
61448SOL    HW186241   0.650  13.709  14.316
61448SOL    HW286242   0.553  13.596  14.344
61449SOL     OW86243   9.285   7.833  12.820
61449SOL    HW186244   9.238   7.905  12.862
61449SOL    HW286245   9.356   7.876  12.773
61450SOL     OW86246  10.478   9.881  14.852
61450SOL    HW186247  10.477   9.924   0.069
61450SOL    HW286248  10.386   9.860  14.835
61451SOL     OW86249  14.226   1.290   8.376
61451SOL    HW186250  14.320   1.307   8.381
61451SOL    HW286251  14.214   1.209   8.424
61452SOL     OW86252   4.411   3.235   5.752
61452SOL    HW186253   4.338   3.175   5.768
61452SOL    HW286254   4.489   3.185   5.776
61453SOL     OW86255  10.977   5.563   5.442
61453SOL    HW186256  10.922   5.565   5.520
61453SOL    HW286257  10.927   5.511   5.379
61454SOL     OW86258   3.553  13.995   2.274
61454SOL    HW186259   3.517  13.996   2.186
61454SOL    HW286260   3.648  14.000   2.262
61455SOL     OW86261   8.757  11.170  13.265
61455SOL    HW186262   8.774  11.261  13.242
61455SOL    HW286263   8.731  11.129  13.182
61456SOL     OW86264  14.305  12.765   6.566
61456SOL    HW186265  14.217  12.736   6.543
61456SOL    HW286266  14.293  12.819   6.644
61457SOL     OW86267  10.823   7.613  11.080
61457SOL    HW186268  10.826   7.681  11.148
61457SOL    HW286269  10.745   7.561  11.102
61458SOL     OW86270  13.433  10.865   9.397
61458SOL    HW186271  13.433  10.874   9.301
61458SOL    HW286272  13.340  10.871   9.421
61459SOL     OW86273  13.888   9.384   2.231
61459SOL    HW186274  13.843   9.467   2.214
61459SOL    HW286275  13.968   9.409   2.276
61460SOL     OW86276   3.825   9.064  10.281
61460SOL    HW186277   3.812   9.150  10.323
61460SOL    HW286278   3.738   9.042  10.246
61461SOL     OW86279   4.281   3.483  12.000
61461SOL    HW186280   4.356   3.428  12.024
61461SOL    HW286281   4.226   3.482  12.078
61462SOL     OW86282   3.350  10.774   6.049
61462SOL    HW186283   3.310  10.860   6.054
61462SOL    HW286284   3.305  10.730   5.977
61463SOL     OW86285   2.119  14.238   1.769
61463SOL    HW186286   2.124  14.199   1.857
61463SOL    HW286287   2.043  14.196   1.729
61464SOL     OW86288   6.546   1.765   7.442
61464SOL    HW186289   6.576   1.675   7.456
61464SOL    HW286290   6.484   1.781   7.514
61465SOL     OW86291   4.934   0.897   4.700
61465SOL    HW186292   4.984   0.885   4.619
61465SOL    HW286293   4.921   0.992   4.706
61466SOL     OW86294  11.503   8.557   4.937
61466SOL    HW186295  11.533   8.600   4.857
61466SOL    HW286296  11.485   8.629   4.998
61467SOL     OW86297   3.074  13.693   6.854
61467SOL    HW186298   3.071  13.631   6.928
61467SOL    HW286299   2.986  13.732   6.852
61468SOL     OW86300   0.492  12.342   3.837
61468SOL    HW186301   0.445  12.376   3.761
61468SOL    HW286302   0.453  12.387   3.912
61469SOL     OW86303   2.941   6.898   1.650
61469SOL    HW186304   2.967   6.977   1.697
61469SOL    HW286305   2.948   6.828   1.715
61470SOL     OW86306   9.728   8.346  14.331
61470SOL    HW186307   9.765   8.258  14.341
61470SOL    HW286308   9.721   8.359  14.237
61471SOL     OW86309   9.569   4.371  13.588
61471SOL    HW186310   9.509   4.440  13.617
61471SOL    HW286311   9.645   4.418  13.553
61472SOL     OW86312   7.487   6.569  14.492
61472SOL    HW186313   7.469   6.511  14.419
61472SOL    HW286314   7.404   6.575  14.539
61473SOL     OW86315   6.446   2.110   4.546
61473SOL    HW186316   6.386   2.168   4.593
61473SOL    HW286317   6.415   2.022   4.566
61474SOL     OW86318   0.292   9.122   6.302
61474SOL    HW186319   0.356   9.192   6.318
61474SOL    HW286320   0.272   9.130   6.209
61475SOL     OW86321  13.580   4.415   4.638
61475SOL    HW186322  13.554   4.323   4.636
61475SOL    HW286323  13.603   4.432   4.729
61476SOL     OW86324   2.453   3.483   6.300
61476SOL    HW186325   2.447   3.576   6.320
61476SOL    HW286326   2.433   3.440   6.384
61477SOL     OW86327   1.735   7.847   8.398
61477SOL    HW186328   1.678   7.824   8.471
61477SOL    HW286329   1.677   7.883   8.332
61478SOL     OW86330  11.380   1.749   3.714
61478SOL    HW186331  11.302   1.804   3.717
61478SOL    HW286332  11.416   1.753   3.803
61479SOL     OW86333   6.331   7.543   0.072
61479SOL    HW186334   6.310   7.619   0.017
61479SOL    HW286335   6.272   7.475   0.043
61480SOL     OW86336   6.473   2.457  13.092
61480SOL    HW186337   6.426   2.413  13.162
61480SOL    HW286338   6.515   2.532  13.135
61481SOL     OW86339   3.869   6.055  11.023
61481SOL    HW186340   3.947   6.096  10.986
61481SOL    HW286341   3.898   5.970  11.055
61482SOL     OW86342   8.149   1.039   8.119
61482SOL    HW186343   8.122   1.025   8.028
61482SOL    HW286344   8.229   1.092   8.112
61483SOL     OW86345  10.244   4.946   8.669
61483SOL    HW186346  10.203   5.007   8.731
61483SOL    HW286347  10.285   4.880   8.724
61484SOL     OW86348   1.364   8.686  14.580
61484SOL    HW186349   1.270   8.703  14.583
61484SOL    HW286350   1.388   8.672  14.672
61485SOL     OW86351   1.865  13.944   9.549
61485SOL    HW186352   1.871  13.855   9.585
61485SOL    HW286353   1.869  14.001   9.626
61486SOL     OW86354  14.544   7.070  10.670
61486SOL    HW186355  14.571   7.073  10.578
61486SOL    HW286356  14.614   7.117  10.716
61487SOL     OW86357   2.234  14.196  14.002
61487SOL    HW186358   2.227  14.200  14.097
61487SOL    HW286359   2.327  14.204  13.983
61488SOL     OW86360  13.115   3.695  13.851
61488SOL    HW186361  13.118   3.666  13.942
61488SOL    HW286362  13.106   3.790  13.856
61489SOL     OW86363   0.284   9.378   2.245
61489SOL    HW186364   0.343   9.428   2.188
61489SOL    HW286365   0.210   9.437   2.258
61490SOL     OW86366   1.962  13.560   3.195
61490SOL    HW186367   2.049  13.520   3.198
61490SOL    HW286368   1.966  13.622   3.122
61491SOL     OW86369  13.454   4.189   2.063
61491SOL    HW186370  13.389   4.253   2.091
61491SOL    HW286371  13.476   4.215   1.974
61492SOL     OW86372   1.836   2.767  12.520
61492SOL    HW186373   1.915   2.731  12.478
61492SOL    HW286374   1.764   2.722  12.476
61493SOL     OW86375   8.995   8.119   9.392
61493SOL    HW186376   9.036   8.174   9.459
61493SOL    HW286377   8.907   8.102   9.426
61494SOL     OW86378  10.815   1.729  11.304
61494SOL    HW186379  10.756   1.773  11.365
61494SOL    HW286380  10.881   1.688  11.359
61495SOL     OW86381   4.046  13.807  11.679
61495SOL    HW186382   4.057  13.735  11.617
61495SOL    HW286383   4.045  13.886  11.625
61496SOL     OW86384   1.226  14.122  11.741
61496SOL    HW186385   1.314  14.090  11.757
61496SOL    HW286386   1.223  14.208  11.783
61497SOL     OW86387  14.520  11.188   1.462
61497SOL    HW186388  14.440  11.161   1.416
61497SOL    HW286389  14.522  11.283   1.451
61498SOL     OW86390   5.670   3.507  14.227
61498SOL    HW186391   5.727   3.559  14.284
61498SOL    HW286392   5.583   3.542  14.242
61499SOL     OW86393   3.021  10.949   2.013
61499SOL    HW186394   3.046  11.041   2.015
61499SOL    HW286395   2.974  10.936   2.095
61500SOL     OW86396   4.988   7.106  10.734
61500SOL    HW186397   4.937   7.134  10.658
61500SOL    HW286398   4.958   7.162  10.806
61501SOL     OW86399   8.722   9.836   2.528
61501SOL    HW186400   8.627   9.825   2.517
61501SOL    HW286401   8.731   9.911   2.586
61502SOL     OW86402  11.332   5.081   7.700
61502SOL    HW186403  11.273   5.086   7.775
61502SOL    HW286404  11.317   4.994   7.663
61503SOL     OW86405  10.333   9.860  11.569
61503SOL    HW186406  10.310   9.950  11.546
61503SOL    HW286407  10.252   9.811  11.557
61504SOL     OW86408  11.271  13.542   2.841
61504SOL    HW186409  11.193  13.547   2.785
61504SOL    HW286410  11.342  13.520   2.780
61505SOL     OW86411   7.091   4.544   8.467
61505SOL    HW186412   7.056   4.552   8.556
61505SOL    HW286413   7.042   4.471   8.428
61506SOL     OW86414  12.325  10.071   5.957
61506SOL    HW186415  12.269  10.139   5.996
61506SOL    HW286416  12.403  10.119   5.929
61507SOL     OW86417   3.126   3.939   4.625
61507SOL    HW186418   3.206   3.979   4.591
61507SOL    HW286419   3.088   4.007   4.681
61508SOL     OW86420  10.418  10.985   7.798
61508SOL    HW186421  10.458  10.962   7.714
61508SOL    HW286422  10.337  11.030   7.774
61509SOL     OW86423  14.198   9.249   8.313
61509SOL    HW186424  14.111   9.239   8.274
61509SOL    HW286425  14.257   9.258   8.238
61510SOL     OW86426   0.027  10.926   0.063
61510SOL    HW186427  14.829  10.924  14.862
61510SOL    HW286428   0.005  10.852   0.119
61511SOL     OW86429  10.598   7.915   3.102
61511SOL    HW186430  10.691   7.934   3.089
61511SOL    HW286431  10.585   7.830   3.059
61512SOL     OW86432   6.691   0.309   0.824
61512SOL    HW186433   6.724   0.392   0.859
61512SOL    HW286434   6.705   0.246   0.894
61513SOL     OW86435   9.398  10.569   7.745
61513SOL    HW186436   9.376  10.646   7.798
61513SOL    HW286437   9.410  10.604   7.657
61514SOL     OW86438   0.703  12.207   8.408
61514SOL    HW186439   0.771  12.159   8.457
61514SOL    HW286440   0.636  12.226   8.474
61515SOL     OW86441   6.507   3.772   7.136
61515SOL    HW186442   6.537   3.681   7.141
61515SOL    HW286443   6.496   3.788   7.042
61516SOL     OW86444   3.459   1.657  13.755
61516SOL    HW186445   3.382   1.687  13.803
61516SOL    HW286446   3.424   1.618  13.675
61517SOL     OW86447  10.370   5.873   4.664
61517SOL    HW186448  10.378   5.940   4.732
61517SOL    HW286449  10.296   5.819   4.693
61518SOL     OW86450   1.861   9.708   1.032
61518SOL    HW186451   1.922   9.754   1.090
61518SOL    HW286452   1.792   9.676   1.090
61519SOL     OW86453   1.437  13.354  12.250
61519SOL    HW186454   1.363  13.385  12.301
61519SOL    HW286455   1.460  13.428  12.193
61520SOL     OW86456   1.500   4.152   2.100
61520SOL    HW186457   1.442   4.226   2.117
61520SOL    HW286458   1.444   4.089   2.054
61521SOL     OW86459   7.093   8.074   2.722
61521SOL    HW186460   7.118   8.065   2.813
61521SOL    HW286461   7.160   8.027   2.673
61522SOL     OW86462   1.876   3.029   3.196
61522SOL    HW186463   1.803   2.972   3.218
61522SOL    HW286464   1.950   2.994   3.246
61523SOL     OW86465   6.411  10.931  12.089
61523SOL    HW186466   6.374  10.977  12.165
61523SOL    HW286467   6.505  10.948  12.094
61524SOL     OW86468   6.129   1.148  12.668
61524SOL    HW186469   6.188   1.185  12.603
61524SOL    HW286470   6.055   1.209  12.670
61525SOL     OW86471   4.246   9.843   6.607
61525SOL    HW186472   4.264   9.819   6.698
61525SOL    HW286473   4.260   9.763   6.557
61526SOL     OW86474  14.512  14.137   4.832
61526SOL    HW186475  14.519  14.045   4.804
61526SOL    HW286476  14.502  14.185   4.750
61527SOL     OW86477  13.316  14.036   7.631
61527SOL    HW186478  13.357  13.982   7.564
61527SOL    HW286479  13.312  14.123   7.592
61528SOL     OW86480   1.262   2.173   7.895
61528SOL    HW186481   1.270   2.236   7.967
61528SOL    HW286482   1.244   2.228   7.818
61529SOL     OW86483  14.503   1.971  14.024
61529SOL    HW186484  14.493   1.895  14.082
61529SOL    HW286485  14.551   2.035  14.077
61530SOL     OW86486  12.379   2.673   6.982
61530SOL    HW186487  12.326   2.670   6.903
61530SOL    HW286488  12.368   2.586   7.021
61531SOL     OW86489  14.388  10.756  10.952
61531SOL    HW186490  14.469  10.749  11.002
61531SOL    HW286491  14.323  10.786  11.016
61532SOL     OW86492  10.655  13.718  14.550
61532SOL    HW186493  10.662  13.706  14.455
61532SOL    HW286494  10.715  13.790  14.570
61533SOL     OW86495   9.079   5.940   5.287
61533SOL    HW186496   9.110   5.856   5.254
61533SOL    HW286497   9.034   5.918   5.369
61534SOL     OW86498   1.494   8.511   2.857
61534SOL    HW186499   1.552   8.436   2.863
61534SOL    HW286500   1.522   8.569   2.928
61535SOL     OW86501   4.811  13.927  10.332
61535SOL    HW186502   4.867  13.859  10.369
61535SOL    HW286503   4.866  14.005  10.330
61536SOL     OW86504   9.938   5.521  11.071
61536SOL    HW186505   9.902   5.451  11.126
61536SOL    HW286506  10.000   5.475  11.013
61537SOL     OW86507   6.313  14.171   1.278
61537SOL    HW186508   6.372  14.234   1.320
61537SOL    HW286509   6.371  14.116   1.225
61538SOL     OW86510  10.155   4.304   4.994
61538SOL    HW186511  10.156   4.237   5.063
61538SOL    HW286512  10.171   4.255   4.913
61539SOL     OW86513   6.118   5.206   5.842
61539SOL    HW186514   6.145   5.115   5.856
61539SOL    HW286515   6.075   5.205   5.756
61540SOL     OW86516  13.812  12.399  11.582
61540SOL    HW186517  13.891  12.412  11.530
61540SOL    HW286518  13.767  12.483  11.579
61541SOL     OW86519  14.062   7.673  13.668
61541SOL    HW186520  14.011   7.607  13.622
61541SOL    HW286521  14.145   7.677  13.620
61542SOL     OW86522   6.711   1.773  11.595
61542SOL    HW186523   6.639   1.836  11.594
61542SOL    HW286524   6.784   1.820  11.635
61543SOL     OW86525  12.576   3.567   5.228
61543SOL    HW186526  12.498   3.600   5.272
61543SOL    HW286527  12.648   3.617   5.266
61544SOL     OW86528   3.758  10.782   3.414
61544SOL    HW186529   3.820  10.839   3.460
61544SOL    HW286530   3.677  10.833   3.409
61545SOL     OW86531  13.179  13.251   3.861
61545SOL    HW186532  13.140  13.333   3.832
61545SOL    HW286533  13.116  13.216   3.924
61546SOL     OW86534  11.055  11.526   1.764
61546SOL    HW186535  11.018  11.609   1.733
61546SOL    HW286536  10.997  11.499   1.835
61547SOL     OW86537   0.356   3.083   9.768
61547SOL    HW186538   0.348   3.136   9.847
61547SOL    HW286539   0.306   3.004   9.787
61548SOL     OW86540   3.562   5.552  11.127
61548SOL    HW186541   3.569   5.463  11.093
61548SOL    HW286542   3.583   5.544  11.220
61549SOL     OW86543   3.204  10.361   8.849
61549SOL    HW186544   3.208  10.286   8.789
61549SOL    HW286545   3.268  10.423   8.814
61550SOL     OW86546  13.637   1.811   3.991
61550SOL    HW186547  13.613   1.719   3.980
61550SOL    HW286548  13.694   1.830   3.916
61551SOL     OW86549   2.710   0.960  11.457
61551SOL    HW186550   2.638   1.004  11.412
61551SOL    HW286551   2.680   0.954  11.548
61552SOL     OW86552   3.207   6.342   7.186
61552SOL    HW186553   3.291   6.330   7.230
61552SOL    HW286554   3.180   6.431   7.209
61553SOL     OW86555  11.259   8.205  10.504
61553SOL    HW186556  11.295   8.143  10.568
61553SOL    HW286557  11.180   8.163  10.471
61554SOL     OW86558  13.468  14.783   6.998
61554SOL    HW186559  13.414  14.805   7.074
61554SOL    HW286560  13.557  14.802   7.026
61555SOL     OW86561   5.047   2.159  10.259
61555SOL    HW186562   5.092   2.242  10.275
61555SOL    HW286563   5.050   2.147  10.164
61556SOL     OW86564   6.704  10.999   7.073
61556SOL    HW186565   6.786  10.952   7.086
61556SOL    HW286566   6.707  11.028   6.982
61557SOL     OW86567   8.759   8.743   2.237
61557SOL    HW186568   8.696   8.693   2.289
61557SOL    HW286569   8.717   8.754   2.152
61558SOL     OW86570   0.232  11.579   9.922
61558SOL    HW186571   0.182  11.502   9.950
61558SOL    HW286572   0.199  11.600   9.835
61559SOL     OW86573   3.424   4.273   3.526
61559SOL    HW186574   3.491   4.312   3.582
61559SOL    HW286575   3.453   4.182   3.516
61560SOL     OW86576   7.864   6.046   7.037
61560SOL    HW186577   7.771   6.063   7.050
61560SOL    HW286578   7.870   5.951   7.028
61561SOL     OW86579   4.437  13.107   1.095
61561SOL    HW186580   4.447  13.180   1.034
61561SOL    HW286581   4.438  13.148   1.182
61562SOL     OW86582   7.531  14.674   2.216
61562SOL    HW186583   7.535  14.688   2.311
61562SOL    HW286584   7.569  14.587   2.204
61563SOL     OW86585  10.404   9.535   3.569
61563SOL    HW186586  10.404   9.604   3.636
61563SOL    HW286587  10.479   9.556   3.513
61564SOL     OW86588   0.181  10.918  14.402
61564SOL    HW186589   0.175  10.822  14.400
61564SOL    HW286590   0.272  10.937  14.381
61565SOL     OW86591  12.795   9.019   7.776
61565SOL    HW186592  12.870   9.077   7.793
61565SOL    HW286593  12.828   8.955   7.714
61566SOL     OW86594   0.389   1.677   7.732
61566SOL    HW186595   0.377   1.672   7.827
61566SOL    HW286596   0.370   1.588   7.701
61567SOL     OW86597   5.181   8.041   3.159
61567SOL    HW186598   5.175   8.112   3.223
61567SOL    HW286599   5.151   7.964   3.207
61568SOL     OW86600  14.377   2.246  13.237
61568SOL    HW186601  14.387   2.340  13.222
61568SOL    HW286602  14.442   2.226  13.306
61569SOL     OW86603   7.713  10.867  14.302
61569SOL    HW186604   7.806  10.878  14.280
61569SOL    HW286605   7.710  10.786  14.352
61570SOL     OW86606   1.718   7.576  12.619
61570SOL    HW186607   1.743   7.564  12.711
61570SOL    HW286608   1.800   7.567  12.571
61571SOL     OW86609   1.476  12.681   1.486
61571SOL    HW186610   1.569  12.700   1.499
61571SOL    HW286611   1.442  12.664   1.574
61572SOL     OW86612  11.551   4.820   1.126
61572SOL    HW186613  11.580   4.771   1.203
61572SOL    HW286614  11.619   4.886   1.113
61573SOL     OW86615  10.086   3.070   1.411
61573SOL    HW186616  10.134   3.099   1.334
61573SOL    HW286617  10.139   3.099   1.485
61574SOL     OW86618   7.038   5.670   9.196
61574SOL    HW186619   6.953   5.645   9.159
61574SOL    HW286620   7.065   5.594   9.248
61575SOL     OW86621   4.144  10.901   8.913
61575SOL    HW186622   4.136  10.806   8.902
61575SOL    HW286623   4.093  10.920   8.992
61576SOL     OW86624   8.591  12.065   2.134
61576SOL    HW186625   8.609  12.074   2.228
61576SOL    HW286626   8.677  12.061   2.093
61577SOL     OW86627  13.380   0.024  10.260
61577SOL    HW186628  13.291   0.005  10.289
61577SOL    HW286629  13.406   0.101  10.310
61578SOL     OW86630  10.436   0.615   0.914
61578SOL    HW186631  10.357   0.585   0.959
61578SOL    HW286632  10.508   0.569   0.957
61579SOL     OW86633   5.566  14.042   1.618
61579SOL    HW186634   5.570  14.100   1.693
61579SOL    HW286635   5.496  13.980   1.638
61580SOL     OW86636  14.851  14.167   2.683
61580SOL    HW186637  14.772  14.118   2.707
61580SOL    HW286638   0.039  14.162   2.760
61581SOL     OW86639   2.578  14.273  11.720
61581SOL    HW186640   2.484  14.273  11.738
61581SOL    HW286641   2.615  14.336  11.781
61582SOL     OW86642   2.515  11.254  10.143
61582SOL    HW186643   2.532  11.194  10.216
61582SOL    HW286644   2.510  11.340  10.184
61583SOL     OW86645  10.498  14.008  11.054
61583SOL    HW186646  10.534  14.058  11.127
61583SOL    HW286647  10.563  13.940  11.037
61584SOL     OW86648  10.990  10.995   1.669
61584SOL    HW186649  10.936  10.962   1.741
61584SOL    HW286650  10.975  11.090   1.669
61585SOL     OW86651   7.763   4.051   7.116
61585SOL    HW186652   7.774   4.135   7.070
61585SOL    HW286653   7.669   4.045   7.132
61586SOL     OW86654   6.922  10.534   1.403
61586SOL    HW186655   6.837  10.572   1.424
61586SOL    HW286656   6.908  10.489   1.319
61587SOL     OW86657  11.594   6.079   3.006
61587SOL    HW186658  11.613   6.172   2.998
61587SOL    HW286659  11.590   6.048   2.915
61588SOL     OW86660  12.793   6.510   4.795
61588SOL    HW186661  12.753   6.426   4.771
61588SOL    HW286662  12.736   6.545   4.864
61589SOL     OW86663   4.907   9.496  10.531
61589SOL    HW186664   4.977   9.522  10.591
61589SOL    HW286665   4.953   9.450  10.460
61590SOL     OW86666   7.852   2.302  14.576
61590SOL    HW186667   7.881   2.222  14.533
61590SOL    HW286668   7.758   2.306  14.557
61591SOL     OW86669  10.230  14.636   0.450
61591SOL    HW186670  10.170  14.698   0.492
61591SOL    HW286671  10.283  14.690   0.392
61592SOL     OW86672  10.297   8.536   7.209
61592SOL    HW186673  10.216   8.554   7.162
61592SOL    HW286674  10.327   8.621   7.240
61593SOL     OW86675   1.747   1.039   8.226
61593SOL    HW186676   1.652   1.031   8.231
61593SOL    HW286677   1.763   1.132   8.212
61594SOL     OW86678   9.472   8.615   2.215
61594SOL    HW186679   9.546   8.603   2.155
61594SOL    HW286680   9.395   8.615   2.159
61595SOL     OW86681   1.132   2.384   7.741
61595SOL    HW186682   1.190   2.458   7.723
61595SOL    HW286683   1.054   2.423   7.779
61596SOL     OW86684   8.300   9.276  12.761
61596SOL    HW186685   8.296   9.200  12.704
61596SOL    HW286686   8.229   9.263  12.824
61597SOL     OW86687   4.411  11.784   7.402
61597SOL    HW186688   4.370  11.835   7.471
61597SOL    HW286689   4.415  11.695   7.436
61598SOL     OW86690   6.246   6.143  12.485
61598SOL    HW186691   6.195   6.093  12.420
61598SOL    HW286692   6.266   6.226  12.441
61599SOL     OW86693   4.868  10.777   8.270
61599SOL    HW186694   4.935  10.739   8.328
61599SOL    HW286695   4.918  10.820   8.201
61600SOL     OW86696   5.801   3.953  10.765
61600SOL    HW186697   5.881   3.943  10.817
61600SOL    HW286698   5.808   3.886  10.697
61601SOL     OW86699   3.098  13.804   9.896
61601SOL    HW186700   3.085  13.772   9.807
61601SOL    HW286701   3.011  13.802   9.936
61602SOL     OW86702   5.594   6.681   6.764
61602SOL    HW186703   5.517   6.736   6.746
61602SOL    HW286704   5.557   6.599   6.797
61603SOL     OW86705  11.684  11.996   3.898
61603SOL    HW186706  11.606  11.951   3.864
61603SOL    HW286707  11.653  12.084   3.920
61604SOL     OW86708   7.387   4.355   1.874
61604SOL    HW186709   7.452   4.297   1.914
61604SOL    HW286710   7.303   4.320   1.903
61605SOL     OW86711   9.495  13.724  13.695
61605SOL    HW186712   9.515  13.805  13.649
61605SOL    HW286713   9.567  13.665  13.673
61606SOL     OW86714   9.475   3.385  12.416
61606SOL    HW186715   9.414   3.344  12.354
61606SOL    HW286716   9.497   3.314  12.477
61607SOL     OW86717  13.565  12.969  12.302
61607SOL    HW186718  13.473  12.972  12.328
61607SOL    HW286719  13.612  12.947  12.382
61608SOL     OW86720   7.397   5.865   8.491
61608SOL    HW186721   7.455   5.810   8.439
61608SOL    HW286722   7.356   5.924   8.428
61609SOL     OW86723  11.992  10.916  14.197
61609SOL    HW186724  12.064  10.943  14.254
61609SOL    HW286725  11.978  10.824  14.219
61610SOL     OW86726  12.090   8.847  10.341
61610SOL    HW186727  12.069   8.891  10.259
61610SOL    HW286728  12.032   8.887  10.405
61611SOL     OW86729   4.233   1.598  13.953
61611SOL    HW186730   4.320   1.568  13.981
61611SOL    HW286731   4.196   1.639  14.031
61612SOL     OW86732   6.876  12.378  12.189
61612SOL    HW186733   6.894  12.355  12.098
61612SOL    HW286734   6.942  12.329  12.239
61613SOL     OW86735   3.711  13.218  10.453
61613SOL    HW186736   3.747  13.298  10.414
61613SOL    HW286737   3.664  13.175  10.382
61614SOL     OW86738  12.059   4.034  14.487
61614SOL    HW186739  12.119   4.003  14.554
61614SOL    HW286740  11.972   4.019  14.523
61615SOL     OW86741   1.134   8.317   3.480
61615SOL    HW186742   1.093   8.267   3.550
61615SOL    HW286743   1.117   8.409   3.503
61616SOL     OW86744   7.045   4.459   0.649
61616SOL    HW186745   7.094   4.443   0.569
61616SOL    HW286746   7.084   4.539   0.685
61617SOL     OW86747   0.040  12.515  11.634
61617SOL    HW186748   0.123  12.552  11.604
61617SOL    HW286749   0.046  12.515  11.729
61618SOL     OW86750   5.826   6.601  10.561
61618SOL    HW186751   5.820   6.528  10.500
61618SOL    HW286752   5.739   6.642  10.559
61619SOL     OW86753  13.977   5.339   3.587
61619SOL    HW186754  13.993   5.247   3.569
61619SOL    HW286755  13.983   5.347   3.682
61620SOL     OW86756   9.731   5.144   0.640
61620SOL    HW186757   9.685   5.097   0.571
61620SOL    HW286758   9.811   5.176   0.598
61621SOL     OW86759   9.546   9.146   1.879
61621SOL    HW186760   9.504   9.226   1.850
61621SOL    HW286761   9.514   9.132   1.969
61622SOL     OW86762  11.489   7.559   4.822
61622SOL    HW186763  11.462   7.651   4.827
61622SOL    HW286764  11.430   7.514   4.883
61623SOL     OW86765   3.503   1.228   1.961
61623SOL    HW186766   3.469   1.234   2.050
61623SOL    HW286767   3.598   1.240   1.971
61624SOL     OW86768   6.384  10.968  12.805
61624SOL    HW186769   6.317  11.015  12.854
61624SOL    HW286770   6.372  10.876  12.829
61625SOL     OW86771  11.972   2.915   9.934
61625SOL    HW186772  11.920   2.982   9.979
61625SOL    HW286773  12.063   2.943   9.945
61626SOL     OW86774   4.776   4.504   7.008
61626SOL    HW186775   4.777   4.457   7.091
61626SOL    HW286776   4.845   4.571   7.017
61627SOL     OW86777  14.807   8.885  14.534
61627SOL    HW186778  14.722   8.852  14.503
61627SOL    HW286779  14.785   8.964  14.583
61628SOL     OW86780   5.400  12.989   4.028
61628SOL    HW186781   5.434  12.900   4.029
61628SOL    HW286782   5.308  12.980   4.004
61629SOL     OW86783   1.912  14.625   6.448
61629SOL    HW186784   1.946  14.545   6.487
61629SOL    HW286785   1.823  14.632   6.483
61630SOL     OW86786  13.549  10.961   6.252
61630SOL    HW186787  13.527  11.035   6.309
61630SOL    HW286788  13.637  10.981   6.220
61631SOL     OW86789   4.019  13.951   8.497
61631SOL    HW186790   4.069  14.031   8.482
61631SOL    HW286791   4.031  13.900   8.417
61632SOL     OW86792   4.558   9.358   7.980
61632SOL    HW186793   4.513   9.294   8.035
61632SOL    HW286794   4.592   9.306   7.906
61633SOL     OW86795   8.261   0.344  10.688
61633SOL    HW186796   8.224   0.339  10.776
61633SOL    HW286797   8.209   0.282  10.636
61634SOL     OW86798  11.944  13.744  13.502
61634SOL    HW186799  11.860  13.791  13.501
61634SOL    HW286800  11.951  13.705  13.415
61635SOL     OW86801   7.881   1.484  12.564
61635SOL    HW186802   7.924   1.466  12.480
61635SOL    HW286803   7.814   1.416  12.572
61636SOL     OW86804  13.919   1.120   4.106
61636SOL    HW186805  13.884   1.173   4.177
61636SOL    HW286806  13.901   1.030   4.132
61637SOL     OW86807   5.988   1.024   9.271
61637SOL    HW186808   5.923   1.070   9.217
61637SOL    HW286809   5.939   0.957   9.317
61638SOL     OW86810   0.534   9.487   4.775
61638SOL    HW186811   0.461   9.527   4.821
61638SOL    HW286812   0.579   9.561   4.733
61639SOL     OW86813   8.776   0.834   1.510
61639SOL    HW186814   8.686   0.801   1.518
61639SOL    HW286815   8.831   0.759   1.533
61640SOL     OW86816   7.414   1.213  14.392
61640SOL    HW186817   7.475   1.154  14.436
61640SOL    HW286818   7.371   1.159  14.326
61641SOL     OW86819  13.887  14.615   1.321
61641SOL    HW186820  13.885  14.603   1.415
61641SOL    HW286821  13.964  14.566   1.292
61642SOL     OW86822  14.723  13.404  11.331
61642SOL    HW186823  14.643  13.404  11.278
61642SOL    HW286824  14.790  13.369  11.272
61643SOL     OW86825  12.913   0.235  10.975
61643SOL    HW186826  12.825   0.207  10.997
61643SOL    HW286827  12.914   0.329  10.994
61644SOL     OW86828   5.496   7.362  14.403
61644SOL    HW186829   5.535   7.396  14.484
61644SOL    HW286830   5.563   7.376  14.336
61645SOL     OW86831   7.653   5.227   1.807
61645SOL    HW186832   7.632   5.149   1.858
61645SOL    HW286833   7.569   5.263   1.781
61646SOL     OW86834  11.055   6.532   4.463
61646SOL    HW186835  11.123   6.579   4.413
61646SOL    HW286836  11.082   6.441   4.460
61647SOL     OW86837   7.191   9.304  13.851
61647SOL    HW186838   7.209   9.286  13.943
61647SOL    HW286839   7.127   9.237  13.825
61648SOL     OW86840   5.354   1.181   1.288
61648SOL    HW186841   5.284   1.244   1.299
61648SOL    HW286842   5.419   1.226   1.234
61649SOL     OW86843   6.844  14.578   2.519
61649SOL    HW186844   6.761  14.618   2.491
61649SOL    HW286845   6.897  14.577   2.439
61650SOL     OW86846  14.387   2.822   9.688
61650SOL    HW186847  14.379   2.764   9.612
61650SOL    HW286848  14.477   2.809   9.718
61651SOL     OW86849   3.326   2.628  12.047
61651SOL    HW186850   3.376   2.708  12.060
61651SOL    HW286851   3.245   2.657  12.006
61652SOL     OW86852   0.600   3.046   3.183
61652SOL    HW186853   0.647   2.969   3.215
61652SOL    HW286854   0.525   3.054   3.241
61653SOL     OW86855   1.275   4.229   0.438
61653SOL    HW186856   1.215   4.303   0.432
61653SOL    HW286857   1.219   4.154   0.459
61654SOL     OW86858   2.404   5.747   4.647
61654SOL    HW186859   2.366   5.776   4.730
61654SOL    HW286860   2.483   5.699   4.673
61655SOL     OW86861  14.585  14.250   7.393
61655SOL    HW186862  14.523  14.182   7.367
61655SOL    HW286863  14.568  14.322   7.332
61656SOL     OW86864  13.279  12.403   4.990
61656SOL    HW186865  13.202  12.385   4.936
61656SOL    HW286866  13.263  12.355   5.071
61657SOL     OW86867   0.206   3.973  10.561
61657SOL    HW186868   0.210   3.896  10.617
61657SOL    HW286869   0.266   4.036  10.602
61658SOL     OW86870   9.377  13.786   9.966
61658SOL    HW186871   9.457  13.733   9.970
61658SOL    HW286872   9.328  13.762  10.044
61659SOL     OW86873   9.511   8.800  11.266
61659SOL    HW186874   9.574   8.732  11.244
61659SOL    HW286875   9.438   8.786  11.205
61660SOL     OW86876  11.509   8.402  14.129
61660SOL    HW186877  11.444   8.465  14.098
61660SOL    HW286878  11.460   8.340  14.182
61661SOL     OW86879   8.839   4.522   3.281
61661SOL    HW186880   8.855   4.429   3.297
61661SOL    HW286881   8.858   4.534   3.188
61662SOL     OW86882   4.035   9.149  12.249
61662SOL    HW186883   3.969   9.081  12.233
61662SOL    HW286884   4.020   9.213  12.179
61663SOL     OW86885  11.870   2.760  11.549
61663SOL    HW186886  11.823   2.799  11.475
61663SOL    HW286887  11.852   2.819  11.622
61664SOL     OW86888   0.143   3.460  11.141
61664SOL    HW186889   0.055   3.491  11.120
61664SOL    HW286890   0.155   3.382  11.087
61665SOL     OW86891  14.609   4.471   4.162
61665SOL    HW186892  14.636   4.385   4.128
61665SOL    HW286893  14.527   4.490   4.115
61666SOL     OW86894   3.239   5.442   0.106
61666SOL    HW186895   3.276   5.521   0.067
61666SOL    HW286896   3.167   5.474   0.160
61667SOL     OW86897  12.652  14.814  10.328
61667SOL    HW186898  12.568  14.855  10.305
61667SOL    HW286899  12.682  14.863  10.405
61668SOL     OW86900   4.685  14.343   3.486
61668SOL    HW186901   4.600  14.337   3.530
61668SOL    HW286902   4.711  14.435   3.497
61669SOL     OW86903  14.425   5.258  13.552
61669SOL    HW186904  14.340   5.246  13.511
61669SOL    HW286905  14.486   5.211  13.496
61670SOL     OW86906  13.443   0.550  14.224
61670SOL    HW186907  13.380   0.517  14.160
61670SOL    HW286908  13.502   0.606  14.173
61671SOL     OW86909   4.397  13.542  10.979
61671SOL    HW186910   4.358  13.470  10.928
61671SOL    HW286911   4.328  13.608  10.983
61672SOL     OW86912  10.838   2.520   1.736
61672SOL    HW186913  10.805   2.542   1.649
61672SOL    HW286914  10.859   2.426   1.731
61673SOL     OW86915  13.517   8.378  10.041
61673SOL    HW186916  13.544   8.354  10.129
61673SOL    HW286917  13.450   8.313  10.018
61674SOL     OW86918  12.277   9.834   2.422
61674SOL    HW186919  12.295   9.885   2.501
61674SOL    HW286920  12.282   9.743   2.450
61675SOL     OW86921  12.538   9.779   4.871
61675SOL    HW186922  12.472   9.845   4.889
61675SOL    HW286923  12.620   9.819   4.898
61676SOL     OW86924   8.727  10.841  14.716
61676SOL    HW186925   8.691  10.787  14.646
61676SOL    HW286926   8.736  10.928  14.677
61677SOL     OW86927  10.851   8.811   5.697
61677SOL    HW186928  10.934   8.857   5.698
61677SOL    HW286929  10.865   8.736   5.754
61678SOL     OW86930   9.767   7.974  10.139
61678SOL    HW186931   9.707   7.905  10.111
61678SOL    HW286932   9.733   8.003  10.224
61679SOL     OW86933  12.449  11.495   7.629
61679SOL    HW186934  12.404  11.516   7.548
61679SOL    HW286935  12.383  11.504   7.697
61680SOL     OW86936   6.990   6.055  13.757
61680SOL    HW186937   6.921   6.121  13.761
61680SOL    HW286938   6.964   5.990  13.822
61681SOL     OW86939  13.142   4.784   6.463
61681SOL    HW186940  13.188   4.852   6.412
61681SOL    HW286941  13.118   4.828   6.545
61682SOL     OW86942   3.891   5.640   0.834
61682SOL    HW186943   3.844   5.634   0.917
61682SOL    HW286944   3.825   5.668   0.770
61683SOL     OW86945   0.072  12.357   5.044
61683SOL    HW186946   0.157  12.387   5.013
61683SOL    HW286947   0.067  12.266   5.017
61684SOL     OW86948  14.419   3.878   9.893
61684SOL    HW186949  14.446   3.806   9.836
61684SOL    HW286950  14.421   3.841   9.981
61685SOL     OW86951   2.041  10.201   1.226
61685SOL    HW186952   1.977  10.262   1.189
61685SOL    HW286953   2.125  10.248   1.222
61686SOL     OW86954   0.687   6.711   3.304
61686SOL    HW186955   0.642   6.755   3.376
61686SOL    HW286956   0.776   6.695   3.337
61687SOL     OW86957   4.585   9.655  12.834
61687SOL    HW186958   4.588   9.633  12.927
61687SOL    HW286959   4.492   9.657  12.812
61688SOL     OW86960   6.677   5.355  13.064
61688SOL    HW186961   6.696   5.356  12.970
61688SOL    HW286962   6.661   5.262  13.084
61689SOL     OW86963   7.238   3.384   2.045
61689SOL    HW186964   7.168   3.337   2.000
61689SOL    HW286965   7.267   3.324   2.114
61690SOL     OW86966   2.819   8.454  13.938
61690SOL    HW186967   2.748   8.397  13.907
61690SOL    HW286968   2.776   8.514  13.999
61691SOL     OW86969   5.570   0.819  13.498
61691SOL    HW186970   5.584   0.882  13.427
61691SOL    HW286971   5.496   0.855  13.548
61692SOL     OW86972   2.275   8.880   0.870
61692SOL    HW186973   2.365   8.857   0.894
61692SOL    HW286974   2.221   8.829   0.930
61693SOL     OW86975  10.674   7.737  12.829
61693SOL    HW186976  10.685   7.785  12.911
61693SOL    HW286977  10.750   7.679  12.826
61694SOL     OW86978   6.331   5.301  11.531
61694SOL    HW186979   6.386   5.378  11.546
61694SOL    HW286980   6.301   5.310  11.441
61695SOL     OW86981   2.776  10.427   8.094
61695SOL    HW186982   2.790  10.332   8.094
61695SOL    HW286983   2.856  10.462   8.054
61696SOL     OW86984  14.033   7.933   3.765
61696SOL    HW186985  13.961   7.960   3.707
61696SOL    HW286986  13.991   7.924   3.851
61697SOL     OW86987   6.533   3.243   4.180
61697SOL    HW186988   6.568   3.253   4.092
61697SOL    HW286989   6.468   3.173   4.173
61698SOL     OW86990   0.839   8.335   7.056
61698SOL    HW186991   0.915   8.354   7.000
61698SOL    HW286992   0.860   8.251   7.097
61699SOL     OW86993   0.076   6.292   6.946
61699SOL    HW186994   0.058   6.321   6.857
61699SOL    HW286995   0.097   6.199   6.937
61700SOL     OW86996   2.330   4.130   1.910
61700SOL    HW186997   2.372   4.161   1.829
61700SOL    HW286998   2.238   4.121   1.887
61701SOL     OW86999   2.576  12.857   9.642
61701SOL    HW187000   2.630  12.788   9.604
61701SOL    HW287001   2.627  12.937   9.628
61702SOL     OW87002   3.432  12.877   5.565
61702SOL    HW187003   3.522  12.875   5.532
61702SOL    HW287004   3.439  12.919   5.650
61703SOL     OW87005   2.283   9.837   3.283
61703SOL    HW187006   2.312   9.886   3.360
61703SOL    HW287007   2.217   9.894   3.243
61704SOL     OW87008   1.862   6.480   2.323
61704SOL    HW187009   1.770   6.473   2.297
61704SOL    HW287010   1.889   6.390   2.339
61705SOL     OW87011  10.753   3.395   3.609
61705SOL    HW187012  10.757   3.351   3.694
61705SOL    HW287013  10.734   3.486   3.630
61706SOL     OW87014   4.788   7.778  13.699
61706SOL    HW187015   4.836   7.710  13.745
61706SOL    HW287016   4.734   7.731  13.635
61707SOL     OW87017   8.943   8.578   5.676
61707SOL    HW187018   8.881   8.531   5.732
61707SOL    HW287019   8.895   8.593   5.594
61708SOL     OW87020  12.397   7.868   0.634
61708SOL    HW187021  12.313   7.831   0.604
61708SOL    HW287022  12.373   7.920   0.711
61709SOL     OW87023   2.333   9.531   4.258
61709SOL    HW187024   2.289   9.446   4.255
61709SOL    HW287025   2.425   9.509   4.274
61710SOL     OW87026  10.420   0.455   1.881
61710SOL    HW187027  10.345   0.514   1.881
61710SOL    HW287028  10.444   0.447   1.973
61711SOL     OW87029   6.146   9.753   3.140
61711SOL    HW187030   6.218   9.757   3.203
61711SOL    HW287031   6.081   9.815   3.172
61712SOL     OW87032  12.479  11.030   0.494
61712SOL    HW187033  12.422  11.079   0.554
61712SOL    HW287034  12.497  11.091   0.423
61713SOL     OW87035   4.166   1.731   9.074
61713SOL    HW187036   4.109   1.744   9.150
61713SOL    HW287037   4.113   1.760   8.999
61714SOL     OW87038   6.278   9.574   6.596
61714SOL    HW187039   6.334   9.501   6.569
61714SOL    HW287040   6.228   9.541   6.670
61715SOL     OW87041  14.532   0.987   6.487
61715SOL    HW187042  14.563   1.002   6.398
61715SOL    HW287043  14.438   1.004   6.483
61716SOL     OW87044   1.374   8.853   6.585
61716SOL    HW187045   1.411   8.850   6.496
61716SOL    HW287046   1.344   8.943   6.595
61717SOL     OW87047   2.977   8.275  13.583
61717SOL    HW187048   2.928   8.332  13.642
61717SOL    HW287049   2.910   8.232  13.529
61718SOL     OW87050   4.123   6.239   6.321
61718SOL    HW187051   4.138   6.155   6.278
61718SOL    HW287052   4.093   6.216   6.409
61719SOL     OW87053   8.982   6.739   9.293
61719SOL    HW187054   8.975   6.660   9.348
61719SOL    HW287055   8.952   6.810   9.349
61720SOL     OW87056   7.069  13.602   1.201
61720SOL    HW187057   7.117  13.684   1.210
61720SOL    HW287058   7.128  13.535   1.235
61721SOL     OW87059   5.788   4.452  14.583
61721SOL    HW187060   5.818   4.386  14.520
61721SOL    HW287061   5.792   4.407  14.668
61722SOL     OW87062   3.414   3.383   1.354
61722SOL    HW187063   3.477   3.416   1.419
61722SOL    HW287064   3.469   3.353   1.281
61723SOL     OW87065   0.003  10.755   5.169
61723SOL    HW187066   0.068  10.753   5.098
61723SOL    HW287067   0.021  10.676   5.220
61724SOL     OW87068  10.950  14.093  11.820
61724SOL    HW187069  10.917  14.037  11.891
61724SOL    HW287070  10.871  14.119  11.772
61725SOL     OW87071   1.062   4.115   4.213
61725SOL    HW187072   0.994   4.073   4.266
61725SOL    HW287073   1.135   4.127   4.274
61726SOL     OW87074   5.194   2.736  10.670
61726SOL    HW187075   5.236   2.815  10.636
61726SOL    HW287076   5.132   2.768  10.735
61727SOL     OW87077  12.313   5.033   2.680
61727SOL    HW187078  12.346   5.120   2.658
61727SOL    HW287079  12.391   4.982   2.700
61728SOL     OW87080   4.620   6.937   1.263
61728SOL    HW187081   4.524   6.930   1.262
61728SOL    HW287082   4.637   7.017   1.313
61729SOL     OW87083   8.089   5.967   8.925
61729SOL    HW187084   8.049   5.991   8.841
61729SOL    HW287085   8.109   6.050   8.967
61730SOL     OW87086   2.690  10.201  10.653
61730SOL    HW187087   2.650  10.275  10.699
61730SOL    HW287088   2.751  10.241  10.592
61731SOL     OW87089  12.523   8.740   2.763
61731SOL    HW187090  12.475   8.747   2.680
61731SOL    HW287091  12.550   8.829   2.783
61732SOL     OW87092   5.743   1.498   0.224
61732SOL    HW187093   5.769   1.575   0.175
61732SOL    HW287094   5.818   1.478   0.281
61733SOL     OW87095   2.485  11.580  13.985
61733SOL    HW187096   2.452  11.495  13.955
61733SOL    HW287097   2.572  11.587  13.946
61734SOL     OW87098   4.659   7.315   7.733
61734SOL    HW187099   4.647   7.224   7.758
61734SOL    HW287100   4.596   7.329   7.662
61735SOL     OW87101  12.662   2.858   4.191
61735SOL    HW187102  12.721   2.871   4.117
61735SOL    HW287103  12.592   2.802   4.156
61736SOL     OW87104  12.640  10.362   6.701
61736SOL    HW187105  12.666  10.274   6.727
61736SOL    HW287106  12.722  10.412   6.703
61737SOL     OW87107   6.010   9.790   4.774
61737SOL    HW187108   5.954   9.858   4.810
61737SOL    HW287109   6.095   9.804   4.816
61738SOL     OW87110   3.006  12.246   6.654
61738SOL    HW187111   2.946  12.227   6.727
61738SOL    HW287112   3.084  12.196   6.673
61739SOL     OW87113   2.557  12.453  11.697
61739SOL    HW187114   2.549  12.415  11.785
61739SOL    HW287115   2.651  12.466  11.685
61740SOL     OW87116  10.636   9.430  11.441
61740SOL    HW187117  10.574   9.361  11.464
61740SOL    HW287118  10.603   9.508  11.486
61741SOL     OW87119   0.694   1.661   4.400
61741SOL    HW187120   0.636   1.587   4.414
61741SOL    HW287121   0.702   1.668   4.305
61742SOL     OW87122  12.039   5.948   5.586
61742SOL    HW187123  12.117   5.996   5.613
61742SOL    HW287124  12.031   5.964   5.492
61743SOL     OW87125   1.838   4.705  12.814
61743SOL    HW187126   1.835   4.660  12.898
61743SOL    HW287127   1.748   4.704  12.783
61744SOL     OW87128  12.559  13.199   9.792
61744SOL    HW187129  12.592  13.110   9.800
61744SOL    HW287130  12.464  13.190   9.796
61745SOL     OW87131   1.922   4.973  12.155
61745SOL    HW187132   1.956   4.907  12.095
61745SOL    HW287133   1.879   4.923  12.225
61746SOL     OW87134   1.119   7.575  10.951
61746SOL    HW187135   1.182   7.594  10.881
61746SOL    HW287136   1.094   7.484  10.937
61747SOL     OW87137  11.364   2.192   0.517
61747SOL    HW187138  11.327   2.280   0.508
61747SOL    HW287139  11.416   2.197   0.596
61748SOL     OW87140  13.625   5.785   3.534
61748SOL    HW187141  13.680   5.710   3.557
61748SOL    HW287142  13.536   5.752   3.541
61749SOL     OW87143  11.952   0.926   3.753
61749SOL    HW187144  11.920   0.849   3.801
61749SOL    HW287145  12.024   0.958   3.806
61750SOL     OW87146  13.261   5.489  11.781
61750SOL    HW187147  13.203   5.418  11.808
61750SOL    HW287148  13.303   5.457  11.701
61751SOL     OW87149   0.428   1.560   8.344
61751SOL    HW187150   0.417   1.644   8.389
61751SOL    HW287151   0.398   1.494   8.407
61752SOL     OW87152   8.509  11.597  14.641
61752SOL    HW187153   8.597  11.580  14.608
61752SOL    HW287154   8.466  11.646  14.570
61753SOL     OW87155  12.806  10.062  14.817
61753SOL    HW187156  12.878  10.014  14.858
61753SOL    HW287157  12.728  10.030  14.862
61754SOL     OW87158   6.622  12.478   7.138
61754SOL    HW187159   6.586  12.567   7.129
61754SOL    HW287160   6.579  12.442   7.215
61755SOL     OW87161   4.624  10.550   8.997
61755SOL    HW187162   4.607  10.625   9.054
61755SOL    HW287163   4.682  10.494   9.049
61756SOL     OW87164  10.794   1.537  14.633
61756SOL    HW187165  10.878   1.584  14.637
61756SOL    HW287166  10.812   1.463  14.575
61757SOL     OW87167  13.379   9.508   9.746
61757SOL    HW187168  13.405   9.599   9.734
61757SOL    HW287169  13.306   9.495   9.687
61758SOL     OW87170  11.458  11.549   7.930
61758SOL    HW187171  11.405  11.491   7.876
61758SOL    HW287172  11.395  11.606   7.974
61759SOL     OW87173   7.893   7.210   9.950
61759SOL    HW187174   7.975   7.165   9.927
61759SOL    HW287175   7.900   7.295   9.908
61760SOL     OW87176  14.154   4.535   9.227
61760SOL    HW187177  14.223   4.535   9.293
61760SOL    HW287178  14.162   4.620   9.184
61761SOL     OW87179   4.735  14.469  10.211
61761SOL    HW187180   4.648  14.490  10.246
61761SOL    HW287181   4.794  14.528  10.257
61762SOL     OW87182  12.713   8.991  13.909
61762SOL    HW187183  12.808   8.998  13.902
61762SOL    HW287184  12.694   9.007  14.001
61763SOL     OW87185  14.553  11.266   3.321
61763SOL    HW187186  14.568  11.241   3.230
61763SOL    HW287187  14.458  11.261   3.332
61764SOL     OW87188   7.571   5.885   3.829
61764SOL    HW187189   7.597   5.960   3.883
61764SOL    HW287190   7.529   5.924   3.752
61765SOL     OW87191  13.599   3.390  14.306
61765SOL    HW187192  13.604   3.475  14.263
61765SOL    HW287193  13.510   3.385  14.339
61766SOL     OW87194   1.274   4.174   7.017
61766SOL    HW187195   1.275   4.203   7.109
61766SOL    HW287196   1.238   4.248   6.969
61767SOL     OW87197   7.028   7.757   5.140
61767SOL    HW187198   7.108   7.809   5.148
61767SOL    HW287199   6.962   7.806   5.188
61768SOL     OW87200  11.634   6.540   8.290
61768SOL    HW187201  11.598   6.598   8.357
61768SOL    HW287202  11.661   6.599   8.219
61769SOL     OW87203   3.731   3.726   6.395
61769SOL    HW187204   3.641   3.755   6.381
61769SOL    HW287205   3.779   3.763   6.321
61770SOL     OW87206  13.739   7.554   1.316
61770SOL    HW187207  13.745   7.486   1.383
61770SOL    HW287208  13.695   7.512   1.243
61771SOL     OW87209  11.387   7.869   9.996
61771SOL    HW187210  11.351   7.929   9.931
61771SOL    HW287211  11.315   7.810  10.018
61772SOL     OW87212   3.385   7.269   8.336
61772SOL    HW187213   3.383   7.281   8.241
61772SOL    HW287214   3.294   7.252   8.361
61773SOL     OW87215  12.387   7.454   4.222
61773SOL    HW187216  12.395   7.454   4.127
61773SOL    HW287217  12.416   7.367   4.249
61774SOL     OW87218  10.642  14.074  13.042
61774SOL    HW187219  10.567  14.059  13.099
61774SOL    HW287220  10.648  14.169  13.035
61775SOL     OW87221   4.263   6.012   2.104
61775SOL    HW187222   4.205   6.081   2.138
61775SOL    HW287223   4.229   5.931   2.143
61776SOL     OW87224  14.190  14.638   1.623
61776SOL    HW187225  14.245  14.669   1.695
61776SOL    HW287226  14.156  14.554   1.653
61777SOL     OW87227  14.466   3.698   5.631
61777SOL    HW187228  14.378   3.683   5.665
61777SOL    HW287229  14.463   3.667   5.541
61778SOL     OW87230   5.701   7.873   3.951
61778SOL    HW187231   5.712   7.826   4.034
61778SOL    HW287232   5.673   7.961   3.976
61779SOL     OW87233  12.230   5.910   0.476
61779SOL    HW187234  12.219   5.997   0.513
61779SOL    HW287235  12.272   5.924   0.391
61780SOL     OW87236   5.477   1.429   7.434
61780SOL    HW187237   5.388   1.395   7.441
61780SOL    HW287238   5.466   1.521   7.412
61781SOL     OW87239  14.737   4.337  14.672
61781SOL    HW187240  14.662   4.316  14.616
61781SOL    HW287241  14.785   4.404  14.624
61782SOL     OW87242   0.849   1.709   9.201
61782SOL    HW187243   0.840   1.687   9.293
61782SOL    HW287244   0.785   1.654   9.156
61783SOL     OW87245  13.606   2.609  10.168
61783SOL    HW187246  13.609   2.524  10.123
61783SOL    HW287247  13.593   2.673  10.098
61784SOL     OW87248   4.441   8.621   7.240
61784SOL    HW187249   4.384   8.617   7.316
61784SOL    HW287250   4.508   8.685   7.263
61785SOL     OW87251   1.627  13.235  14.841
61785SOL    HW187252   1.565  13.192  14.782
61785SOL    HW287253   1.701  13.176  14.845
61786SOL     OW87254   2.489   3.527  12.482
61786SOL    HW187255   2.496   3.549  12.389
61786SOL    HW287256   2.495   3.431  12.484
61787SOL     OW87257   6.670  10.018  12.995
61787SOL    HW187258   6.745  10.054  13.042
61787SOL    HW287259   6.637  10.091  12.942
61788SOL     OW87260  12.294  12.760  12.184
61788SOL    HW187261  12.282  12.742  12.277
61788SOL    HW287262  12.258  12.682  12.140
61789SOL     OW87263  12.498  10.738   8.322
61789SOL    HW187264  12.505  10.798   8.396
61789SOL    HW287265  12.445  10.665   8.355
61790SOL     OW87266   1.987   7.029  13.339
61790SOL    HW187267   2.054   6.968  13.371
61790SOL    HW287268   2.030   7.114  13.342
61791SOL     OW87269  11.741   7.336   2.927
61791SOL    HW187270  11.757   7.268   2.992
61791SOL    HW287271  11.699   7.407   2.975
61792SOL     OW87272  13.706   0.756   7.871
61792SOL    HW187273  13.738   0.699   7.801
61792SOL    HW287274  13.619   0.783   7.841
61793SOL     OW87275   4.228   2.856   9.882
61793SOL    HW187276   4.203   2.764   9.890
61793SOL    HW287277   4.297   2.856   9.816
61794SOL     OW87278   9.966  14.082   4.016
61794SOL    HW187279  10.060  14.100   4.018
61794SOL    HW287280   9.926  14.168   4.005
61795SOL     OW87281   6.705   6.620   0.746
61795SOL    HW187282   6.657   6.538   0.733
61795SOL    HW287283   6.670   6.656   0.828
61796SOL     OW87284  13.483   0.575   8.332
61796SOL    HW187285  13.544   0.613   8.269
61796SOL    HW287286  13.424   0.646   8.355
61797SOL     OW87287   4.026  14.540   3.186
61797SOL    HW187288   3.953  14.490   3.222
61797SOL    HW287289   4.036  14.614   3.245
61798SOL     OW87290   6.049   4.577   5.960
61798SOL    HW187291   6.000   4.659   5.962
61798SOL    HW287292   6.104   4.580   6.038
61799SOL     OW87293   6.778   2.486  13.209
61799SOL    HW187294   6.739   2.569  13.237
61799SOL    HW287295   6.789   2.436  13.290
61800SOL     OW87296  12.691  10.777   1.750
61800SOL    HW187297  12.774  10.817   1.772
61800SOL    HW287298  12.663  10.733   1.830
61801SOL     OW87299   1.657  13.766   5.085
61801SOL    HW187300   1.590  13.827   5.055
61801SOL    HW287301   1.641  13.756   5.179
61802SOL     OW87302  12.281   3.579  12.504
61802SOL    HW187303  12.188   3.558  12.504
61802SOL    HW287304  12.308   3.568  12.595
61803SOL     OW87305   1.577   3.637   8.962
61803SOL    HW187306   1.547   3.687   9.038
61803SOL    HW287307   1.671   3.651   8.959
61804SOL     OW87308   0.227   8.461   9.476
61804SOL    HW187309   0.226   8.367   9.456
61804SOL    HW287310   0.157   8.472   9.541
61805SOL     OW87311   9.158   4.227   4.919
61805SOL    HW187312   9.080   4.248   4.868
61805SOL    HW287313   9.205   4.310   4.926
61806SOL     OW87314  10.741  13.812  13.157
61806SOL    HW187315  10.825  13.822  13.113
61806SOL    HW287316  10.680  13.790  13.088
61807SOL     OW87317   8.174  14.654   9.907
61807SOL    HW187318   8.089  14.695   9.924
61807SOL    HW287319   8.178  14.648   9.811
61808SOL     OW87320  10.103   5.088  10.683
61808SOL    HW187321  10.116   5.042  10.600
61808SOL    HW287322  10.171   5.053  10.741
61809SOL     OW87323   2.231   6.499   6.073
61809SOL    HW187324   2.325   6.480   6.077
61809SOL    HW287325   2.198   6.475   6.159
61810SOL     OW87326  10.416  13.083  13.273
61810SOL    HW187327  10.454  13.144  13.210
61810SOL    HW287328  10.359  13.027  13.221
61811SOL     OW87329   9.026   6.010   7.995
61811SOL    HW187330   8.980   5.950   7.936
61811SOL    HW287331   9.106   6.034   7.948
61812SOL     OW87332  13.562   6.123   4.406
61812SOL    HW187333  13.519   6.101   4.324
61812SOL    HW287334  13.590   6.039   4.443
61813SOL     OW87335  14.141   8.629   9.323
61813SOL    HW187336  14.068   8.572   9.298
61813SOL    HW287337  14.102   8.692   9.385
61814SOL     OW87338   1.110  10.311   8.655
61814SOL    HW187339   1.140  10.381   8.597
61814SOL    HW287340   1.183  10.248   8.657
61815SOL     OW87341   8.661   9.654  10.126
61815SOL    HW187342   8.711   9.573  10.136
61815SOL    HW287343   8.598   9.652  10.198
61816SOL     OW87344  13.817  14.235   4.377
61816SOL    HW187345  13.784  14.194   4.457
61816SOL    HW287346  13.857  14.316   4.407
61817SOL     OW87347   9.746   3.573   8.881
61817SOL    HW187348   9.654   3.566   8.909
61817SOL    HW287349   9.783   3.639   8.939
61818SOL     OW87350  14.410   1.728  14.097
61818SOL    HW187351  14.463   1.678  14.158
61818SOL    HW287352  14.399   1.671  14.021
61819SOL     OW87353   1.277   9.623   1.342
61819SOL    HW187354   1.209   9.653   1.403
61819SOL    HW287355   1.243   9.645   1.255
61820SOL     OW87356   3.950  11.244   8.507
61820SOL    HW187357   4.039  11.258   8.540
61820SOL    HW287358   3.960  11.177   8.439
61821SOL     OW87359  11.346   9.447   2.223
61821SOL    HW187360  11.395   9.494   2.291
61821SOL    HW287361  11.396   9.460   2.143
61822SOL     OW87362  13.745  10.162   2.506
61822SOL    HW187363  13.827  10.196   2.544
61822SOL    HW287364  13.769  10.077   2.470
61823SOL     OW87365   7.076  13.803   3.596
61823SOL    HW187366   7.055  13.718   3.636
61823SOL    HW287367   6.999  13.825   3.544
61824SOL     OW87368   4.426  10.569   0.121
61824SOL    HW187369   4.434  10.555   0.027
61824SOL    HW287370   4.337  10.601   0.133
61825SOL     OW87371   3.320   0.420   7.181
61825SOL    HW187372   3.410   0.433   7.213
61825SOL    HW287373   3.265   0.432   7.258
61826SOL     OW87374  11.776   9.523   3.835
61826SOL    HW187375  11.696   9.474   3.816
61826SOL    HW287376  11.768   9.548   3.927
61827SOL     OW87377   1.854   7.206  10.578
61827SOL    HW187378   1.906   7.161  10.644
61827SOL    HW287379   1.896   7.183  10.495
61828SOL     OW87380  10.384   4.914   6.756
61828SOL    HW187381  10.302   4.904   6.707
61828SOL    HW287382  10.452   4.920   6.689
61829SOL     OW87383   6.340  10.809   3.007
61829SOL    HW187384   6.245  10.806   3.006
61829SOL    HW287385   6.362  10.900   2.985
61830SOL     OW87386   5.469  11.375   9.085
61830SOL    HW187387   5.385  11.329   9.085
61830SOL    HW287388   5.498  11.373   9.176
61831SOL     OW87389  11.597  11.175   8.684
61831SOL    HW187390  11.651  11.134   8.752
61831SOL    HW287391  11.642  11.153   8.602
61832SOL     OW87392   0.304   2.142   4.296
61832SOL    HW187393   0.379   2.172   4.347
61832SOL    HW287394   0.289   2.212   4.232
61833SOL     OW87395  11.923   1.830  12.959
61833SOL    HW187396  11.993   1.806  12.898
61833SOL    HW287397  11.934   1.924  12.973
61834SOL     OW87398   8.209   3.541   0.024
61834SOL    HW187399   8.225   3.584  14.808
61834SOL    HW287400   8.162   3.605   0.076
61835SOL     OW87401   0.656   2.526  13.775
61835SOL    HW187402   0.595   2.452  13.776
61835SOL    HW287403   0.740   2.488  13.801
61836SOL     OW87404  10.740   5.913   2.038
61836SOL    HW187405  10.782   5.831   2.012
61836SOL    HW287406  10.808   5.961   2.085
61837SOL     OW87407   0.634   5.641  12.913
61837SOL    HW187408   0.645   5.733  12.936
61837SOL    HW287409   0.707   5.597  12.956
61838SOL     OW87410  11.779  14.212   8.492
61838SOL    HW187411  11.766  14.305   8.477
61838SOL    HW287412  11.871  14.205   8.519
61839SOL     OW87413   0.082   5.198  12.647
61839SOL    HW187414   0.094   5.281  12.601
61839SOL    HW287415   0.008   5.156  12.602
61840SOL     OW87416   7.952   0.835  14.197
61840SOL    HW187417   7.911   0.785  14.267
61840SOL    HW287418   7.979   0.917  14.239
61841SOL     OW87419   3.699   1.808   1.585
61841SOL    HW187420   3.609   1.800   1.553
61841SOL    HW287421   3.723   1.898   1.564
61842SOL     OW87422   5.633  13.901  10.267
61842SOL    HW187423   5.707  13.853  10.304
61842SOL    HW287424   5.616  13.857  10.184
61843SOL     OW87425  13.137   5.539   2.692
61843SOL    HW187426  13.171   5.542   2.781
61843SOL    HW287427  13.134   5.445   2.671
61844SOL     OW87428  11.111   3.803  10.798
61844SOL    HW187429  11.051   3.785  10.870
61844SOL    HW287430  11.068   3.767  10.721
61845SOL     OW87431   0.547   2.380   0.565
61845SOL    HW187432   0.588   2.371   0.479
61845SOL    HW287433   0.615   2.420   0.620
61846SOL     OW87434  12.438   8.081  10.857
61846SOL    HW187435  12.406   8.052  10.772
61846SOL    HW287436  12.375   8.046  10.920
61847SOL     OW87437  11.743   1.062  12.642
61847SOL    HW187438  11.660   1.096  12.609
61847SOL    HW287439  11.733   0.966  12.639
61848SOL     OW87440   3.855   2.601   1.718
61848SOL    HW187441   3.922   2.550   1.763
61848SOL    HW287442   3.903   2.651   1.652
61849SOL     OW87443   7.305   9.702   3.079
61849SOL    HW187444   7.346   9.655   3.152
61849SOL    HW287445   7.313   9.642   3.005
61850SOL     OW87446  14.816   1.712   5.772
61850SOL    HW187447   0.042   1.712   5.751
61850SOL    HW287448  14.772   1.705   5.688
61851SOL     OW87449   5.527   7.375   8.806
61851SOL    HW187450   5.449   7.329   8.776
61851SOL    HW287451   5.570   7.313   8.865
61852SOL     OW87452  13.604   3.141   6.140
61852SOL    HW187453  13.622   3.099   6.224
61852SOL    HW287454  13.656   3.091   6.077
61853SOL     OW87455   0.771   4.104   1.454
61853SOL    HW187456   0.853   4.056   1.465
61853SOL    HW287457   0.711   4.064   1.518
61854SOL     OW87458   2.171   1.529  11.092
61854SOL    HW187459   2.198   1.489  11.174
61854SOL    HW287460   2.078   1.548  11.104
61855SOL     OW87461   3.802   9.090  12.520
61855SOL    HW187462   3.725   9.059  12.567
61855SOL    HW287463   3.854   9.011  12.503
61856SOL     OW87464  12.046   8.065  13.391
61856SOL    HW187465  11.972   8.099  13.443
61856SOL    HW287466  12.074   7.987  13.439
61857SOL     OW87467  10.545   2.872  11.570
61857SOL    HW187468  10.539   2.905  11.659
61857SOL    HW287469  10.630   2.829  11.565
61858SOL     OW87470   0.473  10.068   6.941
61858SOL    HW187471   0.412   9.994   6.938
61858SOL    HW287472   0.554  10.035   6.903
61859SOL     OW87473   6.951   0.140  14.112
61859SOL    HW187474   7.025   0.126  14.170
61859SOL    HW287475   6.876   0.103  14.159
61860SOL     OW87476   4.029   4.563   8.264
61860SOL    HW187477   4.101   4.564   8.201
61860SOL    HW287478   4.067   4.596   8.345
61861SOL     OW87479   7.360  10.352   0.132
61861SOL    HW187480   7.433  10.296   0.160
61861SOL    HW287481   7.315  10.375   0.213
61862SOL     OW87482   4.142   9.994  13.758
61862SOL    HW187483   4.132   9.940  13.680
61862SOL    HW287484   4.236  10.002  13.771
61863SOL     OW87485   7.925   1.109   8.267
61863SOL    HW187486   8.007   1.086   8.223
61863SOL    HW287487   7.937   1.079   8.357
61864SOL     OW87488   1.585   4.024  13.375
61864SOL    HW187489   1.566   4.088  13.443
61864SOL    HW287490   1.630   3.953  13.421
61865SOL     OW87491  11.577  11.100   4.738
61865SOL    HW187492  11.486  11.125   4.719
61865SOL    HW287493  11.575  11.074   4.830
61866SOL     OW87494  14.480  14.124   7.733
61866SOL    HW187495  14.523  14.194   7.684
61866SOL    HW287496  14.437  14.169   7.806
61867SOL     OW87497   0.414   9.263  12.862
61867SOL    HW187498   0.472   9.283  12.935
61867SOL    HW287499   0.464   9.201  12.808
61868SOL     OW87500   8.932   4.183  11.837
61868SOL    HW187501   8.940   4.165  11.931
61868SOL    HW287502   9.007   4.139  11.798
61869SOL     OW87503   6.961   0.208  14.834
61869SOL    HW187504   7.003   0.237  14.753
61869SOL    HW287505   6.989   0.118  14.845
61870SOL     OW87506   9.075   2.081  13.582
61870SOL    HW187507   9.039   2.011  13.637
61870SOL    HW287508   8.998   2.124  13.546
61871SOL     OW87509   4.144   2.304   5.429
61871SOL    HW187510   4.126   2.256   5.509
61871SOL    HW287511   4.075   2.370   5.424
61872SOL     OW87512   5.317   7.204   5.853
61872SOL    HW187513   5.360   7.158   5.781
61872SOL    HW287514   5.312   7.295   5.824
61873SOL     OW87515   8.881   9.625  12.852
61873SOL    HW187516   8.890   9.558  12.783
61873SOL    HW287517   8.923   9.703  12.815
61874SOL     OW87518   7.971  13.685  13.623
61874SOL    HW187519   7.930  13.711  13.541
61874SOL    HW287520   7.987  13.767  13.669
61875SOL     OW87521   9.820   5.462   1.324
61875SOL    HW187522   9.801   5.531   1.261
61875SOL    HW287523   9.815   5.381   1.274
61876SOL     OW87524   1.338  10.339   3.346
61876SOL    HW187525   1.302  10.328   3.435
61876SOL    HW287526   1.430  10.313   3.354
61877SOL     OW87527   0.757   1.145  13.316
61877SOL    HW187528   0.665   1.171  13.320
61877SOL    HW287529   0.767   1.082  13.387
61878SOL     OW87530   0.627  11.247   7.725
61878SOL    HW187531   0.562  11.197   7.774
61878SOL    HW287532   0.711  11.207   7.748
61879SOL     OW87533   2.087   0.018  11.055
61879SOL    HW187534   2.097  14.840  10.971
61879SOL    HW287535   2.154   0.086  11.053
61880SOL     OW87536   4.893   5.412   6.114
61880SOL    HW187537   4.955   5.370   6.174
61880SOL    HW287538   4.946   5.476   6.066
61881SOL     OW87539  11.204   4.844   7.657
61881SOL    HW187540  11.150   4.880   7.727
61881SOL    HW287541  11.150   4.773   7.620
61882SOL     OW87542  12.479  10.759   0.406
61882SOL    HW187543  12.464  10.848   0.439
61882SOL    HW287544  12.567  10.737   0.436
61883SOL     OW87545   4.022   9.310  13.764
61883SOL    HW187546   4.003   9.286  13.855
61883SOL    HW287547   3.937   9.313  13.721
61884SOL     OW87548   8.751   1.803   1.811
61884SOL    HW187549   8.762   1.897   1.823
61884SOL    HW287550   8.735   1.769   1.899
61885SOL     OW87551  13.181  13.385  13.239
61885SOL    HW187552  13.240  13.423  13.304
61885SOL    HW287553  13.141  13.310  13.284
61886SOL     OW87554  14.338   3.850   0.830
61886SOL    HW187555  14.376   3.922   0.779
61886SOL    HW287556  14.414   3.802   0.863
61887SOL     OW87557   9.800   6.149   3.725
61887SOL    HW187558   9.869   6.152   3.659
61887SOL    HW287559   9.816   6.226   3.780
61888SOL     OW87560   6.260  12.396  13.912
61888SOL    HW187561   6.336  12.371  13.861
61888SOL    HW287562   6.287  12.385  14.003
61889SOL     OW87563   5.458  13.086   5.855
61889SOL    HW187564   5.529  13.023   5.843
61889SOL    HW287565   5.497  13.170   5.832
61890SOL     OW87566   5.853   9.927   5.248
61890SOL    HW187567   5.923   9.980   5.211
61890SOL    HW287568   5.789   9.917   5.177
61891SOL     OW87569  13.683  13.863   8.519
61891SOL    HW187570  13.609  13.924   8.523
61891SOL    HW287571  13.754  13.908   8.566
61892SOL     OW87572   6.563   8.796   3.435
61892SOL    HW187573   6.627   8.729   3.410
61892SOL    HW287574   6.611   8.851   3.498
61893SOL     OW87575   7.498   6.023   0.550
61893SOL    HW187576   7.564   6.020   0.619
61893SOL    HW287577   7.458   5.936   0.551
61894SOL     OW87578   1.921   3.796   5.173
61894SOL    HW187579   1.863   3.794   5.248
61894SOL    HW287580   1.900   3.879   5.129
61895SOL     OW87581   2.853   4.145   4.181
61895SOL    HW187582   2.940   4.154   4.143
61895SOL    HW287583   2.869   4.128   4.274
61896SOL     OW87584   9.764  12.491   1.209
61896SOL    HW187585   9.731  12.566   1.258
61896SOL    HW287586   9.819  12.529   1.140
61897SOL     OW87587   7.876  12.152  13.970
61897SOL    HW187588   7.868  12.247  13.964
61897SOL    HW287589   7.866  12.122  13.880
61898SOL     OW87590  10.024   2.050   5.845
61898SOL    HW187591  10.075   2.046   5.764
61898SOL    HW287592  10.061   1.980   5.900
61899SOL     OW87593  12.331  12.028   2.973
61899SOL    HW187594  12.345  12.112   3.016
61899SOL    HW287595  12.293  11.972   3.040
61900SOL     OW87596  12.453   5.118   9.960
61900SOL    HW187597  12.359   5.132   9.947
61900SOL    HW287598  12.458   5.037  10.010
61901SOL     OW87599   8.117  10.624  11.910
61901SOL    HW187600   8.154  10.583  11.988
61901SOL    HW287601   8.033  10.659  11.939
61902SOL     OW87602   5.095   6.790   1.663
61902SOL    HW187603   5.109   6.706   1.617
61902SOL    HW287604   5.039   6.767   1.737
61903SOL     OW87605   9.686  14.614   4.063
61903SOL    HW187606   9.696  14.633   4.156
61903SOL    HW287607   9.775  14.599   4.031
61904SOL     OW87608   7.416   8.963   5.592
61904SOL    HW187609   7.406   9.058   5.590
61904SOL    HW287610   7.377   8.937   5.675
61905SOL     OW87611   4.593   6.991  10.638
61905SOL    HW187612   4.587   7.086  10.632
61905SOL    HW287613   4.593   6.973  10.732
61906SOL     OW87614   6.916   6.747   9.317
61906SOL    HW187615   6.842   6.761   9.376
61906SOL    HW287616   6.895   6.798   9.239
61907SOL     OW87617   6.984   3.378  13.696
61907SOL    HW187618   6.922   3.446  13.669
61907SOL    HW287619   6.963   3.303  13.641
61908SOL     OW87620  13.323  11.498  13.142
61908SOL    HW187621  13.352  11.470  13.229
61908SOL    HW287622  13.340  11.423  13.086
61909SOL     OW87623   8.248   6.024   6.441
61909SOL    HW187624   8.186   5.975   6.495
61909SOL    HW287625   8.312   6.058   6.503
61910SOL     OW87626   9.098   7.031   5.698
61910SOL    HW187627   9.107   7.118   5.737
61910SOL    HW287628   9.005   7.009   5.711
61911SOL     OW87629  14.088   5.842  10.962
61911SOL    HW187630  14.107   5.751  10.981
61911SOL    HW287631  14.060   5.880  11.046
61912SOL     OW87632   0.506   2.186   0.738
61912SOL    HW187633   0.539   2.249   0.674
61912SOL    HW287634   0.434   2.142   0.693
61913SOL     OW87635   2.878  14.275  11.574
61913SOL    HW187636   2.924  14.214  11.516
61913SOL    HW287637   2.946  14.335  11.605
61914SOL     OW87638   2.795  14.020   2.265
61914SOL    HW187639   2.865  14.084   2.257
61914SOL    HW287640   2.715  14.068   2.246
61915SOL     OW87641   1.201  11.773   7.777
61915SOL    HW187642   1.296  11.774   7.765
61915SOL    HW287643   1.189  11.787   7.871
61916SOL     OW87644  13.563   1.099  11.869
61916SOL    HW187645  13.499   1.029  11.856
61916SOL    HW287646  13.541   1.136  11.954
61917SOL     OW87647   1.732   3.083   8.009
61917SOL    HW187648   1.742   3.135   8.089
61917SOL    HW287649   1.641   3.094   7.984
61918SOL     OW87650   3.689   1.464  13.034
61918SOL    HW187651   3.747   1.522  13.081
61918SOL    HW287652   3.721   1.376  13.054
61919SOL     OW87653  13.086  11.360  13.863
61919SOL    HW187654  13.109  11.434  13.805
61919SOL    HW287655  12.993  11.372  13.880
61920SOL     OW87656   8.924   7.667   2.375
61920SOL    HW187657   8.870   7.617   2.435
61920SOL    HW287658   8.948   7.746   2.423
61921SOL     OW87659   7.113  12.323   8.774
61921SOL    HW187660   7.103  12.412   8.808
61921SOL    HW287661   7.139  12.271   8.851
61922SOL     OW87662   1.941   8.693   0.242
61922SOL    HW187663   1.925   8.620   0.303
61922SOL    HW287664   1.904   8.769   0.286
61923SOL     OW87665   0.057  10.698   8.208
61923SOL    HW187666   0.067  10.688   8.303
61923SOL    HW287667   0.021  10.614   8.179
61924SOL     OW87668   5.436   2.041   7.836
61924SOL    HW187669   5.388   1.959   7.849
61924SOL    HW287670   5.525   2.012   7.813
61925SOL     OW87671  13.750  14.454   2.855
61925SOL    HW187672  13.689  14.470   2.927
61925SOL    HW287673  13.818  14.397   2.893
61926SOL     OW87674   4.482  10.388  11.667
61926SOL    HW187675   4.439  10.335  11.735
61926SOL    HW287676   4.568  10.407  11.702
61927SOL     OW87677  10.523   3.496   6.233
61927SOL    HW187678  10.517   3.469   6.325
61927SOL    HW287679  10.452   3.449   6.190
61928SOL     OW87680  14.358   3.120   6.315
61928SOL    HW187681  14.320   3.199   6.353
61928SOL    HW287682  14.434   3.151   6.265
61929SOL     OW87683  12.746   5.520   3.163
61929SOL    HW187684  12.688   5.565   3.224
61929SOL    HW287685  12.703   5.529   3.078
61930SOL     OW87686   0.013   8.405   3.879
61930SOL    HW187687   0.068   8.346   3.930
61930SOL    HW287688  14.799   8.358   3.868
61931SOL     OW87689   8.545   3.164   6.868
61931SOL    HW187690   8.567   3.255   6.850
61931SOL    HW287691   8.577   3.147   6.956
61932SOL     OW87692   7.382   2.565   4.894
61932SOL    HW187693   7.441   2.549   4.967
61932SOL    HW287694   7.311   2.618   4.931
61933SOL     OW87695   8.581   8.543   3.764
61933SOL    HW187696   8.549   8.518   3.677
61933SOL    HW287697   8.621   8.463   3.798
61934SOL     OW87698  13.187   4.693   1.017
61934SOL    HW187699  13.229   4.778   1.032
61934SOL    HW287700  13.096   4.707   1.046
61935SOL     OW87701   2.964   4.637   8.349
61935SOL    HW187702   2.978   4.604   8.438
61935SOL    HW287703   2.872   4.617   8.331
61936SOL     OW87704  14.006   7.600   4.146
61936SOL    HW187705  14.010   7.677   4.090
61936SOL    HW287706  14.094   7.561   4.141
61937SOL     OW87707  11.600   6.823  13.438
61937SOL    HW187708  11.535   6.892  13.446
61937SOL    HW287709  11.659   6.852  13.369
61938SOL     OW87710   5.292  10.665   1.153
61938SOL    HW187711   5.200  10.689   1.143
61938SOL    HW287712   5.340  10.747   1.140
61939SOL     OW87713   6.414   9.084  12.248
61939SOL    HW187714   6.485   9.072  12.185
61939SOL    HW287715   6.416   9.004  12.301
61940SOL     OW87716  12.643  10.511   6.291
61940SOL    HW187717  12.614  10.598   6.262
61940SOL    HW287718  12.737  10.520   6.303
61941SOL     OW87719   9.503  12.985   1.133
61941SOL    HW187720   9.484  12.891   1.140
61941SOL    HW287721   9.431  13.027   1.180
61942SOL     OW87722  12.798  11.546   1.713
61942SOL    HW187723  12.874  11.602   1.730
61942SOL    HW287724  12.775  11.565   1.622
61943SOL     OW87725   7.530   5.379  10.006
61943SOL    HW187726   7.617   5.354  10.039
61943SOL    HW287727   7.496   5.440  10.072
61944SOL     OW87728   0.767  11.624   3.902
61944SOL    HW187729   0.781  11.530   3.890
61944SOL    HW287730   0.711  11.650   3.829
61945SOL     OW87731   6.107  11.669   8.151
61945SOL    HW187732   6.075  11.580   8.137
61945SOL    HW287733   6.136  11.698   8.064
61946SOL     OW87734   3.143   5.687   6.701
61946SOL    HW187735   3.182   5.726   6.779
61946SOL    HW287736   3.172   5.743   6.629
61947SOL     OW87737   1.732   8.466  12.545
61947SOL    HW187738   1.747   8.385  12.495
61947SOL    HW287739   1.772   8.534  12.491
61948SOL     OW87740  12.412   2.903   9.174
61948SOL    HW187741  12.485   2.851   9.208
61948SOL    HW287742  12.334   2.852   9.197
61949SOL     OW87743   1.872   6.837  13.502
61949SOL    HW187744   1.853   6.924  13.467
61949SOL    HW287745   1.960   6.816  13.470
61950SOL     OW87746  11.076   8.195   8.129
61950SOL    HW187747  11.066   8.101   8.116
61950SOL    HW287748  10.986   8.228   8.138
61951SOL     OW87749   4.590   6.142   7.290
61951SOL    HW187750   4.561   6.134   7.199
61951SOL    HW287751   4.674   6.095   7.292
61952SOL     OW87752   5.157   7.861   1.469
61952SOL    HW187753   5.089   7.817   1.417
61952SOL    HW287754   5.119   7.869   1.556
61953SOL     OW87755  14.685  11.307  14.590
61953SOL    HW187756  14.657  11.369  14.657
61953SOL    HW287757  14.688  11.359  14.509
61954SOL     OW87758   8.849  10.940   7.311
61954SOL    HW187759   8.779  10.982   7.361
61954SOL    HW287760   8.848  10.849   7.340
61955SOL     OW87761  13.422   9.635   4.169
61955SOL    HW187762  13.511   9.624   4.201
61955SOL    HW287763  13.402   9.553   4.125
61956SOL     OW87764   3.839   7.528  12.429
61956SOL    HW187765   3.824   7.547  12.522
61956SOL    HW287766   3.758   7.556  12.386
61957SOL     OW87767  10.370   6.449   7.736
61957SOL    HW187768  10.430   6.377   7.751
61957SOL    HW287769  10.286   6.407   7.716
61958SOL     OW87770   8.145   6.719   2.298
61958SOL    HW187771   8.159   6.765   2.216
61958SOL    HW287772   8.233   6.711   2.336
61959SOL     OW87773   4.446   4.253   1.552
61959SOL    HW187774   4.371   4.243   1.493
61959SOL    HW287775   4.517   4.285   1.497
61960SOL     OW87776   9.081  13.395  14.692
61960SOL    HW187777   9.025  13.347  14.632
61960SOL    HW287778   9.166  13.351  14.688
61961SOL     OW87779  11.976   1.019  10.854
61961SOL    HW187780  12.033   0.961  10.905
61961SOL    HW287781  11.903   1.039  10.913
61962SOL     OW87782   4.762   8.869   8.092
61962SOL    HW187783   4.739   8.959   8.119
61962SOL    HW287784   4.783   8.877   7.999
61963SOL     OW87785   7.224   7.700  10.622
61963SOL    HW187786   7.189   7.659  10.543
61963SOL    HW287787   7.265   7.628  10.670
61964SOL     OW87788   0.525  12.190   0.234
61964SOL    HW187789   0.456  12.128   0.211
61964SOL    HW287790   0.505  12.217   0.324
61965SOL     OW87791  14.439   9.719  12.411
61965SOL    HW187792  14.466   9.778  12.341
61965SOL    HW287793  14.482   9.753  12.489
61966SOL     OW87794   2.791  13.678  11.901
61966SOL    HW187795   2.733  13.603  11.912
61966SOL    HW287796   2.878  13.640  11.887
61967SOL     OW87797   0.198   0.865   9.306
61967SOL    HW187798   0.202   0.948   9.353
61967SOL    HW287799   0.267   0.812   9.345
61968SOL     OW87800  13.561   1.141  11.329
61968SOL    HW187801  13.487   1.080  11.330
61968SOL    HW287802  13.624   1.100  11.270
61969SOL     OW87803   0.657   8.619   2.708
61969SOL    HW187804   0.648   8.593   2.616
61969SOL    HW287805   0.685   8.711   2.705
61970SOL     OW87806   4.991   4.367   9.332
61970SOL    HW187807   5.060   4.376   9.266
61970SOL    HW287808   4.998   4.446   9.385
61971SOL     OW87809  12.021   8.163   8.501
61971SOL    HW187810  12.040   8.111   8.579
61971SOL    HW287811  11.926   8.164   8.495
61972SOL     OW87812   6.981  13.084   9.073
61972SOL    HW187813   7.056  13.106   9.018
61972SOL    HW287814   6.934  13.167   9.083
61973SOL     OW87815  14.255   3.274   4.304
61973SOL    HW187816  14.343   3.311   4.312
61973SOL    HW287817  14.265   3.181   4.327
61974SOL     OW87818   2.773   5.779   0.316
61974SOL    HW187819   2.710   5.762   0.246
61974SOL    HW287820   2.815   5.861   0.291
61975SOL     OW87821  14.254   5.153   8.236
61975SOL    HW187822  14.165   5.169   8.265
61975SOL    HW287823  14.247   5.136   8.142
61976SOL     OW87824   8.467   0.485   1.041
61976SOL    HW187825   8.420   0.540   1.103
61976SOL    HW287826   8.541   0.539   1.012
61977SOL     OW87827  10.420   9.924   7.592
61977SOL    HW187828  10.478   9.999   7.600
61977SOL    HW287829  10.427   9.878   7.676
61978SOL     OW87830   6.088   2.407   6.965
61978SOL    HW187831   6.011   2.413   6.910
61978SOL    HW287832   6.055   2.378   7.050
61979SOL     OW87833   9.952   4.946   3.842
61979SOL    HW187834   9.886   4.911   3.902
61979SOL    HW287835   9.978   5.029   3.881
61980SOL     OW87836  11.040   0.739  13.986
61980SOL    HW187837  11.115   0.689  13.955
61980SOL    HW287838  11.074   0.790  14.060
61981SOL     OW87839  12.039  13.202   4.195
61981SOL    HW187840  12.123  13.158   4.186
61981SOL    HW287841  12.033  13.225   4.288
61982SOL     OW87842  11.831  11.510  11.738
61982SOL    HW187843  11.846  11.461  11.818
61982SOL    HW287844  11.747  11.554  11.752
61983SOL     OW87845  12.961   6.214  10.651
61983SOL    HW187846  12.905   6.246  10.722
61983SOL    HW287847  13.044   6.260  10.665
61984SOL     OW87848   2.336  14.313   9.228
61984SOL    HW187849   2.357  14.405   9.214
61984SOL    HW287850   2.319  14.278   9.140
61985SOL     OW87851  12.235  11.227  13.929
61985SOL    HW187852  12.214  11.321  13.930
61985SOL    HW287853  12.206  11.197  13.842
61986SOL     OW87854  10.586   9.828   9.535
61986SOL    HW187855  10.593   9.762   9.465
61986SOL    HW287856  10.552   9.906   9.491
61987SOL     OW87857   8.879  10.241   4.971
61987SOL    HW187858   8.794  10.266   4.934
61987SOL    HW287859   8.873  10.267   5.063
61988SOL     OW87860  11.616  14.827  11.761
61988SOL    HW187861  11.691  14.772  11.737
61988SOL    HW287862  11.571  14.777  11.830
61989SOL     OW87863  13.713   3.125   0.848
61989SOL    HW187864  13.776   3.062   0.811
61989SOL    HW287865  13.637   3.072   0.872
61990SOL     OW87866   8.607  12.893  13.931
61990SOL    HW187867   8.697  12.877  13.961
61990SOL    HW287868   8.604  12.988  13.914
61991SOL     OW87869   1.600   6.478   2.196
61991SOL    HW187870   1.511   6.505   2.217
61991SOL    HW287871   1.613   6.505   2.105
61992SOL     OW87872   5.996   3.515   2.901
61992SOL    HW187873   6.036   3.481   2.981
61992SOL    HW287874   6.030   3.604   2.893
61993SOL     OW87875   0.355   5.427  14.228
61993SOL    HW187876   0.421   5.496  14.224
61993SOL    HW287877   0.363   5.381  14.144
61994SOL     OW87878   7.718   9.496   5.018
61994SOL    HW187879   7.791   9.528   4.966
61994SOL    HW287880   7.717   9.551   5.096
61995SOL     OW87881  11.506  10.066  13.489
61995SOL    HW187882  11.562  10.029  13.557
61995SOL    HW287883  11.439   9.999  13.473
61996SOL     OW87884   1.669   4.997   5.566
61996SOL    HW187885   1.599   5.060   5.583
61996SOL    HW287886   1.725   5.040   5.502
61997SOL     OW87887  10.883  13.422  14.186
61997SOL    HW187888  10.824  13.376  14.126
61997SOL    HW287889  10.866  13.515  14.170
61998SOL     OW87890   5.842  12.785   4.136
61998SOL    HW187891   5.820  12.750   4.222
61998SOL    HW287892   5.937  12.787   4.134
61999SOL     OW87893  13.594  14.493  11.293
61999SOL    HW187894  13.547  14.533  11.366
61999SOL    HW287895  13.650  14.428  11.334
62000SOL     OW87896  12.611   3.667  13.426
62000SOL    HW187897  12.619   3.572  13.414
62000SOL    HW287898  12.521   3.680  13.455
62001SOL     OW87899  12.796   3.140   8.923
62001SOL    HW187900  12.855   3.163   8.994
62001SOL    HW287901  12.742   3.218   8.910
62002SOL     OW87902   1.558  11.873  10.841
62002SOL    HW187903   1.519  11.869  10.754
62002SOL    HW287904   1.522  11.952  10.881
62003SOL     OW87905   1.560   5.422   6.443
62003SOL    HW187906   1.639   5.475   6.441
62003SOL    HW287907   1.490   5.483   6.466
62004SOL     OW87908   3.299  12.285   7.468
62004SOL    HW187909   3.254  12.261   7.387
62004SOL    HW287910   3.322  12.378   7.456
62005SOL     OW87911  12.779   9.745   1.505
62005SOL    HW187912  12.835   9.708   1.574
62005SOL    HW287913  12.830   9.818   1.470
62006SOL     OW87914   1.104  11.423   5.725
62006SOL    HW187915   1.048  11.497   5.703
62006SOL    HW287916   1.118  11.430   5.819
62007SOL     OW87917   8.286   6.067   2.736
62007SOL    HW187918   8.377   6.077   2.764
62007SOL    HW287919   8.236   6.062   2.818
62008SOL     OW87920   0.594   1.616  12.254
62008SOL    HW187921   0.607   1.681  12.323
62008SOL    HW287922   0.562   1.538  12.301
62009SOL     OW87923   7.926   1.411   3.227
62009SOL    HW187924   7.933   1.488   3.170
62009SOL    HW287925   7.839   1.375   3.208
62010SOL     OW87926   3.364  12.510   8.232
62010SOL    HW187927   3.451  12.475   8.213
62010SOL    HW287928   3.313  12.492   8.152
62011SOL     OW87929   6.562   6.471  11.252
62011SOL    HW187930   6.552   6.395  11.310
62011SOL    HW287931   6.477   6.478  11.208
62012SOL     OW87932  12.795  13.280   4.519
62012SOL    HW187933  12.710  13.324   4.520
62012SOL    HW287934  12.847  13.330   4.457
62013SOL     OW87935  12.019   9.948  13.928
62013SOL    HW187936  12.099   9.976  13.974
62013SOL    HW287937  12.049   9.926  13.840
62014SOL     OW87938  12.185   4.553  11.637
62014SOL    HW187939  12.106   4.499  11.627
62014SOL    HW287940  12.226   4.552  11.551
62015SOL     OW87941   9.071   0.922   7.870
62015SOL    HW187942   9.103   0.983   7.937
62015SOL    HW287943   9.149   0.872   7.845
62016SOL     OW87944  13.116   8.591   2.434
62016SOL    HW187945  13.037   8.644   2.451
62016SOL    HW287946  13.188   8.647   2.461
62017SOL     OW87947   9.667   7.905  10.798
62017SOL    HW187948   9.613   7.830  10.823
62017SOL    HW287949   9.671   7.959  10.877
62018SOL     OW87950   4.409   3.212   4.561
62018SOL    HW187951   4.392   3.200   4.467
62018SOL    HW287952   4.330   3.255   4.594
62019SOL     OW87953   8.836   7.190  11.536
62019SOL    HW187954   8.910   7.211  11.479
62019SOL    HW287955   8.846   7.097  11.556
62020SOL     OW87956   6.108   3.506   2.255
62020SOL    HW187957   6.142   3.473   2.338
62020SOL    HW287958   6.186   3.531   2.205
62021SOL     OW87959   9.376   5.295   4.871
62021SOL    HW187960   9.382   5.257   4.959
62021SOL    HW287961   9.342   5.223   4.817
62022SOL     OW87962   3.472  13.798   6.847
62022SOL    HW187963   3.516  13.752   6.919
62022SOL    HW287964   3.530  13.871   6.825
62023SOL     OW87965   1.291   4.836   6.549
62023SOL    HW187966   1.313   4.778   6.476
62023SOL    HW287967   1.207   4.804   6.581
62024SOL     OW87968   0.088   8.911  12.257
62024SOL    HW187969   0.118   8.857  12.185
62024SOL    HW287970   0.091   9.001  12.224
62025SOL     OW87971   1.723   3.014  12.538
62025SOL    HW187972   1.793   2.953  12.515
62025SOL    HW287973   1.701   3.058  12.455
62026SOL     OW87974   6.829   6.057   6.597
62026SOL    HW187975   6.747   6.087   6.559
62026SOL    HW287976   6.879   6.023   6.523
62027SOL     OW87977   3.387  13.481   5.357
62027SOL    HW187978   3.325  13.425   5.404
62027SOL    HW287979   3.377  13.567   5.398
62028SOL     OW87980   5.013   4.036   2.353
62028SOL    HW187981   4.982   3.988   2.429
62028SOL    HW287982   5.073   4.101   2.389
62029SOL     OW87983   4.491   3.088   0.741
62029SOL    HW187984   4.553   3.085   0.668
62029SOL    HW287985   4.424   3.150   0.714
62030SOL     OW87986   2.258   5.777  12.081
62030SOL    HW187987   2.257   5.708  12.014
62030SOL    HW287988   2.350   5.787  12.103
62031SOL     OW87989   3.019   3.040  12.809
62031SOL    HW187990   2.973   3.010  12.731
62031SOL    HW287991   3.013   3.135  12.807
62032SOL     OW87992  13.214   9.934   0.086
62032SOL    HW187993  13.194  10.014   0.135
62032SOL    HW287994  13.192   9.863   0.146
62033SOL     OW87995  12.918  13.368   9.212
62033SOL    HW187996  12.897  13.462   9.211
62033SOL    HW287997  12.959  13.354   9.297
62034SOL     OW87998   4.414   6.531  13.661
62034SOL    HW187999   4.370   6.473  13.599
62034SOL    HW288000   4.492   6.484  13.689
62035SOL     OW88001  14.822   6.635  10.159
62035SOL    HW188002  14.817   6.551  10.113
62035SOL    HW288003  14.769   6.694  10.106
62036SOL     OW88004   5.692   3.942   3.604
62036SOL    HW188005   5.609   3.958   3.558
62036SOL    HW288006   5.736   4.027   3.605
62037SOL     OW88007  12.096   5.093   1.461
62037SOL    HW188008  12.126   5.147   1.388
62037SOL    HW288009  12.167   5.097   1.525
62038SOL     OW88010  12.709   8.978   3.323
62038SOL    HW188011  12.626   8.933   3.304
62038SOL    HW288012  12.732   8.950   3.411
62039SOL     OW88013   1.807   6.576   9.207
62039SOL    HW188014   1.757   6.658   9.214
62039SOL    HW288015   1.888   6.594   9.255
62040SOL     OW88016   3.155   5.145  10.002
62040SOL    HW188017   3.170   5.053   9.978
62040SOL    HW288018   3.206   5.195   9.937
62041SOL     OW88019   5.979   2.430   4.836
62041SOL    HW188020   6.056   2.372   4.831
62041SOL    HW288021   5.996   2.486   4.911
62042SOL     OW88022   3.166   0.273   8.969
62042SOL    HW188023   3.125   0.359   8.956
62042SOL    HW288024   3.254   0.294   9.002
62043SOL     OW88025   5.306  12.521   7.922
62043SOL    HW188026   5.250  12.574   7.865
62043SOL    HW288027   5.279  12.544   8.011
62044SOL     OW88028   3.961   0.829   9.202
62044SOL    HW188029   3.913   0.762   9.252
62044SOL    HW288030   3.982   0.786   9.119
62045SOL     OW88031   6.208   4.843   7.217
62045SOL    HW188032   6.290   4.802   7.245
62045SOL    HW288033   6.148   4.770   7.204
62046SOL     OW88034  11.645   5.653   9.368
62046SOL    HW188035  11.622   5.580   9.311
62046SOL    HW288036  11.700   5.614   9.437
62047SOL     OW88037   6.360   6.802   9.195
62047SOL    HW188038   6.275   6.764   9.215
62047SOL    HW288039   6.380   6.857   9.271
62048SOL     OW88040   9.343   1.430   7.225
62048SOL    HW188041   9.431   1.412   7.192
62048SOL    HW288042   9.286   1.420   7.149
62049SOL     OW88043  13.116   6.078  12.553
62049SOL    HW188044  13.034   6.049  12.511
62049SOL    HW288045  13.177   6.005  12.538
62050SOL     OW88046  10.985   0.050   7.215
62050SOL    HW188047  10.949  14.844   7.165
62050SOL    HW288048  10.961   0.032   7.305
62051SOL     OW88049   7.652  13.052   6.508
62051SOL    HW188050   7.730  13.095   6.542
62051SOL    HW288051   7.672  12.959   6.514
62052SOL     OW88052  12.809   5.721  14.276
62052SOL    HW188053  12.729   5.758  14.239
62052SOL    HW288054  12.878   5.745  14.213
62053SOL     OW88055   8.702  11.907   8.749
62053SOL    HW188056   8.725  12.000   8.748
62053SOL    HW288057   8.771  11.865   8.800
62054SOL     OW88058   5.389  14.654   9.894
62054SOL    HW188059   5.355  14.571   9.925
62054SOL    HW288060   5.405  14.705   9.974
62055SOL     OW88061   2.776  10.923   2.493
62055SOL    HW188062   2.743  10.834   2.507
62055SOL    HW288063   2.813  10.948   2.577
62056SOL     OW88064   2.274  10.555   4.251
62056SOL    HW188065   2.218  10.478   4.259
62056SOL    HW288066   2.360  10.521   4.227
62057SOL     OW88067   6.527  10.991   0.344
62057SOL    HW188068   6.431  10.997   0.345
62057SOL    HW288069   6.556  11.080   0.324
62058SOL     OW88070   4.838   1.338   1.529
62058SOL    HW188071   4.834   1.413   1.589
62058SOL    HW288072   4.761   1.286   1.550
62059SOL     OW88073   0.888   3.276   4.575
62059SOL    HW188074   0.860   3.363   4.547
62059SOL    HW288075   0.908   3.287   4.668
62060SOL     OW88076  10.670  14.541   0.255
62060SOL    HW188077  10.611  14.489   0.310
62060SOL    HW288078  10.753  14.493   0.257
62061SOL     OW88079   0.091   3.985   9.444
62061SOL    HW188080   0.177   4.026   9.436
62061SOL    HW288081   0.055   3.987   9.356
62062SOL     OW88082  13.920  10.192   5.104
62062SOL    HW188083  13.902  10.158   5.192
62062SOL    HW288084  14.014  10.206   5.103
62063SOL     OW88085   6.058  10.271   8.308
62063SOL    HW188086   6.093  10.348   8.263
62063SOL    HW288087   6.134  10.214   8.320
62064SOL     OW88088   0.567  14.144   2.421
62064SOL    HW188089   0.574  14.191   2.503
62064SOL    HW288090   0.657  14.126   2.395
62065SOL     OW88091   7.068   5.397  14.469
62065SOL    HW188092   7.123   5.371  14.543
62065SOL    HW288093   7.114   5.364  14.392
62066SOL     OW88094   0.226   5.656   9.001
62066SOL    HW188095   0.303   5.681   8.949
62066SOL    HW288096   0.157   5.641   8.936
62067SOL     OW88097  13.927  13.159   6.210
62067SOL    HW188098  13.909  13.175   6.302
62067SOL    HW288099  13.964  13.242   6.179
62068SOL     OW88100   2.996  11.944  14.369
62068SOL    HW188101   2.926  11.990  14.323
62068SOL    HW288102   3.074  11.998  14.355
62069SOL     OW88103  11.492   9.075   1.288
62069SOL    HW188104  11.539   8.995   1.313
62069SOL    HW288105  11.405   9.044   1.261
62070SOL     OW88106   4.327  14.493   6.467
62070SOL    HW188107   4.282  14.459   6.390
62070SOL    HW288108   4.289  14.444   6.540
62071SOL     OW88109   0.986   8.063   8.867
62071SOL    HW188110   1.073   8.028   8.848
62071SOL    HW288111   0.998   8.158   8.866
62072SOL     OW88112   3.798  10.614  10.834
62072SOL    HW188113   3.886  10.631  10.800
62072SOL    HW288114   3.809  10.610  10.929
62073SOL     OW88115   0.741  14.482  13.573
62073SOL    HW188116   0.717  14.536  13.497
62073SOL    HW288117   0.668  14.494  13.634
62074SOL     OW88118   1.005  10.612   2.804
62074SOL    HW188119   1.010  10.688   2.862
62074SOL    HW288120   0.958  10.643   2.727
62075SOL     OW88121  12.387   0.247   7.736
62075SOL    HW188122  12.414   0.249   7.644
62075SOL    HW288123  12.421   0.328   7.773
62076SOL     OW88124   2.031   7.336  11.158
62076SOL    HW188125   2.061   7.348  11.248
62076SOL    HW288126   1.957   7.275  11.165
62077SOL     OW88127   7.252  10.820   2.485
62077SOL    HW188128   7.271  10.869   2.404
62077SOL    HW288129   7.157  10.819   2.491
62078SOL     OW88130  14.402  10.840   1.534
62078SOL    HW188131  14.451  10.856   1.615
62078SOL    HW288132  14.366  10.926   1.512
62079SOL     OW88133  10.716  11.997   7.321
62079SOL    HW188134  10.698  12.023   7.231
62079SOL    HW288135  10.659  11.921   7.336
62080SOL     OW88136  14.583   8.495  13.949
62080SOL    HW188137  14.604   8.544  13.870
62080SOL    HW288138  14.556   8.409  13.917
62081SOL     OW88139  11.701   3.124  14.279
62081SOL    HW188140  11.743   3.189  14.222
62081SOL    HW288141  11.666   3.059  14.218
62082SOL     OW88142  10.540   9.076   9.928
62082SOL    HW188143  10.584   9.086  10.013
62082SOL    HW288144  10.564   8.989   9.898
62083SOL     OW88145   3.004   9.980   2.510
62083SOL    HW188146   3.023   9.886   2.510
62083SOL    HW288147   3.043  10.012   2.429
62084SOL     OW88148   3.872  12.344  10.532
62084SOL    HW188149   3.909  12.257  10.547
62084SOL    HW288150   3.812  12.358  10.605
62085SOL     OW88151  13.156  12.440   9.280
62085SOL    HW188152  13.148  12.365   9.339
62085SOL    HW288153  13.132  12.516   9.333
62086SOL     OW88154   6.518   1.182  14.015
62086SOL    HW188155   6.514   1.088  14.035
62086SOL    HW288156   6.610   1.205  14.024
62087SOL     OW88157  14.166  13.281  10.928
62087SOL    HW188158  14.153  13.374  10.945
62087SOL    HW288159  14.200  13.278  10.839
62088SOL     OW88160  14.381  13.582   9.096
62088SOL    HW188161  14.452  13.538   9.143
62088SOL    HW288162  14.354  13.520   9.028
62089SOL     OW88163  12.773  11.587  10.788
62089SOL    HW188164  12.775  11.678  10.760
62089SOL    HW288165  12.713  11.585  10.862
62090SOL     OW88166   7.704  11.718   5.515
62090SOL    HW188167   7.740  11.674   5.592
62090SOL    HW288168   7.762  11.793   5.501
62091SOL     OW88169   6.885  12.063  13.307
62091SOL    HW188170   6.812  12.029  13.254
62091SOL    HW288171   6.842  12.101  13.384
62092SOL     OW88172   9.652   6.489   3.035
62092SOL    HW188173   9.619   6.423   2.975
62092SOL    HW288174   9.577   6.512   3.090
62093SOL     OW88175   2.399   0.417  12.866
62093SOL    HW188176   2.412   0.354  12.937
62093SOL    HW288177   2.351   0.367  12.799
62094SOL     OW88178   5.747   2.118   7.115
62094SOL    HW188179   5.826   2.073   7.087
62094SOL    HW288180   5.748   2.111   7.211
62095SOL     OW88181   4.635   8.978   5.969
62095SOL    HW188182   4.588   8.902   5.934
62095SOL    HW288183   4.596   9.053   5.925
62096SOL     OW88184   6.288   3.784   8.836
62096SOL    HW188185   6.274   3.784   8.741
62096SOL    HW288186   6.303   3.876   8.857
62097SOL     OW88187   8.174  10.814  13.019
62097SOL    HW188188   8.080  10.822  13.033
62097SOL    HW288189   8.188  10.722  12.997
62098SOL     OW88190   3.353  10.616   3.620
62098SOL    HW188191   3.370  10.527   3.590
62098SOL    HW288192   3.434  10.643   3.663
62099SOL     OW88193   0.393   8.818   4.666
62099SOL    HW188194   0.432   8.753   4.725
62099SOL    HW288195   0.370   8.768   4.588
62100SOL     OW88196  14.426   5.091   5.310
62100SOL    HW188197  14.410   5.185   5.296
62100SOL    HW288198  14.429   5.082   5.405
62101SOL     OW88199   8.141  14.320  10.629
62101SOL    HW188200   8.172  14.345  10.716
62101SOL    HW288201   8.130  14.403  10.582
62102SOL     OW88202   3.331   2.990   4.616
62102SOL    HW188203   3.394   3.058   4.590
62102SOL    HW288204   3.282   3.029   4.688
62103SOL     OW88205  11.598   5.066  12.771
62103SOL    HW188206  11.614   5.104  12.684
62103SOL    HW288207  11.593   4.972  12.754
62104SOL     OW88208   8.409   6.631   1.921
62104SOL    HW188209   8.353   6.560   1.951
62104SOL    HW288210   8.398   6.633   1.826
62105SOL     OW88211   0.012   5.275  10.863
62105SOL    HW188212  14.837   5.246  10.782
62105SOL    HW288213   0.106   5.262  10.846
62106SOL     OW88214  10.929  12.729  11.509
62106SOL    HW188215  10.939  12.794  11.578
62106SOL    HW288216  10.870  12.663  11.545
62107SOL     OW88217  13.242   9.804   4.065
62107SOL    HW188218  13.318   9.762   4.105
62107SOL    HW288219  13.174   9.737   4.066
62108SOL     OW88220  11.849   5.303   9.084
62108SOL    HW188221  11.861   5.228   9.026
62108SOL    HW288222  11.930   5.309   9.134
62109SOL     OW88223   6.668  12.647   2.834
62109SOL    HW188224   6.721  12.719   2.799
62109SOL    HW288225   6.731  12.581   2.861
62110SOL     OW88226   8.967  11.294   5.826
62110SOL    HW188227   8.951  11.286   5.920
62110SOL    HW288228   8.881  11.311   5.789
62111SOL     OW88229  13.416   0.227  10.032
62111SOL    HW188230  13.512   0.230  10.025
62111SOL    HW288231  13.400   0.162  10.101
62112SOL     OW88232   4.984  11.166   8.868
62112SOL    HW188233   5.037  11.097   8.908
62112SOL    HW288234   4.902  11.122   8.845
62113SOL     OW88235   5.937   1.033   5.019
62113SOL    HW188236   5.990   1.101   4.976
62113SOL    HW288237   5.864   1.018   4.958
62114SOL     OW88238   2.052   6.071  11.912
62114SOL    HW188239   2.051   6.002  11.845
62114SOL    HW288240   2.000   6.142  11.874
62115SOL     OW88241  12.876   9.142   9.901
62115SOL    HW188242  12.893   9.235   9.910
62115SOL    HW288243  12.847   9.114   9.988
62116SOL     OW88244  10.824   4.482  14.275
62116SOL    HW188245  10.891   4.413  14.272
62116SOL    HW288246  10.756   4.452  14.216
62117SOL     OW88247  10.674  11.052  10.820
62117SOL    HW188248  10.723  11.133  10.831
62117SOL    HW288249  10.582  11.079  10.820
62118SOL     OW88250   9.497  13.551   5.136
62118SOL    HW188251   9.546  13.593   5.207
62118SOL    HW288252   9.565  13.514   5.080
62119SOL     OW88253   5.716   6.580   3.520
62119SOL    HW188254   5.669   6.570   3.437
62119SOL    HW288255   5.808   6.569   3.497
62120SOL     OW88256  10.322   6.044   4.859
62120SOL    HW188257  10.232   6.075   4.845
62120SOL    HW288258  10.321   6.010   4.949
62121SOL     OW88259   2.835  10.219   7.407
62121SOL    HW188260   2.863  10.130   7.427
62121SOL    HW288261   2.760  10.235   7.465
62122SOL     OW88262  13.037  13.982   0.753
62122SOL    HW188263  12.967  14.047   0.755
62122SOL    HW288264  13.012  13.923   0.682
62123SOL     OW88265   9.978   7.002   5.377
62123SOL    HW188266  10.040   6.974   5.311
62123SOL    HW288267   9.984   7.098   5.377
62124SOL     OW88268   1.493   2.160   4.020
62124SOL    HW188269   1.463   2.165   3.929
62124SOL    HW288270   1.430   2.103   4.063
62125SOL     OW88271  11.557   9.643   1.909
62125SOL    HW188272  11.602   9.647   1.825
62125SOL    HW288273  11.585   9.559   1.947
62126SOL     OW88274   3.561  10.950  12.170
62126SOL    HW188275   3.514  10.872  12.139
62126SOL    HW288276   3.637  10.956  12.112
62127SOL     OW88277   6.833   6.815  13.604
62127SOL    HW188278   6.918   6.781  13.629
62127SOL    HW288279   6.792   6.745  13.553
62128SOL     OW88280   8.043   8.572   2.501
62128SOL    HW188281   8.095   8.499   2.535
62128SOL    HW288282   7.967   8.577   2.559
62129SOL     OW88283   2.884   3.950  13.049
62129SOL    HW188284   2.857   4.037  13.018
62129SOL    HW288285   2.837   3.938  13.131
62130SOL     OW88286  11.632   0.226   1.922
62130SOL    HW188287  11.597   0.171   1.851
62130SOL    HW288288  11.724   0.201   1.928
62131SOL     OW88289   8.338   4.243   6.858
62131SOL    HW188290   8.300   4.290   6.932
62131SOL    HW288291   8.279   4.262   6.785
62132SOL     OW88292  14.077  12.083   2.914
62132SOL    HW188293  14.139  12.126   2.974
62132SOL    HW288294  14.015  12.039   2.972
62133SOL     OW88295   1.868   4.306   5.234
62133SOL    HW188296   1.812   4.321   5.310
62133SOL    HW288297   1.911   4.390   5.218
62134SOL     OW88298   7.197   7.305   5.711
62134SOL    HW188299   7.173   7.214   5.727
62134SOL    HW288300   7.116   7.354   5.723
62135SOL     OW88301  11.817  12.605   4.721
62135SOL    HW188302  11.780  12.635   4.805
62135SOL    HW288303  11.899  12.562   4.746
62136SOL     OW88304   3.012   5.182   1.270
62136SOL    HW188305   3.030   5.276   1.265
62136SOL    HW288306   3.071   5.150   1.339
62137SOL     OW88307  14.831   9.527   7.103
62137SOL    HW188308   0.017   9.499   7.177
62137SOL    HW288309  14.809   9.445   7.058
62138SOL     OW88310   5.354   3.381  14.186
62138SOL    HW188311   5.405   3.319  14.134
62138SOL    HW288312   5.395   3.378  14.273
62139SOL     OW88313   1.174   9.359   6.346
62139SOL    HW188314   1.103   9.314   6.392
62139SOL    HW288315   1.148   9.358   6.254
62140SOL     OW88316   5.807  12.630   5.777
62140SOL    HW188317   5.735  12.651   5.836
62140SOL    HW288318   5.780  12.547   5.736
62141SOL     OW88319   3.564   2.501  13.118
62141SOL    HW188320   3.550   2.474  13.027
62141SOL    HW288321   3.659   2.508  13.126
62142SOL     OW88322   2.378   0.012  13.145
62142SOL    HW188323   2.303  14.842  13.099
62142SOL    HW288324   2.349   0.101  13.167
62143SOL     OW88325  12.570   7.567   8.640
62143SOL    HW188326  12.625   7.626   8.588
62143SOL    HW288327  12.565   7.609   8.726
62144SOL     OW88328   9.113   0.202   4.228
62144SOL    HW188329   9.131   0.145   4.153
62144SOL    HW288330   9.172   0.276   4.216
62145SOL     OW88331   9.648   5.951  10.861
62145SOL    HW188332   9.704   5.903  10.799
62145SOL    HW288333   9.587   5.999  10.806
62146SOL     OW88334   0.763   7.740   7.997
62146SOL    HW188335   0.688   7.699   7.954
62146SOL    HW288336   0.784   7.681   8.070
62147SOL     OW88337   5.222  10.787   6.456
62147SOL    HW188338   5.274  10.786   6.375
62147SOL    HW288339   5.287  10.778   6.526
62148SOL     OW88340  12.126  11.145   9.696
62148SOL    HW188341  12.196  11.195   9.656
62148SOL    HW288342  12.050  11.160   9.640
62149SOL     OW88343   3.333   9.042   9.184
62149SOL    HW188344   3.283   8.966   9.214
62149SOL    HW288345   3.268   9.096   9.138
62150SOL     OW88346   1.610   5.268   7.167
62150SOL    HW188347   1.649   5.329   7.106
62150SOL    HW288348   1.519   5.297   7.177
62151SOL     OW88349   2.596   0.635  10.719
62151SOL    HW188350   2.674   0.664  10.766
62151SOL    HW288351   2.558   0.567  10.774
62152SOL     OW88352   2.480   9.669  14.456
62152SOL    HW188353   2.567   9.644  14.489
62152SOL    HW288354   2.498   9.740  14.394
62153SOL     OW88355  14.777  11.789   4.028
62153SOL    HW188356  14.802  11.703   4.062
62153SOL    HW288357  14.844  11.809   3.962
62154SOL     OW88358   7.666   9.498   4.667
62154SOL    HW188359   7.755   9.485   4.699
62154SOL    HW288360   7.610   9.466   4.738
62155SOL     OW88361   5.100  13.891   4.531
62155SOL    HW188362   5.155  13.812   4.532
62155SOL    HW288363   5.025  13.869   4.586
62156SOL     OW88364  11.094   9.869   7.094
62156SOL    HW188365  11.163   9.934   7.109
62156SOL    HW288366  11.062   9.848   7.182
62157SOL     OW88367   0.691   8.881   2.343
62157SOL    HW188368   0.687   8.974   2.321
62157SOL    HW288369   0.723   8.839   2.263
62158SOL     OW88370   9.452   0.047   8.541
62158SOL    HW188371   9.465   0.017   8.451
62158SOL    HW288372   9.525   0.107   8.557
62159SOL     OW88373  10.771   4.087  13.015
62159SOL    HW188374  10.820   4.009  13.041
62159SOL    HW288375  10.716   4.058  12.942
62160SOL     OW88376   1.235   2.989   4.858
62160SOL    HW188377   1.141   2.983   4.840
62160SOL    HW288378   1.272   2.911   4.818
62161SOL     OW88379   1.328  10.308   6.869
62161SOL    HW188380   1.330  10.361   6.789
62161SOL    HW288381   1.420  10.293   6.890
62162SOL     OW88382   2.203   7.537  12.868
62162SOL    HW188383   2.294   7.550  12.894
62162SOL    HW288384   2.181   7.616  12.818
62163SOL     OW88385   3.636  11.414   3.556
62163SOL    HW188386   3.660  11.332   3.599
62163SOL    HW288387   3.590  11.464   3.623
62164SOL     OW88388  12.364   5.228   3.577
62164SOL    HW188389  12.374   5.134   3.564
62164SOL    HW288390  12.291   5.253   3.520
62165SOL     OW88391   6.565   6.819  10.513
62165SOL    HW188392   6.617   6.854  10.585
62165SOL    HW288393   6.553   6.726  10.534
62166SOL     OW88394   1.911   3.668   3.236
62166SOL    HW188395   1.966   3.629   3.305
62166SOL    HW288396   1.965   3.665   3.157
62167SOL     OW88397   5.425  13.828   6.252
62167SOL    HW188398   5.416  13.916   6.287
62167SOL    HW288399   5.415  13.770   6.327
62168SOL     OW88400   7.783  12.146   3.121
62168SOL    HW188401   7.786  12.080   3.052
62168SOL    HW288402   7.833  12.108   3.193
62169SOL     OW88403  10.853   5.967   6.812
62169SOL    HW188404  10.824   5.969   6.721
62169SOL    HW288405  10.799   5.899   6.853
62170SOL     OW88406   6.589  13.887   4.767
62170SOL    HW188407   6.575  13.906   4.674
62170SOL    HW288408   6.549  13.801   4.780
62171SOL     OW88409   3.375  14.178   6.845
62171SOL    HW188410   3.374  14.095   6.797
62171SOL    HW288411   3.468  14.201   6.851
62172SOL     OW88412   1.697  13.717  14.455
62172SOL    HW188413   1.718  13.698  14.363
62172SOL    HW288414   1.678  13.632  14.494
62173SOL     OW88415   6.239   7.720   4.882
62173SOL    HW188416   6.171   7.781   4.910
62173SOL    HW288417   6.193   7.658   4.826
62174SOL     OW88418   8.535   1.739  10.450
62174SOL    HW188419   8.564   1.656  10.414
62174SOL    HW288420   8.531   1.798  10.374
62175SOL     OW88421   3.043  12.560   9.049
62175SOL    HW188422   3.069  12.600   8.966
62175SOL    HW288423   3.032  12.633   9.108
62176SOL     OW88424  11.900   9.724   6.615
62176SOL    HW188425  11.871   9.638   6.584
62176SOL    HW288426  11.829   9.753   6.672
62177SOL     OW88427   7.953   3.063   3.121
62177SOL    HW188428   7.923   3.102   3.204
62177SOL    HW288429   8.041   3.100   3.109
62178SOL     OW88430  11.489  11.585   6.739
62178SOL    HW188431  11.542  11.643   6.793
62178SOL    HW288432  11.405  11.631   6.730
62179SOL     OW88433   1.807   6.781   2.473
62179SOL    HW188434   1.875   6.844   2.448
62179SOL    HW288435   1.801   6.722   2.398
62180SOL     OW88436   9.939   6.382   1.092
62180SOL    HW188437   9.995   6.429   1.029
62180SOL    HW288438   9.850   6.407   1.067
62181SOL     OW88439   3.194   2.577  13.904
62181SOL    HW188440   3.288   2.571  13.918
62181SOL    HW288441   3.174   2.503  13.845
62182SOL     OW88442   3.680   1.979  13.170
62182SOL    HW188443   3.653   1.927  13.245
62182SOL    HW288444   3.693   2.067  13.205
62183SOL     OW88445   7.103  11.445   9.392
62183SOL    HW188446   7.124  11.365   9.344
62183SOL    HW288447   7.007  11.443   9.400
62184SOL     OW88448   6.638   8.452   8.696
62184SOL    HW188449   6.565   8.408   8.653
62184SOL    HW288450   6.669   8.390   8.762
62185SOL     OW88451   6.469   2.212   7.322
62185SOL    HW188452   6.410   2.166   7.262
62185SOL    HW288453   6.525   2.143   7.357
62186SOL     OW88454   7.660   5.517   6.417
62186SOL    HW188455   7.743   5.482   6.450
62186SOL    HW288456   7.632   5.580   6.483
62187SOL     OW88457   3.923  10.722  12.408
62187SOL    HW188458   3.976  10.763  12.340
62187SOL    HW288459   3.841  10.698  12.365
62188SOL     OW88460  13.681   0.638  12.061
62188SOL    HW188461  13.722   0.703  12.003
62188SOL    HW288462  13.669   0.561  12.005
62189SOL     OW88463  12.469   0.906   1.883
62189SOL    HW188464  12.520   0.863   1.814
62189SOL    HW288465  12.459   0.996   1.853
62190SOL     OW88466   5.137   2.877  12.050
62190SOL    HW188467   5.102   2.833  12.127
62190SOL    HW288468   5.070   2.864  11.983
62191SOL     OW88469  14.168   2.508   1.965
62191SOL    HW188470  14.078   2.476   1.964
62191SOL    HW288471  14.165   2.588   1.912
62192SOL     OW88472   3.817   5.285   8.476
62192SOL    HW188473   3.894   5.281   8.533
62192SOL    HW288474   3.807   5.197   8.442
62193SOL     OW88475   8.182   1.385  14.172
62193SOL    HW188476   8.131   1.352  14.097
62193SOL    HW288477   8.115   1.411  14.236
62194SOL     OW88478  12.992  11.258   3.019
62194SOL    HW188479  12.938  11.303   3.084
62194SOL    HW288480  12.931  11.202   2.972
62195SOL     OW88481   7.933   6.210   2.209
62195SOL    HW188482   7.875   6.155   2.157
62195SOL    HW288483   8.021   6.189   2.177
62196SOL     OW88484  11.289   6.552   2.786
62196SOL    HW188485  11.354   6.490   2.754
62196SOL    HW288486  11.307   6.633   2.740
62197SOL     OW88487   7.850  13.296   3.722
62197SOL    HW188488   7.933  13.321   3.763
62197SOL    HW288489   7.834  13.207   3.754
62198SOL     OW88490  10.522   3.520   9.043
62198SOL    HW188491  10.616   3.520   9.063
62198SOL    HW288492  10.505   3.605   9.003
62199SOL     OW88493   9.141  12.671   8.229
62199SOL    HW188494   9.176  12.595   8.182
62199SOL    HW288495   9.135  12.642   8.320
62200SOL     OW88496   7.016   7.671   5.573
62200SOL    HW188497   7.063   7.720   5.506
62200SOL    HW288498   6.947   7.731   5.602
62201SOL     OW88499  12.841  11.151   5.820
62201SOL    HW188500  12.915  11.134   5.762
62201SOL    HW288501  12.774  11.087   5.794
62202SOL     OW88502   9.320   0.604   0.046
62202SOL    HW188503   9.347   0.696   0.046
62202SOL    HW288504   9.356   0.568  14.833
62203SOL     OW88505   8.778   3.228  10.331
62203SOL    HW188506   8.771   3.229  10.235
62203SOL    HW288507   8.782   3.135  10.353
62204SOL     OW88508   6.720   6.428  11.010
62204SOL    HW188509   6.803   6.383  11.027
62204SOL    HW288510   6.673   6.424  11.093
62205SOL     OW88511   3.011   4.214   2.422
62205SOL    HW188512   3.006   4.124   2.389
62205SOL    HW288513   3.092   4.249   2.385
62206SOL     OW88514  11.562  12.304  14.614
62206SOL    HW188515  11.655  12.282  14.621
62206SOL    HW288516  11.537  12.328  14.703
62207SOL     OW88517  12.390  12.402   1.286
62207SOL    HW188518  12.407  12.312   1.261
62207SOL    HW288519  12.433  12.454   1.218
62208SOL     OW88520   0.517   0.611   4.640
62208SOL    HW188521   0.516   0.542   4.575
62208SOL    HW288522   0.609   0.633   4.652
62209SOL     OW88523   3.845   9.023   0.991
62209SOL    HW188524   3.804   9.109   0.988
62209SOL    HW288525   3.887   9.020   1.077
62210SOL     OW88526  10.903   2.103   3.849
62210SOL    HW188527  10.897   2.192   3.882
62210SOL    HW288528  10.824   2.090   3.797
62211SOL     OW88529  14.468   7.810   2.423
62211SOL    HW188530  14.377   7.783   2.438
62211SOL    HW288531  14.513   7.786   2.504
62212SOL     OW88532   6.593   2.789   6.439
62212SOL    HW188533   6.682   2.796   6.473
62212SOL    HW288534   6.595   2.711   6.383
62213SOL     OW88535   4.557   9.126  10.962
62213SOL    HW188536   4.472   9.154  10.928
62213SOL    HW288537   4.614   9.201  10.947
62214SOL     OW88538   3.681  13.641   6.638
62214SOL    HW188539   3.647  13.729   6.618
62214SOL    HW288540   3.770  13.642   6.603
62215SOL     OW88541   1.902   7.496   0.046
62215SOL    HW188542   1.910   7.590   0.060
62215SOL    HW288543   1.851   7.488  14.833
62216SOL     OW88544   6.948   1.409   3.059
62216SOL    HW188545   6.924   1.396   3.150
62216SOL    HW288546   6.873   1.377   3.009
62217SOL     OW88547   2.293  14.838   9.945
62217SOL    HW188548   2.386  14.823   9.961
62217SOL    HW288549   2.252  14.821  10.030
62218SOL     OW88550   1.064  12.467   8.269
62218SOL    HW188551   1.000  12.444   8.201
62218SOL    HW288552   1.076  12.561   8.260
62219SOL     OW88553   6.712   1.327   2.971
62219SOL    HW188554   6.626   1.350   3.007
62219SOL    HW288555   6.700   1.240   2.934
62220SOL     OW88556  10.802   8.954  12.856
62220SOL    HW188557  10.780   9.044  12.880
62220SOL    HW288558  10.718   8.908  12.854
62221SOL     OW88559  12.818   0.980  13.755
62221SOL    HW188560  12.789   1.038  13.825
62221SOL    HW288561  12.862   1.038  13.692
62222SOL     OW88562  13.770  13.831  14.251
62222SOL    HW188563  13.713  13.804  14.323
62222SOL    HW288564  13.848  13.777  14.260
62223SOL     OW88565   7.669   9.751   8.112
62223SOL    HW188566   7.684   9.660   8.136
62223SOL    HW288567   7.591   9.750   8.057
62224SOL     OW88568   9.680   9.178   5.480
62224SOL    HW188569   9.663   9.205   5.390
62224SOL    HW288570   9.744   9.242   5.512
62225SOL     OW88571   5.216   6.457  10.999
62225SOL    HW188572   5.185   6.517  10.931
62225SOL    HW288573   5.139   6.407  11.025
62226SOL     OW88574   2.921  11.611   9.633
62226SOL    HW188575   2.989  11.562   9.679
62226SOL    HW288576   2.969  11.671   9.576
62227SOL     OW88577   6.594   3.354  14.062
62227SOL    HW188578   6.507   3.393  14.067
62227SOL    HW288579   6.606   3.330  13.970
62228SOL     OW88580   8.009   8.855   7.695
62228SOL    HW188581   7.988   8.865   7.602
62228SOL    HW288582   7.975   8.936   7.736
62229SOL     OW88583   2.296   7.187  11.206
62229SOL    HW188584   2.202   7.201  11.200
62229SOL    HW288585   2.328   7.197  11.116
62230SOL     OW88586   5.335   8.111   8.342
62230SOL    HW188587   5.276   8.104   8.418
62230SOL    HW288588   5.416   8.147   8.378
62231SOL     OW88589  13.338   5.821   9.668
62231SOL    HW188590  13.334   5.733   9.629
62231SOL    HW288591  13.260   5.825   9.724
62232SOL     OW88592   9.222   5.704   7.895
62232SOL    HW188593   9.146   5.658   7.859
62232SOL    HW288594   9.295   5.645   7.879
62233SOL     OW88595  10.185   3.259  12.398
62233SOL    HW188596  10.141   3.213  12.469
62233SOL    HW288597  10.270   3.282  12.433
62234SOL     OW88598   4.084   9.219   0.042
62234SOL    HW188599   4.075   9.287   0.110
62234SOL    HW288600   4.109   9.140   0.091
62235SOL     OW88601  11.987   6.295   1.603
62235SOL    HW188602  11.955   6.363   1.662
62235SOL    HW288603  12.033   6.233   1.660
62236SOL     OW88604  14.865   8.874  13.524
62236SOL    HW188605  14.802   8.804  13.505
62236SOL    HW288606   0.066   8.862  13.458
62237SOL     OW88607   7.354   8.683   0.134
62237SOL    HW188608   7.435   8.731   0.121
62237SOL    HW288609   7.296   8.744   0.178
62238SOL     OW88610   8.601   0.775   7.236
62238SOL    HW188611   8.545   0.845   7.270
62238SOL    HW288612   8.678   0.821   7.202
62239SOL     OW88613   5.697  11.006  13.274
62239SOL    HW188614   5.686  10.954  13.354
62239SOL    HW288615   5.610  11.044  13.259
62240SOL     OW88616  12.040   8.637   2.693
62240SOL    HW188617  12.006   8.594   2.772
62240SOL    HW288618  12.121   8.589   2.673
62241SOL     OW88619   2.107   8.865   6.452
62241SOL    HW188620   2.191   8.890   6.491
62241SOL    HW288621   2.107   8.907   6.366
62242SOL     OW88622   7.329  13.805   9.322
62242SOL    HW188623   7.351  13.717   9.354
62242SOL    HW288624   7.410  13.838   9.285
62243SOL     OW88625   4.355   7.428  11.344
62243SOL    HW188626   4.280   7.471  11.385
62243SOL    HW288627   4.414   7.409  11.416
62244SOL     OW88628   2.583   4.959   9.900
62244SOL    HW188629   2.562   4.911   9.980
62244SOL    HW288630   2.516   5.027   9.894
62245SOL     OW88631  12.334  14.370   3.593
62245SOL    HW188632  12.247  14.337   3.572
62245SOL    HW288633  12.358  14.324   3.674
62246SOL     OW88634   9.229   6.872  14.438
62246SOL    HW188635   9.317   6.881  14.475
62246SOL    HW288636   9.220   6.946  14.378
62247SOL     OW88637   5.233   0.295  14.530
62247SOL    HW188638   5.182   0.273  14.451
62247SOL    HW288639   5.168   0.299  14.600
62248SOL     OW88640  13.019   8.034  11.669
62248SOL    HW188641  13.054   8.020  11.757
62248SOL    HW288642  12.925   8.049  11.683
62249SOL     OW88643   1.693   4.009   0.824
62249SOL    HW188644   1.715   3.995   0.916
62249SOL    HW288645   1.777   4.002   0.778
62250SOL     OW88646  12.893   2.376   6.266
62250SOL    HW188647  12.825   2.443   6.265
62250SOL    HW288648  12.969   2.418   6.225
62251SOL     OW88649  13.207  14.112  11.791
62251SOL    HW188650  13.163  14.177  11.737
62251SOL    HW288651  13.159  14.112  11.873
62252SOL     OW88652   3.476  11.816   7.463
62252SOL    HW188653   3.398  11.845   7.416
62252SOL    HW288654   3.541  11.801   7.394
62253SOL     OW88655   6.797  11.824   8.990
62253SOL    HW188656   6.830  11.847   9.077
62253SOL    HW288657   6.709  11.862   8.987
62254SOL     OW88658  13.104  10.650  10.175
62254SOL    HW188659  13.019  10.676  10.138
62254SOL    HW288660  13.168  10.689  10.116
62255SOL     OW88661  14.436   7.368   4.271
62255SOL    HW188662  14.387   7.287   4.260
62255SOL    HW288663  14.527   7.344   4.255
62256SOL     OW88664   3.860   3.332   0.771
62256SOL    HW188665   3.811   3.265   0.819
62256SOL    HW288666   3.832   3.415   0.810
62257SOL     OW88667  12.711   9.361  13.819
62257SOL    HW188668  12.665   9.359  13.903
62257SOL    HW288669  12.719   9.270  13.794
62258SOL     OW88670   9.255   3.475  14.476
62258SOL    HW188671   9.340   3.507  14.445
62258SOL    HW288672   9.192   3.539  14.443
62259SOL     OW88673  10.824  10.058   4.068
62259SOL    HW188674  10.730  10.048   4.050
62259SOL    HW288675  10.834  10.030   4.159
62260SOL     OW88676   5.824   5.418   6.695
62260SOL    HW188677   5.887   5.360   6.653
62260SOL    HW288678   5.842   5.409   6.789
62261SOL     OW88679  10.497   6.295   8.676
62261SOL    HW188680  10.426   6.358   8.666
62261SOL    HW288681  10.485   6.259   8.764
62262SOL     OW88682  14.718   3.316   2.465
62262SOL    HW188683  14.632   3.287   2.496
62262SOL    HW288684  14.779   3.251   2.500
62263SOL     OW88685  14.744   1.144  14.565
62263SOL    HW188686  14.667   1.097  14.533
62263SOL    HW288687  14.802   1.149  14.489
62264SOL     OW88688  11.662   9.905   1.455
62264SOL    HW188689  11.705   9.990   1.466
62264SOL    HW288690  11.583   9.925   1.404
62265SOL     OW88691  12.344  10.705   2.460
62265SOL    HW188692  12.334  10.774   2.394
62265SOL    HW288693  12.358  10.753   2.542
62266SOL     OW88694   8.584  12.712   7.746
62266SOL    HW188695   8.506  12.657   7.761
62266SOL    HW288696   8.656  12.662   7.785
62267SOL     OW88697   7.265   0.014   3.408
62267SOL    HW188698   7.237   0.037   3.320
62267SOL    HW288699   7.216   0.074   3.465
62268SOL     OW88700   0.729   1.690  10.233
62268SOL    HW188701   0.746   1.710  10.141
62268SOL    HW288702   0.751   1.598  10.243
62269SOL     OW88703  14.070   5.775   6.011
62269SOL    HW188704  14.157   5.736   6.011
62269SOL    HW288705  14.045   5.780   6.104
62270SOL     OW88706   3.621   2.119   7.323
62270SOL    HW188707   3.668   2.196   7.354
62270SOL    HW288708   3.552   2.106   7.388
62271SOL     OW88709   6.267   0.130   2.661
62271SOL    HW188710   6.178   0.108   2.634
62271SOL    HW288711   6.279   0.221   2.633
62272SOL     OW88712   0.227   2.579  10.387
62272SOL    HW188713   0.307   2.550  10.342
62272SOL    HW288714   0.159   2.519  10.355
62273SOL     OW88715   5.566  10.585  10.865
62273SOL    HW188716   5.525  10.511  10.910
62273SOL    HW288717   5.568  10.655  10.931
62274SOL     OW88718   0.272   0.728   0.867
62274SOL    HW188719   0.222   0.670   0.924
62274SOL    HW288720   0.208   0.759   0.803
62275SOL     OW88721   4.549   2.823   5.998
62275SOL    HW188722   4.516   2.785   6.079
62275SOL    HW288723   4.632   2.779   5.983
62276SOL     OW88724  12.552   0.761   3.174
62276SOL    HW188725  12.597   0.801   3.249
62276SOL    HW288726  12.580   0.813   3.099
62277SOL     OW88727   4.373  14.268   5.823
62277SOL    HW188728   4.284  14.263   5.789
62277SOL    HW288729   4.373  14.210   5.899
62278SOL     OW88730   6.470   7.683   3.596
62278SOL    HW188731   6.453   7.687   3.690
62278SOL    HW288732   6.392   7.721   3.556
62279SOL     OW88733   0.436  10.208   7.850
62279SOL    HW188734   0.365  10.263   7.884
62279SOL    HW288735   0.499  10.203   7.923
62280SOL     OW88736   3.785   3.671   9.818
62280SOL    HW188737   3.836   3.718   9.884
62280SOL    HW288738   3.716   3.733   9.793
62281SOL     OW88739   9.689  13.637   5.305
62281SOL    HW188740   9.766  13.585   5.280
62281SOL    HW288741   9.646  13.584   5.372
62282SOL     OW88742   0.617   3.972   8.710
62282SOL    HW188743   0.686   4.038   8.706
62282SOL    HW288744   0.549   4.005   8.651
62283SOL     OW88745  14.719   0.607   7.943
62283SOL    HW188746  14.712   0.680   8.005
62283SOL    HW288747  14.633   0.602   7.902
62284SOL     OW88748   8.551   0.400   4.287
62284SOL    HW188749   8.500   0.329   4.326
62284SOL    HW288750   8.639   0.365   4.279
62285SOL     OW88751   3.776  12.679  13.528
62285SOL    HW188752   3.764  12.594  13.486
62285SOL    HW288753   3.688  12.709  13.549
62286SOL     OW88754   3.193   5.560  13.504
62286SOL    HW188755   3.100   5.579  13.522
62286SOL    HW288756   3.235   5.646  13.505
62287SOL     OW88757  10.459  13.864  11.891
62287SOL    HW188758  10.375  13.825  11.867
62287SOL    HW288759  10.455  13.870  11.986
62288SOL     OW88760   4.414   6.131  12.364
62288SOL    HW188761   4.424   6.204  12.303
62288SOL    HW288762   4.426   6.171  12.451
62289SOL     OW88763   7.584  11.570   8.384
62289SOL    HW188764   7.638  11.517   8.442
62289SOL    HW288765   7.577  11.519   8.303
62290SOL     OW88766   2.179   4.826   4.439
62290SOL    HW188767   2.221   4.743   4.460
62290SOL    HW288768   2.245   4.873   4.387
62291SOL     OW88769  11.527  11.809  14.034
62291SOL    HW188770  11.603  11.857  14.067
62291SOL    HW288771  11.503  11.855  13.953
62292SOL     OW88772   8.351  11.977   3.237
62292SOL    HW188773   8.391  12.056   3.271
62292SOL    HW288774   8.378  11.908   3.297
62293SOL     OW88775   4.614   5.460  10.387
62293SOL    HW188776   4.700   5.421  10.375
62293SOL    HW288777   4.602   5.516  10.310
62294SOL     OW88778  10.259   4.496  13.506
62294SOL    HW188779  10.244   4.429  13.572
62294SOL    HW288780  10.313   4.562  13.551
62295SOL     OW88781  10.574   5.870   6.438
62295SOL    HW188782  10.556   5.794   6.493
62295SOL    HW288783  10.564   5.838   6.348
62296SOL     OW88784  12.414   9.224   5.938
62296SOL    HW188785  12.488   9.184   5.892
62296SOL    HW288786  12.337   9.194   5.891
62297SOL     OW88787   1.766   5.845  13.144
62297SOL    HW188788   1.790   5.805  13.061
62297SOL    HW288789   1.684   5.803  13.169
62298SOL     OW88790  11.294  10.752   3.480
62298SOL    HW188791  11.219  10.807   3.458
62298SOL    HW288792  11.339  10.800   3.549
62299SOL     OW88793  13.382   7.027  11.889
62299SOL    HW188794  13.360   6.962  11.822
62299SOL    HW288795  13.404   6.975  11.966
62300SOL     OW88796  14.209   4.170   6.426
62300SOL    HW188797  14.166   4.234   6.368
62300SOL    HW288798  14.147   4.158   6.497
62301SOL     OW88799   9.980   4.557   2.566
62301SOL    HW188800  10.068   4.521   2.554
62301SOL    HW288801   9.994   4.650   2.584
62302SOL     OW88802   6.128  10.546  10.685
62302SOL    HW188803   6.051  10.507  10.643
62302SOL    HW288804   6.110  10.540  10.778
62303SOL     OW88805   3.122   3.169  13.543
62303SOL    HW188806   3.053   3.111  13.513
62303SOL    HW288807   3.195   3.111  13.566
62304SOL     OW88808  12.043  14.150   1.980
62304SOL    HW188809  11.977  14.203   2.025
62304SOL    HW288810  12.121  14.157   2.035
62305SOL     OW88811   6.923  12.704   8.338
62305SOL    HW188812   6.894  12.629   8.389
62305SOL    HW288813   7.018  12.707   8.352
62306SOL     OW88814  10.672   5.025   8.513
62306SOL    HW188815  10.599   5.010   8.452
62306SOL    HW288816  10.667   5.119   8.533
62307SOL     OW88817   7.589   5.377  14.605
62307SOL    HW188818   7.538   5.449  14.642
62307SOL    HW288819   7.553   5.365  14.517
62308SOL     OW88820  11.348  14.793   4.116
62308SOL    HW188821  11.404   0.002   4.119
62308SOL    HW288822  11.340  14.773   4.023
62309SOL     OW88823   9.523   2.780   5.672
62309SOL    HW188824   9.546   2.723   5.599
62309SOL    HW288825   9.438   2.749   5.703
62310SOL     OW88826  14.705   2.350   8.642
62310SOL    HW188827  14.737   2.383   8.726
62310SOL    HW288828  14.712   2.425   8.583
62311SOL     OW88829   6.726   0.356  14.460
62311SOL    HW188830   6.787   0.424  14.489
62311SOL    HW288831   6.748   0.341  14.368
62312SOL     OW88832  12.218   5.031   3.901
62312SOL    HW188833  12.166   5.092   3.849
62312SOL    HW288834  12.261   4.975   3.837
62313SOL     OW88835   2.952   6.721  10.254
62313SOL    HW188836   2.862   6.754  10.263
62313SOL    HW288837   2.987   6.765  10.177
62314SOL     OW88838   9.507   9.809  14.052
62314SOL    HW188839   9.476   9.745  13.988
62314SOL    HW288840   9.427   9.839  14.096
62315SOL     OW88841   6.369  12.831  11.017
62315SOL    HW188842   6.433  12.786  10.962
62315SOL    HW288843   6.284  12.806  10.980
62316SOL     OW88844   7.074   8.830   7.581
62316SOL    HW188845   7.158   8.844   7.625
62316SOL    HW288846   7.070   8.735   7.568
62317SOL     OW88847  11.584   1.959   3.514
62317SOL    HW188848  11.654   1.935   3.576
62317SOL    HW288849  11.503   1.934   3.558
62318SOL     OW88850   0.825   5.787  10.229
62318SOL    HW188851   0.894   5.852  10.246
62318SOL    HW288852   0.780   5.821  10.151
62319SOL     OW88853   6.598   8.954   5.509
62319SOL    HW188854   6.573   8.864   5.530
62319SOL    HW288855   6.537   9.008   5.559
62320SOL     OW88856   9.388  10.491  14.236
62320SOL    HW188857   9.405  10.551  14.164
62320SOL    HW288858   9.451  10.420  14.224
62321SOL     OW88859  14.757   2.031   5.729
62321SOL    HW188860  14.844   1.990   5.732
62321SOL    HW288861  14.764   2.106   5.789
62322SOL     OW88862   5.929  11.723   0.650
62322SOL    HW188863   5.985  11.765   0.584
62322SOL    HW288864   5.855  11.689   0.600
62323SOL     OW88865  12.124   5.295   7.076
62323SOL    HW188866  12.163   5.208   7.087
62323SOL    HW288867  12.134   5.337   7.161
62324SOL     OW88868   6.434   1.922   5.497
62324SOL    HW188869   6.394   1.915   5.584
62324SOL    HW288870   6.528   1.919   5.513
62325SOL     OW88871   2.551  14.600  12.889
62325SOL    HW188872   2.622  14.537  12.903
62325SOL    HW288873   2.588  14.684  12.917
62326SOL     OW88874  10.103   8.541  12.350
62326SOL    HW188875  10.056   8.580  12.276
62326SOL    HW288876  10.157   8.473  12.310
62327SOL     OW88877   4.062   7.917   4.045
62327SOL    HW188878   4.139   7.969   4.071
62327SOL    HW288879   4.027   7.884   4.128
62328SOL     OW88880   4.342  13.800   4.064
62328SOL    HW188881   4.377  13.840   4.143
62328SOL    HW288882   4.413  13.744   4.032
62329SOL     OW88883   6.603   7.421   3.093
62329SOL    HW188884   6.581   7.504   3.136
62329SOL    HW288885   6.640   7.367   3.162
62330SOL     OW88886   8.269   9.454   5.840
62330SOL    HW188887   8.195   9.406   5.876
62330SOL    HW288888   8.328   9.467   5.913
62331SOL     OW88889   6.762  14.769   0.816
62331SOL    HW188890   6.768  14.690   0.869
62331SOL    HW288891   6.708  14.744   0.740
62332SOL     OW88892  10.742   4.747  10.896
62332SOL    HW188893  10.796   4.687  10.846
62332SOL    HW288894  10.773   4.739  10.986
62333SOL     OW88895  10.044   2.011   0.307
62333SOL    HW188896  10.057   1.922   0.274
62333SOL    HW288897  10.056   2.003   0.401
62334SOL     OW88898  12.946   0.043   9.874
62334SOL    HW188899  12.876   0.108   9.864
62334SOL    HW288900  12.909  14.831   9.838
62335SOL     OW88901  10.610   0.732  12.958
62335SOL    HW188902  10.519   0.756  12.941
62335SOL    HW288903  10.640   0.795  13.023
62336SOL     OW88904   0.712   2.778   9.909
62336SOL    HW188905   0.793   2.729   9.923
62336SOL    HW288906   0.709   2.841   9.980
62337SOL     OW88907  14.418   5.425   5.527
62337SOL    HW188908  14.505   5.386   5.534
62337SOL    HW288909  14.375   5.379   5.456
62338SOL     OW88910  13.196   6.077   5.679
62338SOL    HW188911  13.153   5.993   5.665
62338SOL    HW288912  13.126   6.142   5.669
62339SOL     OW88913   3.648   1.622   1.868
62339SOL    HW188914   3.562   1.656   1.843
62339SOL    HW288915   3.657   1.646   1.960
62340SOL     OW88916   1.353   3.528   2.487
62340SOL    HW188917   1.351   3.526   2.391
62340SOL    HW288918   1.405   3.451   2.511
62341SOL     OW88919  13.207   3.515   4.534
62341SOL    HW188920  13.255   3.464   4.598
62341SOL    HW288921  13.147   3.453   4.493
62342SOL     OW88922  13.214  13.406  10.352
62342SOL    HW188923  13.132  13.422  10.399
62342SOL    HW288924  13.283  13.426  10.416
62343SOL     OW88925   3.535   0.913   0.250
62343SOL    HW188926   3.581   0.901   0.167
62343SOL    HW288927   3.499   0.827   0.270
62344SOL     OW88928  12.693  12.448   7.644
62344SOL    HW188929  12.621  12.467   7.703
62344SOL    HW288930  12.772  12.462   7.696
62345SOL     OW88931   0.116  10.604  12.856
62345SOL    HW188932   0.092  10.567  12.941
62345SOL    HW288933   0.172  10.679  12.877
62346SOL     OW88934  11.826   7.375  13.266
62346SOL    HW188935  11.773   7.446  13.229
62346SOL    HW288936  11.792   7.364  13.355
62347SOL     OW88937  14.525   2.383   8.273
62347SOL    HW188938  14.459   2.314   8.284
62347SOL    HW288939  14.495   2.454   8.330
62348SOL     OW88940   3.140   1.633   1.997
62348SOL    HW188941   3.186   1.551   1.978
62348SOL    HW288942   3.137   1.679   1.913
62349SOL     OW88943   7.814   9.756   0.844
62349SOL    HW188944   7.771   9.738   0.760
62349SOL    HW288945   7.872   9.681   0.858
62350SOL     OW88946  13.534  10.258   6.238
62350SOL    HW188947  13.600  10.245   6.170
62350SOL    HW288948  13.512  10.169   6.267
62351SOL     OW88949   3.179   4.660   0.499
62351SOL    HW188950   3.200   4.617   0.582
62351SOL    HW288951   3.133   4.593   0.448
62352SOL     OW88952   4.545  13.304   7.740
62352SOL    HW188953   4.499  13.239   7.793
62352SOL    HW288954   4.515  13.288   7.650
62353SOL     OW88955   1.271   7.033   1.959
62353SOL    HW188956   1.290   7.109   1.903
62353SOL    HW288957   1.176   7.029   1.962
62354SOL     OW88958  11.230  10.279   7.713
62354SOL    HW188959  11.238  10.185   7.731
62354SOL    HW288960  11.195  10.316   7.794
62355SOL     OW88961  10.214   4.611   0.687
62355SOL    HW188962  10.293   4.593   0.736
62355SOL    HW288963  10.220   4.555   0.609
62356SOL     OW88964  14.146   2.579   5.525
62356SOL    HW188965  14.133   2.499   5.575
62356SOL    HW288966  14.057   2.608   5.504
62357SOL     OW88967   1.457  12.564  10.835
62357SOL    HW188968   1.480  12.650  10.799
62357SOL    HW288969   1.364  12.571  10.857
62358SOL     OW88970   7.263   7.605   4.857
62358SOL    HW188971   7.233   7.690   4.826
62358SOL    HW288972   7.219   7.542   4.800
62359SOL     OW88973   9.117   1.586  12.826
62359SOL    HW188974   9.136   1.492  12.825
62359SOL    HW288975   9.116   1.610  12.918
62360SOL     OW88976  11.679  13.942   6.545
62360SOL    HW188977  11.733  14.019   6.565
62360SOL    HW288978  11.741  13.869   6.544
62361SOL     OW88979  11.280  10.347   6.039
62361SOL    HW188980  11.246  10.410   6.103
62361SOL    HW288981  11.204  10.322   5.987
62362SOL     OW88982  12.545   0.757   7.931
62362SOL    HW188983  12.618   0.724   7.983
62362SOL    HW288984  12.522   0.684   7.873
62363SOL     OW88985  13.716   7.382   9.580
62363SOL    HW188986  13.732   7.454   9.642
62363SOL    HW288987  13.782   7.394   9.513
62364SOL     OW88988  11.730  14.403   0.846
62364SOL    HW188989  11.825  14.391   0.854
62364SOL    HW288990  11.696  14.386   0.934
62365SOL     OW88991   7.190   6.536   6.982
62365SOL    HW188992   7.150   6.488   7.055
62365SOL    HW288993   7.127   6.526   6.910
62366SOL     OW88994   8.243   2.560   8.561
62366SOL    HW188995   8.298   2.616   8.616
62366SOL    HW288996   8.204   2.497   8.622
62367SOL     OW88997   9.934  14.263  11.647
62367SOL    HW188998   9.844  14.258  11.679
62367SOL    HW288999   9.939  14.348  11.604
62368SOL     OW89000   6.234  11.515  12.859
62368SOL    HW189001   6.187  11.444  12.903
62368SOL    HW289002   6.264  11.571  12.931
62369SOL     OW89003  14.089   4.926   5.115
62369SOL    HW189004  14.174   4.882   5.119
62369SOL    HW289005  14.025   4.856   5.103
62370SOL     OW89006   0.183  10.567   8.981
62370SOL    HW189007   0.252  10.598   9.041
62370SOL    HW289008   0.152  10.486   9.021
62371SOL     OW89009  10.447   7.477  12.612
62371SOL    HW189010  10.354   7.464  12.632
62371SOL    HW289011  10.469   7.405  12.553
62372SOL     OW89012   1.992   2.836   3.788
62372SOL    HW189013   2.070   2.886   3.813
62372SOL    HW289014   2.003   2.820   3.694
62373SOL     OW89015  11.673  12.726  11.356
62373SOL    HW189016  11.642  12.656  11.299
62373SOL    HW289017  11.623  12.716  11.437
62374SOL     OW89018  11.353   1.598  13.284
62374SOL    HW189019  11.310   1.526  13.237
62374SOL    HW289020  11.440   1.603  13.246
62375SOL     OW89021  12.560  11.314   8.636
62375SOL    HW189022  12.633  11.255   8.619
62375SOL    HW289023  12.485  11.272   8.593
62376SOL     OW89024   1.798   4.933  13.872
62376SOL    HW189025   1.825   4.843  13.852
62376SOL    HW289026   1.880   4.981  13.882
62377SOL     OW89027  11.285   6.243   8.134
62377SOL    HW189028  11.250   6.186   8.066
62377SOL    HW289029  11.367   6.202   8.160
62378SOL     OW89030  14.390  14.663   2.652
62378SOL    HW189031  14.470  14.695   2.694
62378SOL    HW289032  14.319  14.712   2.693
62379SOL     OW89033   0.657  11.428  11.980
62379SOL    HW189034   0.675  11.341  12.015
62379SOL    HW289035   0.596  11.467  12.043
62380SOL     OW89036  10.077  13.439  14.182
62380SOL    HW189037  10.000  13.388  14.208
62380SOL    HW289038  10.149  13.403  14.234
62381SOL     OW89039   7.447   6.974   1.078
62381SOL    HW189040   7.503   6.983   1.001
62381SOL    HW289041   7.363   7.010   1.050
62382SOL     OW89042   2.676  12.547  11.360
62382SOL    HW189043   2.632  12.474  11.317
62382SOL    HW289044   2.712  12.508  11.440
62383SOL     OW89045   6.432   8.394  10.314
62383SOL    HW189046   6.517   8.351  10.312
62383SOL    HW289047   6.453   8.488  10.309
62384SOL     OW89048   4.019  11.540  13.779
62384SOL    HW189049   4.096  11.591  13.753
62384SOL    HW289050   4.034  11.453  13.742
62385SOL     OW89051  14.721   8.791   4.825
62385SOL    HW189052  14.795   8.823   4.773
62385SOL    HW289053  14.685   8.869   4.867
62386SOL     OW89054  10.819  14.713   2.525
62386SOL    HW189055  10.829  14.622   2.499
62386SOL    HW289056  10.757  14.749   2.462
62387SOL     OW89057   4.921  10.818   7.261
62387SOL    HW189058   4.941  10.785   7.348
62387SOL    HW289059   4.995  10.875   7.238
62388SOL     OW89060   6.062   3.741   5.868
62388SOL    HW189061   6.060   3.658   5.916
62388SOL    HW289062   6.029   3.806   5.930
62389SOL     OW89063   4.521   2.329   7.657
62389SOL    HW189064   4.490   2.416   7.681
62389SOL    HW289065   4.590   2.309   7.721
62390SOL     OW89066  10.269   9.855   0.563
62390SOL    HW189067  10.303   9.936   0.602
62390SOL    HW289068  10.316   9.785   0.609
62391SOL     OW89069  12.273  13.870   2.649
62391SOL    HW189070  12.181  13.896   2.653
62391SOL    HW289071  12.297  13.882   2.558
62392SOL     OW89072   0.688  11.554   3.487
62392SOL    HW189073   0.742  11.494   3.437
62392SOL    HW289074   0.694  11.637   3.440
62393SOL     OW89075   3.811   3.892   3.861
62393SOL    HW189076   3.782   3.927   3.945
62393SOL    HW289077   3.852   3.808   3.882
62394SOL     OW89078   8.570   1.754   8.173
62394SOL    HW189079   8.539   1.843   8.190
62394SOL    HW289080   8.591   1.719   8.260
62395SOL     OW89081  11.871  11.279   8.344
62395SOL    HW189082  11.910  11.305   8.427
62395SOL    HW289083  11.944  11.247   8.291
62396SOL     OW89084   4.787   6.398   6.181
62396SOL    HW189085   4.873   6.439   6.175
62396SOL    HW289086   4.804   6.304   6.172
62397SOL     OW89087   5.085   2.916   7.308
62397SOL    HW189088   5.180   2.928   7.305
62397SOL    HW289089   5.064   2.914   7.402
62398SOL     OW89090   8.093   0.316   0.395
62398SOL    HW189091   8.086   0.338   0.488
62398SOL    HW289092   8.163   0.251   0.391
62399SOL     OW89093   8.916  13.211  14.559
62399SOL    HW189094   8.911  13.230  14.465
62399SOL    HW289095   8.825  13.218  14.589
62400SOL     OW89096  13.481   1.932   6.846
62400SOL    HW189097  13.480   2.020   6.808
62400SOL    HW289098  13.505   1.874   6.773
62401SOL     OW89099  14.095   8.550   6.698
62401SOL    HW189100  14.160   8.572   6.631
62401SOL    HW289101  14.140   8.489   6.756
62402SOL     OW89102   1.612   5.508   9.002
62402SOL    HW189103   1.541   5.552   8.956
62402SOL    HW289104   1.605   5.539   9.092
62403SOL     OW89105  13.270   4.031   7.106
62403SOL    HW189106  13.343   4.081   7.070
62403SOL    HW289107  13.298   4.006   7.193
62404SOL     OW89108   4.070   0.666   4.989
62404SOL    HW189109   4.099   0.605   4.921
62404SOL    HW289110   3.982   0.637   5.012
62405SOL     OW89111   5.946   2.423   7.242
62405SOL    HW189112   5.949   2.481   7.318
62405SOL    HW289113   5.865   2.448   7.197
62406SOL     OW89114   5.010   8.837  11.108
62406SOL    HW189115   5.074   8.905  11.086
62406SOL    HW289116   5.044   8.758  11.065
62407SOL     OW89117  11.597  10.233  11.152
62407SOL    HW189118  11.580  10.178  11.228
62407SOL    HW289119  11.509  10.256  11.120
62408SOL     OW89120  13.101   0.357   9.059
62408SOL    HW189121  13.132   0.339   8.970
62408SOL    HW289122  13.108   0.273   9.104
62409SOL     OW89123   8.544  13.995   0.189
62409SOL    HW189124   8.639  13.998   0.196
62409SOL    HW289125   8.526  14.026   0.100
62410SOL     OW89126   6.390  10.725   7.636
62410SOL    HW189127   6.300  10.693   7.624
62410SOL    HW289128   6.441  10.678   7.570
62411SOL     OW89129   8.575  11.079   1.239
62411SOL    HW189130   8.559  10.987   1.262
62411SOL    HW289131   8.490  11.110   1.206
62412SOL     OW89132   9.103   7.765   3.918
62412SOL    HW189133   9.014   7.800   3.928
62412SOL    HW289134   9.089   7.673   3.897
62413SOL     OW89135   4.859   0.203   6.341
62413SOL    HW189136   4.770   0.179   6.369
62413SOL    HW289137   4.852   0.295   6.316
62414SOL     OW89138   6.702   0.591   9.375
62414SOL    HW189139   6.673   0.679   9.354
62414SOL    HW289140   6.763   0.602   9.449
62415SOL     OW89141  13.704   2.804   3.580
62415SOL    HW189142  13.659   2.839   3.503
62415SOL    HW289143  13.796   2.828   3.568
62416SOL     OW89144  14.664  14.025  10.044
62416SOL    HW189145  14.704  14.033   9.957
62416SOL    HW289146  14.589  14.084  10.043
62417SOL     OW89147   7.597   7.412  11.915
62417SOL    HW189148   7.686   7.378  11.923
62417SOL    HW289149   7.568   7.383  11.828
62418SOL     OW89150  10.164   9.236  12.373
62418SOL    HW189151  10.149   9.329  12.351
62418SOL    HW289152  10.163   9.192  12.288
62419SOL     OW89153   1.179   2.298   1.157
62419SOL    HW189154   1.217   2.327   1.240
62419SOL    HW289155   1.129   2.373   1.125
62420SOL     OW89156   6.659   3.023   3.382
62420SOL    HW189157   6.582   2.990   3.335
62420SOL    HW289158   6.710   2.944   3.401
62421SOL     OW89159   1.921   0.895  13.862
62421SOL    HW189160   1.910   0.857  13.775
62421SOL    HW289161   2.003   0.943  13.858
62422SOL     OW89162   7.918  14.516  14.571
62422SOL    HW189163   7.853  14.543  14.506
62422SOL    HW289164   7.992  14.575  14.557
62423SOL     OW89165   8.545   8.440  10.944
62423SOL    HW189166   8.545   8.359  10.995
62423SOL    HW289167   8.622   8.487  10.975
62424SOL     OW89168   8.713   0.297  12.709
62424SOL    HW189169   8.788   0.312  12.651
62424SOL    HW289170   8.680   0.384  12.729
62425SOL     OW89171   3.646  13.487   2.590
62425SOL    HW189172   3.579  13.420   2.597
62425SOL    HW289173   3.696  13.463   2.512
62426SOL     OW89174  11.919  14.646  10.703
62426SOL    HW189175  11.962  14.669  10.621
62426SOL    HW289176  11.986  14.659  10.770
62427SOL     OW89177   7.226  14.546   4.866
62427SOL    HW189178   7.148  14.556   4.810
62427SOL    HW289179   7.253  14.455   4.854
62428SOL     OW89180   1.364   5.502  10.322
62428SOL    HW189181   1.432   5.467  10.379
62428SOL    HW289182   1.338   5.428  10.267
62429SOL     OW89183  11.942   3.958  12.232
62429SOL    HW189184  11.861   3.909  12.244
62429SOL    HW289185  11.989   3.948  12.315
62430SOL     OW89186   3.580  12.279   8.486
62430SOL    HW189187   3.530  12.360   8.489
62430SOL    HW289188   3.560  12.234   8.568
62431SOL     OW89189   8.659   3.811   7.504
62431SOL    HW189190   8.648   3.879   7.437
62431SOL    HW289191   8.573   3.805   7.546
62432SOL     OW89192   5.132   5.528  14.365
62432SOL    HW189193   5.130   5.453  14.306
62432SOL    HW289194   5.193   5.589  14.323
62433SOL     OW89195   7.957  12.697   6.406
62433SOL    HW189196   8.019  12.697   6.334
62433SOL    HW289197   8.011  12.693   6.485
62434SOL     OW89198   9.461  11.506   6.302
62434SOL    HW189199   9.401  11.478   6.233
62434SOL    HW289200   9.454  11.601   6.304
62435SOL     OW89201  10.742   6.067   3.977
62435SOL    HW189202  10.736   6.005   4.049
62435SOL    HW289203  10.660   6.056   3.929
62436SOL     OW89204   5.449  13.701   0.976
62436SOL    HW189205   5.434  13.742   1.061
62436SOL    HW289206   5.361  13.687   0.941
62437SOL     OW89207  11.344   2.409  10.649
62437SOL    HW189208  11.299   2.337  10.693
62437SOL    HW289209  11.352   2.476  10.717
62438SOL     OW89210  14.475   4.863   5.130
62438SOL    HW189211  14.436   4.941   5.168
62438SOL    HW289212  14.447   4.791   5.187
62439SOL     OW89213   9.783   9.380   5.015
62439SOL    HW189214   9.751   9.319   4.948
62439SOL    HW289215   9.869   9.408   4.983
62440SOL     OW89216   1.234   2.953   2.167
62440SOL    HW189217   1.240   3.047   2.149
62440SOL    HW289218   1.314   2.933   2.215
62441SOL     OW89219   8.613   0.712   9.511
62441SOL    HW189220   8.626   0.807   9.513
62441SOL    HW289221   8.682   0.677   9.567
62442SOL     OW89222   9.896  10.932   3.176
62442SOL    HW189223   9.963  10.993   3.207
62442SOL    HW289224   9.832  10.929   3.247
62443SOL     OW89225   8.005  12.448  11.248
62443SOL    HW189226   8.089  12.410  11.271
62443SOL    HW289227   7.998  12.437  11.154
62444SOL     OW89228   6.050  10.040  11.303
62444SOL    HW189229   6.031  10.108  11.238
62444SOL    HW289230   5.967   9.994  11.314
62445SOL     OW89231   6.329  13.944   5.784
62445SOL    HW189232   6.330  14.039   5.794
62445SOL    HW289233   6.416  13.916   5.813
62446SOL     OW89234  14.296   7.033   0.847
62446SOL    HW189235  14.309   6.964   0.912
62446SOL    HW289236  14.383   7.049   0.812
62447SOL     OW89237   1.624   0.178   7.476
62447SOL    HW189238   1.674   0.209   7.400
62447SOL    HW289239   1.556   0.122   7.438
62448SOL     OW89240   5.469  10.565   6.481
62448SOL    HW189241   5.468  10.471   6.466
62448SOL    HW289242   5.401  10.580   6.548
62449SOL     OW89243  11.722   3.182   3.074
62449SOL    HW189244  11.723   3.153   3.165
62449SOL    HW289245  11.699   3.275   3.079
62450SOL     OW89246  12.577   6.654  13.014
62450SOL    HW189247  12.483   6.644  13.027
62450SOL    HW289248  12.586   6.687  12.925
62451SOL     OW89249   7.392  10.500   8.550
62451SOL    HW189250   7.327  10.463   8.610
62451SOL    HW289251   7.424  10.578   8.595
62452SOL     OW89252  11.452  12.363  14.858
62452SOL    HW189253  11.397  12.285  14.866
62452SOL    HW289254  11.431  12.416   0.066
62453SOL     OW89255   2.074   4.407   2.612
62453SOL    HW189256   2.117   4.328   2.578
62453SOL    HW289257   2.104   4.478   2.556
62454SOL     OW89258   9.557  14.841   8.287
62454SOL    HW189259   9.610  14.778   8.238
62454SOL    HW289260   9.592   0.058   8.261
62455SOL     OW89261   6.661  12.933   9.135
62455SOL    HW189262   6.637  13.005   9.193
62455SOL    HW289263   6.697  12.976   9.057
62456SOL     OW89264  10.930  13.490  13.313
62456SOL    HW189265  10.899  13.524  13.228
62456SOL    HW289266  10.991  13.420  13.290
62457SOL     OW89267   1.582   4.155   4.065
62457SOL    HW189268   1.559   4.238   4.105
62457SOL    HW289269   1.548   4.089   4.126
62458SOL     OW89270   3.183   0.879   2.078
62458SOL    HW189271   3.202   0.835   1.995
62458SOL    HW289272   3.170   0.971   2.055
62459SOL     OW89273  11.673   1.526  11.777
62459SOL    HW189274  11.617   1.582  11.830
62459SOL    HW289275  11.657   1.553  11.687
62460SOL     OW89276  10.428   4.014   1.244
62460SOL    HW189277  10.467   4.076   1.181
62460SOL    HW289278  10.500   3.955   1.267
62461SOL     OW89279   8.752   5.141   8.343
62461SOL    HW189280   8.734   5.181   8.258
62461SOL    HW289281   8.840   5.103   8.334
62462SOL     OW89282  14.408   1.090   8.201
62462SOL    HW189283  14.469   1.137   8.258
62462SOL    HW289284  14.380   1.155   8.137
62463SOL     OW89285   4.012   6.624   7.035
62463SOL    HW189286   4.015   6.546   7.091
62463SOL    HW289287   4.054   6.692   7.087
62464SOL     OW89288  10.960  12.210   1.945
62464SOL    HW189289  10.957  12.125   1.902
62464SOL    HW289290  11.046  12.211   1.989
62465SOL     OW89291   7.285   2.893   9.609
62465SOL    HW189292   7.366   2.936   9.582
62465SOL    HW289293   7.289   2.806   9.568
62466SOL     OW89294   3.063  12.811   3.628
62466SOL    HW189295   3.010  12.750   3.576
62466SOL    HW289296   3.001  12.852   3.688
62467SOL     OW89297  12.597   4.874   2.316
62467SOL    HW189298  12.631   4.920   2.240
62467SOL    HW289299  12.651   4.904   2.389
62468SOL     OW89300   1.337   8.106  13.608
62468SOL    HW189301   1.318   8.025  13.656
62468SOL    HW289302   1.256   8.124  13.560
62469SOL     OW89303   0.227   4.071   7.173
62469SOL    HW189304   0.175   4.015   7.230
62469SOL    HW289305   0.165   4.104   7.108
62470SOL     OW89306   9.025   0.356  13.949
62470SOL    HW189307   8.934   0.337  13.926
62470SOL    HW289308   9.072   0.276  13.926
62471SOL     OW89309   9.620  12.734   3.169
62471SOL    HW189310   9.681  12.759   3.100
62471SOL    HW289311   9.540  12.710   3.122
62472SOL     OW89312  11.521  12.622   5.533
62472SOL    HW189313  11.608  12.662   5.539
62472SOL    HW289314  11.513  12.596   5.441
62473SOL     OW89315  14.286   6.582   1.993
62473SOL    HW189316  14.361   6.577   1.935
62473SOL    HW289317  14.217   6.622   1.940
62474SOL     OW89318   4.403   8.694   4.111
62474SOL    HW189319   4.486   8.654   4.085
62474SOL    HW289320   4.425   8.783   4.136
62475SOL     OW89321   1.366   1.242   2.158
62475SOL    HW189322   1.342   1.152   2.180
62475SOL    HW289323   1.413   1.235   2.075
62476SOL     OW89324   8.682   1.224   9.699
62476SOL    HW189325   8.637   1.308   9.687
62476SOL    HW289326   8.622   1.171   9.750
62477SOL     OW89327   1.945  10.505   7.814
62477SOL    HW189328   1.915  10.595   7.827
62477SOL    HW289329   1.886  10.470   7.749
62478SOL     OW89330  14.033   4.719  13.107
62478SOL    HW189331  13.946   4.682  13.125
62478SOL    HW289332  14.045   4.705  13.013
62479SOL     OW89333   3.168  10.664  14.072
62479SOL    HW189334   3.221  10.650  13.994
62479SOL    HW289335   3.182  10.756  14.094
62480SOL     OW89336   9.179   6.447   2.558
62480SOL    HW189337   9.139   6.374   2.512
62480SOL    HW289338   9.208   6.506   2.489
62481SOL     OW89339   1.302  11.013   9.309
62481SOL    HW189340   1.225  10.965   9.339
62481SOL    HW289341   1.267  11.092   9.267
62482SOL     OW89342  13.093   5.354   2.411
62482SOL    HW189343  13.139   5.374   2.330
62482SOL    HW289344  13.006   5.324   2.384
62483SOL     OW89345   1.176   6.327   9.532
62483SOL    HW189346   1.164   6.331   9.437
62483SOL    HW289347   1.160   6.235   9.554
62484SOL     OW89348   3.862   6.889   9.148
62484SOL    HW189349   3.835   6.885   9.240
62484SOL    HW289350   3.940   6.835   9.143
62485SOL     OW89351   7.639   1.268  13.149
62485SOL    HW189352   7.636   1.342  13.088
62485SOL    HW289353   7.661   1.193  13.095
62486SOL     OW89354   5.862  13.050   4.714
62486SOL    HW189355   5.826  13.130   4.675
62486SOL    HW289356   5.860  12.985   4.644
62487SOL     OW89357   0.214  12.784   7.591
62487SOL    HW189358   0.139  12.782   7.651
62487SOL    HW289359   0.188  12.847   7.523
62488SOL     OW89360   4.263   2.371  12.136
62488SOL    HW189361   4.307   2.454  12.158
62488SOL    HW289362   4.251   2.328  12.221
62489SOL     OW89363   5.425   4.761   0.933
62489SOL    HW189364   5.391   4.738   0.846
62489SOL    HW289365   5.443   4.855   0.927
62490SOL     OW89366   2.507   7.985   4.473
62490SOL    HW189367   2.577   7.919   4.470
62490SOL    HW289368   2.443   7.955   4.409
62491SOL     OW89369   9.717   7.174  12.749
62491SOL    HW189370   9.794   7.177  12.691
62491SOL    HW289371   9.662   7.105  12.713
62492SOL     OW89372   1.732  12.090   9.644
62492SOL    HW189373   1.812  12.087   9.696
62492SOL    HW289374   1.723  12.001   9.610
62493SOL     OW89375  11.526  12.466  12.003
62493SOL    HW189376  11.462  12.504  11.942
62493SOL    HW289377  11.596  12.531  12.009
62494SOL     OW89378   1.792   8.460   2.649
62494SOL    HW189379   1.749   8.404   2.714
62494SOL    HW289380   1.728   8.470   2.579
62495SOL     OW89381   7.251   7.238   0.205
62495SOL    HW189382   7.342   7.236   0.236
62495SOL    HW289383   7.230   7.330   0.196
62496SOL     OW89384   8.747  11.768   2.863
62496SOL    HW189385   8.709  11.843   2.909
62496SOL    HW289386   8.811  11.732   2.925
62497SOL     OW89387  14.094  12.091  11.508
62497SOL    HW189388  14.023  12.076  11.446
62497SOL    HW289389  14.050  12.119  11.588
62498SOL     OW89390  11.343   7.949   2.561
62498SOL    HW189391  11.372   8.024   2.612
62498SOL    HW289392  11.324   7.986   2.474
62499SOL     OW89393   9.159   3.966   6.098
62499SOL    HW189394   9.214   3.918   6.036
62499SOL    HW289395   9.179   3.928   6.183
62500SOL     OW89396  13.183  10.220   8.976
62500SOL    HW189397  13.140  10.141   8.943
62500SOL    HW289398  13.126  10.250   9.047
62501SOL     OW89399   8.233   5.586  14.219
62501SOL    HW189400   8.221   5.624  14.306
62501SOL    HW289401   8.167   5.516  14.214
62502SOL     OW89402   7.741   8.046   9.054
62502SOL    HW189403   7.664   8.060   9.109
62502SOL    HW289404   7.709   8.060   8.965
62503SOL     OW89405   4.606   8.613   1.087
62503SOL    HW189406   4.568   8.701   1.095
62503SOL    HW289407   4.535   8.559   1.054
62504SOL     OW89408   7.577   6.731   9.697
62504SOL    HW189409   7.599   6.806   9.751
62504SOL    HW289410   7.521   6.766   9.628
62505SOL     OW89411  14.173   3.280   7.432
62505SOL    HW189412  14.211   3.339   7.366
62505SOL    HW289413  14.079   3.287   7.419
62506SOL     OW89414   0.940   4.456   4.548
62506SOL    HW189415   0.995   4.473   4.472
62506SOL    HW289416   0.906   4.367   4.533
62507SOL     OW89417   8.455  14.761   8.091
62507SOL    HW189418   8.384  14.711   8.131
62507SOL    HW289419   8.410  14.827   8.038
62508SOL     OW89420   4.784   1.264   3.818
62508SOL    HW189421   4.766   1.191   3.758
62508SOL    HW289422   4.744   1.237   3.901
62509SOL     OW89423   4.781   1.219   9.233
62509SOL    HW189424   4.838   1.196   9.160
62509SOL    HW289425   4.786   1.314   9.239
62510SOL     OW89426   2.494  11.867   7.508
62510SOL    HW189427   2.445  11.949   7.510
62510SOL    HW289428   2.585  11.892   7.520
62511SOL     OW89429   9.494   1.593  13.422
62511SOL    HW189430   9.515   1.502  13.442
62511SOL    HW289431   9.400   1.592  13.404
62512SOL     OW89432   4.655   2.717   4.602
62512SOL    HW189433   4.749   2.700   4.609
62512SOL    HW289434   4.630   2.677   4.519
62513SOL     OW89435   0.909  13.062   2.563
62513SOL    HW189436   0.911  13.144   2.513
62513SOL    HW289437   0.877  13.087   2.649
62514SOL     OW89438   6.879   4.964   9.625
62514SOL    HW189439   6.818   5.004   9.563
62514SOL    HW289440   6.952   4.934   9.570
62515SOL     OW89441  11.298   3.928   5.487
62515SOL    HW189442  11.282   3.846   5.536
62515SOL    HW289443  11.259   3.912   5.401
62516SOL     OW89444  12.804   5.124  11.368
62516SOL    HW189445  12.809   5.029  11.372
62516SOL    HW289446  12.765   5.143  11.282
62517SOL     OW89447   7.014   2.373   6.701
62517SOL    HW189448   6.965   2.293   6.682
62517SOL    HW289449   6.948   2.442   6.698
62518SOL     OW89450   9.706  14.588   6.916
62518SOL    HW189451   9.685  14.527   6.846
62518SOL    HW289452   9.646  14.661   6.903
62519SOL     OW89453   5.724   2.490  11.254
62519SOL    HW189454   5.762   2.433  11.321
62519SOL    HW289455   5.637   2.511  11.288
62520SOL     OW89456   9.716   6.068   7.570
62520SOL    HW189457   9.628   6.104   7.579
62520SOL    HW289458   9.774   6.144   7.572
62521SOL     OW89459  14.536   3.697   0.904
62521SOL    HW189460  14.570   3.662   0.822
62521SOL    HW289461  14.602   3.673   0.969
62522SOL     OW89462   7.774   7.087   9.102
62522SOL    HW189463   7.710   7.044   9.158
62522SOL    HW289464   7.774   7.035   9.021
62523SOL     OW89465  11.103  12.227   0.412
62523SOL    HW189466  11.076  12.223   0.320
62523SOL    HW289467  11.100  12.320   0.433
62524SOL     OW89468   1.516   2.662   2.846
62524SOL    HW189469   1.540   2.593   2.907
62524SOL    HW289470   1.529   2.743   2.895
62525SOL     OW89471   4.571  14.628   5.308
62525SOL    HW189472   4.510  14.589   5.371
62525SOL    HW289473   4.567  14.722   5.327
62526SOL     OW89474   8.944   1.676   8.367
62526SOL    HW189475   8.927   1.598   8.315
62526SOL    HW289476   8.928   1.749   8.307
62527SOL     OW89477   6.891   7.168   2.622
62527SOL    HW189478   6.839   7.219   2.559
62527SOL    HW289479   6.971   7.147   2.574
62528SOL     OW89480   6.214  10.026   6.349
62528SOL    HW189481   6.300  10.045   6.388
62528SOL    HW289482   6.206   9.931   6.354
62529SOL     OW89483   6.036   0.313   9.863
62529SOL    HW189484   6.025   0.396   9.908
62529SOL    HW289485   5.949   0.272   9.869
62530SOL     OW89486  10.641  12.412   3.211
62530SOL    HW189487  10.630  12.432   3.119
62530SOL    HW289488  10.670  12.321   3.213
62531SOL     OW89489  10.806   5.827  14.635
62531SOL    HW189490  10.837   5.914  14.660
62531SOL    HW289491  10.885   5.775  14.624
62532SOL     OW89492  14.780   5.693  10.740
62532SOL    HW189493  14.767   5.651  10.825
62532SOL    HW289494  14.853   5.645  10.700
62533SOL     OW89495  14.296   0.622   1.256
62533SOL    HW189496  14.333   0.550   1.205
62533SOL    HW289497  14.249   0.675   1.192
62534SOL     OW89498   4.265   4.124  11.169
62534SOL    HW189499   4.253   4.076  11.251
62534SOL    HW289500   4.188   4.102  11.117
62535SOL     OW89501   6.524   5.593   3.214
62535SOL    HW189502   6.554   5.575   3.303
62535SOL    HW289503   6.604   5.595   3.161
62536SOL     OW89504   6.196   2.510  11.901
62536SOL    HW189505   6.250   2.588  11.890
62536SOL    HW289506   6.193   2.497  11.996
62537SOL     OW89507  11.690   2.566  11.606
62537SOL    HW189508  11.601   2.591  11.633
62537SOL    HW289509  11.744   2.640  11.633
62538SOL     OW89510   2.042   4.217  14.820
62538SOL    HW189511   2.132   4.232  14.847
62538SOL    HW289512   2.049   4.186  14.730
62539SOL     OW89513  14.645  12.781  11.729
62539SOL    HW189514  14.725  12.780  11.782
62539SOL    HW289515  14.632  12.874  11.709
62540SOL     OW89516   6.681  11.976   8.155
62540SOL    HW189517   6.678  11.960   8.061
62540SOL    HW289518   6.771  11.957   8.180
62541SOL     OW89519  13.018  11.792  10.163
62541SOL    HW189520  13.033  11.736  10.087
62541SOL    HW289521  13.104  11.828  10.185
62542SOL     OW89522   5.543   7.734   1.192
62542SOL    HW189523   5.576   7.803   1.135
62542SOL    HW289524   5.622   7.689   1.223
62543SOL     OW89525   3.751   6.523   8.212
62543SOL    HW189526   3.722   6.568   8.133
62543SOL    HW289527   3.723   6.432   8.199
62544SOL     OW89528  12.690   8.888   7.341
62544SOL    HW189529  12.638   8.969   7.345
62544SOL    HW289530  12.657   8.835   7.413
62545SOL     OW89531  14.376   7.257   3.533
62545SOL    HW189532  14.455   7.277   3.482
62545SOL    HW289533  14.386   7.309   3.613
62546SOL     OW89534  14.845   6.923  11.511
62546SOL    HW189535  14.825   7.000  11.565
62546SOL    HW289536  14.784   6.928  11.438
62547SOL     OW89537  12.181   6.394   2.380
62547SOL    HW189538  12.161   6.304   2.406
62547SOL    HW289539  12.095   6.434   2.366
62548SOL     OW89540   9.261  13.024   1.263
62548SOL    HW189541   9.232  13.046   1.351
62548SOL    HW289542   9.229  12.935   1.249
62549SOL     OW89543   8.854   6.677  10.272
62549SOL    HW189544   8.882   6.610  10.209
62549SOL    HW289545   8.818   6.626  10.345
62550SOL     OW89546  14.221   6.670  13.785
62550SOL    HW189547  14.179   6.584  13.784
62550SOL    HW289548  14.215   6.698  13.876
62551SOL     OW89549  12.730   5.402  10.657
62551SOL    HW189550  12.638   5.375  10.668
62551SOL    HW289551  12.730   5.450  10.575
62552SOL     OW89552   8.141  13.040   4.403
62552SOL    HW189553   8.153  13.046   4.308
62552SOL    HW289554   8.230  13.049   4.438
62553SOL     OW89555  14.691  14.640   3.720
62553SOL    HW189556  14.656  14.607   3.803
62553SOL    HW289557  14.619  14.632   3.658
62554SOL     OW89558   4.145   0.075   2.248
62554SOL    HW189559   4.097   0.031   2.318
62554SOL    HW289560   4.085   0.141   2.214
62555SOL     OW89561   3.575  11.271   9.228
62555SOL    HW189562   3.558  11.278   9.322
62555SOL    HW289563   3.500  11.313   9.187
62556SOL     OW89564  13.764   4.155   8.907
62556SOL    HW189565  13.773   4.245   8.875
62556SOL    HW289566  13.695   4.160   8.972
62557SOL     OW89567   6.932   4.998   1.874
62557SOL    HW189568   6.990   4.923   1.885
62557SOL    HW289569   6.868   4.991   1.945
62558SOL     OW89570   5.081   3.157   1.196
62558SOL    HW189571   5.167   3.155   1.237
62558SOL    HW289572   5.022   3.118   1.260
62559SOL     OW89573  11.131  10.598   7.745
62559SOL    HW189574  11.185  10.667   7.783
62559SOL    HW289575  11.166  10.516   7.781
62560SOL     OW89576   9.325  12.646   4.571
62560SOL    HW189577   9.266  12.663   4.498
62560SOL    HW289578   9.396  12.709   4.560
62561SOL     OW89579  14.630   7.032   9.792
62561SOL    HW189580  14.544   7.071   9.781
62561SOL    HW289581  14.691   7.106   9.795
62562SOL     OW89582  14.844  11.014   2.552
62562SOL    HW189583  14.820  10.986   2.464
62562SOL    HW289584   0.072  11.014   2.552
62563SOL     OW89585   6.539  13.806  13.355
62563SOL    HW189586   6.528  13.818  13.261
62563SOL    HW289587   6.450  13.816  13.391
62564SOL     OW89588  13.342  11.182  12.810
62564SOL    HW189589  13.266  11.126  12.822
62564SOL    HW289590  13.400  11.132  12.753
62565SOL     OW89591   3.665   3.837  14.161
62565SOL    HW189592   3.581   3.881  14.149
62565SOL    HW289593   3.729   3.899  14.126
62566SOL     OW89594   8.471   1.466   8.147
62566SOL    HW189595   8.469   1.547   8.199
62566SOL    HW289596   8.562   1.459   8.119
62567SOL     OW89597   2.793   8.034  11.762
62567SOL    HW189598   2.859   7.967  11.744
62567SOL    HW289599   2.801   8.050  11.856
62568SOL     OW89600   0.345   3.828   2.557
62568SOL    HW189601   0.398   3.796   2.485
62568SOL    HW289602   0.397   3.897   2.597
62569SOL     OW89603   9.642   6.390   6.908
62569SOL    HW189604   9.626   6.355   6.996
62569SOL    HW289605   9.736   6.408   6.907
62570SOL     OW89606   8.625   6.519   4.419
62570SOL    HW189607   8.675   6.507   4.338
62570SOL    HW289608   8.610   6.613   4.424
62571SOL     OW89609  10.346   6.957  10.906
62571SOL    HW189610  10.294   6.935  10.984
62571SOL    HW289611  10.290   6.932  10.832
62572SOL     OW89612   3.837   4.372   3.964
62572SOL    HW189613   3.913   4.400   4.014
62572SOL    HW289614   3.763   4.387   4.022
62573SOL     OW89615   3.629   8.940   1.869
62573SOL    HW189616   3.717   8.935   1.909
62573SOL    HW289617   3.575   8.884   1.925
62574SOL     OW89618  14.402   7.067   5.502
62574SOL    HW189619  14.391   7.141   5.561
62574SOL    HW289620  14.495   7.047   5.505
62575SOL     OW89621   9.332  13.449   2.431
62575SOL    HW189622   9.399  13.412   2.488
62575SOL    HW289623   9.254  13.398   2.449
62576SOL     OW89624   9.098   1.118  13.882
62576SOL    HW189625   9.189   1.122  13.911
62576SOL    HW289626   9.066   1.208  13.891
62577SOL     OW89627   5.589   4.890   4.923
62577SOL    HW189628   5.534   4.913   4.848
62577SOL    HW289629   5.548   4.812   4.961
62578SOL     OW89630   9.257  13.745  13.534
62578SOL    HW189631   9.311  13.667  13.548
62578SOL    HW289632   9.224  13.736  13.445
62579SOL     OW89633  12.164  14.422   8.119
62579SOL    HW189634  12.194  14.334   8.141
62579SOL    HW289635  12.243  14.469   8.094
62580SOL     OW89636   6.340  10.009   8.297
62580SOL    HW189637   6.348  10.089   8.349
62580SOL    HW289638   6.393  10.026   8.219
62581SOL     OW89639   9.359  12.159  11.235
62581SOL    HW189640   9.426  12.191  11.175
62581SOL    HW289641   9.341  12.233  11.293
62582SOL     OW89642   6.404   4.849   5.511
62582SOL    HW189643   6.453   4.901   5.575
62582SOL    HW289644   6.462   4.844   5.435
62583SOL     OW89645  12.033  10.203  13.690
62583SOL    HW189646  11.971  10.242  13.751
62583SOL    HW289647  11.995  10.118  13.668
62584SOL     OW89648   0.586  10.980  12.623
62584SOL    HW189649   0.521  10.968  12.554
62584SOL    HW289650   0.659  11.022  12.579
62585SOL     OW89651   7.665  13.402   9.661
62585SOL    HW189652   7.596  13.339   9.640
62585SOL    HW289653   7.743  13.348   9.677
62586SOL     OW89654   6.164  13.783  11.207
62586SOL    HW189655   6.086  13.761  11.258
62586SOL    HW289656   6.132  13.795  11.117
62587SOL     OW89657  11.908   3.401   7.884
62587SOL    HW189658  11.861   3.449   7.816
62587SOL    HW289659  11.880   3.441   7.966
62588SOL     OW89660   8.031   0.973   1.111
62588SOL    HW189661   8.069   0.895   1.072
62588SOL    HW289662   8.105   1.033   1.121
62589SOL     OW89663   0.001  10.953  11.805
62589SOL    HW189664  14.790  10.956  11.751
62589SOL    HW289665   0.019  11.044  11.826
62590SOL     OW89666   4.594   2.538  14.091
62590SOL    HW189667   4.646   2.501  14.019
62590SOL    HW289668   4.616   2.484  14.167
62591SOL     OW89669  13.385   2.006   3.743
62591SOL    HW189670  13.440   2.012   3.664
62591SOL    HW289671  13.300   2.041   3.716
62592SOL     OW89672   7.566   7.470  14.643
62592SOL    HW189673   7.524   7.438  14.563
62592SOL    HW289674   7.613   7.549  14.615
62593SOL     OW89675   2.583   1.429   7.009
62593SOL    HW189676   2.649   1.494   7.035
62593SOL    HW289677   2.517   1.433   7.079
62594SOL     OW89678   2.235   3.361   5.648
62594SOL    HW189679   2.179   3.429   5.686
62594SOL    HW289680   2.219   3.366   5.554
62595SOL     OW89681  13.225   5.867  11.386
62595SOL    HW189682  13.288   5.799  11.411
62595SOL    HW289683  13.143   5.841  11.428
62596SOL     OW89684   4.000   3.669   4.859
62596SOL    HW189685   3.960   3.718   4.931
62596SOL    HW289686   3.949   3.695   4.782
62597SOL     OW89687  14.299   0.089  13.868
62597SOL    HW189688  14.248   0.014  13.837
62597SOL    HW289689  14.236   0.144  13.914
62598SOL     OW89690  13.074  12.729   5.968
62598SOL    HW189691  12.988  12.746   6.007
62598SOL    HW289692  13.080  12.791   5.895
62599SOL     OW89693  11.293   7.616   6.322
62599SOL    HW189694  11.267   7.554   6.253
62599SOL    HW289695  11.221   7.679   6.327
62600SOL     OW89696   4.673  10.309   0.761
62600SOL    HW189697   4.758  10.350   0.779
62600SOL    HW289698   4.679  10.281   0.670
62601SOL     OW89699   1.314   0.414   2.865
62601SOL    HW189700   1.398   0.368   2.874
62601SOL    HW289701   1.308   0.469   2.942
62602SOL     OW89702  11.383   2.642  12.721
62602SOL    HW189703  11.402   2.594  12.801
62602SOL    HW289704  11.323   2.586  12.672
62603SOL     OW89705   0.242   2.215   6.174
62603SOL    HW189706   0.273   2.133   6.135
62603SOL    HW289707   0.151   2.196   6.199
62604SOL     OW89708   8.598   4.349   0.117
62604SOL    HW189709   8.526   4.349   0.053
62604SOL    HW289710   8.555   4.339   0.202
62605SOL     OW89711  13.020  11.138   4.486
62605SOL    HW189712  12.949  11.075   4.475
62605SOL    HW289713  13.086  11.090   4.536
62606SOL     OW89714   1.975   9.703   9.105
62606SOL    HW189715   1.928   9.762   9.045
62606SOL    HW289716   2.046   9.667   9.053
62607SOL     OW89717   6.773  12.392   5.373
62607SOL    HW189718   6.832  12.317   5.385
62607SOL    HW289719   6.736  12.379   5.285
62608SOL     OW89720   7.537  14.676   8.337
62608SOL    HW189721   7.474  14.745   8.320
62608SOL    HW289722   7.616  14.722   8.367
62609SOL     OW89723   1.142   3.781   5.092
62609SOL    HW189724   1.206   3.850   5.075
62609SOL    HW289725   1.081   3.786   5.018
62610SOL     OW89726   9.369   7.153  12.974
62610SOL    HW189727   9.320   7.091  13.028
62610SOL    HW289728   9.316   7.163  12.895
62611SOL     OW89729   6.280   7.513   0.803
62611SOL    HW189730   6.359   7.567   0.811
62611SOL    HW289731   6.225   7.540   0.877
62612SOL     OW89732   5.705  10.489   1.306
62612SOL    HW189733   5.621  10.531   1.325
62612SOL    HW289734   5.725  10.439   1.385
62613SOL     OW89735   2.669   9.965  11.212
62613SOL    HW189736   2.639   9.975  11.122
62613SOL    HW289737   2.715  10.047  11.231
62614SOL     OW89738  14.156   6.348   8.771
62614SOL    HW189739  14.080   6.291   8.765
62614SOL    HW289740  14.231   6.289   8.766
62615SOL     OW89741   0.568  11.047  12.142
62615SOL    HW189742   0.606  11.087  12.064
62615SOL    HW289743   0.637  11.054  12.208
62616SOL     OW89744   0.011   3.991   8.445
62616SOL    HW189745  14.795   4.036   8.450
62616SOL    HW289746  14.858   3.898   8.442
62617SOL     OW89747   1.204   3.658   3.725
62617SOL    HW189748   1.279   3.630   3.673
62617SOL    HW289749   1.242   3.704   3.800
62618SOL     OW89750   4.642  11.515  12.991
62618SOL    HW189751   4.644  11.504  12.896
62618SOL    HW289752   4.561  11.472  13.019
62619SOL     OW89753   3.062   8.085  11.396
62619SOL    HW189754   3.117   8.145  11.446
62619SOL    HW289755   2.972   8.114  11.414
62620SOL     OW89756   9.694  13.200   6.239
62620SOL    HW189757   9.658  13.280   6.199
62620SOL    HW289758   9.764  13.173   6.179
62621SOL     OW89759  11.009   2.401   7.943
62621SOL    HW189760  11.093   2.393   7.988
62621SOL    HW289761  11.030   2.445   7.860
62622SOL     OW89762  10.136   1.954   4.067
62622SOL    HW189763  10.222   1.950   4.025
62622SOL    HW289764  10.088   2.018   4.015
62623SOL     OW89765  12.518   6.785   2.293
62623SOL    HW189766  12.452   6.752   2.354
62623SOL    HW289767  12.599   6.787   2.343
62624SOL     OW89768  14.393   4.936   0.862
62624SOL    HW189769  14.322   4.873   0.855
62624SOL    HW289770  14.357   5.017   0.827
62625SOL     OW89771   9.185   5.055   0.588
62625SOL    HW189772   9.135   4.979   0.617
62625SOL    HW289773   9.236   5.081   0.665
62626SOL     OW89774   4.748   1.092   3.602
62626SOL    HW189775   4.774   1.148   3.529
62626SOL    HW289776   4.708   1.016   3.560
62627SOL     OW89777  12.284  11.927   8.204
62627SOL    HW189778  12.193  11.948   8.224
62627SOL    HW289779  12.323  11.908   8.289
62628SOL     OW89780   6.060   3.870   9.690
62628SOL    HW189781   6.001   3.882   9.764
62628SOL    HW289782   6.117   3.947   9.693
62629SOL     OW89783   0.421   8.165   3.751
62629SOL    HW189784   0.375   8.105   3.810
62629SOL    HW289785   0.352   8.223   3.718
62630SOL     OW89786   7.123  12.516   6.548
62630SOL    HW189787   7.216  12.493   6.556
62630SOL    HW289788   7.079  12.432   6.529
62631SOL     OW89789  13.037   7.827   2.006
62631SOL    HW189790  13.002   7.747   2.045
62631SOL    HW289791  13.105   7.796   1.946
62632SOL     OW89792   9.874  12.586   8.356
62632SOL    HW189793   9.937  12.597   8.284
62632SOL    HW289794   9.838  12.674   8.368
62633SOL     OW89795   9.680   4.885   7.360
62633SOL    HW189796   9.627   4.808   7.343
62633SOL    HW289797   9.668   4.940   7.282
62634SOL     OW89798   7.871  11.159   1.678
62634SOL    HW189799   7.787  11.204   1.671
62634SOL    HW289800   7.849  11.066   1.681
62635SOL     OW89801  11.081  10.497  12.882
62635SOL    HW189802  11.100  10.409  12.848
62635SOL    HW289803  11.149  10.553  12.842
62636SOL     OW89804   7.458   2.333  10.928
62636SOL    HW189805   7.370   2.324  10.890
62636SOL    HW289806   7.487   2.420  10.900
62637SOL     OW89807  13.597  14.295   7.973
62637SOL    HW189808  13.503  14.315   7.978
62637SOL    HW289809  13.604  14.206   8.007
62638SOL     OW89810  11.280  11.810   7.492
62638SOL    HW189811  11.324  11.789   7.410
62638SOL    HW289812  11.233  11.891   7.474
62639SOL     OW89813   1.105   0.438   9.797
62639SOL    HW189814   1.054   0.358   9.789
62639SOL    HW289815   1.111   0.454   9.891
62640SOL     OW89816   6.276   9.460  14.537
62640SOL    HW189817   6.294   9.412  14.618
62640SOL    HW289818   6.182   9.476  14.539
62641SOL     OW89819   2.370   9.180  14.334
62641SOL    HW189820   2.448   9.220  14.373
62641SOL    HW289821   2.391   9.173  14.241
62642SOL     OW89822  12.727  13.306   2.552
62642SOL    HW189823  12.662  13.284   2.486
62642SOL    HW289824  12.683  13.368   2.610
62643SOL     OW89825   1.518   0.539   6.178
62643SOL    HW189826   1.556   0.471   6.122
62643SOL    HW289827   1.518   0.501   6.266
62644SOL     OW89828  10.590   8.162   6.553
62644SOL    HW189829  10.674   8.138   6.592
62644SOL    HW289830  10.591   8.124   6.465
62645SOL     OW89831   9.098   1.572   7.594
62645SOL    HW189832   9.129   1.493   7.637
62645SOL    HW289833   9.176   1.628   7.589
62646SOL     OW89834   2.736   0.777   4.900
62646SOL    HW189835   2.805   0.841   4.884
62646SOL    HW289836   2.774   0.693   4.876
62647SOL     OW89837   3.487   1.954   2.673
62647SOL    HW189838   3.477   1.859   2.667
62647SOL    HW289839   3.557   1.966   2.738
62648SOL     OW89840   4.454   2.927   1.948
62648SOL    HW189841   4.450   3.017   1.980
62648SOL    HW289842   4.521   2.885   2.002
62649SOL     OW89843   5.604   3.267   7.529
62649SOL    HW189844   5.631   3.213   7.455
62649SOL    HW289845   5.600   3.207   7.604
62650SOL     OW89846   4.064  12.145   8.919
62650SOL    HW189847   4.090  12.069   8.972
62650SOL    HW289848   4.114  12.136   8.838
62651SOL     OW89849  12.765   9.282   6.550
62651SOL    HW189850  12.808   9.197   6.540
62651SOL    HW289851  12.784   9.309   6.640
62652SOL     OW89852   7.778   6.713  13.185
62652SOL    HW189853   7.848   6.669  13.136
62652SOL    HW289854   7.747   6.781  13.126
62653SOL     OW89855   7.930  11.237  14.353
62653SOL    HW189856   7.995  11.307  14.352
62653SOL    HW289857   7.847  11.281  14.367
62654SOL     OW89858   0.402   3.452   9.423
62654SOL    HW189859   0.331   3.511   9.450
62654SOL    HW289860   0.400   3.455   9.327
62655SOL     OW89861   7.494  12.692   6.646
62655SOL    HW189862   7.576  12.701   6.597
62655SOL    HW289863   7.447  12.621   6.603
62656SOL     OW89864   0.765   2.123   2.546
62656SOL    HW189865   0.858   2.110   2.568
62656SOL    HW289866   0.756   2.081   2.460
62657SOL     OW89867   0.217   1.680  11.626
62657SOL    HW189868   0.292   1.661  11.569
62657SOL    HW289869   0.153   1.720  11.567
62658SOL     OW89870   9.166   6.319   7.505
62658SOL    HW189871   9.184   6.413   7.505
62658SOL    HW289872   9.154   6.298   7.412
62659SOL     OW89873   6.539   8.716  10.624
62659SOL    HW189874   6.471   8.767  10.668
62659SOL    HW289875   6.491   8.654  10.569
62660SOL     OW89876   4.158   0.042   6.408
62660SOL    HW189877   4.096   0.050   6.335
62660SOL    HW289878   4.102   0.036   6.486
62661SOL     OW89879   1.121   4.697  13.825
62661SOL    HW189880   1.027   4.702  13.838
62661SOL    HW289881   1.135   4.612  13.783
62662SOL     OW89882   9.139  14.565  12.601
62662SOL    HW189883   9.106  14.574  12.691
62662SOL    HW289884   9.123  14.650  12.561
62663SOL     OW89885  12.578   4.158   5.753
62663SOL    HW189886  12.649   4.114   5.800
62663SOL    HW289887  12.623   4.220   5.695
62664SOL     OW89888   3.890   4.290  13.576
62664SOL    HW189889   3.958   4.277  13.642
62664SOL    HW289890   3.920   4.240  13.500
62665SOL     OW89891   6.371  10.262   0.934
62665SOL    HW189892   6.381  10.319   1.010
62665SOL    HW289893   6.299  10.300   0.884
62666SOL     OW89894   1.058   9.798   3.624
62666SOL    HW189895   1.130   9.751   3.665
62666SOL    HW289896   0.981   9.776   3.676
62667SOL     OW89897  14.839  12.815   0.000
62667SOL    HW189898  14.843  12.842   0.092
62667SOL    HW289899  14.770  12.869  14.830
62668SOL     OW89900   4.561   4.491  11.592
62668SOL    HW189901   4.575   4.544  11.514
62668SOL    HW289902   4.626   4.421  11.586
62669SOL     OW89903   3.412   3.227   5.192
62669SOL    HW189904   3.498   3.224   5.150
62669SOL    HW289905   3.395   3.320   5.208
62670SOL     OW89906   6.147   2.288  10.177
62670SOL    HW189907   6.168   2.218  10.115
62670SOL    HW289908   6.224   2.345  10.174
62671SOL     OW89909   0.889  10.716   2.587
62671SOL    HW189910   0.930  10.802   2.584
62671SOL    HW289911   0.804  10.730   2.629
62672SOL     OW89912  13.456   1.867  10.672
62672SOL    HW189913  13.471   1.773  10.666
62672SOL    HW289914  13.530   1.900  10.724
62673SOL     OW89915   2.038   5.500  13.421
62673SOL    HW189916   2.054   5.567  13.487
62673SOL    HW289917   1.954   5.461  13.445
62674SOL     OW89918  13.390   9.195   9.927
62674SOL    HW189919  13.319   9.186   9.864
62674SOL    HW289920  13.441   9.270   9.895
62675SOL     OW89921   3.743   3.628   7.422
62675SOL    HW189922   3.718   3.666   7.506
62675SOL    HW289923   3.672   3.651   7.363
62676SOL     OW89924  14.381   2.501  11.763
62676SOL    HW189925  14.394   2.444  11.687
62676SOL    HW289926  14.374   2.589  11.725
62677SOL     OW89927   1.555   7.947   6.281
62677SOL    HW189928   1.649   7.938   6.266
62677SOL    HW289929   1.524   7.857   6.288
62678SOL     OW89930  12.193   4.878  14.198
62678SOL    HW189931  12.113   4.865  14.147
62678SOL    HW289932  12.212   4.792  14.236
62679SOL     OW89933  10.233   4.687   3.189
62679SOL    HW189934  10.267   4.635   3.117
62679SOL    HW289935  10.145   4.653   3.203
62680SOL     OW89936   1.206   4.327   8.773
62680SOL    HW189937   1.181   4.371   8.692
62680SOL    HW289938   1.154   4.246   8.773
62681SOL     OW89939   3.031   0.353   7.256
62681SOL    HW189940   3.035   0.433   7.308
62681SOL    HW289941   2.948   0.359   7.209
62682SOL     OW89942  10.978  12.273   7.410
62682SOL    HW189943  10.998  12.359   7.448
62682SOL    HW289944  10.893  12.249   7.448
62683SOL     OW89945   7.898  11.709   7.291
62683SOL    HW189946   7.909  11.756   7.373
62683SOL    HW289947   7.869  11.776   7.229
62684SOL     OW89948  14.259   0.482   2.379
62684SOL    HW189949  14.211   0.558   2.344
62684SOL    HW289950  14.281   0.507   2.469
62685SOL     OW89951   0.112  13.124   1.546
62685SOL    HW189952   0.094  13.079   1.629
62685SOL    HW289953   0.039  13.099   1.490
62686SOL     OW89954   5.461  11.956  12.313
62686SOL    HW189955   5.443  11.864  12.330
62686SOL    HW289956   5.447  11.999  12.398
62687SOL     OW89957   8.876   4.480   9.917
62687SOL    HW189958   8.868   4.515   9.828
62687SOL    HW289959   8.908   4.390   9.904
62688SOL     OW89960  11.162   7.737   2.534
62688SOL    HW189961  11.235   7.799   2.530
62688SOL    HW289962  11.085   7.792   2.546
62689SOL     OW89963   0.340  13.730   1.812
62689SOL    HW189964   0.416  13.697   1.764
62689SOL    HW289965   0.270  13.669   1.791
62690SOL     OW89966   5.140  13.797   8.281
62690SOL    HW189967   5.185  13.800   8.197
62690SOL    HW289968   5.182  13.865   8.333
62691SOL     OW89969  13.249   2.461   4.598
62691SOL    HW189970  13.339   2.486   4.579
62691SOL    HW289971  13.215   2.534   4.650
62692SOL     OW89972   9.037   6.137   0.988
62692SOL    HW189973   9.002   6.071   0.928
62692SOL    HW289974   9.009   6.107   1.074
62693SOL     OW89975  10.544  11.848   8.155
62693SOL    HW189976  10.505  11.852   8.243
62693SOL    HW289977  10.479  11.801   8.102
62694SOL     OW89978  12.805  11.912   8.511
62694SOL    HW189979  12.749  11.916   8.433
62694SOL    HW289980  12.745  11.922   8.584
62695SOL     OW89981   4.601   2.869   9.826
62695SOL    HW189982   4.614   2.906   9.914
62695SOL    HW289983   4.689   2.848   9.795
62696SOL     OW89984   6.933  11.955   9.207
62696SOL    HW189985   7.009  11.981   9.258
62696SOL    HW289986   6.863  12.013   9.237
62697SOL     OW89987   3.964  10.505   9.224
62697SOL    HW189988   4.048  10.546   9.242
62697SOL    HW289989   3.969  10.478   9.132
62698SOL     OW89990   9.830  10.265   8.245
62698SOL    HW189991   9.831  10.226   8.158
62698SOL    HW289992   9.865  10.353   8.233
62699SOL     OW89993  10.705  12.899   3.062
62699SOL    HW189994  10.723  12.926   2.972
62699SOL    HW289995  10.761  12.955   3.116
62700SOL     OW89996  11.081   5.204   1.975
62700SOL    HW189997  11.052   5.114   1.958
62700SOL    HW289998  11.084   5.211   2.070
62701SOL     OW89999  14.580   9.056  10.931
62701SOL    HW190000  14.586   9.113  10.854
62701SOL    HW290001  14.667   9.059  10.970
62702SOL     OW90002  13.480  13.272  13.924
62702SOL    HW190003  13.521  13.358  13.932
62702SOL    HW290004  13.487  13.235  14.012
62703SOL     OW90005   2.369   4.715   7.322
62703SOL    HW190006   2.275   4.714   7.303
62703SOL    HW290007   2.410   4.712   7.236
62704SOL     OW90008  12.523   3.224   4.850
62704SOL    HW190009  12.611   3.255   4.875
62704SOL    HW290010  12.496   3.285   4.780
62705SOL     OW90011   6.441   9.045   3.378
62705SOL    HW190012   6.392   9.069   3.457
62705SOL    HW290013   6.473   8.956   3.396
62706SOL     OW90014  12.063  10.354   7.782
62706SOL    HW190015  12.065  10.348   7.878
62706SOL    HW290016  12.044  10.446   7.765
62707SOL     OW90017   8.590  14.106  12.365
62707SOL    HW190018   8.613  14.022  12.404
62707SOL    HW290019   8.520  14.140  12.421
62708SOL     OW90020   0.355   5.798  14.306
62708SOL    HW190021   0.411   5.732  14.265
62708SOL    HW290022   0.267   5.774  14.279
62709SOL     OW90023  14.400   1.983   9.139
62709SOL    HW190024  14.314   1.960   9.176
62709SOL    HW290025  14.380   2.038   9.064
62710SOL     OW90026  14.207  11.046   2.085
62710SOL    HW190027  14.142  11.025   2.153
62710SOL    HW290028  14.162  11.106   2.026
62711SOL     OW90029   8.467  14.823   8.897
62711SOL    HW190030   8.383  14.833   8.850
62711SOL    HW290031   8.466  14.732   8.926
62712SOL     OW90032  12.462   4.300   6.391
62712SOL    HW190033  12.512   4.325   6.313
62712SOL    HW290034  12.386   4.253   6.356
62713SOL     OW90035   8.156  14.840  11.618
62713SOL    HW190036   8.171  14.765  11.561
62713SOL    HW290037   8.202   0.045  11.576
62714SOL     OW90038   6.758   2.948  12.928
62714SOL    HW190039   6.779   2.931  12.836
62714SOL    HW290040   6.698   2.878  12.952
62715SOL     OW90041   7.123   9.464   1.027
62715SOL    HW190042   7.084   9.497   0.945
62715SOL    HW290043   7.057   9.482   1.093
62716SOL     OW90044  12.337   5.945   9.218
62716SOL    HW190045  12.392   5.976   9.145
62716SOL    HW290046  12.373   5.859   9.238
62717SOL     OW90047   2.480   6.901  14.290
62717SOL    HW190048   2.430   6.872  14.214
62717SOL    HW290049   2.430   6.974  14.325
62718SOL     OW90050  12.963  11.961  10.755
62718SOL    HW190051  13.045  11.937  10.799
62718SOL    HW290052  12.895  11.916  10.804
62719SOL     OW90053  14.677   2.675   5.989
62719SOL    HW190054  14.694   2.763   5.954
62719SOL    HW290055  14.686   2.617   5.913
62720SOL     OW90056   9.028   0.213  14.228
62720SOL    HW190057   9.069   0.196  14.313
62720SOL    HW290058   9.077   0.286  14.192
62721SOL     OW90059   9.604  11.703  12.532
62721SOL    HW190060   9.633  11.781  12.579
62721SOL    HW290061   9.510  11.718  12.516
62722SOL     OW90062   5.152   5.631  12.176
62722SOL    HW190063   5.118   5.557  12.125
62722SOL    HW290064   5.113   5.708  12.135
62723SOL     OW90065   7.340  11.050   3.242
62723SOL    HW190066   7.425  11.022   3.207
62723SOL    HW290067   7.275  11.011   3.183
62724SOL     OW90068   3.783   9.034   6.510
62724SOL    HW190069   3.694   9.000   6.515
62724SOL    HW290070   3.835   8.977   6.567
62725SOL     OW90071  12.817  14.816   6.200
62725SOL    HW190072  12.761  14.778   6.268
62725SOL    HW290073  12.759   0.003   6.149
62726SOL     OW90074   4.023   8.776  12.537
62726SOL    HW190075   3.997   8.812  12.452
62726SOL    HW290076   4.065   8.693  12.517
62727SOL     OW90077   2.611   4.506  10.498
62727SOL    HW190078   2.684   4.509  10.560
62727SOL    HW290079   2.533   4.525  10.551
62728SOL     OW90080   0.017  10.748   9.267
62728SOL    HW190081  14.840  10.721   9.187
62728SOL    HW290082   0.034  10.666   9.314
62729SOL     OW90083   4.724   8.851  13.675
62729SOL    HW190084   4.780   8.857  13.598
62729SOL    HW290085   4.695   8.759  13.676
62730SOL     OW90086   8.860   0.401  13.509
62730SOL    HW190087   8.878   0.442  13.424
62730SOL    HW290088   8.914   0.449  13.571
62731SOL     OW90089   1.112  12.024   7.851
62731SOL    HW190090   1.192  12.045   7.802
62731SOL    HW290091   1.138  12.025   7.942
62732SOL     OW90092   3.334  13.057  14.857
62732SOL    HW190093   3.349  13.151  14.845
62732SOL    HW290094   3.397  13.015  14.798
62733SOL     OW90095   1.816  13.816   2.975
62733SOL    HW190096   1.884  13.847   2.915
62733SOL    HW290097   1.734  13.848   2.937
62734SOL     OW90098   9.969   5.960   2.898
62734SOL    HW190099   9.999   5.874   2.927
62734SOL    HW290100   9.896   5.941   2.839
62735SOL     OW90101   4.863   6.207   1.487
62735SOL    HW190102   4.882   6.240   1.400
62735SOL    HW290103   4.923   6.255   1.545
62736SOL     OW90104   9.287   9.313   9.351
62736SOL    HW190105   9.259   9.361   9.428
62736SOL    HW290106   9.322   9.380   9.292
62737SOL     OW90107   1.202  14.188   8.867
62737SOL    HW190108   1.234  14.273   8.835
62737SOL    HW290109   1.191  14.135   8.788
62738SOL     OW90110  11.673   5.290  13.839
62738SOL    HW190111  11.701   5.198  13.840
62738SOL    HW290112  11.587   5.289  13.799
62739SOL     OW90113   4.814   4.691   5.042
62739SOL    HW190114   4.828   4.708   5.135
62739SOL    HW290115   4.787   4.600   5.038
62740SOL     OW90116   7.778   9.051   8.354
62740SOL    HW190117   7.791   9.140   8.385
62740SOL    HW290118   7.827   9.047   8.272
62741SOL     OW90119   8.865   1.700  13.970
62741SOL    HW190120   8.907   1.641  14.033
62741SOL    HW290121   8.771   1.690  13.988
62742SOL     OW90122   0.834   3.688  12.807
62742SOL    HW190123   0.756   3.700  12.861
62742SOL    HW290124   0.904   3.731  12.856
62743SOL     OW90125   2.454  13.039   3.583
62743SOL    HW190126   2.506  13.095   3.641
62743SOL    HW290127   2.498  12.954   3.585
62744SOL     OW90128   8.200  13.582   5.155
62744SOL    HW190129   8.254  13.646   5.108
62744SOL    HW290130   8.124  13.570   5.098
62745SOL     OW90131  10.361  13.617  12.083
62745SOL    HW190132  10.444  13.591  12.122
62745SOL    HW290133  10.357  13.712  12.096
62746SOL     OW90134  11.732   7.748   5.361
62746SOL    HW190135  11.678   7.816   5.322
62746SOL    HW290136  11.677   7.708   5.428
62747SOL     OW90137   6.663   8.683   7.115
62747SOL    HW190138   6.690   8.616   7.053
62747SOL    HW290139   6.734   8.687   7.179
62748SOL     OW90140   1.125   4.950  12.286
62748SOL    HW190141   1.198   4.903  12.325
62748SOL    HW290142   1.063   4.880  12.261
62749SOL     OW90143   7.980   6.577   9.728
62749SOL    HW190144   7.922   6.609   9.659
62749SOL    HW290145   7.958   6.632   9.804
62750SOL     OW90146   8.855  11.031  12.608
62750SOL    HW190147   8.886  10.957  12.660
62750SOL    HW290148   8.928  11.053  12.551
62751SOL     OW90149   2.845   8.865   6.834
62751SOL    HW190150   2.893   8.943   6.808
62751SOL    HW290151   2.821   8.822   6.752
62752SOL     OW90152   8.788   9.897   1.053
62752SOL    HW190153   8.828   9.959   0.992
62752SOL    HW290154   8.701   9.881   1.018
62753SOL     OW90155   5.576   3.790   1.978
62753SOL    HW190156   5.601   3.869   1.930
62753SOL    HW290157   5.512   3.747   1.921
62754SOL     OW90158  13.412   2.961   9.518
62754SOL    HW190159  13.363   2.956   9.600
62754SOL    HW290160  13.362   3.021   9.463
62755SOL     OW90161   7.643   2.788   8.677
62755SOL    HW190162   7.693   2.800   8.757
62755SOL    HW290163   7.673   2.859   8.619
62756SOL     OW90164  13.478   2.164   6.718
62756SOL    HW190165  13.395   2.211   6.725
62756SOL    HW290166  13.506   2.178   6.627
62757SOL     OW90167   9.872   7.679   4.631
62757SOL    HW190168   9.804   7.632   4.680
62757SOL    HW290169   9.954   7.648   4.668
62758SOL     OW90170   1.863   6.395  12.917
62758SOL    HW190171   1.927   6.415  12.985
62758SOL    HW290172   1.845   6.301  12.928
62759SOL     OW90173   9.474   8.202   3.291
62759SOL    HW190174   9.516   8.211   3.206
62759SOL    HW290175   9.542   8.167   3.349
62760SOL     OW90176  10.589   2.835   0.364
62760SOL    HW190177  10.533   2.758   0.374
62760SOL    HW290178  10.673   2.799   0.335
62761SOL     OW90179   6.280   9.564   7.040
62761SOL    HW190180   6.195   9.555   6.998
62761SOL    HW290181   6.310   9.475   7.055
62762SOL     OW90182   6.253   3.341  13.521
62762SOL    HW190183   6.220   3.263  13.566
62762SOL    HW290184   6.228   3.328  13.430
62763SOL     OW90185   9.747   4.204   4.332
62763SOL    HW190186   9.839   4.218   4.351
62763SOL    HW290187   9.747   4.156   4.249
62764SOL     OW90188   8.254   6.972   4.721
62764SOL    HW190189   8.167   6.996   4.691
62764SOL    HW290190   8.306   7.052   4.711
62765SOL     OW90191   5.160   1.892  12.767
62765SOL    HW190192   5.148   1.834  12.842
62765SOL    HW290193   5.192   1.834  12.698
62766SOL     OW90194   1.039   6.493   8.534
62766SOL    HW190195   0.988   6.564   8.574
62766SOL    HW290196   1.075   6.445   8.608
62767SOL     OW90197   4.943   3.007   5.759
62767SOL    HW190198   4.919   2.975   5.846
62767SOL    HW290199   4.894   3.089   5.750
62768SOL     OW90200  11.966   7.515   4.094
62768SOL    HW190201  12.000   7.473   4.015
62768SOL    HW290202  11.871   7.508   4.086
62769SOL     OW90203   7.190  14.025   7.057
62769SOL    HW190204   7.172  14.091   6.989
62769SOL    HW290205   7.286  14.024   7.064
62770SOL     OW90206   2.131  13.771   5.535
62770SOL    HW190207   2.225  13.755   5.528
62770SOL    HW290208   2.124  13.867   5.539
62771SOL     OW90209   6.253   7.279  14.841
62771SOL    HW190210   6.252   7.341  14.768
62771SOL    HW290211   6.307   7.207  14.811
62772SOL     OW90212   1.693  10.891   6.374
62772SOL    HW190213   1.598  10.882   6.366
62772SOL    HW290214   1.727  10.881   6.285
62773SOL     OW90215  13.570  14.503   3.698
62773SOL    HW190216  13.659  14.472   3.684
62773SOL    HW290217  13.516  14.424   3.694
62774SOL     OW90218   2.390   8.326   8.923
62774SOL    HW190219   2.429   8.311   9.009
62774SOL    HW290220   2.464   8.317   8.862
62775SOL     OW90221   2.358  13.380  10.799
62775SOL    HW190222   2.407  13.443  10.747
62775SOL    HW290223   2.266  13.406  10.788
62776SOL     OW90224  12.545   1.713  10.957
62776SOL    HW190225  12.596   1.635  10.935
62776SOL    HW290226  12.504   1.738  10.875
62777SOL     OW90227   9.833   9.724  12.535
62777SOL    HW190228   9.862   9.664  12.605
62777SOL    HW290229   9.750   9.686  12.506
62778SOL     OW90230   2.154   0.532   1.201
62778SOL    HW190231   2.060   0.513   1.200
62778SOL    HW290232   2.161   0.611   1.255
62779SOL     OW90233   0.763   6.903   5.354
62779SOL    HW190234   0.800   6.884   5.268
62779SOL    HW290235   0.827   6.868   5.416
62780SOL     OW90236  13.172  13.440   1.422
62780SOL    HW190237  13.086  13.413   1.389
62780SOL    HW290238  13.160  13.447   1.517
62781SOL     OW90239   0.271   9.178  11.616
62781SOL    HW190240   0.260   9.105  11.676
62781SOL    HW290241   0.193   9.176  11.561
62782SOL     OW90242   2.073  14.303   2.285
62782SOL    HW190243   2.107  14.388   2.311
62782SOL    HW290244   2.001  14.322   2.225
62783SOL     OW90245   2.734  10.958  14.294
62783SOL    HW190246   2.824  10.931  14.273
62783SOL    HW290247   2.689  10.958  14.210
62784SOL     OW90248  13.495   7.831  13.153
62784SOL    HW190249  13.436   7.876  13.093
62784SOL    HW290250  13.473   7.866  13.239
62785SOL     OW90251   9.377   8.760  11.036
62785SOL    HW190252   9.410   8.671  11.033
62785SOL    HW290253   9.415   8.803  10.960
62786SOL     OW90254  14.247  12.183   8.916
62786SOL    HW190255  14.231  12.099   8.959
62786SOL    HW290256  14.215  12.249   8.977
62787SOL     OW90257   3.730   3.618   0.447
62787SOL    HW190258   3.635   3.616   0.453
62787SOL    HW290259   3.749   3.689   0.385
62788SOL     OW90260   0.348  10.177   8.624
62788SOL    HW190261   0.433  10.163   8.583
62788SOL    HW290262   0.307  10.090   8.625
62789SOL     OW90263   5.909   2.923   7.862
62789SOL    HW190264   5.886   2.982   7.790
62789SOL    HW290265   5.988   2.962   7.900
62790SOL     OW90266  14.026   5.624   8.041
62790SOL    HW190267  14.022   5.710   7.999
62790SOL    HW290268  13.952   5.576   8.005
62791SOL     OW90269   8.612   0.556   7.565
62791SOL    HW190270   8.570   0.505   7.634
62791SOL    HW290271   8.689   0.505   7.541
62792SOL     OW90272   3.571   9.679  12.511
62792SOL    HW190273   3.624   9.603  12.535
62792SOL    HW290274   3.543   9.661  12.421
62793SOL     OW90275   0.777  12.434   5.049
62793SOL    HW190276   0.790  12.523   5.017
62793SOL    HW290277   0.691  12.435   5.091
62794SOL     OW90278  14.054  14.303   5.004
62794SOL    HW190279  14.002  14.290   5.084
62794SOL    HW290280  14.119  14.233   5.006
62795SOL     OW90281  10.633   4.621   7.966
62795SOL    HW190282  10.600   4.533   7.947
62795SOL    HW290283  10.575   4.680   7.919
62796SOL     OW90284   0.702   0.782  10.309
62796SOL    HW190285   0.728   0.801  10.399
62796SOL    HW290286   0.711   0.687  10.300
62797SOL     OW90287   7.925   9.985  13.923
62797SOL    HW190288   7.994   9.955  13.982
62797SOL    HW290289   7.846   9.987  13.978
62798SOL     OW90290  13.928   8.644   5.244
62798SOL    HW190291  13.988   8.632   5.170
62798SOL    HW290292  13.904   8.736   5.240
62799SOL     OW90293   1.614   0.277  11.005
62799SOL    HW190294   1.590   0.189  11.033
62799SOL    HW290295   1.673   0.309  11.074
62800SOL     OW90296   3.453  12.872   4.992
62800SOL    HW190297   3.500  12.954   5.006
62800SOL    HW290298   3.374  12.880   5.046
62801SOL     OW90299  10.187   7.337   5.975
62801SOL    HW190300  10.115   7.274   5.980
62801SOL    HW290301  10.150   7.411   5.926
62802SOL     OW90302  11.388   1.525   8.294
62802SOL    HW190303  11.366   1.446   8.245
62802SOL    HW290304  11.483   1.519   8.307
62803SOL     OW90305   8.497   5.326  12.475
62803SOL    HW190306   8.564   5.319  12.408
62803SOL    HW290307   8.469   5.235  12.491
62804SOL     OW90308   3.842   2.523   4.304
62804SOL    HW190309   3.826   2.473   4.224
62804SOL    HW290310   3.935   2.542   4.303
62805SOL     OW90311   5.794   2.015  10.514
62805SOL    HW190312   5.735   1.960  10.463
62805SOL    HW290313   5.866   1.957  10.540
62806SOL     OW90314  14.107   9.856  11.428
62806SOL    HW190315  14.094   9.761  11.439
62806SOL    HW290316  14.093   9.871  11.335
62807SOL     OW90317   8.820   4.928   8.041
62807SOL    HW190318   8.912   4.954   8.047
62807SOL    HW290319   8.778   4.999   7.993
62808SOL     OW90320   4.140  14.527  12.204
62808SOL    HW190321   4.165  14.449  12.253
62808SOL    HW290322   4.161  14.506  12.113
62809SOL     OW90323  10.707  10.678   5.672
62809SOL    HW190324  10.679  10.727   5.750
62809SOL    HW290325  10.628  10.632   5.644
62810SOL     OW90326  13.419   5.490   9.103
62810SOL    HW190327  13.442   5.521   9.190
62810SOL    HW290328  13.486   5.527   9.045
62811SOL     OW90329   5.254  13.484   4.375
62811SOL    HW190330   5.303  13.403   4.387
62811SOL    HW290331   5.177  13.474   4.431
62812SOL     OW90332  11.705   4.053   3.834
62812SOL    HW190333  11.660   4.085   3.756
62812SOL    HW290334  11.697   3.958   3.830
62813SOL     OW90335  12.086   6.187   1.864
62813SOL    HW190336  12.181   6.197   1.862
62813SOL    HW290337  12.059   6.227   1.947
62814SOL     OW90338   7.141  10.904   5.994
62814SOL    HW190339   7.231  10.885   5.967
62814SOL    HW290340   7.145  10.994   6.029
62815SOL     OW90341   1.556  11.342   1.834
62815SOL    HW190342   1.535  11.310   1.746
62815SOL    HW290343   1.594  11.428   1.820
62816SOL     OW90344   9.067  14.573   4.618
62816SOL    HW190345   9.088  14.501   4.678
62816SOL    HW290346   9.114  14.551   4.537
62817SOL     OW90347   8.520   9.850   4.925
62817SOL    HW190348   8.513   9.865   5.019
62817SOL    HW290349   8.544   9.757   4.918
62818SOL     OW90350   4.902  13.302   1.443
62818SOL    HW190351   4.827  13.264   1.398
62818SOL    HW290352   4.881  13.395   1.452
62819SOL     OW90353   6.965   8.073   8.771
62819SOL    HW190354   6.927   8.000   8.721
62819SOL    HW290355   7.030   8.111   8.712
62820SOL     OW90356  12.745   6.055   6.563
62820SOL    HW190357  12.796   5.993   6.511
62820SOL    HW290358  12.808   6.090   6.626
62821SOL     OW90359   9.452   0.555  12.368
62821SOL    HW190360   9.448   0.633  12.422
62821SOL    HW290361   9.365   0.516  12.375
62822SOL     OW90362   9.210   0.884  10.342
62822SOL    HW190363   9.120   0.903  10.369
62822SOL    HW290364   9.210   0.791  10.321
62823SOL     OW90365   4.782   2.209   2.287
62823SOL    HW190366   4.740   2.295   2.283
62823SOL    HW290367   4.821   2.205   2.374
62824SOL     OW90368   1.506   7.801  10.908
62824SOL    HW190369   1.424   7.831  10.871
62824SOL    HW290370   1.541   7.740  10.842
62825SOL     OW90371  13.829   0.565   5.002
62825SOL    HW190372  13.871   0.482   4.980
62825SOL    HW290373  13.758   0.540   5.061
62826SOL     OW90374   3.879  13.176   0.613
62826SOL    HW190375   3.870  13.155   0.520
62826SOL    HW290376   3.871  13.271   0.617
62827SOL     OW90377  10.662  14.004   9.651
62827SOL    HW190378  10.712  14.034   9.575
62827SOL    HW290379  10.719  14.022   9.726
62828SOL     OW90380   9.060   5.809  13.983
62828SOL    HW190381   9.093   5.754  14.053
62828SOL    HW290382   8.978   5.845  14.017
62829SOL     OW90383   1.203   0.335   0.048
62829SOL    HW190384   1.290   0.309   0.078
62829SOL    HW290385   1.143   0.275   0.091
62830SOL     OW90386  12.216   8.081   5.604
62830SOL    HW190387  12.162   8.145   5.560
62830SOL    HW290388  12.298   8.079   5.554
62831SOL     OW90389  14.364  13.447   0.144
62831SOL    HW190390  14.414  13.518   0.104
62831SOL    HW290391  14.405  13.434   0.230
62832SOL     OW90392   5.385   9.739   6.318
62832SOL    HW190393   5.455   9.675   6.330
62832SOL    HW290394   5.353   9.724   6.229
62833SOL     OW90395  11.445  13.627   5.131
62833SOL    HW190396  11.470  13.694   5.066
62833SOL    HW290397  11.362  13.658   5.166
62834SOL     OW90398   1.874   8.402   7.594
62834SOL    HW190399   1.908   8.319   7.560
62834SOL    HW290400   1.797   8.420   7.540
62835SOL     OW90401   9.046  11.341   4.758
62835SOL    HW190402   9.056  11.247   4.775
62835SOL    HW290403   8.988  11.346   4.682
62836SOL     OW90404  13.806   9.516  14.625
62836SOL    HW190405  13.861   9.517  14.547
62836SOL    HW290406  13.860   9.554  14.694
62837SOL     OW90407  13.016   5.142   4.220
62837SOL    HW190408  12.992   5.187   4.301
62837SOL    HW290409  12.944   5.082   4.203
62838SOL     OW90410  13.945  13.279   6.501
62838SOL    HW190411  13.954  13.318   6.588
62838SOL    HW290412  13.979  13.189   6.512
62839SOL     OW90413  12.937   1.759   9.235
62839SOL    HW190414  13.024   1.745   9.199
62839SOL    HW290415  12.880   1.703   9.182
62840SOL     OW90416  10.633   8.965   3.168
62840SOL    HW190417  10.563   8.978   3.104
62840SOL    HW290418  10.601   8.892   3.222
62841SOL     OW90419   6.963   8.252   6.222
62841SOL    HW190420   6.933   8.230   6.133
62841SOL    HW290421   6.897   8.214   6.279
62842SOL     OW90422  14.707   0.356   3.386
62842SOL    HW190423  14.696   0.350   3.481
62842SOL    HW290424  14.721   0.266   3.358
62843SOL     OW90425  14.174  13.318   0.563
62843SOL    HW190426  14.200  13.261   0.635
62843SOL    HW290427  14.085  13.290   0.541
62844SOL     OW90428  14.384  12.496   6.995
62844SOL    HW190429  14.459  12.542   7.033
62844SOL    HW290430  14.401  12.403   7.014
62845SOL     OW90431  13.195  10.411   3.662
62845SOL    HW190432  13.137  10.369   3.725
62845SOL    HW290433  13.239  10.338   3.618
62846SOL     OW90434   1.363   2.310   5.806
62846SOL    HW190435   1.457   2.320   5.826
62846SOL    HW290436   1.326   2.397   5.820
62847SOL     OW90437   8.119  11.624  10.033
62847SOL    HW190438   8.109  11.675  10.113
62847SOL    HW290439   8.214  11.612  10.024
62848SOL     OW90440   0.246   8.904   5.262
62848SOL    HW190441   0.282   8.905   5.350
62848SOL    HW290442   0.308   8.957   5.211
62849SOL     OW90443  14.716   9.914   5.414
62849SOL    HW190444  14.691   9.944   5.326
62849SOL    HW290445  14.812   9.913   5.413
62850SOL     OW90446   7.110  14.372  14.618
62850SOL    HW190447   7.042  14.409  14.674
62850SOL    HW290448   7.188  14.423  14.638
62851SOL     OW90449  14.498   6.568   5.671
62851SOL    HW190450  14.494   6.633   5.741
62851SOL    HW290451  14.545   6.612   5.600
62852SOL     OW90452   9.776   2.794   3.707
62852SOL    HW190453   9.867   2.768   3.690
62852SOL    HW290454   9.761   2.868   3.647
62853SOL     OW90455   4.340  14.005   7.404
62853SOL    HW190456   4.246  14.011   7.420
62853SOL    HW290457   4.378  14.074   7.458
62854SOL     OW90458   7.075   7.046   9.932
62854SOL    HW190459   7.160   7.041   9.889
62854SOL    HW290460   7.049   6.955   9.947
62855SOL     OW90461   6.458   3.684  14.052
62855SOL    HW190462   6.365   3.686  14.032
62855SOL    HW290463   6.501   3.714  13.972
62856SOL     OW90464  12.941  14.788   1.793
62856SOL    HW190465  12.962  14.775   1.701
62856SOL    HW290466  12.849  14.812   1.793
62857SOL     OW90467   9.423  14.047   4.407
62857SOL    HW190468   9.440  14.096   4.327
62857SOL    HW290469   9.402  13.959   4.378
62858SOL     OW90470   7.420   9.715  13.820
62858SOL    HW190471   7.420   9.773  13.897
62858SOL    HW290472   7.477   9.642  13.845
62859SOL     OW90473  11.518  10.023  11.656
62859SOL    HW190474  11.469   9.944  11.683
62859SOL    HW290475  11.483  10.092  11.712
62860SOL     OW90476  11.811  11.914   0.872
62860SOL    HW190477  11.794  11.998   0.830
62860SOL    HW290478  11.813  11.933   0.965
62861SOL     OW90479  13.626   8.155   4.603
62861SOL    HW190480  13.661   8.226   4.657
62861SOL    HW290481  13.581   8.097   4.665
62862SOL     OW90482  13.498   1.005   4.249
62862SOL    HW190483  13.533   1.001   4.160
62862SOL    HW290484  13.487   1.099   4.266
62863SOL     OW90485   7.359   2.668   7.548
62863SOL    HW190486   7.338   2.600   7.611
62863SOL    HW290487   7.355   2.750   7.599
62864SOL     OW90488  11.520   7.127   2.483
62864SOL    HW190489  11.473   7.118   2.566
62864SOL    HW290490  11.580   7.200   2.498
62865SOL     OW90491   4.585   3.795  13.997
62865SOL    HW190492   4.608   3.878  13.956
62865SOL    HW290493   4.667   3.762  14.033
62866SOL     OW90494  11.862  11.533   0.484
62866SOL    HW190495  11.788  11.592   0.476
62866SOL    HW290496  11.824  11.451   0.515
62867SOL     OW90497   0.191   6.184  13.913
62867SOL    HW190498   0.261   6.238  13.950
62867SOL    HW290499   0.155   6.138  13.988
62868SOL     OW90500   7.442   5.679  11.584
62868SOL    HW190501   7.477   5.611  11.640
62868SOL    HW290502   7.348   5.660  11.580
62869SOL     OW90503  12.441  12.260   8.780
62869SOL    HW190504  12.534  12.282   8.774
62869SOL    HW290505  12.395  12.341   8.756
62870SOL     OW90506   6.380   2.388   4.257
62870SOL    HW190507   6.294   2.388   4.299
62870SOL    HW290508   6.364   2.421   4.169
62871SOL     OW90509   0.298   0.981   4.964
62871SOL    HW190510   0.343   0.904   4.998
62871SOL    HW290511   0.322   1.051   5.024
62872SOL     OW90512  13.089  12.113   3.056
62872SOL    HW190513  13.149  12.166   3.003
62872SOL    HW290514  13.015  12.171   3.074
62873SOL     OW90515   2.267   6.022   8.856
62873SOL    HW190516   2.327   6.060   8.791
62873SOL    HW290517   2.316   5.949   8.894
62874SOL     OW90518  11.482   2.101   9.919
62874SOL    HW190519  11.450   2.151   9.844
62874SOL    HW290520  11.473   2.160   9.993
62875SOL     OW90521   9.522  14.599  11.754
62875SOL    HW190522   9.574  14.640  11.824
62875SOL    HW290523   9.574  14.524  11.726
62876SOL     OW90524   7.278   0.423  12.840
62876SOL    HW190525   7.271   0.446  12.748
62876SOL    HW290526   7.318   0.336  12.841
62877SOL     OW90527  11.556   0.185  11.276
62877SOL    HW190528  11.476   0.178  11.327
62877SOL    HW290529  11.568   0.280  11.264
62878SOL     OW90530  10.683   0.011  13.136
62878SOL    HW190531  10.721   0.056  13.211
62878SOL    HW290532  10.683   0.076  13.066
62879SOL     OW90533   8.404  12.427  12.887
62879SOL    HW190534   8.310  12.418  12.899
62879SOL    HW290535   8.414  12.489  12.814
62880SOL     OW90536   5.731   6.856   6.307
62880SOL    HW190537   5.809   6.803   6.324
62880SOL    HW290538   5.658   6.796   6.322
62881SOL     OW90539   3.566  12.038  12.655
62881SOL    HW190540   3.582  12.118  12.704
62881SOL    HW290541   3.653  12.001  12.641
62882SOL     OW90542   3.455   8.035   4.051
62882SOL    HW190543   3.549   8.032   4.034
62882SOL    HW290544   3.427   7.944   4.047
62883SOL     OW90545   2.550   0.498  13.250
62883SOL    HW190546   2.540   0.554  13.173
62883SOL    HW290547   2.613   0.544  13.305
62884SOL     OW90548   3.807   5.715   0.275
62884SOL    HW190549   3.855   5.793   0.245
62884SOL    HW290550   3.725   5.718   0.226
62885SOL     OW90551  14.186   0.373   8.763
62885SOL    HW190552  14.228   0.327   8.835
62885SOL    HW290553  14.203   0.466   8.781
62886SOL     OW90554  11.326  13.944   4.067
62886SOL    HW190555  11.260  13.998   4.112
62886SOL    HW290556  11.298  13.854   4.084
62887SOL     OW90557   2.367  13.285   4.645
62887SOL    HW190558   2.403  13.263   4.560
62887SOL    HW290559   2.344  13.378   4.639
62888SOL     OW90560   3.941  11.277  11.011
62888SOL    HW190561   3.915  11.219  11.082
62888SOL    HW290562   3.889  11.249  10.936
62889SOL     OW90563   3.855   9.939  12.189
62889SOL    HW190564   3.828   9.906  12.275
62889SOL    HW290565   3.826   9.872  12.127
62890SOL     OW90566   8.921   9.883  10.400
62890SOL    HW190567   9.009   9.878  10.362
62890SOL    HW290568   8.886   9.795  10.392
62891SOL     OW90569   7.803   6.445   9.002
62891SOL    HW190570   7.867   6.448   8.931
62891SOL    HW290571   7.769   6.356   9.000
62892SOL     OW90572   9.759  13.505   1.108
62892SOL    HW190573   9.805  13.457   1.177
62892SOL    HW290574   9.792  13.595   1.115
62893SOL     OW90575   8.103  14.467  10.393
62893SOL    HW190576   8.010  14.474  10.373
62893SOL    HW290577   8.133  14.392  10.341
62894SOL     OW90578   3.237  12.261   8.753
62894SOL    HW190579   3.175  12.275   8.825
62894SOL    HW290580   3.192  12.298   8.676
62895SOL     OW90581   3.805  12.451   6.142
62895SOL    HW190582   3.786  12.398   6.064
62895SOL    HW290583   3.832  12.387   6.208
62896SOL     OW90584   2.082   3.459   6.735
62896SOL    HW190585   1.993   3.456   6.771
62896SOL    HW290586   2.139   3.439   6.809
62897SOL     OW90587   5.521   4.831   9.749
62897SOL    HW190588   5.541   4.924   9.758
62897SOL    HW290589   5.428   4.824   9.773
62898SOL     OW90590  12.659  13.176   5.220
62898SOL    HW190591  12.680  13.262   5.183
62898SOL    HW290592  12.735  13.122   5.201
62899SOL     OW90593   3.148   5.083  11.541
62899SOL    HW190594   3.194   5.063  11.460
62899SOL    HW290595   3.064   5.037  11.534
62900SOL     OW90596   1.427   5.276  11.651
62900SOL    HW190597   1.487   5.340  11.688
62900SOL    HW290598   1.381   5.239  11.726
62901SOL     OW90599  11.189  13.354   9.401
62901SOL    HW190600  11.244  13.429   9.424
62901SOL    HW290601  11.165  13.369   9.310
62902SOL     OW90602  12.669   1.394   5.209
62902SOL    HW190603  12.743   1.412   5.151
62902SOL    HW290604  12.709   1.388   5.296
62903SOL     OW90605   0.538   6.136  11.656
62903SOL    HW190606   0.451   6.095  11.655
62903SOL    HW290607   0.564   6.140  11.564
62904SOL     OW90608   3.076   2.918   7.149
62904SOL    HW190609   3.095   2.864   7.072
62904SOL    HW290610   3.070   3.007   7.114
62905SOL     OW90611   3.135  11.966   3.845
62905SOL    HW190612   3.049  11.968   3.804
62905SOL    HW290613   3.194  12.005   3.780
62906SOL     OW90614  12.405   8.933  11.398
62906SOL    HW190615  12.420   8.857  11.342
62906SOL    HW290616  12.476   8.994  11.377
62907SOL     OW90617   5.240  10.197  10.807
62907SOL    HW190618   5.257  10.291  10.799
62907SOL    HW290619   5.166  10.181  10.748
62908SOL     OW90620  12.857  14.314   1.774
62908SOL    HW190621  12.876  14.221   1.763
62908SOL    HW290622  12.812  14.339   1.693
62909SOL     OW90623   2.165   7.810   3.073
62909SOL    HW190624   2.132   7.872   3.139
62909SOL    HW290625   2.238   7.857   3.032
62910SOL     OW90626  12.951   5.728   7.970
62910SOL    HW190627  12.944   5.737   8.065
62910SOL    HW290628  12.973   5.816   7.939
62911SOL     OW90629   3.311   6.524   0.577
62911SOL    HW190630   3.255   6.531   0.654
62911SOL    HW290631   3.398   6.549   0.608
62912SOL     OW90632   4.494  13.741   7.491
62912SOL    HW190633   4.584  13.723   7.519
62912SOL    HW290634   4.494  13.834   7.469
62913SOL     OW90635   1.460   3.784   3.216
62913SOL    HW190636   1.523   3.721   3.181
62913SOL    HW290637   1.481   3.866   3.171
62914SOL     OW90638   4.916   1.695  10.732
62914SOL    HW190639   4.933   1.722  10.822
62914SOL    HW290640   4.966   1.757  10.679
62915SOL     OW90641  12.014  11.562   0.789
62915SOL    HW190642  11.937  11.550   0.844
62915SOL    HW290643  12.001  11.504   0.714
62916SOL     OW90644  14.306   0.968  10.021
62916SOL    HW190645  14.262   1.052  10.028
62916SOL    HW290646  14.398   0.987  10.040
62917SOL     OW90647  10.039  10.497   5.923
62917SOL    HW190648  10.000  10.573   5.881
62917SOL    HW290649  10.096  10.533   5.991
62918SOL     OW90650   4.908   3.791   2.452
62918SOL    HW190651   4.908   3.762   2.361
62918SOL    HW290652   4.934   3.713   2.502
62919SOL     OW90653   9.559   6.602   5.979
62919SOL    HW190654   9.526   6.674   5.925
62919SOL    HW290655   9.645   6.583   5.942
62920SOL     OW90656  11.220  12.043   7.807
62920SOL    HW190657  11.274  12.014   7.881
62920SOL    HW290658  11.151  11.977   7.801
62921SOL     OW90659   3.061  10.363   3.846
62921SOL    HW190660   3.109  10.387   3.925
62921SOL    HW290661   3.015  10.283   3.870
62922SOL     OW90662  12.282  10.786   5.994
62922SOL    HW190663  12.205  10.798   5.939
62922SOL    HW290664  12.286  10.866   6.046
62923SOL     OW90665   9.073   6.634   2.719
62923SOL    HW190666   9.069   6.708   2.659
62923SOL    HW290667   9.109   6.563   2.667
62924SOL     OW90668   1.410  14.179   2.405
62924SOL    HW190669   1.462  14.169   2.485
62924SOL    HW290670   1.381  14.091   2.384
62925SOL     OW90671  12.696  12.504   0.148
62925SOL    HW190672  12.716  12.594   0.124
62925SOL    HW290673  12.777  12.471   0.187
62926SOL     OW90674   0.922  14.147  12.314
62926SOL    HW190675   0.848  14.119  12.259
62926SOL    HW290676   0.994  14.089  12.289
62927SOL     OW90677  12.466  14.030   1.537
62927SOL    HW190678  12.384  13.982   1.525
62927SOL    HW290679  12.458  14.071   1.623
62928SOL     OW90680   3.742   5.977   4.564
62928SOL    HW190681   3.810   5.909   4.565
62928SOL    HW290682   3.676   5.946   4.625
62929SOL     OW90683   7.288   7.006  11.207
62929SOL    HW190684   7.335   6.927  11.179
62929SOL    HW290685   7.214   6.972  11.258
62930SOL     OW90686   9.555  13.340   2.567
62930SOL    HW190687   9.560  13.343   2.662
62930SOL    HW290688   9.643  13.313   2.539
62931SOL     OW90689   7.003   6.944   0.975
62931SOL    HW190690   6.979   6.924   0.885
62931SOL    HW290691   6.920   6.965   1.018
62932SOL     OW90692   1.146  13.372   9.388
62932SOL    HW190693   1.066  13.388   9.337
62932SOL    HW290694   1.114  13.343   9.473
62933SOL     OW90695  13.903   2.870   1.878
62933SOL    HW190696  13.986   2.833   1.851
62933SOL    HW290697  13.908   2.962   1.852
62934SOL     OW90698  13.163   7.632   8.110
62934SOL    HW190699  13.184   7.695   8.042
62934SOL    HW290700  13.068   7.639   8.121
62935SOL     OW90701   5.604   9.413  12.461
62935SOL    HW190702   5.614   9.494  12.512
62935SOL    HW290703   5.594   9.344  12.527
62936SOL     OW90704   9.024   3.269   8.895
62936SOL    HW190705   9.057   3.306   8.813
62936SOL    HW290706   8.956   3.330   8.924
62937SOL     OW90707   5.785   4.027   5.415
62937SOL    HW190708   5.717   4.092   5.434
62937SOL    HW290709   5.817   4.051   5.328
62938SOL     OW90710  12.003   7.585   1.292
62938SOL    HW190711  12.004   7.513   1.229
62938SOL    HW290712  11.944   7.650   1.255
62939SOL     OW90713   0.823   0.255   4.360
62939SOL    HW190714   0.884   0.198   4.313
62939SOL    HW290715   0.755   0.196   4.392
62940SOL     OW90716   7.955   9.338   3.690
62940SOL    HW190717   7.930   9.247   3.673
62940SOL    HW290718   7.908   9.361   3.770
62941SOL     OW90719   4.180   4.825   3.340
62941SOL    HW190720   4.202   4.766   3.412
62941SOL    HW290721   4.213   4.781   3.262
62942SOL     OW90722  12.584   9.686   1.747
62942SOL    HW190723  12.529   9.608   1.755
62942SOL    HW290724  12.658   9.658   1.693
62943SOL     OW90725   5.159   1.023   5.694
62943SOL    HW190726   5.153   0.991   5.783
62943SOL    HW290727   5.214   0.959   5.648
62944SOL     OW90728  10.601   7.510   7.834
62944SOL    HW190729  10.616   7.529   7.741
62944SOL    HW290730  10.626   7.418   7.844
62945SOL     OW90731  12.951   8.691   9.221
62945SOL    HW190732  12.882   8.743   9.179
62945SOL    HW290733  13.010   8.756   9.258
62946SOL     OW90734   3.766  12.969  14.053
62946SOL    HW190735   3.784  13.061  14.037
62946SOL    HW290736   3.834  12.922  14.005
62947SOL     OW90737   6.205   3.313   1.956
62947SOL    HW190738   6.179   3.401   1.929
62947SOL    HW290739   6.126   3.275   1.993
62948SOL     OW90740   0.232   3.740  14.611
62948SOL    HW190741   0.271   3.680  14.548
62948SOL    HW290742   0.147   3.701  14.632
62949SOL     OW90743  11.311   5.823   3.476
62949SOL    HW190744  11.257   5.877   3.533
62949SOL    HW290745  11.391   5.806   3.527
62950SOL     OW90746  14.770  11.187   8.303
62950SOL    HW190747  14.699  11.139   8.260
62950SOL    HW290748  14.758  11.168   8.396
62951SOL     OW90749   1.188   4.023   9.662
62951SOL    HW190750   1.227   4.106   9.637
62951SOL    HW290751   1.106   4.019   9.612
62952SOL     OW90752   4.696   4.981   6.486
62952SOL    HW190753   4.618   4.954   6.536
62952SOL    HW290754   4.754   4.906   6.490
62953SOL     OW90755  12.325   7.020   3.375
62953SOL    HW190756  12.348   7.094   3.319
62953SOL    HW290757  12.259   7.054   3.435
62954SOL     OW90758   9.589   2.051   2.803
62954SOL    HW190759   9.679   2.023   2.821
62954SOL    HW290760   9.593   2.089   2.716
62955SOL     OW90761   0.546   9.941  11.232
62955SOL    HW190762   0.595   9.904  11.306
62955SOL    HW290763   0.479   9.876  11.213
62956SOL     OW90764   0.211   7.780   8.272
62956SOL    HW190765   0.296   7.736   8.268
62956SOL    HW290766   0.220   7.855   8.213
62957SOL     OW90767   3.832  11.032  13.069
62957SOL    HW190768   3.837  10.944  13.106
62957SOL    HW290769   3.739  11.043  13.047
62958SOL     OW90770   7.334  14.854   2.151
62958SOL    HW190771   7.411  14.798   2.136
62958SOL    HW290772   7.318   0.028   2.067
62959SOL     OW90773   3.720   4.380   5.274
62959SOL    HW190774   3.705   4.474   5.282
62959SOL    HW290775   3.633   4.341   5.281
62960SOL     OW90776   1.678   0.815  11.393
62960SOL    HW190777   1.670   0.751  11.323
62960SOL    HW290778   1.732   0.885  11.356
62961SOL     OW90779  14.351   7.599  10.896
62961SOL    HW190780  14.430   7.606  10.843
62961SOL    HW290781  14.309   7.685  10.887
62962SOL     OW90782   2.687  13.022   9.127
62962SOL    HW190783   2.674  12.935   9.165
62962SOL    HW290784   2.690  13.007   9.033
62963SOL     OW90785  14.075  11.488   0.113
62963SOL    HW190786  14.055  11.576   0.146
62963SOL    HW290787  14.129  11.449   0.182
62964SOL     OW90788   6.334   8.555  12.807
62964SOL    HW190789   6.239   8.568  12.807
62964SOL    HW290790   6.367   8.620  12.870
62965SOL     OW90791   3.093   2.393  14.828
62965SOL    HW190792   3.063   2.379   0.050
62965SOL    HW290793   3.016   2.378  14.774
62966SOL     OW90794  13.276   1.056   1.701
62966SOL    HW190795  13.303   1.005   1.625
62966SOL    HW290796  13.338   1.031   1.770
62967SOL     OW90797   7.314  13.797   7.902
62967SOL    HW190798   7.244  13.736   7.925
62967SOL    HW290799   7.391  13.762   7.948
62968SOL     OW90800   4.357   5.585   5.191
62968SOL    HW190801   4.339   5.502   5.147
62968SOL    HW290802   4.438   5.616   5.152
62969SOL     OW90803   2.437   6.505   6.311
62969SOL    HW190804   2.422   6.506   6.217
62969SOL    HW290805   2.522   6.462   6.322
62970SOL     OW90806  11.690   4.242   4.026
62970SOL    HW190807  11.694   4.172   3.961
62970SOL    HW290808  11.690   4.196   4.110
62971SOL     OW90809   9.031  14.729   8.733
62971SOL    HW190810   9.020  14.762   8.644
62971SOL    HW290811   9.124  14.707   8.739
62972SOL     OW90812   8.817   8.017   9.915
62972SOL    HW190813   8.786   8.083   9.853
62972SOL    HW290814   8.905   7.994   9.885
62973SOL     OW90815  11.739  14.521  13.278
62973SOL    HW190816  11.772  14.435  13.253
62973SOL    HW290817  11.790  14.583  13.226
62974SOL     OW90818  14.314   3.402   7.242
62974SOL    HW190819  14.350   3.398   7.154
62974SOL    HW290820  14.307   3.496   7.261
62975SOL     OW90821   3.434   9.283   5.868
62975SOL    HW190822   3.432   9.262   5.775
62975SOL    HW290823   3.487   9.213   5.907
62976SOL     OW90824  13.670   4.015   7.267
62976SOL    HW190825  13.709   3.928   7.268
62976SOL    HW290826  13.740   4.073   7.294
62977SOL     OW90827   6.606   2.838   7.888
62977SOL    HW190828   6.642   2.919   7.925
62977SOL    HW290829   6.669   2.811   7.822
62978SOL     OW90830   0.745  11.204   6.749
62978SOL    HW190831   0.725  11.137   6.814
62978SOL    HW290832   0.676  11.195   6.683
62979SOL     OW90833   8.591   8.912  14.410
62979SOL    HW190834   8.504   8.881  14.433
62979SOL    HW290835   8.650   8.856  14.461
62980SOL     OW90836  13.285   9.457   0.776
62980SOL    HW190837  13.380   9.462   0.771
62980SOL    HW290838  13.260   9.526   0.838
62981SOL     OW90839   1.398   8.342  13.237
62981SOL    HW190840   1.411   8.386  13.321
62981SOL    HW290841   1.387   8.413  13.174
62982SOL     OW90842   5.661   7.923   9.370
62982SOL    HW190843   5.637   7.893   9.282
62982SOL    HW290844   5.599   7.878   9.428
62983SOL     OW90845   9.689  11.722   8.910
62983SOL    HW190846   9.782  11.721   8.933
62983SOL    HW290847   9.656  11.802   8.951
62984SOL     OW90848   9.897  11.583   9.640
62984SOL    HW190849   9.989  11.559   9.651
62984SOL    HW290850   9.849  11.507   9.674
62985SOL     OW90851   1.182  14.562   3.506
62985SOL    HW190852   1.094  14.578   3.539
62985SOL    HW290853   1.185  14.467   3.490
62986SOL     OW90854   4.068  13.662   9.128
62986SOL    HW190855   4.142  13.605   9.149
62986SOL    HW290856   4.030  13.623   9.050
62987SOL     OW90857   3.477   9.042   6.996
62987SOL    HW190858   3.441   9.071   6.912
62987SOL    HW290859   3.422   9.085   7.061
62988SOL     OW90860   9.880   6.122   1.607
62988SOL    HW190861   9.964   6.139   1.566
62988SOL    HW290862   9.882   6.029   1.630
62989SOL     OW90863   8.362   3.219  11.244
62989SOL    HW190864   8.368   3.127  11.271
62989SOL    HW290865   8.270   3.242  11.261
62990SOL     OW90866   5.552   4.940   0.409
62990SOL    HW190867   5.523   4.902   0.326
62990SOL    HW290868   5.647   4.949   0.399
62991SOL     OW90869   5.668   8.452   9.405
62991SOL    HW190870   5.578   8.426   9.387
62991SOL    HW290871   5.674   8.455   9.500
62992SOL     OW90872   2.732  12.893  14.229
62992SOL    HW190873   2.789  12.967  14.248
62992SOL    HW290874   2.669  12.927  14.165
62993SOL     OW90875   1.045  11.599   3.222
62993SOL    HW190876   1.003  11.655   3.287
62993SOL    HW290877   1.054  11.514   3.266
62994SOL     OW90878   2.875   3.821  10.222
62994SOL    HW190879   2.862   3.726  10.218
62994SOL    HW290880   2.909   3.844  10.136
62995SOL     OW90881  10.391   1.852   2.401
62995SOL    HW190882  10.469   1.898   2.372
62995SOL    HW290883  10.411   1.823   2.490
62996SOL     OW90884  14.383   2.698   0.954
62996SOL    HW190885  14.386   2.636   0.881
62996SOL    HW290886  14.302   2.676   1.000
62997SOL     OW90887   6.919   3.359   6.930
62997SOL    HW190888   6.870   3.321   6.856
62997SOL    HW290889   6.923   3.453   6.910
62998SOL     OW90890   7.094  10.795   2.014
62998SOL    HW190891   7.155  10.739   2.062
62998SOL    HW290892   7.008  10.757   2.032
62999SOL     OW90893   8.744  10.269   2.081
62999SOL    HW190894   8.820  10.261   2.022
62999SOL    HW290895   8.760  10.204   2.149
63000SOL     OW90896   3.838   0.407   6.067
63000SOL    HW190897   3.932   0.427   6.074
63000SOL    HW290898   3.831   0.314   6.092
63001SOL     OW90899   5.151   7.705   4.258
63001SOL    HW190900   5.210   7.729   4.330
63001SOL    HW290901   5.080   7.770   4.263
63002SOL     OW90902   0.992   4.319  10.216
63002SOL    HW190903   0.969   4.226  10.214
63002SOL    HW290904   0.979   4.350  10.126
63003SOL     OW90905   6.460   4.832   3.726
63003SOL    HW190906   6.402   4.907   3.712
63003SOL    HW290907   6.547   4.871   3.737
63004SOL     OW90908   6.446   9.847  13.575
63004SOL    HW190909   6.392   9.768  13.568
63004SOL    HW290910   6.503   9.830  13.650
63005SOL     OW90911   8.439   5.979  14.264
63005SOL    HW190912   8.438   6.067  14.303
63005SOL    HW290913   8.410   5.921  14.334
63006SOL     OW90914   6.822   4.330  11.241
63006SOL    HW190915   6.856   4.306  11.327
63006SOL    HW290916   6.734   4.363  11.258
63007SOL     OW90917   9.084   8.956   1.894
63007SOL    HW190918   9.017   9.019   1.865
63007SOL    HW290919   9.034   8.881   1.925
63008SOL     OW90920   0.627   8.975   7.477
63008SOL    HW190921   0.563   9.036   7.515
63008SOL    HW290922   0.697   9.031   7.443
63009SOL     OW90923  13.577   7.756   3.839
63009SOL    HW190924  13.561   7.848   3.818
63009SOL    HW290925  13.672   7.748   3.843
63010SOL     OW90926   5.949  11.088  14.140
63010SOL    HW190927   5.970  11.171  14.185
63010SOL    HW290928   5.993  11.021  14.192
63011SOL     OW90929   7.072  10.838   6.799
63011SOL    HW190930   7.144  10.854   6.861
63011SOL    HW290931   7.077  10.912   6.738
63012SOL     OW90932   0.655  14.326   3.974
63012SOL    HW190933   0.572  14.283   3.996
63012SOL    HW290934   0.642  14.418   3.998
63013SOL     OW90935   9.519  11.439  13.705
63013SOL    HW190936   9.512  11.397  13.791
63013SOL    HW290937   9.568  11.376  13.652
63014SOL     OW90938   5.569   3.869   5.684
63014SOL    HW190939   5.590   3.959   5.706
63014SOL    HW290940   5.494   3.876   5.624
63015SOL     OW90941   6.576   1.869   6.349
63015SOL    HW190942   6.634   1.795   6.331
63015SOL    HW290943   6.534   1.847   6.432
63016SOL     OW90944   1.000   9.911  14.011
63016SOL    HW190945   1.075   9.891  14.068
63016SOL    HW290946   0.970   9.997  14.040
63017SOL     OW90947   4.040  12.063  13.554
63017SOL    HW190948   4.067  11.971  13.559
63017SOL    HW290949   4.090  12.106  13.624
63018SOL     OW90950   0.408   7.495   7.661
63018SOL    HW190951   0.449   7.479   7.575
63018SOL    HW290952   0.318   7.463   7.650
63019SOL     OW90953  13.933   1.264   3.308
63019SOL    HW190954  13.994   1.237   3.377
63019SOL    HW290955  13.915   1.184   3.259
63020SOL     OW90956   1.076   1.764  13.029
63020SOL    HW190957   1.090   1.745  12.936
63020SOL    HW290958   1.156   1.809  13.056
63021SOL     OW90959   1.636  11.642  13.356
63021SOL    HW190960   1.575  11.569  13.370
63021SOL    HW290961   1.581  11.719  13.353
63022SOL     OW90962  13.655  10.955   8.089
63022SOL    HW190963  13.581  10.989   8.037
63022SOL    HW290964  13.621  10.950   8.178
63023SOL     OW90965   6.634   4.852   9.861
63023SOL    HW190966   6.586   4.771   9.849
63023SOL    HW290967   6.567   4.920   9.860
63024SOL     OW90968  10.100  11.739  12.163
63024SOL    HW190969  10.064  11.767  12.247
63024SOL    HW290970  10.084  11.645  12.160
63025SOL     OW90971  11.600   3.850  14.198
63025SOL    HW190972  11.586   3.761  14.167
63025SOL    HW290973  11.515   3.876  14.235
63026SOL     OW90974  12.991   8.663  13.445
63026SOL    HW190975  13.061   8.703  13.497
63026SOL    HW290976  12.916   8.722  13.456
63027SOL     OW90977   1.948  13.100   6.752
63027SOL    HW190978   2.034  13.079   6.791
63027SOL    HW290979   1.963  13.098   6.658
63028SOL     OW90980  12.143   6.835   2.830
63028SOL    HW190981  12.101   6.751   2.847
63028SOL    HW290982  12.080   6.900   2.859
63029SOL     OW90983   9.554  11.385  14.819
63029SOL    HW190984   9.466  11.364  14.789
63029SOL    HW290985   9.611  11.369  14.743
63030SOL     OW90986  10.894   9.097   9.749
63030SOL    HW190987  10.890   9.020   9.693
63030SOL    HW290988  10.987   9.108   9.769
63031SOL     OW90989   6.608  12.745   7.052
63031SOL    HW190990   6.691  12.787   7.030
63031SOL    HW290991   6.542  12.804   7.016
63032SOL     OW90992   9.459   6.016   4.710
63032SOL    HW190993   9.443   6.072   4.786
63032SOL    HW290994   9.474   5.929   4.747
63033SOL     OW90995  11.226   4.798   0.224
63033SOL    HW190996  11.172   4.856   0.170
63033SOL    HW290997  11.199   4.710   0.200
63034SOL     OW90998   7.156   9.937   5.849
63034SOL    HW190999   7.128   9.955   5.938
63034SOL    HW291000   7.209  10.012   5.824
63035SOL     OW91001   5.011   1.189  11.771
63035SOL    HW191002   4.982   1.227  11.854
63035SOL    HW291003   5.026   1.096  11.791
63036SOL     OW91004   9.904  12.470   9.305
63036SOL    HW191005   9.903  12.411   9.380
63036SOL    HW291006   9.969  12.433   9.245
63037SOL     OW91007   6.629  14.122   6.793
63037SOL    HW191008   6.562  14.057   6.769
63037SOL    HW291009   6.687  14.075   6.853
63038SOL     OW91010   5.279   2.678   7.397
63038SOL    HW191011   5.344   2.744   7.373
63038SOL    HW291012   5.258   2.697   7.489
63039SOL     OW91013  11.335   6.628   4.157
63039SOL    HW191014  11.387   6.692   4.108
63039SOL    HW291015  11.355   6.647   4.249
63040SOL     OW91016  10.427   4.703  14.116
63040SOL    HW191017  10.434   4.632  14.052
63040SOL    HW291018  10.366   4.765  14.077
63041SOL     OW91019   7.352  10.870  13.859
63041SOL    HW191020   7.389  10.834  13.940
63041SOL    HW291021   7.298  10.798  13.824
63042SOL     OW91022   9.021   9.440   4.280
63042SOL    HW191023   8.951   9.444   4.345
63042SOL    HW291024   9.099   9.417   4.330
63043SOL     OW91025   5.178   6.152  14.360
63043SOL    HW191026   5.088   6.183  14.365
63043SOL    HW291027   5.230   6.232  14.347
63044SOL     OW91028   9.676   6.726   3.582
63044SOL    HW191029   9.675   6.803   3.638
63044SOL    HW291030   9.584   6.711   3.560
63045SOL     OW91031  13.138  13.849   1.488
63045SOL    HW191032  13.170  13.822   1.402
63045SOL    HW291033  13.172  13.937   1.500
63046SOL     OW91034  10.474   8.707  14.410
63046SOL    HW191035  10.560   8.689  14.372
63046SOL    HW291036  10.412   8.673  14.345
63047SOL     OW91037   5.636  13.394   0.961
63047SOL    HW191038   5.581  13.422   1.035
63047SOL    HW291039   5.600  13.309   0.936
63048SOL     OW91040  10.083  12.279   7.074
63048SOL    HW191041  10.122  12.280   7.161
63048SOL    HW291042  10.133  12.213   7.026
63049SOL     OW91043   2.001  11.175   5.475
63049SOL    HW191044   1.950  11.212   5.547
63049SOL    HW291045   1.955  11.095   5.451
63050SOL     OW91046   2.433   3.090  12.121
63050SOL    HW191047   2.506   3.038  12.089
63050SOL    HW291048   2.433   3.168  12.066
63051SOL     OW91049   0.230   0.597   4.131
63051SOL    HW191050   0.302   0.535   4.119
63051SOL    HW291051   0.272   0.678   4.158
63052SOL     OW91052  12.546   3.724   2.632
63052SOL    HW191053  12.598   3.788   2.680
63052SOL    HW291054  12.611   3.667   2.591
63053SOL     OW91055   7.420   1.733   4.159
63053SOL    HW191056   7.396   1.737   4.251
63053SOL    HW291057   7.395   1.644   4.132
63054SOL     OW91058   3.481   6.899  12.879
63054SOL    HW191059   3.427   6.926  12.805
63054SOL    HW291060   3.564   6.945  12.866
63055SOL     OW91061  10.280   6.219  13.900
63055SOL    HW191062  10.364   6.181  13.926
63055SOL    HW291063  10.295   6.250  13.811
63056SOL     OW91064  13.354  13.744   7.542
63056SOL    HW191065  13.343  13.655   7.508
63056SOL    HW291066  13.281  13.756   7.602
63057SOL     OW91067   4.804   6.002  13.673
63057SOL    HW191068   4.890   6.037  13.651
63057SOL    HW291069   4.800   6.005  13.768
63058SOL     OW91070  10.591   3.769   0.841
63058SOL    HW191071  10.684   3.789   0.835
63058SOL    HW291072  10.561   3.815   0.920
63059SOL     OW91073   5.241   0.268   4.026
63059SOL    HW191074   5.219   0.181   3.993
63059SOL    HW291075   5.172   0.325   3.991
63060SOL     OW91076   6.666   9.278   0.961
63060SOL    HW191077   6.698   9.195   0.927
63060SOL    HW291078   6.637   9.259   1.050
63061SOL     OW91079   1.285   5.690  11.924
63061SOL    HW191080   1.219   5.621  11.916
63061SOL    HW291081   1.320   5.679  12.012
63062SOL     OW91082   3.068   2.318   2.498
63062SOL    HW191083   3.092   2.246   2.555
63062SOL    HW291084   2.978   2.300   2.472
63063SOL     OW91085  10.837   6.373  12.782
63063SOL    HW191086  10.773   6.306  12.805
63063SOL    HW291087  10.922   6.334  12.803
63064SOL     OW91088   8.078   0.840  12.572
63064SOL    HW191089   8.034   0.863  12.490
63064SOL    HW291090   8.044   0.753  12.594
63065SOL     OW91091   0.928  13.710   9.712
63065SOL    HW191092   0.908  13.727   9.620
63065SOL    HW291093   0.899  13.789   9.757
63066SOL     OW91094   2.389   3.882   6.538
63066SOL    HW191095   2.481   3.906   6.542
63066SOL    HW291096   2.355   3.929   6.462
63067SOL     OW91097   2.669  14.341  11.383
63067SOL    HW191098   2.726  14.311  11.454
63067SOL    HW291099   2.666  14.268  11.322
63068SOL     OW91100   7.159  14.239  10.137
63068SOL    HW191101   7.195  14.294  10.068
63068SOL    HW291102   7.181  14.285  10.219
63069SOL     OW91103  11.661   2.226  12.189
63069SOL    HW191104  11.577   2.271  12.178
63069SOL    HW291105  11.688   2.203  12.100
63070SOL     OW91106   3.929  12.762  11.445
63070SOL    HW191107   4.001  12.713  11.404
63070SOL    HW291108   3.969  12.843  11.475
63071SOL     OW91109   9.518   0.345   3.452
63071SOL    HW191110   9.613   0.348   3.439
63071SOL    HW291111   9.483   0.376   3.369
63072SOL     OW91112  13.972   1.088   2.704
63072SOL    HW191113  13.970   1.121   2.794
63072SOL    HW291114  13.882   1.095   2.674
63073SOL     OW91115   6.754   5.482  13.445
63073SOL    HW191116   6.720   5.494  13.357
63073SOL    HW291117   6.728   5.561  13.492
63074SOL     OW91118  11.624   4.336  12.883
63074SOL    HW191119  11.597   4.345  12.975
63074SOL    HW291120  11.552   4.287  12.842
63075SOL     OW91121   4.515  13.748  10.446
63075SOL    HW191122   4.580  13.691  10.486
63075SOL    HW291123   4.514  13.826  10.501
63076SOL     OW91124   3.682  11.475   4.390
63076SOL    HW191125   3.631  11.444   4.315
63076SOL    HW291126   3.620  11.477   4.462
63077SOL     OW91127  14.085   5.667  10.645
63077SOL    HW191128  14.000   5.631  10.668
63077SOL    HW291129  14.067   5.739  10.585
63078SOL     OW91130  13.618  13.222   8.781
63078SOL    HW191131  13.609  13.164   8.857
63078SOL    HW291132  13.672  13.173   8.719
63079SOL     OW91133  14.379   2.727  13.658
63079SOL    HW191134  14.403   2.643  13.618
63079SOL    HW291135  14.463   2.765  13.685
63080SOL     OW91136   5.909   8.030  10.844
63080SOL    HW191137   5.975   7.962  10.858
63080SOL    HW291138   5.825   7.982  10.845
63081SOL     OW91139   7.886   6.663   3.190
63081SOL    HW191140   7.889   6.620   3.275
63081SOL    HW291141   7.977   6.685   3.171
63082SOL     OW91142   6.721  11.185  14.500
63082SOL    HW191143   6.689  11.272  14.477
63082SOL    HW291144   6.693  11.173  14.591
63083SOL     OW91145  10.886   2.478   0.181
63083SOL    HW191146  10.894   2.383   0.181
63083SOL    HW291147  10.816   2.496   0.118
63084SOL     OW91148   6.068  13.428   2.131
63084SOL    HW191149   5.992  13.459   2.179
63084SOL    HW291150   6.061  13.333   2.134
63085SOL     OW91151  11.253   1.342  14.125
63085SOL    HW191152  11.348   1.352  14.117
63085SOL    HW291153  11.241   1.276  14.193
63086SOL     OW91154   1.458  13.106   6.708
63086SOL    HW191155   1.469  13.131   6.800
63086SOL    HW291156   1.535  13.141   6.664
63087SOL     OW91157   1.441   6.216   3.822
63087SOL    HW191158   1.493   6.184   3.748
63087SOL    HW291159   1.351   6.210   3.792
63088SOL     OW91160   7.943  11.059  12.449
63088SOL    HW191161   7.860  11.013  12.434
63088SOL    HW291162   7.941  11.081  12.542
63089SOL     OW91163   4.470   7.771   7.560
63089SOL    HW191164   4.550   7.812   7.528
63089SOL    HW291165   4.457   7.696   7.503
63090SOL     OW91166  12.007  13.369   3.451
63090SOL    HW191167  12.100  13.349   3.466
63090SOL    HW291168  11.991  13.447   3.504
63091SOL     OW91169   4.177   5.978   8.831
63091SOL    HW191170   4.110   5.929   8.878
63091SOL    HW291171   4.128   6.033   8.769
63092SOL     OW91172  12.698  11.152  12.699
63092SOL    HW191173  12.620  11.145  12.754
63092SOL    HW291174  12.728  11.062  12.689
63093SOL     OW91175   1.904  11.580   6.441
63093SOL    HW191176   1.884  11.604   6.351
63093SOL    HW291177   1.993  11.544   6.437
63094SOL     OW91178   7.674   2.153  10.975
63094SOL    HW191179   7.590   2.198  10.981
63094SOL    HW291180   7.737   2.212  11.017
63095SOL     OW91181  14.388   4.154  13.428
63095SOL    HW191182  14.383   4.232  13.372
63095SOL    HW291183  14.480   4.147  13.452
63096SOL     OW91184  10.898  14.189   6.973
63096SOL    HW191185  10.813  14.194   6.930
63096SOL    HW291186  10.919  14.279   6.996
63097SOL     OW91187  14.063   9.832  12.616
63097SOL    HW191188  14.012   9.910  12.595
63097SOL    HW291189  14.051   9.819  12.711
63098SOL     OW91190   2.525   7.699   5.578
63098SOL    HW191191   2.597   7.752   5.614
63098SOL    HW291192   2.562   7.659   5.499
63099SOL     OW91193  10.537  14.053   4.697
63099SOL    HW191194  10.540  14.084   4.787
63099SOL    HW291195  10.460  13.996   4.694
63100SOL     OW91196   5.031   9.165  12.123
63100SOL    HW191197   4.979   9.187  12.045
63100SOL    HW291198   5.121   9.180  12.096
63101SOL     OW91199   5.804   7.471   1.559
63101SOL    HW191200   5.823   7.551   1.509
63101SOL    HW291201   5.751   7.418   1.499
63102SOL     OW91202   2.382   1.450   0.689
63102SOL    HW191203   2.460   1.394   0.699
63102SOL    HW291204   2.381   1.502   0.769
63103SOL     OW91205   7.510   2.994   8.346
63103SOL    HW191206   7.442   3.061   8.345
63103SOL    HW291207   7.589   3.040   8.318
63104SOL     OW91208  14.329   9.038   6.073
63104SOL    HW191209  14.269   8.991   6.130
63104SOL    HW291210  14.347   9.120   6.119
63105SOL     OW91211  13.446  13.216  10.280
63105SOL    HW191212  13.384  13.271  10.233
63105SOL    HW291213  13.431  13.236  10.373
63106SOL     OW91214   0.394  14.022  10.659
63106SOL    HW191215   0.340  14.040  10.582
63106SOL    HW291216   0.331  13.994  10.726
63107SOL     OW91217   2.941  11.521   5.518
63107SOL    HW191218   2.917  11.457   5.451
63107SOL    HW291219   2.925  11.606   5.477
63108SOL     OW91220   9.432   7.040   5.977
63108SOL    HW191221   9.505   6.991   5.939
63108SOL    HW291222   9.362   6.976   5.987
63109SOL     OW91223   8.594   8.456  12.024
63109SOL    HW191224   8.621   8.485  11.937
63109SOL    HW291225   8.617   8.529  12.081
63110SOL     OW91226   3.506   9.003   6.305
63110SOL    HW191227   3.491   8.915   6.269
63110SOL    HW291228   3.599   9.003   6.330
63111SOL     OW91229   5.478   3.965   0.553
63111SOL    HW191230   5.426   3.995   0.479
63111SOL    HW291231   5.447   4.017   0.627
63112SOL     OW91232   2.020   0.399   6.786
63112SOL    HW191233   2.071   0.467   6.829
63112SOL    HW291234   2.061   0.389   6.701
63113SOL     OW91235   4.091   1.665   8.209
63113SOL    HW191236   4.046   1.661   8.124
63113SOL    HW291237   4.102   1.759   8.225
63114SOL     OW91238   9.139  11.472   0.207
63114SOL    HW191239   9.146  11.502   0.298
63114SOL    HW291240   9.066  11.411   0.208
63115SOL     OW91241   0.728   7.866  12.857
63115SOL    HW191242   0.771   7.829  12.780
63115SOL    HW291243   0.665   7.799  12.885
63116SOL     OW91244  11.849   3.868   3.334
63116SOL    HW191245  11.917   3.891   3.271
63116SOL    HW291246  11.779   3.931   3.317
63117SOL     OW91247   5.044   0.915   1.391
63117SOL    HW191248   5.047   1.010   1.404
63117SOL    HW291249   5.136   0.888   1.393
63118SOL     OW91250  13.879   8.591   5.955
63118SOL    HW191251  13.965   8.554   5.977
63118SOL    HW291252  13.896   8.684   5.940
63119SOL     OW91253   6.475  14.593   0.965
63119SOL    HW191254   6.389  14.551   0.964
63119SOL    HW291255   6.492  14.610   1.058
63120SOL     OW91256   4.006   9.478  13.270
63120SOL    HW191257   4.055   9.424  13.208
63120SOL    HW291258   4.029   9.568  13.246
63121SOL     OW91259  14.398   1.046   1.461
63121SOL    HW191260  14.487   1.014   1.446
63121SOL    HW291261  14.358   0.980   1.519
63122SOL     OW91262   4.876  14.683   7.044
63122SOL    HW191263   4.966  14.714   7.031
63122SOL    HW291264   4.861  14.621   6.973
63123SOL     OW91265   9.958   4.539   1.737
63123SOL    HW191266   9.957   4.586   1.821
63123SOL    HW291267   9.875   4.491   1.736
63124SOL     OW91268   5.793  14.777   9.084
63124SOL    HW191269   5.706  14.769   9.122
63124SOL    HW291270   5.783  14.842   9.015
63125SOL     OW91271   7.926   7.085   3.475
63125SOL    HW191272   7.982   7.073   3.399
63125SOL    HW291273   7.842   7.115   3.440
63126SOL     OW91274   7.946   5.657   0.726
63126SOL    HW191275   8.004   5.637   0.653
63126SOL    HW291276   7.858   5.653   0.689
63127SOL     OW91277  12.343  11.731  13.368
63127SOL    HW191278  12.326  11.658  13.429
63127SOL    HW291279  12.260  11.743  13.322
63128SOL     OW91280   2.936   1.690  14.440
63128SOL    HW191281   2.916   1.703  14.347
63128SOL    HW291282   2.937   1.595  14.451
63129SOL     OW91283   4.605   3.029   5.842
63129SOL    HW191284   4.618   3.108   5.894
63129SOL    HW291285   4.555   2.971   5.900
63130SOL     OW91286   5.039   4.997  13.705
63130SOL    HW191287   4.999   4.998  13.618
63130SOL    HW291288   4.964   4.997  13.765
63131SOL     OW91289   7.073  13.554   2.563
63131SOL    HW191290   7.061  13.547   2.468
63131SOL    HW291291   7.055  13.465   2.595
63132SOL     OW91292  11.369   3.708   9.049
63132SOL    HW191293  11.388   3.785   8.995
63132SOL    HW291294  11.283   3.679   9.019
63133SOL     OW91295  10.527   1.835  13.226
63133SOL    HW191296  10.472   1.913  13.229
63133SOL    HW291297  10.544   1.822  13.132
63134SOL     OW91298   9.427   3.437  10.486
63134SOL    HW191299   9.412   3.343  10.493
63134SOL    HW291300   9.341   3.477  10.497
63135SOL     OW91301   7.085  11.301  11.103
63135SOL    HW191302   7.130  11.280  11.185
63135SOL    HW291303   7.152  11.341  11.048
63136SOL     OW91304   4.271   6.346   1.373
63136SOL    HW191305   4.207   6.293   1.327
63136SOL    HW291306   4.338   6.284   1.402
63137SOL     OW91307   9.500   5.831  13.133
63137SOL    HW191308   9.595   5.829  13.142
63137SOL    HW291309   9.476   5.743  13.103
63138SOL     OW91310  13.362  12.646  10.664
63138SOL    HW191311  13.271  12.650  10.693
63138SOL    HW291312  13.395  12.735  10.678
63139SOL     OW91313  11.915   0.427  12.871
63139SOL    HW191314  11.983   0.490  12.848
63139SOL    HW291315  11.927   0.412  12.965
63140SOL     OW91316   9.074  10.541   0.164
63140SOL    HW191317   9.007  10.608   0.150
63140SOL    HW291318   9.155  10.590   0.178
63141SOL     OW91319  10.902  10.753  11.421
63141SOL    HW191320  10.925  10.728  11.331
63141SOL    HW291321  10.807  10.742  11.425
63142SOL     OW91322   9.216   8.100  11.682
63142SOL    HW191323   9.237   8.188  11.651
63142SOL    HW291324   9.123   8.104  11.704
63143SOL     OW91325   7.219  12.138   4.216
63143SOL    HW191326   7.245  12.099   4.299
63143SOL    HW291327   7.263  12.085   4.150
63144SOL     OW91328   7.885   8.722   0.551
63144SOL    HW191329   7.835   8.747   0.473
63144SOL    HW291330   7.899   8.805   0.597
63145SOL     OW91331  10.696   9.285   1.600
63145SOL    HW191332  10.718   9.203   1.555
63145SOL    HW291333  10.753   9.286   1.677
63146SOL     OW91334   1.829   0.253  11.981
63146SOL    HW191335   1.862   0.261  11.892
63146SOL    HW291336   1.761   0.321  11.987
63147SOL     OW91337  10.976   2.659   1.456
63147SOL    HW191338  10.970   2.682   1.363
63147SOL    HW291339  10.901   2.602   1.471
63148SOL     OW91340  13.742   3.747   7.510
63148SOL    HW191341  13.654   3.782   7.502
63148SOL    HW291342  13.762   3.755   7.604
63149SOL     OW91343  10.676   5.682  11.698
63149SOL    HW191344  10.585   5.660  11.680
63149SOL    HW291345  10.678   5.707  11.791
63150SOL     OW91346   1.435   4.149   0.244
63150SOL    HW191347   1.381   4.179   0.318
63150SOL    HW291348   1.400   4.196   0.168
63151SOL     OW91349  10.950  10.658   3.426
63151SOL    HW191350  10.917  10.585   3.479
63151SOL    HW291351  11.002  10.710   3.488
63152SOL     OW91352   4.140  10.921   7.189
63152SOL    HW191353   4.204  10.854   7.166
63152SOL    HW291354   4.188  11.003   7.180
63153SOL     OW91355   2.250  12.951   0.352
63153SOL    HW191356   2.285  12.962   0.440
63153SOL    HW291357   2.328  12.946   0.296
63154SOL     OW91358   6.133   4.319   6.184
63154SOL    HW191359   6.204   4.377   6.157
63154SOL    HW291360   6.133   4.249   6.119
63155SOL     OW91361   5.114   7.181   3.651
63155SOL    HW191362   5.070   7.230   3.721
63155SOL    HW291363   5.170   7.246   3.608
63156SOL     OW91364   5.621  14.249   1.110
63156SOL    HW191365   5.595  14.249   1.018
63156SOL    HW291366   5.708  14.290   1.111
63157SOL     OW91367   0.645   8.948  14.519
63157SOL    HW191368   0.648   9.011  14.447
63157SOL    HW291369   0.555   8.915  14.518
63158SOL     OW91370   3.352  12.643   9.463
63158SOL    HW191371   3.426  12.638   9.524
63158SOL    HW291372   3.299  12.716   9.494
63159SOL     OW91373   1.879   5.125   6.978
63159SOL    HW191374   1.871   5.198   6.917
63159SOL    HW291375   1.934   5.062   6.932
63160SOL     OW91376   8.403   3.048  12.005
63160SOL    HW191377   8.320   3.095  11.993
63160SOL    HW291378   8.408   3.031  12.099
63161SOL     OW91379   7.014  13.666   0.876
63161SOL    HW191380   6.953  13.647   0.805
63161SOL    HW291381   7.038  13.581   0.912
63162SOL     OW91382   4.526   5.087  12.573
63162SOL    HW191383   4.453   5.148  12.585
63162SOL    HW291384   4.503   5.039  12.493
63163SOL     OW91385   9.095   4.385  13.967
63163SOL    HW191386   9.003   4.407  13.952
63163SOL    HW291387   9.095   4.348  14.056
63164SOL     OW91388   9.902  10.497   3.393
63164SOL    HW191389   9.840  10.437   3.435
63164SOL    HW291390   9.894  10.479   3.300
63165SOL     OW91391   8.357  10.732  13.751
63165SOL    HW191392   8.325  10.652  13.793
63165SOL    HW291393   8.337  10.801  13.814
63166SOL     OW91394   6.241  11.915   0.253
63166SOL    HW191395   6.245  12.011   0.252
63166SOL    HW291396   6.330  11.887   0.232
63167SOL     OW91397   3.850   3.767   4.665
63167SOL    HW191398   3.795   3.718   4.604
63167SOL    HW291399   3.901   3.827   4.609
63168SOL     OW91400   1.893  14.766  10.799
63168SOL    HW191401   1.892  14.695  10.863
63168SOL    HW291402   1.849  14.730  10.722
63169SOL     OW91403  10.174  12.271  12.078
63169SOL    HW191404  10.176  12.189  12.127
63169SOL    HW291405  10.081  12.291  12.068
63170SOL     OW91406   1.237  10.144   2.070
63170SOL    HW191407   1.258  10.051   2.058
63170SOL    HW291408   1.320  10.184   2.096
63171SOL     OW91409   2.909  14.036   5.947
63171SOL    HW191410   2.831  13.984   5.965
63171SOL    HW291411   2.894  14.120   5.989
63172SOL     OW91412   9.462   8.346   2.639
63172SOL    HW191413   9.528   8.403   2.677
63172SOL    HW291414   9.379   8.389   2.660
63173SOL     OW91415   3.396   5.011   3.433
63173SOL    HW191416   3.321   5.043   3.483
63173SOL    HW291417   3.432   4.940   3.486
63174SOL     OW91418  11.856   1.421   3.534
63174SOL    HW191419  11.783   1.369   3.568
63174SOL    HW291420  11.816   1.481   3.472
63175SOL     OW91421  13.463   4.173   1.530
63175SOL    HW191422  13.397   4.234   1.497
63175SOL    HW291423  13.464   4.102   1.467
63176SOL     OW91424   5.382   8.630   0.087
63176SOL    HW191425   5.324   8.674   0.026
63176SOL    HW291426   5.470   8.650   0.055
63177SOL     OW91427   1.211   2.810   7.287
63177SOL    HW191428   1.117   2.824   7.271
63177SOL    HW291429   1.226   2.719   7.260
63178SOL     OW91430  11.355  11.156   0.775
63178SOL    HW191431  11.301  11.158   0.696
63178SOL    HW291432  11.295  11.181   0.846
63179SOL     OW91433  12.576   3.084   3.784
63179SOL    HW191434  12.650   3.114   3.836
63179SOL    HW291435  12.590   3.121   3.697
63180SOL     OW91436  14.418   5.083  11.610
63180SOL    HW191437  14.358   5.071  11.537
63180SOL    HW291438  14.366   5.062  11.688
63181SOL     OW91439  13.145  10.832   9.462
63181SOL    HW191440  13.070  10.876   9.502
63181SOL    HW291441  13.120  10.739   9.460
63182SOL     OW91442   3.502  12.643   6.979
63182SOL    HW191443   3.431  12.607   6.925
63182SOL    HW291444   3.557  12.690   6.916
63183SOL     OW91445  12.442  11.725  11.925
63183SOL    HW191446  12.354  11.707  11.959
63183SOL    HW291447  12.472  11.801  11.976
63184SOL     OW91448   1.133   7.488   8.912
63184SOL    HW191449   1.154   7.406   8.957
63184SOL    HW291450   1.120   7.552   8.983
63185SOL     OW91451   9.742  11.210   6.398
63185SOL    HW191452   9.807  11.218   6.468
63185SOL    HW291453   9.659  11.230   6.441
63186SOL     OW91454  13.291  13.695   3.833
63186SOL    HW191455  13.206  13.733   3.808
63186SOL    HW291456  13.295  13.706   3.928
63187SOL     OW91457  11.667   4.990   6.082
63187SOL    HW191458  11.679   4.923   6.014
63187SOL    HW291459  11.641   5.068   6.034
63188SOL     OW91460   3.827   3.742   2.992
63188SOL    HW191461   3.825   3.830   3.030
63188SOL    HW291462   3.793   3.685   3.061
63189SOL     OW91463   4.379   9.261  11.426
63189SOL    HW191464   4.428   9.294  11.502
63189SOL    HW291465   4.389   9.330  11.360
63190SOL     OW91466  12.727  10.574  11.180
63190SOL    HW191467  12.751  10.602  11.091
63190SOL    HW291468  12.695  10.653  11.222
63191SOL     OW91469   1.784  13.509   2.867
63191SOL    HW191470   1.763  13.569   2.938
63191SOL    HW291471   1.747  13.549   2.789
63192SOL     OW91472  11.459  12.629   4.803
63192SOL    HW191473  11.526  12.685   4.844
63192SOL    HW291474  11.402  12.690   4.757
63193SOL     OW91475   6.549  11.422  14.087
63193SOL    HW191476   6.486  11.423  14.160
63193SOL    HW291477   6.613  11.356  14.111
63194SOL     OW91478  13.165   4.772   3.482
63194SOL    HW191479  13.159   4.809   3.570
63194SOL    HW291480  13.075   4.752   3.458
63195SOL     OW91481  11.620  10.162   7.378
63195SOL    HW191482  11.634  10.257   7.387
63195SOL    HW291483  11.671  10.124   7.449
63196SOL     OW91484   3.288  14.557   4.103
63196SOL    HW191485   3.354  14.604   4.154
63196SOL    HW291486   3.322  14.468   4.096
63197SOL     OW91487  12.660   7.296  13.749
63197SOL    HW191488  12.689   7.207  13.773
63197SOL    HW291489  12.692   7.351  13.820
63198SOL     OW91490   5.652  13.851   4.917
63198SOL    HW191491   5.747  13.843   4.921
63198SOL    HW291492   5.636  13.944   4.899
63199SOL     OW91493   9.155  11.102   5.733
63199SOL    HW191494   9.174  11.077   5.823
63199SOL    HW291495   9.102  11.182   5.740
63200SOL     OW91496   4.169   7.887   7.491
63200SOL    HW191497   4.197   7.797   7.476
63200SOL    HW291498   4.165   7.925   7.403
63201SOL     OW91499  13.586   9.387  11.458
63201SOL    HW191500  13.651   9.413  11.392
63201SOL    HW291501  13.632   9.327  11.516
63202SOL     OW91502   2.939   3.966  12.699
63202SOL    HW191503   2.913   3.885  12.741
63202SOL    HW291504   3.017   3.943  12.647
63203SOL     OW91505   0.800  14.436  10.436
63203SOL    HW191506   0.708  14.413  10.428
63203SOL    HW291507   0.847  14.354  10.423
63204SOL     OW91508   3.378  14.038   0.979
63204SOL    HW191509   3.335  14.118   0.950
63204SOL    HW291510   3.390  13.987   0.900
63205SOL     OW91511   9.194  12.526   3.272
63205SOL    HW191512   9.282  12.526   3.234
63205SOL    HW291513   9.209  12.513   3.365
63206SOL     OW91514   7.773   7.039  12.859
63206SOL    HW191515   7.868   7.044  12.872
63206SOL    HW291516   7.750   7.123  12.820
63207SOL     OW91517   0.072   0.764   2.839
63207SOL    HW191518   0.034   0.777   2.926
63207SOL    HW291519  14.866   0.774   2.779
63208SOL     OW91520   0.495   6.221  13.217
63208SOL    HW191521   0.450   6.183  13.142
63208SOL    HW291522   0.449   6.303  13.233
63209SOL     OW91523   2.624  12.652   5.779
63209SOL    HW191524   2.576  12.729   5.747
63209SOL    HW291525   2.670  12.619   5.703
63210SOL     OW91526   5.369  13.658   5.581
63210SOL    HW191527   5.332  13.724   5.640
63210SOL    HW291528   5.321  13.670   5.499
63211SOL     OW91529  14.205   5.745  12.072
63211SOL    HW191530  14.164   5.691  12.140
63211SOL    HW291531  14.281   5.783  12.114
63212SOL     OW91532   4.136  14.030   2.270
63212SOL    HW191533   4.170  13.994   2.352
63212SOL    HW291534   4.172  14.119   2.266
63213SOL     OW91535  11.323  14.690  10.305
63213SOL    HW191536  11.349  14.767  10.254
63213SOL    HW291537  11.293  14.627  10.239
63214SOL     OW91538  14.528  14.360   9.539
63214SOL    HW191539  14.477  14.395   9.612
63214SOL    HW291540  14.603  14.418   9.532
63215SOL     OW91541   4.354   0.536   3.872
63215SOL    HW191542   4.316   0.623   3.885
63215SOL    HW291543   4.342   0.492   3.956
63216SOL     OW91544   0.506   9.445  11.056
63216SOL    HW191545   0.469   9.493  11.131
63216SOL    HW291546   0.594   9.481  11.047
63217SOL     OW91547   9.790   9.933   9.282
63217SOL    HW191548   9.814   9.913   9.191
63217SOL    HW291549   9.718   9.995   9.275
63218SOL     OW91550   9.963  11.413   2.648
63218SOL    HW191551   9.923  11.407   2.561
63218SOL    HW291552  10.053  11.384   2.634
63219SOL     OW91553   0.556   1.803   2.448
63219SOL    HW191554   0.513   1.804   2.534
63219SOL    HW291555   0.487   1.828   2.387
63220SOL     OW91556  12.271   4.800   5.026
63220SOL    HW191557  12.343   4.737   5.023
63220SOL    HW291558  12.224   4.786   4.944
63221SOL     OW91559  11.585   2.695   5.930
63221SOL    HW191560  11.564   2.786   5.908
63221SOL    HW291561  11.671   2.701   5.973
63222SOL     OW91562   7.787  14.741   7.999
63222SOL    HW191563   7.748  14.658   8.028
63222SOL    HW291564   7.851  14.762   8.067
63223SOL     OW91565   5.357   8.609   0.728
63223SOL    HW191566   5.286   8.545   0.721
63223SOL    HW291567   5.436   8.560   0.703
63224SOL     OW91568   0.347   4.429   8.368
63224SOL    HW191569   0.273   4.369   8.367
63224SOL    HW291570   0.399   4.405   8.291
63225SOL     OW91571   9.348   2.469   2.705
63225SOL    HW191572   9.318   2.489   2.617
63225SOL    HW291573   9.297   2.526   2.762
63226SOL     OW91574  12.042  12.432  13.817
63226SOL    HW191575  12.037  12.501  13.751
63226SOL    HW291576  12.056  12.351  13.767
63227SOL     OW91577  10.063  10.187  14.303
63227SOL    HW191578  10.057  10.251  14.374
63227SOL    HW291579  10.084  10.239  14.226
63228SOL     OW91580   8.580  14.821  10.950
63228SOL    HW191581   8.527   0.032  10.943
63228SOL    HW291582   8.594  14.809  11.044
63229SOL     OW91583   3.542   9.501  10.512
63229SOL    HW191584   3.474   9.452  10.559
63229SOL    HW291585   3.506   9.589  10.502
63230SOL     OW91586  13.484   3.208   4.409
63230SOL    HW191587  13.496   3.297   4.378
63230SOL    HW291588  13.474   3.216   4.504
63231SOL     OW91589   6.852   4.743   8.929
63231SOL    HW191590   6.788   4.732   9.000
63231SOL    HW291591   6.851   4.837   8.910
63232SOL     OW91592   8.398  10.316   7.317
63232SOL    HW191593   8.409  10.223   7.339
63232SOL    HW291594   8.485  10.343   7.287
63233SOL     OW91595  12.366   3.336   9.321
63233SOL    HW191596  12.383   3.323   9.414
63233SOL    HW291597  12.292   3.279   9.302
63234SOL     OW91598  14.272  13.744   7.276
63234SOL    HW191599  14.285  13.675   7.211
63234SOL    HW291600  14.353  13.794   7.275
63235SOL     OW91601   5.460   4.725   5.636
63235SOL    HW191602   5.420   4.773   5.563
63235SOL    HW291603   5.554   4.726   5.618
63236SOL     OW91604  13.092   0.609   0.444
63236SOL    HW191605  13.089   0.680   0.509
63236SOL    HW291606  13.178   0.570   0.455
63237SOL     OW91607   8.133  14.514   7.386
63237SOL    HW191608   8.101  14.427   7.360
63237SOL    HW291609   8.219  14.497   7.424
63238SOL     OW91610   4.450   9.284   2.663
63238SOL    HW191611   4.456   9.347   2.735
63238SOL    HW291612   4.470   9.336   2.585
63239SOL     OW91613   1.578   2.779   4.030
63239SOL    HW191614   1.627   2.793   3.949
63239SOL    HW291615   1.538   2.693   4.019
63240SOL     OW91616   6.700   2.774   0.261
63240SOL    HW191617   6.624   2.721   0.285
63240SOL    HW291618   6.689   2.856   0.309
63241SOL     OW91619   4.671  13.236   5.086
63241SOL    HW191620   4.641  13.307   5.029
63241SOL    HW291621   4.729  13.278   5.149
63242SOL     OW91622  12.796   9.149  10.798
63242SOL    HW191623  12.883   9.138  10.759
63242SOL    HW291624  12.809   9.129  10.891
63243SOL     OW91625  12.563   1.316  10.442
63243SOL    HW191626  12.540   1.224  10.433
63243SOL    HW291627  12.511   1.361  10.375
63244SOL     OW91628   5.590   3.742   7.409
63244SOL    HW191629   5.639   3.663   7.432
63244SOL    HW291630   5.574   3.785   7.493
63245SOL     OW91631  13.715   9.533   3.931
63245SOL    HW191632  13.663   9.576   3.864
63245SOL    HW291633  13.764   9.604   3.973
63246SOL     OW91634  14.463  13.754   9.410
63246SOL    HW191635  14.510  13.782   9.489
63246SOL    HW291636  14.372  13.747   9.437
63247SOL     OW91637   4.110   3.869   0.716
63247SOL    HW191638   4.129   3.961   0.696
63247SOL    HW291639   4.080   3.833   0.632
63248SOL     OW91640   4.489   9.897   6.217
63248SOL    HW191641   4.510   9.838   6.290
63248SOL    HW291642   4.405   9.866   6.185
63249SOL     OW91643   8.973   7.028   2.812
63249SOL    HW191644   8.885   7.019   2.775
63249SOL    HW291645   9.018   7.086   2.751
63250SOL     OW91646   3.392   1.792   9.730
63250SOL    HW191647   3.360   1.721   9.675
63250SOL    HW291648   3.368   1.767   9.819
63251SOL     OW91649   9.346   6.718  14.820
63251SOL    HW191650   9.330   6.636  14.867
63251SOL    HW291651   9.409   6.765   0.007
63252SOL     OW91652   1.546  12.471  12.770
63252SOL    HW191653   1.554  12.518  12.687
63252SOL    HW291654   1.475  12.516  12.816
63253SOL     OW91655  10.571   9.635  11.574
63253SOL    HW191656  10.638   9.701  11.590
63253SOL    HW291657  10.494   9.668  11.619
63254SOL     OW91658   5.300  13.225   4.743
63254SOL    HW191659   5.359  13.191   4.675
63254SOL    HW291660   5.225  13.165   4.741
63255SOL     OW91661   5.045   6.867   9.269
63255SOL    HW191662   4.967   6.893   9.317
63255SOL    HW291663   5.058   6.775   9.293
63256SOL     OW91664   3.140   8.187   8.509
63256SOL    HW191665   3.107   8.124   8.573
63256SOL    HW291666   3.191   8.250   8.560
63257SOL     OW91667  10.294   5.511   2.802
63257SOL    HW191668  10.310   5.605   2.791
63257SOL    HW291669  10.264   5.502   2.893
63258SOL     OW91670   5.775   8.969   7.867
63258SOL    HW191671   5.828   9.029   7.918
63258SOL    HW291672   5.730   8.915   7.932
63259SOL     OW91673   1.999   2.813   0.508
63259SOL    HW191674   2.080   2.862   0.491
63259SOL    HW291675   1.993   2.811   0.604
63260SOL     OW91676   8.892   3.373  11.583
63260SOL    HW191677   8.889   3.444  11.646
63260SOL    HW291678   8.836   3.403  11.510
63261SOL     OW91679   3.939   9.396   1.229
63261SOL    HW191680   3.904   9.464   1.287
63261SOL    HW291681   3.888   9.405   1.148
63262SOL     OW91682   4.857   4.937   5.548
63262SOL    HW191683   4.811   5.018   5.573
63262SOL    HW291684   4.844   4.878   5.622
63263SOL     OW91685  11.195   5.695   4.210
63263SOL    HW191686  11.104   5.702   4.181
63263SOL    HW291687  11.235   5.777   4.182
63264SOL     OW91688  14.540  10.198   9.325
63264SOL    HW191689  14.551  10.104   9.310
63264SOL    HW291690  14.554  10.210   9.419
63265SOL     OW91691   4.340  11.216  13.966
63265SOL    HW191692   4.251  11.229  14.000
63265SOL    HW291693   4.372  11.138  14.012
63266SOL     OW91694  11.579   0.533  12.508
63266SOL    HW191695  11.660   0.495  12.543
63266SOL    HW291696  11.605   0.619  12.475
63267SOL     OW91697   9.246   7.664   0.114
63267SOL    HW191698   9.241   7.615   0.196
63267SOL    HW291699   9.171   7.723   0.116
63268SOL     OW91700   8.869   6.952   9.450
63268SOL    HW191701   8.781   6.933   9.483
63268SOL    HW291702   8.853   6.992   9.364
63269SOL     OW91703   2.672  13.671  10.140
63269SOL    HW191704   2.588  13.715  10.152
63269SOL    HW291705   2.677  13.652  10.047
63270SOL     OW91706   3.002   4.810   9.545
63270SOL    HW191707   3.048   4.865   9.482
63270SOL    HW291708   2.915   4.849   9.551
63271SOL     OW91709   2.581   5.922   7.889
63271SOL    HW191710   2.534   5.849   7.927
63271SOL    HW291711   2.611   5.890   7.804
63272SOL     OW91712   7.046   3.786  12.509
63272SOL    HW191713   7.087   3.866  12.476
63272SOL    HW291714   6.973   3.770  12.450
63273SOL     OW91715   6.162   3.950  11.376
63273SOL    HW191716   6.099   4.020  11.392
63273SOL    HW291717   6.241   3.979  11.423
63274SOL     OW91718   9.324   4.529   2.996
63274SOL    HW191719   9.393   4.564   3.053
63274SOL    HW291720   9.349   4.559   2.908
63275SOL     OW91721   6.126   1.662   8.687
63275SOL    HW191722   6.032   1.669   8.671
63275SOL    HW291723   6.144   1.568   8.684
63276SOL     OW91724  12.439   9.831  13.779
63276SOL    HW191725  12.452   9.790  13.865
63276SOL    HW291726  12.519   9.810  13.730
63277SOL     OW91727   7.057   1.752  12.980
63277SOL    HW191728   7.020   1.742  12.892
63277SOL    HW291729   7.034   1.841  13.006
63278SOL     OW91730  14.135   0.258   3.015
63278SOL    HW191731  14.114   0.188   3.076
63278SOL    HW291732  14.050   0.297   2.993
63279SOL     OW91733   4.145   1.550   2.194
63279SOL    HW191734   4.150   1.626   2.137
63279SOL    HW291735   4.059   1.557   2.235
63280SOL     OW91736  13.878   2.868  14.817
63280SOL    HW191737  13.841   2.800   0.006
63280SOL    HW291738  13.858   2.950  14.863
63281SOL     OW91739   1.886   4.106   9.474
63281SOL    HW191740   1.837   4.099   9.392
63281SOL    HW291741   1.973   4.072   9.453
63282SOL     OW91742   5.912   1.558   6.916
63282SOL    HW191743   5.907   1.493   6.986
63282SOL    HW291744   5.909   1.507   6.835
63283SOL     OW91745  12.818  11.698   8.035
63283SOL    HW191746  12.767  11.704   7.955
63283SOL    HW291747  12.779  11.625   8.084
63284SOL     OW91748  10.284  13.908   2.016
63284SOL    HW191749  10.284  13.954   1.932
63284SOL    HW291750  10.195  13.918   2.049
63285SOL     OW91751   3.414   7.547  12.016
63285SOL    HW191752   3.470   7.623  12.000
63285SOL    HW291753   3.372   7.530  11.932
63286SOL     OW91754  12.339  10.164   2.534
63286SOL    HW191755  12.351  10.083   2.584
63286SOL    HW291756  12.245  10.182   2.540
63287SOL     OW91757  12.395   4.087   3.969
63287SOL    HW191758  12.342   4.104   4.047
63287SOL    HW291759  12.470   4.146   3.977
63288SOL     OW91760  12.455   3.288   3.113
63288SOL    HW191761  12.443   3.196   3.091
63288SOL    HW291762  12.391   3.334   3.058
63289SOL     OW91763  11.860  10.373   5.576
63289SOL    HW191764  11.848  10.280   5.598
63289SOL    HW291765  11.939  10.375   5.521
63290SOL     OW91766   0.605   5.528  10.333
63290SOL    HW191767   0.662   5.580  10.276
63290SOL    HW291768   0.663   5.496  10.402
63291SOL     OW91769   2.253   9.559   7.295
63291SOL    HW191770   2.247   9.625   7.226
63291SOL    HW291771   2.237   9.476   7.250
63292SOL     OW91772   5.494   1.186   9.204
63292SOL    HW191773   5.503   1.203   9.298
63292SOL    HW291774   5.415   1.234   9.178
63293SOL     OW91775  13.559   8.284  11.071
63293SOL    HW191776  13.519   8.263  10.986
63293SOL    HW291777  13.568   8.199  11.114
63294SOL     OW91778  12.672   4.305   1.322
63294SOL    HW191779  12.651   4.398   1.316
63294SOL    HW291780  12.721   4.297   1.404
63295SOL     OW91781  11.900  13.430   9.861
63295SOL    HW191782  11.867  13.374   9.931
63295SOL    HW291783  11.941  13.504   9.907
63296SOL     OW91784   1.356   2.280  10.719
63296SOL    HW191785   1.357   2.341  10.645
63296SOL    HW291786   1.268   2.287  10.755
63297SOL     OW91787   4.999   8.178  10.327
63297SOL    HW191788   4.962   8.262  10.301
63297SOL    HW291789   4.962   8.115  10.265
63298SOL     OW91790  10.461   8.020  11.877
63298SOL    HW191791  10.529   8.051  11.937
63298SOL    HW291792  10.488   8.053  11.792
63299SOL     OW91793  14.809   4.826   2.649
63299SOL    HW191794  14.751   4.819   2.725
63299SOL    HW291795   0.029   4.830   2.686
63300SOL     OW91796   9.846  13.764   1.133
63300SOL    HW191797   9.901  13.825   1.084
63300SOL    HW291798   9.828  13.809   1.215
63301SOL     OW91799   0.797   8.738  10.337
63301SOL    HW191800   0.885   8.736  10.301
63301SOL    HW291801   0.764   8.826  10.316
63302SOL     OW91802  12.418   7.662  10.742
63302SOL    HW191803  12.479   7.732  10.764
63302SOL    HW291804  12.469   7.581  10.751
63303SOL     OW91805   7.368   2.731   7.101
63303SOL    HW191806   7.385   2.745   7.195
63303SOL    HW291807   7.454   2.716   7.063
63304SOL     OW91808   6.959  10.220   3.145
63304SOL    HW191809   6.901  10.287   3.108
63304SOL    HW291810   7.040  10.267   3.166
63305SOL     OW91811   2.583   7.601   2.579
63305SOL    HW191812   2.589   7.623   2.672
63305SOL    HW291813   2.574   7.685   2.534
63306SOL     OW91814   2.319   4.217  14.151
63306SOL    HW191815   2.412   4.223  14.171
63306SOL    HW291816   2.279   4.289  14.199
63307SOL     OW91817  10.406   4.790   1.159
63307SOL    HW191818  10.394   4.734   1.236
63307SOL    HW291819  10.499   4.784   1.140
63308SOL     OW91820   5.801  12.237   5.889
63308SOL    HW191821   5.746  12.169   5.852
63308SOL    HW291822   5.753  12.318   5.874
63309SOL     OW91823   3.549  13.113   4.291
63309SOL    HW191824   3.544  13.080   4.380
63309SOL    HW291825   3.642  13.108   4.268
63310SOL     OW91826  12.348  11.034   8.928
63310SOL    HW191827  12.407  10.980   8.981
63310SOL    HW291828  12.389  11.120   8.925
63311SOL     OW91829   1.607   5.808   6.449
63311SOL    HW191830   1.645   5.722   6.468
63311SOL    HW291831   1.624   5.822   6.356
63312SOL     OW91832   1.738   7.554   2.089
63312SOL    HW191833   1.699   7.640   2.076
63312SOL    HW291834   1.818   7.571   2.138
63313SOL     OW91835  11.144   3.121  12.927
63313SOL    HW191836  11.112   3.035  12.952
63313SOL    HW291837  11.083   3.151  12.860
63314SOL     OW91838   7.188  13.817  10.484
63314SOL    HW191839   7.260  13.805  10.422
63314SOL    HW291840   7.174  13.912  10.487
63315SOL     OW91841   2.832   6.881   9.859
63315SOL    HW191842   2.771   6.945   9.895
63315SOL    HW291843   2.865   6.922   9.778
63316SOL     OW91844   7.919   6.642  13.705
63316SOL    HW191845   7.997   6.591  13.724
63316SOL    HW291846   7.847   6.580  13.714
63317SOL     OW91847  11.202  12.770  14.676
63317SOL    HW191848  11.160  12.719  14.745
63317SOL    HW291849  11.259  12.708  14.631
63318SOL     OW91850   9.697   1.069   3.475
63318SOL    HW191851   9.768   1.027   3.523
63318SOL    HW291852   9.651   0.996   3.432
63319SOL     OW91853   1.850   2.345   9.729
63319SOL    HW191854   1.894   2.325   9.812
63319SOL    HW291855   1.760   2.318   9.743
63320SOL     OW91856   9.574   3.709   4.219
63320SOL    HW191857   9.600   3.673   4.134
63320SOL    HW291858   9.534   3.635   4.265
63321SOL     OW91859   8.177   5.373   4.753
63321SOL    HW191860   8.149   5.455   4.795
63321SOL    HW291861   8.234   5.402   4.681
63322SOL     OW91862  10.236   9.062   5.860
63322SOL    HW191863  10.153   9.051   5.812
63322SOL    HW291864  10.262   9.153   5.842
63323SOL     OW91865   1.938   4.359  10.182
63323SOL    HW191866   2.003   4.421  10.214
63323SOL    HW291867   1.870   4.358  10.249
63324SOL     OW91868   9.095  10.398   6.552
63324SOL    HW191869   9.039  10.475   6.556
63324SOL    HW291870   9.089  10.368   6.462
63325SOL     OW91871  10.505  10.190   2.871
63325SOL    HW191872  10.596  10.161   2.864
63325SOL    HW291873  10.510  10.284   2.883
63326SOL     OW91874  13.129  11.839   0.789
63326SOL    HW191875  13.173  11.878   0.714
63326SOL    HW291876  13.036  11.850   0.771
63327SOL     OW91877  14.833   7.157   5.005
63327SOL    HW191878   0.059   7.142   4.992
63327SOL    HW291879  14.795   7.140   4.919
63328SOL     OW91880  14.740   0.684   6.012
63328SOL    HW191881  14.736   0.758   5.952
63328SOL    HW291882  14.764   0.722   6.096
63329SOL     OW91883   0.504  14.250   9.529
63329SOL    HW191884   0.517  14.300   9.610
63329SOL    HW291885   0.469  14.166   9.558
63330SOL     OW91886  13.712   9.042  10.011
63330SOL    HW191887  13.751   8.956  10.022
63330SOL    HW291888  13.647   9.049  10.081
63331SOL     OW91889  11.369   1.242   3.665
63331SOL    HW191890  11.387   1.150   3.683
63331SOL    HW291891  11.369   1.284   3.751
63332SOL     OW91892   4.505   4.822   7.537
63332SOL    HW191893   4.576   4.808   7.600
63332SOL    HW291894   4.547   4.869   7.465
63333SOL     OW91895  12.061   6.159   7.118
63333SOL    HW191896  12.030   6.239   7.162
63333SOL    HW291897  11.997   6.144   7.048
63334SOL     OW91898   0.473  10.401   4.405
63334SOL    HW191899   0.546  10.431   4.459
63334SOL    HW291900   0.398  10.400   4.465
63335SOL     OW91901   2.243   8.564   6.773
63335SOL    HW191902   2.184   8.519   6.713
63335SOL    HW291903   2.237   8.514   6.854
63336SOL     OW91904   7.018   6.544  12.995
63336SOL    HW191905   6.969   6.471  12.958
63336SOL    HW291906   6.985   6.621  12.949
63337SOL     OW91907   4.629  12.040   0.317
63337SOL    HW191908   4.550  11.986   0.317
63337SOL    HW291909   4.653  12.047   0.225
63338SOL     OW91910   8.140   2.399   8.740
63338SOL    HW191911   8.200   2.327   8.719
63338SOL    HW291912   8.086   2.365   8.811
63339SOL     OW91913   8.096   4.904  14.233
63339SOL    HW191914   8.171   4.921  14.291
63339SOL    HW291915   8.109   4.814  14.203
63340SOL     OW91916   1.291   5.558   6.503
63340SOL    HW191917   1.252   5.600   6.426
63340SOL    HW291918   1.256   5.468   6.502
63341SOL     OW91919   9.421   7.751   4.924
63341SOL    HW191920   9.441   7.673   4.873
63341SOL    HW291921   9.327   7.746   4.941
63342SOL     OW91922   2.379   0.249   3.076
63342SOL    HW191923   2.472   0.226   3.074
63342SOL    HW291924   2.337   0.181   3.024
63343SOL     OW91925   7.219   3.460   5.166
63343SOL    HW191926   7.310   3.430   5.167
63343SOL    HW291927   7.171   3.388   5.123
63344SOL     OW91928   0.797   8.106   0.189
63344SOL    HW191929   0.872   8.056   0.220
63344SOL    HW291930   0.735   8.103   0.262
63345SOL     OW91931   3.274   0.133   9.600
63345SOL    HW191932   3.234   0.213   9.632
63345SOL    HW291933   3.243   0.125   9.509
63346SOL     OW91934  14.162   1.397  12.201
63346SOL    HW191935  14.175   1.351  12.118
63346SOL    HW291936  14.243   1.380  12.250
63347SOL     OW91937  12.956   2.962   6.709
63347SOL    HW191938  13.003   2.957   6.792
63347SOL    HW291939  12.982   2.883   6.662
63348SOL     OW91940   6.289  10.223   9.900
63348SOL    HW191941   6.382  10.244   9.889
63348SOL    HW291942   6.246  10.308   9.907
63349SOL     OW91943   1.678   1.030  13.966
63349SOL    HW191944   1.658   0.989  14.051
63349SOL    HW291945   1.765   0.998  13.944
63350SOL     OW91946   8.659  12.910   8.243
63350SOL    HW191947   8.688  12.989   8.289
63350SOL    HW291948   8.667  12.841   8.309
63351SOL     OW91949  14.555  14.469   2.587
63351SOL    HW191950  14.480  14.528   2.595
63351SOL    HW291951  14.600  14.497   2.507
63352SOL     OW91952   0.392  12.542  12.522
63352SOL    HW191953   0.300  12.569  12.528
63352SOL    HW291954   0.424  12.549  12.613
63353SOL     OW91955   0.909   5.726   9.789
63353SOL    HW191956   0.997   5.695   9.767
63353SOL    HW291957   0.898   5.805   9.736
63354SOL     OW91958  14.159   0.169   1.764
63354SOL    HW191959  14.106   0.141   1.689
63354SOL    HW291960  14.102   0.227   1.814
63355SOL     OW91961  12.118   1.307   4.344
63355SOL    HW191962  12.191   1.332   4.287
63355SOL    HW291963  12.133   1.357   4.425
63356SOL     OW91964   1.353   5.552   4.499
63356SOL    HW191965   1.383   5.599   4.421
63356SOL    HW291966   1.413   5.479   4.508
63357SOL     OW91967  11.670  12.006   8.459
63357SOL    HW191968  11.662  11.979   8.551
63357SOL    HW291969  11.756  12.047   8.454
63358SOL     OW91970   6.632  10.394  10.134
63358SOL    HW191971   6.591  10.466  10.181
63358SOL    HW291972   6.592  10.315  10.170
63359SOL     OW91973   9.969  11.213   5.697
63359SOL    HW191974   9.977  11.305   5.671
63359SOL    HW291975  10.045  11.170   5.656
63360SOL     OW91976   3.939  10.448  14.601
63360SOL    HW191977   3.887  10.379  14.559
63360SOL    HW291978   4.029  10.428  14.576
63361SOL     OW91979  13.073  11.020   9.964
63361SOL    HW191980  12.993  10.974   9.940
63361SOL    HW291981  13.043  11.099  10.009
63362SOL     OW91982   4.164  12.082   1.783
63362SOL    HW191983   4.213  12.160   1.807
63362SOL    HW291984   4.172  12.077   1.688
63363SOL     OW91985   6.436   0.975  13.029
63363SOL    HW191986   6.432   1.036  13.103
63363SOL    HW291987   6.415   0.889  13.067
63364SOL     OW91988   4.316   8.444   2.037
63364SOL    HW191989   4.404   8.413   2.058
63364SOL    HW291990   4.310   8.436   1.942
63365SOL     OW91991   2.073  13.876   6.078
63365SOL    HW191992   2.108  13.802   6.029
63365SOL    HW291993   1.990  13.845   6.113
63366SOL     OW91994   2.080   0.631  14.563
63366SOL    HW191995   2.151   0.628  14.499
63366SOL    HW291996   2.107   0.698  14.626
63367SOL     OW91997   7.253   6.638  10.115
63367SOL    HW191998   7.272   6.558  10.163
63367SOL    HW291999   7.315   6.638  10.042
63368SOL     OW92000   3.110  11.912   9.946
63368SOL    HW192001   3.167  11.924   9.870
63368SOL    HW292002   3.145  11.974  10.011
63369SOL     OW92003   3.178   3.341   1.707
63369SOL    HW192004   3.120   3.273   1.742
63369SOL    HW292005   3.243   3.293   1.655
63370SOL     OW92006   5.053   7.605   5.785
63370SOL    HW192007   5.018   7.542   5.848
63370SOL    HW292008   5.007   7.586   5.704
63371SOL     OW92009   4.044  10.996   3.263
63371SOL    HW192010   3.959  11.039   3.248
63371SOL    HW292011   4.030  10.942   3.340
63372SOL     OW92012   0.082   3.116   7.153
63372SOL    HW192013   0.092   3.160   7.238
63372SOL    HW292014  14.865   3.145   7.121
63373SOL     OW92015   7.837   9.307   0.746
63373SOL    HW192016   7.878   9.380   0.700
63373SOL    HW292017   7.911   9.251   0.771
63374SOL     OW92018  12.671   5.971  12.042
63374SOL    HW192019  12.605   6.032  12.075
63374SOL    HW292020  12.675   5.989  11.948
63375SOL     OW92021  14.160  10.421   4.981
63375SOL    HW192022  14.106  10.417   4.902
63375SOL    HW292023  14.120  10.491   5.033
63376SOL     OW92024  11.382  12.639   1.868
63376SOL    HW192025  11.314  12.640   1.801
63376SOL    HW292026  11.391  12.547   1.893
63377SOL     OW92027   3.446   8.347  11.940
63377SOL    HW192028   3.425   8.416  12.003
63377SOL    HW292029   3.378   8.280  11.955
63378SOL     OW92030  11.931   7.794  13.759
63378SOL    HW192031  11.854   7.758  13.714
63378SOL    HW292032  11.902   7.805  13.849
63379SOL     OW92033  13.859  14.489   8.565
63379SOL    HW192034  13.879  14.415   8.623
63379SOL    HW292035  13.823  14.556   8.623
63380SOL     OW92036   1.682   9.557   1.194
63380SOL    HW192037   1.746   9.490   1.170
63380SOL    HW292038   1.641   9.523   1.274
63381SOL     OW92039   3.628  13.873   7.668
63381SOL    HW192040   3.596  13.836   7.586
63381SOL    HW292041   3.663  13.799   7.716
63382SOL     OW92042   9.652   3.702  14.573
63382SOL    HW192043   9.727   3.761  14.570
63382SOL    HW292044   9.689   3.616  14.554
63383SOL     OW92045  13.220   8.557   3.904
63383SOL    HW192046  13.150   8.622   3.900
63383SOL    HW292047  13.178   8.479   3.942
63384SOL     OW92048   6.189  11.893  11.183
63384SOL    HW192049   6.130  11.843  11.238
63384SOL    HW292050   6.271  11.844  11.184
63385SOL     OW92051   7.254   4.449   8.832
63385SOL    HW192052   7.200   4.521   8.798
63385SOL    HW292053   7.195   4.398   8.886
63386SOL     OW92054   8.076   3.952   9.407
63386SOL    HW192055   8.093   3.868   9.363
63386SOL    HW292056   7.986   3.973   9.383
63387SOL     OW92057   8.547  13.189  12.263
63387SOL    HW192058   8.542  13.283  12.279
63387SOL    HW292059   8.543  13.181  12.168
63388SOL     OW92060   6.350   8.123   1.773
63388SOL    HW192061   6.331   8.150   1.683
63388SOL    HW292062   6.305   8.039   1.783
63389SOL     OW92063   1.498   1.968  12.336
63389SOL    HW192064   1.482   2.061  12.351
63389SOL    HW292065   1.412   1.931  12.316
63390SOL     OW92066   0.122   7.303  13.949
63390SOL    HW192067   0.062   7.294  14.024
63390SOL    HW292068   0.208   7.283  13.985
63391SOL     OW92069  14.667  11.921   3.351
63391SOL    HW192070  14.725  11.978   3.403
63391SOL    HW292071  14.602  11.890   3.414
63392SOL     OW92072  10.933   9.689  10.222
63392SOL    HW192073  10.850   9.720  10.259
63392SOL    HW292074  10.967   9.763  10.172
63393SOL     OW92075  12.508   6.380   2.539
63393SOL    HW192076  12.582   6.404   2.594
63393SOL    HW292077  12.544   6.321   2.473
63394SOL     OW92078   5.997  14.004  12.527
63394SOL    HW192079   6.072  13.980  12.581
63394SOL    HW292080   5.925  14.014  12.589
63395SOL     OW92081  13.603   4.618   5.609
63395SOL    HW192082  13.630   4.608   5.518
63395SOL    HW292083  13.508   4.600   5.608
63396SOL     OW92084  13.068   7.316   4.268
63396SOL    HW192085  13.019   7.395   4.292
63396SOL    HW292086  13.026   7.245   4.317
63397SOL     OW92087   3.347   1.342   6.563
63397SOL    HW192088   3.369   1.376   6.476
63397SOL    HW292089   3.297   1.262   6.546
63398SOL     OW92090   8.312  14.691  11.850
63398SOL    HW192091   8.224  14.659  11.871
63398SOL    HW292092   8.362  14.676  11.930
63399SOL     OW92093  10.534   0.213   4.276
63399SOL    HW192094  10.573   0.295   4.245
63399SOL    HW292095  10.461   0.198   4.217
63400SOL     OW92096   7.089   1.999   6.710
63400SOL    HW192097   6.995   2.018   6.712
63400SOL    HW292098   7.098   1.921   6.765
63401SOL     OW92099   9.454  12.200  12.611
63401SOL    HW192100   9.514  12.200  12.685
63401SOL    HW292101   9.438  12.292  12.593
63402SOL     OW92102  13.799  10.317  13.150
63402SOL    HW192103  13.855  10.248  13.114
63402SOL    HW292104  13.831  10.397  13.107
63403SOL     OW92105  10.074   4.605   8.617
63403SOL    HW192106  10.040   4.693   8.602
63403SOL    HW292107  10.033   4.577   8.698
63404SOL     OW92108   2.098   8.680  12.384
63404SOL    HW192109   2.018   8.707  12.430
63404SOL    HW292110   2.108   8.587  12.405
63405SOL     OW92111   8.946  12.750   8.779
63405SOL    HW192112   8.852  12.761   8.765
63405SOL    HW292113   8.976  12.837   8.806
63406SOL     OW92114   1.633  11.674   8.146
63406SOL    HW192115   1.552  11.624   8.148
63406SOL    HW292116   1.631  11.729   8.225
63407SOL     OW92117   4.751   2.999   3.123
63407SOL    HW192118   4.732   2.968   3.034
63407SOL    HW292119   4.826   3.057   3.112
63408SOL     OW92120   9.453  12.623  14.051
63408SOL    HW192121   9.436  12.570  13.972
63408SOL    HW292122   9.467  12.559  14.120
63409SOL     OW92123  12.596   3.262  12.296
63409SOL    HW192124  12.545   3.339  12.322
63409SOL    HW292125  12.649   3.293  12.222
63410SOL     OW92126   6.066  10.525   1.395
63410SOL    HW192127   6.122  10.588   1.349
63410SOL    HW292128   6.033  10.574   1.471
63411SOL     OW92129  11.364   8.174  11.071
63411SOL    HW192130  11.369   8.145  11.162
63411SOL    HW292131  11.284   8.134  11.038
63412SOL     OW92132  10.504  11.293   5.124
63412SOL    HW192133  10.574  11.265   5.064
63412SOL    HW292134  10.466  11.369   5.081
63413SOL     OW92135  11.764   7.084  14.576
63413SOL    HW192136  11.851   7.123  14.564
63413SOL    HW292137  11.776   7.020  14.646
63414SOL     OW92138   7.488   4.215   3.787
63414SOL    HW192139   7.518   4.296   3.745
63414SOL    HW292140   7.457   4.161   3.715
63415SOL     OW92141  12.392  14.156   1.768
63415SOL    HW192142  12.431  14.078   1.805
63415SOL    HW292143  12.450  14.227   1.794
63416SOL     OW92144   1.889   5.688   2.229
63416SOL    HW192145   1.898   5.606   2.278
63416SOL    HW292146   1.795   5.697   2.213
63417SOL     OW92147   2.500   9.346   7.219
63417SOL    HW192148   2.467   9.358   7.308
63417SOL    HW292149   2.527   9.254   7.216
63418SOL     OW92150  11.334   6.995  11.616
63418SOL    HW192151  11.298   7.020  11.702
63418SOL    HW292152  11.295   7.058  11.555
63419SOL     OW92153  12.290  10.990  14.033
63419SOL    HW192154  12.251  10.922  13.978
63419SOL    HW292155  12.237  11.068  14.015
63420SOL     OW92156   9.539  12.537  13.131
63420SOL    HW192157   9.451  12.535  13.169
63420SOL    HW292158   9.525  12.516  13.038
63421SOL     OW92159   8.880   0.820   8.502
63421SOL    HW192160   8.800   0.851   8.545
63421SOL    HW292161   8.879   0.725   8.515
63422SOL     OW92162  14.321  11.409   0.857
63422SOL    HW192163  14.276  11.332   0.822
63422SOL    HW292164  14.414  11.389   0.846
63423SOL     OW92165   4.140   8.292   1.552
63423SOL    HW192166   4.114   8.381   1.529
63423SOL    HW292167   4.128   8.241   1.472
63424SOL     OW92168  10.972   6.420   1.146
63424SOL    HW192169  10.997   6.410   1.054
63424SOL    HW292170  10.986   6.513   1.165
63425SOL     OW92171   4.484   6.753  11.033
63425SOL    HW192172   4.495   6.683  10.968
63425SOL    HW292173   4.570   6.759  11.075
63426SOL     OW92174   9.435  11.306  13.925
63426SOL    HW192175   9.422  11.253  13.846
63426SOL    HW292176   9.348  11.313  13.964
63427SOL     OW92177  14.163  14.822   7.733
63427SOL    HW192178  14.117  14.848   7.812
63427SOL    HW292179  14.152  14.726   7.730
63428SOL     OW92180   1.615   8.072   3.025
63428SOL    HW192181   1.600   8.018   2.947
63428SOL    HW292182   1.691   8.033   3.067
63429SOL     OW92183   8.356  13.524   7.399
63429SOL    HW192184   8.435  13.482   7.431
63429SOL    HW292185   8.380  13.557   7.312
63430SOL     OW92186  13.966   9.204   7.685
63430SOL    HW192187  13.874   9.184   7.669
63430SOL    HW292188  13.984   9.169   7.772
63431SOL     OW92189  14.303  12.548  12.879
63431SOL    HW192190  14.287  12.456  12.901
63431SOL    HW292191  14.217  12.590  12.886
63432SOL     OW92192   9.583  12.811   5.521
63432SOL    HW192193   9.659  12.751   5.524
63432SOL    HW292194   9.507  12.752   5.520
63433SOL     OW92195  11.190   8.878  13.307
63433SOL    HW192196  11.133   8.803  13.325
63433SOL    HW292197  11.154   8.917  13.227
63434SOL     OW92198  12.028  11.373   1.113
63434SOL    HW192199  11.961  11.432   1.079
63434SOL    HW292200  12.048  11.315   1.040
63435SOL     OW92201   8.296  12.223   8.109
63435SOL    HW192202   8.337  12.175   8.181
63435SOL    HW292203   8.227  12.275   8.151
63436SOL     OW92204   3.518  12.283   6.246
63436SOL    HW192205   3.578  12.269   6.173
63436SOL    HW292206   3.541  12.369   6.280
63437SOL     OW92207  12.616   9.081   8.922
63437SOL    HW192208  12.586   9.105   9.009
63437SOL    HW292209  12.705   9.116   8.917
63438SOL     OW92210  12.163   4.239   4.691
63438SOL    HW192211  12.176   4.146   4.705
63438SOL    HW292212  12.107   4.267   4.764
63439SOL     OW92213  13.186   8.398   5.529
63439SOL    HW192214  13.182   8.493   5.517
63439SOL    HW292215  13.195   8.386   5.624
63440SOL     OW92216  10.884  11.595   7.710
63440SOL    HW192217  10.886  11.553   7.625
63440SOL    HW292218  10.974  11.590   7.742
63441SOL     OW92219  10.245  12.311   4.733
63441SOL    HW192220  10.271  12.360   4.655
63441SOL    HW292221  10.304  12.341   4.802
63442SOL     OW92222  13.731   4.376   1.816
63442SOL    HW192223  13.702   4.386   1.725
63442SOL    HW292224  13.823   4.350   1.808
63443SOL     OW92225  11.519   8.689  14.394
63443SOL    HW192226  11.586   8.628  14.363
63443SOL    HW292227  11.484   8.648  14.473
63444SOL     OW92228   7.492   7.264   8.376
63444SOL    HW192229   7.512   7.257   8.282
63444SOL    HW292230   7.396   7.266   8.379
63445SOL     OW92231   8.084   2.885   8.610
63445SOL    HW192232   8.068   2.850   8.698
63445SOL    HW292233   8.179   2.892   8.603
63446SOL     OW92234   5.076   5.194   1.891
63446SOL    HW192235   5.051   5.249   1.966
63446SOL    HW292236   5.096   5.256   1.821
63447SOL     OW92237   0.084   3.345   7.344
63447SOL    HW192238   0.163   3.377   7.386
63447SOL    HW292239   0.028   3.422   7.335
63448SOL     OW92240   6.159   3.566   1.888
63448SOL    HW192241   6.137   3.654   1.856
63448SOL    HW292242   6.084   3.512   1.862
63449SOL     OW92243   6.151  12.331   0.902
63449SOL    HW192244   6.159  12.287   0.987
63449SOL    HW292245   6.157  12.424   0.922
63450SOL     OW92246  12.666  11.495   1.157
63450SOL    HW192247  12.732  11.555   1.124
63450SOL    HW292248  12.597  11.551   1.193
63451SOL     OW92249   0.479   3.268   0.115
63451SOL    HW192250   0.460   3.355   0.080
63451SOL    HW292251   0.568   3.274   0.149
63452SOL     OW92252  10.449   9.434   8.996
63452SOL    HW192253  10.383   9.483   8.947
63452SOL    HW292254  10.530   9.484   8.985
63453SOL     OW92255  14.602   1.448   6.544
63453SOL    HW192256  14.589   1.478   6.454
63453SOL    HW292257  14.670   1.505   6.580
63454SOL     OW92258   1.034   6.061   5.480
63454SOL    HW192259   0.957   6.061   5.424
63454SOL    HW292260   1.090   5.991   5.444
63455SOL     OW92261   5.825   8.988   1.612
63455SOL    HW192262   5.790   9.076   1.593
63455SOL    HW292263   5.910   9.004   1.652
63456SOL     OW92264  12.716   8.886   8.225
63456SOL    HW192265  12.746   8.901   8.315
63456SOL    HW292266  12.789   8.913   8.170
63457SOL     OW92267  10.097   9.111  14.433
63457SOL    HW192268  10.126   9.060  14.357
63457SOL    HW292269  10.104   9.202  14.404
63458SOL     OW92270   6.719   3.455   0.322
63458SOL    HW192271   6.651   3.419   0.379
63458SOL    HW292272   6.724   3.393   0.249
63459SOL     OW92273   2.710   8.949   7.052
63459SOL    HW192274   2.643   8.881   7.049
63459SOL    HW292275   2.766   8.932   6.976
63460SOL     OW92276   6.469   3.578   8.199
63460SOL    HW192277   6.393   3.536   8.239
63460SOL    HW292278   6.432   3.634   8.131
63461SOL     OW92279   3.781   5.341   5.160
63461SOL    HW192280   3.788   5.246   5.149
63461SOL    HW292281   3.740   5.372   5.079
63462SOL     OW92282   7.689   8.280   2.268
63462SOL    HW192283   7.737   8.219   2.213
63462SOL    HW292284   7.613   8.230   2.298
63463SOL     OW92285   2.667   2.333  12.375
63463SOL    HW192286   2.742   2.285  12.411
63463SOL    HW292287   2.617   2.361  12.452
63464SOL     OW92288   8.581   7.819   9.298
63464SOL    HW192289   8.649   7.819   9.231
63464SOL    HW292290   8.572   7.726   9.323
63465SOL     OW92291   5.159   9.075  10.201
63465SOL    HW192292   5.191   9.164  10.185
63465SOL    HW292293   5.160   9.066  10.296
63466SOL     OW92294   5.007  12.985  12.070
63466SOL    HW192295   4.979  13.011  11.982
63466SOL    HW292296   5.084  13.039  12.088
63467SOL     OW92297   4.895  10.487   8.071
63467SOL    HW192298   4.930  10.575   8.086
63467SOL    HW292299   4.909  10.471   7.978
63468SOL     OW92300   7.389   0.759   8.458
63468SOL    HW192301   7.363   0.752   8.366
63468SOL    HW292302   7.362   0.677   8.498
63469SOL     OW92303   0.268   8.439  10.607
63469SOL    HW192304   0.353   8.443  10.563
63469SOL    HW292305   0.290   8.432  10.700
63470SOL     OW92306   9.490  10.656   2.571
63470SOL    HW192307   9.507  10.646   2.665
63470SOL    HW292308   9.577  10.659   2.531
63471SOL     OW92309   9.119  12.453   7.164
63471SOL    HW192310   9.094  12.371   7.207
63471SOL    HW292311   9.210  12.467   7.191
63472SOL     OW92312   0.919   6.222  13.006
63472SOL    HW192313   0.874   6.144  12.971
63472SOL    HW292314   1.002   6.225  12.958
63473SOL     OW92315   3.811   3.555   0.931
63473SOL    HW192316   3.782   3.584   1.017
63473SOL    HW292317   3.867   3.626   0.899
63474SOL     OW92318  13.454  10.688  10.171
63474SOL    HW192319  13.413  10.758  10.120
63474SOL    HW292320  13.491  10.732  10.247
63475SOL     OW92321  12.923   1.264   2.225
63475SOL    HW192322  12.941   1.223   2.310
63475SOL    HW292323  12.974   1.214   2.162
63476SOL     OW92324  10.562   1.896  13.495
63476SOL    HW192325  10.583   1.871  13.405
63476SOL    HW292326  10.587   1.989  13.500
63477SOL     OW92327  10.442   7.505  10.833
63477SOL    HW192328  10.377   7.565  10.796
63477SOL    HW292329  10.408   7.418  10.811
63478SOL     OW92330  13.760   0.629  14.611
63478SOL    HW192331  13.723   0.542  14.626
63478SOL    HW292332  13.751   0.643  14.516
63479SOL     OW92333  13.007  12.421   8.751
63479SOL    HW192334  13.097  12.454   8.756
63479SOL    HW292335  13.012  12.334   8.792
63480SOL     OW92336   6.540   2.963   5.018
63480SOL    HW192337   6.571   2.975   4.928
63480SOL    HW292338   6.562   3.046   5.061
63481SOL     OW92339  13.224   5.664   8.179
63481SOL    HW192340  13.255   5.670   8.089
63481SOL    HW292341  13.248   5.747   8.219
63482SOL     OW92342   3.317   4.144   5.560
63482SOL    HW192343   3.250   4.095   5.608
63482SOL    HW292344   3.310   4.233   5.594
63483SOL     OW92345   2.486  12.628   9.303
63483SOL    HW192346   2.459  12.575   9.378
63483SOL    HW292347   2.406  12.673   9.275
63484SOL     OW92348   0.084   8.464  14.328
63484SOL    HW192349   0.010   8.412  14.298
63484SOL    HW292350   0.045   8.544  14.363
63485SOL     OW92351   9.409   3.120   4.408
63485SOL    HW192352   9.417   3.102   4.502
63485SOL    HW292353   9.346   3.056   4.376
63486SOL     OW92354   7.274   2.721   8.000
63486SOL    HW192355   7.330   2.729   8.078
63486SOL    HW292356   7.291   2.632   7.968
63487SOL     OW92357   2.152   3.694   6.849
63487SOL    HW192358   2.067   3.699   6.893
63487SOL    HW292359   2.132   3.659   6.762
63488SOL     OW92360  13.667  10.312   7.521
63488SOL    HW192361  13.708  10.260   7.451
63488SOL    HW292362  13.727  10.385   7.535
63489SOL     OW92363   2.493   2.166   9.000
63489SOL    HW192364   2.409   2.208   9.018
63489SOL    HW292365   2.472   2.075   8.982
63490SOL     OW92366   8.127   6.068  14.717
63490SOL    HW192367   8.169   6.143  14.674
63490SOL    HW292368   8.038   6.067  14.682
63491SOL     OW92369   8.154   8.998  11.324
63491SOL    HW192370   8.192   9.006  11.236
63491SOL    HW292371   8.164   8.906  11.347
63492SOL     OW92372   3.397   4.287  12.811
63492SOL    HW192373   3.389   4.192  12.804
63492SOL    HW292374   3.431   4.302  12.899
63493SOL     OW92375   1.529   6.211   4.123
63493SOL    HW192376   1.507   6.215   4.030
63493SOL    HW292377   1.474   6.142   4.158
63494SOL     OW92378  13.176   1.473   4.882
63494SOL    HW192379  13.156   1.383   4.906
63494SOL    HW292380  13.121   1.491   4.806
63495SOL     OW92381  10.805   2.065  11.083
63495SOL    HW192382  10.732   2.022  11.125
63495SOL    HW292383  10.878   2.003  11.091
63496SOL     OW92384  10.553   9.726   4.302
63496SOL    HW192385  10.528   9.676   4.225
63496SOL    HW292386  10.642   9.697   4.323
63497SOL     OW92387  12.361   8.358   1.827
63497SOL    HW192388  12.337   8.378   1.736
63497SOL    HW292389  12.396   8.269   1.823
63498SOL     OW92390   1.475  12.205   8.149
63498SOL    HW192391   1.559  12.251   8.155
63498SOL    HW292392   1.432  12.224   8.232
63499SOL     OW92393  13.294   3.428   7.237
63499SOL    HW192394  13.260   3.339   7.236
63499SOL    HW292395  13.262   3.467   7.155
63500SOL     OW92396   5.015   1.420   3.523
63500SOL    HW192397   5.102   1.435   3.486
63500SOL    HW292398   4.999   1.496   3.579
63501SOL     OW92399  12.881   2.324  11.966
63501SOL    HW192400  12.901   2.285  11.881
63501SOL    HW292401  12.798   2.369  11.953
63502SOL     OW92402  13.552  11.008  11.784
63502SOL    HW192403  13.601  11.080  11.823
63502SOL    HW292404  13.538  11.034  11.693
63503SOL     OW92405  12.318   3.706  10.753
63503SOL    HW192406  12.353   3.747  10.832
63503SOL    HW292407  12.360   3.754  10.681
63504SOL     OW92408  12.190   5.508  12.627
63504SOL    HW192409  12.149   5.424  12.648
63504SOL    HW292410  12.216   5.544  12.711
63505SOL     OW92411   4.154   0.606  12.510
63505SOL    HW192412   4.193   0.680  12.461
63505SOL    HW292413   4.112   0.647  12.586
63506SOL     OW92414   2.263   7.046   9.918
63506SOL    HW192415   2.247   7.003   9.834
63506SOL    HW292416   2.194   7.013   9.976
63507SOL     OW92417   0.744   0.904  13.874
63507SOL    HW192418   0.749   0.820  13.918
63507SOL    HW292419   0.651   0.920  13.862
63508SOL     OW92420   6.464  11.633   6.529
63508SOL    HW192421   6.469  11.728   6.528
63508SOL    HW292422   6.549  11.604   6.563
63509SOL     OW92423  13.830   0.985  13.183
63509SOL    HW192424  13.901   0.987  13.118
63509SOL    HW292425  13.775   0.912  13.156
63510SOL     OW92426  10.239   0.417   4.393
63510SOL    HW192427  10.211   0.360   4.464
63510SOL    HW292428  10.195   0.500   4.410
63511SOL     OW92429   4.190   8.600   0.873
63511SOL    HW192430   4.163   8.589   0.964
63511SOL    HW292431   4.242   8.522   0.854
63512SOL     OW92432  14.169  12.623   0.159
63512SOL    HW192433  14.247  12.601   0.210
63512SOL    HW292434  14.155  12.548   0.101
63513SOL     OW92435  10.072   0.912   5.935
63513SOL    HW192436   9.989   0.915   5.888
63513SOL    HW292437  10.100   0.820   5.929
63514SOL     OW92438   3.356   9.669   5.315
63514SOL    HW192439   3.411   9.746   5.330
63514SOL    HW292440   3.402   9.598   5.359
63515SOL     OW92441  12.840  14.226   8.325
63515SOL    HW192442  12.814  14.203   8.415
63515SOL    HW292443  12.758  14.252   8.283
63516SOL     OW92444  11.767   2.525   8.630
63516SOL    HW192445  11.728   2.495   8.548
63516SOL    HW292446  11.829   2.456   8.654
63517SOL     OW92447   8.522  13.073   3.243
63517SOL    HW192448   8.547  13.092   3.152
63517SOL    HW292449   8.426  13.082   3.243
63518SOL     OW92450  13.155  13.886  11.648
63518SOL    HW192451  13.135  13.930  11.565
63518SOL    HW292452  13.150  13.955  11.714
63519SOL     OW92453  10.771   8.771   0.584
63519SOL    HW192454  10.840   8.797   0.523
63519SOL    HW292455  10.818   8.727   0.655
63520SOL     OW92456   7.933  10.387  14.518
63520SOL    HW192457   7.998  10.322  14.492
63520SOL    HW292458   7.940  10.456  14.452
63521SOL     OW92459  13.173   2.258  14.186
63521SOL    HW192460  13.217   2.329  14.139
63521SOL    HW292461  13.082   2.288  14.194
63522SOL     OW92462   1.483   5.607  11.198
63522SOL    HW192463   1.557   5.595  11.257
63522SOL    HW292464   1.491   5.697  11.166
63523SOL     OW92465   1.347  13.306  14.605
63523SOL    HW192466   1.407  13.252  14.657
63523SOL    HW292467   1.330  13.253  14.527
63524SOL     OW92468  14.836  13.193   0.099
63524SOL    HW192469  14.826  13.168   0.007
63524SOL    HW292470  14.838  13.288   0.098
63525SOL     OW92471   2.227  11.258  11.662
63525SOL    HW192472   2.252  11.282  11.573
63525SOL    HW292473   2.227  11.340  11.711
63526SOL     OW92474  10.182   5.816  13.587
63526SOL    HW192475  10.110   5.757  13.610
63526SOL    HW292476  10.237   5.764  13.527
63527SOL     OW92477   4.399   2.125   2.901
63527SOL    HW192478   4.446   2.173   2.969
63527SOL    HW292479   4.306   2.141   2.920
63528SOL     OW92480  13.163   9.191   4.772
63528SOL    HW192481  13.108   9.119   4.740
63528SOL    HW292482  13.108   9.235   4.838
63529SOL     OW92483  12.447   4.058   3.528
63529SOL    HW192484  12.543   4.056   3.521
63529SOL    HW292485  12.428   4.147   3.556
63530SOL     OW92486   2.971  11.229  11.817
63530SOL    HW192487   2.983  11.323  11.825
63530SOL    HW292488   2.961  11.213  11.723
63531SOL     OW92489   8.451   3.106   9.360
63531SOL    HW192490   8.454   3.017   9.324
63531SOL    HW292491   8.525   3.110   9.421
63532SOL     OW92492   3.926  12.270  10.158
63532SOL    HW192493   3.942  12.283  10.251
63532SOL    HW292494   3.904  12.358  10.125
63533SOL     OW92495  12.276   6.405   1.047
63533SOL    HW192496  12.353   6.395   1.105
63533SOL    HW292497  12.201   6.386   1.103
63534SOL     OW92498   5.467   3.072   2.353
63534SOL    HW192499   5.461   3.123   2.272
63534SOL    HW292500   5.384   3.024   2.357
63535SOL     OW92501   9.759   5.136  10.427
63535SOL    HW192502   9.800   5.180  10.501
63535SOL    HW292503   9.686   5.193  10.402
63536SOL     OW92504   6.448  12.108   8.168
63536SOL    HW192505   6.536  12.072   8.179
63536SOL    HW292506   6.400  12.077   8.246
63537SOL     OW92507  14.484  11.259   0.372
63537SOL    HW192508  14.425  11.199   0.326
63537SOL    HW292509  14.568  11.249   0.328
63538SOL     OW92510  10.792   6.557   5.385
63538SOL    HW192511  10.787   6.571   5.479
63538SOL    HW292512  10.881   6.528   5.369
63539SOL     OW92513  12.027   0.823  10.634
63539SOL    HW192514  11.965   0.895  10.647
63539SOL    HW292515  12.112   0.866  10.619
63540SOL     OW92516  11.555   3.738   6.418
63540SOL    HW192517  11.517   3.743   6.506
63540SOL    HW292518  11.481   3.718   6.361
63541SOL     OW92519   8.020   2.337   9.438
63541SOL    HW192520   7.948   2.274   9.442
63541SOL    HW292521   8.096   2.285   9.411
63542SOL     OW92522   3.698   5.812   2.155
63542SOL    HW192523   3.640   5.765   2.095
63542SOL    HW292524   3.677   5.777   2.242
63543SOL     OW92525   9.035   7.396   7.082
63543SOL    HW192526   9.062   7.312   7.048
63543SOL    HW292527   9.077   7.461   7.025
63544SOL     OW92528  10.200   8.751   2.359
63544SOL    HW192529  10.293   8.773   2.356
63544SOL    HW292530  10.174   8.769   2.450
63545SOL     OW92531  11.928  13.837   1.721
63545SOL    HW192532  11.949  13.778   1.649
63545SOL    HW292533  11.991  13.909   1.712
63546SOL     OW92534   7.913   7.927   5.069
63546SOL    HW192535   7.876   7.984   5.136
63546SOL    HW292536   7.852   7.854   5.063
63547SOL     OW92537   1.756   0.718   3.934
63547SOL    HW192538   1.776   0.640   3.986
63547SOL    HW292539   1.815   0.712   3.859
63548SOL     OW92540  11.602   7.649   2.740
63548SOL    HW192541  11.534   7.633   2.804
63548SOL    HW292542  11.602   7.744   2.727
63549SOL     OW92543   3.086   6.915   7.994
63549SOL    HW192544   3.163   6.939   7.943
63549SOL    HW292545   3.104   6.826   8.025
63550SOL     OW92546  13.165   7.312   0.241
63550SOL    HW192547  13.165   7.216   0.245
63550SOL    HW292548  13.242   7.333   0.188
63551SOL     OW92549   5.702   2.554  12.001
63551SOL    HW192550   5.763   2.600  12.059
63551SOL    HW292551   5.684   2.617  11.931
63552SOL     OW92552  14.287   3.313  13.691
63552SOL    HW192553  14.330   3.326  13.776
63552SOL    HW292554  14.346   3.356  13.628
63553SOL     OW92555  13.405  12.281   3.364
63553SOL    HW192556  13.424  12.295   3.457
63553SOL    HW292557  13.311  12.264   3.361
63554SOL     OW92558  13.448   0.504  11.142
63554SOL    HW192559  13.486   0.422  11.112
63554SOL    HW292560  13.404   0.540  11.065
63555SOL     OW92561  10.169  11.556   1.737
63555SOL    HW192562  10.116  11.584   1.662
63555SOL    HW292563  10.111  11.497   1.786
63556SOL     OW92564  10.390  14.572   7.100
63556SOL    HW192565  10.439  14.544   7.177
63556SOL    HW292566  10.368  14.490   7.055
63557SOL     OW92567  10.352  11.599   8.334
63557SOL    HW192568  10.298  11.521   8.344
63557SOL    HW292569  10.350  11.618   8.240
63558SOL     OW92570   3.344   4.475   1.732
63558SOL    HW192571   3.299   4.448   1.652
63558SOL    HW292572   3.335   4.399   1.790
63559SOL     OW92573   0.533   8.527   2.079
63559SOL    HW192574   0.530   8.551   2.172
63559SOL    HW292575   0.625   8.535   2.055
63560SOL     OW92576  13.207  13.033  10.610
63560SOL    HW192577  13.149  12.975  10.561
63560SOL    HW292578  13.293  12.992  10.603
63561SOL     OW92579   2.299  10.854   0.731
63561SOL    HW192580   2.375  10.820   0.776
63561SOL    HW292581   2.322  10.849   0.638
63562SOL     OW92582  13.429   9.603   2.912
63562SOL    HW192583  13.372   9.586   2.987
63562SOL    HW292584  13.504   9.544   2.924
63563SOL     OW92585   4.683   1.543   7.920
63563SOL    HW192586   4.708   1.628   7.956
63563SOL    HW292587   4.755   1.485   7.944
63564SOL     OW92588   4.000   2.064  12.477
63564SOL    HW192589   3.908   2.061  12.503
63564SOL    HW292590   4.041   1.993  12.527
63565SOL     OW92591   4.122   6.076  13.808
63565SOL    HW192592   4.107   5.982  13.823
63565SOL    HW292593   4.037   6.117  13.828
63566SOL     OW92594   5.579  12.659  11.372
63566SOL    HW192595   5.655  12.648  11.316
63566SOL    HW292596   5.596  12.605  11.448
63567SOL     OW92597  10.950   3.930   8.174
63567SOL    HW192598  10.872   3.986   8.172
63567SOL    HW292599  10.981   3.929   8.083
63568SOL     OW92600   3.482   3.820  14.461
63568SOL    HW192601   3.431   3.778  14.392
63568SOL    HW292602   3.420   3.878  14.505
63569SOL     OW92603  12.185   1.194   9.685
63569SOL    HW192604  12.182   1.109   9.729
63569SOL    HW292605  12.180   1.258   9.756
63570SOL     OW92606  13.670   3.045  11.691
63570SOL    HW192607  13.670   2.961  11.644
63570SOL    HW292608  13.597   3.037  11.752
63571SOL     OW92609   8.652   3.859   8.446
63571SOL    HW192610   8.707   3.873   8.523
63571SOL    HW292611   8.712   3.826   8.379
63572SOL     OW92612  14.527   2.286   5.798
63572SOL    HW192613  14.559   2.369   5.761
63572SOL    HW292614  14.468   2.313   5.869
63573SOL     OW92615   7.601   1.729   7.842
63573SOL    HW192616   7.607   1.637   7.869
63573SOL    HW292617   7.650   1.777   7.909
63574SOL     OW92618   2.903  12.515   1.558
63574SOL    HW192619   2.851  12.558   1.627
63574SOL    HW292620   2.936  12.436   1.599
63575SOL     OW92621  10.466  10.998  12.927
63575SOL    HW192622  10.396  10.992  12.862
63575SOL    HW292623  10.476  10.909  12.960
63576SOL     OW92624   1.932   6.990  12.157
63576SOL    HW192625   2.006   7.015  12.213
63576SOL    HW292626   1.907   6.903  12.188
63577SOL     OW92627   8.337  13.052  13.688
63577SOL    HW192628   8.308  13.024  13.775
63577SOL    HW292629   8.316  12.978  13.631
63578SOL     OW92630   8.626   8.350   6.472
63578SOL    HW192631   8.643   8.288   6.401
63578SOL    HW292632   8.536   8.380   6.456
63579SOL     OW92633  14.245   2.929   7.832
63579SOL    HW192634  14.264   2.847   7.786
63579SOL    HW292635  14.244   2.996   7.763
63580SOL     OW92636   0.275   2.701  14.623
63580SOL    HW192637   0.190   2.688  14.580
63580SOL    HW292638   0.255   2.746  14.705
63581SOL     OW92639  13.343   4.228  14.822
63581SOL    HW192640  13.253   4.203  14.841
63581SOL    HW292641  13.387   4.225   0.040
63582SOL     OW92642  14.248  14.517  13.648
63582SOL    HW192643  14.320  14.482  13.596
63582SOL    HW292644  14.291  14.575  13.712
63583SOL     OW92645   6.886   7.150   1.307
63583SOL    HW192646   6.862   7.074   1.360
63583SOL    HW292647   6.842   7.136   1.223
63584SOL     OW92648  13.118   2.086   3.649
63584SOL    HW192649  13.057   2.014   3.635
63584SOL    HW292650  13.063   2.164   3.658
63585SOL     OW92651  12.114   5.525   2.030
63585SOL    HW192652  12.040   5.573   2.067
63585SOL    HW292653  12.080   5.436   2.016
63586SOL     OW92654   6.287   5.847   6.648
63586SOL    HW192655   6.369   5.834   6.600
63586SOL    HW292656   6.301   5.930   6.695
63587SOL     OW92657   7.148   7.111   9.005
63587SOL    HW192658   7.101   7.194   8.998
63587SOL    HW292659   7.175   7.091   8.915
63588SOL     OW92660   2.124   8.971  13.125
63588SOL    HW192661   2.192   8.912  13.158
63588SOL    HW292662   2.096   9.021  13.202
63589SOL     OW92663   1.177   0.695  13.027
63589SOL    HW192664   1.234   0.696  12.950
63589SOL    HW292665   1.088   0.691  12.991
63590SOL     OW92666  11.691   0.637   0.836
63590SOL    HW192667  11.651   0.609   0.917
63590SOL    HW292668  11.690   0.559   0.780
63591SOL     OW92669   6.469  12.115   4.600
63591SOL    HW192670   6.538  12.170   4.638
63591SOL    HW292671   6.389  12.143   4.645
63592SOL     OW92672   6.254  13.374   3.707
63592SOL    HW192673   6.239  13.305   3.642
63592SOL    HW292674   6.294  13.446   3.658
63593SOL     OW92675   2.333   9.771  13.291
63593SOL    HW192676   2.424   9.742  13.283
63593SOL    HW292677   2.304   9.736  13.375
63594SOL     OW92678   6.057  11.015  12.875
63594SOL    HW192679   6.013  11.073  12.813
63594SOL    HW292680   5.993  11.002  12.945
63595SOL     OW92681   6.774  12.051   4.717
63595SOL    HW192682   6.816  12.114   4.775
63595SOL    HW292683   6.705  12.012   4.770
63596SOL     OW92684  10.491   7.329   9.397
63596SOL    HW192685  10.576   7.291   9.420
63596SOL    HW292686  10.483   7.406   9.453
63597SOL     OW92687   7.640   9.794   1.307
63597SOL    HW192688   7.698   9.759   1.239
63597SOL    HW292689   7.662   9.887   1.310
63598SOL     OW92690  10.587   4.797   5.864
63598SOL    HW192691  10.636   4.872   5.896
63598SOL    HW292692  10.654   4.735   5.834
63599SOL     OW92693  14.152   2.043   8.956
63599SOL    HW192694  14.122   2.001   8.876
63599SOL    HW292695  14.124   1.984   9.026
63600SOL     OW92696  14.740  11.910   7.989
63600SOL    HW192697  14.781  11.948   7.912
63600SOL    HW292698  14.760  11.816   7.983
63601SOL     OW92699   5.440   5.328  13.686
63601SOL    HW192700   5.354   5.286  13.692
63601SOL    HW292701   5.420   5.421  13.680
63602SOL     OW92702   2.459   1.394   1.107
63602SOL    HW192703   2.367   1.371   1.092
63602SOL    HW292704   2.455   1.461   1.176
63603SOL     OW92705   3.805  11.926   8.723
63603SOL    HW192706   3.805  11.906   8.629
63603SOL    HW292707   3.872  11.869   8.760
63604SOL     OW92708   4.417   1.405   6.344
63604SOL    HW192709   4.427   1.468   6.415
63604SOL    HW292710   4.367   1.333   6.382
63605SOL     OW92711  10.433   2.613   0.406
63605SOL    HW192712  10.494   2.561   0.459
63605SOL    HW292713  10.346   2.586   0.436
63606SOL     OW92714   1.963   0.262   2.860
63606SOL    HW192715   1.995   0.326   2.923
63606SOL    HW292716   1.878   0.296   2.832
63607SOL     OW92717   1.156   5.706  14.365
63607SOL    HW192718   1.158   5.769  14.438
63607SOL    HW292719   1.065   5.704  14.338
63608SOL     OW92720  13.115  13.824   3.066
63608SOL    HW192721  13.151  13.755   3.122
63608SOL    HW292722  13.168  13.821   2.986
63609SOL     OW92723  11.321   3.047  13.610
63609SOL    HW192724  11.288   3.009  13.528
63609SOL    HW292725  11.322   3.142  13.593
63610SOL     OW92726   9.045  12.210  12.849
63610SOL    HW192727   9.013  12.144  12.911
63610SOL    HW292728   8.968  12.233  12.798
63611SOL     OW92729  11.309   9.096   6.900
63611SOL    HW192730  11.278   9.182   6.926
63611SOL    HW292731  11.245   9.035   6.937
63612SOL     OW92732   8.994  11.493   5.017
63612SOL    HW192733   8.989  11.502   4.922
63612SOL    HW292734   8.954  11.407   5.035
63613SOL     OW92735  13.307  12.497   0.087
63613SOL    HW192736  13.243  12.524   0.021
63613SOL    HW292737  13.345  12.417   0.051
63614SOL     OW92738   2.108   4.127   7.214
63614SOL    HW192739   2.175   4.096   7.276
63614SOL    HW292740   2.083   4.213   7.248
63615SOL     OW92741   0.547   8.124  14.251
63615SOL    HW192742   0.614   8.059  14.273
63615SOL    HW292743   0.571   8.152  14.162
63616SOL     OW92744  10.076  11.580   3.939
63616SOL    HW192745  10.110  11.625   3.862
63616SOL    HW292746  10.110  11.491   3.932
63617SOL     OW92747   6.553  10.191   0.290
63617SOL    HW192748   6.467  10.173   0.254
63617SOL    HW292749   6.539  10.264   0.350
63618SOL     OW92750   4.480   1.643   6.868
63618SOL    HW192751   4.454   1.616   6.780
63618SOL    HW292752   4.514   1.563   6.908
63619SOL     OW92753   5.709   1.595   2.345
63619SOL    HW192754   5.708   1.687   2.372
63619SOL    HW292755   5.634   1.557   2.391
63620SOL     OW92756   9.194  14.211  10.723
63620SOL    HW192757   9.222  14.255  10.643
63620SOL    HW292758   9.127  14.268  10.760
63621SOL     OW92759  11.792  11.786  10.485
63621SOL    HW192760  11.753  11.828  10.408
63621SOL    HW292761  11.803  11.695  10.460
63622SOL     OW92762   1.356   9.607  12.635
63622SOL    HW192763   1.328   9.527  12.590
63622SOL    HW292764   1.277   9.639  12.679
63623SOL     OW92765   8.975  13.752   0.748
63623SOL    HW192766   8.907  13.785   0.688
63623SOL    HW292767   9.054  13.749   0.694
63624SOL     OW92768   4.059  14.740   1.827
63624SOL    HW192769   4.130  14.802   1.840
63624SOL    HW292770   4.071  14.707   1.738
63625SOL     OW92771  12.181   3.561   9.854
63625SOL    HW192772  12.251   3.626   9.847
63625SOL    HW292773  12.110   3.597   9.801
63626SOL     OW92774   0.555  12.321   1.954
63626SOL    HW192775   0.520  12.232   1.965
63626SOL    HW292776   0.650  12.309   1.955
63627SOL     OW92777  11.360  13.554   9.499
63627SOL    HW192778  11.407  13.485   9.546
63627SOL    HW292779  11.318  13.606   9.568
63628SOL     OW92780  12.134   4.297  13.828
63628SOL    HW192781  12.072   4.366  13.853
63628SOL    HW292782  12.082   4.216  13.832
63629SOL     OW92783   5.006   5.600  13.789
63629SOL    HW192784   5.068   5.580  13.858
63629SOL    HW292785   4.965   5.682  13.817
63630SOL     OW92786  13.340  14.471   9.561
63630SOL    HW192787  13.390  14.490   9.481
63630SOL    HW292788  13.252  14.504   9.542
63631SOL     OW92789   2.285  14.631  12.840
63631SOL    HW192790   2.251  14.592  12.760
63631SOL    HW292791   2.375  14.601  12.846
63632SOL     OW92792   6.576  12.933   0.390
63632SOL    HW192793   6.669  12.950   0.406
63632SOL    HW292794   6.572  12.907   0.298
63633SOL     OW92795  10.224  11.504   4.720
63633SOL    HW192796  10.209  11.596   4.738
63633SOL    HW292797  10.180  11.457   4.791
63634SOL     OW92798   0.610  12.117   2.359
63634SOL    HW192799   0.652  12.032   2.345
63634SOL    HW292800   0.655  12.176   2.299
63635SOL     OW92801  10.138  10.147   1.152
63635SOL    HW192802  10.104  10.235   1.136
63635SOL    HW292803  10.100  10.094   1.083
63636SOL     OW92804   2.374   7.299   1.871
63636SOL    HW192805   2.302   7.334   1.924
63636SOL    HW292806   2.453   7.316   1.923
63637SOL     OW92807  13.355   9.523  11.557
63637SOL    HW192808  13.408   9.590  11.600
63637SOL    HW292809  13.417   9.457  11.527
63638SOL     OW92810   2.123   1.188   9.269
63638SOL    HW192811   2.186   1.124   9.236
63638SOL    HW292812   2.039   1.159   9.234
63639SOL     OW92813  10.484   3.864  14.310
63639SOL    HW192814  10.460   3.815  14.388
63639SOL    HW292815  10.421   3.936  14.307
63640SOL     OW92816   6.767   2.835   4.453
63640SOL    HW192817   6.750   2.811   4.362
63640SOL    HW292818   6.682   2.826   4.496
63641SOL     OW92819   4.324   3.770  13.310
63641SOL    HW192820   4.240   3.731  13.333
63641SOL    HW292821   4.318   3.861  13.341
63642SOL     OW92822   2.003  13.946   3.151
63642SOL    HW192823   1.926  13.896   3.124
63642SOL    HW292824   1.992  13.957   3.246
63643SOL     OW92825  11.117  12.732   7.456
63643SOL    HW192826  11.178  12.755   7.385
63643SOL    HW292827  11.047  12.796   7.449
63644SOL     OW92828   6.981   6.968   0.708
63644SOL    HW192829   7.010   7.052   0.671
63644SOL    HW292830   6.897   6.951   0.665
63645SOL     OW92831  10.901   1.781   5.644
63645SOL    HW192832  10.942   1.848   5.699
63645SOL    HW292833  10.817   1.764   5.687
63646SOL     OW92834  11.927   9.159  11.409
63646SOL    HW192835  11.887   9.212  11.339
63646SOL    HW292836  11.931   9.219  11.484
63647SOL     OW92837   3.396   1.306   1.200
63647SOL    HW192838   3.445   1.365   1.143
63647SOL    HW292839   3.395   1.223   1.152
63648SOL     OW92840   5.001  14.116   6.209
63648SOL    HW192841   4.928  14.115   6.148
63648SOL    HW292842   5.011  14.208   6.233
63649SOL     OW92843   0.442  10.591   9.132
63649SOL    HW192844   0.515  10.647   9.157
63649SOL    HW292845   0.417  10.546   9.213
63650SOL     OW92846   3.359  10.825  12.523
63650SOL    HW192847   3.340  10.915  12.497
63650SOL    HW292848   3.377  10.779  12.441
63651SOL     OW92849   5.930   0.549   9.362
63651SOL    HW192850   5.959   0.461   9.341
63651SOL    HW292851   5.999   0.606   9.328
63652SOL     OW92852   8.717   7.559  13.023
63652SOL    HW192853   8.747   7.519  13.105
63652SOL    HW292854   8.797   7.566  12.970
63653SOL     OW92855   0.857   7.550  12.447
63653SOL    HW192856   0.938   7.601  12.449
63653SOL    HW292857   0.876   7.474  12.502
63654SOL     OW92858  14.145   6.554   4.428
63654SOL    HW192859  14.110   6.514   4.508
63654SOL    HW292860  14.239   6.563   4.445
63655SOL     OW92861   2.087   3.754  13.801
63655SOL    HW192862   2.022   3.715  13.860
63655SOL    HW292863   2.079   3.848  13.815
63656SOL     OW92864   1.906  14.808   3.934
63656SOL    HW192865   1.988  14.849   3.961
63656SOL    HW292866   1.926  14.767   3.850
63657SOL     OW92867   5.227   3.529  14.405
63657SOL    HW192868   5.187   3.482  14.478
63657SOL    HW292869   5.223   3.468  14.332
63658SOL     OW92870   1.676   5.677  12.174
63658SOL    HW192871   1.669   5.728  12.255
63658SOL    HW292872   1.755   5.712  12.131
63659SOL     OW92873  12.349  13.327   6.493
63659SOL    HW192874  12.419  13.340   6.429
63659SOL    HW292875  12.275  13.377   6.458
63660SOL     OW92876   0.725  12.329  14.461
63660SOL    HW192877   0.717  12.423  14.446
63660SOL    HW292878   0.678  12.313  14.542
63661SOL     OW92879   0.280   1.087  12.349
63661SOL    HW192880   0.185   1.076  12.353
63661SOL    HW292881   0.295   1.178  12.377
63662SOL     OW92882   0.897   2.749   1.112
63662SOL    HW192883   0.944   2.832   1.098
63662SOL    HW292884   0.808   2.766   1.081
63663SOL     OW92885   1.384  11.198   0.934
63663SOL    HW192886   1.448  11.138   0.973
63663SOL    HW292887   1.415  11.285   0.959
63664SOL     OW92888  12.985  13.578  10.968
63664SOL    HW192889  12.917  13.548  10.909
63664SOL    HW292890  12.963  13.670  10.985
63665SOL     OW92891   5.936   4.657   4.294
63665SOL    HW192892   5.857   4.634   4.343
63665SOL    HW292893   5.994   4.695   4.360
63666SOL     OW92894  13.494  10.946   7.854
63666SOL    HW192895  13.454  10.891   7.920
63666SOL    HW292896  13.448  10.924   7.773
63667SOL     OW92897  13.522   8.559  12.498
63667SOL    HW192898  13.609   8.535  12.530
63667SOL    HW292899  13.477   8.591  12.576
63668SOL     OW92900  11.107   9.314  13.646
63668SOL    HW192901  11.019   9.294  13.616
63668SOL    HW292902  11.152   9.229  13.650
63669SOL     OW92903   0.105  12.512   6.767
63669SOL    HW192904   0.176  12.551   6.714
63669SOL    HW292905   0.150  12.460   6.833
63670SOL     OW92906   8.589   3.766   4.076
63670SOL    HW192907   8.664   3.820   4.101
63670SOL    HW292908   8.628   3.681   4.054
63671SOL     OW92909   2.124  14.267   8.915
63671SOL    HW192910   2.118  14.347   8.864
63671SOL    HW292911   2.060  14.278   8.985
63672SOL     OW92912  13.608  11.423   0.365
63672SOL    HW192913  13.648  11.360   0.305
63672SOL    HW292914  13.538  11.373   0.408
63673SOL     OW92915   9.185  12.412   6.758
63673SOL    HW192916   9.111  12.367   6.717
63673SOL    HW292917   9.194  12.494   6.709
63674SOL     OW92918  13.619   0.426   9.465
63674SOL    HW192919  13.701   0.379   9.457
63674SOL    HW292920  13.582   0.395   9.548
63675SOL     OW92921   7.984   4.124   2.574
63675SOL    HW192922   8.024   4.152   2.657
63675SOL    HW292923   8.016   4.035   2.562
63676SOL     OW92924   2.953   0.362   0.445
63676SOL    HW192925   2.964   0.267   0.449
63676SOL    HW292926   2.966   0.384   0.353
63677SOL     OW92927  10.275   8.461   9.693
63677SOL    HW192928  10.242   8.449   9.782
63677SOL    HW292929  10.220   8.405   9.638
63678SOL     OW92930   0.678  13.172  11.362
63678SOL    HW192931   0.673  13.263  11.392
63678SOL    HW292932   0.595  13.158  11.316
63679SOL     OW92933  12.821   8.900   8.485
63679SOL    HW192934  12.791   8.860   8.566
63679SOL    HW292935  12.842   8.990   8.509
63680SOL     OW92936   0.041   8.658   4.006
63680SOL    HW192937   0.028   8.565   3.987
63680SOL    HW292938  14.852   8.674   4.082
63681SOL     OW92939  13.988   2.600   3.667
63681SOL    HW192940  13.922   2.600   3.597
63681SOL    HW292941  14.069   2.623   3.622
63682SOL     OW92942   2.258  11.278   5.047
63682SOL    HW192943   2.261  11.260   5.141
63682SOL    HW292944   2.188  11.343   5.038
63683SOL     OW92945  14.597  10.704   3.279
63683SOL    HW192946  14.660  10.659   3.221
63683SOL    HW292947  14.597  10.652   3.359
63684SOL     OW92948   0.694  10.606   4.926
63684SOL    HW192949   0.667  10.599   4.834
63684SOL    HW292950   0.784  10.571   4.926
63685SOL     OW92951   6.299  14.195   8.544
63685SOL    HW192952   6.276  14.142   8.621
63685SOL    HW292953   6.228  14.177   8.481
63686SOL     OW92954   1.521   0.083   5.848
63686SOL    HW192955   1.441   0.113   5.891
63686SOL    HW292956   1.495   0.066   5.757
63687SOL     OW92957   2.969   6.595   6.291
63687SOL    HW192958   2.947   6.512   6.334
63687SOL    HW292959   3.003   6.650   6.362
63688SOL     OW92960   5.588   9.975   9.502
63688SOL    HW192961   5.609   9.964   9.595
63688SOL    HW292962   5.663   9.937   9.456
63689SOL     OW92963   1.285  10.522  10.889
63689SOL    HW192964   1.368  10.497  10.849
63689SOL    HW292965   1.241  10.575  10.823
63690SOL     OW92966  13.777  10.670  12.255
63690SOL    HW192967  13.775  10.623  12.172
63690SOL    HW292968  13.695  10.647  12.298
63691SOL     OW92969   4.040   3.966  14.677
63691SOL    HW192970   4.079   3.892  14.629
63691SOL    HW292971   4.001   3.926  14.754
63692SOL     OW92972   0.563   1.851   4.612
63692SOL    HW192973   0.515   1.833   4.693
63692SOL    HW292974   0.645   1.803   4.622
63693SOL     OW92975   4.865   1.415   4.636
63693SOL    HW192976   4.950   1.452   4.663
63693SOL    HW292977   4.804   1.488   4.645
63694SOL     OW92978  13.940   0.737   0.229
63694SOL    HW192979  14.030   0.767   0.245
63694SOL    HW292980  13.932   0.735   0.134
63695SOL     OW92981   7.381   3.532  10.954
63695SOL    HW192982   7.455   3.579  10.914
63695SOL    HW292983   7.358   3.465  10.890
63696SOL     OW92984   3.571   5.155   5.487
63696SOL    HW192985   3.544   5.194   5.404
63696SOL    HW292986   3.542   5.217   5.554
63697SOL     OW92987   5.920   1.672  13.036
63697SOL    HW192988   5.895   1.734  12.967
63697SOL    HW292989   5.989   1.717  13.083
63698SOL     OW92990  14.812   6.752   2.893
63698SOL    HW192991   0.030   6.770   2.933
63698SOL    HW292992  14.766   6.836   2.899
63699SOL     OW92993   3.575   1.980  12.916
63699SOL    HW192994   3.616   1.980  13.003
63699SOL    HW292995   3.629   1.921  12.864
63700SOL     OW92996  13.296   8.333   7.446
63700SOL    HW192997  13.359   8.332   7.373
63700SOL    HW292998  13.343   8.375   7.517
63701SOL     OW92999   8.539   5.259   4.382
63701SOL    HW193000   8.474   5.212   4.329
63701SOL    HW293001   8.539   5.213   4.466
63702SOL     OW93002  10.540  13.205   2.513
63702SOL    HW193003  10.590  13.254   2.579
63702SOL    HW293004  10.518  13.271   2.447
63703SOL     OW93005  11.457   0.323  13.503
63703SOL    HW193006  11.442   0.233  13.533
63703SOL    HW293007  11.503   0.365  13.575
63704SOL     OW93008   4.526  14.391   1.512
63704SOL    HW193009   4.462  14.455   1.545
63704SOL    HW293010   4.473  14.328   1.463
63705SOL     OW93011   7.689   8.307  10.808
63705SOL    HW193012   7.611   8.259  10.781
63705SOL    HW293013   7.721   8.348  10.728
63706SOL     OW93014  13.667   4.644  12.948
63706SOL    HW193015  13.675   4.593  13.029
63706SOL    HW293016  13.638   4.581  12.882
63707SOL     OW93017   3.951   6.958  13.365
63707SOL    HW193018   4.006   7.003  13.430
63707SOL    HW293019   3.878   6.923  13.416
63708SOL     OW93020   8.330   7.188   0.280
63708SOL    HW193021   8.340   7.188   0.375
63708SOL    HW293022   8.345   7.279   0.254
63709SOL     OW93023  12.229   9.144   2.055
63709SOL    HW193024  12.171   9.069   2.058
63709SOL    HW293025  12.188   9.203   1.992
63710SOL     OW93026  10.371   6.529  11.755
63710SOL    HW193027  10.439   6.498  11.696
63710SOL    HW293028  10.295   6.543  11.699
63711SOL     OW93029  11.384   7.291   5.390
63711SOL    HW193030  11.397   7.219   5.452
63711SOL    HW293031  11.332   7.253   5.319
63712SOL     OW93032  14.675   6.978   2.784
63712SOL    HW193033  14.651   6.987   2.876
63712SOL    HW293034  14.672   7.068   2.750
63713SOL     OW93035   6.766  11.569   4.191
63713SOL    HW193036   6.707  11.497   4.167
63713SOL    HW293037   6.853  11.538   4.167
63714SOL     OW93038   4.014   6.685   4.772
63714SOL    HW193039   4.000   6.687   4.867
63714SOL    HW293040   3.940   6.636   4.738
63715SOL     OW93041   0.502   6.186   0.066
63715SOL    HW193042   0.511   6.121  14.863
63715SOL    HW293043   0.504   6.133   0.146
63716SOL     OW93044   8.030   4.460   9.513
63716SOL    HW193045   8.029   4.370   9.546
63716SOL    HW293046   7.977   4.509   9.575
63717SOL     OW93047   9.774   4.824   1.320
63717SOL    HW193048   9.864   4.820   1.352
63717SOL    HW293049   9.744   4.733   1.320
63718SOL     OW93050  14.777  10.081   4.635
63718SOL    HW193051  14.694  10.066   4.681
63718SOL    HW293052  14.813   9.993   4.623
63719SOL     OW93053   6.893   1.955   3.632
63719SOL    HW193054   6.914   1.934   3.723
63719SOL    HW293055   6.804   1.992   3.636
63720SOL     OW93056  11.237   5.186   1.323
63720SOL    HW193057  11.316   5.214   1.369
63720SOL    HW293058  11.263   5.105   1.279
63721SOL     OW93059  12.774   1.941  12.591
63721SOL    HW193060  12.852   1.899  12.555
63721SOL    HW293061  12.801   1.976  12.675
63722SOL     OW93062  14.782   7.148   6.029
63722SOL    HW193063  14.799   7.171   5.937
63722SOL    HW293064  14.864   7.110   6.060
63723SOL     OW93065   2.550   7.895  13.198
63723SOL    HW193066   2.471   7.844  13.212
63723SOL    HW293067   2.594   7.851  13.125
63724SOL     OW93068   7.995   0.771  11.123
63724SOL    HW193069   7.973   0.720  11.201
63724SOL    HW293070   7.963   0.718  11.050
63725SOL     OW93071  12.715   2.080   3.677
63725SOL    HW193072  12.747   1.991   3.691
63725SOL    HW293073  12.732   2.125   3.759
63726SOL     OW93074   1.784   9.670   2.864
63726SOL    HW193075   1.754   9.756   2.833
63726SOL    HW293076   1.875   9.685   2.892
63727SOL     OW93077   0.033   8.538   7.448
63727SOL    HW193078   0.108   8.545   7.389
63727SOL    HW293079  14.839   8.603   7.415
63728SOL     OW93080   1.460  13.024   1.223
63728SOL    HW193081   1.424  12.936   1.208
63728SOL    HW293082   1.529  13.010   1.289
63729SOL     OW93083   5.676   2.089   0.265
63729SOL    HW193084   5.626   2.011   0.242
63729SOL    HW293085   5.728   2.108   0.187
63730SOL     OW93086  11.693  14.386   5.354
63730SOL    HW193087  11.690  14.292   5.335
63730SOL    HW293088  11.604  14.407   5.385
63731SOL     OW93089   5.536  11.455  11.521
63731SOL    HW193090   5.574  11.385  11.467
63731SOL    HW293091   5.494  11.514  11.458
63732SOL     OW93092   9.897  14.093   7.069
63732SOL    HW193093   9.843  14.168   7.045
63732SOL    HW293094   9.987  14.121   7.051
63733SOL     OW93095   5.584   4.004  11.004
63733SOL    HW193096   5.653   3.943  11.032
63733SOL    HW293097   5.506   3.974  11.050
63734SOL     OW93098   2.892  13.881   5.654
63734SOL    HW193099   2.975  13.843   5.625
63734SOL    HW293100   2.917  13.955   5.709
63735SOL     OW93101   6.871   4.060  13.414
63735SOL    HW193102   6.886   3.994  13.346
63735SOL    HW293103   6.951   4.113  13.413
63736SOL     OW93104   8.429   8.299   1.727
63736SOL    HW193105   8.389   8.231   1.673
63736SOL    HW293106   8.523   8.289   1.713
63737SOL     OW93107  10.488  10.068   4.764
63737SOL    HW193108  10.404  10.113   4.772
63737SOL    HW293109  10.466   9.982   4.729
63738SOL     OW93110  11.673   8.906  13.711
63738SOL    HW193111  11.609   8.862  13.767
63738SOL    HW293112  11.758   8.882  13.748
63739SOL     OW93113   1.723   1.110   1.078
63739SOL    HW193114   1.747   1.127   0.987
63739SOL    HW293115   1.774   1.173   1.128
63740SOL     OW93116  12.017   7.910  12.596
63740SOL    HW193117  11.953   7.923  12.665
63740SOL    HW293118  12.076   7.985  12.602
63741SOL     OW93119  10.358   2.599  14.145
63741SOL    HW193120  10.413   2.637  14.213
63741SOL    HW293121  10.270   2.631  14.164
63742SOL     OW93122  10.558  11.017   4.231
63742SOL    HW193123  10.606  11.014   4.314
63742SOL    HW293124  10.489  11.082   4.245
63743SOL     OW93125   1.317  14.113  13.498
63743SOL    HW193126   1.265  14.175  13.446
63743SOL    HW293127   1.399  14.104  13.450
63744SOL     OW93128   2.389   8.342  12.809
63744SOL    HW193129   2.356   8.400  12.741
63744SOL    HW293130   2.422   8.400  12.877
63745SOL     OW93131   8.373   4.778  14.650
63745SOL    HW193132   8.389   4.847  14.715
63745SOL    HW293133   8.363   4.826  14.567
63746SOL     OW93134   9.751   5.992   2.225
63746SOL    HW193135   9.663   6.002   2.188
63746SOL    HW293136   9.796   5.933   2.165
63747SOL     OW93137  13.824  12.990   4.150
63747SOL    HW193138  13.894  13.054   4.161
63747SOL    HW293139  13.747  13.043   4.126
63748SOL     OW93140   8.779   2.119   6.122
63748SOL    HW193141   8.862   2.166   6.128
63748SOL    HW293142   8.771   2.095   6.030
63749SOL     OW93143  11.489   1.430  13.589
63749SOL    HW193144  11.577   1.391  13.589
63749SOL    HW293145  11.440   1.378  13.526
63750SOL     OW93146  14.786   7.474  14.498
63750SOL    HW193147  14.721   7.461  14.567
63750SOL    HW293148  14.740   7.526  14.432
63751SOL     OW93149   0.328   0.802   6.240
63751SOL    HW193150   0.281   0.842   6.167
63751SOL    HW293151   0.411   0.773   6.203
63752SOL     OW93152   1.799   0.359   5.810
63752SOL    HW193153   1.765   0.343   5.898
63752SOL    HW293154   1.890   0.385   5.824
63753SOL     OW93155   7.151   5.895   6.647
63753SOL    HW193156   7.197   5.956   6.705
63753SOL    HW293157   7.142   5.943   6.564
63754SOL     OW93158  11.415   5.115   7.416
63754SOL    HW193159  11.448   5.101   7.505
63754SOL    HW293160  11.323   5.138   7.428
63755SOL     OW93161  11.909   8.333   0.900
63755SOL    HW193162  11.875   8.395   0.964
63755SOL    HW293163  11.994   8.305   0.935
63756SOL     OW93164  12.422   6.251   8.799
63756SOL    HW193165  12.374   6.333   8.801
63756SOL    HW293166  12.366   6.191   8.750
63757SOL     OW93167   6.068  10.964   8.579
63757SOL    HW193168   6.144  10.971   8.521
63757SOL    HW293169   6.000  10.923   8.526
63758SOL     OW93170   4.922   4.636   4.809
63758SOL    HW193171   4.862   4.650   4.735
63758SOL    HW293172   4.872   4.661   4.886
63759SOL     OW93173   2.143   3.032   4.008
63759SOL    HW193174   2.147   3.127   4.004
63759SOL    HW293175   2.223   3.007   4.056
63760SOL     OW93176  10.843   7.634   8.417
63760SOL    HW193177  10.811   7.692   8.347
63760SOL    HW293178  10.781   7.648   8.489
63761SOL     OW93179  11.900  13.798  10.707
63761SOL    HW193180  11.988  13.793  10.745
63761SOL    HW293181  11.876  13.890  10.713
63762SOL     OW93182  14.802  11.649   8.024
63762SOL    HW193183  14.802  11.626   8.117
63762SOL    HW293184  14.798  11.566   7.978
63763SOL     OW93185   2.599   3.699   8.203
63763SOL    HW193186   2.534   3.726   8.138
63763SOL    HW293187   2.668   3.764   8.197
63764SOL     OW93188   7.464   2.498   6.162
63764SOL    HW193189   7.545   2.448   6.147
63764SOL    HW293190   7.474   2.533   6.251
63765SOL     OW93191   5.634   8.637   2.858
63765SOL    HW193192   5.604   8.724   2.885
63765SOL    HW293193   5.692   8.654   2.783
63766SOL     OW93194   1.863   3.058   5.074
63766SOL    HW193195   1.886   3.146   5.104
63766SOL    HW293196   1.822   3.017   5.150
63767SOL     OW93197   4.789   9.139   8.106
63767SOL    HW193198   4.840   9.155   8.185
63767SOL    HW293199   4.803   9.216   8.051
63768SOL     OW93200   6.363   5.027   3.449
63768SOL    HW193201   6.293   5.079   3.489
63768SOL    HW293202   6.325   4.940   3.439
63769SOL     OW93203  12.415   9.602   6.078
63769SOL    HW193204  12.420   9.521   6.129
63769SOL    HW293205  12.458   9.581   5.996
63770SOL     OW93206   6.041  10.356   9.413
63770SOL    HW193207   6.016  10.448   9.405
63770SOL    HW293208   6.014  10.317   9.330
63771SOL     OW93209  14.116   2.885  12.820
63771SOL    HW193210  14.023   2.869  12.806
63771SOL    HW293211  14.143   2.819  12.884
63772SOL     OW93212   7.140  11.469   0.733
63772SOL    HW193213   7.205  11.532   0.766
63772SOL    HW293214   7.142  11.398   0.796
63773SOL     OW93215   7.681   7.337   1.059
63773SOL    HW193216   7.727   7.254   1.048
63773SOL    HW293217   7.746   7.404   1.040
63774SOL     OW93218  12.787   3.078   4.513
63774SOL    HW193219  12.776   3.032   4.596
63774SOL    HW293220  12.704   3.066   4.466
63775SOL     OW93221   7.056  12.249   5.317
63775SOL    HW193222   7.076  12.229   5.226
63775SOL    HW293223   6.985  12.189   5.341
63776SOL     OW93224   5.043   5.987   7.028
63776SOL    HW193225   5.118   5.989   6.969
63776SOL    HW293226   5.004   6.074   7.021
63777SOL     OW93227   8.243   0.378   5.879
63777SOL    HW193228   8.151   0.358   5.863
63777SOL    HW293229   8.273   0.422   5.800
63778SOL     OW93230  14.141  12.186  10.785
63778SOL    HW193231  14.164  12.270  10.745
63778SOL    HW293232  14.080  12.209  10.856
63779SOL     OW93233   9.782   1.647  13.755
63779SOL    HW193234   9.865   1.684  13.783
63779SOL    HW293235   9.762   1.692  13.672
63780SOL     OW93236   4.949   2.813  13.230
63780SOL    HW193237   4.985   2.754  13.164
63780SOL    HW293238   4.854   2.805  13.219
63781SOL     OW93239   1.789   2.476   4.142
63781SOL    HW193240   1.866   2.497   4.089
63781SOL    HW293241   1.788   2.545   4.209
63782SOL     OW93242   6.511   4.891  13.576
63782SOL    HW193243   6.430   4.849  13.548
63782SOL    HW293244   6.545   4.934  13.498
63783SOL     OW93245  12.507  13.811   9.077
63783SOL    HW193246  12.542  13.884   9.026
63783SOL    HW293247  12.474  13.851   9.158
63784SOL     OW93248   3.016   1.683   1.545
63784SOL    HW193249   3.017   1.709   1.453
63784SOL    HW293250   2.997   1.589   1.543
63785SOL     OW93251   0.312   7.973   5.844
63785SOL    HW193252   0.234   7.985   5.899
63785SOL    HW293253   0.279   7.938   5.762
63786SOL     OW93254   8.176   2.336   9.111
63786SOL    HW193255   8.097   2.283   9.120
63786SOL    HW293256   8.227   2.318   9.190
63787SOL     OW93257  13.246   5.047   2.598
63787SOL    HW193258  13.250   4.972   2.658
63787SOL    HW293259  13.247   5.007   2.511
63788SOL     OW93260  11.966   6.885   8.824
63788SOL    HW193261  11.957   6.872   8.730
63788SOL    HW293262  11.923   6.808   8.863
63789SOL     OW93263   9.761   1.999   8.679
63789SOL    HW193264   9.747   1.949   8.760
63789SOL    HW293265   9.707   1.956   8.614
63790SOL     OW93266   0.380  13.387   0.516
63790SOL    HW193267   0.325  13.312   0.491
63790SOL    HW293268   0.431  13.355   0.591
63791SOL     OW93269   6.724   7.317  14.292
63791SOL    HW193270   6.696   7.322  14.384
63791SOL    HW293271   6.819   7.329  14.296
63792SOL     OW93272   5.368  13.443   9.834
63792SOL    HW193273   5.328  13.488   9.760
63792SOL    HW293274   5.459  13.429   9.807
63793SOL     OW93275  13.915   0.028   1.307
63793SOL    HW193276  13.894  14.804   1.319
63793SOL    HW293277  13.967   0.051   1.384
63794SOL     OW93278  10.643   0.857   9.901
63794SOL    HW193279  10.613   0.941   9.867
63794SOL    HW293280  10.575   0.795   9.873
63795SOL     OW93281   4.654  14.573  14.004
63795SOL    HW193282   4.663  14.494  13.951
63795SOL    HW293283   4.650  14.542  14.094
63796SOL     OW93284   3.622   9.393   1.102
63796SOL    HW193285   3.671   9.409   1.022
63796SOL    HW293286   3.635   9.471   1.155
63797SOL     OW93287   7.024   1.402  14.147
63797SOL    HW193288   7.111   1.396  14.188
63797SOL    HW293289   6.964   1.374  14.216
63798SOL     OW93290  11.442   0.028   9.336
63798SOL    HW193291  11.483   0.019   9.250
63798SOL    HW293292  11.364  14.841   9.331
63799SOL     OW93293   8.370  12.922   9.466
63799SOL    HW193294   8.411  12.848   9.510
63799SOL    HW293295   8.366  12.895   9.374
63800SOL     OW93296   2.993   2.300   5.924
63800SOL    HW193297   3.021   2.363   5.991
63800SOL    HW293298   3.025   2.216   5.955
63801SOL     OW93299  10.819  14.212   3.245
63801SOL    HW193300  10.805  14.273   3.172
63801SOL    HW293301  10.912  14.190   3.241
63802SOL     OW93302   6.535  12.736   7.892
63802SOL    HW193303   6.575  12.810   7.845
63802SOL    HW293304   6.571  12.742   7.980
63803SOL     OW93305   0.712   2.562  10.796
63803SOL    HW193306   0.682   2.571  10.887
63803SOL    HW293307   0.793   2.612  10.793
63804SOL     OW93308   9.795   9.874   5.575
63804SOL    HW193309   9.846   9.879   5.656
63804SOL    HW293310   9.770   9.965   5.557
63805SOL     OW93311   1.663  10.740   0.574
63805SOL    HW193312   1.596  10.774   0.515
63805SOL    HW293313   1.685  10.654   0.538
63806SOL     OW93314   5.984   5.531   0.999
63806SOL    HW193315   5.919   5.465   1.021
63806SOL    HW293316   5.987   5.589   1.076
63807SOL     OW93317  10.422  12.331  11.946
63807SOL    HW193318  10.348  12.319  12.005
63807SOL    HW293319  10.385  12.317  11.858
63808SOL     OW93320   3.036   6.297   9.245
63808SOL    HW193321   2.999   6.324   9.161
63808SOL    HW293322   3.129   6.321   9.238
63809SOL     OW93323  12.656   1.587   1.225
63809SOL    HW193324  12.627   1.496   1.216
63809SOL    HW293325  12.579   1.639   1.204
63810SOL     OW93326  12.460  14.505   7.252
63810SOL    HW193327  12.525  14.523   7.185
63810SOL    HW293328  12.455  14.409   7.256
63811SOL     OW93329   1.000   5.679   5.013
63811SOL    HW193330   1.072   5.626   5.046
63811SOL    HW293331   0.953   5.621   4.953
63812SOL     OW93332   9.353   5.043   2.791
63812SOL    HW193333   9.442   5.039   2.754
63812SOL    HW293334   9.333   5.137   2.794
63813SOL     OW93335   0.108   0.685  10.616
63813SOL    HW193336   0.049   0.749  10.655
63813SOL    HW293337   0.195   0.725  10.621
63814SOL     OW93338   6.164   1.818   0.376
63814SOL    HW193339   6.097   1.849   0.314
63814SOL    HW293340   6.155   1.876   0.452
63815SOL     OW93341  12.179  13.425   3.078
63815SOL    HW193342  12.163  13.511   3.039
63815SOL    HW293343  12.117  13.421   3.151
63816SOL     OW93344   6.805   0.697   5.819
63816SOL    HW193345   6.710   0.706   5.824
63816SOL    HW293346   6.834   0.771   5.767
63817SOL     OW93347   3.422   5.988  10.351
63817SOL    HW193348   3.472   5.998  10.432
63817SOL    HW293349   3.368   5.910  10.365
63818SOL     OW93350   6.827   5.832   7.643
63818SOL    HW193351   6.796   5.744   7.621
63818SOL    HW293352   6.809   5.884   7.565
63819SOL     OW93353   6.349   4.749   6.815
63819SOL    HW193354   6.373   4.776   6.727
63819SOL    HW293355   6.433   4.731   6.859
63820SOL     OW93356   5.332   3.606   7.295
63820SOL    HW193357   5.426   3.625   7.301
63820SOL    HW293358   5.325   3.515   7.326
63821SOL     OW93359   8.363   4.215  11.101
63821SOL    HW193360   8.453   4.246  11.090
63821SOL    HW293361   8.367   4.156  11.177
63822SOL     OW93362   4.151   7.177   6.449
63822SOL    HW193363   4.201   7.181   6.530
63822SOL    HW293364   4.213   7.143   6.384
63823SOL     OW93365  11.711   1.602   4.676
63823SOL    HW193366  11.700   1.507   4.678
63823SOL    HW293367  11.687   1.630   4.765
63824SOL     OW93368   5.448   3.331  12.892
63824SOL    HW193369   5.499   3.305  12.815
63824SOL    HW293370   5.510   3.381  12.946
63825SOL     OW93371  11.754   7.921   0.337
63825SOL    HW193372  11.670   7.906   0.378
63825SOL    HW293373  11.795   7.990   0.389
63826SOL     OW93374   9.790   1.836   5.789
63826SOL    HW193375   9.839   1.765   5.748
63826SOL    HW293376   9.854   1.882   5.843
63827SOL     OW93377   9.338   2.294   8.944
63827SOL    HW193378   9.254   2.320   8.907
63827SOL    HW293379   9.382   2.247   8.873
63828SOL     OW93380   8.541  10.193   2.536
63828SOL    HW193381   8.570  10.237   2.457
63828SOL    HW293382   8.622  10.169   2.581
63829SOL     OW93383  14.637   7.389  10.990
63829SOL    HW193384  14.541   7.398  10.991
63829SOL    HW293385  14.652   7.295  10.980
63830SOL     OW93386   3.377   9.008   8.839
63830SOL    HW193387   3.420   8.990   8.922
63830SOL    HW293388   3.326   8.929   8.820
63831SOL     OW93389   0.240  12.994  11.928
63831SOL    HW193390   0.265  13.037  11.847
63831SOL    HW293391   0.293  13.036  11.995
63832SOL     OW93392  13.298   6.808   8.407
63832SOL    HW193393  13.387   6.780   8.431
63832SOL    HW293394  13.243   6.731   8.425
63833SOL     OW93395   7.033  14.504   5.256
63833SOL    HW193396   6.992  14.520   5.171
63833SOL    HW293397   7.115  14.459   5.236
63834SOL     OW93398   8.340  11.628   0.625
63834SOL    HW193399   8.270  11.691   0.644
63834SOL    HW293400   8.408  11.680   0.583
63835SOL     OW93401   6.695   5.843   0.071
63835SOL    HW193402   6.649   5.762   0.048
63835SOL    HW293403   6.680   5.853   0.165
63836SOL     OW93404   8.943  10.427   9.272
63836SOL    HW193405   8.935  10.507   9.220
63836SOL    HW293406   8.976  10.361   9.210
63837SOL     OW93407   0.472  14.302   2.202
63837SOL    HW193408   0.437  14.297   2.291
63837SOL    HW293409   0.400  14.335   2.149
63838SOL     OW93410  11.947   4.604  13.631
63838SOL    HW193411  11.965   4.697  13.619
63838SOL    HW293412  11.874   4.586  13.571
63839SOL     OW93413   4.686   1.842  13.145
63839SOL    HW193414   4.601   1.818  13.107
63839SOL    HW293415   4.721   1.908  13.086
63840SOL     OW93416   9.681   2.985   2.245
63840SOL    HW193417   9.732   2.906   2.265
63840SOL    HW293418   9.711   3.011   2.158
63841SOL     OW93419  11.459   8.142   0.223
63841SOL    HW193420  11.554   8.143   0.235
63841SOL    HW293421  11.428   8.079   0.289
63842SOL     OW93422   2.283   7.273   8.158
63842SOL    HW193423   2.338   7.333   8.209
63842SOL    HW293424   2.339   7.197   8.143
63843SOL     OW93425  12.501  13.067  10.092
63843SOL    HW193426  12.411  13.098  10.107
63843SOL    HW293427  12.552  13.146  10.079
63844SOL     OW93428  14.058  11.906   9.114
63844SOL    HW193429  13.977  11.951   9.090
63844SOL    HW293430  14.121  11.977   9.128
63845SOL     OW93431  14.384   2.832  10.837
63845SOL    HW193432  14.406   2.825  10.930
63845SOL    HW293433  14.419   2.752  10.798
63846SOL     OW93434   2.771  14.362   4.956
63846SOL    HW193435   2.806  14.313   4.881
63846SOL    HW293436   2.677  14.364   4.941
63847SOL     OW93437   0.685   4.120   9.580
63847SOL    HW193438   0.632   4.193   9.549
63847SOL    HW293439   0.708   4.143   9.670
63848SOL     OW93440   5.739  11.508   4.177
63848SOL    HW193441   5.732  11.413   4.180
63848SOL    HW293442   5.653  11.540   4.204
63849SOL     OW93443   9.564   4.730   9.499
63849SOL    HW193444   9.561   4.701   9.590
63849SOL    HW293445   9.509   4.808   9.497
63850SOL     OW93446   1.869   3.362   4.206
63850SOL    HW193447   1.866   3.314   4.289
63850SOL    HW293448   1.929   3.311   4.151
63851SOL     OW93449   8.069   6.315   3.061
63851SOL    HW193450   8.160   6.285   3.056
63851SOL    HW293451   8.046   6.338   2.971
63852SOL     OW93452   0.270   7.991   5.543
63852SOL    HW193453   0.345   8.051   5.545
63852SOL    HW293454   0.246   7.987   5.451
63853SOL     OW93455   8.207  12.843   3.683
63853SOL    HW193456   8.286  12.835   3.630
63853SOL    HW293457   8.136  12.846   3.619
63854SOL     OW93458  10.883   9.467  12.085
63854SOL    HW193459  10.860   9.390  12.138
63854SOL    HW293460  10.803   9.488  12.037
63855SOL     OW93461   4.449  10.694   8.462
63855SOL    HW193462   4.404  10.691   8.547
63855SOL    HW293463   4.503  10.615   8.461
63856SOL     OW93464   2.474   4.761  10.298
63856SOL    HW193465   2.474   4.666  10.285
63856SOL    HW293466   2.565   4.788  10.288
63857SOL     OW93467   9.613  12.032  11.678
63857SOL    HW193468   9.660  12.114  11.668
63857SOL    HW293469   9.581  12.012  11.590
63858SOL     OW93470   6.210   7.466   1.181
63858SOL    HW193471   6.135   7.429   1.135
63858SOL    HW293472   6.284   7.412   1.153
63859SOL     OW93473   1.288   0.220   5.400
63859SOL    HW193474   1.377   0.223   5.364
63859SOL    HW293475   1.296   0.173   5.483
63860SOL     OW93476  12.158   1.156   6.348
63860SOL    HW193477  12.182   1.236   6.302
63860SOL    HW293478  12.074   1.130   6.309
63861SOL     OW93479   3.879   4.309   1.873
63861SOL    HW193480   3.824   4.387   1.867
63861SOL    HW293481   3.840   4.257   1.943
63862SOL     OW93482   5.587  10.967   0.025
63862SOL    HW193483   5.658  11.018   0.063
63862SOL    HW293484   5.625  10.926  14.815
63863SOL     OW93485  10.523   3.870   5.800
63863SOL    HW193486  10.434   3.865   5.837
63863SOL    HW293487  10.580   3.877   5.877
63864SOL     OW93488   1.893  12.367   7.688
63864SOL    HW193489   1.868  12.336   7.601
63864SOL    HW293490   1.899  12.462   7.679
63865SOL     OW93491   7.438   1.044   6.280
63865SOL    HW193492   7.383   1.050   6.357
63865SOL    HW293493   7.440   0.950   6.259
63866SOL     OW93494   3.493  11.768   3.920
63866SOL    HW193495   3.551  11.827   3.967
63866SOL    HW293496   3.407  11.783   3.960
63867SOL     OW93497  11.493   8.781  12.919
63867SOL    HW193498  11.585   8.760  12.907
63867SOL    HW293499  11.492   8.852  12.983
63868SOL     OW93500   7.252   1.687  13.373
63868SOL    HW193501   7.160   1.662  13.388
63868SOL    HW293502   7.269   1.754  13.439
63869SOL     OW93503   9.270   9.729   1.204
63869SOL    HW193504   9.232   9.817   1.198
63869SOL    HW293505   9.201   9.675   1.241
63870SOL     OW93506   9.601   0.942   6.630
63870SOL    HW193507   9.601   0.881   6.556
63870SOL    HW293508   9.688   0.935   6.667
63871SOL     OW93509   1.310   5.799   4.821
63871SOL    HW193510   1.266   5.721   4.787
63871SOL    HW293511   1.240   5.850   4.861
63872SOL     OW93512   4.266   0.729   9.492
63872SOL    HW193513   4.258   0.708   9.399
63872SOL    HW293514   4.319   0.809   9.495
63873SOL     OW93515  11.610  10.669   1.873
63873SOL    HW193516  11.698  10.633   1.864
63873SOL    HW293517  11.578  10.635   1.956
63874SOL     OW93518   4.452  12.002   5.343
63874SOL    HW193519   4.525  12.018   5.283
63874SOL    HW293520   4.375  12.034   5.296
63875SOL     OW93521  11.234  14.706   3.879
63875SOL    HW193522  11.157  14.753   3.847
63875SOL    HW293523  11.199  14.632   3.928
63876SOL     OW93524   4.867  13.331   3.231
63876SOL    HW193525   4.940  13.311   3.172
63876SOL    HW293526   4.794  13.349   3.172
63877SOL     OW93527   9.960   7.681   4.334
63877SOL    HW193528   9.933   7.589   4.341
63877SOL    HW293529   9.924   7.723   4.412
63878SOL     OW93530   7.523   2.862   3.519
63878SOL    HW193531   7.606   2.847   3.563
63878SOL    HW293532   7.508   2.782   3.467
63879SOL     OW93533   3.273  14.190   5.326
63879SOL    HW193534   3.359  14.174   5.286
63879SOL    HW293535   3.261  14.284   5.322
63880SOL     OW93536   7.646   8.906  10.978
63880SOL    HW193537   7.736   8.936  10.991
63880SOL    HW293538   7.602   8.927  11.061
63881SOL     OW93539   1.122   3.294   4.049
63881SOL    HW193540   1.054   3.296   4.117
63881SOL    HW293541   1.204   3.282   4.098
63882SOL     OW93542  10.633   5.677  12.889
63882SOL    HW193543  10.631   5.665  12.794
63882SOL    HW293544  10.709   5.732  12.904
63883SOL     OW93545   6.868   0.713   1.717
63883SOL    HW193546   6.873   0.699   1.812
63883SOL    HW293547   6.814   0.792   1.708
63884SOL     OW93548   4.207   1.148   4.558
63884SOL    HW193549   4.222   1.233   4.600
63884SOL    HW293550   4.295   1.113   4.542
63885SOL     OW93551   5.055  12.127   9.805
63885SOL    HW193552   5.135  12.102   9.760
63885SOL    HW293553   5.024  12.205   9.760
63886SOL     OW93554   2.212   5.406   9.255
63886SOL    HW193555   2.247   5.469   9.318
63886SOL    HW293556   2.236   5.441   9.169
63887SOL     OW93557   1.147   5.298   8.419
63887SOL    HW193558   1.205   5.372   8.436
63887SOL    HW293559   1.086   5.330   8.353
63888SOL     OW93560  12.196   0.619   4.993
63888SOL    HW193561  12.286   0.648   5.005
63888SOL    HW293562  12.143   0.699   5.004
63889SOL     OW93563   0.811  10.237   1.762
63889SOL    HW193564   0.840  10.284   1.840
63889SOL    HW293565   0.892  10.213   1.717
63890SOL     OW93566  13.771   5.574  12.461
63890SOL    HW193567  13.711   5.513  12.418
63890SOL    HW293568  13.849   5.521  12.478
63891SOL     OW93569   8.568   8.902  12.691
63891SOL    HW193570   8.517   8.929  12.614
63891SOL    HW293571   8.626   8.833  12.658
63892SOL     OW93572   8.050  12.919  12.569
63892SOL    HW193573   8.084  13.001  12.534
63892SOL    HW293574   8.127  12.862  12.575
63893SOL     OW93575   1.462   8.437  11.669
63893SOL    HW193576   1.396   8.462  11.733
63893SOL    HW293577   1.413   8.390  11.601
63894SOL     OW93578   7.558   0.201  11.795
63894SOL    HW193579   7.550   0.260  11.720
63894SOL    HW293580   7.566   0.259  11.870
63895SOL     OW93581   7.269   1.949  13.990
63895SOL    HW193582   7.334   1.886  14.021
63895SOL    HW293583   7.197   1.943  14.053
63896SOL     OW93584  11.088  11.897   2.089
63896SOL    HW193585  11.007  11.878   2.041
63896SOL    HW293586  11.062  11.897   2.181
63897SOL     OW93587   2.683   7.142   9.878
63897SOL    HW193588   2.740   7.217   9.860
63897SOL    HW293589   2.626   7.138   9.801
63898SOL     OW93590   6.563   2.043  11.911
63898SOL    HW193591   6.532   1.961  11.948
63898SOL    HW293592   6.550   2.107  11.981
63899SOL     OW93593   9.974   9.109   7.701
63899SOL    HW193594  10.017   9.164   7.766
63899SOL    HW293595  10.036   9.105   7.628
63900SOL     OW93596   8.744  13.048   0.979
63900SOL    HW193597   8.726  13.066   0.887
63900SOL    HW293598   8.660  13.059   1.023
63901SOL     OW93599   4.903   5.109  11.208
63901SOL    HW193600   4.946   5.189  11.178
63901SOL    HW293601   4.921   5.045  11.139
63902SOL     OW93602  11.641  13.629  11.562
63902SOL    HW193603  11.637  13.622  11.658
63902SOL    HW293604  11.633  13.538  11.532
63903SOL     OW93605   8.508   0.880  11.355
63903SOL    HW193606   8.460   0.906  11.433
63903SOL    HW293607   8.443   0.836  11.300
63904SOL     OW93608   7.307   2.112   2.421
63904SOL    HW193609   7.392   2.069   2.412
63904SOL    HW293610   7.273   2.080   2.505
63905SOL     OW93611   0.877  13.931   9.833
63905SOL    HW193612   0.899  13.921   9.925
63905SOL    HW293613   0.930  14.005   9.803
63906SOL     OW93614   1.740  10.310   5.133
63906SOL    HW193615   1.810  10.347   5.188
63906SOL    HW293616   1.786  10.276   5.056
63907SOL     OW93617   5.589  10.877  10.992
63907SOL    HW193618   5.513  10.929  11.019
63907SOL    HW293619   5.606  10.905  10.902
63908SOL     OW93620  11.831  14.349   9.372
63908SOL    HW193621  11.794  14.331   9.458
63908SOL    HW293622  11.839  14.263   9.331
63909SOL     OW93623   6.347  11.809   2.444
63909SOL    HW193624   6.431  11.777   2.413
63909SOL    HW293625   6.300  11.731   2.473
63910SOL     OW93626  11.766   3.981  12.847
63910SOL    HW193627  11.676   3.958  12.823
63910SOL    HW293628  11.820   3.946  12.776
63911SOL     OW93629   3.472  14.137  12.787
63911SOL    HW193630   3.386  14.095  12.790
63911SOL    HW293631   3.481  14.180  12.872
63912SOL     OW93632   4.592   4.009  10.330
63912SOL    HW193633   4.590   4.003  10.425
63912SOL    HW293634   4.685   4.014  10.308
63913SOL     OW93635   7.511   0.480   7.313
63913SOL    HW193636   7.576   0.410   7.323
63913SOL    HW293637   7.498   0.488   7.219
63914SOL     OW93638   7.503   5.097  12.322
63914SOL    HW193639   7.546   5.172  12.282
63914SOL    HW293640   7.528   5.023  12.267
63915SOL     OW93641   1.876   2.406   3.215
63915SOL    HW193642   1.967   2.377   3.226
63915SOL    HW293643   1.829   2.327   3.189
63916SOL     OW93644   1.577   8.499   6.329
63916SOL    HW193645   1.517   8.493   6.255
63916SOL    HW293646   1.521   8.483   6.405
63917SOL     OW93647   5.867   8.086  14.229
63917SOL    HW193648   5.803   8.042  14.285
63917SOL    HW293649   5.815   8.141  14.171
63918SOL     OW93650   7.911  11.281   0.216
63918SOL    HW193651   7.976  11.221   0.181
63918SOL    HW293652   7.915  11.269   0.311
63919SOL     OW93653  12.642   5.600   9.809
63919SOL    HW193654  12.580   5.633   9.745
63919SOL    HW293655  12.622   5.506   9.816
63920SOL     OW93656   8.079   2.306   1.673
63920SOL    HW193657   8.138   2.231   1.673
63920SOL    HW293658   8.017   2.288   1.601
63921SOL     OW93659   9.654   3.051  14.060
63921SOL    HW193660   9.716   3.119  14.035
63921SOL    HW293661   9.603   3.089  14.131
63922SOL     OW93662   2.779  13.150   8.259
63922SOL    HW193663   2.794  13.056   8.253
63922SOL    HW293664   2.688  13.158   8.289
63923SOL     OW93665   4.716  11.149   4.578
63923SOL    HW193666   4.685  11.103   4.500
63923SOL    HW293667   4.685  11.095   4.651
63924SOL     OW93668   5.814  12.827   9.683
63924SOL    HW193669   5.891  12.883   9.672
63924SOL    HW293670   5.740  12.883   9.660
63925SOL     OW93671   5.565   7.794   9.160
63925SOL    HW193672   5.582   7.700   9.150
63925SOL    HW293673   5.475   7.799   9.191
63926SOL     OW93674   6.548   2.242  14.848
63926SOL    HW193675   6.641   2.227   0.001
63926SOL    HW293676   6.528   2.327   0.020
63927SOL     OW93677   2.596   0.053   2.344
63927SOL    HW193678   2.563   0.115   2.279
63927SOL    HW293679   2.604   0.104   2.424
63928SOL     OW93680   9.851  12.586  11.312
63928SOL    HW193681   9.835  12.496  11.283
63928SOL    HW293682   9.860  12.636  11.231
63929SOL     OW93683   4.504  12.866  10.533
63929SOL    HW193684   4.549  12.785  10.557
63929SOL    HW293685   4.414  12.853  10.561
63930SOL     OW93686   7.932  10.106   1.157
63930SOL    HW193687   7.862  10.149   1.110
63930SOL    HW293688   7.942  10.157   1.238
63931SOL     OW93689   7.803   3.960  12.849
63931SOL    HW193690   7.718   3.928  12.877
63931SOL    HW293691   7.865   3.919  12.909
63932SOL     OW93692  13.580   6.965   9.798
63932SOL    HW193693  13.491   6.981   9.766
63932SOL    HW293694  13.637   7.005   9.733
63933SOL     OW93695  13.269   4.283  13.943
63933SOL    HW193696  13.302   4.194  13.935
63933SOL    HW293697  13.218   4.297  13.863
63934SOL     OW93698   4.922   9.556  12.993
63934SOL    HW193699   4.904   9.634  12.941
63934SOL    HW293700   5.017   9.544  12.985
63935SOL     OW93701  13.784  10.320  12.697
63935SOL    HW193702  13.852  10.333  12.631
63935SOL    HW293703  13.770  10.226  12.699
63936SOL     OW93704   0.951   8.907   3.271
63936SOL    HW193705   0.935   9.002   3.270
63936SOL    HW293706   0.947   8.883   3.363
63937SOL     OW93707   6.240   2.073   6.293
63937SOL    HW193708   6.307   2.061   6.226
63937SOL    HW293709   6.278   2.138   6.353
63938SOL     OW93710   5.341   3.650  12.158
63938SOL    HW193711   5.265   3.703  12.135
63938SOL    HW293712   5.324   3.565  12.118
63939SOL     OW93713   1.481  13.820  10.964
63939SOL    HW193714   1.468  13.888  11.030
63939SOL    HW293715   1.473  13.865  10.880
63940SOL     OW93716   6.529   6.137  12.674
63940SOL    HW193717   6.556   6.048  12.652
63940SOL    HW293718   6.434   6.138  12.661
63941SOL     OW93719  13.361   4.387   8.617
63941SOL    HW193720  13.350   4.396   8.712
63941SOL    HW293721  13.329   4.299   8.597
63942SOL     OW93722   2.679   9.044   1.075
63942SOL    HW193723   2.585   9.037   1.060
63942SOL    HW293724   2.688   9.116   1.138
63943SOL     OW93725   8.305  10.832  10.056
63943SOL    HW193726   8.322  10.920  10.024
63943SOL    HW293727   8.309  10.839  10.151
63944SOL     OW93728   3.255  12.710   3.001
63944SOL    HW193729   3.169  12.669   3.010
63944SOL    HW293730   3.267  12.759   3.082
63945SOL     OW93731  10.658   6.336   8.462
63945SOL    HW193732  10.608   6.360   8.384
63945SOL    HW293733  10.591   6.316   8.528
63946SOL     OW93734  13.440  10.037   5.049
63946SOL    HW193735  13.452   9.943   5.035
63946SOL    HW293736  13.370  10.062   4.988
63947SOL     OW93737  11.717   7.385   1.701
63947SOL    HW193738  11.737   7.296   1.729
63947SOL    HW293739  11.790   7.409   1.644
63948SOL     OW93740  11.397  12.405   2.970
63948SOL    HW193741  11.442  12.348   2.907
63948SOL    HW293742  11.339  12.347   3.018
63949SOL     OW93743   6.675   5.567   5.545
63949SOL    HW193744   6.701   5.640   5.600
63949SOL    HW293745   6.641   5.608   5.465
63950SOL     OW93746   0.058  14.533   0.542
63950SOL    HW193747   0.039  14.585   0.620
63950SOL    HW293748  14.842  14.496   0.516
63951SOL     OW93749  12.924  14.150   1.031
63951SOL    HW193750  12.892  14.061   1.046
63951SOL    HW293751  13.007  14.154   1.079
63952SOL     OW93752  12.134   2.410   1.074
63952SOL    HW193753  12.048   2.425   1.034
63952SOL    HW293754  12.192   2.397   0.999
63953SOL     OW93755   0.766   8.759   8.566
63953SOL    HW193756   0.747   8.702   8.492
63953SOL    HW293757   0.715   8.720   8.638
63954SOL     OW93758  13.707   4.142   9.553
63954SOL    HW193759  13.626   4.156   9.602
63954SOL    HW293760  13.705   4.207   9.483
63955SOL     OW93761   2.567   4.922   8.984
63955SOL    HW193762   2.553   4.961   9.071
63955SOL    HW293763   2.501   4.964   8.928
63956SOL     OW93764   7.129   9.922   0.722
63956SOL    HW193765   7.170   9.836   0.713
63956SOL    HW293766   7.040   9.911   0.689
63957SOL     OW93767  11.905  13.022   4.046
63957SOL    HW193768  11.945  13.076   4.114
63957SOL    HW293769  11.932  13.063   3.963
63958SOL     OW93770  13.548   4.653   2.774
63958SOL    HW193771  13.554   4.648   2.678
63958SOL    HW293772  13.522   4.565   2.801
63959SOL     OW93773   3.401  13.209  10.285
63959SOL    HW193774   3.416  13.120  10.254
63959SOL    HW293775   3.475  13.259  10.250
63960SOL     OW93776   2.953   2.169   9.080
63960SOL    HW193777   2.916   2.215   9.156
63960SOL    HW293778   2.877   2.142   9.029
63961SOL     OW93779   5.870   8.048   4.332
63961SOL    HW193780   5.812   8.062   4.406
63961SOL    HW293781   5.903   8.135   4.310
63962SOL     OW93782  12.235  10.286   6.129
63962SOL    HW193783  12.287  10.315   6.204
63962SOL    HW293784  12.147  10.320   6.146
63963SOL     OW93785   9.174  11.358  13.989
63963SOL    HW193786   9.150  11.363  13.897
63963SOL    HW293787   9.097  11.390  14.036
63964SOL     OW93788   3.005   7.489   2.002
63964SOL    HW193789   3.082   7.521   2.050
63964SOL    HW293790   2.993   7.553   1.932
63965SOL     OW93791  11.007  13.889  11.666
63965SOL    HW193792  10.990  13.970  11.715
63965SOL    HW293793  10.926  13.873  11.618
63966SOL     OW93794   1.442  10.165   8.272
63966SOL    HW193795   1.377  10.173   8.203
63966SOL    HW293796   1.428  10.077   8.308
63967SOL     OW93797   4.882   0.729   8.732
63967SOL    HW193798   4.901   0.637   8.745
63967SOL    HW293799   4.966   0.770   8.714
63968SOL     OW93800  11.438   5.416   2.462
63968SOL    HW193801  11.493   5.358   2.409
63968SOL    HW293802  11.493   5.492   2.480
63969SOL     OW93803   6.893  13.755   6.806
63969SOL    HW193804   6.963  13.735   6.868
63969SOL    HW293805   6.934  13.750   6.720
63970SOL     OW93806  12.435  14.598   8.027
63970SOL    HW193807  12.436  14.512   7.983
63970SOL    HW293808  12.527  14.617   8.045
63971SOL     OW93809  12.567   5.840   6.431
63971SOL    HW193810  12.474   5.821   6.421
63971SOL    HW293811  12.569   5.933   6.455
63972SOL     OW93812  13.213   9.970  13.959
63972SOL    HW193813  13.187   9.964  14.051
63972SOL    HW293814  13.160   9.903  13.916
63973SOL     OW93815  10.577  10.762   0.261
63973SOL    HW193816  10.649  10.748   0.199
63973SOL    HW293817  10.513  10.694   0.239
63974SOL     OW93818   3.525  10.634  10.142
63974SOL    HW193819   3.544  10.592  10.058
63974SOL    HW293820   3.430  10.645  10.142
63975SOL     OW93821   5.785   5.402   2.918
63975SOL    HW193822   5.735   5.472   2.878
63975SOL    HW293823   5.724   5.328   2.922
63976SOL     OW93824  13.874  12.085   0.337
63976SOL    HW193825  13.937  12.098   0.266
63976SOL    HW293826  13.929  12.076   0.416
63977SOL     OW93827  13.284   3.121   8.930
63977SOL    HW193828  13.336   3.169   8.865
63977SOL    HW293829  13.257   3.189   8.993
63978SOL     OW93830   8.446  12.212   6.908
63978SOL    HW193831   8.373  12.241   6.853
63978SOL    HW293832   8.430  12.253   6.993
63979SOL     OW93833  13.405   4.354   4.097
63979SOL    HW193834  13.411   4.450   4.099
63979SOL    HW293835  13.494   4.325   4.080
63980SOL     OW93836   3.996   5.247  13.001
63980SOL    HW193837   3.956   5.161  13.002
63980SOL    HW293838   4.066   5.241  12.936
63981SOL     OW93839   1.670   9.956  11.420
63981SOL    HW193840   1.693   9.868  11.389
63981SOL    HW293841   1.688   9.954  11.514
63982SOL     OW93842   7.245  13.175   7.249
63982SOL    HW193843   7.285  13.246   7.299
63982SOL    HW293844   7.296  13.097   7.270
63983SOL     OW93845   4.697   0.731   4.360
63983SOL    HW193846   4.609   0.770   4.357
63983SOL    HW293847   4.692   0.655   4.303
63984SOL     OW93848  14.646  13.609   1.400
63984SOL    HW193849  14.719  13.568   1.447
63984SOL    HW293850  14.651  13.573   1.312
63985SOL     OW93851   2.996   8.569  12.969
63985SOL    HW193852   2.974   8.660  12.951
63985SOL    HW293853   3.057   8.545  12.899
63986SOL     OW93854  12.450   7.389  14.739
63986SOL    HW193855  12.481   7.435  14.817
63986SOL    HW293856  12.363   7.357  14.764
63987SOL     OW93857   8.832  14.000   0.352
63987SOL    HW193858   8.844  14.011   0.447
63987SOL    HW293859   8.845  14.087   0.316
63988SOL     OW93860   2.953   4.910   5.601
63988SOL    HW193861   2.964   4.830   5.653
63988SOL    HW293862   2.901   4.968   5.656
63989SOL     OW93863   4.068   3.566   1.135
63989SOL    HW193864   4.051   3.493   1.075
63989SOL    HW293865   4.157   3.594   1.114
63990SOL     OW93866   0.435   6.341   6.955
63990SOL    HW193867   0.500   6.298   6.898
63990SOL    HW293868   0.355   6.343   6.902
63991SOL     OW93869   6.951  12.609  13.440
63991SOL    HW193870   6.992  12.542  13.386
63991SOL    HW293871   7.021  12.639  13.498
63992SOL     OW93872   4.632  10.220  11.182
63992SOL    HW193873   4.679  10.240  11.101
63992SOL    HW293874   4.691  10.160  11.229
63993SOL     OW93875  11.234  14.188   4.151
63993SOL    HW193876  11.228  14.194   4.055
63993SOL    HW293877  11.252  14.278   4.179
63994SOL     OW93878   0.939   5.009   7.154
63994SOL    HW193879   0.873   5.014   7.085
63994SOL    HW293880   1.003   5.076   7.131
63995SOL     OW93881   5.085  10.441   1.231
63995SOL    HW193882   5.055  10.506   1.168
63995SOL    HW293883   5.018  10.440   1.299
63996SOL     OW93884   0.596   5.784   8.012
63996SOL    HW193885   0.585   5.850   7.944
63996SOL    HW293886   0.545   5.709   7.983
63997SOL     OW93887   9.819   8.109   2.662
63997SOL    HW193888   9.740   8.126   2.611
63997SOL    HW293889   9.821   8.179   2.727
63998SOL     OW93890   9.085   6.022   8.269
63998SOL    HW193891   9.075   6.002   8.176
63998SOL    HW293892   9.104   5.937   8.309
63999SOL     OW93893  12.349   0.153   4.048
63999SOL    HW193894  12.367   0.242   4.018
63999SOL    HW293895  12.377   0.097   3.975
64000SOL     OW93896  13.051  13.584  14.779
64000SOL    HW193897  13.016  13.588  14.690
64000SOL    HW293898  13.057  13.490  14.798
64001SOL     OW93899   9.285   9.331  14.651
64001SOL    HW193900   9.227   9.394  14.611
64001SOL    HW293901   9.348   9.384  14.701
64002SOL     OW93902   0.219   0.471   2.338
64002SOL    HW193903   0.279   0.455   2.410
64002SOL    HW293904   0.190   0.561   2.350
64003SOL     OW93905   9.577   7.290   4.328
64003SOL    HW193906   9.629   7.298   4.248
64003SOL    HW293907   9.492   7.329   4.306
64004SOL     OW93908  14.378   1.882   2.137
64004SOL    HW193909  14.441   1.921   2.198
64004SOL    HW293910  14.401   1.789   2.135
64005SOL     OW93911  11.893   2.946   1.257
64005SOL    HW193912  11.826   3.014   1.267
64005SOL    HW293913  11.915   2.947   1.164
64006SOL     OW93914  10.972   7.530   8.980
64006SOL    HW193915  10.978   7.523   8.885
64006SOL    HW293916  11.026   7.605   9.003
64007SOL     OW93917   9.782   4.185   2.933
64007SOL    HW193918   9.771   4.117   2.867
64007SOL    HW293919   9.826   4.257   2.888
64008SOL     OW93920   7.269   9.200   9.698
64008SOL    HW193921   7.336   9.195   9.629
64008SOL    HW293922   7.194   9.153   9.662
64009SOL     OW93923   4.455   3.347  11.280
64009SOL    HW193924   4.490   3.418  11.335
64009SOL    HW293925   4.531   3.314  11.232
64010SOL     OW93926   8.109  12.966  13.249
64010SOL    HW193927   8.079  12.967  13.340
64010SOL    HW293928   8.055  12.898  13.207
64011SOL     OW93929   3.278  10.156   9.499
64011SOL    HW193930   3.205  10.097   9.479
64011SOL    HW293931   3.355  10.114   9.460
64012SOL     OW93932   7.881  11.654   5.083
64012SOL    HW193933   7.945  11.702   5.135
64012SOL    HW293934   7.918  11.566   5.075
64013SOL     OW93935   7.508  12.496   8.353
64013SOL    HW193936   7.602  12.513   8.353
64013SOL    HW293937   7.474  12.545   8.278
64014SOL     OW93938   9.543   1.279   9.674
64014SOL    HW193939   9.515   1.269   9.765
64014SOL    HW293940   9.490   1.217   9.625
64015SOL     OW93941   1.139  11.772   6.376
64015SOL    HW193942   1.207  11.776   6.444
64015SOL    HW293943   1.062  11.812   6.417
64016SOL     OW93944   9.510   9.039   8.502
64016SOL    HW193945   9.556   9.030   8.418
64016SOL    HW293946   9.423   9.001   8.486
64017SOL     OW93947   7.402   8.091   5.963
64017SOL    HW193948   7.355   8.013   5.994
64017SOL    HW293949   7.356   8.164   6.003
64018SOL     OW93950   3.761   7.263   7.582
64018SOL    HW193951   3.814   7.340   7.601
64018SOL    HW293952   3.807   7.191   7.626
64019SOL     OW93953   2.187   4.651   4.204
64019SOL    HW193954   2.121   4.657   4.273
64019SOL    HW293955   2.182   4.560   4.174
64020SOL     OW93956   1.725   8.256   4.058
64020SOL    HW193957   1.794   8.313   4.024
64020SOL    HW293958   1.694   8.208   3.981
64021SOL     OW93959   2.628   3.075   1.126
64021SOL    HW193960   2.549   3.022   1.115
64021SOL    HW293961   2.634   3.127   1.046
64022SOL     OW93962  12.164   3.637  10.998
64022SOL    HW193963  12.080   3.681  10.988
64022SOL    HW293964  12.212   3.659  10.918
64023SOL     OW93965   8.444   3.628   4.684
64023SOL    HW193966   8.356   3.593   4.670
64023SOL    HW293967   8.502   3.555   4.659
64024SOL     OW93968   8.701  13.840  12.254
64024SOL    HW193969   8.741  13.761  12.288
64024SOL    HW293970   8.607  13.821  12.252
64025SOL     OW93971   9.643   7.463  13.448
64025SOL    HW193972   9.706   7.416  13.394
64025SOL    HW293973   9.603   7.527  13.390
64026SOL     OW93974   7.409  12.383   7.629
64026SOL    HW193975   7.388  12.475   7.644
64026SOL    HW293976   7.487  12.385   7.573
64027SOL     OW93977   5.390   0.068  10.452
64027SOL    HW193978   5.347   0.067  10.367
64027SOL    HW293979   5.409   0.160  10.469
64028SOL     OW93980   9.258   2.989   9.470
64028SOL    HW193981   9.224   3.032   9.548
64028SOL    HW293982   9.272   3.061   9.408
64029SOL     OW93983   1.275   8.732  12.983
64029SOL    HW193984   1.290   8.783  12.903
64029SOL    HW293985   1.293   8.794  13.054
64030SOL     OW93986  10.207   0.655  14.387
64030SOL    HW193987  10.261   0.653  14.309
64030SOL    HW293988  10.242   0.585  14.442
64031SOL     OW93989   5.937   3.523   8.422
64031SOL    HW193990   5.846   3.497   8.410
64031SOL    HW293991   5.980   3.445   8.458
64032SOL     OW93992   5.370   2.758  13.538
64032SOL    HW193993   5.389   2.747  13.444
64032SOL    HW293994   5.456   2.754  13.580
64033SOL     OW93995   6.577  10.739   3.910
64033SOL    HW193996   6.644  10.676   3.937
64033SOL    HW293997   6.622  10.796   3.846
64034SOL     OW93998  11.730   1.050  10.991
64034SOL    HW193999  11.678   1.012  10.919
64034SOL    HW294000  11.689   1.016  11.070
64035SOL     OW94001   9.405  12.452   1.989
64035SOL    HW194002   9.374  12.397   2.061
64035SOL    HW294003   9.483  12.408   1.957
64036SOL     OW94004   6.005  13.484   7.491
64036SOL    HW194005   5.930  13.454   7.440
64036SOL    HW294006   6.030  13.407   7.543
64037SOL     OW94007  10.808   3.616   4.830
64037SOL    HW194008  10.752   3.544   4.859
64037SOL    HW294009  10.809   3.607   4.734
64038SOL     OW94010   3.790   1.129  13.910
64038SOL    HW194011   3.759   1.146  13.999
64038SOL    HW294012   3.782   1.213  13.865
64039SOL     OW94013  11.511   8.170   6.140
64039SOL    HW194014  11.425   8.210   6.155
64039SOL    HW294015  11.519   8.104   6.209
64040SOL     OW94016   2.856   6.076   7.616
64040SOL    HW194017   2.941   6.035   7.627
64040SOL    HW294018   2.853   6.144   7.684
64041SOL     OW94019   4.696   0.561   6.712
64041SOL    HW194020   4.673   0.488   6.654
64041SOL    HW294021   4.765   0.525   6.769
64042SOL     OW94022   7.885  14.066   9.882
64042SOL    HW194023   7.799  14.107   9.874
64042SOL    HW294024   7.918  14.095   9.967
64043SOL     OW94025   8.462  11.125   0.300
64043SOL    HW194026   8.557  11.121   0.316
64043SOL    HW294027   8.453  11.109   0.207
64044SOL     OW94028   6.101   4.263   5.118
64044SOL    HW194029   6.125   4.322   5.190
64044SOL    HW294030   6.173   4.270   5.056
64045SOL     OW94031  13.954  11.830   5.072
64045SOL    HW194032  13.970  11.885   4.995
64045SOL    HW294033  13.861  11.811   5.070
64046SOL     OW94034  11.059   6.140   4.088
64046SOL    HW194035  11.116   6.217   4.080
64046SOL    HW294036  11.000   6.161   4.160
64047SOL     OW94037  13.814   7.066  10.233
64047SOL    HW194038  13.850   7.056  10.145
64047SOL    HW294039  13.763   7.147  10.229
64048SOL     OW94040  10.184   7.596   7.615
64048SOL    HW194041  10.142   7.620   7.698
64048SOL    HW294042  10.156   7.506   7.598
64049SOL     OW94043  10.414  13.871   4.891
64049SOL    HW194044  10.333  13.922   4.883
64049SOL    HW294045  10.389  13.783   4.864
64050SOL     OW94046   1.656  14.066  10.491
64050SOL    HW194047   1.692  14.003  10.552
64050SOL    HW294048   1.693  14.150  10.519
64051SOL     OW94049  11.679   6.299   3.830
64051SOL    HW194050  11.605   6.315   3.889
64051SOL    HW294051  11.750   6.272   3.889
64052SOL     OW94052   0.910  12.306  10.836
64052SOL    HW194053   0.952  12.280  10.918
64052SOL    HW294054   0.829  12.349  10.863
64053SOL     OW94055  14.866  12.756   7.283
64053SOL    HW194056   0.002  12.719   7.195
64053SOL    HW294057  14.810  12.833   7.274
64054SOL     OW94058  14.133  14.600   5.377
64054SOL    HW194059  14.074  14.546   5.325
64054SOL    HW294060  14.132  14.685   5.334
64055SOL     OW94061   1.182  12.081   8.793
64055SOL    HW194062   1.156  12.161   8.747
64055SOL    HW294063   1.277  12.092   8.806
64056SOL     OW94064  11.090   4.260   9.751
64056SOL    HW194065  11.152   4.198   9.713
64056SOL    HW294066  11.108   4.343   9.706
64057SOL     OW94067   4.566   8.174   3.955
64057SOL    HW194068   4.492   8.196   3.898
64057SOL    HW294069   4.553   8.228   4.033
64058SOL     OW94070  11.801  11.036   7.152
64058SOL    HW194071  11.879  10.981   7.169
64058SOL    HW294072  11.735  10.974   7.123
64059SOL     OW94073  14.414   4.658   1.807
64059SOL    HW194074  14.336   4.714   1.810
64059SOL    HW294075  14.416   4.615   1.893
64060SOL     OW94076   1.769  13.391   0.262
64060SOL    HW194077   1.748  13.416   0.352
64060SOL    HW294078   1.684  13.392   0.217
64061SOL     OW94079   5.743  10.826   6.722
64061SOL    HW194080   5.774  10.803   6.634
64061SOL    HW294081   5.818  10.869   6.763
64062SOL     OW94082   4.164  12.512  14.207
64062SOL    HW194083   4.101  12.441  14.215
64062SOL    HW294084   4.169  12.549  14.295
64063SOL     OW94085   0.381   0.643   1.430
64063SOL    HW194086   0.469   0.641   1.469
64063SOL    HW294087   0.376   0.729   1.389
64064SOL     OW94088  12.183   1.095  14.206
64064SOL    HW194089  12.173   1.000  14.212
64064SOL    HW294090  12.151   1.117  14.118
64065SOL     OW94091   8.142   6.352   6.735
64065SOL    HW194092   8.197   6.346   6.813
64065SOL    HW294093   8.122   6.261   6.713
64066SOL     OW94094   5.410   8.410   9.365
64066SOL    HW194095   5.356   8.364   9.429
64066SOL    HW294096   5.360   8.490   9.347
64067SOL     OW94097   1.008   0.086   8.897
64067SOL    HW194098   1.062   0.149   8.945
64067SOL    HW294099   1.019   0.109   8.805
64068SOL     OW94100   0.260  14.432   4.418
64068SOL    HW194101   0.232  14.413   4.508
64068SOL    HW294102   0.185  14.476   4.378
64069SOL     OW94103   8.205   9.399   4.863
64069SOL    HW194104   8.260   9.462   4.817
64069SOL    HW294105   8.217   9.317   4.816
64070SOL     OW94106   2.954  14.599   0.715
64070SOL    HW194107   2.893  14.528   0.697
64070SOL    HW294108   2.932  14.628   0.804
64071SOL     OW94109   0.011   7.968   0.682
64071SOL    HW194110   0.070   7.924   0.621
64071SOL    HW294111   0.047   8.057   0.690
64072SOL     OW94112   4.496   4.503  12.616
64072SOL    HW194113   4.502   4.411  12.587
64072SOL    HW294114   4.426   4.503  12.681
64073SOL     OW94115   1.283   6.123   1.487
64073SOL    HW194116   1.337   6.075   1.425
64073SOL    HW294117   1.209   6.065   1.504
64074SOL     OW94118  13.594   8.810  11.641
64074SOL    HW194119  13.533   8.882  11.626
64074SOL    HW294120  13.589   8.757  11.561
64075SOL     OW94121   2.361   3.772   4.383
64075SOL    HW194122   2.364   3.862   4.353
64075SOL    HW294123   2.453   3.750   4.402
64076SOL     OW94124  14.090  10.101   7.261
64076SOL    HW194125  14.062  10.021   7.305
64076SOL    HW294126  14.060  10.171   7.319
64077SOL     OW94127   0.658   1.176   4.839
64077SOL    HW194128   0.736   1.231   4.841
64077SOL    HW294129   0.667   1.124   4.759
64078SOL     OW94130   2.419   3.654  10.857
64078SOL    HW194131   2.401   3.560  10.855
64078SOL    HW294132   2.436   3.678  10.766
64079SOL     OW94133   3.166  12.913  12.833
64079SOL    HW194134   3.084  12.960  12.851
64079SOL    HW294135   3.223  12.978  12.792
64080SOL     OW94136  12.497   2.721   0.079
64080SOL    HW194137  12.506   2.756   0.167
64080SOL    HW294138  12.585   2.723   0.043
64081SOL     OW94139   0.086   4.363  12.425
64081SOL    HW194140   0.116   4.343  12.336
64081SOL    HW294141   0.138   4.306  12.481
64082SOL     OW94142   1.575   9.652   9.078
64082SOL    HW194143   1.632   9.645   9.155
64082SOL    HW294144   1.495   9.605   9.103
64083SOL     OW94145   0.768  12.189   6.362
64083SOL    HW194146   0.742  12.142   6.441
64083SOL    HW294147   0.722  12.143   6.291
64084SOL     OW94148   4.832   2.731   1.880
64084SOL    HW194149   4.821   2.733   1.975
64084SOL    HW294150   4.807   2.642   1.854
64085SOL     OW94151   3.289   6.570   6.582
64085SOL    HW194152   3.200   6.606   6.576
64085SOL    HW294153   3.314   6.583   6.673
64086SOL     OW94154  12.425   1.653   0.097
64086SOL    HW194155  12.458   1.572   0.058
64086SOL    HW294156  12.410   1.712   0.023
64087SOL     OW94157   2.332   1.666  10.004
64087SOL    HW194158   2.420   1.643   9.974
64087SOL    HW294159   2.337   1.759  10.024
64088SOL     OW94160   8.202  13.470   6.015
64088SOL    HW194161   8.242  13.542   6.063
64088SOL    HW294162   8.186  13.505   5.928
64089SOL     OW94163   9.193   0.992   7.467
64089SOL    HW194164   9.259   1.030   7.526
64089SOL    HW294165   9.167   1.064   7.410
64090SOL     OW94166   4.679   5.795   7.186
64090SOL    HW194167   4.620   5.863   7.218
64090SOL    HW294168   4.767   5.830   7.198
64091SOL     OW94169  13.836  13.072   6.830
64091SOL    HW194170  13.864  12.982   6.847
64091SOL    HW294171  13.793  13.067   6.744
64092SOL     OW94172  12.919   8.290   0.536
64092SOL    HW194173  12.961   8.258   0.456
64092SOL    HW294174  12.829   8.256   0.532
64093SOL     OW94175   1.890   5.529   4.870
64093SOL    HW194176   1.956   5.593   4.897
64093SOL    HW294177   1.937   5.446   4.871
64094SOL     OW94178   4.403   5.356   4.985
64094SOL    HW194179   4.493   5.339   5.014
64094SOL    HW294180   4.407   5.352   4.890
64095SOL     OW94181  13.013   2.165   5.388
64095SOL    HW194182  13.031   2.192   5.478
64095SOL    HW294183  13.092   2.117   5.361
64096SOL     OW94184   5.273   8.659   9.263
64096SOL    HW194185   5.319   8.742   9.249
64096SOL    HW294186   5.189   8.670   9.218
64097SOL     OW94187   3.030   5.223   0.086
64097SOL    HW194188   3.084   5.301   0.101
64097SOL    HW294189   2.958   5.255   0.032
64098SOL     OW94190   5.386   1.346   5.376
64098SOL    HW194191   5.385   1.388   5.462
64098SOL    HW294192   5.470   1.372   5.338
64099SOL     OW94193  13.243  10.458  11.437
64099SOL    HW194194  13.191  10.393  11.485
64099SOL    HW294195  13.209  10.543  11.466
64100SOL     OW94196   9.708   4.451   5.074
64100SOL    HW194197   9.741   4.481   5.159
64100SOL    HW294198   9.642   4.515   5.050
64101SOL     OW94199   3.892   0.152   5.306
64101SOL    HW194200   3.807   0.195   5.309
64101SOL    HW294201   3.875   0.064   5.337
64102SOL     OW94202  11.585   3.708   4.667
64102SOL    HW194203  11.668   3.755   4.669
64102SOL    HW294204  11.572   3.680   4.758
64103SOL     OW94205   5.309   4.105   8.202
64103SOL    HW194206   5.240   4.164   8.171
64103SOL    HW294207   5.270   4.059   8.277
64104SOL     OW94208   1.901   6.176  14.637
64104SOL    HW194209   1.914   6.148  14.728
64104SOL    HW294210   1.854   6.104  14.596
64105SOL     OW94211   3.701  11.800   0.026
64105SOL    HW194212   3.771  11.832   0.082
64105SOL    HW294213   3.729  11.821  14.805
64106SOL     OW94214   8.113  11.495  14.087
64106SOL    HW194215   8.086  11.411  14.049
64106SOL    HW294216   8.203  11.480  14.116
64107SOL     OW94217   1.870   6.726   4.600
64107SOL    HW194218   1.806   6.753   4.534
64107SOL    HW294219   1.952   6.766   4.571
64108SOL     OW94220  14.170  10.659  10.016
64108SOL    HW194221  14.204  10.741   9.982
64108SOL    HW294222  14.107  10.685  10.083
64109SOL     OW94223  11.067  11.163   2.242
64109SOL    HW194224  10.996  11.150   2.304
64109SOL    HW294225  11.050  11.099   2.172
64110SOL     OW94226   8.051   5.115   1.243
64110SOL    HW194227   8.027   5.203   1.214
64110SOL    HW294228   8.136   5.126   1.285
64111SOL     OW94229   1.069   6.940  13.074
64111SOL    HW194230   1.135   6.988  13.124
64111SOL    HW294231   1.100   6.850  13.073
64112SOL     OW94232  10.318  14.411   8.067
64112SOL    HW194233  10.351  14.466   7.996
64112SOL    HW294234  10.394  14.358   8.093
64113SOL     OW94235  12.402   8.167  13.020
64113SOL    HW194236  12.325   8.209  12.982
64113SOL    HW294237  12.367   8.102  13.081
64114SOL     OW94238  13.740   0.100  12.615
64114SOL    HW194239  13.645   0.086  12.622
64114SOL    HW294240  13.777   0.054  12.690
64115SOL     OW94241   7.246   4.604   4.518
64115SOL    HW194242   7.198   4.592   4.600
64115SOL    HW294243   7.226   4.526   4.467
64116SOL     OW94244   6.719   0.637  11.685
64116SOL    HW194245   6.807   0.671  11.672
64116SOL    HW294246   6.664   0.714  11.696
64117SOL     OW94247  12.402   6.444   5.439
64117SOL    HW194248  12.356   6.522   5.409
64117SOL    HW294249  12.393   6.447   5.535
64118SOL     OW94250   1.164  13.414   4.147
64118SOL    HW194251   1.078  13.416   4.188
64118SOL    HW294252   1.149  13.375   4.061
64119SOL     OW94253   3.924  12.480  12.734
64119SOL    HW194254   3.853  12.498  12.794
64119SOL    HW294255   3.883  12.435  12.660
64120SOL     OW94256   1.008   2.878   5.596
64120SOL    HW194257   1.009   2.948   5.661
64120SOL    HW294258   0.997   2.922   5.512
64121SOL     OW94259   5.301   0.379  13.922
64121SOL    HW194260   5.342   0.293  13.918
64121SOL    HW294261   5.243   0.382  13.846
64122SOL     OW94262   0.649   7.893   5.954
64122SOL    HW194263   0.702   7.966   5.921
64122SOL    HW294264   0.710   7.819   5.958
64123SOL     OW94265   5.629   9.806  11.229
64123SOL    HW194266   5.590   9.798  11.316
64123SOL    HW294267   5.614   9.721  11.188
64124SOL     OW94268  12.529   7.926   0.413
64124SOL    HW194269  12.597   7.985   0.446
64124SOL    HW294270  12.487   7.892   0.492
64125SOL     OW94271   8.053   6.624   5.150
64125SOL    HW194272   8.141   6.602   5.182
64125SOL    HW294273   8.068   6.665   5.065
64126SOL     OW94274   6.725   3.048   8.025
64126SOL    HW194275   6.734   3.043   8.120
64126SOL    HW294276   6.747   3.139   8.003
64127SOL     OW94277  14.454  14.072  14.609
64127SOL    HW194278  14.392  14.126  14.561
64127SOL    HW294279  14.512  14.134  14.653
64128SOL     OW94280   2.172   5.741  13.891
64128SOL    HW194281   2.263   5.715  13.882
64128SOL    HW294282   2.175   5.837  13.890
64129SOL     OW94283   1.442  14.743  10.465
64129SOL    HW194284   1.469  14.807  10.398
64129SOL    HW294285   1.366  14.699  10.426
64130SOL     OW94286   9.249   5.328   2.439
64130SOL    HW194287   9.232   5.400   2.499
64130SOL    HW294288   9.330   5.288   2.470
64131SOL     OW94289  11.448   9.425   1.643
64131SOL    HW194290  11.498   9.387   1.715
64131SOL    HW294291  11.512   9.441   1.574
64132SOL     OW94292   5.145  12.215   6.494
64132SOL    HW194293   5.164  12.123   6.474
64132SOL    HW294294   5.098  12.247   6.417
64133SOL     OW94295  14.011  13.196  12.822
64133SOL    HW194296  14.098  13.220  12.856
64133SOL    HW294297  13.952  13.262  12.859
64134SOL     OW94298   2.086   5.664  11.576
64134SOL    HW194299   2.102   5.573  11.603
64134SOL    HW294300   2.093   5.662  11.481
64135SOL     OW94301   9.530   0.505  12.813
64135SOL    HW194302   9.525   0.530  12.905
64135SOL    HW294303   9.601   0.557  12.777
64136SOL     OW94304  14.252   1.884  12.168
64136SOL    HW194305  14.219   1.794  12.162
64136SOL    HW294306  14.294   1.901  12.084
64137SOL     OW94307   8.995   9.376   1.170
64137SOL    HW194308   9.042   9.432   1.232
64137SOL    HW294309   9.018   9.287   1.196
64138SOL     OW94310  13.746  13.304   2.730
64138SOL    HW194311  13.675  13.289   2.668
64138SOL    HW294312  13.826  13.278   2.684
64139SOL     OW94313   5.820  14.577   0.199
64139SOL    HW194314   5.747  14.516   0.194
64139SOL    HW294315   5.779  14.663   0.213
64140SOL     OW94316   2.514   0.739   9.616
64140SOL    HW194317   2.549   0.683   9.685
64140SOL    HW294318   2.537   0.828   9.643
64141SOL     OW94319  13.036  12.702   0.693
64141SOL    HW194320  13.049  12.608   0.681
64141SOL    HW294321  13.122  12.735   0.722
64142SOL     OW94322   7.903  12.795   2.605
64142SOL    HW194323   7.911  12.702   2.624
64142SOL    HW294324   7.994  12.826   2.600
64143SOL     OW94325   9.988  13.994  13.442
64143SOL    HW194326   9.930  14.059  13.482
64143SOL    HW294327  10.061  14.045  13.406
64144SOL     OW94328   2.536   6.369   8.071
64144SOL    HW194329   2.610   6.318   8.104
64144SOL    HW294330   2.544   6.363   7.976
64145SOL     OW94331   8.671  13.803   5.180
64145SOL    HW194332   8.608  13.803   5.252
64145SOL    HW294333   8.652  13.723   5.131
64146SOL     OW94334   5.744   4.737   8.945
64146SOL    HW194335   5.764   4.715   9.036
64146SOL    HW294336   5.717   4.829   8.948
64147SOL     OW94337  12.928  13.475   1.071
64147SOL    HW194338  13.021  13.451   1.069
64147SOL    HW294339  12.919  13.542   1.004
64148SOL     OW94340  13.176   3.013   1.145
64148SOL    HW194341  13.103   2.988   1.089
64148SOL    HW294342  13.222   2.930   1.162
64149SOL     OW94343   2.458  14.034   8.695
64149SOL    HW194344   2.532  14.037   8.756
64149SOL    HW294345   2.457  14.120   8.653
64150SOL     OW94346  13.851  14.774  14.017
64150SOL    HW194347  13.863   0.000  14.007
64150SOL    HW294348  13.756  14.761  14.019
64151SOL     OW94349  14.852   2.222  13.583
64151SOL    HW194350  14.868   2.315  13.567
64151SOL    HW294351  14.795   2.194  13.512
64152SOL     OW94352   9.583   9.384   8.013
64152SOL    HW194353   9.632   9.368   7.932
64152SOL    HW294354   9.619   9.466   8.046
64153SOL     OW94355   3.631   0.563   9.014
64153SOL    HW194356   3.667   0.651   9.013
64153SOL    HW294357   3.620   0.543   9.107
64154SOL     OW94358   7.637  14.425   2.190
64154SOL    HW194359   7.647  14.347   2.243
64154SOL    HW294360   7.657  14.396   2.101
64155SOL     OW94361  13.227   4.576  13.517
64155SOL    HW194362  13.255   4.658  13.477
64155SOL    HW294363  13.149   4.599  13.567
64156SOL     OW94364  10.434   4.180  10.002
64156SOL    HW194365  10.417   4.244   9.932
64156SOL    HW294366  10.498   4.224  10.059
64157SOL     OW94367   0.687   2.220  11.372
64157SOL    HW194368   0.682   2.127  11.393
64157SOL    HW294369   0.780   2.241  11.376
64158SOL     OW94370  11.795  10.261  11.819
64158SOL    HW194371  11.817  10.239  11.729
64158SOL    HW294372  11.764  10.178  11.857
64159SOL     OW94373   5.750   7.421   4.827
64159SOL    HW194374   5.729   7.389   4.914
64159SOL    HW294375   5.703   7.362   4.768
64160SOL     OW94376   7.407  11.310  13.425
64160SOL    HW194377   7.319  11.340  13.402
64160SOL    HW294378   7.395  11.219  13.452
64161SOL     OW94379   0.812   1.470  12.154
64161SOL    HW194380   0.811   1.494  12.061
64161SOL    HW294381   0.740   1.521  12.193
64162SOL     OW94382   2.104   1.528   8.763
64162SOL    HW194383   2.093   1.480   8.681
64162SOL    HW294384   2.170   1.595   8.743
64163SOL     OW94385   9.336   0.298   0.473
64163SOL    HW194386   9.243   0.314   0.455
64163SOL    HW294387   9.383   0.349   0.407
64164SOL     OW94388   9.950  12.354  12.501
64164SOL    HW194389   9.973  12.280  12.558
64164SOL    HW294390   9.999  12.428  12.537
64165SOL     OW94391  12.253   9.095   6.212
64165SOL    HW194392  12.220   9.140   6.134
64165SOL    HW294393  12.179   9.043   6.243
64166SOL     OW94394   3.883  13.082   6.355
64166SOL    HW194395   3.949  13.032   6.307
64166SOL    HW294396   3.834  13.016   6.404
64167SOL     OW94397   7.676   5.588  11.162
64167SOL    HW194398   7.766   5.611  11.141
64167SOL    HW294399   7.666   5.608  11.255
64168SOL     OW94400   4.406  10.837   6.789
64168SOL    HW194401   4.379  10.897   6.859
64168SOL    HW294402   4.439  10.894   6.720
64169SOL     OW94403   7.654   1.568  11.731
64169SOL    HW194404   7.674   1.637  11.793
64169SOL    HW294405   7.696   1.490  11.767
64170SOL     OW94406   6.069   3.155  12.089
64170SOL    HW194407   6.117   3.222  12.041
64170SOL    HW294408   6.006   3.205  12.141
64171SOL     OW94409   2.958   2.703   3.665
64171SOL    HW194410   2.997   2.657   3.739
64171SOL    HW294411   2.885   2.648   3.638
64172SOL     OW94412  13.044   2.910   3.754
64172SOL    HW194413  13.118   2.893   3.811
64172SOL    HW294414  13.057   3.000   3.724
64173SOL     OW94415   5.509   1.788   9.725
64173SOL    HW194416   5.604   1.785   9.721
64173SOL    HW294417   5.484   1.701   9.758
64174SOL     OW94418   6.269   7.323   6.007
64174SOL    HW194419   6.229   7.377   5.939
64174SOL    HW294420   6.207   7.251   6.020
64175SOL     OW94421  11.839   7.548  11.442
64175SOL    HW194422  11.754   7.543  11.397
64175SOL    HW294423  11.819   7.587  11.527
64176SOL     OW94424   8.627   0.446   2.493
64176SOL    HW194425   8.542   0.489   2.508
64176SOL    HW294426   8.670   0.446   2.578
64177SOL     OW94427   9.048   2.540   1.495
64177SOL    HW194428   9.116   2.477   1.474
64177SOL    HW294429   9.046   2.542   1.591
64178SOL     OW94430   5.408   4.455   7.814
64178SOL    HW194431   5.431   4.428   7.725
64178SOL    HW294432   5.470   4.524   7.834
64179SOL     OW94433  12.939  13.611  12.027
64179SOL    HW194434  12.993  13.537  12.002
64179SOL    HW294435  12.994  13.661  12.088
64180SOL     OW94436   8.428   5.904  12.070
64180SOL    HW194437   8.359   5.946  12.122
64180SOL    HW294438   8.451   5.826  12.119
64181SOL     OW94439  13.498   6.960   3.268
64181SOL    HW194440  13.542   7.035   3.230
64181SOL    HW294441  13.567   6.895   3.281
64182SOL     OW94442   6.971   6.323   2.674
64182SOL    HW194443   7.022   6.393   2.634
64182SOL    HW294444   6.888   6.364   2.697
64183SOL     OW94445  12.124  11.292  11.219
64183SOL    HW194446  12.154  11.243  11.142
64183SOL    HW294447  12.098  11.225  11.282
64184SOL     OW94448   7.257  12.054   8.505
64184SOL    HW194449   7.188  12.028   8.567
64184SOL    HW294450   7.245  11.995   8.431
64185SOL     OW94451   9.563   4.190   8.512
64185SOL    HW194452   9.533   4.228   8.595
64185SOL    HW294453   9.570   4.096   8.530
64186SOL     OW94454  14.345   0.151   3.660
64186SOL    HW194455  14.306   0.155   3.573
64186SOL    HW294456  14.333   0.239   3.696
64187SOL     OW94457   2.574   5.457   1.540
64187SOL    HW194458   2.511   5.441   1.610
64187SOL    HW294459   2.646   5.503   1.583
64188SOL     OW94460   9.938  11.729   8.993
64188SOL    HW194461   9.973  11.652   8.948
64188SOL    HW294462   9.997  11.744   9.066
64189SOL     OW94463  14.330   1.845  14.659
64189SOL    HW194464  14.371   1.894  14.589
64189SOL    HW294465  14.310   1.759  14.620
64190SOL     OW94466   8.123   6.645  10.469
64190SOL    HW194467   8.206   6.688  10.448
64190SOL    HW294468   8.148   6.567  10.518
64191SOL     OW94469   6.420  13.943   6.185
64191SOL    HW194470   6.469  13.907   6.111
64191SOL    HW294471   6.363  13.872   6.214
64192SOL     OW94472  12.846   8.025   3.942
64192SOL    HW194473  12.893   7.974   3.876
64192SOL    HW294474  12.914   8.076   3.986
64193SOL     OW94475   9.149   1.753  11.558
64193SOL    HW194476   9.107   1.835  11.585
64193SOL    HW294477   9.189   1.773  11.474
64194SOL     OW94478   4.029   0.780   1.404
64194SOL    HW194479   3.959   0.846   1.409
64194SOL    HW294480   3.991   0.709   1.352
64195SOL     OW94481   6.711  14.229   4.905
64195SOL    HW194482   6.708  14.268   4.992
64195SOL    HW294483   6.758  14.293   4.851
64196SOL     OW94484   5.683   1.180   4.991
64196SOL    HW194485   5.663   1.088   4.973
64196SOL    HW294486   5.614   1.208   5.051
64197SOL     OW94487  13.811   1.191   6.582
64197SOL    HW194488  13.903   1.218   6.575
64197SOL    HW294489  13.808   1.105   6.540
64198SOL     OW94490  11.329   7.684   7.043
64198SOL    HW194491  11.298   7.673   7.133
64198SOL    HW294492  11.413   7.729   7.052
64199SOL     OW94493  10.446  11.995   2.585
64199SOL    HW194494  10.509  12.030   2.522
64199SOL    HW294495  10.360  12.015   2.547
64200SOL     OW94496  14.317  10.937   4.065
64200SOL    HW194497  14.327  10.895   3.980
64200SOL    HW294498  14.282  10.868   4.122
64201SOL     OW94499   5.665   9.510  13.169
64201SOL    HW194500   5.595   9.512  13.234
64201SOL    HW294501   5.638   9.443  13.106
64202SOL     OW94502   9.260  10.515   4.009
64202SOL    HW194503   9.201  10.444   4.036
64202SOL    HW294504   9.257  10.514   3.914
64203SOL     OW94505   8.995   4.651   8.722
64203SOL    HW194506   8.941   4.632   8.799
64203SOL    HW294507   9.064   4.585   8.725
64204SOL     OW94508   7.215   0.308   8.048
64204SOL    HW194509   7.262   0.227   8.067
64204SOL    HW294510   7.268   0.351   7.981
64205SOL     OW94511  11.284   4.791   4.481
64205SOL    HW194512  11.375   4.794   4.452
64205SOL    HW294513  11.240   4.857   4.427
64206SOL     OW94514   2.043  10.746   6.214
64206SOL    HW194515   2.051  10.841   6.230
64206SOL    HW294516   2.084  10.733   6.129
64207SOL     OW94517  12.994   0.751   6.992
64207SOL    HW194518  12.978   0.754   7.087
64207SOL    HW294519  12.954   0.831   6.959
64208SOL     OW94520   1.713   7.819   5.912
64208SOL    HW194521   1.703   7.785   5.824
64208SOL    HW294522   1.695   7.913   5.904
64209SOL     OW94523  12.804   4.058   6.808
64209SOL    HW194524  12.868   4.127   6.825
64209SOL    HW294525  12.856   3.983   6.779
64210SOL     OW94526   7.363   0.523   5.332
64210SOL    HW194527   7.310   0.602   5.344
64210SOL    HW294528   7.304   0.461   5.288
64211SOL     OW94529  12.810   1.340  14.841
64211SOL    HW194530  12.835   1.365   0.062
64211SOL    HW294531  12.810   1.245  14.842
64212SOL     OW94532   0.336   3.005   3.881
64212SOL    HW194533   0.430   2.993   3.894
64212SOL    HW294534   0.320   2.976   3.791
64213SOL     OW94535  14.578   2.447   1.452
64213SOL    HW194536  14.665   2.475   1.423
64213SOL    HW294537  14.544   2.394   1.379
64214SOL     OW94538  10.328   6.558   2.903
64214SOL    HW194539  10.348   6.466   2.889
64214SOL    HW294540  10.379   6.604   2.837
64215SOL     OW94541   9.709  10.453  14.495
64215SOL    HW194542   9.683  10.538  14.459
64215SOL    HW294543   9.644  10.436  14.564
64216SOL     OW94544  12.082   8.890  11.111
64216SOL    HW194545  12.169   8.930  11.110
64216SOL    HW294546  12.062   8.880  11.204
64217SOL     OW94547  14.723   5.584   8.525
64217SOL    HW194548  14.698   5.631   8.445
64217SOL    HW294549  14.641   5.574   8.573
64218SOL     OW94550  11.494  12.555   0.238
64218SOL    HW194551  11.583  12.520   0.235
64218SOL    HW294552  11.484  12.602   0.155
64219SOL     OW94553   8.875  14.542  11.368
64219SOL    HW194554   8.877  14.582  11.281
64219SOL    HW294555   8.932  14.466  11.361
64220SOL     OW94556   6.792   4.480   9.872
64220SOL    HW194557   6.723   4.427   9.832
64220SOL    HW294558   6.823   4.536   9.802
64221SOL     OW94559   2.691  12.298   2.422
64221SOL    HW194560   2.777  12.334   2.399
64221SOL    HW294561   2.703  12.203   2.417
64222SOL     OW94562  12.938   8.879   7.223
64222SOL    HW194563  12.853   8.891   7.266
64222SOL    HW294564  12.971   8.797   7.259
64223SOL     OW94565   0.778  10.213   6.228
64223SOL    HW194566   0.775  10.236   6.135
64223SOL    HW294567   0.859  10.164   6.238
64224SOL     OW94568   4.383   0.115   7.632
64224SOL    HW194569   4.455   0.070   7.588
64224SOL    HW294570   4.369   0.066   7.713
64225SOL     OW94571  11.610  13.356   3.865
64225SOL    HW194572  11.605  13.450   3.848
64225SOL    HW294573  11.695  13.330   3.829
64226SOL     OW94574   0.503   7.666   5.236
64226SOL    HW194575   0.490   7.710   5.152
64226SOL    HW294576   0.563   7.723   5.284
64227SOL     OW94577   9.318  13.426   6.294
64227SOL    HW194578   9.325  13.508   6.244
64227SOL    HW294579   9.331  13.357   6.230
64228SOL     OW94580   7.795  13.634   3.181
64228SOL    HW194581   7.761  13.680   3.258
64228SOL    HW294582   7.889  13.628   3.197
64229SOL     OW94583   0.988   7.052  10.775
64229SOL    HW194584   1.024   6.981  10.722
64229SOL    HW294585   0.940   7.107  10.712
64230SOL     OW94586  12.332   3.219   5.807
64230SOL    HW194587  12.305   3.302   5.769
64230SOL    HW294588  12.258   3.194   5.863
64231SOL     OW94589   6.577  13.765  10.664
64231SOL    HW194590   6.503  13.720  10.704
64231SOL    HW294591   6.587  13.724  10.578
64232SOL     OW94592  10.735   4.143  10.573
64232SOL    HW194593  10.798   4.210  10.544
64232SOL    HW294594  10.769   4.114  10.657
64233SOL     OW94595   9.459  10.073   7.499
64233SOL    HW194596   9.385  10.013   7.484
64233SOL    HW294597   9.417  10.157   7.521
64234SOL     OW94598   7.715  10.451   1.542
64234SOL    HW194599   7.750  10.441   1.631
64234SOL    HW294600   7.719  10.363   1.505
64235SOL     OW94601  14.252   5.152   1.088
64235SOL    HW194602  14.202   5.074   1.114
64235SOL    HW294603  14.232   5.164   0.995
64236SOL     OW94604  14.579   9.550  10.868
64236SOL    HW194605  14.497   9.598  10.879
64236SOL    HW294606  14.628   9.601  10.804
64237SOL     OW94607   2.836   5.300   7.251
64237SOL    HW194608   2.930   5.297   7.238
64237SOL    HW294609   2.801   5.240   7.185
64238SOL     OW94610   6.454   4.932   2.255
64238SOL    HW194611   6.474   4.914   2.347
64238SOL    HW294612   6.429   4.848   2.218
64239SOL     OW94613  11.431  14.435   3.515
64239SOL    HW194614  11.503  14.374   3.536
64239SOL    HW294615  11.455  14.471   3.430
64240SOL     OW94616  13.037   0.606   8.424
64240SOL    HW194617  13.124   0.575   8.403
64240SOL    HW294618  13.037   0.698   8.398
64241SOL     OW94619   9.622   7.032   1.184
64241SOL    HW194620   9.552   7.095   1.167
64241SOL    HW294621   9.629   7.028   1.279
64242SOL     OW94622   7.671  12.833   6.244
64242SOL    HW194623   7.699  12.803   6.158
64242SOL    HW294624   7.576  12.841   6.237
64243SOL     OW94625  11.020   0.976   9.729
64243SOL    HW194626  11.098   0.922   9.741
64243SOL    HW294627  10.982   0.985   9.816
64244SOL     OW94628   7.296  12.990   2.169
64244SOL    HW194629   7.283  12.909   2.119
64244SOL    HW294630   7.371  12.971   2.226
64245SOL     OW94631   2.045   6.838   2.174
64245SOL    HW194632   2.128   6.873   2.141
64245SOL    HW294633   2.011   6.908   2.230
64246SOL     OW94634  14.267  10.373  10.994
64246SOL    HW194635  14.181  10.376  11.036
64246SOL    HW294636  14.263  10.443  10.928
64247SOL     OW94637  13.577   3.907   8.629
64247SOL    HW194638  13.552   3.999   8.618
64247SOL    HW294639  13.550   3.864   8.548
64248SOL     OW94640  10.182   3.145   0.377
64248SOL    HW194641  10.204   3.232   0.343
64248SOL    HW294642  10.266   3.109   0.406
64249SOL     OW94643  10.141   9.024   1.102
64249SOL    HW194644  10.115   9.095   1.160
64249SOL    HW294645  10.218   9.057   1.057
64250SOL     OW94646  10.278   1.152   6.184
64250SOL    HW194647  10.276   1.243   6.214
64250SOL    HW294648  10.370   1.136   6.165
64251SOL     OW94649   9.223   8.462   6.257
64251SOL    HW194650   9.173   8.391   6.217
64251SOL    HW294651   9.244   8.521   6.185
64252SOL     OW94652   5.232   2.084   3.563
64252SOL    HW194653   5.309   2.062   3.511
64252SOL    HW294654   5.158   2.071   3.503
64253SOL     OW94655  10.808  10.612  12.831
64253SOL    HW194656  10.811  10.667  12.909
64253SOL    HW294657  10.895  10.573  12.826
64254SOL     OW94658   0.216   9.252   5.399
64254SOL    HW194659   0.309   9.247   5.420
64254SOL    HW294660   0.171   9.228   5.479
64255SOL     OW94661   8.139   6.384  10.956
64255SOL    HW194662   8.171   6.323  11.023
64255SOL    HW294663   8.083   6.445  11.005
64256SOL     OW94664   3.897   4.007   3.067
64256SOL    HW194665   3.972   4.004   3.006
64256SOL    HW294666   3.889   4.099   3.091
64257SOL     OW94667   7.326   3.755   2.625
64257SOL    HW194668   7.311   3.663   2.603
64257SOL    HW294669   7.245   3.799   2.599
64258SOL     OW94670   3.916   1.136   8.935
64258SOL    HW194671   3.978   1.205   8.957
64258SOL    HW294672   3.951   1.096   8.856
64259SOL     OW94673   4.142  14.065   7.965
64259SOL    HW194674   4.202  14.035   8.033
64259SOL    HW294675   4.164  14.012   7.888
64260SOL     OW94676   1.744   6.249  13.658
64260SOL    HW194677   1.720   6.294  13.577
64260SOL    HW294678   1.813   6.304  13.696
64261SOL     OW94679   9.272   0.780  11.808
64261SOL    HW194680   9.297   0.833  11.733
64261SOL    HW294681   9.330   0.809  11.878
64262SOL     OW94682   9.899   8.604   2.740
64262SOL    HW194683   9.922   8.526   2.790
64262SOL    HW294684   9.885   8.572   2.650
64263SOL     OW94685   1.934   3.348   0.034
64263SOL    HW194686   1.966   3.368   0.122
64263SOL    HW294687   1.870   3.415   0.015
64264SOL     OW94688   3.594   2.181  12.655
64264SOL    HW194689   3.637   2.103  12.620
64264SOL    HW294690   3.653   2.211  12.724
64265SOL     OW94691   2.960   5.814  12.762
64265SOL    HW194692   2.902   5.799  12.837
64265SOL    HW294693   2.987   5.727  12.734
64266SOL     OW94694   2.528  13.690   7.356
64266SOL    HW194695   2.492  13.664   7.271
64266SOL    HW294696   2.584  13.766   7.336
64267SOL     OW94697  14.280  10.406  11.603
64267SOL    HW194698  14.360  10.360  11.627
64267SOL    HW294699  14.220  10.390  11.676
64268SOL     OW94700   5.452   2.864  10.632
64268SOL    HW194701   5.431   2.810  10.556
64268SOL    HW294702   5.492   2.943  10.595
64269SOL     OW94703   6.462   6.757   3.309
64269SOL    HW194704   6.406   6.734   3.235
64269SOL    HW294705   6.550   6.763   3.272
64270SOL     OW94706   2.538   3.088  10.991
64270SOL    HW194707   2.560   3.181  10.996
64270SOL    HW294708   2.537   3.068  10.898
64271SOL     OW94709   9.118   8.206  10.025
64271SOL    HW194710   9.096   8.145  10.095
64271SOL    HW294711   9.086   8.164   9.945
64272SOL     OW94712  10.860   0.570  14.447
64272SOL    HW194713  10.944   0.542  14.483
64272SOL    HW294714  10.801   0.498  14.465
64273SOL     OW94715   3.896   2.916   9.396
64273SOL    HW194716   3.854   2.918   9.482
64273SOL    HW294717   3.833   2.872   9.340
64274SOL     OW94718   0.543   0.690  13.472
64274SOL    HW194719   0.624   0.699  13.523
64274SOL    HW294720   0.551   0.754  13.401
64275SOL     OW94721  12.061   0.122   9.261
64275SOL    HW194722  12.128   0.167   9.312
64275SOL    HW294723  12.032   0.050   9.317
64276SOL     OW94724  14.558   1.584   3.422
64276SOL    HW194725  14.631   1.571   3.482
64276SOL    HW294726  14.597   1.631   3.348
64277SOL     OW94727   6.751   5.106   6.599
64277SOL    HW194728   6.678   5.064   6.644
64277SOL    HW294729   6.729   5.199   6.599
64278SOL     OW94730   9.344   5.413   5.191
64278SOL    HW194731   9.364   5.406   5.284
64278SOL    HW294732   9.326   5.322   5.164
64279SOL     OW94733   6.364   2.660   2.084
64279SOL    HW194734   6.278   2.618   2.091
64279SOL    HW294735   6.417   2.617   2.151
64280SOL     OW94736   4.856   2.450  12.709
64280SOL    HW194737   4.907   2.406  12.777
64280SOL    HW294738   4.774   2.475  12.752
64281SOL     OW94739  13.182   4.672  10.743
64281SOL    HW194740  13.175   4.768  10.742
64281SOL    HW294741  13.094   4.641  10.720
64282SOL     OW94742   6.224   0.724   1.532
64282SOL    HW194743   6.246   0.659   1.465
64282SOL    HW294744   6.256   0.807   1.496
64283SOL     OW94745  13.141  12.246   0.941
64283SOL    HW194746  13.117  12.206   1.024
64283SOL    HW294747  13.209  12.310   0.963
64284SOL     OW94748   7.908   4.559   1.114
64284SOL    HW194749   7.959   4.639   1.099
64284SOL    HW294750   7.841   4.586   1.177
64285SOL     OW94751   9.989  13.964  14.672
64285SOL    HW194752   9.942  14.044  14.696
64285SOL    HW294753   9.959  13.898  14.734
64286SOL     OW94754   8.986  14.112   6.757
64286SOL    HW194755   8.902  14.149   6.729
64286SOL    HW294756   8.966  14.022   6.780
64287SOL     OW94757   7.435  10.524   9.546
64287SOL    HW194758   7.381  10.547   9.621
64287SOL    HW294759   7.525  10.542   9.575
64288SOL     OW94760   8.161   5.689   1.453
64288SOL    HW194761   8.164   5.764   1.513
64288SOL    HW294762   8.068   5.678   1.433
64289SOL     OW94763   1.294   5.214  11.884
64289SOL    HW194764   1.295   5.126  11.921
64289SOL    HW294765   1.234   5.262  11.941
64290SOL     OW94766   3.430   5.765   3.797
64290SOL    HW194767   3.463   5.706   3.729
64290SOL    HW294768   3.399   5.842   3.750
64291SOL     OW94769   0.167   8.072  13.245
64291SOL    HW194770   0.134   8.015  13.314
64291SOL    HW294771   0.217   8.014  13.188
64292SOL     OW94772  10.103  13.668  13.323
64292SOL    HW194773  10.131  13.699  13.237
64292SOL    HW294774  10.171  13.606  13.349
64293SOL     OW94775   9.131   6.811   8.177
64293SOL    HW194776   9.164   6.776   8.260
64293SOL    HW294777   9.043   6.842   8.197
64294SOL     OW94778   0.756   0.815  10.593
64294SOL    HW194779   0.757   0.905  10.625
64294SOL    HW294780   0.841   0.780  10.618
64295SOL     OW94781  14.394  11.411   3.601
64295SOL    HW194782  14.308  11.391   3.638
64295SOL    HW294783  14.375  11.464   3.524
64296SOL     OW94784   8.115  10.551   2.863
64296SOL    HW194785   8.126  10.583   2.953
64296SOL    HW294786   8.099  10.458   2.873
64297SOL     OW94787   8.165   0.544   6.863
64297SOL    HW194788   8.223   0.492   6.918
64297SOL    HW294789   8.194   0.525   6.773
64298SOL     OW94790   0.746   4.998   0.388
64298SOL    HW194791   0.772   5.065   0.324
64298SOL    HW294792   0.725   4.921   0.334
64299SOL     OW94793   2.002   5.147   8.796
64299SOL    HW194794   1.951   5.069   8.817
64299SOL    HW294795   1.951   5.191   8.728
64300SOL     OW94796   1.060   7.566   1.627
64300SOL    HW194797   1.081   7.559   1.534
64300SOL    HW294798   0.965   7.551   1.631
64301SOL     OW94799   6.210   8.816   2.750
64301SOL    HW194800   6.227   8.858   2.666
64301SOL    HW294801   6.149   8.875   2.795
64302SOL     OW94802   1.929  10.406   5.428
64302SOL    HW194803   1.953  10.448   5.345
64302SOL    HW294804   1.894  10.477   5.482
64303SOL     OW94805   1.523   8.707   1.831
64303SOL    HW194806   1.470   8.786   1.848
64303SOL    HW294807   1.460   8.642   1.800
64304SOL     OW94808   5.577   9.549   6.371
64304SOL    HW194809   5.636   9.621   6.394
64304SOL    HW294810   5.632   9.488   6.321
64305SOL     OW94811  13.046   9.792  11.322
64305SOL    HW194812  12.969   9.780  11.378
64305SOL    HW294813  13.020   9.756  11.237
64306SOL     OW94814  10.237   9.341   5.587
64306SOL    HW194815  10.323   9.301   5.578
64306SOL    HW294816  10.215   9.331   5.680
64307SOL     OW94817   1.044   4.308   8.543
64307SOL    HW194818   0.990   4.383   8.519
64307SOL    HW294819   1.086   4.282   8.461
64308SOL     OW94820   3.635   9.126  13.755
64308SOL    HW194821   3.660   9.185  13.684
64308SOL    HW294822   3.604   9.047  13.711
64309SOL     OW94823  10.647   5.005   1.806
64309SOL    HW194824  10.673   4.919   1.839
64309SOL    HW294825  10.585   4.986   1.736
64310SOL     OW94826  14.308   0.906   1.693
64310SOL    HW194827  14.225   0.932   1.732
64310SOL    HW294828  14.347   0.847   1.757
64311SOL     OW94829   7.866   2.027   0.489
64311SOL    HW194830   7.940   1.970   0.472
64311SOL    HW294831   7.792   1.984   0.445
64312SOL     OW94832  12.851   8.467  12.276
64312SOL    HW194833  12.801   8.460  12.357
64312SOL    HW294834  12.942   8.457  12.303
64313SOL     OW94835   1.566   0.123   7.918
64313SOL    HW194836   1.474   0.125   7.946
64313SOL    HW294837   1.577   0.202   7.865
64314SOL     OW94838   3.834   2.332  12.013
64314SOL    HW194839   3.910   2.276  12.028
64314SOL    HW294840   3.762   2.271  11.998
64315SOL     OW94841   0.806  10.663  10.607
64315SOL    HW194842   0.776  10.650  10.517
64315SOL    HW294843   0.894  10.700  10.598
64316SOL     OW94844   9.990  12.577  11.618
64316SOL    HW194845   9.969  12.634  11.692
64316SOL    HW294846   9.912  12.523  11.607
64317SOL     OW94847   5.056  11.825   2.646
64317SOL    HW194848   5.077  11.768   2.720
64317SOL    HW294849   5.139  11.832   2.598
64318SOL     OW94850   7.463   8.454  13.794
64318SOL    HW194851   7.404   8.442  13.719
64318SOL    HW294852   7.410   8.430  13.870
64319SOL     OW94853  12.266   9.075   9.487
64319SOL    HW194854  12.222   9.122   9.416
64319SOL    HW294855  12.231   8.986   9.480
64320SOL     OW94856  11.445   3.755   3.056
64320SOL    HW194857  11.397   3.675   3.077
64320SOL    HW294858  11.444   3.759   2.961
64321SOL     OW94859   2.823  11.640   9.243
64321SOL    HW194860   2.870  11.556   9.246
64321SOL    HW294861   2.764  11.636   9.318
64322SOL     OW94862  13.375   2.247   0.831
64322SOL    HW194863  13.448   2.309   0.838
64322SOL    HW294864  13.352   2.226   0.921
64323SOL     OW94865   0.819   0.313   9.450
64323SOL    HW194866   0.895   0.257   9.466
64323SOL    HW294867   0.820   0.328   9.355
64324SOL     OW94868   8.343  11.462   9.239
64324SOL    HW194869   8.331  11.385   9.184
64324SOL    HW294870   8.405  11.516   9.191
64325SOL     OW94871   5.908  12.695  14.578
64325SOL    HW194872   5.905  12.787  14.549
64325SOL    HW294873   5.846  12.690  14.650
64326SOL     OW94874  10.925   3.269   2.472
64326SOL    HW194875  10.931   3.198   2.536
64326SOL    HW294876  10.958   3.346   2.518
64327SOL     OW94877   2.647   3.390   4.397
64327SOL    HW194878   2.739   3.370   4.411
64327SOL    HW294879   2.614   3.416   4.483
64328SOL     OW94880   3.991   6.027   7.132
64328SOL    HW194881   4.019   6.097   7.191
64328SOL    HW294882   4.038   6.043   7.051
64329SOL     OW94883   4.072  11.698  10.732
64329SOL    HW194884   4.143  11.653  10.777
64329SOL    HW294885   4.100  11.702  10.641
64330SOL     OW94886  12.114   7.355   6.683
64330SOL    HW194887  12.106   7.261   6.701
64330SOL    HW294888  12.026   7.381   6.654
64331SOL     OW94889   9.474   7.259   5.822
64331SOL    HW194890   9.455   7.179   5.871
64331SOL    HW294891   9.551   7.237   5.770
64332SOL     OW94892  14.409   5.531   8.176
64332SOL    HW194893  14.449   5.455   8.217
64332SOL    HW294894  14.463   5.605   8.203
64333SOL     OW94895   8.560  11.951   7.012
64333SOL    HW194896   8.466  11.950   7.028
64333SOL    HW294897   8.574  12.026   6.953
64334SOL     OW94898  14.795   9.808  12.096
64334SOL    HW194899  14.861   9.797  12.027
64334SOL    HW294900  14.813   9.737  12.158
64335SOL     OW94901   2.909   1.239   2.414
64335SOL    HW194902   2.935   1.309   2.354
64335SOL    HW294903   2.975   1.240   2.483
64336SOL     OW94904   7.358  12.214   6.283
64336SOL    HW194905   7.409  12.220   6.364
64336SOL    HW294906   7.372  12.124   6.252
64337SOL     OW94907   7.894  13.239   9.728
64337SOL    HW194908   7.887  13.177   9.655
64337SOL    HW294909   7.860  13.191   9.804
64338SOL     OW94910   1.289   1.290   4.671
64338SOL    HW194911   1.365   1.307   4.616
64338SOL    HW294912   1.261   1.202   4.647
64339SOL     OW94913   3.102   3.345  11.158
64339SOL    HW194914   3.065   3.419  11.111
64339SOL    HW294915   3.027   3.288  11.175
64340SOL     OW94916   9.642   6.920  12.228
64340SOL    HW194917   9.725   6.922  12.181
64340SOL    HW294918   9.665   6.936  12.319
64341SOL     OW94919   6.113  14.630  12.178
64341SOL    HW194920   6.083  14.667  12.261
64341SOL    HW294921   6.086  14.693  12.112
64342SOL     OW94922   4.245   6.490   0.611
64342SOL    HW194923   4.228   6.401   0.643
64342SOL    HW294924   4.229   6.484   0.517
64343SOL     OW94925   9.011   3.194   4.041
64343SOL    HW194926   8.977   3.119   3.993
64343SOL    HW294927   8.936   3.253   4.050
64344SOL     OW94928  13.208  12.421   7.034
64344SOL    HW194929  13.114  12.425   7.054
64344SOL    HW294930  13.240  12.348   7.087
64345SOL     OW94931  12.006   8.172   8.207
64345SOL    HW194932  11.976   8.262   8.197
64345SOL    HW294933  12.024   8.163   8.301
64346SOL     OW94934   4.819  13.665  12.379
64346SOL    HW194935   4.833  13.589  12.323
64346SOL    HW294936   4.795  13.627  12.464
64347SOL     OW94937  12.809  12.530  12.011
64347SOL    HW194938  12.847  12.532  11.924
64347SOL    HW294939  12.749  12.456  12.010
64348SOL     OW94940   1.640  12.035   1.692
64348SOL    HW194941   1.706  12.104   1.699
64348SOL    HW294942   1.652  11.983   1.772
64349SOL     OW94943   6.950   6.600   6.136
64349SOL    HW194944   6.968   6.680   6.184
64349SOL    HW294945   6.912   6.630   6.053
64350SOL     OW94946   9.401   9.183   6.726
64350SOL    HW194947   9.402   9.099   6.773
64350SOL    HW294948   9.341   9.237   6.777
64351SOL     OW94949   8.131   7.683   2.389
64351SOL    HW194950   8.110   7.766   2.345
64351SOL    HW294951   8.089   7.616   2.336
64352SOL     OW94952   8.428   2.115   3.243
64352SOL    HW194953   8.409   2.199   3.286
64352SOL    HW294954   8.369   2.112   3.169
64353SOL     OW94955   6.466   3.609   9.280
64353SOL    HW194956   6.551   3.624   9.321
64353SOL    HW294957   6.480   3.629   9.188
64354SOL     OW94958   7.117  14.702   0.277
64354SOL    HW194959   7.163  14.677   0.357
64354SOL    HW294960   7.169  14.775   0.241
64355SOL     OW94961   2.102   2.225   3.291
64355SOL    HW194962   2.192   2.231   3.321
64355SOL    HW294963   2.104   2.159   3.222
64356SOL     OW94964  14.095   6.636  11.567
64356SOL    HW194965  14.064   6.601  11.484
64356SOL    HW294966  14.120   6.559  11.618
64357SOL     OW94967   3.554   5.266   9.656
64357SOL    HW194968   3.614   5.200   9.690
64357SOL    HW294969   3.608   5.323   9.602
64358SOL     OW94970  11.956   7.062   2.489
64358SOL    HW194971  11.887   7.089   2.549
64358SOL    HW294972  11.972   6.970   2.510
64359SOL     OW94973   8.081   8.084   2.888
64359SOL    HW194974   8.007   8.028   2.909
64359SOL    HW294975   8.042   8.165   2.854
64360SOL     OW94976   9.079   7.363  12.807
64360SOL    HW194977   9.163   7.408  12.819
64360SOL    HW294978   9.018   7.433  12.785
64361SOL     OW94979   6.307  10.388   6.625
64361SOL    HW194980   6.247  10.434   6.683
64361SOL    HW294981   6.253  10.357   6.553
64362SOL     OW94982   0.689   7.931   3.492
64362SOL    HW194983   0.665   7.919   3.401
64362SOL    HW294984   0.693   7.842   3.528
64363SOL     OW94985  14.664   6.380   9.144
64363SOL    HW194986  14.736   6.346   9.091
64363SOL    HW294987  14.590   6.323   9.124
64364SOL     OW94988   0.405  13.567   6.913
64364SOL    HW194989   0.447  13.625   6.977
64364SOL    HW294990   0.326  13.536   6.958
64365SOL     OW94991  12.903   1.310   1.562
64365SOL    HW194992  12.977   1.343   1.612
64365SOL    HW294993  12.829   1.364   1.589
64366SOL     OW94994  12.006  11.332  13.393
64366SOL    HW194995  11.979  11.377  13.474
64366SOL    HW294996  11.950  11.370  13.325
64367SOL     OW94997  12.842   6.764   7.528
64367SOL    HW194998  12.858   6.701   7.458
64367SOL    HW294999  12.877   6.722   7.607
64368SOL     OW95000  14.630   8.469   8.622
64368SOL    HW195001  14.661   8.544   8.673
64368SOL    HW295002  14.543   8.449   8.658
64369SOL     OW95003   7.526   0.740  12.006
64369SOL    HW195004   7.486   0.826  12.021
64369SOL    HW295005   7.618   0.759  11.987
64370SOL     OW95006   8.061   9.810   4.239
64370SOL    HW195007   8.026   9.833   4.152
64370SOL    HW295008   8.153   9.791   4.223
64371SOL     OW95009  14.292  10.160  11.931
64371SOL    HW195010  14.239  10.226  11.886
64371SOL    HW295011  14.348  10.124  11.862
64372SOL     OW95012   1.127   2.838   9.133
64372SOL    HW195013   1.100   2.927   9.109
64372SOL    HW295014   1.149   2.844   9.225
64373SOL     OW95015  10.636   5.083   9.969
64373SOL    HW195016  10.660   4.993   9.948
64373SOL    HW295017  10.548   5.094   9.932
64374SOL     OW95018   4.214   6.716   8.891
64374SOL    HW195019   4.119   6.726   8.891
64374SOL    HW295020   4.228   6.627   8.923
64375SOL     OW95021   9.464   8.745   6.620
64375SOL    HW195022   9.490   8.677   6.558
64375SOL    HW295023   9.508   8.824   6.588
64376SOL     OW95024  14.681   0.605  13.996
64376SOL    HW195025  14.693   0.521  13.951
64376SOL    HW295026  14.586   0.616  14.000
64377SOL     OW95027   8.319   7.135   3.972
64377SOL    HW195028   8.392   7.152   4.032
64377SOL    HW295029   8.327   7.203   3.905
64378SOL     OW95030   4.300   8.735  14.019
64378SOL    HW195031   4.320   8.655  14.066
64378SOL    HW295032   4.349   8.728  13.937
64379SOL     OW95033   3.306   5.320  11.149
64379SOL    HW195034   3.291   5.382  11.078
64379SOL    HW295035   3.359   5.250  11.110
64380SOL     OW95036   7.283   8.588   5.723
64380SOL    HW195037   7.316   8.546   5.803
64380SOL    HW295038   7.277   8.681   5.745
64381SOL     OW95039  13.104   7.815   2.299
64381SOL    HW195040  13.186   7.862   2.313
64381SOL    HW295041  13.085   7.825   2.206
64382SOL     OW95042   6.549   9.377  12.910
64382SOL    HW195043   6.519   9.453  12.962
64382SOL    HW295044   6.475   9.316  12.913
64383SOL     OW95045  12.561   5.287   8.417
64383SOL    HW195046  12.575   5.251   8.505
64383SOL    HW295047  12.648   5.288   8.377
64384SOL     OW95048   2.586  13.019  14.051
64384SOL    HW195049   2.498  13.008  14.087
64384SOL    HW295050   2.572  13.037  13.958
64385SOL     OW95051   3.176   3.090   6.458
64385SOL    HW195052   3.089   3.050   6.461
64385SOL    HW295053   3.166   3.174   6.503
64386SOL     OW95054  11.913  11.857   0.632
64386SOL    HW195055  11.925  11.763   0.648
64386SOL    HW295056  11.858  11.886   0.704
64387SOL     OW95057   6.667   7.550   7.272
64387SOL    HW195058   6.744   7.517   7.226
64387SOL    HW295059   6.657   7.492   7.347
64388SOL     OW95060  13.393   7.272   0.764
64388SOL    HW195061  13.321   7.311   0.813
64388SOL    HW295062  13.370   7.287   0.672
64389SOL     OW95063   4.780  13.343   6.030
64389SOL    HW195064   4.687  13.342   6.008
64389SOL    HW295065   4.825  13.353   5.945
64390SOL     OW95066   4.163  11.626  12.616
64390SOL    HW195067   4.216  11.652  12.691
64390SOL    HW295068   4.225  11.613  12.545
64391SOL     OW95069   7.488   2.323  12.329
64391SOL    HW195070   7.487   2.350  12.238
64391SOL    HW295071   7.402   2.284  12.343
64392SOL     OW95072   6.076  13.490   5.433
64392SOL    HW195073   6.060  13.444   5.515
64392SOL    HW295074   6.121  13.426   5.378
64393SOL     OW95075   0.154   0.520   1.005
64393SOL    HW195076   0.148   0.439   0.955
64393SOL    HW295077   0.082   0.574   0.971
64394SOL     OW95078  10.341   9.542   0.261
64394SOL    HW195079  10.346   9.449   0.278
64394SOL    HW295080  10.317   9.548   0.168
64395SOL     OW95081   5.059   5.853  11.974
64395SOL    HW195082   5.030   5.835  11.885
64395SOL    HW295083   4.980   5.885  12.018
64396SOL     OW95084  13.224   9.170   0.171
64396SOL    HW195085  13.236   9.224   0.248
64396SOL    HW295086  13.162   9.102   0.198
64397SOL     OW95087   1.805  11.546  10.500
64397SOL    HW195088   1.861  11.575  10.573
64397SOL    HW295089   1.716  11.556  10.532
64398SOL     OW95090   5.020   0.780  14.608
64398SOL    HW195091   4.999   0.857  14.555
64398SOL    HW295092   5.065   0.721  14.548
64399SOL     OW95093  11.934  13.358   8.880
64399SOL    HW195094  11.966  13.326   8.964
64399SOL    HW295095  11.885  13.437   8.902
64400SOL     OW95096  13.094   6.508   6.178
64400SOL    HW195097  13.023   6.519   6.115
64400SOL    HW295098  13.065   6.436   6.234
64401SOL     OW95099   8.767   6.474   2.072
64401SOL    HW195100   8.756   6.415   2.146
64401SOL    HW295101   8.731   6.426   1.998
64402SOL     OW95102   6.006   0.390  10.173
64402SOL    HW195103   6.014   0.435  10.258
64402SOL    HW295104   5.963   0.454  10.117
64403SOL     OW95105   8.547   7.328   0.487
64403SOL    HW195106   8.591   7.384   0.423
64403SOL    HW295107   8.483   7.386   0.529
64404SOL     OW95108  11.366   3.389   0.451
64404SOL    HW195109  11.313   3.444   0.393
64404SOL    HW295110  11.309   3.371   0.525
64405SOL     OW95111  13.092   3.447  13.226
64405SOL    HW195112  13.163   3.426  13.166
64405SOL    HW295113  13.092   3.374  13.288
64406SOL     OW95114   0.312  13.838   8.793
64406SOL    HW195115   0.350  13.759   8.830
64406SOL    HW295116   0.284  13.813   8.705
64407SOL     OW95117   7.813   6.506   7.263
64407SOL    HW195118   7.747   6.439   7.281
64407SOL    HW295119   7.817   6.511   7.168
64408SOL     OW95120   6.242   5.966   2.355
64408SOL    HW195121   6.156   5.969   2.396
64408SOL    HW295122   6.247   5.878   2.317
64409SOL     OW95123   5.655   5.952  12.053
64409SOL    HW195124   5.706   5.908  12.121
64409SOL    HW295125   5.574   5.977  12.096
64410SOL     OW95126   3.115   7.977   9.961
64410SOL    HW195127   3.151   8.002  10.046
64410SOL    HW295128   3.043   7.918   9.983
64411SOL     OW95129   8.122  13.031   9.408
64411SOL    HW195130   8.109  13.021   9.314
64411SOL    HW295131   8.182  12.960   9.432
64412SOL     OW95132   2.251   6.990  12.592
64412SOL    HW195133   2.311   6.981  12.666
64412SOL    HW295134   2.167   7.014  12.633
64413SOL     OW95135   1.981  11.064   0.344
64413SOL    HW195136   2.025  11.057   0.428
64413SOL    HW295137   1.888  11.066   0.366
64414SOL     OW95138  10.575   4.265   8.856
64414SOL    HW195139  10.660   4.242   8.894
64414SOL    HW295140  10.520   4.287   8.932
64415SOL     OW95141   6.846   2.546   8.177
64415SOL    HW195142   6.930   2.514   8.144
64415SOL    HW295143   6.833   2.497   8.258
64416SOL     OW95144   0.925   6.700   5.843
64416SOL    HW195145   0.871   6.761   5.793
64416SOL    HW295146   0.894   6.708   5.933
64417SOL     OW95147  13.500   5.192  10.500
64417SOL    HW195148  13.423   5.221  10.450
64417SOL    HW295149  13.490   5.231  10.586
64418SOL     OW95150   8.334   7.422   0.163
64418SOL    HW195151   8.323   7.416   0.069
64418SOL    HW295152   8.334   7.516   0.182
64419SOL     OW95153   5.959   9.902  13.904
64419SOL    HW195154   5.972   9.935  13.993
64419SOL    HW295155   6.026   9.946  13.852
64420SOL     OW95156   8.789   7.500   1.716
64420SOL    HW195157   8.748   7.413   1.715
64420SOL    HW295158   8.834   7.504   1.800
64421SOL     OW95159  10.056   5.813  12.826
64421SOL    HW195160  10.073   5.883  12.763
64421SOL    HW295161  10.027   5.859  12.905
64422SOL     OW95162   3.267  11.884   0.574
64422SOL    HW195163   3.316  11.817   0.622
64422SOL    HW295164   3.313  11.894   0.491
64423SOL     OW95165  11.465   3.888   6.069
64423SOL    HW195166  11.534   3.948   6.096
64423SOL    HW295167  11.392   3.946   6.045
64424SOL     OW95168   4.186   0.234   8.188
64424SOL    HW195169   4.107   0.204   8.143
64424SOL    HW295170   4.207   0.164   8.249
64425SOL     OW95171   1.268   6.565   1.577
64425SOL    HW195172   1.259   6.602   1.665
64425SOL    HW295173   1.178   6.553   1.546
64426SOL     OW95174   2.858   5.068   5.277
64426SOL    HW195175   2.928   5.009   5.306
64426SOL    HW295176   2.893   5.110   5.199
64427SOL     OW95177   8.024   7.247   9.093
64427SOL    HW195178   7.981   7.322   9.052
64427SOL    HW295179   7.953   7.185   9.110
64428SOL     OW95180   4.055   7.566   9.177
64428SOL    HW195181   4.098   7.506   9.237
64428SOL    HW295182   3.966   7.575   9.212
64429SOL     OW95183   8.949   9.964   1.508
64429SOL    HW195184   8.955   9.897   1.576
64429SOL    HW295185   8.911   9.918   1.433
64430SOL     OW95186   3.267  10.210   1.650
64430SOL    HW195187   3.215  10.201   1.730
64430SOL    HW295188   3.213  10.171   1.582
64431SOL     OW95189   7.497  13.358   3.814
64431SOL    HW195190   7.558  13.286   3.834
64431SOL    HW295191   7.549  13.418   3.761
64432SOL     OW95192   6.262   9.821  13.258
64432SOL    HW195193   6.305   9.741  13.287
64432SOL    HW295194   6.176   9.793  13.229
64433SOL     OW95195  13.780   5.561   1.059
64433SOL    HW195196  13.817   5.474   1.074
64433SOL    HW295197  13.848   5.608   1.011
64434SOL     OW95198   1.096   4.343   7.379
64434SOL    HW195199   1.105   4.418   7.320
64434SOL    HW295200   1.020   4.364   7.433
64435SOL     OW95201   4.253   8.891   2.182
64435SOL    HW195202   4.291   8.944   2.252
64435SOL    HW295203   4.179   8.847   2.222
64436SOL     OW95204   2.636   6.540   8.308
64436SOL    HW195205   2.705   6.564   8.369
64436SOL    HW295206   2.675   6.554   8.221
64437SOL     OW95207   4.419   1.275   7.141
64437SOL    HW195208   4.439   1.319   7.058
64437SOL    HW295209   4.502   1.236   7.169
64438SOL     OW95210  14.365  10.085   0.064
64438SOL    HW195211  14.310  10.157   0.033
64438SOL    HW295212  14.415  10.058  14.854
64439SOL     OW95213   8.110  12.612   2.870
64439SOL    HW195214   8.165  12.690   2.872
64439SOL    HW295215   8.020  12.645   2.876
64440SOL     OW95216   0.989  13.459  11.785
64440SOL    HW195217   0.982  13.472  11.691
64440SOL    HW295218   0.966  13.367  11.799
64441SOL     OW95219  14.364   2.635   5.695
64441SOL    HW195220  14.361   2.728   5.718
64441SOL    HW295221  14.279   2.619   5.652
64442SOL     OW95222  11.749   3.406  11.022
64442SOL    HW195223  11.656   3.423  11.006
64442SOL    HW295224  11.768   3.326  10.973
64443SOL     OW95225  14.404  13.860  12.551
64443SOL    HW195226  14.481  13.802  12.551
64443SOL    HW295227  14.426  13.927  12.486
64444SOL     OW95228   8.340   3.472   6.825
64444SOL    HW195229   8.291   3.442   6.902
64444SOL    HW295230   8.275   3.511   6.768
64445SOL     OW95231   5.938   9.440  13.366
64445SOL    HW195232   5.843   9.450  13.360
64445SOL    HW295233   5.974   9.525  13.342
64446SOL     OW95234   4.582   1.653   1.145
64446SOL    HW195235   4.615   1.663   1.056
64446SOL    HW295236   4.616   1.568   1.174
64447SOL     OW95237   2.634   8.879  13.728
64447SOL    HW195238   2.694   8.818  13.772
64447SOL    HW295239   2.572   8.904  13.796
64448SOL     OW95240   7.999  10.191  13.235
64448SOL    HW195241   7.908  10.197  13.207
64448SOL    HW295242   8.049  10.234  13.165
64449SOL     OW95243   5.703   6.235   3.230
64449SOL    HW195244   5.612   6.208   3.217
64449SOL    HW295245   5.755   6.163   3.195
64450SOL     OW95246   3.670  14.022  10.579
64450SOL    HW195247   3.659  14.101  10.527
64450SOL    HW295248   3.639  13.951  10.522
64451SOL     OW95249  12.915  12.343   6.960
64451SOL    HW195250  12.823  12.319   6.944
64451SOL    HW295251  12.956  12.263   6.991
64452SOL     OW95252   8.641   7.427   7.011
64452SOL    HW195253   8.621   7.519   7.025
64452SOL    HW295254   8.644   7.389   7.098
64453SOL     OW95255  12.236   1.206  10.260
64453SOL    HW195256  12.308   1.164  10.213
64453SOL    HW295257  12.201   1.138  10.317
64454SOL     OW95258   9.947  10.196   6.283
64454SOL    HW195259   9.920  10.279   6.244
64454SOL    HW295260  10.037  10.211   6.311
64455SOL     OW95261   2.625  10.334  12.974
64455SOL    HW195262   2.532  10.357  12.973
64455SOL    HW295263   2.630  10.261  13.035
64456SOL     OW95264   7.694  14.787   0.735
64456SOL    HW195265   7.753  14.861   0.747
64456SOL    HW295266   7.636  14.790   0.812
64457SOL     OW95267   6.941   9.326   9.237
64457SOL    HW195268   6.971   9.280   9.158
64457SOL    HW295269   6.991   9.408   9.238
64458SOL     OW95270   3.159   6.026  11.372
64458SOL    HW195271   3.113   6.105  11.344
64458SOL    HW295272   3.133   5.959  11.308
64459SOL     OW95273  10.206   5.545  11.340
64459SOL    HW195274  10.213   5.635  11.309
64459SOL    HW295275  10.238   5.492  11.266
64460SOL     OW95276   2.249   0.795  13.046
64460SOL    HW195277   2.257   0.883  13.082
64460SOL    HW295278   2.156   0.774  13.054
64461SOL     OW95279   4.900   4.969  10.327
64461SOL    HW195280   4.875   5.008  10.411
64461SOL    HW295281   4.854   5.021  10.262
64462SOL     OW95282   6.045   4.203   0.879
64462SOL    HW195283   5.999   4.266   0.822
64462SOL    HW295284   6.125   4.248   0.905
64463SOL     OW95285   4.835  12.214   5.890
64463SOL    HW195286   4.767  12.163   5.846
64463SOL    HW295287   4.843  12.173   5.976
64464SOL     OW95288  13.507   4.892  13.609
64464SOL    HW195289  13.599   4.886  13.637
64464SOL    HW295290  13.457   4.883  13.690
64465SOL     OW95291  12.752   7.749   0.515
64465SOL    HW195292  12.830   7.694   0.521
64465SOL    HW295293  12.693   7.703   0.456
64466SOL     OW95294   5.615  12.013   8.236
64466SOL    HW195295   5.622  12.103   8.204
64466SOL    HW295296   5.705  11.982   8.238
64467SOL     OW95297   5.739   6.249   6.385
64467SOL    HW195298   5.690   6.331   6.388
64467SOL    HW295299   5.698   6.199   6.315
64468SOL     OW95300   2.035  13.853  12.345
64468SOL    HW195301   2.088  13.861  12.424
64468SOL    HW295302   2.090  13.806  12.283
64469SOL     OW95303  14.280   2.418   3.835
64469SOL    HW195304  14.349   2.363   3.873
64469SOL    HW295305  14.228   2.447   3.910
64470SOL     OW95306   8.413  10.004   5.958
64470SOL    HW195307   8.455   9.933   6.006
64470SOL    HW295308   8.395   9.966   5.872
64471SOL     OW95309   6.456  11.890   8.514
64471SOL    HW195310   6.407  11.936   8.582
64471SOL    HW295311   6.391  11.868   8.447
64472SOL     OW95312   5.243   9.975   6.039
64472SOL    HW195313   5.257  10.014   6.125
64472SOL    HW295314   5.253  10.047   5.978
64473SOL     OW95315   3.539   2.933   8.767
64473SOL    HW195316   3.533   2.872   8.694
64473SOL    HW295317   3.500   3.014   8.734
64474SOL     OW95318  12.949   0.455  14.439
64474SOL    HW195319  12.992   0.371  14.426
64474SOL    HW295320  12.894   0.443  14.516
64475SOL     OW95321  12.693   8.410   3.140
64475SOL    HW195322  12.651   8.487   3.102
64475SOL    HW295323  12.743   8.444   3.214
64476SOL     OW95324   1.109  14.399   0.844
64476SOL    HW195325   1.026  14.390   0.799
64476SOL    HW295326   1.086  14.437   0.929
64477SOL     OW95327   7.056   6.808   6.782
64477SOL    HW195328   7.007   6.802   6.699
64477SOL    HW295329   7.122   6.739   6.775
64478SOL     OW95330  13.616   1.617  12.006
64478SOL    HW195331  13.574   1.643  11.924
64478SOL    HW295332  13.606   1.693  12.064
64479SOL     OW95333  14.780   0.521   8.891
64479SOL    HW195334  14.796   0.458   8.961
64479SOL    HW295335  14.761   0.603   8.936
64480SOL     OW95336   1.287  11.198   2.250
64480SOL    HW195337   1.351  11.169   2.184
64480SOL    HW295338   1.221  11.245   2.199
64481SOL     OW95339   6.602   5.716  13.334
64481SOL    HW195340   6.547   5.707  13.411
64481SOL    HW295341   6.545   5.697  13.260
64482SOL     OW95342   2.495  11.583   0.318
64482SOL    HW195343   2.431  11.638   0.272
64482SOL    HW295344   2.513  11.630   0.399
64483SOL     OW95345  14.622   3.871   6.372
64483SOL    HW195346  14.569   3.875   6.292
64483SOL    HW295347  14.622   3.778   6.396
64484SOL     OW95348   4.940  12.227  12.911
64484SOL    HW195349   4.861  12.269  12.878
64484SOL    HW295350   4.959  12.157  12.848
64485SOL     OW95351   6.228  10.169   3.030
64485SOL    HW195352   6.258  10.080   3.047
64485SOL    HW295353   6.163  10.186   3.098
64486SOL     OW95354   3.370   1.142   5.311
64486SOL    HW195355   3.403   1.054   5.294
64486SOL    HW295356   3.411   1.167   5.394
64487SOL     OW95357   5.505   3.257   2.523
64487SOL    HW195358   5.597   3.270   2.544
64487SOL    HW295359   5.504   3.182   2.463
64488SOL     OW95360  10.731   8.334  12.300
64488SOL    HW195361  10.700   8.249  12.331
64488SOL    HW295362  10.825   8.333  12.319
64489SOL     OW95363   8.159   0.503   4.797
64489SOL    HW195364   8.212   0.579   4.820
64489SOL    HW295365   8.142   0.512   4.703
64490SOL     OW95366   9.650  10.366  11.193
64490SOL    HW195367   9.713  10.331  11.130
64490SOL    HW295368   9.674  10.459  11.202
64491SOL     OW95369   4.693   0.478  10.773
64491SOL    HW195370   4.752   0.482  10.698
64491SOL    HW295371   4.676   0.570  10.795
64492SOL     OW95372   6.528   2.794  12.940
64492SOL    HW195373   6.461   2.826  12.880
64492SOL    HW295374   6.479   2.747  13.007
64493SOL     OW95375   5.813   3.259   9.826
64493SOL    HW195376   5.828   3.227   9.916
64493SOL    HW295377   5.727   3.225   9.803
64494SOL     OW95378  14.629   5.084   3.903
64494SOL    HW195379  14.659   5.097   3.993
64494SOL    HW295380  14.662   4.997   3.879
64495SOL     OW95381   9.034  12.626   1.035
64495SOL    HW195382   9.072  12.670   1.111
64495SOL    HW295383   9.073  12.671   0.960
64496SOL     OW95384  13.876   1.588  13.478
64496SOL    HW195385  13.918   1.657  13.529
64496SOL    HW295386  13.805   1.631  13.432
64497SOL     OW95387   4.941   5.669   4.699
64497SOL    HW195388   5.033   5.683   4.676
64497SOL    HW295389   4.930   5.716   4.782
64498SOL     OW95390   1.855   9.796   3.291
64498SOL    HW195391   1.914   9.737   3.245
64498SOL    HW295392   1.809   9.843   3.222
64499SOL     OW95393   2.004  13.769   1.672
64499SOL    HW195394   1.981  13.701   1.610
64499SOL    HW295395   2.072  13.731   1.727
64500SOL     OW95396   0.795   8.109   6.293
64500SOL    HW195397   0.782   8.203   6.282
64500SOL    HW295398   0.717   8.069   6.254
64501SOL     OW95399   8.783   4.161   1.480
64501SOL    HW195400   8.848   4.181   1.547
64501SOL    HW295401   8.716   4.111   1.525
64502SOL     OW95402   3.836  11.679   6.200
64502SOL    HW195403   3.749  11.718   6.198
64502SOL    HW295404   3.844  11.633   6.116
64503SOL     OW95405  14.647  13.337   6.196
64503SOL    HW195406  14.741  13.324   6.184
64503SOL    HW295407  14.639  13.378   6.283
64504SOL     OW95408   9.374   6.453   4.287
64504SOL    HW195409   9.452   6.424   4.241
64504SOL    HW295410   9.388   6.428   4.378
64505SOL     OW95411   3.025   8.900   0.862
64505SOL    HW195412   2.951   8.942   0.818
64505SOL    HW295413   3.091   8.890   0.794
64506SOL     OW95414  14.000  13.790   0.773
64506SOL    HW195415  13.935  13.858   0.789
64506SOL    HW295416  13.999  13.778   0.678
64507SOL     OW95417   7.762   5.212  14.722
64507SOL    HW195418   7.834   5.242  14.777
64507SOL    HW295419   7.728   5.291  14.681
64508SOL     OW95420   8.320  13.111   8.504
64508SOL    HW195421   8.376  13.135   8.579
64508SOL    HW295422   8.257  13.182   8.498
64509SOL     OW95423   2.913  12.244   4.484
64509SOL    HW195424   2.966  12.294   4.422
64509SOL    HW295425   2.874  12.174   4.431
64510SOL     OW95426  11.707  10.839   9.363
64510SOL    HW195427  11.780  10.786   9.396
64510SOL    HW295428  11.749  10.901   9.304
64511SOL     OW95429   1.047  14.590   1.074
64511SOL    HW195430   1.115  14.655   1.057
64511SOL    HW295431   0.983  14.636   1.129
64512SOL     OW95432  11.307   1.405  10.802
64512SOL    HW195433  11.298   1.373  10.712
64512SOL    HW295434  11.343   1.493  10.793
64513SOL     OW95435   3.442   9.095  13.937
64513SOL    HW195436   3.422   9.182  13.971
64513SOL    HW295437   3.515   9.109  13.877
64514SOL     OW95438   7.378   8.333   1.130
64514SOL    HW195439   7.363   8.245   1.166
64514SOL    HW295440   7.292   8.374   1.130
64515SOL     OW95441   9.094   4.539   2.795
64515SOL    HW195442   9.134   4.474   2.853
64515SOL    HW295443   9.160   4.609   2.790
64516SOL     OW95444  14.687  14.502   2.358
64516SOL    HW195445  14.644  14.503   2.272
64516SOL    HW295446  14.780  14.491   2.338
64517SOL     OW95447   2.442  11.726   1.435
64517SOL    HW195448   2.387  11.785   1.384
64517SOL    HW295449   2.381  11.666   1.478
64518SOL     OW95450   1.163   6.207   9.034
64518SOL    HW195451   1.142   6.226   9.126
64518SOL    HW295452   1.259   6.202   9.033
64519SOL     OW95453   8.334   8.998  12.573
64519SOL    HW195454   8.398   9.017  12.504
64519SOL    HW295455   8.303   8.910  12.553
64520SOL     OW95456   8.476  13.843   9.824
64520SOL    HW195457   8.522  13.776   9.874
64520SOL    HW295458   8.389  13.806   9.808
64521SOL     OW95459   3.759   1.899  10.076
64521SOL    HW195460   3.705   1.967  10.115
64521SOL    HW295461   3.847   1.936  10.073
64522SOL     OW95462  12.332  13.657   7.847
64522SOL    HW195463  12.342  13.562   7.838
64522SOL    HW295464  12.344  13.673   7.941
64523SOL     OW95465   1.517  13.174   6.965
64523SOL    HW195466   1.565  13.116   7.024
64523SOL    HW295467   1.474  13.237   7.023
64524SOL     OW95468   0.937   9.557  13.763
64524SOL    HW195469   0.879   9.554  13.686
64524SOL    HW295470   0.999   9.626  13.743
64525SOL     OW95471  13.268   0.562  12.072
64525SOL    HW195472  13.215   0.537  11.996
64525SOL    HW295473  13.262   0.486  12.131
64526SOL     OW95474   4.298  13.648   9.446
64526SOL    HW195475   4.361  13.590   9.405
64526SOL    HW295476   4.215  13.628   9.405
64527SOL     OW95477   2.545  10.423   8.945
64527SOL    HW195478   2.493  10.342   8.945
64527SOL    HW295479   2.552  10.446   8.852
64528SOL     OW95480   0.373   7.339   6.235
64528SOL    HW195481   0.439   7.354   6.303
64528SOL    HW295482   0.292   7.373   6.273
64529SOL     OW95483   5.355   4.463   2.361
64529SOL    HW195484   5.311   4.506   2.434
64529SOL    HW295485   5.433   4.516   2.344
64530SOL     OW95486  13.744   5.607   8.555
64530SOL    HW195487  13.761   5.688   8.602
64530SOL    HW295488  13.763   5.627   8.464
64531SOL     OW95489  12.553   3.187  13.730
64531SOL    HW195490  12.635   3.234  13.719
64531SOL    HW295491  12.527   3.162  13.641
64532SOL     OW95492   4.433   6.706  14.569
64532SOL    HW195493   4.478   6.666  14.643
64532SOL    HW295494   4.363   6.758  14.609
64533SOL     OW95495   8.985   7.548   1.242
64533SOL    HW195496   8.957   7.553   1.151
64533SOL    HW295497   9.075   7.516   1.238
64534SOL     OW95498   7.910   9.098  10.580
64534SOL    HW195499   7.921   9.099  10.675
64534SOL    HW295500   7.899   9.006  10.558
64535SOL     OW95501   7.012   2.296  10.654
64535SOL    HW195502   6.993   2.305  10.748
64535SOL    HW295503   7.108   2.290  10.650
64536SOL     OW95504  10.375  10.149  11.022
64536SOL    HW195505  10.325  10.079  10.981
64536SOL    HW295506  10.443  10.170  10.958
64537SOL     OW95507  13.477   8.691  13.372
64537SOL    HW195508  13.533   8.768  13.384
64537SOL    HW295509  13.532   8.629  13.324
64538SOL     OW95510   2.124   3.854  11.602
64538SOL    HW195511   2.135   3.904  11.521
64538SOL    HW295512   2.167   3.907  11.669
64539SOL     OW95513  10.945   3.219   5.410
64539SOL    HW195514  10.921   3.312   5.408
64539SOL    HW295515  10.935   3.194   5.502
64540SOL     OW95516   3.371   0.325   7.940
64540SOL    HW195517   3.326   0.404   7.971
64540SOL    HW295518   3.392   0.276   8.019
64541SOL     OW95519  10.511  10.638   8.332
64541SOL    HW195520  10.539  10.547   8.343
64541SOL    HW295521  10.531  10.658   8.241
64542SOL     OW95522   2.950   8.344   0.088
64542SOL    HW195523   2.912   8.337   0.175
64542SOL    HW295524   2.875   8.359   0.030
64543SOL     OW95525   6.564  11.988   4.896
64543SOL    HW195526   6.478  11.977   4.855
64543SOL    HW295527   6.548  12.048   4.969
64544SOL     OW95528   6.724  10.505  14.735
64544SOL    HW195529   6.799  10.537  14.784
64544SOL    HW295530   6.686  10.584  14.696
64545SOL     OW95531   6.940  14.499  11.097
64545SOL    HW195532   6.929  14.587  11.135
64545SOL    HW295533   6.914  14.439  11.167
64546SOL     OW95534   4.977   8.355   7.379
64546SOL    HW195535   5.046   8.419   7.398
64546SOL    HW295536   5.011   8.272   7.413
64547SOL     OW95537   2.058   9.876   0.239
64547SOL    HW195538   1.989   9.827   0.195
64547SOL    HW295539   2.119   9.809   0.271
64548SOL     OW95540   6.475  11.911   2.830
64548SOL    HW195541   6.398  11.923   2.886
64548SOL    HW295542   6.471  11.984   2.768
64549SOL     OW95543   8.554   2.489  12.110
64549SOL    HW195544   8.507   2.519  12.187
64549SOL    HW295545   8.486   2.471  12.045
64550SOL     OW95546   4.669  13.949   7.527
64550SOL    HW195547   4.653  13.987   7.614
64550SOL    HW295548   4.733  13.880   7.542
64551SOL     OW95549   0.868   5.315   7.014
64551SOL    HW195550   0.788   5.321   7.065
64551SOL    HW295551   0.916   5.395   7.034
64552SOL     OW95552   0.606   0.978   7.237
64552SOL    HW195553   0.684   0.931   7.209
64552SOL    HW295554   0.586   1.038   7.165
64553SOL     OW95555  12.151   2.798  11.499
64553SOL    HW195556  12.058   2.783  11.520
64553SOL    HW295557  12.180   2.715  11.462
64554SOL     OW95558  14.495   9.867   4.587
64554SOL    HW195559  14.473   9.959   4.598
64554SOL    HW295560  14.569   9.853   4.645
64555SOL     OW95561   0.251   1.258   3.063
64555SOL    HW195562   0.187   1.226   2.999
64555SOL    HW295563   0.336   1.236   3.026
64556SOL     OW95564  13.934   4.910   1.977
64556SOL    HW195565  14.018   4.954   1.990
64556SOL    HW295566  13.915   4.922   1.884
64557SOL     OW95567   3.176  10.424  14.226
64557SOL    HW195568   3.260  10.385  14.201
64557SOL    HW295569   3.172  10.506  14.176
64558SOL     OW95570  13.905   6.829  13.089
64558SOL    HW195571  13.907   6.737  13.115
64558SOL    HW295572  13.975   6.871  13.138
64559SOL     OW95573   0.241   8.792   9.977
64559SOL    HW195574   0.331   8.803  10.008
64559SOL    HW295575   0.248   8.790   9.881
64560SOL     OW95576   8.955  13.460  11.716
64560SOL    HW195577   9.013  13.521  11.670
64560SOL    HW295578   8.989  13.458  11.806
64561SOL     OW95579   6.809   5.786   4.412
64561SOL    HW195580   6.784   5.747   4.329
64561SOL    HW295581   6.777   5.876   4.406
64562SOL     OW95582  13.730  14.278   9.190
64562SOL    HW195583  13.801  14.214   9.175
64562SOL    HW295584  13.774  14.363   9.190
64563SOL     OW95585  12.313   7.396   3.757
64563SOL    HW195586  12.387   7.367   3.704
64563SOL    HW295587  12.280   7.316   3.799
64564SOL     OW95588   1.007  14.031   9.281
64564SOL    HW195589   1.002  13.937   9.264
64564SOL    HW295590   0.985  14.072   9.197
64565SOL     OW95591  14.467   8.763   9.840
64565SOL    HW195592  14.466   8.853   9.874
64565SOL    HW295593  14.376   8.733   9.852
64566SOL     OW95594   5.039   1.440   1.823
64566SOL    HW195595   4.994   1.439   1.907
64566SOL    HW295596   4.994   1.507   1.772
64567SOL     OW95597   8.570   2.454   7.791
64567SOL    HW195598   8.585   2.428   7.882
64567SOL    HW295599   8.484   2.497   7.792
64568SOL     OW95600   8.624  11.296   9.369
64568SOL    HW195601   8.553  11.266   9.426
64568SOL    HW295602   8.583  11.363   9.314
64569SOL     OW95603   5.614   7.352   0.309
64569SOL    HW195604   5.558   7.323   0.381
64569SOL    HW295605   5.640   7.441   0.333
64570SOL     OW95606   3.939  11.545   3.825
64570SOL    HW195607   4.012  11.495   3.861
64570SOL    HW295608   3.980  11.610   3.768
64571SOL     OW95609   9.868  12.420   0.061
64571SOL    HW195610   9.809  12.361   0.108
64571SOL    HW295611   9.891  12.372  14.849
64572SOL     OW95612   7.334  10.135   5.814
64572SOL    HW195613   7.288  10.217   5.828
64572SOL    HW295614   7.425  10.154   5.837
64573SOL     OW95615   8.534   7.663   7.154
64573SOL    HW195616   8.463   7.719   7.123
64573SOL    HW295617   8.509   7.638   7.243
64574SOL     OW95618   8.926   6.560   3.898
64574SOL    HW195619   8.992   6.590   3.836
64574SOL    HW295620   8.874   6.638   3.918
64575SOL     OW95621   0.468   4.335   9.552
64575SOL    HW195622   0.483   4.416   9.503
64575SOL    HW295623   0.506   4.352   9.639
64576SOL     OW95624   7.460   2.698  12.037
64576SOL    HW195625   7.551   2.718  12.059
64576SOL    HW295626   7.436   2.765  11.972
64577SOL     OW95627   3.928   1.489  13.340
64577SOL    HW195628   3.980   1.568  13.345
64577SOL    HW295629   3.837   1.519  13.349
64578SOL     OW95630  14.563   1.397  12.583
64578SOL    HW195631  14.580   1.486  12.614
64578SOL    HW295632  14.571   1.404  12.487
64579SOL     OW95633   9.878   7.328   1.677
64579SOL    HW195634   9.948   7.288   1.728
64579SOL    HW295635   9.800   7.278   1.700
64580SOL     OW95636  14.570   8.583  13.129
64580SOL    HW195637  14.611   8.567  13.043
64580SOL    HW295638  14.629   8.541  13.191
64581SOL     OW95639   3.322  13.617  14.804
64581SOL    HW195640   3.308  13.632   0.030
64581SOL    HW295641   3.250  13.665  14.762
64582SOL     OW95642  14.598   0.637  14.728
64582SOL    HW195643  14.522   0.613  14.675
64582SOL    HW295644  14.659   0.564  14.718
64583SOL     OW95645  11.836   1.449   5.362
64583SOL    HW195646  11.821   1.383   5.294
64583SOL    HW295647  11.931   1.457   5.367
64584SOL     OW95648  14.723  14.471   8.738
64584SOL    HW195649  14.633  14.467   8.704
64584SOL    HW295650  14.712  14.495   8.830
64585SOL     OW95651   1.597  10.320  11.900
64585SOL    HW195652   1.679  10.325  11.852
64585SOL    HW295653   1.623  10.317  11.992
64586SOL     OW95654   9.619   2.577   8.610
64586SOL    HW195655   9.624   2.494   8.658
64586SOL    HW295656   9.563   2.558   8.534
64587SOL     OW95657  11.337  13.409   2.244
64587SOL    HW195658  11.432  13.404   2.254
64587SOL    HW295659  11.319  13.371   2.158
64588SOL     OW95660  12.659  12.287  13.244
64588SOL    HW195661  12.699  12.355  13.298
64588SOL    HW295662  12.565  12.301  13.253
64589SOL     OW95663   1.147   3.996   0.515
64589SOL    HW195664   1.080   3.967   0.577
64589SOL    HW295665   1.229   3.970   0.556
64590SOL     OW95666  10.239  12.679   2.097
64590SOL    HW195667  10.239  12.715   2.008
64590SOL    HW295668  10.147  12.674   2.121
64591SOL     OW95669   6.034   3.684   1.337
64591SOL    HW195670   6.098   3.615   1.319
64591SOL    HW295671   5.963   3.668   1.274
64592SOL     OW95672   1.052   0.606   2.231
64592SOL    HW195673   1.034   0.549   2.305
64592SOL    HW295674   1.135   0.649   2.253
64593SOL     OW95675  13.377  14.656   1.250
64593SOL    HW195676  13.445  14.665   1.184
64593SOL    HW295677  13.421  14.617   1.326
64594SOL     OW95678   6.254  13.792   4.869
64594SOL    HW195679   6.320  13.726   4.846
64594SOL    HW295680   6.249  13.788   4.964
64595SOL     OW95681   2.054   1.852   4.908
64595SOL    HW195682   1.959   1.852   4.921
64595SOL    HW295683   2.070   1.924   4.847
64596SOL     OW95684  11.322   5.026  14.146
64596SOL    HW195685  11.342   4.953  14.087
64596SOL    HW295686  11.385   5.094  14.124
64597SOL     OW95687  14.555   9.473   2.094
64597SOL    HW195688  14.473   9.427   2.114
64597SOL    HW295689  14.610   9.458   2.172
64598SOL     OW95690   9.895  12.543  13.464
64598SOL    HW195691   9.842  12.600  13.521
64598SOL    HW295692   9.930  12.477  13.524
64599SOL     OW95693   7.867   0.814   9.196
64599SOL    HW195694   7.896   0.725   9.177
64599SOL    HW295695   7.774   0.815   9.171
64600SOL     OW95696   3.791   7.393   5.107
64600SOL    HW195697   3.879   7.366   5.131
64600SOL    HW295698   3.766   7.334   5.036
64601SOL     OW95699  13.348  13.097  13.511
64601SOL    HW195700  13.409  13.156  13.555
64601SOL    HW295701  13.365  13.011  13.549
64602SOL     OW95702   6.243   9.351   7.407
64602SOL    HW195703   6.297   9.275   7.429
64602SOL    HW295704   6.260   9.414   7.478
64603SOL     OW95705  10.848   9.739  11.845
64603SOL    HW195706  10.840   9.689  11.927
64603SOL    HW295707  10.797   9.819  11.860
64604SOL     OW95708   9.641   4.180   5.215
64604SOL    HW195709   9.729   4.189   5.178
64604SOL    HW295710   9.650   4.213   5.304
64605SOL     OW95711   7.905   9.083   8.104
64605SOL    HW195712   7.933   9.169   8.073
64605SOL    HW295713   7.840   9.055   8.040
64606SOL     OW95714  13.767   9.650   2.253
64606SOL    HW195715  13.845   9.701   2.235
64606SOL    HW295716  13.694   9.710   2.236
64607SOL     OW95717   0.469   0.887  12.603
64607SOL    HW195718   0.387   0.936  12.598
64607SOL    HW295719   0.463   0.822  12.533
64608SOL     OW95720   9.481   3.911  10.804
64608SOL    HW195721   9.523   3.837  10.848
64608SOL    HW295722   9.390   3.909  10.834
64609SOL     OW95723   6.763   1.342  12.686
64609SOL    HW195724   6.838   1.282  12.687
64609SOL    HW295725   6.687   1.285  12.700
64610SOL     OW95726   7.823   9.065  14.695
64610SOL    HW195727   7.898   9.121  14.715
64610SOL    HW295728   7.754   9.095  14.754
64611SOL     OW95729   8.101   1.188   4.143
64611SOL    HW195730   8.160   1.262   4.134
64611SOL    HW295731   8.127   1.128   4.073
64612SOL     OW95732  12.822   4.892  13.545
64612SOL    HW195733  12.829   4.961  13.612
64612SOL    HW295734  12.805   4.939  13.464
64613SOL     OW95735   4.304   8.080   6.391
64613SOL    HW195736   4.273   8.102   6.303
64613SOL    HW295737   4.272   7.990   6.406
64614SOL     OW95738   9.435   5.948   7.704
64614SOL    HW195739   9.510   5.892   7.725
64614SOL    HW295740   9.389   5.903   7.634
64615SOL     OW95741   6.475   1.424  13.686
64615SOL    HW195742   6.439   1.336  13.682
64615SOL    HW295743   6.499   1.445  13.596
64616SOL     OW95744   0.306   8.172  12.012
64616SOL    HW195745   0.328   8.082  12.037
64616SOL    HW295746   0.260   8.208  12.088
64617SOL     OW95747   0.977   4.510   3.445
64617SOL    HW195748   0.949   4.543   3.531
64617SOL    HW295749   1.017   4.586   3.402
64618SOL     OW95750   2.875  14.436  13.708
64618SOL    HW195751   2.943  14.455  13.772
64618SOL    HW295752   2.855  14.520  13.668
64619SOL     OW95753   6.396   9.225  13.803
64619SOL    HW195754   6.412   9.310  13.763
64619SOL    HW295755   6.382   9.244  13.896
64620SOL     OW95756   9.087   5.846   2.272
64620SOL    HW195757   9.017   5.781   2.275
64620SOL    HW295758   9.135   5.833   2.353
64621SOL     OW95759  11.910  11.347  12.312
64621SOL    HW195760  11.982  11.325  12.371
64621SOL    HW295761  11.847  11.393  12.367
64622SOL     OW95762  10.995   8.285   7.090
64622SOL    HW195763  10.921   8.265   7.033
64622SOL    HW295764  10.955   8.328   7.166
64623SOL     OW95765  11.039   3.038   9.399
64623SOL    HW195766  10.951   3.074   9.408
64623SOL    HW295767  11.049   3.022   9.305
64624SOL     OW95768  14.714   1.136   3.084
64624SOL    HW195769  14.752   1.058   3.124
64624SOL    HW295770  14.755   1.209   3.130
64625SOL     OW95771   7.841   1.087   5.420
64625SOL    HW195772   7.899   1.162   5.411
64625SOL    HW295773   7.763   1.122   5.463
64626SOL     OW95774   8.509  11.565   5.545
64626SOL    HW195775   8.546  11.483   5.511
64626SOL    HW295776   8.582  11.627   5.540
64627SOL     OW95777   7.442  12.992  10.942
64627SOL    HW195778   7.474  12.902  10.931
64627SOL    HW295779   7.382  13.006  10.869
64628SOL     OW95780   6.367   1.726   2.358
64628SOL    HW195781   6.397   1.651   2.408
64628SOL    HW295782   6.421   1.726   2.279
64629SOL     OW95783   4.243   1.500   3.863
64629SOL    HW195784   4.322   1.448   3.848
64629SOL    HW295785   4.192   1.449   3.926
64630SOL     OW95786  12.368   2.780   7.696
64630SOL    HW195787  12.329   2.766   7.609
64630SOL    HW295788  12.319   2.854   7.732
64631SOL     OW95789   3.443   1.441   4.479
64631SOL    HW195790   3.528   1.437   4.434
64631SOL    HW295791   3.460   1.402   4.565
64632SOL     OW95792   5.688   9.316   8.037
64632SOL    HW195793   5.645   9.232   8.054
64632SOL    HW295794   5.649   9.376   8.100
64633SOL     OW95795   9.621   0.129   1.151
64633SOL    HW195796   9.609   0.036   1.133
64633SOL    HW295797   9.533   0.166   1.146
64634SOL     OW95798   9.108   8.865   5.365
64634SOL    HW195799   9.045   8.794   5.370
64634SOL    HW295800   9.098   8.899   5.276
64635SOL     OW95801   1.805   8.436   0.962
64635SOL    HW195802   1.737   8.395   0.909
64635SOL    HW295803   1.886   8.395   0.932
64636SOL     OW95804   3.443   6.185   9.381
64636SOL    HW195805   3.397   6.205   9.299
64636SOL    HW295806   3.505   6.257   9.391
64637SOL     OW95807  13.066   6.403   4.852
64637SOL    HW195808  13.027   6.488   4.833
64637SOL    HW295809  13.126   6.420   4.924
64638SOL     OW95810  13.231   1.747  12.711
64638SOL    HW195811  13.276   1.664  12.698
64638SOL    HW295812  13.148   1.737  12.664
64639SOL     OW95813  14.547   6.193   6.929
64639SOL    HW195814  14.551   6.201   7.024
64639SOL    HW295815  14.457   6.217   6.907
64640SOL     OW95816  13.814   6.153   2.457
64640SOL    HW195817  13.894   6.203   2.440
64640SOL    HW295818  13.768   6.203   2.525
64641SOL     OW95819   7.482  10.040  13.861
64641SOL    HW195820   7.499   9.986  13.784
64641SOL    HW295821   7.529   9.996  13.932
64642SOL     OW95822   7.705   6.399   1.668
64642SOL    HW195823   7.629   6.346   1.642
64642SOL    HW295824   7.717   6.378   1.761
64643SOL     OW95825   6.934   7.453   2.693
64643SOL    HW195826   6.993   7.413   2.756
64643SOL    HW295827   6.852   7.404   2.703
64644SOL     OW95828  10.091  13.521  11.311
64644SOL    HW195829  10.142  13.561  11.382
64644SOL    HW295830  10.128  13.557  11.231
64645SOL     OW95831   3.830   0.459   0.846
64645SOL    HW195832   3.792   0.520   0.783
64645SOL    HW295833   3.887   0.513   0.901
64646SOL     OW95834   2.865   2.411   0.949
64646SOL    HW195835   2.805   2.453   0.888
64646SOL    HW295836   2.930   2.368   0.893
64647SOL     OW95837   6.943   9.701   4.360
64647SOL    HW195838   6.972   9.681   4.449
64647SOL    HW295839   6.850   9.678   4.359
64648SOL     OW95840   5.840   2.932   9.566
64648SOL    HW195841   5.817   2.839   9.572
64648SOL    HW295842   5.771   2.970   9.511
64649SOL     OW95843   5.671  13.789   4.101
64649SOL    HW195844   5.585  13.768   4.136
64649SOL    HW295845   5.732  13.732   4.148
64650SOL     OW95846  14.420  12.289   1.248
64650SOL    HW195847  14.375  12.210   1.277
64650SOL    HW295848  14.356  12.359   1.264
64651SOL     OW95849  12.143  10.403   4.679
64651SOL    HW195850  12.173  10.312   4.688
64651SOL    HW295851  12.222  10.452   4.653
64652SOL     OW95852  12.542   5.836   5.294
64652SOL    HW195853  12.577   5.797   5.374
64652SOL    HW295854  12.460   5.788   5.278
64653SOL     OW95855  14.362   8.745   8.639
64653SOL    HW195856  14.386   8.836   8.658
64653SOL    HW295857  14.288   8.752   8.579
64654SOL     OW95858   5.169   0.320   7.870
64654SOL    HW195859   5.260   0.349   7.860
64654SOL    HW295860   5.149   0.277   7.787
64655SOL     OW95861  11.028  11.220   7.680
64655SOL    HW195862  11.075  11.276   7.742
64655SOL    HW295863  11.057  11.131   7.701
64656SOL     OW95864  10.017  10.912   1.363
64656SOL    HW195865   9.964  10.991   1.365
64656SOL    HW295866  10.055  10.906   1.451
64657SOL     OW95867   1.766  13.384   2.220
64657SOL    HW195868   1.756  13.477   2.244
64657SOL    HW295869   1.758  13.384   2.124
64658SOL     OW95870   7.650   6.740   7.284
64658SOL    HW195871   7.730   6.688   7.280
64658SOL    HW295872   7.602   6.703   7.358
64659SOL     OW95873   0.689   2.042   4.218
64659SOL    HW195874   0.747   1.978   4.258
64659SOL    HW295875   0.739   2.124   4.217
64660SOL     OW95876   7.533  11.597   9.575
64660SOL    HW195877   7.496  11.682   9.595
64660SOL    HW295878   7.628  11.607   9.589
64661SOL     OW95879  12.839  12.507   5.691
64661SOL    HW195880  12.928  12.539   5.680
64661SOL    HW295881  12.783  12.578   5.658
64662SOL     OW95882   2.938  13.697  13.386
64662SOL    HW195883   2.999  13.693  13.460
64662SOL    HW295884   2.852  13.703  13.427
64663SOL     OW95885  12.714   8.257   3.667
64663SOL    HW195886  12.786   8.319   3.681
64663SOL    HW295887  12.754   8.171   3.681
64664SOL     OW95888   8.374   9.948   1.744
64664SOL    HW195889   8.364   9.858   1.713
64664SOL    HW295890   8.438   9.941   1.815
64665SOL     OW95891   4.318   0.841  11.006
64665SOL    HW195892   4.327   0.929  11.044
64665SOL    HW295893   4.279   0.789  11.076
64666SOL     OW95894   7.338   6.884   6.979
64666SOL    HW195895   7.336   6.856   7.070
64666SOL    HW295896   7.259   6.847   6.940
64667SOL     OW95897   1.949  13.180   0.393
64667SOL    HW195898   1.904  13.254   0.353
64667SOL    HW295899   1.939  13.109   0.330
64668SOL     OW95900   4.059   0.240  10.280
64668SOL    HW195901   4.149   0.237  10.314
64668SOL    HW295902   4.048   0.330  10.251
64669SOL     OW95903   0.598   3.599  14.661
64669SOL    HW195904   0.629   3.580  14.573
64669SOL    HW295905   0.677   3.594  14.716
64670SOL     OW95906   2.334   9.481   3.553
64670SOL    HW195907   2.347   9.499   3.646
64670SOL    HW295908   2.408   9.426   3.529
64671SOL     OW95909   3.967   8.854   3.454
64671SOL    HW195910   3.985   8.864   3.360
64671SOL    HW295911   3.880   8.813   3.457
64672SOL     OW95912   6.723  11.214   5.683
64672SOL    HW195913   6.717  11.229   5.777
64672SOL    HW295914   6.816  11.203   5.665
64673SOL     OW95915   5.808  10.967   2.978
64673SOL    HW195916   5.757  10.931   2.906
64673SOL    HW295917   5.847  11.047   2.942
64674SOL     OW95918   2.833   6.176  11.831
64674SOL    HW195919   2.882   6.094  11.841
64674SOL    HW295920   2.877   6.222  11.760
64675SOL     OW95921   4.784   4.085   6.980
64675SOL    HW195922   4.779   4.161   6.922
64675SOL    HW295923   4.872   4.049   6.966
64676SOL     OW95924   1.306  13.802   1.874
64676SOL    HW195925   1.310  13.898   1.869
64676SOL    HW295926   1.387  13.772   1.833
64677SOL     OW95927  13.013   1.502   8.431
64677SOL    HW195928  13.090   1.458   8.394
64677SOL    HW295929  13.050   1.572   8.484
64678SOL     OW95930   1.618  10.630   3.103
64678SOL    HW195931   1.690  10.676   3.059
64678SOL    HW295932   1.649  10.540   3.111
64679SOL     OW95933   2.660  11.738   4.859
64679SOL    HW195934   2.672  11.699   4.772
64679SOL    HW295935   2.566  11.757   4.864
64680SOL     OW95936   8.691   9.397   6.778
64680SOL    HW195937   8.742   9.318   6.763
64680SOL    HW295938   8.654   9.386   6.866
64681SOL     OW95939   6.133   8.106   6.646
64681SOL    HW195940   6.085   8.154   6.713
64681SOL    HW295941   6.206   8.066   6.692
64682SOL     OW95942  10.703  11.287   1.156
64682SOL    HW195943  10.699  11.324   1.068
64682SOL    HW295944  10.744  11.354   1.209
64683SOL     OW95945   1.241  12.891   4.992
64683SOL    HW195946   1.233  12.856   4.903
64683SOL    HW295947   1.183  12.967   4.993
64684SOL     OW95948   1.184   6.835  12.749
64684SOL    HW195949   1.192   6.891  12.826
64684SOL    HW295950   1.103   6.864  12.707
64685SOL     OW95951   1.987  13.786   2.476
64685SOL    HW195952   2.032  13.763   2.557
64685SOL    HW295953   2.041  13.855   2.437
64686SOL     OW95954  10.944   1.394   3.023
64686SOL    HW195955  10.935   1.403   3.118
64686SOL    HW295956  10.855   1.404   2.989
64687SOL     OW95957  11.976   3.310  11.842
64687SOL    HW195958  11.907   3.244  11.850
64687SOL    HW295959  12.031   3.278  11.771
64688SOL     OW95960   4.550   5.220  13.151
64688SOL    HW195961   4.570   5.270  13.072
64688SOL    HW295962   4.589   5.134  13.136
64689SOL     OW95963   4.053   0.323   3.757
64689SOL    HW195964   4.012   0.377   3.689
64689SOL    HW295965   4.013   0.352   3.839
64690SOL     OW95966   5.325   0.441   8.900
64690SOL    HW195967   5.264   0.438   8.825
64690SOL    HW295968   5.274   0.404   8.972
64691SOL     OW95969  11.750  10.390  13.465
64691SOL    HW195970  11.749  10.359  13.556
64691SOL    HW295971  11.840  10.373  13.436
64692SOL     OW95972  10.020   7.129   9.778
64692SOL    HW195973   9.955   7.137   9.708
64692SOL    HW295974  10.104   7.147   9.735
64693SOL     OW95975   2.209   0.252   9.521
64693SOL    HW195976   2.289   0.293   9.553
64693SOL    HW295977   2.238   0.174   9.475
64694SOL     OW95978  12.473   2.547   7.565
64694SOL    HW195979  12.516   2.509   7.642
64694SOL    HW295980  12.393   2.587   7.598
64695SOL     OW95981   0.102  11.318  12.144
64695SOL    HW195982   0.179  11.338  12.197
64695SOL    HW295983   0.080  11.400  12.101
64696SOL     OW95984   3.891   1.051  12.559
64696SOL    HW195985   3.977   1.087  12.538
64696SOL    HW295986   3.892   1.042  12.654
64697SOL     OW95987   5.212  12.048   1.236
64697SOL    HW195988   5.156  12.106   1.288
64697SOL    HW295989   5.246  12.103   1.166
64698SOL     OW95990   1.494   7.870  12.322
64698SOL    HW195991   1.571   7.925  12.310
64698SOL    HW295992   1.465   7.850  12.233
64699SOL     OW95993   3.046   3.343   7.209
64699SOL    HW195994   2.992   3.274   7.246
64699SOL    HW295995   2.984   3.400   7.163
64700SOL     OW95996  14.617  12.312   1.562
64700SOL    HW195997  14.583  12.385   1.613
64700SOL    HW295998  14.549  12.245   1.568
64701SOL     OW95999   7.484   8.186   6.859
64701SOL    HW196000   7.558   8.177   6.798
64701SOL    HW296001   7.412   8.217   6.804
64702SOL     OW96002  13.410   5.406   3.440
64702SOL    HW196003  13.347   5.474   3.463
64702SOL    HW296004  13.403   5.399   3.345
64703SOL     OW96005   6.832   3.724   8.390
64703SOL    HW196006   6.905   3.785   8.401
64703SOL    HW296007   6.803   3.736   8.300
64704SOL     OW96008   0.389   7.393  11.798
64704SOL    HW196009   0.372   7.323  11.735
64704SOL    HW296010   0.462   7.443  11.760
64705SOL     OW96011   7.536   2.354   0.896
64705SOL    HW196012   7.453   2.388   0.863
64705SOL    HW296013   7.511   2.284   0.957
64706SOL     OW96014   5.191  14.699  13.854
64706SOL    HW196015   5.282  14.727  13.853
64706SOL    HW296016   5.140  14.780  13.851
64707SOL     OW96017   0.663   9.451   3.843
64707SOL    HW196018   0.667   9.497   3.760
64707SOL    HW296019   0.753   9.423   3.859
64708SOL     OW96020   4.317   8.586   1.318
64708SOL    HW196021   4.311   8.682   1.319
64708SOL    HW296022   4.410   8.567   1.307
64709SOL     OW96023  10.569   5.958  11.308
64709SOL    HW196024  10.493   6.003  11.272
64709SOL    HW296025  10.639   6.023  11.306
64710SOL     OW96026   6.888   1.635  10.770
64710SOL    HW196027   6.896   1.557  10.823
64710SOL    HW296028   6.814   1.683  10.807
64711SOL     OW96029   7.121  12.069   0.574
64711SOL    HW196030   7.176  12.143   0.548
64711SOL    HW296031   7.183  12.000   0.598
64712SOL     OW96032  10.889  14.613   5.466
64712SOL    HW196033  10.902  14.638   5.374
64712SOL    HW296034  10.799  14.580   5.469
64713SOL     OW96035  14.737   4.286   0.833
64713SOL    HW196036  14.815   4.244   0.798
64713SOL    HW296037  14.683   4.214   0.865
64714SOL     OW96038   2.672   3.251   8.081
64714SOL    HW196039   2.719   3.281   8.003
64714SOL    HW296040   2.619   3.327   8.108
64715SOL     OW96041   2.703   7.474   2.384
64715SOL    HW196042   2.693   7.380   2.395
64715SOL    HW296043   2.645   7.512   2.450
64716SOL     OW96044  13.298   7.333   2.144
64716SOL    HW196045  13.266   7.417   2.112
64716SOL    HW296046  13.229   7.271   2.121
64717SOL     OW96047  13.349  10.401   5.211
64717SOL    HW196048  13.304  10.456   5.275
64717SOL    HW296049  13.440  10.399   5.241
64718SOL     OW96050  11.704   9.813  12.926
64718SOL    HW196051  11.722   9.895  12.880
64718SOL    HW296052  11.667   9.841  13.010
64719SOL     OW96053   7.744  13.858   2.259
64719SOL    HW196054   7.751  13.922   2.188
64719SOL    HW296055   7.650  13.845   2.270
64720SOL     OW96056   2.668  14.045   0.701
64720SOL    HW196057   2.628  14.118   0.654
64720SOL    HW296058   2.686  14.081   0.788
64721SOL     OW96059   7.189   7.676   8.889
64721SOL    HW196060   7.272   7.634   8.868
64721SOL    HW296061   7.176   7.741   8.820
64722SOL     OW96062   4.550   0.190  12.160
64722SOL    HW196063   4.628   0.142  12.134
64722SOL    HW296064   4.582   0.257  12.220
64723SOL     OW96065   8.992   1.976   4.972
64723SOL    HW196066   9.066   1.988   4.912
64723SOL    HW296067   8.987   1.881   4.986
64724SOL     OW96068   9.496   8.258   0.591
64724SOL    HW196069   9.494   8.241   0.497
64724SOL    HW296070   9.442   8.189   0.630
64725SOL     OW96071   3.061   4.055   7.584
64725SOL    HW196072   3.134   4.028   7.640
64725SOL    HW296073   3.041   3.978   7.531
64726SOL     OW96074  14.238   1.771   8.323
64726SOL    HW196075  14.184   1.850   8.333
64726SOL    HW296076  14.175   1.701   8.307
64727SOL     OW96077   2.750   0.525  12.757
64727SOL    HW196078   2.815   0.551  12.691
64727SOL    HW296079   2.678   0.586  12.744
64728SOL     OW96080   6.467   3.992  14.721
64728SOL    HW196081   6.470   4.076  14.766
64728SOL    HW296082   6.458   4.015  14.628
64729SOL     OW96083   1.719  11.084   3.231
64729SOL    HW196084   1.641  11.050   3.274
64729SOL    HW296085   1.757  11.145   3.295
64730SOL     OW96086   1.358  10.638   1.435
64730SOL    HW196087   1.417  10.672   1.368
64730SOL    HW296088   1.396  10.668   1.518
64731SOL     OW96089   5.941   8.388   9.006
64731SOL    HW196090   5.912   8.373   9.095
64731SOL    HW296091   5.863   8.370   8.952
64732SOL     OW96092  13.751  11.697   2.256
64732SOL    HW196093  13.772  11.785   2.224
64732SOL    HW296094  13.753  11.642   2.178
64733SOL     OW96095  10.530   8.015  12.618
64733SOL    HW196096  10.487   7.930  12.630
64733SOL    HW296097  10.574   8.032  12.702
64734SOL     OW96098   1.778  10.565   5.629
64734SOL    HW196099   1.721  10.493   5.654
64734SOL    HW296100   1.724  10.620   5.573
64735SOL     OW96101   1.686   1.416   9.575
64735SOL    HW196102   1.669   1.323   9.582
64735SOL    HW296103   1.731   1.439   9.657
64736SOL     OW96104  11.383   0.857   3.307
64736SOL    HW196105  11.373   0.948   3.280
64736SOL    HW296106  11.460   0.857   3.364
64737SOL     OW96107   1.820   8.855   1.468
64737SOL    HW196108   1.861   8.777   1.432
64737SOL    HW296109   1.788   8.829   1.555
64738SOL     OW96110   8.270   0.057  12.199
64738SOL    HW196111   8.219   0.052  12.119
64738SOL    HW296112   8.360   0.039  12.172
64739SOL     OW96113  13.177   0.756  12.445
64739SOL    HW196114  13.232   0.680  12.427
64739SOL    HW296115  13.215   0.796  12.523
64740SOL     OW96116   3.615  10.815   0.220
64740SOL    HW196117   3.623  10.761   0.141
64740SOL    HW296118   3.678  10.886   0.207
64741SOL     OW96119   5.565   3.501   5.166
64741SOL    HW196120   5.518   3.519   5.084
64741SOL    HW296121   5.657   3.520   5.146
64742SOL     OW96122  11.339   1.517   5.025
64742SOL    HW196123  11.435   1.525   5.030
64742SOL    HW296124  11.318   1.446   5.084
64743SOL     OW96125  11.974   0.081   0.310
64743SOL    HW196126  11.963  14.861   0.273
64743SOL    HW296127  11.900   0.130   0.277
64744SOL     OW96128  10.475   7.832  14.864
64744SOL    HW196129  10.408   7.768   0.017
64744SOL    HW296130  10.433   7.917   0.011
64745SOL     OW96131   8.323   8.059  12.175
64745SOL    HW196132   8.360   7.972  12.164
64745SOL    HW296133   8.240   8.056  12.128
64746SOL     OW96134   7.648  11.519   6.953
64746SOL    HW196135   7.559  11.533   6.984
64746SOL    HW296136   7.701  11.516   7.032
64747SOL     OW96137   0.546   5.890  10.332
64747SOL    HW196138   0.577   5.936  10.410
64747SOL    HW296139   0.620   5.891  10.272
64748SOL     OW96140  12.051   8.486   2.252
64748SOL    HW196141  12.097   8.428   2.314
64748SOL    HW296142  11.966   8.502   2.293
64749SOL     OW96143  10.296   3.163   1.078
64749SOL    HW196144  10.228   3.104   1.046
64749SOL    HW296145  10.342   3.112   1.144
64750SOL     OW96146   9.865   2.025   2.792
64750SOL    HW196147   9.882   2.044   2.699
64750SOL    HW296148   9.903   2.100   2.838
64751SOL     OW96149   0.153  12.736  12.658
64751SOL    HW196150   0.130  12.698  12.743
64751SOL    HW296151   0.069  12.759  12.619
64752SOL     OW96152   4.342   1.627   4.995
64752SOL    HW196153   4.418   1.685   4.993
64752SOL    HW296154   4.319   1.614   4.903
64753SOL     OW96155   9.074  10.945  11.808
64753SOL    HW196156   9.019  10.913  11.736
64753SOL    HW296157   9.012  10.975  11.874
64754SOL     OW96158   5.750   0.784  11.702
64754SOL    HW196159   5.657   0.769  11.685
64754SOL    HW296160   5.787   0.810  11.617
64755SOL     OW96161   4.546   4.505   0.259
64755SOL    HW196162   4.585   4.420   0.241
64755SOL    HW296163   4.620   4.566   0.256
64756SOL     OW96164   1.285  14.346   6.603
64756SOL    HW196165   1.296  14.437   6.576
64756SOL    HW296166   1.190  14.335   6.611
64757SOL     OW96167   5.087  10.867  13.582
64757SOL    HW196168   5.179  10.842  13.572
64757SOL    HW296169   5.075  10.940  13.521
64758SOL     OW96170  12.975   7.669   3.412
64758SOL    HW196171  12.913   7.676   3.484
64758SOL    HW296172  13.056   7.706   3.446
64759SOL     OW96173  13.929  14.220   9.887
64759SOL    HW196174  13.852  14.163   9.896
64759SOL    HW296175  13.914  14.268   9.806
64760SOL     OW96176   7.600   7.103   4.423
64760SOL    HW196177   7.631   7.175   4.368
64760SOL    HW296178   7.581   7.032   4.362
64761SOL     OW96179   6.317  12.734   0.645
64761SOL    HW196180   6.250  12.787   0.689
64761SOL    HW296181   6.382  12.716   0.714
64762SOL     OW96182   5.327   1.291   4.769
64762SOL    HW196183   5.287   1.318   4.687
64762SOL    HW296184   5.354   1.200   4.754
64763SOL     OW96185   4.345   8.867   3.867
64763SOL    HW196186   4.379   8.866   3.956
64763SOL    HW296187   4.261   8.821   3.873
64764SOL     OW96188   4.877   1.011   8.503
64764SOL    HW196189   4.953   1.066   8.482
64764SOL    HW296190   4.875   1.008   8.598
64765SOL     OW96191  12.867   9.527   3.631
64765SOL    HW196192  12.917   9.608   3.637
64765SOL    HW296193  12.916   9.464   3.683
64766SOL     OW96194  11.615   7.604  10.357
64766SOL    HW196195  11.658   7.689  10.360
64766SOL    HW296196  11.673   7.550  10.304
64767SOL     OW96197   2.285  12.583   0.858
64767SOL    HW196198   2.319  12.508   0.907
64767SOL    HW296199   2.355  12.606   0.796
64768SOL     OW96200  10.446  13.446   0.665
64768SOL    HW196201  10.380  13.427   0.732
64768SOL    HW296202  10.516  13.383   0.683
64769SOL     OW96203  13.597  12.833   3.576
64769SOL    HW196204  13.667  12.798   3.521
64769SOL    HW296205  13.518  12.826   3.522
64770SOL     OW96206   7.256  14.771   6.714
64770SOL    HW196207   7.266  14.691   6.767
64770SOL    HW296208   7.286  14.841   6.772
64771SOL     OW96209   8.114  12.966   7.374
64771SOL    HW196210   8.096  12.978   7.281
64771SOL    HW296211   8.198  13.010   7.389
64772SOL     OW96212  12.964  13.163  14.038
64772SOL    HW196213  13.028  13.191  14.103
64772SOL    HW296214  12.887  13.218  14.055
64773SOL     OW96215  14.795   1.436   8.941
64773SOL    HW196216  14.707   1.401   8.956
64773SOL    HW296217  14.789   1.528   8.968
64774SOL     OW96218   1.533   2.848  10.198
64774SOL    HW196219   1.614   2.898  10.201
64774SOL    HW296220   1.518   2.832  10.105
64775SOL     OW96221  10.676  11.206  12.642
64775SOL    HW196222  10.636  11.157  12.570
64775SOL    HW296223  10.745  11.258  12.600
64776SOL     OW96224   7.930   9.064   0.160
64776SOL    HW196225   7.900   9.068   0.251
64776SOL    HW296226   7.855   9.094   0.109
64777SOL     OW96227  14.633  10.814   9.378
64777SOL    HW196228  14.587  10.836   9.297
64777SOL    HW296229  14.723  10.796   9.350
64778SOL     OW96230   3.022   8.945   1.388
64778SOL    HW196231   3.044   9.038   1.385
64778SOL    HW296232   3.069   8.907   1.313
64779SOL     OW96233  12.250   8.967  13.028
64779SOL    HW196234  12.242   8.885  13.077
64779SOL    HW296235  12.165   9.009  13.036
64780SOL     OW96236   1.113   0.047   1.788
64780SOL    HW196237   1.190   0.088   1.748
64780SOL    HW296238   1.046   0.115   1.787
64781SOL     OW96239   4.520   3.406   1.715
64781SOL    HW196240   4.610   3.376   1.714
64781SOL    HW296241   4.509   3.445   1.802
64782SOL     OW96242   2.988   5.002  14.520
64782SOL    HW196243   3.041   5.076  14.492
64782SOL    HW296244   2.939   5.035  14.595
64783SOL     OW96245  14.509  13.458  11.155
64783SOL    HW196246  14.421  13.484  11.129
64783SOL    HW296247  14.503  13.364  11.170
64784SOL     OW96248   9.082  13.653   0.518
64784SOL    HW196249   9.121  13.586   0.463
64784SOL    HW296250   9.010  13.689   0.465
64785SOL     OW96251   4.956  13.480   0.144
64785SOL    HW196252   4.864  13.500   0.130
64785SOL    HW296253   4.956  13.407   0.206
64786SOL     OW96254   6.215  14.107   0.836
64786SOL    HW196255   6.160  14.109   0.915
64786SOL    HW296256   6.300  14.139   0.866
64787SOL     OW96257  11.105   6.977  11.791
64787SOL    HW196258  11.087   7.061  11.747
64787SOL    HW296259  11.150   7.001  11.871
64788SOL     OW96260   7.828   5.870   5.394
64788SOL    HW196261   7.804   5.784   5.429
64788SOL    HW296262   7.756   5.927   5.419
64789SOL     OW96263   9.924   0.861  10.805
64789SOL    HW196264   9.881   0.929  10.755
64789SOL    HW296265   9.900   0.779  10.762
64790SOL     OW96266   9.289   1.428   1.379
64790SOL    HW196267   9.287   1.508   1.327
64790SOL    HW296268   9.263   1.358   1.318
64791SOL     OW96269   4.345   2.366   1.341
64791SOL    HW196270   4.430   2.350   1.382
64791SOL    HW296271   4.345   2.311   1.263
64792SOL     OW96272   2.785   8.088   8.665
64792SOL    HW196273   2.712   8.042   8.624
64792SOL    HW296274   2.863   8.049   8.627
64793SOL     OW96275   2.675   6.647  12.764
64793SOL    HW196276   2.591   6.694  12.763
64793SOL    HW296277   2.659   6.568  12.712
64794SOL     OW96278   6.377   6.648   9.529
64794SOL    HW196279   6.453   6.623   9.477
64794SOL    HW296280   6.313   6.678   9.464
64795SOL     OW96281  12.433   9.878   1.629
64795SOL    HW196282  12.473   9.810   1.683
64795SOL    HW296283  12.367   9.918   1.686
64796SOL     OW96284   0.060  10.460  11.645
64796SOL    HW196285   0.117  10.522  11.690
64796SOL    HW296286   0.094  10.374  11.668
64797SOL     OW96287  10.760  11.050   6.339
64797SOL    HW196288  10.851  11.078   6.354
64797SOL    HW296289  10.707  11.113   6.389
64798SOL     OW96290   5.437  11.352   2.345
64798SOL    HW196291   5.465  11.309   2.425
64798SOL    HW296292   5.488  11.433   2.342
64799SOL     OW96293  10.418   3.214   4.059
64799SOL    HW196294  10.442   3.264   3.981
64799SOL    HW296295  10.500   3.171   4.086
64800SOL     OW96296   8.407  10.108  10.699
64800SOL    HW196297   8.434  10.194  10.665
64800SOL    HW296298   8.311  10.112  10.700
64801SOL     OW96299  10.622   1.071  12.722
64801SOL    HW196300  10.623   0.984  12.680
64801SOL    HW296301  10.545   1.114  12.685
64802SOL     OW96302   7.508   0.925   8.883
64802SOL    HW196303   7.515   0.946   8.790
64802SOL    HW296304   7.485   1.008   8.925
64803SOL     OW96305   7.405   2.192   5.931
64803SOL    HW196306   7.483   2.136   5.937
64803SOL    HW296307   7.349   2.162   6.003
64804SOL     OW96308   1.610   4.468   7.866
64804SOL    HW196309   1.650   4.525   7.932
64804SOL    HW296310   1.680   4.454   7.802
64805SOL     OW96311   8.568  14.806   6.980
64805SOL    HW196312   8.476  14.782   6.965
64805SOL    HW296313   8.603  14.734   7.033
64806SOL     OW96314   7.526   7.548   0.173
64806SOL    HW196315   7.546   7.642   0.170
64806SOL    HW296316   7.610   7.506   0.153
64807SOL     OW96317  10.734  12.154  10.570
64807SOL    HW196318  10.663  12.218  10.565
64807SOL    HW296319  10.810  12.200  10.536
64808SOL     OW96320   3.117  13.065  12.307
64808SOL    HW196321   3.048  13.028  12.362
64808SOL    HW296322   3.083  13.149  12.278
64809SOL     OW96323  13.120   5.816   9.826
64809SOL    HW196324  13.121   5.731   9.782
64809SOL    HW296325  13.027   5.836   9.838
64810SOL     OW96326   2.524   6.663   8.083
64810SOL    HW196327   2.452   6.690   8.140
64810SOL    HW296328   2.534   6.570   8.099
64811SOL     OW96329  10.809   4.353   9.147
64811SOL    HW196330  10.902   4.331   9.148
64811SOL    HW296331  10.764   4.271   9.170
64812SOL     OW96332   0.497   2.334  12.340
64812SOL    HW196333   0.436   2.340  12.266
64812SOL    HW296334   0.465   2.399  12.403
64813SOL     OW96335  13.379   1.096   0.527
64813SOL    HW196336  13.442   1.163   0.552
64813SOL    HW296337  13.413   1.060   0.445
64814SOL     OW96338   4.435  12.317   2.703
64814SOL    HW196339   4.399  12.358   2.781
64814SOL    HW296340   4.366  12.258   2.673
64815SOL     OW96341   0.777   6.738  11.012
64815SOL    HW196342   0.762   6.736  11.106
64815SOL    HW296343   0.696   6.707  10.973
64816SOL     OW96344  13.562  14.092  10.761
64816SOL    HW196345  13.559  14.178  10.718
64816SOL    HW296346  13.480  14.050  10.736
64817SOL     OW96347  12.345   6.768   3.267
64817SOL    HW196348  12.361   6.861   3.281
64817SOL    HW296349  12.395   6.724   3.335
64818SOL     OW96350   7.783  12.592  14.429
64818SOL    HW196351   7.861  12.622  14.384
64818SOL    HW296352   7.730  12.671  14.442
64819SOL     OW96353  11.258  13.304   8.821
64819SOL    HW196354  11.294  13.277   8.905
64819SOL    HW296355  11.172  13.341   8.842
64820SOL     OW96356   4.944   9.056  10.829
64820SOL    HW196357   4.870   8.995  10.835
64820SOL    HW296358   4.982   9.039  10.743
64821SOL     OW96359  12.578   0.300   4.405
64821SOL    HW196360  12.656   0.291   4.460
64821SOL    HW296361  12.516   0.348   4.459
64822SOL     OW96362   9.472  14.045  12.728
64822SOL    HW196363   9.540  13.978  12.727
64822SOL    HW296364   9.422  14.027  12.808
64823SOL     OW96365   9.710   2.252   5.382
64823SOL    HW196366   9.738   2.317   5.317
64823SOL    HW296367   9.644   2.298   5.434
64824SOL     OW96368   5.187   1.529   7.029
64824SOL    HW196369   5.264   1.584   7.013
64824SOL    HW296370   5.154   1.507   6.942
64825SOL     OW96371   3.067   7.286   3.414
64825SOL    HW196372   3.150   7.280   3.366
64825SOL    HW296373   3.009   7.334   3.356
64826SOL     OW96374   7.117   9.356   8.142
64826SOL    HW196375   7.135   9.325   8.231
64826SOL    HW296376   7.110   9.451   8.152
64827SOL     OW96377  13.061   2.596  14.104
64827SOL    HW196378  13.138   2.636  14.065
64827SOL    HW296379  13.029   2.536  14.037
64828SOL     OW96380   7.415  11.727  13.946
64828SOL    HW196381   7.443  11.738  14.037
64828SOL    HW296382   7.476  11.662  13.910
64829SOL     OW96383   0.581  11.129  10.519
64829SOL    HW196384   0.649  11.072  10.553
64829SOL    HW296385   0.502  11.074  10.517
64830SOL     OW96386   0.724   3.386   4.808
64830SOL    HW196387   0.649   3.350   4.761
64830SOL    HW296388   0.691   3.400   4.897
64831SOL     OW96389   4.015   9.985   0.609
64831SOL    HW196390   4.057   9.900   0.598
64831SOL    HW296391   4.032  10.031   0.526
64832SOL     OW96392  12.264  13.982   5.806
64832SOL    HW196393  12.231  13.952   5.891
64832SOL    HW296394  12.293  14.072   5.822
64833SOL     OW96395   5.659   9.527  14.362
64833SOL    HW196396   5.667   9.433  14.377
64833SOL    HW296397   5.588   9.554  14.421
64834SOL     OW96398   2.654   3.642  12.640
64834SOL    HW196399   2.592   3.611  12.574
64834SOL    HW296400   2.730   3.672  12.589
64835SOL     OW96401   3.493   3.531  12.446
64835SOL    HW196402   3.537   3.615  12.435
64835SOL    HW296403   3.464   3.531  12.538
64836SOL     OW96404   0.347   7.890   4.826
64836SOL    HW196405   0.353   7.957   4.758
64836SOL    HW296406   0.267   7.912   4.875
64837SOL     OW96407   0.477  12.445   4.678
64837SOL    HW196408   0.573  12.441   4.672
64837SOL    HW296409   0.450  12.353   4.669
64838SOL     OW96410   5.152   2.140   2.404
64838SOL    HW196411   5.081   2.190   2.444
64838SOL    HW296412   5.116   2.113   2.319
64839SOL     OW96413   6.992   0.100   0.794
64839SOL    HW196414   6.926   0.054   0.847
64839SOL    HW296415   6.974   0.073   0.704
64840SOL     OW96416  11.773  14.613   5.477
64840SOL    HW196417  11.687  14.648   5.503
64840SOL    HW296418  11.753  14.532   5.430
64841SOL     OW96419   8.514   9.065   0.977
64841SOL    HW196420   8.472   9.148   0.954
64841SOL    HW296421   8.519   9.016   0.895
64842SOL     OW96422   5.511  12.739   8.876
64842SOL    HW196423   5.416  12.747   8.884
64842SOL    HW296424   5.536  12.676   8.944
64843SOL     OW96425  10.378   2.000  10.001
64843SOL    HW196426  10.403   2.082  10.044
64843SOL    HW296427  10.366   2.024   9.909
64844SOL     OW96428  13.334  14.169   0.510
64844SOL    HW196429  13.332  14.094   0.570
64844SOL    HW296430  13.242  14.196   0.502
64845SOL     OW96431  11.785  14.734   9.753
64845SOL    HW196432  11.714  14.690   9.705
64845SOL    HW296433  11.783  14.825   9.721
64846SOL     OW96434   7.220   7.103   1.997
64846SOL    HW196435   7.138   7.100   2.046
64846SOL    HW296436   7.238   7.012   1.975
64847SOL     OW96437  12.090   7.831   6.019
64847SOL    HW196438  12.141   7.788   5.951
64847SOL    HW296439  12.107   7.924   6.006
64848SOL     OW96440   6.132   2.050   4.048
64848SOL    HW196441   6.123   1.966   4.001
64848SOL    HW296442   6.099   2.115   3.985
64849SOL     OW96443   1.433   7.855  11.721
64849SOL    HW196444   1.474   7.927  11.674
64849SOL    HW296445   1.484   7.778  11.698
64850SOL     OW96446   3.328  10.782   3.231
64850SOL    HW196447   3.309  10.689   3.244
64850SOL    HW296448   3.342  10.790   3.136
64851SOL     OW96449   0.935   1.526  12.549
64851SOL    HW196450   0.880   1.449  12.542
64851SOL    HW296451   1.000   1.516  12.480
64852SOL     OW96452   9.741  12.339  10.548
64852SOL    HW196453   9.687  12.343  10.627
64852SOL    HW296454   9.692  12.388  10.482
64853SOL     OW96455  13.184   2.461   5.140
64853SOL    HW196456  13.183   2.452   5.236
64853SOL    HW296457  13.152   2.550   5.124
64854SOL     OW96458  12.810   2.711  13.875
64854SOL    HW196459  12.901   2.729  13.853
64854SOL    HW296460  12.783   2.786  13.929
64855SOL     OW96461  14.854   4.043  14.473
64855SOL    HW196462   0.066   4.009  14.514
64855SOL    HW296463  14.783   3.994  14.514
64856SOL     OW96464   9.501   5.730   3.049
64856SOL    HW196465   9.443   5.770   3.114
64856SOL    HW296466   9.583   5.780   3.057
64857SOL     OW96467  12.917   6.177   2.766
64857SOL    HW196468  12.938   6.087   2.788
64857SOL    HW296469  12.974   6.230   2.822
64858SOL     OW96470   5.583   5.483   6.837
64858SOL    HW196471   5.573   5.556   6.897
64858SOL    HW296472   5.581   5.522   6.750
64859SOL     OW96473  11.887  10.798   5.142
64859SOL    HW196474  11.857  10.786   5.232
64859SOL    HW296475  11.867  10.715   5.098
64860SOL     OW96476   3.748   9.916  10.067
64860SOL    HW196477   3.777   9.957  10.148
64860SOL    HW296478   3.733   9.988  10.006
64861SOL     OW96479   1.422   5.763   6.019
64861SOL    HW196480   1.502   5.747   6.070
64861SOL    HW296481   1.357   5.704   6.057
64862SOL     OW96482  13.527  13.745   0.534
64862SOL    HW196483  13.495  13.803   0.602
64862SOL    HW296484  13.448  13.715   0.489
64863SOL     OW96485  13.434   6.743   3.541
64863SOL    HW196486  13.457   6.768   3.451
64863SOL    HW296487  13.515   6.756   3.590
64864SOL     OW96488   3.154   0.617  14.510
64864SOL    HW196489   3.191   0.552  14.451
64864SOL    HW296490   3.208   0.612  14.589
64865SOL     OW96491   7.248   6.646   6.669
64865SOL    HW196492   7.264   6.552   6.660
64865SOL    HW296493   7.333   6.684   6.688
64866SOL     OW96494   3.931   0.222   3.086
64866SOL    HW196495   3.885   0.301   3.114
64866SOL    HW296496   3.953   0.238   2.994
64867SOL     OW96497   3.905   2.529  12.778
64867SOL    HW196498   3.988   2.485  12.798
64867SOL    HW296499   3.920   2.571  12.693
64868SOL     OW96500   9.744   9.274  11.776
64868SOL    HW196501   9.780   9.193  11.740
64868SOL    HW296502   9.790   9.344  11.727
64869SOL     OW96503  11.587   7.884   2.908
64869SOL    HW196504  11.519   7.851   2.966
64869SOL    HW296505  11.654   7.920   2.967
64870SOL     OW96506  11.150  10.781   6.341
64870SOL    HW196507  11.207  10.852   6.310
64870SOL    HW296508  11.162  10.781   6.436
64871SOL     OW96509   6.622   2.825   3.793
64871SOL    HW196510   6.568   2.767   3.739
64871SOL    HW296511   6.602   2.913   3.761
64872SOL     OW96512   2.187   7.434   3.441
64872SOL    HW196513   2.250   7.454   3.511
64872SOL    HW296514   2.239   7.436   3.361
64873SOL     OW96515  12.146   3.134   0.862
64873SOL    HW196516  12.167   3.111   0.771
64873SOL    HW296517  12.125   3.228   0.858
64874SOL     OW96518   3.756  13.725   3.542
64874SOL    HW196519   3.683  13.667   3.518
64874SOL    HW296520   3.807  13.674   3.605
64875SOL     OW96521  10.703  14.155   2.933
64875SOL    HW196522  10.761  14.159   2.856
64875SOL    HW296523  10.687  14.246   2.956
64876SOL     OW96524  13.177   9.420  13.449
64876SOL    HW196525  13.269   9.438  13.466
64876SOL    HW296526  13.136   9.506  13.439
64877SOL     OW96527   8.631  10.873   9.325
64877SOL    HW196528   8.649  10.898   9.415
64877SOL    HW296529   8.676  10.789   9.313
64878SOL     OW96530  12.909  14.207  12.701
64878SOL    HW196531  12.820  14.171  12.697
64878SOL    HW296532  12.903  14.290  12.653
64879SOL     OW96533   8.370  12.787  13.560
64879SOL    HW196534   8.459  12.802  13.529
64879SOL    HW296535   8.322  12.758  13.482
64880SOL     OW96536   5.894   7.484   8.101
64880SOL    HW196537   5.868   7.563   8.053
64880SOL    HW296538   5.863   7.499   8.190
64881SOL     OW96539   7.574  10.247   0.276
64881SOL    HW196540   7.529  10.279   0.354
64881SOL    HW296541   7.659  10.218   0.308
64882SOL     OW96542   7.396  14.846  10.947
64882SOL    HW196543   7.335   0.024  11.005
64882SOL    HW296544   7.474   0.032  10.947
64883SOL     OW96545  10.003  11.208   4.305
64883SOL    HW196546  10.029  11.134   4.249
64883SOL    HW296547  10.029  11.286   4.255
64884SOL     OW96548   8.791   4.601  13.715
64884SOL    HW196549   8.843   4.597  13.634
64884SOL    HW296550   8.852   4.576  13.784
64885SOL     OW96551   8.868  12.197   5.243
64885SOL    HW196552   8.879  12.271   5.184
64885SOL    HW296553   8.882  12.120   5.188
64886SOL     OW96554   1.703  14.662  14.490
64886SOL    HW196555   1.657  14.586  14.456
64886SOL    HW296556   1.654  14.737  14.457
64887SOL     OW96557   8.661   6.587   3.650
64887SOL    HW196558   8.616   6.623   3.574
64887SOL    HW296559   8.601   6.521   3.685
64888SOL     OW96560   7.605   2.251   9.525
64888SOL    HW196561   7.518   2.255   9.566
64888SOL    HW296562   7.625   2.342   9.503
64889SOL     OW96563   3.239   3.121   6.800
64889SOL    HW196564   3.179   3.049   6.818
64889SOL    HW296565   3.201   3.166   6.725
64890SOL     OW96566   9.013   8.957   7.393
64890SOL    HW196567   9.042   8.989   7.308
64890SOL    HW296568   9.090   8.914   7.430
64891SOL     OW96569   9.014   3.094   5.731
64891SOL    HW196570   8.956   3.034   5.777
64891SOL    HW296571   8.988   3.181   5.761
64892SOL     OW96572   1.069   4.424   0.355
64892SOL    HW196573   0.978   4.446   0.377
64892SOL    HW296574   1.077   4.446   0.262
64893SOL     OW96575   9.171   1.762   3.694
64893SOL    HW196576   9.215   1.805   3.620
64893SOL    HW296577   9.078   1.782   3.682
64894SOL     OW96578  12.863   0.284  12.266
64894SOL    HW196579  12.818   0.318  12.188
64894SOL    HW296580  12.826   0.196  12.279
64895SOL     OW96581   1.491   1.083   4.316
64895SOL    HW196582   1.516   1.059   4.405
64895SOL    HW296583   1.429   1.156   4.327
64896SOL     OW96584   0.166   4.127  14.293
64896SOL    HW196585   0.094   4.143  14.354
64896SOL    HW296586   0.145   4.043  14.251
64897SOL     OW96587  11.697   4.355   8.354
64897SOL    HW196588  11.655   4.423   8.302
64897SOL    HW296589  11.716   4.398   8.438
64898SOL     OW96590   4.745   5.462   3.205
64898SOL    HW196591   4.784   5.444   3.291
64898SOL    HW296592   4.755   5.556   3.193
64899SOL     OW96593   1.083   2.322   9.361
64899SOL    HW196594   1.147   2.335   9.430
64899SOL    HW296595   1.045   2.409   9.346
64900SOL     OW96596   6.003   3.289  14.201
64900SOL    HW196597   6.066   3.361  14.208
64900SOL    HW296598   5.946   3.299  14.278
64901SOL     OW96599   5.438   9.560  10.609
64901SOL    HW196600   5.519   9.515  10.584
64901SOL    HW296601   5.441   9.642  10.561
64902SOL     OW96602   3.210  13.165  14.197
64902SOL    HW196603   3.183  13.073  14.195
64902SOL    HW296604   3.304  13.162  14.215
64903SOL     OW96605   8.964   2.790   9.787
64903SOL    HW196606   8.965   2.712   9.731
64903SOL    HW296607   9.026   2.770   9.856
64904SOL     OW96608   5.396  12.756   9.841
64904SOL    HW196609   5.301  12.760   9.844
64904SOL    HW296610   5.422  12.726   9.928
64905SOL     OW96611  10.928   0.990   5.565
64905SOL    HW196612  10.851   0.945   5.531
64905SOL    HW296613  10.994   0.980   5.496
64906SOL     OW96614   8.171  12.059  10.675
64906SOL    HW196615   8.167  12.130  10.612
64906SOL    HW296616   8.232  12.089  10.743
64907SOL     OW96617   5.264   6.624   6.278
64907SOL    HW196618   5.226   6.692   6.222
64907SOL    HW296619   5.200   6.613   6.348
64908SOL     OW96620   5.563  12.589   3.891
64908SOL    HW196621   5.503  12.517   3.868
64908SOL    HW296622   5.645  12.545   3.912
64909SOL     OW96623  13.986  10.764   6.269
64909SOL    HW196624  13.961  10.717   6.190
64909SOL    HW296625  13.995  10.855   6.240
64910SOL     OW96626  11.259   9.767   8.271
64910SOL    HW196627  11.226   9.709   8.339
64910SOL    HW296628  11.316   9.828   8.317
64911SOL     OW96629   7.455  11.757   8.535
64911SOL    HW196630   7.487  11.683   8.484
64911SOL    HW296631   7.365  11.769   8.507
64912SOL     OW96632   0.548  10.111   4.691
64912SOL    HW196633   0.458  10.125   4.662
64912SOL    HW296634   0.553  10.150   4.778
64913SOL     OW96635  14.228   3.435   0.461
64913SOL    HW196636  14.185   3.357   0.425
64913SOL    HW296637  14.188   3.447   0.547
64914SOL     OW96638   6.875  11.143   2.595
64914SOL    HW196639   6.851  11.194   2.517
64914SOL    HW296640   6.966  11.168   2.612
64915SOL     OW96641   7.115   3.148  14.623
64915SOL    HW196642   7.149   3.078  14.567
64915SOL    HW296643   7.115   3.110  14.711
64916SOL     OW96644  11.043  13.367   2.668
64916SOL    HW196645  11.088  13.284   2.685
64916SOL    HW296646  11.057  13.383   2.575
64917SOL     OW96647   3.225   8.200   3.584
64917SOL    HW196648   3.318   8.185   3.599
64917SOL    HW296649   3.181   8.148   3.651
64918SOL     OW96650  10.332   4.062   6.795
64918SOL    HW196651  10.337   4.075   6.700
64918SOL    HW296652  10.291   4.142   6.827
64919SOL     OW96653  14.025   6.118  12.934
64919SOL    HW196654  14.112   6.082  12.919
64919SOL    HW296655  14.039   6.193  12.992
64920SOL     OW96656   6.793   5.723   1.221
64920SOL    HW196657   6.700   5.710   1.198
64920SOL    HW296658   6.836   5.741   1.138
64921SOL     OW96659   8.062   9.327   6.030
64921SOL    HW196660   8.029   9.238   6.024
64921SOL    HW296661   8.023   9.372   5.955
64922SOL     OW96662   7.850   4.970   4.084
64922SOL    HW196663   7.870   5.037   4.149
64922SOL    HW296664   7.782   5.011   4.029
64923SOL     OW96665  14.551   7.390   2.008
64923SOL    HW196666  14.642   7.359   2.007
64923SOL    HW296667  14.557   7.480   2.040
64924SOL     OW96668   6.290   3.870  12.846
64924SOL    HW196669   6.316   3.820  12.769
64924SOL    HW296670   6.347   3.839  12.916
64925SOL     OW96671  14.712   3.344   9.939
64925SOL    HW196672  14.787   3.348   9.880
64925SOL    HW296673  14.706   3.431   9.978
64926SOL     OW96674  13.311   2.880   2.624
64926SOL    HW196675  13.307   2.788   2.648
64926SOL    HW296676  13.254   2.924   2.688
64927SOL     OW96677  14.451  11.022   2.366
64927SOL    HW196678  14.521  11.006   2.303
64927SOL    HW296679  14.418  11.109   2.344
64928SOL     OW96680   1.684  13.371  11.500
64928SOL    HW196681   1.603  13.421  11.501
64928SOL    HW296682   1.686  13.330  11.413
64929SOL     OW96683  12.610   3.417   6.433
64929SOL    HW196684  12.584   3.498   6.387
64929SOL    HW296685  12.705   3.413   6.422
64930SOL     OW96686   4.926   9.169   0.527
64930SOL    HW196687   5.011   9.161   0.569
64930SOL    HW296688   4.916   9.087   0.478
64931SOL     OW96689   0.078   9.754  11.878
64931SOL    HW196690   0.142   9.683  11.882
64931SOL    HW296691   0.006   9.719  11.825
64932SOL     OW96692   9.084  13.644  14.083
64932SOL    HW196693   9.153  13.696  14.125
64932SOL    HW296694   9.007  13.659  14.137
64933SOL     OW96695  13.777   9.539   9.871
64933SOL    HW196696  13.835   9.516   9.944
64933SOL    HW296697  13.784   9.634   9.864
64934SOL     OW96698  12.328  14.833   8.993
64934SOL    HW196699  12.371  14.793   9.069
64934SOL    HW296700  12.391  14.822   8.922
64935SOL     OW96701   6.861   7.017  14.380
64935SOL    HW196702   6.845   7.059  14.464
64935SOL    HW296703   6.784   6.960  14.367
64936SOL     OW96704   3.096  11.655   8.790
64936SOL    HW196705   3.006  11.686   8.783
64936SOL    HW296706   3.089  11.563   8.813
64937SOL     OW96707  11.900   8.782   8.782
64937SOL    HW196708  11.917   8.813   8.870
64937SOL    HW296709  11.983   8.745   8.752
64938SOL     OW96710   0.157  12.686  10.945
64938SOL    HW196711   0.233  12.726  10.987
64938SOL    HW296712   0.189  12.600  10.915
64939SOL     OW96713   8.267   5.212   0.331
64939SOL    HW196714   8.349   5.173   0.359
64939SOL    HW296715   8.214   5.220   0.410
64940SOL     OW96716  14.508   3.035   5.504
64940SOL    HW196717  14.521   2.940   5.497
64940SOL    HW296718  14.448   3.056   5.432
64941SOL     OW96719   8.874   1.860   9.383
64941SOL    HW196720   8.846   1.939   9.430
64941SOL    HW296721   8.955   1.886   9.339
64942SOL     OW96722   8.258   1.756  12.122
64942SOL    HW196723   8.187   1.816  12.100
64942SOL    HW296724   8.334   1.790  12.074
64943SOL     OW96725  13.965   8.157  11.421
64943SOL    HW196726  13.974   8.189  11.510
64943SOL    HW296727  13.882   8.108  11.422
64944SOL     OW96728   9.229  13.460   1.918
64944SOL    HW196729   9.225  13.489   2.010
64944SOL    HW296730   9.212  13.540   1.868
64945SOL     OW96731   8.794   9.591  14.309
64945SOL    HW196732   8.712   9.556  14.273
64945SOL    HW296733   8.789   9.572  14.402
64946SOL     OW96734  10.550   6.096   1.356
64946SOL    HW196735  10.620   6.032   1.342
64946SOL    HW296736  10.594   6.180   1.356
64947SOL     OW96737  11.543   1.690   6.295
64947SOL    HW196738  11.452   1.666   6.308
64947SOL    HW296739  11.540   1.777   6.255
64948SOL     OW96740   2.633   3.414   3.075
64948SOL    HW196741   2.593   3.342   3.123
64948SOL    HW296742   2.674   3.371   2.999
64949SOL     OW96743   2.079   4.984   2.136
64949SOL    HW196744   1.991   5.022   2.135
64949SOL    HW296745   2.067   4.897   2.174
64950SOL     OW96746   1.587   9.552   8.558
64950SOL    HW196747   1.511   9.609   8.567
64950SOL    HW296748   1.661   9.612   8.548
64951SOL     OW96749   3.793   5.015  11.311
64951SOL    HW196750   3.848   5.088  11.281
64951SOL    HW296751   3.810   4.944  11.249
64952SOL     OW96752  10.749  11.219   2.216
64952SOL    HW196753  10.732  11.246   2.126
64952SOL    HW296754  10.699  11.139   2.227
64953SOL     OW96755  13.499   8.108   1.600
64953SOL    HW196756  13.564   8.178   1.598
64953SOL    HW296757  13.415   8.153   1.611
64954SOL     OW96758   2.329  10.943   6.170
64954SOL    HW196759   2.381  11.021   6.152
64954SOL    HW296760   2.268  10.970   6.238
64955SOL     OW96761   0.811  12.742   2.933
64955SOL    HW196762   0.784  12.750   2.841
64955SOL    HW296763   0.873  12.814   2.946
64956SOL     OW96764   5.975   9.081   8.940
64956SOL    HW196765   5.906   9.115   8.883
64956SOL    HW296766   5.928   9.040   9.013
64957SOL     OW96767  10.517   0.993  14.221
64957SOL    HW196768  10.542   1.062  14.283
64957SOL    HW296769  10.463   0.933  14.272
64958SOL     OW96770   1.644   7.836  11.330
64958SOL    HW196771   1.644   7.914  11.385
64958SOL    HW296772   1.710   7.779  11.369
64959SOL     OW96773   5.342  11.920  14.172
64959SOL    HW196774   5.277  11.961  14.115
64959SOL    HW296775   5.290  11.866  14.232
64960SOL     OW96776  10.340   1.768  14.320
64960SOL    HW196777  10.327   1.681  14.282
64960SOL    HW296778  10.257   1.790  14.362
64961SOL     OW96779   6.438   6.259   9.284
64961SOL    HW196780   6.490   6.214   9.217
64961SOL    HW296781   6.359   6.205   9.293
64962SOL     OW96782  11.775   4.241  12.673
64962SOL    HW196783  11.719   4.258  12.749
64962SOL    HW296784  11.737   4.163  12.633
64963SOL     OW96785   7.220   0.931  11.267
64963SOL    HW196786   7.146   0.967  11.217
64963SOL    HW296787   7.238   0.997  11.334
64964SOL     OW96788   1.314  14.360   8.711
64964SOL    HW196789   1.404  14.330   8.726
64964SOL    HW296790   1.318  14.455   8.718
64965SOL     OW96791   8.107  13.904  14.755
64965SOL    HW196792   8.058  13.931  14.678
64965SOL    HW296793   8.128  13.986  14.801
64966SOL     OW96794   2.034   3.375   8.343
64966SOL    HW196795   2.056   3.448   8.401
64966SOL    HW296796   2.095   3.306   8.369
64967SOL     OW96797  12.299   4.542   9.817
64967SOL    HW196798  12.314   4.524   9.724
64967SOL    HW296799  12.217   4.591   9.819
64968SOL     OW96800   2.625  13.602   4.529
64968SOL    HW196801   2.709  13.563   4.557
64968SOL    HW296802   2.571  13.600   4.608
64969SOL     OW96803   5.449  10.568   1.336
64969SOL    HW196804   5.391  10.602   1.268
64969SOL    HW296805   5.390  10.529   1.401
64970SOL     OW96806   3.295  14.433   3.329
64970SOL    HW196807   3.380  14.470   3.304
64970SOL    HW296808   3.298  14.429   3.424
64971SOL     OW96809  12.087   4.168   3.253
64971SOL    HW196810  12.047   4.099   3.199
64971SOL    HW296811  12.020   4.190   3.317
64972SOL     OW96812   7.978   9.494   0.606
64972SOL    HW196813   8.011   9.583   0.591
64972SOL    HW296814   8.033   9.438   0.552
64973SOL     OW96815   7.283  10.695  11.338
64973SOL    HW196816   7.216  10.636  11.373
64973SOL    HW296817   7.363  10.668  11.383
64974SOL     OW96818   6.215   5.306   6.463
64974SOL    HW196819   6.257   5.236   6.513
64974SOL    HW296820   6.231   5.385   6.515
64975SOL     OW96821   1.655  11.739  12.758
64975SOL    HW196822   1.632  11.647  12.753
64975SOL    HW296823   1.700  11.749  12.842
64976SOL     OW96824   2.306  12.399  13.281
64976SOL    HW196825   2.217  12.429  13.297
64976SOL    HW296826   2.336  12.453  13.208
64977SOL     OW96827   4.834   1.250   3.392
64977SOL    HW196828   4.897   1.309   3.434
64977SOL    HW296829   4.863   1.245   3.301
64978SOL     OW96830   0.216   5.479   6.373
64978SOL    HW196831   0.208   5.555   6.317
64978SOL    HW296832   0.127   5.444   6.380
64979SOL     OW96833   0.354   7.650   6.913
64979SOL    HW196834   0.302   7.715   6.866
64979SOL    HW296835   0.364   7.686   7.001
64980SOL     OW96836   8.129   7.699   4.801
64980SOL    HW196837   8.197   7.732   4.743
64980SOL    HW296838   8.161   7.613   4.830
64981SOL     OW96839  13.345  12.311   1.481
64981SOL    HW196840  13.374  12.249   1.415
64981SOL    HW296841  13.286  12.370   1.433
64982SOL     OW96842   3.536  13.007  10.546
64982SOL    HW196843   3.574  13.093  10.560
64982SOL    HW296844   3.568  12.981  10.459
64983SOL     OW96845  12.544   1.485   9.786
64983SOL    HW196846  12.484   1.496   9.713
64983SOL    HW296847  12.601   1.412   9.759
64984SOL     OW96848  12.445   5.268   7.481
64984SOL    HW196849  12.375   5.284   7.545
64984SOL    HW296850  12.515   5.329   7.505
64985SOL     OW96851  11.974   3.074  14.382
64985SOL    HW196852  11.882   3.099  14.372
64985SOL    HW296853  11.996   3.099  14.472
64986SOL     OW96854  10.633  11.523  10.360
64986SOL    HW196855  10.593  11.541  10.446
64986SOL    HW296856  10.720  11.565  10.366
64987SOL     OW96857  11.651   6.888   6.458
64987SOL    HW196858  11.730   6.942   6.471
64987SOL    HW296859  11.601   6.935   6.392
64988SOL     OW96860  12.394   0.828  13.288
64988SOL    HW196861  12.394   0.811  13.382
64988SOL    HW296862  12.484   0.852  13.268
64989SOL     OW96863   2.420   9.559   6.408
64989SOL    HW196864   2.442   9.491   6.345
64989SOL    HW296865   2.433   9.518   6.494
64990SOL     OW96866   1.345  10.137   0.476
64990SOL    HW196867   1.268  10.194   0.474
64990SOL    HW296868   1.358  10.111   0.385
64991SOL     OW96869   8.187  12.889   8.592
64991SOL    HW196870   8.158  12.911   8.680
64991SOL    HW296871   8.240  12.964   8.564
64992SOL     OW96872  12.077   3.333   5.044
64992SOL    HW196873  12.102   3.425   5.055
64992SOL    HW296874  12.125   3.305   4.966
64993SOL     OW96875   9.141   0.710   1.086
64993SOL    HW196876   9.211   0.647   1.106
64993SOL    HW296877   9.098   0.724   1.170
64994SOL     OW96878  10.415   7.330   3.383
64994SOL    HW196879  10.399   7.414   3.340
64994SOL    HW296880  10.328   7.297   3.405
64995SOL     OW96881   8.271   0.492   2.039
64995SOL    HW196882   8.217   0.570   2.054
64995SOL    HW296883   8.323   0.484   2.120
64996SOL     OW96884  13.677   7.925   3.346
64996SOL    HW196885  13.582   7.937   3.355
64996SOL    HW296886  13.715   8.004   3.386
64997SOL     OW96887   4.996  10.922  11.438
64997SOL    HW196888   4.954  10.946  11.356
64997SOL    HW296889   4.940  10.960  11.506
64998SOL     OW96890   1.793  14.003   4.826
64998SOL    HW196891   1.748  13.930   4.785
64998SOL    HW296892   1.850  13.964   4.892
64999SOL     OW96893  14.721   4.588   1.388
64999SOL    HW196894  14.726   4.498   1.357
64999SOL    HW296895  14.655   4.586   1.457
65000SOL     OW96896   2.205   0.477  12.374
65000SOL    HW196897   2.130   0.468  12.432
65000SOL    HW296898   2.255   0.396  12.385
65001SOL     OW96899  13.860  14.737  10.703
65001SOL    HW196900  13.767  14.737  10.728
65001SOL    HW296901  13.902  14.678  10.766
65002SOL     OW96902   2.522   6.122  12.415
65002SOL    HW196903   2.611   6.154  12.426
65002SOL    HW296904   2.532   6.028  12.402
65003SOL     OW96905   8.095   7.120   0.111
65003SOL    HW196906   8.082   7.036   0.068
65003SOL    HW296907   8.185   7.117   0.142
65004SOL     OW96908  10.145  14.644  12.000
65004SOL    HW196909  10.059  14.654  11.960
65004SOL    HW296910  10.127  14.609  12.087
65005SOL     OW96911   5.063   5.422  12.028
65005SOL    HW196912   5.080   5.389  11.939
65005SOL    HW296913   4.967   5.424  12.035
65006SOL     OW96914   1.404   2.901  10.891
65006SOL    HW196915   1.386   2.848  10.969
65006SOL    HW296916   1.495   2.928  10.901
65007SOL     OW96917   8.659   6.104   9.508
65007SOL    HW196918   8.600   6.039   9.471
65007SOL    HW296919   8.634   6.110   9.600
65008SOL     OW96920   7.161   3.688  10.630
65008SOL    HW196921   7.081   3.640  10.608
65008SOL    HW296922   7.226   3.659  10.566
65009SOL     OW96923   6.823   5.008   4.240
65009SOL    HW196924   6.902   5.034   4.287
65009SOL    HW296925   6.804   4.920   4.271
65010SOL     OW96926   2.650   8.755   4.573
65010SOL    HW196927   2.667   8.746   4.479
65010SOL    HW296928   2.689   8.839   4.597
65011SOL     OW96929   2.062  12.638   3.628
65011SOL    HW196930   1.995  12.692   3.586
65011SOL    HW296931   2.047  12.649   3.722
65012SOL     OW96932   7.319  11.580   7.863
65012SOL    HW196933   7.330  11.503   7.807
65012SOL    HW296934   7.286  11.647   7.803
65013SOL     OW96935  14.372   8.882  13.803
65013SOL    HW196936  14.374   8.786  13.800
65013SOL    HW296937  14.345   8.909  13.716
65014SOL     OW96938   6.058  14.300   5.866
65014SOL    HW196939   6.095  14.241   5.932
65014SOL    HW296940   6.111  14.283   5.787
65015SOL     OW96941   7.117   2.190  13.322
65015SOL    HW196942   7.167   2.190  13.404
65015SOL    HW296943   7.113   2.281  13.296
65016SOL     OW96944   3.967  10.419   0.673
65016SOL    HW196945   4.007  10.388   0.755
65016SOL    HW296946   4.001  10.508   0.663
65017SOL     OW96947   2.415   2.713  13.578
65017SOL    HW196948   2.476   2.649  13.541
65017SOL    HW296949   2.377   2.668  13.654
65018SOL     OW96950   9.485   0.759   6.154
65018SOL    HW196951   9.553   0.694   6.136
65018SOL    HW296952   9.419   0.744   6.087
65019SOL     OW96953   2.401   9.430   3.071
65019SOL    HW196954   2.357   9.474   3.144
65019SOL    HW296955   2.416   9.341   3.102
65020SOL     OW96956   0.507  10.797   4.744
65020SOL    HW196957   0.419  10.776   4.775
65020SOL    HW296958   0.494  10.866   4.680
65021SOL     OW96959   2.979   2.561  10.249
65021SOL    HW196960   3.039   2.582  10.321
65021SOL    HW296961   2.926   2.489  10.283
65022SOL     OW96962   2.443   6.046  14.564
65022SOL    HW196963   2.423   6.089  14.481
65022SOL    HW296964   2.415   6.109  14.631
65023SOL     OW96965  11.780   2.477   3.995
65023SOL    HW196966  11.771   2.550   3.934
65023SOL    HW296967  11.858   2.497   4.046
65024SOL     OW96968   0.197   3.244  14.365
65024SOL    HW196969   0.215   3.262  14.273
65024SOL    HW296970   0.266   3.184  14.392
65025SOL     OW96971   0.338   5.412   1.077
65025SOL    HW196972   0.278   5.406   1.003
65025SOL    HW296973   0.373   5.323   1.087
65026SOL     OW96974  13.668   1.523   4.039
65026SOL    HW196975  13.655   1.530   4.134
65026SOL    HW296976  13.762   1.534   4.027
65027SOL     OW96977   1.544   9.056   6.140
65027SOL    HW196978   1.512   9.016   6.060
65027SOL    HW296979   1.501   9.142   6.143
65028SOL     OW96980   5.627   7.198   6.403
65028SOL    HW196981   5.638   7.289   6.430
65028SOL    HW296982   5.640   7.198   6.309
65029SOL     OW96983   7.405   2.589   6.450
65029SOL    HW196984   7.326   2.633   6.419
65029SOL    HW296985   7.433   2.639   6.526
65030SOL     OW96986   6.317   9.822  11.787
65030SOL    HW196987   6.348   9.886  11.851
65030SOL    HW296988   6.222   9.835  11.784
65031SOL     OW96989   3.013   6.182   5.354
65031SOL    HW196990   3.061   6.185   5.271
65031SOL    HW296991   3.055   6.248   5.409
65032SOL     OW96992   5.637   1.887   1.136
65032SOL    HW196993   5.636   1.972   1.092
65032SOL    HW296994   5.625   1.908   1.229
65033SOL     OW96995   5.014   2.080   2.178
65033SOL    HW196996   4.929   2.097   2.218
65033SOL    HW296997   5.036   2.162   2.132
65034SOL     OW96998   0.108   2.517   1.832
65034SOL    HW196999   0.030   2.525   1.778
65034SOL    HW297000   0.081   2.467   1.908
65035SOL     OW97001   5.164  11.409   3.988
65035SOL    HW197002   5.082  11.376   3.952
65035SOL    HW297003   5.207  11.332   4.026
65036SOL     OW97004   8.094  12.294  12.624
65036SOL    HW197005   8.029  12.361  12.605
65036SOL    HW297006   8.091  12.284  12.720
65037SOL     OW97007   8.217   8.649  14.640
65037SOL    HW197008   8.299   8.699  14.642
65037SOL    HW297009   8.162   8.696  14.577
65038SOL     OW97010   3.544  11.562   1.149
65038SOL    HW197011   3.483  11.515   1.208
65038SOL    HW297012   3.600  11.611   1.208
65039SOL     OW97013  10.301   5.019   4.055
65039SOL    HW197014  10.237   4.957   4.090
65039SOL    HW297015  10.273   5.104   4.089
65040SOL     OW97016  13.790   6.264   8.162
65040SOL    HW197017  13.719   6.302   8.110
65040SOL    HW297018  13.747   6.234   8.242
65041SOL     OW97019   4.867   7.204   2.424
65041SOL    HW197020   4.807   7.274   2.450
65041SOL    HW297021   4.909   7.177   2.506
65042SOL     OW97022   2.638   1.551   5.746
65042SOL    HW197023   2.665   1.633   5.704
65042SOL    HW297024   2.559   1.526   5.700
65043SOL     OW97025  11.150   5.061   2.619
65043SOL    HW197026  11.131   5.060   2.526
65043SOL    HW297027  11.132   5.151   2.647
65044SOL     OW97028  13.049   5.944   7.834
65044SOL    HW197029  13.082   6.032   7.817
65044SOL    HW297030  13.082   5.892   7.761
65045SOL     OW97031   5.538   6.192   5.164
65045SOL    HW197032   5.628   6.193   5.194
65045SOL    HW297033   5.542   6.158   5.075
65046SOL     OW97034   5.262  10.965   2.205
65046SOL    HW197035   5.183  10.950   2.256
65046SOL    HW297036   5.256  11.057   2.177
65047SOL     OW97037  12.978  12.616  13.245
65047SOL    HW197038  13.065  12.578  13.258
65047SOL    HW297039  12.926  12.546  13.206
65048SOL     OW97040   3.005  10.588   4.976
65048SOL    HW197041   3.041  10.509   4.935
65048SOL    HW297042   3.071  10.614   5.040
65049SOL     OW97043  11.079  14.413   5.324
65049SOL    HW197044  11.019  14.478   5.287
65049SOL    HW297045  11.153  14.412   5.263
65050SOL     OW97046   6.475   9.631  13.793
65050SOL    HW197047   6.548   9.571  13.809
65050SOL    HW297048   6.424   9.629  13.874
65051SOL     OW97049  10.865   6.647  14.338
65051SOL    HW197050  10.845   6.738  14.318
65051SOL    HW297051  10.795   6.597  14.296
65052SOL     OW97052  14.633   5.125  13.418
65052SOL    HW197053  14.609   5.129  13.326
65052SOL    HW297054  14.673   5.039  13.429
65053SOL     OW97055   8.509   1.319  12.722
65053SOL    HW197056   8.508   1.232  12.761
65053SOL    HW297057   8.563   1.310  12.644
65054SOL     OW97058   9.565  13.426  14.776
65054SOL    HW197059   9.646  13.412  14.825
65054SOL    HW297060   9.496  13.428  14.843
65055SOL     OW97061  10.186   2.427   3.100
65055SOL    HW197062  10.232   2.468   3.027
65055SOL    HW297063  10.194   2.490   3.172
65056SOL     OW97064  14.146   1.121  11.557
65056SOL    HW197065  14.173   1.086  11.472
65056SOL    HW297066  14.183   1.209  11.559
65057SOL     OW97067   7.231   9.135   6.796
65057SOL    HW197068   7.259   9.046   6.775
65057SOL    HW297069   7.145   9.144   6.754
65058SOL     OW97070  10.232  13.816   9.019
65058SOL    HW197071  10.301  13.793   9.082
65058SOL    HW297072  10.203  13.732   8.983
65059SOL     OW97073   6.992   5.476   6.710
65059SOL    HW197074   6.996   5.565   6.745
65059SOL    HW297075   6.913   5.475   6.656
65060SOL     OW97076   6.834   0.995   8.639
65060SOL    HW197077   6.788   0.915   8.614
65060SOL    HW297078   6.850   1.041   8.557
65061SOL     OW97079   7.565   2.894  11.205
65061SOL    HW197080   7.640   2.951  11.223
65061SOL    HW297081   7.489   2.948  11.225
65062SOL     OW97082   3.342   8.078   2.128
65062SOL    HW197083   3.291   8.027   2.065
65062SOL    HW297084   3.347   8.166   2.089
65063SOL     OW97085   3.129   0.818  13.410
65063SOL    HW197086   3.057   0.816  13.346
65063SOL    HW297087   3.087   0.841  13.493
65064SOL     OW97088  11.149   1.501   7.979
65064SOL    HW197089  11.108   1.426   7.936
65064SOL    HW297090  11.114   1.577   7.934
65065SOL     OW97091   8.314   6.933   9.179
65065SOL    HW197092   8.351   6.918   9.266
65065SOL    HW297093   8.312   7.028   9.169
65066SOL     OW97094  11.678  12.691  12.837
65066SOL    HW197095  11.638  12.612  12.802
65066SOL    HW297096  11.741  12.659  12.903
65067SOL     OW97097   9.207  14.722  10.246
65067SOL    HW197098   9.133  14.783  10.246
65067SOL    HW297099   9.176  14.647  10.297
65068SOL     OW97100  14.744   4.721  11.502
65068SOL    HW197101  14.709   4.634  11.520
65068SOL    HW297102  14.684   4.780  11.548
65069SOL     OW97103   3.270   0.414  14.375
65069SOL    HW197104   3.340   0.435  14.313
65069SOL    HW297105   3.213   0.354  14.326
65070SOL     OW97106   1.027  11.222  13.556
65070SOL    HW197107   1.027  11.166  13.479
65070SOL    HW297108   1.105  11.196  13.605
65071SOL     OW97109  13.950   1.547   9.789
65071SOL    HW197110  13.966   1.492   9.713
65071SOL    HW297111  14.010   1.621   9.779
65072SOL     OW97112   5.422   0.254   3.364
65072SOL    HW197113   5.495   0.261   3.425
65072SOL    HW297114   5.386   0.343   3.358
65073SOL     OW97115   1.979   5.171  12.695
65073SOL    HW197116   2.040   5.115  12.648
65073SOL    HW297117   1.947   5.117  12.767
65074SOL     OW97118  10.850  11.045   6.014
65074SOL    HW197119  10.922  10.996   6.054
65074SOL    HW297120  10.805  10.980   5.959
65075SOL     OW97121   2.496   4.091   8.278
65075SOL    HW197122   2.468   4.174   8.317
65075SOL    HW297123   2.484   4.027   8.348
65076SOL     OW97124   6.016  11.195  11.269
65076SOL    HW197125   5.994  11.194  11.362
65076SOL    HW297126   5.998  11.106  11.239
65077SOL     OW97127   6.147  14.453  10.350
65077SOL    HW197128   6.133  14.537  10.307
65077SOL    HW297129   6.086  14.452  10.424
65078SOL     OW97130  13.672   0.750   6.180
65078SOL    HW197131  13.652   0.795   6.262
65078SOL    HW297132  13.751   0.700   6.199
65079SOL     OW97133   9.882   5.336   9.368
65079SOL    HW197134   9.974   5.321   9.345
65079SOL    HW297135   9.871   5.431   9.363
65080SOL     OW97136   7.337  10.270   4.383
65080SOL    HW197137   7.390  10.259   4.304
65080SOL    HW297138   7.301  10.359   4.375
65081SOL     OW97139  13.056   2.389   6.730
65081SOL    HW197140  12.983   2.382   6.668
65081SOL    HW297141  13.019   2.434   6.806
65082SOL     OW97142  11.822   2.250   2.107
65082SOL    HW197143  11.733   2.276   2.081
65082SOL    HW297144  11.863   2.221   2.025
65083SOL     OW97145   9.961   4.512   8.860
65083SOL    HW197146  10.018   4.435   8.855
65083SOL    HW297147   9.887   4.491   8.803
65084SOL     OW97148   8.745  12.697  12.370
65084SOL    HW197149   8.656  12.667  12.352
65084SOL    HW297150   8.801  12.629  12.333
65085SOL     OW97151   6.739  14.422   5.655
65085SOL    HW197152   6.788  14.498   5.689
65085SOL    HW297153   6.739  14.435   5.560
65086SOL     OW97154   0.611  12.850   0.446
65086SOL    HW197155   0.571  12.913   0.505
65086SOL    HW297156   0.537  12.805   0.405
65087SOL     OW97157   3.865   6.633   8.838
65087SOL    HW197158   3.785   6.673   8.803
65087SOL    HW297159   3.846   6.618   8.931
65088SOL     OW97160   0.223   9.688   8.796
65088SOL    HW197161   0.152   9.628   8.817
65088SOL    HW297162   0.298   9.631   8.777
65089SOL     OW97163  13.774  14.169   2.384
65089SOL    HW197164  13.799  14.183   2.475
65089SOL    HW297165  13.820  14.237   2.335
65090SOL     OW97166   9.249   0.251   9.444
65090SOL    HW197167   9.218   0.237   9.533
65090SOL    HW297168   9.238   0.345   9.429
65091SOL     OW97169   4.266  13.381   2.108
65091SOL    HW197170   4.201  13.451   2.100
65091SOL    HW297171   4.349  13.427   2.122
65092SOL     OW97172   3.792   4.883  11.907
65092SOL    HW197173   3.825   4.835  11.983
65092SOL    HW297174   3.783   4.973  11.938
65093SOL     OW97175  12.317   7.186   2.291
65093SOL    HW197176  12.338   7.249   2.222
65093SOL    HW297177  12.385   7.119   2.286
65094SOL     OW97178  13.454  14.238  12.159
65094SOL    HW197179  13.524  14.202  12.105
65094SOL    HW297180  13.478  14.213  12.248
65095SOL     OW97181   2.762   8.302   3.217
65095SOL    HW197182   2.803   8.353   3.147
65095SOL    HW297183   2.691   8.358   3.249
65096SOL     OW97184  10.675   9.127   2.079
65096SOL    HW197185  10.590   9.095   2.047
65096SOL    HW297186  10.692   9.077   2.158
65097SOL     OW97187  13.466   4.306   5.695
65097SOL    HW197188  13.397   4.241   5.684
65097SOL    HW297189  13.420   4.390   5.700
65098SOL     OW97190  11.808   8.165   2.883
65098SOL    HW197191  11.730   8.136   2.835
65098SOL    HW297192  11.857   8.084   2.900
65099SOL     OW97193   9.918   7.312   2.928
65099SOL    HW197194   9.938   7.239   2.986
65099SOL    HW297195   9.893   7.272   2.845
65100SOL     OW97196   3.096   9.874   3.187
65100SOL    HW197197   3.015   9.829   3.210
65100SOL    HW297198   3.148   9.808   3.141
65101SOL     OW97199  11.719   4.007   6.144
65101SOL    HW197200  11.767   4.010   6.227
65101SOL    HW297201  11.722   4.097   6.112
65102SOL     OW97202  14.419   3.465  13.488
65102SOL    HW197203  14.396   3.439  13.398
65102SOL    HW297204  14.443   3.557  13.480
65103SOL     OW97205   9.457   1.808  14.509
65103SOL    HW197206   9.540   1.760  14.517
65103SOL    HW297207   9.427   1.818  14.600
65104SOL     OW97208   8.316  14.803  11.240
65104SOL    HW197209   8.247  14.835  11.182
65104SOL    HW297210   8.303  14.852  11.322
65105SOL     OW97211   0.683   8.010   2.848
65105SOL    HW197212   0.589   8.013   2.864
65105SOL    HW297213   0.698   8.075   2.779
65106SOL     OW97214   2.835   0.359   4.461
65106SOL    HW197215   2.928   0.336   4.465
65106SOL    HW297216   2.789   0.276   4.473
65107SOL     OW97217   5.725  11.660   7.962
65107SOL    HW197218   5.757  11.744   7.927
65107SOL    HW297219   5.650  11.684   8.016
65108SOL     OW97220   0.190   4.586   7.313
65108SOL    HW197221   0.096   4.593   7.295
65108SOL    HW297222   0.205   4.492   7.322
65109SOL     OW97223  12.223   7.569   0.463
65109SOL    HW197224  12.253   7.562   0.373
65109SOL    HW297225  12.183   7.657   0.469
65110SOL     OW97226  13.122   8.279  11.572
65110SOL    HW197227  13.097   8.191  11.600
65110SOL    HW297228  13.054   8.336  11.609
65111SOL     OW97229  10.831   5.099   0.238
65111SOL    HW197230  10.745   5.135   0.260
65111SOL    HW297231  10.821   5.066   0.149
65112SOL     OW97232   6.201   4.728  12.332
65112SOL    HW197233   6.272   4.788  12.353
65112SOL    HW297234   6.173   4.753  12.244
65113SOL     OW97235   7.330   2.299   8.882
65113SOL    HW197236   7.254   2.358   8.890
65113SOL    HW297237   7.405   2.353   8.907
65114SOL     OW97238   3.682   9.845   0.604
65114SOL    HW197239   3.722   9.819   0.687
65114SOL    HW297240   3.714   9.934   0.589
65115SOL     OW97241   3.542   4.369   2.838
65115SOL    HW197242   3.474   4.341   2.777
65115SOL    HW297243   3.508   4.347   2.925
65116SOL     OW97244   3.221  11.923   9.686
65116SOL    HW197245   3.149  11.859   9.689
65116SOL    HW297246   3.272  11.899   9.609
65117SOL     OW97247   3.913   6.538   0.674
65117SOL    HW197248   3.928   6.543   0.769
65117SOL    HW297249   3.915   6.444   0.655
65118SOL     OW97250   5.145  10.374  11.741
65118SOL    HW197251   5.129  10.457  11.696
65118SOL    HW297252   5.094  10.381  11.822
65119SOL     OW97253  10.609  10.376   5.429
65119SOL    HW197254  10.515  10.354   5.431
65119SOL    HW297255  10.639  10.361   5.518
65120SOL     OW97256  14.799   4.118  12.706
65120SOL    HW197257  14.845   4.135  12.624
65120SOL    HW297258  14.813   4.025  12.723
65121SOL     OW97259   7.910   7.985  11.722
65121SOL    HW197260   7.871   7.933  11.792
65121SOL    HW297261   7.837   8.005  11.663
65122SOL     OW97262   3.552  14.587  14.577
65122SOL    HW197263   3.475  14.541  14.544
65122SOL    HW297264   3.516  14.666  14.617
65123SOL     OW97265   2.246  12.229  10.588
65123SOL    HW197266   2.209  12.314  10.563
65123SOL    HW297267   2.340  12.245  10.596
65124SOL     OW97268   6.695  11.724  10.099
65124SOL    HW197269   6.611  11.710  10.145
65124SOL    HW297270   6.671  11.769  10.019
65125SOL     OW97271   1.478  12.031   9.166
65125SOL    HW197272   1.528  11.951   9.179
65125SOL    HW297273   1.442  12.052   9.252
65126SOL     OW97274  12.280   5.929   2.627
65126SOL    HW197275  12.231   5.886   2.697
65126SOL    HW297276  12.315   5.856   2.575
65127SOL     OW97277  10.221  14.316   3.021
65127SOL    HW197278  10.219  14.224   3.048
65127SOL    HW297279  10.140  14.352   3.056
65128SOL     OW97280  12.487   8.812   0.304
65128SOL    HW197281  12.570   8.806   0.258
65128SOL    HW297282  12.451   8.723   0.303
65129SOL     OW97283   8.823   6.680  14.525
65129SOL    HW197284   8.816   6.687  14.430
65129SOL    HW297285   8.819   6.586  14.542
65130SOL     OW97286   6.022  13.645   3.175
65130SOL    HW197287   5.987  13.676   3.092
65130SOL    HW297288   5.945  13.630   3.229
65131SOL     OW97289  10.700   4.708   2.838
65131SOL    HW197290  10.642   4.666   2.901
65131SOL    HW297291  10.758   4.762   2.892
65132SOL     OW97292  12.052   9.648  12.863
65132SOL    HW197293  12.096   9.620  12.943
65132SOL    HW297294  12.003   9.571  12.834
65133SOL     OW97295   9.539   4.928   3.082
65133SOL    HW197296   9.583   4.999   3.036
65133SOL    HW297297   9.610   4.868   3.107
65134SOL     OW97298  12.141   4.854   2.960
65134SOL    HW197299  12.048   4.835   2.950
65134SOL    HW297300  12.185   4.793   2.901
65135SOL     OW97301   7.302   3.051   9.276
65135SOL    HW197302   7.226   2.994   9.286
65135SOL    HW297303   7.276   3.115   9.210
65136SOL     OW97304   3.630  11.209  13.358
65136SOL    HW197305   3.715  11.167  13.365
65136SOL    HW297306   3.648  11.292  13.314
65137SOL     OW97307   4.510   6.483   9.286
65137SOL    HW197308   4.553   6.498   9.202
65137SOL    HW297309   4.459   6.403   9.273
65138SOL     OW97310   4.403   4.214  11.903
65138SOL    HW197311   4.368   4.275  11.838
65138SOL    HW297312   4.431   4.270  11.976
65139SOL     OW97313   3.539   3.950   3.788
65139SOL    HW197314   3.531   4.038   3.826
65139SOL    HW297315   3.627   3.921   3.812
65140SOL     OW97316   2.423   8.103   7.914
65140SOL    HW197317   2.389   8.016   7.892
65140SOL    HW297318   2.492   8.086   7.978
65141SOL     OW97319  14.271  14.378   7.211
65141SOL    HW197320  14.206  14.424   7.264
65141SOL    HW297321  14.332  14.446   7.183
65142SOL     OW97322   4.445   4.684  13.396
65142SOL    HW197323   4.493   4.601  13.391
65142SOL    HW297324   4.471   4.732  13.317
65143SOL     OW97325   4.433   5.330   8.453
65143SOL    HW197326   4.371   5.356   8.385
65143SOL    HW297327   4.421   5.396   8.522
65144SOL     OW97328   1.186   8.348   6.453
65144SOL    HW197329   1.187   8.396   6.370
65144SOL    HW297330   1.155   8.260   6.430
65145SOL     OW97331   2.503  14.012  10.440
65145SOL    HW197332   2.578  14.003  10.499
65145SOL    HW297333   2.458  13.928  10.445
65146SOL     OW97334   3.685   6.132  13.695
65146SOL    HW197335   3.722   6.077  13.626
65146SOL    HW297336   3.607   6.085  13.724
65147SOL     OW97337   0.497   5.227   1.368
65147SOL    HW197338   0.574   5.263   1.412
65147SOL    HW297339   0.517   5.233   1.275
65148SOL     OW97340   7.408   8.572   4.006
65148SOL    HW197341   7.319   8.551   3.977
65148SOL    HW297342   7.405   8.566   4.101
65149SOL     OW97343   3.306  13.082   2.438
65149SOL    HW197344   3.213  13.105   2.431
65149SOL    HW297345   3.305  12.994   2.475
65150SOL     OW97346  11.277   2.221   5.655
65150SOL    HW197347  11.366   2.254   5.660
65150SOL    HW297348  11.275   2.167   5.576
65151SOL     OW97349   2.569   3.669   3.691
65151SOL    HW197350   2.480   3.672   3.727
65151SOL    HW297351   2.612   3.747   3.727
65152SOL     OW97352   3.663   5.749  10.964
65152SOL    HW197353   3.604   5.710  11.029
65152SOL    HW297354   3.735   5.685  10.956
65153SOL     OW97355   7.338   7.493   9.937
65153SOL    HW197356   7.385   7.425   9.889
65153SOL    HW297357   7.322   7.562   9.873
65154SOL     OW97358  12.493   9.337   3.281
65154SOL    HW197359  12.487   9.430   3.301
65154SOL    HW297360  12.405   9.303   3.293
65155SOL     OW97361   4.912   1.339  13.380
65155SOL    HW197362   4.861   1.268  13.340
65155SOL    HW297363   4.888   1.336  13.473
65156SOL     OW97364  10.954   2.537   8.658
65156SOL    HW197365  11.030   2.531   8.716
65156SOL    HW297366  10.991   2.529   8.570
65157SOL     OW97367   7.948  14.227   8.417
65157SOL    HW197368   7.927  14.287   8.488
65157SOL    HW297369   8.038  14.201   8.433
65158SOL     OW97370   5.362   9.499   5.371
65158SOL    HW197371   5.334   9.413   5.401
65158SOL    HW297372   5.283   9.538   5.334
65159SOL     OW97373   8.105   5.754  10.111
65159SOL    HW197374   8.052   5.740  10.032
65159SOL    HW297375   8.188   5.710  10.091
65160SOL     OW97376   3.887  13.701   5.719
65160SOL    HW197377   3.942  13.641   5.771
65160SOL    HW297378   3.829  13.742   5.784
65161SOL     OW97379   4.188  14.389   3.025
65161SOL    HW197380   4.152  14.449   3.090
65161SOL    HW297381   4.179  14.303   3.065
65162SOL     OW97382  11.489  12.092   0.768
65162SOL    HW197383  11.396  12.094   0.745
65162SOL    HW297384  11.490  12.087   0.864
65163SOL     OW97385   2.299  13.992   6.694
65163SOL    HW197386   2.262  14.053   6.757
65163SOL    HW297387   2.292  14.038   6.610
65164SOL     OW97388   1.372  14.092   0.379
65164SOL    HW197389   1.373  13.997   0.375
65164SOL    HW297390   1.324  14.112   0.459
65165SOL     OW97391  13.323  10.565   9.125
65165SOL    HW197392  13.368  10.538   9.206
65165SOL    HW297393  13.389  10.554   9.056
65166SOL     OW97394   8.846   7.866   3.908
65166SOL    HW197395   8.856   7.941   3.850
65166SOL    HW297396   8.751   7.857   3.920
65167SOL     OW97397  14.096  12.573   2.046
65167SOL    HW197398  14.131  12.540   2.129
65167SOL    HW297399  14.152  12.648   2.025
65168SOL     OW97400   4.219   8.428  13.250
65168SOL    HW197401   4.264   8.488  13.309
65168SOL    HW297402   4.160   8.378  13.306
65169SOL     OW97403  13.349   8.227   9.903
65169SOL    HW197404  13.352   8.149   9.958
65169SOL    HW297405  13.257   8.253   9.903
65170SOL     OW97406   1.207  14.662  14.816
65170SOL    HW197407   1.139  14.710  14.865
65170SOL    HW297408   1.253  14.612   0.016
65171SOL     OW97409   3.256  11.704  11.788
65171SOL    HW197410   3.320  11.775  11.777
65171SOL    HW297411   3.221  11.691  11.700
65172SOL     OW97412   0.492   7.732   9.792
65172SOL    HW197413   0.549   7.753   9.866
65172SOL    HW297414   0.468   7.817   9.754
65173SOL     OW97415  10.237  13.106   9.903
65173SOL    HW197416  10.215  13.015   9.925
65173SOL    HW297417  10.154  13.144   9.874
65174SOL     OW97418   5.598   5.494   0.660
65174SOL    HW197419   5.547   5.541   0.726
65174SOL    HW297420   5.689   5.510   0.683
65175SOL     OW97421   3.950   7.788  14.427
65175SOL    HW197422   4.019   7.727  14.454
65175SOL    HW297423   3.958   7.862  14.487
65176SOL     OW97424   7.611  11.021  10.996
65176SOL    HW197425   7.595  10.927  10.990
65176SOL    HW297426   7.525  11.061  10.987
65177SOL     OW97427   6.402  13.000   9.512
65177SOL    HW197428   6.474  13.019   9.452
65177SOL    HW297429   6.436  12.929   9.567
65178SOL     OW97430   2.756  14.546   9.085
65178SOL    HW197431   2.737  14.460   9.048
65178SOL    HW297432   2.699  14.553   9.161
65179SOL     OW97433  14.843  10.747  13.595
65179SOL    HW197434  14.830  10.792  13.678
65179SOL    HW297435  14.758  10.709  13.574
65180SOL     OW97436   4.828  12.391   7.533
65180SOL    HW197437   4.861  12.303   7.518
65180SOL    HW297438   4.886  12.448   7.482
65181SOL     OW97439   1.699   9.145  14.416
65181SOL    HW197440   1.793   9.158  14.410
65181SOL    HW297441   1.666   9.223  14.460
65182SOL     OW97442   0.785  13.358   9.442
65182SOL    HW197443   0.712  13.324   9.389
65182SOL    HW297444   0.847  13.392   9.377
65183SOL     OW97445   0.213  10.931   9.194
65183SOL    HW197446   0.147  10.863   9.201
65183SOL    HW297447   0.167  11.012   9.219
65184SOL     OW97448  11.207   0.248   1.276
65184SOL    HW197449  11.236   0.250   1.185
65184SOL    HW297450  11.287   0.241   1.327
65185SOL     OW97451  12.925  11.584   8.474
65185SOL    HW197452  12.868  11.549   8.404
65185SOL    HW297453  12.865  11.626   8.535
65186SOL     OW97454   0.625   2.583  14.208
65186SOL    HW197455   0.585   2.613  14.289
65186SOL    HW297456   0.641   2.490  14.222
65187SOL     OW97457   3.538   2.190   2.177
65187SOL    HW197458   3.516   2.255   2.244
65187SOL    HW297459   3.544   2.241   2.096
65188SOL     OW97460   3.216   5.975  13.898
65188SOL    HW197461   3.139   6.009  13.944
65188SOL    HW297462   3.228   5.887  13.934
65189SOL     OW97463  14.378   4.834  14.085
65189SOL    HW197464  14.360   4.907  14.145
65189SOL    HW297465  14.360   4.756  14.137
65190SOL     OW97466  11.728  11.279   7.067
65190SOL    HW197467  11.645  11.324   7.052
65190SOL    HW297468  11.703  11.193   7.100
65191SOL     OW97469  14.273   2.247  13.897
65191SOL    HW197470  14.329   2.308  13.945
65191SOL    HW297471  14.193   2.296  13.880
65192SOL     OW97472  11.205   7.816   0.051
65192SOL    HW197473  11.126   7.847   0.007
65192SOL    HW297474  11.276   7.839  14.858
65193SOL     OW97475   2.551   4.769  13.482
65193SOL    HW197476   2.600   4.688  13.497
65193SOL    HW297477   2.502   4.753  13.401
65194SOL     OW97478   6.115   4.091  11.820
65194SOL    HW197479   6.176   4.099  11.746
65194SOL    HW297480   6.137   4.165  11.877
65195SOL     OW97481   1.823   2.727   1.712
65195SOL    HW197482   1.758   2.671   1.670
65195SOL    HW297483   1.795   2.816   1.690
65196SOL     OW97484   4.551   9.153   1.379
65196SOL    HW197485   4.496   9.231   1.377
65196SOL    HW297486   4.520   9.103   1.455
65197SOL     OW97487   9.167  11.195   0.630
65197SOL    HW197488   9.085  11.211   0.678
65197SOL    HW297489   9.187  11.279   0.589
65198SOL     OW97490   1.217   2.435  14.131
65198SOL    HW197491   1.273   2.422  14.055
65198SOL    HW297492   1.130   2.448  14.094
65199SOL     OW97493   7.694   5.059   6.965
65199SOL    HW197494   7.624   5.083   7.026
65199SOL    HW297495   7.724   5.142   6.929
65200SOL     OW97496  10.988   8.743   3.276
65200SOL    HW197497  11.052   8.738   3.205
65200SOL    HW297498  11.005   8.827   3.318
65201SOL     OW97499   7.418   6.454   9.196
65201SOL    HW197500   7.491   6.504   9.160
65201SOL    HW297501   7.400   6.494   9.281
65202SOL     OW97502  11.843   6.506   0.325
65202SOL    HW197503  11.843   6.558   0.244
65202SOL    HW297504  11.935   6.488   0.342
65203SOL     OW97505   6.043   1.356   0.005
65203SOL    HW197506   6.061   1.445  14.842
65203SOL    HW297507   6.061   1.360   0.099
65204SOL     OW97508  11.836   7.447   6.631
65204SOL    HW197509  11.843   7.531   6.585
65204SOL    HW297510  11.791   7.468   6.713
65205SOL     OW97511  14.220   6.175   7.546
65205SOL    HW197512  14.209   6.089   7.506
65205SOL    HW297513  14.181   6.236   7.483
65206SOL     OW97514   0.621   4.964   5.581
65206SOL    HW197515   0.631   5.044   5.529
65206SOL    HW297516   0.549   4.918   5.539
65207SOL     OW97517   7.690  12.494   4.047
65207SOL    HW197518   7.688  12.551   4.124
65207SOL    HW297519   7.705  12.553   3.974
65208SOL     OW97520   6.570   0.479   9.904
65208SOL    HW197521   6.489   0.495   9.856
65208SOL    HW297522   6.612   0.565   9.909
65209SOL     OW97523   2.807   6.535   6.727
65209SOL    HW197524   2.774   6.492   6.806
65209SOL    HW297525   2.728   6.567   6.682
65210SOL     OW97526   1.073  13.908   2.515
65210SOL    HW197527   1.138  13.951   2.570
65210SOL    HW297528   1.007  13.875   2.576
65211SOL     OW97529   9.637  10.257   2.972
65211SOL    HW197530   9.572  10.198   2.935
65211SOL    HW297531   9.714  10.202   2.986
65212SOL     OW97532   9.289  11.579   2.107
65212SOL    HW197533   9.310  11.505   2.051
65212SOL    HW297534   9.205  11.611   2.074
65213SOL     OW97535   9.740   0.288   0.390
65213SOL    HW197536   9.746   0.284   0.485
65213SOL    HW297537   9.830   0.306   0.361
65214SOL     OW97538  11.975   0.967   6.972
65214SOL    HW197539  12.053   0.946   6.920
65214SOL    HW297540  11.904   0.922   6.926
65215SOL     OW97541   6.573  13.498   9.859
65215SOL    HW197542   6.585  13.449   9.939
65215SOL    HW297543   6.622  13.580   9.873
65216SOL     OW97544   8.202   4.019  11.981
65216SOL    HW197545   8.256   4.075  12.037
65216SOL    HW297546   8.204   4.061  11.895
65217SOL     OW97547   1.914  10.998   0.739
65217SOL    HW197548   1.927  11.092   0.745
65217SOL    HW297549   1.958  10.962   0.816
65218SOL     OW97550   4.257  13.810  14.635
65218SOL    HW197551   4.281  13.717  14.636
65218SOL    HW297552   4.164  13.812  14.658
65219SOL     OW97553   4.016   8.763  12.057
65219SOL    HW197554   3.959   8.778  11.982
65219SOL    HW297555   4.101   8.797  12.029
65220SOL     OW97556   7.361  10.151  13.000
65220SOL    HW197557   7.377  10.123  13.090
65220SOL    HW297558   7.440  10.197  12.974
65221SOL     OW97559  12.756   9.906  13.089
65221SOL    HW197560  12.711   9.979  13.132
65221SOL    HW297561  12.819   9.948  13.029
65222SOL     OW97562   2.474   1.252   7.438
65222SOL    HW197563   2.554   1.206   7.413
65222SOL    HW297564   2.457   1.223   7.527
65223SOL     OW97565  14.685   1.127   1.662
65223SOL    HW197566  14.652   1.051   1.710
65223SOL    HW297567  14.757   1.159   1.716
65224SOL     OW97568  12.218   9.576  10.722
65224SOL    HW197569  12.233   9.529  10.804
65224SOL    HW297570  12.144   9.634  10.741
65225SOL     OW97571   5.426  11.442   7.117
65225SOL    HW197572   5.455  11.530   7.141
65225SOL    HW297573   5.432  11.439   7.021
65226SOL     OW97574   3.274  13.819   8.786
65226SOL    HW197575   3.289  13.912   8.806
65226SOL    HW297576   3.197  13.819   8.729
65227SOL     OW97577   6.057   2.566   7.715
65227SOL    HW197578   6.121   2.601   7.776
65227SOL    HW297579   5.977   2.616   7.732
65228SOL     OW97580   0.007   1.411   7.656
65228SOL    HW197581   0.008   1.494   7.703
65228SOL    HW297582   0.063   1.426   7.580
65229SOL     OW97583   6.822   1.185   6.756
65229SOL    HW197584   6.874   1.143   6.825
65229SOL    HW297585   6.860   1.273   6.748
65230SOL     OW97586   4.712  11.615  14.865
65230SOL    HW197587   4.647  11.607   0.066
65230SOL    HW297588   4.704  11.535  14.814
65231SOL     OW97589   3.053   3.174  12.437
65231SOL    HW197590   3.048   3.268  12.426
65231SOL    HW297591   3.146   3.156  12.454
65232SOL     OW97592  10.633   9.496  13.886
65232SOL    HW197593  10.552   9.467  13.843
65232SOL    HW297594  10.603   9.531  13.970
65233SOL     OW97595   9.114   2.213   0.820
65233SOL    HW197596   9.051   2.195   0.750
65233SOL    HW297597   9.062   2.256   0.888
65234SOL     OW97598   3.583   2.019   9.517
65234SOL    HW197599   3.636   2.000   9.440
65234SOL    HW297600   3.492   2.012   9.487
65235SOL     OW97601   4.429   2.349  13.007
65235SOL    HW197602   4.455   2.346  13.099
65235SOL    HW297603   4.342   2.310  13.005
65236SOL     OW97604   1.064   5.826  11.588
65236SOL    HW197605   1.153   5.792  11.598
65236SOL    HW297606   1.014   5.751  11.556
65237SOL     OW97607   4.831  10.771   2.520
65237SOL    HW197608   4.899  10.705   2.504
65237SOL    HW297609   4.750  10.729   2.491
65238SOL     OW97610  11.438   4.969  13.313
65238SOL    HW197611  11.517   4.976  13.366
65238SOL    HW297612  11.450   5.032  13.242
65239SOL     OW97613   7.257   6.379   6.586
65239SOL    HW197614   7.172   6.368   6.544
65239SOL    HW297615   7.305   6.299   6.565
65240SOL     OW97616   7.208   9.983   4.461
65240SOL    HW197617   7.263   9.928   4.516
65240SOL    HW297618   7.268  10.024   4.399
65241SOL     OW97619   8.053   2.945   6.538
65241SOL    HW197620   8.013   2.977   6.456
65241SOL    HW297621   8.145   2.930   6.515
65242SOL     OW97622   7.767  11.031   2.581
65242SOL    HW197623   7.744  10.984   2.661
65242SOL    HW297624   7.809  11.112   2.611
65243SOL     OW97625   0.336   0.793  13.660
65243SOL    HW197626   0.280   0.833  13.594
65243SOL    HW297627   0.396   0.738  13.611
65244SOL     OW97628   3.055   7.473   8.090
65244SOL    HW197629   3.075   7.557   8.047
65244SOL    HW297630   3.125   7.414   8.060
65245SOL     OW97631  13.603  11.886  10.364
65245SOL    HW197632  13.660  11.811  10.349
65245SOL    HW297633  13.560  11.868  10.447
65246SOL     OW97634   8.525   3.117  12.614
65246SOL    HW197635   8.522   3.055  12.542
65246SOL    HW297636   8.483   3.071  12.687
65247SOL     OW97637   5.925   3.809   1.985
65247SOL    HW197638   5.862   3.742   1.957
65247SOL    HW297639   5.976   3.829   1.907
65248SOL     OW97640   0.707   7.546   8.207
65248SOL    HW197641   0.630   7.593   8.175
65248SOL    HW297642   0.673   7.459   8.230
65249SOL     OW97643   6.993   3.778   4.076
65249SOL    HW197644   7.080   3.802   4.108
65249SOL    HW297645   6.967   3.852   4.021
65250SOL     OW97646   3.902   4.540   3.155
65250SOL    HW197647   3.859   4.598   3.092
65250SOL    HW297648   3.886   4.581   3.240
65251SOL     OW97649   3.917  10.727  13.743
65251SOL    HW197650   3.837  10.748  13.695
65251SOL    HW297651   3.961  10.660  13.690
65252SOL     OW97652  10.412   3.966  13.158
65252SOL    HW197653  10.416   3.881  13.202
65252SOL    HW297654  10.341   3.956  13.094
65253SOL     OW97655   0.224  13.747  14.757
65253SOL    HW197656   0.237  13.787  14.672
65253SOL    HW297657   0.233  13.653  14.742
65254SOL     OW97658   3.092   0.904   9.307
65254SOL    HW197659   3.033   0.943   9.242
65254SOL    HW297660   3.179   0.936   9.282
65255SOL     OW97661   5.861  12.240   0.589
65255SOL    HW197662   5.921  12.314   0.586
65255SOL    HW297663   5.778  12.275   0.558
65256SOL     OW97664   3.248  12.552  11.994
65256SOL    HW197665   3.180  12.487  12.010
65256SOL    HW297666   3.321  12.502  11.957
65257SOL     OW97667   0.570  10.637   2.441
65257SOL    HW197668   0.609  10.555   2.471
65257SOL    HW297669   0.634  10.704   2.465
65258SOL     OW97670   5.305   8.346  13.074
65258SOL    HW197671   5.258   8.262  13.071
65258SOL    HW297672   5.332   8.355  13.165
65259SOL     OW97673   5.564   7.582   2.778
65259SOL    HW197674   5.577   7.677   2.770
65259SOL    HW297675   5.598   7.546   2.697
65260SOL     OW97676  10.358   6.894   2.992
65260SOL    HW197677  10.394   6.833   3.056
65260SOL    HW297678  10.434   6.922   2.940
65261SOL     OW97679  12.414   2.548   4.297
65261SOL    HW197680  12.422   2.513   4.386
65261SOL    HW297681  12.320   2.567   4.288
65262SOL     OW97682   3.949   6.232   5.522
65262SOL    HW197683   3.940   6.203   5.432
65262SOL    HW297684   3.977   6.154   5.570
65263SOL     OW97685   9.771   1.883  10.155
65263SOL    HW197686   9.820   1.875  10.073
65263SOL    HW297687   9.696   1.938  10.133
65264SOL     OW97688   9.623  14.571   9.208
65264SOL    HW197689   9.622  14.659   9.168
65264SOL    HW297690   9.650  14.513   9.137
65265SOL     OW97691   6.007   7.772  10.568
65265SOL    HW197692   5.912   7.774  10.561
65265SOL    HW297693   6.026   7.688  10.611
65266SOL     OW97694   0.155   5.174   2.721
65266SOL    HW197695   0.203   5.158   2.640
65266SOL    HW297696   0.217   5.152   2.790
65267SOL     OW97697  11.616   0.698   3.098
65267SOL    HW197698  11.634   0.741   3.182
65267SOL    HW297699  11.661   0.752   3.033
65268SOL     OW97700   9.627  11.190  11.162
65268SOL    HW197701   9.682  11.170  11.086
65268SOL    HW297702   9.543  11.148  11.143
65269SOL     OW97703   1.435  13.973  12.736
65269SOL    HW197704   1.508  13.914  12.755
65269SOL    HW297705   1.454  14.052  12.787
65270SOL     OW97706  10.300  12.542   7.438
65270SOL    HW197707  10.337  12.594   7.510
65270SOL    HW297708  10.355  12.562   7.363
65271SOL     OW97709   5.373   7.585  10.168
65271SOL    HW197710   5.367   7.600  10.074
65271SOL    HW297711   5.426   7.505  10.176
65272SOL     OW97712   3.338  11.789   4.954
65272SOL    HW197713   3.243  11.783   4.945
65272SOL    HW297714   3.366  11.700   4.976
65273SOL     OW97715  12.635  11.696  14.012
65273SOL    HW197716  12.660  11.611  14.047
65273SOL    HW297717  12.640  11.755  14.087
65274SOL     OW97718   5.775  12.643  14.807
65274SOL    HW197719   5.831  12.566  14.811
65274SOL    HW297720   5.697  12.619  14.858
65275SOL     OW97721   4.596   0.807  12.821
65275SOL    HW197722   4.688   0.808  12.796
65275SOL    HW297723   4.558   0.734  12.773
65276SOL     OW97724   9.258  12.735  11.673
65276SOL    HW197725   9.342  12.743  11.628
65276SOL    HW297726   9.271  12.663  11.735
65277SOL     OW97727   9.111   4.659   9.608
65277SOL    HW197728   9.066   4.712   9.542
65277SOL    HW297729   9.144   4.584   9.559
65278SOL     OW97730   6.535   7.615  13.516
65278SOL    HW197731   6.441   7.600  13.504
65278SOL    HW297732   6.570   7.532  13.548
65279SOL     OW97733  13.686   2.275   5.165
65279SOL    HW197734  13.677   2.182   5.186
65279SOL    HW297735  13.759   2.305   5.219
65280SOL     OW97736  10.820  13.204  14.383
65280SOL    HW197737  10.735  13.238  14.410
65280SOL    HW297738  10.851  13.265  14.315
65281SOL     OW97739   8.983  13.324   4.310
65281SOL    HW197740   8.952  13.410   4.282
65281SOL    HW297741   9.024  13.287   4.231
65282SOL     OW97742   9.167  10.104   1.792
65282SOL    HW197743   9.176  10.146   1.707
65282SOL    HW297744   9.132  10.017   1.772
65283SOL     OW97745  12.926   8.483  14.765
65283SOL    HW197746  12.987   8.556  14.758
65283SOL    HW297747  12.972   8.417  14.816
65284SOL     OW97748  13.919  10.299  13.995
65284SOL    HW197749  13.867  10.248  13.934
65284SOL    HW297750  13.981  10.236  14.032
65285SOL     OW97751   3.902   7.819   4.282
65285SOL    HW197752   3.881   7.727   4.299
65285SOL    HW297753   3.947   7.849   4.361
65286SOL     OW97754  12.707  10.963   7.861
65286SOL    HW197755  12.748  10.894   7.809
65286SOL    HW297756  12.748  11.044   7.832
65287SOL     OW97757   3.399   3.094   5.419
65287SOL    HW197758   3.446   3.157   5.474
65287SOL    HW297759   3.388   3.139   5.335
65288SOL     OW97760   4.113   0.806   4.359
65288SOL    HW197761   4.102   0.730   4.416
65288SOL    HW297762   4.037   0.861   4.376
65289SOL     OW97763   2.201   8.982  14.354
65289SOL    HW197764   2.200   8.940  14.440
65289SOL    HW297765   2.257   9.059  14.365
65290SOL     OW97766   3.594   1.538   3.375
65290SOL    HW197767   3.656   1.572   3.440
65290SOL    HW297768   3.580   1.447   3.401
65291SOL     OW97769  12.131  12.448   1.229
65291SOL    HW197770  12.211  12.417   1.272
65291SOL    HW297771  12.158  12.468   1.140
65292SOL     OW97772   2.044   4.031   8.051
65292SOL    HW197773   2.134   4.042   8.084
65292SOL    HW297774   1.990   4.031   8.130
65293SOL     OW97775  12.816   9.508  13.431
65293SOL    HW197776  12.860   9.518  13.515
65293SOL    HW297777  12.815   9.597  13.394
65294SOL     OW97778   7.798  12.903   9.705
65294SOL    HW197779   7.884  12.894   9.745
65294SOL    HW297780   7.814  12.952   9.624
65295SOL     OW97781   4.253   0.663   9.234
65295SOL    HW197782   4.195   0.697   9.165
65295SOL    HW297783   4.275   0.574   9.206
65296SOL     OW97784  10.386   5.227   3.337
65296SOL    HW197785  10.352   5.152   3.386
65296SOL    HW297786  10.376   5.202   3.245
65297SOL     OW97787  12.240  11.747  12.127
65297SOL    HW197788  12.226  11.842  12.135
65297SOL    HW297789  12.169  11.709  12.179
65298SOL     OW97790  10.762   1.216   7.821
65298SOL    HW197791  10.852   1.248   7.813
65298SOL    HW297792  10.717   1.249   7.743
65299SOL     OW97793  14.016   5.854   0.412
65299SOL    HW197794  13.979   5.937   0.379
65299SOL    HW297795  14.110   5.869   0.414
65300SOL     OW97796  11.548  11.570   3.136
65300SOL    HW197797  11.546  11.661   3.165
65300SOL    HW297798  11.573  11.520   3.213
65301SOL     OW97799   6.442  13.409   5.169
65301SOL    HW197800   6.401  13.484   5.213
65301SOL    HW297801   6.536  13.427   5.175
65302SOL     OW97802  13.196   2.471   1.648
65302SOL    HW197803  13.163   2.534   1.584
65302SOL    HW297804  13.126   2.464   1.713
65303SOL     OW97805   3.307   1.861  10.223
65303SOL    HW197806   3.218   1.869  10.188
65303SOL    HW297807   3.297   1.802  10.298
65304SOL     OW97808   4.307   8.274   3.823
65304SOL    HW197809   4.212   8.265   3.816
65304SOL    HW297810   4.337   8.274   3.732
65305SOL     OW97811   2.710   8.125  12.930
65305SOL    HW197812   2.643   8.134  12.998
65305SOL    HW297813   2.660   8.108  12.850
65306SOL     OW97814   9.216   2.657   3.456
65306SOL    HW197815   9.161   2.729   3.487
65306SOL    HW297816   9.279   2.699   3.397
65307SOL     OW97817  12.328   5.205   4.100
65307SOL    HW197818  12.291   5.154   4.028
65307SOL    HW297819  12.301   5.295   4.081
65308SOL     OW97820   3.683  12.407   2.687
65308SOL    HW197821   3.751  12.346   2.658
65308SOL    HW297822   3.601  12.361   2.672
65309SOL     OW97823   6.866   4.764   8.141
65309SOL    HW197824   6.828   4.847   8.110
65309SOL    HW297825   6.810   4.738   8.213
65310SOL     OW97826   8.485   7.847  10.387
65310SOL    HW197827   8.472   7.848  10.292
65310SOL    HW297828   8.400   7.823  10.423
65311SOL     OW97829  12.188  10.948   9.225
65311SOL    HW197830  12.152  10.997   9.151
65311SOL    HW297831  12.231  11.014   9.278
65312SOL     OW97832   6.007   5.137  12.299
65312SOL    HW197833   5.984   5.069  12.235
65312SOL    HW297834   6.052   5.204  12.248
65313SOL     OW97835   1.516  10.163  13.376
65313SOL    HW197836   1.437  10.211  13.401
65313SOL    HW297837   1.586  10.229  13.378
65314SOL     OW97838   0.421   6.931   8.987
65314SOL    HW197839   0.510   6.902   9.010
65314SOL    HW297840   0.431   7.024   8.967
65315SOL     OW97841   5.526  10.134  13.409
65315SOL    HW197842   5.443  10.118  13.364
65315SOL    HW297843   5.577  10.186  13.347
65316SOL     OW97844  12.822  12.657  10.247
65316SOL    HW197845  12.837  12.618  10.333
65316SOL    HW297846  12.784  12.743  10.266
65317SOL     OW97847   6.745  10.854   3.683
65317SOL    HW197848   6.802  10.929   3.702
65317SOL    HW297849   6.704  10.876   3.599
65318SOL     OW97850   4.034   0.242   4.177
65318SOL    HW197851   4.088   0.164   4.191
65318SOL    HW297852   4.084   0.313   4.217
65319SOL     OW97853   8.767   2.421   4.071
65319SOL    HW197854   8.817   2.395   4.149
65319SOL    HW297855   8.692   2.468   4.106
65320SOL     OW97856   8.834   5.901  14.109
65320SOL    HW197857   8.748   5.937  14.091
65320SOL    HW297858   8.820   5.839  14.181
65321SOL     OW97859   2.832   9.192   8.169
65321SOL    HW197860   2.917   9.149   8.179
65321SOL    HW297861   2.832   9.260   8.236
65322SOL     OW97862  10.710   3.227  10.302
65322SOL    HW197863  10.791   3.206  10.256
65322SOL    HW297864  10.728   3.311  10.345
65323SOL     OW97865   4.211  11.636   0.656
65323SOL    HW197866   4.154  11.672   0.589
65323SOL    HW297867   4.171  11.663   0.739
65324SOL     OW97868   4.417   4.266   6.936
65324SOL    HW197869   4.474   4.210   6.885
65324SOL    HW297870   4.460   4.352   6.938
65325SOL     OW97871   3.889   8.124   3.423
65325SOL    HW197872   3.945   8.073   3.364
65325SOL    HW297873   3.862   8.200   3.372
65326SOL     OW97874   6.751   6.076   1.131
65326SOL    HW197875   6.820   6.029   1.084
65326SOL    HW297876   6.778   6.073   1.223
65327SOL     OW97877   1.440   3.534   4.713
65327SOL    HW197878   1.368   3.546   4.775
65327SOL    HW297879   1.399   3.494   4.636
65328SOL     OW97880  12.960   3.414   5.817
65328SOL    HW197881  12.893   3.482   5.833
65328SOL    HW297882  12.912   3.343   5.776
65329SOL     OW97883  14.591  10.492  12.258
65329SOL    HW197884  14.553  10.573  12.292
65329SOL    HW297885  14.663  10.521  12.202
65330SOL     OW97886  12.628   5.519   0.758
65330SOL    HW197887  12.635   5.460   0.683
65330SOL    HW297888  12.672   5.599   0.730
65331SOL     OW97889   0.469  12.349   7.606
65331SOL    HW197890   0.524  12.272   7.620
65331SOL    HW297891   0.520  12.422   7.640
65332SOL     OW97892   3.371   4.397   5.080
65332SOL    HW197893   3.343   4.438   5.161
65332SOL    HW297894   3.435   4.330   5.107
65333SOL     OW97895  12.740   3.199   2.466
65333SOL    HW197896  12.811   3.137   2.455
65333SOL    HW297897  12.733   3.243   2.381
65334SOL     OW97898   8.552   9.106   2.903
65334SOL    HW197899   8.556   9.084   2.996
65334SOL    HW297900   8.640   9.137   2.882
65335SOL     OW97901   0.156   9.399  12.857
65335SOL    HW197902   0.115   9.361  12.779
65335SOL    HW297903   0.244   9.362  12.859
65336SOL     OW97904  13.249  10.471  10.350
65336SOL    HW197905  13.202  10.535  10.296
65336SOL    HW297906  13.306  10.425  10.288
65337SOL     OW97907   6.070   2.680   4.119
65337SOL    HW197908   6.100   2.602   4.166
65337SOL    HW297909   6.054   2.745   4.188
65338SOL     OW97910  10.282   5.458   8.911
65338SOL    HW197911  10.309   5.431   8.999
65338SOL    HW297912  10.268   5.552   8.918
65339SOL     OW97913   9.853   7.552   4.074
65339SOL    HW197914   9.846   7.613   4.148
65339SOL    HW297915   9.871   7.609   3.999
65340SOL     OW97916  12.466   0.897  12.776
65340SOL    HW197917  12.391   0.935  12.729
65340SOL    HW297918  12.455   0.803  12.766
65341SOL     OW97919  11.806   1.976   9.204
65341SOL    HW197920  11.771   1.937   9.124
65341SOL    HW297921  11.729   1.994   9.258
65342SOL     OW97922   5.558   1.037   2.193
65342SOL    HW197923   5.539   0.993   2.275
65342SOL    HW297924   5.630   0.988   2.154
65343SOL     OW97925  11.571   5.431   0.865
65343SOL    HW197926  11.585   5.515   0.822
65343SOL    HW297927  11.483   5.405   0.839
65344SOL     OW97928   3.874   0.365   0.052
65344SOL    HW197929   3.798   0.415   0.080
65344SOL    HW297930   3.839   0.293   0.001
65345SOL     OW97931   9.205   5.810   5.779
65345SOL    HW197932   9.217   5.847   5.692
65345SOL    HW297933   9.119   5.768   5.775
65346SOL     OW97934   8.926  12.165   4.162
65346SOL    HW197935   8.919  12.218   4.241
65346SOL    HW297936   8.960  12.225   4.095
65347SOL     OW97937   6.038   5.411  12.200
65347SOL    HW197938   5.976   5.421  12.127
65347SOL    HW297939   5.996   5.455  12.274
65348SOL     OW97940  13.710  11.545   5.558
65348SOL    HW197941  13.719  11.626   5.609
65348SOL    HW297942  13.672  11.573   5.475
65349SOL     OW97943  10.048  11.733   5.598
65349SOL    HW197944   9.972  11.791   5.612
65349SOL    HW297945  10.031  11.691   5.513
65350SOL     OW97946   4.396   1.150   9.690
65350SOL    HW197947   4.369   1.218   9.629
65350SOL    HW297948   4.491   1.153   9.689
65351SOL     OW97949  12.935   9.066   0.534
65351SOL    HW197950  12.880   9.112   0.597
65351SOL    HW297951  13.018   9.114   0.536
65352SOL     OW97952   4.511  10.770   4.867
65352SOL    HW197953   4.523  10.706   4.796
65352SOL    HW297954   4.421  10.756   4.896
65353SOL     OW97955   4.562  13.585  10.737
65353SOL    HW197956   4.518  13.525  10.797
65353SOL    HW297957   4.646  13.543  10.718
65354SOL     OW97958  10.649  14.246  11.192
65354SOL    HW197959  10.625  14.251  11.285
65354SOL    HW297960  10.574  14.284  11.147
65355SOL     OW97961  13.912   9.894   9.708
65355SOL    HW197962  14.005   9.874   9.694
65355SOL    HW297963  13.873   9.887   9.621
65356SOL     OW97964   0.840   3.675   4.177
65356SOL    HW197965   0.833   3.658   4.084
65356SOL    HW297966   0.924   3.638   4.203
65357SOL     OW97967  10.606   8.085   6.141
65357SOL    HW197968  10.684   8.117   6.188
65357SOL    HW297969  10.635   8.004   6.100
65358SOL     OW97970   8.586   0.098  13.270
65358SOL    HW197971   8.659   0.113  13.330
65358SOL    HW297972   8.603   0.157  13.197
65359SOL     OW97973  11.518   6.676  14.519
65359SOL    HW197974  11.521   6.581  14.512
65359SOL    HW297975  11.435   6.694  14.563
65360SOL     OW97976   0.318   7.591   2.839
65360SOL    HW197977   0.384   7.661   2.831
65360SOL    HW297978   0.235   7.638   2.843
65361SOL     OW97979  13.751  10.452   2.697
65361SOL    HW197980  13.658  10.444   2.674
65361SOL    HW297981  13.762  10.394   2.773
65362SOL     OW97982   2.125   9.914  13.597
65362SOL    HW197983   2.162  10.002  13.593
65362SOL    HW297984   2.036   9.922  13.563
65363SOL     OW97985   4.626  13.202  13.201
65363SOL    HW197986   4.549  13.147  13.215
65363SOL    HW297987   4.660  13.219  13.289
65364SOL     OW97988  13.300   4.841  13.079
65364SOL    HW197989  13.232   4.863  13.015
65364SOL    HW297990  13.304   4.745  13.077
65365SOL     OW97991   0.570   0.248  12.396
65365SOL    HW197992   0.620   0.202  12.329
65365SOL    HW297993   0.632   0.262  12.467
65366SOL     OW97994   8.013   2.567   6.741
65366SOL    HW197995   8.030   2.621   6.664
65366SOL    HW297996   8.020   2.477   6.710
65367SOL     OW97997  11.092   7.691  12.893
65367SOL    HW197998  11.066   7.601  12.913
65367SOL    HW297999  11.043   7.745  12.956
65368SOL     OW98000   1.397   7.095  12.167
65368SOL    HW198001   1.387   7.000  12.161
65368SOL    HW298002   1.400   7.113  12.261
65369SOL     OW98003   0.280   4.070   1.775
65369SOL    HW198004   0.331   4.120   1.839
65369SOL    HW298005   0.216   4.022   1.828
65370SOL     OW98006   2.114   2.406   4.067
65370SOL    HW198007   2.076   2.323   4.094
65370SOL    HW298008   2.072   2.426   3.984
65371SOL     OW98009   2.951   8.470  10.002
65371SOL    HW198010   2.927   8.542   9.944
65371SOL    HW298011   2.927   8.391   9.953
65372SOL     OW98012  12.612   1.322   8.268
65372SOL    HW198013  12.675   1.360   8.330
65372SOL    HW298014  12.649   1.342   8.182
65373SOL     OW98015   9.004   9.395   7.507
65373SOL    HW198016   9.055   9.322   7.541
65373SOL    HW298017   9.068   9.463   7.489
65374SOL     OW98018   1.536   3.062   6.243
65374SOL    HW198019   1.590   3.088   6.318
65374SOL    HW298020   1.497   3.144   6.213
65375SOL     OW98021   2.962   8.823   9.607
65375SOL    HW198022   2.870   8.849   9.614
65375SOL    HW298023   3.009   8.889   9.658
65376SOL     OW98024   5.995   8.609  11.875
65376SOL    HW198025   6.059   8.544  11.845
65376SOL    HW298026   6.002   8.606  11.971
65377SOL     OW98027  10.438   5.462   9.970
65377SOL    HW198028  10.464   5.496  10.056
65377SOL    HW298029  10.346   5.437   9.981
65378SOL     OW98030  12.005   1.130  12.603
65378SOL    HW198031  11.920   1.087  12.613
65378SOL    HW298032  11.996   1.212  12.652
65379SOL     OW98033  12.372   8.242   8.716
65379SOL    HW198034  12.467   8.231   8.710
65379SOL    HW298035  12.349   8.206   8.802
65380SOL     OW98036   7.425   1.719  13.942
65380SOL    HW198037   7.430   1.625  13.961
65380SOL    HW298038   7.360   1.726  13.873
65381SOL     OW98039   0.250  11.597   5.677
65381SOL    HW198040   0.246  11.536   5.751
65381SOL    HW298041   0.176  11.656   5.690
65382SOL     OW98042  10.535  11.583   8.547
65382SOL    HW198043  10.479  11.595   8.470
65382SOL    HW298044  10.613  11.636   8.528
65383SOL     OW98045   4.000   0.712  14.673
65383SOL    HW198046   3.944   0.673  14.607
65383SOL    HW298047   4.087   0.675  14.656
65384SOL     OW98048   7.348   6.989   2.582
65384SOL    HW198049   7.419   6.938   2.543
65384SOL    HW298050   7.387   7.028   2.660
65385SOL     OW98051  10.822   0.241   0.362
65385SOL    HW198052  10.763   0.186   0.310
65385SOL    HW298053  10.857   0.182   0.428
65386SOL     OW98054  11.596   7.789   7.528
65386SOL    HW198055  11.628   7.779   7.617
65386SOL    HW298056  11.501   7.794   7.537
65387SOL     OW98057   6.239   7.045   8.940
65387SOL    HW198058   6.186   6.975   8.979
65387SOL    HW298059   6.266   7.099   9.015
65388SOL     OW98060   3.763   3.228   1.953
65388SOL    HW198061   3.710   3.261   1.881
65388SOL    HW298062   3.823   3.165   1.912
65389SOL     OW98063   5.669   1.904   3.602
65389SOL    HW198064   5.664   1.820   3.555
65389SOL    HW298065   5.582   1.915   3.640
65390SOL     OW98066   4.856   1.715   4.466
65390SOL    HW198067   4.859   1.803   4.504
65390SOL    HW298068   4.948   1.689   4.462
65391SOL     OW98069  13.635   2.090  13.351
65391SOL    HW198070  13.559   2.129  13.394
65391SOL    HW298071  13.627   1.996  13.369
65392SOL     OW98072  10.574  12.066   5.168
65392SOL    HW198073  10.584  12.123   5.092
65392SOL    HW298074  10.583  12.124   5.243
65393SOL     OW98075  13.256  11.336  14.795
65393SOL    HW198076  13.162  11.346  14.782
65393SOL    HW298077  13.275  11.247  14.767
65394SOL     OW98078   3.149   8.888   0.244
65394SOL    HW198079   3.143   8.797   0.274
65394SOL    HW298080   3.116   8.886   0.154
65395SOL     OW98081   7.326   4.835  11.894
65395SOL    HW198082   7.370   4.865  11.973
65395SOL    HW298083   7.395   4.832  11.828
65396SOL     OW98084  10.786   1.608   3.895
65396SOL    HW198085  10.755   1.684   3.944
65396SOL    HW298086  10.733   1.535   3.927
65397SOL     OW98087   8.525   1.954   7.195
65397SOL    HW198088   8.604   1.903   7.214
65397SOL    HW298089   8.547   2.043   7.220
65398SOL     OW98090   2.776  14.501  14.273
65398SOL    HW198091   2.681  14.490  14.271
65398SOL    HW298092   2.790  14.591  14.244
65399SOL     OW98093  14.347   5.916   5.276
65399SOL    HW198094  14.253   5.906   5.292
65399SOL    HW298095  14.386   5.837   5.313
65400SOL     OW98096   2.828   6.499   1.692
65400SOL    HW198097   2.904   6.476   1.746
65400SOL    HW298098   2.811   6.591   1.713
65401SOL     OW98099  10.199   9.953   6.515
65401SOL    HW198100  10.135   9.938   6.446
65401SOL    HW298101  10.268  10.004   6.474
65402SOL     OW98102   4.610  13.178   2.986
65402SOL    HW198103   4.671  13.183   2.912
65402SOL    HW298104   4.538  13.123   2.955
65403SOL     OW98105   8.303   5.102   4.269
65403SOL    HW198106   8.230   5.161   4.248
65403SOL    HW298107   8.281   5.065   4.354
65404SOL     OW98108   8.925  14.086   2.414
65404SOL    HW198109   8.889  14.167   2.379
65404SOL    HW298110   8.979  14.052   2.343
65405SOL     OW98111  11.001  13.066   5.598
65405SOL    HW198112  11.064  12.996   5.584
65405SOL    HW298113  11.044  13.125   5.660
65406SOL     OW98114   4.068  12.116  10.005
65406SOL    HW198115   4.043  12.181  10.070
65406SOL    HW298116   4.028  12.035  10.037
65407SOL     OW98117   4.050   0.021   5.912
65407SOL    HW198118   4.090   0.085   5.853
65407SOL    HW298119   4.123  14.855   5.964
65408SOL     OW98120   5.574  12.926   1.320
65408SOL    HW198121   5.615  12.896   1.239
65408SOL    HW298122   5.576  13.022   1.313
65409SOL     OW98123   4.039   3.529   1.417
65409SOL    HW198124   4.083   3.553   1.336
65409SOL    HW298125   4.109   3.494   1.473
65410SOL     OW98126   4.354  11.896   5.815
65410SOL    HW198127   4.275  11.851   5.785
65410SOL    HW298128   4.407  11.907   5.736
65411SOL     OW98129   8.590  11.380  12.410
65411SOL    HW198130   8.635  11.324  12.346
65411SOL    HW298131   8.513  11.412  12.363
65412SOL     OW98132   3.194  11.842   4.468
65412SOL    HW198133   3.195  11.907   4.398
65412SOL    HW298134   3.285  11.836   4.496
65413SOL     OW98135   0.077   5.461   1.139
65413SOL    HW198136   0.038   5.445   1.053
65413SOL    HW298137   0.164   5.421   1.134
65414SOL     OW98138   6.365  14.414  14.594
65414SOL    HW198139   6.293  14.359  14.563
65414SOL    HW298140   6.416  14.356  14.651
65415SOL     OW98141   6.737   6.966   1.464
65415SOL    HW198142   6.651   6.924   1.457
65415SOL    HW298143   6.751   6.975   1.558
65416SOL     OW98144   8.082   4.462   8.745
65416SOL    HW198145   8.090   4.448   8.839
65416SOL    HW298146   7.993   4.433   8.724
65417SOL     OW98147   2.603   2.899   8.795
65417SOL    HW198148   2.699   2.900   8.797
65417SOL    HW298149   2.581   2.810   8.768
65418SOL     OW98150   5.530  10.201   7.463
65418SOL    HW198151   5.502  10.281   7.509
65418SOL    HW298152   5.512  10.218   7.371
65419SOL     OW98153   3.534  10.121   4.747
65419SOL    HW198154   3.511  10.109   4.655
65419SOL    HW298155   3.629  10.134   4.746
65420SOL     OW98156  12.622   1.629  13.634
65420SOL    HW198157  12.718   1.628  13.639
65420SOL    HW298158  12.603   1.659  13.545
65421SOL     OW98159   0.445   8.236  14.574
65421SOL    HW198160   0.510   8.241  14.505
65421SOL    HW298161   0.494   8.203  14.650
65422SOL     OW98162   2.690  11.360  14.360
65422SOL    HW198163   2.679  11.330  14.269
65422SOL    HW298164   2.697  11.455  14.353
65423SOL     OW98165  13.791   7.367   1.500
65423SOL    HW198166  13.871   7.323   1.474
65423SOL    HW298167  13.724   7.299   1.499
65424SOL     OW98168   5.951   2.250   3.308
65424SOL    HW198169   5.901   2.189   3.362
65424SOL    HW298170   5.937   2.336   3.350
65425SOL     OW98171   1.963   9.981   0.493
65425SOL    HW198172   1.868   9.978   0.481
65425SOL    HW298173   1.998   9.929   0.421
65426SOL     OW98174  13.320   9.295   8.660
65426SOL    HW198175  13.395   9.268   8.606
65426SOL    HW298176  13.340   9.260   8.747
65427SOL     OW98177   6.437  13.594   0.899
65427SOL    HW198178   6.478  13.593   0.812
65427SOL    HW298179   6.364  13.655   0.890
65428SOL     OW98180  13.364   2.202  10.819
65428SOL    HW198181  13.400   2.260  10.752
65428SOL    HW298182  13.340   2.122  10.771
65429SOL     OW98183   5.682   9.862   2.905
65429SOL    HW198184   5.603   9.891   2.949
65429SOL    HW298185   5.730   9.812   2.971
65430SOL     OW98186   5.853  12.688   7.990
65430SOL    HW198187   5.762  12.661   7.983
65430SOL    HW298188   5.874  12.682   8.083
65431SOL     OW98189  14.519  10.120   2.464
65431SOL    HW198190  14.609  10.116   2.430
65431SOL    HW298191  14.521  10.191   2.528
65432SOL     OW98192  14.572  13.677   4.020
65432SOL    HW198193  14.499  13.695   3.961
65432SOL    HW298194  14.561  13.585   4.046
65433SOL     OW98195   5.730  11.210   9.651
65433SOL    HW198196   5.700  11.165   9.730
65433SOL    HW298197   5.811  11.164   9.626
65434SOL     OW98198   1.334   9.986  13.244
65434SOL    HW198199   1.395  10.059  13.239
65434SOL    HW298200   1.386   9.909  13.220
65435SOL     OW98201  10.195  13.562   8.975
65435SOL    HW198202  10.141  13.523   8.906
65435SOL    HW298203  10.281  13.522   8.965
65436SOL     OW98204   3.746  11.432  13.245
65436SOL    HW198205   3.803  11.462  13.175
65436SOL    HW298206   3.755  11.499  13.313
65437SOL     OW98207   0.434   8.096   7.658
65437SOL    HW198208   0.348   8.067   7.626
65437SOL    HW298209   0.493   8.078   7.585
65438SOL     OW98210   1.913  12.025  12.946
65438SOL    HW198211   1.846  11.957  12.953
65438SOL    HW298212   1.990  11.979  12.912
65439SOL     OW98213   5.121   8.864   7.304
65439SOL    HW198214   5.068   8.803   7.254
65439SOL    HW298215   5.058   8.925   7.343
65440SOL     OW98216   8.810   4.418   7.344
65440SOL    HW198217   8.856   4.440   7.425
65440SOL    HW298218   8.733   4.369   7.372
65441SOL     OW98219   1.499   0.337   0.338
65441SOL    HW198220   1.528   0.266   0.396
65441SOL    HW298221   1.535   0.313   0.252
65442SOL     OW98222  10.959   8.492  10.565
65442SOL    HW198223  11.009   8.573  10.574
65442SOL    HW298224  10.992   8.436  10.635
65443SOL     OW98225   7.084   7.834  10.821
65443SOL    HW198226   7.134   7.793  10.751
65443SOL    HW298227   7.122   7.800  10.902
65444SOL     OW98228   0.605  14.544   0.889
65444SOL    HW198229   0.627  14.536   0.797
65444SOL    HW298230   0.577  14.635   0.899
65445SOL     OW98231  11.300  10.317  10.656
65445SOL    HW198232  11.291  10.393  10.599
65445SOL    HW298233  11.335  10.352  10.738
65446SOL     OW98234   8.251  10.982   9.084
65446SOL    HW198235   8.256  10.924   9.160
65446SOL    HW298236   8.161  10.973   9.053
65447SOL     OW98237   1.019   1.912  14.721
65447SOL    HW198238   0.986   1.946  14.638
65447SOL    HW298239   1.100   1.961  14.737
65448SOL     OW98240   3.197  11.250   1.445
65448SOL    HW198241   3.208  11.156   1.454
65448SOL    HW298242   3.263  11.288   1.503
65449SOL     OW98243   4.084  13.595   4.731
65449SOL    HW198244   4.090  13.681   4.690
65449SOL    HW298245   4.123  13.534   4.668
65450SOL     OW98246   7.415   8.054  11.405
65450SOL    HW198247   7.337   8.067  11.460
65450SOL    HW298248   7.394   8.098  11.323
65451SOL     OW98249   5.713  12.454   5.057
65451SOL    HW198250   5.720  12.484   4.966
65451SOL    HW298251   5.772  12.380   5.063
65452SOL     OW98252  13.691   2.523   3.249
65452SOL    HW198253  13.606   2.479   3.250
65452SOL    HW298254  13.726   2.511   3.338
65453SOL     OW98255  13.709   5.436   9.251
65453SOL    HW198256  13.652   5.415   9.176
65453SOL    HW298257  13.770   5.501   9.216
65454SOL     OW98258   3.671   6.794   1.423
65454SOL    HW198259   3.648   6.786   1.330
65454SOL    HW298260   3.587   6.796   1.468
65455SOL     OW98261   1.391  11.429   4.547
65455SOL    HW198262   1.481  11.404   4.526
65455SOL    HW298263   1.382  11.412   4.641
65456SOL     OW98264  11.805   8.604  12.453
65456SOL    HW198265  11.723   8.590  12.404
65456SOL    HW298266  11.865   8.643  12.389
65457SOL     OW98267   2.279   7.572   3.667
65457SOL    HW198268   2.254   7.651   3.715
65457SOL    HW298269   2.245   7.500   3.721
65458SOL     OW98270  14.087   0.655   2.278
65458SOL    HW198271  14.070   0.647   2.184
65458SOL    HW298272  14.000   0.659   2.318
65459SOL     OW98273   5.482   1.181  11.071
65459SOL    HW198274   5.422   1.215  11.004
65459SOL    HW298275   5.562   1.233  11.059
65460SOL     OW98276   2.489  14.111   7.894
65460SOL    HW198277   2.558  14.146   7.950
65460SOL    HW298278   2.532  14.040   7.846
65461SOL     OW98279   2.406   9.528   8.060
65461SOL    HW198280   2.496   9.543   8.033
65461SOL    HW298281   2.391   9.591   8.130
65462SOL     OW98282   7.371   6.844  10.800
65462SOL    HW198283   7.445   6.895  10.830
65462SOL    HW298284   7.331   6.896  10.731
65463SOL     OW98285   5.934   2.368   9.712
65463SOL    HW198286   5.963   2.421   9.787
65463SOL    HW298287   5.945   2.277   9.742
65464SOL     OW98288   9.154   4.463   9.435
65464SOL    HW198289   9.149   4.488   9.342
65464SOL    HW298290   9.215   4.389   9.436
65465SOL     OW98291  11.622   1.004  13.080
65465SOL    HW198292  11.565   0.989  13.156
65465SOL    HW298293  11.655   0.917  13.059
65466SOL     OW98294   5.878   0.968  13.133
65466SOL    HW198295   5.848   0.913  13.061
65466SOL    HW298296   5.973   0.955  13.135
65467SOL     OW98297  11.746  10.447   4.479
65467SOL    HW198298  11.691  10.521   4.453
65467SOL    HW298299  11.775  10.469   4.567
65468SOL     OW98300   7.473  13.146  12.384
65468SOL    HW198301   7.547  13.201  12.410
65468SOL    HW298302   7.402  13.171  12.443
65469SOL     OW98303   7.835   4.892  11.105
65469SOL    HW198304   7.837   4.960  11.171
65469SOL    HW298305   7.836   4.810  11.154
65470SOL     OW98306  10.166   5.437  12.873
65470SOL    HW198307  10.139   5.352  12.840
65470SOL    HW298308  10.088   5.492  12.867
65471SOL     OW98309   8.767   1.329  11.049
65471SOL    HW198310   8.841   1.289  11.095
65471SOL    HW298311   8.750   1.271  10.976
65472SOL     OW98312   8.019  14.400   6.666
65472SOL    HW198313   7.945  14.409   6.725
65472SOL    HW298314   7.980  14.381   6.581
65473SOL     OW98315   5.735  14.372   5.359
65473SOL    HW198316   5.811  14.419   5.325
65473SOL    HW298317   5.712  14.311   5.289
65474SOL     OW98318   4.995   5.718   7.557
65474SOL    HW198319   4.928   5.696   7.622
65474SOL    HW298320   5.073   5.739   7.609
65475SOL     OW98321   0.844  10.112   5.152
65475SOL    HW198322   0.829  10.103   5.246
65475SOL    HW298323   0.925  10.063   5.135
65476SOL     OW98324   6.911  10.466   9.546
65476SOL    HW198325   6.818  10.475   9.565
65476SOL    HW298326   6.956  10.500   9.624
65477SOL     OW98327   4.145  10.212   6.575
65477SOL    HW198328   4.240  10.202   6.582
65477SOL    HW298329   4.129  10.223   6.481
65478SOL     OW98330   5.880   5.162   0.621
65478SOL    HW198331   5.887   5.213   0.701
65478SOL    HW298332   5.798   5.112   0.631
65479SOL     OW98333  14.821   9.039   8.632
65479SOL    HW198334  14.755   9.042   8.562
65479SOL    HW298335   0.036   9.031   8.586
65480SOL     OW98336   6.989  14.723   9.243
65480SOL    HW198337   6.965  14.630   9.240
65480SOL    HW298338   6.997  14.743   9.336
65481SOL     OW98339  10.756  11.508   0.519
65481SOL    HW198340  10.748  11.545   0.607
65481SOL    HW298341  10.781  11.417   0.533
65482SOL     OW98342  10.328   0.349   6.335
65482SOL    HW198343  10.321   0.360   6.430
65482SOL    HW298344  10.265   0.281   6.314
65483SOL     OW98345   3.241  14.074  11.858
65483SOL    HW198346   3.299  14.128  11.912
65483SOL    HW298347   3.208  14.007  11.918
65484SOL     OW98348  14.565   8.383  14.232
65484SOL    HW198349  14.589   8.366  14.141
65484SOL    HW298350  14.605   8.312  14.281
65485SOL     OW98351   9.305   3.899   0.347
65485SOL    HW198352   9.277   3.988   0.368
65485SOL    HW298353   9.275   3.885   0.257
65486SOL     OW98354   3.488   7.623   5.702
65486SOL    HW198355   3.448   7.551   5.751
65486SOL    HW298356   3.507   7.586   5.616
65487SOL     OW98357   8.460   2.635   2.839
65487SOL    HW198358   8.432   2.710   2.786
65487SOL    HW298359   8.486   2.673   2.923
65488SOL     OW98360   2.512   7.694   3.050
65488SOL    HW198361   2.576   7.738   3.105
65488SOL    HW298362   2.446   7.760   3.032
65489SOL     OW98363   0.586   7.769   3.973
65489SOL    HW198364   0.650   7.814   3.919
65489SOL    HW298365   0.547   7.837   4.027
65490SOL     OW98366   0.099   5.163   4.080
65490SOL    HW198367   0.134   5.250   4.063
65490SOL    HW298368   0.165   5.103   4.045
65491SOL     OW98369  13.403   3.952  14.026
65491SOL    HW198370  13.488   3.946  13.984
65491SOL    HW298371  13.422   3.984  14.114
65492SOL     OW98372   3.174  11.456   6.219
65492SOL    HW198373   3.204  11.500   6.140
65492SOL    HW298374   3.244  11.394   6.240
65493SOL     OW98375  12.683   8.449   7.463
65493SOL    HW198376  12.688   8.360   7.428
65493SOL    HW298377  12.603   8.486   7.425
65494SOL     OW98378   9.315  14.083  11.563
65494SOL    HW198379   9.318  14.146  11.636
65494SOL    HW298380   9.406  14.064  11.544
65495SOL     OW98381   7.879   5.895   3.571
65495SOL    HW198382   7.792   5.855   3.576
65495SOL    HW298383   7.875   5.970   3.631
65496SOL     OW98384  11.879  13.820   1.004
65496SOL    HW198385  11.872  13.905   1.048
65496SOL    HW298386  11.862  13.756   1.072
65497SOL     OW98387   6.454   0.181   7.865
65497SOL    HW198388   6.365   0.145   7.876
65497SOL    HW298389   6.460   0.250   7.931
65498SOL     OW98390  13.188  10.538   9.723
65498SOL    HW198391  13.172  10.611   9.662
65498SOL    HW298392  13.283  10.527   9.723
65499SOL     OW98393   4.720  13.516   9.943
65499SOL    HW198394   4.713  13.569  10.022
65499SOL    HW298395   4.638  13.465   9.941
65500SOL     OW98396  11.398  14.839   6.813
65500SOL    HW198397  11.337  14.846   6.886
65500SOL    HW298398  11.480  14.809   6.852
65501SOL     OW98399   6.716   5.762  10.728
65501SOL    HW198400   6.620   5.768  10.727
65501SOL    HW298401   6.736   5.720  10.812
65502SOL     OW98402   9.126  13.872   9.345
65502SOL    HW198403   9.219  13.882   9.366
65502SOL    HW298404   9.114  13.778   9.334
65503SOL     OW98405   8.142   0.378   8.071
65503SOL    HW198406   8.153   0.354   8.163
65503SOL    HW298407   8.141   0.474   8.072
65504SOL     OW98408   5.948   7.379   9.047
65504SOL    HW198409   5.925   7.409   9.135
65504SOL    HW298410   5.904   7.294   9.038
65505SOL     OW98411   9.351  12.143   1.526
65505SOL    HW198412   9.307  12.219   1.489
65505SOL    HW298413   9.286  12.074   1.524
65506SOL     OW98414  12.639   3.563   8.796
65506SOL    HW198415  12.591   3.490   8.835
65506SOL    HW298416  12.709   3.521   8.745
65507SOL     OW98417   6.271  10.644   2.304
65507SOL    HW198418   6.259  10.550   2.291
65507SOL    HW298419   6.365  10.657   2.301
65508SOL     OW98420   2.176  10.203  13.632
65508SOL    HW198421   2.263  10.227  13.663
65508SOL    HW298422   2.118  10.222  13.706
65509SOL     OW98423   0.700   9.186   0.221
65509SOL    HW198424   0.726   9.275   0.195
65509SOL    HW298425   0.639   9.199   0.293
65510SOL     OW98426   4.268   9.660  14.310
65510SOL    HW198427   4.210   9.688  14.382
65510SOL    HW298428   4.252   9.723  14.240
65511SOL     OW98429   5.192  14.281   0.914
65511SOL    HW198430   5.246  14.205   0.890
65511SOL    HW298431   5.256  14.351   0.931
65512SOL     OW98432   6.574  12.723   6.132
65512SOL    HW198433   6.553  12.749   6.222
65512SOL    HW298434   6.555  12.629   6.130
65513SOL     OW98435   7.352  14.607  13.559
65513SOL    HW198436   7.366  14.673  13.626
65513SOL    HW298437   7.312  14.534  13.606
65514SOL     OW98438  12.339  10.890  12.259
65514SOL    HW198439  12.256  10.937  12.269
65514SOL    HW298440  12.381  10.896  12.345
65515SOL     OW98441   5.498  10.358   6.056
65515SOL    HW198442   5.490  10.285   6.116
65515SOL    HW298443   5.583  10.346   6.014
65516SOL     OW98444  10.898   3.053   2.622
65516SOL    HW198445  10.967   3.000   2.663
65516SOL    HW298446  10.818   3.002   2.636
65517SOL     OW98447   5.696  12.661   9.886
65517SOL    HW198448   5.641  12.604   9.832
65517SOL    HW298449   5.722  12.733   9.828
65518SOL     OW98450   1.870   8.766   6.037
65518SOL    HW198451   1.855   8.787   6.129
65518SOL    HW298452   1.842   8.844   5.989
65519SOL     OW98453   0.586   1.381  10.073
65519SOL    HW198454   0.491   1.392  10.081
65519SOL    HW298455   0.603   1.391   9.979
65520SOL     OW98456   6.134   3.356   9.572
65520SOL    HW198457   6.162   3.418   9.640
65520SOL    HW298458   6.097   3.282   9.621
65521SOL     OW98459   7.954   8.306   0.708
65521SOL    HW198460   7.865   8.321   0.674
65521SOL    HW298461   7.941   8.247   0.782
65522SOL     OW98462  11.827  11.819   9.430
65522SOL    HW198463  11.919  11.841   9.444
65522SOL    HW298464  11.782  11.858   9.505
65523SOL     OW98465   3.947   7.485   2.969
65523SOL    HW198466   4.015   7.552   2.976
65523SOL    HW298467   3.934   7.454   3.058
65524SOL     OW98468  14.861   9.158   7.842
65524SOL    HW198469   0.076   9.206   7.837
65524SOL    HW298470   0.018   9.072   7.875
65525SOL     OW98471   8.695   9.004   1.185
65525SOL    HW198472   8.622   9.022   1.126
65525SOL    HW298473   8.676   9.055   1.264
65526SOL     OW98474   3.520   9.519  13.549
65526SOL    HW198475   3.477   9.568  13.619
65526SOL    HW298476   3.556   9.586  13.491
65527SOL     OW98477  12.278  14.156   9.515
65527SOL    HW198478  12.217  14.212   9.467
65527SOL    HW298479  12.221  14.100   9.568
65528SOL     OW98480   6.133  13.426   2.619
65528SOL    HW198481   6.192  13.492   2.584
65528SOL    HW298482   6.188  13.350   2.636
65529SOL     OW98483   1.140   4.066   1.208
65529SOL    HW198484   1.086   4.050   1.285
65529SOL    HW298485   1.224   4.025   1.228
65530SOL     OW98486  13.387   7.164   5.045
65530SOL    HW198487  13.446   7.236   5.066
65530SOL    HW298488  13.361   7.128   5.129
65531SOL     OW98489   1.633   0.510   9.926
65531SOL    HW198490   1.644   0.419   9.953
65531SOL    HW298491   1.722   0.545   9.924
65532SOL     OW98492   9.003  10.865   6.193
65532SOL    HW198493   9.013  10.864   6.289
65532SOL    HW298494   8.927  10.809   6.177
65533SOL     OW98495   0.944   6.307  10.498
65533SOL    HW198496   1.025   6.286  10.452
65533SOL    HW298497   0.915   6.389  10.459
65534SOL     OW98498   2.898   5.854  12.076
65534SOL    HW198499   2.880   5.840  11.983
65534SOL    HW298500   2.816   5.890  12.111
65535SOL     OW98501   4.240   1.877   1.467
65535SOL    HW198502   4.321   1.927   1.470
65535SOL    HW298503   4.190   1.909   1.542
65536SOL     OW98504   8.420   8.596   1.925
65536SOL    HW198505   8.359   8.524   1.945
65536SOL    HW298506   8.423   8.600   1.830
65537SOL     OW98507   3.742   2.833   1.850
65537SOL    HW198508   3.786   2.760   1.808
65537SOL    HW298509   3.813   2.882   1.893
65538SOL     OW98510   5.520   3.658   5.848
65538SOL    HW198511   5.596   3.680   5.902
65538SOL    HW298512   5.525   3.718   5.774
65539SOL     OW98513   0.036   9.030  12.563
65539SOL    HW198514   0.076   8.975  12.631
65539SOL    HW298515   0.058   8.985  12.481
65540SOL     OW98516  12.171   3.419   7.030
65540SOL    HW198517  12.077   3.434   7.018
65540SOL    HW298518  12.176   3.336   7.078
65541SOL     OW98519   5.700  10.032   6.117
65541SOL    HW198520   5.706  10.084   6.037
65541SOL    HW298521   5.658   9.951   6.091
65542SOL     OW98522   5.237   0.960  10.520
65542SOL    HW198523   5.332   0.959  10.509
65542SOL    HW298524   5.210   0.869  10.512
65543SOL     OW98525  10.855   9.694   5.999
65543SOL    HW198526  10.781   9.705   6.059
65543SOL    HW298527  10.814   9.673   5.915
65544SOL     OW98528   9.296   9.446   5.974
65544SOL    HW198529   9.369   9.509   5.971
65544SOL    HW298530   9.218   9.500   5.962
65545SOL     OW98531  10.870   5.637   0.884
65545SOL    HW198532  10.920   5.669   0.959
65545SOL    HW298533  10.803   5.580   0.922
65546SOL     OW98534   5.254   7.188   1.039
65546SOL    HW198535   5.309   7.110   1.042
65546SOL    HW298536   5.316   7.261   1.050
65547SOL     OW98537   1.223  12.955  10.582
65547SOL    HW198538   1.128  12.951  10.575
65547SOL    HW298539   1.249  13.020  10.517
65548SOL     OW98540   2.981  12.143   6.217
65548SOL    HW198541   2.969  12.144   6.122
65548SOL    HW298542   2.976  12.235   6.243
65549SOL     OW98543   5.469  10.613   6.206
65549SOL    HW198544   5.474  10.595   6.300
65549SOL    HW298545   5.489  10.528   6.165
65550SOL     OW98546   4.113   8.657  14.508
65550SOL    HW198547   4.191   8.710  14.528
65550SOL    HW298548   4.126   8.628  14.418
65551SOL     OW98549  13.393   6.639   9.017
65551SOL    HW198550  13.352   6.718   8.982
65551SOL    HW298551  13.357   6.568   8.964
65552SOL     OW98552   0.566   3.891  14.732
65552SOL    HW198553   0.573   3.833  14.808
65552SOL    HW298554   0.573   3.834  14.656
65553SOL     OW98555   9.356   6.400   6.870
65553SOL    HW198556   9.293   6.426   6.937
65553SOL    HW298557   9.442   6.413   6.911
65554SOL     OW98558   1.313  12.276   3.831
65554SOL    HW198559   1.280  12.213   3.896
65554SOL    HW298560   1.372  12.225   3.776
65555SOL     OW98561   6.921   4.241   1.252
65555SOL    HW198562   6.830   4.270   1.253
65555SOL    HW298563   6.972   4.322   1.254
65556SOL     OW98564   4.389  11.448   1.327
65556SOL    HW198565   4.337  11.416   1.401
65556SOL    HW298566   4.395  11.372   1.269
65557SOL     OW98567   3.106   3.671   4.770
65557SOL    HW198568   3.030   3.672   4.828
65557SOL    HW298569   3.103   3.756   4.726
65558SOL     OW98570  10.768  13.857   2.386
65558SOL    HW198571  10.681  13.889   2.409
65558SOL    HW298572  10.813  13.932   2.348
65559SOL     OW98573   2.236   4.435  14.293
65559SOL    HW198574   2.219   4.498  14.223
65559SOL    HW298575   2.290   4.483  14.356
65560SOL     OW98576   7.697  14.574   4.624
65560SOL    HW198577   7.660  14.633   4.558
65560SOL    HW298578   7.758  14.629   4.674
65561SOL     OW98579   4.035   7.342   0.934
65561SOL    HW198580   4.016   7.275   0.868
65561SOL    HW298581   4.064   7.418   0.883
65562SOL     OW98582   5.439   7.672   3.461
65562SOL    HW198583   5.415   7.750   3.411
65562SOL    HW298584   5.362   7.615   3.456
65563SOL     OW98585   4.818   9.727   1.806
65563SOL    HW198586   4.797   9.719   1.899
65563SOL    HW298587   4.883   9.798   1.802
65564SOL     OW98588   8.231  12.812  12.212
65564SOL    HW198589   8.287  12.754  12.162
65564SOL    HW298590   8.151  12.762  12.227
65565SOL     OW98591  14.102  11.702   8.879
65565SOL    HW198592  14.013  11.670   8.864
65565SOL    HW298593  14.097  11.747   8.964
65566SOL     OW98594  13.472   6.565  13.723
65566SOL    HW198595  13.530   6.491  13.705
65566SOL    HW298596  13.519   6.641  13.691
65567SOL     OW98597   6.845   3.049   6.884
65567SOL    HW198598   6.868   3.043   6.791
65567SOL    HW298599   6.756   3.013   6.888
65568SOL     OW98600   6.704  11.964   1.497
65568SOL    HW198601   6.727  12.027   1.429
65568SOL    HW298602   6.627  11.919   1.463
65569SOL     OW98603  13.797   1.599   1.815
65569SOL    HW198604  13.804   1.656   1.738
65569SOL    HW298605  13.705   1.605   1.841
65570SOL     OW98606   9.394  13.543  14.087
65570SOL    HW198607   9.365  13.496  14.166
65570SOL    HW298608   9.489  13.533  14.087
65571SOL     OW98609  14.259   6.076   0.137
65571SOL    HW198610  14.247   6.154   0.190
65571SOL    HW298611  14.347   6.086   0.100
65572SOL     OW98612   7.522   3.795   8.947
65572SOL    HW198613   7.476   3.723   8.988
65572SOL    HW298614   7.533   3.859   9.018
65573SOL     OW98615   3.893   8.991   8.549
65573SOL    HW198616   3.869   8.939   8.626
65573SOL    HW298617   3.887   9.082   8.579
65574SOL     OW98618   7.318   4.982   6.935
65574SOL    HW198619   7.256   5.002   7.006
65574SOL    HW298620   7.271   4.921   6.878
65575SOL     OW98621   9.779   4.665  12.714
65575SOL    HW198622   9.841   4.691  12.783
65575SOL    HW298623   9.819   4.587  12.675
65576SOL     OW98624   7.811   4.784   7.405
65576SOL    HW198625   7.798   4.689   7.404
65576SOL    HW298626   7.778   4.814   7.321
65577SOL     OW98627   9.493   3.488   5.936
65577SOL    HW198628   9.521   3.578   5.918
65577SOL    HW298629   9.552   3.434   5.883
65578SOL     OW98630   8.442   7.672  10.775
65578SOL    HW198631   8.347   7.663  10.779
65578SOL    HW298632   8.464   7.656  10.683
65579SOL     OW98633  10.013   4.024   8.269
65579SOL    HW198634   9.950   3.952   8.275
65579SOL    HW298635  10.067   4.002   8.193
65580SOL     OW98636   4.004   5.475  13.164
65580SOL    HW198637   3.992   5.402  13.103
65580SOL    HW298638   4.053   5.438  13.237
65581SOL     OW98639   7.970  14.312   3.767
65581SOL    HW198640   7.912  14.356   3.829
65581SOL    HW298641   7.939  14.221   3.765
65582SOL     OW98642  10.143   4.527  10.940
65582SOL    HW198643  10.072   4.467  10.919
65582SOL    HW298644  10.194   4.482  11.007
65583SOL     OW98645   4.834  12.591   0.843
65583SOL    HW198646   4.748  12.563   0.812
65583SOL    HW298647   4.833  12.570   0.937
65584SOL     OW98648   5.879   1.015   5.942
65584SOL    HW198649   5.925   0.932   5.949
65584SOL    HW298650   5.896   1.044   5.852
65585SOL     OW98651   1.971   0.055  13.127
65585SOL    HW198652   1.953   0.065  13.033
65585SOL    HW298653   1.972  14.828  13.141
65586SOL     OW98654   5.165  14.738   1.947
65586SOL    HW198655   5.180  14.681   2.022
65586SOL    HW298656   5.246  14.788   1.939
65587SOL     OW98657   3.905   8.744   1.229
65587SOL    HW198658   3.817   8.711   1.211
65587SOL    HW298659   3.891   8.818   1.287
65588SOL     OW98660  10.824   5.723   9.579
65588SOL    HW198661  10.785   5.636   9.586
65588SOL    HW298662  10.750   5.783   9.572
65589SOL     OW98663   2.372  13.541   8.297
65589SOL    HW198664   2.369  13.476   8.227
65589SOL    HW298665   2.464  13.545   8.323
65590SOL     OW98666  13.978   1.012  14.302
65590SOL    HW198667  13.892   1.035  14.338
65590SOL    HW298668  14.009   0.941  14.359
65591SOL     OW98669  12.762   5.038  12.320
65591SOL    HW198670  12.854   5.040  12.297
65591SOL    HW298671  12.744   5.125  12.358
65592SOL     OW98672   6.530   4.312  14.141
65592SOL    HW198673   6.570   4.309  14.228
65592SOL    HW298674   6.604   4.327  14.081
65593SOL     OW98675   2.862   5.360   4.259
65593SOL    HW198676   2.784   5.411   4.279
65593SOL    HW298677   2.894   5.331   4.345
65594SOL     OW98678  12.258   4.710   1.665
65594SOL    HW198679  12.350   4.688   1.648
65594SOL    HW298680  12.258   4.744   1.755
65595SOL     OW98681   6.621   8.483  12.574
65595SOL    HW198682   6.604   8.436  12.493
65595SOL    HW298683   6.567   8.437  12.639
65596SOL     OW98684  12.781   6.907   9.656
65596SOL    HW198685  12.712   6.842   9.670
65596SOL    HW298686  12.857   6.855   9.628
65597SOL     OW98687  11.571  10.762  12.027
65597SOL    HW198688  11.581  10.740  11.935
65597SOL    HW298689  11.610  10.849  12.035
65598SOL     OW98690   3.985   4.894   0.750
65598SOL    HW198691   4.017   4.874   0.662
65598SOL    HW298692   3.896   4.927   0.736
65599SOL     OW98693   7.471  14.450   5.169
65599SOL    HW198694   7.387  14.404   5.168
65599SOL    HW298695   7.492  14.464   5.076
65600SOL     OW98696   8.633   4.380  10.440
65600SOL    HW198697   8.545   4.403  10.411
65600SOL    HW298698   8.690   4.445  10.399
65601SOL     OW98699   2.841   5.165   6.703
65601SOL    HW198700   2.750   5.179   6.729
65601SOL    HW298701   2.887   5.152   6.786
65602SOL     OW98702   8.065   4.715   1.575
65602SOL    HW198703   8.026   4.719   1.663
65602SOL    HW298704   8.105   4.801   1.563
65603SOL     OW98705   2.327   1.331   9.824
65603SOL    HW198706   2.286   1.377   9.897
65603SOL    HW298707   2.368   1.254   9.863
65604SOL     OW98708   7.781   6.361  13.277
65604SOL    HW198709   7.748   6.404  13.198
65604SOL    HW298710   7.743   6.273  13.274
65605SOL     OW98711  10.184  13.068  11.137
65605SOL    HW198712  10.189  12.974  11.119
65605SOL    HW298713  10.234  13.079  11.219
65606SOL     OW98714  13.869   0.614   5.723
65606SOL    HW198715  13.870   0.521   5.703
65606SOL    HW298716  13.821   0.621   5.805
65607SOL     OW98717   2.306  11.102   8.910
65607SOL    HW198718   2.266  11.176   8.955
65607SOL    HW298719   2.232  11.045   8.886
65608SOL     OW98720   2.415  12.341  11.499
65608SOL    HW198721   2.487  12.305  11.448
65608SOL    HW298722   2.457  12.376  11.578
65609SOL     OW98723  11.493   5.759   2.408
65609SOL    HW198724  11.431   5.831   2.425
65609SOL    HW298725  11.445   5.699   2.352
65610SOL     OW98726   4.871   8.240  14.179
65610SOL    HW198727   4.846   8.171  14.240
65610SOL    HW298728   4.840   8.209  14.093
65611SOL     OW98729  14.036   6.901   3.680
65611SOL    HW198730  14.085   6.854   3.612
65611SOL    HW298731  13.953   6.854   3.687
65612SOL     OW98732   3.800   4.871   1.505
65612SOL    HW198733   3.798   4.819   1.585
65612SOL    HW298734   3.840   4.814   1.440
65613SOL     OW98735   6.197  12.183   0.175
65613SOL    HW198736   6.117  12.204   0.128
65613SOL    HW298737   6.236  12.268   0.195
65614SOL     OW98738   1.695  13.909   6.866
65614SOL    HW198739   1.669  13.817   6.868
65614SOL    HW298740   1.707  13.933   6.958
65615SOL     OW98741   7.965  13.766   9.487
65615SOL    HW198742   8.031  13.834   9.497
65615SOL    HW298743   8.013  13.689   9.458
65616SOL     OW98744  11.144   9.105  10.595
65616SOL    HW198745  11.218   9.050  10.621
65616SOL    HW298746  11.098   9.054  10.528
65617SOL     OW98747  10.627   4.556   7.464
65617SOL    HW198748  10.622   4.486   7.529
65617SOL    HW298749  10.629   4.509   7.380
65618SOL     OW98750   6.854   1.163  10.049
65618SOL    HW198751   6.937   1.192  10.085
65618SOL    HW298752   6.789   1.223  10.085
65619SOL     OW98753   1.864   6.733  14.343
65619SOL    HW198754   1.923   6.692  14.280
65619SOL    HW298755   1.840   6.816  14.302
65620SOL     OW98756  11.242   2.543   9.284
65620SOL    HW198757  11.259   2.450   9.268
65620SOL    HW298758  11.215   2.548   9.376
65621SOL     OW98759  13.856   6.562   1.960
65621SOL    HW198760  13.765   6.544   1.986
65621SOL    HW298761  13.884   6.482   1.915
65622SOL     OW98762  10.969   9.237   4.096
65622SOL    HW198763  10.994   9.300   4.163
65622SOL    HW298764  10.973   9.286   4.014
65623SOL     OW98765  11.713   3.717  14.792
65623SOL    HW198766  11.647   3.733  14.724
65623SOL    HW298767  11.721   3.800  14.838
65624SOL     OW98768   9.964  13.746  12.509
65624SOL    HW198769   9.872  13.722  12.526
65624SOL    HW298770   9.988  13.799  12.585
65625SOL     OW98771   1.703  14.295   6.810
65625SOL    HW198772   1.768  14.312   6.878
65625SOL    HW298773   1.619  14.297   6.856
65626SOL     OW98774   0.929  12.403   2.623
65626SOL    HW198775   1.014  12.422   2.663
65626SOL    HW298776   0.945  12.410   2.529
65627SOL     OW98777   4.784  14.831   3.766
65627SOL    HW198778   4.755   0.020   3.695
65627SOL    HW298779   4.864  14.790   3.732
65628SOL     OW98780   8.015  13.326   0.289
65628SOL    HW198781   8.069  13.289   0.359
65628SOL    HW298782   8.078  13.351   0.221
65629SOL     OW98783  13.488   2.511   1.562
65629SOL    HW198784  13.474   2.422   1.592
65629SOL    HW298785  13.422   2.563   1.608
65630SOL     OW98786   2.123  12.066   1.970
65630SOL    HW198787   2.035  12.093   1.996
65630SOL    HW298788   2.182  12.113   2.029
65631SOL     OW98789   9.340   0.722   1.665
65631SOL    HW198790   9.304   0.636   1.643
65631SOL    HW298791   9.374   0.711   1.754
65632SOL     OW98792   8.453   2.237  10.065
65632SOL    HW198793   8.422   2.187   9.990
65632SOL    HW298794   8.487   2.318  10.027
65633SOL     OW98795   1.544   3.461   1.988
65633SOL    HW198796   1.610   3.476   2.055
65633SOL    HW298797   1.595   3.445   1.908
65634SOL     OW98798  12.217   2.768   1.888
65634SOL    HW198799  12.234   2.720   1.807
65634SOL    HW298800  12.303   2.796   1.918
65635SOL     OW98801  14.132   1.552  11.413
65635SOL    HW198802  14.095   1.635  11.442
65635SOL    HW298803  14.077   1.525  11.340
65636SOL     OW98804  11.993   0.827   2.738
65636SOL    HW198805  11.950   0.742   2.747
65636SOL    HW298806  12.085   0.805   2.720
65637SOL     OW98807  14.071   8.780  11.698
65637SOL    HW198808  14.046   8.706  11.643
65637SOL    HW298809  14.108   8.843  11.637
65638SOL     OW98810   7.855   3.983  10.791
65638SOL    HW198811   7.782   4.003  10.850
65638SOL    HW298812   7.822   3.911  10.737
65639SOL     OW98813   2.720  11.963   2.941
65639SOL    HW198814   2.780  11.937   2.871
65639SOL    HW298815   2.725  12.059   2.942
65640SOL     OW98816   4.268  11.618  11.714
65640SOL    HW198817   4.312  11.539  11.744
65640SOL    HW298818   4.179  11.611  11.748
65641SOL     OW98819   8.173  11.934   7.857
65641SOL    HW198820   8.198  12.023   7.832
65641SOL    HW298821   8.208  11.879   7.787
65642SOL     OW98822   5.817   6.998  10.723
65642SOL    HW198823   5.869   6.984  10.643
65642SOL    HW298824   5.865   6.952  10.791
65643SOL     OW98825   2.041   1.957   9.508
65643SOL    HW198826   2.003   1.869   9.505
65643SOL    HW298827   2.023   1.988   9.597
65644SOL     OW98828  14.349  11.275  14.376
65644SOL    HW198829  14.409  11.346  14.399
65644SOL    HW298830  14.263  11.305  14.406
65645SOL     OW98831  12.254   2.670  14.551
65645SOL    HW198832  12.196   2.636  14.483
65645SOL    HW298833  12.223   2.630  14.632
65646SOL     OW98834   4.366  13.401   1.525
65646SOL    HW198835   4.313  13.409   1.604
65646SOL    HW298836   4.376  13.490   1.492
65647SOL     OW98837   2.708  10.453   9.563
65647SOL    HW198838   2.644  10.504   9.512
65647SOL    HW298839   2.669  10.366   9.570
65648SOL     OW98840  12.489   1.836  14.680
65648SOL    HW198841  12.440   1.868  14.756
65648SOL    HW298842  12.509   1.915  14.630
65649SOL     OW98843   9.609  12.023   8.982
65649SOL    HW198844   9.571  12.030   8.894
65649SOL    HW298845   9.649  12.109   8.998
65650SOL     OW98846  11.286   1.898   2.139
65650SOL    HW198847  11.357   1.916   2.200
65650SOL    HW298848  11.208   1.893   2.193
65651SOL     OW98849   6.430   0.520   2.626
65651SOL    HW198850   6.350   0.572   2.612
65651SOL    HW298851   6.412   0.471   2.707
65652SOL     OW98852   8.719  11.999  12.383
65652SOL    HW198853   8.764  11.917  12.364
65652SOL    HW298854   8.695  11.993  12.475
65653SOL     OW98855   9.973   5.046   7.226
65653SOL    HW198856   9.914   5.072   7.297
65653SOL    HW298857   9.924   5.066   7.146
65654SOL     OW98858  10.100   9.882   2.386
65654SOL    HW198859  10.174   9.932   2.351
65654SOL    HW298860  10.093   9.806   2.328
65655SOL     OW98861   1.343   9.269   9.551
65655SOL    HW198862   1.279   9.213   9.506
65655SOL    HW298863   1.419   9.213   9.563
65656SOL     OW98864   9.961   2.565   8.328
65656SOL    HW198865   9.939   2.486   8.280
65656SOL    HW298866   9.911   2.635   8.286
65657SOL     OW98867   2.308   8.846   6.880
65657SOL    HW198868   2.288   8.754   6.863
65657SOL    HW298869   2.232   8.879   6.926
65658SOL     OW98870  12.662  14.757  14.831
65658SOL    HW198871  12.671  14.665  14.807
65658SOL    HW298872  12.627  14.799  14.752
65659SOL     OW98873   7.421   3.111  10.620
65659SOL    HW198874   7.495   3.163  10.587
65659SOL    HW298875   7.413   3.040  10.557
65660SOL     OW98876  13.725   4.310   7.745
65660SOL    HW198877  13.656   4.350   7.693
65660SOL    HW298878  13.794   4.375   7.749
65661SOL     OW98879   5.053  13.851  13.318
65661SOL    HW198880   4.973  13.875  13.270
65661SOL    HW298881   5.122  13.855  13.253
65662SOL     OW98882   4.456   3.936   2.579
65662SOL    HW198883   4.475   3.979   2.663
65662SOL    HW298884   4.526   3.871   2.569
65663SOL     OW98885   2.955   3.794   1.026
65663SOL    HW198886   2.979   3.717   1.078
65663SOL    HW298887   2.889   3.762   0.964
65664SOL     OW98888  11.096  13.434   2.398
65664SOL    HW198889  11.062  13.522   2.385
65664SOL    HW298890  11.179  13.433   2.350
65665SOL     OW98891   0.387   8.574   2.602
65665SOL    HW198892   0.475   8.584   2.637
65665SOL    HW298893   0.384   8.483   2.570
65666SOL     OW98894   8.487  11.407   8.543
65666SOL    HW198895   8.566  11.355   8.559
65666SOL    HW298896   8.515  11.476   8.482
65667SOL     OW98897   4.234   2.224  12.359
65667SOL    HW198898   4.258   2.213  12.451
65667SOL    HW298899   4.151   2.177  12.349
65668SOL     OW98900   3.455  13.739   0.820
65668SOL    HW198901   3.483  13.812   0.765
65668SOL    HW298902   3.379  13.773   0.867
65669SOL     OW98903  10.574   6.407   9.228
65669SOL    HW198904  10.577   6.360   9.144
65669SOL    HW298905  10.485   6.392   9.260
65670SOL     OW98906   2.858   8.089   7.693
65670SOL    HW198907   2.790   8.129   7.746
65670SOL    HW298908   2.938   8.098   7.745
65671SOL     OW98909   4.215  12.992   8.759
65671SOL    HW198910   4.193  13.016   8.669
65671SOL    HW298911   4.278  13.057   8.787
65672SOL     OW98912   1.818   5.138   2.278
65672SOL    HW198913   1.738   5.088   2.292
65672SOL    HW298914   1.861   5.139   2.364
65673SOL     OW98915   3.535   1.656  11.859
65673SOL    HW198916   3.585   1.717  11.803
65673SOL    HW298917   3.496   1.712  11.926
65674SOL     OW98918   7.646   6.067   7.454
65674SOL    HW198919   7.603   6.054   7.539
65674SOL    HW298920   7.580   6.039   7.390
65675SOL     OW98921   6.056  10.802   2.954
65675SOL    HW198922   6.030  10.717   2.990
65675SOL    HW298923   5.981  10.859   2.970
65676SOL     OW98924   7.871   0.068  12.807
65676SOL    HW198925   7.781   0.049  12.831
65676SOL    HW298926   7.892   0.005  12.739
65677SOL     OW98927   2.403   6.851   5.335
65677SOL    HW198928   2.316   6.891   5.347
65677SOL    HW298929   2.385   6.768   5.291
65678SOL     OW98930   1.066   2.309   8.898
65678SOL    HW198931   1.063   2.387   8.953
65678SOL    HW298932   1.073   2.237   8.960
65679SOL     OW98933   0.424   4.877   6.044
65679SOL    HW198934   0.479   4.945   6.007
65679SOL    HW298935   0.463   4.857   6.129
65680SOL     OW98936   1.746  12.643   6.535
65680SOL    HW198937   1.657  12.674   6.551
65680SOL    HW298938   1.790  12.651   6.620
65681SOL     OW98939   2.217   4.100  11.750
65681SOL    HW198940   2.306   4.086  11.783
65681SOL    HW298941   2.211   4.195  11.738
65682SOL     OW98942   4.563  10.910   1.631
65682SOL    HW198943   4.541  10.896   1.723
65682SOL    HW298944   4.646  10.863   1.619
65683SOL     OW98945   5.421  10.448  10.230
65683SOL    HW198946   5.386  10.510  10.165
65683SOL    HW298947   5.368  10.370  10.219
65684SOL     OW98948   7.880   8.980   5.636
65684SOL    HW198949   7.803   8.976   5.579
65684SOL    HW298950   7.953   8.994   5.575
65685SOL     OW98951   5.575   0.640   3.294
65685SOL    HW198952   5.560   0.590   3.374
65685SOL    HW298953   5.544   0.584   3.223
65686SOL     OW98954   2.411  13.198   4.889
65686SOL    HW198955   2.490  13.244   4.917
65686SOL    HW298956   2.404  13.217   4.795
65687SOL     OW98957  13.090   6.060  12.213
65687SOL    HW198958  13.157   6.127  12.222
65687SOL    HW298959  13.137   5.978  12.229
65688SOL     OW98960   6.524  13.577  14.472
65688SOL    HW198961   6.482  13.529  14.401
65688SOL    HW298962   6.482  13.663  14.471
65689SOL     OW98963   9.011   7.040   6.983
65689SOL    HW198964   9.100   7.052   6.950
65689SOL    HW298965   8.955   7.056   6.907
65690SOL     OW98966  14.799  13.561   9.831
65690SOL    HW198967   0.025  13.553   9.845
65690SOL    HW298968  14.789  13.561   9.736
65691SOL     OW98969   9.637  10.982  11.802
65691SOL    HW198970   9.564  11.044  11.803
65691SOL    HW298971   9.595  10.896  11.815
65692SOL     OW98972   8.268   9.179  14.223
65692SOL    HW198973   8.214   9.190  14.145
65692SOL    HW298974   8.343   9.126  14.193
65693SOL     OW98975   5.173   2.335   9.066
65693SOL    HW198976   5.108   2.338   8.995
65693SOL    HW298977   5.128   2.291   9.138
65694SOL     OW98978  10.715  12.524   1.018
65694SOL    HW198979  10.662  12.552   0.944
65694SOL    HW298980  10.763  12.602   1.044
65695SOL     OW98981   0.781   0.162   7.602
65695SOL    HW198982   0.814   0.146   7.690
65695SOL    HW298983   0.711   0.098   7.591
65696SOL     OW98984  10.689  12.762   1.678
65696SOL    HW198985  10.768  12.708   1.680
65696SOL    HW298986  10.712  12.834   1.619
65697SOL     OW98987   0.078   7.768   2.129
65697SOL    HW198988   0.102   7.770   2.222
65697SOL    HW298989   0.025   7.847   2.116
65698SOL     OW98990   5.454   4.998  11.816
65698SOL    HW198991   5.516   5.033  11.752
65698SOL    HW298992   5.442   5.069  11.879
65699SOL     OW98993   5.179  13.587   8.535
65699SOL    HW198994   5.164  13.676   8.568
65699SOL    HW298995   5.111  13.575   8.468
65700SOL     OW98996   0.051   2.375   4.890
65700SOL    HW198997   0.052   2.390   4.795
65700SOL    HW298998   0.130   2.325   4.908
65701SOL     OW98999  13.674  13.398  13.220
65701SOL    HW199000  13.760  13.412  13.181
65701SOL    HW299001  13.613  13.400  13.145
65702SOL     OW99002   8.568   2.071  12.602
65702SOL    HW199003   8.473   2.063  12.608
65702SOL    HW299004   8.598   2.061  12.692
65703SOL     OW99005  11.705  10.993  13.586
65703SOL    HW199006  11.780  10.953  13.629
65703SOL    HW299007  11.675  10.926  13.524
65704SOL     OW99008  14.041   0.615  11.415
65704SOL    HW199009  14.115   0.578  11.463
65704SOL    HW299010  14.079   0.689  11.367
65705SOL     OW99011   1.056   6.416   5.988
65705SOL    HW199012   1.057   6.356   5.913
65705SOL    HW299013   1.027   6.361   6.061
65706SOL     OW99014   2.256   5.248  14.313
65706SOL    HW199015   2.240   5.238  14.219
65706SOL    HW299016   2.326   5.185  14.332
65707SOL     OW99017  13.480   6.810   3.965
65707SOL    HW199018  13.388   6.835   3.952
65707SOL    HW299019  13.484   6.718   3.939
65708SOL     OW99020   4.504   3.266   8.778
65708SOL    HW199021   4.497   3.341   8.719
65708SOL    HW299022   4.539   3.302   8.859
65709SOL     OW99023   0.359   3.471   8.428
65709SOL    HW199024   0.277   3.428   8.452
65709SOL    HW299025   0.377   3.441   8.339
65710SOL     OW99026  13.253   7.637   4.561
65710SOL    HW199027  13.327   7.579   4.541
65710SOL    HW299028  13.281   7.722   4.527
65711SOL     OW99029   5.347   9.820  12.883
65711SOL    HW199030   5.401   9.816  12.962
65711SOL    HW299031   5.265   9.860  12.913
65712SOL     OW99032   6.739   1.817  10.887
65712SOL    HW199033   6.782   1.894  10.850
65712SOL    HW299034   6.751   1.827  10.982
65713SOL     OW99035  12.814   0.666   5.488
65713SOL    HW199036  12.845   0.692   5.401
65713SOL    HW299037  12.893   0.640   5.535
65714SOL     OW99038  11.948   9.333  12.017
65714SOL    HW199039  11.917   9.287  12.094
65714SOL    HW299040  12.038   9.303  12.005
65715SOL     OW99041   9.509   6.880  13.529
65715SOL    HW199042   9.476   6.804  13.481
65715SOL    HW299043   9.502   6.854  13.621
65716SOL     OW99044   1.654  10.914   5.208
65716SOL    HW199045   1.577  10.872   5.171
65716SOL    HW299046   1.637  11.008   5.198
65717SOL     OW99047   8.988  13.490   9.750
65717SOL    HW199048   9.055  13.508   9.684
65717SOL    HW299049   9.004  13.400   9.777
65718SOL     OW99050  13.199  12.798   9.104
65718SOL    HW199051  13.224  12.884   9.072
65718SOL    HW299052  13.257  12.782   9.178
65719SOL     OW99053   3.536   2.243   9.659
65719SOL    HW199054   3.587   2.171   9.697
65719SOL    HW299055   3.448   2.207   9.648
65720SOL     OW99056   4.538  14.500   1.250
65720SOL    HW199057   4.518  14.466   1.338
65720SOL    HW299058   4.455  14.493   1.202
65721SOL     OW99059   6.714  12.880   4.803
65721SOL    HW199060   6.707  12.797   4.850
65721SOL    HW299061   6.659  12.867   4.725
65722SOL     OW99062   6.649   8.106   0.008
65722SOL    HW199063   6.622   8.142   0.093
65722SOL    HW299064   6.623   8.014   0.012
65723SOL     OW99065   6.837  10.298   6.482
65723SOL    HW199066   6.836  10.267   6.391
65723SOL    HW299067   6.771  10.245   6.527
65724SOL     OW99068   4.074   6.418  13.842
65724SOL    HW199069   4.145   6.398  13.903
65724SOL    HW299070   4.013   6.344  13.851
65725SOL     OW99071  11.458   8.087   9.577
65725SOL    HW199072  11.386   8.080   9.640
65725SOL    HW299073  11.441   8.169   9.530
65726SOL     OW99074  12.288   8.659  12.071
65726SOL    HW199075  12.290   8.749  12.037
65726SOL    HW299076  12.325   8.606  12.001
65727SOL     OW99077   8.022   4.439   2.615
65727SOL    HW199078   8.002   4.532   2.601
65727SOL    HW299079   7.985   4.419   2.701
65728SOL     OW99080   3.989   6.638   3.339
65728SOL    HW199081   3.984   6.570   3.272
65728SOL    HW299082   4.068   6.616   3.389
65729SOL     OW99083   0.821  10.328   3.772
65729SOL    HW199084   0.729  10.300   3.775
65729SOL    HW299085   0.871  10.248   3.781
65730SOL     OW99086   1.635   2.374  12.758
65730SOL    HW199087   1.571   2.381  12.830
65730SOL    HW299088   1.594   2.314  12.696
65731SOL     OW99089  11.254  11.803   2.803
65731SOL    HW199090  11.307  11.849   2.869
65731SOL    HW299091  11.183  11.864   2.782
65732SOL     OW99092  14.134   7.526   3.174
65732SOL    HW199093  14.213   7.541   3.226
65732SOL    HW299094  14.071   7.590   3.208
65733SOL     OW99095   4.201  11.684   2.769
65733SOL    HW199096   4.226  11.678   2.861
65733SOL    HW299097   4.278  11.654   2.721
65734SOL     OW99098  11.188   8.719   2.622
65734SOL    HW199099  11.114   8.740   2.679
65734SOL    HW299100  11.181   8.780   2.549
65735SOL     OW99101   1.095   0.742   8.970
65735SOL    HW199102   1.058   0.829   8.988
65735SOL    HW299103   1.136   0.716   9.052
65736SOL     OW99104   9.888  12.786  11.117
65736SOL    HW199105   9.907  12.770  11.024
65736SOL    HW299106   9.793  12.798  11.121
65737SOL     OW99107   0.455   3.661   8.732
65737SOL    HW199108   0.438   3.690   8.643
65737SOL    HW299109   0.505   3.732   8.771
65738SOL     OW99110   4.477   5.779  10.512
65738SOL    HW199111   4.510   5.802  10.599
65738SOL    HW299112   4.527   5.834  10.452
65739SOL     OW99113  13.104  10.960   3.184
65739SOL    HW199114  13.040  11.016   3.229
65739SOL    HW299115  13.058  10.878   3.170
65740SOL     OW99116   3.835   3.139  14.078
65740SOL    HW199117   3.903   3.170  14.137
65740SOL    HW299118   3.767   3.103  14.135
65741SOL     OW99119  11.992  10.863   0.338
65741SOL    HW199120  11.924  10.851   0.272
65741SOL    HW299121  12.074  10.861   0.288
65742SOL     OW99122  14.338   7.412   1.586
65742SOL    HW199123  14.391   7.468   1.529
65742SOL    HW299124  14.337   7.327   1.541
65743SOL     OW99125   1.226   5.416  10.581
65743SOL    HW199126   1.142   5.457  10.601
65743SOL    HW299127   1.232   5.420  10.485
65744SOL     OW99128   7.219  14.032   6.010
65744SOL    HW199129   7.219  14.119   5.970
65744SOL    HW299130   7.195  13.973   5.939
65745SOL     OW99131  11.687   3.832  10.320
65745SOL    HW199132  11.671   3.923  10.295
65745SOL    HW299133  11.616   3.811  10.380
65746SOL     OW99134   9.432  14.599  14.193
65746SOL    HW199135   9.506  14.649  14.229
65746SOL    HW299136   9.412  14.534  14.260
65747SOL     OW99137   4.168   5.371  10.677
65747SOL    HW199138   4.201   5.436  10.740
65747SOL    HW299139   4.241   5.357  10.617
65748SOL     OW99140   6.687   1.921   2.200
65748SOL    HW199141   6.707   1.845   2.256
65748SOL    HW299142   6.773   1.958   2.179
65749SOL     OW99143   8.895   6.985   2.063
65749SOL    HW199144   8.805   6.977   2.035
65749SOL    HW299145   8.919   7.076   2.044
65750SOL     OW99146   4.532  13.669  13.318
65750SOL    HW199147   4.595  13.738  13.337
65750SOL    HW299148   4.458  13.715  13.278
65751SOL     OW99149   8.181   5.208   7.179
65751SOL    HW199150   8.249   5.239   7.119
65751SOL    HW299151   8.104   5.261   7.157
65752SOL     OW99152   7.671  11.584  13.896
65752SOL    HW199153   7.634  11.510  13.849
65752SOL    HW299154   7.761  11.558  13.915
65753SOL     OW99155  12.606  10.230  10.325
65753SOL    HW199156  12.543  10.160  10.345
65753SOL    HW299157  12.692  10.190  10.342
65754SOL     OW99158  12.238   6.793  13.910
65754SOL    HW199159  12.201   6.813  13.824
65754SOL    HW299160  12.311   6.734  13.892
65755SOL     OW99161  11.999   1.650   4.482
65755SOL    HW199162  12.048   1.569   4.498
65755SOL    HW299163  11.908   1.623   4.482
65756SOL     OW99164   1.655  13.730  12.408
65756SOL    HW199165   1.622  13.658  12.460
65756SOL    HW299166   1.743  13.747  12.442
65757SOL     OW99167   3.073  14.430  14.709
65757SOL    HW199168   2.995  14.439  14.655
65757SOL    HW299169   3.100  14.339  14.698
65758SOL     OW99170   4.123   2.354  13.124
65758SOL    HW199171   4.141   2.282  13.185
65758SOL    HW299172   4.119   2.312  13.038
65759SOL     OW99173   4.651  10.859   5.849
65759SOL    HW199174   4.681  10.830   5.935
65759SOL    HW299175   4.556  10.854   5.854
65760SOL     OW99176   4.869   6.410   9.227
65760SOL    HW199177   4.826   6.391   9.310
65760SOL    HW299178   4.833   6.345   9.166
65761SOL     OW99179   1.239   9.839   9.021
65761SOL    HW199180   1.167   9.877   9.071
65761SOL    HW299181   1.198   9.802   8.943
65762SOL     OW99182   3.338   6.679  10.600
65762SOL    HW199183   3.367   6.688  10.509
65762SOL    HW299184   3.402   6.620  10.639
65763SOL     OW99185   2.167   9.011   5.587
65763SOL    HW199186   2.150   9.104   5.573
65763SOL    HW299187   2.249   9.008   5.636
65764SOL     OW99188   1.353   5.494   6.176
65764SOL    HW199189   1.295   5.424   6.208
65764SOL    HW299190   1.373   5.469   6.086
65765SOL     OW99191   6.975  10.780   5.327
65765SOL    HW199192   7.053  10.734   5.296
65765SOL    HW299193   6.908  10.713   5.333
65766SOL     OW99194   9.507   3.998  10.146
65766SOL    HW199195   9.544   4.074  10.100
65766SOL    HW299196   9.513   4.021  10.239
65767SOL     OW99197   7.443   9.678   2.255
65767SOL    HW199198   7.402   9.655   2.172
65767SOL    HW299199   7.370   9.696   2.314
65768SOL     OW99200   5.933   4.967   6.529
65768SOL    HW199201   5.895   4.975   6.617
65768SOL    HW299202   5.933   5.056   6.494
65769SOL     OW99203   1.620   5.239   4.275
65769SOL    HW199204   1.611   5.205   4.364
65769SOL    HW299205   1.620   5.161   4.220
65770SOL     OW99206  12.275  13.319   4.925
65770SOL    HW199207  12.301  13.386   4.861
65770SOL    HW299208  12.353  13.266   4.938
65771SOL     OW99209   8.967   1.273   9.331
65771SOL    HW199210   8.996   1.221   9.256
65771SOL    HW299211   9.027   1.249   9.401
65772SOL     OW99212  10.482   7.932   2.458
65772SOL    HW199213  10.412   7.869   2.445
65772SOL    HW299214  10.553   7.882   2.498
65773SOL     OW99215   8.795   6.855   6.252
65773SOL    HW199216   8.830   6.887   6.169
65773SOL    HW299217   8.843   6.774   6.269
65774SOL     OW99218   1.232   5.025   2.375
65774SOL    HW199219   1.217   4.934   2.352
65774SOL    HW299220   1.181   5.074   2.310
65775SOL     OW99221   6.452  10.766   8.067
65775SOL    HW199222   6.475  10.849   8.108
65775SOL    HW299223   6.486  10.700   8.128
65776SOL     OW99224   4.048  10.855   2.171
65776SOL    HW199225   3.968  10.903   2.192
65776SOL    HW299226   4.118  10.902   2.216
65777SOL     OW99227  11.243   7.479   6.109
65777SOL    HW199228  11.225   7.528   6.028
65777SOL    HW299229  11.227   7.388   6.086
65778SOL     OW99230   9.387  11.857  14.264
65778SOL    HW199231   9.302  11.813  14.262
65778SOL    HW299232   9.390  11.897  14.351
65779SOL     OW99233   3.586   6.186   3.783
65779SOL    HW199234   3.641   6.203   3.707
65779SOL    HW299235   3.589   6.267   3.834
65780SOL     OW99236   8.213   7.549   2.967
65780SOL    HW199237   8.147   7.482   2.949
65780SOL    HW299238   8.269   7.550   2.890
65781SOL     OW99239  14.314   2.703   1.681
65781SOL    HW199240  14.252   2.714   1.609
65781SOL    HW299241  14.342   2.611   1.674
65782SOL     OW99242   9.628  12.451   2.267
65782SOL    HW199243   9.547  12.428   2.312
65782SOL    HW299244   9.637  12.545   2.278
65783SOL     OW99245   9.158   8.632   5.128
65783SOL    HW199246   9.169   8.709   5.073
65783SOL    HW299247   9.091   8.657   5.191
65784SOL     OW99248  12.811   3.846  10.594
65784SOL    HW199249  12.790   3.757  10.622
65784SOL    HW299250  12.854   3.886  10.669
65785SOL     OW99251   1.162  10.898   6.365
65785SOL    HW199252   1.088  10.957   6.353
65785SOL    HW299253   1.165  10.846   6.284
65786SOL     OW99254   2.962   1.648   3.427
65786SOL    HW199255   2.954   1.612   3.515
65786SOL    HW299256   3.052   1.630   3.402
65787SOL     OW99257   4.490  12.384   4.404
65787SOL    HW199258   4.575  12.341   4.403
65787SOL    HW299259   4.460  12.382   4.313
65788SOL     OW99260  12.596  11.069   1.768
65788SOL    HW199261  12.624  10.978   1.759
65788SOL    HW299262  12.505  11.070   1.740
65789SOL     OW99263   7.988   8.924   1.938
65789SOL    HW199264   7.979   8.893   2.028
65789SOL    HW299265   7.900   8.952   1.913
65790SOL     OW99266   6.015   8.674  11.257
65790SOL    HW199267   5.977   8.665  11.344
65790SOL    HW299268   5.996   8.591  11.213
65791SOL     OW99269  14.760   3.572  13.826
65791SOL    HW199270  14.805   3.585  13.910
65791SOL    HW299271  14.707   3.493  13.840
65792SOL     OW99272   0.770  14.207  13.595
65792SOL    HW199273   0.855  14.198  13.638
65792SOL    HW299274   0.758  14.301  13.584
65793SOL     OW99275   6.267  11.309  10.214
65793SOL    HW199276   6.301  11.226  10.247
65793SOL    HW299277   6.205  11.338  10.281
65794SOL     OW99278   7.119   1.680   2.779
65794SOL    HW199279   7.197   1.710   2.826
65794SOL    HW299280   7.084   1.760   2.740
65795SOL     OW99281   7.048  11.188   6.965
65795SOL    HW199282   7.039  11.110   7.019
65795SOL    HW299283   7.135  11.223   6.988
65796SOL     OW99284  12.125   1.088   5.049
65796SOL    HW199285  12.102   1.059   4.961
65796SOL    HW299286  12.198   1.033   5.075
65797SOL     OW99287   4.605   0.031   7.822
65797SOL    HW199288   4.605   0.126   7.807
65797SOL    HW299289   4.682  14.868   7.776
65798SOL     OW99290   2.976   4.576   9.685
65798SOL    HW199291   2.978   4.658   9.635
65798SOL    HW299292   2.924   4.516   9.631
65799SOL     OW99293   4.573   2.190   2.081
65799SOL    HW199294   4.666   2.179   2.103
65799SOL    HW299295   4.529   2.193   2.166
65800SOL     OW99296   3.482   4.123  10.465
65800SOL    HW199297   3.498   4.121  10.371
65800SOL    HW299298   3.389   4.145  10.474
65801SOL     OW99299  13.055  10.466   2.942
65801SOL    HW199300  13.028  10.452   3.033
65801SOL    HW299301  13.141  10.508   2.949
65802SOL     OW99302  13.389   6.060  11.699
65802SOL    HW199303  13.413   6.084  11.609
65802SOL    HW299304  13.294   6.072  11.702
65803SOL     OW99305   2.333   1.584  11.351
65803SOL    HW199306   2.285   1.501  11.357
65803SOL    HW299307   2.409   1.564  11.296
65804SOL     OW99308   9.547   8.086   9.803
65804SOL    HW199309   9.504   8.065   9.886
65804SOL    HW299310   9.532   8.179   9.791
65805SOL     OW99311   8.216   9.643   2.178
65805SOL    HW199312   8.126   9.674   2.172
65805SOL    HW299313   8.225   9.583   2.104
65806SOL     OW99314   3.136   6.304   8.585
65806SOL    HW199315   3.177   6.359   8.651
65806SOL    HW299316   3.061   6.264   8.629
65807SOL     OW99317   9.921  12.867   0.180
65807SOL    HW199318   9.956  12.849   0.268
65807SOL    HW299319   9.867  12.791   0.159
65808SOL     OW99320  10.170   5.802  10.861
65808SOL    HW199321  10.257   5.795  10.901
65808SOL    HW299322  10.168   5.890  10.824
65809SOL     OW99323   1.211   4.588  12.029
65809SOL    HW199324   1.286   4.570  12.086
65809SOL    HW299325   1.147   4.629  12.087
65810SOL     OW99326   4.205   1.157   5.769
65810SOL    HW199327   4.192   1.206   5.688
65810SOL    HW299328   4.213   1.066   5.740
65811SOL     OW99329  12.762   7.655   1.864
65811SOL    HW199330  12.733   7.584   1.807
65811SOL    HW299331  12.841   7.689   1.821
65812SOL     OW99332   8.929  12.899   1.122
65812SOL    HW199333   9.010  12.950   1.120
65812SOL    HW299334   8.870  12.944   1.062
65813SOL     OW99335  13.755   4.841  10.098
65813SOL    HW199336  13.750   4.746  10.103
65813SOL    HW299337  13.798   4.867  10.180
65814SOL     OW99338   8.637   2.988   2.248
65814SOL    HW199339   8.595   3.053   2.305
65814SOL    HW299340   8.693   2.937   2.306
65815SOL     OW99341   0.490   7.800  12.496
65815SOL    HW199342   0.401   7.791  12.531
65815SOL    HW299343   0.497   7.892  12.471
65816SOL     OW99344   9.601  11.597   5.894
65816SOL    HW199345   9.522  11.599   5.839
65816SOL    HW299346   9.669  11.564   5.835
65817SOL     OW99347   7.772   8.052  14.798
65817SOL    HW199348   7.843   7.989  14.808
65817SOL    HW299349   7.712   8.032   0.003
65818SOL     OW99350   0.590   0.224   9.794
65818SOL    HW199351   0.572   0.209   9.701
65818SOL    HW299352   0.607   0.137   9.830
65819SOL     OW99353   3.824  14.301   4.082
65819SOL    HW199354   3.790  14.286   3.993
65819SOL    HW299355   3.747  14.294   4.138
65820SOL     OW99356   9.456   4.333  14.739
65820SOL    HW199357   9.376   4.280  14.739
65820SOL    HW299358   9.483   4.337  14.831
65821SOL     OW99359   1.793  10.618  10.320
65821SOL    HW199360   1.846  10.557  10.372
65821SOL    HW299361   1.782  10.574  10.236
65822SOL     OW99362  12.686   3.678   9.843
65822SOL    HW199363  12.704   3.584   9.848
65822SOL    HW299364  12.763   3.715   9.800
65823SOL     OW99365   9.861   4.064   1.468
65823SOL    HW199366   9.879   4.009   1.392
65823SOL    HW299367   9.875   4.154   1.438
65824SOL     OW99368  13.199   5.399   5.838
65824SOL    HW199369  13.134   5.427   5.903
65824SOL    HW299370  13.188   5.461   5.766
65825SOL     OW99371   9.528   1.969   4.104
65825SOL    HW199372   9.462   1.950   4.037
65825SOL    HW299373   9.500   2.052   4.143
65826SOL     OW99374  14.004  10.903   3.285
65826SOL    HW199375  14.033  10.993   3.301
65826SOL    HW299376  13.986  10.868   3.372
65827SOL     OW99377   2.154   5.028   9.991
65827SOL    HW199378   2.228   4.981  10.029
65827SOL    HW299379   2.089   5.033  10.061
65828SOL     OW99380   2.354   7.684   4.371
65828SOL    HW199381   2.403   7.602   4.376
65828SOL    HW299382   2.369   7.716   4.282
65829SOL     OW99383  13.445   0.968   2.906
65829SOL    HW199384  13.529   1.014   2.907
65829SOL    HW299385  13.384   1.029   2.946
65830SOL     OW99386   9.464   9.763  13.174
65830SOL    HW199387   9.428   9.784  13.087
65830SOL    HW299388   9.475   9.668  13.172
65831SOL     OW99389   0.754  13.734  10.889
65831SOL    HW199390   0.719  13.772  10.808
65831SOL    HW299391   0.729  13.642  10.886
65832SOL     OW99392   2.394   7.738   6.259
65832SOL    HW199393   2.461   7.676   6.231
65832SOL    HW299394   2.439   7.796   6.320
65833SOL     OW99395   3.441   1.425  10.923
65833SOL    HW199396   3.476   1.475  10.997
65833SOL    HW299397   3.393   1.353  10.962
65834SOL     OW99398  13.283  10.618   6.033
65834SOL    HW199399  13.217  10.550   6.047
65834SOL    HW299400  13.284  10.667   6.116
65835SOL     OW99401  13.457   6.590   5.283
65835SOL    HW199402  13.475   6.610   5.375
65835SOL    HW299403  13.540   6.558   5.249
65836SOL     OW99404  12.307   7.988   5.211
65836SOL    HW199405  12.232   7.962   5.159
65836SOL    HW299406  12.367   8.030   5.150
65837SOL     OW99407   3.601  10.676   6.061
65837SOL    HW199408   3.598  10.600   6.118
65837SOL    HW299409   3.510  10.704   6.053
65838SOL     OW99410  11.622  14.432   2.924
65838SOL    HW199411  11.692  14.467   2.868
65838SOL    HW299412  11.658  14.438   3.013
65839SOL     OW99413   7.129   2.827  14.024
65839SOL    HW199414   7.041   2.857  14.000
65839SOL    HW299415   7.185   2.855  13.951
65840SOL     OW99416   9.794  11.392   5.432
65840SOL    HW199417   9.797  11.398   5.336
65840SOL    HW299418   9.768  11.301   5.449
65841SOL     OW99419  12.592  13.827  13.101
65841SOL    HW199420  12.633  13.894  13.045
65841SOL    HW299421  12.665  13.775  13.134
65842SOL     OW99422  12.427   9.182  12.971
65842SOL    HW199423  12.374   9.108  13.002
65842SOL    HW299424  12.510   9.173  13.017
65843SOL     OW99425  12.020   5.806   8.510
65843SOL    HW199426  12.033   5.890   8.466
65843SOL    HW299427  11.969   5.754   8.447
65844SOL     OW99428   5.429   0.287   9.797
65844SOL    HW199429   5.394   0.333   9.720
65844SOL    HW299430   5.366   0.305   9.867
65845SOL     OW99431   4.674   3.811  12.747
65845SOL    HW199432   4.728   3.783  12.673
65845SOL    HW299433   4.601   3.858  12.707
65846SOL     OW99434   5.894  14.685   4.749
65846SOL    HW199435   5.925  14.695   4.659
65846SOL    HW299436   5.827  14.617   4.744
65847SOL     OW99437   7.491  13.066   1.946
65847SOL    HW199438   7.568  13.122   1.935
65847SOL    HW299439   7.439  13.110   2.013
65848SOL     OW99440   6.073   6.730  13.688
65848SOL    HW199441   6.065   6.804  13.628
65848SOL    HW299442   6.116   6.766  13.765
65849SOL     OW99443   0.959   8.984   9.883
65849SOL    HW199444   0.922   8.957   9.799
65849SOL    HW299445   1.054   8.973   9.872
65850SOL     OW99446  10.434   1.373  12.975
65850SOL    HW199447  10.384   1.454  12.965
65850SOL    HW299448  10.477   1.360  12.890
65851SOL     OW99449   8.142   8.875   5.301
65851SOL    HW199450   8.183   8.940   5.245
65851SOL    HW299451   8.140   8.795   5.248
65852SOL     OW99452   5.743  11.080   8.942
65852SOL    HW199453   5.742  11.068   8.847
65852SOL    HW299454   5.698  11.003   8.977
65853SOL     OW99455   1.098   2.128   3.692
65853SOL    HW199456   1.103   2.203   3.751
65853SOL    HW299457   1.171   2.072   3.720
65854SOL     OW99458   0.481   1.955   1.920
65854SOL    HW199459   0.508   2.040   1.956
65854SOL    HW299460   0.537   1.943   1.843
65855SOL     OW99461   9.169   7.122  13.866
65855SOL    HW199462   9.235   7.093  13.803
65855SOL    HW299463   9.087   7.121  13.817
65856SOL     OW99464  11.900  12.075   9.176
65856SOL    HW199465  11.956  12.111   9.246
65856SOL    HW299466  11.886  12.149   9.117
65857SOL     OW99467   9.265   5.545   1.952
65857SOL    HW199468   9.194   5.491   1.987
65857SOL    HW299469   9.249   5.632   1.989
65858SOL     OW99470   7.166  10.640   5.219
65858SOL    HW199471   7.244  10.647   5.274
65858SOL    HW299472   7.132  10.553   5.238
65859SOL     OW99473   2.698   3.089   4.640
65859SOL    HW199474   2.717   3.068   4.732
65859SOL    HW299475   2.637   3.022   4.612
65860SOL     OW99476   5.286   8.625   8.936
65860SOL    HW199477   5.344   8.561   8.977
65860SOL    HW299478   5.201   8.581   8.931
65861SOL     OW99479  11.578  11.474  13.417
65861SOL    HW199480  11.580  11.409  13.487
65861SOL    HW299481  11.547  11.554  13.460
65862SOL     OW99482   2.042  10.831  12.869
65862SOL    HW199483   2.127  10.850  12.830
65862SOL    HW299484   2.009  10.757  12.819
65863SOL     OW99485  14.042   7.179   7.587
65863SOL    HW199486  14.113   7.157   7.527
65863SOL    HW299487  14.043   7.108   7.652
65864SOL     OW99488   0.035  11.439  10.974
65864SOL    HW199489   0.035  11.406  10.884
65864SOL    HW299490  14.830  11.501  10.977
65865SOL     OW99491   4.277  11.386   6.638
65865SOL    HW199492   4.334  11.461   6.654
65865SOL    HW299493   4.189  11.419   6.658
65866SOL     OW99494   5.004   7.215   6.246
65866SOL    HW199495   5.070   7.218   6.177
65866SOL    HW299496   4.991   7.306   6.272
65867SOL     OW99497   0.249   9.986   5.874
65867SOL    HW199498   0.321   9.953   5.928
65867SOL    HW299499   0.170   9.964   5.923
65868SOL     OW99500  11.308  12.577  13.450
65868SOL    HW199501  11.240  12.643  13.462
65868SOL    HW299502  11.358  12.579  13.531
65869SOL     OW99503   0.070   4.121  13.093
65869SOL    HW199504   0.159   4.155  13.088
65869SOL    HW299505   0.016   4.198  13.112
65870SOL     OW99506  12.419   4.841   1.937
65870SOL    HW199507  12.438   4.762   1.988
65870SOL    HW299508  12.357   4.890   1.991
65871SOL     OW99509   9.307  13.799   2.421
65871SOL    HW199510   9.241  13.778   2.488
65871SOL    HW299511   9.311  13.895   2.421
65872SOL     OW99512   6.480   8.068  13.532
65872SOL    HW199513   6.443   8.026  13.454
65872SOL    HW299514   6.414   8.055  13.600
65873SOL     OW99515   5.510  10.039  11.151
65873SOL    HW199516   5.565  10.080  11.084
65873SOL    HW299517   5.549   9.953  11.164
65874SOL     OW99518   8.770   4.664   5.342
65874SOL    HW199519   8.743   4.622   5.423
65874SOL    HW299520   8.852   4.621   5.319
65875SOL     OW99521   5.770  13.463   0.358
65875SOL    HW199522   5.774  13.558   0.372
65875SOL    HW299523   5.845  13.429   0.406
65876SOL     OW99524  13.910  12.199   1.125
65876SOL    HW199525  13.902  12.127   1.064
65876SOL    HW299526  13.942  12.159   1.206
65877SOL     OW99527   2.608   3.347   4.668
65877SOL    HW199528   2.515   3.330   4.679
65877SOL    HW299529   2.647   3.259   4.661
65878SOL     OW99530   1.541   3.421   3.946
65878SOL    HW199531   1.554   3.332   3.912
65878SOL    HW299532   1.628   3.448   3.975
65879SOL     OW99533   8.705  10.357   8.095
65879SOL    HW199534   8.675  10.266   8.092
65879SOL    HW299535   8.626  10.408   8.109
65880SOL     OW99536   5.479  12.484  13.825
65880SOL    HW199537   5.419  12.557  13.813
65880SOL    HW299538   5.544  12.517  13.888
65881SOL     OW99539   2.590  13.559   0.015
65881SOL    HW199540   2.559  13.647  14.864
65881SOL    HW299541   2.518  13.502  14.859
65882SOL     OW99542  12.587  14.675   5.784
65882SOL    HW199543  12.532  14.656   5.860
65882SOL    HW299544  12.666  14.621   5.798
65883SOL     OW99545  10.951  13.844   4.451
65883SOL    HW199546  10.978  13.916   4.393
65883SOL    HW299547  10.888  13.884   4.510
65884SOL     OW99548   7.825   3.907  14.108
65884SOL    HW199549   7.756   3.941  14.165
65884SOL    HW299550   7.792   3.919  14.019
65885SOL     OW99551   8.593  13.061   3.843
65885SOL    HW199552   8.572  13.152   3.865
65885SOL    HW299553   8.684  13.051   3.870
65886SOL     OW99554   3.418  12.497  13.250
65886SOL    HW199555   3.411  12.587  13.220
65886SOL    HW299556   3.415  12.444  13.170
65887SOL     OW99557  13.588   1.764  14.702
65887SOL    HW199558  13.678   1.773  14.732
65887SOL    HW299559  13.585   1.679  14.659
65888SOL     OW99560   2.576   7.190   4.678
65888SOL    HW199561   2.530   7.107   4.691
65888SOL    HW299562   2.641   7.171   4.611
65889SOL     OW99563  12.950   0.838   8.331
65889SOL    HW199564  12.874   0.794   8.367
65889SOL    HW299565  12.916   0.890   8.258
65890SOL     OW99566   3.395   0.067   7.432
65890SOL    HW199567   3.439   0.076   7.347
65890SOL    HW299568   3.317   0.122   7.424
65891SOL     OW99569   8.445   7.148   4.728
65891SOL    HW199570   8.483   7.080   4.673
65891SOL    HW299571   8.519   7.205   4.749
65892SOL     OW99572   8.440   7.928   8.965
65892SOL    HW199573   8.366   7.868   8.966
65892SOL    HW299574   8.417   7.997   9.026
65893SOL     OW99575  11.851   0.840   8.325
65893SOL    HW199576  11.882   0.834   8.415
65893SOL    HW299577  11.759   0.816   8.329
65894SOL     OW99578   3.431   4.132   9.453
65894SOL    HW199579   3.441   4.099   9.364
65894SOL    HW299580   3.473   4.218   9.451
65895SOL     OW99581   4.689   6.977   4.645
65895SOL    HW199582   4.660   7.009   4.730
65895SOL    HW299583   4.751   7.043   4.614
65896SOL     OW99584   7.437   3.667   7.593
65896SOL    HW199585   7.474   3.707   7.672
65896SOL    HW299586   7.471   3.720   7.521
65897SOL     OW99587   3.774  11.653   7.454
65897SOL    HW199588   3.834  11.579   7.448
65897SOL    HW299589   3.726  11.638   7.536
65898SOL     OW99590   1.457   2.848   3.674
65898SOL    HW199591   1.442   2.942   3.666
65898SOL    HW299592   1.524   2.841   3.743
65899SOL     OW99593  13.519   8.938   7.205
65899SOL    HW199594  13.510   8.917   7.112
65899SOL    HW299595  13.454   9.007   7.219
65900SOL     OW99596   3.657   5.721   8.867
65900SOL    HW199597   3.716   5.730   8.942
65900SOL    HW299598   3.711   5.744   8.791
65901SOL     OW99599   6.955   2.491  10.059
65901SOL    HW199600   7.012   2.489   9.983
65901SOL    HW299601   7.000   2.440  10.125
65902SOL     OW99602  11.881  13.588   2.882
65902SOL    HW199603  11.843  13.500   2.887
65902SOL    HW299604  11.860  13.628   2.966
65903SOL     OW99605  13.915   2.430   6.799
65903SOL    HW199606  13.861   2.368   6.848
65903SOL    HW299607  14.003   2.420   6.836
65904SOL     OW99608  12.370  12.216   8.506
65904SOL    HW199609  12.443  12.211   8.444
65904SOL    HW299610  12.404  12.179   8.587
65905SOL     OW99611   2.341   3.482   2.991
65905SOL    HW199612   2.435   3.501   2.996
65905SOL    HW299613   2.330   3.440   2.906
65906SOL     OW99614   9.796  11.798   6.665
65906SOL    HW199615   9.761  11.719   6.625
65906SOL    HW299616   9.748  11.807   6.747
65907SOL     OW99617   8.090  11.176   2.314
65907SOL    HW199618   8.099  11.082   2.295
65907SOL    HW299619   8.077  11.180   2.408
65908SOL     OW99620   1.753   2.739   4.532
65908SOL    HW199621   1.741   2.647   4.556
65908SOL    HW299622   1.758   2.738   4.436
65909SOL     OW99623   3.039   4.259   6.401
65909SOL    HW199624   3.031   4.349   6.371
65909SOL    HW299625   2.977   4.253   6.474
65910SOL     OW99626  12.706   0.039   9.095
65910SOL    HW199627  12.678   0.097   9.166
65910SOL    HW299628  12.625  14.863   9.067
65911SOL     OW99629   4.181  12.463   6.198
65911SOL    HW199630   4.174  12.368   6.202
65911SOL    HW299631   4.184  12.483   6.104
65912SOL     OW99632   6.102  10.558   7.290
65912SOL    HW199633   6.107  10.504   7.211
65912SOL    HW299634   6.022  10.609   7.280
65913SOL     OW99635   7.600  12.304  10.435
65913SOL    HW199636   7.514  12.342  10.417
65913SOL    HW299637   7.660  12.379  10.435
65914SOL     OW99638  13.513  11.590  14.171
65914SOL    HW199639  13.475  11.668  14.211
65914SOL    HW299640  13.493  11.599  14.078
65915SOL     OW99641   2.420   6.463  12.863
65915SOL    HW199642   2.372   6.545  12.856
65915SOL    HW299643   2.446   6.442  12.773
65916SOL     OW99644  12.499   1.469   0.934
65916SOL    HW199645  12.567   1.417   0.891
65916SOL    HW299646  12.419   1.449   0.884
65917SOL     OW99647   9.652   7.653   1.895
65917SOL    HW199648   9.625   7.703   1.973
65917SOL    HW299649   9.614   7.567   1.908
65918SOL     OW99650   1.239   2.409   1.397
65918SOL    HW199651   1.242   2.364   1.482
65918SOL    HW299652   1.189   2.489   1.414
65919SOL     OW99653   6.522  11.606   3.176
65919SOL    HW199654   6.549  11.519   3.205
65919SOL    HW299655   6.603  11.656   3.172
65920SOL     OW99656   7.839   1.329  11.060
65920SOL    HW199657   7.916   1.302  11.009
65920SOL    HW299658   7.843   1.425  11.061
65921SOL     OW99659   7.463   0.763   5.905
65921SOL    HW199660   7.446   0.840   5.851
65921SOL    HW299661   7.549   0.778   5.943
65922SOL     OW99662   3.809   4.901  12.666
65922SOL    HW199663   3.781   4.847  12.739
65922SOL    HW299664   3.892   4.862  12.637
65923SOL     OW99665   4.586   2.533   1.265
65923SOL    HW199666   4.666   2.502   1.222
65923SOL    HW299667   4.575   2.474   1.340
65924SOL     OW99668   8.972   0.637  13.365
65924SOL    HW199669   8.916   0.703  13.406
65924SOL    HW299670   9.060   0.675  13.367
65925SOL     OW99671  10.431   1.673  12.348
65925SOL    HW199672  10.432   1.635  12.436
65925SOL    HW299673  10.522   1.665  12.318
65926SOL     OW99674   8.192   6.213  11.980
65926SOL    HW199675   8.099   6.202  11.960
65926SOL    HW299676   8.203   6.168  12.064
65927SOL     OW99677   4.397   6.604   1.415
65927SOL    HW199678   4.407   6.603   1.510
65927SOL    HW299679   4.353   6.522   1.394
65928SOL     OW99680   0.998  14.263   6.470
65928SOL    HW199681   0.966  14.276   6.381
65928SOL    HW299682   0.931  14.303   6.526
65929SOL     OW99683   0.158   5.827   9.213
65929SOL    HW199684   0.168   5.752   9.154
65929SOL    HW299685   0.064   5.831   9.231
65930SOL     OW99686   4.589   5.979   7.635
65930SOL    HW199687   4.624   6.057   7.678
65930SOL    HW299688   4.551   5.928   7.706
65931SOL     OW99689  11.946   8.061   1.921
65931SOL    HW199690  11.898   8.120   1.979
65931SOL    HW299691  11.911   8.078   1.834
65932SOL     OW99692   7.867   4.066   2.227
65932SOL    HW199693   7.817   4.140   2.193
65932SOL    HW299694   7.805   3.993   2.226
65933SOL     OW99695  10.046   9.077   9.472
65933SOL    HW199696  10.126   9.126   9.451
65933SOL    HW299697  10.024   9.032   9.390
65934SOL     OW99698  14.340   8.822   6.633
65934SOL    HW199699  14.360   8.730   6.618
65934SOL    HW299700  14.400   8.849   6.702
65935SOL     OW99701   8.765   7.704  11.666
65935SOL    HW199702   8.805   7.617  11.670
65935SOL    HW299703   8.833   7.763  11.697
65936SOL     OW99704  14.598  13.105   8.833
65936SOL    HW199705  14.673  13.149   8.874
65936SOL    HW299706  14.635  13.025   8.795
65937SOL     OW99707   0.877  10.751   9.710
65937SOL    HW199708   0.788  10.756   9.744
65937SOL    HW299709   0.931  10.789   9.780
65938SOL     OW99710  13.813   1.599  11.703
65938SOL    HW199711  13.865   1.639  11.773
65938SOL    HW299712  13.827   1.505  11.714
65939SOL     OW99713   7.473  14.369  11.295
65939SOL    HW199714   7.423  14.310  11.351
65939SOL    HW299715   7.542  14.315  11.257
65940SOL     OW99716   2.283  13.017   9.585
65940SOL    HW199717   2.353  12.995   9.524
65940SOL    HW299718   2.319  13.089   9.637
65941SOL     OW99719  10.152  13.130   8.446
65941SOL    HW199720  10.072  13.083   8.420
65941SOL    HW299721  10.169  13.101   8.536
65942SOL     OW99722   6.166  10.962   3.993
65942SOL    HW199723   6.229  10.891   4.004
65942SOL    HW299724   6.088  10.933   4.039
65943SOL     OW99725   9.905   2.439   7.025
65943SOL    HW199726   9.997   2.463   7.022
65943SOL    HW299727   9.860   2.509   6.978
65944SOL     OW99728   6.265  11.968   5.239
65944SOL    HW199729   6.248  11.876   5.222
65944SOL    HW299730   6.267  11.974   5.335
65945SOL     OW99731  10.019   3.124   2.686
65945SOL    HW199732  10.027   3.047   2.629
65945SOL    HW299733   9.997   3.088   2.772
65946SOL     OW99734   0.683   6.589   7.548
65946SOL    HW199735   0.616   6.534   7.588
65946SOL    HW299736   0.721   6.638   7.621
65947SOL     OW99737   5.756   7.335  10.236
65947SOL    HW199738   5.811   7.406  10.202
65947SOL    HW299739   5.715   7.372  10.314
65948SOL     OW99740   5.126   6.828  14.638
65948SOL    HW199741   5.120   6.802  14.730
65948SOL    HW299742   5.186   6.902  14.638
65949SOL     OW99743   3.056   6.816  14.001
65949SOL    HW199744   2.976   6.779  14.037
65949SOL    HW299745   3.090   6.872  14.072
65950SOL     OW99746  14.181   7.578   1.756
65950SOL    HW199747  14.249   7.612   1.814
65950SOL    HW299748  14.222   7.504   1.711
65951SOL     OW99749   9.064   2.500   5.135
65951SOL    HW199750   9.061   2.472   5.043
65951SOL    HW299751   9.030   2.589   5.134
65952SOL     OW99752  10.548   6.923   6.437
65952SOL    HW199753  10.520   6.950   6.350
65952SOL    HW299754  10.602   6.996   6.469
65953SOL     OW99755   0.061  13.539   9.505
65953SOL    HW199756   0.001  13.472   9.471
65953SOL    HW299757   0.004  13.611   9.531
65954SOL     OW99758  10.332   2.050  14.195
65954SOL    HW199759  10.367   2.083  14.278
65954SOL    HW299760  10.341   1.955  14.202
65955SOL     OW99761  11.366   0.723  10.229
65955SOL    HW199762  11.308   0.690  10.159
65955SOL    HW299763  11.438   0.660  10.232
65956SOL     OW99764   2.060   7.905   6.922
65956SOL    HW199765   2.128   7.839   6.928
65956SOL    HW299766   2.058   7.930   6.829
65957SOL     OW99767  13.348  11.151   3.622
65957SOL    HW199768  13.399  11.094   3.565
65957SOL    HW299769  13.296  11.091   3.676
65958SOL     OW99770  14.052  13.764   8.565
65958SOL    HW199771  14.096  13.707   8.628
65958SOL    HW299772  14.089  13.851   8.581
65959SOL     OW99773  12.679  12.913  10.254
65959SOL    HW199774  12.630  12.977  10.201
65959SOL    HW299775  12.764  12.955  10.269
65960SOL     OW99776   3.702   2.412   8.155
65960SOL    HW199777   3.786   2.390   8.196
65960SOL    HW299778   3.655   2.329   8.151
65961SOL     OW99779   1.610   5.784  12.581
65961SOL    HW199780   1.541   5.782  12.648
65961SOL    HW299781   1.666   5.708  12.602
65962SOL     OW99782   8.175  14.508   6.000
65962SOL    HW199783   8.106  14.490   5.936
65962SOL    HW299784   8.256  14.498   5.951
65963SOL     OW99785   3.710   9.749   6.126
65963SOL    HW199786   3.760   9.784   6.200
65963SOL    HW299787   3.708   9.821   6.063
65964SOL     OW99788  14.333  14.123   2.760
65964SOL    HW199789  14.263  14.178   2.793
65964SOL    HW299790  14.312  14.035   2.793
65965SOL     OW99791   5.760  12.294   7.537
65965SOL    HW199792   5.776  12.231   7.466
65965SOL    HW299793   5.667  12.281   7.559
65966SOL     OW99794   4.672  14.329   1.062
65966SOL    HW199795   4.632  14.401   1.110
65966SOL    HW299796   4.733  14.289   1.125
65967SOL     OW99797   9.470   8.446  11.176
65967SOL    HW199798   9.484   8.458  11.082
65967SOL    HW299799   9.399   8.382  11.182
65968SOL     OW99800   4.372   7.152  13.403
65968SOL    HW199801   4.391   7.239  13.439
65968SOL    HW299802   4.278   7.155  13.384
65969SOL     OW99803  11.309  12.969   4.226
65969SOL    HW199804  11.218  12.947   4.209
65969SOL    HW299805  11.351  12.884   4.243
65970SOL     OW99806   3.109  13.550   2.165
65970SOL    HW199807   3.141  13.596   2.088
65970SOL    HW299808   3.126  13.457   2.146
65971SOL     OW99809   0.979  14.861   3.256
65971SOL    HW199810   1.001   0.068   3.311
65971SOL    HW299811   1.021   0.012   3.172
65972SOL     OW99812   3.939  11.522  11.162
65972SOL    HW199813   3.915  11.442  11.115
65972SOL    HW299814   3.955  11.494  11.252
65973SOL     OW99815   7.805  11.498   9.589
65973SOL    HW199816   7.867  11.558   9.631
65973SOL    HW299817   7.826  11.412   9.626
65974SOL     OW99818   6.724   2.790   1.709
65974SOL    HW199819   6.664   2.717   1.726
65974SOL    HW299820   6.807   2.762   1.746
65975SOL     OW99821   4.711   8.245  12.632
65975SOL    HW199822   4.667   8.170  12.593
65975SOL    HW299823   4.791   8.210  12.671
65976SOL     OW99824  14.474  11.748   6.694
65976SOL    HW199825  14.448  11.663   6.730
65976SOL    HW299826  14.560  11.765   6.732
65977SOL     OW99827   8.371   9.875  12.532
65977SOL    HW199828   8.440   9.818  12.565
65977SOL    HW299829   8.417   9.955  12.506
65978SOL     OW99830  11.003   5.017   1.203
65978SOL    HW199831  11.071   5.048   1.264
65978SOL    HW299832  10.923   5.014   1.255
65979SOL     OW99833  11.838  10.361  10.812
65979SOL    HW199834  11.801  10.309  10.740
65979SOL    HW299835  11.819  10.451  10.788
65980SOL     OW99836  12.734   7.037  13.773
65980SOL    HW199837  12.642   7.039  13.799
65980SOL    HW299838  12.740   6.966  13.709
65981SOL     OW99839   2.738  11.485   1.912
65981SOL    HW199840   2.820  11.471   1.865
65981SOL    HW299841   2.762  11.542   1.985
65982SOL     OW99842   7.014  14.393   8.563
65982SOL    HW199843   6.950  14.385   8.492
65982SOL    HW299844   6.963  14.424   8.638
65983SOL     OW99845   4.482   3.300   1.151
65983SOL    HW199846   4.574   3.323   1.140
65983SOL    HW299847   4.480   3.205   1.145
65984SOL     OW99848   2.657   6.944   5.345
65984SOL    HW199849   2.661   7.032   5.384
65984SOL    HW299850   2.563   6.925   5.339
65985SOL     OW99851  12.285   7.762   9.973
65985SOL    HW199852  12.243   7.731  10.054
65985SOL    HW299853  12.293   7.856   9.985
65986SOL     OW99854   7.603   8.974   4.976
65986SOL    HW199855   7.617   9.037   5.047
65986SOL    HW299856   7.679   8.985   4.919
65987SOL     OW99857   0.346   6.900   5.032
65987SOL    HW199858   0.385   6.871   4.950
65987SOL    HW299859   0.417   6.897   5.096
65988SOL     OW99860  12.083   6.454   0.430
65988SOL    HW199861  12.106   6.527   0.487
65988SOL    HW299862  12.110   6.376   0.478
65989SOL     OW99863   0.450   1.141   1.849
65989SOL    HW199864   0.531   1.128   1.899
65989SOL    HW299865   0.385   1.164   1.915
65990SOL     OW99866   9.993   5.028   1.817
65990SOL    HW199867   9.906   5.067   1.828
65990SOL    HW299868   9.983   4.968   1.743
65991SOL     OW99869   2.491   2.323   4.134
65991SOL    HW199870   2.483   2.389   4.065
65991SOL    HW299871   2.432   2.353   4.203
65992SOL     OW99872  13.294   6.698   1.801
65992SOL    HW199873  13.298   6.645   1.880
65992SOL    HW299874  13.362   6.662   1.744
65993SOL     OW99875   6.762  13.007  11.310
65993SOL    HW199876   6.718  13.064  11.374
65993SOL    HW299877   6.773  13.062  11.232
65994SOL     OW99878   1.413   4.802   4.876
65994SOL    HW199879   1.437   4.748   4.951
65994SOL    HW299880   1.434   4.748   4.799
65995SOL     OW99881   2.985  14.276  11.170
65995SOL    HW199882   2.895  14.265  11.203
65995SOL    HW299883   2.994  14.370  11.155
65996SOL     OW99884   1.965   1.068   8.699
65996SOL    HW199885   1.973   1.103   8.787
65996SOL    HW299886   1.992   1.139   8.641
65997SOL     OW99887   6.913   8.221  13.655
65997SOL    HW199888   6.959   8.147  13.615
65997SOL    HW299889   6.942   8.220  13.747
65998SOL     OW99890   0.953  11.864  11.098
65998SOL    HW199891   0.858  11.856  11.098
65998SOL    HW299892   0.980  11.831  11.183
65999SOL     OW99893   3.397   9.354   7.618
65999SOL    HW199894   3.327   9.306   7.574
65999SOL    HW299895   3.455   9.382   7.546
66000SOL     OW99896   4.651   9.182   7.590
66000SOL    HW199897   4.558   9.161   7.589
66000SOL    HW299898   4.665   9.230   7.671
66001SOL     OW99899   9.163   5.768   4.127
66001SOL    HW199900   9.204   5.760   4.213
66001SOL    HW299901   9.233   5.747   4.065
66002SOL     OW99902   1.507   1.531   8.667
66002SOL    HW199903   1.497   1.599   8.600
66002SOL    HW299904   1.557   1.573   8.737
66003SOL     OW99905  11.116   5.330  12.935
66003SOL    HW199906  11.210   5.321  12.923
66003SOL    HW299907  11.102   5.319  13.029
66004SOL     OW99908  13.952   2.875  12.083
66004SOL    HW199909  13.934   2.969  12.087
66004SOL    HW299910  13.955   2.855  11.989
66005SOL     OW99911  11.282  12.034   0.255
66005SOL    HW199912  11.219  11.970   0.224
66005SOL    HW299913  11.230  12.113   0.272
66006SOL     OW99914   9.781  13.346   0.349
66006SOL    HW199915   9.842  13.272   0.354
66006SOL    HW299916   9.706  13.319   0.402
66007SOL     OW99917   9.997  12.302  10.685
66007SOL    HW199918  10.070  12.347  10.644
66007SOL    HW299919   9.921  12.325  10.631
66008SOL     OW99920   6.525  10.759   6.048
66008SOL    HW199921   6.520  10.846   6.088
66008SOL    HW299922   6.606  10.721   6.084
66009SOL     OW99923   6.090   5.367   1.769
66009SOL    HW199924   6.131   5.284   1.795
66009SOL    HW299925   5.999   5.343   1.749
66010SOL     OW99926   3.362   1.165   1.751
66010SOL    HW199927   3.412   1.192   1.828
66010SOL    HW299928   3.405   1.210   1.678
66011SOL     OW99929   5.083   2.619   0.146
66011SOL    HW199930   5.172   2.610   0.181
66011SOL    HW299931   5.065   2.713   0.150
66012SOL     OW99932   2.710   6.810  14.581
66012SOL    HW199933   2.771   6.771  14.643
66012SOL    HW299934   2.623   6.787  14.615
66013SOL     OW99935  12.685   4.117   3.370
66013SOL    HW199936  12.713   4.026   3.361
66013SOL    HW299937  12.700   4.138   3.462
66014SOL     OW99938  11.472   4.049   4.529
66014SOL    HW199939  11.539   3.999   4.484
66014SOL    HW299940  11.400   3.987   4.543
66015SOL     OW99941  13.129   6.495  14.522
66015SOL    HW199942  13.076   6.563  14.482
66015SOL    HW299943  13.078   6.466  14.598
66016SOL     OW99944   5.523   5.036   1.699
66016SOL    HW199945   5.594   5.008   1.641
66016SOL    HW299946   5.518   5.131   1.687
66017SOL     OW99947   8.507   5.118   5.842
66017SOL    HW199948   8.465   5.109   5.757
66017SOL    HW299949   8.449   5.176   5.892
66018SOL     OW99950   7.453   5.300   8.126
66018SOL    HW199951   7.535   5.257   8.103
66018SOL    HW299952   7.389   5.229   8.132
66019SOL     OW99953   2.497   3.917   7.910
66019SOL    HW199954   2.448   3.838   7.931
66019SOL    HW299955   2.554   3.892   7.837
66020SOL     OW99956   6.278   4.695   7.535
66020SOL    HW199957   6.342   4.689   7.465
66020SOL    HW299958   6.265   4.604   7.563
66021SOL     OW99959  14.555  11.776   8.828
66021SOL    HW199960  14.642  11.786   8.790
66021SOL    HW299961  14.537  11.682   8.823
66022SOL     OW99962   0.652   7.157   7.926
66022SOL    HW199963   0.734   7.160   7.975
66022SOL    HW299964   0.647   7.242   7.883
66023SOL     OW99965   1.736  14.064   5.349
66023SOL    HW199966   1.809  14.116   5.317
66023SOL    HW299967   1.660  14.099   5.302
66024SOL     OW99968  13.463   1.981   1.181
66024SOL    HW199969  13.431   1.992   1.270
66024SOL    HW299970  13.452   2.067   1.140
66025SOL     OW99971   5.967  10.521  12.660
66025SOL    HW199972   6.045  10.576  12.668
66025SOL    HW299973   5.986  10.464  12.585
66026SOL     OW99974  11.538   2.150  12.923
66026SOL    HW199975  11.524   2.154  13.018
66026SOL    HW299976  11.578   2.064  12.908
66027SOL     OW99977   2.416  12.793   5.200
66027SOL    HW199978   2.381  12.707   5.223
66027SOL    HW299979   2.377  12.812   5.114
66028SOL     OW99980  14.027   0.005   4.378
66028SOL    HW199981  14.101  14.821   4.410
66028SOL    HW299982  13.964   0.002   4.450
66029SOL     OW99983  11.848   5.404  10.118
66029SOL    HW199984  11.783   5.463  10.082
66029SOL    HW299985  11.841   5.324  10.065
66030SOL     OW99986  10.319  13.486  10.790
66030SOL    HW199987  10.243  13.534  10.758
66030SOL    HW299988  10.285  13.399  10.810
66031SOL     OW99989   6.194   9.790   9.653
66031SOL    HW199990   6.163   9.876   9.680
66031SOL    HW299991   6.263   9.808   9.589
66032SOL     OW99992   1.604  13.489   3.578
66032SOL    HW199993   1.698  13.490   3.558
66032SOL    HW299994   1.564  13.540   3.507
66033SOL     OW99995   1.567  14.123  10.024
66033SOL    HW199996   1.582  14.028  10.026
66033SOL    HW299997   1.510  14.136   9.948
66034SOL     OW99998   1.268  14.013   1.599
66034SOL    HW199999   1.357  14.049   1.604
66034SOL    HW2    0   1.238  14.011   1.690
66035SOL     OW    1   3.511   7.164   1.792
66035SOL    HW1    2   3.456   7.146   1.716
66035SOL    HW2    3   3.490   7.096   1.855
66036SOL     OW    4  10.773  10.956   1.809
66036SOL    HW1    5  10.701  10.998   1.857
66036SOL    HW2    6  10.730  10.902   1.743
66037SOL     OW    7  14.231   3.629   8.337
66037SOL    HW1    8  14.271   3.543   8.342
66037SOL    HW2    9  14.140   3.615   8.363
66038SOL     OW   10  10.331   1.104   6.948
66038SOL    HW1   11  10.331   1.186   6.898
66038SOL    HW2   12  10.292   1.128   7.033
66039SOL     OW   13  13.125   0.764   5.805
66039SOL    HW1   14  13.168   0.710   5.738
66039SOL    HW2   15  13.092   0.700   5.868
66040SOL     OW   16   8.903   6.652   3.540
66040SOL    HW1   17   8.957   6.700   3.604
66040SOL    HW2   18   8.818   6.645   3.582
66041SOL     OW   19   4.673  14.657   8.099
66041SOL    HW1   20   4.699  14.623   8.185
66041SOL    HW2   21   4.668  14.751   8.111
66042SOL     OW   22  11.274  11.419  10.822
66042SOL    HW1   23  11.342  11.472  10.780
66042SOL    HW2   24  11.311  11.331  10.827
66043SOL     OW   25  12.963  11.001  14.511
66043SOL    HW1   26  12.997  11.074  14.459
66043SOL    HW2   27  12.881  10.976  14.468
66044SOL     OW   28  13.313   6.942   7.782
66044SOL    HW1   29  13.346   6.864   7.738
66044SOL    HW2   30  13.295   6.914   7.871
66045SOL     OW   31   9.943  14.749   6.610
66045SOL    HW1   32   9.892  14.683   6.656
66045SOL    HW2   33  10.027  14.705   6.592
66046SOL     OW   34   1.672   5.316   2.937
66046SOL    HW1   35   1.677   5.275   3.024
66046SOL    HW2   36   1.740   5.384   2.939
66047SOL     OW   37  12.757  12.312   0.714
66047SOL    HW1   38  12.849  12.285   0.714
66047SOL    HW2   39  12.717  12.263   0.643
66048SOL     OW   40   4.022   7.861   4.545
66048SOL    HW1   41   4.117   7.859   4.532
66048SOL    HW2   42   4.011   7.866   4.640
66049SOL     OW   43   3.733   4.970   3.575
66049SOL    HW1   44   3.824   4.979   3.548
66049SOL    HW2   45   3.686   5.038   3.527
66050SOL     OW   46   5.375   7.350  12.911
66050SOL    HW1   47   5.372   7.281  12.976
66050SOL    HW2   48   5.453   7.331  12.859
66051SOL     OW   49  14.054   2.047   9.981
66051SOL    HW1   50  14.057   2.054  10.077
66051SOL    HW2   51  14.046   2.138   9.951
66052SOL     OW   52  12.545   9.315   2.931
66052SOL    HW1   53  12.475   9.265   2.891
66052SOL    HW2   54  12.593   9.251   2.984
66053SOL     OW   55  13.184   2.321   9.603
66053SOL    HW1   56  13.175   2.334   9.508
66053SOL    HW2   57  13.172   2.227   9.615
66054SOL     OW   58   1.017   9.374   8.371
66054SOL    HW1   59   1.033   9.281   8.355
66054SOL    HW2   60   1.068   9.418   8.303
66055SOL     OW   61   4.262   6.117   3.270
66055SOL    HW1   62   4.291   6.104   3.360
66055SOL    HW2   63   4.198   6.047   3.255
66056SOL     OW   64   8.279   6.427  10.108
66056SOL    HW1   65   8.260   6.517  10.081
66056SOL    HW2   66   8.217   6.410  10.179
66057SOL     OW   67   3.667   7.566   1.712
66057SOL    HW1   68   3.737   7.516   1.755
66057SOL    HW2   69   3.586   7.532   1.750
66058SOL     OW   70   6.950  10.908   4.625
66058SOL    HW1   71   6.955  10.844   4.554
66058SOL    HW2   72   6.875  10.963   4.602
66059SOL     OW   73  10.599   0.770   5.062
66059SOL    HW1   74  10.504   0.779   5.076
66059SOL    HW2   75  10.612   0.797   4.971
66060SOL     OW   76  14.137  12.741   4.124
66060SOL    HW1   77  14.147  12.825   4.078
66060SOL    HW2   78  14.060  12.754   4.180
66061SOL     OW   79   1.226  13.878  13.118
66061SOL    HW1   80   1.306  13.831  13.097
66061SOL    HW2   81   1.156  13.813  13.106
66062SOL     OW   82  12.094   0.585   6.125
66062SOL    HW1   83  12.139   0.507   6.094
66062SOL    HW2   84  12.105   0.649   6.055
66063SOL     OW   85  11.806   5.463   0.400
66063SOL    HW1   86  11.774   5.376   0.424
66063SOL    HW2   87  11.726   5.513   0.379
66064SOL     OW   88  12.956   3.648  13.076
66064SOL    HW1   89  13.024   3.626  13.139
66064SOL    HW2   90  13.000   3.702  13.010
66065SOL     OW   91  11.090   0.332   0.288
66065SOL    HW1   92  10.998   0.360   0.288
66065SOL    HW2   93  11.087   0.243   0.253
66066SOL     OW   94   3.924   6.131   8.017
66066SOL    HW1   95   3.967   6.215   8.000
66066SOL    HW2   96   3.844   6.135   7.965
66067SOL     OW   97   2.407   3.015  11.607
66067SOL    HW1   98   2.452   3.081  11.659
66067SOL    HW2   99   2.452   3.016  11.522
66068SOL     OW  100   7.422   9.546  10.557
66068SOL    HW1  101   7.364   9.592  10.497
66068SOL    HW2  102   7.438   9.608  10.628
66069SOL     OW  103   6.929  11.754   4.330
66069SOL    HW1  104   6.969  11.818   4.271
66069SOL    HW2  105   6.874  11.700   4.273
66070SOL     OW  106   6.774  13.824   3.487
66070SOL    HW1  107   6.719  13.877   3.545
66070SOL    HW2  108   6.799  13.884   3.417
66071SOL     OW  109   6.342  11.733   1.479
66071SOL    HW1  110   6.251  11.760   1.466
66071SOL    HW2  111   6.370  11.780   1.558
66072SOL     OW  112  13.585   4.167   6.510
66072SOL    HW1  113  13.648   4.201   6.573
66072SOL    HW2  114  13.604   4.073   6.506
66073SOL     OW  115   4.086   8.420   6.062
66073SOL    HW1  116   4.093   8.358   5.989
66073SOL    HW2  117   4.001   8.462   6.049
66074SOL     OW  118   3.665   7.418  12.998
66074SOL    HW1  119   3.691   7.449  13.085
66074SOL    HW2  120   3.571   7.399  13.006
66075SOL     OW  121  11.000   0.964   8.209
66075SOL    HW1  122  11.016   1.050   8.247
66075SOL    HW2  123  11.086   0.921   8.211
66076SOL     OW  124  10.477   0.486   9.091
66076SOL    HW1  125  10.489   0.577   9.062
66076SOL    HW2  126  10.516   0.484   9.179
66077SOL     OW  127   4.234   2.595  14.697
66077SOL    HW1  128   4.248   2.539  14.773
66077SOL    HW2  129   4.168   2.658  14.725
66078SOL     OW  130   9.380   1.177   7.988
66078SOL    HW1  131   9.364   1.266   8.020
66078SOL    HW2  132   9.335   1.121   8.050
66079SOL     OW  133   7.803   5.619   8.263
66079SOL    HW1  134   7.783   5.526   8.257
66079SOL    HW2  135   7.874   5.632   8.200
66080SOL     OW  136  13.405   1.844   9.999
66080SOL    HW1  137  13.415   1.839  10.094
66080SOL    HW2  138  13.483   1.892   9.970
66081SOL     OW  139  14.807   1.839   9.890
66081SOL    HW1  140  14.776   1.757   9.852
66081SOL    HW2  141  14.735   1.901   9.875
66082SOL     OW  142   9.939   5.649   4.914
66082SOL    HW1  143   9.992   5.615   4.986
66082SOL    HW2  144   9.887   5.719   4.954
66083SOL     OW  145   1.938   8.427   3.890
66083SOL    HW1  146   1.956   8.336   3.865
66083SOL    HW2  147   2.014   8.476   3.860
66084SOL     OW  148   7.544   4.982   7.731
66084SOL    HW1  149   7.542   5.077   7.740
66084SOL    HW2  150   7.476   4.962   7.667
66085SOL     OW  151   5.986   7.507   4.498
66085SOL    HW1  152   6.003   7.426   4.547
66085SOL    HW2  153   6.072   7.549   4.490
66086SOL     OW  154   0.715   1.960   7.174
66086SOL    HW1  155   0.763   2.028   7.221
66086SOL    HW2  156   0.717   1.988   7.083
66087SOL     OW  157   7.868  13.623   1.778
66087SOL    HW1  158   7.940  13.645   1.719
66087SOL    HW2  159   7.907  13.569   1.846
66088SOL     OW  160  12.939   9.851   7.976
66088SOL    HW1  161  12.917   9.839   7.883
66088SOL    HW2  162  12.860   9.887   8.014
66089SOL     OW  163   0.670   5.154   6.821
66089SOL    HW1  164   0.749   5.189   6.862
66089SOL    HW2  165   0.613   5.230   6.809
66090SOL     OW  166  12.971  14.430   7.619
66090SOL    HW1  167  12.921  14.469   7.547
66090SOL    HW2  168  12.904  14.403   7.682
66091SOL     OW  169   4.715   2.790  14.405
66091SOL    HW1  170   4.726   2.775  14.311
66091SOL    HW2  171   4.620   2.783  14.419
66092SOL     OW  172   1.237   2.665   8.010
66092SOL    HW1  173   1.198   2.744   8.048
66092SOL    HW2  174   1.260   2.690   7.921
66093SOL     OW  175  13.005   9.950  13.348
66093SOL    HW1  176  13.058   9.998  13.411
66093SOL    HW2  177  13.001  10.006  13.271
66094SOL     OW  178  10.049   2.276   6.003
66094SOL    HW1  179  10.079   2.290   5.913
66094SOL    HW2  180  10.049   2.181   6.014
66095SOL     OW  181  12.304   7.452  10.348
66095SOL    HW1  182  12.283   7.510  10.422
66095SOL    HW2  183  12.399   7.457  10.341
66096SOL     OW  184  13.956   5.517  14.378
66096SOL    HW1  185  14.011   5.562  14.443
66096SOL    HW2  186  13.977   5.562  14.296
66097SOL     OW  187   6.539   4.886   7.025
66097SOL    HW1  188   6.499   4.938   7.095
66097SOL    HW2  189   6.627   4.867   7.057
66098SOL     OW  190  13.042   9.685   3.267
66098SOL    HW1  191  13.065   9.695   3.175
66098SOL    HW2  192  13.094   9.610   3.297
66099SOL     OW  193   9.346   1.780  10.145
66099SOL    HW1  194   9.409   1.778  10.217
66099SOL    HW2  195   9.399   1.799  10.067
66100SOL     OW  196   1.132  10.927  14.013
66100SOL    HW1  197   1.100  10.899  14.098
66100SOL    HW2  198   1.063  10.984  13.978
66101SOL     OW  199   2.175   7.424  13.562
66101SOL    HW1  200   2.211   7.482  13.629
66101SOL    HW2  201   2.114   7.367  13.610
66102SOL     OW  202   3.785   7.248   2.358
66102SOL    HW1  203   3.722   7.177   2.347
66102SOL    HW2  204   3.865   7.205   2.386
66103SOL     OW  205  14.004   2.019   4.030
66103SOL    HW1  206  13.922   2.061   4.004
66103SOL    HW2  207  13.986   1.984   4.117
66104SOL     OW  208   5.636   6.842   5.773
66104SOL    HW1  209   5.627   6.912   5.708
66104SOL    HW2  210   5.623   6.886   5.857
66105SOL     OW  211   6.343   9.098   0.939
66105SOL    HW1  212   6.278   9.120   0.871
66105SOL    HW2  213   6.410   9.166   0.930
66106SOL     OW  214  11.076   3.650   0.532
66106SOL    HW1  215  11.127   3.604   0.465
66106SOL    HW2  216  11.057   3.735   0.493
66107SOL     OW  217   9.081   7.877  10.574
66107SOL    HW1  218   8.999   7.911  10.609
66107SOL    HW2  219   9.061   7.788  10.545
66108SOL     OW  220  12.891   7.552   1.503
66108SOL    HW1  221  12.815   7.608   1.486
66108SOL    HW2  222  12.945   7.602   1.563
66109SOL     OW  223   8.140   4.694  13.418
66109SOL    HW1  224   8.051   4.660  13.423
66109SOL    HW2  225   8.196   4.616  13.419
66110SOL     OW  226  10.249   9.174   4.677
66110SOL    HW1  227  10.310   9.223   4.733
66110SOL    HW2  228  10.205   9.242   4.625
66111SOL     OW  229  13.348   0.671   2.147
66111SOL    HW1  230  13.366   0.765   2.140
66111SOL    HW2  231  13.434   0.630   2.139
66112SOL     OW  232  10.918   5.319   2.804
66112SOL    HW1  233  10.909   5.223   2.806
66112SOL    HW2  234  10.980   5.335   2.733
66113SOL     OW  235   1.395  13.336   1.805
66113SOL    HW1  236   1.341  13.408   1.839
66113SOL    HW2  237   1.335  13.262   1.799
66114SOL     OW  238   4.168   0.918   7.498
66114SOL    HW1  239   4.139   0.903   7.408
66114SOL    HW2  240   4.230   0.990   7.492
66115SOL     OW  241   8.417  13.735  10.127
66115SOL    HW1  242   8.463  13.779  10.198
66115SOL    HW2  243   8.487  13.701  10.071
66116SOL     OW  244  11.868   7.067   5.626
66116SOL    HW1  245  11.814   6.996   5.659
66116SOL    HW2  246  11.869   7.055   5.531
66117SOL     OW  247   9.604   9.880   2.281
66117SOL    HW1  248   9.612   9.808   2.219
66117SOL    HW2  249   9.668   9.861   2.350
66118SOL     OW  250  12.713   1.772   9.639
66118SOL    HW1  251  12.764   1.847   9.609
66118SOL    HW2  252  12.757   1.744   9.719
66119SOL     OW  253  12.213   3.055   9.520
66119SOL    HW1  254  12.208   3.134   9.574
66119SOL    HW2  255  12.195   3.086   9.431
66120SOL     OW  256  13.534   5.694   7.430
66120SOL    HW1  257  13.559   5.602   7.432
66120SOL    HW2  258  13.607   5.738   7.387
66121SOL     OW  259   0.682   4.192   5.408
66121SOL    HW1  260   0.653   4.275   5.445
66121SOL    HW2  261   0.615   4.169   5.344
66122SOL     OW  262  10.199   4.930   6.542
66122SOL    HW1  263  10.104   4.919   6.544
66122SOL    HW2  264  10.212   5.016   6.502
66123SOL     OW  265   0.715   2.656   9.127
66123SOL    HW1  266   0.628   2.695   9.118
66123SOL    HW2  267   0.763   2.684   9.049
66124SOL     OW  268   8.751   3.142  10.057
66124SOL    HW1  269   8.728   3.065  10.005
66124SOL    HW2  270   8.671   3.193  10.060
66125SOL     OW  271   5.020  11.786   8.402
66125SOL    HW1  272   4.971  11.789   8.320
66125SOL    HW2  273   4.991  11.705   8.444
66126SOL     OW  274   3.889   2.682   6.280
66126SOL    HW1  275   3.961   2.619   6.275
66126SOL    HW2  276   3.841   2.658   6.359
66127SOL     OW  277  11.659   1.048  10.471
66127SOL    HW1  278  11.715   1.014  10.401
66127SOL    HW2  279  11.570   1.033  10.439
66128SOL     OW  280   0.945   0.604   8.360
66128SOL    HW1  281   0.981   0.691   8.347
66128SOL    HW2  282   1.012   0.557   8.410
66129SOL     OW  283   3.090  13.293   2.063
66129SOL    HW1  284   3.179  13.278   2.028
66129SOL    HW2  285   3.033  13.286   1.986
66130SOL     OW  286   5.092   1.452   9.789
66130SOL    HW1  287   5.186   1.467   9.802
66130SOL    HW2  288   5.069   1.387   9.856
66131SOL     OW  289   2.353  12.613  14.841
66131SOL    HW1  290   2.316  12.661   0.047
66131SOL    HW2  291   2.287  12.622  14.772
66132SOL     OW  292   7.464   9.786  10.713
66132SOL    HW1  293   7.532   9.848  10.739
66132SOL    HW2  294   7.420   9.762  10.795
66133SOL     OW  295   7.490   3.295   9.890
66133SOL    HW1  296   7.528   3.323   9.973
66133SOL    HW2  297   7.553   3.233   9.854
66134SOL     OW  298  11.005  13.327  11.783
66134SOL    HW1  299  10.978  13.245  11.824
66134SOL    HW2  300  10.931  13.386  11.799
66135SOL     OW  301   7.000   9.193   0.736
66135SOL    HW1  302   6.935   9.226   0.799
66135SOL    HW2  303   6.966   9.108   0.708
66136SOL     OW  304  12.529  10.557   9.947
66136SOL    HW1  305  12.604  10.522   9.994
66136SOL    HW2  306  12.514  10.643   9.986
66137SOL     OW  307   1.628   2.394  12.270
66137SOL    HW1  308   1.611   2.309  12.229
66137SOL    HW2  309   1.704   2.428  12.224
66138SOL     OW  310   7.795   3.800   8.940
66138SOL    HW1  311   7.823   3.753   8.862
66138SOL    HW2  312   7.700   3.787   8.943
66139SOL     OW  313   2.133   0.400   1.596
66139SOL    HW1  314   2.218   0.443   1.593
66139SOL    HW2  315   2.087   0.442   1.669
66140SOL     OW  316   4.972  10.261   5.317
66140SOL    HW1  317   5.008  10.175   5.341
66140SOL    HW2  318   4.889  10.266   5.364
66141SOL     OW  319   6.948  10.261   0.175
66141SOL    HW1  320   6.979  10.314   0.248
66141SOL    HW2  321   7.005  10.183   0.177
66142SOL     OW  322   7.953   0.293  14.422
66142SOL    HW1  323   7.967   0.314  14.329
66142SOL    HW2  324   8.040   0.265  14.453
66143SOL     OW  325   7.072  13.609   3.335
66143SOL    HW1  326   7.158  13.603   3.375
66143SOL    HW2  327   7.080  13.679   3.270
66144SOL     OW  328  11.148   6.093   1.628
66144SOL    HW1  329  11.096   6.150   1.571
66144SOL    HW2  330  11.192   6.033   1.568
66145SOL     OW  331   5.218   3.241   1.788
66145SOL    HW1  332   5.150   3.305   1.773
66145SOL    HW2  333   5.203   3.210   1.877
66146SOL     OW  334   3.587   5.540   6.274
66146SOL    HW1  335   3.541   5.548   6.357
66146SOL    HW2  336   3.660   5.480   6.292
66147SOL     OW  337   2.928   1.859   1.260
66147SOL    HW1  338   2.948   1.830   1.171
66147SOL    HW2  339   2.947   1.953   1.259
66148SOL     OW  340   8.135  13.902   5.437
66148SOL    HW1  341   8.189  13.949   5.374
66148SOL    HW2  342   8.163  13.811   5.430
66149SOL     OW  343  11.058  11.857   6.455
66149SOL    HW1  344  11.153  11.855   6.465
66149SOL    HW2  345  11.040  11.791   6.388
66150SOL     OW  346  14.308   5.348   9.562
66150SOL    HW1  347  14.328   5.423   9.617
66150SOL    HW2  348  14.391   5.300   9.557
66151SOL     OW  349   5.739   2.073   9.555
66151SOL    HW1  350   5.775   1.993   9.592
66151SOL    HW2  351   5.697   2.117   9.629
66152SOL     OW  352  10.405   9.633  10.477
66152SOL    HW1  353  10.324   9.657  10.432
66152SOL    HW2  354  10.475   9.658  10.417
66153SOL     OW  355   1.488  14.803  14.213
66153SOL    HW1  356   1.462   0.020  14.175
66153SOL    HW2  357   1.414  14.778  14.268
66154SOL     OW  358   3.208  11.953   3.422
66154SOL    HW1  359   3.161  11.970   3.341
66154SOL    HW2  360   3.216  11.857   3.426
66155SOL     OW  361  13.712   4.401   9.414
66155SOL    HW1  362  13.799   4.425   9.446
66155SOL    HW2  363  13.686   4.475   9.360
66156SOL     OW  364  13.618  11.641  10.558
66156SOL    HW1  365  13.627  11.712  10.621
66156SOL    HW2  366  13.706  11.608  10.546
66157SOL     OW  367  11.696  13.947   0.057
66157SOL    HW1  368  11.783  13.917   0.030
66157SOL    HW2  369  11.681  14.026   0.006
66158SOL     OW  370   5.240  14.106  11.019
66158SOL    HW1  371   5.286  14.036  10.972
66158SOL    HW2  372   5.268  14.187  10.975
66159SOL     OW  373   7.714   1.280   0.354
66159SOL    HW1  374   7.656   1.341   0.309
66159SOL    HW2  375   7.802   1.308   0.330
66160SOL     OW  376   6.229  10.732   7.087
66160SOL    HW1  377   6.304  10.709   7.032
66160SOL    HW2  378   6.269  10.771   7.165
66161SOL     OW  379   2.387   7.144   7.357
66161SOL    HW1  380   2.419   7.231   7.337
66161SOL    HW2  381   2.300   7.158   7.394
66162SOL     OW  382   5.034   3.571   9.692
66162SOL    HW1  383   5.025   3.607   9.780
66162SOL    HW2  384   5.099   3.626   9.649
66163SOL     OW  385   6.138   0.515   7.339
66163SOL    HW1  386   6.108   0.512   7.248
66163SOL    HW2  387   6.234   0.506   7.333
66164SOL     OW  388   0.295   7.452  12.293
66164SOL    HW1  389   0.211   7.437  12.249
66164SOL    HW2  390   0.348   7.376  12.270
66165SOL     OW  391   9.680   1.939   1.464
66165SOL    HW1  392   9.701   1.899   1.548
66165SOL    HW2  393   9.700   1.870   1.400
66166SOL     OW  394  14.813   0.869   7.100
66166SOL    HW1  395   0.005   0.801   7.130
66166SOL    HW2  396  14.808   0.857   7.005
66167SOL     OW  397  11.404   4.633   9.521
66167SOL    HW1  398  11.467   4.653   9.452
66167SOL    HW2  399  11.322   4.672   9.490
66168SOL     OW  400   2.773   4.523   7.748
66168SOL    HW1  401   2.769   4.571   7.666
66168SOL    HW2  402   2.863   4.534   7.778
66169SOL     OW  403   6.239   0.725   3.345
66169SOL    HW1  404   6.277   0.663   3.282
66169SOL    HW2  405   6.315   0.767   3.386
66170SOL     OW  406   9.030   0.541   2.654
66170SOL    HW1  407   9.035   0.626   2.610
66170SOL    HW2  408   9.060   0.478   2.588
66171SOL     OW  409  10.806   0.781   1.380
66171SOL    HW1  410  10.760   0.710   1.335
66171SOL    HW2  411  10.840   0.741   1.460
66172SOL     OW  412  10.011   0.968   0.890
66172SOL    HW1  413  10.070   1.025   0.940
66172SOL    HW2  414   9.925   0.981   0.930
66173SOL     OW  415   6.883   3.057  10.603
66173SOL    HW1  416   6.973   3.026  10.597
66173SOL    HW2  417   6.871   3.110  10.524
66174SOL     OW  418  12.362   0.036  11.610
66174SOL    HW1  419  12.386   0.128  11.611
66174SOL    HW2  420  12.301   0.026  11.683
66175SOL     OW  421  11.947  14.686   6.110
66175SOL    HW1  422  11.911  14.749   6.172
66175SOL    HW2  423  11.890  14.610   6.117
66176SOL     OW  424   2.366   4.963  10.463
66176SOL    HW1  425   2.430   5.032  10.482
66176SOL    HW2  426   2.415   4.898  10.412
66177SOL     OW  427   3.204   9.129  11.934
66177SOL    HW1  428   3.205   9.047  11.886
66177SOL    HW2  429   3.297   9.151  11.947
66178SOL     OW  430   7.257   5.195   7.708
66178SOL    HW1  431   7.195   5.158   7.772
66178SOL    HW2  432   7.339   5.201   7.756
66179SOL     OW  433   8.445  11.456  11.944
66179SOL    HW1  434   8.450  11.499  11.859
66179SOL    HW2  435   8.431  11.364  11.924
66180SOL     OW  436   5.465   4.041   8.689
66180SOL    HW1  437   5.432   4.014   8.775
66180SOL    HW2  438   5.399   4.102   8.656
66181SOL     OW  439   2.754   7.859   1.106
66181SOL    HW1  440   2.792   7.780   1.144
66181SOL    HW2  441   2.663   7.857   1.134
66182SOL     OW  442   2.210   6.835  14.164
66182SOL    HW1  443   2.150   6.762  14.151
66182SOL    HW2  444   2.215   6.845  14.259
66183SOL     OW  445   1.889  10.440   1.716
66183SOL    HW1  446   1.813  10.388   1.742
66183SOL    HW2  447   1.852  10.512   1.665
66184SOL     OW  448   8.071   7.136   5.997
66184SOL    HW1  449   8.008   7.208   5.999
66184SOL    HW2  450   8.111   7.137   6.084
66185SOL     OW  451   7.307   0.865   9.582
66185SOL    HW1  452   7.307   0.801   9.653
66185SOL    HW2  453   7.230   0.843   9.530
66186SOL     OW  454   9.553   7.567   6.954
66186SOL    HW1  455   9.592   7.522   6.880
66186SOL    HW2  456   9.563   7.506   7.027
66187SOL     OW  457  12.114   7.142  12.686
66187SOL    HW1  458  12.040   7.123  12.628
66187SOL    HW2  459  12.095   7.230  12.719
66188SOL     OW  460   4.111   3.424   7.985
66188SOL    HW1  461   4.190   3.412   7.932
66188SOL    HW2  462   4.084   3.336   8.009
66189SOL     OW  463   7.815  14.607   7.005
66189SOL    HW1  464   7.828  14.615   7.100
66189SOL    HW2  465   7.804  14.697   6.975
66190SOL     OW  466  11.634  11.611   5.534
66190SOL    HW1  467  11.556  11.657   5.564
66190SOL    HW2  468  11.600  11.539   5.481
66191SOL     OW  469   5.769  12.533   6.150
66191SOL    HW1  470   5.850  12.507   6.105
66191SOL    HW2  471   5.723  12.588   6.087
66192SOL     OW  472  10.359   3.315  11.951
66192SOL    HW1  473  10.274   3.301  11.910
66192SOL    HW2  474  10.338   3.347  12.039
66193SOL     OW  475  11.716   1.178  13.846
66193SOL    HW1  476  11.661   1.243  13.888
66193SOL    HW2  477  11.720   1.106  13.910
66194SOL     OW  478   6.808   0.158   5.643
66194SOL    HW1  479   6.828   0.237   5.694
66194SOL    HW2  480   6.879   0.152   5.580
66195SOL     OW  481   5.953  12.413   7.699
66195SOL    HW1  482   5.882  12.356   7.674
66195SOL    HW2  483   6.032  12.371   7.666
66196SOL     OW  484   7.920  13.559  10.166
66196SOL    HW1  485   7.937  13.653  10.161
66196SOL    HW2  486   7.874  13.539  10.084
66197SOL     OW  487   3.778   6.501  10.678
66197SOL    HW1  488   3.823   6.518  10.760
66197SOL    HW2  489   3.827   6.429  10.638
66198SOL     OW  490   9.234   9.937   7.107
66198SOL    HW1  491   9.290   9.861   7.121
66198SOL    HW2  492   9.163   9.927   7.171
66199SOL     OW  493  12.277   4.873   3.676
66199SOL    HW1  494  12.268   4.928   3.599
66199SOL    HW2  495  12.245   4.787   3.649
66200SOL     OW  496  10.778   3.376   9.634
66200SOL    HW1  497  10.837   3.451   9.619
66200SOL    HW2  498  10.786   3.323   9.554
66201SOL     OW  499   0.234  11.991  12.903
66201SOL    HW1  500   0.235  11.997  12.998
66201SOL    HW2  501   0.227  12.082  12.873
66202SOL     OW  502  10.662   1.543  13.061
66202SOL    HW1  503  10.741   1.511  13.016
66202SOL    HW2  504  10.592   1.487  13.027
66203SOL     OW  505   5.609   8.097   4.024
66203SOL    HW1  506   5.575   8.074   4.110
66203SOL    HW2  507   5.594   8.191   4.017
66204SOL     OW  508   1.705  10.924  11.620
66204SOL    HW1  509   1.761  10.859  11.578
66204SOL    HW2  510   1.621  10.916  11.575
66205SOL     OW  511   1.324   6.064   4.581
66205SOL    HW1  512   1.260   6.026   4.641
66205SOL    HW2  513   1.271   6.116   4.520
66206SOL     OW  514  13.305   8.489   5.249
66206SOL    HW1  515  13.246   8.414   5.245
66206SOL    HW2  516  13.276   8.546   5.178
66207SOL     OW  517   9.357   4.992   8.201
66207SOL    HW1  518   9.398   4.905   8.196
66207SOL    HW2  519   9.415   5.049   8.151
66208SOL     OW  520  11.437   2.850   3.978
66208SOL    HW1  521  11.406   2.868   4.066
66208SOL    HW2  522  11.362   2.813   3.932
66209SOL     OW  523  13.907  12.800   6.903
66209SOL    HW1  524  13.975  12.736   6.922
66209SOL    HW2  525  13.877  12.830   6.988
66210SOL     OW  526  13.779  10.302  11.515
66210SOL    HW1  527  13.771  10.329  11.607
66210SOL    HW2  528  13.845  10.360  11.478
66211SOL     OW  529  13.501   1.596   7.978
66211SOL    HW1  530  13.495   1.509   8.016
66211SOL    HW2  531  13.459   1.653   8.043
66212SOL     OW  532  13.936   4.290  10.537
66212SOL    HW1  533  13.938   4.281  10.442
66212SOL    HW2  534  13.914   4.203  10.570
66213SOL     OW  535  13.693   9.095   9.748
66213SOL    HW1  536  13.644   9.177   9.749
66213SOL    HW2  537  13.692   9.065   9.839
66214SOL     OW  538  13.998  13.211  12.525
66214SOL    HW1  539  14.086  13.246  12.539
66214SOL    HW2  540  13.987  13.146  12.594
66215SOL     OW  541   7.521  13.764   8.412
66215SOL    HW1  542   7.607  13.760   8.455
66215SOL    HW2  543   7.537  13.731   8.324
66216SOL     OW  544   5.945   0.867   7.493
66216SOL    HW1  545   5.973   0.792   7.545
66216SOL    HW2  546   5.882   0.913   7.549
66217SOL     OW  547   2.270   8.353   0.726
66217SOL    HW1  548   2.228   8.391   0.649
66217SOL    HW2  549   2.357   8.327   0.697
66218SOL     OW  550  10.292   6.159   9.646
66218SOL    HW1  551  10.303   6.068   9.621
66218SOL    HW2  552  10.375   6.201   9.622
66219SOL     OW  553   9.340   1.423   8.140
66219SOL    HW1  554   9.400   1.489   8.176
66219SOL    HW2  555   9.265   1.473   8.108
66220SOL     OW  556   5.380  12.673   4.261
66220SOL    HW1  557   5.306  12.731   4.276
66220SOL    HW2  558   5.440  12.723   4.206
66221SOL     OW  559   2.504  14.798   8.991
66221SOL    HW1  560   2.423  14.848   8.985
66221SOL    HW2  561   2.564  14.842   8.930
66222SOL     OW  562   3.515  10.165   0.709
66222SOL    HW1  563   3.592  10.186   0.762
66222SOL    HW2  564   3.507  10.238   0.648
66223SOL     OW  565   3.902   4.918   3.219
66223SOL    HW1  566   3.996   4.936   3.211
66223SOL    HW2  567   3.867   4.936   3.132
66224SOL     OW  568  10.495   4.160   6.080
66224SOL    HW1  569  10.481   4.221   6.153
66224SOL    HW2  570  10.521   4.215   6.007
66225SOL     OW  571   3.675   1.413   6.631
66225SOL    HW1  572   3.696   1.411   6.538
66225SOL    HW2  573   3.584   1.444   6.635
66226SOL     OW  574   4.147   2.227  14.860
66226SOL    HW1  575   4.103   2.289  14.802
66226SOL    HW2  576   4.231   2.269   0.012
66227SOL     OW  577   9.436   2.081  14.015
66227SOL    HW1  578   9.448   2.014  14.082
66227SOL    HW2  579   9.463   2.038  13.934
66228SOL     OW  580   1.385  14.382   7.767
66228SOL    HW1  581   1.412  14.396   7.677
66228SOL    HW2  582   1.300  14.338   7.760
66229SOL     OW  583   1.281   2.511   6.973
66229SOL    HW1  584   1.210   2.537   6.914
66229SOL    HW2  585   1.361   2.544   6.931
66230SOL     OW  586   4.396  10.775   2.129
66230SOL    HW1  587   4.377  10.681   2.120
66230SOL    HW2  588   4.323  10.809   2.180
66231SOL     OW  589   9.781  11.335   8.593
66231SOL    HW1  590   9.855  11.326   8.653
66231SOL    HW2  591   9.730  11.407   8.628
66232SOL     OW  592   3.724   4.292   6.830
66232SOL    HW1  593   3.782   4.266   6.759
66232SOL    HW2  594   3.677   4.368   6.796
66233SOL     OW  595   4.698  13.765   0.561
66233SOL    HW1  596   4.724  13.739   0.649
66233SOL    HW2  597   4.629  13.704   0.537
66234SOL     OW  598   9.553   6.721  10.126
66234SOL    HW1  599   9.551   6.643  10.182
66234SOL    HW2  600   9.608   6.696  10.052
66235SOL     OW  601   7.331   0.010   5.943
66235SOL    HW1  602   7.318  14.818   6.016
66235SOL    HW2  603   7.246   0.013   5.898
66236SOL     OW  604   4.870  14.112   3.613
66236SOL    HW1  605   4.818  14.045   3.657
66236SOL    HW2  606   4.826  14.194   3.634
66237SOL     OW  607   0.497   4.865   8.895
66237SOL    HW1  608   0.401   4.869   8.897
66237SOL    HW2  609   0.524   4.936   8.838
66238SOL     OW  610   6.817   4.467  12.730
66238SOL    HW1  611   6.781   4.383  12.761
66238SOL    HW2  612   6.912   4.455  12.734
66239SOL     OW  613   6.780   3.084   0.823
66239SOL    HW1  614   6.807   3.097   0.732
66239SOL    HW2  615   6.860   3.062   0.869
66240SOL     OW  616   9.099  13.379  13.628
66240SOL    HW1  617   9.129  13.311  13.568
66240SOL    HW2  618   9.174  13.439  13.634
66241SOL     OW  619  14.527   9.875  12.223
66241SOL    HW1  620  14.523   9.968  12.245
66241SOL    HW2  621  14.618   9.860  12.197
66242SOL     OW  622   2.847  14.664   3.895
66242SOL    HW1  623   2.862  14.721   3.970
66242SOL    HW2  624   2.926  14.673   3.842
66243SOL     OW  625   3.550   3.152   8.964
66243SOL    HW1  626   3.521   3.082   8.905
66243SOL    HW2  627   3.475   3.211   8.969
66244SOL     OW  628  10.233  14.007  10.104
66244SOL    HW1  629  10.166  14.076  10.101
66244SOL    HW2  630  10.243  13.979  10.013
66245SOL     OW  631  10.881  13.971   8.448
66245SOL    HW1  632  10.894  14.006   8.360
66245SOL    HW2  633  10.790  13.990   8.468
66246SOL     OW  634   0.646   3.588   1.859
66246SOL    HW1  635   0.601   3.573   1.775
66246SOL    HW2  636   0.738   3.572   1.840
66247SOL     OW  637  12.974  13.005  11.305
66247SOL    HW1  638  12.900  13.030  11.361
66247SOL    HW2  639  13.050  13.046  11.346
66248SOL     OW  640   3.150   8.345   4.152
66248SOL    HW1  641   3.084   8.289   4.193
66248SOL    HW2  642   3.153   8.316   4.061
66249SOL     OW  643  11.211   2.489  10.180
66249SOL    HW1  644  11.223   2.562  10.119
66249SOL    HW2  645  11.249   2.520  10.262
66250SOL     OW  646   8.871  10.054   3.269
66250SOL    HW1  647   8.943  10.071   3.330
66250SOL    HW2  648   8.911  10.064   3.183
66251SOL     OW  649   1.649   7.329   8.538
66251SOL    HW1  650   1.687   7.300   8.621
66251SOL    HW2  651   1.558   7.348   8.558
66252SOL     OW  652   4.466   1.257  14.745
66252SOL    HW1  653   4.462   1.292  14.656
66252SOL    HW2  654   4.556   1.274  14.774
66253SOL     OW  655  10.308   7.919   0.400
66253SOL    HW1  656  10.265   7.843   0.360
66253SOL    HW2  657  10.249   7.945   0.471
66254SOL     OW  658  10.718   1.691   9.516
66254SOL    HW1  659  10.673   1.749   9.455
66254SOL    HW2  660  10.667   1.610   9.515
66255SOL     OW  661   5.648  13.878  12.898
66255SOL    HW1  662   5.579  13.940  12.875
66255SOL    HW2  663   5.627  13.799  12.849
66256SOL     OW  664  10.722   7.239   9.507
66256SOL    HW1  665  10.709   7.154   9.548
66256SOL    HW2  666  10.715   7.301   9.579
66257SOL     OW  667   5.416   1.588  13.854
66257SOL    HW1  668   5.438   1.622  13.767
66257SOL    HW2  669   5.363   1.658  13.894
66258SOL     OW  670   0.501  12.005   0.981
66258SOL    HW1  671   0.538  11.917   0.986
66258SOL    HW2  672   0.544  12.053   1.052
66259SOL     OW  673   0.959   1.927  14.163
66259SOL    HW1  674   1.030   1.871  14.132
66259SOL    HW2  675   1.001   1.986  14.226
66260SOL     OW  676   1.928  13.078   8.928
66260SOL    HW1  677   1.878  13.144   8.977
66260SOL    HW2  678   1.882  13.071   8.844
66261SOL     OW  679   6.207   2.399   2.626
66261SOL    HW1  680   6.222   2.323   2.569
66261SOL    HW2  681   6.132   2.443   2.586
66262SOL     OW  682   6.778   4.833   7.181
66262SOL    HW1  683   6.767   4.861   7.272
66262SOL    HW2  684   6.853   4.882   7.149
66263SOL     OW  685   2.316   8.036  11.593
66263SOL    HW1  686   2.351   8.122  11.572
66263SOL    HW2  687   2.301   8.038  11.688
66264SOL     OW  688  10.832  12.566  10.358
66264SOL    HW1  689  10.855  12.478  10.329
66264SOL    HW2  690  10.818  12.558  10.453
66265SOL     OW  691   7.154   7.034   0.374
66265SOL    HW1  692   7.066   7.059   0.403
66265SOL    HW2  693   7.169   7.086   0.295
66266SOL     OW  694  13.007   5.925  13.604
66266SOL    HW1  695  13.055   5.958  13.528
66266SOL    HW2  696  13.018   5.993  13.670
66267SOL     OW  697   0.458   6.803  13.239
66267SOL    HW1  698   0.451   6.871  13.172
66267SOL    HW2  699   0.370   6.794  13.274
66268SOL     OW  700   3.702  14.816   4.902
66268SOL    HW1  701   3.725  14.741   4.847
66268SOL    HW2  702   3.785  14.844   4.941
66269SOL     OW  703   4.710  14.360   7.320
66269SOL    HW1  704   4.716  14.265   7.320
66269SOL    HW2  705   4.795  14.389   7.355
66270SOL     OW  706   8.557   0.946  10.727
66270SOL    HW1  707   8.563   0.942  10.632
66270SOL    HW2  708   8.463   0.941  10.746
66271SOL     OW  709   9.189   1.319  12.866
66271SOL    HW1  710   9.271   1.353  12.903
66271SOL    HW2  711   9.189   1.227  12.890
66272SOL     OW  712   9.969   9.107  12.665
66272SOL    HW1  713  10.050   9.091  12.617
66272SOL    HW2  714   9.988   9.077  12.754
66273SOL     OW  715  10.769   6.721   3.685
66273SOL    HW1  716  10.749   6.650   3.624
66273SOL    HW2  717  10.820   6.678   3.755
66274SOL     OW  718   4.108  11.248  14.844
66274SOL    HW1  719   4.139  11.209   0.057
66274SOL    HW2  720   4.178  11.230  14.781
66275SOL     OW  721  10.625   8.907   5.585
66275SOL    HW1  722  10.709   8.888   5.629
66275SOL    HW2  723  10.561   8.855   5.633
66276SOL     OW  724   8.811   6.337  10.619
66276SOL    HW1  725   8.859   6.297  10.691
66276SOL    HW2  726   8.815   6.272  10.549
66277SOL     OW  727   8.931   5.461   5.469
66277SOL    HW1  728   8.864   5.399   5.442
66277SOL    HW2  729   8.937   5.523   5.397
66278SOL     OW  730   4.589   6.916   9.009
66278SOL    HW1  731   4.681   6.942   9.005
66278SOL    HW2  732   4.580   6.875   9.095
66279SOL     OW  733   9.480   5.478   8.396
66279SOL    HW1  734   9.576   5.484   8.403
66279SOL    HW2  735   9.452   5.439   8.478
66280SOL     OW  736   3.813  11.672  10.324
66280SOL    HW1  737   3.821  11.692  10.231
66280SOL    HW2  738   3.860  11.590  10.336
66281SOL     OW  739   3.840  14.123   3.311
66281SOL    HW1  740   3.860  14.132   3.217
66281SOL    HW2  741   3.859  14.030   3.329
66282SOL     OW  742   5.434   0.801  11.596
66282SOL    HW1  743   5.394   0.887  11.603
66282SOL    HW2  744   5.448   0.773  11.686
66283SOL     OW  745   7.347   6.396   5.294
66283SOL    HW1  746   7.336   6.490   5.285
66283SOL    HW2  747   7.280   6.369   5.357
66284SOL     OW  748  13.452  11.761   8.961
66284SOL    HW1  749  13.462  11.799   8.874
66284SOL    HW2  750  13.400  11.683   8.948
66285SOL     OW  751  11.852   0.326   8.558
66285SOL    HW1  752  11.864   0.346   8.651
66285SOL    HW2  753  11.930   0.361   8.516
66286SOL     OW  754  13.351  13.691   6.010
66286SOL    HW1  755  13.354  13.662   6.101
66286SOL    HW2  756  13.337  13.612   5.959
66287SOL     OW  757   7.326   1.946  10.005
66287SOL    HW1  758   7.314   1.888  10.080
66287SOL    HW2  759   7.263   1.916   9.940
66288SOL     OW  760  14.346   0.633  14.405
66288SOL    HW1  761  14.332   0.698  14.474
66288SOL    HW2  762  14.262   0.627  14.360
66289SOL     OW  763   9.557  10.092   7.049
66289SOL    HW1  764   9.551  10.007   7.004
66289SOL    HW2  765   9.504  10.080   7.128
66290SOL     OW  766  12.480   8.007   8.122
66290SOL    HW1  767  12.530   7.926   8.121
66290SOL    HW2  768  12.544   8.075   8.142
66291SOL     OW  769   3.176   4.049   9.184
66291SOL    HW1  770   3.145   4.129   9.225
66291SOL    HW2  771   3.202   4.075   9.096
66292SOL     OW  772   8.992   1.395  13.724
66292SOL    HW1  773   9.086   1.410  13.718
66292SOL    HW2  774   8.959   1.471  13.772
66293SOL     OW  775  11.105   6.584   5.317
66293SOL    HW1  776  11.107   6.644   5.243
66293SOL    HW2  777  11.165   6.514   5.293
66294SOL     OW  778   7.135  10.131  11.081
66294SOL    HW1  779   7.158  10.041  11.101
66294SOL    HW2  780   7.061  10.150  11.139
66295SOL     OW  781  13.134   5.929   3.716
66295SOL    HW1  782  13.092   5.974   3.789
66295SOL    HW2  783  13.061   5.899   3.661
66296SOL     OW  784   2.476   4.038  11.842
66296SOL    HW1  785   2.490   4.002  11.755
66296SOL    HW2  786   2.556   4.086  11.862
66297SOL     OW  787   4.464  13.226   4.053
66297SOL    HW1  788   4.529  13.283   4.013
66297SOL    HW2  789   4.400  13.286   4.091
66298SOL     OW  790   0.275   4.146   2.448
66298SOL    HW1  791   0.202   4.092   2.478
66298SOL    HW2  792   0.292   4.206   2.521
66299SOL     OW  793   1.130   9.069  10.731
66299SOL    HW1  794   1.148   8.976  10.744
66299SOL    HW2  795   1.070   9.092  10.801
66300SOL     OW  796   2.195  10.722   1.349
66300SOL    HW1  797   2.199  10.665   1.272
66300SOL    HW2  798   2.188  10.662   1.423
66301SOL     OW  799   4.448  12.273   5.536
66301SOL    HW1  800   4.354  12.258   5.522
66301SOL    HW2  801   4.489  12.253   5.452
66302SOL     OW  802   8.878   5.124   4.612
66302SOL    HW1  803   8.960   5.079   4.593
66302SOL    HW2  804   8.905   5.204   4.658
66303SOL     OW  805   3.459   1.017   8.572
66303SOL    HW1  806   3.533   1.060   8.529
66303SOL    HW2  807   3.444   1.069   8.651
66304SOL     OW  808  13.440  12.032   6.035
66304SOL    HW1  809  13.358  12.036   6.084
66304SOL    HW2  810  13.447  11.941   6.007
66305SOL     OW  811   8.725   3.027  14.817
66305SOL    HW1  812   8.640   3.028  14.862
66305SOL    HW2  813   8.726   3.109  14.767
66306SOL     OW  814  13.071  11.893  14.115
66306SOL    HW1  815  13.020  11.882  14.195
66306SOL    HW2  816  13.006  11.892  14.045
66307SOL     OW  817  10.915   3.434   4.356
66307SOL    HW1  818  10.974   3.401   4.424
66307SOL    HW2  819  10.941   3.387   4.277
66308SOL     OW  820  10.668   3.186   0.151
66308SOL    HW1  821  10.620   3.248   0.097
66308SOL    HW2  822  10.641   3.100   0.119
66309SOL     OW  823   1.412   7.775  12.073
66309SOL    HW1  824   1.435   7.816  11.989
66309SOL    HW2  825   1.327   7.734  12.057
66310SOL     OW  826   2.779   5.049   8.728
66310SOL    HW1  827   2.803   5.016   8.641
66310SOL    HW2  828   2.685   5.069   8.721
66311SOL     OW  829   7.560  13.116   2.751
66311SOL    HW1  830   7.515  13.079   2.826
66311SOL    HW2  831   7.520  13.073   2.675
66312SOL     OW  832   3.473   9.894  12.823
66312SOL    HW1  833   3.416   9.899  12.900
66312SOL    HW2  834   3.462   9.804  12.791
66313SOL     OW  835  13.009  11.236   5.227
66313SOL    HW1  836  12.983  11.236   5.319
66313SOL    HW2  837  12.927  11.232   5.178
66314SOL     OW  838  10.906   0.192  11.927
66314SOL    HW1  839  10.892   0.196  11.833
66314SOL    HW2  840  10.876   0.104  11.952
66315SOL     OW  841   5.629   5.471  10.636
66315SOL    HW1  842   5.643   5.561  10.607
66315SOL    HW2  843   5.534   5.463  10.643
66316SOL     OW  844   0.404   4.683  12.134
66316SOL    HW1  845   0.370   4.595  12.121
66316SOL    HW2  846   0.465   4.697  12.061
66317SOL     OW  847   9.974   0.348   1.831
66317SOL    HW1  848   9.994   0.287   1.901
66317SOL    HW2  849  10.014   0.430   1.858
66318SOL     OW  850   8.671   1.256   3.297
66318SOL    HW1  851   8.698   1.168   3.269
66318SOL    HW2  852   8.599   1.279   3.240
66319SOL     OW  853   2.960   2.019   0.287
66319SOL    HW1  854   2.866   2.008   0.301
66319SOL    HW2  855   2.968   2.096   0.231
66320SOL     OW  856   9.100   1.137   8.062
66320SOL    HW1  857   9.009   1.116   8.084
66320SOL    HW2  858   9.100   1.231   8.048
66321SOL     OW  859   5.782   7.307   2.168
66321SOL    HW1  860   5.760   7.230   2.116
66321SOL    HW2  861   5.801   7.375   2.104
66322SOL     OW  862  10.796   3.275   8.363
66322SOL    HW1  863  10.736   3.298   8.435
66322SOL    HW2  864  10.877   3.320   8.384
66323SOL     OW  865   2.541  13.822   8.241
66323SOL    HW1  866   2.500  13.818   8.327
66323SOL    HW2  867   2.635  13.820   8.259
66324SOL     OW  868   7.716   9.752   0.569
66324SOL    HW1  869   7.646   9.816   0.584
66324SOL    HW2  870   7.681   9.692   0.504
66325SOL     OW  871   0.671   6.769  13.406
66325SOL    HW1  872   0.590   6.775  13.356
66325SOL    HW2  873   0.730   6.830  13.362
66326SOL     OW  874   1.082  14.108   0.234
66326SOL    HW1  875   1.104  14.197   0.261
66326SOL    HW2  876   1.167  14.068   0.214
66327SOL     OW  877  11.581   6.371  12.228
66327SOL    HW1  878  11.519   6.441  12.206
66327SOL    HW2  879  11.603   6.332  12.143
66328SOL     OW  880   0.115   4.396   6.978
66328SOL    HW1  881   0.047   4.390   7.045
66328SOL    HW2  882   0.131   4.306   6.951
66329SOL     OW  883   2.654   5.353   7.503
66329SOL    HW1  884   2.677   5.359   7.410
66329SOL    HW2  885   2.580   5.413   7.513
66330SOL     OW  886   2.363   1.422  13.935
66330SOL    HW1  887   2.352   1.347  13.994
66330SOL    HW2  888   2.390   1.384  13.852
66331SOL     OW  889   8.468   3.686   4.407
66331SOL    HW1  890   8.438   3.640   4.485
66331SOL    HW2  891   8.475   3.619   4.340
66332SOL     OW  892  11.951   5.617   3.564
66332SOL    HW1  893  12.014   5.593   3.496
66332SOL    HW2  894  11.981   5.703   3.595
66333SOL     OW  895   2.533  12.132  13.836
66333SOL    HW1  896   2.612  12.087  13.864
66333SOL    HW2  897   2.559  12.178  13.756
66334SOL     OW  898   9.398  10.677   8.454
66334SOL    HW1  899   9.444  10.595   8.471
66334SOL    HW2  900   9.466  10.744   8.455
66335SOL     OW  901   6.724   6.183   5.335
66335SOL    HW1  902   6.746   6.270   5.302
66335SOL    HW2  903   6.631   6.173   5.313
66336SOL     OW  904   9.283  12.761   3.880
66336SOL    HW1  905   9.307  12.716   3.961
66336SOL    HW2  906   9.230  12.698   3.831
66337SOL     OW  907   7.875   4.930  14.452
66337SOL    HW1  908   7.871   4.843  14.414
66337SOL    HW2  909   7.919   4.984  14.386
66338SOL     OW  910   0.856   3.607   1.463
66338SOL    HW1  911   0.857   3.663   1.386
66338SOL    HW2  912   0.790   3.541   1.443
66339SOL     OW  913   8.627   8.086  13.125
66339SOL    HW1  914   8.606   7.993  13.138
66339SOL    HW2  915   8.629   8.123  13.213
66340SOL     OW  916  13.143   1.211  10.817
66340SOL    HW1  917  13.068   1.231  10.761
66340SOL    HW2  918  13.204   1.283  10.803
66341SOL     OW  919   5.348   0.515  10.510
66341SOL    HW1  920   5.382   0.550  10.427
66341SOL    HW2  921   5.426   0.489  10.558
66342SOL     OW  922   8.768   1.496   6.478
66342SOL    HW1  923   8.790   1.414   6.434
66342SOL    HW2  924   8.845   1.552   6.464
66343SOL     OW  925   3.885   2.095   7.997
66343SOL    HW1  926   3.815   2.052   7.948
66343SOL    HW2  927   3.916   2.164   7.939
66344SOL     OW  928   5.370   3.291   1.123
66344SOL    HW1  929   5.319   3.372   1.124
66344SOL    HW2  930   5.437   3.305   1.190
66345SOL     OW  931   8.080   2.002  12.075
66345SOL    HW1  932   8.163   2.023  12.033
66345SOL    HW2  933   8.088   2.038  12.163
66346SOL     OW  934   5.600   3.560  12.149
66346SOL    HW1  935   5.519   3.602  12.121
66346SOL    HW2  936   5.620   3.599  12.234
66347SOL     OW  937   1.382  10.919  14.156
66347SOL    HW1  938   1.422  11.000  14.122
66347SOL    HW2  939   1.304  10.907  14.101
66348SOL     OW  940  13.188  12.567  11.351
66348SOL    HW1  941  13.218  12.540  11.438
66348SOL    HW2  942  13.214  12.658  11.343
66349SOL     OW  943   0.700   9.725   5.686
66349SOL    HW1  944   0.729   9.805   5.729
66349SOL    HW2  945   0.620   9.700   5.733
66350SOL     OW  946  12.506   4.637   5.807
66350SOL    HW1  947  12.593   4.633   5.847
66350SOL    HW2  948  12.453   4.576   5.860
66351SOL     OW  949   4.972  11.034   7.018
66351SOL    HW1  950   4.926  11.111   7.053
66351SOL    HW2  951   4.999  11.061   6.930
66352SOL     OW  952   4.391   4.563   1.751
66352SOL    HW1  953   4.455   4.624   1.716
66352SOL    HW2  954   4.413   4.479   1.710
66353SOL     OW  955   5.532   2.297   6.407
66353SOL    HW1  956   5.556   2.376   6.358
66353SOL    HW2  957   5.612   2.273   6.453
66354SOL     OW  958   6.489   0.128   4.347
66354SOL    HW1  959   6.569   0.113   4.398
66354SOL    HW2  960   6.451   0.041   4.337
66355SOL     OW  961   0.121   4.651   7.952
66355SOL    HW1  962   0.072   4.700   7.886
66355SOL    HW2  963   0.160   4.579   7.903
66356SOL     OW  964   5.729  11.437   5.441
66356SOL    HW1  965   5.796  11.475   5.498
66356SOL    HW2  966   5.650  11.434   5.496
66357SOL     OW  967   9.879   1.027  13.252
66357SOL    HW1  968   9.971   1.055  13.261
66357SOL    HW2  969   9.854   1.055  13.164
66358SOL     OW  970   3.248  10.853  13.152
66358SOL    HW1  971   3.309  10.895  13.212
66358SOL    HW2  972   3.173  10.831  13.206
66359SOL     OW  973   8.833  11.726   9.263
66359SOL    HW1  974   8.876  11.727   9.177
66359SOL    HW2  975   8.751  11.772   9.249
66360SOL     OW  976  14.741   6.914   8.071
66360SOL    HW1  977  14.731   6.972   7.996
66360SOL    HW2  978  14.672   6.849   8.061
66361SOL     OW  979   3.397   7.386   2.993
66361SOL    HW1  980   3.309   7.351   2.980
66361SOL    HW2  981   3.447   7.355   2.917
66362SOL     OW  982   6.145  13.252   1.004
66362SOL    HW1  983   6.067  13.304   0.986
66362SOL    HW2  984   6.159  13.263   1.098
66363SOL     OW  985  10.166   4.806  12.303
66363SOL    HW1  986  10.174   4.894  12.340
66363SOL    HW2  987  10.224   4.752  12.356
66364SOL     OW  988   1.522  14.208   3.317
66364SOL    HW1  989   1.559  14.250   3.395
66364SOL    HW2  990   1.576  14.131   3.303
66365SOL     OW  991  11.906   0.439  11.738
66365SOL    HW1  992  11.852   0.360  11.728
66365SOL    HW2  993  11.848   0.511  11.716
66366SOL     OW  994   3.078  10.347  10.137
66366SOL    HW1  995   3.138  10.349  10.062
66366SOL    HW2  996   3.065  10.439  10.160
66367SOL     OW  997   5.155   0.611   6.041
66367SOL    HW1  998   5.217   0.548   6.079
66367SOL    HW2  999   5.198   0.696   6.051
66368SOL     OW 1000  10.734   9.616  14.722
66368SOL    HW1 1001  10.662   9.594  14.781
66368SOL    HW2 1002  10.800   9.549  14.737
66369SOL     OW 1003  11.530   3.485   4.154
66369SOL    HW1 1004  11.468   3.506   4.084
66369SOL    HW2 1005  11.477   3.441   4.220
66370SOL     OW 1006  12.811   4.678   6.755
66370SOL    HW1 1007  12.755   4.618   6.804
66370SOL    HW2 1008  12.859   4.726   6.822
66371SOL     OW 1009   8.721   7.192   9.905
66371SOL    HW1 1010   8.738   7.101   9.930
66371SOL    HW2 1011   8.642   7.188   9.852
66372SOL     OW 1012  10.206  13.182   9.596
66372SOL    HW1 1013  10.218  13.147   9.684
66372SOL    HW2 1014  10.202  13.277   9.609
66373SOL     OW 1015  11.657   9.646  14.378
66373SOL    HW1 1016  11.619   9.681  14.297
66373SOL    HW2 1017  11.744   9.615  14.351
66374SOL     OW 1018   7.106   3.883   9.499
66374SOL    HW1 1019   7.107   3.788   9.509
66374SOL    HW2 1020   7.042   3.899   9.429
66375SOL     OW 1021   6.845   4.631   3.121
66375SOL    HW1 1022   6.916   4.689   3.092
66375SOL    HW2 1023   6.854   4.553   3.066
66376SOL     OW 1024   1.375  14.198  12.868
66376SOL    HW1 1025   1.393  14.211  12.961
66376SOL    HW2 1026   1.422  14.269  12.824
66377SOL     OW 1027   8.548   4.562   6.437
66377SOL    HW1 1028   8.581   4.633   6.491
66377SOL    HW2 1029   8.542   4.487   6.496
66378SOL     OW 1030   1.436   7.358  13.167
66378SOL    HW1 1031   1.477   7.294  13.226
66378SOL    HW2 1032   1.348   7.369  13.203
66379SOL     OW 1033  13.245  10.495   2.383
66379SOL    HW1 1034  13.316  10.530   2.437
66379SOL    HW2 1035  13.282  10.491   2.294
66380SOL     OW 1036   1.110   0.826   1.523
66380SOL    HW1 1037   1.150   0.886   1.585
66380SOL    HW2 1038   1.108   0.874   1.440
66381SOL     OW 1039  12.797   5.024   2.918
66381SOL    HW1 1040  12.852   4.992   2.990
66381SOL    HW2 1041  12.828   5.113   2.902
66382SOL     OW 1042  13.976   7.787   6.704
66382SOL    HW1 1043  14.067   7.809   6.722
66382SOL    HW2 1044  13.932   7.795   6.789
66383SOL     OW 1045   1.407   9.850   7.210
66383SOL    HW1 1046   1.313   9.842   7.226
66383SOL    HW2 1047   1.435   9.919   7.270
66384SOL     OW 1048   4.965   7.928   4.252
66384SOL    HW1 1049   4.876   7.956   4.232
66384SOL    HW2 1050   5.005   8.005   4.294
66385SOL     OW 1051   6.622   8.250   5.766
66385SOL    HW1 1052   6.566   8.176   5.788
66385SOL    HW2 1053   6.561   8.320   5.741
66386SOL     OW 1054   7.242   3.144   6.249
66386SOL    HW1 1055   7.290   3.175   6.326
66386SOL    HW2 1056   7.200   3.222   6.213
66387SOL     OW 1057   7.110   5.865   5.509
66387SOL    HW1 1058   7.123   5.784   5.458
66387SOL    HW2 1059   7.115   5.935   5.444
66388SOL     OW 1060   5.491   9.446  12.026
66388SOL    HW1 1061   5.520   9.526  12.071
66388SOL    HW2 1062   5.482   9.382  12.097
66389SOL     OW 1063   0.353   5.172  12.678
66389SOL    HW1 1064   0.387   5.221  12.603
66389SOL    HW2 1065   0.259   5.165  12.661
66390SOL     OW 1066  14.444   6.304   5.753
66390SOL    HW1 1067  14.355   6.320   5.786
66390SOL    HW2 1068  14.471   6.387   5.715
66391SOL     OW 1069   3.616  10.125   2.932
66391SOL    HW1 1070   3.627  10.220   2.928
66391SOL    HW2 1071   3.584  10.108   3.020
66392SOL     OW 1072   5.371   9.722   8.785
66392SOL    HW1 1073   5.332   9.635   8.797
66392SOL    HW2 1074   5.463   9.705   8.766
66393SOL     OW 1075  14.751  12.482  10.728
66393SOL    HW1 1076  14.762  12.526  10.812
66393SOL    HW2 1077  14.657  12.466  10.721
66394SOL     OW 1078   6.952   5.470   3.479
66394SOL    HW1 1079   6.951   5.564   3.494
66394SOL    HW2 1080   6.976   5.461   3.387
66395SOL     OW 1081  11.656   9.465  13.128
66395SOL    HW1 1082  11.674   9.428  13.042
66395SOL    HW2 1083  11.691   9.401  13.190
66396SOL     OW 1084   7.112  13.861   3.157
66396SOL    HW1 1085   7.175  13.866   3.228
66396SOL    HW2 1086   7.142  13.926   3.093
66397SOL     OW 1087   7.231   9.026  10.528
66397SOL    HW1 1088   7.271   8.956  10.477
66397SOL    HW2 1089   7.273   9.106  10.496
66398SOL     OW 1090   4.976   1.421   6.531
66398SOL    HW1 1091   4.908   1.471   6.486
66398SOL    HW2 1092   4.967   1.332   6.499
66399SOL     OW 1093  13.255   7.044  11.392
66399SOL    HW1 1094  13.213   7.099  11.459
66399SOL    HW2 1095  13.249   7.095  11.312
66400SOL     OW 1096   5.974   0.577   2.791
66400SOL    HW1 1097   5.934   0.588   2.877
66400SOL    HW2 1098   5.906   0.534   2.738
66401SOL     OW 1099  12.082  12.796   8.306
66401SOL    HW1 1100  12.090  12.889   8.324
66401SOL    HW2 1101  11.997  12.787   8.264
66402SOL     OW 1102   8.121   2.842   1.693
66402SOL    HW1 1103   8.070   2.770   1.655
66402SOL    HW2 1104   8.060   2.915   1.698
66403SOL     OW 1105   6.745   1.796   9.593
66403SOL    HW1 1106   6.659   1.823   9.624
66403SOL    HW2 1107   6.741   1.809   9.498
66404SOL     OW 1108   6.738  13.423  11.365
66404SOL    HW1 1109   6.731  13.517  11.348
66404SOL    HW2 1110   6.656  13.387  11.333
66405SOL     OW 1111   5.839   9.275   9.595
66405SOL    HW1 1112   5.841   9.235   9.507
66405SOL    HW2 1113   5.842   9.200   9.654
66406SOL     OW 1114  14.395  10.222   6.166
66406SOL    HW1 1115  14.390  10.272   6.084
66406SOL    HW2 1116  14.338  10.270   6.227
66407SOL     OW 1117  11.903   7.586   1.578
66407SOL    HW1 1118  11.960   7.564   1.504
66407SOL    HW2 1119  11.958   7.574   1.655
66408SOL     OW 1120  11.692   2.576   8.363
66408SOL    HW1 1121  11.785   2.589   8.348
66408SOL    HW2 1122  11.652   2.660   8.342
66409SOL     OW 1123  10.033   5.181  11.361
66409SOL    HW1 1124  10.027   5.097  11.406
66409SOL    HW2 1125  10.078   5.161  11.279
66410SOL     OW 1126   2.622   9.415   4.265
66410SOL    HW1 1127   2.590   9.327   4.245
66410SOL    HW2 1128   2.693   9.401   4.328
66411SOL     OW 1129   5.400   3.617   1.834
66411SOL    HW1 1130   5.340   3.679   1.793
66411SOL    HW2 1131   5.445   3.574   1.761
66412SOL     OW 1132   9.518   1.703   1.619
66412SOL    HW1 1133   9.515   1.744   1.706
66412SOL    HW2 1134   9.607   1.669   1.612
66413SOL     OW 1135   0.766   2.689   4.136
66413SOL    HW1 1136   0.794   2.623   4.072
66413SOL    HW2 1137   0.813   2.768   4.110
66414SOL     OW 1138   1.036   8.750  10.195
66414SOL    HW1 1139   1.112   8.801  10.168
66414SOL    HW2 1140   0.981   8.745  10.117
66415SOL     OW 1141  10.876   4.471   4.198
66415SOL    HW1 1142  10.841   4.442   4.114
66415SOL    HW2 1143  10.870   4.566   4.196
66416SOL     OW 1144  10.989   1.598   0.177
66416SOL    HW1 1145  10.899   1.627   0.161
66416SOL    HW2 1146  10.988   1.504   0.155
66417SOL     OW 1147   6.564   0.879   4.982
66417SOL    HW1 1148   6.519   0.936   5.044
66417SOL    HW2 1149   6.532   0.791   5.003
66418SOL     OW 1150   4.652   7.515   7.457
66418SOL    HW1 1151   4.566   7.472   7.458
66418SOL    HW2 1152   4.636   7.600   7.416
66419SOL     OW 1153   5.164   1.987   9.150
66419SOL    HW1 1154   5.131   2.074   9.175
66419SOL    HW2 1155   5.208   1.955   9.228
66420SOL     OW 1156   8.693  11.471   7.622
66420SOL    HW1 1157   8.663  11.553   7.662
66420SOL    HW2 1158   8.788  11.473   7.632
66421SOL     OW 1159   0.297  13.071   6.673
66421SOL    HW1 1160   0.228  13.005   6.669
66421SOL    HW2 1161   0.377  13.024   6.653
66422SOL     OW 1162   8.233   4.288   6.618
66422SOL    HW1 1163   8.205   4.198   6.598
66422SOL    HW2 1164   8.233   4.332   6.533
66423SOL     OW 1165   1.095   3.763   2.399
66423SOL    HW1 1166   1.039   3.712   2.340
66423SOL    HW2 1167   1.174   3.710   2.409
66424SOL     OW 1168   6.890   9.636  13.967
66424SOL    HW1 1169   6.927   9.623  13.880
66424SOL    HW2 1170   6.924   9.721  13.996
66425SOL     OW 1171  10.448   3.896  10.765
66425SOL    HW1 1172  10.500   3.840  10.823
66425SOL    HW2 1173  10.360   3.892  10.802
66426SOL     OW 1174   2.735   7.483   0.542
66426SOL    HW1 1175   2.739   7.570   0.502
66426SOL    HW2 1176   2.756   7.498   0.634
66427SOL     OW 1177  10.812   9.510  10.047
66427SOL    HW1 1178  10.865   9.555  10.112
66427SOL    HW2 1179  10.722   9.531  10.070
66428SOL     OW 1180  13.152   9.947   2.656
66428SOL    HW1 1181  13.178   9.920   2.744
66428SOL    HW2 1182  13.056   9.945   2.657
66429SOL     OW 1183  14.278   5.891   4.320
66429SOL    HW1 1184  14.358   5.917   4.275
66429SOL    HW2 1185  14.302   5.810   4.366
66430SOL     OW 1186   9.489  14.430   6.796
66430SOL    HW1 1187   9.487  14.437   6.700
66430SOL    HW2 1188   9.417  14.371   6.817
66431SOL     OW 1189   2.367   1.201   0.281
66431SOL    HW1 1190   2.314   1.194   0.201
66431SOL    HW2 1191   2.304   1.220   0.350
66432SOL     OW 1192   7.114   3.146   6.776
66432SOL    HW1 1193   7.152   3.146   6.864
66432SOL    HW2 1194   7.021   3.165   6.789
66433SOL     OW 1195   4.697  12.009  11.002
66433SOL    HW1 1196   4.662  11.968  10.923
66433SOL    HW2 1197   4.627  12.069  11.031
66434SOL     OW 1198   8.090  14.166  10.394
66434SOL    HW1 1199   8.102  14.222  10.471
66434SOL    HW2 1200   8.009  14.119  10.410
66435SOL     OW 1201   8.394   6.236  13.600
66435SOL    HW1 1202   8.412   6.155  13.554
66435SOL    HW2 1203   8.312   6.268  13.563
66436SOL     OW 1204   6.576   1.071   2.872
66436SOL    HW1 1205   6.664   1.034   2.863
66436SOL    HW2 1206   6.520   1.014   2.821
66437SOL     OW 1207   5.387   0.169   0.555
66437SOL    HW1 1208   5.441   0.200   0.627
66437SOL    HW2 1209   5.330   0.103   0.594
66438SOL     OW 1210   3.866   5.475   7.177
66438SOL    HW1 1211   3.851   5.566   7.203
66438SOL    HW2 1212   3.923   5.439   7.245
66439SOL     OW 1213  14.693  14.225   6.862
66439SOL    HW1 1214  14.782  14.249   6.838
66439SOL    HW2 1215  14.638  14.276   6.802
66440SOL     OW 1216  10.570   3.039  10.916
66440SOL    HW1 1217  10.524   2.989  10.984
66440SOL    HW2 1218  10.620   2.973  10.868
66441SOL     OW 1219   4.443  12.417   1.061
66441SOL    HW1 1220   4.508  12.487   1.062
66441SOL    HW2 1221   4.368  12.454   1.015
66442SOL     OW 1222   0.851   3.530  11.944
66442SOL    HW1 1223   0.837   3.540  11.850
66442SOL    HW2 1224   0.887   3.442  11.954
66443SOL     OW 1225  14.326   4.053   6.707
66443SOL    HW1 1226  14.337   4.115   6.636
66443SOL    HW2 1227  14.289   4.105   6.779
66444SOL     OW 1228   4.014   9.309  10.906
66444SOL    HW1 1229   3.983   9.313  10.816
66444SOL    HW2 1230   3.935   9.316  10.959
66445SOL     OW 1231   2.580   9.369   2.580
66445SOL    HW1 1232   2.631   9.406   2.652
66445SOL    HW2 1233   2.633   9.386   2.502
66446SOL     OW 1234   7.537  13.954   3.909
66446SOL    HW1 1235   7.452  13.915   3.929
66446SOL    HW2 1236   7.586  13.948   3.992
66447SOL     OW 1237  11.038  13.527   4.127
66447SOL    HW1 1238  11.033  13.442   4.083
66447SOL    HW2 1239  11.074  13.508   4.213
66448SOL     OW 1240   9.608  11.200   1.848
66448SOL    HW1 1241   9.685  11.243   1.812
66448SOL    HW2 1242   9.544  11.201   1.777
66449SOL     OW 1243   4.409   0.068   0.139
66449SOL    HW1 1244   4.412  14.853   0.186
66449SOL    HW2 1245   4.392   0.133   0.207
66450SOL     OW 1246   6.599   7.187   4.502
66450SOL    HW1 1247   6.535   7.258   4.497
66450SOL    HW2 1248   6.627   7.185   4.594
66451SOL     OW 1249   2.325   6.148  12.225
66451SOL    HW1 1250   2.404   6.160  12.278
66451SOL    HW2 1251   2.271   6.088  12.276
66452SOL     OW 1252   5.990   9.715   0.442
66452SOL    HW1 1253   6.023   9.721   0.532
66452SOL    HW2 1254   5.926   9.644   0.445
66453SOL     OW 1255   0.142   5.415  12.925
66453SOL    HW1 1256   0.182   5.341  12.971
66453SOL    HW2 1257   0.051   5.416  12.956
66454SOL     OW 1258   3.863   2.804   3.799
66454SOL    HW1 1259   3.903   2.760   3.724
66454SOL    HW2 1260   3.770   2.782   3.794
66455SOL     OW 1261   0.716  11.883  12.815
66455SOL    HW1 1262   0.761  11.962  12.845
66455SOL    HW2 1263   0.698  11.900  12.722
66456SOL     OW 1264  13.685   1.523   8.924
66456SOL    HW1 1265  13.708   1.505   9.015
66456SOL    HW2 1266  13.735   1.459   8.873
66457SOL     OW 1267  11.943   2.988   0.966
66457SOL    HW1 1268  11.864   3.018   0.921
66457SOL    HW2 1269  12.011   3.049   0.939
66458SOL     OW 1270   5.689  10.178   2.396
66458SOL    HW1 1271   5.711  10.235   2.469
66458SOL    HW2 1272   5.609  10.216   2.359
66459SOL     OW 1273   3.961   8.893  14.819
66459SOL    HW1 1274   4.038   8.861  14.773
66459SOL    HW2 1275   3.952   8.836   0.028
66460SOL     OW 1276  13.221   6.548   2.016
66460SOL    HW1 1277  13.190   6.470   2.061
66460SOL    HW2 1278  13.189   6.621   2.069
66461SOL     OW 1279  10.084  11.163  13.045
66461SOL    HW1 1280  10.102  11.108  12.969
66461SOL    HW2 1281  10.130  11.245  13.026
66462SOL     OW 1282   9.046   8.317  14.149
66462SOL    HW1 1283   9.135   8.344  14.171
66462SOL    HW2 1284   9.022   8.253  14.216
66463SOL     OW 1285   7.457   6.185  10.370
66463SOL    HW1 1286   7.443   6.231  10.453
66463SOL    HW2 1287   7.480   6.096  10.395
66464SOL     OW 1288   2.735  10.475   4.926
66464SOL    HW1 1289   2.825  10.504   4.935
66464SOL    HW2 1290   2.732  10.431   4.842
66465SOL     OW 1291  11.034   7.889   9.520
66465SOL    HW1 1292  11.070   7.829   9.455
66465SOL    HW2 1293  11.024   7.836   9.599
66466SOL     OW 1294   8.013   1.527   9.147
66466SOL    HW1 1295   7.979   1.602   9.197
66466SOL    HW2 1296   8.036   1.564   9.062
66467SOL     OW 1297  13.592  10.405   0.864
66467SOL    HW1 1298  13.585  10.349   0.941
66467SOL    HW2 1299  13.683  10.436   0.865
66468SOL     OW 1300   1.535   2.286  11.588
66468SOL    HW1 1301   1.483   2.238  11.653
66468SOL    HW2 1302   1.625   2.279  11.620
66469SOL     OW 1303   4.150  14.127   3.141
66469SOL    HW1 1304   4.189  14.069   3.076
66469SOL    HW2 1305   4.056  14.123   3.123
66470SOL     OW 1306   3.151  13.214   6.620
66470SOL    HW1 1307   3.139  13.160   6.542
66470SOL    HW2 1308   3.246  13.228   6.625
66471SOL     OW 1309   4.963   7.571   3.499
66471SOL    HW1 1310   4.921   7.522   3.570
66471SOL    HW2 1311   4.906   7.647   3.486
66472SOL     OW 1312   9.610  10.831   9.559
66472SOL    HW1 1313   9.555  10.820   9.637
66472SOL    HW2 1314   9.553  10.873   9.495
66473SOL     OW 1315   7.972  11.128   3.606
66473SOL    HW1 1316   7.924  11.149   3.686
66473SOL    HW2 1317   8.063  11.151   3.625
66474SOL     OW 1318  13.942  11.950   7.305
66474SOL    HW1 1319  13.897  12.011   7.364
66474SOL    HW2 1320  13.894  11.956   7.222
66475SOL     OW 1321   9.359   3.980   3.883
66475SOL    HW1 1322   9.321   3.892   3.881
66475SOL    HW2 1323   9.319   4.022   3.960
66476SOL     OW 1324  10.825   9.772  12.381
66476SOL    HW1 1325  10.818   9.789  12.287
66476SOL    HW2 1326  10.760   9.829  12.421
66477SOL     OW 1327  12.605   0.066   6.595
66477SOL    HW1 1328  12.638   0.146   6.635
66477SOL    HW2 1329  12.510   0.070   6.609
66478SOL     OW 1330  11.340   4.972   1.224
66478SOL    HW1 1331  11.308   4.883   1.210
66478SOL    HW2 1332  11.432   4.969   1.196
66479SOL     OW 1333  14.640   6.654   8.818
66479SOL    HW1 1334  14.721   6.633   8.864
66479SOL    HW2 1335  14.590   6.707   8.880
66480SOL     OW 1336   0.455  14.853  13.956
66480SOL    HW1 1337   0.417  14.864  13.869
66480SOL    HW2 1338   0.433   0.066  14.002
66481SOL     OW 1339   9.123  11.802  14.535
66481SOL    HW1 1340   9.060  11.740  14.572
66481SOL    HW2 1341   9.207  11.777  14.572
66482SOL     OW 1342   3.029   9.051  12.564
66482SOL    HW1 1343   3.028   9.146  12.570
66482SOL    HW2 1344   2.942   9.028  12.531
66483SOL     OW 1345   8.828   5.114   1.656
66483SOL    HW1 1346   8.811   5.128   1.563
66483SOL    HW2 1347   8.826   5.201   1.695
66484SOL     OW 1348  12.667   7.639   5.971
66484SOL    HW1 1349  12.697   7.704   6.035
66484SOL    HW2 1350  12.733   7.570   5.975
66485SOL     OW 1351   5.987  14.112  10.380
66485SOL    HW1 1352   6.019  14.170  10.450
66485SOL    HW2 1353   6.042  14.133  10.304
66486SOL     OW 1354  14.605   0.766  14.432
66486SOL    HW1 1355  14.535   0.702  14.416
66486SOL    HW2 1356  14.560   0.842  14.467
66487SOL     OW 1357   9.035   9.827  13.067
66487SOL    HW1 1358   8.962   9.779  13.029
66487SOL    HW2 1359   9.108   9.810  13.008
66488SOL     OW 1360   0.693  12.827   0.725
66488SOL    HW1 1361   0.619  12.880   0.698
66488SOL    HW2 1362   0.707  12.849   0.817
66489SOL     OW 1363   2.948   2.742   5.074
66489SOL    HW1 1364   3.001   2.795   5.014
66489SOL    HW2 1365   2.950   2.791   5.157
66490SOL     OW 1366  11.417   3.049   3.538
66490SOL    HW1 1367  11.508   3.073   3.553
66490SOL    HW2 1368  11.379   3.126   3.495
66491SOL     OW 1369   7.257   0.064  14.625
66491SOL    HW1 1370   7.243   0.070  14.720
66491SOL    HW2 1371   7.352   0.076  14.614
66492SOL     OW 1372   8.177   7.958   1.141
66492SOL    HW1 1373   8.171   7.905   1.061
66492SOL    HW2 1374   8.214   7.898   1.206
66493SOL     OW 1375   3.510  10.513   3.903
66493SOL    HW1 1376   3.555  10.548   3.826
66493SOL    HW2 1377   3.513  10.418   3.891
66494SOL     OW 1378   6.675   3.845   2.401
66494SOL    HW1 1379   6.602   3.786   2.381
66494SOL    HW2 1380   6.708   3.813   2.485
66495SOL     OW 1381   0.360  11.480  13.271
66495SOL    HW1 1382   0.432  11.443  13.219
66495SOL    HW2 1383   0.373  11.442  13.359
66496SOL     OW 1384  12.525  12.911   8.968
66496SOL    HW1 1385  12.517  12.945   9.057
66496SOL    HW2 1386  12.485  12.978   8.913
66497SOL     OW 1387   1.698   9.400   8.777
66497SOL    HW1 1388   1.663   9.474   8.727
66497SOL    HW2 1389   1.754   9.439   8.843
66498SOL     OW 1390   6.325   1.526   7.183
66498SOL    HW1 1391   6.375   1.455   7.144
66498SOL    HW2 1392   6.234   1.493   7.184
66499SOL     OW 1393   0.898  12.952  13.564
66499SOL    HW1 1394   0.857  13.032  13.531
66499SOL    HW2 1395   0.840  12.922  13.634
66500SOL     OW 1396  12.688   7.131  13.433
66500SOL    HW1 1397  12.748   7.167  13.498
66500SOL    HW2 1398  12.743   7.111  13.358
66501SOL     OW 1399   1.534   7.297   2.333
66501SOL    HW1 1400   1.513   7.253   2.251
66501SOL    HW2 1401   1.588   7.234   2.381
66502SOL     OW 1402  13.885   5.460   9.493
66502SOL    HW1 1403  13.889   5.506   9.577
66502SOL    HW2 1404  13.881   5.529   9.427
66503SOL     OW 1405   3.029   3.377  13.747
66503SOL    HW1 1406   3.075   3.333  13.675
66503SOL    HW2 1407   2.971   3.439  13.704
66504SOL     OW 1408  13.067   8.774   8.387
66504SOL    HW1 1409  13.014   8.853   8.400
66504SOL    HW2 1410  13.076   8.737   8.475
66505SOL     OW 1411  13.743   2.532   6.361
66505SOL    HW1 1412  13.815   2.475   6.388
66505SOL    HW2 1413  13.702   2.560   6.443
66506SOL     OW 1414   2.111   9.191   2.249
66506SOL    HW1 1415   2.022   9.176   2.218
66506SOL    HW2 1416   2.124   9.286   2.240
66507SOL     OW 1417  13.346  11.773   8.384
66507SOL    HW1 1418  13.322  11.685   8.412
66507SOL    HW2 1419  13.263  11.814   8.361
66508SOL     OW 1420   3.142   7.658   0.536
66508SOL    HW1 1421   3.156   7.743   0.579
66508SOL    HW2 1422   3.111   7.601   0.606
66509SOL     OW 1423   1.026   8.384   1.711
66509SOL    HW1 1424   0.986   8.344   1.633
66509SOL    HW2 1425   1.088   8.319   1.742
66510SOL     OW 1426  10.146   4.175   6.448
66510SOL    HW1 1427  10.136   4.093   6.400
66510SOL    HW2 1428  10.067   4.225   6.428
66511SOL     OW 1429   7.003   4.166  12.387
66511SOL    HW1 1430   6.909   4.183  12.392
66511SOL    HW2 1431   7.044   4.251  12.403
66512SOL     OW 1432  10.105   4.306   1.768
66512SOL    HW1 1433  10.044   4.379   1.762
66512SOL    HW2 1434  10.137   4.292   1.679
66513SOL     OW 1435  10.104   0.211   8.777
66513SOL    HW1 1436  10.089   0.300   8.747
66513SOL    HW2 1437  10.167   0.175   8.715
66514SOL     OW 1438   5.953   0.149  13.968
66514SOL    HW1 1439   5.919   0.066  13.934
66514SOL    HW2 1440   6.045   0.131  13.988
66515SOL     OW 1441  12.015   5.882  13.437
66515SOL    HW1 1442  12.031   5.923  13.521
66515SOL    HW2 1443  12.094   5.829  13.421
66516SOL     OW 1444  10.312  13.011  12.007
66516SOL    HW1 1445  10.299  12.936  11.950
66516SOL    HW2 1446  10.250  13.077  11.975
66517SOL     OW 1447  10.820   2.193   1.986
66517SOL    HW1 1448  10.756   2.254   2.022
66517SOL    HW2 1449  10.869   2.162   2.062
66518SOL     OW 1450   6.151   9.308   4.792
66518SOL    HW1 1451   6.166   9.215   4.775
66518SOL    HW2 1452   6.193   9.353   4.720
66519SOL     OW 1453   2.376  12.364   0.084
66519SOL    HW1 1454   2.362  12.448   0.040
66519SOL    HW2 1455   2.321  12.368   0.162
66520SOL     OW 1456  12.305   7.211  13.977
66520SOL    HW1 1457  12.215   7.240  13.961
66520SOL    HW2 1458  12.331   7.256  14.057
66521SOL     OW 1459   4.937  12.777  13.932
66521SOL    HW1 1460   4.920  12.778  14.026
66521SOL    HW2 1461   4.947  12.869  13.908
66522SOL     OW 1462   8.571  10.557   3.874
66522SOL    HW1 1463   8.660  10.592   3.871
66522SOL    HW2 1464   8.582  10.463   3.861
66523SOL     OW 1465   7.728   9.587   5.516
66523SOL    HW1 1466   7.666   9.517   5.495
66523SOL    HW2 1467   7.674   9.667   5.516
66524SOL     OW 1468   2.935   6.042  10.093
66524SOL    HW1 1469   2.857   6.073  10.138
66524SOL    HW2 1470   2.910   5.958  10.055
66525SOL     OW 1471   0.318   0.304   2.873
66525SOL    HW1 1472   0.333   0.261   2.789
66525SOL    HW2 1473   0.288   0.392   2.850
66526SOL     OW 1474   8.670  11.793   3.991
66526SOL    HW1 1475   8.616  11.794   4.070
66526SOL    HW2 1476   8.685  11.885   3.971
66527SOL     OW 1477   5.071   2.693  14.269
66527SOL    HW1 1478   5.051   2.785  14.254
66527SOL    HW2 1479   5.032   2.647  14.194
66528SOL     OW 1480   8.505  10.762   5.811
66528SOL    HW1 1481   8.459  10.753   5.894
66528SOL    HW2 1482   8.448  10.817   5.757
66529SOL     OW 1483   6.529  14.719   6.732
66529SOL    HW1 1484   6.498  14.721   6.823
66529SOL    HW2 1485   6.475  14.652   6.690
66530SOL     OW 1486   8.388  13.348  11.441
66530SOL    HW1 1487   8.309  13.310  11.478
66530SOL    HW2 1488   8.459  13.310  11.492
66531SOL     OW 1489   8.447   6.813   0.530
66531SOL    HW1 1490   8.525   6.784   0.576
66531SOL    HW2 1491   8.403   6.733   0.501
66532SOL     OW 1492  12.599   1.695   5.670
66532SOL    HW1 1493  12.572   1.703   5.579
66532SOL    HW2 1494  12.533   1.745   5.719
66533SOL     OW 1495   7.607   6.784  14.627
66533SOL    HW1 1496   7.586   6.706  14.575
66533SOL    HW2 1497   7.641   6.847  14.563
66534SOL     OW 1498   0.119   6.672  11.474
66534SOL    HW1 1499   0.053   6.738  11.494
66534SOL    HW2 1500   0.083   6.622  11.401
66535SOL     OW 1501   8.476   0.242   9.594
66535SOL    HW1 1502   8.426   0.297   9.533
66535SOL    HW2 1503   8.566   0.247   9.562
66536SOL     OW 1504   1.063  14.414  13.986
66536SOL    HW1 1505   1.091  14.461  14.064
66536SOL    HW2 1506   0.971  14.436  13.976
66537SOL     OW 1507  12.943  11.595  12.682
66537SOL    HW1 1508  12.875  11.533  12.708
66537SOL    HW2 1509  12.985  11.620  12.764
66538SOL     OW 1510   6.377   3.866   2.493
66538SOL    HW1 1511   6.302   3.908   2.450
66538SOL    HW2 1512   6.446   3.932   2.489
66539SOL     OW 1513  13.823   7.705   6.293
66539SOL    HW1 1514  13.860   7.794   6.293
66539SOL    HW2 1515  13.740   7.715   6.339
66540SOL     OW 1516   3.331  10.336   0.971
66540SOL    HW1 1517   3.296  10.355   1.058
66540SOL    HW2 1518   3.275  10.265   0.938
66541SOL     OW 1519   1.468   8.839   8.697
66541SOL    HW1 1520   1.486   8.932   8.714
66541SOL    HW2 1521   1.552   8.796   8.712
66542SOL     OW 1522  10.864   9.615   5.486
66542SOL    HW1 1523  10.883   9.531   5.445
66542SOL    HW2 1524  10.911   9.679   5.432
66543SOL     OW 1525   0.900   9.531   3.231
66543SOL    HW1 1526   0.931   9.602   3.286
66543SOL    HW2 1527   0.927   9.555   3.142
66544SOL     OW 1528   4.097   7.465  12.766
66544SOL    HW1 1529   4.131   7.460  12.677
66544SOL    HW2 1530   4.004   7.445  12.758
66545SOL     OW 1531  14.543  14.284   7.094
66545SOL    HW1 1532  14.583  14.254   7.012
66545SOL    HW2 1533  14.449  14.276   7.080
66546SOL     OW 1534  10.484  14.361   9.538
66546SOL    HW1 1535  10.479  14.279   9.588
66546SOL    HW2 1536  10.538  14.338   9.462
66547SOL     OW 1537  13.148   1.955   6.933
66547SOL    HW1 1538  13.228   2.000   6.960
66547SOL    HW2 1539  13.086   2.026   6.915
66548SOL     OW 1540   0.836   0.858   0.093
66548SOL    HW1 1541   0.836   0.834   0.000
66548SOL    HW2 1542   0.922   0.829   0.125
66549SOL     OW 1543   4.466  12.895   5.228
66549SOL    HW1 1544   4.433  12.811   5.261
66549SOL    HW2 1545   4.454  12.889   5.133
66550SOL     OW 1546  13.947   2.011   1.343
66550SOL    HW1 1547  14.029   2.017   1.294
66550SOL    HW2 1548  13.880   1.996   1.277
66551SOL     OW 1549   9.164   8.080   2.801
66551SOL    HW1 1550   9.123   8.102   2.885
66551SOL    HW2 1551   9.134   8.149   2.741
66552SOL     OW 1552   6.291   6.296  14.189
66552SOL    HW1 1553   6.236   6.222  14.215
66552SOL    HW2 1554   6.348   6.260  14.120
66553SOL     OW 1555  12.598   4.748   9.392
66553SOL    HW1 1556  12.543   4.763   9.315
66553SOL    HW2 1557  12.627   4.657   9.383
66554SOL     OW 1558   6.812   2.624  11.922
66554SOL    HW1 1559   6.801   2.593  12.012
66554SOL    HW2 1560   6.765   2.707  11.920
66555SOL     OW 1561  13.237   6.270  10.743
66555SOL    HW1 1562  13.256   6.292  10.834
66555SOL    HW2 1563  13.316   6.227  10.712
66556SOL     OW 1564   0.133   8.258   4.078
66556SOL    HW1 1565   0.067   8.195   4.107
66556SOL    HW2 1566   0.170   8.293   4.159
66557SOL     OW 1567  12.787   8.537  10.346
66557SOL    HW1 1568  12.806   8.629  10.324
66557SOL    HW2 1569  12.692   8.534  10.354
66558SOL     OW 1570  10.498   4.186   4.736
66558SOL    HW1 1571  10.455   4.187   4.651
66558SOL    HW2 1572  10.559   4.112   4.732
66559SOL     OW 1573   7.045   4.453   7.207
66559SOL    HW1 1574   6.969   4.471   7.152
66559SOL    HW2 1575   7.069   4.363   7.187
66560SOL     OW 1576  13.763   2.484   7.302
66560SOL    HW1 1577  13.735   2.392   7.307
66560SOL    HW2 1578  13.798   2.503   7.389
66561SOL     OW 1579   0.012   2.053   6.117
66561SOL    HW1 1580   0.102   2.038   6.089
66561SOL    HW2 1581  14.830   1.980   6.080
66562SOL     OW 1582   3.887   8.834   2.437
66562SOL    HW1 1583   3.941   8.817   2.360
66562SOL    HW2 1584   3.949   8.853   2.507
66563SOL     OW 1585  14.190   8.074   1.497
66563SOL    HW1 1586  14.140   7.993   1.511
66563SOL    HW2 1587  14.270   8.061   1.547
66564SOL     OW 1588   5.534   5.613   7.472
66564SOL    HW1 1589   5.574   5.635   7.556
66564SOL    HW2 1590   5.506   5.697   7.436
66565SOL     OW 1591   1.205   8.893   9.751
66565SOL    HW1 1592   1.149   8.821   9.721
66565SOL    HW2 1593   1.286   8.883   9.701
66566SOL     OW 1594   6.733   2.500   7.339
66566SOL    HW1 1595   6.757   2.531   7.252
66566SOL    HW2 1596   6.676   2.568   7.374
66567SOL     OW 1597   1.294  14.684   7.316
66567SOL    HW1 1598   1.216  14.716   7.270
66567SOL    HW2 1599   1.291  14.589   7.304
66568SOL     OW 1600  14.262  13.527   7.141
66568SOL    HW1 1601  14.322  13.469   7.188
66568SOL    HW2 1602  14.189  13.471   7.115
66569SOL     OW 1603   7.046  10.420  14.368
66569SOL    HW1 1604   7.004  10.344  14.408
66569SOL    HW2 1605   6.986  10.493  14.387
66570SOL     OW 1606   0.925   9.181   2.487
66570SOL    HW1 1607   1.007   9.229   2.475
66570SOL    HW2 1608   0.940   9.096   2.447
66571SOL     OW 1609   5.134   4.380   6.991
66571SOL    HW1 1610   5.168   4.424   7.069
66571SOL    HW2 1611   5.091   4.302   7.026
66572SOL     OW 1612   1.775   4.628   6.886
66572SOL    HW1 1613   1.829   4.570   6.940
66572SOL    HW2 1614   1.734   4.688   6.949
66573SOL     OW 1615  13.267   7.667  12.529
66573SOL    HW1 1616  13.203   7.598  12.510
66573SOL    HW2 1617  13.302   7.692  12.444
66574SOL     OW 1618  11.023  11.823   3.660
66574SOL    HW1 1619  10.938  11.848   3.624
66574SOL    HW2 1620  11.039  11.886   3.730
66575SOL     OW 1621   8.248   2.583   6.353
66575SOL    HW1 1622   8.222   2.509   6.298
66575SOL    HW2 1623   8.173   2.598   6.410
66576SOL     OW 1624   4.533   5.881  12.333
66576SOL    HW1 1625   4.490   5.956  12.373
66576SOL    HW2 1626   4.539   5.903  12.240
66577SOL     OW 1627   1.991   6.125   4.033
66577SOL    HW1 1628   1.994   6.063   4.105
66577SOL    HW2 1629   1.976   6.210   4.075
66578SOL     OW 1630   1.970  11.311   6.328
66578SOL    HW1 1631   1.898  11.361   6.366
66578SOL    HW2 1632   1.967  11.334   6.235
66579SOL     OW 1633  13.515   6.803   6.379
66579SOL    HW1 1634  13.473   6.804   6.465
66579SOL    HW2 1635  13.447   6.775   6.319
66580SOL     OW 1636  14.529  14.086   5.115
66580SOL    HW1 1637  14.523  14.114   5.023
66580SOL    HW2 1638  14.606  14.030   5.118
66581SOL     OW 1639  13.406  11.144   9.285
66581SOL    HW1 1640  13.422  11.224   9.236
66581SOL    HW2 1641  13.440  11.074   9.230
66582SOL     OW 1642   8.517   1.541   9.489
66582SOL    HW1 1643   8.576   1.481   9.444
66582SOL    HW2 1644   8.533   1.626   9.447
66583SOL     OW 1645   3.984   0.083   7.123
66583SOL    HW1 1646   3.934   0.162   7.146
66583SOL    HW2 1647   4.073   0.102   7.153
66584SOL     OW 1648  10.918  12.006  10.900
66584SOL    HW1 1649  10.838  12.058  10.888
66584SOL    HW2 1650  10.988  12.060  10.863
66585SOL     OW 1651   6.696   3.684  10.668
66585SOL    HW1 1652   6.603   3.685  10.692
66585SOL    HW2 1653   6.740   3.725  10.742
66586SOL     OW 1654   4.550   8.540   8.205
66586SOL    HW1 1655   4.638   8.511   8.184
66586SOL    HW2 1656   4.516   8.576   8.123
66587SOL     OW 1657   7.844  11.928  14.374
66587SOL    HW1 1658   7.792  11.956  14.299
66587SOL    HW2 1659   7.866  12.010  14.419
66588SOL     OW 1660   5.484   9.560  13.774
66588SOL    HW1 1661   5.493   9.466  13.759
66588SOL    HW2 1662   5.488   9.598  13.686
66589SOL     OW 1663   2.628  13.962   4.848
66589SOL    HW1 1664   2.615  13.938   4.940
66589SOL    HW2 1665   2.705  14.019   4.849
66590SOL     OW 1666   1.731   5.265  13.319
66590SOL    HW1 1667   1.705   5.340  13.266
66590SOL    HW2 1668   1.804   5.296  13.372
66591SOL     OW 1669  12.292  11.165   4.681
66591SOL    HW1 1670  12.270  11.109   4.607
66591SOL    HW2 1671  12.384  11.147   4.699
66592SOL     OW 1672  14.298   2.209   5.377
66592SOL    HW1 1673  14.360   2.153   5.332
66592SOL    HW2 1674  14.309   2.295   5.336
66593SOL     OW 1675   4.946   5.916  10.192
66593SOL    HW1 1676   4.988   5.869  10.264
66593SOL    HW2 1677   5.010   5.913  10.120
66594SOL     OW 1678   6.503  11.834  10.318
66594SOL    HW1 1679   6.498  11.876  10.404
66594SOL    HW2 1680   6.462  11.897  10.258
66595SOL     OW 1681   0.258   7.228   8.942
66595SOL    HW1 1682   0.175   7.186   8.966
66595SOL    HW2 1683   0.302   7.244   9.025
66596SOL     OW 1684   7.129   0.452   9.792
66596SOL    HW1 1685   7.190   0.526   9.799
66596SOL    HW2 1686   7.083   0.451   9.876
66597SOL     OW 1687  12.207  10.464   9.580
66597SOL    HW1 1688  12.248  10.548   9.601
66597SOL    HW2 1689  12.272  10.398   9.603
66598SOL     OW 1690   3.066   1.699   3.958
66598SOL    HW1 1691   3.130   1.719   4.026
66598SOL    HW2 1692   3.105   1.628   3.908
66599SOL     OW 1693   2.617  10.592   6.689
66599SOL    HW1 1694   2.596  10.578   6.781
66599SOL    HW2 1695   2.712  10.599   6.686
66600SOL     OW 1696  14.019   7.729   4.416
66600SOL    HW1 1697  14.085   7.673   4.455
66600SOL    HW2 1698  13.995   7.685   4.334
66601SOL     OW 1699  12.597  13.661  13.776
66601SOL    HW1 1700  12.664  13.659  13.708
66601SOL    HW2 1701  12.538  13.731  13.748
66602SOL     OW 1702   6.619   2.161   2.599
66602SOL    HW1 1703   6.676   2.133   2.527
66602SOL    HW2 1704   6.532   2.130   2.574
66603SOL     OW 1705   5.059   8.884   1.597
66603SOL    HW1 1706   5.154   8.877   1.586
66603SOL    HW2 1707   5.040   8.977   1.588
66604SOL     OW 1708   7.805   6.522   0.106
66604SOL    HW1 1709   7.824   6.497   0.197
66604SOL    HW2 1710   7.891   6.543   0.069
66605SOL     OW 1711  10.529   6.538   5.285
66605SOL    HW1 1712  10.501   6.453   5.252
66605SOL    HW2 1713  10.624   6.531   5.293
66606SOL     OW 1714   8.906  10.074   0.881
66606SOL    HW1 1715   8.848  10.136   0.924
66606SOL    HW2 1716   8.986  10.124   0.861
66607SOL     OW 1717   8.751  10.257  12.822
66607SOL    HW1 1718   8.798  10.330  12.863
66607SOL    HW2 1719   8.671  10.296  12.787
66608SOL     OW 1720  13.734   5.755  12.658
66608SOL    HW1 1721  13.643   5.780  12.669
66608SOL    HW2 1722  13.731   5.675  12.605
66609SOL     OW 1723   3.192   7.907   1.990
66609SOL    HW1 1724   3.103   7.887   2.020
66609SOL    HW2 1725   3.247   7.842   2.032
66610SOL     OW 1726   5.619   4.925   5.826
66610SOL    HW1 1727   5.548   4.939   5.763
66610SOL    HW2 1728   5.574   4.909   5.909
66611SOL     OW 1729   8.007  10.578   0.158
66611SOL    HW1 1730   7.915  10.593   0.179
66611SOL    HW2 1731   8.005  10.520   0.083
66612SOL     OW 1732   5.305   0.330  11.588
66612SOL    HW1 1733   5.228   0.285  11.621
66612SOL    HW2 1734   5.293   0.331  11.493
66613SOL     OW 1735  10.213   0.850   7.032
66613SOL    HW1 1736  10.249   0.934   7.005
66613SOL    HW2 1737  10.238   0.842   7.124
66614SOL     OW 1738   4.196  11.179   6.163
66614SOL    HW1 1739   4.223  11.126   6.089
66614SOL    HW2 1740   4.111  11.144   6.189
66615SOL     OW 1741   7.890  11.484   1.266
66615SOL    HW1 1742   7.890  11.575   1.237
66615SOL    HW2 1743   7.892  11.433   1.185
66616SOL     OW 1744  10.176   0.641   5.906
66616SOL    HW1 1745  10.177   0.602   5.993
66616SOL    HW2 1746  10.268   0.652   5.882
66617SOL     OW 1747   1.248  10.997   4.440
66617SOL    HW1 1748   1.179  11.046   4.485
66617SOL    HW2 1749   1.292  10.948   4.510
66618SOL     OW 1750  11.589   4.052  13.025
66618SOL    HW1 1751  11.607   4.007  13.107
66618SOL    HW2 1752  11.665   4.032  12.970
66619SOL     OW 1753   2.568   7.845  13.967
66619SOL    HW1 1754   2.478   7.871  13.947
66619SOL    HW2 1755   2.562   7.752  13.988
66620SOL     OW 1756  11.209   2.812  11.826
66620SOL    HW1 1757  11.248   2.844  11.907
66620SOL    HW2 1758  11.278   2.761  11.784
66621SOL     OW 1759   4.965   6.182  10.217
66621SOL    HW1 1760   4.944   6.089  10.206
66621SOL    HW2 1761   5.053   6.192  10.182
66622SOL     OW 1762  12.492   0.482   8.272
66622SOL    HW1 1763  12.440   0.454   8.347
66622SOL    HW2 1764  12.458   0.429   8.199
66623SOL     OW 1765   4.708   1.731   9.110
66623SOL    HW1 1766   4.792   1.778   9.107
66623SOL    HW2 1767   4.684   1.721   9.018
66624SOL     OW 1768   4.259   1.805  14.440
66624SOL    HW1 1769   4.169   1.817  14.471
66624SOL    HW2 1770   4.288   1.892  14.414
66625SOL     OW 1771  10.429  10.882   9.114
66625SOL    HW1 1772  10.440  10.927   9.198
66625SOL    HW2 1773  10.458  10.792   9.131
66626SOL     OW 1774   7.789   5.899  13.306
66626SOL    HW1 1775   7.777   5.969  13.241
66626SOL    HW2 1776   7.865   5.851  13.275
66627SOL     OW 1777  13.701   5.698   1.767
66627SOL    HW1 1778  13.697   5.713   1.673
66627SOL    HW2 1779  13.751   5.617   1.777
66628SOL     OW 1780  12.322  12.294  10.434
66628SOL    HW1 1781  12.338  12.200  10.421
66628SOL    HW2 1782  12.355  12.335  10.354
66629SOL     OW 1783   9.711   2.622   9.201
66629SOL    HW1 1784   9.793   2.669   9.190
66629SOL    HW2 1785   9.736   2.530   9.207
66630SOL     OW 1786  13.315  10.274   1.168
66630SOL    HW1 1787  13.378  10.290   1.238
66630SOL    HW2 1788  13.242  10.229   1.211
66631SOL     OW 1789  11.752  13.122  12.840
66631SOL    HW1 1790  11.818  13.063  12.877
66631SOL    HW2 1791  11.797  13.206  12.831
66632SOL     OW 1792   6.844  11.557   9.519
66632SOL    HW1 1793   6.758  11.519   9.502
66632SOL    HW2 1794   6.870  11.521   9.604
66633SOL     OW 1795  13.826  13.713   6.091
66633SOL    HW1 1796  13.815  13.732   5.998
66633SOL    HW2 1797  13.768  13.639   6.108
66634SOL     OW 1798   0.330   1.360   7.028
66634SOL    HW1 1799   0.273   1.432   6.999
66634SOL    HW2 1800   0.311   1.289   6.966
66635SOL     OW 1801   6.317   0.774  12.181
66635SOL    HW1 1802   6.293   0.682  12.174
66635SOL    HW2 1803   6.234   0.821  12.190
66636SOL     OW 1804  13.200  10.639  14.604
66636SOL    HW1 1805  13.269  10.581  14.572
66636SOL    HW2 1806  13.135  10.641  14.534
66637SOL     OW 1807   1.552   1.113   9.261
66637SOL    HW1 1808   1.549   1.137   9.169
66637SOL    HW2 1809   1.526   1.021   9.264
66638SOL     OW 1810   8.881   5.393  14.422
66638SOL    HW1 1811   8.900   5.310  14.378
66638SOL    HW2 1812   8.848   5.367  14.508
66639SOL     OW 1813   3.238  10.135   0.323
66639SOL    HW1 1814   3.252  10.069   0.255
66639SOL    HW2 1815   3.201  10.087   0.397
66640SOL     OW 1816  13.335   9.239   3.378
66640SOL    HW1 1817  13.261   9.203   3.330
66640SOL    HW2 1818  13.398   9.266   3.310
66641SOL     OW 1819   6.782  11.662  13.712
66641SOL    HW1 1820   6.710  11.645  13.773
66641SOL    HW2 1821   6.755  11.620  13.631
66642SOL     OW 1822  11.606   8.167  13.741
66642SOL    HW1 1823  11.559   8.118  13.673
66642SOL    HW2 1824  11.696   8.137  13.735
66643SOL     OW 1825   8.425   3.143   7.857
66643SOL    HW1 1826   8.368   3.082   7.904
66643SOL    HW2 1827   8.367   3.190   7.797
66644SOL     OW 1828   6.095   9.764   2.822
66644SOL    HW1 1829   6.069   9.674   2.804
66644SOL    HW2 1830   6.126   9.762   2.912
66645SOL     OW 1831   8.087   5.963   5.493
66645SOL    HW1 1832   8.070   6.051   5.458
66645SOL    HW2 1833   8.007   5.914   5.474
66646SOL     OW 1834  14.498   1.412   1.902
66646SOL    HW1 1835  14.446   1.490   1.920
66646SOL    HW2 1836  14.585   1.433   1.936
66647SOL     OW 1837   4.795   2.808   9.422
66647SOL    HW1 1838   4.791   2.884   9.480
66647SOL    HW2 1839   4.742   2.742   9.466
66648SOL     OW 1840   0.745  13.471   3.199
66648SOL    HW1 1841   0.661  13.456   3.242
66648SOL    HW2 1842   0.775  13.556   3.234
66649SOL     OW 1843  13.964  14.846   9.306
66649SOL    HW1 1844  14.031   0.010   9.245
66649SOL    HW2 1845  14.013  14.806   9.377
66650SOL     OW 1846   5.955   5.427   3.896
66650SOL    HW1 1847   5.975   5.368   3.968
66650SOL    HW2 1848   5.875   5.391   3.857
66651SOL     OW 1849  11.997  12.917  12.246
66651SOL    HW1 1850  12.038  12.884  12.166
66651SOL    HW2 1851  12.043  12.872  12.317
66652SOL     OW 1852  14.742  11.472   8.320
66652SOL    HW1 1853  14.757  11.377   8.329
66652SOL    HW2 1854  14.823  11.512   8.351
66653SOL     OW 1855  10.027   1.872   2.126
66653SOL    HW1 1856  10.028   1.888   2.221
66653SOL    HW2 1857  10.118   1.852   2.104
66654SOL     OW 1858  12.623  11.451   4.515
66654SOL    HW1 1859  12.695  11.393   4.539
66654SOL    HW2 1860  12.591  11.417   4.431
66655SOL     OW 1861   7.402  11.172  14.366
66655SOL    HW1 1862   7.365  11.156  14.453
66655SOL    HW2 1863   7.413  11.085  14.329
66656SOL     OW 1864   6.083  14.487   8.027
66656SOL    HW1 1865   6.130  14.469   8.108
66656SOL    HW2 1866   6.121  14.426   7.963
66657SOL     OW 1867   3.472   5.700  14.331
66657SOL    HW1 1868   3.565   5.682  14.337
66657SOL    HW2 1869   3.466   5.778  14.276
66658SOL     OW 1870  12.330   8.385   8.319
66658SOL    HW1 1871  12.259   8.445   8.339
66658SOL    HW2 1872  12.402   8.412   8.375
66659SOL     OW 1873   6.530  13.133   2.608
66659SOL    HW1 1874   6.513  13.198   2.540
66659SOL    HW2 1875   6.593  13.175   2.666
66660SOL     OW 1876  12.603  14.612   1.232
66660SOL    HW1 1877  12.613  14.636   1.140
66660SOL    HW2 1878  12.636  14.687   1.281
66661SOL     OW 1879   6.250   6.285   6.775
66661SOL    HW1 1880   6.198   6.325   6.706
66661SOL    HW2 1881   6.322   6.346   6.790
66662SOL     OW 1882   0.757  12.416   4.276
66662SOL    HW1 1883   0.799  12.356   4.337
66662SOL    HW2 1884   0.784  12.387   4.189
66663SOL     OW 1885   7.071   9.991   1.668
66663SOL    HW1 1886   7.111   9.945   1.741
66663SOL    HW2 1887   7.089  10.083   1.685
66664SOL     OW 1888  12.133   8.061   4.871
66664SOL    HW1 1889  12.088   8.142   4.846
66664SOL    HW2 1890  12.076   8.023   4.938
66665SOL     OW 1891  12.926   2.194   2.190
66665SOL    HW1 1892  12.972   2.114   2.163
66665SOL    HW2 1893  12.899   2.175   2.280
66666SOL     OW 1894   8.717  13.407  11.886
66666SOL    HW1 1895   8.720  13.502  11.896
66666SOL    HW2 1896   8.718  13.392  11.791
66667SOL     OW 1897  14.815   8.057   5.352
66667SOL    HW1 1898   0.030   8.019   5.323
66667SOL    HW2 1899  14.748   8.004   5.309
66668SOL     OW 1900   7.914   4.008   3.836
66668SOL    HW1 1901   7.980   4.039   3.897
66668SOL    HW2 1902   7.831   4.041   3.870
66669SOL     OW 1903  12.353  12.443  14.723
66669SOL    HW1 1904  12.367  12.536  14.707
66669SOL    HW2 1905  12.321  12.409  14.639
66670SOL     OW 1906   2.528   9.630   1.619
66670SOL    HW1 1907   2.606   9.685   1.612
66670SOL    HW2 1908   2.508   9.629   1.713
66671SOL     OW 1909  11.461  11.345   4.962
66671SOL    HW1 1910  11.475  11.274   5.025
66671SOL    HW2 1911  11.543  11.394   4.962
66672SOL     OW 1912   2.458   2.594   6.030
66672SOL    HW1 1913   2.498   2.547   5.957
66672SOL    HW2 1914   2.409   2.665   5.989
66673SOL     OW 1915   9.990   9.963  11.002
66673SOL    HW1 1916  10.063   9.906  10.977
66673SOL    HW2 1917  10.009   9.988  11.092
66674SOL     OW 1918   0.220  10.207  13.836
66674SOL    HW1 1919   0.144  10.211  13.778
66674SOL    HW2 1920   0.260  10.122  13.818
66675SOL     OW 1921  13.548   4.631   4.863
66675SOL    HW1 1922  13.618   4.567   4.876
66675SOL    HW2 1923  13.572   4.677   4.783
66676SOL     OW 1924  13.217   5.405   5.417
66676SOL    HW1 1925  13.311   5.385   5.420
66676SOL    HW2 1926  13.182   5.364   5.496
66677SOL     OW 1927   1.280   8.933  12.775
66677SOL    HW1 1928   1.356   8.990  12.765
66677SOL    HW2 1929   1.236   8.937  12.690
66678SOL     OW 1930   1.238   3.035   8.636
66678SOL    HW1 1931   1.280   3.070   8.714
66678SOL    HW2 1932   1.285   3.076   8.563
66679SOL     OW 1933   6.085   3.212  10.206
66679SOL    HW1 1934   6.074   3.154  10.130
66679SOL    HW2 1935   5.997   3.225  10.240
66680SOL     OW 1936   1.983  11.645   2.535
66680SOL    HW1 1937   2.055  11.596   2.574
66680SOL    HW2 1938   1.905  11.596   2.557
66681SOL     OW 1939   0.865  12.928  13.868
66681SOL    HW1 1940   0.770  12.928  13.879
66681SOL    HW2 1941   0.895  12.851  13.916
66682SOL     OW 1942   2.197   5.179  14.035
66682SOL    HW1 1943   2.216   5.255  13.980
66682SOL    HW2 1944   2.263   5.114  14.011
66683SOL     OW 1945   6.470   0.149  14.094
66683SOL    HW1 1946   6.495   0.157  14.002
66683SOL    HW2 1947   6.550   0.117  14.137
66684SOL     OW 1948   0.844   6.554   0.695
66684SOL    HW1 1949   0.804   6.469   0.715
66684SOL    HW2 1950   0.913   6.565   0.761
66685SOL     OW 1951   3.438   5.186  13.151
66685SOL    HW1 1952   3.367   5.196  13.087
66685SOL    HW2 1953   3.504   5.135  13.104
66686SOL     OW 1954   9.881   8.024   9.291
66686SOL    HW1 1955   9.906   8.058   9.377
66686SOL    HW2 1956   9.932   7.944   9.281
66687SOL     OW 1957   2.936   7.834   8.715
66687SOL    HW1 1958   2.869   7.799   8.774
66687SOL    HW2 1959   2.948   7.766   8.649
66688SOL     OW 1960   4.530   2.120   4.253
66688SOL    HW1 1961   4.620   2.138   4.280
66688SOL    HW2 1962   4.481   2.198   4.281
66689SOL     OW 1963   2.151   4.554   8.307
66689SOL    HW1 1964   2.161   4.544   8.213
66689SOL    HW2 1965   2.107   4.639   8.318
66690SOL     OW 1966   2.863   9.619  12.084
66690SOL    HW1 1967   2.830   9.638  11.996
66690SOL    HW2 1968   2.873   9.704  12.126
66691SOL     OW 1969  14.821   5.904   4.156
66691SOL    HW1 1970  14.812   5.917   4.061
66691SOL    HW2 1971   0.023   5.964   4.181
66692SOL     OW 1972  13.091  12.695  10.668
66692SOL    HW1 1973  13.074  12.681  10.761
66692SOL    HW2 1974  13.036  12.770  10.645
66693SOL     OW 1975   9.391   5.929   3.225
66693SOL    HW1 1976   9.368   5.966   3.310
66693SOL    HW2 1977   9.430   6.003   3.177
66694SOL     OW 1978   1.176  14.613  13.810
66694SOL    HW1 1979   1.181  14.530  13.858
66694SOL    HW2 1980   1.117  14.595  13.736
66695SOL     OW 1981  13.071   0.208  13.645
66695SOL    HW1 1982  12.989   0.242  13.681
66695SOL    HW2 1983  13.127   0.194  13.722
66696SOL     OW 1984  14.027   5.409  14.076
66696SOL    HW1 1985  14.092   5.474  14.052
66696SOL    HW2 1986  14.049   5.332  14.023
66697SOL     OW 1987   7.250  10.841   4.205
66697SOL    HW1 1988   7.179  10.893   4.168
66697SOL    HW2 1989   7.247  10.759   4.156
66698SOL     OW 1990   9.253  10.713  11.694
66698SOL    HW1 1991   9.235  10.804  11.716
66698SOL    HW2 1992   9.263  10.712  11.599
66699SOL     OW 1993   6.169  13.359   0.691
66699SOL    HW1 1994   6.108  13.315   0.751
66699SOL    HW2 1995   6.255  13.341   0.727
66700SOL     OW 1996   8.620   9.668   9.725
66700SOL    HW1 1997   8.541   9.714   9.754
66700SOL    HW2 1998   8.690   9.706   9.778
66701SOL     OW 1999  10.957  10.953  13.506
66701SOL    HW1 2000  10.941  10.927  13.415
66701SOL    HW2 2001  11.026  10.893  13.535
66702SOL     OW 2002   3.330   3.870  12.023
66702SOL    HW1 2003   3.322   3.962  12.047
66702SOL    HW2 2004   3.418   3.845  12.052
66703SOL     OW 2005  14.309   4.924   3.412
66703SOL    HW1 2006  14.300   5.011   3.450
66703SOL    HW2 2007  14.363   4.937   3.334
66704SOL     OW 2008   6.878   3.202   9.400
66704SOL    HW1 2009   6.942   3.252   9.450
66704SOL    HW2 2010   6.860   3.125   9.454
66705SOL     OW 2011   8.906  12.160   4.632
66705SOL    HW1 2012   8.925  12.226   4.566
66705SOL    HW2 2013   8.973  12.172   4.699
66706SOL     OW 2014   6.862  14.370  11.321
66706SOL    HW1 2015   6.790  14.335  11.373
66706SOL    HW2 2016   6.934  14.379  11.383
66707SOL     OW 2017   2.018   9.682   9.384
66707SOL    HW1 2018   2.031   9.588   9.396
66707SOL    HW2 2019   1.983   9.691   9.296
66708SOL     OW 2020   2.862   1.915  10.809
66708SOL    HW1 2021   2.842   1.972  10.734
66708SOL    HW2 2022   2.838   1.827  10.779
66709SOL     OW 2023   7.135   6.274   7.773
66709SOL    HW1 2024   7.078   6.346   7.745
66709SOL    HW2 2025   7.147   6.220   7.695
66710SOL     OW 2026   5.534  10.145  11.709
66710SOL    HW1 2027   5.473  10.072  11.699
66710SOL    HW2 2028   5.489  10.219  11.669
66711SOL     OW 2029  11.574  13.919   6.814
66711SOL    HW1 2030  11.632  13.985   6.853
66711SOL    HW2 2031  11.573  13.940   6.721
66712SOL     OW 2032   4.891  12.682   4.745
66712SOL    HW1 2033   4.947  12.678   4.821
66712SOL    HW2 2034   4.917  12.607   4.691
66713SOL     OW 2035  14.218   0.931   2.657
66713SOL    HW1 2036  14.138   0.983   2.642
66713SOL    HW2 2037  14.272   0.946   2.580
66714SOL     OW 2038  10.652  14.784   8.950
66714SOL    HW1 2039  10.643  14.866   8.997
66714SOL    HW2 2040  10.693  14.725   9.013
66715SOL     OW 2041   0.833   2.144   9.212
66715SOL    HW1 2042   0.792   2.210   9.156
66715SOL    HW2 2043   0.912   2.186   9.245
66716SOL     OW 2044   9.232  12.088   1.168
66716SOL    HW1 2045   9.272  12.155   1.222
66716SOL    HW2 2046   9.160  12.054   1.221
66717SOL     OW 2047  14.434   1.311  14.104
66717SOL    HW1 2048  14.511   1.312  14.048
66717SOL    HW2 2049  14.363   1.342  14.048
66718SOL     OW 2050   3.358   3.501   0.223
66718SOL    HW1 2051   3.396   3.510   0.310
66718SOL    HW2 2052   3.395   3.420   0.189
66719SOL     OW 2053   3.565   3.221  13.035
66719SOL    HW1 2054   3.478   3.196  13.064
66719SOL    HW2 2055   3.615   3.233  13.116
66720SOL     OW 2056   4.046  13.034  12.551
66720SOL    HW1 2057   3.954  13.056  12.539
66720SOL    HW2 2058   4.089  13.118  12.570
66721SOL     OW 2059  13.423   2.805   1.120
66721SOL    HW1 2060  13.430   2.728   1.177
66721SOL    HW2 2061  13.348   2.786   1.064
66722SOL     OW 2062  14.209   6.621   0.245
66722SOL    HW1 2063  14.154   6.699   0.240
66722SOL    HW2 2064  14.295   6.651   0.215
66723SOL     OW 2065   7.546   6.921   2.389
66723SOL    HW1 2066   7.593   6.951   2.311
66723SOL    HW2 2067   7.520   6.831   2.367
66724SOL     OW 2068   4.596   0.289   4.756
66724SOL    HW1 2069   4.640   0.315   4.675
66724SOL    HW2 2070   4.668   0.265   4.815
66725SOL     OW 2071   3.884   8.904   5.789
66725SOL    HW1 2072   3.789   8.917   5.799
66725SOL    HW2 2073   3.892   8.829   5.730
66726SOL     OW 2074  12.217  11.650  10.913
66726SOL    HW1 2075  12.142  11.643  10.855
66726SOL    HW2 2076  12.194  11.596  10.989
66727SOL     OW 2077   7.888   7.643  10.472
66727SOL    HW1 2078   7.874   7.607  10.559
66727SOL    HW2 2079   7.809   7.619  10.423
66728SOL     OW 2080  10.344  12.318   8.414
66728SOL    HW1 2081  10.388  12.377   8.353
66728SOL    HW2 2082  10.276  12.372   8.455
66729SOL     OW 2083  11.778   2.387   5.926
66729SOL    HW1 2084  11.720   2.425   5.992
66729SOL    HW2 2085  11.791   2.297   5.955
66730SOL     OW 2086   5.513   9.475   8.557
66730SOL    HW1 2087   5.528   9.535   8.631
66730SOL    HW2 2088   5.511   9.532   8.480
66731SOL     OW 2089   0.188  12.318   2.945
66731SOL    HW1 2090   0.256  12.336   3.010
66731SOL    HW2 2091   0.112  12.293   2.997
66732SOL     OW 2092  12.132   8.235   1.625
66732SOL    HW1 2093  12.154   8.220   1.717
66732SOL    HW2 2094  12.185   8.311   1.599
66733SOL     OW 2095  10.802   1.148   9.358
66733SOL    HW1 2096  10.806   1.155   9.453
66733SOL    HW2 2097  10.727   1.092   9.340
66734SOL     OW 2098   0.522   4.233  12.509
66734SOL    HW1 2099   0.531   4.302  12.443
66734SOL    HW2 2100   0.592   4.171  12.489
66735SOL     OW 2101   8.090   0.461   9.617
66735SOL    HW1 2102   8.025   0.402   9.577
66735SOL    HW2 2103   8.137   0.407   9.680
66736SOL     OW 2104   0.626   5.327   9.709
66736SOL    HW1 2105   0.644   5.418   9.684
66736SOL    HW2 2106   0.531   5.325   9.723
66737SOL     OW 2107  11.154  14.701   7.550
66737SOL    HW1 2108  11.074  14.735   7.591
66737SOL    HW2 2109  11.126  14.671   7.464
66738SOL     OW 2110   2.169   2.521   9.693
66738SOL    HW1 2111   2.251   2.488   9.655
66738SOL    HW2 2112   2.116   2.545   9.617
66739SOL     OW 2113   3.299  13.525   4.459
66739SOL    HW1 2114   3.241  13.490   4.527
66739SOL    HW2 2115   3.386  13.523   4.500
66740SOL     OW 2116   1.449  12.126   0.616
66740SOL    HW1 2117   1.469  12.161   0.529
66740SOL    HW2 2118   1.467  12.199   0.676
66741SOL     OW 2119   9.941  10.132   4.105
66741SOL    HW1 2120   9.999  10.121   4.030
66741SOL    HW2 2121   9.877  10.197   4.076
66742SOL     OW 2122   3.395   3.794  13.889
66742SOL    HW1 2123   3.372   3.845  13.966
66742SOL    HW2 2124   3.485   3.764  13.906
66743SOL     OW 2125   2.902   2.065  11.264
66743SOL    HW1 2126   2.911   2.135  11.200
66743SOL    HW2 2127   2.808   2.045  11.265
66744SOL     OW 2128   4.986   7.748   2.555
66744SOL    HW1 2129   4.999   7.750   2.650
66744SOL    HW2 2130   5.044   7.679   2.524
66745SOL     OW 2131   0.595   3.798   5.798
66745SOL    HW1 2132   0.507   3.764   5.814
66745SOL    HW2 2133   0.602   3.803   5.703
66746SOL     OW 2134   3.283   0.216  11.209
66746SOL    HW1 2135   3.357   0.222  11.149
66746SOL    HW2 2136   3.236   0.137  11.181
66747SOL     OW 2137   9.832   9.372   1.372
66747SOL    HW1 2138   9.833   9.277   1.376
66747SOL    HW2 2139   9.915   9.396   1.331
66748SOL     OW 2140   9.840  11.274   7.814
66748SOL    HW1 2141   9.791  11.355   7.832
66748SOL    HW2 2142   9.780  11.221   7.761
66749SOL     OW 2143   4.190   8.086   6.092
66749SOL    HW1 2144   4.246   8.102   6.016
66749SOL    HW2 2145   4.110   8.135   6.074
66750SOL     OW 2146   4.971  13.963   2.373
66750SOL    HW1 2147   4.900  14.027   2.371
66750SOL    HW2 2148   5.006  13.967   2.462
66751SOL     OW 2149   1.026  13.847  12.176
66751SOL    HW1 2150   1.110  13.867  12.134
66751SOL    HW2 2151   0.986  13.781  12.120
66752SOL     OW 2152   0.227  12.047   0.953
66752SOL    HW1 2153   0.212  12.131   0.996
66752SOL    HW2 2154   0.312  12.017   0.988
66753SOL     OW 2155  14.257   9.811   8.708
66753SOL    HW1 2156  14.173   9.821   8.664
66753SOL    HW2 2157  14.248   9.860   8.789
66754SOL     OW 2158   1.911   0.902   1.662
66754SOL    HW1 2159   1.882   0.849   1.587
66754SOL    HW2 2160   1.838   0.895   1.724
66755SOL     OW 2161   7.542   2.761  14.820
66755SOL    HW1 2162   7.498   2.678  14.836
66755SOL    HW2 2163   7.621   2.739  14.770
66756SOL     OW 2164   2.151  10.681   2.472
66756SOL    HW1 2165   2.091  10.750   2.444
66756SOL    HW2 2166   2.184  10.644   2.390
66757SOL     OW 2167   5.599   3.115   4.334
66757SOL    HW1 2168   5.650   3.190   4.303
66757SOL    HW2 2169   5.624   3.106   4.426
66758SOL     OW 2170   2.572   7.471   9.233
66758SOL    HW1 2171   2.529   7.551   9.263
66758SOL    HW2 2172   2.665   7.488   9.244
66759SOL     OW 2173   8.147   4.630  14.220
66759SOL    HW1 2174   8.144   4.591  14.307
66759SOL    HW2 2175   8.231   4.604  14.184
66760SOL     OW 2176  13.421  13.445   8.906
66760SOL    HW1 2177  13.399  13.463   8.997
66760SOL    HW2 2178  13.464  13.359   8.908
66761SOL     OW 2179   2.382  11.799   0.525
66761SOL    HW1 2180   2.413  11.867   0.466
66761SOL    HW2 2181   2.367  11.844   0.608
66762SOL     OW 2182   8.295   6.805  11.468
66762SOL    HW1 2183   8.214   6.853  11.449
66762SOL    HW2 2184   8.365   6.868  11.451
66763SOL     OW 2185  12.578   3.765   5.924
66763SOL    HW1 2186  12.571   3.777   6.019
66763SOL    HW2 2187  12.494   3.727   5.899
66764SOL     OW 2188   1.745   0.607   6.444
66764SOL    HW1 2189   1.754   0.682   6.385
66764SOL    HW2 2190   1.719   0.646   6.528
66765SOL     OW 2191   2.709   5.764   2.536
66765SOL    HW1 2192   2.738   5.694   2.477
66765SOL    HW2 2193   2.773   5.763   2.608
66766SOL     OW 2194  10.750  13.762   9.849
66766SOL    HW1 2195  10.803  13.840   9.834
66766SOL    HW2 2196  10.801  13.690   9.813
66767SOL     OW 2197  12.296  12.283  12.424
66767SOL    HW1 2198  12.221  12.246  12.471
66767SOL    HW2 2199  12.367  12.221  12.439
66768SOL     OW 2200   3.065   1.504  13.113
66768SOL    HW1 2201   3.076   1.418  13.153
66768SOL    HW2 2202   3.155   1.533  13.097
66769SOL     OW 2203   7.202  11.746   8.416
66769SOL    HW1 2204   7.118  11.712   8.383
66769SOL    HW2 2205   7.250  11.773   8.338
66770SOL     OW 2206  14.067   1.806   2.505
66770SOL    HW1 2207  14.158   1.778   2.498
66770SOL    HW2 2208  14.020   1.753   2.441
66771SOL     OW 2209  11.487   7.043   5.539
66771SOL    HW1 2210  11.545   7.078   5.606
66771SOL    HW2 2211  11.401   7.038   5.582
66772SOL     OW 2212  10.752  11.145   4.713
66772SOL    HW1 2213  10.843  11.161   4.691
66772SOL    HW2 2214  10.714  11.110   4.632
66773SOL     OW 2215   8.929   5.187   5.713
66773SOL    HW1 2216   9.006   5.137   5.688
66773SOL    HW2 2217   8.908   5.158   5.801
66774SOL     OW 2218  11.615   8.933   3.305
66774SOL    HW1 2219  11.641   8.901   3.219
66774SOL    HW2 2220  11.642   8.864   3.365
66775SOL     OW 2221   8.645   4.030   3.349
66775SOL    HW1 2222   8.711   3.963   3.367
66775SOL    HW2 2223   8.662   4.058   3.260
66776SOL     OW 2224  10.227   8.196   5.477
66776SOL    HW1 2225  10.184   8.244   5.548
66776SOL    HW2 2226  10.237   8.107   5.511
66777SOL     OW 2227   3.586   5.340   0.481
66777SOL    HW1 2228   3.508   5.360   0.428
66777SOL    HW2 2229   3.621   5.426   0.505
66778SOL     OW 2230   7.730   6.464  14.451
66778SOL    HW1 2231   7.754   6.439  14.362
66778SOL    HW2 2232   7.642   6.501  14.442
66779SOL     OW 2233   2.904   4.213   1.829
66779SOL    HW1 2234   2.897   4.117   1.827
66779SOL    HW2 2235   2.826   4.242   1.877
66780SOL     OW 2236   2.434   2.347   3.752
66780SOL    HW1 2237   2.392   2.407   3.815
66780SOL    HW2 2238   2.498   2.401   3.707
66781SOL     OW 2239  14.826   0.193   8.196
66781SOL    HW1 2240  14.818   0.286   8.175
66781SOL    HW2 2241  14.790   0.185   8.284
66782SOL     OW 2242   4.501  13.338   5.984
66782SOL    HW1 2243   4.491  13.383   5.900
66782SOL    HW2 2244   4.454  13.393   6.046
66783SOL     OW 2245   6.239   7.906  10.856
66783SOL    HW1 2246   6.306   7.882  10.920
66783SOL    HW2 2247   6.280   7.889  10.771
66784SOL     OW 2248   4.058   2.216   4.515
66784SOL    HW1 2249   3.966   2.233   4.535
66784SOL    HW2 2250   4.083   2.146   4.575
66785SOL     OW 2251   4.254  10.335   0.266
66785SOL    HW1 2252   4.188  10.397   0.235
66785SOL    HW2 2253   4.326  10.389   0.296
66786SOL     OW 2254   6.542   1.899   8.344
66786SOL    HW1 2255   6.575   1.898   8.434
66786SOL    HW2 2256   6.621   1.911   8.291
66787SOL     OW 2257  13.785   6.656   6.398
66787SOL    HW1 2258  13.714   6.718   6.416
66787SOL    HW2 2259  13.864   6.709   6.399
66788SOL     OW 2260  12.111   0.888   5.288
66788SOL    HW1 2261  12.120   0.809   5.342
66788SOL    HW2 2262  12.121   0.961   5.350
66789SOL     OW 2263   9.935  14.729  11.360
66789SOL    HW1 2264   9.921  14.664  11.291
66789SOL    HW2 2265   9.985  14.799  11.318
66790SOL     OW 2266   0.102   3.045   6.284
66790SOL    HW1 2267   0.148   3.002   6.212
66790SOL    HW2 2268   0.148   3.129   6.295
66791SOL     OW 2269   6.998   9.533  10.100
66791SOL    HW1 2270   7.036   9.496  10.179
66791SOL    HW2 2271   7.072   9.543  10.040
66792SOL     OW 2272   1.099   3.091  14.313
66792SOL    HW1 2273   1.123   3.001  14.290
66792SOL    HW2 2274   1.176   3.126  14.357
66793SOL     OW 2275  13.388  10.840   8.137
66793SOL    HW1 2276  13.433  10.758   8.117
66793SOL    HW2 2277  13.380  10.840   8.232
66794SOL     OW 2278   4.394   8.910   5.197
66794SOL    HW1 2279   4.328   8.924   5.265
66794SOL    HW2 2280   4.469   8.963   5.225
66795SOL     OW 2281   8.592   0.144   5.790
66795SOL    HW1 2282   8.586   0.220   5.849
66795SOL    HW2 2283   8.522   0.086   5.821
66796SOL     OW 2284  12.232   1.180   0.276
66796SOL    HW1 2285  12.229   1.095   0.320
66796SOL    HW2 2286  12.308   1.224   0.314
66797SOL     OW 2287   6.784   6.487   5.693
66797SOL    HW1 2288   6.723   6.424   5.654
66797SOL    HW2 2289   6.855   6.433   5.729
66798SOL     OW 2290   9.390   9.197  11.036
66798SOL    HW1 2291   9.431   9.239  10.960
66798SOL    HW2 2292   9.354   9.270  11.087
66799SOL     OW 2293  10.752   6.392   3.577
66799SOL    HW1 2294  10.840   6.367   3.603
66799SOL    HW2 2295  10.752   6.390   3.481
66800SOL     OW 2296  10.390   2.073  11.621
66800SOL    HW1 2297  10.370   1.985  11.652
66800SOL    HW2 2298  10.373   2.070  11.527
66801SOL     OW 2299  13.889   3.556   3.812
66801SOL    HW1 2300  13.847   3.624   3.865
66801SOL    HW2 2301  13.817   3.499   3.786
66802SOL     OW 2302   0.097  10.612  14.780
66802SOL    HW1 2303   0.099  10.561  14.861
66802SOL    HW2 2304   0.079  10.547  14.712
66803SOL     OW 2305   8.735   4.893  13.783
66803SOL    HW1 2306   8.751   4.829  13.714
66803SOL    HW2 2307   8.643   4.880  13.807
66804SOL     OW 2308  12.365   2.445   7.145
66804SOL    HW1 2309  12.314   2.449   7.226
66804SOL    HW2 2310  12.407   2.359   7.147
66805SOL     OW 2311   1.086   6.233  13.640
66805SOL    HW1 2312   1.062   6.249  13.549
66805SOL    HW2 2313   1.087   6.138  13.648
66806SOL     OW 2314   1.290   5.174   5.097
66806SOL    HW1 2315   1.278   5.145   5.006
66806SOL    HW2 2316   1.335   5.258   5.090
66807SOL     OW 2317  13.163   1.312   1.706
66807SOL    HW1 2318  13.107   1.304   1.783
66807SOL    HW2 2319  13.211   1.229   1.703
66808SOL     OW 2320   1.923   5.487   6.980
66808SOL    HW1 2321   1.979   5.540   6.924
66808SOL    HW2 2322   1.889   5.418   6.923
66809SOL     OW 2323   8.495   2.975   4.021
66809SOL    HW1 2324   8.563   3.042   4.010
66809SOL    HW2 2325   8.450   2.972   3.937
66810SOL     OW 2326  14.519   3.466  10.594
66810SOL    HW1 2327  14.482   3.411  10.664
66810SOL    HW2 2328  14.445   3.516  10.561
66811SOL     OW 2329   3.056  12.634   7.065
66811SOL    HW1 2330   3.098  12.646   6.980
66811SOL    HW2 2331   2.963  12.619   7.045
66812SOL     OW 2332  11.464   7.324  10.849
66812SOL    HW1 2333  11.375   7.358  10.856
66812SOL    HW2 2334  11.493   7.314  10.940
66813SOL     OW 2335  12.601   9.481   7.499
66813SOL    HW1 2336  12.550   9.503   7.577
66813SOL    HW2 2337  12.539   9.434   7.443
66814SOL     OW 2338   1.550   4.672  12.140
66814SOL    HW1 2339   1.637   4.689  12.103
66814SOL    HW2 2340   1.553   4.581  12.170
66815SOL     OW 2341  10.353   1.805  11.188
66815SOL    HW1 2342  10.395   1.726  11.156
66815SOL    HW2 2343  10.404   1.877  11.150
66816SOL     OW 2344   5.042   1.992  14.203
66816SOL    HW1 2345   5.084   2.072  14.172
66816SOL    HW2 2346   5.066   1.986  14.295
66817SOL     OW 2347  12.256   4.982   1.676
66817SOL    HW1 2348  12.270   4.888   1.693
66817SOL    HW2 2349  12.325   5.005   1.614
66818SOL     OW 2350  11.068   7.255  12.345
66818SOL    HW1 2351  11.060   7.190  12.415
66818SOL    HW2 2352  11.102   7.333  12.389
66819SOL     OW 2353  13.416   1.375  12.142
66819SOL    HW1 2354  13.420   1.280  12.136
66819SOL    HW2 2355  13.506   1.402  12.161
66820SOL     OW 2356   7.236   4.536   0.117
66820SOL    HW1 2357   7.267   4.549   0.207
66820SOL    HW2 2358   7.200   4.621   0.092
66821SOL     OW 2359   7.122  11.196   3.870
66821SOL    HW1 2360   7.081  11.249   3.802
66821SOL    HW2 2361   7.170  11.128   3.822
66822SOL     OW 2362   1.596   8.090   0.711
66822SOL    HW1 2363   1.540   8.028   0.664
66822SOL    HW2 2364   1.557   8.097   0.798
66823SOL     OW 2365   1.900   6.307  13.323
66823SOL    HW1 2366   1.878   6.214  13.314
66823SOL    HW2 2367   1.815   6.352  13.317
66824SOL     OW 2368   8.873   2.075   3.181
66824SOL    HW1 2369   8.841   2.104   3.266
66824SOL    HW2 2370   8.965   2.055   3.195
66825SOL     OW 2371  12.462   4.180   0.943
66825SOL    HW1 2372  12.478   4.095   0.985
66825SOL    HW2 2373  12.367   4.184   0.931
66826SOL     OW 2374   0.558  14.045   4.332
66826SOL    HW1 2375   0.594  14.010   4.414
66826SOL    HW2 2376   0.467  14.066   4.353
66827SOL     OW 2377  11.345  12.708   4.261
66827SOL    HW1 2378  11.265  12.668   4.297
66827SOL    HW2 2379  11.412  12.690   4.326
66828SOL     OW 2380  13.698   0.905  13.964
66828SOL    HW1 2381  13.680   0.995  13.990
66828SOL    HW2 2382  13.782   0.910  13.919
66829SOL     OW 2383   3.046   6.234   9.711
66829SOL    HW1 2384   3.079   6.144   9.706
66829SOL    HW2 2385   3.053   6.257   9.804
66830SOL     OW 2386  12.877   8.528   0.616
66830SOL    HW1 2387  12.920   8.512   0.699
66830SOL    HW2 2388  12.887   8.446   0.568
66831SOL     OW 2389  13.695   2.521  10.932
66831SOL    HW1 2390  13.696   2.561  11.018
66831SOL    HW2 2391  13.636   2.446  10.940
66832SOL     OW 2392  12.652   0.760   1.704
66832SOL    HW1 2393  12.732   0.804   1.730
66832SOL    HW2 2394  12.627   0.801   1.622
66833SOL     OW 2395  14.145   2.951  10.395
66833SOL    HW1 2396  14.093   3.000  10.330
66833SOL    HW2 2397  14.168   2.869  10.350
66834SOL     OW 2398   2.828  13.623   5.927
66834SOL    HW1 2399   2.858  13.646   6.015
66834SOL    HW2 2400   2.799  13.532   5.934
66835SOL     OW 2401  14.492  13.999   8.463
66835SOL    HW1 2402  14.412  14.008   8.412
66835SOL    HW2 2403  14.477  13.922   8.517
66836SOL     OW 2404  10.644  14.492   9.036
66836SOL    HW1 2405  10.582  14.419   9.044
66836SOL    HW2 2406  10.711  14.459   8.976
66837SOL     OW 2407   4.179  12.204   5.512
66837SOL    HW1 2408   4.127  12.123   5.507
66837SOL    HW2 2409   4.134  12.258   5.577
66838SOL     OW 2410  12.720  11.580  10.448
66838SOL    HW1 2411  12.813  11.592  10.434
66838SOL    HW2 2412  12.680  11.596  10.363
66839SOL     OW 2413   2.846  11.611   3.015
66839SOL    HW1 2414   2.785  11.558   3.065
66839SOL    HW2 2415   2.849  11.695   3.062
66840SOL     OW 2416   7.794  12.296  14.486
66840SOL    HW1 2417   7.703  12.266  14.481
66840SOL    HW2 2418   7.788  12.391  14.486
66841SOL     OW 2419  12.170   4.792   7.272
66841SOL    HW1 2420  12.129   4.735   7.336
66841SOL    HW2 2421  12.124   4.773   7.190
66842SOL     OW 2422   0.483   4.932  12.772
66842SOL    HW1 2423   0.435   5.010  12.744
66842SOL    HW2 2424   0.445   4.861  12.720
66843SOL     OW 2425  14.307  11.167   6.912
66843SOL    HW1 2426  14.337  11.192   6.824
66843SOL    HW2 2427  14.211  11.168   6.905
66844SOL     OW 2428   0.123  12.702   8.110
66844SOL    HW1 2429   0.047  12.757   8.090
66844SOL    HW2 2430   0.126  12.638   8.039
66845SOL     OW 2431   7.715  11.787   6.948
66845SOL    HW1 2432   7.676  11.701   6.931
66845SOL    HW2 2433   7.770  11.804   6.872
66846SOL     OW 2434   4.800  11.065  12.309
66846SOL    HW1 2435   4.714  11.105  12.305
66846SOL    HW2 2436   4.801  11.016  12.391
66847SOL     OW 2437   0.691   8.890   2.620
66847SOL    HW1 2438   0.646   8.961   2.666
66847SOL    HW2 2439   0.665   8.901   2.529
66848SOL     OW 2440   2.634   6.124   6.783
66848SOL    HW1 2441   2.726   6.129   6.757
66848SOL    HW2 2442   2.601   6.212   6.770
66849SOL     OW 2443   3.793   6.396   6.141
66849SOL    HW1 2444   3.811   6.327   6.077
66849SOL    HW2 2445   3.833   6.474   6.104
66850SOL     OW 2446   6.232   9.936  12.213
66850SOL    HW1 2447   6.294   9.863  12.222
66850SOL    HW2 2448   6.172   9.909  12.145
66851SOL     OW 2449   9.836   3.542  13.503
66851SOL    HW1 2450   9.797   3.624  13.533
66851SOL    HW2 2451   9.914   3.532  13.558
66852SOL     OW 2452   2.313   5.859  10.417
66852SOL    HW1 2453   2.319   5.768  10.449
66852SOL    HW2 2454   2.397   5.898  10.441
66853SOL     OW 2455   1.751   1.371   5.811
66853SOL    HW1 2456   1.819   1.311   5.780
66853SOL    HW2 2457   1.718   1.413   5.732
66854SOL     OW 2458  11.562   1.760  11.890
66854SOL    HW1 2459  11.583   1.816  11.816
66854SOL    HW2 2460  11.474   1.787  11.917
66855SOL     OW 2461  14.159  10.804  11.082
66855SOL    HW1 2462  14.163  10.728  11.139
66855SOL    HW2 2463  14.083  10.788  11.025
66856SOL     OW 2464   3.535  12.201  11.704
66856SOL    HW1 2465   3.618  12.248  11.712
66856SOL    HW2 2466   3.478  12.242  11.769
66857SOL     OW 2467   4.752   2.304   9.190
66857SOL    HW1 2468   4.706   2.243   9.248
66857SOL    HW2 2469   4.732   2.391   9.226
66858SOL     OW 2470   9.109   4.850   4.622
66858SOL    HW1 2471   9.026   4.818   4.656
66858SOL    HW2 2472   9.156   4.770   4.595
66859SOL     OW 2473   3.320   5.665  12.644
66859SOL    HW1 2474   3.378   5.691  12.715
66859SOL    HW2 2475   3.331   5.734  12.578
66860SOL     OW 2476  14.761   3.353   0.803
66860SOL    HW1 2477  14.762   3.431   0.748
66860SOL    HW2 2478  14.668   3.333   0.816
66861SOL     OW 2479   0.228   1.075  12.686
66861SOL    HW1 2480   0.134   1.089  12.674
66861SOL    HW2 2481   0.233   1.005  12.751
66862SOL     OW 2482   9.063   1.999   8.442
66862SOL    HW1 2483   9.138   1.971   8.493
66862SOL    HW2 2484   9.089   1.985   8.351
66863SOL     OW 2485  12.553  14.655   5.365
66863SOL    HW1 2486  12.492  14.586   5.338
66863SOL    HW2 2487  12.509  14.698   5.438
66864SOL     OW 2488   3.042   2.817  14.006
66864SOL    HW1 2489   3.053   2.831  13.912
66864SOL    HW2 2490   3.090   2.735  14.024
66865SOL     OW 2491   7.853  13.440  13.695
66865SOL    HW1 2492   7.761  13.465  13.708
66865SOL    HW2 2493   7.893  13.517  13.655
66866SOL     OW 2494   3.297  13.546   9.817
66866SOL    HW1 2495   3.203  13.529   9.813
66866SOL    HW2 2496   3.315  13.559   9.910
66867SOL     OW 2497   5.721   0.817   9.751
66867SOL    HW1 2498   5.652   0.760   9.785
66867SOL    HW2 2499   5.771   0.761   9.692
66868SOL     OW 2500   8.468  10.634   6.410
66868SOL    HW1 2501   8.489  10.566   6.345
66868SOL    HW2 2502   8.373  10.645   6.403
66869SOL     OW 2503  14.788   3.491  10.532
66869SOL    HW1 2504  14.833   3.485  10.616
66869SOL    HW2 2505  14.696   3.474  10.552
66870SOL     OW 2506   0.896   8.431   0.271
66870SOL    HW1 2507   0.836   8.418   0.345
66870SOL    HW2 2508   0.876   8.519   0.239
66871SOL     OW 2509   6.790  10.308  14.474
66871SOL    HW1 2510   6.765  10.351  14.556
66871SOL    HW2 2511   6.719  10.246  14.457
66872SOL     OW 2512  14.079   9.663   6.609
66872SOL    HW1 2513  14.047   9.733   6.552
66872SOL    HW2 2514  14.058   9.693   6.698
66873SOL     OW 2515   2.371  13.711   8.084
66873SOL    HW1 2516   2.363  13.651   8.158
66873SOL    HW2 2517   2.440  13.771   8.110
66874SOL     OW 2518  13.291  14.666  11.996
66874SOL    HW1 2519  13.344  14.625  11.928
66874SOL    HW2 2520  13.264  14.593  12.052
66875SOL     OW 2521  13.858  14.571  11.961
66875SOL    HW1 2522  13.942  14.585  11.918
66875SOL    HW2 2523  13.819  14.658  11.968
66876SOL     OW 2524  12.516  10.687   4.704
66876SOL    HW1 2525  12.529  10.714   4.794
66876SOL    HW2 2526  12.605  10.682   4.667
66877SOL     OW 2527   0.936  13.874   0.263
66877SOL    HW1 2528   0.896  13.844   0.345
66877SOL    HW2 2529   0.993  13.946   0.289
66878SOL     OW 2530   2.930   8.685   8.652
66878SOL    HW1 2531   3.000   8.745   8.626
66878SOL    HW2 2532   2.852   8.718   8.608
66879SOL     OW 2533  10.036   8.039   4.136
66879SOL    HW1 2534   9.993   7.972   4.190
66879SOL    HW2 2535  10.056   8.110   4.196
66880SOL     OW 2536   6.582   3.431   5.356
66880SOL    HW1 2537   6.514   3.481   5.311
66880SOL    HW2 2538   6.534   3.381   5.423
66881SOL     OW 2539   0.806   1.652   4.842
66881SOL    HW1 2540   0.722   1.609   4.859
66881SOL    HW2 2541   0.811   1.722   4.907
66882SOL     OW 2542   5.090  12.368  12.597
66882SOL    HW1 2543   5.053  12.290  12.554
66882SOL    HW2 2544   5.020  12.398  12.655
66883SOL     OW 2545   8.075  13.612   3.178
66883SOL    HW1 2546   8.132  13.552   3.226
66883SOL    HW2 2547   8.135  13.658   3.118
66884SOL     OW 2548   9.665  13.519  10.592
66884SOL    HW1 2549   9.677  13.433  10.633
66884SOL    HW2 2550   9.681  13.582  10.663
66885SOL     OW 2551  10.053  13.747   3.585
66885SOL    HW1 2552  10.072  13.659   3.616
66885SOL    HW2 2553  10.039  13.798   3.665
66886SOL     OW 2554   4.620  12.344   5.315
66886SOL    HW1 2555   4.687  12.348   5.383
66886SOL    HW2 2556   4.647  12.272   5.258
66887SOL     OW 2557  10.719  13.475  11.744
66887SOL    HW1 2558  10.658  13.415  11.787
66887SOL    HW2 2559  10.663  13.547  11.714
66888SOL     OW 2560   5.925  11.892   0.854
66888SOL    HW1 2561   5.829  11.896   0.858
66888SOL    HW2 2562   5.944  11.818   0.797
66889SOL     OW 2563   1.011   8.702  14.255
66889SOL    HW1 2564   0.938   8.738  14.306
66889SOL    HW2 2565   0.974   8.626  14.211
66890SOL     OW 2566  12.938   5.082  10.521
66890SOL    HW1 2567  12.896   5.010  10.569
66890SOL    HW2 2568  12.872   5.109  10.456
66891SOL     OW 2569   4.396  13.665  11.673
66891SOL    HW1 2570   4.321  13.607  11.667
66891SOL    HW2 2571   4.457  13.633  11.607
66892SOL     OW 2572   0.960   3.690  11.436
66892SOL    HW1 2573   0.872   3.666  11.463
66892SOL    HW2 2574   0.998   3.734  11.512
66893SOL     OW 2575  12.045   3.832   2.837
66893SOL    HW1 2576  12.136   3.803   2.846
66893SOL    HW2 2577  12.052   3.925   2.814
66894SOL     OW 2578   7.383   0.102   4.839
66894SOL    HW1 2579   7.293   0.100   4.871
66894SOL    HW2 2580   7.408   0.010   4.832
66895SOL     OW 2581   0.743  13.970   7.292
66895SOL    HW1 2582   0.687  14.015   7.228
66895SOL    HW2 2583   0.770  13.890   7.248
66896SOL     OW 2584   7.221   9.630   0.656
66896SOL    HW1 2585   7.194   9.597   0.741
66896SOL    HW2 2586   7.215   9.554   0.598
66897SOL     OW 2587   8.690   5.674  10.761
66897SOL    HW1 2588   8.630   5.743  10.734
66897SOL    HW2 2589   8.646   5.593  10.735
66898SOL     OW 2590   9.960   1.246   1.450
66898SOL    HW1 2591   9.964   1.168   1.506
66898SOL    HW2 2592   9.866   1.262   1.438
66899SOL     OW 2593  13.403  11.418   5.937
66899SOL    HW1 2594  13.437  11.484   5.997
66899SOL    HW2 2595  13.311  11.441   5.926
66900SOL     OW 2596   8.050   0.104   2.848
66900SOL    HW1 2597   8.092   0.179   2.806
66900SOL    HW2 2598   7.956   0.120   2.839
66901SOL     OW 2599  14.651   8.884  12.693
66901SOL    HW1 2600  14.702   8.965  12.691
66901SOL    HW2 2601  14.561   8.912  12.676
66902SOL     OW 2602  13.400  13.666   3.433
66902SOL    HW1 2603  13.378  13.633   3.347
66902SOL    HW2 2604  13.381  13.760   3.429
66903SOL     OW 2605   2.049  10.053   3.581
66903SOL    HW1 2606   2.036   9.960   3.602
66903SOL    HW2 2607   1.982  10.099   3.631
66904SOL     OW 2608  11.822   8.399   7.915
66904SOL    HW1 2609  11.909   8.375   7.946
66904SOL    HW2 2610  11.789   8.460   7.981
66905SOL     OW 2611   4.796  13.361   4.242
66905SOL    HW1 2612   4.818  13.297   4.309
66905SOL    HW2 2613   4.798  13.311   4.160
66906SOL     OW 2614   0.638   7.246  10.999
66906SOL    HW1 2615   0.682   7.163  10.988
66906SOL    HW2 2616   0.707   7.308  11.021
66907SOL     OW 2617   2.256  14.484  14.755
66907SOL    HW1 2618   2.218  14.493  14.668
66907SOL    HW2 2619   2.265  14.390  14.768
66908SOL     OW 2620   2.441   9.749   5.599
66908SOL    HW1 2621   2.496   9.673   5.583
66908SOL    HW2 2622   2.422   9.784   5.512
66909SOL     OW 2623   3.810   6.370   5.704
66909SOL    HW1 2624   3.860   6.352   5.624
66909SOL    HW2 2625   3.719   6.377   5.674
66910SOL     OW 2626   0.884   6.344   0.428
66910SOL    HW1 2627   0.920   6.429   0.457
66910SOL    HW2 2628   0.961   6.293   0.403
66911SOL     OW 2629   7.478   7.607   0.480
66911SOL    HW1 2630   7.531   7.652   0.413
66911SOL    HW2 2631   7.406   7.668   0.498
66912SOL     OW 2632  11.100   8.167   4.015
66912SOL    HW1 2633  11.124   8.116   4.092
66912SOL    HW2 2634  11.008   8.145   3.999
66913SOL     OW 2635   9.539   7.273   8.983
66913SOL    HW1 2636   9.579   7.347   9.028
66913SOL    HW2 2637   9.613   7.218   8.956
66914SOL     OW 2638  11.937  14.310   7.598
66914SOL    HW1 2639  11.899  14.224   7.614
66914SOL    HW2 2640  11.961  14.309   7.505
66915SOL     OW 2641   9.706   1.104   1.775
66915SOL    HW1 2642   9.672   1.043   1.709
66915SOL    HW2 2643   9.801   1.105   1.761
66916SOL     OW 2644   6.933  11.903   2.430
66916SOL    HW1 2645   6.884  11.982   2.451
66916SOL    HW2 2646   6.935  11.901   2.334
66917SOL     OW 2647   6.086   9.565   2.148
66917SOL    HW1 2648   6.022   9.630   2.180
66917SOL    HW2 2649   6.165   9.583   2.199
66918SOL     OW 2650  13.896   6.792   7.073
66918SOL    HW1 2651  13.891   6.879   7.033
66918SOL    HW2 2652  13.981   6.758   7.046
66919SOL     OW 2653   8.431   2.240   0.122
66919SOL    HW1 2654   8.342   2.225   0.157
66919SOL    HW2 2655   8.445   2.168   0.062
66920SOL     OW 2656  14.303   5.278   2.294
66920SOL    HW1 2657  14.270   5.332   2.365
66920SOL    HW2 2658  14.254   5.307   2.217
66921SOL     OW 2659  10.167   9.970   4.081
66921SOL    HW1 2660  10.134  10.048   4.125
66921SOL    HW2 2661  10.224  10.003   4.011
66922SOL     OW 2662   4.034  11.924   8.033
66922SOL    HW1 2663   3.948  11.886   8.053
66922SOL    HW2 2664   4.016  12.015   8.012
66923SOL     OW 2665   3.902  12.302   8.315
66923SOL    HW1 2666   3.907  12.390   8.351
66923SOL    HW2 2667   3.890  12.245   8.391
66924SOL     OW 2668   8.370   9.477  12.321
66924SOL    HW1 2669   8.451   9.520  12.294
66924SOL    HW2 2670   8.369   9.484  12.416
66925SOL     OW 2671   0.285   1.143   9.490
66925SOL    HW1 2672   0.345   1.069   9.495
66925SOL    HW2 2673   0.243   1.145   9.576
66926SOL     OW 2674  11.428  14.558  10.849
66926SOL    HW1 2675  11.368  14.613  10.800
66926SOL    HW2 2676  11.515  14.585  10.820
66927SOL     OW 2677  12.052  11.329  12.553
66927SOL    HW1 2678  12.038  11.237  12.574
66927SOL    HW2 2679  12.030  11.376  12.633
66928SOL     OW 2680  11.330   5.253  12.700
66928SOL    HW1 2681  11.339   5.338  12.743
66928SOL    HW2 2682  11.368   5.266  12.613
66929SOL     OW 2683   4.036   1.143  14.720
66929SOL    HW1 2684   4.129   1.126  14.704
66929SOL    HW2 2685   4.016   1.096  14.801
66930SOL     OW 2686  12.815   8.515   8.416
66930SOL    HW1 2687  12.846   8.601   8.389
66930SOL    HW2 2688  12.848   8.455   8.349
66931SOL     OW 2689   3.668  10.824   6.694
66931SOL    HW1 2690   3.649  10.773   6.615
66931SOL    HW2 2691   3.604  10.895   6.693
66932SOL     OW 2692   6.242  11.382   2.261
66932SOL    HW1 2693   6.250  11.316   2.193
66932SOL    HW2 2694   6.265  11.464   2.218
66933SOL     OW 2695  12.787   7.896   8.202
66933SOL    HW1 2696  12.851   7.836   8.240
66933SOL    HW2 2697  12.722   7.908   8.271
66934SOL     OW 2698  13.934   7.012   9.554
66934SOL    HW1 2699  13.953   6.948   9.622
66934SOL    HW2 2700  13.845   7.042   9.574
66935SOL     OW 2701   2.815   6.207   2.764
66935SOL    HW1 2702   2.906   6.187   2.781
66935SOL    HW2 2703   2.767   6.129   2.791
66936SOL     OW 2704   6.729   7.637   3.837
66936SOL    HW1 2705   6.780   7.710   3.872
66936SOL    HW2 2706   6.651   7.677   3.800
66937SOL     OW 2707  12.958   5.763  11.739
66937SOL    HW1 2708  12.918   5.678  11.719
66937SOL    HW2 2709  12.912   5.793  11.817
66938SOL     OW 2710   8.221   4.043   0.845
66938SOL    HW1 2711   8.135   4.062   0.807
66938SOL    HW2 2712   8.236   4.115   0.905
66939SOL     OW 2713   8.116  10.524   6.113
66939SOL    HW1 2714   8.162  10.474   6.181
66939SOL    HW2 2715   8.027  10.535   6.149
66940SOL     OW 2716  11.859   2.501   3.409
66940SOL    HW1 2717  11.887   2.559   3.479
66940SOL    HW2 2718  11.901   2.417   3.430
66941SOL     OW 2719   9.741  13.022   2.675
66941SOL    HW1 2720   9.701  12.941   2.707
66941SOL    HW2 2721   9.800  12.994   2.604
66942SOL     OW 2722   7.005  14.213  13.426
66942SOL    HW1 2723   6.930  14.217  13.366
66942SOL    HW2 2724   7.057  14.139  13.394
66943SOL     OW 2725   9.478  13.957   1.874
66943SOL    HW1 2726   9.471  13.870   1.835
66943SOL    HW2 2727   9.466  14.017   1.800
66944SOL     OW 2728   1.649   5.373   6.149
66944SOL    HW1 2729   1.731   5.332   6.177
66944SOL    HW2 2730   1.612   5.410   6.229
66945SOL     OW 2731  14.629   7.125  13.876
66945SOL    HW1 2732  14.627   7.221  13.884
66945SOL    HW2 2733  14.553   7.096  13.927
66946SOL     OW 2734   5.415   6.246  10.558
66946SOL    HW1 2735   5.414   6.200  10.642
66946SOL    HW2 2736   5.495   6.216  10.515
66947SOL     OW 2737   3.374   3.213   9.241
66947SOL    HW1 2738   3.461   3.247   9.218
66947SOL    HW2 2739   3.364   3.232   9.334
66948SOL     OW 2740   4.252   0.867   3.272
66948SOL    HW1 2741   4.260   0.946   3.327
66948SOL    HW2 2742   4.330   0.869   3.217
66949SOL     OW 2743   9.108  12.258   0.288
66949SOL    HW1 2744   9.112  12.174   0.335
66949SOL    HW2 2745   9.044  12.309   0.337
66950SOL     OW 2746   6.601   8.089   1.558
66950SOL    HW1 2747   6.578   7.996   1.550
66950SOL    HW2 2748   6.601   8.121   1.468
66951SOL     OW 2749   7.313   8.701   0.958
66951SOL    HW1 2750   7.371   8.775   0.939
66951SOL    HW2 2751   7.266   8.727   1.038
66952SOL     OW 2752   0.923   4.827   4.532
66952SOL    HW1 2753   0.983   4.822   4.606
66952SOL    HW2 2754   0.958   4.895   4.475
66953SOL     OW 2755   0.200   8.889  13.932
66953SOL    HW1 2756   0.286   8.856  13.906
66953SOL    HW2 2757   0.151   8.811  13.957
66954SOL     OW 2758   9.092   4.382   8.738
66954SOL    HW1 2759   9.130   4.306   8.695
66954SOL    HW2 2760   9.010   4.350   8.776
66955SOL     OW 2761   4.737  14.597  12.428
66955SOL    HW1 2762   4.675  14.661  12.463
66955SOL    HW2 2763   4.782  14.563  12.505
66956SOL     OW 2764   7.223   9.818  12.061
66956SOL    HW1 2765   7.240   9.909  12.088
66956SOL    HW2 2766   7.308   9.774  12.072
66957SOL     OW 2767   4.950  10.821  13.210
66957SOL    HW1 2768   5.042  10.839  13.193
66957SOL    HW2 2769   4.905  10.902  13.188
66958SOL     OW 2770  13.707   6.155   8.392
66958SOL    HW1 2771  13.697   6.175   8.485
66958SOL    HW2 2772  13.628   6.106   8.370
66959SOL     OW 2773  12.704  14.158  12.000
66959SOL    HW1 2774  12.616  14.122  12.016
66959SOL    HW2 2775  12.764  14.092  12.033
66960SOL     OW 2776  10.839   6.480   1.937
66960SOL    HW1 2777  10.886   6.552   1.978
66960SOL    HW2 2778  10.791   6.520   1.864
66961SOL     OW 2779   0.552   2.441   1.978
66961SOL    HW1 2780   0.496   2.481   1.912
66961SOL    HW2 2781   0.592   2.515   2.024
66962SOL     OW 2782  11.803  10.965   9.608
66962SOL    HW1 2783  11.880  10.910   9.596
66962SOL    HW2 2784  11.745  10.943   9.535
66963SOL     OW 2785   1.095   5.043  10.847
66963SOL    HW1 2786   1.075   4.997  10.929
66963SOL    HW2 2787   1.191   5.040  10.842
66964SOL     OW 2788  14.413   8.879   1.812
66964SOL    HW1 2789  14.358   8.837   1.878
66964SOL    HW2 2790  14.439   8.962   1.850
66965SOL     OW 2791   2.563   5.974  13.633
66965SOL    HW1 2792   2.592   6.015  13.551
66965SOL    HW2 2793   2.483   5.928  13.609
66966SOL     OW 2794  14.740  12.675   1.543
66966SOL    HW1 2795  14.796  12.600   1.525
66966SOL    HW2 2796  14.653  12.647   1.517
66967SOL     OW 2797   6.582   0.946   4.704
66967SOL    HW1 2798   6.576   0.851   4.694
66967SOL    HW2 2799   6.540   0.965   4.787
66968SOL     OW 2800   3.171   2.071  11.941
66968SOL    HW1 2801   3.229   2.092  12.014
66968SOL    HW2 2802   3.208   2.118  11.866
66969SOL     OW 2803   2.886   1.226   8.538
66969SOL    HW1 2804   2.842   1.171   8.603
66969SOL    HW2 2805   2.964   1.176   8.514
66970SOL     OW 2806  14.643   6.046  13.261
66970SOL    HW1 2807  14.687   6.038  13.177
66970SOL    HW2 2808  14.552   6.020  13.243
66971SOL     OW 2809   2.179   4.649   6.769
66971SOL    HW1 2810   2.189   4.661   6.863
66971SOL    HW2 2811   2.104   4.704   6.746
66972SOL     OW 2812   1.553   7.932   4.246
66972SOL    HW1 2813   1.534   7.930   4.152
66972SOL    HW2 2814   1.494   7.999   4.281
66973SOL     OW 2815   6.283  12.469   9.317
66973SOL    HW1 2816   6.326  12.409   9.378
66973SOL    HW2 2817   6.189  12.459   9.337
66974SOL     OW 2818  13.574   6.664  14.570
66974SOL    HW1 2819  13.628   6.612  14.630
66974SOL    HW2 2820  13.634   6.696  14.504
66975SOL     OW 2821   3.446   9.009   4.051
66975SOL    HW1 2822   3.529   9.022   4.006
66975SOL    HW2 2823   3.469   9.003   4.144
66976SOL     OW 2824  13.653  11.490   4.853
66976SOL    HW1 2825  13.620  11.579   4.839
66976SOL    HW2 2826  13.585  11.433   4.818
66977SOL     OW 2827  10.512  13.936   2.390
66977SOL    HW1 2828  10.464  13.951   2.308
66977SOL    HW2 2829  10.493  14.013   2.443
66978SOL     OW 2830   9.953   6.877  11.452
66978SOL    HW1 2831  10.010   6.808  11.420
66978SOL    HW2 2832   9.956   6.868  11.548
66979SOL     OW 2833   1.770  11.302   6.532
66979SOL    HW1 2834   1.730  11.257   6.607
66979SOL    HW2 2835   1.753  11.395   6.547
66980SOL     OW 2836   9.765  11.787   3.184
66980SOL    HW1 2837   9.854  11.818   3.168
66980SOL    HW2 2838   9.717  11.863   3.216
66981SOL     OW 2839   1.189   0.896   8.544
66981SOL    HW1 2840   1.205   0.847   8.625
66981SOL    HW2 2841   1.228   0.982   8.560
66982SOL     OW 2842  13.803   6.756  12.473
66982SOL    HW1 2843  13.871   6.746  12.407
66982SOL    HW2 2844  13.841   6.815  12.538
66983SOL     OW 2845   1.307   3.157  10.758
66983SOL    HW1 2846   1.276   3.228  10.702
66983SOL    HW2 2847   1.247   3.084  10.740
66984SOL     OW 2848   0.819  13.606  12.480
66984SOL    HW1 2849   0.732  13.596  12.441
66984SOL    HW2 2850   0.803  13.633  12.570
66985SOL     OW 2851   2.850  11.867   3.736
66985SOL    HW1 2852   2.819  11.783   3.703
66985SOL    HW2 2853   2.770  11.921   3.743
66986SOL     OW 2854   5.517   9.083   7.841
66986SOL    HW1 2855   5.589   9.024   7.864
66986SOL    HW2 2856   5.468   9.037   7.774
66987SOL     OW 2857  12.613   3.686   7.794
66987SOL    HW1 2858  12.628   3.727   7.879
66987SOL    HW2 2859  12.585   3.597   7.814
66988SOL     OW 2860   5.468  10.530   7.945
66988SOL    HW1 2861   5.549  10.494   7.910
66988SOL    HW2 2862   5.414  10.453   7.963
66989SOL     OW 2863   7.141   2.996  10.606
66989SOL    HW1 2864   7.119   2.940  10.680
66989SOL    HW2 2865   7.219   3.043  10.635
66990SOL     OW 2866   5.979  13.620   6.568
66990SOL    HW1 2867   6.005  13.652   6.654
66990SOL    HW2 2868   5.898  13.667   6.548
66991SOL     OW 2869   3.785   1.265   3.713
66991SOL    HW1 2870   3.796   1.359   3.726
66991SOL    HW2 2871   3.691   1.251   3.716
66992SOL     OW 2872   7.750  12.373   2.764
66992SOL    HW1 2873   7.734  12.373   2.670
66992SOL    HW2 2874   7.822  12.436   2.776
66993SOL     OW 2875   5.432  10.728   8.490
66993SOL    HW1 2876   5.397  10.641   8.509
66993SOL    HW2 2877   5.380  10.787   8.545
66994SOL     OW 2878  10.104   2.671  14.205
66994SOL    HW1 2879  10.117   2.728  14.281
66994SOL    HW2 2880  10.009   2.655  14.203
66995SOL     OW 2881  12.075   0.250   8.733
66995SOL    HW1 2882  12.153   0.203   8.702
66995SOL    HW2 2883  12.082   0.247   8.828
66996SOL     OW 2884   7.414  13.820   9.867
66996SOL    HW1 2885   7.472  13.753   9.830
66996SOL    HW2 2886   7.347  13.833   9.800
66997SOL     OW 2887  12.559   8.077   7.079
66997SOL    HW1 2888  12.464   8.088   7.070
66997SOL    HW2 2889  12.576   7.987   7.052
66998SOL     OW 2890   6.412   8.376  13.729
66998SOL    HW1 2891   6.364   8.447  13.771
66998SOL    HW2 2892   6.479   8.351  13.793
66999SOL     OW 2893  13.092   0.168  12.311
66999SOL    HW1 2894  13.098   0.173  12.407
66999SOL    HW2 2895  13.023   0.230  12.289
67000SOL     OW 2896   0.682  13.178   3.389
67000SOL    HW1 2897   0.759  13.220   3.425
67000SOL    HW2 2898   0.622  13.250   3.368
67001SOL     OW 2899   5.975   9.729   5.791
67001SOL    HW1 2900   5.927   9.664   5.842
67001SOL    HW2 2901   6.032   9.773   5.855
67002SOL     OW 2902   7.114   0.375   5.312
67002SOL    HW1 2903   7.149   0.431   5.381
67002SOL    HW2 2904   7.026   0.410   5.295
67003SOL     OW 2905  14.106   9.502   5.620
67003SOL    HW1 2906  14.179   9.512   5.680
67003SOL    HW2 2907  14.144   9.465   5.540
67004SOL     OW 2908   3.745   7.648  10.723
67004SOL    HW1 2909   3.748   7.705  10.646
67004SOL    HW2 2910   3.819   7.588  10.712
67005SOL     OW 2911   4.851   4.714   6.420
67005SOL    HW1 2912   4.800   4.676   6.348
67005SOL    HW2 2913   4.803   4.689   6.499
67006SOL     OW 2914   3.408   8.626  10.514
67006SOL    HW1 2915   3.416   8.717  10.484
67006SOL    HW2 2916   3.495   8.602  10.545
67007SOL     OW 2917   6.018  12.252   6.610
67007SOL    HW1 2918   6.038  12.336   6.568
67007SOL    HW2 2919   5.989  12.276   6.698
67008SOL     OW 2920  12.442   8.492   8.885
67008SOL    HW1 2921  12.360   8.493   8.934
67008SOL    HW2 2922  12.453   8.401   8.859
67009SOL     OW 2923  11.135  10.325   4.272
67009SOL    HW1 2924  11.103  10.382   4.342
67009SOL    HW2 2925  11.218  10.291   4.306
67010SOL     OW 2926  12.224   0.970   8.834
67010SOL    HW1 2927  12.175   0.889   8.845
67010SOL    HW2 2928  12.184   1.014   8.759
67011SOL     OW 2929  10.957   6.772   7.685
67011SOL    HW1 2930  11.049   6.763   7.661
67011SOL    HW2 2931  10.927   6.848   7.635
67012SOL     OW 2932   0.831   2.274   2.065
67012SOL    HW1 2933   0.834   2.356   2.115
67012SOL    HW2 2934   0.913   2.230   2.087
67013SOL     OW 2935   7.579   5.351   3.916
67013SOL    HW1 2936   7.579   5.434   3.963
67013SOL    HW2 2937   7.527   5.368   3.837
67014SOL     OW 2938  12.474   3.267   9.855
67014SOL    HW1 2939  12.509   3.281   9.943
67014SOL    HW2 2940  12.381   3.246   9.869
67015SOL     OW 2941   5.980  10.631   9.357
67015SOL    HW1 2942   5.915  10.681   9.310
67015SOL    HW2 2943   5.999  10.683   9.435
67016SOL     OW 2944   7.938  12.025  13.737
67016SOL    HW1 2945   8.025  12.065  13.729
67016SOL    HW2 2946   7.886  12.069  13.670
67017SOL     OW 2947   6.651   9.172   6.903
67017SOL    HW1 2948   6.570   9.209   6.868
67017SOL    HW2 2949   6.703   9.247   6.928
67018SOL     OW 2950   8.572   2.673   8.122
67018SOL    HW1 2951   8.543   2.589   8.086
67018SOL    HW2 2952   8.635   2.649   8.189
67019SOL     OW 2953   5.035  10.226   8.128
67019SOL    HW1 2954   4.960  10.283   8.111
67019SOL    HW2 2955   5.016  10.146   8.078
67020SOL     OW 2956   3.733   4.192   2.080
67020SOL    HW1 2957   3.777   4.154   2.156
67020SOL    HW2 2958   3.667   4.251   2.117
67021SOL     OW 2959   7.154  14.111   3.033
67021SOL    HW1 2960   7.072  14.160   3.033
67021SOL    HW2 2961   7.222  14.178   3.023
67022SOL     OW 2962   8.859   1.237  11.607
67022SOL    HW1 2963   8.896   1.161  11.561
67022SOL    HW2 2964   8.770   1.244  11.573
67023SOL     OW 2965  11.543   7.940   5.292
67023SOL    HW1 2966  11.466   7.894   5.257
67023SOL    HW2 2967  11.512   8.029   5.307
67024SOL     OW 2968   5.655   5.048  11.651
67024SOL    HW1 2969   5.706   4.981  11.606
67024SOL    HW2 2970   5.635   5.113  11.583
67025SOL     OW 2971  13.669   8.472  13.161
67025SOL    HW1 2972  13.631   8.406  13.104
67025SOL    HW2 2973  13.704   8.538  13.102
67026SOL     OW 2974   9.620   5.763   0.800
67026SOL    HW1 2975   9.554   5.829   0.779
67026SOL    HW2 2976   9.594   5.730   0.887
67027SOL     OW 2977   9.778   5.480   8.407
67027SOL    HW1 2978   9.806   5.516   8.323
67027SOL    HW2 2979   9.797   5.548   8.471
67028SOL     OW 2980   1.960   9.780   2.548
67028SOL    HW1 2981   1.865   9.770   2.547
67028SOL    HW2 2982   1.990   9.723   2.477
67029SOL     OW 2983   9.334   6.275   8.019
67029SOL    HW1 2984   9.428   6.277   8.001
67029SOL    HW2 2985   9.299   6.214   7.953
67030SOL     OW 2986   5.451  11.679  12.301
67030SOL    HW1 2987   5.525  11.621  12.281
67030SOL    HW2 2988   5.384  11.622  12.338
67031SOL     OW 2989   9.692  13.052   5.659
67031SOL    HW1 2990   9.637  13.029   5.734
67031SOL    HW2 2991   9.675  12.984   5.594
67032SOL     OW 2992  13.636   6.219   6.190
67032SOL    HW1 2993  13.616   6.187   6.102
67032SOL    HW2 2994  13.550   6.228   6.232
67033SOL     OW 2995   8.149  14.031   3.016
67033SOL    HW1 2996   8.203  14.079   3.079
67033SOL    HW2 2997   8.061  14.035   3.053
67034SOL     OW 2998  10.336   0.160   9.026
67034SOL    HW1 2999  10.348   0.076   9.071
67034SOL    HW2 3000  10.298   0.136   8.941
67035SOL     OW 3001   4.862  10.720   9.287
67035SOL    HW1 3002   4.948  10.704   9.249
67035SOL    HW2 3003   4.813  10.639   9.271
67036SOL     OW 3004   7.183   6.013   8.660
67036SOL    HW1 3005   7.224   6.099   8.674
67036SOL    HW2 3006   7.158   6.014   8.568
67037SOL     OW 3007   9.752   1.058  14.451
67037SOL    HW1 3008   9.783   1.148  14.440
67037SOL    HW2 3009   9.745   1.024  14.362
67038SOL     OW 3010   0.470  13.668   4.162
67038SOL    HW1 3011   0.404  13.700   4.224
67038SOL    HW2 3012   0.541  13.635   4.217
67039SOL     OW 3013   4.425  12.558   7.917
67039SOL    HW1 3014   4.419  12.482   7.974
67039SOL    HW2 3015   4.414  12.523   7.829
67040SOL     OW 3016   6.186  11.741   9.813
67040SOL    HW1 3017   6.268  11.750   9.861
67040SOL    HW2 3018   6.188  11.652   9.778
67041SOL     OW 3019  10.341   8.155   7.504
67041SOL    HW1 3020  10.332   8.248   7.481
67041SOL    HW2 3021  10.311   8.109   7.425
67042SOL     OW 3022   9.435   1.836   2.471
67042SOL    HW1 3023   9.521   1.877   2.471
67042SOL    HW2 3024   9.450   1.747   2.504
67043SOL     OW 3025  10.001   9.845   3.135
67043SOL    HW1 3026  10.056   9.807   3.204
67043SOL    HW2 3027  10.035   9.808   3.054
67044SOL     OW 3028   6.433   4.785  14.445
67044SOL    HW1 3029   6.505   4.775  14.382
67044SOL    HW2 3030   6.391   4.867  14.421
67045SOL     OW 3031   1.791   0.046   3.400
67045SOL    HW1 3032   1.785  14.851   3.328
67045SOL    HW2 3033   1.760   0.129   3.363
67046SOL     OW 3034   3.135  12.846   1.980
67046SOL    HW1 3035   3.080  12.770   1.962
67046SOL    HW2 3036   3.179  12.864   1.897
67047SOL     OW 3037  13.142   1.709   8.242
67047SOL    HW1 3038  13.178   1.621   8.231
67047SOL    HW2 3039  13.076   1.701   8.310
67048SOL     OW 3040   7.927  12.187  10.825
67048SOL    HW1 3041   7.930  12.221  10.735
67048SOL    HW2 3042   7.995  12.121  10.828
67049SOL     OW 3043  12.587   6.104  12.478
67049SOL    HW1 3044  12.591   6.187  12.431
67049SOL    HW2 3045  12.634   6.120  12.559
67050SOL     OW 3046   3.283  11.661   4.678
67050SOL    HW1 3047   3.370  11.693   4.652
67050SOL    HW2 3048   3.222  11.728   4.646
67051SOL     OW 3049  10.170   5.998   1.065
67051SOL    HW1 3050  10.262   6.020   1.080
67051SOL    HW2 3051  10.157   6.008   0.971
67052SOL     OW 3052   5.562   7.593  14.048
67052SOL    HW1 3053   5.502   7.667  14.034
67052SOL    HW2 3054   5.585   7.564  13.960
67053SOL     OW 3055   3.499   0.245   9.400
67053SOL    HW1 3056   3.410   0.212   9.387
67053SOL    HW2 3057   3.491   0.308   9.471
67054SOL     OW 3058  13.792   6.676   1.588
67054SOL    HW1 3059  13.727   6.741   1.613
67054SOL    HW2 3060  13.876   6.720   1.600
67055SOL     OW 3061  11.800   4.542   5.651
67055SOL    HW1 3062  11.778   4.523   5.742
67055SOL    HW2 3063  11.881   4.494   5.636
67056SOL     OW 3064   7.244   9.404   3.344
67056SOL    HW1 3065   7.198   9.466   3.400
67056SOL    HW2 3066   7.326   9.448   3.322
67057SOL     OW 3067  12.023  12.695   7.604
67057SOL    HW1 3068  12.011  12.600   7.592
67057SOL    HW2 3069  12.118  12.708   7.601
67058SOL     OW 3070  14.651  11.090  11.459
67058SOL    HW1 3071  14.667  11.028  11.530
67058SOL    HW2 3072  14.581  11.049  11.407
67059SOL     OW 3073   6.896   4.726   0.599
67059SOL    HW1 3074   6.909   4.701   0.507
67059SOL    HW2 3075   6.980   4.708   0.641
67060SOL     OW 3076   2.545  10.009   0.176
67060SOL    HW1 3077   2.615  10.013   0.241
67060SOL    HW2 3078   2.465  10.020   0.226
67061SOL     OW 3079   0.317  11.823   5.337
67061SOL    HW1 3080   0.360  11.751   5.383
67061SOL    HW2 3081   0.325  11.897   5.397
67062SOL     OW 3082   5.273   2.825   5.060
67062SOL    HW1 3083   5.182   2.811   5.086
67062SOL    HW2 3084   5.288   2.919   5.072
67063SOL     OW 3085  12.581   1.576   7.869
67063SOL    HW1 3086  12.546   1.661   7.894
67063SOL    HW2 3087  12.566   1.570   7.775
67064SOL     OW 3088  10.687   5.301   8.598
67064SOL    HW1 3089  10.606   5.321   8.644
67064SOL    HW2 3090  10.756   5.315   8.663
67065SOL     OW 3091  10.275  10.405  10.734
67065SOL    HW1 3092  10.327  10.402  10.654
67065SOL    HW2 3093  10.317  10.341  10.792
67066SOL     OW 3094   4.702   5.155   5.609
67066SOL    HW1 3095   4.777   5.215   5.615
67066SOL    HW2 3096   4.626   5.210   5.627
67067SOL     OW 3097   8.395  11.289   3.170
67067SOL    HW1 3098   8.333  11.359   3.152
67067SOL    HW2 3099   8.478  11.322   3.136
67068SOL     OW 3100   5.386   3.015   5.601
67068SOL    HW1 3101   5.420   2.964   5.527
67068SOL    HW2 3102   5.449   3.086   5.612
67069SOL     OW 3103   3.741  10.277   5.838
67069SOL    HW1 3104   3.726  10.276   5.744
67069SOL    HW2 3105   3.819  10.223   5.851
67070SOL     OW 3106   4.559  13.979   1.648
67070SOL    HW1 3107   4.502  14.021   1.584
67070SOL    HW2 3108   4.587  14.051   1.705
67071SOL     OW 3109  12.126  11.024  12.376
67071SOL    HW1 3110  12.129  11.027  12.471
67071SOL    HW2 3111  12.032  11.024  12.355
67072SOL     OW 3112   2.872  10.883   9.039
67072SOL    HW1 3113   2.855  10.921   9.125
67072SOL    HW2 3114   2.786  10.856   9.007
67073SOL     OW 3115  10.414   6.667   5.837
67073SOL    HW1 3116  10.435   6.760   5.836
67073SOL    HW2 3117  10.352   6.658   5.910
67074SOL     OW 3118   1.758   0.125   3.668
67074SOL    HW1 3119   1.763   0.093   3.578
67074SOL    HW2 3120   1.839   0.095   3.710
67075SOL     OW 3121   6.165   1.505   1.575
67075SOL    HW1 3122   6.245   1.453   1.576
67075SOL    HW2 3123   6.097   1.444   1.545
67076SOL     OW 3124   3.122   2.880   5.729
67076SOL    HW1 3125   3.055   2.941   5.758
67076SOL    HW2 3126   3.121   2.885   5.633
67077SOL     OW 3127  13.241  11.479  10.166
67077SOL    HW1 3128  13.292  11.410  10.124
67077SOL    HW2 3129  13.187  11.515  10.096
67078SOL     OW 3130   5.822   1.111  14.204
67078SOL    HW1 3131   5.913   1.129  14.228
67078SOL    HW2 3132   5.789   1.055  14.274
67079SOL     OW 3133   4.434  10.017   2.268
67079SOL    HW1 3134   4.511  10.022   2.325
67079SOL    HW2 3135   4.406   9.926   2.273
67080SOL     OW 3136   5.794  10.953   1.022
67080SOL    HW1 3137   5.824  11.027   0.968
67080SOL    HW2 3138   5.807  10.876   0.966
67081SOL     OW 3139   1.667   6.806   9.205
67081SOL    HW1 3140   1.601   6.858   9.250
67081SOL    HW2 3141   1.666   6.839   9.115
67082SOL     OW 3142   0.075   6.435  13.272
67082SOL    HW1 3143   0.046   6.354  13.315
67082SOL    HW2 3144   0.076   6.500  13.342
67083SOL     OW 3145   8.027   5.250  13.838
67083SOL    HW1 3146   7.984   5.300  13.907
67083SOL    HW2 3147   7.986   5.281  13.757
67084SOL     OW 3148   4.447   5.783   4.922
67084SOL    HW1 3149   4.487   5.756   4.839
67084SOL    HW2 3150   4.355   5.755   4.914
67085SOL     OW 3151  11.866   0.201  13.374
67085SOL    HW1 3152  11.872   0.199  13.469
67085SOL    HW2 3153  11.942   0.150  13.344
67086SOL     OW 3154   2.875  13.897   2.493
67086SOL    HW1 3155   2.834  13.949   2.424
67086SOL    HW2 3156   2.889  13.811   2.454
67087SOL     OW 3157   7.065   1.509   6.598
67087SOL    HW1 3158   7.131   1.556   6.547
67087SOL    HW2 3159   7.007   1.470   6.532
67088SOL     OW 3160   7.683   2.395   8.066
67088SOL    HW1 3161   7.636   2.413   8.147
67088SOL    HW2 3162   7.618   2.407   7.997
67089SOL     OW 3163  11.357   1.003   8.233
67089SOL    HW1 3164  11.315   0.945   8.168
67089SOL    HW2 3165  11.322   1.089   8.213
67090SOL     OW 3166   2.522   6.354  13.367
67090SOL    HW1 3167   2.503   6.351  13.274
67090SOL    HW2 3168   2.579   6.279  13.383
67091SOL     OW 3169   7.042   7.796   2.328
67091SOL    HW1 3170   6.970   7.856   2.345
67091SOL    HW2 3171   7.073   7.769   2.414
67092SOL     OW 3172   2.495   5.376   1.303
67092SOL    HW1 3173   2.532   5.381   1.391
67092SOL    HW2 3174   2.406   5.345   1.316
67093SOL     OW 3175  13.204  14.618   4.945
67093SOL    HW1 3176  13.261  14.559   4.994
67093SOL    HW2 3177  13.117  14.605   4.984
67094SOL     OW 3178   4.854   7.088   1.764
67094SOL    HW1 3179   4.948   7.101   1.752
67094SOL    HW2 3180   4.847   7.030   1.839
67095SOL     OW 3181   5.736   6.260  14.532
67095SOL    HW1 3182   5.701   6.346  14.553
67095SOL    HW2 3183   5.789   6.236  14.608
67096SOL     OW 3184  14.303  10.573   3.449
67096SOL    HW1 3185  14.323  10.553   3.540
67096SOL    HW2 3186  14.307  10.669   3.444
67097SOL     OW 3187   3.665   1.142   8.443
67097SOL    HW1 3188   3.699   1.091   8.369
67097SOL    HW2 3189   3.640   1.225   8.404
67098SOL     OW 3190  12.027   8.432   6.014
67098SOL    HW1 3191  11.981   8.474   6.086
67098SOL    HW2 3192  12.109   8.401   6.052
67099SOL     OW 3193   9.327  10.540   9.178
67099SOL    HW1 3194   9.383  10.524   9.102
67099SOL    HW2 3195   9.388  10.564   9.248
67100SOL     OW 3196   4.263  11.669   3.032
67100SOL    HW1 3197   4.186  11.672   3.089
67100SOL    HW2 3198   4.332  11.633   3.087
67101SOL     OW 3199   8.756   6.021   2.107
67101SOL    HW1 3200   8.723   6.007   2.196
67101SOL    HW2 3201   8.772   5.932   2.074
67102SOL     OW 3202   5.805   3.223   3.968
67102SOL    HW1 3203   5.853   3.293   4.012
67102SOL    HW2 3204   5.868   3.150   3.963
67103SOL     OW 3205   8.756   8.768  14.841
67103SOL    HW1 3206   8.719   8.680  14.833
67103SOL    HW2 3207   8.816   8.776  14.766
67104SOL     OW 3208   7.263   7.303  10.540
67104SOL    HW1 3209   7.324   7.352  10.595
67104SOL    HW2 3210   7.286   7.327  10.451
67105SOL     OW 3211   0.008   2.219   2.274
67105SOL    HW1 3212   0.098   2.186   2.279
67105SOL    HW2 3213  14.825   2.146   2.239
67106SOL     OW 3214  10.214  11.686  10.772
67106SOL    HW1 3215  10.178  11.748  10.836
67106SOL    HW2 3216  10.291  11.730  10.737
67107SOL     OW 3217   0.327   0.543  12.695
67107SOL    HW1 3218   0.323   0.621  12.639
67107SOL    HW2 3219   0.414   0.547  12.735
67108SOL     OW 3220   8.679   4.881   7.454
67108SOL    HW1 3221   8.633   4.956   7.416
67108SOL    HW2 3222   8.651   4.880   7.545
67109SOL     OW 3223  14.173  12.906   7.199
67109SOL    HW1 3224  14.176  12.977   7.135
67109SOL    HW2 3225  14.262  12.902   7.235
67110SOL     OW 3226  11.460   6.068  11.956
67110SOL    HW1 3227  11.406   5.993  11.929
67110SOL    HW2 3228  11.479   6.051  12.048
67111SOL     OW 3229   9.549   7.984   4.850
67111SOL    HW1 3230   9.500   7.918   4.899
67111SOL    HW2 3231   9.636   7.984   4.889
67112SOL     OW 3232  12.562   2.827   8.421
67112SOL    HW1 3233  12.584   2.742   8.382
67112SOL    HW2 3234  12.627   2.840   8.490
67113SOL     OW 3235   1.565   7.124   7.334
67113SOL    HW1 3236   1.549   7.103   7.426
67113SOL    HW2 3237   1.567   7.039   7.290
67114SOL     OW 3238   3.362  13.361  11.352
67114SOL    HW1 3239   3.399  13.447  11.333
67114SOL    HW2 3240   3.421  13.299  11.309
67115SOL     OW 3241   2.781   9.542  10.364
67115SOL    HW1 3242   2.796   9.456  10.324
67115SOL    HW2 3243   2.686   9.549  10.371
67116SOL     OW 3244   5.877   7.328  11.956
67116SOL    HW1 3245   5.826   7.317  12.037
67116SOL    HW2 3246   5.962   7.287  11.976
67117SOL     OW 3247  12.132   8.213   3.521
67117SOL    HW1 3248  12.132   8.191   3.428
67117SOL    HW2 3249  12.212   8.173   3.555
67118SOL     OW 3250  14.189   9.566  12.566
67118SOL    HW1 3251  14.124   9.637  12.563
67118SOL    HW2 3252  14.261   9.598  12.513
67119SOL     OW 3253   1.271  11.974   3.257
67119SOL    HW1 3254   1.176  11.983   3.264
67119SOL    HW2 3255   1.284  11.886   3.221
67120SOL     OW 3256  11.633   1.922   5.264
67120SOL    HW1 3257  11.677   1.896   5.345
67120SOL    HW2 3258  11.696   1.901   5.195
67121SOL     OW 3259   1.572   6.282  11.628
67121SOL    HW1 3260   1.580   6.334  11.708
67121SOL    HW2 3261   1.504   6.218  11.648
67122SOL     OW 3262  14.617  10.635   6.931
67122SOL    HW1 3263  14.653  10.655   6.845
67122SOL    HW2 3264  14.583  10.718   6.964
67123SOL     OW 3265   1.590   5.368   2.176
67123SOL    HW1 3266   1.561   5.354   2.266
67123SOL    HW2 3267   1.541   5.303   2.125
67124SOL     OW 3268   8.645   5.382   8.966
67124SOL    HW1 3269   8.621   5.289   8.959
67124SOL    HW2 3270   8.564   5.425   8.992
67125SOL     OW 3271  12.462   8.626   5.503
67125SOL    HW1 3272  12.528   8.583   5.448
67125SOL    HW2 3273  12.407   8.555   5.535
67126SOL     OW 3274   7.402   9.420   0.473
67126SOL    HW1 3275   7.475   9.404   0.533
67126SOL    HW2 3276   7.326   9.383   0.519
67127SOL     OW 3277   2.081   1.047  14.680
67127SOL    HW1 3278   2.117   0.968  14.720
67127SOL    HW2 3279   1.990   1.025  14.661
67128SOL     OW 3280   4.759   6.365  12.656
67128SOL    HW1 3281   4.769   6.282  12.703
67128SOL    HW2 3282   4.768   6.342  12.564
67129SOL     OW 3283   6.433  14.039  14.586
67129SOL    HW1 3284   6.495  14.095  14.538
67129SOL    HW2 3285   6.428  14.078  14.673
67130SOL     OW 3286   1.114   1.256   6.377
67130SOL    HW1 3287   1.153   1.343   6.367
67130SOL    HW2 3288   1.165   1.200   6.318
67131SOL     OW 3289   7.714   4.448   9.095
67131SOL    HW1 3290   7.779   4.481   9.157
67131SOL    HW2 3291   7.681   4.527   9.051
67132SOL     OW 3292  11.116   6.219  13.945
67132SOL    HW1 3293  11.190   6.240  14.001
67132SOL    HW2 3294  11.043   6.270  13.981
67133SOL     OW 3295  12.978   4.746   8.367
67133SOL    HW1 3296  13.017   4.777   8.448
67133SOL    HW2 3297  12.913   4.812   8.344
67134SOL     OW 3298   0.759  11.645  11.381
67134SOL    HW1 3299   0.694  11.628  11.313
67134SOL    HW2 3300   0.747  11.574  11.445
67135SOL     OW 3301   5.216   4.811  13.825
67135SOL    HW1 3302   5.277   4.806  13.751
67135SOL    HW2 3303   5.140   4.857  13.789
67136SOL     OW 3304   9.979   7.865   0.331
67136SOL    HW1 3305   9.886   7.852   0.351
67136SOL    HW2 3306  10.022   7.787   0.365
67137SOL     OW 3307   6.153   7.172   3.011
67137SOL    HW1 3308   6.174   7.230   3.085
67137SOL    HW2 3309   6.109   7.229   2.949
67138SOL     OW 3310   4.862  10.027  12.937
67138SOL    HW1 3311   4.787  10.021  12.996
67138SOL    HW2 3312   4.858  10.116  12.901
67139SOL     OW 3313   9.731   5.123   5.348
67139SOL    HW1 3314   9.706   5.078   5.267
67139SOL    HW2 3315   9.770   5.206   5.318
67140SOL     OW 3316  10.236   2.710   2.283
67140SOL    HW1 3317  10.174   2.778   2.306
67140SOL    HW2 3318  10.317   2.757   2.264
67141SOL     OW 3319   8.663   9.390   3.064
67141SOL    HW1 3320   8.684   9.299   3.086
67141SOL    HW2 3321   8.735   9.441   3.102
67142SOL     OW 3322  12.518  11.774  11.538
67142SOL    HW1 3323  12.466  11.695  11.523
67142SOL    HW2 3324  12.506  11.825  11.458
67143SOL     OW 3325   0.166  11.212   3.813
67143SOL    HW1 3326   0.196  11.147   3.877
67143SOL    HW2 3327   0.245  11.240   3.767
67144SOL     OW 3328   0.542   2.027  14.572
67144SOL    HW1 3329   0.616   2.076  14.607
67144SOL    HW2 3330   0.476   2.031  14.642
67145SOL     OW 3331   9.801   8.492   8.911
67145SOL    HW1 3332   9.793   8.570   8.856
67145SOL    HW2 3333   9.819   8.525   8.999
67146SOL     OW 3334   7.578   4.434   3.388
67146SOL    HW1 3335   7.494   4.463   3.351
67146SOL    HW2 3336   7.644   4.473   3.331
67147SOL     OW 3337   4.955   0.615  14.829
67147SOL    HW1 3338   4.955   0.665  14.748
67147SOL    HW2 3339   4.862   0.598  14.847
67148SOL     OW 3340   2.347   5.072  12.908
67148SOL    HW1 3341   2.299   5.086  12.989
67148SOL    HW2 3342   2.422   5.018  12.933
67149SOL     OW 3343   9.358  12.484   5.066
67149SOL    HW1 3344   9.405  12.561   5.096
67149SOL    HW2 3345   9.392  12.468   4.978
67150SOL     OW 3346   2.072   4.471   4.431
67150SOL    HW1 3347   2.073   4.428   4.345
67150SOL    HW2 3348   2.164   4.470   4.460
67151SOL     OW 3349  13.329   0.396   6.940
67151SOL    HW1 3350  13.339   0.315   6.891
67151SOL    HW2 3351  13.260   0.444   6.893
67152SOL     OW 3352   6.460   4.450   4.354
67152SOL    HW1 3353   6.395   4.518   4.337
67152SOL    HW2 3354   6.524   4.492   4.411
67153SOL     OW 3355  14.699   3.692   2.408
67153SOL    HW1 3356  14.745   3.654   2.483
67153SOL    HW2 3357  14.769   3.729   2.354
67154SOL     OW 3358  14.424   6.878   5.083
67154SOL    HW1 3359  14.447   6.802   5.028
67154SOL    HW2 3360  14.333   6.864   5.107
67155SOL     OW 3361   5.714   5.029   6.698
67155SOL    HW1 3362   5.721   5.097   6.765
67155SOL    HW2 3363   5.635   5.052   6.648
67156SOL     OW 3364   4.262  12.027  11.012
67156SOL    HW1 3365   4.198  11.984  10.955
67156SOL    HW2 3366   4.323  11.957  11.036
67157SOL     OW 3367   5.620  11.968   9.607
67157SOL    HW1 3368   5.615  11.878   9.640
67157SOL    HW2 3369   5.640  12.020   9.684
67158SOL     OW 3370   6.680   9.443  11.220
67158SOL    HW1 3371   6.710   9.366  11.267
67158SOL    HW2 3372   6.586   9.428  11.206
67159SOL     OW 3373   3.833   0.260   4.615
67159SOL    HW1 3374   3.764   0.302   4.565
67159SOL    HW2 3375   3.860   0.185   4.561
67160SOL     OW 3376   6.593   9.994  11.701
67160SOL    HW1 3377   6.654  10.059  11.737
67160SOL    HW2 3378   6.602   9.918  11.759
67161SOL     OW 3379  11.661   2.913   8.224
67161SOL    HW1 3380  11.730   2.965   8.264
67161SOL    HW2 3381  11.612   2.878   8.298
67162SOL     OW 3382   7.100   3.157   7.583
67162SOL    HW1 3383   7.025   3.141   7.526
67162SOL    HW2 3384   7.065   3.148   7.672
67163SOL     OW 3385   0.053  12.441  12.211
67163SOL    HW1 3386   0.085  12.406  12.294
67163SOL    HW2 3387   0.081  12.532  12.211
67164SOL     OW 3388   4.068   8.298   3.029
67164SOL    HW1 3389   4.155   8.321   2.995
67164SOL    HW2 3390   4.069   8.328   3.120
67165SOL     OW 3391  12.381  13.483   3.717
67165SOL    HW1 3392  12.396  13.397   3.758
67165SOL    HW2 3393  12.463  13.530   3.731
67166SOL     OW 3394  11.728  12.331   8.238
67166SOL    HW1 3395  11.733  12.426   8.227
67166SOL    HW2 3396  11.641  12.308   8.205
67167SOL     OW 3397   7.971  11.111   5.267
67167SOL    HW1 3398   8.047  11.130   5.212
67167SOL    HW2 3399   7.899  11.161   5.228
67168SOL     OW 3400  12.030   2.740   7.675
67168SOL    HW1 3401  12.097   2.720   7.609
67168SOL    HW2 3402  12.080   2.750   7.757
67169SOL     OW 3403   4.356  13.896   5.633
67169SOL    HW1 3404   4.441  13.860   5.657
67169SOL    HW2 3405   4.377  13.977   5.586
67170SOL     OW 3406  13.830   1.374   8.041
67170SOL    HW1 3407  13.873   1.300   7.998
67170SOL    HW2 3408  13.876   1.383   8.124
67171SOL     OW 3409   7.906   8.734  10.072
67171SOL    HW1 3410   7.864   8.778  10.145
67171SOL    HW2 3411   8.000   8.739  10.091
67172SOL     OW 3412  10.657   0.520   2.590
67172SOL    HW1 3413  10.625   0.504   2.502
67172SOL    HW2 3414  10.741   0.565   2.578
67173SOL     OW 3415  13.581  13.552   6.159
67173SOL    HW1 3416  13.551  13.638   6.188
67173SOL    HW2 3417  13.502  13.511   6.122
67174SOL     OW 3418   3.646   0.892  14.853
67174SOL    HW1 3419   3.684   0.867  14.768
67174SOL    HW2 3420   3.702   0.964   0.015
67175SOL     OW 3421   0.974  10.565   5.220
67175SOL    HW1 3422   1.037  10.510   5.266
67175SOL    HW2 3423   0.996  10.555   5.128
67176SOL     OW 3424   6.728   4.826  14.297
67176SOL    HW1 3425   6.652   4.864  14.254
67176SOL    HW2 3426   6.785   4.901  14.316
67177SOL     OW 3427   6.795   8.872  14.344
67177SOL    HW1 3428   6.794   8.893  14.438
67177SOL    HW2 3429   6.782   8.777  14.341
67178SOL     OW 3430  14.471   9.522   9.997
67178SOL    HW1 3431  14.450   9.543   9.906
67178SOL    HW2 3432  14.565   9.505   9.997
67179SOL     OW 3433   5.927   0.029   8.106
67179SOL    HW1 3434   5.977   0.108   8.085
67179SOL    HW2 3435   5.849   0.035   8.052
67180SOL     OW 3436  12.099   0.784   9.652
67180SOL    HW1 3437  12.037   0.723   9.691
67180SOL    HW2 3438  12.181   0.769   9.699
67181SOL     OW 3439   8.014   5.467  11.110
67181SOL    HW1 3440   7.960   5.438  11.037
67181SOL    HW2 3441   8.104   5.465  11.077
67182SOL     OW 3442  11.586  13.412   3.274
67182SOL    HW1 3443  11.507  13.392   3.324
67182SOL    HW2 3444  11.597  13.507   3.283
67183SOL     OW 3445   0.740   1.708  14.140
67183SOL    HW1 3446   0.833   1.704  14.120
67183SOL    HW2 3447   0.722   1.625  14.185
67184SOL     OW 3448   3.334  14.508  12.837
67184SOL    HW1 3449   3.322  14.490  12.744
67184SOL    HW2 3450   3.247  14.491  12.876
67185SOL     OW 3451   4.888  10.810   4.778
67185SOL    HW1 3452   4.954  10.742   4.796
67185SOL    HW2 3453   4.918  10.852   4.698
67186SOL     OW 3454   3.998   1.630  13.052
67186SOL    HW1 3455   3.994   1.724  13.071
67186SOL    HW2 3456   4.077   1.600  13.095
67187SOL     OW 3457   2.105   7.829  14.310
67187SOL    HW1 3458   2.193   7.797  14.289
67187SOL    HW2 3459   2.077   7.876  14.231
67188SOL     OW 3460  11.007  11.753   7.077
67188SOL    HW1 3461  10.960  11.746   7.160
67188SOL    HW2 3462  11.042  11.666   7.063
67189SOL     OW 3463  12.869  12.820   3.133
67189SOL    HW1 3464  12.833  12.908   3.123
67189SOL    HW2 3465  12.861  12.781   3.046
67190SOL     OW 3466  10.613  11.701  14.167
67190SOL    HW1 3467  10.594  11.765  14.237
67190SOL    HW2 3468  10.565  11.735  14.091
67191SOL     OW 3469  11.335   6.966  14.066
67191SOL    HW1 3470  11.272   6.983  14.137
67191SOL    HW2 3471  11.390   6.895  14.098
67192SOL     OW 3472   2.248   0.481  10.716
67192SOL    HW1 3473   2.330   0.446  10.752
67192SOL    HW2 3474   2.190   0.488  10.792
67193SOL     OW 3475   8.319   9.481   1.607
67193SOL    HW1 3476   8.331   9.456   1.515
67193SOL    HW2 3477   8.225   9.473   1.622
67194SOL     OW 3478   9.880  12.628   8.817
67194SOL    HW1 3479   9.975  12.622   8.806
67194SOL    HW2 3480   9.868  12.679   8.897
67195SOL     OW 3481   0.843   0.321   8.425
67195SOL    HW1 3482   0.760   0.353   8.389
67195SOL    HW2 3483   0.842   0.227   8.408
67196SOL     OW 3484  11.716   4.851   2.580
67196SOL    HW1 3485  11.621   4.847   2.571
67196SOL    HW2 3486  11.733   4.936   2.622
67197SOL     OW 3487   2.419   7.793  11.652
67197SOL    HW1 3488   2.401   7.885  11.633
67197SOL    HW2 3489   2.507   7.778  11.617
67198SOL     OW 3490   1.765   9.760   5.936
67198SOL    HW1 3491   1.823   9.815   5.883
67198SOL    HW2 3492   1.677   9.787   5.911
67199SOL     OW 3493   6.504  12.826   4.588
67199SOL    HW1 3494   6.481  12.852   4.499
67199SOL    HW2 3495   6.533  12.735   4.579
67200SOL     OW 3496   2.579  11.172  12.546
67200SOL    HW1 3497   2.542  11.117  12.615
67200SOL    HW2 3498   2.622  11.244  12.593
67201SOL     OW 3499  14.463   4.075   9.083
67201SOL    HW1 3500  14.423   4.004   9.033
67201SOL    HW2 3501  14.418   4.071   9.168
67202SOL     OW 3502   8.290   4.116   9.843
67202SOL    HW1 3503   8.359   4.133   9.779
67202SOL    HW2 3504   8.219   4.078   9.793
67203SOL     OW 3505   3.894  14.592   8.917
67203SOL    HW1 3506   3.894  14.682   8.949
67203SOL    HW2 3507   3.920  14.599   8.825
67204SOL     OW 3508   0.150  10.346   9.150
67204SOL    HW1 3509   0.087  10.321   9.218
67204SOL    HW2 3510   0.231  10.302   9.175
67205SOL     OW 3511   4.181   1.361  13.150
67205SOL    HW1 3512   4.102   1.309  13.164
67205SOL    HW2 3513   4.251   1.310  13.192
67206SOL     OW 3514  14.495   3.925   9.405
67206SOL    HW1 3515  14.524   3.841   9.440
67206SOL    HW2 3516  14.575   3.978   9.403
67207SOL     OW 3517   9.898   7.723   7.932
67207SOL    HW1 3518   9.833   7.793   7.924
67207SOL    HW2 3519   9.971   7.752   7.878
67208SOL     OW 3520  10.890   2.360   4.003
67208SOL    HW1 3521  10.833   2.418   3.952
67208SOL    HW2 3522  10.832   2.324   4.071
67209SOL     OW 3523   2.284   7.675  12.463
67209SOL    HW1 3524   2.284   7.752  12.521
67209SOL    HW2 3525   2.319   7.604  12.518
67210SOL     OW 3526  14.566  10.895  10.533
67210SOL    HW1 3527  14.597  10.915  10.621
67210SOL    HW2 3528  14.643  10.862  10.487
67211SOL     OW 3529   8.416  11.500   9.501
67211SOL    HW1 3530   8.387  11.468   9.415
67211SOL    HW2 3531   8.488  11.560   9.481
67212SOL     OW 3532   8.621   5.773   2.467
67212SOL    HW1 3533   8.599   5.714   2.394
67212SOL    HW2 3534   8.575   5.736   2.542
67213SOL     OW 3535   7.654   9.482   8.141
67213SOL    HW1 3536   7.676   9.438   8.059
67213SOL    HW2 3537   7.562   9.506   8.131
67214SOL     OW 3538   6.644  11.882   6.788
67214SOL    HW1 3539   6.711  11.846   6.731
67214SOL    HW2 3540   6.650  11.977   6.774
67215SOL     OW 3541  10.588   6.090   4.424
67215SOL    HW1 3542  10.558   6.150   4.492
67215SOL    HW2 3543  10.646   6.029   4.469
67216SOL     OW 3544   1.484   2.770   3.168
67216SOL    HW1 3545   1.555   2.787   3.230
67216SOL    HW2 3546   1.463   2.678   3.179
67217SOL     OW 3547   7.927   3.352  12.155
67217SOL    HW1 3548   7.839   3.337  12.121
67217SOL    HW2 3549   7.955   3.265  12.185
67218SOL     OW 3550   2.375   3.820   2.241
67218SOL    HW1 3551   2.392   3.876   2.317
67218SOL    HW2 3552   2.354   3.735   2.279
67219SOL     OW 3553   0.354  12.959   5.581
67219SOL    HW1 3554   0.318  13.026   5.639
67219SOL    HW2 3555   0.446  12.985   5.568
67220SOL     OW 3556   3.015   7.020   7.230
67220SOL    HW1 3557   2.972   6.936   7.240
67220SOL    HW2 3558   2.997   7.046   7.140
67221SOL     OW 3559   5.201  14.115   9.879
67221SOL    HW1 3560   5.231  14.050   9.815
67221SOL    HW2 3561   5.282  14.148   9.918
67222SOL     OW 3562   2.695  12.006  10.301
67222SOL    HW1 3563   2.765  11.941  10.298
67222SOL    HW2 3564   2.734  12.085  10.263
67223SOL     OW 3565   5.185   7.447  13.881
67223SOL    HW1 3566   5.137   7.394  13.945
67223SOL    HW2 3567   5.250   7.388  13.844
67224SOL     OW 3568   1.692   8.542  11.548
67224SOL    HW1 3569   1.664   8.549  11.457
67224SOL    HW2 3570   1.616   8.508  11.594
67225SOL     OW 3571   8.515  10.206   4.500
67225SOL    HW1 3572   8.477  10.245   4.421
67225SOL    HW2 3573   8.597  10.254   4.513
67226SOL     OW 3574   5.512   3.590   3.708
67226SOL    HW1 3575   5.506   3.528   3.781
67226SOL    HW2 3576   5.606   3.610   3.702
67227SOL     OW 3577  13.500  12.701   0.142
67227SOL    HW1 3578  13.495  12.731   0.233
67227SOL    HW2 3579  13.442  12.624   0.139
67228SOL     OW 3580   4.467   3.976   2.843
67228SOL    HW1 3581   4.403   3.984   2.913
67228SOL    HW2 3582   4.502   3.887   2.852
67229SOL     OW 3583   5.391  12.036   7.843
67229SOL    HW1 3584   5.459  12.052   7.908
67229SOL    HW2 3585   5.366  12.123   7.812
67230SOL     OW 3586   9.853   0.660   0.394
67230SOL    HW1 3587   9.931   0.714   0.382
67230SOL    HW2 3588   9.801   0.675   0.314
67231SOL     OW 3589  13.507   8.964   5.504
67231SOL    HW1 3590  13.431   8.914   5.534
67231SOL    HW2 3591  13.530   8.925   5.420
67232SOL     OW 3592   2.672   5.382   3.608
67232SOL    HW1 3593   2.584   5.407   3.637
67232SOL    HW2 3594   2.724   5.462   3.618
67233SOL     OW 3595   3.709   0.103  12.434
67233SOL    HW1 3596   3.674   0.150  12.510
67233SOL    HW2 3597   3.701   0.164  12.362
67234SOL     OW 3598   2.414  13.800  10.121
67234SOL    HW1 3599   2.431  13.891  10.096
67234SOL    HW2 3600   2.335  13.777  10.071
67235SOL     OW 3601   5.919   1.079   5.300
67235SOL    HW1 3602   5.919   1.058   5.207
67235SOL    HW2 3603   5.914   0.995   5.344
67236SOL     OW 3604   8.430   6.932   9.905
67236SOL    HW1 3605   8.366   6.978   9.959
67236SOL    HW2 3606   8.460   6.997   9.841
67237SOL     OW 3607   2.945  14.577   5.444
67237SOL    HW1 3608   2.952  14.507   5.379
67237SOL    HW2 3609   2.953  14.658   5.393
67238SOL     OW 3610   1.789  11.149  13.344
67238SOL    HW1 3611   1.874  11.184  13.317
67238SOL    HW2 3612   1.811  11.074  13.399
67239SOL     OW 3613   3.542  13.805  10.434
67239SOL    HW1 3614   3.461  13.838  10.395
67239SOL    HW2 3615   3.610  13.832  10.373
67240SOL     OW 3616  14.065   0.798  13.590
67240SOL    HW1 3617  14.111   0.882  13.586
67240SOL    HW2 3618  14.108   0.750  13.662
67241SOL     OW 3619   4.373   4.508   6.478
67241SOL    HW1 3620   4.328   4.439   6.527
67241SOL    HW2 3621   4.303   4.558   6.437
67242SOL     OW 3622   5.636   2.052  10.067
67242SOL    HW1 3623   5.568   2.037  10.133
67242SOL    HW2 3624   5.684   1.969  10.063
67243SOL     OW 3625   0.338   4.329  11.387
67243SOL    HW1 3626   0.324   4.403  11.445
67243SOL    HW2 3627   0.276   4.263  11.417
67244SOL     OW 3628   0.901   1.903  11.361
67244SOL    HW1 3629   0.830   1.907  11.424
67244SOL    HW2 3630   0.926   1.811  11.358
67245SOL     OW 3631   8.796  14.115   6.414
67245SOL    HW1 3632   8.881  14.153   6.390
67245SOL    HW2 3633   8.774  14.156   6.497
67246SOL     OW 3634  12.513   0.485   7.128
67246SOL    HW1 3635  12.513   0.541   7.051
67246SOL    HW2 3636  12.603   0.455   7.137
67247SOL     OW 3637   2.123   9.937   4.196
67247SOL    HW1 3638   2.030   9.931   4.174
67247SOL    HW2 3639   2.143  10.031   4.191
67248SOL     OW 3640  12.076  14.395  13.320
67248SOL    HW1 3641  12.160  14.349  13.319
67248SOL    HW2 3642  12.089  14.466  13.382
67249SOL     OW 3643  14.533   2.410   4.882
67249SOL    HW1 3644  14.564   2.350   4.814
67249SOL    HW2 3645  14.592   2.396   4.956
67250SOL     OW 3646   0.846   8.267   1.513
67250SOL    HW1 3647   0.870   8.184   1.472
67250SOL    HW2 3648   0.755   8.255   1.541
67251SOL     OW 3649  12.441   9.951   5.460
67251SOL    HW1 3650  12.406   9.946   5.548
67251SOL    HW2 3651  12.452   9.859   5.433
67252SOL     OW 3652   8.084   5.519   3.549
67252SOL    HW1 3653   8.125   5.438   3.577
67252SOL    HW2 3654   8.054   5.560   3.630
67253SOL     OW 3655   8.842  13.195   2.187
67253SOL    HW1 3656   8.786  13.130   2.228
67253SOL    HW2 3657   8.876  13.152   2.109
67254SOL     OW 3658   2.682  10.625  12.501
67254SOL    HW1 3659   2.603  10.655  12.456
67254SOL    HW2 3660   2.751  10.682  12.467
67255SOL     OW 3661   3.147   5.398  14.046
67255SOL    HW1 3662   3.173   5.426  13.958
67255SOL    HW2 3663   3.206   5.444  14.105
67256SOL     OW 3664   1.265   8.418   8.876
67256SOL    HW1 3665   1.228   8.485   8.819
67256SOL    HW2 3666   1.309   8.357   8.816
67257SOL     OW 3667  14.618  10.569   9.820
67257SOL    HW1 3668  14.576  10.607   9.743
67257SOL    HW2 3669  14.668  10.495   9.786
67258SOL     OW 3670   6.490   5.002   1.514
67258SOL    HW1 3671   6.442   4.921   1.499
67258SOL    HW2 3672   6.502   5.039   1.426
67259SOL     OW 3673   4.165   3.666   6.499
67259SOL    HW1 3674   4.113   3.670   6.419
67259SOL    HW2 3675   4.233   3.602   6.480
67260SOL     OW 3676   2.047  10.316   1.543
67260SOL    HW1 3677   1.993  10.370   1.601
67260SOL    HW2 3678   1.984  10.265   1.492
67261SOL     OW 3679   3.576  11.098   3.522
67261SOL    HW1 3680   3.513  11.163   3.554
67261SOL    HW2 3681   3.523  11.022   3.500
67262SOL     OW 3682  14.721   8.229  11.693
67262SOL    HW1 3683  14.798   8.247  11.747
67262SOL    HW2 3684  14.752   8.236  11.603
67263SOL     OW 3685  12.708   1.241   9.792
67263SOL    HW1 3686  12.756   1.264   9.872
67263SOL    HW2 3687  12.775   1.218   9.728
67264SOL     OW 3688  13.200   2.703   4.416
67264SOL    HW1 3689  13.128   2.641   4.429
67264SOL    HW2 3690  13.238   2.677   4.332
67265SOL     OW 3691   9.805  11.933   7.055
67265SOL    HW1 3692   9.849  12.009   7.016
67265SOL    HW2 3693   9.868  11.900   7.119
67266SOL     OW 3694  14.194   5.946   2.635
67266SOL    HW1 3695  14.257   5.876   2.618
67266SOL    HW2 3696  14.191   5.954   2.730
67267SOL     OW 3697  12.228   3.169   8.711
67267SOL    HW1 3698  12.300   3.166   8.648
67267SOL    HW2 3699  12.196   3.259   8.706
67268SOL     OW 3700  12.827  14.731  13.149
67268SOL    HW1 3701  12.921  14.743  13.140
67268SOL    HW2 3702  12.816  14.690  13.235
67269SOL     OW 3703   6.743  10.181   1.659
67269SOL    HW1 3704   6.744  10.140   1.573
67269SOL    HW2 3705   6.752  10.109   1.721
67270SOL     OW 3706   6.467   9.947   1.957
67270SOL    HW1 3707   6.547   9.897   1.938
67270SOL    HW2 3708   6.443   9.987   1.873
67271SOL     OW 3709  10.840   9.698   6.478
67271SOL    HW1 3710  10.857   9.701   6.572
67271SOL    HW2 3711  10.926   9.690   6.438
67272SOL     OW 3712   4.235   3.334   4.834
67272SOL    HW1 3713   4.161   3.293   4.878
67272SOL    HW2 3714   4.309   3.319   4.892
67273SOL     OW 3715  12.275  11.871   4.394
67273SOL    HW1 3716  12.187  11.894   4.364
67273SOL    HW2 3717  12.289  11.783   4.360
67274SOL     OW 3718   2.618  10.042   8.143
67274SOL    HW1 3719   2.610  10.037   8.238
67274SOL    HW2 3720   2.528  10.051   8.111
67275SOL     OW 3721   0.495   6.607   1.014
67275SOL    HW1 3722   0.400   6.603   1.023
67275SOL    HW2 3723   0.514   6.553   0.937
67276SOL     OW 3724   9.515   4.285   2.634
67276SOL    HW1 3725   9.541   4.205   2.587
67276SOL    HW2 3726   9.541   4.269   2.725
67277SOL     OW 3727   6.531  13.991  12.523
67277SOL    HW1 3728   6.461  13.975  12.460
67277SOL    HW2 3729   6.509  14.075  12.563
67278SOL     OW 3730  12.716   1.999   8.541
67278SOL    HW1 3731  12.691   2.061   8.472
67278SOL    HW2 3732  12.633   1.975   8.583
67279SOL     OW 3733   6.419   5.801  10.706
67279SOL    HW1 3734   6.441   5.766  10.620
67279SOL    HW2 3735   6.332   5.765  10.725
67280SOL     OW 3736  14.590   9.568   4.683
67280SOL    HW1 3737  14.670   9.519   4.703
67280SOL    HW2 3738  14.621   9.648   4.640
67281SOL     OW 3739   5.329   4.517   1.902
67281SOL    HW1 3740   5.359   4.455   1.968
67281SOL    HW2 3741   5.376   4.492   1.823
67282SOL     OW 3742   0.178   3.666   9.130
67282SOL    HW1 3743   0.184   3.635   9.220
67282SOL    HW2 3744   0.197   3.760   9.136
67283SOL     OW 3745   6.693  10.179   6.047
67283SOL    HW1 3746   6.683  10.273   6.032
67283SOL    HW2 3747   6.778  10.170   6.089
67284SOL     OW 3748  12.960   6.761  11.637
67284SOL    HW1 3749  13.030   6.788  11.697
67284SOL    HW2 3750  12.985   6.799  11.553
67285SOL     OW 3751   0.721   0.773   9.246
67285SOL    HW1 3752   0.652   0.827   9.207
67285SOL    HW2 3753   0.749   0.715   9.175
67286SOL     OW 3754   1.392  10.640   9.078
67286SOL    HW1 3755   1.361  10.581   9.010
67286SOL    HW2 3756   1.359  10.726   9.053
67287SOL     OW 3757  11.591   7.346   9.286
67287SOL    HW1 3758  11.598   7.384   9.198
67287SOL    HW2 3759  11.566   7.419   9.342
67288SOL     OW 3760  14.813   4.815   4.123
67288SOL    HW1 3761  14.799   4.903   4.156
67288SOL    HW2 3762  14.796   4.821   4.029
67289SOL     OW 3763   3.809   0.975  13.273
67289SOL    HW1 3764   3.790   0.922  13.351
67289SOL    HW2 3765   3.734   0.960  13.215
67290SOL     OW 3766   2.959  14.592   4.229
67290SOL    HW1 3767   3.029  14.577   4.166
67290SOL    HW2 3768   2.978  14.678   4.265
67291SOL     OW 3769  10.780   2.853   0.978
67291SOL    HW1 3770  10.754   2.922   0.918
67291SOL    HW2 3771  10.697   2.818   1.012
67292SOL     OW 3772  13.675   2.827   8.707
67292SOL    HW1 3773  13.738   2.758   8.728
67292SOL    HW2 3774  13.718   2.908   8.735
67293SOL     OW 3775  13.481   1.901   8.250
67293SOL    HW1 3776  13.469   1.809   8.272
67293SOL    HW2 3777  13.495   1.902   8.155
67294SOL     OW 3778   3.620   1.075   2.871
67294SOL    HW1 3779   3.681   1.039   2.935
67294SOL    HW2 3780   3.676   1.102   2.798
67295SOL     OW 3781   7.020   2.326  14.778
67295SOL    HW1 3782   6.948   2.375  14.738
67295SOL    HW2 3783   6.976   2.257  14.829
67296SOL     OW 3784   5.840  11.909   5.661
67296SOL    HW1 3785   5.929  11.897   5.695
67296SOL    HW2 3786   5.783  11.873   5.729
67297SOL     OW 3787   9.841  12.693  13.765
67297SOL    HW1 3788   9.837  12.786  13.789
67297SOL    HW2 3789   9.759  12.656  13.799
67298SOL     OW 3790  13.648   0.739   8.642
67298SOL    HW1 3791  13.739   0.759   8.618
67298SOL    HW2 3792  13.632   0.652   8.606
67299SOL     OW 3793  10.125  13.606   7.360
67299SOL    HW1 3794  10.128  13.512   7.377
67299SOL    HW2 3795  10.033  13.625   7.344
67300SOL     OW 3796  10.040   4.183   3.818
67300SOL    HW1 3797   9.959   4.173   3.768
67300SOL    HW2 3798  10.041   4.109   3.878
67301SOL     OW 3799  10.492  11.733   4.678
67301SOL    HW1 3800  10.402  11.708   4.659
67301SOL    HW2 3801  10.487  11.776   4.763
67302SOL     OW 3802   9.412   8.996   6.923
67302SOL    HW1 3803   9.487   8.941   6.946
67302SOL    HW2 3804   9.412   9.065   6.990
67303SOL     OW 3805   5.618   0.261   3.572
67303SOL    HW1 3806   5.694   0.203   3.578
67303SOL    HW2 3807   5.557   0.228   3.637
67304SOL     OW 3808   7.060   0.883   7.542
67304SOL    HW1 3809   7.126   0.942   7.507
67304SOL    HW2 3810   7.096   0.854   7.626
67305SOL     OW 3811  12.672   9.951   9.317
67305SOL    HW1 3812  12.760   9.987   9.332
67305SOL    HW2 3813  12.674   9.866   9.361
67306SOL     OW 3814   3.453   0.238   2.102
67306SOL    HW1 3815   3.463   0.149   2.135
67306SOL    HW2 3816   3.485   0.293   2.174
67307SOL     OW 3817  13.382   3.098   7.905
67307SOL    HW1 3818  13.288   3.110   7.890
67307SOL    HW2 3819  13.421   3.106   7.818
67308SOL     OW 3820  14.058   3.441   3.279
67308SOL    HW1 3821  14.053   3.536   3.270
67308SOL    HW2 3822  14.049   3.426   3.374
67309SOL     OW 3823   1.896   8.835  13.123
67309SOL    HW1 3824   1.846   8.904  13.164
67309SOL    HW2 3825   1.982   8.874  13.107
67310SOL     OW 3826  14.053  13.935   3.149
67310SOL    HW1 3827  14.037  13.908   3.058
67310SOL    HW2 3828  13.970  13.972   3.178
67311SOL     OW 3829   9.835   0.124   5.143
67311SOL    HW1 3830   9.910   0.125   5.085
67311SOL    HW2 3831   9.846   0.201   5.199
67312SOL     OW 3832   2.109   4.510  13.822
67312SOL    HW1 3833   2.093   4.426  13.780
67312SOL    HW2 3834   2.176   4.552  13.768
67313SOL     OW 3835   0.923   0.856   5.627
67313SOL    HW1 3836   0.971   0.865   5.709
67313SOL    HW2 3837   0.833   0.834   5.653
67314SOL     OW 3838   4.546   0.014  14.541
67314SOL    HW1 3839   4.511  14.814  14.599
67314SOL    HW2 3840   4.629   0.039  14.581
67315SOL     OW 3841  14.333   1.432   7.707
67315SOL    HW1 3842  14.302   1.431   7.797
67315SOL    HW2 3843  14.419   1.475   7.711
67316SOL     OW 3844   3.041   3.043   7.380
67316SOL    HW1 3845   3.077   2.987   7.311
67316SOL    HW2 3846   3.114   3.100   7.405
67317SOL     OW 3847  10.681   8.587   7.165
67317SOL    HW1 3848  10.761   8.635   7.144
67317SOL    HW2 3849  10.620   8.609   7.094
67318SOL     OW 3850   5.012   6.177  13.462
67318SOL    HW1 3851   4.934   6.127  13.438
67318SOL    HW2 3852   5.068   6.174  13.384
67319SOL     OW 3853   8.422  14.210   2.915
67319SOL    HW1 3854   8.370  14.191   2.993
67319SOL    HW2 3855   8.513  14.207   2.946
67320SOL     OW 3856   6.797   2.734   0.962
67320SOL    HW1 3857   6.822   2.682   1.039
67320SOL    HW2 3858   6.848   2.815   0.971
67321SOL     OW 3859   3.636   6.251   0.540
67321SOL    HW1 3860   3.599   6.297   0.465
67321SOL    HW2 3861   3.664   6.167   0.505
67322SOL     OW 3862   0.805   8.365   6.624
67322SOL    HW1 3863   0.801   8.350   6.529
67322SOL    HW2 3864   0.889   8.409   6.638
67323SOL     OW 3865   1.565   6.537  12.630
67323SOL    HW1 3866   1.628   6.472  12.601
67323SOL    HW2 3867   1.513   6.558  12.553
67324SOL     OW 3868   8.137   2.306   9.986
67324SOL    HW1 3869   8.135   2.249   9.909
67324SOL    HW2 3870   8.051   2.347   9.988
67325SOL     OW 3871  13.909  10.987  12.847
67325SOL    HW1 3872  13.938  10.913  12.901
67325SOL    HW2 3873  13.824  11.011  12.885
67326SOL     OW 3874  14.857   1.647   7.807
67326SOL    HW1 3875  14.771   1.689   7.816
67326SOL    HW2 3876   0.044   1.714   7.765
67327SOL     OW 3877   9.769   2.293   2.222
67327SOL    HW1 3878   9.686   2.256   2.253
67327SOL    HW2 3879   9.812   2.221   2.177
67328SOL     OW 3880  12.372   9.086   7.258
67328SOL    HW1 3881  12.383   9.164   7.312
67328SOL    HW2 3882  12.411   9.108   7.174
67329SOL     OW 3883  10.553  14.357  14.860
67329SOL    HW1 3884  10.577  14.313   0.073
67329SOL    HW2 3885  10.487  14.299  14.821
67330SOL     OW 3886   4.191   0.874   8.071
67330SOL    HW1 3887   4.185   0.877   7.976
67330SOL    HW2 3888   4.146   0.793   8.095
67331SOL     OW 3889  14.270  11.074   8.231
67331SOL    HW1 3890  14.256  11.056   8.324
67331SOL    HW2 3891  14.364  11.066   8.218
67332SOL     OW 3892  12.491   8.375   2.802
67332SOL    HW1 3893  12.474   8.282   2.813
67332SOL    HW2 3894  12.565   8.380   2.742
67333SOL     OW 3895   1.577   1.640  11.709
67333SOL    HW1 3896   1.631   1.671  11.637
67333SOL    HW2 3897   1.631   1.574  11.753
67334SOL     OW 3898   9.837   1.516   7.663
67334SOL    HW1 3899   9.808   1.604   7.640
67334SOL    HW2 3900   9.832   1.466   7.582
67335SOL     OW 3901  12.776   9.267   3.746
67335SOL    HW1 3902  12.769   9.180   3.785
67335SOL    HW2 3903  12.713   9.266   3.674
67336SOL     OW 3904   7.159   9.352   5.913
67336SOL    HW1 3905   7.169   9.357   6.008
67336SOL    HW2 3906   7.220   9.417   5.879
67337SOL     OW 3907   6.629   0.269   4.974
67337SOL    HW1 3908   6.574   0.290   4.899
67337SOL    HW2 3909   6.657   0.354   5.008
67338SOL     OW 3910   1.222   3.167  13.333
67338SOL    HW1 3911   1.188   3.227  13.399
67338SOL    HW2 3912   1.164   3.178  13.258
67339SOL     OW 3913   8.666   7.098   6.360
67339SOL    HW1 3914   8.603   7.053   6.416
67339SOL    HW2 3915   8.739   7.035   6.352
67340SOL     OW 3916  11.723  14.572  11.044
67340SOL    HW1 3917  11.713  14.664  11.018
67340SOL    HW2 3918  11.744  14.576  11.137
67341SOL     OW 3919  10.855  10.511   6.258
67341SOL    HW1 3920  10.778  10.506   6.201
67341SOL    HW2 3921  10.818  10.526   6.345
67342SOL     OW 3922   3.777   1.380  12.702
67342SOL    HW1 3923   3.733   1.362  12.785
67342SOL    HW2 3924   3.862   1.337  12.710
67343SOL     OW 3925   2.190   2.853   2.293
67343SOL    HW1 3926   2.273   2.810   2.271
67343SOL    HW2 3927   2.155   2.882   2.209
67344SOL     OW 3928   4.613   3.344   3.812
67344SOL    HW1 3929   4.572   3.428   3.832
67344SOL    HW2 3930   4.616   3.298   3.896
67345SOL     OW 3931   2.356   1.893   1.255
67345SOL    HW1 3932   2.398   1.879   1.170
67345SOL    HW2 3933   2.310   1.977   1.245
67346SOL     OW 3934   5.151  11.863   9.905
67346SOL    HW1 3935   5.200  11.847   9.825
67346SOL    HW2 3936   5.131  11.957   9.903
67347SOL     OW 3937  13.096   5.348  13.353
67347SOL    HW1 3938  13.014   5.299  13.361
67347SOL    HW2 3939  13.078   5.432  13.393
67348SOL     OW 3940   4.848  12.539   8.854
67348SOL    HW1 3941   4.820  12.466   8.797
67348SOL    HW2 3942   4.869  12.610   8.793
67349SOL     OW 3943   9.747  10.271   7.257
67349SOL    HW1 3944   9.825  10.326   7.252
67349SOL    HW2 3945   9.678  10.329   7.288
67350SOL     OW 3946   2.061  12.353  13.414
67350SOL    HW1 3947   2.080  12.299  13.491
67350SOL    HW2 3948   1.991  12.305  13.369
67351SOL     OW 3949   3.590   1.045  10.378
67351SOL    HW1 3950   3.677   1.008  10.394
67351SOL    HW2 3951   3.537   1.013  10.451
67352SOL     OW 3952  10.390   0.030  13.187
67352SOL    HW1 3953  10.346   0.021  13.271
67352SOL    HW2 3954  10.483   0.022  13.208
67353SOL     OW 3955   9.562   3.820   9.563
67353SOL    HW1 3956   9.612   3.858   9.635
67353SOL    HW2 3957   9.481   3.788   9.604
67354SOL     OW 3958  14.451   5.074   8.800
67354SOL    HW1 3959  14.535   5.081   8.844
67354SOL    HW2 3960  14.389   5.055   8.871
67355SOL     OW 3961   8.747  14.765   5.714
67355SOL    HW1 3962   8.720  14.853   5.743
67355SOL    HW2 3963   8.822  14.781   5.656
67356SOL     OW 3964  14.262   1.800   1.427
67356SOL    HW1 3965  14.355   1.785   1.409
67356SOL    HW2 3966  14.231   1.718   1.464
67357SOL     OW 3967   3.200  11.117  14.554
67357SOL    HW1 3968   3.229  11.036  14.512
67357SOL    HW2 3969   3.281  11.168  14.565
67358SOL     OW 3970  12.082   9.340  12.790
67358SOL    HW1 3971  12.023   9.267  12.807
67358SOL    HW2 3972  12.132   9.314  12.713
67359SOL     OW 3973   6.576   6.859   2.993
67359SOL    HW1 3974   6.507   6.793   2.992
67359SOL    HW2 3975   6.631   6.835   3.068
67360SOL     OW 3976   9.481   1.119   0.108
67360SOL    HW1 3977   9.414   1.053   0.124
67360SOL    HW2 3978   9.546   1.105   0.176
67361SOL     OW 3979   4.618  12.926   6.109
67361SOL    HW1 3980   4.694  12.959   6.061
67361SOL    HW2 3981   4.640  12.938   6.201
67362SOL     OW 3982   1.473   3.817   0.235
67362SOL    HW1 3983   1.565   3.804   0.259
67362SOL    HW2 3984   1.463   3.912   0.228
67363SOL     OW 3985   0.120  10.708  12.161
67363SOL    HW1 3986   0.050  10.669  12.213
67363SOL    HW2 3987   0.170  10.634  12.127
67364SOL     OW 3988   6.873  14.752   4.051
67364SOL    HW1 3989   6.844  14.681   4.108
67364SOL    HW2 3990   6.794  14.779   4.004
67365SOL     OW 3991  12.347  10.240   5.115
67365SOL    HW1 3992  12.417  10.177   5.134
67365SOL    HW2 3993  12.393  10.322   5.099
67366SOL     OW 3994   6.505  11.520  12.528
67366SOL    HW1 3995   6.496  11.606  12.568
67366SOL    HW2 3996   6.597  11.516  12.502
67367SOL     OW 3997   7.619   8.626   2.108
67367SOL    HW1 3998   7.671   8.664   2.037
67367SOL    HW2 3999   7.591   8.701   2.161
67368SOL     OW 4000   3.591   0.264   8.444
67368SOL    HW1 4001   3.548   0.203   8.504
67368SOL    HW2 4002   3.684   0.249   8.457
67369SOL     OW 4003  10.215   9.126   2.596
67369SOL    HW1 4004  10.163   9.107   2.674
67369SOL    HW2 4005  10.265   9.204   2.619
67370SOL     OW 4006  11.027  12.472   0.657
67370SOL    HW1 4007  11.049  12.511   0.573
67370SOL    HW2 4008  10.987  12.544   0.707
67371SOL     OW 4009  12.103   1.449  12.158
67371SOL    HW1 4010  12.081   1.522  12.100
67371SOL    HW2 4011  12.073   1.478  12.244
67372SOL     OW 4012   1.866  11.354   1.948
67372SOL    HW1 4013   1.928  11.406   2.000
67372SOL    HW2 4014   1.782  11.367   1.991
67373SOL     OW 4015   1.401  12.746   1.227
67373SOL    HW1 4016   1.438  12.714   1.309
67373SOL    HW2 4017   1.307  12.756   1.244
67374SOL     OW 4018  12.200   4.315   0.883
67374SOL    HW1 4019  12.197   4.372   0.960
67374SOL    HW2 4020  12.187   4.374   0.809
67375SOL     OW 4021   4.410   5.357   4.010
67375SOL    HW1 4022   4.434   5.357   4.103
67375SOL    HW2 4023   4.315   5.369   4.011
67376SOL     OW 4024  11.294   5.256   1.805
67376SOL    HW1 4025  11.227   5.278   1.870
67376SOL    HW2 4026  11.252   5.193   1.746
67377SOL     OW 4027   7.205  13.174  10.860
67377SOL    HW1 4028   7.129  13.139  10.906
67377SOL    HW2 4029   7.267  13.195  10.930
67378SOL     OW 4030  12.164  13.792  13.242
67378SOL    HW1 4031  12.155  13.887  13.227
67378SOL    HW2 4032  12.075  13.764  13.265
67379SOL     OW 4033   6.910   2.248   0.837
67379SOL    HW1 4034   6.911   2.154   0.822
67379SOL    HW2 4035   6.911   2.287   0.750
67380SOL     OW 4036   9.442   4.105   1.999
67380SOL    HW1 4037   9.492   4.024   1.989
67380SOL    HW2 4038   9.372   4.097   1.934
67381SOL     OW 4039   9.959  14.566   4.031
67381SOL    HW1 4040   9.988  14.653   4.003
67381SOL    HW2 4041  10.000  14.553   4.116
67382SOL     OW 4042   3.909  14.101   3.061
67382SOL    HW1 4043   3.900  14.144   2.975
67382SOL    HW2 4044   3.858  14.020   3.052
67383SOL     OW 4045  13.617   9.611   8.899
67383SOL    HW1 4046  13.604   9.643   8.809
67383SOL    HW2 4047  13.619   9.691   8.952
67384SOL     OW 4048   8.630   4.933   3.163
67384SOL    HW1 4049   8.547   4.887   3.147
67384SOL    HW2 4050   8.656   4.907   3.252
67385SOL     OW 4051   2.934   2.212  12.418
67385SOL    HW1 4052   2.945   2.167  12.502
67385SOL    HW2 4053   3.023   2.239  12.394
67386SOL     OW 4054   2.117   4.411   6.646
67386SOL    HW1 4055   2.165   4.479   6.694
67386SOL    HW2 4056   2.182   4.342   6.632
67387SOL     OW 4057   0.674  13.005   5.604
67387SOL    HW1 4058   0.766  13.020   5.625
67387SOL    HW2 4059   0.676  12.960   5.520
67388SOL     OW 4060   4.178   4.921   6.765
67388SOL    HW1 4061   4.243   4.940   6.833
67388SOL    HW2 4062   4.180   4.825   6.756
67389SOL     OW 4063   3.097   5.884   0.335
67389SOL    HW1 4064   3.066   5.974   0.341
67389SOL    HW2 4065   3.058   5.840   0.410
67390SOL     OW 4066   5.345   3.182   0.639
67390SOL    HW1 4067   5.276   3.145   0.694
67390SOL    HW2 4068   5.307   3.264   0.606
67391SOL     OW 4069  11.666  12.231   2.055
67391SOL    HW1 4070  11.651  12.139   2.033
67391SOL    HW2 4071  11.670  12.233   2.151
67392SOL     OW 4072  13.943   2.079  14.853
67392SOL    HW1 4073  13.940   2.052  14.761
67392SOL    HW2 4074  14.025   2.126  14.862
67393SOL     OW 4075   1.005   1.972  10.518
67393SOL    HW1 4076   0.962   2.017  10.590
67393SOL    HW2 4077   1.009   2.038  10.448
67394SOL     OW 4078   2.934   7.643   4.797
67394SOL    HW1 4079   2.840   7.639   4.816
67394SOL    HW2 4080   2.949   7.570   4.738
67395SOL     OW 4081  11.435   6.286   1.485
67395SOL    HW1 4082  11.410   6.309   1.574
67395SOL    HW2 4083  11.384   6.345   1.429
67396SOL     OW 4084   0.729   3.170  12.782
67396SOL    HW1 4085   0.802   3.219  12.820
67396SOL    HW2 4086   0.694   3.118  12.855
67397SOL     OW 4087  12.016   9.190   9.384
67397SOL    HW1 4088  11.975   9.250   9.322
67397SOL    HW2 4089  11.982   9.217   9.469
67398SOL     OW 4090   7.753   9.243   5.481
67398SOL    HW1 4091   7.759   9.153   5.449
67398SOL    HW2 4092   7.660   9.257   5.498
67399SOL     OW 4093   0.745  12.715   4.286
67399SOL    HW1 4094   0.690  12.747   4.358
67399SOL    HW2 4095   0.742  12.620   4.293
67400SOL     OW 4096  13.071   2.313   9.337
67400SOL    HW1 4097  13.071   2.349   9.248
67400SOL    HW2 4098  13.034   2.225   9.327
67401SOL     OW 4099   8.504   3.662   2.719
67401SOL    HW1 4100   8.476   3.735   2.775
67401SOL    HW2 4101   8.435   3.655   2.653
67402SOL     OW 4102   8.259   9.158   1.588
67402SOL    HW1 4103   8.218   9.082   1.629
67402SOL    HW2 4104   8.292   9.209   1.662
67403SOL     OW 4105  12.260  10.999  10.326
67403SOL    HW1 4106  12.282  11.080  10.281
67403SOL    HW2 4107  12.341  10.973  10.370
67404SOL     OW 4108  10.080  14.555  13.611
67404SOL    HW1 4109  10.074  14.635  13.560
67404SOL    HW2 4110  10.022  14.570  13.686
67405SOL     OW 4111   3.476  14.158   9.794
67405SOL    HW1 4112   3.571  14.143   9.801
67405SOL    HW2 4113   3.457  14.149   9.700
67406SOL     OW 4114  10.446   1.249  12.157
67406SOL    HW1 4115  10.361   1.289  12.140
67406SOL    HW2 4116  10.450   1.242  12.252
67407SOL     OW 4117   3.886   1.562   6.741
67407SOL    HW1 4118   3.962   1.506   6.754
67407SOL    HW2 4119   3.824   1.507   6.693
67408SOL     OW 4120   1.473  10.807   7.138
67408SOL    HW1 4121   1.504  10.760   7.060
67408SOL    HW2 4122   1.523  10.770   7.210
67409SOL     OW 4123  12.190   8.376   2.445
67409SOL    HW1 4124  12.252   8.444   2.472
67409SOL    HW2 4125  12.161   8.336   2.527
67410SOL     OW 4126   1.168  10.463  12.526
67410SOL    HW1 4127   1.167  10.398  12.596
67410SOL    HW2 4128   1.169  10.547  12.571
67411SOL     OW 4129  11.529   7.445   4.277
67411SOL    HW1 4130  11.532   7.363   4.227
67411SOL    HW2 4131  11.589   7.431   4.350
67412SOL     OW 4132   1.620  11.751   2.482
67412SOL    HW1 4133   1.546  11.743   2.423
67412SOL    HW2 4134   1.610  11.679   2.544
67413SOL     OW 4135  11.660   3.450   7.363
67413SOL    HW1 4136  11.748   3.466   7.397
67413SOL    HW2 4137  11.665   3.473   7.271
67414SOL     OW 4138   1.103   4.700   7.900
67414SOL    HW1 4139   1.188   4.681   7.860
67414SOL    HW2 4140   1.075   4.782   7.860
67415SOL     OW 4141  10.416   1.786   2.699
67415SOL    HW1 4142  10.356   1.711   2.691
67415SOL    HW2 4143  10.387   1.830   2.779
67416SOL     OW 4144   5.973   6.897  10.912
67416SOL    HW1 4145   5.952   6.805  10.895
67416SOL    HW2 4146   6.065   6.905  10.886
67417SOL     OW 4147   3.836   9.935  11.489
67417SOL    HW1 4148   3.788   9.866  11.535
67417SOL    HW2 4149   3.914   9.892  11.454
67418SOL     OW 4150   9.441  13.922   7.876
67418SOL    HW1 4151   9.366  13.877   7.837
67418SOL    HW2 4152   9.409  14.011   7.892
67419SOL     OW 4153  12.133  14.789  13.627
67419SOL    HW1 4154  12.221  14.765  13.597
67419SOL    HW2 4155  12.076  14.721  13.592
67420SOL     OW 4156  12.699   7.968  13.931
67420SOL    HW1 4157  12.631   8.011  13.983
67420SOL    HW2 4158  12.667   7.975  13.841
67421SOL     OW 4159   3.060   5.185   3.979
67421SOL    HW1 4160   2.992   5.173   3.913
67421SOL    HW2 4161   3.123   5.245   3.939
67422SOL     OW 4162   1.914  13.715  12.605
67422SOL    HW1 4163   1.970  13.791  12.588
67422SOL    HW2 4164   1.900  13.717  12.700
67423SOL     OW 4165   6.902   6.529   8.530
67423SOL    HW1 4166   6.904   6.576   8.447
67423SOL    HW2 4167   6.866   6.443   8.508
67424SOL     OW 4168  11.342  10.433   3.855
67424SOL    HW1 4169  11.386  10.513   3.882
67424SOL    HW2 4170  11.282  10.460   3.786
67425SOL     OW 4171   8.109   1.159  12.606
67425SOL    HW1 4172   8.154   1.074  12.608
67425SOL    HW2 4173   8.091   1.174  12.513
67426SOL     OW 4174   1.857   5.617   7.238
67426SOL    HW1 4175   1.850   5.577   7.325
67426SOL    HW2 4176   1.861   5.543   7.178
67427SOL     OW 4177   0.692   2.004   1.742
67427SOL    HW1 4178   0.724   2.087   1.778
67427SOL    HW2 4179   0.609   2.027   1.700
67428SOL     OW 4180  10.867   2.146  12.271
67428SOL    HW1 4181  10.833   2.162  12.183
67428SOL    HW2 4182  10.790   2.155  12.328
67429SOL     OW 4183  14.219  12.561   9.812
67429SOL    HW1 4184  14.131  12.599   9.815
67429SOL    HW2 4185  14.222  12.503   9.888
67430SOL     OW 4186   7.054   0.957   2.356
67430SOL    HW1 4187   7.066   1.038   2.307
67430SOL    HW2 4188   7.142   0.919   2.360
67431SOL     OW 4189   9.670   6.508  11.497
67431SOL    HW1 4190   9.591   6.501  11.551
67431SOL    HW2 4191   9.637   6.500  11.407
67432SOL     OW 4192   9.587   6.254   6.672
67432SOL    HW1 4193   9.581   6.158   6.679
67432SOL    HW2 4194   9.595   6.283   6.763
67433SOL     OW 4195   9.508   7.848   3.360
67433SOL    HW1 4196   9.429   7.897   3.382
67433SOL    HW2 4197   9.486   7.802   3.279
67434SOL     OW 4198  10.638   1.032   8.556
67434SOL    HW1 4199  10.710   0.974   8.581
67434SOL    HW2 4200  10.663   1.118   8.590
67435SOL     OW 4201   4.078   3.684   6.128
67435SOL    HW1 4202   4.165   3.716   6.151
67435SOL    HW2 4203   4.089   3.590   6.113
67436SOL     OW 4204   2.286  11.065  12.968
67436SOL    HW1 4205   2.381  11.062  12.955
67436SOL    HW2 4206   2.274  11.053  13.062
67437SOL     OW 4207   9.618   1.680   5.059
67437SOL    HW1 4208   9.664   1.627   4.994
67437SOL    HW2 4209   9.684   1.742   5.090
67438SOL     OW 4210  12.337  11.790  14.119
67438SOL    HW1 4211  12.403  11.858  14.135
67438SOL    HW2 4212  12.263  11.814  14.174
67439SOL     OW 4213  11.250   7.316  10.449
67439SOL    HW1 4214  11.332   7.270  10.470
67439SOL    HW2 4215  11.278   7.404  10.425
67440SOL     OW 4216   3.450   2.427   3.409
67440SOL    HW1 4217   3.405   2.499   3.453
67440SOL    HW2 4218   3.437   2.352   3.467
67441SOL     OW 4219   3.421   6.169  11.896
67441SOL    HW1 4220   3.483   6.195  11.828
67441SOL    HW2 4221   3.464   6.190  11.979
67442SOL     OW 4222  10.294   3.415   9.765
67442SOL    HW1 4223  10.283   3.364   9.845
67442SOL    HW2 4224  10.370   3.377   9.722
67443SOL     OW 4225   1.731   2.618   5.957
67443SOL    HW1 4226   1.661   2.625   5.892
67443SOL    HW2 4227   1.687   2.587   6.036
67444SOL     OW 4228   8.836   2.593   8.961
67444SOL    HW1 4229   8.856   2.635   8.877
67444SOL    HW2 4230   8.922   2.575   9.000
67445SOL     OW 4231  13.790   5.693  11.301
67445SOL    HW1 4232  13.797   5.787  11.288
67445SOL    HW2 4233  13.865   5.656  11.254
67446SOL     OW 4234   5.460   6.074   5.834
67446SOL    HW1 4235   5.412   6.085   5.752
67446SOL    HW2 4236   5.427   6.143   5.891
67447SOL     OW 4237   0.502  13.166  14.841
67447SOL    HW1 4238   0.559  13.242  14.844
67447SOL    HW2 4239   0.446  13.181  14.765
67448SOL     OW 4240   1.343   7.974   6.926
67448SOL    HW1 4241   1.409   7.944   6.864
67448SOL    HW2 4242   1.368   7.933   7.009
67449SOL     OW 4243   2.669   9.339  11.350
67449SOL    HW1 4244   2.705   9.366  11.434
67449SOL    HW2 4245   2.592   9.287  11.372
67450SOL     OW 4246   9.899   4.540  14.258
67450SOL    HW1 4247   9.953   4.534  14.337
67450SOL    HW2 4248   9.904   4.631  14.232
67451SOL     OW 4249  13.454   4.468   0.250
67451SOL    HW1 4250  13.379   4.495   0.303
67451SOL    HW2 4251  13.473   4.544   0.195
67452SOL     OW 4252   7.657   8.649   1.081
67452SOL    HW1 4253   7.665   8.744   1.083
67452SOL    HW2 4254   7.735   8.618   1.126
67453SOL     OW 4255   6.490  14.517   1.496
67453SOL    HW1 4256   6.501  14.423   1.510
67453SOL    HW2 4257   6.457  14.550   1.579
67454SOL     OW 4258   3.619   9.918   2.353
67454SOL    HW1 4259   3.593  10.005   2.323
67454SOL    HW2 4260   3.708   9.929   2.387
67455SOL     OW 4261   5.123   6.497   4.626
67455SOL    HW1 4262   5.098   6.414   4.666
67455SOL    HW2 4263   5.150   6.473   4.537
67456SOL     OW 4264   4.717   3.462  13.915
67456SOL    HW1 4265   4.765   3.489  13.993
67456SOL    HW2 4266   4.784   3.425  13.858
67457SOL     OW 4267   1.147  13.511  14.720
67457SOL    HW1 4268   1.073  13.471  14.674
67457SOL    HW2 4269   1.219  13.450  14.708
67458SOL     OW 4270  13.342   9.266   2.935
67458SOL    HW1 4271  13.316   9.269   2.843
67458SOL    HW2 4272  13.428   9.308   2.938
67459SOL     OW 4273  12.636   7.038   1.948
67459SOL    HW1 4274  12.639   7.121   1.996
67459SOL    HW2 4275  12.725   7.026   1.916
67460SOL     OW 4276  10.647   3.521   5.234
67460SOL    HW1 4277  10.626   3.463   5.160
67460SOL    HW2 4278  10.606   3.604   5.211
67461SOL     OW 4279   7.671   0.421  13.508
67461SOL    HW1 4280   7.578   0.420  13.488
67461SOL    HW2 4281   7.704   0.336  13.478
67462SOL     OW 4282  14.023   5.041   2.311
67462SOL    HW1 4283  13.984   4.962   2.274
67462SOL    HW2 4284  14.117   5.025   2.309
67463SOL     OW 4285   9.311   3.222  12.232
67463SOL    HW1 4286   9.235   3.255  12.184
67463SOL    HW2 4287   9.281   3.140  12.272
67464SOL     OW 4288   0.876   6.366   8.362
67464SOL    HW1 4289   0.892   6.377   8.269
67464SOL    HW2 4290   0.940   6.424   8.404
67465SOL     OW 4291   6.737   3.802   6.885
67465SOL    HW1 4292   6.693   3.731   6.930
67465SOL    HW2 4293   6.678   3.877   6.893
67466SOL     OW 4294  11.376   9.285  14.184
67466SOL    HW1 4295  11.447   9.325  14.134
67466SOL    HW2 4296  11.305   9.349  14.179
67467SOL     OW 4297   1.947   1.595   5.921
67467SOL    HW1 4298   2.021   1.656   5.926
67467SOL    HW2 4299   1.887   1.635   5.858
67468SOL     OW 4300  10.162  11.850   8.443
67468SOL    HW1 4301  10.106  11.916   8.483
67468SOL    HW2 4302  10.109  11.814   8.372
67469SOL     OW 4303   5.765  10.156   6.895
67469SOL    HW1 4304   5.695  10.137   6.957
67469SOL    HW2 4305   5.795  10.070   6.865
67470SOL     OW 4306  14.155  14.072  12.944
67470SOL    HW1 4307  14.220  14.004  12.962
67470SOL    HW2 4308  14.107  14.040  12.868
67471SOL     OW 4309   5.738  10.071   2.683
67471SOL    HW1 4310   5.727  10.005   2.751
67471SOL    HW2 4311   5.810  10.039   2.628
67472SOL     OW 4312   5.882   5.771   0.626
67472SOL    HW1 4313   5.900   5.677   0.637
67472SOL    HW2 4314   5.815   5.774   0.558
67473SOL     OW 4315   1.579   2.078   3.007
67473SOL    HW1 4316   1.524   2.042   3.077
67473SOL    HW2 4317   1.632   2.005   2.978
67474SOL     OW 4318   5.234  10.558  14.639
67474SOL    HW1 4319   5.154  10.510  14.660
67474SOL    HW2 4320   5.283  10.559  14.721
67475SOL     OW 4321   7.758   1.967  11.138
67475SOL    HW1 4322   7.708   1.890  11.111
67475SOL    HW2 4323   7.713   2.040  11.096
67476SOL     OW 4324   1.035   1.693   4.324
67476SOL    HW1 4325   1.034   1.602   4.293
67476SOL    HW2 4326   1.066   1.689   4.414
67477SOL     OW 4327  14.020   8.003   7.877
67477SOL    HW1 4328  14.048   8.065   7.945
67477SOL    HW2 4329  13.945   7.958   7.916
67478SOL     OW 4330   9.252   0.467   8.484
67478SOL    HW1 4331   9.257   0.468   8.389
67478SOL    HW2 4332   9.211   0.383   8.505
67479SOL     OW 4333  13.051   1.754   0.470
67479SOL    HW1 4334  13.138   1.771   0.435
67479SOL    HW2 4335  13.061   1.761   0.565
67480SOL     OW 4336   2.179   3.228   2.523
67480SOL    HW1 4337   2.174   3.133   2.539
67480SOL    HW2 4338   2.120   3.242   2.449
67481SOL     OW 4339   8.324   9.720   8.517
67481SOL    HW1 4340   8.320   9.671   8.435
67481SOL    HW2 4341   8.358   9.658   8.581
67482SOL     OW 4342   0.087   5.234  13.434
67482SOL    HW1 4343   0.161   5.184  13.469
67482SOL    HW2 4344   0.033   5.254  13.511
67483SOL     OW 4345   2.026   3.697   0.610
67483SOL    HW1 4346   1.937   3.728   0.624
67483SOL    HW2 4347   2.071   3.769   0.567
67484SOL     OW 4348   6.059   0.985   8.862
67484SOL    HW1 4349   6.068   1.070   8.906
67484SOL    HW2 4350   6.056   0.922   8.934
67485SOL     OW 4351   8.221   6.082   0.331
67485SOL    HW1 4352   8.252   6.088   0.241
67485SOL    HW2 4353   8.144   6.139   0.333
67486SOL     OW 4354   3.608   4.857  10.538
67486SOL    HW1 4355   3.656   4.869  10.619
67486SOL    HW2 4356   3.670   4.882  10.469
67487SOL     OW 4357   6.931   7.501   4.736
67487SOL    HW1 4358   6.971   7.533   4.655
67487SOL    HW2 4359   6.852   7.554   4.746
67488SOL     OW 4360   4.587   2.831   5.643
67488SOL    HW1 4361   4.576   2.746   5.685
67488SOL    HW2 4362   4.594   2.893   5.716
67489SOL     OW 4363   9.232  13.813   1.679
67489SOL    HW1 4364   9.193  13.764   1.607
67489SOL    HW2 4365   9.198  13.902   1.668
67490SOL     OW 4366   9.597   7.717  13.891
67490SOL    HW1 4367   9.589   7.770  13.971
67490SOL    HW2 4368   9.636   7.635  13.920
67491SOL     OW 4369  10.311   0.639   6.870
67491SOL    HW1 4370  10.286   0.722   6.911
67491SOL    HW2 4371  10.333   0.662   6.780
67492SOL     OW 4372   3.301  12.808  10.955
67492SOL    HW1 4373   3.307  12.886  10.900
67492SOL    HW2 4374   3.244  12.748  10.906
67493SOL     OW 4375  14.474   9.071   2.010
67493SOL    HW1 4376  14.563   9.101   2.026
67493SOL    HW2 4377  14.428   9.148   1.975
67494SOL     OW 4378   5.570   6.826  14.108
67494SOL    HW1 4379   5.510   6.870  14.049
67494SOL    HW2 4380   5.590   6.743  14.065
67495SOL     OW 4381   0.413  11.547  12.836
67495SOL    HW1 4382   0.328  11.591  12.827
67495SOL    HW2 4383   0.467  11.610  12.884
67496SOL     OW 4384  10.759   4.246  10.918
67496SOL    HW1 4385  10.737   4.326  10.966
67496SOL    HW2 4386  10.747   4.176  10.982
67497SOL     OW 4387   6.102  13.023   9.023
67497SOL    HW1 4388   6.036  13.077   8.980
67497SOL    HW2 4389   6.058  12.992   9.103
67498SOL     OW 4390   0.805   2.855   5.841
67498SOL    HW1 4391   0.828   2.806   5.763
67498SOL    HW2 4392   0.833   2.945   5.823
67499SOL     OW 4393   2.822   6.859   9.349
67499SOL    HW1 4394   2.786   6.828   9.266
67499SOL    HW2 4395   2.917   6.864   9.334
67500SOL     OW 4396   4.258  13.097  14.012
67500SOL    HW1 4397   4.286  13.022  13.960
67500SOL    HW2 4398   4.278  13.173  13.958
67501SOL     OW 4399   5.481   1.786   6.489
67501SOL    HW1 4400   5.471   1.858   6.552
67501SOL    HW2 4401   5.391   1.766   6.461
67502SOL     OW 4402  11.241   4.583  13.570
67502SOL    HW1 4403  11.272   4.673  13.570
67502SOL    HW2 4404  11.193   4.573  13.652
67503SOL     OW 4405  11.557   7.859   1.707
67503SOL    HW1 4406  11.531   7.788   1.766
67503SOL    HW2 4407  11.599   7.814   1.633
67504SOL     OW 4408  13.279   1.104  10.519
67504SOL    HW1 4409  13.243   1.156  10.591
67504SOL    HW2 4410  13.353   1.155  10.488
67505SOL     OW 4411   4.275   2.129  13.220
67505SOL    HW1 4412   4.244   2.074  13.293
67505SOL    HW2 4413   4.358   2.164  13.251
67506SOL     OW 4414   3.477   0.431   5.254
67506SOL    HW1 4415   3.456   0.457   5.164
67506SOL    HW2 4416   3.392   0.413   5.295
67507SOL     OW 4417  11.623   9.683   2.769
67507SOL    HW1 4418  11.551   9.731   2.728
67507SOL    HW2 4419  11.603   9.685   2.862
67508SOL     OW 4420   4.643  10.766   7.473
67508SOL    HW1 4421   4.583  10.693   7.489
67508SOL    HW2 4422   4.593  10.845   7.492
67509SOL     OW 4423  13.528  14.317   1.080
67509SOL    HW1 4424  13.602  14.363   1.119
67509SOL    HW2 4425  13.468  14.301   1.153
67510SOL     OW 4426   6.994  12.475   5.119
67510SOL    HW1 4427   7.082  12.438   5.118
67510SOL    HW2 4428   6.950  12.429   5.191
67511SOL     OW 4429   0.897  12.917   0.939
67511SOL    HW1 4430   0.969  12.857   0.957
67511SOL    HW2 4431   0.939  12.998   0.908
67512SOL     OW 4432   3.290   2.702   3.297
67512SOL    HW1 4433   3.270   2.638   3.229
67512SOL    HW2 4434   3.372   2.742   3.269
67513SOL     OW 4435   8.965   6.140  14.425
67513SOL    HW1 4436   8.987   6.078  14.494
67513SOL    HW2 4437   9.034   6.129  14.360
67514SOL     OW 4438   2.046  12.697   1.436
67514SOL    HW1 4439   2.130  12.709   1.479
67514SOL    HW2 4440   2.057  12.618   1.384
67515SOL     OW 4441   2.451   7.877   7.067
67515SOL    HW1 4442   2.433   7.888   7.160
67515SOL    HW2 4443   2.395   7.940   7.023
67516SOL     OW 4444   4.019  10.574   7.129
67516SOL    HW1 4445   4.006  10.566   7.224
67516SOL    HW2 4446   4.099  10.523   7.112
67517SOL     OW 4447   9.117   9.954   9.538
67517SOL    HW1 4448   9.147   9.865   9.521
67517SOL    HW2 4449   9.022   9.947   9.547
67518SOL     OW 4450   1.762   1.395  13.647
67518SOL    HW1 4451   1.771   1.479  13.602
67518SOL    HW2 4452   1.667   1.385  13.659
67519SOL     OW 4453   8.043  13.677   0.562
67519SOL    HW1 4454   8.107  13.717   0.621
67519SOL    HW2 4455   8.060  13.718   0.477
67520SOL     OW 4456   9.527   8.592   6.025
67520SOL    HW1 4457   9.568   8.523   6.077
67520SOL    HW2 4458   9.553   8.673   6.069
67521SOL     OW 4459   2.249  14.198  14.802
67521SOL    HW1 4460   2.183  14.192   0.002
67521SOL    HW2 4461   2.203  14.176  14.721
67522SOL     OW 4462  14.434  10.079  10.187
67522SOL    HW1 4463  14.456  10.084  10.280
67522SOL    HW2 4464  14.440   9.985  10.166
67523SOL     OW 4465  12.626  10.970   5.187
67523SOL    HW1 4466  12.668  10.889   5.213
67523SOL    HW2 4467  12.542  10.944   5.151
67524SOL     OW 4468  12.953  14.179  10.103
67524SOL    HW1 4469  13.018  14.222  10.048
67524SOL    HW2 4470  12.872  14.228  10.088
67525SOL     OW 4471  12.573   4.029   1.217
67525SOL    HW1 4472  12.599   4.120   1.233
67525SOL    HW2 4473  12.515   4.007   1.289
67526SOL     OW 4474   0.274  11.402  14.799
67526SOL    HW1 4475   0.291  11.326  14.744
67526SOL    HW2 4476   0.330  11.471  14.763
67527SOL     OW 4477  10.306  13.566   0.207
67527SOL    HW1 4478  10.302  13.633   0.139
67527SOL    HW2 4479  10.222  13.521   0.202
67528SOL     OW 4480  12.453  14.584   6.000
67528SOL    HW1 4481  12.491  14.538   6.075
67528SOL    HW2 4482  12.360  14.588   6.020
67529SOL     OW 4483   8.006   3.797   6.239
67529SOL    HW1 4484   8.015   3.715   6.288
67529SOL    HW2 4485   8.067   3.788   6.166
67530SOL     OW 4486   7.356   5.495  11.039
67530SOL    HW1 4487   7.346   5.483  11.133
67530SOL    HW2 4488   7.428   5.438  11.015
67531SOL     OW 4489   9.379   5.308   3.210
67531SOL    HW1 4490   9.288   5.289   3.188
67531SOL    HW2 4491   9.412   5.357   3.135
67532SOL     OW 4492  12.691   0.039   0.771
67532SOL    HW1 4493  12.744  14.848   0.717
67532SOL    HW2 4494  12.700   0.125   0.729
67533SOL     OW 4495   1.920   6.923   9.275
67533SOL    HW1 4496   1.945   6.844   9.323
67533SOL    HW2 4497   1.829   6.909   9.251
67534SOL     OW 4498   1.439   6.392   7.326
67534SOL    HW1 4499   1.387   6.412   7.248
67534SOL    HW2 4500   1.375   6.379   7.395
67535SOL     OW 4501  10.671   9.465   5.339
67535SOL    HW1 4502  10.658   9.490   5.431
67535SOL    HW2 4503  10.662   9.547   5.290
67536SOL     OW 4504  10.368   9.961   6.846
67536SOL    HW1 4505  10.345  10.039   6.896
67536SOL    HW2 4506  10.440   9.990   6.789
67537SOL     OW 4507   2.002   3.295   6.018
67537SOL    HW1 4508   2.049   3.305   6.101
67537SOL    HW2 4509   1.911   3.314   6.041
67538SOL     OW 4510   0.982   4.180  13.312
67538SOL    HW1 4511   0.995   4.201  13.219
67538SOL    HW2 4512   1.038   4.105  13.328
67539SOL     OW 4513   6.223   4.965   5.827
67539SOL    HW1 4514   6.149   4.924   5.782
67539SOL    HW2 4515   6.246   4.903   5.896
67540SOL     OW 4516   4.488  12.020   8.901
67540SOL    HW1 4517   4.526  11.933   8.887
67540SOL    HW2 4518   4.465  12.020   8.994
67541SOL     OW 4519   1.716   3.513   0.496
67541SOL    HW1 4520   1.671   3.447   0.550
67541SOL    HW2 4521   1.807   3.483   0.492
67542SOL     OW 4522   2.975  14.709   8.722
67542SOL    HW1 4523   2.994  14.758   8.642
67542SOL    HW2 4524   2.891  14.665   8.705
67543SOL     OW 4525   7.270   9.096   0.438
67543SOL    HW1 4526   7.281   9.116   0.531
67543SOL    HW2 4527   7.349   9.048   0.415
67544SOL     OW 4528   3.330  12.844   2.538
67544SOL    HW1 4529   3.287  12.821   2.621
67544SOL    HW2 4530   3.275  12.803   2.471
67545SOL     OW 4531   7.800   4.175  11.796
67545SOL    HW1 4532   7.836   4.182  11.884
67545SOL    HW2 4533   7.714   4.217  11.800
67546SOL     OW 4534   8.166  10.830  10.790
67546SOL    HW1 4535   8.236  10.772  10.821
67546SOL    HW2 4536   8.116  10.850  10.868
67547SOL     OW 4537  12.817   0.495   3.050
67547SOL    HW1 4538  12.845   0.473   3.139
67547SOL    HW2 4539  12.898   0.521   3.005
67548SOL     OW 4540   8.475   4.779   8.287
67548SOL    HW1 4541   8.424   4.849   8.247
67548SOL    HW2 4542   8.566   4.808   8.279
67549SOL     OW 4543  13.990   4.283   8.023
67549SOL    HW1 4544  13.990   4.349   7.953
67549SOL    HW2 4545  14.058   4.311   8.083
67550SOL     OW 4546  13.168   2.004   0.990
67550SOL    HW1 4547  13.095   2.040   1.041
67550SOL    HW2 4548  13.239   1.994   1.054
67551SOL     OW 4549   7.155  10.991   7.826
67551SOL    HW1 4550   7.122  10.953   7.908
67551SOL    HW2 4551   7.241  11.027   7.850
67552SOL     OW 4552   8.876  13.313  11.230
67552SOL    HW1 4553   8.827  13.370  11.290
67552SOL    HW2 4554   8.952  13.365  11.205
67553SOL     OW 4555   9.383  12.843  14.173
67553SOL    HW1 4556   9.418  12.763  14.134
67553SOL    HW2 4557   9.397  12.910  14.106
67554SOL     OW 4558   1.100  14.433   1.297
67554SOL    HW1 4559   1.073  14.454   1.208
67554SOL    HW2 4560   1.021  14.447   1.350
67555SOL     OW 4561  14.663   0.954   7.333
67555SOL    HW1 4562  14.720   0.933   7.259
67555SOL    HW2 4563  14.706   0.914   7.408
67556SOL     OW 4564  13.036   9.130   6.729
67556SOL    HW1 4565  12.979   9.065   6.770
67556SOL    HW2 4566  13.045   9.199   6.795
67557SOL     OW 4567  13.164  14.710   8.715
67557SOL    HW1 4568  13.135  14.729   8.626
67557SOL    HW2 4569  13.260  14.711   8.709
67558SOL     OW 4570   7.684   8.058   8.116
67558SOL    HW1 4571   7.745   8.060   8.190
67558SOL    HW2 4572   7.738   8.077   8.039
67559SOL     OW 4573   8.864   6.663   7.619
67559SOL    HW1 4574   8.924   6.663   7.545
67559SOL    HW2 4575   8.921   6.648   7.695
67560SOL     OW 4576  10.260   5.399   7.916
67560SOL    HW1 4577  10.250   5.303   7.914
67560SOL    HW2 4578  10.307   5.420   7.835
67561SOL     OW 4579   5.507   6.544  12.924
67561SOL    HW1 4580   5.425   6.568  12.881
67561SOL    HW2 4581   5.544   6.627  12.953
67562SOL     OW 4582   9.067   0.489  14.697
67562SOL    HW1 4583   9.113   0.570  14.717
67562SOL    HW2 4584   9.094   0.468  14.607
67563SOL     OW 4585  11.816   6.097   8.582
67563SOL    HW1 4586  11.890   6.090   8.521
67563SOL    HW2 4587  11.845   6.049   8.660
67564SOL     OW 4588   2.222   5.334   7.998
67564SOL    HW1 4589   2.156   5.270   7.972
67564SOL    HW2 4590   2.173   5.412   8.021
67565SOL     OW 4591  11.998   4.164   9.754
67565SOL    HW1 4592  12.037   4.216   9.824
67565SOL    HW2 4593  11.991   4.075   9.790
67566SOL     OW 4594   7.000  13.002  10.988
67566SOL    HW1 4595   7.030  13.065  11.053
67566SOL    HW2 4596   6.905  13.011  10.989
67567SOL     OW 4597  14.536  14.612  13.557
67567SOL    HW1 4598  14.531  14.567  13.472
67567SOL    HW2 4599  14.630  14.622  13.572
67568SOL     OW 4600   6.678   9.022  14.843
67568SOL    HW1 4601   6.744   9.043   0.041
67568SOL    HW2 4602   6.645   9.107  14.813
67569SOL     OW 4603   1.498   1.363  10.846
67569SOL    HW1 4604   1.577   1.402  10.808
67569SOL    HW2 4605   1.477   1.418  10.921
67570SOL     OW 4606  13.787   7.309   7.987
67570SOL    HW1 4607  13.695   7.290   8.010
67570SOL    HW2 4608  13.781   7.371   7.915
67571SOL     OW 4609  12.829   1.045   0.003
67571SOL    HW1 4610  12.799   1.005  14.789
67571SOL    HW2 4611  12.887   0.980   0.041
67572SOL     OW 4612  14.390   2.792   9.314
67572SOL    HW1 4613  14.463   2.760   9.260
67572SOL    HW2 4614  14.325   2.821   9.250
67573SOL     OW 4615   3.791   3.649  12.600
67573SOL    HW1 4616   3.726   3.663  12.670
67573SOL    HW2 4617   3.754   3.692  12.524
67574SOL     OW 4618   1.378   7.157  14.237
67574SOL    HW1 4619   1.329   7.111  14.305
67574SOL    HW2 4620   1.344   7.246  14.238
67575SOL     OW 4621   7.266  12.079   2.474
67575SOL    HW1 4622   7.212  12.058   2.397
67575SOL    HW2 4623   7.332  12.010   2.475
67576SOL     OW 4624   6.970   4.973   7.050
67576SOL    HW1 4625   6.936   5.045   6.996
67576SOL    HW2 4626   7.041   5.013   7.101
67577SOL     OW 4627   8.784   4.313  10.117
67577SOL    HW1 4628   8.793   4.390  10.060
67577SOL    HW2 4629   8.695   4.283  10.103
67578SOL     OW 4630   9.593   0.060   3.408
67578SOL    HW1 4631   9.611  14.866   3.478
67578SOL    HW2 4632   9.556   0.137   3.452
67579SOL     OW 4633   4.431  11.130   9.083
67579SOL    HW1 4634   4.350  11.134   9.031
67579SOL    HW2 4635   4.500  11.118   9.017
67580SOL     OW 4636   3.410  13.605  11.695
67580SOL    HW1 4637   3.365  13.679  11.653
67580SOL    HW2 4638   3.354  13.583  11.770
67581SOL     OW 4639   6.108   2.510   3.844
67581SOL    HW1 4640   6.138   2.491   3.754
67581SOL    HW2 4641   6.031   2.565   3.833
67582SOL     OW 4642  13.716   6.883   3.584
67582SOL    HW1 4643  13.725   6.802   3.635
67582SOL    HW2 4644  13.645   6.930   3.628
67583SOL     OW 4645   0.869   3.886   9.301
67583SOL    HW1 4646   0.913   3.859   9.220
67583SOL    HW2 4647   0.837   3.805   9.339
67584SOL     OW 4648   1.724   9.004  14.665
67584SOL    HW1 4649   1.804   8.983  14.618
67584SOL    HW2 4650   1.677   9.065  14.608
67585SOL     OW 4651   3.232  13.810   0.588
67585SOL    HW1 4652   3.295  13.746   0.556
67585SOL    HW2 4653   3.278  13.894   0.580
67586SOL     OW 4654   6.322   1.394   2.881
67586SOL    HW1 4655   6.281   1.326   2.829
67586SOL    HW2 4656   6.365   1.451   2.817
67587SOL     OW 4657   6.648  10.523   9.675
67587SOL    HW1 4658   6.577  10.473   9.635
67587SOL    HW2 4659   6.631  10.614   9.650
67588SOL     OW 4660   7.463   6.328   2.009
67588SOL    HW1 4661   7.506   6.404   1.969
67588SOL    HW2 4662   7.372   6.354   2.017
67589SOL     OW 4663  10.314   4.504   3.011
67589SOL    HW1 4664  10.269   4.427   3.046
67589SOL    HW2 4665  10.406   4.478   3.006
67590SOL     OW 4666   6.801   4.628   8.692
67590SOL    HW1 4667   6.789   4.681   8.771
67590SOL    HW2 4668   6.782   4.688   8.620
67591SOL     OW 4669   9.128  14.220   3.758
67591SOL    HW1 4670   9.131  14.141   3.705
67591SOL    HW2 4671   9.195  14.277   3.721
67592SOL     OW 4672   0.358   5.573   2.216
67592SOL    HW1 4673   0.291   5.552   2.150
67592SOL    HW2 4674   0.330   5.527   2.294
67593SOL     OW 4675   9.672   7.384   2.711
67593SOL    HW1 4676   9.660   7.425   2.797
67593SOL    HW2 4677   9.754   7.337   2.718
67594SOL     OW 4678   7.876   2.126   7.491
67594SOL    HW1 4679   7.900   2.152   7.402
67594SOL    HW2 4680   7.916   2.039   7.502
67595SOL     OW 4681   6.040  12.309  14.112
67595SOL    HW1 4682   6.004  12.248  14.047
67595SOL    HW2 4683   5.963  12.350  14.151
67596SOL     OW 4684   1.647  10.322   1.871
67596SOL    HW1 4685   1.615  10.233   1.854
67596SOL    HW2 4686   1.570  10.378   1.863
67597SOL     OW 4687   3.141   9.957   4.892
67597SOL    HW1 4688   3.145  10.037   4.839
67597SOL    HW2 4689   3.216   9.905   4.863
67598SOL     OW 4690   5.934   8.303  10.170
67598SOL    HW1 4691   6.013   8.253  10.148
67598SOL    HW2 4692   5.964   8.371  10.230
67599SOL     OW 4693  13.549  12.850  11.399
67599SOL    HW1 4694  13.548  12.849  11.495
67599SOL    HW2 4695  13.639  12.825  11.376
67600SOL     OW 4696   0.845  11.191   0.832
67600SOL    HW1 4697   0.861  11.270   0.779
67600SOL    HW2 4698   0.899  11.124   0.790
67601SOL     OW 4699  14.760   2.978   2.802
67601SOL    HW1 4700  14.825   2.943   2.741
67601SOL    HW2 4701  14.790   2.950   2.889
67602SOL     OW 4702  13.017   9.766  14.624
67602SOL    HW1 4703  13.008   9.746  14.717
67602SOL    HW2 4704  13.071   9.845  14.622
67603SOL     OW 4705   9.990   9.690   8.699
67603SOL    HW1 4706   9.922   9.626   8.719
67603SOL    HW2 4707   9.986   9.753   8.770
67604SOL     OW 4708   2.352  11.213   7.316
67604SOL    HW1 4709   2.437  11.244   7.285
67604SOL    HW2 4710   2.374  11.143   7.378
67605SOL     OW 4711   8.223  11.850  14.232
67605SOL    HW1 4712   8.168  11.896  14.169
67605SOL    HW2 4713   8.283  11.798  14.179
67606SOL     OW 4714   4.893  14.265  13.975
67606SOL    HW1 4715   4.870  14.177  13.947
67606SOL    HW2 4716   4.910  14.313  13.894
67607SOL     OW 4717  13.064   6.673  10.702
67607SOL    HW1 4718  13.069   6.597  10.761
67607SOL    HW2 4719  13.124   6.737  10.740
67608SOL     OW 4720   5.461   2.322   9.051
67608SOL    HW1 4721   5.369   2.303   9.031
67608SOL    HW2 4722   5.458   2.395   9.111
67609SOL     OW 4723   0.320  13.798   4.383
67609SOL    HW1 4724   0.295  13.738   4.454
67609SOL    HW2 4725   0.358  13.873   4.427
67610SOL     OW 4726  12.328   5.629   7.027
67610SOL    HW1 4727  12.385   5.706   7.028
67610SOL    HW2 4728  12.351   5.582   7.107
67611SOL     OW 4729   4.928   8.143   8.912
67611SOL    HW1 4730   4.943   8.144   8.817
67611SOL    HW2 4731   4.942   8.234   8.939
67612SOL     OW 4732   9.188   3.669   9.235
67612SOL    HW1 4733   9.257   3.734   9.248
67612SOL    HW2 4734   9.107   3.714   9.260
67613SOL     OW 4735   1.919   0.100  14.604
67613SOL    HW1 4736   1.939   0.194  14.601
67613SOL    HW2 4737   1.826   0.095  14.622
67614SOL     OW 4738   7.518   3.654   0.173
67614SOL    HW1 4739   7.468   3.655   0.254
67614SOL    HW2 4740   7.455   3.626   0.106
67615SOL     OW 4741   3.949   1.920   3.712
67615SOL    HW1 4742   3.967   1.832   3.746
67615SOL    HW2 4743   3.916   1.968   3.788
67616SOL     OW 4744  12.229   0.017  12.256
67616SOL    HW1 4745  12.285  14.828  12.204
67616SOL    HW2 4746  12.194  14.829  12.325
67617SOL     OW 4747   3.069   9.155  14.101
67617SOL    HW1 4748   3.013   9.232  14.094
67617SOL    HW2 4749   3.136   9.167  14.033
67618SOL     OW 4750   3.227  14.189   3.760
67618SOL    HW1 4751   3.274  14.267   3.791
67618SOL    HW2 4752   3.228  14.129   3.834
67619SOL     OW 4753   2.457  10.997   8.589
67619SOL    HW1 4754   2.479  10.990   8.682
67619SOL    HW2 4755   2.377  11.048   8.588
67620SOL     OW 4756   4.546   6.511  14.754
67620SOL    HW1 4757   4.471   6.483  14.806
67620SOL    HW2 4758   4.609   6.440  14.761
67621SOL     OW 4759   2.237   0.802  14.741
67621SOL    HW1 4760   2.313   0.814  14.799
67621SOL    HW2 4761   2.162   0.797  14.800
67622SOL     OW 4762   7.290   0.301   1.361
67622SOL    HW1 4763   7.299   0.393   1.335
67622SOL    HW2 4764   7.238   0.305   1.442
67623SOL     OW 4765   8.661   7.067   4.580
67623SOL    HW1 4766   8.690   7.111   4.501
67623SOL    HW2 4767   8.739   7.023   4.613
67624SOL     OW 4768   0.635   7.371  13.279
67624SOL    HW1 4769   0.549   7.394  13.315
67624SOL    HW2 4770   0.694   7.438  13.312
67625SOL     OW 4771   6.702   1.629   5.199
67625SOL    HW1 4772   6.771   1.695   5.189
67625SOL    HW2 4773   6.623   1.673   5.166
67626SOL     OW 4774   3.914   0.924   3.544
67626SOL    HW1 4775   3.846   0.884   3.599
67626SOL    HW2 4776   3.994   0.874   3.564
67627SOL     OW 4777   7.916   8.017  10.230
67627SOL    HW1 4778   7.959   7.987  10.150
67627SOL    HW2 4779   7.922   8.113  10.226
67628SOL     OW 4780   9.468  14.125   5.286
67628SOL    HW1 4781   9.512  14.064   5.227
67628SOL    HW2 4782   9.508  14.109   5.371
67629SOL     OW 4783   4.134   0.120  13.890
67629SOL    HW1 4784   4.207   0.059  13.890
67629SOL    HW2 4785   4.062   0.072  13.931
67630SOL     OW 4786   5.391   9.087   6.495
67630SOL    HW1 4787   5.385   9.182   6.495
67630SOL    HW2 4788   5.373   9.061   6.585
67631SOL     OW 4789   2.416  10.938   4.231
67631SOL    HW1 4790   2.451  10.850   4.215
67631SOL    HW2 4791   2.434  10.954   4.323
67632SOL     OW 4792   1.945   2.343   7.635
67632SOL    HW1 4793   1.853   2.358   7.659
67632SOL    HW2 4794   1.989   2.424   7.657
67633SOL     OW 4795   9.069   5.486   4.101
67633SOL    HW1 4796   9.033   5.446   4.181
67633SOL    HW2 4797   9.067   5.580   4.119
67634SOL     OW 4798   2.457   8.548   4.910
67634SOL    HW1 4799   2.530   8.491   4.886
67634SOL    HW2 4800   2.490   8.601   4.982
67635SOL     OW 4801   2.593   8.264   5.961
67635SOL    HW1 4802   2.498   8.264   5.977
67635SOL    HW2 4803   2.602   8.222   5.875
67636SOL     OW 4804   5.711   2.170  14.280
67636SOL    HW1 4805   5.742   2.142  14.366
67636SOL    HW2 4806   5.709   2.090  14.228
67637SOL     OW 4807   5.744   9.309   7.331
67637SOL    HW1 4808   5.825   9.258   7.337
67637SOL    HW2 4809   5.696   9.288   7.411
67638SOL     OW 4810   6.280   3.611   1.583
67638SOL    HW1 4811   6.195   3.574   1.604
67638SOL    HW2 4812   6.291   3.595   1.489
67639SOL     OW 4813   9.936  11.069   9.567
67639SOL    HW1 4814   9.889  11.031   9.641
67639SOL    HW2 4815   9.966  10.993   9.517
67640SOL     OW 4816  10.046   6.690  12.788
67640SOL    HW1 4817   9.978   6.686  12.856
67640SOL    HW2 4818   9.998   6.695  12.706
67641SOL     OW 4819   4.834   8.869   9.032
67641SOL    HW1 4820   4.863   8.941   9.088
67641SOL    HW2 4821   4.777   8.910   8.967
67642SOL     OW 4822  12.432   0.367   3.403
67642SOL    HW1 4823  12.357   0.427   3.404
67642SOL    HW2 4824  12.476   0.384   3.319
67643SOL     OW 4825   3.725   3.249   9.662
67643SOL    HW1 4826   3.690   3.207   9.740
67643SOL    HW2 4827   3.820   3.234   9.667
67644SOL     OW 4828   5.115   8.552   7.940
67644SOL    HW1 4829   5.065   8.560   7.858
67644SOL    HW2 4830   5.076   8.477   7.984
67645SOL     OW 4831  12.650   2.962   4.731
67645SOL    HW1 4832  12.604   3.036   4.769
67645SOL    HW2 4833  12.582   2.897   4.713
67646SOL     OW 4834  13.007   1.714  12.542
67646SOL    HW1 4835  12.935   1.665  12.502
67646SOL    HW2 4836  13.073   1.719  12.472
67647SOL     OW 4837   7.020   8.498   6.068
67647SOL    HW1 4838   7.039   8.436   5.998
67647SOL    HW2 4839   6.942   8.464   6.111
67648SOL     OW 4840  11.479   4.664   1.461
67648SOL    HW1 4841  11.546   4.732   1.461
67648SOL    HW2 4842  11.421   4.688   1.533
67649SOL     OW 4843   8.988   9.645  11.369
67649SOL    HW1 4844   8.984   9.568  11.313
67649SOL    HW2 4845   9.082   9.660  11.383
67650SOL     OW 4846  10.393   8.221   1.286
67650SOL    HW1 4847  10.369   8.178   1.368
67650SOL    HW2 4848  10.368   8.158   1.218
67651SOL     OW 4849  12.454  13.501   7.009
67651SOL    HW1 4850  12.433  13.452   6.929
67651SOL    HW2 4851  12.550  13.501   7.013
67652SOL     OW 4852  13.268   3.307  12.275
67652SOL    HW1 4853  13.212   3.373  12.234
67652SOL    HW2 4854  13.302   3.350  12.354
67653SOL     OW 4855   1.758   6.214   2.031
67653SOL    HW1 4856   1.668   6.225   2.001
67653SOL    HW2 4857   1.803   6.293   2.000
67654SOL     OW 4858  13.477   5.025  10.072
67654SOL    HW1 4859  13.503   4.981  10.154
67654SOL    HW2 4860  13.475   4.954  10.007
67655SOL     OW 4861   4.758   4.713   6.682
67655SOL    HW1 4862   4.717   4.643   6.732
67655SOL    HW2 4863   4.787   4.776   6.748
67656SOL     OW 4864   4.771   3.801  12.456
67656SOL    HW1 4865   4.823   3.722  12.463
67656SOL    HW2 4866   4.834   3.871  12.439
67657SOL     OW 4867   4.339   1.308   6.655
67657SOL    HW1 4868   4.361   1.243   6.722
67657SOL    HW2 4869   4.329   1.257   6.575
67658SOL     OW 4870   6.598   6.871   7.771
67658SOL    HW1 4871   6.628   6.960   7.786
67658SOL    HW2 4872   6.537   6.878   7.697
67659SOL     OW 4873   2.881   5.806   0.912
67659SOL    HW1 4874   2.827   5.758   0.975
67659SOL    HW2 4875   2.818   5.843   0.850
67660SOL     OW 4876  13.534   4.777   4.328
67660SOL    HW1 4877  13.590   4.853   4.347
67660SOL    HW2 4878  13.590   4.701   4.346
67661SOL     OW 4879  14.122   9.196   6.544
67661SOL    HW1 4880  14.212   9.230   6.545
67661SOL    HW2 4881  14.067   9.274   6.550
67662SOL     OW 4882   8.481   5.863   5.570
67662SOL    HW1 4883   8.560   5.814   5.593
67662SOL    HW2 4884   8.503   5.954   5.592
67663SOL     OW 4885   3.967   9.246   9.318
67663SOL    HW1 4886   3.872   9.247   9.303
67663SOL    HW2 4887   3.980   9.179   9.385
67664SOL     OW 4888   8.110  12.169  13.054
67664SOL    HW1 4889   8.019  12.153  13.030
67664SOL    HW2 4890   8.150  12.082  13.057
67665SOL     OW 4891   9.120   3.241   4.581
67665SOL    HW1 4892   9.152   3.158   4.616
67665SOL    HW2 4893   9.118   3.227   4.486
67666SOL     OW 4894   2.961   9.180   8.532
67666SOL    HW1 4895   2.902   9.236   8.481
67666SOL    HW2 4896   2.963   9.220   8.618
67667SOL     OW 4897   5.372   7.439   9.926
67667SOL    HW1 4898   5.443   7.375   9.926
67667SOL    HW2 4899   5.293   7.388   9.908
67668SOL     OW 4900  10.209   7.126   7.022
67668SOL    HW1 4901  10.299   7.093   7.032
67668SOL    HW2 4902  10.204   7.154   6.931
67669SOL     OW 4903   6.756  11.056   1.899
67669SOL    HW1 4904   6.761  11.019   1.987
67669SOL    HW2 4905   6.847  11.058   1.868
67670SOL     OW 4906  12.389  11.227   9.858
67670SOL    HW1 4907  12.369  11.200   9.769
67670SOL    HW2 4908  12.305  11.218   9.905
67671SOL     OW 4909  13.079   1.391  13.042
67671SOL    HW1 4910  12.996   1.427  13.014
67671SOL    HW2 4911  13.116   1.457  13.101
67672SOL     OW 4912  14.300  14.388  10.912
67672SOL    HW1 4913  14.393  14.400  10.898
67672SOL    HW2 4914  14.260  14.412  10.828
67673SOL     OW 4915  13.433   9.156  10.825
67673SOL    HW1 4916  13.344   9.122  10.815
67673SOL    HW2 4917  13.430   9.243  10.784
67674SOL     OW 4918   3.316  11.752   5.847
67674SOL    HW1 4919   3.396  11.792   5.881
67674SOL    HW2 4920   3.306  11.790   5.760
67675SOL     OW 4921   2.286   0.763   7.549
67675SOL    HW1 4922   2.279   0.772   7.644
67675SOL    HW2 4923   2.301   0.670   7.534
67676SOL     OW 4924   7.958  14.428   4.191
67676SOL    HW1 4925   7.894  14.405   4.124
67676SOL    HW2 4926   7.963  14.351   4.247
67677SOL     OW 4927   1.232   1.542   8.734
67677SOL    HW1 4928   1.304   1.576   8.681
67677SOL    HW2 4929   1.199   1.467   8.684
67678SOL     OW 4930   2.988   7.843  11.795
67678SOL    HW1 4931   3.082   7.857  11.804
67678SOL    HW2 4932   2.970   7.764  11.846
67679SOL     OW 4933   3.101   9.851  12.572
67679SOL    HW1 4934   3.052   9.911  12.628
67679SOL    HW2 4935   3.115   9.774  12.627
67680SOL     OW 4936   0.406  10.665  12.269
67680SOL    HW1 4937   0.365  10.732  12.214
67680SOL    HW2 4938   0.354  10.666  12.350
67681SOL     OW 4939   3.599   0.466  10.786
67681SOL    HW1 4940   3.566   0.496  10.701
67681SOL    HW2 4941   3.566   0.530  10.849
67682SOL     OW 4942  12.103  14.461  12.862
67682SOL    HW1 4943  12.111  14.442  12.769
67682SOL    HW2 4944  12.193  14.472  12.893
67683SOL     OW 4945  11.558   5.188   0.531
67683SOL    HW1 4946  11.472   5.216   0.562
67683SOL    HW2 4947  11.619   5.216   0.599
67684SOL     OW 4948   3.600   6.486   3.421
67684SOL    HW1 4949   3.609   6.516   3.511
67684SOL    HW2 4950   3.577   6.565   3.372
67685SOL     OW 4951   3.504   5.406  13.857
67685SOL    HW1 4952   3.483   5.483  13.911
67685SOL    HW2 4953   3.577   5.435  13.803
67686SOL     OW 4954  14.017   5.806   6.665
67686SOL    HW1 4955  13.942   5.749   6.648
67686SOL    HW2 4956  14.019   5.867   6.591
67687SOL     OW 4957   4.408  11.479   5.558
67687SOL    HW1 4958   4.420  11.509   5.468
67687SOL    HW2 4959   4.490  11.436   5.581
67688SOL     OW 4960   5.686   3.810   8.558
67688SOL    HW1 4961   5.602   3.841   8.523
67688SOL    HW2 4962   5.712   3.878   8.620
67689SOL     OW 4963   3.776  11.914   6.442
67689SOL    HW1 4964   3.733  11.830   6.461
67689SOL    HW2 4965   3.860  11.890   6.402
67690SOL     OW 4966   4.379   4.321   8.362
67690SOL    HW1 4967   4.309   4.259   8.385
67690SOL    HW2 4968   4.335   4.406   8.362
67691SOL     OW 4969  11.462   1.070  14.004
67691SOL    HW1 4970  11.501   1.157  14.013
67691SOL    HW2 4971  11.371   1.088  13.980
67692SOL     OW 4972   9.136   7.386   0.872
67692SOL    HW1 4973   9.074   7.456   0.853
67692SOL    HW2 4974   9.143   7.387   0.968
67693SOL     OW 4975  13.240  13.441   5.894
67693SOL    HW1 4976  13.321  13.417   5.849
67693SOL    HW2 4977  13.225  13.372   5.958
67694SOL     OW 4978   8.442  14.234  11.334
67694SOL    HW1 4979   8.498  14.310  11.349
67694SOL    HW2 4980   8.477  14.167  11.393
67695SOL     OW 4981   8.533   8.041   3.652
67695SOL    HW1 4982   8.576   8.125   3.633
67695SOL    HW2 4983   8.491   8.054   3.736
67696SOL     OW 4984   0.258   7.163   5.014
67696SOL    HW1 4985   0.302   7.078   5.008
67696SOL    HW2 4986   0.326   7.224   5.041
67697SOL     OW 4987   4.140   8.823   1.562
67697SOL    HW1 4988   4.120   8.910   1.598
67697SOL    HW2 4989   4.236   8.817   1.569
67698SOL     OW 4990   0.624   7.422  12.934
67698SOL    HW1 4991   0.613   7.355  13.001
67698SOL    HW2 4992   0.717   7.419  12.912
67699SOL     OW 4993  10.264   7.156   6.730
67699SOL    HW1 4994  10.292   7.144   6.639
67699SOL    HW2 4995  10.343   7.182   6.777
67700SOL     OW 4996  14.035   1.318   7.676
67700SOL    HW1 4997  14.095   1.311   7.601
67700SOL    HW2 4998  14.069   1.256   7.740
67701SOL     OW 4999   4.333  12.765   2.038
67701SOL    HW1 5000   4.245  12.803   2.033
67701SOL    HW2 5001   4.346  12.723   1.953
67702SOL     OW 5002   7.108   3.472   7.434
67702SOL    HW1 5003   7.139   3.561   7.416
67702SOL    HW2 5004   7.182   3.416   7.411
67703SOL     OW 5005   2.414   8.899  11.467
67703SOL    HW1 5006   2.336   8.876  11.518
67703SOL    HW2 5007   2.409   8.844  11.389
67704SOL     OW 5008   9.465  10.998   6.447
67704SOL    HW1 5009   9.441  11.091   6.440
67704SOL    HW2 5010   9.463  10.966   6.357
67705SOL     OW 5011   4.978  10.101  10.771
67705SOL    HW1 5012   4.939  10.055  10.846
67705SOL    HW2 5013   4.906  10.115  10.710
67706SOL     OW 5014   1.042   2.253   2.919
67706SOL    HW1 5015   1.073   2.166   2.894
67706SOL    HW2 5016   1.100   2.280   2.990
67707SOL     OW 5017   5.161  10.296   8.844
67707SOL    HW1 5018   5.098  10.225   8.856
67707SOL    HW2 5019   5.108  10.373   8.826
67708SOL     OW 5020  13.905   1.872   8.991
67708SOL    HW1 5021  13.892   1.966   8.977
67708SOL    HW2 5022  13.901   1.834   8.903
67709SOL     OW 5023   5.729   6.149   2.282
67709SOL    HW1 5024   5.706   6.232   2.325
67709SOL    HW2 5025   5.812   6.167   2.239
67710SOL     OW 5026   7.990   9.255  12.513
67710SOL    HW1 5027   7.900   9.222  12.509
67710SOL    HW2 5028   8.004   9.274  12.606
67711SOL     OW 5029   3.354   6.934   3.564
67711SOL    HW1 5030   3.294   6.863   3.542
67711SOL    HW2 5031   3.425   6.891   3.611
67712SOL     OW 5032   0.937   4.581   7.076
67712SOL    HW1 5033   0.964   4.515   7.012
67712SOL    HW2 5034   0.862   4.541   7.121
67713SOL     OW 5035  11.384   9.939   9.553
67713SOL    HW1 5036  11.305   9.897   9.518
67713SOL    HW2 5037  11.447   9.868   9.562
67714SOL     OW 5038   6.907  14.720  13.229
67714SOL    HW1 5039   6.847  14.665  13.178
67714SOL    HW2 5040   6.993  14.704  13.190
67715SOL     OW 5041  13.664   0.386  14.597
67715SOL    HW1 5042  13.621   0.391  14.683
67715SOL    HW2 5043  13.592   0.379  14.535
67716SOL     OW 5044   2.966  14.253   2.781
67716SOL    HW1 5045   3.027  14.200   2.729
67716SOL    HW2 5046   2.946  14.199   2.857
67717SOL     OW 5047   1.449  10.044   5.202
67717SOL    HW1 5048   1.395  10.049   5.124
67717SOL    HW2 5049   1.535  10.015   5.170
67718SOL     OW 5050   3.679  14.083  14.740
67718SOL    HW1 5051   3.767  14.110  14.768
67718SOL    HW2 5052   3.649  14.153  14.683
67719SOL     OW 5053  13.298  11.457   2.211
67719SOL    HW1 5054  13.284  11.522   2.280
67719SOL    HW2 5055  13.232  11.478   2.144
67720SOL     OW 5056   0.263   4.885  14.675
67720SOL    HW1 5057   0.307   4.952  14.728
67720SOL    HW2 5058   0.304   4.803  14.702
67721SOL     OW 5059   9.933  14.830   3.200
67721SOL    HW1 5060   9.949   0.043   3.153
67721SOL    HW2 5061  10.020  14.797   3.224
67722SOL     OW 5062   7.289   7.006   2.272
67722SOL    HW1 5063   7.369   7.007   2.325
67722SOL    HW2 5064   7.321   7.006   2.182
67723SOL     OW 5065   5.996   6.564   4.582
67723SOL    HW1 5066   6.057   6.636   4.564
67723SOL    HW2 5067   5.931   6.602   4.641
67724SOL     OW 5068  10.591  13.798   7.110
67724SOL    HW1 5069  10.585  13.821   7.018
67724SOL    HW2 5070  10.525  13.853   7.153
67725SOL     OW 5071   4.579   7.041   2.234
67725SOL    HW1 5072   4.578   7.136   2.239
67725SOL    HW2 5073   4.548   7.021   2.145
67726SOL     OW 5074   8.835   0.024  11.773
67726SOL    HW1 5075   8.883   0.082  11.714
67726SOL    HW2 5076   8.894  14.817  11.786
67727SOL     OW 5077  12.703   2.500   5.651
67727SOL    HW1 5078  12.610   2.479   5.644
67727SOL    HW2 5079  12.707   2.595   5.656
67728SOL     OW 5080   0.652  12.128   7.774
67728SOL    HW1 5081   0.570  12.094   7.740
67728SOL    HW2 5082   0.638  12.135   7.869
67729SOL     OW 5083   8.463  14.692  14.156
67729SOL    HW1 5084   8.421  14.624  14.104
67729SOL    HW2 5085   8.448  14.666  14.247
67730SOL     OW 5086   8.593   4.014   5.042
67730SOL    HW1 5087   8.500   4.026   5.024
67730SOL    HW2 5088   8.628   3.975   4.961
67731SOL     OW 5089   9.971   6.128  11.138
67731SOL    HW1 5090  10.011   6.214  11.126
67731SOL    HW2 5091   9.881   6.138  11.107
67732SOL     OW 5092  10.804  14.515   9.746
67732SOL    HW1 5093  10.774  14.593   9.793
67732SOL    HW2 5094  10.874  14.480   9.800
67733SOL     OW 5095  13.370   0.531   4.259
67733SOL    HW1 5096  13.316   0.580   4.321
67733SOL    HW2 5097  13.315   0.523   4.181
67734SOL     OW 5098   9.562  10.187  10.846
67734SOL    HW1 5099   9.546  10.097  10.871
67734SOL    HW2 5100   9.652  10.204  10.875
67735SOL     OW 5101   7.866   8.806  10.592
67735SOL    HW1 5102   7.821   8.752  10.657
67735SOL    HW2 5103   7.958   8.803  10.618
67736SOL     OW 5104   7.326   0.022   6.942
67736SOL    HW1 5105   7.396   0.045   7.003
67736SOL    HW2 5106   7.246   0.047   6.987
67737SOL     OW 5107  12.146   3.290   8.102
67737SOL    HW1 5108  12.058   3.265   8.131
67737SOL    HW2 5109  12.144   3.278   8.007
67738SOL     OW 5110  12.989   9.543   9.041
67738SOL    HW1 5111  13.015   9.461   9.084
67738SOL    HW2 5112  13.034   9.541   8.957
67739SOL     OW 5113   5.780   5.045   5.637
67739SOL    HW1 5114   5.741   4.982   5.698
67739SOL    HW2 5115   5.802   4.994   5.560
67740SOL     OW 5116  11.955   7.753   3.205
67740SOL    HW1 5117  11.967   7.717   3.293
67740SOL    HW2 5118  11.990   7.687   3.146
67741SOL     OW 5119   4.399  12.819   1.050
67741SOL    HW1 5120   4.404  12.914   1.056
67741SOL    HW2 5121   4.485  12.788   1.077
67742SOL     OW 5122   5.047   0.002  10.493
67742SOL    HW1 5123   4.991   0.039  10.424
67742SOL    HW2 5124   5.014  14.781  10.506
67743SOL     OW 5125  14.496  12.877   9.050
67743SOL    HW1 5126  14.503  12.796   9.000
67743SOL    HW2 5127  14.547  12.941   9.001
67744SOL     OW 5128   0.036   2.862   1.925
67744SOL    HW1 5129  14.860   2.831   2.004
67744SOL    HW2 5130   0.000   2.807   1.855
67745SOL     OW 5131   6.051  11.406   0.028
67745SOL    HW1 5132   6.133  11.455   0.026
67745SOL    HW2 5133   6.012  11.428   0.113
67746SOL     OW 5134  12.003   5.288   1.653
67746SOL    HW1 5135  11.940   5.348   1.612
67746SOL    HW2 5136  12.015   5.219   1.588
67747SOL     OW 5137   3.964   9.289   5.239
67747SOL    HW1 5138   3.970   9.229   5.164
67747SOL    HW2 5139   4.028   9.255   5.302
67748SOL     OW 5140  10.532   4.965  11.143
67748SOL    HW1 5141  10.600   4.995  11.083
67748SOL    HW2 5142  10.568   4.981  11.230
67749SOL     OW 5143   9.120   6.700   7.748
67749SOL    HW1 5144   9.135   6.794   7.757
67749SOL    HW2 5145   9.156   6.662   7.828
67750SOL     OW 5146   4.245   7.783   3.428
67750SOL    HW1 5147   4.161   7.770   3.385
67750SOL    HW2 5148   4.224   7.795   3.521
67751SOL     OW 5149  10.678   1.756  10.941
67751SOL    HW1 5150  10.757   1.709  10.966
67751SOL    HW2 5151  10.610   1.688  10.941
67752SOL     OW 5152   0.115   8.809  11.987
67752SOL    HW1 5153   0.153   8.897  11.984
67752SOL    HW2 5154   0.176   8.755  11.939
67753SOL     OW 5155   1.637  11.260   1.249
67753SOL    HW1 5156   1.701  11.273   1.180
67753SOL    HW2 5157   1.669  11.183   1.297
67754SOL     OW 5158   7.385   3.168   5.570
67754SOL    HW1 5159   7.390   3.136   5.480
67754SOL    HW2 5160   7.326   3.243   5.566
67755SOL     OW 5161   3.095   7.245  11.329
67755SOL    HW1 5162   3.082   7.199  11.412
67755SOL    HW2 5163   3.066   7.334  11.346
67756SOL     OW 5164   0.721  12.362   2.975
67756SOL    HW1 5165   0.798  12.418   2.960
67756SOL    HW2 5166   0.695  12.334   2.887
67757SOL     OW 5167  12.511   8.910  13.250
67757SOL    HW1 5168  12.424   8.908  13.290
67757SOL    HW2 5169  12.525   9.002  13.228
67758SOL     OW 5170   4.648  11.459  12.735
67758SOL    HW1 5171   4.569  11.405  12.728
67758SOL    HW2 5172   4.693  11.447  12.651
67759SOL     OW 5173   3.752   1.382   1.095
67759SOL    HW1 5174   3.813   1.331   1.042
67759SOL    HW2 5175   3.809   1.440   1.147
67760SOL     OW 5176  14.464   1.410   8.931
67760SOL    HW1 5177  14.454   1.357   8.852
67760SOL    HW2 5178  14.478   1.499   8.900
67761SOL     OW 5179  13.018   4.071   8.128
67761SOL    HW1 5180  12.930   4.108   8.136
67761SOL    HW2 5181  13.034   4.067   8.034
67762SOL     OW 5182   1.204   7.581   3.280
67762SOL    HW1 5183   1.197   7.660   3.226
67762SOL    HW2 5184   1.244   7.611   3.362
67763SOL     OW 5185   8.926   2.485   5.393
67763SOL    HW1 5186   8.835   2.455   5.399
67763SOL    HW2 5187   8.953   2.461   5.304
67764SOL     OW 5188  11.088  11.620  13.332
67764SOL    HW1 5189  11.084  11.528  13.356
67764SOL    HW2 5190  11.036  11.626  13.252
67765SOL     OW 5191   8.911   4.916   5.004
67765SOL    HW1 5192   8.903   4.849   4.936
67765SOL    HW2 5193   8.825   4.918   5.046
67766SOL     OW 5194   3.465  10.821   5.529
67766SOL    HW1 5195   3.453  10.846   5.437
67766SOL    HW2 5196   3.376  10.807   5.562
67767SOL     OW 5197   3.741   5.633  12.601
67767SOL    HW1 5198   3.698   5.703  12.651
67767SOL    HW2 5199   3.715   5.553  12.646
67768SOL     OW 5200   3.746  14.546   6.912
67768SOL    HW1 5201   3.675  14.603   6.882
67768SOL    HW2 5202   3.819  14.606   6.928
67769SOL     OW 5203   8.150   1.081  13.144
67769SOL    HW1 5204   8.096   1.155  13.118
67769SOL    HW2 5205   8.144   1.079  13.240
67770SOL     OW 5206  10.702   7.414   5.295
67770SOL    HW1 5207  10.790   7.410   5.331
67770SOL    HW2 5208  10.655   7.472   5.355
67771SOL     OW 5209   0.566   7.004  11.246
67771SOL    HW1 5210   0.573   7.045  11.160
67771SOL    HW2 5211   0.634   6.937  11.246
67772SOL     OW 5212   8.519   0.319   1.368
67772SOL    HW1 5213   8.465   0.397   1.357
67772SOL    HW2 5214   8.523   0.306   1.462
67773SOL     OW 5215   0.425  14.444   8.699
67773SOL    HW1 5216   0.379  14.468   8.618
67773SOL    HW2 5217   0.399  14.510   8.763
67774SOL     OW 5218  13.108   3.879  10.850
67774SOL    HW1 5219  13.017   3.905  10.836
67774SOL    HW2 5220  13.112   3.788  10.821
67775SOL     OW 5221   8.526   1.396   1.514
67775SOL    HW1 5222   8.579   1.471   1.539
67775SOL    HW2 5223   8.448   1.434   1.474
67776SOL     OW 5224  13.944   1.356  11.695
67776SOL    HW1 5225  13.890   1.278  11.700
67776SOL    HW2 5226  13.962   1.368  11.602
67777SOL     OW 5227  12.110   6.529  12.463
67777SOL    HW1 5228  12.057   6.584  12.521
67777SOL    HW2 5229  12.174   6.489  12.521
67778SOL     OW 5230   2.647   4.950   1.189
67778SOL    HW1 5231   2.655   5.025   1.249
67778SOL    HW2 5232   2.709   4.886   1.223
67779SOL     OW 5233  12.213   9.786   6.672
67779SOL    HW1 5234  12.256   9.830   6.598
67779SOL    HW2 5235  12.138   9.742   6.634
67780SOL     OW 5236   3.076   2.103   7.844
67780SOL    HW1 5237   3.034   2.189   7.841
67780SOL    HW2 5238   3.024   2.052   7.906
67781SOL     OW 5239   1.387   8.980   4.038
67781SOL    HW1 5240   1.329   8.963   3.964
67781SOL    HW2 5241   1.383   8.900   4.090
67782SOL     OW 5242   4.349   9.150   1.715
67782SOL    HW1 5243   4.337   9.217   1.648
67782SOL    HW2 5244   4.291   9.177   1.786
67783SOL     OW 5245   6.281   9.379   4.578
67783SOL    HW1 5246   6.215   9.377   4.509
67783SOL    HW2 5247   6.360   9.410   4.534
67784SOL     OW 5248  10.286  12.378   2.597
67784SOL    HW1 5249  10.232  12.456   2.582
67784SOL    HW2 5250  10.376  12.408   2.580
67785SOL     OW 5251   5.845   8.100   0.982
67785SOL    HW1 5252   5.877   8.133   0.898
67785SOL    HW2 5253   5.913   8.125   1.045
67786SOL     OW 5254  10.094   2.692   6.175
67786SOL    HW1 5255  10.155   2.757   6.141
67786SOL    HW2 5256  10.009   2.737   6.177
67787SOL     OW 5257   8.567   0.171  11.637
67787SOL    HW1 5258   8.606   0.254  11.665
67787SOL    HW2 5259   8.638   0.107  11.648
67788SOL     OW 5260   9.127  12.584   9.489
67788SOL    HW1 5261   9.190  12.522   9.525
67788SOL    HW2 5262   9.143  12.582   9.395
67789SOL     OW 5263   4.599   1.414   9.611
67789SOL    HW1 5264   4.531   1.431   9.677
67789SOL    HW2 5265   4.636   1.330   9.636
67790SOL     OW 5266   7.217   4.165   1.031
67790SOL    HW1 5267   7.311   4.181   1.042
67790SOL    HW2 5268   7.176   4.213   1.103
67791SOL     OW 5269   4.224   0.231   5.806
67791SOL    HW1 5270   4.199   0.213   5.715
67791SOL    HW2 5271   4.178   0.312   5.828
67792SOL     OW 5272   0.355   8.576  12.840
67792SOL    HW1 5273   0.319   8.514  12.777
67792SOL    HW2 5274   0.280   8.606  12.891
67793SOL     OW 5275   1.174   7.164   3.738
67793SOL    HW1 5276   1.097   7.135   3.689
67793SOL    HW2 5277   1.236   7.192   3.671
67794SOL     OW 5278  14.295  13.928   3.601
67794SOL    HW1 5279  14.337  14.004   3.561
67794SOL    HW2 5280  14.201  13.941   3.587
67795SOL     OW 5281   5.985  14.630   4.493
67795SOL    HW1 5282   5.898  14.590   4.491
67795SOL    HW2 5283   6.046  14.556   4.489
67796SOL     OW 5284   0.536   3.138   2.731
67796SOL    HW1 5285   0.625   3.111   2.751
67796SOL    HW2 5286   0.481   3.082   2.786
67797SOL     OW 5287  13.219   1.516   5.937
67797SOL    HW1 5288  13.129   1.484   5.938
67797SOL    HW2 5289  13.217   1.595   5.884
67798SOL     OW 5290   5.797   8.705   4.220
67798SOL    HW1 5291   5.715   8.707   4.269
67798SOL    HW2 5292   5.780   8.759   4.143
67799SOL     OW 5293   6.331  11.199   4.387
67799SOL    HW1 5294   6.399  11.155   4.440
67799SOL    HW2 5295   6.308  11.276   4.438
67800SOL     OW 5296   7.209   1.746   1.459
67800SOL    HW1 5297   7.135   1.709   1.507
67800SOL    HW2 5298   7.266   1.671   1.441
67801SOL     OW 5299   4.029   1.103   6.013
67801SOL    HW1 5300   4.035   1.099   5.918
67801SOL    HW2 5301   3.951   1.052   6.034
67802SOL     OW 5302  10.214   6.522   6.882
67802SOL    HW1 5303  10.224   6.450   6.944
67802SOL    HW2 5304  10.216   6.479   6.796
67803SOL     OW 5305   9.284  11.873  10.896
67803SOL    HW1 5306   9.191  11.865  10.872
67803SOL    HW2 5307   9.309  11.960  10.864
67804SOL     OW 5308   5.585   0.409  14.694
67804SOL    HW1 5309   5.499   0.451  14.697
67804SOL    HW2 5310   5.592   0.375  14.605
67805SOL     OW 5311   0.618   1.338   2.213
67805SOL    HW1 5312   0.698   1.296   2.243
67805SOL    HW2 5313   0.576   1.371   2.293
67806SOL     OW 5314   3.556   4.569  11.879
67806SOL    HW1 5315   3.599   4.630  11.818
67806SOL    HW2 5316   3.492   4.624  11.925
67807SOL     OW 5317   4.424   8.891   0.182
67807SOL    HW1 5318   4.457   8.860   0.267
67807SOL    HW2 5319   4.487   8.858   0.119
67808SOL     OW 5320  14.220   2.984   0.838
67808SOL    HW1 5321  14.197   2.893   0.818
67808SOL    HW2 5322  14.296   3.002   0.783
67809SOL     OW 5323  10.869   8.703   4.698
67809SOL    HW1 5324  10.864   8.683   4.791
67809SOL    HW2 5325  10.791   8.755   4.680
67810SOL     OW 5326   3.823  13.169   8.632
67810SOL    HW1 5327   3.743  13.194   8.588
67810SOL    HW2 5328   3.880  13.246   8.625
67811SOL     OW 5329   4.706  12.849   3.830
67811SOL    HW1 5330   4.769  12.922   3.830
67811SOL    HW2 5331   4.727  12.800   3.910
67812SOL     OW 5332  10.537  10.088   7.768
67812SOL    HW1 5333  10.483  10.145   7.823
67812SOL    HW2 5334  10.621  10.134   7.762
67813SOL     OW 5335  14.588   9.919   7.487
67813SOL    HW1 5336  14.501   9.885   7.466
67813SOL    HW2 5337  14.571   9.994   7.544
67814SOL     OW 5338   0.211   6.351   1.230
67814SOL    HW1 5339   0.157   6.300   1.291
67814SOL    HW2 5340   0.203   6.305   1.146
67815SOL     OW 5341  14.327  14.750   8.185
67815SOL    HW1 5342  14.341  14.788   8.272
67815SOL    HW2 5343  14.304  14.825   8.130
67816SOL     OW 5344   1.384   2.149  11.763
67816SOL    HW1 5345   1.430   2.067  11.783
67816SOL    HW2 5346   1.322   2.159  11.835
67817SOL     OW 5347   7.773  14.552  14.349
67817SOL    HW1 5348   7.705  14.618  14.339
67817SOL    HW2 5349   7.745  14.479  14.294
67818SOL     OW 5350   9.301  11.197   3.511
67818SOL    HW1 5351   9.242  11.272   3.502
67818SOL    HW2 5352   9.267  11.150   3.587
67819SOL     OW 5353   5.952   6.090   0.302
67819SOL    HW1 5354   5.930   6.007   0.260
67819SOL    HW2 5355   5.875   6.110   0.356
67820SOL     OW 5356  13.793  10.713  13.713
67820SOL    HW1 5357  13.760  10.626  13.735
67820SOL    HW2 5358  13.714  10.768  13.711
67821SOL     OW 5359   0.338   8.407  10.027
67821SOL    HW1 5360   0.267   8.468  10.046
67821SOL    HW2 5361   0.320   8.377   9.938
67822SOL     OW 5362  13.613  11.104   3.913
67822SOL    HW1 5363  13.705  11.127   3.925
67822SOL    HW2 5364  13.613  11.042   3.840
67823SOL     OW 5365  13.402  13.866   8.678
67823SOL    HW1 5366  13.399  13.779   8.636
67823SOL    HW2 5367  13.424  13.926   8.607
67824SOL     OW 5368  14.135   3.021   5.203
67824SOL    HW1 5369  14.191   2.975   5.265
67824SOL    HW2 5370  14.164   3.112   5.206
67825SOL     OW 5371   3.210   6.866   8.304
67825SOL    HW1 5372   3.117   6.868   8.329
67825SOL    HW2 5373   3.248   6.797   8.359
67826SOL     OW 5374   4.288   7.861   5.691
67826SOL    HW1 5375   4.314   7.953   5.694
67826SOL    HW2 5376   4.334   7.825   5.615
67827SOL     OW 5377   1.675   4.917   3.587
67827SOL    HW1 5378   1.663   4.971   3.666
67827SOL    HW2 5379   1.769   4.920   3.570
67828SOL     OW 5380  10.312   8.878   0.755
67828SOL    HW1 5381  10.313   8.791   0.794
67828SOL    HW2 5382  10.388   8.878   0.696
67829SOL     OW 5383  10.362   9.354  11.414
67829SOL    HW1 5384  10.294   9.390  11.470
67829SOL    HW2 5385  10.347   9.394  11.328
67830SOL     OW 5386   0.737   1.640   2.894
67830SOL    HW1 5387   0.738   1.715   2.834
67830SOL    HW2 5388   0.666   1.659   2.956
67831SOL     OW 5389   3.780  11.953   1.302
67831SOL    HW1 5390   3.789  12.022   1.236
67831SOL    HW2 5391   3.777  11.872   1.251
67832SOL     OW 5392   5.349   6.485   6.550
67832SOL    HW1 5393   5.367   6.391   6.552
67832SOL    HW2 5394   5.426   6.524   6.592
67833SOL     OW 5395   4.555   3.792   1.888
67833SOL    HW1 5396   4.605   3.873   1.898
67833SOL    HW2 5397   4.621   3.723   1.885
67834SOL     OW 5398  13.182   9.858   1.096
67834SOL    HW1 5399  13.231   9.933   1.130
67834SOL    HW2 5400  13.109   9.896   1.048
67835SOL     OW 5401   6.406   6.927   9.430
67835SOL    HW1 5402   6.395   6.903   9.522
67835SOL    HW2 5403   6.416   7.023   9.431
67836SOL     OW 5404   3.595   2.475   1.684
67836SOL    HW1 5405   3.580   2.511   1.771
67836SOL    HW2 5406   3.680   2.510   1.657
67837SOL     OW 5407  13.327  11.302   7.484
67837SOL    HW1 5408  13.250  11.254   7.515
67837SOL    HW2 5409  13.290  11.381   7.443
67838SOL     OW 5410   3.599   7.931   6.741
67838SOL    HW1 5411   3.690   7.955   6.756
67838SOL    HW2 5412   3.601   7.836   6.727
67839SOL     OW 5413   1.635   2.637   5.296
67839SOL    HW1 5414   1.724   2.642   5.332
67839SOL    HW2 5415   1.629   2.549   5.259
67840SOL     OW 5416   1.806   3.755   4.913
67840SOL    HW1 5417   1.876   3.821   4.915
67840SOL    HW2 5418   1.853   3.671   4.918
67841SOL     OW 5419  14.707   5.438   6.093
67841SOL    HW1 5420  14.766   5.458   6.020
67841SOL    HW2 5421  14.640   5.381   6.055
67842SOL     OW 5422   1.903  11.425   1.676
67842SOL    HW1 5423   1.933  11.336   1.658
67842SOL    HW2 5424   1.873  11.422   1.767
67843SOL     OW 5425   9.005  11.707  12.128
67843SOL    HW1 5426   9.055  11.669  12.200
67843SOL    HW2 5427   8.976  11.631  12.077
67844SOL     OW 5428  10.727   8.429   3.054
67844SOL    HW1 5429  10.682   8.371   3.115
67844SOL    HW2 5430  10.728   8.514   3.097
67845SOL     OW 5431   1.073   6.816  11.258
67845SOL    HW1 5432   1.050   6.725  11.241
67845SOL    HW2 5433   1.100   6.851  11.173
67846SOL     OW 5434  10.108   4.267  14.816
67846SOL    HW1 5435  10.181   4.285  14.758
67846SOL    HW2 5436  10.034   4.313  14.776
67847SOL     OW 5437   7.609   3.593  13.266
67847SOL    HW1 5438   7.623   3.538  13.343
67847SOL    HW2 5439   7.695   3.627  13.245
67848SOL     OW 5440  13.074   3.842  12.924
67848SOL    HW1 5441  13.140   3.887  12.873
67848SOL    HW2 5442  13.083   3.878  13.013
67849SOL     OW 5443   5.427   2.236   0.903
67849SOL    HW1 5444   5.514   2.266   0.927
67849SOL    HW2 5445   5.435   2.208   0.812
67850SOL     OW 5446  13.771  13.779   3.210
67850SOL    HW1 5447  13.756  13.761   3.117
67850SOL    HW2 5448  13.719  13.713   3.256
67851SOL     OW 5449   7.720   0.983   2.901
67851SOL    HW1 5450   7.743   1.075   2.915
67851SOL    HW2 5451   7.644   0.986   2.843
67852SOL     OW 5452   0.937   3.210   4.899
67852SOL    HW1 5453   0.877   3.268   4.851
67852SOL    HW2 5454   1.002   3.270   4.936
67853SOL     OW 5455   1.965   3.705  12.861
67853SOL    HW1 5456   1.895   3.639  12.866
67853SOL    HW2 5457   1.958   3.753  12.944
67854SOL     OW 5458   1.136   0.207   3.828
67854SOL    HW1 5459   1.197   0.157   3.883
67854SOL    HW2 5460   1.058   0.151   3.822
67855SOL     OW 5461  13.558  11.353   2.169
67855SOL    HW1 5462  13.464  11.372   2.175
67855SOL    HW2 5463  13.585  11.340   2.259
67856SOL     OW 5464   7.802   7.148   8.027
67856SOL    HW1 5465   7.816   7.117   7.937
67856SOL    HW2 5466   7.823   7.241   8.023
67857SOL     OW 5467   5.360   6.007   2.237
67857SOL    HW1 5468   5.387   6.083   2.288
67857SOL    HW2 5469   5.284   6.038   2.187
67858SOL     OW 5470   6.913   3.772   0.186
67858SOL    HW1 5471   7.000   3.742   0.211
67858SOL    HW2 5472   6.923   3.866   0.173
67859SOL     OW 5473   2.659   7.368   5.199
67859SOL    HW1 5474   2.737   7.322   5.169
67859SOL    HW2 5475   2.590   7.302   5.198
67860SOL     OW 5476  11.751  12.035   3.157
67860SOL    HW1 5477  11.811  11.963   3.137
67860SOL    HW2 5478  11.789  12.111   3.112
67861SOL     OW 5479  14.052   6.873   7.358
67861SOL    HW1 5480  14.086   6.877   7.447
67861SOL    HW2 5481  14.130   6.862   7.303
67862SOL     OW 5482   3.690  12.730   9.242
67862SOL    HW1 5483   3.651  12.642   9.233
67862SOL    HW2 5484   3.726  12.748   9.155
67863SOL     OW 5485   8.407  13.908   7.971
67863SOL    HW1 5486   8.421  13.881   7.881
67863SOL    HW2 5487   8.334  13.853   8.002
67864SOL     OW 5488   2.795   5.389  10.096
67864SOL    HW1 5489   2.720   5.434  10.056
67864SOL    HW2 5490   2.803   5.428  10.183
67865SOL     OW 5491  11.550   4.590   4.920
67865SOL    HW1 5492  11.581   4.500   4.933
67865SOL    HW2 5493  11.534   4.622   5.009
67866SOL     OW 5494   0.711   8.136   8.838
67866SOL    HW1 5495   0.702   8.090   8.755
67866SOL    HW2 5496   0.789   8.098   8.878
67867SOL     OW 5497   6.830   5.707   0.917
67867SOL    HW1 5498   6.760   5.749   0.868
67867SOL    HW2 5499   6.881   5.780   0.952
67868SOL     OW 5500   3.948  14.188  14.811
67868SOL    HW1 5501   4.031  14.151  14.841
67868SOL    HW2 5502   3.973  14.261  14.755
67869SOL     OW 5503  13.015   1.840   7.833
67869SOL    HW1 5504  12.963   1.893   7.772
67869SOL    HW2 5505  12.970   1.755   7.835
67870SOL     OW 5506   7.546   6.388   4.559
67870SOL    HW1 5507   7.492   6.453   4.515
67870SOL    HW2 5508   7.560   6.319   4.494
67871SOL     OW 5509   0.195   1.298   1.316
67871SOL    HW1 5510   0.247   1.235   1.367
67871SOL    HW2 5511   0.227   1.384   1.343
67872SOL     OW 5512   7.228   1.658  13.725
67872SOL    HW1 5513   7.217   1.582  13.668
67872SOL    HW2 5514   7.186   1.633  13.807
67873SOL     OW 5515   4.582   9.116   6.248
67873SOL    HW1 5516   4.659   9.141   6.299
67873SOL    HW2 5517   4.607   9.132   6.157
67874SOL     OW 5518   6.858   0.881   9.350
67874SOL    HW1 5519   6.845   0.863   9.257
67874SOL    HW2 5520   6.833   0.973   9.360
67875SOL     OW 5521   8.273   1.879   5.372
67875SOL    HW1 5522   8.241   1.890   5.461
67875SOL    HW2 5523   8.225   1.943   5.321
67876SOL     OW 5524   5.317  13.903   9.708
67876SOL    HW1 5525   5.405  13.877   9.679
67876SOL    HW2 5526   5.258  13.845   9.660
67877SOL     OW 5527   5.976   2.367   2.800
67877SOL    HW1 5528   5.999   2.360   2.893
67877SOL    HW2 5529   6.051   2.411   2.761
67878SOL     OW 5530   1.523   9.129   0.838
67878SOL    HW1 5531   1.615   9.156   0.843
67878SOL    HW2 5532   1.524   9.038   0.865
67879SOL     OW 5533   6.320  13.684   0.096
67879SOL    HW1 5534   6.354  13.632   0.024
67879SOL    HW2 5535   6.276  13.758   0.054
67880SOL     OW 5536   2.857  10.505   1.387
67880SOL    HW1 5537   2.894  10.506   1.475
67880SOL    HW2 5538   2.919  10.452   1.336
67881SOL     OW 5539   6.363  14.254   7.325
67881SOL    HW1 5540   6.406  14.179   7.284
67881SOL    HW2 5541   6.391  14.252   7.416
67882SOL     OW 5542  13.865   6.884   6.706
67882SOL    HW1 5543  13.774   6.912   6.700
67882SOL    HW2 5544  13.906   6.948   6.766
67883SOL     OW 5545  13.884   8.277  13.010
67883SOL    HW1 5546  13.843   8.332  12.943
67883SOL    HW2 5547  13.921   8.340  13.072
67884SOL     OW 5548   7.017  12.964  14.613
67884SOL    HW1 5549   7.001  13.014  14.533
67884SOL    HW2 5550   7.023  13.030  14.682
67885SOL     OW 5551  14.297   8.668   7.471
67885SOL    HW1 5552  14.352   8.690   7.547
67885SOL    HW2 5553  14.350   8.692   7.395
67886SOL     OW 5554   8.154   9.730   5.716
67886SOL    HW1 5555   8.181   9.639   5.725
67886SOL    HW2 5556   8.082   9.728   5.653
67887SOL     OW 5557   6.338   4.326   2.499
67887SOL    HW1 5558   6.379   4.336   2.585
67887SOL    HW2 5559   6.343   4.414   2.460
67888SOL     OW 5560   3.363   4.772   1.768
67888SOL    HW1 5561   3.348   4.678   1.763
67888SOL    HW2 5562   3.419   4.784   1.845
67889SOL     OW 5563   9.510  12.882   9.069
67889SOL    HW1 5564   9.454  12.841   9.004
67889SOL    HW2 5565   9.466  12.865   9.153
67890SOL     OW 5566   8.974   6.704  11.256
67890SOL    HW1 5567   8.992   6.615  11.225
67890SOL    HW2 5568   9.049   6.755  11.225
67891SOL     OW 5569   0.283   8.748   9.709
67891SOL    HW1 5570   0.203   8.698   9.727
67891SOL    HW2 5571   0.324   8.702   9.636
67892SOL     OW 5572   2.062  13.576   0.977
67892SOL    HW1 5573   2.012  13.646   1.018
67892SOL    HW2 5574   2.153  13.607   0.977
67893SOL     OW 5575   0.888   0.921   8.656
67893SOL    HW1 5576   0.974   0.889   8.631
67893SOL    HW2 5577   0.875   1.000   8.603
67894SOL     OW 5578   2.895   5.596  13.878
67894SOL    HW1 5579   2.983   5.616  13.847
67894SOL    HW2 5580   2.903   5.587  13.972
67895SOL     OW 5581  14.683   9.549   6.562
67895SOL    HW1 5582  14.646   9.466   6.591
67895SOL    HW2 5583  14.762   9.525   6.514
67896SOL     OW 5584  13.584  14.701  12.574
67896SOL    HW1 5585  13.519  14.740  12.515
67896SOL    HW2 5586  13.553  14.724  12.662
67897SOL     OW 5587   3.921  12.744   6.466
67897SOL    HW1 5588   3.829  12.769   6.470
67897SOL    HW2 5589   3.968  12.817   6.505
67898SOL     OW 5590  11.842   2.469   9.185
67898SOL    HW1 5591  11.889   2.386   9.179
67898SOL    HW2 5592  11.832   2.498   9.094
67899SOL     OW 5593   1.615  14.678   6.945
67899SOL    HW1 5594   1.685  14.617   6.968
67899SOL    HW2 5595   1.552  14.670   7.017
67900SOL     OW 5596  13.653   1.772  10.985
67900SOL    HW1 5597  13.687   1.778  10.896
67900SOL    HW2 5598  13.645   1.863  11.014
67901SOL     OW 5599  11.627  10.882  13.105
67901SOL    HW1 5600  11.704  10.936  13.091
67901SOL    HW2 5601  11.651  10.796  13.071
67902SOL     OW 5602   3.307   1.379   8.925
67902SOL    HW1 5603   3.276   1.452   8.978
67902SOL    HW2 5604   3.292   1.407   8.835
67903SOL     OW 5605   4.620   5.795   9.180
67903SOL    HW1 5606   4.546   5.791   9.119
67903SOL    HW2 5607   4.586   5.842   9.256
67904SOL     OW 5608  10.292   7.123   5.609
67904SOL    HW1 5609  10.366   7.149   5.664
67904SOL    HW2 5610  10.277   7.198   5.552
67905SOL     OW 5611   4.097   9.292   5.833
67905SOL    HW1 5612   4.110   9.201   5.806
67905SOL    HW2 5613   4.160   9.342   5.781
67906SOL     OW 5614   0.386  14.842  13.463
67906SOL    HW1 5615   0.404   0.055  13.415
67906SOL    HW2 5616   0.472  14.804  13.480
67907SOL     OW 5617  12.029   4.355  10.919
67907SOL    HW1 5618  12.074   4.277  10.951
67907SOL    HW2 5619  11.954   4.322  10.870
67908SOL     OW 5620  11.353  12.150   5.380
67908SOL    HW1 5621  11.419  12.206   5.422
67908SOL    HW2 5622  11.402  12.102   5.313
67909SOL     OW 5623   9.797  13.561  11.360
67909SOL    HW1 5624   9.729  13.500  11.389
67909SOL    HW2 5625   9.877  13.508  11.358
67910SOL     OW 5626   2.555  13.319  10.052
67910SOL    HW1 5627   2.644  13.294  10.078
67910SOL    HW2 5628   2.504  13.239  10.061
67911SOL     OW 5629   5.128  13.257   5.477
67911SOL    HW1 5630   5.176  13.183   5.515
67911SOL    HW2 5631   5.121  13.237   5.384
67912SOL     OW 5632  12.651   9.027  11.292
67912SOL    HW1 5633  12.738   8.989  11.307
67912SOL    HW2 5634  12.653   9.057  11.201
67913SOL     OW 5635   7.527  11.735  14.434
67913SOL    HW1 5636   7.614  11.718  14.471
67913SOL    HW2 5637   7.545  11.772  14.348
67914SOL     OW 5638   0.830   5.513  13.039
67914SOL    HW1 5639   0.914   5.487  13.001
67914SOL    HW2 5640   0.850   5.591  13.091
67915SOL     OW 5641   4.609   9.860   5.962
67915SOL    HW1 5642   4.576   9.830   5.877
67915SOL    HW2 5643   4.531   9.887   6.010
67916SOL     OW 5644   9.518   3.622   9.898
67916SOL    HW1 5645   9.523   3.602   9.992
67916SOL    HW2 5646   9.485   3.712   9.894
67917SOL     OW 5647  12.754  12.953   8.784
67917SOL    HW1 5648  12.665  12.958   8.820
67917SOL    HW2 5649  12.741  12.940   8.690
67918SOL     OW 5650  13.988  10.403  10.398
67918SOL    HW1 5651  14.047  10.404  10.474
67918SOL    HW2 5652  14.047  10.396  10.323
67919SOL     OW 5653   6.965   4.623   0.363
67919SOL    HW1 5654   7.043   4.651   0.315
67919SOL    HW2 5655   6.944   4.537   0.325
67920SOL     OW 5656   5.863   8.570  10.736
67920SOL    HW1 5657   5.826   8.484  10.756
67920SOL    HW2 5658   5.831   8.590  10.648
67921SOL     OW 5659   6.240   4.156   3.282
67921SOL    HW1 5660   6.265   4.246   3.304
67921SOL    HW2 5661   6.156   4.144   3.325
67922SOL     OW 5662  10.092   7.653   6.553
67922SOL    HW1 5663  10.086   7.683   6.643
67922SOL    HW2 5664  10.178   7.683   6.523
67923SOL     OW 5665  10.443   7.418  14.658
67923SOL    HW1 5666  10.454   7.512  14.644
67923SOL    HW2 5667  10.362   7.410  14.708
67924SOL     OW 5668   6.126  13.174   1.269
67924SOL    HW1 5669   6.213  13.182   1.307
67924SOL    HW2 5670   6.135  13.106   1.203
67925SOL     OW 5671   8.826   5.294   3.894
67925SOL    HW1 5672   8.861   5.377   3.863
67925SOL    HW2 5673   8.758   5.318   3.957
67926SOL     OW 5674  14.615  10.210  12.049
67926SOL    HW1 5675  14.623  10.153  11.973
67926SOL    HW2 5676  14.528  10.249  12.041
67927SOL     OW 5677   1.393  12.330  11.135
67927SOL    HW1 5678   1.457  12.273  11.093
67927SOL    HW2 5679   1.444  12.405  11.165
67928SOL     OW 5680   2.664   6.644   4.620
67928SOL    HW1 5681   2.583   6.625   4.573
67928SOL    HW2 5682   2.641   6.636   4.712
67929SOL     OW 5683  10.869  11.385  12.550
67929SOL    HW1 5684  10.917  11.430  12.621
67929SOL    HW2 5685  10.849  11.454  12.487
67930SOL     OW 5686  10.563  14.590   6.244
67930SOL    HW1 5687  10.497  14.657   6.262
67930SOL    HW2 5688  10.638  14.615   6.298
67931SOL     OW 5689  11.295   0.044  11.422
67931SOL    HW1 5690  11.367   0.085  11.471
67931SOL    HW2 5691  11.308  14.818  11.435
67932SOL     OW 5692  10.013   5.917   7.799
67932SOL    HW1 5693  10.082   5.912   7.866
67932SOL    HW2 5694   9.976   6.005   7.810
67933SOL     OW 5695   4.304  11.946   4.070
67933SOL    HW1 5696   4.316  11.880   4.001
67933SOL    HW2 5697   4.211  11.940   4.092
67934SOL     OW 5698   6.233   2.084  10.026
67934SOL    HW1 5699   6.257   2.047  10.111
67934SOL    HW2 5700   6.210   2.007   9.973
67935SOL     OW 5701   8.583   2.955  13.287
67935SOL    HW1 5702   8.628   3.032  13.322
67935SOL    HW2 5703   8.559   2.980  13.197
67936SOL     OW 5704  10.736  12.253   8.648
67936SOL    HW1 5705  10.671  12.189   8.620
67936SOL    HW2 5706  10.712  12.334   8.602
67937SOL     OW 5707   9.843   8.541  14.863
67937SOL    HW1 5708   9.889   8.559  14.781
67937SOL    HW2 5709   9.868   8.451   0.017
67938SOL     OW 5710   1.158   0.751   4.826
67938SOL    HW1 5711   1.136   0.837   4.863
67938SOL    HW2 5712   1.199   0.771   4.742
67939SOL     OW 5713   3.913   0.164  12.811
67939SOL    HW1 5714   3.978   0.101  12.840
67939SOL    HW2 5715   3.836   0.146  12.865
67940SOL     OW 5716  13.903   7.410   7.464
67940SOL    HW1 5717  13.956   7.474   7.512
67940SOL    HW2 5718  13.938   7.325   7.491
67941SOL     OW 5719  14.061   4.446   6.486
67941SOL    HW1 5720  13.966   4.459   6.477
67941SOL    HW2 5721  14.089   4.516   6.545
67942SOL     OW 5722   6.826   1.572  12.472
67942SOL    HW1 5723   6.807   1.484  12.506
67942SOL    HW2 5724   6.782   1.575  12.387
67943SOL     OW 5725  13.146   9.350  11.444
67943SOL    HW1 5726  13.066   9.380  11.486
67943SOL    HW2 5727  13.215   9.403  11.484
67944SOL     OW 5728   9.950   7.474  10.036
67944SOL    HW1 5729  10.018   7.535  10.007
67944SOL    HW2 5730   9.942   7.491  10.130
67945SOL     OW 5731   7.753   7.720   2.961
67945SOL    HW1 5732   7.818   7.686   3.023
67945SOL    HW2 5733   7.682   7.751   3.017
67946SOL     OW 5734   9.787   9.420   4.656
67946SOL    HW1 5735   9.767   9.339   4.705
67946SOL    HW2 5736   9.724   9.484   4.690
67947SOL     OW 5737   3.674  10.234   2.131
67947SOL    HW1 5738   3.674  10.218   2.037
67947SOL    HW2 5739   3.759  10.274   2.148
67948SOL     OW 5740   9.031  12.300   9.872
67948SOL    HW1 5741   8.984  12.217   9.870
67948SOL    HW2 5742   8.962  12.366   9.879
67949SOL     OW 5743   2.599   5.051   0.662
67949SOL    HW1 5744   2.624   4.959   0.671
67949SOL    HW2 5745   2.682   5.096   0.643
67950SOL     OW 5746   1.830  14.624   9.194
67950SOL    HW1 5747   1.771  14.607   9.267
67950SOL    HW2 5748   1.914  14.585   9.222
67951SOL     OW 5749  13.775  13.116   5.699
67951SOL    HW1 5750  13.718  13.093   5.626
67951SOL    HW2 5751  13.842  13.047   5.699
67952SOL     OW 5752   6.955   3.272   9.076
67952SOL    HW1 5753   6.915   3.215   9.142
67952SOL    HW2 5754   7.038   3.228   9.055
67953SOL     OW 5755  13.654   7.646  13.030
67953SOL    HW1 5756  13.603   7.712  13.078
67953SOL    HW2 5757  13.590   7.602  12.974
67954SOL     OW 5758   3.970   9.895  11.199
67954SOL    HW1 5759   4.012   9.876  11.115
67954SOL    HW2 5760   3.878   9.909  11.178
67955SOL     OW 5761   1.007   3.172  12.427
67955SOL    HW1 5762   1.074   3.113  12.462
67955SOL    HW2 5763   1.056   3.240  12.382
67956SOL     OW 5764   9.296   7.165   2.906
67956SOL    HW1 5765   9.308   7.237   2.844
67956SOL    HW2 5766   9.373   7.109   2.894
67957SOL     OW 5767   1.684  14.022   6.101
67957SOL    HW1 5768   1.682  14.109   6.059
67957SOL    HW2 5769   1.597  14.012   6.139
67958SOL     OW 5770  12.096   5.128   6.294
67958SOL    HW1 5771  12.164   5.178   6.249
67958SOL    HW2 5772  12.014   5.169   6.266
67959SOL     OW 5773   4.029  11.117   2.977
67959SOL    HW1 5774   3.979  11.060   2.919
67959SOL    HW2 5775   4.111  11.071   2.991
67960SOL     OW 5776  11.247   8.965   6.638
67960SOL    HW1 5777  11.239   9.014   6.720
67960SOL    HW2 5778  11.246   9.032   6.570
67961SOL     OW 5779  12.739   7.730   4.528
67961SOL    HW1 5780  12.692   7.725   4.444
67961SOL    HW2 5781  12.811   7.791   4.511
67962SOL     OW 5782  12.162  13.933  14.526
67962SOL    HW1 5783  12.241  13.944  14.580
67962SOL    HW2 5784  12.167  13.843  14.495
67963SOL     OW 5785   1.346   8.481   8.380
67963SOL    HW1 5786   1.259   8.462   8.415
67963SOL    HW2 5787   1.406   8.437   8.440
67964SOL     OW 5788   5.536  13.663   3.826
67964SOL    HW1 5789   5.479  13.733   3.794
67964SOL    HW2 5790   5.563  13.693   3.913
67965SOL     OW 5791  12.805  10.779   2.417
67965SOL    HW1 5792  12.762  10.864   2.417
67965SOL    HW2 5793  12.890  10.794   2.376
67966SOL     OW 5794   7.613  10.537   6.340
67966SOL    HW1 5795   7.661  10.487   6.406
67966SOL    HW2 5796   7.531  10.488   6.328
67967SOL     OW 5797  12.798   0.618  11.839
67967SOL    HW1 5798  12.797   0.603  11.934
67967SOL    HW2 5799  12.749   0.700  11.827
67968SOL     OW 5800   8.876  11.786   1.868
67968SOL    HW1 5801   8.867  11.880   1.884
67968SOL    HW2 5802   8.804  11.765   1.808
67969SOL     OW 5803   1.020   4.560  11.086
67969SOL    HW1 5804   1.013   4.617  11.010
67969SOL    HW2 5805   0.930   4.531  11.104
67970SOL     OW 5806  12.120  14.542   2.448
67970SOL    HW1 5807  12.190  14.605   2.436
67970SOL    HW2 5808  12.051  14.571   2.389
67971SOL     OW 5809   7.954   5.696   0.132
67971SOL    HW1 5810   7.976   5.713   0.224
67971SOL    HW2 5811   7.859   5.707   0.128
67972SOL     OW 5812   4.934   8.763  14.484
67972SOL    HW1 5813   5.026   8.741  14.502
67972SOL    HW2 5814   4.930   8.772  14.388
67973SOL     OW 5815   6.220  12.201   1.136
67973SOL    HW1 5816   6.266  12.168   1.213
67973SOL    HW2 5817   6.147  12.140   1.123
67974SOL     OW 5818  13.957   9.940   6.571
67974SOL    HW1 5819  14.004  10.022   6.585
67974SOL    HW2 5820  13.918   9.948   6.484
67975SOL     OW 5821   6.695   0.821  13.429
67975SOL    HW1 5822   6.677   0.825  13.523
67975SOL    HW2 5823   6.735   0.735  13.416
67976SOL     OW 5824   3.534  11.225  10.808
67976SOL    HW1 5825   3.489  11.175  10.740
67976SOL    HW2 5826   3.464  11.263  10.860
67977SOL     OW 5827  14.653  11.800  14.346
67977SOL    HW1 5828  14.669  11.835  14.258
67977SOL    HW2 5829  14.592  11.861  14.386
67978SOL     OW 5830  13.428   5.159   9.835
67978SOL    HW1 5831  13.414   5.094   9.903
67978SOL    HW2 5832  13.513   5.198   9.856
67979SOL     OW 5833  11.967  14.754  11.219
67979SOL    HW1 5834  11.921  14.838  11.215
67979SOL    HW2 5835  12.057  14.774  11.193
67980SOL     OW 5836   9.166  11.504   9.596
67980SOL    HW1 5837   9.083  11.546   9.617
67980SOL    HW2 5838   9.142  11.428   9.543
67981SOL     OW 5839   9.864   6.126  14.232
67981SOL    HW1 5840   9.909   6.044  14.250
67981SOL    HW2 5841   9.795   6.131  14.299
67982SOL     OW 5842   7.739  12.652   2.123
67982SOL    HW1 5843   7.742  12.625   2.031
67982SOL    HW2 5844   7.681  12.589   2.165
67983SOL     OW 5845   4.732   5.262   3.720
67983SOL    HW1 5846   4.805   5.303   3.766
67983SOL    HW2 5847   4.654   5.291   3.767
67984SOL     OW 5848  14.273  12.112   9.201
67984SOL    HW1 5849  14.262  12.201   9.235
67984SOL    HW2 5850  14.351  12.079   9.245
67985SOL     OW 5851   2.292  12.171   9.702
67985SOL    HW1 5852   2.249  12.086   9.713
67985SOL    HW2 5853   2.358  12.156   9.634
67986SOL     OW 5854   5.306   6.013   6.190
67986SOL    HW1 5855   5.335   5.940   6.135
67986SOL    HW2 5856   5.242   6.060   6.137
67987SOL     OW 5857   4.775  11.456   2.467
67987SOL    HW1 5858   4.719  11.477   2.541
67987SOL    HW2 5859   4.826  11.536   2.452
67988SOL     OW 5860   8.130  12.764  13.725
67988SOL    HW1 5861   8.216  12.770  13.683
67988SOL    HW2 5862   8.147  12.787  13.817
67989SOL     OW 5863   4.130   0.317   6.078
67989SOL    HW1 5864   4.170   0.335   6.163
67989SOL    HW2 5865   4.090   0.231   6.088
67990SOL     OW 5866   3.763   7.265  14.418
67990SOL    HW1 5867   3.771   7.308  14.333
67990SOL    HW2 5868   3.813   7.184  14.408
67991SOL     OW 5869   9.972   7.980   6.849
67991SOL    HW1 5870   9.923   8.045   6.900
67991SOL    HW2 5871   9.971   8.013   6.759
67992SOL     OW 5872   1.701   4.056  11.307
67992SOL    HW1 5873   1.763   3.987  11.285
67992SOL    HW2 5874   1.696   4.054  11.403
67993SOL     OW 5875   8.301   8.200  11.132
67993SOL    HW1 5876   8.250   8.122  11.154
67993SOL    HW2 5877   8.337   8.229  11.216
67994SOL     OW 5878   5.355  11.338   2.705
67994SOL    HW1 5879   5.439  11.300   2.731
67994SOL    HW2 5880   5.290  11.272   2.729
67995SOL     OW 5881   9.722   0.479   8.791
67995SOL    HW1 5882   9.790   0.467   8.857
67995SOL    HW2 5883   9.705   0.573   8.790
67996SOL     OW 5884   8.458   5.999  11.516
67996SOL    HW1 5885   8.432   6.038  11.433
67996SOL    HW2 5886   8.412   6.051  11.582
67997SOL     OW 5887   6.248   3.088   1.589
67997SOL    HW1 5888   6.317   3.023   1.580
67997SOL    HW2 5889   6.167   3.039   1.583
67998SOL     OW 5890   1.613   1.933  12.625
67998SOL    HW1 5891   1.540   1.994  12.637
67998SOL    HW2 5892   1.614   1.916  12.530
67999SOL     OW 5893   4.678  10.224   6.140
67999SOL    HW1 5894   4.669  10.140   6.185
67999SOL    HW2 5895   4.643  10.209   6.052
68000SOL     OW 5896  14.357   3.435   6.956
68000SOL    HW1 5897  14.341   3.521   6.917
68000SOL    HW2 5898  14.289   3.379   6.921
68001SOL     OW 5899   6.603  10.446   5.956
68001SOL    HW1 5900   6.655  10.492   5.890
68001SOL    HW2 5901   6.518  10.432   5.915
68002SOL     OW 5902   4.474  14.651   3.696
68002SOL    HW1 5903   4.440  14.595   3.627
68002SOL    HW2 5904   4.569  14.655   3.680
68003SOL     OW 5905   6.782   7.220   8.981
68003SOL    HW1 5906   6.708   7.178   9.026
68003SOL    HW2 5907   6.743   7.254   8.900
68004SOL     OW 5908   4.786   2.082   3.117
68004SOL    HW1 5909   4.752   2.040   3.039
68004SOL    HW2 5910   4.839   2.015   3.160
68005SOL     OW 5911   8.860   9.180   7.216
68005SOL    HW1 5912   8.926   9.112   7.207
68005SOL    HW2 5913   8.846   9.187   7.311
68006SOL     OW 5914   9.252   1.826   5.972
68006SOL    HW1 5915   9.200   1.853   6.048
68006SOL    HW2 5916   9.329   1.883   5.975
68007SOL     OW 5917   8.288  12.214   9.881
68007SOL    HW1 5918   8.285  12.118   9.883
68007SOL    HW2 5919   8.235  12.241   9.957
68008SOL     OW 5920   1.431   2.952   1.336
68008SOL    HW1 5921   1.338   2.932   1.347
68008SOL    HW2 5922   1.462   2.887   1.273
68009SOL     OW 5923   6.076   1.220   8.994
68009SOL    HW1 5924   6.124   1.298   9.022
68009SOL    HW2 5925   5.989   1.231   9.032
68010SOL     OW 5926   0.005   7.696   6.898
68010SOL    HW1 5927   0.045   7.620   6.941
68010SOL    HW2 5928   0.078   7.743   6.859
68011SOL     OW 5929   4.304  11.052   3.565
68011SOL    HW1 5930   4.302  10.974   3.511
68011SOL    HW2 5931   4.217  11.092   3.554
68012SOL     OW 5932   8.607  11.071   3.205
68012SOL    HW1 5933   8.526  11.084   3.156
68012SOL    HW2 5934   8.597  10.987   3.248
68013SOL     OW 5935  13.464   6.779   0.565
68013SOL    HW1 5936  13.483   6.793   0.658
68013SOL    HW2 5937  13.404   6.849   0.541
68014SOL     OW 5938   0.197  12.684   2.020
68014SOL    HW1 5939   0.270  12.642   2.065
68014SOL    HW2 5940   0.160  12.744   2.084
68015SOL     OW 5941   5.911  11.070   3.603
68015SOL    HW1 5942   6.004  11.091   3.600
68015SOL    HW2 5943   5.908  10.974   3.607
68016SOL     OW 5944   9.383  11.669   4.624
68016SOL    HW1 5945   9.461  11.627   4.588
68016SOL    HW2 5946   9.318  11.599   4.628
68017SOL     OW 5947   2.205  12.247   7.408
68017SOL    HW1 5948   2.134  12.302   7.440
68017SOL    HW2 5949   2.243  12.297   7.335
68018SOL     OW 5950   2.657   7.665  12.478
68018SOL    HW1 5951   2.735   7.617  12.503
68018SOL    HW2 5952   2.584   7.606  12.499
68019SOL     OW 5953   1.572  10.535  13.140
68019SOL    HW1 5954   1.481  10.508  13.130
68019SOL    HW2 5955   1.623  10.464  13.101
68020SOL     OW 5956   4.672   5.086   4.048
68020SOL    HW1 5957   4.650   5.000   4.012
68020SOL    HW2 5958   4.655   5.078   4.142
68021SOL     OW 5959   8.892   5.119   0.562
68021SOL    HW1 5960   8.873   5.212   0.547
68021SOL    HW2 5961   8.981   5.118   0.596
68022SOL     OW 5962   9.801  13.780   4.263
68022SOL    HW1 5963   9.775  13.868   4.291
68022SOL    HW2 5964   9.803  13.786   4.167
68023SOL     OW 5965  12.965   3.351   1.523
68023SOL    HW1 5966  12.986   3.267   1.481
68023SOL    HW2 5967  12.872   3.363   1.507
68024SOL     OW 5968  13.869   9.204   0.435
68024SOL    HW1 5969  13.955   9.162   0.425
68024SOL    HW2 5970  13.818   9.171   0.361
68025SOL     OW 5971   6.262   7.587   7.493
68025SOL    HW1 5972   6.289   7.575   7.402
68025SOL    HW2 5973   6.230   7.677   7.497
68026SOL     OW 5974   4.536   1.852  14.342
68026SOL    HW1 5975   4.473   1.786  14.370
68026SOL    HW2 5976   4.522   1.926  14.401
68027SOL     OW 5977   7.341  11.700   0.802
68027SOL    HW1 5978   7.275  11.759   0.840
68027SOL    HW2 5979   7.382  11.659   0.878
68028SOL     OW 5980  13.200   9.134   0.527
68028SOL    HW1 5981  13.230   9.052   0.489
68028SOL    HW2 5982  13.280   9.181   0.550
68029SOL     OW 5983   7.100   9.719   1.638
68029SOL    HW1 5984   7.099   9.815   1.635
68029SOL    HW2 5985   7.193   9.695   1.637
68030SOL     OW 5986   8.919   6.617  13.075
68030SOL    HW1 5987   8.978   6.543  13.057
68030SOL    HW2 5988   8.960   6.691  13.031
68031SOL     OW 5989   5.584   4.641   7.744
68031SOL    HW1 5990   5.660   4.695   7.766
68031SOL    HW2 5991   5.613   4.588   7.669
68032SOL     OW 5992   6.241  10.608  12.442
68032SOL    HW1 5993   6.331  10.634  12.426
68032SOL    HW2 5994   6.214  10.661  12.517
68033SOL     OW 5995  12.739   9.605   2.702
68033SOL    HW1 5996  12.808   9.540   2.687
68033SOL    HW2 5997  12.730   9.609   2.797
68034SOL     OW 5998   9.852  10.103  12.762
68034SOL    HW1 5999   9.937  10.130  12.728
68034SOL    HW2 6000   9.873  10.033  12.824
68035SOL     OW 6001   3.266   5.820  12.402
68035SOL    HW1 6002   3.316   5.901  12.408
68035SOL    HW2 6003   3.232   5.819  12.313
68036SOL     OW 6004  13.737   5.781   7.235
68036SOL    HW1 6005  13.765   5.863   7.274
68036SOL    HW2 6006  13.763   5.788   7.143
68037SOL     OW 6007   8.619   3.776  14.032
68037SOL    HW1 6008   8.634   3.857  14.081
68037SOL    HW2 6009   8.532   3.787  13.992
68038SOL     OW 6010   5.939  13.402   5.137
68038SOL    HW1 6011   5.946  13.480   5.192
68038SOL    HW2 6012   5.851  13.368   5.155
68039SOL     OW 6013   2.824   1.813   3.995
68039SOL    HW1 6014   2.907   1.773   3.971
68039SOL    HW2 6015   2.758   1.760   3.951
68040SOL     OW 6016   1.318   9.602   0.660
68040SOL    HW1 6017   1.273   9.518   0.664
68040SOL    HW2 6018   1.404   9.585   0.699
68041SOL     OW 6019  13.982   7.384  10.331
68041SOL    HW1 6020  13.986   7.452  10.399
68041SOL    HW2 6021  14.063   7.335  10.341
68042SOL     OW 6022  12.759   9.244  10.407
68042SOL    HW1 6023  12.801   9.309  10.464
68042SOL    HW2 6024  12.686   9.291  10.366
68043SOL     OW 6025  14.772   5.797  11.252
68043SOL    HW1 6026  14.827   5.875  11.261
68043SOL    HW2 6027  14.808   5.750  11.177
68044SOL     OW 6028  13.160   7.862  14.487
68044SOL    HW1 6029  13.223   7.886  14.419
68044SOL    HW2 6030  13.099   7.935  14.490
68045SOL     OW 6031  13.825   0.813   8.998
68045SOL    HW1 6032  13.907   0.764   9.008
68045SOL    HW2 6033  13.758   0.745   8.989
68046SOL     OW 6034   9.305  13.701   4.956
68046SOL    HW1 6035   9.383  13.752   4.978
68046SOL    HW2 6036   9.339  13.614   4.934
68047SOL     OW 6037   6.524   9.877   7.765
68047SOL    HW1 6038   6.599   9.823   7.739
68047SOL    HW2 6039   6.534   9.886   7.860
68048SOL     OW 6040  12.182   2.894   5.329
68048SOL    HW1 6041  12.200   2.941   5.248
68048SOL    HW2 6042  12.139   2.959   5.385
68049SOL     OW 6043   2.366   8.518   3.979
68049SOL    HW1 6044   2.304   8.590   3.992
68049SOL    HW2 6045   2.452   8.560   3.980
68050SOL     OW 6046  14.386   9.238   1.778
68050SOL    HW1 6047  14.300   9.262   1.813
68050SOL    HW2 6048  14.441   9.314   1.796
68051SOL     OW 6049   2.652   2.791   7.976
68051SOL    HW1 6050   2.654   2.857   7.907
68051SOL    HW2 6051   2.604   2.834   8.048
68052SOL     OW 6052  12.144   3.706   8.099
68052SOL    HW1 6053  12.125   3.773   8.033
68052SOL    HW2 6054  12.206   3.749   8.158
68053SOL     OW 6055   9.878   5.076  11.766
68053SOL    HW1 6056   9.952   5.098  11.823
68053SOL    HW2 6057   9.916   5.028  11.693
68054SOL     OW 6058   3.139   6.974  10.806
68054SOL    HW1 6059   3.108   6.908  10.744
68054SOL    HW2 6060   3.102   6.947  10.890
68055SOL     OW 6061  10.435   1.581  10.874
68055SOL    HW1 6062  10.452   1.513  10.809
68055SOL    HW2 6063  10.342   1.601  10.864
68056SOL     OW 6064   5.263   4.359  12.113
68056SOL    HW1 6065   5.171   4.385  12.105
68056SOL    HW2 6066   5.298   4.364  12.024
68057SOL     OW 6067   3.246   6.142   8.983
68057SOL    HW1 6068   3.262   6.051   8.958
68057SOL    HW2 6069   3.288   6.194   8.914
68058SOL     OW 6070   0.210   3.249  10.994
68058SOL    HW1 6071   0.234   3.228  10.903
68058SOL    HW2 6072   0.247   3.177  11.045
68059SOL     OW 6073   0.525   6.481  11.244
68059SOL    HW1 6074   0.536   6.505  11.336
68059SOL    HW2 6075   0.438   6.443  11.239
68060SOL     OW 6076   8.837   6.116   8.360
68060SOL    HW1 6077   8.928   6.095   8.341
68060SOL    HW2 6078   8.786   6.059   8.303
68061SOL     OW 6079   1.792   5.254   1.758
68061SOL    HW1 6080   1.854   5.326   1.750
68061SOL    HW2 6081   1.835   5.190   1.814
68062SOL     OW 6082   1.694  10.988  13.137
68062SOL    HW1 6083   1.735  11.037  13.209
68062SOL    HW2 6084   1.602  11.013  13.141
68063SOL     OW 6085  14.803   6.227   2.917
68063SOL    HW1 6086  14.767   6.158   2.974
68063SOL    HW2 6087  14.784   6.308   2.964
68064SOL     OW 6088  13.074  11.981  11.325
68064SOL    HW1 6089  13.020  11.924  11.380
68064SOL    HW2 6090  13.019  12.058  11.309
68065SOL     OW 6091   0.910  14.558   3.644
68065SOL    HW1 6092   0.874  14.506   3.573
68065SOL    HW2 6093   0.881  14.647   3.627
68066SOL     OW 6094   2.011  12.562   8.473
68066SOL    HW1 6095   1.916  12.571   8.467
68066SOL    HW2 6096   2.040  12.643   8.513
68067SOL     OW 6097   8.524   0.187   6.526
68067SOL    HW1 6098   8.552   0.106   6.483
68067SOL    HW2 6099   8.602   0.243   6.524
68068SOL     OW 6100   9.501   0.787   6.429
68068SOL    HW1 6101   9.437   0.722   6.399
68068SOL    HW2 6102   9.546   0.814   6.349
68069SOL     OW 6103   1.591   2.080   9.913
68069SOL    HW1 6104   1.526   2.010   9.910
68069SOL    HW2 6105   1.591   2.110  10.004
68070SOL     OW 6106   4.142   9.315  13.121
68070SOL    HW1 6107   4.135   9.287  13.030
68070SOL    HW2 6108   4.214   9.379  13.121
68071SOL     OW 6109  13.293  11.080  14.829
68071SOL    HW1 6110  13.328  11.037  14.751
68071SOL    HW2 6111  13.299  11.013   0.030
68072SOL     OW 6112  13.297  11.778  14.239
68072SOL    HW1 6113  13.216  11.800  14.193
68072SOL    HW2 6114  13.269  11.726  14.314
68073SOL     OW 6115   8.487   5.420   1.375
68073SOL    HW1 6116   8.571   5.439   1.335
68073SOL    HW2 6117   8.423   5.439   1.306
68074SOL     OW 6118   0.033   4.364   4.424
68074SOL    HW1 6119   0.094   4.318   4.365
68074SOL    HW2 6120   0.040   4.456   4.399
68075SOL     OW 6121   0.579  14.082   6.623
68075SOL    HW1 6122   0.612  14.167   6.650
68075SOL    HW2 6123   0.656  14.025   6.622
68076SOL     OW 6124  14.737   2.426   8.124
68076SOL    HW1 6125  14.660   2.401   8.175
68076SOL    HW2 6126  14.747   2.520   8.140
68077SOL     OW 6127   7.386   9.464   4.177
68077SOL    HW1 6128   7.308   9.408   4.174
68077SOL    HW2 6129   7.351   9.552   4.186
68078SOL     OW 6130  13.176   7.177  11.986
68078SOL    HW1 6131  13.220   7.105  11.940
68078SOL    HW2 6132  13.182   7.154  12.078
68079SOL     OW 6133   6.908   4.500   6.980
68079SOL    HW1 6134   6.971   4.571   6.968
68079SOL    HW2 6135   6.841   4.516   6.914
68080SOL     OW 6136   2.728   4.634   7.481
68080SOL    HW1 6137   2.816   4.624   7.444
68080SOL    HW2 6138   2.696   4.718   7.448
68081SOL     OW 6139   9.599   6.108  13.647
68081SOL    HW1 6140   9.618   6.174  13.581
68081SOL    HW2 6141   9.678   6.054  13.650
68082SOL     OW 6142   1.090   4.476   9.559
68082SOL    HW1 6143   1.092   4.479   9.464
68082SOL    HW2 6144   1.087   4.568   9.586
68083SOL     OW 6145   7.691   3.055   2.434
68083SOL    HW1 6146   7.661   3.137   2.471
68083SOL    HW2 6147   7.678   3.064   2.340
68084SOL     OW 6148   6.295   4.105  11.585
68084SOL    HW1 6149   6.321   4.197  11.585
68084SOL    HW2 6150   6.374   4.058  11.611
68085SOL     OW 6151  12.168   6.668   6.392
68085SOL    HW1 6152  12.178   6.733   6.461
68085SOL    HW2 6153  12.245   6.681   6.336
68086SOL     OW 6154   9.232  12.951   5.338
68086SOL    HW1 6155   9.323  12.923   5.343
68086SOL    HW2 6156   9.182  12.877   5.374
68087SOL     OW 6157  12.224  12.870   8.925
68087SOL    HW1 6158  12.207  12.964   8.933
68087SOL    HW2 6159  12.307  12.857   8.971
68088SOL     OW 6160   0.569  10.509  14.672
68088SOL    HW1 6161   0.595  10.464  14.592
68088SOL    HW2 6162   0.493  10.562  14.647
68089SOL     OW 6163  11.381   7.769  13.492
68089SOL    HW1 6164  11.327   7.726  13.425
68089SOL    HW2 6165  11.451   7.811  13.442
68090SOL     OW 6166   7.955  10.091   6.576
68090SOL    HW1 6167   7.897  10.064   6.647
68090SOL    HW2 6168   8.019  10.020   6.570
68091SOL     OW 6169   2.611   6.554   2.243
68091SOL    HW1 6170   2.643   6.537   2.154
68091SOL    HW2 6171   2.579   6.469   2.273
68092SOL     OW 6172   6.533   1.783   1.741
68092SOL    HW1 6173   6.599   1.742   1.685
68092SOL    HW2 6174   6.555   1.753   1.830
68093SOL     OW 6175   1.940   1.740   9.995
68093SOL    HW1 6176   1.849   1.712   9.991
68093SOL    HW2 6177   1.976   1.717   9.909
68094SOL     OW 6178   0.126  10.527   0.712
68094SOL    HW1 6179   0.195  10.587   0.742
68094SOL    HW2 6180   0.158  10.440   0.736
68095SOL     OW 6181   5.519   4.521   3.545
68095SOL    HW1 6182   5.538   4.610   3.514
68095SOL    HW2 6183   5.487   4.475   3.467
68096SOL     OW 6184   5.488   8.181  14.449
68096SOL    HW1 6185   5.483   8.276  14.443
68096SOL    HW2 6186   5.404   8.150  14.416
68097SOL     OW 6187  12.002  12.273   9.933
68097SOL    HW1 6188  11.996  12.181   9.910
68097SOL    HW2 6189  12.079  12.304   9.887
68098SOL     OW 6190   1.765   5.444  12.078
68098SOL    HW1 6191   1.852   5.483  12.076
68098SOL    HW2 6192   1.705   5.518  12.083
68099SOL     OW 6193   3.512   6.828  11.012
68099SOL    HW1 6194   3.433   6.775  11.026
68099SOL    HW2 6195   3.508   6.853  10.920
68100SOL     OW 6196   8.374  13.172   2.257
68100SOL    HW1 6197   8.427  13.251   2.249
68100SOL    HW2 6198   8.284  13.204   2.255
68101SOL     OW 6199  14.678   7.504  11.240
68101SOL    HW1 6200  14.642   7.428  11.287
68101SOL    HW2 6201  14.675   7.478  11.148
68102SOL     OW 6202   5.158   6.149  12.879
68102SOL    HW1 6203   5.153   6.132  12.785
68102SOL    HW2 6204   5.082   6.205  12.897
68103SOL     OW 6205   3.414  11.376   8.772
68103SOL    HW1 6206   3.388  11.455   8.725
68103SOL    HW2 6207   3.400  11.304   8.710
68104SOL     OW 6208   0.702   8.967  13.766
68104SOL    HW1 6209   0.640   8.901  13.735
68104SOL    HW2 6210   0.651   9.022  13.825
68105SOL     OW 6211  11.407   0.233   9.755
68105SOL    HW1 6212  11.320   0.246   9.717
68105SOL    HW2 6213  11.403   0.148   9.798
68106SOL     OW 6214   5.388   2.157  12.642
68106SOL    HW1 6215   5.359   2.236  12.596
68106SOL    HW2 6216   5.353   2.167  12.731
68107SOL     OW 6217   7.920   4.433   8.370
68107SOL    HW1 6218   7.893   4.521   8.344
68107SOL    HW2 6219   7.842   4.379   8.361
68108SOL     OW 6220  10.023  13.030   3.147
68108SOL    HW1 6221  10.030  12.999   3.238
68108SOL    HW2 6222  10.024  13.126   3.154
68109SOL     OW 6223   5.499   9.700   9.943
68109SOL    HW1 6224   5.543   9.689   9.858
68109SOL    HW2 6225   5.408   9.677   9.926
68110SOL     OW 6226  14.709   6.128  14.262
68110SOL    HW1 6227  14.682   6.042  14.231
68110SOL    HW2 6228  14.800   6.117  14.289
68111SOL     OW 6229   8.894   2.939  12.005
68111SOL    HW1 6230   8.895   3.030  12.034
68111SOL    HW2 6231   8.826   2.935  11.938
68112SOL     OW 6232   7.841  14.177   6.263
68112SOL    HW1 6233   7.828  14.100   6.319
68112SOL    HW2 6234   7.927  14.163   6.223
68113SOL     OW 6235  12.471  10.993  14.232
68113SOL    HW1 6236  12.402  10.953  14.285
68113SOL    HW2 6237  12.435  10.997  14.144
68114SOL     OW 6238  10.201  12.002   6.429
68114SOL    HW1 6239  10.285  12.025   6.469
68114SOL    HW2 6240  10.199  11.906   6.429
68115SOL     OW 6241  12.663   0.181   3.057
68115SOL    HW1 6242  12.638   0.269   3.086
68115SOL    HW2 6243  12.635   0.124   3.129
68116SOL     OW 6244   3.220  13.123  13.507
68116SOL    HW1 6245   3.227  13.118  13.411
68116SOL    HW2 6246   3.132  13.157  13.522
68117SOL     OW 6247   6.164   3.719  13.942
68117SOL    HW1 6248   6.076   3.682  13.931
68117SOL    HW2 6249   6.214   3.682  13.869
68118SOL     OW 6250   2.568   8.721   7.065
68118SOL    HW1 6251   2.564   8.715   6.970
68118SOL    HW2 6252   2.478   8.711   7.094
68119SOL     OW 6253  10.678   2.746   6.479
68119SOL    HW1 6254  10.588   2.717   6.496
68119SOL    HW2 6255  10.694   2.814   6.544
68120SOL     OW 6256   4.347   5.963   5.120
68120SOL    HW1 6257   4.331   5.891   5.181
68120SOL    HW2 6258   4.395   5.922   5.048
68121SOL     OW 6259   5.040  10.046  13.319
68121SOL    HW1 6260   5.011   9.958  13.298
68121SOL    HW2 6261   4.983  10.104  13.268
68122SOL     OW 6262  12.616   8.560   0.083
68122SOL    HW1 6263  12.582   8.639   0.040
68122SOL    HW2 6264  12.597   8.489   0.022
68123SOL     OW 6265   4.734   3.772  14.366
68123SOL    HW1 6266   4.817   3.813  14.389
68123SOL    HW2 6267   4.721   3.704  14.432
68124SOL     OW 6268   3.395  14.464   7.232
68124SOL    HW1 6269   3.358  14.537   7.282
68124SOL    HW2 6270   3.379  14.487   7.141
68125SOL     OW 6271   2.329   1.809  10.483
68125SOL    HW1 6272   2.278   1.730  10.465
68125SOL    HW2 6273   2.411   1.796  10.436
68126SOL     OW 6274   3.469  14.419   8.675
68126SOL    HW1 6275   3.400  14.358   8.651
68126SOL    HW2 6276   3.545  14.364   8.694
68127SOL     OW 6277   5.189   7.855   4.023
68127SOL    HW1 6278   5.203   7.784   4.085
68127SOL    HW2 6279   5.227   7.932   4.065
68128SOL     OW 6280   3.046   0.365  12.703
68128SOL    HW1 6281   3.079   0.382  12.615
68128SOL    HW2 6282   3.026   0.451  12.739
68129SOL     OW 6283  14.192   9.950  12.374
68129SOL    HW1 6284  14.183   9.933  12.280
68129SOL    HW2 6285  14.134   9.886  12.415
68130SOL     OW 6286   5.049   1.584   9.273
68130SOL    HW1 6287   5.090   1.670   9.267
68130SOL    HW2 6288   4.960   1.601   9.302
68131SOL     OW 6289  14.323   8.119   2.217
68131SOL    HW1 6290  14.387   8.147   2.151
68131SOL    HW2 6291  14.291   8.035   2.186
68132SOL     OW 6292   4.693   1.190   9.741
68132SOL    HW1 6293   4.663   1.190   9.832
68132SOL    HW2 6294   4.786   1.209   9.746
68133SOL     OW 6295   5.990   0.534  10.421
68133SOL    HW1 6296   6.076   0.548  10.461
68133SOL    HW2 6297   5.948   0.620  10.423
68134SOL     OW 6298   2.273   2.905   6.242
68134SOL    HW1 6299   2.299   2.870   6.327
68134SOL    HW2 6300   2.182   2.879   6.231
68135SOL     OW 6301   0.541   4.837  11.941
68135SOL    HW1 6302   0.500   4.899  12.002
68135SOL    HW2 6303   0.602   4.891  11.890
68136SOL     OW 6304  12.367  12.080   0.087
68136SOL    HW1 6305  12.424  12.150   0.120
68136SOL    HW2 6306  12.280  12.120   0.083
68137SOL     OW 6307   4.574  12.915   9.896
68137SOL    HW1 6308   4.617  12.833   9.920
68137SOL    HW2 6309   4.597  12.929   9.804
68138SOL     OW 6310   6.088  12.968   9.766
68138SOL    HW1 6311   6.038  12.945   9.844
68138SOL    HW2 6312   6.155  12.900   9.759
68139SOL     OW 6313  11.624   9.056  10.529
68139SOL    HW1 6314  11.577   9.139  10.541
68139SOL    HW2 6315  11.622   9.042  10.434
68140SOL     OW 6316  11.477   1.844   8.748
68140SOL    HW1 6317  11.500   1.757   8.714
68140SOL    HW2 6318  11.535   1.857   8.823
68141SOL     OW 6319  10.546   2.073  13.998
68141SOL    HW1 6320  10.485   2.024  13.943
68141SOL    HW2 6321  10.494   2.144  14.034
68142SOL     OW 6322   3.786   5.678  11.426
68142SOL    HW1 6323   3.836   5.663  11.346
68142SOL    HW2 6324   3.726   5.604  11.432
68143SOL     OW 6325   7.543   3.393   8.399
68143SOL    HW1 6326   7.633   3.414   8.374
68143SOL    HW2 6327   7.491   3.411   8.321
68144SOL     OW 6328   2.223   7.722   4.917
68144SOL    HW1 6329   2.226   7.807   4.960
68144SOL    HW2 6330   2.288   7.728   4.847
68145SOL     OW 6331  12.786  10.676  14.796
68145SOL    HW1 6332  12.827  10.589  14.790
68145SOL    HW2 6333  12.859  10.737  14.797
68146SOL     OW 6334  10.323   5.952   4.415
68146SOL    HW1 6335  10.416   5.961   4.399
68146SOL    HW2 6336  10.316   5.918   4.504
68147SOL     OW 6337   8.770   4.528   4.946
68147SOL    HW1 6338   8.702   4.535   4.880
68147SOL    HW2 6339   8.729   4.478   5.017
68148SOL     OW 6340   1.146  14.862   4.448
68148SOL    HW1 6341   1.077   0.024   4.507
68148SOL    HW2 6342   1.126  14.770   4.432
68149SOL     OW 6343  13.263   5.331   9.352
68149SOL    HW1 6344  13.297   5.265   9.412
68149SOL    HW2 6345  13.205   5.282   9.293
68150SOL     OW 6346   6.166   4.784   8.169
68150SOL    HW1 6347   6.162   4.854   8.233
68150SOL    HW2 6348   6.149   4.704   8.219
68151SOL     OW 6349   7.959   7.208  11.447
68151SOL    HW1 6350   7.886   7.243  11.395
68151SOL    HW2 6351   8.025   7.277  11.444
68152SOL     OW 6352   6.761   1.683  10.273
68152SOL    HW1 6353   6.830   1.681  10.339
68152SOL    HW2 6354   6.688   1.728  10.315
68153SOL     OW 6355   4.367   0.414   9.200
68153SOL    HW1 6356   4.367   0.319   9.189
68153SOL    HW2 6357   4.458   0.439   9.185
68154SOL     OW 6358  13.314   5.745   6.504
68154SOL    HW1 6359  13.270   5.830   6.492
68154SOL    HW2 6360  13.249   5.691   6.548
68155SOL     OW 6361   4.226   2.052   4.675
68155SOL    HW1 6362   4.251   2.144   4.687
68155SOL    HW2 6363   4.297   2.013   4.625
68156SOL     OW 6364  11.217  14.188   0.615
68156SOL    HW1 6365  11.299  14.150   0.583
68156SOL    HW2 6366  11.202  14.145   0.699
68157SOL     OW 6367   4.369   6.092   6.731
68157SOL    HW1 6368   4.330   6.131   6.653
68157SOL    HW2 6369   4.462   6.084   6.710
68158SOL     OW 6370   2.677   4.104   5.146
68158SOL    HW1 6371   2.773   4.100   5.145
68158SOL    HW2 6372   2.654   4.089   5.238
68159SOL     OW 6373   6.421   1.013   3.123
68159SOL    HW1 6374   6.473   1.056   3.055
68159SOL    HW2 6375   6.369   0.948   3.077
68160SOL     OW 6376   2.201   8.031  14.697
68160SOL    HW1 6377   2.281   8.054  14.744
68160SOL    HW2 6378   2.182   8.108  14.643
68161SOL     OW 6379   8.245   1.048   4.923
68161SOL    HW1 6380   8.162   1.021   4.962
68161SOL    HW2 6381   8.222   1.123   4.867
68162SOL     OW 6382   9.994   4.981   0.418
68162SOL    HW1 6383  10.056   4.962   0.488
68162SOL    HW2 6384   9.999   4.905   0.359
68163SOL     OW 6385  14.189   1.514   2.245
68163SOL    HW1 6386  14.225   1.428   2.270
68163SOL    HW2 6387  14.263   1.560   2.204
68164SOL     OW 6388  14.236   4.763  10.658
68164SOL    HW1 6389  14.258   4.824  10.729
68164SOL    HW2 6390  14.150   4.792  10.628
68165SOL     OW 6391   0.960  12.231   7.935
68165SOL    HW1 6392   1.006  12.157   7.896
68165SOL    HW2 6393   0.883  12.192   7.977
68166SOL     OW 6394   2.986   7.792   5.037
68166SOL    HW1 6395   2.970   7.733   4.964
68166SOL    HW2 6396   3.042   7.861   5.001
68167SOL     OW 6397   0.630   2.594   3.106
68167SOL    HW1 6398   0.652   2.664   3.044
68167SOL    HW2 6399   0.541   2.568   3.083
68168SOL     OW 6400   1.717  11.083   3.556
68168SOL    HW1 6401   1.654  11.107   3.624
68168SOL    HW2 6402   1.675  11.010   3.510
68169SOL     OW 6403  12.252   3.473   3.628
68169SOL    HW1 6404  12.346   3.454   3.632
68169SOL    HW2 6405  12.243   3.534   3.556
68170SOL     OW 6406  11.584  10.612  12.271
68170SOL    HW1 6407  11.602  10.662  12.192
68170SOL    HW2 6408  11.553  10.678  12.334
68171SOL     OW 6409   2.398   5.725   7.649
68171SOL    HW1 6410   2.480   5.773   7.637
68171SOL    HW2 6411   2.413   5.670   7.726
68172SOL     OW 6412   0.383   8.036   2.898
68172SOL    HW1 6413   0.340   8.098   2.839
68172SOL    HW2 6414   0.312   7.999   2.950
68173SOL     OW 6415  13.777  12.505   6.399
68173SOL    HW1 6416  13.799  12.525   6.308
68173SOL    HW2 6417  13.717  12.575   6.425
68174SOL     OW 6418   4.191   8.851   7.072
68174SOL    HW1 6419   4.195   8.783   7.005
68174SOL    HW2 6420   4.278   8.851   7.112
68175SOL     OW 6421  11.263  14.284   5.011
68175SOL    HW1 6422  11.275  14.256   4.920
68175SOL    HW2 6423  11.312  14.220   5.062
68176SOL     OW 6424   2.818   5.038   9.750
68176SOL    HW1 6425   2.877   5.060   9.821
68176SOL    HW2 6426   2.731   5.051   9.786
68177SOL     OW 6427   8.086  12.941   9.753
68177SOL    HW1 6428   8.084  13.037   9.749
68177SOL    HW2 6429   8.118  12.922   9.841
68178SOL     OW 6430   7.341   7.602   1.552
68178SOL    HW1 6431   7.371   7.653   1.477
68178SOL    HW2 6432   7.405   7.530   1.559
68179SOL     OW 6433   7.035   4.028  11.382
68179SOL    HW1 6434   6.984   4.100  11.420
68179SOL    HW2 6435   6.999   3.949  11.423
68180SOL     OW 6436  11.630   2.849  10.104
68180SOL    HW1 6437  11.607   2.886  10.189
68180SOL    HW2 6438  11.665   2.923  10.054
68181SOL     OW 6439   3.493   3.439   4.739
68181SOL    HW1 6440   3.508   3.347   4.720
68181SOL    HW2 6441   3.443   3.471   4.664
68182SOL     OW 6442   6.642   6.795  14.375
68182SOL    HW1 6443   6.557   6.759  14.348
68182SOL    HW2 6444   6.701   6.720  14.378
68183SOL     OW 6445   3.252   9.765  11.509
68183SOL    HW1 6446   3.278   9.847  11.468
68183SOL    HW2 6447   3.173   9.738  11.460
68184SOL     OW 6448   5.647   6.972   8.361
68184SOL    HW1 6449   5.560   7.004   8.337
68184SOL    HW2 6450   5.644   6.878   8.340
68185SOL     OW 6451   5.837   6.698  12.434
68185SOL    HW1 6452   5.903   6.703  12.504
68185SOL    HW2 6453   5.881   6.652  12.363
68186SOL     OW 6454   5.059  11.124  13.485
68186SOL    HW1 6455   5.072  11.200  13.542
68186SOL    HW2 6456   4.973  11.138  13.446
68187SOL     OW 6457   3.829   1.211   5.541
68187SOL    HW1 6458   3.839   1.216   5.636
68187SOL    HW2 6459   3.896   1.270   5.507
68188SOL     OW 6460   7.164   1.593  14.813
68188SOL    HW1 6461   7.103   1.522  14.832
68188SOL    HW2 6462   7.209   1.609   0.028
68189SOL     OW 6463   2.648   5.757  14.321
68189SOL    HW1 6464   2.703   5.741  14.397
68189SOL    HW2 6465   2.702   5.811  14.263
68190SOL     OW 6466   8.714   3.083  13.690
68190SOL    HW1 6467   8.716   3.069  13.596
68190SOL    HW2 6468   8.806   3.087  13.716
68191SOL     OW 6469   8.149   5.963  13.306
68191SOL    HW1 6470   8.157   6.038  13.247
68191SOL    HW2 6471   8.110   6.000  13.386
68192SOL     OW 6472  10.032   5.736  11.541
68192SOL    HW1 6473   9.982   5.655  11.542
68192SOL    HW2 6474  10.012   5.775  11.455
68193SOL     OW 6475   5.741  12.876   7.594
68193SOL    HW1 6476   5.721  12.937   7.664
68193SOL    HW2 6477   5.808  12.818   7.630
68194SOL     OW 6478  12.807   4.991   4.221
68194SOL    HW1 6479  12.804   4.925   4.152
68194SOL    HW2 6480  12.716   5.019   4.232
68195SOL     OW 6481  11.859   5.653   8.343
68195SOL    HW1 6482  11.885   5.650   8.251
68195SOL    HW2 6483  11.839   5.746   8.359
68196SOL     OW 6484  13.982   3.781  11.084
68196SOL    HW1 6485  14.049   3.797  11.017
68196SOL    HW2 6486  13.991   3.855  11.144
68197SOL     OW 6487   9.988   6.806  12.174
68197SOL    HW1 6488   9.961   6.890  12.136
68197SOL    HW2 6489  10.062   6.828  12.230
68198SOL     OW 6490   3.483  13.533   7.913
68198SOL    HW1 6491   3.436  13.464   7.959
68198SOL    HW2 6492   3.414  13.586   7.872
68199SOL     OW 6493  12.584  10.764   4.960
68199SOL    HW1 6494  12.613  10.725   5.043
68199SOL    HW2 6495  12.514  10.824   4.985
68200SOL     OW 6496   3.388  10.623   9.317
68200SOL    HW1 6497   3.327  10.664   9.256
68200SOL    HW2 6498   3.356  10.533   9.326
68201SOL     OW 6499   4.205   0.460   9.770
68201SOL    HW1 6500   4.258   0.420   9.701
68201SOL    HW2 6501   4.138   0.395   9.790
68202SOL     OW 6502  13.548  14.808  14.123
68202SOL    HW1 6503  13.522  14.740  14.185
68202SOL    HW2 6504  13.602   0.001  14.174
68203SOL     OW 6505   5.741   3.463   9.374
68203SOL    HW1 6506   5.832   3.471   9.403
68203SOL    HW2 6507   5.710   3.383   9.417
68204SOL     OW 6508   3.838  13.063   7.855
68204SOL    HW1 6509   3.871  13.102   7.774
68204SOL    HW2 6510   3.797  12.981   7.827
68205SOL     OW 6511   5.833  12.408   8.991
68205SOL    HW1 6512   5.877  12.458   8.922
68205SOL    HW2 6513   5.853  12.317   8.970
68206SOL     OW 6514   5.116   8.149  12.091
68206SOL    HW1 6515   5.157   8.230  12.121
68206SOL    HW2 6516   5.042   8.137  12.150
68207SOL     OW 6517   9.033  14.778   4.791
68207SOL    HW1 6518   9.037  14.699   4.737
68207SOL    HW2 6519   9.119  14.820   4.779
68208SOL     OW 6520  10.626   0.880   1.861
68208SOL    HW1 6521  10.570   0.873   1.783
68208SOL    HW2 6522  10.637   0.974   1.873
68209SOL     OW 6523  12.936   4.598   3.735
68209SOL    HW1 6524  12.848   4.578   3.768
68209SOL    HW2 6525  12.927   4.593   3.640
68210SOL     OW 6526   2.991  12.616   3.007
68210SOL    HW1 6527   2.911  12.666   2.989
68210SOL    HW2 6528   2.979  12.535   2.957
68211SOL     OW 6529   3.132   6.072   3.964
68211SOL    HW1 6530   3.095   6.029   3.887
68211SOL    HW2 6531   3.067   6.060   4.033
68212SOL     OW 6532   4.223   3.033  14.857
68212SOL    HW1 6533   4.240   3.004   0.079
68212SOL    HW2 6534   4.259   2.963  14.802
68213SOL     OW 6535  13.572  13.304  14.223
68213SOL    HW1 6536  13.569  13.377  14.285
68213SOL    HW2 6537  13.558  13.226  14.277
68214SOL     OW 6538   6.215   1.418   8.218
68214SOL    HW1 6539   6.148   1.370   8.267
68214SOL    HW2 6540   6.291   1.360   8.217
68215SOL     OW 6541   1.349   6.682   2.695
68215SOL    HW1 6542   1.419   6.698   2.632
68215SOL    HW2 6543   1.391   6.633   2.766
68216SOL     OW 6544   3.962  13.412   1.566
68216SOL    HW1 6545   3.953  13.489   1.621
68216SOL    HW2 6546   3.923  13.341   1.617
68217SOL     OW 6547  10.816   0.032   5.013
68217SOL    HW1 6548  10.876  14.827   4.995
68217SOL    HW2 6549  10.855   0.079   5.086
68218SOL     OW 6550   9.123  14.039   3.577
68218SOL    HW1 6551   9.152  13.949   3.593
68218SOL    HW2 6552   9.150  14.057   3.487
68219SOL     OW 6553   5.673   1.298  11.422
68219SOL    HW1 6554   5.628   1.369  11.378
68219SOL    HW2 6555   5.759   1.334  11.444
68220SOL     OW 6556  10.062  14.089  12.339
68220SOL    HW1 6557  10.133  14.144  12.373
68220SOL    HW2 6558  10.063  14.104  12.244
68221SOL     OW 6559  13.817   3.888  13.564
68221SOL    HW1 6560  13.865   3.947  13.506
68221SOL    HW2 6561  13.863   3.894  13.648
68222SOL     OW 6562   3.865   7.894   9.486
68222SOL    HW1 6563   3.922   7.963   9.522
68222SOL    HW2 6564   3.780   7.936   9.477
68223SOL     OW 6565  10.737   5.712   4.492
68223SOL    HW1 6566  10.674   5.713   4.420
68223SOL    HW2 6567  10.815   5.671   4.455
68224SOL     OW 6568   6.017   3.302   1.360
68224SOL    HW1 6569   5.984   3.212   1.352
68224SOL    HW2 6570   6.093   3.306   1.302
68225SOL     OW 6571   7.539   8.627   4.559
68225SOL    HW1 6572   7.514   8.589   4.644
68225SOL    HW2 6573   7.492   8.711   4.557
68226SOL     OW 6574   7.579   6.024   0.213
68226SOL    HW1 6575   7.656   5.985   0.171
68226SOL    HW2 6576   7.605   6.115   0.229
68227SOL     OW 6577   6.369  10.372  11.127
68227SOL    HW1 6578   6.426  10.446  11.107
68227SOL    HW2 6579   6.416  10.296  11.093
68228SOL     OW 6580  11.845   6.186   9.178
68228SOL    HW1 6581  11.798   6.223   9.104
68228SOL    HW2 6582  11.795   6.108   9.201
68229SOL     OW 6583  12.739   7.455  12.529
68229SOL    HW1 6584  12.678   7.508  12.478
68229SOL    HW2 6585  12.712   7.468  12.620
68230SOL     OW 6586   4.618   9.776   8.116
68230SOL    HW1 6587   4.599   9.869   8.102
68230SOL    HW2 6588   4.694   9.775   8.173
68231SOL     OW 6589   3.217   3.051   4.128
68231SOL    HW1 6590   3.187   3.017   4.212
68231SOL    HW2 6591   3.182   2.991   4.063
68232SOL     OW 6592   8.066   7.036  12.239
68232SOL    HW1 6593   8.012   6.961  12.213
68232SOL    HW2 6594   8.077   7.086  12.158
68233SOL     OW 6595   8.274   9.109  11.722
68233SOL    HW1 6596   8.342   9.149  11.776
68233SOL    HW2 6597   8.267   9.019  11.753
68234SOL     OW 6598   2.946  14.735   8.998
68234SOL    HW1 6599   2.939  14.713   8.905
68234SOL    HW2 6600   2.878  14.683   9.041
68235SOL     OW 6601   0.241   0.555   5.111
68235SOL    HW1 6602   0.154   0.532   5.142
68235SOL    HW2 6603   0.226   0.615   5.038
68236SOL     OW 6604   1.367  12.959   4.078
68236SOL    HW1 6605   1.395  13.029   4.018
68236SOL    HW2 6606   1.443  12.903   4.087
68237SOL     OW 6607  13.101   1.299  14.527
68237SOL    HW1 6608  13.112   1.371  14.589
68237SOL    HW2 6609  13.010   1.306  14.497
68238SOL     OW 6610   8.937  14.086   6.003
68238SOL    HW1 6611   8.895  14.164   6.040
68238SOL    HW2 6612   8.875  14.016   6.018
68239SOL     OW 6613  12.126   8.643   1.780
68239SOL    HW1 6614  12.064   8.712   1.755
68239SOL    HW2 6615  12.090   8.607   1.861
68240SOL     OW 6616   3.703   9.058   0.613
68240SOL    HW1 6617   3.744   9.062   0.527
68240SOL    HW2 6618   3.729   9.140   0.655
68241SOL     OW 6619  14.454   5.855   1.153
68241SOL    HW1 6620  14.529   5.809   1.192
68241SOL    HW2 6621  14.456   5.942   1.192
68242SOL     OW 6622  12.621   6.255   5.511
68242SOL    HW1 6623  12.652   6.325   5.569
68242SOL    HW2 6624  12.536   6.287   5.479
68243SOL     OW 6625   4.803   0.608  10.003
68243SOL    HW1 6626   4.737   0.640   9.942
68243SOL    HW2 6627   4.844   0.687  10.038
68244SOL     OW 6628   3.677   9.228   4.685
68244SOL    HW1 6629   3.646   9.202   4.598
68244SOL    HW2 6630   3.708   9.318   4.673
68245SOL     OW 6631  13.588   6.777   8.544
68245SOL    HW1 6632  13.585   6.807   8.635
68245SOL    HW2 6633  13.644   6.841   8.500
68246SOL     OW 6634  14.605   9.123   3.169
68246SOL    HW1 6635  14.559   9.157   3.093
68246SOL    HW2 6636  14.600   9.193   3.234
68247SOL     OW 6637  14.853  11.617   7.079
68247SOL    HW1 6638  14.803  11.645   7.156
68247SOL    HW2 6639  14.837  11.523   7.073
68248SOL     OW 6640   1.375  12.139  14.600
68248SOL    HW1 6641   1.349  12.228  14.624
68248SOL    HW2 6642   1.352  12.131  14.508
68249SOL     OW 6643  11.209   1.076   5.525
68249SOL    HW1 6644  11.287   1.114   5.566
68249SOL    HW2 6645  11.210   1.111   5.436
68250SOL     OW 6646  13.714   1.874   4.528
68250SOL    HW1 6647  13.792   1.866   4.583
68250SOL    HW2 6648  13.645   1.832   4.579
68251SOL     OW 6649  10.703   9.342   0.082
68251SOL    HW1 6650  10.739   9.287   0.012
68251SOL    HW2 6651  10.619   9.373   0.047
68252SOL     OW 6652   2.026   8.322   6.405
68252SOL    HW1 6653   1.945   8.317   6.355
68252SOL    HW2 6654   2.007   8.385   6.475
68253SOL     OW 6655  10.611   2.495   7.258
68253SOL    HW1 6656  10.550   2.427   7.229
68253SOL    HW2 6657  10.620   2.480   7.352
68254SOL     OW 6658   0.736   2.829  14.058
68254SOL    HW1 6659   0.716   2.736  14.065
68254SOL    HW2 6660   0.659   2.868  14.016
68255SOL     OW 6661   1.843   5.411   9.770
68255SOL    HW1 6662   1.910   5.462   9.724
68255SOL    HW2 6663   1.831   5.333   9.716
68256SOL     OW 6664   8.895  13.891   6.854
68256SOL    HW1 6665   8.900  13.888   6.949
68256SOL    HW2 6666   8.902  13.800   6.826
68257SOL     OW 6667   6.526  11.506   5.838
68257SOL    HW1 6668   6.614  11.511   5.875
68257SOL    HW2 6669   6.505  11.597   5.814
68258SOL     OW 6670   6.350   2.496  10.140
68258SOL    HW1 6671   6.358   2.591  10.126
68258SOL    HW2 6672   6.434   2.472  10.180
68259SOL     OW 6673  13.348  10.615   1.892
68259SOL    HW1 6674  13.422  10.573   1.848
68259SOL    HW2 6675  13.340  10.568   1.975
68260SOL     OW 6676  13.627   0.739   2.097
68260SOL    HW1 6677  13.649   0.655   2.138
68260SOL    HW2 6678  13.667   0.734   2.010
68261SOL     OW 6679  12.138   1.199   9.193
68261SOL    HW1 6680  12.140   1.188   9.288
68261SOL    HW2 6681  12.095   1.120   9.160
68262SOL     OW 6682  10.958  12.515  14.438
68262SOL    HW1 6683  10.884  12.541  14.493
68262SOL    HW2 6684  10.925  12.443  14.386
68263SOL     OW 6685   1.291   1.695   6.732
68263SOL    HW1 6686   1.298   1.753   6.657
68263SOL    HW2 6687   1.203   1.710   6.766
68264SOL     OW 6688   9.003   7.693   5.211
68264SOL    HW1 6689   8.984   7.612   5.162
68264SOL    HW2 6690   8.938   7.694   5.281
68265SOL     OW 6691   1.025   5.603  13.327
68265SOL    HW1 6692   0.960   5.543  13.363
68265SOL    HW2 6693   0.975   5.666  13.275
68266SOL     OW 6694   2.674   0.480   5.474
68266SOL    HW1 6695   2.753   0.442   5.436
68266SOL    HW2 6696   2.616   0.406   5.490
68267SOL     OW 6697   6.114  12.469   2.787
68267SOL    HW1 6698   6.042  12.531   2.799
68267SOL    HW2 6699   6.166  12.477   2.867
68268SOL     OW 6700   9.871   8.428   3.495
68268SOL    HW1 6701   9.861   8.521   3.472
68268SOL    HW2 6702   9.887   8.428   3.589
68269SOL     OW 6703  10.737   1.204   1.272
68269SOL    HW1 6704  10.829   1.181   1.260
68269SOL    HW2 6705  10.737   1.298   1.285
68270SOL     OW 6706   6.124   8.895  12.832
68270SOL    HW1 6707   6.202   8.932  12.790
68270SOL    HW2 6708   6.124   8.933  12.920
68271SOL     OW 6709   9.858   2.456   0.287
68271SOL    HW1 6710   9.800   2.495   0.353
68271SOL    HW2 6711   9.842   2.362   0.294
68272SOL     OW 6712   0.540   2.186  14.336
68272SOL    HW1 6713   0.527   2.100  14.375
68272SOL    HW2 6714   0.481   2.244  14.384
68273SOL     OW 6715  10.262   7.311   9.988
68273SOL    HW1 6716  10.207   7.253  10.040
68273SOL    HW2 6717  10.337   7.257   9.963
68274SOL     OW 6718   0.542  13.891  13.149
68274SOL    HW1 6719   0.469  13.938  13.107
68274SOL    HW2 6720   0.621  13.930  13.110
68275SOL     OW 6721   4.271   1.120   3.648
68275SOL    HW1 6722   4.305   1.206   3.625
68275SOL    HW2 6723   4.177   1.134   3.661
68276SOL     OW 6724   4.353   7.930  11.233
68276SOL    HW1 6725   4.283   7.990  11.206
68276SOL    HW2 6726   4.393   7.901  11.151
68277SOL     OW 6727  11.908   2.113  11.766
68277SOL    HW1 6728  11.997   2.092  11.792
68277SOL    HW2 6729  11.918   2.177  11.695
68278SOL     OW 6730   2.590  11.996  14.630
68278SOL    HW1 6731   2.552  12.079  14.659
68278SOL    HW2 6732   2.564  11.933  14.698
68279SOL     OW 6733   0.819  14.432  14.402
68279SOL    HW1 6734   0.825  14.367  14.471
68279SOL    HW2 6735   0.859  14.511  14.439
68280SOL     OW 6736   2.804   3.305   7.858
68280SOL    HW1 6737   2.785   3.351   7.777
68280SOL    HW2 6738   2.836   3.373   7.918
68281SOL     OW 6739  13.446   8.383  13.699
68281SOL    HW1 6740  13.532   8.362  13.737
68281SOL    HW2 6741  13.405   8.441  13.764
68282SOL     OW 6742   3.159   1.317   9.297
68282SOL    HW1 6743   3.158   1.295   9.390
68282SOL    HW2 6744   3.232   1.377   9.287
68283SOL     OW 6745   9.719  12.114   6.567
68283SOL    HW1 6746   9.814  12.122   6.566
68283SOL    HW2 6747   9.693  12.141   6.655
68284SOL     OW 6748  10.264  13.895   6.634
68284SOL    HW1 6749  10.201  13.840   6.586
68284SOL    HW2 6750  10.263  13.861   6.723
68285SOL     OW 6751   8.899  12.406   6.256
68285SOL    HW1 6752   8.852  12.325   6.278
68285SOL    HW2 6753   8.846  12.447   6.188
68286SOL     OW 6754  13.089   0.016  11.627
68286SOL    HW1 6755  13.073   0.089  11.685
68286SOL    HW2 6756  13.002  14.845  11.612
68287SOL     OW 6757   3.001  13.785  13.148
68287SOL    HW1 6758   3.062  13.715  13.126
68287SOL    HW2 6759   2.976  13.766  13.239
68288SOL     OW 6760   0.325   7.039  14.819
68288SOL    HW1 6761   0.365   7.037   0.038
68288SOL    HW2 6762   0.385   7.092  14.766
68289SOL     OW 6763  13.925   0.722   2.962
68289SOL    HW1 6764  13.875   0.790   3.008
68289SOL    HW2 6765  13.989   0.691   3.026
68290SOL     OW 6766  12.328  12.466   2.118
68290SOL    HW1 6767  12.268  12.399   2.152
68290SOL    HW2 6768  12.303  12.474   2.025
68291SOL     OW 6769   1.563   2.864   9.235
68291SOL    HW1 6770   1.648   2.842   9.197
68291SOL    HW2 6771   1.513   2.899   9.161
68292SOL     OW 6772  13.224  11.470   1.332
68292SOL    HW1 6773  13.243  11.379   1.357
68292SOL    HW2 6774  13.243  11.473   1.238
68293SOL     OW 6775   7.629   6.151  13.703
68293SOL    HW1 6776   7.574   6.229  13.715
68293SOL    HW2 6777   7.568   6.077  13.709
68294SOL     OW 6778   4.397   2.855   7.005
68294SOL    HW1 6779   4.332   2.915   7.041
68294SOL    HW2 6780   4.447   2.909   6.943
68295SOL     OW 6781  14.182  10.499   3.122
68295SOL    HW1 6782  14.097  10.491   3.166
68295SOL    HW2 6783  14.200  10.593   3.121
68296SOL     OW 6784   0.419   4.740  11.319
68296SOL    HW1 6785   0.402   4.658  11.272
68296SOL    HW2 6786   0.355   4.802  11.282
68297SOL     OW 6787   6.236  14.013   2.723
68297SOL    HW1 6788   6.267  14.029   2.633
68297SOL    HW2 6789   6.243  13.918   2.734
68298SOL     OW 6790   4.728  13.503  12.884
68298SOL    HW1 6791   4.753  13.411  12.894
68298SOL    HW2 6792   4.634  13.504  12.903
68299SOL     OW 6793  11.496   5.872   6.509
68299SOL    HW1 6794  11.526   5.803   6.449
68299SOL    HW2 6795  11.423   5.832   6.556
68300SOL     OW 6796  11.247   8.124   4.467
68300SOL    HW1 6797  11.275   8.033   4.469
68300SOL    HW2 6798  11.328   8.174   4.479
68301SOL     OW 6799   2.438   6.690   7.184
68301SOL    HW1 6800   2.529   6.694   7.155
68301SOL    HW2 6801   2.439   6.725   7.273
68302SOL     OW 6802   8.814   2.039   2.541
68302SOL    HW1 6803   8.718   2.035   2.535
68302SOL    HW2 6804   8.833   2.023   2.633
68303SOL     OW 6805   0.540   5.469   4.528
68303SOL    HW1 6806   0.487   5.549   4.540
68303SOL    HW2 6807   0.625   5.501   4.497
68304SOL     OW 6808   3.038  10.645   4.574
68304SOL    HW1 6809   3.012  10.712   4.637
68304SOL    HW2 6810   3.112  10.684   4.527
68305SOL     OW 6811   5.150  12.420   9.896
68305SOL    HW1 6812   5.187  12.392   9.812
68305SOL    HW2 6813   5.217  12.394   9.960
68306SOL     OW 6814   6.954   3.344   5.650
68306SOL    HW1 6815   7.048   3.351   5.664
68306SOL    HW2 6816   6.941   3.373   5.560
68307SOL     OW 6817   2.455  11.971   6.878
68307SOL    HW1 6818   2.550  11.969   6.862
68307SOL    HW2 6819   2.423  11.888   6.843
68308SOL     OW 6820   3.984   0.424  10.640
68308SOL    HW1 6821   3.969   0.497  10.700
68308SOL    HW2 6822   4.058   0.377  10.677
68309SOL     OW 6823  13.045   7.390   8.428
68309SOL    HW1 6824  13.103   7.342   8.369
68309SOL    HW2 6825  12.976   7.328   8.449
68310SOL     OW 6826  13.371  10.993   2.145
68310SOL    HW1 6827  13.461  10.977   2.174
68310SOL    HW2 6828  13.324  11.017   2.225
68311SOL     OW 6829   1.277   1.291   4.277
68311SOL    HW1 6830   1.292   1.320   4.187
68311SOL    HW2 6831   1.259   1.372   4.326
68312SOL     OW 6832  12.446   5.294  10.277
68312SOL    HW1 6833  12.395   5.374  10.290
68312SOL    HW2 6834  12.381   5.227  10.259
68313SOL     OW 6835   0.281  11.513   1.763
68313SOL    HW1 6836   0.307  11.497   1.673
68313SOL    HW2 6837   0.185  11.513   1.761
68314SOL     OW 6838   2.215   0.669   2.270
68314SOL    HW1 6839   2.232   0.642   2.360
68314SOL    HW2 6840   2.131   0.714   2.274
68315SOL     OW 6841   8.745   0.284   9.513
68315SOL    HW1 6842   8.806   0.241   9.573
68315SOL    HW2 6843   8.802   0.333   9.453
68316SOL     OW 6844   8.291   9.603   3.645
68316SOL    HW1 6845   8.297   9.591   3.740
68316SOL    HW2 6846   8.351   9.675   3.626
68317SOL     OW 6847   9.383   1.434  12.612
68317SOL    HW1 6848   9.293   1.402  12.599
68317SOL    HW2 6849   9.401   1.485  12.533
68318SOL     OW 6850  14.064  13.898  13.498
68318SOL    HW1 6851  13.980  13.935  13.469
68318SOL    HW2 6852  14.105  13.969  13.548
68319SOL     OW 6853   8.418  14.539   0.303
68319SOL    HW1 6854   8.459  14.469   0.252
68319SOL    HW2 6855   8.403  14.609   0.239
68320SOL     OW 6856   4.655  12.990   8.581
68320SOL    HW1 6857   4.645  12.898   8.556
68320SOL    HW2 6858   4.611  13.039   8.511
68321SOL     OW 6859   4.702   3.624   0.940
68321SOL    HW1 6860   4.755   3.643   0.863
68321SOL    HW2 6861   4.612   3.641   0.911
68322SOL     OW 6862   9.304  11.165   4.483
68322SOL    HW1 6863   9.398  11.159   4.465
68322SOL    HW2 6864   9.264  11.100   4.424
68323SOL     OW 6865   6.401   2.664   9.483
68323SOL    HW1 6866   6.319   2.695   9.521
68323SOL    HW2 6867   6.374   2.596   9.422
68324SOL     OW 6868   7.621   7.946  10.263
68324SOL    HW1 6869   7.714   7.964  10.272
68324SOL    HW2 6870   7.596   7.990  10.182
68325SOL     OW 6871   9.085   4.096  12.584
68325SOL    HW1 6872   9.105   4.012  12.624
68325SOL    HW2 6873   9.106   4.084  12.491
68326SOL     OW 6874   5.998  14.570  10.543
68326SOL    HW1 6875   6.048  14.651  10.540
68326SOL    HW2 6876   5.996  14.546  10.635
68327SOL     OW 6877   2.739   0.767   3.817
68327SOL    HW1 6878   2.744   0.779   3.912
68327SOL    HW2 6879   2.667   0.706   3.804
68328SOL     OW 6880   6.955  14.321   0.799
68328SOL    HW1 6881   6.874  14.367   0.821
68328SOL    HW2 6882   6.977  14.272   0.878
68329SOL     OW 6883  12.250  12.086   5.641
68329SOL    HW1 6884  12.292  12.133   5.569
68329SOL    HW2 6885  12.159  12.116   5.638
68330SOL     OW 6886   3.427  13.955   6.018
68330SOL    HW1 6887   3.332  13.939   6.024
68330SOL    HW2 6888   3.452  13.921   5.933
68331SOL     OW 6889  14.459   1.603   2.177
68331SOL    HW1 6890  14.484   1.605   2.270
68331SOL    HW2 6891  14.540   1.579   2.131
68332SOL     OW 6892   4.661   6.611   4.936
68332SOL    HW1 6893   4.598   6.612   4.864
68332SOL    HW2 6894   4.614   6.647   5.010
68333SOL     OW 6895   2.079  12.877   2.546
68333SOL    HW1 6896   2.108  12.785   2.551
68333SOL    HW2 6897   2.155  12.927   2.576
68334SOL     OW 6898  13.434  14.544   6.394
68334SOL    HW1 6899  13.432  14.473   6.330
68334SOL    HW2 6900  13.383  14.614   6.354
68335SOL     OW 6901   2.307   7.317   9.586
68335SOL    HW1 6902   2.263   7.258   9.647
68335SOL    HW2 6903   2.393   7.279   9.573
68336SOL     OW 6904  14.771  11.090   7.017
68336SOL    HW1 6905  14.799  11.015   7.069
68336SOL    HW2 6906  14.700  11.057   6.963
68337SOL     OW 6907   4.085  13.933   1.794
68337SOL    HW1 6908   4.101  13.847   1.754
68337SOL    HW2 6909   4.082  13.915   1.888
68338SOL     OW 6910   2.221   6.799  10.310
68338SOL    HW1 6911   2.169   6.813  10.389
68338SOL    HW2 6912   2.265   6.715  10.325
68339SOL     OW 6913   5.318  12.398   5.205
68339SOL    HW1 6914   5.232  12.359   5.219
68339SOL    HW2 6915   5.342  12.373   5.116
68340SOL     OW 6916   5.392   2.876  10.964
68340SOL    HW1 6917   5.436   2.958  10.987
68340SOL    HW2 6918   5.407   2.867  10.870
68341SOL     OW 6919  11.400  10.151   6.859
68341SOL    HW1 6920  11.395  10.158   6.763
68341SOL    HW2 6921  11.353  10.228   6.891
68342SOL     OW 6922  10.670   5.928   9.675
68342SOL    HW1 6923  10.575   5.925   9.668
68342SOL    HW2 6924  10.693   6.018   9.652
68343SOL     OW 6925   2.934   4.171  11.664
68343SOL    HW1 6926   2.890   4.129  11.738
68343SOL    HW2 6927   2.903   4.261  11.665
68344SOL     OW 6928  12.479  12.601  10.455
68344SOL    HW1 6929  12.393  12.593  10.497
68344SOL    HW2 6930  12.461  12.643  10.371
68345SOL     OW 6931  13.801   2.264  12.050
68345SOL    HW1 6932  13.799   2.183  12.000
68345SOL    HW2 6933  13.891   2.273  12.079
68346SOL     OW 6934  14.185   0.871  10.814
68346SOL    HW1 6935  14.216   0.820  10.889
68346SOL    HW2 6936  14.195   0.812  10.740
68347SOL     OW 6937   0.240   6.319  11.246
68347SOL    HW1 6938   0.185   6.278  11.178
68347SOL    HW2 6939   0.209   6.281  11.328
68348SOL     OW 6940   7.592   1.294   0.978
68348SOL    HW1 6941   7.565   1.263   0.891
68348SOL    HW2 6942   7.686   1.274   0.982
68349SOL     OW 6943   0.865   6.349   4.089
68349SOL    HW1 6944   0.801   6.278   4.091
68349SOL    HW2 6945   0.861   6.388   4.176
68350SOL     OW 6946   2.710  14.107   0.226
68350SOL    HW1 6947   2.686  14.062   0.306
68350SOL    HW2 6948   2.633  14.098   0.169
68351SOL     OW 6949   6.192   6.802   0.164
68351SOL    HW1 6950   6.219   6.714   0.189
68351SOL    HW2 6951   6.173   6.795   0.070
68352SOL     OW 6952   6.611   9.185   6.410
68352SOL    HW1 6953   6.637   9.192   6.318
68352SOL    HW2 6954   6.565   9.101   6.415
68353SOL     OW 6955   4.593   0.766  13.672
68353SOL    HW1 6956   4.563   0.747  13.583
68353SOL    HW2 6957   4.688   0.778  13.663
68354SOL     OW 6958   3.956   8.678   0.121
68354SOL    HW1 6959   4.041   8.689   0.164
68354SOL    HW2 6960   3.916   8.602   0.164
68355SOL     OW 6961   4.748   6.716   3.897
68355SOL    HW1 6962   4.742   6.631   3.942
68355SOL    HW2 6963   4.712   6.779   3.960
68356SOL     OW 6964  13.654   5.405   7.402
68356SOL    HW1 6965  13.642   5.343   7.473
68356SOL    HW2 6966  13.741   5.386   7.367
68357SOL     OW 6967   4.251  11.336   4.691
68357SOL    HW1 6968   4.320  11.372   4.747
68357SOL    HW2 6969   4.261  11.241   4.700
68358SOL     OW 6970   9.338   6.617  14.424
68358SOL    HW1 6971   9.289   6.699  14.433
68358SOL    HW2 6972   9.373   6.620  14.335
68359SOL     OW 6973   7.699  14.667  13.085
68359SOL    HW1 6974   7.678  14.677  13.177
68359SOL    HW2 6975   7.671  14.578  13.063
68360SOL     OW 6976   9.914   5.414   2.034
68360SOL    HW1 6977   9.820   5.398   2.022
68360SOL    HW2 6978   9.934   5.486   1.975
68361SOL     OW 6979   0.840   7.543   4.557
68361SOL    HW1 6980   0.754   7.571   4.525
68361SOL    HW2 6981   0.824   7.513   4.646
68362SOL     OW 6982  12.424  12.685   9.407
68362SOL    HW1 6983  12.460  12.596   9.405
68362SOL    HW2 6984  12.441  12.715   9.496
68363SOL     OW 6985   7.060   6.939   7.601
68363SOL    HW1 6986   7.058   6.877   7.528
68363SOL    HW2 6987   7.071   7.025   7.559
68364SOL     OW 6988   0.908   7.013   3.900
68364SOL    HW1 6989   0.815   7.020   3.923
68364SOL    HW2 6990   0.951   7.077   3.957
68365SOL     OW 6991   6.089   2.561   2.329
68365SOL    HW1 6992   6.098   2.615   2.251
68365SOL    HW2 6993   6.095   2.471   2.297
68366SOL     OW 6994  10.058  12.523  12.697
68366SOL    HW1 6995  10.066  12.490  12.787
68366SOL    HW2 6996  10.065  12.618  12.705
68367SOL     OW 6997   9.327   3.791   1.350
68367SOL    HW1 6998   9.345   3.710   1.302
68367SOL    HW2 6999   9.360   3.860   1.294
68368SOL     OW 7000   0.012   9.780   1.443
68368SOL    HW1 7001   0.033   9.856   1.388
68368SOL    HW2 7002  14.785   9.784   1.454
68369SOL     OW 7003  11.530   7.560   5.446
68369SOL    HW1 7004  11.583   7.555   5.526
68369SOL    HW2 7005  11.498   7.471   5.434
68370SOL     OW 7006   8.292  14.701   3.206
68370SOL    HW1 7007   8.353  14.760   3.250
68370SOL    HW2 7008   8.258  14.645   3.276
68371SOL     OW 7009  11.096   5.858   9.805
68371SOL    HW1 7010  11.003   5.868   9.827
68371SOL    HW2 7011  11.124   5.782   9.855
68372SOL     OW 7012  11.057  10.429   1.822
68372SOL    HW1 7013  11.143  10.470   1.816
68372SOL    HW2 7014  11.053  10.371   1.746
68373SOL     OW 7015   3.021  14.132  10.494
68373SOL    HW1 7016   3.026  14.216  10.448
68373SOL    HW2 7017   3.112  14.103  10.501
68374SOL     OW 7018   3.507  14.292   0.321
68374SOL    HW1 7019   3.473  14.375   0.355
68374SOL    HW2 7020   3.586  14.317   0.274
68375SOL     OW 7021  10.824   4.042   2.864
68375SOL    HW1 7022  10.899   4.091   2.898
68375SOL    HW2 7023  10.821   3.962   2.916
68376SOL     OW 7024   6.250   9.660   0.298
68376SOL    HW1 7025   6.319   9.722   0.318
68376SOL    HW2 7026   6.175   9.690   0.350
68377SOL     OW 7027   7.374   9.513   1.122
68377SOL    HW1 7028   7.362   9.476   1.209
68377SOL    HW2 7029   7.285   9.535   1.093
68378SOL     OW 7030   5.795   5.863  14.406
68378SOL    HW1 7031   5.756   5.832  14.324
68378SOL    HW2 7032   5.720   5.886  14.460
68379SOL     OW 7033   5.880   1.168   3.597
68379SOL    HW1 7034   5.807   1.229   3.609
68379SOL    HW2 7035   5.936   1.211   3.532
68380SOL     OW 7036   9.365  11.257   4.950
68380SOL    HW1 7037   9.321  11.174   4.968
68380SOL    HW2 7038   9.429  11.237   4.881
68381SOL     OW 7039  13.257   0.318   9.401
68381SOL    HW1 7040  13.347   0.336   9.427
68381SOL    HW2 7041  13.241   0.373   9.325
68382SOL     OW 7042  10.647   8.015  14.160
68382SOL    HW1 7043  10.611   7.987  14.075
68382SOL    HW2 7044  10.641   7.937  14.216
68383SOL     OW 7045   8.839  10.253   5.249
68383SOL    HW1 7046   8.760  10.202   5.234
68383SOL    HW2 7047   8.816  10.314   5.318
68384SOL     OW 7048   6.174  11.686   7.194
68384SOL    HW1 7049   6.144  11.689   7.103
68384SOL    HW2 7050   6.101  11.646   7.241
68385SOL     OW 7051   9.205   1.727  10.720
68385SOL    HW1 7052   9.228   1.760  10.633
68385SOL    HW2 7053   9.109   1.730  10.721
68386SOL     OW 7054   7.889   6.711   6.819
68386SOL    HW1 7055   7.865   6.803   6.830
68386SOL    HW2 7056   7.974   6.703   6.863
68387SOL     OW 7057   4.007   5.560   4.641
68387SOL    HW1 7058   3.923   5.605   4.637
68387SOL    HW2 7059   4.071   5.628   4.619
68388SOL     OW 7060   0.739   6.389   0.923
68388SOL    HW1 7061   0.739   6.386   1.019
68388SOL    HW2 7062   0.820   6.345   0.897
68389SOL     OW 7063  10.100   0.913   7.927
68389SOL    HW1 7064  10.161   0.941   7.995
68389SOL    HW2 7065  10.055   0.837   7.965
68390SOL     OW 7066   8.328   3.535   8.742
68390SOL    HW1 7067   8.406   3.555   8.690
68390SOL    HW2 7068   8.326   3.439   8.747
68391SOL     OW 7069  12.738  10.933   6.629
68391SOL    HW1 7070  12.766  10.852   6.588
68391SOL    HW2 7071  12.776  10.930   6.717
68392SOL     OW 7072   4.662   0.932   0.147
68392SOL    HW1 7073   4.665   0.863   0.212
68392SOL    HW2 7074   4.662   1.013   0.198
68393SOL     OW 7075  11.948   6.543  13.106
68393SOL    HW1 7076  11.902   6.623  13.131
68393SOL    HW2 7077  11.963   6.552  13.012
68394SOL     OW 7078   4.379  13.478   1.195
68394SOL    HW1 7079   4.352  13.563   1.160
68394SOL    HW2 7080   4.310  13.418   1.168
68395SOL     OW 7081   5.727  12.288   1.651
68395SOL    HW1 7082   5.700  12.203   1.684
68395SOL    HW2 7083   5.722  12.280   1.555
68396SOL     OW 7084   0.302  10.124   0.330
68396SOL    HW1 7085   0.318  10.213   0.361
68396SOL    HW2 7086   0.269  10.077   0.406
68397SOL     OW 7087  13.238  10.815   1.494
68397SOL    HW1 7088  13.154  10.860   1.482
68397SOL    HW2 7089  13.269  10.798   1.405
68398SOL     OW 7090   8.219   0.204  13.786
68398SOL    HW1 7091   8.288   0.245  13.734
68398SOL    HW2 7092   8.179   0.277  13.833
68399SOL     OW 7093   2.710   4.068  13.603
68399SOL    HW1 7094   2.774   4.080  13.532
68399SOL    HW2 7095   2.743   4.122  13.674
68400SOL     OW 7096  10.363   2.083   1.914
68400SOL    HW1 7097  10.327   2.165   1.947
68400SOL    HW2 7098  10.338   2.018   1.979
68401SOL     OW 7099   9.391  13.839   3.417
68401SOL    HW1 7100   9.379  13.926   3.455
68401SOL    HW2 7101   9.341  13.781   3.474
68402SOL     OW 7102   4.480   8.850  12.132
68402SOL    HW1 7103   4.487   8.944  12.145
68402SOL    HW2 7104   4.517   8.812  12.212
68403SOL     OW 7105  14.378   0.477   2.979
68403SOL    HW1 7106  14.464   0.444   2.952
68403SOL    HW2 7107  14.317   0.410   2.950
68404SOL     OW 7108   7.171  12.138   2.747
68404SOL    HW1 7109   7.129  12.082   2.812
68404SOL    HW2 7110   7.179  12.084   2.669
68405SOL     OW 7111  10.144   7.214   2.586
68405SOL    HW1 7112  10.188   7.238   2.668
68405SOL    HW2 7113  10.203   7.245   2.518
68406SOL     OW 7114   7.766   9.432   1.015
68406SOL    HW1 7115   7.849   9.441   0.969
68406SOL    HW2 7116   7.778   9.481   1.096
68407SOL     OW 7117   3.748  11.648   7.758
68407SOL    HW1 7118   3.733  11.610   7.844
68407SOL    HW2 7119   3.842  11.665   7.754
68408SOL     OW 7120   7.298  13.706   0.852
68408SOL    HW1 7121   7.224  13.656   0.885
68408SOL    HW2 7122   7.375  13.666   0.893
68409SOL     OW 7123   2.058   6.224   7.636
68409SOL    HW1 7124   2.133   6.166   7.646
68409SOL    HW2 7125   2.016   6.196   7.554
68410SOL     OW 7126   5.155   7.126  10.235
68410SOL    HW1 7127   5.117   7.097  10.152
68410SOL    HW2 7128   5.126   7.061  10.299
68411SOL     OW 7129  14.700   0.685   1.287
68411SOL    HW1 7130  14.701   0.598   1.327
68411SOL    HW2 7131  14.792   0.710   1.280
68412SOL     OW 7132   1.427   1.894   8.827
68412SOL    HW1 7133   1.514   1.855   8.837
68412SOL    HW2 7134   1.422   1.960   8.896
68413SOL     OW 7135   7.079   7.739   3.786
68413SOL    HW1 7136   7.040   7.652   3.781
68413SOL    HW2 7137   7.166   7.724   3.824
68414SOL     OW 7138   6.973   2.410  12.987
68414SOL    HW1 7139   7.064   2.432  13.007
68414SOL    HW2 7140   6.922   2.449  13.059
68415SOL     OW 7141   0.899   2.638   5.977
68415SOL    HW1 7142   0.922   2.580   5.904
68415SOL    HW2 7143   0.839   2.702   5.938
68416SOL     OW 7144   5.467  14.515   3.148
68416SOL    HW1 7145   5.395  14.533   3.089
68416SOL    HW2 7146   5.529  14.587   3.134
68417SOL     OW 7147  14.523  11.770  11.812
68417SOL    HW1 7148  14.467  11.804  11.742
68417SOL    HW2 7149  14.535  11.845  11.871
68418SOL     OW 7150  11.305   4.647  14.707
68418SOL    HW1 7151  11.337   4.606  14.627
68418SOL    HW2 7152  11.211   4.632  14.706
68419SOL     OW 7153  10.543   3.521  11.735
68419SOL    HW1 7154  10.620   3.473  11.766
68419SOL    HW2 7155  10.501   3.554  11.815
68420SOL     OW 7156  10.742  10.254   0.675
68420SOL    HW1 7157  10.833  10.274   0.700
68420SOL    HW2 7158  10.716  10.185   0.735
68421SOL     OW 7159  12.391   8.897  12.800
68421SOL    HW1 7160  12.383   8.801  12.805
68421SOL    HW2 7161  12.335   8.929  12.870
68422SOL     OW 7162  11.265   1.007   1.355
68422SOL    HW1 7163  11.264   1.095   1.319
68422SOL    HW2 7164  11.225   1.015   1.442
68423SOL     OW 7165  14.290   3.432   5.766
68423SOL    HW1 7166  14.220   3.495   5.747
68423SOL    HW2 7167  14.263   3.352   5.721
68424SOL     OW 7168   5.106   4.500   2.192
68424SOL    HW1 7169   5.147   4.548   2.120
68424SOL    HW2 7170   5.177   4.451   2.233
68425SOL     OW 7171  12.518   8.246  14.840
68425SOL    HW1 7172  12.475   8.211   0.051
68425SOL    HW2 7173  12.462   8.318  14.812
68426SOL     OW 7174   5.834   5.678  13.221
68426SOL    HW1 7175   5.838   5.600  13.167
68426SOL    HW2 7176   5.830   5.751  13.159
68427SOL     OW 7177   2.620  12.631   4.862
68427SOL    HW1 7178   2.622  12.725   4.844
68427SOL    HW2 7179   2.705  12.599   4.831
68428SOL     OW 7180   9.084  13.364   6.101
68428SOL    HW1 7181   9.147  13.348   6.031
68428SOL    HW2 7182   9.086  13.284   6.154
68429SOL     OW 7183  14.102   0.984  13.010
68429SOL    HW1 7184  14.181   0.947  13.050
68429SOL    HW2 7185  14.131   1.069  12.976
68430SOL     OW 7186  11.945   5.137   4.495
68430SOL    HW1 7187  12.025   5.189   4.500
68430SOL    HW2 7188  11.974   5.047   4.512
68431SOL     OW 7189   9.555  10.105   7.815
68431SOL    HW1 7190   9.479  10.160   7.796
68431SOL    HW2 7191   9.596  10.089   7.730
68432SOL     OW 7192   7.019  12.952   1.159
68432SOL    HW1 7193   7.066  12.890   1.103
68432SOL    HW2 7194   7.040  12.924   1.248
68433SOL     OW 7195   1.905   5.869  12.054
68433SOL    HW1 7196   1.981   5.915  12.091
68433SOL    HW2 7197   1.844   5.939  12.030
68434SOL     OW 7198   1.143  12.323   0.096
68434SOL    HW1 7199   1.128  12.409   0.058
68434SOL    HW2 7200   1.198  12.340   0.173
68435SOL     OW 7201  12.146  11.336  11.609
68435SOL    HW1 7202  12.146  11.430  11.591
68435SOL    HW2 7203  12.098  11.297  11.537
68436SOL     OW 7204   1.884   7.549   9.517
68436SOL    HW1 7205   1.853   7.461   9.538
68436SOL    HW2 7206   1.853   7.603   9.590
68437SOL     OW 7207  12.746   9.575   5.780
68437SOL    HW1 7208  12.654   9.549   5.776
68437SOL    HW2 7209  12.784   9.521   5.848
68438SOL     OW 7210   6.199   1.343   0.242
68438SOL    HW1 7211   6.150   1.303   0.314
68438SOL    HW2 7212   6.247   1.415   0.282
68439SOL     OW 7213   1.916  13.530   6.249
68439SOL    HW1 7214   1.875  13.577   6.175
68439SOL    HW2 7215   1.845  13.520   6.313
68440SOL     OW 7216  14.061   7.778  10.386
68440SOL    HW1 7217  14.058   7.870  10.412
68440SOL    HW2 7218  14.100   7.779  10.298
68441SOL     OW 7219   0.728   5.062   7.332
68441SOL    HW1 7220   0.733   5.028   7.243
68441SOL    HW2 7221   0.803   5.024   7.377
68442SOL     OW 7222   6.674   6.369   3.936
68442SOL    HW1 7223   6.612   6.422   3.885
68442SOL    HW2 7224   6.629   6.350   4.018
68443SOL     OW 7225   0.930  13.208  11.815
68443SOL    HW1 7226   0.929  13.154  11.894
68443SOL    HW2 7227   0.957  13.149  11.745
68444SOL     OW 7228   8.886  11.252   8.312
68444SOL    HW1 7229   8.813  11.290   8.263
68444SOL    HW2 7230   8.864  11.267   8.404
68445SOL     OW 7231   4.542  13.753   6.361
68445SOL    HW1 7232   4.566  13.691   6.429
68445SOL    HW2 7233   4.621  13.807   6.349
68446SOL     OW 7234   6.403   2.915  13.849
68446SOL    HW1 7235   6.436   3.003  13.864
68446SOL    HW2 7236   6.311   2.918  13.876
68447SOL     OW 7237   4.938  10.630   7.036
68447SOL    HW1 7238   4.896  10.639   6.951
68447SOL    HW2 7239   4.918  10.712   7.081
68448SOL     OW 7240   9.344   4.128  14.553
68448SOL    HW1 7241   9.291   4.071  14.610
68448SOL    HW2 7242   9.311   4.216  14.570
68449SOL     OW 7243  11.319  11.785   8.920
68449SOL    HW1 7244  11.413  11.770   8.930
68449SOL    HW2 7245  11.303  11.868   8.967
68450SOL     OW 7246   6.559   1.237  10.404
68450SOL    HW1 7247   6.622   1.178  10.445
68450SOL    HW2 7248   6.528   1.293  10.476
68451SOL     OW 7249   1.456   3.223   9.962
68451SOL    HW1 7250   1.388   3.288   9.943
68451SOL    HW2 7251   1.419   3.170  10.033
68452SOL     OW 7252  13.120   0.006  14.651
68452SOL    HW1 7253  13.093  14.791  14.612
68452SOL    HW2 7254  13.090   0.001  14.742
68453SOL     OW 7255  12.824   8.499   2.597
68453SOL    HW1 7256  12.875   8.546   2.531
68453SOL    HW2 7257  12.736   8.491   2.560
68454SOL     OW 7258   2.306   2.294  13.887
68454SOL    HW1 7259   2.240   2.234  13.922
68454SOL    HW2 7260   2.276   2.381  13.914
68455SOL     OW 7261   2.460   8.694   6.547
68455SOL    HW1 7262   2.407   8.772   6.565
68455SOL    HW2 7263   2.510   8.717   6.469
68456SOL     OW 7264   0.364  13.941   3.405
68456SOL    HW1 7265   0.338  13.912   3.317
68456SOL    HW2 7266   0.291  13.916   3.461
68457SOL     OW 7267   4.400  11.135   8.272
68457SOL    HW1 7268   4.367  11.085   8.197
68457SOL    HW2 7269   4.341  11.209   8.281
68458SOL     OW 7270  10.223   7.874  12.460
68458SOL    HW1 7271  10.196   7.847  12.548
68458SOL    HW2 7272  10.263   7.796  12.422
68459SOL     OW 7273   2.398  12.911  11.188
68459SOL    HW1 7274   2.443  12.971  11.128
68459SOL    HW2 7275   2.467  12.877  11.244
68460SOL     OW 7276   4.012   2.788  10.100
68460SOL    HW1 7277   4.087   2.730  10.113
68460SOL    HW2 7278   4.047   2.862  10.051
68461SOL     OW 7279   9.313   0.564  13.779
68461SOL    HW1 7280   9.277   0.533  13.696
68461SOL    HW2 7281   9.265   0.645  13.798
68462SOL     OW 7282   1.507   9.094  12.840
68462SOL    HW1 7283   1.584   9.056  12.883
68462SOL    HW2 7284   1.530   9.186  12.827
68463SOL     OW 7285   3.534   1.879  13.375
68463SOL    HW1 7286   3.575   1.837  13.450
68463SOL    HW2 7287   3.441   1.883  13.397
68464SOL     OW 7288   5.874  10.005   4.882
68464SOL    HW1 7289   5.898  10.081   4.936
68464SOL    HW2 7290   5.802   9.964   4.928
68465SOL     OW 7291   6.405   2.686   7.792
68465SOL    HW1 7292   6.358   2.754   7.743
68465SOL    HW2 7293   6.479   2.732   7.831
68466SOL     OW 7294   1.943   9.818   6.451
68466SOL    HW1 7295   1.935   9.723   6.448
68466SOL    HW2 7296   1.920   9.847   6.362
68467SOL     OW 7297   2.199   5.230  12.409
68467SOL    HW1 7298   2.247   5.309  12.384
68467SOL    HW2 7299   2.128   5.224  12.346
68468SOL     OW 7300  12.844  11.163   7.399
68468SOL    HW1 7301  12.830  11.090   7.458
68468SOL    HW2 7302  12.766  11.165   7.344
68469SOL     OW 7303  13.864   4.975   1.282
68469SOL    HW1 7304  13.784   4.959   1.233
68469SOL    HW2 7305  13.839   4.962   1.374
68470SOL     OW 7306   0.014   1.769   8.952
68470SOL    HW1 7307   0.072   1.844   8.937
68470SOL    HW2 7308   0.046   1.730   9.033
68471SOL     OW 7309   0.980   4.450   6.713
68471SOL    HW1 7310   0.920   4.386   6.750
68471SOL    HW2 7311   1.066   4.425   6.747
68472SOL     OW 7312   1.322   6.959   8.362
68472SOL    HW1 7313   1.311   6.864   8.362
68472SOL    HW2 7314   1.369   6.978   8.280
68473SOL     OW 7315  12.782  12.991  13.182
68473SOL    HW1 7316  12.701  12.977  13.230
68473SOL    HW2 7317  12.845  12.933  13.224
68474SOL     OW 7318  13.015   1.550  10.478
68474SOL    HW1 7319  13.055   1.636  10.470
68474SOL    HW2 7320  13.082   1.490  10.445
68475SOL     OW 7321  12.289  12.919  13.166
68475SOL    HW1 7322  12.340  12.893  13.089
68475SOL    HW2 7323  12.214  12.967  13.130
68476SOL     OW 7324   8.394   0.940   4.376
68476SOL    HW1 7325   8.448   0.976   4.305
68476SOL    HW2 7326   8.309   0.982   4.365
68477SOL     OW 7327  12.593   7.813   6.949
68477SOL    HW1 7328  12.660   7.807   6.881
68477SOL    HW2 7329  12.607   7.736   7.003
68478SOL     OW 7330  13.562   1.419   1.531
68478SOL    HW1 7331  13.619   1.494   1.522
68478SOL    HW2 7332  13.621   1.345   1.546
68479SOL     OW 7333   9.989   9.811  11.978
68479SOL    HW1 7334   9.989   9.729  12.028
68479SOL    HW2 7335   9.904   9.850  11.996
68480SOL     OW 7336   2.235   4.018   6.786
68480SOL    HW1 7337   2.167   4.002   6.851
68480SOL    HW2 7338   2.304   3.955   6.807
68481SOL     OW 7339   1.386  11.289   9.220
68481SOL    HW1 7340   1.480  11.306   9.214
68481SOL    HW2 7341   1.355  11.295   9.129
68482SOL     OW 7342   2.045   0.199   6.362
68482SOL    HW1 7343   2.066   0.113   6.398
68482SOL    HW2 7344   1.952   0.193   6.339
68483SOL     OW 7345   1.466   5.691   5.016
68483SOL    HW1 7346   1.514   5.767   5.049
68483SOL    HW2 7347   1.424   5.723   4.936
68484SOL     OW 7348   2.020   5.938   2.655
68484SOL    HW1 7349   2.032   5.865   2.595
68484SOL    HW2 7350   2.103   5.985   2.654
68485SOL     OW 7351   2.910   1.212  10.202
68485SOL    HW1 7352   2.869   1.133  10.169
68485SOL    HW2 7353   2.995   1.215  10.157
68486SOL     OW 7354  14.330   4.246  10.788
68486SOL    HW1 7355  14.295   4.163  10.757
68486SOL    HW2 7356  14.400   4.267  10.727
68487SOL     OW 7357   5.781   8.771   8.943
68487SOL    HW1 7358   5.782   8.705   8.874
68487SOL    HW2 7359   5.709   8.745   9.000
68488SOL     OW 7360   3.732  10.793  13.568
68488SOL    HW1 7361   3.688  10.757  13.491
68488SOL    HW2 7362   3.814  10.829  13.533
68489SOL     OW 7363   6.454   1.499  11.162
68489SOL    HW1 7364   6.445   1.405  11.149
68489SOL    HW2 7365   6.384   1.538  11.109
68490SOL     OW 7366   7.634   6.551   3.886
68490SOL    HW1 7367   7.635   6.642   3.854
68490SOL    HW2 7368   7.704   6.548   3.952
68491SOL     OW 7369  10.987   9.574   1.511
68491SOL    HW1 7370  11.049   9.569   1.439
68491SOL    HW2 7371  11.024   9.516   1.578
68492SOL     OW 7372   5.476   2.249  12.993
68492SOL    HW1 7373   5.398   2.199  12.969
68492SOL    HW2 7374   5.547   2.185  12.995
68493SOL     OW 7375   1.846   1.361   3.610
68493SOL    HW1 7376   1.886   1.344   3.525
68493SOL    HW2 7377   1.863   1.282   3.661
68494SOL     OW 7378   3.628   3.331  12.787
68494SOL    HW1 7379   3.609   3.421  12.810
68494SOL    HW2 7380   3.581   3.279  12.851
68495SOL     OW 7381   4.877   3.549   3.864
68495SOL    HW1 7382   4.812   3.565   3.796
68495SOL    HW2 7383   4.952   3.511   3.818
68496SOL     OW 7384  11.807   7.541   5.598
68496SOL    HW1 7385  11.864   7.525   5.673
68496SOL    HW2 7386  11.858   7.597   5.539
68497SOL     OW 7387  14.747  12.961   6.560
68497SOL    HW1 7388  14.741  13.055   6.545
68497SOL    HW2 7389  14.669  12.925   6.518
68498SOL     OW 7390  12.298  11.949   6.908
68498SOL    HW1 7391  12.289  11.871   6.962
68498SOL    HW2 7392  12.391  11.952   6.886
68499SOL     OW 7393   6.154  10.349  14.408
68499SOL    HW1 7394   6.150  10.385  14.319
68499SOL    HW2 7395   6.072  10.300  14.417
68500SOL     OW 7396   0.808  11.751   6.780
68500SOL    HW1 7397   0.713  11.738   6.787
68500SOL    HW2 7398   0.838  11.756   6.870
68501SOL     OW 7399   0.453   9.789   9.702
68501SOL    HW1 7400   0.397   9.762   9.775
68501SOL    HW2 7401   0.476   9.708   9.658
68502SOL     OW 7402  11.475  12.849   6.121
68502SOL    HW1 7403  11.540  12.872   6.187
68502SOL    HW2 7404  11.438  12.933   6.094
68503SOL     OW 7405   5.254   7.032   8.705
68503SOL    HW1 7406   5.341   6.995   8.692
68503SOL    HW2 7407   5.240   7.026   8.800
68504SOL     OW 7408   3.625   1.987   9.844
68504SOL    HW1 7409   3.636   1.931   9.920
68504SOL    HW2 7410   3.544   1.956   9.802
68505SOL     OW 7411  13.420  12.837   3.972
68505SOL    HW1 7412  13.369  12.895   3.916
68505SOL    HW2 7413  13.483  12.795   3.912
68506SOL     OW 7414  12.432   2.181  11.268
68506SOL    HW1 7415  12.429   2.085  11.263
68506SOL    HW2 7416  12.421   2.201  11.361
68507SOL     OW 7417  14.855   4.099   1.139
68507SOL    HW1 7418  14.783   4.058   1.093
68507SOL    HW2 7419   0.057   4.033   1.139
68508SOL     OW 7420  14.275   9.664   3.537
68508SOL    HW1 7421  14.225   9.687   3.616
68508SOL    HW2 7422  14.366   9.679   3.561
68509SOL     OW 7423   4.835   8.307   1.382
68509SOL    HW1 7424   4.868   8.298   1.471
68509SOL    HW2 7425   4.913   8.299   1.327
68510SOL     OW 7426   9.881   4.846   6.762
68510SOL    HW1 7427   9.845   4.909   6.699
68510SOL    HW2 7428   9.812   4.781   6.772
68511SOL     OW 7429  10.716   8.278   9.133
68511SOL    HW1 7430  10.700   8.339   9.204
68511SOL    HW2 7431  10.710   8.331   9.053
68512SOL     OW 7432  13.462   9.352   1.388
68512SOL    HW1 7433  13.487   9.364   1.296
68512SOL    HW2 7434  13.366   9.355   1.387
68513SOL     OW 7435   0.080   5.039   6.687
68513SOL    HW1 7436   0.117   4.951   6.682
68513SOL    HW2 7437   0.116   5.085   6.611
68514SOL     OW 7438   0.699   6.229   9.574
68514SOL    HW1 7439   0.609   6.253   9.593
68514SOL    HW2 7440   0.692   6.152   9.517
68515SOL     OW 7441  10.851   5.864   9.862
68515SOL    HW1 7442  10.803   5.805   9.921
68515SOL    HW2 7443  10.803   5.859   9.779
68516SOL     OW 7444   1.447  12.043  12.981
68516SOL    HW1 7445   1.423  12.036  13.073
68516SOL    HW2 7446   1.415  12.129  12.954
68517SOL     OW 7447   1.661   0.424   5.250
68517SOL    HW1 7448   1.613   0.474   5.315
68517SOL    HW2 7449   1.628   0.457   5.166
68518SOL     OW 7450   8.713   4.137  14.453
68518SOL    HW1 7451   8.697   4.044  14.467
68518SOL    HW2 7452   8.658   4.181  14.518
68519SOL     OW 7453   1.369   7.971   2.793
68519SOL    HW1 7454   1.285   7.932   2.816
68519SOL    HW2 7455   1.390   7.935   2.707
68520SOL     OW 7456   5.909   8.978   3.763
68520SOL    HW1 7457   5.975   8.950   3.699
68520SOL    HW2 7458   5.838   9.013   3.709
68521SOL     OW 7459   5.173  10.953   7.198
68521SOL    HW1 7460   5.114  10.987   7.130
68521SOL    HW2 7461   5.253  10.931   7.151
68522SOL     OW 7462   9.082   4.322   0.534
68522SOL    HW1 7463   9.161   4.269   0.532
68522SOL    HW2 7464   9.063   4.335   0.627
68523SOL     OW 7465  12.897   2.444   0.322
68523SOL    HW1 7466  12.992   2.445   0.312
68523SOL    HW2 7467  12.878   2.361   0.364
68524SOL     OW 7468   2.694   7.812   6.729
68524SOL    HW1 7469   2.765   7.757   6.762
68524SOL    HW2 7470   2.739   7.884   6.684
68525SOL     OW 7471   1.842   3.338  14.537
68525SOL    HW1 7472   1.749   3.339  14.561
68525SOL    HW2 7473   1.865   3.429  14.523
68526SOL     OW 7474   1.818   3.343   7.875
68526SOL    HW1 7475   1.863   3.284   7.936
68526SOL    HW2 7476   1.889   3.394   7.835
68527SOL     OW 7477   5.263   8.457   2.114
68527SOL    HW1 7478   5.200   8.480   2.183
68527SOL    HW2 7479   5.349   8.470   2.155
68528SOL     OW 7480  14.778  14.595  10.307
68528SOL    HW1 7481   0.001  14.614  10.284
68528SOL    HW2 7482  14.731  14.592  10.224
68529SOL     OW 7483   4.723  13.518   5.194
68529SOL    HW1 7484   4.776  13.588   5.232
68529SOL    HW2 7485   4.634  13.553   5.194
68530SOL     OW 7486   2.291  14.797  14.053
68530SOL    HW1 7487   2.208  14.800  14.006
68530SOL    HW2 7488   2.269  14.820  14.143
68531SOL     OW 7489  13.022   0.483   5.710
68531SOL    HW1 7490  13.108   0.514   5.682
68531SOL    HW2 7491  13.005   0.406   5.656
68532SOL     OW 7492   6.024   5.147   4.265
68532SOL    HW1 7493   5.943   5.198   4.266
68532SOL    HW2 7494   6.010   5.081   4.333
68533SOL     OW 7495  13.313   0.529  12.381
68533SOL    HW1 7496  13.309   0.448  12.331
68533SOL    HW2 7497  13.392   0.573  12.350
68534SOL     OW 7498  10.739  13.358   3.979
68534SOL    HW1 7499  10.813  13.331   4.034
68534SOL    HW2 7500  10.664  13.309   4.015
68535SOL     OW 7501   9.160   5.347  10.927
68535SOL    HW1 7502   9.217   5.287  10.975
68535SOL    HW2 7503   9.150   5.307  10.840
68536SOL     OW 7504  14.411  12.245   9.667
68536SOL    HW1 7505  14.436  12.317   9.609
68536SOL    HW2 7506  14.479  12.244   9.735
68537SOL     OW 7507  10.679   9.323   6.907
68537SOL    HW1 7508  10.735   9.395   6.935
68537SOL    HW2 7509  10.709   9.302   6.819
68538SOL     OW 7510   6.622   9.669  11.364
68538SOL    HW1 7511   6.569   9.637  11.437
68538SOL    HW2 7512   6.647   9.590  11.316
68539SOL     OW 7513  10.882  14.749   6.102
68539SOL    HW1 7514  10.840  14.748   6.188
68539SOL    HW2 7515  10.976  14.751   6.121
68540SOL     OW 7516  10.729   4.597  12.411
68540SOL    HW1 7517  10.681   4.569  12.488
68540SOL    HW2 7518  10.764   4.683  12.435
68541SOL     OW 7519   2.415   0.180   7.744
68541SOL    HW1 7520   2.421   0.084   7.739
68541SOL    HW2 7521   2.446   0.210   7.659
68542SOL     OW 7522   4.905   4.802   9.325
68542SOL    HW1 7523   4.970   4.732   9.337
68542SOL    HW2 7524   4.831   4.775   9.379
68543SOL     OW 7525   8.611   4.419   7.905
68543SOL    HW1 7526   8.530   4.444   7.860
68543SOL    HW2 7527   8.610   4.471   7.985
68544SOL     OW 7528   3.802   4.536  12.446
68544SOL    HW1 7529   3.714   4.537  12.409
68544SOL    HW2 7530   3.855   4.586  12.384
68545SOL     OW 7531  13.620   2.851   9.734
68545SOL    HW1 7532  13.665   2.932   9.757
68545SOL    HW2 7533  13.569   2.828   9.812
68546SOL     OW 7534  13.442  12.273   0.561
68546SOL    HW1 7535  13.416  12.304   0.474
68546SOL    HW2 7536  13.437  12.350   0.616
68547SOL     OW 7537   3.418   7.579   7.866
68547SOL    HW1 7538   3.338   7.559   7.817
68547SOL    HW2 7539   3.482   7.599   7.798
68548SOL     OW 7540   9.739   4.574   1.134
68548SOL    HW1 7541   9.704   4.560   1.222
68548SOL    HW2 7542   9.780   4.490   1.112
68549SOL     OW 7543   2.957  10.154  12.275
68549SOL    HW1 7544   2.972  10.220  12.343
68549SOL    HW2 7545   2.862  10.150  12.266
68550SOL     OW 7546  10.312   9.996  12.185
68550SOL    HW1 7547  10.259   9.919  12.163
68550SOL    HW2 7548  10.264  10.040  12.255
68551SOL     OW 7549   5.088   8.630   7.562
68551SOL    HW1 7550   5.086   8.554   7.619
68551SOL    HW2 7551   5.158   8.610   7.499
68552SOL     OW 7552   1.891   6.460  12.666
68552SOL    HW1 7553   1.927   6.549  12.665
68552SOL    HW2 7554   1.877   6.442  12.759
68553SOL     OW 7555  12.065   2.616  10.837
68553SOL    HW1 7556  12.115   2.589  10.914
68553SOL    HW2 7557  12.093   2.556  10.768
68554SOL     OW 7558   6.301   7.817   7.819
68554SOL    HW1 7559   6.251   7.827   7.738
68554SOL    HW2 7560   6.286   7.898   7.867
68555SOL     OW 7561  10.839   3.954  14.798
68555SOL    HW1 7562  10.744   3.949  14.792
68555SOL    HW2 7563  10.868   3.863  14.804
68556SOL     OW 7564   7.196   7.356   6.284
68556SOL    HW1 7565   7.166   7.270   6.254
68556SOL    HW2 7566   7.247   7.337   6.363
68557SOL     OW 7567  12.282   3.556   8.978
68557SOL    HW1 7568  12.189   3.539   8.964
68557SOL    HW2 7569  12.326   3.513   8.905
68558SOL     OW 7570   8.029   2.125  10.189
68558SOL    HW1 7571   8.091   2.190  10.158
68558SOL    HW2 7572   7.967   2.174  10.243
68559SOL     OW 7573  14.322  13.735  14.107
68559SOL    HW1 7574  14.277  13.761  14.187
68559SOL    HW2 7575  14.343  13.818  14.063
68560SOL     OW 7576   7.997   1.451   0.761
68560SOL    HW1 7577   7.910   1.421   0.735
68560SOL    HW2 7578   8.057   1.390   0.720
68561SOL     OW 7579  11.035  11.980   8.655
68561SOL    HW1 7580  10.984  12.059   8.675
68561SOL    HW2 7581  11.032  11.974   8.559
68562SOL     OW 7582   6.398   9.910  11.498
68562SOL    HW1 7583   6.364   9.876  11.581
68562SOL    HW2 7584   6.481   9.952  11.521
68563SOL     OW 7585  10.370  12.165   0.236
68563SOL    HW1 7586  10.367  12.260   0.251
68563SOL    HW2 7587  10.278  12.138   0.240
68564SOL     OW 7588  10.881   4.737   3.318
68564SOL    HW1 7589  10.812   4.685   3.360
68564SOL    HW2 7590  10.890   4.814   3.374
68565SOL     OW 7591   4.067   9.930   5.095
68565SOL    HW1 7592   4.118   9.998   5.049
68565SOL    HW2 7593   4.119   9.850   5.084
68566SOL     OW 7594   3.832   1.166   4.121
68566SOL    HW1 7595   3.858   1.142   4.032
68566SOL    HW2 7596   3.909   1.208   4.158
68567SOL     OW 7597   5.782   3.929  11.967
68567SOL    HW1 7598   5.765   3.963  11.879
68567SOL    HW2 7599   5.792   3.835  11.955
68568SOL     OW 7600  12.403   0.837   9.192
68568SOL    HW1 7601  12.338   0.832   9.262
68568SOL    HW2 7602  12.426   0.746   9.174
68569SOL     OW 7603   4.827   9.873  14.215
68569SOL    HW1 7604   4.735   9.879  14.240
68569SOL    HW2 7605   4.850   9.962  14.187
68570SOL     OW 7606  13.136   1.312   1.188
68570SOL    HW1 7607  13.162   1.370   1.260
68570SOL    HW2 7608  13.204   1.245   1.185
68571SOL     OW 7609  13.353   8.216   8.407
68571SOL    HW1 7610  13.417   8.162   8.361
68571SOL    HW2 7611  13.342   8.174   8.492
68572SOL     OW 7612   1.153   8.684   2.140
68572SOL    HW1 7613   1.146   8.651   2.050
68572SOL    HW2 7614   1.227   8.745   2.138
68573SOL     OW 7615   4.104   0.301   3.364
68573SOL    HW1 7616   4.145   0.375   3.318
68573SOL    HW2 7617   4.175   0.262   3.415
68574SOL     OW 7618   2.784   1.461  14.129
68574SOL    HW1 7619   2.780   1.419  14.042
68574SOL    HW2 7620   2.702   1.437  14.170
68575SOL     OW 7621  14.284  13.966  10.316
68575SOL    HW1 7622  14.339  13.925  10.250
68575SOL    HW2 7623  14.198  13.973  10.275
68576SOL     OW 7624   8.088  14.295  14.435
68576SOL    HW1 7625   8.065  14.203  14.448
68576SOL    HW2 7626   8.023  14.344  14.485
68577SOL     OW 7627   1.206  12.644  11.931
68577SOL    HW1 7628   1.200  12.675  12.021
68577SOL    HW2 7629   1.143  12.573  11.925
68578SOL     OW 7630   4.795  12.308   9.407
68578SOL    HW1 7631   4.722  12.316   9.469
68578SOL    HW2 7632   4.773  12.369   9.336
68579SOL     OW 7633   0.340   2.864   9.360
68579SOL    HW1 7634   0.244   2.866   9.367
68579SOL    HW2 7635   0.362   2.940   9.306
68580SOL     OW 7636   2.263  12.818  14.415
68580SOL    HW1 7637   2.330  12.844  14.353
68580SOL    HW2 7638   2.186  12.871  14.391
68581SOL     OW 7639   8.990  10.023  13.273
68581SOL    HW1 7640   8.997   9.976  13.190
68581SOL    HW2 7641   8.996  10.115  13.249
68582SOL     OW 7642  10.558   6.329   4.958
68582SOL    HW1 7643  10.620   6.389   4.916
68582SOL    HW2 7644  10.577   6.244   4.920
68583SOL     OW 7645   6.039  10.728  11.441
68583SOL    HW1 7646   6.006  10.770  11.520
68583SOL    HW2 7647   5.979  10.656  11.425
68584SOL     OW 7648   1.830  13.082  10.579
68584SOL    HW1 7649   1.778  13.001  10.581
68584SOL    HW2 7650   1.858  13.095  10.669
68585SOL     OW 7651   2.603  12.193   4.246
68585SOL    HW1 7652   2.524  12.148   4.276
68585SOL    HW2 7653   2.570  12.266   4.194
68586SOL     OW 7654   2.214   5.223   1.634
68586SOL    HW1 7655   2.134   5.183   1.670
68586SOL    HW2 7656   2.187   5.312   1.610
68587SOL     OW 7657  10.212  12.006   7.846
68587SOL    HW1 7658  10.306  12.007   7.864
68587SOL    HW2 7659  10.202  12.051   7.762
68588SOL     OW 7660  10.220   3.468  10.644
68588SOL    HW1 7661  10.247   3.384  10.607
68588SOL    HW2 7662  10.301   3.510  10.671
68589SOL     OW 7663   0.664   3.822   9.989
68589SOL    HW1 7664   0.622   3.749   9.945
68589SOL    HW2 7665   0.686   3.883   9.919
68590SOL     OW 7666  13.324   4.127   0.814
68590SOL    HW1 7667  13.351   4.047   0.769
68590SOL    HW2 7668  13.375   4.127   0.895
68591SOL     OW 7669   1.777   6.478   5.201
68591SOL    HW1 7670   1.819   6.424   5.134
68591SOL    HW2 7671   1.850   6.514   5.251
68592SOL     OW 7672   5.526  13.313  11.734
68592SOL    HW1 7673   5.611  13.274  11.754
68592SOL    HW2 7674   5.477  13.243  11.692
68593SOL     OW 7675   6.137   1.161   1.404
68593SOL    HW1 7676   6.081   1.142   1.330
68593SOL    HW2 7677   6.110   1.248   1.434
68594SOL     OW 7678  10.024  11.916   3.083
68594SOL    HW1 7679  10.109  11.897   3.043
68594SOL    HW2 7680  10.044  11.928   3.176
68595SOL     OW 7681   1.745   8.054   7.431
68595SOL    HW1 7682   1.656   8.019   7.435
68595SOL    HW2 7683   1.801   7.978   7.449
68596SOL     OW 7684  13.624   8.288   2.613
68596SOL    HW1 7685  13.696   8.343   2.643
68596SOL    HW2 7686  13.557   8.298   2.681
68597SOL     OW 7687   8.149   0.186  10.171
68597SOL    HW1 7688   8.080   0.243  10.204
68597SOL    HW2 7689   8.143   0.195  10.076
68598SOL     OW 7690  10.812  12.052  14.641
68598SOL    HW1 7691  10.718  12.067  14.646
68598SOL    HW2 7692  10.823  11.959  14.661
68599SOL     OW 7693   8.649   0.647   0.926
68599SOL    HW1 7694   8.739   0.618   0.909
68599SOL    HW2 7695   8.617   0.676   0.841
68600SOL     OW 7696   8.973   4.222   7.625
68600SOL    HW1 7697   8.882   4.216   7.596
68600SOL    HW2 7698   8.970   4.276   7.704
68601SOL     OW 7699  12.574  12.620   0.400
68601SOL    HW1 7700  12.651  12.665   0.436
68601SOL    HW2 7701  12.541  12.680   0.332
68602SOL     OW 7702   6.129   2.811   1.503
68602SOL    HW1 7703   6.043   2.790   1.538
68602SOL    HW2 7704   6.175   2.727   1.499
68603SOL     OW 7705   0.827   6.855   8.584
68603SOL    HW1 7706   0.891   6.877   8.517
68603SOL    HW2 7707   0.870   6.879   8.666
68604SOL     OW 7708  11.342   3.879  12.969
68604SOL    HW1 7709  11.359   3.960  13.016
68604SOL    HW2 7710  11.250   3.885  12.944
68605SOL     OW 7711   2.150   6.483   7.962
68605SOL    HW1 7712   2.102   6.538   8.024
68605SOL    HW2 7713   2.213   6.436   8.017
68606SOL     OW 7714   5.858   7.197  14.380
68606SOL    HW1 7715   5.901   7.206  14.295
68606SOL    HW2 7716   5.765   7.196  14.359
68607SOL     OW 7717   7.953   3.383   9.524
68607SOL    HW1 7718   7.952   3.341   9.438
68607SOL    HW2 7719   8.041   3.421   9.530
68608SOL     OW 7720   4.442   5.961   1.139
68608SOL    HW1 7721   4.421   5.986   1.050
68608SOL    HW2 7722   4.378   5.894   1.161
68609SOL     OW 7723   7.495   0.068  10.614
68609SOL    HW1 7724   7.449   0.073  10.530
68609SOL    HW2 7725   7.570   0.011  10.597
68610SOL     OW 7726   8.793  11.079   5.132
68610SOL    HW1 7727   8.727  11.012   5.150
68610SOL    HW2 7728   8.820  11.062   5.042
68611SOL     OW 7729  10.597   3.832  11.393
68611SOL    HW1 7730  10.626   3.744  11.369
68611SOL    HW2 7731  10.550   3.863  11.316
68612SOL     OW 7732   9.298   2.724   4.851
68612SOL    HW1 7733   9.232   2.764   4.794
68612SOL    HW2 7734   9.321   2.642   4.806
68613SOL     OW 7735   9.318   0.239  14.114
68613SOL    HW1 7736   9.331   0.311  14.053
68613SOL    HW2 7737   9.296   0.164  14.058
68614SOL     OW 7738   9.214   8.265  13.100
68614SOL    HW1 7739   9.130   8.221  13.088
68614SOL    HW2 7740   9.192   8.347  13.145
68615SOL     OW 7741   6.001  12.525  12.694
68615SOL    HW1 7742   6.030  12.616  12.688
68615SOL    HW2 7743   6.039  12.483  12.616
68616SOL     OW 7744   2.054   3.902   9.759
68616SOL    HW1 7745   2.055   3.929   9.667
68616SOL    HW2 7746   2.091   3.977   9.806
68617SOL     OW 7747   6.551   5.481   5.971
68617SOL    HW1 7748   6.545   5.478   5.876
68617SOL    HW2 7749   6.534   5.392   6.000
68618SOL     OW 7750   5.019  11.971   0.176
68618SOL    HW1 7751   5.004  12.035   0.245
68618SOL    HW2 7752   5.012  12.021   0.095
68619SOL     OW 7753   9.625  12.316   8.438
68619SOL    HW1 7754   9.533  12.290   8.435
68619SOL    HW2 7755   9.636  12.355   8.525
68620SOL     OW 7756  10.758   6.578   8.610
68620SOL    HW1 7757  10.704   6.515   8.563
68620SOL    HW2 7758  10.701   6.654   8.623
68621SOL     OW 7759  13.030  13.273   9.476
68621SOL    HW1 7760  13.078  13.204   9.429
68621SOL    HW2 7761  13.016  13.237   9.563
68622SOL     OW 7762   6.870   7.404   4.270
68622SOL    HW1 7763   6.931   7.428   4.200
68622SOL    HW2 7764   6.789   7.381   4.225
68623SOL     OW 7765  10.435   9.753   7.385
68623SOL    HW1 7766  10.380   9.790   7.316
68623SOL    HW2 7767  10.429   9.816   7.457
68624SOL     OW 7768   6.673  14.225  11.458
68624SOL    HW1 7769   6.608  14.172  11.412
68624SOL    HW2 7770   6.626  14.305  11.480
68625SOL     OW 7771   8.118   9.263   0.074
68625SOL    HW1 7772   8.076   9.195   0.127
68625SOL    HW2 7773   8.084   9.249  14.854
68626SOL     OW 7774   3.520  11.346   6.574
68626SOL    HW1 7775   3.479  11.431   6.560
68626SOL    HW2 7776   3.593  11.365   6.634
68627SOL     OW 7777   8.724   7.663   5.876
68627SOL    HW1 7778   8.802   7.719   5.881
68627SOL    HW2 7779   8.710   7.648   5.782
68628SOL     OW 7780   6.815  12.702   9.885
68628SOL    HW1 7781   6.795  12.748   9.804
68628SOL    HW2 7782   6.897  12.656   9.868
68629SOL     OW 7783   9.134  10.362   8.461
68629SOL    HW1 7784   9.112  10.276   8.498
68629SOL    HW2 7785   9.074  10.371   8.386
68630SOL     OW 7786   3.841   2.439  13.119
68630SOL    HW1 7787   3.908   2.390  13.071
68630SOL    HW2 7788   3.889   2.481  13.191
68631SOL     OW 7789  10.700   6.238  13.743
68631SOL    HW1 7790  10.652   6.219  13.662
68631SOL    HW2 7791  10.791   6.244  13.715
68632SOL     OW 7792   6.985  14.604   2.288
68632SOL    HW1 7793   7.053  14.552   2.332
68632SOL    HW2 7794   7.025  14.633   2.207
68633SOL     OW 7795   6.925   5.966   0.961
68633SOL    HW1 7796   7.016   5.943   0.976
68633SOL    HW2 7797   6.923   6.004   0.873
68634SOL     OW 7798  10.296  13.538   8.721
68634SOL    HW1 7799  10.367  13.501   8.774
68634SOL    HW2 7800  10.314  13.632   8.719
68635SOL     OW 7801   5.516   4.160   7.798
68635SOL    HW1 7802   5.540   4.153   7.705
68635SOL    HW2 7803   5.421   4.148   7.799
68636SOL     OW 7804   7.380   3.352   3.125
68636SOL    HW1 7805   7.332   3.270   3.129
68636SOL    HW2 7806   7.395   3.376   3.217
68637SOL     OW 7807   9.527   9.349   2.314
68637SOL    HW1 7808   9.477   9.385   2.240
68637SOL    HW2 7809   9.469   9.281   2.350
68638SOL     OW 7810   0.968  13.087  11.072
68638SOL    HW1 7811   0.920  13.049  11.145
68638SOL    HW2 7812   0.962  13.020  11.003
68639SOL     OW 7813  11.681   8.442   0.357
68639SOL    HW1 7814  11.623   8.378   0.400
68639SOL    HW2 7815  11.678   8.519   0.415
68640SOL     OW 7816  12.573  11.177   4.672
68640SOL    HW1 7817  12.565  11.206   4.763
68640SOL    HW2 7818  12.659  11.208   4.644
68641SOL     OW 7819   1.837  10.358   2.069
68641SOL    HW1 7820   1.804  10.428   2.125
68641SOL    HW2 7821   1.770  10.347   2.002
68642SOL     OW 7822   5.110   6.258  10.523
68642SOL    HW1 7823   5.201   6.232  10.538
68642SOL    HW2 7824   5.062   6.175  10.513
68643SOL     OW 7825  11.490   2.322   1.788
68643SOL    HW1 7826  11.555   2.258   1.758
68643SOL    HW2 7827  11.511   2.401   1.739
68644SOL     OW 7828  10.395   2.203  11.264
68644SOL    HW1 7829  10.345   2.146  11.322
68644SOL    HW2 7830  10.345   2.206  11.183
68645SOL     OW 7831  14.064  14.583  11.790
68645SOL    HW1 7832  14.149  14.625  11.780
68645SOL    HW2 7833  14.010  14.620  11.720
68646SOL     OW 7834   5.468   9.304   2.627
68646SOL    HW1 7835   5.439   9.241   2.693
68646SOL    HW2 7836   5.527   9.254   2.571
68647SOL     OW 7837   0.473   7.967  10.130
68647SOL    HW1 7838   0.519   7.889  10.098
68647SOL    HW2 7839   0.420   7.935  10.203
68648SOL     OW 7840   2.295   8.824   0.138
68648SOL    HW1 7841   2.258   8.905   0.104
68648SOL    HW2 7842   2.369   8.805   0.081
68649SOL     OW 7843   0.297   9.525   7.549
68649SOL    HW1 7844   0.306   9.563   7.462
68649SOL    HW2 7845   0.385   9.526   7.585
68650SOL     OW 7846   0.455   8.367  11.902
68650SOL    HW1 7847   0.415   8.291  11.944
68650SOL    HW2 7848   0.512   8.406  11.968
68651SOL     OW 7849   3.501   2.617  14.303
68651SOL    HW1 7850   3.411   2.610  14.272
68651SOL    HW2 7851   3.510   2.707  14.332
68652SOL     OW 7852  13.282   2.214  11.305
68652SOL    HW1 7853  13.330   2.133  11.322
68652SOL    HW2 7854  13.290   2.227  11.210
68653SOL     OW 7855  14.755   8.177   6.609
68653SOL    HW1 7856  14.744   8.204   6.518
68653SOL    HW2 7857  14.705   8.241   6.660
68654SOL     OW 7858   1.135   6.060   8.726
68654SOL    HW1 7859   1.130   6.150   8.694
68654SOL    HW2 7860   1.099   6.008   8.654
68655SOL     OW 7861  14.114  14.565   0.245
68655SOL    HW1 7862  14.112  14.569   0.150
68655SOL    HW2 7863  14.086  14.652   0.273
68656SOL     OW 7864   5.625   7.082   5.659
68656SOL    HW1 7865   5.662   7.148   5.718
68656SOL    HW2 7866   5.573   7.132   5.597
68657SOL     OW 7867   1.446   7.256   9.610
68657SOL    HW1 7868   1.434   7.195   9.684
68657SOL    HW2 7869   1.525   7.224   9.566
68658SOL     OW 7870  11.388   0.585  11.534
68658SOL    HW1 7871  11.333   0.535  11.595
68658SOL    HW2 7872  11.344   0.669  11.526
68659SOL     OW 7873   6.667   4.363  13.051
68659SOL    HW1 7874   6.690   4.280  13.010
68659SOL    HW2 7875   6.749   4.412  13.054
68660SOL     OW 7876  10.244   5.265   4.134
68660SOL    HW1 7877  10.172   5.327   4.149
68660SOL    HW2 7878  10.321   5.321   4.126
68661SOL     OW 7879   1.634  10.269  14.841
68661SOL    HW1 7880   1.592  10.347  14.804
68661SOL    HW2 7881   1.724  10.295  14.857
68662SOL     OW 7882   9.870   3.502   3.290
68662SOL    HW1 7883   9.938   3.557   3.251
68662SOL    HW2 7884   9.913   3.416   3.300
68663SOL     OW 7885   0.191   1.848   1.863
68663SOL    HW1 7886   0.268   1.895   1.894
68663SOL    HW2 7887   0.186   1.869   1.770
68664SOL     OW 7888  11.579   4.042  12.591
68664SOL    HW1 7889  11.575   3.955  12.632
68664SOL    HW2 7890  11.536   4.031  12.507
68665SOL     OW 7891   8.087   7.569   9.376
68665SOL    HW1 7892   8.095   7.529   9.290
68665SOL    HW2 7893   8.033   7.647   9.361
68666SOL     OW 7894  14.288  10.177   6.821
68666SOL    HW1 7895  14.356  10.244   6.817
68666SOL    HW2 7896  14.319  10.114   6.886
68667SOL     OW 7897   7.419   6.391  12.308
68667SOL    HW1 7898   7.331   6.361  12.332
68667SOL    HW2 7899   7.406   6.440  12.227
68668SOL     OW 7900   1.675   2.193   3.426
68668SOL    HW1 7901   1.649   2.169   3.515
68668SOL    HW2 7902   1.740   2.128   3.401
68669SOL     OW 7903  11.536  13.232   3.608
68669SOL    HW1 7904  11.502  13.149   3.644
68669SOL    HW2 7905  11.534  13.292   3.682
68670SOL     OW 7906   4.177   4.733  10.815
68670SOL    HW1 7907   4.198   4.639  10.820
68670SOL    HW2 7908   4.261   4.777  10.830
68671SOL     OW 7909   8.165  13.390   8.503
68671SOL    HW1 7910   8.088  13.334   8.510
68671SOL    HW2 7911   8.174  13.429   8.590
68672SOL     OW 7912   5.583   3.427   9.172
68672SOL    HW1 7913   5.627   3.450   9.254
68672SOL    HW2 7914   5.654   3.411   9.110
68673SOL     OW 7915   2.634   5.435  14.629
68673SOL    HW1 7916   2.637   5.510  14.689
68673SOL    HW2 7917   2.609   5.473  14.545
68674SOL     OW 7918   3.567  12.491   0.532
68674SOL    HW1 7919   3.540  12.419   0.474
68674SOL    HW2 7920   3.609  12.554   0.473
68675SOL     OW 7921  14.730   0.618   7.299
68675SOL    HW1 7922  14.819   0.625   7.333
68675SOL    HW2 7923  14.680   0.575   7.369
68676SOL     OW 7924   7.721   8.759  11.298
68676SOL    HW1 7925   7.628   8.782  11.296
68676SOL    HW2 7926   7.765   8.842  11.319
68677SOL     OW 7927   2.905   3.119   9.932
68677SOL    HW1 7928   2.956   3.189   9.974
68677SOL    HW2 7929   2.824   3.115   9.982
68678SOL     OW 7930  13.309   1.074   4.524
68678SOL    HW1 7931  13.240   1.124   4.479
68678SOL    HW2 7932  13.362   1.038   4.453
68679SOL     OW 7933  10.655   3.436   5.872
68679SOL    HW1 7934  10.591   3.463   5.806
68679SOL    HW2 7935  10.656   3.508   5.935
68680SOL     OW 7936   2.978   3.425   5.305
68680SOL    HW1 7937   2.940   3.483   5.370
68680SOL    HW2 7938   2.953   3.462   5.221
68681SOL     OW 7939   2.192   1.978   6.993
68681SOL    HW1 7940   2.251   1.913   6.955
68681SOL    HW2 7941   2.250   2.049   7.021
68682SOL     OW 7942  11.625  14.678   6.148
68682SOL    HW1 7943  11.530  14.683   6.160
68682SOL    HW2 7944  11.652  14.767   6.127
68683SOL     OW 7945   7.040   9.081  13.742
68683SOL    HW1 7946   6.987   9.026  13.800
68683SOL    HW2 7947   7.033   9.038  13.656
68684SOL     OW 7948  12.839   1.369  10.010
68684SOL    HW1 7949  12.932   1.355  10.025
68684SOL    HW2 7950  12.824   1.460  10.038
68685SOL     OW 7951  10.336  10.710   7.398
68685SOL    HW1 7952  10.255  10.659   7.394
68685SOL    HW2 7953  10.376  10.699   7.312
68686SOL     OW 7954   5.137  13.956   3.594
68686SOL    HW1 7955   5.120  14.009   3.517
68686SOL    HW2 7956   5.052  13.947   3.637
68687SOL     OW 7957   2.180   9.633   8.941
68687SOL    HW1 7958   2.242   9.561   8.934
68687SOL    HW2 7959   2.147   9.645   8.852
68688SOL     OW 7960  14.810   5.357   4.720
68688SOL    HW1 7961   0.035   5.338   4.729
68688SOL    HW2 7962  14.794   5.430   4.779
68689SOL     OW 7963   8.921  11.669   3.395
68689SOL    HW1 7964   8.915  11.592   3.453
68689SOL    HW2 7965   8.982  11.642   3.326
68690SOL     OW 7966  10.262   0.005   1.120
68690SOL    HW1 7967  10.334   0.037   1.175
68690SOL    HW2 7968  10.193   0.070   1.130
68691SOL     OW 7969   1.021   1.712   4.033
68691SOL    HW1 7970   1.034   1.746   4.121
68691SOL    HW2 7971   0.930   1.733   4.012
68692SOL     OW 7972  10.911  11.684   7.318
68692SOL    HW1 7973  10.881  11.761   7.367
68692SOL    HW2 7974  10.936  11.621   7.385
68693SOL     OW 7975   6.903   7.350  12.656
68693SOL    HW1 7976   6.972   7.284  12.650
68693SOL    HW2 7977   6.934   7.412  12.722
68694SOL     OW 7978  14.818   2.351   3.626
68694SOL    HW1 7979  14.735   2.394   3.643
68694SOL    HW2 7980  14.814   2.328   3.533
68695SOL     OW 7981   4.975   8.045   9.785
68695SOL    HW1 7982   4.967   7.951   9.801
68695SOL    HW2 7983   5.058   8.054   9.738
68696SOL     OW 7984   3.716  13.467   7.069
68696SOL    HW1 7985   3.791  13.513   7.107
68696SOL    HW2 7986   3.743  13.448   6.979
68697SOL     OW 7987   8.100   6.372  12.578
68697SOL    HW1 7988   8.095   6.420  12.495
68697SOL    HW2 7989   8.152   6.294  12.558
68698SOL     OW 7990  13.761  12.699  11.557
68698SOL    HW1 7991  13.690  12.700  11.621
68698SOL    HW2 7992  13.821  12.767  11.586
68699SOL     OW 7993  11.660  12.610   1.535
68699SOL    HW1 7994  11.750  12.599   1.565
68699SOL    HW2 7995  11.629  12.521   1.521
68700SOL     OW 7996   8.032  14.819   8.678
68700SOL    HW1 7997   7.949  14.832   8.633
68700SOL    HW2 7998   8.052   0.035   8.719
68701SOL     OW 7999   3.538  11.324  10.278
68701SOL    HW1 8000   3.587  11.248  10.311
68701SOL    HW2 8001   3.525  11.379  10.355
68702SOL     OW 8002   5.345   2.102  14.116
68702SOL    HW1 8003   5.338   2.107  14.021
68702SOL    HW2 8004   5.393   2.021  14.133
68703SOL     OW 8005   2.925   8.192   9.908
68703SOL    HW1 8006   3.006   8.146   9.930
68703SOL    HW2 8007   2.871   8.185   9.987
68704SOL     OW 8008   3.982   0.858   0.351
68704SOL    HW1 8009   4.013   0.835   0.264
68704SOL    HW2 8010   3.889   0.836   0.351
68705SOL     OW 8011   8.572   7.646  10.132
68705SOL    HW1 8012   8.632   7.672  10.202
68705SOL    HW2 8013   8.570   7.550  10.136
68706SOL     OW 8014   8.368   6.027   6.075
68706SOL    HW1 8015   8.358   5.954   6.137
68706SOL    HW2 8016   8.286   6.027   6.026
68707SOL     OW 8017   9.042   5.974   7.382
68707SOL    HW1 8018   9.090   5.914   7.325
68707SOL    HW2 8019   8.950   5.958   7.362
68708SOL     OW 8020  12.509  14.141   4.873
68708SOL    HW1 8021  12.496  14.176   4.785
68708SOL    HW2 8022  12.465  14.056   4.871
68709SOL     OW 8023  13.645   3.449   5.912
68709SOL    HW1 8024  13.653   3.539   5.882
68709SOL    HW2 8025  13.684   3.396   5.842
68710SOL     OW 8026   7.761  11.452   4.796
68710SOL    HW1 8027   7.786  11.534   4.754
68710SOL    HW2 8028   7.692  11.476   4.858
68711SOL     OW 8029   0.040  11.111  12.285
68711SOL    HW1 8030   0.117  11.113  12.343
68711SOL    HW2 8031   0.052  11.186  12.228
68712SOL     OW 8032  11.934  13.030  14.527
68712SOL    HW1 8033  11.868  12.992  14.585
68712SOL    HW2 8034  11.912  12.998  14.440
68713SOL     OW 8035   6.952   8.306   2.374
68713SOL    HW1 8036   6.978   8.214   2.381
68713SOL    HW2 8037   7.033   8.352   2.354
68714SOL     OW 8038   8.114  11.185  13.233
68714SOL    HW1 8039   8.206  11.197  13.253
68714SOL    HW2 8040   8.111  11.105  13.181
68715SOL     OW 8041  12.148   6.822  11.340
68715SOL    HW1 8042  12.109   6.781  11.417
68715SOL    HW2 8043  12.123   6.766  11.267
68716SOL     OW 8044   9.238   0.071   2.463
68716SOL    HW1 8045   9.266   0.076   2.554
68716SOL    HW2 8046   9.260  14.849   2.436
68717SOL     OW 8047   5.218   9.837   7.260
68717SOL    HW1 8048   5.214   9.748   7.225
68717SOL    HW2 8049   5.302   9.871   7.229
68718SOL     OW 8050  10.041  11.880   6.699
68718SOL    HW1 8051   9.950  11.849   6.702
68718SOL    HW2 8052  10.061  11.888   6.606
68719SOL     OW 8053   8.855   7.141   1.466
68719SOL    HW1 8054   8.795   7.072   1.438
68719SOL    HW2 8055   8.891   7.109   1.548
68720SOL     OW 8056   2.184   5.451  12.946
68720SOL    HW1 8057   2.246   5.383  12.919
68720SOL    HW2 8058   2.239   5.519  12.984
68721SOL     OW 8059   8.607   5.090   8.906
68721SOL    HW1 8060   8.530   5.036   8.924
68721SOL    HW2 8061   8.614   5.090   8.810
68722SOL     OW 8062   9.907  10.418   0.179
68722SOL    HW1 8063   9.874  10.386   0.263
68722SOL    HW2 8064   9.973  10.354   0.154
68723SOL     OW 8065   0.575  10.708  11.626
68723SOL    HW1 8066   0.637  10.648  11.667
68723SOL    HW2 8067   0.591  10.698  11.532
68724SOL     OW 8068  13.719   1.638  10.298
68724SOL    HW1 8069  13.766   1.677  10.224
68724SOL    HW2 8070  13.706   1.711  10.358
68725SOL     OW 8071   3.616   3.510   1.477
68725SOL    HW1 8072   3.711   3.509   1.487
68725SOL    HW2 8073   3.599   3.579   1.414
68726SOL     OW 8074   7.395   7.813   5.508
68726SOL    HW1 8075   7.367   7.723   5.490
68726SOL    HW2 8076   7.314   7.864   5.508
68727SOL     OW 8077   8.612  14.656  10.591
68727SOL    HW1 8078   8.524  14.671  10.557
68727SOL    HW2 8079   8.654  14.600  10.526
68728SOL     OW 8080   9.176  14.865  11.581
68728SOL    HW1 8081   9.176   0.077  11.527
68728SOL    HW2 8082   9.125  14.802  11.530
68729SOL     OW 8083   9.494   6.211   7.640
68729SOL    HW1 8084   9.453   6.266   7.573
68729SOL    HW2 8085   9.440   6.132   7.643
68730SOL     OW 8086   1.086  10.199   3.775
68730SOL    HW1 8087   1.087  10.229   3.684
68730SOL    HW2 8088   1.015  10.134   3.778
68731SOL     OW 8089   6.473  13.543   0.636
68731SOL    HW1 8090   6.458  13.449   0.642
68731SOL    HW2 8091   6.452  13.566   0.545
68732SOL     OW 8092   8.780   2.428   9.829
68732SOL    HW1 8093   8.702   2.419   9.774
68732SOL    HW2 8094   8.760   2.502   9.887
68733SOL     OW 8095  14.595   6.649  13.967
68733SOL    HW1 8096  14.540   6.618  14.039
68733SOL    HW2 8097  14.613   6.740  13.988
68734SOL     OW 8098  13.203   9.012   8.317
68734SOL    HW1 8099  13.194   8.925   8.279
68734SOL    HW2 8100  13.290   9.012   8.358
68735SOL     OW 8101   0.005  10.957  11.276
68735SOL    HW1 8102   0.016  10.988  11.365
68735SOL    HW2 8103  14.828  11.028  11.231
68736SOL     OW 8104   4.616   7.155  14.277
68736SOL    HW1 8105   4.644   7.090  14.341
68736SOL    HW2 8106   4.539   7.196  14.316
68737SOL     OW 8107   9.244  11.441  12.548
68737SOL    HW1 8108   9.174  11.411  12.606
68737SOL    HW2 8109   9.314  11.469  12.607
68738SOL     OW 8110   7.499   1.665   6.177
68738SOL    HW1 8111   7.504   1.756   6.147
68738SOL    HW2 8112   7.410   1.638   6.157
68739SOL     OW 8113   2.880  12.133  12.733
68739SOL    HW1 8114   2.864  12.136  12.827
68739SOL    HW2 8115   2.795  12.114  12.694
68740SOL     OW 8116   8.478   2.665   3.984
68740SOL    HW1 8117   8.562   2.660   3.940
68740SOL    HW2 8118   8.474   2.754   4.019
68741SOL     OW 8119  11.246  12.631   5.950
68741SOL    HW1 8120  11.308  12.581   5.898
68741SOL    HW2 8121  11.251  12.592   6.038
68742SOL     OW 8122   8.231   0.220   0.146
68742SOL    HW1 8123   8.158   0.180   0.194
68742SOL    HW2 8124   8.264   0.150   0.090
68743SOL     OW 8125   3.313  14.000   4.332
68743SOL    HW1 8126   3.251  14.064   4.297
68743SOL    HW2 8127   3.259  13.937   4.378
68744SOL     OW 8128  10.763   6.185   5.562
68744SOL    HW1 8129  10.797   6.116   5.506
68744SOL    HW2 8130  10.670   6.190   5.540
68745SOL     OW 8131  11.645   1.887   7.853
68745SOL    HW1 8132  11.618   1.846   7.935
68745SOL    HW2 8133  11.614   1.978   7.861
68746SOL     OW 8134  13.015  12.471   7.293
68746SOL    HW1 8135  12.965  12.509   7.222
68746SOL    HW2 8136  13.063  12.544   7.331
68747SOL     OW 8137  13.886   2.338   6.536
68747SOL    HW1 8138  13.981   2.327   6.537
68747SOL    HW2 8139  13.864   2.363   6.626
68748SOL     OW 8140   8.398   2.912  13.703
68748SOL    HW1 8141   8.434   2.999  13.721
68748SOL    HW2 8142   8.308   2.916  13.737
68749SOL     OW 8143  13.609   1.951   4.230
68749SOL    HW1 8144  13.677   2.015   4.250
68749SOL    HW2 8145  13.641   1.905   4.153
68750SOL     OW 8146   7.348   1.360  12.041
68750SOL    HW1 8147   7.409   1.432  12.055
68750SOL    HW2 8148   7.330   1.361  11.947
68751SOL     OW 8149  14.169  10.456  14.244
68751SOL    HW1 8150  14.242  10.515  14.226
68751SOL    HW2 8151  14.201  10.399  14.314
68752SOL     OW 8152  13.673   3.781   1.189
68752SOL    HW1 8153  13.728   3.710   1.222
68752SOL    HW2 8154  13.694   3.787   1.096
68753SOL     OW 8155   7.468  12.259   0.344
68753SOL    HW1 8156   7.484  12.323   0.413
68753SOL    HW2 8157   7.553  12.248   0.301
68754SOL     OW 8158  11.087   3.852  14.568
68754SOL    HW1 8159  11.012   3.881  14.516
68754SOL    HW2 8160  11.153   3.920  14.554
68755SOL     OW 8161   6.690   1.787  14.001
68755SOL    HW1 8162   6.688   1.699  13.963
68755SOL    HW2 8163   6.755   1.835  13.950
68756SOL     OW 8164   3.807  14.714  14.747
68756SOL    HW1 8165   3.747  14.640  14.738
68756SOL    HW2 8166   3.814  14.728  14.842
68757SOL     OW 8167   4.753  12.474   7.762
68757SOL    HW1 8168   4.778  12.567   7.759
68757SOL    HW2 8169   4.770  12.442   7.674
68758SOL     OW 8170   4.680  12.760  11.923
68758SOL    HW1 8171   4.689  12.747  12.018
68758SOL    HW2 8172   4.588  12.787  11.912
68759SOL     OW 8173   3.787   9.105   5.556
68759SOL    HW1 8174   3.795   9.031   5.496
68759SOL    HW2 8175   3.861   9.161   5.535
68760SOL     OW 8176   6.163   1.690   8.154
68760SOL    HW1 8177   6.251   1.708   8.122
68760SOL    HW2 8178   6.171   1.607   8.201
68761SOL     OW 8179  13.117   2.734  11.341
68761SOL    HW1 8180  13.180   2.691  11.399
68761SOL    HW2 8181  13.168   2.757  11.263
68762SOL     OW 8182   0.281   5.809  12.928
68762SOL    HW1 8183   0.296   5.715  12.916
68762SOL    HW2 8184   0.354   5.851  12.884
68763SOL     OW 8185   0.752   9.260   4.655
68763SOL    HW1 8186   0.718   9.172   4.642
68763SOL    HW2 8187   0.753   9.298   4.567
68764SOL     OW 8188   6.615   0.981   7.318
68764SOL    HW1 8189   6.641   0.945   7.233
68764SOL    HW2 8190   6.697   1.002   7.362
68765SOL     OW 8191   9.651   8.002  14.573
68765SOL    HW1 8192   9.587   7.974  14.638
68765SOL    HW2 8193   9.732   8.015  14.624
68766SOL     OW 8194   3.858  10.919   0.584
68766SOL    HW1 8195   3.934  10.969   0.612
68766SOL    HW2 8196   3.787  10.984   0.578
68767SOL     OW 8197   6.302   4.346  11.862
68767SOL    HW1 8198   6.283   4.354  11.769
68767SOL    HW2 8199   6.313   4.436  11.893
68768SOL     OW 8200   5.359  13.466  12.986
68768SOL    HW1 8201   5.269  13.443  13.011
68768SOL    HW2 8202   5.361  13.562  12.990
68769SOL     OW 8203   9.406  14.634  10.549
68769SOL    HW1 8204   9.370  14.546  10.566
68769SOL    HW2 8205   9.344  14.693  10.592
68770SOL     OW 8206   7.466  14.055   3.429
68770SOL    HW1 8207   7.448  14.129   3.371
68770SOL    HW2 8208   7.548  14.078   3.473
68771SOL     OW 8209  10.794  14.136   9.205
68771SOL    HW1 8210  10.735  14.072   9.166
68771SOL    HW2 8211  10.855  14.158   9.136
68772SOL     OW 8212  13.642   9.394  13.636
68772SOL    HW1 8213  13.681   9.310  13.614
68772SOL    HW2 8214  13.713   9.444  13.676
68773SOL     OW 8215  12.958  12.543   9.596
68773SOL    HW1 8216  13.001  12.570   9.514
68773SOL    HW2 8217  13.022  12.561   9.664
68774SOL     OW 8218  11.373   9.570  12.747
68774SOL    HW1 8219  11.424   9.617  12.813
68774SOL    HW2 8220  11.438   9.519  12.698
68775SOL     OW 8221   8.709  14.725   0.750
68775SOL    HW1 8222   8.639  14.686   0.697
68775SOL    HW2 8223   8.708  14.818   0.726
68776SOL     OW 8224  10.466  14.538  11.306
68776SOL    HW1 8225  10.404  14.597  11.264
68776SOL    HW2 8226  10.550  14.559  11.265
68777SOL     OW 8227   5.078  10.376  11.083
68777SOL    HW1 8228   5.160  10.419  11.058
68777SOL    HW2 8229   5.097  10.282  11.075
68778SOL     OW 8230  10.315  14.284  12.023
68778SOL    HW1 8231  10.364  14.203  12.016
68778SOL    HW2 8232  10.239  14.272  11.966
68779SOL     OW 8233  11.881   6.025  14.386
68779SOL    HW1 8234  11.827   6.022  14.465
68779SOL    HW2 8235  11.933   5.945  14.389
68780SOL     OW 8236  13.672   6.236   0.049
68780SOL    HW1 8237  13.687   6.253  14.824
68780SOL    HW2 8238  13.588   6.277   0.068
68781SOL     OW 8239   1.398  11.157   5.845
68781SOL    HW1 8240   1.458  11.105   5.898
68781SOL    HW2 8241   1.366  11.224   5.904
68782SOL     OW 8242   4.044   0.682   4.108
68782SOL    HW1 8243   4.005   0.709   4.024
68782SOL    HW2 8244   4.068   0.765   4.150
68783SOL     OW 8245   1.137   5.109   1.810
68783SOL    HW1 8246   1.173   5.099   1.722
68783SOL    HW2 8247   1.044   5.088   1.800
68784SOL     OW 8248   9.624   4.807   4.334
68784SOL    HW1 8249   9.539   4.829   4.296
68784SOL    HW2 8250   9.637   4.714   4.314
68785SOL     OW 8251   9.366  14.347   9.640
68785SOL    HW1 8252   9.402  14.434   9.651
68785SOL    HW2 8253   9.299  14.340   9.707
68786SOL     OW 8254  13.628   7.284   3.739
68786SOL    HW1 8255  13.611   7.206   3.686
68786SOL    HW2 8256  13.682   7.340   3.684
68787SOL     OW 8257  11.149   1.297   2.715
68787SOL    HW1 8258  11.101   1.215   2.708
68787SOL    HW2 8259  11.137   1.339   2.630
68788SOL     OW 8260   7.198   1.082  14.821
68788SOL    HW1 8261   7.258   1.010  14.838
68788SOL    HW2 8262   7.173   1.073  14.729
68789SOL     OW 8263   5.841  14.244   4.895
68789SOL    HW1 8264   5.908  14.176   4.886
68789SOL    HW2 8265   5.758  14.198   4.881
68790SOL     OW 8266  10.279   3.174  11.668
68790SOL    HW1 8267  10.354   3.216  11.709
68790SOL    HW2 8268  10.229   3.246  11.630
68791SOL     OW 8269  14.681  12.152   8.463
68791SOL    HW1 8270  14.752  12.196   8.415
68791SOL    HW2 8271  14.716  12.064   8.481
68792SOL     OW 8272   4.083   7.697  10.437
68792SOL    HW1 8273   4.108   7.771  10.381
68792SOL    HW2 8274   4.158   7.685  10.495
68793SOL     OW 8275   1.779   4.320   3.229
68793SOL    HW1 8276   1.769   4.408   3.264
68793SOL    HW2 8277   1.692   4.298   3.195
68794SOL     OW 8278   6.650  13.955   7.553
68794SOL    HW1 8279   6.691  13.870   7.571
68794SOL    HW2 8280   6.632  13.992   7.639
68795SOL     OW 8281  12.495   5.779   1.339
68795SOL    HW1 8282  12.481   5.760   1.432
68795SOL    HW2 8283  12.516   5.694   1.300
68796SOL     OW 8284   4.400   2.144  11.001
68796SOL    HW1 8285   4.419   2.169  11.092
68796SOL    HW2 8286   4.397   2.048  11.003
68797SOL     OW 8287   5.836  12.134   8.939
68797SOL    HW1 8288   5.759  12.181   8.905
68797SOL    HW2 8289   5.882  12.104   8.861
68798SOL     OW 8290   5.551   5.588  13.374
68798SOL    HW1 8291   5.543   5.493  13.366
68798SOL    HW2 8292   5.633   5.601  13.422
68799SOL     OW 8293   8.160   5.052   9.568
68799SOL    HW1 8294   8.235   4.997   9.548
68799SOL    HW2 8295   8.090   4.990   9.590
68800SOL     OW 8296   1.188   8.933   2.628
68800SOL    HW1 8297   1.263   8.958   2.681
68800SOL    HW2 8298   1.112   8.947   2.684
68801SOL     OW 8299   9.968   3.013   0.467
68801SOL    HW1 8300  10.052   3.056   0.449
68801SOL    HW2 8301   9.937   3.055   0.547
68802SOL     OW 8302   4.246   2.935   2.743
68802SOL    HW1 8303   4.225   3.028   2.755
68802SOL    HW2 8304   4.302   2.913   2.818
68803SOL     OW 8305  12.154   1.774  11.543
68803SOL    HW1 8306  12.082   1.759  11.604
68803SOL    HW2 8307  12.122   1.844  11.485
68804SOL     OW 8308  14.115   8.821   1.978
68804SOL    HW1 8309  14.043   8.880   1.998
68804SOL    HW2 8310  14.177   8.835   2.050
68805SOL     OW 8311   6.143  14.753   1.569
68805SOL    HW1 8312   6.165  14.839   1.607
68805SOL    HW2 8313   6.209  14.694   1.605
68806SOL     OW 8314   2.111  12.605  13.193
68806SOL    HW1 8315   2.059  12.568  13.121
68806SOL    HW2 8316   2.198  12.616  13.157
68807SOL     OW 8317   7.137   3.326   2.730
68807SOL    HW1 8318   7.104   3.308   2.642
68807SOL    HW2 8319   7.113   3.250   2.782
68808SOL     OW 8320  12.681  13.255  10.114
68808SOL    HW1 8321  12.684  13.351  10.120
68808SOL    HW2 8322  12.736  13.235  10.038
68809SOL     OW 8323  10.242  12.834   6.320
68809SOL    HW1 8324  10.333  12.845   6.295
68809SOL    HW2 8325  10.202  12.919   6.306
68810SOL     OW 8326   5.012  13.907  12.066
68810SOL    HW1 8327   5.047  13.950  12.144
68810SOL    HW2 8328   4.953  13.971  12.028
68811SOL     OW 8329   6.616  13.275   3.487
68811SOL    HW1 8330   6.657  13.189   3.480
68811SOL    HW2 8331   6.597  13.300   3.397
68812SOL     OW 8332   5.147  11.393   7.080
68812SOL    HW1 8333   5.236  11.367   7.056
68812SOL    HW2 8334   5.157  11.437   7.165
68813SOL     OW 8335   5.309  12.938  12.696
68813SOL    HW1 8336   5.391  12.914  12.738
68813SOL    HW2 8337   5.252  12.862  12.708
68814SOL     OW 8338   1.621  11.918   7.105
68814SOL    HW1 8339   1.688  11.940   7.040
68814SOL    HW2 8340   1.612  11.998   7.157
68815SOL     OW 8341   6.730   9.609   3.080
68815SOL    HW1 8342   6.761   9.525   3.044
68815SOL    HW2 8343   6.701   9.588   3.168
68816SOL     OW 8344  14.292   3.942   7.590
68816SOL    HW1 8345  14.344   3.868   7.623
68816SOL    HW2 8346  14.213   3.941   7.643
68817SOL     OW 8347   9.675  14.057   7.907
68817SOL    HW1 8348   9.716  14.007   7.836
68817SOL    HW2 8349   9.583  14.031   7.905
68818SOL     OW 8350  12.571  14.499  11.421
68818SOL    HW1 8351  12.628  14.514  11.345
68818SOL    HW2 8352  12.538  14.586  11.444
68819SOL     OW 8353   1.466   2.983   2.692
68819SOL    HW1 8354   1.548   3.024   2.665
68819SOL    HW2 8355   1.471   2.976   2.787
68820SOL     OW 8356  12.475   0.371   7.994
68820SOL    HW1 8357  12.381   0.388   7.988
68820SOL    HW2 8358  12.482   0.290   8.043
68821SOL     OW 8359   3.275   6.989   3.190
68821SOL    HW1 8360   3.274   7.000   3.095
68821SOL    HW2 8361   3.190   6.949   3.210
68822SOL     OW 8362   7.646   6.524  13.684
68822SOL    HW1 8363   7.567   6.471  13.694
68822SOL    HW2 8364   7.657   6.532  13.589
68823SOL     OW 8365   0.663   9.915   3.372
68823SOL    HW1 8366   0.612   9.863   3.434
68823SOL    HW2 8367   0.667   9.861   3.293
68824SOL     OW 8368  14.264  13.428   9.294
68824SOL    HW1 8369  14.253  13.442   9.388
68824SOL    HW2 8370  14.276  13.516   9.258
68825SOL     OW 8371   1.983   2.596  12.375
68825SOL    HW1 8372   2.066   2.554  12.354
68825SOL    HW2 8373   1.923   2.566  12.307
68826SOL     OW 8374  12.685  11.016  11.600
68826SOL    HW1 8375  12.772  11.056  11.597
68826SOL    HW2 8376  12.625  11.088  11.617
68827SOL     OW 8377   2.836   9.734   8.856
68827SOL    HW1 8378   2.794   9.680   8.924
68827SOL    HW2 8379   2.874   9.671   8.795
68828SOL     OW 8380  11.990  14.832   7.079
68828SOL    HW1 8381  12.033  14.811   7.161
68828SOL    HW2 8382  11.928   0.033   7.101
68829SOL     OW 8383   3.501   3.014   3.322
68829SOL    HW1 8384   3.418   3.049   3.356
68829SOL    HW2 8385   3.560   3.089   3.320
68830SOL     OW 8386  12.904  12.840   7.521
68830SOL    HW1 8387  12.897  12.761   7.575
68830SOL    HW2 8388  12.977  12.889   7.560
68831SOL     OW 8389   4.961  13.749   2.176
68831SOL    HW1 8390   4.977  13.667   2.224
68831SOL    HW2 8391   4.964  13.817   2.243
68832SOL     OW 8392  10.277   3.050  14.043
68832SOL    HW1 8393  10.252   3.006  14.125
68832SOL    HW2 8394  10.201   3.039  13.986
68833SOL     OW 8395   1.259   6.755   1.006
68833SOL    HW1 8396   1.233   6.843   1.031
68833SOL    HW2 8397   1.250   6.704   1.087
68834SOL     OW 8398   6.995  11.354   7.794
68834SOL    HW1 8399   7.021  11.395   7.877
68834SOL    HW2 8400   6.902  11.377   7.785
68835SOL     OW 8401   0.804   1.078   9.230
68835SOL    HW1 8402   0.772   1.165   9.255
68835SOL    HW2 8403   0.750   1.017   9.280
68836SOL     OW 8404   8.082   7.519  11.156
68836SOL    HW1 8405   8.115   7.607  11.173
68836SOL    HW2 8406   7.988   7.525  11.167
68837SOL     OW 8407  10.960  12.550  13.426
68837SOL    HW1 8408  10.900  12.613  13.388
68837SOL    HW2 8409  10.948  12.559  13.521
68838SOL     OW 8410   9.066   1.465  11.061
68838SOL    HW1 8411   9.023   1.397  11.113
68838SOL    HW2 8412   9.018   1.465  10.978
68839SOL     OW 8413   1.474  13.001   4.957
68839SOL    HW1 8414   1.382  12.977   4.964
68839SOL    HW2 8415   1.516  12.925   4.917
68840SOL     OW 8416   1.173   5.878  12.883
68840SOL    HW1 8417   1.167   5.881  12.978
68840SOL    HW2 8418   1.265   5.857  12.865
68841SOL     OW 8419   6.568   0.048   7.662
68841SOL    HW1 8420   6.545   0.093   7.743
68841SOL    HW2 8421   6.654   0.009   7.680
68842SOL     OW 8422   7.802   5.133  12.790
68842SOL    HW1 8423   7.814   5.225  12.816
68842SOL    HW2 8424   7.749   5.137  12.711
68843SOL     OW 8425   6.458   5.222   3.032
68843SOL    HW1 8426   6.485   5.175   3.111
68843SOL    HW2 8427   6.527   5.205   2.969
68844SOL     OW 8428   7.540  14.550  13.988
68844SOL    HW1 8429   7.497  14.620  13.938
68844SOL    HW2 8430   7.532  14.473  13.932
68845SOL     OW 8431   2.397   5.144  12.218
68845SOL    HW1 8432   2.352   5.147  12.302
68845SOL    HW2 8433   2.489   5.155  12.239
68846SOL     OW 8434  10.979   0.824  14.441
68846SOL    HW1 8435  10.948   0.734  14.433
68846SOL    HW2 8436  11.035   0.837  14.364
68847SOL     OW 8437   8.149  14.791  13.753
68847SOL    HW1 8438   8.192   0.009  13.760
68847SOL    HW2 8439   8.215  14.728  13.782
68848SOL     OW 8440  12.719   5.319  12.317
68848SOL    HW1 8441  12.701   5.404  12.358
68848SOL    HW2 8442  12.793   5.335  12.259
68849SOL     OW 8443  11.119   9.110   1.077
68849SOL    HW1 8444  11.036   9.139   1.115
68849SOL    HW2 8445  11.157   9.189   1.039
68850SOL     OW 8446   1.892   3.628   1.405
68850SOL    HW1 8447   1.831   3.660   1.338
68850SOL    HW2 8448   1.963   3.588   1.355
68851SOL     OW 8449   8.605   0.866   1.854
68851SOL    HW1 8450   8.608   0.774   1.827
68851SOL    HW2 8451   8.692   0.882   1.891
68852SOL     OW 8452   1.031   8.891   4.453
68852SOL    HW1 8453   1.102   8.953   4.467
68852SOL    HW2 8454   0.974   8.934   4.389
68853SOL     OW 8455   4.053   1.174   2.416
68853SOL    HW1 8456   3.982   1.238   2.409
68853SOL    HW2 8457   4.045   1.138   2.504
68854SOL     OW 8458   5.350   6.178  12.083
68854SOL    HW1 8459   5.379   6.196  11.994
68854SOL    HW2 8460   5.331   6.084  12.084
68855SOL     OW 8461  13.270  14.296  12.663
68855SOL    HW1 8462  13.242  14.354  12.734
68855SOL    HW2 8463  13.363  14.315  12.652
68856SOL     OW 8464   1.764  13.327  10.431
68856SOL    HW1 8465   1.779  13.252  10.489
68856SOL    HW2 8466   1.850  13.366  10.419
68857SOL     OW 8467   3.662   8.029   1.563
68857SOL    HW1 8468   3.667   8.123   1.545
68857SOL    HW2 8469   3.587   8.019   1.622
68858SOL     OW 8470   9.849   7.386   7.594
68858SOL    HW1 8471   9.767   7.369   7.639
68858SOL    HW2 8472   9.912   7.400   7.664
68859SOL     OW 8473   2.525   2.698   0.948
68859SOL    HW1 8474   2.608   2.741   0.927
68859SOL    HW2 8475   2.506   2.645   0.871
68860SOL     OW 8476   5.071   1.008   2.729
68860SOL    HW1 8477   4.987   1.013   2.775
68860SOL    HW2 8478   5.049   1.026   2.638
68861SOL     OW 8479  13.552  13.474   8.420
68861SOL    HW1 8480  13.475  13.526   8.443
68861SOL    HW2 8481  13.618  13.501   8.484
68862SOL     OW 8482   5.558   8.152   9.876
68862SOL    HW1 8483   5.589   8.135   9.965
68862SOL    HW2 8484   5.548   8.065   9.837
68863SOL     OW 8485   0.529   2.854   9.677
68863SOL    HW1 8486   0.617   2.864   9.640
68863SOL    HW2 8487   0.536   2.887   9.766
68864SOL     OW 8488  10.067   9.573   5.208
68864SOL    HW1 8489   9.985   9.607   5.244
68864SOL    HW2 8490  10.129   9.578   5.281
68865SOL     OW 8491   0.749  10.809  12.351
68865SOL    HW1 8492   0.804  10.831  12.276
68865SOL    HW2 8493   0.662  10.839  12.327
68866SOL     OW 8494   7.481   9.198   2.534
68866SOL    HW1 8495   7.408   9.167   2.480
68866SOL    HW2 8496   7.447   9.199   2.623
68867SOL     OW 8497  14.713   5.130   0.248
68867SOL    HW1 8498  14.796   5.167   0.277
68867SOL    HW2 8499  14.730   5.036   0.239
68868SOL     OW 8500   8.567   6.271  10.782
68868SOL    HW1 8501   8.595   6.181  10.792
68868SOL    HW2 8502   8.646   6.323  10.799
68869SOL     OW 8503   8.864   4.839   9.534
68869SOL    HW1 8504   8.920   4.833   9.456
68869SOL    HW2 8505   8.885   4.924   9.572
68870SOL     OW 8506   2.110   5.500  10.850
68870SOL    HW1 8507   2.057   5.499  10.770
68870SOL    HW2 8508   2.190   5.453  10.828
68871SOL     OW 8509   0.002   5.501   5.098
68871SOL    HW1 8510  14.781   5.471   5.116
68871SOL    HW2 8511   0.047   5.494   5.183
68872SOL     OW 8512   3.630  13.053   6.674
68872SOL    HW1 8513   3.559  13.118   6.678
68872SOL    HW2 8514   3.686  13.075   6.748
68873SOL     OW 8515   0.988   1.792   5.921
68873SOL    HW1 8516   0.987   1.731   5.994
68873SOL    HW2 8517   1.016   1.740   5.846
68874SOL     OW 8518   1.396   6.860   6.097
68874SOL    HW1 8519   1.404   6.791   6.032
68874SOL    HW2 8520   1.460   6.839   6.164
68875SOL     OW 8521  13.902   0.209  14.174
68875SOL    HW1 8522  13.813   0.177  14.184
68875SOL    HW2 8523  13.900   0.296  14.215
68876SOL     OW 8524  13.579   2.614   4.241
68876SOL    HW1 8525  13.593   2.705   4.265
68876SOL    HW2 8526  13.573   2.568   4.325
68877SOL     OW 8527  12.749  13.931   0.982
68877SOL    HW1 8528  12.675  13.967   1.029
68877SOL    HW2 8529  12.735  13.957   0.891
68878SOL     OW 8530  12.414  11.697  13.052
68878SOL    HW1 8531  12.419  11.737  13.138
68878SOL    HW2 8532  12.506  11.680  13.028
68879SOL     OW 8533  13.000  14.230  11.647
68879SOL    HW1 8534  12.928  14.167  11.647
68879SOL    HW2 8535  12.996  14.272  11.561
68880SOL     OW 8536   0.963   3.482  10.158
68880SOL    HW1 8537   1.056   3.462  10.172
68880SOL    HW2 8538   0.949   3.465  10.065
68881SOL     OW 8539  13.069  10.366   9.183
68881SOL    HW1 8540  13.159  10.394   9.197
68881SOL    HW2 8541  13.048  10.313   9.260
68882SOL     OW 8542   6.713   8.120   6.982
68882SOL    HW1 8543   6.793   8.123   6.928
68882SOL    HW2 8544   6.648   8.079   6.926
68883SOL     OW 8545  14.235  13.906  12.320
68883SOL    HW1 8546  14.331  13.911  12.316
68883SOL    HW2 8547  14.205  13.955  12.243
68884SOL     OW 8548   9.630  14.661  12.684
68884SOL    HW1 8549   9.679  14.687  12.606
68884SOL    HW2 8550   9.547  14.628  12.649
68885SOL     OW 8551   8.773   2.785  13.489
68885SOL    HW1 8552   8.728   2.831  13.417
68885SOL    HW2 8553   8.703   2.755  13.546
68886SOL     OW 8554  13.441   2.318  10.292
68886SOL    HW1 8555  13.436   2.377  10.367
68886SOL    HW2 8556  13.381   2.357  10.228
68887SOL     OW 8557  13.857   8.972   5.206
68887SOL    HW1 8558  13.832   9.062   5.183
68887SOL    HW2 8559  13.876   8.976   5.300
68888SOL     OW 8560  14.781  12.600  10.211
68888SOL    HW1 8561  14.725  12.644  10.148
68888SOL    HW2 8562  14.808  12.519  10.167
68889SOL     OW 8563   8.767  10.812   7.858
68889SOL    HW1 8564   8.752  10.733   7.911
68889SOL    HW2 8565   8.854  10.841   7.884
68890SOL     OW 8566   1.440   3.286  11.709
68890SOL    HW1 8567   1.355   3.267  11.748
68890SOL    HW2 8568   1.489   3.204  11.716
68891SOL     OW 8569   6.660   6.445   1.088
68891SOL    HW1 8570   6.573   6.406   1.091
68891SOL    HW2 8571   6.644   6.538   1.070
68892SOL     OW 8572  11.955   9.561   9.647
68892SOL    HW1 8573  11.968   9.537   9.739
68892SOL    HW2 8574  11.909   9.486   9.609
68893SOL     OW 8575   2.034   6.646  11.499
68893SOL    HW1 8576   1.956   6.697  11.476
68893SOL    HW2 8577   2.074   6.624  11.415
68894SOL     OW 8578   8.112   0.785  11.688
68894SOL    HW1 8579   8.104   0.835  11.606
68894SOL    HW2 8580   8.076   0.699  11.667
68895SOL     OW 8581   1.787   6.093  12.356
68895SOL    HW1 8582   1.751   6.169  12.401
68895SOL    HW2 8583   1.844   6.129  12.288
68896SOL     OW 8584   5.520   8.295   1.582
68896SOL    HW1 8585   5.575   8.286   1.659
68896SOL    HW2 8586   5.556   8.232   1.519
68897SOL     OW 8587  11.144   2.503   8.843
68897SOL    HW1 8588  11.164   2.576   8.903
68897SOL    HW2 8589  11.172   2.425   8.891
68898SOL     OW 8590  13.868   4.323  10.001
68898SOL    HW1 8591  13.945   4.336  10.057
68898SOL    HW2 8592  13.871   4.230   9.978
68899SOL     OW 8593  13.638   0.182   8.163
68899SOL    HW1 8594  13.613   0.237   8.089
68899SOL    HW2 8595  13.732   0.166   8.151
68900SOL     OW 8596  10.912  14.184   9.452
68900SOL    HW1 8597  10.971  14.109   9.460
68900SOL    HW2 8598  10.874  14.176   9.364
68901SOL     OW 8599   8.857   6.674   1.385
68901SOL    HW1 8600   8.939   6.692   1.430
68901SOL    HW2 8601   8.789   6.696   1.448
68902SOL     OW 8602  12.508   8.073   6.774
68902SOL    HW1 8603  12.492   8.160   6.810
68902SOL    HW2 8604  12.448   8.016   6.821
68903SOL     OW 8605  10.488  13.394   6.478
68903SOL    HW1 8606  10.576  13.384   6.514
68903SOL    HW2 8607  10.434  13.420   6.552
68904SOL     OW 8608  10.509   1.109  13.342
68904SOL    HW1 8609  10.486   1.045  13.409
68904SOL    HW2 8610  10.571   1.062  13.286
68905SOL     OW 8611   8.856   2.757   6.356
68905SOL    HW1 8612   8.946   2.759   6.389
68905SOL    HW2 8613   8.802   2.751   6.435
68906SOL     OW 8614   6.328   7.775   2.503
68906SOL    HW1 8615   6.313   7.864   2.532
68906SOL    HW2 8616   6.257   7.757   2.442
68907SOL     OW 8617   1.467   1.175  11.728
68907SOL    HW1 8618   1.384   1.197  11.770
68907SOL    HW2 8619   1.534   1.213  11.785
68908SOL     OW 8620  13.210   0.164  13.961
68908SOL    HW1 8621  13.293   0.211  13.966
68908SOL    HW2 8622  13.143   0.229  13.980
68909SOL     OW 8623   3.260   1.601   6.132
68909SOL    HW1 8624   3.326   1.584   6.064
68909SOL    HW2 8625   3.304   1.581   6.214
68910SOL     OW 8626  13.182   3.202  13.870
68910SOL    HW1 8627  13.150   3.281  13.826
68910SOL    HW2 8628  13.150   3.211  13.960
68911SOL     OW 8629   7.696   2.641  13.350
68911SOL    HW1 8630   7.727   2.560  13.310
68911SOL    HW2 8631   7.715   2.709  13.285
68912SOL     OW 8632   9.609   5.683  14.270
68912SOL    HW1 8633   9.667   5.622  14.317
68912SOL    HW2 8634   9.591   5.752  14.334
68913SOL     OW 8635   4.306   8.002  12.459
68913SOL    HW1 8636   4.340   7.964  12.378
68913SOL    HW2 8637   4.293   7.927  12.517
68914SOL     OW 8638   0.685   7.946   9.175
68914SOL    HW1 8639   0.669   7.884   9.103
68914SOL    HW2 8640   0.598   7.962   9.212
68915SOL     OW 8641   4.103  12.880  14.247
68915SOL    HW1 8642   4.185  12.925  14.269
68915SOL    HW2 8643   4.124  12.787  14.253
68916SOL     OW 8644   9.655   2.821   0.456
68916SOL    HW1 8645   9.695   2.875   0.524
68916SOL    HW2 8646   9.601   2.883   0.406
68917SOL     OW 8647  13.215  10.380  12.356
68917SOL    HW1 8648  13.152  10.322  12.399
68917SOL    HW2 8649  13.192  10.468  12.387
68918SOL     OW 8650   7.783   1.605  10.182
68918SOL    HW1 8651   7.703   1.591  10.131
68918SOL    HW2 8652   7.798   1.521  10.226
68919SOL     OW 8653   4.196   3.975   1.780
68919SOL    HW1 8654   4.148   4.024   1.847
68919SOL    HW2 8655   4.147   3.894   1.771
68920SOL     OW 8656  12.387   7.543   2.257
68920SOL    HW1 8657  12.408   7.607   2.189
68920SOL    HW2 8658  12.471   7.519   2.295
68921SOL     OW 8659  10.056  13.352   6.173
68921SOL    HW1 8660  10.019  13.265   6.187
68921SOL    HW2 8661  10.149  13.343   6.194
68922SOL     OW 8662  12.993   6.274   3.582
68922SOL    HW1 8663  12.966   6.294   3.493
68922SOL    HW2 8664  13.083   6.308   3.589
68923SOL     OW 8665   2.731   4.934   9.501
68923SOL    HW1 8666   2.662   4.898   9.557
68923SOL    HW2 8667   2.767   5.007   9.551
68924SOL     OW 8668  13.638  13.407   3.006
68924SOL    HW1 8669  13.614  13.329   2.956
68924SOL    HW2 8670  13.695  13.373   3.076
68925SOL     OW 8671  10.191  12.819   5.152
68925SOL    HW1 8672  10.247  12.762   5.099
68925SOL    HW2 8673  10.231  12.818   5.239
68926SOL     OW 8674   6.414  14.064  12.019
68926SOL    HW1 8675   6.369  14.033  11.940
68926SOL    HW2 8676   6.352  14.125  12.059
68927SOL     OW 8677  12.689   2.108  11.479
68927SOL    HW1 8678  12.629   2.036  11.458
68927SOL    HW2 8679  12.708   2.149  11.395
68928SOL     OW 8680   8.204  13.312   5.171
68928SOL    HW1 8681   8.281  13.298   5.225
68928SOL    HW2 8682   8.212  13.402   5.141
68929SOL     OW 8683   3.604   1.372   7.186
68929SOL    HW1 8684   3.636   1.459   7.162
68929SOL    HW2 8685   3.509   1.381   7.186
68930SOL     OW 8686   4.340   1.003   5.125
68930SOL    HW1 8687   4.429   1.019   5.157
68930SOL    HW2 8688   4.289   1.076   5.159
68931SOL     OW 8689  10.837  14.299  13.284
68931SOL    HW1 8690  10.888  14.220  13.300
68931SOL    HW2 8691  10.871  14.333  13.201
68932SOL     OW 8692  11.308   1.271  10.561
68932SOL    HW1 8693  11.258   1.212  10.503
68932SOL    HW2 8694  11.360   1.324  10.501
68933SOL     OW 8695  11.215   4.801   9.816
68933SOL    HW1 8696  11.231   4.807   9.722
68933SOL    HW2 8697  11.298   4.770   9.853
68934SOL     OW 8698   0.180  13.090  14.151
68934SOL    HW1 8699   0.139  13.120  14.070
68934SOL    HW2 8700   0.256  13.039  14.122
68935SOL     OW 8701   9.989   8.703   2.204
68935SOL    HW1 8702   9.925   8.708   2.275
68935SOL    HW2 8703  10.074   8.717   2.247
68936SOL     OW 8704   5.741  13.830  13.160
68936SOL    HW1 8705   5.676  13.819  13.229
68936SOL    HW2 8706   5.695  13.879  13.092
68937SOL     OW 8707   8.736   0.833   3.695
68937SOL    HW1 8708   8.682   0.905   3.728
68937SOL    HW2 8709   8.689   0.802   3.617
68938SOL     OW 8710   5.883   4.808   4.081
68938SOL    HW1 8711   5.815   4.748   4.051
68938SOL    HW2 8712   5.914   4.770   4.164
68939SOL     OW 8713  11.281   2.173  10.765
68939SOL    HW1 8714  11.329   2.136  10.839
68939SOL    HW2 8715  11.221   2.103  10.738
68940SOL     OW 8716   2.068   9.950  11.249
68940SOL    HW1 8717   2.067   9.877  11.187
68940SOL    HW2 8718   2.154   9.945  11.290
68941SOL     OW 8719   8.917   7.274   9.663
68941SOL    HW1 8720   8.959   7.189   9.657
68941SOL    HW2 8721   8.826   7.255   9.685
68942SOL     OW 8722   6.699  10.477  13.643
68942SOL    HW1 8723   6.760  10.505  13.711
68942SOL    HW2 8724   6.705  10.381  13.644
68943SOL     OW 8725  11.407  10.886   2.543
68943SOL    HW1 8726  11.452  10.834   2.610
68943SOL    HW2 8727  11.333  10.831   2.516
68944SOL     OW 8728   0.875   8.191  10.092
68944SOL    HW1 8729   0.918   8.198  10.006
68944SOL    HW2 8730   0.876   8.281  10.126
68945SOL     OW 8731  12.904   3.173  10.303
68945SOL    HW1 8732  12.889   3.221  10.222
68945SOL    HW2 8733  12.823   3.184  10.353
68946SOL     OW 8734   7.009  11.909   3.436
68946SOL    HW1 8735   7.050  11.860   3.365
68946SOL    HW2 8736   6.923  11.933   3.402
68947SOL     OW 8737   9.794   1.963  12.323
68947SOL    HW1 8738   9.884   1.990  12.344
68947SOL    HW2 8739   9.742   1.994  12.396
68948SOL     OW 8740   8.624   6.105   5.982
68948SOL    HW1 8741   8.548   6.050   6.002
68948SOL    HW2 8742   8.648   6.145   6.065
68949SOL     OW 8743  11.366   1.104   1.711
68949SOL    HW1 8744  11.423   1.083   1.784
68949SOL    HW2 8745  11.293   1.151   1.751
68950SOL     OW 8746  10.256   8.099  14.159
68950SOL    HW1 8747  10.228   8.179  14.203
68950SOL    HW2 8748  10.208   8.100  14.076
68951SOL     OW 8749   1.819   5.324   6.802
68951SOL    HW1 8750   1.868   5.381   6.743
68951SOL    HW2 8751   1.787   5.253   6.746
68952SOL     OW 8752  14.581   7.382   9.557
68952SOL    HW1 8753  14.599   7.421   9.642
68952SOL    HW2 8754  14.641   7.425   9.496
68953SOL     OW 8755   8.895  13.444   1.655
68953SOL    HW1 8756   8.845  13.431   1.736
68953SOL    HW2 8757   8.967  13.381   1.661
68954SOL     OW 8758  13.801   3.916   9.645
68954SOL    HW1 8759  13.727   3.862   9.617
68954SOL    HW2 8760  13.793   3.996   9.594
68955SOL     OW 8761  10.779   4.729   0.544
68955SOL    HW1 8762  10.834   4.667   0.496
68955SOL    HW2 8763  10.709   4.752   0.482
68956SOL     OW 8764  10.301   7.992   7.292
68956SOL    HW1 8765  10.221   7.995   7.240
68956SOL    HW2 8766  10.369   7.962   7.231
68957SOL     OW 8767   5.847   8.464  12.434
68957SOL    HW1 8768   5.912   8.422  12.378
68957SOL    HW2 8769   5.899   8.509  12.501
68958SOL     OW 8770   1.193   5.463   1.348
68958SOL    HW1 8771   1.176   5.409   1.425
68958SOL    HW2 8772   1.192   5.401   1.274
68959SOL     OW 8773   9.175   2.019  13.284
68959SOL    HW1 8774   9.245   1.957  13.264
68959SOL    HW2 8775   9.121   1.975  13.349
68960SOL     OW 8776   5.618   0.005   8.639
68960SOL    HW1 8777   5.660  14.822   8.569
68960SOL    HW2 8778   5.690   0.039   8.691
68961SOL     OW 8779  14.363   2.194  12.181
68961SOL    HW1 8780  14.315   2.111  12.189
68961SOL    HW2 8781  14.401   2.191  12.093
68962SOL     OW 8782  10.410   5.841   9.932
68962SOL    HW1 8783  10.384   5.782  10.003
68962SOL    HW2 8784  10.385   5.928   9.963
68963SOL     OW 8785  11.389   5.121  13.046
68963SOL    HW1 8786  11.376   5.055  12.978
68963SOL    HW2 8787  11.304   5.131  13.088
68964SOL     OW 8788   5.624  11.608   6.918
68964SOL    HW1 8789   5.661  11.653   6.843
68964SOL    HW2 8790   5.529  11.612   6.904
68965SOL     OW 8791   5.448   8.010   2.211
68965SOL    HW1 8792   5.361   8.032   2.178
68965SOL    HW2 8793   5.478   7.938   2.155
68966SOL     OW 8794   4.593   3.362  11.787
68966SOL    HW1 8795   4.627   3.441  11.830
68966SOL    HW2 8796   4.670   3.324  11.743
68967SOL     OW 8797   5.136  13.699   1.842
68967SOL    HW1 8798   5.070  13.653   1.791
68967SOL    HW2 8799   5.150  13.643   1.919
68968SOL     OW 8800   7.925  11.962  10.017
68968SOL    HW1 8801   7.978  11.960  10.097
68968SOL    HW2 8802   7.918  11.870   9.991
68969SOL     OW 8803  11.047   1.636   4.662
68969SOL    HW1 8804  11.116   1.649   4.727
68969SOL    HW2 8805  11.064   1.549   4.626
68970SOL     OW 8806   1.495   7.383   0.510
68970SOL    HW1 8807   1.544   7.324   0.452
68970SOL    HW2 8808   1.407   7.387   0.472
68971SOL     OW 8809  10.150   9.333   9.751
68971SOL    HW1 8810  10.237   9.308   9.780
68971SOL    HW2 8811  10.095   9.257   9.769
68972SOL     OW 8812  10.341   5.087   6.973
68972SOL    HW1 8813  10.403   5.158   6.956
68972SOL    HW2 8814  10.359   5.023   6.904
68973SOL     OW 8815   1.573   7.317  12.932
68973SOL    HW1 8816   1.513   7.338  13.004
68973SOL    HW2 8817   1.516   7.291  12.860
68974SOL     OW 8818   1.809   0.901   9.071
68974SOL    HW1 8819   1.836   0.952   9.147
68974SOL    HW2 8820   1.891   0.876   9.028
68975SOL     OW 8821   2.412  12.354   3.406
68975SOL    HW1 8822   2.370  12.268   3.396
68975SOL    HW2 8823   2.439  12.378   3.317
68976SOL     OW 8824   1.769  14.162   9.367
68976SOL    HW1 8825   1.680  14.146   9.336
68976SOL    HW2 8826   1.787  14.090   9.428
68977SOL     OW 8827   2.159   8.457   9.043
68977SOL    HW1 8828   2.192   8.506   9.118
68977SOL    HW2 8829   2.237   8.423   9.000
68978SOL     OW 8830   8.908   9.041   9.586
68978SOL    HW1 8831   8.996   9.046   9.547
68978SOL    HW2 8832   8.878   9.132   9.588
68979SOL     OW 8833   5.464   3.931   4.795
68979SOL    HW1 8834   5.416   3.986   4.856
68979SOL    HW2 8835   5.554   3.933   4.827
68980SOL     OW 8836  11.852   8.518   9.519
68980SOL    HW1 8837  11.835   8.423   9.526
68980SOL    HW2 8838  11.865   8.533   9.426
68981SOL     OW 8839   2.145   3.816  10.620
68981SOL    HW1 8840   2.076   3.869  10.659
68981SOL    HW2 8841   2.218   3.877  10.608
68982SOL     OW 8842   0.020  13.284   9.938
68982SOL    HW1 8843  14.796  13.296   9.964
68982SOL    HW2 8844   0.070  13.307  10.017
68983SOL     OW 8845   2.642   7.036   0.735
68983SOL    HW1 8846   2.624   7.127   0.759
68983SOL    HW2 8847   2.640   7.036   0.640
68984SOL     OW 8848   9.578  13.262  13.567
68984SOL    HW1 8849   9.589  13.295  13.656
68984SOL    HW2 8850   9.559  13.340  13.515
68985SOL     OW 8851   3.584  11.031   8.448
68985SOL    HW1 8852   3.504  10.981   8.462
68985SOL    HW2 8853   3.646  10.995   8.511
68986SOL     OW 8854  13.082  14.052  12.032
68986SOL    HW1 8855  13.063  14.120  12.098
68986SOL    HW2 8856  13.005  13.995  12.033
68987SOL     OW 8857   7.099  12.783   5.149
68987SOL    HW1 8858   7.022  12.815   5.195
68987SOL    HW2 8859   7.140  12.721   5.210
68988SOL     OW 8860  10.618   4.400  13.317
68988SOL    HW1 8861  10.605   4.305  13.318
68988SOL    HW2 8862  10.679   4.417  13.388
68989SOL     OW 8863   6.447   8.833  13.977
68989SOL    HW1 8864   6.498   8.754  13.996
68989SOL    HW2 8865   6.463   8.891  14.051
68990SOL     OW 8866   2.621  10.787  11.808
68990SOL    HW1 8867   2.635  10.840  11.887
68990SOL    HW2 8868   2.532  10.753  11.817
68991SOL     OW 8869   9.250   2.703  10.323
68991SOL    HW1 8870   9.165   2.718  10.365
68991SOL    HW2 8871   9.239   2.623  10.273
68992SOL     OW 8872  12.114   9.678   4.318
68992SOL    HW1 8873  12.049   9.629   4.369
68992SOL    HW2 8874  12.130   9.623   4.242
68993SOL     OW 8875   7.411  12.082   5.504
68993SOL    HW1 8876   7.498  12.045   5.515
68993SOL    HW2 8877   7.424  12.163   5.455
68994SOL     OW 8878   9.759  13.168   8.216
68994SOL    HW1 8879   9.776  13.243   8.158
68994SOL    HW2 8880   9.722  13.101   8.159
68995SOL     OW 8881  12.349   2.936   9.729
68995SOL    HW1 8882  12.355   2.970   9.640
68995SOL    HW2 8883  12.348   2.841   9.719
68996SOL     OW 8884   3.136   1.274   1.296
68996SOL    HW1 8885   3.122   1.186   1.261
68996SOL    HW2 8886   3.225   1.297   1.270
68997SOL     OW 8887  10.706   9.823   7.274
68997SOL    HW1 8888  10.628   9.787   7.315
68997SOL    HW2 8889  10.722   9.905   7.320
68998SOL     OW 8890  10.025   6.168   6.616
68998SOL    HW1 8891  10.057   6.187   6.528
68998SOL    HW2 8892  10.025   6.072   6.621
68999SOL     OW 8893   7.584   7.196   5.695
68999SOL    HW1 8894   7.533   7.120   5.722
68999SOL    HW2 8895   7.519   7.264   5.678
69000SOL     OW 8896   2.002   2.377   1.941
69000SOL    HW1 8897   2.000   2.313   2.013
69000SOL    HW2 8898   2.024   2.460   1.984
69001SOL     OW 8899  11.216   4.276   8.045
69001SOL    HW1 8900  11.234   4.183   8.060
69001SOL    HW2 8901  11.135   4.293   8.094
69002SOL     OW 8902  10.527  12.964   5.694
69002SOL    HW1 8903  10.476  12.883   5.695
69002SOL    HW2 8904  10.604  12.943   5.640
69003SOL     OW 8905   6.125   5.953   2.892
69003SOL    HW1 8906   6.089   5.867   2.915
69003SOL    HW2 8907   6.164   5.940   2.806
69004SOL     OW 8908   3.865  13.922   0.979
69004SOL    HW1 8909   3.928  13.993   0.977
69004SOL    HW2 8910   3.918  13.842   0.975
69005SOL     OW 8911   8.610  13.838   1.419
69005SOL    HW1 8912   8.685  13.843   1.478
69005SOL    HW2 8913   8.636  13.891   1.343
69006SOL     OW 8914   9.811   4.280  14.172
69006SOL    HW1 8915   9.809   4.376  14.177
69006SOL    HW2 8916   9.884   4.261  14.113
69007SOL     OW 8917   9.118   5.260   6.878
69007SOL    HW1 8918   9.143   5.264   6.971
69007SOL    HW2 8919   9.026   5.285   6.877
69008SOL     OW 8920  14.409   3.995  13.780
69008SOL    HW1 8921  14.358   3.970  13.703
69008SOL    HW2 8922  14.356   3.964  13.854
69009SOL     OW 8923  12.686  11.004   0.092
69009SOL    HW1 8924  12.671  10.983  14.868
69009SOL    HW2 8925  12.705  11.098   0.092
69010SOL     OW 8926   8.111   8.323   3.719
69010SOL    HW1 8927   8.174   8.352   3.653
69010SOL    HW2 8928   8.028   8.362   3.692
69011SOL     OW 8929   4.127   8.898   9.672
69011SOL    HW1 8930   4.161   8.947   9.747
69011SOL    HW2 8931   4.151   8.952   9.596
69012SOL     OW 8932   8.228  11.513  10.809
69012SOL    HW1 8933   8.226  11.418  10.801
69012SOL    HW2 8934   8.186  11.531  10.893
69013SOL     OW 8935   6.365  13.006  10.779
69013SOL    HW1 8936   6.358  12.997  10.874
69013SOL    HW2 8937   6.304  13.076  10.757
69014SOL     OW 8938  10.077   2.753   0.575
69014SOL    HW1 8939  10.047   2.839   0.548
69014SOL    HW2 8940   9.999   2.712   0.614
69015SOL     OW 8941   0.363   9.143   5.996
69015SOL    HW1 8942   0.284   9.089   5.985
69015SOL    HW2 8943   0.372   9.189   5.912
69016SOL     OW 8944   6.209  13.427  10.196
69016SOL    HW1 8945   6.136  13.403  10.253
69016SOL    HW2 8946   6.246  13.506  10.235
69017SOL     OW 8947   1.778   1.861  14.813
69017SOL    HW1 8948   1.809   1.801  14.744
69017SOL    HW2 8949   1.772   1.946  14.770
69018SOL     OW 8950   3.196   7.612   3.897
69018SOL    HW1 8951   3.183   7.637   3.805
69018SOL    HW2 8952   3.160   7.685   3.947
69019SOL     OW 8953  13.967   6.476   0.300
69019SOL    HW1 8954  14.018   6.554   0.322
69019SOL    HW2 8955  13.894   6.509   0.247
69020SOL     OW 8956  12.377   6.481  11.175
69020SOL    HW1 8957  12.472   6.469  11.182
69020SOL    HW2 8958  12.355   6.538  11.248
69021SOL     OW 8959   8.885  12.096  14.360
69021SOL    HW1 8960   8.825  12.051  14.418
69021SOL    HW2 8961   8.928  12.027  14.310
69022SOL     OW 8962   6.546  10.588   7.177
69022SOL    HW1 8963   6.638  10.614   7.185
69022SOL    HW2 8964   6.508  10.653   7.118
69023SOL     OW 8965  13.093   7.688  11.884
69023SOL    HW1 8966  13.126   7.615  11.832
69023SOL    HW2 8967  13.167   7.715  11.938
69024SOL     OW 8968   0.989   7.826  13.280
69024SOL    HW1 8969   1.012   7.797  13.368
69024SOL    HW2 8970   1.071   7.823  13.232
69025SOL     OW 8971   8.943   7.638   4.280
69025SOL    HW1 8972   8.938   7.734   4.280
69025SOL    HW2 8973   8.996   7.617   4.203
69026SOL     OW 8974   1.352   7.236  11.061
69026SOL    HW1 8975   1.395   7.309  11.105
69026SOL    HW2 8976   1.354   7.259  10.968
69027SOL     OW 8977   9.258   2.122   9.994
69027SOL    HW1 8978   9.345   2.159  10.002
69027SOL    HW2 8979   9.248   2.102   9.901
69028SOL     OW 8980   4.826   1.447   6.982
69028SOL    HW1 8981   4.879   1.423   7.058
69028SOL    HW2 8982   4.824   1.542   6.983
69029SOL     OW 8983  14.532   2.518  13.200
69029SOL    HW1 8984  14.485   2.598  13.225
69029SOL    HW2 8985  14.598   2.507  13.268
69030SOL     OW 8986  10.831  11.651  11.714
69030SOL    HW1 8987  10.923  11.657  11.739
69030SOL    HW2 8988  10.819  11.722  11.651
69031SOL     OW 8989  10.689   8.700   9.289
69031SOL    HW1 8990  10.675   8.795   9.299
69031SOL    HW2 8991  10.769   8.694   9.237
69032SOL     OW 8992  14.226   0.972   4.023
69032SOL    HW1 8993  14.254   1.050   4.071
69032SOL    HW2 8994  14.256   0.899   4.078
69033SOL     OW 8995  12.578   5.284   1.435
69033SOL    HW1 8996  12.567   5.314   1.525
69033SOL    HW2 8997  12.588   5.364   1.384
69034SOL     OW 8998   6.505   7.380  13.878
69034SOL    HW1 8999   6.587   7.331  13.889
69034SOL    HW2 9000   6.445   7.316  13.840
69035SOL     OW 9001  13.324  13.911  12.122
69035SOL    HW1 9002  13.354  13.898  12.212
69035SOL    HW2 9003  13.294  14.002  12.120
69036SOL     OW 9004  11.659   8.510  14.802
69036SOL    HW1 9005  11.597   8.581  14.818
69036SOL    HW2 9006  11.732   8.527  14.861
69037SOL     OW 9007   0.728   9.618  12.496
69037SOL    HW1 9008   0.814   9.619  12.538
69037SOL    HW2 9009   0.685   9.698  12.526
69038SOL     OW 9010   2.175  11.376  13.845
69038SOL    HW1 9011   2.269  11.359  13.832
69038SOL    HW2 9012   2.152  11.439  13.777
69039SOL     OW 9013  11.050  14.152   6.749
69039SOL    HW1 9014  11.003  14.074   6.718
69039SOL    HW2 9015  11.011  14.172   6.834
69040SOL     OW 9016   4.750  14.736  10.585
69040SOL    HW1 9017   4.699  14.797  10.531
69040SOL    HW2 9018   4.686  14.696  10.644
69041SOL     OW 9019   4.492  12.779  14.399
69041SOL    HW1 9020   4.457  12.859  14.359
69041SOL    HW2 9021   4.469  12.786  14.491
69042SOL     OW 9022   8.931   4.002  14.622
69042SOL    HW1 9023   8.947   4.093  14.597
69042SOL    HW2 9024   8.903   4.007  14.714
69043SOL     OW 9025   6.494   1.440   3.103
69043SOL    HW1 9026   6.419   1.424   3.045
69043SOL    HW2 9027   6.481   1.381   3.177
69044SOL     OW 9028   9.800   1.436  13.945
69044SOL    HW1 9029   9.864   1.384  13.896
69044SOL    HW2 9030   9.795   1.519  13.898
69045SOL     OW 9031  13.879   3.334   7.930
69045SOL    HW1 9032  13.837   3.281   7.862
69045SOL    HW2 9033  13.833   3.418   7.926
69046SOL     OW 9034   9.882  13.357   4.100
69046SOL    HW1 9035   9.882  13.422   4.171
69046SOL    HW2 9036   9.930  13.283   4.136
69047SOL     OW 9037  12.538   2.610  10.514
69047SOL    HW1 9038  12.586   2.533  10.484
69047SOL    HW2 9039  12.599   2.656  10.571
69048SOL     OW 9040   3.075   6.031   8.125
69048SOL    HW1 9041   3.169   6.049   8.134
69048SOL    HW2 9042   3.043   6.025   8.215
69049SOL     OW 9043  10.398   5.849   9.303
69049SOL    HW1 9044  10.329   5.795   9.265
69049SOL    HW2 9045  10.380   5.851   9.397
69050SOL     OW 9046   2.239   0.048   1.604
69050SOL    HW1 9047   2.150   0.071   1.630
69050SOL    HW2 9048   2.276   0.129   1.568
69051SOL     OW 9049  10.654  10.014  12.016
69051SOL    HW1 9050  10.587   9.979  11.957
69051SOL    HW2 9051  10.606  10.035  12.096
69052SOL     OW 9052  13.092  14.327   7.850
69052SOL    HW1 9053  13.045  14.399   7.808
69052SOL    HW2 9054  13.177  14.364   7.874
69053SOL     OW 9055   1.099   2.664  13.859
69053SOL    HW1 9056   1.087   2.637  13.768
69053SOL    HW2 9057   1.182   2.711  13.858
69054SOL     OW 9058   7.294  10.526   7.846
69054SOL    HW1 9059   7.285  10.453   7.908
69054SOL    HW2 9060   7.313  10.601   7.902
69055SOL     OW 9061  14.488   8.716  11.464
69055SOL    HW1 9062  14.448   8.757  11.540
69055SOL    HW2 9063  14.521   8.790  11.412
69056SOL     OW 9064   2.512   9.148   1.856
69056SOL    HW1 9065   2.511   9.244   1.861
69056SOL    HW2 9066   2.431   9.122   1.899
69057SOL     OW 9067   7.708   0.399   3.530
69057SOL    HW1 9068   7.652   0.339   3.481
69057SOL    HW2 9069   7.784   0.345   3.555
69058SOL     OW 9070   4.401   0.994  12.456
69058SOL    HW1 9071   4.373   0.904  12.440
69058SOL    HW2 9072   4.411   1.032  12.368
69059SOL     OW 9073   2.791  14.485  12.466
69059SOL    HW1 9074   2.768  14.393  12.475
69059SOL    HW2 9075   2.744  14.529  12.537
69060SOL     OW 9076   3.374   9.676   9.098
69060SOL    HW1 9077   3.433   9.608   9.129
69060SOL    HW2 9078   3.315   9.692   9.171
69061SOL     OW 9079   6.359   7.577   2.884
69061SOL    HW1 9080   6.437   7.523   2.877
69061SOL    HW2 9081   6.335   7.597   2.794
69062SOL     OW 9082  12.635  12.137   4.838
69062SOL    HW1 9083  12.586  12.213   4.805
69062SOL    HW2 9084  12.609  12.065   4.781
69063SOL     OW 9085   7.050  14.653  12.963
69063SOL    HW1 9086   6.956  14.666  12.967
69063SOL    HW2 9087   7.064  14.562  12.988
69064SOL     OW 9088   0.407   5.398  11.825
69064SOL    HW1 9089   0.413   5.440  11.911
69064SOL    HW2 9090   0.476   5.438  11.773
69065SOL     OW 9091   5.660   1.634   1.511
69065SOL    HW1 9092   5.685   1.598   1.596
69065SOL    HW2 9093   5.609   1.564   1.469
69066SOL     OW 9094   9.118   8.495   8.167
69066SOL    HW1 9095   9.164   8.553   8.227
69066SOL    HW2 9096   9.026   8.519   8.175
69067SOL     OW 9097  11.729  11.393   6.001
69067SOL    HW1 9098  11.798  11.329   5.986
69067SOL    HW2 9099  11.753  11.435   6.084
69068SOL     OW 9100   2.378   6.744   1.496
69068SOL    HW1 9101   2.353   6.805   1.427
69068SOL    HW2 9102   2.469   6.768   1.517
69069SOL     OW 9103   4.882   8.416  11.674
69069SOL    HW1 9104   4.792   8.443  11.696
69069SOL    HW2 9105   4.937   8.465  11.734
69070SOL     OW 9106   4.011   6.004   0.698
69070SOL    HW1 9107   3.916   5.993   0.691
69070SOL    HW2 9108   4.043   5.980   0.611
69071SOL     OW 9109  10.646  11.332  10.944
69071SOL    HW1 9110  10.588  11.262  10.975
69071SOL    HW2 9111  10.677  11.374  11.024
69072SOL     OW 9112   5.972   1.830   8.371
69072SOL    HW1 9113   6.065   1.836   8.348
69072SOL    HW2 9114   5.949   1.919   8.397
69073SOL     OW 9115  10.936   1.507   6.075
69073SOL    HW1 9116  11.004   1.574   6.085
69073SOL    HW2 9117  10.941   1.482   5.982
69074SOL     OW 9118   1.085  14.389   2.196
69074SOL    HW1 9119   1.050  14.307   2.160
69074SOL    HW2 9120   1.030  14.457   2.157
69075SOL     OW 9121   8.258  10.153  14.152
69075SOL    HW1 9122   8.211  10.070  14.157
69075SOL    HW2 9123   8.300  10.151  14.066
69076SOL     OW 9124   4.558   4.276   2.476
69076SOL    HW1 9125   4.619   4.257   2.405
69076SOL    HW2 9126   4.614   4.299   2.550
69077SOL     OW 9127   2.435   6.810  14.671
69077SOL    HW1 9128   2.384   6.838  14.747
69077SOL    HW2 9129   2.394   6.729  14.642
69078SOL     OW 9130  12.063  13.526   0.456
69078SOL    HW1 9131  12.076  13.522   0.551
69078SOL    HW2 9132  11.970  13.548   0.446
69079SOL     OW 9133  11.761   4.536   8.947
69079SOL    HW1 9134  11.746   4.631   8.949
69079SOL    HW2 9135  11.740   4.511   8.857
69080SOL     OW 9136   6.902  13.318   2.508
69080SOL    HW1 9137   6.834  13.307   2.574
69080SOL    HW2 9138   6.972  13.258   2.535
69081SOL     OW 9139   7.948   7.820   9.858
69081SOL    HW1 9140   8.031   7.775   9.870
69081SOL    HW2 9141   7.906   7.773   9.785
69082SOL     OW 9142   5.423   3.356  12.306
69082SOL    HW1 9143   5.418   3.426  12.242
69082SOL    HW2 9144   5.449   3.279  12.256
69083SOL     OW 9145   9.324   9.502   7.926
69083SOL    HW1 9146   9.371   9.517   7.844
69083SOL    HW2 9147   9.392   9.477   7.988
69084SOL     OW 9148   3.956   5.486  12.153
69084SOL    HW1 9149   3.912   5.533  12.224
69084SOL    HW2 9150   3.894   5.490  12.080
69085SOL     OW 9151   2.118  10.214   1.829
69085SOL    HW1 9152   2.103  10.122   1.810
69085SOL    HW2 9153   2.109  10.258   1.745
69086SOL     OW 9154  14.814   2.532   9.035
69086SOL    HW1 9155   0.021   2.559   8.982
69086SOL    HW2 9156  14.776   2.458   8.988
69087SOL     OW 9157   4.212  14.115   0.871
69087SOL    HW1 9158   4.189  14.208   0.871
69087SOL    HW2 9159   4.295  14.112   0.919
69088SOL     OW 9160  12.803   9.738  11.463
69088SOL    HW1 9161  12.722   9.739  11.413
69088SOL    HW2 9162  12.777   9.711  11.551
69089SOL     OW 9163  11.326   0.749  13.215
69089SOL    HW1 9164  11.334   0.683  13.283
69089SOL    HW2 9165  11.373   0.712  13.140
69090SOL     OW 9166   9.847   6.609   5.226
69090SOL    HW1 9167   9.910   6.553   5.181
69090SOL    HW2 9168   9.795   6.649   5.156
69091SOL     OW 9169  14.121  12.658   6.253
69091SOL    HW1 9170  14.053  12.716   6.287
69091SOL    HW2 9171  14.088  12.631   6.167
69092SOL     OW 9172   3.586  11.177   5.920
69092SOL    HW1 9173   3.564  11.140   5.834
69092SOL    HW2 9174   3.543  11.118   5.982
69093SOL     OW 9175  13.323   0.137   8.548
69093SOL    HW1 9176  13.302   0.050   8.513
69093SOL    HW2 9177  13.385   0.174   8.485
69094SOL     OW 9178   0.552  13.060  12.665
69094SOL    HW1 9179   0.466  13.025  12.690
69094SOL    HW2 9180   0.596  13.077  12.748
69095SOL     OW 9181   1.494  10.628  10.321
69095SOL    HW1 9182   1.587  10.640  10.337
69095SOL    HW2 9183   1.461  10.585  10.400
69096SOL     OW 9184  11.726  13.486   7.057
69096SOL    HW1 9185  11.735  13.471   7.151
69096SOL    HW2 9186  11.812  13.468   7.020
69097SOL     OW 9187  10.895  13.136  14.031
69097SOL    HW1 9188  10.961  13.111  13.967
69097SOL    HW2 9189  10.943  13.146  14.113
69098SOL     OW 9190   5.000  12.788   9.004
69098SOL    HW1 9191   4.962  12.862   9.052
69098SOL    HW2 9192   4.971  12.711   9.053
69099SOL     OW 9193  12.099   8.823   5.096
69099SOL    HW1 9194  12.169   8.773   5.138
69099SOL    HW2 9195  12.140   8.907   5.074
69100SOL     OW 9196   7.735   2.180   4.879
69100SOL    HW1 9197   7.743   2.092   4.915
69100SOL    HW2 9198   7.705   2.234   4.952
69101SOL     OW 9199   3.800   9.280   3.941
69101SOL    HW1 9200   3.867   9.334   3.899
69101SOL    HW2 9201   3.729   9.341   3.960
69102SOL     OW 9202   2.324   0.362  13.354
69102SOL    HW1 9203   2.289   0.317  13.278
69102SOL    HW2 9204   2.398   0.413  13.321
69103SOL     OW 9205   9.718   7.813   4.973
69103SOL    HW1 9206   9.662   7.795   5.049
69103SOL    HW2 9207   9.729   7.728   4.931
69104SOL     OW 9208   2.777  13.496  14.132
69104SOL    HW1 9209   2.736  13.483  14.047
69104SOL    HW2 9210   2.811  13.410  14.156
69105SOL     OW 9211   1.941  14.515  11.105
69105SOL    HW1 9212   2.022  14.475  11.074
69105SOL    HW2 9213   1.899  14.446  11.156
69106SOL     OW 9214  10.053   0.534   1.470
69106SOL    HW1 9215  10.113   0.607   1.481
69106SOL    HW2 9216  10.071   0.500   1.382
69107SOL     OW 9217   5.109   9.736  11.692
69107SOL    HW1 9218   5.117   9.799  11.621
69107SOL    HW2 9219   5.192   9.688  11.691
69108SOL     OW 9220   8.745   9.161   5.342
69108SOL    HW1 9221   8.784   9.248   5.339
69108SOL    HW2 9222   8.807   9.109   5.392
69109SOL     OW 9223   5.175   2.405  10.169
69109SOL    HW1 9224   5.170   2.387  10.075
69109SOL    HW2 9225   5.202   2.497  10.173
69110SOL     OW 9226  12.235  13.294  10.841
69110SOL    HW1 9227  12.175  13.220  10.852
69110SOL    HW2 9228  12.182  13.371  10.859
69111SOL     OW 9229   6.696   3.033   1.135
69111SOL    HW1 9230   6.654   2.949   1.117
69111SOL    HW2 9231   6.624   3.095   1.143
69112SOL     OW 9232  10.236   6.808   1.453
69112SOL    HW1 9233  10.212   6.721   1.485
69112SOL    HW2 9234  10.215   6.806   1.359
69113SOL     OW 9235  13.869   7.871  14.228
69113SOL    HW1 9236  13.797   7.905  14.282
69113SOL    HW2 9237  13.932   7.836  14.290
69114SOL     OW 9238  12.523   1.579   6.062
69114SOL    HW1 9239  12.609   1.540   6.045
69114SOL    HW2 9240  12.543   1.667   6.095
69115SOL     OW 9241  14.670   2.680   3.877
69115SOL    HW1 9242  14.612   2.666   3.802
69115SOL    HW2 9243  14.755   2.646   3.849
69116SOL     OW 9244  11.355   5.286   2.161
69116SOL    HW1 9245  11.407   5.347   2.108
69116SOL    HW2 9246  11.417   5.218   2.187
69117SOL     OW 9247  11.324   1.835  12.009
69117SOL    HW1 9248  11.233   1.804  11.999
69117SOL    HW2 9249  11.359   1.782  12.080
69118SOL     OW 9250  11.315   8.629  14.071
69118SOL    HW1 9251  11.329   8.680  14.151
69118SOL    HW2 9252  11.264   8.686  14.014
69119SOL     OW 9253  13.204   0.062   5.094
69119SOL    HW1 9254  13.210   0.121   5.019
69119SOL    HW2 9255  13.116   0.075   5.127
69120SOL     OW 9256   3.909  11.926   9.703
69120SOL    HW1 9257   3.948  11.901   9.620
69120SOL    HW2 9258   3.846  11.995   9.681
69121SOL     OW 9259  13.684   2.226   8.355
69121SOL    HW1 9260  13.634   2.267   8.426
69121SOL    HW2 9261  13.658   2.134   8.356
69122SOL     OW 9262   4.015  11.505   1.498
69122SOL    HW1 9263   3.963  11.483   1.421
69122SOL    HW2 9264   4.080  11.435   1.503
69123SOL     OW 9265  10.754  11.230   7.616
69123SOL    HW1 9266  10.849  11.237   7.627
69123SOL    HW2 9267  10.719  11.228   7.705
69124SOL     OW 9268  13.528   0.459  10.810
69124SOL    HW1 9269  13.487   0.429  10.891
69124SOL    HW2 9270  13.501   0.550  10.801
69125SOL     OW 9271   1.092   4.502  14.598
69125SOL    HW1 9272   1.113   4.585  14.642
69125SOL    HW2 9273   1.175   4.453  14.599
69126SOL     OW 9274  14.118   6.756   4.676
69126SOL    HW1 9275  14.144   6.848   4.671
69126SOL    HW2 9276  14.066   6.742   4.597
69127SOL     OW 9277   7.521   2.420   0.184
69127SOL    HW1 9278   7.598   2.440   0.237
69127SOL    HW2 9279   7.556   2.392   0.100
69128SOL     OW 9280   8.474   1.641   6.669
69128SOL    HW1 9281   8.434   1.556   6.684
69128SOL    HW2 9282   8.550   1.642   6.727
69129SOL     OW 9283   1.093   4.178   9.024
69129SOL    HW1 9284   1.117   4.173   9.116
69129SOL    HW2 9285   1.090   4.087   8.995
69130SOL     OW 9286   8.126   2.869  13.781
69130SOL    HW1 9287   8.122   2.808  13.854
69130SOL    HW2 9288   8.067   2.940  13.805
69131SOL     OW 9289  10.871   8.260  11.224
69131SOL    HW1 9290  10.796   8.302  11.267
69131SOL    HW2 9291  10.838   8.236  11.138
69132SOL     OW 9292  11.508  11.180  10.985
69132SOL    HW1 9293  11.474  11.255  11.033
69132SOL    HW2 9294  11.507  11.108  11.049
69133SOL     OW 9295   4.519   9.087   3.205
69133SOL    HW1 9296   4.429   9.059   3.219
69133SOL    HW2 9297   4.512   9.159   3.143
69134SOL     OW 9298  11.258   1.271   5.131
69134SOL    HW1 9299  11.217   1.292   5.215
69134SOL    HW2 9300  11.188   1.230   5.081
69135SOL     OW 9301   8.167  13.828  10.309
69135SOL    HW1 9302   8.211  13.743  10.310
69135SOL    HW2 9303   8.235  13.892  10.329
69136SOL     OW 9304  14.559   9.263   0.990
69136SOL    HW1 9305  14.588   9.312   1.067
69136SOL    HW2 9306  14.515   9.328   0.935
69137SOL     OW 9307  11.279  12.486   7.448
69137SOL    HW1 9308  11.293  12.460   7.357
69137SOL    HW2 9309  11.212  12.554   7.443
69138SOL     OW 9310  11.962   3.693   3.622
69138SOL    HW1 9311  11.960   3.784   3.594
69138SOL    HW2 9312  12.028   3.652   3.566
69139SOL     OW 9313   3.675  11.815   9.410
69139SOL    HW1 9314   3.582  11.822   9.433
69139SOL    HW2 9315   3.707  11.741   9.463
69140SOL     OW 9316  12.925  11.968   5.464
69140SOL    HW1 9317  12.852  11.936   5.412
69140SOL    HW2 9318  12.982  11.891   5.475
69141SOL     OW 9319   7.764   5.963   0.029
69141SOL    HW1 9320   7.849   6.004   0.043
69141SOL    HW2 9321   7.749   5.971  14.803
69142SOL     OW 9322  11.293  11.449   8.779
69142SOL    HW1 9323  11.345  11.455   8.699
69142SOL    HW2 9324  11.357  11.439   8.849
69143SOL     OW 9325   0.693   6.154   9.828
69143SOL    HW1 9326   0.665   6.244   9.845
69143SOL    HW2 9327   0.688   6.144   9.733
69144SOL     OW 9328   3.554   5.751   4.847
69144SOL    HW1 9329   3.545   5.836   4.892
69144SOL    HW2 9330   3.481   5.750   4.785
69145SOL     OW 9331   6.539   1.011   7.861
69145SOL    HW1 9332   6.632   0.995   7.844
69145SOL    HW2 9333   6.530   1.106   7.856
69146SOL     OW 9334  13.424  12.467   0.956
69146SOL    HW1 9335  13.453  12.472   0.865
69146SOL    HW2 9336  13.495  12.505   1.007
69147SOL     OW 9337  13.739  13.904   5.886
69147SOL    HW1 9338  13.792  13.902   5.807
69147SOL    HW2 9339  13.680  13.829   5.878
69148SOL     OW 9340   8.230   9.457   5.556
69148SOL    HW1 9341   8.135   9.467   5.550
69148SOL    HW2 9342   8.247   9.450   5.649
69149SOL     OW 9343   8.369   9.446   1.333
69149SOL    HW1 9344   8.387   9.536   1.305
69149SOL    HW2 9345   8.326   9.406   1.258
69150SOL     OW 9346  12.697  13.997   0.730
69150SOL    HW1 9347  12.650  13.928   0.683
69150SOL    HW2 9348  12.740  14.047   0.662
69151SOL     OW 9349   0.997  11.989  10.279
69151SOL    HW1 9350   0.905  12.011  10.294
69151SOL    HW2 9351   0.999  11.957  10.189
69152SOL     OW 9352   2.159  12.654  12.878
69152SOL    HW1 9353   2.157  12.677  12.785
69152SOL    HW2 9354   2.163  12.738  12.923
69153SOL     OW 9355   5.526   6.599  13.959
69153SOL    HW1 9356   5.555   6.509  13.945
69153SOL    HW2 9357   5.430   6.592  13.967
69154SOL     OW 9358  10.295   3.690   1.307
69154SOL    HW1 9359  10.279   3.596   1.305
69154SOL    HW2 9360  10.209   3.729   1.291
69155SOL     OW 9361   2.936   5.185   5.060
69155SOL    HW1 9362   2.918   5.176   4.966
69155SOL    HW2 9363   3.027   5.213   5.065
69156SOL     OW 9364   2.021   5.441   9.533
69156SOL    HW1 9365   1.986   5.433   9.444
69156SOL    HW2 9366   2.038   5.535   9.543
69157SOL     OW 9367   4.372   8.064  13.254
69157SOL    HW1 9368   4.459   8.032  13.230
69157SOL    HW2 9369   4.343   8.115  13.178
69158SOL     OW 9370  13.642  13.657   4.919
69158SOL    HW1 9371  13.733  13.683   4.902
69158SOL    HW2 9372  13.625  13.587   4.857
69159SOL     OW 9373  14.620   5.777   9.078
69159SOL    HW1 9374  14.572   5.721   9.139
69159SOL    HW2 9375  14.692   5.814   9.129
69160SOL     OW 9376  14.698   7.087  14.473
69160SOL    HW1 9377  14.603   7.092  14.461
69160SOL    HW2 9378  14.717   7.154  14.539
69161SOL     OW 9379   0.941  13.614   2.135
69161SOL    HW1 9380   0.990  13.696   2.127
69161SOL    HW2 9381   0.892  13.623   2.217
69162SOL     OW 9382   7.246  11.399  12.359
69162SOL    HW1 9383   7.216  11.385  12.269
69162SOL    HW2 9384   7.211  11.325  12.408
69163SOL     OW 9385   8.639   1.196   6.353
69163SOL    HW1 9386   8.592   1.179   6.435
69163SOL    HW2 9387   8.597   1.273   6.316
69164SOL     OW 9388   9.572   6.861   0.770
69164SOL    HW1 9389   9.515   6.796   0.729
69164SOL    HW2 9390   9.656   6.850   0.726
69165SOL     OW 9391   1.833   7.328   3.216
69165SOL    HW1 9392   1.888   7.400   3.247
69165SOL    HW2 9393   1.873   7.301   3.133
69166SOL     OW 9394  13.484  12.952  11.016
69166SOL    HW1 9395  13.495  13.030  11.071
69166SOL    HW2 9396  13.411  12.972  10.958
69167SOL     OW 9397  14.749   3.902  12.960
69167SOL    HW1 9398  14.785   3.906  12.871
69167SOL    HW2 9399  14.796   3.971  13.007
69168SOL     OW 9400   0.373  10.705   8.200
69168SOL    HW1 9401   0.343  10.648   8.271
69168SOL    HW2 9402   0.300  10.704   8.137
69169SOL     OW 9403  13.009   1.663   7.414
69169SOL    HW1 9404  13.028   1.755   7.396
69169SOL    HW2 9405  12.914   1.656   7.406
69170SOL     OW 9406  14.788  13.243   4.101
69170SOL    HW1 9407  14.775  13.161   4.149
69170SOL    HW2 9408   0.007  13.235   4.063
69171SOL     OW 9409   2.053  11.952   8.585
69171SOL    HW1 9410   2.111  12.012   8.632
69171SOL    HW2 9411   2.112  11.886   8.548
69172SOL     OW 9412   6.679   5.882   7.884
69172SOL    HW1 9413   6.598   5.921   7.852
69172SOL    HW2 9414   6.731   5.866   7.806
69173SOL     OW 9415  11.694   8.057   7.784
69173SOL    HW1 9416  11.699   8.149   7.756
69173SOL    HW2 9417  11.770   8.046   7.841
69174SOL     OW 9418   8.208  12.798  14.621
69174SOL    HW1 9419   8.186  12.741  14.546
69174SOL    HW2 9420   8.148  12.872  14.612
69175SOL     OW 9421   6.989   4.597   9.671
69175SOL    HW1 9422   6.954   4.556   9.592
69175SOL    HW2 9423   7.081   4.616   9.650
69176SOL     OW 9424   6.519   1.996   6.662
69176SOL    HW1 9425   6.489   2.060   6.726
69176SOL    HW2 9426   6.610   1.979   6.687
69177SOL     OW 9427   0.904   9.244   9.332
69177SOL    HW1 9428   0.870   9.329   9.361
69177SOL    HW2 9429   0.943   9.207   9.411
69178SOL     OW 9430   1.869   1.433   6.175
69178SOL    HW1 9431   1.963   1.436   6.195
69178SOL    HW2 9432   1.864   1.459   6.083
69179SOL     OW 9433   7.310   0.856  13.761
69179SOL    HW1 9434   7.328   0.943  13.726
69179SOL    HW2 9435   7.339   0.860  13.852
69180SOL     OW 9436   1.017  13.699   1.668
69180SOL    HW1 9437   1.029  13.792   1.688
69180SOL    HW2 9438   0.935  13.676   1.711
69181SOL     OW 9439   5.327  14.157  13.355
69181SOL    HW1 9440   5.250  14.192  13.399
69181SOL    HW2 9441   5.339  14.213  13.278
69182SOL     OW 9442   6.461   6.900  13.123
69182SOL    HW1 9443   6.420   6.813  13.134
69182SOL    HW2 9444   6.496   6.921  13.209
69183SOL     OW 9445  10.532  14.496  14.127
69183SOL    HW1 9446  10.619  14.455  14.129
69183SOL    HW2 9447  10.516  14.513  14.034
69184SOL     OW 9448   7.469   9.526  11.070
69184SOL    HW1 9449   7.392   9.469  11.074
69184SOL    HW2 9450   7.539   9.468  11.039
69185SOL     OW 9451   0.525   0.167  10.332
69185SOL    HW1 9452   0.572   0.249  10.342
69185SOL    HW2 9453   0.434   0.193  10.315
69186SOL     OW 9454   9.676  13.846  13.463
69186SOL    HW1 9455   9.759  13.891  13.448
69186SOL    HW2 9456   9.691  13.756  13.433
69187SOL     OW 9457   0.044   8.544   8.042
69187SOL    HW1 9458   0.112   8.534   7.976
69187SOL    HW2 9459  14.833   8.509   8.001
69188SOL     OW 9460   1.779   0.135   8.718
69188SOL    HW1 9461   1.765   0.137   8.813
69188SOL    HW2 9462   1.823   0.218   8.699
69189SOL     OW 9463   8.331   6.565   0.547
69189SOL    HW1 9464   8.323   6.491   0.606
69189SOL    HW2 9465   8.242   6.580   0.515
69190SOL     OW 9466   5.561   4.138   6.270
69190SOL    HW1 9467   5.471   4.111   6.285
69190SOL    HW2 9468   5.554   4.227   6.235
69191SOL     OW 9469  13.631   4.869  13.331
69191SOL    HW1 9470  13.571   4.912  13.270
69191SOL    HW2 9471  13.612   4.909  13.416
69192SOL     OW 9472   5.853   6.407  10.338
69192SOL    HW1 9473   5.864   6.338  10.404
69192SOL    HW2 9474   5.871   6.362  10.255
69193SOL     OW 9475  14.381   1.251  11.919
69193SOL    HW1 9476  14.378   1.168  11.871
69193SOL    HW2 9477  14.299   1.295  11.896
69194SOL     OW 9478   4.194   6.227   0.707
69194SOL    HW1 9479   4.173   6.251   0.798
69194SOL    HW2 9480   4.155   6.141   0.694
69195SOL     OW 9481  14.235  11.177   0.724
69195SOL    HW1 9482  14.173  11.207   0.657
69195SOL    HW2 9483  14.314  11.154   0.675
69196SOL     OW 9484  14.606   0.426  14.324
69196SOL    HW1 9485  14.568   0.507  14.356
69196SOL    HW2 9486  14.553   0.356  14.363
69197SOL     OW 9487   5.729   6.878  11.352
69197SOL    HW1 9488   5.708   6.865  11.259
69197SOL    HW2 9489   5.750   6.972  11.358
69198SOL     OW 9490   2.623   5.113  11.977
69198SOL    HW1 9491   2.592   5.156  11.897
69198SOL    HW2 9492   2.603   5.175  12.047
69199SOL     OW 9493  11.174  13.313  10.954
69199SOL    HW1 9494  11.165  13.406  10.975
69199SOL    HW2 9495  11.189  13.271  11.038
69200SOL     OW 9496   3.360   1.061   0.369
69200SOL    HW1 9497   3.419   1.029   0.300
69200SOL    HW2 9498   3.391   1.018   0.449
69201SOL     OW 9499   3.732   0.875   2.105
69201SOL    HW1 9500   3.800   0.935   2.137
69201SOL    HW2 9501   3.779   0.793   2.088
69202SOL     OW 9502   2.360   1.267  13.329
69202SOL    HW1 9503   2.434   1.230  13.281
69202SOL    HW2 9504   2.372   1.362  13.323
69203SOL     OW 9505   6.775  13.592  11.616
69203SOL    HW1 9506   6.736  13.525  11.560
69203SOL    HW2 9507   6.864  13.560  11.633
69204SOL     OW 9508  12.119   2.687  11.995
69204SOL    HW1 9509  12.202   2.679  12.042
69204SOL    HW2 9510  12.122   2.618  11.929
69205SOL     OW 9511   4.412   4.394  12.174
69205SOL    HW1 9512   4.317   4.398  12.184
69205SOL    HW2 9513   4.436   4.480  12.139
69206SOL     OW 9514  11.968   5.516  11.018
69206SOL    HW1 9515  11.954   5.610  11.008
69206SOL    HW2 9516  12.064   5.506  11.021
69207SOL     OW 9517  12.324   5.412   6.385
69207SOL    HW1 9518  12.248   5.434   6.331
69207SOL    HW2 9519  12.289   5.358   6.455
69208SOL     OW 9520  11.562   8.496   4.303
69208SOL    HW1 9521  11.651   8.487   4.268
69208SOL    HW2 9522  11.549   8.591   4.310
69209SOL     OW 9523   7.394   9.972  14.599
69209SOL    HW1 9524   7.305  10.004  14.615
69209SOL    HW2 9525   7.383   9.904  14.532
69210SOL     OW 9526  14.069   4.432  11.552
69210SOL    HW1 9527  13.976   4.455  11.556
69210SOL    HW2 9528  14.084   4.411  11.460
69211SOL     OW 9529  14.161   2.481   8.076
69211SOL    HW1 9530  14.092   2.418   8.095
69211SOL    HW2 9531  14.128   2.532   8.002
69212SOL     OW 9532   1.844  13.943  10.654
69212SOL    HW1 9533   1.939  13.943  10.667
69212SOL    HW2 9534   1.813  13.870  10.707
69213SOL     OW 9535   5.670   9.110   4.293
69213SOL    HW1 9536   5.596   9.137   4.346
69213SOL    HW2 9537   5.667   9.167   4.216
69214SOL     OW 9538   8.362   9.465  12.586
69214SOL    HW1 9539   8.297   9.525  12.622
69214SOL    HW2 9540   8.365   9.392  12.648
69215SOL     OW 9541   0.540   2.039   3.299
69215SOL    HW1 9542   0.508   1.949   3.308
69215SOL    HW2 9543   0.522   2.062   3.208
69216SOL     OW 9544   3.973   2.741  13.820
69216SOL    HW1 9545   3.941   2.821  13.860
69216SOL    HW2 9546   3.896   2.684  13.815
69217SOL     OW 9547   6.905   8.216  13.066
69217SOL    HW1 9548   6.926   8.271  13.142
69217SOL    HW2 9549   6.909   8.276  12.992
69218SOL     OW 9550   2.624   8.905   8.264
69218SOL    HW1 9551   2.612   8.984   8.318
69218SOL    HW2 9552   2.647   8.837   8.328
69219SOL     OW 9553   1.204  13.583   1.539
69219SOL    HW1 9554   1.117  13.617   1.558
69219SOL    HW2 9555   1.188  13.492   1.512
69220SOL     OW 9556   7.871   7.841   4.167
69220SOL    HW1 9557   7.916   7.760   4.139
69220SOL    HW2 9558   7.813   7.813   4.238
69221SOL     OW 9559   0.893   2.140   0.810
69221SOL    HW1 9560   0.892   2.048   0.781
69221SOL    HW2 9561   0.853   2.187   0.737
69222SOL     OW 9562  14.391   1.090   9.720
69222SOL    HW1 9563  14.324   1.023   9.706
69222SOL    HW2 9564  14.419   1.115   9.632
69223SOL     OW 9565  13.811   2.123   8.907
69223SOL    HW1 9566  13.823   2.187   8.977
69223SOL    HW2 9567  13.823   2.173   8.826
69224SOL     OW 9568   8.134   4.432   1.239
69224SOL    HW1 9569   8.192   4.503   1.269
69224SOL    HW2 9570   8.057   4.477   1.205
69225SOL     OW 9571  12.015  12.327   1.608
69225SOL    HW1 9572  11.972  12.378   1.539
69225SOL    HW2 9573  12.060  12.257   1.561
69226SOL     OW 9574  13.266  10.473   2.107
69226SOL    HW1 9575  13.172  10.482   2.122
69226SOL    HW2 9576  13.284  10.379   2.113
69227SOL     OW 9577   2.398   7.896   1.402
69227SOL    HW1 9578   2.377   7.830   1.467
69227SOL    HW2 9579   2.335   7.967   1.418
69228SOL     OW 9580  10.532   2.075  12.191
69228SOL    HW1 9581  10.562   2.120  12.270
69228SOL    HW2 9582  10.573   1.988  12.196
69229SOL     OW 9583   0.832  13.715   7.366
69229SOL    HW1 9584   0.903  13.657   7.339
69229SOL    HW2 9585   0.807  13.683   7.452
69230SOL     OW 9586   2.928   4.189  10.583
69230SOL    HW1 9587   2.910   4.281  10.602
69230SOL    HW2 9588   2.912   4.145  10.666
69231SOL     OW 9589   5.980   8.653   8.699
69231SOL    HW1 9590   5.970   8.641   8.604
69231SOL    HW2 9591   5.913   8.596   8.738
69232SOL     OW 9592   2.123   2.203  12.535
69232SOL    HW1 9593   2.109   2.189  12.629
69232SOL    HW2 9594   2.163   2.289  12.529
69233SOL     OW 9595   8.658   8.822   0.244
69233SOL    HW1 9596   8.713   8.806   0.166
69233SOL    HW2 9597   8.657   8.738   0.290
69234SOL     OW 9598   8.460  10.022   3.112
69234SOL    HW1 9599   8.466   9.982   3.198
69234SOL    HW2 9600   8.552  10.035   3.086
69235SOL     OW 9601   8.221   3.287   2.689
69235SOL    HW1 9602   8.235   3.270   2.596
69235SOL    HW2 9603   8.307   3.318   2.721
69236SOL     OW 9604   0.173   8.636   2.124
69236SOL    HW1 9605   0.079   8.638   2.109
69236SOL    HW2 9606   0.184   8.678   2.210
69237SOL     OW 9607   3.630   6.064   5.045
69237SOL    HW1 9608   3.545   6.055   5.087
69237SOL    HW2 9609   3.671   6.138   5.089
69238SOL     OW 9610   3.730  14.254   3.829
69238SOL    HW1 9611   3.801  14.287   3.773
69238SOL    HW2 9612   3.651  14.292   3.790
69239SOL     OW 9613   0.024  12.012   6.679
69239SOL    HW1 9614  14.853  12.068   6.612
69239SOL    HW2 9615   0.112  11.992   6.646
69240SOL     OW 9616   7.368   3.522  11.738
69240SOL    HW1 9617   7.362   3.428  11.719
69240SOL    HW2 9618   7.365   3.527  11.833
69241SOL     OW 9619  11.082   5.686   4.471
69241SOL    HW1 9620  11.052   5.777   4.468
69241SOL    HW2 9621  11.157   5.683   4.411
69242SOL     OW 9622   4.934  14.702   0.516
69242SOL    HW1 9623   4.919  14.651   0.436
69242SOL    HW2 9624   4.955  14.790   0.486
69243SOL     OW 9625  11.076   4.155   9.344
69243SOL    HW1 9626  11.048   4.230   9.396
69243SOL    HW2 9627  11.043   4.078   9.391
69244SOL     OW 9628  10.171  12.736   1.842
69244SOL    HW1 9629  10.219  12.819   1.838
69244SOL    HW2 9630  10.221  12.677   1.786
69245SOL     OW 9631  10.896   3.306  14.673
69245SOL    HW1 9632  10.975   3.311  14.620
69245SOL    HW2 9633  10.831   3.265  14.616
69246SOL     OW 9634  12.992   9.320   5.648
69246SOL    HW1 9635  13.053   9.290   5.580
69246SOL    HW2 9636  13.041   9.386   5.696
69247SOL     OW 9637  11.545  12.199   9.400
69247SOL    HW1 9638  11.582  12.183   9.486
69247SOL    HW2 9639  11.572  12.123   9.348
69248SOL     OW 9640   2.733   0.759   1.920
69248SOL    HW1 9641   2.642   0.785   1.937
69248SOL    HW2 9642   2.782   0.841   1.924
69249SOL     OW 9643   0.302   7.648   7.399
69249SOL    HW1 9644   0.381   7.634   7.451
69249SOL    HW2 9645   0.267   7.561   7.383
69250SOL     OW 9646   3.739   5.002   0.122
69250SOL    HW1 9647   3.758   5.018   0.214
69250SOL    HW2 9648   3.644   5.016   0.114
69251SOL     OW 9649  14.242   8.557   9.873
69251SOL    HW1 9650  14.206   8.614   9.941
69251SOL    HW2 9651  14.192   8.476   9.880
69252SOL     OW 9652   1.744  12.316   4.361
69252SOL    HW1 9653   1.747  12.240   4.420
69252SOL    HW2 9654   1.739  12.277   4.273
69253SOL     OW 9655   8.877  11.228   5.358
69253SOL    HW1 9656   8.831  11.194   5.281
69253SOL    HW2 9657   8.911  11.151   5.402
69254SOL     OW 9658  12.305   8.435  14.801
69254SOL    HW1 9659  12.221   8.403  14.832
69254SOL    HW2 9660  12.291   8.529  14.789
69255SOL     OW 9661  14.499   7.420   6.813
69255SOL    HW1 9662  14.522   7.346   6.870
69255SOL    HW2 9663  14.570   7.425   6.749
69256SOL     OW 9664   7.292   5.815   7.582
69256SOL    HW1 9665   7.231   5.813   7.508
69256SOL    HW2 9666   7.236   5.826   7.659
69257SOL     OW 9667   5.279  13.109   0.527
69257SOL    HW1 9668   5.199  13.070   0.492
69257SOL    HW2 9669   5.287  13.193   0.480
69258SOL     OW 9670   4.966   5.653   4.146
69258SOL    HW1 9671   4.960   5.585   4.213
69258SOL    HW2 9672   5.042   5.628   4.094
69259SOL     OW 9673   5.011   9.119   8.328
69259SOL    HW1 9674   5.034   9.036   8.286
69259SOL    HW2 9675   4.989   9.095   8.418
69260SOL     OW 9676  13.561   7.325  13.120
69260SOL    HW1 9677  13.554   7.414  13.156
69260SOL    HW2 9678  13.654   7.304  13.125
69261SOL     OW 9679   9.990   7.934   5.714
69261SOL    HW1 9680   9.966   8.027   5.709
69261SOL    HW2 9681   9.995   7.916   5.808
69262SOL     OW 9682  12.128   4.510  10.402
69262SOL    HW1 9683  12.184   4.444  10.443
69262SOL    HW2 9684  12.130   4.490  10.309
69263SOL     OW 9685   6.878   1.851   6.526
69263SOL    HW1 9686   6.841   1.780   6.473
69263SOL    HW2 9687   6.832   1.845   6.609
69264SOL     OW 9688   3.115   0.407   9.244
69264SOL    HW1 9689   3.156   0.429   9.160
69264SOL    HW2 9690   3.027   0.445   9.239
69265SOL     OW 9691   2.544   3.448   6.741
69265SOL    HW1 9692   2.472   3.386   6.756
69265SOL    HW2 9693   2.613   3.420   6.801
69266SOL     OW 9694   1.684  12.969   6.017
69266SOL    HW1 9695   1.755  13.010   5.966
69266SOL    HW2 9696   1.704  12.992   6.108
69267SOL     OW 9697   6.592  13.731   2.976
69267SOL    HW1 9698   6.559  13.772   3.056
69267SOL    HW2 9699   6.679  13.698   3.000
69268SOL     OW 9700   0.216  11.482  10.614
69268SOL    HW1 9701   0.300  11.469  10.660
69268SOL    HW2 9702   0.234  11.457  10.524
69269SOL     OW 9703   2.013   1.749  13.724
69269SOL    HW1 9704   2.055   1.695  13.791
69269SOL    HW2 9705   1.934   1.701  13.701
69270SOL     OW 9706  12.636   9.556  10.621
69270SOL    HW1 9707  12.671   9.517  10.541
69270SOL    HW2 9708  12.612   9.481  10.676
69271SOL     OW 9709   9.263  13.313   9.604
69271SOL    HW1 9710   9.316  13.302   9.682
69271SOL    HW2 9711   9.225  13.401   9.612
69272SOL     OW 9712   2.447  13.900  12.054
69272SOL    HW1 9713   2.429  13.928  11.964
69272SOL    HW2 9714   2.377  13.838  12.075
69273SOL     OW 9715  11.812   6.956   7.060
69273SOL    HW1 9716  11.783   7.017   7.128
69273SOL    HW2 9717  11.779   6.994   6.978
69274SOL     OW 9718   9.072   2.510  13.671
69274SOL    HW1 9719   9.091   2.498  13.578
69274SOL    HW2 9720   9.149   2.475  13.716
69275SOL     OW 9721   3.297   9.600   4.159
69275SOL    HW1 9722   3.389   9.606   4.132
69275SOL    HW2 9723   3.292   9.518   4.208
69276SOL     OW 9724  13.608   2.108   1.396
69276SOL    HW1 9725  13.598   2.137   1.305
69276SOL    HW2 9726  13.545   2.037   1.406
69277SOL     OW 9727   2.036  14.423   5.379
69277SOL    HW1 9728   2.028  14.332   5.352
69277SOL    HW2 9729   2.096  14.421   5.453
69278SOL     OW 9730   6.255   0.223   1.426
69278SOL    HW1 9731   6.309   0.241   1.349
69278SOL    HW2 9732   6.290   0.280   1.494
69279SOL     OW 9733   8.230   0.539  10.190
69279SOL    HW1 9734   8.308   0.488  10.210
69279SOL    HW2 9735   8.255   0.594  10.116
69280SOL     OW 9736   1.823   2.369  10.003
69280SOL    HW1 9737   1.814   2.297  10.065
69280SOL    HW2 9738   1.838   2.446  10.059
69281SOL     OW 9739   9.767   7.500  13.913
69281SOL    HW1 9740   9.799   7.535  13.996
69281SOL    HW2 9741   9.758   7.406  13.928
69282SOL     OW 9742   8.012  12.645  12.210
69282SOL    HW1 9743   8.054  12.559  12.218
69282SOL    HW2 9744   7.928  12.634  12.256
69283SOL     OW 9745   3.187   8.660  10.304
69283SOL    HW1 9746   3.152   8.713  10.376
69283SOL    HW2 9747   3.251   8.603  10.345
69284SOL     OW 9748  13.983   7.899   1.521
69284SOL    HW1 9749  13.994   7.809   1.492
69284SOL    HW2 9750  13.900   7.927   1.484
69285SOL     OW 9751   1.052   5.115   5.543
69285SOL    HW1 9752   0.976   5.134   5.598
69285SOL    HW2 9753   1.073   5.024   5.561
69286SOL     OW 9754   0.671   6.685   8.886
69286SOL    HW1 9755   0.670   6.773   8.922
69286SOL    HW2 9756   0.607   6.688   8.814
69287SOL     OW 9757  13.241   9.071  14.045
69287SOL    HW1 9758  13.287   9.092  14.126
69287SOL    HW2 9759  13.154   9.109  14.056
69288SOL     OW 9760  12.958   1.163   4.645
69288SOL    HW1 9761  12.941   1.237   4.587
69288SOL    HW2 9762  12.948   1.200   4.733
69289SOL     OW 9763  13.044  14.753  14.370
69289SOL    HW1 9764  13.085  14.719  14.290
69289SOL    HW2 9765  13.064  14.687  14.436
69290SOL     OW 9766  12.262  10.723   9.087
69290SOL    HW1 9767  12.352  10.718   9.120
69290SOL    HW2 9768  12.226  10.801   9.130
69291SOL     OW 9769  14.352   9.224  10.631
69291SOL    HW1 9770  14.447   9.213  10.623
69291SOL    HW2 9771  14.318   9.136  10.647
69292SOL     OW 9772   7.179   1.762   8.413
69292SOL    HW1 9773   7.235   1.685   8.402
69292SOL    HW2 9774   7.239   1.832   8.438
69293SOL     OW 9775   3.809   0.127  14.684
69293SOL    HW1 9776   3.738   0.158  14.741
69293SOL    HW2 9777   3.808   0.032  14.694
69294SOL     OW 9778   3.007   0.711   3.969
69294SOL    HW1 9779   3.001   0.755   4.054
69294SOL    HW2 9780   3.081   0.753   3.925
69295SOL     OW 9781   7.613   0.525   9.056
69295SOL    HW1 9782   7.584   0.611   9.087
69295SOL    HW2 9783   7.579   0.519   8.967
69296SOL     OW 9784   4.428   5.628   6.812
69296SOL    HW1 9785   4.462   5.697   6.754
69296SOL    HW2 9786   4.501   5.608   6.871
69297SOL     OW 9787   7.390  13.918  11.237
69297SOL    HW1 9788   7.326  13.896  11.169
69297SOL    HW2 9789   7.468  13.868  11.212
69298SOL     OW 9790   6.891   4.004   8.796
69298SOL    HW1 9791   6.811   3.974   8.840
69298SOL    HW2 9792   6.962   3.957   8.839
69299SOL     OW 9793   5.987  10.769   5.709
69299SOL    HW1 9794   6.060  10.800   5.763
69299SOL    HW2 9795   6.029  10.724   5.636
69300SOL     OW 9796   7.974   5.795  12.005
69300SOL    HW1 9797   7.893   5.827  11.966
69300SOL    HW2 9798   7.963   5.700  12.006
69301SOL     OW 9799   8.071  11.261   7.554
69301SOL    HW1 9800   8.109  11.234   7.637
69301SOL    HW2 9801   8.138  11.315   7.513
69302SOL     OW 9802   8.162   8.033  11.573
69302SOL    HW1 9803   8.095   7.998  11.632
69302SOL    HW2 9804   8.214   8.090  11.629
69303SOL     OW 9805  10.486  11.944  13.216
69303SOL    HW1 9806  10.416  11.978  13.271
69303SOL    HW2 9807  10.566  11.980  13.254
69304SOL     OW 9808   2.098   5.876   4.748
69304SOL    HW1 9809   2.028   5.937   4.774
69304SOL    HW2 9810   2.164   5.932   4.707
69305SOL     OW 9811   1.068   9.226   9.082
69305SOL    HW1 9812   1.056   9.312   9.121
69305SOL    HW2 9813   0.994   9.174   9.114
69306SOL     OW 9814  11.017  10.505   7.185
69306SOL    HW1 9815  11.039  10.584   7.138
69306SOL    HW2 9816  11.047  10.521   7.275
69307SOL     OW 9817   2.760  12.751   2.934
69307SOL    HW1 9818   2.750  12.844   2.917
69307SOL    HW2 9819   2.695  12.731   3.001
69308SOL     OW 9820   7.062   9.644   5.155
69308SOL    HW1 9821   7.075   9.554   5.126
69308SOL    HW2 9822   7.087   9.644   5.247
69309SOL     OW 9823  13.337   8.196  11.892
69309SOL    HW1 9824  13.279   8.257  11.937
69309SOL    HW2 9825  13.282   8.121  11.870
69310SOL     OW 9826  11.963   7.241  10.777
69310SOL    HW1 9827  11.965   7.318  10.834
69310SOL    HW2 9828  11.935   7.275  10.692
69311SOL     OW 9829  12.590  10.825  11.149
69311SOL    HW1 9830  12.525  10.891  11.173
69311SOL    HW2 9831  12.560  10.792  11.064
69312SOL     OW 9832   4.609   9.193  11.991
69312SOL    HW1 9833   4.700   9.209  11.968
69312SOL    HW2 9834   4.595   9.242  12.072
69313SOL     OW 9835  11.323  14.583   6.722
69313SOL    HW1 9836  11.376  14.507   6.698
69313SOL    HW2 9837  11.387  14.647   6.755
69314SOL     OW 9838   9.691   8.551   5.716
69314SOL    HW1 9839   9.600   8.570   5.738
69314SOL    HW2 9840   9.704   8.460   5.743
69315SOL     OW 9841   9.023   3.233   4.313
69315SOL    HW1 9842   8.928   3.224   4.318
69315SOL    HW2 9843   9.045   3.203   4.225
69316SOL     OW 9844  14.740   2.665   6.686
69316SOL    HW1 9845  14.818   2.719   6.702
69316SOL    HW2 9846  14.669   2.712   6.730
69317SOL     OW 9847   3.298  14.292   4.075
69317SOL    HW1 9848   3.326  14.208   4.038
69317SOL    HW2 9849   3.223  14.270   4.130
69318SOL     OW 9850  10.479   7.155   1.236
69318SOL    HW1 9851  10.550   7.155   1.300
69318SOL    HW2 9852  10.472   7.064   1.208
69319SOL     OW 9853   9.166   9.864   8.851
69319SOL    HW1 9854   9.080   9.894   8.881
69319SOL    HW2 9855   9.168   9.771   8.872
69320SOL     OW 9856   9.748   6.952  14.224
69320SOL    HW1 9857   9.711   7.028  14.269
69320SOL    HW2 9858   9.762   6.981  14.134
69321SOL     OW 9859   8.716   1.764   6.468
69321SOL    HW1 9860   8.757   1.749   6.554
69321SOL    HW2 9861   8.659   1.688   6.456
69322SOL     OW 9862   1.458   6.297   8.386
69322SOL    HW1 9863   1.446   6.382   8.345
69322SOL    HW2 9864   1.509   6.315   8.465
69323SOL     OW 9865   9.478   0.947   2.858
69323SOL    HW1 9866   9.526   1.013   2.907
69323SOL    HW2 9867   9.476   0.871   2.916
69324SOL     OW 9868   9.760  14.444   6.665
69324SOL    HW1 9869   9.691  14.381   6.643
69324SOL    HW2 9870   9.826  14.431   6.597
69325SOL     OW 9871   4.435   2.221  14.205
69325SOL    HW1 9872   4.491   2.295  14.229
69325SOL    HW2 9873   4.492   2.162  14.157
69326SOL     OW 9874  12.133   0.124   7.730
69326SOL    HW1 9875  12.219   0.167   7.735
69326SOL    HW2 9876  12.152   0.032   7.746
69327SOL     OW 9877   0.050   3.563   4.743
69327SOL    HW1 9878  14.849   3.522   4.691
69327SOL    HW2 9879   0.122   3.576   4.681
69328SOL     OW 9880  10.179   5.436   7.005
69328SOL    HW1 9881  10.258   5.408   7.051
69328SOL    HW2 9882  10.151   5.358   6.956
69329SOL     OW 9883  11.572   6.586   4.650
69329SOL    HW1 9884  11.510   6.545   4.711
69329SOL    HW2 9885  11.657   6.550   4.675
69330SOL     OW 9886   0.312   8.820  10.349
69330SOL    HW1 9887   0.387   8.813  10.290
69330SOL    HW2 9888   0.306   8.913  10.370
69331SOL     OW 9889   4.349   0.148   9.183
69331SOL    HW1 9890   4.427   0.119   9.136
69331SOL    HW2 9891   4.276   0.122   9.127
69332SOL     OW 9892   0.458   2.805   5.345
69332SOL    HW1 9893   0.440   2.782   5.436
69332SOL    HW2 9894   0.502   2.728   5.309
69333SOL     OW 9895   5.993   5.217  13.270
69333SOL    HW1 9896   5.987   5.269  13.350
69333SOL    HW2 9897   6.071   5.250  13.225
69334SOL     OW 9898   5.818  14.467  13.908
69334SOL    HW1 9899   5.849  14.473  13.817
69334SOL    HW2 9900   5.760  14.543  13.919
69335SOL     OW 9901  12.405   3.416  11.407
69335SOL    HW1 9902  12.354   3.475  11.351
69335SOL    HW2 9903  12.364   3.423  11.493
69336SOL     OW 9904   4.922  13.043  13.872
69336SOL    HW1 9905   4.989  13.105  13.903
69336SOL    HW2 9906   4.840  13.090  13.882
69337SOL     OW 9907   9.414  13.041  10.783
69337SOL    HW1 9908   9.360  12.977  10.737
69337SOL    HW2 9909   9.504  13.012  10.768
69338SOL     OW 9910   8.795  10.901   9.558
69338SOL    HW1 9911   8.881  10.907   9.601
69338SOL    HW2 9912   8.738  10.955   9.612
69339SOL     OW 9913   0.235  14.821   4.494
69339SOL    HW1 9914   0.212  14.817   4.401
69339SOL    HW2 9915   0.190  14.745   4.532
69340SOL     OW 9916  14.115   4.222  10.055
69340SOL    HW1 9917  14.107   4.226   9.959
69340SOL    HW2 9918  14.199   4.263  10.073
69341SOL     OW 9919   0.103   8.403   7.077
69341SOL    HW1 9920   0.131   8.385   7.167
69341SOL    HW2 9921   0.164   8.355   7.022
69342SOL     OW 9922   5.220   9.328   7.712
69342SOL    HW1 9923   5.312   9.332   7.739
69342SOL    HW2 9924   5.211   9.399   7.648
69343SOL     OW 9925  14.012   4.234  14.744
69343SOL    HW1 9926  14.104   4.211  14.730
69343SOL    HW2 9927  13.986   4.280  14.664
69344SOL     OW 9928   4.525  13.941   0.464
69344SOL    HW1 9929   4.580  13.870   0.500
69344SOL    HW2 9930   4.581  14.018   0.467
69345SOL     OW 9931   3.679   6.552   3.074
69345SOL    HW1 9932   3.674   6.562   3.169
69345SOL    HW2 9933   3.629   6.625   3.039
69346SOL     OW 9934   1.350  12.247   2.063
69346SOL    HW1 9935   1.274  12.211   2.016
69346SOL    HW2 9936   1.394  12.302   1.998
69347SOL     OW 9937   4.788   5.110   6.717
69347SOL    HW1 9938   4.760   5.094   6.627
69347SOL    HW2 9939   4.711   5.148   6.760
69348SOL     OW 9940  10.816  10.015  14.141
69348SOL    HW1 9941  10.780   9.943  14.193
69348SOL    HW2 9942  10.785  10.094  14.185
69349SOL     OW 9943   0.535   1.753  10.452
69349SOL    HW1 9944   0.465   1.800  10.406
69349SOL    HW2 9945   0.607   1.750  10.389
69350SOL     OW 9946   0.781   2.253   4.548
69350SOL    HW1 9947   0.832   2.285   4.622
69350SOL    HW2 9948   0.846   2.229   4.482
69351SOL     OW 9949   9.884   0.362   5.349
69351SOL    HW1 9950   9.835   0.430   5.394
69351SOL    HW2 9951   9.918   0.307   5.419
69352SOL     OW 9952   6.645   2.453  10.827
69352SOL    HW1 9953   6.592   2.459  10.747
69352SOL    HW2 9954   6.714   2.518  10.814
69353SOL     OW 9955   7.696   9.753  10.367
69353SOL    HW1 9956   7.656   9.833  10.401
69353SOL    HW2 9957   7.781   9.748  10.409
69354SOL     OW 9958   8.454   9.732   8.960
69354SOL    HW1 9959   8.376   9.784   8.940
69354SOL    HW2 9960   8.520   9.796   8.986
69355SOL     OW 9961  10.154   6.296   5.236
69355SOL    HW1 9962  10.106   6.216   5.261
69355SOL    HW2 9963  10.203   6.320   5.314
69356SOL     OW 9964  10.871   1.559   3.279
69356SOL    HW1 9965  10.814   1.603   3.216
69356SOL    HW2 9966  10.911   1.630   3.329
69357SOL     OW 9967   0.981   3.280   6.752
69357SOL    HW1 9968   1.019   3.353   6.801
69357SOL    HW2 9969   1.000   3.300   6.660
69358SOL     OW 9970   8.206   4.194   5.675
69358SOL    HW1 9971   8.244   4.106   5.666
69358SOL    HW2 9972   8.218   4.216   5.767
69359SOL     OW 9973  12.616  14.012   0.104
69359SOL    HW1 9974  12.548  13.992   0.168
69359SOL    HW2 9975  12.611  14.106   0.091
69360SOL     OW 9976   4.006   8.782   4.917
69360SOL    HW1 9977   3.942   8.713   4.900
69360SOL    HW2 9978   4.008   8.833   4.837
69361SOL     OW 9979   0.709   8.233   7.565
69361SOL    HW1 9980   0.649   8.236   7.640
69361SOL    HW2 9981   0.672   8.165   7.508
69362SOL     OW 9982   7.912   5.718   4.670
69362SOL    HW1 9983   7.961   5.737   4.590
69362SOL    HW2 9984   7.894   5.803   4.709
69363SOL     OW 9985  10.454  13.644  10.591
69363SOL    HW1 9986  10.394  13.613  10.522
69363SOL    HW2 9987  10.430  13.592  10.668
69364SOL     OW 9988   4.608   8.216   5.251
69364SOL    HW1 9989   4.629   8.147   5.313
69364SOL    HW2 9990   4.584   8.291   5.305
69365SOL     OW 9991   5.197   7.360  13.493
69365SOL    HW1 9992   5.189   7.370  13.398
69365SOL    HW2 9993   5.178   7.447  13.528
69366SOL     OW 9994   4.077   8.942   2.863
69366SOL    HW1 9995   4.020   8.994   2.921
69366SOL    HW2 9996   4.140   9.005   2.829
69367SOL     OW 9997   5.677  10.394  12.152
69367SOL    HW1 9998   5.714  10.467  12.102
69367SOL    HW2 9999   5.644  10.334  12.086
69368SOL     OW10000   3.576  13.872   8.520
69368SOL    HW110001   3.510  13.936   8.494
69368SOL    HW210002   3.574  13.872   8.615
69369SOL     OW10003   4.408   0.551   3.608
69369SOL    HW110004   4.371   0.560   3.696
69369SOL    HW210005   4.373   0.468   3.576
69370SOL     OW10006  12.284   9.726  14.079
69370SOL    HW110007  12.286   9.687  13.992
69370SOL    HW210008  12.248   9.657  14.135
69371SOL     OW10009   0.970  12.625  13.188
69371SOL    HW110010   0.876  12.639  13.181
69371SOL    HW210011   0.997  12.680  13.261
69372SOL     OW10012   6.446   6.503   4.445
69372SOL    HW110013   6.375   6.504   4.509
69372SOL    HW210014   6.409   6.539   4.365
69373SOL     OW10015   1.394  12.178   0.263
69373SOL    HW110016   1.452  12.250   0.290
69373SOL    HW210017   1.448  12.125   0.205
69374SOL     OW10018   0.022   3.152   9.722
69374SOL    HW110019   0.074   3.124   9.646
69374SOL    HW210020   0.061   3.235   9.748
69375SOL     OW10021   8.962   7.156   0.834
69375SOL    HW110022   8.880   7.179   0.790
69375SOL    HW210023   9.015   7.235   0.830
69376SOL     OW10024   7.985   7.444   9.866
69376SOL    HW110025   8.014   7.533   9.883
69376SOL    HW210026   8.002   7.431   9.773
69377SOL     OW10027   9.362   6.537   9.318
69377SOL    HW110028   9.296   6.510   9.381
69377SOL    HW210029   9.361   6.468   9.251
69378SOL     OW10030  11.253   0.320   5.533
69378SOL    HW110031  11.267   0.401   5.581
69378SOL    HW210032  11.272   0.251   5.597
69379SOL     OW10033   5.332   6.923   9.936
69379SOL    HW110034   5.249   6.876   9.940
69379SOL    HW210035   5.395   6.860   9.901
69380SOL     OW10036  12.887   9.059   5.514
69380SOL    HW110037  12.964   9.005   5.498
69380SOL    HW210038  12.919   9.149   5.509
69381SOL     OW10039  14.630  14.137  11.276
69381SOL    HW110040  14.667  14.102  11.196
69381SOL    HW210041  14.585  14.217  11.249
69382SOL     OW10042   9.443   4.791  14.343
69382SOL    HW110043   9.534   4.764  14.331
69382SOL    HW210044   9.399   4.764  14.263
69383SOL     OW10045   0.564   7.067  10.184
69383SOL    HW110046   0.506   7.062  10.107
69383SOL    HW210047   0.575   7.161  10.199
69384SOL     OW10048  12.011   0.678   1.192
69384SOL    HW110049  12.057   0.719   1.119
69384SOL    HW210050  11.992   0.751   1.252
69385SOL     OW10051   7.522   4.279  14.603
69385SOL    HW110052   7.467   4.343  14.648
69385SOL    HW210053   7.525   4.309  14.512
69386SOL     OW10054  11.344  13.672  12.099
69386SOL    HW110055  11.375  13.722  12.023
69386SOL    HW210056  11.388  13.587  12.092
69387SOL     OW10057   1.487   4.123   5.567
69387SOL    HW110058   1.450   4.081   5.645
69387SOL    HW210059   1.411   4.144   5.513
69388SOL     OW10060   5.713   9.187   3.105
69388SOL    HW110061   5.723   9.147   3.019
69388SOL    HW210062   5.747   9.276   3.094
69389SOL     OW10063   7.688  10.016   4.114
69389SOL    HW110064   7.634   9.969   4.178
69389SOL    HW210065   7.763  10.046   4.165
69390SOL     OW10066  10.733   1.020   0.168
69390SOL    HW110067  10.752   1.034   0.075
69390SOL    HW210068  10.742   0.925   0.180
69391SOL     OW10069   2.766   9.743  13.677
69391SOL    HW110070   2.822   9.667  13.659
69391SOL    HW210071   2.793   9.772  13.764
69392SOL     OW10072   9.770   7.368  12.421
69392SOL    HW110073   9.692   7.329  12.383
69392SOL    HW210074   9.738   7.440  12.475
69393SOL     OW10075  12.708  12.849   0.733
69393SOL    HW110076  12.779  12.838   0.671
69393SOL    HW210077  12.654  12.771   0.722
69394SOL     OW10078  10.425   6.993   1.555
69394SOL    HW110079  10.374   7.074   1.556
69394SOL    HW210080  10.367   6.929   1.512
69395SOL     OW10081  10.243   9.999  13.479
69395SOL    HW110082  10.237   9.933  13.549
69395SOL    HW210083  10.318   9.970  13.427
69396SOL     OW10084   5.944   1.826  10.628
69396SOL    HW110085   6.039   1.833  10.627
69396SOL    HW210086   5.924   1.777  10.708
69397SOL     OW10087   3.582   5.444   9.958
69397SOL    HW110088   3.555   5.533   9.937
69397SOL    HW210089   3.524   5.388   9.907
69398SOL     OW10090   4.368  11.246   1.127
69398SOL    HW110091   4.426  11.171   1.115
69398SOL    HW210092   4.358  11.283   1.040
69399SOL     OW10093  11.688   0.312   5.722
69399SOL    HW110094  11.716   0.231   5.679
69399SOL    HW210095  11.614   0.286   5.777
69400SOL     OW10096   5.613   9.946  10.797
69400SOL    HW110097   5.595   9.975  10.708
69400SOL    HW210098   5.648   9.857  10.787
69401SOL     OW10099   1.118   9.677  12.731
69401SOL    HW110100   1.048   9.632  12.684
69401SOL    HW210101   1.115   9.767  12.699
69402SOL     OW10102  10.037   4.183   0.348
69402SOL    HW110103   9.958   4.154   0.392
69402SOL    HW210104  10.073   4.104   0.307
69403SOL     OW10105  10.122   2.692  12.745
69403SOL    HW110106  10.053   2.635  12.711
69403SOL    HW210107  10.202   2.639  12.740
69404SOL     OW10108   7.106   8.381  14.752
69404SOL    HW110109   7.119   8.475  14.740
69404SOL    HW210110   7.149   8.341  14.677
69405SOL     OW10111   1.929  13.142   4.571
69405SOL    HW110112   1.875  13.082   4.622
69405SOL    HW210113   1.889  13.142   4.484
69406SOL     OW10114   8.278  14.713   7.828
69406SOL    HW110115   8.364  14.743   7.800
69406SOL    HW210116   8.230  14.701   7.746
69407SOL     OW10117   1.199   2.009   6.853
69407SOL    HW110118   1.184   2.104   6.854
69407SOL    HW210119   1.295   2.001   6.856
69408SOL     OW10120  11.184   9.536   1.303
69408SOL    HW110121  11.254   9.472   1.290
69408SOL    HW210122  11.198   9.600   1.233
69409SOL     OW10123   2.937   8.601  14.740
69409SOL    HW110124   2.886   8.672  14.701
69409SOL    HW210125   3.017   8.597  14.686
69410SOL     OW10126   7.573   0.769   9.144
69410SOL    HW110127   7.505   0.793   9.207
69410SOL    HW210128   7.563   0.832   9.072
69411SOL     OW10129   7.924   3.609  11.960
69411SOL    HW110130   7.891   3.571  12.041
69411SOL    HW210131   7.912   3.703  11.970
69412SOL     OW10132  11.426  14.333   5.425
69412SOL    HW110133  11.445  14.239   5.434
69412SOL    HW210134  11.367  14.352   5.499
69413SOL     OW10135   8.831   4.647   0.257
69413SOL    HW110136   8.793   4.648   0.169
69413SOL    HW210137   8.817   4.735   0.290
69414SOL     OW10138   4.764   5.335  12.695
69414SOL    HW110139   4.845   5.371  12.659
69414SOL    HW210140   4.698   5.354  12.628
69415SOL     OW10141  13.369   9.022   6.969
69415SOL    HW110142  13.335   9.070   7.044
69415SOL    HW210143  13.291   8.994   6.921
69416SOL     OW10144   3.224   2.974   8.416
69416SOL    HW110145   3.170   2.948   8.490
69416SOL    HW210146   3.188   3.058   8.387
69417SOL     OW10147  12.959  13.721  11.760
69417SOL    HW110148  12.948  13.670  11.840
69417SOL    HW210149  13.054  13.733  11.752
69418SOL     OW10150   8.736  10.738   5.958
69418SOL    HW110151   8.769  10.675   5.893
69418SOL    HW210152   8.645  10.754   5.931
69419SOL     OW10153   7.877  14.055   5.617
69419SOL    HW110154   7.858  14.052   5.523
69419SOL    HW210155   7.880  14.148   5.638
69420SOL     OW10156  10.939   9.672   6.721
69420SOL    HW110157  10.946   9.762   6.754
69420SOL    HW210158  10.888   9.626   6.789
69421SOL     OW10159   9.787   5.505   9.863
69421SOL    HW110160   9.872   5.549   9.867
69421SOL    HW210161   9.809   5.412   9.854
69422SOL     OW10162   7.500   4.256   2.172
69422SOL    HW110163   7.468   4.305   2.247
69422SOL    HW210164   7.454   4.173   2.176
69423SOL     OW10165   0.685   8.321  14.453
69423SOL    HW110166   0.657   8.349  14.365
69423SOL    HW210167   0.718   8.233  14.440
69424SOL     OW10168  14.132  10.374  11.827
69424SOL    HW110169  14.117  10.398  11.919
69424SOL    HW210170  14.049  10.338  11.798
69425SOL     OW10171   6.056   5.859  11.251
69425SOL    HW110172   6.088   5.935  11.202
69425SOL    HW210173   6.135   5.807  11.268
69426SOL     OW10174   3.572   5.065   6.783
69426SOL    HW110175   3.575   5.018   6.866
69426SOL    HW210176   3.513   5.139   6.799
69427SOL     OW10177  12.864   6.899   5.274
69427SOL    HW110178  12.886   6.990   5.296
69427SOL    HW210179  12.800   6.906   5.203
69428SOL     OW10180  11.833   1.431   7.001
69428SOL    HW110181  11.755   1.380   6.983
69428SOL    HW210182  11.903   1.366   7.009
69429SOL     OW10183   3.452   6.687   0.319
69429SOL    HW110184   3.359   6.710   0.320
69429SOL    HW210185   3.491   6.741   0.388
69430SOL     OW10186  11.577  11.009  12.292
69430SOL    HW110187  11.570  10.919  12.322
69430SOL    HW210188  11.486  11.035  12.275
69431SOL     OW10189   1.358  14.700  11.844
69431SOL    HW110190   1.377  14.687  11.937
69431SOL    HW210191   1.311  14.783  11.840
69432SOL     OW10192   6.236   3.690  12.646
69432SOL    HW110193   6.206   3.611  12.692
69432SOL    HW210194   6.173   3.702  12.575
69433SOL     OW10195  11.421   7.884  10.510
69433SOL    HW110196  11.363   7.813  10.484
69433SOL    HW210197  11.462   7.912  10.427
69434SOL     OW10198  11.875   3.621   6.847
69434SOL    HW110199  11.901   3.671   6.770
69434SOL    HW210200  11.874   3.684   6.919
69435SOL     OW10201   6.401  10.840   8.400
69435SOL    HW110202   6.478  10.879   8.357
69435SOL    HW210203   6.436  10.771   8.455
69436SOL     OW10204   7.154  11.198   8.645
69436SOL    HW110205   7.151  11.291   8.623
69436SOL    HW210206   7.241  11.184   8.683
69437SOL     OW10207   0.272   2.319   1.099
69437SOL    HW110208   0.277   2.413   1.114
69437SOL    HW210209   0.180   2.302   1.079
69438SOL     OW10210   3.145   9.420   2.908
69438SOL    HW110211   3.071   9.429   2.968
69438SOL    HW210212   3.205   9.360   2.952
69439SOL     OW10213  14.208   7.788   9.670
69439SOL    HW110214  14.238   7.804   9.759
69439SOL    HW210215  14.201   7.875   9.631
69440SOL     OW10216  14.267  13.615  11.155
69440SOL    HW110217  14.272  13.654  11.068
69440SOL    HW210218  14.218  13.678  11.207
69441SOL     OW10219   7.131   9.235  10.174
69441SOL    HW110220   7.180   9.251  10.094
69441SOL    HW210221   7.110   9.142  10.171
69442SOL     OW10222   3.788  10.602  11.474
69442SOL    HW110223   3.736  10.681  11.459
69442SOL    HW210224   3.737  10.551  11.537
69443SOL     OW10225  12.965   2.121   7.174
69443SOL    HW110226  12.900   2.122   7.104
69443SOL    HW210227  13.047   2.142   7.130
69444SOL     OW10228   2.322   9.608  10.817
69444SOL    HW110229   2.347   9.650  10.899
69444SOL    HW210230   2.287   9.679  10.763
69445SOL     OW10231   2.062   6.199   8.827
69445SOL    HW110232   2.110   6.116   8.832
69445SOL    HW210233   2.123   6.264   8.862
69446SOL     OW10234   9.662   1.981   5.460
69446SOL    HW110235   9.745   1.937   5.441
69446SOL    HW210236   9.684   2.074   5.456
69447SOL     OW10237  12.975  14.114   2.699
69447SOL    HW110238  13.028  14.143   2.625
69447SOL    HW210239  12.927  14.038   2.666
69448SOL     OW10240   4.182   4.462   1.505
69448SOL    HW110241   4.208   4.520   1.433
69448SOL    HW210242   4.190   4.374   1.468
69449SOL     OW10243   1.111  14.307   3.472
69449SOL    HW110244   1.131  14.266   3.388
69449SOL    HW210245   1.019  14.284   3.488
69450SOL     OW10246   1.527   5.915   4.728
69450SOL    HW110247   1.455   5.862   4.763
69450SOL    HW210248   1.496   5.945   4.643
69451SOL     OW10249   6.249   9.737  11.331
69451SOL    HW110250   6.310   9.718  11.259
69451SOL    HW210251   6.289   9.810  11.378
69452SOL     OW10252   5.770   3.074  14.803
69452SOL    HW110253   5.799   2.995  14.758
69452SOL    HW210254   5.710   3.116  14.741
69453SOL     OW10255  11.996   7.345   8.925
69453SOL    HW110256  11.993   7.433   8.964
69453SOL    HW210257  11.910   7.333   8.885
69454SOL     OW10258  14.083   3.287   1.186
69454SOL    HW110259  14.072   3.210   1.131
69454SOL    HW210260  14.000   3.296   1.232
69455SOL     OW10261   5.283   7.995  10.891
69455SOL    HW110262   5.209   8.040  10.850
69455SOL    HW210263   5.347   8.064  10.908
69456SOL     OW10264   4.234  14.516   9.666
69456SOL    HW110265   4.210  14.460   9.740
69456SOL    HW210266   4.233  14.457   9.590
69457SOL     OW10267   0.204  14.144   8.715
69457SOL    HW110268   0.269  14.138   8.645
69457SOL    HW210269   0.234  14.082   8.781
69458SOL     OW10270   7.594  13.953   8.143
69458SOL    HW110271   7.631  13.871   8.111
69458SOL    HW210272   7.649  13.976   8.218
69459SOL     OW10273   0.080   0.474   3.377
69459SOL    HW110274   0.104   0.520   3.458
69459SOL    HW210275  14.864   0.433   3.397
69460SOL     OW10276  11.135   1.553   2.895
69460SOL    HW110277  11.150   1.513   2.809
69460SOL    HW210278  11.089   1.485   2.944
69461SOL     OW10279   2.481   9.675   7.431
69461SOL    HW110280   2.434   9.746   7.475
69461SOL    HW210281   2.412   9.621   7.392
69462SOL     OW10282   9.687  12.353   6.107
69462SOL    HW110283   9.756  12.310   6.158
69462SOL    HW210284   9.626  12.386   6.173
69463SOL     OW10285   6.628   3.960   9.472
69463SOL    HW110286   6.660   4.006   9.394
69463SOL    HW210287   6.651   3.868   9.457
69464SOL     OW10288   6.774  14.643   6.330
69464SOL    HW110289   6.781  14.695   6.250
69464SOL    HW210290   6.736  14.703   6.394
69465SOL     OW10291   1.385   5.367  12.947
69465SOL    HW110292   1.318   5.324  12.893
69465SOL    HW210293   1.338   5.392  13.027
69466SOL     OW10294  10.919  11.624  13.106
69466SOL    HW110295  10.906  11.690  13.038
69466SOL    HW210296  10.831  11.596  13.131
69467SOL     OW10297  10.384  14.798   4.507
69467SOL    HW110298  10.363   0.023   4.518
69467SOL    HW210299  10.449  14.780   4.576
69468SOL     OW10300   7.475   1.872   9.472
69468SOL    HW110301   7.538   1.842   9.407
69468SOL    HW210302   7.506   1.836   9.555
69469SOL     OW10303   9.123   0.475  12.157
69469SOL    HW110304   9.111   0.452  12.065
69469SOL    HW210305   9.035   0.475  12.194
69470SOL     OW10306   7.523   3.259   2.583
69470SOL    HW110307   7.476   3.177   2.568
69470SOL    HW210308   7.507   3.279   2.675
69471SOL     OW10309  13.096   9.695   8.653
69471SOL    HW110310  13.190   9.679   8.660
69471SOL    HW210311  13.090   9.777   8.603
69472SOL     OW10312  11.082   5.300   7.214
69472SOL    HW110313  11.057   5.389   7.238
69472SOL    HW210314  11.039   5.285   7.130
69473SOL     OW10315  10.144   8.495  11.196
69473SOL    HW110316  10.135   8.503  11.291
69473SOL    HW210317  10.220   8.439  11.184
69474SOL     OW10318   9.029  13.767   6.417
69474SOL    HW110319   9.032  13.762   6.321
69474SOL    HW210320   9.066  13.684   6.446
69475SOL     OW10321  12.597   1.272   2.572
69475SOL    HW110322  12.611   1.298   2.481
69475SOL    HW210323  12.552   1.347   2.611
69476SOL     OW10324   2.766   8.326  10.604
69476SOL    HW110325   2.832   8.353  10.668
69476SOL    HW210326   2.682   8.348  10.644
69477SOL     OW10327   9.893   0.780  14.250
69477SOL    HW110328   9.816   0.834  14.231
69477SOL    HW210329   9.942   0.831  14.314
69478SOL     OW10330   6.948  11.457  12.214
69478SOL    HW110331   6.908  11.409  12.287
69478SOL    HW210332   7.010  11.394  12.176
69479SOL     OW10333   2.893   5.640   0.001
69479SOL    HW110334   2.914   5.591  14.789
69479SOL    HW210335   2.953   5.604   0.066
69480SOL     OW10336  11.242   5.140   5.578
69480SOL    HW110337  11.218   5.233   5.585
69480SOL    HW210338  11.164   5.093   5.609
69481SOL     OW10339  12.196   0.914  13.985
69481SOL    HW110340  12.139   0.958  13.922
69481SOL    HW210341  12.152   0.831  14.004
69482SOL     OW10342  10.425   3.181   4.931
69482SOL    HW110343  10.475   3.176   4.850
69482SOL    HW210344  10.485   3.148   4.998
69483SOL     OW10345  13.949  10.342   7.830
69483SOL    HW110346  13.951  10.361   7.736
69483SOL    HW210347  14.034  10.374   7.862
69484SOL     OW10348   7.500   0.322   7.941
69484SOL    HW110349   7.482   0.390   7.875
69484SOL    HW210350   7.438   0.252   7.920
69485SOL     OW10351  13.230  13.661  10.205
69485SOL    HW110352  13.159  13.704  10.252
69485SOL    HW210353  13.232  13.572  10.240
69486SOL     OW10354   4.900   6.783  10.764
69486SOL    HW110355   4.899   6.877  10.748
69486SOL    HW210356   4.835   6.748  10.704
69487SOL     OW10357   0.989   7.803   8.248
69487SOL    HW110358   0.974   7.715   8.281
69487SOL    HW210359   1.073   7.830   8.286
69488SOL     OW10360  14.626  13.394   0.874
69488SOL    HW110361  14.620  13.310   0.828
69488SOL    HW210362  14.547  13.441   0.848
69489SOL     OW10363  10.371   5.387   5.743
69489SOL    HW110364  10.280   5.370   5.720
69489SOL    HW210365  10.370   5.403   5.837
69490SOL     OW10366   5.219   9.526   7.526
69490SOL    HW110367   5.299   9.578   7.536
69490SOL    HW210368   5.231   9.479   7.444
69491SOL     OW10369  14.339   7.410  10.545
69491SOL    HW110370  14.268   7.472  10.564
69491SOL    HW210371  14.370   7.436  10.458
69492SOL     OW10372   3.296   5.428   2.786
69492SOL    HW110373   3.385   5.404   2.763
69492SOL    HW210374   3.271   5.365   2.855
69493SOL     OW10375   9.664   2.690  10.558
69493SOL    HW110376   9.702   2.616  10.605
69493SOL    HW210377   9.648   2.656  10.470
69494SOL     OW10378   5.345   1.111   6.180
69494SOL    HW110379   5.436   1.136   6.193
69494SOL    HW210380   5.308   1.180   6.126
69495SOL     OW10381   9.736   7.911   4.213
69495SOL    HW110382   9.657   7.881   4.168
69495SOL    HW210383   9.724   7.883   4.304
69496SOL     OW10384   1.483  12.047  10.395
69496SOL    HW110385   1.435  12.100  10.458
69496SOL    HW210386   1.435  12.057  10.313
69497SOL     OW10387   7.075   0.714  12.915
69497SOL    HW110388   7.159   0.741  12.953
69497SOL    HW210389   7.061   0.626  12.950
69498SOL     OW10390  12.621   3.773  14.751
69498SOL    HW110391  12.620   3.819  14.667
69498SOL    HW210392  12.709   3.735  14.756
69499SOL     OW10393  14.060   5.049   8.525
69499SOL    HW110394  14.143   5.003   8.528
69499SOL    HW210395  13.998   4.990   8.569
69500SOL     OW10396   7.838   1.628   3.068
69500SOL    HW110397   7.852   1.657   2.978
69500SOL    HW210398   7.744   1.613   3.073
69501SOL     OW10399   7.359  13.040  14.628
69501SOL    HW110400   7.336  12.951  14.601
69501SOL    HW210401   7.373  13.034  14.722
69502SOL     OW10402  10.252   4.577   5.919
69502SOL    HW110403  10.219   4.541   5.837
69502SOL    HW210404  10.268   4.501   5.975
69503SOL     OW10405   3.683   9.231  13.491
69503SOL    HW110406   3.716   9.142  13.490
69503SOL    HW210407   3.761   9.286  13.500
69504SOL     OW10408  13.155   8.094   4.545
69504SOL    HW110409  13.120   8.006   4.558
69504SOL    HW210410  13.080   8.152   4.560
69505SOL     OW10411  10.958   5.962   1.772
69505SOL    HW110412  10.902   6.039   1.770
69505SOL    HW210413  11.042   5.992   1.736
69506SOL     OW10414  13.872   0.253   9.493
69506SOL    HW110415  13.895   0.249   9.586
69506SOL    HW210416  13.953   0.275   9.449
69507SOL     OW10417   9.468   3.529   0.400
69507SOL    HW110418   9.409   3.549   0.327
69507SOL    HW210419   9.555   3.544   0.364
69508SOL     OW10420  13.186   2.273  11.763
69508SOL    HW110421  13.174   2.181  11.787
69508SOL    HW210422  13.280   2.285  11.759
69509SOL     OW10423  10.251   5.307   8.546
69509SOL    HW110424  10.329   5.353   8.515
69509SOL    HW210425  10.185   5.376   8.555
69510SOL     OW10426  10.687  14.706  14.605
69510SOL    HW110427  10.774  14.746  14.617
69510SOL    HW210428  10.641  14.767  14.547
69511SOL     OW10429   1.458   8.811   2.478
69511SOL    HW110430   1.424   8.894   2.443
69511SOL    HW210431   1.398   8.789   2.549
69512SOL     OW10432  13.116   8.370  13.297
69512SOL    HW110433  13.093   8.293  13.348
69512SOL    HW210434  13.180   8.416  13.351
69513SOL     OW10435   5.682   8.470   7.477
69513SOL    HW110436   5.733   8.438   7.403
69513SOL    HW210437   5.731   8.441   7.554
69514SOL     OW10438   5.355  11.115   9.408
69514SOL    HW110439   5.416  11.073   9.347
69514SOL    HW210440   5.390  11.203   9.419
69515SOL     OW10441  13.953   7.796   2.107
69515SOL    HW110442  13.894   7.848   2.052
69515SOL    HW210443  13.933   7.705   2.084
69516SOL     OW10444   0.270   8.747   8.610
69516SOL    HW110445   0.362   8.721   8.614
69516SOL    HW210446   0.222   8.669   8.637
69517SOL     OW10447   9.482   2.328   0.055
69517SOL    HW110448   9.388   2.342   0.039
69517SOL    HW210449   9.485   2.276   0.135
69518SOL     OW10450   9.132  14.303   8.532
69518SOL    HW110451   9.073  14.363   8.487
69518SOL    HW210452   9.124  14.325   8.624
69519SOL     OW10453  14.654   7.284   6.526
69519SOL    HW110454  14.673   7.372   6.558
69519SOL    HW210455  14.673   7.288   6.433
69520SOL     OW10456  14.423   5.683   5.384
69520SOL    HW110457  14.337   5.645   5.366
69520SOL    HW210458  14.471   5.613   5.428
69521SOL     OW10459  12.143   0.036   1.844
69521SOL    HW110460  12.192   0.117   1.853
69521SOL    HW210461  12.175  14.865   1.763
69522SOL     OW10462   0.265   4.906   3.374
69522SOL    HW110463   0.238   4.853   3.450
69522SOL    HW210464   0.256   4.846   3.300
69523SOL     OW10465   2.886   6.962   5.156
69523SOL    HW110466   2.973   6.953   5.195
69523SOL    HW210467   2.825   6.950   5.229
69524SOL     OW10468  10.699  14.312  10.044
69524SOL    HW110469  10.684  14.294   9.952
69524SOL    HW210470  10.630  14.373  10.068
69525SOL     OW10471   6.435   5.505   7.682
69525SOL    HW110472   6.466   5.420   7.713
69525SOL    HW210473   6.340   5.495   7.675
69526SOL     OW10474   8.629   4.293  11.061
69526SOL    HW110475   8.629   4.365  11.125
69526SOL    HW210476   8.721   4.282  11.038
69527SOL     OW10477  11.873  11.510   3.220
69527SOL    HW110478  11.951  11.483   3.170
69527SOL    HW210479  11.813  11.544   3.154
69528SOL     OW10480  13.669  14.449   5.879
69528SOL    HW110481  13.709  14.485   5.958
69528SOL    HW210482  13.717  14.368   5.862
69529SOL     OW10483   3.539   5.609   2.671
69529SOL    HW110484   3.482   5.613   2.748
69529SOL    HW210485   3.615   5.559   2.702
69530SOL     OW10486  13.477   2.479  10.504
69530SOL    HW110487  13.550   2.425  10.534
69530SOL    HW210488  13.518   2.544  10.446
69531SOL     OW10489   2.017  10.512  10.426
69531SOL    HW110490   1.977  10.438  10.471
69531SOL    HW210491   2.106  10.481  10.404
69532SOL     OW10492   7.631   9.681  14.439
69532SOL    HW110493   7.701   9.744  14.457
69532SOL    HW210494   7.551   9.725  14.465
69533SOL     OW10495  11.984   2.033   0.208
69533SOL    HW110496  11.957   2.115   0.167
69533SOL    HW210497  11.912   1.972   0.192
69534SOL     OW10498   2.454   1.059   1.540
69534SOL    HW110499   2.541   1.022   1.551
69534SOL    HW210500   2.426   1.029   1.453
69535SOL     OW10501  11.833  11.636   6.625
69535SOL    HW110502  11.766  11.691   6.585
69535SOL    HW210503  11.900  11.698   6.655
69536SOL     OW10504   1.129   6.180   8.094
69536SOL    HW110505   1.122   6.226   8.178
69536SOL    HW210506   1.223   6.171   8.079
69537SOL     OW10507   8.777  10.267   6.721
69537SOL    HW110508   8.765  10.274   6.627
69537SOL    HW210509   8.705  10.317   6.759
69538SOL     OW10510   2.876   8.629   0.831
69538SOL    HW110511   2.937   8.695   0.798
69538SOL    HW210512   2.930   8.552   0.849
69539SOL     OW10513   1.894  11.460   1.343
69539SOL    HW110514   1.968  11.443   1.284
69539SOL    HW210515   1.915  11.544   1.383
69540SOL     OW10516   1.677   9.460   5.461
69540SOL    HW110517   1.727   9.514   5.521
69540SOL    HW210518   1.724   9.467   5.378
69541SOL     OW10519  14.015   8.482  13.121
69541SOL    HW110520  13.997   8.552  13.058
69541SOL    HW210521  14.109   8.488  13.138
69542SOL     OW10522  14.636  13.744   0.396
69542SOL    HW110523  14.730  13.729   0.388
69542SOL    HW210524  14.628  13.831   0.435
69543SOL     OW10525  14.168  12.463   1.030
69543SOL    HW110526  14.199  12.509   1.109
69543SOL    HW210527  14.076  12.487   1.023
69544SOL     OW10528   1.797   2.659   2.803
69544SOL    HW110529   1.701   2.667   2.811
69544SOL    HW210530   1.823   2.612   2.882
69545SOL     OW10531   8.831   0.649  14.714
69545SOL    HW110532   8.850   0.565  14.755
69545SOL    HW210533   8.862   0.639  14.624
69546SOL     OW10534   9.215   4.239   5.396
69546SOL    HW110535   9.287   4.222   5.456
69546SOL    HW210536   9.247   4.310   5.340
69547SOL     OW10537  12.340   5.666  11.227
69547SOL    HW110538  12.436   5.675  11.224
69547SOL    HW210539  12.323   5.624  11.311
69548SOL     OW10540   6.734  10.905   0.082
69548SOL    HW110541   6.718  10.996   0.105
69548SOL    HW210542   6.812  10.908   0.026
69549SOL     OW10543   4.992  12.101   5.130
69549SOL    HW110544   4.977  12.036   5.062
69549SOL    HW210545   5.074  12.074   5.172
69550SOL     OW10546  12.975   3.382   7.843
69550SOL    HW110547  12.922   3.402   7.920
69550SOL    HW210548  12.926   3.314   7.797
69551SOL     OW10549  13.026   0.236  10.313
69551SOL    HW110550  13.110   0.269  10.280
69551SOL    HW210551  13.045   0.147  10.340
69552SOL     OW10552   7.462   9.050   4.063
69552SOL    HW110553   7.525   9.112   4.027
69552SOL    HW210554   7.415   9.017   3.987
69553SOL     OW10555   6.799   6.051  10.927
69553SOL    HW110556   6.720   6.041  10.873
69553SOL    HW210557   6.858   5.982  10.897
69554SOL     OW10558   5.031   9.179   0.110
69554SOL    HW110559   5.097   9.234   0.068
69554SOL    HW210560   5.080   9.124   0.171
69555SOL     OW10561  10.768   0.222   4.003
69555SOL    HW110562  10.847   0.195   3.956
69555SOL    HW210563  10.700   0.225   3.935
69556SOL     OW10564   6.079   2.483   0.269
69556SOL    HW110565   6.036   2.568   0.275
69556SOL    HW210566   6.075   2.461   0.176
69557SOL     OW10567  13.100   0.937   1.127
69557SOL    HW110568  13.112   0.875   1.199
69557SOL    HW210569  13.050   1.009   1.166
69558SOL     OW10570   2.900   2.338  11.461
69558SOL    HW110571   2.855   2.329  11.545
69558SOL    HW210572   2.954   2.259  11.454
69559SOL     OW10573   4.109   6.178   4.246
69559SOL    HW110574   4.197   6.176   4.208
69559SOL    HW210575   4.120   6.226   4.328
69560SOL     OW10576   2.637   0.710  14.743
69560SOL    HW110577   2.716   0.718  14.690
69560SOL    HW210578   2.574   0.668  14.685
69561SOL     OW10579   3.489  10.082   9.379
69561SOL    HW110580   3.503  10.160   9.325
69561SOL    HW210581   3.536  10.013   9.332
69562SOL     OW10582  14.691   6.068   0.232
69562SOL    HW110583  14.726   6.104   0.150
69562SOL    HW210584  14.739   6.114   0.300
69563SOL     OW10585  11.454  14.090   0.500
69563SOL    HW110586  11.523  14.102   0.434
69563SOL    HW210587  11.500  14.071   0.581
69564SOL     OW10588   0.534  14.205   8.905
69564SOL    HW110589   0.483  14.273   8.950
69564SOL    HW210590   0.482  14.125   8.916
69565SOL     OW10591   5.463   1.999   8.824
69565SOL    HW110592   5.494   1.924   8.774
69565SOL    HW210593   5.542   2.045   8.850
69566SOL     OW10594   7.563  13.066   3.450
69566SOL    HW110595   7.494  13.019   3.404
69566SOL    HW210596   7.576  13.145   3.398
69567SOL     OW10597  11.366   8.290   2.043
69567SOL    HW110598  11.370   8.214   1.985
69567SOL    HW210599  11.422   8.266   2.117
69568SOL     OW10600   4.393   0.180   5.365
69568SOL    HW110601   4.436   0.212   5.445
69568SOL    HW210602   4.315   0.234   5.357
69569SOL     OW10603   2.166  11.986  14.247
69569SOL    HW110604   2.249  12.029  14.225
69569SOL    HW210605   2.174  11.898  14.211
69570SOL     OW10606   7.291   7.940   8.657
69570SOL    HW110607   7.196   7.947   8.654
69570SOL    HW210608   7.318   8.000   8.726
69571SOL     OW10609  13.245  13.832  10.902
69571SOL    HW110610  13.159  13.822  10.859
69571SOL    HW210611  13.263  13.745  10.938
69572SOL     OW10612   7.852  11.224   8.835
69572SOL    HW110613   7.912  11.263   8.899
69572SOL    HW210614   7.910  11.176   8.775
69573SOL     OW10615   0.243   4.527  10.044
69573SOL    HW110616   0.244   4.539  10.139
69573SOL    HW210617   0.335   4.525  10.019
69574SOL     OW10618   0.057  14.324  10.011
69574SOL    HW110619  14.851  14.289  10.061
69574SOL    HW210620   0.091  14.395  10.065
69575SOL     OW10621   3.686   0.592   0.665
69575SOL    HW110622   3.594   0.583   0.689
69575SOL    HW210623   3.699   0.686   0.656
69576SOL     OW10624  10.155   7.382   4.603
69576SOL    HW110625  10.167   7.324   4.679
69576SOL    HW210626  10.133   7.467   4.641
69577SOL     OW10627   1.259   4.904   8.764
69577SOL    HW110628   1.229   4.973   8.704
69577SOL    HW210629   1.344   4.934   8.795
69578SOL     OW10630   4.048  13.005   3.540
69578SOL    HW110631   4.118  13.050   3.492
69578SOL    HW210632   4.068  13.022   3.632
69579SOL     OW10633   1.541  11.191   3.039
69579SOL    HW110634   1.569  11.143   2.961
69579SOL    HW210635   1.602  11.162   3.108
69580SOL     OW10636   5.931   5.826  13.000
69580SOL    HW110637   6.017   5.867  12.995
69580SOL    HW210638   5.927   5.768  12.924
69581SOL     OW10639  10.109  10.720   0.928
69581SOL    HW110640  10.126  10.795   0.985
69581SOL    HW210641  10.078  10.652   0.987
69582SOL     OW10642  13.801   5.497   7.944
69582SOL    HW110643  13.825   5.405   7.953
69582SOL    HW210644  13.788   5.511   7.851
69583SOL     OW10645   1.406  13.428   2.832
69583SOL    HW110646   1.346  13.355   2.838
69583SOL    HW210647   1.493  13.388   2.835
69584SOL     OW10648   3.476  13.590  14.236
69584SOL    HW110649   3.532  13.666  14.223
69584SOL    HW210650   3.517  13.521  14.184
69585SOL     OW10651  11.850   8.596   6.745
69585SOL    HW110652  11.920   8.658   6.763
69585SOL    HW210653  11.770   8.639   6.774
69586SOL     OW10654  10.472  12.127   8.611
69586SOL    HW110655  10.389  12.139   8.657
69586SOL    HW210656  10.459  12.169   8.526
69587SOL     OW10657  11.173   9.626   5.830
69587SOL    HW110658  11.120   9.553   5.801
69587SOL    HW210659  11.258   9.613   5.786
69588SOL     OW10660   0.319   4.551  12.968
69588SOL    HW110661   0.345   4.482  12.907
69588SOL    HW210662   0.226   4.564  12.952
69589SOL     OW10663   9.973  12.714   6.656
69589SOL    HW110664   9.948  12.633   6.612
69589SOL    HW210665   9.904  12.776   6.632
69590SOL     OW10666   2.643  13.330   3.431
69590SOL    HW110667   2.720  13.279   3.408
69590SOL    HW210668   2.622  13.302   3.520
69591SOL     OW10669   2.276   4.482  12.004
69591SOL    HW110670   2.284   4.387  12.009
69591SOL    HW210671   2.361   4.515  12.034
69592SOL     OW10672  13.648   1.446   6.225
69592SOL    HW110673  13.595   1.368   6.240
69592SOL    HW210674  13.727   1.412   6.181
69593SOL     OW10675   8.169   3.086  12.638
69593SOL    HW110676   8.108   3.070  12.566
69593SOL    HW210677   8.141   3.169  12.676
69594SOL     OW10678  11.496  10.322  12.390
69594SOL    HW110679  11.585  10.350  12.366
69594SOL    HW210680  11.493  10.230  12.367
69595SOL     OW10681   7.485   8.833   1.955
69595SOL    HW110682   7.529   8.757   1.918
69595SOL    HW210683   7.401   8.799   1.987
69596SOL     OW10684  11.816   6.182   9.775
69596SOL    HW110685  11.832   6.093   9.809
69596SOL    HW210686  11.830   6.239   9.851
69597SOL     OW10687   5.765   2.646  10.433
69597SOL    HW110688   5.761   2.678  10.524
69597SOL    HW210689   5.775   2.725  10.381
69598SOL     OW10690   0.507   5.823   4.127
69598SOL    HW110691   0.487   5.749   4.184
69598SOL    HW210692   0.531   5.783   4.043
69599SOL     OW10693  14.781   2.181   8.942
69599SOL    HW110694  14.718   2.245   8.975
69599SOL    HW210695  14.745   2.096   8.969
69600SOL     OW10696   3.018  12.255   3.637
69600SOL    HW110697   3.048  12.170   3.670
69600SOL    HW210698   2.981  12.236   3.551
69601SOL     OW10699   9.687  11.130   9.753
69601SOL    HW110700   9.691  11.034   9.757
69601SOL    HW210701   9.595  11.149   9.734
69602SOL     OW10702   7.931  13.826  14.012
69602SOL    HW110703   7.862  13.835  14.077
69602SOL    HW210704   7.980  13.909  14.018
69603SOL     OW10705   5.176   8.684  14.473
69603SOL    HW110706   5.224   8.648  14.398
69603SOL    HW210707   5.194   8.623  14.545
69604SOL     OW10708   6.842  12.209   1.792
69604SOL    HW110709   6.767  12.257   1.759
69604SOL    HW210710   6.823  12.118   1.773
69605SOL     OW10711   3.614   4.769   3.329
69605SOL    HW110712   3.707   4.779   3.348
69605SOL    HW210713   3.589   4.852   3.288
69606SOL     OW10714  12.659   6.639   4.273
69606SOL    HW110715  12.615   6.555   4.279
69606SOL    HW210716  12.750   6.622   4.299
69607SOL     OW10717   4.567   0.874  14.772
69607SOL    HW110718   4.605   0.913  14.850
69607SOL    HW210719   4.635   0.817  14.737
69608SOL     OW10720  12.988   9.562   1.306
69608SOL    HW110721  13.067   9.542   1.254
69608SOL    HW210722  13.011   9.641   1.354
69609SOL     OW10723   5.589   5.317  13.373
69609SOL    HW110724   5.604   5.250  13.440
69609SOL    HW210725   5.600   5.271  13.290
69610SOL     OW10726   2.887   8.044   3.769
69610SOL    HW110727   2.912   8.136   3.781
69610SOL    HW210728   2.846   8.042   3.682
69611SOL     OW10729  10.124   7.721  14.627
69611SOL    HW110730  10.157   7.716  14.717
69611SOL    HW210731  10.034   7.754  14.636
69612SOL     OW10732   3.500  11.198  13.606
69612SOL    HW110733   3.406  11.215  13.599
69612SOL    HW210734   3.532  11.206  13.516
69613SOL     OW10735   8.954   5.834   0.274
69613SOL    HW110736   9.045   5.864   0.277
69613SOL    HW210737   8.922   5.844   0.363
69614SOL     OW10738  10.797   0.216   2.027
69614SOL    HW110739  10.877   0.254   1.992
69614SOL    HW210740  10.807   0.220   2.122
69615SOL     OW10741   0.357   5.536  13.914
69615SOL    HW110742   0.385   5.628  13.919
69615SOL    HW210743   0.272   5.535  13.958
69616SOL     OW10744   8.647   6.108   0.225
69616SOL    HW110745   8.700   6.052   0.282
69616SOL    HW210746   8.576   6.051   0.195
69617SOL     OW10747   4.242   0.391  12.678
69617SOL    HW110748   4.206   0.313  12.636
69617SOL    HW210749   4.239   0.458  12.611
69618SOL     OW10750  13.586  13.534  13.975
69618SOL    HW110751  13.666  13.586  13.984
69618SOL    HW210752  13.569  13.532  13.881
69619SOL     OW10753   9.206  13.724   3.243
69619SOL    HW110754   9.278  13.711   3.305
69619SOL    HW210755   9.143  13.778   3.290
69620SOL     OW10756   0.100   9.529   5.499
69620SOL    HW110757   0.178   9.583   5.483
69620SOL    HW210758   0.082   9.487   5.415
69621SOL     OW10759  11.797   8.450   9.004
69621SOL    HW110760  11.851   8.481   8.931
69621SOL    HW210761  11.754   8.372   8.969
69622SOL     OW10762   0.629   0.737   2.648
69622SOL    HW110763   0.659   0.667   2.589
69622SOL    HW210764   0.650   0.704   2.736
69623SOL     OW10765  11.402   4.286  12.411
69623SOL    HW110766  11.471   4.351  12.420
69623SOL    HW210767  11.357   4.309  12.329
69624SOL     OW10768   6.505   7.955   7.287
69624SOL    HW110769   6.511   8.000   7.371
69624SOL    HW210770   6.496   7.862   7.311
69625SOL     OW10771  10.344  12.142   6.126
69625SOL    HW110772  10.381  12.134   6.038
69625SOL    HW210773  10.406  12.096   6.182
69626SOL     OW10774  10.388   0.105   0.572
69626SOL    HW110775  10.401   0.013   0.594
69626SOL    HW210776  10.304   0.108   0.526
69627SOL     OW10777  13.614  10.311  10.698
69627SOL    HW110778  13.580  10.368  10.767
69627SOL    HW210779  13.612  10.366  10.619
69628SOL     OW10780  11.167  12.962   9.315
69628SOL    HW110781  11.249  13.011   9.301
69628SOL    HW210782  11.140  12.936   9.227
69629SOL     OW10783   1.337   6.873   4.177
69629SOL    HW110784   1.358   6.922   4.097
69629SOL    HW210785   1.336   6.781   4.149
69630SOL     OW10786  10.419   6.093   3.355
69630SOL    HW110787  10.444   6.082   3.263
69630SOL    HW210788  10.422   6.188   3.369
69631SOL     OW10789   5.368   7.438  10.444
69631SOL    HW110790   5.310   7.504  10.480
69631SOL    HW210791   5.455   7.476  10.450
69632SOL     OW10792   7.243   8.463   8.343
69632SOL    HW110793   7.326   8.445   8.299
69632SOL    HW210794   7.185   8.494   8.274
69633SOL     OW10795   8.394   8.624  11.186
69633SOL    HW110796   8.329   8.573  11.138
69633SOL    HW210797   8.448   8.559  11.231
69634SOL     OW10798   3.895   6.257   5.927
69634SOL    HW110799   3.893   6.291   5.837
69634SOL    HW210800   3.883   6.162   5.916
69635SOL     OW10801   6.559   4.572   9.337
69635SOL    HW110802   6.486   4.630   9.314
69635SOL    HW210803   6.516   4.491   9.367
69636SOL     OW10804   8.572   7.273   1.448
69636SOL    HW110805   8.614   7.286   1.533
69636SOL    HW210806   8.641   7.289   1.384
69637SOL     OW10807  12.621  13.007   3.397
69637SOL    HW110808  12.630  13.051   3.482
69637SOL    HW210809  12.557  13.058   3.349
69638SOL     OW10810   4.286   1.522   4.238
69638SOL    HW110811   4.223   1.590   4.261
69638SOL    HW210812   4.343   1.515   4.314
69639SOL     OW10813   3.145   6.338   3.854
69639SOL    HW110814   3.160   6.265   3.914
69639SOL    HW210815   3.097   6.402   3.907
69640SOL     OW10816   9.299  14.728   6.745
69640SOL    HW110817   9.281  14.648   6.697
69640SOL    HW210818   9.226  14.737   6.807
69641SOL     OW10819   3.542   9.531   9.529
69641SOL    HW110820   3.513   9.619   9.503
69641SOL    HW210821   3.636   9.541   9.546
69642SOL     OW10822   2.720   9.347   6.570
69642SOL    HW110823   2.733   9.291   6.646
69642SOL    HW210824   2.650   9.408   6.596
69643SOL     OW10825   5.869   6.086   2.747
69643SOL    HW110826   5.781   6.122   2.735
69643SOL    HW210827   5.898   6.122   2.831
69644SOL     OW10828  11.995   0.451   5.754
69644SOL    HW110829  11.953   0.529   5.790
69644SOL    HW210830  11.923   0.392   5.732
69645SOL     OW10831   9.129   1.356  10.350
69645SOL    HW110832   9.122   1.275  10.401
69645SOL    HW210833   9.072   1.418  10.396
69646SOL     OW10834  14.785  13.570   7.628
69646SOL    HW110835  14.707  13.517   7.612
69646SOL    HW210836  14.802  13.614   7.545
69647SOL     OW10837  12.960   7.836   2.907
69647SOL    HW110838  12.983   7.747   2.881
69647SOL    HW210839  12.938   7.880   2.824
69648SOL     OW10840  10.282   1.172  10.125
69648SOL    HW110841  10.218   1.145  10.190
69648SOL    HW210842  10.310   1.259  10.153
69649SOL     OW10843  12.234  12.541  13.109
69649SOL    HW110844  12.302  12.504  13.053
69649SOL    HW210845  12.264  12.524  13.198
69650SOL     OW10846   1.493   4.260  10.190
69650SOL    HW110847   1.467   4.351  10.205
69650SOL    HW210848   1.516   4.257  10.097
69651SOL     OW10849   0.139  14.783   1.789
69651SOL    HW110850   0.056  14.742   1.814
69651SOL    HW210851   0.199  14.760   1.860
69652SOL     OW10852   8.650   3.571   0.831
69652SOL    HW110853   8.659   3.659   0.794
69652SOL    HW210854   8.740   3.540   0.841
69653SOL     OW10855   5.518  11.709  14.136
69653SOL    HW110856   5.452  11.777  14.150
69653SOL    HW210857   5.523  11.663  14.219
69654SOL     OW10858   8.093   9.811   2.960
69654SOL    HW110859   8.087   9.905   2.973
69654SOL    HW210860   8.150   9.800   2.884
69655SOL     OW10861   5.089   3.767   5.538
69655SOL    HW110862   5.003   3.808   5.552
69655SOL    HW210863   5.072   3.697   5.475
69656SOL     OW10864   0.121   7.285  13.409
69656SOL    HW110865   0.180   7.227  13.362
69656SOL    HW210866   0.141   7.270  13.502
69657SOL     OW10867  12.978   9.917   1.983
69657SOL    HW110868  12.918   9.928   1.910
69657SOL    HW210869  13.061   9.955   1.954
69658SOL     OW10870  14.801  10.197   6.331
69658SOL    HW110871  14.858  10.274   6.338
69658SOL    HW210872  14.810  10.153   6.416
69659SOL     OW10873   0.180  12.447  10.320
69659SOL    HW110874   0.125  12.408  10.252
69659SOL    HW210875   0.140  12.417  10.402
69660SOL     OW10876  12.396   0.984   4.527
69660SOL    HW110877  12.478   1.007   4.483
69660SOL    HW210878  12.332   0.973   4.456
69661SOL     OW10879   4.078   5.664  14.445
69661SOL    HW110880   4.169   5.640  14.458
69661SOL    HW210881   4.077   5.760  14.447
69662SOL     OW10882   6.704   9.812  12.145
69662SOL    HW110883   6.772   9.879  12.146
69662SOL    HW210884   6.712   9.768  12.230
69663SOL     OW10885   6.056   9.409   5.787
69663SOL    HW110886   6.069   9.354   5.710
69663SOL    HW210887   6.138   9.458   5.795
69664SOL     OW10888   1.755   3.753  13.759
69664SOL    HW110889   1.669   3.734  13.798
69664SOL    HW210890   1.818   3.733  13.829
69665SOL     OW10891   1.768   9.838   2.190
69665SOL    HW110892   1.770   9.804   2.100
69665SOL    HW210893   1.696   9.900   2.190
69666SOL     OW10894   3.841   5.699   1.799
69666SOL    HW110895   3.751   5.708   1.832
69666SOL    HW210896   3.831   5.659   1.713
69667SOL     OW10897   2.311   6.151  14.806
69667SOL    HW110898   2.338   6.066  14.840
69667SOL    HW210899   2.320   6.210   0.012
69668SOL     OW10900   2.848   6.978   3.902
69668SOL    HW110901   2.768   6.975   3.850
69668SOL    HW210902   2.903   7.042   3.857
69669SOL     OW10903   4.344   4.392   9.454
69669SOL    HW110904   4.298   4.320   9.411
69669SOL    HW210905   4.428   4.354   9.480
69670SOL     OW10906   3.937   0.521  12.355
69670SOL    HW110907   4.009   0.529  12.419
69670SOL    HW210908   3.923   0.611  12.324
69671SOL     OW10909   7.260   9.377   3.632
69671SOL    HW110910   7.278   9.427   3.712
69671SOL    HW210911   7.344   9.374   3.587
69672SOL     OW10912   8.903  10.079  14.641
69672SOL    HW110913   8.855  10.035  14.711
69672SOL    HW210914   8.940  10.008  14.589
69673SOL     OW10915   8.702   2.798   2.522
69673SOL    HW110916   8.748   2.722   2.558
69673SOL    HW210917   8.668   2.844   2.599
69674SOL     OW10918  13.056   0.945  12.003
69674SOL    HW110919  13.090   0.867  12.046
69674SOL    HW210920  13.064   1.015  12.068
69675SOL     OW10921   8.778   6.293   0.885
69675SOL    HW110922   8.714   6.364   0.882
69675SOL    HW210923   8.863   6.338   0.886
69676SOL     OW10924  14.693   7.930   9.002
69676SOL    HW110925  14.662   7.854   9.051
69676SOL    HW210926  14.775   7.900   8.962
69677SOL     OW10927   9.270   7.003   8.851
69677SOL    HW110928   9.304   7.011   8.762
69677SOL    HW210929   9.175   6.997   8.841
69678SOL     OW10930  12.074   5.678   1.785
69678SOL    HW110931  12.105   5.627   1.860
69678SOL    HW210932  11.984   5.648   1.772
69679SOL     OW10933   7.319   0.594   9.278
69679SOL    HW110934   7.299   0.588   9.185
69679SOL    HW210935   7.314   0.687   9.298
69680SOL     OW10936  13.927  11.153  13.820
69680SOL    HW110937  13.963  11.228  13.868
69680SOL    HW210938  13.896  11.190  13.737
69681SOL     OW10939   1.017   5.691  12.744
69681SOL    HW110940   1.073   5.734  12.808
69681SOL    HW210941   1.015   5.599  12.771
69682SOL     OW10942   9.134  13.178  10.421
69682SOL    HW110943   9.094  13.115  10.480
69682SOL    HW210944   9.149  13.129  10.340
69683SOL     OW10945   6.945   4.126   8.087
69683SOL    HW110946   6.971   4.197   8.029
69683SOL    HW210947   7.025   4.100   8.132
69684SOL     OW10948   8.105  14.762  14.681
69684SOL    HW110949   8.161  14.839  14.675
69684SOL    HW210950   8.035  14.788  14.741
69685SOL     OW10951   3.348  10.041  13.717
69685SOL    HW110952   3.360  10.102  13.644
69685SOL    HW210953   3.437  10.027  13.750
69686SOL     OW10954   4.885   3.645   8.240
69686SOL    HW110955   4.948   3.630   8.170
69686SOL    HW210956   4.830   3.567   8.241
69687SOL     OW10957   1.598   5.722  10.364
69687SOL    HW110958   1.688   5.734  10.335
69687SOL    HW210959   1.546   5.734  10.284
69688SOL     OW10960   8.103   1.279   5.754
69688SOL    HW110961   8.190   1.245   5.775
69688SOL    HW210962   8.056   1.276   5.838
69689SOL     OW10963   8.687   9.598   4.723
69689SOL    HW110964   8.652   9.581   4.810
69689SOL    HW210965   8.612   9.628   4.672
69690SOL     OW10966   5.776   6.943   0.557
69690SOL    HW110967   5.758   6.992   0.476
69690SOL    HW210968   5.798   7.010   0.621
69691SOL     OW10969   9.444  10.271   1.691
69691SOL    HW110970   9.448  10.302   1.600
69691SOL    HW210971   9.510  10.322   1.737
69692SOL     OW10972   4.313  14.774   8.215
69692SOL    HW110973   4.388  14.825   8.184
69692SOL    HW210974   4.299  14.805   8.305
69693SOL     OW10975   9.720   7.121   8.863
69693SOL    HW110976   9.665   7.098   8.788
69693SOL    HW210977   9.747   7.036   8.899
69694SOL     OW10978  11.457  14.142   3.799
69694SOL    HW110979  11.382  14.114   3.747
69694SOL    HW210980  11.433  14.229   3.831
69695SOL     OW10981  10.731   2.819   9.778
69695SOL    HW110982  10.680   2.847   9.853
69695SOL    HW210983  10.727   2.724   9.779
69696SOL     OW10984  10.843   1.353   4.563
69696SOL    HW110985  10.809   1.267   4.538
69696SOL    HW210986  10.938   1.343   4.557
69697SOL     OW10987   8.962   4.529  14.613
69697SOL    HW110988   8.903   4.574  14.674
69697SOL    HW210989   8.967   4.587  14.537
69698SOL     OW10990  10.105  12.923   2.606
69698SOL    HW110991  10.192  12.965   2.604
69698SOL    HW210992  10.086  12.911   2.699
69699SOL     OW10993   2.500  10.388   3.120
69699SOL    HW110994   2.481  10.321   3.054
69699SOL    HW210995   2.460  10.355   3.200
69700SOL     OW10996   6.824   4.351   9.535
69700SOL    HW110997   6.766   4.307   9.474
69700SOL    HW210998   6.784   4.436   9.550
69701SOL     OW10999   5.703   5.908   1.690
69701SOL    HW111000   5.778   5.947   1.645
69701SOL    HW211001   5.663   5.851   1.625
69702SOL     OW11002  12.722   5.580   1.030
69702SOL    HW111003  12.727   5.533   0.947
69702SOL    HW211004  12.812   5.606   1.049
69703SOL     OW11005   9.503  14.565   2.060
69703SOL    HW111006   9.493  14.654   2.025
69703SOL    HW211007   9.572  14.573   2.125
69704SOL     OW11008   1.946   5.919   1.340
69704SOL    HW111009   1.860   5.895   1.303
69704SOL    HW211010   1.925   5.963   1.422
69705SOL     OW11011   8.981   4.901  12.969
69705SOL    HW111012   8.951   4.953  12.894
69705SOL    HW211013   8.903   4.892  13.024
69706SOL     OW11014  13.366   3.288   6.227
69706SOL    HW111015  13.446   3.246   6.196
69706SOL    HW211016  13.354   3.363   6.169
69707SOL     OW11017   3.064  10.555  11.850
69707SOL    HW111018   3.004  10.505  11.795
69707SOL    HW211019   3.058  10.514  11.936
69708SOL     OW11020  13.779   5.172   0.051
69708SOL    HW111021  13.780   5.166  14.823
69708SOL    HW211022  13.737   5.091   0.079
69709SOL     OW11023   8.358   1.691   8.612
69709SOL    HW111024   8.403   1.675   8.695
69709SOL    HW211025   8.267   1.666   8.628
69710SOL     OW11026   6.237   3.807   6.481
69710SOL    HW111027   6.230   3.738   6.415
69710SOL    HW211028   6.163   3.866   6.462
69711SOL     OW11029   5.954   4.225  12.005
69711SOL    HW111030   5.913   4.144  11.974
69711SOL    HW211031   5.900   4.295  11.968
69712SOL     OW11032  13.743   9.703  10.653
69712SOL    HW111033  13.719   9.710  10.561
69712SOL    HW211034  13.780   9.788  10.675
69713SOL     OW11035   3.550   4.207   0.032
69713SOL    HW111036   3.472   4.227  14.849
69713SOL    HW211037   3.580   4.122  14.866
69714SOL     OW11038   7.149   0.833   4.374
69714SOL    HW111039   7.054   0.847   4.367
69714SOL    HW211040   7.164   0.750   4.328
69715SOL     OW11041  11.254   2.806   4.875
69715SOL    HW111042  11.198   2.732   4.852
69715SOL    HW211043  11.335   2.766   4.907
69716SOL     OW11044  12.280  12.629   8.351
69716SOL    HW111045  12.200  12.681   8.358
69716SOL    HW211046  12.334  12.676   8.289
69717SOL     OW11047   4.115   4.087  14.181
69717SOL    HW111048   4.206   4.070  14.157
69717SOL    HW211049   4.080   4.001  14.204
69718SOL     OW11050   4.070   0.902  13.507
69718SOL    HW111051   3.983   0.865  13.495
69718SOL    HW211052   4.055   0.982  13.558
69719SOL     OW11053  13.959   5.603   2.001
69719SOL    HW111054  13.979   5.691   1.970
69719SOL    HW211055  13.904   5.565   1.932
69720SOL     OW11056  11.874  13.172  14.187
69720SOL    HW111057  11.812  13.149  14.119
69720SOL    HW211058  11.904  13.089  14.223
69721SOL     OW11059   4.264  11.871   6.880
69721SOL    HW111060   4.313  11.907   6.806
69721SOL    HW211061   4.172  11.886   6.858
69722SOL     OW11062   9.968   8.012  12.501
69722SOL    HW111063  10.023   8.052  12.433
69722SOL    HW211064  10.031   7.974  12.562
69723SOL     OW11065   9.834   9.796   2.430
69723SOL    HW111066   9.836   9.720   2.373
69723SOL    HW211067   9.922   9.834   2.423
69724SOL     OW11068   6.475   3.729   5.822
69724SOL    HW111069   6.422   3.713   5.744
69724SOL    HW211070   6.422   3.692   5.894
69725SOL     OW11071   3.801   6.181   1.335
69725SOL    HW111072   3.714   6.169   1.374
69725SOL    HW211073   3.788   6.165   1.241
69726SOL     OW11074  13.664  10.606  14.768
69726SOL    HW111075  13.754  10.615  14.737
69726SOL    HW211076  13.617  10.567  14.694
69727SOL     OW11077   2.898  13.671   9.144
69727SOL    HW111078   2.815  13.625   9.160
69727SOL    HW211079   2.937  13.623   9.071
69728SOL     OW11080  12.592   6.426   7.083
69728SOL    HW111081  12.619   6.338   7.054
69728SOL    HW211082  12.570   6.471   7.002
69729SOL     OW11083   1.001  12.491   5.185
69729SOL    HW111084   0.914  12.467   5.152
69729SOL    HW211085   1.029  12.414   5.234
69730SOL     OW11086   2.832   3.422   4.843
69730SOL    HW111087   2.814   3.338   4.885
69730SOL    HW211088   2.752   3.442   4.794
69731SOL     OW11089   0.926   8.462   6.018
69731SOL    HW111090   0.913   8.369   5.999
69731SOL    HW211091   0.984   8.493   5.949
69732SOL     OW11092  11.658  11.467   1.775
69732SOL    HW111093  11.582  11.464   1.833
69732SOL    HW211094  11.717  11.400   1.809
69733SOL     OW11095  10.453   3.831   4.887
69733SOL    HW111096  10.432   3.740   4.869
69733SOL    HW211097  10.482   3.867   4.802
69734SOL     OW11098  11.704   9.682   9.846
69734SOL    HW111099  11.649   9.610   9.816
69734SOL    HW211100  11.785   9.641   9.875
69735SOL     OW11101  14.085   5.873   5.410
69735SOL    HW111102  14.024   5.803   5.387
69735SOL    HW211103  14.039   5.924   5.476
69736SOL     OW11104  12.546   1.091  13.532
69736SOL    HW111105  12.554   1.119  13.623
69736SOL    HW211106  12.621   1.035  13.517
69737SOL     OW11107   1.604   2.799  12.018
69737SOL    HW111108   1.544   2.874  12.024
69737SOL    HW211109   1.676   2.822  12.076
69738SOL     OW11110  12.105   1.859   1.891
69738SOL    HW111111  12.177   1.823   1.944
69738SOL    HW211112  12.065   1.783   1.850
69739SOL     OW11113  14.549   5.664   7.159
69739SOL    HW111114  14.612   5.679   7.229
69739SOL    HW211115  14.596   5.686   7.078
69740SOL     OW11116  12.650   9.179   3.123
69740SOL    HW111117  12.590   9.222   3.183
69740SOL    HW211118  12.685   9.105   3.172
69741SOL     OW11119   9.805  14.650   6.046
69741SOL    HW111120   9.776  14.726   5.996
69741SOL    HW211121   9.749  14.650   6.124
69742SOL     OW11122  13.700   2.972   6.330
69742SOL    HW111123  13.665   2.948   6.416
69742SOL    HW211124  13.738   3.059   6.343
69743SOL     OW11125   8.366  14.017   2.728
69743SOL    HW111126   8.328  14.079   2.667
69743SOL    HW211127   8.384  14.069   2.807
69744SOL     OW11128  11.247   3.405  11.794
69744SOL    HW111129  11.271   3.488  11.753
69744SOL    HW211130  11.329   3.374  11.833
69745SOL     OW11131   3.458  12.361  11.928
69745SOL    HW111132   3.497  12.391  12.010
69745SOL    HW211133   3.469  12.435  11.868
69746SOL     OW11134   8.858  10.716   0.890
69746SOL    HW111135   8.876  10.646   0.826
69746SOL    HW211136   8.772  10.694   0.926
69747SOL     OW11137   2.471   3.699  10.584
69747SOL    HW111138   2.475   3.643  10.507
69747SOL    HW211139   2.505   3.784  10.554
69748SOL     OW11140   1.534  12.814   3.423
69748SOL    HW111141   1.520  12.788   3.514
69748SOL    HW211142   1.538  12.910   3.426
69749SOL     OW11143   5.153  14.180   1.170
69749SOL    HW111144   5.175  14.269   1.198
69749SOL    HW211145   5.208  14.164   1.094
69750SOL     OW11146   6.893  10.969  10.137
69750SOL    HW111147   6.824  10.919  10.181
69750SOL    HW211148   6.900  10.928  10.050
69751SOL     OW11149  10.622  11.035   0.469
69751SOL    HW111150  10.546  11.084   0.502
69751SOL    HW211151  10.618  11.045   0.374
69752SOL     OW11152  10.682   1.108  10.321
69752SOL    HW111153  10.698   1.081  10.412
69752SOL    HW211154  10.708   1.032  10.269
69753SOL     OW11155   3.786   4.627  10.192
69753SOL    HW111156   3.865   4.639  10.244
69753SOL    HW211157   3.719   4.598  10.254
69754SOL     OW11158   1.165   6.943   8.061
69754SOL    HW111159   1.253   6.972   8.085
69754SOL    HW211160   1.174   6.848   8.048
69755SOL     OW11161  10.302   9.336  10.521
69755SOL    HW111162  10.357   9.316  10.596
69755SOL    HW211163  10.360   9.382  10.460
69756SOL     OW11164  12.916   1.187   3.811
69756SOL    HW111165  12.837   1.196   3.758
69756SOL    HW211166  12.982   1.153   3.751
69757SOL     OW11167   0.002   9.196   1.692
69757SOL    HW111168  14.778   9.216   1.673
69757SOL    HW211169   0.008   9.101   1.687
69758SOL     OW11170   5.086   1.934  14.727
69758SOL    HW111171   5.046   1.971  14.805
69758SOL    HW211172   5.171   1.903  14.756
69759SOL     OW11173   6.446   6.782  11.416
69759SOL    HW111174   6.363   6.752  11.378
69759SOL    HW211175   6.441   6.877  11.411
69760SOL     OW11176   8.464   3.835   0.530
69760SOL    HW111177   8.372   3.857   0.513
69760SOL    HW211178   8.466   3.811   0.622
69761SOL     OW11179  11.439  10.058  14.105
69761SOL    HW111180  11.377  10.086  14.037
69761SOL    HW211181  11.443   9.963  14.097
69762SOL     OW11182  12.132  10.552  10.237
69762SOL    HW111183  12.100  10.491  10.304
69762SOL    HW211184  12.221  10.521  10.218
69763SOL     OW11185   0.893   3.087   3.022
69763SOL    HW111186   0.835   3.143   2.970
69763SOL    HW211187   0.956   3.053   2.959
69764SOL     OW11188   7.468   5.794  14.399
69764SOL    HW111189   7.419   5.813  14.319
69764SOL    HW211190   7.534   5.730  14.371
69765SOL     OW11191   7.161   8.073  12.864
69765SOL    HW111192   7.205   7.990  12.851
69765SOL    HW211193   7.071   8.049  12.888
69766SOL     OW11194   2.686   2.741   0.500
69766SOL    HW111195   2.608   2.686   0.492
69766SOL    HW211196   2.654   2.830   0.481
69767SOL     OW11197   3.215  10.247  13.078
69767SOL    HW111198   3.136  10.296  13.101
69767SOL    HW211199   3.208  10.166  13.129
69768SOL     OW11200   7.113   7.103   7.215
69768SOL    HW111201   7.127   7.017   7.255
69768SOL    HW211202   7.018   7.110   7.205
69769SOL     OW11203   5.085   6.408   1.085
69769SOL    HW111204   5.047   6.490   1.053
69769SOL    HW211205   5.132   6.372   1.009
69770SOL     OW11206   3.554  11.494   5.640
69770SOL    HW111207   3.557  11.430   5.569
69770SOL    HW211208   3.518  11.573   5.601
69771SOL     OW11209  12.587   6.424  12.577
69771SOL    HW111210  12.571   6.435  12.670
69771SOL    HW211211  12.677   6.390  12.572
69772SOL     OW11212   4.539   2.494  10.281
69772SOL    HW111213   4.623   2.448  10.285
69772SOL    HW211214   4.534   2.525  10.191
69773SOL     OW11215  12.948   7.368  11.317
69773SOL    HW111216  12.860   7.359  11.352
69773SOL    HW211217  12.952   7.458  11.285
69774SOL     OW11218  12.595  12.189  14.741
69774SOL    HW111219  12.558  12.255  14.800
69774SOL    HW211220  12.685  12.177  14.771
69775SOL     OW11221   3.211   6.624   9.010
69775SOL    HW111222   3.193   6.715   8.985
69775SOL    HW211223   3.128   6.593   9.046
69776SOL     OW11224  11.003  13.143   7.883
69776SOL    HW111225  11.003  13.236   7.859
69776SOL    HW211226  10.960  13.140   7.969
69777SOL     OW11227   7.770   7.637   5.710
69777SOL    HW111228   7.694   7.695   5.702
69777SOL    HW211229   7.813   7.644   5.625
69778SOL     OW11230   4.481   0.070  10.963
69778SOL    HW111231   4.544   0.142  10.965
69778SOL    HW211232   4.411   0.098  11.023
69779SOL     OW11233  13.978   8.728   3.004
69779SOL    HW111234  14.037   8.676   3.059
69779SOL    HW211235  14.036   8.767   2.938
69780SOL     OW11236   9.236  14.592   1.914
69780SOL    HW111237   9.183  14.531   1.965
69780SOL    HW211238   9.317  14.601   1.963
69781SOL     OW11239   4.294   9.570   6.541
69781SOL    HW111240   4.376   9.575   6.493
69781SOL    HW211241   4.236   9.518   6.485
69782SOL     OW11242   0.775  12.901   9.719
69782SOL    HW111243   0.726  12.982   9.722
69782SOL    HW211244   0.716  12.836   9.757
69783SOL     OW11245  12.670   3.622  10.752
69783SOL    HW111246  12.648   3.684  10.822
69783SOL    HW211247  12.757   3.589  10.776
69784SOL     OW11248   0.931   0.726  12.896
69784SOL    HW111249   0.929   0.789  12.824
69784SOL    HW211250   0.855   0.670  12.881
69785SOL     OW11251   6.689   9.656   4.068
69785SOL    HW111252   6.689   9.561   4.061
69785SOL    HW211253   6.779   9.681   4.050
69786SOL     OW11254   8.855  11.709   1.240
69786SOL    HW111255   8.858  11.616   1.260
69786SOL    HW211256   8.767  11.724   1.205
69787SOL     OW11257   2.321   3.986   6.293
69787SOL    HW111258   2.333   4.069   6.246
69787SOL    HW211259   2.234   3.957   6.268
69788SOL     OW11260   4.770  14.084   3.973
69788SOL    HW111261   4.750  14.000   4.012
69788SOL    HW211262   4.752  14.072   3.880
69789SOL     OW11263   5.211   0.019  12.565
69789SOL    HW111264   5.201  14.792  12.567
69789SOL    HW211265   5.233   0.043  12.655
69790SOL     OW11266  11.622   4.268   0.216
69790SOL    HW111267  11.534   4.305   0.229
69790SOL    HW211268  11.668   4.286   0.298
69791SOL     OW11269   0.868  11.697  13.702
69791SOL    HW111270   0.773  11.701  13.700
69791SOL    HW211271   0.888  11.629  13.767
69792SOL     OW11272   7.909   2.093   2.384
69792SOL    HW111273   7.910   2.096   2.480
69792SOL    HW211274   7.950   2.175   2.357
69793SOL     OW11275   3.636   3.304  12.440
69793SOL    HW111276   3.593   3.389  12.448
69793SOL    HW211277   3.695   3.299  12.516
69794SOL     OW11278   8.065   0.248   3.885
69794SOL    HW111279   8.048   0.174   3.943
69794SOL    HW211280   7.980   0.269   3.847
69795SOL     OW11281   0.669   0.133   6.466
69795SOL    HW111282   0.723   0.108   6.391
69795SOL    HW211283   0.690   0.069   6.533
69796SOL     OW11284  13.594   1.136   2.080
69796SOL    HW111285  13.543   1.191   2.139
69796SOL    HW211286  13.681   1.175   2.080
69797SOL     OW11287  11.953   8.972  10.860
69797SOL    HW111288  11.863   8.939  10.850
69797SOL    HW211289  11.978   8.948  10.949
69798SOL     OW11290  12.338   0.928   5.031
69798SOL    HW111291  12.413   0.985   5.049
69798SOL    HW211292  12.361   0.844   5.070
69799SOL     OW11293   7.836  11.102  11.440
69799SOL    HW111294   7.779  11.075  11.367
69799SOL    HW211295   7.808  11.191  11.459
69800SOL     OW11296   9.709   1.559   2.203
69800SOL    HW111297   9.680   1.469   2.221
69800SOL    HW211298   9.731   1.558   2.109
69801SOL     OW11299  14.843  10.686  14.072
69801SOL    HW111300   0.050  10.740  14.045
69801SOL    HW211301  14.804  10.734  14.145
69802SOL     OW11302   3.012  14.021   0.418
69802SOL    HW111303   3.059  13.957   0.473
69802SOL    HW211304   2.988  14.091   0.479
69803SOL     OW11305  14.157   1.784   7.302
69803SOL    HW111306  14.073   1.779   7.349
69803SOL    HW211307  14.169   1.696   7.267
69804SOL     OW11308   8.207  12.583   3.927
69804SOL    HW111309   8.254  12.662   3.901
69804SOL    HW211310   8.126  12.584   3.877
69805SOL     OW11311   9.171  12.128  14.532
69805SOL    HW111312   9.094  12.073  14.547
69805SOL    HW211313   9.215  12.131  14.617
69806SOL     OW11314  10.871  11.598  12.349
69806SOL    HW111315  10.829  11.681  12.370
69806SOL    HW211316  10.887  11.602  12.255
69807SOL     OW11317   2.891   7.485   9.235
69807SOL    HW111318   2.969   7.515   9.190
69807SOL    HW211319   2.910   7.498   9.328
69808SOL     OW11320  13.500   1.343  13.687
69808SOL    HW111321  13.567   1.411  13.686
69808SOL    HW211322  13.531   1.279  13.750
69809SOL     OW11323  11.440   2.656  11.772
69809SOL    HW111324  11.453   2.562  11.758
69809SOL    HW211325  11.480   2.674  11.857
69810SOL     OW11326   4.212  11.278   1.505
69810SOL    HW111327   4.205  11.219   1.430
69810SOL    HW211328   4.284  11.242   1.557
69811SOL     OW11329   4.085  10.522   1.519
69811SOL    HW111330   4.126  10.549   1.601
69811SOL    HW211331   4.153  10.473   1.472
69812SOL     OW11332  10.876   0.352   9.680
69812SOL    HW111333  10.880   0.448   9.685
69812SOL    HW211334  10.786   0.330   9.704
69813SOL     OW11335  14.123   0.419   8.017
69813SOL    HW111336  14.153   0.502   8.052
69813SOL    HW211337  14.127   0.431   7.922
69814SOL     OW11338  13.717   0.235  10.087
69814SOL    HW111339  13.723   0.303  10.020
69814SOL    HW211340  13.721   0.282  10.170
69815SOL     OW11341   5.576   2.624   7.608
69815SOL    HW111342   5.515   2.694   7.626
69815SOL    HW211343   5.562   2.602   7.515
69816SOL     OW11344   9.546   2.553  10.316
69816SOL    HW111345   9.488   2.506  10.376
69816SOL    HW211346   9.615   2.489  10.295
69817SOL     OW11347   1.151   3.570   0.270
69817SOL    HW111348   1.075   3.535   0.317
69817SOL    HW211349   1.198   3.492   0.240
69818SOL     OW11350   4.469  14.405  12.036
69818SOL    HW111351   4.469  14.481  11.979
69818SOL    HW211352   4.511  14.435  12.116
69819SOL     OW11353  10.878   9.861   0.967
69819SOL    HW111354  10.836   9.818   1.041
69819SOL    HW211355  10.891   9.951   0.996
69820SOL     OW11356   5.816   2.428   7.527
69820SOL    HW111357   5.741   2.412   7.584
69820SOL    HW211358   5.856   2.508   7.561
69821SOL     OW11359   2.009   4.939  10.649
69821SOL    HW111360   2.073   4.943  10.578
69821SOL    HW211361   1.924   4.933  10.604
69822SOL     OW11362  13.566  12.741   2.193
69822SOL    HW111363  13.650  12.704   2.164
69822SOL    HW211364  13.519  12.758   2.111
69823SOL     OW11365  14.250  11.042   9.277
69823SOL    HW111366  14.255  10.956   9.318
69823SOL    HW211367  14.164  11.045   9.236
69824SOL     OW11368   3.910  10.638   2.333
69824SOL    HW111369   3.965  10.681   2.268
69824SOL    HW211370   3.879  10.559   2.290
69825SOL     OW11371   4.096   3.471  10.067
69825SOL    HW111372   4.055   3.388  10.092
69825SOL    HW211373   4.190   3.452  10.067
69826SOL     OW11374   4.696   8.975  14.051
69826SOL    HW111375   4.749   9.018  14.117
69826SOL    HW211376   4.696   8.882  14.076
69827SOL     OW11377  13.055  10.677   9.181
69827SOL    HW111378  13.126  10.723   9.226
69827SOL    HW211379  13.098  10.619   9.119
69828SOL     OW11380   8.600   0.783   5.917
69828SOL    HW111381   8.640   0.752   5.836
69828SOL    HW211382   8.671   0.826   5.964
69829SOL     OW11383  11.171   0.541   2.449
69829SOL    HW111384  11.121   0.564   2.371
69829SOL    HW211385  11.242   0.605   2.452
69830SOL     OW11386  12.404   6.146  14.848
69830SOL    HW111387  12.325   6.094  14.831
69830SOL    HW211388  12.421   6.191  14.765
69831SOL     OW11389   3.642  11.815   9.016
69831SOL    HW111390   3.703  11.746   8.991
69831SOL    HW211391   3.620  11.859   8.934
69832SOL     OW11392   9.347   9.866  12.638
69832SOL    HW111393   9.433   9.868  12.679
69832SOL    HW211394   9.348   9.787  12.584
69833SOL     OW11395   4.699   9.824   1.515
69833SOL    HW111396   4.748   9.885   1.570
69833SOL    HW211397   4.752   9.745   1.513
69834SOL     OW11398   7.362   4.083   4.278
69834SOL    HW111399   7.417   4.135   4.219
69834SOL    HW211400   7.423   4.021   4.318
69835SOL     OW11401   2.487   9.290   3.465
69835SOL    HW111402   2.534   9.244   3.395
69835SOL    HW211403   2.424   9.226   3.498
69836SOL     OW11404  10.774   6.072  14.323
69836SOL    HW111405  10.694   6.073  14.270
69836SOL    HW211406  10.814   5.987  14.304
69837SOL     OW11407  12.433   7.225   8.372
69837SOL    HW111408  12.397   7.170   8.302
69837SOL    HW211409  12.357   7.246   8.426
69838SOL     OW11410   0.980   2.653   3.822
69838SOL    HW111411   0.993   2.668   3.916
69838SOL    HW211412   0.968   2.740   3.785
69839SOL     OW11413  10.080  12.084  13.077
69839SOL    HW111414   9.990  12.101  13.107
69839SOL    HW211415  10.098  11.995  13.105
69840SOL     OW11416   9.089   4.658  13.860
69840SOL    HW111417   9.180   4.687  13.858
69840SOL    HW211418   9.082   4.603  13.938
69841SOL     OW11419  10.402   5.120  11.608
69841SOL    HW111420  10.486   5.164  11.598
69841SOL    HW211421  10.416   5.058  11.680
69842SOL     OW11422  12.168  13.623   1.884
69842SOL    HW111423  12.209  13.707   1.906
69842SOL    HW211424  12.075  13.644   1.874
69843SOL     OW11425   2.350  12.345   7.688
69843SOL    HW111426   2.405  12.276   7.727
69843SOL    HW211427   2.267  12.301   7.668
69844SOL     OW11428   5.803  11.316   0.245
69844SOL    HW111429   5.723  11.348   0.203
69844SOL    HW211430   5.856  11.395   0.258
69845SOL     OW11431   2.749   7.109   3.015
69845SOL    HW111432   2.770   7.151   3.098
69845SOL    HW211433   2.785   7.021   3.022
69846SOL     OW11434   5.180   6.083   1.823
69846SOL    HW111435   5.244   6.017   1.851
69846SOL    HW211436   5.185   6.151   1.889
69847SOL     OW11437   5.970  10.342   2.460
69847SOL    HW111438   6.017  10.273   2.506
69847SOL    HW211439   6.019  10.422   2.481
69848SOL     OW11440   0.435   8.584   8.411
69848SOL    HW111441   0.377   8.657   8.429
69848SOL    HW211442   0.453   8.545   8.497
69849SOL     OW11443   9.788  13.496  14.244
69849SOL    HW111444   9.727  13.422  14.244
69849SOL    HW211445   9.800  13.518  14.152
69850SOL     OW11446   4.554   6.602   4.297
69850SOL    HW111447   4.644   6.606   4.265
69850SOL    HW211448   4.561   6.628   4.389
69851SOL     OW11449  14.045  13.772   1.462
69851SOL    HW111450  14.053  13.802   1.553
69851SOL    HW211451  13.985  13.835   1.422
69852SOL     OW11452   2.129   9.840  11.619
69852SOL    HW111453   2.216   9.811  11.648
69852SOL    HW211454   2.138   9.847  11.524
69853SOL     OW11455   3.906  11.202   7.113
69853SOL    HW111456   3.975  11.264   7.086
69853SOL    HW211457   3.826  11.237   7.076
69854SOL     OW11458   2.159   4.079   2.740
69854SOL    HW111459   2.253   4.068   2.721
69854SOL    HW211460   2.143   4.021   2.815
69855SOL     OW11461  10.373  10.901   0.143
69855SOL    HW111462  10.455  10.854   0.161
69855SOL    HW211463  10.355  10.883   0.050
69856SOL     OW11464   7.377   8.389   8.595
69856SOL    HW111465   7.351   8.434   8.515
69856SOL    HW211466   7.313   8.318   8.605
69857SOL     OW11467  12.505   2.695  13.371
69857SOL    HW111468  12.581   2.752  13.357
69857SOL    HW211469  12.456   2.700  13.289
69858SOL     OW11470   5.861   4.597   2.890
69858SOL    HW111471   5.853   4.603   2.795
69858SOL    HW211472   5.874   4.504   2.907
69859SOL     OW11473  12.659  11.841   6.050
69859SOL    HW111474  12.734  11.884   6.091
69859SOL    HW211475  12.638  11.896   5.974
69860SOL     OW11476  10.553   3.128   3.388
69860SOL    HW111477  10.608   3.051   3.405
69860SOL    HW211478  10.613   3.202   3.389
69861SOL     OW11479  10.858   0.591  12.097
69861SOL    HW111480  10.923   0.542  12.046
69861SOL    HW211481  10.808   0.523  12.143
69862SOL     OW11482   9.753   2.618  12.061
69862SOL    HW111483   9.684   2.555  12.037
69862SOL    HW211484   9.798   2.636  11.979
69863SOL     OW11485   7.376  12.263  10.212
69863SOL    HW111486   7.404  12.351  10.186
69863SOL    HW211487   7.340  12.225  10.132
69864SOL     OW11488   3.684  11.676  14.123
69864SOL    HW111489   3.772  11.672  14.160
69864SOL    HW211490   3.627  11.687  14.198
69865SOL     OW11491   4.426   1.729  11.848
69865SOL    HW111492   4.390   1.807  11.890
69865SOL    HW211493   4.436   1.754  11.756
69866SOL     OW11494  10.749   4.930  10.626
69866SOL    HW111495  10.666   4.936  10.675
69866SOL    HW211496  10.735   4.858  10.565
69867SOL     OW11497   3.084   9.849   3.930
69867SOL    HW111498   3.177   9.834   3.913
69867SOL    HW211499   3.063   9.791   4.003
69868SOL     OW11500   2.061   9.585   8.708
69868SOL    HW111501   2.008   9.646   8.658
69868SOL    HW211502   2.012   9.503   8.707
69869SOL     OW11503   4.097  11.350   6.984
69869SOL    HW111504   4.135  11.430   7.020
69869SOL    HW211505   4.057  11.377   6.901
69870SOL     OW11506   0.562  13.079   7.295
69870SOL    HW111507   0.491  13.035   7.248
69870SOL    HW211508   0.518  13.146   7.347
69871SOL     OW11509  12.651  10.532   7.165
69871SOL    HW111510  12.565  10.500   7.192
69871SOL    HW211511  12.696  10.453   7.134
69872SOL     OW11512  10.650  12.900   8.835
69872SOL    HW111513  10.652  12.994   8.815
69872SOL    HW211514  10.733  12.867   8.800
69873SOL     OW11515  14.144   4.396   4.611
69873SOL    HW111516  14.108   4.481   4.587
69873SOL    HW211517  14.219   4.384   4.552
69874SOL     OW11518   6.299  13.502  14.715
69874SOL    HW111519   6.246  13.431  14.752
69874SOL    HW211520   6.252  13.528  14.636
69875SOL     OW11521   5.527   8.509   2.103
69875SOL    HW111522   5.520   8.605   2.096
69875SOL    HW211523   5.616   8.494   2.135
69876SOL     OW11524   4.932   8.762  14.182
69876SOL    HW111525   4.856   8.742  14.127
69876SOL    HW211526   4.976   8.678  14.193
69877SOL     OW11527   8.574   0.898  10.457
69877SOL    HW111528   8.594   0.804  10.460
69877SOL    HW211529   8.499   0.905  10.398
69878SOL     OW11530  14.008  10.936   5.483
69878SOL    HW111531  14.040  11.025   5.472
69878SOL    HW211532  14.050  10.906   5.564
69879SOL     OW11533  13.815   7.612   4.764
69879SOL    HW111534  13.897   7.584   4.724
69879SOL    HW211535  13.832   7.608   4.858
69880SOL     OW11536   3.100  11.780  11.188
69880SOL    HW111537   3.074  11.831  11.111
69880SOL    HW211538   3.110  11.845  11.257
69881SOL     OW11539   9.233   9.416  13.393
69881SOL    HW111540   9.193   9.501  13.376
69881SOL    HW211541   9.279   9.429  13.476
69882SOL     OW11542   2.145  11.788   8.805
69882SOL    HW111543   2.231  11.795   8.762
69882SOL    HW211544   2.090  11.745   8.740
69883SOL     OW11545   9.667  10.278  12.339
69883SOL    HW111546   9.623  10.363  12.343
69883SOL    HW211547   9.710  10.278  12.254
69884SOL     OW11548   3.100   1.572  10.022
69884SOL    HW111549   3.086   1.662  10.053
69884SOL    HW211550   3.189   1.573   9.986
69885SOL     OW11551   9.667   7.801   1.307
69885SOL    HW111552   9.727   7.857   1.257
69885SOL    HW211553   9.720   7.771   1.382
69886SOL     OW11554   0.244   4.434   5.484
69886SOL    HW111555   0.224   4.408   5.395
69886SOL    HW211556   0.211   4.362   5.538
69887SOL     OW11557   5.545   0.201  14.468
69887SOL    HW111558   5.588   0.187  14.384
69887SOL    HW211559   5.451   0.193  14.449
69888SOL     OW11560   0.163   3.033   1.645
69888SOL    HW111561   0.193   3.009   1.557
69888SOL    HW211562   0.068   3.028   1.641
69889SOL     OW11563   1.089   4.091   8.221
69889SOL    HW111564   0.999   4.092   8.254
69889SOL    HW211565   1.141   4.129   8.292
69890SOL     OW11566   0.643   4.121   8.049
69890SOL    HW111567   0.596   4.110   8.132
69890SOL    HW211568   0.716   4.179   8.070
69891SOL     OW11569   2.450   5.019   0.449
69891SOL    HW111570   2.426   5.094   0.395
69891SOL    HW211571   2.483   5.056   0.530
69892SOL     OW11572   6.876  13.531  13.865
69892SOL    HW111573   6.886  13.501  13.775
69892SOL    HW211574   6.798  13.586  13.865
69893SOL     OW11575   8.417  10.824  14.632
69893SOL    HW111576   8.431  10.912  14.596
69893SOL    HW211577   8.442  10.765  14.561
69894SOL     OW11578  10.182  13.995   3.738
69894SOL    HW111579  10.203  13.986   3.645
69894SOL    HW211580  10.251  13.948   3.784
69895SOL     OW11581  12.246  14.310   7.399
69895SOL    HW111582  12.285  14.230   7.365
69895SOL    HW211583  12.155  14.307   7.369
69896SOL     OW11584   2.821   3.510   7.208
69896SOL    HW111585   2.741   3.458   7.219
69896SOL    HW211586   2.793   3.588   7.159
69897SOL     OW11587  13.588  11.669  13.595
69897SOL    HW111588  13.507  11.702  13.556
69897SOL    HW211589  13.608  11.589  13.546
69898SOL     OW11590   4.034   5.274  11.585
69898SOL    HW111591   4.021   5.244  11.495
69898SOL    HW211592   3.953   5.250  11.630
69899SOL     OW11593   7.990   3.079   2.254
69899SOL    HW111594   7.942   3.158   2.282
69899SOL    HW211595   8.040   3.107   2.178
69900SOL     OW11596   8.838  14.281  10.352
69900SOL    HW111597   8.874  14.197  10.321
69900SOL    HW211598   8.848  14.277  10.447
69901SOL     OW11599  10.858   1.295  11.115
69901SOL    HW111600  10.855   1.220  11.176
69901SOL    HW211601  10.945   1.291  11.076
69902SOL     OW11602   7.111  12.078   7.383
69902SOL    HW111603   7.175  12.102   7.450
69902SOL    HW211604   7.049  12.021   7.429
69903SOL     OW11605   0.971  10.885   8.273
69903SOL    HW111606   0.957  10.813   8.212
69903SOL    HW211607   1.065  10.900   8.272
69904SOL     OW11608  12.638   3.516  14.349
69904SOL    HW111609  12.565   3.458  14.368
69904SOL    HW211610  12.605   3.577  14.284
69905SOL     OW11611  11.500   2.211   3.996
69905SOL    HW111612  11.419   2.187   3.951
69905SOL    HW211613  11.568   2.160   3.953
69906SOL     OW11614   9.607   3.599   3.619
69906SOL    HW111615   9.643   3.517   3.585
69906SOL    HW211616   9.542   3.625   3.554
69907SOL     OW11617   1.317   2.668   3.474
69907SOL    HW111618   1.361   2.711   3.547
69907SOL    HW211619   1.228   2.650   3.506
69908SOL     OW11620   7.089   4.981   7.498
69908SOL    HW111621   7.111   5.066   7.537
69908SOL    HW211622   6.994   4.984   7.487
69909SOL     OW11623   9.476   5.276   2.038
69909SOL    HW111624   9.454   5.197   1.988
69909SOL    HW211625   9.568   5.265   2.061
69910SOL     OW11626   1.336  13.659   2.744
69910SOL    HW111627   1.250  13.660   2.702
69910SOL    HW211628   1.347  13.570   2.775
69911SOL     OW11629   8.588   7.536   9.347
69911SOL    HW111630   8.680   7.541   9.374
69911SOL    HW211631   8.591   7.547   9.252
69912SOL     OW11632   6.984  10.802   2.528
69912SOL    HW111633   6.921  10.761   2.468
69912SOL    HW211634   6.930  10.849   2.591
69913SOL     OW11635   0.550   5.145   7.537
69913SOL    HW111636   0.614   5.101   7.481
69913SOL    HW211637   0.491   5.076   7.566
69914SOL     OW11638   8.903   2.241   1.397
69914SOL    HW111639   8.924   2.159   1.441
69914SOL    HW211640   8.890   2.304   1.468
69915SOL     OW11641   2.699   2.002   1.028
69915SOL    HW111642   2.646   2.082   1.034
69915SOL    HW211643   2.770   2.016   1.091
69916SOL     OW11644  10.645  14.332   4.851
69916SOL    HW111645  10.600  14.298   4.773
69916SOL    HW211646  10.737  14.315   4.834
69917SOL     OW11647   0.260  10.526   2.799
69917SOL    HW111648   0.249  10.553   2.708
69917SOL    HW211649   0.171  10.504   2.828
69918SOL     OW11650  11.950   9.923  10.991
69918SOL    HW111651  11.942  10.015  11.016
69918SOL    HW211652  11.894   9.915  10.913
69919SOL     OW11653  13.831   9.371   4.112
69919SOL    HW111654  13.789   9.321   4.181
69919SOL    HW211655  13.765   9.377   4.043
69920SOL     OW11656   1.700   8.658  12.252
69920SOL    HW111657   1.642   8.612  12.190
69920SOL    HW211658   1.701   8.748  12.220
69921SOL     OW11659   4.552   5.883   6.888
69921SOL    HW111660   4.646   5.877   6.870
69921SOL    HW211661   4.515   5.914   6.805
69922SOL     OW11662   6.278   2.332  11.254
69922SOL    HW111663   6.319   2.329  11.341
69922SOL    HW211664   6.211   2.400  11.261
69923SOL     OW11665   7.222   7.031  10.631
69923SOL    HW111666   7.152   7.017  10.568
69923SOL    HW211667   7.237   7.126  10.631
69924SOL     OW11668  10.834  10.425   9.480
69924SOL    HW111669  10.886  10.379   9.547
69924SOL    HW211670  10.900  10.464   9.422
69925SOL     OW11671   3.150   3.699   7.967
69925SOL    HW111672   3.143   3.793   7.980
69925SOL    HW211673   3.222   3.688   7.905
69926SOL     OW11674  11.228   1.062  14.352
69926SOL    HW111675  11.300   1.121  14.377
69926SOL    HW211676  11.163   1.072  14.422
69927SOL     OW11677   6.497   1.627   9.781
69927SOL    HW111678   6.541   1.712   9.778
69927SOL    HW211679   6.405   1.649   9.796
69928SOL     OW11680   0.521   8.096  14.847
69928SOL    HW111681   0.596   8.155  14.845
69928SOL    HW211682   0.452   8.147   0.022
69929SOL     OW11683  11.913   2.393  11.956
69929SOL    HW111684  11.861   2.472  11.971
69929SOL    HW211685  11.978   2.420  11.892
69930SOL     OW11686   9.539  12.695   5.169
69930SOL    HW111687   9.518  12.745   5.248
69930SOL    HW211688   9.635  12.701   5.163
69931SOL     OW11689   7.353   6.415   6.215
69931SOL    HW111690   7.317   6.503   6.221
69931SOL    HW211691   7.281   6.358   6.241
69932SOL     OW11692   2.994   2.497  13.104
69932SOL    HW111693   2.971   2.490  13.197
69932SOL    HW211694   3.081   2.538  13.104
69933SOL     OW11695   3.219  12.648  11.314
69933SOL    HW111696   3.172  12.656  11.398
69933SOL    HW211697   3.152  12.666  11.248
69934SOL     OW11698   1.223   8.558   2.813
69934SOL    HW111699   1.209   8.598   2.899
69934SOL    HW211700   1.307   8.513   2.821
69935SOL     OW11701  11.637   7.546   1.315
69935SOL    HW111702  11.625   7.452   1.328
69935SOL    HW211703  11.731   7.561   1.324
69936SOL     OW11704   2.403   7.077   4.107
69936SOL    HW111705   2.342   7.106   4.174
69936SOL    HW211706   2.358   7.092   4.024
69937SOL     OW11707  12.392   2.556   5.647
69937SOL    HW111708  12.398   2.491   5.717
69937SOL    HW211709  12.302   2.547   5.614
69938SOL     OW11710  14.538   4.468  11.963
69938SOL    HW111711  14.571   4.405  12.027
69938SOL    HW211712  14.448   4.441  11.946
69939SOL     OW11713   6.034   0.432   5.041
69939SOL    HW111714   6.025   0.527   5.038
69939SOL    HW211715   5.952   0.399   5.006
69940SOL     OW11716   1.340  14.412   0.039
69940SOL    HW111717   1.316  14.321   0.023
69940SOL    HW211718   1.435  14.410   0.049
69941SOL     OW11719   4.086   4.672   9.224
69941SOL    HW111720   4.052   4.615   9.293
69941SOL    HW211721   4.177   4.689   9.250
69942SOL     OW11722   2.560  12.092   1.828
69942SOL    HW111723   2.634  12.031   1.840
69942SOL    HW211724   2.524  12.069   1.743
69943SOL     OW11725  12.739   0.537  12.106
69943SOL    HW111726  12.724   0.604  12.173
69943SOL    HW211727  12.653   0.520  12.069
69944SOL     OW11728   7.132   3.951   6.739
69944SOL    HW111729   7.049   3.983   6.705
69944SOL    HW211730   7.166   3.894   6.670
69945SOL     OW11731  10.226  14.675  11.723
69945SOL    HW111732  10.201  14.676  11.815
69945SOL    HW211733  10.311  14.630  11.721
69946SOL     OW11734  10.583  13.995   5.976
69946SOL    HW111735  10.643  14.059   6.014
69946SOL    HW211736  10.509  13.993   6.036
69947SOL     OW11737  13.677  14.088  11.553
69947SOL    HW111738  13.627  14.007  11.545
69947SOL    HW211739  13.643  14.130  11.632
69948SOL     OW11740  12.491   8.296   5.800
69948SOL    HW111741  12.448   8.300   5.715
69948SOL    HW211742  12.514   8.387   5.820
69949SOL     OW11743  14.293  11.296   7.293
69949SOL    HW111744  14.373  11.296   7.344
69949SOL    HW211745  14.254  11.382   7.309
69950SOL     OW11746   6.831   3.868   3.684
69950SOL    HW111747   6.840   3.902   3.595
69950SOL    HW211748   6.912   3.819   3.699
69951SOL     OW11749  12.547   1.009   9.773
69951SOL    HW111750  12.588   1.096   9.776
69951SOL    HW211751  12.592   0.964   9.701
69952SOL     OW11752  14.664   6.615   5.167
69952SOL    HW111753  14.583   6.608   5.116
69952SOL    HW211754  14.697   6.525   5.172
69953SOL     OW11755  11.801   1.995  11.333
69953SOL    HW111756  11.887   1.979  11.373
69953SOL    HW211757  11.820   2.005  11.240
69954SOL     OW11758   4.602   3.867   4.813
69954SOL    HW111759   4.656   3.946   4.808
69954SOL    HW211760   4.618   3.833   4.901
69955SOL     OW11761   1.092   0.592  12.435
69955SOL    HW111762   1.088   0.592  12.531
69955SOL    HW211763   1.105   0.683  12.412
69956SOL     OW11764   4.565   0.966   2.430
69956SOL    HW111765   4.483   0.956   2.479
69956SOL    HW211766   4.605   1.045   2.465
69957SOL     OW11767   5.275   8.002   5.210
69957SOL    HW111768   5.196   8.023   5.160
69957SOL    HW211769   5.252   8.024   5.301
69958SOL     OW11770   3.960   6.154  10.252
69958SOL    HW111771   3.997   6.229  10.300
69958SOL    HW211772   3.942   6.189  10.165
69959SOL     OW11773   9.974  12.958   6.864
69959SOL    HW111774   9.879  12.961   6.859
69959SOL    HW211775   9.992  12.941   6.957
69960SOL     OW11776  14.506   5.355   7.612
69960SOL    HW111777  14.414   5.328   7.617
69960SOL    HW211778  14.511   5.432   7.669
69961SOL     OW11779   2.042   0.843   8.921
69961SOL    HW111780   2.102   0.805   8.857
69961SOL    HW211781   2.083   0.925   8.947
69962SOL     OW11782   3.038   4.864  14.272
69962SOL    HW111783   2.966   4.925  14.258
69962SOL    HW211784   3.045   4.856  14.367
69963SOL     OW11785   9.088  10.411   9.537
69963SOL    HW111786   9.007  10.455   9.562
69963SOL    HW211787   9.080  10.396   9.443
69964SOL     OW11788   7.483   1.912  13.379
69964SOL    HW111789   7.507   1.948  13.294
69964SOL    HW211790   7.500   1.818  13.370
69965SOL     OW11791  12.532  13.809  12.193
69965SOL    HW111792  12.469  13.858  12.246
69965SOL    HW211793  12.536  13.858  12.110
69966SOL     OW11794   9.589   8.632  14.502
69966SOL    HW111795   9.678   8.663  14.487
69966SOL    HW211796   9.546   8.703  14.550
69967SOL     OW11797   9.736  10.659  11.208
69967SOL    HW111798   9.657  10.665  11.155
69967SOL    HW211799   9.807  10.648  11.145
69968SOL     OW11800  12.998   1.178   2.482
69968SOL    HW111801  12.975   1.253   2.536
69968SOL    HW211802  12.971   1.102   2.534
69969SOL     OW11803   4.696   4.549   0.922
69969SOL    HW111804   4.722   4.547   1.014
69969SOL    HW211805   4.753   4.615   0.883
69970SOL     OW11806   7.946   7.914   4.483
69970SOL    HW111807   8.037   7.894   4.461
69970SOL    HW211808   7.927   7.996   4.437
69971SOL     OW11809  11.052   4.588   2.037
69971SOL    HW111810  11.057   4.565   2.130
69971SOL    HW211811  11.018   4.677   2.036
69972SOL     OW11812   1.978   2.304   7.995
69972SOL    HW111813   1.998   2.393   7.967
69972SOL    HW211814   1.914   2.315   8.065
69973SOL     OW11815  13.732  11.196   2.765
69973SOL    HW111816  13.661  11.166   2.822
69973SOL    HW211817  13.736  11.290   2.780
69974SOL     OW11818   0.580   2.923  10.350
69974SOL    HW111819   0.510   2.921  10.284
69974SOL    HW211820   0.585   2.833  10.382
69975SOL     OW11821  12.976   2.768   7.174
69975SOL    HW111822  12.889   2.807   7.176
69975SOL    HW211823  13.012   2.785   7.261
69976SOL     OW11824   7.216  12.832   4.833
69976SOL    HW111825   7.199  12.877   4.915
69976SOL    HW211826   7.229  12.902   4.769
69977SOL     OW11827   2.064  12.460  10.063
69977SOL    HW111828   2.093  12.432   9.976
69977SOL    HW211829   2.037  12.380  10.107
69978SOL     OW11830   9.587  12.095  13.845
69978SOL    HW111831   9.639  12.032  13.796
69978SOL    HW211832   9.570  12.052  13.929
69979SOL     OW11833   0.167   4.412   0.961
69979SOL    HW111834   0.134   4.356   0.891
69979SOL    HW211835   0.121   4.384   1.040
69980SOL     OW11836  12.980   3.539  10.480
69980SOL    HW111837  12.995   3.536  10.575
69980SOL    HW211838  12.984   3.632  10.459
69981SOL     OW11839   8.569  14.565   6.327
69981SOL    HW111840   8.522  14.483   6.341
69981SOL    HW211841   8.545  14.621   6.401
69982SOL     OW11842  13.752   7.947   2.021
69982SOL    HW111843  13.659   7.935   2.040
69982SOL    HW211844  13.770   8.038   2.042
69983SOL     OW11845   6.860  11.145   1.253
69983SOL    HW111846   6.954  11.162   1.261
69983SOL    HW211847   6.847  11.127   1.159
69984SOL     OW11848  12.326  10.201  13.068
69984SOL    HW111849  12.314  10.179  12.975
69984SOL    HW211850  12.291  10.290  13.075
69985SOL     OW11851   6.480   8.390   1.790
69985SOL    HW111852   6.556   8.340   1.759
69985SOL    HW211853   6.420   8.324   1.824
69986SOL     OW11854   0.834   6.642  11.707
69986SOL    HW111855   0.921   6.680  11.702
69986SOL    HW211856   0.808   6.650  11.798
69987SOL     OW11857   1.104   9.315   6.091
69987SOL    HW111858   1.141   9.372   6.024
69987SOL    HW211859   1.009   9.324   6.080
69988SOL     OW11860   7.182   7.448   2.514
69988SOL    HW111861   7.172   7.537   2.548
69988SOL    HW211862   7.268   7.447   2.471
69989SOL     OW11863  10.318   8.756   2.687
69989SOL    HW111864  10.255   8.777   2.757
69989SOL    HW211865  10.350   8.669   2.710
69990SOL     OW11866   6.623   3.773  13.867
69990SOL    HW111867   6.625   3.773  13.771
69990SOL    HW211868   6.714   3.787  13.893
69991SOL     OW11869   2.893   8.210  10.387
69991SOL    HW111870   2.986   8.214  10.410
69991SOL    HW211871   2.848   8.259  10.455
69992SOL     OW11872   7.179  11.107   7.267
69992SOL    HW111873   7.252  11.169   7.264
69992SOL    HW211874   7.182  11.072   7.356
69993SOL     OW11875   1.633  13.878   7.483
69993SOL    HW111876   1.618  13.920   7.398
69993SOL    HW211877   1.686  13.801   7.462
69994SOL     OW11878   4.629   3.633  11.837
69994SOL    HW111879   4.662   3.710  11.883
69994SOL    HW211880   4.583   3.668  11.761
69995SOL     OW11881   0.233   1.485   3.785
69995SOL    HW111882   0.200   1.447   3.704
69995SOL    HW211883   0.196   1.573   3.788
69996SOL     OW11884   8.771   0.328  14.216
69996SOL    HW111885   8.848   0.292  14.261
69996SOL    HW211886   8.697   0.304  14.272
69997SOL     OW11887   2.432  10.181   8.860
69997SOL    HW111888   2.504  10.118   8.869
69997SOL    HW211889   2.353  10.128   8.872
69998SOL     OW11890   8.209   6.799  13.575
69998SOL    HW111891   8.156   6.725  13.604
69998SOL    HW211892   8.261   6.823  13.651
69999SOL     OW11893   8.890  10.510   6.351
69999SOL    HW111894   8.982  10.537   6.361
69999SOL    HW211895   8.843  10.590   6.331
70000SOL     OW11896  10.897   0.785  12.629
70000SOL    HW111897  10.894   0.695  12.598
70000SOL    HW211898  10.806   0.809  12.643
70001SOL     OW11899   2.154   9.995   8.354
70001SOL    HW111900   2.079  10.037   8.313
70001SOL    HW211901   2.225  10.059   8.347
70002SOL     OW11902  13.483   9.234   6.797
70002SOL    HW111903  13.458   9.159   6.852
70002SOL    HW211904  13.551   9.279   6.847
70003SOL     OW11905  12.558   1.347  13.418
70003SOL    HW111906  12.569   1.266  13.468
70003SOL    HW211907  12.643   1.390  13.423
70004SOL     OW11908   2.804  14.199   6.181
70004SOL    HW111909   2.810  14.115   6.226
70004SOL    HW211910   2.735  14.187   6.116
70005SOL     OW11911  12.408   6.787   8.430
70005SOL    HW111912  12.367   6.831   8.505
70005SOL    HW211913  12.499   6.814   8.433
70006SOL     OW11914   8.284   5.796   5.770
70006SOL    HW111915   8.342   5.834   5.704
70006SOL    HW211916   8.343   5.752   5.831
70007SOL     OW11917   5.043  11.854  10.275
70007SOL    HW111918   5.050  11.934  10.222
70007SOL    HW211919   5.127  11.809  10.262
70008SOL     OW11920  13.542   8.708   8.281
70008SOL    HW111921  13.605   8.636   8.281
70008SOL    HW211922  13.460   8.669   8.255
70009SOL     OW11923   3.241  13.054  11.716
70009SOL    HW111924   3.250  12.969  11.673
70009SOL    HW211925   3.191  13.107  11.654
70010SOL     OW11926   5.798   3.194   6.513
70010SOL    HW111927   5.707   3.165   6.516
70010SOL    HW211928   5.845   3.131   6.568
70011SOL     OW11929   5.466   8.880   5.941
70011SOL    HW111930   5.558   8.856   5.934
70011SOL    HW211931   5.457   8.915   6.030
70012SOL     OW11932  14.188  11.031  12.595
70012SOL    HW111933  14.132  11.021  12.518
70012SOL    HW211934  14.168  11.118  12.629
70013SOL     OW11935   9.393   3.857   9.236
70013SOL    HW111936   9.472   3.807   9.259
70013SOL    HW211937   9.424   3.947   9.229
70014SOL     OW11938   8.093   3.774   9.747
70014SOL    HW111939   8.073   3.686   9.779
70014SOL    HW211940   8.152   3.761   9.673
70015SOL     OW11941   2.285  13.994   1.514
70015SOL    HW111942   2.334  14.033   1.441
70015SOL    HW211943   2.240  13.919   1.475
70016SOL     OW11944   9.617   5.679  10.451
70016SOL    HW111945   9.616   5.584  10.452
70016SOL    HW211946   9.592   5.702  10.361
70017SOL     OW11947   6.874   0.322   1.442
70017SOL    HW111948   6.967   0.306   1.428
70017SOL    HW211949   6.867   0.338   1.537
70018SOL     OW11950  13.137   7.194  10.884
70018SOL    HW111951  13.134   7.150  10.969
70018SOL    HW211952  13.062   7.158  10.836
70019SOL     OW11953   2.237   3.170  10.264
70019SOL    HW111954   2.243   3.257  10.225
70019SOL    HW211955   2.299   3.117  10.214
70020SOL     OW11956   5.876  14.637   1.487
70020SOL    HW111957   5.957  14.684   1.510
70020SOL    HW211958   5.891  14.606   1.398
70021SOL     OW11959   9.384   6.466   8.318
70021SOL    HW111960   9.347   6.382   8.345
70021SOL    HW211961   9.475   6.464   8.347
70022SOL     OW11962   4.670   7.147   6.410
70022SOL    HW111963   4.756   7.107   6.394
70022SOL    HW211964   4.627   7.087   6.471
70023SOL     OW11965   1.042   0.324   2.405
70023SOL    HW111966   1.060   0.350   2.496
70023SOL    HW211967   1.104   0.253   2.388
70024SOL     OW11968   6.489   3.045  14.749
70024SOL    HW111969   6.529   3.069  14.833
70024SOL    HW211970   6.529   3.104  14.685
70025SOL     OW11971   3.720   4.157  14.544
70025SOL    HW111972   3.805   4.200  14.537
70025SOL    HW211973   3.741   4.063  14.542
70026SOL     OW11974   4.789   6.248   1.161
70026SOL    HW111975   4.771   6.155   1.177
70026SOL    HW211976   4.709   6.293   1.187
70027SOL     OW11977   5.253  11.151   4.104
70027SOL    HW111978   5.174  11.114   4.142
70027SOL    HW211979   5.316  11.155   4.176
70028SOL     OW11980   4.959   4.087   4.231
70028SOL    HW111981   4.966   4.181   4.215
70028SOL    HW211982   4.924   4.051   4.150
70029SOL     OW11983  13.917   9.272  13.911
70029SOL    HW111984  13.952   9.347  13.862
70029SOL    HW211985  13.986   9.249  13.973
70030SOL     OW11986   9.901   4.484  13.837
70030SOL    HW111987   9.893   4.549  13.767
70030SOL    HW211988   9.845   4.518  13.907
70031SOL     OW11989  14.021   0.802  14.494
70031SOL    HW111990  14.065   0.766  14.571
70031SOL    HW211991  13.946   0.849  14.530
70032SOL     OW11992   0.175   7.294   8.018
70032SOL    HW111993   0.253   7.250   8.052
70032SOL    HW211994   0.202   7.385   8.005
70033SOL     OW11995  13.628  12.761  12.583
70033SOL    HW111996  13.587  12.676  12.602
70033SOL    HW211997  13.555  12.820  12.566
70034SOL     OW11998   5.682   1.770   7.682
70034SOL    HW111999   5.760   1.824   7.697
70034SOL    HW212000   5.703   1.719   7.604
70035SOL     OW12001   2.412   5.461   4.243
70035SOL    HW112002   2.318   5.481   4.244
70035SOL    HW212003   2.424   5.408   4.165
70036SOL     OW12004   6.287   4.218   5.340
70036SOL    HW112005   6.231   4.294   5.358
70036SOL    HW212006   6.374   4.254   5.328
70037SOL     OW12007   3.119   4.701   1.988
70037SOL    HW112008   3.066   4.753   1.929
70037SOL    HW212009   3.089   4.611   1.975
70038SOL     OW12010   8.789   6.753   9.782
70038SOL    HW112011   8.758   6.820   9.720
70038SOL    HW212012   8.711   6.702   9.802
70039SOL     OW12013   1.129   9.047   6.229
70039SOL    HW112014   1.152   9.132   6.192
70039SOL    HW212015   1.054   9.018   6.177
70040SOL     OW12016   2.580  11.218   9.431
70040SOL    HW112017   2.536  11.284   9.378
70040SOL    HW212018   2.516  11.193   9.497
70041SOL     OW12019   8.564   3.678  11.642
70041SOL    HW112020   8.491   3.695  11.702
70041SOL    HW212021   8.599   3.765  11.622
70042SOL     OW12022   4.025   0.853   2.367
70042SOL    HW112023   4.013   0.758   2.366
70042SOL    HW212024   4.055   0.875   2.279
70043SOL     OW12025   2.241   1.498   0.280
70043SOL    HW112026   2.243   1.557   0.355
70043SOL    HW212027   2.326   1.508   0.239
70044SOL     OW12028   8.059   9.633  13.206
70044SOL    HW112029   8.099   9.709  13.164
70044SOL    HW212030   8.105   9.557  13.169
70045SOL     OW12031   5.531   5.444   5.413
70045SOL    HW112032   5.620   5.409   5.423
70045SOL    HW212033   5.514   5.439   5.319
70046SOL     OW12034   0.449  14.129  12.047
70046SOL    HW112035   0.446  14.079  11.966
70046SOL    HW212036   0.422  14.067  12.115
70047SOL     OW12037   0.832  14.109   2.405
70047SOL    HW112038   0.901  14.146   2.460
70047SOL    HW212039   0.856  14.016   2.396
70048SOL     OW12040  12.709   6.213   1.050
70048SOL    HW112041  12.691   6.141   1.111
70048SOL    HW212042  12.623   6.255   1.037
70049SOL     OW12043   8.416   0.836  14.021
70049SOL    HW112044   8.324   0.863  14.016
70049SOL    HW212045   8.455   0.868  13.940
70050SOL     OW12046   2.708   6.530   9.219
70050SOL    HW112047   2.649   6.454   9.223
70050SOL    HW212048   2.650   6.605   9.228
70051SOL     OW12049  13.092  13.097  14.806
70051SOL    HW112050  13.011  13.063  14.768
70051SOL    HW212051  13.156  13.028  14.790
70052SOL     OW12052  12.201   4.436   1.918
70052SOL    HW112053  12.131   4.459   1.856
70052SOL    HW212054  12.263   4.385   1.867
70053SOL     OW12055   0.165   9.070   7.220
70053SOL    HW112056   0.219   9.144   7.193
70053SOL    HW212057   0.225   9.012   7.267
70054SOL     OW12058   1.209   5.289  10.247
70054SOL    HW112059   1.136   5.335  10.205
70054SOL    HW212060   1.193   5.197  10.230
70055SOL     OW12061  10.307   9.624  12.430
70055SOL    HW112062  10.338   9.643  12.518
70055SOL    HW212063  10.245   9.551  12.441
70056SOL     OW12064  11.319   2.346   4.573
70056SOL    HW112065  11.342   2.287   4.645
70056SOL    HW212066  11.228   2.325   4.553
70057SOL     OW12067   9.687  14.318   3.412
70057SOL    HW112068   9.663  14.405   3.445
70057SOL    HW212069   9.782  14.317   3.416
70058SOL     OW12070  14.612  10.780   8.760
70058SOL    HW112071  14.637  10.862   8.803
70058SOL    HW212072  14.686  10.721   8.777
70059SOL     OW12073   6.551  12.649   4.990
70059SOL    HW112074   6.639  12.620   4.965
70059SOL    HW212075   6.562  12.683   5.078
70060SOL     OW12076   2.620   6.844   3.173
70060SOL    HW112077   2.567   6.893   3.236
70060SOL    HW212078   2.557   6.795   3.121
70061SOL     OW12079   0.757   3.607   8.700
70061SOL    HW112080   0.809   3.526   8.700
70061SOL    HW212081   0.686   3.590   8.638
70062SOL     OW12082   6.064   0.099  12.470
70062SOL    HW112083   6.101   0.112  12.558
70062SOL    HW212084   6.139   0.110  12.411
70063SOL     OW12085  13.408   9.100  13.248
70063SOL    HW112086  13.451   9.158  13.185
70063SOL    HW212087  13.480   9.067  13.302
70064SOL     OW12088   0.507   2.375   0.926
70064SOL    HW112089   0.430   2.363   0.981
70064SOL    HW212090   0.516   2.292   0.879
70065SOL     OW12091   6.051  14.145   2.889
70065SOL    HW112092   6.100  14.185   2.962
70065SOL    HW212093   6.119  14.103   2.836
70066SOL     OW12094  13.074   9.666  10.076
70066SOL    HW112095  12.979   9.671  10.078
70066SOL    HW212096  13.097   9.683   9.985
70067SOL     OW12097  11.271  13.404  11.778
70067SOL    HW112098  11.285  13.338  11.710
70067SOL    HW212099  11.180  13.392  11.806
70068SOL     OW12100   2.046   5.824   7.149
70068SOL    HW112101   1.999   5.742   7.163
70068SOL    HW212102   2.103   5.807   7.074
70069SOL     OW12103  10.839   8.058   2.387
70069SOL    HW112104  10.779   8.069   2.313
70069SOL    HW212105  10.828   8.137   2.439
70070SOL     OW12106   2.667  11.735   9.036
70070SOL    HW112107   2.590  11.790   9.051
70070SOL    HW212108   2.708  11.728   9.122
70071SOL     OW12109   0.157   6.905   6.318
70071SOL    HW112110   0.200   6.933   6.399
70071SOL    HW212111   0.118   6.821   6.341
70072SOL     OW12112   9.389   0.945  11.154
70072SOL    HW112113   9.452   1.013  11.129
70072SOL    HW212114   9.326   0.943  11.082
70073SOL     OW12115   7.335   6.048  10.146
70073SOL    HW112116   7.368   6.057  10.057
70073SOL    HW212117   7.410   6.068  10.202
70074SOL     OW12118  11.485   6.303   4.856
70074SOL    HW112119  11.401   6.298   4.902
70074SOL    HW212120  11.543   6.245   4.906
70075SOL     OW12121  11.599   6.480   8.989
70075SOL    HW112122  11.522   6.477   9.046
70075SOL    HW212123  11.628   6.389   8.984
70076SOL     OW12124   9.155   1.997   8.196
70076SOL    HW112125   9.141   1.962   8.108
70076SOL    HW212126   9.190   2.085   8.180
70077SOL     OW12127  13.755   2.120   4.399
70077SOL    HW112128  13.802   2.160   4.472
70077SOL    HW212129  13.735   2.032   4.429
70078SOL     OW12130  11.573  13.359   9.353
70078SOL    HW112131  11.619  13.275   9.354
70078SOL    HW212132  11.518  13.358   9.431
70079SOL     OW12133  11.852   6.972  11.440
70079SOL    HW112134  11.913   7.044  11.455
70079SOL    HW212135  11.852   6.960  11.345
70080SOL     OW12136  11.654   0.049   4.533
70080SOL    HW112137  11.645   0.035   4.628
70080SOL    HW212138  11.658   0.144   4.523
70081SOL     OW12139   8.694   4.227   4.505
70081SOL    HW112140   8.768   4.215   4.445
70081SOL    HW212141   8.621   4.252   4.448
70082SOL     OW12142   5.116   6.127   6.019
70082SOL    HW112143   5.049   6.127   6.087
70082SOL    HW212144   5.069   6.145   5.938
70083SOL     OW12145  11.900   2.119  14.434
70083SOL    HW112146  11.994   2.100  14.439
70083SOL    HW212147  11.859   2.033  14.436
70084SOL     OW12148  13.386  12.662   4.275
70084SOL    HW112149  13.390  12.573   4.310
70084SOL    HW212150  13.462  12.669   4.219
70085SOL     OW12151   3.378   4.302   0.982
70085SOL    HW112152   3.313   4.233   0.999
70085SOL    HW212153   3.433   4.304   1.060
70086SOL     OW12154  12.227   2.813   4.468
70086SOL    HW112155  12.260   2.872   4.400
70086SOL    HW212156  12.259   2.849   4.550
70087SOL     OW12157   1.979  14.211   6.305
70087SOL    HW112158   1.983  14.131   6.357
70087SOL    HW212159   2.046  14.268   6.344
70088SOL     OW12160  12.963   9.669  11.080
70088SOL    HW112161  12.904   9.694  11.009
70088SOL    HW212162  12.917   9.599  11.127
70089SOL     OW12163   5.246  10.259   8.313
70089SOL    HW112164   5.215  10.241   8.402
70089SOL    HW212165   5.166  10.261   8.260
70090SOL     OW12166  10.156   7.303   0.072
70090SOL    HW112167  10.082   7.257   0.032
70090SOL    HW212168  10.134   7.395   0.065
70091SOL     OW12169  11.460  13.756   3.079
70091SOL    HW112170  11.386  13.695   3.081
70091SOL    HW212171  11.507  13.735   2.998
70092SOL     OW12172   9.314  13.294   4.142
70092SOL    HW112173   9.371  13.238   4.090
70092SOL    HW212174   9.227  13.283   4.103
70093SOL     OW12175  13.845  11.537  10.442
70093SOL    HW112176  13.857  11.623  10.402
70093SOL    HW212177  13.930  11.518  10.483
70094SOL     OW12178   5.201  10.603   8.249
70094SOL    HW112179   5.221  10.545   8.176
70094SOL    HW212180   5.210  10.548   8.327
70095SOL     OW12181   7.117   8.302   9.514
70095SOL    HW112182   7.123   8.396   9.497
70095SOL    HW212183   7.184   8.286   9.581
70096SOL     OW12184  12.604  13.876  13.464
70096SOL    HW112185  12.656  13.801  13.492
70096SOL    HW212186  12.657  13.952  13.489
70097SOL     OW12187   7.328   9.351   0.002
70097SOL    HW112188   7.416   9.386   0.021
70097SOL    HW212189   7.282   9.354   0.085
70098SOL     OW12190   6.894   3.350  13.148
70098SOL    HW112191   6.854   3.264  13.140
70098SOL    HW212192   6.876   3.377  13.238
70099SOL     OW12193   4.483  10.487   1.478
70099SOL    HW112194   4.549  10.554   1.460
70099SOL    HW212195   4.438  10.519   1.556
70100SOL     OW12196   5.569   5.676   1.541
70100SOL    HW112197   5.535   5.692   1.453
70100SOL    HW212198   5.493   5.649   1.592
70101SOL     OW12199   4.247   1.691  13.225
70101SOL    HW112200   4.322   1.676  13.283
70101SOL    HW212201   4.278   1.664  13.139
70102SOL     OW12202  11.166  10.041  11.975
70102SOL    HW112203  11.146  10.000  12.059
70102SOL    HW212204  11.083  10.077  11.945
70103SOL     OW12205   2.207  12.178   8.613
70103SOL    HW112206   2.136  12.238   8.635
70103SOL    HW212207   2.277  12.200   8.676
70104SOL     OW12208   1.019  10.843   5.224
70104SOL    HW112209   0.970  10.761   5.222
70104SOL    HW212210   1.000  10.881   5.309
70105SOL     OW12211   4.077   1.484   4.897
70105SOL    HW112212   4.025   1.445   4.967
70105SOL    HW212213   4.014   1.504   4.828
70106SOL     OW12214   2.963   2.594  14.569
70106SOL    HW112215   2.924   2.667  14.616
70106SOL    HW212216   2.984   2.629  14.483
70107SOL     OW12217  12.960  10.964  12.571
70107SOL    HW112218  12.946  10.889  12.513
70107SOL    HW212219  12.941  11.040  12.517
70108SOL     OW12220   8.509   5.672  13.637
70108SOL    HW112221   8.596   5.708  13.618
70108SOL    HW212222   8.523   5.577  13.641
70109SOL     OW12223   7.318   2.462   7.140
70109SOL    HW112224   7.326   2.443   7.233
70109SOL    HW212225   7.333   2.556   7.134
70110SOL     OW12226  12.044  14.391   2.715
70110SOL    HW112227  12.094  14.424   2.790
70110SOL    HW212228  12.104  14.399   2.641
70111SOL     OW12229   4.112   9.116   7.430
70111SOL    HW112230   4.037   9.155   7.387
70111SOL    HW212231   4.094   9.022   7.430
70112SOL     OW12232  11.269  11.698  11.133
70112SOL    HW112233  11.283  11.712  11.040
70112SOL    HW212234  11.207  11.625  11.137
70113SOL     OW12235   0.685   5.449  12.418
70113SOL    HW112236   0.674   5.363  12.456
70113SOL    HW212237   0.754   5.437  12.352
70114SOL     OW12238  14.271  10.139   2.559
70114SOL    HW112239  14.350  10.119   2.508
70114SOL    HW212240  14.276  10.080   2.634
70115SOL     OW12241   2.619   4.914   2.883
70115SOL    HW112242   2.539   4.871   2.914
70115SOL    HW212243   2.614   4.910   2.788
70116SOL     OW12244   3.454   8.188   1.298
70116SOL    HW112245   3.510   8.110   1.294
70116SOL    HW212246   3.494   8.250   1.238
70117SOL     OW12247  12.640   4.662  10.203
70117SOL    HW112248  12.569   4.677  10.266
70117SOL    HW212249  12.719   4.659  10.256
70118SOL     OW12250   4.328   8.840  14.526
70118SOL    HW112251   4.408   8.889  14.510
70118SOL    HW212252   4.276   8.852  14.446
70119SOL     OW12253   0.755   3.536   2.373
70119SOL    HW112254   0.761   3.441   2.381
70119SOL    HW212255   0.704   3.562   2.450
70120SOL     OW12256   4.200   9.127   5.099
70120SOL    HW112257   4.273   9.067   5.111
70120SOL    HW212258   4.225   9.206   5.148
70121SOL     OW12259  14.026  13.417  13.376
70121SOL    HW112260  13.994  13.469  13.303
70121SOL    HW212261  13.968  13.440  13.449
70122SOL     OW12262   2.189  13.269   9.857
70122SOL    HW112263   2.270  13.268   9.908
70122SOL    HW212264   2.122  13.297   9.920
70123SOL     OW12265   7.858  14.470   1.352
70123SOL    HW112266   7.910  14.402   1.310
70123SOL    HW212267   7.767  14.443   1.340
70124SOL     OW12268  11.762   3.376   1.055
70124SOL    HW112269  11.854   3.347   1.056
70124SOL    HW212270  11.761   3.449   0.992
70125SOL     OW12271   5.197   4.063  13.135
70125SOL    HW112272   5.278   4.053  13.084
70125SOL    HW212273   5.202   4.151  13.172
70126SOL     OW12274   4.471  11.171  10.669
70126SOL    HW112275   4.400  11.190  10.608
70126SOL    HW212276   4.455  11.082  10.699
70127SOL     OW12277  14.574   2.478  11.332
70127SOL    HW112278  14.596   2.468  11.239
70127SOL    HW212279  14.565   2.573  11.344
70128SOL     OW12280   7.005   6.372   5.858
70128SOL    HW112281   6.962   6.286   5.852
70128SOL    HW212282   7.080   6.357   5.916
70129SOL     OW12283   4.811   3.831   5.222
70129SOL    HW112284   4.734   3.882   5.247
70129SOL    HW212285   4.852   3.881   5.151
70130SOL     OW12286   0.204   3.864  12.302
70130SOL    HW112287   0.256   3.883  12.225
70130SOL    HW212288   0.114   3.856  12.269
70131SOL     OW12289  11.040   6.938   8.255
70131SOL    HW112290  11.109   6.892   8.303
70131SOL    HW212291  11.054   6.913   8.164
70132SOL     OW12292  12.030   8.127   6.864
70132SOL    HW112293  12.085   8.181   6.807
70132SOL    HW212294  11.999   8.056   6.808
70133SOL     OW12295   1.413   4.556  12.484
70133SOL    HW112296   1.448   4.467  12.481
70133SOL    HW212297   1.345   4.558  12.417
70134SOL     OW12298  14.523  12.347   8.599
70134SOL    HW112299  14.512  12.308   8.685
70134SOL    HW212300  14.568  12.280   8.548
70135SOL     OW12301  14.120   9.874   5.132
70135SOL    HW112302  14.064   9.821   5.074
70135SOL    HW212303  14.156   9.941   5.074
70136SOL     OW12304   7.851   6.384   8.233
70136SOL    HW112305   7.931   6.359   8.185
70136SOL    HW212306   7.786   6.320   8.203
70137SOL     OW12307   8.745   6.433   1.500
70137SOL    HW112308   8.792   6.439   1.417
70137SOL    HW212309   8.814   6.424   1.566
70138SOL     OW12310   5.677   5.457   0.936
70138SOL    HW112311   5.655   5.546   0.963
70138SOL    HW212312   5.594   5.410   0.938
70139SOL     OW12313   4.124   9.961   5.660
70139SOL    HW112314   4.195  10.008   5.704
70139SOL    HW212315   4.167   9.913   5.589
70140SOL     OW12316   4.512   0.626  13.451
70140SOL    HW112317   4.418   0.627  13.438
70140SOL    HW212318   4.528   0.549  13.506
70141SOL     OW12319  13.243  11.937   5.134
70141SOL    HW112320  13.242  11.846   5.165
70141SOL    HW212321  13.230  11.930   5.039
70142SOL     OW12322   9.319  14.742  14.798
70142SOL    HW112323   9.294  14.676  14.863
70142SOL    HW212324   9.403  14.711  14.764
70143SOL     OW12325   7.192  12.166  13.701
70143SOL    HW112326   7.221  12.076  13.711
70143SOL    HW212327   7.272  12.216  13.684
70144SOL     OW12328   8.985   6.319  14.699
70144SOL    HW112329   9.062   6.308  14.643
70144SOL    HW212330   9.005   6.396  14.752
70145SOL     OW12331   2.627   7.037   0.453
70145SOL    HW112332   2.639   7.130   0.433
70145SOL    HW212333   2.682   6.991   0.390
70146SOL     OW12334  13.019   4.335   5.684
70146SOL    HW112335  13.016   4.331   5.779
70146SOL    HW212336  13.100   4.290   5.660
70147SOL     OW12337   5.680   6.216  13.302
70147SOL    HW112338   5.680   6.272  13.225
70147SOL    HW212339   5.591   6.224  13.337
70148SOL     OW12340  14.357  13.479  11.427
70148SOL    HW112341  14.315  13.563  11.447
70148SOL    HW212342  14.398  13.493  11.341
70149SOL     OW12343  11.881   1.143   6.703
70149SOL    HW112344  11.834   1.060   6.696
70149SOL    HW212345  11.814   1.211   6.695
70150SOL     OW12346  11.961  14.151   7.325
70150SOL    HW112347  11.880  14.130   7.279
70150SOL    HW212348  11.975  14.077   7.385
70151SOL     OW12349  11.699   8.302  11.235
70151SOL    HW112350  11.639   8.372  11.263
70151SOL    HW212351  11.778   8.316  11.288
70152SOL     OW12352  13.856   8.442   7.174
70152SOL    HW112353  13.835   8.522   7.127
70152SOL    HW212354  13.847   8.373   7.109
70153SOL     OW12355   9.298   3.109   5.248
70153SOL    HW112356   9.349   3.071   5.176
70153SOL    HW212357   9.319   3.055   5.324
70154SOL     OW12358   4.644   9.341  13.685
70154SOL    HW112359   4.598   9.412  13.730
70154SOL    HW212360   4.643   9.268  13.747
70155SOL     OW12361   7.662   2.962   8.063
70155SOL    HW112362   7.699   3.008   8.139
70155SOL    HW212363   7.573   2.994   8.057
70156SOL     OW12364   9.699   3.707   3.319
70156SOL    HW112365   9.607   3.683   3.318
70156SOL    HW212366   9.747   3.625   3.308
70157SOL     OW12367  10.609   1.133   9.808
70157SOL    HW112368  10.586   1.135   9.901
70157SOL    HW212369  10.569   1.212   9.772
70158SOL     OW12370  11.360  13.140  11.172
70158SOL    HW112371  11.421  13.135  11.098
70158SOL    HW212372  11.314  13.056  11.171
70159SOL     OW12373   4.304  10.566  11.598
70159SOL    HW112374   4.373  10.503  11.618
70159SOL    HW212375   4.344  10.652  11.612
70160SOL     OW12376   6.252  13.399  12.662
70160SOL    HW112377   6.336  13.419  12.703
70160SOL    HW212378   6.275  13.364  12.576
70161SOL     OW12379  11.976   6.200  14.129
70161SOL    HW112380  11.893   6.168  14.094
70161SOL    HW212381  12.038   6.128  14.115
70162SOL     OW12382   3.453   7.560  10.071
70162SOL    HW112383   3.420   7.593   9.988
70162SOL    HW212384   3.514   7.628  10.101
70163SOL     OW12385   8.537   0.038   1.168
70163SOL    HW112386   8.632   0.051   1.163
70163SOL    HW212387   8.504   0.069   1.084
70164SOL     OW12388   9.871   1.527   1.994
70164SOL    HW112389   9.903   1.612   1.965
70164SOL    HW212390   9.880   1.470   1.917
70165SOL     OW12391  14.251   7.112   1.547
70165SOL    HW112392  14.340   7.079   1.535
70165SOL    HW212393  14.208   7.095   1.463
70166SOL     OW12394   3.313   9.105   2.784
70166SOL    HW112395   3.328   9.177   2.846
70166SOL    HW212396   3.312   9.147   2.698
70167SOL     OW12397   0.322  10.693   0.845
70167SOL    HW112398   0.254  10.683   0.911
70167SOL    HW212399   0.404  10.682   0.892
70168SOL     OW12400  12.158   0.944   6.157
70168SOL    HW112401  12.071   0.916   6.186
70168SOL    HW212402  12.213   0.936   6.235
70169SOL     OW12403  10.931   1.820   1.423
70169SOL    HW112404  10.836   1.809   1.418
70169SOL    HW212405  10.943   1.892   1.485
70170SOL     OW12406   0.200  12.564   1.112
70170SOL    HW112407   0.252  12.556   1.192
70170SOL    HW212408   0.240  12.636   1.064
70171SOL     OW12409   8.077   7.719   8.524
70171SOL    HW112410   8.083   7.762   8.438
70171SOL    HW212411   8.084   7.791   8.587
70172SOL     OW12412   1.676  11.065  11.344
70172SOL    HW112413   1.611  11.029  11.404
70172SOL    HW212414   1.693  11.153  11.378
70173SOL     OW12415   0.150   1.477  11.948
70173SOL    HW112416   0.084   1.472  11.879
70173SOL    HW212417   0.233   1.471  11.901
70174SOL     OW12418   3.764   6.641   4.988
70174SOL    HW112419   3.811   6.597   5.059
70174SOL    HW212420   3.672   6.614   4.999
70175SOL     OW12421   2.816   1.561  11.734
70175SOL    HW112422   2.801   1.501  11.660
70175SOL    HW212423   2.733   1.609  11.742
70176SOL     OW12424   0.715  10.507   0.045
70176SOL    HW112425   0.642  10.470  14.863
70176SOL    HW212426   0.750  10.576  14.856
70177SOL     OW12427  13.837   4.745   4.573
70177SOL    HW112428  13.831   4.759   4.668
70177SOL    HW212429  13.823   4.832   4.535
70178SOL     OW12430  12.858   2.139   6.110
70178SOL    HW112431  12.893   2.214   6.159
70178SOL    HW212432  12.916   2.131   6.034
70179SOL     OW12433  12.018   3.191  11.270
70179SOL    HW112434  12.023   3.127  11.200
70179SOL    HW212435  12.051   3.272  11.232
70180SOL     OW12436   7.326  13.009   0.767
70180SOL    HW112437   7.378  12.975   0.839
70180SOL    HW212438   7.377  13.081   0.730
70181SOL     OW12439   5.080  10.502  13.063
70181SOL    HW112440   5.092  10.543  12.977
70181SOL    HW212441   4.990  10.521  13.087
70182SOL     OW12442   9.628   0.903  12.268
70182SOL    HW112443   9.553   0.885  12.325
70182SOL    HW212444   9.589   0.932  12.185
70183SOL     OW12445   2.009   4.941  13.459
70183SOL    HW112446   1.913   4.942  13.468
70183SOL    HW212447   2.038   5.024  13.497
70184SOL     OW12448  14.008   5.330   1.097
70184SOL    HW112449  14.078   5.334   1.162
70184SOL    HW212450  14.047   5.285   1.022
70185SOL     OW12451  10.593  14.641  10.907
70185SOL    HW112452  10.513  14.648  10.855
70185SOL    HW212453  10.620  14.550  10.897
70186SOL     OW12454   3.461   2.601   4.426
70186SOL    HW112455   3.366   2.609   4.415
70186SOL    HW212456   3.481   2.655   4.503
70187SOL     OW12457   2.965  14.739  14.438
70187SOL    HW112458   2.901  14.746  14.367
70187SOL    HW212459   3.017  14.819  14.431
70188SOL     OW12460   9.638   3.420  13.101
70188SOL    HW112461   9.689   3.399  13.023
70188SOL    HW212462   9.554   3.449  13.068
70189SOL     OW12463   2.574   4.311   4.984
70189SOL    HW112464   2.488   4.301   4.943
70189SOL    HW212465   2.586   4.232   5.036
70190SOL     OW12466   0.434   5.022   1.672
70190SOL    HW112467   0.485   4.966   1.613
70190SOL    HW212468   0.430   4.974   1.754
70191SOL     OW12469   4.719   4.420  13.109
70191SOL    HW112470   4.783   4.490  13.103
70191SOL    HW212471   4.716   4.381  13.022
70192SOL     OW12472   0.694  14.350   9.774
70192SOL    HW112473   0.684  14.435   9.817
70192SOL    HW212474   0.717  14.371   9.684
70193SOL     OW12475   7.835   2.682   0.648
70193SOL    HW112476   7.777   2.614   0.615
70193SOL    HW212477   7.843   2.744   0.576
70194SOL     OW12478  11.456  11.962  11.376
70194SOL    HW112479  11.529  12.022  11.390
70194SOL    HW212480  11.493  11.892  11.321
70195SOL     OW12481   7.237  14.552   5.973
70195SOL    HW112482   7.235  14.533   6.067
70195SOL    HW212483   7.168  14.617   5.959
70196SOL     OW12484   2.374  10.316  13.768
70196SOL    HW112485   2.463  10.341  13.742
70196SOL    HW212486   2.323  10.397  13.759
70197SOL     OW12487   6.718   4.639   1.563
70197SOL    HW112488   6.667   4.690   1.500
70197SOL    HW212489   6.797   4.614   1.515
70198SOL     OW12490  12.690   7.097   9.307
70198SOL    HW112491  12.641   7.074   9.385
70198SOL    HW212492  12.691   7.016   9.254
70199SOL     OW12493   5.018   9.062  10.521
70199SOL    HW112494   4.926   9.073  10.542
70199SOL    HW212495   5.021   8.980  10.471
70200SOL     OW12496  10.088  14.403  12.590
70200SOL    HW112497  10.023  14.397  12.520
70200SOL    HW212498  10.134  14.485  12.572
70201SOL     OW12499  12.311   4.918   3.161
70201SOL    HW112500  12.299   5.009   3.190
70201SOL    HW212501  12.230   4.897   3.115
70202SOL     OW12502   2.409   5.483   7.484
70202SOL    HW112503   2.391   5.390   7.498
70202SOL    HW212504   2.372   5.527   7.561
70203SOL     OW12505   7.492   7.512   4.318
70203SOL    HW112506   7.505   7.510   4.413
70203SOL    HW212507   7.425   7.579   4.304
70204SOL     OW12508  11.922   8.771  11.647
70204SOL    HW112509  12.012   8.785  11.617
70204SOL    HW212510  11.869   8.828  11.590
70205SOL     OW12511   6.428   7.675  14.519
70205SOL    HW112512   6.462   7.708  14.436
70205SOL    HW212513   6.506   7.644  14.566
70206SOL     OW12514  13.401  10.711  10.968
70206SOL    HW112515  13.346  10.637  10.945
70206SOL    HW212516  13.468  10.714  10.899
70207SOL     OW12517   1.026   3.119  11.293
70207SOL    HW112518   0.987   3.172  11.223
70207SOL    HW212519   0.962   3.124  11.364
70208SOL     OW12520  13.525   6.080   3.975
70208SOL    HW112521  13.558   6.011   3.918
70208SOL    HW212522  13.465   6.130   3.921
70209SOL     OW12523   6.907  10.733   6.623
70209SOL    HW112524   6.855  10.664   6.664
70209SOL    HW212525   6.971  10.758   6.690
70210SOL     OW12526   5.397   5.192   1.957
70210SOL    HW112527   5.370   5.118   1.902
70210SOL    HW212528   5.366   5.170   2.044
70211SOL     OW12529  12.173   7.920   1.656
70211SOL    HW112530  12.169   7.902   1.750
70211SOL    HW212531  12.150   8.013   1.649
70212SOL     OW12532  10.235  11.359   3.386
70212SOL    HW112533  10.231  11.362   3.482
70212SOL    HW212534  10.163  11.416   3.358
70213SOL     OW12535   4.394   5.001   6.921
70213SOL    HW112536   4.351   5.086   6.913
70213SOL    HW212537   4.448   5.008   7.000
70214SOL     OW12538   1.651   6.708   3.398
70214SOL    HW112539   1.588   6.724   3.328
70214SOL    HW212540   1.608   6.739   3.478
70215SOL     OW12541  10.818  13.330   2.397
70215SOL    HW112542  10.909  13.358   2.399
70215SOL    HW212543  10.790  13.332   2.489
70216SOL     OW12544  13.668   8.572   2.560
70216SOL    HW112545  13.730   8.644   2.550
70216SOL    HW212546  13.616   8.574   2.480
70217SOL     OW12547   7.260  12.095  10.617
70217SOL    HW112548   7.249  12.187  10.637
70217SOL    HW212549   7.228  12.049  10.695
70218SOL     OW12550   4.161   8.855   5.384
70218SOL    HW112551   4.194   8.879   5.471
70218SOL    HW212552   4.141   8.762   5.390
70219SOL     OW12553  13.086   1.416  11.079
70219SOL    HW112554  13.123   1.488  11.026
70219SOL    HW212555  13.069   1.347  11.015
70220SOL     OW12556   1.808   5.793  11.022
70220SOL    HW112557   1.855   5.763  11.100
70220SOL    HW212558   1.817   5.721  10.959
70221SOL     OW12559   6.032   9.014   3.108
70221SOL    HW112560   6.116   8.967   3.113
70221SOL    HW212561   5.972   8.952   3.067
70222SOL     OW12562   3.317   4.579   4.674
70222SOL    HW112563   3.241   4.636   4.659
70222SOL    HW212564   3.295   4.497   4.629
70223SOL     OW12565   4.997   8.519   9.457
70223SOL    HW112566   5.025   8.491   9.370
70223SOL    HW212567   4.920   8.573   9.441
70224SOL     OW12568  13.736   2.561  11.588
70224SOL    HW112569  13.809   2.620  11.604
70224SOL    HW212570  13.728   2.510  11.668
70225SOL     OW12571   9.433   0.157   9.862
70225SOL    HW112572   9.428   0.189   9.772
70225SOL    HW212573   9.476   0.072   9.854
70226SOL     OW12574  14.696  11.021   1.630
70226SOL    HW112575  14.622  10.982   1.677
70226SOL    HW212576  14.655  11.070   1.559
70227SOL     OW12577   6.809  13.970   4.890
70227SOL    HW112578   6.777  14.058   4.910
70227SOL    HW212579   6.738  13.929   4.840
70228SOL     OW12580  13.282   0.398  12.650
70228SOL    HW112581  13.247   0.459  12.584
70228SOL    HW212582  13.223   0.408  12.725
70229SOL     OW12583  10.578   8.870   2.666
70229SOL    HW112584  10.600   8.830   2.751
70229SOL    HW212585  10.489   8.841   2.649
70230SOL     OW12586   4.841   3.748   0.271
70230SOL    HW112587   4.870   3.832   0.236
70230SOL    HW212588   4.841   3.760   0.366
70231SOL     OW12589  10.264   7.004   9.220
70231SOL    HW112590  10.242   7.042   9.134
70231SOL    HW212591  10.233   6.914   9.215
70232SOL     OW12592  14.356  11.943  12.170
70232SOL    HW112593  14.278  11.994  12.152
70232SOL    HW212594  14.323  11.855  12.190
70233SOL     OW12595   2.279   3.713  14.546
70233SOL    HW112596   2.357   3.751  14.586
70233SOL    HW212597   2.241   3.659  14.615
70234SOL     OW12598   8.412   6.239   8.895
70234SOL    HW112599   8.400   6.324   8.939
70234SOL    HW212600   8.432   6.262   8.804
70235SOL     OW12601  11.194   5.805  12.429
70235SOL    HW112602  11.159   5.871  12.370
70235SOL    HW212603  11.119   5.749  12.449
70236SOL     OW12604  12.743  10.467   5.782
70236SOL    HW112605  12.690  10.499   5.855
70236SOL    HW212606  12.733  10.534   5.714
70237SOL     OW12607  14.732   6.050   2.606
70237SOL    HW112608  14.743   5.960   2.636
70237SOL    HW212609  14.640   6.055   2.580
70238SOL     OW12610   7.437   1.051   1.752
70238SOL    HW112611   7.434   1.135   1.706
70238SOL    HW212612   7.413   1.072   1.842
70239SOL     OW12613   6.988   1.147  12.024
70239SOL    HW112614   6.926   1.218  12.009
70239SOL    HW212615   6.965   1.080  11.959
70240SOL     OW12616  10.557  11.148   9.272
70240SOL    HW112617  10.576  11.058   9.299
70240SOL    HW212618  10.642  11.185   9.250
70241SOL     OW12619   5.917   9.110  14.725
70241SOL    HW112620   5.830   9.116  14.686
70241SOL    HW212621   5.909   9.044  14.794
70242SOL     OW12622   7.276  12.134   7.578
70242SOL    HW112623   7.317  12.207   7.626
70242SOL    HW212624   7.317  12.056   7.615
70243SOL     OW12625   9.125   7.561   5.787
70243SOL    HW112626   9.050   7.549   5.728
70243SOL    HW212627   9.090   7.546   5.874
70244SOL     OW12628   9.887   3.416   6.821
70244SOL    HW112629   9.798   3.394   6.850
70244SOL    HW212630   9.929   3.332   6.808
70245SOL     OW12631  11.198   7.221   6.038
70245SOL    HW112632  11.258   7.151   6.065
70245SOL    HW212633  11.173   7.198   5.949
70246SOL     OW12634   8.899   5.835   2.607
70246SOL    HW112635   8.979   5.882   2.583
70246SOL    HW212636   8.836   5.904   2.628
70247SOL     OW12637   2.338  11.405  12.011
70247SOL    HW112638   2.349  11.460  11.934
70247SOL    HW212639   2.426  11.397  12.048
70248SOL     OW12640  11.769  13.374   6.107
70248SOL    HW112641  11.681  13.387   6.072
70248SOL    HW212642  11.820  13.341   6.033
70249SOL     OW12643   2.543   0.881  12.929
70249SOL    HW112644   2.618   0.935  12.905
70249SOL    HW212645   2.473   0.910  12.871
70250SOL     OW12646  10.783  12.669   6.277
70250SOL    HW112647  10.765  12.743   6.219
70250SOL    HW212648  10.752  12.593   6.228
70251SOL     OW12649   8.763   4.878  14.239
70251SOL    HW112650   8.699   4.857  14.171
70251SOL    HW212651   8.846   4.844  14.205
70252SOL     OW12652   7.636   4.819  12.974
70252SOL    HW112653   7.609   4.810  12.883
70252SOL    HW212654   7.653   4.913  12.986
70253SOL     OW12655  13.335   9.487   7.539
70253SOL    HW112656  13.280   9.456   7.610
70253SOL    HW212657  13.384   9.409   7.511
70254SOL     OW12658  13.449   8.023   0.140
70254SOL    HW112659  13.514   8.083   0.177
70254SOL    HW212660  13.367   8.072   0.140
70255SOL     OW12661  10.961   4.500   1.412
70255SOL    HW112662  11.021   4.471   1.344
70255SOL    HW212663  10.943   4.422   1.464
70256SOL     OW12664   2.788   0.047  10.083
70256SOL    HW112665   2.775   0.097  10.163
70256SOL    HW212666   2.882   0.032  10.078
70257SOL     OW12667  11.839   8.684   5.005
70257SOL    HW112668  11.926   8.707   5.037
70257SOL    HW212669  11.781   8.752   5.040
70258SOL     OW12670  10.331   7.488   2.072
70258SOL    HW112671  10.419   7.525   2.061
70258SOL    HW212672  10.330   7.411   2.015
70259SOL     OW12673   3.748   5.099   9.762
70259SOL    HW112674   3.731   5.021   9.815
70259SOL    HW212675   3.830   5.080   9.717
70260SOL     OW12676   0.181  11.969   0.676
70260SOL    HW112677   0.218  11.981   0.764
70260SOL    HW212678   0.124  12.045   0.663
70261SOL     OW12679   4.786  13.402   7.831
70261SOL    HW112680   4.723  13.464   7.868
70261SOL    HW212681   4.733  13.343   7.778
70262SOL     OW12682   5.071   8.930  11.523
70262SOL    HW112683   5.142   8.989  11.499
70262SOL    HW212684   5.040   8.963  11.607
70263SOL     OW12685   7.080   0.422  11.052
70263SOL    HW112686   7.153   0.460  11.100
70263SOL    HW212687   7.061   0.486  10.983
70264SOL     OW12688  10.674   8.486   7.665
70264SOL    HW112689  10.747   8.453   7.612
70264SOL    HW212690  10.709   8.491   7.754
70265SOL     OW12691   5.176  13.128   7.094
70265SOL    HW112692   5.206  13.042   7.126
70265SOL    HW212693   5.216  13.136   7.007
70266SOL     OW12694   5.588  12.695  10.642
70266SOL    HW112695   5.494  12.696  10.623
70266SOL    HW212696   5.629  12.664  10.561
70267SOL     OW12697  13.706   6.233   3.324
70267SOL    HW112698  13.696   6.178   3.402
70267SOL    HW212699  13.627   6.218   3.273
70268SOL     OW12700   9.855   6.674   1.006
70268SOL    HW112701   9.863   6.644   0.915
70268SOL    HW212702   9.862   6.769   1.000
70269SOL     OW12703   6.157  12.933  13.222
70269SOL    HW112704   6.097  13.003  13.245
70269SOL    HW212705   6.100  12.859  13.200
70270SOL     OW12706  11.406   4.035   3.060
70270SOL    HW112707  11.397   4.069   3.149
70270SOL    HW212708  11.426   3.943   3.071
70271SOL     OW12709  11.694   2.883   4.788
70271SOL    HW112710  11.788   2.897   4.776
70271SOL    HW212711  11.684   2.787   4.792
70272SOL     OW12712   8.298   7.186  14.064
70272SOL    HW112713   8.278   7.250  13.996
70272SOL    HW212714   8.290   7.235  14.146
70273SOL     OW12715   2.828   0.633  10.206
70273SOL    HW112716   2.752   0.619  10.262
70273SOL    HW212717   2.813   0.577  10.130
70274SOL     OW12718  13.231  11.732   3.211
70274SOL    HW112719  13.269  11.803   3.158
70274SOL    HW212720  13.143  11.762   3.232
70275SOL     OW12721   7.241   6.822   6.436
70275SOL    HW112722   7.306   6.887   6.463
70275SOL    HW212723   7.211   6.783   6.518
70276SOL     OW12724   9.374   5.941  13.855
70276SOL    HW112725   9.462   5.967  13.882
70276SOL    HW212726   9.359   5.857  13.899
70277SOL     OW12727  12.865   9.489  10.248
70277SOL    HW112728  12.789   9.472  10.304
70277SOL    HW212729  12.930   9.528  10.307
70278SOL     OW12730   5.406   3.594   2.915
70278SOL    HW112731   5.476   3.619   2.975
70278SOL    HW212732   5.435   3.513   2.875
70279SOL     OW12733   8.664  13.848  11.551
70279SOL    HW112734   8.643  13.773  11.496
70279SOL    HW212735   8.675  13.811  11.639
70280SOL     OW12736   2.311   4.000  12.863
70280SOL    HW112737   2.398   3.960  12.857
70280SOL    HW212738   2.322   4.087  12.826
70281SOL     OW12739   7.053   1.155   6.897
70281SOL    HW112740   7.127   1.095   6.892
70281SOL    HW212741   7.083   1.234   6.852
70282SOL     OW12742  12.313   1.320   4.813
70282SOL    HW112743  12.219   1.333   4.802
70282SOL    HW212744  12.353   1.383   4.752
70283SOL     OW12745  13.735   9.874   0.658
70283SOL    HW112746  13.651   9.857   0.702
70283SOL    HW212747  13.772   9.949   0.705
70284SOL     OW12748   5.041   6.652   1.290
70284SOL    HW112749   5.101   6.581   1.266
70284SOL    HW212750   5.023   6.638   1.383
70285SOL     OW12751  10.686  13.394   9.742
70285SOL    HW112752  10.612  13.454   9.746
70285SOL    HW212753  10.703  13.381   9.649
70286SOL     OW12754   9.458   7.722  12.082
70286SOL    HW112755   9.411   7.684  12.008
70286SOL    HW212756   9.493   7.646  12.130
70287SOL     OW12757  13.079   8.007   5.113
70287SOL    HW112758  13.143   8.000   5.185
70287SOL    HW212759  13.006   7.952   5.141
70288SOL     OW12760   2.431   8.206   9.504
70288SOL    HW112761   2.491   8.168   9.439
70288SOL    HW212762   2.358   8.143   9.508
70289SOL     OW12763  10.017   6.335  11.988
70289SOL    HW112764  10.059   6.264  11.940
70289SOL    HW212765  10.035   6.413  11.935
70290SOL     OW12766   9.326   2.846   7.936
70290SOL    HW112767   9.315   2.899   8.015
70290SOL    HW212768   9.253   2.785   7.937
70291SOL     OW12769   3.573  10.593   1.286
70291SOL    HW112770   3.545  10.684   1.293
70291SOL    HW212771   3.666  10.595   1.308
70292SOL     OW12772   0.177  11.132  13.567
70292SOL    HW112773   0.149  11.090  13.485
70292SOL    HW212774   0.133  11.217  13.567
70293SOL     OW12775  11.470  13.050   2.515
70293SOL    HW112776  11.556  13.033   2.477
70293SOL    HW212777  11.425  12.966   2.513
70294SOL     OW12778   8.616  10.860  12.392
70294SOL    HW112779   8.664  10.929  12.346
70294SOL    HW212780   8.684  10.810  12.437
70295SOL     OW12781   1.083   5.822   7.740
70295SOL    HW112782   1.134   5.828   7.821
70295SOL    HW212783   0.999   5.864   7.762
70296SOL     OW12784   4.886   9.288   1.740
70296SOL    HW112785   4.894   9.291   1.835
70296SOL    HW212786   4.959   9.233   1.711
70297SOL     OW12787   9.268   3.262   7.031
70297SOL    HW112788   9.183   3.245   7.071
70297SOL    HW212789   9.265   3.215   6.947
70298SOL     OW12790   3.296   1.411   1.944
70298SOL    HW112791   3.269   1.426   1.853
70298SOL    HW212792   3.359   1.339   1.939
70299SOL     OW12793   6.473   2.046   4.880
70299SOL    HW112794   6.535   2.083   4.817
70299SOL    HW212795   6.449   2.120   4.936
70300SOL     OW12796   5.621   5.475  14.738
70300SOL    HW112797   5.532   5.439  14.733
70300SOL    HW212798   5.658   5.458  14.652
70301SOL     OW12799   0.386   5.254   4.312
70301SOL    HW112800   0.292   5.265   4.329
70301SOL    HW212801   0.414   5.184   4.371
70302SOL     OW12802   1.002  10.655   2.320
70302SOL    HW112803   0.950  10.667   2.399
70302SOL    HW212804   0.943  10.676   2.249
70303SOL     OW12805  13.832  14.355  14.841
70303SOL    HW112806  13.778  14.414   0.024
70303SOL    HW212807  13.816  14.269   0.011
70304SOL     OW12808   6.516  10.611  13.790
70304SOL    HW112809   6.564  10.682  13.833
70304SOL    HW212810   6.578  10.577  13.725
70305SOL     OW12811  12.818   7.052   0.195
70305SOL    HW112812  12.822   7.134   0.147
70305SOL    HW212813  12.909   7.022   0.200
70306SOL     OW12814   6.791   2.178   3.852
70306SOL    HW112815   6.797   2.186   3.757
70306SOL    HW212816   6.713   2.228   3.876
70307SOL     OW12817   3.307  11.970   1.420
70307SOL    HW112818   3.328  12.057   1.386
70307SOL    HW212819   3.221  11.950   1.382
70308SOL     OW12820   6.924   2.534   5.346
70308SOL    HW112821   6.932   2.535   5.250
70308SOL    HW212822   6.884   2.449   5.366
70309SOL     OW12823   8.831  14.619   7.504
70309SOL    HW112824   8.919  14.614   7.467
70309SOL    HW212825   8.795  14.701   7.469
70310SOL     OW12826   6.225   0.027  11.398
70310SOL    HW112827   6.253  14.805  11.415
70310SOL    HW212828   6.307   0.074  11.383
70311SOL     OW12829  10.672   4.386  13.033
70311SOL    HW112830  10.728   4.310  13.046
70311SOL    HW212831  10.660   4.424  13.120
70312SOL     OW12832  13.507   0.321   4.729
70312SOL    HW112833  13.492   0.251   4.665
70312SOL    HW212834  13.589   0.297   4.772
70313SOL     OW12835   6.280   9.943   2.546
70313SOL    HW112836   6.329   9.984   2.617
70313SOL    HW212837   6.332   9.866   2.522
70314SOL     OW12838   9.495   7.408   5.575
70314SOL    HW112839   9.444   7.481   5.540
70314SOL    HW212840   9.484   7.414   5.670
70315SOL     OW12841   8.370   1.623   5.340
70315SOL    HW112842   8.334   1.701   5.382
70315SOL    HW212843   8.435   1.590   5.403
70316SOL     OW12844  10.962   9.367   2.477
70316SOL    HW112845  10.950   9.344   2.569
70316SOL    HW212846  10.998   9.288   2.437
70317SOL     OW12847  10.315  13.563  13.857
70317SOL    HW112848  10.251  13.626  13.888
70317SOL    HW212849  10.339  13.595  13.770
70318SOL     OW12850   2.296   8.187  13.826
70318SOL    HW112851   2.217   8.207  13.877
70318SOL    HW212852   2.338   8.271  13.813
70319SOL     OW12853   9.442   6.249  11.804
70319SOL    HW112854   9.457   6.156  11.786
70319SOL    HW212855   9.509   6.294  11.753
70320SOL     OW12856   4.266   6.470   2.532
70320SOL    HW112857   4.342   6.515   2.495
70320SOL    HW212858   4.263   6.386   2.487
70321SOL     OW12859   5.013  12.545  13.801
70321SOL    HW112860   5.090  12.567  13.749
70321SOL    HW212861   5.000  12.621  13.858
70322SOL     OW12862   9.884   1.554  12.182
70322SOL    HW112863   9.954   1.591  12.235
70322SOL    HW212864   9.921   1.473  12.147
70323SOL     OW12865  10.342  12.316  10.424
70323SOL    HW112866  10.390  12.234  10.408
70323SOL    HW212867  10.250  12.290  10.421
70324SOL     OW12868   5.277   8.805  11.300
70324SOL    HW112869   5.247   8.744  11.368
70324SOL    HW212870   5.218   8.880  11.308
70325SOL     OW12871  10.055   2.322   1.149
70325SOL    HW112872  10.048   2.323   1.054
70325SOL    HW212873   9.979   2.271   1.178
70326SOL     OW12874   9.469   6.228   8.626
70326SOL    HW112875   9.418   6.191   8.553
70326SOL    HW212876   9.534   6.284   8.583
70327SOL     OW12877   5.149  12.292  13.824
70327SOL    HW112878   5.150  12.217  13.764
70327SOL    HW212879   5.086  12.353  13.786
70328SOL     OW12880  10.591   9.369  10.345
70328SOL    HW112881  10.597   9.278  10.375
70328SOL    HW212882  10.528   9.366  10.273
70329SOL     OW12883   2.373  14.453   4.626
70329SOL    HW112884   2.355  14.373   4.676
70329SOL    HW212885   2.288  14.482   4.595
70330SOL     OW12886   9.974  12.476   7.951
70330SOL    HW112887  10.000  12.538   7.883
70330SOL    HW212888  10.030  12.498   8.026
70331SOL     OW12889   3.105   6.086  14.559
70331SOL    HW112890   3.146   6.063  14.643
70331SOL    HW212891   3.097   6.181  14.562
70332SOL     OW12892  12.535   5.950   8.665
70332SOL    HW112893  12.448   5.926   8.632
70332SOL    HW212894  12.593   5.884   8.630
70333SOL     OW12895  11.613  12.672  12.466
70333SOL    HW112896  11.579  12.589  12.499
70333SOL    HW212897  11.705  12.653  12.444
70334SOL     OW12898  13.735   7.640   5.245
70334SOL    HW112899  13.678   7.581   5.195
70334SOL    HW212900  13.806   7.585   5.276
70335SOL     OW12901   0.659   5.724  10.568
70335SOL    HW112902   0.596   5.697  10.500
70335SOL    HW212903   0.653   5.819  10.570
70336SOL     OW12904  12.521   0.525   1.760
70336SOL    HW112905  12.435   0.516   1.800
70336SOL    HW212906  12.531   0.619   1.745
70337SOL     OW12907   0.634   6.975   9.883
70337SOL    HW112908   0.673   7.060   9.900
70337SOL    HW212909   0.709   6.915   9.875
70338SOL     OW12910   6.183   6.351   3.219
70338SOL    HW112911   6.214   6.312   3.138
70338SOL    HW212912   6.115   6.292   3.250
70339SOL     OW12913   0.702   6.904  13.748
70339SOL    HW112914   0.784   6.854  13.747
70339SOL    HW212915   0.666   6.889  13.835
70340SOL     OW12916   6.481   4.590   9.757
70340SOL    HW112917   6.452   4.565   9.844
70340SOL    HW212918   6.524   4.512   9.722
70341SOL     OW12919   5.137   6.725  10.890
70341SOL    HW112920   5.046   6.742  10.866
70341SOL    HW212921   5.148   6.769  10.974
70342SOL     OW12922  11.329   6.378  12.999
70342SOL    HW112923  11.383   6.307  12.964
70342SOL    HW212924  11.316   6.354  13.091
70343SOL     OW12925  11.507   4.081   6.331
70343SOL    HW112926  11.593   4.061   6.366
70343SOL    HW212927  11.473   3.997   6.300
70344SOL     OW12928   6.747  13.476  12.795
70344SOL    HW112929   6.805  13.483  12.720
70344SOL    HW212930   6.765  13.389  12.831
70345SOL     OW12931   7.522   3.237   0.741
70345SOL    HW112932   7.506   3.296   0.667
70345SOL    HW212933   7.435   3.211   0.771
70346SOL     OW12934   3.831   7.831  10.479
70346SOL    HW112935   3.917   7.789  10.484
70346SOL    HW212936   3.835   7.883  10.398
70347SOL     OW12937   2.035   9.626   7.451
70347SOL    HW112938   2.064   9.549   7.501
70347SOL    HW212939   2.100   9.636   7.382
70348SOL     OW12940  12.078   0.155   0.588
70348SOL    HW112941  12.169   0.128   0.600
70348SOL    HW212942  12.047   0.103   0.514
70349SOL     OW12943   4.019   8.426   1.909
70349SOL    HW112944   4.096   8.379   1.878
70349SOL    HW212945   4.052   8.483   1.978
70350SOL     OW12946  12.175  10.822   3.563
70350SOL    HW112947  12.144  10.789   3.647
70350SOL    HW212948  12.258  10.866   3.582
70351SOL     OW12949   3.416   0.970  10.566
70351SOL    HW112950   3.368   0.888  10.560
70351SOL    HW212951   3.402   1.001  10.655
70352SOL     OW12952   5.936  12.304   2.509
70352SOL    HW112953   5.942  12.254   2.428
70352SOL    HW212954   6.018  12.352   2.514
70353SOL     OW12955  14.270   1.015   6.756
70353SOL    HW112956  14.254   1.000   6.663
70353SOL    HW212957  14.276   0.927   6.793
70354SOL     OW12958   3.691   4.460   7.616
70354SOL    HW112959   3.703   4.536   7.559
70354SOL    HW212960   3.763   4.464   7.678
70355SOL     OW12961   2.714   5.968   2.853
70355SOL    HW112962   2.619   5.958   2.849
70355SOL    HW212963   2.737   5.938   2.941
70356SOL     OW12964  12.792  11.650   9.957
70356SOL    HW112965  12.742  11.570   9.972
70356SOL    HW212966  12.740  11.719   9.998
70357SOL     OW12967  11.593  10.943   1.812
70357SOL    HW112968  11.588  10.857   1.854
70357SOL    HW212969  11.535  10.999   1.864
70358SOL     OW12970   2.432   9.063  13.325
70358SOL    HW112971   2.432   8.983  13.378
70358SOL    HW212972   2.449   9.033  13.236
70359SOL     OW12973   6.047   8.448  14.764
70359SOL    HW112974   6.088   8.424  14.847
70359SOL    HW212975   6.038   8.543  14.767
70360SOL     OW12976   0.904   1.869   5.329
70360SOL    HW112977   0.862   1.807   5.388
70360SOL    HW212978   0.878   1.955   5.360
70361SOL     OW12979   9.924   6.291   7.274
70361SOL    HW112980   9.950   6.200   7.263
70361SOL    HW212981  10.000   6.341   7.243
70362SOL     OW12982  14.595   7.614   4.537
70362SOL    HW112983  14.628   7.617   4.447
70362SOL    HW212984  14.675   7.612   4.590
70363SOL     OW12985  13.286  11.536   4.849
70363SOL    HW112986  13.378  11.560   4.848
70363SOL    HW212987  13.282  11.454   4.798
70364SOL     OW12988   0.880  11.020   8.617
70364SOL    HW112989   0.794  11.029   8.657
70364SOL    HW212990   0.862  10.989   8.528
70365SOL     OW12991   7.147   7.220   4.474
70365SOL    HW112992   7.065   7.184   4.507
70365SOL    HW212993   7.169   7.164   4.399
70366SOL     OW12994   4.799   9.157  13.029
70366SOL    HW112995   4.852   9.214  13.085
70366SOL    HW212996   4.852   9.147  12.949
70367SOL     OW12997   0.358   6.720  10.677
70367SOL    HW112998   0.292   6.671  10.726
70367SOL    HW212999   0.334   6.709  10.585
70368SOL     OW13000   5.071   0.929  13.867
70368SOL    HW113001   5.027   0.897  13.946
70368SOL    HW213002   5.145   0.871  13.855
70369SOL     OW13003   4.144   3.417  10.852
70369SOL    HW113004   4.186   3.465  10.781
70369SOL    HW213005   4.211   3.355  10.882
70370SOL     OW13006  12.905   6.460   0.075
70370SOL    HW113007  12.821   6.420   0.053
70370SOL    HW213008  12.928   6.512  14.866
70371SOL     OW13009   9.737   6.901  10.908
70371SOL    HW113010   9.781   6.851  10.976
70371SOL    HW213011   9.790   6.888  10.830
70372SOL     OW13012   2.952  11.243   3.693
70372SOL    HW113013   3.030  11.188   3.705
70372SOL    HW213014   2.919  11.220   3.606
70373SOL     OW13015   8.465  10.492   8.135
70373SOL    HW113016   8.395  10.436   8.101
70373SOL    HW213017   8.433  10.581   8.121
70374SOL     OW13018  11.177   4.823   9.524
70374SOL    HW113019  11.247   4.873   9.482
70374SOL    HW213020  11.096   4.866   9.496
70375SOL     OW13021  11.499   5.962  13.376
70375SOL    HW113022  11.576   5.949  13.431
70375SOL    HW213023  11.426   5.963  13.437
70376SOL     OW13024  11.372   4.516   4.210
70376SOL    HW113025  11.292   4.488   4.166
70376SOL    HW213026  11.401   4.593   4.160
70377SOL     OW13027  13.620   0.433   8.581
70377SOL    HW113028  13.584   0.347   8.556
70377SOL    HW213029  13.696   0.412   8.635
70378SOL     OW13030   0.305   6.696  10.420
70378SOL    HW113031   0.303   6.771  10.360
70378SOL    HW213032   0.288   6.620  10.364
70379SOL     OW13033  10.891   0.734   0.928
70379SOL    HW113034  10.892   0.769   1.017
70379SOL    HW213035  10.973   0.685   0.921
70380SOL     OW13036   1.624   2.818  11.450
70380SOL    HW113037   1.647   2.824  11.358
70380SOL    HW213038   1.708   2.812  11.495
70381SOL     OW13039  13.098  10.231   2.159
70381SOL    HW113040  13.069  10.254   2.071
70381SOL    HW213041  13.194  10.225   2.152
70382SOL     OW13042  13.776   7.257   4.279
70382SOL    HW113043  13.832   7.183   4.301
70382SOL    HW213044  13.763   7.251   4.184
70383SOL     OW13045   4.249  11.748   9.232
70383SOL    HW113046   4.304  11.824   9.213
70383SOL    HW213047   4.272  11.723   9.322
70384SOL     OW13048   8.387  10.776   3.947
70384SOL    HW113049   8.444  10.829   4.004
70384SOL    HW213050   8.439  10.761   3.868
70385SOL     OW13051   4.645   2.717  12.509
70385SOL    HW113052   4.718   2.740  12.566
70385SOL    HW213053   4.578   2.782  12.528
70386SOL     OW13054   0.735   3.001  10.115
70386SOL    HW113055   0.710   2.977  10.204
70386SOL    HW213056   0.676   3.072  10.092
70387SOL     OW13057   5.978  12.464  13.765
70387SOL    HW113058   6.033  12.460  13.687
70387SOL    HW213059   6.024  12.412  13.830
70388SOL     OW13060   0.224  13.859  11.952
70388SOL    HW113061   0.273  13.875  12.033
70388SOL    HW213062   0.271  13.910  11.885
70389SOL     OW13063   0.005   3.446   6.939
70389SOL    HW113064  14.846   3.450   7.031
70389SOL    HW213065  14.797   3.479   6.891
70390SOL     OW13066   4.719   2.333  12.218
70390SOL    HW113067   4.796   2.281  12.242
70390SOL    HW213068   4.745   2.379  12.138
70391SOL     OW13069  14.851  10.358   8.168
70391SOL    HW113070  14.805  10.308   8.101
70391SOL    HW213071  14.867  10.295   8.238
70392SOL     OW13072   5.615   7.890  12.920
70392SOL    HW113073   5.679   7.916  12.853
70392SOL    HW213074   5.548   7.843  12.872
70393SOL     OW13075   8.606   9.773   3.828
70393SOL    HW113076   8.683   9.826   3.808
70393SOL    HW213077   8.533   9.820   3.787
70394SOL     OW13078  13.892   1.302   2.895
70394SOL    HW113079  13.849   1.366   2.838
70394SOL    HW213080  13.956   1.353   2.944
70395SOL     OW13081  12.141   5.435  13.106
70395SOL    HW113082  12.160   5.478  13.022
70395SOL    HW213083  12.064   5.481  13.139
70396SOL     OW13084  10.885   9.790   4.538
70396SOL    HW113085  10.972   9.760   4.511
70396SOL    HW213086  10.839   9.709   4.561
70397SOL     OW13087  10.464   7.777   3.725
70397SOL    HW113088  10.432   7.687   3.719
70397SOL    HW213089  10.552   7.774   3.690
70398SOL     OW13090   0.864   1.081   0.694
70398SOL    HW113091   0.842   1.023   0.767
70398SOL    HW213092   0.800   1.059   0.626
70399SOL     OW13093  14.674  12.932   6.871
70399SOL    HW113094  14.749  12.928   6.811
70399SOL    HW213095  14.651  12.840   6.886
70400SOL     OW13096   0.881   9.924  13.765
70400SOL    HW113097   0.955   9.872  13.733
70400SOL    HW213098   0.902   9.942  13.857
70401SOL     OW13099   5.545   2.983   0.059
70401SOL    HW113100   5.627   3.003   0.013
70401SOL    HW213101   5.553   3.028   0.143
70402SOL     OW13102  10.673   6.292   8.048
70402SOL    HW113103  10.620   6.220   8.084
70402SOL    HW213104  10.729   6.318   8.121
70403SOL     OW13105   1.399   7.437   2.116
70403SOL    HW113106   1.411   7.441   2.211
70403SOL    HW213107   1.456   7.505   2.081
70404SOL     OW13108   2.139   0.270  12.846
70404SOL    HW113109   2.207   0.255  12.780
70404SOL    HW213110   2.065   0.217  12.816
70405SOL     OW13111   8.594   0.910  11.027
70405SOL    HW113112   8.564   0.896  10.937
70405SOL    HW213113   8.517   0.892  11.081
70406SOL     OW13114  12.045  11.836   5.092
70406SOL    HW113115  12.057  11.753   5.046
70406SOL    HW213116  12.042  11.813   5.185
70407SOL     OW13117   9.251  14.696   5.620
70407SOL    HW113118   9.197  14.749   5.562
70407SOL    HW213119   9.196  14.681   5.697
70408SOL     OW13120   9.848   0.924   6.351
70408SOL    HW113121   9.929   0.940   6.303
70408SOL    HW213122   9.823   0.835   6.327
70409SOL     OW13123   9.387  11.572  10.581
70409SOL    HW113124   9.383  11.667  10.595
70409SOL    HW213125   9.325  11.536  10.644
70410SOL     OW13126   5.551   8.867   4.100
70410SOL    HW113127   5.477   8.823   4.142
70410SOL    HW213128   5.569   8.942   4.157
70411SOL     OW13129  12.093  10.276   0.144
70411SOL    HW113130  12.017  10.299   0.197
70411SOL    HW213131  12.061  10.207   0.085
70412SOL     OW13132   9.563   6.036   1.028
70412SOL    HW113133   9.657   6.052   1.019
70412SOL    HW213134   9.540   6.074   1.113
70413SOL     OW13135   1.391   5.427   8.694
70413SOL    HW113136   1.448   5.362   8.736
70413SOL    HW213137   1.451   5.486   8.649
70414SOL     OW13138   7.896  10.676   2.720
70414SOL    HW113139   7.902  10.609   2.652
70414SOL    HW213140   7.971  10.659   2.777
70415SOL     OW13141   4.287   2.811   5.819
70415SOL    HW113142   4.248   2.724   5.804
70415SOL    HW213143   4.350   2.796   5.890
70416SOL     OW13144   4.267  10.929   5.087
70416SOL    HW113145   4.362  10.935   5.089
70416SOL    HW213146   4.249  10.847   5.041
70417SOL     OW13147  14.725   2.738   0.792
70417SOL    HW113148  14.691   2.738   0.882
70417SOL    HW213149  14.790   2.808   0.791
70418SOL     OW13150  14.761  14.747   5.465
70418SOL    HW113151  14.685  14.696   5.437
70418SOL    HW213152  14.723  14.819   5.516
70419SOL     OW13153  13.399  10.332  13.240
70419SOL    HW113154  13.376  10.377  13.159
70419SOL    HW213155  13.349  10.250  13.238
70420SOL     OW13156  14.103  13.148  13.149
70420SOL    HW113157  14.148  13.229  13.126
70420SOL    HW213158  14.124  13.135  13.242
70421SOL     OW13159   7.819   1.919   8.401
70421SOL    HW113160   7.911   1.946   8.393
70421SOL    HW213161   7.810   1.844   8.342
70422SOL     OW13162   3.915   2.694  10.637
70422SOL    HW113163   3.821   2.693  10.653
70422SOL    HW213164   3.953   2.724  10.719
70423SOL     OW13165   5.357   9.553  10.323
70423SOL    HW113166   5.419   9.520  10.258
70423SOL    HW213167   5.400   9.538  10.407
70424SOL     OW13168  10.845   4.745  11.162
70424SOL    HW113169  10.917   4.693  11.128
70424SOL    HW213170  10.885   4.802  11.228
70425SOL     OW13171   2.371  14.604   9.196
70425SOL    HW113172   2.422  14.650   9.264
70425SOL    HW213173   2.412  14.631   9.114
70426SOL     OW13174  12.931   5.003   3.301
70426SOL    HW113175  12.917   5.092   3.268
70426SOL    HW213176  12.851   4.981   3.348
70427SOL     OW13177   3.905   1.867   9.797
70427SOL    HW113178   3.835   1.931   9.805
70427SOL    HW213179   3.871   1.801   9.736
70428SOL     OW13180   5.070   6.378  12.661
70428SOL    HW113181   4.982   6.351  12.636
70428SOL    HW213182   5.128   6.315  12.618
70429SOL     OW13183   0.175   5.693  10.136
70429SOL    HW113184   0.106   5.640  10.176
70429SOL    HW213185   0.151   5.696  10.043
70430SOL     OW13186   4.531  13.068   2.047
70430SOL    HW113187   4.437  13.085   2.042
70430SOL    HW213188   4.556  13.047   1.957
70431SOL     OW13189   9.225  14.368  14.540
70431SOL    HW113190   9.216  14.401  14.451
70431SOL    HW213191   9.147  14.314  14.554
70432SOL     OW13192  11.680  13.173  10.547
70432SOL    HW113193  11.671  13.078  10.537
70432SOL    HW213194  11.684  13.187  10.642
70433SOL     OW13195  11.324  12.870   3.052
70433SOL    HW113196  11.264  12.796   3.054
70433SOL    HW213197  11.301  12.921   3.130
70434SOL     OW13198   5.542   3.851   7.651
70434SOL    HW113199   5.455   3.866   7.687
70434SOL    HW213200   5.599   3.842   7.727
70435SOL     OW13201   9.223   2.836   5.079
70435SOL    HW113202   9.253   2.785   5.004
70435SOL    HW213203   9.140   2.797   5.104
70436SOL     OW13204   8.690   2.014  10.081
70436SOL    HW113205   8.778   2.050  10.093
70436SOL    HW213206   8.680   2.008   9.986
70437SOL     OW13207   1.933  14.068   0.461
70437SOL    HW113208   1.931  14.122   0.540
70437SOL    HW213209   1.896  14.123   0.392
70438SOL     OW13210   5.643   5.299  12.221
70438SOL    HW113211   5.561   5.291  12.173
70438SOL    HW213212   5.696   5.224  12.192
70439SOL     OW13213   9.538   7.759   2.138
70439SOL    HW113214   9.478   7.721   2.201
70439SOL    HW213215   9.577   7.834   2.184
70440SOL     OW13216  12.839   8.810   7.581
70440SOL    HW113217  12.835   8.714   7.582
70440SOL    HW213218  12.815   8.833   7.491
70441SOL     OW13219  10.081  11.065  11.634
70441SOL    HW113220  10.127  10.984  11.612
70441SOL    HW213221  10.014  11.039  11.697
70442SOL     OW13222   7.055  13.074   8.415
70442SOL    HW113223   7.134  13.107   8.458
70442SOL    HW213224   7.034  13.141   8.350
70443SOL     OW13225   0.877  13.762  14.734
70443SOL    HW113226   0.911  13.844  14.770
70443SOL    HW213227   0.822  13.727  14.805
70444SOL     OW13228   3.341   8.213   8.184
70444SOL    HW113229   3.391   8.133   8.172
70444SOL    HW213230   3.398   8.270   8.236
70445SOL     OW13231   4.865   1.358   6.268
70445SOL    HW113232   4.809   1.317   6.202
70445SOL    HW213233   4.926   1.412   6.217
70446SOL     OW13234   5.607   9.414   9.493
70446SOL    HW113235   5.690   9.391   9.534
70446SOL    HW213236   5.573   9.485   9.547
70447SOL     OW13237   4.854   3.394   4.110
70447SOL    HW113238   4.872   3.448   4.033
70447SOL    HW213239   4.788   3.442   4.158
70448SOL     OW13240   8.538   8.106   8.186
70448SOL    HW113241   8.573   8.018   8.189
70448SOL    HW213242   8.504   8.116   8.096
70449SOL     OW13243   5.754   1.094  10.459
70449SOL    HW113244   5.767   1.178  10.416
70449SOL    HW213245   5.814   1.034  10.414
70450SOL     OW13246  14.579   8.213  12.813
70450SOL    HW113247  14.554   8.193  12.903
70450SOL    HW213248  14.596   8.308  12.813
70451SOL     OW13249   6.530   1.419   9.949
70451SOL    HW113250   6.565   1.492   9.897
70451SOL    HW213251   6.492   1.360   9.884
70452SOL     OW13252   2.272   6.759   4.861
70452SOL    HW113253   2.295   6.688   4.921
70452SOL    HW213254   2.246   6.715   4.780
70453SOL     OW13255   9.702   6.138   1.935
70453SOL    HW113256   9.753   6.057   1.927
70453SOL    HW213257   9.768   6.208   1.934
70454SOL     OW13258   0.800   3.447   7.364
70454SOL    HW113259   0.793   3.429   7.270
70454SOL    HW213260   0.846   3.531   7.368
70455SOL     OW13261   5.838   3.966   4.363
70455SOL    HW113262   5.844   3.966   4.459
70455SOL    HW213263   5.821   3.874   4.340
70456SOL     OW13264   9.679   3.242  10.863
70456SOL    HW113265   9.730   3.172  10.905
70456SOL    HW213266   9.588   3.215  10.873
70457SOL     OW13267   8.726   4.721  14.657
70457SOL    HW113268   8.661   4.752  14.594
70457SOL    HW213269   8.679   4.719  14.741
70458SOL     OW13270   9.289   0.641   5.979
70458SOL    HW113271   9.287   0.546   5.971
70458SOL    HW213272   9.226   0.661   6.049
70459SOL     OW13273  12.348   4.531   6.880
70459SOL    HW113274  12.358   4.448   6.833
70459SOL    HW213275  12.417   4.587   6.844
70460SOL     OW13276   6.250   4.367  12.822
70460SOL    HW113277   6.222   4.330  12.906
70460SOL    HW213278   6.180   4.427  12.797
70461SOL     OW13279   0.419   4.503  11.184
70461SOL    HW113280   0.378   4.474  11.102
70461SOL    HW213281   0.398   4.433  11.246
70462SOL     OW13282  11.365   5.995   5.045
70462SOL    HW113283  11.328   5.908   5.058
70462SOL    HW213284  11.413   5.987   4.962
70463SOL     OW13285   2.361  14.002  14.362
70463SOL    HW113286   2.330  13.999  14.452
70463SOL    HW213287   2.281  13.996  14.309
70464SOL     OW13288   8.762  11.564   4.834
70464SOL    HW113289   8.790  11.534   4.921
70464SOL    HW213290   8.758  11.484   4.782
70465SOL     OW13291   9.024  12.297  11.556
70465SOL    HW113292   9.019  12.390  11.576
70465SOL    HW213293   9.067  12.258  11.632
70466SOL     OW13294  11.472  12.391   6.496
70466SOL    HW113295  11.543  12.336   6.462
70466SOL    HW213296  11.516  12.470   6.528
70467SOL     OW13297   4.469   4.882   7.825
70467SOL    HW113298   4.437   4.834   7.749
70467SOL    HW213299   4.555   4.916   7.798
70468SOL     OW13300  10.366   4.636   7.261
70468SOL    HW113301  10.383   4.719   7.304
70468SOL    HW213302  10.271   4.632   7.251
70469SOL     OW13303  11.913  10.231   2.752
70469SOL    HW113304  11.888  10.249   2.843
70469SOL    HW213305  12.005  10.208   2.756
70470SOL     OW13306  12.745  14.150  11.713
70470SOL    HW113307  12.734  14.171  11.806
70470SOL    HW213308  12.683  14.206  11.668
70471SOL     OW13309  13.626   4.386   3.434
70471SOL    HW113310  13.544   4.434   3.440
70471SOL    HW213311  13.634   4.362   3.341
70472SOL     OW13312  13.134  11.628  14.773
70472SOL    HW113313  13.209  11.573  14.797
70472SOL    HW213314  13.068  11.566  14.743
70473SOL     OW13315   4.432   7.140   6.156
70473SOL    HW113316   4.421   7.064   6.213
70473SOL    HW213317   4.343   7.168   6.135
70474SOL     OW13318  13.516   4.692  11.983
70474SOL    HW113319  13.589   4.747  11.955
70474SOL    HW213320  13.439   4.748  11.977
70475SOL     OW13321  12.167   2.008   3.669
70475SOL    HW113322  12.257   2.040   3.666
70475SOL    HW213323  12.121   2.070   3.725
70476SOL     OW13324   2.146   2.092  14.002
70476SOL    HW113325   2.194   2.015  14.033
70476SOL    HW213326   2.082   2.057  13.939
70477SOL     OW13327   9.710   8.671   3.715
70477SOL    HW113328   9.797   8.649   3.750
70477SOL    HW213329   9.695   8.761   3.742
70478SOL     OW13330   1.572   5.467   6.931
70478SOL    HW113331   1.546   5.555   6.904
70478SOL    HW213332   1.610   5.428   6.852
70479SOL     OW13333   3.114   3.573   2.969
70479SOL    HW113334   3.082   3.548   2.882
70479SOL    HW213335   3.208   3.588   2.956
70480SOL     OW13336   3.098   8.501   2.795
70480SOL    HW113337   3.154   8.533   2.725
70480SOL    HW213338   3.026   8.458   2.750
70481SOL     OW13339   2.741   6.180  10.585
70481SOL    HW113340   2.826   6.137  10.580
70481SOL    HW213341   2.750   6.241  10.659
70482SOL     OW13342  13.946   4.505   9.696
70482SOL    HW113343  13.968   4.423   9.651
70482SOL    HW213344  13.997   4.502   9.777
70483SOL     OW13345   3.038  13.015   8.757
70483SOL    HW113346   2.985  13.076   8.807
70483SOL    HW213347   3.128  13.044   8.770
70484SOL     OW13348   9.265   9.467   9.556
70484SOL    HW113349   9.303   9.554   9.548
70484SOL    HW213350   9.242   9.459   9.649
70485SOL     OW13351   2.275  10.682   8.327
70485SOL    HW113352   2.193  10.643   8.296
70485SOL    HW213353   2.248  10.767   8.363
70486SOL     OW13354   2.828   2.120   5.729
70486SOL    HW113355   2.866   2.143   5.814
70486SOL    HW213356   2.737   2.097   5.749
70487SOL     OW13357  10.336   3.648   3.037
70487SOL    HW113358  10.400   3.598   2.986
70487SOL    HW213359  10.331   3.601   3.120
70488SOL     OW13360  10.525  10.525   7.592
70488SOL    HW113361  10.541  10.468   7.517
70488SOL    HW213362  10.433  10.514   7.612
70489SOL     OW13363   3.881   8.005  10.720
70489SOL    HW113364   3.859   7.949  10.645
70489SOL    HW213365   3.847   7.957  10.796
70490SOL     OW13366   5.396   7.567   7.493
70490SOL    HW113367   5.408   7.536   7.583
70490SOL    HW213368   5.469   7.529   7.444
70491SOL     OW13369   3.263   6.453   8.816
70491SOL    HW113370   3.235   6.501   8.894
70491SOL    HW213371   3.302   6.520   8.759
70492SOL     OW13372   4.275   4.042   0.341
70492SOL    HW113373   4.226   4.077   0.267
70492SOL    HW213374   4.209   4.026   0.408
70493SOL     OW13375  13.865   8.893   3.249
70493SOL    HW113376  13.887   8.826   3.314
70493SOL    HW213377  13.864   8.847   3.166
70494SOL     OW13378  11.883   9.849   8.542
70494SOL    HW113379  11.967   9.806   8.557
70494SOL    HW213380  11.826   9.780   8.509
70495SOL     OW13381   8.668   3.037   9.485
70495SOL    HW113382   8.721   2.983   9.427
70495SOL    HW213383   8.596   2.980   9.513
70496SOL     OW13384  12.146  13.647  14.495
70496SOL    HW113385  12.061  13.604  14.489
70496SOL    HW213386  12.201  13.601  14.431
70497SOL     OW13387  11.440   1.223   2.033
70497SOL    HW113388  11.402   1.263   1.955
70497SOL    HW213389  11.475   1.139   2.002
70498SOL     OW13390   3.775  13.298   5.455
70498SOL    HW113391   3.754  13.359   5.526
70498SOL    HW213392   3.840  13.239   5.493
70499SOL     OW13393   1.859  12.737   3.236
70499SOL    HW113394   1.833  12.745   3.328
70499SOL    HW213395   1.858  12.643   3.219
70500SOL     OW13396   4.367   3.422  10.119
70500SOL    HW113397   4.428   3.495  10.134
70500SOL    HW213398   4.403   3.376  10.044
70501SOL     OW13399   5.327  14.128   9.168
70501SOL    HW113400   5.422  14.118   9.174
70501SOL    HW213401   5.313  14.172   9.084
70502SOL     OW13402   9.270   0.156   5.272
70502SOL    HW113403   9.322   0.076   5.280
70502SOL    HW213404   9.331   0.226   5.295
70503SOL     OW13405   6.380   4.363   1.230
70503SOL    HW113406   6.335   4.320   1.303
70503SOL    HW213407   6.461   4.396   1.268
70504SOL     OW13408   6.081   9.583   6.170
70504SOL    HW113409   6.085   9.647   6.098
70504SOL    HW213410   6.013   9.522   6.143
70505SOL     OW13411   7.952  10.908   8.213
70505SOL    HW113412   7.982  10.997   8.194
70505SOL    HW213413   8.033  10.860   8.232
70506SOL     OW13414   6.829   8.790   4.592
70506SOL    HW113415   6.783   8.756   4.669
70506SOL    HW213416   6.775   8.863   4.563
70507SOL     OW13417  10.481   9.188   9.160
70507SOL    HW113418  10.417   9.135   9.112
70507SOL    HW213419  10.480   9.273   9.116
70508SOL     OW13420  14.727   6.293  13.080
70508SOL    HW113421  14.795   6.288  13.013
70508SOL    HW213422  14.769   6.259  13.159
70509SOL     OW13423   1.815   4.573   4.343
70509SOL    HW113424   1.885   4.548   4.404
70509SOL    HW213425   1.774   4.490   4.319
70510SOL     OW13426   3.725   2.536   4.558
70510SOL    HW113427   3.762   2.526   4.471
70510SOL    HW213428   3.801   2.535   4.617
70511SOL     OW13429  10.357   7.160  13.580
70511SOL    HW113430  10.295   7.103  13.626
70511SOL    HW213431  10.304   7.205  13.514
70512SOL     OW13432   8.958  11.175   0.308
70512SOL    HW113433   8.941  11.130   0.226
70512SOL    HW213434   8.959  11.106   0.374
70513SOL     OW13435   9.373  10.292   3.376
70513SOL    HW113436   9.429  10.323   3.305
70513SOL    HW213437   9.413  10.327   3.455
70514SOL     OW13438   7.665   9.171   9.692
70514SOL    HW113439   7.711   9.089   9.711
70514SOL    HW213440   7.670   9.221   9.774
70515SOL     OW13441   6.672   5.816   9.596
70515SOL    HW113442   6.754   5.814   9.645
70515SOL    HW213443   6.606   5.782   9.656
70516SOL     OW13444   7.027   0.698  13.254
70516SOL    HW113445   6.949   0.643  13.255
70516SOL    HW213446   7.010   0.765  13.320
70517SOL     OW13447   4.915   1.804  11.301
70517SOL    HW113448   4.921   1.900  11.307
70517SOL    HW213449   4.865   1.789  11.221
70518SOL     OW13450   8.978   4.805   0.746
70518SOL    HW113451   9.040   4.748   0.701
70518SOL    HW213452   8.897   4.755   0.751
70519SOL     OW13453   2.521   7.370  10.646
70519SOL    HW113454   2.526   7.374  10.550
70519SOL    HW213455   2.611   7.378  10.675
70520SOL     OW13456   6.505  13.433  13.238
70520SOL    HW113457   6.533  13.344  13.218
70520SOL    HW213458   6.514  13.480  13.155
70521SOL     OW13459   4.731   3.890   1.600
70521SOL    HW113460   4.640   3.916   1.615
70521SOL    HW213461   4.776   3.971   1.577
70522SOL     OW13462   5.186   9.132   1.980
70522SOL    HW113463   5.262   9.178   2.016
70522SOL    HW213464   5.211   9.039   1.985
70523SOL     OW13465   1.620   1.166   6.917
70523SOL    HW113466   1.602   1.209   6.833
70523SOL    HW213467   1.672   1.229   6.966
70524SOL     OW13468   6.726  14.109  11.017
70524SOL    HW113469   6.694  14.115  10.927
70524SOL    HW213470   6.717  14.198  11.051
70525SOL     OW13471   8.473   8.887   3.215
70525SOL    HW113472   8.423   8.855   3.140
70525SOL    HW213473   8.407   8.898   3.284
70526SOL     OW13474   8.924   9.176   3.834
70526SOL    HW113475   9.007   9.143   3.868
70526SOL    HW213476   8.857   9.127   3.881
70527SOL     OW13477   5.300  11.863   5.553
70527SOL    HW113478   5.331  11.904   5.634
70527SOL    HW213479   5.380  11.839   5.506
70528SOL     OW13480   7.399   7.104   3.147
70528SOL    HW113481   7.454   7.068   3.216
70528SOL    HW213482   7.361   7.028   3.104
70529SOL     OW13483   4.741  13.171  13.447
70529SOL    HW113484   4.805  13.229  13.489
70529SOL    HW213485   4.793  13.102  13.408
70530SOL     OW13486  14.730   2.926  12.058
70530SOL    HW113487  14.638   2.947  12.075
70530SOL    HW213488  14.773   2.935  12.143
70531SOL     OW13489  12.588  13.994   2.943
70531SOL    HW113490  12.501  13.959   2.925
70531SOL    HW213491  12.610  13.960   3.030
70532SOL     OW13492   4.011   0.967   2.622
70532SOL    HW113493   4.019   0.897   2.687
70532SOL    HW213494   4.029   0.924   2.538
70533SOL     OW13495   7.578   7.432   9.643
70533SOL    HW113496   7.554   7.521   9.670
70533SOL    HW213497   7.642   7.445   9.572
70534SOL     OW13498  12.181  10.016   7.725
70534SOL    HW113499  12.126   9.974   7.660
70534SOL    HW213500  12.219  10.092   7.680
70535SOL     OW13501  10.695   5.964   1.623
70535SOL    HW113502  10.621   5.916   1.586
70535SOL    HW213503  10.772   5.914   1.598
70536SOL     OW13504   3.591   3.169   4.771
70536SOL    HW113505   3.650   3.096   4.795
70536SOL    HW213506   3.574   3.155   4.677
70537SOL     OW13507  10.351  12.311   5.248
70537SOL    HW113508  10.442  12.321   5.273
70537SOL    HW213509  10.302  12.348   5.322
70538SOL     OW13510  11.654   8.472   8.757
70538SOL    HW113511  11.632   8.381   8.775
70538SOL    HW213512  11.652   8.479   8.661
70539SOL     OW13513   1.102   5.205  14.143
70539SOL    HW113514   1.133   5.295  14.131
70539SOL    HW213515   1.095   5.194  14.238
70540SOL     OW13516   9.098   6.326   1.899
70540SOL    HW113517   9.168   6.260   1.902
70540SOL    HW213518   9.103   6.369   1.984
70541SOL     OW13519   7.270  13.445   9.178
70541SOL    HW113520   7.251  13.352   9.167
70541SOL    HW213521   7.344  13.447   9.239
70542SOL     OW13522   1.610  10.718   2.004
70542SOL    HW113523   1.614  10.755   1.916
70542SOL    HW213524   1.517  10.697   2.017
70543SOL     OW13525   3.261  12.572   7.565
70543SOL    HW113526   3.175  12.600   7.595
70543SOL    HW213527   3.316  12.650   7.571
70544SOL     OW13528  13.284   2.966   3.465
70544SOL    HW113529  13.206   2.982   3.412
70544SOL    HW213530  13.303   3.051   3.506
70545SOL     OW13531   0.924   4.476   4.201
70545SOL    HW113532   0.900   4.566   4.181
70545SOL    HW213533   0.989   4.484   4.271
70546SOL     OW13534   0.966  11.928   5.352
70546SOL    HW113535   1.046  11.912   5.303
70546SOL    HW213536   0.926  12.004   5.310
70547SOL     OW13537  12.804   6.775   7.998
70547SOL    HW113538  12.819   6.821   7.916
70547SOL    HW213539  12.712   6.747   7.994
70548SOL     OW13540   3.491   1.825  12.122
70548SOL    HW113541   3.561   1.880  12.089
70548SOL    HW213542   3.533   1.769  12.188
70549SOL     OW13543  12.717  14.761   3.492
70549SOL    HW113544  12.710  14.667   3.508
70549SOL    HW213545  12.792  14.789   3.544
70550SOL     OW13546   1.715   8.034   2.576
70550SOL    HW113547   1.782   7.975   2.543
70550SOL    HW213548   1.689   7.996   2.660
70551SOL     OW13549  10.294   5.048   6.049
70551SOL    HW113550  10.340   5.000   6.118
70551SOL    HW213551  10.345   5.030   5.970
70552SOL     OW13552  14.466  11.715  14.736
70552SOL    HW113553  14.548  11.673  14.711
70552SOL    HW213554  14.446  11.681  14.823
70553SOL     OW13555   2.762  10.792   4.061
70553SOL    HW113556   2.779  10.776   3.968
70553SOL    HW213557   2.842  10.761   4.105
70554SOL     OW13558  13.092   8.946   4.296
70554SOL    HW113559  13.144   8.939   4.216
70554SOL    HW213560  13.005   8.918   4.270
70555SOL     OW13561   7.646   6.643   1.192
70555SOL    HW113562   7.680   6.565   1.149
70555SOL    HW213563   7.551   6.634   1.187
70556SOL     OW13564   9.847   2.054   3.917
70556SOL    HW113565   9.818   2.008   3.838
70556SOL    HW213566   9.839   1.990   3.987
70557SOL     OW13567   2.318   7.470  10.821
70557SOL    HW113568   2.370   7.434  10.750
70557SOL    HW213569   2.355   7.556  10.838
70558SOL     OW13570   8.515   4.534   2.190
70558SOL    HW113571   8.500   4.453   2.141
70558SOL    HW213572   8.580   4.581   2.138
70559SOL     OW13573  11.251  11.273   9.963
70559SOL    HW113574  11.318  11.280   9.895
70559SOL    HW213575  11.287  11.211  10.027
70560SOL     OW13576   6.276  14.672   3.797
70560SOL    HW113577   6.360  14.687   3.754
70560SOL    HW213578   6.255  14.755   3.838
70561SOL     OW13579   2.844   7.128  13.603
70561SOL    HW113580   2.875   7.078  13.528
70561SOL    HW213581   2.865   7.073  13.679
70562SOL     OW13582  13.602  12.444   7.329
70562SOL    HW113583  13.675  12.427   7.388
70562SOL    HW213584  13.642  12.460   7.244
70563SOL     OW13585   6.779   1.200   2.111
70563SOL    HW113586   6.689   1.233   2.106
70563SOL    HW213587   6.831   1.277   2.138
70564SOL     OW13588   9.475   4.724   8.162
70564SOL    HW113589   9.568   4.737   8.141
70564SOL    HW213590   9.467   4.630   8.179
70565SOL     OW13591  10.806  11.003   0.245
70565SOL    HW113592  10.780  11.029   0.157
70565SOL    HW213593  10.855  10.922   0.233
70566SOL     OW13594   3.551   6.772   6.848
70566SOL    HW113595   3.647   6.769   6.849
70566SOL    HW213596   3.524   6.680   6.852
70567SOL     OW13597  11.775   8.916   2.492
70567SOL    HW113598  11.780   8.976   2.418
70567SOL    HW213599  11.708   8.955   2.549
70568SOL     OW13600  14.059  12.333   4.199
70568SOL    HW113601  14.067  12.317   4.293
70568SOL    HW213602  14.134  12.389   4.178
70569SOL     OW13603   9.910  13.792  10.814
70569SOL    HW113604   9.956  13.788  10.898
70569SOL    HW213605   9.837  13.731  10.823
70570SOL     OW13606   7.844  11.993   6.055
70570SOL    HW113607   7.804  11.926   5.998
70570SOL    HW213608   7.775  12.015   6.117
70571SOL     OW13609  12.683  14.236  10.701
70571SOL    HW113610  12.592  14.234  10.733
70571SOL    HW213611  12.679  14.197  10.614
70572SOL     OW13612   9.714  14.548   1.199
70572SOL    HW113613   9.714  14.487   1.126
70572SOL    HW213614   9.805  14.553   1.227
70573SOL     OW13615   6.567  13.019  12.843
70573SOL    HW113616   6.501  12.987  12.782
70573SOL    HW213617   6.571  13.113  12.827
70574SOL     OW13618   5.285  14.605  12.567
70574SOL    HW113619   5.228  14.578  12.494
70574SOL    HW213620   5.369  14.562  12.548
70575SOL     OW13621   8.202  11.929   6.644
70575SOL    HW113622   8.273  11.908   6.583
70575SOL    HW213623   8.220  11.874   6.721
70576SOL     OW13624  14.613   8.194   9.084
70576SOL    HW113625  14.691   8.247   9.068
70576SOL    HW213626  14.635   8.108   9.048
70577SOL     OW13627  14.799   0.171   4.860
70577SOL    HW113628  14.836   0.256   4.882
70577SOL    HW213629  14.856   0.139   4.790
70578SOL     OW13630   3.167   6.322  13.378
70578SOL    HW113631   3.124   6.368  13.306
70578SOL    HW213632   3.231   6.265  13.336
70579SOL     OW13633  12.920   5.411  14.308
70579SOL    HW113634  12.891   5.474  14.242
70579SOL    HW213635  12.952   5.336  14.257
70580SOL     OW13636   5.302   3.748   4.421
70580SOL    HW113637   5.294   3.843   4.412
70580SOL    HW213638   5.394   3.733   4.441
70581SOL     OW13639   2.602   1.447   8.829
70581SOL    HW113640   2.641   1.398   8.900
70581SOL    HW213641   2.553   1.382   8.779
70582SOL     OW13642   3.793  14.172  13.594
70582SOL    HW113643   3.813  14.188  13.502
70582SOL    HW213644   3.800  14.077  13.604
70583SOL     OW13645   1.775   5.996   5.206
70583SOL    HW113646   1.867   6.005   5.231
70583SOL    HW213647   1.775   5.935   5.132
70584SOL     OW13648   8.366  11.374   5.710
70584SOL    HW113649   8.382  11.457   5.666
70584SOL    HW213650   8.327  11.318   5.642
70585SOL     OW13651  13.732   5.328   0.257
70585SOL    HW113652  13.751   5.278   0.177
70585SOL    HW213653  13.679   5.268   0.310
70586SOL     OW13654   2.628   3.266   3.301
70586SOL    HW113655   2.613   3.335   3.366
70586SOL    HW213656   2.715   3.232   3.323
70587SOL     OW13657   3.338  14.797   2.718
70587SOL    HW113658   3.316   0.021   2.705
70587SOL    HW213659   3.279  14.768   2.788
70588SOL     OW13660   6.839  11.219  11.527
70588SOL    HW113661   6.907  11.282  11.502
70588SOL    HW213662   6.801  11.189  11.444
70589SOL     OW13663  14.548   0.100  12.516
70589SOL    HW113664  14.495   0.089  12.595
70589SOL    HW213665  14.627   0.049  12.533
70590SOL     OW13666   0.635   4.443   1.499
70590SOL    HW113667   0.716   4.469   1.543
70590SOL    HW213668   0.565   4.473   1.557
70591SOL     OW13669   7.167   5.711   4.658
70591SOL    HW113670   7.110   5.687   4.731
70591SOL    HW213671   7.214   5.630   4.638
70592SOL     OW13672  12.702   3.788  13.152
70592SOL    HW113673  12.789   3.752  13.132
70592SOL    HW213674  12.703   3.799  13.247
70593SOL     OW13675   8.105   4.526   3.772
70593SOL    HW113676   8.076   4.553   3.859
70593SOL    HW213677   8.124   4.608   3.727
70594SOL     OW13678   0.146  12.728  13.924
70594SOL    HW113679   0.064  12.704  13.880
70594SOL    HW213680   0.215  12.691  13.868
70595SOL     OW13681   4.434  14.715  12.398
70595SOL    HW113682   4.344  14.748  12.401
70595SOL    HW213683   4.474  14.750  12.478
70596SOL     OW13684   2.809   9.992   1.385
70596SOL    HW113685   2.718   9.974   1.408
70596SOL    HW213686   2.847  10.028   1.466
70597SOL     OW13687   2.709  12.025   9.779
70597SOL    HW113688   2.718  12.070   9.696
70597SOL    HW213689   2.713  12.094   9.845
70598SOL     OW13690   9.092   6.621   6.615
70598SOL    HW113691   9.146   6.649   6.688
70598SOL    HW213692   9.155   6.590   6.550
70599SOL     OW13693  10.263   2.034  12.193
70599SOL    HW113694  10.342   2.007  12.146
70599SOL    HW213695  10.264   2.130  12.189
70600SOL     OW13696   8.747   7.716   5.302
70600SOL    HW113697   8.714   7.628   5.319
70600SOL    HW213698   8.672   7.773   5.316
70601SOL     OW13699   3.681   7.288  11.938
70601SOL    HW113700   3.593   7.324  11.949
70601SOL    HW213701   3.690   7.275  11.843
70602SOL     OW13702  13.968   5.296   9.080
70602SOL    HW113703  14.006   5.383   9.078
70602SOL    HW213704  13.881   5.306   9.043
70603SOL     OW13705  12.419   2.855  11.947
70603SOL    HW113706  12.365   2.810  11.882
70603SOL    HW213707  12.439   2.788  12.011
70604SOL     OW13708   7.020   7.785   8.590
70604SOL    HW113709   6.933   7.746   8.596
70604SOL    HW213710   7.021   7.830   8.505
70605SOL     OW13711  10.391  10.961   3.202
70605SOL    HW113712  10.462  10.989   3.260
70605SOL    HW213713  10.431  10.894   3.146
70606SOL     OW13714  14.695   9.365   9.998
70606SOL    HW113715  14.709   9.270   9.996
70606SOL    HW213716  14.748   9.395  10.072
70607SOL     OW13717   9.866   2.440   4.427
70607SOL    HW113718   9.933   2.391   4.379
70607SOL    HW213719   9.783   2.402   4.398
70608SOL     OW13720   6.249   4.523   5.797
70608SOL    HW113721   6.156   4.544   5.809
70608SOL    HW213722   6.276   4.486   5.881
70609SOL     OW13723  13.067   6.814   0.988
70609SOL    HW113724  13.126   6.791   1.060
70609SOL    HW213725  13.121   6.865   0.928
70610SOL     OW13726   7.272   3.975  10.463
70610SOL    HW113727   7.246   4.066  10.479
70610SOL    HW213728   7.194   3.935  10.426
70611SOL     OW13729   1.901   1.814   3.775
70611SOL    HW113730   1.822   1.765   3.799
70611SOL    HW213731   1.952   1.752   3.723
70612SOL     OW13732   5.933   6.242  11.420
70612SOL    HW113733   5.882   6.244  11.339
70612SOL    HW213734   5.958   6.333  11.435
70613SOL     OW13735  11.639  12.213   8.785
70613SOL    HW113736  11.643  12.123   8.755
70613SOL    HW213737  11.680  12.264   8.715
70614SOL     OW13738   5.794   4.248   3.024
70614SOL    HW113739   5.706   4.283   3.038
70614SOL    HW213740   5.810   4.260   2.930
70615SOL     OW13741   0.433  13.994   9.795
70615SOL    HW113742   0.367  13.935   9.831
70615SOL    HW213743   0.497  14.004   9.865
70616SOL     OW13744  13.782   4.972   0.979
70616SOL    HW113745  13.756   4.928   0.898
70616SOL    HW213746  13.707   4.960   1.038
70617SOL     OW13747  13.108   5.123  14.671
70617SOL    HW113748  13.043   5.191  14.686
70617SOL    HW213749  13.103   5.067  14.748
70618SOL     OW13750  10.386   2.505  13.547
70618SOL    HW113751  10.429   2.583  13.584
70618SOL    HW213752  10.395   2.516  13.453
70619SOL     OW13753   0.025  14.490   3.066
70619SOL    HW113754  14.801  14.467   3.053
70619SOL    HW213755   0.068  14.465   2.984
70620SOL     OW13756   8.998   9.606  14.140
70620SOL    HW113757   8.913   9.615  14.183
70620SOL    HW213758   9.010   9.688  14.092
70621SOL     OW13759   7.180   6.541   9.038
70621SOL    HW113760   7.244   6.549   9.109
70621SOL    HW213761   7.137   6.627   9.035
70622SOL     OW13762  14.836   8.885   1.320
70622SOL    HW113763  14.793   8.970   1.326
70622SOL    HW213764  14.765   8.824   1.298
70623SOL     OW13765   0.648  13.257   8.548
70623SOL    HW113766   0.718  13.308   8.507
70623SOL    HW213767   0.588  13.323   8.584
70624SOL     OW13768   6.891   6.580   2.977
70624SOL    HW113769   6.867   6.657   2.926
70624SOL    HW213770   6.807   6.538   2.998
70625SOL     OW13771  10.395  14.121  10.817
70625SOL    HW113772  10.432  14.054  10.760
70625SOL    HW213773  10.439  14.109  10.901
70626SOL     OW13774   9.218   2.249   2.801
70626SOL    HW113775   9.147   2.309   2.822
70626SOL    HW213776   9.281   2.302   2.752
70627SOL     OW13777   0.422   9.942   5.165
70627SOL    HW113778   0.471   9.964   5.244
70627SOL    HW213779   0.371  10.020   5.145
70628SOL     OW13780   5.113  13.995   1.397
70628SOL    HW113781   5.106  14.052   1.474
70628SOL    HW213782   5.149  14.052   1.328
70629SOL     OW13783   6.277   0.970   9.318
70629SOL    HW113784   6.275   0.878   9.292
70629SOL    HW213785   6.188   1.001   9.304
70630SOL     OW13786  13.709   8.439   7.408
70630SOL    HW113787  13.706   8.535   7.409
70630SOL    HW213788  13.759   8.417   7.330
70631SOL     OW13789  12.484   0.625   0.959
70631SOL    HW113790  12.554   0.671   1.006
70631SOL    HW213791  12.425   0.594   1.028
70632SOL     OW13792  14.605   9.554  13.684
70632SOL    HW113793  14.595   9.459  13.678
70632SOL    HW213794  14.685   9.573  13.635
70633SOL     OW13795   1.502   1.074   8.971
70633SOL    HW113796   1.461   1.147   8.924
70633SOL    HW213797   1.567   1.040   8.911
70634SOL     OW13798  13.311   9.113   7.252
70634SOL    HW113799  13.267   9.198   7.247
70634SOL    HW213800  13.250   9.056   7.299
70635SOL     OW13801   5.314   5.876  12.038
70635SOL    HW113802   5.359   5.832  11.966
70635SOL    HW213803   5.221   5.860  12.021
70636SOL     OW13804  13.909  14.708   2.820
70636SOL    HW113805  13.846  14.757   2.872
70636SOL    HW213806  13.859  14.634   2.786
70637SOL     OW13807   5.220   1.006   5.004
70637SOL    HW113808   5.148   1.063   4.975
70637SOL    HW213809   5.213   0.928   4.950
70638SOL     OW13810   4.291  12.699  12.558
70638SOL    HW113811   4.221  12.730  12.616
70638SOL    HW213812   4.271  12.739  12.473
70639SOL     OW13813   9.197   2.280   6.990
70639SOL    HW113814   9.108   2.296   6.958
70639SOL    HW213815   9.231   2.367   7.009
70640SOL     OW13816  11.042   7.917  11.588
70640SOL    HW113817  11.048   8.009  11.616
70640SOL    HW213818  11.030   7.868  11.669
70641SOL     OW13819  10.078   0.954   3.433
70641SOL    HW113820  10.158   0.934   3.482
70641SOL    HW213821  10.016   0.985   3.499
70642SOL     OW13822   6.076   8.519   0.482
70642SOL    HW113823   5.996   8.564   0.509
70642SOL    HW213824   6.115   8.577   0.417
70643SOL     OW13825  14.410   6.343  13.909
70643SOL    HW113826  14.372   6.296  13.835
70643SOL    HW213827  14.335   6.360  13.967
70644SOL     OW13828   2.260   9.691  13.564
70644SOL    HW113829   2.337   9.681  13.620
70644SOL    HW213830   2.232   9.781  13.578
70645SOL     OW13831  13.981   9.546   7.898
70645SOL    HW113832  13.945   9.479   7.956
70645SOL    HW213833  13.991   9.623   7.954
70646SOL     OW13834   8.739   7.920  10.408
70646SOL    HW113835   8.741   7.845  10.349
70646SOL    HW213836   8.646   7.939  10.420
70647SOL     OW13837  12.325   6.420   1.833
70647SOL    HW113838  12.382   6.366   1.888
70647SOL    HW213839  12.382   6.489   1.799
70648SOL     OW13840   5.585   0.144  14.153
70648SOL    HW113841   5.491   0.143  14.172
70648SOL    HW213842   5.594   0.210  14.084
70649SOL     OW13843   8.528   1.053  12.726
70649SOL    HW113844   8.613   1.008  12.729
70649SOL    HW213845   8.472   1.001  12.783
70650SOL     OW13846   7.717   7.585  10.687
70650SOL    HW113847   7.728   7.490  10.678
70650SOL    HW213848   7.644   7.595  10.747
70651SOL     OW13849   5.082   8.983   6.592
70651SOL    HW113850   5.155   8.922   6.587
70651SOL    HW213851   5.089   9.036   6.513
70652SOL     OW13852   6.529   1.701  10.093
70652SOL    HW113853   6.585   1.636  10.050
70652SOL    HW213854   6.590   1.753  10.145
70653SOL     OW13855   2.421   4.032   3.740
70653SOL    HW113856   2.515   4.046   3.734
70653SOL    HW213857   2.410   3.973   3.814
70654SOL     OW13858  10.654  14.733   3.704
70654SOL    HW113859  10.601  14.753   3.782
70654SOL    HW213860  10.725  14.679   3.737
70655SOL     OW13861   6.593   9.159   3.940
70655SOL    HW113862   6.514   9.129   3.984
70655SOL    HW213863   6.596   9.109   3.858
70656SOL     OW13864   0.051  11.124  10.256
70656SOL    HW113865   0.094  11.110  10.172
70656SOL    HW213866  14.865  11.045  10.269
70657SOL     OW13867  13.643   6.890   2.490
70657SOL    HW113868  13.704   6.836   2.440
70657SOL    HW213869  13.635   6.846   2.574
70658SOL     OW13870   1.242   5.978  13.889
70658SOL    HW113871   1.315   5.929  13.851
70658SOL    HW213872   1.283   6.055  13.929
70659SOL     OW13873  11.540   7.865  14.130
70659SOL    HW113874  11.561   7.888  14.221
70659SOL    HW213875  11.539   7.949  14.084
70660SOL     OW13876   9.368   4.205   8.902
70660SOL    HW113877   9.323   4.223   8.820
70660SOL    HW213878   9.316   4.136   8.943
70661SOL     OW13879   3.624  12.716   3.038
70661SOL    HW113880   3.630  12.752   3.127
70661SOL    HW213881   3.559  12.645   3.045
70662SOL     OW13882   7.338  10.658   6.868
70662SOL    HW113883   7.329  10.662   6.773
70662SOL    HW213884   7.250  10.672   6.902
70663SOL     OW13885   4.066  10.477  12.200
70663SOL    HW113886   4.158  10.449  12.199
70663SOL    HW213887   4.017  10.397  12.222
70664SOL     OW13888  12.193  10.811  10.620
70664SOL    HW113889  12.204  10.837  10.711
70664SOL    HW213890  12.283  10.799  10.587
70665SOL     OW13891   7.473   1.575   3.154
70665SOL    HW113892   7.379   1.585   3.137
70665SOL    HW213893   7.478   1.529   3.237
70666SOL     OW13894  13.595   3.661  14.216
70666SOL    HW113895  13.566   3.752  14.225
70666SOL    HW213896  13.594   3.645  14.122
70667SOL     OW13897  10.045   6.578   8.869
70667SOL    HW113898   9.984   6.602   8.939
70667SOL    HW213899  10.104   6.514   8.909
70668SOL     OW13900  14.437   0.239   2.078
70668SOL    HW113901  14.519   0.247   2.127
70668SOL    HW213902  14.462   0.252   1.987
70669SOL     OW13903   7.886   4.605   9.715
70669SOL    HW113904   7.883   4.567   9.802
70669SOL    HW213905   7.800   4.585   9.677
70670SOL     OW13906   2.779   3.825  13.273
70670SOL    HW113907   2.685   3.829  13.292
70670SOL    HW213908   2.801   3.733  13.281
70671SOL     OW13909   4.705   1.399  12.349
70671SOL    HW113910   4.681   1.346  12.273
70671SOL    HW213911   4.704   1.489  12.318
70672SOL     OW13912   4.153   1.098  12.795
70672SOL    HW113913   4.235   1.062  12.830
70672SOL    HW213914   4.085   1.045  12.835
70673SOL     OW13915   6.208   2.628   7.123
70673SOL    HW113916   6.228   2.581   7.204
70673SOL    HW213917   6.173   2.561   7.065
70674SOL     OW13918   9.137  11.266  11.661
70674SOL    HW113919   9.090  11.219  11.730
70674SOL    HW213920   9.189  11.198  11.618
70675SOL     OW13921   3.580   9.310  12.981
70675SOL    HW113922   3.631   9.229  12.981
70675SOL    HW213923   3.640   9.376  13.014
70676SOL     OW13924  12.926   3.878   7.688
70676SOL    HW113925  13.019   3.879   7.664
70676SOL    HW213926  12.904   3.971   7.698
70677SOL     OW13927  10.631  14.546   5.551
70677SOL    HW113928  10.636  14.516   5.642
70677SOL    HW213929  10.554  14.602   5.548
70678SOL     OW13930   1.715   2.066   9.286
70678SOL    HW113931   1.627   2.072   9.249
70678SOL    HW213932   1.726   2.147   9.336
70679SOL     OW13933   3.979   3.157   2.495
70679SOL    HW113934   4.062   3.161   2.446
70679SOL    HW213935   3.944   3.246   2.488
70680SOL     OW13936   1.860   5.354   0.826
70680SOL    HW113937   1.842   5.278   0.770
70680SOL    HW213938   1.955   5.363   0.825
70681SOL     OW13939  13.365   4.238   6.822
70681SOL    HW113940  13.292   4.274   6.873
70681SOL    HW213941  13.438   4.235   6.883
70682SOL     OW13942  10.863   8.965   6.430
70682SOL    HW113943  10.919   9.039   6.407
70682SOL    HW213944  10.916   8.913   6.491
70683SOL     OW13945   9.307   5.902   1.015
70683SOL    HW113946   9.349   5.965   1.073
70683SOL    HW213947   9.352   5.912   0.932
70684SOL     OW13948   5.788   8.318   3.539
70684SOL    HW113949   5.825   8.336   3.453
70684SOL    HW213950   5.865   8.306   3.595
70685SOL     OW13951   4.657  13.149  13.869
70685SOL    HW113952   4.684  13.228  13.916
70685SOL    HW213953   4.595  13.182  13.803
70686SOL     OW13954  13.106  11.515   4.548
70686SOL    HW113955  13.109  11.611   4.556
70686SOL    HW213956  13.077  11.500   4.458
70687SOL     OW13957  14.555  11.555   0.549
70687SOL    HW113958  14.572  11.474   0.598
70687SOL    HW213959  14.632  11.609   0.565
70688SOL     OW13960   6.378  10.842   7.272
70688SOL    HW113961   6.387  10.920   7.217
70688SOL    HW213962   6.370  10.876   7.361
70689SOL     OW13963   6.551  14.435  11.565
70689SOL    HW113964   6.623  14.493  11.590
70689SOL    HW213965   6.472  14.488  11.575
70690SOL     OW13966   7.731  11.591   3.997
70690SOL    HW113967   7.812  11.642   3.998
70690SOL    HW213968   7.671  11.642   3.943
70691SOL     OW13969  14.250   9.432   3.086
70691SOL    HW113970  14.181   9.373   3.118
70691SOL    HW213971  14.306   9.445   3.162
70692SOL     OW13972   7.473   5.618   7.090
70692SOL    HW113973   7.488   5.584   7.002
70692SOL    HW213974   7.548   5.586   7.141
70693SOL     OW13975   0.402   8.118   0.432
70693SOL    HW113976   0.472   8.087   0.490
70693SOL    HW213977   0.375   8.201   0.471
70694SOL     OW13978  14.705   6.733  10.709
70694SOL    HW113979  14.762   6.780  10.648
70694SOL    HW213980  14.622   6.781  10.705
70695SOL     OW13981   3.784   7.827   0.036
70695SOL    HW113982   3.750   7.799  14.819
70695SOL    HW213983   3.867   7.779   0.045
70696SOL     OW13984   9.627   5.379   5.851
70696SOL    HW113985   9.713   5.421   5.857
70696SOL    HW213986   9.578   5.434   5.790
70697SOL     OW13987  12.846   4.661  13.132
70697SOL    HW113988  12.880   4.572  13.129
70697SOL    HW213989  12.913   4.710  13.180
70698SOL     OW13990  14.642   2.718   1.056
70698SOL    HW113991  14.658   2.737   1.148
70698SOL    HW213992  14.549   2.696   1.052
70699SOL     OW13993   8.170   1.564  10.998
70699SOL    HW113994   8.135   1.558  11.086
70699SOL    HW213995   8.120   1.500  10.947
70700SOL     OW13996  11.682   0.432   3.149
70700SOL    HW113997  11.764   0.413   3.104
70700SOL    HW213998  11.665   0.524   3.129
70701SOL     OW13999  14.045   9.204   7.019
70701SOL    HW114000  14.110   9.171   6.958
70701SOL    HW214001  14.015   9.287   6.981
70702SOL     OW14002  12.155   0.430  13.343
70702SOL    HW114003  12.165   0.416  13.438
70702SOL    HW214004  12.245   0.436  13.311
70703SOL     OW14005   7.005   9.644  14.351
70703SOL    HW114006   7.026   9.635  14.444
70703SOL    HW214007   6.912   9.624  14.345
70704SOL     OW14008   8.846   1.553   0.122
70704SOL    HW114009   8.773   1.536   0.061
70704SOL    HW214010   8.912   1.487   0.099
70705SOL     OW14011   1.501  12.341  12.083
70705SOL    HW114012   1.460  12.396  12.016
70705SOL    HW214013   1.566  12.398  12.124
70706SOL     OW14014   8.818   3.715   3.121
70706SOL    HW114015   8.871   3.651   3.074
70706SOL    HW214016   8.812   3.790   3.062
70707SOL     OW14017   9.492   0.979  13.658
70707SOL    HW114018   9.535   1.008  13.578
70707SOL    HW214019   9.500   0.883  13.656
70708SOL     OW14020   1.882   5.231   1.373
70708SOL    HW114021   1.884   5.274   1.288
70708SOL    HW214022   1.961   5.177   1.375
70709SOL     OW14023   7.874  11.231   9.684
70709SOL    HW114024   7.968  11.218   9.696
70709SOL    HW214025   7.844  11.151   9.642
70710SOL     OW14026   3.449  10.394  14.827
70710SOL    HW114027   3.457  10.300  14.806
70710SOL    HW214028   3.397  10.396   0.039
70711SOL     OW14029   8.749   6.957  14.568
70711SOL    HW114030   8.711   6.967  14.481
70711SOL    HW214031   8.778   6.866  14.572
70712SOL     OW14032  10.363  12.289   9.709
70712SOL    HW114033  10.350  12.199   9.681
70712SOL    HW214034  10.337  12.342   9.634
70713SOL     OW14035   4.523   7.025  11.439
70713SOL    HW114036   4.435   7.034  11.403
70713SOL    HW214037   4.542   6.931  11.433
70714SOL     OW14038  12.070   8.811   4.363
70714SOL    HW114039  11.978   8.812   4.389
70714SOL    HW214040  12.119   8.810   4.445
70715SOL     OW14041  10.347   9.575   4.717
70715SOL    HW114042  10.339   9.614   4.804
70715SOL    HW214043  10.402   9.497   4.730
70716SOL     OW14044   6.295   1.424   2.257
70716SOL    HW114045   6.216   1.474   2.236
70716SOL    HW214046   6.276   1.335   2.229
70717SOL     OW14047  14.004   1.159   8.031
70717SOL    HW114048  13.965   1.085   8.076
70717SOL    HW214049  14.055   1.204   8.099
70718SOL     OW14050   7.228   2.472  11.681
70718SOL    HW114051   7.208   2.415  11.755
70718SOL    HW214052   7.285   2.419  11.625
70719SOL     OW14053  10.669  12.112   2.461
70719SOL    HW114054  10.617  12.163   2.399
70719SOL    HW214055  10.757  12.148   2.454
70720SOL     OW14056  11.345  13.551   7.728
70720SOL    HW114057  11.287  13.476   7.713
70720SOL    HW214058  11.306  13.622   7.677
70721SOL     OW14059  11.833  13.483   6.469
70721SOL    HW114060  11.761  13.537   6.503
70721SOL    HW214061  11.799  13.446   6.388
70722SOL     OW14062   5.025   1.719   1.464
70722SOL    HW114063   5.115   1.743   1.444
70722SOL    HW214064   5.012   1.634   1.421
70723SOL     OW14065   8.075   0.611  13.488
70723SOL    HW114066   8.112   0.698  13.478
70723SOL    HW214067   8.003   0.608  13.425
70724SOL     OW14068  12.847  10.196   6.793
70724SOL    HW114069  12.766  10.153   6.820
70724SOL    HW214070  12.897  10.207   6.874
70725SOL     OW14071  14.485   3.819   0.384
70725SOL    HW114072  14.505   3.857   0.470
70725SOL    HW214073  14.445   3.735   0.404
70726SOL     OW14074  11.340  13.024  14.322
70726SOL    HW114075  11.265  12.976  14.288
70726SOL    HW214076  11.303  13.085  14.385
70727SOL     OW14077  14.155  10.007  12.969
70727SOL    HW114078  14.162  10.074  12.901
70727SOL    HW214079  14.243   9.972  12.978
70728SOL     OW14080   0.740  14.398   2.986
70728SOL    HW114081   0.784  14.447   3.056
70728SOL    HW214082   0.654  14.440   2.978
70729SOL     OW14083   3.974   1.538  14.360
70729SOL    HW114084   3.926   1.458  14.338
70729SOL    HW214085   3.916   1.586  14.418
70730SOL     OW14086   3.876   7.836   9.041
70730SOL    HW114087   3.819   7.903   9.080
70730SOL    HW214088   3.963   7.854   9.079
70731SOL     OW14089   9.696   1.607   8.987
70731SOL    HW114090   9.636   1.566   9.050
70731SOL    HW214091   9.770   1.547   8.982
70732SOL     OW14092   3.155  12.684   9.798
70732SOL    HW114093   3.169  12.747   9.728
70732SOL    HW214094   3.218  12.708   9.866
70733SOL     OW14095   1.132   1.030  10.033
70733SOL    HW114096   1.171   1.033   9.946
70733SOL    HW214097   1.183   1.093  10.085
70734SOL     OW14098   9.975  12.037   2.617
70734SOL    HW114099  10.033  12.001   2.684
70734SOL    HW214100   9.923  11.962   2.587
70735SOL     OW14101   0.133  14.862   3.382
70735SOL    HW114102   0.078  14.837   3.456
70735SOL    HW214103   0.191  14.787   3.367
70736SOL     OW14104  12.391   7.399  11.800
70736SOL    HW114105  12.327   7.372  11.867
70736SOL    HW214106  12.394   7.326  11.739
70737SOL     OW14107   6.663  14.369   1.138
70737SOL    HW114108   6.591  14.425   1.168
70737SOL    HW214109   6.629  14.279   1.148
70738SOL     OW14110   3.188   5.846   6.486
70738SOL    HW114111   3.142   5.871   6.406
70738SOL    HW214112   3.279   5.838   6.459
70739SOL     OW14113  14.458  14.592   3.150
70739SOL    HW114114  14.390  14.648   3.113
70739SOL    HW214115  14.494  14.643   3.222
70740SOL     OW14116  13.931  10.204  11.776
70740SOL    HW114117  13.923  10.179  11.868
70740SOL    HW214118  13.975  10.130  11.734
70741SOL     OW14119   2.927   9.272   6.971
70741SOL    HW114120   2.953   9.182   6.951
70741SOL    HW214121   2.991   9.302   7.035
70742SOL     OW14122  12.863   7.077  13.221
70742SOL    HW114123  12.942   7.118  13.186
70742SOL    HW214124  12.866   6.987  13.187
70743SOL     OW14125   8.242   6.457   2.264
70743SOL    HW114126   8.266   6.446   2.356
70743SOL    HW214127   8.191   6.538   2.261
70744SOL     OW14128   4.707  12.287  12.160
70744SOL    HW114129   4.672  12.339  12.087
70744SOL    HW214130   4.745  12.353  12.218
70745SOL     OW14131  12.856  10.115  12.206
70745SOL    HW114132  12.772  10.159  12.192
70745SOL    HW214133  12.851  10.036  12.151
70746SOL     OW14134  14.181   5.367   1.359
70746SOL    HW114135  14.196   5.460   1.342
70746SOL    HW214136  14.268   5.327   1.352
70747SOL     OW14137   6.643   9.394   9.339
70747SOL    HW114138   6.635   9.397   9.435
70747SOL    HW214139   6.683   9.309   9.321
70748SOL     OW14140   1.766  12.997   8.338
70748SOL    HW114141   1.766  13.064   8.270
70748SOL    HW214142   1.858  12.969   8.343
70749SOL     OW14143  10.323  11.968  13.938
70749SOL    HW114144  10.323  12.064  13.946
70749SOL    HW214145  10.233  11.942  13.957
70750SOL     OW14146  10.331   1.618   9.867
70750SOL    HW114147  10.361   1.690   9.812
70750SOL    HW214148  10.245   1.646   9.898
70751SOL     OW14149   4.475  13.742  14.837
70751SOL    HW114150   4.479  13.791   0.051
70751SOL    HW214151   4.409  13.787  14.785
70752SOL     OW14152   6.678   0.570   7.224
70752SOL    HW114153   6.602   0.538   7.272
70752SOL    HW214154   6.736   0.604   7.292
70753SOL     OW14155   4.506   8.405   9.845
70753SOL    HW114156   4.560   8.427   9.769
70753SOL    HW214157   4.568   8.402   9.918
70754SOL     OW14158   8.935   6.262   4.159
70754SOL    HW114159   8.963   6.170   4.151
70754SOL    HW214160   9.015   6.313   4.144
70755SOL     OW14161   8.553  14.457   6.905
70755SOL    HW114162   8.608  14.415   6.971
70755SOL    HW214163   8.515  14.384   6.856
70756SOL     OW14164  11.619   1.026   6.971
70756SOL    HW114165  11.668   0.987   6.898
70756SOL    HW214166  11.603   0.953   7.031
70757SOL     OW14167   3.417   0.920   8.919
70757SOL    HW114168   3.483   0.988   8.903
70757SOL    HW214169   3.406   0.877   8.834
70758SOL     OW14170   9.252  10.082  13.401
70758SOL    HW114171   9.247  10.162  13.454
70758SOL    HW214172   9.161  10.057  13.386
70759SOL     OW14173   0.904   7.792   8.660
70759SOL    HW114174   0.893   7.875   8.705
70759SOL    HW214175   0.850   7.799   8.582
70760SOL     OW14176   6.536   4.293   1.738
70760SOL    HW114177   6.454   4.304   1.787
70760SOL    HW214178   6.601   4.343   1.788
70761SOL     OW14179  10.871  10.712   7.632
70761SOL    HW114180  10.776  10.714   7.619
70761SOL    HW214181  10.887  10.632   7.682
70762SOL     OW14182  13.699   9.268   4.328
70762SOL    HW114183  13.723   9.226   4.411
70762SOL    HW214184  13.607   9.291   4.338
70763SOL     OW14185   1.028  13.470   3.315
70763SOL    HW114186   1.034  13.556   3.356
70763SOL    HW214187   0.996  13.488   3.227
70764SOL     OW14188   1.205   4.526  12.314
70764SOL    HW114189   1.135   4.464  12.298
70764SOL    HW214190   1.162   4.611  12.317
70765SOL     OW14191  11.543  14.075   5.578
70765SOL    HW114192  11.563  14.037   5.493
70765SOL    HW214193  11.617  14.050   5.633
70766SOL     OW14194   6.790  10.949   2.173
70766SOL    HW114195   6.863  10.997   2.210
70766SOL    HW214196   6.823  10.860   2.159
70767SOL     OW14197   5.303   5.834   7.563
70767SOL    HW114198   5.240   5.906   7.562
70767SOL    HW214199   5.387   5.876   7.583
70768SOL     OW14200   9.001  10.508  11.388
70768SOL    HW114201   8.917  10.546  11.362
70768SOL    HW214202   9.001  10.513  11.483
70769SOL     OW14203  11.523   8.834   9.731
70769SOL    HW114204  11.429   8.815   9.741
70769SOL    HW214205  11.528   8.929   9.728
70770SOL     OW14206   6.363   1.218  11.122
70770SOL    HW114207   6.269   1.238  11.123
70770SOL    HW214208   6.372   1.140  11.176
70771SOL     OW14209   7.620   0.873  11.567
70771SOL    HW114210   7.646   0.787  11.599
70771SOL    HW214211   7.529   0.883  11.595
70772SOL     OW14212   4.373   2.208   8.879
70772SOL    HW114213   4.338   2.295   8.858
70772SOL    HW214214   4.310   2.148   8.840
70773SOL     OW14215   8.120   4.693   3.984
70773SOL    HW114216   8.112   4.785   3.957
70773SOL    HW214217   8.212   4.682   4.004
70774SOL     OW14218   1.692  11.780  11.323
70774SOL    HW114219   1.670  11.867  11.357
70774SOL    HW214220   1.668  11.784  11.230
70775SOL     OW14221  14.646   6.309   7.183
70775SOL    HW114222  14.664   6.291   7.275
70775SOL    HW214223  14.717   6.366   7.155
70776SOL     OW14224   2.908   8.002  12.049
70776SOL    HW114225   2.999   7.972  12.046
70776SOL    HW214226   2.912   8.087  12.093
70777SOL     OW14227  12.756   2.859   2.741
70777SOL    HW114228  12.779   2.780   2.692
70777SOL    HW214229  12.742   2.926   2.673
70778SOL     OW14230   0.302   8.603  13.526
70778SOL    HW114231   0.224   8.635  13.573
70778SOL    HW214232   0.357   8.565  13.595
70779SOL     OW14233   3.693   9.294  12.352
70779SOL    HW114234   3.605   9.260  12.337
70779SOL    HW214235   3.747   9.215  12.366
70780SOL     OW14236   4.008   1.292   9.701
70780SOL    HW114237   4.002   1.385   9.725
70780SOL    HW214238   3.963   1.246   9.773
70781SOL     OW14239  10.389   8.644  13.855
70781SOL    HW114240  10.484   8.656  13.843
70781SOL    HW214241  10.377   8.549  13.857
70782SOL     OW14242   8.077   7.475   4.078
70782SOL    HW114243   8.061   7.413   4.149
70782SOL    HW214244   8.168   7.460   4.053
70783SOL     OW14245   1.693   7.062   5.547
70783SOL    HW114246   1.687   6.969   5.527
70783SOL    HW214247   1.786   7.082   5.540
70784SOL     OW14248   9.666  10.067   3.504
70784SOL    HW114249   9.730   9.996   3.515
70784SOL    HW214250   9.708  10.128   3.443
70785SOL     OW14251   9.003  14.624   2.764
70785SOL    HW114252   8.942  14.683   2.721
70785SOL    HW214253   8.952  14.544   2.778
70786SOL     OW14254  12.004  10.647  14.234
70786SOL    HW114255  12.077  10.627  14.176
70786SOL    HW214256  11.936  10.585  14.210
70787SOL     OW14257  12.930   6.157   6.796
70787SOL    HW114258  12.942   6.122   6.884
70787SOL    HW214259  12.920   6.251   6.808
70788SOL     OW14260  11.948   1.635   9.999
70788SOL    HW114261  11.974   1.604   9.912
70788SOL    HW214262  11.860   1.600  10.011
70789SOL     OW14263   4.834   7.292  11.055
70789SOL    HW114264   4.863   7.337  11.134
70789SOL    HW214265   4.813   7.203  11.085
70790SOL     OW14266   0.793  11.240  14.657
70790SOL    HW114267   0.754  11.298  14.722
70790SOL    HW214268   0.887  11.246  14.671
70791SOL     OW14269   8.829   6.451   9.471
70791SOL    HW114270   8.735   6.433   9.478
70791SOL    HW214271   8.845   6.520   9.536
70792SOL     OW14272   1.172   9.570  13.556
70792SOL    HW114273   1.163   9.529  13.469
70792SOL    HW214274   1.172   9.496  13.617
70793SOL     OW14275   4.965   2.302  12.906
70793SOL    HW114276   4.963   2.207  12.890
70793SOL    HW214277   4.922   2.312  12.991
70794SOL     OW14278   0.178   7.221   3.935
70794SOL    HW114279   0.112   7.152   3.937
70794SOL    HW214280   0.133   7.298   3.970
70795SOL     OW14281  13.453   7.677   9.464
70795SOL    HW114282  13.462   7.644   9.554
70795SOL    HW214283  13.365   7.648   9.437
70796SOL     OW14284   7.737   9.813   1.623
70796SOL    HW114285   7.676   9.742   1.603
70796SOL    HW214286   7.756   9.803   1.716
70797SOL     OW14287   3.008  11.762  14.562
70797SOL    HW114288   2.986  11.796  14.475
70797SOL    HW214289   2.949  11.808  14.622
70798SOL     OW14290   7.030   3.915  10.733
70798SOL    HW114291   7.095   3.957  10.789
70798SOL    HW214292   7.079   3.848  10.686
70799SOL     OW14293   0.656  13.528  14.616
70799SOL    HW114294   0.619  13.486  14.539
70799SOL    HW214295   0.750  13.521  14.604
70800SOL     OW14296   4.894   8.138  12.272
70800SOL    HW114297   4.827   8.143  12.204
70800SOL    HW214298   4.888   8.222  12.317
70801SOL     OW14299   9.525   7.398  10.867
70801SOL    HW114300   9.439   7.439  10.865
70801SOL    HW214301   9.551   7.391  10.775
70802SOL     OW14302   5.733  12.098  12.331
70802SOL    HW114303   5.684  12.034  12.280
70802SOL    HW214304   5.742  12.174  12.273
70803SOL     OW14305   0.186   6.311  12.078
70803SOL    HW114306   0.199   6.392  12.029
70803SOL    HW214307   0.184   6.243  12.012
70804SOL     OW14308  14.078   4.876  14.650
70804SOL    HW114309  14.173   4.864  14.655
70804SOL    HW214310  14.061   4.885  14.556
70805SOL     OW14311   0.416   9.779  12.464
70805SOL    HW114312   0.403   9.701  12.519
70805SOL    HW214313   0.488   9.826  12.507
70806SOL     OW14314  10.326   0.182   3.544
70806SOL    HW114315  10.284   0.110   3.591
70806SOL    HW214316  10.407   0.144   3.509
70807SOL     OW14317   0.853   8.764   1.235
70807SOL    HW114318   0.768   8.722   1.250
70807SOL    HW214319   0.901   8.750   1.316
70808SOL     OW14320  10.437  14.181   3.227
70808SOL    HW114321  10.484  14.112   3.273
70808SOL    HW214322  10.500  14.252   3.217
70809SOL     OW14323   4.696   5.670   4.096
70809SOL    HW114324   4.789   5.653   4.108
70809SOL    HW214325   4.678   5.643   4.006
70810SOL     OW14326   3.082   1.693   0.333
70810SOL    HW114327   3.004   1.735   0.370
70810SOL    HW214328   3.149   1.702   0.401
70811SOL     OW14329   3.619   7.617  12.269
70811SOL    HW114330   3.562   7.691  12.248
70811SOL    HW214331   3.562   7.554  12.311
70812SOL     OW14332   3.659  14.194   1.383
70812SOL    HW114333   3.708  14.157   1.309
70812SOL    HW214334   3.674  14.288   1.376
70813SOL     OW14335  14.232   3.673   6.490
70813SOL    HW114336  14.221   3.730   6.566
70813SOL    HW214337  14.263   3.732   6.421
70814SOL     OW14338  13.114   1.657   3.267
70814SOL    HW114339  13.100   1.645   3.360
70814SOL    HW214340  13.027   1.663   3.229
70815SOL     OW14341   8.473   3.551  12.603
70815SOL    HW114342   8.520   3.478  12.562
70815SOL    HW214343   8.486   3.625  12.543
70816SOL     OW14344   0.268   8.694   4.437
70816SOL    HW114345   0.259   8.664   4.346
70816SOL    HW214346   0.205   8.765   4.445
70817SOL     OW14347  12.557   1.961   1.120
70817SOL    HW114348  12.528   1.982   1.031
70817SOL    HW214349  12.479   1.973   1.174
70818SOL     OW14350   0.806  14.546   1.944
70818SOL    HW114351   0.837  14.581   1.861
70818SOL    HW214352   0.857  14.466   1.957
70819SOL     OW14353   3.636   0.463   0.240
70819SOL    HW114354   3.630   0.478   0.145
70819SOL    HW214355   3.620   0.369   0.250
70820SOL     OW14356   5.795  14.331   3.491
70820SOL    HW114357   5.826  14.347   3.581
70820SOL    HW214358   5.724  14.268   3.501
70821SOL     OW14359   6.692   8.649   9.099
70821SOL    HW114360   6.763   8.677   9.041
70821SOL    HW214361   6.621   8.711   9.082
70822SOL     OW14362  11.413  12.693  13.671
70822SOL    HW114363  11.381  12.779  13.645
70822SOL    HW214364  11.393  12.686  13.764
70823SOL     OW14365   8.337   1.180   5.934
70823SOL    HW114366   8.353   1.200   6.026
70823SOL    HW214367   8.333   1.084   5.931
70824SOL     OW14368   7.951  12.700   6.739
70824SOL    HW114369   7.986  12.643   6.671
70824SOL    HW214370   7.868  12.660   6.764
70825SOL     OW14371   5.312   6.415   5.033
70825SOL    HW114372   5.374   6.366   5.087
70825SOL    HW214373   5.279   6.484   5.090
70826SOL     OW14374   5.810   2.362  13.443
70826SOL    HW114375   5.768   2.355  13.357
70826SOL    HW214376   5.804   2.274  13.480
70827SOL     OW14377  10.755   4.760   1.840
70827SOL    HW114378  10.734   4.707   1.917
70827SOL    HW214379  10.806   4.702   1.783
70828SOL     OW14380   1.587   1.148   6.351
70828SOL    HW114381   1.589   1.115   6.441
70828SOL    HW214382   1.546   1.078   6.301
70829SOL     OW14383   2.841   0.354   6.458
70829SOL    HW114384   2.860   0.416   6.529
70829SOL    HW214385   2.771   0.300   6.492
70830SOL     OW14386  13.887  13.153   5.331
70830SOL    HW114387  13.851  13.064   5.324
70830SOL    HW214388  13.828  13.197   5.392
70831SOL     OW14389   3.334   8.959  14.151
70831SOL    HW114390   3.384   8.988  14.074
70831SOL    HW214391   3.374   9.006  14.225
70832SOL     OW14392   4.387  14.338   3.262
70832SOL    HW114393   4.414  14.252   3.229
70832SOL    HW214394   4.300  14.324   3.298
70833SOL     OW14395   5.521   9.757   4.799
70833SOL    HW114396   5.449   9.813   4.826
70833SOL    HW214397   5.573   9.811   4.740
70834SOL     OW14398  13.670  11.697   4.239
70834SOL    HW114399  13.647  11.656   4.322
70834SOL    HW214400  13.709  11.781   4.264
70835SOL     OW14401   3.734   0.350  12.303
70835SOL    HW114402   3.794   0.404  12.355
70835SOL    HW214403   3.762   0.364  12.212
70836SOL     OW14404   5.229   8.014   0.533
70836SOL    HW114405   5.252   8.056   0.450
70836SOL    HW214406   5.208   8.086   0.591
70837SOL     OW14407   1.740   1.772  10.873
70837SOL    HW114408   1.830   1.803  10.877
70837SOL    HW214409   1.711   1.770  10.965
70838SOL     OW14410   6.382   7.559   9.251
70838SOL    HW114411   6.427   7.475   9.261
70838SOL    HW214412   6.390   7.601   9.336
70839SOL     OW14413   9.423   0.862  12.445
70839SOL    HW114414   9.398   0.950  12.473
70839SOL    HW214415   9.344   0.809  12.460
70840SOL     OW14416   6.428   0.963   0.550
70840SOL    HW114417   6.341   0.924   0.541
70840SOL    HW214418   6.468   0.915   0.623
70841SOL     OW14419  10.536   2.298  11.474
70841SOL    HW114420  10.506   2.250  11.396
70841SOL    HW214421  10.463   2.293  11.535
70842SOL     OW14422  13.815  10.277   4.223
70842SOL    HW114423  13.784  10.236   4.304
70842SOL    HW214424  13.833  10.203   4.164
70843SOL     OW14425   6.864   5.200   8.021
70843SOL    HW114426   6.891   5.286   8.056
70843SOL    HW214427   6.769   5.205   8.018
70844SOL     OW14428  11.201  11.208  14.428
70844SOL    HW114429  11.219  11.220  14.335
70844SOL    HW214430  11.108  11.225  14.437
70845SOL     OW14431   5.551  13.395   6.169
70845SOL    HW114432   5.601  13.475   6.186
70845SOL    HW214433   5.616  13.325   6.165
70846SOL     OW14434   3.494  13.168   5.494
70846SOL    HW114435   3.429  13.155   5.425
70846SOL    HW214436   3.444  13.197   5.570
70847SOL     OW14437  14.734   2.933  12.941
70847SOL    HW114438  14.640   2.950  12.950
70847SOL    HW214439  14.739   2.842  12.911
70848SOL     OW14440  12.040   9.490   0.251
70848SOL    HW114441  12.010   9.578   0.274
70848SOL    HW214442  12.110   9.471   0.313
70849SOL     OW14443   0.086  11.213  10.560
70849SOL    HW114444   0.147  11.236  10.630
70849SOL    HW214445   0.058  11.124  10.581
70850SOL     OW14446   4.209   8.875  14.284
70850SOL    HW114447   4.209   8.805  14.218
70850SOL    HW214448   4.277   8.936  14.254
70851SOL     OW14449  13.519   6.561   1.698
70851SOL    HW114450  13.522   6.468   1.721
70851SOL    HW214451  13.605   6.580   1.661
70852SOL     OW14452   5.545  13.286  13.065
70852SOL    HW114453   5.529  13.222  12.996
70852SOL    HW214454   5.474  13.350  13.055
70853SOL     OW14455   9.845   2.854  13.292
70853SOL    HW114456   9.902   2.930  13.278
70853SOL    HW214457   9.883   2.810  13.368
70854SOL     OW14458  13.355  14.337  13.479
70854SOL    HW114459  13.442  14.296  13.474
70854SOL    HW214460  13.343  14.376  13.392
70855SOL     OW14461   5.301   5.879   1.997
70855SOL    HW114462   5.338   5.804   1.950
70855SOL    HW214463   5.321   5.862   2.089
70856SOL     OW14464   4.516   6.827  13.280
70856SOL    HW114465   4.554   6.911  13.308
70856SOL    HW214466   4.591   6.775  13.251
70857SOL     OW14467   0.364   9.321   8.015
70857SOL    HW114468   0.269   9.308   8.009
70857SOL    HW214469   0.377   9.415   8.001
70858SOL     OW14470   2.909   4.844   6.895
70858SOL    HW114471   2.944   4.815   6.811
70858SOL    HW214472   2.960   4.923   6.916
70859SOL     OW14473   5.904   2.012  13.848
70859SOL    HW114474   5.887   2.105  13.867
70859SOL    HW214475   5.867   1.965  13.923
70860SOL     OW14476   6.811   4.078   7.790
70860SOL    HW114477   6.906   4.066   7.788
70860SOL    HW214478   6.791   4.131   7.713
70861SOL     OW14479   5.691   0.723   0.589
70861SOL    HW114480   5.604   0.763   0.586
70861SOL    HW214481   5.714   0.722   0.682
70862SOL     OW14482   8.576  11.945   6.348
70862SOL    HW114483   8.527  11.993   6.281
70862SOL    HW214484   8.509  11.899   6.398
70863SOL     OW14485  11.339   5.723   0.443
70863SOL    HW114486  11.429   5.713   0.473
70863SOL    HW214487  11.325   5.818   0.442
70864SOL     OW14488   4.928   8.590   2.202
70864SOL    HW114489   4.902   8.665   2.149
70864SOL    HW214490   4.859   8.582   2.268
70865SOL     OW14491   6.831  13.645   8.534
70865SOL    HW114492   6.823  13.556   8.501
70865SOL    HW214493   6.890  13.638   8.609
70866SOL     OW14494  14.005  12.878  11.591
70866SOL    HW114495  14.078  12.936  11.609
70866SOL    HW214496  14.038  12.817  11.526
70867SOL     OW14497  12.737   9.269  13.321
70867SOL    HW114498  12.786   9.224  13.389
70867SOL    HW214499  12.760   9.362  13.332
70868SOL     OW14500  10.395   3.794   1.844
70868SOL    HW114501  10.371   3.709   1.806
70868SOL    HW214502  10.338   3.857   1.801
70869SOL     OW14503   2.518   3.614   0.054
70869SOL    HW114504   2.439   3.659   0.023
70869SOL    HW214505   2.586   3.639  14.859
70870SOL     OW14506   1.449   0.610  12.178
70870SOL    HW114507   1.522   0.570  12.130
70870SOL    HW214508   1.406   0.667  12.114
70871SOL     OW14509   7.901   1.886  11.889
70871SOL    HW114510   7.980   1.880  11.836
70871SOL    HW214511   7.929   1.933  11.968
70872SOL     OW14512  10.165   4.251  11.741
70872SOL    HW114513  10.198   4.318  11.682
70872SOL    HW214514  10.146   4.176  11.684
70873SOL     OW14515   2.155   5.635   2.853
70873SOL    HW114516   2.102   5.663   2.927
70873SOL    HW214517   2.121   5.685   2.778
70874SOL     OW14518  12.159   5.224  10.896
70874SOL    HW114519  12.144   5.154  10.959
70874SOL    HW214520  12.189   5.298  10.950
70875SOL     OW14521   0.512  10.882   0.196
70875SOL    HW114522   0.560  10.906   0.117
70875SOL    HW214523   0.468  10.800   0.174
70876SOL     OW14524   7.566   9.865   6.453
70876SOL    HW114525   7.488   9.812   6.471
70876SOL    HW214526   7.619   9.810   6.395
70877SOL     OW14527   7.644   7.018  12.268
70877SOL    HW114528   7.716   6.956  12.260
70877SOL    HW214529   7.626   7.045  12.178
70878SOL     OW14530  12.342   9.935   4.719
70878SOL    HW114531  12.277  10.005   4.705
70878SOL    HW214532  12.292   9.854   4.711
70879SOL     OW14533   2.485   8.140   7.658
70879SOL    HW114534   2.469   8.148   7.752
70879SOL    HW214535   2.491   8.231   7.628
70880SOL     OW14536   5.107   4.610  12.056
70880SOL    HW114537   5.083   4.606  12.148
70880SOL    HW214538   5.173   4.679  12.051
70881SOL     OW14539  12.615   1.740  11.774
70881SOL    HW114540  12.652   1.749  11.686
70881SOL    HW214541  12.680   1.781  11.831
70882SOL     OW14542   1.242  12.659   5.432
70882SOL    HW114543   1.257  12.743   5.476
70882SOL    HW214544   1.202  12.683   5.348
70883SOL     OW14545  11.147   9.697   2.103
70883SOL    HW114546  11.226   9.751   2.102
70883SOL    HW214547  11.118   9.695   2.011
70884SOL     OW14548   1.064   6.492   3.761
70884SOL    HW114549   1.079   6.530   3.674
70884SOL    HW214550   0.981   6.530   3.790
70885SOL     OW14551  11.813   0.397   2.633
70885SOL    HW114552  11.733   0.418   2.682
70885SOL    HW214553  11.809   0.454   2.556
70886SOL     OW14554   8.481  13.497   7.770
70886SOL    HW114555   8.387  13.482   7.756
70886SOL    HW214556   8.520  13.482   7.684
70887SOL     OW14557   3.906   0.043  11.783
70887SOL    HW114558   3.817   0.055  11.817
70887SOL    HW214559   3.957   0.014  11.858
70888SOL     OW14560   3.978  11.156   1.317
70888SOL    HW114561   4.071  11.172   1.300
70888SOL    HW214562   3.975  11.066   1.350
70889SOL     OW14563   9.815   6.489   4.652
70889SOL    HW114564   9.750   6.437   4.604
70889SOL    HW214565   9.796   6.580   4.627
70890SOL     OW14566   2.857   1.634   9.878
70890SOL    HW114567   2.921   1.578   9.921
70890SOL    HW214568   2.891   1.723   9.891
70891SOL     OW14569   0.936   0.627   9.374
70891SOL    HW114570   0.920   0.534   9.358
70891SOL    HW214571   0.871   0.671   9.320
70892SOL     OW14572   4.423   4.726   6.829
70892SOL    HW114573   4.421   4.805   6.884
70892SOL    HW214574   4.443   4.759   6.741
70893SOL     OW14575   3.873   5.218   5.646
70893SOL    HW114576   3.870   5.148   5.581
70893SOL    HW214577   3.787   5.261   5.639
70894SOL     OW14578   0.315   5.643   8.036
70894SOL    HW114579   0.226   5.613   8.018
70894SOL    HW214580   0.345   5.680   7.953
70895SOL     OW14581   6.232  10.283  14.801
70895SOL    HW114582   6.306  10.311  14.748
70895SOL    HW214583   6.265  10.209  14.852
70896SOL     OW14584   6.315  12.374   3.869
70896SOL    HW114585   6.362  12.329   3.799
70896SOL    HW214586   6.320  12.314   3.944
70897SOL     OW14587  13.370   9.507   4.875
70897SOL    HW114588  13.391   9.416   4.895
70897SOL    HW214589  13.330   9.541   4.956
70898SOL     OW14590   0.866   0.081   6.254
70898SOL    HW114591   0.946   0.078   6.201
70898SOL    HW214592   0.796   0.059   6.192
70899SOL     OW14593  10.172  12.666  14.413
70899SOL    HW114594  10.259  12.646  14.378
70899SOL    HW214595  10.152  12.753  14.379
70900SOL     OW14596   6.902  12.722   3.663
70900SOL    HW114597   6.809  12.698   3.655
70900SOL    HW214598   6.922  12.766   3.580
70901SOL     OW14599   1.665  12.058   6.045
70901SOL    HW114600   1.607  11.994   6.087
70901SOL    HW214601   1.621  12.142   6.058
70902SOL     OW14602   3.618   8.366   5.368
70902SOL    HW114603   3.602   8.297   5.304
70902SOL    HW214604   3.532   8.404   5.384
70903SOL     OW14605   8.719  13.977  14.084
70903SOL    HW114606   8.716  13.943  13.995
70903SOL    HW214607   8.662  14.055  14.082
70904SOL     OW14608  14.017   3.246   3.085
70904SOL    HW114609  13.991   3.163   3.124
70904SOL    HW214610  13.997   3.311   3.152
70905SOL     OW14611   0.143   7.563  11.092
70905SOL    HW114612   0.237   7.576  11.098
70905SOL    HW214613   0.115   7.540  11.181
70906SOL     OW14614  10.593   7.484  11.151
70906SOL    HW114615  10.552   7.559  11.108
70906SOL    HW214616  10.520   7.435  11.188
70907SOL     OW14617   5.158   8.194  11.349
70907SOL    HW114618   5.196   8.224  11.432
70907SOL    HW214619   5.160   8.272  11.293
70908SOL     OW14620   8.814   5.139  10.583
70908SOL    HW114621   8.732   5.118  10.629
70908SOL    HW214622   8.789   5.208  10.521
70909SOL     OW14623   1.707   3.479  10.633
70909SOL    HW114624   1.753   3.432  10.702
70909SOL    HW214625   1.614   3.466  10.652
70910SOL     OW14626  14.272   1.709  10.801
70910SOL    HW114627  14.281   1.639  10.737
70910SOL    HW214628  14.187   1.693  10.843
70911SOL     OW14629  11.789   6.391   6.501
70911SOL    HW114630  11.875   6.386   6.543
70911SOL    HW214631  11.783   6.480   6.468
70912SOL     OW14632   9.108   4.973   5.682
70912SOL    HW114633   9.123   5.020   5.600
70912SOL    HW214634   9.185   4.994   5.736
70913SOL     OW14635   5.222   5.885  14.752
70913SOL    HW114636   5.141   5.934  14.760
70913SOL    HW214637   5.195   5.793  14.752
70914SOL     OW14638  12.882   4.835   2.011
70914SOL    HW114639  12.936   4.757   2.000
70914SOL    HW214640  12.822   4.833   1.936
70915SOL     OW14641   7.651  10.699   0.834
70915SOL    HW114642   7.695  10.649   0.765
70915SOL    HW214643   7.661  10.791   0.807
70916SOL     OW14644   4.445   2.479   6.885
70916SOL    HW114645   4.503   2.537   6.933
70916SOL    HW214646   4.381   2.449   6.950
70917SOL     OW14647   3.991   8.859  10.030
70917SOL    HW114648   4.027   8.948  10.034
70917SOL    HW214649   4.031   8.813  10.103
70918SOL     OW14650   2.366   2.322  11.199
70918SOL    HW114651   2.381   2.263  11.125
70918SOL    HW214652   2.438   2.303  11.259
70919SOL     OW14653   1.746   1.387   8.741
70919SOL    HW114654   1.791   1.439   8.808
70919SOL    HW214655   1.736   1.301   8.780
70920SOL     OW14656   5.856   8.687  14.623
70920SOL    HW114657   5.939   8.678  14.669
70920SOL    HW214658   5.791   8.649  14.682
70921SOL     OW14659   6.482   0.420   3.738
70921SOL    HW114660   6.415   0.463   3.685
70921SOL    HW214661   6.434   0.355   3.790
70922SOL     OW14662  14.472   5.096   5.588
70922SOL    HW114663  14.545   5.136   5.634
70922SOL    HW214664  14.436   5.032   5.651
70923SOL     OW14665   7.007   3.942   8.367
70923SOL    HW114666   7.087   3.985   8.335
70923SOL    HW214667   6.970   4.004   8.429
70924SOL     OW14668   2.964   8.141   4.264
70924SOL    HW114669   2.968   8.149   4.359
70924SOL    HW214670   2.981   8.048   4.248
70925SOL     OW14671   4.501   3.401   0.527
70925SOL    HW114672   4.499   3.379   0.434
70925SOL    HW214673   4.426   3.354   0.564
70926SOL     OW14674   4.543   7.633   0.297
70926SOL    HW114675   4.469   7.597   0.346
70926SOL    HW214676   4.572   7.708   0.347
70927SOL     OW14677   7.813  11.605   5.738
70927SOL    HW114678   7.792  11.539   5.804
70927SOL    HW214679   7.905  11.591   5.718
70928SOL     OW14680   7.898   1.656   4.191
70928SOL    HW114681   7.943   1.607   4.122
70928SOL    HW214682   7.961   1.722   4.219
70929SOL     OW14683  14.178   0.465   7.708
70929SOL    HW114684  14.143   0.523   7.640
70929SOL    HW214685  14.191   0.381   7.664
70930SOL     OW14686   3.292   9.959  12.993
70930SOL    HW114687   3.206   9.951  12.953
70930SOL    HW214688   3.274   9.987  13.083
70931SOL     OW14689   5.825  10.539  14.497
70931SOL    HW114690   5.847  10.565  14.587
70931SOL    HW214691   5.807  10.445  14.504
70932SOL     OW14692   4.784   9.077   1.257
70932SOL    HW114693   4.807   8.998   1.306
70932SOL    HW214694   4.712   9.116   1.307
70933SOL     OW14695   0.485  13.000   0.674
70933SOL    HW114696   0.478  13.008   0.769
70933SOL    HW214697   0.540  13.073   0.648
70934SOL     OW14698  10.640   4.147  14.371
70934SOL    HW114699  10.725   4.146  14.327
70934SOL    HW214700  10.582   4.099  14.312
70935SOL     OW14701  13.212   2.672  10.467
70935SOL    HW114702  13.306   2.690  10.473
70935SOL    HW214703  13.170   2.749  10.505
70936SOL     OW14704   2.957   1.073   3.358
70936SOL    HW114705   2.876   1.051   3.405
70936SOL    HW214706   2.927   1.126   3.284
70937SOL     OW14707   7.404   8.801   4.968
70937SOL    HW114708   7.484   8.851   4.978
70937SOL    HW214709   7.397   8.750   5.048
70938SOL     OW14710   8.085   1.781   9.065
70938SOL    HW114711   7.997   1.818   9.064
70938SOL    HW214712   8.125   1.817   9.144
70939SOL     OW14713   7.929   9.753   7.354
70939SOL    HW114714   8.014   9.762   7.398
70939SOL    HW214715   7.869   9.726   7.424
70940SOL     OW14716   6.471   4.801   4.706
70940SOL    HW114717   6.565   4.800   4.726
70940SOL    HW214718   6.466   4.782   4.612
70941SOL     OW14719  13.195   2.297   7.084
70941SOL    HW114720  13.252   2.342   7.020
70941SOL    HW214721  13.122   2.357   7.097
70942SOL     OW14722  10.577   5.489  10.583
70942SOL    HW114723  10.487   5.491  10.613
70942SOL    HW214724  10.576   5.431  10.507
70943SOL     OW14725  14.438  11.948  12.806
70943SOL    HW114726  14.345  11.929  12.795
70943SOL    HW214727  14.457  12.015  12.740
70944SOL     OW14728  13.166  13.181   6.018
70944SOL    HW114729  13.216  13.116   6.067
70944SOL    HW214730  13.186  13.163   5.926
70945SOL     OW14731   1.195   4.500   3.780
70945SOL    HW114732   1.159   4.479   3.866
70945SOL    HW214733   1.154   4.582   3.755
70946SOL     OW14734   2.582   1.811   9.611
70946SOL    HW114735   2.565   1.717   9.611
70946SOL    HW214736   2.498   1.851   9.588
70947SOL     OW14737   0.951  14.835   0.371
70947SOL    HW114738   0.985   0.036   0.428
70947SOL    HW214739   0.865  14.866   0.343
70948SOL     OW14740   9.539  13.915  11.506
70948SOL    HW114741   9.472  13.850  11.485
70948SOL    HW214742   9.622  13.866  11.503
70949SOL     OW14743   8.620   5.654  14.745
70949SOL    HW114744   8.683   5.666  14.816
70949SOL    HW214745   8.653   5.709  14.674
70950SOL     OW14746  12.709   7.748   8.927
70950SOL    HW114747  12.738   7.659   8.949
70950SOL    HW214748  12.715   7.796   9.010
70951SOL     OW14749   1.749   8.247   7.897
70951SOL    HW114750   1.765   8.244   7.991
70951SOL    HW214751   1.728   8.339   7.878
70952SOL     OW14752   9.799  12.358   3.792
70952SOL    HW114753   9.878  12.406   3.816
70952SOL    HW214754   9.753  12.344   3.874
70953SOL     OW14755   3.403   5.303  14.831
70953SOL    HW114756   3.372   5.213  14.834
70953SOL    HW214757   3.350   5.349   0.029
70954SOL     OW14758  10.815  12.910   6.834
70954SOL    HW114759  10.867  12.989   6.845
70954SOL    HW214760  10.872  12.850   6.785
70955SOL     OW14761  14.404   7.071  12.181
70955SOL    HW114762  14.342   7.142  12.165
70955SOL    HW214763  14.476   7.113  12.229
70956SOL     OW14764  13.280   4.036   8.192
70956SOL    HW114765  13.300   3.984   8.114
70956SOL    HW214766  13.188   4.060   8.182
70957SOL     OW14767   4.156   8.526  11.692
70957SOL    HW114768   4.152   8.477  11.774
70957SOL    HW214769   4.178   8.615  11.718
70958SOL     OW14770   4.410   0.147   0.519
70958SOL    HW114771   4.405   0.171   0.612
70958SOL    HW214772   4.447   0.059   0.518
70959SOL     OW14773  14.128  10.756   3.818
70959SOL    HW114774  14.091  10.670   3.838
70959SOL    HW214775  14.095  10.776   3.730
70960SOL     OW14776  11.703   8.352  10.310
70960SOL    HW114777  11.771   8.314  10.255
70960SOL    HW214778  11.621   8.320  10.273
70961SOL     OW14779   4.805   8.850   0.126
70961SOL    HW114780   4.871   8.861   0.059
70961SOL    HW214781   4.722   8.854   0.079
70962SOL     OW14782   7.871  11.874   6.730
70962SOL    HW114783   7.906  11.963   6.727
70962SOL    HW214784   7.843  11.856   6.641
70963SOL     OW14785   0.169   5.944   7.244
70963SOL    HW114786   0.187   6.010   7.311
70963SOL    HW214787   0.255   5.911   7.219
70964SOL     OW14788  11.650  14.570   2.557
70964SOL    HW114789  11.639  14.532   2.644
70964SOL    HW214790  11.653  14.665   2.572
70965SOL     OW14791  13.969   8.311   1.835
70965SOL    HW114792  14.015   8.267   1.907
70965SOL    HW214793  13.939   8.239   1.779
70966SOL     OW14794   9.500  14.707   5.764
70966SOL    HW114795   9.424  14.737   5.714
70966SOL    HW214796   9.493  14.611   5.761
70967SOL     OW14797   8.587   4.788   3.594
70967SOL    HW114798   8.658   4.835   3.639
70967SOL    HW214799   8.630   4.711   3.555
70968SOL     OW14800  12.519  13.667  11.846
70968SOL    HW114801  12.489  13.647  11.934
70968SOL    HW214802  12.614  13.674  11.853
70969SOL     OW14803   8.707   3.338  12.589
70969SOL    HW114804   8.780   3.307  12.536
70969SOL    HW214805   8.640   3.270  12.580
70970SOL     OW14806   6.246  13.415   0.319
70970SOL    HW114807   6.340  13.427   0.330
70970SOL    HW214808   6.226  13.335   0.366
70971SOL     OW14809   4.942  11.299   3.917
70971SOL    HW114810   4.864  11.339   3.877
70971SOL    HW214811   4.918  11.207   3.928
70972SOL     OW14812   4.719  13.348   7.426
70972SOL    HW114813   4.625  13.331   7.418
70972SOL    HW214814   4.736  13.419   7.365
70973SOL     OW14815   3.021   1.961  11.472
70973SOL    HW114816   2.957   1.959  11.401
70973SOL    HW214817   3.018   1.873  11.510
70974SOL     OW14818   9.601  12.761   3.971
70974SOL    HW114819   9.618  12.813   3.892
70974SOL    HW214820   9.569  12.677   3.937
70975SOL     OW14821  12.331   3.974  13.696
70975SOL    HW114822  12.394   3.914  13.736
70975SOL    HW214823  12.321   3.943  13.606
70976SOL     OW14824  10.076   1.707   3.402
70976SOL    HW114825  10.054   1.625   3.357
70976SOL    HW214826  10.050   1.776   3.340
70977SOL     OW14827  12.661   6.770   0.336
70977SOL    HW114828  12.702   6.840   0.387
70977SOL    HW214829  12.733   6.714   0.309
70978SOL     OW14830   6.594   0.370  13.618
70978SOL    HW114831   6.689   0.374  13.612
70978SOL    HW214832   6.565   0.461  13.612
70979SOL     OW14833   1.869   4.303   8.086
70979SOL    HW114834   1.949   4.319   8.037
70979SOL    HW214835   1.883   4.217   8.127
70980SOL     OW14836   3.583   1.031  10.992
70980SOL    HW114837   3.575   1.117  11.033
70980SOL    HW214838   3.671   1.000  11.017
70981SOL     OW14839   9.219   2.943  11.407
70981SOL    HW114840   9.267   3.025  11.422
70981SOL    HW214841   9.269   2.897  11.341
70982SOL     OW14842   9.197   5.460   8.791
70982SOL    HW114843   9.237   5.436   8.874
70982SOL    HW214844   9.114   5.412   8.790
70983SOL     OW14845   8.512   4.002   2.561
70983SOL    HW114846   8.481   3.999   2.652
70983SOL    HW214847   8.543   4.092   2.549
70984SOL     OW14848  14.324   1.930   3.290
70984SOL    HW114849  14.264   1.968   3.226
70984SOL    HW214850  14.355   2.005   3.341
70985SOL     OW14851   8.706   3.565   7.392
70985SOL    HW114852   8.762   3.518   7.454
70985SOL    HW214853   8.685   3.648   7.435
70986SOL     OW14854   1.209  14.406  14.344
70986SOL    HW114855   1.154  14.449  14.278
70986SOL    HW214856   1.169  14.428  14.428
70987SOL     OW14857   8.616   0.852  12.451
70987SOL    HW114858   8.668   0.927  12.480
70987SOL    HW214859   8.527   0.887  12.439
70988SOL     OW14860   1.239   6.412   3.019
70988SOL    HW114861   1.178   6.484   3.005
70988SOL    HW214862   1.317   6.436   2.969
70989SOL     OW14863  12.104  10.534  13.765
70989SOL    HW114864  12.017  10.513  13.732
70989SOL    HW214865  12.161  10.528  13.688
70990SOL     OW14866  12.020   5.470  10.413
70990SOL    HW114867  12.052   5.452  10.501
70990SOL    HW214868  11.949   5.407  10.400
70991SOL     OW14869   2.718   3.573  11.747
70991SOL    HW114870   2.703   3.559  11.840
70991SOL    HW214871   2.811   3.597  11.741
70992SOL     OW14872   9.199  10.956   2.930
70992SOL    HW114873   9.114  10.982   2.894
70992SOL    HW214874   9.200  10.860   2.919
70993SOL     OW14875   5.260  10.098   6.277
70993SOL    HW114876   5.217  10.030   6.329
70993SOL    HW214877   5.350  10.099   6.307
70994SOL     OW14878   9.781  12.221   0.508
70994SOL    HW114879   9.763  12.228   0.602
70994SOL    HW214880   9.810  12.131   0.495
70995SOL     OW14881   7.648   0.345   6.926
70995SOL    HW114882   7.734   0.329   6.888
70995SOL    HW214883   7.609   0.412   6.870
70996SOL     OW14884  13.572  12.007   9.890
70996SOL    HW114885  13.488  12.013   9.844
70996SOL    HW214886  13.572  11.919   9.929
70997SOL     OW14887  14.411  11.227   5.114
70997SOL    HW114888  14.478  11.275   5.163
70997SOL    HW214889  14.459  11.158   5.068
70998SOL     OW14890   3.547   4.081   6.872
70998SOL    HW114891   3.569   4.069   6.965
70998SOL    HW214892   3.588   4.164   6.848
70999SOL     OW14893   9.709   5.138   2.052
70999SOL    HW114894   9.716   5.043   2.061
70999SOL    HW214895   9.728   5.154   1.960
71000SOL     OW14896  10.303   8.072  14.856
71000SOL    HW114897  10.332   8.161  14.835
71000SOL    HW214898  10.210   8.082   0.011
71001SOL     OW14899  13.964  12.184  14.285
71001SOL    HW114900  14.024  12.251  14.255
71001SOL    HW214901  13.973  12.185  14.380
71002SOL     OW14902   1.528  12.131  12.469
71002SOL    HW114903   1.434  12.139  12.456
71002SOL    HW214904   1.538  12.084  12.551
71003SOL     OW14905  13.262  13.743   9.132
71003SOL    HW114906  13.263  13.750   9.036
71003SOL    HW214907  13.287  13.830   9.162
71004SOL     OW14908   0.082   9.881   6.087
71004SOL    HW114909   0.120   9.961   6.123
71004SOL    HW214910   0.037   9.840   6.160
71005SOL     OW14911  10.693   9.400  14.348
71005SOL    HW114912  10.785   9.390  14.323
71005SOL    HW214913  10.648   9.329  14.303
71006SOL     OW14914  14.101   2.179  11.286
71006SOL    HW114915  14.063   2.266  11.286
71006SOL    HW214916  14.178   2.186  11.343
71007SOL     OW14917   7.219  10.059   2.570
71007SOL    HW114918   7.269  10.113   2.509
71007SOL    HW214919   7.216  10.110   2.651
71008SOL     OW14920  13.236  12.383  13.810
71008SOL    HW114921  13.273  12.355  13.893
71008SOL    HW214922  13.226  12.478  13.819
71009SOL     OW14923   8.529   4.760   8.582
71009SOL    HW114924   8.457   4.816   8.613
71009SOL    HW214925   8.502   4.734   8.494
71010SOL     OW14926  12.208   7.059  10.068
71010SOL    HW114927  12.257   6.978  10.083
71010SOL    HW214928  12.229   7.083   9.977
71011SOL     OW14929   3.130  14.524  11.186
71011SOL    HW114930   3.176  14.518  11.269
71011SOL    HW214931   3.196  14.502  11.120
71012SOL     OW14932   5.297   0.840   5.557
71012SOL    HW114933   5.231   0.820   5.491
71012SOL    HW214934   5.379   0.808   5.520
71013SOL     OW14935  12.157   8.379  13.616
71013SOL    HW114936  12.237   8.378  13.668
71013SOL    HW214937  12.185   8.355  13.528
71014SOL     OW14938   3.942   5.353   4.005
71014SOL    HW114939   4.001   5.284   3.974
71014SOL    HW214940   3.937   5.339   4.100
71015SOL     OW14941  10.417  10.057  14.600
71015SOL    HW114942  10.447   9.994  14.667
71015SOL    HW214943  10.343  10.102  14.642
71016SOL     OW14944   4.140   0.198   1.826
71016SOL    HW114945   4.063   0.180   1.881
71016SOL    HW214946   4.108   0.255   1.757
71017SOL     OW14947  13.621   6.525   2.041
71017SOL    HW114948  13.623   6.446   2.095
71017SOL    HW214949  13.528   6.542   2.029
71018SOL     OW14950  13.311   8.775  12.609
71018SOL    HW114951  13.260   8.752  12.531
71018SOL    HW214952  13.397   8.799  12.575
71019SOL     OW14953  13.422   6.998  13.938
71019SOL    HW114954  13.510   6.962  13.949
71019SOL    HW214955  13.430   7.090  13.962
71020SOL     OW14956   7.404  14.836  12.417
71020SOL    HW114957   7.334  14.848  12.481
71020SOL    HW214958   7.485  14.844  12.468
71021SOL     OW14959  12.379  10.931   2.206
71021SOL    HW114960  12.395  10.858   2.147
71021SOL    HW214961  12.284  10.944   2.202
71022SOL     OW14962  10.972   8.519   9.682
71022SOL    HW114963  10.892   8.543   9.637
71022SOL    HW214964  10.946   8.449   9.742
71023SOL     OW14965  10.710   6.431  13.933
71023SOL    HW114966  10.707   6.374  13.856
71023SOL    HW214967  10.659   6.385  13.999
71024SOL     OW14968  11.092   5.799   5.589
71024SOL    HW114969  11.152   5.753   5.530
71024SOL    HW214970  11.035   5.730   5.623
71025SOL     OW14971   9.408  10.387   5.942
71025SOL    HW114972   9.318  10.381   5.976
71025SOL    HW214973   9.454  10.441   6.007
71026SOL     OW14974   2.658  11.832   2.636
71026SOL    HW114975   2.658  11.928   2.639
71026SOL    HW214976   2.582  11.810   2.582
71027SOL     OW14977   8.401  13.707  14.003
71027SOL    HW114978   8.437  13.622  13.979
71027SOL    HW214979   8.383  13.750  13.919
71028SOL     OW14980   4.022   1.673   0.302
71028SOL    HW114981   4.099   1.697   0.354
71028SOL    HW214982   4.050   1.596   0.252
71029SOL     OW14983  14.128  12.729   4.928
71029SOL    HW114984  14.150  12.637   4.917
71029SOL    HW214985  14.081  12.752   4.848
71030SOL     OW14986   2.050  11.866   2.697
71030SOL    HW114987   1.987  11.864   2.769
71030SOL    HW214988   2.006  11.820   2.626
71031SOL     OW14989   1.904   9.190  14.026
71031SOL    HW114990   1.901   9.151  14.114
71031SOL    HW214991   1.994   9.223  14.019
71032SOL     OW14992   1.866   9.322  12.902
71032SOL    HW114993   1.939   9.311  12.964
71032SOL    HW214994   1.841   9.233  12.878
71033SOL     OW14995  11.787  13.774  10.358
71033SOL    HW114996  11.732  13.848  10.330
71033SOL    HW214997  11.736  13.732  10.428
71034SOL     OW14998   6.881   6.000  10.169
71034SOL    HW114999   6.812   5.996  10.234
71034SOL    HW215000   6.836   6.022  10.088
71035SOL     OW15001   0.666   1.287   5.866
71035SOL    HW115002   0.707   1.254   5.946
71035SOL    HW215003   0.637   1.208   5.820
71036SOL     OW15004  14.302   8.251  14.717
71036SOL    HW115005  14.244   8.292  14.780
71036SOL    HW215006  14.386   8.297  14.728
71037SOL     OW15007  14.466   3.987   4.410
71037SOL    HW115008  14.537   3.962   4.351
71037SOL    HW215009  14.393   3.931   4.384
71038SOL     OW15010   4.055   1.568   9.692
71038SOL    HW115011   4.129   1.624   9.669
71038SOL    HW215012   4.007   1.557   9.609
71039SOL     OW15013  12.450   8.007   4.385
71039SOL    HW115014  12.424   7.921   4.353
71039SOL    HW215015  12.415   8.012   4.474
71040SOL     OW15016   9.775   4.855  11.049
71040SOL    HW115017   9.697   4.863  10.995
71040SOL    HW215018   9.834   4.922  11.015
71041SOL     OW15019   4.538   9.625   7.181
71041SOL    HW115020   4.553   9.680   7.258
71041SOL    HW215021   4.561   9.537   7.210
71042SOL     OW15022  11.695   7.653  12.463
71042SOL    HW115023  11.788   7.629  12.465
71042SOL    HW215024  11.688   7.728  12.523
71043SOL     OW15025   9.105   7.974  13.263
71043SOL    HW115026   9.133   8.060  13.293
71043SOL    HW215027   9.092   7.923  13.343
71044SOL     OW15028   5.083   1.668  12.924
71044SOL    HW115029   5.160   1.633  12.969
71044SOL    HW215030   5.058   1.598  12.863
71045SOL     OW15031  11.393   5.639  14.348
71045SOL    HW115032  11.358   5.699  14.414
71045SOL    HW215033  11.463   5.592  14.394
71046SOL     OW15034   6.645  14.141   0.716
71046SOL    HW115035   6.621  14.234   0.718
71046SOL    HW215036   6.564  14.095   0.738
71047SOL     OW15037   1.884  12.328   6.563
71047SOL    HW115038   1.955  12.390   6.553
71047SOL    HW215039   1.876  12.315   6.657
71048SOL     OW15040   1.700   2.236  14.470
71048SOL    HW115041   1.745   2.269  14.548
71048SOL    HW215042   1.612   2.272  14.477
71049SOL     OW15043   0.313   4.713   4.748
71049SOL    HW115044   0.327   4.760   4.830
71049SOL    HW215045   0.258   4.771   4.695
71050SOL     OW15046  13.280   7.560   6.846
71050SOL    HW115047  13.188   7.539   6.829
71050SOL    HW215048  13.317   7.577   6.760
71051SOL     OW15049   9.573  10.176   8.772
71051SOL    HW115050   9.601  10.223   8.694
71051SOL    HW215051   9.512  10.110   8.740
71052SOL     OW15052   1.353   2.571   9.701
71052SOL    HW115053   1.313   2.658   9.707
71052SOL    HW215054   1.439   2.581   9.742
71053SOL     OW15055   5.039   8.015   2.252
71053SOL    HW115056   5.083   8.031   2.168
71053SOL    HW215057   5.108   7.981   2.309
71054SOL     OW15058   0.202   5.719   8.544
71054SOL    HW115059   0.239   5.715   8.455
71054SOL    HW215060   0.185   5.812   8.558
71055SOL     OW15061  10.907  12.062   8.158
71055SOL    HW115062  10.857  12.093   8.082
71055SOL    HW215063  10.924  11.970   8.139
71056SOL     OW15064  13.332  10.249   3.092
71056SOL    HW115065  13.375  10.181   3.039
71056SOL    HW215066  13.326  10.324   3.033
71057SOL     OW15067   2.015   5.843   0.592
71057SOL    HW115068   2.039   5.934   0.575
71057SOL    HW215069   1.920   5.842   0.588
71058SOL     OW15070   8.544   5.131   4.619
71058SOL    HW115071   8.605   5.196   4.655
71058SOL    HW215072   8.568   5.049   4.662
71059SOL     OW15073   9.784  12.264   7.885
71059SOL    HW115074   9.848  12.329   7.915
71059SOL    HW215075   9.708  12.277   7.941
71060SOL     OW15076   9.238  12.088   2.544
71060SOL    HW115077   9.203  12.135   2.468
71060SOL    HW215078   9.179  12.110   2.616
71061SOL     OW15079   5.809  14.435   1.018
71061SOL    HW115080   5.862  14.371   0.970
71061SOL    HW215081   5.870  14.472   1.083
71062SOL     OW15082   1.676   1.574  12.450
71062SOL    HW115083   1.636   1.585  12.364
71062SOL    HW215084   1.602   1.582  12.511
71063SOL     OW15085  13.300   6.242   5.107
71063SOL    HW115086  13.230   6.268   5.167
71063SOL    HW215087  13.332   6.325   5.071
71064SOL     OW15088   8.200   9.979   3.422
71064SOL    HW115089   8.189   9.930   3.341
71064SOL    HW215090   8.209  10.070   3.394
71065SOL     OW15091   6.452   9.856   8.950
71065SOL    HW115092   6.419   9.777   8.907
71065SOL    HW215093   6.524   9.885   8.894
71066SOL     OW15094   7.121   2.499   5.045
71066SOL    HW115095   7.071   2.557   4.987
71066SOL    HW215096   7.112   2.412   5.006
71067SOL     OW15097   8.025   4.846  12.643
71067SOL    HW115098   7.939   4.869  12.609
71067SOL    HW215099   8.083   4.850  12.567
71068SOL     OW15100   3.196  11.568   1.764
71068SOL    HW115101   3.223  11.598   1.850
71068SOL    HW215102   3.233  11.632   1.703
71069SOL     OW15103   4.319   9.090   9.490
71069SOL    HW115104   4.305   9.164   9.431
71069SOL    HW215105   4.378   9.031   9.442
71070SOL     OW15106  10.558  14.783   3.968
71070SOL    HW115107  10.580  14.846   4.036
71070SOL    HW215108  10.587  14.698   4.003
71071SOL     OW15109  11.018  14.245   0.448
71071SOL    HW115110  10.935  14.252   0.496
71071SOL    HW215111  11.082  14.218   0.513
71072SOL     OW15112   4.286  10.265   1.021
71072SOL    HW115113   4.243  10.190   1.061
71072SOL    HW215114   4.351  10.228   0.961
71073SOL     OW15115  13.163  10.484   8.828
71073SOL    HW115116  13.231  10.522   8.883
71073SOL    HW215117  13.179  10.389   8.831
71074SOL     OW15118   1.847   2.611  14.860
71074SOL    HW115119   1.923   2.574   0.038
71074SOL    HW215120   1.849   2.704   0.014
71075SOL     OW15121  12.201   8.764  11.553
71075SOL    HW115122  12.153   8.772  11.470
71075SOL    HW215123  12.275   8.824  11.544
71076SOL     OW15124   7.654  10.599  10.248
71076SOL    HW115125   7.713  10.585  10.174
71076SOL    HW215126   7.700  10.562  10.323
71077SOL     OW15127  14.240   3.325  14.026
71077SOL    HW115128  14.207   3.247  13.980
71077SOL    HW215129  14.162   3.378  14.041
71078SOL     OW15130  10.044   0.190   3.035
71078SOL    HW115131   9.981   0.179   2.963
71078SOL    HW215132  10.125   0.151   3.002
71079SOL     OW15133   2.005  14.399   8.394
71079SOL    HW115134   2.040  14.356   8.317
71079SOL    HW215135   2.028  14.491   8.383
71080SOL     OW15136   1.077   9.052  14.437
71080SOL    HW115137   0.996   9.101  14.420
71080SOL    HW215138   1.129   9.064  14.358
71081SOL     OW15139  12.460   2.040   3.567
71081SOL    HW115140  12.528   2.071   3.627
71081SOL    HW215141  12.451   2.110   3.503
71082SOL     OW15142   5.291   6.739  10.331
71082SOL    HW115143   5.258   6.669  10.276
71082SOL    HW215144   5.360   6.699  10.384
71083SOL     OW15145   5.196  14.680  12.816
71083SOL    HW115146   5.192  14.639  12.729
71083SOL    HW215147   5.231  14.611  12.873
71084SOL     OW15148   6.014  14.836   5.971
71084SOL    HW115149   6.035   0.041   5.912
71084SOL    HW215150   6.075  14.767   5.947
71085SOL     OW15151   7.572   5.029   1.569
71085SOL    HW115152   7.643   4.995   1.515
71085SOL    HW215153   7.614   5.057   1.650
71086SOL     OW15154   0.007   2.539   7.608
71086SOL    HW115155  14.861   2.508   7.697
71086SOL    HW215156  14.796   2.587   7.585
71087SOL     OW15157  10.708   7.173   8.374
71087SOL    HW115158  10.772   7.157   8.305
71087SOL    HW215159  10.659   7.091   8.381
71088SOL     OW15160   2.589   2.584   5.172
71088SOL    HW115161   2.549   2.669   5.154
71088SOL    HW215162   2.634   2.560   5.091
71089SOL     OW15163  13.262  10.194  14.185
71089SOL    HW115164  13.356  10.197  14.163
71089SOL    HW215165  13.260  10.189  14.280
71090SOL     OW15166  13.191   1.864  12.961
71090SOL    HW115167  13.116   1.823  13.005
71090SOL    HW215168  13.211   1.805  12.888
71091SOL     OW15169  12.548   2.213   3.203
71091SOL    HW115170  12.510   2.276   3.264
71091SOL    HW215171  12.485   2.207   3.131
71092SOL     OW15172   4.006  13.747  12.851
71092SOL    HW115173   4.013  13.768  12.758
71092SOL    HW215174   4.089  13.703  12.871
71093SOL     OW15175   1.113   1.454   7.297
71093SOL    HW115176   1.180   1.512   7.332
71093SOL    HW215177   1.137   1.442   7.205
71094SOL     OW15178   6.412   5.045   7.217
71094SOL    HW115179   6.343   4.988   7.250
71094SOL    HW215180   6.378   5.134   7.228
71095SOL     OW15181  10.822   5.037   5.554
71095SOL    HW115182  10.821   5.107   5.489
71095SOL    HW215183  10.733   5.035   5.589
71096SOL     OW15184   5.239   3.272   2.957
71096SOL    HW115185   5.320   3.277   2.905
71096SOL    HW215186   5.172   3.306   2.898
71097SOL     OW15187   8.622  14.397   0.630
71097SOL    HW115188   8.671  14.357   0.702
71097SOL    HW215189   8.683  14.393   0.555
71098SOL     OW15190   1.086  11.493  10.574
71098SOL    HW115191   1.173  11.465  10.544
71098SOL    HW215192   1.064  11.567  10.517
71099SOL     OW15193  10.503   4.175   7.795
71099SOL    HW115194  10.478   4.088   7.827
71099SOL    HW215195  10.435   4.198   7.731
71100SOL     OW15196   5.216  10.646   7.892
71100SOL    HW115197   5.176  10.561   7.872
71100SOL    HW215198   5.310  10.627   7.899
71101SOL     OW15199   1.430   0.944  12.652
71101SOL    HW115200   1.456   0.923  12.562
71101SOL    HW215201   1.513   0.964  12.696
71102SOL     OW15202   3.662   9.824   1.712
71102SOL    HW115203   3.618   9.898   1.755
71102SOL    HW215204   3.594   9.758   1.700
71103SOL     OW15205   4.548   5.960   7.957
71103SOL    HW115206   4.586   6.027   7.901
71103SOL    HW215207   4.601   5.960   8.036
71104SOL     OW15208  13.853   2.880  12.882
71104SOL    HW115209  13.889   2.848  12.964
71104SOL    HW215210  13.759   2.862  12.888
71105SOL     OW15211  11.007   1.314   0.152
71105SOL    HW115212  10.953   1.261   0.210
71105SOL    HW215213  11.096   1.306   0.188
71106SOL     OW15214   6.012   8.584   9.572
71106SOL    HW115215   6.018   8.565   9.478
71106SOL    HW215216   5.989   8.500   9.612
71107SOL     OW15217   3.757   7.308   6.711
71107SOL    HW115218   3.781   7.282   6.800
71107SOL    HW215219   3.740   7.226   6.666
71108SOL     OW15220   7.919   5.562   2.490
71108SOL    HW115221   7.894   5.600   2.574
71108SOL    HW215222   7.986   5.497   2.512
71109SOL     OW15223   2.497  10.598   9.448
71109SOL    HW115224   2.479  10.649   9.369
71109SOL    HW215225   2.411  10.572   9.480
71110SOL     OW15226   4.376   0.447   4.805
71110SOL    HW115227   4.400   0.526   4.853
71110SOL    HW215228   4.455   0.392   4.810
71111SOL     OW15229   2.185  14.196  10.120
71111SOL    HW115230   2.129  14.120  10.136
71111SOL    HW215231   2.132  14.251  10.061
71112SOL     OW15232   8.332   3.993  12.786
71112SOL    HW115233   8.362   4.049  12.714
71112SOL    HW215234   8.395   3.922  12.789
71113SOL     OW15235   3.686   6.587   4.141
71113SOL    HW115236   3.662   6.554   4.228
71113SOL    HW215237   3.610   6.638   4.113
71114SOL     OW15238   3.104   7.441   8.705
71114SOL    HW115239   3.117   7.349   8.727
71114SOL    HW215240   3.097   7.485   8.790
71115SOL     OW15241   2.893  12.262   1.673
71115SOL    HW115242   2.842  12.191   1.633
71115SOL    HW215243   2.968  12.218   1.713
71116SOL     OW15244   9.678   8.793   8.026
71116SOL    HW115245   9.618   8.772   7.955
71116SOL    HW215246   9.637   8.866   8.072
71117SOL     OW15247   6.055   1.037   8.161
71117SOL    HW115248   6.031   0.950   8.130
71117SOL    HW215249   6.114   1.071   8.093
71118SOL     OW15250  13.107   1.970   7.421
71118SOL    HW115251  13.193   2.009   7.440
71118SOL    HW215252  13.056   2.041   7.382
71119SOL     OW15253   7.385   6.078   9.850
71119SOL    HW115254   7.331   6.072   9.771
71119SOL    HW215255   7.420   5.990   9.862
71120SOL     OW15256   4.317   4.353   7.858
71120SOL    HW115257   4.268   4.287   7.808
71120SOL    HW215258   4.375   4.301   7.914
71121SOL     OW15259  12.114   9.162   0.103
71121SOL    HW115260  12.056   9.234   0.075
71121SOL    HW215261  12.146   9.124   0.021
71122SOL     OW15262  13.982   6.165   7.976
71122SOL    HW115263  13.912   6.205   8.027
71122SOL    HW215264  14.055   6.156   8.038
71123SOL     OW15265   2.106   6.026  13.832
71123SOL    HW115266   2.108   6.040  13.737
71123SOL    HW215267   2.072   6.108  13.868
71124SOL     OW15268   2.360  10.871   4.553
71124SOL    HW115269   2.345  10.823   4.472
71124SOL    HW215270   2.451  10.852   4.576
71125SOL     OW15271  14.091   9.220   2.107
71125SOL    HW115272  14.027   9.285   2.136
71125SOL    HW215273  14.085   9.150   2.172
71126SOL     OW15274   6.998   1.388   4.032
71126SOL    HW115275   6.906   1.374   4.055
71126SOL    HW215276   7.040   1.408   4.116
71127SOL     OW15277   9.329   6.476   0.071
71127SOL    HW115278   9.252   6.420   0.085
71127SOL    HW215279   9.373   6.477   0.156
71128SOL     OW15280   4.872   7.819   8.197
71128SOL    HW115281   4.901   7.729   8.184
71128SOL    HW215282   4.823   7.840   8.117
71129SOL     OW15283   5.738  14.417  10.129
71129SOL    HW115284   5.749  14.459  10.214
71129SOL    HW215285   5.653  14.372  10.135
71130SOL     OW15286  13.689  14.632   3.156
71130SOL    HW115287  13.605  14.595   3.131
71130SOL    HW215288  13.696  14.712   3.104
71131SOL     OW15289   9.348   0.983  14.262
71131SOL    HW115290   9.397   0.946  14.336
71131SOL    HW215291   9.259   0.950  14.273
71132SOL     OW15292   8.890   7.190  12.892
71132SOL    HW115293   8.893   7.152  12.980
71132SOL    HW215294   8.966   7.247  12.887
71133SOL     OW15295   4.589  11.217  12.259
71133SOL    HW115296   4.530  11.278  12.303
71133SOL    HW215297   4.585  11.242  12.167
71134SOL     OW15298   9.718   3.613   7.722
71134SOL    HW115299   9.691   3.701   7.695
71134SOL    HW215300   9.758   3.575   7.643
71135SOL     OW15301  14.186  13.770  14.400
71135SOL    HW115302  14.267  13.741  14.442
71135SOL    HW215303  14.169  13.857  14.436
71136SOL     OW15304  14.641   8.277   3.251
71136SOL    HW115305  14.731   8.303   3.272
71136SOL    HW215306  14.587   8.351   3.281
71137SOL     OW15307  14.845   8.804  11.177
71137SOL    HW115308   0.000   8.896  11.190
71137SOL    HW215309   0.032   8.756  11.239
71138SOL     OW15310  12.276  13.593   9.377
71138SOL    HW115311  12.290  13.526   9.443
71138SOL    HW215312  12.349  13.655   9.389
71139SOL     OW15313   8.754  14.028   8.108
71139SOL    HW115314   8.696  13.956   8.133
71139SOL    HW215315   8.840  13.988   8.101
71140SOL     OW15316   0.707   8.032  12.470
71140SOL    HW115317   0.752   7.972  12.530
71140SOL    HW215318   0.777   8.085  12.432
71141SOL     OW15319  14.606  13.724   5.617
71141SOL    HW115320  14.601  13.774   5.535
71141SOL    HW215321  14.518  13.731   5.654
71142SOL     OW15322   9.096  10.217   9.915
71142SOL    HW115323   9.147  10.194   9.838
71142SOL    HW215324   9.161  10.225   9.985
71143SOL     OW15325  13.126   1.135   2.098
71143SOL    HW115326  13.196   1.198   2.084
71143SOL    HW215327  13.071   1.142   2.020
71144SOL     OW15328   4.375  10.814  14.368
71144SOL    HW115329   4.447  10.866  14.331
71144SOL    HW215330   4.350  10.755  14.297
71145SOL     OW15331   5.600  12.242   4.149
71145SOL    HW115332   5.527  12.284   4.196
71145SOL    HW215333   5.618  12.301   4.076
71146SOL     OW15334   3.834   3.478  13.803
71146SOL    HW115335   3.802   3.500  13.891
71146SOL    HW215336   3.897   3.548  13.783
71147SOL     OW15337   3.467   3.148   0.599
71147SOL    HW115338   3.441   3.060   0.572
71147SOL    HW215339   3.426   3.160   0.684
71148SOL     OW15340   6.802   5.515  10.009
71148SOL    HW115341   6.828   5.512   9.917
71148SOL    HW215342   6.866   5.573  10.050
71149SOL     OW15343   3.175   9.530   3.847
71149SOL    HW115344   3.223   9.608   3.876
71149SOL    HW215345   3.226   9.457   3.880
71150SOL     OW15346   3.371   7.817   1.387
71150SOL    HW115347   3.446   7.848   1.335
71150SOL    HW215348   3.405   7.739   1.432
71151SOL     OW15349   4.216   8.144   4.896
71151SOL    HW115350   4.147   8.210   4.893
71151SOL    HW215351   4.250   8.141   4.807
71152SOL     OW15352   0.431   6.299   3.979
71152SOL    HW115353   0.472   6.337   4.057
71152SOL    HW215354   0.391   6.218   4.010
71153SOL     OW15355   6.969   9.697  10.668
71153SOL    HW115356   6.897   9.697  10.731
71153SOL    HW215357   6.931   9.658  10.589
71154SOL     OW15358   8.820  13.374   5.599
71154SOL    HW115359   8.893  13.394   5.658
71154SOL    HW215360   8.748  13.349   5.658
71155SOL     OW15361  14.029   7.841   5.789
71155SOL    HW115362  14.050   7.784   5.863
71155SOL    HW215363  13.941   7.813   5.762
71156SOL     OW15364  12.417   1.131  13.986
71156SOL    HW115365  12.362   1.207  13.969
71156SOL    HW215366  12.357   1.057  13.985
71157SOL     OW15367   0.397   6.021  13.587
71157SOL    HW115368   0.323   5.973  13.625
71157SOL    HW215369   0.368   6.041  13.498
71158SOL     OW15370   0.129  13.548  13.264
71158SOL    HW115371   0.169  13.600  13.194
71158SOL    HW215372   0.166  13.584  13.344
71159SOL     OW15373  10.960   6.074  14.676
71159SOL    HW115374  10.914   6.151  14.708
71159SOL    HW215375  11.040   6.070  14.728
71160SOL     OW15376   3.123   3.729   9.753
71160SOL    HW115377   3.210   3.692   9.764
71160SOL    HW215378   3.130   3.785   9.676
71161SOL     OW15379   5.506  10.963   2.058
71161SOL    HW115380   5.436  10.978   2.121
71161SOL    HW215381   5.493  11.031   1.991
71162SOL     OW15382   9.259   4.695   9.207
71162SOL    HW115383   9.352   4.717   9.216
71162SOL    HW215384   9.253   4.653   9.121
71163SOL     OW15385   2.237   1.057   1.336
71163SOL    HW115386   2.196   1.052   1.250
71163SOL    HW215387   2.189   1.127   1.381
71164SOL     OW15388  11.781   5.478   0.032
71164SOL    HW115389  11.857   5.471   0.089
71164SOL    HW215390  11.720   5.411   0.063
71165SOL     OW15391   0.350   1.191   5.122
71165SOL    HW115392   0.404   1.256   5.167
71165SOL    HW215393   0.263   1.231   5.119
71166SOL     OW15394   8.113  12.942   1.967
71166SOL    HW115395   8.058  12.868   1.939
71166SOL    HW215396   8.104  13.006   1.897
71167SOL     OW15397   2.559  10.583  12.165
71167SOL    HW115398   2.502  10.614  12.236
71167SOL    HW215399   2.534  10.492  12.153
71168SOL     OW15400  10.506   6.094  13.183
71168SOL    HW115401  10.565   6.086  13.259
71168SOL    HW215402  10.450   6.017  13.187
71169SOL     OW15403   9.074  12.861   9.408
71169SOL    HW115404   9.113  12.774   9.407
71169SOL    HW215405   9.068  12.886   9.315
71170SOL     OW15406   5.785  13.494  11.964
71170SOL    HW115407   5.788  13.405  11.929
71170SOL    HW215408   5.871  13.531  11.943
71171SOL     OW15409  14.390   3.437   9.657
71171SOL    HW115410  14.423   3.365   9.710
71171SOL    HW215411  14.418   3.416   9.568
71172SOL     OW15412  12.573   0.688  14.248
71172SOL    HW115413  12.533   0.696  14.161
71172SOL    HW215414  12.651   0.743  14.245
71173SOL     OW15415   0.239   3.329   5.202
71173SOL    HW115416   0.312   3.390   5.208
71173SOL    HW215417   0.167   3.381   5.165
71174SOL     OW15418   3.460   5.996   1.046
71174SOL    HW115419   3.545   6.033   1.070
71174SOL    HW215420   3.481   5.927   0.983
71175SOL     OW15421  10.335   8.792  14.063
71175SOL    HW115422  10.343   8.722  14.127
71175SOL    HW215423  10.340   8.749  13.978
71176SOL     OW15424   4.566  13.757   5.728
71176SOL    HW115425   4.642  13.814   5.731
71176SOL    HW215426   4.572  13.704   5.808
71177SOL     OW15427   1.660   8.118  13.031
71177SOL    HW115428   1.628   8.031  13.054
71177SOL    HW215429   1.734   8.132  13.090
71178SOL     OW15430  10.815   0.582   6.934
71178SOL    HW115431  10.725   0.600   6.962
71178SOL    HW215432  10.867   0.589   7.015
71179SOL     OW15433   9.403  12.215   6.848
71179SOL    HW115434   9.351  12.293   6.827
71179SOL    HW215435   9.434  12.231   6.937
71180SOL     OW15436   7.242  14.181  11.322
71180SOL    HW115437   7.283  14.096  11.315
71180SOL    HW215438   7.150  14.162  11.340
71181SOL     OW15439   0.629   6.251   7.687
71181SOL    HW115440   0.710   6.288   7.652
71181SOL    HW215441   0.562   6.314   7.662
71182SOL     OW15442   4.837  13.099   6.481
71182SOL    HW115443   4.874  13.100   6.570
71182SOL    HW215444   4.839  13.007   6.456
71183SOL     OW15445  10.238  10.328   3.369
71183SOL    HW115446  10.145  10.303   3.364
71183SOL    HW215447  10.282  10.269   3.308
71184SOL     OW15448   4.667  11.467   4.251
71184SOL    HW115449   4.588  11.472   4.304
71184SOL    HW215450   4.664  11.546   4.196
71185SOL     OW15451   6.375  14.259   5.821
71185SOL    HW115452   6.456  14.310   5.812
71185SOL    HW215453   6.323  14.282   5.744
71186SOL     OW15454  10.109   8.737   1.176
71186SOL    HW115455  10.032   8.751   1.231
71186SOL    HW215456  10.138   8.826   1.152
71187SOL     OW15457   7.656   2.727   2.161
71187SOL    HW115458   7.631   2.651   2.109
71187SOL    HW215459   7.670   2.797   2.097
71188SOL     OW15460   2.959   0.214   1.819
71188SOL    HW115461   2.932   0.298   1.782
71188SOL    HW215462   2.891   0.192   1.882
71189SOL     OW15463   1.605   8.635   9.045
71189SOL    HW115464   1.535   8.598   9.100
71189SOL    HW215465   1.612   8.726   9.074
71190SOL     OW15466   9.549   1.329  11.965
71190SOL    HW115467   9.540   1.401  12.027
71190SOL    HW215468   9.510   1.362  11.884
71191SOL     OW15469  14.319  10.302  14.425
71191SOL    HW115470  14.411  10.324  14.418
71191SOL    HW215471  14.316  10.223  14.478
71192SOL     OW15472   1.182  11.643   8.086
71192SOL    HW115473   1.242  11.716   8.070
71192SOL    HW215474   1.097  11.684   8.097
71193SOL     OW15475   4.990   4.444   0.665
71193SOL    HW115476   4.981   4.539   0.666
71193SOL    HW215477   4.903   4.412   0.640
71194SOL     OW15478   6.182   0.217  14.801
71194SOL    HW115479   6.211   0.278  14.733
71194SOL    HW215480   6.199   0.263   0.016
71195SOL     OW15481   8.547   2.498   0.845
71195SOL    HW115482   8.465   2.462   0.879
71195SOL    HW215483   8.521   2.582   0.806
71196SOL     OW15484  10.669  10.789  14.475
71196SOL    HW115485  10.669  10.775  14.380
71196SOL    HW215486  10.612  10.720  14.509
71197SOL     OW15487   8.347  13.990   1.159
71197SOL    HW115488   8.264  13.999   1.206
71197SOL    HW215489   8.402  14.059   1.195
71198SOL     OW15490   4.778  13.610   8.951
71198SOL    HW115491   4.725  13.690   8.948
71198SOL    HW215492   4.793  13.594   9.045
71199SOL     OW15493   3.655   4.189   5.010
71199SOL    HW115494   3.679   4.244   5.084
71199SOL    HW215495   3.640   4.250   4.938
71200SOL     OW15496   3.748   4.554   7.348
71200SOL    HW115497   3.790   4.627   7.394
71200SOL    HW215498   3.676   4.594   7.300
71201SOL     OW15499  11.199   4.664   6.665
71201SOL    HW115500  11.265   4.716   6.620
71201SOL    HW215501  11.152   4.726   6.720
71202SOL     OW15502   1.064  10.734   5.825
71202SOL    HW115503   1.053  10.681   5.747
71202SOL    HW215504   0.997  10.703   5.886
71203SOL     OW15505   4.757   6.966  14.685
71203SOL    HW115506   4.748   7.056  14.717
71203SOL    HW215507   4.722   6.912  14.756
71204SOL     OW15508   3.564   5.305  10.209
71204SOL    HW115509   3.577   5.357  10.130
71204SOL    HW215510   3.649   5.265  10.226
71205SOL     OW15511  12.123   7.996   3.884
71205SOL    HW115512  12.062   7.923   3.890
71205SOL    HW215513  12.126   8.032   3.973
71206SOL     OW15514   2.209  12.989   6.865
71206SOL    HW115515   2.277  13.049   6.894
71206SOL    HW215516   2.245  12.902   6.883
71207SOL     OW15517   5.722  11.867  13.373
71207SOL    HW115518   5.659  11.802  13.341
71207SOL    HW215519   5.807  11.832  13.350
71208SOL     OW15520  12.978  10.881  14.749
71208SOL    HW115521  12.974  10.922  14.662
71208SOL    HW215522  13.070  10.854  14.758
71209SOL     OW15523   2.702   6.638  13.177
71209SOL    HW115524   2.701   6.546  13.153
71209SOL    HW215525   2.752   6.680  13.106
71210SOL     OW15526   7.029  10.493  10.957
71210SOL    HW115527   6.962  10.490  10.889
71210SOL    HW215528   7.092  10.559  10.925
71211SOL     OW15529  12.076  14.130  12.487
71211SOL    HW115530  12.157  14.180  12.473
71211SOL    HW215531  12.015  14.165  12.422
71212SOL     OW15532  10.235   3.889   7.720
71212SOL    HW115533  10.161   3.857   7.772
71212SOL    HW215534  10.222   3.851   7.634
71213SOL     OW15535   6.421   7.287   1.473
71213SOL    HW115536   6.421   7.249   1.385
71213SOL    HW215537   6.511   7.277   1.504
71214SOL     OW15538   5.352  12.434  12.570
71214SOL    HW115539   5.340  12.452  12.477
71214SOL    HW215540   5.273  12.388  12.596
71215SOL     OW15541  11.093   3.956   0.338
71215SOL    HW115542  11.030   4.021   0.308
71215SOL    HW215543  11.105   3.898   0.264
71216SOL     OW15544  10.896   9.131   3.474
71216SOL    HW115545  10.870   9.150   3.564
71216SOL    HW215546  10.965   9.066   3.482
71217SOL     OW15547   3.270  14.475  11.736
71217SOL    HW115548   3.219  14.394  11.734
71217SOL    HW215549   3.345  14.455  11.793
71218SOL     OW15550  10.972  10.499   9.888
71218SOL    HW115551  10.964  10.419   9.940
71218SOL    HW215552  10.904  10.557   9.923
71219SOL     OW15553   6.807  12.771  11.444
71219SOL    HW115554   6.902  12.767  11.444
71219SOL    HW215555   6.786  12.848  11.391
71220SOL     OW15556   1.117   5.155   3.895
71220SOL    HW115557   1.142   5.136   3.986
71220SOL    HW215558   1.187   5.211   3.862
71221SOL     OW15559   2.583  12.431   8.953
71221SOL    HW115560   2.638  12.427   9.031
71221SOL    HW215561   2.601  12.516   8.914
71222SOL     OW15562   7.972   4.158   3.601
71222SOL    HW115563   7.977   4.138   3.694
71222SOL    HW215564   7.893   4.115   3.571
71223SOL     OW15565  12.331   6.052  13.326
71223SOL    HW115566  12.298   5.962  13.334
71223SOL    HW215567  12.348   6.080  13.416
71224SOL     OW15568   0.799  10.461   2.053
71224SOL    HW115569   0.877  10.406   2.054
71224SOL    HW215570   0.833  10.550   2.068
71225SOL     OW15571   7.121   5.632  12.330
71225SOL    HW115572   7.206   5.643  12.374
71225SOL    HW215573   7.076   5.716  12.344
71226SOL     OW15574  14.692   5.118  10.997
71226SOL    HW115575  14.777   5.074  10.990
71226SOL    HW215576  14.706   5.204  10.955
71227SOL     OW15577   2.798   3.829   9.115
71227SOL    HW115578   2.724   3.823   9.176
71227SOL    HW215579   2.860   3.763   9.145
71228SOL     OW15580  11.067  12.682  12.842
71228SOL    HW115581  11.077  12.776  12.830
71228SOL    HW215582  10.974  12.670  12.864
71229SOL     OW15583  13.920   3.126  12.088
71229SOL    HW115584  13.874   3.185  12.148
71229SOL    HW215585  13.928   3.175  12.006
71230SOL     OW15586  10.653  10.107   0.930
71230SOL    HW115587  10.609  10.033   0.973
71230SOL    HW215588  10.593  10.180   0.941
71231SOL     OW15589  13.976   6.921   9.277
71231SOL    HW115590  13.957   6.997   9.331
71231SOL    HW215591  13.935   6.941   9.192
71232SOL     OW15592  12.486   9.690   2.043
71232SOL    HW115593  12.544   9.714   2.115
71232SOL    HW215594  12.542   9.694   1.965
71233SOL     OW15595  13.193   3.582   8.807
71233SOL    HW115596  13.209   3.512   8.870
71233SOL    HW215597  13.107   3.617   8.830
71234SOL     OW15598  10.097  13.221  13.865
71234SOL    HW115599  10.180  13.246  13.907
71234SOL    HW215600  10.114  13.232  13.772
71235SOL     OW15601   7.714  10.782   4.237
71235SOL    HW115602   7.639  10.733   4.271
71235SOL    HW215603   7.675  10.851   4.184
71236SOL     OW15604   8.119   6.484   7.110
71236SOL    HW115605   8.057   6.412   7.120
71236SOL    HW215606   8.180   6.474   7.184
71237SOL     OW15607   9.655   6.531   8.879
71237SOL    HW115608   9.632   6.594   8.811
71237SOL    HW215609   9.599   6.455   8.862
71238SOL     OW15610   5.004  14.054  11.170
71238SOL    HW115611   5.092  14.049  11.131
71238SOL    HW215612   4.955  13.983  11.127
71239SOL     OW15613   6.153  11.371  13.934
71239SOL    HW115614   6.148  11.383  14.028
71239SOL    HW215615   6.089  11.302  13.915
71240SOL     OW15616   0.170  12.225  10.725
71240SOL    HW115617   0.118  12.263  10.655
71240SOL    HW215618   0.229  12.164  10.680
71241SOL     OW15619  13.695   9.139  12.184
71241SOL    HW115620  13.756   9.121  12.255
71241SOL    HW215621  13.733   9.214  12.138
71242SOL     OW15622   2.050   6.424  11.974
71242SOL    HW115623   2.123   6.364  11.992
71242SOL    HW215624   2.045   6.427  11.879
71243SOL     OW15625   0.537   6.808   4.706
71243SOL    HW115626   0.560   6.717   4.724
71243SOL    HW215627   0.442   6.807   4.698
71244SOL     OW15628   7.120   0.729   6.606
71244SOL    HW115629   7.108   0.643   6.565
71244SOL    HW215630   7.042   0.741   6.659
71245SOL     OW15631  10.494   7.400   4.236
71245SOL    HW115632  10.496   7.487   4.196
71245SOL    HW215633  10.413   7.399   4.287
71246SOL     OW15634   4.995  13.352  14.184
71246SOL    HW115635   5.082  13.371  14.219
71246SOL    HW215636   5.009  13.337  14.091
71247SOL     OW15637   3.780   6.427   9.569
71247SOL    HW115638   3.839   6.457   9.638
71247SOL    HW215639   3.742   6.346   9.603
71248SOL     OW15640   9.435   7.987   2.879
71248SOL    HW115641   9.345   8.017   2.894
71248SOL    HW215642   9.435   7.956   2.788
71249SOL     OW15643  10.768  10.245  10.710
71249SOL    HW115644  10.753  10.313  10.644
71249SOL    HW215645  10.860  10.222  10.699
71250SOL     OW15646   3.428   1.291   0.796
71250SOL    HW115647   3.357   1.260   0.852
71250SOL    HW215648   3.493   1.328   0.857
71251SOL     OW15649   6.980  14.385   8.975
71251SOL    HW115650   6.959  14.394   9.068
71251SOL    HW215651   6.898  14.357   8.934
71252SOL     OW15652   0.424  14.053   7.866
71252SOL    HW115653   0.390  14.066   7.777
71252SOL    HW215654   0.486  13.980   7.857
71253SOL     OW15655   0.073   9.134  11.335
71253SOL    HW115656   0.093   9.227  11.344
71253SOL    HW215657   0.150   9.097  11.292
71254SOL     OW15658   7.797   7.659   9.637
71254SOL    HW115659   7.706   7.663   9.667
71254SOL    HW215660   7.795   7.597   9.564
71255SOL     OW15661   7.356   3.400  12.490
71255SOL    HW115662   7.449   3.406  12.468
71255SOL    HW215663   7.317   3.481  12.456
71256SOL     OW15664   2.483  13.332  10.420
71256SOL    HW115665   2.426  13.350  10.345
71256SOL    HW215666   2.483  13.237  10.429
71257SOL     OW15667  14.616   1.976   0.701
71257SOL    HW115668  14.592   2.028   0.778
71257SOL    HW215669  14.565   1.896   0.709
71258SOL     OW15670   2.619  12.744  12.434
71258SOL    HW115671   2.605  12.669  12.377
71258SOL    HW215672   2.551  12.735  12.501
71259SOL     OW15673  12.378  13.635   3.401
71259SOL    HW115674  12.309  13.691   3.365
71259SOL    HW215675  12.394  13.569   3.333
71260SOL     OW15676   1.601   0.384   6.407
71260SOL    HW115677   1.590   0.369   6.501
71260SOL    HW215678   1.658   0.460   6.401
71261SOL     OW15679   3.131   5.976   7.674
71261SOL    HW115680   3.141   5.896   7.622
71261SOL    HW215681   3.199   6.034   7.641
71262SOL     OW15682   4.550   1.720   2.376
71262SOL    HW115683   4.508   1.700   2.292
71262SOL    HW215684   4.499   1.672   2.441
71263SOL     OW15685  11.894   5.784   2.968
71263SOL    HW115686  11.809   5.759   3.003
71263SOL    HW215687  11.874   5.854   2.905
71264SOL     OW15688   9.306   1.302  13.224
71264SOL    HW115689   9.211   1.308  13.215
71264SOL    HW215690   9.324   1.344  13.309
71265SOL     OW15691  12.695  14.330   5.670
71265SOL    HW115692  12.610  14.364   5.640
71265SOL    HW215693  12.743  14.407   5.700
71266SOL     OW15694   7.476   1.370   9.630
71266SOL    HW115695   7.465   1.369   9.535
71266SOL    HW215696   7.571   1.371   9.644
71267SOL     OW15697  12.108   0.084  13.289
71267SOL    HW115698  12.138   0.113  13.375
71267SOL    HW215699  12.182   0.035  13.253
71268SOL     OW15700   9.565   2.527   3.120
71268SOL    HW115701   9.585   2.433   3.122
71268SOL    HW215702   9.558   2.548   3.026
71269SOL     OW15703  12.276  11.419   0.109
71269SOL    HW115704  12.223  11.458   0.178
71269SOL    HW215705  12.324  11.494   0.071
71270SOL     OW15706   0.356   9.855   5.592
71270SOL    HW115707   0.395   9.937   5.625
71270SOL    HW215708   0.377   9.790   5.659
71271SOL     OW15709   7.505   7.115  13.353
71271SOL    HW115710   7.580   7.058  13.372
71271SOL    HW215711   7.430   7.068  13.391
71272SOL     OW15712   6.054   1.049  10.046
71272SOL    HW115713   6.022   0.966  10.081
71272SOL    HW215714   5.975   1.092  10.013
71273SOL     OW15715   9.111  12.250   4.799
71273SOL    HW115716   9.079  12.204   4.877
71273SOL    HW215717   9.206  12.255   4.811
71274SOL     OW15718   1.335   7.929   3.426
71274SOL    HW115719   1.337   7.841   3.465
71274SOL    HW215720   1.258   7.928   3.369
71275SOL     OW15721   5.062   1.036  13.478
71275SOL    HW115722   4.997   1.041  13.407
71275SOL    HW215723   5.134   1.091  13.448
71276SOL     OW15724  11.252   8.911   5.294
71276SOL    HW115725  11.299   8.828   5.284
71276SOL    HW215726  11.163   8.893   5.267
71277SOL     OW15727   6.934   7.858   9.140
71277SOL    HW115728   6.928   7.781   9.196
71277SOL    HW215729   6.942   7.824   9.051
71278SOL     OW15730  10.490  11.591   3.879
71278SOL    HW115731  10.552  11.647   3.832
71278SOL    HW215732  10.520  11.502   3.860
71279SOL     OW15733   7.355   7.346   2.071
71279SOL    HW115734   7.310   7.262   2.081
71279SOL    HW215735   7.297   7.396   2.013
71280SOL     OW15736  11.962   0.191   7.541
71280SOL    HW115737  12.000   0.268   7.498
71280SOL    HW215738  12.014   0.180   7.620
71281SOL     OW15739   3.219   8.728   3.135
71281SOL    HW115740   3.179   8.644   3.157
71281SOL    HW215741   3.262   8.713   3.051
71282SOL     OW15742  14.129   3.533   4.977
71282SOL    HW115743  14.168   3.600   5.034
71282SOL    HW215744  14.160   3.556   4.889
71283SOL     OW15745   3.308   0.270  13.069
71283SOL    HW115746   3.381   0.329  13.083
71283SOL    HW215747   3.278   0.289  12.980
71284SOL     OW15748   3.248   9.230   6.121
71284SOL    HW115749   3.280   9.310   6.162
71284SOL    HW215750   3.279   9.236   6.030
71285SOL     OW15751   4.194   5.991   1.816
71285SOL    HW115752   4.235   6.057   1.760
71285SOL    HW215753   4.241   5.997   1.899
71286SOL     OW15754  10.623   7.017   2.338
71286SOL    HW115755  10.635   6.955   2.267
71286SOL    HW215756  10.612   7.102   2.295
71287SOL     OW15757   5.076   1.662  11.989
71287SOL    HW115758   5.141   1.664  12.059
71287SOL    HW215759   5.125   1.637  11.910
71288SOL     OW15760   4.448   1.970   4.560
71288SOL    HW115761   4.477   1.882   4.584
71288SOL    HW215762   4.529   2.016   4.537
71289SOL     OW15763  14.758   7.446   6.719
71289SOL    HW115764  14.785   7.510   6.784
71289SOL    HW215765  14.840   7.413   6.682
71290SOL     OW15766  11.664  10.199   0.143
71290SOL    HW115767  11.653  10.234   0.055
71290SOL    HW215768  11.686  10.276   0.196
71291SOL     OW15769  12.084   1.704  14.648
71291SOL    HW115770  12.081   1.799  14.661
71291SOL    HW215771  12.073   1.667  14.735
71292SOL     OW15772   9.184  14.523   8.334
71292SOL    HW115773   9.126  14.572   8.392
71292SOL    HW215774   9.265  14.513   8.384
71293SOL     OW15775   8.550   9.119   9.830
71293SOL    HW115776   8.564   9.213   9.826
71293SOL    HW215777   8.579   9.087   9.745
71294SOL     OW15778  13.569  13.462  14.432
71294SOL    HW115779  13.569  13.427  14.522
71294SOL    HW215780  13.660  13.486  14.416
71295SOL     OW15781   6.554  14.369   4.333
71295SOL    HW115782   6.617  14.297   4.324
71295SOL    HW215783   6.472  14.326   4.357
71296SOL     OW15784   5.434  10.887   9.810
71296SOL    HW115785   5.408  10.949   9.742
71296SOL    HW215786   5.418  10.801   9.773
71297SOL     OW15787  14.466  12.072  10.578
71297SOL    HW115788  14.400  12.010  10.548
71297SOL    HW215789  14.435  12.157  10.547
71298SOL     OW15790  14.031   8.835  13.689
71298SOL    HW115791  13.983   8.915  13.712
71298SOL    HW215792  14.120   8.866  13.669
71299SOL     OW15793   4.539  10.766   9.140
71299SOL    HW115794   4.475  10.813   9.086
71299SOL    HW215795   4.600  10.833   9.168
71300SOL     OW15796   2.248   6.380  10.799
71300SOL    HW115797   2.182   6.438  10.761
71300SOL    HW215798   2.203   6.336  10.871
71301SOL     OW15799   2.945   1.472   7.044
71301SOL    HW115800   2.913   1.561   7.056
71301SOL    HW215801   2.960   1.440   7.133
71302SOL     OW15802   0.502   8.373  13.358
71302SOL    HW115803   0.427   8.324  13.392
71302SOL    HW215804   0.541   8.414  13.436
71303SOL     OW15805  10.479  11.731  12.124
71303SOL    HW115806  10.414  11.801  12.134
71303SOL    HW215807  10.529  11.756  12.047
71304SOL     OW15808   2.060   0.981   5.363
71304SOL    HW115809   2.100   1.022   5.440
71304SOL    HW215810   2.102   0.895   5.358
71305SOL     OW15811   4.094  14.162   3.731
71305SOL    HW115812   4.175  14.204   3.702
71305SOL    HW215813   4.111  14.135   3.821
71306SOL     OW15814   6.690   9.518   3.332
71306SOL    HW115815   6.605   9.518   3.376
71306SOL    HW215816   6.730   9.434   3.357
71307SOL     OW15817  10.738   0.583   9.950
71307SOL    HW115818  10.733   0.602  10.043
71307SOL    HW215819  10.737   0.669   9.908
71308SOL     OW15820  13.364  11.125   3.224
71308SOL    HW115821  13.310  11.048   3.241
71308SOL    HW215822  13.333  11.190   3.287
71309SOL     OW15823  14.761   2.147   8.160
71309SOL    HW115824  14.781   2.223   8.214
71309SOL    HW215825  14.777   2.072   8.218
71310SOL     OW15826   5.820   8.545   1.748
71310SOL    HW115827   5.821   8.549   1.653
71310SOL    HW215828   5.734   8.509   1.770
71311SOL     OW15829   8.266   2.465  10.173
71311SOL    HW115830   8.302   2.415  10.246
71311SOL    HW215831   8.227   2.399  10.116
71312SOL     OW15832  13.429   1.264   3.417
71312SOL    HW115833  13.393   1.296   3.499
71312SOL    HW215834  13.486   1.335   3.387
71313SOL     OW15835   2.960  10.511   9.246
71313SOL    HW115836   2.983  10.554   9.164
71313SOL    HW215837   2.873  10.474   9.231
71314SOL     OW15838   5.042   9.846   0.479
71314SOL    HW115839   4.960   9.798   0.473
71314SOL    HW215840   5.049   9.871   0.572
71315SOL     OW15841   6.606   4.221  10.813
71315SOL    HW115842   6.567   4.265  10.888
71315SOL    HW215843   6.577   4.271  10.737
71316SOL     OW15844   9.178   7.007  13.142
71316SOL    HW115845   9.208   6.917  13.153
71316SOL    HW215846   9.200   7.050  13.224
71317SOL     OW15847   0.268  11.344   8.904
71317SOL    HW115848   0.252  11.302   8.988
71317SOL    HW215849   0.218  11.293   8.841
71318SOL     OW15850  14.811  13.561   2.200
71318SOL    HW115851  14.834  13.652   2.220
71318SOL    HW215852  14.803  13.559   2.105
71319SOL     OW15853   7.584   3.794  11.347
71319SOL    HW115854   7.618   3.776  11.260
71319SOL    HW215855   7.554   3.709  11.380
71320SOL     OW15856  10.978   5.082  10.367
71320SOL    HW115857  10.916   5.010  10.351
71320SOL    HW215858  11.049   5.042  10.417
71321SOL     OW15859  11.191  12.029  11.299
71321SOL    HW115860  11.283  12.034  11.325
71321SOL    HW215861  11.164  11.940  11.324
71322SOL     OW15862   1.746  10.881   6.878
71322SOL    HW115863   1.794  10.860   6.798
71322SOL    HW215864   1.789  10.829   6.946
71323SOL     OW15865  12.605   2.431   9.763
71323SOL    HW115866  12.603   2.345   9.722
71323SOL    HW215867  12.516   2.464   9.754
71324SOL     OW15868   8.445   7.924   1.628
71324SOL    HW115869   8.511   7.856   1.641
71324SOL    HW215870   8.476   7.975   1.553
71325SOL     OW15871   5.657   8.022   8.095
71325SOL    HW115872   5.685   7.961   8.164
71325SOL    HW215873   5.679   7.977   8.013
71326SOL     OW15874  13.935   5.493   0.748
71326SOL    HW115875  13.999   5.495   0.678
71326SOL    HW215876  13.979   5.534   0.823
71327SOL     OW15877  12.465   7.189   5.139
71327SOL    HW115878  12.438   7.261   5.082
71327SOL    HW215879  12.458   7.111   5.084
71328SOL     OW15880   1.222   1.583   3.923
71328SOL    HW115881   1.221   1.492   3.953
71328SOL    HW215882   1.141   1.620   3.958
71329SOL     OW15883   7.824   5.944  12.448
71329SOL    HW115884   7.768   5.980  12.379
71329SOL    HW215885   7.897   5.903  12.401
71330SOL     OW15886   3.046   4.319   2.861
71330SOL    HW115887   3.029   4.331   2.955
71330SOL    HW215888   3.064   4.226   2.852
71331SOL     OW15889   1.410  11.486   2.124
71331SOL    HW115890   1.407  11.437   2.042
71331SOL    HW215891   1.348  11.441   2.182
71332SOL     OW15892   1.634  13.619   8.676
71332SOL    HW115893   1.646  13.580   8.763
71332SOL    HW215894   1.697  13.690   8.673
71333SOL     OW15895   9.878   0.504  13.874
71333SOL    HW115896   9.903   0.501  13.967
71333SOL    HW215897   9.897   0.594  13.847
71334SOL     OW15898   5.065  13.296  12.619
71334SOL    HW115899   5.067  13.389  12.644
71334SOL    HW215900   5.116  13.252  12.686
71335SOL     OW15901   8.830   5.865   1.374
71335SOL    HW115902   8.902   5.805   1.394
71335SOL    HW215903   8.755   5.808   1.357
71336SOL     OW15904   7.753   9.510   6.100
71336SOL    HW115905   7.832   9.542   6.057
71336SOL    HW215906   7.784   9.462   6.176
71337SOL     OW15907  10.479   6.098   9.252
71337SOL    HW115908  10.448   6.011   9.277
71337SOL    HW215909  10.567   6.104   9.288
71338SOL     OW15910  14.062   8.227  13.819
71338SOL    HW115911  13.978   8.228  13.773
71338SOL    HW215912  14.118   8.170  13.766
71339SOL     OW15913   7.106   7.013  11.519
71339SOL    HW115914   7.014   7.029  11.537
71339SOL    HW215915   7.135   7.092  11.473
71340SOL     OW15916   1.940   8.474  11.110
71340SOL    HW115917   1.864   8.436  11.065
71340SOL    HW215918   1.950   8.421  11.189
71341SOL     OW15919   7.908  12.624   0.180
71341SOL    HW115920   7.975  12.590   0.240
71341SOL    HW215921   7.957  12.680   0.119
71342SOL     OW15922  14.456  11.034   5.395
71342SOL    HW115923  14.443  11.098   5.465
71342SOL    HW215924  14.372  11.032   5.350
71343SOL     OW15925  10.508   4.553  10.985
71343SOL    HW115926  10.592   4.538  11.027
71343SOL    HW215927  10.518   4.519  10.896
71344SOL     OW15928  13.511  13.047  14.336
71344SOL    HW115929  13.524  12.990  14.260
71344SOL    HW215930  13.444  13.003  14.388
71345SOL     OW15931   1.771   5.842   9.362
71345SOL    HW115932   1.797   5.838   9.454
71345SOL    HW215933   1.677   5.858   9.364
71346SOL     OW15934   5.620   8.153   2.902
71346SOL    HW115935   5.704   8.109   2.915
71346SOL    HW215936   5.555   8.090   2.932
71347SOL     OW15937   7.006   8.388  11.298
71347SOL    HW115938   7.025   8.456  11.233
71347SOL    HW215939   7.091   8.347  11.315
71348SOL     OW15940   9.092   5.039   2.752
71348SOL    HW115941   9.054   4.966   2.704
71348SOL    HW215942   9.187   5.028   2.742
71349SOL     OW15943   7.426   5.649   0.584
71349SOL    HW115944   7.423   5.684   0.495
71349SOL    HW215945   7.339   5.668   0.620
71350SOL     OW15946   6.425  13.590  10.310
71350SOL    HW115947   6.500  13.627  10.358
71350SOL    HW215948   6.419  13.644  10.231
71351SOL     OW15949   5.040   3.828  13.243
71351SOL    HW115950   5.097   3.763  13.285
71351SOL    HW215951   5.087   3.910  13.253
71352SOL     OW15952   3.268   0.473   1.874
71352SOL    HW115953   3.176   0.447   1.870
71352SOL    HW215954   3.283   0.496   1.965
71353SOL     OW15955   8.874   0.707   7.867
71353SOL    HW115956   8.808   0.757   7.820
71353SOL    HW215957   8.947   0.768   7.878
71354SOL     OW15958   2.678   3.463  12.831
71354SOL    HW115959   2.666   3.488  12.739
71354SOL    HW215960   2.680   3.546  12.878
71355SOL     OW15961   1.630   1.773   2.336
71355SOL    HW115962   1.652   1.858   2.300
71355SOL    HW215963   1.534   1.772   2.337
71356SOL     OW15964   5.536   3.171   8.541
71356SOL    HW115965   5.591   3.209   8.609
71356SOL    HW215966   5.594   3.114   8.492
71357SOL     OW15967   1.191  14.302   9.644
71357SOL    HW115968   1.208  14.363   9.715
71357SOL    HW215969   1.265  14.313   9.584
71358SOL     OW15970   0.823   5.228  14.443
71358SOL    HW115971   0.831   5.137  14.471
71358SOL    HW215972   0.776   5.223  14.360
71359SOL     OW15973   8.680  13.900  11.053
71359SOL    HW115974   8.616  13.971  11.058
71359SOL    HW215975   8.715  13.891  11.141
71360SOL     OW15976   0.213  12.068   2.086
71360SOL    HW115977   0.203  11.998   2.151
71360SOL    HW215978   0.157  12.139   2.118
71361SOL     OW15979   9.785  13.066  11.108
71361SOL    HW115980   9.867  13.094  11.068
71361SOL    HW215981   9.807  12.984  11.152
71362SOL     OW15982  11.244   9.014  13.782
71362SOL    HW115983  11.196   9.036  13.861
71362SOL    HW215984  11.205   8.932  13.752
71363SOL     OW15985   8.539  10.807   4.493
71363SOL    HW115986   8.535  10.852   4.577
71363SOL    HW215987   8.604  10.857   4.443
71364SOL     OW15988   1.033   3.764  11.191
71364SOL    HW115989   1.003   3.734  11.277
71364SOL    HW215990   1.041   3.859  11.201
71365SOL     OW15991  11.763   0.203  11.716
71365SOL    HW115992  11.709   0.124  11.727
71365SOL    HW215993  11.789   0.201  11.624
71366SOL     OW15994   2.330   0.561   2.489
71366SOL    HW115995   2.373   0.596   2.567
71366SOL    HW215996   2.265   0.499   2.524
71367SOL     OW15997   0.873   1.628  11.569
71367SOL    HW115998   0.944   1.608  11.631
71367SOL    HW215999   0.854   1.544  11.527
71368SOL     OW16000  12.488   7.894   6.237
71368SOL    HW116001  12.433   7.842   6.178
71368SOL    HW216002  12.442   7.893   6.321
71369SOL     OW16003   9.425   3.726   3.419
71369SOL    HW116004   9.341   3.681   3.422
71369SOL    HW216005   9.411   3.808   3.466
71370SOL     OW16006   1.734   1.431   4.968
71370SOL    HW116007   1.648   1.423   5.010
71370SOL    HW216008   1.727   1.511   4.915
71371SOL     OW16009   2.191  12.920  12.176
71371SOL    HW116010   2.126  12.875  12.123
71371SOL    HW216011   2.143  12.990  12.220
71372SOL     OW16012   3.313  14.593   8.000
71372SOL    HW116013   3.241  14.570   8.059
71372SOL    HW216014   3.376  14.522   8.010
71373SOL     OW16015   4.590   0.903   0.994
71373SOL    HW116016   4.664   0.935   0.943
71373SOL    HW216017   4.620   0.821   1.032
71374SOL     OW16018  12.255   6.882   7.572
71374SOL    HW116019  12.296   6.928   7.499
71374SOL    HW216020  12.212   6.807   7.531
71375SOL     OW16021   1.349   9.722  12.000
71375SOL    HW116022   1.267   9.686  12.035
71375SOL    HW216023   1.324   9.804  11.958
71376SOL     OW16024   4.522   1.173   8.037
71376SOL    HW116025   4.462   1.114   8.084
71376SOL    HW216026   4.497   1.260   8.066
71377SOL     OW16027  10.913   4.179   2.174
71377SOL    HW116028  10.937   4.088   2.188
71377SOL    HW216029  10.891   4.212   2.261
71378SOL     OW16030   1.808   6.704   2.950
71378SOL    HW116031   1.800   6.679   2.858
71378SOL    HW216032   1.844   6.626   2.992
71379SOL     OW16033   2.018   4.502   1.823
71379SOL    HW116034   2.063   4.448   1.889
71379SOL    HW216035   2.076   4.577   1.810
71380SOL     OW16036   8.850  12.105   9.829
71380SOL    HW116037   8.870  12.012   9.812
71380SOL    HW216038   8.762  12.104   9.865
71381SOL     OW16039   4.265   4.164   6.311
71381SOL    HW116040   4.295   4.250   6.283
71381SOL    HW216041   4.345   4.119   6.338
71382SOL     OW16042   1.806   0.109   6.257
71382SOL    HW116043   1.808   0.060   6.339
71382SOL    HW216044   1.753   0.055   6.198
71383SOL     OW16045  10.383   4.132  13.429
71383SOL    HW116046  10.329   4.063  13.467
71383SOL    HW216047  10.329   4.168  13.358
71384SOL     OW16048   0.971   9.584  14.689
71384SOL    HW116049   0.967   9.492  14.661
71384SOL    HW216050   1.031   9.584  14.763
71385SOL     OW16051  14.697   8.693   6.398
71385SOL    HW116052  14.752   8.654   6.330
71385SOL    HW216053  14.755   8.702   6.474
71386SOL     OW16054   6.493   8.795   7.556
71386SOL    HW116055   6.551   8.721   7.574
71386SOL    HW216056   6.510   8.817   7.464
71387SOL     OW16057   0.586  10.110  10.050
71387SOL    HW116058   0.597  10.074   9.962
71387SOL    HW216059   0.650  10.062  10.104
71388SOL     OW16060   3.258   4.774   6.836
71388SOL    HW116061   3.334   4.715   6.840
71388SOL    HW216062   3.207   4.752   6.914
71389SOL     OW16063   6.779   3.444  13.393
71389SOL    HW116064   6.771   3.540  13.388
71389SOL    HW216065   6.708   3.417  13.449
71390SOL     OW16066   9.149   0.463   5.597
71390SOL    HW116067   9.199   0.515   5.535
71390SOL    HW216068   9.084   0.418   5.544
71391SOL     OW16069  11.051   2.437  13.826
71391SOL    HW116070  11.043   2.450  13.731
71391SOL    HW216071  10.969   2.471  13.862
71392SOL     OW16072   2.812  13.726   6.870
71392SOL    HW116073   2.783  13.816   6.883
71392SOL    HW216074   2.765  13.676   6.937
71393SOL     OW16075   2.338  10.147  14.258
71393SOL    HW116076   2.433  10.149  14.269
71393SOL    HW216077   2.326  10.131  14.164
71394SOL     OW16078   4.531   2.145   8.055
71394SOL    HW116079   4.540   2.237   8.080
71394SOL    HW216080   4.526   2.098   8.139
71395SOL     OW16081   9.003   4.053   9.229
71395SOL    HW116082   8.942   4.099   9.287
71395SOL    HW216083   9.055   4.123   9.190
71396SOL     OW16084   6.197   2.242   1.076
71396SOL    HW116085   6.161   2.315   1.127
71396SOL    HW216086   6.173   2.262   0.986
71397SOL     OW16087   7.420   6.909  12.074
71397SOL    HW116088   7.383   6.945  12.155
71397SOL    HW216089   7.393   6.970  12.006
71398SOL     OW16090   1.270   6.760   0.286
71398SOL    HW116091   1.213   6.837   0.281
71398SOL    HW216092   1.241   6.704   0.214
71399SOL     OW16093   3.949  12.214  13.063
71399SOL    HW116094   4.000  12.208  13.144
71399SOL    HW216095   3.909  12.301  13.067
71400SOL     OW16096  10.249   5.693  10.098
71400SOL    HW116097  10.288   5.663  10.180
71400SOL    HW216098  10.173   5.745  10.125
71401SOL     OW16099  14.728   2.026  14.211
71401SOL    HW116100  14.676   2.024  14.291
71401SOL    HW216101  14.815   1.997  14.239
71402SOL     OW16102   1.183   8.999  11.644
71402SOL    HW116103   1.240   8.949  11.586
71402SOL    HW216104   1.191   9.089  11.614
71403SOL     OW16105  11.675   1.303  10.227
71403SOL    HW116106  11.731   1.377  10.250
71403SOL    HW216107  11.588   1.328  10.256
71404SOL     OW16108   2.176   4.803   0.678
71404SOL    HW116109   2.210   4.769   0.596
71404SOL    HW216110   2.082   4.814   0.662
71405SOL     OW16111   4.060   2.211   2.697
71405SOL    HW116112   4.053   2.117   2.682
71405SOL    HW216113   4.079   2.219   2.791
71406SOL     OW16114   9.227   2.349   6.353
71406SOL    HW116115   9.160   2.341   6.420
71406SOL    HW216116   9.181   2.340   6.270
71407SOL     OW16117   6.261   5.984  11.655
71407SOL    HW116118   6.216   5.903  11.632
71407SOL    HW216119   6.251   5.990  11.750
71408SOL     OW16120  13.837   2.286   2.876
71408SOL    HW116121  13.793   2.369   2.858
71408SOL    HW216122  13.769   2.232   2.918
71409SOL     OW16123   0.363   6.956  10.897
71409SOL    HW116124   0.457   6.965  10.882
71409SOL    HW216125   0.332   6.902  10.823
71410SOL     OW16126  14.624   1.571   6.306
71410SOL    HW116127  14.719   1.566   6.299
71410SOL    HW216128  14.608   1.658   6.343
71411SOL     OW16129  11.639  11.482   8.681
71411SOL    HW116130  11.722  11.523   8.657
71411SOL    HW216131  11.658  11.388   8.681
71412SOL     OW16132  12.398   7.601   1.840
71412SOL    HW116133  12.473   7.542   1.845
71412SOL    HW216134  12.415   7.655   1.763
71413SOL     OW16135   5.828  11.056   8.383
71413SOL    HW116136   5.818  10.982   8.323
71413SOL    HW216137   5.884  11.118   8.336
71414SOL     OW16138   0.800   7.768  12.628
71414SOL    HW116139   0.734   7.727  12.573
71414SOL    HW216140   0.883   7.731  12.597
71415SOL     OW16141  14.793   1.561   6.689
71415SOL    HW116142  14.724   1.614   6.728
71415SOL    HW216143   0.004   1.584   6.738
71416SOL     OW16144  11.871   5.980  10.829
71416SOL    HW116145  11.880   6.063  10.877
71416SOL    HW216146  11.797   5.994  10.770
71417SOL     OW16147   9.097   0.146   8.115
71417SOL    HW116148   9.055   0.152   8.029
71417SOL    HW216149   9.052   0.074   8.159
71418SOL     OW16150  14.141   1.661   0.901
71418SOL    HW116151  14.211   1.722   0.924
71418SOL    HW216152  14.073   1.677   0.966
71419SOL     OW16153   7.614   1.537   1.234
71419SOL    HW116154   7.675   1.596   1.278
71419SOL    HW216155   7.669   1.472   1.192
71420SOL     OW16156  12.828   8.008   3.614
71420SOL    HW116157  12.846   7.916   3.634
71420SOL    HW216158  12.880   8.026   3.536
71421SOL     OW16159   0.955   1.954  11.073
71421SOL    HW116160   0.900   2.031  11.082
71421SOL    HW216161   0.979   1.931  11.163
71422SOL     OW16162   0.921   1.479   3.070
71422SOL    HW116163   0.906   1.422   2.995
71422SOL    HW216164   0.939   1.420   3.143
71423SOL     OW16165   5.335  13.487   3.463
71423SOL    HW116166   5.279  13.412   3.439
71423SOL    HW216167   5.274  13.560   3.473
71424SOL     OW16168   9.609   9.326  13.967
71424SOL    HW116169   9.607   9.342  14.061
71424SOL    HW216170   9.530   9.368  13.933
71425SOL     OW16171  10.202   4.575   4.884
71425SOL    HW116172  10.117   4.614   4.903
71425SOL    HW216173  10.199   4.488   4.924
71426SOL     OW16174   1.084  12.623   7.415
71426SOL    HW116175   1.040  12.553   7.463
71426SOL    HW216176   1.038  12.703   7.442
71427SOL     OW16177   7.866   0.047   1.707
71427SOL    HW116178   7.837  14.853   1.775
71427SOL    HW216179   7.879   0.129   1.755
71428SOL     OW16180   8.428   1.406   9.707
71428SOL    HW116181   8.456   1.445   9.790
71428SOL    HW216182   8.444   1.473   9.641
71429SOL     OW16183  11.993   0.462   5.480
71429SOL    HW116184  11.905   0.502   5.482
71429SOL    HW216185  12.016   0.454   5.573
71430SOL     OW16186   5.692   6.331   5.779
71430SOL    HW116187   5.599   6.350   5.767
71430SOL    HW216188   5.699   6.299   5.869
71431SOL     OW16189   0.550   6.637   2.414
71431SOL    HW116190   0.518   6.661   2.327
71431SOL    HW216191   0.545   6.542   2.416
71432SOL     OW16192   4.616  11.264   5.924
71432SOL    HW116193   4.581  11.250   6.012
71432SOL    HW216194   4.561  11.332   5.887
71433SOL     OW16195   1.215   0.072  11.159
71433SOL    HW116196   1.159  14.863  11.160
71433SOL    HW216197   1.260   0.071  11.243
71434SOL     OW16198   2.242  13.904  14.584
71434SOL    HW116199   2.289  13.821  14.587
71434SOL    HW216200   2.232  13.929  14.676
71435SOL     OW16201   5.307   3.870   7.774
71435SOL    HW116202   5.340   3.855   7.862
71435SOL    HW216203   5.264   3.955   7.778
71436SOL     OW16204   3.142   9.297  11.338
71436SOL    HW116205   3.125   9.296  11.432
71436SOL    HW216206   3.056   9.308  11.298
71437SOL     OW16207   4.934   1.124  13.727
71437SOL    HW116208   4.981   1.111  13.644
71437SOL    HW216209   4.952   1.045  13.777
71438SOL     OW16210  12.166  14.334  10.558
71438SOL    HW116211  12.183  14.308  10.467
71438SOL    HW216212  12.122  14.259  10.597
71439SOL     OW16213  13.114   2.833  13.150
71439SOL    HW116214  13.060   2.837  13.071
71439SOL    HW216215  13.177   2.763  13.132
71440SOL     OW16216   3.812   0.568   5.011
71440SOL    HW116217   3.809   0.482   4.969
71440SOL    HW216218   3.746   0.563   5.080
71441SOL     OW16219  13.487  14.605   8.701
71441SOL    HW116220  13.480  14.565   8.788
71441SOL    HW216221  13.570  14.653   8.704
71442SOL     OW16222   3.637   2.703  10.385
71442SOL    HW116223   3.627   2.702  10.480
71442SOL    HW216224   3.640   2.610  10.361
71443SOL     OW16225   8.628   7.078  14.791
71443SOL    HW116226   8.688   7.151  14.807
71443SOL    HW216227   8.667   7.029  14.718
71444SOL     OW16228   6.712   0.886   6.971
71444SOL    HW116229   6.656   0.810   6.952
71444SOL    HW216230   6.801   0.852   6.965
71445SOL     OW16231  11.477   7.082   0.245
71445SOL    HW116232  11.516   7.012   0.298
71445SOL    HW216233  11.532   7.158   0.261
71446SOL     OW16234   7.332   8.942  10.273
71446SOL    HW116235   7.245   8.915  10.242
71446SOL    HW216236   7.379   8.966  10.193
71447SOL     OW16237   1.171   5.525   2.443
71447SOL    HW116238   1.174   5.538   2.348
71447SOL    HW216239   1.210   5.439   2.457
71448SOL     OW16240  12.165  10.970  13.479
71448SOL    HW116241  12.218  10.905  13.432
71448SOL    HW216242  12.228  11.019  13.532
71449SOL     OW16243   3.047  14.484   1.797
71449SOL    HW116244   2.963  14.440   1.802
71449SOL    HW216245   3.058  14.505   1.704
71450SOL     OW16246  10.186   7.249   2.283
71450SOL    HW116247  10.158   7.251   2.192
71450SOL    HW216248  10.226   7.163   2.294
71451SOL     OW16249   1.446   9.548  11.109
71451SOL    HW116250   1.474   9.640  11.110
71451SOL    HW216251   1.448   9.523  11.016
71452SOL     OW16252   7.084   4.739   2.750
71452SOL    HW116253   7.005   4.691   2.724
71452SOL    HW216254   7.133   4.748   2.669
71453SOL     OW16255   2.356   5.922   6.416
71453SOL    HW116256   2.407   5.910   6.495
71453SOL    HW216257   2.363   5.838   6.370
71454SOL     OW16258   1.948   0.102  11.574
71454SOL    HW116259   1.888   0.027  11.575
71454SOL    HW216260   2.017   0.078  11.635
71455SOL     OW16261  12.765   1.541   1.614
71455SOL    HW116262  12.711   1.574   1.543
71455SOL    HW216263  12.847   1.589   1.607
71456SOL     OW16264   8.523  12.575   8.251
71456SOL    HW116265   8.612  12.543   8.266
71456SOL    HW216266   8.491  12.598   8.338
71457SOL     OW16267  10.605   1.525  14.426
71457SOL    HW116268  10.662   1.449  14.430
71457SOL    HW216269  10.640   1.586  14.490
71458SOL     OW16270   8.572   2.267   8.759
71458SOL    HW116271   8.613   2.342   8.716
71458SOL    HW216272   8.622   2.255   8.840
71459SOL     OW16273  10.764  10.846   7.863
71459SOL    HW116274  10.734  10.824   7.775
71459SOL    HW216275  10.729  10.777   7.919
71460SOL     OW16276   9.282   9.853   6.030
71460SOL    HW116277   9.355   9.825   6.085
71460SOL    HW216278   9.255   9.938   6.067
71461SOL     OW16279   5.728   4.674   5.484
71461SOL    HW116280   5.783   4.718   5.549
71461SOL    HW216281   5.759   4.706   5.400
71462SOL     OW16282  14.154  14.003   6.181
71462SOL    HW116283  14.101  13.998   6.101
71462SOL    HW216284  14.103  14.059   6.240
71463SOL     OW16285   4.404   6.100   0.212
71463SOL    HW116286   4.333   6.125   0.152
71463SOL    HW216287   4.377   6.133   0.297
71464SOL     OW16288  10.160   5.959   1.893
71464SOL    HW116289  10.233   5.905   1.923
71464SOL    HW216290  10.177   6.046   1.931
71465SOL     OW16291  12.828   2.865  11.018
71465SOL    HW116292  12.750   2.907  11.054
71465SOL    HW216293  12.853   2.800  11.084
71466SOL     OW16294   8.333   7.380  12.126
71466SOL    HW116295   8.296   7.430  12.053
71466SOL    HW216296   8.394   7.441  12.168
71467SOL     OW16297  12.482   2.555   3.315
71467SOL    HW116298  12.461   2.636   3.359
71467SOL    HW216299  12.460   2.570   3.223
71468SOL     OW16300   8.525  13.583   4.651
71468SOL    HW116301   8.503  13.584   4.744
71468SOL    HW216302   8.620  13.570   4.649
71469SOL     OW16303  13.586   9.483   9.257
71469SOL    HW116304  13.640   9.544   9.207
71469SOL    HW216305  13.507   9.533   9.280
71470SOL     OW16306   2.509   1.509   6.744
71470SOL    HW116307   2.545   1.482   6.829
71470SOL    HW216308   2.527   1.603   6.740
71471SOL     OW16309  10.420  12.778  11.370
71471SOL    HW116310  10.438  12.761  11.277
71471SOL    HW216311  10.347  12.720  11.391
71472SOL     OW16312   4.177   5.211   9.147
71472SOL    HW116313   4.240   5.225   9.217
71472SOL    HW216314   4.160   5.298   9.111
71473SOL     OW16315  10.140   8.420  12.716
71473SOL    HW116316  10.206   8.351  12.722
71473SOL    HW216317  10.072   8.393  12.778
71474SOL     OW16318   2.651   3.997   0.109
71474SOL    HW116319   2.573   4.053   0.104
71474SOL    HW216320   2.692   4.005   0.023
71475SOL     OW16321  11.907   0.167   1.977
71475SOL    HW116322  11.967   0.240   1.965
71475SOL    HW216323  11.951   0.093   1.934
71476SOL     OW16324   6.128  12.688   8.545
71476SOL    HW116325   6.131  12.684   8.449
71476SOL    HW216326   6.190  12.757   8.568
71477SOL     OW16327  10.927   5.157  12.806
71477SOL    HW116328  10.976   5.188  12.883
71477SOL    HW216329  10.849   5.213  12.803
71478SOL     OW16330   5.935   3.044  11.391
71478SOL    HW116331   5.842   3.057  11.371
71478SOL    HW216332   5.937   3.030  11.486
71479SOL     OW16333  12.979   6.299   7.197
71479SOL    HW116334  12.970   6.243   7.120
71479SOL    HW216335  13.072   6.291   7.221
71480SOL     OW16336   8.144   3.582   9.439
71480SOL    HW116337   8.187   3.651   9.389
71480SOL    HW216338   8.056   3.615   9.456
71481SOL     OW16339   9.674   5.700   7.205
71481SOL    HW116340   9.760   5.691   7.246
71481SOL    HW216341   9.635   5.776   7.248
71482SOL     OW16342  12.989   1.905  11.461
71482SOL    HW116343  13.060   1.875  11.405
71482SOL    HW216344  12.928   1.950  11.402
71483SOL     OW16345   9.897  12.496   6.493
71483SOL    HW116346   9.956  12.436   6.538
71483SOL    HW216347   9.948  12.531   6.420
71484SOL     OW16348   6.242   8.729   4.786
71484SOL    HW116349   6.281   8.657   4.736
71484SOL    HW216350   6.189   8.685   4.853
71485SOL     OW16351   5.242   4.091   2.041
71485SOL    HW116352   5.334   4.071   2.058
71485SOL    HW216353   5.228   4.176   2.083
71486SOL     OW16354   8.863  14.647   6.638
71486SOL    HW116355   8.906  14.582   6.694
71486SOL    HW216356   8.832  14.714   6.699
71487SOL     OW16357   6.409  10.077   1.724
71487SOL    HW116358   6.392  10.027   1.644
71487SOL    HW216359   6.403  10.168   1.698
71488SOL     OW16360   7.183   3.046   2.407
71488SOL    HW116361   7.125   2.971   2.416
71488SOL    HW216362   7.261   3.022   2.457
71489SOL     OW16363  10.496   0.022  12.455
71489SOL    HW116364  10.584   0.042  12.488
71489SOL    HW216365  10.511  14.857  12.367
71490SOL     OW16366  12.633  11.986   8.733
71490SOL    HW116367  12.664  12.077   8.735
71490SOL    HW216368  12.540  11.992   8.755
71491SOL     OW16369  10.435   0.401   3.042
71491SOL    HW116370  10.432   0.381   2.949
71491SOL    HW216371  10.517   0.450   3.054
71492SOL     OW16372   7.548   8.906   8.782
71492SOL    HW116373   7.504   8.958   8.715
71492SOL    HW216374   7.527   8.815   8.759
71493SOL     OW16375   8.863   4.729   4.764
71493SOL    HW116376   8.859   4.643   4.805
71493SOL    HW216377   8.778   4.769   4.784
71494SOL     OW16378  10.857   0.655   1.616
71494SOL    HW116379  10.841   0.677   1.708
71494SOL    HW216380  10.799   0.581   1.598
71495SOL     OW16381   9.650  11.919   9.603
71495SOL    HW116382   9.643  11.836   9.650
71495SOL    HW216383   9.592  11.909   9.528
71496SOL     OW16384   6.611   7.333   7.445
71496SOL    HW116385   6.546   7.264   7.450
71496SOL    HW216386   6.590   7.391   7.519
71497SOL     OW16387   6.104   6.972   3.226
71497SOL    HW116388   6.128   7.054   3.182
71497SOL    HW216389   6.134   6.985   3.317
71498SOL     OW16390  12.810  10.766   7.680
71498SOL    HW116391  12.800  10.752   7.585
71498SOL    HW216392  12.740  10.714   7.719
71499SOL     OW16393  11.909   7.806   9.784
71499SOL    HW116394  11.829   7.810   9.836
71499SOL    HW216395  11.968   7.869   9.825
71500SOL     OW16396  14.681   1.686  14.682
71500SOL    HW116397  14.758   1.647  14.723
71500SOL    HW216398  14.622   1.705  14.755
71501SOL     OW16399   1.829   2.026   1.792
71501SOL    HW116400   1.923   2.012   1.797
71501SOL    HW216401   1.797   1.957   1.735
71502SOL     OW16402  11.662   6.726   0.721
71502SOL    HW116403  11.728   6.793   0.707
71502SOL    HW216404  11.650   6.685   0.635
71503SOL     OW16405   2.670   3.975   5.450
71503SOL    HW116406   2.624   4.026   5.517
71503SOL    HW216407   2.688   3.891   5.493
71504SOL     OW16408  10.192   5.789  11.200
71504SOL    HW116409  10.250   5.861  11.173
71504SOL    HW216410  10.113   5.833  11.230
71505SOL     OW16411   2.533   1.344   9.427
71505SOL    HW116412   2.513   1.355   9.334
71505SOL    HW216413   2.502   1.256   9.448
71506SOL     OW16414  12.403  12.061  12.628
71506SOL    HW116415  12.489  12.044  12.668
71506SOL    HW216416  12.350  12.097  12.698
71507SOL     OW16417   9.908   9.384   2.080
71507SOL    HW116418   9.864   9.315   2.129
71507SOL    HW216419   9.899   9.358   1.988
71508SOL     OW16420   4.303  11.844   9.531
71508SOL    HW116421   4.336  11.930   9.557
71508SOL    HW216422   4.373  11.783   9.555
71509SOL     OW16423  11.518   7.904  14.448
71509SOL    HW116424  11.587   7.970  14.443
71509SOL    HW216425  11.560   7.822  14.423
71510SOL     OW16426   5.471   8.131   9.243
71510SOL    HW116427   5.557   8.097   9.268
71510SOL    HW216428   5.473   8.133   9.148
71511SOL     OW16429  12.950   9.600   1.640
71511SOL    HW116430  13.035   9.633   1.670
71511SOL    HW216431  12.922   9.539   1.708
71512SOL     OW16432   3.779  10.195   0.246
71512SOL    HW116433   3.706  10.148   0.286
71512SOL    HW216434   3.750  10.214   0.157
71513SOL     OW16435   4.943   0.645   4.041
71513SOL    HW116436   4.873   0.675   3.984
71513SOL    HW216437   4.987   0.576   3.992
71514SOL     OW16438   9.625   4.009   3.795
71514SOL    HW116439   9.666   3.923   3.802
71514SOL    HW216440   9.535   3.995   3.825
71515SOL     OW16441  10.114   9.179  14.717
71515SOL    HW116442  10.166   9.106  14.752
71515SOL    HW216443  10.091   9.151  14.628
71516SOL     OW16444   5.777  14.318   5.832
71516SOL    HW116445   5.757  14.229   5.804
71516SOL    HW216446   5.869  14.315   5.858
71517SOL     OW16447   0.301  14.550   1.593
71517SOL    HW116448   0.244  14.565   1.518
71517SOL    HW216449   0.275  14.615   1.657
71518SOL     OW16450  14.193   6.309   9.398
71518SOL    HW116451  14.235   6.358   9.327
71518SOL    HW216452  14.099   6.319   9.382
71519SOL     OW16453   5.053   4.514  13.341
71519SOL    HW116454   5.056   4.531  13.435
71519SOL    HW216455   4.973   4.557  13.311
71520SOL     OW16456  13.354   8.424   6.724
71520SOL    HW116457  13.387   8.514   6.723
71520SOL    HW216458  13.376   8.391   6.811
71521SOL     OW16459   7.758   1.707   1.387
71521SOL    HW116460   7.798   1.779   1.339
71521SOL    HW216461   7.736   1.745   1.473
71522SOL     OW16462   6.913  12.623  14.761
71522SOL    HW116463   6.992  12.669  14.789
71522SOL    HW216464   6.940  12.531  14.753
71523SOL     OW16465  10.228   3.840  10.401
71523SOL    HW116466  10.180   3.763  10.432
71523SOL    HW216467  10.314   3.832  10.442
71524SOL     OW16468   5.342   2.602   6.103
71524SOL    HW116469   5.311   2.517   6.136
71524SOL    HW216470   5.388   2.580   6.022
71525SOL     OW16471  12.753   9.685  14.510
71525SOL    HW116472  12.790   9.686  14.422
71525SOL    HW216473  12.810   9.743  14.561
71526SOL     OW16474  12.925   2.042   0.245
71526SOL    HW116475  12.866   2.092   0.189
71526SOL    HW216476  12.997   2.017   0.188
71527SOL     OW16477   3.152  14.243  11.685
71527SOL    HW116478   3.192  14.187  11.751
71527SOL    HW216479   3.159  14.193  11.603
71528SOL     OW16480   6.974   5.090  10.862
71528SOL    HW116481   6.951   5.054  10.776
71528SOL    HW216482   7.048   5.037  10.891
71529SOL     OW16483   8.859  13.048   2.976
71529SOL    HW116484   8.832  13.001   2.897
71529SOL    HW216485   8.946  13.014   2.994
71530SOL     OW16486   7.949  14.389   3.130
71530SOL    HW116487   7.883  14.450   3.162
71530SOL    HW216488   8.009  14.378   3.204
71531SOL     OW16489   6.633   4.976   5.988
71531SOL    HW116490   6.689   4.919   6.041
71531SOL    HW216491   6.570   4.917   5.948
71532SOL     OW16492  14.248   0.955   6.484
71532SOL    HW116493  14.264   0.969   6.390
71532SOL    HW216494  14.183   0.884   6.486
71533SOL     OW16495   0.311   0.369  13.184
71533SOL    HW116496   0.267   0.453  13.195
71533SOL    HW216497   0.315   0.356  13.089
71534SOL     OW16498   7.066   4.798   6.381
71534SOL    HW116499   7.118   4.718   6.368
71534SOL    HW216500   7.110   4.863   6.327
71535SOL     OW16501  11.917  10.249   2.082
71535SOL    HW116502  11.992  10.218   2.133
71535SOL    HW216503  11.899  10.337   2.117
71536SOL     OW16504  13.566  12.644  10.376
71536SOL    HW116505  13.589  12.731  10.344
71536SOL    HW216506  13.587  12.585  10.304
71537SOL     OW16507   4.683   6.756  11.201
71537SOL    HW116508   4.688   6.786  11.292
71537SOL    HW216509   4.733   6.674  11.200
71538SOL     OW16510  14.547   3.059   8.492
71538SOL    HW116511  14.587   2.979   8.460
71538SOL    HW216512  14.568   3.061   8.585
71539SOL     OW16513   5.588   4.274   2.620
71539SOL    HW116514   5.556   4.364   2.627
71539SOL    HW216515   5.683   4.281   2.629
71540SOL     OW16516   6.854   3.076  13.463
71540SOL    HW116517   6.849   3.058  13.369
71540SOL    HW216518   6.936   3.124  13.475
71541SOL     OW16519   6.542   0.646  13.652
71541SOL    HW116520   6.500   0.691  13.579
71541SOL    HW216521   6.485   0.663  13.727
71542SOL     OW16522   0.005  13.276   9.665
71542SOL    HW116523  14.857  13.275   9.759
71542SOL    HW216524   0.097  13.300   9.656
71543SOL     OW16525  11.766  13.634  12.696
71543SOL    HW116526  11.801  13.600  12.613
71543SOL    HW216527  11.808  13.719  12.707
71544SOL     OW16528  13.323   2.287   7.818
71544SOL    HW116529  13.267   2.319   7.747
71544SOL    HW216530  13.327   2.361   7.879
71545SOL     OW16531   9.139   5.495   9.612
71545SOL    HW116532   9.080   5.545   9.555
71545SOL    HW216533   9.183   5.562   9.664
71546SOL     OW16534  11.072  10.416   1.224
71546SOL    HW116535  11.029  10.351   1.280
71546SOL    HW216536  11.029  10.406   1.139
71547SOL     OW16537   9.519   3.656  13.471
71547SOL    HW116538   9.496   3.605  13.549
71547SOL    HW216539   9.587   3.716  13.501
71548SOL     OW16540  14.586  12.180  12.529
71548SOL    HW116541  14.556  12.266  12.500
71548SOL    HW216542  14.586  12.127  12.449
71549SOL     OW16543   6.327   8.833   3.893
71549SOL    HW116544   6.384   8.817   3.969
71549SOL    HW216545   6.341   8.925   3.872
71550SOL     OW16546   3.269  13.139   9.537
71550SOL    HW116547   3.219  13.209   9.579
71550SOL    HW216548   3.357  13.176   9.527
71551SOL     OW16549   1.673   0.475  12.061
71551SOL    HW116550   1.744   0.522  12.106
71551SOL    HW216551   1.670   0.514  11.974
71552SOL     OW16552   4.416   3.336  10.559
71552SOL    HW116553   4.348   3.338  10.491
71552SOL    HW216554   4.454   3.248  10.552
71553SOL     OW16555   7.424   5.306   3.170
71553SOL    HW116556   7.413   5.219   3.131
71553SOL    HW216557   7.500   5.296   3.228
71554SOL     OW16558   1.288   8.195   9.182
71554SOL    HW116559   1.312   8.117   9.132
71554SOL    HW216560   1.203   8.173   9.221
71555SOL     OW16561   1.977   4.357   4.875
71555SOL    HW116562   1.891   4.395   4.892
71555SOL    HW216563   2.020   4.420   4.817
71556SOL     OW16564   8.707   7.665   4.915
71556SOL    HW116565   8.646   7.606   4.959
71556SOL    HW216566   8.703   7.746   4.966
71557SOL     OW16567   7.104   4.298  13.005
71557SOL    HW116568   7.139   4.319  13.092
71557SOL    HW216569   7.020   4.256  13.024
71558SOL     OW16570   5.705   3.494   7.404
71558SOL    HW116571   5.676   3.410   7.439
71558SOL    HW216572   5.649   3.508   7.328
71559SOL     OW16573  11.078   1.210   5.979
71559SOL    HW116574  11.047   1.299   5.960
71559SOL    HW216575  11.000   1.156   5.972
71560SOL     OW16576  12.623  14.758   4.928
71560SOL    HW116577  12.545  14.750   4.982
71560SOL    HW216578  12.637  14.852   4.920
71561SOL     OW16579  10.796  14.838  10.126
71561SOL    HW116580  10.785  14.843  10.221
71561SOL    HW216581  10.861   0.036  10.106
71562SOL     OW16582   8.421   4.802  13.811
71562SOL    HW116583   8.353   4.829  13.874
71562SOL    HW216584   8.380   4.813  13.725
71563SOL     OW16585   5.585   5.279  10.875
71563SOL    HW116586   5.534   5.207  10.840
71563SOL    HW216587   5.619   5.324  10.798
71564SOL     OW16588   7.942   4.777  10.452
71564SOL    HW116589   7.982   4.691  10.464
71564SOL    HW216590   8.000   4.823  10.392
71565SOL     OW16591   3.053  14.373  11.999
71565SOL    HW116592   3.140  14.363  12.038
71565SOL    HW216593   3.001  14.416  12.066
71566SOL     OW16594   0.855   6.206   2.976
71566SOL    HW116595   0.912   6.139   3.014
71566SOL    HW216596   0.901   6.234   2.897
71567SOL     OW16597   9.390  11.285  13.375
71567SOL    HW116598   9.449  11.278  13.450
71567SOL    HW216599   9.380  11.194  13.345
71568SOL     OW16600   7.422   6.899   1.343
71568SOL    HW116601   7.450   6.938   1.260
71568SOL    HW216602   7.504   6.879   1.389
71569SOL     OW16603   3.503   8.221   7.478
71569SOL    HW116604   3.496   8.169   7.398
71569SOL    HW216605   3.495   8.312   7.449
71570SOL     OW16606   6.957   5.921   6.399
71570SOL    HW116607   7.023   5.983   6.368
71570SOL    HW216608   6.999   5.835   6.389
71571SOL     OW16609   7.380   2.768   2.085
71571SOL    HW116610   7.416   2.679   2.080
71571SOL    HW216611   7.443   2.822   2.038
71572SOL     OW16612   6.700   7.851   3.507
71572SOL    HW116613   6.636   7.788   3.472
71572SOL    HW216614   6.714   7.913   3.435
71573SOL     OW16615  10.810   7.963   4.206
71573SOL    HW116616  10.881   7.928   4.260
71573SOL    HW216617  10.748   7.890   4.198
71574SOL     OW16618  11.759   8.385   1.666
71574SOL    HW116619  11.835   8.384   1.608
71574SOL    HW216620  11.788   8.435   1.742
71575SOL     OW16621   2.764  13.762   8.810
71575SOL    HW116622   2.769  13.814   8.730
71575SOL    HW216623   2.754  13.826   8.880
71576SOL     OW16624   5.726   4.004  13.686
71576SOL    HW116625   5.812   3.998  13.729
71576SOL    HW216626   5.714   4.098  13.671
71577SOL     OW16627   9.961  11.381  11.840
71577SOL    HW116628   9.904  11.342  11.773
71577SOL    HW216629   9.901  11.423  11.901
71578SOL     OW16630   9.812  11.956  14.652
71578SOL    HW116631   9.836  11.892  14.720
71578SOL    HW216632   9.776  11.902  14.581
71579SOL     OW16633   6.133   2.843  13.846
71579SOL    HW116634   6.155   2.767  13.794
71579SOL    HW216635   6.065   2.813  13.906
71580SOL     OW16636   7.706  10.866  12.050
71580SOL    HW116637   7.678  10.892  11.962
71580SOL    HW216638   7.800  10.852  12.041
71581SOL     OW16639   2.373  11.028  10.509
71581SOL    HW116640   2.387  11.002  10.600
71581SOL    HW216641   2.281  11.056  10.506
71582SOL     OW16642   7.661   4.740   9.992
71582SOL    HW116643   7.695   4.777  10.074
71582SOL    HW216644   7.706   4.656   9.983
71583SOL     OW16645   7.117  10.977   3.654
71583SOL    HW116646   7.045  11.037   3.672
71583SOL    HW216647   7.077  10.906   3.604
71584SOL     OW16648   0.789   6.037  12.836
71584SOL    HW116649   0.740   6.099  12.782
71584SOL    HW216650   0.820   5.970  12.774
71585SOL     OW16651   3.441   2.786  14.627
71585SOL    HW116652   3.449   2.704  14.675
71585SOL    HW216653   3.354   2.783  14.587
71586SOL     OW16654   6.644   6.627  10.298
71586SOL    HW116655   6.725   6.591  10.334
71586SOL    HW216656   6.647   6.720  10.319
71587SOL     OW16657   9.582   5.486  14.089
71587SOL    HW116658   9.662   5.433  14.091
71587SOL    HW216659   9.590   5.545  14.164
71588SOL     OW16660   7.594  12.752   5.217
71588SOL    HW116661   7.603  12.844   5.191
71588SOL    HW216662   7.675  12.711   5.187
71589SOL     OW16663  12.618   4.369   7.649
71589SOL    HW116664  12.626   4.459   7.618
71589SOL    HW216665  12.695   4.355   7.704
71590SOL     OW16666   9.074   9.680  13.615
71590SOL    HW116667   8.985   9.694  13.647
71590SOL    HW216668   9.090   9.587  13.630
71591SOL     OW16669   1.228  12.442  13.919
71591SOL    HW116670   1.269  12.442  13.833
71591SOL    HW216671   1.295  12.478  13.978
71592SOL     OW16672  10.205   2.143  10.764
71592SOL    HW116673  10.190   2.056  10.802
71592SOL    HW216674  10.297   2.142  10.738
71593SOL     OW16675  11.541   2.061  14.334
71593SOL    HW116676  11.538   2.041  14.240
71593SOL    HW216677  11.449   2.056  14.362
71594SOL     OW16678   3.594   2.498  14.692
71594SOL    HW116679   3.582   2.435  14.763
71594SOL    HW216680   3.505   2.513  14.658
71595SOL     OW16681   7.453   9.562   3.316
71595SOL    HW116682   7.381   9.601   3.365
71595SOL    HW216683   7.529   9.616   3.337
71596SOL     OW16684   3.872   3.733   7.138
71596SOL    HW116685   3.913   3.788   7.206
71596SOL    HW216686   3.886   3.781   7.057
71597SOL     OW16687   2.045   8.919   6.913
71597SOL    HW116688   1.977   8.982   6.890
71597SOL    HW216689   2.036   8.849   6.848
71598SOL     OW16690   3.584   3.106   8.186
71598SOL    HW116691   3.581   3.057   8.268
71598SOL    HW216692   3.539   3.188   8.206
71599SOL     OW16693   3.114   2.419   5.694
71599SOL    HW116694   3.041   2.399   5.752
71599SOL    HW216695   3.075   2.468   5.622
71600SOL     OW16696  10.575   5.229  14.690
71600SOL    HW116697  10.582   5.136  14.710
71600SOL    HW216698  10.638   5.243  14.619
71601SOL     OW16699   8.226   5.281   3.311
71601SOL    HW116700   8.140   5.320   3.294
71601SOL    HW216701   8.207   5.190   3.334
71602SOL     OW16702   7.734   0.056   2.632
71602SOL    HW116703   7.765   0.128   2.687
71602SOL    HW216704   7.714   0.097   2.548
71603SOL     OW16705  11.867   6.607   3.492
71603SOL    HW116706  11.859   6.548   3.566
71603SOL    HW216707  11.872   6.549   3.416
71604SOL     OW16708   7.982   4.723   2.629
71604SOL    HW116709   7.940   4.733   2.714
71604SOL    HW216710   8.054   4.786   2.631
71605SOL     OW16711   5.013   6.948   0.128
71605SOL    HW116712   4.926   6.913   0.109
71605SOL    HW216713   5.043   6.897   0.203
71606SOL     OW16714   0.499  12.523   5.594
71606SOL    HW116715   0.538  12.436   5.582
71606SOL    HW216716   0.410  12.506   5.625
71607SOL     OW16717   1.037   2.226   6.087
71607SOL    HW116718   1.046   2.208   6.180
71607SOL    HW216719   0.964   2.171   6.058
71608SOL     OW16720   6.834  12.300   4.379
71608SOL    HW116721   6.859  12.225   4.325
71608SOL    HW216722   6.776  12.351   4.322
71609SOL     OW16723   8.960   5.359  12.892
71609SOL    HW116724   9.025   5.344  12.823
71609SOL    HW216725   9.001   5.424  12.950
71610SOL     OW16726  10.610  13.147  13.983
71610SOL    HW116727  10.699  13.131  14.015
71610SOL    HW216728  10.621  13.213  13.915
71611SOL     OW16729   3.759   1.399  14.048
71611SOL    HW116730   3.698   1.464  14.014
71611SOL    HW216731   3.845   1.431  14.020
71612SOL     OW16732  10.846   4.696   4.389
71612SOL    HW116733  10.766   4.686   4.337
71612SOL    HW216734  10.893   4.769   4.348
71613SOL     OW16735   0.400   8.835  12.656
71613SOL    HW116736   0.306   8.820  12.670
71613SOL    HW216737   0.443   8.761  12.698
71614SOL     OW16738  10.844  13.466  10.125
71614SOL    HW116739  10.867  13.523  10.199
71614SOL    HW216740  10.912  13.483  10.060
71615SOL     OW16741  11.055   1.496   4.009
71615SOL    HW116742  10.984   1.522   3.950
71615SOL    HW216743  11.012   1.442   4.075
71616SOL     OW16744   3.063  13.480   0.712
71616SOL    HW116745   3.156  13.503   0.704
71616SOL    HW216746   3.024  13.512   0.630
71617SOL     OW16747   6.979   4.036   4.927
71617SOL    HW116748   7.021   3.963   4.882
71617SOL    HW216749   6.961   4.100   4.858
71618SOL     OW16750   1.130  14.313  12.508
71618SOL    HW116751   1.054  14.343  12.557
71618SOL    HW216752   1.095  14.251  12.444
71619SOL     OW16753   0.737   9.369   2.630
71619SOL    HW116754   0.803   9.421   2.676
71619SOL    HW216755   0.784   9.292   2.599
71620SOL     OW16756   3.448   3.399   6.156
71620SOL    HW116757   3.520   3.371   6.213
71620SOL    HW216758   3.417   3.318   6.115
71621SOL     OW16759   3.858  10.338   6.195
71621SOL    HW116760   3.829  10.400   6.263
71621SOL    HW216761   3.874  10.393   6.118
71622SOL     OW16762   3.282   9.887   6.304
71622SOL    HW116763   3.221   9.843   6.245
71622SOL    HW216764   3.338   9.939   6.246
71623SOL     OW16765   0.243   3.148  12.135
71623SOL    HW116766   0.335   3.175  12.138
71623SOL    HW216767   0.243   3.060  12.172
71624SOL     OW16768   7.142   2.433  14.401
71624SOL    HW116769   7.057   2.447  14.359
71624SOL    HW216770   7.164   2.342  14.380
71625SOL     OW16771   7.219   2.461   7.695
71625SOL    HW116772   7.149   2.410   7.654
71625SOL    HW216773   7.228   2.425   7.783
71626SOL     OW16774  10.624  12.765  14.416
71626SOL    HW116775  10.576  12.714  14.351
71626SOL    HW216776  10.657  12.700  14.478
71627SOL     OW16777  11.269   1.126   9.926
71627SOL    HW116778  11.240   1.214   9.900
71627SOL    HW216779  11.277   1.079   9.843
71628SOL     OW16780   7.006  12.850   4.542
71628SOL    HW116781   6.943  12.779   4.554
71628SOL    HW216782   7.088  12.806   4.521
71629SOL     OW16783   4.472   8.384   8.487
71629SOL    HW116784   4.434   8.321   8.548
71629SOL    HW216785   4.423   8.372   8.406
71630SOL     OW16786  10.478   9.221   3.415
71630SOL    HW116787  10.552   9.233   3.355
71630SOL    HW216788  10.404   9.202   3.357
71631SOL     OW16789   3.406  11.204  13.881
71631SOL    HW116790   3.432  11.112  13.890
71631SOL    HW216791   3.458  11.236  13.806
71632SOL     OW16792  14.683   3.876   9.004
71632SOL    HW116793  14.696   3.883   8.910
71632SOL    HW216794  14.594   3.841   9.014
71633SOL     OW16795  14.754   3.337   4.574
71633SOL    HW116796  14.685   3.403   4.566
71633SOL    HW216797  14.709   3.257   4.601
71634SOL     OW16798   1.613   6.351  13.360
71634SOL    HW116799   1.549   6.397  13.307
71634SOL    HW216800   1.601   6.258  13.338
71635SOL     OW16801  14.832   0.086   7.464
71635SOL    HW116802  14.832  14.858   7.460
71635SOL    HW216803  14.855   0.105   7.555
71636SOL     OW16804   7.630  14.395  13.065
71636SOL    HW116805   7.618  14.354  13.151
71636SOL    HW216806   7.543  14.423  13.038
71637SOL     OW16807   7.014  10.156   7.907
71637SOL    HW116808   7.008  10.247   7.880
71637SOL    HW216809   7.069  10.115   7.841
71638SOL     OW16810   3.952   5.780   7.837
71638SOL    HW116811   3.949   5.736   7.752
71638SOL    HW216812   4.038   5.823   7.838
71639SOL     OW16813  11.284   4.246   5.045
71639SOL    HW116814  11.221   4.182   5.015
71639SOL    HW216815  11.288   4.311   4.975
71640SOL     OW16816   4.099  10.304   2.374
71640SOL    HW116817   4.130  10.379   2.424
71640SOL    HW216818   4.173  10.279   2.319
71641SOL     OW16819  10.708   2.256   1.347
71641SOL    HW116820  10.699   2.223   1.258
71641SOL    HW216821  10.627   2.306   1.362
71642SOL     OW16822  10.346  12.074  10.680
71642SOL    HW116823  10.253  12.077  10.658
71642SOL    HW216824  10.387  12.032  10.604
71643SOL     OW16825   5.853   2.584   9.113
71643SOL    HW116826   5.782   2.598   9.050
71643SOL    HW216827   5.906   2.513   9.074
71644SOL     OW16828   3.919  10.097   2.779
71644SOL    HW116829   3.876  10.016   2.753
71644SOL    HW216830   3.909  10.100   2.874
71645SOL     OW16831   3.758   9.414  12.600
71645SOL    HW116832   3.679   9.391  12.649
71645SOL    HW216833   3.741   9.384  12.511
71646SOL     OW16834   3.092  14.455   0.121
71646SOL    HW116835   3.066  14.371   0.158
71646SOL    HW216836   3.091  14.441   0.027
71647SOL     OW16837   5.889  14.750  12.337
71647SOL    HW116838   5.921  14.839  12.350
71647SOL    HW216839   5.802  14.760  12.299
71648SOL     OW16840   6.300   7.655   8.810
71648SOL    HW116841   6.244   7.584   8.842
71648SOL    HW216842   6.239   7.724   8.785
71649SOL     OW16843  10.186   2.300   1.995
71649SOL    HW116844  10.116   2.347   2.041
71649SOL    HW216845  10.186   2.336   1.907
71650SOL     OW16846   1.605  13.936   4.269
71650SOL    HW116847   1.614  14.015   4.216
71650SOL    HW216848   1.531  13.889   4.231
71651SOL     OW16849   1.639   0.153  14.650
71651SOL    HW116850   1.566   0.120  14.701
71651SOL    HW216851   1.625   0.120  14.562
71652SOL     OW16852   7.135  12.082   3.864
71652SOL    HW116853   7.105  12.173   3.865
71652SOL    HW216854   7.178  12.070   3.949
71653SOL     OW16855   3.404   7.372   0.105
71653SOL    HW116856   3.456   7.432   0.159
71653SOL    HW216857   3.322   7.419   0.090
71654SOL     OW16858   6.327   8.637   3.304
71654SOL    HW116859   6.382   8.679   3.370
71654SOL    HW216860   6.292   8.559   3.348
71655SOL     OW16861   1.923   3.117  13.812
71655SOL    HW116862   1.959   3.205  13.804
71655SOL    HW216863   1.976   3.075  13.880
71656SOL     OW16864   9.594  14.435  11.140
71656SOL    HW116865   9.595  14.529  11.158
71656SOL    HW216866   9.591  14.428  11.045
71657SOL     OW16867   7.677   3.103  10.010
71657SOL    HW116868   7.676   3.090   9.915
71657SOL    HW216869   7.703   3.018  10.045
71658SOL     OW16870   2.992  10.491   7.973
71658SOL    HW116871   3.059  10.439   7.928
71658SOL    HW216872   2.967  10.557   7.909
71659SOL     OW16873  13.888   0.856   4.176
71659SOL    HW116874  13.962   0.796   4.163
71659SOL    HW216875  13.815   0.800   4.202
71660SOL     OW16876   3.979   2.322   7.880
71660SOL    HW116877   4.019   2.360   7.959
71660SOL    HW216878   4.053   2.304   7.822
71661SOL     OW16879  11.866   0.470  12.040
71661SOL    HW116880  11.867   0.540  11.975
71661SOL    HW216881  11.878   0.515  12.124
71662SOL     OW16882   4.759  13.463   4.898
71662SOL    HW116883   4.682  13.455   4.841
71662SOL    HW216884   4.724  13.493   4.982
71663SOL     OW16885   7.729  11.571  14.178
71663SOL    HW116886   7.678  11.589  14.099
71663SOL    HW216887   7.698  11.485  14.207
71664SOL     OW16888   1.380   1.407   9.641
71664SOL    HW116889   1.382   1.360   9.558
71664SOL    HW216890   1.387   1.499   9.617
71665SOL     OW16891   6.511   8.246   0.576
71665SOL    HW116892   6.416   8.257   0.584
71665SOL    HW216893   6.526   8.153   0.592
71666SOL     OW16894  11.259  10.503   0.324
71666SOL    HW116895  11.169  10.489   0.295
71666SOL    HW216896  11.296  10.564   0.259
71667SOL     OW16897   3.598   2.698   0.670
71667SOL    HW116898   3.644   2.674   0.750
71667SOL    HW216899   3.620   2.627   0.609
71668SOL     OW16900  12.908   1.013   0.456
71668SOL    HW116901  12.814   0.999   0.468
71668SOL    HW216902  12.949   0.966   0.529
71669SOL     OW16903   1.166   3.209   4.440
71669SOL    HW116904   1.140   3.119   4.460
71669SOL    HW216905   1.083   3.256   4.432
71670SOL     OW16906  13.842   4.480   0.664
71670SOL    HW116907  13.751   4.504   0.647
71670SOL    HW216908  13.891   4.520   0.592
71671SOL     OW16909   6.446   2.301   9.487
71671SOL    HW116910   6.506   2.371   9.514
71671SOL    HW216911   6.377   2.347   9.438
71672SOL     OW16912   4.420   7.370   6.496
71672SOL    HW116913   4.373   7.335   6.572
71672SOL    HW216914   4.458   7.293   6.454
71673SOL     OW16915   0.907   5.698  14.223
71673SOL    HW116916   0.823   5.700  14.176
71673SOL    HW216917   0.970   5.734  14.161
71674SOL     OW16918   7.528   7.959   9.652
71674SOL    HW116919   7.448   7.960   9.706
71674SOL    HW216920   7.569   8.043   9.670
71675SOL     OW16921   2.093  11.932  13.235
71675SOL    HW116922   2.159  11.888  13.288
71675SOL    HW216923   2.128  11.930  13.146
71676SOL     OW16924  11.153  13.879   9.032
71676SOL    HW116925  11.158  13.895   9.126
71676SOL    HW216926  11.201  13.953   8.993
71677SOL     OW16927  14.018   4.028   6.216
71677SOL    HW116928  14.056   4.110   6.186
71677SOL    HW216929  13.930   4.027   6.176
71678SOL     OW16930  12.703   5.840   6.821
71678SOL    HW116931  12.734   5.863   6.734
71678SOL    HW216932  12.664   5.753   6.811
71679SOL     OW16933   6.289   4.980   4.784
71679SOL    HW116934   6.338   5.061   4.803
71679SOL    HW216935   6.354   4.921   4.748
71680SOL     OW16936   5.845   9.884  11.367
71680SOL    HW116937   5.891   9.803  11.384
71680SOL    HW216938   5.774   9.860  11.307
71681SOL     OW16939   3.631   6.987  11.220
71681SOL    HW116940   3.583   6.925  11.166
71681SOL    HW216941   3.633   7.068  11.169
71682SOL     OW16942   2.277   2.214  10.074
71682SOL    HW116943   2.254   2.291  10.022
71682SOL    HW216944   2.271   2.244  10.165
71683SOL     OW16945   0.495   8.539   2.918
71683SOL    HW116946   0.554   8.510   2.987
71683SOL    HW216947   0.544   8.605   2.870
71684SOL     OW16948   8.042   2.282  11.031
71684SOL    HW116949   7.967   2.341  11.039
71684SOL    HW216950   8.065   2.260  11.121
71685SOL     OW16951   5.629  10.645   4.507
71685SOL    HW116952   5.616  10.684   4.594
71685SOL    HW216953   5.572  10.695   4.449
71686SOL     OW16954   0.596  13.069  10.555
71686SOL    HW116955   0.547  13.103  10.630
71686SOL    HW216956   0.588  13.137  10.488
71687SOL     OW16957   9.444  11.264   6.476
71687SOL    HW116958   9.447  11.341   6.418
71687SOL    HW216959   9.403  11.297   6.556
71688SOL     OW16960   1.310   5.136  13.611
71688SOL    HW116961   1.359   5.117  13.530
71688SOL    HW216962   1.265   5.055  13.632
71689SOL     OW16963   5.932   6.432   1.522
71689SOL    HW116964   5.858   6.442   1.582
71689SOL    HW216965   5.984   6.361   1.560
71690SOL     OW16966   9.470   0.114  11.122
71690SOL    HW116967   9.520   0.195  11.136
71690SOL    HW216968   9.489   0.090  11.031
71691SOL     OW16969   9.658  10.797   0.672
71691SOL    HW116970   9.703  10.880   0.688
71691SOL    HW216971   9.688  10.769   0.586
71692SOL     OW16972   1.559  13.790   6.328
71692SOL    HW116973   1.467  13.809   6.310
71692SOL    HW216974   1.577  13.710   6.277
71693SOL     OW16975  13.544   4.808   4.642
71693SOL    HW116976  13.546   4.893   4.686
71693SOL    HW216977  13.585   4.824   4.557
71694SOL     OW16978   9.887  10.402   3.139
71694SOL    HW116979   9.967  10.359   3.110
71694SOL    HW216980   9.867  10.466   3.071
71695SOL     OW16981   8.919  13.135  12.938
71695SOL    HW116982   8.927  13.193  12.862
71695SOL    HW216983   8.878  13.055  12.903
71696SOL     OW16984   6.111   9.417  12.973
71696SOL    HW116985   6.095   9.507  12.943
71696SOL    HW216986   6.135   9.369  12.895
71697SOL     OW16987   7.562   8.910   6.509
71697SOL    HW116988   7.528   8.845   6.448
71697SOL    HW216989   7.584   8.860   6.588
71698SOL     OW16990  10.622  11.090   9.562
71698SOL    HW116991  10.561  11.053   9.626
71698SOL    HW216992  10.624  11.027   9.491
71699SOL     OW16993   1.040   1.274   2.098
71699SOL    HW116994   1.049   1.268   2.003
71699SOL    HW216995   1.130   1.263   2.130
71700SOL     OW16996  11.332   7.696   3.714
71700SOL    HW116997  11.279   7.633   3.763
71700SOL    HW216998  11.270   7.761   3.684
71701SOL     OW16999   7.003   4.022  13.897
71701SOL    HW117000   6.973   4.032  13.987
71701SOL    HW217001   7.005   4.111  13.862
71702SOL     OW17002  11.972  12.562  12.704
71702SOL    HW117003  12.025  12.618  12.760
71702SOL    HW217004  11.937  12.495  12.764
71703SOL     OW17005   7.421  13.254   1.169
71703SOL    HW117006   7.422  13.339   1.212
71703SOL    HW217007   7.511  13.241   1.138
71704SOL     OW17008  13.792   3.827   0.717
71704SOL    HW117009  13.747   3.903   0.681
71704SOL    HW217010  13.815   3.774   0.640
71705SOL     OW17011   8.303  13.044   5.085
71705SOL    HW117012   8.281  12.969   5.140
71705SOL    HW217013   8.273  13.120   5.135
71706SOL     OW17014  11.478   2.644   5.027
71706SOL    HW117015  11.469   2.608   5.115
71706SOL    HW217016  11.555   2.599   4.991
71707SOL     OW17017   1.088   7.131   9.815
71707SOL    HW117018   1.148   7.122   9.890
71707SOL    HW217019   1.136   7.184   9.752
71708SOL     OW17020   2.944   3.533   5.056
71708SOL    HW117021   2.881   3.604   5.064
71708SOL    HW217022   2.926   3.493   4.971
71709SOL     OW17023  11.962   2.070   8.553
71709SOL    HW117024  11.891   2.043   8.613
71709SOL    HW217025  11.920   2.129   8.492
71710SOL     OW17026   5.145   1.845   9.716
71710SOL    HW117027   5.217   1.906   9.734
71710SOL    HW217028   5.080   1.897   9.668
71711SOL     OW17029   0.219   8.142   2.515
71711SOL    HW117030   0.298   8.099   2.482
71711SOL    HW217031   0.240   8.235   2.514
71712SOL     OW17032   2.213   7.939   3.346
71712SOL    HW117033   2.238   7.856   3.387
71712SOL    HW217034   2.287   7.962   3.291
71713SOL     OW17035   7.310  11.503   3.827
71713SOL    HW117036   7.249  11.448   3.778
71713SOL    HW217037   7.354  11.442   3.887
71714SOL     OW17038   5.796   4.191   3.665
71714SOL    HW117039   5.720   4.202   3.723
71714SOL    HW217040   5.847   4.271   3.677
71715SOL     OW17041   7.995   9.811   3.631
71715SOL    HW117042   8.073   9.866   3.624
71715SOL    HW217043   7.966   9.800   3.540
71716SOL     OW17044   8.907  13.576  13.648
71716SOL    HW117045   8.959  13.499  13.627
71716SOL    HW217046   8.961  13.627  13.708
71717SOL     OW17047   5.953   2.923  10.514
71717SOL    HW117048   5.893   2.996  10.503
71717SOL    HW217049   6.039   2.965  10.525
71718SOL     OW17050  14.796   0.673  14.243
71718SOL    HW117051  14.734   0.651  14.174
71718SOL    HW217052  14.742   0.690  14.320
71719SOL     OW17053   1.543  12.864   9.613
71719SOL    HW117054   1.562  12.850   9.520
71719SOL    HW217055   1.613  12.923   9.642
71720SOL     OW17056  11.161   3.212   5.251
71720SOL    HW117057  11.085   3.208   5.309
71720SOL    HW217058  11.144   3.145   5.185
71721SOL     OW17059  12.412   7.630   8.318
71721SOL    HW117060  12.422   7.557   8.380
71721SOL    HW217061  12.376   7.701   8.371
71722SOL     OW17062  14.782   6.328   2.658
71722SOL    HW117063  14.788   6.234   2.641
71722SOL    HW217064  14.806   6.338   2.750
71723SOL     OW17065   8.634   0.950   9.003
71723SOL    HW117066   8.680   1.033   9.009
71723SOL    HW217067   8.609   0.929   9.093
71724SOL     OW17068   8.101   5.961  11.123
71724SOL    HW117069   8.041   6.034  11.109
71724SOL    HW217070   8.086   5.934  11.213
71725SOL     OW17071   1.430   4.349   2.912
71725SOL    HW117072   1.359   4.303   2.869
71725SOL    HW217073   1.497   4.358   2.844
71726SOL     OW17074  13.090   3.176   9.588
71726SOL    HW117075  13.001   3.182   9.554
71726SOL    HW217076  13.100   3.254   9.643
71727SOL     OW17077   2.626   6.107   5.534
71727SOL    HW117078   2.603   6.200   5.527
71727SOL    HW217079   2.656   6.083   5.447
71728SOL     OW17080  12.043  11.319  12.072
71728SOL    HW117081  11.973  11.353  12.015
71728SOL    HW217082  12.012  11.337  12.161
71729SOL     OW17083   0.934   2.510   7.867
71729SOL    HW117084   0.887   2.454   7.928
71729SOL    HW217085   0.867   2.568   7.830
71730SOL     OW17086  11.679   6.933   8.818
71730SOL    HW117087  11.719   6.848   8.837
71730SOL    HW217088  11.599   6.912   8.771
71731SOL     OW17089   3.282  10.958   8.302
71731SOL    HW117090   3.333  10.880   8.324
71731SOL    HW217091   3.217  10.964   8.371
71732SOL     OW17092   2.563   6.907   2.069
71732SOL    HW117093   2.607   6.975   2.120
71732SOL    HW217094   2.558   6.944   1.981
71733SOL     OW17095   3.545   6.287   7.911
71733SOL    HW117096   3.510   6.211   7.863
71733SOL    HW217097   3.572   6.348   7.842
71734SOL     OW17098   1.337  11.061  13.452
71734SOL    HW117099   1.385  11.120  13.510
71734SOL    HW217100   1.317  10.984  13.506
71735SOL     OW17101  12.223   4.425   1.130
71735SOL    HW117102  12.190   4.477   1.203
71735SOL    HW217103  12.316   4.447   1.126
71736SOL     OW17104   0.525   0.993   9.386
71736SOL    HW117105   0.514   0.954   9.300
71736SOL    HW217106   0.485   0.931   9.447
71737SOL     OW17107  10.446  12.694   1.402
71737SOL    HW117108  10.358  12.710   1.435
71737SOL    HW217109  10.432  12.657   1.315
71738SOL     OW17110   2.720   4.284   3.628
71738SOL    HW117111   2.720   4.197   3.666
71738SOL    HW217112   2.692   4.342   3.699
71739SOL     OW17113  12.858   5.524   2.436
71739SOL    HW117114  12.952   5.536   2.421
71739SOL    HW217115  12.840   5.436   2.404
71740SOL     OW17116  13.606   1.754   0.816
71740SOL    HW117117  13.510   1.757   0.822
71740SOL    HW217118  13.635   1.738   0.906
71741SOL     OW17119   4.225   1.250   5.190
71741SOL    HW117120   4.167   1.311   5.235
71741SOL    HW217121   4.300   1.303   5.163
71742SOL     OW17122   1.968  14.489  12.982
71742SOL    HW117123   1.945  14.458  12.895
71742SOL    HW217124   2.014  14.415  13.023
71743SOL     OW17125   0.422  13.281   2.975
71743SOL    HW117126   0.341  13.320   2.941
71743SOL    HW217127   0.400  13.188   2.988
71744SOL     OW17128  13.380  10.390   7.791
71744SOL    HW117129  13.401  10.329   7.721
71744SOL    HW217130  13.438  10.365   7.863
71745SOL     OW17131   6.325   3.244  11.478
71745SOL    HW117132   6.246   3.270  11.525
71745SOL    HW217133   6.293   3.203  11.398
71746SOL     OW17134   3.264   0.799   1.266
71746SOL    HW117135   3.226   0.712   1.276
71746SOL    HW217136   3.263   0.815   1.171
71747SOL     OW17137  13.064   1.193   5.777
71747SOL    HW117138  13.152   1.231   5.781
71747SOL    HW217139  13.005   1.265   5.802
71748SOL     OW17140   8.819   3.832   3.384
71748SOL    HW117141   8.914   3.816   3.378
71748SOL    HW217142   8.784   3.792   3.305
71749SOL     OW17143   7.373   8.462  11.418
71749SOL    HW117144   7.314   8.415  11.359
71749SOL    HW217145   7.461   8.436  11.389
71750SOL     OW17146   2.014   6.428  11.669
71750SOL    HW117147   2.009   6.508  11.616
71750SOL    HW217148   2.093   6.384  11.639
71751SOL     OW17149   2.241  11.747   3.695
71751SOL    HW117150   2.290  11.798   3.631
71751SOL    HW217151   2.304  11.727   3.764
71752SOL     OW17152   9.790  10.210   9.870
71752SOL    HW117153   9.842  10.274   9.919
71752SOL    HW217154   9.855  10.161   9.819
71753SOL     OW17155   2.034  10.251   4.475
71753SOL    HW117156   1.943  10.243   4.505
71753SOL    HW217157   2.072  10.319   4.531
71754SOL     OW17158   1.109  12.608  12.598
71754SOL    HW117159   1.072  12.696  12.601
71754SOL    HW217160   1.050  12.558  12.540
71755SOL     OW17161  10.881   3.173   5.677
71755SOL    HW117162  10.904   3.215   5.760
71755SOL    HW217163  10.786   3.167   5.679
71756SOL     OW17164   9.225   0.144   4.929
71756SOL    HW117165   9.264   0.058   4.946
71756SOL    HW217166   9.155   0.126   4.866
71757SOL     OW17167   8.046  13.378  11.307
71757SOL    HW117168   8.079  13.328  11.382
71757SOL    HW217169   8.005  13.455  11.347
71758SOL     OW17170   2.861   1.153  14.302
71758SOL    HW117171   2.794   1.161  14.234
71758SOL    HW217172   2.892   1.063  14.296
71759SOL     OW17173   4.230  11.658  10.485
71759SOL    HW117174   4.276  11.657  10.401
71759SOL    HW217175   4.297  11.636  10.549
71760SOL     OW17176   7.616  13.763   5.111
71760SOL    HW117177   7.532  13.762   5.156
71760SOL    HW217178   7.630  13.854   5.088
71761SOL     OW17179   3.257   1.894   9.162
71761SOL    HW117180   3.185   1.874   9.222
71761SOL    HW217181   3.216   1.946   9.092
71762SOL     OW17182  13.023   4.004   2.877
71762SOL    HW117183  13.118   4.003   2.887
71762SOL    HW217184  13.009   4.033   2.786
71763SOL     OW17185   9.184  11.735  11.628
71763SOL    HW117186   9.248  11.664  11.634
71763SOL    HW217187   9.233  11.814  11.652
71764SOL     OW17188   1.726   5.627   1.309
71764SOL    HW117189   1.639   5.593   1.288
71764SOL    HW217190   1.735   5.705   1.255
71765SOL     OW17191  10.637  12.259   6.290
71765SOL    HW117192  10.657  12.241   6.382
71765SOL    HW217193  10.692  12.198   6.241
71766SOL     OW17194   8.040   8.816  13.888
71766SOL    HW117195   8.106   8.854  13.830
71766SOL    HW217196   8.071   8.836  13.976
71767SOL     OW17197  12.127   0.316   6.615
71767SOL    HW117198  12.054   0.340   6.559
71767SOL    HW217199  12.087   0.284   6.696
71768SOL     OW17200   2.189   3.798  13.301
71768SOL    HW117201   2.119   3.810  13.366
71768SOL    HW217202   2.206   3.704  13.301
71769SOL     OW17203   5.571  12.962   0.123
71769SOL    HW117204   5.514  13.027   0.083
71769SOL    HW217205   5.595  12.904   0.050
71770SOL     OW17206   5.795  14.148   1.445
71770SOL    HW117207   5.886  14.147   1.414
71770SOL    HW217208   5.797  14.095   1.525
71771SOL     OW17209   7.127   0.746   9.444
71771SOL    HW117210   7.127   0.656   9.413
71771SOL    HW217211   7.056   0.788   9.395
71772SOL     OW17212  10.051  11.051  11.323
71772SOL    HW117213  10.101  11.130  11.303
71772SOL    HW217214   9.978  11.081  11.377
71773SOL     OW17215   5.852   0.298  13.357
71773SOL    HW117216   5.924   0.239  13.334
71773SOL    HW217217   5.857   0.306  13.452
71774SOL     OW17218  12.982  12.520   3.290
71774SOL    HW117219  13.019  12.434   3.309
71774SOL    HW217220  12.946  12.511   3.201
71775SOL     OW17221   1.761  12.997   7.912
71775SOL    HW117222   1.825  13.064   7.936
71775SOL    HW217223   1.733  12.959   7.995
71776SOL     OW17224  11.323   0.068   7.497
71776SOL    HW117225  11.385   0.037   7.563
71776SOL    HW217226  11.258  14.866   7.491
71777SOL     OW17227   2.386   9.068   9.719
71777SOL    HW117228   2.382   9.149   9.771
71777SOL    HW217229   2.450   9.013   9.765
71778SOL     OW17230   5.941   0.216   8.364
71778SOL    HW117231   5.965   0.198   8.273
71778SOL    HW217232   5.863   0.163   8.379
71779SOL     OW17233  12.480   4.974   7.483
71779SOL    HW117234  12.468   5.066   7.459
71779SOL    HW217235  12.392   4.936   7.482
71780SOL     OW17236   3.419  12.228   1.092
71780SOL    HW117237   3.383  12.142   1.074
71780SOL    HW217238   3.437  12.228   1.186
71781SOL     OW17239  13.543  13.710   4.305
71781SOL    HW117240  13.455  13.737   4.333
71781SOL    HW217241  13.603  13.766   4.354
71782SOL     OW17242   5.642   5.153  13.588
71782SOL    HW117243   5.586   5.202  13.648
71782SOL    HW217244   5.593   5.073  13.569
71783SOL     OW17245   0.173   7.565   1.944
71783SOL    HW117246   0.156   7.657   1.962
71783SOL    HW217247   0.163   7.521   2.028
71784SOL     OW17248   4.962   2.589   6.318
71784SOL    HW117249   4.901   2.607   6.390
71784SOL    HW217250   4.983   2.496   6.327
71785SOL     OW17251  11.980  14.027  14.740
71785SOL    HW117252  12.030  14.077  14.805
71785SOL    HW217253  12.047  13.978  14.691
71786SOL     OW17254   2.714  12.069   4.943
71786SOL    HW117255   2.792  12.025   4.978
71786SOL    HW217256   2.726  12.066   4.848
71787SOL     OW17257  13.079   3.617   6.228
71787SOL    HW117258  13.086   3.522   6.230
71787SOL    HW217259  13.096   3.645   6.318
71788SOL     OW17260   4.507   1.684   4.576
71788SOL    HW117261   4.564   1.682   4.499
71788SOL    HW217262   4.545   1.619   4.635
71789SOL     OW17263   3.079   0.597  11.617
71789SOL    HW117264   3.070   0.692  11.628
71789SOL    HW217265   3.019   0.560  11.681
71790SOL     OW17266  12.413  12.214  11.476
71790SOL    HW117267  12.369  12.267  11.542
71790SOL    HW217268  12.362  12.133  11.472
71791SOL     OW17269   7.158   5.358   5.752
71791SOL    HW117270   7.171   5.432   5.811
71791SOL    HW217271   7.084   5.383   5.697
71792SOL     OW17272  10.661   9.501  11.181
71792SOL    HW117273  10.631   9.473  11.268
71792SOL    HW217274  10.673   9.420  11.132
71793SOL     OW17275  14.356   6.183  11.652
71793SOL    HW117276  14.416   6.204  11.723
71793SOL    HW217277  14.354   6.087  11.651
71794SOL     OW17278  12.157   4.225   7.519
71794SOL    HW117279  12.152   4.314   7.554
71794SOL    HW217280  12.237   4.224   7.467
71795SOL     OW17281   8.263  12.648  11.474
71795SOL    HW117282   8.341  12.602  11.444
71795SOL    HW217283   8.225  12.589  11.540
71796SOL     OW17284  10.198   9.323  13.918
71796SOL    HW117285  10.199   9.343  14.012
71796SOL    HW217286  10.130   9.256  13.909
71797SOL     OW17287   2.950   1.536   9.096
71797SOL    HW117288   2.876   1.587   9.128
71797SOL    HW217289   2.925   1.445   9.112
71798SOL     OW17290   0.927   4.137   5.504
71798SOL    HW117291   0.841   4.158   5.469
71798SOL    HW217292   0.924   4.044   5.525
71799SOL     OW17293   4.781   2.341   9.782
71799SOL    HW117294   4.794   2.434   9.799
71799SOL    HW217295   4.831   2.324   9.702
71800SOL     OW17296   6.617   8.973   0.296
71800SOL    HW117297   6.610   9.023   0.377
71800SOL    HW217298   6.560   9.018   0.234
71801SOL     OW17299   0.103   6.724   9.703
71801SOL    HW117300   0.123   6.634   9.730
71801SOL    HW217301   0.177   6.748   9.646
71802SOL     OW17302   7.089   4.787  14.312
71802SOL    HW117303   7.012   4.738  14.283
71802SOL    HW217304   7.094   4.770  14.406
71803SOL     OW17305   3.270   6.028   1.579
71803SOL    HW117306   3.233   6.095   1.521
71803SOL    HW217307   3.320   6.078   1.644
71804SOL     OW17308   5.507   3.052   0.314
71804SOL    HW117309   5.548   3.136   0.335
71804SOL    HW217310   5.474   3.020   0.398
71805SOL     OW17311   3.233   3.553   5.877
71805SOL    HW117312   3.305   3.611   5.855
71805SOL    HW217313   3.273   3.483   5.929
71806SOL     OW17314  11.342   5.261   4.987
71806SOL    HW117315  11.318   5.345   5.025
71806SOL    HW217316  11.262   5.209   4.990
71807SOL     OW17317   7.587  14.039   9.829
71807SOL    HW117318   7.605  13.976   9.760
71807SOL    HW217319   7.520  13.997   9.883
71808SOL     OW17320   1.759   4.333   0.853
71808SOL    HW117321   1.704   4.257   0.834
71808SOL    HW217322   1.846   4.308   0.821
71809SOL     OW17323   7.547   1.590   0.885
71809SOL    HW117324   7.550   1.495   0.897
71809SOL    HW217325   7.631   1.621   0.918
71810SOL     OW17326  12.222   1.843   4.443
71810SOL    HW117327  12.234   1.922   4.496
71810SOL    HW217328  12.153   1.794   4.489
71811SOL     OW17329   1.407  11.287   1.563
71811SOL    HW117330   1.491  11.299   1.520
71811SOL    HW217331   1.364  11.373   1.556
71812SOL     OW17332   9.968  10.621   9.771
71812SOL    HW117333   9.900  10.636   9.837
71812SOL    HW217334  10.009  10.539   9.796
71813SOL     OW17335   3.973  13.569   7.464
71813SOL    HW117336   3.944  13.606   7.548
71813SOL    HW217337   4.061  13.605   7.451
71814SOL     OW17338   2.881   9.420  14.186
71814SOL    HW117339   2.841   9.494  14.231
71814SOL    HW217340   2.917   9.458  14.105
71815SOL     OW17341  14.670   3.891   7.522
71815SOL    HW117342  14.603   3.959   7.532
71815SOL    HW217343  14.713   3.889   7.607
71816SOL     OW17344   7.312  11.349   8.307
71816SOL    HW117345   7.308  11.368   8.401
71816SOL    HW217346   7.241  11.401   8.269
71817SOL     OW17347   0.785   2.814  11.918
71817SOL    HW117348   0.782   2.783  12.008
71817SOL    HW217349   0.842   2.752  11.873
71818SOL     OW17350  14.187   6.598   0.563
71818SOL    HW117351  14.094   6.592   0.542
71818SOL    HW217352  14.226   6.637   0.484
71819SOL     OW17353  14.797   4.940   6.168
71819SOL    HW117354  14.752   4.984   6.096
71819SOL    HW217355   0.022   4.963   6.156
71820SOL     OW17356   1.906  12.907   1.313
71820SOL    HW117357   1.972  12.847   1.347
71820SOL    HW217358   1.956  12.981   1.277
71821SOL     OW17359   9.636   7.655   8.822
71821SOL    HW117360   9.724   7.685   8.843
71821SOL    HW217361   9.581   7.733   8.829
71822SOL     OW17362   5.804  11.233   6.561
71822SOL    HW117363   5.858  11.278   6.626
71822SOL    HW217364   5.744  11.180   6.613
71823SOL     OW17365   0.497   8.323  11.643
71823SOL    HW117366   0.471   8.349  11.732
71823SOL    HW217367   0.514   8.229  11.650
71824SOL     OW17368   7.210   1.069   8.855
71824SOL    HW117369   7.299   1.094   8.878
71824SOL    HW217370   7.159   1.150   8.867
71825SOL     OW17371   8.269   4.300   1.575
71825SOL    HW117372   8.258   4.338   1.488
71825SOL    HW217373   8.191   4.246   1.588
71826SOL     OW17374  14.261  14.112  11.311
71826SOL    HW117375  14.188  14.173  11.305
71826SOL    HW217376  14.333  14.164  11.349
71827SOL     OW17377  11.905   2.705   4.430
71827SOL    HW117378  11.970   2.743   4.370
71827SOL    HW217379  11.908   2.611   4.413
71828SOL     OW17380   5.558   5.585   3.641
71828SOL    HW117381   5.599   5.614   3.559
71828SOL    HW217382   5.517   5.664   3.677
71829SOL     OW17383   4.055   6.037   7.698
71829SOL    HW117384   3.978   6.088   7.722
71829SOL    HW217385   4.129   6.097   7.712
71830SOL     OW17386   5.275   1.346   9.278
71830SOL    HW117387   5.238   1.268   9.319
71830SOL    HW217388   5.199   1.402   9.261
71831SOL     OW17389   7.297  10.490  14.376
71831SOL    HW117390   7.206  10.469  14.398
71831SOL    HW217391   7.326  10.417  14.322
71832SOL     OW17392   4.870  14.261   3.327
71832SOL    HW117393   4.831  14.290   3.244
71832SOL    HW217394   4.800  14.271   3.391
71833SOL     OW17395  12.456  10.662   8.705
71833SOL    HW117396  12.489  10.585   8.752
71833SOL    HW217397  12.376  10.686   8.752
71834SOL     OW17398   4.389   3.051   5.379
71834SOL    HW117399   4.342   2.981   5.425
71834SOL    HW217400   4.480   3.042   5.408
71835SOL     OW17401   8.357  10.687  10.950
71835SOL    HW117402   8.443  10.663  10.986
71835SOL    HW217403   8.294  10.660  11.017
71836SOL     OW17404   0.799   4.543  12.540
71836SOL    HW117405   0.805   4.618  12.481
71836SOL    HW217406   0.724   4.493  12.507
71837SOL     OW17407  12.993   0.519  12.499
71837SOL    HW117408  13.053   0.506  12.425
71837SOL    HW217409  12.909   0.540  12.459
71838SOL     OW17410  12.159   0.772  14.273
71838SOL    HW117411  12.150   0.684  14.310
71838SOL    HW217412  12.241   0.805  14.309
71839SOL     OW17413  10.305   7.976   1.141
71839SOL    HW117414  10.279   7.890   1.174
71839SOL    HW217415  10.370   7.957   1.074
71840SOL     OW17416  14.413   9.838   2.507
71840SOL    HW117417  14.485   9.872   2.559
71840SOL    HW217418  14.423   9.879   2.422
71841SOL     OW17419   4.202   1.615   1.302
71841SOL    HW117420   4.248   1.696   1.323
71841SOL    HW217421   4.255   1.546   1.344
71842SOL     OW17422   0.761  14.283   8.411
71842SOL    HW117423   0.738  14.221   8.343
71842SOL    HW217424   0.699  14.266   8.482
71843SOL     OW17425   1.624   8.210  10.189
71843SOL    HW117426   1.696   8.268  10.215
71843SOL    HW217427   1.638   8.196  10.096
71844SOL     OW17428   3.368  11.807   7.715
71844SOL    HW117429   3.303  11.877   7.722
71844SOL    HW217430   3.387  11.800   7.622
71845SOL     OW17431   4.877   6.061   5.495
71845SOL    HW117432   4.865   6.058   5.400
71845SOL    HW217433   4.789   6.044   5.530
71846SOL     OW17434   5.019   3.352   0.555
71846SOL    HW117435   5.027   3.278   0.494
71846SOL    HW217436   4.938   3.396   0.529
71847SOL     OW17437   7.439   6.321  10.603
71847SOL    HW117438   7.404   6.242  10.644
71847SOL    HW217439   7.364   6.381  10.598
71848SOL     OW17440   3.684  13.320   8.964
71848SOL    HW117441   3.611  13.268   8.930
71848SOL    HW217442   3.676  13.405   8.920
71849SOL     OW17443   9.777   4.792   3.151
71849SOL    HW117444   9.827   4.835   3.221
71849SOL    HW217445   9.841   4.777   3.081
71850SOL     OW17446  11.197   3.447   4.111
71850SOL    HW117447  11.227   3.389   4.041
71850SOL    HW217448  11.233   3.408   4.191
71851SOL     OW17449   5.711   9.019   7.061
71851SOL    HW117450   5.625   9.028   7.102
71851SOL    HW217451   5.695   8.962   6.986
71852SOL     OW17452  11.043  13.461   8.477
71852SOL    HW117453  11.063  13.369   8.464
71852SOL    HW217454  10.999  13.487   8.395
71853SOL     OW17455   5.051  11.204  12.275
71853SOL    HW117456   4.969  11.155  12.277
71853SOL    HW217457   5.052  11.254  12.357
71854SOL     OW17458   5.496  11.784  12.574
71854SOL    HW117459   5.460  11.743  12.653
71854SOL    HW217460   5.526  11.711  12.520
71855SOL     OW17461  13.955   6.812   8.853
71855SOL    HW117462  13.991   6.894   8.889
71855SOL    HW217463  13.956   6.826   8.758
71856SOL     OW17464   6.688   6.572   5.036
71856SOL    HW117465   6.746   6.574   4.960
71856SOL    HW217466   6.678   6.664   5.060
71857SOL     OW17467  10.794  13.692  14.169
71857SOL    HW117468  10.738  13.763  14.137
71857SOL    HW217469  10.874  13.736  14.197
71858SOL     OW17470   0.166   0.726   2.458
71858SOL    HW117471   0.124   0.812   2.456
71858SOL    HW217472   0.113   0.674   2.518
71859SOL     OW17473  14.850  10.577   8.790
71859SOL    HW117474   0.054  10.541   8.843
71859SOL    HW217475  14.839  10.514   8.718
71860SOL     OW17476   1.303  12.098  12.052
71860SOL    HW117477   1.329  12.114  11.961
71860SOL    HW217478   1.362  12.028  12.081
71861SOL     OW17479  11.963  12.394   4.885
71861SOL    HW117480  11.931  12.467   4.937
71861SOL    HW217481  11.993  12.330   4.950
71862SOL     OW17482   5.892   6.203  11.834
71862SOL    HW117483   5.815   6.184  11.781
71862SOL    HW217484   5.958   6.230  11.770
71863SOL     OW17485   7.299  12.710   5.811
71863SOL    HW117486   7.360  12.775   5.774
71863SOL    HW217487   7.296  12.730   5.904
71864SOL     OW17488   1.972  12.872   3.034
71864SOL    HW117489   2.024  12.806   2.988
71864SOL    HW217490   1.936  12.827   3.110
71865SOL     OW17491   0.386   9.591  14.145
71865SOL    HW117492   0.383   9.568  14.052
71865SOL    HW217493   0.447   9.665  14.150
71866SOL     OW17494   5.854   8.695  11.515
71866SOL    HW117495   5.890   8.626  11.572
71866SOL    HW217496   5.876   8.776  11.560
71867SOL     OW17497  14.675   4.794   8.792
71867SOL    HW117498  14.701   4.880   8.760
71867SOL    HW217499  14.675   4.738   8.714
71868SOL     OW17500   1.345   7.039   3.309
71868SOL    HW117501   1.343   6.948   3.279
71868SOL    HW217502   1.413   7.040   3.376
71869SOL     OW17503  11.166   8.738   3.085
71869SOL    HW117504  11.153   8.644   3.076
71869SOL    HW217505  11.223   8.762   3.012
71870SOL     OW17506   5.191   2.678   3.495
71870SOL    HW117507   5.145   2.707   3.416
71870SOL    HW217508   5.274   2.726   3.493
71871SOL     OW17509   6.068   4.460   1.716
71871SOL    HW117510   5.996   4.523   1.722
71871SOL    HW217511   6.147   4.514   1.710
71872SOL     OW17512   3.187   7.238   8.003
71872SOL    HW117513   3.255   7.219   7.939
71872SOL    HW217514   3.107   7.201   7.964
71873SOL     OW17515   5.562   2.283   8.300
71873SOL    HW117516   5.491   2.263   8.239
71873SOL    HW217517   5.544   2.373   8.330
71874SOL     OW17518  12.018   4.551   7.899
71874SOL    HW117519  11.948   4.521   7.958
71874SOL    HW217520  11.974   4.568   7.816
71875SOL     OW17521   0.851   8.179  11.566
71875SOL    HW117522   0.914   8.193  11.496
71875SOL    HW217523   0.836   8.084  11.566
71876SOL     OW17524   4.017  10.045   6.756
71876SOL    HW117525   4.071  10.073   6.682
71876SOL    HW217526   3.929  10.034   6.720
71877SOL     OW17527  12.897   3.951   4.888
71877SOL    HW117528  12.931   3.866   4.862
71877SOL    HW217529  12.804   3.936   4.904
71878SOL     OW17530  12.229   5.661  11.513
71878SOL    HW117531  12.150   5.631  11.558
71878SOL    HW217532  12.216   5.755  11.501
71879SOL     OW17533   8.084   4.174   4.931
71879SOL    HW117534   8.003   4.123   4.924
71879SOL    HW217535   8.094   4.215   4.845
71880SOL     OW17536   3.878   3.684   4.190
71880SOL    HW117537   3.912   3.629   4.120
71880SOL    HW217538   3.938   3.671   4.263
71881SOL     OW17539  13.103  13.014   7.722
71881SOL    HW117540  13.089  13.107   7.703
71881SOL    HW217541  13.055  12.999   7.803
71882SOL     OW17542   5.797   6.261  12.577
71882SOL    HW117543   5.771   6.290  12.490
71882SOL    HW217544   5.742   6.312  12.637
71883SOL     OW17545   1.105   1.588   5.780
71883SOL    HW117546   1.196   1.564   5.768
71883SOL    HW217547   1.077   1.538   5.857
71884SOL     OW17548   9.143   4.327  11.686
71884SOL    HW117549   9.217   4.330  11.625
71884SOL    HW217550   9.183   4.330  11.773
71885SOL     OW17551  13.444  10.992   8.834
71885SOL    HW117552  13.417  11.084   8.825
71885SOL    HW217553  13.368  10.942   8.806
71886SOL     OW17554   0.979   9.353  13.127
71886SOL    HW117555   0.957   9.261  13.132
71886SOL    HW217556   1.038   9.359  13.052
71887SOL     OW17557   4.824  13.620   3.856
71887SOL    HW117558   4.872  13.678   3.916
71887SOL    HW217559   4.893  13.574   3.807
71888SOL     OW17560   7.727   8.631   9.618
71888SOL    HW117561   7.743   8.630   9.712
71888SOL    HW217562   7.801   8.584   9.579
71889SOL     OW17563   1.274   2.518   5.329
71889SOL    HW117564   1.297   2.568   5.250
71889SOL    HW217565   1.211   2.574   5.375
71890SOL     OW17566  13.699   1.979   5.177
71890SOL    HW117567  13.745   1.917   5.234
71890SOL    HW217568  13.762   1.998   5.107
71891SOL     OW17569  13.372   9.942   3.882
71891SOL    HW117570  13.436   9.993   3.931
71891SOL    HW217571  13.335   9.881   3.946
71892SOL     OW17572   7.728  14.655   1.516
71892SOL    HW117573   7.802  14.704   1.551
71892SOL    HW217574   7.761  14.616   1.435
71893SOL     OW17575   1.165   6.806  11.509
71893SOL    HW117576   1.210   6.721  11.504
71893SOL    HW217577   1.131   6.820  11.421
71894SOL     OW17578  11.173   5.746   9.050
71894SOL    HW117579  11.233   5.679   9.080
71894SOL    HW217580  11.134   5.781   9.130
71895SOL     OW17581   0.547  12.999   5.874
71895SOL    HW117582   0.591  12.976   5.792
71895SOL    HW217583   0.581  13.086   5.896
71896SOL     OW17584   0.133   0.443   0.033
71896SOL    HW117585   0.208   0.474  14.851
71896SOL    HW217586   0.129   0.501   0.109
71897SOL     OW17587   1.110   6.693   2.472
71897SOL    HW117588   1.108   6.725   2.562
71897SOL    HW217589   1.120   6.771   2.418
71898SOL     OW17590   3.012  10.025  11.023
71898SOL    HW117591   2.927   9.990  10.996
71898SOL    HW217592   2.993  10.113  11.057
71899SOL     OW17593  11.349  13.329   3.433
71899SOL    HW117594  11.267  13.319   3.480
71899SOL    HW217595  11.416  13.300   3.494
71900SOL     OW17596   6.043   6.539   5.140
71900SOL    HW117597   6.124   6.554   5.091
71900SOL    HW217598   5.974   6.570   5.081
71901SOL     OW17599   1.633   5.484  13.201
71901SOL    HW117600   1.586   5.538  13.138
71901SOL    HW217601   1.624   5.530  13.284
71902SOL     OW17602   1.363   6.980   2.347
71902SOL    HW117603   1.409   6.910   2.299
71902SOL    HW217604   1.416   6.993   2.426
71903SOL     OW17605   7.519   7.584   3.480
71903SOL    HW117606   7.537   7.496   3.445
71903SOL    HW217607   7.442   7.572   3.536
71904SOL     OW17608   0.934   9.719   0.964
71904SOL    HW117609   1.017   9.764   0.946
71904SOL    HW217610   0.912   9.674   0.883
71905SOL     OW17611   7.173   2.826   0.963
71905SOL    HW117612   7.146   2.842   0.873
71905SOL    HW217613   7.123   2.889   1.015
71906SOL     OW17614   1.975   3.340  10.712
71906SOL    HW117615   1.925   3.401  10.766
71906SOL    HW217616   2.054   3.388  10.688
71907SOL     OW17617   1.394   6.457  11.172
71907SOL    HW117618   1.467   6.463  11.234
71907SOL    HW217619   1.332   6.397  11.214
71908SOL     OW17620   6.168   2.602  14.468
71908SOL    HW117621   6.242   2.638  14.419
71908SOL    HW217622   6.208   2.536  14.525
71909SOL     OW17623   2.581  12.274   7.316
71909SOL    HW117624   2.556  12.345   7.257
71909SOL    HW217625   2.622  12.208   7.260
71910SOL     OW17626   1.056   3.101  11.744
71910SOL    HW117627   1.076   3.008  11.728
71910SOL    HW217628   1.111   3.125  11.818
71911SOL     OW17629  13.335   7.363  14.839
71911SOL    HW117630  13.315   7.348  14.746
71911SOL    HW217631  13.405   7.429  14.838
71912SOL     OW17632   2.870   9.333   2.076
71912SOL    HW117633   2.885   9.242   2.054
71912SOL    HW217634   2.815   9.366   2.004
71913SOL     OW17635   2.237   2.688  14.343
71913SOL    HW117636   2.234   2.612  14.402
71913SOL    HW217637   2.210   2.762  14.397
71914SOL     OW17638   8.517   5.745   0.519
71914SOL    HW117639   8.487   5.655   0.531
71914SOL    HW217640   8.470   5.776   0.442
71915SOL     OW17641  11.373   8.652  10.470
71915SOL    HW117642  11.289   8.681  10.506
71915SOL    HW217643  11.355   8.565  10.434
71916SOL     OW17644  13.918   6.594   6.094
71916SOL    HW117645  13.836   6.605   6.048
71916SOL    HW217646  13.956   6.681   6.097
71917SOL     OW17647   7.372  11.045   4.895
71917SOL    HW117648   7.402  11.069   4.808
71917SOL    HW217649   7.277  11.033   4.886
71918SOL     OW17650  10.318  11.579  13.911
71918SOL    HW117651  10.281  11.571  13.823
71918SOL    HW217652  10.343  11.489  13.935
71919SOL     OW17653  13.978   3.173   1.774
71919SOL    HW117654  13.981   3.199   1.682
71919SOL    HW217655  14.049   3.223   1.815
71920SOL     OW17656   1.460   4.645   0.314
71920SOL    HW117657   1.398   4.718   0.319
71920SOL    HW217658   1.482   4.626   0.405
71921SOL     OW17659   4.211   0.459   4.262
71921SOL    HW117660   4.220   0.498   4.349
71921SOL    HW217661   4.162   0.523   4.212
71922SOL     OW17662   5.883  11.212   2.861
71922SOL    HW117663   5.901  11.266   2.938
71922SOL    HW217664   5.934  11.253   2.791
71923SOL     OW17665  14.716   5.289  11.406
71923SOL    HW117666  14.679   5.279  11.494
71923SOL    HW217667  14.646   5.264  11.347
71924SOL     OW17668   2.199   5.857   6.936
71924SOL    HW117669   2.286   5.819   6.937
71924SOL    HW217670   2.205   5.928   6.872
71925SOL     OW17671   2.179  12.909   6.377
71925SOL    HW117672   2.196  12.816   6.363
71925SOL    HW217673   2.219  12.953   6.302
71926SOL     OW17674  13.150   7.958  13.588
71926SOL    HW117675  13.189   7.931  13.505
71926SOL    HW217676  13.087   7.889  13.608
71927SOL     OW17677   4.851   3.904  13.948
71927SOL    HW117678   4.945   3.920  13.961
71927SOL    HW217679   4.809   3.973  13.999
71928SOL     OW17680   2.154  13.751   7.897
71928SOL    HW117681   2.217  13.738   7.968
71928SOL    HW217682   2.188  13.826   7.849
71929SOL     OW17683   9.875   4.953   4.536
71929SOL    HW117684   9.826   4.913   4.607
71929SOL    HW217685   9.810   5.003   4.486
71930SOL     OW17686   6.570   6.051   8.691
71930SOL    HW117687   6.486   6.085   8.721
71930SOL    HW217688   6.549   6.001   8.612
71931SOL     OW17689   4.786   5.596   8.102
71931SOL    HW117690   4.752   5.507   8.100
71931SOL    HW217691   4.880   5.586   8.109
71932SOL     OW17692  10.929   1.969   0.378
71932SOL    HW117693  10.950   1.986   0.470
71932SOL    HW217694  10.839   1.938   0.380
71933SOL     OW17695   4.396  11.695  12.799
71933SOL    HW117696   4.406  11.787  12.823
71933SOL    HW217697   4.475  11.674  12.749
71934SOL     OW17698   3.188  14.478   4.929
71934SOL    HW117699   3.155  14.435   4.851
71934SOL    HW217700   3.263  14.425   4.956
71935SOL     OW17701   3.653   4.254   8.368
71935SOL    HW117702   3.585   4.305   8.414
71935SOL    HW217703   3.727   4.315   8.361
71936SOL     OW17704   3.129   8.449   1.288
71936SOL    HW117705   3.159   8.371   1.243
71936SOL    HW217706   3.037   8.457   1.265
71937SOL     OW17707  12.906   1.607   1.119
71937SOL    HW117708  12.827   1.577   1.164
71937SOL    HW217709  12.934   1.532   1.067
71938SOL     OW17710   7.974   9.773   0.238
71938SOL    HW117711   7.988   9.687   0.199
71938SOL    HW217712   7.994   9.836   0.168
71939SOL     OW17713   9.134   5.383   1.002
71939SOL    HW117714   9.204   5.345   1.054
71939SOL    HW217715   9.161   5.474   0.988
71940SOL     OW17716   0.918   7.176   0.592
71940SOL    HW117717   0.853   7.147   0.527
71940SOL    HW217718   0.938   7.098   0.643
71941SOL     OW17719   2.505  12.490   7.146
71941SOL    HW117720   2.491  12.490   7.052
71941SOL    HW217721   2.574  12.555   7.160
71942SOL     OW17722   5.687  14.531   1.655
71942SOL    HW117723   5.746  14.455   1.658
71942SOL    HW217724   5.731  14.593   1.597
71943SOL     OW17725   2.882   7.824   7.567
71943SOL    HW117726   2.973   7.799   7.585
71943SOL    HW217727   2.877   7.916   7.593
71944SOL     OW17728   3.338   8.733   2.880
71944SOL    HW117729   3.299   8.811   2.840
71944SOL    HW217730   3.348   8.671   2.808
71945SOL     OW17731   3.428   7.890   2.730
71945SOL    HW117732   3.385   7.950   2.791
71945SOL    HW217733   3.497   7.848   2.781
71946SOL     OW17734  14.117   5.311  11.343
71946SOL    HW117735  14.115   5.225  11.301
71946SOL    HW217736  14.046   5.308  11.408
71947SOL     OW17737   3.404  13.650   6.537
71947SOL    HW117738   3.441  13.569   6.502
71947SOL    HW217739   3.470  13.716   6.518
71948SOL     OW17740   6.258   7.012  12.709
71948SOL    HW117741   6.175   7.061  12.710
71948SOL    HW217742   6.290   7.017  12.799
71949SOL     OW17743  14.442  12.434   5.862
71949SOL    HW117744  14.374  12.494   5.891
71949SOL    HW217745  14.522  12.487   5.860
71950SOL     OW17746   3.433   4.907  12.837
71950SOL    HW117747   3.349   4.914  12.791
71950SOL    HW217748   3.480   4.838  12.790
71951SOL     OW17749  10.586   8.006   9.208
71951SOL    HW117750  10.606   8.098   9.193
71951SOL    HW217751  10.671   7.962   9.198
71952SOL     OW17752   4.823  14.797   3.339
71952SOL    HW117753   4.863  14.740   3.274
71952SOL    HW217754   4.877   0.009   3.339
71953SOL     OW17755  14.360   2.105   5.629
71953SOL    HW117756  14.339   2.149   5.547
71953SOL    HW217757  14.400   2.173   5.683
71954SOL     OW17758   8.152  11.517  11.684
71954SOL    HW117759   8.095  11.502  11.609
71954SOL    HW217760   8.110  11.469  11.756
71955SOL     OW17761   0.890  12.995  13.095
71955SOL    HW117762   0.815  13.000  13.154
71955SOL    HW217763   0.956  13.052  13.136
71956SOL     OW17764   3.968   3.115   4.983
71956SOL    HW117765   3.936   3.204   4.997
71956SOL    HW217766   3.900   3.073   4.930
71957SOL     OW17767  10.941   8.207   9.388
71957SOL    HW117768  10.861   8.222   9.439
71957SOL    HW217769  10.913   8.215   9.297
71958SOL     OW17770   2.494   2.177   0.807
71958SOL    HW117771   2.440   2.098   0.812
71958SOL    HW217772   2.525   2.179   0.716
71959SOL     OW17773   2.016  12.873   4.804
71959SOL    HW117774   1.963  12.885   4.725
71959SOL    HW217775   1.964  12.913   4.874
71960SOL     OW17776   5.352  14.568  11.093
71960SOL    HW117777   5.263  14.551  11.121
71960SOL    HW217778   5.354  14.539  11.002
71961SOL     OW17779  13.195   8.772   5.919
71961SOL    HW117780  13.168   8.860   5.896
71961SOL    HW217781  13.214   8.776   6.013
71962SOL     OW17782   0.013   4.703  12.942
71962SOL    HW117783  14.802   4.745  12.974
71962SOL    HW217784   0.014   4.722  12.848
71963SOL     OW17785   7.825   7.622   8.285
71963SOL    HW117786   7.835   7.560   8.357
71963SOL    HW217787   7.797   7.703   8.327
71964SOL     OW17788   8.304  12.256   8.543
71964SOL    HW117789   8.227  12.217   8.501
71964SOL    HW217790   8.302  12.221   8.632
71965SOL     OW17791   4.489  11.209  14.511
71965SOL    HW117792   4.393  11.209  14.509
71965SOL    HW217793   4.512  11.120  14.538
71966SOL     OW17794   8.977   8.101   5.723
71966SOL    HW117795   8.906   8.148   5.679
71966SOL    HW217796   9.057   8.138   5.686
71967SOL     OW17797   8.949  11.506   7.671
71967SOL    HW117798   8.958  11.490   7.765
71967SOL    HW217799   9.037  11.499   7.637
71968SOL     OW17800   0.077   0.555   0.647
71968SOL    HW117801   0.046   0.643   0.626
71968SOL    HW217802  14.867   0.507   0.674
71969SOL     OW17803   2.045  10.013   9.210
71969SOL    HW117804   1.975  10.053   9.260
71969SOL    HW217805   2.101   9.971   9.276
71970SOL     OW17806  12.799   3.484  12.437
71970SOL    HW117807  12.741   3.491  12.361
71970SOL    HW217808  12.862   3.555  12.425
71971SOL     OW17809   4.151  13.799   2.741
71971SOL    HW117810   4.132  13.871   2.681
71971SOL    HW217811   4.071  13.789   2.792
71972SOL     OW17812   6.177  13.119   9.541
71972SOL    HW117813   6.264  13.082   9.529
71972SOL    HW217814   6.144  13.079   9.622
71973SOL     OW17815   6.515   4.116   9.872
71973SOL    HW117816   6.497   4.097   9.964
71973SOL    HW217817   6.538   4.031   9.834
71974SOL     OW17818   7.542   1.903  10.241
71974SOL    HW117819   7.524   1.824  10.190
71974SOL    HW217820   7.456   1.932  10.270
71975SOL     OW17821   5.200  10.072   2.688
71975SOL    HW117822   5.208  10.082   2.593
71975SOL    HW217823   5.216  10.159   2.723
71976SOL     OW17824   0.117  14.024  11.346
71976SOL    HW117825   0.057  13.969  11.296
71976SOL    HW217826   0.165  14.073  11.280
71977SOL     OW17827  14.657  14.164  13.609
71977SOL    HW117828  14.742  14.182  13.650
71977SOL    HW217829  14.617  14.098  13.666
71978SOL     OW17830   5.374   3.985  10.405
71978SOL    HW117831   5.415   3.996  10.319
71978SOL    HW217832   5.304   4.050  10.407
71979SOL     OW17833   6.279  10.897   5.069
71979SOL    HW117834   6.194  10.854   5.060
71979SOL    HW217835   6.283  10.924   5.161
71980SOL     OW17836  10.062   6.983  14.825
71980SOL    HW117837  10.157   6.987  14.834
71980SOL    HW217838  10.047   6.904  14.773
71981SOL     OW17839  10.042   4.612   6.770
71981SOL    HW117840  10.024   4.573   6.684
71981SOL    HW217841  10.003   4.699   6.766
71982SOL     OW17842   6.771  10.123  13.325
71982SOL    HW117843   6.742  10.189  13.262
71982SOL    HW217844   6.695  10.068  13.339
71983SOL     OW17845   2.852  10.762   4.806
71983SOL    HW117846   2.905  10.713   4.868
71983SOL    HW217847   2.845  10.850   4.844
71984SOL     OW17848   3.092   7.439   2.448
71984SOL    HW117849   3.016   7.475   2.493
71984SOL    HW217850   3.168   7.476   2.493
71985SOL     OW17851   9.187   7.396   2.378
71985SOL    HW117852   9.167   7.430   2.466
71985SOL    HW217853   9.282   7.408   2.369
71986SOL     OW17854  10.612  12.782  13.835
71986SOL    HW117855  10.675  12.768  13.906
71986SOL    HW217856  10.621  12.705  13.780
71987SOL     OW17857   0.949   4.262   2.118
71987SOL    HW117858   1.003   4.188   2.090
71987SOL    HW217859   1.003   4.339   2.103
71988SOL     OW17860   9.190   5.369  13.075
71988SOL    HW117861   9.247   5.354  13.151
71988SOL    HW217862   9.250   5.370  13.000
71989SOL     OW17863   1.775   3.347   1.073
71989SOL    HW117864   1.758   3.337   1.167
71989SOL    HW217865   1.692   3.376   1.036
71990SOL     OW17866  13.437  10.002   8.936
71990SOL    HW117867  13.402   9.974   8.851
71990SOL    HW217868  13.409   9.935   8.997
71991SOL     OW17869   9.841   8.326   4.447
71991SOL    HW117870   9.876   8.376   4.521
71991SOL    HW217871   9.746   8.343   4.450
71992SOL     OW17872   2.959   4.843  11.897
71992SOL    HW117873   2.930   4.857  11.807
71992SOL    HW217874   2.909   4.905  11.949
71993SOL     OW17875  10.803  11.943   3.542
71993SOL    HW117876  10.734  12.009   3.549
71993SOL    HW217877  10.783  11.895   3.462
71994SOL     OW17878   2.705   1.314  13.884
71994SOL    HW117879   2.718   1.221  13.864
71994SOL    HW217880   2.643   1.344  13.817
71995SOL     OW17881   3.998   7.642   8.184
71995SOL    HW117882   4.070   7.580   8.200
71995SOL    HW217883   4.036   7.728   8.203
71996SOL     OW17884   2.242   1.760  14.557
71996SOL    HW117885   2.233   1.843  14.511
71996SOL    HW217886   2.335   1.739  14.552
71997SOL     OW17887   2.046   6.211   2.797
71997SOL    HW117888   2.110   6.242   2.732
71997SOL    HW217889   1.961   6.223   2.755
71998SOL     OW17890   6.433   7.317  11.603
71998SOL    HW117891   6.345   7.351  11.591
71998SOL    HW217892   6.440   7.298  11.696
71999SOL     OW17893  13.241   7.473  13.271
71999SOL    HW117894  13.318   7.424  13.241
71999SOL    HW217895  13.244   7.466  13.366
72000SOL     OW17896   2.727   3.883  11.864
72000SOL    HW117897   2.666   3.893  11.791
72000SOL    HW217898   2.694   3.808  11.913
72001SOL     OW17899  13.584  12.395   2.197
72001SOL    HW117900  13.530  12.435   2.128
72001SOL    HW217901  13.522  12.377   2.268
72002SOL     OW17902   9.607   0.695  14.050
72002SOL    HW117903   9.674   0.645  14.097
72002SOL    HW217904   9.653   0.771  14.016
72003SOL     OW17905   0.122   8.443  10.954
72003SOL    HW117906   0.139   8.396  11.035
72003SOL    HW217907   0.037   8.485  10.967
72004SOL     OW17908   2.566   1.765   3.202
72004SOL    HW117909   2.600   1.854   3.192
72004SOL    HW217910   2.635   1.717   3.246
72005SOL     OW17911   8.397   0.971  14.840
72005SOL    HW117912   8.424   0.895  14.788
72005SOL    HW217913   8.474   1.027  14.844
72006SOL     OW17914   8.932   6.537  13.472
72006SOL    HW117915   8.930   6.502  13.561
72006SOL    HW217916   8.862   6.602  13.470
72007SOL     OW17917   0.186   8.756   7.804
72007SOL    HW117918   0.236   8.689   7.758
72007SOL    HW217919   0.126   8.791   7.738
72008SOL     OW17920  10.520   5.700  14.370
72008SOL    HW117921  10.506   5.790  14.340
72008SOL    HW217922  10.548   5.653  14.291
72009SOL     OW17923   5.352  11.418   8.410
72009SOL    HW117924   5.358  11.513   8.416
72009SOL    HW217925   5.292  11.403   8.337
72010SOL     OW17926   0.088  10.479   0.171
72010SOL    HW117927   0.163  10.420   0.165
72010SOL    HW217928   0.117  10.548   0.231
72011SOL     OW17929   0.311  10.581  13.345
72011SOL    HW117930   0.270  10.539  13.421
72011SOL    HW217931   0.393  10.618  13.379
72012SOL     OW17932   0.603  12.010   3.255
72012SOL    HW117933   0.556  11.993   3.336
72012SOL    HW217934   0.642  12.097   3.268
72013SOL     OW17935   0.000   3.581   6.227
72013SOL    HW117936   0.040   3.532   6.155
72013SOL    HW217937  14.792   3.528   6.252
72014SOL     OW17938  13.566  12.245   4.114
72014SOL    HW117939  13.558  12.333   4.078
72014SOL    HW217940  13.522  12.189   4.050
72015SOL     OW17941  13.149   8.364  13.040
72015SOL    HW117942  13.171   8.455  13.021
72015SOL    HW217943  13.116   8.366  13.130
72016SOL     OW17944   5.059   2.452   3.647
72016SOL    HW117945   4.978   2.401   3.644
72016SOL    HW217946   5.032   2.542   3.625
72017SOL     OW17947   1.718   7.498   7.408
72017SOL    HW117948   1.634   7.502   7.362
72017SOL    HW217949   1.747   7.589   7.411
72018SOL     OW17950   0.954  13.587   7.809
72018SOL    HW117951   0.920  13.588   7.720
72018SOL    HW217952   1.034  13.640   7.804
72019SOL     OW17953  10.637   5.397  13.627
72019SOL    HW117954  10.697   5.351  13.568
72019SOL    HW217955  10.616   5.478  13.580
72020SOL     OW17956   2.498   2.569   0.352
72020SOL    HW117957   2.518   2.488   0.306
72020SOL    HW217958   2.436   2.544   0.420
72021SOL     OW17959   4.376   6.957   6.350
72021SOL    HW117960   4.340   6.938   6.437
72021SOL    HW217961   4.407   6.873   6.318
72022SOL     OW17962   8.774   6.485   4.206
72022SOL    HW117963   8.814   6.413   4.157
72022SOL    HW217964   8.845   6.548   4.218
72023SOL     OW17965   2.066  12.351   8.805
72023SOL    HW117966   2.074  12.445   8.816
72023SOL    HW217967   2.115  12.314   8.879
72024SOL     OW17968  14.484  14.562   8.039
72024SOL    HW117969  14.514  14.650   8.018
72024SOL    HW217970  14.413  14.575   8.102
72025SOL     OW17971   3.967   9.474  11.259
72025SOL    HW117972   4.061   9.466  11.242
72025SOL    HW217973   3.925   9.432  11.184
72026SOL     OW17974   2.241   4.676   0.002
72026SOL    HW117975   2.213   4.651   0.090
72026SOL    HW217976   2.312   4.739   0.016
72027SOL     OW17977  14.566   6.912   8.397
72027SOL    HW117978  14.496   6.868   8.446
72027SOL    HW217979  14.646   6.867   8.422
72028SOL     OW17980   2.772  10.431   4.292
72028SOL    HW117981   2.846  10.466   4.243
72028SOL    HW217982   2.805  10.351   4.332
72029SOL     OW17983  14.373   6.174   8.733
72029SOL    HW117984  14.411   6.125   8.806
72029SOL    HW217985  14.419   6.258   8.734
72030SOL     OW17986   8.100   5.064   0.747
72030SOL    HW117987   8.043   4.999   0.788
72030SOL    HW217988   8.090   5.142   0.801
72031SOL     OW17989  12.381  11.130   9.319
72031SOL    HW117990  12.386  11.224   9.307
72031SOL    HW217991  12.449  11.094   9.263
72032SOL     OW17992   2.614  11.139   3.517
72032SOL    HW117993   2.606  11.048   3.548
72032SOL    HW217994   2.583  11.192   3.590
72033SOL     OW17995   9.066   7.272  14.099
72033SOL    HW117996   9.117   7.223  14.164
72033SOL    HW217997   9.038   7.206  14.036
72034SOL     OW17998  10.588   3.930   2.433
72034SOL    HW117999  10.541   3.897   2.510
72034SOL    HW218000  10.613   3.851   2.385
72035SOL     OW18001  14.425   6.425   7.577
72035SOL    HW118002  14.382   6.417   7.662
72035SOL    HW218003  14.371   6.486   7.528
72036SOL     OW18004   4.934  13.351   3.701
72036SOL    HW118005   4.924  13.389   3.614
72036SOL    HW218006   5.013  13.391   3.736
72037SOL     OW18007   3.359  14.707   3.092
72037SOL    HW118008   3.359  14.785   3.147
72037SOL    HW218009   3.298  14.727   3.021
72038SOL     OW18010   9.215  11.344  14.387
72038SOL    HW118011   9.290  11.365  14.442
72038SOL    HW218012   9.237  11.258  14.350
72039SOL     OW18013   3.588  11.893  11.451
72039SOL    HW118014   3.615  11.961  11.388
72039SOL    HW218015   3.671  11.859  11.485
72040SOL     OW18016  10.729  12.969   1.504
72040SOL    HW118017  10.786  13.045   1.502
72040SOL    HW218018  10.771  12.905   1.446
72041SOL     OW18019  13.806  11.244   6.610
72041SOL    HW118020  13.805  11.154   6.643
72041SOL    HW218021  13.828  11.298   6.685
72042SOL     OW18022  10.039  12.658   6.309
72042SOL    HW118023  10.110  12.708   6.348
72042SOL    HW218024  10.078  12.617   6.231
72043SOL     OW18025  11.183   5.519   9.588
72043SOL    HW118026  11.111   5.574   9.558
72043SOL    HW218027  11.155   5.489   9.675
72044SOL     OW18028   6.683   9.436   1.929
72044SOL    HW118029   6.666   9.514   1.877
72044SOL    HW218030   6.656   9.459   2.018
72045SOL     OW18031  10.296   6.961   4.582
72045SOL    HW118032  10.244   7.034   4.615
72045SOL    HW218033  10.314   6.984   4.491
72046SOL     OW18034   6.015   9.102  12.016
72046SOL    HW118035   6.059   9.054  12.086
72046SOL    HW218036   5.988   9.034  11.954
72047SOL     OW18037   9.153   6.394  14.454
72047SOL    HW118038   9.101   6.425  14.379
72047SOL    HW218039   9.222   6.460  14.464
72048SOL     OW18040   9.544   5.050   0.980
72048SOL    HW118041   9.583   5.133   0.955
72048SOL    HW218042   9.569   5.038   1.072
72049SOL     OW18043   5.534   7.050  12.576
72049SOL    HW118044   5.488   6.965  12.579
72049SOL    HW218045   5.487   7.104  12.639
72050SOL     OW18046  12.787   0.825   5.878
72050SOL    HW118047  12.847   0.857   5.811
72050SOL    HW218048  12.737   0.756   5.834
72051SOL     OW18049  10.828   0.249  13.243
72051SOL    HW118050  10.742   0.291  13.245
72051SOL    HW218051  10.886   0.316  13.206
72052SOL     OW18052  10.433  12.914   9.328
72052SOL    HW118053  10.457  12.904   9.420
72052SOL    HW218054  10.496  12.860   9.281
72053SOL     OW18055  12.117   8.077   0.430
72053SOL    HW118056  12.104   8.153   0.374
72053SOL    HW218057  12.151   8.113   0.512
72054SOL     OW18058   4.500   1.744  12.983
72054SOL    HW118059   4.579   1.729  12.932
72054SOL    HW218060   4.448   1.664  12.971
72055SOL     OW18061   9.237   6.820   9.162
72055SOL    HW118062   9.301   6.772   9.109
72055SOL    HW218063   9.153   6.779   9.142
72056SOL     OW18064   4.731   1.601  13.426
72056SOL    HW118065   4.760   1.530  13.483
72056SOL    HW218066   4.803   1.616  13.365
72057SOL     OW18067   7.791   1.664   2.580
72057SOL    HW118068   7.699   1.689   2.579
72057SOL    HW218069   7.811   1.649   2.672
72058SOL     OW18070   1.882   7.226  13.617
72058SOL    HW118071   1.834   7.282  13.556
72058SOL    HW218072   1.920   7.287  13.681
72059SOL     OW18073  11.419   1.254   2.793
72059SOL    HW118074  11.468   1.221   2.717
72059SOL    HW218075  11.328   1.259   2.761
72060SOL     OW18076  12.052  11.150   8.146
72060SOL    HW118077  12.145  11.126   8.146
72060SOL    HW218078  12.006  11.066   8.146
72061SOL     OW18079   8.483   6.580  14.262
72061SOL    HW118080   8.523   6.568  14.348
72061SOL    HW218081   8.552   6.620  14.208
72062SOL     OW18082  10.418   6.103   1.100
72062SOL    HW118083  10.461   6.127   1.182
72062SOL    HW218084  10.465   6.026   1.069
72063SOL     OW18085   4.623   6.614   2.114
72063SOL    HW118086   4.700   6.654   2.155
72063SOL    HW218087   4.623   6.524   2.146
72064SOL     OW18088  14.419  14.046  12.056
72064SOL    HW118089  14.432  13.955  12.029
72064SOL    HW218090  14.330  14.067  12.028
72065SOL     OW18091   1.430   6.492   4.843
72065SOL    HW118092   1.383   6.566   4.882
72065SOL    HW218093   1.375   6.416   4.861
72066SOL     OW18094  10.102   0.171   6.521
72066SOL    HW118095  10.156   0.092   6.522
72066SOL    HW218096  10.029   0.150   6.579
72067SOL     OW18097  12.720  12.628  14.605
72067SOL    HW118098  12.762  12.590  14.528
72067SOL    HW218099  12.630  12.645  14.577
72068SOL     OW18100  14.834   2.420   5.518
72068SOL    HW118101  14.771   2.471   5.570
72068SOL    HW218102  14.789   2.338   5.500
72069SOL     OW18103  13.045  14.640  11.849
72069SOL    HW118104  13.123  14.645  11.904
72069SOL    HW218105  13.070  14.684  11.768
72070SOL     OW18106   9.348  12.282   2.222
72070SOL    HW118107   9.417  12.221   2.248
72070SOL    HW218108   9.330  12.333   2.301
72071SOL     OW18109   0.739   3.799   2.865
72071SOL    HW118110   0.805   3.788   2.797
72071SOL    HW218111   0.780   3.856   2.930
72072SOL     OW18112   1.256  10.560   6.519
72072SOL    HW118113   1.199  10.565   6.595
72072SOL    HW218114   1.342  10.587   6.552
72073SOL     OW18115   8.567   2.195   9.301
72073SOL    HW118116   8.645   2.171   9.350
72073SOL    HW218117   8.556   2.125   9.237
72074SOL     OW18118   5.044   2.278   5.260
72074SOL    HW118119   5.081   2.218   5.196
72074SOL    HW218120   4.991   2.223   5.317
72075SOL     OW18121  12.169   4.205   5.225
72075SOL    HW118122  12.121   4.156   5.291
72075SOL    HW218123  12.253   4.225   5.266
72076SOL     OW18124   2.814   8.879   2.936
72076SOL    HW118125   2.774   8.928   2.863
72076SOL    HW218126   2.901   8.919   2.946
72077SOL     OW18127  11.679  11.973  11.647
72077SOL    HW118128  11.650  11.899  11.700
72077SOL    HW218129  11.738  12.022  11.705
72078SOL     OW18130   9.012  13.380   2.272
72078SOL    HW118131   9.053  13.372   2.359
72078SOL    HW218132   8.947  13.310   2.271
72079SOL     OW18133   9.627  14.828   0.739
72079SOL    HW118134   9.697   0.014   0.778
72079SOL    HW218135   9.568   0.024   0.699
72080SOL     OW18136  10.660  14.192  14.165
72080SOL    HW118137  10.705  14.190  14.250
72080SOL    HW218138  10.724  14.227  14.104
72081SOL     OW18139   4.382   3.632   1.994
72081SOL    HW118140   4.419   3.623   2.082
72081SOL    HW218141   4.435   3.700   1.953
72082SOL     OW18142  14.842  13.754   6.537
72082SOL    HW118143  14.792  13.673   6.550
72082SOL    HW218144   0.062  13.732   6.569
72083SOL     OW18145  12.645   9.765   0.661
72083SOL    HW118146  12.632   9.676   0.694
72083SOL    HW218147  12.557   9.797   0.644
72084SOL     OW18148  11.429   6.946   1.221
72084SOL    HW118149  11.501   6.890   1.193
72084SOL    HW218150  11.448   7.031   1.180
72085SOL     OW18151   0.519   0.205   4.452
72085SOL    HW118152   0.530   0.143   4.381
72085SOL    HW218153   0.425   0.227   4.451
72086SOL     OW18154   7.223  14.185  11.778
72086SOL    HW118155   7.241  14.112  11.837
72086SOL    HW218156   7.170  14.148  11.708
72087SOL     OW18157   6.045  11.793   3.262
72087SOL    HW118158   6.129  11.778   3.217
72087SOL    HW218159   6.043  11.887   3.277
72088SOL     OW18160  10.988  10.700  13.681
72088SOL    HW118161  11.001  10.635  13.750
72088SOL    HW218162  10.970  10.648  13.603
72089SOL     OW18163  13.471   9.720   6.733
72089SOL    HW118164  13.447   9.683   6.649
72089SOL    HW218165  13.420   9.671   6.797
72090SOL     OW18166   6.122  12.279   8.862
72090SOL    HW118167   6.163  12.347   8.916
72090SOL    HW218168   6.166  12.286   8.778
72091SOL     OW18169   3.912   4.387   4.635
72091SOL    HW118170   3.845   4.453   4.655
72091SOL    HW218171   3.982   4.404   4.697
72092SOL     OW18172   6.901   7.534  14.856
72092SOL    HW118173   6.864   7.612   0.028
72092SOL    HW218174   6.994   7.555  14.843
72093SOL     OW18175   2.550   7.875   6.473
72093SOL    HW118176   2.489   7.903   6.541
72093SOL    HW218177   2.624   7.837   6.520
72094SOL     OW18178  13.501  13.126   6.044
72094SOL    HW118179  13.531  13.043   6.007
72094SOL    HW218180  13.418  13.105   6.086
72095SOL     OW18181   4.743  13.429  11.773
72095SOL    HW118182   4.664  13.389  11.735
72095SOL    HW218183   4.730  13.523  11.761
72096SOL     OW18184   3.479  10.249   4.461
72096SOL    HW118185   3.483  10.332   4.509
72096SOL    HW218186   3.563  10.244   4.415
72097SOL     OW18187   2.058  14.694   9.815
72097SOL    HW118188   2.089  14.737   9.895
72097SOL    HW218189   2.135  14.693   9.757
72098SOL     OW18190   6.833   8.719   9.328
72098SOL    HW118191   6.769   8.660   9.288
72098SOL    HW218192   6.842   8.790   9.265
72099SOL     OW18193   1.569   8.104   5.307
72099SOL    HW118194   1.661   8.078   5.310
72099SOL    HW218195   1.524   8.029   5.267
72100SOL     OW18196   7.364   3.223   7.651
72100SOL    HW118197   7.270   3.215   7.633
72100SOL    HW218198   7.395   3.289   7.588
72101SOL     OW18199   9.090   3.197  10.631
72101SOL    HW118200   9.180   3.204  10.598
72101SOL    HW218201   9.037   3.239  10.564
72102SOL     OW18202  10.965   3.645   1.718
72102SOL    HW118203  11.037   3.632   1.656
72102SOL    HW218204  10.895   3.589   1.685
72103SOL     OW18205   8.876  11.998   0.803
72103SOL    HW118206   8.961  11.958   0.821
72103SOL    HW218207   8.868  12.069   0.867
72104SOL     OW18208  14.608   4.173   6.394
72104SOL    HW118209  14.681   4.212   6.443
72104SOL    HW218210  14.602   4.084   6.428
72105SOL     OW18211   9.231   0.727   8.383
72105SOL    HW118212   9.140   0.731   8.352
72105SOL    HW218213   9.233   0.652   8.442
72106SOL     OW18214  12.675   5.674   3.953
72106SOL    HW118215  12.728   5.659   3.874
72106SOL    HW218216  12.740   5.683   4.023
72107SOL     OW18217   8.886  14.803   6.408
72107SOL    HW118218   8.974  14.839   6.404
72107SOL    HW218219   8.885  14.752   6.489
72108SOL     OW18220   8.750   0.875   8.756
72108SOL    HW118221   8.739   0.890   8.850
72108SOL    HW218222   8.691   0.938   8.714
72109SOL     OW18223   7.915   4.683   8.930
72109SOL    HW118224   7.839   4.713   8.979
72109SOL    HW218225   7.881   4.658   8.844
72110SOL     OW18226   7.910   0.982   0.568
72110SOL    HW118227   7.819   0.962   0.547
72110SOL    HW218228   7.954   0.897   0.570
72111SOL     OW18229   4.499   7.701  10.294
72111SOL    HW118230   4.579   7.708  10.243
72111SOL    HW218231   4.473   7.609  10.285
72112SOL     OW18232   2.928   0.998   2.671
72112SOL    HW118233   2.938   0.993   2.766
72112SOL    HW218234   2.976   1.077   2.646
72113SOL     OW18235   1.204   6.317  11.325
72113SOL    HW118236   1.130   6.295  11.269
72113SOL    HW218237   1.229   6.234  11.366
72114SOL     OW18238   2.218  11.220   5.324
72114SOL    HW118239   2.291  11.177   5.368
72114SOL    HW218240   2.141  11.192   5.373
72115SOL     OW18241  10.773  10.925  13.713
72115SOL    HW118242  10.838  10.946  13.647
72115SOL    HW218243  10.760  10.830  13.706
72116SOL     OW18244  12.869  10.081   7.624
72116SOL    HW118245  12.916  10.145   7.677
72116SOL    HW218246  12.839  10.015   7.687
72117SOL     OW18247   8.535   1.746   0.876
72117SOL    HW118248   8.455   1.788   0.844
72117SOL    HW218249   8.565   1.692   0.803
72118SOL     OW18250   2.397  11.535   6.582
72118SOL    HW118251   2.432  11.450   6.608
72118SOL    HW218252   2.475  11.587   6.561
72119SOL     OW18253  10.042   3.558   2.707
72119SOL    HW118254   9.986   3.481   2.698
72119SOL    HW218255  10.129   3.524   2.725
72120SOL     OW18256   5.899   7.119  12.969
72120SOL    HW118257   5.891   7.025  12.985
72120SOL    HW218258   5.875   7.130  12.877
72121SOL     OW18259   9.693  11.686   1.347
72121SOL    HW118260   9.646  11.763   1.316
72121SOL    HW218261   9.624  11.627   1.379
72122SOL     OW18262   7.222   9.871   1.855
72122SOL    HW118263   7.173   9.796   1.891
72122SOL    HW218264   7.312   9.855   1.883
72123SOL     OW18265   2.177   6.383  13.350
72123SOL    HW118266   2.234   6.309  13.368
72123SOL    HW218267   2.089   6.346  13.347
72124SOL     OW18268   5.992   7.785   0.527
72124SOL    HW118269   6.039   7.776   0.444
72124SOL    HW218270   5.956   7.698   0.544
72125SOL     OW18271   3.465   0.954  12.388
72125SOL    HW118272   3.537   0.918  12.337
72125SOL    HW218273   3.427   1.022  12.331
72126SOL     OW18274  14.491  13.969  13.749
72126SOL    HW118275  14.431  14.001  13.816
72126SOL    HW218276  14.525  13.887  13.785
72127SOL     OW18277   7.831  11.471   1.542
72127SOL    HW118278   7.837  11.439   1.452
72127SOL    HW218279   7.878  11.554   1.541
72128SOL     OW18280  11.115   3.835  13.516
72128SOL    HW118281  11.110   3.931  13.513
72128SOL    HW218282  11.208   3.817  13.530
72129SOL     OW18283   4.214   2.314   7.317
72129SOL    HW118284   4.240   2.290   7.228
72129SOL    HW218285   4.293   2.303   7.369
72130SOL     OW18286   8.957  10.783   2.806
72130SOL    HW118287   8.896  10.844   2.765
72130SOL    HW218288   9.035  10.785   2.750
72131SOL     OW18289   4.912   2.497  10.150
72131SOL    HW118290   4.982   2.433  10.137
72131SOL    HW218291   4.874   2.474  10.235
72132SOL     OW18292   6.411   3.888  10.581
72132SOL    HW118293   6.448   3.857  10.664
72132SOL    HW218294   6.341   3.826  10.561
72133SOL     OW18295  10.832  12.635  10.651
72133SOL    HW118296  10.924  12.659  10.648
72133SOL    HW218297  10.802  12.667  10.736
72134SOL     OW18298   2.506  13.528   4.769
72134SOL    HW118299   2.430  13.519   4.826
72134SOL    HW218300   2.579  13.493   4.821
72135SOL     OW18301   3.754   1.235   2.045
72135SOL    HW118302   3.808   1.184   2.105
72135SOL    HW218303   3.815   1.297   2.004
72136SOL     OW18304  11.857  12.438  14.492
72136SOL    HW118305  11.946  12.473  14.493
72136SOL    HW218306  11.848  12.393  14.576
72137SOL     OW18307  11.407   0.274   6.795
72137SOL    HW118308  11.406   0.180   6.775
72137SOL    HW218309  11.372   0.315   6.716
72138SOL     OW18310   5.835   0.691   8.192
72138SOL    HW118311   5.776   0.735   8.132
72138SOL    HW218312   5.823   0.736   8.276
72139SOL     OW18313   2.759   1.571   3.307
72139SOL    HW118314   2.765   1.480   3.339
72139SOL    HW218315   2.831   1.616   3.350
72140SOL     OW18316   5.188   3.912   2.723
72140SOL    HW118317   5.096   3.938   2.721
72140SOL    HW218318   5.235   3.987   2.688
72141SOL     OW18319   5.289  13.079   3.041
72141SOL    HW118320   5.309  13.006   3.099
72141SOL    HW218321   5.195  13.092   3.050
72142SOL     OW18322   4.969   7.704  13.916
72142SOL    HW118323   4.933   7.617  13.934
72142SOL    HW218324   5.042   7.712  13.978
72143SOL     OW18325   9.280  11.070  14.339
72143SOL    HW118326   9.374  11.081  14.351
72143SOL    HW218327   9.268  10.977  14.322
72144SOL     OW18328   5.468   1.686   3.183
72144SOL    HW118329   5.510   1.705   3.099
72144SOL    HW218330   5.377   1.712   3.171
72145SOL     OW18331   9.314   7.015   8.560
72145SOL    HW118332   9.226   6.990   8.531
72145SOL    HW218333   9.344   7.077   8.493
72146SOL     OW18334   1.833   9.722  12.655
72146SOL    HW118335   1.800   9.669  12.583
72146SOL    HW218336   1.808   9.674  12.734
72147SOL     OW18337  14.478   3.191   7.305
72147SOL    HW118338  14.401   3.246   7.289
72147SOL    HW218339  14.458   3.146   7.387
72148SOL     OW18340   1.594   6.333  13.946
72148SOL    HW118341   1.674   6.282  13.956
72148SOL    HW218342   1.619   6.423  13.969
72149SOL     OW18343   7.821   0.631  14.740
72149SOL    HW118344   7.842   0.602  14.651
72149SOL    HW218345   7.898   0.606  14.792
72150SOL     OW18346   7.117   8.528   2.440
72150SOL    HW118347   7.053   8.594   2.465
72150SOL    HW218348   7.131   8.477   2.519
72151SOL     OW18349  14.606  10.328   3.821
72151SOL    HW118350  14.661  10.260   3.782
72151SOL    HW218351  14.589  10.389   3.750
72152SOL     OW18352   5.388  10.162   0.418
72152SOL    HW118353   5.301  10.136   0.445
72152SOL    HW218354   5.437  10.080   0.412
72153SOL     OW18355  10.229   9.755   4.527
72153SOL    HW118356  10.244   9.686   4.591
72153SOL    HW218357  10.250   9.715   4.442
72154SOL     OW18358   6.547   6.524  10.616
72154SOL    HW118359   6.471   6.509  10.671
72154SOL    HW218360   6.558   6.442  10.567
72155SOL     OW18361  11.907  14.143   2.447
72155SOL    HW118362  11.887  14.234   2.425
72155SOL    HW218363  11.890  14.094   2.367
72156SOL     OW18364   4.951   9.046  14.635
72156SOL    HW118365   5.023   9.096  14.596
72156SOL    HW218366   4.944   8.968  14.580
72157SOL     OW18367   7.196   3.566   0.600
72157SOL    HW118368   7.194   3.602   0.689
72157SOL    HW218369   7.112   3.521   0.591
72158SOL     OW18370  11.032   4.467   3.642
72158SOL    HW118371  11.016   4.484   3.549
72158SOL    HW218372  11.112   4.415   3.644
72159SOL     OW18373   3.183   3.492   8.368
72159SOL    HW118374   3.216   3.559   8.427
72159SOL    HW218375   3.128   3.539   8.305
72160SOL     OW18376  14.254   8.686  10.121
72160SOL    HW118377  14.234   8.671  10.213
72160SOL    HW218378  14.342   8.723  10.121
72161SOL     OW18379  10.904   3.267   7.043
72161SOL    HW118380  10.955   3.189   7.064
72161SOL    HW218381  10.965   3.340   7.055
72162SOL     OW18382   9.429   6.226   4.020
72162SOL    HW118383   9.456   6.311   3.984
72162SOL    HW218384   9.363   6.195   3.959
72163SOL     OW18385   1.833   3.110   1.539
72163SOL    HW118386   1.861   3.094   1.630
72163SOL    HW218387   1.745   3.072   1.534
72164SOL     OW18388   0.420   9.212   2.430
72164SOL    HW118389   0.386   9.126   2.453
72164SOL    HW218390   0.351   9.252   2.378
72165SOL     OW18391   4.012   5.255   8.767
72165SOL    HW118392   4.095   5.218   8.736
72165SOL    HW218393   3.967   5.181   8.808
72166SOL     OW18394   6.537  11.667   4.405
72166SOL    HW118395   6.520  11.668   4.499
72166SOL    HW218396   6.620  11.713   4.395
72167SOL     OW18397   1.693   1.153   0.278
72167SOL    HW118398   1.616   1.183   0.327
72167SOL    HW218399   1.676   1.060   0.262
72168SOL     OW18400   0.533   4.549  13.449
72168SOL    HW118401   0.455   4.502  13.479
72168SOL    HW218402   0.511   4.576  13.360
72169SOL     OW18403   7.899  10.304   9.593
72169SOL    HW118404   7.958  10.228   9.595
72169SOL    HW218405   7.845  10.290   9.515
72170SOL     OW18406   7.850  12.948   0.514
72170SOL    HW118407   7.814  12.949   0.603
72170SOL    HW218408   7.826  13.033   0.478
72171SOL     OW18409   8.343   0.832   8.885
72171SOL    HW118410   8.281   0.818   8.813
72171SOL    HW218411   8.381   0.918   8.868
72172SOL     OW18412   9.342   8.064   7.468
72172SOL    HW118413   9.338   8.009   7.546
72172SOL    HW218414   9.431   8.051   7.434
72173SOL     OW18415  12.716   9.992  14.543
72173SOL    HW118416  12.718  10.029  14.631
72173SOL    HW218417  12.623   9.982  14.523
72174SOL     OW18418   0.135  14.063   0.615
72174SOL    HW118419   0.171  14.020   0.693
72174SOL    HW218420   0.045  14.085   0.640
72175SOL     OW18421   4.375   3.485   6.444
72175SOL    HW118422   4.396   3.411   6.500
72175SOL    HW218423   4.444   3.549   6.462
72176SOL     OW18424   9.357   8.446   8.351
72176SOL    HW118425   9.399   8.531   8.339
72176SOL    HW218426   9.386   8.394   8.276
72177SOL     OW18427  10.771   8.668   7.401
72177SOL    HW118428  10.701   8.715   7.356
72177SOL    HW218429  10.764   8.578   7.367
72178SOL     OW18430  10.819   9.124   7.716
72178SOL    HW118431  10.899   9.094   7.672
72178SOL    HW218432  10.849   9.150   7.803
72179SOL     OW18433  13.568  12.390  11.964
72179SOL    HW118434  13.507  12.434  12.023
72179SOL    HW218435  13.599  12.314  12.014
72180SOL     OW18436   7.296   8.244  14.530
72180SOL    HW118437   7.310   8.195  14.449
72180SOL    HW218438   7.358   8.317  14.524
72181SOL     OW18439   8.155   0.802   5.337
72181SOL    HW118440   8.169   0.838   5.425
72181SOL    HW218441   8.223   0.844   5.284
72182SOL     OW18442  13.555  12.728   8.300
72182SOL    HW118443  13.505  12.703   8.222
72182SOL    HW218444  13.619  12.658   8.311
72183SOL     OW18445   0.824  10.893   4.353
72183SOL    HW118446   0.865  10.954   4.291
72183SOL    HW218447   0.763  10.947   4.403
72184SOL     OW18448   2.964   2.461   6.975
72184SOL    HW118449   3.026   2.482   6.905
72184SOL    HW218450   2.983   2.370   6.998
72185SOL     OW18451   7.995  10.374  10.115
72185SOL    HW118452   8.011  10.455  10.163
72185SOL    HW218453   7.989  10.400  10.023
72186SOL     OW18454   5.901   2.711   8.843
72186SOL    HW118455   5.882   2.715   8.750
72186SOL    HW218456   5.977   2.654   8.850
72187SOL     OW18457   0.321   3.808   5.936
72187SOL    HW118458   0.306   3.853   6.020
72187SOL    HW218459   0.274   3.861   5.872
72188SOL     OW18460  14.857   3.976   9.195
72188SOL    HW118461   0.081   3.962   9.173
72188SOL    HW218462  14.809   3.948   9.117
72189SOL     OW18463  11.679   9.560   5.777
72189SOL    HW118464  11.738   9.552   5.702
72189SOL    HW218465  11.711   9.494   5.839
72190SOL     OW18466  13.746   4.106   3.762
72190SOL    HW118467  13.768   4.183   3.709
72190SOL    HW218468  13.660   4.079   3.731
72191SOL     OW18469  14.188   9.416   4.888
72191SOL    HW118470  14.269   9.413   4.940
72191SOL    HW218471  14.127   9.361   4.935
72192SOL     OW18472   0.579  13.462  11.379
72192SOL    HW118473   0.557  13.534  11.439
72192SOL    HW218474   0.496  13.416  11.366
72193SOL     OW18475  14.867  11.215  11.111
72193SOL    HW118476   0.046  11.166  11.043
72193SOL    HW218477   0.009  11.307  11.085
72194SOL     OW18478  11.686  11.881   5.367
72194SOL    HW118479  11.770  11.842   5.392
72194SOL    HW218480  11.686  11.878   5.271
72195SOL     OW18481   8.982  10.906  10.656
72195SOL    HW118482   8.978  10.934  10.748
72195SOL    HW218483   8.891  10.895  10.631
72196SOL     OW18484   2.144   6.612   6.805
72196SOL    HW118485   2.097   6.664   6.740
72196SOL    HW218486   2.236   6.633   6.791
72197SOL     OW18487   8.615   9.431  14.791
72197SOL    HW118488   8.674   9.412  14.864
72197SOL    HW218489   8.528   9.436  14.830
72198SOL     OW18490   4.083   0.621   3.081
72198SOL    HW118491   4.030   0.541   3.084
72198SOL    HW218492   4.037   0.683   3.137
72199SOL     OW18493  14.051   2.433  11.113
72199SOL    HW118494  13.983   2.438  11.046
72199SOL    HW218495  14.128   2.473  11.071
72200SOL     OW18496   5.322   0.777  13.269
72200SOL    HW118497   5.392   0.792  13.205
72200SOL    HW218498   5.356   0.812  13.351
72201SOL     OW18499   2.300  10.960  13.617
72201SOL    HW118500   2.374  10.901  13.599
72201SOL    HW218501   2.224  10.916  13.580
72202SOL     OW18502  12.200   1.923   2.591
72202SOL    HW118503  12.188   1.841   2.638
72202SOL    HW218504  12.238   1.983   2.656
72203SOL     OW18505   9.622   8.933   5.854
72203SOL    HW118506   9.592   8.956   5.766
72203SOL    HW218507   9.546   8.949   5.910
72204SOL     OW18508  13.866   1.528  12.018
72204SOL    HW118509  13.773   1.549  12.013
72204SOL    HW218510  13.870   1.434  12.001
72205SOL     OW18511   8.118   1.247  13.683
72205SOL    HW118512   8.055   1.304  13.639
72205SOL    HW218513   8.194   1.245  13.625
72206SOL     OW18514   1.441  10.627  12.177
72206SOL    HW118515   1.452  10.665  12.090
72206SOL    HW218516   1.382  10.688  12.222
72207SOL     OW18517  10.773   8.993   7.455
72207SOL    HW118518  10.730   8.986   7.540
72207SOL    HW218519  10.778   9.087   7.439
72208SOL     OW18520   1.479   1.127  14.321
72208SOL    HW118521   1.538   1.172  14.381
72208SOL    HW218522   1.397   1.177  14.326
72209SOL     OW18523   8.735  11.930   6.562
72209SOL    HW118524   8.685  11.938   6.482
72209SOL    HW218525   8.708  11.846   6.599
72210SOL     OW18526   7.644   8.413   7.891
72210SOL    HW118527   7.657   8.348   7.960
72210SOL    HW218528   7.732   8.433   7.859
72211SOL     OW18529  14.147   1.731   3.784
72211SOL    HW118530  14.142   1.827   3.790
72211SOL    HW218531  14.202   1.715   3.707
72212SOL     OW18532   5.548   1.117   6.704
72212SOL    HW118533   5.545   1.085   6.794
72212SOL    HW218534   5.627   1.076   6.667
72213SOL     OW18535   4.508  11.643   0.167
72213SOL    HW118536   4.425  11.595   0.162
72213SOL    HW218537   4.501  11.694   0.247
72214SOL     OW18538   1.424   4.607   4.292
72214SOL    HW118539   1.431   4.635   4.201
72214SOL    HW218540   1.412   4.689   4.341
72215SOL     OW18541   6.561  10.233   9.939
72215SOL    HW118542   6.623  10.218   9.867
72215SOL    HW218543   6.601  10.303   9.990
72216SOL     OW18544   0.183  14.646  10.236
72216SOL    HW118545   0.248  14.576  10.243
72216SOL    HW218546   0.230  14.719  10.196
72217SOL     OW18547   2.600   4.247  10.422
72217SOL    HW118548   2.517   4.293  10.412
72217SOL    HW218549   2.657   4.308  10.468
72218SOL     OW18550   8.743  12.248  10.070
72218SOL    HW118551   8.769  12.211   9.986
72218SOL    HW218552   8.680  12.185  10.105
72219SOL     OW18553  10.232  14.696  14.806
72219SOL    HW118554  10.265  14.765  14.864
72219SOL    HW218555  10.307  14.639  14.791
72220SOL     OW18556  14.257   8.408   0.291
72220SOL    HW118557  14.198   8.425   0.364
72220SOL    HW218558  14.303   8.327   0.315
72221SOL     OW18559   3.378  11.286   6.333
72221SOL    HW118560   3.435  11.228   6.284
72221SOL    HW218561   3.437  11.341   6.384
72222SOL     OW18562   4.319   4.685  12.954
72222SOL    HW118563   4.309   4.606  12.901
72222SOL    HW218564   4.368   4.746  12.898
72223SOL     OW18565   8.175  14.483   9.083
72223SOL    HW118566   8.155  14.475   9.176
72223SOL    HW218567   8.267  14.507   9.080
72224SOL     OW18568   8.375   2.335  10.407
72224SOL    HW118569   8.467   2.361  10.397
72224SOL    HW218570   8.376   2.240  10.396
72225SOL     OW18571   1.353   1.270   3.480
72225SOL    HW118572   1.429   1.313   3.440
72225SOL    HW218573   1.390   1.198   3.532
72226SOL     OW18574   8.033   6.275  13.861
72226SOL    HW118575   8.064   6.187  13.841
72226SOL    HW218576   8.009   6.312  13.777
72227SOL     OW18577  12.652   2.568   7.051
72227SOL    HW118578  12.607   2.553   6.968
72227SOL    HW218579  12.640   2.661   7.068
72228SOL     OW18580  14.254   6.697   8.076
72228SOL    HW118581  14.243   6.650   8.159
72228SOL    HW218582  14.178   6.756   8.072
72229SOL     OW18583   2.197   6.097  13.315
72229SOL    HW118584   2.130   6.125  13.253
72229SOL    HW218585   2.221   6.009  13.286
72230SOL     OW18586   6.337   6.085  12.202
72230SOL    HW118587   6.348   6.101  12.296
72230SOL    HW218588   6.311   5.993  12.197
72231SOL     OW18589  10.604   7.624   5.474
72231SOL    HW118590  10.648   7.620   5.558
72231SOL    HW218591  10.593   7.717   5.456
72232SOL     OW18592   4.353  10.487   2.255
72232SOL    HW118593   4.297  10.511   2.329
72232SOL    HW218594   4.350  10.391   2.254
72233SOL     OW18595  10.872   3.947  14.465
72233SOL    HW118596  10.809   3.875  14.469
72233SOL    HW218597  10.819   4.026  14.470
72234SOL     OW18598  10.832   5.508  11.404
72234SOL    HW118599  10.868   5.486  11.318
72234SOL    HW218600  10.782   5.588  11.389
72235SOL     OW18601   2.893  13.827   1.433
72235SOL    HW118602   2.965  13.840   1.495
72235SOL    HW218603   2.840  13.758   1.474
72236SOL     OW18604  12.435  12.222  11.051
72236SOL    HW118605  12.419  12.149  10.990
72236SOL    HW218606  12.409  12.187  11.136
72237SOL     OW18607   9.909   6.837  10.227
72237SOL    HW118608   9.957   6.893  10.288
72237SOL    HW218609   9.938   6.865  10.140
72238SOL     OW18610   2.660   5.112   5.044
72238SOL    HW118611   2.723   5.181   5.065
72238SOL    HW218612   2.607   5.103   5.123
72239SOL     OW18613  14.248   4.571   9.917
72239SOL    HW118614  14.316   4.608   9.861
72239SOL    HW218615  14.191   4.645   9.938
72240SOL     OW18616   3.604   1.186   6.769
72240SOL    HW118617   3.650   1.160   6.849
72240SOL    HW218618   3.656   1.260   6.735
72241SOL     OW18619  14.550   9.895  11.041
72241SOL    HW118620  14.593   9.898  10.955
72241SOL    HW218621  14.497   9.974  11.044
72242SOL     OW18622   5.321   1.058  11.634
72242SOL    HW118623   5.410   1.090  11.628
72242SOL    HW218624   5.273   1.130  11.676
72243SOL     OW18625  13.234  11.629   7.042
72243SOL    HW118626  13.311  11.668   7.001
72243SOL    HW218627  13.246  11.535   7.032
72244SOL     OW18628   9.900   8.494  13.466
72244SOL    HW118629   9.859   8.473  13.382
72244SOL    HW218630   9.844   8.562  13.504
72245SOL     OW18631   9.566   6.759   0.139
72245SOL    HW118632   9.523   6.698   0.199
72245SOL    HW218633   9.654   6.770   0.176
72246SOL     OW18634   5.137   4.711   0.532
72246SOL    HW118635   5.064   4.664   0.491
72246SOL    HW218636   5.179   4.757   0.459
72247SOL     OW18637   1.133   6.130   5.844
72247SOL    HW118638   1.044   6.161   5.833
72247SOL    HW218639   1.137   6.050   5.790
72248SOL     OW18640  13.233   6.317   1.534
72248SOL    HW118641  13.231   6.342   1.627
72248SOL    HW218642  13.144   6.333   1.503
72249SOL     OW18643  11.722  14.038   4.070
72249SOL    HW118644  11.753  14.031   4.160
72249SOL    HW218645  11.696  14.129   4.060
72250SOL     OW18646   3.869  12.633   2.586
72250SOL    HW118647   3.818  12.583   2.650
72250SOL    HW218648   3.900  12.568   2.523
72251SOL     OW18649   9.321   6.037   8.793
72251SOL    HW118650   9.380   6.103   8.756
72251SOL    HW218651   9.292   5.985   8.718
72252SOL     OW18652   7.422   8.014   4.283
72252SOL    HW118653   7.338   8.044   4.317
72252SOL    HW218654   7.487   8.047   4.345
72253SOL     OW18655  13.877   9.236  14.275
72253SOL    HW118656  13.929   9.221  14.196
72253SOL    HW218657  13.862   9.331  14.276
72254SOL     OW18658   0.996   9.179  10.258
72254SOL    HW118659   0.914   9.181  10.306
72254SOL    HW218660   1.062   9.152  10.322
72255SOL     OW18661   9.401  14.561  12.590
72255SOL    HW118662   9.431  14.473  12.566
72255SOL    HW218663   9.306  14.558  12.582
72256SOL     OW18664   7.491   7.382   3.128
72256SOL    HW118665   7.560   7.363   3.064
72256SOL    HW218666   7.446   7.298   3.140
72257SOL     OW18667   6.653   0.937  10.207
72257SOL    HW118668   6.666   1.029  10.231
72257SOL    HW218669   6.559   0.922  10.219
72258SOL     OW18670  10.629  10.830   5.239
72258SOL    HW118671  10.694  10.768   5.204
72258SOL    HW218672  10.681  10.907   5.261
72259SOL     OW18673   4.287  10.436   1.277
72259SOL    HW118674   4.322  10.364   1.224
72259SOL    HW218675   4.365  10.481   1.310
72260SOL     OW18676   8.693   4.934   5.201
72260SOL    HW118677   8.713   4.847   5.236
72260SOL    HW218678   8.682   4.989   5.278
72261SOL     OW18679   8.592   2.967   5.987
72261SOL    HW118680   8.560   3.051   5.954
72261SOL    HW218681   8.654   2.990   6.057
72262SOL     OW18682  13.444   0.652   6.574
72262SOL    HW118683  13.361   0.608   6.558
72262SOL    HW218684  13.426   0.744   6.554
72263SOL     OW18685   8.020  10.744   6.892
72263SOL    HW118686   8.090  10.698   6.938
72263SOL    HW218687   7.945  10.738   6.951
72264SOL     OW18688  14.018   8.086   1.078
72264SOL    HW118689  14.106   8.067   1.045
72264SOL    HW218690  14.031   8.144   1.152
72265SOL     OW18691  11.084   7.298   8.413
72265SOL    HW118692  10.990   7.314   8.426
72265SOL    HW218693  11.115   7.374   8.364
72266SOL     OW18694   3.570   2.196   2.534
72266SOL    HW118695   3.528   2.134   2.593
72266SOL    HW218696   3.664   2.185   2.550
72267SOL     OW18697  14.796  10.038   3.412
72267SOL    HW118698  14.785  10.116   3.358
72267SOL    HW218699  14.722   9.982   3.388
72268SOL     OW18700   2.736   9.064  14.543
72268SOL    HW118701   2.825   9.094  14.526
72268SOL    HW218702   2.680   9.134  14.511
72269SOL     OW18703   6.852  10.520  13.860
72269SOL    HW118704   6.911  10.446  13.874
72269SOL    HW218705   6.880  10.585  13.925
72270SOL     OW18706  11.169   2.864   1.133
72270SOL    HW118707  11.230   2.851   1.206
72270SOL    HW218708  11.154   2.776   1.098
72271SOL     OW18709   7.103  12.908  10.680
72271SOL    HW118710   7.102  12.968  10.755
72271SOL    HW218711   7.051  12.953  10.614
72272SOL     OW18712  11.700  11.101   3.284
72272SOL    HW118713  11.717  11.007   3.288
72272SOL    HW218714  11.689  11.128   3.375
72273SOL     OW18715  11.025   2.174  14.292
72273SOL    HW118716  10.982   2.129  14.219
72273SOL    HW218717  11.117   2.180  14.265
72274SOL     OW18718   7.806  13.785   4.312
72274SOL    HW118719   7.818  13.705   4.362
72274SOL    HW218720   7.890  13.798   4.267
72275SOL     OW18721   2.865   9.048  11.882
72275SOL    HW118722   2.801   9.024  11.949
72275SOL    HW218723   2.824   9.021  11.799
72276SOL     OW18724   0.034   2.814  10.693
72276SOL    HW118725  14.849   2.858  10.626
72276SOL    HW218726   0.022   2.867  10.772
72277SOL     OW18727  13.475   7.471   4.469
72277SOL    HW118728  13.448   7.475   4.377
72277SOL    HW218729  13.570   7.469   4.466
72278SOL     OW18730   1.349   5.061   4.832
72278SOL    HW118731   1.365   4.970   4.859
72278SOL    HW218732   1.426   5.109   4.860
72279SOL     OW18733  12.245  14.012   6.927
72279SOL    HW118734  12.326  13.967   6.903
72279SOL    HW218735  12.215  14.053   6.846
72280SOL     OW18736  14.512  12.238   6.122
72280SOL    HW118737  14.510  12.298   6.197
72280SOL    HW218738  14.499  12.294   6.046
72281SOL     OW18739   3.939   9.899   1.837
72281SOL    HW118740   3.985   9.898   1.754
72281SOL    HW218741   3.852   9.864   1.817
72282SOL     OW18742   8.528  13.965  14.538
72282SOL    HW118743   8.559  13.877  14.559
72282SOL    HW218744   8.495  13.999  14.621
72283SOL     OW18745   2.870   5.638   8.817
72283SOL    HW118746   2.843   5.594   8.736
72283SOL    HW218747   2.965   5.628   8.818
72284SOL     OW18748   5.519   9.520   3.652
72284SOL    HW118749   5.440   9.541   3.701
72284SOL    HW218750   5.563   9.604   3.640
72285SOL     OW18751   7.663   8.472   3.385
72285SOL    HW118752   7.664   8.494   3.478
72285SOL    HW218753   7.677   8.555   3.340
72286SOL     OW18754   4.527  12.784   2.655
72286SOL    HW118755   4.541  12.738   2.738
72286SOL    HW218756   4.563  12.724   2.589
72287SOL     OW18757   7.266  14.287   4.727
72287SOL    HW118758   7.189  14.234   4.751
72287SOL    HW218759   7.339  14.226   4.729
72288SOL     OW18760   0.201   6.085  12.759
72288SOL    HW118761   0.217   6.159  12.701
72288SOL    HW218762   0.107   6.086  12.774
72289SOL     OW18763   9.450   8.711   8.910
72289SOL    HW118764   9.386   8.697   8.840
72289SOL    HW218765   9.498   8.628   8.916
72290SOL     OW18766  11.903  10.433   8.080
72290SOL    HW118767  11.997  10.415   8.081
72290SOL    HW218768  11.862  10.347   8.076
72291SOL     OW18769  10.453   7.758  12.687
72291SOL    HW118770  10.452   7.700  12.611
72291SOL    HW218771  10.537   7.739  12.730
72292SOL     OW18772  13.631  11.844   6.304
72292SOL    HW118773  13.671  11.815   6.385
72292SOL    HW218774  13.537  11.833   6.317
72293SOL     OW18775   4.634   1.683   0.866
72293SOL    HW118776   4.647   1.773   0.836
72293SOL    HW218777   4.583   1.642   0.796
72294SOL     OW18778   0.335  10.378   4.151
72294SOL    HW118779   0.368  10.435   4.082
72294SOL    HW218780   0.361  10.421   4.232
72295SOL     OW18781   6.292   8.342   9.218
72295SOL    HW118782   6.379   8.307   9.240
72295SOL    HW218783   6.297   8.434   9.241
72296SOL     OW18784   9.569   7.192   5.249
72296SOL    HW118785   9.577   7.251   5.174
72296SOL    HW218786   9.543   7.108   5.211
72297SOL     OW18787   0.575  11.599   7.769
72297SOL    HW118788   0.494  11.637   7.733
72297SOL    HW218789   0.548  11.514   7.803
72298SOL     OW18790   1.193   9.914   9.673
72298SOL    HW118791   1.234   9.834   9.707
72298SOL    HW218792   1.241   9.985   9.714
72299SOL     OW18793   5.079   8.389  14.457
72299SOL    HW118794   5.002   8.409  14.510
72299SOL    HW218795   5.153   8.404  14.516
72300SOL     OW18796   7.554   9.038   9.223
72300SOL    HW118797   7.623   9.065   9.284
72300SOL    HW218798   7.594   9.048   9.136
72301SOL     OW18799   1.853   3.196  10.516
72301SOL    HW118800   1.896   3.216  10.433
72301SOL    HW218801   1.891   3.257  10.578
72302SOL     OW18802   7.962   8.396  12.668
72302SOL    HW118803   7.889   8.431  12.617
72302SOL    HW218804   8.025   8.468  12.673
72303SOL     OW18805   4.249  11.622   4.666
72303SOL    HW118806   4.294  11.545   4.701
72303SOL    HW218807   4.171  11.632   4.721
72304SOL     OW18808  14.287   3.880  13.455
72304SOL    HW118809  14.192   3.892  13.451
72304SOL    HW218810  14.323   3.967  13.439
72305SOL     OW18811   4.933  12.504  11.468
72305SOL    HW118812   4.860  12.480  11.525
72305SOL    HW218813   5.010  12.466  11.510
72306SOL     OW18814   0.169   0.812  11.657
72306SOL    HW118815   0.245   0.771  11.616
72306SOL    HW218816   0.199   0.900  11.682
72307SOL     OW18817   9.106   3.226  14.358
72307SOL    HW118818   9.151   3.197  14.279
72307SOL    HW218819   9.152   3.306  14.384
72308SOL     OW18820   5.928  11.138  13.331
72308SOL    HW118821   5.990  11.069  13.308
72308SOL    HW218822   5.842  11.096  13.326
72309SOL     OW18823   3.809  13.186   1.156
72309SOL    HW118824   3.880  13.196   1.092
72309SOL    HW218825   3.838  13.114   1.212
72310SOL     OW18826   1.649  10.869   8.125
72310SOL    HW118827   1.617  10.938   8.183
72310SOL    HW218828   1.630  10.901   8.037
72311SOL     OW18829  11.641   3.848   0.879
72311SOL    HW118830  11.626   3.942   0.893
72311SOL    HW218831  11.720   3.829   0.930
72312SOL     OW18832   8.329   9.626  13.526
72312SOL    HW118833   8.411   9.636  13.477
72312SOL    HW218834   8.335   9.540  13.567
72313SOL     OW18835   2.414  12.247   8.856
72313SOL    HW118836   2.475  12.221   8.786
72313SOL    HW218837   2.455  12.323   8.896
72314SOL     OW18838   1.342   9.957  13.658
72314SOL    HW118839   1.378   9.996  13.578
72314SOL    HW218840   1.380  10.009  13.729
72315SOL     OW18841   4.697   9.007  13.251
72315SOL    HW118842   4.728   9.030  13.163
72315SOL    HW218843   4.621   9.064  13.265
72316SOL     OW18844  10.920   8.511   4.535
72316SOL    HW118845  10.908   8.594   4.581
72316SOL    HW218846  10.960   8.453   4.599
72317SOL     OW18847  12.533   8.263   0.899
72317SOL    HW118848  12.583   8.184   0.918
72317SOL    HW218849  12.592   8.335   0.920
72318SOL     OW18850   5.284  12.145   9.491
72318SOL    HW118851   5.354  12.110   9.436
72318SOL    HW218852   5.215  12.168   9.430
72319SOL     OW18853   9.145   7.426   8.658
72319SOL    HW118854   9.211   7.490   8.684
72319SOL    HW218855   9.176   7.344   8.696
72320SOL     OW18856   3.002  13.311   1.112
72320SOL    HW118857   3.080  13.360   1.085
72320SOL    HW218858   2.935  13.337   1.050
72321SOL     OW18859   4.307   2.078   9.383
72321SOL    HW118860   4.236   2.141   9.393
72321SOL    HW218861   4.371   2.122   9.327
72322SOL     OW18862  13.002   9.813  13.820
72322SOL    HW118863  12.978   9.807  13.912
72322SOL    HW218864  12.978   9.728  13.783
72323SOL     OW18865   6.882  12.162   3.225
72323SOL    HW118866   6.841  12.086   3.265
72323SOL    HW218867   6.821  12.234   3.243
72324SOL     OW18868  12.258   1.927  13.066
72324SOL    HW118869  12.267   2.021  13.052
72324SOL    HW218870  12.235   1.920  13.159
72325SOL     OW18871  14.544   0.429   2.744
72325SOL    HW118872  14.595   0.399   2.669
72325SOL    HW218873  14.607   0.476   2.798
72326SOL     OW18874   8.303   7.750   8.711
72326SOL    HW118875   8.209   7.761   8.724
72326SOL    HW218876   8.344   7.802   8.781
72327SOL     OW18877   2.577   1.361   3.831
72327SOL    HW118878   2.643   1.370   3.900
72327SOL    HW218879   2.623   1.318   3.759
72328SOL     OW18880   7.675   9.717  11.739
72328SOL    HW118881   7.678   9.809  11.764
72328SOL    HW218882   7.633   9.673  11.812
72329SOL     OW18883   0.744  14.289   9.077
72329SOL    HW118884   0.744  14.264   9.169
72329SOL    HW218885   0.669  14.243   9.040
72330SOL     OW18886   7.812   5.047   2.707
72330SOL    HW118887   7.901   5.055   2.742
72330SOL    HW218888   7.757   5.093   2.770
72331SOL     OW18889  11.419   1.365  11.393
72331SOL    HW118890  11.448   1.420  11.320
72331SOL    HW218891  11.441   1.416  11.471
72332SOL     OW18892   9.062  12.884  14.850
72332SOL    HW118893   8.973  12.897   0.014
72332SOL    HW218894   9.069  12.941  14.774
72333SOL     OW18895  10.300  14.219  12.933
72333SOL    HW118896  10.207  14.197  12.939
72333SOL    HW218897  10.304  14.310  12.964
72334SOL     OW18898   0.074   3.860  11.798
72334SOL    HW118899   0.037   3.805  11.729
72334SOL    HW218900   0.009   3.928  11.812
72335SOL     OW18901   7.889   2.145   2.673
72335SOL    HW118902   7.802   2.174   2.702
72335SOL    HW218903   7.938   2.227   2.659
72336SOL     OW18904  11.575   4.691   7.523
72336SOL    HW118905  11.543   4.747   7.452
72336SOL    HW218906  11.559   4.741   7.602
72337SOL     OW18907  13.902  14.393   6.050
72337SOL    HW118908  13.858  14.381   6.135
72337SOL    HW218909  13.980  14.444   6.071
72338SOL     OW18910   5.469   4.397   1.676
72338SOL    HW118911   5.412   4.345   1.619
72338SOL    HW218912   5.552   4.349   1.677
72339SOL     OW18913  13.314  14.493   6.002
72339SOL    HW118914  13.380  14.513   5.936
72339SOL    HW218915  13.261  14.573   6.007
72340SOL     OW18916  14.320   7.955   8.463
72340SOL    HW118917  14.251   8.011   8.428
72340SOL    HW218918  14.401   7.992   8.428
72341SOL     OW18919   3.058   6.763  11.967
72341SOL    HW118920   3.083   6.671  11.963
72341SOL    HW218921   2.963   6.763  11.967
72342SOL     OW18922   5.928   7.866   4.994
72342SOL    HW118923   5.936   7.771   4.988
72342SOL    HW218924   5.841   7.880   5.031
72343SOL     OW18925   3.510  10.426   4.676
72343SOL    HW118926   3.486  10.338   4.705
72343SOL    HW218927   3.571  10.458   4.742
72344SOL     OW18928   4.336  11.698   6.142
72344SOL    HW118929   4.348  11.652   6.225
72344SOL    HW218930   4.253  11.664   6.109
72345SOL     OW18931   5.517   3.723   0.434
72345SOL    HW118932   5.540   3.806   0.476
72345SOL    HW218933   5.489   3.747   0.346
72346SOL     OW18934   6.158   5.500   2.753
72346SOL    HW118935   6.238   5.480   2.802
72346SOL    HW218936   6.138   5.418   2.707
72347SOL     OW18937   6.642   6.802  14.044
72347SOL    HW118938   6.562   6.776  14.090
72347SOL    HW218939   6.618   6.884  14.000
72348SOL     OW18940   4.908   0.738   1.238
72348SOL    HW118941   4.926   0.782   1.155
72348SOL    HW218942   4.937   0.800   1.305
72349SOL     OW18943   8.621   9.408   5.161
72349SOL    HW118944   8.616   9.406   5.257
72349SOL    HW218945   8.702   9.456   5.142
72350SOL     OW18946   0.150  13.624   8.214
72350SOL    HW118947   0.099  13.556   8.170
72350SOL    HW218948   0.091  13.699   8.221
72351SOL     OW18949   0.455   1.340   4.193
72351SOL    HW118950   0.359   1.346   4.191
72351SOL    HW218951   0.481   1.353   4.102
72352SOL     OW18952  14.339   1.616   6.289
72352SOL    HW118953  14.427   1.593   6.257
72352SOL    HW218954  14.352   1.696   6.340
72353SOL     OW18955  10.732   1.544  11.525
72353SOL    HW118956  10.693   1.525  11.439
72353SOL    HW218957  10.826   1.543  11.509
72354SOL     OW18958  13.874   6.398  10.535
72354SOL    HW118959  13.887   6.482  10.579
72354SOL    HW218960  13.942   6.396  10.468
72355SOL     OW18961  10.837   3.961   6.804
72355SOL    HW118962  10.928   3.988   6.808
72355SOL    HW218963  10.793   4.017   6.868
72356SOL     OW18964   0.765  10.951   4.765
72356SOL    HW118965   0.700  10.889   4.798
72356SOL    HW218966   0.714  11.016   4.718
72357SOL     OW18967   0.281   0.012   9.306
72357SOL    HW118968   0.333   0.071   9.252
72357SOL    HW218969   0.267  14.803   9.251
72358SOL     OW18970  14.459   0.430   1.854
72358SOL    HW118971  14.539   0.411   1.806
72358SOL    HW218972  14.416   0.499   1.804
72359SOL     OW18973   9.838   4.769   4.927
72359SOL    HW118974   9.895   4.706   4.883
72359SOL    HW218975   9.829   4.734   5.016
72360SOL     OW18976   6.568   8.189   9.975
72360SOL    HW118977   6.589   8.222   9.888
72360SOL    HW218978   6.482   8.226   9.994
72361SOL     OW18979  13.342  11.880   5.404
72361SOL    HW118980  13.413  11.889   5.340
72361SOL    HW218981  13.286  11.956   5.388
72362SOL     OW18982   9.589  14.019   9.241
72362SOL    HW118983   9.558  13.978   9.160
72362SOL    HW218984   9.650  13.955   9.278
72363SOL     OW18985   8.939   3.422  11.131
72363SOL    HW118986   9.003   3.407  11.061
72363SOL    HW218987   8.953   3.513  11.157
72364SOL     OW18988   2.841   5.532   2.458
72364SOL    HW118989   2.798   5.459   2.501
72364SOL    HW218990   2.934   5.520   2.478
72365SOL     OW18991   0.928   7.890   2.554
72365SOL    HW118992   1.021   7.870   2.550
72365SOL    HW218993   0.902   7.865   2.642
72366SOL     OW18994   1.814   3.981   1.968
72366SOL    HW118995   1.755   3.960   2.040
72366SOL    HW218996   1.843   4.071   1.987
72367SOL     OW18997   7.666  10.096  12.526
72367SOL    HW118998   7.676  10.183  12.565
72367SOL    HW218999   7.741  10.046  12.559
72368SOL     OW19000  12.096   9.327   5.287
72368SOL    HW119001  12.071   9.413   5.322
72368SOL    HW219002  12.174   9.345   5.234
72369SOL     OW19003   4.816  12.941   4.164
72369SOL    HW119004   4.893  12.984   4.202
72369SOL    HW219005   4.752  13.011   4.153
72370SOL     OW19006   4.189   9.379  12.834
72370SOL    HW119007   4.220   9.316  12.769
72370SOL    HW219008   4.097   9.393  12.813
72371SOL     OW19009   1.637   8.041  14.629
72371SOL    HW119010   1.706   7.982  14.599
72371SOL    HW219011   1.667   8.128  14.603
72372SOL     OW19012   7.789  11.588   8.868
72372SOL    HW119013   7.833  11.647   8.806
72372SOL    HW219014   7.713  11.556   8.821
72373SOL     OW19015  10.398   9.483   5.881
72373SOL    HW119016  10.326   9.491   5.944
72373SOL    HW219017  10.477   9.502   5.933
72374SOL     OW19018  13.160   8.253  14.719
72374SOL    HW119019  13.138   8.175  14.669
72374SOL    HW219020  13.211   8.307  14.658
72375SOL     OW19021   1.061   1.365  11.299
72375SOL    HW119022   1.056   1.279  11.258
72375SOL    HW219023   1.074   1.426  11.225
72376SOL     OW19024   8.479   1.800  13.666
72376SOL    HW119025   8.445   1.889  13.653
72376SOL    HW219026   8.427   1.765  13.739
72377SOL     OW19027   5.693  10.437   7.859
72377SOL    HW119028   5.712  10.344   7.871
72377SOL    HW219029   5.732  10.459   7.774
72378SOL     OW19030  13.167   4.156   9.430
72378SOL    HW119031  13.206   4.080   9.474
72378SOL    HW219032  13.189   4.230   9.485
72379SOL     OW19033   2.680   7.750   6.089
72379SOL    HW119034   2.630   7.668   6.084
72379SOL    HW219035   2.762   7.730   6.045
72380SOL     OW19036   5.352   5.112  12.419
72380SOL    HW119037   5.281   5.144  12.364
72380SOL    HW219038   5.370   5.184  12.480
72381SOL     OW19039   6.466  11.985   4.348
72381SOL    HW119040   6.485  11.893   4.363
72381SOL    HW219041   6.498  12.029   4.427
72382SOL     OW19042   0.960   8.107  12.436
72382SOL    HW119043   1.007   8.025  12.451
72382SOL    HW219044   1.008   8.149  12.365
72383SOL     OW19045  11.908   6.013   6.145
72383SOL    HW119046  11.835   5.954   6.130
72383SOL    HW219047  11.888   6.056   6.228
72384SOL     OW19048   8.129   1.429  10.260
72384SOL    HW119049   8.054   1.412  10.317
72384SOL    HW219050   8.189   1.481  10.314
72385SOL     OW19051   0.017   9.315   6.111
72385SOL    HW119052  14.860   9.237   6.161
72385SOL    HW219053   0.014   9.286   6.019
72386SOL     OW19054   1.462  13.226  13.050
72386SOL    HW119055   1.441  13.226  13.143
72386SOL    HW219056   1.416  13.302  13.015
72387SOL     OW19057   7.360   4.588  12.686
72387SOL    HW119058   7.304   4.644  12.740
72387SOL    HW219059   7.372   4.509  12.738
72388SOL     OW19060   9.750   6.972   7.292
72388SOL    HW119061   9.733   6.910   7.221
72388SOL    HW219062   9.822   7.026   7.260
72389SOL     OW19063   5.226   1.378   2.281
72389SOL    HW119064   5.132   1.368   2.293
72389SOL    HW219065   5.254   1.434   2.353
72390SOL     OW19066   0.825   6.002   5.294
72390SOL    HW119067   0.732   5.978   5.298
72390SOL    HW219068   0.828   6.077   5.234
72391SOL     OW19069   8.356   3.066   0.377
72391SOL    HW119070   8.410   3.142   0.357
72391SOL    HW219071   8.405   3.019   0.444
72392SOL     OW19072   0.416   2.090  12.095
72392SOL    HW119073   0.434   2.030  12.024
72392SOL    HW219074   0.356   2.155  12.057
72393SOL     OW19075  11.039   6.605   6.027
72393SOL    HW119076  11.125   6.585   5.992
72393SOL    HW219077  10.986   6.527   6.009
72394SOL     OW19078  12.681  12.225   8.538
72394SOL    HW119079  12.666  12.183   8.453
72394SOL    HW219080  12.642  12.312   8.528
72395SOL     OW19081  13.116   3.857   8.676
72395SOL    HW119082  13.179   3.786   8.666
72395SOL    HW219083  13.038   3.815   8.713
72396SOL     OW19084  10.846  13.124   5.929
72396SOL    HW119085  10.751  13.111   5.924
72396SOL    HW219086  10.862  13.153   6.018
72397SOL     OW19087   0.521  11.746   3.262
72397SOL    HW119088   0.484  11.833   3.247
72397SOL    HW219089   0.612  11.753   3.233
72398SOL     OW19090  12.121   7.450   8.367
72398SOL    HW119091  12.147   7.458   8.275
72398SOL    HW219092  12.186   7.392   8.406
72399SOL     OW19093   2.737  10.601   5.294
72399SOL    HW119094   2.730  10.652   5.213
72399SOL    HW219095   2.670  10.637   5.351
72400SOL     OW19096  13.186  11.021   2.335
72400SOL    HW119097  13.119  10.959   2.365
72400SOL    HW219098  13.187  11.089   2.403
72401SOL     OW19099   4.884  14.067   1.772
72401SOL    HW119100   4.910  13.990   1.824
72401SOL    HW219101   4.877  14.137   1.836
72402SOL     OW19102   1.580   5.215   5.905
72402SOL    HW119103   1.603   5.262   5.984
72402SOL    HW219104   1.628   5.132   5.911
72403SOL     OW19105   7.617  14.145   3.644
72403SOL    HW119106   7.596  14.238   3.629
72403SOL    HW219107   7.695  14.148   3.699
72404SOL     OW19108   6.226   3.756   8.509
72404SOL    HW119109   6.281   3.683   8.536
72404SOL    HW219110   6.279   3.834   8.528
72405SOL     OW19111  12.379  10.304   5.665
72405SOL    HW119112  12.448  10.274   5.724
72405SOL    HW219113  12.299  10.264   5.699
72406SOL     OW19114  11.650   2.878   5.110
72406SOL    HW119115  11.606   2.829   5.040
72406SOL    HW219116  11.742   2.879   5.084
72407SOL     OW19117   5.173  11.539   9.932
72407SOL    HW119118   5.101  11.553   9.993
72407SOL    HW219119   5.239  11.604   9.958
72408SOL     OW19120  13.000  13.544   0.420
72408SOL    HW119121  13.025  13.621   0.370
72408SOL    HW219122  12.947  13.491   0.359
72409SOL     OW19123  10.058  14.414   7.334
72409SOL    HW119124   9.990  14.346   7.336
72409SOL    HW219125  10.109  14.399   7.413
72410SOL     OW19126   4.736   2.019  12.966
72410SOL    HW119127   4.817   2.016  12.915
72410SOL    HW219128   4.688   2.094  12.931
72411SOL     OW19129   8.853   3.486   6.381
72411SOL    HW119130   8.858   3.499   6.475
72411SOL    HW219131   8.895   3.401   6.366
72412SOL     OW19132   4.917   7.092   3.479
72412SOL    HW119133   4.939   7.143   3.401
72412SOL    HW219134   4.957   7.141   3.551
72413SOL     OW19135   3.383   3.499   5.199
72413SOL    HW119136   3.321   3.572   5.199
72413SOL    HW219137   3.433   3.511   5.119
72414SOL     OW19138   1.456  12.531  14.066
72414SOL    HW119139   1.523  12.463  14.076
72414SOL    HW219140   1.434  12.556  14.156
72415SOL     OW19141   5.687   5.159   2.300
72415SOL    HW119142   5.599   5.121   2.299
72415SOL    HW219143   5.742   5.093   2.257
72416SOL     OW19144   1.213   4.728  12.634
72416SOL    HW119145   1.280   4.661  12.647
72416SOL    HW219146   1.136   4.695  12.679
72417SOL     OW19147   1.314   0.603   5.260
72417SOL    HW119148   1.352   0.575   5.344
72417SOL    HW219149   1.231   0.557   5.255
72418SOL     OW19150   8.432   5.173  14.521
72418SOL    HW119151   8.358   5.164  14.581
72418SOL    HW219152   8.508   5.146  14.572
72419SOL     OW19153   2.941   6.602   1.434
72419SOL    HW119154   2.976   6.618   1.347
72419SOL    HW219155   2.945   6.508   1.446
72420SOL     OW19156  11.769  12.322  10.100
72420SOL    HW119157  11.829  12.311  10.026
72420SOL    HW219158  11.776  12.415  10.123
72421SOL     OW19159   6.455   5.176   0.418
72421SOL    HW119160   6.387   5.221   0.467
72421SOL    HW219161   6.533   5.231   0.429
72422SOL     OW19162  14.015  13.688   7.785
72422SOL    HW119163  13.982  13.701   7.874
72422SOL    HW219164  14.073  13.613   7.792
72423SOL     OW19165  12.979   2.703   6.644
72423SOL    HW119166  12.940   2.616   6.650
72423SOL    HW219167  13.071   2.689   6.668
72424SOL     OW19168   1.901   1.586  11.141
72424SOL    HW119169   1.832   1.643  11.176
72424SOL    HW219170   1.858   1.501  11.130
72425SOL     OW19171   7.869   9.599   2.581
72425SOL    HW119172   7.947   9.567   2.535
72425SOL    HW219173   7.881   9.694   2.584
72426SOL     OW19174   7.925   9.694  11.549
72426SOL    HW119175   7.918   9.599  11.553
72426SOL    HW219176   7.850   9.725  11.600
72427SOL     OW19177  13.164  13.027   4.589
72427SOL    HW119178  13.160  13.008   4.683
72427SOL    HW219179  13.141  13.120   4.584
72428SOL     OW19180   3.196  14.391   2.281
72428SOL    HW119181   3.156  14.475   2.302
72428SOL    HW219182   3.198  14.388   2.186
72429SOL     OW19183   6.580  14.413   7.094
72429SOL    HW119184   6.579  14.384   7.185
72429SOL    HW219185   6.568  14.508   7.099
72430SOL     OW19186   7.475   1.835   4.666
72430SOL    HW119187   7.419   1.790   4.603
72430SOL    HW219188   7.444   1.805   4.752
72431SOL     OW19189   5.866  11.184   0.502
72431SOL    HW119190   5.803  11.237   0.454
72431SOL    HW219191   5.922  11.247   0.547
72432SOL     OW19192  11.029  11.731   9.299
72432SOL    HW119193  11.055  11.640   9.280
72432SOL    HW219194  11.111  11.775   9.322
72433SOL     OW19195  11.825   8.521  10.504
72433SOL    HW119196  11.770   8.481  10.572
72433SOL    HW219197  11.792   8.483  10.423
72434SOL     OW19198   6.910  14.609  13.878
72434SOL    HW119199   6.920  14.699  13.845
72434SOL    HW219200   6.888  14.620  13.970
72435SOL     OW19201   1.427  11.478  13.391
72435SOL    HW119202   1.377  11.558  13.406
72435SOL    HW219203   1.370  11.423  13.339
72436SOL     OW19204   8.345   2.076  10.939
72436SOL    HW119205   8.352   1.982  10.956
72436SOL    HW219206   8.435   2.104  10.924
72437SOL     OW19207   5.388   6.401  11.452
72437SOL    HW119208   5.408   6.424  11.543
72437SOL    HW219209   5.312   6.343  11.458
72438SOL     OW19210   3.278  12.770  14.682
72438SOL    HW119211   3.368  12.800  14.697
72438SOL    HW219212   3.225  12.821  14.742
72439SOL     OW19213  14.743  11.098   2.134
72439SOL    HW119214  14.708  11.141   2.212
72439SOL    HW219215  14.669  11.048   2.099
72440SOL     OW19216   4.416  13.449  13.928
72440SOL    HW119217   4.431  13.516  13.862
72440SOL    HW219218   4.480  13.468  13.997
72441SOL     OW19219   9.522   1.248  10.844
72441SOL    HW119220   9.526   1.199  10.927
72441SOL    HW219221   9.447   1.306  10.854
72442SOL     OW19222   4.436  12.976  12.062
72442SOL    HW119223   4.388  13.055  12.086
72442SOL    HW219224   4.467  12.940  12.145
72443SOL     OW19225  10.935   6.671  13.035
72443SOL    HW119226  10.857   6.720  13.060
72443SOL    HW219227  10.984   6.731  12.978
72444SOL     OW19228  14.245  14.569  12.020
72444SOL    HW119229  14.183  14.546  11.951
72444SOL    HW219230  14.190  14.600  12.092
72445SOL     OW19231   8.180   3.432   4.925
72445SOL    HW119232   8.209   3.383   5.002
72445SOL    HW219233   8.243   3.504   4.918
72446SOL     OW19234   1.197  14.441  13.147
72446SOL    HW119235   1.283  14.401  13.156
72446SOL    HW219236   1.143  14.374  13.105
72447SOL     OW19237  10.661   1.092  11.509
72447SOL    HW119238  10.631   1.062  11.594
72447SOL    HW219239  10.753   1.115  11.522
72448SOL     OW19240   3.403   5.478  10.329
72448SOL    HW119241   3.471   5.412  10.317
72448SOL    HW219242   3.349   5.471  10.250
72449SOL     OW19243  14.659  12.936   4.016
72449SOL    HW119244  14.584  12.971   4.064
72449SOL    HW219245  14.686  12.860   4.068
72450SOL     OW19246  12.199   2.539  14.801
72450SOL    HW119247  12.211   2.447  14.825
72450SOL    HW219248  12.203   2.586   0.017
72451SOL     OW19249   7.872  13.129   1.566
72451SOL    HW119250   7.915  13.054   1.525
72451SOL    HW219251   7.850  13.186   1.493
72452SOL     OW19252   1.446  12.627   2.829
72452SOL    HW119253   1.454  12.586   2.915
72452SOL    HW219254   1.363  12.675   2.833
72453SOL     OW19255  13.602   7.167   0.916
72453SOL    HW119256  13.564   7.209   0.993
72453SOL    HW219257  13.548   7.198   0.843
72454SOL     OW19258   8.281   1.827   9.617
72454SOL    HW119259   8.289   1.757   9.552
72454SOL    HW219260   8.243   1.784   9.693
72455SOL     OW19261   4.079  14.176   6.115
72455SOL    HW119262   4.035  14.180   6.200
72455SOL    HW219263   4.010  14.148   6.054
72456SOL     OW19264   8.940   4.272  11.493
72456SOL    HW119265   8.983   4.293  11.410
72456SOL    HW219266   9.010   4.281  11.558
72457SOL     OW19267   6.501   6.959   1.062
72457SOL    HW119268   6.458   7.017   1.125
72457SOL    HW219269   6.446   6.964   0.984
72458SOL     OW19270   2.705  12.982   3.748
72458SOL    HW119271   2.665  12.912   3.697
72458SOL    HW219272   2.640  13.004   3.815
72459SOL     OW19273   9.302  13.066   8.168
72459SOL    HW119274   9.348  13.044   8.087
72459SOL    HW219275   9.322  12.993   8.227
72460SOL     OW19276  12.113   4.907  12.294
72460SOL    HW119277  12.081   4.996  12.307
72460SOL    HW219278  12.112   4.868  12.382
72461SOL     OW19279   8.771  13.204   9.915
72461SOL    HW119280   8.848  13.174   9.867
72461SOL    HW219281   8.792  13.188  10.007
72462SOL     OW19282  12.872   6.608   0.292
72462SOL    HW119283  12.954   6.600   0.341
72462SOL    HW219284  12.885   6.555   0.214
72463SOL     OW19285  14.298   7.676  12.916
72463SOL    HW119286  14.303   7.676  12.821
72463SOL    HW219287  14.256   7.593  12.938
72464SOL     OW19288   4.831  11.169   2.783
72464SOL    HW119289   4.801  11.170   2.692
72464SOL    HW219290   4.865  11.258   2.798
72465SOL     OW19291   2.773   4.291   4.813
72465SOL    HW119292   2.796   4.381   4.791
72465SOL    HW219293   2.705   4.298   4.879
72466SOL     OW19294  12.189  11.993  14.280
72466SOL    HW119295  12.194  11.996  14.376
72466SOL    HW219296  12.095  12.002  14.262
72467SOL     OW19297   5.430   8.962  12.327
72467SOL    HW119298   5.511   9.011  12.338
72467SOL    HW219299   5.361   9.025  12.346
72468SOL     OW19300  10.756   2.500   1.467
72468SOL    HW119301  10.780   2.415   1.430
72468SOL    HW219302  10.661   2.497   1.474
72469SOL     OW19303  13.052   3.120   9.923
72469SOL    HW119304  13.039   3.185   9.991
72469SOL    HW219305  13.045   3.169   9.841
72470SOL     OW19306   2.840   5.313  13.567
72470SOL    HW119307   2.931   5.302  13.593
72470SOL    HW219308   2.836   5.278  13.478
72471SOL     OW19309   3.378   0.419   4.537
72471SOL    HW119310   3.466   0.423   4.502
72471SOL    HW219311   3.351   0.510   4.547
72472SOL     OW19312   5.599   3.504   7.166
72472SOL    HW119313   5.565   3.436   7.108
72472SOL    HW219314   5.677   3.537   7.121
72473SOL     OW19315   3.164   3.137  13.959
72473SOL    HW119316   3.092   3.100  13.909
72473SOL    HW219317   3.153   3.232  13.951
72474SOL     OW19318   5.609  10.591   6.822
72474SOL    HW119319   5.528  10.625   6.784
72474SOL    HW219320   5.675  10.657   6.801
72475SOL     OW19321   1.410   7.823  14.648
72475SOL    HW119322   1.448   7.794  14.565
72475SOL    HW219323   1.429   7.917  14.652
72476SOL     OW19324   9.338  10.265  10.049
72476SOL    HW119325   9.380  10.346  10.077
72476SOL    HW219326   9.411  10.203  10.041
72477SOL     OW19327   8.073  14.162   1.184
72477SOL    HW119328   7.985  14.198   1.173
72477SOL    HW219329   8.131  14.228   1.148
72478SOL     OW19330  10.298   8.821   9.856
72478SOL    HW119331  10.225   8.759   9.856
72478SOL    HW219332  10.278   8.880   9.782
72479SOL     OW19333   4.759   4.156   6.008
72479SOL    HW119334   4.804   4.075   6.031
72479SOL    HW219335   4.793   4.220   6.071
72480SOL     OW19336   7.711   4.604   2.327
72480SOL    HW119337   7.744   4.518   2.353
72480SOL    HW219338   7.670   4.589   2.241
72481SOL     OW19339  12.464   3.150  14.764
72481SOL    HW119340  12.507   3.139  14.679
72481SOL    HW219341  12.528   3.119  14.828
72482SOL     OW19342   0.855   8.581  10.544
72482SOL    HW119343   0.812   8.496  10.534
72482SOL    HW219344   0.833   8.629  10.464
72483SOL     OW19345   8.690  12.420  11.185
72483SOL    HW119346   8.626  12.457  11.124
72483SOL    HW219347   8.652  12.435  11.272
72484SOL     OW19348   6.810   6.196   5.023
72484SOL    HW119349   6.897   6.192   5.062
72484SOL    HW219350   6.809   6.278   4.973
72485SOL     OW19351  13.577  14.324  10.628
72485SOL    HW119352  13.652  14.355  10.576
72485SOL    HW219353  13.502  14.371  10.591
72486SOL     OW19354   8.271  12.017   2.571
72486SOL    HW119355   8.274  11.952   2.641
72486SOL    HW219356   8.178  12.026   2.551
72487SOL     OW19357  14.795  11.831   8.419
72487SOL    HW119358  14.867  11.771   8.403
72487SOL    HW219359  14.799  11.894   8.347
72488SOL     OW19360  10.317   7.017   2.261
72488SOL    HW119361  10.379   7.064   2.206
72488SOL    HW219362  10.370   6.978   2.330
72489SOL     OW19363  11.778   0.327   4.540
72489SOL    HW119364  11.822   0.296   4.619
72489SOL    HW219365  11.844   0.319   4.471
72490SOL     OW19366   1.341   6.582   9.078
72490SOL    HW119367   1.283   6.615   9.147
72490SOL    HW219368   1.352   6.656   9.018
72491SOL     OW19369   6.862   3.878  13.191
72491SOL    HW119370   6.768   3.864  13.180
72491SOL    HW219371   6.903   3.804  13.147
72492SOL     OW19372  11.155  12.610   5.118
72492SOL    HW119373  11.153  12.544   5.188
72492SOL    HW219374  11.229  12.667   5.140
72493SOL     OW19375   7.118   9.807  11.115
72493SOL    HW119376   7.145   9.868  11.183
72493SOL    HW219377   7.022   9.813  11.113
72494SOL     OW19378   5.664   6.040   9.469
72494SOL    HW119379   5.706   6.113   9.423
72494SOL    HW219380   5.701   5.961   9.429
72495SOL     OW19381  10.211  14.223   2.689
72495SOL    HW119382  10.286  14.171   2.660
72495SOL    HW219383  10.249  14.306   2.718
72496SOL     OW19384  13.766   6.896   7.439
72496SOL    HW119385  13.852   6.922   7.405
72496SOL    HW219386  13.704   6.926   7.372
72497SOL     OW19387  12.633   9.831  12.641
72497SOL    HW119388  12.714   9.872  12.671
72497SOL    HW219389  12.635   9.743  12.679
72498SOL     OW19390  10.922  12.396  12.735
72498SOL    HW119391  10.899  12.465  12.797
72498SOL    HW219392  10.946  12.443  12.655
72499SOL     OW19393  11.585   4.442  13.906
72499SOL    HW119394  11.591   4.538  13.899
72499SOL    HW219395  11.556   4.427  13.996
72500SOL     OW19396  10.488  11.695  11.718
72500SOL    HW119397  10.434  11.738  11.784
72500SOL    HW219398  10.545  11.764  11.685
72501SOL     OW19399   5.221   4.371   8.168
72501SOL    HW119400   5.296   4.427   8.150
72501SOL    HW219401   5.200   4.388   8.259
72502SOL     OW19402  14.599   9.329   5.185
72502SOL    HW119403  14.623   9.333   5.278
72502SOL    HW219404  14.682   9.342   5.138
72503SOL     OW19405   6.274   3.792  14.825
72503SOL    HW119406   6.279   3.808   0.051
72503SOL    HW219407   6.349   3.839  14.788
72504SOL     OW19408   6.533   9.230   8.165
72504SOL    HW119409   6.565   9.177   8.092
72504SOL    HW219410   6.449   9.191   8.189
72505SOL     OW19411   1.823   0.640   7.455
72505SOL    HW119412   1.729   0.636   7.468
72505SOL    HW219413   1.858   0.671   7.539
72506SOL     OW19414  14.209   7.182   5.789
72506SOL    HW119415  14.133   7.124   5.785
72506SOL    HW219416  14.177   7.266   5.758
72507SOL     OW19417   9.011  13.541   4.013
72507SOL    HW119418   8.946  13.545   3.943
72507SOL    HW219419   8.966  13.574   4.090
72508SOL     OW19420   8.211   7.268  14.315
72508SOL    HW119421   8.153   7.278  14.390
72508SOL    HW219422   8.165   7.311  14.243
72509SOL     OW19423  14.503   0.385  12.396
72509SOL    HW119424  14.458   0.374  12.480
72509SOL    HW219425  14.435   0.370  12.330
72510SOL     OW19426  12.943   6.734   1.276
72510SOL    HW119427  12.912   6.819   1.309
72510SOL    HW219428  13.038   6.737   1.289
72511SOL     OW19429  11.251   9.261  10.950
72511SOL    HW119430  11.339   9.278  10.982
72511SOL    HW219431  11.208   9.213  11.021
72512SOL     OW19432  11.267   4.327   2.319
72512SOL    HW119433  11.360   4.322   2.297
72512SOL    HW219434  11.221   4.291   2.244
72513SOL     OW19435  13.781   1.308   1.093
72513SOL    HW119436  13.817   1.286   1.007
72513SOL    HW219437  13.697   1.349   1.074
72514SOL     OW19438  12.928  11.054   6.174
72514SOL    HW119439  12.982  10.980   6.202
72514SOL    HW219440  12.864  11.016   6.115
72515SOL     OW19441   0.170   5.115   0.607
72515SOL    HW119442   0.085   5.078   0.631
72515SOL    HW219443   0.225   5.100   0.684
72516SOL     OW19444   3.273   0.126   0.224
72516SOL    HW119445   3.202   0.063   0.214
72516SOL    HW219446   3.286   0.134   0.319
72517SOL     OW19447  14.853   2.155   9.669
72517SOL    HW119448   0.060   2.150   9.610
72517SOL    HW219449  14.795   2.085   9.639
72518SOL     OW19450  10.039   1.807  11.182
72518SOL    HW119451  10.109   1.772  11.237
72518SOL    HW219452   9.966   1.821  11.243
72519SOL     OW19453  12.381  12.819   5.353
72519SOL    HW119454  12.439  12.856   5.287
72519SOL    HW219455  12.414  12.852   5.436
72520SOL     OW19456  14.401   1.698   3.883
72520SOL    HW119457  14.318   1.717   3.838
72520SOL    HW219458  14.415   1.604   3.867
72521SOL     OW19459   0.017  10.107   2.056
72521SOL    HW119460   0.106  10.072   2.063
72521SOL    HW219461   0.018  10.186   2.110
72522SOL     OW19462   3.432   0.222   6.633
72522SOL    HW119463   3.479   0.211   6.716
72522SOL    HW219464   3.340   0.210   6.655
72523SOL     OW19465  14.862   9.825   8.349
72523SOL    HW119466   0.025   9.916   8.350
72523SOL    HW219467  14.858   9.800   8.441
72524SOL     OW19468  11.235  11.838  11.908
72524SOL    HW119469  11.219  11.931  11.893
72524SOL    HW219470  11.311  11.817  11.855
72525SOL     OW19471   8.278  13.250   4.057
72525SOL    HW119472   8.250  13.243   3.965
72525SOL    HW219473   8.253  13.166   4.096
72526SOL     OW19474  10.429   3.951  12.392
72526SOL    HW119475  10.371   3.981  12.462
72526SOL    HW219476  10.406   4.004  12.316
72527SOL     OW19477   1.999  13.996   8.356
72527SOL    HW119478   2.030  13.927   8.415
72527SOL    HW219479   2.046  13.980   8.274
72528SOL     OW19480   6.044  11.405   3.792
72528SOL    HW119481   6.057  11.314   3.818
72528SOL    HW219482   6.130  11.445   3.804
72529SOL     OW19483   3.401   2.794   3.966
72529SOL    HW119484   3.316   2.768   4.000
72529SOL    HW219485   3.463   2.767   4.034
72530SOL     OW19486  13.861  12.250   5.810
72530SOL    HW119487  13.882  12.321   5.871
72530SOL    HW219488  13.848  12.294   5.726
72531SOL     OW19489  13.271   4.819   2.776
72531SOL    HW119490  13.341   4.759   2.749
72531SOL    HW219491  13.283   4.830   2.870
72532SOL     OW19492   2.898   4.728   1.588
72532SOL    HW119493   2.930   4.762   1.672
72532SOL    HW219494   2.970   4.743   1.527
72533SOL     OW19495   2.208   2.081  10.472
72533SOL    HW119496   2.133   2.035  10.510
72533SOL    HW219497   2.273   2.013  10.456
72534SOL     OW19498   4.685   8.947   0.365
72534SOL    HW119499   4.714   8.876   0.422
72534SOL    HW219500   4.720   8.925   0.279
72535SOL     OW19501   9.790   8.886  12.643
72535SOL    HW119502   9.779   8.864  12.550
72535SOL    HW219503   9.859   8.952  12.644
72536SOL     OW19504  13.229  14.539   8.220
72536SOL    HW119505  13.321  14.556   8.241
72536SOL    HW219506  13.209  14.600   8.149
72537SOL     OW19507   6.280   8.217   7.701
72537SOL    HW119508   6.316   8.186   7.784
72537SOL    HW219509   6.202   8.163   7.687
72538SOL     OW19510  11.819  14.339   3.839
72538SOL    HW119511  11.827  14.434   3.841
72538SOL    HW219512  11.881  14.309   3.906
72539SOL     OW19513   4.006  14.678  11.940
72539SOL    HW119514   4.035  14.660  11.851
72539SOL    HW219515   4.067  14.744  11.972
72540SOL     OW19516   0.968   8.338   9.395
72540SOL    HW119517   1.038   8.402   9.379
72540SOL    HW219518   0.969   8.282   9.317
72541SOL     OW19519   1.211   8.189   1.776
72541SOL    HW119520   1.286   8.220   1.726
72541SOL    HW219521   1.241   8.108   1.817
72542SOL     OW19522   6.265   8.177   6.286
72542SOL    HW119523   6.307   8.216   6.209
72542SOL    HW219524   6.328   8.113   6.318
72543SOL     OW19525   9.967  13.210   2.787
72543SOL    HW119526  10.020  13.130   2.791
72543SOL    HW219527   9.924  13.216   2.873
72544SOL     OW19528   2.107  10.014   7.322
72544SOL    HW119529   2.196  10.048   7.332
72544SOL    HW219530   2.094  10.010   7.227
72545SOL     OW19531   2.494   6.217  14.294
72545SOL    HW119532   2.409   6.175  14.281
72545SOL    HW219533   2.503   6.278  14.221
72546SOL     OW19534   5.059  11.089   6.367
72546SOL    HW119535   5.060  11.094   6.271
72546SOL    HW219536   5.070  10.996   6.387
72547SOL     OW19537   5.882  13.852  10.351
72547SOL    HW119538   5.929  13.934  10.368
72547SOL    HW219539   5.907  13.829  10.261
72548SOL     OW19540   9.343  14.340   2.078
72548SOL    HW119541   9.398  14.417   2.094
72548SOL    HW219542   9.371  14.276   2.144
72549SOL     OW19543  11.839   1.233  12.278
72549SOL    HW119544  11.901   1.163  12.302
72549SOL    HW219545  11.775   1.233  12.350
72550SOL     OW19546   4.482   3.837   0.295
72550SOL    HW119547   4.405   3.885   0.324
72550SOL    HW219548   4.497   3.772   0.364
72551SOL     OW19549  10.792   3.270   1.567
72551SOL    HW119550  10.801   3.364   1.581
72551SOL    HW219551  10.814   3.257   1.475
72552SOL     OW19552   6.580  11.385   1.900
72552SOL    HW119553   6.644  11.407   1.831
72552SOL    HW219554   6.503  11.355   1.852
72553SOL     OW19555   6.194   0.048  11.728
72553SOL    HW119556   6.242   0.111  11.674
72553SOL    HW219557   6.247   0.038  11.807
72554SOL     OW19558   9.797   3.337   9.596
72554SOL    HW119559   9.886   3.373   9.605
72554SOL    HW219560   9.740   3.409   9.623
72555SOL     OW19561  14.510  12.159  11.302
72555SOL    HW119562  14.606  12.167  11.298
72555SOL    HW219563  14.486  12.126  11.215
72556SOL     OW19564   5.683  11.413   6.156
72556SOL    HW119565   5.649  11.324   6.150
72556SOL    HW219566   5.630  11.463   6.094
72557SOL     OW19567  10.581   8.401  13.547
72557SOL    HW119568  10.656   8.460  13.557
72557SOL    HW219569  10.505   8.458  13.555
72558SOL     OW19570  13.459   6.250  14.734
72558SOL    HW119571  13.482   6.182  14.672
72558SOL    HW219572  13.466   6.332  14.684
72559SOL     OW19573   7.336  12.220  14.252
72559SOL    HW119574   7.378  12.245  14.170
72559SOL    HW219575   7.266  12.285  14.264
72560SOL     OW19576   1.630   2.241   4.239
72560SOL    HW119577   1.576   2.250   4.160
72560SOL    HW219578   1.709   2.291   4.220
72561SOL     OW19579   8.104  14.182  12.188
72561SOL    HW119580   8.145  14.250  12.241
72561SOL    HW219581   8.015  14.213  12.175
72562SOL     OW19582  12.555   8.357  11.347
72562SOL    HW119583  12.592   8.403  11.272
72562SOL    HW219584  12.628   8.307  11.383
72563SOL     OW19585   5.588   2.558  13.759
72563SOL    HW119586   5.680   2.539  13.741
72563SOL    HW219587   5.578   2.546  13.853
72564SOL     OW19588  13.869  10.052   4.042
72564SOL    HW119589  13.847   9.959   4.052
72564SOL    HW219590  13.846  10.072   3.951
72565SOL     OW19591   0.672  12.790   2.056
72565SOL    HW119592   0.727  12.729   2.106
72565SOL    HW219593   0.722  12.871   2.054
72566SOL     OW19594   5.943   4.420   2.181
72566SOL    HW119595   5.930   4.339   2.229
72566SOL    HW219596   6.032   4.448   2.205
72567SOL     OW19597   3.330   3.015  10.556
72567SOL    HW119598   3.359   3.106  10.548
72567SOL    HW219599   3.242   3.021  10.594
72568SOL     OW19600  12.557   5.906   1.863
72568SOL    HW119601  12.517   5.819   1.866
72568SOL    HW219602  12.648   5.891   1.889
72569SOL     OW19603  13.567   6.745   0.329
72569SOL    HW119604  13.547   6.747   0.422
72569SOL    HW219605  13.484   6.766   0.286
72570SOL     OW19606  13.172   5.554   3.476
72570SOL    HW119607  13.125   5.475   3.505
72570SOL    HW219608  13.117   5.590   3.407
72571SOL     OW19609   1.353   8.861  11.491
72571SOL    HW119610   1.443   8.838  11.513
72571SOL    HW219611   1.362   8.937  11.433
72572SOL     OW19612  11.287  10.027  10.920
72572SOL    HW119613  11.331  10.086  10.982
72572SOL    HW219614  11.286   9.942  10.964
72573SOL     OW19615   2.921   3.326  12.731
72573SOL    HW119616   2.841   3.367  12.763
72573SOL    HW219617   2.937   3.368  12.646
72574SOL     OW19618  11.593   3.568   0.804
72574SOL    HW119619  11.517   3.550   0.748
72574SOL    HW219620  11.586   3.661   0.826
72575SOL     OW19621  12.620   3.464  11.259
72575SOL    HW119622  12.609   3.411  11.181
72575SOL    HW219623  12.540   3.450  11.310
72576SOL     OW19624   1.553   8.183   6.818
72576SOL    HW119625   1.510   8.101   6.796
72576SOL    HW219626   1.599   8.166   6.900
72577SOL     OW19627   9.270   7.417   6.849
72577SOL    HW119628   9.321   7.356   6.796
72577SOL    HW219629   9.327   7.440   6.923
72578SOL     OW19630  12.099   1.464   0.404
72578SOL    HW119631  12.026   1.518   0.372
72578SOL    HW219632  12.161   1.463   0.331
72579SOL     OW19633   9.261   4.299  13.760
72579SOL    HW119634   9.207   4.356  13.814
72579SOL    HW219635   9.337   4.278  13.815
72580SOL     OW19636   1.605   7.034  10.314
72580SOL    HW119637   1.691   6.998  10.336
72580SOL    HW219638   1.622   7.091  10.239
72581SOL     OW19639   1.074   3.649   6.566
72581SOL    HW119640   1.128   3.715   6.522
72581SOL    HW219641   0.991   3.649   6.518
72582SOL     OW19642   1.434  11.942   2.889
72582SOL    HW119643   1.367  11.929   2.823
72582SOL    HW219644   1.514  11.961   2.840
72583SOL     OW19645   1.426   6.327   2.560
72583SOL    HW119646   1.366   6.267   2.604
72583SOL    HW219647   1.487   6.355   2.628
72584SOL     OW19648  14.662   2.096   7.641
72584SOL    HW119649  14.750   2.126   7.621
72584SOL    HW219650  14.604   2.163   7.604
72585SOL     OW19651   0.976  10.274   2.303
72585SOL    HW119652   0.959  10.246   2.213
72585SOL    HW219653   0.895  10.318   2.331
72586SOL     OW19654   5.777   5.138   1.165
72586SOL    HW119655   5.824   5.080   1.225
72586SOL    HW219656   5.735   5.203   1.222
72587SOL     OW19657  12.801   6.738   1.779
72587SOL    HW119658  12.787   6.666   1.717
72587SOL    HW219659  12.740   6.806   1.752
72588SOL     OW19660  11.296  12.377  11.169
72588SOL    HW119661  11.221  12.318  11.161
72588SOL    HW219662  11.358  12.331  11.224
72589SOL     OW19663   8.306   8.291   3.332
72589SOL    HW119664   8.217   8.282   3.298
72589SOL    HW219665   8.340   8.202   3.335
72590SOL     OW19666  14.577   8.366  13.619
72590SOL    HW119667  14.625   8.359  13.537
72590SOL    HW219668  14.493   8.322  13.603
72591SOL     OW19669   1.408   2.108   0.091
72591SOL    HW119670   1.503   2.095   0.093
72591SOL    HW219671   1.397   2.203   0.101
72592SOL     OW19672  12.852   2.417   4.169
72592SOL    HW119673  12.914   2.469   4.118
72592SOL    HW219674  12.897   2.399   4.251
72593SOL     OW19675   3.301   4.081   7.226
72593SOL    HW119676   3.217   4.111   7.260
72593SOL    HW219677   3.364   4.149   7.252
72594SOL     OW19678   3.251   9.143   0.206
72594SOL    HW119679   3.190   9.071   0.220
72594SOL    HW219680   3.287   9.127   0.118
72595SOL     OW19681   7.208  12.398   6.905
72595SOL    HW119682   7.121  12.433   6.926
72595SOL    HW219683   7.266  12.474   6.908
72596SOL     OW19684   7.788   2.677   1.485
72596SOL    HW119685   7.710   2.637   1.447
72596SOL    HW219686   7.831   2.720   1.411
72597SOL     OW19687  12.713   0.178  10.152
72597SOL    HW119688  12.731   0.257  10.202
72597SOL    HW219689  12.728   0.106  10.214
72598SOL     OW19690  12.106   3.349  11.034
72598SOL    HW119691  12.137   3.436  11.008
72598SOL    HW219692  12.035   3.330  10.973
72599SOL     OW19693  10.307  11.373   0.979
72599SOL    HW119694  10.341  11.398   0.893
72599SOL    HW219695  10.386  11.352   1.030
72600SOL     OW19696  11.167   4.595   4.639
72600SOL    HW119697  11.182   4.683   4.604
72600SOL    HW219698  11.072   4.588   4.642
72601SOL     OW19699  11.926  11.516  12.787
72601SOL    HW119700  11.844  11.465  12.794
72601SOL    HW219701  11.904  11.601  12.824
72602SOL     OW19702   0.516   9.284   5.371
72602SOL    HW119703   0.561   9.349   5.424
72602SOL    HW219704   0.496   9.329   5.289
72603SOL     OW19705   7.161  11.449   2.352
72603SOL    HW119706   7.138  11.444   2.259
72603SOL    HW219707   7.246  11.493   2.353
72604SOL     OW19708   9.394  11.019   0.613
72604SOL    HW119709   9.303  11.031   0.641
72604SOL    HW219710   9.388  10.977   0.527
72605SOL     OW19711  12.817   5.301   8.307
72605SOL    HW119712  12.867   5.285   8.387
72605SOL    HW219713  12.870   5.365   8.258
72606SOL     OW19714   1.661   2.895   6.789
72606SOL    HW119715   1.692   2.822   6.735
72606SOL    HW219716   1.566   2.893   6.778
72607SOL     OW19717  11.009   8.107   0.549
72607SOL    HW119718  11.077   8.117   0.616
72607SOL    HW219719  10.927   8.115   0.597
72608SOL     OW19720   7.677  13.044  10.251
72608SOL    HW119721   7.762  13.027  10.290
72608SOL    HW219722   7.670  13.140  10.250
72609SOL     OW19723   1.828  10.711   7.957
72609SOL    HW119724   1.916  10.745   7.972
72609SOL    HW219725   1.775  10.789   7.937
72610SOL     OW19726  11.292   7.416  12.692
72610SOL    HW119727  11.358   7.461  12.745
72610SOL    HW219728  11.268   7.339  12.744
72611SOL     OW19729   4.743  11.769   3.664
72611SOL    HW119730   4.664  11.778   3.611
72611SOL    HW219731   4.766  11.859   3.687
72612SOL     OW19732   7.409   2.149   3.811
72612SOL    HW119733   7.383   2.157   3.719
72612SOL    HW219734   7.391   2.058   3.833
72613SOL     OW19735   9.815   7.237   0.463
72613SOL    HW119736   9.786   7.268   0.548
72613SOL    HW219737   9.898   7.283   0.448
72614SOL     OW19738  13.892   7.978   4.247
72614SOL    HW119739  13.831   7.956   4.317
72614SOL    HW219740  13.978   7.955   4.282
72615SOL     OW19741   5.653   1.592  13.983
72615SOL    HW119742   5.652   1.523  14.050
72615SOL    HW219743   5.577   1.574  13.929
72616SOL     OW19744  12.678  11.720   8.850
72616SOL    HW119745  12.675  11.670   8.768
72616SOL    HW219746  12.703  11.808   8.823
72617SOL     OW19747   0.078  11.361   7.387
72617SOL    HW119748   0.093  11.266   7.383
72617SOL    HW219749  14.861  11.374   7.346
72618SOL     OW19750   4.346   5.588  14.237
72618SOL    HW119751   4.343   5.551  14.326
72618SOL    HW219752   4.383   5.676  14.249
72619SOL     OW19753   2.962   7.051  14.711
72619SOL    HW119754   3.037   7.094  14.753
72619SOL    HW219755   2.998   6.969  14.677
72620SOL     OW19756  10.912   0.840  11.735
72620SOL    HW119757  10.844   0.906  11.748
72620SOL    HW219758  10.865   0.763  11.701
72621SOL     OW19759   6.427  12.204  13.048
72621SOL    HW119760   6.384  12.277  13.093
72621SOL    HW219761   6.373  12.189  12.970
72622SOL     OW19762   4.836   8.661  10.489
72622SOL    HW119763   4.756   8.696  10.450
72622SOL    HW219764   4.907   8.713  10.450
72623SOL     OW19765  14.756  11.104   6.594
72623SOL    HW119766  14.846  11.112   6.625
72623SOL    HW219767  14.738  11.010   6.597
72624SOL     OW19768   0.698   9.219  14.571
72624SOL    HW119769   0.702   9.156  14.642
72624SOL    HW219770   0.790   9.238  14.551
72625SOL     OW19771   4.711  11.433   7.269
72625SOL    HW119772   4.746  11.517   7.298
72625SOL    HW219773   4.624  11.453   7.234
72626SOL     OW19774   6.761   3.558   1.085
72626SOL    HW119775   6.847   3.597   1.068
72626SOL    HW219776   6.708   3.583   1.009
72627SOL     OW19777   5.775   0.301   6.089
72627SOL    HW119778   5.689   0.290   6.046
72627SOL    HW219779   5.793   0.216   6.128
72628SOL     OW19780   9.133   2.421   5.571
72628SOL    HW119781   9.117   2.383   5.658
72628SOL    HW219782   9.048   2.417   5.528
72629SOL     OW19783  11.248  13.294   3.182
72629SOL    HW119784  11.315  13.250   3.129
72629SOL    HW219785  11.282  13.290   3.271
72630SOL     OW19786   8.489   0.119   0.911
72630SOL    HW119787   8.528   0.145   0.827
72630SOL    HW219788   8.409   0.171   0.917
72631SOL     OW19789   5.949   3.280  10.763
72631SOL    HW119790   5.859   3.251  10.746
72631SOL    HW219791   5.996   3.201  10.786
72632SOL     OW19792   4.204   2.481   0.911
72632SOL    HW119793   4.143   2.551   0.888
72632SOL    HW219794   4.266   2.522   0.972
72633SOL     OW19795   1.739  13.026  13.120
72633SOL    HW119796   1.652  13.061  13.101
72633SOL    HW219797   1.736  12.935  13.090
72634SOL     OW19798   9.007  10.861   8.575
72634SOL    HW119799   9.043  10.780   8.613
72634SOL    HW219800   9.004  10.843   8.481
72635SOL     OW19801  12.575   2.536   6.752
72635SOL    HW119802  12.481   2.517   6.757
72635SOL    HW219803  12.580   2.627   6.722
72636SOL     OW19804   9.047  12.801   2.781
72636SOL    HW119805   8.985  12.824   2.712
72636SOL    HW219806   9.002  12.734   2.833
72637SOL     OW19807   8.989   9.387  11.237
72637SOL    HW119808   8.964   9.315  11.178
72637SOL    HW219809   8.943   9.367  11.319
72638SOL     OW19810  12.869  14.372  13.813
72638SOL    HW119811  12.862  14.457  13.858
72638SOL    HW219812  12.960  14.370  13.782
72639SOL     OW19813   7.698  12.250   4.577
72639SOL    HW119814   7.663  12.333   4.547
72639SOL    HW219815   7.792  12.267   4.589
72640SOL     OW19816  10.340   8.153   4.699
72640SOL    HW119817  10.434   8.147   4.681
72640SOL    HW219818  10.309   8.063   4.694
72641SOL     OW19819   1.020   5.399  11.616
72641SOL    HW119820   1.057   5.372  11.532
72641SOL    HW219821   0.952   5.462  11.593
72642SOL     OW19822  11.617  13.504  13.455
72642SOL    HW119823  11.567  13.573  13.412
72642SOL    HW219824  11.673  13.468  13.386
72643SOL     OW19825   5.523   2.296   1.278
72643SOL    HW119826   5.568   2.373   1.245
72643SOL    HW219827   5.451   2.331   1.330
72644SOL     OW19828  10.464  10.009   9.857
72644SOL    HW119829  10.427   9.932   9.813
72644SOL    HW219830  10.502   9.975   9.937
72645SOL     OW19831   4.253   5.026  13.085
72645SOL    HW119832   4.300   5.107  13.103
72645SOL    HW219833   4.252   5.019  12.990
72646SOL     OW19834  12.460  11.463   3.742
72646SOL    HW119835  12.426  11.513   3.667
72646SOL    HW219836  12.424  11.508   3.819
72647SOL     OW19837  10.926   0.194   4.251
72647SOL    HW119838  10.952   0.108   4.217
72647SOL    HW219839  10.850   0.218   4.198
72648SOL     OW19840  12.831   8.478   4.109
72648SOL    HW119841  12.765   8.436   4.164
72648SOL    HW219842  12.780   8.528   4.045
72649SOL     OW19843   2.284   4.290   3.840
72649SOL    HW119844   2.314   4.212   3.793
72649SOL    HW219845   2.194   4.269   3.866
72650SOL     OW19846   9.093   1.292  14.730
72650SOL    HW119847   9.052   1.375  14.707
72650SOL    HW219848   9.186   1.305  14.710
72651SOL     OW19849  12.452   5.072   1.209
72651SOL    HW119850  12.529   5.056   1.154
72651SOL    HW219851  12.388   5.007   1.179
72652SOL     OW19852  13.565   9.573   7.369
72652SOL    HW119853  13.514   9.498   7.399
72652SOL    HW219854  13.536   9.645   7.424
72653SOL     OW19855  11.949   1.865  10.204
72653SOL    HW119856  11.953   1.803  10.131
72653SOL    HW219857  11.972   1.813  10.281
72654SOL     OW19858  14.152   2.678  14.135
72654SOL    HW119859  14.110   2.600  14.172
72654SOL    HW219860  14.084   2.720  14.083
72655SOL     OW19861   0.432  14.267  14.336
72655SOL    HW119862   0.346  14.272  14.379
72655SOL    HW219863   0.460  14.176  14.348
72656SOL     OW19864  14.642   4.452   1.089
72656SOL    HW119865  14.688   4.422   1.168
72656SOL    HW219866  14.677   4.397   1.019
72657SOL     OW19867  13.531  12.746   0.858
72657SOL    HW119868  13.548  12.723   0.949
72657SOL    HW219869  13.612  12.723   0.812
72658SOL     OW19870   7.566   0.325   7.590
72658SOL    HW119871   7.654   0.309   7.623
72658SOL    HW219872   7.564   0.419   7.573
72659SOL     OW19873  13.196   1.176   6.256
72659SOL    HW119874  13.247   1.248   6.220
72659SOL    HW219875  13.140   1.147   6.184
72660SOL     OW19876   2.473  10.817  14.753
72660SOL    HW119877   2.556  10.822  14.706
72660SOL    HW219878   2.419  10.757  14.700
72661SOL     OW19879   7.598   6.118   3.983
72661SOL    HW119880   7.547   6.145   3.906
72661SOL    HW219881   7.663   6.186   3.994
72662SOL     OW19882   2.835   4.258  13.770
72662SOL    HW119883   2.835   4.320  13.843
72662SOL    HW219884   2.913   4.282  13.719
72663SOL     OW19885   9.565   3.078   1.399
72663SOL    HW119886   9.525   3.165   1.406
72663SOL    HW219887   9.599   3.074   1.310
72664SOL     OW19888   6.483   5.608   2.352
72664SOL    HW119889   6.433   5.555   2.290
72664SOL    HW219890   6.546   5.547   2.390
72665SOL     OW19891  12.025  14.415   4.643
72665SOL    HW119892  11.941  14.459   4.655
72665SOL    HW219893  12.023  14.342   4.704
72666SOL     OW19894  10.689  14.206   0.985
72666SOL    HW119895  10.772  14.242   0.954
72666SOL    HW219896  10.705  14.181   1.076
72667SOL     OW19897   9.532  13.420   0.667
72667SOL    HW119898   9.564  13.364   0.597
72667SOL    HW219899   9.610  13.462   0.703
72668SOL     OW19900   7.140   5.598  14.019
72668SOL    HW119901   7.067   5.621  14.077
72668SOL    HW219902   7.203   5.554  14.076
72669SOL     OW19903  12.248   8.478   1.591
72669SOL    HW119904  12.185   8.520   1.649
72669SOL    HW219905  12.305   8.550   1.561
72670SOL     OW19906   6.649  12.269   7.679
72670SOL    HW119907   6.709  12.242   7.748
72670SOL    HW219908   6.587  12.328   7.722
72671SOL     OW19909   2.068  10.822   8.043
72671SOL    HW119910   2.037  10.903   8.084
72671SOL    HW219911   2.163  10.831   8.041
72672SOL     OW19912   7.804  14.061   8.743
72672SOL    HW119913   7.892  14.036   8.772
72672SOL    HW219914   7.818  14.141   8.692
72673SOL     OW19915  14.010   1.388   6.867
72673SOL    HW119916  13.924   1.367   6.831
72673SOL    HW219917  14.036   1.468   6.822
72674SOL     OW19918  10.137   4.073   3.136
72674SOL    HW119919  10.081   4.029   3.200
72674SOL    HW219920  10.226   4.055   3.167
72675SOL     OW19921   1.562   0.463   1.728
72675SOL    HW119922   1.627   0.511   1.779
72675SOL    HW219923   1.477   0.494   1.760
72676SOL     OW19924   9.436  12.661   0.813
72676SOL    HW119925   9.456  12.571   0.838
72676SOL    HW219926   9.349  12.678   0.850
72677SOL     OW19927   9.661  12.286   4.696
72677SOL    HW119928   9.733  12.303   4.757
72677SOL    HW219929   9.651  12.191   4.698
72678SOL     OW19930   0.865   2.971   9.187
72678SOL    HW119931   0.850   2.925   9.105
72678SOL    HW219932   0.792   2.944   9.243
72679SOL     OW19933   9.207  11.625   1.017
72679SOL    HW119934   9.294  11.650   0.986
72679SOL    HW219935   9.213  11.531   1.030
72680SOL     OW19936   5.803  12.707  14.171
72680SOL    HW119937   5.873  12.644  14.190
72680SOL    HW219938   5.782  12.691  14.079
72681SOL     OW19939   5.004   2.427  11.989
72681SOL    HW119940   5.060   2.473  12.052
72681SOL    HW219941   5.023   2.335  12.004
72682SOL     OW19942   6.393  12.813  13.669
72682SOL    HW119943   6.474  12.837  13.623
72682SOL    HW219944   6.327  12.873  13.634
72683SOL     OW19945   2.426  11.068   7.547
72683SOL    HW119946   2.411  11.105   7.633
72683SOL    HW219947   2.366  10.993   7.542
72684SOL     OW19948   7.100   6.053  10.320
72684SOL    HW119949   7.032   6.034  10.255
72684SOL    HW219950   7.171   6.092  10.270
72685SOL     OW19951  13.888   6.519  13.064
72685SOL    HW119952  13.963   6.460  13.073
72685SOL    HW219953  13.844   6.489  12.984
72686SOL     OW19954   2.118   1.084   5.609
72686SOL    HW119955   2.165   1.010   5.648
72686SOL    HW219956   2.140   1.158   5.665
72687SOL     OW19957   2.265   2.121   3.645
72687SOL    HW119958   2.268   2.158   3.557
72687SOL    HW219959   2.326   2.174   3.696
72688SOL     OW19960  11.438   2.291  10.094
72688SOL    HW119961  11.498   2.316  10.024
72688SOL    HW219962  11.377   2.365  10.100
72689SOL     OW19963  11.036  10.938   7.677
72689SOL    HW119964  10.978  10.863   7.680
72689SOL    HW219965  11.094  10.922   7.602
72690SOL     OW19966  11.983   5.293   1.916
72690SOL    HW119967  12.004   5.267   1.826
72690SOL    HW219968  11.891   5.319   1.913
72691SOL     OW19969  10.605   0.714   2.096
72691SOL    HW119970  10.595   0.751   2.008
72691SOL    HW219971  10.644   0.627   2.081
72692SOL     OW19972   6.214  14.084   4.767
72692SOL    HW119973   6.167  14.084   4.850
72692SOL    HW219974   6.258  14.000   4.763
72693SOL     OW19975  12.081  13.122   7.749
72693SOL    HW119976  12.041  13.209   7.738
72693SOL    HW219977  12.040  13.069   7.681
72694SOL     OW19978   8.931   6.152  10.785
72694SOL    HW119979   8.969   6.065  10.772
72694SOL    HW219980   9.007   6.211  10.785
72695SOL     OW19981   7.203   6.618   0.107
72695SOL    HW119982   7.270   6.680   0.136
72695SOL    HW219983   7.121   6.655   0.140
72696SOL     OW19984  12.976   0.781  10.948
72696SOL    HW119985  13.002   0.733  10.870
72696SOL    HW219986  12.909   0.842  10.918
72697SOL     OW19987   0.863   3.039   2.576
72697SOL    HW119988   0.809   2.962   2.558
72697SOL    HW219989   0.950   3.004   2.593
72698SOL     OW19990   1.657  10.510   2.768
72698SOL    HW119991   1.670  10.550   2.682
72698SOL    HW219992   1.662  10.584   2.829
72699SOL     OW19993   4.533   3.509  13.257
72699SOL    HW119994   4.489   3.584  13.219
72699SOL    HW219995   4.623   3.515  13.225
72700SOL     OW19996   6.934  13.178  14.402
72700SOL    HW119997   6.894  13.255  14.361
72700SOL    HW219998   7.025  13.179  14.371
72701SOL     OW19999  10.528  11.881   5.372
72701SOL    HW120000  10.594  11.843   5.313
72701SOL    HW220001  10.467  11.926   5.313
72702SOL     OW20002   1.551  12.275   9.724
72702SOL    HW120003   1.603  12.205   9.685
72702SOL    HW220004   1.463  12.238   9.731
72703SOL     OW20005   1.338  11.304   5.601
72703SOL    HW120006   1.269  11.364   5.630
72703SOL    HW220007   1.375  11.268   5.681
72704SOL     OW20008   7.897   2.296   6.412
72704SOL    HW120009   7.813   2.252   6.428
72704SOL    HW220010   7.942   2.240   6.349
72705SOL     OW20011   0.089   0.531   3.898
72705SOL    HW120012   0.131   0.445   3.895
72705SOL    HW220013   0.152   0.587   3.943
72706SOL     OW20014   1.108  12.938   4.048
72706SOL    HW120015   1.087  13.024   4.013
72706SOL    HW220016   1.203  12.939   4.059
72707SOL     OW20017  13.756   4.576   4.156
72707SOL    HW120018  13.727   4.555   4.244
72707SOL    HW220019  13.846   4.607   4.167
72708SOL     OW20020  10.079   6.140   0.063
72708SOL    HW120021  10.070   6.139  14.836
72708SOL    HW220022   9.994   6.170   0.095
72709SOL     OW20023   1.796   8.999  11.172
72709SOL    HW120024   1.757   8.914  11.188
72709SOL    HW220025   1.889   8.987  11.192
72710SOL     OW20026   8.873   2.267   2.408
72710SOL    HW120027   8.947   2.236   2.355
72710SOL    HW220028   8.861   2.200   2.474
72711SOL     OW20029  12.414  14.303  13.579
72711SOL    HW120030  12.465  14.330  13.502
72711SOL    HW220031  12.481  14.283  13.645
72712SOL     OW20032   4.286   2.312   0.368
72712SOL    HW120033   4.220   2.248   0.341
72712SOL    HW220034   4.267   2.330   0.460
72713SOL     OW20035  11.276   3.525   2.078
72713SOL    HW120036  11.358   3.573   2.084
72713SOL    HW220037  11.289   3.464   2.005
72714SOL     OW20038  13.913   9.438   1.715
72714SOL    HW120039  13.852   9.419   1.643
72714SOL    HW220040  13.864   9.496   1.773
72715SOL     OW20041  10.882   3.013  13.233
72715SOL    HW120042  10.882   3.108  13.230
72715SOL    HW220043  10.813   2.990  13.295
72716SOL     OW20044   5.550   4.590   7.163
72716SOL    HW120045   5.594   4.660   7.211
72716SOL    HW220046   5.526   4.630   7.079
72717SOL     OW20047  11.503   3.482   3.601
72717SOL    HW120048  11.595   3.461   3.618
72717SOL    HW220049  11.506   3.570   3.563
72718SOL     OW20050   1.616   9.261  12.449
72718SOL    HW120051   1.558   9.185  12.452
72718SOL    HW220052   1.665   9.250  12.367
72719SOL     OW20053   2.961  10.558  10.324
72719SOL    HW120054   3.029  10.583  10.387
72719SOL    HW220055   2.948  10.636  10.271
72720SOL     OW20056   4.691   2.226  13.715
72720SOL    HW120057   4.766   2.265  13.670
72720SOL    HW220058   4.730   2.176  13.787
72721SOL     OW20059   4.063  12.230  11.971
72721SOL    HW120060   4.063  12.234  11.875
72721SOL    HW220061   3.975  12.257  11.996
72722SOL     OW20062   6.774   8.416   0.834
72722SOL    HW120063   6.820   8.332   0.840
72722SOL    HW220064   6.768   8.434   0.741
72723SOL     OW20065   2.647   6.106   9.870
72723SOL    HW120066   2.699   6.029   9.892
72723SOL    HW220067   2.685   6.138   9.788
72724SOL     OW20068   9.395   2.970   8.887
72724SOL    HW120069   9.430   2.958   8.975
72724SOL    HW220070   9.451   2.917   8.830
72725SOL     OW20071   8.409   8.420   7.375
72725SOL    HW120072   8.481   8.474   7.406
72725SOL    HW220073   8.398   8.352   7.442
72726SOL     OW20074  12.090   5.013   8.321
72726SOL    HW120075  12.116   4.928   8.355
72726SOL    HW220076  12.167   5.069   8.332
72727SOL     OW20077   6.777   0.881  11.109
72727SOL    HW120078   6.683   0.894  11.099
72727SOL    HW220079   6.785   0.808  11.171
72728SOL     OW20080   2.527   8.161  13.134
72728SOL    HW120081   2.535   8.066  13.145
72728SOL    HW220082   2.544   8.196  13.221
72729SOL     OW20083   5.656  11.327   8.813
72729SOL    HW120084   5.591  11.275   8.764
72729SOL    HW220085   5.681  11.271   8.886
72730SOL     OW20086   3.088   0.211   6.227
72730SOL    HW120087   3.073   0.273   6.156
72730SOL    HW220088   3.101   0.265   6.305
72731SOL     OW20089  11.096  10.435  12.536
72731SOL    HW120090  11.170  10.453  12.478
72731SOL    HW220091  11.021  10.428  12.477
72732SOL     OW20092   6.323  10.410   7.459
72732SOL    HW120093   6.402  10.464   7.459
72732SOL    HW220094   6.270  10.446   7.389
72733SOL     OW20095   8.289  12.666   8.824
72733SOL    HW120096   8.269  12.590   8.878
72733SOL    HW220097   8.371  12.643   8.779
72734SOL     OW20098   4.805   2.517  13.400
72734SOL    HW120099   4.748   2.546  13.471
72734SOL    HW220100   4.772   2.563  13.323
72735SOL     OW20101  14.593   1.883  13.409
72735SOL    HW120102  14.532   1.914  13.476
72735SOL    HW220103  14.592   1.788  13.417
72736SOL     OW20104   3.951  11.093   6.186
72736SOL    HW120105   3.883  11.149   6.223
72736SOL    HW220106   3.919  11.004   6.201
72737SOL     OW20107   9.322  13.320   7.353
72737SOL    HW120108   9.292  13.339   7.264
72737SOL    HW220109   9.246  13.281   7.396
72738SOL     OW20110  12.627  11.461  12.237
72738SOL    HW120111  12.532  11.474  12.231
72738SOL    HW220112  12.649  11.413  12.157
72739SOL     OW20113  14.316   8.845  14.720
72739SOL    HW120114  14.336   8.852  14.814
72739SOL    HW220115  14.312   8.751  14.703
72740SOL     OW20116   9.447  14.143   8.863
72740SOL    HW120117   9.412  14.086   8.931
72740SOL    HW220118   9.530  14.176   8.899
72741SOL     OW20119  10.507   8.051  10.006
72741SOL    HW120120  10.518   8.143   9.982
72741SOL    HW220121  10.472   8.054  10.095
72742SOL     OW20122  13.548  13.376   5.119
72742SOL    HW120123  13.603  13.333   5.185
72742SOL    HW220124  13.603  13.447   5.084
72743SOL     OW20125  11.788  14.605   3.808
72743SOL    HW120126  11.745  14.687   3.831
72743SOL    HW220127  11.825  14.621   3.721
72744SOL     OW20128  14.106  11.145   4.683
72744SOL    HW120129  14.192  11.106   4.663
72744SOL    HW220130  14.047  11.104   4.620
72745SOL     OW20131   7.295   8.956   3.841
72745SOL    HW120132   7.314   9.010   3.764
72745SOL    HW220133   7.212   8.990   3.875
72746SOL     OW20134   0.078   5.117   6.417
72746SOL    HW120135   0.135   5.071   6.355
72746SOL    HW220136   0.054   5.198   6.372
72747SOL     OW20137  12.602   0.038   3.300
72747SOL    HW120138  12.652  14.859   3.367
72747SOL    HW220139  12.514   0.047   3.337
72748SOL     OW20140  12.859  10.986   1.288
72748SOL    HW120141  12.866  10.927   1.214
72748SOL    HW220142  12.765  10.991   1.306
72749SOL     OW20143   2.104  14.615  12.318
72749SOL    HW120144   2.077  14.596  12.228
72749SOL    HW220145   2.075  14.705  12.333
72750SOL     OW20146  10.253  13.394  13.211
72750SOL    HW120147  10.231  13.338  13.285
72750SOL    HW220148  10.336  13.434  13.235
72751SOL     OW20149   9.251  10.536  11.251
72751SOL    HW120150   9.241  10.477  11.177
72751SOL    HW220151   9.172  10.523  11.303
72752SOL     OW20152   6.912   8.771   3.886
72752SOL    HW120153   6.865   8.840   3.935
72752SOL    HW220154   6.943   8.710   3.953
72753SOL     OW20155   6.319   8.979  11.137
72753SOL    HW120156   6.271   8.922  11.077
72753SOL    HW220157   6.367   8.918  11.194
72754SOL     OW20158   2.394   3.086   4.294
72754SOL    HW120159   2.487   3.098   4.311
72754SOL    HW220160   2.356   3.066   4.379
72755SOL     OW20161   4.787   9.515   8.008
72755SOL    HW120162   4.762   9.569   7.933
72755SOL    HW220163   4.713   9.456   8.022
72756SOL     OW20164   6.327   5.016   3.865
72756SOL    HW120165   6.394   5.006   3.933
72756SOL    HW220166   6.328   5.109   3.844
72757SOL     OW20167   2.409   9.626   3.800
72757SOL    HW120168   2.436   9.715   3.775
72757SOL    HW220169   2.469   9.602   3.870
72758SOL     OW20170   5.910   4.340   4.829
72758SOL    HW120171   5.965   4.418   4.835
72758SOL    HW220172   5.929   4.305   4.742
72759SOL     OW20173   8.740   2.726  14.675
72759SOL    HW120174   8.774   2.678  14.750
72759SOL    HW220175   8.645   2.713  14.679
72760SOL     OW20176   4.196   8.966   9.162
72760SOL    HW120177   4.232   8.941   9.247
72760SOL    HW220178   4.134   8.896   9.141
72761SOL     OW20179   8.474  14.770   5.644
72761SOL    HW120180   8.569  14.767   5.647
72761SOL    HW220181   8.454  14.814   5.561
72762SOL     OW20182   2.645   8.330  11.944
72762SOL    HW120183   2.658   8.313  12.037
72762SOL    HW220184   2.568   8.278  11.920
72763SOL     OW20185   9.264   7.113  12.333
72763SOL    HW120186   9.242   7.192  12.283
72763SOL    HW220187   9.330   7.070  12.280
72764SOL     OW20188  11.868   9.111  13.826
72764SOL    HW120189  11.901   9.026  13.856
72764SOL    HW220190  11.841   9.155  13.907
72765SOL     OW20191   7.638  13.809   1.492
72765SOL    HW120192   7.608  13.754   1.564
72765SOL    HW220193   7.563  13.864   1.471
72766SOL     OW20194  11.764   4.841   6.398
72766SOL    HW120195  11.749   4.882   6.313
72766SOL    HW220196  11.710   4.762   6.397
72767SOL     OW20197  10.121   4.636   9.743
72767SOL    HW120198  10.137   4.668   9.654
72767SOL    HW220199  10.057   4.698   9.779
72768SOL     OW20200  14.369   9.417   7.239
72768SOL    HW120201  14.302   9.484   7.232
72768SOL    HW220202  14.450   9.461   7.213
72769SOL     OW20203   1.722   4.686   8.019
72769SOL    HW120204   1.757   4.634   8.091
72769SOL    HW220205   1.749   4.776   8.039
72770SOL     OW20206   0.218  14.634  13.695
72770SOL    HW120207   0.245  14.562  13.638
72770SOL    HW220208   0.299  14.684  13.710
72771SOL     OW20209  10.178  13.718   4.055
72771SOL    HW120210  10.247  13.731   3.989
72771SOL    HW220211  10.097  13.713   4.004
72772SOL     OW20212   6.689  13.773   5.112
72772SOL    HW120213   6.594  13.768   5.101
72772SOL    HW220214   6.713  13.688   5.149
72773SOL     OW20215   2.006  12.037  11.682
72773SOL    HW120216   1.916  12.071  11.677
72773SOL    HW220217   2.056  12.096  11.626
72774SOL     OW20218   8.399  14.453   7.466
72774SOL    HW120219   8.481  14.464   7.514
72774SOL    HW220220   8.399  14.361   7.439
72775SOL     OW20221   1.659   9.156   9.822
72775SOL    HW120222   1.578   9.181   9.866
72775SOL    HW220223   1.656   9.201   9.738
72776SOL     OW20224   4.604   8.132   0.213
72776SOL    HW120225   4.600   8.083   0.295
72776SOL    HW220226   4.513   8.157   0.196
72777SOL     OW20227   2.939  11.326  12.547
72777SOL    HW120228   3.014  11.328  12.608
72777SOL    HW220229   2.966  11.264  12.479
72778SOL     OW20230   3.785   5.583  14.803
72778SOL    HW120231   3.710   5.549  14.851
72778SOL    HW220232   3.786   5.532  14.722
72779SOL     OW20233   1.540  14.067   2.620
72779SOL    HW120234   1.610  14.086   2.682
72779SOL    HW220235   1.549  13.974   2.601
72780SOL     OW20236   9.850  14.486   9.843
72780SOL    HW120237   9.940  14.506   9.815
72780SOL    HW220238   9.829  14.555   9.907
72781SOL     OW20239   0.494   5.573   3.324
72781SOL    HW120240   0.542   5.588   3.405
72781SOL    HW220241   0.562   5.555   3.259
72782SOL     OW20242  10.135  13.023   3.665
72782SOL    HW120243  10.068  12.984   3.608
72782SOL    HW220244  10.214  12.972   3.648
72783SOL     OW20245  11.714  10.793   5.674
72783SOL    HW120246  11.804  10.825   5.679
72783SOL    HW220247  11.716  10.729   5.603
72784SOL     OW20248   0.131   4.336   4.164
72784SOL    HW120249   0.122   4.429   4.141
72784SOL    HW220250   0.225   4.321   4.165
72785SOL     OW20251   5.790   3.469   6.481
72785SOL    HW120252   5.770   3.375   6.480
72785SOL    HW220253   5.722   3.509   6.427
72786SOL     OW20254  12.239   2.895  10.514
72786SOL    HW120255  12.269   2.985  10.503
72786SOL    HW220256  12.248   2.877  10.608
72787SOL     OW20257   8.995   5.113  14.633
72787SOL    HW120258   8.947   5.037  14.598
72787SOL    HW220259   9.055   5.138  14.563
72788SOL     OW20260   0.237   3.628   3.361
72788SOL    HW120261   0.229   3.681   3.440
72788SOL    HW220262   0.293   3.554   3.388
72789SOL     OW20263  14.763   8.021   1.255
72789SOL    HW120264  14.854   7.992   1.253
72789SOL    HW220265  14.713   7.946   1.223
72790SOL     OW20266   5.912   9.490   2.544
72790SOL    HW120267   6.004   9.484   2.519
72790SOL    HW220268   5.870   9.536   2.471
72791SOL     OW20269   9.108  14.576   7.367
72791SOL    HW120270   9.069  14.490   7.383
72791SOL    HW220271   9.149  14.569   7.280
72792SOL     OW20272   5.182   4.982   7.954
72792SOL    HW120273   5.090   4.995   7.934
72792SOL    HW220274   5.207   4.904   7.905
72793SOL     OW20275   4.758   3.528  14.501
72793SOL    HW120276   4.701   3.461  14.462
72793SOL    HW220277   4.836   3.481  14.528
72794SOL     OW20278  10.190   1.182  11.557
72794SOL    HW120279  10.236   1.145  11.482
72794SOL    HW220280  10.097   1.170  11.537
72795SOL     OW20281   1.938   5.539   6.264
72795SOL    HW120282   2.016   5.548   6.319
72795SOL    HW220283   1.971   5.542   6.174
72796SOL     OW20284   2.884  11.174   6.778
72796SOL    HW120285   2.910  11.266   6.781
72796SOL    HW220286   2.934  11.132   6.847
72797SOL     OW20287   9.093   3.260  10.925
72797SOL    HW120288   9.066   3.176  10.963
72797SOL    HW220289   9.088   3.245  10.830
72798SOL     OW20290  13.894   4.182   7.367
72798SOL    HW120291  13.951   4.202   7.442
72798SOL    HW220292  13.877   4.268   7.327
72799SOL     OW20293   3.552  11.055  10.385
72799SOL    HW120294   3.641  11.043  10.416
72799SOL    HW220295   3.540  10.987  10.319
72800SOL     OW20296   0.060  10.541  10.787
72800SOL    HW120297  14.858  10.494  10.833
72800SOL    HW220298   0.140  10.498  10.816
72801SOL     OW20299  13.874   4.539   0.204
72801SOL    HW120300  13.958   4.553   0.161
72801SOL    HW220301  13.809   4.570   0.141
72802SOL     OW20302   2.892   5.559   6.678
72802SOL    HW120303   2.955   5.518   6.618
72802SOL    HW220304   2.945   5.619   6.731
72803SOL     OW20305   5.358   6.812   5.981
72803SOL    HW120306   5.274   6.858   5.974
72803SOL    HW220307   5.411   6.867   6.038
72804SOL     OW20308  14.868   6.344  14.553
72804SOL    HW120309  14.835   6.396  14.479
72804SOL    HW220310   0.041   6.268  14.512
72805SOL     OW20311  14.515  14.272   4.537
72805SOL    HW120312  14.561  14.301   4.458
72805SOL    HW220313  14.482  14.353   4.575
72806SOL     OW20314  12.879   0.750   2.769
72806SOL    HW120315  12.925   0.719   2.847
72806SOL    HW220316  12.787   0.726   2.784
72807SOL     OW20317   9.385   8.369   6.596
72807SOL    HW120318   9.418   8.421   6.669
72807SOL    HW220319   9.295   8.399   6.584
72808SOL     OW20320   4.390   7.222   7.889
72808SOL    HW120321   4.439   7.160   7.836
72808SOL    HW220322   4.337   7.168   7.947
72809SOL     OW20323   8.420   5.974   9.361
72809SOL    HW120324   8.405   5.956   9.268
72809SOL    HW220325   8.347   6.030   9.386
72810SOL     OW20326   9.529   3.692   2.854
72810SOL    HW120327   9.566   3.660   2.772
72810SOL    HW220328   9.539   3.787   2.848
72811SOL     OW20329   9.456   1.116  10.601
72811SOL    HW120330   9.506   1.035  10.610
72811SOL    HW220331   9.479   1.167  10.679
72812SOL     OW20332   4.153   7.865   6.840
72812SOL    HW120333   4.190   7.923   6.773
72812SOL    HW220334   4.226   7.809   6.867
72813SOL     OW20335   3.819   4.220   8.781
72813SOL    HW120336   3.744   4.279   8.785
72813SOL    HW220337   3.782   4.137   8.751
72814SOL     OW20338  13.082   2.398  14.543
72814SOL    HW120339  13.022   2.448  14.488
72814SOL    HW220340  13.046   2.406  14.631
72815SOL     OW20341   7.141   2.058  12.091
72815SOL    HW120342   7.133   2.101  12.005
72815SOL    HW220343   7.052   2.027  12.110
72816SOL     OW20344  11.943   4.981   6.875
72816SOL    HW120345  11.944   5.073   6.849
72816SOL    HW220346  12.036   4.956   6.878
72817SOL     OW20347   0.625   0.320  13.776
72817SOL    HW120348   0.711   0.301  13.739
72817SOL    HW220349   0.565   0.311  13.702
72818SOL     OW20350   9.375  12.511  12.861
72818SOL    HW120351   9.363  12.426  12.903
72818SOL    HW220352   9.303  12.518  12.799
72819SOL     OW20353   7.754  13.871  12.551
72819SOL    HW120354   7.765  13.828  12.637
72819SOL    HW220355   7.781  13.805  12.488
72820SOL     OW20356  12.292   2.254   4.348
72820SOL    HW120357  12.383   2.282   4.334
72820SOL    HW220358  12.240   2.332   4.331
72821SOL     OW20359   5.181   8.882   8.566
72821SOL    HW120360   5.119   8.899   8.638
72821SOL    HW220361   5.185   8.787   8.559
72822SOL     OW20362  12.087   2.017   9.843
72822SOL    HW120363  11.998   2.019   9.809
72822SOL    HW220364  12.125   2.101   9.816
72823SOL     OW20365   4.195   4.746   7.508
72823SOL    HW120366   4.218   4.746   7.415
72823SOL    HW220367   4.262   4.692   7.549
72824SOL     OW20368   9.778   1.540   7.040
72824SOL    HW120369   9.867   1.568   7.018
72824SOL    HW220370   9.765   1.460   6.990
72825SOL     OW20371   4.587  14.514  10.875
72825SOL    HW120372   4.682  14.513  10.875
72825SOL    HW220373   4.562  14.504  10.967
72826SOL     OW20374   0.833   9.998  14.830
72826SOL    HW120375   0.764   9.957   0.016
72826SOL    HW220376   0.830  10.090  14.854
72827SOL     OW20377   9.312   8.733   6.840
72827SOL    HW120378   9.391   8.745   6.892
72827SOL    HW220379   9.344   8.725   6.750
72828SOL     OW20380  10.901   4.737   6.373
72828SOL    HW120381  10.864   4.808   6.321
72828SOL    HW220382  10.909   4.664   6.312
72829SOL     OW20383   9.811  13.545   1.951
72829SOL    HW120384   9.883  13.608   1.946
72829SOL    HW220385   9.795  13.535   2.045
72830SOL     OW20386   7.807   1.108   6.202
72830SOL    HW120387   7.833   1.016   6.201
72830SOL    HW220388   7.756   1.119   6.122
72831SOL     OW20389   4.205   6.570   4.291
72831SOL    HW120390   4.220   6.652   4.338
72831SOL    HW220391   4.110   6.563   4.284
72832SOL     OW20392   8.928   6.449   6.889
72832SOL    HW120393   8.875   6.511   6.839
72832SOL    HW220394   8.877   6.368   6.890
72833SOL     OW20395  11.129   5.714  10.877
72833SOL    HW120396  11.144   5.778  10.946
72833SOL    HW220397  11.033   5.707  10.872
72834SOL     OW20398   3.601   8.198   6.351
72834SOL    HW120399   3.647   8.126   6.308
72834SOL    HW220400   3.617   8.274   6.295
72835SOL     OW20401   0.690   1.068   9.850
72835SOL    HW120402   0.675   1.071   9.944
72835SOL    HW220403   0.758   1.001   9.838
72836SOL     OW20404   8.535  10.193   0.801
72836SOL    HW120405   8.587  10.214   0.878
72836SOL    HW220406   8.451  10.163   0.836
72837SOL     OW20407   7.170   5.705   5.064
72837SOL    HW120408   7.228   5.770   5.025
72837SOL    HW220409   7.102   5.691   4.997
72838SOL     OW20410   2.710   5.185   3.446
72838SOL    HW120411   2.696   5.255   3.509
72838SOL    HW220412   2.658   5.112   3.479
72839SOL     OW20413   8.798   6.837  13.830
72839SOL    HW120414   8.740   6.776  13.784
72839SOL    HW220415   8.824   6.789  13.909
72840SOL     OW20416  10.576   6.262  14.095
72840SOL    HW120417  10.552   6.199  14.027
72840SOL    HW220418  10.516   6.244  14.167
72841SOL     OW20419   6.649   5.655  10.460
72841SOL    HW120420   6.641   5.658  10.365
72841SOL    HW220421   6.688   5.740  10.483
72842SOL     OW20422   4.858  13.515  12.643
72842SOL    HW120423   4.819  13.496  12.728
72842SOL    HW220424   4.938  13.564  12.663
72843SOL     OW20425  12.342   6.563   0.581
72843SOL    HW120426  12.313   6.564   0.673
72843SOL    HW220427  12.377   6.475   0.568
72844SOL     OW20428  14.812   5.935  13.043
72844SOL    HW120429  14.862   6.012  13.069
72844SOL    HW220430   0.009   5.865  13.034
72845SOL     OW20431   7.614   7.252   2.871
72845SOL    HW120432   7.693   7.219   2.830
72845SOL    HW220433   7.566   7.297   2.801
72846SOL     OW20434   6.516  11.021  11.012
72846SOL    HW120435   6.428  11.059  11.003
72846SOL    HW220436   6.538  11.031  11.104
72847SOL     OW20437   1.030   6.951  13.815
72847SOL    HW120438   0.976   6.955  13.736
72847SOL    HW220439   1.056   6.860  13.822
72848SOL     OW20440   8.392  14.059   3.400
72848SOL    HW120441   8.417  14.139   3.446
72848SOL    HW220442   8.475  14.015   3.382
72849SOL     OW20443   0.411   6.487  14.715
72849SOL    HW120444   0.351   6.412  14.711
72849SOL    HW220445   0.433   6.495  14.808
72850SOL     OW20446  10.074   7.677   9.373
72850SOL    HW120447  10.077   7.609   9.441
72850SOL    HW220448  10.023   7.748   9.412
72851SOL     OW20449   3.170   9.709   9.271
72851SOL    HW120450   3.104   9.753   9.218
72851SOL    HW220451   3.120   9.654   9.331
72852SOL     OW20452  10.724  13.067   9.384
72852SOL    HW120453  10.683  13.050   9.299
72852SOL    HW220454  10.701  12.991   9.437
72853SOL     OW20455  14.744  12.143  10.660
72853SOL    HW120456  14.661  12.149  10.612
72853SOL    HW220457  14.754  12.229  10.701
72854SOL     OW20458   0.391  13.255  11.802
72854SOL    HW120459   0.440  13.290  11.876
72854SOL    HW220460   0.307  13.302  11.805
72855SOL     OW20461  12.984  10.530   0.073
72855SOL    HW120462  12.935  10.448   0.066
72855SOL    HW220463  12.982  10.551   0.167
72856SOL     OW20464   4.167  14.012  14.303
72856SOL    HW120465   4.122  13.940  14.259
72856SOL    HW220466   4.251  14.019  14.258
72857SOL     OW20467   3.080   9.393   8.099
72857SOL    HW120468   3.070   9.298   8.099
72857SOL    HW220469   3.024   9.422   8.027
72858SOL     OW20470  10.661  12.274  11.600
72858SOL    HW120471  10.569  12.249  11.591
72858SOL    HW220472  10.710  12.194  11.581
72859SOL     OW20473   5.095   6.234  12.241
72859SOL    HW120474   5.175   6.187  12.264
72859SOL    HW220475   5.083   6.217  12.148
72860SOL     OW20476   9.584   2.413  11.332
72860SOL    HW120477   9.568   2.381  11.420
72860SOL    HW220478   9.644   2.349  11.294
72861SOL     OW20479   0.024  11.728   7.459
72861SOL    HW120480   0.074  11.773   7.527
72861SOL    HW220481   0.081  11.731   7.382
72862SOL     OW20482   8.233  11.155   3.440
72862SOL    HW120483   8.221  11.064   3.467
72862SOL    HW220484   8.206  11.157   3.348
72863SOL     OW20485   3.192   1.530  10.800
72863SOL    HW120486   3.275   1.515  10.846
72863SOL    HW220487   3.132   1.465  10.835
72864SOL     OW20488  12.042  10.824   6.211
72864SOL    HW120489  12.083  10.771   6.143
72864SOL    HW220490  11.964  10.860   6.170
72865SOL     OW20491  12.630  14.381   8.580
72865SOL    HW120492  12.552  14.327   8.596
72865SOL    HW220493  12.607  14.433   8.503
72866SOL     OW20494  10.974   7.272   7.926
72866SOL    HW120495  10.986   7.333   7.853
72866SOL    HW220496  10.879   7.266   7.936
72867SOL     OW20497  11.095  12.036  12.547
72867SOL    HW120498  11.019  12.079  12.507
72867SOL    HW220499  11.059  11.991  12.623
72868SOL     OW20500   6.443   8.965  12.741
72868SOL    HW120501   6.448   8.891  12.680
72868SOL    HW220502   6.477   8.930  12.824
72869SOL     OW20503  10.444  14.346  11.062
72869SOL    HW120504  10.506  14.336  10.990
72869SOL    HW220505  10.365  14.383  11.020
72870SOL     OW20506   7.113   8.944   4.914
72870SOL    HW120507   7.191   8.946   4.969
72870SOL    HW220508   7.042   8.919   4.974
72871SOL     OW20509   1.309   7.431   1.660
72871SOL    HW120510   1.227   7.479   1.672
72871SOL    HW220511   1.286   7.357   1.604
72872SOL     OW20512  12.835   2.189  12.193
72872SOL    HW120513  12.741   2.174  12.196
72872SOL    HW220514  12.849   2.238  12.112
72873SOL     OW20515   9.121  13.683  12.718
72873SOL    HW120516   9.046  13.739  12.740
72873SOL    HW220517   9.145  13.710  12.629
72874SOL     OW20518   7.047  10.033   9.559
72874SOL    HW120519   7.046   9.968   9.628
72874SOL    HW220520   6.986  10.000   9.493
72875SOL     OW20521  14.147  14.610  11.405
72875SOL    HW120522  14.073  14.561  11.368
72875SOL    HW220523  14.190  14.649  11.329
72876SOL     OW20524   2.629  14.632   0.586
72876SOL    HW120525   2.545  14.652   0.627
72876SOL    HW220526   2.667  14.718   0.566
72877SOL     OW20527   3.179   3.702   5.113
72877SOL    HW120528   3.120   3.753   5.058
72877SOL    HW220529   3.130   3.622   5.133
72878SOL     OW20530   1.383   8.015   6.503
72878SOL    HW120531   1.429   7.958   6.564
72878SOL    HW220532   1.451   8.055   6.449
72879SOL     OW20533   2.891   7.034   9.087
72879SOL    HW120534   2.825   7.098   9.114
72879SOL    HW220535   2.844   6.975   9.028
72880SOL     OW20536   8.048   1.422  14.439
72880SOL    HW120537   7.956   1.404  14.462
72880SOL    HW220538   8.097   1.351  14.481
72881SOL     OW20539  14.325  13.030   2.809
72881SOL    HW120540  14.304  13.088   2.736
72881SOL    HW220541  14.268  12.955   2.797
72882SOL     OW20542   8.090  10.476   5.368
72882SOL    HW120543   8.067  10.527   5.290
72882SOL    HW220544   8.006  10.455   5.409
72883SOL     OW20545   1.267  10.730   0.014
72883SOL    HW120546   1.283  10.715  14.789
72883SOL    HW220547   1.225  10.650   0.045
72884SOL     OW20548  11.152   2.974   7.980
72884SOL    HW120549  11.167   2.884   7.951
72884SOL    HW220550  11.093   3.011   7.914
72885SOL     OW20551   0.632   4.132   4.744
72885SOL    HW120552   0.570   4.168   4.681
72885SOL    HW220553   0.714   4.177   4.726
72886SOL     OW20554   3.656   4.284  13.123
72886SOL    HW120555   3.604   4.208  13.095
72886SOL    HW220556   3.593   4.343  13.163
72887SOL     OW20557   0.618   3.569   0.537
72887SOL    HW120558   0.581   3.581   0.449
72887SOL    HW220559   0.699   3.522   0.523
72888SOL     OW20560   3.208   4.537   0.768
72888SOL    HW120561   3.132   4.568   0.816
72888SOL    HW220562   3.274   4.518   0.835
72889SOL     OW20563   4.887  11.669   0.860
72889SOL    HW120564   4.897  11.607   0.788
72889SOL    HW220565   4.863  11.615   0.935
72890SOL     OW20566  14.071   5.245  13.413
72890SOL    HW120567  14.129   5.174  13.385
72890SOL    HW220568  14.082   5.313  13.347
72891SOL     OW20569   6.632  12.548   7.459
72891SOL    HW120570   6.604  12.516   7.545
72891SOL    HW220571   6.608  12.641   7.460
72892SOL     OW20572  10.759   8.587   9.535
72892SOL    HW120573  10.669   8.562   9.557
72892SOL    HW220574  10.756   8.613   9.443
72893SOL     OW20575   4.051   0.419  14.273
72893SOL    HW120576   3.992   0.366  14.327
72893SOL    HW220577   3.992   0.469  14.216
72894SOL     OW20578   1.462   9.165   6.753
72894SOL    HW120579   1.478   9.105   6.826
72894SOL    HW220580   1.549   9.196   6.728
72895SOL     OW20581   0.839  14.110  10.801
72895SOL    HW120582   0.890  14.164  10.740
72895SOL    HW220583   0.791  14.174  10.855
72896SOL     OW20584   1.356   3.801  12.611
72896SOL    HW120585   1.376   3.730  12.672
72896SOL    HW220586   1.310   3.866  12.664
72897SOL     OW20587   2.078   7.213  10.215
72897SOL    HW120588   2.160   7.244  10.254
72897SOL    HW220589   2.015   7.284  10.234
72898SOL     OW20590  12.893   5.573   6.846
72898SOL    HW120591  12.800   5.556   6.857
72898SOL    HW220592  12.925   5.498   6.796
72899SOL     OW20593   2.427   8.243   7.278
72899SOL    HW120594   2.427   8.333   7.310
72899SOL    HW220595   2.516   8.213   7.293
72900SOL     OW20596   5.605   7.310  12.791
72900SOL    HW120597   5.649   7.227  12.812
72900SOL    HW220598   5.655   7.347  12.719
72901SOL     OW20599  14.822  11.210   6.053
72901SOL    HW120600   0.022  11.164   6.004
72901SOL    HW220601  14.826  11.300   6.020
72902SOL     OW20602   4.586   0.239   1.163
72902SOL    HW120603   4.617   0.188   1.237
72902SOL    HW220604   4.653   0.306   1.150
72903SOL     OW20605   5.617   8.008  10.196
72903SOL    HW120606   5.605   8.079  10.133
72903SOL    HW220607   5.531   7.967  10.204
72904SOL     OW20608   4.467  13.677   9.047
72904SOL    HW120609   4.471  13.724   8.964
72904SOL    HW220610   4.533  13.720   9.102
72905SOL     OW20611   7.708   9.899  12.973
72905SOL    HW120612   7.798   9.885  12.944
72905SOL    HW220613   7.714   9.970  13.037
72906SOL     OW20614  14.799   0.121   3.865
72906SOL    HW120615  14.778   0.084   3.950
72906SOL    HW220616   0.010   0.173   3.880
72907SOL     OW20617   9.531   6.352   3.734
72907SOL    HW120618   9.576   6.436   3.741
72907SOL    HW220619   9.447   6.366   3.777
72908SOL     OW20620   0.543  14.328  14.772
72908SOL    HW120621   0.503  14.243  14.755
72908SOL    HW220622   0.485  14.391  14.727
72909SOL     OW20623  10.482   8.029   2.047
72909SOL    HW120624  10.429   8.105   2.025
72909SOL    HW220625  10.555   8.064   2.098
72910SOL     OW20626  10.878   1.187  11.922
72910SOL    HW120627  10.829   1.150  11.995
72910SOL    HW220628  10.829   1.265  11.897
72911SOL     OW20629  13.197   2.198  10.098
72911SOL    HW120630  13.125   2.192  10.036
72911SOL    HW220631  13.208   2.292  10.114
72912SOL     OW20632   7.085   6.532   2.528
72912SOL    HW120633   7.161   6.485   2.494
72912SOL    HW220634   7.110   6.625   2.522
72913SOL     OW20635   4.423   6.417  11.624
72913SOL    HW120636   4.411   6.379  11.537
72913SOL    HW220637   4.387   6.352  11.684
72914SOL     OW20638   0.950   1.661  10.879
72914SOL    HW120639   0.857   1.679  10.894
72914SOL    HW220640   0.954   1.632  10.788
72915SOL     OW20641  13.966   6.927  12.093
72915SOL    HW120642  14.044   6.953  12.142
72915SOL    HW220643  13.968   6.983  12.015
72916SOL     OW20644   2.374  12.878   4.394
72916SOL    HW120645   2.433  12.930   4.339
72916SOL    HW220646   2.296  12.932   4.402
72917SOL     OW20647   8.243   7.571   7.721
72917SOL    HW120648   8.266   7.498   7.662
72917SOL    HW220649   8.171   7.616   7.675
72918SOL     OW20650  11.783  11.807   1.972
72918SOL    HW120651  11.784  11.711   1.981
72918SOL    HW220652  11.861  11.836   2.019
72919SOL     OW20653   0.020  11.750  13.887
72919SOL    HW120654   0.087  11.737  13.820
72919SOL    HW220655   0.033  11.840  13.917
72920SOL     OW20656  14.669   9.376   5.422
72920SOL    HW120657  14.636   9.438   5.486
72920SOL    HW220658  14.696   9.299   5.473
72921SOL     OW20659   4.353   6.319  12.128
72921SOL    HW120660   4.446   6.320  12.106
72921SOL    HW220661   4.341   6.396  12.183
72922SOL     OW20662  10.890  12.905  14.280
72922SOL    HW120663  10.874  12.879  14.370
72922SOL    HW220664  10.869  12.999  14.278
72923SOL     OW20665  11.585   0.513   8.210
72923SOL    HW120666  11.554   0.525   8.300
72923SOL    HW220667  11.505   0.509   8.158
72924SOL     OW20668   1.499   5.858   9.851
72924SOL    HW120669   1.547   5.776   9.839
72924SOL    HW220670   1.467   5.855   9.941
72925SOL     OW20671  13.573  14.688   1.944
72925SOL    HW120672  13.629  14.614   1.964
72925SOL    HW220673  13.563  14.734   2.028
72926SOL     OW20674   3.529  11.727   0.856
72926SOL    HW120675   3.466  11.699   0.789
72926SOL    HW220676   3.517  11.822   0.861
72927SOL     OW20677  14.132   1.633  12.050
72927SOL    HW120678  14.045   1.603  12.026
72927SOL    HW220679  14.163   1.568  12.114
72928SOL     OW20680  10.428  12.862   0.348
72928SOL    HW120681  10.483  12.874   0.425
72928SOL    HW220682  10.489  12.866   0.274
72929SOL     OW20683   0.790   6.165   0.018
72929SOL    HW120684   0.795   6.208  14.800
72929SOL    HW220685   0.707   6.197   0.055
72930SOL     OW20686   7.190   0.880  12.065
72930SOL    HW120687   7.135   0.808  12.034
72930SOL    HW220688   7.132   0.932  12.121
72931SOL     OW20689   7.119   5.154   8.367
72931SOL    HW120690   7.032   5.172   8.331
72931SOL    HW220691   7.160   5.240   8.372
72932SOL     OW20692   5.357   5.874   9.891
72932SOL    HW120693   5.373   5.859   9.797
72932SOL    HW220694   5.367   5.787   9.930
72933SOL     OW20695  13.416   3.044  13.975
72933SOL    HW120696  13.492   3.048  13.919
72933SOL    HW220697  13.352   3.102  13.934
72934SOL     OW20698  12.575   8.433  12.716
72934SOL    HW120699  12.648   8.410  12.773
72934SOL    HW220700  12.535   8.349  12.693
72935SOL     OW20701   1.280  14.447   5.903
72935SOL    HW120702   1.334  14.385   5.953
72935SOL    HW220703   1.343  14.495   5.849
72936SOL     OW20704   4.764   0.976   6.985
72936SOL    HW120705   4.701   1.044   7.010
72936SOL    HW220706   4.788   0.998   6.895
72937SOL     OW20707  13.795   4.067   1.878
72937SOL    HW120708  13.809   3.976   1.853
72937SOL    HW220709  13.705   4.086   1.851
72938SOL     OW20710   9.120   3.334   2.645
72938SOL    HW120711   9.192   3.381   2.601
72938SOL    HW220712   9.134   3.350   2.738
72939SOL     OW20713  10.684   4.817   8.207
72939SOL    HW120714  10.751   4.813   8.139
72939SOL    HW220715  10.603   4.794   8.162
72940SOL     OW20716   2.080   1.191   7.125
72940SOL    HW120717   2.096   1.201   7.031
72940SOL    HW220718   1.990   1.223   7.137
72941SOL     OW20719   4.060  14.220   4.200
72941SOL    HW120720   4.128  14.261   4.147
72941SOL    HW220721   3.978  14.240   4.154
72942SOL     OW20722  13.798   0.980   1.039
72942SOL    HW120723  13.747   0.995   0.959
72942SOL    HW220724  13.855   1.056   1.046
72943SOL     OW20725   0.364   5.794   7.784
72943SOL    HW120726   0.392   5.884   7.768
72943SOL    HW220727   0.269   5.795   7.768
72944SOL     OW20728   1.433  13.865   2.319
72944SOL    HW120729   1.516  13.910   2.307
72944SOL    HW220730   1.444  13.816   2.401
72945SOL     OW20731  13.366  12.974   8.645
72945SOL    HW120732  13.319  12.969   8.729
72945SOL    HW220733  13.373  13.068   8.627
72946SOL     OW20734   7.444   8.893  11.193
72946SOL    HW120735   7.435   8.983  11.225
72946SOL    HW220736   7.429   8.838  11.269
72947SOL     OW20737  12.661  13.785   1.476
72947SOL    HW120738  12.681  13.732   1.552
72947SOL    HW220739  12.587  13.840   1.503
72948SOL     OW20740  13.523   4.761  13.937
72948SOL    HW120741  13.494   4.679  13.978
72948SOL    HW220742  13.593   4.735  13.878
72949SOL     OW20743   9.236   0.102   2.187
72949SOL    HW120744   9.272   0.114   2.274
72949SOL    HW220745   9.300   0.046   2.142
72950SOL     OW20746   8.931  13.209   5.192
72950SOL    HW120747   8.966  13.298   5.181
72950SOL    HW220748   8.951  13.166   5.109
72951SOL     OW20749   0.730   9.962   0.319
72951SOL    HW120750   0.676   9.910   0.259
72951SOL    HW220751   0.790   9.899   0.358
72952SOL     OW20752   9.527  12.652  11.567
72952SOL    HW120753   9.513  12.569  11.612
72952SOL    HW220754   9.538  12.629  11.475
72953SOL     OW20755   8.184  13.755   3.903
72953SOL    HW120756   8.209  13.712   3.985
72953SOL    HW220757   8.193  13.849   3.921
72954SOL     OW20758   1.286  11.196   3.144
72954SOL    HW120759   1.376  11.205   3.114
72954SOL    HW220760   1.235  11.185   3.064
72955SOL     OW20761   7.336   9.304   1.988
72955SOL    HW120762   7.404   9.248   2.024
72955SOL    HW220763   7.283   9.330   2.063
72956SOL     OW20764   9.691  12.207   4.020
72956SOL    HW120765   9.748  12.142   3.979
72956SOL    HW220766   9.718  12.209   4.112
72957SOL     OW20767   7.182   7.056   6.675
72957SOL    HW120768   7.137   7.007   6.744
72957SOL    HW220769   7.113   7.078   6.612
72958SOL     OW20770  11.818  12.544   0.755
72958SOL    HW120771  11.749  12.520   0.693
72958SOL    HW220772  11.872  12.466   0.764
72959SOL     OW20773   1.229   7.254   9.045
72959SOL    HW120774   1.251   7.208   8.964
72959SOL    HW220775   1.313   7.263   9.091
72960SOL     OW20776   2.816  10.677   4.424
72960SOL    HW120777   2.901  10.652   4.460
72960SOL    HW220778   2.803  10.619   4.349
72961SOL     OW20779   1.493   3.755  13.868
72961SOL    HW120780   1.406   3.768  13.832
72961SOL    HW220781   1.478   3.726  13.958
72962SOL     OW20782  10.054   5.552   5.150
72962SOL    HW120783  10.142   5.523   5.126
72962SOL    HW220784  10.010   5.472   5.180
72963SOL     OW20785  13.638  12.147   6.672
72963SOL    HW120786  13.721  12.184   6.642
72963SOL    HW220787  13.659  12.057   6.697
72964SOL     OW20788   6.382   3.804   8.034
72964SOL    HW120789   6.430   3.788   7.954
72964SOL    HW220790   6.431   3.873   8.079
72965SOL     OW20791  13.455   3.740   8.914
72965SOL    HW120792  13.481   3.782   8.832
72965SOL    HW220793  13.380   3.791   8.945
72966SOL     OW20794   9.075   5.434   2.128
72966SOL    HW120795   8.993   5.397   2.094
72966SOL    HW220796   9.047   5.496   2.195
72967SOL     OW20797   1.455   0.138   4.775
72967SOL    HW120798   1.365   0.121   4.802
72967SOL    HW220799   1.506   0.067   4.813
72968SOL     OW20800   1.364   2.628  12.358
72968SOL    HW120801   1.298   2.647  12.291
72968SOL    HW220802   1.329   2.669  12.438
72969SOL     OW20803   1.050   6.798  14.403
72969SOL    HW120804   1.032   6.737  14.475
72969SOL    HW220805   0.969   6.849  14.394
72970SOL     OW20806  10.497   1.304  11.591
72970SOL    HW120807  10.405   1.279  11.583
72970SOL    HW220808  10.546   1.225  11.569
72971SOL     OW20809  14.139   5.185  13.945
72971SOL    HW120810  14.143   5.211  13.853
72971SOL    HW220811  14.105   5.096  13.944
72972SOL     OW20812   5.153   5.764   6.170
72972SOL    HW120813   5.110   5.757   6.086
72972SOL    HW220814   5.185   5.675   6.188
72973SOL     OW20815   0.707  11.982  12.062
72973SOL    HW120816   0.755  12.052  12.018
72973SOL    HW220817   0.734  11.902  12.017
72974SOL     OW20818  14.519  12.698   7.786
72974SOL    HW120819  14.545  12.744   7.865
72974SOL    HW220820  14.427  12.723   7.773
72975SOL     OW20821   8.965   2.899   3.013
72975SOL    HW120822   8.910   2.826   2.986
72975SOL    HW220823   8.922   2.976   2.975
72976SOL     OW20824   6.276  12.238   1.814
72976SOL    HW120825   6.255  12.310   1.755
72976SOL    HW220826   6.351  12.269   1.864
72977SOL     OW20827   2.777  11.852   0.013
72977SOL    HW120828   2.762  11.786  14.813
72977SOL    HW220829   2.839  11.811   0.073
72978SOL     OW20830  14.580   1.442  12.325
72978SOL    HW120831  14.524   1.377  12.283
72978SOL    HW220832  14.542   1.526  12.299
72979SOL     OW20833   0.503   3.924   0.910
72979SOL    HW120834   0.539   3.851   0.961
72979SOL    HW220835   0.558   3.999   0.934
72980SOL     OW20836   5.892   2.710   3.277
72980SOL    HW120837   5.824   2.707   3.345
72980SOL    HW220838   5.869   2.639   3.217
72981SOL     OW20839   6.131  12.596   8.290
72981SOL    HW120840   6.215  12.594   8.244
72981SOL    HW220841   6.105  12.504   8.298
72982SOL     OW20842   1.074   1.235   3.814
72982SOL    HW120843   1.128   1.164   3.847
72982SOL    HW220844   0.998   1.237   3.871
72983SOL     OW20845   3.278   3.233   5.992
72983SOL    HW120846   3.289   3.139   5.975
72983SOL    HW220847   3.188   3.252   5.963
72984SOL     OW20848  13.071  14.398   2.523
72984SOL    HW120849  13.055  14.475   2.469
72984SOL    HW220850  12.998  14.397   2.586
72985SOL     OW20851   2.627   1.469  11.989
72985SOL    HW120852   2.659   1.542  11.936
72985SOL    HW220853   2.700   1.448  12.047
72986SOL     OW20854  10.693   9.258  14.574
72986SOL    HW120855  10.691   9.180  14.519
72986SOL    HW220856  10.606   9.297  14.564
72987SOL     OW20857   3.543   2.124   8.141
72987SOL    HW120858   3.461   2.122   8.092
72987SOL    HW220859   3.515   2.124   8.233
72988SOL     OW20860   9.257   0.476  13.533
72988SOL    HW120861   9.217   0.390  13.519
72988SOL    HW220862   9.253   0.518  13.448
72989SOL     OW20863  13.668   3.954  13.911
72989SOL    HW120864  13.678   4.019  13.980
72989SOL    HW220865  13.754   3.948  13.871
72990SOL     OW20866   8.920   2.223   9.687
72990SOL    HW120867   8.907   2.304   9.736
72990SOL    HW220868   9.014   2.207   9.693
72991SOL     OW20869  13.700   4.451  14.097
72991SOL    HW120870  13.690   4.533  14.146
72991SOL    HW220871  13.791   4.453  14.067
72992SOL     OW20872   3.305   5.472  10.632
72992SOL    HW120873   3.369   5.427  10.687
72992SOL    HW220874   3.341   5.466  10.544
72993SOL     OW20875  12.237   3.177   4.888
72993SOL    HW120876  12.217   3.158   4.796
72993SOL    HW220877  12.332   3.167   4.894
72994SOL     OW20878   2.976   1.394   7.313
72994SOL    HW120879   2.885   1.374   7.293
72994SOL    HW220880   2.972   1.476   7.364
72995SOL     OW20881   6.308   5.117   2.661
72995SOL    HW120882   6.221   5.104   2.623
72995SOL    HW220883   6.345   5.190   2.612
72996SOL     OW20884   7.510  11.179   5.842
72996SOL    HW120885   7.573  11.169   5.771
72996SOL    HW220886   7.516  11.272   5.865
72997SOL     OW20887  14.381   4.390   9.357
72997SOL    HW120888  14.375   4.336   9.436
72997SOL    HW220889  14.436   4.340   9.297
72998SOL     OW20890  10.504   4.430   1.971
72998SOL    HW120891  10.531   4.341   1.949
72998SOL    HW220892  10.581   4.484   1.950
72999SOL     OW20893  13.237   6.427  13.765
72999SOL    HW120894  13.322   6.471  13.762
72999SOL    HW220895  13.197   6.459  13.846
73000SOL     OW20896   4.490   5.477   2.238
73000SOL    HW120897   4.430   5.439   2.175
73000SOL    HW220898   4.453   5.456   2.324
73001SOL     OW20899   8.496   0.766  14.676
73001SOL    HW120900   8.553   0.723  14.612
73001SOL    HW220901   8.420   0.795  14.626
73002SOL     OW20902   7.014   7.409   2.310
73002SOL    HW120903   7.019   7.469   2.235
73002SOL    HW220904   7.071   7.449   2.376
73003SOL     OW20905  14.095  13.527   1.393
73003SOL    HW120906  14.183  13.507   1.427
73003SOL    HW220907  14.075  13.614   1.427
73004SOL     OW20908   5.305   9.753   5.131
73004SOL    HW120909   5.315   9.821   5.064
73004SOL    HW220910   5.296   9.802   5.213
73005SOL     OW20911   2.693   2.804  13.373
73005SOL    HW120912   2.606   2.799  13.333
73005SOL    HW220913   2.689   2.741  13.445
73006SOL     OW20914   0.357   8.657   1.919
73006SOL    HW120915   0.440   8.620   1.950
73006SOL    HW220916   0.297   8.647   1.992
73007SOL     OW20917   0.151   3.901  13.589
73007SOL    HW120918   0.235   3.935  13.557
73007SOL    HW220919   0.163   3.806  13.593
73008SOL     OW20920   6.804  14.673  10.743
73008SOL    HW120921   6.792  14.578  10.743
73008SOL    HW220922   6.859  14.690  10.819
73009SOL     OW20923   2.748   5.047   4.066
73009SOL    HW120924   2.739   4.964   4.019
73009SOL    HW220925   2.833   5.080   4.040
73010SOL     OW20926   0.181  13.125   2.265
73010SOL    HW120927   0.235  13.117   2.186
73010SOL    HW220928   0.221  13.197   2.314
73011SOL     OW20929   1.470   7.926   7.781
73011SOL    HW120930   1.396   7.868   7.800
73011SOL    HW220931   1.442   8.012   7.811
73012SOL     OW20932   8.254   8.580   5.421
73012SOL    HW120933   8.193   8.563   5.348
73012SOL    HW220934   8.203   8.632   5.483
73013SOL     OW20935   9.912  12.696  10.305
73013SOL    HW120936   9.876  12.617  10.264
73013SOL    HW220937   9.836  12.752  10.320
73014SOL     OW20938  14.742  13.758   8.414
73014SOL    HW120939  14.707  13.698   8.480
73014SOL    HW220940  14.764  13.837   8.463
73015SOL     OW20941   0.034  13.067   7.852
73015SOL    HW120942  14.850  13.134   7.808
73015SOL    HW220943   0.125  13.096   7.841
73016SOL     OW20944   7.669  11.922   5.134
73016SOL    HW120945   7.594  11.935   5.076
73016SOL    HW220946   7.745  11.950   5.082
73017SOL     OW20947   5.325   9.799   9.248
73017SOL    HW120948   5.259   9.838   9.191
73017SOL    HW220949   5.350   9.870   9.307
73018SOL     OW20950   2.215  12.874  11.532
73018SOL    HW120951   2.133  12.864  11.581
73018SOL    HW220952   2.275  12.811  11.573
73019SOL     OW20953   7.715   5.958   4.209
73019SOL    HW120954   7.769   5.976   4.133
73019SOL    HW220955   7.735   6.029   4.270
73020SOL     OW20956  13.222   0.737  14.793
73020SOL    HW120957  13.307   0.766  14.825
73020SOL    HW220958  13.236   0.646  14.767
73021SOL     OW20959   7.663   8.433   4.414
73021SOL    HW120960   7.627   8.509   4.458
73021SOL    HW220961   7.749   8.461   4.383
73022SOL     OW20962  12.835   6.539   9.382
73022SOL    HW120963  12.798   6.452   9.400
73022SOL    HW220964  12.859   6.573   9.468
73023SOL     OW20965   0.965  14.353   1.898
73023SOL    HW120966   0.972  14.349   1.802
73023SOL    HW220967   0.977  14.262   1.926
73024SOL     OW20968   6.408  14.695  10.369
73024SOL    HW120969   6.391  14.647  10.449
73024SOL    HW220970   6.362  14.647  10.301
73025SOL     OW20971  10.934   0.961   1.757
73025SOL    HW120972  10.978   0.941   1.675
73025SOL    HW220973  10.877   0.886   1.773
73026SOL     OW20974   6.613   2.979  11.762
73026SOL    HW120975   6.670   3.019  11.695
73026SOL    HW220976   6.668   2.974  11.840
73027SOL     OW20977  10.058  11.368   9.305
73027SOL    HW120978  10.124  11.437   9.304
73027SOL    HW220979  10.102  11.292   9.265
73028SOL     OW20980   4.023   1.613   7.949
73028SOL    HW120981   3.949   1.565   7.912
73028SOL    HW220982   4.095   1.550   7.948
73029SOL     OW20983  13.740   9.768  11.940
73029SOL    HW120984  13.823   9.749  11.897
73029SOL    HW220985  13.695   9.683  11.941
73030SOL     OW20986   2.907   1.594   6.790
73030SOL    HW120987   2.876   1.521   6.843
73030SOL    HW220988   3.000   1.603   6.813
73031SOL     OW20989   5.819   5.436   5.470
73031SOL    HW120990   5.845   5.492   5.398
73031SOL    HW220991   5.848   5.348   5.444
73032SOL     OW20992  10.150   2.886  13.485
73032SOL    HW120993  10.176   2.867  13.395
73032SOL    HW220994  10.109   2.972  13.481
73033SOL     OW20995  13.852  14.663   1.613
73033SOL    HW120996  13.770  14.704   1.641
73033SOL    HW220997  13.914  14.684   1.683
73034SOL     OW20998   8.472  10.170   8.486
73034SOL    HW120999   8.499  10.174   8.578
73034SOL    HW221000   8.539  10.117   8.443
73035SOL     OW21001  13.057   0.854   8.954
73035SOL    HW121002  13.067   0.925   8.891
73035SOL    HW221003  13.066   0.774   8.903
73036SOL     OW21004   8.919   3.245  12.433
73036SOL    HW121005   8.912   3.235  12.338
73036SOL    HW221006   9.001   3.292  12.446
73037SOL     OW21007   0.284   6.801   1.364
73037SOL    HW121008   0.313   6.711   1.377
73037SOL    HW221009   0.342   6.835   1.295
73038SOL     OW21010   6.697   8.157   7.242
73038SOL    HW121011   6.644   8.077   7.244
73038SOL    HW221012   6.723   8.166   7.150
73039SOL     OW21013   7.168  10.649  13.792
73039SOL    HW121014   7.073  10.653  13.796
73039SOL    HW221015   7.194  10.613  13.877
73040SOL     OW21016  12.546  10.961   2.408
73040SOL    HW121017  12.497  10.954   2.327
73040SOL    HW221018  12.618  11.020   2.387
73041SOL     OW21019   8.076  11.095   0.455
73041SOL    HW121020   8.061  11.110   0.548
73041SOL    HW221021   8.147  11.031   0.452
73042SOL     OW21022   5.195   8.086   9.044
73042SOL    HW121023   5.163   8.020   9.105
73042SOL    HW221024   5.126   8.093   8.977
73043SOL     OW21025   0.072  13.146  13.850
73043SOL    HW121026  14.846  13.146  13.869
73043SOL    HW221027   0.093  13.237  13.831
73044SOL     OW21028  14.669   8.724  13.436
73044SOL    HW121029  14.618   8.768  13.368
73044SOL    HW221030  14.701   8.644  13.393
73045SOL     OW21031   4.093  14.474   8.147
73045SOL    HW121032   4.142  14.440   8.221
73045SOL    HW221033   4.133  14.432   8.070
73046SOL     OW21034   8.104   9.325  10.861
73046SOL    HW121035   8.157   9.346  10.938
73046SOL    HW221036   8.028   9.384  10.868
73047SOL     OW21037  11.785  11.193   0.018
73047SOL    HW121038  11.755  11.117   0.068
73047SOL    HW221039  11.730  11.195  14.808
73048SOL     OW21040   8.983   6.230  13.769
73048SOL    HW121041   8.906   6.174  13.756
73048SOL    HW221042   9.032   6.187  13.839
73049SOL     OW21043  13.421  12.840   9.891
73049SOL    HW121044  13.424  12.928   9.930
73049SOL    HW221045  13.377  12.786   9.957
73050SOL     OW21046  11.321   0.422   7.010
73050SOL    HW121047  11.384   0.377   6.953
73050SOL    HW221048  11.285   0.353   7.066
73051SOL     OW21049   1.152   6.727   6.863
73051SOL    HW121050   1.132   6.717   6.956
73051SOL    HW221051   1.070   6.703   6.819
73052SOL     OW21052   8.368   1.463   3.404
73052SOL    HW121053   8.307   1.476   3.332
73052SOL    HW221054   8.326   1.506   3.479
73053SOL     OW21055   4.092   8.084  12.156
73053SOL    HW121056   4.071   8.167  12.198
73053SOL    HW221057   4.181   8.064  12.185
73054SOL     OW21058   7.647   0.928   7.229
73054SOL    HW121059   7.636   0.869   7.154
73054SOL    HW221060   7.584   0.998   7.213
73055SOL     OW21061  14.353  12.036   1.907
73055SOL    HW121062  14.257  12.033   1.905
73055SOL    HW221063  14.380  11.990   1.827
73056SOL     OW21064   4.407   1.021  12.148
73056SOL    HW121065   4.355   1.066  12.082
73056SOL    HW221066   4.495   1.017  12.111
73057SOL     OW21067  13.485   3.364   0.975
73057SOL    HW121068  13.455   3.296   0.915
73057SOL    HW221069  13.459   3.446   0.934
73058SOL     OW21070   0.820   7.408  13.784
73058SOL    HW121071   0.869   7.476  13.739
73058SOL    HW221072   0.825   7.431  13.876
73059SOL     OW21073  13.759   6.291   4.379
73059SOL    HW121074  13.679   6.243   4.400
73059SOL    HW221075  13.830   6.230   4.398
73060SOL     OW21076  11.975   5.803   2.434
73060SOL    HW121077  11.980   5.770   2.345
73060SOL    HW221078  11.893   5.766   2.468
73061SOL     OW21079   5.429  10.679  14.167
73061SOL    HW121080   5.504  10.656  14.222
73061SOL    HW221081   5.388  10.595  14.145
73062SOL     OW21082   8.244   5.890   1.661
73062SOL    HW121083   8.327   5.901   1.614
73062SOL    HW221084   8.260   5.929   1.747
73063SOL     OW21085  12.840   9.355   0.604
73063SOL    HW121086  12.798   9.372   0.520
73063SOL    HW221087  12.934   9.354   0.585
73064SOL     OW21088   8.282   7.663  12.961
73064SOL    HW121089   8.254   7.664  13.053
73064SOL    HW221090   8.345   7.591  12.957
73065SOL     OW21091  12.401   5.811   6.104
73065SOL    HW121092  12.361   5.785   6.187
73065SOL    HW221093  12.340   5.875   6.066
73066SOL     OW21094   8.089  11.886   9.208
73066SOL    HW121095   8.061  11.829   9.137
73066SOL    HW221096   8.128  11.827   9.273
73067SOL     OW21097   7.275   6.354   2.381
73067SOL    HW121098   7.281   6.289   2.311
73067SOL    HW221099   7.364   6.359   2.417
73068SOL     OW21100   3.395  14.535  14.216
73068SOL    HW121101   3.380  14.482  14.294
73068SOL    HW221102   3.311  14.577  14.199
73069SOL     OW21103   9.100   8.103   0.920
73069SOL    HW121104   9.139   8.054   0.992
73069SOL    HW221105   9.170   8.112   0.856
73070SOL     OW21106   9.739   6.997  13.578
73070SOL    HW121107   9.666   6.957  13.532
73070SOL    HW221108   9.711   7.086  13.597
73071SOL     OW21109  14.476  11.337   7.051
73071SOL    HW121110  14.414  11.274   7.015
73071SOL    HW221111  14.422  11.409   7.082
73072SOL     OW21112  11.486  10.517  10.801
73072SOL    HW121113  11.518  10.569  10.727
73072SOL    HW221114  11.423  10.574  10.845
73073SOL     OW21115  10.385   7.513  13.404
73073SOL    HW121116  10.334   7.594  13.407
73073SOL    HW221117  10.434   7.513  13.486
73074SOL     OW21118  14.178   2.245   4.509
73074SOL    HW121119  14.164   2.339   4.521
73074SOL    HW221120  14.131   2.224   4.429
73075SOL     OW21121   8.082  10.269   0.453
73075SOL    HW121122   8.117  10.347   0.412
73075SOL    HW221123   8.147  10.246   0.521
73076SOL     OW21124   6.976  10.218   3.948
73076SOL    HW121125   6.911  10.164   3.993
73076SOL    HW221126   6.935  10.237   3.863
73077SOL     OW21127   1.741   7.278   6.492
73077SOL    HW121128   1.805   7.327   6.544
73077SOL    HW221129   1.657   7.298   6.531
73078SOL     OW21130   4.075  14.792  10.257
73078SOL    HW121131   4.049   0.004  10.303
73078SOL    HW221132   4.038  14.721  10.308
73079SOL     OW21133   9.607   0.706  13.689
73079SOL    HW121134   9.693   0.731  13.722
73079SOL    HW221135   9.558   0.678  13.766
73080SOL     OW21136  13.099  12.606   5.702
73080SOL    HW121137  13.192  12.583   5.702
73080SOL    HW221138  13.088  12.662   5.778
73081SOL     OW21139   0.527  11.203  14.162
73081SOL    HW121140   0.447  11.177  14.118
73081SOL    HW221141   0.594  11.204  14.093
73082SOL     OW21142   3.047   9.352   5.773
73082SOL    HW121143   3.113   9.355   5.705
73082SOL    HW221144   3.063   9.429   5.827
73083SOL     OW21145  14.210   6.101   9.232
73083SOL    HW121146  14.183   6.150   9.310
73083SOL    HW221147  14.174   6.151   9.159
73084SOL     OW21148  12.545   5.071   0.217
73084SOL    HW121149  12.494   5.117   0.151
73084SOL    HW221150  12.495   4.991   0.235
73085SOL     OW21151  12.993   5.760   2.260
73085SOL    HW121152  12.912   5.725   2.297
73085SOL    HW221153  13.016   5.699   2.190
73086SOL     OW21154   8.839   0.830   0.374
73086SOL    HW121155   8.919   0.872   0.341
73086SOL    HW221156   8.854   0.822   0.468
73087SOL     OW21157  11.227   1.328   3.408
73087SOL    HW121158  11.245   1.266   3.337
73087SOL    HW221159  11.310   1.335   3.455
73088SOL     OW21160   4.195   9.018  11.085
73088SOL    HW121161   4.200   9.113  11.088
73088SOL    HW221162   4.285   8.989  11.074
73089SOL     OW21163   3.049   4.087  14.526
73089SOL    HW121164   3.120   4.035  14.563
73089SOL    HW221165   3.016   4.138  14.600
73090SOL     OW21166   2.743  12.130  13.093
73090SOL    HW121167   2.668  12.183  13.067
73090SOL    HW221168   2.704  12.050  13.129
73091SOL     OW21169   0.531  13.609  14.030
73091SOL    HW121170   0.492  13.522  14.042
73091SOL    HW221171   0.572  13.628  14.115
73092SOL     OW21172   2.922  11.167   8.929
73092SOL    HW121173   2.925  11.085   8.979
73092SOL    HW221174   2.921  11.139   8.838
73093SOL     OW21175  10.813   9.876   1.908
73093SOL    HW121176  10.760   9.905   1.834
73093SOL    HW221177  10.874   9.813   1.870
73094SOL     OW21178   3.752   3.011   3.057
73094SOL    HW121179   3.691   3.027   2.985
73094SOL    HW221180   3.836   3.045   3.027
73095SOL     OW21181  10.214   7.513  11.637
73095SOL    HW121182  10.151   7.441  11.646
73095SOL    HW221183  10.294   7.471  11.605
73096SOL     OW21184   9.516   9.771   6.177
73096SOL    HW121185   9.511   9.684   6.216
73096SOL    HW221186   9.530   9.830   6.251
73097SOL     OW21187  13.580   1.253   6.921
73097SOL    HW121188  13.617   1.170   6.889
73097SOL    HW221189  13.523   1.282   6.849
73098SOL     OW21190  12.993   7.814   8.528
73098SOL    HW121191  13.021   7.894   8.482
73098SOL    HW221192  13.073   7.762   8.535
73099SOL     OW21193   2.493   2.048   8.649
73099SOL    HW121194   2.452   2.134   8.655
73099SOL    HW221195   2.446   1.995   8.714
73100SOL     OW21196   8.969   7.902   4.809
73100SOL    HW121197   9.060   7.907   4.780
73100SOL    HW221198   8.973   7.911   4.904
73101SOL     OW21199  10.476   3.518  10.725
73101SOL    HW121200  10.507   3.547  10.640
73101SOL    HW221201  10.539   3.451  10.752
73102SOL     OW21202  11.124  11.322  13.355
73102SOL    HW121203  11.035  11.313  13.390
73102SOL    HW221204  11.154  11.232  13.343
73103SOL     OW21205   6.743   5.976   9.217
73103SOL    HW121206   6.722   5.923   9.140
73103SOL    HW221207   6.676   5.954   9.281
73104SOL     OW21208   6.692   7.327  11.516
73104SOL    HW121209   6.722   7.401  11.569
73104SOL    HW221210   6.601   7.315  11.540
73105SOL     OW21211  12.270   2.808   9.418
73105SOL    HW121212  12.335   2.769   9.476
73105SOL    HW221213  12.263   2.898   9.448
73106SOL     OW21214   9.576  12.444  10.349
73106SOL    HW121215   9.625  12.457  10.268
73106SOL    HW221216   9.487  12.424  10.320
73107SOL     OW21217   0.981   8.474  14.472
73107SOL    HW121218   0.895   8.457  14.436
73107SOL    HW221219   1.013   8.550  14.423
73108SOL     OW21220   7.648   3.651   1.545
73108SOL    HW121221   7.573   3.710   1.553
73108SOL    HW221222   7.684   3.648   1.634
73109SOL     OW21223   4.411   2.218   1.131
73109SOL    HW121224   4.430   2.124   1.124
73109SOL    HW221225   4.432   2.254   1.045
73110SOL     OW21226   7.106   8.764   5.943
73110SOL    HW121227   7.027   8.802   5.904
73110SOL    HW221228   7.076   8.681   5.981
73111SOL     OW21229  10.391  11.060   5.218
73111SOL    HW121230  10.423  11.145   5.190
73111SOL    HW221231  10.420  10.999   5.150
73112SOL     OW21232  14.164  10.741   7.445
73112SOL    HW121233  14.169  10.760   7.351
73112SOL    HW221234  14.072  10.749   7.467
73113SOL     OW21235   9.090   8.410   3.170
73113SOL    HW121236   9.140   8.402   3.251
73113SOL    HW221237   9.050   8.497   3.175
73114SOL     OW21238   9.439   7.659   1.492
73114SOL    HW121239   9.481   7.654   1.578
73114SOL    HW221240   9.346   7.656   1.510
73115SOL     OW21241  10.842  11.191   3.773
73115SOL    HW121242  10.834  11.097   3.761
73115SOL    HW221243  10.815  11.229   3.689
73116SOL     OW21244   8.958  10.354  13.870
73116SOL    HW121245   8.939  10.260  13.873
73116SOL    HW221246   8.906  10.387  13.797
73117SOL     OW21247   4.113   7.546   2.211
73117SOL    HW121248   4.057   7.585   2.144
73117SOL    HW221249   4.197   7.533   2.168
73118SOL     OW21250   8.080   7.607   1.291
73118SOL    HW121251   8.154   7.661   1.263
73118SOL    HW221252   8.009   7.669   1.308
73119SOL     OW21253  14.368  10.406   1.982
73119SOL    HW121254  14.276  10.389   2.001
73119SOL    HW221255  14.409  10.319   1.980
73120SOL     OW21256   6.260  10.607   1.595
73120SOL    HW121257   6.290  10.676   1.655
73120SOL    HW221258   6.325  10.605   1.525
73121SOL     OW21259   3.894   4.730   5.390
73121SOL    HW121260   3.877   4.769   5.304
73121SOL    HW221261   3.906   4.804   5.449
73122SOL     OW21262   5.356  13.109   8.024
73122SOL    HW121263   5.406  13.030   8.045
73122SOL    HW221264   5.341  13.102   7.930
73123SOL     OW21265   0.821  11.106   7.847
73123SOL    HW121266   0.901  11.098   7.899
73123SOL    HW221267   0.777  11.022   7.856
73124SOL     OW21268   6.418  14.528   1.229
73124SOL    HW121269   6.468  14.538   1.310
73124SOL    HW221270   6.332  14.563   1.249
73125SOL     OW21271  11.762  11.426   4.203
73125SOL    HW121272  11.838  11.444   4.259
73125SOL    HW221273  11.716  11.354   4.247
73126SOL     OW21274  14.499   0.984   5.905
73126SOL    HW121275  14.509   1.061   5.848
73126SOL    HW221276  14.531   0.911   5.852
73127SOL     OW21277   7.086   3.151   0.261
73127SOL    HW121278   7.094   3.070   0.310
73127SOL    HW221279   7.168   3.198   0.278
73128SOL     OW21280   4.426   9.644   5.831
73128SOL    HW121281   4.454   9.591   5.906
73128SOL    HW221282   4.413   9.581   5.761
73129SOL     OW21283   5.454   5.017  13.449
73129SOL    HW121284   5.415   4.931  13.436
73129SOL    HW221285   5.403   5.076  13.393
73130SOL     OW21286  11.774   7.340   4.402
73130SOL    HW121287  11.753   7.328   4.494
73130SOL    HW221288  11.787   7.434   4.392
73131SOL     OW21289   1.682   4.051  12.683
73131SOL    HW121290   1.752   3.987  12.673
73131SOL    HW221291   1.618   4.008  12.739
73132SOL     OW21292   6.820  14.252   7.878
73132SOL    HW121293   6.779  14.296   7.953
73132SOL    HW221294   6.781  14.293   7.801
73133SOL     OW21295  10.452   8.502   5.329
73133SOL    HW121296  10.527   8.447   5.305
73133SOL    HW221297  10.483   8.554   5.403
73134SOL     OW21298   7.154  12.093   3.590
73134SOL    HW121299   7.097  12.041   3.534
73134SOL    HW221300   7.120  12.080   3.678
73135SOL     OW21301   1.110   2.357   2.501
73135SOL    HW121302   1.077   2.433   2.453
73135SOL    HW221303   1.064   2.359   2.585
73136SOL     OW21304   3.655  10.413   8.671
73136SOL    HW121305   3.663  10.371   8.757
73136SOL    HW221306   3.689  10.501   8.685
73137SOL     OW21307   7.731  14.335   0.589
73137SOL    HW121308   7.695  14.246   0.598
73137SOL    HW221309   7.800  14.326   0.524
73138SOL     OW21310   8.013  13.885   1.209
73138SOL    HW121311   8.029  13.979   1.213
73138SOL    HW221312   7.955  13.867   1.283
73139SOL     OW21313   6.173   4.847  12.938
73139SOL    HW121314   6.133   4.790  13.003
73139SOL    HW221315   6.196   4.926  12.986
73140SOL     OW21316   4.842   5.350   6.893
73140SOL    HW121317   4.934   5.354   6.865
73140SOL    HW221318   4.792   5.358   6.811
73141SOL     OW21319   2.329   7.190  10.663
73141SOL    HW121320   2.395   7.256  10.643
73141SOL    HW221321   2.325   7.136  10.585
73142SOL     OW21322  13.275   7.467  13.558
73142SOL    HW121323  13.352   7.524  13.563
73142SOL    HW221324  13.243   7.462  13.648
73143SOL     OW21325  13.236   0.305   0.177
73143SOL    HW121326  13.185   0.381   0.147
73143SOL    HW221327  13.317   0.341   0.211
73144SOL     OW21328  14.707  11.714   3.211
73144SOL    HW121329  14.703  11.640   3.272
73144SOL    HW221330  14.675  11.789   3.263
73145SOL     OW21331  13.007   2.824   9.389
73145SOL    HW121332  12.934   2.846   9.448
73145SOL    HW221333  13.058   2.760   9.438
73146SOL     OW21334  12.020   0.925  10.007
73146SOL    HW121335  11.974   0.993   9.957
73146SOL    HW221336  12.110   0.930   9.976
73147SOL     OW21337   3.989  10.524  12.579
73147SOL    HW121338   3.986  10.595  12.514
73147SOL    HW221339   3.908  10.475  12.565
73148SOL     OW21340   3.412  12.491  11.176
73148SOL    HW121341   3.344  12.517  11.238
73148SOL    HW221342   3.454  12.573  11.150
73149SOL     OW21343   9.438   7.154   8.362
73149SOL    HW121344   9.444   7.132   8.269
73149SOL    HW221345   9.497   7.228   8.374
73150SOL     OW21346  11.847   0.859   2.268
73150SOL    HW121347  11.938   0.849   2.298
73150SOL    HW221348  11.855   0.874   2.174
73151SOL     OW21349   4.660   6.939   5.712
73151SOL    HW121350   4.731   6.892   5.755
73151SOL    HW221351   4.653   7.022   5.760
73152SOL     OW21352  14.505   5.359   6.974
73152SOL    HW121353  14.449   5.333   6.901
73152SOL    HW221354  14.443   5.386   7.042
73153SOL     OW21355   6.552   7.544   5.849
73153SOL    HW121356   6.489   7.550   5.777
73153SOL    HW221357   6.514   7.478   5.907
73154SOL     OW21358  13.665   4.793  14.566
73154SOL    HW121359  13.584   4.793  14.515
73154SOL    HW221360  13.651   4.728  14.635
73155SOL     OW21361  10.338  10.155   3.184
73155SOL    HW121362  10.359  10.114   3.268
73155SOL    HW221363  10.422  10.168   3.141
73156SOL     OW21364  11.846   2.188   1.583
73156SOL    HW121365  11.776   2.146   1.634
73156SOL    HW221366  11.926   2.144   1.612
73157SOL     OW21367   0.711  14.776   3.269
73157SOL    HW121368   0.688  14.768   3.361
73157SOL    HW221369   0.804  14.799   3.269
73158SOL     OW21370   2.264   2.264  12.108
73158SOL    HW121371   2.237   2.275  12.017
73158SOL    HW221372   2.208   2.193  12.141
73159SOL     OW21373   6.185   5.994   7.060
73159SOL    HW121374   6.214   6.037   7.141
73159SOL    HW221375   6.126   5.924   7.089
73160SOL     OW21376   4.679   7.539   8.151
73160SOL    HW121377   4.774   7.547   8.149
73160SOL    HW221378   4.663   7.445   8.136
73161SOL     OW21379   4.636  13.849  14.117
73161SOL    HW121380   4.702  13.798  14.165
73161SOL    HW221381   4.605  13.790  14.048
73162SOL     OW21382  11.093  12.067   9.606
73162SOL    HW121383  11.051  11.998   9.656
73162SOL    HW221384  11.187  12.050   9.615
73163SOL     OW21385   0.304   7.953   9.565
73163SOL    HW121386   0.297   7.860   9.544
73163SOL    HW221387   0.396   7.966   9.590
73164SOL     OW21388  13.991   5.696   0.929
73164SOL    HW121389  13.968   5.782   0.963
73164SOL    HW221390  14.085   5.701   0.913
73165SOL     OW21391   2.865   9.759   8.132
73165SOL    HW121392   2.821   9.843   8.143
73165SOL    HW221393   2.949   9.780   8.091
73166SOL     OW21394   2.585   0.505   2.927
73166SOL    HW121395   2.543   0.479   3.009
73166SOL    HW221396   2.670   0.540   2.954
73167SOL     OW21397   1.313   0.082  10.597
73167SOL    HW121398   1.340   0.021  10.528
73167SOL    HW221399   1.395   0.122  10.627
73168SOL     OW21400   3.256   0.597   2.904
73168SOL    HW121401   3.241   0.561   2.992
73168SOL    HW221402   3.326   0.661   2.916
73169SOL     OW21403   3.356   9.453   2.358
73169SOL    HW121404   3.305   9.470   2.278
73169SOL    HW221405   3.447   9.452   2.328
73170SOL     OW21406   8.713   8.934  12.035
73170SOL    HW121407   8.618   8.938  12.029
73170SOL    HW221408   8.739   9.021  12.067
73171SOL     OW21409  12.316  12.686   5.021
73171SOL    HW121410  12.386  12.651   5.077
73171SOL    HW221411  12.298  12.617   4.957
73172SOL     OW21412   2.940  13.812  11.184
73172SOL    HW121413   2.879  13.738  11.177
73172SOL    HW221414   2.969  13.827  11.094
73173SOL     OW21415  11.263  11.098  12.298
73173SOL    HW121416  11.201  11.045  12.348
73173SOL    HW221417  11.232  11.092  12.208
73174SOL     OW21418   5.966   4.575   6.473
73174SOL    HW121419   5.877   4.576   6.508
73174SOL    HW221420   5.956   4.541   6.384
73175SOL     OW21421  12.045  11.862   6.727
73175SOL    HW121422  12.092  11.920   6.666
73175SOL    HW221423  12.110  11.799   6.756
73176SOL     OW21424   4.602  12.020   4.583
73176SOL    HW121425   4.555  11.937   4.594
73176SOL    HW221426   4.546  12.086   4.623
73177SOL     OW21427  10.606   9.448   6.637
73177SOL    HW121428  10.553   9.393   6.695
73177SOL    HW221429  10.580   9.538   6.659
73178SOL     OW21430  14.717  10.307  12.772
73178SOL    HW121431  14.661  10.336  12.844
73178SOL    HW221432  14.658  10.260  12.713
73179SOL     OW21433  10.902   0.186  14.840
73179SOL    HW121434  10.829   0.124  14.841
73179SOL    HW221435  10.862   0.270  14.817
73180SOL     OW21436   5.692  12.380   9.335
73180SOL    HW121437   5.773  12.335   9.312
73180SOL    HW221438   5.630  12.353   9.267
73181SOL     OW21439   6.371  13.297   5.450
73181SOL    HW121440   6.416  13.265   5.372
73181SOL    HW221441   6.295  13.240   5.460
73182SOL     OW21442  10.848  11.353   0.011
73182SOL    HW121443  10.864  11.300   0.089
73182SOL    HW221444  10.793  11.298  14.823
73183SOL     OW21445  12.877   2.467   5.435
73183SOL    HW121446  12.837   2.537   5.383
73183SOL    HW221447  12.819   2.457   5.510
73184SOL     OW21448  11.984  12.390   8.549
73184SOL    HW121449  11.985  12.464   8.610
73184SOL    HW221450  12.064  12.400   8.498
73185SOL     OW21451   7.457   2.767   9.873
73185SOL    HW121452   7.515   2.798   9.803
73185SOL    HW221453   7.448   2.673   9.857
73186SOL     OW21454   8.192   1.658   7.335
73186SOL    HW121455   8.145   1.602   7.273
73186SOL    HW221456   8.272   1.610   7.356
73187SOL     OW21457   2.148   7.453   9.799
73187SOL    HW121458   2.140   7.377   9.741
73187SOL    HW221459   2.064   7.457   9.845
73188SOL     OW21460   4.792   9.324   2.864
73188SOL    HW121461   4.755   9.381   2.797
73188SOL    HW221462   4.863   9.376   2.903
73189SOL     OW21463   4.851   1.556  14.036
73189SOL    HW121464   4.781   1.613  14.069
73189SOL    HW221465   4.926   1.576  14.092
73190SOL     OW21466   0.486   4.363  14.486
73190SOL    HW121467   0.495   4.432  14.552
73190SOL    HW221468   0.575   4.333  14.470
73191SOL     OW21469   5.806   3.312   3.463
73191SOL    HW121470   5.820   3.232   3.514
73191SOL    HW221471   5.891   3.354   3.460
73192SOL     OW21472  10.112   8.494   0.866
73192SOL    HW121473  10.039   8.516   0.924
73192SOL    HW221474  10.081   8.517   0.779
73193SOL     OW21475   9.388  13.311  13.900
73193SOL    HW121476   9.385  13.397  13.941
73193SOL    HW221477   9.394  13.328  13.806
73194SOL     OW21478   0.137  10.310   2.297
73194SOL    HW121479   0.154  10.403   2.310
73194SOL    HW221480   0.210  10.267   2.342
73195SOL     OW21481   3.485   1.657   2.467
73195SOL    HW121482   3.577   1.681   2.477
73195SOL    HW221483   3.454   1.640   2.556
73196SOL     OW21484   8.132  14.618   9.354
73196SOL    HW121485   8.200  14.552   9.347
73196SOL    HW221486   8.174  14.700   9.329
73197SOL     OW21487   0.936   6.208   2.141
73197SOL    HW121488   0.916   6.179   2.052
73197SOL    HW221489   0.870   6.274   2.160
73198SOL     OW21490  13.724   3.171   7.748
73198SOL    HW121491  13.748   3.095   7.695
73198SOL    HW221492  13.656   3.215   7.697
73199SOL     OW21493   9.756  11.361  10.847
73199SOL    HW121494   9.775  11.267  10.849
73199SOL    HW221495   9.840  11.401  10.824
73200SOL     OW21496   3.666  12.183  12.245
73200SOL    HW121497   3.581  12.147  12.273
73200SOL    HW221498   3.728  12.111  12.258
73201SOL     OW21499   6.552   2.854  12.186
73201SOL    HW121500   6.570   2.865  12.093
73201SOL    HW221501   6.510   2.768  12.191
73202SOL     OW21502   7.924   4.385   3.149
73202SOL    HW121503   7.932   4.407   3.056
73202SOL    HW221504   7.909   4.290   3.150
73203SOL     OW21505   7.990   2.485  13.102
73203SOL    HW121506   7.927   2.551  13.072
73203SOL    HW221507   8.052   2.476  13.030
73204SOL     OW21508  14.441   4.324   7.434
73204SOL    HW121509  14.375   4.271   7.389
73204SOL    HW221510  14.507   4.341   7.367
73205SOL     OW21511   2.988  12.319   1.212
73205SOL    HW121512   2.959  12.334   1.122
73205SOL    HW221513   3.083  12.332   1.210
73206SOL     OW21514   4.692  14.849   9.828
73206SOL    HW121515   4.641  14.783   9.781
73206SOL    HW221516   4.678   0.062   9.778
73207SOL     OW21517   1.414  10.781  12.477
73207SOL    HW121518   1.370  10.834  12.544
73207SOL    HW221519   1.507  10.802  12.487
73208SOL     OW21520  11.287  11.822   1.745
73208SOL    HW121521  11.210  11.861   1.704
73208SOL    HW221522  11.252  11.763   1.811
73209SOL     OW21523   8.463   3.744  12.818
73209SOL    HW121524   8.481   3.699  12.736
73209SOL    HW221525   8.537   3.722  12.875
73210SOL     OW21526   9.273   7.893   7.680
73210SOL    HW121527   9.243   7.848   7.601
73210SOL    HW221528   9.200   7.950   7.704
73211SOL     OW21529  11.556   0.663  10.660
73211SOL    HW121530  11.529   0.573  10.645
73211SOL    HW221531  11.640   0.657  10.705
73212SOL     OW21532   2.125  14.536  14.510
73212SOL    HW121533   2.143  14.610  14.453
73212SOL    HW221534   2.041  14.556  14.551
73213SOL     OW21535   5.342  14.310   6.139
73213SOL    HW121536   5.272  14.309   6.073
73213SOL    HW221537   5.421  14.288   6.089
73214SOL     OW21538  11.145   9.045   8.285
73214SOL    HW121539  11.127   9.061   8.378
73214SOL    HW221540  11.190   9.124   8.255
73215SOL     OW21541   5.007   2.542  10.519
73215SOL    HW121542   5.000   2.460  10.567
73215SOL    HW221543   5.065   2.597  10.572
73216SOL     OW21544   5.172  12.552   1.252
73216SOL    HW121545   5.162  12.640   1.287
73216SOL    HW221546   5.194  12.566   1.160
73217SOL     OW21547  12.002   5.564   4.443
73217SOL    HW121548  12.085   5.538   4.482
73217SOL    HW221549  12.002   5.659   4.448
73218SOL     OW21550   6.628  10.307   3.286
73218SOL    HW121551   6.635  10.340   3.196
73218SOL    HW221552   6.572  10.371   3.330
73219SOL     OW21553  10.096  13.618  10.727
73219SOL    HW121554  10.063  13.708  10.737
73219SOL    HW221555  10.033  13.564  10.774
73220SOL     OW21556   4.204   9.331   9.409
73220SOL    HW121557   4.237   9.409   9.364
73220SOL    HW221558   4.109   9.337   9.399
73221SOL     OW21559  14.354   5.836   6.802
73221SOL    HW121560  14.380   5.898   6.734
73221SOL    HW221561  14.429   5.833   6.862
73222SOL     OW21562   9.521   4.859   3.857
73222SOL    HW121563   9.527   4.920   3.783
73222SOL    HW221564   9.469   4.786   3.823
73223SOL     OW21565   1.788   9.334   0.670
73223SOL    HW121566   1.755   9.424   0.681
73223SOL    HW221567   1.781   9.296   0.758
73224SOL     OW21568   7.234   8.546   6.310
73224SOL    HW121569   7.312   8.490   6.301
73224SOL    HW221570   7.172   8.511   6.246
73225SOL     OW21571  12.155   0.868   5.905
73225SOL    HW121572  12.158   0.914   5.988
73225SOL    HW221573  12.243   0.878   5.868
73226SOL     OW21574   1.697   1.481  11.344
73226SOL    HW121575   1.621   1.533  11.316
73226SOL    HW221576   1.658   1.404  11.386
73227SOL     OW21577   2.390   4.904   1.272
73227SOL    HW121578   2.463   4.891   1.211
73227SOL    HW221579   2.426   4.957   1.343
73228SOL     OW21580   5.557  13.249   7.263
73228SOL    HW121581   5.482  13.199   7.293
73228SOL    HW221582   5.543  13.259   7.168
73229SOL     OW21583   0.084   0.760   9.968
73229SOL    HW121584   0.130   0.686  10.008
73229SOL    HW221585   0.037   0.800  10.042
73230SOL     OW21586  14.739   1.713  11.716
73230SOL    HW121587  14.769   1.627  11.686
73230SOL    HW221588  14.802   1.738  11.784
73231SOL     OW21589   7.805   6.020  13.542
73231SOL    HW121590   7.717   6.049  13.567
73231SOL    HW221591   7.792   5.962  13.468
73232SOL     OW21592   7.284  13.390  13.151
73232SOL    HW121593   7.249  13.454  13.090
73232SOL    HW221594   7.326  13.324  13.096
73233SOL     OW21595   9.421   5.651   8.656
73233SOL    HW121596   9.412   5.556   8.664
73233SOL    HW221597   9.332   5.682   8.641
73234SOL     OW21598  10.406  11.844   2.870
73234SOL    HW121599  10.447  11.920   2.911
73234SOL    HW221600  10.435  11.770   2.923
73235SOL     OW21601  12.908   8.924   1.185
73235SOL    HW121602  12.929   8.885   1.271
73235SOL    HW221603  12.993   8.957   1.154
73236SOL     OW21604   9.908   3.814   7.603
73236SOL    HW121605   9.917   3.900   7.645
73236SOL    HW221606   9.815   3.805   7.586
73237SOL     OW21607   3.762   9.541   3.638
73237SOL    HW121608   3.752   9.633   3.612
73237SOL    HW221609   3.846   9.538   3.684
73238SOL     OW21610  10.726   2.136   7.310
73238SOL    HW121611  10.801   2.174   7.265
73238SOL    HW221612  10.650   2.164   7.259
73239SOL     OW21613   0.221   5.714   4.317
73239SOL    HW121614   0.160   5.688   4.387
73239SOL    HW221615   0.294   5.654   4.326
73240SOL     OW21616   6.847   7.016   5.638
73240SOL    HW121617   6.791   7.091   5.660
73240SOL    HW221618   6.856   7.020   5.543
73241SOL     OW21619  10.732   9.501   2.994
73241SOL    HW121620  10.751   9.457   2.911
73241SOL    HW221621  10.659   9.560   2.974
73242SOL     OW21622   4.574   9.581   8.353
73242SOL    HW121623   4.560   9.619   8.265
73242SOL    HW221624   4.490   9.594   8.398
73243SOL     OW21625   6.535   2.286   5.751
73243SOL    HW121626   6.596   2.223   5.788
73243SOL    HW221627   6.485   2.319   5.826
73244SOL     OW21628   4.460   0.233  13.793
73244SOL    HW121629   4.415   0.175  13.732
73244SOL    HW221630   4.392   0.293  13.824
73245SOL     OW21631   9.308  12.407   4.239
73245SOL    HW121632   9.323  12.313   4.239
73245SOL    HW221633   9.296  12.430   4.331
73246SOL     OW21634  12.600   1.355   9.222
73246SOL    HW121635  12.627   1.271   9.186
73246SOL    HW221636  12.577   1.336   9.313
73247SOL     OW21637   4.678  11.927   5.943
73247SOL    HW121638   4.731  11.869   5.888
73247SOL    HW221639   4.658  11.875   6.020
73248SOL     OW21640  10.907   5.805  14.259
73248SOL    HW121641  10.916   5.798  14.354
73248SOL    HW221642  10.996   5.820  14.228
73249SOL     OW21643  12.482  12.964   8.657
73249SOL    HW121644  12.391  12.986   8.678
73249SOL    HW221645  12.525  13.048   8.648
73250SOL     OW21646   8.592   7.290   8.112
73250SOL    HW121647   8.565   7.364   8.166
73250SOL    HW221648   8.598   7.217   8.174
73251SOL     OW21649  10.928   2.723   0.303
73251SOL    HW121650  10.981   2.767   0.237
73251SOL    HW221651  10.912   2.636   0.268
73252SOL     OW21652   0.816   4.272  13.697
73252SOL    HW121653   0.780   4.281  13.609
73252SOL    HW221654   0.907   4.246  13.682
73253SOL     OW21655   3.288   7.828  11.861
73253SOL    HW121656   3.365   7.885  11.862
73253SOL    HW221657   3.318   7.748  11.818
73254SOL     OW21658  14.177   2.640   3.152
73254SOL    HW121659  14.218   2.574   3.096
73254SOL    HW221660  14.084   2.637   3.128
73255SOL     OW21661   0.868  11.736   7.053
73255SOL    HW121662   0.873  11.642   7.036
73255SOL    HW221663   0.946  11.754   7.106
73256SOL     OW21664  14.683   7.294   2.387
73256SOL    HW121665  14.625   7.362   2.352
73256SOL    HW221666  14.634   7.212   2.377
73257SOL     OW21667   7.162   1.816   9.716
73257SOL    HW121668   7.068   1.805   9.729
73257SOL    HW221669   7.200   1.733   9.744
73258SOL     OW21670   0.624   8.722   8.810
73258SOL    HW121671   0.583   8.803   8.841
73258SOL    HW221672   0.576   8.652   8.853
73259SOL     OW21673   1.452  12.685   8.293
73259SOL    HW121674   1.455  12.596   8.326
73259SOL    HW221675   1.481  12.678   8.202
73260SOL     OW21676   9.923   1.770   8.461
73260SOL    HW121677   9.883   1.743   8.544
73260SOL    HW221678   9.926   1.691   8.408
73261SOL     OW21679   4.857  10.618   7.598
73261SOL    HW121680   4.775  10.667   7.591
73261SOL    HW221681   4.924  10.679   7.567
73262SOL     OW21682   0.338   3.818   4.038
73262SOL    HW121683   0.394   3.822   3.961
73262SOL    HW221684   0.254   3.854   4.008
73263SOL     OW21685  14.835   4.806  13.591
73263SOL    HW121686   0.004   4.862  13.523
73263SOL    HW221687  14.802   4.729  13.544
73264SOL     OW21688   0.688   2.147  10.731
73264SOL    HW121689   0.782   2.157  10.741
73264SOL    HW221690   0.657   2.234  10.705
73265SOL     OW21691   1.079   3.813  10.040
73265SOL    HW121692   1.133   3.844   9.968
73265SOL    HW221693   1.018   3.750  10.000
73266SOL     OW21694   5.044   5.697   1.720
73266SOL    HW121695   5.017   5.631   1.784
73266SOL    HW221696   5.021   5.781   1.760
73267SOL     OW21697  14.068   0.821   7.348
73267SOL    HW121698  13.979   0.855   7.361
73267SOL    HW221699  14.063   0.773   7.265
73268SOL     OW21700   8.462  10.076   3.770
73268SOL    HW121701   8.420  10.156   3.802
73268SOL    HW221702   8.392  10.010   3.773
73269SOL     OW21703   2.066   2.234  14.772
73269SOL    HW121704   2.139   2.226  14.710
73269SOL    HW221705   2.092   2.179  14.847
73270SOL     OW21706   8.335   1.051   7.365
73270SOL    HW121707   8.302   0.974   7.318
73270SOL    HW221708   8.318   1.032   7.457
73271SOL     OW21709   0.519  10.441   1.152
73271SOL    HW121710   0.451  10.493   1.195
73271SOL    HW221711   0.550  10.381   1.220
73272SOL     OW21712   9.355   5.875  12.861
73272SOL    HW121713   9.419   5.929  12.814
73272SOL    HW221714   9.339   5.923  12.942
73273SOL     OW21715  14.736   7.969  11.038
73273SOL    HW121716  14.646   7.952  11.009
73273SOL    HW221717  14.738   8.064  11.055
73274SOL     OW21718   8.233  12.487   9.023
73274SOL    HW121719   8.262  12.398   9.003
73274SOL    HW221720   8.137  12.481   9.024
73275SOL     OW21721   5.984   6.020   2.470
73275SOL    HW121722   5.990   6.063   2.555
73275SOL    HW221723   5.890   6.008   2.457
73276SOL     OW21724   0.150   0.025  10.519
73276SOL    HW121725   0.220   0.063  10.466
73276SOL    HW221726   0.187  14.811  10.552
73277SOL     OW21727   4.158   2.434  12.791
73277SOL    HW121728   4.193   2.453  12.704
73277SOL    HW221729   4.207   2.358  12.821
73278SOL     OW21730   5.216   1.433   5.142
73278SOL    HW121731   5.270   1.384   5.204
73278SOL    HW221732   5.151   1.477   5.196
73279SOL     OW21733   4.244   7.740   9.078
73279SOL    HW121734   4.196   7.670   9.122
73279SOL    HW221735   4.231   7.817   9.134
73280SOL     OW21736  13.000   1.198   7.931
73280SOL    HW121737  13.046   1.277   7.901
73280SOL    HW221738  12.926   1.232   7.981
73281SOL     OW21739   0.049  13.992  12.516
73281SOL    HW121740  14.850  14.025  12.575
73281SOL    HW221741   0.091  13.921  12.564
73282SOL     OW21742  12.426  12.824   0.263
73282SOL    HW121743  12.452  12.905   0.219
73282SOL    HW221744  12.360  12.851   0.327
73283SOL     OW21745   1.520  13.325   5.442
73283SOL    HW121746   1.481  13.339   5.528
73283SOL    HW221747   1.448  13.338   5.381
73284SOL     OW21748   2.116   5.700   7.739
73284SOL    HW121749   2.187   5.764   7.747
73284SOL    HW221750   2.103   5.667   7.828
73285SOL     OW21751  12.554  14.798  13.210
73285SOL    HW121752  12.512  14.787  13.124
73285SOL    HW221753  12.641  14.761  13.199
73286SOL     OW21754   2.256   9.531   8.484
73286SOL    HW121755   2.274   9.612   8.532
73286SOL    HW221756   2.246   9.464   8.552
73287SOL     OW21757   0.806   3.555   7.734
73287SOL    HW121758   0.750   3.554   7.811
73287SOL    HW221759   0.757   3.506   7.668
73288SOL     OW21760   0.680   4.666  10.027
73288SOL    HW121761   0.615   4.719   9.981
73288SOL    HW221762   0.710   4.723  10.098
73289SOL     OW21763  11.612   4.098   3.346
73289SOL    HW121764  11.670   4.110   3.421
73289SOL    HW221765  11.615   4.182   3.300
73290SOL     OW21766  10.429  13.217  12.581
73290SOL    HW121767  10.367  13.269  12.529
73290SOL    HW221768  10.502  13.201  12.521
73291SOL     OW21769   2.031  11.822   2.029
73291SOL    HW121770   2.077  11.896   1.990
73291SOL    HW221771   2.020  11.846   2.121
73292SOL     OW21772   9.054   5.716  12.773
73292SOL    HW121773   9.023   5.670  12.695
73292SOL    HW221774   9.148   5.704  12.772
73293SOL     OW21775   9.656  13.063   3.556
73293SOL    HW121776   9.607  12.983   3.576
73293SOL    HW221777   9.661  13.109   3.640
73294SOL     OW21778   0.633   9.575   3.609
73294SOL    HW121779   0.612   9.557   3.517
73294SOL    HW221780   0.564   9.635   3.638
73295SOL     OW21781   7.583   8.898   1.317
73295SOL    HW121782   7.503   8.907   1.264
73295SOL    HW221783   7.653   8.928   1.258
73296SOL     OW21784   0.562   6.949   9.630
73296SOL    HW121785   0.588   6.954   9.722
73296SOL    HW221786   0.641   6.972   9.581
73297SOL     OW21787   7.122  13.656  13.826
73297SOL    HW121788   7.091  13.731  13.775
73297SOL    HW221789   7.050  13.593  13.823
73298SOL     OW21790   2.755   7.852   5.188
73298SOL    HW121791   2.830   7.823   5.136
73298SOL    HW221792   2.723   7.771   5.229
73299SOL     OW21793   3.931   5.467  14.287
73299SOL    HW121794   3.987   5.539  14.316
73299SOL    HW221795   3.930   5.407  14.362
73300SOL     OW21796   3.493  14.813   6.518
73300SOL    HW121797   3.441   0.024   6.505
73300SOL    HW221798   3.581  14.846   6.539
73301SOL     OW21799   7.134   0.329   4.096
73301SOL    HW121800   7.134   0.356   4.187
73301SOL    HW221801   7.227   0.327   4.072
73302SOL     OW21802   2.782  10.712   8.370
73302SOL    HW121803   2.801  10.620   8.385
73302SOL    HW221804   2.759  10.746   8.456
73303SOL     OW21805   4.649   3.272   7.924
73303SOL    HW121806   4.729   3.232   7.959
73303SOL    HW221807   4.636   3.350   7.977
73304SOL     OW21808  13.116  10.911   0.174
73304SOL    HW121809  13.026  10.881   0.186
73304SOL    HW221810  13.159  10.840   0.127
73305SOL     OW21811  11.016   1.567   6.375
73305SOL    HW121812  10.989   1.477   6.395
73305SOL    HW221813  10.935   1.617   6.382
73306SOL     OW21814   7.065   1.730   4.263
73306SOL    HW121815   6.972   1.728   4.286
73306SOL    HW221816   7.095   1.640   4.275
73307SOL     OW21817   0.152  11.092   5.905
73307SOL    HW121818   0.209  11.167   5.922
73307SOL    HW221819   0.205  11.033   5.851
73308SOL     OW21820   3.703   8.409  10.988
73308SOL    HW121821   3.653   8.372  11.061
73308SOL    HW221822   3.792   8.376  11.000
73309SOL     OW21823  12.412  13.422   8.347
73309SOL    HW121824  12.483  13.442   8.287
73309SOL    HW221825  12.400  13.327   8.340
73310SOL     OW21826  10.502   0.823  14.000
73310SOL    HW121827  10.494   0.900  14.055
73310SOL    HW221828  10.596   0.806  13.995
73311SOL     OW21829   5.701   9.505   7.831
73311SOL    HW121830   5.624   9.457   7.799
73311SOL    HW221831   5.717   9.469   7.919
73312SOL     OW21832   3.398   8.025  12.404
73312SOL    HW121833   3.356   8.017  12.490
73312SOL    HW221834   3.406   8.119  12.390
73313SOL     OW21835   2.391   4.167   1.660
73313SOL    HW121836   2.369   4.187   1.569
73313SOL    HW221837   2.477   4.207   1.673
73314SOL     OW21838   4.814   1.396   7.478
73314SOL    HW121839   4.732   1.420   7.521
73314SOL    HW221840   4.880   1.454   7.518
73315SOL     OW21841  12.085   5.095   4.203
73315SOL    HW121842  12.175   5.115   4.177
73315SOL    HW221843  12.083   5.110   4.298
73316SOL     OW21844  13.853  14.490   7.664
73316SOL    HW121845  13.781  14.543   7.630
73316SOL    HW221846  13.931  14.544   7.652
73317SOL     OW21847  14.851  14.207   7.357
73317SOL    HW121848   0.002  14.126   7.403
73317SOL    HW221849  14.757  14.218   7.365
73318SOL     OW21850   5.146   6.483  12.901
73318SOL    HW121851   5.069   6.441  12.939
73318SOL    HW221852   5.143   6.460  12.808
73319SOL     OW21853   9.176   1.345  11.973
73319SOL    HW121854   9.224   1.263  11.958
73319SOL    HW221855   9.116   1.352  11.899
73320SOL     OW21856   2.799   3.731   0.090
73320SOL    HW121857   2.723   3.787   0.076
73320SOL    HW221858   2.812   3.733   0.185
73321SOL     OW21859   0.652  10.800   2.679
73321SOL    HW121860   0.682  10.879   2.722
73321SOL    HW221861   0.562  10.788   2.710
73322SOL     OW21862  13.021   1.960   3.970
73322SOL    HW121863  13.102   1.963   3.919
73322SOL    HW221864  12.964   1.903   3.920
73323SOL     OW21865   8.622  10.785   1.605
73323SOL    HW121866   8.563  10.812   1.535
73323SOL    HW221867   8.632  10.690   1.592
73324SOL     OW21868   4.884  14.731   4.231
73324SOL    HW121869   4.881  14.641   4.265
73324SOL    HW221870   4.868  14.721   4.137
73325SOL     OW21871  14.673  13.687  10.392
73325SOL    HW121872  14.724  13.606  10.405
73325SOL    HW221873  14.738  13.751  10.363
73326SOL     OW21874  12.964   9.057   9.602
73326SOL    HW121875  12.921   8.973   9.620
73326SOL    HW221876  12.901   9.105   9.548
73327SOL     OW21877   4.008   8.931   0.739
73327SOL    HW121878   3.935   8.939   0.801
73327SOL    HW221879   3.966   8.927   0.653
73328SOL     OW21880   2.523  12.454   2.851
73328SOL    HW121881   2.525  12.543   2.886
73328SOL    HW221882   2.611  12.440   2.815
73329SOL     OW21883   9.991   5.148   8.485
73329SOL    HW121884  10.074   5.177   8.446
73329SOL    HW221885   9.933   5.134   8.410
73330SOL     OW21886   9.071   7.265   8.234
73330SOL    HW121887   9.142   7.243   8.174
73330SOL    HW221888   9.004   7.305   8.178
73331SOL     OW21889  11.260   5.317  10.336
73331SOL    HW121890  11.197   5.277  10.276
73331SOL    HW221891  11.215   5.317  10.421
73332SOL     OW21892  12.299   9.894  11.854
73332SOL    HW121893  12.262   9.864  11.936
73332SOL    HW221894  12.369   9.955  11.879
73333SOL     OW21895   2.575   3.354  10.084
73333SOL    HW121896   2.612   3.296  10.150
73333SOL    HW221897   2.645   3.417  10.065
73334SOL     OW21898  14.080   9.062  11.154
73334SOL    HW121899  14.174   9.058  11.141
73334SOL    HW221900  14.044   9.002  11.089
73335SOL     OW21901   8.728   1.276  12.033
73335SOL    HW121902   8.673   1.250  12.107
73335SOL    HW221903   8.817   1.260  12.062
73336SOL     OW21904   8.579   4.824   7.712
73336SOL    HW121905   8.548   4.780   7.791
73336SOL    HW221906   8.647   4.884   7.742
73337SOL     OW21907  12.614  12.609   6.179
73337SOL    HW121908  12.668  12.533   6.158
73337SOL    HW221909  12.547  12.575   6.239
73338SOL     OW21910  12.206   8.101  12.598
73338SOL    HW121911  12.253   8.109  12.515
73338SOL    HW221912  12.272   8.073  12.661
73339SOL     OW21913   9.693   6.928   3.779
73339SOL    HW121914   9.698   7.013   3.736
73339SOL    HW221915   9.688   6.949   3.872
73340SOL     OW21916   8.488  13.717   2.736
73340SOL    HW121917   8.430  13.792   2.720
73340SOL    HW221918   8.524  13.734   2.823
73341SOL     OW21919   6.074  14.814  10.093
73341SOL    HW121920   6.010  14.848  10.030
73341SOL    HW221921   6.126   0.021  10.118
73342SOL     OW21922   9.476  14.211   6.057
73342SOL    HW121923   9.415  14.164   6.000
73342SOL    HW221924   9.560  14.207   6.012
73343SOL     OW21925   2.389   9.580   0.520
73343SOL    HW121926   2.364   9.656   0.573
73343SOL    HW221927   2.480   9.564   0.542
73344SOL     OW21928   9.735  12.992  12.865
73344SOL    HW121929   9.759  12.954  12.781
73344SOL    HW221930   9.817  13.027  12.900
73345SOL     OW21931   1.384   0.916  11.737
73345SOL    HW121932   1.436   0.877  11.666
73345SOL    HW221933   1.424   1.001  11.752
73346SOL     OW21934  13.661   4.173  14.858
73346SOL    HW121935  13.743   4.205   0.027
73346SOL    HW221936  13.598   4.179   0.062
73347SOL     OW21937  10.752  12.127  14.258
73347SOL    HW121938  10.694  12.055  14.284
73347SOL    HW221939  10.838  12.086  14.249
73348SOL     OW21940   1.934   5.701   7.525
73348SOL    HW121941   1.971   5.771   7.473
73348SOL    HW221942   1.994   5.692   7.600
73349SOL     OW21943   0.663   1.097  10.684
73349SOL    HW121944   0.595   1.127  10.624
73349SOL    HW221945   0.623   1.106  10.771
73350SOL     OW21946   4.942   4.233  14.468
73350SOL    HW121947   4.981   4.211  14.383
73350SOL    HW221948   4.849   4.214  14.457
73351SOL     OW21949  12.912  11.864  14.354
73351SOL    HW121950  12.846  11.932  14.363
73351SOL    HW221951  12.981  11.888  14.415
73352SOL     OW21952   2.124  10.155   6.446
73352SOL    HW121953   2.065  10.174   6.373
73352SOL    HW221954   2.203  10.205   6.427
73353SOL     OW21955  11.940   6.596   4.432
73353SOL    HW121956  11.967   6.512   4.467
73353SOL    HW221957  12.013   6.625   4.377
73354SOL     OW21958   6.471   2.549   8.459
73354SOL    HW121959   6.407   2.559   8.530
73354SOL    HW221960   6.445   2.469   8.414
73355SOL     OW21961   8.228   7.717  10.442
73355SOL    HW121962   8.246   7.675  10.358
73355SOL    HW221963   8.136   7.742  10.437
73356SOL     OW21964   6.161   4.354  12.143
73356SOL    HW121965   6.088   4.308  12.102
73356SOL    HW221966   6.226   4.364  12.073
73357SOL     OW21967   2.529  12.084  11.849
73357SOL    HW121968   2.574  12.159  11.888
73357SOL    HW221969   2.587  12.056  11.777
73358SOL     OW21970   8.541   5.188  12.988
73358SOL    HW121971   8.590   5.269  12.970
73358SOL    HW221972   8.512   5.198  13.079
73359SOL     OW21973   4.618   0.565   8.110
73359SOL    HW121974   4.602   0.575   8.204
73359SOL    HW221975   4.690   0.626   8.092
73360SOL     OW21976  11.103   4.698   2.887
73360SOL    HW121977  11.065   4.667   2.969
73360SOL    HW221978  11.185   4.649   2.879
73361SOL     OW21979   6.747   9.491  12.771
73361SOL    HW121980   6.746   9.566  12.831
73361SOL    HW221981   6.679   9.432  12.805
73362SOL     OW21982   4.650  10.810   0.165
73362SOL    HW121983   4.577  10.872   0.173
73362SOL    HW221984   4.696  10.817   0.249
73363SOL     OW21985  10.679   9.622   6.241
73363SOL    HW121986  10.727   9.637   6.322
73363SOL    HW221987  10.600   9.675   6.250
73364SOL     OW21988  11.993  10.528   1.429
73364SOL    HW121989  12.041  10.456   1.390
73364SOL    HW221990  11.908  10.528   1.385
73365SOL     OW21991   7.873   3.717   9.443
73365SOL    HW121992   7.865   3.811   9.462
73365SOL    HW221993   7.812   3.702   9.370
73366SOL     OW21994   3.409   1.679   3.899
73366SOL    HW121995   3.498   1.696   3.931
73366SOL    HW221996   3.380   1.764   3.865
73367SOL     OW21997  13.981  11.604   5.822
73367SOL    HW121998  14.026  11.688   5.833
73367SOL    HW221999  13.897  11.626   5.784
73368SOL     OW22000  14.190   5.573   5.283
73368SOL    HW122001  14.150   5.572   5.197
73368SOL    HW222002  14.120   5.548   5.343
73369SOL     OW22003  10.181   9.794   3.311
73369SOL    HW122004  10.254   9.745   3.274
73369SOL    HW222005  10.213   9.821   3.398
73370SOL     OW22006   4.539   1.389   1.261
73370SOL    HW122007   4.550   1.300   1.228
73370SOL    HW222008   4.447   1.393   1.288
73371SOL     OW22009  10.809   1.731   9.915
73371SOL    HW122010  10.779   1.648   9.952
73371SOL    HW222011  10.745   1.795   9.947
73372SOL     OW22012   2.457   7.806   4.142
73372SOL    HW122013   2.519   7.870   4.177
73372SOL    HW222014   2.405   7.855   4.079
73373SOL     OW22015   8.188  12.867  12.859
73373SOL    HW122016   8.101  12.849  12.824
73373SOL    HW222017   8.183  12.956  12.894
73374SOL     OW22018   3.398  12.582  14.109
73374SOL    HW122019   3.445  12.652  14.153
73374SOL    HW222020   3.465  12.534  14.061
73375SOL     OW22021  12.078  10.219  11.149
73375SOL    HW122022  11.986  10.201  11.130
73375SOL    HW222023  12.092  10.307  11.115
73376SOL     OW22024   9.546   0.323   4.531
73376SOL    HW122025   9.548   0.417   4.544
73376SOL    HW222026   9.468   0.293   4.578
73377SOL     OW22027  11.456   5.762   2.812
73377SOL    HW122028  11.364   5.735   2.804
73377SOL    HW222029  11.489   5.762   2.723
73378SOL     OW22030  12.179  13.791   3.764
73378SOL    HW122031  12.213  13.843   3.692
73378SOL    HW222032  12.178  13.850   3.839
73379SOL     OW22033   7.604   7.278   3.517
73379SOL    HW122034   7.637   7.266   3.428
73379SOL    HW222035   7.610   7.191   3.557
73380SOL     OW22036  13.942   8.700   6.512
73380SOL    HW122037  13.987   8.651   6.580
73380SOL    HW222038  13.970   8.791   6.525
73381SOL     OW22039  10.645   0.381   0.115
73381SOL    HW122040  10.582   0.428   0.171
73381SOL    HW222041  10.605   0.296   0.101
73382SOL     OW22042  10.616   6.459   5.752
73382SOL    HW122043  10.624   6.496   5.664
73382SOL    HW222044  10.561   6.522   5.799
73383SOL     OW22045  11.756   2.592   1.958
73383SOL    HW122046  11.735   2.503   1.985
73383SOL    HW222047  11.770   2.586   1.863
73384SOL     OW22048   3.341  12.683  10.274
73384SOL    HW122049   3.408  12.620  10.245
73384SOL    HW222050   3.326  12.739  10.198
73385SOL     OW22051   2.884   5.156  11.389
73385SOL    HW122052   2.975   5.129  11.378
73385SOL    HW222053   2.853   5.174  11.300
73386SOL     OW22054   7.245   7.806   8.230
73386SOL    HW122055   7.337   7.831   8.221
73386SOL    HW222056   7.246   7.711   8.225
73387SOL     OW22057   5.615   1.682   8.432
73387SOL    HW122058   5.638   1.738   8.357
73387SOL    HW222059   5.545   1.626   8.398
73388SOL     OW22060  14.851   2.539  11.755
73388SOL    HW122061  14.822   2.448  11.760
73388SOL    HW222062  14.803   2.583  11.825
73389SOL     OW22063  11.846  10.482   3.774
73389SOL    HW122064  11.811  10.428   3.703
73389SOL    HW222065  11.816  10.439   3.854
73390SOL     OW22066   8.468   8.772   7.233
73390SOL    HW122067   8.538   8.833   7.210
73390SOL    HW222068   8.494   8.736   7.317
73391SOL     OW22069   5.881   6.158   5.616
73391SOL    HW122070   5.953   6.218   5.636
73391SOL    HW222071   5.815   6.176   5.683
73392SOL     OW22072  13.668  11.426   9.621
73392SOL    HW122073  13.754  11.415   9.661
73392SOL    HW222074  13.670  11.371   9.543
73393SOL     OW22075   9.733   1.582  14.271
73393SOL    HW122076   9.724   1.612  14.362
73393SOL    HW222077   9.719   1.660  14.218
73394SOL     OW22078   7.891   6.743  14.050
73394SOL    HW122079   7.919   6.834  14.043
73394SOL    HW222080   7.903   6.707  13.962
73395SOL     OW22081   7.224   6.000   6.896
73395SOL    HW122082   7.207   5.908   6.916
73395SOL    HW222083   7.145   6.046   6.922
73396SOL     OW22084  11.604  11.946   4.600
73396SOL    HW122085  11.639  11.895   4.673
73396SOL    HW222086  11.567  12.024   4.641
73397SOL     OW22087   3.632  11.965  13.970
73397SOL    HW122088   3.595  11.878  13.962
73397SOL    HW222089   3.562  12.024  13.940
73398SOL     OW22090  13.942  14.451   5.702
73398SOL    HW122091  14.033  14.424   5.692
73398SOL    HW222092  13.891  14.373   5.680
73399SOL     OW22093   2.657   4.369   6.244
73399SOL    HW122094   2.642   4.295   6.303
73399SOL    HW222095   2.573   4.382   6.200
73400SOL     OW22096   1.286   7.572   8.073
73400SOL    HW122097   1.196   7.544   8.090
73400SOL    HW222098   1.322   7.592   8.160
73401SOL     OW22099   0.570   1.373  11.634
73401SOL    HW122100   0.559   1.317  11.557
73401SOL    HW222101   0.607   1.454  11.599
73402SOL     OW22102   9.742   1.858   3.748
73402SOL    HW122103   9.661   1.807   3.758
73402SOL    HW222104   9.811   1.800   3.779
73403SOL     OW22105   0.368  10.325   6.859
73403SOL    HW122106   0.286  10.371   6.875
73403SOL    HW222107   0.365  10.249   6.917
73404SOL     OW22108  11.663   3.290   4.653
73404SOL    HW122109  11.623   3.204   4.644
73404SOL    HW222110  11.600   3.350   4.614
73405SOL     OW22111  12.956   9.315   2.300
73405SOL    HW122112  12.942   9.237   2.354
73405SOL    HW222113  12.872   9.329   2.256
73406SOL     OW22114  14.628   9.810  10.171
73406SOL    HW122115  14.605   9.750  10.242
73406SOL    HW222116  14.697   9.865  10.207
73407SOL     OW22117   3.402  12.147  14.592
73407SOL    HW122118   3.482  12.193  14.566
73407SOL    HW222119   3.387  12.173  14.683
73408SOL     OW22120   9.801   3.156   6.461
73408SOL    HW122121   9.724   3.201   6.496
73408SOL    HW222122   9.794   3.067   6.496
73409SOL     OW22123  11.823   9.596  13.948
73409SOL    HW122124  11.739   9.640  13.939
73409SOL    HW222125  11.868   9.614  13.865
73410SOL     OW22126  12.981   6.500  11.816
73410SOL    HW122127  13.062   6.460  11.787
73410SOL    HW222128  12.999   6.531  11.904
73411SOL     OW22129   8.638  13.939  13.805
73411SOL    HW122130   8.727  13.964  13.781
73411SOL    HW222131   8.632  13.846  13.783
73412SOL     OW22132  13.880   1.620   8.229
73412SOL    HW122133  13.829   1.544   8.254
73412SOL    HW222134  13.895   1.667   8.311
73413SOL     OW22135   1.078   5.141   1.343
73413SOL    HW122136   1.087   5.200   1.418
73413SOL    HW222137   1.142   5.071   1.361
73414SOL     OW22138   2.398  12.163   3.713
73414SOL    HW122139   2.352  12.134   3.634
73414SOL    HW222140   2.412  12.257   3.699
73415SOL     OW22141   0.296   3.910  10.854
73415SOL    HW122142   0.287   4.001  10.883
73415SOL    HW222143   0.380   3.909  10.807
73416SOL     OW22144   2.244  12.525   4.314
73416SOL    HW122145   2.200  12.476   4.245
73416SOL    HW222146   2.270  12.460   4.378
73417SOL     OW22147   3.199   5.213   6.720
73417SOL    HW122148   3.264   5.234   6.787
73417SOL    HW222149   3.211   5.281   6.653
73418SOL     OW22150  13.516  10.901   0.031
73418SOL    HW122151  13.544  10.822  14.853
73418SOL    HW222152  13.458  10.869   0.101
73419SOL     OW22153   8.461   5.210   1.705
73419SOL    HW122154   8.476   5.223   1.798
73419SOL    HW222155   8.405   5.132   1.701
73420SOL     OW22156   1.959   9.576   7.899
73420SOL    HW122157   2.048   9.548   7.875
73420SOL    HW222158   1.955   9.668   7.876
73421SOL     OW22159   6.355   4.243   0.567
73421SOL    HW122160   6.264   4.214   0.558
73421SOL    HW222161   6.350   4.336   0.589
73422SOL     OW22162   5.842   9.052  13.003
73422SOL    HW122163   5.749   9.030  13.007
73422SOL    HW222164   5.864   9.081  13.091
73423SOL     OW22165   9.369  10.890   5.801
73423SOL    HW122166   9.390  10.937   5.881
73423SOL    HW222167   9.337  10.958   5.741
73424SOL     OW22168   1.966   7.821   7.377
73424SOL    HW122169   2.001   7.861   7.457
73424SOL    HW222170   1.977   7.727   7.391
73425SOL     OW22171  12.161   8.128  13.777
73425SOL    HW122172  12.227   8.197  13.776
73425SOL    HW222173  12.206   8.053  13.818
73426SOL     OW22174  12.872   0.395   3.332
73426SOL    HW122175  12.866   0.453   3.408
73426SOL    HW222176  12.891   0.308   3.369
73427SOL     OW22177  12.697   1.291   0.810
73427SOL    HW122178  12.727   1.201   0.823
73427SOL    HW222179  12.765   1.345   0.853
73428SOL     OW22180  11.584   5.606   5.057
73428SOL    HW122181  11.639   5.631   4.982
73428SOL    HW222182  11.574   5.686   5.108
73429SOL     OW22183   0.242   2.965   0.862
73429SOL    HW122184   0.214   2.978   0.953
73429SOL    HW222185   0.245   2.869   0.852
73430SOL     OW22186   6.136  13.327   7.682
73430SOL    HW122187   6.206  13.355   7.623
73430SOL    HW222188   6.154  13.234   7.699
73431SOL     OW22189  13.739   1.515   0.686
73431SOL    HW122190  13.834   1.528   0.690
73431SOL    HW222191  13.703   1.598   0.720
73432SOL     OW22192   7.123  11.285   5.401
73432SOL    HW122193   7.037  11.253   5.376
73432SOL    HW222194   7.184  11.239   5.344
73433SOL     OW22195   0.638   4.769  11.621
73433SOL    HW122196   0.548   4.784  11.649
73433SOL    HW222197   0.683   4.851  11.641
73434SOL     OW22198   7.509  11.841  10.010
73434SOL    HW122199   7.470  11.926  10.031
73434SOL    HW222200   7.435  11.787   9.981
73435SOL     OW22201   2.282   0.776   1.841
73435SOL    HW122202   2.258   0.853   1.791
73435SOL    HW222203   2.354   0.805   1.898
73436SOL     OW22204   2.570  13.915   6.680
73436SOL    HW122205   2.482  13.949   6.691
73436SOL    HW222206   2.617  13.943   6.759
73437SOL     OW22207  13.847   4.588   2.665
73437SOL    HW122208  13.830   4.657   2.599
73437SOL    HW222209  13.894   4.633   2.735
73438SOL     OW22210  14.140   0.513   6.330
73438SOL    HW122211  14.044   0.522   6.332
73438SOL    HW222212  14.168   0.541   6.417
73439SOL     OW22213   5.788  10.729   5.935
73439SOL    HW122214   5.836  10.647   5.940
73439SOL    HW222215   5.849  10.791   5.897
73440SOL     OW22216  14.349   1.133   4.204
73440SOL    HW122217  14.419   1.120   4.268
73440SOL    HW222218  14.319   1.223   4.218
73441SOL     OW22219   2.456   9.999   8.620
73441SOL    HW122220   2.534  10.031   8.664
73441SOL    HW222221   2.384  10.051   8.656
73442SOL     OW22222   0.840   0.343   6.124
73442SOL    HW122223   0.805   0.398   6.194
73442SOL    HW222224   0.830   0.253   6.155
73443SOL     OW22225  13.816   8.028   6.691
73443SOL    HW122226  13.862   7.944   6.694
73443SOL    HW222227  13.885   8.094   6.704
73444SOL     OW22228   3.982   4.358  12.099
73444SOL    HW122229   3.919   4.429  12.085
73444SOL    HW222230   3.992   4.318  12.013
73445SOL     OW22231  12.732   7.567   9.621
73445SOL    HW122232  12.801   7.547   9.684
73445SOL    HW222233  12.724   7.488   9.568
73446SOL     OW22234  14.153   5.763   9.129
73446SOL    HW122235  14.138   5.835   9.190
73446SOL    HW222236  14.145   5.803   9.042
73447SOL     OW22237  12.254  13.777   1.221
73447SOL    HW122238  12.212  13.692   1.202
73447SOL    HW222239  12.273  13.813   1.135
73448SOL     OW22240  12.689  12.640   9.907
73448SOL    HW122241  12.631  12.687   9.968
73448SOL    HW222242  12.776  12.676   9.924
73449SOL     OW22243   6.847  14.108  14.230
73449SOL    HW122244   6.761  14.069  14.216
73449SOL    HW222245   6.843  14.191  14.182
73450SOL     OW22246   4.230  11.115   6.779
73450SOL    HW122247   4.228  11.144   6.687
73450SOL    HW222248   4.319  11.132   6.807
73451SOL     OW22249   0.981  12.057   3.848
73451SOL    HW122250   0.954  12.131   3.793
73451SOL    HW222251   0.954  12.081   3.936
73452SOL     OW22252   5.185  12.926  14.760
73452SOL    HW122253   5.270  12.963  14.784
73452SOL    HW222254   5.185  12.923  14.665
73453SOL     OW22255   0.226   1.581   1.370
73453SOL    HW122256   0.164   1.636   1.322
73453SOL    HW222257   0.311   1.601   1.331
73454SOL     OW22258   1.918   6.599   1.563
73454SOL    HW122259   1.828   6.575   1.542
73454SOL    HW222260   1.943   6.540   1.634
73455SOL     OW22261  10.667   2.749   8.261
73455SOL    HW122262  10.698   2.740   8.352
73455SOL    HW222263  10.572   2.747   8.268
73456SOL     OW22264   4.736   6.128   2.923
73456SOL    HW122265   4.781   6.209   2.946
73456SOL    HW222266   4.656   6.157   2.879
73457SOL     OW22267  13.738  14.682   9.336
73457SOL    HW122268  13.772  14.771   9.344
73457SOL    HW222269  13.692  14.667   9.419
73458SOL     OW22270  10.643   7.733  13.394
73458SOL    HW122271  10.701   7.663  13.363
73458SOL    HW222272  10.574   7.688  13.442
73459SOL     OW22273   5.114   9.960   2.211
73459SOL    HW122274   5.129   9.972   2.117
73459SOL    HW222275   5.056   9.884   2.216
73460SOL     OW22276  13.027   5.484  12.821
73460SOL    HW122277  13.122   5.485  12.817
73460SOL    HW222278  13.007   5.426  12.895
73461SOL     OW22279  12.973   4.656   9.924
73461SOL    HW122280  12.961   4.565   9.950
73461SOL    HW222281  12.940   4.707   9.998
73462SOL     OW22282   5.566   9.271   4.887
73462SOL    HW122283   5.482   9.255   4.930
73462SOL    HW222284   5.613   9.188   4.894
73463SOL     OW22285   9.104   6.363  10.424
73463SOL    HW122286   9.020   6.328  10.453
73463SOL    HW222287   9.094   6.370  10.329
73464SOL     OW22288  13.239   1.109   5.552
73464SOL    HW122289  13.220   1.168   5.624
73464SOL    HW222290  13.328   1.130   5.526
73465SOL     OW22291  12.397   1.493   4.632
73465SOL    HW122292  12.388   1.538   4.548
73465SOL    HW222293  12.443   1.555   4.689
73466SOL     OW22294   6.626   2.893   2.489
73466SOL    HW122295   6.695   2.883   2.423
73466SOL    HW222296   6.622   2.807   2.532
73467SOL     OW22297   5.242   3.155   9.517
73467SOL    HW122298   5.322   3.111   9.543
73467SOL    HW222299   5.268   3.214   9.447
73468SOL     OW22300   6.051  11.526  12.209
73468SOL    HW122301   6.034  11.594  12.274
73468SOL    HW222302   5.991  11.546  12.137
73469SOL     OW22303   1.626   9.886  14.851
73469SOL    HW122304   1.572   9.964  14.838
73469SOL    HW222305   1.564   9.813  14.848
73470SOL     OW22306   8.738   3.005   4.506
73470SOL    HW122307   8.674   2.969   4.445
73470SOL    HW222308   8.781   3.075   4.456
73471SOL     OW22309  12.142   3.291   0.241
73471SOL    HW122310  12.055   3.319   0.268
73471SOL    HW222311  12.130   3.257   0.152
73472SOL     OW22312   4.920  13.607   4.262
73472SOL    HW122313   4.907  13.626   4.355
73472SOL    HW222314   4.879  13.521   4.249
73473SOL     OW22315   0.373   0.872   3.628
73473SOL    HW122316   0.417   0.820   3.561
73473SOL    HW222317   0.409   0.840   3.711
73474SOL     OW22318   2.449   7.741   9.217
73474SOL    HW122319   2.420   7.790   9.141
73474SOL    HW222320   2.423   7.794   9.292
73475SOL     OW22321   0.286  11.625   3.339
73475SOL    HW122322   0.374  11.651   3.312
73475SOL    HW222323   0.292  11.531   3.357
73476SOL     OW22324   3.826   3.593   8.591
73476SOL    HW122325   3.748   3.642   8.563
73476SOL    HW222326   3.869   3.567   8.510
73477SOL     OW22327  12.166  11.445   8.089
73477SOL    HW122328  12.089  11.494   8.060
73477SOL    HW222329  12.144  11.353   8.074
73478SOL     OW22330   5.464   7.102  11.768
73478SOL    HW122331   5.557   7.093  11.746
73478SOL    HW222332   5.458   7.072  11.859
73479SOL     OW22333   9.043   9.772   2.943
73479SOL    HW122334   8.972   9.837   2.937
73479SOL    HW222335   9.035   9.721   2.863
73480SOL     OW22336   0.576   4.225   0.413
73480SOL    HW122337   0.669   4.216   0.393
73480SOL    HW222338   0.532   4.209   0.330
73481SOL     OW22339  14.413   4.412   7.058
73481SOL    HW122340  14.457   4.409   6.972
73481SOL    HW222341  14.469   4.469   7.111
73482SOL     OW22342  14.502   5.744   4.876
73482SOL    HW122343  14.515   5.738   4.971
73482SOL    HW222344  14.431   5.806   4.865
73483SOL     OW22345   3.106   1.580  14.847
73483SOL    HW122346   3.023   1.557   0.021
73483SOL    HW222347   3.173   1.558   0.044
73484SOL     OW22348  14.010   4.464  10.743
73484SOL    HW122349  13.965   4.389  10.703
73484SOL    HW222350  13.939   4.524  10.767
73485SOL     OW22351   5.732  10.689   9.181
73485SOL    HW122352   5.641  10.699   9.207
73485SOL    HW222353   5.767  10.778   9.182
73486SOL     OW22354   1.628   1.688   8.922
73486SOL    HW122355   1.602   1.672   9.013
73486SOL    HW222356   1.710   1.638   8.912
73487SOL     OW22357   3.069  12.280   2.870
73487SOL    HW122358   3.078  12.276   2.965
73487SOL    HW222359   3.104  12.196   2.839
73488SOL     OW22360   4.064   6.330   7.887
73488SOL    HW122361   4.154   6.302   7.876
73488SOL    HW222362   4.070   6.425   7.900
73489SOL     OW22363   7.436   1.130  13.275
73489SOL    HW122364   7.516   1.180  13.263
73489SOL    HW222365   7.465   1.040  13.288
73490SOL     OW22366  12.748   4.634   0.596
73490SOL    HW122367  12.839   4.612   0.618
73490SOL    HW222368  12.751   4.654   0.503
73491SOL     OW22369   8.686  14.493  10.098
73491SOL    HW122370   8.591  14.486  10.107
73491SOL    HW222371   8.719  14.478  10.186
73492SOL     OW22372   8.497  10.236   6.347
73492SOL    HW122373   8.473  10.225   6.255
73492SOL    HW222374   8.424  10.285   6.385
73493SOL     OW22375   7.899  10.449   3.335
73493SOL    HW122376   7.840  10.524   3.342
73493SOL    HW222377   7.986  10.485   3.349
73494SOL     OW22378   4.941   7.724   1.345
73494SOL    HW122379   4.942   7.634   1.376
73494SOL    HW222380   4.867   7.764   1.389
73495SOL     OW22381   6.852  14.100  14.691
73495SOL    HW122382   6.861  14.036  14.761
73495SOL    HW222383   6.906  14.065  14.620
73496SOL     OW22384  11.180  10.709   2.307
73496SOL    HW122385  11.220  10.679   2.389
73496SOL    HW222386  11.114  10.772   2.334
73497SOL     OW22387   9.992  14.840   5.762
73497SOL    HW122388  10.068   0.030   5.750
73497SOL    HW222389  10.031  14.754   5.777
73498SOL     OW22390   6.003   9.932   2.626
73498SOL    HW122391   6.007   9.915   2.721
73498SOL    HW222392   6.090   9.908   2.594
73499SOL     OW22393   7.687  12.802   9.010
73499SOL    HW122394   7.603  12.809   8.965
73499SOL    HW222395   7.729  12.887   8.995
73500SOL     OW22396   6.447  11.357   2.490
73500SOL    HW122397   6.476  11.441   2.456
73500SOL    HW222398   6.352  11.365   2.499
73501SOL     OW22399  10.872   8.791   0.123
73501SOL    HW122400  10.953   8.751   0.092
73501SOL    HW222401  10.901   8.865   0.177
73502SOL     OW22402  12.925   2.499  12.877
73502SOL    HW122403  12.969   2.479  12.794
73502SOL    HW222404  12.955   2.430  12.936
73503SOL     OW22405   7.284   7.977  10.632
73503SOL    HW122406   7.202   8.011  10.667
73503SOL    HW222407   7.272   7.882  10.631
73504SOL     OW22408  13.525   8.537   3.230
73504SOL    HW122409  13.453   8.569   3.177
73504SOL    HW222410  13.597   8.524   3.169
73505SOL     OW22411   0.473   9.342  14.355
73505SOL    HW122412   0.537   9.413  14.358
73505SOL    HW222413   0.449   9.334  14.263
73506SOL     OW22414   0.233   9.220   3.458
73506SOL    HW122415   0.299   9.260   3.402
73506SOL    HW222416   0.222   9.283   3.530
73507SOL     OW22417   4.129   8.766   9.374
73507SOL    HW122418   4.134   8.704   9.446
73507SOL    HW222419   4.198   8.738   9.313
73508SOL     OW22420   9.378   4.315   3.576
73508SOL    HW122421   9.411   4.366   3.502
73508SOL    HW222422   9.380   4.224   3.546
73509SOL     OW22423   2.025   7.249   5.846
73509SOL    HW122424   2.120   7.237   5.851
73509SOL    HW222425   2.010   7.340   5.873
73510SOL     OW22426   8.469  14.569   2.266
73510SOL    HW122427   8.390  14.610   2.233
73510SOL    HW222428   8.512  14.533   2.188
73511SOL     OW22429   5.169   4.737   7.822
73511SOL    HW122430   5.185   4.661   7.766
73511SOL    HW222431   5.076   4.733   7.842
73512SOL     OW22432   6.170  11.676   5.531
73512SOL    HW122433   6.210  11.679   5.618
73512SOL    HW222434   6.099  11.612   5.540
73513SOL     OW22435   3.725  12.289   8.091
73513SOL    HW122436   3.773  12.278   8.173
73513SOL    HW222437   3.695  12.380   8.093
73514SOL     OW22438  11.202   9.986   5.189
73514SOL    HW122439  11.240  10.064   5.149
73514SOL    HW222440  11.121  10.018   5.230
73515SOL     OW22441   8.499  12.088   1.513
73515SOL    HW122442   8.523  12.009   1.464
73515SOL    HW222443   8.465  12.148   1.447
73516SOL     OW22444   9.057   8.174   3.037
73516SOL    HW122445   9.066   8.261   3.078
73516SOL    HW222446   8.981   8.135   3.081
73517SOL     OW22447   9.583   9.376  14.238
73517SOL    HW122448   9.555   9.339  14.321
73517SOL    HW222449   9.676   9.394  14.250
73518SOL     OW22450   6.017   1.072  13.491
73518SOL    HW122451   5.986   1.059  13.581
73518SOL    HW222452   5.958   1.019  13.437
73519SOL     OW22453   8.498   4.746  13.309
73519SOL    HW122454   8.520   4.683  13.378
73519SOL    HW222455   8.443   4.811  13.353
73520SOL     OW22456   9.234   0.165   7.522
73520SOL    HW122457   9.319   0.158   7.566
73520SOL    HW222458   9.218   0.078   7.486
73521SOL     OW22459  10.690   9.047   1.432
73521SOL    HW122460  10.682   8.952   1.430
73521SOL    HW222461  10.640   9.077   1.356
73522SOL     OW22462  10.957  14.799   1.546
73522SOL    HW122463  11.049  14.800   1.573
73522SOL    HW222464  10.937   0.022   1.523
73523SOL     OW22465   5.050   4.738   8.466
73523SOL    HW122466   4.983   4.671   8.482
73523SOL    HW222467   5.078   4.722   8.375
73524SOL     OW22468   4.686   5.249  14.742
73524SOL    HW122469   4.746   5.324  14.746
73524SOL    HW222470   4.639   5.261  14.660
73525SOL     OW22471   9.252  12.018   6.419
73525SOL    HW122472   9.280  12.040   6.508
73525SOL    HW222473   9.318  12.059   6.363
73526SOL     OW22474   6.235  13.878  10.389
73526SOL    HW122475   6.165  13.928  10.346
73526SOL    HW222476   6.291  13.848  10.317
73527SOL     OW22477   5.511   1.457   0.042
73527SOL    HW122478   5.586   1.471   0.100
73527SOL    HW222479   5.437   1.496   0.088
73528SOL     OW22480   4.807  12.301  11.286
73528SOL    HW122481   4.882  12.254  11.323
73528SOL    HW222482   4.818  12.391  11.316
73529SOL     OW22483   6.533   7.897   9.128
73529SOL    HW122484   6.530   7.822   9.068
73529SOL    HW222485   6.444   7.934   9.124
73530SOL     OW22486   8.299   1.453  13.270
73530SOL    HW122487   8.263   1.453  13.181
73530SOL    HW222488   8.294   1.544  13.299
73531SOL     OW22489   0.600  12.931   3.297
73531SOL    HW122490   0.666  12.929   3.227
73531SOL    HW222491   0.616  13.014   3.342
73532SOL     OW22492  10.532   5.014   2.376
73532SOL    HW122493  10.525   4.923   2.404
73532SOL    HW222494  10.586   5.056   2.443
73533SOL     OW22495   3.186   9.209   3.695
73533SOL    HW122496   3.134   9.272   3.745
73533SOL    HW222497   3.268   9.202   3.745
73534SOL     OW22498   0.395   9.001   0.718
73534SOL    HW122499   0.405   9.096   0.729
73534SOL    HW222500   0.302   8.990   0.696
73535SOL     OW22501  10.002  11.712   5.998
73535SOL    HW122502   9.912  11.742   5.987
73535SOL    HW222503  10.041  11.774   6.060
73536SOL     OW22504  14.503  10.870   2.082
73536SOL    HW122505  14.444  10.801   2.055
73536SOL    HW222506  14.451  10.950   2.078
73537SOL     OW22507   7.242   2.934   9.866
73537SOL    HW122508   7.306   2.875   9.905
73537SOL    HW222509   7.256   2.925   9.771
73538SOL     OW22510   9.861   9.378   3.691
73538SOL    HW122511   9.953   9.375   3.665
73538SOL    HW222512   9.848   9.297   3.741
73539SOL     OW22513   2.713   0.420   7.978
73539SOL    HW122514   2.772   0.438   8.051
73539SOL    HW222515   2.721   0.326   7.963
73540SOL     OW22516   2.539   6.208   8.412
73540SOL    HW122517   2.524   6.298   8.442
73540SOL    HW222518   2.607   6.216   8.345
73541SOL     OW22519   9.140   5.164   5.480
73541SOL    HW122520   9.135   5.259   5.487
73541SOL    HW222521   9.107   5.144   5.393
73542SOL     OW22522  10.824   7.161   0.137
73542SOL    HW122523  10.747   7.202   0.097
73542SOL    HW222524  10.818   7.068   0.114
73543SOL     OW22525  14.168  11.999  13.987
73543SOL    HW122526  14.096  11.937  13.971
73543SOL    HW222527  14.203  11.972  14.072
73544SOL     OW22528   6.882   5.283   1.170
73544SOL    HW122529   6.915   5.335   1.244
73544SOL    HW222530   6.812   5.336   1.133
73545SOL     OW22531  14.622   1.792   4.608
73545SOL    HW122532  14.703   1.842   4.620
73545SOL    HW222533  14.553   1.851   4.640
73546SOL     OW22534   7.862  13.573  11.423
73546SOL    HW122535   7.789  13.611  11.472
73546SOL    HW222536   7.822  13.543  11.341
73547SOL     OW22537  12.469   0.141  10.033
73547SOL    HW122538  12.427   0.065  10.072
73547SOL    HW222539  12.552   0.149  10.080
73548SOL     OW22540   5.556   8.879   9.483
73548SOL    HW122541   5.594   8.966   9.490
73548SOL    HW222542   5.587   8.832   9.561
73549SOL     OW22543  14.769   4.659   5.256
73549SOL    HW122544  14.736   4.570   5.261
73549SOL    HW222545  14.707   4.711   5.308
73550SOL     OW22546   9.992   9.654   1.836
73550SOL    HW122547  10.041   9.591   1.783
73550SOL    HW222548   9.902   9.645   1.805
73551SOL     OW22549   3.098   3.399  10.549
73551SOL    HW122550   3.176   3.343  10.553
73551SOL    HW222551   3.083   3.426  10.640
73552SOL     OW22552   6.571   8.367  11.756
73552SOL    HW122553   6.507   8.392  11.690
73552SOL    HW222554   6.611   8.450  11.783
73553SOL     OW22555  13.814   5.441   4.225
73553SOL    HW122556  13.871   5.506   4.184
73553SOL    HW222557  13.731   5.485   4.237
73554SOL     OW22558   0.374   5.481   5.108
73554SOL    HW122559   0.345   5.564   5.144
73554SOL    HW222560   0.427   5.505   5.032
73555SOL     OW22561  12.846   5.709  11.321
73555SOL    HW122562  12.923   5.653  11.313
73555SOL    HW222563  12.880   5.793  11.349
73556SOL     OW22564   8.990   4.974   8.481
73556SOL    HW122565   8.938   4.994   8.558
73556SOL    HW222566   9.079   4.999   8.505
73557SOL     OW22567   5.118  11.557  12.630
73557SOL    HW122568   5.139  11.642  12.591
73557SOL    HW222569   5.072  11.579  12.712
73558SOL     OW22570  13.249  10.562   5.458
73558SOL    HW122571  13.331  10.546   5.505
73558SOL    HW222572  13.204  10.478   5.461
73559SOL     OW22573   0.843   1.508   3.534
73559SOL    HW122574   0.851   1.601   3.556
73559SOL    HW222575   0.808   1.508   3.445
73560SOL     OW22576  10.571  12.434   9.032
73560SOL    HW122577  10.540  12.486   8.957
73560SOL    HW222578  10.524  12.351   9.025
73561SOL     OW22579   9.146  13.982  10.577
73561SOL    HW122580   9.165  14.063  10.624
73561SOL    HW222581   9.127  13.919  10.646
73562SOL     OW22582   3.602  13.142   5.901
73562SOL    HW122583   3.624  13.234   5.915
73562SOL    HW222584   3.683  13.095   5.921
73563SOL     OW22585   9.467   6.839   8.233
73563SOL    HW122586   9.377   6.865   8.214
73563SOL    HW222587   9.478   6.755   8.190
73564SOL     OW22588  10.047   1.706  13.731
73564SOL    HW122589  10.119   1.650  13.760
73564SOL    HW222590  10.053   1.705  13.636
73565SOL     OW22591   6.227   8.819   0.434
73565SOL    HW122592   6.261   8.789   0.350
73565SOL    HW222593   6.299   8.867   0.474
73566SOL     OW22594   3.119   1.237   0.380
73566SOL    HW122595   3.177   1.302   0.338
73566SOL    HW222596   3.051   1.221   0.314
73567SOL     OW22597   0.194   4.677   5.313
73567SOL    HW122598   0.184   4.587   5.343
73567SOL    HW222599   0.105   4.704   5.290
73568SOL     OW22600  13.910   9.084   4.773
73568SOL    HW122601  13.834   9.027   4.760
73568SOL    HW222602  13.986   9.026   4.766
73569SOL     OW22603   7.834   1.129   4.776
73569SOL    HW122604   7.775   1.131   4.701
73569SOL    HW222605   7.787   1.078   4.842
73570SOL     OW22606   2.586   1.348   2.481
73570SOL    HW122607   2.682   1.347   2.487
73570SOL    HW222608   2.556   1.325   2.570
73571SOL     OW22609   3.781   2.138   8.882
73571SOL    HW122610   3.693   2.168   8.906
73571SOL    HW222611   3.796   2.062   8.939
73572SOL     OW22612   2.401   5.623  13.921
73572SOL    HW122613   2.489   5.659  13.906
73572SOL    HW222614   2.403   5.590  14.011
73573SOL     OW22615   3.348   4.706   3.797
73573SOL    HW122616   3.291   4.743   3.729
73573SOL    HW222617   3.437   4.724   3.765
73574SOL     OW22618   7.289  14.656  10.150
73574SOL    HW122619   7.258  14.577  10.106
73574SOL    HW222620   7.213  14.687  10.199
73575SOL     OW22621   5.031  11.223   8.513
73575SOL    HW122622   4.989  11.141   8.490
73575SOL    HW222623   5.125  11.204   8.508
73576SOL     OW22624  10.835  14.299   2.729
73576SOL    HW122625  10.909  14.353   2.756
73576SOL    HW222626  10.870  14.241   2.662
73577SOL     OW22627   0.579   7.055   3.658
73577SOL    HW122628   0.580   7.149   3.637
73577SOL    HW222629   0.601   7.051   3.751
73578SOL     OW22630   7.521   5.511   2.996
73578SOL    HW122631   7.475   5.441   3.041
73578SOL    HW222632   7.458   5.584   2.993
73579SOL     OW22633   3.730  14.319   5.222
73579SOL    HW122634   3.704  14.228   5.236
73579SOL    HW222635   3.790  14.315   5.148
73580SOL     OW22636   1.694   7.261  10.155
73580SOL    HW122637   1.753   7.262  10.080
73580SOL    HW222638   1.734   7.322  10.217
73581SOL     OW22639  14.222   7.526   0.651
73581SOL    HW122640  14.259   7.492   0.733
73581SOL    HW222641  14.130   7.504   0.656
73582SOL     OW22642   8.371  12.042  10.389
73582SOL    HW122643   8.315  12.106  10.432
73582SOL    HW222644   8.400  11.984  10.460
73583SOL     OW22645   3.159  11.049   9.536
73583SOL    HW122646   3.199  11.129   9.502
73583SOL    HW222647   3.130  11.001   9.459
73584SOL     OW22648   4.992   0.427   1.824
73584SOL    HW122649   4.925   0.483   1.862
73584SOL    HW222650   5.034   0.480   1.757
73585SOL     OW22651  11.122   5.725   6.137
73585SOL    HW122652  11.144   5.780   6.061
73585SOL    HW222653  11.175   5.646   6.126
73586SOL     OW22654   4.856  12.457  10.339
73586SOL    HW122655   4.841  12.548  10.315
73586SOL    HW222656   4.939  12.458  10.387
73587SOL     OW22657  12.661   6.967   4.152
73587SOL    HW122658  12.656   6.987   4.059
73587SOL    HW222659  12.695   6.878   4.156
73588SOL     OW22660   7.116   6.906  12.094
73588SOL    HW122661   7.112   6.954  12.011
73588SOL    HW222662   7.186   6.949  12.143
73589SOL     OW22663   3.856   1.799  14.466
73589SOL    HW122664   3.785   1.809  14.403
73589SOL    HW222665   3.872   1.887  14.500
73590SOL     OW22666   8.096  13.290  12.774
73590SOL    HW122667   8.121  13.248  12.856
73590SOL    HW222668   8.062  13.376  12.800
73591SOL     OW22669   4.099  10.432   5.341
73591SOL    HW122670   4.190  10.408   5.329
73591SOL    HW222671   4.052  10.349   5.349
73592SOL     OW22672  13.450   3.707  14.589
73592SOL    HW122673  13.431   3.800  14.579
73592SOL    HW222674  13.444   3.692  14.684
73593SOL     OW22675   8.160  11.173   9.635
73593SOL    HW122676   8.187  11.101   9.693
73593SOL    HW222677   8.221  11.244   9.654
73594SOL     OW22678   0.293   1.565   5.139
73594SOL    HW122679   0.252   1.621   5.074
73594SOL    HW222680   0.358   1.621   5.181
73595SOL     OW22681  14.210  11.790  10.879
73595SOL    HW122682  14.251  11.712  10.916
73595SOL    HW222683  14.120  11.789  10.914
73596SOL     OW22684  10.425   3.993   8.367
73596SOL    HW122685  10.477   3.991   8.287
73596SOL    HW222686  10.418   4.086   8.388
73597SOL     OW22687  12.453   5.062   8.172
73597SOL    HW122688  12.431   5.035   8.261
73597SOL    HW222689  12.444   4.982   8.120
73598SOL     OW22690  13.066  11.411   2.749
73598SOL    HW122691  13.111  11.356   2.813
73598SOL    HW222692  13.027  11.348   2.687
73599SOL     OW22693  13.174   1.437   9.221
73599SOL    HW122694  13.153   1.352   9.182
73599SOL    HW222695  13.098   1.458   9.275
73600SOL     OW22696   6.330   5.750  11.244
73600SOL    HW122697   6.346   5.751  11.150
73600SOL    HW222698   6.408   5.789  11.282
73601SOL     OW22699   2.160   4.148   9.853
73601SOL    HW122700   2.194   4.185   9.934
73601SOL    HW222701   2.224   4.172   9.786
73602SOL     OW22702   5.690   0.499   0.436
73602SOL    HW122703   5.718   0.527   0.349
73602SOL    HW222704   5.692   0.579   0.488
73603SOL     OW22705   9.123   5.476  11.197
73603SOL    HW122706   9.099   5.425  11.119
73603SOL    HW222707   9.043   5.478  11.249
73604SOL     OW22708   4.007   8.180   1.307
73604SOL    HW122709   3.982   8.111   1.245
73604SOL    HW222710   4.005   8.138   1.392
73605SOL     OW22711  10.736  11.476  11.156
73605SOL    HW122712  10.773  11.561  11.180
73605SOL    HW222713  10.761  11.418  11.229
73606SOL     OW22714   8.960   3.526  13.573
73606SOL    HW122715   9.025   3.572  13.626
73606SOL    HW222716   8.876   3.558  13.605
73607SOL     OW22717   0.735   7.538  10.316
73607SOL    HW122718   0.748   7.618  10.366
73607SOL    HW222719   0.822   7.518  10.281
73608SOL     OW22720   3.469  14.132  12.291
73608SOL    HW122721   3.425  14.072  12.352
73608SOL    HW222722   3.515  14.194  12.347
73609SOL     OW22723   3.911   7.102   6.430
73609SOL    HW122724   3.889   7.042   6.501
73609SOL    HW222725   4.004   7.121   6.443
73610SOL     OW22726   2.182   2.050   8.376
73610SOL    HW122727   2.262   2.100   8.394
73610SOL    HW222728   2.173   1.992   8.452
73611SOL     OW22729   5.319   6.994   0.511
73611SOL    HW122730   5.318   7.044   0.593
73611SOL    HW222731   5.372   6.917   0.532
73612SOL     OW22732   1.701   3.888   7.015
73612SOL    HW122733   1.650   3.969   7.007
73612SOL    HW222734   1.783   3.916   7.058
73613SOL     OW22735  10.761  12.659   0.589
73613SOL    HW122736  10.718  12.724   0.533
73613SOL    HW222737  10.844  12.701   0.614
73614SOL     OW22738  10.341  14.740  10.193
73614SOL    HW122739  10.413  14.777  10.244
73614SOL    HW222740  10.268  14.801  10.206
73615SOL     OW22741   4.637  14.491   8.817
73615SOL    HW122742   4.643  14.557   8.886
73615SOL    HW222743   4.642  14.541   8.735
73616SOL     OW22744  12.494  14.391   2.454
73616SOL    HW122745  12.555  14.328   2.492
73616SOL    HW222746  12.451  14.432   2.529
73617SOL     OW22747   2.332   3.698   9.867
73617SOL    HW122748   2.365   3.781   9.831
73617SOL    HW222749   2.409   3.656   9.905
73618SOL     OW22750   9.845   6.498   0.774
73618SOL    HW122751   9.921   6.473   0.826
73618SOL    HW222752   9.881   6.526   0.690
73619SOL     OW22753   8.239   3.657  14.641
73619SOL    HW122754   8.183   3.601  14.588
73619SOL    HW222755   8.272   3.723  14.581
73620SOL     OW22756   9.421   7.974   5.256
73620SOL    HW122757   9.400   8.026   5.333
73620SOL    HW222758   9.349   7.911   5.249
73621SOL     OW22759  13.114   8.047   4.846
73621SOL    HW122760  13.124   8.032   4.941
73621SOL    HW222761  13.173   8.120   4.828
73622SOL     OW22762   0.253  12.948  13.781
73622SOL    HW122763   0.185  13.013  13.798
73622SOL    HW222764   0.247  12.888  13.856
73623SOL     OW22765  12.930  11.255   9.255
73623SOL    HW122766  12.958  11.167   9.280
73623SOL    HW222767  12.849  11.241   9.205
73624SOL     OW22768   2.648   3.640   4.848
73624SOL    HW122769   2.720   3.689   4.888
73624SOL    HW222770   2.572   3.661   4.903
73625SOL     OW22771  11.767  11.325  14.584
73625SOL    HW122772  11.728  11.400  14.628
73625SOL    HW222773  11.846  11.360  14.543
73626SOL     OW22774  14.250   5.366  10.601
73626SOL    HW122775  14.301   5.431  10.650
73626SOL    HW222776  14.172   5.352  10.655
73627SOL     OW22777   7.315   3.265   5.909
73627SOL    HW122778   7.370   3.194   5.875
73627SOL    HW222779   7.254   3.284   5.838
73628SOL     OW22780  11.604   3.688  13.466
73628SOL    HW122781  11.649   3.752  13.520
73628SOL    HW222782  11.672   3.627  13.438
73629SOL     OW22783   1.142  10.661  13.762
73629SOL    HW122784   1.057  10.705  13.761
73629SOL    HW222785   1.205  10.732  13.752
73630SOL     OW22786   9.809  11.054   8.601
73630SOL    HW122787   9.786  11.146   8.588
73630SOL    HW222788   9.898  11.047   8.566
73631SOL     OW22789   5.799   4.207   0.525
73631SOL    HW122790   5.837   4.291   0.500
73631SOL    HW222791   5.748   4.226   0.604
73632SOL     OW22792  11.029   6.734   1.821
73632SOL    HW122793  10.990   6.670   1.762
73632SOL    HW222794  11.048   6.810   1.766
73633SOL     OW22795   8.487   1.067   6.954
73633SOL    HW122796   8.500   1.013   6.876
73633SOL    HW222797   8.435   1.012   7.012
73634SOL     OW22798   3.758   9.485  10.748
73634SOL    HW122799   3.760   9.562  10.805
73634SOL    HW222800   3.702   9.513  10.674
73635SOL     OW22801   7.189  10.559  12.233
73635SOL    HW122802   7.186  10.569  12.138
73635SOL    HW222803   7.173  10.466  12.248
73636SOL     OW22804   1.173  14.025   4.882
73636SOL    HW122805   1.088  14.031   4.926
73636SOL    HW222806   1.163  13.951   4.822
73637SOL     OW22807  11.485   5.936   7.564
73637SOL    HW122808  11.479   5.962   7.472
73637SOL    HW222809  11.467   6.017   7.612
73638SOL     OW22810  10.362   5.715   4.090
73638SOL    HW122811  10.278   5.748   4.121
73638SOL    HW222812  10.349   5.620   4.080
73639SOL     OW22813   3.784  12.192   9.945
73639SOL    HW122814   3.792  12.206  10.040
73639SOL    HW222815   3.874  12.182   9.915
73640SOL     OW22816   2.951  12.855   1.411
73640SOL    HW122817   2.956  12.760   1.401
73640SOL    HW222818   2.858  12.874   1.421
73641SOL     OW22819   6.053   8.899  11.595
73641SOL    HW122820   6.141   8.926  11.618
73641SOL    HW222821   6.037   8.939  11.509
73642SOL     OW22822   5.311   0.891   8.005
73642SOL    HW122823   5.314   0.915   7.912
73642SOL    HW222824   5.401   0.869   8.027
73643SOL     OW22825   3.180   0.476  13.450
73643SOL    HW122826   3.127   0.486  13.371
73643SOL    HW222827   3.203   0.566  13.474
73644SOL     OW22828  10.297  11.366  12.596
73644SOL    HW122829  10.275  11.277  12.570
73644SOL    HW222830  10.268  11.421  12.523
73645SOL     OW22831   5.068   4.477  14.211
73645SOL    HW122832   5.095   4.532  14.138
73645SOL    HW222833   5.000   4.527  14.255
73646SOL     OW22834  13.431   1.557  11.025
73646SOL    HW122835  13.525   1.574  11.011
73646SOL    HW222836  13.416   1.577  11.117
73647SOL     OW22837  14.112  11.317  12.242
73647SOL    HW122838  14.092  11.331  12.150
73647SOL    HW222839  14.063  11.238  12.266
73648SOL     OW22840   1.804   7.441   7.841
73648SOL    HW122841   1.804   7.358   7.889
73648SOL    HW222842   1.774   7.417   7.753
73649SOL     OW22843  14.484   4.631   3.473
73649SOL    HW122844  14.459   4.720   3.448
73649SOL    HW222845  14.471   4.579   3.393
73650SOL     OW22846  10.521  12.920  10.879
73650SOL    HW122847  10.611  12.953  10.871
73650SOL    HW222848  10.471  12.973  10.817
73651SOL     OW22849  10.221   3.408  12.182
73651SOL    HW122850  10.225   3.500  12.208
73651SOL    HW222851  10.216   3.360  12.265
73652SOL     OW22852   7.886   7.283   2.215
73652SOL    HW122853   7.809   7.272   2.158
73652SOL    HW222854   7.957   7.304   2.155
73653SOL     OW22855   7.607   1.259   2.572
73653SOL    HW122856   7.603   1.181   2.628
73653SOL    HW222857   7.700   1.270   2.553
73654SOL     OW22858   2.785   2.071  14.397
73654SOL    HW122859   2.739   2.044  14.477
73654SOL    HW222860   2.732   2.143  14.362
73655SOL     OW22861   6.349   4.506  10.005
73655SOL    HW122862   6.254   4.510  10.013
73655SOL    HW222863   6.374   4.426  10.052
73656SOL     OW22864   8.012  12.629   2.177
73656SOL    HW122865   7.933  12.627   2.122
73656SOL    HW222866   7.992  12.570   2.250
73657SOL     OW22867   7.288   4.000   1.818
73657SOL    HW122868   7.230   4.053   1.764
73657SOL    HW222869   7.328   3.938   1.757
73658SOL     OW22870   8.497   6.278  14.737
73658SOL    HW122871   8.555   6.204  14.751
73658SOL    HW222872   8.521   6.341  14.805
73659SOL     OW22873  13.409   8.458   9.611
73659SOL    HW122874  13.367   8.374   9.629
73659SOL    HW222875  13.441   8.488   9.697
73660SOL     OW22876  14.538  12.680   2.817
73660SOL    HW122877  14.602  12.673   2.887
73660SOL    HW222878  14.589  12.703   2.740
73661SOL     OW22879   2.833   5.560   8.560
73661SOL    HW122880   2.787   5.641   8.538
73661SOL    HW222881   2.915   5.565   8.511
73662SOL     OW22882   6.297   5.735  14.722
73662SOL    HW122883   6.308   5.771  14.634
73662SOL    HW222884   6.225   5.785  14.759
73663SOL     OW22885  11.687  14.579   9.507
73663SOL    HW122886  11.704  14.518   9.578
73663SOL    HW222887  11.765  14.575   9.452
73664SOL     OW22888   2.174   7.455   2.343
73664SOL    HW122889   2.254   7.404   2.356
73664SOL    HW222890   2.112   7.419   2.407
73665SOL     OW22891  10.978  10.074   5.310
73665SOL    HW122892  10.932  10.147   5.269
73665SOL    HW222893  11.008  10.108   5.394
73666SOL     OW22894   3.515  11.557   7.261
73666SOL    HW122895   3.591  11.517   7.302
73666SOL    HW222896   3.549  11.638   7.222
73667SOL     OW22897   3.735   9.956   7.976
73667SOL    HW122898   3.668   9.906   7.929
73667SOL    HW222899   3.753   9.903   8.054
73668SOL     OW22900   6.795   1.916   8.861
73668SOL    HW122901   6.750   1.833   8.844
73668SOL    HW222902   6.841   1.936   8.780
73669SOL     OW22903  13.407   4.764   7.788
73669SOL    HW122904  13.384   4.765   7.695
73669SOL    HW222905  13.409   4.856   7.813
73670SOL     OW22906  13.665  14.711  13.643
73670SOL    HW122907  13.687  14.638  13.701
73670SOL    HW222908  13.655  14.786  13.702
73671SOL     OW22909  14.229  12.918   0.018
73671SOL    HW122910  14.227  12.827   0.049
73671SOL    HW222911  14.137  12.941   0.007
73672SOL     OW22912   7.178   5.524   7.312
73672SOL    HW122913   7.117   5.597   7.299
73672SOL    HW222914   7.185   5.516   7.407
73673SOL     OW22915  13.717   5.653  11.947
73673SOL    HW122916  13.638   5.698  11.979
73673SOL    HW222917  13.778   5.724  11.927
73674SOL     OW22918   1.295   6.747   7.621
73674SOL    HW122919   1.372   6.707   7.581
73674SOL    HW222920   1.225   6.737   7.556
73675SOL     OW22921   2.837   2.279   1.687
73675SOL    HW122922   2.884   2.240   1.761
73675SOL    HW222923   2.814   2.367   1.717
73676SOL     OW22924   9.888   8.480  11.117
73676SOL    HW122925   9.854   8.398  11.154
73676SOL    HW222926   9.976   8.488  11.152
73677SOL     OW22927  12.109   1.495   3.270
73677SOL    HW122928  12.019   1.463   3.264
73677SOL    HW222929  12.102   1.577   3.319
73678SOL     OW22930   1.455   0.377  10.793
73678SOL    HW122931   1.517   0.355  10.862
73678SOL    HW222932   1.373   0.335  10.820
73679SOL     OW22933   8.301   3.901  11.056
73679SOL    HW122934   8.231   3.917  11.119
73679SOL    HW222935   8.283   3.813  11.021
73680SOL     OW22936   3.968   5.145  14.626
73680SOL    HW122937   3.877   5.128  14.647
73680SOL    HW222938   4.011   5.157  14.711
73681SOL     OW22939   8.732   9.497   2.078
73681SOL    HW122940   8.791   9.512   2.151
73681SOL    HW222941   8.675   9.574   2.077
73682SOL     OW22942  12.461   8.361   7.907
73682SOL    HW122943  12.422   8.297   7.967
73682SOL    HW222944  12.526   8.311   7.857
73683SOL     OW22945   3.434  14.723   1.287
73683SOL    HW122946   3.410  14.756   1.374
73683SOL    HW222947   3.505  14.781   1.258
73684SOL     OW22948   7.202   4.858   9.419
73684SOL    HW122949   7.283   4.812   9.396
73684SOL    HW222950   7.193   4.925   9.352
73685SOL     OW22951   2.643   0.124   3.140
73685SOL    HW122952   2.706   0.117   3.212
73685SOL    HW222953   2.670   0.201   3.091
73686SOL     OW22954   2.750   5.268   2.408
73686SOL    HW122955   2.681   5.303   2.351
73686SOL    HW222956   2.824   5.252   2.350
73687SOL     OW22957  13.422  13.327   7.144
73687SOL    HW122958  13.466  13.324   7.059
73687SOL    HW222959  13.436  13.240   7.181
73688SOL     OW22960  10.445   5.786  10.912
73688SOL    HW122961  10.530   5.829  10.907
73688SOL    HW222962  10.448   5.736  10.994
73689SOL     OW22963   1.943   9.272   8.401
73689SOL    HW122964   1.920   9.202   8.341
73689SOL    HW222965   2.018   9.315   8.361
73690SOL     OW22966  13.943   4.066   4.831
73690SOL    HW122967  13.885   4.065   4.907
73690SOL    HW222968  13.926   4.150   4.789
73691SOL     OW22969  11.089   6.776   6.224
73691SOL    HW122970  11.008   6.823   6.244
73691SOL    HW222971  11.071   6.729   6.143
73692SOL     OW22972  12.606   3.103   1.027
73692SOL    HW122973  12.692   3.119   1.065
73692SOL    HW222974  12.605   3.156   0.947
73693SOL     OW22975   2.698   9.736   6.182
73693SOL    HW122976   2.761   9.806   6.167
73693SOL    HW222977   2.697   9.724   6.277
73694SOL     OW22978   1.008   7.228   2.962
73694SOL    HW122979   0.952   7.273   3.026
73694SOL    HW222980   1.097   7.247   2.991
73695SOL     OW22981  11.990   7.465  11.941
73695SOL    HW122982  12.066   7.424  11.983
73695SOL    HW222983  11.933   7.392  11.918
73696SOL     OW22984   8.636   0.074   5.120
73696SOL    HW122985   8.666   0.105   5.205
73696SOL    HW222986   8.551   0.034   5.138
73697SOL     OW22987   5.612   3.499  13.013
73697SOL    HW122988   5.583   3.543  13.093
73697SOL    HW222989   5.629   3.571  12.952
73698SOL     OW22990   3.588  14.603   3.874
73698SOL    HW122991   3.546  14.518   3.889
73698SOL    HW222992   3.516  14.666   3.875
73699SOL     OW22993   8.681   5.348   7.666
73699SOL    HW122994   8.603   5.395   7.697
73699SOL    HW222995   8.657   5.319   7.578
73700SOL     OW22996  12.168   7.629  14.510
73700SOL    HW122997  12.259   7.647  14.485
73700SOL    HW222998  12.153   7.539  14.480
73701SOL     OW22999   6.531   3.689  12.960
73701SOL    HW123000   6.581   3.614  12.994
73701SOL    HW223001   6.552   3.690  12.867
73702SOL     OW23002   9.767   6.894   1.552
73702SOL    HW123003   9.773   6.841   1.472
73702SOL    HW223004   9.724   6.975   1.522
73703SOL     OW23005   1.565   0.173  10.661
73703SOL    HW123006   1.558   0.264  10.689
73703SOL    HW223007   1.565   0.177  10.566
73704SOL     OW23008   0.364   1.817   9.895
73704SOL    HW123009   0.302   1.821   9.968
73704SOL    HW223010   0.351   1.731   9.855
73705SOL     OW23011   9.246  11.173  13.059
73705SOL    HW123012   9.163  11.137  13.027
73705SOL    HW223013   9.268  11.117  13.133
73706SOL     OW23014   8.141  14.647   3.668
73706SOL    HW123015   8.129  14.742   3.669
73706SOL    HW223016   8.153  14.623   3.760
73707SOL     OW23017   3.757   5.622  12.982
73707SOL    HW123018   3.830   5.632  12.921
73707SOL    HW223019   3.733   5.711  13.007
73708SOL     OW23020   9.407   9.713   2.684
73708SOL    HW123021   9.395   9.618   2.682
73708SOL    HW223022   9.500   9.725   2.703
73709SOL     OW23023   2.647   1.523   4.599
73709SOL    HW123024   2.660   1.466   4.675
73709SOL    HW223025   2.720   1.503   4.541
73710SOL     OW23026   1.575   4.517   2.486
73710SOL    HW123027   1.584   4.519   2.581
73710SOL    HW223028   1.481   4.523   2.471
73711SOL     OW23029   4.832   8.539  13.949
73711SOL    HW123030   4.884   8.517  13.872
73711SOL    HW223031   4.881   8.502  14.022
73712SOL     OW23032  10.631  10.748  11.417
73712SOL    HW123033  10.599  10.838  11.421
73712SOL    HW223034  10.566  10.702  11.364
73713SOL     OW23035   8.377   9.694   1.202
73713SOL    HW123036   8.286   9.692   1.173
73713SOL    HW223037   8.392   9.784   1.230
73714SOL     OW23038   4.452   3.563   4.537
73714SOL    HW123039   4.449   3.585   4.631
73714SOL    HW223040   4.360   3.559   4.511
73715SOL     OW23041  13.223   4.690   0.747
73715SOL    HW123042  13.229   4.659   0.837
73715SOL    HW223043  13.146   4.646   0.711
73716SOL     OW23044  14.711   1.486  10.286
73716SOL    HW123045  14.693   1.579  10.271
73716SOL    HW223046  14.721   1.449  10.198
73717SOL     OW23047   1.279  11.493   2.698
73717SOL    HW123048   1.187  11.514   2.714
73717SOL    HW223049   1.280  11.457   2.609
73718SOL     OW23050  13.396   3.422   5.874
73718SOL    HW123051  13.380   3.350   5.813
73718SOL    HW223052  13.490   3.420   5.889
73719SOL     OW23053  12.624   0.631   2.841
73719SOL    HW123054  12.532   0.604   2.846
73719SOL    HW223055  12.628   0.712   2.892
73720SOL     OW23056   9.253  11.102   7.015
73720SOL    HW123057   9.173  11.069   7.057
73720SOL    HW223058   9.221  11.150   6.939
73721SOL     OW23059  11.372   2.194   4.812
73721SOL    HW123060  11.303   2.138   4.776
73721SOL    HW223061  11.435   2.133   4.850
73722SOL     OW23062   1.627  12.170   4.143
73722SOL    HW123063   1.684  12.095   4.128
73722SOL    HW223064   1.540  12.132   4.156
73723SOL     OW23065  14.023   4.148   9.073
73723SOL    HW123066  14.053   4.175   9.160
73723SOL    HW223067  13.931   4.174   9.071
73724SOL     OW23068   7.974  13.466  10.399
73724SOL    HW123069   7.960  13.494  10.308
73724SOL    HW223070   7.961  13.371  10.397
73725SOL     OW23071  12.824   1.487  13.419
73725SOL    HW123072  12.903   1.461  13.371
73725SOL    HW223073  12.853   1.493  13.510
73726SOL     OW23074   5.088   6.257   1.304
73726SOL    HW123075   5.064   6.308   1.226
73726SOL    HW223076   5.140   6.185   1.270
73727SOL     OW23077  14.774   0.127   9.672
73727SOL    HW123078  14.850   0.160   9.720
73727SOL    HW223079  14.709   0.197   9.679
73728SOL     OW23080  13.707   1.539   0.364
73728SOL    HW123081  13.635   1.476   0.372
73728SOL    HW223082  13.701   1.593   0.442
73729SOL     OW23083   5.376   3.690   4.773
73729SOL    HW123084   5.281   3.698   4.776
73729SOL    HW223085   5.408   3.778   4.790
73730SOL     OW23086   0.563   2.176   2.059
73730SOL    HW123087   0.486   2.233   2.055
73730SOL    HW223088   0.636   2.234   2.036
73731SOL     OW23089   6.893  10.241   6.225
73731SOL    HW123090   6.986  10.220   6.225
73731SOL    HW223091   6.886  10.320   6.172
73732SOL     OW23092  10.781   6.339   4.040
73732SOL    HW123093  10.765   6.247   4.019
73732SOL    HW223094  10.745   6.351   4.128
73733SOL     OW23095   0.751   0.682   1.088
73733SOL    HW123096   0.734   0.588   1.089
73733SOL    HW223097   0.693   0.719   1.155
73734SOL     OW23098  12.069   8.739   0.969
73734SOL    HW123099  12.006   8.811   0.964
73734SOL    HW223100  12.145   8.770   0.919
73735SOL     OW23101  11.123   5.488   4.986
73735SOL    HW123102  11.159   5.426   4.922
73735SOL    HW223103  11.031   5.495   4.963
73736SOL     OW23104   3.318  11.858   0.257
73736SOL    HW123105   3.244  11.918   0.243
73736SOL    HW223106   3.278  11.771   0.255
73737SOL     OW23107   7.378  13.079   5.355
73737SOL    HW123108   7.440  13.126   5.409
73737SOL    HW223109   7.303  13.061   5.413
73738SOL     OW23110   8.084   1.680   0.226
73738SOL    HW123111   8.125   1.600   0.194
73738SOL    HW223112   7.992   1.673   0.198
73739SOL     OW23113   1.108   3.532  10.526
73739SOL    HW123114   1.069   3.593  10.588
73739SOL    HW223115   1.127   3.584  10.449
73740SOL     OW23116   7.563   7.989   5.380
73740SOL    HW123117   7.646   8.004   5.426
73740SOL    HW223118   7.515   7.929   5.437
73741SOL     OW23119   7.427   2.677  12.402
73741SOL    HW123120   7.348   2.724  12.374
73741SOL    HW223121   7.497   2.742  12.397
73742SOL     OW23122  10.513   7.636  13.631
73742SOL    HW123123  10.536   7.578  13.704
73742SOL    HW223124  10.510   7.723  13.670
73743SOL     OW23125  10.982   3.862   9.870
73743SOL    HW123126  11.035   3.868   9.790
73743SOL    HW223127  11.010   3.779   9.911
73744SOL     OW23128  14.054  11.213   1.065
73744SOL    HW123129  14.088  11.303   1.066
73744SOL    HW223130  14.132  11.158   1.058
73745SOL     OW23131  13.262  14.428   4.252
73745SOL    HW123132  13.354  14.406   4.244
73745SOL    HW223133  13.232  14.380   4.329
73746SOL     OW23134  13.841   2.584   8.686
73746SOL    HW123135  13.887   2.501   8.697
73746SOL    HW223136  13.825   2.591   8.592
73747SOL     OW23137   9.711   1.608  10.742
73747SOL    HW123138   9.643   1.644  10.799
73747SOL    HW223139   9.728   1.678  10.678
73748SOL     OW23140   1.294   6.603   8.682
73748SOL    HW123141   1.212   6.558   8.664
73748SOL    HW223142   1.338   6.547   8.746
73749SOL     OW23143  10.179   4.718   5.194
73749SOL    HW123144  10.200   4.690   5.283
73749SOL    HW223145  10.106   4.662   5.168
73750SOL     OW23146  11.420   9.697   5.063
73750SOL    HW123147  11.348   9.663   5.116
73750SOL    HW223148  11.499   9.668   5.110
73751SOL     OW23149   0.166   5.543  12.057
73751SOL    HW123150   0.219   5.550  12.136
73751SOL    HW223151   0.105   5.471  12.075
73752SOL     OW23152   3.840  11.924   2.052
73752SOL    HW123153   3.934  11.944   2.050
73752SOL    HW223154   3.821  11.890   1.964
73753SOL     OW23155  12.537  11.282   5.687
73753SOL    HW123156  12.577  11.196   5.699
73753SOL    HW223157  12.611  11.343   5.683
73754SOL     OW23158   4.730   4.119   0.703
73754SOL    HW123159   4.686   4.195   0.665
73754SOL    HW223160   4.676   4.045   0.678
73755SOL     OW23161  10.069   3.204   7.472
73755SOL    HW123162  10.164   3.205   7.483
73755SOL    HW223163  10.049   3.115   7.444
73756SOL     OW23164  11.115  14.290  11.652
73756SOL    HW123165  11.133  14.277  11.559
73756SOL    HW223166  11.022  14.312  11.657
73757SOL     OW23167  13.190   1.310   8.617
73757SOL    HW123168  13.165   1.377   8.681
73757SOL    HW223169  13.202   1.230   8.670
73758SOL     OW23170   6.650   1.189  14.847
73758SOL    HW123171   6.575   1.221   0.029
73758SOL    HW223172   6.670   1.104   0.016
73759SOL     OW23173   8.705   7.799   2.582
73759SOL    HW123174   8.730   7.707   2.573
73759SOL    HW223175   8.787   7.844   2.604
73760SOL     OW23176   9.441   3.020   4.648
73760SOL    HW123177   9.486   2.940   4.621
73760SOL    HW223178   9.466   3.031   4.740
73761SOL     OW23179   9.774   2.476  14.710
73761SOL    HW123180   9.760   2.568  14.686
73761SOL    HW223181   9.785   2.477  14.805
73762SOL     OW23182   9.517  13.895   8.131
73762SOL    HW123183   9.460  13.894   8.055
73762SOL    HW223184   9.521  13.804   8.160
73763SOL     OW23185  11.792   9.318  14.339
73763SOL    HW123186  11.708   9.323  14.293
73763SOL    HW223187  11.858   9.311  14.270
73764SOL     OW23188   8.219   3.451  10.126
73764SOL    HW123189   8.156   3.518  10.150
73764SOL    HW223190   8.304   3.486  10.154
73765SOL     OW23191   5.186   4.507   1.528
73765SOL    HW123192   5.196   4.412   1.529
73765SOL    HW223193   5.193   4.533   1.620
73766SOL     OW23194  10.991   0.224   1.486
73766SOL    HW123195  10.965   0.307   1.447
73766SOL    HW223196  11.057   0.189   1.426
73767SOL     OW23197   2.052   5.714   9.606
73767SOL    HW123198   2.090   5.697   9.692
73767SOL    HW223199   2.104   5.787   9.571
73768SOL     OW23200   7.272  10.551   9.766
73768SOL    HW123201   7.334  10.538   9.838
73768SOL    HW223202   7.191  10.578   9.809
73769SOL     OW23203  12.384   2.298   0.526
73769SOL    HW123204  12.469   2.255   0.537
73769SOL    HW223205  12.327   2.229   0.492
73770SOL     OW23206  12.403  12.375   9.519
73770SOL    HW123207  12.480  12.391   9.464
73770SOL    HW223208  12.425  12.413   9.603
73771SOL     OW23209   2.454  13.198  11.417
73771SOL    HW123210   2.373  13.245  11.398
73771SOL    HW223211   2.425  13.115  11.456
73772SOL     OW23212   0.206  13.673   3.502
73772SOL    HW123213   0.185  13.628   3.421
73772SOL    HW223214   0.130  13.658   3.558
73773SOL     OW23215   7.116  14.001   2.190
73773SOL    HW123216   7.057  13.961   2.254
73773SOL    HW223217   7.203  13.994   2.228
73774SOL     OW23218  12.109   7.171   4.284
73774SOL    HW123219  12.029   7.173   4.231
73774SOL    HW223220  12.117   7.260   4.318
73775SOL     OW23221   7.729   2.445   5.060
73775SOL    HW123222   7.766   2.465   5.146
73775SOL    HW223223   7.804   2.411   5.010
73776SOL     OW23224  13.853   8.874   5.990
73776SOL    HW123225  13.808   8.833   6.063
73776SOL    HW223226  13.818   8.963   5.987
73777SOL     OW23227   6.551  13.569  13.019
73777SOL    HW123228   6.493  13.642  13.041
73777SOL    HW223229   6.534  13.551  12.927
73778SOL     OW23230   2.816   4.557   5.726
73778SOL    HW123231   2.892   4.610   5.752
73778SOL    HW223232   2.801   4.498   5.800
73779SOL     OW23233  12.124  10.842   6.797
73779SOL    HW123234  12.121  10.788   6.718
73779SOL    HW223235  12.080  10.789   6.864
73780SOL     OW23236   4.220   7.293  12.092
73780SOL    HW123237   4.279   7.367  12.102
73780SOL    HW223238   4.150   7.325  12.035
73781SOL     OW23239   2.096  10.918   0.928
73781SOL    HW123240   2.151  10.884   0.857
73781SOL    HW223241   2.139  11.000   0.954
73782SOL     OW23242   4.630  13.326   1.041
73782SOL    HW123243   4.661  13.396   1.098
73782SOL    HW223244   4.677  13.248   1.071
73783SOL     OW23245   7.295   2.421  13.258
73783SOL    HW123246   7.233   2.455  13.322
73783SOL    HW223247   7.268   2.462  13.175
73784SOL     OW23248   4.040  12.972   3.191
73784SOL    HW123249   4.112  13.031   3.215
73784SOL    HW223250   4.043  12.903   3.258
73785SOL     OW23251   1.085   4.238  13.748
73785SOL    HW123252   1.126   4.219  13.833
73785SOL    HW223253   1.129   4.179  13.687
73786SOL     OW23254  13.098  12.526   6.365
73786SOL    HW123255  13.144  12.495   6.443
73786SOL    HW223256  13.130  12.615   6.352
73787SOL     OW23257   1.232   3.730   7.747
73787SOL    HW123258   1.236   3.763   7.837
73787SOL    HW223259   1.230   3.808   7.692
73788SOL     OW23260  11.499   4.617   2.175
73788SOL    HW123261  11.502   4.539   2.230
73788SOL    HW223262  11.573   4.670   2.204
73789SOL     OW23263  13.375   9.121  14.295
73789SOL    HW123264  13.403   9.196  14.242
73789SOL    HW223265  13.388   9.150  14.385
73790SOL     OW23266  11.932   2.449   3.150
73790SOL    HW123267  11.877   2.465   3.226
73790SOL    HW223268  11.901   2.366   3.114
73791SOL     OW23269   7.486  14.485   0.799
73791SOL    HW123270   7.513  14.486   0.707
73791SOL    HW223271   7.413  14.424   0.801
73792SOL     OW23272   9.352  12.436  12.439
73792SOL    HW123273   9.301  12.513  12.417
73792SOL    HW223274   9.442  12.459  12.416
73793SOL     OW23275   9.335  12.167  13.774
73793SOL    HW123276   9.426  12.149  13.797
73793SOL    HW223277   9.304  12.227  13.841
73794SOL     OW23278  10.771   2.741  11.629
73794SOL    HW123279  10.839   2.780  11.574
73794SOL    HW223280  10.772   2.648  11.606
73795SOL     OW23281   6.484   7.172   0.395
73795SOL    HW123282   6.504   7.254   0.350
73795SOL    HW223283   6.391   7.156   0.375
73796SOL     OW23284  12.945   8.431  11.705
73796SOL    HW123285  12.905   8.503  11.754
73796SOL    HW223286  12.893   8.355  11.729
73797SOL     OW23287   2.246   6.851  11.133
73797SOL    HW123288   2.243   6.767  11.179
73797SOL    HW223289   2.155   6.879  11.130
73798SOL     OW23290  10.878   7.427  12.609
73798SOL    HW123291  10.825   7.411  12.531
73798SOL    HW223292  10.964   7.450  12.575
73799SOL     OW23293   7.190  11.515  10.537
73799SOL    HW123294   7.240  11.575  10.593
73799SOL    HW223295   7.242  11.509  10.457
73800SOL     OW23296   0.936   8.918   2.760
73800SOL    HW123297   0.860   8.894   2.708
73800SOL    HW223298   0.906   8.911   2.851
73801SOL     OW23299  14.461   5.028   9.133
73801SOL    HW123300  14.410   4.994   9.207
73801SOL    HW223301  14.422   5.113   9.114
73802SOL     OW23302   3.585   0.297   6.024
73802SOL    HW123303   3.611   0.228   6.085
73802SOL    HW223304   3.665   0.347   6.008
73803SOL     OW23305   4.248   1.844   4.101
73803SOL    HW123306   4.273   1.821   4.191
73803SOL    HW223307   4.264   1.938   4.095
73804SOL     OW23308   9.901   7.806   3.088
73804SOL    HW123309   9.828   7.863   3.061
73804SOL    HW223310   9.950   7.859   3.151
73805SOL     OW23311   0.648   0.953  12.811
73805SOL    HW123312   0.738   0.933  12.787
73805SOL    HW223313   0.596   0.929  12.735
73806SOL     OW23314   0.578   9.951  14.387
73806SOL    HW123315   0.573   9.969  14.481
73806SOL    HW223316   0.638   9.877  14.380
73807SOL     OW23317  13.219   2.946   9.708
73807SOL    HW123318  13.162   3.006   9.659
73807SOL    HW223319  13.159   2.886   9.752
73808SOL     OW23320  14.014   3.112   0.995
73808SOL    HW123321  14.083   3.075   0.940
73808SOL    HW223322  13.932   3.082   0.955
73809SOL     OW23323   3.084  12.026   5.430
73809SOL    HW123324   3.024  12.017   5.355
73809SOL    HW223325   3.150  12.088   5.400
73810SOL     OW23326   1.873  12.011  13.403
73810SOL    HW123327   1.952  12.011  13.349
73810SOL    HW223328   1.893  11.949  13.473
73811SOL     OW23329   0.960  14.315   8.600
73811SOL    HW123330   0.898  14.280   8.536
73811SOL    HW223331   0.907  14.336   8.676
73812SOL     OW23332  10.078   6.041   5.312
73812SOL    HW123333  10.049   5.960   5.270
73812SOL    HW223334  10.173   6.031   5.320
73813SOL     OW23335   8.599   2.120   7.988
73813SOL    HW123336   8.509   2.093   8.005
73813SOL    HW223337   8.620   2.084   7.902
73814SOL     OW23338   8.708   5.573   7.298
73814SOL    HW123339   8.642   5.504   7.308
73814SOL    HW223340   8.776   5.552   7.362
73815SOL     OW23341   0.309  13.033  11.596
73815SOL    HW123342   0.390  12.990  11.572
73815SOL    HW223343   0.336  13.116  11.634
73816SOL     OW23344   9.310  12.326   9.019
73816SOL    HW123345   9.293  12.321   9.113
73816SOL    HW223346   9.304  12.235   8.989
73817SOL     OW23347   7.473   3.612   4.438
73817SOL    HW123348   7.506   3.633   4.525
73817SOL    HW223349   7.380   3.636   4.441
73818SOL     OW23350   1.190  12.508   0.861
73818SOL    HW123351   1.169  12.426   0.816
73818SOL    HW223352   1.257  12.549   0.806
73819SOL     OW23353   6.798  11.191   1.628
73819SOL    HW123354   6.741  11.135   1.681
73819SOL    HW223355   6.831  11.134   1.559
73820SOL     OW23356   7.014  12.633  13.092
73820SOL    HW123357   7.095  12.628  13.143
73820SOL    HW223358   6.996  12.727  13.085
73821SOL     OW23359   3.823  13.568   3.253
73821SOL    HW123360   3.838  13.526   3.168
73821SOL    HW223361   3.731  13.549   3.273
73822SOL     OW23362   8.213   7.660   6.395
73822SOL    HW123363   8.256   7.745   6.407
73822SOL    HW223364   8.134   7.679   6.345
73823SOL     OW23365   8.544   7.903   1.105
73823SOL    HW123366   8.564   7.871   1.017
73823SOL    HW223367   8.616   7.964   1.125
73824SOL     OW23368  13.352  12.757  11.233
73824SOL    HW123369  13.423  12.799  11.282
73824SOL    HW223370  13.391  12.679  11.195
73825SOL     OW23371  11.676  10.802   3.225
73825SOL    HW123372  11.633  10.728   3.269
73825SOL    HW223373  11.681  10.775   3.133
73826SOL     OW23374  12.039   8.727   7.388
73826SOL    HW123375  11.967   8.782   7.417
73826SOL    HW223376  12.115   8.786   7.387
73827SOL     OW23377  12.474   8.702  10.807
73827SOL    HW123378  12.418   8.733  10.735
73827SOL    HW223379  12.437   8.617  10.830
73828SOL     OW23380  13.845   9.039   0.226
73828SOL    HW123381  13.899   8.996   0.159
73828SOL    HW223382  13.767   9.068   0.179
73829SOL     OW23383  10.557   1.059   7.436
73829SOL    HW123384  10.532   1.095   7.351
73829SOL    HW223385  10.477   1.063   7.488
73830SOL     OW23386   7.629   9.659   8.937
73830SOL    HW123387   7.589   9.664   9.023
73830SOL    HW223388   7.558   9.635   8.878
73831SOL     OW23389   6.570  11.924   8.960
73831SOL    HW123390   6.548  12.015   8.981
73831SOL    HW223391   6.515  11.903   8.884
73832SOL     OW23392   8.616  13.552   3.081
73832SOL    HW123393   8.525  13.531   3.059
73832SOL    HW223394   8.667  13.511   3.011
73833SOL     OW23395   3.801   8.496   3.039
73833SOL    HW123396   3.825   8.504   2.946
73833SOL    HW223397   3.878   8.456   3.079
73834SOL     OW23398   3.523   0.457  12.494
73834SOL    HW123399   3.568   0.443  12.410
73834SOL    HW223400   3.469   0.379  12.505
73835SOL     OW23401   5.564  12.284   8.179
73835SOL    HW123402   5.607  12.259   8.097
73835SOL    HW223403   5.630  12.337   8.225
73836SOL     OW23404   9.539   2.146   5.788
73836SOL    HW123405   9.492   2.145   5.872
73836SOL    HW223406   9.625   2.182   5.808
73837SOL     OW23407  13.619   0.398   5.163
73837SOL    HW123408  13.640   0.449   5.241
73837SOL    HW223409  13.635   0.307   5.189
73838SOL     OW23410  14.544   4.005   3.769
73838SOL    HW123411  14.498   3.943   3.826
73838SOL    HW223412  14.522   3.976   3.681
73839SOL     OW23413  12.172   1.584   7.622
73839SOL    HW123414  12.078   1.573   7.610
73839SOL    HW223415  12.188   1.557   7.712
73840SOL     OW23416  10.994  10.518   9.245
73840SOL    HW123417  11.046  10.484   9.172
73840SOL    HW223418  11.057  10.563   9.301
73841SOL     OW23419   5.117  10.850  12.786
73841SOL    HW123420   5.106  10.755  12.775
73841SOL    HW223421   5.188  10.873  12.725
73842SOL     OW23422   5.169  12.231   0.601
73842SOL    HW123423   5.225  12.195   0.670
73842SOL    HW223424   5.158  12.323   0.625
73843SOL     OW23425  13.027   1.642  10.076
73843SOL    HW123426  12.960   1.645  10.144
73843SOL    HW223427  13.071   1.726  10.082
73844SOL     OW23428   5.589   6.164   4.904
73844SOL    HW123429   5.626   6.252   4.909
73844SOL    HW223430   5.558   6.156   4.814
73845SOL     OW23431  10.418   8.894   0.297
73845SOL    HW123432  10.448   8.872   0.385
73845SOL    HW223433  10.325   8.872   0.297
73846SOL     OW23434   3.320   0.707   4.856
73846SOL    HW123435   3.395   0.759   4.886
73846SOL    HW223436   3.318   0.720   4.762
73847SOL     OW23437   5.739   7.976  13.477
73847SOL    HW123438   5.824   7.999  13.440
73847SOL    HW223439   5.758   7.952  13.568
73848SOL     OW23440   7.931  14.428   4.497
73848SOL    HW123441   7.850  14.466   4.462
73848SOL    HW223442   7.936  14.342   4.455
73849SOL     OW23443   8.364   2.481  12.321
73849SOL    HW123444   8.341   2.439  12.403
73849SOL    HW223445   8.356   2.412  12.255
73850SOL     OW23446   2.948   6.259   7.815
73850SOL    HW123447   3.021   6.236   7.872
73850SOL    HW223448   2.941   6.354   7.820
73851SOL     OW23449  12.179   7.163   3.855
73851SOL    HW123450  12.209   7.097   3.918
73851SOL    HW223451  12.096   7.194   3.890
73852SOL     OW23452  12.396   5.682   0.423
73852SOL    HW123453  12.360   5.771   0.428
73852SOL    HW223454  12.356   5.637   0.498
73853SOL     OW23455  12.104  11.697  11.744
73853SOL    HW123456  12.038  11.687  11.676
73853SOL    HW223457  12.066  11.655  11.821
73854SOL     OW23458  13.503   5.036  12.079
73854SOL    HW123459  13.566   5.000  12.142
73854SOL    HW223460  13.450   5.096  12.131
73855SOL     OW23461   0.078  12.971   5.789
73855SOL    HW123462   0.006  13.022   5.752
73855SOL    HW223463   0.146  13.035   5.809
73856SOL     OW23464   5.058   0.435   3.904
73856SOL    HW123465   5.051   0.469   3.815
73856SOL    HW223466   4.989   0.370   3.910
73857SOL     OW23467  14.856  14.756  13.543
73857SOL    HW123468  14.805  14.812  13.601
73857SOL    HW223469   0.068  14.737  13.592
73858SOL     OW23470   1.905   1.486  12.232
73858SOL    HW123471   1.819   1.530  12.230
73858SOL    HW223472   1.966   1.552  12.198
73859SOL     OW23473   9.047  13.645   1.511
73859SOL    HW123474   8.995  13.587   1.567
73859SOL    HW223475   9.052  13.599   1.427
73860SOL     OW23476   0.698  10.481   9.764
73860SOL    HW123477   0.663  10.427   9.835
73860SOL    HW223478   0.675  10.570   9.789
73861SOL     OW23479  14.634   0.497  10.715
73861SOL    HW123480  14.552   0.453  10.691
73861SOL    HW223481  14.674   0.520  10.631
73862SOL     OW23482   0.291   4.692  11.778
73862SOL    HW123483   0.241   4.773  11.784
73862SOL    HW223484   0.362   4.703  11.842
73863SOL     OW23485   1.797   6.832  10.528
73863SOL    HW123486   1.832   6.907  10.479
73863SOL    HW223487   1.831   6.845  10.617
73864SOL     OW23488   6.703   3.960   3.900
73864SOL    HW123489   6.630   4.002   3.856
73864SOL    HW223490   6.746   3.909   3.832
73865SOL     OW23491  11.491  12.859   1.674
73865SOL    HW123492  11.546  12.781   1.671
73865SOL    HW223493  11.485  12.880   1.767
73866SOL     OW23494   1.320   1.292   5.421
73866SOL    HW123495   1.296   1.282   5.329
73866SOL    HW223496   1.257   1.237   5.468
73867SOL     OW23497   5.928   3.567   4.737
73867SOL    HW123498   5.988   3.548   4.809
73867SOL    HW223499   5.976   3.630   4.682
73868SOL     OW23500   8.963  12.562  12.553
73868SOL    HW123501   8.877  12.597  12.576
73868SOL    HW223502   9.005  12.544  12.637
73869SOL     OW23503   7.940   7.802  13.137
73869SOL    HW123504   7.928   7.716  13.098
73869SOL    HW223505   7.852   7.830  13.161
73870SOL     OW23506  12.683   8.566   9.010
73870SOL    HW123507  12.685   8.559   9.105
73870SOL    HW223508  12.592   8.552   8.987
73871SOL     OW23509  13.656   5.503  10.463
73871SOL    HW123510  13.728   5.439  10.466
73871SOL    HW223511  13.668   5.548  10.379
73872SOL     OW23512   5.323   8.763   2.206
73872SOL    HW123513   5.300   8.678   2.170
73872SOL    HW223514   5.262   8.776   2.279
73873SOL     OW23515   0.663  13.233   1.711
73873SOL    HW123516   0.627  13.307   1.761
73873SOL    HW223517   0.653  13.158   1.770
73874SOL     OW23518  10.306  13.087   6.042
73874SOL    HW123519  10.274  13.089   6.133
73874SOL    HW223520  10.245  13.143   5.994
73875SOL     OW23521  10.625   2.641   2.834
73875SOL    HW123522  10.715   2.634   2.802
73875SOL    HW223523  10.600   2.550   2.854
73876SOL     OW23524   8.587   1.463  12.256
73876SOL    HW123525   8.570   1.371  12.277
73876SOL    HW223526   8.517   1.488  12.196
73877SOL     OW23527   8.129   9.204  13.360
73877SOL    HW123528   8.051   9.194  13.415
73877SOL    HW223529   8.191   9.252  13.415
73878SOL     OW23530  13.101   4.216  11.260
73878SOL    HW123531  13.096   4.195  11.166
73878SOL    HW223532  13.152   4.144  11.298
73879SOL     OW23533  10.750   5.113   0.633
73879SOL    HW123534  10.744   5.199   0.674
73879SOL    HW223535  10.674   5.108   0.575
73880SOL     OW23536   2.065   7.615   8.702
73880SOL    HW123537   1.998   7.661   8.754
73880SOL    HW223538   2.129   7.586   8.767
73881SOL     OW23539  12.111   0.619   6.874
73881SOL    HW123540  12.158   0.677   6.934
73881SOL    HW223541  12.180   0.567   6.833
73882SOL     OW23542  12.135  13.692   3.066
73882SOL    HW123543  12.157  13.707   3.158
73882SOL    HW223544  12.043  13.719   3.059
73883SOL     OW23545  11.335  11.250   5.811
73883SOL    HW123546  11.383  11.189   5.755
73883SOL    HW223547  11.251  11.207   5.827
73884SOL     OW23548   1.312  14.342   2.723
73884SOL    HW123549   1.304  14.366   2.631
73884SOL    HW223550   1.261  14.407   2.770
73885SOL     OW23551  13.197   7.913  12.237
73885SOL    HW123552  13.223   7.822  12.226
73885SOL    HW223553  13.137   7.912  12.311
73886SOL     OW23554  14.361  11.518   9.579
73886SOL    HW123555  14.382  11.609   9.597
73886SOL    HW223556  14.291  11.521   9.514
73887SOL     OW23557   8.629   2.774  10.332
73887SOL    HW123558   8.533   2.781  10.327
73887SOL    HW223559   8.656   2.855  10.375
73888SOL     OW23560  12.150   9.207   3.555
73888SOL    HW123561  12.071   9.158   3.579
73888SOL    HW223562  12.196   9.220   3.638
73889SOL     OW23563  10.599  10.145  12.930
73889SOL    HW123564  10.518  10.096  12.948
73889SOL    HW223565  10.571  10.236  12.925
73890SOL     OW23566  11.997   0.186  11.046
73890SOL    HW123567  11.932   0.202  11.115
73890SOL    HW223568  12.071   0.242  11.069
73891SOL     OW23569  12.472   2.773  11.057
73891SOL    HW123570  12.526   2.807  11.128
73891SOL    HW223571  12.406   2.841  11.043
73892SOL     OW23572   8.660   2.362   8.368
73892SOL    HW123573   8.570   2.330   8.377
73892SOL    HW223574   8.711   2.283   8.350
73893SOL     OW23575   0.075   1.134   0.629
73893SOL    HW123576   0.107   1.130   0.539
73893SOL    HW223577   0.134   1.196   0.672
73894SOL     OW23578   2.123   4.296  14.559
73894SOL    HW123579   2.202   4.321  14.606
73894SOL    HW223580   2.138   4.326  14.469
73895SOL     OW23581  10.643   6.100   2.875
73895SOL    HW123582  10.729   6.059   2.879
73895SOL    HW223583  10.631   6.121   2.782
73896SOL     OW23584   2.568  12.958   5.816
73896SOL    HW123585   2.647  12.950   5.762
73896SOL    HW223586   2.499  12.914   5.766
73897SOL     OW23587   3.282   4.702   9.331
73897SOL    HW123588   3.218   4.634   9.353
73897SOL    HW223589   3.270   4.769   9.398
73898SOL     OW23590  14.357   4.723   9.709
73898SOL    HW123591  14.362   4.688   9.620
73898SOL    HW223592  14.319   4.810   9.698
73899SOL     OW23593   0.209   8.654   5.580
73899SOL    HW123594   0.255   8.571   5.586
73899SOL    HW223595   0.117   8.630   5.568
73900SOL     OW23596   1.462  14.143   5.657
73900SOL    HW123597   1.442  14.115   5.747
73900SOL    HW223598   1.381  14.183   5.626
73901SOL     OW23599  10.247   6.095   7.886
73901SOL    HW123600  10.260   6.008   7.923
73901SOL    HW223601  10.314   6.103   7.818
73902SOL     OW23602   9.172   1.387  14.037
73902SOL    HW123603   9.142   1.454  14.099
73902SOL    HW223604   9.239   1.339  14.086
73903SOL     OW23605   6.902   0.056  13.484
73903SOL    HW123606   6.890  14.846  13.430
73903SOL    HW223607   6.902   0.023  13.574
73904SOL     OW23608   8.304   5.383  11.233
73904SOL    HW123609   8.264   5.389  11.147
73904SOL    HW223610   8.398   5.382  11.216
73905SOL     OW23611  12.669   6.281   2.863
73905SOL    HW123612  12.646   6.368   2.830
73905SOL    HW223613  12.751   6.260   2.816
73906SOL     OW23614  11.126   8.119   4.798
73906SOL    HW123615  11.195   8.119   4.864
73906SOL    HW223616  11.172   8.114   4.714
73907SOL     OW23617   1.455   3.977  10.164
73907SOL    HW123618   1.544   3.946  10.151
73907SOL    HW223619   1.464   4.068  10.191
73908SOL     OW23620   0.367  14.769  10.065
73908SOL    HW123621   0.455  14.801  10.046
73908SOL    HW223622   0.354  14.695  10.005
73909SOL     OW23623   6.684  10.920   7.435
73909SOL    HW123624   6.678  10.992   7.373
73909SOL    HW223625   6.771  10.928   7.473
73910SOL     OW23626   1.969  14.559  14.018
73910SOL    HW123627   1.968  14.477  14.068
73910SOL    HW223628   1.882  14.596  14.033
73911SOL     OW23629  14.389   1.454   4.936
73911SOL    HW123630  14.364   1.505   4.859
73911SOL    HW223631  14.307   1.411   4.963
73912SOL     OW23632   9.931  11.599   4.419
73912SOL    HW123633   9.970  11.628   4.336
73912SOL    HW223634   9.945  11.504   4.420
73913SOL     OW23635  11.502   1.628   0.679
73913SOL    HW123636  11.437   1.698   0.669
73913SOL    HW223637  11.576   1.657   0.625
73914SOL     OW23638   3.714  11.910  10.703
73914SOL    HW123639   3.783  11.966  10.739
73914SOL    HW223640   3.739  11.821  10.728
73915SOL     OW23641   2.192  14.455   3.371
73915SOL    HW123642   2.114  14.469   3.317
73915SOL    HW223643   2.159  14.419   3.453
73916SOL     OW23644  14.760  12.137  14.517
73916SOL    HW123645  14.787  12.199  14.584
73916SOL    HW223646  14.689  12.181  14.470
73917SOL     OW23647   7.783   7.815   8.453
73917SOL    HW123648   7.692   7.841   8.464
73917SOL    HW223649   7.826   7.893   8.417
73918SOL     OW23650  12.570  10.029   0.853
73918SOL    HW123651  12.526   9.955   0.812
73918SOL    HW223652  12.551  10.103   0.796
73919SOL     OW23653  13.416   9.264   4.665
73919SOL    HW123654  13.403   9.220   4.581
73919SOL    HW223655  13.337   9.246   4.715
73920SOL     OW23656   3.876   1.579   1.553
73920SOL    HW123657   3.832   1.511   1.604
73920SOL    HW223658   3.819   1.655   1.560
73921SOL     OW23659  10.516  13.158  14.271
73921SOL    HW123660  10.563  13.231  14.309
73921SOL    HW223661  10.548  13.153  14.181
73922SOL     OW23662   7.241   1.997   2.663
73922SOL    HW123663   7.147   2.002   2.680
73922SOL    HW223664   7.280   2.056   2.728
73923SOL     OW23665  10.467   7.032   8.450
73923SOL    HW123666  10.382   7.000   8.420
73923SOL    HW223667  10.461   7.127   8.445
73924SOL     OW23668   0.319   5.569  11.469
73924SOL    HW123669   0.364   5.490  11.498
73924SOL    HW223670   0.375   5.605  11.400
73925SOL     OW23671  11.575  13.192  12.138
73925SOL    HW123672  11.479  13.193  12.136
73925SOL    HW223673  11.597  13.126  12.203
73926SOL     OW23674   9.230  11.784   7.082
73926SOL    HW123675   9.163  11.783   7.013
73926SOL    HW223676   9.219  11.869   7.125
73927SOL     OW23677  13.073   0.575   2.652
73927SOL    HW123678  13.018   0.633   2.704
73927SOL    HW223679  13.079   0.617   2.567
73928SOL     OW23680   8.880  11.690   5.411
73928SOL    HW123681   8.948  11.628   5.440
73928SOL    HW223682   8.819  11.693   5.484
73929SOL     OW23683   8.337   6.218  11.010
73929SOL    HW123684   8.388   6.142  10.982
73929SOL    HW223685   8.312   6.262  10.929
73930SOL     OW23686  12.558   1.869   6.579
73930SOL    HW123687  12.483   1.896   6.632
73930SOL    HW223688  12.549   1.773   6.572
73931SOL     OW23689   6.092  12.175   9.471
73931SOL    HW123690   6.152  12.172   9.546
73931SOL    HW223691   6.014  12.128   9.501
73932SOL     OW23692  13.159  14.197   7.058
73932SOL    HW123693  13.220  14.193   6.985
73932SOL    HW223694  13.193  14.266   7.115
73933SOL     OW23695   6.874  12.200   5.588
73933SOL    HW123696   6.911  12.156   5.665
73933SOL    HW223697   6.946  12.253   5.554
73934SOL     OW23698   3.031   2.408   3.272
73934SOL    HW123699   3.042   2.425   3.178
73934SOL    HW223700   2.990   2.487   3.306
73935SOL     OW23701  11.749  12.839  11.701
73935SOL    HW123702  11.671  12.815  11.650
73935SOL    HW223703  11.752  12.934  11.696
73936SOL     OW23704   7.066   4.202   0.423
73936SOL    HW123705   7.059   4.127   0.483
73936SOL    HW223706   6.980   4.244   0.428
73937SOL     OW23707   8.373  10.879   6.576
73937SOL    HW123708   8.354  10.793   6.539
73937SOL    HW223709   8.385  10.862   6.669
73938SOL     OW23710   0.606  13.607  13.205
73938SOL    HW123711   0.580  13.698  13.188
73938SOL    HW223712   0.621  13.604  13.300
73939SOL     OW23713   6.308   3.755  13.280
73939SOL    HW123714   6.261   3.696  13.221
73939SOL    HW223715   6.256   3.836  13.280
73940SOL     OW23716   8.700   1.663   4.047
73940SOL    HW123717   8.788   1.638   4.076
73940SOL    HW223718   8.673   1.591   3.990
73941SOL     OW23719   4.137   3.504   1.802
73941SOL    HW123720   4.190   3.534   1.728
73941SOL    HW223721   4.086   3.580   1.828
73942SOL     OW23722   8.334   2.526   9.516
73942SOL    HW123723   8.281   2.605   9.503
73942SOL    HW223724   8.273   2.453   9.498
73943SOL     OW23725   5.561   7.210  13.255
73943SOL    HW123726   5.647   7.180  13.227
73943SOL    HW223727   5.500   7.166  13.196
73944SOL     OW23728   2.287  11.740   0.213
73944SOL    HW123729   2.259  11.685   0.140
73944SOL    HW223730   2.317  11.821   0.171
73945SOL     OW23731  13.624  14.044  13.064
73945SOL    HW123732  13.633  14.066  12.972
73945SOL    HW223733  13.707  14.001  13.087
73946SOL     OW23734   9.451   6.635   5.342
73946SOL    HW123735   9.392   6.699   5.303
73946SOL    HW223736   9.458   6.565   5.277
73947SOL     OW23737  14.514   0.599   1.590
73947SOL    HW123738  14.591   0.656   1.586
73947SOL    HW223739  14.441   0.659   1.605
73948SOL     OW23740   3.858   4.234   1.283
73948SOL    HW123741   3.897   4.197   1.204
73948SOL    HW223742   3.767   4.205   1.282
73949SOL     OW23743   9.598   0.772   2.241
73949SOL    HW123744   9.600   0.810   2.329
73949SOL    HW223745   9.615   0.846   2.182
73950SOL     OW23746   4.153   7.012   0.384
73950SOL    HW123747   4.066   6.973   0.379
73950SOL    HW223748   4.155   7.075   0.312
73951SOL     OW23749   8.786   3.003   5.446
73951SOL    HW123750   8.846   2.930   5.428
73951SOL    HW223751   8.842   3.079   5.454
73952SOL     OW23752   4.646  10.221   7.555
73952SOL    HW123753   4.568  10.222   7.611
73952SOL    HW223754   4.616  10.260   7.472
73953SOL     OW23755  13.636  14.380  10.940
73953SOL    HW123756  13.552  14.407  10.902
73953SOL    HW223757  13.689  14.353  10.865
73954SOL     OW23758  11.346  11.782   2.336
73954SOL    HW123759  11.363  11.711   2.397
73954SOL    HW223760  11.311  11.739   2.258
73955SOL     OW23761  10.693   6.780  12.394
73955SOL    HW123762  10.770   6.835  12.403
73955SOL    HW223763  10.724   6.692  12.414
73956SOL     OW23764   1.972   3.629   8.759
73956SOL    HW123765   1.942   3.705   8.710
73956SOL    HW223766   2.002   3.664   8.843
73957SOL     OW23767   2.252   7.991   5.014
73957SOL    HW123768   2.213   8.006   5.100
73957SOL    HW223769   2.347   7.992   5.030
73958SOL     OW23770   5.459  10.428   5.072
73958SOL    HW123771   5.456  10.335   5.050
73958SOL    HW223772   5.369  10.451   5.095
73959SOL     OW23773  11.943   2.147   4.574
73959SOL    HW123774  11.900   2.117   4.654
73959SOL    HW223775  12.036   2.130   4.589
73960SOL     OW23776   2.889  13.361  11.640
73960SOL    HW123777   2.844  13.377  11.723
73960SOL    HW223778   2.819  13.332  11.581
73961SOL     OW23779   4.085   5.961  14.400
73961SOL    HW123780   4.015   6.022  14.422
73961SOL    HW223781   4.157   5.986  14.457
73962SOL     OW23782   7.533  14.061   6.066
73962SOL    HW123783   7.551  14.131   6.129
73962SOL    HW223784   7.448  14.025   6.093
73963SOL     OW23785   6.005   8.008   3.500
73963SOL    HW123786   5.977   7.963   3.421
73963SOL    HW223787   5.971   7.954   3.572
73964SOL     OW23788   1.449  11.324   5.083
73964SOL    HW123789   1.355  11.309   5.074
73964SOL    HW223790   1.459  11.366   5.169
73965SOL     OW23791   6.809   8.437  11.469
73965SOL    HW123792   6.875   8.430  11.400
73965SOL    HW223793   6.826   8.362  11.526
73966SOL     OW23794   1.912  11.571  13.292
73966SOL    HW123795   1.840  11.623  13.329
73966SOL    HW223796   1.868  11.497  13.249
73967SOL     OW23797   0.991   1.369  10.028
73967SOL    HW123798   1.082   1.342  10.019
73967SOL    HW223799   0.948   1.338   9.948
73968SOL     OW23800   0.076  10.247   0.923
73968SOL    HW123801   0.062  10.338   0.950
73968SOL    HW223802   0.171  10.235   0.929
73969SOL     OW23803   2.553  13.292  13.639
73969SOL    HW123804   2.488  13.342  13.688
73969SOL    HW223805   2.637  13.331  13.664
73970SOL     OW23806   6.941   8.347  11.908
73970SOL    HW123807   6.958   8.308  11.822
73970SOL    HW223808   7.023   8.336  11.956
73971SOL     OW23809   6.423  12.414   8.170
73971SOL    HW123810   6.482  12.438   8.242
73971SOL    HW223811   6.445  12.323   8.151
73972SOL     OW23812  13.179  13.593   1.945
73972SOL    HW123813  13.170  13.660   2.013
73972SOL    HW223814  13.268  13.606   1.910
73973SOL     OW23815   2.341   9.856   0.548
73973SOL    HW123816   2.258   9.852   0.595
73973SOL    HW223817   2.340   9.942   0.505
73974SOL     OW23818  13.238  14.508   3.273
73974SOL    HW123819  13.157  14.477   3.232
73974SOL    HW223820  13.278  14.429   3.309
73975SOL     OW23821  12.182  13.827  10.660
73975SOL    HW123822  12.235  13.782  10.727
73975SOL    HW223823  12.159  13.911  10.699
73976SOL     OW23824   7.150   5.080  10.078
73976SOL    HW123825   7.191   5.035  10.153
73976SOL    HW223826   7.117   5.008  10.024
73977SOL     OW23827   3.399   7.894   5.095
73977SOL    HW123828   3.487   7.914   5.127
73977SOL    HW223829   3.395   7.935   5.008
73978SOL     OW23830   0.201   3.247   0.201
73978SOL    HW123831   0.164   3.160   0.187
73978SOL    HW223832   0.293   3.238   0.174
73979SOL     OW23833   5.931   8.426  12.725
73979SOL    HW123834   5.893   8.417  12.813
73979SOL    HW223835   5.978   8.509  12.728
73980SOL     OW23836  12.814   0.490   1.490
73980SOL    HW123837  12.827   0.427   1.420
73980SOL    HW223838  12.860   0.569   1.460
73981SOL     OW23839   4.016  12.358   1.655
73981SOL    HW123840   3.975  12.289   1.707
73981SOL    HW223841   3.976  12.439   1.688
73982SOL     OW23842   7.029  11.402   2.046
73982SOL    HW123843   6.998  11.408   1.955
73982SOL    HW223844   6.955  11.431   2.098
73983SOL     OW23845  10.221  11.367  12.921
73983SOL    HW123846  10.129  11.391  12.910
73983SOL    HW223847  10.257  11.372  12.833
73984SOL     OW23848   1.450  10.529   5.315
73984SOL    HW123849   1.440  10.445   5.359
73984SOL    HW223850   1.473  10.506   5.225
73985SOL     OW23851   0.097   9.451   7.851
73985SOL    HW123852   0.014   9.500   7.848
73985SOL    HW223853   0.142   9.475   7.770
73986SOL     OW23854   6.914   8.724   2.479
73986SOL    HW123855   6.823   8.715   2.508
73986SOL    HW223856   6.908   8.764   2.392
73987SOL     OW23857  10.185   2.390  12.948
73987SOL    HW123858  10.122   2.395  12.876
73987SOL    HW223859  10.132   2.364  13.024
73988SOL     OW23860  11.522   1.604   8.608
73988SOL    HW123861  11.426   1.612   8.613
73988SOL    HW223862  11.540   1.514   8.634
73989SOL     OW23863   8.754   0.232   1.246
73989SOL    HW123864   8.677   0.258   1.297
73989SOL    HW223865   8.828   0.263   1.298
73990SOL     OW23866  12.876   3.812   0.428
73990SOL    HW123867  12.839   3.807   0.340
73990SOL    HW223868  12.832   3.743   0.477
73991SOL     OW23869   2.755   9.358   2.316
73991SOL    HW123870   2.805   9.327   2.240
73991SOL    HW223871   2.699   9.427   2.281
73992SOL     OW23872   7.798   0.580   2.781
73992SOL    HW123873   7.728   0.595   2.717
73992SOL    HW223874   7.879   0.593   2.732
73993SOL     OW23875   6.944   0.230   8.494
73993SOL    HW123876   6.947   0.190   8.407
73993SOL    HW223877   6.871   0.186   8.539
73994SOL     OW23878   3.575  12.452   9.231
73994SOL    HW123879   3.486  12.485   9.237
73994SOL    HW223880   3.585  12.424   9.140
73995SOL     OW23881   4.367  14.422   0.867
73995SOL    HW123882   4.460  14.441   0.878
73995SOL    HW223883   4.335  14.405   0.956
73996SOL     OW23884   4.923  14.031   9.952
73996SOL    HW123885   5.015  14.055   9.944
73996SOL    HW223886   4.924  13.948  10.000
73997SOL     OW23887  14.609  13.509   2.358
73997SOL    HW123888  14.686  13.532   2.305
73997SOL    HW223889  14.564  13.593   2.372
73998SOL     OW23890   6.413   6.416   6.592
73998SOL    HW123891   6.487   6.369   6.631
73998SOL    HW223892   6.451   6.463   6.518
73999SOL     OW23893   0.395   4.176   0.191
73999SOL    HW123894   0.324   4.161   0.129
73999SOL    HW223895   0.400   4.271   0.199
74000SOL     OW23896   6.048  10.348   8.566
74000SOL    HW123897   6.122  10.301   8.606
74000SOL    HW223898   6.035  10.306   8.481
74001SOL     OW23899   5.107   7.473   1.901
74001SOL    HW123900   5.036   7.437   1.847
74001SOL    HW223901   5.106   7.419   1.980
74002SOL     OW23902   1.366  12.961   3.004
74002SOL    HW123903   1.444  12.954   3.059
74002SOL    HW223904   1.324  12.875   3.009
74003SOL     OW23905   1.318  13.254   0.963
74003SOL    HW123906   1.395  13.303   0.935
74003SOL    HW223907   1.289  13.300   1.043
74004SOL     OW23908   3.965   8.392   8.780
74004SOL    HW123909   4.021   8.373   8.704
74004SOL    HW223910   3.958   8.308   8.826
74005SOL     OW23911  10.091  12.091  14.608
74005SOL    HW123912  10.020  12.078  14.670
74005SOL    HW223913  10.169  12.058  14.652
74006SOL     OW23914  14.550   5.343   1.539
74006SOL    HW123915  14.476   5.396   1.509
74006SOL    HW223916  14.553   5.270   1.478
74007SOL     OW23917   2.304   9.143   0.423
74007SOL    HW123918   2.332   9.051   0.426
74007SOL    HW223919   2.267   9.160   0.509
74008SOL     OW23920   9.057   9.134   2.536
74008SOL    HW123921   9.018   9.050   2.561
74008SOL    HW223922   8.984   9.187   2.504
74009SOL     OW23923   4.091  11.139   2.434
74009SOL    HW123924   4.039  11.104   2.507
74009SOL    HW223925   4.030  11.195   2.386
74010SOL     OW23926   4.335   2.603   4.893
74010SOL    HW123927   4.404   2.652   4.847
74010SOL    HW223928   4.336   2.638   4.982
74011SOL     OW23929   6.829   5.617   9.445
74011SOL    HW123930   6.779   5.669   9.508
74011SOL    HW223931   6.889   5.679   9.405
74012SOL     OW23932   2.329   8.842  10.923
74012SOL    HW123933   2.293   8.838  10.835
74012SOL    HW223934   2.367   8.755  10.937
74013SOL     OW23935   9.818   5.335  11.347
74013SOL    HW123936   9.769   5.275  11.291
74013SOL    HW223937   9.903   5.293  11.359
74014SOL     OW23938  10.374   9.581  13.559
74014SOL    HW123939  10.364   9.671  13.591
74014SOL    HW223940  10.448   9.585  13.499
74015SOL     OW23941   2.006  10.883   6.759
74015SOL    HW123942   2.023  10.931   6.840
74015SOL    HW223943   1.988  10.950   6.694
74016SOL     OW23944   9.078  14.056   8.925
74016SOL    HW123945   9.128  14.133   8.951
74016SOL    HW223946   9.052  14.015   9.008
74017SOL     OW23947   8.222  12.293   0.566
74017SOL    HW123948   8.226  12.200   0.546
74017SOL    HW223949   8.281  12.304   0.640
74018SOL     OW23950   8.432   8.569   8.192
74018SOL    HW123951   8.417   8.654   8.149
74018SOL    HW223952   8.502   8.529   8.140
74019SOL     OW23953  11.449   4.512  11.612
74019SOL    HW123954  11.461   4.436  11.555
74019SOL    HW223955  11.398   4.573  11.559
74020SOL     OW23956  12.130   9.782   8.264
74020SOL    HW123957  12.097   9.694   8.280
74020SOL    HW223958  12.071   9.819   8.198
74021SOL     OW23959   1.031  12.722   7.939
74021SOL    HW123960   1.110  12.687   7.899
74021SOL    HW223961   0.988  12.646   7.978
74022SOL     OW23962   0.620   9.113  13.210
74022SOL    HW123963   0.613   9.191  13.155
74022SOL    HW223964   0.702   9.072  13.184
74023SOL     OW23965  10.830   5.242   5.370
74023SOL    HW123966  10.789   5.326   5.349
74023SOL    HW223967  10.890   5.226   5.296
74024SOL     OW23968   7.590   4.483   5.519
74024SOL    HW123969   7.638   4.447   5.445
74024SOL    HW223970   7.498   4.461   5.501
74025SOL     OW23971  10.873   9.727   8.401
74025SOL    HW123972  10.785   9.726   8.438
74025SOL    HW223973  10.928   9.689   8.470
74026SOL     OW23974   5.098  11.649   2.905
74026SOL    HW123975   5.145  11.589   2.963
74026SOL    HW223976   5.053  11.709   2.963
74027SOL     OW23977   9.396   4.779  11.887
74027SOL    HW123978   9.430   4.757  11.974
74027SOL    HW223979   9.314   4.824  11.904
74028SOL     OW23980   0.509   4.382   6.853
74028SOL    HW123981   0.464   4.357   6.933
74028SOL    HW223982   0.490   4.312   6.791
74029SOL     OW23983   1.100   8.868   6.784
74029SOL    HW123984   1.163   8.852   6.714
74029SOL    HW223985   1.110   8.794   6.843
74030SOL     OW23986   1.532   0.213   8.598
74030SOL    HW123987   1.618   0.181   8.627
74030SOL    HW223988   1.498   0.143   8.543
74031SOL     OW23989  13.551   3.917   6.773
74031SOL    HW123990  13.545   4.013   6.771
74031SOL    HW223991  13.504   3.888   6.694
74032SOL     OW23992   2.165   1.221   2.430
74032SOL    HW123993   2.175   1.154   2.362
74032SOL    HW223994   2.220   1.293   2.401
74033SOL     OW23995  10.196  12.276   4.201
74033SOL    HW123996  10.128  12.336   4.171
74033SOL    HW223997  10.153  12.220   4.265
74034SOL     OW23998   8.693   8.461  12.342
74034SOL    HW123999   8.757   8.418  12.285
74034SOL    HW224000   8.709   8.555  12.330
74035SOL     OW24001  10.056   9.884   8.495
74035SOL    HW124002  10.018   9.828   8.562
74035SOL    HW224003  10.013   9.969   8.507
74036SOL     OW24004  11.337   1.243   0.030
74036SOL    HW124005  11.363   1.246  14.806
74036SOL    HW224006  11.304   1.331   0.049
74037SOL     OW24007   5.899   0.102   7.077
74037SOL    HW124008   5.826   0.119   7.137
74037SOL    HW224009   5.973   0.081   7.135
74038SOL     OW24010   7.989  12.951   9.174
74038SOL    HW124011   7.959  13.007   9.103
74038SOL    HW224012   7.961  12.863   9.148
74039SOL     OW24013   0.913   8.989   8.554
74039SOL    HW124014   0.849   8.919   8.559
74039SOL    HW224015   0.956   8.977   8.469
74040SOL     OW24016   9.471   1.510   5.931
74040SOL    HW124017   9.434   1.591   5.895
74040SOL    HW224018   9.549   1.494   5.877
74041SOL     OW24019   3.008  13.263  10.963
74041SOL    HW124020   2.939  13.225  10.908
74041SOL    HW224021   3.009  13.355  10.938
74042SOL     OW24022   9.232   3.970   3.155
74042SOL    HW124023   9.263   4.035   3.218
74042SOL    HW224024   9.313   3.937   3.114
74043SOL     OW24025   6.755   1.477   0.356
74043SOL    HW124026   6.691   1.424   0.403
74043SOL    HW224027   6.821   1.500   0.421
74044SOL     OW24028  13.480  10.303   3.852
74044SOL    HW124029  13.553  10.358   3.883
74044SOL    HW224030  13.482  10.227   3.909
74045SOL     OW24031   9.385   2.378   4.799
74045SOL    HW124032   9.459   2.350   4.853
74045SOL    HW224033   9.419   2.377   4.709
74046SOL     OW24034  11.537   5.314   9.981
74046SOL    HW124035  11.622   5.288   9.945
74046SOL    HW224036  11.548   5.307  10.076
74047SOL     OW24037  14.704   7.129   8.432
74047SOL    HW124038  14.646   7.053   8.435
74047SOL    HW224039  14.776   7.101   8.376
74048SOL     OW24040   6.419  11.566  10.873
74048SOL    HW124041   6.390  11.638  10.817
74048SOL    HW224042   6.483  11.519  10.819
74049SOL     OW24043   2.359   5.034  13.420
74049SOL    HW124044   2.336   4.952  13.464
74049SOL    HW224045   2.372   5.097  13.490
74050SOL     OW24046   6.738   0.390   5.982
74050SOL    HW124047   6.826   0.369   5.949
74050SOL    HW224048   6.684   0.396   5.903
74051SOL     OW24049  11.115   1.939   2.798
74051SOL    HW124050  11.101   1.845   2.804
74051SOL    HW224051  11.042   1.977   2.848
74052SOL     OW24052  14.659  13.987  12.644
74052SOL    HW124053  14.600  14.030  12.582
74052SOL    HW224054  14.667  13.897  12.611
74053SOL     OW24055   8.729  10.498   5.358
74053SOL    HW124056   8.670  10.436   5.401
74053SOL    HW224057   8.671  10.567   5.325
74054SOL     OW24058   4.453  12.259   3.129
74054SOL    HW124059   4.447  12.260   3.224
74054SOL    HW224060   4.430  12.169   3.105
74055SOL     OW24061  10.563   4.850  12.925
74055SOL    HW124062  10.587   4.777  12.868
74055SOL    HW224063  10.643   4.868  12.975
74056SOL     OW24064  10.848  12.856   4.971
74056SOL    HW124065  10.756  12.879   4.984
74056SOL    HW224066  10.895  12.909   5.035
74057SOL     OW24067   7.225   6.919   5.059
74057SOL    HW124068   7.225   7.003   5.105
74057SOL    HW224069   7.162   6.865   5.107
74058SOL     OW24070   7.184   9.532   2.426
74058SOL    HW124071   7.141   9.614   2.403
74058SOL    HW224072   7.144   9.505   2.508
74059SOL     OW24073  10.629  14.105  12.674
74059SOL    HW124074  10.689  14.142  12.609
74059SOL    HW224075  10.683  14.044  12.724
74060SOL     OW24076   1.666   5.553   8.262
74060SOL    HW124077   1.650   5.637   8.304
74060SOL    HW224078   1.659   5.489   8.333
74061SOL     OW24079   5.346   6.888   1.844
74061SOL    HW124080   5.333   6.967   1.897
74061SOL    HW224081   5.394   6.919   1.767
74062SOL     OW24082   6.716   9.693  13.456
74062SOL    HW124083   6.672   9.760  13.404
74062SOL    HW224084   6.645   9.644  13.498
74063SOL     OW24085  12.324   3.987  12.226
74063SOL    HW124086  12.346   3.988  12.319
74063SOL    HW224087  12.406   3.961  12.183
74064SOL     OW24088   4.420   2.023  14.554
74064SOL    HW124089   4.356   1.975  14.606
74064SOL    HW224090   4.368   2.089  14.508
74065SOL     OW24091   9.989   6.944   8.220
74065SOL    HW124092   9.894   6.939   8.211
74065SOL    HW224093  10.008   7.037   8.226
74066SOL     OW24094   4.193   6.506  11.019
74066SOL    HW124095   4.222   6.499  11.110
74066SOL    HW224096   4.272   6.531  10.971
74067SOL     OW24097   1.696  14.683  10.635
74067SOL    HW124098   1.640  14.728  10.699
74067SOL    HW224099   1.696  14.741  10.558
74068SOL     OW24100   9.924   4.379   6.820
74068SOL    HW124101   9.969   4.463   6.809
74068SOL    HW224102   9.852   4.398   6.880
74069SOL     OW24103  11.857   3.686   8.351
74069SOL    HW124104  11.873   3.744   8.425
74069SOL    HW224105  11.887   3.600   8.381
74070SOL     OW24106   7.381  11.690  12.331
74070SOL    HW124107   7.416  11.718  12.415
74070SOL    HW224108   7.331  11.766  12.300
74071SOL     OW24109   5.063   9.896   9.956
74071SOL    HW124110   5.114   9.832   9.907
74071SOL    HW224111   5.048   9.968   9.895
74072SOL     OW24112   0.586   0.491   7.107
74072SOL    HW124113   0.539   0.420   7.063
74072SOL    HW224114   0.528   0.518   7.178
74073SOL     OW24115   9.599  13.157  13.043
74073SOL    HW124116   9.504  13.161  13.031
74073SOL    HW224117   9.632  13.115  12.963
74074SOL     OW24118   2.809   3.499   7.654
74074SOL    HW124119   2.873   3.495   7.583
74074SOL    HW224120   2.838   3.573   7.707
74075SOL     OW24121  14.084   7.084  11.877
74075SOL    HW124122  14.019   7.080  11.807
74075SOL    HW224123  14.162   7.043  11.839
74076SOL     OW24124   1.576   0.200  10.403
74076SOL    HW124125   1.556   0.291  10.382
74076SOL    HW224126   1.551   0.151  10.325
74077SOL     OW24127  14.003   7.512  10.099
74077SOL    HW124128  14.008   7.449  10.170
74077SOL    HW224129  13.970   7.462  10.024
74078SOL     OW24130  11.869  12.736  14.688
74078SOL    HW124131  11.802  12.746  14.621
74078SOL    HW224132  11.835  12.781  14.765
74079SOL     OW24133   0.235  13.550   7.118
74079SOL    HW124134   0.206  13.587   7.201
74079SOL    HW224135   0.154  13.527   7.072
74080SOL     OW24136  11.790  10.892   6.570
74080SOL    HW124137  11.757  10.974   6.607
74080SOL    HW224138  11.882  10.911   6.550
74081SOL     OW24139   8.155   0.493  14.639
74081SOL    HW124140   8.250   0.502  14.649
74081SOL    HW224141   8.144   0.469  14.547
74082SOL     OW24142   6.304   7.963   3.949
74082SOL    HW124143   6.233   7.900   3.961
74082SOL    HW224144   6.264   8.048   3.968
74083SOL     OW24145   9.172   0.043   1.834
74083SOL    HW124146   9.104   0.050   1.901
74083SOL    HW224147   9.150  14.833   1.784
74084SOL     OW24148   5.879   3.877  11.311
74084SOL    HW124149   5.921   3.962  11.324
74084SOL    HW224150   5.843   3.856  11.397
74085SOL     OW24151   2.847  12.702  10.120
74085SOL    HW124152   2.934  12.733  10.146
74085SOL    HW224153   2.841  12.724  10.027
74086SOL     OW24154  12.368  10.009  13.554
74086SOL    HW124155  12.408  10.000  13.640
74086SOL    HW224156  12.283   9.966  13.562
74087SOL     OW24157   3.346   7.856  12.833
74087SOL    HW124158   3.337   7.767  12.865
74087SOL    HW224159   3.419   7.853  12.771
74088SOL     OW24160   4.019  14.824   3.145
74088SOL    HW124161   4.011  14.775   3.063
74088SOL    HW224162   4.023   0.048   3.118
74089SOL     OW24163  10.619  14.786   1.055
74089SOL    HW124164  10.566  14.725   1.003
74089SOL    HW224165  10.653  14.733   1.127
74090SOL     OW24166   0.416   8.860   9.217
74090SOL    HW124167   0.370   8.777   9.232
74090SOL    HW224168   0.506   8.842   9.245
74091SOL     OW24169   6.587   1.137   5.709
74091SOL    HW124170   6.658   1.201   5.719
74091SOL    HW224171   6.507   1.188   5.726
74092SOL     OW24172  11.870  14.206   6.378
74092SOL    HW124173  11.806  14.154   6.329
74092SOL    HW224174  11.868  14.292   6.336
74093SOL     OW24175   4.555   0.556   5.533
74093SOL    HW124176   4.621   0.580   5.599
74093SOL    HW224177   4.573   0.464   5.514
74094SOL     OW24178   4.940  11.432   2.806
74094SOL    HW124179   4.864  11.447   2.864
74094SOL    HW224180   5.004  11.497   2.834
74095SOL     OW24181  11.006  11.970   6.893
74095SOL    HW124182  11.000  11.907   6.965
74095SOL    HW224183  11.080  12.027   6.917
74096SOL     OW24184   8.503   7.855  11.393
74096SOL    HW124185   8.565   7.783  11.389
74096SOL    HW224186   8.428   7.820  11.441
74097SOL     OW24187   6.564   7.682   3.113
74097SOL    HW124188   6.608   7.686   3.028
74097SOL    HW224189   6.544   7.774   3.134
74098SOL     OW24190   4.636  11.628   2.270
74098SOL    HW124191   4.707  11.564   2.279
74098SOL    HW224192   4.667  11.705   2.318
74099SOL     OW24193   0.082  11.527  12.963
74099SOL    HW124194   0.065  11.447  12.914
74099SOL    HW224195   0.009  11.534  13.025
74100SOL     OW24196   1.591   9.904  12.159
74100SOL    HW124197   1.548   9.909  12.244
74100SOL    HW224198   1.521   9.884  12.097
74101SOL     OW24199   7.392   3.752   7.148
74101SOL    HW124200   7.459   3.702   7.194
74101SOL    HW224201   7.400   3.724   7.057
74102SOL     OW24202   5.546   6.679   4.758
74102SOL    HW124203   5.491   6.702   4.833
74102SOL    HW224204   5.635   6.698   4.787
74103SOL     OW24205   6.433   9.221   9.529
74103SOL    HW124206   6.375   9.292   9.502
74103SOL    HW224207   6.466   9.185   9.446
74104SOL     OW24208  13.396   8.052   5.880
74104SOL    HW124209  13.306   8.050   5.846
74104SOL    HW224210  13.429   7.964   5.863
74105SOL     OW24211  13.700   5.079   3.606
74105SOL    HW124212  13.644   5.103   3.681
74105SOL    HW224213  13.768   5.024   3.644
74106SOL     OW24214   1.092  11.679   3.826
74106SOL    HW124215   1.135  11.611   3.774
74106SOL    HW224216   1.013  11.638   3.859
74107SOL     OW24217   7.549  11.399   8.182
74107SOL    HW124218   7.473  11.359   8.224
74107SOL    HW224219   7.590  11.328   8.133
74108SOL     OW24220  13.668   9.094   0.715
74108SOL    HW124221  13.683   9.107   0.809
74108SOL    HW224222  13.756   9.091   0.677
74109SOL     OW24223   5.648  12.370  11.321
74109SOL    HW124224   5.670  12.366  11.228
74109SOL    HW224225   5.557  12.401  11.323
74110SOL     OW24226   2.699   4.776   4.633
74110SOL    HW124227   2.762   4.848   4.641
74110SOL    HW224228   2.614   4.819   4.628
74111SOL     OW24229   7.671   1.005  13.775
74111SOL    HW124230   7.644   0.919  13.744
74111SOL    HW224231   7.705   0.989  13.863
74112SOL     OW24232   8.433   9.854   9.859
74112SOL    HW124233   8.347   9.840   9.899
74112SOL    HW224234   8.491   9.871   9.933
74113SOL     OW24235   3.385   8.755  12.318
74113SOL    HW124236   3.381   8.778  12.225
74113SOL    HW224237   3.300   8.780  12.353
74114SOL     OW24238   3.635   1.862  14.324
74114SOL    HW124239   3.683   1.919  14.263
74114SOL    HW224240   3.559   1.914  14.350
74115SOL     OW24241   6.617   8.745   8.381
74115SOL    HW124242   6.575   8.818   8.335
74115SOL    HW224243   6.550   8.712   8.441
74116SOL     OW24244   9.414   4.631   3.742
74116SOL    HW124245   9.395   4.538   3.754
74116SOL    HW224246   9.407   4.644   3.647
74117SOL     OW24247   4.995  12.570   7.430
74117SOL    HW124248   5.021  12.659   7.455
74117SOL    HW224249   5.074  12.532   7.392
74118SOL     OW24250   0.368  10.411  10.460
74118SOL    HW124251   0.336  10.350  10.525
74118SOL    HW224252   0.460  10.386  10.447
74119SOL     OW24253  13.951  12.235   8.337
74119SOL    HW124254  13.945  12.197   8.425
74119SOL    HW224255  14.045  12.230   8.316
74120SOL     OW24256  10.088  11.855   3.350
74120SOL    HW124257  10.136  11.883   3.427
74120SOL    HW224258  10.078  11.760   3.361
74121SOL     OW24259   3.693  10.772  11.239
74121SOL    HW124260   3.753  10.708  11.200
74121SOL    HW224261   3.708  10.852  11.189
74122SOL     OW24262   9.615   1.367   2.816
74122SOL    HW124263   9.585   1.439   2.871
74122SOL    HW224264   9.538   1.340   2.767
74123SOL     OW24265   5.524  13.597  10.388
74123SOL    HW124266   5.610  13.559  10.402
74123SOL    HW224267   5.534  13.649  10.308
74124SOL     OW24268  12.170  14.525   5.291
74124SOL    HW124269  12.180  14.546   5.199
74124SOL    HW224270  12.109  14.451   5.293
74125SOL     OW24271  12.413   4.156   6.025
74125SOL    HW124272  12.441   4.241   6.058
74125SOL    HW224273  12.458   4.146   5.941
74126SOL     OW24274   1.422   1.162   1.368
74126SOL    HW124275   1.417   1.256   1.351
74126SOL    HW224276   1.393   1.122   1.286
74127SOL     OW24277   2.220   4.947   7.540
74127SOL    HW124278   2.142   4.901   7.512
74127SOL    HW224279   2.213   5.034   7.500
74128SOL     OW24280   6.095   2.883   2.631
74128SOL    HW124281   6.011   2.930   2.630
74128SOL    HW224282   6.113   2.865   2.539
74129SOL     OW24283   1.868  13.802   5.306
74129SOL    HW124284   1.860  13.896   5.326
74129SOL    HW224285   1.874  13.798   5.211
74130SOL     OW24286   3.130  13.778   8.524
74130SOL    HW124287   3.049  13.727   8.516
74130SOL    HW224288   3.142  13.818   8.438
74131SOL     OW24289   1.816   5.810  11.466
74131SOL    HW124290   1.749   5.877  11.458
74131SOL    HW224291   1.838   5.809  11.559
74132SOL     OW24292   7.371   7.819  13.162
74132SOL    HW124293   7.466   7.809  13.165
74132SOL    HW224294   7.355   7.906  13.199
74133SOL     OW24295  14.192   0.014   5.817
74133SOL    HW124296  14.261   0.056   5.766
74133SOL    HW224297  14.145  14.828   5.754
74134SOL     OW24298   4.960   4.678  10.140
74134SOL    HW124299   4.921   4.591  10.149
74134SOL    HW224300   4.925   4.713  10.059
74135SOL     OW24301   9.047   4.286  14.230
74135SOL    HW124302   9.109   4.351  14.263
74135SOL    HW224303   9.069   4.206  14.278
74136SOL     OW24304  11.012   7.702   6.629
74136SOL    HW124305  11.043   7.672   6.714
74136SOL    HW224306  10.992   7.622   6.581
74137SOL     OW24307  10.241   2.629  14.530
74137SOL    HW124308  10.324   2.674  14.543
74137SOL    HW224309  10.262   2.554  14.474
74138SOL     OW24310  12.608   2.974  14.567
74138SOL    HW124311  12.685   2.917  14.577
74138SOL    HW224312  12.597   2.983  14.473
74139SOL     OW24313   9.577   4.133   6.404
74139SOL    HW124314   9.609   4.205   6.458
74139SOL    HW224315   9.495   4.164   6.367
74140SOL     OW24316   6.153   2.658   7.484
74140SOL    HW124317   6.133   2.602   7.559
74140SOL    HW224318   6.196   2.600   7.421
74141SOL     OW24319  14.864   1.449   9.266
74141SOL    HW124320  14.774   1.445   9.234
74141SOL    HW224321   0.040   1.375   9.224
74142SOL     OW24322  12.186   8.485   0.948
74142SOL    HW124323  12.147   8.561   0.993
74142SOL    HW224324  12.246   8.523   0.884
74143SOL     OW24325   1.275   8.000   0.058
74143SOL    HW124326   1.228   8.014  14.844
74143SOL    HW224327   1.314   8.086   0.078
74144SOL     OW24328  13.435  12.944   4.458
74144SOL    HW124329  13.365  12.987   4.507
74144SOL    HW224330  13.416  12.850   4.467
74145SOL     OW24331   9.212   8.199   8.210
74145SOL    HW124332   9.284   8.252   8.178
74145SOL    HW224333   9.135   8.233   8.165
74146SOL     OW24334  14.348   9.323   2.152
74146SOL    HW124335  14.265   9.279   2.131
74146SOL    HW224336  14.390   9.265   2.215
74147SOL     OW24337   3.688  12.525   4.257
74147SOL    HW124338   3.649  12.487   4.178
74147SOL    HW224339   3.685  12.620   4.241
74148SOL     OW24340   3.436   3.589   3.680
74148SOL    HW124341   3.434   3.638   3.598
74148SOL    HW224342   3.380   3.640   3.739
74149SOL     OW24343   0.557  12.806   6.201
74149SOL    HW124344   0.578  12.838   6.113
74149SOL    HW224345   0.641  12.773   6.234
74150SOL     OW24346   2.870   0.741   9.422
74150SOL    HW124347   2.868   0.693   9.505
74150SOL    HW224348   2.959   0.777   9.418
74151SOL     OW24349   7.380   6.534  11.371
74151SOL    HW124350   7.325   6.606  11.341
74151SOL    HW224351   7.321   6.477  11.420
74152SOL     OW24352   1.699   0.998   5.393
74152SOL    HW124353   1.775   1.056   5.398
74152SOL    HW224354   1.732   0.913   5.420
74153SOL     OW24355   4.340   8.309   8.240
74153SOL    HW124356   4.255   8.265   8.239
74153SOL    HW224357   4.349   8.347   8.153
74154SOL     OW24358   5.413   6.624  14.695
74154SOL    HW124359   5.363   6.557  14.742
74154SOL    HW224360   5.359   6.645  14.620
74155SOL     OW24361   5.519   3.713   1.073
74155SOL    HW124362   5.497   3.804   1.053
74155SOL    HW224363   5.504   3.666   0.990
74156SOL     OW24364  11.152   3.351   6.419
74156SOL    HW124365  11.116   3.263   6.407
74156SOL    HW224366  11.079   3.409   6.399
74157SOL     OW24367  14.492   1.039  14.440
74157SOL    HW124368  14.525   1.040  14.350
74157SOL    HW224369  14.409   1.087  14.437
74158SOL     OW24370   5.148  14.306   6.504
74158SOL    HW124371   5.204  14.381   6.485
74158SOL    HW224372   5.092  14.297   6.427
74159SOL     OW24373   0.528   8.053  13.589
74159SOL    HW124374   0.479   7.977  13.556
74159SOL    HW224375   0.482   8.128  13.553
74160SOL     OW24376   5.319  14.024   3.243
74160SOL    HW124377   5.326  14.118   3.230
74160SOL    HW224378   5.227  14.009   3.266
74161SOL     OW24379   7.129   2.317   8.411
74161SOL    HW124380   7.223   2.306   8.425
74161SOL    HW224381   7.090   2.307   8.497
74162SOL     OW24382  11.008  14.206   0.080
74162SOL    HW124383  11.050  14.124   0.055
74162SOL    HW224384  10.983  14.246  14.864
74163SOL     OW24385   1.756   8.764  11.302
74163SOL    HW124386   1.724   8.680  11.270
74163SOL    HW224387   1.851   8.761  11.287
74164SOL     OW24388   4.196   8.329  11.080
74164SOL    HW124389   4.278   8.339  11.032
74164SOL    HW224390   4.222   8.322  11.172
74165SOL     OW24391   4.750   4.012   9.199
74165SOL    HW124392   4.786   4.019   9.110
74165SOL    HW224393   4.656   4.027   9.188
74166SOL     OW24394   5.355  14.518   6.389
74166SOL    HW124395   5.289  14.538   6.323
74166SOL    HW224396   5.382  14.603   6.423
74167SOL     OW24397  10.066   7.737   6.276
74167SOL    HW124398  10.056   7.727   6.370
74167SOL    HW224399  10.110   7.657   6.248
74168SOL     OW24400   3.372   6.208   3.549
74168SOL    HW124401   3.316   6.143   3.590
74168SOL    HW224402   3.452   6.208   3.601
74169SOL     OW24403   0.910   0.774   3.133
74169SOL    HW124404   0.964   0.744   3.206
74169SOL    HW224405   0.962   0.842   3.091
74170SOL     OW24406   9.720   2.858   5.118
74170SOL    HW124407   9.707   2.833   5.026
74170SOL    HW224408   9.721   2.954   5.117
74171SOL     OW24409   0.540  14.508   1.923
74171SOL    HW124410   0.491  14.433   1.954
74171SOL    HW224411   0.631  14.490   1.948
74172SOL     OW24412   9.276   5.887  14.273
74172SOL    HW124413   9.310   5.872  14.361
74172SOL    HW224414   9.211   5.818  14.260
74173SOL     OW24415   9.687   0.825   8.591
74173SOL    HW124416   9.619   0.791   8.534
74173SOL    HW224417   9.722   0.901   8.545
74174SOL     OW24418  10.175  11.539   7.609
74174SOL    HW124419  10.193  11.445   7.597
74174SOL    HW224420  10.228  11.563   7.685
74175SOL     OW24421   9.038   3.738   4.626
74175SOL    HW124422   8.985   3.659   4.632
74175SOL    HW224423   8.982   3.801   4.581
74176SOL     OW24424   4.074  14.232  11.667
74176SOL    HW124425   4.097  14.155  11.616
74176SOL    HW224426   4.150  14.246  11.725
74177SOL     OW24427  13.628   2.779  11.951
74177SOL    HW124428  13.720   2.769  11.976
74177SOL    HW224429  13.593   2.843  12.014
74178SOL     OW24430   5.215   5.178   0.231
74178SOL    HW124431   5.268   5.188   0.310
74178SOL    HW224432   5.126   5.166   0.264
74179SOL     OW24433   7.799   5.979   9.999
74179SOL    HW124434   7.753   5.989  10.082
74179SOL    HW224435   7.734   6.006   9.933
74180SOL     OW24436  10.734   3.751   9.698
74180SOL    HW124437  10.645   3.729   9.726
74180SOL    HW224438  10.752   3.836   9.737
74181SOL     OW24439   3.105   6.207   6.547
74181SOL    HW124440   3.160   6.233   6.472
74181SOL    HW224441   3.168   6.174   6.611
74182SOL     OW24442   9.129  10.337   6.284
74182SOL    HW124443   9.224  10.327   6.293
74182SOL    HW224444   9.116  10.367   6.194
74183SOL     OW24445   7.086  11.070   5.019
74183SOL    HW124446   7.016  11.123   5.058
74183SOL    HW224447   7.040  11.005   4.965
74184SOL     OW24448  14.639   3.241   2.816
74184SOL    HW124449  14.696   3.164   2.808
74184SOL    HW224450  14.576   3.231   2.745
74185SOL     OW24451   5.128   9.055   0.685
74185SOL    HW124452   5.123   9.090   0.774
74185SOL    HW224453   5.091   8.967   0.692
74186SOL     OW24454   8.066   2.823   6.146
74186SOL    HW124455   8.021   2.741   6.167
74186SOL    HW224456   8.033   2.846   6.059
74187SOL     OW24457  11.744  14.148   6.911
74187SOL    HW124458  11.800  14.128   6.836
74187SOL    HW224459  11.804  14.149   6.986
74188SOL     OW24460   4.213  13.603   8.709
74188SOL    HW124461   4.302  13.638   8.718
74188SOL    HW224462   4.157  13.681   8.715
74189SOL     OW24463  14.102   0.513   6.047
74189SOL    HW124464  14.154   0.504   6.127
74189SOL    HW224465  14.013   0.489   6.073
74190SOL     OW24466  14.479   3.455   5.988
74190SOL    HW124467  14.418   3.443   5.916
74190SOL    HW224468  14.557   3.493   5.948
74191SOL     OW24469   5.433   5.044   7.720
74191SOL    HW124470   5.517   5.088   7.708
74191SOL    HW224471   5.402   5.073   7.806
74192SOL     OW24472   2.756  10.225   5.558
74192SOL    HW124473   2.833  10.280   5.540
74192SOL    HW224474   2.690  10.285   5.592
74193SOL     OW24475   6.864  11.581  11.435
74193SOL    HW124476   6.779  11.544  11.413
74193SOL    HW224477   6.926  11.508  11.422
74194SOL     OW24478  11.355   8.894   3.799
74194SOL    HW124479  11.340   8.970   3.743
74194SOL    HW224480  11.312   8.821   3.753
74195SOL     OW24481   4.082   3.417  14.765
74195SOL    HW124482   4.070   3.475  14.841
74195SOL    HW224483   4.038   3.336  14.789
74196SOL     OW24484   0.143  12.504   3.245
74196SOL    HW124485   0.226  12.456   3.248
74196SOL    HW224486   0.079  12.440   3.214
74197SOL     OW24487  10.086  12.330   6.615
74197SOL    HW124488  10.131  12.359   6.694
74197SOL    HW224489  10.156  12.298   6.558
74198SOL     OW24490  10.963   1.920  12.833
74198SOL    HW124491  11.040   1.955  12.879
74198SOL    HW224492  10.964   1.964  12.748
74199SOL     OW24493   0.174  10.432   4.485
74199SOL    HW124494   0.184  10.501   4.419
74199SOL    HW224495   0.102  10.378   4.452
74200SOL     OW24496  11.830   0.878   9.459
74200SOL    HW124497  11.905   0.819   9.461
74200SOL    HW224498  11.867   0.965   9.450
74201SOL     OW24499  12.489   2.101   1.950
74201SOL    HW124500  12.467   2.132   1.862
74201SOL    HW224501  12.404   2.081   1.990
74202SOL     OW24502  10.495   2.481  14.372
74202SOL    HW124503  10.528   2.448  14.456
74202SOL    HW224504  10.425   2.421  14.349
74203SOL     OW24505   9.057  11.818  10.740
74203SOL    HW124506   9.021  11.736  10.775
74203SOL    HW224507   8.980  11.871  10.720
74204SOL     OW24508   1.689   9.052   3.978
74204SOL    HW124509   1.677   8.983   4.042
74204SOL    HW224510   1.631   9.029   3.906
74205SOL     OW24511   5.054  14.598   8.148
74205SOL    HW124512   5.004  14.555   8.218
74205SOL    HW224513   5.138  14.618   8.188
74206SOL     OW24514  10.196   8.973  12.469
74206SOL    HW124515  10.206   9.057  12.424
74206SOL    HW224516  10.145   8.919  12.408
74207SOL     OW24517   5.299  14.167  11.313
74207SOL    HW124518   5.220  14.144  11.362
74207SOL    HW224519   5.282  14.135  11.224
74208SOL     OW24520   1.610   5.177   0.004
74208SOL    HW124521   1.700   5.165  14.842
74208SOL    HW224522   1.570   5.090  14.863
74209SOL     OW24523   2.545   5.887   6.625
74209SOL    HW124524   2.631   5.845   6.621
74209SOL    HW224525   2.561   5.970   6.669
74210SOL     OW24526   0.206   3.221   3.822
74210SOL    HW124527   0.235   3.145   3.873
74210SOL    HW224528   0.179   3.285   3.888
74211SOL     OW24529   8.709   9.187  10.787
74211SOL    HW124530   8.707   9.093  10.774
74211SOL    HW224531   8.704   9.224  10.698
74212SOL     OW24532   3.944  10.394  10.437
74212SOL    HW124533   3.922  10.486  10.453
74212SOL    HW224534   3.910  10.376  10.349
74213SOL     OW24535   0.201   6.590   6.216
74213SOL    HW124536   0.263   6.626   6.279
74213SOL    HW224537   0.235   6.503   6.195
74214SOL     OW24538  14.049   3.807   9.924
74214SOL    HW124539  14.114   3.859   9.971
74214SOL    HW224540  14.100   3.754   9.863
74215SOL     OW24541   1.069   7.273  13.933
74215SOL    HW124542   1.105   7.197  13.979
74215SOL    HW224543   1.020   7.236  13.860
74216SOL     OW24544  12.164  11.860   6.370
74216SOL    HW124545  12.184  11.926   6.436
74216SOL    HW224546  12.221  11.881   6.296
74217SOL     OW24547   7.219  10.043   9.836
74217SOL    HW124548   7.142   9.987   9.820
74217SOL    HW224549   7.202  10.084   9.920
74218SOL     OW24550   0.382   3.050  14.478
74218SOL    HW124551   0.463   3.072  14.524
74218SOL    HW224552   0.411   2.998  14.403
74219SOL     OW24553   7.852   1.552  10.879
74219SOL    HW124554   7.938   1.543  10.838
74219SOL    HW224555   7.836   1.646  10.881
74220SOL     OW24556   9.042   7.704   9.043
74220SOL    HW124557   9.063   7.745   8.959
74220SOL    HW224558   9.056   7.773   9.108
74221SOL     OW24559  12.912   6.364   6.388
74221SOL    HW124560  12.886   6.278   6.356
74221SOL    HW224561  12.842   6.389   6.449
74222SOL     OW24562   5.156  13.397  12.258
74222SOL    HW124563   5.075  13.363  12.220
74222SOL    HW224564   5.190  13.324  12.310
74223SOL     OW24565   3.715   9.370   5.653
74223SOL    HW124566   3.745   9.423   5.726
74223SOL    HW224567   3.735   9.280   5.678
74224SOL     OW24568  12.422   8.055   9.039
74224SOL    HW124569  12.505   8.016   9.066
74224SOL    HW224570  12.369   8.057   9.119
74225SOL     OW24571   1.257   5.448  14.406
74225SOL    HW124572   1.349   5.422  14.398
74225SOL    HW224573   1.258   5.543  14.402
74226SOL     OW24574  10.560   2.685   2.376
74226SOL    HW124575  10.649   2.705   2.345
74226SOL    HW224576  10.567   2.598   2.415
74227SOL     OW24577  10.069   7.270  10.671
74227SOL    HW124578   9.995   7.212  10.651
74227SOL    HW224579  10.050   7.350  10.623
74228SOL     OW24580   1.847   3.171   2.318
74228SOL    HW124581   1.852   3.080   2.288
74228SOL    HW224582   1.923   3.213   2.280
74229SOL     OW24583  12.215   0.081  11.843
74229SOL    HW124584  12.191  14.867  11.886
74229SOL    HW224585  12.203   0.148  11.910
74230SOL     OW24586   7.489  12.662  11.917
74230SOL    HW124587   7.465  12.606  11.991
74230SOL    HW224588   7.485  12.604  11.841
74231SOL     OW24589  10.560   1.087   2.584
74231SOL    HW124590  10.482   1.087   2.529
74231SOL    HW224591  10.622   1.031   2.537
74232SOL     OW24592  10.312   3.881  12.121
74232SOL    HW124593  10.232   3.868  12.172
74232SOL    HW224594  10.293   3.955  12.064
74233SOL     OW24595   3.762   2.346   7.409
74233SOL    HW124596   3.829   2.370   7.473
74233SOL    HW224597   3.680   2.374   7.448
74234SOL     OW24598   9.287   9.014   7.736
74234SOL    HW124599   9.298   8.997   7.829
74234SOL    HW224600   9.376   9.029   7.704
74235SOL     OW24601  14.373   5.993  13.198
74235SOL    HW124602  14.402   6.001  13.108
74235SOL    HW224603  14.282   5.964  13.192
74236SOL     OW24604  14.140  12.966  14.310
74236SOL    HW124605  14.146  12.996  14.401
74236SOL    HW224606  14.057  12.917  14.306
74237SOL     OW24607  13.167   5.841   7.595
74237SOL    HW124608  13.124   5.756   7.589
74237SOL    HW224609  13.108   5.901   7.548
74238SOL     OW24610   9.457   7.123   3.476
74238SOL    HW124611   9.396   7.052   3.453
74238SOL    HW224612   9.401   7.194   3.506
74239SOL     OW24613   6.736   7.801  12.062
74239SOL    HW124614   6.799   7.741  12.022
74239SOL    HW224615   6.700   7.753  12.137
74240SOL     OW24616   5.153   2.717   5.333
74240SOL    HW124617   5.148   2.795   5.277
74240SOL    HW224618   5.082   2.729   5.396
74241SOL     OW24619   8.364   1.894   4.609
74241SOL    HW124620   8.381   1.826   4.674
74241SOL    HW224621   8.358   1.975   4.660
74242SOL     OW24622   8.642   8.266   3.539
74242SOL    HW124623   8.725   8.229   3.508
74242SOL    HW224624   8.651   8.360   3.524
74243SOL     OW24625   0.545   2.363   8.666
74243SOL    HW124626   0.550   2.328   8.755
74243SOL    HW224627   0.495   2.298   8.617
74244SOL     OW24628   0.764  11.003   3.991
74244SOL    HW124629   0.817  11.056   4.051
74244SOL    HW224630   0.674  11.028   4.012
74245SOL     OW24631  10.599   3.918  11.653
74245SOL    HW124632  10.614   3.901  11.560
74245SOL    HW224633  10.508   3.893  11.667
74246SOL     OW24634   1.164   1.005   9.300
74246SOL    HW124635   1.110   0.931   9.270
74246SOL    HW224636   1.179   1.056   9.220
74247SOL     OW24637   9.242   9.089   5.493
74247SOL    HW124638   9.189   9.107   5.570
74247SOL    HW224639   9.217   9.000   5.467
74248SOL     OW24640   7.005  10.979   9.479
74248SOL    HW124641   6.969  10.998   9.566
74248SOL    HW224642   7.043  11.062   9.451
74249SOL     OW24643  12.905   2.284   3.529
74249SOL    HW124644  12.873   2.301   3.617
74249SOL    HW224645  12.848   2.335   3.472
74250SOL     OW24646  13.961   9.936   2.635
74250SOL    HW124647  13.916   9.861   2.674
74250SOL    HW224648  14.052   9.907   2.627
74251SOL     OW24649  14.854   1.114   7.200
74251SOL    HW124650  14.816   1.046   7.144
74251SOL    HW224651   0.066   1.074   7.235
74252SOL     OW24652   8.653   3.538   3.889
74252SOL    HW124653   8.559   3.530   3.871
74252SOL    HW224654   8.688   3.584   3.813
74253SOL     OW24655   2.630   2.504   7.758
74253SOL    HW124656   2.543   2.477   7.788
74253SOL    HW224657   2.661   2.431   7.704
74254SOL     OW24658  13.040   5.298   3.511
74254SOL    HW124659  13.099   5.251   3.569
74254SOL    HW224660  13.066   5.273   3.422
74255SOL     OW24661  14.565   5.120  10.293
74255SOL    HW124662  14.486   5.173  10.284
74255SOL    HW224663  14.566   5.094  10.385
74256SOL     OW24664   9.748  12.176   4.283
74256SOL    HW124665   9.762  12.248   4.344
74256SOL    HW224666   9.775  12.098   4.332
74257SOL     OW24667   9.814   1.276  12.035
74257SOL    HW124668   9.740   1.321  11.994
74257SOL    HW224669   9.843   1.214  11.968
74258SOL     OW24670   3.313   2.245  13.149
74258SOL    HW124671   3.373   2.275  13.080
74258SOL    HW224672   3.276   2.164  13.114
74259SOL     OW24673   1.264  14.310   0.643
74259SOL    HW124674   1.224  14.360   0.714
74259SOL    HW224675   1.358  14.316   0.659
74260SOL     OW24676   9.558   5.627   0.566
74260SOL    HW124677   9.601   5.684   0.630
74260SOL    HW224678   9.481   5.675   0.538
74261SOL     OW24679  11.151   5.623   2.492
74261SOL    HW124680  11.213   5.575   2.547
74261SOL    HW224681  11.149   5.575   2.410
74262SOL     OW24682   8.382  11.352  11.105
74262SOL    HW124683   8.318  11.422  11.095
74262SOL    HW224684   8.352  11.302  11.181
74263SOL     OW24685   3.554  14.146  10.077
74263SOL    HW124686   3.481  14.145  10.015
74263SOL    HW224687   3.620  14.201  10.035
74264SOL     OW24688   2.160  11.091   7.845
74264SOL    HW124689   2.190  11.158   7.906
74264SOL    HW224690   2.240  11.048   7.816
74265SOL     OW24691   0.551  13.421  14.385
74265SOL    HW124692   0.590  13.337  14.361
74265SOL    HW224693   0.460  13.415  14.357
74266SOL     OW24694   9.809   4.399  12.241
74266SOL    HW124695   9.740   4.393  12.175
74266SOL    HW224696   9.854   4.481  12.220
74267SOL     OW24697   6.911   4.525   2.584
74267SOL    HW124698   6.838   4.579   2.615
74267SOL    HW224699   6.879   4.485   2.503
74268SOL     OW24700  11.649   8.598   2.118
74268SOL    HW124701  11.679   8.688   2.118
74268SOL    HW224702  11.576   8.596   2.180
74269SOL     OW24703   0.946  10.828   7.638
74269SOL    HW124704   1.032  10.833   7.681
74269SOL    HW224705   0.919  10.919   7.628
74270SOL     OW24706   5.594  14.127   9.128
74270SOL    HW124707   5.636  14.042   9.140
74270SOL    HW224708   5.664  14.182   9.092
74271SOL     OW24709  11.143  11.080   8.229
74271SOL    HW124710  11.078  11.055   8.295
74271SOL    HW224711  11.150  11.005   8.171
74272SOL     OW24712  12.869   9.500   0.315
74272SOL    HW124713  12.918   9.475   0.237
74272SOL    HW224714  12.800   9.435   0.322
74273SOL     OW24715   8.873   8.226   5.477
74273SOL    HW124716   8.907   8.310   5.447
74273SOL    HW224717   8.781   8.227   5.451
74274SOL     OW24718   4.137   8.523  12.146
74274SOL    HW124719   4.089   8.603  12.125
74274SOL    HW224720   4.145   8.523  12.242
74275SOL     OW24721   4.699  14.532   9.635
74275SOL    HW124722   4.732  14.604   9.582
74275SOL    HW224723   4.640  14.574   9.698
74276SOL     OW24724   8.182  14.240   6.407
74276SOL    HW124725   8.193  14.335   6.407
74276SOL    HW224726   8.160  14.219   6.316
74277SOL     OW24727   7.795   0.591   1.853
74277SOL    HW124728   7.888   0.582   1.872
74277SOL    HW224729   7.791   0.639   1.770
74278SOL     OW24730  13.291  12.241  12.764
74278SOL    HW124731  13.327  12.273  12.681
74278SOL    HW224732  13.204  12.208  12.743
74279SOL     OW24733   2.141   7.381  11.414
74279SOL    HW124734   2.181   7.310  11.464
74279SOL    HW224735   2.215   7.437  11.388
74280SOL     OW24736   3.908  11.419   7.508
74280SOL    HW124737   3.831  11.363   7.494
74280SOL    HW224738   3.983  11.363   7.488
74281SOL     OW24739   8.234  10.536   9.961
74281SOL    HW124740   8.311  10.528  10.017
74281SOL    HW224741   8.196  10.621   9.984
74282SOL     OW24742   6.275   7.345   3.526
74282SOL    HW124743   6.238   7.433   3.519
74282SOL    HW224744   6.199   7.288   3.534
74283SOL     OW24745   0.451  10.379   8.272
74283SOL    HW124746   0.528  10.427   8.302
74283SOL    HW224747   0.486  10.309   8.218
74284SOL     OW24748  11.939  10.327   6.106
74284SOL    HW124749  11.917  10.245   6.151
74284SOL    HW224750  11.865  10.385   6.125
74285SOL     OW24751  14.404   0.729   7.561
74285SOL    HW124752  14.329   0.772   7.601
74285SOL    HW224753  14.419   0.778   7.480
74286SOL     OW24754  11.654   0.587  13.517
74286SOL    HW124755  11.745   0.573  13.491
74286SOL    HW224756  11.645   0.682  13.522
74287SOL     OW24757   5.219  14.321   8.510
74287SOL    HW124758   5.283  14.361   8.451
74287SOL    HW224759   5.242  14.355   8.596
74288SOL     OW24760   2.892   2.112  12.173
74288SOL    HW124761   2.890   2.147  12.262
74288SOL    HW224762   2.904   2.188  12.117
74289SOL     OW24763   2.989   5.013   1.606
74289SOL    HW124764   3.050   5.023   1.533
74289SOL    HW224765   2.925   5.084   1.594
74290SOL     OW24766  12.556   4.624  14.373
74290SOL    HW124767  12.509   4.579  14.303
74290SOL    HW224768  12.501   4.613  14.450
74291SOL     OW24769   1.560   1.213   3.733
74291SOL    HW124770   1.488   1.150   3.733
74291SOL    HW224771   1.593   1.212   3.643
74292SOL     OW24772  13.353   3.073  12.911
74292SOL    HW124773  13.430   3.029  12.877
74292SOL    HW224774  13.318   3.123  12.837
74293SOL     OW24775   3.900  12.107  12.406
74293SOL    HW124776   3.897  12.068  12.319
74293SOL    HW224777   3.989  12.141  12.413
74294SOL     OW24778  12.724  12.144   3.360
74294SOL    HW124779  12.685  12.207   3.421
74294SOL    HW224780  12.708  12.180   3.274
74295SOL     OW24781   9.389   1.847  13.283
74295SOL    HW124782   9.390   1.845  13.187
74295SOL    HW224783   9.411   1.757  13.309
74296SOL     OW24784   7.824   8.141   4.049
74296SOL    HW124785   7.857   8.078   4.113
74296SOL    HW224786   7.856   8.226   4.079
74297SOL     OW24787  13.104  14.608   5.730
74297SOL    HW124788  13.172  14.640   5.788
74297SOL    HW224789  13.031  14.669   5.743
74298SOL     OW24790  13.539   6.783  12.418
74298SOL    HW124791  13.634   6.791  12.423
74298SOL    HW224792  13.511   6.855  12.362
74299SOL     OW24793  14.859   3.535   2.594
74299SOL    HW124794  14.809   3.464   2.554
74299SOL    HW224795   0.073   3.538   2.545
74300SOL     OW24796  10.621  13.999  14.583
74300SOL    HW124797  10.577  13.963  14.660
74300SOL    HW224798  10.567  13.971  14.510
74301SOL     OW24799  10.061  11.152  14.201
74301SOL    HW124800  10.125  11.101  14.152
74301SOL    HW224801  10.103  11.237  14.215
74302SOL     OW24802   7.755   4.878  12.548
74302SOL    HW124803   7.712   4.810  12.600
74302SOL    HW224804   7.731   4.858  12.457
74303SOL     OW24805   9.760  12.014   0.186
74303SOL    HW124806   9.741  11.923   0.164
74303SOL    HW224807   9.787  12.011   0.278
74304SOL     OW24808   8.256   3.975  13.850
74304SOL    HW124809   8.222   3.996  13.763
74304SOL    HW224810   8.179   3.966  13.905
74305SOL     OW24811  13.218   3.528   3.661
74305SOL    HW124812  13.255   3.492   3.581
74305SOL    HW224813  13.289   3.581   3.699
74306SOL     OW24814   4.553   8.650  12.927
74306SOL    HW124815   4.646   8.673  12.924
74306SOL    HW224816   4.550   8.558  12.898
74307SOL     OW24817   6.039  13.864   3.361
74307SOL    HW124818   6.090  13.833   3.435
74307SOL    HW224819   6.070  13.810   3.287
74308SOL     OW24820   9.050  11.882  14.283
74308SOL    HW124821   8.991  11.826  14.232
74308SOL    HW224822   9.058  11.838  14.368
74309SOL     OW24823   5.508  12.770   3.663
74309SOL    HW124824   5.501  12.724   3.579
74309SOL    HW224825   5.560  12.712   3.718
74310SOL     OW24826  13.507   1.557   4.266
74310SOL    HW124827  13.435   1.614   4.238
74310SOL    HW224828  13.541   1.600   4.345
74311SOL     OW24829   8.234   9.809  10.698
74311SOL    HW124830   8.234   9.755  10.777
74311SOL    HW224831   8.302   9.874  10.713
74312SOL     OW24832   0.120   7.481   8.846
74312SOL    HW124833   0.170   7.539   8.903
74312SOL    HW224834   0.145   7.392   8.872
74313SOL     OW24835   1.725  10.147   0.840
74313SOL    HW124836   1.784  10.222   0.826
74313SOL    HW224837   1.664  10.152   0.766
74314SOL     OW24838  11.851  11.415  11.025
74314SOL    HW124839  11.830  11.345  11.087
74314SOL    HW224840  11.884  11.370  10.948
74315SOL     OW24841   7.081  13.613   7.004
74315SOL    HW124842   7.123  13.531   7.033
74315SOL    HW224843   7.098  13.674   7.075
74316SOL     OW24844  13.583   9.832   8.358
74316SOL    HW124845  13.589   9.736   8.355
74316SOL    HW224846  13.620   9.861   8.274
74317SOL     OW24847  10.403   4.071   3.237
74317SOL    HW124848  10.470   4.028   3.184
74317SOL    HW224849  10.447   4.146   3.275
74318SOL     OW24850   2.900   7.068  11.496
74318SOL    HW124851   2.845   7.121  11.438
74318SOL    HW224852   2.851   7.064  11.578
74319SOL     OW24853   2.471   2.661   6.786
74319SOL    HW124854   2.428   2.588   6.741
74319SOL    HW224855   2.528   2.620   6.850
74320SOL     OW24856   2.775   0.637  11.508
74320SOL    HW124857   2.834   0.621  11.582
74320SOL    HW224858   2.782   0.731  11.491
74321SOL     OW24859   6.406   9.376   2.066
74321SOL    HW124860   6.489   9.376   2.115
74321SOL    HW224861   6.361   9.455   2.096
74322SOL     OW24862   5.671  11.637   1.832
74322SOL    HW124863   5.649  11.543   1.831
74322SOL    HW224864   5.731  11.648   1.758
74323SOL     OW24865   7.852   3.832  12.442
74323SOL    HW124866   7.767   3.856  12.477
74323SOL    HW224867   7.914   3.851  12.513
74324SOL     OW24868   7.931   7.021   5.245
74324SOL    HW124869   7.923   7.024   5.340
74324SOL    HW224870   7.974   7.103   5.222
74325SOL     OW24871   6.437  12.958   8.343
74325SOL    HW124872   6.357  12.938   8.391
74325SOL    HW224873   6.407  12.999   8.262
74326SOL     OW24874   1.883   0.615  13.917
74326SOL    HW124875   1.788   0.600  13.925
74326SOL    HW224876   1.892   0.709  13.906
74327SOL     OW24877   4.066  12.959   4.557
74327SOL    HW124878   4.071  12.926   4.647
74327SOL    HW224879   4.013  12.895   4.510
74328SOL     OW24880  13.538   1.130   4.829
74328SOL    HW124881  13.496   1.130   4.915
74328SOL    HW224882  13.538   1.038   4.803
74329SOL     OW24883  13.986   3.751   0.185
74329SOL    HW124884  13.990   3.820   0.119
74329SOL    HW224885  14.077   3.739   0.211
74330SOL     OW24886  13.588   3.084  11.281
74330SOL    HW124887  13.530   3.157  11.303
74330SOL    HW224888  13.563   3.015  11.342
74331SOL     OW24889  13.441   4.486  13.658
74331SOL    HW124890  13.359   4.508  13.612
74331SOL    HW224891  13.421   4.499  13.750
74332SOL     OW24892  13.465   3.722   3.184
74332SOL    HW124893  13.523   3.703   3.258
74332SOL    HW224894  13.497   3.805   3.149
74333SOL     OW24895  12.307  10.163  13.789
74333SOL    HW124896  12.289  10.144  13.881
74333SOL    HW224897  12.221  10.188  13.753
74334SOL     OW24898   4.541  13.373   8.204
74334SOL    HW124899   4.612  13.425   8.241
74334SOL    HW224900   4.484  13.437   8.161
74335SOL     OW24901   8.955   0.889   4.319
74335SOL    HW124902   8.904   0.821   4.274
74335SOL    HW224903   8.891   0.934   4.373
74336SOL     OW24904   1.615   6.119   3.630
74336SOL    HW124905   1.611   6.029   3.599
74336SOL    HW224906   1.672   6.115   3.707
74337SOL     OW24907  14.061   4.156   1.755
74337SOL    HW124908  14.009   4.081   1.726
74337SOL    HW224909  14.056   4.153   1.850
74338SOL     OW24910   5.888  13.598   7.055
74338SOL    HW124911   5.971  13.645   7.044
74338SOL    HW224912   5.858  13.582   6.966
74339SOL     OW24913  10.829  10.543   8.840
74339SOL    HW124914  10.746  10.585   8.821
74339SOL    HW224915  10.880  10.552   8.759
74340SOL     OW24916   0.905   1.429  14.499
74340SOL    HW124917   0.917   1.519  14.528
74340SOL    HW224918   0.983   1.410  14.446
74341SOL     OW24919   7.678   1.200   9.831
74341SOL    HW124920   7.753   1.142   9.841
74341SOL    HW224921   7.607   1.143   9.803
74342SOL     OW24922   4.005   7.214   0.696
74342SOL    HW124923   3.964   7.236   0.612
74342SOL    HW224924   4.083   7.164   0.672
74343SOL     OW24925   9.199   9.612   8.559
74343SOL    HW124926   9.120   9.599   8.507
74343SOL    HW224927   9.200   9.707   8.577
74344SOL     OW24928  10.880   3.424  10.405
74344SOL    HW124929  10.885   3.519  10.401
74344SOL    HW224930  10.966   3.395  10.434
74345SOL     OW24931   8.197   0.823  10.035
74345SOL    HW124932   8.160   0.754   9.980
74345SOL    HW224933   8.292   0.814  10.025
74346SOL     OW24934   2.809   4.454   8.617
74346SOL    HW124935   2.772   4.372   8.648
74346SOL    HW224936   2.865   4.428   8.544
74347SOL     OW24937   3.629   0.140   9.161
74347SOL    HW124938   3.598   0.180   9.242
74347SOL    HW224939   3.660   0.053   9.188
74348SOL     OW24940   9.773   4.900   7.630
74348SOL    HW124941   9.734   4.937   7.550
74348SOL    HW224942   9.766   4.970   7.695
74349SOL     OW24943  10.731  12.712   1.365
74349SOL    HW124944  10.776  12.629   1.383
74349SOL    HW224945  10.641  12.696   1.392
74350SOL     OW24946   4.626   8.763  12.346
74350SOL    HW124947   4.717   8.734  12.342
74350SOL    HW224948   4.631   8.856  12.367
74351SOL     OW24949   0.408   9.392   3.890
74351SOL    HW124950   0.398   9.297   3.902
74351SOL    HW224951   0.499   9.403   3.865
74352SOL     OW24952  10.231   1.993  12.588
74352SOL    HW124953  10.326   1.983  12.592
74352SOL    HW224954  10.211   2.062  12.651
74353SOL     OW24955   8.424   0.436   5.656
74353SOL    HW124956   8.503   0.383   5.643
74353SOL    HW224957   8.430   0.504   5.588
74354SOL     OW24958  11.223   8.447   0.700
74354SOL    HW124959  11.165   8.457   0.776
74354SOL    HW224960  11.311   8.465   0.734
74355SOL     OW24961   0.304   8.712   1.029
74355SOL    HW124962   0.381   8.750   0.988
74355SOL    HW224963   0.271   8.648   0.965
74356SOL     OW24964   1.554   1.949   7.344
74356SOL    HW124965   1.563   2.039   7.313
74356SOL    HW224966   1.530   1.957   7.436
74357SOL     OW24967   4.462  14.281  10.765
74357SOL    HW124968   4.473  14.361  10.816
74357SOL    HW224969   4.518  14.217  10.809
74358SOL     OW24970  10.340   6.583   3.209
74358SOL    HW124971  10.313   6.593   3.118
74358SOL    HW224972  10.275   6.633   3.259
74359SOL     OW24973   2.548   5.170   2.962
74359SOL    HW124974   2.582   5.081   2.951
74359SOL    HW224975   2.561   5.211   2.876
74360SOL     OW24976   9.031   4.153   5.592
74360SOL    HW124977   9.073   4.173   5.508
74360SOL    HW224978   9.103   4.156   5.656
74361SOL     OW24979  14.811   7.293   2.024
74361SOL    HW124980  14.847   7.205   2.009
74361SOL    HW224981   0.000   7.330   2.091
74362SOL     OW24982  11.142   3.354  10.535
74362SOL    HW124983  11.166   3.269  10.571
74362SOL    HW224984  11.219   3.383  10.487
74363SOL     OW24985  14.259  10.007  13.682
74363SOL    HW124986  14.323   9.953  13.636
74363SOL    HW224987  14.311  10.074  13.727
74364SOL     OW24988   6.696   9.369   8.702
74364SOL    HW124989   6.680   9.463   8.693
74364SOL    HW224990   6.731   9.343   8.617
74365SOL     OW24991   6.999   5.430   8.190
74365SOL    HW124992   6.962   5.469   8.269
74365SOL    HW224993   7.092   5.448   8.196
74366SOL     OW24994   8.968   1.481   4.353
74366SOL    HW124995   8.980   1.576   4.341
74366SOL    HW224996   9.026   1.459   4.426
74367SOL     OW24997  13.005   8.317  12.563
74367SOL    HW124998  13.074   8.337  12.625
74367SOL    HW224999  13.043   8.335  12.477
74368SOL     OW25000   5.935   2.758   3.607
74368SOL    HW125001   5.862   2.754   3.668
74368SOL    HW225002   5.910   2.827   3.545
74369SOL     OW25003   7.156   7.882  14.083
74369SOL    HW125004   7.079   7.921  14.125
74369SOL    HW225005   7.140   7.895  13.989
74370SOL     OW25006  12.451   9.033  13.647
74370SOL    HW125007  12.474   9.078  13.728
74370SOL    HW225008  12.526   8.976  13.629
74371SOL     OW25009   1.846  10.157   6.131
74371SOL    HW125010   1.877  10.240   6.167
74371SOL    HW225011   1.774  10.180   6.072
74372SOL     OW25012   4.053   3.464   6.868
74372SOL    HW125013   4.137   3.507   6.878
74372SOL    HW225014   4.074   3.374   6.844
74373SOL     OW25015  14.030   9.628   0.363
74373SOL    HW125016  13.988   9.570   0.300
74373SOL    HW225017  13.961   9.690   0.388
74374SOL     OW25018   4.240   7.607   6.566
74374SOL    HW125019   4.272   7.523   6.533
74374SOL    HW225020   4.305   7.633   6.632
74375SOL     OW25021   8.810   1.729   3.756
74375SOL    HW125022   8.827   1.672   3.832
74375SOL    HW225023   8.815   1.671   3.681
74376SOL     OW25024   0.753  13.243   7.695
74376SOL    HW125025   0.827  13.185   7.715
74376SOL    HW225026   0.759  13.313   7.759
74377SOL     OW25027  11.672  11.120   9.250
74377SOL    HW125028  11.599  11.085   9.199
74377SOL    HW225029  11.644  11.111   9.341
74378SOL     OW25030  13.236   3.171  12.686
74378SOL    HW125031  13.150   3.153  12.646
74378SOL    HW225032  13.226   3.258  12.725
74379SOL     OW25033   7.402  13.804   8.648
74379SOL    HW125034   7.424  13.811   8.555
74379SOL    HW225035   7.486  13.807   8.693
74380SOL     OW25036   1.223   4.794  14.232
74380SOL    HW125037   1.314   4.781  14.258
74380SOL    HW225038   1.174   4.784  14.314
74381SOL     OW25039   3.857   3.934   9.559
74381SOL    HW125040   3.931   3.878   9.583
74381SOL    HW225041   3.878   4.019   9.599
74382SOL     OW25042   0.578  12.425  10.453
74382SOL    HW125043   0.536  12.451  10.535
74382SOL    HW225044   0.521  12.462  10.385
74383SOL     OW25045  12.676  13.323   3.890
74383SOL    HW125046  12.679  13.406   3.842
74383SOL    HW225047  12.586  13.317   3.922
74384SOL     OW25048  11.545   5.714   9.859
74384SOL    HW125049  11.478   5.756   9.804
74384SOL    HW225050  11.500   5.642   9.901
74385SOL     OW25051   0.906  14.271   6.208
74385SOL    HW125052   1.000  14.282   6.192
74385SOL    HW225053   0.881  14.199   6.150
74386SOL     OW25054   9.616   8.996   6.584
74386SOL    HW125055   9.537   9.049   6.579
74386SOL    HW225056   9.673   9.043   6.646
74387SOL     OW25057  12.894   1.425   7.151
74387SOL    HW125058  12.873   1.341   7.191
74387SOL    HW225059  12.812   1.474   7.154
74388SOL     OW25060  12.189   4.506  13.477
74388SOL    HW125061  12.140   4.573  13.525
74388SOL    HW225062  12.191   4.537  13.387
74389SOL     OW25063  10.479   6.126  10.646
74389SOL    HW125064  10.541   6.199  10.656
74389SOL    HW225065  10.412   6.160  10.587
74390SOL     OW25066   8.257   5.539   2.341
74390SOL    HW125067   8.226   5.522   2.252
74390SOL    HW225068   8.272   5.633   2.343
74391SOL     OW25069   0.754   4.115   3.544
74391SOL    HW125070   0.835   4.096   3.592
74391SOL    HW225071   0.780   4.180   3.479
74392SOL     OW25072   7.600   2.550  11.584
74392SOL    HW125073   7.618   2.609  11.657
74392SOL    HW225074   7.662   2.478  11.595
74393SOL     OW25075   9.668   9.231   4.811
74393SOL    HW125076   9.660   9.137   4.822
74393SOL    HW225077   9.620   9.250   4.730
74394SOL     OW25078  10.494   0.842   6.381
74394SOL    HW125079  10.399   0.833   6.374
74394SOL    HW225080  10.509   0.937   6.377
74395SOL     OW25081  14.335  14.356   6.140
74395SOL    HW125082  14.352  14.442   6.100
74395SOL    HW225083  14.360  14.293   6.072
74396SOL     OW25084   4.600   4.997   2.584
74396SOL    HW125085   4.586   5.090   2.566
74396SOL    HW225086   4.527   4.953   2.542
74397SOL     OW25087   4.034  11.611   7.733
74397SOL    HW125088   4.100  11.560   7.779
74397SOL    HW225089   3.985  11.546   7.682
74398SOL     OW25090   5.178  11.214  12.563
74398SOL    HW125091   5.144  11.236  12.650
74398SOL    HW225092   5.270  11.191  12.578
74399SOL     OW25093   3.103   6.589   8.200
74399SOL    HW125094   3.179   6.642   8.225
74399SOL    HW225095   3.093   6.526   8.271
74400SOL     OW25096   2.040   3.012  10.672
74400SOL    HW125097   1.961   3.066  10.670
74400SOL    HW225098   2.086   3.035  10.591
74401SOL     OW25099   0.714   2.593  12.488
74401SOL    HW125100   0.650   2.531  12.524
74401SOL    HW225101   0.673   2.627  12.409
74402SOL     OW25102   8.615   7.708  14.593
74402SOL    HW125103   8.611   7.663  14.677
74402SOL    HW225104   8.582   7.645  14.529
74403SOL     OW25105  13.277   7.494   6.241
74403SOL    HW125106  13.302   7.542   6.320
74403SOL    HW225107  13.269   7.403   6.270
74404SOL     OW25108   9.177   3.981   7.629
74404SOL    HW125109   9.109   4.044   7.604
74404SOL    HW225110   9.238   4.032   7.682
74405SOL     OW25111   4.858   2.548   0.459
74405SOL    HW125112   4.867   2.555   0.364
74405SOL    HW225113   4.825   2.459   0.474
74406SOL     OW25114  13.032  12.101  12.809
74406SOL    HW125115  13.066  12.117  12.897
74406SOL    HW225116  13.032  12.005  12.801
74407SOL     OW25117   1.144   8.539  13.170
74407SOL    HW125118   1.090   8.478  13.120
74407SOL    HW225119   1.204   8.576  13.106
74408SOL     OW25120   4.339  12.436   2.925
74408SOL    HW125121   4.254  12.471   2.899
74408SOL    HW225122   4.323  12.391   3.008
74409SOL     OW25123   6.205   9.264  11.645
74409SOL    HW125124   6.165   9.327  11.705
74409SOL    HW225125   6.297   9.264  11.668
74410SOL     OW25126   6.925  13.348   3.636
74410SOL    HW125127   7.001  13.404   3.651
74410SOL    HW225128   6.923  13.333   3.542
74411SOL     OW25129   8.444   3.986   8.755
74411SOL    HW125130   8.507   4.054   8.777
74411SOL    HW225131   8.427   3.998   8.661
74412SOL     OW25132   4.854  12.134   6.631
74412SOL    HW125133   4.932  12.143   6.575
74412SOL    HW225134   4.864  12.048   6.671
74413SOL     OW25135   2.188   0.605   2.832
74413SOL    HW125136   2.218   0.538   2.771
74413SOL    HW225137   2.188   0.686   2.781
74414SOL     OW25138   2.752   5.151   1.356
74414SOL    HW125139   2.756   5.209   1.432
74414SOL    HW225140   2.840   5.156   1.317
74415SOL     OW25141  13.789   8.978  12.696
74415SOL    HW125142  13.812   9.066  12.724
74415SOL    HW225143  13.871   8.928  12.701
74416SOL     OW25144   8.666   6.025   0.907
74416SOL    HW125145   8.743   5.968   0.906
74416SOL    HW225146   8.702   6.114   0.901
74417SOL     OW25147   3.989   6.433   7.263
74417SOL    HW125148   4.017   6.344   7.283
74417SOL    HW225149   4.026   6.486   7.334
74418SOL     OW25150   1.879   4.165   9.974
74418SOL    HW125151   1.948   4.171   9.908
74418SOL    HW225152   1.907   4.224  10.044
74419SOL     OW25153   3.207   7.604   5.898
74419SOL    HW125154   3.255   7.594   5.980
74419SOL    HW225155   3.235   7.689   5.864
74420SOL     OW25156   4.805   3.627   4.819
74420SOL    HW125157   4.733   3.636   4.881
74420SOL    HW225158   4.791   3.698   4.756
74421SOL     OW25159   0.611   8.132  10.892
74421SOL    HW125160   0.643   8.042  10.895
74421SOL    HW225161   0.639   8.165  10.807
74422SOL     OW25162   1.294   1.857   3.340
74422SOL    HW125163   1.326   1.768   3.353
74422SOL    HW225164   1.200   1.848   3.326
74423SOL     OW25165   7.126  14.347   0.199
74423SOL    HW125166   7.178  14.398   0.261
74423SOL    HW225167   7.052  14.315   0.251
74424SOL     OW25168   9.497   3.807   2.401
74424SOL    HW125169   9.429   3.873   2.409
74424SOL    HW225170   9.484   3.769   2.314
74425SOL     OW25171   8.567   9.944   1.959
74425SOL    HW125172   8.564   9.863   2.010
74425SOL    HW225173   8.657   9.946   1.924
74426SOL     OW25174   3.801   8.024   2.555
74426SOL    HW125175   3.830   8.029   2.646
74426SOL    HW225176   3.832   7.938   2.525
74427SOL     OW25177   6.108  12.404   6.276
74427SOL    HW125178   6.160  12.337   6.231
74427SOL    HW225179   6.060  12.449   6.205
74428SOL     OW25180  13.093  12.209   9.421
74428SOL    HW125181  13.083  12.127   9.372
74428SOL    HW225182  13.070  12.187   9.511
74429SOL     OW25183   4.805   5.267  10.301
74429SOL    HW125184   4.794   5.208  10.226
74429SOL    HW225185   4.894   5.249  10.332
74430SOL     OW25186   8.625  11.704   7.724
74430SOL    HW125187   8.557  11.737   7.782
74430SOL    HW225188   8.689  11.776   7.720
74431SOL     OW25189   1.171   3.128  13.868
74431SOL    HW125190   1.207   3.199  13.815
74431SOL    HW225191   1.080   3.121  13.839
74432SOL     OW25192   0.293   2.715  10.622
74432SOL    HW125193   0.210   2.760  10.634
74432SOL    HW225194   0.275   2.649  10.555
74433SOL     OW25195  14.144   8.231   2.688
74433SOL    HW125196  14.197   8.151   2.685
74433SOL    HW225197  14.065   8.208   2.638
74434SOL     OW25198   7.607  12.434  11.312
74434SOL    HW125199   7.511  12.440  11.315
74434SOL    HW225200   7.631  12.397  11.397
74435SOL     OW25201   5.293   6.721   0.222
74435SOL    HW125202   5.245   6.788   0.271
74435SOL    HW225203   5.384   6.752   0.222
74436SOL     OW25204   6.688  14.092   1.421
74436SOL    HW125205   6.704  13.997   1.426
74436SOL    HW225206   6.723  14.117   1.335
74437SOL     OW25207   8.866  14.552  13.716
74437SOL    HW125208   8.867  14.569  13.810
74437SOL    HW225209   8.790  14.601  13.684
74438SOL     OW25210   9.340   6.186   4.904
74438SOL    HW125211   9.261   6.194   4.850
74438SOL    HW225212   9.318   6.123   4.971
74439SOL     OW25213  11.996   2.812  14.285
74439SOL    HW125214  11.917   2.786  14.238
74439SOL    HW225215  11.964   2.870  14.355
74440SOL     OW25216  14.853   9.675  10.012
74440SOL    HW125217  14.806   9.758  10.018
74440SOL    HW225218  14.815   9.620  10.080
74441SOL     OW25219   8.675   9.219   6.190
74441SOL    HW125220   8.748   9.193   6.134
74441SOL    HW225221   8.681   9.161   6.266
74442SOL     OW25222   2.594   9.689  11.715
74442SOL    HW125223   2.649   9.622  11.755
74442SOL    HW225224   2.655   9.756  11.686
74443SOL     OW25225   8.145  13.070   5.332
74443SOL    HW125226   8.055  13.037   5.327
74443SOL    HW225227   8.143  13.133   5.403
74444SOL     OW25228  11.221   4.484   9.643
74444SOL    HW125229  11.294   4.522   9.593
74444SOL    HW225230  11.259   4.463   9.728
74445SOL     OW25231   2.158   2.224   7.218
74445SOL    HW125232   2.154   2.233   7.313
74445SOL    HW225233   2.075   2.259   7.187
74446SOL     OW25234  12.184  12.768   4.731
74446SOL    HW125235  12.268  12.778   4.687
74446SOL    HW225236  12.188  12.828   4.805
74447SOL     OW25237   4.741   1.291   0.955
74447SOL    HW125238   4.809   1.230   0.983
74447SOL    HW225239   4.770   1.376   0.989
74448SOL     OW25240   5.972   5.335   4.603
74448SOL    HW125241   5.994   5.385   4.524
74448SOL    HW225242   6.047   5.348   4.662
74449SOL     OW25243   1.358   5.702   8.856
74449SOL    HW125244   1.401   5.669   8.777
74449SOL    HW225245   1.296   5.633   8.880
74450SOL     OW25246  11.193   4.519  11.732
74450SOL    HW125247  11.284   4.550  11.733
74450SOL    HW225248  11.152   4.567  11.659
74451SOL     OW25249   0.920  11.762   8.083
74451SOL    HW125250   0.888  11.677   8.112
74451SOL    HW225251   0.893  11.768   7.991
74452SOL     OW25252   3.640   7.334  10.318
74452SOL    HW125253   3.620   7.315  10.226
74452SOL    HW225254   3.675   7.423  10.317
74453SOL     OW25255   4.923   6.629   5.702
74453SOL    HW125256   4.851   6.667   5.650
74453SOL    HW225257   4.982   6.702   5.717
74454SOL     OW25258  12.569  11.708   7.898
74454SOL    HW125259  12.627  11.680   7.826
74454SOL    HW225260  12.503  11.639   7.902
74455SOL     OW25261  14.835   7.434  10.632
74455SOL    HW125262  14.817   7.345  10.662
74455SOL    HW225263  14.867   7.479  10.710
74456SOL     OW25264   4.606  14.496   6.057
74456SOL    HW125265   4.521  14.524   6.023
74456SOL    HW225266   4.593  14.487   6.151
74457SOL     OW25267   3.969  14.374  13.725
74457SOL    HW125268   3.905  14.339  13.787
74457SOL    HW225269   3.955  14.323  13.645
74458SOL     OW25270   3.891   7.712   9.720
74458SOL    HW125271   3.898   7.788   9.663
74458SOL    HW225272   3.805   7.720   9.761
74459SOL     OW25273   1.077   7.670   9.144
74459SOL    HW125274   1.036   7.614   9.210
74459SOL    HW225275   1.004   7.706   9.095
74460SOL     OW25276   1.386   6.974   0.592
74460SOL    HW125277   1.474   6.941   0.577
74460SOL    HW225278   1.359   7.010   0.507
74461SOL     OW25279  12.091   3.106  14.640
74461SOL    HW125280  12.135   3.120  14.723
74461SOL    HW225281  12.151   3.051  14.590
74462SOL     OW25282  14.700   8.355  11.241
74462SOL    HW125283  14.715   8.314  11.156
74462SOL    HW225284  14.652   8.436  11.221
74463SOL     OW25285  10.078   8.156   9.062
74463SOL    HW125286   9.995   8.118   9.093
74463SOL    HW225287  10.064   8.251   9.065
74464SOL     OW25288  13.822   3.587   6.672
74464SOL    HW125289  13.742   3.539   6.694
74464SOL    HW225290  13.865   3.601   6.757
74465SOL     OW25291  10.332  13.223  14.008
74465SOL    HW125292  10.414  13.175  13.994
74465SOL    HW225293  10.359  13.314  14.019
74466SOL     OW25294   7.066   3.974   7.796
74466SOL    HW125295   7.114   4.045   7.753
74466SOL    HW225296   7.108   3.964   7.881
74467SOL     OW25297   1.269  12.331   2.468
74467SOL    HW125298   1.270  12.381   2.550
74467SOL    HW225299   1.312  12.389   2.405
74468SOL     OW25300   6.194   8.078   2.505
74468SOL    HW125301   6.159   8.166   2.492
74468SOL    HW225302   6.150   8.046   2.584
74469SOL     OW25303  13.145  11.626  13.741
74469SOL    HW125304  13.179  11.608  13.653
74469SOL    HW225305  13.179  11.713  13.761
74470SOL     OW25306   8.784  12.250  12.254
74470SOL    HW125307   8.830  12.241  12.170
74470SOL    HW225308   8.777  12.160  12.286
74471SOL     OW25309   4.701   7.711  12.249
74471SOL    HW125310   4.727   7.625  12.283
74471SOL    HW225311   4.774   7.769  12.274
74472SOL     OW25312   3.868   4.777  11.489
74472SOL    HW125313   3.898   4.852  11.438
74472SOL    HW225314   3.918   4.703  11.454
74473SOL     OW25315  13.767   2.512   9.385
74473SOL    HW125316  13.820   2.587   9.359
74473SOL    HW225317  13.709   2.546   9.453
74474SOL     OW25318   1.611   1.004  10.982
74474SOL    HW125319   1.546   0.970  11.043
74474SOL    HW225320   1.595   1.098  10.979
74475SOL     OW25321   2.547   9.782   3.270
74475SOL    HW125322   2.453   9.790   3.251
74475SOL    HW225323   2.582   9.869   3.251
74476SOL     OW25324  12.501   9.065   4.819
74476SOL    HW125325  12.502   8.972   4.843
74476SOL    HW225326  12.553   9.070   4.739
74477SOL     OW25327  13.595  11.615  12.319
74477SOL    HW125328  13.578  11.553  12.248
74477SOL    HW225329  13.578  11.701  12.281
74478SOL     OW25330   4.168   4.508  14.255
74478SOL    HW125331   4.197   4.530  14.167
74478SOL    HW225332   4.083   4.550  14.264
74479SOL     OW25333  10.051   1.234   1.761
74479SOL    HW125334  10.101   1.236   1.843
74479SOL    HW225335  10.081   1.155   1.716
74480SOL     OW25336   6.246   3.484   6.414
74480SOL    HW125337   6.207   3.433   6.485
74480SOL    HW225338   6.326   3.437   6.391
74481SOL     OW25339  11.111   6.387  14.668
74481SOL    HW125340  11.189   6.442  14.659
74481SOL    HW225341  11.038   6.445  14.644
74482SOL     OW25342   7.073  12.687   0.208
74482SOL    HW125343   7.144  12.648   0.259
74482SOL    HW225344   7.115  12.717   0.127
74483SOL     OW25345   8.710   9.216   9.343
74483SOL    HW125346   8.705   9.229   9.437
74483SOL    HW225347   8.804   9.225   9.323
74484SOL     OW25348   2.194   4.760   1.145
74484SOL    HW125349   2.144   4.723   1.218
74484SOL    HW225350   2.253   4.824   1.185
74485SOL     OW25351  11.863   8.754   1.494
74485SOL    HW125352  11.786   8.775   1.441
74485SOL    HW225353  11.927   8.720   1.430
74486SOL     OW25354  11.022  12.935  12.759
74486SOL    HW125355  10.949  12.980  12.717
74486SOL    HW225356  11.030  12.977  12.845
74487SOL     OW25357  11.613  14.547   6.814
74487SOL    HW125358  11.696  14.562   6.859
74487SOL    HW225359  11.589  14.457   6.837
74488SOL     OW25360   5.805  13.131  10.605
74488SOL    HW125361   5.725  13.174  10.633
74488SOL    HW225362   5.794  13.039  10.630
74489SOL     OW25363  12.150  11.138   1.916
74489SOL    HW125364  12.199  11.166   1.993
74489SOL    HW225365  12.156  11.212   1.855
74490SOL     OW25366  10.508  13.053   7.617
74490SOL    HW125367  10.600  13.067   7.594
74490SOL    HW225368  10.462  13.126   7.577
74491SOL     OW25369   6.477  12.939   5.829
74491SOL    HW125370   6.509  12.863   5.877
74491SOL    HW225371   6.393  12.960   5.870
74492SOL     OW25372   7.398   1.787   9.076
74492SOL    HW125373   7.379   1.880   9.070
74492SOL    HW225374   7.490   1.779   9.051
74493SOL     OW25375   2.286   8.877   3.339
74493SOL    HW125376   2.362   8.833   3.377
74493SOL    HW225377   2.314   8.900   3.250
74494SOL     OW25378   0.956   0.952   9.785
74494SOL    HW125379   1.003   0.931   9.866
74494SOL    HW225380   0.999   0.899   9.718
74495SOL     OW25381   5.676  13.108   9.019
74495SOL    HW125382   5.612  13.141   9.083
74495SOL    HW225383   5.680  13.014   9.037
74496SOL     OW25384   9.635   4.867   9.226
74496SOL    HW125385   9.640   4.962   9.237
74496SOL    HW225386   9.571   4.838   9.291
74497SOL     OW25387   9.231  10.433  14.447
74497SOL    HW125388   9.275  10.472  14.371
74497SOL    HW225389   9.239  10.338  14.433
74498SOL     OW25390  11.711  14.384   1.615
74498SOL    HW125391  11.778  14.320   1.589
74498SOL    HW225392  11.639  14.369   1.553
74499SOL     OW25393  11.696  12.296   2.594
74499SOL    HW125394  11.672  12.337   2.677
74499SOL    HW225395  11.677  12.203   2.607
74500SOL     OW25396   4.185   8.007   0.946
74500SOL    HW125397   4.195   8.085   1.000
74500SOL    HW225398   4.251   7.946   0.979
74501SOL     OW25399   1.716  12.758   3.740
74501SOL    HW125400   1.640  12.815   3.726
74501SOL    HW225401   1.686  12.694   3.804
74502SOL     OW25402   6.158   3.335   0.039
74502SOL    HW125403   6.075   3.349  14.860
74502SOL    HW225404   6.153   3.244   0.068
74503SOL     OW25405   4.162   0.128   4.655
74503SOL    HW125406   4.232   0.164   4.599
74503SOL    HW225407   4.085   0.128   4.599
74504SOL     OW25408  13.731   9.556   8.435
74504SOL    HW125409  13.826   9.551   8.443
74504SOL    HW225410  13.698   9.481   8.484
74505SOL     OW25411  14.098  13.002  13.700
74505SOL    HW125412  14.033  12.933  13.692
74505SOL    HW225413  14.060  13.065  13.761
74506SOL     OW25414  14.022   2.028   8.017
74506SOL    HW125415  14.017   2.081   8.097
74506SOL    HW225416  14.070   1.950   8.044
74507SOL     OW25417   0.099   3.193  13.975
74507SOL    HW125418   0.017   3.169  14.018
74507SOL    HW225419   0.103   3.288  13.982
74508SOL     OW25420  12.515   7.048   2.733
74508SOL    HW125421  12.585   7.051   2.667
74508SOL    HW225422  12.458   6.976   2.704
74509SOL     OW25423   1.298  13.598  13.449
74509SOL    HW125424   1.205  13.575  13.451
74509SOL    HW225425   1.300  13.693  13.458
74510SOL     OW25426   8.515   9.408  12.867
74510SOL    HW125427   8.442   9.360  12.830
74510SOL    HW225428   8.476   9.484  12.909
74511SOL     OW25429   9.949  10.339  14.527
74511SOL    HW125430   9.956  10.336  14.623
74511SOL    HW225431   9.858  10.365  14.512
74512SOL     OW25432   4.786   3.392   2.407
74512SOL    HW125433   4.858   3.342   2.368
74512SOL    HW225434   4.818   3.417   2.494
74513SOL     OW25435   7.260   5.603  10.043
74513SOL    HW125436   7.300   5.572  10.125
74513SOL    HW225437   7.212   5.527  10.009
74514SOL     OW25438  10.298   2.249   6.607
74514SOL    HW125439  10.348   2.231   6.687
74514SOL    HW225440  10.359   2.297   6.551
74515SOL     OW25441   2.654   2.409  14.518
74515SOL    HW125442   2.711   2.446  14.450
74515SOL    HW225443   2.655   2.475  14.588
74516SOL     OW25444   4.033   5.284  13.868
74516SOL    HW125445   4.030   5.192  13.839
74516SOL    HW225446   4.125   5.299  13.891
74517SOL     OW25447   3.849   6.503   6.714
74517SOL    HW125448   3.900   6.545   6.645
74517SOL    HW225449   3.769   6.474   6.671
74518SOL     OW25450  10.730  12.304   3.759
74518SOL    HW125451  10.728  12.247   3.681
74518SOL    HW225452  10.640  12.304   3.791
74519SOL     OW25453  11.096   3.305   8.417
74519SOL    HW125454  11.122   3.253   8.493
74519SOL    HW225455  11.140   3.262   8.343
74520SOL     OW25456   9.156   5.666  10.351
74520SOL    HW125457   9.203   5.650  10.270
74520SOL    HW225458   9.069   5.629  10.336
74521SOL     OW25459   7.442   8.589   6.970
74521SOL    HW125460   7.386   8.566   6.895
74521SOL    HW225461   7.407   8.537   7.042
74522SOL     OW25462   5.059   3.759   6.135
74522SOL    HW125463   4.980   3.768   6.083
74522SOL    HW225464   5.028   3.740   6.224
74523SOL     OW25465   2.652  10.798  13.119
74523SOL    HW125466   2.592  10.764  13.053
74523SOL    HW225467   2.599  10.861  13.169
74524SOL     OW25468   3.215   4.858  13.245
74524SOL    HW125469   3.264   4.792  13.197
74524SOL    HW225470   3.152   4.892  13.182
74525SOL     OW25471  10.679  13.996  10.475
74525SOL    HW125472  10.678  13.937  10.400
74525SOL    HW225473  10.612  13.961  10.534
74526SOL     OW25474  11.725   2.512   2.846
74526SOL    HW125475  11.793   2.444   2.851
74526SOL    HW225476  11.769   2.586   2.805
74527SOL     OW25477  11.462   7.438   7.046
74527SOL    HW125478  11.455   7.445   7.141
74527SOL    HW225479  11.387   7.487   7.012
74528SOL     OW25480   0.111   4.848   3.807
74528SOL    HW125481   0.130   4.938   3.781
74528SOL    HW225482   0.195   4.814   3.837
74529SOL     OW25483  11.875   8.145   9.273
74529SOL    HW125484  11.928   8.065   9.268
74529SOL    HW225485  11.883   8.173   9.364
74530SOL     OW25486   4.112   5.174   3.874
74530SOL    HW125487   4.186   5.116   3.893
74530SOL    HW225488   4.034   5.119   3.889
74531SOL     OW25489   3.633   5.341   4.350
74531SOL    HW125490   3.561   5.381   4.302
74531SOL    HW225491   3.674   5.281   4.288
74532SOL     OW25492   3.582   7.580   2.050
74532SOL    HW125493   3.642   7.516   2.087
74532SOL    HW225494   3.548   7.539   1.971
74533SOL     OW25495  14.377  11.349   0.026
74533SOL    HW125496  14.451  11.403  14.865
74533SOL    HW225497  14.329  11.404   0.088
74534SOL     OW25498  14.542   7.792   2.697
74534SOL    HW125499  14.590   7.870   2.725
74534SOL    HW225500  14.524   7.744   2.778
74535SOL     OW25501   8.926   9.427   2.653
74535SOL    HW125502   8.847   9.481   2.662
74535SOL    HW225503   8.992   9.487   2.619
74536SOL     OW25504   8.648   8.200   5.879
74536SOL    HW125505   8.674   8.126   5.933
74536SOL    HW225506   8.553   8.208   5.893
74537SOL     OW25507   3.255   9.545   8.666
74537SOL    HW125508   3.289   9.483   8.601
74537SOL    HW225509   3.298   9.628   8.644
74538SOL     OW25510   0.313   0.816   4.280
74538SOL    HW125511   0.310   0.884   4.213
74538SOL    HW225512   0.244   0.840   4.343
74539SOL     OW25513  10.737   2.748   4.625
74539SOL    HW125514  10.702   2.688   4.559
74539SOL    HW225515  10.795   2.807   4.576
74540SOL     OW25516   6.669  13.201   8.486
74540SOL    HW125517   6.687  13.112   8.456
74540SOL    HW225518   6.738  13.219   8.550
74541SOL     OW25519   4.132   7.379   9.771
74541SOL    HW125520   4.221   7.376   9.806
74541SOL    HW225521   4.091   7.299   9.804
74542SOL     OW25522   6.969  12.859   3.456
74542SOL    HW125523   6.996  12.876   3.366
74542SOL    HW225524   6.947  12.945   3.491
74543SOL     OW25525  13.790   6.785   3.918
74543SOL    HW125526  13.866   6.742   3.957
74543SOL    HW225527  13.745   6.826   3.992
74544SOL     OW25528   2.389  13.109  10.073
74544SOL    HW125529   2.408  13.022  10.039
74544SOL    HW225530   2.363  13.095  10.164
74545SOL     OW25531   4.864   5.645   0.225
74545SOL    HW125532   4.925   5.584   0.185
74545SOL    HW225533   4.792   5.590   0.256
74546SOL     OW25534   5.709   1.950  11.547
74546SOL    HW125535   5.706   1.862  11.585
74546SOL    HW225536   5.798   1.980  11.563
74547SOL     OW25537  11.544  14.545   4.622
74547SOL    HW125538  11.565  14.458   4.589
74547SOL    HW225539  11.609  14.562   4.690
74548SOL     OW25540  13.565  13.108   3.618
74548SOL    HW125541  13.535  13.116   3.708
74548SOL    HW225542  13.559  13.015   3.598
74549SOL     OW25543   9.932   6.791  14.348
74549SOL    HW125544   9.878   6.859  14.310
74549SOL    HW225545   9.894   6.709  14.315
74550SOL     OW25546   3.872   2.185   8.250
74550SOL    HW125547   3.847   2.152   8.164
74550SOL    HW225548   3.966   2.168   8.257
74551SOL     OW25549   7.948  12.393   4.136
74551SOL    HW125550   7.866  12.432   4.105
74551SOL    HW225551   8.007  12.396   4.061
74552SOL     OW25552   5.931   0.748   1.184
74552SOL    HW125553   5.998   0.770   1.248
74552SOL    HW225554   5.849   0.751   1.233
74553SOL     OW25555  10.715   2.419   2.385
74553SOL    HW125556  10.773   2.349   2.417
74553SOL    HW225557  10.750   2.498   2.425
74554SOL     OW25558  12.714   1.507  10.867
74554SOL    HW125559  12.806   1.523  10.844
74554SOL    HW225560  12.669   1.505  10.782
74555SOL     OW25561   0.983  10.436  14.246
74555SOL    HW125562   1.018  10.469  14.163
74555SOL    HW225563   1.058  10.439  14.306
74556SOL     OW25564   8.777   6.837  10.564
74556SOL    HW125565   8.753   6.745  10.561
74556SOL    HW225566   8.873   6.837  10.571
74557SOL     OW25567   2.030  13.736  14.754
74557SOL    HW125568   2.104  13.797  14.762
74557SOL    HW225569   1.994  13.731  14.843
74558SOL     OW25570  11.589   9.107   1.942
74558SOL    HW125571  11.557   9.111   2.032
74558SOL    HW225572  11.545   9.031   1.904
74559SOL     OW25573   8.851   2.877   9.333
74559SOL    HW125574   8.912   2.908   9.400
74559SOL    HW225575   8.856   2.782   9.337
74560SOL     OW25576   4.850   1.028   1.210
74560SOL    HW125577   4.877   1.095   1.147
74560SOL    HW225578   4.932   0.991   1.242
74561SOL     OW25579   3.658  10.959   2.223
74561SOL    HW125580   3.708  10.933   2.300
74561SOL    HW225581   3.572  10.983   2.257
74562SOL     OW25582   1.575   7.128  13.562
74562SOL    HW125583   1.668   7.146  13.579
74562SOL    HW225584   1.569   7.033  13.561
74563SOL     OW25585   1.336   8.031  11.897
74563SOL    HW125586   1.260   8.082  11.870
74563SOL    HW225587   1.345   7.964  11.829
74564SOL     OW25588   5.291   8.042   9.443
74564SOL    HW125589   5.344   8.055   9.364
74564SOL    HW225590   5.201   8.062   9.415
74565SOL     OW25591  11.803  12.484   4.165
74565SOL    HW125592  11.842  12.397   4.170
74565SOL    HW225593  11.872  12.540   4.130
74566SOL     OW25594   7.737   0.337   3.930
74566SOL    HW125595   7.742   0.303   4.019
74566SOL    HW225596   7.716   0.260   3.876
74567SOL     OW25597   7.743  13.046   8.530
74567SOL    HW125598   7.726  13.022   8.438
74567SOL    HW225599   7.656  13.068   8.564
74568SOL     OW25600   7.069   5.853  14.533
74568SOL    HW125601   7.098   5.781  14.476
74568SOL    HW225602   7.115   5.839  14.615
74569SOL     OW25603  11.578   0.842  13.956
74569SOL    HW125604  11.649   0.847  13.892
74569SOL    HW225605  11.546   0.932  13.964
74570SOL     OW25606   6.998   5.510   9.815
74570SOL    HW125607   7.060   5.447   9.851
74570SOL    HW225608   7.034   5.532   9.729
74571SOL     OW25609   8.224   4.236   1.025
74571SOL    HW125610   8.245   4.284   1.105
74571SOL    HW225611   8.166   4.294   0.977
74572SOL     OW25612   8.907   2.840   2.211
74572SOL    HW125613   8.917   2.870   2.301
74572SOL    HW225614   8.962   2.898   2.159
74573SOL     OW25615   7.593   6.313   3.181
74573SOL    HW125616   7.597   6.397   3.227
74573SOL    HW225617   7.584   6.337   3.089
74574SOL     OW25618  13.294   0.545   5.665
74574SOL    HW125619  13.377   0.593   5.668
74574SOL    HW225620  13.319   0.453   5.672
74575SOL     OW25621  12.574   6.676   5.275
74575SOL    HW125622  12.618   6.606   5.322
74575SOL    HW225623  12.490   6.638   5.248
74576SOL     OW25624  14.625   1.004  11.838
74576SOL    HW125625  14.633   0.935  11.772
74576SOL    HW225626  14.712   1.009  11.879
74577SOL     OW25627   0.489   0.747  10.542
74577SOL    HW125628   0.577   0.782  10.551
74577SOL    HW225629   0.446   0.766  10.625
74578SOL     OW25630   2.308   6.679  11.338
74578SOL    HW125631   2.335   6.592  11.367
74578SOL    HW225632   2.350   6.738  11.401
74579SOL     OW25633   2.381   5.682  12.961
74579SOL    HW125634   2.469   5.693  12.997
74579SOL    HW225635   2.395   5.659  12.869
74580SOL     OW25636   2.972   6.753  12.333
74580SOL    HW125637   3.064   6.768  12.310
74580SOL    HW225638   2.976   6.693  12.408
74581SOL     OW25639  11.228   0.954   2.893
74581SOL    HW125640  11.174   1.010   2.949
74581SOL    HW225641  11.286   0.909   2.954
74582SOL     OW25642  11.033  14.003   7.394
74582SOL    HW125643  11.050  14.091   7.360
74582SOL    HW225644  10.976  13.964   7.328
74583SOL     OW25645   7.445   7.596  12.028
74583SOL    HW125646   7.513   7.555  11.975
74583SOL    HW225647   7.488   7.617  12.111
74584SOL     OW25648   4.718   6.015   8.151
74584SOL    HW125649   4.764   6.095   8.178
74584SOL    HW225650   4.782   5.945   8.166
74585SOL     OW25651  10.436   1.368   8.187
74585SOL    HW125652  10.433   1.295   8.125
74585SOL    HW225653  10.502   1.427   8.150
74586SOL     OW25654  10.650   4.725  13.256
74586SOL    HW125655  10.673   4.752  13.345
74586SOL    HW225656  10.733   4.722  13.209
74587SOL     OW25657   7.379   3.124   8.871
74587SOL    HW125658   7.299   3.135   8.922
74587SOL    HW225659   7.382   3.202   8.815
74588SOL     OW25660  10.210  11.383  14.526
74588SOL    HW125661  10.158  11.307  14.551
74588SOL    HW225662  10.160  11.458  14.557
74589SOL     OW25663   0.136   1.416  13.587
74589SOL    HW125664   0.175   1.465  13.661
74589SOL    HW225665   0.179   1.452  13.510
74590SOL     OW25666  13.860   7.207   0.727
74590SOL    HW125667  13.779   7.189   0.773
74590SOL    HW225668  13.901   7.278   0.777
74591SOL     OW25669   2.027   2.552   2.155
74591SOL    HW125670   2.093   2.539   2.224
74591SOL    HW225671   1.944   2.534   2.199
74592SOL     OW25672  14.393   3.203   3.233
74592SOL    HW125673  14.386   3.299   3.233
74592SOL    HW225674  14.315   3.173   3.187
74593SOL     OW25675  14.647   5.680  12.305
74593SOL    HW125676  14.666   5.707  12.215
74593SOL    HW225677  14.733   5.658  12.341
74594SOL     OW25678   0.355   2.363  11.071
74594SOL    HW125679   0.267   2.366  11.109
74594SOL    HW225680   0.341   2.360  10.976
74595SOL     OW25681  13.878  14.347   2.204
74595SOL    HW125682  13.929  14.414   2.252
74595SOL    HW225683  13.888  14.372   2.112
74596SOL     OW25684   9.598   3.525   6.607
74596SOL    HW125685   9.563   3.593   6.549
74596SOL    HW225686   9.613   3.570   6.690
74597SOL     OW25687   6.446  11.649  13.363
74597SOL    HW125688   6.502  11.611  13.295
74597SOL    HW225689   6.425  11.576  13.421
74598SOL     OW25690   6.616  12.867   3.149
74598SOL    HW125691   6.670  12.908   3.081
74598SOL    HW225692   6.642  12.912   3.230
74599SOL     OW25693   1.407  14.132   7.899
74599SOL    HW125694   1.442  14.182   7.825
74599SOL    HW225695   1.456  14.165   7.975
74600SOL     OW25696   2.085   4.709   1.394
74600SOL    HW125697   1.992   4.726   1.408
74600SOL    HW225698   2.127   4.728   1.478
74601SOL     OW25699  11.864  11.651  13.767
74601SOL    HW125700  11.904  11.564  13.773
74601SOL    HW225701  11.775  11.636  13.736
74602SOL     OW25702  10.232  13.330  12.937
74602SOL    HW125703  10.307  13.272  12.927
74602SOL    HW225704  10.251  13.382  13.015
74603SOL     OW25705   2.795   9.862  11.802
74603SOL    HW125706   2.847   9.894  11.876
74603SOL    HW225707   2.835   9.901  11.725
74604SOL     OW25708   5.788   3.612   7.016
74604SOL    HW125709   5.865   3.663   7.042
74604SOL    HW225710   5.731   3.676   6.972
74605SOL     OW25711   8.454   3.385   2.809
74605SOL    HW125712   8.479   3.394   2.900
74605SOL    HW225713   8.477   3.469   2.769
74606SOL     OW25714   5.840   3.525   2.600
74606SOL    HW125715   5.818   3.433   2.614
74606SOL    HW225716   5.830   3.538   2.505
74607SOL     OW25717   5.037   5.817   6.671
74607SOL    HW125718   5.111   5.762   6.646
74607SOL    HW225719   5.005   5.854   6.588
74608SOL     OW25720  14.040  10.090  12.027
74608SOL    HW125721  14.127  10.127  12.012
74608SOL    HW225722  14.056  10.015  12.086
74609SOL     OW25723   8.727  10.857  11.018
74609SOL    HW125724   8.654  10.810  10.976
74609SOL    HW225725   8.686  10.906  11.089
74610SOL     OW25726   0.726   2.057   2.902
74610SOL    HW125727   0.776   2.035   2.823
74610SOL    HW225728   0.739   2.151   2.914
74611SOL     OW25729   7.308   9.360   9.336
74611SOL    HW125730   7.385   9.306   9.353
74611SOL    HW225731   7.252   9.305   9.280
74612SOL     OW25732  11.435   2.219   8.133
74612SOL    HW125733  11.375   2.147   8.111
74612SOL    HW225734  11.520   2.189   8.102
74613SOL     OW25735   9.322  14.170   0.975
74613SOL    HW125736   9.343  14.116   0.898
74613SOL    HW225737   9.340  14.113   1.050
74614SOL     OW25738   4.441   8.997  14.167
74614SOL    HW125739   4.403   9.045  14.093
74614SOL    HW225740   4.524   8.964  14.135
74615SOL     OW25741   0.956   2.587   8.245
74615SOL    HW125742   0.884   2.641   8.277
74615SOL    HW225743   1.005   2.644   8.186
74616SOL     OW25744  13.359   0.735   3.806
74616SOL    HW125745  13.387   0.643   3.815
74616SOL    HW225746  13.307   0.751   3.885
74617SOL     OW25747  10.547   2.830   1.146
74617SOL    HW125748  10.596   2.748   1.147
74617SOL    HW225749  10.468   2.812   1.198
74618SOL     OW25750   1.206   1.122   8.770
74618SOL    HW125751   1.288   1.162   8.799
74618SOL    HW225752   1.152   1.120   8.849
74619SOL     OW25753   0.916  10.508   0.707
74619SOL    HW125754   0.828  10.546   0.706
74619SOL    HW225755   0.901  10.413   0.711
74620SOL     OW25756   9.472   8.863   1.821
74620SOL    HW125757   9.498   8.946   1.780
74620SOL    HW225758   9.380   8.852   1.797
74621SOL     OW25759   4.588   7.451   2.477
74621SOL    HW125760   4.498   7.472   2.504
74621SOL    HW225761   4.631   7.537   2.469
74622SOL     OW25762  14.784   3.823   7.915
74622SOL    HW125763  14.865   3.862   7.949
74622SOL    HW225764  14.760   3.878   7.840
74623SOL     OW25765   7.560   9.510  12.167
74623SOL    HW125766   7.557   9.485  12.075
74623SOL    HW225767   7.548   9.605  12.167
74624SOL     OW25768   2.433   7.509   4.021
74624SOL    HW125769   2.494   7.445   4.058
74624SOL    HW225770   2.483   7.590   4.018
74625SOL     OW25771  10.218   5.134  12.435
74625SOL    HW125772  10.201   5.204  12.372
74625SOL    HW225773  10.282   5.171  12.495
74626SOL     OW25774   4.292   5.842   6.181
74626SOL    HW125775   4.358   5.781   6.146
74626SOL    HW225776   4.332   5.876   6.261
74627SOL     OW25777   8.356  10.368  14.272
74627SOL    HW125778   8.321  10.290  14.230
74627SOL    HW225779   8.343  10.438  14.208
74628SOL     OW25780   2.486   6.234  13.975
74628SOL    HW125781   2.560   6.269  14.025
74628SOL    HW225782   2.507   6.252  13.884
74629SOL     OW25783  12.617   0.431   6.514
74629SOL    HW125784  12.525   0.440   6.488
74629SOL    HW225785  12.662   0.407   6.433
74630SOL     OW25786   9.726  10.193  14.715
74630SOL    HW125787   9.813  10.231  14.727
74630SOL    HW225788   9.707  10.150  14.799
74631SOL     OW25789   1.541   9.304  14.579
74631SOL    HW125790   1.448   9.282  14.589
74631SOL    HW225791   1.562   9.354  14.658
74632SOL     OW25792  11.085   8.328  10.841
74632SOL    HW125793  11.056   8.383  10.914
74632SOL    HW225794  11.172   8.296  10.867
74633SOL     OW25795  11.909   6.656   6.392
74633SOL    HW125796  11.927   6.745   6.422
74633SOL    HW225797  11.993   6.625   6.357
74634SOL     OW25798   4.138   0.676  11.137
74634SOL    HW125799   4.156   0.597  11.086
74634SOL    HW225800   4.095   0.644  11.217
74635SOL     OW25801   4.020   1.972  10.588
74635SOL    HW125802   3.984   2.061  10.587
74635SOL    HW225803   4.114   1.984  10.573
74636SOL     OW25804  11.275  13.172   8.601
74636SOL    HW125805  11.332  13.103   8.635
74636SOL    HW225806  11.250  13.222   8.678
74637SOL     OW25807  12.786  14.067   2.112
74637SOL    HW125808  12.837  14.047   2.191
74637SOL    HW225809  12.851  14.072   2.042
74638SOL     OW25810  14.545  13.066  10.435
74638SOL    HW125811  14.608  13.128  10.400
74638SOL    HW225812  14.595  13.013  10.498
74639SOL     OW25813   3.634   0.224   5.306
74639SOL    HW125814   3.609   0.311   5.275
74639SOL    HW225815   3.562   0.167   5.279
74640SOL     OW25816  12.830   6.212  10.113
74640SOL    HW125817  12.874   6.225  10.197
74640SOL    HW225818  12.761   6.279  10.112
74641SOL     OW25819   1.197   8.341  10.075
74641SOL    HW125820   1.271   8.400  10.085
74641SOL    HW225821   1.122   8.389  10.109
74642SOL     OW25822   6.940   3.433   0.597
74642SOL    HW125823   6.877   3.496   0.562
74642SOL    HW225824   6.889   3.354   0.614
74643SOL     OW25825   3.970   9.359  11.571
74643SOL    HW125826   3.981   9.422  11.500
74643SOL    HW225827   4.046   9.373  11.628
74644SOL     OW25828  13.977   8.722   9.754
74644SOL    HW125829  13.904   8.675   9.794
74644SOL    HW225830  14.012   8.777   9.824
74645SOL     OW25831   3.753   9.940   4.271
74645SOL    HW125832   3.675   9.940   4.215
74645SOL    HW225833   3.719   9.937   4.360
74646SOL     OW25834   1.195   2.524   6.372
74646SOL    HW125835   1.153   2.539   6.287
74646SOL    HW225836   1.244   2.442   6.359
74647SOL     OW25837   0.987  13.076   6.519
74647SOL    HW125838   1.057  13.110   6.574
74647SOL    HW225839   1.032  13.039   6.443
74648SOL     OW25840   8.600   1.488  10.323
74648SOL    HW125841   8.599   1.405  10.371
74648SOL    HW225842   8.688   1.491  10.285
74649SOL     OW25843   5.857  12.222  10.153
74649SOL    HW125844   5.950  12.232  10.173
74649SOL    HW225845   5.850  12.133  10.117
74650SOL     OW25846  10.749  10.724   7.321
74650SOL    HW125847  10.740  10.775   7.401
74650SOL    HW225848  10.726  10.785   7.250
74651SOL     OW25849   2.803   6.827   2.986
74651SOL    HW125850   2.797   6.732   2.977
74651SOL    HW225851   2.724   6.851   3.035
74652SOL     OW25852   2.829   6.583  14.440
74652SOL    HW125853   2.852   6.557  14.351
74652SOL    HW225854   2.747   6.633  14.431
74653SOL     OW25855   5.197   2.393   3.995
74653SOL    HW125856   5.219   2.334   3.923
74653SOL    HW225857   5.245   2.358   4.071
74654SOL     OW25858   5.043   5.315   4.308
74654SOL    HW125859   4.962   5.366   4.301
74654SOL    HW225860   5.049   5.268   4.225
74655SOL     OW25861   3.230   1.907  13.239
74655SOL    HW125862   3.135   1.899  13.239
74655SOL    HW225863   3.253   1.915  13.146
74656SOL     OW25864   6.345   2.901   1.325
74656SOL    HW125865   6.268   2.861   1.366
74656SOL    HW225866   6.337   2.994   1.345
74657SOL     OW25867  12.074   7.301   0.437
74657SOL    HW125868  12.065   7.354   0.358
74657SOL    HW225869  12.128   7.354   0.496
74658SOL     OW25870   2.159   9.191   1.738
74658SOL    HW125871   2.197   9.174   1.824
74658SOL    HW225872   2.108   9.113   1.718
74659SOL     OW25873  14.653   5.388   8.055
74659SOL    HW125874  14.580   5.450   8.061
74659SOL    HW225875  14.653   5.359   7.964
74660SOL     OW25876   6.242  13.164   1.746
74660SOL    HW125877   6.253  13.075   1.712
74660SOL    HW225878   6.306  13.216   1.698
74661SOL     OW25879  11.370  10.710  10.226
74661SOL    HW125880  11.395  10.621  10.200
74661SOL    HW225881  11.439  10.765  10.190
74662SOL     OW25882   7.392   9.125  11.316
74662SOL    HW125883   7.460   9.166  11.370
74662SOL    HW225884   7.319   9.186  11.318
74663SOL     OW25885   8.318  13.993   8.801
74663SOL    HW125886   8.340  13.972   8.892
74663SOL    HW225887   8.340  14.086   8.791
74664SOL     OW25888   8.689   2.560   5.215
74664SOL    HW125889   8.673   2.500   5.288
74664SOL    HW225890   8.723   2.504   5.146
74665SOL     OW25891  13.334   4.732   2.076
74665SOL    HW125892  13.341   4.815   2.123
74665SOL    HW225893  13.241   4.710   2.079
74666SOL     OW25894   2.360   1.959   8.899
74666SOL    HW125895   2.339   1.866   8.900
74666SOL    HW225896   2.298   1.999   8.960
74667SOL     OW25897   4.696   8.279   6.332
74667SOL    HW125898   4.683   8.372   6.316
74667SOL    HW225899   4.775   8.274   6.385
74668SOL     OW25900  12.981   1.927   4.635
74668SOL    HW125901  13.032   2.006   4.619
74668SOL    HW225902  13.040   1.869   4.682
74669SOL     OW25903  13.015   7.123  13.716
74669SOL    HW125904  13.046   7.166  13.796
74669SOL    HW225905  12.929   7.089  13.740
74670SOL     OW25906  11.153  11.769   6.148
74670SOL    HW125907  11.208  11.735   6.078
74670SOL    HW225908  11.212  11.777   6.223
74671SOL     OW25909  11.974   0.431   1.124
74671SOL    HW125910  11.982   0.517   1.166
74671SOL    HW225911  11.885   0.403   1.144
74672SOL     OW25912  13.122   5.265  13.949
74672SOL    HW125913  13.212   5.294  13.930
74672SOL    HW225914  13.067   5.320  13.894
74673SOL     OW25915   4.351  12.870   6.449
74673SOL    HW125916   4.346  12.857   6.544
74673SOL    HW225917   4.299  12.798   6.412
74674SOL     OW25918  10.166   7.370  12.624
74674SOL    HW125919  10.086   7.419  12.643
74674SOL    HW225920  10.136   7.294  12.574
74675SOL     OW25921  13.070   1.071   3.632
74675SOL    HW125922  13.165   1.076   3.641
74675SOL    HW225923  13.052   1.107   3.545
74676SOL     OW25924   4.198   2.014   8.806
74676SOL    HW125925   4.162   2.011   8.894
74676SOL    HW225926   4.158   1.938   8.762
74677SOL     OW25927  10.275   2.897   7.282
74677SOL    HW125928  10.316   2.975   7.319
74677SOL    HW225929  10.312   2.824   7.332
74678SOL     OW25930   9.165   5.003   7.993
74678SOL    HW125931   9.227   4.930   7.992
74678SOL    HW225932   9.203   5.066   8.054
74679SOL     OW25933  14.618   3.811  11.992
74679SOL    HW125934  14.570   3.762  11.925
74679SOL    HW225935  14.586   3.900  11.984
74680SOL     OW25936   7.747   9.980  11.794
74680SOL    HW125937   7.820   9.926  11.765
74680SOL    HW225938   7.774  10.070  11.774
74681SOL     OW25939  13.085   6.459   4.257
74681SOL    HW125940  13.159   6.450   4.317
74681SOL    HW225941  13.051   6.547   4.274
74682SOL     OW25942   1.650   1.817   6.604
74682SOL    HW125943   1.679   1.879   6.537
74682SOL    HW225944   1.667   1.731   6.565
74683SOL     OW25945  12.088   0.527   9.854
74683SOL    HW125946  12.068   0.591   9.922
74683SOL    HW225947  12.178   0.548   9.826
74684SOL     OW25948  14.766  14.087  10.631
74684SOL    HW125949  14.717  14.088  10.548
74684SOL    HW225950  14.770  13.994  10.654
74685SOL     OW25951  11.330   6.117   9.350
74685SOL    HW125952  11.336   6.162   9.265
74685SOL    HW225953  11.290   6.032   9.329
74686SOL     OW25954  13.802  11.765  13.196
74686SOL    HW125955  13.828  11.792  13.284
74686SOL    HW225956  13.798  11.670  13.201
74687SOL     OW25957   3.546   0.992   9.465
74687SOL    HW125958   3.570   0.980   9.557
74687SOL    HW225959   3.626   0.971   9.416
74688SOL     OW25960   0.903  10.706   6.373
74688SOL    HW125961   0.845  10.749   6.311
74688SOL    HW225962   0.921  10.773   6.439
74689SOL     OW25963   7.657   5.765  13.475
74689SOL    HW125964   7.706   5.809  13.406
74689SOL    HW225965   7.575   5.815  13.481
74690SOL     OW25966   9.466   8.635   3.832
74690SOL    HW125967   9.479   8.648   3.926
74690SOL    HW225968   9.551   8.653   3.793
74691SOL     OW25969   8.104   9.681   1.179
74691SOL    HW125970   8.015   9.707   1.155
74691SOL    HW225971   8.092   9.616   1.248
74692SOL     OW25972   8.023  14.579  10.771
74692SOL    HW125973   8.049  14.635  10.844
74692SOL    HW225974   7.984  14.502  10.812
74693SOL     OW25975   9.971   3.846   0.656
74693SOL    HW125976  10.021   3.906   0.712
74693SOL    HW225977   9.890   3.892   0.638
74694SOL     OW25978  10.447  14.776   1.526
74694SOL    HW125979  10.531  14.757   1.568
74694SOL    HW225980  10.419  14.693   1.489
74695SOL     OW25981   1.888   3.630  13.957
74695SOL    HW125982   1.805   3.664  13.990
74695SOL    HW225983   1.889   3.538  13.983
74696SOL     OW25984  12.232   4.745   2.503
74696SOL    HW125985  12.245   4.831   2.543
74696SOL    HW225986  12.172   4.761   2.430
74697SOL     OW25987   0.446   9.912   6.040
74697SOL    HW125988   0.539   9.903   6.020
74697SOL    HW225989   0.439   9.995   6.086
74698SOL     OW25990   4.075  12.220  13.304
74698SOL    HW125991   4.062  12.142  13.358
74698SOL    HW225992   4.111  12.285  13.365
74699SOL     OW25993   6.970   0.539  13.914
74699SOL    HW125994   6.992   0.560  13.823
74699SOL    HW225995   6.890   0.590  13.932
74700SOL     OW25996   0.924   0.909  12.702
74700SOL    HW125997   0.882   0.878  12.622
74700SOL    HW225998   1.016   0.920  12.678
74701SOL     OW25999  12.795   1.481  11.485
74701SOL    HW126000  12.867   1.477  11.422
74701SOL    HW226001  12.776   1.390  11.507
74702SOL     OW26002   6.587   1.940   5.780
74702SOL    HW126003   6.495   1.923   5.797
74702SOL    HW226004   6.633   1.866   5.820
74703SOL     OW26005   4.902  10.740   0.338
74703SOL    HW126006   4.940  10.667   0.388
74703SOL    HW226007   4.892  10.810   0.403
74704SOL     OW26008   6.035   2.389   5.932
74704SOL    HW126009   5.943   2.371   5.950
74704SOL    HW226010   6.034   2.463   5.872
74705SOL     OW26011   0.721   8.259   9.233
74705SOL    HW126012   0.756   8.296   9.314
74705SOL    HW226013   0.754   8.169   9.231
74706SOL     OW26014  13.112   4.269   0.755
74706SOL    HW126015  13.178   4.213   0.796
74706SOL    HW226016  13.068   4.312   0.828
74707SOL     OW26017   6.817   8.136   5.995
74707SOL    HW126018   6.778   8.146   5.908
74707SOL    HW226019   6.750   8.088   6.044
74708SOL     OW26020  13.800  10.794   4.332
74708SOL    HW126021  13.742  10.869   4.322
74708SOL    HW226022  13.752  10.720   4.293
74709SOL     OW26023   7.724   2.583   4.295
74709SOL    HW126024   7.733   2.488   4.308
74709SOL    HW226025   7.708   2.593   4.201
74710SOL     OW26026   8.175   6.917   0.625
74710SOL    HW126027   8.262   6.882   0.608
74710SOL    HW226028   8.119   6.840   0.632
74711SOL     OW26029   3.073   4.390   5.410
74711SOL    HW126030   3.091   4.389   5.504
74711SOL    HW226031   3.026   4.309   5.394
74712SOL     OW26032   7.612   0.900   2.620
74712SOL    HW126033   7.540   0.937   2.670
74712SOL    HW226034   7.580   0.815   2.589
74713SOL     OW26035  14.183   4.739  10.291
74713SOL    HW126036  14.191   4.829  10.323
74713SOL    HW226037  14.250   4.691  10.339
74714SOL     OW26038  11.037   2.142   0.771
74714SOL    HW126039  11.130   2.144   0.746
74714SOL    HW226040  11.037   2.154   0.865
74715SOL     OW26041  10.813   2.490   6.490
74715SOL    HW126042  10.880   2.516   6.554
74715SOL    HW226043  10.789   2.572   6.446
74716SOL     OW26044   9.211  11.830   4.846
74716SOL    HW126045   9.137  11.769   4.834
74716SOL    HW226046   9.219  11.874   4.761
74717SOL     OW26047   1.539   4.991   1.226
74717SOL    HW126048   1.581   4.925   1.281
74717SOL    HW226049   1.567   4.971   1.137
74718SOL     OW26050   2.800   1.142   2.061
74718SOL    HW126051   2.848   1.069   2.023
74718SOL    HW226052   2.868   1.201   2.094
74719SOL     OW26053  12.171  14.798   2.962
74719SOL    HW126054  12.177  14.827   2.871
74719SOL    HW226055  12.239  14.848   3.008
74720SOL     OW26056  12.033   1.229   6.999
74720SOL    HW126057  12.101   1.216   7.065
74720SOL    HW226058  11.997   1.141   6.986
74721SOL     OW26059   4.819   5.894   6.828
74721SOL    HW126060   4.860   5.970   6.870
74721SOL    HW226061   4.891   5.851   6.782
74722SOL     OW26062   3.488   7.914  10.975
74722SOL    HW126063   3.435   7.857  10.920
74722SOL    HW226064   3.459   7.896  11.064
74723SOL     OW26065   4.339   4.113   1.057
74723SOL    HW126066   4.324   4.206   1.042
74723SOL    HW226067   4.424   4.109   1.102
74724SOL     OW26068   4.023   7.481   6.292
74724SOL    HW126069   4.115   7.458   6.305
74724SOL    HW226070   3.981   7.459   6.376
74725SOL     OW26071   3.915   7.068   7.663
74725SOL    HW126072   3.891   6.979   7.636
74725SOL    HW226073   3.934   7.061   7.756
74726SOL     OW26074   2.047   6.655  12.592
74726SOL    HW126075   2.106   6.669  12.666
74726SOL    HW226076   2.106   6.648  12.516
74727SOL     OW26077   9.168   3.203  14.021
74727SOL    HW126078   9.073   3.218  14.021
74727SOL    HW226079   9.203   3.275  14.073
74728SOL     OW26080  11.800   6.690   8.950
74728SOL    HW126081  11.860   6.707   9.022
74728SOL    HW226082  11.739   6.625   8.985
74729SOL     OW26083   8.453   8.826   4.940
74729SOL    HW126084   8.521   8.807   5.005
74729SOL    HW226085   8.498   8.880   4.874
74730SOL     OW26086  13.520   3.282   5.095
74730SOL    HW126087  13.581   3.209   5.108
74730SOL    HW226088  13.573   3.361   5.110
74731SOL     OW26089  10.192   1.438   5.354
74731SOL    HW126090  10.253   1.367   5.372
74731SOL    HW226091  10.141   1.446   5.434
74732SOL     OW26092   0.126   1.079   1.724
74732SOL    HW126093   0.185   1.021   1.772
74732SOL    HW226094   0.089   1.137   1.791
74733SOL     OW26095   9.333   1.533   7.857
74733SOL    HW126096   9.279   1.479   7.798
74733SOL    HW226097   9.346   1.615   7.810
74734SOL     OW26098   2.159   5.377  11.108
74734SOL    HW126099   2.243   5.330  11.101
74734SOL    HW226100   2.162   5.440  11.036
74735SOL     OW26101  10.107   6.903  11.091
74735SOL    HW126102  10.014   6.889  11.075
74735SOL    HW226103  10.130   6.837  11.156
74736SOL     OW26104   1.325   3.768  11.902
74736SOL    HW126105   1.413   3.746  11.933
74736SOL    HW226106   1.304   3.850  11.947
74737SOL     OW26107   1.641   3.617   5.081
74737SOL    HW126108   1.699   3.677   5.035
74737SOL    HW226109   1.553   3.645   5.055
74738SOL     OW26110  11.324  10.762   7.288
74738SOL    HW126111  11.245  10.733   7.334
74738SOL    HW226112  11.396  10.739   7.347
74739SOL     OW26113   0.135   0.986  13.834
74739SOL    HW126114   0.098   0.940  13.909
74739SOL    HW226115   0.192   0.922  13.792
74740SOL     OW26116   6.526  13.584   5.860
74740SOL    HW126117   6.556  13.511   5.807
74740SOL    HW226118   6.432  13.568   5.873
74741SOL     OW26119   6.895  10.072  11.345
74741SOL    HW126120   6.820  10.025  11.381
74741SOL    HW226121   6.914  10.140  11.409
74742SOL     OW26122   1.543   8.606   7.508
74742SOL    HW126123   1.499   8.636   7.588
74742SOL    HW226124   1.480   8.621   7.438
74743SOL     OW26125  13.808   5.359  13.726
74743SOL    HW126126  13.829   5.359  13.633
74743SOL    HW226127  13.807   5.452  13.750
74744SOL     OW26128  10.057  10.870  11.025
74744SOL    HW126129   9.991  10.937  11.044
74744SOL    HW226130  10.119  10.913  10.967
74745SOL     OW26131   9.069  11.772   4.341
74745SOL    HW126132   9.138  11.706   4.351
74745SOL    HW226133   8.996  11.725   4.303
74746SOL     OW26134   9.922  14.134   1.850
74746SOL    HW126135   9.980  14.195   1.805
74746SOL    HW226136   9.864  14.101   1.781
74747SOL     OW26137   8.420   7.642   2.267
74747SOL    HW126138   8.335   7.631   2.309
74747SOL    HW226139   8.454   7.553   2.257
74748SOL     OW26140  10.457   2.901   5.159
74748SOL    HW126141  10.415   2.962   5.220
74748SOL    HW226142  10.489   2.957   5.088
74749SOL     OW26143  13.357   2.037   9.538
74749SOL    HW126144  13.442   2.001   9.561
74749SOL    HW226145  13.374   2.094   9.463
74750SOL     OW26146  14.447   4.321   6.176
74750SOL    HW126147  14.424   4.411   6.199
74750SOL    HW226148  14.493   4.288   6.253
74751SOL     OW26149   6.943   1.717   1.164
74751SOL    HW126150   7.017   1.724   1.225
74751SOL    HW226151   6.922   1.808   1.143
74752SOL     OW26152   9.047  13.323  12.159
74752SOL    HW126153   9.034  13.240  12.113
74752SOL    HW226154   8.994  13.316  12.238
74753SOL     OW26155   0.619   2.657  11.054
74753SOL    HW126156   0.588   2.605  11.128
74753SOL    HW226157   0.540   2.674  11.002
74754SOL     OW26158   7.644  12.764   3.521
74754SOL    HW126159   7.593  12.799   3.448
74754SOL    HW226160   7.705  12.703   3.479
74755SOL     OW26161  11.508   6.553  10.296
74755SOL    HW126162  11.448   6.600  10.238
74755SOL    HW226163  11.585   6.535  10.241
74756SOL     OW26164  10.580  14.516   5.070
74756SOL    HW126165  10.612  14.477   4.988
74756SOL    HW226166  10.489  14.487   5.076
74757SOL     OW26167  10.450   9.581   0.844
74757SOL    HW126168  10.526   9.524   0.861
74757SOL    HW226169  10.467   9.617   0.757
74758SOL     OW26170  11.375   9.460   9.605
74758SOL    HW126171  11.371   9.531   9.540
74758SOL    HW226172  11.325   9.493   9.680
74759SOL     OW26173  12.336   2.374   3.814
74759SOL    HW126174  12.390   2.414   3.745
74759SOL    HW226175  12.398   2.323   3.866
74760SOL     OW26176  11.294   7.466   1.457
74760SOL    HW126177  11.348   7.479   1.535
74760SOL    HW226178  11.218   7.417   1.488
74761SOL     OW26179   1.805   6.778  12.459
74761SOL    HW126180   1.835   6.730  12.382
74761SOL    HW226181   1.872   6.763  12.525
74762SOL     OW26182   9.369  11.156   1.245
74762SOL    HW126183   9.412  11.207   1.314
74762SOL    HW226184   9.387  11.205   1.165
74763SOL     OW26185   2.516  14.139   5.469
74763SOL    HW126186   2.598  14.187   5.460
74763SOL    HW226187   2.517  14.106   5.558
74764SOL     OW26188   7.848   7.415   8.040
74764SOL    HW126189   7.887   7.460   8.115
74764SOL    HW226190   7.779   7.473   8.011
74765SOL     OW26191  10.651   0.881   4.192
74765SOL    HW126192  10.698   0.801   4.212
74765SOL    HW226193  10.689   0.912   4.110
74766SOL     OW26194  14.665   4.033   0.612
74766SOL    HW126195  14.678   4.096   0.541
74766SOL    HW226196  14.577   4.049   0.644
74767SOL     OW26197   4.343  12.934  12.946
74767SOL    HW126198   4.409  12.876  12.909
74767SOL    HW226199   4.366  13.021  12.914
74768SOL     OW26200   0.476   8.574  11.208
74768SOL    HW126201   0.549   8.521  11.240
74768SOL    HW226202   0.453   8.535  11.124
74769SOL     OW26203  13.271  12.566   6.078
74769SOL    HW126204  13.253  12.476   6.052
74769SOL    HW226205  13.204  12.618   6.033
74770SOL     OW26206   9.076   3.755   8.787
74770SOL    HW126207   9.098   3.666   8.813
74770SOL    HW226208   9.048   3.798   8.868
74771SOL     OW26209   0.326   7.647   4.461
74771SOL    HW126210   0.255   7.690   4.509
74771SOL    HW226211   0.286   7.617   4.379
74772SOL     OW26212   9.220  13.839   3.926
74772SOL    HW126213   9.302  13.889   3.933
74772SOL    HW226214   9.197  13.819   4.017
74773SOL     OW26215  13.717  13.515  12.177
74773SOL    HW126216  13.783  13.530  12.109
74773SOL    HW226217  13.758  13.547  12.258
74774SOL     OW26218   9.432  13.770   6.592
74774SOL    HW126219   9.359  13.709   6.603
74774SOL    HW226220   9.397  13.837   6.533
74775SOL     OW26221   0.618   1.060   4.589
74775SOL    HW126222   0.527   1.050   4.614
74775SOL    HW226223   0.615   1.078   4.495
74776SOL     OW26224   7.463   2.746   4.720
74776SOL    HW126225   7.433   2.684   4.787
74776SOL    HW226226   7.532   2.700   4.673
74777SOL     OW26227  11.020  12.328  13.753
74777SOL    HW126228  11.076  12.350  13.679
74777SOL    HW226229  10.962  12.260  13.720
74778SOL     OW26230   9.241  10.356   8.164
74778SOL    HW126231   9.148  10.346   8.186
74778SOL    HW226232   9.258  10.449   8.176
74779SOL     OW26233  14.097   4.547  10.981
74779SOL    HW126234  14.189   4.558  10.957
74779SOL    HW226235  14.055   4.510  10.903
74780SOL     OW26236   7.917   5.792  14.024
74780SOL    HW126237   7.988   5.848  13.992
74780SOL    HW226238   7.838   5.831  13.988
74781SOL     OW26239   7.754  10.010   3.572
74781SOL    HW126240   7.797  10.009   3.658
74781SOL    HW226241   7.810   9.955   3.517
74782SOL     OW26242   9.125   8.505   6.528
74782SOL    HW126243   9.163   8.499   6.440
74782SOL    HW226244   9.113   8.599   6.543
74783SOL     OW26245   1.910   6.969   2.925
74783SOL    HW126246   1.863   6.886   2.920
74783SOL    HW226247   1.866   7.017   2.996
74784SOL     OW26248  13.006   0.401   9.546
74784SOL    HW126249  13.031   0.485   9.506
74784SOL    HW226250  13.077   0.342   9.523
74785SOL     OW26251  14.218   1.552   7.932
74785SOL    HW126252  14.271   1.630   7.949
74785SOL    HW226253  14.128   1.579   7.948
74786SOL     OW26254  12.083   0.152  10.568
74786SOL    HW126255  12.137   0.168  10.646
74786SOL    HW226256  12.099   0.229  10.513
74787SOL     OW26257  11.524  10.405  13.319
74787SOL    HW126258  11.569  10.330  13.280
74787SOL    HW226259  11.588  10.440  13.382
74788SOL     OW26260  13.644   8.396   0.944
74788SOL    HW126261  13.675   8.476   0.903
74788SOL    HW226262  13.630   8.419   1.036
74789SOL     OW26263  12.061   5.921   1.653
74789SOL    HW126264  12.005   5.968   1.716
74789SOL    HW226265  12.075   5.835   1.694
74790SOL     OW26266  13.174   4.417   4.452
74790SOL    HW126267  13.166   4.339   4.507
74790SOL    HW226268  13.231   4.476   4.502
74791SOL     OW26269  12.865  11.319  10.744
74791SOL    HW126270  12.823  11.396  10.783
74791SOL    HW226271  12.954  11.349  10.724
74792SOL     OW26272   1.345  10.047   5.883
74792SOL    HW126273   1.257  10.008   5.890
74792SOL    HW226274   1.349  10.109   5.956
74793SOL     OW26275   2.349   1.416   5.982
74793SOL    HW126276   2.312   1.403   5.895
74793SOL    HW226277   2.433   1.460   5.967
74794SOL     OW26278   3.157  11.833   8.986
74794SOL    HW126279   3.150  11.754   8.933
74794SOL    HW226280   3.087  11.890   8.953
74795SOL     OW26281   8.826   4.710   1.933
74795SOL    HW126282   8.867   4.778   1.879
74795SOL    HW226283   8.742   4.747   1.959
74796SOL     OW26284   3.286   1.996   1.879
74796SOL    HW126285   3.251   2.085   1.878
74796SOL    HW226286   3.283   1.971   1.971
74797SOL     OW26287   3.099  13.008   2.215
74797SOL    HW126288   3.093  12.931   2.273
74797SOL    HW226289   3.132  12.973   2.133
74798SOL     OW26290   1.088   7.351   2.345
74798SOL    HW126291   1.075   7.257   2.359
74798SOL    HW226292   1.180   7.366   2.367
74799SOL     OW26293   6.637  10.906  10.521
74799SOL    HW126294   6.571  10.925  10.588
74799SOL    HW226295   6.682  10.990  10.508
74800SOL     OW26296   0.461   4.472   7.761
74800SOL    HW126297   0.376   4.482   7.803
74800SOL    HW226298   0.479   4.378   7.764
74801SOL     OW26299  11.669   3.559  12.057
74801SOL    HW126300  11.582   3.522  12.068
74801SOL    HW226301  11.654   3.647  12.023
74802SOL     OW26302  10.327   4.695  14.365
74802SOL    HW126303  10.354   4.670  14.277
74802SOL    HW226304  10.285   4.780  14.354
74803SOL     OW26305  11.159   9.624  14.714
74803SOL    HW126306  11.208   9.703  14.692
74803SOL    HW226307  11.219   9.572  14.766
74804SOL     OW26308   7.099  10.698   0.221
74804SOL    HW126309   7.098  10.726   0.313
74804SOL    HW226310   7.191  10.704   0.196
74805SOL     OW26311  13.161  12.056   6.011
74805SOL    HW126312  13.087  12.078   5.954
74805SOL    HW226313  13.133  11.977   6.056
74806SOL     OW26314   9.408   5.656   3.959
74806SOL    HW126315   9.470   5.621   3.894
74806SOL    HW226316   9.440   5.745   3.976
74807SOL     OW26317   6.587   6.333   5.645
74807SOL    HW126318   6.574   6.249   5.603
74807SOL    HW226319   6.503   6.378   5.636
74808SOL     OW26320  14.108   8.084  13.584
74808SOL    HW126321  14.165   8.046  13.650
74808SOL    HW226322  14.098   8.014  13.519
74809SOL     OW26323   4.558  14.837  13.422
74809SOL    HW126324   4.504  14.804  13.494
74809SOL    HW226325   4.504  14.823  13.344
74810SOL     OW26326  14.207   6.072   3.970
74810SOL    HW126327  14.269   6.089   4.040
74810SOL    HW226328  14.188   6.158   3.932
74811SOL     OW26329   8.080  11.823   4.602
74811SOL    HW126330   8.092  11.732   4.573
74811SOL    HW226331   8.094  11.875   4.523
74812SOL     OW26332  11.253   7.574   4.628
74812SOL    HW126333  11.346   7.561   4.649
74812SOL    HW226334  11.225   7.490   4.591
74813SOL     OW26335   1.882  11.289   2.307
74813SOL    HW126336   1.943  11.312   2.376
74813SOL    HW226337   1.854  11.373   2.270
74814SOL     OW26338   2.855   7.055   8.059
74814SOL    HW126339   2.801   7.072   7.982
74814SOL    HW226340   2.938   7.024   8.024
74815SOL     OW26341  13.289   2.951  10.002
74815SOL    HW126342  13.213   3.007   9.994
74815SOL    HW226343  13.298   2.910   9.916
74816SOL     OW26344  11.554  11.860   7.831
74816SOL    HW126345  11.532  11.859   7.738
74816SOL    HW226346  11.472  11.881   7.876
74817SOL     OW26347  13.328   6.124   5.946
74817SOL    HW126348  13.250   6.069   5.935
74817SOL    HW226349  13.309   6.202   5.894
74818SOL     OW26350   0.126   4.173   0.802
74818SOL    HW126351   0.086   4.086   0.797
74818SOL    HW226352   0.199   4.170   0.741
74819SOL     OW26353  13.043   9.385   4.401
74819SOL    HW126354  12.993   9.463   4.426
74819SOL    HW226355  13.058   9.395   4.307
74820SOL     OW26356   3.098   8.356  14.252
74820SOL    HW126357   3.176   8.335  14.303
74820SOL    HW226358   3.103   8.451  14.239
74821SOL     OW26359   4.449   4.649   1.155
74821SOL    HW126360   4.419   4.610   1.073
74821SOL    HW226361   4.491   4.577   1.203
74822SOL     OW26362  11.240   6.297   0.232
74822SOL    HW126363  11.197   6.257   0.157
74822SOL    HW226364  11.275   6.224   0.283
74823SOL     OW26365   9.073   1.382   6.708
74823SOL    HW126366   9.023   1.304   6.687
74823SOL    HW226367   9.096   1.420   6.623
74824SOL     OW26368   1.246  14.002  12.314
74824SOL    HW126369   1.309  13.930  12.306
74824SOL    HW226370   1.246  14.024  12.407
74825SOL     OW26371   3.660  11.376   1.536
74825SOL    HW126372   3.668  11.341   1.447
74825SOL    HW226373   3.684  11.468   1.527
74826SOL     OW26374   1.918   4.049  12.366
74826SOL    HW126375   2.005   4.090  12.368
74826SOL    HW226376   1.934   3.957  12.387
74827SOL     OW26377   6.638   4.205  13.354
74827SOL    HW126378   6.707   4.141  13.371
74827SOL    HW226379   6.678   4.289  13.377
74828SOL     OW26380   7.126   3.724   3.480
74828SOL    HW126381   7.115   3.819   3.479
74828SOL    HW226382   7.114   3.698   3.389
74829SOL     OW26383  14.570   8.391   4.041
74829SOL    HW126384  14.587   8.346   3.959
74829SOL    HW226385  14.483   8.361   4.067
74830SOL     OW26386   6.921   4.119   8.544
74830SOL    HW126387   6.884   4.062   8.611
74830SOL    HW226388   6.908   4.208   8.579
74831SOL     OW26389   7.371   8.418   5.052
74831SOL    HW126390   7.276   8.425   5.044
74831SOL    HW226391   7.396   8.491   5.109
74832SOL     OW26392   6.648   8.954   3.732
74832SOL    HW126393   6.709   9.001   3.676
74832SOL    HW226394   6.673   8.862   3.725
74833SOL     OW26395  13.281   0.836  10.560
74833SOL    HW126396  13.279   0.790  10.475
74833SOL    HW226397  13.278   0.929  10.537
74834SOL     OW26398   8.242   8.092   7.198
74834SOL    HW126399   8.337   8.100   7.191
74834SOL    HW226400   8.221   8.131   7.282
74835SOL     OW26401   8.039   9.594   8.423
74835SOL    HW126402   8.071   9.648   8.496
74835SOL    HW226403   8.117   9.579   8.369
74836SOL     OW26404   2.164  14.559   4.267
74836SOL    HW126405   2.082  14.545   4.219
74836SOL    HW226406   2.233  14.529   4.208
74837SOL     OW26407  11.457   7.795   8.054
74837SOL    HW126408  11.534   7.845   8.079
74837SOL    HW226409  11.465   7.712   8.101
74838SOL     OW26410   7.472  10.513  11.622
74838SOL    HW126411   7.536  10.488  11.688
74838SOL    HW226412   7.409  10.568  11.668
74839SOL     OW26413   4.900   9.838   9.418
74839SOL    HW126414   4.960   9.772   9.451
74839SOL    HW226415   4.838   9.853   9.489
74840SOL     OW26416   3.531   6.736   2.558
74840SOL    HW126417   3.559   6.671   2.623
74840SOL    HW226418   3.612   6.775   2.527
74841SOL     OW26419   7.219   7.734   3.284
74841SOL    HW126420   7.125   7.734   3.265
74841SOL    HW226421   7.226   7.688   3.367
74842SOL     OW26422  10.754  13.781   5.595
74842SOL    HW126423  10.678  13.839   5.594
74842SOL    HW226424  10.725  13.703   5.547
74843SOL     OW26425   3.565   4.944  10.853
74843SOL    HW126426   3.533   4.860  10.819
74843SOL    HW226427   3.658   4.929  10.869
74844SOL     OW26428   9.171  13.164   1.489
74844SOL    HW126429   9.260  13.200   1.482
74844SOL    HW226430   9.141  13.193   1.575
74845SOL     OW26431   4.661   2.925   6.321
74845SOL    HW126432   4.584   2.918   6.264
74845SOL    HW226433   4.625   2.941   6.408
74846SOL     OW26434   9.865   5.235  11.021
74846SOL    HW126435   9.811   5.225  11.099
74846SOL    HW226436   9.812   5.289  10.962
74847SOL     OW26437  10.458   5.086   0.155
74847SOL    HW126438  10.387   5.137   0.117
74847SOL    HW226439  10.529   5.149   0.168
74848SOL     OW26440   2.808   0.237   7.554
74848SOL    HW126441   2.821   0.160   7.499
74848SOL    HW226442   2.848   0.215   7.637
74849SOL     OW26443  11.025   4.415   9.472
74849SOL    HW126444  10.942   4.463   9.469
74849SOL    HW226445  11.082   4.470   9.524
74850SOL     OW26446   0.108  14.812   5.302
74850SOL    HW126447   0.030  14.817   5.358
74850SOL    HW226448   0.169  14.757   5.351
74851SOL     OW26449   9.098   4.831   9.364
74851SOL    HW126450   9.167   4.770   9.338
74851SOL    HW226451   9.033   4.824   9.294
74852SOL     OW26452  10.131   2.970  11.570
74852SOL    HW126453  10.153   2.964  11.477
74852SOL    HW226454  10.197   3.029  11.606
74853SOL     OW26455   2.890   4.970   2.412
74853SOL    HW126456   2.911   5.030   2.340
74853SOL    HW226457   2.861   4.890   2.369
74854SOL     OW26458   0.091   0.799  11.293
74854SOL    HW126459   0.078   0.720  11.347
74854SOL    HW226460   0.156   0.773  11.228
74855SOL     OW26461   2.508   8.473  10.514
74855SOL    HW126462   2.458   8.551  10.490
74855SOL    HW226463   2.441   8.405  10.528
74856SOL     OW26464   5.947  11.541   5.633
74856SOL    HW126465   5.886  11.487   5.683
74856SOL    HW226466   5.955  11.622   5.683
74857SOL     OW26467   9.288  12.262  14.034
74857SOL    HW126468   9.375  12.300  14.046
74857SOL    HW226469   9.282  12.195  14.102
74858SOL     OW26470   0.677   0.023   8.749
74858SOL    HW126471   0.651   0.045   8.660
74858SOL    HW226472   0.740   0.092   8.773
74859SOL     OW26473   1.774  12.780  10.933
74859SOL    HW126474   1.750  12.733  11.013
74859SOL    HW226475   1.754  12.871  10.952
74860SOL     OW26476  12.456   0.056   1.959
74860SOL    HW126477  12.391  14.858   1.982
74860SOL    HW226478  12.520   0.053   2.030
74861SOL     OW26479   3.329  12.980  10.728
74861SOL    HW126480   3.254  13.007  10.674
74861SOL    HW226481   3.406  13.001  10.675
74862SOL     OW26482   6.581   9.893  13.295
74862SOL    HW126483   6.495   9.934  13.285
74862SOL    HW226484   6.595   9.846  13.213
74863SOL     OW26485   7.837  13.469  13.413
74863SOL    HW126486   7.873  13.395  13.463
74863SOL    HW226487   7.756  13.435  13.376
74864SOL     OW26488   2.361  12.131  12.763
74864SOL    HW126489   2.321  12.061  12.711
74864SOL    HW226490   2.300  12.146  12.835
74865SOL     OW26491  14.026   2.354  11.480
74865SOL    HW126492  14.013   2.356  11.575
74865SOL    HW226493  14.120   2.368  11.469
74866SOL     OW26494   2.318  14.591  13.551
74866SOL    HW126495   2.243  14.586  13.492
74866SOL    HW226496   2.312  14.677  13.592
74867SOL     OW26497  14.544   1.254   1.080
74867SOL    HW126498  14.536   1.336   1.031
74867SOL    HW226499  14.587   1.194   1.019
74868SOL     OW26500  11.888   8.245   9.561
74868SOL    HW126501  11.956   8.271   9.624
74868SOL    HW226502  11.844   8.171   9.603
74869SOL     OW26503  10.957  14.800   0.902
74869SOL    HW126504  10.966  14.824   0.995
74869SOL    HW226505  10.898  14.866   0.866
74870SOL     OW26506   4.209   9.081  11.546
74870SOL    HW126507   4.251   9.151  11.496
74870SOL    HW226508   4.156   9.034  11.483
74871SOL     OW26509   2.619   4.761   6.459
74871SOL    HW126510   2.586   4.847   6.431
74871SOL    HW226511   2.543   4.703   6.451
74872SOL     OW26512   1.172  11.783   4.102
74872SOL    HW126513   1.158  11.718   4.033
74872SOL    HW226514   1.090  11.833   4.105
74873SOL     OW26515  11.873   1.812   3.898
74873SOL    HW126516  11.933   1.886   3.910
74873SOL    HW226517  11.872   1.769   3.984
74874SOL     OW26518  14.096   1.987   1.603
74874SOL    HW126519  14.032   1.982   1.531
74874SOL    HW226520  14.167   1.929   1.576
74875SOL     OW26521  11.453  10.008  10.247
74875SOL    HW126522  11.434  10.025  10.339
74875SOL    HW226523  11.431   9.916  10.235
74876SOL     OW26524  13.649   1.533   2.544
74876SOL    HW126525  13.569   1.572   2.508
74876SOL    HW226526  13.700   1.608   2.575
74877SOL     OW26527  12.469   2.115  14.367
74877SOL    HW126528  12.565   2.116  14.377
74877SOL    HW226529  12.454   2.155  14.281
74878SOL     OW26530   0.380  14.677   7.817
74878SOL    HW126531   0.360  14.717   7.902
74878SOL    HW226532   0.385  14.583   7.834
74879SOL     OW26533  11.184   8.312   2.520
74879SOL    HW126534  11.090   8.324   2.511
74879SOL    HW226535  11.198   8.291   2.612
74880SOL     OW26536   3.371   1.296   6.100
74880SOL    HW126537   3.428   1.340   6.163
74880SOL    HW226538   3.319   1.235   6.153
74881SOL     OW26539   2.928   0.782   8.961
74881SOL    HW126540   2.979   0.857   8.931
74881SOL    HW226541   2.990   0.709   8.958
74882SOL     OW26542  14.585  10.131   8.668
74882SOL    HW126543  14.619  10.069   8.733
74882SOL    HW226544  14.566  10.210   8.717
74883SOL     OW26545  14.190   5.914  14.394
74883SOL    HW126546  14.125   5.972  14.435
74883SOL    HW226547  14.221   5.859  14.466
74884SOL     OW26548   9.503  14.258   1.423
74884SOL    HW126549   9.421  14.293   1.387
74884SOL    HW226550   9.535  14.327   1.480
74885SOL     OW26551  11.852  12.422   5.734
74885SOL    HW126552  11.855  12.515   5.710
74885SOL    HW226553  11.815  12.421   5.822
74886SOL     OW26554   5.705   9.318   9.096
74886SOL    HW126555   5.734   9.230   9.071
74886SOL    HW226556   5.621   9.329   9.051
74887SOL     OW26557   9.997  12.391   0.481
74887SOL    HW126558   9.941  12.313   0.488
74887SOL    HW226559   9.992  12.416   0.388
74888SOL     OW26560   9.124  11.060   4.693
74888SOL    HW126561   9.173  11.092   4.617
74888SOL    HW226562   9.186  11.003   4.739
74889SOL     OW26563  12.694   3.193   1.689
74889SOL    HW126564  12.777   3.162   1.725
74889SOL    HW226565  12.649   3.112   1.663
74890SOL     OW26566  10.164   3.669   9.101
74890SOL    HW126567  10.242   3.698   9.148
74890SOL    HW226568  10.196   3.646   9.014
74891SOL     OW26569   9.070   9.163  13.547
74891SOL    HW126570   9.121   9.124  13.477
74891SOL    HW226571   9.022   9.234  13.505
74892SOL     OW26572  12.146   4.643   8.272
74892SOL    HW126573  12.053   4.666   8.277
74892SOL    HW226574  12.157   4.574   8.337
74893SOL     OW26575   4.475   1.363  14.173
74893SOL    HW126576   4.536   1.356  14.247
74893SOL    HW226577   4.408   1.298  14.192
74894SOL     OW26578  10.216   2.648  10.059
74894SOL    HW126579  10.295   2.610  10.019
74894SOL    HW226580  10.249   2.712  10.122
74895SOL     OW26581   5.882   0.383   4.687
74895SOL    HW126582   5.909   0.396   4.597
74895SOL    HW226583   5.957   0.338   4.728
74896SOL     OW26584  11.433   2.190  12.516
74896SOL    HW126585  11.432   2.115  12.456
74896SOL    HW226586  11.342   2.219  12.519
74897SOL     OW26587   1.139   4.513   4.381
74897SOL    HW126588   1.180   4.565   4.312
74897SOL    HW226589   1.212   4.466   4.421
74898SOL     OW26590   2.213   9.896   6.542
74898SOL    HW126591   2.132   9.852   6.516
74898SOL    HW226592   2.203   9.985   6.510
74899SOL     OW26593  13.604   1.277   7.496
74899SOL    HW126594  13.686   1.273   7.447
74899SOL    HW226595  13.561   1.356   7.465
74900SOL     OW26596   5.372  10.242  12.800
74900SOL    HW126597   5.449  10.187  12.788
74900SOL    HW226598   5.385  10.314  12.738
74901SOL     OW26599   1.425  14.727  12.882
74901SOL    HW126600   1.418  14.667  12.807
74901SOL    HW226601   1.464  14.806  12.845
74902SOL     OW26602   5.307   8.993  10.668
74902SOL    HW126603   5.268   8.982  10.755
74902SOL    HW226604   5.386   9.044  10.683
74903SOL     OW26605   2.975   7.380  12.414
74903SOL    HW126606   2.944   7.418  12.497
74903SOL    HW226607   3.062   7.418  12.401
74904SOL     OW26608   1.945  12.686   5.818
74904SOL    HW126609   1.925  12.762   5.872
74904SOL    HW226610   2.008  12.636   5.869
74905SOL     OW26611  13.852   5.868  10.363
74905SOL    HW126612  13.791   5.865  10.289
74905SOL    HW226613  13.796   5.863  10.440
74906SOL     OW26614   5.487  13.312   4.365
74906SOL    HW126615   5.478  13.217   4.360
74906SOL    HW226616   5.468  13.343   4.276
74907SOL     OW26617  10.102   2.580  11.048
74907SOL    HW126618  10.078   2.502  11.098
74907SOL    HW226619  10.136   2.546  10.966
74908SOL     OW26620   9.757   4.838   8.162
74908SOL    HW126621   9.832   4.821   8.106
74908SOL    HW226622   9.773   4.786   8.241
74909SOL     OW26623   5.696   0.104   0.846
74909SOL    HW126624   5.647   0.030   0.810
74909SOL    HW226625   5.787   0.082   0.829
74910SOL     OW26626   5.042   0.581   5.082
74910SOL    HW126627   5.026   0.663   5.035
74910SOL    HW226628   5.130   0.592   5.119
74911SOL     OW26629   5.299  13.012  12.240
74911SOL    HW126630   5.342  13.080  12.187
74911SOL    HW226631   5.257  13.060  12.312
74912SOL     OW26632   0.070   2.831   6.791
74912SOL    HW126633   0.098   2.889   6.720
74912SOL    HW226634   0.017   2.887   6.847
74913SOL     OW26635   8.453  10.606  13.024
74913SOL    HW126636   8.491  10.692  13.042
74913SOL    HW226637   8.422  10.611  12.934
74914SOL     OW26638   6.433   9.431  14.304
74914SOL    HW126639   6.511   9.486  14.311
74914SOL    HW226640   6.391   9.437  14.390
74915SOL     OW26641   7.295  13.863   7.522
74915SOL    HW126642   7.379  13.818   7.526
74915SOL    HW226643   7.302  13.935   7.585
74916SOL     OW26644   1.897   6.827   1.388
74916SOL    HW126645   1.870   6.907   1.433
74916SOL    HW226646   1.917   6.766   1.459
74917SOL     OW26647   0.225   8.616   2.884
74917SOL    HW126648   0.146   8.602   2.832
74917SOL    HW226649   0.275   8.535   2.875
74918SOL     OW26650  11.690  13.654  10.824
74918SOL    HW126651  11.747  13.699  10.762
74918SOL    HW226652  11.670  13.720  10.891
74919SOL     OW26653  13.578   6.868   2.755
74919SOL    HW126654  13.653   6.922   2.779
74919SOL    HW226655  13.512   6.887   2.821
74920SOL     OW26656  12.659  11.660  12.836
74920SOL    HW126657  12.705  11.721  12.894
74920SOL    HW226658  12.691  11.574  12.861
74921SOL     OW26659   0.551  12.703   3.047
74921SOL    HW126660   0.562  12.654   3.128
74921SOL    HW226661   0.640  12.722   3.017
74922SOL     OW26662   5.560  11.166   4.965
74922SOL    HW126663   5.523  11.190   5.050
74922SOL    HW226664   5.646  11.129   4.987
74923SOL     OW26665   4.780  10.362   6.817
74923SOL    HW126666   4.711  10.390   6.757
74923SOL    HW226667   4.834  10.303   6.764
74924SOL     OW26668   4.108   1.220  14.031
74924SOL    HW126669   4.153   1.177  13.958
74924SOL    HW226670   4.055   1.289  13.990
74925SOL     OW26671  12.854   5.508  12.144
74925SOL    HW126672  12.918   5.525  12.213
74925SOL    HW226673  12.788   5.577  12.155
74926SOL     OW26674  13.163   0.510  12.882
74926SOL    HW126675  13.089   0.482  12.936
74926SOL    HW226676  13.195   0.589  12.925
74927SOL     OW26677   1.637   3.592   3.100
74927SOL    HW126678   1.680   3.637   3.028
74927SOL    HW226679   1.704   3.585   3.168
74928SOL     OW26680   4.858  13.910   0.321
74928SOL    HW126681   4.877  13.823   0.355
74928SOL    HW226682   4.797  13.948   0.385
74929SOL     OW26683   1.171   9.001  11.925
74929SOL    HW126684   1.191   8.993  11.831
74929SOL    HW226685   1.198   9.090  11.948
74930SOL     OW26686  11.700   3.116   3.514
74930SOL    HW126687  11.728   3.025   3.501
74930SOL    HW226688  11.764   3.168   3.465
74931SOL     OW26689   7.843   3.852  11.514
74931SOL    HW126690   7.815   3.941  11.490
74931SOL    HW226691   7.909   3.865  11.582
74932SOL     OW26692  10.817   1.138  10.699
74932SOL    HW126693  10.883   1.107  10.761
74932SOL    HW226694  10.845   1.227  10.677
74933SOL     OW26695   7.922   9.934  12.526
74933SOL    HW126696   7.935   9.999  12.457
74933SOL    HW226697   8.001   9.880  12.523
74934SOL     OW26698   1.499  13.289   1.552
74934SOL    HW126699   1.527  13.198   1.548
74934SOL    HW226700   1.475  13.303   1.644
74935SOL     OW26701   9.385  10.936  14.012
74935SOL    HW126702   9.322  11.005  14.032
74935SOL    HW226703   9.469  10.971  14.043
74936SOL     OW26704   4.776   4.893   6.892
74936SOL    HW126705   4.694   4.905   6.940
74936SOL    HW226706   4.787   4.975   6.843
74937SOL     OW26707   7.204  12.466  12.109
74937SOL    HW126708   7.190  12.509  12.024
74937SOL    HW226709   7.293  12.433  12.104
74938SOL     OW26710   6.678  14.538   4.521
74938SOL    HW126711   6.632  14.577   4.595
74938SOL    HW226712   6.608  14.499   4.468
74939SOL     OW26713   0.068   4.322   2.840
74939SOL    HW126714   0.118   4.246   2.810
74939SOL    HW226715   0.049   4.372   2.760
74940SOL     OW26716   1.280   9.213   7.822
74940SOL    HW126717   1.325   9.181   7.901
74940SOL    HW226718   1.289   9.141   7.759
74941SOL     OW26719   0.862  10.726  10.028
74941SOL    HW126720   0.895  10.700  10.114
74941SOL    HW226721   0.857  10.822  10.033
74942SOL     OW26722   2.758  11.109   3.219
74942SOL    HW126723   2.770  11.067   3.134
74942SOL    HW226724   2.708  11.045   3.270
74943SOL     OW26725   1.701   4.628   5.460
74943SOL    HW126726   1.779   4.643   5.513
74943SOL    HW226727   1.682   4.535   5.472
74944SOL     OW26728  12.754  14.158   6.694
74944SOL    HW126729  12.829  14.218   6.703
74944SOL    HW226730  12.792  14.076   6.662
74945SOL     OW26731   1.908   0.481  13.540
74945SOL    HW126732   1.988   0.430  13.531
74945SOL    HW226733   1.866   0.474  13.454
74946SOL     OW26734   1.198  10.416  13.052
74946SOL    HW126735   1.240  10.429  13.137
74946SOL    HW226736   1.124  10.477  13.052
74947SOL     OW26737   2.396  12.794   2.574
74947SOL    HW126738   2.479  12.751   2.555
74947SOL    HW226739   2.331  12.724   2.569
74948SOL     OW26740  11.473  12.518   5.261
74948SOL    HW126741  11.410  12.447   5.257
74948SOL    HW226742  11.557  12.475   5.280
74949SOL     OW26743   1.146   6.243   4.084
74949SOL    HW126744   1.057   6.276   4.077
74949SOL    HW226745   1.201   6.317   4.058
74950SOL     OW26746   9.836   0.364   7.663
74950SOL    HW126747   9.840   0.338   7.755
74950SOL    HW226748   9.743   0.383   7.648
74951SOL     OW26749  14.820   8.220   6.028
74951SOL    HW126750  14.733   8.210   6.066
74951SOL    HW226751  14.818   8.307   5.988
74952SOL     OW26752   8.665   0.504   3.812
74952SOL    HW126753   8.749   0.547   3.797
74952SOL    HW226754   8.655   0.443   3.738
74953SOL     OW26755   6.954   3.754   1.370
74953SOL    HW126756   6.895   3.714   1.433
74953SOL    HW226757   6.986   3.681   1.317
74954SOL     OW26758  14.285  10.914  10.548
74954SOL    HW126759  14.290  10.996  10.498
74954SOL    HW226760  14.375  10.881  10.547
74955SOL     OW26761   0.105   5.026   9.390
74955SOL    HW126762   0.168   5.002   9.458
74955SOL    HW226763   0.148   5.097   9.342
74956SOL     OW26764   0.232  12.482   5.574
74956SOL    HW126765   0.184  12.418   5.521
74956SOL    HW226766   0.241  12.559   5.518
74957SOL     OW26767   1.145   0.112   2.651
74957SOL    HW126768   1.141   0.018   2.633
74957SOL    HW226769   1.218   0.121   2.712
74958SOL     OW26770   6.631   8.223   1.004
74958SOL    HW126771   6.708   8.223   0.947
74958SOL    HW226772   6.590   8.138   0.989
74959SOL     OW26773   1.215   6.670  14.757
74959SOL    HW126774   1.270   6.635  14.688
74959SOL    HW226775   1.191   6.758  14.727
74960SOL     OW26776  13.154  12.188  13.395
74960SOL    HW126777  13.153  12.257  13.462
74960SOL    HW226778  13.235  12.201  13.347
74961SOL     OW26779   8.576   1.070   8.702
74961SOL    HW126780   8.536   1.135   8.759
74961SOL    HW226781   8.540   1.088   8.615
74962SOL     OW26782  14.368  11.605   7.154
74962SOL    HW126783  14.438  11.629   7.094
74962SOL    HW226784  14.390  11.649   7.236
74963SOL     OW26785   5.030  11.521   8.537
74963SOL    HW126786   4.983  11.468   8.601
74963SOL    HW226787   5.054  11.460   8.467
74964SOL     OW26788   9.434  10.845   7.182
74964SOL    HW126789   9.430  10.941   7.185
74964SOL    HW226790   9.343  10.817   7.184
74965SOL     OW26791  12.653   2.698   6.493
74965SOL    HW126792  12.605   2.761   6.548
74965SOL    HW226793  12.734   2.683   6.541
74966SOL     OW26794  10.248   2.455   8.258
74966SOL    HW126795  10.332   2.498   8.241
74966SOL    HW226796  10.271   2.376   8.307
74967SOL     OW26797   9.285   2.476   3.650
74967SOL    HW126798   9.251   2.527   3.576
74967SOL    HW226799   9.282   2.386   3.620
74968SOL     OW26800   5.647   8.767  12.302
74968SOL    HW126801   5.601   8.824  12.240
74968SOL    HW226802   5.719   8.821  12.335
74969SOL     OW26803   4.167   5.894  12.259
74969SOL    HW126804   4.187   5.971  12.312
74969SOL    HW226805   4.222   5.824  12.295
74970SOL     OW26806  14.560  13.275  13.478
74970SOL    HW126807  14.562  13.339  13.408
74970SOL    HW226808  14.608  13.316  13.550
74971SOL     OW26809   9.115  12.909  13.263
74971SOL    HW126810   9.094  12.999  13.237
74971SOL    HW226811   9.198  12.890  13.219
74972SOL     OW26812   0.054  13.990  13.494
74972SOL    HW126813   0.032  13.901  13.468
74972SOL    HW226814   0.057  14.039  13.412
74973SOL     OW26815   5.374  14.770  13.471
74973SOL    HW126816   5.438  14.832  13.506
74973SOL    HW226817   5.378  14.695  13.530
74974SOL     OW26818  10.865   9.639  10.543
74974SOL    HW126819  10.933   9.706  10.548
74974SOL    HW226820  10.810   9.666  10.470
74975SOL     OW26821  14.817  13.953   5.651
74975SOL    HW126822  14.737  14.000   5.628
74975SOL    HW226823  14.788  13.881   5.706
74976SOL     OW26824   2.975  12.628   4.190
74976SOL    HW126825   3.014  12.551   4.149
74976SOL    HW226826   2.976  12.609   4.284
74977SOL     OW26827   4.876  11.764  10.467
74977SOL    HW126828   4.819  11.701  10.422
74977SOL    HW226829   4.916  11.815  10.397
74978SOL     OW26830   8.189   4.106   3.444
74978SOL    HW126831   8.111   4.113   3.499
74978SOL    HW226832   8.207   4.196   3.417
74979SOL     OW26833   1.948  11.408   5.054
74979SOL    HW126834   1.853  11.403   5.040
74979SOL    HW226835   1.961  11.494   5.094
74980SOL     OW26836   0.037   9.279   0.380
74980SOL    HW126837   0.042   9.247   0.289
74980SOL    HW226838   0.124   9.315   0.397
74981SOL     OW26839   1.129   9.213   9.990
74981SOL    HW126840   1.096   9.296  10.024
74981SOL    HW226841   1.109   9.149  10.058
74982SOL     OW26842  14.327   8.522   2.124
74982SOL    HW126843  14.401   8.532   2.065
74982SOL    HW226844  14.256   8.490   2.069
74983SOL     OW26845   8.900  10.880  13.806
74983SOL    HW126846   8.896  10.795  13.851
74983SOL    HW226847   8.822  10.881  13.750
74984SOL     OW26848   1.519  13.964   7.208
74984SOL    HW126849   1.459  13.918   7.149
74984SOL    HW226850   1.606  13.948   7.170
74985SOL     OW26851   8.513  14.484   3.815
74985SOL    HW126852   8.578  14.445   3.757
74985SOL    HW226853   8.481  14.561   3.767
74986SOL     OW26854   7.152  12.896   9.875
74986SOL    HW126855   7.146  12.841   9.953
74986SOL    HW226856   7.223  12.857   9.824
74987SOL     OW26857   7.966  13.787   0.097
74987SOL    HW126858   8.055  13.782   0.132
74987SOL    HW226859   7.973  13.847   0.022
74988SOL     OW26860   7.800   0.786   1.326
74988SOL    HW126861   7.841   0.870   1.346
74988SOL    HW226862   7.792   0.785   1.231
74989SOL     OW26863   6.558   6.593   1.494
74989SOL    HW126864   6.468   6.568   1.513
74989SOL    HW226865   6.574   6.668   1.552
74990SOL     OW26866  11.278  12.875   5.324
74990SOL    HW126867  11.366  12.852   5.294
74990SOL    HW226868  11.243  12.793   5.360
74991SOL     OW26869   3.668   6.645   7.434
74991SOL    HW126870   3.648   6.725   7.386
74991SOL    HW226871   3.758   6.657   7.464
74992SOL     OW26872   4.603   2.471  12.797
74992SOL    HW126873   4.527   2.426  12.836
74992SOL    HW226874   4.590   2.563  12.820
74993SOL     OW26875   7.596  10.591   5.778
74993SOL    HW126876   7.614  10.669   5.727
74993SOL    HW226877   7.645  10.521   5.734
74994SOL     OW26878   9.846   6.815  13.774
74994SOL    HW126879   9.794   6.743  13.808
74994SOL    HW226880   9.820   6.823  13.682
74995SOL     OW26881   4.122   7.234   1.901
74995SOL    HW126882   4.032   7.267   1.911
74995SOL    HW226883   4.147   7.206   1.989
74996SOL     OW26884   6.295  14.588   2.400
74996SOL    HW126885   6.368  14.546   2.445
74996SOL    HW226886   6.219  14.569   2.455
74997SOL     OW26887   2.510   1.946   6.437
74997SOL    HW126888   2.481   1.893   6.363
74997SOL    HW226889   2.469   1.905   6.513
74998SOL     OW26890   6.045  12.515   6.997
74998SOL    HW126891   5.996  12.553   6.924
74998SOL    HW226892   6.133  12.500   6.963
74999SOL     OW26893   5.073  11.980   2.996
74999SOL    HW126894   5.153  11.943   2.958
74999SOL    HW226895   5.061  11.932   3.078
75000SOL     OW26896   2.558  11.400   3.995
75000SOL    HW126897   2.484  11.403   4.056
75000SOL    HW226898   2.530  11.341   3.926
75001SOL     OW26899   5.404  11.922   4.155
75001SOL    HW126900   5.405  12.005   4.201
75001SOL    HW226901   5.423  11.945   4.064
75002SOL     OW26902   5.830   9.381   6.940
75002SOL    HW126903   5.793   9.398   6.854
75002SOL    HW226904   5.755   9.353   6.993
75003SOL     OW26905  12.122   6.591   3.279
75003SOL    HW126906  12.196   6.636   3.239
75003SOL    HW226907  12.149   6.578   3.370
75004SOL     OW26908   8.355  13.578  12.916
75004SOL    HW126909   8.370  13.506  12.855
75004SOL    HW226910   8.293  13.543  12.980
75005SOL     OW26911   1.786   7.466  12.861
75005SOL    HW126912   1.852   7.399  12.843
75005SOL    HW226913   1.707   7.416  12.884
75006SOL     OW26914  13.920   9.623  10.339
75006SOL    HW126915  13.862   9.592  10.408
75006SOL    HW226916  13.989   9.671  10.386
75007SOL     OW26917   8.484  10.422   2.935
75007SOL    HW126918   8.571  10.457   2.914
75007SOL    HW226919   8.443  10.406   2.850
75008SOL     OW26920  12.650   1.820   8.946
75008SOL    HW126921  12.699   1.747   8.907
75008SOL    HW226922  12.642   1.797   9.039
75009SOL     OW26923  13.044   3.582   8.483
75009SOL    HW126924  13.099   3.658   8.462
75009SOL    HW226925  12.955   3.613   8.467
75010SOL     OW26926   3.175   6.142   6.191
75010SOL    HW126927   3.224   6.218   6.221
75010SOL    HW226928   3.106   6.179   6.135
75011SOL     OW26929   2.641  11.255   1.752
75011SOL    HW126930   2.570  11.246   1.815
75011SOL    HW226931   2.682  11.338   1.774
75012SOL     OW26932  13.886  13.505   8.184
75012SOL    HW126933  13.939  13.583   8.170
75012SOL    HW226934  13.892  13.488   8.278
75013SOL     OW26935   0.905  11.827   6.533
75013SOL    HW126936   0.869  11.913   6.510
75013SOL    HW226937   0.861  11.805   6.616
75014SOL     OW26938   4.716   1.987  13.586
75014SOL    HW126939   4.725   1.917  13.651
75014SOL    HW226940   4.628   2.022  13.600
75015SOL     OW26941   0.311   8.602   5.262
75015SOL    HW126942   0.273   8.689   5.276
75015SOL    HW226943   0.372   8.614   5.188
75016SOL     OW26944   9.667  13.276  14.150
75016SOL    HW126945   9.720  13.198  14.130
75016SOL    HW226946   9.595  13.243  14.203
75017SOL     OW26947   7.732   6.631  10.828
75017SOL    HW126948   7.791   6.585  10.768
75017SOL    HW226949   7.721   6.717  10.789
75018SOL     OW26950   1.781   4.671   4.738
75018SOL    HW126951   1.764   4.617   4.816
75018SOL    HW226952   1.863   4.637   4.702
75019SOL     OW26953   2.949   4.044  11.932
75019SOL    HW126954   2.911   3.962  11.902
75019SOL    HW226955   3.036   4.047  11.891
75020SOL     OW26956   4.883  14.036  11.687
75020SOL    HW126957   4.845  13.969  11.630
75020SOL    HW226958   4.877  14.117  11.637
75021SOL     OW26959   1.532  14.426  12.836
75021SOL    HW126960   1.487  14.474  12.766
75021SOL    HW226961   1.490  14.456  12.916
75022SOL     OW26962  11.080   4.561   0.190
75022SOL    HW126963  11.055   4.552   0.282
75022SOL    HW226964  10.998   4.581   0.145
75023SOL     OW26965   0.264   7.418   5.981
75023SOL    HW126966   0.331   7.433   6.047
75023SOL    HW226967   0.182   7.413   6.031
75024SOL     OW26968  14.511   2.133  13.041
75024SOL    HW126969  14.594   2.177  13.059
75024SOL    HW226970  14.449   2.174  13.100
75025SOL     OW26971   1.459   8.959   7.877
75025SOL    HW126972   1.497   9.039   7.912
75025SOL    HW226973   1.440   8.980   7.785
75026SOL     OW26974  11.977   2.288   5.081
75026SOL    HW126975  12.040   2.339   5.131
75026SOL    HW226976  11.953   2.345   5.007
75027SOL     OW26977   3.218   7.308  14.543
75027SOL    HW126978   3.202   7.214  14.542
75027SOL    HW226979   3.222   7.332  14.451
75028SOL     OW26980   3.737   2.596   1.411
75028SOL    HW126981   3.654   2.641   1.427
75028SOL    HW226982   3.804   2.662   1.424
75029SOL     OW26983  13.325  13.722   2.192
75029SOL    HW126984  13.385  13.657   2.157
75029SOL    HW226985  13.342  13.801   2.141
75030SOL     OW26986  13.573   0.941   3.758
75030SOL    HW126987  13.534   0.858   3.783
75030SOL    HW226988  13.505   1.007   3.775
75031SOL     OW26989   8.149   3.911   8.896
75031SOL    HW126990   8.076   3.923   8.836
75031SOL    HW226991   8.221   3.962   8.859
75032SOL     OW26992   9.238   9.674   0.595
75032SOL    HW126993   9.232   9.701   0.503
75032SOL    HW226994   9.298   9.600   0.594
75033SOL     OW26995   6.940   3.357  14.593
75033SOL    HW126996   6.986   3.275  14.580
75033SOL    HW226997   6.967   3.386  14.680
75034SOL     OW26998  11.204  12.112   7.031
75034SOL    HW126999  11.243  12.062   7.103
75034SOL    HW227000  11.144  12.173   7.074
75035SOL     OW27001  10.036   7.527   8.337
75035SOL    HW127002  10.008   7.585   8.266
75035SOL    HW227003   9.970   7.539   8.405
75036SOL     OW27004   9.788   3.699   6.806
75036SOL    HW127005   9.866   3.727   6.854
75036SOL    HW227006   9.785   3.604   6.818
75037SOL     OW27007   7.789   3.761   7.105
75037SOL    HW127008   7.754   3.720   7.185
75037SOL    HW227009   7.772   3.855   7.117
75038SOL     OW27010   0.304   1.697   2.930
75038SOL    HW127011   0.234   1.631   2.922
75038SOL    HW227012   0.271   1.758   2.995
75039SOL     OW27013   9.555  10.136  10.313
75039SOL    HW127014   9.553  10.086  10.231
75039SOL    HW227015   9.552  10.069  10.381
75040SOL     OW27016  12.446  11.228  10.249
75040SOL    HW127017  12.440  11.323  10.254
75040SOL    HW227018  12.440  11.208  10.156
75041SOL     OW27019   6.524   5.510  11.505
75041SOL    HW127020   6.594   5.537  11.565
75041SOL    HW227021   6.533   5.569  11.430
75042SOL     OW27022   2.080   2.833  10.289
75042SOL    HW127023   2.130   2.834  10.371
75042SOL    HW227024   2.120   2.763  10.238
75043SOL     OW27025   5.220   0.383   1.968
75043SOL    HW127026   5.138   0.378   1.919
75043SOL    HW227027   5.197   0.433   2.047
75044SOL     OW27028   4.472  10.876   5.456
75044SOL    HW127029   4.554  10.845   5.494
75044SOL    HW227030   4.459  10.963   5.494
75045SOL     OW27031   0.444  13.165  13.128
75045SOL    HW127032   0.388  13.237  13.099
75045SOL    HW227033   0.384  13.103  13.169
75046SOL     OW27034   8.750   9.434  13.983
75046SOL    HW127035   8.790   9.348  13.971
75046SOL    HW227036   8.709   9.454  13.899
75047SOL     OW27037  10.288  10.862  14.771
75047SOL    HW127038  10.307  10.914  14.693
75047SOL    HW227039  10.271  10.774  14.738
75048SOL     OW27040  12.592   5.827  11.707
75048SOL    HW127041  12.498   5.824  11.689
75048SOL    HW227042  12.633   5.805  11.623
75049SOL     OW27043  14.744  10.301   2.292
75049SOL    HW127044  14.720  10.392   2.277
75049SOL    HW227045  14.839  10.299   2.283
75050SOL     OW27046  12.493   6.270  10.960
75050SOL    HW127047  12.406   6.282  10.922
75050SOL    HW227048  12.535   6.355  10.953
75051SOL     OW27049  13.133   7.572   2.131
75051SOL    HW127050  13.154   7.591   2.222
75051SOL    HW227051  13.037   7.575   2.127
75052SOL     OW27052   8.591  13.109  12.765
75052SOL    HW127053   8.555  13.047  12.701
75052SOL    HW227054   8.587  13.062  12.848
75053SOL     OW27055   5.430   6.410   5.788
75053SOL    HW127056   5.399   6.361   5.712
75053SOL    HW227057   5.388   6.367   5.862
75054SOL     OW27058   9.663   6.794   3.276
75054SOL    HW127059   9.675   6.887   3.260
75054SOL    HW227060   9.728   6.772   3.343
75055SOL     OW27061   1.515   2.088   0.976
75055SOL    HW127062   1.467   2.101   1.058
75055SOL    HW227063   1.559   2.172   0.961
75056SOL     OW27064  11.509  14.256   6.847
75056SOL    HW127065  11.468  14.208   6.775
75056SOL    HW227066  11.585  14.202   6.871
75057SOL     OW27067   6.969   9.614  12.324
75057SOL    HW127068   7.000   9.600  12.235
75057SOL    HW227069   7.006   9.542  12.375
75058SOL     OW27070   7.398  10.096  12.437
75058SOL    HW127071   7.488  10.098  12.469
75058SOL    HW227072   7.365  10.185  12.452
75059SOL     OW27073   7.669   2.249  14.826
75059SOL    HW127074   7.764   2.242  14.817
75059SOL    HW227075   7.639   2.281  14.741
75060SOL     OW27076   2.585  11.125  13.485
75060SOL    HW127077   2.626  11.205  13.518
75060SOL    HW227078   2.495  11.130  13.517
75061SOL     OW27079   7.581   6.572   8.966
75061SOL    HW127080   7.542   6.520   8.896
75061SOL    HW227081   7.667   6.533   8.981
75062SOL     OW27082  11.717   9.513   5.033
75062SOL    HW127083  11.701   9.484   5.123
75062SOL    HW227084  11.759   9.439   4.991
75063SOL     OW27085  11.203   8.521   5.876
75063SOL    HW127086  11.116   8.510   5.837
75063SOL    HW227087  11.254   8.448   5.841
75064SOL     OW27088   0.170  10.760   9.945
75064SOL    HW127089   0.075  10.749   9.951
75064SOL    HW227090   0.194  10.717   9.863
75065SOL     OW27091   6.433   9.287  14.061
75065SOL    HW127092   6.512   9.234  14.057
75065SOL    HW227093   6.434   9.325  14.149
75066SOL     OW27094   0.496   4.818   7.978
75066SOL    HW127095   0.425   4.864   7.933
75066SOL    HW227096   0.451   4.761   8.040
75067SOL     OW27097  12.781   4.636  11.625
75067SOL    HW127098  12.728   4.636  11.545
75067SOL    HW227099  12.736   4.697  11.684
75068SOL     OW27100   5.884   8.739   7.638
75068SOL    HW127101   5.795   8.737   7.674
75068SOL    HW227102   5.922   8.655   7.666
75069SOL     OW27103   0.030  10.865   7.678
75069SOL    HW127104   0.014  10.790   7.620
75069SOL    HW227105   0.051  10.825   7.763
75070SOL     OW27106   8.207  13.719   7.621
75070SOL    HW127107   8.245  13.726   7.534
75070SOL    HW227108   8.133  13.658   7.610
75071SOL     OW27109   7.686   7.737   0.348
75071SOL    HW127110   7.725   7.815   0.388
75071SOL    HW227111   7.761   7.682   0.326
75072SOL     OW27112   8.305   6.536   5.245
75072SOL    HW127113   8.296   6.497   5.332
75072SOL    HW227114   8.397   6.559   5.238
75073SOL     OW27115   7.344   3.682   6.877
75073SOL    HW127116   7.317   3.774   6.879
75073SOL    HW227117   7.270   3.637   6.836
75074SOL     OW27118   1.304   1.448   5.639
75074SOL    HW127119   1.314   1.396   5.559
75074SOL    HW227120   1.366   1.520   5.628
75075SOL     OW27121   1.285  13.404   5.291
75075SOL    HW127122   1.263  13.497   5.294
75075SOL    HW227123   1.287  13.383   5.197
75076SOL     OW27124   2.646  10.371   7.839
75076SOL    HW127125   2.673  10.393   7.928
75076SOL    HW227126   2.676  10.281   7.826
75077SOL     OW27127   6.515   0.625   1.112
75077SOL    HW127128   6.590   0.567   1.102
75077SOL    HW227129   6.452   0.594   1.047
75078SOL     OW27130  11.196   8.830  14.455
75078SOL    HW127131  11.290   8.826  14.469
75078SOL    HW227132  11.183   8.906  14.398
75079SOL     OW27133   9.219   9.163   5.939
75079SOL    HW127134   9.298   9.115   5.963
75079SOL    HW227135   9.239   9.255   5.958
75080SOL     OW27136   0.502   5.303   1.931
75080SOL    HW127137   0.437   5.312   1.862
75080SOL    HW227138   0.452   5.308   2.013
75081SOL     OW27139  12.837   8.548  10.006
75081SOL    HW127140  12.879   8.521  10.087
75081SOL    HW227141  12.847   8.643  10.003
75082SOL     OW27142   3.947   4.731  13.904
75082SOL    HW127143   3.974   4.664  13.841
75082SOL    HW227144   4.026   4.746  13.956
75083SOL     OW27145   5.199   5.478  13.980
75083SOL    HW127146   5.289   5.446  13.987
75083SOL    HW227147   5.149   5.421  14.038
75084SOL     OW27148   1.976   4.750   0.863
75084SOL    HW127149   2.051   4.692   0.871
75084SOL    HW227150   1.919   4.726   0.937
75085SOL     OW27151   6.503  13.276   6.365
75085SOL    HW127152   6.595  13.302   6.360
75085SOL    HW227153   6.471  13.283   6.274
75086SOL     OW27154  11.557  11.425   5.754
75086SOL    HW127155  11.620  11.417   5.825
75086SOL    HW227156  11.477  11.386   5.788
75087SOL     OW27157   9.995   2.481   7.494
75087SOL    HW127158  10.048   2.462   7.416
75087SOL    HW227159   9.909   2.506   7.459
75088SOL     OW27160   2.393   0.645   9.206
75088SOL    HW127161   2.473   0.684   9.241
75088SOL    HW227162   2.334   0.638   9.282
75089SOL     OW27163   1.200   7.686  14.824
75089SOL    HW127164   1.248   7.741  14.762
75089SOL    HW227165   1.108   7.712  14.813
75090SOL     OW27166  14.748   8.255  10.980
75090SOL    HW127167  14.693   8.311  10.925
75090SOL    HW227168  14.830   8.247  10.931
75091SOL     OW27169  10.194  10.466  10.116
75091SOL    HW127170  10.274  10.455  10.065
75091SOL    HW227171  10.206  10.413  10.194
75092SOL     OW27172   8.639   7.905  12.754
75092SOL    HW127173   8.549   7.899  12.788
75092SOL    HW227174   8.694   7.893  12.831
75093SOL     OW27175  10.634   8.564  14.195
75093SOL    HW127176  10.549   8.580  14.153
75093SOL    HW227177  10.622   8.481  14.241
75094SOL     OW27178   2.612  12.746   2.255
75094SOL    HW127179   2.582  12.659   2.280
75094SOL    HW227180   2.618  12.795   2.337
75095SOL     OW27181   6.042   8.381   6.110
75095SOL    HW127182   6.087   8.459   6.078
75095SOL    HW227183   6.004   8.340   6.032
75096SOL     OW27184   6.178   3.359   5.269
75096SOL    HW127185   6.132   3.416   5.330
75096SOL    HW227186   6.234   3.418   5.219
75097SOL     OW27187   0.014   9.522   8.902
75097SOL    HW127188  14.830   9.538   8.980
75097SOL    HW227189  14.843   9.444   8.863
75098SOL     OW27190  11.891   4.663   8.566
75098SOL    HW127191  11.889   4.657   8.470
75098SOL    HW227192  11.939   4.585   8.594
75099SOL     OW27193  13.219   8.877  11.707
75099SOL    HW127194  13.126   8.899  11.695
75099SOL    HW227195  13.228   8.790  11.668
75100SOL     OW27196   6.872  13.081   2.694
75100SOL    HW127197   6.820  13.156   2.724
75100SOL    HW227198   6.949  13.120   2.653
75101SOL     OW27199   5.021   3.631   5.126
75101SOL    HW127200   5.096   3.690   5.136
75101SOL    HW227201   4.945   3.686   5.142
75102SOL     OW27202   0.394   9.953  14.160
75102SOL    HW127203   0.449   9.916  14.092
75102SOL    HW227204   0.455   9.971  14.232
75103SOL     OW27205   7.515   7.561   8.478
75103SOL    HW127206   7.492   7.469   8.467
75103SOL    HW227207   7.607   7.565   8.452
75104SOL     OW27208  14.582   6.718   3.891
75104SOL    HW127209  14.605   6.807   3.864
75104SOL    HW227210  14.666   6.673   3.903
75105SOL     OW27211   4.697  10.258  10.907
75105SOL    HW127212   4.734  10.179  10.867
75105SOL    HW227213   4.643  10.296  10.838
75106SOL     OW27214  12.937   5.110   9.870
75106SOL    HW127215  12.905   5.153   9.950
75106SOL    HW227216  12.877   5.037   9.856
75107SOL     OW27217   3.924   6.998   7.936
75107SOL    HW127218   3.882   7.053   8.002
75107SOL    HW227219   3.941   6.915   7.981
75108SOL     OW27220   5.005   9.746  11.116
75108SOL    HW127221   4.978   9.661  11.150
75108SOL    HW227222   5.099   9.737  11.101
75109SOL     OW27223   4.637   0.274   7.330
75109SOL    HW127224   4.642   0.336   7.402
75109SOL    HW227225   4.727   0.267   7.298
75110SOL     OW27226   9.991  12.674   4.367
75110SOL    HW127227   9.965  12.593   4.411
75110SOL    HW227228   9.912  12.727   4.367
75111SOL     OW27229   0.856  12.151   4.399
75111SOL    HW127230   0.843  12.059   4.375
75111SOL    HW227231   0.932  12.179   4.348
75112SOL     OW27232   1.843   2.158  11.386
75112SOL    HW127233   1.912   2.169  11.320
75112SOL    HW227234   1.815   2.067  11.378
75113SOL     OW27235   4.523  13.674   5.257
75113SOL    HW127236   4.511  13.630   5.341
75113SOL    HW227237   4.503  13.766   5.275
75114SOL     OW27238  12.824  11.596   5.989
75114SOL    HW127239  12.817  11.539   6.065
75114SOL    HW227240  12.750  11.657   5.998
75115SOL     OW27241   0.296  14.197  12.877
75115SOL    HW127242   0.215  14.200  12.926
75115SOL    HW227243   0.311  14.287  12.849
75116SOL     OW27244   1.393   6.764   2.186
75116SOL    HW127245   1.363   6.790   2.099
75116SOL    HW227246   1.338   6.689   2.209
75117SOL     OW27247   2.441  10.695   6.189
75117SOL    HW127248   2.397  10.779   6.193
75117SOL    HW227249   2.513  10.708   6.127
75118SOL     OW27250  13.182  11.196   9.472
75118SOL    HW127251  13.164  11.290   9.480
75118SOL    HW227252  13.266  11.192   9.426
75119SOL     OW27253   2.320  10.472   9.965
75119SOL    HW127254   2.316  10.552   9.913
75119SOL    HW227255   2.383  10.491  10.034
75120SOL     OW27256   3.302   2.910  12.507
75120SOL    HW127257   3.303   3.003  12.525
75120SOL    HW227258   3.286   2.868  12.591
75121SOL     OW27259  13.542   4.218   5.364
75121SOL    HW127260  13.491   4.251   5.439
75121SOL    HW227261  13.633   4.236   5.388
75122SOL     OW27262   1.433   4.600  13.767
75122SOL    HW127263   1.349   4.559  13.746
75122SOL    HW227264   1.433   4.608  13.862
75123SOL     OW27265   5.411   1.780   4.605
75123SOL    HW127266   5.370   1.761   4.520
75123SOL    HW227267   5.415   1.696   4.650
75124SOL     OW27268   7.412   7.289  13.868
75124SOL    HW127269   7.340   7.299  13.806
75124SOL    HW227270   7.455   7.375  13.867
75125SOL     OW27271   3.830  12.295   6.363
75125SOL    HW127272   3.832  12.377   6.414
75125SOL    HW227273   3.798  12.230   6.424
75126SOL     OW27274   1.616   2.389   7.446
75126SOL    HW127275   1.640   2.356   7.533
75126SOL    HW227276   1.603   2.483   7.459
75127SOL     OW27277   0.910  11.348   4.657
75127SOL    HW127278   0.947  11.433   4.637
75127SOL    HW227279   0.837  11.367   4.716
75128SOL     OW27280   2.183   8.649   3.748
75128SOL    HW127281   2.181   8.738   3.713
75128SOL    HW227282   2.120   8.601   3.694
75129SOL     OW27283  10.988   7.960   8.741
75129SOL    HW127284  10.987   7.905   8.819
75129SOL    HW227285  11.078   7.956   8.709
75130SOL     OW27286  10.209   0.753   1.417
75130SOL    HW127287  10.240   0.760   1.327
75130SOL    HW227288  10.255   0.822   1.465
75131SOL     OW27289  13.409   9.797  14.663
75131SOL    HW127290  13.418   9.882  14.705
75131SOL    HW227291  13.429   9.734  14.733
75132SOL     OW27292   8.036   9.865  11.084
75132SOL    HW127293   8.038   9.926  11.158
75132SOL    HW227294   8.129   9.846  11.066
75133SOL     OW27295  11.026   3.842  11.472
75133SOL    HW127296  10.952   3.829  11.413
75133SOL    HW227297  11.088   3.773  11.448
75134SOL     OW27298   6.685  11.195   0.078
75134SOL    HW127299   6.759  11.219   0.135
75134SOL    HW227300   6.609  11.236   0.119
75135SOL     OW27301   9.797   3.460  14.557
75135SOL    HW127302   9.809   3.426  14.468
75135SOL    HW227303   9.746   3.393  14.602
75136SOL     OW27304  11.081   3.113  12.045
75136SOL    HW127305  11.143   3.043  12.069
75136SOL    HW227306  11.019   3.116  12.118
75137SOL     OW27307   7.594   5.855   3.178
75137SOL    HW127308   7.626   5.930   3.227
75137SOL    HW227309   7.565   5.892   3.094
75138SOL     OW27310   1.546   4.751  11.643
75138SOL    HW127311   1.542   4.798  11.726
75138SOL    HW227312   1.517   4.662  11.665
75139SOL     OW27313   1.360   7.119  10.127
75139SOL    HW127314   1.298   7.059  10.168
75139SOL    HW227315   1.437   7.066  10.109
75140SOL     OW27316   1.443   9.375   3.523
75140SOL    HW127317   1.387   9.306   3.557
75140SOL    HW227318   1.386   9.425   3.464
75141SOL     OW27319  14.406   3.937   7.342
75141SOL    HW127320  14.431   3.849   7.316
75141SOL    HW227321  14.340   3.924   7.410
75142SOL     OW27322   7.606  10.527   7.816
75142SOL    HW127323   7.515  10.523   7.845
75142SOL    HW227324   7.616  10.453   7.757
75143SOL     OW27325   6.381  10.804  10.277
75143SOL    HW127326   6.407  10.853  10.354
75143SOL    HW227327   6.287  10.789  10.288
75144SOL     OW27328   3.547   0.781   5.494
75144SOL    HW127329   3.511   0.856   5.541
75144SOL    HW227330   3.471   0.735   5.460
75145SOL     OW27331  12.308   8.225   8.099
75145SOL    HW127332  12.280   8.270   8.179
75145SOL    HW227333  12.343   8.141   8.130
75146SOL     OW27334   2.449   5.103   4.857
75146SOL    HW127335   2.412   5.021   4.890
75146SOL    HW227336   2.534   5.111   4.899
75147SOL     OW27337   1.035   5.936  13.640
75147SOL    HW127338   0.958   5.879  13.645
75147SOL    HW227339   1.090   5.907  13.712
75148SOL     OW27340   4.134  11.698   0.124
75148SOL    HW127341   4.194  11.630   0.153
75148SOL    HW227342   4.118  11.678   0.031
75149SOL     OW27343   4.846   0.807  12.777
75149SOL    HW127344   4.918   0.775  12.830
75149SOL    HW227345   4.876   0.797  12.686
75150SOL     OW27346   4.775   7.752  11.746
75150SOL    HW127347   4.736   7.783  11.828
75150SOL    HW227348   4.870   7.757  11.761
75151SOL     OW27349   4.558   1.462   0.412
75151SOL    HW127350   4.560   1.450   0.507
75151SOL    HW227351   4.466   1.451   0.389
75152SOL     OW27352  11.997   2.712   0.361
75152SOL    HW127353  12.045   2.795   0.353
75152SOL    HW227354  12.027   2.675   0.444
75153SOL     OW27355  10.309   3.309   8.407
75153SOL    HW127356  10.347   3.276   8.326
75153SOL    HW227357  10.220   3.335   8.384
75154SOL     OW27358   1.966   7.227  14.299
75154SOL    HW127359   2.002   7.301  14.250
75154SOL    HW227360   2.043   7.182  14.334
75155SOL     OW27361  11.347   9.718  14.330
75155SOL    HW127362  11.422   9.705  14.388
75155SOL    HW227363  11.384   9.720  14.242
75156SOL     OW27364  13.032   9.987   8.978
75156SOL    HW127365  13.060  10.031   9.058
75156SOL    HW227366  12.973   9.918   9.008
75157SOL     OW27367  13.621  13.814   9.851
75157SOL    HW127368  13.573  13.790   9.930
75157SOL    HW227369  13.683  13.742   9.838
75158SOL     OW27370   9.231  10.903   3.224
75158SOL    HW127371   9.177  10.980   3.242
75158SOL    HW227372   9.227  10.894   3.128
75159SOL     OW27373   2.797   3.425   6.928
75159SOL    HW127374   2.843   3.457   7.006
75159SOL    HW227375   2.839   3.470   6.855
75160SOL     OW27376   4.341  12.995   3.974
75160SOL    HW127377   4.320  12.949   4.055
75160SOL    HW227378   4.397  13.068   4.001
75161SOL     OW27379   8.066   8.950  11.873
75161SOL    HW127380   8.028   8.894  11.941
75161SOL    HW227381   8.043   9.039  11.900
75162SOL     OW27382   8.766   5.989  13.319
75162SOL    HW127383   8.699   6.057  13.317
75162SOL    HW227384   8.838   6.028  13.369
75163SOL     OW27385   3.594   8.070   7.087
75163SOL    HW127386   3.680   8.035   7.064
75163SOL    HW227387   3.613   8.148   7.138
75164SOL     OW27388   9.055   2.189   5.133
75164SOL    HW127389   9.029   2.120   5.072
75164SOL    HW227390   9.068   2.266   5.078
75165SOL     OW27391   4.086  11.723   3.703
75165SOL    HW127392   4.073  11.818   3.697
75165SOL    HW227393   4.176  11.710   3.676
75166SOL     OW27394  10.921  11.651  12.066
75166SOL    HW127395  10.847  11.668  12.007
75166SOL    HW227396  10.989  11.614  12.010
75167SOL     OW27397   4.202   5.199  13.419
75167SOL    HW127398   4.244   5.143  13.484
75167SOL    HW227399   4.114   5.214  13.453
75168SOL     OW27400   5.002  12.364   3.821
75168SOL    HW127401   4.975  12.281   3.780
75168SOL    HW227402   5.097  12.367   3.810
75169SOL     OW27403   6.144   2.695   3.178
75169SOL    HW127404   6.168   2.771   3.124
75169SOL    HW227405   6.049   2.697   3.181
75170SOL     OW27406  10.751   9.204   6.205
75170SOL    HW127407  10.828   9.195   6.261
75170SOL    HW227408  10.688   9.251   6.259
75171SOL     OW27409  11.244  14.560   4.591
75171SOL    HW127410  11.339  14.557   4.586
75171SOL    HW227411  11.218  14.622   4.522
75172SOL     OW27412   9.667   2.729  14.636
75172SOL    HW127413   9.608   2.677  14.581
75172SOL    HW227414   9.697   2.799  14.579
75173SOL     OW27415   9.312   2.190  13.642
75173SOL    HW127416   9.231   2.157  13.603
75173SOL    HW227417   9.310   2.158  13.732
75174SOL     OW27418  11.633  10.795  13.364
75174SOL    HW127419  11.628  10.810  13.270
75174SOL    HW227420  11.542  10.788  13.393
75175SOL     OW27421  14.541  14.243  11.804
75175SOL    HW127422  14.508  14.283  11.884
75175SOL    HW227423  14.613  14.187  11.833
75176SOL     OW27424   6.386  11.980  10.024
75176SOL    HW127425   6.343  12.055  10.064
75176SOL    HW227426   6.327  11.906  10.040
75177SOL     OW27427   3.115   1.707  11.417
75177SOL    HW127428   3.126   1.764  11.341
75177SOL    HW227429   3.185   1.642  11.408
75178SOL     OW27430   1.934  10.784  13.326
75178SOL    HW127431   1.931  10.688  13.332
75178SOL    HW227432   1.851  10.813  13.363
75179SOL     OW27433  10.802   0.059  10.395
75179SOL    HW127434  10.897   0.053  10.380
75179SOL    HW227435  10.782  14.853  10.452
75180SOL     OW27436   8.975   1.659   0.965
75180SOL    HW127437   8.977   1.731   1.027
75180SOL    HW227438   8.884   1.628   0.967
75181SOL     OW27439  10.448  10.753  13.657
75181SOL    HW127440  10.487  10.821  13.602
75181SOL    HW227441  10.505  10.677  13.643
75182SOL     OW27442   9.007   2.633  13.387
75182SOL    HW127443   9.065   2.693  13.433
75182SOL    HW227444   8.919   2.657  13.417
75183SOL     OW27445   9.939  12.092  12.220
75183SOL    HW127446   9.918  12.182  12.193
75183SOL    HW227447  10.006  12.103  12.288
75184SOL     OW27448  13.062  12.256   7.443
75184SOL    HW127449  13.102  12.197   7.379
75184SOL    HW227450  13.050  12.338   7.395
75185SOL     OW27451   0.805   9.931  10.163
75185SOL    HW127452   0.876   9.961  10.220
75185SOL    HW227453   0.837   9.947  10.075
75186SOL     OW27454   5.751   9.072   2.883
75186SOL    HW127455   5.740   9.106   2.795
75186SOL    HW227456   5.791   8.986   2.871
75187SOL     OW27457   5.969   9.692   1.298
75187SOL    HW127458   6.060   9.662   1.298
75187SOL    HW227459   5.974   9.783   1.327
75188SOL     OW27460   7.714   9.232   6.697
75188SOL    HW127461   7.628   9.237   6.738
75188SOL    HW227462   7.772   9.203   6.768
75189SOL     OW27463   2.789   8.814  11.720
75189SOL    HW127464   2.830   8.781  11.640
75189SOL    HW227465   2.718   8.870  11.689
75190SOL     OW27466  11.611  13.212   7.473
75190SOL    HW127467  11.696  13.179   7.501
75190SOL    HW227468  11.568  13.238   7.554
75191SOL     OW27469   2.599   3.657   9.993
75191SOL    HW127470   2.670   3.594   9.980
75191SOL    HW227471   2.641   3.742   9.988
75192SOL     OW27472   6.234  10.966  13.897
75192SOL    HW127473   6.177  11.033  13.860
75192SOL    HW227474   6.310  11.014  13.930
75193SOL     OW27475   1.023  11.201   8.791
75193SOL    HW127476   0.980  11.136   8.735
75193SOL    HW227477   0.975  11.282   8.774
75194SOL     OW27478   9.580  11.570  13.156
75194SOL    HW127479   9.673  11.546  13.160
75194SOL    HW227480   9.537  11.507  13.213
75195SOL     OW27481  10.778   9.987   0.543
75195SOL    HW127482  10.793   9.893   0.536
75195SOL    HW227483  10.830  10.013   0.620
75196SOL     OW27484   7.211   3.511   0.174
75196SOL    HW127485   7.247   3.571   0.239
75196SOL    HW227486   7.238   3.424   0.203
75197SOL     OW27487  13.754  14.479  12.218
75197SOL    HW127488  13.720  14.569  12.227
75197SOL    HW227489  13.791  14.477  12.130
75198SOL     OW27490   0.010  12.406   6.464
75198SOL    HW127491   0.039  12.494   6.490
75198SOL    HW227492  14.813  12.382   6.530
75199SOL     OW27493  12.880   1.741  14.473
75199SOL    HW127494  12.887   1.685  14.550
75199SOL    HW227495  12.938   1.815  14.491
75200SOL     OW27496  12.322   4.396   4.511
75200SOL    HW127497  12.262   4.335   4.553
75200SOL    HW227498  12.266   4.468   4.481
75201SOL     OW27499   3.954   5.870  13.805
75201SOL    HW127500   3.948   5.796  13.865
75201SOL    HW227501   3.867   5.875  13.765
75202SOL     OW27502  13.350   7.154  12.696
75202SOL    HW127503  13.429   7.198  12.728
75202SOL    HW227504  13.344   7.075  12.750
75203SOL     OW27505  11.633   5.604   4.199
75203SOL    HW127506  11.718   5.571   4.228
75203SOL    HW227507  11.637   5.602   4.104
75204SOL     OW27508   1.388   1.397  14.840
75204SOL    HW127509   1.324   1.458  14.803
75204SOL    HW227510   1.398   1.424   0.063
75205SOL     OW27511   3.882  11.646   4.451
75205SOL    HW127512   3.822  11.576   4.424
75205SOL    HW227513   3.887  11.638   4.546
75206SOL     OW27514   8.222  10.879   1.509
75206SOL    HW127515   8.182  10.945   1.452
75206SOL    HW227516   8.165  10.875   1.586
75207SOL     OW27517  13.586   9.548   3.240
75207SOL    HW127518  13.663   9.551   3.297
75207SOL    HW227519  13.593   9.625   3.185
75208SOL     OW27520   2.399   2.486   2.866
75208SOL    HW127521   2.449   2.404   2.872
75208SOL    HW227522   2.344   2.475   2.789
75209SOL     OW27523   4.653   4.851   9.115
75209SOL    HW127524   4.661   4.772   9.061
75209SOL    HW227525   4.662   4.819   9.205
75210SOL     OW27526   0.809   5.730   9.389
75210SOL    HW127527   0.800   5.755   9.297
75210SOL    HW227528   0.902   5.709   9.399
75211SOL     OW27529   4.185   3.169   6.234
75211SOL    HW127530   4.149   3.109   6.169
75211SOL    HW227531   4.275   3.138   6.248
75212SOL     OW27532   6.211  10.447  13.874
75212SOL    HW127533   6.305  10.461  13.863
75212SOL    HW227534   6.171  10.505  13.809
75213SOL     OW27535   0.928   8.974   6.032
75213SOL    HW127536   0.854   8.918   6.055
75213SOL    HW227537   0.988   8.917   5.984
75214SOL     OW27538   5.568   4.194   2.025
75214SOL    HW127539   5.559   4.113   1.976
75214SOL    HW227540   5.649   4.234   1.994
75215SOL     OW27541  10.155  11.982   8.123
75215SOL    HW127542  10.136  12.003   8.032
75215SOL    HW227543  10.155  12.067   8.167
75216SOL     OW27544  11.657   0.042   4.135
75216SOL    HW127545  11.647   0.023   4.229
75216SOL    HW227546  11.675   0.136   4.132
75217SOL     OW27547   4.550   6.959  14.469
75217SOL    HW127548   4.509   6.875  14.491
75217SOL    HW227549   4.623   6.967  14.531
75218SOL     OW27550   5.078   8.138   7.787
75218SOL    HW127551   4.993   8.140   7.744
75218SOL    HW227552   5.128   8.072   7.738
75219SOL     OW27553   1.393   0.872   2.449
75219SOL    HW127554   1.448   0.948   2.474
75219SOL    HW227555   1.456   0.808   2.416
75220SOL     OW27556   3.798   5.119  13.353
75220SOL    HW127557   3.782   5.027  13.329
75220SOL    HW227558   3.710   5.155  13.367
75221SOL     OW27559   0.651  11.579  11.771
75221SOL    HW127560   0.722  11.642  11.787
75221SOL    HW227561   0.646  11.528  11.852
75222SOL     OW27562  14.843   0.465   4.913
75222SOL    HW127563  14.768   0.509   4.952
75222SOL    HW227564  14.834   0.481   4.819
75223SOL     OW27565  13.139  14.506  10.103
75223SOL    HW127566  13.145  14.507  10.008
75223SOL    HW227567  13.126  14.414  10.126
75224SOL     OW27568  11.457   0.509   7.483
75224SOL    HW127569  11.391   0.562   7.527
75224SOL    HW227570  11.418   0.422   7.477
75225SOL     OW27571   8.062   0.467   1.464
75225SOL    HW127572   7.989   0.529   1.456
75225SOL    HW227573   8.084   0.468   1.557
75226SOL     OW27574   3.483   2.816   2.218
75226SOL    HW127575   3.563   2.843   2.173
75226SOL    HW227576   3.512   2.748   2.280
75227SOL     OW27577  10.378   9.470   8.219
75227SOL    HW127578  10.336   9.384   8.226
75227SOL    HW227579  10.329   9.525   8.281
75228SOL     OW27580   7.538  14.600   1.259
75228SOL    HW127581   7.574  14.684   1.230
75228SOL    HW227582   7.461  14.587   1.204
75229SOL     OW27583   8.181  11.338   4.399
75229SOL    HW127584   8.095  11.303   4.376
75229SOL    HW227585   8.242  11.266   4.379
75230SOL     OW27586   5.468   2.018  10.283
75230SOL    HW127587   5.525   1.947  10.312
75230SOL    HW227588   5.509   2.097  10.319
75231SOL     OW27589   7.027   8.983   1.118
75231SOL    HW127590   7.046   9.074   1.142
75231SOL    HW227591   6.964   8.953   1.184
75232SOL     OW27592   2.672   9.966   7.536
75232SOL    HW127593   2.752   9.967   7.484
75232SOL    HW227594   2.638  10.056   7.530
75233SOL     OW27595   9.446   8.594  13.186
75233SOL    HW127596   9.491   8.673  13.218
75233SOL    HW227597   9.473   8.586  13.095
75234SOL     OW27598   6.325  12.185   6.573
75234SOL    HW127599   6.235  12.187   6.604
75234SOL    HW227600   6.353  12.276   6.573
75235SOL     OW27601   1.350   8.031  14.357
75235SOL    HW127602   1.288   8.051  14.287
75235SOL    HW227603   1.316   8.079  14.433
75236SOL     OW27604   9.649   7.179   6.973
75236SOL    HW127605   9.733   7.133   6.974
75236SOL    HW227606   9.652   7.233   6.894
75237SOL     OW27607   0.185  12.800   3.282
75237SOL    HW127608   0.140  12.719   3.258
75237SOL    HW227609   0.262  12.771   3.331
75238SOL     OW27610  13.248  11.270   2.464
75238SOL    HW127611  13.273  11.266   2.556
75238SOL    HW227612  13.330  11.281   2.417
75239SOL     OW27613   3.548   6.928  14.380
75239SOL    HW127614   3.503   6.857  14.333
75239SOL    HW227615   3.504   6.932  14.465
75240SOL     OW27616   1.236  14.306   3.889
75240SOL    HW127617   1.279  14.237   3.840
75240SOL    HW227618   1.291  14.383   3.876
75241SOL     OW27619   0.464   1.452   7.285
75241SOL    HW127620   0.394   1.517   7.296
75241SOL    HW227621   0.518   1.488   7.215
75242SOL     OW27622  10.615  13.172  11.343
75242SOL    HW127623  10.658  13.255  11.324
75242SOL    HW227624  10.645  13.113  11.274
75243SOL     OW27625   2.646   5.082   4.327
75243SOL    HW127626   2.582   5.013   4.345
75243SOL    HW227627   2.688   5.055   4.245
75244SOL     OW27628  14.308  14.386   5.152
75244SOL    HW127629  14.235  14.330   5.126
75244SOL    HW227630  14.272  14.475   5.147
75245SOL     OW27631   8.402  11.091   9.988
75245SOL    HW127632   8.409  11.176   9.946
75245SOL    HW227633   8.469  11.092  10.057
75246SOL     OW27634  14.451   5.173   8.008
75246SOL    HW127635  14.520   5.176   8.075
75246SOL    HW227636  14.446   5.263   7.974
75247SOL     OW27637   9.226   8.944  10.295
75247SOL    HW127638   9.290   9.014  10.283
75247SOL    HW227639   9.164   8.978  10.359
75248SOL     OW27640   3.263   0.317   8.712
75248SOL    HW127641   3.325   0.244   8.720
75248SOL    HW227642   3.306   0.390   8.755
75249SOL     OW27643   9.429  11.654   6.952
75249SOL    HW127644   9.374  11.709   7.008
75249SOL    HW227645   9.506  11.708   6.934
75250SOL     OW27646   7.570   3.763  12.496
75250SOL    HW127647   7.503   3.735  12.433
75250SOL    HW227648   7.543   3.852  12.521
75251SOL     OW27649   3.510   5.891   2.469
75251SOL    HW127650   3.526   5.985   2.469
75251SOL    HW227651   3.427   5.881   2.422
75252SOL     OW27652   1.737   8.797   3.181
75252SOL    HW127653   1.769   8.855   3.111
75252SOL    HW227654   1.749   8.848   3.261
75253SOL     OW27655  10.981  11.404  10.044
75253SOL    HW127656  10.923  11.328  10.040
75253SOL    HW227657  11.042  11.393   9.971
75254SOL     OW27658  11.105  12.041  12.894
75254SOL    HW127659  11.140  12.125  12.923
75254SOL    HW227660  11.012  12.043  12.919
75255SOL     OW27661   8.261   1.094  10.442
75255SOL    HW127662   8.192   1.157  10.464
75255SOL    HW227663   8.241   1.018  10.496
75256SOL     OW27664  10.807   2.086   9.496
75256SOL    HW127665  10.891   2.128   9.513
75256SOL    HW227666  10.806   2.010   9.555
75257SOL     OW27667   2.668   4.579   9.475
75257SOL    HW127668   2.655   4.619   9.561
75257SOL    HW227669   2.705   4.648   9.421
75258SOL     OW27670   4.331   5.769  10.143
75258SOL    HW127671   4.279   5.842  10.177
75258SOL    HW227672   4.317   5.698  10.205
75259SOL     OW27673   7.858   2.347   3.741
75259SOL    HW127674   7.927   2.283   3.721
75259SOL    HW227675   7.878   2.377   3.829
75260SOL     OW27676   6.293   0.903   0.104
75260SOL    HW127677   6.313   0.810   0.115
75260SOL    HW227678   6.312   0.922   0.012
75261SOL     OW27679   2.605   7.156  14.237
75261SOL    HW127680   2.617   7.061  14.239
75261SOL    HW227681   2.625   7.185  14.326
75262SOL     OW27682   2.089   7.069   1.259
75262SOL    HW127683   2.055   6.987   1.295
75262SOL    HW227684   2.012   7.125   1.251
75263SOL     OW27685  14.234   1.374   9.220
75263SOL    HW127686  14.151   1.409   9.250
75263SOL    HW227687  14.293   1.450   9.218
75264SOL     OW27688   8.845   8.610   0.677
75264SOL    HW127689   8.935   8.579   0.675
75264SOL    HW227690   8.824   8.618   0.771
75265SOL     OW27691  12.479  13.274  13.677
75265SOL    HW127692  12.417  13.345  13.663
75265SOL    HW227693  12.431  13.195  13.654
75266SOL     OW27694   6.062   4.091   8.519
75266SOL    HW127695   6.015   4.115   8.598
75266SOL    HW227696   6.056   3.996   8.514
75267SOL     OW27697   3.772   6.903   9.405
75267SOL    HW127698   3.764   6.808   9.415
75267SOL    HW227699   3.720   6.938   9.477
75268SOL     OW27700   5.888  13.405   3.581
75268SOL    HW127701   5.915  13.323   3.540
75268SOL    HW227702   5.797  13.417   3.552
75269SOL     OW27703  11.501   5.161   5.681
75269SOL    HW127704  11.415   5.142   5.642
75269SOL    HW227705  11.542   5.222   5.619
75270SOL     OW27706   1.011   7.972   4.053
75270SOL    HW127707   0.955   7.895   4.046
75270SOL    HW227708   1.080   7.946   4.115
75271SOL     OW27709   3.880  10.988   4.791
75271SOL    HW127710   3.846  10.922   4.730
75271SOL    HW227711   3.869  10.948   4.878
75272SOL     OW27712   9.081   8.573   3.582
75272SOL    HW127713   9.116   8.662   3.589
75272SOL    HW227714   8.991   8.586   3.551
75273SOL     OW27715   5.321   7.307   0.016
75273SOL    HW127716   5.268   7.229   0.033
75273SOL    HW227717   5.298   7.368   0.086
75274SOL     OW27718  12.788  14.633   4.442
75274SOL    HW127719  12.834  14.716   4.445
75274SOL    HW227720  12.728  14.636   4.517
75275SOL     OW27721  13.139  14.040   5.335
75275SOL    HW127722  13.192  13.995   5.401
75275SOL    HW227723  13.057  13.989   5.331
75276SOL     OW27724  13.276   9.629   6.240
75276SOL    HW127725  13.221   9.580   6.180
75276SOL    HW227726  13.223   9.704   6.267
75277SOL     OW27727  12.252  11.176  13.018
75277SOL    HW127728  12.210  11.128  13.089
75277SOL    HW227729  12.193  11.249  12.999
75278SOL     OW27730   8.981   7.162  13.448
75278SOL    HW127731   9.061   7.201  13.482
75278SOL    HW227732   8.911   7.211  13.490
75279SOL     OW27733  11.118   8.652   6.440
75279SOL    HW127734  11.209   8.622   6.443
75279SOL    HW227735  11.067   8.571   6.432
75280SOL     OW27736   0.222  12.745  12.051
75280SOL    HW127737   0.291  12.680  12.034
75280SOL    HW227738   0.253  12.824  12.006
75281SOL     OW27739   4.625   1.696   8.214
75281SOL    HW127740   4.554   1.637   8.188
75281SOL    HW227741   4.694   1.638   8.246
75282SOL     OW27742   5.344  12.945   8.416
75282SOL    HW127743   5.426  12.993   8.418
75282SOL    HW227744   5.281  13.002   8.460
75283SOL     OW27745   9.223   5.360   0.120
75283SOL    HW127746   9.179   5.282   0.085
75283SOL    HW227747   9.205   5.358   0.214
75284SOL     OW27748  14.783   8.605   8.906
75284SOL    HW127749  14.740   8.685   8.877
75284SOL    HW227750  14.850   8.589   8.839
75285SOL     OW27751   7.002   7.679   0.257
75285SOL    HW127752   7.049   7.616   0.202
75285SOL    HW227753   7.071   7.722   0.308
75286SOL     OW27754  13.808   6.570  13.859
75286SOL    HW127755  13.842   6.644  13.909
75286SOL    HW227756  13.805   6.602  13.769
75287SOL     OW27757   7.480   7.864   8.169
75287SOL    HW127758   7.517   7.824   8.091
75287SOL    HW227759   7.530   7.946   8.180
75288SOL     OW27760   0.917   1.445   8.106
75288SOL    HW127761   0.993   1.387   8.105
75288SOL    HW227762   0.935   1.510   8.038
75289SOL     OW27763   8.298  13.376   8.248
75289SOL    HW127764   8.277  13.376   8.341
75289SOL    HW227765   8.234  13.318   8.208
75290SOL     OW27766  14.781   6.786   6.958
75290SOL    HW127767  14.706   6.768   7.016
75290SOL    HW227768  14.749   6.765   6.870
75291SOL     OW27769   1.378   6.604   4.550
75291SOL    HW127770   1.420   6.546   4.487
75291SOL    HW227771   1.409   6.574   4.635
75292SOL     OW27772   8.831   1.388   7.453
75292SOL    HW127773   8.794   1.341   7.379
75292SOL    HW227774   8.855   1.319   7.515
75293SOL     OW27775   5.703   5.214   0.402
75293SOL    HW127776   5.715   5.131   0.356
75293SOL    HW227777   5.772   5.215   0.468
75294SOL     OW27778   0.737   3.051   5.055
75294SOL    HW127779   0.718   3.005   4.974
75294SOL    HW227780   0.829   3.078   5.047
75295SOL     OW27781   9.367  10.728  10.307
75295SOL    HW127782   9.375  10.647  10.357
75295SOL    HW227783   9.378  10.797  10.371
75296SOL     OW27784   1.741  11.834  13.026
75296SOL    HW127785   1.791  11.829  13.108
75296SOL    HW227786   1.687  11.912  13.036
75297SOL     OW27787   1.390   8.139  10.656
75297SOL    HW127788   1.397   8.154  10.562
75297SOL    HW227789   1.302   8.103  10.668
75298SOL     OW27790   6.940   9.051  10.527
75298SOL    HW127791   6.927   8.999  10.448
75298SOL    HW227792   7.035   9.064  10.532
75299SOL     OW27793   4.071   8.158   9.474
75299SOL    HW127794   4.098   8.242   9.511
75299SOL    HW227795   4.139   8.097   9.502
75300SOL     OW27796   4.750   2.844   4.971
75300SOL    HW127797   4.712   2.802   4.894
75300SOL    HW227798   4.720   2.935   4.966
75301SOL     OW27799   6.872   0.404  13.622
75301SOL    HW127800   6.882   0.343  13.695
75301SOL    HW227801   6.935   0.374  13.556
75302SOL     OW27802   6.406  11.323  14.295
75302SOL    HW127803   6.340  11.379  14.335
75302SOL    HW227804   6.375  11.234  14.310
75303SOL     OW27805   4.890   3.582  11.168
75303SOL    HW127806   4.858   3.672  11.155
75303SOL    HW227807   4.884   3.542  11.082
75304SOL     OW27808   8.443   7.567   3.780
75304SOL    HW127809   8.501   7.577   3.705
75304SOL    HW227810   8.411   7.656   3.797
75305SOL     OW27811   2.886   3.020   1.146
75305SOL    HW127812   2.885   2.954   1.077
75305SOL    HW227813   2.795   3.047   1.155
75306SOL     OW27814   2.128   4.810   4.810
75306SOL    HW127815   2.056   4.860   4.848
75306SOL    HW227816   2.168   4.870   4.747
75307SOL     OW27817   8.254   6.506   6.065
75307SOL    HW127818   8.171   6.466   6.042
75307SOL    HW227819   8.307   6.434   6.100
75308SOL     OW27820   2.283   0.181   0.343
75308SOL    HW127821   2.194   0.195   0.310
75308SOL    HW227822   2.272   0.161   0.435
75309SOL     OW27823   6.472  11.126   9.028
75309SOL    HW127824   6.520  11.054   9.070
75309SOL    HW227825   6.502  11.126   8.937
75310SOL     OW27826   3.670  11.520  12.370
75310SOL    HW127827   3.698  11.450  12.429
75310SOL    HW227828   3.690  11.601  12.418
75311SOL     OW27829   8.764  14.816  14.381
75311SOL    HW127830   8.735  14.829  14.290
75311SOL    HW227831   8.779  14.722  14.388
75312SOL     OW27832   3.731   6.006   0.738
75312SOL    HW127833   3.664   6.029   0.674
75312SOL    HW227834   3.695   5.931   0.786
75313SOL     OW27835   8.401   1.705   4.800
75313SOL    HW127836   8.494   1.726   4.803
75313SOL    HW227837   8.382   1.668   4.887
75314SOL     OW27838   1.447   3.273   9.285
75314SOL    HW127839   1.480   3.296   9.198
75314SOL    HW227840   1.482   3.185   9.301
75315SOL     OW27841   3.549   2.964  12.361
75315SOL    HW127842   3.528   2.873  12.382
75315SOL    HW227843   3.509   3.015  12.432
75316SOL     OW27844   4.466   4.608  14.661
75316SOL    HW127845   4.542   4.551  14.674
75316SOL    HW227846   4.400   4.551  14.622
75317SOL     OW27847   8.647  10.119  13.907
75317SOL    HW127848   8.642  10.127  14.003
75317SOL    HW227849   8.738  10.098  13.889
75318SOL     OW27850   9.339   0.793  10.571
75318SOL    HW127851   9.433   0.796  10.587
75318SOL    HW227852   9.328   0.827  10.482
75319SOL     OW27853   0.878   7.895   5.161
75319SOL    HW127854   0.866   7.855   5.247
75319SOL    HW227855   0.935   7.970   5.177
75320SOL     OW27856   2.663  14.234  10.714
75320SOL    HW127857   2.692  14.320  10.685
75320SOL    HW227858   2.686  14.175  10.642
75321SOL     OW27859   4.285  12.765   5.560
75321SOL    HW127860   4.330  12.811   5.631
75321SOL    HW227861   4.351  12.707   5.522
75322SOL     OW27862  11.504   8.505   5.556
75322SOL    HW127863  11.540   8.423   5.590
75322SOL    HW227864  11.434   8.477   5.497
75323SOL     OW27865   0.551   0.239   9.486
75323SOL    HW127866   0.525   0.182   9.413
75323SOL    HW227867   0.635   0.275   9.460
75324SOL     OW27868  13.533  11.529   1.151
75324SOL    HW127869  13.590  11.461   1.186
75324SOL    HW227870  13.500  11.575   1.229
75325SOL     OW27871  11.453   6.909  12.350
75325SOL    HW127872  11.421   6.998  12.366
75325SOL    HW227873  11.471   6.873  12.438
75326SOL     OW27874   3.288  11.744   1.584
75326SOL    HW127875   3.371  11.727   1.628
75326SOL    HW227876   3.307  11.816   1.523
75327SOL     OW27877   4.844   7.858   4.658
75327SOL    HW127878   4.830   7.917   4.732
75327SOL    HW227879   4.938   7.861   4.643
75328SOL     OW27880  12.722   2.495   3.430
75328SOL    HW127881  12.642   2.500   3.379
75328SOL    HW227882  12.772   2.573   3.406
75329SOL     OW27883   5.623  12.580   1.948
75329SOL    HW127884   5.614  12.607   2.039
75329SOL    HW227885   5.547  12.524   1.932
75330SOL     OW27886   0.908   1.461   2.510
75330SOL    HW127887   0.881   1.372   2.488
75330SOL    HW227888   0.826   1.506   2.532
75331SOL     OW27889  11.230   4.232   1.082
75331SOL    HW127890  11.243   4.324   1.058
75331SOL    HW227891  11.245   4.230   1.176
75332SOL     OW27892   0.476  10.046  10.375
75332SOL    HW127893   0.558  10.095  10.377
75332SOL    HW227894   0.473   9.999  10.458
75333SOL     OW27895   2.270   1.873   5.385
75333SOL    HW127896   2.227   1.867   5.300
75333SOL    HW227897   2.209   1.831   5.446
75334SOL     OW27898   4.295   5.768   0.351
75334SOL    HW127899   4.373   5.779   0.296
75334SOL    HW227900   4.328   5.770   0.441
75335SOL     OW27901   0.476   4.447   9.252
75335SOL    HW127902   0.393   4.480   9.217
75335SOL    HW227903   0.539   4.458   9.181
75336SOL     OW27904   8.534  10.933   0.847
75336SOL    HW127905   8.523  10.941   0.753
75336SOL    HW227906   8.447  10.912   0.880
75337SOL     OW27907   5.287   4.788  14.468
75337SOL    HW127908   5.313   4.733  14.394
75337SOL    HW227909   5.286   4.877  14.431
75338SOL     OW27910   2.575   8.523  11.578
75338SOL    HW127911   2.641   8.573  11.530
75338SOL    HW227912   2.515   8.590  11.610
75339SOL     OW27913   1.629  14.529   6.192
75339SOL    HW127914   1.680  14.598   6.152
75339SOL    HW227915   1.694  14.473   6.235
75340SOL     OW27916   0.657  12.922   1.719
75340SOL    HW127917   0.614  12.913   1.634
75340SOL    HW227918   0.684  12.833   1.741
75341SOL     OW27919   8.974  10.266   7.648
75341SOL    HW127920   9.047  10.251   7.708
75341SOL    HW227921   8.940  10.178   7.629
75342SOL     OW27922  14.306   1.077   7.826
75342SOL    HW127923  14.397   1.058   7.801
75342SOL    HW227924  14.309   1.164   7.864
75343SOL     OW27925  12.108   2.742  13.019
75343SOL    HW127926  12.112   2.655  12.979
75343SOL    HW227927  12.052   2.731  13.096
75344SOL     OW27928   5.544  12.249  13.660
75344SOL    HW127929   5.531  12.302  13.738
75344SOL    HW227930   5.604  12.179  13.688
75345SOL     OW27931   6.671   6.933   6.942
75345SOL    HW127932   6.585   6.971   6.922
75345SOL    HW227933   6.732   6.978   6.884
75346SOL     OW27934   4.831   9.115   6.647
75346SOL    HW127935   4.830   9.176   6.721
75346SOL    HW227936   4.921   9.083   6.643
75347SOL     OW27937   2.373   4.868  10.726
75347SOL    HW127938   2.357   4.894  10.635
75347SOL    HW227939   2.417   4.783  10.718
75348SOL     OW27940   6.246  13.927   7.468
75348SOL    HW127941   6.254  13.903   7.561
75348SOL    HW227942   6.165  13.884   7.439
75349SOL     OW27943   3.637  10.072   1.217
75349SOL    HW127944   3.664  10.013   1.146
75349SOL    HW227945   3.678  10.035   1.295
75350SOL     OW27946  12.944  12.733   9.063
75350SOL    HW127947  13.036  12.748   9.043
75350SOL    HW227948  12.927  12.786   9.141
75351SOL     OW27949  14.499   3.421  11.551
75351SOL    HW127950  14.586   3.384  11.539
75351SOL    HW227951  14.487   3.426  11.646
75352SOL     OW27952   9.164   9.022   3.918
75352SOL    HW127953   9.237   9.080   3.894
75352SOL    HW227954   9.204   8.957   3.976
75353SOL     OW27955   0.486   6.570  13.050
75353SOL    HW127956   0.567   6.526  13.075
75353SOL    HW227957   0.445   6.593  13.134
75354SOL     OW27958   0.563  10.044  14.643
75354SOL    HW127959   0.520   9.981  14.699
75354SOL    HW227960   0.653  10.049  14.675
75355SOL     OW27961   8.930   6.100   5.126
75355SOL    HW127962   8.838   6.085   5.148
75355SOL    HW227963   8.979   6.053   5.194
75356SOL     OW27964   7.579   5.597   1.396
75356SOL    HW127965   7.565   5.690   1.382
75356SOL    HW227966   7.542   5.580   1.483
75357SOL     OW27967   7.267   3.171   7.009
75357SOL    HW127968   7.348   3.120   7.010
75357SOL    HW227969   7.295   3.261   6.996
75358SOL     OW27970   2.164  10.877   4.741
75358SOL    HW127971   2.154  10.793   4.785
75358SOL    HW227972   2.242  10.867   4.686
75359SOL     OW27973   6.656  14.156   7.388
75359SOL    HW127974   6.662  14.128   7.297
75359SOL    HW227975   6.641  14.076   7.437
75360SOL     OW27976   1.625  13.880  10.124
75360SOL    HW127977   1.688  13.811  10.100
75360SOL    HW227978   1.571  13.840  10.192
75361SOL     OW27979   9.518  10.119   2.485
75361SOL    HW127980   9.582  10.180   2.522
75361SOL    HW227981   9.488  10.161   2.405
75362SOL     OW27982  10.363   1.368   4.856
75362SOL    HW127983  10.401   1.315   4.786
75362SOL    HW227984  10.334   1.303   4.921
75363SOL     OW27985   9.572  13.094   8.435
75363SOL    HW127986   9.544  13.004   8.419
75363SOL    HW227987   9.649  13.106   8.380
75364SOL     OW27988  10.169  12.081  12.386
75364SOL    HW127989  10.236  12.143  12.415
75364SOL    HW227990  10.118  12.063  12.465
75365SOL     OW27991   5.727  13.696   1.049
75365SOL    HW127992   5.641  13.717   1.013
75365SOL    HW227993   5.711  13.678   1.142
75366SOL     OW27994   3.052  13.811   1.217
75366SOL    HW127995   2.988  13.760   1.166
75366SOL    HW227996   3.006  13.833   1.298
75367SOL     OW27997   1.810   9.599  10.515
75367SOL    HW127998   1.865   9.557  10.449
75367SOL    HW227999   1.722   9.567  10.497
75368SOL     OW28000   7.487  10.235  10.628
75368SOL    HW128001   7.449  10.213  10.543
75368SOL    HW228002   7.536  10.315  10.611
75369SOL     OW28003   1.447   8.041   1.602
75369SOL    HW128004   1.501   7.964   1.583
75369SOL    HW228005   1.408   8.065   1.518
75370SOL     OW28006   2.738   2.712   1.207
75370SOL    HW128007   2.652   2.686   1.173
75370SOL    HW228008   2.797   2.702   1.132
75371SOL     OW28009   9.510  13.166  10.504
75371SOL    HW128010   9.465  13.082  10.500
75371SOL    HW228011   9.541  13.181  10.415
75372SOL     OW28012   6.026   5.838   6.241
75372SOL    HW128013   6.035   5.743   6.244
75372SOL    HW228014   5.973   5.860   6.318
75373SOL     OW28015  11.945  12.774   7.872
75373SOL    HW128016  11.977  12.750   7.785
75373SOL    HW228017  12.024  12.774   7.927
75374SOL     OW28018   3.418   0.918  11.237
75374SOL    HW128019   3.399   0.871  11.156
75374SOL    HW228020   3.475   0.859  11.286
75375SOL     OW28021   9.247   2.319   0.339
75375SOL    HW128022   9.206   2.243   0.297
75375SOL    HW228023   9.202   2.394   0.301
75376SOL     OW28024  11.877   2.390   4.629
75376SOL    HW128025  11.841   2.436   4.554
75376SOL    HW228026  11.876   2.297   4.604
75377SOL     OW28027   1.369  13.916   8.089
75377SOL    HW128028   1.450  13.869   8.107
75377SOL    HW228029   1.387  13.967   8.010
75378SOL     OW28030   1.589   8.472   7.946
75378SOL    HW128031   1.589   8.541   8.013
75378SOL    HW228032   1.497   8.448   7.936
75379SOL     OW28033  10.762   1.580   1.630
75379SOL    HW128034  10.702   1.653   1.642
75379SOL    HW228035  10.738   1.517   1.698
75380SOL     OW28036  14.181   2.015   9.682
75380SOL    HW128037  14.122   2.019   9.757
75380SOL    HW228038  14.206   2.106   9.666
75381SOL     OW28039   4.749   7.849  14.626
75381SOL    HW128040   4.676   7.867  14.566
75381SOL    HW228041   4.739   7.913  14.696
75382SOL     OW28042   3.762   4.703   8.872
75382SOL    HW128043   3.775   4.794   8.845
75382SOL    HW228044   3.813   4.651   8.810
75383SOL     OW28045  14.727  13.769   5.852
75383SOL    HW128046  14.707  13.734   5.766
75383SOL    HW228047  14.701  13.701   5.914
75384SOL     OW28048   3.054   8.928   8.642
75384SOL    HW128049   3.010   8.992   8.587
75384SOL    HW228050   3.015   8.939   8.729
75385SOL     OW28051   4.666   2.140   4.806
75385SOL    HW128052   4.638   2.110   4.720
75385SOL    HW228053   4.689   2.060   4.853
75386SOL     OW28054   9.439   9.158  10.107
75386SOL    HW128055   9.503   9.193  10.045
75386SOL    HW228056   9.376   9.112  10.053
75387SOL     OW28057  13.633   8.792   0.977
75387SOL    HW128058  13.595   8.751   1.055
75387SOL    HW228059  13.595   8.880   0.975
75388SOL     OW28060   8.320   6.900  10.879
75388SOL    HW128061   8.362   6.925  10.961
75388SOL    HW228062   8.286   6.812  10.896
75389SOL     OW28063   8.541   9.091   3.921
75389SOL    HW128064   8.519   9.036   3.996
75389SOL    HW228065   8.607   9.041   3.873
75390SOL     OW28066   3.137  13.817   4.431
75390SOL    HW128067   3.142  13.723   4.415
75390SOL    HW228068   3.044  13.837   4.436
75391SOL     OW28069   2.806   7.386   6.793
75391SOL    HW128070   2.761   7.469   6.807
75391SOL    HW228071   2.864   7.402   6.718
75392SOL     OW28072   5.031   6.271   4.079
75392SOL    HW128073   4.997   6.182   4.067
75392SOL    HW228074   5.119   6.270   4.042
75393SOL     OW28075   0.841  13.409   8.422
75393SOL    HW128076   0.910  13.377   8.364
75393SOL    HW228077   0.840  13.503   8.409
75394SOL     OW28078  11.812  13.404   5.456
75394SOL    HW128079  11.771  13.419   5.541
75394SOL    HW228080  11.863  13.324   5.468
75395SOL     OW28081  11.117   0.849   3.263
75395SOL    HW128082  11.086   0.934   3.295
75395SOL    HW228083  11.200   0.836   3.309
75396SOL     OW28084   7.725   3.507  11.756
75396SOL    HW128085   7.800   3.550  11.796
75396SOL    HW228086   7.682   3.576  11.705
75397SOL     OW28087   7.147   5.152   1.932
75397SOL    HW128088   7.174   5.094   2.003
75397SOL    HW228089   7.054   5.133   1.919
75398SOL     OW28090   9.074  14.084   2.196
75398SOL    HW128091   9.147  14.047   2.145
75398SOL    HW228092   9.008  14.104   2.130
75399SOL     OW28093  14.791  12.057   2.894
75399SOL    HW128094  14.850  12.006   2.949
75399SOL    HW228095  14.759  11.995   2.829
75400SOL     OW28096   9.124   8.901   5.866
75400SOL    HW128097   9.181   8.979   5.863
75400SOL    HW228098   9.099   8.893   5.957
75401SOL     OW28099   9.495   8.848  14.144
75401SOL    HW128100   9.485   8.879  14.234
75401SOL    HW228101   9.535   8.761  14.153
75402SOL     OW28102   5.406   0.800   5.119
75402SOL    HW128103   5.407   0.806   5.215
75402SOL    HW228104   5.371   0.884   5.090
75403SOL     OW28105   6.350   5.402   3.238
75403SOL    HW128106   6.398   5.328   3.275
75403SOL    HW228107   6.419   5.462   3.208
75404SOL     OW28108   5.675   5.651  13.749
75404SOL    HW128109   5.721   5.576  13.785
75404SOL    HW228110   5.744   5.714  13.726
75405SOL     OW28111  14.103  11.071   4.399
75405SOL    HW128112  14.188  11.105   4.371
75405SOL    HW228113  14.048  11.076   4.322
75406SOL     OW28114  12.006   9.945   7.483
75406SOL    HW128115  11.924   9.962   7.529
75406SOL    HW228116  11.983   9.951   7.391
75407SOL     OW28117  13.128   2.474   6.146
75407SOL    HW128118  13.175   2.550   6.182
75407SOL    HW228119  13.182   2.399   6.171
75408SOL     OW28120   1.665   6.177   1.324
75408SOL    HW128121   1.581   6.218   1.302
75408SOL    HW228122   1.714   6.177   1.242
75409SOL     OW28123  11.624   9.326  10.771
75409SOL    HW128124  11.715   9.352  10.789
75409SOL    HW228125  11.600   9.376  10.693
75410SOL     OW28126   5.715   8.893   0.449
75410SOL    HW128127   5.730   8.920   0.540
75410SOL    HW228128   5.634   8.843   0.451
75411SOL     OW28129  10.236   0.600   3.111
75411SOL    HW128130  10.297   0.527   3.100
75411SOL    HW228131  10.266   0.666   3.048
75412SOL     OW28132  14.018   7.620   7.605
75412SOL    HW128133  13.988   7.691   7.548
75412SOL    HW228134  14.092   7.658   7.653
75413SOL     OW28135   0.222   1.919   4.114
75413SOL    HW128136   0.312   1.930   4.082
75413SOL    HW228137   0.208   1.991   4.174
75414SOL     OW28138  12.385  11.929  11.719
75414SOL    HW128139  12.451  11.894  11.660
75414SOL    HW228140  12.371  11.860  11.783
75415SOL     OW28141  10.775   7.542  13.086
75415SOL    HW128142  10.683   7.515  13.086
75415SOL    HW228143  10.800   7.540  13.178
75416SOL     OW28144   6.366   3.940   2.850
75416SOL    HW128145   6.353   4.028   2.886
75416SOL    HW228146   6.408   3.955   2.765
75417SOL     OW28147   6.696   2.432  10.058
75417SOL    HW128148   6.675   2.405   9.968
75417SOL    HW228149   6.788   2.457  10.054
75418SOL     OW28150   9.401   4.437   8.118
75418SOL    HW128151   9.345   4.416   8.043
75418SOL    HW228152   9.481   4.388   8.102
75419SOL     OW28153   0.991  14.223  13.114
75419SOL    HW128154   0.963  14.228  13.023
75419SOL    HW228155   1.014  14.131  13.128
75420SOL     OW28156  14.262   3.575  12.087
75420SOL    HW128157  14.303   3.597  12.170
75420SOL    HW228158  14.328   3.526  12.038
75421SOL     OW28159   0.861   2.150   5.364
75421SOL    HW128160   0.864   2.209   5.439
75421SOL    HW228161   0.937   2.173   5.311
75422SOL     OW28162   9.937  11.876  10.497
75422SOL    HW128163   9.888  11.958  10.495
75422SOL    HW228164   9.876  11.813  10.537
75423SOL     OW28165   0.320   9.142   6.657
75423SOL    HW128166   0.295   9.224   6.613
75423SOL    HW228167   0.323   9.165   6.750
75424SOL     OW28168   9.303   9.321   8.509
75424SOL    HW128169   9.373   9.290   8.451
75424SOL    HW228170   9.279   9.407   8.473
75425SOL     OW28171   3.248   2.541  10.809
75425SOL    HW128172   3.224   2.476  10.876
75425SOL    HW228173   3.196   2.618  10.831
75426SOL     OW28174  11.049   2.668  14.110
75426SOL    HW128175  10.969   2.620  14.092
75426SOL    HW228176  11.024   2.734  14.175
75427SOL     OW28177  14.194   2.650   6.261
75427SOL    HW128178  14.113   2.653   6.210
75427SOL    HW228179  14.238   2.732   6.241
75428SOL     OW28180   6.601  11.086  10.753
75428SOL    HW128181   6.570  11.068  10.842
75428SOL    HW228182   6.694  11.106  10.764
75429SOL     OW28183  14.451   1.330  10.803
75429SOL    HW128184  14.432   1.347  10.711
75429SOL    HW228185  14.444   1.235  10.812
75430SOL     OW28186   0.874   3.438  12.617
75430SOL    HW128187   0.949   3.380  12.631
75430SOL    HW228188   0.900   3.521  12.657
75431SOL     OW28189   4.592  13.517   1.730
75431SOL    HW128190   4.615  13.570   1.654
75431SOL    HW228191   4.596  13.427   1.699
75432SOL     OW28192   5.956   7.110   1.540
75432SOL    HW128193   5.980   7.045   1.475
75432SOL    HW228194   5.977   7.194   1.498
75433SOL     OW28195   3.003   1.978   3.360
75433SOL    HW128196   2.954   1.914   3.410
75433SOL    HW228197   3.025   1.934   3.278
75434SOL     OW28198  12.866  10.466   0.939
75434SOL    HW128199  12.902  10.511   0.863
75434SOL    HW228200  12.940  10.458   1.000
75435SOL     OW28201   5.508   7.306   8.385
75435SOL    HW128202   5.467   7.221   8.369
75435SOL    HW228203   5.584   7.286   8.440
75436SOL     OW28204  13.102   8.189  14.057
75436SOL    HW128205  13.128   8.147  13.975
75436SOL    HW228206  13.179   8.239  14.084
75437SOL     OW28207  12.474   7.743  10.312
75437SOL    HW128208  12.421   7.673  10.272
75437SOL    HW228209  12.544   7.696  10.357
75438SOL     OW28210   5.116  13.259   5.192
75438SOL    HW128211   5.132  13.339   5.143
75438SOL    HW228212   5.180  13.196   5.158
75439SOL     OW28213   6.006   5.151  12.593
75439SOL    HW128214   5.968   5.068  12.622
75439SOL    HW228215   6.003   5.147  12.498
75440SOL     OW28216   8.111   4.679  11.422
75440SOL    HW128217   8.135   4.712  11.336
75440SOL    HW228218   8.018   4.657  11.414
75441SOL     OW28219  12.665   1.602  12.058
75441SOL    HW128220  12.720   1.645  11.992
75441SOL    HW228221  12.580   1.591  12.015
75442SOL     OW28222  10.184   4.331  13.287
75442SOL    HW128223  10.099   4.362  13.256
75442SOL    HW228224  10.201   4.382  13.366
75443SOL     OW28225   1.411   8.697  10.366
75443SOL    HW128226   1.386   8.751  10.441
75443SOL    HW228227   1.376   8.745  10.290
75444SOL     OW28228  11.646   5.934   3.393
75444SOL    HW128229  11.571   5.983   3.358
75444SOL    HW228230  11.612   5.890   3.471
75445SOL     OW28231   5.788  10.614  13.190
75445SOL    HW128232   5.838  10.648  13.265
75445SOL    HW228233   5.701  10.596  13.226
75446SOL     OW28234   9.627  11.919   1.240
75446SOL    HW128235   9.702  11.978   1.238
75446SOL    HW228236   9.565  11.961   1.299
75447SOL     OW28237  13.839  11.460  11.380
75447SOL    HW128238  13.779  11.435  11.310
75447SOL    HW228239  13.786  11.514  11.438
75448SOL     OW28240  12.230   3.862  14.845
75448SOL    HW128241  12.250   3.773  14.815
75448SOL    HW228242  12.258   3.862   0.069
75449SOL     OW28243  12.700  12.452  10.470
75449SOL    HW128244  12.688  12.425  10.561
75449SOL    HW228245  12.617  12.493  10.446
75450SOL     OW28246  12.084  12.734  10.428
75450SOL    HW128247  12.108  12.665  10.366
75450SOL    HW228248  11.991  12.718  10.445
75451SOL     OW28249   8.050  10.490  14.252
75451SOL    HW128250   8.007  10.575  14.243
75451SOL    HW228251   8.038  10.449  14.166
75452SOL     OW28252   5.402   6.871   4.020
75452SOL    HW128253   5.334   6.933   3.993
75452SOL    HW228254   5.389   6.861   4.114
75453SOL     OW28255  12.679  10.860  12.389
75453SOL    HW128256  12.685  10.773  12.348
75453SOL    HW228257  12.685  10.844  12.483
75454SOL     OW28258   7.630   1.177   0.012
75454SOL    HW128259   7.604   1.256   0.060
75454SOL    HW228260   7.696   1.136   0.068
75455SOL     OW28261  11.485  12.667   7.305
75455SOL    HW128262  11.573  12.630   7.296
75455SOL    HW228263  11.467  12.664   7.399
75456SOL     OW28264  13.481   6.339  11.405
75456SOL    HW128265  13.411   6.278  11.428
75456SOL    HW228266  13.535   6.344  11.483
75457SOL     OW28267   2.086  10.199  12.956
75457SOL    HW128268   1.996  10.225  12.937
75457SOL    HW228269   2.094  10.110  12.922
75458SOL     OW28270   8.773  14.235  14.868
75458SOL    HW128271   8.753  14.142   0.007
75458SOL    HW228272   8.761  14.255  14.775
75459SOL     OW28273   0.190   2.572   4.563
75459SOL    HW128274   0.260   2.566   4.498
75459SOL    HW228275   0.172   2.666   4.569
75460SOL     OW28276   4.792   1.999  14.694
75460SOL    HW128277   4.885   1.997  14.716
75460SOL    HW228278   4.778   1.922  14.639
75461SOL     OW28279   2.966   3.278   6.299
75461SOL    HW128280   2.952   3.267   6.205
75461SOL    HW228281   2.893   3.229   6.339
75462SOL     OW28282  13.429  13.412  10.531
75462SOL    HW128283  13.445  13.493  10.579
75462SOL    HW228284  13.513  13.366  10.531
75463SOL     OW28285   1.854  10.911   9.097
75463SOL    HW128286   1.863  11.002   9.125
75463SOL    HW228287   1.765  10.886   9.124
75464SOL     OW28288   4.040  13.868   2.086
75464SOL    HW128289   4.086  13.925   2.148
75464SOL    HW228290   3.948  13.873   2.113
75465SOL     OW28291  11.482   4.875   3.461
75465SOL    HW128292  11.457   4.968   3.466
75465SOL    HW228293  11.520   4.865   3.373
75466SOL     OW28294  10.376   9.437   5.132
75466SOL    HW128295  10.296   9.405   5.173
75466SOL    HW228296  10.445   9.420   5.197
75467SOL     OW28297   3.256  10.992   6.742
75467SOL    HW128298   3.309  10.932   6.794
75467SOL    HW228299   3.273  10.966   6.651
75468SOL     OW28300  10.518   3.718   3.288
75468SOL    HW128301  10.447   3.655   3.289
75468SOL    HW228302  10.586   3.676   3.235
75469SOL     OW28303   2.927  10.458  11.440
75469SOL    HW128304   2.954  10.524  11.503
75469SOL    HW228305   2.851  10.495  11.395
75470SOL     OW28306  10.048   4.061   0.813
75470SOL    HW128307  10.115   4.128   0.798
75470SOL    HW228308  10.013   4.080   0.899
75471SOL     OW28309   4.642  11.730   6.362
75471SOL    HW128310   4.680  11.660   6.415
75471SOL    HW228311   4.618  11.689   6.279
75472SOL     OW28312   4.478   6.538   3.659
75472SOL    HW128313   4.522   6.454   3.648
75472SOL    HW228314   4.427   6.528   3.739
75473SOL     OW28315  13.942  11.045   7.342
75473SOL    HW128316  13.863  11.089   7.310
75473SOL    HW228317  13.962  11.088   7.425
75474SOL     OW28318   6.882  11.268  12.812
75474SOL    HW128319   6.956  11.328  12.813
75474SOL    HW228320   6.840  11.283  12.727
75475SOL     OW28321   9.766   3.013  10.975
75475SOL    HW128322   9.681   2.978  10.951
75475SOL    HW228323   9.827   2.941  10.962
75476SOL     OW28324  12.978   2.790  13.675
75476SOL    HW128325  13.029   2.719  13.635
75476SOL    HW228326  12.931   2.830  13.602
75477SOL     OW28327  11.361  14.845   9.821
75477SOL    HW128328  11.417  14.798   9.760
75477SOL    HW228329  11.281  14.792   9.826
75478SOL     OW28330   9.547  14.538   7.306
75478SOL    HW128331   9.641  14.551   7.310
75478SOL    HW228332   9.534  14.446   7.331
75479SOL     OW28333  10.681  14.441  14.504
75479SOL    HW128334  10.682  14.395  14.587
75479SOL    HW228335  10.695  14.533  14.526
75480SOL     OW28336   4.518   1.412  11.427
75480SOL    HW128337   4.481   1.460  11.501
75480SOL    HW228338   4.571   1.476  11.381
75481SOL     OW28339   2.309   9.944  11.378
75481SOL    HW128340   2.392   9.931  11.332
75481SOL    HW228341   2.309  10.037  11.401
75482SOL     OW28342  10.405  14.653   9.712
75482SOL    HW128343  10.406  14.602   9.631
75482SOL    HW228344  10.495  14.685   9.720
75483SOL     OW28345   1.673  14.028  14.196
75483SOL    HW128346   1.683  14.123  14.203
75483SOL    HW228347   1.601  14.008  14.256
75484SOL     OW28348  12.755   0.649   6.739
75484SOL    HW128349  12.680   0.594   6.716
75484SOL    HW228350  12.831   0.591   6.726
75485SOL     OW28351   4.880   6.758  13.545
75485SOL    HW128352   4.867   6.763  13.451
75485SOL    HW228353   4.794   6.776  13.582
75486SOL     OW28354  11.692   4.228   7.962
75486SOL    HW128355  11.619   4.195   7.909
75486SOL    HW228356  11.769   4.182   7.928
75487SOL     OW28357   4.002  11.763   1.550
75487SOL    HW128358   4.044  11.685   1.514
75487SOL    HW228359   3.991  11.821   1.474
75488SOL     OW28360   9.150  10.894   7.485
75488SOL    HW128361   9.187  10.981   7.471
75488SOL    HW228362   9.071  10.910   7.535
75489SOL     OW28363   0.784  11.880   9.688
75489SOL    HW128364   0.723  11.838   9.627
75489SOL    HW228365   0.739  11.959   9.716
75490SOL     OW28366   1.682   4.912   5.203
75490SOL    HW128367   1.607   4.949   5.250
75490SOL    HW228368   1.649   4.830   5.166
75491SOL     OW28369   1.930  12.338  12.336
75491SOL    HW128370   1.854  12.335  12.394
75491SOL    HW228371   1.970  12.251  12.345
75492SOL     OW28372   5.770  13.304  13.260
75492SOL    HW128373   5.695  13.303  13.200
75492SOL    HW228374   5.784  13.397  13.278
75493SOL     OW28375   3.460  10.348   1.509
75493SOL    HW128376   3.439  10.433   1.546
75493SOL    HW228377   3.393  10.289   1.544
75494SOL     OW28378  10.253   9.124  13.092
75494SOL    HW128379  10.256   9.200  13.150
75494SOL    HW228380  10.161   9.115  13.068
75495SOL     OW28381   6.712  11.876  11.694
75495SOL    HW128382   6.657  11.798  11.691
75495SOL    HW228383   6.652  11.948  11.680
75496SOL     OW28384  11.585   6.549  11.437
75496SOL    HW128385  11.604   6.615  11.370
75496SOL    HW228386  11.519   6.589  11.493
75497SOL     OW28387  12.613   3.404  13.321
75497SOL    HW128388  12.656   3.387  13.238
75497SOL    HW228389  12.520   3.416  13.298
75498SOL     OW28390  10.278   4.417  11.576
75498SOL    HW128391  10.310   4.461  11.497
75498SOL    HW228392  10.262   4.488  11.638
75499SOL     OW28393   6.055   2.520   9.952
75499SOL    HW128394   6.138   2.478   9.974
75499SOL    HW228395   6.078   2.611   9.934
75500SOL     OW28396   8.223   8.042   9.826
75500SOL    HW128397   8.318   8.056   9.832
75500SOL    HW228398   8.197   8.013   9.913
75501SOL     OW28399   9.825   8.173  13.581
75501SOL    HW128400   9.879   8.096  13.595
75501SOL    HW228401   9.828   8.189  13.487
75502SOL     OW28402  11.600   8.019   5.045
75502SOL    HW128403  11.578   7.995   5.135
75502SOL    HW228404  11.597   7.937   4.997
75503SOL     OW28405   3.385   4.695  13.995
75503SOL    HW128406   3.357   4.741  14.074
75503SOL    HW228407   3.459   4.641  14.024
75504SOL     OW28408   9.604  12.177   7.672
75504SOL    HW128409   9.669  12.185   7.742
75504SOL    HW228410   9.610  12.086   7.643
75505SOL     OW28411   4.741  11.915  13.822
75505SOL    HW128412   4.672  11.849  13.823
75505SOL    HW228413   4.750  11.939  13.730
75506SOL     OW28414   0.590   6.985   0.565
75506SOL    HW128415   0.633   6.900   0.575
75506SOL    HW228416   0.654   7.038   0.518
75507SOL     OW28417   1.838   4.978  14.461
75507SOL    HW128418   1.758   4.929  14.478
75507SOL    HW228419   1.830   5.006  14.369
75508SOL     OW28420  12.189   4.078   2.513
75508SOL    HW128421  12.114   4.135   2.533
75508SOL    HW228422  12.239   4.077   2.594
75509SOL     OW28423  11.127  12.917   7.776
75509SOL    HW128424  11.119  12.955   7.688
75509SOL    HW228425  11.104  12.989   7.835
75510SOL     OW28426   5.722  11.395   5.728
75510SOL    HW128427   5.713  11.424   5.819
75510SOL    HW228428   5.741  11.301   5.734
75511SOL     OW28429   1.669   5.810   3.986
75511SOL    HW128430   1.751   5.761   4.000
75511SOL    HW228431   1.696   5.886   3.935
75512SOL     OW28432   9.917   8.721  13.761
75512SOL    HW128433   9.940   8.630  13.782
75512SOL    HW228434  10.001   8.766  13.761
75513SOL     OW28435   5.325  10.297  12.115
75513SOL    HW128436   5.242  10.250  12.106
75513SOL    HW228437   5.344  10.330  12.027
75514SOL     OW28438   0.998  10.987   2.214
75514SOL    HW128439   1.026  11.013   2.126
75514SOL    HW228440   1.078  10.962   2.258
75515SOL     OW28441   5.482   5.215   4.865
75515SOL    HW128442   5.400   5.262   4.849
75515SOL    HW228443   5.462   5.155   4.936
75516SOL     OW28444   9.797   4.809   2.766
75516SOL    HW128445   9.870   4.795   2.705
75516SOL    HW228446   9.837   4.847   2.844
75517SOL     OW28447   7.462   7.900  12.126
75517SOL    HW128448   7.440   7.826  12.184
75517SOL    HW228449   7.548   7.928  12.156
75518SOL     OW28450   4.850  10.199   5.667
75518SOL    HW128451   4.934  10.158   5.690
75518SOL    HW228452   4.805  10.210   5.751
75519SOL     OW28453   8.919  12.560  12.954
75519SOL    HW128454   8.886  12.487  13.006
75519SOL    HW228455   8.841  12.602  12.919
75520SOL     OW28456   2.839   1.926  12.982
75520SOL    HW128457   2.911   1.913  13.043
75520SOL    HW228458   2.841   2.020  12.962
75521SOL     OW28459   2.717   9.908   1.658
75521SOL    HW128460   2.676   9.969   1.719
75521SOL    HW228461   2.811   9.927   1.664
75522SOL     OW28462   3.265   7.185  12.995
75522SOL    HW128463   3.208   7.225  12.930
75522SOL    HW228464   3.297   7.258  13.048
75523SOL     OW28465   8.898   8.751  11.598
75523SOL    HW128466   8.868   8.833  11.559
75523SOL    HW228467   8.918   8.773  11.689
75524SOL     OW28468  13.260  11.832   6.425
75524SOL    HW128469  13.288  11.898   6.362
75524SOL    HW228470  13.292  11.864   6.509
75525SOL     OW28471  13.989   1.766   4.472
75525SOL    HW128472  14.073   1.799   4.502
75525SOL    HW228473  13.988   1.674   4.498
75526SOL     OW28474  14.152  10.606   8.755
75526SOL    HW128475  14.199  10.684   8.726
75526SOL    HW228476  14.060  10.629   8.744
75527SOL     OW28477  14.562   8.791   0.695
75527SOL    HW128478  14.551   8.786   0.790
75527SOL    HW228479  14.527   8.876   0.671
75528SOL     OW28480   4.972   7.044  13.362
75528SOL    HW128481   4.927   7.118  13.323
75528SOL    HW228482   4.919   6.968  13.338
75529SOL     OW28483   8.451   9.783  12.187
75529SOL    HW128484   8.362   9.750  12.205
75529SOL    HW228485   8.501   9.705  12.163
75530SOL     OW28486   0.351   9.135   5.689
75530SOL    HW128487   0.302   9.214   5.711
75530SOL    HW228488   0.440   9.167   5.672
75531SOL     OW28489  14.769  10.533   2.172
75531SOL    HW128490  14.741  10.517   2.082
75531SOL    HW228491  14.855  10.575   2.164
75532SOL     OW28492   9.563   4.557   3.176
75532SOL    HW128493   9.642   4.508   3.153
75532SOL    HW228494   9.590   4.648   3.174
75533SOL     OW28495   0.163   8.213   0.663
75533SOL    HW128496   0.234   8.270   0.634
75533SOL    HW228497   0.087   8.270   0.672
75534SOL     OW28498   3.459  12.465   0.930
75534SOL    HW128499   3.508  12.392   0.968
75534SOL    HW228500   3.392  12.424   0.876
75535SOL     OW28501  10.500  13.022   9.943
75535SOL    HW128502  10.510  13.044  10.035
75535SOL    HW228503  10.411  13.050   9.921
75536SOL     OW28504   2.120   2.428   9.958
75536SOL    HW128505   2.111   2.514   9.917
75536SOL    HW228506   2.031   2.394   9.962
75537SOL     OW28507   5.312   0.039   8.563
75537SOL    HW128508   5.400   0.006   8.581
75537SOL    HW228509   5.321   0.087   8.481
75538SOL     OW28510   2.829   3.706  14.694
75538SOL    HW128511   2.821   3.705  14.789
75538SOL    HW228512   2.922   3.726  14.678
75539SOL     OW28513  13.170   4.759   7.577
75539SOL    HW128514  13.097   4.697   7.574
75539SOL    HW228515  13.129   4.845   7.567
75540SOL     OW28516  12.044   4.095   1.889
75540SOL    HW128517  12.072   4.117   1.800
75540SOL    HW228518  12.045   4.000   1.892
75541SOL     OW28519   1.518   6.070  14.347
75541SOL    HW128520   1.444   6.092  14.291
75541SOL    HW228521   1.480   6.022  14.420
75542SOL     OW28522   7.790   9.332   1.727
75542SOL    HW128523   7.704   9.373   1.737
75542SOL    HW228524   7.804   9.285   1.809
75543SOL     OW28525   1.558   7.629   2.705
75543SOL    HW128526   1.577   7.569   2.633
75543SOL    HW228527   1.562   7.575   2.783
75544SOL     OW28528  12.618   3.195  10.687
75544SOL    HW128529  12.690   3.211  10.748
75544SOL    HW228530  12.554   3.264  10.705
75545SOL     OW28531   2.860  10.262   8.750
75545SOL    HW128532   2.840  10.349   8.785
75545SOL    HW228533   2.870  10.207   8.827
75546SOL     OW28534   8.308   9.642   7.862
75546SOL    HW128535   8.214   9.635   7.879
75546SOL    HW228536   8.324   9.585   7.787
75547SOL     OW28537   3.539   3.701   9.019
75547SOL    HW128538   3.571   3.624   9.066
75547SOL    HW228539   3.594   3.773   9.051
75548SOL     OW28540   0.294   3.855  12.560
75548SOL    HW128541   0.367   3.795  12.560
75548SOL    HW228542   0.265   3.859  12.469
75549SOL     OW28543   2.050   8.874  10.543
75549SOL    HW128544   2.109   8.940  10.507
75549SOL    HW228545   2.109   8.810  10.584
75550SOL     OW28546   8.938   0.585   2.011
75550SOL    HW128547   9.004   0.612   2.075
75550SOL    HW228548   8.895   0.510   2.052
75551SOL     OW28549   7.640   4.348  12.604
75551SOL    HW128550   7.690   4.369  12.683
75551SOL    HW228551   7.684   4.270  12.569
75552SOL     OW28552   7.484  13.481   6.719
75552SOL    HW128553   7.493  13.407   6.779
75552SOL    HW228554   7.545  13.547   6.754
75553SOL     OW28555  12.594   8.045   6.519
75553SOL    HW128556  12.641   8.124   6.493
75553SOL    HW228557  12.573   8.058   6.611
75554SOL     OW28558   2.733   8.059   3.317
75554SOL    HW128559   2.754   8.003   3.242
75554SOL    HW228560   2.752   8.148   3.287
75555SOL     OW28561   5.408   6.887  14.714
75555SOL    HW128562   5.476   6.916  14.653
75555SOL    HW228563   5.425   6.794  14.728
75556SOL     OW28564   5.993   8.311   2.799
75556SOL    HW128565   6.085   8.321   2.776
75556SOL    HW228566   5.991   8.317   2.895
75557SOL     OW28567  14.331   7.667  14.099
75557SOL    HW128568  14.254   7.649  14.046
75557SOL    HW228569  14.303   7.737  14.158
75558SOL     OW28570  11.293   0.170   5.767
75558SOL    HW128571  11.212   0.138   5.807
75558SOL    HW228572  11.333   0.092   5.729
75559SOL     OW28573   2.299   2.233   8.733
75559SOL    HW128574   2.273   2.187   8.812
75559SOL    HW228575   2.228   2.295   8.716
75560SOL     OW28576   2.781   9.108  13.712
75560SOL    HW128577   2.776   9.145  13.624
75560SOL    HW228578   2.751   9.018  13.702
75561SOL     OW28579  13.084   4.600  10.279
75561SOL    HW128580  13.141   4.656  10.226
75561SOL    HW228581  13.141   4.563  10.346
75562SOL     OW28582  12.472  10.524   5.525
75562SOL    HW128583  12.538  10.487   5.466
75562SOL    HW228584  12.437  10.449   5.572
75563SOL     OW28585  14.334   8.132   5.907
75563SOL    HW128586  14.300   8.160   5.822
75563SOL    HW228587  14.420   8.174   5.913
75564SOL     OW28588  11.769   7.907  10.169
75564SOL    HW128589  11.696   7.928  10.227
75564SOL    HW228590  11.844   7.899  10.227
75565SOL     OW28591   0.756   6.037  11.812
75565SOL    HW128592   0.678   6.063  11.762
75565SOL    HW228593   0.740   6.069  11.901
75566SOL     OW28594  12.012   3.167   4.286
75566SOL    HW128595  11.996   3.219   4.365
75566SOL    HW228596  11.938   3.185   4.229
75567SOL     OW28597   5.021  11.966  14.357
75567SOL    HW128598   5.095  11.905  14.362
75567SOL    HW228599   4.947  11.916  14.390
75568SOL     OW28600   6.833   3.790  10.892
75568SOL    HW128601   6.798   3.871  10.928
75568SOL    HW228602   6.905   3.818  10.835
75569SOL     OW28603   5.961   5.178   6.973
75569SOL    HW128604   5.869   5.191   6.950
75569SOL    HW228605   6.003   5.153   6.891
75570SOL     OW28606   5.659  14.639   3.407
75570SOL    HW128607   5.700  14.561   3.371
75570SOL    HW228608   5.571  14.641   3.370
75571SOL     OW28609   9.469   0.399  10.082
75571SOL    HW128610   9.384   0.385  10.122
75571SOL    HW228611   9.459   0.369   9.991
75572SOL     OW28612  10.253   6.551  12.498
75572SOL    HW128613  10.260   6.645  12.515
75572SOL    HW228614  10.211   6.545  12.412
75573SOL     OW28615   8.602   9.411   2.630
75573SOL    HW128616   8.639   9.474   2.693
75573SOL    HW228617   8.514   9.394   2.662
75574SOL     OW28618  12.338  12.093   0.410
75574SOL    HW128619  12.319  12.082   0.317
75574SOL    HW228620  12.261  12.056   0.454
75575SOL     OW28621   7.674   0.146   8.130
75575SOL    HW128622   7.729   0.225   8.125
75575SOL    HW228623   7.608   0.159   8.062
75576SOL     OW28624  11.252  13.393  11.252
75576SOL    HW128625  11.333  13.344  11.237
75576SOL    HW228626  11.191  13.328  11.288
75577SOL     OW28627   4.099   6.657  12.348
75577SOL    HW128628   4.184   6.661  12.391
75577SOL    HW228629   4.064   6.571  12.372
75578SOL     OW28630   3.567   6.131  11.411
75578SOL    HW128631   3.647   6.080  11.421
75578SOL    HW228632   3.579   6.180  11.329
75579SOL     OW28633   9.252   3.875   9.840
75579SOL    HW128634   9.249   3.780   9.848
75579SOL    HW228635   9.265   3.907   9.929
75580SOL     OW28636  12.100   7.396  13.398
75580SOL    HW128637  12.110   7.312  13.354
75580SOL    HW228638  12.036   7.444  13.346
75581SOL     OW28639   2.630   7.287   0.751
75581SOL    HW128640   2.588   7.326   0.827
75581SOL    HW228641   2.693   7.353   0.722
75582SOL     OW28642   0.784   8.050   4.540
75582SOL    HW128643   0.768   8.008   4.455
75582SOL    HW228644   0.737   7.996   4.603
75583SOL     OW28645  11.707  14.737   6.636
75583SOL    HW128646  11.659  14.667   6.678
75583SOL    HW228647  11.744  14.697   6.557
75584SOL     OW28648   7.520   3.193  13.274
75584SOL    HW128649   7.610   3.223  13.261
75584SOL    HW228650   7.475   3.268  13.311
75585SOL     OW28651  10.644  14.734   9.883
75585SOL    HW128652  10.653  14.700   9.972
75585SOL    HW228653  10.655  14.828   9.892
75586SOL     OW28654   9.587   9.430  12.885
75586SOL    HW128655   9.587   9.340  12.853
75586SOL    HW228656   9.501   9.442  12.924
75587SOL     OW28657  11.941   8.082   7.168
75587SOL    HW128658  11.883   8.056   7.096
75587SOL    HW228659  11.895   8.055   7.247
75588SOL     OW28660   1.673   2.691   5.675
75588SOL    HW128661   1.762   2.717   5.651
75588SOL    HW228662   1.662   2.604   5.638
75589SOL     OW28663  11.974   4.808   0.548
75589SOL    HW128664  11.923   4.742   0.595
75589SOL    HW228665  11.948   4.798   0.456
75590SOL     OW28666   5.857   2.744   5.405
75590SOL    HW128667   5.927   2.793   5.449
75590SOL    HW228668   5.903   2.679   5.352
75591SOL     OW28669   7.753   0.333  12.997
75591SOL    HW128670   7.737   0.420  13.033
75591SOL    HW228671   7.837   0.307  13.035
75592SOL     OW28672  10.606   3.818   5.471
75592SOL    HW128673  10.530   3.876   5.481
75592SOL    HW228674  10.604   3.793   5.378
75593SOL     OW28675   7.403  14.840   7.679
75593SOL    HW128676   7.360  14.784   7.745
75593SOL    HW228677   7.395   0.060   7.715
75594SOL     OW28678   7.158  14.189   9.667
75594SOL    HW128679   7.232  14.186   9.726
75594SOL    HW228680   7.181  14.129   9.596
75595SOL     OW28681   2.809  13.583   3.354
75595SOL    HW128682   2.757  13.517   3.400
75595SOL    HW228683   2.749  13.656   3.340
75596SOL     OW28684  12.541   6.586   7.523
75596SOL    HW128685  12.570   6.676   7.508
75596SOL    HW228686  12.525   6.582   7.617
75597SOL     OW28687   8.438   4.387   9.151
75597SOL    HW128688   8.404   4.456   9.094
75597SOL    HW228689   8.371   4.375   9.218
75598SOL     OW28690  10.545   6.298   9.560
75598SOL    HW128691  10.598   6.325   9.485
75598SOL    HW228692  10.583   6.345   9.634
75599SOL     OW28693   0.775   9.440   9.457
75599SOL    HW128694   0.773   9.487   9.540
75599SOL    HW228695   0.694   9.389   9.455
75600SOL     OW28696   4.133   8.953  13.917
75600SOL    HW128697   4.191   8.880  13.937
75600SOL    HW228698   4.106   8.938  13.826
75601SOL     OW28699   1.098   1.647   1.537
75601SOL    HW128700   1.110   1.740   1.560
75601SOL    HW228701   1.186   1.610   1.541
75602SOL     OW28702  10.481   9.808   9.190
75602SOL    HW128703  10.575   9.796   9.176
75602SOL    HW228704  10.455   9.876   9.127
75603SOL     OW28705   2.923   5.676   7.017
75603SOL    HW128706   2.879   5.739   6.959
75603SOL    HW228707   3.001   5.722   7.046
75604SOL     OW28708   7.909   9.953   1.828
75604SOL    HW128709   7.948   9.869   1.851
75604SOL    HW228710   7.979  10.001   1.783
75605SOL     OW28711   6.957   3.138   9.851
75605SOL    HW128712   7.050   3.156   9.855
75605SOL    HW228713   6.938   3.130   9.757
75606SOL     OW28714   1.553  13.554  12.608
75606SOL    HW128715   1.573  13.505  12.687
75606SOL    HW228716   1.464  13.586  12.621
75607SOL     OW28717   3.854   4.184  12.962
75607SOL    HW128718   3.774   4.215  13.005
75607SOL    HW228719   3.884   4.259  12.910
75608SOL     OW28720   1.231   5.621   1.626
75608SOL    HW128721   1.303   5.683   1.618
75608SOL    HW228722   1.240   5.562   1.551
75609SOL     OW28723  11.246   9.840  12.502
75609SOL    HW128724  11.200   9.808  12.580
75609SOL    HW228725  11.179   9.845  12.434
75610SOL     OW28726   3.110  14.335  10.300
75610SOL    HW128727   3.186  14.369  10.348
75610SOL    HW228728   3.134  14.344  10.208
75611SOL     OW28729   6.634   9.741   0.802
75611SOL    HW128730   6.668   9.830   0.809
75611SOL    HW228731   6.688   9.701   0.734
75612SOL     OW28732   5.296   2.084  11.440
75612SOL    HW128733   5.388   2.097  11.463
75612SOL    HW228734   5.253   2.167  11.461
75613SOL     OW28735   6.698  11.738   7.150
75613SOL    HW128736   6.609  11.727   7.182
75613SOL    HW228737   6.707  11.672   7.081
75614SOL     OW28738  13.744  12.223  12.923
75614SOL    HW128739  13.832  12.252  12.948
75614SOL    HW228740  13.689  12.300  12.935
75615SOL     OW28741  11.395  10.823  14.713
75615SOL    HW128742  11.430  10.806  14.800
75615SOL    HW228743  11.418  10.915  14.696
75616SOL     OW28744   0.468   9.706   5.827
75616SOL    HW128745   0.466   9.746   5.914
75616SOL    HW228746   0.434   9.617   5.841
75617SOL     OW28747   5.394   2.037   5.033
75617SOL    HW128748   5.344   2.057   4.954
75617SOL    HW228749   5.331   1.995   5.091
75618SOL     OW28750  11.712   9.397  11.720
75618SOL    HW128751  11.626   9.356  11.725
75618SOL    HW228752  11.702   9.480  11.767
75619SOL     OW28753   6.587  11.390  10.744
75619SOL    HW128754   6.598  11.296  10.734
75619SOL    HW228755   6.669  11.420  10.782
75620SOL     OW28756  14.732   9.577   2.525
75620SOL    HW128757  14.645   9.538   2.520
75620SOL    HW228758  14.735   9.637   2.451
75621SOL     OW28759   5.124  13.534   2.440
75621SOL    HW128760   5.181  13.544   2.516
75621SOL    HW228761   5.058  13.471   2.467
75622SOL     OW28762   8.658   3.800  10.817
75622SOL    HW128763   8.619   3.887  10.828
75622SOL    HW228764   8.648   3.759  10.903
75623SOL     OW28765   4.665  11.414   4.533
75623SOL    HW128766   4.686  11.326   4.563
75623SOL    HW228767   4.590  11.402   4.475
75624SOL     OW28768   6.303  13.368  11.092
75624SOL    HW128769   6.391  13.360  11.056
75624SOL    HW228770   6.252  13.411  11.023
75625SOL     OW28771  10.120   2.957   1.003
75625SOL    HW128772  10.025   2.954   0.990
75625SOL    HW228773  10.145   2.865   1.014
75626SOL     OW28774  11.408   8.560   1.330
75626SOL    HW128775  11.360   8.507   1.393
75626SOL    HW228776  11.500   8.547   1.353
75627SOL     OW28777  10.784   5.418  11.656
75627SOL    HW128778  10.764   5.505  11.690
75627SOL    HW228779  10.817   5.433  11.567
75628SOL     OW28780   0.016   4.453   3.103
75628SOL    HW128781   0.043   4.419   3.018
75628SOL    HW228782  14.857   4.375   3.152
75629SOL     OW28783   5.745  13.112  12.286
75629SOL    HW128784   5.681  13.095  12.355
75629SOL    HW228785   5.702  13.176  12.229
75630SOL     OW28786   3.527   5.651  14.650
75630SOL    HW128787   3.576   5.593  14.707
75630SOL    HW228788   3.530   5.609  14.564
75631SOL     OW28789  10.672  14.365  13.655
75631SOL    HW128790  10.661  14.323  13.570
75631SOL    HW228791  10.749  14.421  13.644
75632SOL     OW28792   0.440   2.159   5.384
75632SOL    HW128793   0.348   2.187   5.389
75632SOL    HW228794   0.479   2.192   5.465
75633SOL     OW28795   9.428  11.105  10.170
75633SOL    HW128796   9.481  11.031  10.139
75633SOL    HW228797   9.340  11.087  10.137
75634SOL     OW28798  13.318   0.234   1.991
75634SOL    HW128799  13.330   0.193   2.077
75634SOL    HW228800  13.263   0.173   1.942
75635SOL     OW28801  10.455   3.212  13.845
75635SOL    HW128802  10.390   3.143  13.855
75635SOL    HW228803  10.532   3.169  13.809
75636SOL     OW28804   0.299   6.019   4.691
75636SOL    HW128805   0.230   6.085   4.689
75636SOL    HW228806   0.253   5.935   4.684
75637SOL     OW28807  14.076   6.466   5.637
75637SOL    HW128808  14.070   6.434   5.727
75637SOL    HW228809  14.005   6.421   5.590
75638SOL     OW28810   0.925   9.640  10.395
75638SOL    HW128811   0.841   9.638  10.348
75638SOL    HW228812   0.982   9.693  10.339
75639SOL     OW28813   5.783   3.768   0.236
75639SOL    HW128814   5.789   3.823   0.314
75639SOL    HW228815   5.845   3.807   0.174
75640SOL     OW28816   6.602  11.363   4.102
75640SOL    HW128817   6.519  11.324   4.130
75640SOL    HW228818   6.613  11.334   4.012
75641SOL     OW28819   9.584   6.507  12.130
75641SOL    HW128820   9.648   6.518  12.201
75641SOL    HW228821   9.630   6.454  12.064
75642SOL     OW28822   6.202   6.626   2.101
75642SOL    HW128823   6.137   6.636   2.032
75642SOL    HW228824   6.177   6.688   2.169
75643SOL     OW28825   1.882   2.416   2.608
75643SOL    HW128826   1.809   2.377   2.655
75643SOL    HW228827   1.851   2.504   2.584
75644SOL     OW28828  12.618   5.473   2.597
75644SOL    HW128829  12.691   5.507   2.545
75644SOL    HW228830  12.585   5.399   2.545
75645SOL     OW28831  12.232   5.949   5.250
75645SOL    HW128832  12.312   5.963   5.199
75645SOL    HW228833  12.236   5.857   5.276
75646SOL     OW28834   4.585   1.102   1.187
75646SOL    HW128835   4.658   1.055   1.229
75646SOL    HW228836   4.555   1.042   1.119
75647SOL     OW28837   6.550   2.423  12.356
75647SOL    HW128838   6.579   2.462  12.438
75647SOL    HW228839   6.483   2.360  12.382
75648SOL     OW28840  11.040  14.555  12.696
75648SOL    HW128841  11.076  14.629  12.744
75648SOL    HW228842  11.035  14.485  12.761
75649SOL     OW28843   6.680  14.776   2.341
75649SOL    HW128844   6.739  14.817   2.405
75649SOL    HW228845   6.594  14.814   2.360
75650SOL     OW28846  10.236   2.247   5.356
75650SOL    HW128847  10.264   2.164   5.316
75650SOL    HW228848  10.288   2.314   5.312
75651SOL     OW28849  12.115  11.126  13.255
75651SOL    HW128850  12.097  11.213  13.290
75651SOL    HW228851  12.121  11.069  13.332
75652SOL     OW28852  13.213   5.675  10.420
75652SOL    HW128853  13.120   5.695  10.417
75652SOL    HW228854  13.218   5.587  10.456
75653SOL     OW28855   2.897   5.670   4.563
75653SOL    HW128856   2.969   5.718   4.604
75653SOL    HW228857   2.900   5.696   4.471
75654SOL     OW28858  10.435   6.572   4.489
75654SOL    HW128859  10.363   6.601   4.545
75654SOL    HW228860  10.424   6.620   4.407
75655SOL     OW28861   3.441   3.029   0.302
75655SOL    HW128862   3.418   3.093   0.235
75655SOL    HW228863   3.470   3.082   0.376
75656SOL     OW28864   7.427   9.391  10.227
75656SOL    HW128865   7.372   9.370  10.151
75656SOL    HW228866   7.438   9.486  10.222
75657SOL     OW28867  10.430   4.705   7.611
75657SOL    HW128868  10.490   4.654   7.557
75657SOL    HW228869  10.429   4.792   7.570
75658SOL     OW28870   9.442  10.155  12.460
75658SOL    HW128871   9.371  10.206  12.422
75658SOL    HW228872   9.521  10.187  12.416
75659SOL     OW28873  11.347   3.746   6.676
75659SOL    HW128874  11.348   3.671   6.616
75659SOL    HW228875  11.257   3.748   6.710
75660SOL     OW28876   0.175   1.016  10.149
75660SOL    HW128877   0.269   0.998  10.155
75660SOL    HW228878   0.165   1.102  10.189
75661SOL     OW28879   8.898  10.656  13.951
75661SOL    HW128880   8.978  10.613  13.980
75661SOL    HW228881   8.854  10.591  13.896
75662SOL     OW28882   5.192  13.548   9.175
75662SOL    HW128883   5.256  13.490   9.217
75662SOL    HW228884   5.240  13.631   9.165
75663SOL     OW28885   0.601  10.213   1.353
75663SOL    HW128886   0.597  10.119   1.373
75663SOL    HW228887   0.688  10.240   1.380
75664SOL     OW28888   8.359   3.155   5.929
75664SOL    HW128889   8.354   3.170   5.834
75664SOL    HW228890   8.268   3.146   5.957
75665SOL     OW28891   4.276   7.960   2.857
75665SOL    HW128892   4.308   7.890   2.801
75665SOL    HW228893   4.300   8.040   2.811
75666SOL     OW28894   9.344  11.157   2.796
75666SOL    HW128895   9.341  11.102   2.717
75666SOL    HW228896   9.294  11.108   2.861
75667SOL     OW28897   4.353   9.648  12.163
75667SOL    HW128898   4.389   9.714  12.224
75667SOL    HW228899   4.273   9.689  12.129
75668SOL     OW28900  14.576  13.411  12.836
75668SOL    HW128901  14.658  13.364  12.842
75668SOL    HW228902  14.544  13.394  12.747
75669SOL     OW28903   0.858   4.406   6.158
75669SOL    HW128904   0.879   4.320   6.194
75669SOL    HW228905   0.762   4.407   6.150
75670SOL     OW28906  13.186   6.437  12.758
75670SOL    HW128907  13.117   6.493  12.795
75670SOL    HW228908  13.259   6.446  12.818
75671SOL     OW28909   2.581   7.382  10.111
75671SOL    HW128910   2.659   7.333  10.085
75671SOL    HW228911   2.528   7.388  10.032
75672SOL     OW28912   8.521   6.631   3.226
75672SOL    HW128913   8.595   6.569   3.226
75672SOL    HW228914   8.534   6.685   3.304
75673SOL     OW28915   9.323  12.317   1.296
75673SOL    HW128916   9.245  12.366   1.269
75673SOL    HW228917   9.381  12.383   1.334
75674SOL     OW28918   0.404   4.976   3.805
75674SOL    HW128919   0.385   5.020   3.888
75674SOL    HW228920   0.337   5.009   3.744
75675SOL     OW28921   8.669   1.780   3.403
75675SOL    HW128922   8.665   1.709   3.468
75675SOL    HW228923   8.658   1.736   3.319
75676SOL     OW28924   2.382  13.066  10.455
75676SOL    HW128925   2.297  13.083  10.496
75676SOL    HW228926   2.359  13.033  10.368
75677SOL     OW28927  14.826  13.600  13.975
75677SOL    HW128928  14.778  13.551  14.042
75677SOL    HW228929  14.764  13.612  13.904
75678SOL     OW28930   9.934   9.764  13.844
75678SOL    HW128931   9.943   9.712  13.923
75678SOL    HW228932   9.839   9.768  13.828
75679SOL     OW28933   4.319  10.515   3.141
75679SOL    HW128934   4.403  10.544   3.107
75679SOL    HW228935   4.330  10.514   3.236
75680SOL     OW28936  10.282   4.197   7.626
75680SOL    HW128937  10.236   4.213   7.544
75680SOL    HW228938  10.252   4.111   7.654
75681SOL     OW28939  12.988   9.522  10.778
75681SOL    HW128940  13.058   9.558  10.724
75681SOL    HW228941  13.030   9.496  10.859
75682SOL     OW28942   7.101  12.368   4.019
75682SOL    HW128943   7.073  12.298   4.077
75682SOL    HW228944   7.020  12.402   3.982
75683SOL     OW28945   8.510   6.347   7.896
75683SOL    HW128946   8.561   6.422   7.866
75683SOL    HW228947   8.419   6.375   7.888
75684SOL     OW28948   6.269   4.165   7.864
75684SOL    HW128949   6.262   4.217   7.944
75684SOL    HW228950   6.182   4.127   7.853
75685SOL     OW28951   6.648   7.879   8.737
75685SOL    HW128952   6.698   7.811   8.691
75685SOL    HW228953   6.601   7.832   8.805
75686SOL     OW28954  12.270  14.337  11.055
75686SOL    HW128955  12.298  14.403  11.119
75686SOL    HW228956  12.197  14.292  11.097
75687SOL     OW28957   8.944   2.370   0.134
75687SOL    HW128958   8.856   2.372   0.170
75687SOL    HW228959   8.984   2.292   0.171
75688SOL     OW28960   8.063  10.665   3.599
75688SOL    HW128961   8.015  10.730   3.651
75688SOL    HW228962   8.060  10.585   3.653
75689SOL     OW28963  11.633   1.901   6.469
75689SOL    HW128964  11.659   1.934   6.383
75689SOL    HW228965  11.638   1.806   6.460
75690SOL     OW28966   3.233   2.518  12.785
75690SOL    HW128967   3.152   2.564  12.765
75690SOL    HW228968   3.212   2.426  12.771
75691SOL     OW28969   5.638   9.138   2.170
75691SOL    HW128970   5.545   9.162   2.167
75691SOL    HW228971   5.684   9.222   2.163
75692SOL     OW28972   1.124  10.621   9.569
75692SOL    HW128973   1.044  10.640   9.619
75692SOL    HW228974   1.105  10.653   9.481
75693SOL     OW28975  14.346   6.483   4.011
75693SOL    HW128976  14.356   6.572   4.045
75693SOL    HW228977  14.430   6.463   3.970
75694SOL     OW28978  10.573   6.984  13.490
75694SOL    HW128979  10.604   6.955  13.575
75694SOL    HW228980  10.499   7.041  13.510
75695SOL     OW28981  12.182   4.232   2.132
75695SOL    HW128982  12.193   4.320   2.097
75695SOL    HW228983  12.115   4.192   2.075
75696SOL     OW28984  10.922  14.306   0.921
75696SOL    HW128985  11.001  14.335   0.966
75696SOL    HW228986  10.954  14.252   0.849
75697SOL     OW28987  14.617  10.930   4.768
75697SOL    HW128988  14.685  10.989   4.800
75697SOL    HW228989  14.649  10.842   4.787
75698SOL     OW28990   7.863   1.977  13.524
75698SOL    HW128991   7.875   1.999  13.431
75698SOL    HW228992   7.777   2.012  13.546
75699SOL     OW28993   5.688  13.897   9.248
75699SOL    HW128994   5.766  13.842   9.256
75699SOL    HW228995   5.626  13.844   9.198
75700SOL     OW28996   6.155  13.755  12.221
75700SOL    HW128997   6.126  13.830  12.274
75700SOL    HW228998   6.192  13.694  12.285
75701SOL     OW28999  12.702   5.849   5.093
75701SOL    HW129000  12.726   5.760   5.068
75701SOL    HW229001  12.673   5.841   5.184
75702SOL     OW29002   8.556  14.328   6.048
75702SOL    HW129003   8.511  14.412   6.060
75702SOL    HW229004   8.635  14.336   6.101
75703SOL     OW29005   9.509   1.197  11.103
75703SOL    HW129006   9.474   1.275  11.147
75703SOL    HW229007   9.601   1.194  11.130
75704SOL     OW29008   1.798   8.422  14.385
75704SOL    HW129009   1.752   8.505  14.397
75704SOL    HW229010   1.733   8.355  14.404
75705SOL     OW29011  10.221   5.317  10.866
75705SOL    HW129012  10.203   5.238  10.814
75705SOL    HW229013  10.276   5.371  10.810
75706SOL     OW29014   3.118   7.117   0.203
75706SOL    HW129015   3.111   7.146   0.112
75706SOL    HW229016   3.168   7.036   0.198
75707SOL     OW29017   1.787   5.460   7.479
75707SOL    HW129018   1.844   5.528   7.515
75707SOL    HW229019   1.845   5.387   7.458
75708SOL     OW29020   6.690  10.672   3.302
75708SOL    HW129021   6.688  10.687   3.208
75708SOL    HW229022   6.776  10.633   3.318
75709SOL     OW29023   1.581  10.020   2.195
75709SOL    HW129024   1.577  10.112   2.171
75709SOL    HW229025   1.514  10.010   2.263
75710SOL     OW29026  13.777   9.311  13.303
75710SOL    HW129027  13.841   9.267  13.247
75710SOL    HW229028  13.828   9.376  13.351
75711SOL     OW29029  12.288  13.063   7.893
75711SOL    HW129030  12.231  13.083   7.820
75711SOL    HW229031  12.229  13.048   7.967
75712SOL     OW29032  14.793   7.085   3.973
75712SOL    HW129033  14.758   7.043   3.895
75712SOL    HW229034  14.749   7.041   4.046
75713SOL     OW29035   5.870   2.677   2.435
75713SOL    HW129036   5.880   2.770   2.457
75713SOL    HW229037   5.954   2.653   2.396
75714SOL     OW29038   1.018  13.310   2.419
75714SOL    HW129039   1.043  13.321   2.328
75714SOL    HW229040   1.096  13.333   2.469
75715SOL     OW29041   6.971  11.314   0.526
75715SOL    HW129042   6.923  11.377   0.473
75715SOL    HW229043   7.013  11.368   0.594
75716SOL     OW29044   4.676   0.195  10.551
75716SOL    HW129045   4.644   0.125  10.495
75716SOL    HW229046   4.599   0.224  10.600
75717SOL     OW29047   6.260   4.361   4.644
75717SOL    HW129048   6.247   4.267   4.645
75717SOL    HW229049   6.354   4.373   4.662
75718SOL     OW29050   5.630   9.169  13.259
75718SOL    HW129051   5.632   9.075  13.241
75718SOL    HW229052   5.609   9.209  13.175
75719SOL     OW29053   2.202   3.790   7.263
75719SOL    HW129054   2.255   3.812   7.186
75719SOL    HW229055   2.113   3.783   7.230
75720SOL     OW29056   6.720   8.122  14.357
75720SOL    HW129057   6.664   8.158  14.289
75720SOL    HW229058   6.667   8.053  14.397
75721SOL     OW29059   2.193   2.358   0.712
75721SOL    HW129060   2.115   2.307   0.690
75721SOL    HW229061   2.181   2.381   0.804
75722SOL     OW29062   2.001  13.744   3.595
75722SOL    HW129063   2.089  13.767   3.625
75722SOL    HW229064   1.958  13.709   3.673
75723SOL     OW29065   7.144  13.795  11.043
75723SOL    HW129066   7.152  13.819  10.951
75723SOL    HW229067   7.078  13.856  11.077
75724SOL     OW29068   2.534  14.071   9.192
75724SOL    HW129069   2.471  14.006   9.161
75724SOL    HW229070   2.481  14.137   9.236
75725SOL     OW29071   0.718  13.262  12.331
75725SOL    HW129072   0.753  13.208  12.261
75725SOL    HW229073   0.624  13.270  12.311
75726SOL     OW29074   9.578   1.582  11.018
75726SOL    HW129075   9.518   1.509  11.003
75726SOL    HW229076   9.525   1.649  11.060
75727SOL     OW29077   4.732   6.074  11.530
75727SOL    HW129078   4.704   6.020  11.604
75727SOL    HW229079   4.671   6.149  11.531
75728SOL     OW29080   4.228   6.540  12.989
75728SOL    HW129081   4.281   6.611  13.027
75728SOL    HW229082   4.156   6.585  12.945
75729SOL     OW29083  13.784  11.769   8.225
75729SOL    HW129084  13.779  11.759   8.130
75729SOL    HW229085  13.697  11.798   8.251
75730SOL     OW29086  11.380  14.337   6.578
75730SOL    HW129087  11.356  14.259   6.630
75730SOL    HW229088  11.298  14.363   6.536
75731SOL     OW29089   8.612  10.429  13.146
75731SOL    HW129090   8.570  10.344  13.133
75731SOL    HW229091   8.568  10.487  13.084
75732SOL     OW29092   4.591  11.408   1.918
75732SOL    HW129093   4.557  11.498   1.920
75732SOL    HW229094   4.673  11.413   1.967
75733SOL     OW29095   9.605  12.742   6.782
75733SOL    HW129096   9.622  12.788   6.865
75733SOL    HW229097   9.674  12.772   6.724
75734SOL     OW29098  14.208   7.263   2.761
75734SOL    HW129099  14.202   7.273   2.857
75734SOL    HW229100  14.250   7.344   2.732
75735SOL     OW29101   9.309   4.639   8.884
75735SOL    HW129102   9.305   4.617   8.791
75735SOL    HW229103   9.228   4.601   8.920
75736SOL     OW29104   2.669   2.012   3.163
75736SOL    HW129105   2.750   2.059   3.141
75736SOL    HW229106   2.613   2.078   3.203
75737SOL     OW29107   8.131   0.586   4.459
75737SOL    HW129108   8.143   0.541   4.375
75737SOL    HW229109   8.209   0.641   4.467
75738SOL     OW29110   9.390   1.049  10.147
75738SOL    HW129111   9.312   1.025  10.197
75738SOL    HW229112   9.436   1.111  10.204
75739SOL     OW29113   2.291  12.516  11.309
75739SOL    HW129114   2.325  12.455  11.375
75739SOL    HW229115   2.197  12.500  11.308
75740SOL     OW29116   8.298   6.550   3.942
75740SOL    HW129117   8.392   6.558   3.959
75740SOL    HW229118   8.257   6.569   4.026
75741SOL     OW29119   4.202  12.557   5.944
75741SOL    HW129120   4.292  12.555   5.911
75741SOL    HW229121   4.157  12.487   5.895
75742SOL     OW29122  11.766   2.839  11.818
75742SOL    HW129123  11.794   2.925  11.849
75742SOL    HW229124  11.781   2.780  11.892
75743SOL     OW29125   2.227   3.958   7.632
75743SOL    HW129126   2.184   3.911   7.703
75743SOL    HW229127   2.263   4.036   7.672
75744SOL     OW29128  12.094  11.590  14.564
75744SOL    HW129129  12.034  11.604  14.637
75744SOL    HW229130  12.058  11.645  14.494
75745SOL     OW29131   1.994   6.885   4.414
75745SOL    HW129132   2.038   6.957   4.459
75745SOL    HW229133   1.958   6.924   4.335
75746SOL     OW29134  12.695   3.945  11.927
75746SOL    HW129135  12.731   4.033  11.920
75746SOL    HW229136  12.623   3.944  11.863
75747SOL     OW29137   9.891   3.704  11.243
75747SOL    HW129138   9.941   3.652  11.181
75747SOL    HW229139   9.951   3.717  11.318
75748SOL     OW29140  10.437   8.906   4.019
75748SOL    HW129141  10.374   8.906   4.091
75748SOL    HW229142  10.431   8.818   3.981
75749SOL     OW29143  13.553   1.606   7.703
75749SOL    HW129144  13.520   1.599   7.793
75749SOL    HW229145  13.621   1.538   7.698
75750SOL     OW29146  11.238   0.406   3.766
75750SOL    HW129147  11.201   0.381   3.850
75750SOL    HW229148  11.249   0.501   3.772
75751SOL     OW29149   0.218  13.879   4.145
75751SOL    HW129150   0.146  13.932   4.181
75751SOL    HW229151   0.263  13.845   4.222
75752SOL     OW29152   6.516  11.648  14.767
75752SOL    HW129153   6.530  11.598  14.687
75752SOL    HW229154   6.529  11.740  14.741
75753SOL     OW29155   0.007   3.671   0.891
75753SOL    HW129156   0.081   3.671   0.951
75753SOL    HW229157  14.812   3.611   0.930
75754SOL     OW29158  11.564   1.378  12.765
75754SOL    HW129159  11.474   1.406  12.778
75754SOL    HW229160  11.582   1.318  12.837
75755SOL     OW29161   3.591   0.432  13.926
75755SOL    HW129162   3.654   0.360  13.933
75755SOL    HW229163   3.535   0.408  13.852
75756SOL     OW29164   3.018  14.573   8.380
75756SOL    HW129165   3.027  14.666   8.403
75756SOL    HW229166   2.940  14.544   8.428
75757SOL     OW29167   2.547   5.221  14.786
75757SOL    HW129168   2.564   5.303  14.740
75757SOL    HW229169   2.453   5.206  14.777
75758SOL     OW29170  12.377   0.519   2.852
75758SOL    HW129171  12.324   0.589   2.814
75758SOL    HW229172  12.408   0.469   2.776
75759SOL     OW29173  10.204   8.479   1.222
75759SOL    HW129174  10.159   8.564   1.227
75759SOL    HW229175  10.137   8.415   1.246
75760SOL     OW29176   1.819   2.865  13.402
75760SOL    HW129177   1.891   2.925  13.422
75760SOL    HW229178   1.785   2.839  13.487
75761SOL     OW29179   8.479  10.060  13.668
75761SOL    HW129180   8.493   9.969  13.640
75761SOL    HW229181   8.530  10.068  13.749
75762SOL     OW29182  11.071   4.097   4.171
75762SOL    HW129183  11.102   4.115   4.260
75762SOL    HW229184  11.137   4.040   4.133
75763SOL     OW29185  12.002   7.666  13.318
75763SOL    HW129186  12.085   7.677  13.365
75763SOL    HW229187  11.940   7.640  13.386
75764SOL     OW29188   0.180   2.815   4.051
75764SOL    HW129189   0.154   2.791   3.961
75764SOL    HW229190   0.275   2.810   4.050
75765SOL     OW29191   4.391   9.727   0.674
75765SOL    HW129192   4.367   9.753   0.762
75765SOL    HW229193   4.431   9.805   0.635
75766SOL     OW29194   0.136   1.653   2.510
75766SOL    HW129195   0.214   1.660   2.455
75766SOL    HW229196   0.127   1.739   2.550
75767SOL     OW29197   3.954  10.400   9.671
75767SOL    HW129198   3.889  10.402   9.600
75767SOL    HW229199   4.026  10.455   9.639
75768SOL     OW29200  12.182   9.061   6.700
75768SOL    HW129201  12.170   8.975   6.659
75768SOL    HW229202  12.267   9.092   6.668
75769SOL     OW29203   9.797   1.192   3.993
75769SOL    HW129204   9.765   1.168   3.906
75769SOL    HW229205   9.722   1.179   4.050
75770SOL     OW29206   0.328  10.852   1.279
75770SOL    HW129207   0.310  10.849   1.373
75770SOL    HW229208   0.418  10.819   1.271
75771SOL     OW29209  10.661   0.717  12.291
75771SOL    HW129210  10.700   0.687  12.373
75771SOL    HW229211  10.726   0.695  12.224
75772SOL     OW29212   6.384  12.217  13.436
75772SOL    HW129213   6.408  12.205  13.344
75772SOL    HW229214   6.294  12.183  13.441
75773SOL     OW29215  12.465  14.452   5.137
75773SOL    HW129216  12.434  14.431   5.049
75773SOL    HW229217  12.439  14.378   5.191
75774SOL     OW29218   5.219   3.992  11.939
75774SOL    HW129219   5.270   4.015  11.861
75774SOL    HW229220   5.281   4.002  12.011
75775SOL     OW29221   4.509   4.089  12.827
75775SOL    HW129222   4.596   4.103  12.863
75775SOL    HW229223   4.505   3.994  12.812
75776SOL     OW29224   4.866   6.330  10.002
75776SOL    HW129225   4.833   6.253   9.956
75776SOL    HW229226   4.870   6.302  10.094
75777SOL     OW29227   2.312   2.708  14.810
75777SOL    HW129228   2.271   2.748   0.019
75777SOL    HW229229   2.339   2.622  14.841
75778SOL     OW29230   2.241   1.057   9.027
75778SOL    HW129231   2.322   1.027   8.987
75778SOL    HW229232   2.247   1.152   9.027
75779SOL     OW29233   1.993   2.845   6.165
75779SOL    HW129234   1.990   2.926   6.114
75779SOL    HW229235   2.016   2.778   6.100
75780SOL     OW29236   5.483   3.285   3.306
75780SOL    HW129237   5.481   3.282   3.401
75780SOL    HW229238   5.395   3.258   3.279
75781SOL     OW29239   5.018  14.005   2.652
75781SOL    HW129240   4.965  14.071   2.695
75781SOL    HW229241   5.104  14.012   2.694
75782SOL     OW29242  13.479   0.905   4.679
75782SOL    HW129243  13.413   0.934   4.616
75782SOL    HW229244  13.431   0.848   4.739
75783SOL     OW29245   4.642  10.299   0.194
75783SOL    HW129246   4.666  10.230   0.256
75783SOL    HW229247   4.641  10.379   0.247
75784SOL     OW29248   4.820  13.837   7.148
75784SOL    HW129249   4.818  13.867   7.057
75784SOL    HW229250   4.750  13.771   7.153
75785SOL     OW29251   6.360   8.804   5.123
75785SOL    HW129252   6.286   8.749   5.096
75785SOL    HW229253   6.415   8.746   5.175
75786SOL     OW29254  11.300   7.665  13.763
75786SOL    HW129255  11.300   7.672  13.667
75786SOL    HW229256  11.292   7.571  13.780
75787SOL     OW29257   4.099   9.737   2.306
75787SOL    HW129258   4.051   9.795   2.248
75787SOL    HW229259   4.070   9.760   2.394
75788SOL     OW29260   8.275  14.268   2.661
75788SOL    HW129261   8.311  14.346   2.619
75788SOL    HW229262   8.235  14.301   2.742
75789SOL     OW29263   6.572  11.923  14.755
75789SOL    HW129264   6.626  11.944  14.679
75789SOL    HW229265   6.485  11.957  14.733
75790SOL     OW29266   9.730   4.626   6.907
75790SOL    HW129267   9.674   4.702   6.923
75790SOL    HW229268   9.710   4.600   6.817
75791SOL     OW29269   5.979  12.573   9.857
75791SOL    HW129270   6.001  12.596   9.767
75791SOL    HW229271   5.911  12.636   9.882
75792SOL     OW29272   9.181   9.644   3.781
75792SOL    HW129273   9.213   9.701   3.711
75792SOL    HW229274   9.087   9.659   3.784
75793SOL     OW29275  14.517  12.950   5.241
75793SOL    HW129276  14.577  13.022   5.223
75793SOL    HW229277  14.448  12.958   5.175
75794SOL     OW29278  12.711  11.809   0.011
75794SOL    HW129279  12.620  11.826   0.035
75794SOL    HW229280  12.752  11.896   0.008
75795SOL     OW29281  12.522   6.707  14.708
75795SOL    HW129282  12.437   6.665  14.719
75795SOL    HW229283  12.544   6.740  14.795
75796SOL     OW29284   3.078   9.043   8.216
75796SOL    HW129285   3.040   9.002   8.137
75796SOL    HW229286   3.148   8.983   8.242
75797SOL     OW29287   2.158   4.829  12.996
75797SOL    HW129288   2.064   4.829  12.979
75797SOL    HW229289   2.169   4.891  13.068
75798SOL     OW29290  13.372   3.256   0.045
75798SOL    HW129291  13.446   3.317   0.039
75798SOL    HW229292  13.410   3.177   0.081
75799SOL     OW29293   8.451   7.451  12.951
75799SOL    HW129294   8.539   7.483  12.971
75799SOL    HW229295   8.465   7.359  12.928
75800SOL     OW29296  11.053   9.894   8.539
75800SOL    HW129297  10.993   9.861   8.472
75800SOL    HW229298  10.996   9.925   8.609
75801SOL     OW29299  11.454   3.945  14.835
75801SOL    HW129300  11.442   3.866   0.019
75801SOL    HW229301  11.530   3.988   0.006
75802SOL     OW29302   9.326   9.207   7.129
75802SOL    HW129303   9.387   9.193   7.202
75802SOL    HW229304   9.369   9.272   7.074
75803SOL     OW29305   6.121   8.385   0.979
75803SOL    HW129306   6.050   8.448   0.965
75803SOL    HW229307   6.088   8.303   0.942
75804SOL     OW29308   7.775   8.274  13.506
75804SOL    HW129309   7.738   8.360  13.487
75804SOL    HW229310   7.852   8.293  13.559
75805SOL     OW29311   3.887   9.629   6.819
75805SOL    HW129312   3.961   9.625   6.879
75805SOL    HW229313   3.819   9.577   6.861
75806SOL     OW29314   2.748  12.435  12.536
75806SOL    HW129315   2.692  12.359  12.521
75806SOL    HW229316   2.788  12.452  12.451
75807SOL     OW29317   4.958   0.776  10.410
75807SOL    HW129318   4.961   0.792  10.504
75807SOL    HW229319   4.871   0.803  10.383
75808SOL     OW29320   2.730   6.937  13.027
75808SOL    HW129321   2.775   6.870  12.977
75808SOL    HW229322   2.766   6.931  13.115
75809SOL     OW29323  12.074   2.372   6.439
75809SOL    HW129324  12.069   2.279   6.462
75809SOL    HW229325  12.059   2.374   6.345
75810SOL     OW29326   6.621   6.271  14.725
75810SOL    HW129327   6.561   6.199  14.706
75810SOL    HW229328   6.563   6.343  14.752
75811SOL     OW29329   9.323  12.128   8.128
75811SOL    HW129330   9.257  12.095   8.189
75811SOL    HW229331   9.403  12.082   8.152
75812SOL     OW29332  13.569  12.016   3.003
75812SOL    HW129333  13.508  12.047   2.936
75812SOL    HW229334  13.638  12.083   3.005
75813SOL     OW29335   1.105   3.492   4.324
75813SOL    HW129336   1.122   3.576   4.280
75813SOL    HW229337   1.173   3.486   4.391
75814SOL     OW29338   6.403   4.837  10.671
75814SOL    HW129339   6.316   4.874  10.652
75814SOL    HW229340   6.463   4.911  10.659
75815SOL     OW29341   3.462  13.829  13.429
75815SOL    HW129342   3.523  13.865  13.493
75815SOL    HW229343   3.487  13.737  13.421
75816SOL     OW29344   4.569  11.284   3.335
75816SOL    HW129345   4.494  11.290   3.277
75816SOL    HW229346   4.645  11.304   3.280
75817SOL     OW29347   7.467   1.980  12.003
75817SOL    HW129348   7.470   1.906  11.943
75817SOL    HW229349   7.412   1.950  12.076
75818SOL     OW29350   7.441  13.517  12.404
75818SOL    HW129351   7.521  13.486  12.363
75818SOL    HW229352   7.372  13.462  12.367
75819SOL     OW29353   8.639   7.623   8.079
75819SOL    HW129354   8.632   7.562   8.006
75819SOL    HW229355   8.570   7.597   8.140
75820SOL     OW29356  12.653   8.202   8.207
75820SOL    HW129357  12.636   8.296   8.204
75820SOL    HW229358  12.740   8.195   8.246
75821SOL     OW29359   3.729   2.780   8.937
75821SOL    HW129360   3.730   2.839   8.861
75821SOL    HW229361   3.718   2.838   9.012
75822SOL     OW29362   3.864   8.885   8.797
75822SOL    HW129363   3.787   8.861   8.848
75822SOL    HW229364   3.898   8.963   8.842
75823SOL     OW29365  12.257   2.277   0.036
75823SOL    HW129366  12.199   2.286   0.111
75823SOL    HW229367  12.335   2.327   0.059
75824SOL     OW29368   3.334  10.948   6.465
75824SOL    HW129369   3.383  10.911   6.392
75824SOL    HW229370   3.265  11.000   6.423
75825SOL     OW29371   2.880   2.128   1.195
75825SOL    HW129372   2.924   2.204   1.157
75825SOL    HW229373   2.832   2.164   1.270
75826SOL     OW29374   4.793   0.873  11.824
75826SOL    HW129375   4.799   0.793  11.771
75826SOL    HW229376   4.883   0.906  11.829
75827SOL     OW29377   1.280   5.371   0.297
75827SOL    HW129378   1.208   5.312   0.278
75827SOL    HW229379   1.242   5.459   0.286
75828SOL     OW29380  13.085  10.032   6.181
75828SOL    HW129381  13.046  10.118   6.198
75828SOL    HW229382  13.178  10.050   6.168
75829SOL     OW29383  14.403   1.432   9.689
75829SOL    HW129384  14.407   1.499   9.621
75829SOL    HW229385  14.374   1.353   9.643
75830SOL     OW29386   1.901   9.384  13.835
75830SOL    HW129387   1.913   9.323  13.908
75830SOL    HW229388   1.817   9.425  13.851
75831SOL     OW29389   0.882   4.271   0.951
75831SOL    HW129390   0.947   4.205   0.926
75831SOL    HW229391   0.925   4.354   0.932
75832SOL     OW29392   1.480   1.777   0.401
75832SOL    HW129393   1.566   1.819   0.393
75832SOL    HW229394   1.420   1.837   0.356
75833SOL     OW29395   3.892   4.686   3.396
75833SOL    HW129396   3.880   4.721   3.484
75833SOL    HW229397   3.940   4.754   3.349
75834SOL     OW29398  14.300  14.841   8.774
75834SOL    HW129399  14.284   0.038   8.842
75834SOL    HW229400  14.395  14.829   8.774
75835SOL     OW29401   1.665   8.163  12.393
75835SOL    HW129402   1.724   8.104  12.439
75835SOL    HW229403   1.667   8.134  12.302
75836SOL     OW29404   3.322   2.501   3.889
75836SOL    HW129405   3.237   2.540   3.906
75836SOL    HW229406   3.385   2.559   3.933
75837SOL     OW29407   8.746   5.827   8.577
75837SOL    HW129408   8.710   5.824   8.666
75837SOL    HW229409   8.823   5.882   8.584
75838SOL     OW29410  14.685  12.280  10.299
75838SOL    HW129411  14.631  12.340  10.350
75838SOL    HW229412  14.702  12.326  10.217
75839SOL     OW29413   8.374  13.061   0.777
75839SOL    HW129414   8.338  13.048   0.689
75839SOL    HW229415   8.452  13.115   0.764
75840SOL     OW29416   0.678  14.267   1.649
75840SOL    HW129417   0.602  14.288   1.704
75840SOL    HW229418   0.647  14.278   1.559
75841SOL     OW29419   5.001   0.804   0.992
75841SOL    HW129420   4.927   0.849   0.951
75841SOL    HW229421   4.983   0.711   0.979
75842SOL     OW29422   5.911   3.538   7.915
75842SOL    HW129423   5.871   3.496   7.839
75842SOL    HW229424   5.841   3.588   7.955
75843SOL     OW29425   6.418  13.642  11.491
75843SOL    HW129426   6.425  13.727  11.448
75843SOL    HW229427   6.382  13.584  11.424
75844SOL     OW29428  13.977   9.128  12.240
75844SOL    HW129429  13.980   9.180  12.320
75844SOL    HW229430  14.060   9.148  12.196
75845SOL     OW29431   0.713  14.482   6.227
75845SOL    HW129432   0.631  14.433   6.226
75845SOL    HW229433   0.779  14.419   6.198
75846SOL     OW29434  12.280  11.469   6.585
75846SOL    HW129435  12.344  11.429   6.526
75846SOL    HW229436  12.316  11.555   6.606
75847SOL     OW29437  10.293   6.703  13.637
75847SOL    HW129438  10.293   6.673  13.546
75847SOL    HW229439  10.312   6.625  13.688
75848SOL     OW29440   4.963   1.846   2.887
75848SOL    HW129441   4.892   1.788   2.913
75848SOL    HW229442   4.946   1.867   2.795
75849SOL     OW29443   8.207   6.696  12.292
75849SOL    HW129444   8.183   6.613  12.251
75849SOL    HW229445   8.180   6.763  12.229
75850SOL     OW29446  12.726   0.327   8.348
75850SOL    HW129447  12.655   0.385   8.321
75850SOL    HW229448  12.687   0.269   8.413
75851SOL     OW29449  12.752   1.272  10.992
75851SOL    HW129450  12.714   1.218  10.923
75851SOL    HW229451  12.744   1.362  10.959
75852SOL     OW29452   0.944   2.032   3.495
75852SOL    HW129453   0.967   2.073   3.412
75852SOL    HW229454   0.998   2.078   3.560
75853SOL     OW29455   7.587  14.423   4.929
75853SOL    HW129456   7.675  14.417   4.893
75853SOL    HW229457   7.547  14.339   4.906
75854SOL     OW29458  11.722   7.545   5.142
75854SOL    HW129459  11.806   7.504   5.122
75854SOL    HW229460  11.743   7.610   5.210
75855SOL     OW29461   2.627  13.240   2.115
75855SOL    HW129462   2.619  13.272   2.025
75855SOL    HW229463   2.693  13.298   2.155
75856SOL     OW29464   9.477  13.153  11.056
75856SOL    HW129465   9.571  13.136  11.064
75856SOL    HW229466   9.452  13.113  10.973
75857SOL     OW29467   0.607   5.149   8.361
75857SOL    HW129468   0.579   5.070   8.407
75857SOL    HW229469   0.608   5.125   8.269
75858SOL     OW29470  14.533  10.861  13.770
75858SOL    HW129471  14.622  10.835  13.793
75858SOL    HW229472  14.480  10.833  13.844
75859SOL     OW29473  11.044   8.992   8.893
75859SOL    HW129474  11.023   9.057   8.961
75859SOL    HW229475  11.045   9.043   8.812
75860SOL     OW29476  10.778   8.505   2.006
75860SOL    HW129477  10.704   8.465   2.052
75860SOL    HW229478  10.743   8.524   1.918
75861SOL     OW29479  10.357   7.698   7.419
75861SOL    HW129480  10.281   7.676   7.472
75861SOL    HW229481  10.321   7.747   7.345
75862SOL     OW29482   4.911   5.787   0.888
75862SOL    HW129483   4.905   5.847   0.813
75862SOL    HW229484   4.825   5.745   0.891
75863SOL     OW29485  12.337   1.488   4.206
75863SOL    HW129486  12.351   1.541   4.128
75863SOL    HW229487  12.369   1.542   4.278
75864SOL     OW29488   5.673  10.394   0.907
75864SOL    HW129489   5.623  10.343   0.972
75864SOL    HW229490   5.606  10.443   0.859
75865SOL     OW29491   8.106   6.325   8.038
75865SOL    HW129492   8.061   6.317   7.954
75865SOL    HW229493   8.114   6.419   8.053
75866SOL     OW29494   0.643  12.689   7.255
75866SOL    HW129495   0.607  12.723   7.173
75866SOL    HW229496   0.569  12.643   7.296
75867SOL     OW29497  13.524   0.899   6.428
75867SOL    HW129498  13.437   0.889   6.468
75867SOL    HW229499  13.507   0.946   6.346
75868SOL     OW29500   1.723   2.334  14.048
75868SOL    HW129501   1.711   2.267  14.116
75868SOL    HW229502   1.637   2.375  14.039
75869SOL     OW29503   9.060   7.442   4.452
75869SOL    HW129504   8.988   7.401   4.403
75869SOL    HW229505   9.051   7.535   4.433
75870SOL     OW29506  13.671  11.365   3.194
75870SOL    HW129507  13.649  11.359   3.102
75870SOL    HW229508  13.597  11.410   3.235
75871SOL     OW29509  13.659  14.690   7.592
75871SOL    HW129510  13.637  14.730   7.507
75871SOL    HW229511  13.710  14.757   7.637
75872SOL     OW29512  12.649   7.975   9.148
75872SOL    HW129513  12.736   7.996   9.113
75872SOL    HW229514  12.666   7.937   9.234
75873SOL     OW29515   1.979  13.735  10.814
75873SOL    HW129516   2.067  13.767  10.796
75873SOL    HW229517   1.993  13.651  10.859
75874SOL     OW29518   2.015   2.362   5.028
75874SOL    HW129519   2.048   2.278   4.994
75874SOL    HW229520   1.934   2.377   4.980
75875SOL     OW29521   3.288  13.346  13.849
75875SOL    HW129522   3.233  13.423  13.864
75875SOL    HW229523   3.352  13.375  13.785
75876SOL     OW29524   5.055  14.761   0.952
75876SOL    HW129525   4.992  14.732   1.019
75876SOL    HW229526   5.002  14.808   0.888
75877SOL     OW29527  10.692   9.721   2.367
75877SOL    HW129528  10.684   9.626   2.357
75877SOL    HW229529  10.674   9.756   2.280
75878SOL     OW29530   4.497   2.375   9.438
75878SOL    HW129531   4.494   2.315   9.364
75878SOL    HW229532   4.449   2.452   9.409
75879SOL     OW29533  13.626   4.849   1.210
75879SOL    HW129534  13.577   4.874   1.132
75879SOL    HW229535  13.562   4.800   1.263
75880SOL     OW29536  13.235   5.367   1.338
75880SOL    HW129537  13.150   5.358   1.382
75880SOL    HW229538  13.249   5.462   1.332
75881SOL     OW29539   9.455   0.952  12.921
75881SOL    HW129540   9.470   0.996  13.005
75881SOL    HW229541   9.368   0.982  12.894
75882SOL     OW29542   1.360   1.493  14.273
75882SOL    HW129543   1.361   1.548  14.195
75882SOL    HW229544   1.447   1.505  14.312
75883SOL     OW29545   4.501  12.077   2.171
75883SOL    HW129546   4.423  12.036   2.207
75883SOL    HW229547   4.481  12.171   2.172
75884SOL     OW29548   2.701  13.071   6.659
75884SOL    HW129549   2.693  13.166   6.667
75884SOL    HW229550   2.613  13.041   6.636
75885SOL     OW29551   9.764  11.504  11.991
75885SOL    HW129552   9.712  11.492  11.911
75885SOL    HW229553   9.774  11.599  11.997
75886SOL     OW29554   2.324  12.791   1.814
75886SOL    HW129555   2.306  12.885   1.823
75886SOL    HW229556   2.391  12.773   1.880
75887SOL     OW29557   3.625   2.725   3.703
75887SOL    HW129558   3.543   2.690   3.739
75887SOL    HW229559   3.596   2.788   3.637
75888SOL     OW29560   6.802   2.463   7.824
75888SOL    HW129561   6.828   2.555   7.828
75888SOL    HW229562   6.714   2.462   7.862
75889SOL     OW29563   6.584   3.853  13.211
75889SOL    HW129564   6.565   3.784  13.148
75889SOL    HW229565   6.503   3.904  13.217
75890SOL     OW29566   6.608  13.221  12.622
75890SOL    HW129567   6.576  13.181  12.542
75890SOL    HW229568   6.696  13.251  12.600
75891SOL     OW29569   9.613  11.265  12.605
75891SOL    HW129570   9.658  11.323  12.543
75891SOL    HW229571   9.547  11.321  12.646
75892SOL     OW29572  12.324  12.937   2.537
75892SOL    HW129573  12.256  12.997   2.568
75892SOL    HW229574  12.282  12.851   2.537
75893SOL     OW29575  13.661   2.498  13.290
75893SOL    HW129576  13.608   2.563  13.246
75893SOL    HW229577  13.658   2.421  13.233
75894SOL     OW29578  12.630   5.927   4.790
75894SOL    HW129579  12.725   5.924   4.781
75894SOL    HW229580  12.605   5.836   4.808
75895SOL     OW29581  11.092   8.460   0.053
75895SOL    HW129582  11.131   8.373   0.057
75895SOL    HW229583  11.021   8.457   0.118
75896SOL     OW29584   7.303   7.493  13.242
75896SOL    HW129585   7.211   7.470  13.229
75896SOL    HW229586   7.316   7.571  13.189
75897SOL     OW29587   5.060  12.791  10.597
75897SOL    HW129588   5.011  12.872  10.582
75897SOL    HW229589   5.031  12.762  10.684
75898SOL     OW29590   1.162   5.636   7.545
75898SOL    HW129591   1.165   5.702   7.475
75898SOL    HW229592   1.133   5.684   7.622
75899SOL     OW29593  10.886  10.897   2.938
75899SOL    HW129594  10.918  10.807   2.950
75899SOL    HW229595  10.854  10.899   2.848
75900SOL     OW29596   6.786   6.226  12.397
75900SOL    HW129597   6.779   6.205  12.304
75900SOL    HW229598   6.853   6.294  12.402
75901SOL     OW29599   4.123  14.198  12.667
75901SOL    HW129600   4.052  14.226  12.725
75901SOL    HW229601   4.114  14.253  12.589
75902SOL     OW29602   6.928  13.691   2.985
75902SOL    HW129603   6.936  13.777   3.026
75902SOL    HW229604   7.018  13.657   2.983
75903SOL     OW29605  11.334   9.170   5.913
75903SOL    HW129606  11.359   9.175   5.821
75903SOL    HW229607  11.398   9.110   5.952
75904SOL     OW29608  13.870   9.201   2.419
75904SOL    HW129609  13.935   9.137   2.392
75904SOL    HW229610  13.874   9.269   2.351
75905SOL     OW29611   6.010  11.219   2.413
75905SOL    HW129612   5.922  11.228   2.377
75905SOL    HW229613   6.066  11.269   2.353
75906SOL     OW29614   9.297   5.752   4.358
75906SOL    HW129615   9.347   5.684   4.403
75906SOL    HW229616   9.324   5.834   4.401
75907SOL     OW29617  13.880   7.115  12.462
75907SOL    HW129618  13.942   7.187  12.469
75907SOL    HW229619  13.926   7.040  12.500
75908SOL     OW29620   1.718   1.966   6.370
75908SOL    HW129621   1.770   2.036   6.331
75908SOL    HW229622   1.751   1.886   6.329
75909SOL     OW29623  14.330   8.286   3.926
75909SOL    HW129624  14.353   8.259   3.837
75909SOL    HW229625  14.341   8.206   3.978
75910SOL     OW29626   2.447  13.015   9.389
75910SOL    HW129627   2.512  12.986   9.325
75910SOL    HW229628   2.460  13.109   9.395
75911SOL     OW29629   4.613   6.372   0.363
75911SOL    HW129630   4.673   6.411   0.299
75911SOL    HW229631   4.526   6.402   0.335
75912SOL     OW29632   3.818  14.618   8.642
75912SOL    HW129633   3.766  14.590   8.567
75912SOL    HW229634   3.763  14.682   8.687
75913SOL     OW29635   7.579  13.763   9.015
75913SOL    HW129636   7.624  13.699   9.071
75913SOL    HW229637   7.486  13.749   9.032
75914SOL     OW29638   7.103   0.611   3.421
75914SOL    HW129639   7.078   0.703   3.414
75914SOL    HW229640   7.100   0.579   3.331
75915SOL     OW29641   8.698  14.450   9.692
75915SOL    HW129642   8.743  14.534   9.704
75915SOL    HW229643   8.611  14.473   9.662
75916SOL     OW29644   9.867   7.121  11.392
75916SOL    HW129645   9.824   7.107  11.307
75916SOL    HW229646   9.907   7.037  11.413
75917SOL     OW29647   1.729   3.031  10.213
75917SOL    HW129648   1.818   3.055  10.185
75917SOL    HW229649   1.700   3.104  10.268
75918SOL     OW29650   2.285   5.084   3.053
75918SOL    HW129651   2.244   5.014   3.002
75918SOL    HW229652   2.368   5.101   3.010
75919SOL     OW29653   3.222   0.513   3.270
75919SOL    HW129654   3.127   0.515   3.280
75919SOL    HW229655   3.256   0.560   3.346
75920SOL     OW29656   5.035   8.684   9.059
75920SOL    HW129657   4.976   8.615   9.029
75920SOL    HW229658   4.977   8.759   9.076
75921SOL     OW29659   9.753   1.599   7.942
75921SOL    HW129660   9.750   1.523   7.884
75921SOL    HW229661   9.834   1.589   7.991
75922SOL     OW29662   4.837  11.577   8.017
75922SOL    HW129663   4.808  11.512   8.081
75922SOL    HW229664   4.874  11.525   7.946
75923SOL     OW29665   2.251   9.408  11.608
75923SOL    HW129666   2.286   9.496  11.592
75923SOL    HW229667   2.211   9.383  11.525
75924SOL     OW29668  13.597  12.816   7.617
75924SOL    HW129669  13.648  12.873   7.676
75924SOL    HW229670  13.560  12.876   7.553
75925SOL     OW29671   5.275   9.938   0.184
75925SOL    HW129672   5.264   9.873   0.253
75925SOL    HW229673   5.354   9.910   0.138
75926SOL     OW29674  10.544  10.322   7.336
75926SOL    HW129675  10.500  10.331   7.252
75926SOL    HW229676  10.624  10.373   7.327
75927SOL     OW29677   1.436   8.833  13.348
75927SOL    HW129678   1.436   8.887  13.269
75927SOL    HW229679   1.343   8.819  13.367
75928SOL     OW29680  14.470   4.927   6.396
75928SOL    HW129681  14.564   4.911   6.405
75928SOL    HW229682  14.433   4.900   6.479
75929SOL     OW29683  14.451   6.349  12.543
75929SOL    HW129684  14.418   6.296  12.470
75929SOL    HW229685  14.477   6.285  12.609
75930SOL     OW29686   4.874   8.771   3.683
75930SOL    HW129687   4.800   8.768   3.744
75930SOL    HW229688   4.835   8.791   3.598
75931SOL     OW29689   7.612   0.415   8.553
75931SOL    HW129690   7.550   0.444   8.486
75931SOL    HW229691   7.671   0.356   8.507
75932SOL     OW29692   0.796   0.486   3.658
75932SOL    HW129693   0.758   0.528   3.735
75932SOL    HW229694   0.876   0.535   3.641
75933SOL     OW29695   0.952  12.546   7.651
75933SOL    HW129696   0.926  12.635   7.626
75933SOL    HW229697   0.873  12.508   7.688
75934SOL     OW29698   3.051   1.536  13.804
75934SOL    HW129699   3.100   1.618  13.806
75934SOL    HW229700   3.046   1.509  13.896
75935SOL     OW29701   1.137   1.615   9.454
75935SOL    HW129702   1.137   1.608   9.359
75935SOL    HW229703   1.115   1.527   9.484
75936SOL     OW29704   9.709  13.767   1.679
75936SOL    HW129705   9.650  13.695   1.702
75936SOL    HW229706   9.797  13.730   1.691
75937SOL     OW29707   8.508  10.637   7.020
75937SOL    HW129708   8.529  10.546   7.039
75937SOL    HW229709   8.587  10.686   7.040
75938SOL     OW29710  14.800   3.082  11.469
75938SOL    HW129711   0.010   3.072  11.415
75938SOL    HW229712  14.780   3.176  11.465
75939SOL     OW29713   9.920  12.952   5.814
75939SOL    HW129714  10.001  12.950   5.762
75939SOL    HW229715   9.850  12.946   5.749
75940SOL     OW29716   2.399  13.311   1.006
75940SOL    HW129717   2.462  13.356   0.951
75940SOL    HW229718   2.327  13.288   0.947
75941SOL     OW29719   2.230   2.133   6.620
75941SOL    HW129720   2.298   2.152   6.554
75941SOL    HW229721   2.279   2.107   6.698
75942SOL     OW29722  11.997   9.539   8.315
75942SOL    HW129723  11.913   9.584   8.323
75942SOL    HW229724  11.994   9.469   8.381
75943SOL     OW29725   5.971   4.486  12.493
75943SOL    HW129726   5.990   4.538  12.572
75943SOL    HW229727   6.024   4.526  12.425
75944SOL     OW29728   2.254  10.427  10.291
75944SOL    HW129729   2.208  10.355  10.246
75944SOL    HW229730   2.326  10.384  10.338
75945SOL     OW29731  13.276  13.649   6.517
75945SOL    HW129732  13.272  13.736   6.557
75945SOL    HW229733  13.213  13.597   6.566
75946SOL     OW29734  12.438   2.406  14.430
75946SOL    HW129735  12.398   2.365  14.353
75946SOL    HW229736  12.400   2.359  14.504
75947SOL     OW29737   9.160   6.473   0.379
75947SOL    HW129738   9.206   6.405   0.328
75947SOL    HW229739   9.070   6.441   0.386
75948SOL     OW29740   0.636  11.677  13.179
75948SOL    HW129741   0.594  11.593  13.157
75948SOL    HW229742   0.590  11.741  13.125
75949SOL     OW29743  11.225   7.559   7.561
75949SOL    HW129744  11.188   7.598   7.641
75949SOL    HW229745  11.289   7.497   7.593
75950SOL     OW29746   9.944  13.483  10.899
75950SOL    HW129747   9.853  13.467  10.874
75950SOL    HW229748   9.962  13.417  10.966
75951SOL     OW29749  11.136   0.922   5.208
75951SOL    HW129750  11.108   1.011   5.225
75951SOL    HW229751  11.076   0.867   5.258
75952SOL     OW29752   0.268   2.182   4.760
75952SOL    HW129753   0.270   2.169   4.665
75952SOL    HW229754   0.327   2.256   4.775
75953SOL     OW29755  11.164  14.624   5.557
75953SOL    HW129756  11.194  14.575   5.634
75953SOL    HW229757  11.071  14.639   5.572
75954SOL     OW29758   2.641  13.724  12.176
75954SOL    HW129759   2.574  13.793  12.176
75954SOL    HW229760   2.706  13.752  12.112
75955SOL     OW29761  13.663  13.096  14.847
75955SOL    HW129762  13.678  13.139   0.063
75955SOL    HW229763  13.612  13.159  14.796
75956SOL     OW29764   0.511  13.555  10.995
75956SOL    HW129765   0.580  13.491  11.015
75956SOL    HW229766   0.483  13.532  10.906
75957SOL     OW29767  14.717   1.406   1.585
75957SOL    HW129768  14.741   1.317   1.610
75957SOL    HW229769  14.721   1.406   1.489
75958SOL     OW29770  14.534   0.294  14.829
75958SOL    HW129771  14.625   0.313  14.804
75958SOL    HW229772  14.536   0.202  14.855
75959SOL     OW29773   2.897  11.903  10.936
75959SOL    HW129774   2.924  11.994  10.949
75959SOL    HW229775   2.864  11.901  10.846
75960SOL     OW29776  12.378   9.242  10.584
75960SOL    HW129777  12.464   9.270  10.616
75960SOL    HW229778  12.338   9.197  10.659
75961SOL     OW29779  13.411  14.326   5.620
75961SOL    HW129780  13.382  14.399   5.674
75961SOL    HW229781  13.430  14.256   5.682
75962SOL     OW29782   4.693   7.379   2.929
75962SOL    HW129783   4.749   7.457   2.933
75962SOL    HW229784   4.606   7.410   2.955
75963SOL     OW29785   7.976  12.251   1.613
75963SOL    HW129786   8.067  12.262   1.583
75963SOL    HW229787   7.978  12.279   1.704
75964SOL     OW29788  11.617  14.843  11.017
75964SOL    HW129789  11.538   0.027  11.006
75964SOL    HW229790  11.684   0.038  11.041
75965SOL     OW29791  13.324   1.300  11.724
75965SOL    HW129792  13.409   1.279  11.685
75965SOL    HW229793  13.292   1.216  11.756
75966SOL     OW29794   6.518   6.353  13.963
75966SOL    HW129795   6.544   6.345  14.054
75966SOL    HW229796   6.542   6.443  13.939
75967SOL     OW29797   8.367   6.390   1.374
75967SOL    HW129798   8.304   6.415   1.441
75967SOL    HW229799   8.408   6.472   1.347
75968SOL     OW29800  14.312   7.572  12.136
75968SOL    HW129801  14.385   7.510  12.139
75968SOL    HW229802  14.341   7.641  12.077
75969SOL     OW29803   3.934   2.961   9.847
75969SOL    HW129804   4.010   2.904   9.846
75969SOL    HW229805   3.967   3.046   9.817
75970SOL     OW29806  11.261   4.526   7.218
75970SOL    HW129807  11.331   4.538   7.282
75970SOL    HW229808  11.249   4.612   7.179
75971SOL     OW29809   3.810   6.741   6.854
75971SOL    HW129810   3.825   6.664   6.799
75971SOL    HW229811   3.863   6.725   6.932
75972SOL     OW29812  10.053   5.352   7.342
75972SOL    HW129813  10.005   5.407   7.404
75972SOL    HW229814  10.011   5.267   7.348
75973SOL     OW29815  12.645   1.340   6.290
75973SOL    HW129816  12.554   1.315   6.277
75973SOL    HW229817  12.658   1.415   6.233
75974SOL     OW29818   8.272   2.432   2.755
75974SOL    HW129819   8.314   2.439   2.670
75974SOL    HW229820   8.335   2.471   2.816
75975SOL     OW29821   8.141   2.655  12.629
75975SOL    HW129822   8.164   2.718  12.697
75975SOL    HW229823   8.188   2.684  12.551
75976SOL     OW29824   0.101   7.500   7.094
75976SOL    HW129825   0.109   7.521   7.187
75976SOL    HW229826   0.036   7.430   7.090
75977SOL     OW29827   5.642   1.824  10.408
75977SOL    HW129828   5.566   1.795  10.457
75977SOL    HW229829   5.686   1.744  10.381
75978SOL     OW29830   4.775   7.031  11.105
75978SOL    HW129831   4.721   7.002  11.178
75978SOL    HW229832   4.857   6.984  11.116
75979SOL     OW29833   1.910  11.192  12.029
75979SOL    HW129834   1.858  11.127  11.982
75979SOL    HW229835   1.998  11.153  12.033
75980SOL     OW29836   8.471   2.793  14.269
75980SOL    HW129837   8.488   2.727  14.202
75980SOL    HW229838   8.554   2.800  14.317
75981SOL     OW29839   4.310   6.376   0.001
75981SOL    HW129840   4.219   6.347   0.007
75981SOL    HW229841   4.324   6.394  14.776
75982SOL     OW29842   4.756   5.272   7.156
75982SOL    HW129843   4.777   5.357   7.196
75982SOL    HW229844   4.761   5.287   7.062
75983SOL     OW29845  13.830   1.716   3.618
75983SOL    HW129846  13.867   1.676   3.696
75983SOL    HW229847  13.806   1.642   3.562
75984SOL     OW29848  13.353   0.240  13.403
75984SOL    HW129849  13.379   0.252  13.311
75984SOL    HW229850  13.260   0.261  13.404
75985SOL     OW29851  13.465  14.105   7.044
75985SOL    HW129852  13.536  14.068   7.097
75985SOL    HW229853  13.480  14.069   6.957
75986SOL     OW29854  11.288   3.600  12.910
75986SOL    HW129855  11.371   3.564  12.941
75986SOL    HW229856  11.297   3.695  12.924
75987SOL     OW29857  14.486   0.342  12.107
75987SOL    HW129858  14.501   0.257  12.150
75987SOL    HW229859  14.559   0.352  12.047
75988SOL     OW29860  12.837   4.756  12.520
75988SOL    HW129861  12.760   4.778  12.573
75988SOL    HW229862  12.874   4.841  12.495
75989SOL     OW29863   1.697  12.745  13.014
75989SOL    HW129864   1.734  12.671  13.062
75989SOL    HW229865   1.615  12.764  13.058
75990SOL     OW29866   0.522   9.619  12.943
75990SOL    HW129867   0.479   9.684  12.887
75990SOL    HW229868   0.503   9.648  13.032
75991SOL     OW29869  12.100   1.844   1.391
75991SOL    HW129870  12.088   1.937   1.372
75991SOL    HW229871  12.045   1.799   1.327
75992SOL     OW29872  11.614   5.273   8.389
75992SOL    HW129873  11.670   5.327   8.333
75992SOL    HW229874  11.611   5.189   8.345
75993SOL     OW29875  12.085   3.154   5.876
75993SOL    HW129876  12.041   3.238   5.863
75993SOL    HW229877  12.016   3.089   5.864
75994SOL     OW29878  10.215   4.833   3.769
75994SOL    HW129879  10.148   4.899   3.788
75994SOL    HW229880  10.201   4.809   3.677
75995SOL     OW29881   0.672  11.674   2.845
75995SOL    HW129882   0.685  11.753   2.897
75995SOL    HW229883   0.713  11.692   2.761
75996SOL     OW29884   0.909  10.688  13.386
75996SOL    HW129885   0.851  10.616  13.414
75996SOL    HW229886   0.957  10.711  13.465
75997SOL     OW29887   6.596   3.977  12.570
75997SOL    HW129888   6.502   3.990  12.582
75997SOL    HW229889   6.611   3.995  12.478
75998SOL     OW29890  13.973   0.794   9.764
75998SOL    HW129891  13.905   0.861   9.756
75998SOL    HW229892  13.967   0.744   9.683
75999SOL     OW29893   1.138   2.888   7.544
75999SOL    HW129894   1.052   2.930   7.539
75999SOL    HW229895   1.155   2.859   7.454
76000SOL     OW29896   4.547   7.775   6.174
76000SOL    HW129897   4.541   7.866   6.204
76000SOL    HW229898   4.552   7.782   6.079
76001SOL     OW29899   5.567   1.517   4.988
76001SOL    HW129900   5.571   1.513   5.084
76001SOL    HW229901   5.658   1.535   4.962
76002SOL     OW29902   8.801   4.617   8.904
76002SOL    HW129903   8.762   4.542   8.860
76002SOL    HW229904   8.729   4.657   8.953
76003SOL     OW29905  11.700  11.197   9.781
76003SOL    HW129906  11.768  11.137   9.749
76003SOL    HW229907  11.652  11.146   9.846
76004SOL     OW29908   0.264   2.123  14.074
76004SOL    HW129909   0.184   2.124  14.021
76004SOL    HW229910   0.283   2.030  14.086
76005SOL     OW29911   2.108  11.592   3.289
76005SOL    HW129912   2.101  11.611   3.196
76005SOL    HW229913   2.068  11.506   3.299
76006SOL     OW29914   2.589   4.719   3.537
76006SOL    HW129915   2.503   4.704   3.497
76006SOL    HW229916   2.605   4.812   3.525
76007SOL     OW29917   9.971   1.601  14.127
76007SOL    HW129918   9.875   1.601  14.135
76007SOL    HW229919   9.994   1.509  14.116
76008SOL     OW29920   9.845   4.764  10.120
76008SOL    HW129921   9.934   4.777  10.155
76008SOL    HW229922   9.827   4.671  10.134
76009SOL     OW29923   7.862  11.321   2.348
76009SOL    HW129924   7.929  11.273   2.300
76009SOL    HW229925   7.838  11.264   2.421
76010SOL     OW29926   3.951   0.636   7.452
76010SOL    HW129927   3.861   0.658   7.431
76010SOL    HW229928   4.004   0.694   7.397
76011SOL     OW29929   5.905   9.862  12.389
76011SOL    HW129930   5.918   9.779  12.344
76011SOL    HW229931   5.838   9.907  12.337
76012SOL     OW29932  12.460  11.836  12.803
76012SOL    HW129933  12.520  11.764  12.824
76012SOL    HW229934  12.405  11.844  12.881
76013SOL     OW29935  11.651  13.593  10.525
76013SOL    HW129936  11.685  13.506  10.505
76013SOL    HW229937  11.621  13.587  10.615
76014SOL     OW29938   4.291   9.463   4.997
76014SOL    HW129939   4.353   9.492   4.929
76014SOL    HW229940   4.221   9.419   4.948
76015SOL     OW29941   9.658   4.403   3.656
76015SOL    HW129942   9.564   4.386   3.648
76015SOL    HW229943   9.663   4.490   3.696
76016SOL     OW29944   8.952  14.565   9.364
76016SOL    HW129945   8.974  14.515   9.442
76016SOL    HW229946   9.026  14.625   9.352
76017SOL     OW29947   0.336   1.291   4.593
76017SOL    HW129948   0.360   1.315   4.682
76017SOL    HW229949   0.307   1.200   4.599
76018SOL     OW29950   7.297  13.766   1.633
76018SOL    HW129951   7.329  13.791   1.720
76018SOL    HW229952   7.301  13.671   1.633
76019SOL     OW29953   4.564   8.286   9.063
76019SOL    HW129954   4.561   8.193   9.043
76019SOL    HW229955   4.615   8.292   9.144
76020SOL     OW29956   7.902   2.396   9.895
76020SOL    HW129957   7.833   2.338   9.927
76020SOL    HW229958   7.862   2.483   9.894
76021SOL     OW29959   3.116   5.098   7.150
76021SOL    HW129960   3.136   5.176   7.203
76021SOL    HW229961   3.187   5.037   7.170
76022SOL     OW29962   3.907   8.872  12.271
76022SOL    HW129963   3.829   8.825  12.300
76022SOL    HW229964   3.945   8.815  12.204
76023SOL     OW29965  10.829   5.971   6.495
76023SOL    HW129966  10.882   5.895   6.472
76023SOL    HW229967  10.742   5.951   6.461
76024SOL     OW29968  14.666  13.520   0.210
76024SOL    HW129969  14.603  13.539   0.141
76024SOL    HW229970  14.688  13.606   0.246
76025SOL     OW29971  10.528   1.094   5.497
76025SOL    HW129972  10.606   1.041   5.479
76025SOL    HW229973  10.537   1.119   5.589
76026SOL     OW29974  10.992  10.767   7.097
76026SOL    HW129975  11.023  10.823   7.168
76026SOL    HW229976  10.900  10.749   7.120
76027SOL     OW29977   9.029  13.638   6.172
76027SOL    HW129978   9.047  13.544   6.160
76027SOL    HW229979   9.061  13.678   6.091
76028SOL     OW29980   4.422   6.269   2.256
76028SOL    HW129981   4.346   6.242   2.306
76028SOL    HW229982   4.390   6.340   2.200
76029SOL     OW29983   5.972  12.643   9.556
76029SOL    HW129984   6.040  12.700   9.522
76029SOL    HW229985   5.915  12.701   9.607
76030SOL     OW29986   8.822  12.798   0.669
76030SOL    HW129987   8.868  12.744   0.733
76030SOL    HW229988   8.876  12.795   0.591
76031SOL     OW29989   3.489   0.768   2.067
76031SOL    HW129990   3.575   0.808   2.084
76031SOL    HW229991   3.474   0.781   1.974
76032SOL     OW29992   9.579  13.506  13.430
76032SOL    HW129993   9.671  13.527  13.414
76032SOL    HW229994   9.541  13.496  13.342
76033SOL     OW29995  13.125  11.905  12.550
76033SOL    HW129996  13.144  11.998  12.535
76033SOL    HW229997  13.191  11.858  12.499
76034SOL     OW29998   9.676   5.676   4.306
76034SOL    HW129999   9.603   5.633   4.351
76034SOL    HW230000   9.722   5.724   4.374
76035SOL     OW30001  10.901   6.710   2.071
76035SOL    HW130002  10.954   6.750   2.002
76035SOL    HW230003  10.939   6.742   2.152
76036SOL     OW30004   6.459   0.862  10.525
76036SOL    HW130005   6.379   0.911  10.541
76036SOL    HW230006   6.518   0.888  10.596
76037SOL     OW30007   5.578   7.249   6.076
76037SOL    HW130008   5.509   7.189   6.048
76037SOL    HW230009   5.535   7.335   6.080
76038SOL     OW30010  10.593   5.541   7.044
76038SOL    HW130011  10.679   5.580   7.064
76038SOL    HW230012  10.530   5.610   7.066
76039SOL     OW30013   9.507   2.576  12.280
76039SOL    HW130014   9.588   2.626  12.271
76039SOL    HW230015   9.451   2.630  12.336
76040SOL     OW30016   7.885   0.195   3.516
76040SOL    HW130017   7.839   0.130   3.463
76040SOL    HW230018   7.955   0.227   3.460
76041SOL     OW30019   1.866   6.335   6.785
76041SOL    HW130020   1.875   6.268   6.853
76041SOL    HW230021   1.785   6.312   6.739
76042SOL     OW30022  13.591   0.390   5.480
76042SOL    HW130023  13.536   0.455   5.436
76042SOL    HW230024  13.536   0.312   5.485
76043SOL     OW30025   2.329  11.981   0.088
76043SOL    HW130026   2.279  12.050   0.044
76043SOL    HW230027   2.415  12.021   0.105
76044SOL     OW30028   2.390  11.384   2.442
76044SOL    HW130029   2.392  11.476   2.468
76044SOL    HW230030   2.466  11.345   2.484
76045SOL     OW30031   6.176   0.085   0.726
76045SOL    HW130032   6.171  14.858   0.713
76045SOL    HW230033   6.085   0.114   0.726
76046SOL     OW30034   3.081   3.567  12.627
76046SOL    HW130035   3.126   3.582  12.544
76046SOL    HW230036   2.994   3.605  12.614
76047SOL     OW30037   9.954  14.324   3.398
76047SOL    HW130038   9.977  14.287   3.483
76047SOL    HW230039  10.010  14.278   3.336
76048SOL     OW30040   6.646  10.130  12.046
76048SOL    HW130041   6.651  10.178  11.963
76048SOL    HW230042   6.732  10.088  12.054
76049SOL     OW30043   5.848  10.113   9.809
76049SOL    HW130044   5.934  10.076   9.788
76049SOL    HW230045   5.854  10.205   9.786
76050SOL     OW30046  12.752  12.036  12.464
76050SOL    HW130047  12.666  11.993  12.468
76050SOL    HW230048  12.770  12.061  12.555
76051SOL     OW30049  14.730  10.459   9.443
76051SOL    HW130050  14.704  10.392   9.381
76051SOL    HW230051  14.818  10.485   9.415
76052SOL     OW30052   3.421   8.748   8.527
76052SOL    HW130053   3.343   8.703   8.495
76052SOL    HW230054   3.388   8.832   8.558
76053SOL     OW30055  14.553   7.523   3.101
76053SOL    HW130056  14.521   7.499   3.188
76053SOL    HW230057  14.647   7.506   3.106
76054SOL     OW30058   8.273   9.809   0.586
76054SOL    HW130059   8.280   9.886   0.531
76054SOL    HW230060   8.192   9.766   0.556
76055SOL     OW30061   8.554  14.648   6.636
76055SOL    HW130062   8.477  14.651   6.693
76055SOL    HW230063   8.609  14.579   6.674
76056SOL     OW30064  12.561  13.207   8.862
76056SOL    HW130065  12.617  13.222   8.937
76056SOL    HW230066  12.608  13.246   8.788
76057SOL     OW30067   7.420  13.277  10.998
76057SOL    HW130068   7.461  13.344  10.943
76057SOL    HW230069   7.488  13.211  11.011
76058SOL     OW30070  13.408  10.800   8.431
76058SOL    HW130071  13.421  10.718   8.479
76058SOL    HW230072  13.496  10.826   8.404
76059SOL     OW30073  13.565   6.902   1.737
76059SOL    HW130074  13.606   6.896   1.824
76059SOL    HW230075  13.544   6.995   1.727
76060SOL     OW30076  12.395   1.227   2.970
76060SOL    HW130077  12.356   1.201   3.053
76060SOL    HW230078  12.330   1.284   2.929
76061SOL     OW30079   8.678   6.298   7.509
76061SOL    HW130080   8.705   6.353   7.436
76061SOL    HW230081   8.736   6.322   7.581
76062SOL     OW30082   6.616   7.504   4.901
76062SOL    HW130083   6.649   7.521   4.989
76062SOL    HW230084   6.622   7.588   4.856
76063SOL     OW30085  12.137   4.176   4.965
76063SOL    HW130086  12.147   4.174   5.060
76063SOL    HW230087  12.160   4.088   4.936
76064SOL     OW30088   9.596  13.213   0.491
76064SOL    HW130089   9.508  13.193   0.459
76064SOL    HW230090   9.624  13.132   0.535
76065SOL     OW30091   9.672   5.743  13.801
76065SOL    HW130092   9.604   5.683  13.832
76065SOL    HW230093   9.721   5.766  13.879
76066SOL     OW30094   5.505   3.099   3.057
76066SOL    HW130095   5.504   3.127   3.149
76066SOL    HW230096   5.571   3.155   3.016
76067SOL     OW30097   1.404   1.721  12.141
76067SOL    HW130098   1.354   1.652  12.096
76067SOL    HW230099   1.352   1.742  12.218
76068SOL     OW30100  14.535  14.337  10.783
76068SOL    HW130101  14.534  14.246  10.813
76068SOL    HW230102  14.503  14.333  10.692
76069SOL     OW30103  13.922  11.119   4.209
76069SOL    HW130104  13.919  11.212   4.233
76069SOL    HW230105  13.832  11.089   4.219
76070SOL     OW30106  14.146   8.532   1.915
76070SOL    HW130107  14.124   8.616   1.955
76070SOL    HW230108  14.063   8.486   1.907
76071SOL     OW30109   4.819   3.510   6.829
76071SOL    HW130110   4.865   3.593   6.823
76071SOL    HW230111   4.801   3.498   6.922
76072SOL     OW30112   1.480   4.576   9.946
76072SOL    HW130113   1.408   4.517   9.922
76072SOL    HW230114   1.558   4.521   9.941
76073SOL     OW30115   8.578   1.246  11.583
76073SOL    HW130116   8.522   1.190  11.530
76073SOL    HW230117   8.551   1.230  11.673
76074SOL     OW30118   1.904   1.710   2.741
76074SOL    HW130119   1.848   1.696   2.818
76074SOL    HW230120   1.861   1.660   2.672
76075SOL     OW30121  12.612   1.523  10.615
76075SOL    HW130122  12.647   1.601  10.574
76075SOL    HW230123  12.608   1.458  10.545
76076SOL     OW30124  12.411  13.610  10.559
76076SOL    HW130125  12.340  13.548  10.545
76076SOL    HW230126  12.489  13.556  10.570
76077SOL     OW30127  12.351  14.562   4.547
76077SOL    HW130128  12.267  14.516   4.553
76077SOL    HW230129  12.378  14.548   4.456
76078SOL     OW30130  11.816   9.099   1.739
76078SOL    HW130131  11.730   9.063   1.718
76078SOL    HW230132  11.799   9.164   1.807
76079SOL     OW30133  14.161   0.191   3.434
76079SOL    HW130134  14.088   0.131   3.450
76079SOL    HW230135  14.123   0.261   3.381
76080SOL     OW30136  14.039  14.564   3.326
76080SOL    HW130137  13.959  14.587   3.373
76080SOL    HW230138  14.017  14.572   3.233
76081SOL     OW30139  13.391   2.017   2.024
76081SOL    HW130140  13.384   2.032   1.929
76081SOL    HW230141  13.383   2.104   2.063
76082SOL     OW30142  10.449   5.387  14.851
76082SOL    HW130143  10.487   5.474  14.841
76082SOL    HW230144  10.499   5.332  14.791
76083SOL     OW30145  11.497  13.176   3.102
76083SOL    HW130146  11.545  13.238   3.157
76083SOL    HW230147  11.552  13.097   3.102
76084SOL     OW30148   3.596   5.822  12.081
76084SOL    HW130149   3.559   5.758  12.020
76084SOL    HW230150   3.632   5.891  12.024
76085SOL     OW30151   4.942   2.054  11.257
76085SOL    HW130152   4.895   2.110  11.195
76085SOL    HW230153   4.959   2.111  11.332
76086SOL     OW30154  13.967   9.476  13.466
76086SOL    HW130155  13.983   9.471  13.560
76086SOL    HW230156  13.977   9.569  13.444
76087SOL     OW30157   3.127  10.911   3.385
76087SOL    HW130158   3.187  10.853   3.339
76087SOL    HW230159   3.051  10.856   3.405
76088SOL     OW30160   6.764   4.424  13.477
76088SOL    HW130161   6.770   4.483  13.552
76088SOL    HW230162   6.714   4.474  13.412
76089SOL     OW30163   6.346   5.412   4.047
76089SOL    HW130164   6.288   5.340   4.069
76089SOL    HW230165   6.310   5.448   3.966
76090SOL     OW30166  12.134  13.155   8.145
76090SOL    HW130167  12.107  13.247   8.145
76090SOL    HW230168  12.062  13.108   8.104
76091SOL     OW30169   3.185   9.801   8.326
76091SOL    HW130170   3.173   9.866   8.396
76091SOL    HW230171   3.111   9.742   8.336
76092SOL     OW30172   6.839   7.821  11.444
76092SOL    HW130173   6.762   7.873  11.468
76092SOL    HW230174   6.822   7.793  11.354
76093SOL     OW30175  14.344   8.920  12.374
76093SOL    HW130176  14.297   9.000  12.352
76093SOL    HW230177  14.407   8.908  12.303
76094SOL     OW30178  12.941   3.842   3.887
76094SOL    HW130179  12.858   3.889   3.874
76094SOL    HW230180  12.927   3.791   3.967
76095SOL     OW30181   2.367   8.011   6.320
76095SOL    HW130182   2.427   7.979   6.387
76095SOL    HW230183   2.406   7.981   6.237
76096SOL     OW30184   9.295   9.839  14.230
76096SOL    HW130185   9.348   9.881  14.298
76096SOL    HW230186   9.302   9.746  14.248
76097SOL     OW30187   0.643  10.140   3.239
76097SOL    HW130188   0.665  10.056   3.279
76097SOL    HW230189   0.679  10.205   3.299
76098SOL     OW30190   6.479   6.230  10.547
76098SOL    HW130191   6.417   6.211  10.618
76098SOL    HW230192   6.551   6.169  10.562
76099SOL     OW30193  10.659   1.814  14.447
76099SOL    HW130194  10.582   1.771  14.412
76099SOL    HW230195  10.696   1.862  14.372
76100SOL     OW30196   6.799   8.738   0.912
76100SOL    HW130197   6.871   8.799   0.928
76100SOL    HW230198   6.803   8.677   0.985
76101SOL     OW30199   0.606   0.654   6.609
76101SOL    HW130200   0.538   0.708   6.567
76101SOL    HW230201   0.564   0.621   6.689
76102SOL     OW30202   7.777   1.797   5.662
76102SOL    HW130203   7.805   1.715   5.621
76102SOL    HW230204   7.733   1.769   5.743
76103SOL     OW30205  10.560  12.509  10.423
76103SOL    HW130206  10.606  12.503  10.339
76103SOL    HW230207  10.494  12.440  10.419
76104SOL     OW30208  11.831   2.289  13.567
76104SOL    HW130209  11.906   2.348  13.559
76104SOL    HW230210  11.845   2.243  13.650
76105SOL     OW30211   9.621  10.256   6.545
76105SOL    HW130212   9.683  10.328   6.557
76105SOL    HW230213   9.673  10.186   6.506
76106SOL     OW30214   9.519   6.719   8.724
76106SOL    HW130215   9.542   6.667   8.646
76106SOL    HW230216   9.424   6.723   8.722
76107SOL     OW30217   8.198   4.000   6.562
76107SOL    HW130218   8.244   3.964   6.487
76107SOL    HW230219   8.248   3.970   6.638
76108SOL     OW30220   1.479  12.485   7.988
76108SOL    HW130221   1.515  12.487   7.899
76108SOL    HW230222   1.393  12.443   7.978
76109SOL     OW30223   9.510   5.648   5.360
76109SOL    HW130224   9.453   5.713   5.401
76109SOL    HW230225   9.476   5.564   5.389
76110SOL     OW30226   9.803   0.832   2.987
76110SOL    HW130227   9.828   0.923   3.003
76110SOL    HW230228   9.850   0.782   3.054
76111SOL     OW30229   0.919  10.882   6.585
76111SOL    HW130230   0.950  10.834   6.662
76111SOL    HW230231   0.996  10.930   6.554
76112SOL     OW30232  11.641   9.581  12.783
76112SOL    HW130233  11.704   9.596  12.712
76112SOL    HW230234  11.658   9.653  12.844
76113SOL     OW30235  12.609   6.289  13.318
76113SOL    HW130236  12.684   6.348  13.309
76113SOL    HW230237  12.538   6.345  13.350
76114SOL     OW30238   4.354   9.541   8.511
76114SOL    HW130239   4.386   9.454   8.536
76114SOL    HW230240   4.259   9.534   8.517
76115SOL     OW30241   2.377   3.649   7.811
76115SOL    HW130242   2.362   3.706   7.736
76115SOL    HW230243   2.446   3.589   7.782
76116SOL     OW30244  13.822   7.247  13.175
76116SOL    HW130245  13.776   7.167  13.151
76116SOL    HW230246  13.887   7.219  13.239
76117SOL     OW30247  12.360   4.658   6.388
76117SOL    HW130248  12.311   4.740   6.377
76117SOL    HW230249  12.351   4.613   6.304
76118SOL     OW30250  10.402   9.744  11.072
76118SOL    HW130251  10.467   9.790  11.019
76118SOL    HW230252  10.454   9.684  11.126
76119SOL     OW30253   2.109  14.461   2.555
76119SOL    HW130254   2.171  14.491   2.621
76119SOL    HW230255   2.062  14.389   2.598
76120SOL     OW30256   0.093   7.447   5.478
76120SOL    HW130257   0.187   7.464   5.471
76120SOL    HW230258   0.075   7.383   5.410
76121SOL     OW30259  11.430   7.467   2.487
76121SOL    HW130260  11.508   7.413   2.496
76121SOL    HW230261  11.379   7.425   2.418
76122SOL     OW30262   5.031   3.081  14.484
76122SOL    HW130263   4.970   3.148  14.516
76122SOL    HW230264   5.010   3.072  14.390
76123SOL     OW30265   6.685   3.959   7.269
76123SOL    HW130266   6.623   3.936   7.199
76123SOL    HW230267   6.634   4.014   7.328
76124SOL     OW30268   7.073   6.007  11.368
76124SOL    HW130269   7.036   5.935  11.419
76124SOL    HW230270   7.019   6.083  11.392
76125SOL     OW30271  10.716   3.780  10.489
76125SOL    HW130272  10.649   3.720  10.457
76125SOL    HW230273  10.725   3.845  10.419
76126SOL     OW30274   1.671  14.375   4.852
76126SOL    HW130275   1.699  14.467   4.859
76126SOL    HW230276   1.599  14.377   4.790
76127SOL     OW30277  14.117   0.068   9.974
76127SOL    HW130278  14.132  14.864  10.035
76127SOL    HW230279  14.119   0.147  10.028
76128SOL     OW30280   4.930   8.499  11.237
76128SOL    HW130281   4.875   8.562  11.191
76128SOL    HW230282   5.019   8.533  11.227
76129SOL     OW30283   3.239  11.185   1.844
76129SOL    HW130284   3.230  11.242   1.920
76129SOL    HW230285   3.241  11.244   1.769
76130SOL     OW30286   9.381  12.429  14.498
76130SOL    HW130287   9.378  12.518  14.464
76130SOL    HW230288   9.291  12.409  14.522
76131SOL     OW30289  12.569   3.600   3.319
76131SOL    HW130290  12.503   3.579   3.253
76131SOL    HW230291  12.632   3.528   3.315
76132SOL     OW30292   1.236  11.033   6.824
76132SOL    HW130293   1.254  10.996   6.911
76132SOL    HW230294   1.316  11.016   6.774
76133SOL     OW30295  14.221  12.639   5.827
76133SOL    HW130296  14.167  12.609   5.899
76133SOL    HW230297  14.161  12.646   5.753
76134SOL     OW30298   7.166   2.624   2.748
76134SOL    HW130299   7.167   2.710   2.791
76134SOL    HW230300   7.238   2.576   2.789
76135SOL     OW30301   2.220   8.516   1.881
76135SOL    HW130302   2.271   8.436   1.888
76135SOL    HW230303   2.275   8.584   1.920
76136SOL     OW30304   2.034   9.842   1.219
76136SOL    HW130305   2.122   9.807   1.231
76136SOL    HW230306   2.026   9.910   1.285
76137SOL     OW30307   6.410   3.751   1.153
76137SOL    HW130308   6.354   3.818   1.192
76137SOL    HW230309   6.440   3.789   1.071
76138SOL     OW30310   7.011   6.973   7.878
76138SOL    HW130311   6.988   6.890   7.920
76138SOL    HW230312   7.031   6.950   7.787
76139SOL     OW30313   6.733  11.575   5.999
76139SOL    HW130314   6.736  11.608   6.089
76139SOL    HW230315   6.815  11.605   5.960
76140SOL     OW30316   6.354  10.808   1.794
76140SOL    HW130317   6.400  10.889   1.816
76140SOL    HW230318   6.288  10.798   1.862
76141SOL     OW30319  12.946   2.961   1.007
76141SOL    HW130320  12.914   2.871   1.012
76141SOL    HW230321  12.931   2.987   0.916
76142SOL     OW30322  14.615   0.463  10.145
76142SOL    HW130323  14.621   0.437  10.053
76142SOL    HW230324  14.618   0.559  10.143
76143SOL     OW30325  12.005  13.244   5.784
76143SOL    HW130326  12.001  13.174   5.849
76143SOL    HW230327  12.097  13.246   5.757
76144SOL     OW30328  13.224   3.105  11.451
76144SOL    HW130329  13.220   3.164  11.527
76144SOL    HW230330  13.226   3.163  11.376
76145SOL     OW30331   6.181   0.545   2.047
76145SOL    HW130332   6.127   0.623   2.034
76145SOL    HW230333   6.137   0.496   2.117
76146SOL     OW30334  11.048   7.152   6.930
76146SOL    HW130335  11.033   7.070   6.884
76146SOL    HW230336  11.104   7.203   6.871
76147SOL     OW30337   4.397   0.126   5.999
76147SOL    HW130338   4.353   0.158   5.920
76147SOL    HW230339   4.370   0.186   6.068
76148SOL     OW30340  14.417   4.771  13.515
76148SOL    HW130341  14.452   4.841  13.569
76148SOL    HW230342  14.464   4.778  13.432
76149SOL     OW30343   7.966   2.745   4.353
76149SOL    HW130344   7.927   2.826   4.385
76149SOL    HW230345   7.895   2.681   4.355
76150SOL     OW30346   7.433   1.452   5.605
76150SOL    HW130347   7.457   1.517   5.539
76150SOL    HW230348   7.371   1.496   5.662
76151SOL     OW30349   0.327   4.117   9.454
76151SOL    HW130350   0.334   4.133   9.360
76151SOL    HW230351   0.395   4.171   9.493
76152SOL     OW30352   8.146   2.396   6.170
76152SOL    HW130353   8.213   2.356   6.116
76152SOL    HW230354   8.089   2.323   6.195
76153SOL     OW30355   8.026  14.488  13.608
76153SOL    HW130356   8.090  14.417  13.614
76153SOL    HW230357   8.068  14.554  13.554
76154SOL     OW30358  11.981  14.804  14.749
76154SOL    HW130359  11.989  14.831  14.658
76154SOL    HW230360  12.045  14.857  14.796
76155SOL     OW30361   2.501  12.007  10.904
76155SOL    HW130362   2.509  12.002  10.809
76155SOL    HW230363   2.590  12.021  10.935
76156SOL     OW30364  12.891   2.467  13.533
76156SOL    HW130365  12.969   2.523  13.536
76156SOL    HW230366  12.829   2.510  13.592
76157SOL     OW30367   1.040  11.989   0.863
76157SOL    HW130368   0.983  11.930   0.911
76157SOL    HW230369   0.999  11.999   0.777
76158SOL     OW30370   8.100   1.208   0.620
76158SOL    HW130371   8.031   1.142   0.621
76158SOL    HW230372   8.177   1.162   0.653
76159SOL     OW30373  13.204  14.810  13.755
76159SOL    HW130374  13.283  14.825  13.807
76159SOL    HW230375  13.234  14.810  13.664
76160SOL     OW30376   7.297  10.672  11.788
76160SOL    HW130377   7.217  10.653  11.837
76160SOL    HW230378   7.320  10.762  11.814
76161SOL     OW30379   0.327   5.247   8.129
76161SOL    HW130380   0.293   5.298   8.202
76161SOL    HW230381   0.249   5.210   8.088
76162SOL     OW30382   0.887   4.017   2.986
76162SOL    HW130383   0.850   4.087   2.932
76162SOL    HW230384   0.835   4.019   3.067
76163SOL     OW30385   4.632   3.012   4.547
76163SOL    HW130386   4.676   2.929   4.564
76163SOL    HW230387   4.595   3.038   4.631
76164SOL     OW30388   4.516   7.559  12.613
76164SOL    HW130389   4.556   7.646  12.614
76164SOL    HW230390   4.459   7.560  12.536
76165SOL     OW30391   9.552   7.118   0.659
76165SOL    HW130392   9.573   7.061   0.733
76165SOL    HW230393   9.463   7.149   0.677
76166SOL     OW30394   7.619   5.910   9.654
76166SOL    HW130395   7.607   5.838   9.717
76166SOL    HW230396   7.553   5.895   9.587
76167SOL     OW30397  14.007  11.616  13.359
76167SOL    HW130398  14.042  11.593  13.273
76167SOL    HW230399  14.001  11.532  13.406
76168SOL     OW30400   1.292   0.514   1.887
76168SOL    HW130401   1.197   0.508   1.885
76168SOL    HW230402   1.316   0.481   1.974
76169SOL     OW30403  11.608   0.973  10.771
76169SOL    HW130404  11.564   1.015  10.698
76169SOL    HW230405  11.648   0.895  10.733
76170SOL     OW30406   7.407  13.697   3.180
76170SOL    HW130407   7.489  13.702   3.229
76170SOL    HW230408   7.339  13.721   3.244
76171SOL     OW30409  12.845   5.073   2.122
76171SOL    HW130410  12.932   5.085   2.160
76171SOL    HW230411  12.846   4.985   2.086
76172SOL     OW30412  13.662  14.106  12.414
76172SOL    HW130413  13.703  14.193  12.411
76172SOL    HW230414  13.684  14.072  12.501
76173SOL     OW30415  14.468   6.574   3.651
76173SOL    HW130416  14.472   6.479   3.656
76173SOL    HW230417  14.476   6.603   3.742
76174SOL     OW30418  14.116   2.104   2.446
76174SOL    HW130419  14.130   2.094   2.352
76174SOL    HW230420  14.113   2.015   2.480
76175SOL     OW30421  10.214   1.877  13.528
76175SOL    HW130422  10.278   1.942  13.499
76175SOL    HW230423  10.211   1.813  13.457
76176SOL     OW30424   0.778  14.013  11.236
76176SOL    HW130425   0.714  13.946  11.259
76176SOL    HW230426   0.834  13.972  11.171
76177SOL     OW30427   6.580  10.043   7.099
76177SOL    HW130428   6.600  10.073   7.010
76177SOL    HW230429   6.487  10.019   7.097
76178SOL     OW30430   9.022  11.356   1.449
76178SOL    HW130431   8.945  11.373   1.395
76178SOL    HW230432   9.023  11.260   1.459
76179SOL     OW30433  11.071   9.650  12.162
76179SOL    HW130434  10.998   9.594  12.137
76179SOL    HW230435  11.137   9.635  12.094
76180SOL     OW30436  11.748   1.511   6.531
76180SOL    HW130437  11.732   1.482   6.442
76180SOL    HW230438  11.714   1.440   6.586
76181SOL     OW30439  12.639   3.686   2.955
76181SOL    HW130440  12.667   3.741   3.028
76181SOL    HW230441  12.682   3.602   2.972
76182SOL     OW30442  12.959  12.046   7.711
76182SOL    HW130443  12.937  12.123   7.658
76182SOL    HW230444  12.875  12.005   7.730
76183SOL     OW30445  10.537  12.792   1.907
76183SOL    HW130446  10.590  12.800   1.987
76183SOL    HW230447  10.602  12.784   1.837
76184SOL     OW30448  13.336   5.654   5.361
76184SOL    HW130449  13.290   5.571   5.378
76184SOL    HW230450  13.427   5.629   5.350
76185SOL     OW30451   4.091  14.505   6.934
76185SOL    HW130452   4.139  14.507   7.017
76185SOL    HW230453   4.048  14.590   6.930
76186SOL     OW30454   4.944   9.439   9.799
76186SOL    HW130455   4.852   9.432   9.823
76186SOL    HW230456   4.948   9.511   9.736
76187SOL     OW30457   7.257   2.591  10.511
76187SOL    HW130458   7.193   2.647  10.468
76187SOL    HW230459   7.230   2.502  10.489
76188SOL     OW30460   1.868   2.555   5.442
76188SOL    HW130461   1.908   2.627   5.492
76188SOL    HW230462   1.940   2.518   5.392
76189SOL     OW30463  11.113   8.038   0.796
76189SOL    HW130464  11.197   7.992   0.788
76189SOL    HW230465  11.048   7.968   0.797
76190SOL     OW30466  11.584   8.484   9.264
76190SOL    HW130467  11.654   8.454   9.207
76190SOL    HW230468  11.590   8.428   9.342
76191SOL     OW30469   6.837   7.753   8.261
76191SOL    HW130470   6.885   7.810   8.201
76191SOL    HW230471   6.779   7.812   8.309
76192SOL     OW30472   3.439   5.809   6.356
76192SOL    HW130473   3.508   5.766   6.408
76192SOL    HW230474   3.481   5.832   6.274
76193SOL     OW30475  13.772   2.179   3.982
76193SOL    HW130476  13.802   2.267   3.957
76193SOL    HW230477  13.676   2.184   3.975
76194SOL     OW30478   1.800  10.504   0.605
76194SOL    HW130479   1.867  10.513   0.673
76194SOL    HW230480   1.847  10.464   0.531
76195SOL     OW30481  12.187  13.387   4.482
76195SOL    HW130482  12.110  13.333   4.465
76195SOL    HW230483  12.169  13.430   4.565
76196SOL     OW30484  14.767   8.879   2.750
76196SOL    HW130485  14.734   8.937   2.819
76196SOL    HW230486  14.688   8.849   2.705
76197SOL     OW30487   7.713   3.412   7.326
76197SOL    HW130488   7.681   3.325   7.303
76197SOL    HW230489   7.790   3.395   7.381
76198SOL     OW30490   9.531  11.006   1.639
76198SOL    HW130491   9.435  11.003   1.643
76198SOL    HW230492   9.558  10.914   1.649
76199SOL     OW30493   0.709   0.672   0.803
76199SOL    HW130494   0.734   0.648   0.892
76199SOL    HW230495   0.776   0.735   0.775
76200SOL     OW30496   9.466   9.331   5.700
76200SOL    HW130497   9.466   9.331   5.604
76200SOL    HW230498   9.376   9.355   5.723
76201SOL     OW30499  13.513  10.960   7.335
76201SOL    HW130500  13.515  11.047   7.296
76201SOL    HW230501  13.501  10.901   7.261
76202SOL     OW30502   0.480   5.702   5.647
76202SOL    HW130503   0.482   5.775   5.585
76202SOL    HW230504   0.490   5.624   5.593
76203SOL     OW30505   6.376   3.835   6.200
76203SOL    HW130506   6.447   3.819   6.263
76203SOL    HW230507   6.371   3.754   6.150
76204SOL     OW30508   6.147  14.350   7.211
76204SOL    HW130509   6.077  14.286   7.196
76204SOL    HW230510   6.224  14.296   7.228
76205SOL     OW30511   7.858  10.919  13.939
76205SOL    HW130512   7.796  10.934  13.868
76205SOL    HW230513   7.941  10.899  13.895
76206SOL     OW30514  12.379   8.197   6.394
76206SOL    HW130515  12.438   8.179   6.466
76206SOL    HW230516  12.436   8.202   6.317
76207SOL     OW30517  10.980   0.363   6.791
76207SOL    HW130518  10.961   0.457   6.781
76207SOL    HW230519  10.992   0.352   6.885
76208SOL     OW30520  10.540   7.709   6.680
76208SOL    HW130521  10.452   7.740   6.702
76208SOL    HW230522  10.564   7.756   6.600
76209SOL     OW30523   5.453   9.273  13.704
76209SOL    HW130524   5.364   9.283  13.737
76209SOL    HW230525   5.495   9.212  13.765
76210SOL     OW30526   1.776   6.785   8.604
76210SOL    HW130527   1.699   6.823   8.561
76210SOL    HW230528   1.791   6.703   8.558
76211SOL     OW30529  11.305  13.236  10.608
76211SOL    HW130530  11.397  13.261  10.609
76211SOL    HW230531  11.280  13.243  10.516
76212SOL     OW30532   6.412   3.120   2.292
76212SOL    HW130533   6.353   3.181   2.336
76212SOL    HW230534   6.497   3.136   2.332
76213SOL     OW30535  14.726   3.489   3.881
76213SOL    HW130536  14.640   3.459   3.852
76213SOL    HW230537  14.743   3.441   3.962
76214SOL     OW30538  10.364   0.537  14.826
76214SOL    HW130539  10.440   0.550  14.769
76214SOL    HW230540  10.398   0.492   0.035
76215SOL     OW30541   1.698   3.406   5.262
76215SOL    HW130542   1.689   3.488   5.214
76215SOL    HW230543   1.762   3.356   5.211
76216SOL     OW30544  11.635   0.501   1.098
76216SOL    HW130545  11.682   0.554   1.163
76216SOL    HW230546  11.572   0.562   1.059
76217SOL     OW30547  12.180   8.382   5.016
76217SOL    HW130548  12.125   8.351   5.088
76217SOL    HW230549  12.121   8.436   4.963
76218SOL     OW30550   0.106  14.197   2.407
76218SOL    HW130551   0.087  14.284   2.371
76218SOL    HW230552   0.064  14.197   2.493
76219SOL     OW30553   3.736   1.891  11.102
76219SOL    HW130554   3.761   1.811  11.056
76219SOL    HW230555   3.750   1.961  11.038
76220SOL     OW30556  10.542  10.220   2.329
76220SOL    HW130557  10.479  10.218   2.402
76220SOL    HW230558  10.627  10.208   2.371
76221SOL     OW30559   5.248   3.021  12.439
76221SOL    HW130560   5.220   3.107  12.409
76221SOL    HW230561   5.249   3.028  12.534
76222SOL     OW30562   0.255   3.865   0.791
76222SOL    HW130563   0.327   3.878   0.852
76222SOL    HW230564   0.177   3.895   0.838
76223SOL     OW30565   1.136   3.704   4.092
76223SOL    HW130566   1.224   3.687   4.058
76223SOL    HW230567   1.078   3.664   4.027
76224SOL     OW30568   2.697   9.189   6.781
76224SOL    HW130569   2.741   9.192   6.866
76224SOL    HW230570   2.611   9.153   6.800
76225SOL     OW30571   2.416  12.246   9.426
76225SOL    HW130572   2.369  12.181   9.374
76225SOL    HW230573   2.391  12.330   9.388
76226SOL     OW30574   1.917   3.022   5.938
76226SOL    HW130575   1.960   3.105   5.960
76226SOL    HW230576   1.878   3.038   5.852
76227SOL     OW30577   6.330   8.091  12.568
76227SOL    HW130578   6.344   8.132  12.654
76227SOL    HW230579   6.262   8.026  12.583
76228SOL     OW30580   0.355   9.410   3.264
76228SOL    HW130581   0.327   9.501   3.274
76228SOL    HW230582   0.306   9.378   3.188
76229SOL     OW30583  11.047   9.144   8.529
76229SOL    HW130584  10.990   9.134   8.453
76229SOL    HW230585  10.990   9.178   8.598
76230SOL     OW30586   3.217   5.326   3.801
76230SOL    HW130587   3.293   5.345   3.855
76230SOL    HW230588   3.183   5.412   3.776
76231SOL     OW30589   2.331  10.597  13.716
76231SOL    HW130590   2.373  10.652  13.650
76231SOL    HW230591   2.241  10.630  13.720
76232SOL     OW30592   1.360  10.715   3.066
76232SOL    HW130593   1.451  10.715   3.094
76232SOL    HW230594   1.365  10.712   2.970
76233SOL     OW30595  13.546   9.187   8.532
76233SOL    HW130596  13.537   9.139   8.449
76233SOL    HW230597  13.601   9.131   8.587
76234SOL     OW30598   9.956   5.981  13.038
76234SOL    HW130599  10.018   5.955  13.107
76234SOL    HW230600   9.959   6.076  13.038
76235SOL     OW30601   0.710   7.916  14.273
76235SOL    HW130602   0.797   7.910  14.233
76235SOL    HW230603   0.714   7.857  14.348
76236SOL     OW30604   9.321  12.758  10.695
76236SOL    HW130605   9.353  12.671  10.719
76236SOL    HW230606   9.226  12.749  10.691
76237SOL     OW30607   3.745   9.117  10.639
76237SOL    HW130608   3.775   9.043  10.693
76237SOL    HW230609   3.665   9.086  10.598
76238SOL     OW30610  12.289   1.504   3.616
76238SOL    HW130611  12.329   1.524   3.531
76238SOL    HW230612  12.263   1.590   3.650
76239SOL     OW30613  10.065   2.360   1.737
76239SOL    HW130614  10.001   2.303   1.780
76239SOL    HW230615  10.031   2.373   1.649
76240SOL     OW30616   7.429   7.358  11.016
76240SOL    HW130617   7.425   7.392  11.105
76240SOL    HW230618   7.520   7.330  11.004
76241SOL     OW30619   3.356   5.490   9.489
76241SOL    HW130620   3.422   5.556   9.466
76241SOL    HW230621   3.387   5.409   9.448
76242SOL     OW30622   8.326   3.336   2.046
76242SOL    HW130623   8.305   3.428   2.029
76242SOL    HW230624   8.413   3.323   2.008
76243SOL     OW30625   4.500   4.804  13.167
76243SOL    HW130626   4.550   4.884  13.153
76243SOL    HW230627   4.472   4.778  13.080
76244SOL     OW30628   9.272   2.990   6.586
76244SOL    HW130629   9.245   3.080   6.601
76244SOL    HW230630   9.204   2.955   6.527
76245SOL     OW30631   2.645   1.102  12.643
76245SOL    HW130632   2.591   1.075  12.569
76245SOL    HW230633   2.598   1.176  12.682
76246SOL     OW30634  12.706   0.179   7.306
76246SOL    HW130635  12.795   0.214   7.312
76246SOL    HW230636  12.680   0.194   7.216
76247SOL     OW30637  13.680   1.410   8.263
76247SOL    HW130638  13.706   1.399   8.172
76247SOL    HW230639  13.741   1.355   8.313
76248SOL     OW30640  10.244   5.620   8.078
76248SOL    HW130641  10.262   5.558   8.008
76248SOL    HW230642  10.204   5.567   8.147
76249SOL     OW30643   8.915   4.949   8.852
76249SOL    HW130644   8.991   4.916   8.804
76249SOL    HW230645   8.863   4.871   8.870
76250SOL     OW30646   9.646   3.258  14.668
76250SOL    HW130647   9.551   3.271  14.665
76250SOL    HW230648   9.658   3.182  14.725
76251SOL     OW30649   4.836  11.741  13.574
76251SOL    HW130650   4.819  11.687  13.651
76251SOL    HW230651   4.924  11.775  13.587
76252SOL     OW30652   0.511   4.427   9.991
76252SOL    HW130653   0.569   4.495  10.026
76252SOL    HW230654   0.570   4.365   9.948
76253SOL     OW30655   9.058  10.872   2.413
76253SOL    HW130656   9.118  10.861   2.339
76253SOL    HW230657   9.006  10.791   2.414
76254SOL     OW30658   2.857   8.971   5.712
76254SOL    HW130659   2.938   9.019   5.732
76254SOL    HW230660   2.796   8.997   5.780
76255SOL     OW30661   4.175   5.436  11.290
76255SOL    HW130662   4.103   5.492  11.319
76255SOL    HW230663   4.249   5.496  11.282
76256SOL     OW30664  13.994   3.613   6.046
76256SOL    HW130665  13.967   3.591   5.957
76256SOL    HW230666  14.076   3.566   6.059
76257SOL     OW30667   1.931  14.010  11.067
76257SOL    HW130668   2.022  13.993  11.091
76257SOL    HW230669   1.890  13.924  11.063
76258SOL     OW30670  12.109   3.586  14.852
76258SOL    HW130671  12.057   3.518  14.808
76258SOL    HW230672  12.175   3.537   0.033
76259SOL     OW30673  14.245  12.519   1.304
76259SOL    HW130674  14.213  12.609   1.312
76259SOL    HW230675  14.199  12.471   1.374
76260SOL     OW30676   7.821   4.519   7.110
76260SOL    HW130677   7.752   4.478   7.057
76260SOL    HW230678   7.843   4.599   7.062
76261SOL     OW30679   4.446  14.676   2.754
76261SOL    HW130680   4.368  14.661   2.808
76261SOL    HW230681   4.458  14.771   2.755
76262SOL     OW30682   8.582   4.281  13.421
76262SOL    HW130683   8.600   4.231  13.501
76262SOL    HW230684   8.643   4.354  13.424
76263SOL     OW30685   4.503   7.568  14.651
76263SOL    HW130686   4.584   7.592  14.607
76263SOL    HW230687   4.499   7.625  14.728
76264SOL     OW30688   5.670   7.290   9.619
76264SOL    HW130689   5.678   7.228   9.692
76264SOL    HW230690   5.578   7.283   9.593
76265SOL     OW30691  11.362   5.491  12.832
76265SOL    HW130692  11.435   5.500  12.893
76265SOL    HW230693  11.293   5.546  12.869
76266SOL     OW30694   6.003  12.177   3.766
76266SOL    HW130695   6.029  12.094   3.727
76266SOL    HW230696   5.947  12.218   3.699
76267SOL     OW30697  10.691   2.021  14.262
76267SOL    HW130698  10.766   2.080  14.257
76267SOL    HW230699  10.638   2.041  14.184
76268SOL     OW30700   1.626   2.908   5.266
76268SOL    HW130701   1.619   2.814   5.283
76268SOL    HW230702   1.588   2.920   5.179
76269SOL     OW30703   9.487   4.325   4.873
76269SOL    HW130704   9.561   4.384   4.858
76269SOL    HW230705   9.409   4.379   4.861
76270SOL     OW30706   3.407   9.046  13.470
76270SOL    HW130707   3.435   9.136  13.450
76270SOL    HW230708   3.323   9.057  13.513
76271SOL     OW30709   8.062   8.430   1.346
76271SOL    HW130710   8.020   8.350   1.312
76271SOL    HW230711   8.148   8.431   1.305
76272SOL     OW30712   9.179  12.656  12.401
76272SOL    HW130713   9.181  12.713  12.478
76272SOL    HW230714   9.094  12.613  12.406
76273SOL     OW30715   8.964  11.454  14.390
76273SOL    HW130716   8.978  11.495  14.304
76273SOL    HW230717   9.042  11.400  14.403
76274SOL     OW30718  13.308   2.492   0.658
76274SOL    HW130719  13.344   2.419   0.607
76274SOL    HW230720  13.293   2.455   0.745
76275SOL     OW30721   6.965   3.587  11.022
76275SOL    HW130722   6.922   3.662  10.983
76275SOL    HW230723   7.012   3.545  10.950
76276SOL     OW30724   4.424   5.940  12.088
76276SOL    HW130725   4.420   5.846  12.073
76276SOL    HW230726   4.333   5.966  12.099
76277SOL     OW30727   0.737  10.574   3.832
76277SOL    HW130728   0.756  10.483   3.810
76277SOL    HW230729   0.754  10.623   3.751
76278SOL     OW30730  13.636   9.994   1.254
76278SOL    HW130731  13.692   9.917   1.246
76278SOL    HW230732  13.681  10.050   1.318
76279SOL     OW30733   1.794  13.317   9.748
76279SOL    HW130734   1.708  13.341   9.713
76279SOL    HW230735   1.792  13.344   9.839
76280SOL     OW30736   2.584   8.738   0.471
76280SOL    HW130737   2.496   8.773   0.458
76280SOL    HW230738   2.601   8.748   0.565
76281SOL     OW30739   8.706  12.118  11.923
76281SOL    HW130740   8.664  12.112  12.009
76281SOL    HW230741   8.683  12.037  11.879
76282SOL     OW30742  10.204   7.174   0.350
76282SOL    HW130743  10.294   7.206   0.339
76282SOL    HW230744  10.165   7.182   0.263
76283SOL     OW30745   6.915  13.826  13.736
76283SOL    HW130746   6.931  13.919  13.716
76283SOL    HW230747   6.849  13.799  13.672
76284SOL     OW30748  10.260   3.028   5.292
76284SOL    HW130749  10.246   2.983   5.376
76284SOL    HW230750  10.274   3.120   5.317
76285SOL     OW30751   9.170   1.934   7.944
76285SOL    HW130752   9.241   1.973   7.894
76285SOL    HW230753   9.094   1.941   7.887
76286SOL     OW30754   0.496   8.662  10.545
76286SOL    HW130755   0.565   8.728  10.555
76286SOL    HW230756   0.466   8.671  10.455
76287SOL     OW30757   5.952   0.444   0.515
76287SOL    HW130758   5.971   0.460   0.423
76287SOL    HW230759   5.868   0.486   0.530
76288SOL     OW30760   4.560   3.209   4.040
76288SOL    HW130761   4.506   3.160   3.978
76288SOL    HW230762   4.614   3.143   4.083
76289SOL     OW30763   4.973   4.502  11.850
76289SOL    HW130764   5.032   4.433  11.818
76289SOL    HW230765   5.009   4.527  11.935
76290SOL     OW30766  11.770  13.896   4.944
76290SOL    HW130767  11.702  13.879   4.878
76290SOL    HW230768  11.753  13.986   4.972
76291SOL     OW30769   4.885   7.157   7.545
76291SOL    HW130770   4.814   7.094   7.529
76291SOL    HW230771   4.964   7.112   7.515
76292SOL     OW30772  10.142  11.427   3.084
76292SOL    HW130773  10.153  11.440   3.178
76292SOL    HW230774  10.191  11.347   3.065
76293SOL     OW30775  10.877   4.770  14.372
76293SOL    HW130776  10.832   4.692  14.405
76293SOL    HW230777  10.807   4.832  14.352
76294SOL     OW30778   8.941   7.458   5.053
76294SOL    HW130779   8.863   7.428   5.100
76294SOL    HW230780   8.908   7.514   4.983
76295SOL     OW30781   4.283   7.891   1.466
76295SOL    HW130782   4.346   7.957   1.495
76295SOL    HW230783   4.207   7.903   1.524
76296SOL     OW30784  12.283   5.987   3.267
76296SOL    HW130785  12.315   6.077   3.262
76296SOL    HW230786  12.224   5.978   3.192
76297SOL     OW30787   7.917   6.235   7.834
76297SOL    HW130788   7.850   6.197   7.890
76297SOL    HW230789   7.868   6.271   7.760
76298SOL     OW30790   8.018   4.380  14.726
76298SOL    HW130791   7.935   4.337  14.746
76298SOL    HW230792   8.082   4.310  14.727
76299SOL     OW30793  12.001   9.139   4.686
76299SOL    HW130794  12.085   9.095   4.675
76299SOL    HW230795  11.955   9.086   4.750
76300SOL     OW30796   2.824   9.651   6.413
76300SOL    HW130797   2.787   9.671   6.499
76300SOL    HW230798   2.913   9.622   6.432
76301SOL     OW30799  11.294  12.846  12.969
76301SOL    HW130800  11.339  12.922  12.933
76301SOL    HW230801  11.328  12.772  12.919
76302SOL     OW30802   6.087  11.904   4.638
76302SOL    HW130803   6.039  11.823   4.617
76302SOL    HW230804   6.120  11.935   4.554
76303SOL     OW30805   9.261   5.888   9.490
76303SOL    HW130806   9.330   5.869   9.427
76303SOL    HW230807   9.186   5.838   9.458
76304SOL     OW30808  10.457  12.377   3.724
76304SOL    HW130809  10.436  12.286   3.705
76304SOL    HW230810  10.380  12.426   3.693
76305SOL     OW30811   0.528  12.732  10.124
76305SOL    HW130812   0.546  12.755  10.216
76305SOL    HW230813   0.452  12.674  10.128
76306SOL     OW30814   3.717   0.696   8.556
76306SOL    HW130815   3.746   0.700   8.465
76306SOL    HW230816   3.781   0.641   8.600
76307SOL     OW30817  14.481  11.860   1.741
76307SOL    HW130818  14.547  11.891   1.803
76307SOL    HW230819  14.444  11.783   1.783
76308SOL     OW30820   1.101   4.033   6.167
76308SOL    HW130821   1.104   4.129   6.167
76308SOL    HW230822   1.017   4.012   6.127
76309SOL     OW30823   1.065   7.991   4.583
76309SOL    HW130824   1.091   8.072   4.629
76309SOL    HW230825   0.980   8.012   4.545
76310SOL     OW30826   3.343  14.013   6.592
76310SOL    HW130827   3.306  14.037   6.508
76310SOL    HW230828   3.268  13.983   6.644
76311SOL     OW30829  11.456  10.872   0.146
76311SOL    HW130830  11.466  10.782   0.178
76311SOL    HW230831  11.387  10.909   0.201
76312SOL     OW30832  11.810   0.840   6.784
76312SOL    HW130833  11.880   0.816   6.723
76312SOL    HW230834  11.748   0.890   6.730
76313SOL     OW30835   0.887   9.165   3.305
76313SOL    HW130836   0.844   9.178   3.390
76313SOL    HW230837   0.950   9.237   3.299
76314SOL     OW30838   0.962   4.223   6.362
76314SOL    HW130839   1.024   4.281   6.317
76314SOL    HW230840   1.015   4.177   6.427
76315SOL     OW30841  11.006   8.751   7.512
76315SOL    HW130842  10.918   8.716   7.503
76315SOL    HW230843  10.997   8.844   7.490
76316SOL     OW30844  14.254  11.865   3.263
76316SOL    HW130845  14.251  11.773   3.287
76316SOL    HW230846  14.182  11.877   3.201
76317SOL     OW30847   0.508   3.838   3.140
76317SOL    HW130848   0.419   3.819   3.169
76317SOL    HW230849   0.537   3.757   3.097
76318SOL     OW30850   3.772   2.225   5.500
76318SOL    HW130851   3.835   2.256   5.564
76318SOL    HW230852   3.798   2.267   5.418
76319SOL     OW30853   4.860   2.594  11.823
76319SOL    HW130854   4.905   2.539  11.887
76319SOL    HW230855   4.931   2.628  11.768
76320SOL     OW30856   4.867   7.011  14.374
76320SOL    HW130857   4.884   6.931  14.323
76320SOL    HW230858   4.861   6.980  14.465
76321SOL     OW30859   9.620   6.474  11.231
76321SOL    HW130860   9.549   6.410  11.223
76321SOL    HW230861   9.645   6.494  11.141
76322SOL     OW30862   8.401   5.652   6.775
76322SOL    HW130863   8.442   5.580   6.727
76322SOL    HW230864   8.474   5.711   6.796
76323SOL     OW30865   0.886  13.966   7.838
76323SOL    HW130866   0.973  13.980   7.875
76323SOL    HW230867   0.901  13.960   7.744
76324SOL     OW30868  13.462   8.515   8.043
76324SOL    HW130869  13.475   8.449   8.111
76324SOL    HW230870  13.367   8.524   8.037
76325SOL     OW30871  14.262  11.271  13.832
76325SOL    HW130872  14.167  11.272  13.844
76325SOL    HW230873  14.296  11.231  13.912
76326SOL     OW30874  11.234   6.677   1.518
76326SOL    HW130875  11.242   6.773   1.511
76326SOL    HW230876  11.161   6.663   1.578
76327SOL     OW30877   8.582  10.632   8.368
76327SOL    HW130878   8.520  10.560   8.362
76327SOL    HW230879   8.578  10.660   8.459
76328SOL     OW30880  10.589  14.305   8.117
76328SOL    HW130881  10.613  14.214   8.104
76328SOL    HW230882  10.672  14.352   8.118
76329SOL     OW30883   6.951   6.041   9.081
76329SOL    HW130884   6.976   6.130   9.107
76329SOL    HW230885   6.869   6.025   9.128
76330SOL     OW30886  11.010  11.688  10.065
76330SOL    HW130887  11.101  11.665  10.047
76330SOL    HW230888  10.964  11.604  10.070
76331SOL     OW30889  14.419   5.735   7.432
76331SOL    HW130890  14.367   5.658   7.409
76331SOL    HW230891  14.432   5.728   7.526
76332SOL     OW30892   9.074   8.102   1.739
76332SOL    HW130893   9.093   8.195   1.753
76332SOL    HW230894   8.980   8.099   1.724
76333SOL     OW30895  12.451   7.497  12.055
76333SOL    HW130896  12.445   7.419  12.109
76333SOL    HW230897  12.474   7.464  11.968
76334SOL     OW30898   9.497  11.640   8.333
76334SOL    HW130899   9.556  11.665   8.262
76334SOL    HW230900   9.531  11.556   8.364
76335SOL     OW30901   2.242   2.657   4.400
76335SOL    HW130902   2.177   2.656   4.329
76335SOL    HW230903   2.249   2.566   4.428
76336SOL     OW30904   7.506   4.060   7.607
76336SOL    HW130905   7.554   4.013   7.676
76336SOL    HW230906   7.476   3.991   7.548
76337SOL     OW30907  11.519  12.212  11.043
76337SOL    HW130908  11.477  12.126  11.048
76337SOL    HW230909  11.592  12.200  10.982
76338SOL     OW30910   4.409   6.152  10.558
76338SOL    HW130911   4.481   6.172  10.618
76338SOL    HW230912   4.416   6.218  10.489
76339SOL     OW30913   6.300   3.434   3.737
76339SOL    HW130914   6.341   3.422   3.652
76339SOL    HW230915   6.346   3.373   3.795
76340SOL     OW30916   4.903  12.566   9.106
76340SOL    HW130917   4.887  12.554   9.013
76340SOL    HW230918   4.817  12.555   9.147
76341SOL     OW30919  13.102   1.811  10.368
76341SOL    HW130920  13.102   1.864  10.447
76341SOL    HW230921  13.193   1.783  10.356
76342SOL     OW30922  13.313  14.866  13.504
76342SOL    HW130923  13.332   0.085  13.469
76342SOL    HW230924  13.382  14.810  13.468
76343SOL     OW30925   6.827   2.704   2.707
76343SOL    HW130926   6.845   2.792   2.739
76343SOL    HW230927   6.815   2.651   2.786
76344SOL     OW30928   7.896   5.350   5.608
76344SOL    HW130929   7.952   5.326   5.534
76344SOL    HW230930   7.829   5.282   5.611
76345SOL     OW30931  10.544   7.517   1.857
76345SOL    HW130932  10.625   7.482   1.820
76345SOL    HW230933  10.507   7.570   1.786
76346SOL     OW30934   1.021  11.033   9.278
76346SOL    HW130935   0.985  11.061   9.194
76346SOL    HW230936   0.953  11.053   9.341
76347SOL     OW30937  10.420  13.478   1.479
76347SOL    HW130938  10.464  13.487   1.563
76347SOL    HW230939  10.461  13.545   1.423
76348SOL     OW30940  14.499   6.372   1.009
76348SOL    HW130941  14.539   6.286   1.026
76348SOL    HW230942  14.572   6.430   0.991
76349SOL     OW30943   4.612   9.357   9.640
76349SOL    HW130944   4.645   9.332   9.726
76349SOL    HW230945   4.517   9.356   9.649
76350SOL     OW30946   7.163   2.219   1.673
76350SOL    HW130947   7.233   2.236   1.611
76350SOL    HW230948   7.122   2.304   1.688
76351SOL     OW30949   6.130  14.255   5.286
76351SOL    HW130950   6.079  14.336   5.279
76351SOL    HW230951   6.211  14.282   5.329
76352SOL     OW30952   6.562   5.110  13.762
76352SOL    HW130953   6.629   5.078  13.823
76352SOL    HW230954   6.544   5.036  13.705
76353SOL     OW30955   5.360   5.290  14.706
76353SOL    HW130956   5.267   5.299  14.687
76353SOL    HW230957   5.386   5.208  14.665
76354SOL     OW30958  10.271  14.324   7.515
76354SOL    HW130959  10.231  14.239   7.537
76354SOL    HW230960  10.344  14.332   7.575
76355SOL     OW30961   9.400   8.719   7.254
76355SOL    HW130962   9.452   8.727   7.174
76355SOL    HW230963   9.426   8.634   7.290
76356SOL     OW30964   1.184   7.897   9.313
76356SOL    HW130965   1.277   7.879   9.300
76356SOL    HW230966   1.140   7.820   9.277
76357SOL     OW30967   9.572  11.066   4.458
76357SOL    HW130968   9.509  11.002   4.424
76357SOL    HW230969   9.657  11.036   4.428
76358SOL     OW30970   5.295   0.119   6.910
76358SOL    HW130971   5.383   0.150   6.930
76358SOL    HW230972   5.276   0.155   6.823
76359SOL     OW30973  12.717   2.391  10.453
76359SOL    HW130974  12.672   2.307  10.460
76359SOL    HW230975  12.763   2.400  10.537
76360SOL     OW30976  14.726   5.288   6.603
76360SOL    HW130977  14.728   5.381   6.580
76360SOL    HW230978  14.798   5.250   6.553
76361SOL     OW30979   1.095   6.093   1.760
76361SOL    HW130980   1.181   6.072   1.796
76361SOL    HW230981   1.089   6.043   1.679
76362SOL     OW30982  10.420  10.920  11.061
76362SOL    HW130983  10.365  10.926  10.983
76362SOL    HW230984  10.459  10.833  11.055
76363SOL     OW30985   3.439  12.638  13.831
76363SOL    HW130986   3.488  12.585  13.894
76363SOL    HW230987   3.353  12.650  13.871
76364SOL     OW30988   4.298   4.201   3.969
76364SOL    HW130989   4.266   4.126   4.019
76364SOL    HW230990   4.389   4.211   3.996
76365SOL     OW30991   6.834   3.550   7.846
76365SOL    HW130992   6.858   3.512   7.761
76365SOL    HW230993   6.746   3.516   7.862
76366SOL     OW30994  10.136  12.255   0.028
76366SOL    HW130995  10.041  12.246   0.040
76366SOL    HW230996  10.168  12.164   0.026
76367SOL     OW30997   9.169   0.339   2.433
76367SOL    HW130998   9.249   0.393   2.440
76367SOL    HW230999   9.201   0.250   2.421
76368SOL     OW31000   3.406  11.881   8.805
76368SOL    HW131001   3.351  11.802   8.810
76368SOL    HW231002   3.384  11.930   8.884
76369SOL     OW31003   1.076   1.998   4.856
76369SOL    HW131004   1.078   2.067   4.790
76369SOL    HW231005   1.002   2.020   4.912
76370SOL     OW31006   8.345  11.610   9.859
76370SOL    HW131007   8.435  11.585   9.838
76370SOL    HW231008   8.316  11.658   9.781
76371SOL     OW31009  10.790   5.533   5.626
76371SOL    HW131010  10.718   5.490   5.579
76371SOL    HW231011  10.746   5.602   5.678
76372SOL     OW31012   1.212   3.982  10.449
76372SOL    HW131013   1.277   4.051  10.437
76372SOL    HW231014   1.262   3.904  10.472
76373SOL     OW31015   2.749   6.386  13.553
76373SOL    HW131016   2.719   6.441  13.480
76373SOL    HW231017   2.839   6.363  13.530
76374SOL     OW31018  13.204  12.503  12.549
76374SOL    HW131019  13.118  12.474  12.519
76374SOL    HW231020  13.186  12.562  12.622
76375SOL     OW31021   3.064  10.222  13.433
76375SOL    HW131022   3.095  10.135  13.406
76375SOL    HW231023   2.986  10.237  13.380
76376SOL     OW31024   5.518   5.731  14.537
76376SOL    HW131025   5.459   5.768  14.471
76376SOL    HW231026   5.539   5.805  14.594
76377SOL     OW31027   1.689   3.150  12.280
76377SOL    HW131028   1.715   3.233  12.319
76377SOL    HW231029   1.610   3.170  12.230
76378SOL     OW31030   3.204   3.331   4.172
76378SOL    HW131031   3.130   3.321   4.112
76378SOL    HW231032   3.241   3.243   4.179
76379SOL     OW31033   2.881   9.503   7.929
76379SOL    HW131034   2.802   9.557   7.925
76379SOL    HW231035   2.871   9.441   7.857
76380SOL     OW31036   4.171   0.856  11.893
76380SOL    HW131037   4.111   0.895  11.958
76380SOL    HW231038   4.225   0.929  11.864
76381SOL     OW31039   8.806  14.732   4.581
76381SOL    HW131040   8.723  14.715   4.627
76381SOL    HW231041   8.859  14.654   4.599
76382SOL     OW31042   9.809   3.320   3.880
76382SOL    HW131043   9.838   3.372   3.806
76382SOL    HW231044   9.719   3.295   3.859
76383SOL     OW31045   5.056  10.124  11.139
76383SOL    HW131046   4.987  10.106  11.076
76383SOL    HW231047   5.118  10.052  11.128
76384SOL     OW31048   6.738   1.106  12.408
76384SOL    HW131049   6.757   1.189  12.364
76384SOL    HW231050   6.681   1.130  12.481
76385SOL     OW31051  10.431   1.894   5.669
76385SOL    HW131052  10.447   1.987   5.680
76385SOL    HW231053  10.406   1.884   5.577
76386SOL     OW31054  10.368   7.073  12.953
76386SOL    HW131055  10.318   7.153  12.936
76386SOL    HW231056  10.427   7.097  13.024
76387SOL     OW31057   5.965  13.829  10.116
76387SOL    HW131058   6.054  13.845  10.087
76387SOL    HW231059   5.911  13.838  10.037
76388SOL     OW31060   2.432   2.810  13.219
76388SOL    HW131061   2.389   2.724  13.224
76388SOL    HW231062   2.361   2.872  13.203
76389SOL     OW31063   5.461   4.397   3.303
76389SOL    HW131064   5.465   4.321   3.361
76389SOL    HW231065   5.472   4.360   3.215
76390SOL     OW31066  11.758   0.397  13.238
76390SOL    HW131067  11.729   0.470  13.292
76390SOL    HW231068  11.764   0.323  13.299
76391SOL     OW31069   7.464  14.803  10.330
76391SOL    HW131070   7.501  14.716  10.346
76391SOL    HW231071   7.380  14.802  10.376
76392SOL     OW31072  11.222  12.081   0.628
76392SOL    HW131073  11.218  11.987   0.611
76392SOL    HW231074  11.161  12.120   0.565
76393SOL     OW31075   4.893   9.319   7.481
76393SOL    HW131076   4.821   9.273   7.524
76393SOL    HW231077   4.940   9.362   7.553
76394SOL     OW31078   4.442   4.610   5.947
76394SOL    HW131079   4.506   4.549   5.984
76394SOL    HW231080   4.488   4.693   5.943
76395SOL     OW31081   2.255   6.705  10.883
76395SOL    HW131082   2.236   6.766  10.955
76395SOL    HW231083   2.168   6.679  10.852
76396SOL     OW31084  13.680  10.322   7.826
76396SOL    HW131085  13.691  10.262   7.752
76396SOL    HW231086  13.766  10.360   7.840
76397SOL     OW31087  11.235   7.986   1.077
76397SOL    HW131088  11.288   8.009   1.000
76397SOL    HW231089  11.259   7.896   1.097
76398SOL     OW31090   9.050   7.619  10.503
76398SOL    HW131091   9.057   7.555  10.575
76398SOL    HW231092   9.100   7.580  10.432
76399SOL     OW31093   7.568   0.808   5.301
76399SOL    HW131094   7.639   0.852   5.255
76399SOL    HW231095   7.492   0.863   5.285
76400SOL     OW31096   6.171   0.106   1.722
76400SOL    HW131097   6.104   0.132   1.658
76400SOL    HW231098   6.218   0.187   1.741
76401SOL     OW31099  10.779   7.611  12.197
76401SOL    HW131100  10.864   7.653  12.183
76401SOL    HW231101  10.799   7.529  12.241
76402SOL     OW31102  12.620   8.268  14.436
76402SOL    HW131103  12.694   8.314  14.476
76402SOL    HW231104  12.609   8.310  14.351
76403SOL     OW31105   9.238   6.307   6.610
76403SOL    HW131106   9.265   6.359   6.685
76403SOL    HW231107   9.228   6.371   6.539
76404SOL     OW31108   4.743   9.035   7.083
76404SOL    HW131109   4.777   9.122   7.063
76404SOL    HW231110   4.735   9.033   7.178
76405SOL     OW31111  11.167  11.176   5.139
76405SOL    HW131112  11.251  11.220   5.147
76405SOL    HW231113  11.105  11.244   5.114
76406SOL     OW31114  13.114  12.975   6.834
76406SOL    HW131115  13.117  13.061   6.791
76406SOL    HW231116  13.037  12.980   6.891
76407SOL     OW31117   6.563  11.089  14.725
76407SOL    HW131118   6.601  11.120  14.807
76407SOL    HW231119   6.477  11.054  14.750
76408SOL     OW31120   0.556   0.474   9.174
76408SOL    HW131121   0.543   0.526   9.095
76408SOL    HW231122   0.651   0.464   9.182
76409SOL     OW31123  12.812  11.154  13.469
76409SOL    HW131124  12.844  11.125  13.383
76409SOL    HW231125  12.891  11.160  13.523
76410SOL     OW31126  14.278   2.992   4.294
76410SOL    HW131127  14.327   2.923   4.248
76410SOL    HW231128  14.190   2.957   4.304
76411SOL     OW31129  13.897   2.914   0.325
76411SOL    HW131130  13.834   2.984   0.312
76411SOL    HW231131  13.980   2.951   0.295
76412SOL     OW31132   9.693   6.292  11.660
76412SOL    HW131133   9.707   6.350  11.585
76412SOL    HW231134   9.723   6.207  11.630
76413SOL     OW31135   3.440   1.580   5.043
76413SOL    HW131136   3.361   1.542   5.080
76413SOL    HW231137   3.460   1.655   5.100
76414SOL     OW31138   2.325   7.555   5.098
76414SOL    HW131139   2.299   7.598   5.017
76414SOL    HW231140   2.375   7.478   5.069
76415SOL     OW31141  13.665  10.070  12.248
76415SOL    HW131142  13.622  10.080  12.333
76415SOL    HW231143  13.708  10.154  12.233
76416SOL     OW31144  14.512   8.089  10.069
76416SOL    HW131145  14.596   8.044  10.059
76416SOL    HW231146  14.526   8.153  10.139
76417SOL     OW31147  14.418  11.393  12.573
76417SOL    HW131148  14.409  11.457  12.502
76417SOL    HW231149  14.472  11.323  12.535
76418SOL     OW31150   4.087   4.597   0.523
76418SOL    HW131151   4.156   4.604   0.589
76418SOL    HW231152   4.134   4.594   0.440
76419SOL     OW31153   5.548   0.247   0.073
76419SOL    HW131154   5.479   0.185   0.048
76419SOL    HW231155   5.510   0.333   0.053
76420SOL     OW31156  11.042   0.345  11.360
76420SOL    HW131157  11.014   0.386  11.442
76420SOL    HW231158  10.976   0.371  11.297
76421SOL     OW31159  12.394   0.778   5.468
76421SOL    HW131160  12.301   0.777   5.489
76421SOL    HW231161  12.416   0.687   5.448
76422SOL     OW31162   5.349  13.143  11.573
76422SOL    HW131163   5.274  13.084  11.572
76422SOL    HW231164   5.369  13.160  11.481
76423SOL     OW31165   1.533  14.275   4.463
76423SOL    HW131166   1.482  14.293   4.542
76423SOL    HW231167   1.567  14.187   4.476
76424SOL     OW31168   5.027  14.111   7.455
76424SOL    HW131169   4.979  14.193   7.441
76424SOL    HW231170   5.016  14.092   7.548
76425SOL     OW31171   1.767   5.596   6.471
76425SOL    HW131172   1.822   5.618   6.546
76425SOL    HW231173   1.827   5.590   6.397
76426SOL     OW31174   1.867  14.693  11.599
76426SOL    HW131175   1.818  14.676  11.518
76426SOL    HW231176   1.955  14.661  11.580
76427SOL     OW31177   9.292   0.628   5.422
76427SOL    HW131178   9.290   0.723   5.414
76427SOL    HW231179   9.308   0.596   5.334
76428SOL     OW31180  10.462   0.531  13.471
76428SOL    HW131181  10.557   0.542  13.458
76428SOL    HW231182  10.455   0.486  13.556
76429SOL     OW31183   3.167   5.785  12.138
76429SOL    HW131184   3.213   5.836  12.072
76429SOL    HW231185   3.078   5.819  12.137
76430SOL     OW31186   8.671   7.252   9.528
76430SOL    HW131187   8.699   7.223   9.441
76430SOL    HW231188   8.601   7.315   9.510
76431SOL     OW31189   0.757  11.516   2.487
76431SOL    HW131190   0.674  11.523   2.534
76431SOL    HW231191   0.758  11.428   2.452
76432SOL     OW31192   2.765   0.631   2.193
76432SOL    HW131193   2.795   0.542   2.214
76432SOL    HW231194   2.803   0.650   2.107
76433SOL     OW31195   2.983   6.645  10.834
76433SOL    HW131196   2.923   6.578  10.800
76433SOL    HW231197   3.070   6.609  10.819
76434SOL     OW31198   5.845   7.602   9.846
76434SOL    HW131199   5.912   7.536   9.826
76434SOL    HW231200   5.865   7.675   9.787
76435SOL     OW31201   5.416   9.452   3.385
76435SOL    HW131202   5.447   9.494   3.305
76435SOL    HW231203   5.469   9.492   3.455
76436SOL     OW31204  14.200  13.889  10.851
76436SOL    HW131205  14.166  13.939  10.924
76436SOL    HW231206  14.295  13.886  10.865
76437SOL     OW31207   4.648  10.847   0.466
76437SOL    HW131208   4.731  10.871   0.507
76437SOL    HW231209   4.596  10.810   0.538
76438SOL     OW31210  13.701   2.066   7.571
76438SOL    HW131211  13.768   2.048   7.637
76438SOL    HW231212  13.619   2.071   7.620
76439SOL     OW31213   9.953   9.401   6.208
76439SOL    HW131214   9.961   9.313   6.245
76439SOL    HW231215   9.912   9.452   6.278
76440SOL     OW31216  14.017   4.155   1.197
76440SOL    HW131217  13.959   4.182   1.268
76440SOL    HW231218  14.035   4.062   1.215
76441SOL     OW31219  14.214   8.030   2.483
76441SOL    HW131220  14.119   8.026   2.497
76441SOL    HW231221  14.225   8.025   2.388
76442SOL     OW31222   8.044  13.598   7.874
76442SOL    HW131223   8.105  13.665   7.905
76442SOL    HW231224   8.002  13.639   7.798
76443SOL     OW31225   7.931  13.429   1.488
76443SOL    HW131226   7.908  13.437   1.580
76443SOL    HW231227   8.015  13.382   1.488
76444SOL     OW31228   8.751  10.274  13.365
76444SOL    HW131229   8.753  10.310  13.277
76444SOL    HW231230   8.698  10.336  13.415
76445SOL     OW31231  12.614  12.630   5.537
76445SOL    HW131232  12.523  12.608   5.555
76445SOL    HW231233  12.618  12.725   5.543
76446SOL     OW31234   4.880   4.358   1.174
76446SOL    HW131235   4.831   4.440   1.169
76446SOL    HW231236   4.834   4.298   1.116
76447SOL     OW31237   8.334   5.985   5.111
76447SOL    HW131238   8.364   5.930   5.184
76447SOL    HW231239   8.246   6.012   5.137
76448SOL     OW31240   5.982   9.295   6.498
76448SOL    HW131241   6.037   9.257   6.429
76448SOL    HW231242   5.933   9.220   6.533
76449SOL     OW31243   9.161   7.450   7.783
76449SOL    HW131244   9.234   7.505   7.811
76449SOL    HW231245   9.085   7.484   7.831
76450SOL     OW31246  12.454  12.646   5.939
76450SOL    HW131247  12.477  12.611   6.025
76450SOL    HW231248  12.525  12.618   5.882
76451SOL     OW31249  11.535  14.848   6.421
76451SOL    HW131250  11.584   0.058   6.444
76451SOL    HW231251  11.581  14.776   6.465
76452SOL     OW31252   8.889   7.555  12.573
76452SOL    HW131253   8.870   7.571  12.480
76452SOL    HW231254   8.836   7.479  12.595
76453SOL     OW31255   7.527   9.479   0.890
76453SOL    HW131256   7.617   9.467   0.920
76453SOL    HW231257   7.478   9.496   0.970
76454SOL     OW31258   6.463   1.452   1.595
76454SOL    HW131259   6.481   1.371   1.547
76454SOL    HW231260   6.485   1.522   1.534
76455SOL     OW31261   4.682   8.240   1.790
76455SOL    HW131262   4.700   8.248   1.697
76455SOL    HW231263   4.646   8.152   1.801
76456SOL     OW31264   5.641   4.543   4.832
76456SOL    HW131265   5.675   4.628   4.860
76456SOL    HW231266   5.718   4.486   4.828
76457SOL     OW31267   8.270   3.220   2.402
76457SOL    HW131268   8.246   3.190   2.314
76457SOL    HW231269   8.317   3.301   2.388
76458SOL     OW31270   5.603   9.262   6.727
76458SOL    HW131271   5.645   9.181   6.697
76458SOL    HW231272   5.541   9.233   6.795
76459SOL     OW31273   7.839   4.609  13.990
76459SOL    HW131274   7.841   4.616  13.894
76459SOL    HW231275   7.917   4.654  14.019
76460SOL     OW31276   5.740   7.117  10.954
76460SOL    HW131277   5.821   7.100  11.004
76460SOL    HW231278   5.758   7.081  10.867
76461SOL     OW31279  10.817   3.017   8.681
76461SOL    HW131280  10.848   2.995   8.593
76461SOL    HW231281  10.840   3.110   8.691
76462SOL     OW31282   5.783  14.396   0.578
76462SOL    HW131283   5.697  14.437   0.580
76462SOL    HW231284   5.844  14.467   0.562
76463SOL     OW31285  14.492  13.148   7.502
76463SOL    HW131286  14.419  13.109   7.549
76463SOL    HW231287  14.495  13.101   7.418
76464SOL     OW31288   3.341   9.035   8.550
76464SOL    HW131289   3.356   9.049   8.644
76464SOL    HW231290   3.246   9.027   8.541
76465SOL     OW31291   9.933   8.862   7.943
76465SOL    HW131292   9.924   8.949   7.905
76465SOL    HW231293   9.847   8.821   7.930
76466SOL     OW31294  11.624  14.854   1.256
76466SOL    HW131295  11.646   0.072   1.220
76466SOL    HW231296  11.533  14.840   1.232
76467SOL     OW31297   4.015   6.704   0.303
76467SOL    HW131298   4.072   6.627   0.300
76467SOL    HW231299   3.976   6.709   0.215
76468SOL     OW31300  13.028  11.673   7.198
76468SOL    HW131301  13.099  11.644   7.141
76468SOL    HW231302  12.949  11.660   7.146
76469SOL     OW31303   0.761   7.082   0.376
76469SOL    HW131304   0.753   7.143   0.303
76469SOL    HW231305   0.759   6.995   0.335
76470SOL     OW31306   0.482  12.621   7.830
76470SOL    HW131307   0.391  12.590   7.834
76470SOL    HW231308   0.478  12.712   7.860
76471SOL     OW31309  13.166  13.041   4.111
76471SOL    HW131310  13.116  12.967   4.146
76471SOL    HW231311  13.188  13.014   4.022
76472SOL     OW31312  14.842   3.016   0.762
76472SOL    HW131313   0.067   3.035   0.772
76472SOL    HW231314  14.799   3.075   0.824
76473SOL     OW31315   1.930  10.747   6.529
76473SOL    HW131316   1.897  10.834   6.505
76473SOL    HW231317   1.953  10.755   6.621
76474SOL     OW31318  12.539   3.280   7.101
76474SOL    HW131319  12.486   3.247   7.028
76474SOL    HW231320  12.622   3.307   7.059
76475SOL     OW31321   2.012  10.561  11.964
76475SOL    HW131322   2.083  10.553  11.900
76475SOL    HW231323   1.937  10.592  11.914
76476SOL     OW31324   7.023   2.546   1.426
76476SOL    HW131325   7.007   2.639   1.416
76476SOL    HW231326   7.026   2.532   1.521
76477SOL     OW31327   5.972   9.502  14.514
76477SOL    HW131328   5.913   9.428  14.506
76477SOL    HW231329   6.011   9.511  14.427
76478SOL     OW31330   0.264   7.904   0.538
76478SOL    HW131331   0.312   7.834   0.495
76478SOL    HW231332   0.300   7.985   0.501
76479SOL     OW31333  12.296   3.544  12.791
76479SOL    HW131334  12.315   3.616  12.851
76479SOL    HW231335  12.356   3.474  12.819
76480SOL     OW31336   9.293  10.039   0.996
76480SOL    HW131337   9.249  10.072   0.918
76480SOL    HW231338   9.363  10.102   1.012
76481SOL     OW31339  11.440   8.222  11.530
76481SOL    HW131340  11.532   8.224  11.555
76481SOL    HW231341  11.395   8.188  11.607
76482SOL     OW31342   3.597   9.858   9.251
76482SOL    HW131343   3.649   9.794   9.300
76482SOL    HW231344   3.629   9.851   9.161
76483SOL     OW31345   1.070  14.252  11.180
76483SOL    HW131346   1.122  14.179  11.213
76483SOL    HW231347   1.063  14.312  11.254
76484SOL     OW31348   7.511  13.419   4.284
76484SOL    HW131349   7.571  13.446   4.215
76484SOL    HW231350   7.467  13.500   4.310
76485SOL     OW31351   4.307   0.678   5.578
76485SOL    HW131352   4.390   0.637   5.555
76485SOL    HW231353   4.311   0.766   5.540
76486SOL     OW31354   4.688  12.116   4.898
76486SOL    HW131355   4.642  12.140   4.818
76486SOL    HW231356   4.776  12.151   4.887
76487SOL     OW31357   0.152  10.382   6.337
76487SOL    HW131358   0.243  10.387   6.366
76487SOL    HW231359   0.129  10.473   6.317
76488SOL     OW31360  11.829   9.067   0.108
76488SOL    HW131361  11.857   9.128   0.177
76488SOL    HW231362  11.867   9.103   0.028
76489SOL     OW31363  12.060  12.869   2.958
76489SOL    HW131364  12.044  12.962   2.973
76489SOL    HW231365  12.043  12.856   2.865
76490SOL     OW31366  11.970   0.188   6.193
76490SOL    HW131367  12.049   0.154   6.151
76490SOL    HW231368  11.952   0.125   6.263
76491SOL     OW31369   7.578   7.807  10.552
76491SOL    HW131370   7.581   7.865  10.628
76491SOL    HW231371   7.658   7.754  10.559
76492SOL     OW31372   1.702  12.874   0.164
76492SOL    HW131373   1.639  12.849   0.096
76492SOL    HW231374   1.763  12.800   0.167
76493SOL     OW31375   5.500   2.728   9.457
76493SOL    HW131376   5.580   2.686   9.426
76493SOL    HW231377   5.495   2.705   9.550
76494SOL     OW31378   1.941   2.728   5.633
76494SOL    HW131379   1.953   2.730   5.728
76494SOL    HW231380   2.012   2.783   5.599
76495SOL     OW31381   7.296   7.994   9.245
76495SOL    HW131382   7.236   8.046   9.193
76495SOL    HW231383   7.241   7.954   9.313
76496SOL     OW31384  14.473   2.134   1.410
76496SOL    HW131385  14.522   2.124   1.491
76496SOL    HW231386  14.411   2.205   1.429
76497SOL     OW31387  11.108  14.246   7.683
76497SOL    HW131388  11.028  14.194   7.689
76497SOL    HW231389  11.160  14.218   7.758
76498SOL     OW31390  14.563   7.694   2.112
76498SOL    HW131391  14.641   7.696   2.056
76498SOL    HW231392  14.565   7.776   2.160
76499SOL     OW31393   1.650  13.826   5.837
76499SOL    HW131394   1.671  13.879   5.914
76499SOL    HW231395   1.649  13.889   5.765
76500SOL     OW31396  10.182  10.475   5.684
76500SOL    HW131397  10.129  10.474   5.764
76500SOL    HW231398  10.129  10.431   5.619
76501SOL     OW31399   5.023   8.451  10.785
76501SOL    HW131400   5.011   8.498  10.867
76501SOL    HW231401   4.949   8.390  10.781
76502SOL     OW31402  12.168   2.964   2.118
76502SOL    HW131403  12.086   2.972   2.167
76502SOL    HW231404  12.219   2.901   2.168
76503SOL     OW31405  10.066   8.996   3.459
76503SOL    HW131406  10.104   9.084   3.452
76503SOL    HW231407  10.115   8.954   3.530
76504SOL     OW31408   7.955   9.869   5.112
76504SOL    HW131409   7.868   9.890   5.078
76504SOL    HW231410   7.963   9.774   5.100
76505SOL     OW31411   6.374   7.930  13.206
76505SOL    HW131412   6.464   7.909  13.180
76505SOL    HW231413   6.370   8.026  13.202
76506SOL     OW31414  12.085  14.848   3.759
76506SOL    HW131415  12.018  14.866   3.825
76506SOL    HW231416  12.037  14.811   3.685
76507SOL     OW31417   6.837   1.892   0.415
76507SOL    HW131418   6.865   1.908   0.325
76507SOL    HW231419   6.904   1.834   0.451
76508SOL     OW31420   9.002  14.754  10.627
76508SOL    HW131421   8.919  14.777  10.670
76508SOL    HW231422   8.976  14.700  10.552
76509SOL     OW31423   1.322   7.322   8.586
76509SOL    HW131424   1.277   7.261   8.645
76509SOL    HW231425   1.264   7.328   8.510
76510SOL     OW31426   6.759  11.762   5.346
76510SOL    HW131427   6.669  11.765   5.316
76510SOL    HW231428   6.761  11.690   5.410
76511SOL     OW31429   1.074   8.040   0.316
76511SOL    HW131430   1.105   8.127   0.342
76511SOL    HW231431   1.128   8.017   0.241
76512SOL     OW31432   2.591   8.290   5.061
76512SOL    HW131433   2.673   8.242   5.049
76512SOL    HW231434   2.554   8.298   4.973
76513SOL     OW31435   1.589   4.348   9.180
76513SOL    HW131436   1.500   4.351   9.145
76513SOL    HW231437   1.611   4.439   9.199
76514SOL     OW31438  13.783  13.640   9.207
76514SOL    HW131439  13.855  13.581   9.184
76514SOL    HW231440  13.791  13.713   9.144
76515SOL     OW31441  13.634  14.642   9.597
76515SOL    HW131442  13.673  14.659   9.683
76515SOL    HW231443  13.541  14.663   9.609
76516SOL     OW31444   8.584   0.693   0.083
76516SOL    HW131445   8.493   0.665   0.094
76516SOL    HW231446   8.587   0.729  14.862
76517SOL     OW31447   7.194   7.945   8.005
76517SOL    HW131448   7.232   7.880   7.947
76517SOL    HW231449   7.197   7.905   8.092
76518SOL     OW31450  10.286  12.371   3.367
76518SOL    HW131451  10.356  12.419   3.412
76518SOL    HW231452  10.240  12.325   3.438
76519SOL     OW31453   1.108  11.621  13.135
76519SOL    HW131454   1.087  11.551  13.074
76519SOL    HW231455   1.196  11.649  13.111
76520SOL     OW31456  13.960  13.720   1.967
76520SOL    HW131457  14.003  13.789   1.918
76520SOL    HW231458  14.021  13.698   2.037
76521SOL     OW31459  10.141   6.218  14.339
76521SOL    HW131460  10.150   6.280  14.266
76521SOL    HW231461  10.085   6.149  14.304
76522SOL     OW31462   5.060  10.156  11.401
76522SOL    HW131463   5.051  10.144  11.306
76522SOL    HW231464   5.154  10.150  11.417
76523SOL     OW31465   7.228   4.353   6.623
76523SOL    HW131466   7.302   4.301   6.655
76523SOL    HW231467   7.215   4.420   6.689
76524SOL     OW31468   6.011   1.147   1.127
76524SOL    HW131469   5.918   1.123   1.130
76524SOL    HW231470   6.011   1.242   1.118
76525SOL     OW31471  11.052  11.451   9.250
76525SOL    HW131472  11.086  11.411   9.331
76525SOL    HW231473  11.129  11.462   9.195
76526SOL     OW31474  11.132   1.829   9.438
76526SOL    HW131475  11.122   1.907   9.493
76526SOL    HW231476  11.100   1.856   9.352
76527SOL     OW31477   4.027   8.747   2.197
76527SOL    HW131478   4.054   8.656   2.204
76527SOL    HW231479   3.954   8.746   2.135
76528SOL     OW31480   6.326   1.311  11.700
76528SOL    HW131481   6.386   1.345  11.634
76528SOL    HW231482   6.309   1.386  11.757
76529SOL     OW31483  13.882  13.795  11.364
76529SOL    HW131484  13.902  13.850  11.439
76529SOL    HW231485  13.786  13.795  11.359
76530SOL     OW31486  12.289  13.154   9.802
76530SOL    HW131487  12.211  13.185   9.757
76530SOL    HW231488  12.257  13.120   9.886
76531SOL     OW31489  11.194  14.721  13.687
76531SOL    HW131490  11.234  14.745  13.770
76531SOL    HW231491  11.269  14.699  13.630
76532SOL     OW31492  11.574  12.560   9.717
76532SOL    HW131493  11.658  12.515   9.723
76532SOL    HW231494  11.536  12.529   9.634
76533SOL     OW31495   2.312   7.202  13.739
76533SOL    HW131496   2.258   7.252  13.800
76533SOL    HW231497   2.398   7.201  13.780
76534SOL     OW31498   0.764   9.608   0.291
76534SOL    HW131499   0.849   9.650   0.273
76534SOL    HW231500   0.745   9.630   0.382
76535SOL     OW31501  13.855   2.917  11.391
76535SOL    HW131502  13.786   2.883  11.448
76535SOL    HW231503  13.901   2.839  11.360
76536SOL     OW31504  10.726   8.813  10.660
76536SOL    HW131505  10.807   8.781  10.700
76536SOL    HW231506  10.736   8.908  10.657
76537SOL     OW31507   6.090   7.890   8.714
76537SOL    HW131508   6.178   7.891   8.678
76537SOL    HW231509   6.033   7.869   8.640
76538SOL     OW31510  10.052   1.228   3.765
76538SOL    HW131511  10.017   1.287   3.832
76538SOL    HW231512  10.058   1.282   3.687
76539SOL     OW31513   6.359   2.905   8.067
76539SOL    HW131514   6.302   2.845   8.115
76539SOL    HW231515   6.447   2.870   8.079
76540SOL     OW31516  12.325  14.213   8.183
76540SOL    HW131517  12.250  14.167   8.219
76540SOL    HW231518  12.365  14.151   8.122
76541SOL     OW31519  14.767   4.952   2.402
76541SOL    HW131520  14.726   5.037   2.417
76541SOL    HW231521  14.776   4.914   2.490
76542SOL     OW31522   6.621   6.543  12.203
76542SOL    HW131523   6.629   6.638  12.212
76542SOL    HW231524   6.530   6.529  12.177
76543SOL     OW31525  12.876   5.184  10.128
76543SOL    HW131526  12.817   5.242  10.177
76543SOL    HW231527  12.963   5.219  10.147
76544SOL     OW31528   7.747   9.220   0.067
76544SOL    HW131529   7.759   9.290   0.131
76544SOL    HW231530   7.681   9.254   0.007
76545SOL     OW31531  11.304   1.636  11.632
76545SOL    HW131532  11.247   1.713  11.630
76545SOL    HW231533  11.298   1.604  11.722
76546SOL     OW31534  14.103  11.819   9.407
76546SOL    HW131535  14.068  11.836   9.320
76546SOL    HW231536  14.198  11.824   9.396
76547SOL     OW31537   8.473   5.981  10.966
76547SOL    HW131538   8.562   6.015  10.955
76547SOL    HW231539   8.453   5.940  10.882
76548SOL     OW31540   5.327  12.856   5.978
76548SOL    HW131541   5.264  12.828   5.911
76548SOL    HW231542   5.373  12.930   5.938
76549SOL     OW31543   6.376   1.783  13.588
76549SOL    HW131544   6.422   1.862  13.616
76549SOL    HW231545   6.359   1.735  13.669
76550SOL     OW31546   7.524   2.179  12.928
76550SOL    HW131547   7.610   2.219  12.914
76550SOL    HW231548   7.464   2.254  12.937
76551SOL     OW31549   0.095   0.720   1.347
76551SOL    HW131550   0.163   0.753   1.289
76551SOL    HW231551   0.077   0.792   1.407
76552SOL     OW31552  14.063   8.550   5.477
76552SOL    HW131553  14.006   8.567   5.551
76552SOL    HW231554  14.024   8.600   5.405
76553SOL     OW31555  12.701   3.259  11.512
76553SOL    HW131556  12.637   3.327  11.492
76553SOL    HW231557  12.709   3.259  11.607
76554SOL     OW31558   7.270  11.211  11.742
76554SOL    HW131559   7.189  11.247  11.704
76554SOL    HW231560   7.282  11.261  11.823
76555SOL     OW31561  10.548   4.806  10.321
76555SOL    HW131562  10.523   4.745  10.390
76555SOL    HW231563  10.497   4.885  10.339
76556SOL     OW31564   5.355   1.755   7.040
76556SOL    HW131565   5.306   1.835   7.021
76556SOL    HW231566   5.445   1.776   7.016
76557SOL     OW31567   9.899  14.536   0.395
76557SOL    HW131568   9.981  14.547   0.442
76557SOL    HW231569   9.833  14.577   0.451
76558SOL     OW31570   5.469   5.706   3.047
76558SOL    HW131571   5.424   5.633   3.089
76558SOL    HW231572   5.531   5.664   2.987
76559SOL     OW31573   1.627   4.848   8.349
76559SOL    HW131574   1.697   4.792   8.318
76559SOL    HW231575   1.553   4.830   8.290
76560SOL     OW31576   5.455   3.085  14.264
76560SOL    HW131577   5.539   3.080  14.308
76560SOL    HW231578   5.394   3.042  14.323
76561SOL     OW31579   6.681   8.594  13.557
76561SOL    HW131580   6.684   8.688  13.573
76561SOL    HW231581   6.593   8.579  13.522
76562SOL     OW31582   4.598  12.150   5.731
76562SOL    HW131583   4.530  12.163   5.665
76562SOL    HW231584   4.571  12.070   5.777
76563SOL     OW31585   0.880   9.640   7.830
76563SOL    HW131586   0.833   9.667   7.751
76563SOL    HW231587   0.831   9.566   7.864
76564SOL     OW31588   9.689  11.943  12.351
76564SOL    HW131589   9.662  12.026  12.312
76564SOL    HW231590   9.702  11.964  12.444
76565SOL     OW31591   2.802  10.967   4.442
76565SOL    HW131592   2.815  10.873   4.451
76565SOL    HW231593   2.862  11.006   4.505
76566SOL     OW31594   8.904   5.869  11.432
76566SOL    HW131595   8.920   5.948  11.380
76566SOL    HW231596   8.824   5.832  11.394
76567SOL     OW31597   4.464   6.644   4.742
76567SOL    HW131598   4.384   6.624   4.693
76567SOL    HW231599   4.535   6.625   4.681
76568SOL     OW31600   7.682   1.352   8.560
76568SOL    HW131601   7.694   1.352   8.654
76568SOL    HW231602   7.695   1.443   8.534
76569SOL     OW31603  10.749   6.588   6.720
76569SOL    HW131604  10.756   6.494   6.705
76569SOL    HW231605  10.702   6.621   6.644
76570SOL     OW31606  14.798   0.457   5.789
76570SOL    HW131607  14.867   0.473   5.853
76570SOL    HW231608  14.720   0.438   5.842
76571SOL     OW31609   5.498  14.544  11.494
76571SOL    HW131610   5.545  14.489  11.431
76571SOL    HW231611   5.431  14.485  11.530
76572SOL     OW31612  10.760   6.601  11.267
76572SOL    HW131613  10.797   6.591  11.179
76572SOL    HW231614  10.734   6.692  11.273
76573SOL     OW31615  10.409  12.231   5.851
76573SOL    HW131616  10.395  12.138   5.832
76573SOL    HW231617  10.504  12.240   5.854
76574SOL     OW31618  14.360   7.146   0.152
76574SOL    HW131619  14.336   7.157   0.244
76574SOL    HW231620  14.441   7.196   0.142
76575SOL     OW31621  11.833  11.279   1.922
76575SOL    HW131622  11.841  11.211   1.855
76575SOL    HW231623  11.883  11.245   1.996
76576SOL     OW31624  11.458   4.245  14.578
76576SOL    HW131625  11.487   4.261  14.668
76576SOL    HW231626  11.435   4.331  14.544
76577SOL     OW31627   9.826   7.073   6.417
76577SOL    HW131628   9.798   7.136   6.350
76577SOL    HW231629   9.919   7.060   6.401
76578SOL     OW31630  10.754   4.254   3.535
76578SOL    HW131631  10.662   4.268   3.557
76578SOL    HW231632  10.767   4.306   3.455
76579SOL     OW31633   2.605   1.549   6.137
76579SOL    HW131634   2.603   1.461   6.175
76579SOL    HW231635   2.574   1.606   6.207
76580SOL     OW31636   4.625   2.636   7.947
76580SOL    HW131637   4.683   2.609   7.875
76580SOL    HW231638   4.658   2.723   7.972
76581SOL     OW31639  11.248   4.771  13.261
76581SOL    HW131640  11.260   4.748  13.169
76581SOL    HW231641  11.312   4.840  13.276
76582SOL     OW31642  12.337   3.710  14.437
76582SOL    HW131643  12.372   3.791  14.475
76582SOL    HW231644  12.254   3.696  14.483
76583SOL     OW31645   5.090  14.137   1.619
76583SOL    HW131646   5.011  14.118   1.670
76583SOL    HW231647   5.162  14.129   1.682
76584SOL     OW31648  11.628  10.420   0.479
76584SOL    HW131649  11.597  10.337   0.442
76584SOL    HW231650  11.582  10.428   0.562
76585SOL     OW31651   7.557   3.684   4.687
76585SOL    HW131652   7.651   3.684   4.705
76585SOL    HW231653   7.521   3.754   4.742
76586SOL     OW31654   9.865   9.173  13.072
76586SOL    HW131655   9.905   9.260  13.078
76586SOL    HW231656   9.850   9.146  13.162
76587SOL     OW31657   1.417   6.381  13.737
76587SOL    HW131658   1.454   6.469  13.735
76587SOL    HW231659   1.461   6.338  13.810
76588SOL     OW31660   1.968   6.177   0.832
76588SOL    HW131661   1.922   6.261   0.842
76588SOL    HW231662   2.000   6.178   0.742
76589SOL     OW31663   3.856   1.339   6.084
76589SOL    HW131664   3.941   1.379   6.101
76589SOL    HW231665   3.844   1.278   6.157
76590SOL     OW31666  14.724  14.551   9.544
76590SOL    HW131667  14.798  14.604   9.515
76590SOL    HW231668  14.649  14.611   9.540
76591SOL     OW31669   9.934   5.625  13.333
76591SOL    HW131670   9.904   5.589  13.417
76591SOL    HW231671   9.937   5.549  13.275
76592SOL     OW31672   4.291   9.519  11.268
76592SOL    HW131673   4.308   9.587  11.203
76592SOL    HW231674   4.269   9.441  11.217
76593SOL     OW31675  14.053   8.513  10.715
76593SOL    HW131676  14.085   8.582  10.773
76593SOL    HW231677  14.101   8.435  10.743
76594SOL     OW31678   7.400   9.758   7.270
76594SOL    HW131679   7.338   9.823   7.238
76594SOL    HW231680   7.419   9.703   7.195
76595SOL     OW31681   4.790  14.484   9.245
76595SOL    HW131682   4.875  14.445   9.224
76595SOL    HW231683   4.776  14.463   9.337
76596SOL     OW31684   1.322   5.445   3.323
76596SOL    HW131685   1.246   5.503   3.321
76596SOL    HW231686   1.342   5.428   3.231
76597SOL     OW31687   0.729   1.166   7.594
76597SOL    HW131688   0.790   1.137   7.527
76597SOL    HW231689   0.698   1.252   7.563
76598SOL     OW31690   0.617   5.805   0.019
76598SOL    HW131691   0.589   5.756  14.810
76598SOL    HW231692   0.539   5.853   0.046
76599SOL     OW31693   4.578  11.860   9.694
76599SOL    HW131694   4.606  11.768   9.692
76599SOL    HW231695   4.566  11.880   9.787
76600SOL     OW31696   8.810   2.277  11.896
76600SOL    HW131697   8.898   2.262  11.862
76600SOL    HW231698   8.812   2.366  11.931
76601SOL     OW31699   7.088   1.780   0.486
76601SOL    HW131700   7.135   1.846   0.537
76601SOL    HW231701   7.074   1.708   0.548
76602SOL     OW31702   2.694   2.443   9.940
76602SOL    HW131703   2.602   2.418   9.939
76602SOL    HW231704   2.727   2.408  10.023
76603SOL     OW31705   6.494  12.856  14.132
76603SOL    HW131706   6.523  12.875  14.222
76603SOL    HW231707   6.479  12.762  14.132
76604SOL     OW31708  14.130   3.383   9.444
76604SOL    HW131709  14.205   3.412   9.393
76604SOL    HW231710  14.143   3.288   9.455
76605SOL     OW31711   6.813  13.854   1.683
76605SOL    HW131712   6.802  13.891   1.771
76605SOL    HW231713   6.726  13.822   1.659
76606SOL     OW31714   0.443   4.890   1.048
76606SOL    HW131715   0.439   4.837   1.127
76606SOL    HW231716   0.524   4.862   1.004
76607SOL     OW31717  12.095   0.305   7.047
76607SOL    HW131718  12.033   0.323   6.977
76607SOL    HW231719  12.041   0.296   7.125
76608SOL     OW31720   0.359   5.978   2.858
76608SOL    HW131721   0.278   5.928   2.863
76608SOL    HW231722   0.332   6.068   2.840
76609SOL     OW31723   2.747  14.006   6.925
76609SOL    HW131724   2.823  14.028   6.871
76609SOL    HW231725   2.703  14.089   6.939
76610SOL     OW31726   1.838  14.858   1.321
76610SOL    HW131727   1.921  14.812   1.331
76610SOL    HW231728   1.862   0.083   1.315
76611SOL     OW31729   2.204   2.501   0.291
76611SOL    HW131730   2.269   2.537   0.352
76611SOL    HW231731   2.224   2.408   0.288
76612SOL     OW31732  11.326   1.658  13.549
76612SOL    HW131733  11.324   1.657  13.453
76612SOL    HW231734  11.383   1.584  13.572
76613SOL     OW31735   5.452   2.274   1.726
76613SOL    HW131736   5.484   2.215   1.793
76613SOL    HW231737   5.522   2.279   1.662
76614SOL     OW31738   1.442   9.501  10.254
76614SOL    HW131739   1.453   9.434  10.186
76614SOL    HW231740   1.356   9.482  10.293
76615SOL     OW31741  13.378   2.147   2.978
76615SOL    HW131742  13.285   2.155   3.000
76615SOL    HW231743  13.387   2.192   2.895
76616SOL     OW31744   0.515   6.971   7.123
76616SOL    HW131745   0.440   7.006   7.076
76616SOL    HW231746   0.504   7.004   7.212
76617SOL     OW31747  10.453  14.085  12.368
76617SOL    HW131748  10.373  14.097  12.419
76617SOL    HW231749  10.484  14.174  12.349
76618SOL     OW31750  13.700  10.439   4.515
76618SOL    HW131751  13.607  10.415   4.515
76618SOL    HW231752  13.745  10.359   4.490
76619SOL     OW31753  10.533   9.685  14.061
76619SOL    HW131754  10.509   9.778  14.056
76619SOL    HW231755  10.547   9.669  14.154
76620SOL     OW31756   8.757   4.541   5.586
76620SOL    HW131757   8.769   4.453   5.624
76620SOL    HW231758   8.694   4.583   5.644
76621SOL     OW31759  11.834   4.759   6.764
76621SOL    HW131760  11.905   4.696   6.779
76621SOL    HW231761  11.871   4.842   6.793
76622SOL     OW31762  11.847  11.174   2.487
76622SOL    HW131763  11.825  11.242   2.424
76622SOL    HW231764  11.762  11.147   2.523
76623SOL     OW31765   2.431   0.369   6.545
76623SOL    HW131766   2.432   0.427   6.470
76623SOL    HW231767   2.432   0.428   6.621
76624SOL     OW31768  12.150   6.069   9.023
76624SOL    HW131769  12.080   6.118   9.065
76624SOL    HW231770  12.210   6.046   9.094
76625SOL     OW31771   2.829  13.110   7.936
76625SOL    HW131772   2.775  13.172   7.984
76625SOL    HW231773   2.780  13.028   7.938
76626SOL     OW31774  11.397   3.751  13.892
76626SOL    HW131775  11.450   3.715  13.963
76626SOL    HW231776  11.419   3.844  13.890
76627SOL     OW31777  10.684   8.669   8.589
76627SOL    HW131778  10.623   8.710   8.528
76627SOL    HW231779  10.697   8.581   8.553
76628SOL     OW31780  11.611   8.281   5.692
76628SOL    HW131781  11.675   8.327   5.747
76628SOL    HW231782  11.650   8.195   5.679
76629SOL     OW31783  13.504   4.677   1.862
76629SOL    HW131784  13.585   4.655   1.909
76629SOL    HW231785  13.442   4.699   1.932
76630SOL     OW31786   9.391   2.229   7.187
76630SOL    HW131787   9.424   2.317   7.202
76630SOL    HW231788   9.338   2.237   7.107
76631SOL     OW31789  13.012  13.010   8.714
76631SOL    HW131790  12.956  12.939   8.747
76631SOL    HW231791  13.045  13.053   8.793
76632SOL     OW31792  13.456  13.314   6.394
76632SOL    HW131793  13.535  13.367   6.396
76632SOL    HW231794  13.487  13.225   6.382
76633SOL     OW31795  14.049   1.504   5.562
76633SOL    HW131796  14.089   1.545   5.639
76633SOL    HW231797  14.053   1.571   5.495
76634SOL     OW31798   9.068   7.270   1.169
76634SOL    HW131799   8.984   7.226   1.160
76634SOL    HW231800   9.095   7.253   1.259
76635SOL     OW31801   2.110  11.492   6.828
76635SOL    HW131802   2.125  11.439   6.750
76635SOL    HW231803   2.053  11.563   6.798
76636SOL     OW31804  13.014  11.726   4.270
76636SOL    HW131805  13.038  11.717   4.178
76636SOL    HW231806  12.933  11.675   4.278
76637SOL     OW31807   2.898  11.556   7.836
76637SOL    HW131808   2.947  11.613   7.776
76637SOL    HW231809   2.950  11.475   7.838
76638SOL     OW31810  11.458   7.005  14.477
76638SOL    HW131811  11.373   7.041  14.454
76638SOL    HW231812  11.442   6.949  14.553
76639SOL     OW31813   2.560   2.147   1.327
76639SOL    HW131814   2.634   2.189   1.371
76639SOL    HW231815   2.561   2.057   1.360
76640SOL     OW31816   2.558  10.852   0.807
76640SOL    HW131817   2.636  10.829   0.756
76640SOL    HW231818   2.589  10.920   0.867
76641SOL     OW31819   3.906   3.936  12.924
76641SOL    HW131820   3.820   3.899  12.943
76641SOL    HW231821   3.893   4.031  12.927
76642SOL     OW31822  10.784   6.144  11.287
76642SOL    HW131823  10.822   6.196  11.216
76642SOL    HW231824  10.782   6.203  11.362
76643SOL     OW31825   7.694   1.737   6.737
76643SOL    HW131826   7.678   1.795   6.812
76643SOL    HW231827   7.781   1.763   6.705
76644SOL     OW31828   3.023   4.250  14.749
76644SOL    HW131829   3.000   4.342  14.763
76644SOL    HW231830   3.079   4.228  14.823
76645SOL     OW31831   8.227  12.405   4.560
76645SOL    HW131832   8.192  12.441   4.478
76645SOL    HW231833   8.298  12.464   4.583
76646SOL     OW31834   3.933  10.708   4.588
76646SOL    HW131835   4.018  10.712   4.632
76646SOL    HW231836   3.952  10.669   4.502
76647SOL     OW31837  10.957   2.051   6.877
76647SOL    HW131838  10.911   1.996   6.940
76647SOL    HW231839  10.892   2.069   6.809
76648SOL     OW31840   8.272  13.499   8.752
76648SOL    HW131841   8.198  13.541   8.796
76648SOL    HW231842   8.316  13.450   8.822
76649SOL     OW31843   0.796  11.832   8.306
76649SOL    HW131844   0.835  11.910   8.344
76649SOL    HW231845   0.856  11.807   8.236
76650SOL     OW31846   4.313   1.012  11.671
76650SOL    HW131847   4.273   1.087  11.716
76650SOL    HW231848   4.392   1.048  11.631
76651SOL     OW31849   4.095  13.340  11.166
76651SOL    HW131850   4.023  13.360  11.225
76651SOL    HW231851   4.173  13.347  11.222
76652SOL     OW31852  13.779   8.157   3.889
76652SOL    HW131853  13.841   8.224   3.861
76652SOL    HW231854  13.719   8.203   3.949
76653SOL     OW31855   7.784   1.288   9.513
76653SOL    HW131856   7.866   1.247   9.539
76653SOL    HW231857   7.780   1.369   9.564
76654SOL     OW31858  14.415   1.028   1.180
76654SOL    HW131859  14.456   1.109   1.149
76654SOL    HW231860  14.421   1.032   1.275
76655SOL     OW31861  14.542   3.365   4.909
76655SOL    HW131862  14.626   3.322   4.892
76655SOL    HW231863  14.562   3.431   4.975
76656SOL     OW31864  12.189   8.495   6.404
76656SOL    HW131865  12.254   8.483   6.473
76656SOL    HW231866  12.231   8.460   6.325
76657SOL     OW31867   9.060   1.444   2.478
76657SOL    HW131868   9.027   1.533   2.462
76657SOL    HW231869   9.049   1.399   2.395
76658SOL     OW31870  11.455   9.165   2.182
76658SOL    HW131871  11.505   9.247   2.183
76658SOL    HW231872  11.388   9.176   2.250
76659SOL     OW31873   3.592  14.455   8.974
76659SOL    HW131874   3.680  14.492   8.978
76659SOL    HW231875   3.591  14.403   8.893
76660SOL     OW31876  10.562  12.940   1.255
76660SOL    HW131877  10.514  12.936   1.337
76660SOL    HW231878  10.608  12.856   1.250
76661SOL     OW31879   2.109   6.559   1.343
76661SOL    HW131880   2.084   6.581   1.432
76661SOL    HW231881   2.032   6.580   1.290
76662SOL     OW31882  14.824   2.416   4.610
76662SOL    HW131883   0.033   2.433   4.556
76662SOL    HW231884  14.767   2.492   4.596
76663SOL     OW31885   4.126  12.677   5.240
76663SOL    HW131886   4.147  12.770   5.239
76663SOL    HW231887   4.211  12.633   5.248
76664SOL     OW31888   9.368   5.104   6.186
76664SOL    HW131889   9.418   5.036   6.141
76664SOL    HW231890   9.419   5.184   6.174
76665SOL     OW31891   2.109  14.825  14.733
76665SOL    HW131892   2.058   0.010  14.671
76665SOL    HW231893   2.063  14.741  14.735
76666SOL     OW31894   2.166  14.847  12.609
76666SOL    HW131895   2.216  14.770  12.636
76666SOL    HW231896   2.224   0.053  12.629
76667SOL     OW31897  11.255  10.412   5.377
76667SOL    HW131898  11.341  10.370   5.389
76667SOL    HW231899  11.256  10.488   5.435
76668SOL     OW31900   2.082  10.514   2.984
76668SOL    HW131901   1.991  10.489   3.001
76668SOL    HW231902   2.075  10.586   2.921
76669SOL     OW31903   7.274   0.839  13.106
76669SOL    HW131904   7.368   0.853  13.113
76669SOL    HW231905   7.235   0.919  13.139
76670SOL     OW31906  10.643  11.390   9.570
76670SOL    HW131907  10.673  11.424   9.486
76670SOL    HW231908  10.642  11.295   9.559
76671SOL     OW31909   5.848  10.208   4.159
76671SOL    HW131910   5.825  10.286   4.210
76671SOL    HW231911   5.789  10.140   4.192
76672SOL     OW31912   8.195   4.937  11.864
76672SOL    HW131913   8.135   4.881  11.813
76672SOL    HW231914   8.147   5.020  11.873
76673SOL     OW31915   0.990   2.545  14.506
76673SOL    HW131916   0.970   2.492  14.429
76673SOL    HW231917   0.930   2.513  14.574
76674SOL     OW31918   2.476  12.839  10.726
76674SOL    HW131919   2.511  12.840  10.637
76674SOL    HW231920   2.382  12.823  10.714
76675SOL     OW31921  11.511   4.437  14.179
76675SOL    HW131922  11.595   4.403  14.209
76675SOL    HW231923  11.452   4.362  14.180
76676SOL     OW31924   3.649   9.127   2.492
76676SOL    HW131925   3.571   9.176   2.517
76676SOL    HW231926   3.638   9.111   2.398
76677SOL     OW31927  12.362   4.631  13.870
76677SOL    HW131928  12.428   4.654  13.936
76677SOL    HW231929  12.403   4.652  13.787
76678SOL     OW31930   9.262  12.970   3.375
76678SOL    HW131931   9.278  12.910   3.303
76678SOL    HW231932   9.167  12.976   3.382
76679SOL     OW31933   1.816  13.062   4.017
76679SOL    HW131934   1.816  13.021   3.930
76679SOL    HW231935   1.763  13.004   4.071
76680SOL     OW31936   1.230  11.913   2.689
76680SOL    HW131937   1.134  11.909   2.691
76680SOL    HW231938   1.252  11.919   2.596
76681SOL     OW31939   2.077   1.483  10.825
76681SOL    HW131940   2.115   1.504  10.910
76681SOL    HW231941   1.984   1.473  10.842
76682SOL     OW31942  12.936   5.882   1.000
76682SOL    HW131943  13.022   5.918   1.021
76682SOL    HW231944  12.933   5.799   1.047
76683SOL     OW31945   5.155   3.224   4.058
76683SOL    HW131946   5.067   3.259   4.045
76683SOL    HW231947   5.150   3.134   4.025
76684SOL     OW31948  11.888   3.208  10.142
76684SOL    HW131949  11.974   3.168  10.145
76684SOL    HW231950  11.842   3.174  10.219
76685SOL     OW31951  10.647   7.153   6.500
76685SOL    HW131952  10.659   7.238   6.458
76685SOL    HW231953  10.718   7.147   6.563
76686SOL     OW31954   1.980   6.419   9.051
76686SOL    HW131955   1.913   6.470   9.097
76686SOL    HW231956   1.938   6.335   9.033
76687SOL     OW31957   5.695   0.022   9.476
76687SOL    HW131958   5.754  14.814   9.478
76687SOL    HW231959   5.671   0.035   9.568
76688SOL     OW31960  14.761   6.738  13.236
76688SOL    HW131961  14.709   6.762  13.312
76688SOL    HW231962  14.745   6.807  13.172
76689SOL     OW31963  11.683   5.595   7.473
76689SOL    HW131964  11.746   5.526   7.496
76689SOL    HW231965  11.735   5.675   7.468
76690SOL     OW31966   8.930   7.115   3.943
76690SOL    HW131967   8.999   7.161   3.894
76690SOL    HW231968   8.971   7.033   3.971
76691SOL     OW31969   4.098   2.718   6.915
76691SOL    HW131970   4.186   2.756   6.915
76691SOL    HW231971   4.050   2.770   6.979
76692SOL     OW31972  14.852   3.626   5.853
76692SOL    HW131973  14.820   3.713   5.877
76692SOL    HW231974  14.778   3.585   5.809
76693SOL     OW31975   1.110   4.344   2.351
76693SOL    HW131976   1.028   4.389   2.329
76693SOL    HW231977   1.094   4.253   2.325
76694SOL     OW31978  11.719   8.058   9.692
76694SOL    HW131979  11.643   8.068   9.636
76694SOL    HW231980  11.714   7.969   9.725
76695SOL     OW31981   6.422  13.766   1.455
76695SOL    HW131982   6.371  13.693   1.490
76695SOL    HW231983   6.477  13.795   1.528
76696SOL     OW31984   8.810   4.205  12.447
76696SOL    HW131985   8.901   4.193  12.475
76696SOL    HW231986   8.772   4.117  12.449
76697SOL     OW31987  10.700  12.890   7.964
76697SOL    HW131988  10.628  12.938   7.923
76697SOL    HW231989  10.770  12.891   7.898
76698SOL     OW31990   7.396   1.769   7.624
76698SOL    HW131991   7.461   1.745   7.690
76698SOL    HW231992   7.433   1.846   7.580
76699SOL     OW31993   0.473   9.978  13.344
76699SOL    HW131994   0.416  10.051  13.367
76699SOL    HW231995   0.559  10.017  13.331
76700SOL     OW31996  11.172   5.074   2.220
76700SOL    HW131997  11.222   4.993   2.231
76700SOL    HW231998  11.235   5.136   2.185
76701SOL     OW31999   2.830   1.025  11.872
76701SOL    HW132000   2.782   1.048  11.951
76701SOL    HW232001   2.818   1.100  11.814
76702SOL     OW32002   3.353  10.298   2.768
76702SOL    HW132003   3.405  10.229   2.810
76702SOL    HW232004   3.417  10.353   2.724
76703SOL     OW32005  12.437   6.528   0.150
76703SOL    HW132006  12.510   6.490   0.198
76703SOL    HW232007  12.412   6.605   0.201
76704SOL     OW32008  13.861   5.966   8.238
76704SOL    HW132009  13.787   6.018   8.271
76704SOL    HW232010  13.832   5.875   8.247
76705SOL     OW32011  13.523  10.061  10.647
76705SOL    HW132012  13.577   9.992  10.609
76705SOL    HW232013  13.578  10.138  10.646
76706SOL     OW32014   6.479  12.147   5.121
76706SOL    HW132015   6.467  12.224   5.177
76706SOL    HW232016   6.400  12.095   5.135
76707SOL     OW32017   5.091  10.715   9.628
76707SOL    HW132018   5.085  10.701   9.722
76707SOL    HW232019   5.030  10.651   9.590
76708SOL     OW32020  11.264  10.754  12.394
76708SOL    HW132021  11.197  10.802  12.346
76708SOL    HW232022  11.268  10.669  12.351
76709SOL     OW32023  13.595   1.560  11.541
76709SOL    HW132024  13.626   1.483  11.493
76709SOL    HW232025  13.666   1.580  11.603
76710SOL     OW32026   3.046  11.873   2.390
76710SOL    HW132027   3.132  11.915   2.388
76710SOL    HW232028   3.026  11.856   2.298
76711SOL     OW32029   3.149   3.319   6.630
76711SOL    HW132030   3.130   3.369   6.551
76711SOL    HW232031   3.164   3.385   6.698
76712SOL     OW32032  14.693  10.818  12.016
76712SOL    HW132033  14.712  10.725  12.004
76712SOL    HW232034  14.731  10.860  11.939
76713SOL     OW32035   0.288  14.723  14.666
76713SOL    HW132036   0.282  14.628  14.671
76713SOL    HW232037   0.306  14.751  14.755
76714SOL     OW32038   8.233  14.172  13.686
76714SOL    HW132039   8.325  14.197  13.695
76714SOL    HW232040   8.189  14.217  13.758
76715SOL     OW32041  12.782  13.922   6.574
76715SOL    HW132042  12.718  13.876   6.520
76715SOL    HW232043  12.834  13.853   6.615
76716SOL     OW32044  13.662   2.340   0.871
76716SOL    HW132045  13.661   2.435   0.878
76716SOL    HW232046  13.701   2.322   0.786
76717SOL     OW32047   1.981  11.842   4.899
76717SOL    HW132048   2.026  11.873   4.820
76717SOL    HW232049   1.897  11.888   4.898
76718SOL     OW32050  14.510   0.159   4.932
76718SOL    HW132051  14.548   0.172   5.019
76718SOL    HW232052  14.585   0.164   4.872
76719SOL     OW32053  13.891   5.431  14.814
76719SOL    HW132054  13.833   5.441  14.738
76719SOL    HW232055  13.872   5.508   0.000
76720SOL     OW32056   7.948   7.054   1.884
76720SOL    HW132057   7.895   7.129   1.858
76720SOL    HW232058   8.007   7.089   1.951
76721SOL     OW32059   2.194   5.626   9.918
76721SOL    HW132060   2.178   5.533   9.904
76721SOL    HW232061   2.283   5.630   9.952
76722SOL     OW32062   4.986   3.295  10.879
76722SOL    HW132063   5.076   3.274  10.901
76722SOL    HW232064   4.991   3.380  10.834
76723SOL     OW32065   5.290  14.342  14.271
76723SOL    HW132066   5.332  14.257  14.258
76723SOL    HW232067   5.271  14.372  14.182
76724SOL     OW32068  10.890   3.019  13.636
76724SOL    HW132069  10.832   2.954  13.596
76724SOL    HW232070  10.969   2.971  13.658
76725SOL     OW32071   0.522   5.983   5.992
76725SOL    HW132072   0.584   5.982   6.065
76725SOL    HW232073   0.571   5.943   5.920
76726SOL     OW32074  12.263  11.460   0.781
76726SOL    HW132075  12.325  11.479   0.852
76726SOL    HW232076  12.185  11.511   0.803
76727SOL     OW32077  11.315   0.954   0.765
76727SOL    HW132078  11.389   0.959   0.825
76727SOL    HW232079  11.303   0.860   0.749
76728SOL     OW32080   3.003  12.403  12.939
76728SOL    HW132081   3.074  12.400  12.875
76728SOL    HW232082   2.989  12.496  12.955
76729SOL     OW32083  10.874   3.507   2.292
76729SOL    HW132084  10.898   3.435   2.233
76729SOL    HW232085  10.786   3.484   2.321
76730SOL     OW32086   0.755   1.085   1.673
76730SOL    HW132087   0.712   1.161   1.633
76730SOL    HW232088   0.761   1.108   1.766
76731SOL     OW32089   6.493  11.302   6.273
76731SOL    HW132090   6.410  11.287   6.318
76731SOL    HW232091   6.473  11.289   6.180
76732SOL     OW32092   3.139  10.293   9.091
76732SOL    HW132093   3.088  10.354   9.144
76732SOL    HW232094   3.129  10.326   9.001
76733SOL     OW32095  10.444  12.797   6.842
76733SOL    HW132096  10.512  12.730   6.851
76733SOL    HW232097  10.364  12.748   6.825
76734SOL     OW32098  14.711  11.029  13.544
76734SOL    HW132099  14.805  11.030  13.559
76734SOL    HW232100  14.674  10.989  13.623
76735SOL     OW32101  11.892   4.686  11.548
76735SOL    HW132102  11.891   4.633  11.627
76735SOL    HW232103  11.825   4.753  11.563
76736SOL     OW32104   1.417   4.285   0.001
76736SOL    HW132105   1.389   4.367   0.043
76736SOL    HW232106   1.361   4.277  14.792
76737SOL     OW32107  13.312  11.398   7.776
76737SOL    HW132108  13.270  11.348   7.706
76737SOL    HW232109  13.255  11.474   7.788
76738SOL     OW32110   2.475   9.085   3.976
76738SOL    HW132111   2.499   9.158   3.920
76738SOL    HW232112   2.392   9.111   4.016
76739SOL     OW32113   1.296   7.092   8.822
76739SOL    HW132114   1.273   7.012   8.870
76739SOL    HW232115   1.391   7.085   8.809
76740SOL     OW32116  11.458   9.528  14.548
76740SOL    HW132117  11.531   9.580  14.514
76740SOL    HW232118  11.458   9.448  14.495
76741SOL     OW32119  12.254  13.449  13.629
76741SOL    HW132120  12.275  13.480  13.541
76741SOL    HW232121  12.159  13.436  13.627
76742SOL     OW32122  11.117   4.750   3.757
76742SOL    HW132123  11.170   4.801   3.695
76742SOL    HW232124  11.096   4.670   3.709
76743SOL     OW32125   9.952  13.824  11.318
76743SOL    HW132126   9.965  13.895  11.381
76743SOL    HW232127   9.952  13.745  11.372
76744SOL     OW32128   7.205   7.885   0.239
76744SOL    HW132129   7.144   7.909   0.169
76744SOL    HW232130   7.289   7.922   0.211
76745SOL     OW32131   6.378   7.204   5.761
76745SOL    HW132132   6.323   7.153   5.821
76745SOL    HW232133   6.319   7.270   5.725
76746SOL     OW32134  10.653   5.259   4.013
76746SOL    HW132135  10.732   5.306   4.038
76746SOL    HW232136  10.678   5.211   3.934
76747SOL     OW32137  10.584   4.942   8.796
76747SOL    HW132138  10.665   4.990   8.815
76747SOL    HW232139  10.601   4.898   8.713
76748SOL     OW32140   5.848   3.367  14.474
76748SOL    HW132141   5.828   3.446  14.525
76748SOL    HW232142   5.937   3.343  14.500
76749SOL     OW32143  10.595  10.866  14.187
76749SOL    HW132144  10.601  10.961  14.185
76749SOL    HW232145  10.674  10.836  14.142
76750SOL     OW32146  10.675   8.978  11.384
76750SOL    HW132147  10.766   8.962  11.359
76750SOL    HW232148  10.638   9.026  11.310
76751SOL     OW32149   1.978   2.518   7.294
76751SOL    HW132150   2.038   2.536   7.367
76751SOL    HW232151   1.907   2.582   7.306
76752SOL     OW32152   1.302   8.240   7.505
76752SOL    HW132153   1.334   8.186   7.432
76752SOL    HW232154   1.364   8.313   7.509
76753SOL     OW32155   1.576  13.027   1.529
76753SOL    HW132156   1.629  13.041   1.607
76753SOL    HW232157   1.574  12.931   1.519
76754SOL     OW32158   4.586   8.939  11.386
76754SOL    HW132159   4.641   8.861  11.390
76754SOL    HW232160   4.519   8.918  11.321
76755SOL     OW32161   0.706   0.466   1.618
76755SOL    HW132162   0.681   0.556   1.599
76755SOL    HW232163   0.648   0.439   1.690
76756SOL     OW32164   0.461   4.715  13.782
76756SOL    HW132165   0.369   4.727  13.763
76756SOL    HW232166   0.465   4.633  13.833
76757SOL     OW32167  11.126   0.590   0.126
76757SOL    HW132168  11.133   0.671   0.178
76757SOL    HW232169  11.052   0.543   0.165
76758SOL     OW32170   8.485  14.216   2.384
76758SOL    HW132171   8.511  14.134   2.426
76758SOL    HW232172   8.391  14.223   2.402
76759SOL     OW32173  13.843   0.469   8.344
76759SOL    HW132174  13.828   0.429   8.258
76759SOL    HW232175  13.769   0.441   8.397
76760SOL     OW32176  13.042   1.636   2.862
76760SOL    HW132177  13.008   1.650   2.773
76760SOL    HW232178  12.978   1.677   2.919
76761SOL     OW32179   2.881   2.810  14.697
76761SOL    HW132180   2.859   2.796  14.789
76761SOL    HW232181   2.816   2.875  14.668
76762SOL     OW32182   7.235  13.068  11.720
76762SOL    HW132183   7.277  13.002  11.776
76762SOL    HW232184   7.288  13.146  11.732
76763SOL     OW32185   0.481   8.703   2.336
76763SOL    HW132186   0.544   8.774   2.349
76763SOL    HW232187   0.437   8.694   2.420
76764SOL     OW32188  14.254   2.917   6.148
76764SOL    HW132189  14.324   2.853   6.136
76764SOL    HW232190  14.298   2.992   6.189
76765SOL     OW32191   8.999  13.019   6.266
76765SOL    HW132192   9.070  12.982   6.213
76765SOL    HW232193   8.975  12.949   6.326
76766SOL     OW32194   6.383   2.678   6.642
76766SOL    HW132195   6.371   2.619   6.567
76766SOL    HW232196   6.444   2.745   6.610
76767SOL     OW32197   8.313   7.317   1.385
76767SOL    HW132198   8.384   7.294   1.445
76767SOL    HW232199   8.235   7.319   1.441
76768SOL     OW32200   7.526   2.083  11.503
76768SOL    HW132201   7.522   2.173  11.535
76768SOL    HW232202   7.568   2.034  11.573
76769SOL     OW32203   6.868   1.738   4.725
76769SOL    HW132204   6.892   1.749   4.817
76769SOL    HW232205   6.866   1.827   4.690
76770SOL     OW32206   8.080   6.058   4.462
76770SOL    HW132207   8.150   6.038   4.524
76770SOL    HW232208   8.109   6.138   4.419
76771SOL     OW32209  11.907   3.374   5.912
76771SOL    HW132210  11.951   3.443   5.961
76771SOL    HW232211  11.859   3.420   5.844
76772SOL     OW32212   5.737  12.048   6.932
76772SOL    HW132213   5.774  12.088   7.011
76772SOL    HW232214   5.798  11.979   6.909
76773SOL     OW32215   5.266   1.438   4.104
76773SOL    HW132216   5.281   1.401   4.017
76773SOL    HW232217   5.314   1.381   4.164
76774SOL     OW32218  11.165  10.048   2.524
76774SOL    HW132219  11.149  10.106   2.450
76774SOL    HW232220  11.174   9.961   2.484
76775SOL     OW32221   2.701   9.381  13.806
76775SOL    HW132222   2.668   9.366  13.895
76775SOL    HW232223   2.691   9.297  13.762
76776SOL     OW32224   6.157   7.725  14.826
76776SOL    HW132225   6.091   7.700   0.022
76776SOL    HW232226   6.117   7.709  14.741
76777SOL     OW32227  13.296  12.076   6.290
76777SOL    HW132228  13.216  12.111   6.252
76777SOL    HW232229  13.361  12.146   6.281
76778SOL     OW32230  13.185   1.141  14.798
76778SOL    HW132231  13.101   1.127  14.755
76778SOL    HW232232  13.178   1.093   0.013
76779SOL     OW32233   3.209   0.471  10.134
76779SOL    HW132234   3.295   0.453  10.172
76779SOL    HW232235   3.151   0.406  10.174
76780SOL     OW32236  13.123   6.718   9.456
76780SOL    HW132237  13.049   6.737   9.513
76780SOL    HW232238  13.170   6.801   9.449
76781SOL     OW32239  10.987  10.487  10.218
76781SOL    HW132240  11.026  10.460  10.301
76781SOL    HW232241  11.005  10.581  10.211
76782SOL     OW32242   5.562   1.819   0.248
76782SOL    HW132243   5.526   1.750   0.192
76782SOL    HW232244   5.500   1.827   0.320
76783SOL     OW32245   5.038   1.315   8.881
76783SOL    HW132246   5.057   1.401   8.918
76783SOL    HW232247   5.125   1.279   8.861
76784SOL     OW32248   2.013  10.553  12.769
76784SOL    HW132249   2.095  10.566  12.722
76784SOL    HW232250   1.954  10.516  12.704
76785SOL     OW32251  14.054  13.235   8.588
76785SOL    HW132252  14.097  13.153   8.612
76785SOL    HW232253  13.962  13.211   8.574
76786SOL     OW32254   8.396   8.975   2.700
76786SOL    HW132255   8.345   8.918   2.643
76786SOL    HW232256   8.462   8.918   2.738
76787SOL     OW32257   2.896   2.647   0.662
76787SOL    HW132258   2.839   2.572   0.676
76787SOL    HW232259   2.857   2.693   0.588
76788SOL     OW32260  13.979   4.555   2.053
76788SOL    HW132261  14.001   4.583   1.964
76788SOL    HW232262  13.972   4.460   2.047
76789SOL     OW32263   9.995  13.253   3.550
76789SOL    HW132264  10.051  13.206   3.612
76789SOL    HW232265   9.921  13.283   3.602
76790SOL     OW32266   8.217  11.032   3.144
76790SOL    HW132267   8.265  10.951   3.157
76790SOL    HW232268   8.284  11.098   3.127
76791SOL     OW32269  12.075   0.163   5.473
76791SOL    HW132270  12.065   0.100   5.402
76791SOL    HW232271  12.104   0.244   5.431
76792SOL     OW32272   7.537   6.263   8.440
76792SOL    HW132273   7.505   6.197   8.501
76792SOL    HW232274   7.619   6.227   8.407
76793SOL     OW32275  11.168   2.009  12.975
76793SOL    HW132276  11.190   1.916  12.979
76793SOL    HW232277  11.252   2.053  12.964
76794SOL     OW32278   8.260   9.421  10.401
76794SOL    HW132279   8.207   9.372  10.464
76794SOL    HW232280   8.330   9.460  10.454
76795SOL     OW32281   5.532  14.463  12.535
76795SOL    HW132282   5.566  14.377  12.560
76795SOL    HW232283   5.536  14.464  12.440
76796SOL     OW32284   5.632  11.333   1.763
76796SOL    HW132285   5.686  11.264   1.802
76796SOL    HW232286   5.664  11.341   1.673
76797SOL     OW32287   0.378   9.301  14.072
76797SOL    HW132288   0.304   9.243  14.052
76797SOL    HW232289   0.362   9.379  14.020
76798SOL     OW32290  10.519   7.151  10.960
76798SOL    HW132291  10.488   7.071  10.919
76798SOL    HW232292  10.440   7.200  10.980
76799SOL     OW32293  11.379  13.832   9.675
76799SOL    HW132294  11.446  13.789   9.728
76799SOL    HW232295  11.298  13.786   9.696
76800SOL     OW32296   3.703   5.884  10.527
76800SOL    HW132297   3.706   5.889  10.432
76800SOL    HW232298   3.770   5.947  10.557
76801SOL     OW32299   4.418   0.572   7.899
76801SOL    HW132300   4.483   0.595   7.965
76801SOL    HW232301   4.354   0.518   7.945
76802SOL     OW32302   4.925   9.589  14.790
76802SOL    HW132303   4.843   9.544  14.771
76802SOL    HW232304   4.929   9.660  14.726
76803SOL     OW32305   6.587  13.849  11.608
76803SOL    HW132306   6.546  13.765  11.590
76803SOL    HW232307   6.679  13.828  11.624
76804SOL     OW32308   6.664  14.797   4.275
76804SOL    HW132309   6.700  14.721   4.228
76804SOL    HW232310   6.724   0.000   4.255
76805SOL     OW32311  10.979   7.474   2.245
76805SOL    HW132312  11.032   7.468   2.324
76805SOL    HW232313  11.025   7.538   2.190
76806SOL     OW32314  13.967  14.203   1.904
76806SOL    HW132315  14.039  14.187   1.965
76806SOL    HW232316  13.888  14.197   1.957
76807SOL     OW32317   3.564   6.273  11.668
76807SOL    HW132318   3.645   6.298  11.624
76807SOL    HW232319   3.524   6.208  11.611
76808SOL     OW32320   9.952  10.459   6.212
76808SOL    HW132321   9.945  10.552   6.231
76808SOL    HW232322  10.044  10.445   6.190
76809SOL     OW32323   2.140  11.328  12.669
76809SOL    HW132324   2.055  11.304  12.630
76809SOL    HW232325   2.203  11.269  12.627
76810SOL     OW32326  14.447  14.441   8.641
76810SOL    HW132327  14.472  14.503   8.573
76810SOL    HW232328  14.501  14.364   8.624
76811SOL     OW32329   0.916   7.046  11.800
76811SOL    HW132330   0.968   6.968  11.782
76811SOL    HW232331   0.828   7.023  11.769
76812SOL     OW32332   4.481   1.983   1.351
76812SOL    HW132333   4.474   2.077   1.340
76812SOL    HW232334   4.498   1.971   1.445
76813SOL     OW32335  11.437   0.900   5.880
76813SOL    HW132336  11.530   0.922   5.872
76813SOL    HW232337  11.393   0.985   5.884
76814SOL     OW32338  12.074   3.090   5.535
76814SOL    HW132339  11.980   3.098   5.551
76814SOL    HW232340  12.104   3.023   5.597
76815SOL     OW32341   7.415  10.111  13.266
76815SOL    HW132342   7.388  10.019  13.272
76815SOL    HW232343   7.409  10.143  13.356
76816SOL     OW32344   4.647   5.799   0.732
76816SOL    HW132345   4.685   5.711   0.737
76816SOL    HW232346   4.607   5.813   0.818
76817SOL     OW32347   5.464   8.339   0.663
76817SOL    HW132348   5.442   8.347   0.571
76817SOL    HW232349   5.520   8.262   0.668
76818SOL     OW32350   3.564  12.254   7.604
76818SOL    HW132351   3.615  12.182   7.567
76818SOL    HW232352   3.480  12.250   7.558
76819SOL     OW32353   7.858  12.627   2.984
76819SOL    HW132354   7.798  12.565   3.024
76819SOL    HW232355   7.813  12.712   2.990
76820SOL     OW32356   8.829  10.014   6.791
76820SOL    HW132357   8.810  10.097   6.747
76820SOL    HW232358   8.923  10.004   6.783
76821SOL     OW32359   6.287   2.175   1.775
76821SOL    HW132360   6.380   2.180   1.752
76821SOL    HW232361   6.260   2.088   1.747
76822SOL     OW32362  11.076   6.259   4.694
76822SOL    HW132363  11.024   6.311   4.755
76822SOL    HW232364  11.022   6.182   4.675
76823SOL     OW32365   9.618   7.185   1.747
76823SOL    HW132366   9.589   7.143   1.667
76823SOL    HW232367   9.638   7.113   1.807
76824SOL     OW32368   2.005   7.381  12.015
76824SOL    HW132369   1.923   7.334  11.998
76824SOL    HW232370   2.053   7.378  11.932
76825SOL     OW32371   9.671   8.920   5.357
76825SOL    HW132372   9.690   9.004   5.400
76825SOL    HW232373   9.695   8.854   5.422
76826SOL     OW32374  12.902  14.370   9.558
76826SOL    HW132375  12.945  14.313   9.494
76826SOL    HW232376  12.815  14.388   9.520
76827SOL     OW32377   5.648  14.586   2.767
76827SOL    HW132378   5.710  14.611   2.699
76827SOL    HW232379   5.675  14.498   2.794
76828SOL     OW32380   5.806   3.480  10.126
76828SOL    HW132381   5.844   3.568  10.132
76828SOL    HW232382   5.727   3.492  10.075
76829SOL     OW32383  14.170  13.219   9.538
76829SOL    HW132384  14.104  13.245   9.474
76829SOL    HW232385  14.169  13.124   9.536
76830SOL     OW32386   6.964   7.048  13.008
76830SOL    HW132387   7.001   6.962  13.027
76830SOL    HW232388   6.870   7.033  13.004
76831SOL     OW32389  12.853   8.410   9.752
76831SOL    HW132390  12.828   8.460   9.829
76831SOL    HW232391  12.916   8.465   9.706
76832SOL     OW32392  13.610   5.672   5.576
76832SOL    HW132393  13.525   5.709   5.599
76832SOL    HW232394  13.601   5.578   5.595
76833SOL     OW32395   6.686   5.490   8.345
76833SOL    HW132396   6.647   5.535   8.420
76833SOL    HW232397   6.777   5.519   8.345
76834SOL     OW32398   3.704   9.281   9.117
76834SOL    HW132399   3.690   9.244   9.204
76834SOL    HW232400   3.621   9.270   9.072
76835SOL     OW32401  10.280  11.978   5.437
76835SOL    HW132402  10.323  11.909   5.488
76835SOL    HW232403  10.251  12.041   5.502
76836SOL     OW32404   2.258   3.923   4.874
76836SOL    HW132405   2.273   3.863   4.801
76836SOL    HW232406   2.293   3.878   4.950
76837SOL     OW32407   2.397  13.402   2.926
76837SOL    HW132408   2.357  13.316   2.915
76837SOL    HW232409   2.467  13.404   2.860
76838SOL     OW32410   5.711  14.182  13.240
76838SOL    HW132411   5.638  14.214  13.188
76838SOL    HW232412   5.673  14.162  13.326
76839SOL     OW32413  13.911  13.601   5.373
76839SOL    HW132414  13.837  13.657   5.348
76839SOL    HW232415  13.903  13.591   5.468
76840SOL     OW32416   5.433  11.668  12.806
76840SOL    HW132417   5.512  11.692  12.855
76840SOL    HW232418   5.361  11.700  12.861
76841SOL     OW32419   9.581   4.411  13.247
76841SOL    HW132420   9.584   4.417  13.152
76841SOL    HW232421   9.670   4.431  13.276
76842SOL     OW32422   1.037  14.585   3.902
76842SOL    HW132423   0.993  14.545   3.827
76842SOL    HW232424   1.108  14.637   3.863
76843SOL     OW32425   3.666   0.955   1.548
76843SOL    HW132426   3.600   1.012   1.508
76843SOL    HW232427   3.728   1.016   1.587
76844SOL     OW32428  10.615  11.226   6.494
76844SOL    HW132429  10.686  11.270   6.541
76844SOL    HW232430  10.549  11.294   6.482
76845SOL     OW32431  11.322   7.877   8.454
76845SOL    HW132432  11.345   7.784   8.457
76845SOL    HW232433  11.288   7.896   8.542
76846SOL     OW32434  12.285   1.213  14.694
76846SOL    HW132435  12.337   1.213  14.774
76846SOL    HW232436  12.284   1.304  14.666
76847SOL     OW32437   0.306   5.122   0.828
76847SOL    HW132438   0.279   5.214   0.827
76847SOL    HW232439   0.339   5.108   0.917
76848SOL     OW32440   2.622   0.165   7.946
76848SOL    HW132441   2.601   0.144   8.037
76848SOL    HW232442   2.537   0.164   7.901
76849SOL     OW32443  10.051   2.188   7.549
76849SOL    HW132444  10.063   2.180   7.644
76849SOL    HW232445   9.977   2.248   7.539
76850SOL     OW32446   1.753   5.785  11.757
76850SOL    HW132447   1.747   5.869  11.804
76850SOL    HW232448   1.680   5.734  11.793
76851SOL     OW32449  13.695  10.284   9.317
76851SOL    HW132450  13.755  10.283   9.392
76851SOL    HW232451  13.666  10.193   9.308
76852SOL     OW32452   7.572   8.589   5.629
76852SOL    HW132453   7.530   8.646   5.693
76852SOL    HW232454   7.661   8.577   5.662
76853SOL     OW32455   6.271   7.892   3.439
76853SOL    HW132456   6.307   7.981   3.444
76853SOL    HW232457   6.216   7.894   3.360
76854SOL     OW32458  13.841   3.630   5.736
76854SOL    HW132459  13.797   3.558   5.692
76854SOL    HW232460  13.810   3.709   5.690
76855SOL     OW32461  11.549   6.803   3.790
76855SOL    HW132462  11.643   6.787   3.782
76855SOL    HW232463  11.543   6.883   3.842
76856SOL     OW32464   5.034  14.262  10.761
76856SOL    HW132465   4.993  14.276  10.676
76856SOL    HW232466   4.999  14.178  10.791
76857SOL     OW32467  13.274  11.538   1.824
76857SOL    HW132468  13.262  11.444   1.813
76857SOL    HW232469  13.214  11.563   1.894
76858SOL     OW32470   2.558   7.275   2.908
76858SOL    HW132471   2.622   7.215   2.946
76858SOL    HW232472   2.611   7.350   2.880
76859SOL     OW32473  12.233  12.740   8.647
76859SOL    HW132474  12.263  12.768   8.560
76859SOL    HW232475  12.212  12.822   8.692
76860SOL     OW32476   5.986  11.871   4.272
76860SOL    HW132477   5.916  11.933   4.250
76860SOL    HW232478   6.057  11.926   4.305
76861SOL     OW32479  13.446  11.428   4.483
76861SOL    HW132480  13.378  11.487   4.514
76861SOL    HW232481  13.409  11.387   4.405
76862SOL     OW32482   9.101   5.320  12.663
76862SOL    HW132483   9.051   5.373  12.601
76862SOL    HW232484   9.185   5.305  12.619
76863SOL     OW32485  10.034   8.785   6.699
76863SOL    HW132486  10.094   8.850   6.662
76863SOL    HW232487   9.959   8.786   6.640
76864SOL     OW32488   3.665  14.506  14.155
76864SOL    HW132489   3.647  14.412  14.167
76864SOL    HW232490   3.578  14.546  14.157
76865SOL     OW32491  12.296   1.990   3.217
76865SOL    HW132492  12.269   2.066   3.268
76865SOL    HW232493  12.216   1.963   3.172
76866SOL     OW32494   4.808   4.629  12.522
76866SOL    HW132495   4.721   4.636  12.562
76866SOL    HW232496   4.859   4.699  12.562
76867SOL     OW32497  11.730  11.570   2.269
76867SOL    HW132498  11.718  11.506   2.339
76867SOL    HW232499  11.702  11.653   2.305
76868SOL     OW32500   6.822   4.828  10.078
76868SOL    HW132501   6.883   4.763  10.113
76868SOL    HW232502   6.740   4.780  10.065
76869SOL     OW32503  11.672  12.891   6.292
76869SOL    HW132504  11.733  12.903   6.220
76869SOL    HW232505  11.727  12.880   6.369
76870SOL     OW32506   2.812   4.971  14.119
76870SOL    HW132507   2.814   4.908  14.047
76870SOL    HW232508   2.840   5.054  14.078
76871SOL     OW32509  13.405  10.532   4.464
76871SOL    HW132510  13.357  10.479   4.527
76871SOL    HW232511  13.345  10.543   4.391
76872SOL     OW32512  10.630   8.551  12.188
76872SOL    HW132513  10.647   8.464  12.225
76872SOL    HW232514  10.696   8.608  12.228
76873SOL     OW32515   2.733   1.060   5.840
76873SOL    HW132516   2.778   1.135   5.878
76873SOL    HW232517   2.789   0.985   5.860
76874SOL     OW32518  13.654  14.298   8.690
76874SOL    HW132519  13.631  14.359   8.760
76874SOL    HW232520  13.731  14.252   8.722
76875SOL     OW32521   6.952   9.475   6.492
76875SOL    HW132522   6.883   9.530   6.531
76875SOL    HW232523   6.910   9.433   6.417
76876SOL     OW32524   8.731  12.042  14.078
76876SOL    HW132525   8.738  11.960  14.028
76876SOL    HW232526   8.821  12.076  14.079
76877SOL     OW32527   9.396   8.003  14.008
76877SOL    HW132528   9.312   8.048  13.998
76877SOL    HW232529   9.440   8.015  13.924
76878SOL     OW32530   6.027   8.277  10.898
76878SOL    HW132531   6.079   8.227  10.961
76878SOL    HW232532   5.965   8.214  10.862
76879SOL     OW32533   3.061  14.662  13.052
76879SOL    HW132534   3.138  14.615  13.083
76879SOL    HW232535   3.085  14.755  13.058
76880SOL     OW32536   6.368   9.021   4.206
76880SOL    HW132537   6.413   8.939   4.226
76880SOL    HW232538   6.333   9.051   4.290
76881SOL     OW32539   2.324   2.534   0.558
76881SOL    HW132540   2.263   2.483   0.611
76881SOL    HW232541   2.326   2.620   0.600
76882SOL     OW32542   3.704   3.665   9.338
76882SOL    HW132543   3.786   3.622   9.314
76882SOL    HW232544   3.674   3.618   9.416
76883SOL     OW32545  11.577  11.760   8.278
76883SOL    HW132546  11.523  11.837   8.261
76883SOL    HW232547  11.567  11.743   8.372
76884SOL     OW32548   2.175   9.453  13.433
76884SOL    HW132549   2.088   9.483  13.405
76884SOL    HW232550   2.222   9.533  13.454
76885SOL     OW32551   5.436   1.802   5.276
76885SOL    HW132552   5.408   1.756   5.196
76885SOL    HW232553   5.531   1.802   5.271
76886SOL     OW32554  12.638   8.656   6.745
76886SOL    HW132555  12.681   8.578   6.781
76886SOL    HW232556  12.571   8.621   6.686
76887SOL     OW32557  14.398  11.698  10.266
76887SOL    HW132558  14.488  11.671  10.287
76887SOL    HW232559  14.381  11.772  10.324
76888SOL     OW32560  14.377   4.327  12.585
76888SOL    HW132561  14.400   4.234  12.582
76888SOL    HW232562  14.389   4.357  12.495
76889SOL     OW32563   9.416   6.858   6.338
76889SOL    HW132564   9.490   6.801   6.317
76889SOL    HW232565   9.434   6.888   6.427
76890SOL     OW32566   1.116   2.855   8.145
76890SOL    HW132567   1.042   2.860   8.084
76890SOL    HW232568   1.135   2.947   8.166
76891SOL     OW32569  14.808   4.160   7.995
76891SOL    HW132570   0.032   4.170   8.020
76891SOL    HW232571  14.761   4.150   8.078
76892SOL     OW32572  10.237   0.887   2.262
76892SOL    HW132573  10.208   0.796   2.252
76892SOL    HW232574  10.330   0.880   2.285
76893SOL     OW32575   4.436  11.497   4.363
76893SOL    HW132576   4.351  11.455   4.356
76893SOL    HW232577   4.419  11.589   4.346
76894SOL     OW32578  14.313   2.411   5.948
76894SOL    HW132579  14.324   2.424   6.043
76894SOL    HW232580  14.239   2.467   5.925
76895SOL     OW32581  10.885  12.570   3.602
76895SOL    HW132582  10.962  12.516   3.581
76895SOL    HW232583  10.828  12.511   3.651
76896SOL     OW32584   2.519   8.762   7.618
76896SOL    HW132585   2.521   8.706   7.695
76896SOL    HW232586   2.474   8.709   7.551
76897SOL     OW32587   1.063   8.113   3.089
76897SOL    HW132588   1.055   8.197   3.044
76897SOL    HW232589   1.146   8.118   3.135
76898SOL     OW32590  12.905   3.714   2.796
76898SOL    HW132591  12.815   3.700   2.828
76898SOL    HW232592  12.907   3.807   2.771
76899SOL     OW32593  12.263   7.744  13.015
76899SOL    HW132594  12.223   7.801  13.081
76899SOL    HW232595  12.332   7.697  13.063
76900SOL     OW32596  11.318   7.480   2.768
76900SOL    HW132597  11.281   7.549   2.823
76900SOL    HW232598  11.336   7.523   2.684
76901SOL     OW32599   4.068   2.759  14.179
76901SOL    HW132600   3.991   2.703  14.184
76901SOL    HW232601   4.138   2.707  14.220
76902SOL     OW32602   7.319   0.981  12.374
76902SOL    HW132603   7.261   1.027  12.313
76902SOL    HW232604   7.405   1.021  12.361
76903SOL     OW32605  13.744   5.338   8.612
76903SOL    HW132606  13.761   5.431   8.596
76903SOL    HW232607  13.654   5.336   8.645
76904SOL     OW32608  11.609   1.400   0.056
76904SOL    HW132609  11.641   1.352  14.847
76904SOL    HW232610  11.546   1.340   0.097
76905SOL     OW32611   6.080  10.230   9.182
76905SOL    HW132612   6.144  10.217   9.112
76905SOL    HW232613   5.995  10.223   9.138
76906SOL     OW32614   0.308   1.502  13.807
76906SOL    HW132615   0.399   1.492  13.834
76906SOL    HW232616   0.301   1.593  13.778
76907SOL     OW32617  12.601  13.993   3.617
76907SOL    HW132618  12.622  13.922   3.557
76907SOL    HW232619  12.551  14.055   3.564
76908SOL     OW32620   8.033   3.083   9.539
76908SOL    HW132621   8.031   3.013   9.605
76908SOL    HW232622   7.979   3.153   9.576
76909SOL     OW32623   9.563   3.292  14.375
76909SOL    HW132624   9.589   3.294  14.467
76909SOL    HW232625   9.509   3.214  14.367
76910SOL     OW32626   3.528  12.208   3.543
76910SOL    HW132627   3.555  12.284   3.594
76910SOL    HW232628   3.604  12.187   3.488
76911SOL     OW32629   0.978   5.551  14.671
76911SOL    HW132630   0.961   5.624  14.732
76911SOL    HW232631   1.070   5.561  14.648
76912SOL     OW32632   9.394   6.914  12.132
76912SOL    HW132633   9.356   6.826  12.131
76912SOL    HW232634   9.482   6.902  12.168
76913SOL     OW32635   8.830  10.243  12.493
76913SOL    HW132636   8.917  10.210  12.469
76913SOL    HW232637   8.816  10.211  12.582
76914SOL     OW32638  10.123  10.093   1.427
76914SOL    HW132639  10.031  10.067   1.434
76914SOL    HW232640  10.129  10.140   1.344
76915SOL     OW32641  10.776   4.124   7.896
76915SOL    HW132642  10.720   4.187   7.851
76915SOL    HW232643  10.768   4.146   7.988
76916SOL     OW32644   1.592  10.279  10.550
76916SOL    HW132645   1.527  10.210  10.569
76916SOL    HW232646   1.587  10.291  10.456
76917SOL     OW32647   4.963   3.687   3.383
76917SOL    HW132648   4.981   3.779   3.404
76917SOL    HW232649   4.868   3.684   3.368
76918SOL     OW32650   5.477   1.073   8.409
76918SOL    HW132651   5.520   1.142   8.459
76918SOL    HW232652   5.484   0.995   8.464
76919SOL     OW32653   2.481  12.322   5.958
76919SOL    HW132654   2.441  12.376   5.889
76919SOL    HW232655   2.575  12.341   5.951
76920SOL     OW32656   3.050  10.407   1.572
76920SOL    HW132657   3.065  10.496   1.601
76920SOL    HW232658   3.095  10.352   1.636
76921SOL     OW32659   8.297   8.179   5.376
76921SOL    HW132660   8.373   8.232   5.400
76921SOL    HW232661   8.304   8.169   5.281
76922SOL     OW32662   7.104   3.059   1.438
76922SOL    HW132663   7.170   3.099   1.494
76922SOL    HW232664   7.030   3.120   1.440
76923SOL     OW32665   7.273   5.266   6.172
76923SOL    HW132666   7.352   5.276   6.225
76923SOL    HW232667   7.212   5.331   6.208
76924SOL     OW32668  14.718  13.285   4.557
76924SOL    HW132669  14.723  13.346   4.484
76924SOL    HW232670  14.779  13.320   4.622
76925SOL     OW32671  11.479  13.840  11.490
76925SOL    HW132672  11.531  13.760  11.500
76925SOL    HW232673  11.503  13.894  11.565
76926SOL     OW32674  13.764  13.874   1.632
76926SOL    HW132675  13.682  13.892   1.677
76926SOL    HW232676  13.831  13.880   1.701
76927SOL     OW32677   9.119   7.835  13.484
76927SOL    HW132678   9.151   7.886  13.558
76927SOL    HW232679   9.196   7.785  13.456
76928SOL     OW32680   7.987   6.504  11.138
76928SOL    HW132681   7.965   6.597  11.146
76928SOL    HW232682   7.904   6.463  11.111
76929SOL     OW32683   9.363   7.930   6.705
76929SOL    HW132684   9.440   7.974   6.741
76929SOL    HW232685   9.336   7.869   6.774
76930SOL     OW32686   4.194   9.894  13.010
76930SOL    HW132687   4.207   9.911  12.917
76930SOL    HW232688   4.257   9.951  13.054
76931SOL     OW32689  14.601   9.414   1.839
76931SOL    HW132690  14.689   9.378   1.851
76931SOL    HW232691  14.578   9.451   1.924
76932SOL     OW32692   1.206  11.479   9.891
76932SOL    HW132693   1.141  11.516   9.832
76932SOL    HW232694   1.157  11.415   9.943
76933SOL     OW32695  13.369   9.782   9.736
76933SOL    HW132696  13.420   9.850   9.780
76933SOL    HW232697  13.374   9.804   9.643
76934SOL     OW32698   1.095  11.640  10.239
76934SOL    HW132699   1.136  11.555  10.253
76934SOL    HW232700   1.021  11.621  10.180
76935SOL     OW32701  14.248  13.173   2.591
76935SOL    HW132702  14.283  13.219   2.515
76935SOL    HW232703  14.156  13.159   2.570
76936SOL     OW32704   2.519   6.611  14.349
76936SOL    HW132705   2.516   6.707  14.347
76936SOL    HW232706   2.438   6.584  14.305
76937SOL     OW32707   9.460   2.374  12.717
76937SOL    HW132708   9.435   2.463  12.693
76937SOL    HW232709   9.499   2.338  12.637
76938SOL     OW32710   1.488   2.309   5.409
76938SOL    HW132711   1.539   2.288   5.331
76938SOL    HW232712   1.435   2.385   5.385
76939SOL     OW32713  10.486   4.552   5.463
76939SOL    HW132714  10.499   4.457   5.461
76939SOL    HW232715  10.571   4.587   5.435
76940SOL     OW32716  11.472  11.560   4.295
76940SOL    HW132717  11.565  11.555   4.317
76940SOL    HW232718  11.452  11.653   4.299
76941SOL     OW32719   0.118   0.419   2.038
76941SOL    HW132720   0.102   0.349   2.100
76941SOL    HW232721   0.097   0.499   2.086
76942SOL     OW32722   3.979  10.835  13.394
76942SOL    HW132723   4.068  10.869  13.404
76942SOL    HW232724   3.974  10.807  13.303
76943SOL     OW32725  11.335  12.741   3.485
76943SOL    HW132726  11.403  12.795   3.443
76943SOL    HW232727  11.254  12.788   3.468
76944SOL     OW32728   7.168   7.362  13.553
76944SOL    HW132729   7.260   7.349  13.529
76944SOL    HW232730   7.151   7.295  13.619
76945SOL     OW32731   6.919   1.593   5.410
76945SOL    HW132732   6.851   1.644   5.454
76945SOL    HW232733   6.874   1.550   5.338
76946SOL     OW32734   8.823  12.760   6.674
76946SOL    HW132735   8.768  12.682   6.674
76946SOL    HW232736   8.765  12.830   6.704
76947SOL     OW32737  11.830   0.775   5.473
76947SOL    HW132738  11.794   0.836   5.537
76947SOL    HW232739  11.791   0.690   5.496
76948SOL     OW32740  14.533   0.896   3.478
76948SOL    HW132741  14.591   0.882   3.553
76948SOL    HW232742  14.525   0.810   3.437
76949SOL     OW32743   7.985   3.481   6.514
76949SOL    HW132744   8.001   3.388   6.531
76949SOL    HW232745   7.895   3.484   6.483
76950SOL     OW32746   1.019   0.725   5.417
76950SOL    HW132747   0.982   0.773   5.491
76950SOL    HW232748   1.113   0.740   5.423
76951SOL     OW32749  13.649   2.582   5.213
76951SOL    HW132750  13.681   2.500   5.250
76951SOL    HW232751  13.575   2.556   5.158
76952SOL     OW32752   7.884   5.310   1.099
76952SOL    HW132753   7.841   5.356   1.027
76952SOL    HW232754   7.893   5.376   1.168
76953SOL     OW32755  14.645   5.702   1.284
76953SOL    HW132756  14.663   5.662   1.369
76953SOL    HW232757  14.608   5.630   1.231
76954SOL     OW32758   4.686   7.691  13.447
76954SOL    HW132759   4.686   7.775  13.402
76954SOL    HW232760   4.626   7.636  13.396
76955SOL     OW32761   1.068  14.113  14.326
76955SOL    HW132762   1.117  14.173  14.383
76955SOL    HW232763   1.126  14.038  14.315
76956SOL     OW32764  14.428   0.084   5.699
76956SOL    HW132765  14.469   0.170   5.711
76956SOL    HW232766  14.502   0.023   5.696
76957SOL     OW32767  13.688   1.969   9.906
76957SOL    HW132768  13.624   2.029   9.868
76957SOL    HW232769  13.709   2.008   9.991
76958SOL     OW32770   9.803  14.290  11.190
76958SOL    HW132771   9.801  14.202  11.227
76958SOL    HW232772   9.711  14.310  11.172
76959SOL     OW32773  10.548  12.461   2.569
76959SOL    HW132774  10.547  12.531   2.635
76959SOL    HW232775  10.584  12.503   2.491
76960SOL     OW32776   9.796   3.493  10.402
76960SOL    HW132777   9.819   3.581  10.430
76960SOL    HW232778   9.804   3.440  10.482
76961SOL     OW32779   9.417   8.837   2.909
76961SOL    HW132780   9.399   8.931   2.908
76961SOL    HW232781   9.342   8.797   2.865
76962SOL     OW32782  14.399   3.574   1.156
76962SOL    HW132783  14.479   3.569   1.104
76962SOL    HW232784  14.331   3.597   1.093
76963SOL     OW32785   4.897  13.585  11.259
76963SOL    HW132786   4.988  13.560  11.273
76963SOL    HW232787   4.848  13.531  11.321
76964SOL     OW32788  14.476  14.722  12.002
76964SOL    HW132789  14.407  14.680  12.053
76964SOL    HW232790  14.507  14.793  12.058
76965SOL     OW32791  12.295  13.209   3.780
76965SOL    HW132792  12.327  13.140   3.837
76965SOL    HW232793  12.319  13.180   3.691
76966SOL     OW32794  12.000  13.795  12.290
76966SOL    HW132795  12.078  13.838  12.256
76966SOL    HW232796  12.017  13.701  12.276
76967SOL     OW32797  10.530  10.252  10.835
76967SOL    HW132798  10.608  10.232  10.784
76967SOL    HW232799  10.548  10.336  10.875
76968SOL     OW32800   3.616   8.601  10.697
76968SOL    HW132801   3.692   8.659  10.699
76968SOL    HW232802   3.653   8.512  10.704
76969SOL     OW32803  10.380  12.759   3.572
76969SOL    HW132804  10.412  12.685   3.521
76969SOL    HW232805  10.434  12.760   3.650
76970SOL     OW32806  14.462   3.716  11.796
76970SOL    HW132807  14.381   3.735  11.748
76970SOL    HW232808  14.466   3.620  11.798
76971SOL     OW32809   7.952   9.951   4.468
76971SOL    HW132810   8.001   9.907   4.399
76971SOL    HW232811   7.979   9.907   4.549
76972SOL     OW32812  12.660  10.271  14.619
76972SOL    HW132813  12.704  10.204  14.566
76972SOL    HW232814  12.605  10.319  14.557
76973SOL     OW32815   9.775  10.012   2.072
76973SOL    HW132816   9.708   9.974   2.129
76973SOL    HW232817   9.836  10.055   2.133
76974SOL     OW32818   1.035   8.517   6.609
76974SOL    HW132819   1.074   8.443   6.562
76974SOL    HW232820   1.108   8.556   6.656
76975SOL     OW32821   7.260   0.083   8.770
76975SOL    HW132822   7.241   0.172   8.800
76975SOL    HW232823   7.292   0.038   8.848
76976SOL     OW32824  11.727   9.292   9.542
76976SOL    HW132825  11.705   9.221   9.481
76976SOL    HW232826  11.716   9.372   9.490
76977SOL     OW32827  12.838   5.416   3.652
76977SOL    HW132828  12.857   5.401   3.745
76977SOL    HW232829  12.899   5.360   3.605
76978SOL     OW32830  10.292   0.309   0.153
76978SOL    HW132831  10.209   0.334   0.195
76978SOL    HW232832  10.356   0.311   0.224
76979SOL     OW32833   7.870  14.313  12.155
76979SOL    HW132834   7.913  14.392  12.187
76979SOL    HW232835   7.780  14.340  12.139
76980SOL     OW32836   3.739  14.337  13.891
76980SOL    HW132837   3.703  14.378  13.970
76980SOL    HW232838   3.663  14.323  13.834
76981SOL     OW32839  13.701  14.309   0.672
76981SOL    HW132840  13.789  14.317   0.709
76981SOL    HW232841  13.691  14.386   0.616
76982SOL     OW32842   6.186   1.812   5.964
76982SOL    HW132843   6.191   1.718   5.946
76982SOL    HW232844   6.249   1.825   6.035
76983SOL     OW32845  10.229   7.055   8.644
76983SOL    HW132846  10.231   7.143   8.681
76983SOL    HW232847  10.206   6.999   8.719
76984SOL     OW32848   4.252   0.132  11.229
76984SOL    HW132849   4.346   0.151  11.227
76984SOL    HW232850   4.211   0.219  11.230
76985SOL     OW32851  12.976   8.288   4.541
76985SOL    HW132852  12.902   8.296   4.601
76985SOL    HW232853  12.961   8.355   4.475
76986SOL     OW32854   4.677   8.684   3.226
76986SOL    HW132855   4.711   8.747   3.290
76986SOL    HW232856   4.755   8.634   3.198
76987SOL     OW32857  12.437  13.693  14.553
76987SOL    HW132858  12.469  13.608  14.524
76987SOL    HW232859  12.345  13.677  14.577
76988SOL     OW32860  11.694   7.353   4.682
76988SOL    HW132861  11.696   7.293   4.757
76988SOL    HW232862  11.666   7.437   4.720
76989SOL     OW32863   5.721  14.270   6.760
76989SOL    HW132864   5.747  14.356   6.794
76989SOL    HW232865   5.652  14.288   6.697
76990SOL     OW32866  10.725   0.329   5.694
76990SOL    HW132867  10.733   0.248   5.743
76990SOL    HW232868  10.777   0.315   5.615
76991SOL     OW32869  14.158   8.527   3.875
76991SOL    HW132870  14.075   8.491   3.906
76991SOL    HW232871  14.223   8.461   3.898
76992SOL     OW32872   9.847   8.278   9.762
76992SOL    HW132873   9.837   8.358   9.711
76992SOL    HW232874   9.792   8.293   9.839
76993SOL     OW32875   4.754  11.260   8.631
76993SOL    HW132876   4.848  11.275   8.620
76993SOL    HW232877   4.725  11.227   8.546
76994SOL     OW32878   3.706   8.674  12.273
76994SOL    HW132879   3.619   8.682  12.312
76994SOL    HW232880   3.707   8.588  12.232
76995SOL     OW32881   5.962   8.013   1.903
76995SOL    HW132882   6.034   7.956   1.930
76995SOL    HW232883   5.884   7.958   1.913
76996SOL     OW32884   6.505   9.841   8.054
76996SOL    HW132885   6.506   9.936   8.063
76996SOL    HW232886   6.425   9.813   8.098
76997SOL     OW32887   6.435   0.395   0.742
76997SOL    HW132888   6.498   0.328   0.766
76997SOL    HW232889   6.487   0.464   0.701
76998SOL     OW32890   2.222   9.826  10.062
76998SOL    HW132891   2.140   9.823  10.013
76998SOL    HW232892   2.276   9.757  10.023
76999SOL     OW32893   6.392   6.161   3.768
76999SOL    HW132894   6.473   6.116   3.743
76999SOL    HW232895   6.345   6.097   3.822
77000SOL     OW32896   8.657   0.527  13.877
77000SOL    HW132897   8.594   0.521  13.948
77000SOL    HW232898   8.649   0.617  13.845
77001SOL     OW32899   8.670  14.563   1.296
77001SOL    HW132900   8.652  14.631   1.361
77001SOL    HW232901   8.612  14.491   1.321
77002SOL     OW32902  13.136   1.964   9.671
77002SOL    HW132903  13.099   1.892   9.620
77002SOL    HW232904  13.212   1.993   9.621
77003SOL     OW32905   3.119  13.098   1.739
77003SOL    HW132906   3.025  13.087   1.725
77003SOL    HW232907   3.154  13.009   1.740
77004SOL     OW32908  14.750   0.696  12.759
77004SOL    HW132909  14.658   0.679  12.776
77004SOL    HW232910  14.754   0.788  12.736
77005SOL     OW32911  14.092  11.519  10.611
77005SOL    HW132912  14.180  11.484  10.626
77005SOL    HW232913  14.050  11.515  10.697
77006SOL     OW32914   8.552  13.736   0.763
77006SOL    HW132915   8.617  13.790   0.718
77006SOL    HW232916   8.473  13.743   0.709
77007SOL     OW32917   6.311   0.942   1.406
77007SOL    HW132918   6.243   1.010   1.407
77007SOL    HW232919   6.345   0.944   1.317
77008SOL     OW32920   5.671   6.781   9.920
77008SOL    HW132921   5.615   6.721   9.870
77008SOL    HW232922   5.713   6.835   9.854
77009SOL     OW32923  13.140  14.284   9.945
77009SOL    HW132924  13.231  14.261   9.923
77009SOL    HW232925  13.095  14.283   9.861
77010SOL     OW32926   4.905   6.742  12.022
77010SOL    HW132927   4.957   6.662  12.008
77010SOL    HW232928   4.816   6.710  12.033
77011SOL     OW32929   2.291   3.093   3.207
77011SOL    HW132930   2.328   3.032   3.271
77011SOL    HW232931   2.315   3.180   3.239
77012SOL     OW32932   5.670   6.151  12.878
77012SOL    HW132933   5.760   6.133  12.850
77012SOL    HW232934   5.617   6.137  12.799
77013SOL     OW32935   4.495   6.026  14.165
77013SOL    HW132936   4.418   5.988  14.122
77013SOL    HW232937   4.484   6.004  14.258
77014SOL     OW32938   2.194   6.378   2.956
77014SOL    HW132939   2.130   6.315   2.923
77014SOL    HW232940   2.274   6.327   2.969
77015SOL     OW32941   0.752   7.485   5.228
77015SOL    HW132942   0.790   7.543   5.163
77015SOL    HW232943   0.682   7.537   5.268
77016SOL     OW32944   7.140   4.812   0.079
77016SOL    HW132945   7.207   4.829   0.013
77016SOL    HW232946   7.087   4.892   0.080
77017SOL     OW32947   8.817  13.047  11.227
77017SOL    HW132948   8.868  13.030  11.306
77017SOL    HW232949   8.843  13.135  11.200
77018SOL     OW32950   2.068   6.405   6.350
77018SOL    HW132951   2.005   6.332   6.355
77018SOL    HW232952   2.149   6.369   6.387
77019SOL     OW32953   4.655  10.430   2.936
77019SOL    HW132954   4.612  10.351   2.969
77019SOL    HW232955   4.627  10.499   2.995
77020SOL     OW32956   7.052   4.322   8.988
77020SOL    HW132957   6.971   4.297   8.943
77020SOL    HW232958   7.035   4.411   9.020
77021SOL     OW32959   9.258   1.591   1.781
77021SOL    HW132960   9.186   1.573   1.720
77021SOL    HW232961   9.248   1.684   1.803
77022SOL     OW32962  10.815   3.173  12.241
77022SOL    HW132963  10.724   3.187  12.268
77022SOL    HW232964  10.859   3.256  12.262
77023SOL     OW32965   4.113   0.270  11.798
77023SOL    HW132966   4.120   0.333  11.726
77023SOL    HW232967   4.053   0.310  11.860
77024SOL     OW32968   4.256  10.219  10.854
77024SOL    HW132969   4.285  10.250  10.940
77024SOL    HW232970   4.260  10.123  10.860
77025SOL     OW32971  14.696   7.288   2.680
77025SOL    HW132972  14.694   7.227   2.607
77025SOL    HW232973  14.690   7.375   2.640
77026SOL     OW32974  13.570  13.813   7.387
77026SOL    HW132975  13.485  13.806   7.431
77026SOL    HW232976  13.634  13.799   7.456
77027SOL     OW32977   9.862  12.028   7.726
77027SOL    HW132978   9.869  12.123   7.732
77027SOL    HW232979   9.944  12.001   7.684
77028SOL     OW32980   8.808   4.489  13.433
77028SOL    HW132981   8.847   4.417  13.482
77028SOL    HW232982   8.880   4.550  13.417
77029SOL     OW32983   7.604  14.183  14.318
77029SOL    HW132984   7.588  14.263  14.268
77029SOL    HW232985   7.528  14.127  14.299
77030SOL     OW32986   8.847   4.249  10.567
77030SOL    HW132987   8.872   4.183  10.503
77030SOL    HW232988   8.786   4.306  10.521
77031SOL     OW32989   0.395  12.616  14.154
77031SOL    HW132990   0.406  12.552  14.224
77031SOL    HW232991   0.376  12.564  14.076
77032SOL     OW32992   2.019   3.543  11.284
77032SOL    HW132993   1.941   3.511  11.328
77032SOL    HW232994   2.057   3.607  11.345
77033SOL     OW32995   5.345  12.750  11.489
77033SOL    HW132996   5.428  12.727  11.446
77033SOL    HW232997   5.305  12.666  11.512
77034SOL     OW32998   7.213  14.793  12.151
77034SOL    HW132999   7.193  14.806  12.243
77034SOL    HW233000   7.283  14.728  12.150
77035SOL     OW33001  11.937   5.136   2.324
77035SOL    HW133002  11.935   5.203   2.393
77035SOL    HW233003  11.926   5.053   2.370
77036SOL     OW33004   9.552   1.125   4.147
77036SOL    HW133005   9.474   1.154   4.100
77036SOL    HW233006   9.522   1.054   4.203
77037SOL     OW33007   0.325   1.417   8.521
77037SOL    HW133008   0.260   1.442   8.587
77037SOL    HW233009   0.276   1.365   8.458
77038SOL     OW33010   9.044  14.396   8.777
77038SOL    HW133011   9.014  14.487   8.775
77038SOL    HW233012   9.084  14.386   8.863
77039SOL     OW33013  10.752  13.863   4.639
77039SOL    HW133014  10.818  13.861   4.709
77039SOL    HW233015  10.690  13.930   4.668
77040SOL     OW33016   2.257   3.979   2.448
77040SOL    HW133017   2.312   3.913   2.490
77040SOL    HW233018   2.239   4.043   2.517
77041SOL     OW33019   2.317   6.134  10.591
77041SOL    HW133020   2.313   6.101  10.681
77041SOL    HW233021   2.231   6.172  10.575
77042SOL     OW33022   5.150   0.776   8.413
77042SOL    HW133023   5.139   0.727   8.495
77042SOL    HW233024   5.242   0.763   8.389
77043SOL     OW33025   9.947   3.480  12.326
77043SOL    HW133026   9.970   3.484  12.419
77043SOL    HW233027   9.979   3.394  12.297
77044SOL     OW33028  14.658   7.126  10.981
77044SOL    HW133029  14.687   7.085  11.063
77044SOL    HW233030  14.588   7.069  10.950
77045SOL     OW33031  12.114   6.574   1.882
77045SOL    HW133032  12.034   6.522   1.878
77045SOL    HW233033  12.185   6.511   1.872
77046SOL     OW33034   6.708   1.579   7.866
77046SOL    HW133035   6.740   1.543   7.783
77046SOL    HW233036   6.619   1.607   7.847
77047SOL     OW33037  12.606   2.162   0.604
77047SOL    HW133038  12.687   2.156   0.553
77047SOL    HW233039  12.602   2.080   0.652
77048SOL     OW33040  12.320  13.344   3.456
77048SOL    HW133041  12.336  13.416   3.518
77048SOL    HW233042  12.353  13.377   3.373
77049SOL     OW33043   4.991  10.071   8.843
77049SOL    HW133044   5.043   9.992   8.854
77049SOL    HW233045   4.938  10.054   8.765
77050SOL     OW33046  11.502   8.128   8.700
77050SOL    HW133047  11.454   8.046   8.709
77050SOL    HW233048  11.434   8.196   8.699
77051SOL     OW33049   3.900   1.712   5.999
77051SOL    HW133050   3.869   1.657   6.071
77051SOL    HW233051   3.821   1.757   5.967
77052SOL     OW33052  11.421  14.399  14.573
77052SOL    HW133053  11.485  14.335  14.540
77052SOL    HW233054  11.464  14.484  14.559
77053SOL     OW33055  13.925   8.578   8.304
77053SOL    HW133056  13.917   8.490   8.268
77053SOL    HW233057  14.018   8.587   8.326
77054SOL     OW33058   9.029   2.143   0.259
77054SOL    HW133059   9.004   2.159   0.351
77054SOL    HW233060   8.981   2.064   0.235
77055SOL     OW33061  14.334   7.212   4.973
77055SOL    HW133062  14.394   7.233   5.045
77055SOL    HW233063  14.247   7.212   5.012
77056SOL     OW33064  11.341   8.505  11.154
77056SOL    HW133065  11.336   8.511  11.058
77056SOL    HW233066  11.345   8.411  11.172
77057SOL     OW33067   8.719   1.332   2.696
77057SOL    HW133068   8.663   1.255   2.704
77057SOL    HW233069   8.723   1.349   2.602
77058SOL     OW33070   1.990  12.523  11.254
77058SOL    HW133071   1.926  12.489  11.317
77058SOL    HW233072   1.989  12.459  11.183
77059SOL     OW33073  12.862   9.938   1.306
77059SOL    HW133074  12.917   9.947   1.229
77059SOL    HW233075  12.772   9.938   1.273
77060SOL     OW33076  12.565   7.193   4.600
77060SOL    HW133077  12.593   7.124   4.540
77060SOL    HW233078  12.509   7.250   4.547
77061SOL     OW33079  14.508  11.448   8.936
77061SOL    HW133080  14.416  11.424   8.923
77061SOL    HW233081  14.556  11.393   8.874
77062SOL     OW33082   8.569  12.051  12.152
77062SOL    HW133083   8.612  12.022  12.232
77062SOL    HW233084   8.481  12.077  12.180
77063SOL     OW33085   7.595   3.815   9.313
77063SOL    HW133086   7.581   3.856   9.227
77063SOL    HW233087   7.620   3.888   9.370
77064SOL     OW33088   0.908  10.294  11.105
77064SOL    HW133089   0.931  10.217  11.156
77064SOL    HW233090   0.840  10.337  11.157
77065SOL     OW33091  14.708   5.326  11.889
77065SOL    HW133092  14.746   5.340  11.976
77065SOL    HW233093  14.777   5.352  11.828
77066SOL     OW33094  11.777   7.787   7.830
77066SOL    HW133095  11.867   7.807   7.805
77066SOL    HW233096  11.730   7.870   7.818
77067SOL     OW33097   4.365   1.253  10.575
77067SOL    HW133098   4.330   1.228  10.489
77067SOL    HW233099   4.391   1.170  10.615
77068SOL     OW33100   6.323   4.769   1.443
77068SOL    HW133101   6.343   4.701   1.508
77068SOL    HW233102   6.351   4.731   1.360
77069SOL     OW33103   1.226   0.064   4.049
77069SOL    HW133104   1.193   0.146   4.086
77069SOL    HW233105   1.204  14.866   4.115
77070SOL     OW33106  10.951   5.663   1.443
77070SOL    HW133107  10.863   5.625   1.450
77070SOL    HW233108  10.936   5.757   1.435
77071SOL     OW33109   2.124   3.666   5.443
77071SOL    HW133110   2.037   3.677   5.480
77071SOL    HW233111   2.174   3.740   5.477
77072SOL     OW33112  13.926  14.615   2.421
77072SOL    HW133113  13.889  14.663   2.495
77072SOL    HW233114  14.021  14.623   2.432
77073SOL     OW33115  12.716   6.593   4.002
77073SOL    HW133116  12.746   6.502   4.010
77073SOL    HW233117  12.698   6.620   4.092
77074SOL     OW33118   3.270   6.398   9.136
77074SOL    HW133119   3.264   6.491   9.117
77074SOL    HW233120   3.338   6.366   9.077
77075SOL     OW33121  10.607  14.180   6.974
77075SOL    HW133122  10.622  14.238   7.048
77075SOL    HW233123  10.577  14.237   6.904
77076SOL     OW33124  12.279   9.824   3.655
77076SOL    HW133125  12.243   9.898   3.705
77076SOL    HW233126  12.221   9.816   3.580
77077SOL     OW33127  13.182  11.546  11.270
77077SOL    HW133128  13.105  11.558  11.325
77077SOL    HW233129  13.165  11.600  11.192
77078SOL     OW33130   6.128   9.369  10.545
77078SOL    HW133131   6.197   9.320  10.499
77078SOL    HW233132   6.058   9.377  10.480
77079SOL     OW33133   8.493   1.043   9.784
77079SOL    HW133134   8.502   0.985   9.859
77079SOL    HW233135   8.403   1.076   9.790
77080SOL     OW33136   0.014  12.398  13.711
77080SOL    HW133137   0.095  12.367  13.670
77080SOL    HW233138  14.857  12.328  13.771
77081SOL     OW33139   3.548   9.580   1.633
77081SOL    HW133140   3.484   9.603   1.564
77081SOL    HW233141   3.557   9.485   1.626
77082SOL     OW33142   6.191   7.000  11.521
77082SOL    HW133143   6.274   7.008  11.474
77082SOL    HW233144   6.125   7.033  11.460
77083SOL     OW33145  13.900   6.546   2.242
77083SOL    HW133146  13.994   6.527   2.242
77083SOL    HW233147  13.880   6.568   2.151
77084SOL     OW33148  14.640   2.523   5.699
77084SOL    HW133149  14.696   2.600   5.686
77084SOL    HW233150  14.551   2.557   5.690
77085SOL     OW33151   4.294   2.856   5.511
77085SOL    HW133152   4.354   2.831   5.581
77085SOL    HW233153   4.244   2.777   5.493
77086SOL     OW33154  12.159   7.064   8.283
77086SOL    HW133155  12.237   7.026   8.241
77086SOL    HW233156  12.085   7.023   8.238
77087SOL     OW33157  11.737  10.477  12.492
77087SOL    HW133158  11.666  10.449  12.550
77087SOL    HW233159  11.700  10.551  12.443
77088SOL     OW33160   0.961   2.665   9.944
77088SOL    HW133161   1.007   2.748   9.953
77088SOL    HW233162   1.029   2.599   9.954
77089SOL     OW33163   1.865   2.645  10.086
77089SOL    HW133164   1.959   2.626  10.091
77089SOL    HW233165   1.859   2.719  10.025
77090SOL     OW33166   6.964   6.683   9.658
77090SOL    HW133167   6.870   6.700   9.662
77090SOL    HW233168   6.973   6.611   9.596
77091SOL     OW33169   2.398  13.411   9.174
77091SOL    HW133170   2.466  13.417   9.107
77091SOL    HW233171   2.321  13.379   9.127
77092SOL     OW33172   8.620   7.174   6.084
77092SOL    HW133173   8.653   7.178   6.173
77092SOL    HW233174   8.633   7.263   6.050
77093SOL     OW33175   2.709   6.637  14.831
77093SOL    HW133176   2.664   6.699   0.020
77093SOL    HW233177   2.641   6.576  14.802
77094SOL     OW33178   0.561   4.804  13.537
77094SOL    HW133179   0.526   4.772  13.621
77094SOL    HW233180   0.531   4.740  13.473
77095SOL     OW33181   5.844  14.186   0.424
77095SOL    HW133182   5.795  14.243   0.484
77095SOL    HW233183   5.932  14.182   0.461
77096SOL     OW33184   6.276   8.703  11.184
77096SOL    HW133185   6.287   8.637  11.116
77096SOL    HW233186   6.183   8.699  11.206
77097SOL     OW33187   2.260  12.307  12.553
77097SOL    HW133188   2.214  12.246  12.611
77097SOL    HW233189   2.300  12.371  12.612
77098SOL     OW33190  10.432   3.037   0.424
77098SOL    HW133191  10.471   3.100   0.363
77098SOL    HW233192  10.484   2.957   0.411
77099SOL     OW33193   2.462  12.284  10.264
77099SOL    HW133194   2.490  12.375  10.249
77099SOL    HW233195   2.408  12.262  10.189
77100SOL     OW33196   2.886  11.596  10.297
77100SOL    HW133197   2.943  11.534  10.251
77100SOL    HW233198   2.946  11.663  10.330
77101SOL     OW33199   6.531  12.665   6.512
77101SOL    HW133200   6.621  12.632   6.511
77101SOL    HW233201   6.540  12.760   6.508
77102SOL     OW33202   8.449  12.885  11.055
77102SOL    HW133203   8.382  12.816  11.051
77102SOL    HW233204   8.403  12.964  11.027
77103SOL     OW33205   6.087   4.021   2.802
77103SOL    HW133206   6.113   4.044   2.713
77103SOL    HW233207   6.154   3.958   2.831
77104SOL     OW33208  14.076   7.557  13.926
77104SOL    HW133209  14.003   7.592  13.977
77104SOL    HW233210  14.081   7.613  13.849
77105SOL     OW33211   6.977  14.155  12.654
77105SOL    HW133212   6.920  14.193  12.588
77105SOL    HW233213   7.063  14.149  12.612
77106SOL     OW33214  11.630  11.236  11.356
77106SOL    HW133215  11.705  11.258  11.411
77106SOL    HW233216  11.557  11.232  11.417
77107SOL     OW33217  11.250   9.670  13.795
77107SOL    HW133218  11.171   9.659  13.742
77107SOL    HW233219  11.221   9.715  13.874
77108SOL     OW33220  10.210  12.478  10.620
77108SOL    HW133221  10.255  12.429  10.551
77108SOL    HW233222  10.271  12.548  10.643
77109SOL     OW33223   7.755  14.720   2.808
77109SOL    HW133224   7.749  14.790   2.742
77109SOL    HW233225   7.800  14.649   2.763
77110SOL     OW33226   8.862  11.024   4.869
77110SOL    HW133227   8.956  11.015   4.853
77110SOL    HW233228   8.823  10.945   4.832
77111SOL     OW33229   9.861   4.688   5.824
77111SOL    HW133230   9.927   4.758   5.828
77111SOL    HW233231   9.890   4.623   5.887
77112SOL     OW33232   7.656  14.808   6.185
77112SOL    HW133233   7.561  14.793   6.186
77112SOL    HW233234   7.678  14.823   6.277
77113SOL     OW33235  12.200   9.629  14.467
77113SOL    HW133236  12.286   9.616  14.506
77113SOL    HW233237  12.177   9.720  14.488
77114SOL     OW33238   6.769   4.679   2.756
77114SOL    HW133239   6.688   4.628   2.751
77114SOL    HW233240   6.740   4.767   2.781
77115SOL     OW33241  10.707   9.120   0.374
77115SOL    HW133242  10.796   9.149   0.351
77115SOL    HW233243  10.665   9.102   0.290
77116SOL     OW33244  10.681  11.123  14.153
77116SOL    HW133245  10.742  11.080  14.094
77116SOL    HW233246  10.730  11.197  14.189
77117SOL     OW33247   5.451   1.578   3.547
77117SOL    HW133248   5.518   1.601   3.610
77117SOL    HW233249   5.453   1.649   3.483
77118SOL     OW33250   6.805   6.910   9.138
77118SOL    HW133251   6.726   6.964   9.136
77118SOL    HW233252   6.817   6.883   9.047
77119SOL     OW33253   0.655   3.751   8.300
77119SOL    HW133254   0.740   3.735   8.339
77119SOL    HW233255   0.673   3.759   8.206
77120SOL     OW33256   8.758   5.823  13.682
77120SOL    HW133257   8.852   5.834  13.695
77120SOL    HW233258   8.746   5.835  13.587
77121SOL     OW33259   4.209  12.772   9.761
77121SOL    HW133260   4.245  12.739   9.679
77121SOL    HW233261   4.148  12.841   9.733
77122SOL     OW33262  12.442   9.827  10.974
77122SOL    HW133263  12.481   9.742  10.994
77122SOL    HW233264  12.350   9.818  11.002
77123SOL     OW33265   7.143   8.039  11.160
77123SOL    HW133266   7.237   8.033  11.143
77123SOL    HW233267   7.108   7.954  11.135
77124SOL     OW33268   2.340   9.857  14.084
77124SOL    HW133269   2.331   9.772  14.040
77124SOL    HW233270   2.401   9.906  14.028
77125SOL     OW33271   0.422   3.498   6.883
77125SOL    HW133272   0.392   3.453   6.962
77125SOL    HW233273   0.342   3.532   6.844
77126SOL     OW33274   4.543   5.147   1.415
77126SOL    HW133275   4.542   5.127   1.322
77126SOL    HW233276   4.460   5.192   1.431
77127SOL     OW33277  11.010   8.960  11.999
77127SOL    HW133278  10.945   9.031  12.002
77127SOL    HW233279  11.007   8.921  12.086
77128SOL     OW33280   8.375   6.393  11.237
77128SOL    HW133281   8.372   6.326  11.168
77128SOL    HW233282   8.451   6.370  11.290
77129SOL     OW33283  11.944   8.191   3.765
77129SOL    HW133284  12.002   8.124   3.801
77129SOL    HW233285  11.985   8.216   3.682
77130SOL     OW33286   9.712   8.018   0.514
77130SOL    HW133287   9.680   8.030   0.424
77130SOL    HW233288   9.735   8.106   0.543
77131SOL     OW33289   2.236   6.370   0.996
77131SOL    HW133290   2.232   6.428   1.072
77131SOL    HW233291   2.197   6.288   1.027
77132SOL     OW33292  11.820   7.112   5.168
77132SOL    HW133293  11.735   7.120   5.124
77132SOL    HW233294  11.881   7.162   5.112
77133SOL     OW33295   3.570   2.395   1.990
77133SOL    HW133296   3.594   2.416   2.080
77133SOL    HW233297   3.503   2.460   1.968
77134SOL     OW33298   8.029   1.454   1.048
77134SOL    HW133299   8.055   1.546   1.049
77134SOL    HW233300   7.979   1.445   0.966
77135SOL     OW33301   2.541   4.463   7.570
77135SOL    HW133302   2.524   4.509   7.652
77135SOL    HW233303   2.614   4.511   7.530
77136SOL     OW33304  12.596  10.026   8.311
77136SOL    HW133305  12.603  10.000   8.219
77136SOL    HW233306  12.529   9.967   8.347
77137SOL     OW33307  13.686  11.564   4.492
77137SOL    HW133308  13.609  11.510   4.511
77137SOL    HW233309  13.760  11.510   4.519
77138SOL     OW33310  12.163   0.201   3.631
77138SOL    HW133311  12.141   0.121   3.679
77138SOL    HW233312  12.080   0.231   3.594
77139SOL     OW33313   2.007   6.230   6.076
77139SOL    HW133314   1.994   6.298   6.010
77139SOL    HW233315   1.925   6.228   6.125
77140SOL     OW33316  13.771   5.700   8.273
77140SOL    HW133317  13.680   5.671   8.272
77140SOL    HW233318  13.822   5.618   8.274
77141SOL     OW33319   0.411   7.354   5.121
77141SOL    HW133320   0.436   7.444   5.102
77141SOL    HW233321   0.423   7.344   5.215
77142SOL     OW33322   2.000  12.550   2.677
77142SOL    HW133323   1.945  12.479   2.644
77142SOL    HW233324   2.052  12.511   2.746
77143SOL     OW33325   3.223   7.704   4.379
77143SOL    HW133326   3.282   7.653   4.434
77143SOL    HW233327   3.263   7.791   4.373
77144SOL     OW33328   0.991   9.379   6.657
77144SOL    HW133329   1.067   9.340   6.700
77144SOL    HW233330   0.968   9.317   6.587
77145SOL     OW33331   1.172   0.104   7.586
77145SOL    HW133332   1.133   0.169   7.527
77145SOL    HW233333   1.120   0.110   7.666
77146SOL     OW33334   8.117  10.384   7.450
77146SOL    HW133335   8.172  10.307   7.462
77146SOL    HW233336   8.027  10.351   7.457
77147SOL     OW33337   8.798  10.033   5.621
77147SOL    HW133338   8.866  10.098   5.609
77147SOL    HW233339   8.736  10.073   5.683
77148SOL     OW33340  12.836   3.098  13.508
77148SOL    HW133341  12.873   3.096  13.420
77148SOL    HW233342  12.778   3.023  13.513
77149SOL     OW33343  12.884  12.965   2.434
77149SOL    HW133344  12.980  12.966   2.434
77149SOL    HW233345  12.861  12.980   2.526
77150SOL     OW33346   3.459  10.841   3.462
77150SOL    HW133347   3.410  10.810   3.386
77150SOL    HW233348   3.453  10.769   3.526
77151SOL     OW33349   6.990   3.689   9.341
77151SOL    HW133350   7.030   3.749   9.279
77151SOL    HW233351   7.004   3.602   9.303
77152SOL     OW33352  10.553   1.788  11.441
77152SOL    HW133353  10.520   1.720  11.383
77152SOL    HW233354  10.498   1.782  11.519
77153SOL     OW33355  13.161  13.312  11.476
77153SOL    HW133356  13.213  13.340  11.551
77153SOL    HW233357  13.205  13.351  11.400
77154SOL     OW33358  12.669  14.612   9.326
77154SOL    HW133359  12.690  14.647   9.413
77154SOL    HW233360  12.750  14.570   9.297
77155SOL     OW33361   5.347   2.303   4.223
77155SOL    HW133362   5.353   2.208   4.221
77155SOL    HW233363   5.289   2.322   4.297
77156SOL     OW33364  10.460   9.843   5.587
77156SOL    HW133365  10.372   9.812   5.563
77156SOL    HW233366  10.457   9.937   5.573
77157SOL     OW33367   8.657  13.331   4.861
77157SOL    HW133368   8.567  13.300   4.852
77157SOL    HW233369   8.656  13.385   4.940
77158SOL     OW33370   2.682   2.935  10.043
77158SOL    HW133371   2.710   2.845  10.022
77158SOL    HW233372   2.661   2.973   9.957
77159SOL     OW33373   2.111   2.134   2.191
77159SOL    HW133374   2.102   2.130   2.286
77159SOL    HW233375   2.180   2.198   2.176
77160SOL     OW33376   1.249  13.354  11.393
77160SOL    HW133377   1.156  13.351  11.371
77160SOL    HW233378   1.278  13.263  11.387
77161SOL     OW33379   8.898   0.838   0.643
77161SOL    HW133380   8.869   0.799   0.725
77161SOL    HW233381   8.993   0.843   0.650
77162SOL     OW33382   9.740   4.288   9.919
77162SOL    HW133383   9.715   4.302   9.828
77162SOL    HW233384   9.660   4.303   9.969
77163SOL     OW33385   0.067  14.540   5.454
77163SOL    HW133386   0.007  14.613   5.440
77163SOL    HW233387   0.147  14.565   5.408
77164SOL     OW33388   6.296  14.559   2.864
77164SOL    HW133389   6.255  14.605   2.938
77164SOL    HW233390   6.315  14.628   2.801
77165SOL     OW33391   9.707   5.427   0.432
77165SOL    HW133392   9.656   5.498   0.472
77165SOL    HW233393   9.756   5.388   0.504
77166SOL     OW33394   1.688   9.257   1.688
77166SOL    HW133395   1.624   9.188   1.708
77166SOL    HW233396   1.760   9.241   1.748
77167SOL     OW33397   0.333  10.388  10.111
77167SOL    HW133398   0.338  10.478  10.142
77167SOL    HW233399   0.384  10.387  10.029
77168SOL     OW33400   2.181   7.592   1.001
77168SOL    HW133401   2.137   7.508   0.992
77168SOL    HW233402   2.185   7.607   1.095
77169SOL     OW33403   7.695   8.908   0.389
77169SOL    HW133404   7.742   8.990   0.408
77169SOL    HW233405   7.621   8.907   0.450
77170SOL     OW33406   0.750   7.272   7.338
77170SOL    HW133407   0.744   7.178   7.357
77170SOL    HW233408   0.668   7.293   7.294
77171SOL     OW33409  13.908  10.055   0.257
77171SOL    HW133410  13.890  10.104   0.337
77171SOL    HW233411  14.004  10.056   0.250
77172SOL     OW33412   8.698   8.677  12.145
77172SOL    HW133413   8.690   8.767  12.113
77172SOL    HW233414   8.792   8.663  12.154
77173SOL     OW33415   8.996   1.776   2.714
77173SOL    HW133416   8.963   1.815   2.795
77173SOL    HW233417   9.086   1.810   2.707
77174SOL     OW33418  11.801  13.229  11.659
77174SOL    HW133419  11.757  13.196  11.737
77174SOL    HW233420  11.846  13.152  11.623
77175SOL     OW33421   9.814  10.974   2.520
77175SOL    HW133422   9.822  10.889   2.564
77175SOL    HW233423   9.738  10.964   2.464
77176SOL     OW33424   5.751   9.942   5.756
77176SOL    HW133425   5.742   9.984   5.671
77176SOL    HW233426   5.832   9.891   5.749
77177SOL     OW33427  14.122  14.421   4.787
77177SOL    HW133428  14.070  14.366   4.729
77177SOL    HW233429  14.108  14.383   4.874
77178SOL     OW33430   5.567   7.189  13.807
77178SOL    HW133431   5.589   7.170  13.715
77178SOL    HW233432   5.478   7.154  13.818
77179SOL     OW33433   2.690   8.803   9.609
77179SOL    HW133434   2.676   8.816   9.703
77179SOL    HW233435   2.610   8.834   9.568
77180SOL     OW33436   1.598   1.198  10.095
77180SOL    HW133437   1.663   1.268  10.089
77180SOL    HW233438   1.625   1.147  10.171
77181SOL     OW33439   9.450   6.171  11.462
77181SOL    HW133440   9.485   6.136  11.544
77181SOL    HW233441   9.355   6.170  11.474
77182SOL     OW33442   3.284   7.067  11.066
77182SOL    HW133443   3.330   6.983  11.071
77182SOL    HW233444   3.191   7.043  11.068
77183SOL     OW33445  13.361  12.477   8.698
77183SOL    HW133446  13.295  12.506   8.761
77183SOL    HW233447  13.372  12.551   8.639
77184SOL     OW33448   5.970   1.731   9.894
77184SOL    HW133449   6.060   1.726   9.927
77184SOL    HW233450   5.933   1.645   9.911
77185SOL     OW33451   9.884   2.169   1.454
77185SOL    HW133452   9.847   2.253   1.430
77185SOL    HW233453   9.857   2.109   1.384
77186SOL     OW33454  13.944   1.268  11.438
77186SOL    HW133455  13.903   1.219  11.367
77186SOL    HW233456  14.008   1.208  11.475
77187SOL     OW33457  13.902  14.251   5.498
77187SOL    HW133458  13.835  14.284   5.437
77187SOL    HW233459  13.968  14.213   5.441
77188SOL     OW33460   3.199  10.625   2.705
77188SOL    HW133461   3.166  10.711   2.730
77188SOL    HW233462   3.122  10.580   2.669
77189SOL     OW33463   2.076   7.408  10.895
77189SOL    HW133464   2.168   7.432  10.881
77189SOL    HW233465   2.068   7.402  10.990
77190SOL     OW33466  12.375   9.276   1.577
77190SOL    HW133467  12.302   9.218   1.600
77190SOL    HW233468  12.365   9.291   1.483
77191SOL     OW33469  11.301   6.778   5.964
77191SOL    HW133470  11.255   6.772   5.880
77191SOL    HW233471  11.232   6.790   6.028
77192SOL     OW33472  12.849   4.479   3.055
77192SOL    HW133473  12.851   4.404   2.994
77192SOL    HW233474  12.823   4.441   3.139
77193SOL     OW33475  10.787   6.171   4.658
77193SOL    HW133476  10.836   6.095   4.625
77193SOL    HW233477  10.735   6.137   4.731
77194SOL     OW33478   2.243   2.890  10.495
77194SOL    HW133479   2.242   2.983  10.517
77194SOL    HW233480   2.323   2.877  10.445
77195SOL     OW33481   4.080   7.122   7.234
77195SOL    HW133482   4.106   7.210   7.205
77195SOL    HW233483   4.039   7.137   7.319
77196SOL     OW33484   4.069   6.952  13.935
77196SOL    HW133485   4.049   7.013  13.864
77196SOL    HW233486   4.080   6.868  13.892
77197SOL     OW33487   1.882   1.234   2.385
77197SOL    HW133488   1.854   1.221   2.295
77197SOL    HW233489   1.977   1.233   2.382
77198SOL     OW33490  14.619   7.070  12.765
77198SOL    HW133491  14.621   7.143  12.703
77198SOL    HW233492  14.647   7.109  12.848
77199SOL     OW33493  10.797   7.137   8.876
77199SOL    HW133494  10.799   7.207   8.810
77199SOL    HW233495  10.805   7.182   8.959
77200SOL     OW33496   5.206   1.730   0.809
77200SOL    HW133497   5.280   1.752   0.866
77200SOL    HW233498   5.147   1.805   0.817
77201SOL     OW33499   7.666   7.303  12.755
77201SOL    HW133500   7.663   7.397  12.773
77201SOL    HW233501   7.578   7.283  12.723
77202SOL     OW33502   2.491   5.273   4.452
77202SOL    HW133503   2.544   5.207   4.408
77202SOL    HW233504   2.510   5.355   4.406
77203SOL     OW33505   8.410   9.276   4.111
77203SOL    HW133506   8.405   9.246   4.020
77203SOL    HW233507   8.376   9.202   4.162
77204SOL     OW33508   3.667   3.105  14.317
77204SOL    HW133509   3.676   3.191  14.357
77204SOL    HW233510   3.721   3.048  14.371
77205SOL     OW33511  11.498   7.355  12.927
77205SOL    HW133512  11.507   7.260  12.934
77205SOL    HW233513  11.409   7.374  12.957
77206SOL     OW33514  13.407   3.419  12.472
77206SOL    HW133515  13.464   3.491  12.445
77206SOL    HW233516  13.456   3.375  12.541
77207SOL     OW33517  11.757  13.514   9.651
77207SOL    HW133518  11.810  13.484   9.725
77207SOL    HW233519  11.816  13.512   9.576
77208SOL     OW33520   3.890   9.632   6.528
77208SOL    HW133521   3.962   9.577   6.497
77208SOL    HW233522   3.896   9.628   6.623
77209SOL     OW33523   1.555   6.624  13.723
77209SOL    HW133524   1.518   6.700  13.768
77209SOL    HW233525   1.649   6.640  13.724
77210SOL     OW33526  11.318   8.092   5.005
77210SOL    HW133527  11.408   8.098   4.973
77210SOL    HW233528  11.300   8.179   5.040
77211SOL     OW33529   1.464   5.953   2.360
77211SOL    HW133530   1.552   5.940   2.325
77211SOL    HW233531   1.456   6.048   2.368
77212SOL     OW33532  13.092   5.445   8.264
77212SOL    HW133533  13.154   5.380   8.229
77212SOL    HW233534  13.135   5.529   8.250
77213SOL     OW33535  13.638   1.365   3.254
77213SOL    HW133536  13.712   1.304   3.263
77213SOL    HW233537  13.620   1.367   3.160
77214SOL     OW33538   3.592   7.991   9.466
77214SOL    HW133539   3.574   8.058   9.401
77214SOL    HW233540   3.622   8.039   9.543
77215SOL     OW33541   4.142  13.125   8.503
77215SOL    HW133542   4.128  13.215   8.532
77215SOL    HW233543   4.115  13.126   8.411
77216SOL     OW33544   4.146   8.883  13.222
77216SOL    HW133545   4.229   8.837  13.214
77216SOL    HW233546   4.167   8.962  13.271
77217SOL     OW33547  13.789   8.059  12.189
77217SOL    HW133548  13.844   7.996  12.236
77217SOL    HW233549  13.829   8.067  12.103
77218SOL     OW33550   6.492   5.505  10.642
77218SOL    HW133551   6.403   5.489  10.611
77218SOL    HW233552   6.541   5.527  10.563
77219SOL     OW33553  11.696   3.610  14.343
77219SOL    HW133554  11.672   3.601  14.251
77219SOL    HW233555  11.717   3.702  14.354
77220SOL     OW33556   2.278   6.813   0.042
77220SOL    HW133557   2.199   6.760   0.030
77220SOL    HW233558   2.251   6.881   0.105
77221SOL     OW33559   3.371   4.672  14.366
77221SOL    HW133560   3.307   4.697  14.433
77221SOL    HW233561   3.389   4.753  14.318
77222SOL     OW33562   2.632   8.848  11.081
77222SOL    HW133563   2.591   8.868  10.997
77222SOL    HW233564   2.704   8.911  11.088
77223SOL     OW33565  14.034   4.124   7.791
77223SOL    HW133566  14.005   4.161   7.874
77223SOL    HW233567  14.039   4.030   7.807
77224SOL     OW33568   9.556  12.997  10.116
77224SOL    HW133569   9.542  13.088  10.141
77224SOL    HW233570   9.623  13.001  10.048
77225SOL     OW33571   4.292   1.185   9.127
77225SOL    HW133572   4.379   1.147   9.139
77225SOL    HW233573   4.262   1.152   9.042
77226SOL     OW33574   4.104   0.263  11.018
77226SOL    HW133575   4.141   0.348  10.992
77226SOL    HW233576   4.029   0.252  10.960
77227SOL     OW33577   3.440   5.254   7.840
77227SOL    HW133578   3.364   5.307   7.816
77227SOL    HW233579   3.464   5.209   7.759
77228SOL     OW33580   8.408  10.365   9.647
77228SOL    HW133581   8.459  10.376   9.728
77228SOL    HW233582   8.380  10.273   9.650
77229SOL     OW33583   3.142   5.250  10.276
77229SOL    HW133584   3.128   5.197  10.197
77229SOL    HW233585   3.179   5.332  10.242
77230SOL     OW33586   8.283   7.951  12.538
77230SOL    HW133587   8.220   7.914  12.476
77230SOL    HW233588   8.238   8.027  12.576
77231SOL     OW33589   3.107  11.125   0.538
77231SOL    HW133590   3.112  11.036   0.503
77231SOL    HW233591   3.134  11.117   0.629
77232SOL     OW33592   6.103   8.351   1.621
77232SOL    HW133593   6.120   8.386   1.708
77232SOL    HW233594   6.010   8.326   1.623
77233SOL     OW33595   2.552  10.368  10.165
77233SOL    HW133596   2.541  10.314  10.244
77233SOL    HW233597   2.597  10.446  10.196
77234SOL     OW33598  11.989   5.403  10.724
77234SOL    HW133599  11.926   5.364  10.664
77234SOL    HW233600  12.015   5.330  10.781
77235SOL     OW33601  12.567   3.069   4.343
77235SOL    HW133602  12.475   3.078   4.316
77235SOL    HW233603  12.600   2.996   4.290
77236SOL     OW33604  11.936   2.111   5.288
77236SOL    HW133605  11.875   2.158   5.343
77236SOL    HW233606  11.950   2.168   5.212
77237SOL     OW33607   5.180   5.380   4.538
77237SOL    HW133608   5.108   5.386   4.601
77237SOL    HW233609   5.136   5.378   4.453
77238SOL     OW33610  12.810   5.754   0.580
77238SOL    HW133611  12.761   5.780   0.658
77238SOL    HW233612  12.758   5.788   0.507
77239SOL     OW33613   0.227   9.927   8.204
77239SOL    HW133614   0.186   9.895   8.124
77239SOL    HW233615   0.316   9.951   8.178
77240SOL     OW33616   5.353   0.279   1.646
77240SOL    HW133617   5.312   0.366   1.640
77240SOL    HW233618   5.300   0.224   1.589
77241SOL     OW33619   1.552   8.376   5.151
77241SOL    HW133620   1.556   8.316   5.226
77241SOL    HW233621   1.641   8.375   5.116
77242SOL     OW33622   6.827   9.139   8.798
77242SOL    HW133623   6.898   9.094   8.844
77242SOL    HW233624   6.848   9.232   8.807
77243SOL     OW33625   6.913  11.072   8.780
77243SOL    HW133626   6.986  11.110   8.731
77243SOL    HW233627   6.861  11.147   8.808
77244SOL     OW33628   9.907   6.020  13.920
77244SOL    HW133629   9.832   5.994  13.974
77244SOL    HW233630   9.983   5.982  13.965
77245SOL     OW33631   7.580  10.486   6.031
77245SOL    HW133632   7.642  10.494   6.103
77245SOL    HW233633   7.619  10.537   5.960
77246SOL     OW33634  13.838   0.785  11.880
77246SOL    HW133635  13.911   0.727  11.857
77246SOL    HW233636  13.820   0.833  11.800
77247SOL     OW33637   3.582   6.236   3.301
77247SOL    HW133638   3.580   6.322   3.342
77247SOL    HW233639   3.549   6.177   3.369
77248SOL     OW33640  11.753   5.285  11.981
77248SOL    HW133641  11.687   5.308  12.045
77248SOL    HW233642  11.796   5.207  12.018
77249SOL     OW33643   2.495   7.848   0.665
77249SOL    HW133644   2.455   7.775   0.712
77249SOL    HW233645   2.431   7.871   0.598
77250SOL     OW33646  11.074   5.700   2.145
77250SOL    HW133647  11.069   5.734   2.055
77250SOL    HW233648  11.009   5.751   2.193
77251SOL     OW33649   8.797   1.056  14.427
77251SOL    HW133650   8.702   1.045  14.423
77251SOL    HW233651   8.831   0.986  14.371
77252SOL     OW33652   4.122  10.923   5.975
77252SOL    HW133653   4.040  10.944   5.930
77252SOL    HW233654   4.097  10.863   6.044
77253SOL     OW33655  13.308   9.718   0.414
77253SOL    HW133656  13.250   9.669   0.355
77253SOL    HW233657  13.249   9.752   0.482
77254SOL     OW33658   8.899  14.163   2.750
77254SOL    HW133659   8.885  14.149   2.656
77254SOL    HW233660   8.956  14.091   2.777
77255SOL     OW33661  10.061  14.606   5.909
77255SOL    HW133662  10.102  14.584   5.993
77255SOL    HW233663   9.969  14.623   5.931
77256SOL     OW33664   5.344   1.834   8.363
77256SOL    HW133665   5.329   1.742   8.386
77256SOL    HW233666   5.327   1.882   8.444
77257SOL     OW33667   6.590   3.583  10.054
77257SOL    HW133668   6.510   3.589  10.106
77257SOL    HW233669   6.563   3.536   9.975
77258SOL     OW33670   6.923   4.567   6.703
77258SOL    HW133671   7.007   4.555   6.747
77258SOL    HW233672   6.897   4.479   6.675
77259SOL     OW33673   8.626   8.342  14.397
77259SOL    HW133674   8.703   8.399  14.402
77259SOL    HW233675   8.552   8.402  14.392
77260SOL     OW33676   0.104  10.056  11.198
77260SOL    HW133677   0.133  10.072  11.288
77260SOL    HW233678   0.073  10.141  11.167
77261SOL     OW33679   9.259   8.558  14.818
77261SOL    HW133680   9.339   8.544  14.868
77261SOL    HW233681   9.253   8.483  14.759
77262SOL     OW33682   4.659   4.490   8.882
77262SOL    HW133683   4.592   4.478   8.949
77262SOL    HW233684   4.615   4.539   8.813
77263SOL     OW33685   4.226   3.631  12.549
77263SOL    HW133686   4.146   3.585  12.522
77263SOL    HW233687   4.204   3.669  12.634
77264SOL     OW33688   7.857   0.581  11.315
77264SOL    HW133689   7.812   0.540  11.241
77264SOL    HW233690   7.787   0.623  11.365
77265SOL     OW33691  12.738  11.581   7.722
77265SOL    HW133692  12.817  11.545   7.683
77265SOL    HW233693  12.667  11.527   7.688
77266SOL     OW33694   5.658   9.272  11.749
77266SOL    HW133695   5.745   9.235  11.732
77266SOL    HW233696   5.639   9.249  11.840
77267SOL     OW33697   0.667   2.109   7.502
77267SOL    HW133698   0.733   2.059   7.551
77267SOL    HW233699   0.589   2.053   7.505
77268SOL     OW33700   2.125   7.822  13.591
77268SOL    HW133701   2.217   7.817  13.617
77268SOL    HW233702   2.121   7.776  13.507
77269SOL     OW33703   5.273   9.702   9.498
77269SOL    HW133704   5.265   9.674   9.406
77269SOL    HW233705   5.263   9.797   9.495
77270SOL     OW33706   1.084   0.716   3.349
77270SOL    HW133707   1.071   0.688   3.440
77270SOL    HW233708   1.177   0.739   3.344
77271SOL     OW33709  14.617   8.411   1.808
77271SOL    HW133710  14.539   8.359   1.828
77271SOL    HW233711  14.690   8.350   1.816
77272SOL     OW33712   3.165   4.422  14.501
77272SOL    HW133713   3.184   4.334  14.534
77272SOL    HW233714   3.163   4.412  14.406
77273SOL     OW33715   2.939  10.332   0.354
77273SOL    HW133716   2.851  10.331   0.392
77273SOL    HW233717   2.927  10.300   0.265
77274SOL     OW33718   2.441   7.326   8.949
77274SOL    HW133719   2.374   7.259   8.968
77274SOL    HW233720   2.480   7.344   9.035
77275SOL     OW33721   3.178   0.526   9.486
77275SOL    HW133722   3.255   0.582   9.499
77275SOL    HW233723   3.191   0.485   9.400
77276SOL     OW33724   8.415   9.507   4.711
77276SOL    HW133725   8.447   9.424   4.677
77276SOL    HW233726   8.366   9.546   4.639
77277SOL     OW33727   5.024  11.175   5.431
77277SOL    HW133728   5.028  11.097   5.487
77277SOL    HW233729   4.967  11.150   5.359
77278SOL     OW33730  11.516   6.577   5.081
77278SOL    HW133731  11.581   6.565   5.011
77278SOL    HW233732  11.480   6.664   5.065
77279SOL     OW33733   2.223   1.573  13.314
77279SOL    HW133734   2.199   1.636  13.246
77279SOL    HW233735   2.144   1.521  13.326
77280SOL     OW33736   3.272  14.690   5.246
77280SOL    HW133737   3.324  14.676   5.167
77280SOL    HW233738   3.313  14.634   5.312
77281SOL     OW33739  11.305   4.891  13.546
77281SOL    HW133740  11.383   4.859  13.592
77281SOL    HW233741  11.317   4.864  13.455
77282SOL     OW33742   4.042   3.242   0.584
77282SOL    HW133743   4.004   3.284   0.507
77282SOL    HW233744   3.980   3.261   0.655
77283SOL     OW33745   7.534   6.358   7.571
77283SOL    HW133746   7.441   6.380   7.559
77283SOL    HW233747   7.563   6.333   7.483
77284SOL     OW33748   6.933  13.715   9.807
77284SOL    HW133749   6.980  13.646   9.855
77284SOL    HW233750   6.848  13.720   9.850
77285SOL     OW33751  13.046   3.687  12.408
77285SOL    HW133752  13.117   3.749  12.395
77285SOL    HW233753  13.021   3.697  12.500
77286SOL     OW33754  12.089   2.193  13.940
77286SOL    HW133755  12.055   2.203  14.029
77286SOL    HW233756  12.015   2.159  13.890
77287SOL     OW33757  14.496   3.030   7.023
77287SOL    HW133758  14.458   3.075   6.947
77287SOL    HW233759  14.563   3.089   7.055
77288SOL     OW33760  12.302  11.636   5.658
77288SOL    HW133761  12.285  11.555   5.706
77288SOL    HW233762  12.287  11.614   5.566
77289SOL     OW33763  14.468  11.640   4.764
77289SOL    HW133764  14.397  11.687   4.720
77289SOL    HW233765  14.428  11.605   4.843
77290SOL     OW33766  12.418   9.495  12.386
77290SOL    HW133767  12.412   9.401  12.404
77290SOL    HW233768  12.432   9.535  12.472
77291SOL     OW33769  11.320   9.493   3.727
77291SOL    HW133770  11.345   9.526   3.641
77291SOL    HW233771  11.350   9.402   3.729
77292SOL     OW33772  13.862  12.730  14.167
77292SOL    HW133773  13.801  12.700  14.100
77292SOL    HW233774  13.935  12.668  14.164
77293SOL     OW33775   9.886   1.139   4.361
77293SOL    HW133776   9.826   1.076   4.321
77293SOL    HW233777   9.836   1.175   4.434
77294SOL     OW33778  12.639   6.174   6.904
77294SOL    HW133779  12.623   6.214   6.819
77294SOL    HW233780  12.666   6.084   6.883
77295SOL     OW33781   2.951  12.522   1.943
77295SOL    HW133782   2.880  12.464   1.967
77295SOL    HW233783   2.965  12.576   2.021
77296SOL     OW33784   1.714   5.331  10.754
77296SOL    HW133785   1.751   5.244  10.772
77296SOL    HW233786   1.622   5.313  10.731
77297SOL     OW33787   5.463   3.553   8.527
77297SOL    HW133788   5.368   3.561   8.524
77297SOL    HW233789   5.494   3.643   8.539
77298SOL     OW33790  11.565  10.666   7.449
77298SOL    HW133791  11.539  10.689   7.538
77298SOL    HW233792  11.592  10.574   7.455
77299SOL     OW33793  14.090   1.049  11.838
77299SOL    HW133794  14.178   1.018  11.818
77299SOL    HW233795  14.069   1.110  11.767
77300SOL     OW33796   1.255   0.704   4.049
77300SOL    HW133797   1.231   0.636   4.112
77300SOL    HW233798   1.316   0.760   4.096
77301SOL     OW33799   5.746   4.288   8.369
77301SOL    HW133800   5.782   4.219   8.313
77301SOL    HW233801   5.652   4.287   8.350
77302SOL     OW33802   7.984  10.500   9.820
77302SOL    HW133803   8.076  10.490   9.796
77302SOL    HW233804   7.937  10.445   9.757
77303SOL     OW33805   7.882   0.338   8.068
77303SOL    HW133806   7.976   0.342   8.049
77303SOL    HW233807   7.853   0.429   8.065
77304SOL     OW33808   4.769   6.000  13.395
77304SOL    HW133809   4.798   5.915  13.361
77304SOL    HW233810   4.778   5.991  13.490
77305SOL     OW33811  13.638   8.507  11.178
77305SOL    HW133812  13.552   8.545  11.164
77305SOL    HW233813  13.644   8.436  11.114
77306SOL     OW33814  11.938   8.986  14.165
77306SOL    HW133815  11.965   9.017  14.252
77306SOL    HW233816  11.965   8.894  14.163
77307SOL     OW33817   5.770   9.891   6.855
77307SOL    HW133818   5.821   9.810   6.853
77307SOL    HW233819   5.759   9.914   6.762
77308SOL     OW33820  12.620   5.602  11.511
77308SOL    HW133821  12.535   5.560  11.514
77308SOL    HW233822  12.627   5.637  11.422
77309SOL     OW33823  12.158  12.333   8.876
77309SOL    HW133824  12.169  12.393   8.950
77309SOL    HW233825  12.183  12.384   8.799
77310SOL     OW33826   4.695   5.936   1.012
77310SOL    HW133827   4.638   5.970   1.081
77310SOL    HW233828   4.771   5.901   1.058
77311SOL     OW33829   1.834  12.644   0.226
77311SOL    HW133830   1.852  12.555   0.194
77311SOL    HW233831   1.886  12.651   0.306
77312SOL     OW33832  11.057   8.267  12.028
77312SOL    HW133833  11.038   8.177  12.000
77312SOL    HW233834  10.985   8.319  11.993
77313SOL     OW33835   3.544   0.825   6.444
77313SOL    HW133836   3.640   0.825   6.437
77313SOL    HW233837   3.513   0.861   6.361
77314SOL     OW33838   5.921   5.914  11.493
77314SOL    HW133839   5.909   5.904  11.399
77314SOL    HW233840   5.880   5.997  11.514
77315SOL     OW33841   3.788  11.986   5.943
77315SOL    HW133842   3.781  11.953   5.853
77315SOL    HW233843   3.869  11.948   5.976
77316SOL     OW33844  13.325   4.250   2.580
77316SOL    HW133845  13.409   4.289   2.555
77316SOL    HW233846  13.281   4.232   2.497
77317SOL     OW33847   9.375   6.009   3.498
77317SOL    HW133848   9.391   6.101   3.477
77317SOL    HW233849   9.448   5.984   3.554
77318SOL     OW33850   3.190  12.573  13.719
77318SOL    HW133851   3.133  12.649  13.714
77318SOL    HW233852   3.276  12.606  13.692
77319SOL     OW33853   2.602   4.635   9.747
77319SOL    HW133854   2.625   4.638   9.840
77319SOL    HW233855   2.562   4.721   9.730
77320SOL     OW33856   6.727   4.241  12.443
77320SOL    HW133857   6.757   4.325  12.410
77320SOL    HW233858   6.735   4.248  12.538
77321SOL     OW33859   3.822   8.671  11.423
77321SOL    HW133860   3.891   8.727  11.458
77321SOL    HW233861   3.798   8.712  11.340
77322SOL     OW33862   4.515   6.449   6.224
77322SOL    HW133863   4.501   6.365   6.267
77322SOL    HW233864   4.603   6.444   6.189
77323SOL     OW33865  10.190   3.660  13.879
77323SOL    HW133866  10.277   3.622  13.864
77323SOL    HW233867  10.148   3.600  13.941
77324SOL     OW33868  14.344  10.987   4.708
77324SOL    HW133869  14.437  10.968   4.724
77324SOL    HW233870  14.298  10.915   4.751
77325SOL     OW33871   3.962   5.513   3.786
77325SOL    HW133872   3.949   5.462   3.866
77325SOL    HW233873   3.896   5.582   3.791
77326SOL     OW33874  11.857   2.306  11.574
77326SOL    HW133875  11.909   2.357  11.511
77326SOL    HW233876  11.802   2.371  11.618
77327SOL     OW33877   8.704  14.643   8.772
77327SOL    HW133878   8.754  14.609   8.847
77327SOL    HW233879   8.704  14.738   8.784
77328SOL     OW33880   5.225   5.919  13.741
77328SOL    HW133881   5.311   5.887  13.713
77328SOL    HW233882   5.230   5.920  13.836
77329SOL     OW33883   3.278   9.276  12.626
77329SOL    HW133884   3.266   9.181  12.629
77329SOL    HW233885   3.191   9.310  12.602
77330SOL     OW33886   4.636   1.911  11.208
77330SOL    HW133887   4.668   2.001  11.220
77330SOL    HW233888   4.595   1.912  11.121
77331SOL     OW33889  13.422  14.853  12.757
77331SOL    HW133890  13.439   0.072  12.721
77331SOL    HW233891  13.433  14.864  12.851
77332SOL     OW33892   9.529   7.064   0.348
77332SOL    HW133893   9.517   7.052   0.443
77332SOL    HW233894   9.616   7.027   0.331
77333SOL     OW33895   8.098  10.052  12.320
77333SOL    HW133896   8.048  10.042  12.239
77333SOL    HW233897   8.151   9.973  12.326
77334SOL     OW33898  12.670   2.364   6.019
77334SOL    HW133899  12.638   2.335   6.105
77334SOL    HW233900  12.713   2.287   5.982
77335SOL     OW33901   8.928   7.410   9.045
77335SOL    HW133902   8.834   7.398   9.063
77335SOL    HW233903   8.944   7.501   9.070
77336SOL     OW33904   9.902  11.160   9.931
77336SOL    HW133905   9.968  11.190   9.868
77336SOL    HW233906   9.820  11.163   9.882
77337SOL     OW33907   0.502   6.767   1.699
77337SOL    HW133908   0.498   6.775   1.794
77337SOL    HW233909   0.411   6.756   1.672
77338SOL     OW33910  12.041   7.218   7.322
77338SOL    HW133911  11.993   7.143   7.358
77338SOL    HW233912  12.117   7.178   7.280
77339SOL     OW33913  14.572   5.348   2.242
77339SOL    HW133914  14.557   5.279   2.307
77339SOL    HW233915  14.485   5.386   2.227
77340SOL     OW33916   1.338   0.610   2.220
77340SOL    HW133917   1.420   0.643   2.183
77340SOL    HW233918   1.349   0.515   2.220
77341SOL     OW33919  12.265  14.838  11.116
77341SOL    HW133920  12.237  14.822  11.026
77341SOL    HW233921  12.313   0.053  11.113
77342SOL     OW33922   9.782  13.002   7.619
77342SOL    HW133923   9.760  13.059   7.545
77342SOL    HW233924   9.720  12.930   7.613
77343SOL     OW33925   9.935   8.966   2.381
77343SOL    HW133926   9.910   9.047   2.425
77343SOL    HW233927   9.970   8.910   2.451
77344SOL     OW33928  11.466   2.156  14.765
77344SOL    HW133929  11.397   2.221  14.777
77344SOL    HW233930  11.444   2.086  14.828
77345SOL     OW33931   9.384   5.954   7.205
77345SOL    HW133932   9.414   5.898   7.134
77345SOL    HW233933   9.324   5.899   7.256
77346SOL     OW33934  14.004   2.550  11.943
77346SOL    HW133935  13.971   2.581  12.027
77346SOL    HW233936  14.095   2.528  11.959
77347SOL     OW33937   3.055   3.252  14.728
77347SOL    HW133938   3.049   3.340  14.765
77347SOL    HW233939   2.969   3.236  14.688
77348SOL     OW33940  13.250  14.768   8.428
77348SOL    HW133941  13.185  14.720   8.376
77348SOL    HW233942  13.334  14.744   8.388
77349SOL     OW33943  12.308  14.481   0.316
77349SOL    HW133944  12.401  14.502   0.330
77349SOL    HW233945  12.272  14.561   0.278
77350SOL     OW33946  14.080  12.413  11.496
77350SOL    HW133947  14.156  12.366  11.531
77350SOL    HW233948  14.108  12.505  11.493
77351SOL     OW33949   1.718   4.724  13.260
77351SOL    HW133950   1.789   4.719  13.197
77351SOL    HW233951   1.733   4.806  13.307
77352SOL     OW33952   7.264   4.857  13.316
77352SOL    HW133953   7.281   4.767  13.290
77352SOL    HW233954   7.187   4.851  13.374
77353SOL     OW33955   7.529   7.677   2.839
77353SOL    HW133956   7.621   7.670   2.863
77353SOL    HW233957   7.482   7.675   2.922
77354SOL     OW33958  14.833  10.120   3.993
77354SOL    HW133959  14.758  10.122   3.934
77354SOL    HW233960  14.796  10.098   4.079
77355SOL     OW33961  12.158  11.066  11.963
77355SOL    HW133962  12.226  11.038  12.024
77355SOL    HW233963  12.125  11.148  12.000
77356SOL     OW33964   1.697  10.941  12.772
77356SOL    HW133965   1.624  10.914  12.828
77356SOL    HW233966   1.770  10.954  12.833
77357SOL     OW33967  13.836  13.170   0.795
77357SOL    HW133968  13.811  13.215   0.875
77357SOL    HW233969  13.812  13.231   0.725
77358SOL     OW33970   1.224   0.690  14.682
77358SOL    HW133971   1.250   0.780  14.662
77358SOL    HW233972   1.185   0.696  14.769
77359SOL     OW33973  13.619  12.606   3.821
77359SOL    HW133974  13.619  12.641   3.732
77359SOL    HW233975  13.678  12.664   3.869
77360SOL     OW33976   3.057  10.824  12.240
77360SOL    HW133977   2.999  10.809  12.314
77360SOL    HW233978   3.142  10.787  12.267
77361SOL     OW33979   8.901   1.152   6.597
77361SOL    HW133980   8.815   1.119   6.571
77361SOL    HW233981   8.948   1.161   6.514
77362SOL     OW33982   5.259   9.239   5.766
77362SOL    HW133983   5.264   9.291   5.686
77362SOL    HW233984   5.316   9.164   5.750
77363SOL     OW33985  13.489   2.213   4.465
77363SOL    HW133986  13.552   2.280   4.489
77363SOL    HW233987  13.495   2.207   4.369
77364SOL     OW33988   8.174   4.576   5.094
77364SOL    HW133989   8.087   4.547   5.120
77364SOL    HW233990   8.222   4.496   5.076
77365SOL     OW33991   3.900   2.660   0.524
77365SOL    HW133992   3.960   2.655   0.449
77365SOL    HW233993   3.907   2.751   0.554
77366SOL     OW33994   3.798   2.112   1.038
77366SOL    HW133995   3.865   2.173   1.069
77366SOL    HW233996   3.753   2.084   1.118
77367SOL     OW33997   5.951  10.908   4.142
77367SOL    HW133998   5.923  10.824   4.179
77367SOL    HW233999   5.914  10.974   4.202
77368SOL     OW34000   1.120   4.380   5.391
77368SOL    HW134001   1.129   4.285   5.401
77368SOL    HW234002   1.058   4.406   5.459
77369SOL     OW34003  12.099  12.322   4.362
77369SOL    HW134004  12.158  12.337   4.436
77369SOL    HW234005  12.016  12.298   4.403
77370SOL     OW34006   5.137  12.953  11.566
77370SOL    HW134007   5.069  12.915  11.511
77370SOL    HW234008   5.204  12.885  11.572
77371SOL     OW34009  12.610   5.695   3.302
77371SOL    HW134010  12.631   5.787   3.291
77371SOL    HW234011  12.627   5.678   3.395
77372SOL     OW34012  13.788  10.091   8.296
77372SOL    HW134013  13.848  10.029   8.337
77372SOL    HW234014  13.758  10.045   8.217
77373SOL     OW34015   8.315   4.140   0.592
77373SOL    HW134016   8.338   4.141   0.685
77373SOL    HW234017   8.276   4.054   0.577
77374SOL     OW34018   9.441  14.127   3.522
77374SOL    HW134019   9.436  14.165   3.434
77374SOL    HW234020   9.533  14.105   3.533
77375SOL     OW34021   8.235   2.424   0.453
77375SOL    HW134022   8.212   2.514   0.431
77375SOL    HW234023   8.181   2.403   0.529
77376SOL     OW34024   8.870   0.145  10.485
77376SOL    HW134025   8.778   0.171  10.479
77376SOL    HW234026   8.870   0.052  10.461
77377SOL     OW34027   1.133   7.157   6.499
77377SOL    HW134028   1.117   7.098   6.573
77377SOL    HW234029   1.173   7.101   6.433
77378SOL     OW34030   5.822  10.374   3.421
77378SOL    HW134031   5.788  10.285   3.412
77378SOL    HW234032   5.830  10.387   3.516
77379SOL     OW34033   4.792   7.495   1.422
77379SOL    HW134034   4.762   7.510   1.512
77379SOL    HW234035   4.842   7.414   1.427
77380SOL     OW34036   0.657  12.997  13.233
77380SOL    HW134037   0.589  13.055  13.199
77380SOL    HW234038   0.618  12.910  13.228
77381SOL     OW34039   1.765   7.263  14.490
77381SOL    HW134040   1.782   7.189  14.549
77381SOL    HW234041   1.822   7.247  14.415
77382SOL     OW34042   9.274   5.376  14.712
77382SOL    HW134043   9.241   5.455  14.755
77382SOL    HW234044   9.265   5.307  14.778
77383SOL     OW34045   4.241  11.080  12.285
77383SOL    HW134046   4.151  11.057  12.264
77383SOL    HW234047   4.262  11.026  12.361
77384SOL     OW34048  12.969   3.670   4.847
77384SOL    HW134049  13.006   3.604   4.906
77384SOL    HW234050  12.983   3.635   4.759
77385SOL     OW34051  11.090  14.435   0.703
77385SOL    HW134052  11.007  14.403   0.666
77385SOL    HW234053  11.153  14.365   0.683
77386SOL     OW34054   2.412   4.586  10.708
77386SOL    HW134055   2.329   4.583  10.757
77386SOL    HW234056   2.461   4.510  10.740
77387SOL     OW34057  11.266   5.191  11.036
77387SOL    HW134058  11.322   5.212  10.961
77387SOL    HW234059  11.220   5.111  11.009
77388SOL     OW34060   0.861   0.868  14.696
77388SOL    HW134061   0.883   0.834  14.609
77388SOL    HW234062   0.862   0.963  14.686
77389SOL     OW34063   7.914  12.798  12.832
77389SOL    HW134064   7.823  12.810  12.808
77389SOL    HW234065   7.923  12.842  12.916
77390SOL     OW34066   4.827  11.510  11.572
77390SOL    HW134067   4.821  11.457  11.493
77390SOL    HW234068   4.863  11.593  11.543
77391SOL     OW34069   1.578   9.345  12.717
77391SOL    HW134070   1.623   9.310  12.640
77391SOL    HW234071   1.491   9.370  12.684
77392SOL     OW34072   7.597   7.875   6.449
77392SOL    HW134073   7.582   7.827   6.530
77392SOL    HW234074   7.646   7.952   6.476
77393SOL     OW34075   5.215   6.414  14.769
77393SOL    HW134076   5.164   6.343  14.808
77393SOL    HW234077   5.207   6.400  14.674
77394SOL     OW34078  11.586   3.084  11.266
77394SOL    HW134079  11.597   2.989  11.267
77394SOL    HW234080  11.546   3.105  11.351
77395SOL     OW34081  11.821   3.188  12.884
77395SOL    HW134082  11.864   3.235  12.956
77395SOL    HW234083  11.811   3.099  12.917
77396SOL     OW34084   9.465   2.240   6.380
77396SOL    HW134085   9.372   2.259   6.382
77396SOL    HW234086   9.476   2.165   6.438
77397SOL     OW34087  14.817   5.264   8.597
77397SOL    HW134088  14.854   5.298   8.516
77397SOL    HW234089  14.725   5.291   8.595
77398SOL     OW34090  13.493   3.348   7.609
77398SOL    HW134091  13.458   3.435   7.589
77398SOL    HW234092  13.461   3.292   7.538
77399SOL     OW34093   6.206   2.867   2.972
77399SOL    HW134094   6.221   2.795   2.911
77399SOL    HW234095   6.227   2.946   2.922
77400SOL     OW34096   6.885   1.001   0.189
77400SOL    HW134097   6.884   1.061   0.263
77400SOL    HW234098   6.815   0.938   0.207
77401SOL     OW34099   3.281   9.816   8.686
77401SOL    HW134100   3.223   9.880   8.644
77401SOL    HW234101   3.298   9.852   8.773
77402SOL     OW34102   2.186  13.653   1.293
77402SOL    HW134103   2.243  13.637   1.367
77402SOL    HW234104   2.166  13.566   1.259
77403SOL     OW34105  11.113  13.516   5.026
77403SOL    HW134106  11.171  13.489   4.955
77403SOL    HW234107  11.026  13.487   4.998
77404SOL     OW34108   1.676   1.694   9.711
77404SOL    HW134109   1.583   1.677   9.725
77404SOL    HW234110   1.721   1.627   9.763
77405SOL     OW34111   6.692   2.537   5.016
77405SOL    HW134112   6.681   2.591   4.937
77405SOL    HW234113   6.671   2.596   5.088
77406SOL     OW34114   4.085   8.856  10.851
77406SOL    HW134115   4.100   8.762  10.858
77406SOL    HW234116   4.126   8.894  10.928
77407SOL     OW34117  10.654   8.738   8.901
77407SOL    HW134118  10.692   8.688   8.829
77407SOL    HW234119  10.729   8.760   8.956
77408SOL     OW34120   4.611   4.408  10.154
77408SOL    HW134121   4.641   4.498  10.165
77408SOL    HW234122   4.519   4.411  10.182
77409SOL     OW34123  14.298  11.140   7.598
77409SOL    HW134124  14.284  11.234   7.583
77409SOL    HW234125  14.211  11.105   7.616
77410SOL     OW34126   2.231  13.933   2.398
77410SOL    HW134127   2.181  13.968   2.324
77410SOL    HW234128   2.269  13.852   2.364
77411SOL     OW34129   1.925   1.924   5.780
77411SOL    HW134130   1.938   2.017   5.765
77411SOL    HW234131   1.851   1.900   5.725
77412SOL     OW34132   8.741   8.911  10.774
77412SOL    HW134133   8.824   8.875  10.803
77412SOL    HW234134   8.680   8.889  10.844
77413SOL     OW34135  10.017   0.943   7.463
77413SOL    HW134136  10.035   0.889   7.386
77413SOL    HW234137   9.935   0.907   7.498
77414SOL     OW34138   8.987   0.753  11.352
77414SOL    HW134139   8.973   0.791  11.265
77414SOL    HW234140   8.900   0.727  11.381
77415SOL     OW34141  14.573   4.485  11.222
77415SOL    HW134142  14.528   4.469  11.139
77415SOL    HW234143  14.623   4.406  11.239
77416SOL     OW34144   9.277   7.543  10.317
77416SOL    HW134145   9.335   7.600  10.368
77416SOL    HW234146   9.337   7.483  10.272
77417SOL     OW34147   1.090  12.644  11.307
77417SOL    HW134148   1.069  12.552  11.288
77417SOL    HW234149   1.008  12.680  11.340
77418SOL     OW34150  10.160   3.931   7.159
77418SOL    HW134151  10.182   3.839   7.174
77418SOL    HW234152  10.088   3.948   7.220
77419SOL     OW34153   5.675   4.152   4.901
77419SOL    HW134154   5.727   4.198   4.835
77419SOL    HW234155   5.735   4.139   4.974
77420SOL     OW34156  10.097  11.315  13.926
77420SOL    HW134157  10.097  11.380  13.855
77420SOL    HW234158  10.189  11.304  13.949
77421SOL     OW34159   9.827   4.251   0.544
77421SOL    HW134160   9.833   4.282   0.634
77421SOL    HW234161   9.823   4.331   0.491
77422SOL     OW34162  14.035   9.725   8.092
77422SOL    HW134163  14.130   9.714   8.086
77422SOL    HW234164  14.022   9.773   8.174
77423SOL     OW34165  12.699   8.078   4.661
77423SOL    HW134166  12.692   8.173   4.667
77423SOL    HW234167  12.728   8.050   4.748
77424SOL     OW34168   2.874  14.609   4.599
77424SOL    HW134169   2.910  14.696   4.580
77424SOL    HW234170   2.797  14.603   4.543
77425SOL     OW34171  11.504  14.149  10.432
77425SOL    HW134172  11.417  14.168  10.464
77425SOL    HW234173  11.563  14.198  10.490
77426SOL     OW34174  11.198   5.698   5.337
77426SOL    HW134175  11.196   5.722   5.245
77426SOL    HW234176  11.132   5.629   5.345
77427SOL     OW34177   3.577   9.054  11.724
77427SOL    HW134178   3.670   9.067  11.744
77427SOL    HW234179   3.570   8.960  11.707
77428SOL     OW34180   7.406   9.768   5.269
77428SOL    HW134181   7.465   9.775   5.194
77428SOL    HW234182   7.464   9.772   5.345
77429SOL     OW34183   7.139   9.180   3.199
77429SOL    HW134184   7.194   9.253   3.228
77429SOL    HW234185   7.050   9.216   3.197
77430SOL     OW34186   8.068   0.666   3.473
77430SOL    HW134187   8.105   0.655   3.386
77430SOL    HW234188   7.974   0.675   3.458
77431SOL     OW34189   8.652   1.237   0.235
77431SOL    HW134190   8.581   1.174   0.246
77431SOL    HW234191   8.732   1.184   0.240
77432SOL     OW34192   4.172  13.072   0.647
77432SOL    HW134193   4.101  13.030   0.598
77432SOL    HW234194   4.211  13.134   0.584
77433SOL     OW34195   4.591   0.396   8.598
77433SOL    HW134196   4.532   0.454   8.647
77433SOL    HW234197   4.567   0.409   8.507
77434SOL     OW34198  11.961  12.181   5.654
77434SOL    HW134199  11.885  12.124   5.644
77434SOL    HW234200  11.926  12.260   5.696
77435SOL     OW34201   2.800  12.938   5.700
77435SOL    HW134202   2.784  12.896   5.615
77435SOL    HW234203   2.828  12.866   5.757
77436SOL     OW34204  11.218  13.812   1.033
77436SOL    HW134205  11.219  13.862   1.115
77436SOL    HW234206  11.144  13.753   1.042
77437SOL     OW34207  11.223   1.158   9.514
77437SOL    HW134208  11.203   1.066   9.500
77437SOL    HW234209  11.298   1.158   9.574
77438SOL     OW34210   7.409   0.739   1.301
77438SOL    HW134211   7.400   0.787   1.383
77438SOL    HW234212   7.479   0.676   1.317
77439SOL     OW34213   1.646  14.209   7.266
77439SOL    HW134214   1.705  14.195   7.340
77439SOL    HW234215   1.568  14.158   7.287
77440SOL     OW34216  10.427   1.032   4.941
77440SOL    HW134217  10.336   1.059   4.924
77440SOL    HW234218  10.455   0.993   4.858
77441SOL     OW34219   3.612   7.062   6.626
77441SOL    HW134220   3.604   6.995   6.559
77441SOL    HW234221   3.591   7.017   6.708
77442SOL     OW34222   2.813   9.567   5.993
77442SOL    HW134223   2.808   9.615   6.076
77442SOL    HW234224   2.907   9.559   5.975
77443SOL     OW34225  11.481   0.916   1.496
77443SOL    HW134226  11.397   0.940   1.457
77443SOL    HW234227  11.484   0.967   1.578
77444SOL     OW34228   4.673   4.396   6.607
77444SOL    HW134229   4.646   4.433   6.522
77444SOL    HW234230   4.622   4.446   6.671
77445SOL     OW34231   1.892  12.745  13.355
77445SOL    HW134232   1.843  12.691  13.294
77445SOL    HW234233   1.964  12.689  13.385
77446SOL     OW34234  13.752  11.005   0.212
77446SOL    HW134235  13.792  10.953   0.281
77446SOL    HW234236  13.668  10.961   0.196
77447SOL     OW34237   9.492   1.726   3.208
77447SOL    HW134238   9.460   1.813   3.185
77447SOL    HW234239   9.414   1.672   3.213
77448SOL     OW34240   9.951   9.053   8.259
77448SOL    HW134241   9.985   8.963   8.257
77448SOL    HW234242   9.972   9.083   8.348
77449SOL     OW34243   9.974  13.014  11.538
77449SOL    HW134244  10.065  12.987  11.553
77449SOL    HW234245   9.933  12.937  11.498
77450SOL     OW34246   2.331   5.288   8.591
77450SOL    HW134247   2.312   5.345   8.517
77450SOL    HW234248   2.272   5.319   8.660
77451SOL     OW34249  11.315   2.693   8.146
77451SOL    HW134250  11.394   2.647   8.118
77451SOL    HW234251  11.341   2.739   8.226
77452SOL     OW34252   6.291   8.066   1.290
77452SOL    HW134253   6.287   8.156   1.257
77452SOL    HW234254   6.385   8.048   1.301
77453SOL     OW34255   4.821  13.068   6.782
77453SOL    HW134256   4.833  13.093   6.873
77453SOL    HW234257   4.727  13.050   6.775
77454SOL     OW34258   4.143  13.069   3.792
77454SOL    HW134259   4.124  13.093   3.883
77454SOL    HW234260   4.234  13.039   3.794
77455SOL     OW34261   6.006   1.610  12.715
77455SOL    HW134262   6.058   1.652  12.784
77455SOL    HW234263   5.918   1.646  12.726
77456SOL     OW34264   3.416   0.972   7.824
77456SOL    HW134265   3.379   0.964   7.737
77456SOL    HW234266   3.368   1.043   7.865
77457SOL     OW34267   8.773  10.399  14.752
77457SOL    HW134268   8.854  10.436  14.716
77457SOL    HW234269   8.802  10.329  14.809
77458SOL     OW34270   0.174   6.074   9.081
77458SOL    HW134271   0.193   5.988   9.117
77458SOL    HW234272   0.254   6.100   9.035
77459SOL     OW34273   8.189  11.144  10.760
77459SOL    HW134274   8.116  11.199  10.733
77459SOL    HW234275   8.156  11.054  10.752
77460SOL     OW34276   8.545  11.052   4.290
77460SOL    HW134277   8.451  11.057   4.304
77460SOL    HW234278   8.564  11.116   4.222
77461SOL     OW34279   9.767   3.637   4.014
77461SOL    HW134280   9.832   3.571   3.992
77461SOL    HW234281   9.751   3.683   3.932
77462SOL     OW34282  13.293   7.086   5.378
77462SOL    HW134283  13.288   7.181   5.367
77462SOL    HW234284  13.204   7.060   5.402
77463SOL     OW34285   6.663   8.511   5.929
77463SOL    HW134286   6.579   8.501   5.885
77463SOL    HW234287   6.716   8.439   5.897
77464SOL     OW34288  10.149   7.814   3.286
77464SOL    HW134289  10.112   7.732   3.252
77464SOL    HW234290  10.200   7.849   3.213
77465SOL     OW34291  12.276  14.195   2.584
77465SOL    HW134292  12.241  14.227   2.501
77465SOL    HW234293  12.327  14.118   2.561
77466SOL     OW34294   1.892  12.579   4.551
77466SOL    HW134295   1.983  12.606   4.538
77466SOL    HW234296   1.880  12.581   4.646
77467SOL     OW34297   2.757   9.202   5.466
77467SOL    HW134298   2.816   9.205   5.390
77467SOL    HW234299   2.670   9.216   5.428
77468SOL     OW34300   1.961  11.742   3.762
77468SOL    HW134301   2.055  11.757   3.756
77468SOL    HW234302   1.932  11.737   3.671
77469SOL     OW34303  13.029  11.694   1.744
77469SOL    HW134304  13.070  11.758   1.803
77469SOL    HW234305  13.098  11.629   1.728
77470SOL     OW34306   6.629   4.275  11.622
77470SOL    HW134307   6.620   4.236  11.709
77470SOL    HW234308   6.540   4.301  11.598
77471SOL     OW34309  10.039  12.623   4.868
77471SOL    HW134310  10.032  12.581   4.954
77471SOL    HW234311  10.003  12.711   4.881
77472SOL     OW34312  12.052  12.994   1.518
77472SOL    HW134313  11.987  13.000   1.588
77472SOL    HW234314  12.131  12.962   1.562
77473SOL     OW34315   2.353   6.447   0.658
77473SOL    HW134316   2.393   6.512   0.717
77473SOL    HW234317   2.363   6.364   0.704
77474SOL     OW34318  10.614   0.533   3.960
77474SOL    HW134319  10.528   0.504   3.931
77474SOL    HW234320  10.659   0.560   3.880
77475SOL     OW34321   8.763   9.196  13.661
77475SOL    HW134322   8.825   9.218  13.731
77475SOL    HW234323   8.698   9.140  13.704
77476SOL     OW34324  11.498  14.165   2.313
77476SOL    HW134325  11.546  14.239   2.351
77476SOL    HW234326  11.522  14.091   2.368
77477SOL     OW34327   7.845   4.230   6.131
77477SOL    HW134328   7.924   4.177   6.146
77477SOL    HW234329   7.788   4.174   6.080
77478SOL     OW34330   2.060  14.062  13.846
77478SOL    HW134331   2.092  13.972  13.844
77478SOL    HW234332   2.107  14.103  13.919
77479SOL     OW34333   3.358   3.450   7.768
77479SOL    HW134334   3.286   3.403   7.728
77479SOL    HW234335   3.338   3.543   7.752
77480SOL     OW34336   2.826   6.753   5.602
77480SOL    HW134337   2.823   6.846   5.625
77480SOL    HW234338   2.902   6.746   5.544
77481SOL     OW34339   7.795   0.727   6.611
77481SOL    HW134340   7.791   0.693   6.521
77481SOL    HW234341   7.715   0.693   6.652
77482SOL     OW34342   5.456  10.826   7.001
77482SOL    HW134343   5.456  10.850   6.908
77482SOL    HW234344   5.410  10.742   7.004
77483SOL     OW34345   8.635   3.386   9.134
77483SOL    HW134346   8.642   3.297   9.098
77483SOL    HW234347   8.719   3.402   9.175
77484SOL     OW34348   7.673   0.416   9.866
77484SOL    HW134349   7.763   0.448   9.858
77484SOL    HW234350   7.621   0.474   9.811
77485SOL     OW34351   6.896   1.870   5.133
77485SOL    HW134352   6.897   1.945   5.192
77485SOL    HW234353   6.840   1.896   5.061
77486SOL     OW34354  14.421  13.826  10.103
77486SOL    HW134355  14.407  13.840  10.009
77486SOL    HW234356  14.505  13.868  10.121
77487SOL     OW34357   0.017  13.306   2.613
77487SOL    HW134358   0.037  13.376   2.550
77487SOL    HW234359  14.796  13.279   2.592
77488SOL     OW34360  11.437  14.198  13.301
77488SOL    HW134361  11.462  14.186  13.393
77488SOL    HW234362  11.520  14.193  13.253
77489SOL     OW34363   9.506   3.764   6.935
77489SOL    HW134364   9.585   3.730   6.977
77489SOL    HW234365   9.461   3.686   6.903
77490SOL     OW34366   6.270  13.126   0.200
77490SOL    HW134367   6.349  13.180   0.188
77490SOL    HW234368   6.230  13.161   0.279
77491SOL     OW34369  12.767   7.171   3.727
77491SOL    HW134370  12.823   7.248   3.713
77491SOL    HW234371  12.826   7.105   3.764
77492SOL     OW34372   1.905   6.564   2.658
77492SOL    HW134373   1.894   6.642   2.602
77492SOL    HW234374   1.998   6.561   2.677
77493SOL     OW34375   2.998   1.604   7.495
77493SOL    HW134376   3.083   1.615   7.536
77493SOL    HW234377   2.936   1.597   7.568
77494SOL     OW34378   8.548  10.950   4.738
77494SOL    HW134379   8.614  10.898   4.784
77494SOL    HW234380   8.597  10.999   4.672
77495SOL     OW34381   1.011  14.626   0.214
77495SOL    HW134382   0.994  14.687   0.142
77495SOL    HW234383   1.001  14.679   0.293
77496SOL     OW34384   0.084   5.986   8.268
77496SOL    HW134385   0.117   5.963   8.355
77496SOL    HW234386   0.156   5.966   8.209
77497SOL     OW34387   9.498   2.994   0.332
77497SOL    HW134388   9.425   2.982   0.393
77497SOL    HW234389   9.456   3.011   0.247
77498SOL     OW34390   2.086   1.036   6.453
77498SOL    HW134391   2.020   1.016   6.518
77498SOL    HW234392   2.038   1.076   6.381
77499SOL     OW34393   3.378   7.886   2.473
77499SOL    HW134394   3.389   7.886   2.568
77499SOL    HW234395   3.415   7.802   2.445
77500SOL     OW34396   1.496  11.165  12.485
77500SOL    HW134397   1.424  11.170  12.548
77500SOL    HW234398   1.515  11.257  12.464
77501SOL     OW34399  12.571   6.723  11.858
77501SOL    HW134400  12.628   6.647  11.853
77501SOL    HW234401  12.612   6.788  11.800
77502SOL     OW34402   1.209  14.162   7.604
77502SOL    HW134403   1.153  14.226   7.561
77502SOL    HW234404   1.262  14.125   7.533
77503SOL     OW34405  10.276  11.326   2.056
77503SOL    HW134406  10.267  11.394   2.123
77503SOL    HW234407  10.367  11.333   2.027
77504SOL     OW34408  12.614   2.199  12.770
77504SOL    HW134409  12.551   2.156  12.828
77504SOL    HW234410  12.693   2.147  12.777
77505SOL     OW34411   3.846   5.835   1.212
77505SOL    HW134412   3.842   5.749   1.170
77505SOL    HW234413   3.882   5.893   1.144
77506SOL     OW34414   2.617   5.907   8.340
77506SOL    HW134415   2.658   5.907   8.254
77506SOL    HW234416   2.543   5.967   8.332
77507SOL     OW34417   2.661   9.597   8.345
77507SOL    HW134418   2.567   9.595   8.329
77507SOL    HW234419   2.695   9.657   8.279
77508SOL     OW34420   0.073   3.348   6.089
77508SOL    HW134421   0.101   3.300   6.167
77508SOL    HW234422   0.150   3.349   6.032
77509SOL     OW34423   4.434   3.673   6.235
77509SOL    HW134424   4.386   3.756   6.236
77509SOL    HW234425   4.365   3.607   6.233
77510SOL     OW34426  10.876   7.441   6.962
77510SOL    HW134427  10.935   7.390   7.017
77510SOL    HW234428  10.802   7.462   7.019
77511SOL     OW34429  14.265   2.790  11.339
77511SOL    HW134430  14.189   2.765  11.288
77511SOL    HW234431  14.247   2.880  11.367
77512SOL     OW34432  14.115   9.576   7.465
77512SOL    HW134433  14.045   9.512   7.480
77512SOL    HW234434  14.115   9.631   7.543
77513SOL     OW34435   1.141   0.385  12.893
77513SOL    HW134436   1.101   0.437  12.963
77513SOL    HW234437   1.200   0.325  12.938
77514SOL     OW34438   2.768   6.261   4.597
77514SOL    HW134439   2.798   6.299   4.679
77514SOL    HW234440   2.708   6.191   4.623
77515SOL     OW34441   1.973  13.843   7.457
77515SOL    HW134442   1.915  13.776   7.419
77515SOL    HW234443   2.001  13.895   7.382
77516SOL     OW34444   4.142   7.777  11.341
77516SOL    HW134445   4.221   7.811  11.301
77516SOL    HW234446   4.073   7.793  11.276
77517SOL     OW34447   5.827   2.570   0.873
77517SOL    HW134448   5.757   2.617   0.827
77517SOL    HW234449   5.897   2.635   0.881
77518SOL     OW34450   5.673   6.288   9.928
77518SOL    HW134451   5.659   6.214   9.870
77518SOL    HW234452   5.695   6.361   9.869
77519SOL     OW34453  12.325   6.602   5.197
77519SOL    HW134454  12.248   6.648   5.163
77519SOL    HW234455  12.332   6.524   5.143
77520SOL     OW34456   0.335   7.382   3.759
77520SOL    HW134457   0.336   7.365   3.665
77520SOL    HW234458   0.275   7.316   3.795
77521SOL     OW34459   3.457   8.734  13.874
77521SOL    HW134460   3.519   8.761  13.806
77521SOL    HW234461   3.506   8.742  13.955
77522SOL     OW34462   1.372   4.683   3.904
77522SOL    HW134463   1.307   4.621   3.936
77522SOL    HW234464   1.456   4.639   3.914
77523SOL     OW34465   9.147   7.917  11.259
77523SOL    HW134466   9.193   8.000  11.270
77523SOL    HW234467   9.057   7.942  11.237
77524SOL     OW34468   7.931   6.231  11.831
77524SOL    HW134469   7.896   6.302  11.778
77524SOL    HW234470   7.858   6.169  11.840
77525SOL     OW34471  11.680   1.924  11.713
77525SOL    HW134472  11.611   1.956  11.655
77525SOL    HW234473  11.740   1.998  11.722
77526SOL     OW34474   9.898  12.229   5.898
77526SOL    HW134475   9.863  12.236   5.987
77526SOL    HW234476   9.944  12.145   5.897
77527SOL     OW34477  10.926   0.525  10.746
77527SOL    HW134478  10.900   0.535  10.655
77527SOL    HW234479  10.871   0.586  10.794
77528SOL     OW34480  14.261  14.346   7.582
77528SOL    HW134481  14.327  14.399   7.537
77528SOL    HW234482  14.306  14.312   7.659
77529SOL     OW34483  14.108   3.764  14.738
77529SOL    HW134484  14.064   3.680  14.753
77529SOL    HW234485  14.145   3.757  14.650
77530SOL     OW34486   6.354  10.001  11.980
77530SOL    HW134487   6.411  10.060  11.931
77530SOL    HW234488   6.357  10.035  12.070
77531SOL     OW34489   6.512   3.699   3.739
77531SOL    HW134490   6.543   3.685   3.828
77531SOL    HW234491   6.443   3.634   3.728
77532SOL     OW34492  12.211  11.882   4.036
77532SOL    HW134493  12.249  11.805   3.994
77532SOL    HW234494  12.157  11.923   3.968
77533SOL     OW34495   9.777   2.704   5.345
77533SOL    HW134496   9.728   2.742   5.271
77533SOL    HW234497   9.709   2.668   5.402
77534SOL     OW34498   1.066   4.622   5.778
77534SOL    HW134499   1.153   4.621   5.819
77534SOL    HW234500   1.009   4.660   5.845
77535SOL     OW34501   8.763  10.932   8.700
77535SOL    HW134502   8.772  10.948   8.794
77535SOL    HW234503   8.853  10.921   8.669
77536SOL     OW34504  12.336  10.269  12.503
77536SOL    HW134505  12.274  10.196  12.505
77536SOL    HW234506  12.415  10.232  12.464
77537SOL     OW34507   2.652   5.224   6.904
77537SOL    HW134508   2.659   5.184   6.990
77537SOL    HW234509   2.684   5.314   6.916
77538SOL     OW34510   3.449   3.246   0.127
77538SOL    HW134511   3.392   3.258   0.051
77538SOL    HW234512   3.538   3.253   0.092
77539SOL     OW34513  11.301  10.192  11.711
77539SOL    HW134514  11.360  10.257  11.749
77539SOL    HW234515  11.221  10.199  11.763
77540SOL     OW34516   4.401  14.179   1.395
77540SOL    HW134517   4.471  14.131   1.351
77540SOL    HW234518   4.357  14.114   1.450
77541SOL     OW34519  13.000  10.276   9.464
77541SOL    HW134520  12.959  10.311   9.543
77541SOL    HW234521  13.094  10.281   9.482
77542SOL     OW34522  14.381   1.377  10.130
77542SOL    HW134523  14.317   1.330  10.077
77542SOL    HW234524  14.452   1.314  10.144
77543SOL     OW34525   3.871   8.149  13.281
77543SOL    HW134526   3.805   8.144  13.350
77543SOL    HW234527   3.820   8.157  13.200
77544SOL     OW34528  13.467   8.271  12.783
77544SOL    HW134529  13.448   8.184  12.748
77544SOL    HW234530  13.448   8.264  12.876
77545SOL     OW34531   2.997   1.650   8.234
77545SOL    HW134532   2.923   1.709   8.248
77545SOL    HW234533   2.991   1.587   8.306
77546SOL     OW34534  10.801   6.819   7.910
77546SOL    HW134535  10.778   6.743   7.963
77546SOL    HW234536  10.853   6.783   7.838
77547SOL     OW34537   6.959   5.747   6.757
77547SOL    HW134538   6.998   5.814   6.702
77547SOL    HW234539   6.865   5.756   6.745
77548SOL     OW34540  11.636  11.191   4.320
77548SOL    HW134541  11.671  11.102   4.328
77548SOL    HW234542  11.653  11.231   4.405
77549SOL     OW34543   8.304  11.787   3.024
77549SOL    HW134544   8.220  11.832   3.021
77549SOL    HW234545   8.350  11.826   3.098
77550SOL     OW34546   0.419  11.520   2.814
77550SOL    HW134547   0.404  11.514   2.908
77550SOL    HW234548   0.513  11.532   2.805
77551SOL     OW34549  12.292   0.144  13.486
77551SOL    HW134550  12.333   0.083  13.547
77551SOL    HW234551  12.276   0.223  13.538
77552SOL     OW34552   8.803   9.573  13.122
77552SOL    HW134553   8.737   9.641  13.132
77552SOL    HW234554   8.844   9.592  13.037
77553SOL     OW34555  14.648   8.482  11.520
77553SOL    HW134556  14.606   8.564  11.496
77553SOL    HW234557  14.619   8.465  11.610
77554SOL     OW34558   9.103   3.449   8.325
77554SOL    HW134559   9.117   3.465   8.232
77554SOL    HW234560   9.158   3.514   8.369
77555SOL     OW34561   7.660   7.866  12.323
77555SOL    HW134562   7.705   7.843  12.404
77555SOL    HW234563   7.676   7.959  12.312
77556SOL     OW34564   5.102  12.672   9.813
77556SOL    HW134565   5.129  12.586   9.845
77556SOL    HW234566   5.156  12.687   9.736
77557SOL     OW34567   2.566  14.839   4.184
77557SOL    HW134568   2.486  14.828   4.234
77557SOL    HW234569   2.540   0.021   4.106
77558SOL     OW34570   9.062  10.299  10.618
77558SOL    HW134571   9.084  10.246  10.541
77558SOL    HW234572   9.095  10.386  10.598
77559SOL     OW34573  10.455   7.400  14.382
77559SOL    HW134574  10.429   7.383  14.473
77559SOL    HW234575  10.417   7.486  14.362
77560SOL     OW34576   4.781   0.139   4.996
77560SOL    HW134577   4.841   0.207   4.965
77560SOL    HW234578   4.752   0.169   5.082
77561SOL     OW34579   7.932   9.458   5.842
77561SOL    HW134580   7.851   9.509   5.833
77561SOL    HW234581   7.936   9.405   5.762
77562SOL     OW34582   3.498  14.002  12.060
77562SOL    HW134583   3.485  14.053  12.140
77562SOL    HW234584   3.465  13.915  12.082
77563SOL     OW34585   5.442   9.360   9.270
77563SOL    HW134586   5.503   9.301   9.225
77563SOL    HW234587   5.483   9.379   9.354
77564SOL     OW34588   8.405  13.696   3.664
77564SOL    HW134589   8.360  13.638   3.726
77564SOL    HW234590   8.452  13.758   3.719
77565SOL     OW34591   4.325   7.371   0.658
77565SOL    HW134592   4.334   7.458   0.620
77565SOL    HW234593   4.274   7.384   0.738
77566SOL     OW34594  12.352   7.433   8.563
77566SOL    HW134595  12.427   7.477   8.602
77566SOL    HW234596  12.302   7.400   8.638
77567SOL     OW34597   8.887  10.702   0.029
77567SOL    HW134598   8.963  10.681  14.842
77567SOL    HW234599   8.823  10.738  14.836
77568SOL     OW34600  12.283   6.126   5.635
77568SOL    HW134601  12.313   6.211   5.665
77568SOL    HW234602  12.337   6.063   5.683
77569SOL     OW34603   9.492  14.526   4.358
77569SOL    HW134604   9.578  14.566   4.348
77569SOL    HW234605   9.498  14.476   4.440
77570SOL     OW34606   5.917  10.460   0.728
77570SOL    HW134607   5.897  10.547   0.762
77570SOL    HW234608   5.863  10.401   0.781
77571SOL     OW34609  11.832  12.702   1.262
77571SOL    HW134610  11.817  12.694   1.168
77571SOL    HW234611  11.760  12.756   1.294
77572SOL     OW34612  11.693   6.807  13.693
77572SOL    HW134613  11.659   6.818  13.604
77572SOL    HW234614  11.769   6.750  13.683
77573SOL     OW34615   7.124  14.782   8.613
77573SOL    HW134616   7.181  14.830   8.674
77573SOL    HW234617   7.124  14.692   8.646
77574SOL     OW34618   7.654  10.908  10.302
77574SOL    HW134619   7.562  10.923  10.322
77574SOL    HW234620   7.662  10.814  10.289
77575SOL     OW34621   0.087  14.445   7.943
77575SOL    HW134622   0.046  14.459   8.028
77575SOL    HW234623   0.046  14.365   7.909
77576SOL     OW34624   3.977   0.176   6.584
77576SOL    HW134625   3.974   0.170   6.680
77576SOL    HW234626   4.018   0.261   6.566
77577SOL     OW34627   1.272  11.862  12.872
77577SOL    HW134628   1.340  11.921  12.903
77577SOL    HW234629   1.264  11.881  12.779
77578SOL     OW34630   3.375   7.319   5.575
77578SOL    HW134631   3.436   7.251   5.602
77578SOL    HW234632   3.304   7.272   5.532
77579SOL     OW34633   6.766   5.179   5.831
77579SOL    HW134634   6.825   5.130   5.774
77579SOL    HW234635   6.715   5.112   5.877
77580SOL     OW34636   4.684   0.728  13.263
77580SOL    HW134637   4.625   0.743  13.336
77580SOL    HW234638   4.640   0.768  13.188
77581SOL     OW34639  10.813   7.358  12.311
77581SOL    HW134640  10.890   7.346  12.366
77581SOL    HW234641  10.814   7.284  12.250
77582SOL     OW34642   9.788  13.051  14.057
77582SOL    HW134643   9.791  13.048  13.961
77582SOL    HW234644   9.800  12.960  14.084
77583SOL     OW34645  13.299   2.699  14.018
77583SOL    HW134646  13.335   2.718  13.931
77583SOL    HW234647  13.298   2.784  14.063
77584SOL     OW34648   3.794  10.844   7.633
77584SOL    HW134649   3.823  10.764   7.675
77584SOL    HW234650   3.717  10.872   7.683
77585SOL     OW34651   4.180   3.435   9.364
77585SOL    HW134652   4.139   3.490   9.297
77585SOL    HW234653   4.117   3.433   9.436
77586SOL     OW34654   6.752  13.877   0.464
77586SOL    HW134655   6.675  13.838   0.422
77586SOL    HW234656   6.824  13.818   0.441
77587SOL     OW34657   5.793   1.092   7.369
77587SOL    HW134658   5.876   1.112   7.413
77587SOL    HW234659   5.800   1.000   7.346
77588SOL     OW34660  13.175   2.736   3.592
77588SOL    HW134661  13.090   2.780   3.600
77588SOL    HW234662  13.236   2.806   3.568
77589SOL     OW34663   7.824   2.937   4.487
77589SOL    HW134664   7.770   2.969   4.560
77589SOL    HW234665   7.803   2.996   4.415
77590SOL     OW34666   1.161   2.948   9.378
77590SOL    HW134667   1.090   2.930   9.440
77590SOL    HW234668   1.238   2.959   9.434
77591SOL     OW34669   3.511   9.297  11.057
77591SOL    HW134670   3.468   9.235  10.998
77591SOL    HW234671   3.443   9.360  11.079
77592SOL     OW34672  12.802   4.005   5.895
77592SOL    HW134673  12.740   3.934   5.875
77592SOL    HW234674  12.880   3.984   5.844
77593SOL     OW34675   0.854   8.885  14.070
77593SOL    HW134676   0.920   8.841  14.124
77593SOL    HW234677   0.881   8.977  14.069
77594SOL     OW34678  10.279  13.866   1.637
77594SOL    HW134679  10.186  13.844   1.650
77594SOL    HW234680  10.327  13.799   1.684
77595SOL     OW34681  14.043  12.470   4.632
77595SOL    HW134682  14.082  12.409   4.569
77595SOL    HW234683  14.090  12.451   4.714
77596SOL     OW34684   4.215   4.695   3.589
77596SOL    HW134685   4.284   4.727   3.647
77596SOL    HW234686   4.236   4.603   3.574
77597SOL     OW34687   5.399  10.377   4.757
77597SOL    HW134688   5.314  10.349   4.790
77597SOL    HW234689   5.402  10.471   4.774
77598SOL     OW34690   3.422  13.526  10.100
77598SOL    HW134691   3.466  13.611  10.103
77598SOL    HW234692   3.493  13.462  10.097
77599SOL     OW34693   8.711   8.612  10.723
77599SOL    HW134694   8.739   8.701  10.742
77599SOL    HW234695   8.630   8.622  10.674
77600SOL     OW34696   1.798   6.140   2.312
77600SOL    HW134697   1.792   6.165   2.219
77600SOL    HW234698   1.729   6.190   2.355
77601SOL     OW34699  11.047   6.045  10.458
77601SOL    HW134700  11.018   6.039  10.367
77601SOL    HW234701  11.142   6.039  10.454
77602SOL     OW34702  10.412   4.837   9.472
77602SOL    HW134703  10.433   4.802   9.559
77602SOL    HW234704  10.385   4.760   9.421
77603SOL     OW34705  11.046   6.550  12.274
77603SOL    HW134706  11.020   6.513  12.359
77603SOL    HW234707  11.109   6.618  12.296
77604SOL     OW34708   2.551   9.978   6.758
77604SOL    HW134709   2.614   9.981   6.830
77604SOL    HW234710   2.511   9.891   6.766
77605SOL     OW34711   6.153   4.842   3.222
77605SOL    HW134712   6.126   4.900   3.293
77605SOL    HW234713   6.146   4.895   3.143
77606SOL     OW34714   4.273   2.445   8.841
77606SOL    HW134715   4.200   2.442   8.903
77606SOL    HW234716   4.233   2.468   8.757
77607SOL     OW34717  14.103   8.337   0.034
77607SOL    HW134718  14.141   8.347   0.121
77607SOL    HW234719  14.015   8.304   0.050
77608SOL     OW34720   2.515   1.238  11.021
77608SOL    HW134721   2.484   1.313  10.970
77608SOL    HW234722   2.551   1.276  11.101
77609SOL     OW34723   1.821   3.490  10.907
77609SOL    HW134724   1.825   3.574  10.954
77609SOL    HW234725   1.794   3.427  10.973
77610SOL     OW34726   5.029   8.283   0.519
77610SOL    HW134727   4.974   8.220   0.565
77610SOL    HW234728   4.981   8.304   0.439
77611SOL     OW34729   7.102   6.416   0.975
77611SOL    HW134730   7.094   6.379   0.887
77611SOL    HW234731   7.096   6.511   0.961
77612SOL     OW34732  13.975  13.165   4.528
77612SOL    HW134733  13.885  13.153   4.497
77612SOL    HW234734  13.970  13.239   4.588
77613SOL     OW34735   2.324   8.510   9.414
77613SOL    HW134736   2.266   8.433   9.421
77613SOL    HW234737   2.387   8.499   9.485
77614SOL     OW34738   5.859   1.452  11.587
77614SOL    HW134739   5.869   1.384  11.654
77614SOL    HW234740   5.801   1.517  11.627
77615SOL     OW34741  13.963   9.737   5.479
77615SOL    HW134742  13.971   9.662   5.537
77615SOL    HW234743  14.033   9.726   5.414
77616SOL     OW34744   2.808  14.248  13.910
77616SOL    HW134745   2.793  14.172  13.854
77616SOL    HW234746   2.822  14.321  13.850
77617SOL     OW34747   9.366  10.136   4.075
77617SOL    HW134748   9.311  10.076   4.025
77617SOL    HW234749   9.456  10.112   4.050
77618SOL     OW34750   7.050   2.712   7.845
77618SOL    HW134751   7.086   2.663   7.771
77618SOL    HW234752   7.116   2.703   7.914
77619SOL     OW34753  13.227   7.696   7.340
77619SOL    HW134754  13.274   7.639   7.402
77619SOL    HW234755  13.168   7.636   7.294
77620SOL     OW34756   1.014  10.751   9.363
77620SOL    HW134757   1.026  10.780   9.273
77620SOL    HW234758   0.978  10.827   9.408
77621SOL     OW34759   8.556   8.101  14.269
77621SOL    HW134760   8.520   8.050  14.341
77621SOL    HW234761   8.577   8.186  14.308
77622SOL     OW34762   1.804  13.163   7.429
77622SOL    HW134763   1.773  13.073   7.432
77622SOL    HW234764   1.886  13.159   7.380
77623SOL     OW34765   6.006   2.511  11.648
77623SOL    HW134766   6.079   2.458  11.616
77623SOL    HW234767   6.026   2.526  11.741
77624SOL     OW34768   2.328   4.618  11.651
77624SOL    HW134769   2.351   4.708  11.677
77624SOL    HW234770   2.332   4.619  11.556
77625SOL     OW34771   9.526   0.763  10.935
77625SOL    HW134772   9.446   0.815  10.926
77625SOL    HW234773   9.596   0.827  10.947
77626SOL     OW34774  12.956   4.634   2.306
77626SOL    HW134775  12.957   4.603   2.396
77626SOL    HW234776  12.999   4.719   2.308
77627SOL     OW34777  11.716   9.786   7.154
77627SOL    HW134778  11.694   9.694   7.141
77627SOL    HW234779  11.663   9.833   7.090
77628SOL     OW34780   7.489   9.936   0.608
77628SOL    HW134781   7.412   9.975   0.566
77628SOL    HW234782   7.547  10.011   0.624
77629SOL     OW34783   7.736  11.284  13.751
77629SOL    HW134784   7.684  11.328  13.683
77629SOL    HW234785   7.691  11.201  13.766
77630SOL     OW34786   9.898   9.152   1.582
77630SOL    HW134787   9.968   9.087   1.590
77630SOL    HW234788   9.832   9.109   1.527
77631SOL     OW34789  13.935   1.024   2.233
77631SOL    HW134790  13.870   0.956   2.252
77631SOL    HW234791  13.905   1.101   2.281
77632SOL     OW34792   0.653   8.787   9.301
77632SOL    HW134793   0.717   8.857   9.305
77632SOL    HW234794   0.688   8.726   9.236
77633SOL     OW34795   2.989   1.455   8.424
77633SOL    HW134796   3.048   1.401   8.372
77633SOL    HW234797   2.933   1.392   8.470
77634SOL     OW34798   1.912   8.831   7.927
77634SOL    HW134799   1.972   8.762   7.899
77634SOL    HW234800   1.870   8.796   8.006
77635SOL     OW34801   7.013   5.058  14.838
77635SOL    HW134802   6.917   5.061  14.833
77635SOL    HW234803   7.042   5.074  14.748
77636SOL     OW34804   7.728   3.716   3.094
77636SOL    HW134805   7.705   3.808   3.086
77636SOL    HW234806   7.737   3.702   3.188
77637SOL     OW34807   6.026   2.434   8.631
77637SOL    HW134808   6.115   2.468   8.645
77637SOL    HW234809   6.028   2.346   8.670
77638SOL     OW34810   0.602   2.271   6.368
77638SOL    HW134811   0.594   2.197   6.308
77638SOL    HW234812   0.695   2.294   6.368
77639SOL     OW34813   4.732   5.480   6.677
77639SOL    HW134814   4.769   5.429   6.605
77639SOL    HW234815   4.720   5.568   6.639
77640SOL     OW34816   9.450  13.642  11.524
77640SOL    HW134817   9.390  13.597  11.584
77640SOL    HW234818   9.528  13.588  11.522
77641SOL     OW34819   4.700  11.865  14.730
77641SOL    HW134820   4.795  11.854  14.730
77641SOL    HW234821   4.666  11.780  14.758
77642SOL     OW34822   2.199   9.473   7.834
77642SOL    HW134823   2.268   9.497   7.896
77642SOL    HW234824   2.197   9.377   7.837
77643SOL     OW34825  10.092   4.164   9.252
77643SOL    HW134826  10.006   4.181   9.214
77643SOL    HW234827  10.140   4.246   9.241
77644SOL     OW34828  12.322   4.137   4.263
77644SOL    HW134829  12.307   4.216   4.210
77644SOL    HW234830  12.236   4.112   4.295
77645SOL     OW34831  12.213   7.078   7.152
77645SOL    HW134832  12.197   7.134   7.076
77645SOL    HW234833  12.303   7.048   7.140
77646SOL     OW34834   5.375   0.542  12.655
77646SOL    HW134835   5.300   0.522  12.600
77646SOL    HW234836   5.415   0.457  12.675
77647SOL     OW34837   6.079  12.109  11.657
77647SOL    HW134838   6.016  12.038  11.665
77647SOL    HW234839   6.164  12.067  11.663
77648SOL     OW34840  13.186  10.614  12.490
77648SOL    HW134841  13.215  10.706  12.488
77648SOL    HW234842  13.093  10.618  12.471
77649SOL     OW34843   4.424  11.459   4.857
77649SOL    HW134844   4.394  11.421   4.939
77649SOL    HW234845   4.520  11.459   4.865
77650SOL     OW34846  12.247  14.706  11.367
77650SOL    HW134847  12.281  14.777  11.421
77650SOL    HW234848  12.257  14.737  11.277
77651SOL     OW34849  12.947   1.043   7.706
77651SOL    HW134850  12.976   1.084   7.788
77651SOL    HW234851  12.859   1.012   7.725
77652SOL     OW34852   4.266   0.345   7.543
77652SOL    HW134853   4.312   0.262   7.554
77652SOL    HW234854   4.320   0.409   7.590
77653SOL     OW34855  11.711   2.868   2.492
77653SOL    HW134856  11.743   2.905   2.574
77653SOL    HW234857  11.673   2.784   2.517
77654SOL     OW34858   6.692   5.050   9.427
77654SOL    HW134859   6.721   5.056   9.336
77654SOL    HW234860   6.666   5.139   9.450
77655SOL     OW34861   2.545   6.637   5.862
77655SOL    HW134862   2.561   6.697   5.934
77655SOL    HW234863   2.575   6.683   5.784
77656SOL     OW34864  14.586   5.887   3.421
77656SOL    HW134865  14.573   5.884   3.326
77656SOL    HW234866  14.502   5.859   3.457
77657SOL     OW34867   6.957   5.943   0.236
77657SOL    HW134868   6.894   5.960   0.165
77657SOL    HW234869   7.001   6.027   0.248
77658SOL     OW34870   2.713  14.355   6.380
77658SOL    HW134871   2.792  14.408   6.379
77658SOL    HW234872   2.716  14.305   6.298
77659SOL     OW34873   8.463  11.048   9.454
77659SOL    HW134874   8.389  11.068   9.398
77659SOL    HW234875   8.518  10.990   9.402
77660SOL     OW34876  10.607  10.405  13.373
77660SOL    HW134877  10.674  10.453  13.422
77660SOL    HW234878  10.534  10.467  13.366
77661SOL     OW34879   1.015  11.164   9.636
77661SOL    HW134880   1.106  11.195   9.641
77661SOL    HW234881   0.982  11.201   9.555
77662SOL     OW34882   0.617   9.600   2.164
77662SOL    HW134883   0.554   9.544   2.119
77662SOL    HW234884   0.625   9.562   2.252
77663SOL     OW34885  11.594   4.096   2.103
77663SOL    HW134886  11.641   4.062   2.027
77663SOL    HW234887  11.521   4.145   2.066
77664SOL     OW34888   1.923   0.757  13.616
77664SOL    HW134889   1.986   0.785  13.550
77664SOL    HW234890   1.914   0.663  13.603
77665SOL     OW34891  13.124   2.011  12.447
77665SOL    HW134892  13.040   2.008  12.401
77665SOL    HW234893  13.121   2.094  12.496
77666SOL     OW34894   4.452   1.029   4.576
77666SOL    HW134895   4.395   1.018   4.652
77666SOL    HW234896   4.534   1.064   4.612
77667SOL     OW34897   7.016   2.100   0.228
77667SOL    HW134898   7.097   2.116   0.180
77667SOL    HW234899   7.008   2.174   0.288
77668SOL     OW34900  11.471   2.537   7.886
77668SOL    HW134901  11.520   2.588   7.822
77668SOL    HW234902  11.537   2.509   7.950
77669SOL     OW34903   7.751   4.481  10.007
77669SOL    HW134904   7.669   4.459   9.964
77669SOL    HW234905   7.777   4.400  10.052
77670SOL     OW34906   2.889   0.542   9.233
77670SOL    HW134907   2.913   0.580   9.148
77670SOL    HW234908   2.904   0.613   9.296
77671SOL     OW34909   1.942   3.365  10.304
77671SOL    HW134910   2.006   3.421  10.348
77671SOL    HW234911   1.950   3.388  10.212
77672SOL     OW34912   9.373  14.187   7.954
77672SOL    HW134913   9.413  14.188   8.041
77672SOL    HW234914   9.360  14.280   7.934
77673SOL     OW34915   3.874  13.156  12.183
77673SOL    HW134916   3.912  13.244  12.175
77673SOL    HW234917   3.837  13.138  12.096
77674SOL     OW34918   4.703  10.483  10.388
77674SOL    HW134919   4.746  10.463  10.305
77674SOL    HW234920   4.611  10.495  10.366
77675SOL     OW34921  11.472  13.932   2.501
77675SOL    HW134922  11.488  13.848   2.458
77675SOL    HW234923  11.391  13.963   2.462
77676SOL     OW34924   2.417   1.614  14.129
77676SOL    HW134925   2.422   1.551  14.057
77676SOL    HW234926   2.464   1.572  14.201
77677SOL     OW34927   0.848  12.568   0.676
77677SOL    HW134928   0.923  12.627   0.667
77677SOL    HW234929   0.836  12.559   0.770
77678SOL     OW34930   5.780   0.433   2.668
77678SOL    HW134931   5.709   0.377   2.699
77678SOL    HW234932   5.789   0.411   2.575
77679SOL     OW34933   0.209   6.236   5.756
77679SOL    HW134934   0.145   6.165   5.760
77679SOL    HW234935   0.269   6.218   5.828
77680SOL     OW34936   9.799   9.589  11.661
77680SOL    HW134937   9.847   9.672  11.661
77680SOL    HW234938   9.740   9.596  11.586
77681SOL     OW34939  13.269  13.325   7.811
77681SOL    HW134940  13.209  13.302   7.740
77681SOL    HW234941  13.343  13.367   7.767
77682SOL     OW34942   5.012   2.987  10.684
77682SOL    HW134943   4.980   2.925  10.750
77682SOL    HW234944   4.946   3.056  10.683
77683SOL     OW34945   5.207  11.085   2.689
77683SOL    HW134946   5.124  11.079   2.735
77683SOL    HW234947   5.243  10.996   2.692
77684SOL     OW34948   8.069   2.782   0.782
77684SOL    HW134949   7.993   2.770   0.725
77684SOL    HW234950   8.111   2.861   0.748
77685SOL     OW34951  14.100  14.653   7.354
77685SOL    HW134952  14.158  14.729   7.356
77685SOL    HW234953  14.063  14.653   7.266
77686SOL     OW34954   8.212   7.795   6.773
77686SOL    HW134955   8.223   7.836   6.688
77686SOL    HW234956   8.223   7.701   6.757
77687SOL     OW34957  14.672  13.976   6.525
77687SOL    HW134958  14.732  13.903   6.540
77687SOL    HW234959  14.593  13.952   6.573
77688SOL     OW34960   0.862  13.869  12.389
77688SOL    HW134961   0.922  13.862  12.315
77688SOL    HW234962   0.844  13.778  12.414
77689SOL     OW34963  11.279  14.102   9.587
77689SOL    HW134964  11.286  14.188   9.628
77689SOL    HW234965  11.345  14.048   9.631
77690SOL     OW34966   5.400   6.188  11.816
77690SOL    HW134967   5.490   6.213  11.796
77690SOL    HW234968   5.388   6.104  11.771
77691SOL     OW34969   9.280  13.151   0.110
77691SOL    HW134970   9.305  13.144   0.017
77691SOL    HW234971   9.348  13.205   0.149
77692SOL     OW34972   5.659  12.310  14.190
77692SOL    HW134973   5.602  12.234  14.182
77692SOL    HW234974   5.695  12.305  14.279
77693SOL     OW34975   3.693  13.985   4.681
77693SOL    HW134976   3.603  14.015   4.669
77693SOL    HW234977   3.714  13.939   4.600
77694SOL     OW34978  12.142   5.323   4.976
77694SOL    HW134979  12.051   5.345   4.957
77694SOL    HW234980  12.143   5.299   5.069
77695SOL     OW34981   0.794   8.184   3.192
77695SOL    HW134982   0.738   8.106   3.196
77695SOL    HW234983   0.877   8.152   3.155
77696SOL     OW34984  12.405  10.981  11.251
77696SOL    HW134985  12.367  10.966  11.338
77696SOL    HW234986  12.351  11.051  11.213
77697SOL     OW34987  14.217   8.518   8.458
77697SOL    HW134988  14.183   8.429   8.446
77697SOL    HW234989  14.174   8.550   8.537
77698SOL     OW34990   1.609   0.210  13.357
77698SOL    HW134991   1.545   0.277  13.378
77698SOL    HW234992   1.579   0.173  13.274
77699SOL     OW34993   1.837   3.714   5.834
77699SOL    HW134994   1.922   3.750   5.859
77699SOL    HW234995   1.846   3.696   5.740
77700SOL     OW34996   4.509   9.968   9.612
77700SOL    HW134997   4.593  10.013   9.606
77700SOL    HW234998   4.528   9.878   9.586
77701SOL     OW34999   6.634   9.080   9.659
77701SOL    HW135000   6.559   9.132   9.633
77701SOL    HW235001   6.706   9.112   9.604
77702SOL     OW35002   3.541  12.919  10.186
77702SOL    HW135003   3.543  12.834  10.143
77702SOL    HW235004   3.604  12.913  10.257
77703SOL     OW35005   3.633  14.533   0.640
77703SOL    HW135006   3.695  14.477   0.593
77703SOL    HW235007   3.618  14.487   0.723
77704SOL     OW35008   7.836   9.328   6.306
77704SOL    HW135009   7.807   9.273   6.379
77704SOL    HW235010   7.905   9.277   6.263
77705SOL     OW35011   4.142   6.458   0.354
77705SOL    HW135012   4.052   6.425   0.355
77705SOL    HW235013   4.197   6.380   0.343
77706SOL     OW35014   1.736   5.595   3.599
77706SOL    HW135015   1.765   5.554   3.518
77706SOL    HW235016   1.641   5.589   3.596
77707SOL     OW35017  13.345  13.290   5.409
77707SOL    HW135018  13.260  13.261   5.443
77707SOL    HW235019  13.375  13.217   5.355
77708SOL     OW35020   8.966   0.182   4.760
77708SOL    HW135021   9.001   0.201   4.673
77708SOL    HW235022   8.909   0.106   4.747
77709SOL     OW35023   5.782  14.360  14.280
77709SOL    HW135024   5.862  14.339  14.232
77709SOL    HW235025   5.790  14.313  14.363
77710SOL     OW35026   1.772   7.171   9.232
77710SOL    HW135027   1.867   7.174   9.218
77710SOL    HW235028   1.741   7.258   9.208
77711SOL     OW35029   0.027   0.335   5.565
77711SOL    HW135030   0.119   0.362   5.576
77711SOL    HW235031  14.849   0.377   5.638
77712SOL     OW35032   9.054  14.015   5.296
77712SOL    HW135033   9.086  13.925   5.287
77712SOL    HW235034   9.082  14.058   5.215
77713SOL     OW35035   2.781   3.619   0.884
77713SOL    HW135036   2.707   3.637   0.826
77713SOL    HW235037   2.741   3.578   0.961
77714SOL     OW35038   6.090  12.930  14.742
77714SOL    HW135039   6.111  12.921  14.835
77714SOL    HW235040   6.073  12.840  14.713
77715SOL     OW35041   6.860   9.496  11.009
77715SOL    HW135042   6.947   9.489  11.048
77715SOL    HW235043   6.800   9.488  11.083
77716SOL     OW35044   8.717  10.888  10.604
77716SOL    HW135045   8.659  10.922  10.672
77716SOL    HW235046   8.661  10.830  10.552
77717SOL     OW35047   9.684   9.257  14.624
77717SOL    HW135048   9.666   9.255  14.718
77717SOL    HW235049   9.747   9.186  14.611
77718SOL     OW35050   3.343   1.238   2.209
77718SOL    HW135051   3.348   1.154   2.253
77718SOL    HW235052   3.379   1.301   2.272
77719SOL     OW35053   5.311  11.925   6.372
77719SOL    HW135054   5.232  11.870   6.371
77719SOL    HW235055   5.365  11.887   6.443
77720SOL     OW35056   5.097   8.487  12.953
77720SOL    HW135057   5.044   8.534  13.018
77720SOL    HW235058   5.175   8.459  13.001
77721SOL     OW35059   7.912  12.449   9.796
77721SOL    HW135060   8.000  12.482   9.779
77721SOL    HW235061   7.921  12.354   9.790
77722SOL     OW35062   9.907  14.243   4.710
77722SOL    HW135063   9.847  14.198   4.652
77722SOL    HW235064   9.880  14.216   4.798
77723SOL     OW35065   6.500   8.535  13.211
77723SOL    HW135066   6.523   8.442  13.213
77723SOL    HW235067   6.475   8.556  13.301
77724SOL     OW35068  13.468  12.544   5.132
77724SOL    HW135069  13.412  12.493   5.073
77724SOL    HW235070  13.534  12.583   5.074
77725SOL     OW35071   8.643   2.189   1.546
77725SOL    HW135072   8.705   2.184   1.474
77725SOL    HW235073   8.696   2.214   1.622
77726SOL     OW35074  12.412   1.567   0.598
77726SOL    HW135075  12.475   1.496   0.593
77726SOL    HW235076  12.433   1.623   0.523
77727SOL     OW35077  13.986   1.107  10.130
77727SOL    HW135078  13.893   1.089  10.122
77727SOL    HW235079  14.029   1.028  10.099
77728SOL     OW35080   8.551   7.497   3.033
77728SOL    HW135081   8.571   7.591   3.032
77728SOL    HW235082   8.558   7.470   2.942
77729SOL     OW35083   5.855   9.996  10.037
77729SOL    HW135084   5.817  10.014   9.951
77729SOL    HW235085   5.787   9.949  10.084
77730SOL     OW35086   2.690   3.811   0.684
77730SOL    HW135087   2.706   3.735   0.628
77730SOL    HW235088   2.777   3.845   0.704
77731SOL     OW35089   1.558   9.677   9.398
77731SOL    HW135090   1.648   9.707   9.409
77731SOL    HW235091   1.510   9.754   9.368
77732SOL     OW35092  12.884   6.295  12.923
77732SOL    HW135093  12.849   6.213  12.958
77732SOL    HW235094  12.831   6.363  12.964
77733SOL     OW35095   5.308   6.657   5.769
77733SOL    HW135096   5.338   6.566   5.780
77733SOL    HW235097   5.323   6.697   5.855
77734SOL     OW35098   3.257   6.563  12.875
77734SOL    HW135099   3.246   6.536  12.966
77734SOL    HW235100   3.257   6.659  12.879
77735SOL     OW35101  11.790   6.083   7.666
77735SOL    HW135102  11.810   6.148   7.733
77735SOL    HW235103  11.824   6.000   7.701
77736SOL     OW35104   5.005   8.423   1.987
77736SOL    HW135105   5.089   8.398   2.025
77736SOL    HW235106   4.959   8.467   2.059
77737SOL     OW35107   7.385   9.025   8.592
77737SOL    HW135108   7.292   9.011   8.572
77737SOL    HW235109   7.429   9.019   8.507
77738SOL     OW35110   7.599  11.434   1.170
77738SOL    HW135111   7.691  11.412   1.156
77738SOL    HW235112   7.600  11.520   1.211
77739SOL     OW35113   1.368  13.033  10.221
77739SOL    HW135114   1.323  13.060  10.301
77739SOL    HW235115   1.378  12.938  10.230
77740SOL     OW35116   8.271  13.716   9.030
77740SOL    HW135117   8.219  13.665   9.092
77740SOL    HW235118   8.322  13.776   9.083
77741SOL     OW35119   9.587   8.597  13.873
77741SOL    HW135120   9.633   8.597  13.789
77741SOL    HW235121   9.597   8.686  13.905
77742SOL     OW35122   9.255  10.812  14.438
77742SOL    HW135123   9.224  10.766  14.360
77742SOL    HW235124   9.177  10.823  14.492
77743SOL     OW35125   4.540   0.784   3.257
77743SOL    HW135126   4.539   0.724   3.183
77743SOL    HW235127   4.617   0.759   3.307
77744SOL     OW35128   8.172   0.622   9.041
77744SOL    HW135129   8.079   0.621   9.022
77744SOL    HW235130   8.209   0.688   8.982
77745SOL     OW35131   6.614   4.888   1.826
77745SOL    HW135132   6.653   4.870   1.740
77745SOL    HW235133   6.681   4.860   1.888
77746SOL     OW35134  10.516   9.809   4.679
77746SOL    HW135135  10.583   9.743   4.663
77746SOL    HW235136  10.434   9.768   4.649
77747SOL     OW35137   5.911  14.655  12.840
77747SOL    HW135138   5.825  14.617  12.823
77747SOL    HW235139   5.953  14.659  12.754
77748SOL     OW35140   5.986   7.338   2.849
77748SOL    HW135141   5.923   7.271   2.824
77748SOL    HW235142   6.012   7.379   2.766
77749SOL     OW35143  10.451   0.979   6.747
77749SOL    HW135144  10.403   1.044   6.798
77749SOL    HW235145  10.441   1.008   6.656
77750SOL     OW35146   9.312  14.743   5.019
77750SOL    HW135147   9.237  14.707   5.067
77750SOL    HW235148   9.356  14.799   5.083
77751SOL     OW35149  13.278   8.347   2.476
77751SOL    HW135150  13.269   8.290   2.400
77751SOL    HW235151  13.233   8.428   2.451
77752SOL     OW35152   3.486   4.979  14.566
77752SOL    HW135153   3.511   5.031  14.490
77752SOL    HW235154   3.561   4.921  14.582
77753SOL     OW35155   5.649  14.049   7.376
77753SOL    HW135156   5.686  14.137   7.385
77753SOL    HW235157   5.702  13.994   7.433
77754SOL     OW35158   2.464   3.521   5.298
77754SOL    HW135159   2.508   3.436   5.297
77754SOL    HW235160   2.394   3.513   5.233
77755SOL     OW35161   8.120   2.186   5.692
77755SOL    HW135162   8.093   2.276   5.673
77755SOL    HW235163   8.212   2.193   5.717
77756SOL     OW35164   4.672  11.469   7.634
77756SOL    HW135165   4.750  11.523   7.619
77756SOL    HW235166   4.707  11.388   7.671
77757SOL     OW35167  13.241   0.263   4.817
77757SOL    HW135168  13.190   0.321   4.761
77757SOL    HW235169  13.329   0.263   4.779
77758SOL     OW35170   0.661   9.822   0.102
77758SOL    HW135171   0.712   9.743   0.124
77758SOL    HW235172   0.605   9.794   0.028
77759SOL     OW35173   1.511   9.078  12.037
77759SOL    HW135174   1.504   9.107  11.946
77759SOL    HW235175   1.438   9.119  12.082
77760SOL     OW35176   4.527   3.442   3.292
77760SOL    HW135177   4.608   3.438   3.242
77760SOL    HW235178   4.554   3.465   3.381
77761SOL     OW35179  12.946   8.488   0.927
77761SOL    HW135180  12.987   8.557   0.979
77761SOL    HW235181  13.006   8.475   0.854
77762SOL     OW35182  13.387  10.762  13.613
77762SOL    HW135183  13.376  10.783  13.520
77762SOL    HW235184  13.471  10.802  13.637
77763SOL     OW35185   3.832   7.812   7.984
77763SOL    HW135186   3.869   7.771   7.906
77763SOL    HW235187   3.908   7.829   8.040
77764SOL     OW35188   5.438   5.658   1.882
77764SOL    HW135189   5.439   5.570   1.919
77764SOL    HW235190   5.527   5.692   1.897
77765SOL     OW35191   4.576   7.233   7.483
77765SOL    HW135192   4.546   7.236   7.392
77765SOL    HW235193   4.496   7.238   7.535
77766SOL     OW35194   1.123  13.877  10.754
77766SOL    HW135195   1.120  13.791  10.796
77766SOL    HW235196   1.138  13.938  10.826
77767SOL     OW35197   7.646   2.174   3.581
77767SOL    HW135198   7.724   2.230   3.581
77767SOL    HW235199   7.590   2.209   3.650
77768SOL     OW35200  11.802  12.876   8.762
77768SOL    HW135201  11.836  12.965   8.760
77768SOL    HW235202  11.869  12.826   8.807
77769SOL     OW35203  10.396   0.106  10.772
77769SOL    HW135204  10.404   0.011  10.761
77769SOL    HW235205  10.484   0.135  10.797
77770SOL     OW35206   5.612   4.268   0.784
77770SOL    HW135207   5.669   4.214   0.839
77770SOL    HW235208   5.575   4.333   0.845
77771SOL     OW35209  10.736   5.558   4.699
77771SOL    HW135210  10.713   5.624   4.634
77771SOL    HW235211  10.781   5.490   4.649
77772SOL     OW35212   3.071   0.652   5.009
77772SOL    HW135213   3.028   0.708   4.944
77772SOL    HW235214   3.164   0.654   4.983
77773SOL     OW35215   5.522   6.242   1.035
77773SOL    HW135216   5.495   6.263   1.125
77773SOL    HW235217   5.557   6.325   1.001
77774SOL     OW35218  10.546   1.139  10.101
77774SOL    HW135219  10.456   1.146  10.133
77774SOL    HW235220  10.600   1.164  10.176
77775SOL     OW35221  13.186  13.569   4.357
77775SOL    HW135222  13.238  13.631   4.408
77775SOL    HW235223  13.247  13.498   4.336
77776SOL     OW35224   2.305   8.292  10.259
77776SOL    HW135225   2.286   8.324  10.347
77776SOL    HW235226   2.319   8.371  10.208
77777SOL     OW35227  10.780   5.871   8.392
77777SOL    HW135228  10.774   5.946   8.451
77777SOL    HW235229  10.860   5.825   8.419
77778SOL     OW35230   1.177   2.793   0.494
77778SOL    HW135231   1.099   2.804   0.439
77778SOL    HW235232   1.211   2.706   0.470
77779SOL     OW35233  11.326  13.481   4.844
77779SOL    HW135234  11.408  13.448   4.881
77779SOL    HW235235  11.348  13.506   4.755
77780SOL     OW35236   4.621   5.374  13.996
77780SOL    HW135237   4.532   5.408  14.002
77780SOL    HW235238   4.644   5.381  13.904
77781SOL     OW35239  10.790   8.577   1.491
77781SOL    HW135240  10.878   8.555   1.461
77781SOL    HW235241  10.750   8.492   1.511
77782SOL     OW35242   4.016  13.938   9.391
77782SOL    HW135243   3.967  13.862   9.358
77782SOL    HW235244   4.107  13.920   9.367
77783SOL     OW35245   0.764  14.413   8.799
77783SOL    HW135246   0.833  14.438   8.860
77783SOL    HW235247   0.683  14.446   8.838
77784SOL     OW35248   3.659  10.495   4.907
77784SOL    HW135249   3.742  10.526   4.873
77784SOL    HW235250   3.671  10.492   5.002
77785SOL     OW35251   1.868  10.478   6.020
77785SOL    HW135252   1.878  10.555   5.964
77785SOL    HW235253   1.781  10.486   6.058
77786SOL     OW35254   5.122   6.093   6.374
77786SOL    HW135255   5.061   6.019   6.384
77786SOL    HW235256   5.194   6.059   6.322
77787SOL     OW35257   7.778  14.419   6.801
77787SOL    HW135258   7.799  14.466   6.882
77787SOL    HW235259   7.701  14.465   6.767
77788SOL     OW35260   1.102  12.281  13.053
77788SOL    HW135261   1.047  12.297  13.130
77788SOL    HW235262   1.099  12.362  13.003
77789SOL     OW35263   4.423   0.919  11.319
77789SOL    HW135264   4.402   0.970  11.241
77789SOL    HW235265   4.473   0.978  11.374
77790SOL     OW35266   7.760  10.729  11.670
77790SOL    HW135267   7.693  10.790  11.702
77790SOL    HW235268   7.808  10.778  11.604
77791SOL     OW35269   9.915   3.713   9.080
77791SOL    HW135270   9.915   3.801   9.044
77791SOL    HW235271  10.008   3.694   9.096
77792SOL     OW35272   7.151  14.186   8.967
77792SOL    HW135273   7.083  14.254   8.958
77792SOL    HW235274   7.211  14.202   8.894
77793SOL     OW35275   8.476   2.217   7.673
77793SOL    HW135276   8.381   2.225   7.688
77793SOL    HW235277   8.512   2.298   7.708
77794SOL     OW35278  13.935  13.506   5.642
77794SOL    HW135279  14.000  13.564   5.682
77794SOL    HW235280  13.868  13.494   5.709
77795SOL     OW35281   9.679  12.028   4.670
77795SOL    HW135282   9.653  11.959   4.731
77795SOL    HW235283   9.624  12.014   4.592
77796SOL     OW35284   1.556   9.102   8.737
77796SOL    HW135285   1.544   9.141   8.824
77796SOL    HW235286   1.534   9.172   8.676
77797SOL     OW35287   2.127   7.175   7.428
77797SOL    HW135288   2.092   7.225   7.354
77797SOL    HW235289   2.052   7.129   7.464
77798SOL     OW35290   6.111   9.279   2.993
77798SOL    HW135291   6.121   9.308   3.084
77798SOL    HW235292   6.096   9.185   3.000
77799SOL     OW35293   1.362   5.312  12.552
77799SOL    HW135294   1.435   5.264  12.591
77799SOL    HW235295   1.387   5.326  12.461
77800SOL     OW35296   8.380   9.743   8.096
77800SOL    HW135297   8.334   9.701   8.024
77800SOL    HW235298   8.411   9.827   8.060
77801SOL     OW35299  14.144  12.781   7.552
77801SOL    HW135300  14.178  12.703   7.508
77801SOL    HW235301  14.185  12.779   7.638
77802SOL     OW35302  14.237   0.456  11.244
77802SOL    HW135303  14.188   0.379  11.275
77802SOL    HW235304  14.262   0.502  11.324
77803SOL     OW35305  14.867   7.179  12.390
77803SOL    HW135306   0.077   7.161  12.443
77803SOL    HW235307  14.794   7.168  12.451
77804SOL     OW35308   1.169   9.983   3.474
77804SOL    HW135309   1.086  10.030   3.475
77804SOL    HW235310   1.155   9.908   3.532
77805SOL     OW35311   3.011  14.703  12.138
77805SOL    HW135312   3.041  14.736  12.054
77805SOL    HW235313   3.003  14.780  12.194
77806SOL     OW35314   8.148   8.902  14.122
77806SOL    HW135315   8.061   8.918  14.161
77806SOL    HW235316   8.176   8.819  14.159
77807SOL     OW35317   2.997   7.958  10.239
77807SOL    HW135318   2.934   8.008  10.291
77807SOL    HW235319   2.945   7.916  10.171
77808SOL     OW35320   4.750   5.484   1.613
77808SOL    HW135321   4.750   5.542   1.689
77808SOL    HW235322   4.727   5.398   1.648
77809SOL     OW35323   4.066  13.723   6.780
77809SOL    HW135324   4.063  13.755   6.690
77809SOL    HW235325   4.111  13.639   6.775
77810SOL     OW35326  14.563   2.507  13.559
77810SOL    HW135327  14.496   2.439  13.557
77810SOL    HW235328  14.642   2.463  13.529
77811SOL     OW35329  14.564   1.692  11.212
77811SOL    HW135330  14.559   1.718  11.304
77811SOL    HW235331  14.500   1.748  11.168
77812SOL     OW35332  10.686   4.887   0.758
77812SOL    HW135333  10.727   4.964   0.720
77812SOL    HW235334  10.718   4.814   0.706
77813SOL     OW35335   9.870   9.114   2.604
77813SOL    HW135336   9.947   9.094   2.658
77813SOL    HW235337   9.798   9.066   2.645
77814SOL     OW35338   3.738  12.016   4.996
77814SOL    HW135339   3.657  12.023   4.946
77814SOL    HW235340   3.806  12.005   4.931
77815SOL     OW35341   7.979   3.504   5.227
77815SOL    HW135342   8.016   3.590   5.203
77815SOL    HW235343   7.885   3.520   5.236
77816SOL     OW35344   8.236   7.441  11.888
77816SOL    HW135345   8.192   7.383  11.826
77816SOL    HW235346   8.173   7.512  11.903
77817SOL     OW35347   8.278   7.126  11.332
77817SOL    HW135348   8.363   7.152  11.367
77817SOL    HW235349   8.215   7.182  11.378
77818SOL     OW35350   1.635   5.443   4.848
77818SOL    HW135351   1.717   5.489   4.832
77818SOL    HW235352   1.606   5.475   4.934
77819SOL     OW35353   2.049   1.887  12.851
77819SOL    HW135354   2.067   1.877  12.757
77819SOL    HW235355   2.031   1.980  12.862
77820SOL     OW35356   8.058   2.266  11.900
77820SOL    HW135357   8.032   2.290  11.989
77820SOL    HW235358   8.102   2.182  11.910
77821SOL     OW35359   2.014   5.809   0.115
77821SOL    HW135360   2.043   5.812   0.024
77821SOL    HW235361   1.990   5.717   0.129
77822SOL     OW35362   1.784   9.173   7.611
77822SOL    HW135363   1.824   9.126   7.684
77822SOL    HW235364   1.732   9.106   7.565
77823SOL     OW35365   0.045   1.518   0.271
77823SOL    HW135366   0.136   1.542   0.255
77823SOL    HW235367   0.030   1.540   0.363
77824SOL     OW35368   2.203  14.527  12.603
77824SOL    HW135369   2.110  14.516  12.582
77824SOL    HW235370   2.245  14.541  12.518
77825SOL     OW35371  11.993  11.617  10.774
77825SOL    HW135372  12.016  11.613  10.682
77825SOL    HW235373  11.991  11.525  10.803
77826SOL     OW35374   2.298   1.633   3.051
77826SOL    HW135375   2.250   1.621   2.969
77826SOL    HW235376   2.348   1.714   3.038
77827SOL     OW35377  10.386   6.284  13.666
77827SOL    HW135378  10.328   6.229  13.613
77827SOL    HW235379  10.442   6.328  13.603
77828SOL     OW35380   9.179  14.749   8.149
77828SOL    HW135381   9.238  14.759   8.074
77828SOL    HW235382   9.209  14.668   8.192
77829SOL     OW35383  12.717   0.138  13.643
77829SOL    HW135384  12.790   0.085  13.612
77829SOL    HW235385  12.708   0.207  13.578
77830SOL     OW35386   5.040   3.805  12.006
77830SOL    HW135387   5.101   3.862  11.960
77830SOL    HW235388   5.017   3.737  11.942
77831SOL     OW35389   5.435   9.057   8.853
77831SOL    HW135390   5.375   8.983   8.867
77831SOL    HW235391   5.394   9.107   8.782
77832SOL     OW35392  12.205   3.317   9.968
77832SOL    HW135393  12.202   3.407   9.933
77832SOL    HW235394  12.221   3.328  10.061
77833SOL     OW35395   9.175   8.347  14.649
77833SOL    HW135396   9.174   8.253  14.632
77833SOL    HW235397   9.246   8.381  14.594
77834SOL     OW35398   1.306   1.651  14.064
77834SOL    HW135399   1.289   1.740  14.032
77834SOL    HW235400   1.358   1.610  13.994
77835SOL     OW35401   1.358   9.736   5.635
77835SOL    HW135402   1.393   9.719   5.548
77835SOL    HW235403   1.268   9.764   5.620
77836SOL     OW35404   3.960   3.795   5.794
77836SOL    HW135405   3.976   3.719   5.738
77836SOL    HW235406   3.870   3.785   5.823
77837SOL     OW35407   1.615   3.260   2.254
77837SOL    HW135408   1.679   3.221   2.313
77837SOL    HW235409   1.660   3.336   2.217
77838SOL     OW35410  13.088   1.910   0.088
77838SOL    HW135411  13.120   1.831   0.131
77838SOL    HW235412  13.133   1.912   0.004
77839SOL     OW35413  14.809   8.386   9.064
77839SOL    HW135414  14.769   8.459   9.017
77839SOL    HW235415   0.013   8.357   9.008
77840SOL     OW35416   1.350   2.400   3.674
77840SOL    HW135417   1.351   2.408   3.578
77840SOL    HW235418   1.438   2.424   3.701
77841SOL     OW35419  12.620  12.297  11.288
77841SOL    HW135420  12.688  12.328  11.348
77841SOL    HW235421  12.545  12.278  11.344
77842SOL     OW35422  10.822   0.200   2.315
77842SOL    HW135423  10.848   0.232   2.402
77842SOL    HW235424  10.899   0.152   2.283
77843SOL     OW35425  10.212  14.710   6.524
77843SOL    HW135426  10.269  14.774   6.569
77843SOL    HW235427  10.255  14.696   6.439
77844SOL     OW35428  14.176  11.767   0.941
77844SOL    HW135429  14.157  11.858   0.965
77844SOL    HW235430  14.268  11.768   0.915
77845SOL     OW35431  12.950   4.807   3.948
77845SOL    HW135432  13.031   4.802   3.999
77845SOL    HW235433  12.957   4.733   3.887
77846SOL     OW35434   1.387   7.202   4.329
77846SOL    HW135435   1.362   7.207   4.421
77846SOL    HW235436   1.344   7.123   4.296
77847SOL     OW35437   7.519  14.441   6.635
77847SOL    HW135438   7.510  14.346   6.626
77847SOL    HW235439   7.467  14.463   6.713
77848SOL     OW35440  13.894   8.055  14.040
77848SOL    HW135441  13.961   8.027  13.979
77848SOL    HW235442  13.895   7.990  14.110
77849SOL     OW35443   0.960   8.778  13.774
77849SOL    HW135444   1.005   8.830  13.841
77849SOL    HW235445   0.870   8.809  13.777
77850SOL     OW35446  10.682   7.763   8.619
77850SOL    HW135447  10.709   7.763   8.711
77850SOL    HW235448  10.720   7.842   8.582
77851SOL     OW35449   5.496   8.641  10.305
77851SOL    HW135450   5.443   8.561  10.302
77851SOL    HW235451   5.437   8.707  10.341
77852SOL     OW35452   6.588   8.771   0.015
77852SOL    HW135453   6.607   8.864   0.009
77852SOL    HW235454   6.635   8.742   0.093
77853SOL     OW35455   5.942   0.797   1.500
77853SOL    HW135456   6.007   0.728   1.517
77853SOL    HW235457   5.863   0.766   1.545
77854SOL     OW35458  11.057  10.648   2.067
77854SOL    HW135459  11.118  10.637   2.139
77854SOL    HW235460  11.096  10.599   1.995
77855SOL     OW35461   5.917  12.756   8.266
77855SOL    HW135462   5.988  12.698   8.292
77855SOL    HW235463   5.956  12.844   8.265
77856SOL     OW35464   3.153   8.642  11.743
77856SOL    HW135465   3.089   8.583  11.703
77856SOL    HW235466   3.226   8.645  11.680
77857SOL     OW35467   8.150  11.560  12.963
77857SOL    HW135468   8.240  11.586  12.984
77857SOL    HW235469   8.145  11.567  12.868
77858SOL     OW35470  12.849   4.880   7.680
77858SOL    HW135471  12.931   4.836   7.705
77858SOL    HW235472  12.800   4.887   7.762
77859SOL     OW35473  10.441   1.698   1.154
77859SOL    HW135474  10.424   1.756   1.229
77859SOL    HW235475  10.516   1.738   1.111
77860SOL     OW35476   9.316  11.758  12.466
77860SOL    HW135477   9.352  11.835  12.509
77860SOL    HW235478   9.226  11.751  12.499
77861SOL     OW35479   3.604  11.286   9.792
77861SOL    HW135480   3.683  11.317   9.748
77861SOL    HW235481   3.619  11.304   9.885
77862SOL     OW35482   7.965  10.216   6.344
77862SOL    HW135483   7.949  10.162   6.422
77862SOL    HW235484   7.926  10.166   6.272
77863SOL     OW35485   9.800  10.130   8.000
77863SOL    HW135486   9.894  10.140   7.985
77863SOL    HW235487   9.760  10.154   7.916
77864SOL     OW35488   4.519  13.307   0.580
77864SOL    HW135489   4.424  13.317   0.567
77864SOL    HW235490   4.542  13.378   0.640
77865SOL     OW35491  10.371   4.067  10.288
77865SOL    HW135492  10.366   3.982  10.332
77865SOL    HW235493  10.305   4.062  10.219
77866SOL     OW35494   9.452  13.213   4.787
77866SOL    HW135495   9.432  13.153   4.715
77866SOL    HW235496   9.421  13.298   4.756
77867SOL     OW35497  11.201   5.477  11.561
77867SOL    HW135498  11.129   5.538  11.550
77867SOL    HW235499  11.260   5.496  11.488
77868SOL     OW35500  13.461  12.151  12.551
77868SOL    HW135501  13.533  12.191  12.501
77868SOL    HW235502  13.492  12.063  12.571
77869SOL     OW35503  12.780   2.056   8.918
77869SOL    HW135504  12.865   2.054   8.874
77869SOL    HW235505  12.764   1.965   8.944
77870SOL     OW35506  13.906   4.571   8.461
77870SOL    HW135507  13.950   4.539   8.539
77870SOL    HW235508  13.851   4.498   8.432
77871SOL     OW35509   8.448  13.836   4.483
77871SOL    HW135510   8.440  13.768   4.550
77871SOL    HW235511   8.361  13.874   4.476
77872SOL     OW35512  14.002   7.100   6.850
77872SOL    HW135513  14.080   7.101   6.906
77872SOL    HW235514  13.975   7.192   6.844
77873SOL     OW35515   2.017  10.331   9.461
77873SOL    HW135516   1.986  10.304   9.548
77873SOL    HW235517   1.956  10.287   9.401
77874SOL     OW35518   9.115   9.512   5.418
77874SOL    HW135519   9.070   9.453   5.357
77874SOL    HW235520   9.044   9.559   5.463
77875SOL     OW35521   3.338  12.719   4.282
77875SOL    HW135522   3.283  12.728   4.204
77875SOL    HW235523   3.300  12.781   4.344
77876SOL     OW35524   5.250  12.945   9.105
77876SOL    HW135525   5.219  13.036   9.107
77876SOL    HW235526   5.179  12.896   9.065
77877SOL     OW35527   1.186  10.697  12.026
77877SOL    HW135528   1.218  10.607  12.027
77877SOL    HW235529   1.170  10.716  11.934
77878SOL     OW35530   6.147  14.799   2.285
77878SOL    HW135531   6.197  14.805   2.204
77878SOL    HW235532   6.129  14.705   2.295
77879SOL     OW35533   3.697   0.181  14.227
77879SOL    HW135534   3.705   0.085  14.222
77879SOL    HW235535   3.775   0.213  14.182
77880SOL     OW35536   3.247   3.069   3.395
77880SOL    HW135537   3.190   3.122   3.452
77880SOL    HW235538   3.191   2.997   3.365
77881SOL     OW35539  10.781   2.086   0.663
77881SOL    HW135540  10.870   2.106   0.691
77881SOL    HW235541  10.733   2.070   0.744
77882SOL     OW35542   2.307  11.846   2.674
77882SOL    HW135543   2.215  11.871   2.681
77882SOL    HW235544   2.354  11.911   2.725
77883SOL     OW35545   6.988  13.056   3.744
77883SOL    HW135546   6.971  13.064   3.838
77883SOL    HW235547   7.021  13.143   3.719
77884SOL     OW35548  13.096   9.944   6.979
77884SOL    HW135549  13.058  10.032   6.972
77884SOL    HW235550  13.153   9.949   7.056
77885SOL     OW35551   0.843  12.669   2.232
77885SOL    HW135552   0.911  12.612   2.196
77885SOL    HW235553   0.892  12.738   2.278
77886SOL     OW35554  14.322   8.005   1.100
77886SOL    HW135555  14.369   7.922   1.095
77886SOL    HW235556  14.387   8.067   1.131
77887SOL     OW35557  11.814   1.515  10.857
77887SOL    HW135558  11.812   1.456  10.932
77887SOL    HW235559  11.723   1.524  10.831
77888SOL     OW35560  10.431   1.973   3.911
77888SOL    HW135561  10.473   1.942   3.991
77888SOL    HW235562  10.496   2.028   3.869
77889SOL     OW35563   1.006   0.178   6.514
77889SOL    HW135564   0.931   0.237   6.507
77889SOL    HW235565   1.050   0.186   6.429
77890SOL     OW35566  10.386  14.256   6.166
77890SOL    HW135567  10.383  14.161   6.166
77890SOL    HW235568  10.438  14.278   6.244
77891SOL     OW35569   5.297   3.402   5.697
77891SOL    HW135570   5.313   3.308   5.698
77891SOL    HW235571   5.224   3.414   5.636
77892SOL     OW35572   5.196   5.301   6.119
77892SOL    HW135573   5.198   5.280   6.026
77892SOL    HW235574   5.208   5.216   6.163
77893SOL     OW35575   8.632   4.561   2.449
77893SOL    HW135576   8.565   4.584   2.384
77893SOL    HW235577   8.712   4.550   2.399
77894SOL     OW35578  13.562   8.201  14.201
77894SOL    HW135579  13.632   8.260  14.175
77894SOL    HW235580  13.593   8.114  14.176
77895SOL     OW35581  10.033  14.150   0.900
77895SOL    HW135582  10.112  14.202   0.887
77895SOL    HW235583  10.002  14.130   0.812
77896SOL     OW35584  14.367   7.672   6.408
77896SOL    HW135585  14.448   7.706   6.370
77896SOL    HW235586  14.298   7.701   6.348
77897SOL     OW35587   0.564  12.079   8.913
77897SOL    HW135588   0.533  11.999   8.871
77897SOL    HW235589   0.599  12.132   8.841
77898SOL     OW35590   2.287  13.146  13.709
77898SOL    HW135591   2.206  13.180  13.672
77898SOL    HW235592   2.356  13.202  13.673
77899SOL     OW35593   9.992   1.029  10.153
77899SOL    HW135594  10.016   1.100  10.093
77899SOL    HW235595   9.925   1.067  10.210
77900SOL     OW35596   4.420   9.348  10.495
77900SOL    HW135597   4.380   9.297  10.565
77900SOL    HW235598   4.510   9.364  10.526
77901SOL     OW35599   9.452   8.795   4.986
77901SOL    HW135600   9.366   8.826   4.957
77901SOL    HW235601   9.458   8.823   5.077
77902SOL     OW35602   4.485   2.858   6.595
77902SOL    HW135603   4.515   2.771   6.624
77902SOL    HW235604   4.391   2.846   6.579
77903SOL     OW35605   0.247  14.443   4.993
77903SOL    HW135606   0.260  14.404   5.079
77903SOL    HW235607   0.242  14.368   4.933
77904SOL     OW35608   5.571  13.769   9.053
77904SOL    HW135609   5.633  13.697   9.059
77904SOL    HW235610   5.494  13.732   9.010
77905SOL     OW35611   6.883   0.212   2.075
77905SOL    HW135612   6.892   0.137   2.015
77905SOL    HW235613   6.811   0.263   2.038
77906SOL     OW35614   6.080  10.855   8.062
77906SOL    HW135615   6.032  10.777   8.033
77906SOL    HW235616   6.150  10.866   7.997
77907SOL     OW35617  10.064  14.697  13.228
77907SOL    HW135618  10.000  14.737  13.169
77907SOL    HW235619  10.056  14.747  13.309
77908SOL     OW35620  10.953  12.679  11.966
77908SOL    HW135621  10.881  12.701  11.906
77908SOL    HW235622  10.995  12.603  11.927
77909SOL     OW35623   6.918   6.894  14.087
77909SOL    HW135624   6.899   6.981  14.121
77909SOL    HW235625   6.835   6.847  14.096
77910SOL     OW35626  13.152   8.542  12.766
77910SOL    HW135627  13.185   8.631  12.754
77910SOL    HW235628  13.222   8.485  12.733
77911SOL     OW35629   9.133   4.365  12.825
77911SOL    HW135630   9.075   4.298  12.862
77911SOL    HW235631   9.099   4.448  12.859
77912SOL     OW35632  13.547   1.138   9.690
77912SOL    HW135633  13.614   1.194   9.653
77912SOL    HW235634  13.476   1.140   9.626
77913SOL     OW35635   3.555  11.951   0.339
77913SOL    HW135636   3.573  12.015   0.270
77913SOL    HW235637   3.471  11.912   0.315
77914SOL     OW35638   5.488  14.805   1.030
77914SOL    HW135639   5.437  14.748   0.972
77914SOL    HW235640   5.546  14.745   1.077
77915SOL     OW35641   8.269  13.168   3.192
77915SOL    HW135642   8.207  13.095   3.192
77915SOL    HW235643   8.269  13.200   3.102
77916SOL     OW35644  10.101   0.511   0.861
77916SOL    HW135645  10.006   0.513   0.874
77916SOL    HW235646  10.115   0.449   0.790
77917SOL     OW35647   2.377   1.856   2.926
77917SOL    HW135648   2.298   1.879   2.876
77917SOL    HW235649   2.449   1.883   2.869
77918SOL     OW35650  10.325   5.999   2.587
77918SOL    HW135651  10.289   6.022   2.672
77918SOL    HW235652  10.415   6.030   2.589
77919SOL     OW35653   4.368   9.122   7.567
77919SOL    HW135654   4.329   9.121   7.480
77919SOL    HW235655   4.358   9.032   7.599
77920SOL     OW35656   3.974   0.721  10.062
77920SOL    HW135657   3.947   0.690   9.975
77920SOL    HW235658   3.957   0.647  10.120
77921SOL     OW35659   2.012   8.778   5.557
77921SOL    HW135660   2.058   8.722   5.620
77921SOL    HW235661   2.039   8.867   5.578
77922SOL     OW35662   8.502  12.157   0.887
77922SOL    HW135663   8.497  12.252   0.900
77922SOL    HW235664   8.586  12.132   0.924
77923SOL     OW35665  10.915   9.072  10.913
77923SOL    HW135666  10.934   9.134  10.983
77923SOL    HW235667  11.001   9.054  10.873
77924SOL     OW35668  12.299   8.012   4.653
77924SOL    HW135669  12.241   8.013   4.729
77924SOL    HW235670  12.384   7.984   4.687
77925SOL     OW35671  13.439   0.931   9.304
77925SOL    HW135672  13.524   0.887   9.300
77925SOL    HW235673  13.380   0.866   9.342
77926SOL     OW35674   8.790   9.830  13.936
77926SOL    HW135675   8.788   9.775  13.857
77926SOL    HW235676   8.699   9.830  13.967
77927SOL     OW35677   5.235   4.325   9.205
77927SOL    HW135678   5.264   4.327   9.296
77927SOL    HW235679   5.315   4.335   9.154
77928SOL     OW35680  14.574  13.693   6.204
77928SOL    HW135681  14.511  13.764   6.189
77928SOL    HW235682  14.658  13.737   6.217
77929SOL     OW35683  11.304   3.583   6.460
77929SOL    HW135684  11.329   3.587   6.368
77929SOL    HW235685  11.226   3.528   6.461
77930SOL     OW35686  13.670   7.431  12.613
77930SOL    HW135687  13.702   7.435  12.523
77930SOL    HW235688  13.741   7.388  12.661
77931SOL     OW35689   1.195   8.191  14.210
77931SOL    HW135690   1.144   8.198  14.291
77931SOL    HW235691   1.130   8.201  14.140
77932SOL     OW35692   7.758  10.901   9.780
77932SOL    HW135693   7.701  10.967   9.819
77932SOL    HW235694   7.835  10.900   9.836
77933SOL     OW35695   7.709   2.803  10.912
77933SOL    HW135696   7.788   2.852  10.936
77933SOL    HW235697   7.664   2.789  10.995
77934SOL     OW35698   3.139   1.416   3.954
77934SOL    HW135699   3.090   1.339   3.982
77934SOL    HW235700   3.177   1.391   3.870
77935SOL     OW35701  10.321   6.565   3.828
77935SOL    HW135702  10.381   6.575   3.902
77935SOL    HW235703  10.237   6.543   3.869
77936SOL     OW35704   2.501   1.645   8.219
77936SOL    HW135705   2.447   1.579   8.176
77936SOL    HW235706   2.439   1.713   8.245
77937SOL     OW35707   8.942   5.388  11.399
77937SOL    HW135708   8.865   5.427  11.359
77937SOL    HW235709   8.925   5.294  11.398
77938SOL     OW35710  13.886   4.177  13.353
77938SOL    HW135711  13.975   4.188  13.321
77938SOL    HW235712  13.893   4.185  13.448
77939SOL     OW35713  12.111  10.617   1.679
77939SOL    HW135714  12.107  10.592   1.587
77939SOL    HW235715  12.194  10.664   1.688
77940SOL     OW35716  10.515   8.130  12.370
77940SOL    HW135717  10.484   8.050  12.328
77940SOL    HW235718  10.545   8.102  12.457
77941SOL     OW35719  12.487   6.309  12.818
77941SOL    HW135720  12.553   6.242  12.798
77941SOL    HW235721  12.483   6.312  12.913
77942SOL     OW35722   3.952   0.725   3.842
77942SOL    HW135723   4.003   0.794   3.799
77942SOL    HW235724   3.976   0.645   3.796
77943SOL     OW35725  14.659   1.834   7.823
77943SOL    HW135726  14.615   1.900   7.877
77943SOL    HW235727  14.676   1.878   7.740
77944SOL     OW35728  10.823   3.061  11.442
77944SOL    HW135729  10.862   2.977  11.415
77944SOL    HW235730  10.847   3.122  11.372
77945SOL     OW35731   4.670   3.883   3.784
77945SOL    HW135732   4.679   3.797   3.744
77945SOL    HW235733   4.742   3.935   3.748
77946SOL     OW35734   5.640  11.486   4.916
77946SOL    HW135735   5.692  11.412   4.884
77946SOL    HW235736   5.575  11.447   4.973
77947SOL     OW35737   6.855   7.956   5.211
77947SOL    HW135738   6.861   7.980   5.304
77947SOL    HW235739   6.909   8.021   5.167
77948SOL     OW35740   8.012   6.305   9.858
77948SOL    HW135741   8.057   6.274   9.780
77948SOL    HW235742   7.982   6.393   9.835
77949SOL     OW35743   2.817   7.293  13.084
77949SOL    HW135744   2.758   7.218  13.090
77949SOL    HW235745   2.900   7.261  13.120
77950SOL     OW35746   6.849  10.000   1.834
77950SOL    HW135747   6.922  10.059   1.849
77950SOL    HW235748   6.888   9.912   1.836
77951SOL     OW35749   3.710   7.816   3.812
77951SOL    HW135750   3.757   7.840   3.892
77951SOL    HW235751   3.777   7.807   3.745
77952SOL     OW35752   8.084  12.364  12.252
77952SOL    HW135753   8.149  12.368  12.323
77952SOL    HW235754   8.055  12.273  12.251
77953SOL     OW35755   0.894   7.663   5.013
77953SOL    HW135756   0.889   7.723   5.087
77953SOL    HW235757   0.883   7.719   4.936
77954SOL     OW35758   1.054   7.898  12.964
77954SOL    HW135759   0.988   7.846  13.010
77954SOL    HW235760   1.024   7.989  12.976
77955SOL     OW35761   9.385  12.893   9.902
77955SOL    HW135762   9.438  12.926   9.974
77955SOL    HW235763   9.441  12.830   9.857
77956SOL     OW35764  10.858  11.546   1.968
77956SOL    HW135765  10.808  11.623   1.940
77956SOL    HW235766  10.852  11.548   2.064
77957SOL     OW35767  10.746  13.351   0.541
77957SOL    HW135768  10.755  13.433   0.590
77957SOL    HW235769  10.835  13.315   0.540
77958SOL     OW35770   7.871   1.836  14.340
77958SOL    HW135771   7.945   1.781  14.367
77958SOL    HW235772   7.795   1.778  14.345
77959SOL     OW35773   8.956   9.686   8.415
77959SOL    HW135774   8.935   9.749   8.484
77959SOL    HW235775   8.871   9.656   8.383
77960SOL     OW35776   5.574   2.531   6.283
77960SOL    HW135777   5.660   2.573   6.282
77960SOL    HW235778   5.537   2.549   6.197
77961SOL     OW35779  10.951   2.394  11.725
77961SOL    HW135780  11.045   2.388  11.707
77961SOL    HW235781  10.942   2.474  11.776
77962SOL     OW35782   3.428   8.451  10.875
77962SOL    HW135783   3.478   8.531  10.859
77962SOL    HW235784   3.490   8.380  10.858
77963SOL     OW35785  12.641  13.948  11.363
77963SOL    HW135786  12.573  13.881  11.363
77963SOL    HW235787  12.694  13.929  11.440
77964SOL     OW35788   8.180   8.451  11.512
77964SOL    HW135789   8.092   8.486  11.527
77964SOL    HW235790   8.228   8.473  11.592
77965SOL     OW35791   7.222   2.936   4.427
77965SOL    HW135792   7.272   2.969   4.501
77965SOL    HW235793   7.131   2.953   4.450
77966SOL     OW35794   0.380   6.792   3.835
77966SOL    HW135795   0.372   6.873   3.785
77966SOL    HW235796   0.444   6.740   3.787
77967SOL     OW35797   6.879   9.972   6.687
77967SOL    HW135798   6.942  10.007   6.750
77967SOL    HW235799   6.819   9.920   6.741
77968SOL     OW35800   6.748  11.920   3.316
77968SOL    HW135801   6.690  11.882   3.382
77968SOL    HW235802   6.728  11.872   3.236
77969SOL     OW35803   3.008   2.913   4.000
77969SOL    HW135804   2.966   2.967   4.066
77969SOL    HW235805   2.970   2.941   3.917
77970SOL     OW35806   2.522   8.230  13.405
77970SOL    HW135807   2.476   8.165  13.459
77970SOL    HW235808   2.543   8.301  13.466
77971SOL     OW35809   7.237   7.689   9.705
77971SOL    HW135810   7.175   7.739   9.652
77971SOL    HW235811   7.203   7.599   9.704
77972SOL     OW35812   4.775   2.717  12.962
77972SOL    HW135813   4.757   2.750  12.874
77972SOL    HW235814   4.862   2.677  12.954
77973SOL     OW35815  10.820   6.571  11.706
77973SOL    HW135816  10.798   6.512  11.778
77973SOL    HW235817  10.877   6.636  11.745
77974SOL     OW35818  12.135   8.243  14.317
77974SOL    HW135819  12.146   8.153  14.288
77974SOL    HW235820  12.184   8.248  14.399
77975SOL     OW35821  10.821   9.667   9.529
77975SOL    HW135822  10.909   9.704   9.532
77975SOL    HW235823  10.796   9.659   9.621
77976SOL     OW35824   0.101  13.134   3.689
77976SOL    HW135825   0.032  13.159   3.750
77976SOL    HW235826   0.160  13.209   3.687
77977SOL     OW35827   9.529  11.149  14.431
77977SOL    HW135828   9.542  11.219  14.495
77977SOL    HW235829   9.577  11.074  14.467
77978SOL     OW35830   5.277   7.721   9.615
77978SOL    HW135831   5.231   7.658   9.560
77978SOL    HW235832   5.349   7.752   9.559
77979SOL     OW35833   7.790   7.642   5.025
77979SOL    HW135834   7.741   7.676   4.951
77979SOL    HW235835   7.740   7.668   5.102
77980SOL     OW35836   4.735  11.039   7.282
77980SOL    HW135837   4.663  11.022   7.343
77980SOL    HW235838   4.798  10.969   7.299
77981SOL     OW35839  12.179   7.636   6.731
77981SOL    HW135840  12.270   7.645   6.756
77981SOL    HW235841  12.169   7.543   6.710
77982SOL     OW35842   1.530   9.819  11.107
77982SOL    HW135843   1.464   9.878  11.071
77982SOL    HW235844   1.597   9.877  11.143
77983SOL     OW35845  12.667  14.131   4.361
77983SOL    HW135846  12.659  14.201   4.426
77983SOL    HW235847  12.718  14.063   4.405
77984SOL     OW35848   9.732  14.043   6.822
77984SOL    HW135849   9.714  13.950   6.807
77984SOL    HW235850   9.791  14.044   6.898
77985SOL     OW35851   2.860   6.597   8.575
77985SOL    HW135852   2.811   6.677   8.557
77985SOL    HW235853   2.949   6.627   8.595
77986SOL     OW35854  12.736  13.943   8.643
77986SOL    HW135855  12.657  13.947   8.590
77986SOL    HW235856  12.793  14.012   8.608
77987SOL     OW35857   5.237   2.150  12.900
77987SOL    HW135858   5.167   2.208  12.930
77987SOL    HW235859   5.201   2.062  12.909
77988SOL     OW35860   1.223  14.835  11.569
77988SOL    HW135861   1.276   0.047  11.571
77988SOL    HW235862   1.134  14.866  11.552
77989SOL     OW35863   8.563   7.770   0.827
77989SOL    HW135864   8.520   7.690   0.856
77989SOL    HW235865   8.534   7.782   0.736
77990SOL     OW35866   5.859   9.477   8.343
77990SOL    HW135867   5.788   9.499   8.283
77990SOL    HW235868   5.912   9.413   8.295
77991SOL     OW35869   2.013  14.137   6.727
77991SOL    HW135870   2.016  14.087   6.645
77991SOL    HW235871   1.920  14.154   6.741
77992SOL     OW35872   5.219  12.139  12.232
77992SOL    HW135873   5.290  12.080  12.207
77992SOL    HW235874   5.146  12.081  12.253
77993SOL     OW35875   8.339   0.908  12.564
77993SOL    HW135876   8.248   0.881  12.573
77993SOL    HW235877   8.370   0.920  12.654
77994SOL     OW35878  13.342  14.351   1.300
77994SOL    HW135879  13.257  14.392   1.313
77994SOL    HW235880  13.373  14.332   1.389
77995SOL     OW35881   9.236   1.382   5.904
77995SOL    HW135882   9.183   1.461   5.913
77995SOL    HW235883   9.325   1.410   5.925
77996SOL     OW35884   8.024   5.567   4.080
77996SOL    HW135885   8.041   5.538   4.170
77996SOL    HW235886   7.938   5.609   4.084
77997SOL     OW35887   0.380   5.374   8.392
77997SOL    HW135888   0.373   5.365   8.487
77997SOL    HW235889   0.456   5.320   8.369
77998SOL     OW35890   9.581   0.362   9.045
77998SOL    HW135891   9.517   0.291   9.041
77998SOL    HW235892   9.598   0.384   8.954
77999SOL     OW35893   4.810  14.223   1.252
77999SOL    HW135894   4.905  14.215   1.241
77999SOL    HW235895   4.797  14.229   1.347
78000SOL     OW35896   9.856   0.235  12.990
78000SOL    HW135897   9.923   0.206  12.928
78000SOL    HW235898   9.895   0.222  13.076
78001SOL     OW35899   2.762   7.163  10.126
78001SOL    HW135900   2.833   7.099  10.134
78001SOL    HW235901   2.720   7.142  10.043
78002SOL     OW35902   1.180  13.429   7.527
78002SOL    HW135903   1.181  13.495   7.457
78002SOL    HW235904   1.188  13.480   7.607
78003SOL     OW35905   2.099  13.111  12.362
78003SOL    HW135906   2.057  13.107  12.447
78003SOL    HW235907   2.192  13.099  12.381
78004SOL     OW35908   0.250   0.935  14.552
78004SOL    HW135909   0.164   0.904  14.578
78004SOL    HW235910   0.306   0.857  14.554
78005SOL     OW35911   2.096  13.105   8.190
78005SOL    HW135912   2.138  13.120   8.105
78005SOL    HW235913   2.007  13.139   8.179
78006SOL     OW35914   8.652  13.998   8.631
78006SOL    HW135915   8.663  13.946   8.711
78006SOL    HW235916   8.733  14.047   8.623
78007SOL     OW35917   6.463  12.159   0.496
78007SOL    HW135918   6.390  12.191   0.548
78007SOL    HW235919   6.449  12.064   0.491
78008SOL     OW35920   7.669  14.484  10.522
78008SOL    HW135921   7.677  14.476  10.427
78008SOL    HW235922   7.740  14.431  10.557
78009SOL     OW35923   5.703   0.393   8.364
78009SOL    HW135924   5.649   0.366   8.289
78009SOL    HW235925   5.790   0.409   8.326
78010SOL     OW35926   6.213   0.976  14.417
78010SOL    HW135927   6.306   0.988  14.436
78010SOL    HW235928   6.201   0.881  14.416
78011SOL     OW35929   1.292  13.974   0.074
78011SOL    HW135930   1.249  14.028   0.008
78011SOL    HW235931   1.264  13.884   0.053
78012SOL     OW35932   7.323   2.263  13.524
78012SOL    HW135933   7.335   2.218  13.607
78012SOL    HW235934   7.407   2.254  13.479
78013SOL     OW35935   4.068   8.654   2.889
78013SOL    HW135936   4.058   8.748   2.902
78013SOL    HW235937   4.162   8.638   2.900
78014SOL     OW35938   2.071   1.914  12.336
78014SOL    HW135939   1.995   1.970  12.322
78014SOL    HW235940   2.139   1.950  12.280
78015SOL     OW35941  14.348   2.864   6.668
78015SOL    HW135942  14.321   2.784   6.623
78015SOL    HW235943  14.379   2.922   6.598
78016SOL     OW35944   6.181   2.021   8.308
78016SOL    HW135945   6.230   2.051   8.232
78016SOL    HW235946   6.245   1.972   8.360
78017SOL     OW35947   9.541  10.857   3.071
78017SOL    HW135948   9.451  10.856   3.104
78017SOL    HW235949   9.548  10.940   3.024
78018SOL     OW35950  11.904  13.917  14.188
78018SOL    HW135951  11.971  13.974  14.150
78018SOL    HW235952  11.933  13.828  14.167
78019SOL     OW35953   2.162   5.639   3.662
78019SOL    HW135954   2.182   5.732   3.672
78019SOL    HW235955   2.170   5.623   3.568
78020SOL     OW35956   5.739   2.293   8.548
78020SOL    HW135957   5.684   2.228   8.504
78020SOL    HW235958   5.816   2.302   8.492
78021SOL     OW35959   5.513   6.921   3.524
78021SOL    HW135960   5.553   6.925   3.437
78021SOL    HW235961   5.439   6.981   3.520
78022SOL     OW35962   0.310  14.684   1.980
78022SOL    HW135963   0.313  14.703   2.073
78022SOL    HW235964   0.375  14.614   1.967
78023SOL     OW35965  14.178   5.036  10.354
78023SOL    HW135966  14.229   5.098  10.302
78023SOL    HW235967  14.216   5.042  10.442
78024SOL     OW35968   9.487   7.076  10.870
78024SOL    HW135969   9.570   7.030  10.866
78024SOL    HW235970   9.482   7.125  10.788
78025SOL     OW35971  11.962   6.104  10.260
78025SOL    HW135972  12.005   6.159  10.195
78025SOL    HW235973  11.903   6.048  10.209
78026SOL     OW35974   9.272   9.727   9.483
78026SOL    HW135975   9.293   9.721   9.390
78026SOL    HW235976   9.328   9.797   9.516
78027SOL     OW35977   1.715  11.690   1.057
78027SOL    HW135978   1.662  11.640   0.995
78027SOL    HW235979   1.694  11.781   1.039
78028SOL     OW35980  14.312   4.777   0.081
78028SOL    HW135981  14.356   4.852   0.123
78028SOL    HW235982  14.383   4.715   0.065
78029SOL     OW35983   1.725   3.677   6.240
78029SOL    HW135984   1.645   3.625   6.242
78029SOL    HW235985   1.738   3.698   6.148
78030SOL     OW35986   6.221   5.722   1.713
78030SOL    HW135987   6.296   5.711   1.654
78030SOL    HW235988   6.238   5.807   1.756
78031SOL     OW35989  12.481   5.450  13.702
78031SOL    HW135990  12.496   5.410  13.617
78031SOL    HW235991  12.541   5.404  13.761
78032SOL     OW35992   2.573   5.008  10.948
78032SOL    HW135993   2.524   5.055  10.881
78032SOL    HW235994   2.547   4.916  10.936
78033SOL     OW35995   1.159   5.750   4.287
78033SOL    HW135996   1.228   5.785   4.231
78033SOL    HW235997   1.169   5.655   4.280
78034SOL     OW35998  10.761   2.007  13.182
78034SOL    HW135999  10.724   1.948  13.117
78034SOL    HW236000  10.784   1.951  13.256
78035SOL     OW36001   3.711   5.404  14.558
78035SOL    HW136002   3.655   5.364  14.491
78035SOL    HW236003   3.734   5.333  14.617
78036SOL     OW36004   2.204   8.889   8.116
78036SOL    HW136005   2.288   8.899   8.071
78036SOL    HW236006   2.166   8.809   8.079
78037SOL     OW36007   5.894   1.549   9.543
78037SOL    HW136008   5.899   1.456   9.521
78037SOL    HW236009   5.859   1.591   9.464
78038SOL     OW36010  13.374   3.828  11.671
78038SOL    HW136011  13.433   3.883  11.619
78038SOL    HW236012  13.307   3.889  11.702
78039SOL     OW36013   8.250   7.689  11.713
78039SOL    HW136014   8.334   7.643  11.720
78039SOL    HW236015   8.227   7.711  11.803
78040SOL     OW36016  14.822   6.085  12.462
78040SOL    HW136017  14.863   6.038  12.534
78040SOL    HW236018   0.007   6.164  12.450
78041SOL     OW36019  10.205  11.323   2.555
78041SOL    HW136020  10.139  11.263   2.521
78041SOL    HW236021  10.282  11.308   2.500
78042SOL     OW36022   4.109   6.168   7.318
78042SOL    HW136023   4.073   6.119   7.393
78042SOL    HW236024   4.203   6.171   7.334
78043SOL     OW36025   2.637   0.860   2.916
78043SOL    HW136026   2.547   0.893   2.905
78043SOL    HW236027   2.664   0.835   2.828
78044SOL     OW36028   1.802  13.658  10.058
78044SOL    HW136029   1.804  13.576  10.009
78044SOL    HW236030   1.819  13.726   9.993
78045SOL     OW36031  12.027  14.377   4.368
78045SOL    HW136032  12.032  14.363   4.463
78045SOL    HW236033  11.962  14.448   4.358
78046SOL     OW36034  14.835   2.127  11.576
78046SOL    HW136035  14.857   2.101  11.487
78046SOL    HW236036   0.026   2.076  11.632
78047SOL     OW36037   6.522  11.035   4.038
78047SOL    HW136038   6.559  11.028   4.126
78047SOL    HW236039   6.440  10.986   4.043
78048SOL     OW36040  13.520   2.173   3.897
78048SOL    HW136041  13.475   2.100   3.854
78048SOL    HW236042  13.481   2.252   3.858
78049SOL     OW36043   2.059   0.914   7.217
78049SOL    HW136044   2.124   0.844   7.221
78049SOL    HW236045   2.079   0.961   7.136
78050SOL     OW36046   5.296   1.751   0.002
78050SOL    HW136047   5.274   1.691   0.074
78050SOL    HW236048   5.231   1.732  14.802
78051SOL     OW36049   1.697   9.520   7.025
78051SOL    HW136050   1.666   9.610   7.038
78051SOL    HW236051   1.772   9.512   7.084
78052SOL     OW36052   3.540  11.057   5.674
78052SOL    HW136053   3.620  11.086   5.630
78052SOL    HW236054   3.515  10.977   5.628
78053SOL     OW36055   9.194   1.351   7.700
78053SOL    HW136056   9.121   1.290   7.706
78053SOL    HW236057   9.254   1.311   7.637
78054SOL     OW36058   5.955   0.528   1.695
78054SOL    HW136059   5.885   0.469   1.667
78054SOL    HW236060   6.028   0.470   1.715
78055SOL     OW36061  14.656  14.308   1.481
78055SOL    HW136062  14.711  14.235   1.510
78055SOL    HW236063  14.625  14.349   1.562
78056SOL     OW36064   3.779  12.507  14.831
78056SOL    HW136065   3.832  12.470  14.761
78056SOL    HW236066   3.818  12.473   0.044
78057SOL     OW36067   3.834  12.314   3.878
78057SOL    HW136068   3.787  12.315   3.962
78057SOL    HW236069   3.791  12.381   3.826
78058SOL     OW36070   3.846   1.219  14.487
78058SOL    HW136071   3.924   1.164  14.497
78058SOL    HW236072   3.792   1.199  14.563
78059SOL     OW36073   5.071  13.047   4.695
78059SOL    HW136074   5.044  12.964   4.658
78059SOL    HW236075   5.021  13.055   4.776
78060SOL     OW36076   1.628   7.174   0.393
78060SOL    HW136077   1.604   7.085   0.416
78060SOL    HW236078   1.574   7.195   0.317
78061SOL     OW36079   0.587  14.687   9.514
78061SOL    HW136080   0.645  14.760   9.532
78061SOL    HW236081   0.646  14.614   9.495
78062SOL     OW36082   4.724   4.892   2.227
78062SOL    HW136083   4.768   4.924   2.305
78062SOL    HW236084   4.697   4.802   2.249
78063SOL     OW36085  12.124   8.302  12.972
78063SOL    HW136086  12.176   8.382  12.972
78063SOL    HW236087  12.070   8.308  13.051
78064SOL     OW36088   3.574   3.593   5.025
78064SOL    HW136089   3.583   3.688   5.031
78064SOL    HW236090   3.524   3.579   4.945
78065SOL     OW36091  13.625   0.403   6.987
78065SOL    HW136092  13.539   0.441   6.970
78065SOL    HW236093  13.679   0.477   7.013
78066SOL     OW36094   5.157  14.771   9.777
78066SOL    HW136095   5.122  14.699   9.723
78066SOL    HW236096   5.239  14.736   9.812
78067SOL     OW36097  12.457   9.984  14.497
78067SOL    HW136098  12.390  10.047  14.521
78067SOL    HW236099  12.470   9.997  14.403
78068SOL     OW36100  13.023  12.007   6.803
78068SOL    HW136101  13.032  11.947   6.729
78068SOL    HW236102  13.091  11.980   6.864
78069SOL     OW36103  11.900   4.911   0.870
78069SOL    HW136104  11.813   4.927   0.834
78069SOL    HW236105  11.940   4.998   0.875
78070SOL     OW36106  13.969   1.279   9.634
78070SOL    HW136107  13.932   1.203   9.588
78070SOL    HW236108  14.057   1.288   9.598
78071SOL     OW36109   5.585   2.500  12.849
78071SOL    HW136110   5.675   2.470  12.861
78071SOL    HW236111   5.532   2.439  12.901
78072SOL     OW36112   1.470   5.090   3.948
78072SOL    HW136113   1.434   5.172   3.914
78072SOL    HW236114   1.438   5.023   3.888
78073SOL     OW36115   5.289   6.120   7.564
78073SOL    HW136116   5.257   6.196   7.614
78073SOL    HW236117   5.375   6.101   7.601
78074SOL     OW36118   7.006  13.649  10.232
78074SOL    HW136119   7.065  13.722  10.213
78074SOL    HW236120   6.993  13.606  10.147
78075SOL     OW36121   1.440   7.876   3.736
78075SOL    HW136122   1.380   7.950   3.721
78075SOL    HW236123   1.517   7.896   3.684
78076SOL     OW36124   7.522  13.871   4.803
78076SOL    HW136125   7.434  13.845   4.776
78076SOL    HW236126   7.537  13.824   4.885
78077SOL     OW36127   5.507   4.373   8.646
78077SOL    HW136128   5.471   4.292   8.609
78077SOL    HW236129   5.440   4.405   8.705
78078SOL     OW36130   5.059   0.489  10.422
78078SOL    HW136131   5.022   0.575  10.404
78078SOL    HW236132   5.140   0.507  10.470
78079SOL     OW36133  10.042   8.565   6.085
78079SOL    HW136134  10.013   8.598   6.000
78079SOL    HW236135  10.069   8.475   6.068
78080SOL     OW36136   5.135   7.049   2.067
78080SOL    HW136137   5.068   7.115   2.085
78080SOL    HW236138   5.207   7.097   2.027
78081SOL     OW36139   2.787   7.984  13.799
78081SOL    HW136140   2.717   7.934  13.841
78081SOL    HW236141   2.851   7.998  13.868
78082SOL     OW36142  14.107   3.193  14.656
78082SOL    HW136143  14.074   3.103  14.656
78082SOL    HW236144  14.066   3.233  14.579
78083SOL     OW36145   1.889   0.362  11.695
78083SOL    HW136146   1.984   0.373  11.699
78083SOL    HW236147   1.876   0.277  11.653
78084SOL     OW36148  11.038   5.192   6.416
78084SOL    HW136149  11.108   5.152   6.366
78084SOL    HW236150  10.997   5.120   6.463
78085SOL     OW36151  13.223   3.870   8.956
78085SOL    HW136152  13.166   3.865   8.879
78085SOL    HW236153  13.224   3.962   8.980
78086SOL     OW36154   0.382   4.847   5.487
78086SOL    HW136155   0.315   4.819   5.549
78086SOL    HW236156   0.359   4.804   5.405
78087SOL     OW36157   5.154   7.955   6.415
78087SOL    HW136158   5.126   8.025   6.356
78087SOL    HW236159   5.233   7.990   6.457
78088SOL     OW36160   7.382   9.741   4.014
78088SOL    HW136161   7.378   9.827   4.055
78088SOL    HW236162   7.304   9.738   3.958
78089SOL     OW36163   8.847   0.712   9.182
78089SOL    HW136164   8.920   0.685   9.238
78089SOL    HW236165   8.772   0.662   9.214
78090SOL     OW36166   7.735   0.737   2.995
78090SOL    HW136167   7.693   0.823   2.988
78090SOL    HW236168   7.759   0.715   2.906
78091SOL     OW36169   4.298   7.491   0.372
78091SOL    HW136170   4.299   7.395   0.370
78091SOL    HW236171   4.206   7.514   0.380
78092SOL     OW36172   7.904   5.024   4.390
78092SOL    HW136173   7.876   5.114   4.410
78092SOL    HW236174   7.933   4.989   4.474
78093SOL     OW36175   0.648   2.717  12.764
78093SOL    HW136176   0.690   2.690  12.682
78093SOL    HW236177   0.581   2.780  12.736
78094SOL     OW36178   6.850   9.860  11.187
78094SOL    HW136179   6.781   9.820  11.241
78094SOL    HW236180   6.857   9.950  11.219
78095SOL     OW36181   4.361  12.392   4.170
78095SOL    HW136182   4.283  12.361   4.123
78095SOL    HW236183   4.428  12.400   4.103
78096SOL     OW36184  12.058   4.461  12.283
78096SOL    HW136185  12.128   4.526  12.271
78096SOL    HW236186  11.984   4.495  12.233
78097SOL     OW36187   6.856   8.169   9.563
78097SOL    HW136188   6.781   8.226   9.583
78097SOL    HW236189   6.925   8.230   9.538
78098SOL     OW36190   8.812   7.680  10.315
78098SOL    HW136191   8.814   7.599  10.264
78098SOL    HW236192   8.898   7.684  10.356
78099SOL     OW36193   5.495  11.336  14.529
78099SOL    HW136194   5.463  11.262  14.580
78099SOL    HW236195   5.492  11.410  14.589
78100SOL     OW36196   7.164  14.865  11.876
78100SOL    HW136197   7.136  14.841  11.964
78100SOL    HW236198   7.258  14.848  11.875
78101SOL     OW36199   0.045   7.470   2.430
78101SOL    HW136200   0.039   7.565   2.424
78101SOL    HW236201  14.823   7.441   2.444
78102SOL     OW36202   4.030  13.878   6.029
78102SOL    HW136203   3.976  13.952   6.056
78102SOL    HW236204   4.052  13.896   5.938
78103SOL     OW36205  13.539  11.402   2.713
78103SOL    HW136206  13.484  11.480   2.707
78103SOL    HW236207  13.600  11.421   2.784
78104SOL     OW36208   4.406   2.185   9.887
78104SOL    HW136209   4.311   2.183   9.890
78104SOL    HW236210   4.431   2.100   9.851
78105SOL     OW36211   4.810  12.456  12.357
78105SOL    HW136212   4.746  12.405  12.406
78105SOL    HW236213   4.852  12.512  12.423
78106SOL     OW36214   8.341   8.700  13.808
78106SOL    HW136215   8.355   8.758  13.733
78106SOL    HW236216   8.350   8.611  13.772
78107SOL     OW36217   8.972   4.597  12.243
78107SOL    HW136218   9.008   4.531  12.184
78107SOL    HW236219   8.890   4.624  12.202
78108SOL     OW36220   7.210  10.389   8.323
78108SOL    HW136221   7.273  10.431   8.265
78108SOL    HW236222   7.257  10.376   8.405
78109SOL     OW36223   1.640  11.709  11.048
78109SOL    HW136224   1.608  11.749  10.967
78109SOL    HW236225   1.573  11.645  11.071
78110SOL     OW36226   2.920   1.892   6.949
78110SOL    HW136227   2.946   1.909   6.858
78110SOL    HW236228   2.990   1.838   6.984
78111SOL     OW36229  11.251  13.852   1.324
78111SOL    HW136230  11.300  13.920   1.370
78111SOL    HW236231  11.161  13.884   1.325
78112SOL     OW36232   1.169   1.642   0.494
78112SOL    HW136233   1.109   1.710   0.462
78112SOL    HW236234   1.213   1.683   0.568
78113SOL     OW36235   0.876   8.619   1.721
78113SOL    HW136236   0.784   8.593   1.712
78113SOL    HW236237   0.925   8.537   1.722
78114SOL     OW36238  10.982   8.973  13.097
78114SOL    HW136239  11.042   9.047  13.084
78114SOL    HW236240  10.953   8.950  13.009
78115SOL     OW36241  12.323  11.761  14.588
78115SOL    HW136242  12.263  11.835  14.591
78115SOL    HW236243  12.271  11.689  14.552
78116SOL     OW36244   1.490   1.521   4.826
78116SOL    HW136245   1.429   1.499   4.897
78116SOL    HW236246   1.523   1.436   4.795
78117SOL     OW36247   3.884   3.523  13.428
78117SOL    HW136248   3.910   3.441  13.470
78117SOL    HW236249   3.907   3.512  13.336
78118SOL     OW36250   2.261   4.444   2.279
78118SOL    HW136251   2.265   4.529   2.234
78118SOL    HW236252   2.329   4.448   2.345
78119SOL     OW36253   8.548   3.188   1.208
78119SOL    HW136254   8.623   3.152   1.161
78119SOL    HW236255   8.502   3.241   1.143
78120SOL     OW36256   9.552   0.390  10.938
78120SOL    HW136257   9.486   0.408  11.006
78120SOL    HW236258   9.513   0.424  10.858
78121SOL     OW36259  13.613  12.481  12.969
78121SOL    HW136260  13.628  12.575  12.956
78121SOL    HW236261  13.518  12.472  12.961
78122SOL     OW36262  10.767   0.616  13.446
78122SOL    HW136263  10.813   0.559  13.508
78122SOL    HW236264  10.832   0.680  13.419
78123SOL     OW36265   4.089   5.128  12.642
78123SOL    HW136266   4.114   5.150  12.552
78123SOL    HW236267   4.045   5.207  12.674
78124SOL     OW36268   7.761   6.310  10.902
78124SOL    HW136269   7.675   6.351  10.891
78124SOL    HW236270   7.820   6.364  10.850
78125SOL     OW36271  12.477  12.915  12.071
78125SOL    HW136272  12.554  12.883  12.117
78125SOL    HW236273  12.403  12.869  12.112
78126SOL     OW36274  12.526   7.832  14.746
78126SOL    HW136275  12.489   7.845  14.834
78126SOL    HW236276  12.593   7.899  14.737
78127SOL     OW36277   9.080   1.368   2.763
78127SOL    HW136278   9.055   1.388   2.673
78127SOL    HW236279   9.006   1.398   2.816
78128SOL     OW36280  11.240   1.685   9.631
78128SOL    HW136281  11.182   1.707   9.704
78128SOL    HW236282  11.208   1.738   9.558
78129SOL     OW36283   2.292   8.168  13.005
78129SOL    HW136284   2.302   8.232  12.934
78129SOL    HW236285   2.376   8.171  13.051
78130SOL     OW36286  12.832  14.536  14.593
78130SOL    HW136287  12.782  14.484  14.656
78130SOL    HW236288  12.822  14.490  14.510
78131SOL     OW36289   6.577   7.850  12.574
78131SOL    HW136290   6.590   7.925  12.631
78131SOL    HW236291   6.625   7.872  12.494
78132SOL     OW36292   7.658   3.033   4.721
78132SOL    HW136293   7.688   3.017   4.811
78132SOL    HW236294   7.637   3.127   4.719
78133SOL     OW36295  13.998   1.083   3.790
78133SOL    HW136296  14.089   1.094   3.762
78133SOL    HW236297  14.003   1.025   3.865
78134SOL     OW36298  13.269   7.912   3.997
78134SOL    HW136299  13.201   7.978   3.982
78134SOL    HW236300  13.351   7.961   3.990
78135SOL     OW36301   4.536  14.353   4.223
78135SOL    HW136302   4.471  14.400   4.171
78135SOL    HW236303   4.567  14.418   4.286
78136SOL     OW36304   8.850   7.868  11.248
78136SOL    HW136305   8.768   7.908  11.218
78136SOL    HW236306   8.834   7.774  11.241
78137SOL     OW36307   8.424   8.715   6.972
78137SOL    HW136308   8.393   8.706   7.062
78137SOL    HW236309   8.474   8.796   6.971
78138SOL     OW36310   9.711  10.650  10.239
78138SOL    HW136311   9.783  10.711  10.249
78138SOL    HW236312   9.661  10.658  10.320
78139SOL     OW36313   2.281   6.310   9.329
78139SOL    HW136314   2.287   6.334   9.421
78139SOL    HW236315   2.222   6.234   9.327
78140SOL     OW36316   0.557   1.049  12.252
78140SOL    HW136317   0.614   1.099  12.311
78140SOL    HW236318   0.468   1.071  12.279
78141SOL     OW36319   4.414   0.024   3.572
78141SOL    HW136320   4.459  14.854   3.497
78141SOL    HW236321   4.415  14.824   3.639
78142SOL     OW36322  13.951   9.185  10.042
78142SOL    HW136323  13.881   9.146   9.989
78142SOL    HW236324  14.030   9.176   9.988
78143SOL     OW36325  14.158  11.229  11.110
78143SOL    HW136326  14.239  11.237  11.059
78143SOL    HW236327  14.166  11.294  11.180
78144SOL     OW36328   5.106   2.010  12.471
78144SOL    HW136329   5.161   2.048  12.539
78144SOL    HW236330   5.017   2.021  12.503
78145SOL     OW36331   8.423   3.689  13.613
78145SOL    HW136332   8.362   3.637  13.665
78145SOL    HW236333   8.391   3.683  13.523
78146SOL     OW36334   7.090  13.176   2.600
78146SOL    HW136335   7.107  13.105   2.539
78146SOL    HW236336   7.164  13.174   2.661
78147SOL     OW36337  11.514   7.416   6.202
78147SOL    HW136338  11.579   7.487   6.202
78147SOL    HW236339  11.432   7.459   6.178
78148SOL     OW36340   9.808   5.708  11.217
78148SOL    HW136341   9.867   5.639  11.188
78148SOL    HW236342   9.738   5.709  11.151
78149SOL     OW36343   4.332  14.587   0.042
78149SOL    HW136344   4.283  14.506   0.034
78149SOL    HW236345   4.331  14.607   0.136
78150SOL     OW36346  10.936   6.846  12.482
78150SOL    HW136347  11.009   6.849  12.420
78150SOL    HW236348  10.969   6.889  12.561
78151SOL     OW36349   9.953   6.393  10.484
78151SOL    HW136350   9.965   6.351  10.400
78151SOL    HW236351   9.998   6.336  10.547
78152SOL     OW36352   7.261   7.080  13.066
78152SOL    HW136353   7.168   7.102  13.060
78152SOL    HW236354   7.262   6.987  13.089
78153SOL     OW36355   0.812  13.357   5.127
78153SOL    HW136356   0.774  13.309   5.201
78153SOL    HW236357   0.748  13.425   5.107
78154SOL     OW36358   6.510   0.876  11.116
78154SOL    HW136359   6.456   0.798  11.103
78154SOL    HW236360   6.455   0.949  11.087
78155SOL     OW36361   9.782   0.074   9.505
78155SOL    HW136362   9.736   0.153   9.476
78155SOL    HW236363   9.840   0.103   9.575
78156SOL     OW36364   7.826  13.747   6.659
78156SOL    HW136365   7.851  13.778   6.746
78156SOL    HW236366   7.896  13.687   6.634
78157SOL     OW36367  10.519   6.412   1.581
78157SOL    HW136368  10.540   6.372   1.497
78157SOL    HW236369  10.507   6.337   1.640
78158SOL     OW36370   8.901  13.701   1.848
78158SOL    HW136371   8.969  13.720   1.913
78158SOL    HW236372   8.879  13.609   1.862
78159SOL     OW36373   3.604  13.565   8.160
78159SOL    HW136374   3.576  13.563   8.068
78159SOL    HW236375   3.524  13.583   8.209
78160SOL     OW36376   5.235  11.082  14.367
78160SOL    HW136377   5.281  11.015  14.418
78160SOL    HW236378   5.302  11.146  14.345
78161SOL     OW36379   9.420  10.895  10.525
78161SOL    HW136380   9.454  10.984  10.515
78161SOL    HW236381   9.376  10.895  10.610
78162SOL     OW36382   1.211   1.539   7.833
78162SOL    HW136383   1.122   1.565   7.808
78162SOL    HW236384   1.210   1.444   7.832
78163SOL     OW36385  12.404   7.706   5.377
78163SOL    HW136386  12.418   7.693   5.471
78163SOL    HW236387  12.375   7.797   5.370
78164SOL     OW36388   1.872   5.773   2.829
78164SOL    HW136389   1.794   5.815   2.865
78164SOL    HW236390   1.925   5.846   2.796
78165SOL     OW36391   0.698   9.233   3.491
78165SOL    HW136392   0.645   9.154   3.489
78165SOL    HW236393   0.650   9.296   3.437
78166SOL     OW36394   6.403   5.087  12.614
78166SOL    HW136395   6.396   5.016  12.678
78166SOL    HW236396   6.391   5.167  12.665
78167SOL     OW36397  12.405   4.031   9.843
78167SOL    HW136398  12.387   4.049   9.750
78167SOL    HW236399  12.344   4.087   9.891
78168SOL     OW36400   9.691   8.927   3.780
78168SOL    HW136401   9.722   9.013   3.750
78168SOL    HW236402   9.669   8.941   3.872
78169SOL     OW36403  12.458  14.247   4.636
78169SOL    HW136404  12.404  14.278   4.563
78169SOL    HW236405  12.547  14.270   4.612
78170SOL     OW36406  11.457  12.875   1.973
78170SOL    HW136407  11.430  12.876   2.065
78170SOL    HW236408  11.418  12.795   1.937
78171SOL     OW36409   9.838   8.160   5.617
78171SOL    HW136410   9.801   8.201   5.696
78171SOL    HW236411   9.808   8.215   5.545
78172SOL     OW36412   3.287   2.993   2.629
78172SOL    HW136413   3.324   2.990   2.541
78172SOL    HW236414   3.200   3.032   2.617
78173SOL     OW36415   2.294   7.888   9.055
78173SOL    HW136416   2.200   7.877   9.070
78173SOL    HW236417   2.299   7.936   8.972
78174SOL     OW36418   2.611   8.935  10.134
78174SOL    HW136419   2.519   8.910  10.144
78174SOL    HW236420   2.657   8.854  10.115
78175SOL     OW36421   6.372   1.636  11.403
78175SOL    HW136422   6.371   1.732  11.402
78175SOL    HW236423   6.427   1.611  11.329
78176SOL     OW36424   6.529  11.548   7.444
78176SOL    HW136425   6.596  11.481   7.452
78176SOL    HW236426   6.499  11.563   7.534
78177SOL     OW36427  13.695   1.423  13.036
78177SOL    HW136428  13.666   1.348  12.984
78177SOL    HW236429  13.701   1.495  12.973
78178SOL     OW36430  11.693   8.101  14.317
78178SOL    HW136431  11.767   8.065  14.268
78178SOL    HW236432  11.712   8.195  14.324
78179SOL     OW36433   9.553   2.654  13.551
78179SOL    HW136434   9.486   2.672  13.485
78179SOL    HW236435   9.537   2.563  13.577
78180SOL     OW36436   7.701   8.433   5.187
78180SOL    HW136437   7.618   8.394   5.158
78180SOL    HW236438   7.709   8.513   5.135
78181SOL     OW36439  14.249   8.167  10.122
78181SOL    HW136440  14.267   8.188  10.214
78181SOL    HW236441  14.336   8.152  10.084
78182SOL     OW36442   0.439   2.194   5.903
78182SOL    HW136443   0.348   2.168   5.917
78182SOL    HW236444   0.434   2.287   5.878
78183SOL     OW36445   0.110   9.288  13.413
78183SOL    HW136446   0.160   9.367  13.435
78183SOL    HW236447   0.130   9.227  13.484
78184SOL     OW36448  12.726   2.058   3.382
78184SOL    HW136449  12.719   2.081   3.475
78184SOL    HW236450  12.664   2.115   3.338
78185SOL     OW36451  14.187  14.738  14.609
78185SOL    HW136452  14.249  14.687  14.558
78185SOL    HW236453  14.171  14.816  14.556
78186SOL     OW36454   4.885   3.188   4.721
78186SOL    HW136455   4.796   3.222   4.726
78186SOL    HW236456   4.939   3.265   4.701
78187SOL     OW36457   8.565   2.688  10.972
78187SOL    HW136458   8.622   2.622  11.011
78187SOL    HW236459   8.539   2.744  11.045
78188SOL     OW36460   7.367   8.157  13.506
78188SOL    HW136461   7.360   8.246  13.473
78188SOL    HW236462   7.449   8.124  13.469
78189SOL     OW36463   6.563   4.651   3.405
78189SOL    HW136464   6.595   4.740   3.390
78189SOL    HW236465   6.468   4.656   3.390
78190SOL     OW36466   6.182   3.963  14.411
78190SOL    HW136467   6.208   3.873  14.431
78190SOL    HW236468   6.102   3.976  14.462
78191SOL     OW36469  12.195  13.052   8.653
78191SOL    HW136470  12.165  13.052   8.562
78191SOL    HW236471  12.184  13.143   8.681
78192SOL     OW36472  14.715   9.910   0.996
78192SOL    HW136473  14.751   9.846   0.934
78192SOL    HW236474  14.627   9.877   1.016
78193SOL     OW36475   4.593   1.238   8.696
78193SOL    HW136476   4.522   1.233   8.760
78193SOL    HW236477   4.556   1.202   8.616
78194SOL     OW36478   1.377   4.177  12.611
78194SOL    HW136479   1.330   4.102  12.576
78194SOL    HW236480   1.410   4.223  12.534
78195SOL     OW36481   0.726   4.182   0.700
78195SOL    HW136482   0.742   4.238   0.776
78195SOL    HW236483   0.637   4.205   0.672
78196SOL     OW36484   2.608   8.194  14.522
78196SOL    HW136485   2.681   8.210  14.462
78196SOL    HW236486   2.535   8.169  14.466
78197SOL     OW36487  14.617   3.707  11.453
78197SOL    HW136488  14.610   3.762  11.375
78197SOL    HW236489  14.554   3.637  11.439
78198SOL     OW36490   0.979  12.486   2.943
78198SOL    HW136491   1.060  12.479   2.893
78198SOL    HW236492   0.980  12.575   2.978
78199SOL     OW36493  13.060   3.456   5.515
78199SOL    HW136494  13.020   3.448   5.601
78199SOL    HW236495  13.108   3.375   5.502
78200SOL     OW36496   2.594  10.131   9.642
78200SOL    HW136497   2.522  10.068   9.634
78200SOL    HW236498   2.573  10.180   9.722
78201SOL     OW36499   3.914   6.959   8.878
78201SOL    HW136500   3.957   6.889   8.828
78201SOL    HW236501   3.907   6.923   8.966
78202SOL     OW36502   8.192   5.820   0.068
78202SOL    HW136503   8.110   5.775   0.051
78202SOL    HW236504   8.259   5.763   0.031
78203SOL     OW36505  13.759  10.384  11.132
78203SOL    HW136506  13.841  10.427  11.153
78203SOL    HW236507  13.778  10.334  11.052
78204SOL     OW36508  13.621   1.975   8.481
78204SOL    HW136509  13.550   1.948   8.539
78204SOL    HW236510  13.591   1.950   8.393
78205SOL     OW36511   6.267   9.716  12.891
78205SOL    HW136512   6.325   9.669  12.952
78205SOL    HW236513   6.182   9.715  12.934
78206SOL     OW36514   0.623  13.284   9.242
78206SOL    HW136515   0.601  13.196   9.272
78206SOL    HW236516   0.621  13.277   9.146
78207SOL     OW36517   1.568   5.377   3.397
78207SOL    HW136518   1.551   5.330   3.478
78207SOL    HW236519   1.483   5.415   3.374
78208SOL     OW36520   9.213   0.919   3.140
78208SOL    HW136521   9.182   0.928   3.050
78208SOL    HW236522   9.155   0.976   3.191
78209SOL     OW36523   2.184   4.462   1.268
78209SOL    HW136524   2.145   4.511   1.341
78209SOL    HW236525   2.113   4.451   1.206
78210SOL     OW36526  10.032  13.882   9.847
78210SOL    HW136527  10.006  13.973   9.857
78210SOL    HW236528  10.127  13.885   9.838
78211SOL     OW36529   6.878  10.271   0.933
78211SOL    HW136530   6.788  10.252   0.906
78211SOL    HW236531   6.908  10.191   0.977
78212SOL     OW36532  14.855  12.116   1.368
78212SOL    HW136533  14.825  12.035   1.410
78212SOL    HW236534  14.777  12.154   1.329
78213SOL     OW36535   3.107   7.005   1.908
78213SOL    HW136536   3.194   7.005   1.869
78213SOL    HW236537   3.120   7.041   1.996
78214SOL     OW36538   3.209   5.024   4.146
78214SOL    HW136539   3.225   4.960   4.076
78214SOL    HW236540   3.152   5.090   4.107
78215SOL     OW36541   4.520   2.589   2.712
78215SOL    HW136542   4.610   2.561   2.727
78215SOL    HW236543   4.484   2.604   2.800
78216SOL     OW36544   7.874   5.695   2.747
78216SOL    HW136545   7.905   5.784   2.761
78216SOL    HW236546   7.843   5.667   2.833
78217SOL     OW36547   8.815   9.308   4.153
78217SOL    HW136548   8.836   9.298   4.061
78217SOL    HW236549   8.898   9.332   4.195
78218SOL     OW36550  12.900   9.280   3.028
78218SOL    HW136551  12.889   9.349   2.964
78218SOL    HW236552  12.811   9.258   3.057
78219SOL     OW36553   2.011   0.899   6.903
78219SOL    HW136554   1.932   0.912   6.851
78219SOL    HW236555   1.980   0.857   6.984
78220SOL     OW36556   9.409   4.612  13.623
78220SOL    HW136557   9.422   4.706  13.634
78220SOL    HW236558   9.351   4.604  13.547
78221SOL     OW36559  13.025   4.002  13.841
78221SOL    HW136560  12.945   4.009  13.893
78221SOL    HW236561  12.996   4.013  13.751
78222SOL     OW36562   9.674   0.010   0.041
78222SOL    HW136563   9.768   0.001   0.023
78222SOL    HW236564   9.655   0.102   0.025
78223SOL     OW36565  11.229   1.969   9.960
78223SOL    HW136566  11.203   1.879   9.939
78223SOL    HW236567  11.300   1.988   9.898
78224SOL     OW36568   0.498   4.405   4.017
78224SOL    HW136569   0.497   4.440   3.928
78224SOL    HW236570   0.564   4.457   4.063
78225SOL     OW36571   5.003   7.905  12.643
78225SOL    HW136572   5.098   7.904  12.651
78225SOL    HW236573   4.977   7.812  12.648
78226SOL     OW36574  12.764   0.929  11.979
78226SOL    HW136575  12.858   0.921  11.967
78226SOL    HW236576  12.754   0.965  12.067
78227SOL     OW36577   2.067   0.705   0.783
78227SOL    HW136578   2.008   0.767   0.827
78227SOL    HW236579   2.100   0.649   0.854
78228SOL     OW36580  14.264   9.319   4.618
78228SOL    HW136581  14.184   9.288   4.576
78228SOL    HW236582  14.239   9.336   4.709
78229SOL     OW36583   3.435   7.943  13.598
78229SOL    HW136584   3.519   7.923  13.639
78229SOL    HW236585   3.374   7.949  13.672
78230SOL     OW36586  13.840  13.107   7.559
78230SOL    HW136587  13.831  13.186   7.505
78230SOL    HW236588  13.898  13.050   7.508
78231SOL     OW36589   1.814   4.078   8.538
78231SOL    HW136590   1.797   4.101   8.446
78231SOL    HW236591   1.728   4.082   8.580
78232SOL     OW36592  12.660   4.196   2.662
78232SOL    HW136593  12.603   4.231   2.594
78232SOL    HW236594  12.702   4.274   2.700
78233SOL     OW36595   4.884   0.086   2.489
78233SOL    HW136596   4.866  14.864   2.462
78233SOL    HW236597   4.810   0.110   2.545
78234SOL     OW36598   6.488  14.373  11.877
78234SOL    HW136599   6.409  14.421  11.902
78234SOL    HW236600   6.456  14.301  11.822
78235SOL     OW36601   5.511  13.985   0.266
78235SOL    HW136602   5.466  14.070   0.262
78235SOL    HW236603   5.579  13.991   0.200
78236SOL     OW36604  10.676   1.528   5.925
78236SOL    HW136605  10.689   1.616   5.888
78236SOL    HW236606  10.741   1.523   5.996
78237SOL     OW36607   6.515   0.039  13.218
78237SOL    HW136608   6.576  14.860  13.274
78237SOL    HW236609   6.460  14.837  13.180
78238SOL     OW36610  12.671   4.451   1.646
78238SOL    HW136611  12.614   4.390   1.599
78238SOL    HW236612  12.612   4.517   1.682
78239SOL     OW36613   2.057   3.469   2.730
78239SOL    HW136614   2.061   3.540   2.666
78239SOL    HW236615   2.082   3.391   2.680
78240SOL     OW36616   5.695   9.075   6.359
78240SOL    HW136617   5.755   9.018   6.311
78240SOL    HW236618   5.715   9.058   6.451
78241SOL     OW36619   1.334   3.252   4.229
78241SOL    HW136620   1.352   3.168   4.187
78241SOL    HW236621   1.275   3.230   4.301
78242SOL     OW36622   9.691  12.793   9.909
78242SOL    HW136623   9.763  12.737   9.937
78242SOL    HW236624   9.732  12.860   9.855
78243SOL     OW36625   7.413  10.362  12.502
78243SOL    HW136626   7.326  10.399  12.519
78243SOL    HW236627   7.470  10.406  12.565
78244SOL     OW36628   5.323   9.360   7.213
78244SOL    HW136629   5.417   9.367   7.197
78244SOL    HW236630   5.297   9.277   7.172
78245SOL     OW36631  14.614   5.410   0.890
78245SOL    HW136632  14.694   5.360   0.909
78245SOL    HW236633  14.571   5.419   0.975
78246SOL     OW36634   3.520   8.764   2.380
78246SOL    HW136635   3.564   8.684   2.352
78246SOL    HW236636   3.430   8.754   2.350
78247SOL     OW36637  14.564   5.474  10.037
78247SOL    HW136638  14.622   5.406  10.071
78247SOL    HW236639  14.609   5.556  10.057
78248SOL     OW36640   9.491   8.821  10.795
78248SOL    HW136641   9.540   8.810  10.714
78248SOL    HW236642   9.546   8.876  10.849
78249SOL     OW36643   8.224  13.658  14.709
78249SOL    HW136644   8.167  13.733  14.724
78249SOL    HW236645   8.170  13.597  14.658
78250SOL     OW36646  14.520   2.545   4.318
78250SOL    HW136647  14.483   2.456   4.313
78250SOL    HW236648  14.597   2.542   4.261
78251SOL     OW36649  12.642  12.360   2.058
78251SOL    HW136650  12.661  12.268   2.078
78251SOL    HW236651  12.547  12.363   2.046
78252SOL     OW36652   4.581   6.197   0.856
78252SOL    HW136653   4.525   6.159   0.788
78252SOL    HW236654   4.608   6.122   0.909
78253SOL     OW36655   8.717  13.838   8.397
78253SOL    HW136656   8.649  13.854   8.332
78253SOL    HW236657   8.691  13.893   8.471
78254SOL     OW36658  10.514   0.898   4.698
78254SOL    HW136659  10.461   0.824   4.669
78254SOL    HW236660  10.604   0.866   4.695
78255SOL     OW36661   8.512  11.091   3.582
78255SOL    HW136662   8.438  11.033   3.565
78255SOL    HW236663   8.503  11.162   3.519
78256SOL     OW36664  14.461  14.202   8.186
78256SOL    HW136665  14.393  14.241   8.242
78256SOL    HW236666  14.416  14.133   8.138
78257SOL     OW36667   9.331   6.699  14.151
78257SOL    HW136668   9.424   6.721  14.148
78257SOL    HW236669   9.287   6.780  14.123
78258SOL     OW36670   8.803   3.794   0.173
78258SOL    HW136671   8.779   3.838   0.255
78258SOL    HW236672   8.809   3.865   0.109
78259SOL     OW36673   3.161  14.588   7.725
78259SOL    HW136674   3.166  14.561   7.817
78259SOL    HW236675   3.253  14.595   7.698
78260SOL     OW36676  13.738   2.372   7.828
78260SOL    HW136677  13.802   2.301   7.823
78260SOL    HW236678  13.654   2.330   7.813
78261SOL     OW36679   6.791   0.530   0.956
78261SOL    HW136680   6.782   0.622   0.981
78261SOL    HW236681   6.864   0.498   1.009
78262SOL     OW36682  11.899  12.407   1.083
78262SOL    HW136683  11.975  12.441   1.130
78262SOL    HW236684  11.926  12.406   0.992
78263SOL     OW36685   6.734  10.606   0.781
78263SOL    HW136686   6.768  10.517   0.778
78263SOL    HW236687   6.733  10.635   0.690
78264SOL     OW36688   8.231  10.565   0.670
78264SOL    HW136689   8.173  10.530   0.602
78264SOL    HW236690   8.310  10.511   0.665
78265SOL     OW36691  11.696   7.502   7.752
78265SOL    HW136692  11.770   7.458   7.712
78265SOL    HW236693  11.732   7.583   7.788
78266SOL     OW36694   2.444  13.930   1.045
78266SOL    HW136695   2.527  13.935   0.997
78266SOL    HW236696   2.379  13.960   0.982
78267SOL     OW36697  13.422   0.798   0.831
78267SOL    HW136698  13.496   0.804   0.892
78267SOL    HW236699  13.412   0.704   0.815
78268SOL     OW36700  13.485   1.403   0.388
78268SOL    HW136701  13.499   1.320   0.434
78268SOL    HW236702  13.401   1.392   0.344
78269SOL     OW36703  13.265   5.039   0.499
78269SOL    HW136704  13.294   5.007   0.585
78269SOL    HW236705  13.243   5.131   0.514
78270SOL     OW36706   7.107   0.657  13.661
78270SOL    HW136707   7.167   0.583  13.662
78270SOL    HW236708   7.163   0.734  13.653
78271SOL     OW36709  10.824   2.255  13.739
78271SOL    HW136710  10.790   2.289  13.822
78271SOL    HW236711  10.884   2.323  13.709
78272SOL     OW36712  10.946  12.605   8.911
78272SOL    HW136713  10.958  12.521   8.955
78272SOL    HW236714  11.034  12.637   8.895
78273SOL     OW36715  12.220   7.620  13.867
78273SOL    HW136716  12.269   7.539  13.881
78273SOL    HW236717  12.141   7.594  13.820
78274SOL     OW36718   5.698  12.126  12.594
78274SOL    HW136719   5.785  12.121  12.635
78274SOL    HW236720   5.716  12.121  12.500
78275SOL     OW36721   2.131   2.716   2.690
78275SOL    HW136722   2.083   2.708   2.772
78275SOL    HW236723   2.163   2.628   2.672
78276SOL     OW36724   3.271   6.060   7.111
78276SOL    HW136725   3.264   6.151   7.141
78276SOL    HW236726   3.343   6.061   7.048
78277SOL     OW36727  11.698   6.522   4.274
78277SOL    HW136728  11.761   6.575   4.323
78277SOL    HW236729  11.685   6.570   4.192
78278SOL     OW36730   3.272  13.965  14.732
78278SOL    HW136731   3.195  13.912  14.753
78278SOL    HW236732   3.343  13.901  14.723
78279SOL     OW36733   3.459   4.931   1.359
78279SOL    HW136734   3.408   4.860   1.320
78279SOL    HW236735   3.526   4.888   1.411
78280SOL     OW36736   5.661   4.137   0.306
78280SOL    HW136737   5.587   4.112   0.362
78280SOL    HW236738   5.731   4.160   0.367
78281SOL     OW36739   0.161  14.567   7.640
78281SOL    HW136740   0.142  14.572   7.547
78281SOL    HW236741   0.224  14.638   7.655
78282SOL     OW36742   5.748   0.009  11.477
78282SOL    HW136743   5.827   0.033  11.526
78282SOL    HW236744   5.775  14.803  11.423
78283SOL     OW36745   1.259   7.724   1.303
78283SOL    HW136746   1.339   7.682   1.333
78283SOL    HW236747   1.193   7.654   1.305
78284SOL     OW36748   2.094   3.644   2.196
78284SOL    HW136749   2.075   3.700   2.271
78284SOL    HW236750   2.083   3.701   2.120
78285SOL     OW36751   8.703   3.447   7.145
78285SOL    HW136752   8.739   3.456   7.233
78285SOL    HW236753   8.609   3.434   7.158
78286SOL     OW36754   3.595   7.661   9.818
78286SOL    HW136755   3.593   7.659   9.722
78286SOL    HW236756   3.555   7.745   9.841
78287SOL     OW36757   4.440   0.843   8.931
78287SOL    HW136758   4.472   0.885   8.852
78287SOL    HW236759   4.373   0.903   8.965
78288SOL     OW36760  14.176   2.578   9.216
78288SOL    HW136761  14.177   2.483   9.216
78288SOL    HW236762  14.181   2.603   9.124
78289SOL     OW36763  11.307   4.999  12.807
78289SOL    HW136764  11.310   5.090  12.779
78289SOL    HW236765  11.392   4.963  12.780
78290SOL     OW36766   6.368  14.695   4.294
78290SOL    HW136767   6.449  14.677   4.342
78290SOL    HW236768   6.389  14.674   4.203
78291SOL     OW36769   3.410   8.735   0.509
78291SOL    HW136770   3.482   8.748   0.571
78291SOL    HW236771   3.438   8.781   0.429
78292SOL     OW36772   6.581   5.065  13.380
78292SOL    HW136773   6.539   5.148  13.399
78292SOL    HW236774   6.530   5.028  13.308
78293SOL     OW36775  14.822  11.414   7.831
78293SOL    HW136776   0.019  11.420   7.761
78293SOL    HW236777  14.788  11.325   7.825
78294SOL     OW36778  12.804  14.845  14.293
78294SOL    HW136779  12.877  14.804  14.340
78294SOL    HW236780  12.732  14.783  14.302
78295SOL     OW36781  14.146   1.989   9.256
78295SOL    HW136782  14.139   2.075   9.216
78295SOL    HW236783  14.073   1.985   9.318
78296SOL     OW36784   0.067   7.313  14.306
78296SOL    HW136785   0.029   7.241  14.255
78296SOL    HW236786  14.864   7.341  14.364
78297SOL     OW36787   2.978  13.436  11.316
78297SOL    HW136788   3.014  13.451  11.229
78297SOL    HW236789   2.955  13.343  11.317
78298SOL     OW36790   4.700   5.732   3.150
78298SOL    HW136791   4.755   5.802   3.113
78298SOL    HW236792   4.666   5.769   3.232
78299SOL     OW36793  10.649   0.631  14.270
78299SOL    HW136794  10.681   0.670  14.189
78299SOL    HW236795  10.726   0.620  14.325
78300SOL     OW36796   1.459  14.524   9.948
78300SOL    HW136797   1.379  14.577   9.959
78300SOL    HW236798   1.445  14.448  10.005
78301SOL     OW36799   0.807   9.541  12.032
78301SOL    HW136800   0.731   9.596  12.015
78301SOL    HW236801   0.776   9.452  12.021
78302SOL     OW36802   3.983  13.819  14.698
78302SOL    HW136803   3.918  13.861  14.642
78302SOL    HW236804   3.954  13.840  14.787
78303SOL     OW36805   7.770  10.163   0.668
78303SOL    HW136806   7.737  10.101   0.732
78303SOL    HW236807   7.846  10.120   0.629
78304SOL     OW36808  14.449   2.998   1.926
78304SOL    HW136809  14.530   3.030   1.965
78304SOL    HW236810  14.381   3.022   1.988
78305SOL     OW36811   2.510  10.604   5.043
78305SOL    HW136812   2.561  10.684   5.034
78305SOL    HW236813   2.563  10.536   5.001
78306SOL     OW36814   5.641  10.615   1.763
78306SOL    HW136815   5.579  10.688   1.765
78306SOL    HW236816   5.587  10.537   1.770
78307SOL     OW36817   3.254   2.469   2.077
78307SOL    HW136818   3.254   2.560   2.048
78307SOL    HW236819   3.282   2.473   2.168
78308SOL     OW36820   4.901   0.117  10.278
78308SOL    HW136821   4.843   0.190  10.298
78308SOL    HW236822   4.865   0.079  10.198
78309SOL     OW36823   0.773   1.536   0.487
78309SOL    HW136824   0.810   1.624   0.488
78309SOL    HW236825   0.715   1.534   0.411
78310SOL     OW36826  11.264  10.644   1.817
78310SOL    HW136827  11.342  10.606   1.777
78310SOL    HW236828  11.283  10.737   1.824
78311SOL     OW36829   7.569  14.110  12.867
78311SOL    HW136830   7.645  14.108  12.809
78311SOL    HW236831   7.599  14.161  12.943
78312SOL     OW36832   9.455   3.196   7.234
78312SOL    HW136833   9.412   3.247   7.166
78312SOL    HW236834   9.451   3.106   7.203
78313SOL     OW36835   8.365   5.611   8.675
78313SOL    HW136836   8.356   5.519   8.702
78313SOL    HW236837   8.383   5.607   8.581
78314SOL     OW36838  10.821   3.296   3.847
78314SOL    HW136839  10.913   3.272   3.858
78314SOL    HW236840  10.809   3.373   3.902
78315SOL     OW36841   1.559   1.248  11.101
78315SOL    HW136842   1.651   1.275  11.093
78315SOL    HW236843   1.520   1.271  11.017
78316SOL     OW36844  13.539   3.594   8.221
78316SOL    HW136845  13.614   3.619   8.275
78316SOL    HW236846  13.571   3.598   8.131
78317SOL     OW36847   5.696   6.677  13.281
78317SOL    HW136848   5.720   6.680  13.374
78317SOL    HW236849   5.601   6.679  13.281
78318SOL     OW36850   8.444   5.086  12.763
78318SOL    HW136851   8.500   5.111  12.836
78318SOL    HW236852   8.496   5.025  12.712
78319SOL     OW36853   2.011  14.468   3.172
78319SOL    HW136854   1.940  14.426   3.221
78319SOL    HW236855   2.047  14.399   3.117
78320SOL     OW36856  12.362  11.559  13.568
78320SOL    HW136857  12.430  11.507  13.611
78320SOL    HW236858  12.356  11.639  13.621
78321SOL     OW36859   5.893   6.899  14.021
78321SOL    HW136860   5.883   6.813  14.061
78321SOL    HW236861   5.817   6.908  13.964
78322SOL     OW36862   7.261   3.260   9.130
78322SOL    HW136863   7.286   3.322   9.061
78322SOL    HW236864   7.269   3.311   9.211
78323SOL     OW36865  12.981   8.802   4.683
78323SOL    HW136866  13.055   8.784   4.742
78323SOL    HW236867  12.953   8.891   4.707
78324SOL     OW36868   7.076   5.767   2.977
78324SOL    HW136869   6.981   5.775   2.971
78324SOL    HW236870   7.105   5.851   3.013
78325SOL     OW36871   2.764  14.402   9.410
78325SOL    HW136872   2.823  14.477   9.414
78325SOL    HW236873   2.737  14.387   9.501
78326SOL     OW36874  10.128  14.155  10.706
78326SOL    HW136875  10.212  14.127  10.743
78326SOL    HW236876  10.070  14.164  10.781
78327SOL     OW36877   4.854  10.134   2.977
78327SOL    HW136878   4.820  10.222   2.988
78327SOL    HW236879   4.949  10.146   2.969
78328SOL     OW36880   0.068   6.121  11.045
78328SOL    HW136881   0.075   6.066  10.967
78328SOL    HW236882  14.849   6.160  11.038
78329SOL     OW36883   6.311   1.206  14.737
78329SOL    HW136884   6.230   1.186  14.784
78329SOL    HW236885   6.367   1.130  14.753
78330SOL     OW36886   6.190   2.493   0.529
78330SOL    HW136887   6.256   2.561   0.526
78330SOL    HW236888   6.163   2.481   0.438
78331SOL     OW36889   8.213  10.058   1.097
78331SOL    HW136890   8.118  10.072   1.102
78331SOL    HW236891   8.229  10.040   1.005
78332SOL     OW36892   6.095   1.749  13.845
78332SOL    HW136893   6.033   1.720  13.912
78332SOL    HW236894   6.125   1.668  13.804
78333SOL     OW36895   3.697   4.992   6.047
78333SOL    HW136896   3.720   5.083   6.066
78333SOL    HW236897   3.678   4.990   5.954
78334SOL     OW36898  12.778   2.793   0.052
78334SOL    HW136899  12.854   2.821   0.103
78334SOL    HW236900  12.811   2.779  14.832
78335SOL     OW36901  13.942  11.523  11.740
78335SOL    HW136902  14.013  11.513  11.677
78335SOL    HW236903  13.904  11.608  11.719
78336SOL     OW36904   7.971   9.306   5.626
78336SOL    HW136905   7.896   9.287   5.570
78336SOL    HW236906   8.015   9.222   5.638
78337SOL     OW36907   2.550  14.548   4.000
78337SOL    HW136908   2.480  14.613   3.999
78337SOL    HW236909   2.629  14.597   3.976
78338SOL     OW36910   6.746   5.293  12.796
78338SOL    HW136911   6.750   5.323  12.705
78338SOL    HW236912   6.824   5.240  12.807
78339SOL     OW36913  13.064   9.146  12.338
78339SOL    HW136914  12.973   9.123  12.354
78339SOL    HW236915  13.111   9.114  12.415
78340SOL     OW36916   9.493   1.755  10.372
78340SOL    HW136917   9.579   1.794  10.359
78340SOL    HW236918   9.507   1.686  10.437
78341SOL     OW36919  10.726  11.902   3.824
78341SOL    HW136920  10.679  11.849   3.759
78341SOL    HW236921  10.804  11.932   3.777
78342SOL     OW36922  11.847   3.179   7.742
78342SOL    HW136923  11.863   3.271   7.724
78342SOL    HW236924  11.799   3.179   7.825
78343SOL     OW36925   8.578  10.467   7.852
78343SOL    HW136926   8.483  10.479   7.854
78343SOL    HW236927   8.610  10.520   7.925
78344SOL     OW36928   5.769   5.921   7.740
78344SOL    HW136929   5.856   5.960   7.745
78344SOL    HW236930   5.718   5.968   7.806
78345SOL     OW36931   6.072  11.050   4.440
78345SOL    HW136932   5.992  11.088   4.404
78345SOL    HW236933   6.143  11.105   4.405
78346SOL     OW36934   1.280   3.996   3.758
78346SOL    HW136935   1.371   4.021   3.774
78346SOL    HW236936   1.241   3.992   3.845
78347SOL     OW36937  14.563   8.618  12.605
78347SOL    HW136938  14.468   8.623  12.610
78347SOL    HW236939  14.593   8.705  12.632
78348SOL     OW36940  11.368   5.008   9.399
78348SOL    HW136941  11.368   4.950   9.323
78348SOL    HW236942  11.350   5.095   9.362
78349SOL     OW36943   9.581   4.230  11.154
78349SOL    HW136944   9.590   4.191  11.067
78349SOL    HW236945   9.553   4.320  11.137
78350SOL     OW36946  14.194   0.606   7.094
78350SOL    HW136947  14.241   0.688   7.106
78350SOL    HW236948  14.256   0.549   7.049
78351SOL     OW36949   1.291   3.998  12.353
78351SOL    HW136950   1.197   3.983  12.343
78351SOL    HW236951   1.315   4.053  12.278
78352SOL     OW36952  13.690   6.806  10.002
78352SOL    HW136953  13.655   6.840   9.920
78352SOL    HW236954  13.772   6.853  10.015
78353SOL     OW36955   6.530   4.678   6.597
78353SOL    HW136956   6.595   4.624   6.552
78353SOL    HW236957   6.549   4.767   6.569
78354SOL     OW36958   2.733  14.016   1.280
78354SOL    HW136959   2.783  13.949   1.326
78354SOL    HW236960   2.765  14.099   1.316
78355SOL     OW36961   3.443   0.511   9.797
78355SOL    HW136962   3.453   0.419   9.820
78355SOL    HW236963   3.493   0.521   9.716
78356SOL     OW36964   9.696  11.226   0.441
78356SOL    HW136965   9.759  11.231   0.369
78356SOL    HW236966   9.613  11.253   0.402
78357SOL     OW36967   8.761   5.434   6.604
78357SOL    HW136968   8.689   5.414   6.545
78357SOL    HW236969   8.837   5.393   6.565
78358SOL     OW36970   5.902   2.139   5.897
78358SOL    HW136971   5.928   2.090   5.974
78358SOL    HW236972   5.970   2.205   5.885
78359SOL     OW36973   1.962   4.395   9.553
78359SOL    HW136974   1.915   4.320   9.589
78359SOL    HW236975   2.054   4.375   9.568
78360SOL     OW36976   1.518   3.452   1.064
78360SOL    HW136977   1.471   3.495   1.134
78360SOL    HW236978   1.457   3.386   1.030
78361SOL     OW36979   9.232   4.986   3.738
78361SOL    HW136980   9.199   5.009   3.825
78361SOL    HW236981   9.254   5.069   3.697
78362SOL     OW36982   2.500  14.693   2.203
78362SOL    HW136983   2.542  14.735   2.278
78362SOL    HW236984   2.516  14.753   2.130
78363SOL     OW36985  13.316  13.047   1.185
78363SOL    HW136986  13.324  13.131   1.229
78363SOL    HW236987  13.406  13.024   1.160
78364SOL     OW36988   3.661  14.531   8.451
78364SOL    HW136989   3.599  14.464   8.479
78364SOL    HW236990   3.606  14.606   8.428
78365SOL     OW36991   2.167   0.415  14.799
78365SOL    HW136992   2.079   0.434  14.833
78365SOL    HW236993   2.151   0.382  14.710
78366SOL     OW36994   7.215   0.973   1.284
78366SOL    HW136995   7.306   0.993   1.264
78366SOL    HW236996   7.172   1.058   1.293
78367SOL     OW36997   9.437   4.729  10.225
78367SOL    HW136998   9.515   4.729  10.280
78367SOL    HW236999   9.462   4.780  10.148
78368SOL     OW37000   8.214  10.699  11.519
78368SOL    HW137001   8.168  10.765  11.571
78368SOL    HW237002   8.191  10.616  11.561
78369SOL     OW37003   2.278   0.879   3.791
78369SOL    HW137004   2.244   0.966   3.813
78369SOL    HW237005   2.203   0.832   3.754
78370SOL     OW37006   3.398  13.004   1.940
78370SOL    HW137007   3.441  12.922   1.915
78370SOL    HW237008   3.359  12.985   2.026
78371SOL     OW37009   9.744   0.483   4.937
78371SOL    HW137010   9.657   0.524   4.938
78371SOL    HW237011   9.726   0.389   4.944
78372SOL     OW37012  13.221   0.124   6.007
78372SOL    HW137013  13.281   0.157   6.073
78372SOL    HW237014  13.262   0.146   5.923
78373SOL     OW37015  12.900   7.625   9.309
78373SOL    HW137016  12.927   7.541   9.346
78373SOL    HW237017  12.869   7.603   9.221
78374SOL     OW37018  12.601  14.404   3.354
78374SOL    HW137019  12.601  14.328   3.296
78374SOL    HW237020  12.590  14.479   3.296
78375SOL     OW37021   6.627   1.703   5.894
78375SOL    HW137022   6.669   1.619   5.878
78375SOL    HW237023   6.684   1.745   5.959
78376SOL     OW37024   3.119   9.437  12.870
78376SOL    HW137025   3.134   9.396  12.785
78376SOL    HW237026   3.199   9.420  12.919
78377SOL     OW37027   7.902  10.005   9.196
78377SOL    HW137028   7.963   9.937   9.167
78377SOL    HW237029   7.861   9.968   9.275
78378SOL     OW37030   9.191  13.468   0.360
78378SOL    HW137031   9.217  13.404   0.425
78378SOL    HW237032   9.123  13.424   0.308
78379SOL     OW37033   6.685   7.485   1.756
78379SOL    HW137034   6.598   7.517   1.731
78379SOL    HW237035   6.698   7.522   1.844
78380SOL     OW37036  14.206   5.560   7.356
78380SOL    HW137037  14.234   5.469   7.354
78380SOL    HW237038  14.111   5.557   7.351
78381SOL     OW37039   7.638   6.788  13.758
78381SOL    HW137040   7.662   6.701  13.726
78381SOL    HW237041   7.597   6.772  13.843
78382SOL     OW37042  13.439   6.921   2.965
78382SOL    HW137043  13.493   6.854   3.007
78382SOL    HW237044  13.389   6.960   3.037
78383SOL     OW37045   0.475   8.890   4.250
78383SOL    HW137046   0.398   8.859   4.203
78383SOL    HW237047   0.500   8.817   4.307
78384SOL     OW37048  13.701   6.651   5.952
78384SOL    HW137049  13.652   6.578   5.913
78384SOL    HW237050  13.680   6.726   5.897
78385SOL     OW37051  11.015   8.001   7.525
78385SOL    HW137052  10.975   7.914   7.530
78385SOL    HW237053  11.006   8.026   7.433
78386SOL     OW37054  14.013   4.778   3.099
78386SOL    HW137055  14.071   4.738   3.164
78386SOL    HW237056  13.953   4.831   3.151
78387SOL     OW37057   1.280   1.804   0.683
78387SOL    HW137058   1.251   1.895   0.675
78387SOL    HW237059   1.365   1.802   0.639
78388SOL     OW37060   6.117   2.068   2.223
78388SOL    HW137061   6.183   2.035   2.163
78388SOL    HW237062   6.033   2.042   2.185
78389SOL     OW37063  11.109  12.257   9.311
78389SOL    HW137064  11.020  12.285   9.293
78389SOL    HW237065  11.100  12.172   9.354
78390SOL     OW37066   1.743   0.255   4.474
78390SOL    HW137067   1.669   0.222   4.423
78390SOL    HW237068   1.799   0.178   4.488
78391SOL     OW37069   3.333   7.201   0.389
78391SOL    HW137070   3.322   7.130   0.452
78391SOL    HW237071   3.258   7.194   0.331
78392SOL     OW37072   6.280   0.066   7.320
78392SOL    HW137073   6.275   0.004   7.248
78392SOL    HW237074   6.349   0.032   7.377
78393SOL     OW37075   1.916   1.419  14.325
78393SOL    HW137076   2.001   1.392  14.289
78393SOL    HW237077   1.938   1.487  14.389
78394SOL     OW37078   4.749   1.691  12.897
78394SOL    HW137079   4.779   1.782  12.895
78394SOL    HW237080   4.813   1.644  12.844
78395SOL     OW37081  12.623  13.747   3.480
78395SOL    HW137082  12.535  13.717   3.458
78395SOL    HW237083  12.680  13.672   3.459
78396SOL     OW37084  12.330   8.543  11.116
78396SOL    HW137085  12.341   8.497  11.033
78396SOL    HW237086  12.275   8.486  11.169
78397SOL     OW37087   9.334  12.372   8.718
78397SOL    HW137088   9.284  12.293   8.700
78397SOL    HW237089   9.332  12.381   8.813
78398SOL     OW37090  13.140  10.639  11.856
78398SOL    HW137091  13.121  10.732  11.868
78398SOL    HW237092  13.094  10.615  11.775
78399SOL     OW37093  12.367  14.627  12.884
78399SOL    HW137094  12.448  14.601  12.928
78399SOL    HW237095  12.352  14.717  12.913
78400SOL     OW37096  10.448   1.356   6.446
78400SOL    HW137097  10.383   1.370   6.376
78400SOL    HW237098  10.416   1.408   6.519
78401SOL     OW37099   4.185   6.610   5.896
78401SOL    HW137100   4.233   6.686   5.865
78401SOL    HW237101   4.250   6.539   5.896
78402SOL     OW37102   9.158   9.246   1.598
78402SOL    HW137103   9.163   9.156   1.564
78402SOL    HW237104   9.076   9.280   1.562
78403SOL     OW37105   4.477  14.620   9.760
78403SOL    HW137106   4.447  14.604   9.849
78403SOL    HW237107   4.398  14.612   9.706
78404SOL     OW37108  11.571   0.684   9.308
78404SOL    HW137109  11.661   0.690   9.278
78404SOL    HW237110  11.575   0.629   9.386
78405SOL     OW37111   1.311  13.580  10.234
78405SOL    HW137112   1.380  13.535  10.283
78405SOL    HW237113   1.298  13.526  10.156
78406SOL     OW37114   8.202   4.655  12.792
78406SOL    HW137115   8.189   4.695  12.878
78406SOL    HW237116   8.162   4.717  12.731
78407SOL     OW37117  14.063  12.187   2.405
78407SOL    HW137118  14.085  12.105   2.361
78407SOL    HW237119  14.112  12.185   2.487
78408SOL     OW37120   6.778   5.348  14.464
78408SOL    HW137121   6.755   5.441  14.461
78408SOL    HW237122   6.873   5.347  14.479
78409SOL     OW37123   6.500   2.968   0.814
78409SOL    HW137124   6.465   2.896   0.867
78409SOL    HW237125   6.595   2.964   0.829
78410SOL     OW37126   5.846   3.044   2.157
78410SOL    HW137127   5.807   2.958   2.139
78410SOL    HW237128   5.831   3.094   2.076
78411SOL     OW37129  10.371   2.008   9.415
78411SOL    HW137130  10.298   1.982   9.471
78411SOL    HW237131  10.424   2.066   9.470
78412SOL     OW37132   0.321   8.245   0.139
78412SOL    HW137133   0.337   8.160   0.181
78412SOL    HW237134   0.380   8.305   0.185
78413SOL     OW37135   5.583   2.024   2.616
78413SOL    HW137136   5.598   1.970   2.693
78413SOL    HW237137   5.638   2.101   2.629
78414SOL     OW37138   4.955   6.550   2.768
78414SOL    HW137139   4.953   6.472   2.713
78414SOL    HW237140   4.962   6.516   2.858
78415SOL     OW37141   1.111   3.149   9.981
78415SOL    HW137142   1.178   3.143  10.050
78415SOL    HW237143   1.070   3.063   9.980
78416SOL     OW37144   8.707  11.012   5.929
78416SOL    HW137145   8.675  11.022   5.839
78416SOL    HW237146   8.776  10.946   5.922
78417SOL     OW37147   7.732   8.190  14.564
78417SOL    HW137148   7.744   8.280  14.595
78417SOL    HW237149   7.748   8.137  14.642
78418SOL     OW37150   2.979   2.620  10.621
78418SOL    HW137151   3.055   2.602  10.565
78418SOL    HW237152   3.000   2.704  10.662
78419SOL     OW37153  11.469   5.321  11.501
78419SOL    HW137154  11.437   5.231  11.487
78419SOL    HW237155  11.431   5.346  11.586
78420SOL     OW37156  11.117   3.752  10.428
78420SOL    HW137157  11.034   3.742  10.381
78420SOL    HW237158  11.102   3.708  10.512
78421SOL     OW37159  11.827   6.897  11.847
78421SOL    HW137160  11.773   6.972  11.823
78421SOL    HW237161  11.835   6.846  11.766
78422SOL     OW37162  11.506   2.875   9.738
78422SOL    HW137163  11.483   2.823   9.815
78422SOL    HW237164  11.534   2.811   9.673
78423SOL     OW37165  10.517   4.176  13.683
78423SOL    HW137166  10.607   4.157  13.655
78423SOL    HW237167  10.465   4.169  13.603
78424SOL     OW37168   4.860  14.547  12.697
78424SOL    HW137169   4.790  14.486  12.721
78424SOL    HW237170   4.937  14.491  12.687
78425SOL     OW37171   7.343   3.283  11.618
78425SOL    HW137172   7.330   3.205  11.672
78425SOL    HW237173   7.272   3.281  11.554
78426SOL     OW37174  10.242   4.126  11.266
78426SOL    HW137175  10.282   4.156  11.184
78426SOL    HW237176  10.243   4.031  11.260
78427SOL     OW37177   4.429   1.557   9.196
78427SOL    HW137178   4.443   1.519   9.283
78427SOL    HW237179   4.338   1.585   9.196
78428SOL     OW37180  14.092   3.358   0.894
78428SOL    HW137181  14.086   3.413   0.972
78428SOL    HW237182  14.057   3.273   0.922
78429SOL     OW37183  11.231  10.051   1.827
78429SOL    HW137184  11.265   9.964   1.809
78429SOL    HW237185  11.297  10.110   1.792
78430SOL     OW37186  10.898   4.947   3.511
78430SOL    HW137187  10.934   4.955   3.599
78430SOL    HW237188  10.810   4.983   3.517
78431SOL     OW37189   9.161  10.782   7.228
78431SOL    HW137190   9.142  10.689   7.240
78431SOL    HW237191   9.126  10.824   7.307
78432SOL     OW37192   4.942  14.597  10.460
78432SOL    HW137193   4.866  14.632  10.507
78432SOL    HW237194   4.954  14.509  10.494
78433SOL     OW37195   3.085  10.657   7.545
78433SOL    HW137196   3.068  10.700   7.628
78433SOL    HW237197   3.163  10.700   7.510
78434SOL     OW37198   0.859  10.451  12.721
78434SOL    HW137199   0.855  10.542  12.693
78434SOL    HW237200   0.897  10.405  12.646
78435SOL     OW37201   7.174  14.077   3.336
78435SOL    HW137202   7.226  14.147   3.296
78435SOL    HW237203   7.181  14.092   3.430
78436SOL     OW37204   7.710   7.931   9.941
78436SOL    HW137205   7.798   7.906   9.913
78436SOL    HW237206   7.670   7.849   9.971
78437SOL     OW37207  11.056   5.557  13.162
78437SOL    HW137208  11.090   5.496  13.228
78437SOL    HW237209  10.962   5.563  13.180
78438SOL     OW37210   0.865   3.882   9.751
78438SOL    HW137211   0.850   3.788   9.749
78438SOL    HW237212   0.895   3.904   9.663
78439SOL     OW37213   0.925   0.300  13.641
78439SOL    HW137214   0.947   0.208  13.653
78439SOL    HW237215   0.863   0.301  13.568
78440SOL     OW37216   3.671   5.191   4.562
78440SOL    HW137217   3.640   5.246   4.491
78440SOL    HW237218   3.592   5.147   4.594
78441SOL     OW37219  11.433  14.607   1.601
78441SOL    HW137220  11.448  14.594   1.695
78441SOL    HW237221  11.502  14.668   1.575
78442SOL     OW37222   1.333   9.703   7.688
78442SOL    HW137223   1.302   9.779   7.640
78442SOL    HW237224   1.279   9.700   7.767
78443SOL     OW37225   9.949   7.526  12.744
78443SOL    HW137226   9.957   7.563  12.832
78443SOL    HW237227   9.934   7.601  12.687
78444SOL     OW37228   3.209   5.819   9.001
78444SOL    HW137229   3.154   5.780   8.933
78444SOL    HW237230   3.194   5.764   9.079
78445SOL     OW37231   8.732   7.899   5.059
78445SOL    HW137232   8.727   7.873   5.151
78445SOL    HW237233   8.800   7.967   5.057
78446SOL     OW37234   9.193   5.277  13.637
78446SOL    HW137235   9.259   5.344  13.619
78446SOL    HW237236   9.124   5.324  13.683
78447SOL     OW37237   4.188   8.029   9.799
78447SOL    HW137238   4.223   8.011   9.712
78447SOL    HW237239   4.227   8.113   9.824
78448SOL     OW37240   3.065  13.288   3.609
78448SOL    HW137241   3.091  13.375   3.580
78448SOL    HW237242   3.131  13.229   3.573
78449SOL     OW37243   7.950  11.795   3.988
78449SOL    HW137244   7.908  11.864   3.937
78449SOL    HW237245   8.018  11.840   4.038
78450SOL     OW37246   2.742  11.294  13.669
78450SOL    HW137247   2.760  11.377  13.625
78450SOL    HW237248   2.827  11.265  13.702
78451SOL     OW37249   5.958  12.873   0.162
78451SOL    HW137250   5.917  12.919   0.088
78451SOL    HW237251   6.050  12.865   0.137
78452SOL     OW37252   5.994   3.088   7.034
78452SOL    HW137253   5.971   3.178   7.059
78452SOL    HW237254   5.914   3.053   6.995
78453SOL     OW37255   9.359   1.464  13.017
78453SOL    HW137256   9.348   1.426  13.104
78453SOL    HW237257   9.451   1.489  13.013
78454SOL     OW37258   1.639   9.283   9.601
78454SOL    HW137259   1.680   9.236   9.528
78454SOL    HW237260   1.651   9.376   9.580
78455SOL     OW37261  13.356  14.449   7.918
78455SOL    HW137262  13.357  14.446   8.014
78455SOL    HW237263  13.391  14.535   7.896
78456SOL     OW37264  12.276  11.852   3.159
78456SOL    HW137265  12.253  11.760   3.164
78456SOL    HW237266  12.352  11.861   3.217
78457SOL     OW37267   7.016   5.693   0.354
78457SOL    HW137268   7.002   5.780   0.315
78457SOL    HW237269   7.098   5.662   0.317
78458SOL     OW37270   7.654   8.233  11.066
78458SOL    HW137271   7.693   8.299  11.125
78458SOL    HW237272   7.699   8.246  10.983
78459SOL     OW37273   2.782   7.356   4.806
78459SOL    HW137274   2.857   7.380   4.751
78459SOL    HW237275   2.731   7.295   4.752
78460SOL     OW37276   5.330   5.755   4.985
78460SOL    HW137277   5.303   5.847   4.978
78460SOL    HW237278   5.416   5.758   5.028
78461SOL     OW37279   5.858   9.964   3.742
78461SOL    HW137280   5.946   9.926   3.736
78461SOL    HW237281   5.845  10.007   3.658
78462SOL     OW37282   7.973  14.769   6.543
78462SOL    HW137283   7.985  14.804   6.455
78462SOL    HW237284   8.022  14.686   6.542
78463SOL     OW37285  13.266   1.626  12.201
78463SOL    HW137286  13.288   1.684  12.273
78463SOL    HW237287  13.341   1.567  12.193
78464SOL     OW37288   6.949   6.430  10.199
78464SOL    HW137289   6.894   6.359  10.232
78464SOL    HW237290   6.948   6.496  10.268
78465SOL     OW37291   0.988  10.660  12.233
78465SOL    HW137292   1.022  10.647  12.322
78465SOL    HW237293   1.067  10.666  12.179
78466SOL     OW37294   8.908  11.868   4.636
78466SOL    HW137295   8.903  11.964   4.631
78466SOL    HW237296   8.910  11.840   4.544
78467SOL     OW37297  14.780   6.495   3.000
78467SOL    HW137298  14.768   6.584   2.965
78467SOL    HW237299   0.006   6.489   3.019
78468SOL     OW37300   9.812  10.679   9.426
78468SOL    HW137301   9.762  10.761   9.427
78468SOL    HW237302   9.766  10.622   9.488
78469SOL     OW37303  10.505  11.781  13.927
78469SOL    HW137304  10.462  11.866  13.937
78469SOL    HW237305  10.434  11.717  13.927
78470SOL     OW37306   1.312   8.810  10.720
78470SOL    HW137307   1.325   8.877  10.654
78470SOL    HW237308   1.384   8.748  10.705
78471SOL     OW37309  11.708  14.606  10.385
78471SOL    HW137310  11.675  14.678  10.331
78471SOL    HW237311  11.644  14.597  10.455
78472SOL     OW37312   2.549  10.939   8.834
78472SOL    HW137313   2.583  11.011   8.887
78472SOL    HW237314   2.479  10.901   8.888
78473SOL     OW37315   6.647   4.866  11.090
78473SOL    HW137316   6.602   4.947  11.113
78473SOL    HW237317   6.590   4.824  11.026
78474SOL     OW37318  10.585  13.289   7.024
78474SOL    HW137319  10.611  13.349   6.955
78474SOL    HW237320  10.602  13.202   6.989
78475SOL     OW37321   2.676   2.670   9.697
78475SOL    HW137322   2.678   2.625   9.782
78475SOL    HW237323   2.752   2.635   9.651
78476SOL     OW37324  12.188   2.566  12.595
78476SOL    HW137325  12.102   2.591  12.562
78476SOL    HW237326  12.213   2.489  12.544
78477SOL     OW37327   1.293   6.036   2.005
78477SOL    HW137328   1.354   6.106   2.028
78477SOL    HW237329   1.244   6.020   2.086
78478SOL     OW37330  12.906   8.770   6.250
78478SOL    HW137331  12.906   8.865   6.238
78478SOL    HW237332  12.988   8.752   6.297
78479SOL     OW37333   7.095  10.234   7.462
78479SOL    HW137334   7.015  10.189   7.486
78479SOL    HW237335   7.082  10.324   7.492
78480SOL     OW37336   8.345   0.131   6.290
78480SOL    HW137337   8.286   0.162   6.222
78480SOL    HW237338   8.333   0.193   6.362
78481SOL     OW37339   6.202   0.028   4.980
78481SOL    HW137340   6.225  14.804   4.991
78481SOL    HW237341   6.243   0.072   5.055
78482SOL     OW37342  14.535   2.964   7.819
78482SOL    HW137343  14.443   2.957   7.845
78482SOL    HW237344  14.538   3.042   7.764
78483SOL     OW37345   7.281   1.633   6.862
78483SOL    HW137346   7.348   1.699   6.845
78483SOL    HW237347   7.277   1.627   6.957
78484SOL     OW37348   2.492  13.052   2.497
78484SOL    HW137349   2.451  12.966   2.511
78484SOL    HW237350   2.575  13.033   2.454
78485SOL     OW37351   3.702   1.045   3.394
78485SOL    HW137352   3.716   1.007   3.480
78485SOL    HW237353   3.785   1.088   3.372
78486SOL     OW37354  12.085   1.915  14.138
78486SOL    HW137355  12.093   2.008  14.162
78486SOL    HW237356  12.024   1.879  14.202
78487SOL     OW37357   9.246   2.387   8.113
78487SOL    HW137358   9.329   2.345   8.087
78487SOL    HW237359   9.211   2.329   8.180
78488SOL     OW37360   8.623   9.656   7.170
78488SOL    HW137361   8.639   9.708   7.091
78488SOL    HW237362   8.653   9.568   7.147
78489SOL     OW37363  13.680  14.739  12.201
78489SOL    HW137364  13.735  14.817  12.191
78489SOL    HW237365  13.596  14.773  12.231
78490SOL     OW37366   3.595   7.094   1.225
78490SOL    HW137367   3.635   7.096   1.138
78490SOL    HW237368   3.669   7.101   1.285
78491SOL     OW37369   5.998   1.454   6.210
78491SOL    HW137370   5.974   1.483   6.298
78491SOL    HW237371   5.949   1.373   6.197
78492SOL     OW37372  12.031  12.246   5.127
78492SOL    HW137373  12.122  12.221   5.111
78492SOL    HW237374  11.991  12.169   5.169
78493SOL     OW37375   8.677   4.674  11.596
78493SOL    HW137376   8.591   4.703  11.565
78493SOL    HW237377   8.706   4.611  11.530
78494SOL     OW37378   8.027   3.074   7.748
78494SOL    HW137379   8.062   3.159   7.721
78494SOL    HW237380   7.977   3.092   7.827
78495SOL     OW37381   8.357   0.863   6.729
78495SOL    HW137382   8.312   0.871   6.645
78495SOL    HW237383   8.288   0.838   6.791
78496SOL     OW37384  13.197  11.531  11.890
78496SOL    HW137385  13.200  11.440  11.918
78496SOL    HW237386  13.106  11.546  11.867
78497SOL     OW37387   6.657  12.108  12.904
78497SOL    HW137388   6.612  12.189  12.930
78497SOL    HW237389   6.720  12.136  12.838
78498SOL     OW37390   0.876   7.087  12.167
78498SOL    HW137391   0.874   7.066  12.261
78498SOL    HW237392   0.964   7.121  12.152
78499SOL     OW37393   7.602  13.830  12.091
78499SOL    HW137394   7.671  13.879  12.136
78499SOL    HW237395   7.521  13.871  12.120
78500SOL     OW37396   4.004  10.710   0.951
78500SOL    HW137397   4.033  10.676   1.035
78500SOL    HW237398   3.911  10.689   0.947
78501SOL     OW37399  11.141   3.345  14.519
78501SOL    HW137400  11.155   3.288  14.444
78501SOL    HW237401  11.129   3.433  14.482
78502SOL     OW37402  10.629  10.868   3.490
78502SOL    HW137403  10.698  10.875   3.556
78502SOL    HW237404  10.547  10.871   3.539
78503SOL     OW37405  10.853  13.477   3.766
78503SOL    HW137406  10.940  13.439   3.751
78503SOL    HW237407  10.801  13.404   3.800
78504SOL     OW37408  11.498   3.296   2.299
78504SOL    HW137409  11.409   3.309   2.267
78504SOL    HW237410  11.552   3.291   2.219
78505SOL     OW37411   7.515  12.926  12.217
78505SOL    HW137412   7.480  12.989  12.279
78505SOL    HW237413   7.590  12.886  12.262
78506SOL     OW37414   4.653   2.764   2.545
78506SOL    HW137415   4.743   2.737   2.559
78506SOL    HW237416   4.602   2.710   2.606
78507SOL     OW37417  13.657   7.372  13.973
78507SOL    HW137418  13.579   7.385  13.919
78507SOL    HW237419  13.661   7.449  14.030
78508SOL     OW37420  13.506  12.056  12.206
78508SOL    HW137421  13.435  12.120  12.217
78508SOL    HW237422  13.580  12.095  12.253
78509SOL     OW37423  11.694   5.838   6.106
78509SOL    HW137424  11.634   5.763   6.102
78509SOL    HW237425  11.638   5.914   6.092
78510SOL     OW37426   5.748  14.512   6.488
78510SOL    HW137427   5.782  14.595   6.519
78510SOL    HW237428   5.687  14.484   6.556
78511SOL     OW37429  14.730  12.245   1.013
78511SOL    HW137430  14.799  12.303   0.981
78511SOL    HW237431  14.706  12.281   1.098
78512SOL     OW37432  10.574   8.085   7.948
78512SOL    HW137433  10.542   8.024   7.881
78512SOL    HW237434  10.502   8.091   8.012
78513SOL     OW37435   7.479   0.557  11.803
78513SOL    HW137436   7.564   0.558  11.848
78513SOL    HW237437   7.444   0.645  11.818
78514SOL     OW37438   5.923   6.271  10.114
78514SOL    HW137439   5.964   6.296  10.031
78514SOL    HW237440   5.829   6.278  10.098
78515SOL     OW37441   4.649   3.989   0.162
78515SOL    HW137442   4.723   3.935   0.135
78515SOL    HW237443   4.590   3.928   0.206
78516SOL     OW37444  13.378   2.570   6.991
78516SOL    HW137445  13.354   2.561   7.083
78516SOL    HW237446  13.346   2.657   6.966
78517SOL     OW37447   3.054  11.044  10.664
78517SOL    HW137448   3.059  11.092  10.747
78517SOL    HW237449   2.989  10.975  10.680
78518SOL     OW37450   5.720  11.530  12.282
78518SOL    HW137451   5.707  11.537  12.188
78518SOL    HW237452   5.804  11.572  12.298
78519SOL     OW37453   6.024  13.377  13.084
78519SOL    HW137454   6.026  13.451  13.024
78519SOL    HW237455   5.961  13.316  13.044
78520SOL     OW37456   8.365   1.230  10.785
78520SOL    HW137457   8.287   1.284  10.773
78520SOL    HW237458   8.437   1.286  10.756
78521SOL     OW37459  10.740   4.618   2.076
78521SOL    HW137460  10.721   4.690   2.137
78521SOL    HW237461  10.775   4.548   2.131
78522SOL     OW37462   3.862  14.155   0.246
78522SOL    HW137463   3.901  14.082   0.197
78522SOL    HW237464   3.823  14.211   0.179
78523SOL     OW37465  11.245   3.286  13.519
78523SOL    HW137466  11.245   3.378  13.492
78523SOL    HW237467  11.154   3.259  13.510
78524SOL     OW37468  10.998   0.062   3.396
78524SOL    HW137469  11.086   0.070   3.359
78524SOL    HW237470  10.989  14.837   3.415
78525SOL     OW37471   3.844  10.115   8.574
78525SOL    HW137472   3.758  10.151   8.595
78525SOL    HW237473   3.837  10.086   8.483
78526SOL     OW37474   8.501  11.515   4.129
78526SOL    HW137475   8.466  11.529   4.217
78526SOL    HW237476   8.486  11.422   4.112
78527SOL     OW37477   5.837   5.109  10.760
78527SOL    HW137478   5.918   5.094  10.712
78527SOL    HW237479   5.859   5.086  10.851
78528SOL     OW37480   8.291  10.527   7.583
78528SOL    HW137481   8.331  10.593   7.527
78528SOL    HW237482   8.215  10.496   7.533
78529SOL     OW37483  11.639   1.429   1.808
78529SOL    HW137484  11.556   1.426   1.856
78529SOL    HW237485  11.683   1.508   1.840
78530SOL     OW37486   8.113  12.946  11.135
78530SOL    HW137487   8.103  12.866  11.187
78530SOL    HW237488   8.184  12.994  11.178
78531SOL     OW37489  11.259   6.884   7.350
78531SOL    HW137490  11.325   6.935   7.302
78531SOL    HW237491  11.205   6.846   7.281
78532SOL     OW37492  12.725   8.655   1.260
78532SOL    HW137493  12.698   8.733   1.310
78532SOL    HW237494  12.817   8.643   1.283
78533SOL     OW37495   8.337  12.092   0.120
78533SOL    HW137496   8.279  12.034   0.071
78533SOL    HW237497   8.421  12.046   0.122
78534SOL     OW37498   5.597  11.223   2.517
78534SOL    HW137499   5.654  11.282   2.567
78534SOL    HW237500   5.553  11.171   2.584
78535SOL     OW37501   1.688  13.360   5.201
78535SOL    HW137502   1.713  13.373   5.292
78535SOL    HW237503   1.625  13.287   5.204
78536SOL     OW37504   7.009  10.261  14.126
78536SOL    HW137505   6.933  10.212  14.159
78536SOL    HW237506   7.034  10.317  14.199
78537SOL     OW37507   2.254   4.973   3.950
78537SOL    HW137508   2.335   5.015   3.977
78537SOL    HW237509   2.191   5.044   3.942
78538SOL     OW37510   7.407   0.598   1.669
78538SOL    HW137511   7.318   0.613   1.701
78538SOL    HW237512   7.430   0.678   1.622
78539SOL     OW37513   9.703   8.099   3.422
78539SOL    HW137514   9.701   8.009   3.455
78539SOL    HW237515   9.720   8.152   3.499
78540SOL     OW37516   8.112  14.390   3.339
78540SOL    HW137517   8.139  14.455   3.403
78540SOL    HW237518   8.111  14.307   3.388
78541SOL     OW37519   4.444   6.680   2.442
78541SOL    HW137520   4.447   6.775   2.440
78541SOL    HW237521   4.517   6.655   2.499
78542SOL     OW37522   8.564   8.615   7.502
78542SOL    HW137523   8.516   8.672   7.562
78542SOL    HW237524   8.630   8.572   7.557
78543SOL     OW37525  11.226   4.839   4.883
78543SOL    HW137526  11.263   4.810   4.800
78543SOL    HW237527  11.295   4.893   4.922
78544SOL     OW37528   4.479   7.783  14.091
78544SOL    HW137529   4.463   7.877  14.079
78544SOL    HW237530   4.481   7.771  14.186
78545SOL     OW37531   3.191  12.620   0.240
78545SOL    HW137532   3.136  12.683   0.286
78545SOL    HW237533   3.265  12.671   0.207
78546SOL     OW37534   6.154   1.088   0.622
78546SOL    HW137535   6.167   1.007   0.572
78546SOL    HW237536   6.132   1.058   0.710
78547SOL     OW37537  11.921   8.654  13.240
78547SOL    HW137538  11.876   8.670  13.157
78547SOL    HW237539  11.869   8.701  13.305
78548SOL     OW37540  12.125  14.079  13.096
78548SOL    HW137541  12.154  14.140  13.164
78548SOL    HW237542  12.063  14.129  13.043
78549SOL     OW37543  12.820   0.527   0.433
78549SOL    HW137544  12.901   0.578   0.438
78549SOL    HW237545  12.753   0.589   0.405
78550SOL     OW37546   6.264   0.191  13.245
78550SOL    HW137547   6.330   0.177  13.313
78550SOL    HW237548   6.183   0.158  13.284
78551SOL     OW37549  10.581   8.998   6.337
78551SOL    HW137550  10.601   9.024   6.247
78551SOL    HW237551  10.667   8.976   6.375
78552SOL     OW37552   6.603   8.444   0.454
78552SOL    HW137553   6.694   8.420   0.436
78552SOL    HW237554   6.575   8.383   0.522
78553SOL     OW37555   3.420   6.952  10.783
78553SOL    HW137556   3.331   6.987  10.792
78553SOL    HW237557   3.426   6.927  10.691
78554SOL     OW37558  11.240   7.333   4.506
78554SOL    HW137559  11.239   7.341   4.410
78554SOL    HW237560  11.219   7.241   4.523
78555SOL     OW37561   1.844   7.559   5.293
78555SOL    HW137562   1.857   7.599   5.207
78555SOL    HW237563   1.756   7.588   5.319
78556SOL     OW37564   4.381   7.179  10.913
78556SOL    HW137565   4.347   7.221  10.834
78556SOL    HW237566   4.470   7.153  10.890
78557SOL     OW37567  12.723   9.507   4.182
78557SOL    HW137568  12.772   9.485   4.261
78557SOL    HW237569  12.785   9.553   4.126
78558SOL     OW37570   0.974   2.682   2.803
78558SOL    HW137571   0.952   2.726   2.885
78558SOL    HW237572   1.059   2.640   2.820
78559SOL     OW37573   1.607  11.363   5.767
78559SOL    HW137574   1.602  11.354   5.863
78559SOL    HW237575   1.540  11.428   5.746
78560SOL     OW37576   8.360  13.026   2.017
78560SOL    HW137577   8.373  13.079   2.096
78560SOL    HW237578   8.269  12.995   2.025
78561SOL     OW37579   7.876   3.497  11.128
78561SOL    HW137580   7.891   3.443  11.051
78561SOL    HW237581   7.787   3.476  11.155
78562SOL     OW37582   3.718   1.469   0.394
78562SOL    HW137583   3.709   1.528   0.319
78562SOL    HW237584   3.629   1.457   0.426
78563SOL     OW37585  13.314  14.005   5.068
78563SOL    HW137586  13.276  14.012   5.155
78563SOL    HW237587  13.340  13.913   5.060
78564SOL     OW37588  12.212   2.991   3.221
78564SOL    HW137589  12.152   2.928   3.182
78564SOL    HW237590  12.167   3.075   3.215
78565SOL     OW37591   2.441   2.505   9.602
78565SOL    HW137592   2.460   2.584   9.654
78565SOL    HW237593   2.471   2.527   9.514
78566SOL     OW37594   3.610   6.247  13.049
78566SOL    HW137595   3.575   6.277  13.133
78566SOL    HW237596   3.543   6.188  13.014
78567SOL     OW37597   7.085  13.553   5.067
78567SOL    HW137598   7.114  13.463   5.052
78567SOL    HW237599   7.081  13.562   5.162
78568SOL     OW37600  13.928   7.594  10.766
78568SOL    HW137601  13.856   7.565  10.709
78568SOL    HW237602  13.909   7.686  10.784
78569SOL     OW37603   7.572   3.522  12.628
78569SOL    HW137604   7.503   3.509  12.693
78569SOL    HW237605   7.571   3.617  12.611
78570SOL     OW37606   8.545   0.711  12.073
78570SOL    HW137607   8.543   0.680  11.982
78570SOL    HW237608   8.455   0.738  12.092
78571SOL     OW37609   4.300   5.742   1.154
78571SOL    HW137610   4.334   5.670   1.208
78571SOL    HW237611   4.249   5.698   1.086
78572SOL     OW37612  13.556   4.196  11.164
78572SOL    HW137613  13.513   4.271  11.124
78572SOL    HW237614  13.541   4.207  11.258
78573SOL     OW37615  13.900   6.395  10.166
78573SOL    HW137616  13.970   6.442  10.213
78573SOL    HW237617  13.834   6.462  10.148
78574SOL     OW37618   5.487  14.295  13.155
78574SOL    HW137619   5.454  14.380  13.185
78574SOL    HW237620   5.479  14.298  13.060
78575SOL     OW37621   2.911   3.805   1.427
78575SOL    HW137622   2.925   3.726   1.479
78575SOL    HW237623   2.825   3.837   1.455
78576SOL     OW37624  14.002  11.363  13.478
78576SOL    HW137625  14.073  11.300  13.489
78576SOL    HW237626  13.937  11.317  13.425
78577SOL     OW37627   8.499  12.427   8.015
78577SOL    HW137628   8.462  12.344   8.045
78577SOL    HW237629   8.490  12.486   8.089
78578SOL     OW37630   7.918   5.053   0.177
78578SOL    HW137631   7.939   5.146   0.189
78578SOL    HW237632   8.002   5.012   0.157
78579SOL     OW37633   1.513  12.912  12.113
78579SOL    HW137634   1.567  12.990  12.102
78579SOL    HW237635   1.434  12.929  12.062
78580SOL     OW37636   9.854  12.138  14.833
78580SOL    HW137637   9.855  12.089  14.751
78580SOL    HW237638   9.794  12.090   0.021
78581SOL     OW37639  11.547   2.747   5.390
78581SOL    HW137640  11.498   2.743   5.308
78581SOL    HW237641  11.480   2.766   5.456
78582SOL     OW37642   9.473  12.759  12.599
78582SOL    HW137643   9.447  12.781  12.510
78582SOL    HW237644   9.401  12.791  12.654
78583SOL     OW37645   7.213   4.083   8.228
78583SOL    HW137646   7.293   4.057   8.275
78583SOL    HW237647   7.203   4.176   8.249
78584SOL     OW37648  14.814  13.056  10.423
78584SOL    HW137649  14.801  12.961  10.430
78584SOL    HW237650   0.012  13.065  10.354
78585SOL     OW37651   8.087  13.090   1.743
78585SOL    HW137652   8.114  13.177   1.713
78585SOL    HW237653   7.995  13.083   1.715
78586SOL     OW37654   1.166   8.336   5.250
78586SOL    HW137655   1.201   8.396   5.184
78586SOL    HW237656   1.104   8.390   5.300
78587SOL     OW37657  11.192  10.632   8.229
78587SOL    HW137658  11.106  10.612   8.265
78587SOL    HW237659  11.181  10.629   8.134
78588SOL     OW37660  13.694   5.748   0.380
78588SOL    HW137661  13.776   5.705   0.355
78588SOL    HW237662  13.688   5.736   0.474
78589SOL     OW37663  10.514   6.339  12.092
78589SOL    HW137664  10.457   6.281  12.041
78589SOL    HW237665  10.574   6.279  12.138
78590SOL     OW37666   1.195   7.954  10.647
78590SOL    HW137667   1.280   7.944  10.602
78590SOL    HW237668   1.132   7.961  10.576
78591SOL     OW37669   0.600  13.150   4.412
78591SOL    HW137670   0.566  13.113   4.494
78591SOL    HW237671   0.545  13.227   4.397
78592SOL     OW37672   8.419   6.318   2.634
78592SOL    HW137673   8.398   6.306   2.727
78592SOL    HW237674   8.349   6.374   2.601
78593SOL     OW37675   0.587   6.438   5.838
78593SOL    HW137676   0.579   6.497   5.763
78593SOL    HW237677   0.617   6.494   5.909
78594SOL     OW37678   1.280   7.076   0.327
78594SOL    HW137679   1.345   7.124   0.276
78594SOL    HW237680   1.198   7.122   0.309
78595SOL     OW37681  10.932   2.949   8.458
78595SOL    HW137682  11.022   2.956   8.429
78595SOL    HW237683  10.880   2.963   8.379
78596SOL     OW37684   7.281   4.644   9.635
78596SOL    HW137685   7.332   4.721   9.612
78596SOL    HW237686   7.317   4.574   9.581
78597SOL     OW37687  10.450   0.939   4.423
78597SOL    HW137688  10.532   0.923   4.376
78597SOL    HW237689  10.475   0.935   4.515
78598SOL     OW37690  12.955  11.573   1.082
78598SOL    HW137691  12.997  11.510   1.142
78598SOL    HW237692  13.027  11.629   1.052
78599SOL     OW37693   0.349   6.859   0.513
78599SOL    HW137694   0.433   6.895   0.541
78599SOL    HW237695   0.366   6.820   0.427
78600SOL     OW37696   0.463   3.325   1.703
78600SOL    HW137697   0.367   3.324   1.698
78600SOL    HW237698   0.490   3.390   1.639
78601SOL     OW37699  14.863  13.994  13.994
78601SOL    HW137700   0.056  13.973  14.066
78601SOL    HW237701   0.049  13.991  13.915
78602SOL     OW37702   5.466   5.630   2.606
78602SOL    HW137703   5.394   5.674   2.651
78602SOL    HW237704   5.442   5.634   2.513
78603SOL     OW37705  14.779   3.688   0.457
78603SOL    HW137706  14.863   3.726   0.482
78603SOL    HW237707  14.749   3.742   0.384
78604SOL     OW37708  11.686   2.501   6.148
78604SOL    HW137709  11.608   2.499   6.204
78604SOL    HW237710  11.723   2.589   6.162
78605SOL     OW37711  14.852   9.994   7.477
78605SOL    HW137712  14.863   9.916   7.532
78605SOL    HW237713  14.759   9.997   7.456
78606SOL     OW37714  14.842  10.299  13.733
78606SOL    HW137715  14.803  10.385  13.745
78606SOL    HW237716  14.769  10.242  13.707
78607SOL     OW37717  13.235   1.645   0.148
78607SOL    HW137718  13.193   1.641   0.062
78607SOL    HW237719  13.241   1.553   0.176
78608SOL     OW37720   7.292   8.645   2.289
78608SOL    HW137721   7.371   8.680   2.330
78608SOL    HW237722   7.237   8.616   2.362
78609SOL     OW37723  14.674  14.521   9.005
78609SOL    HW137724  14.623  14.598   9.031
78609SOL    HW237725  14.644  14.452   9.065
78610SOL     OW37726   0.081   3.876  12.732
78610SOL    HW137727   0.022   3.812  12.692
78610SOL    HW237728   0.155   3.880  12.672
78611SOL     OW37729  14.391   1.181   0.483
78611SOL    HW137730  14.471   1.151   0.526
78611SOL    HW237731  14.421   1.239   0.413
78612SOL     OW37732   7.252   7.988  11.678
78612SOL    HW137733   7.191   7.917  11.659
78612SOL    HW237734   7.196   8.066  11.685
78613SOL     OW37735  12.179  11.398   4.756
78613SOL    HW137736  12.110  11.398   4.689
78613SOL    HW237737  12.236  11.325   4.731
78614SOL     OW37738  10.763  13.882   7.812
78614SOL    HW137739  10.837  13.935   7.783
78614SOL    HW237740  10.699  13.889   7.741
78615SOL     OW37741   6.734   3.701   1.535
78615SOL    HW137742   6.723   3.607   1.546
78615SOL    HW237743   6.680   3.723   1.458
78616SOL     OW37744  10.056   4.481   8.376
78616SOL    HW137745  10.095   4.539   8.442
78616SOL    HW237746  10.091   4.394   8.396
78617SOL     OW37747  11.214   7.464  10.871
78617SOL    HW137748  11.153   7.532  10.900
78617SOL    HW237749  11.268   7.506  10.804
78618SOL     OW37750  12.041   5.184  12.343
78618SOL    HW137751  12.038   5.192  12.438
78618SOL    HW237752  12.055   5.274  12.312
78619SOL     OW37753  10.566   8.069   4.998
78619SOL    HW137754  10.636   8.016   4.959
78619SOL    HW237755  10.496   8.006   5.016
78620SOL     OW37756   4.655   0.433  13.590
78620SOL    HW137757   4.660   0.338  13.578
78620SOL    HW237758   4.654   0.444  13.685
78621SOL     OW37759   6.816   2.617   0.674
78621SOL    HW137760   6.882   2.548   0.663
78621SOL    HW237761   6.834   2.653   0.761
78622SOL     OW37762  13.686   8.408   0.430
78622SOL    HW137763  13.740   8.471   0.479
78622SOL    HW237764  13.674   8.335   0.491
78623SOL     OW37765   1.029   7.935  10.869
78623SOL    HW137766   1.095   7.935  10.799
78623SOL    HW237767   1.049   7.856  10.920
78624SOL     OW37768   4.345  13.181  10.197
78624SOL    HW137769   4.365  13.088  10.188
78624SOL    HW237770   4.249  13.185  10.197
78625SOL     OW37771   1.537   3.921  12.105
78625SOL    HW137772   1.573   3.923  12.194
78625SOL    HW237773   1.606   3.960  12.051
78626SOL     OW37774   1.328  12.928   2.077
78626SOL    HW137775   1.349  12.948   2.169
78626SOL    HW237776   1.258  12.989   2.055
78627SOL     OW37777   5.617   2.590   5.419
78627SOL    HW137778   5.678   2.652   5.379
78627SOL    HW237779   5.649   2.504   5.391
78628SOL     OW37780  10.587  10.471  12.584
78628SOL    HW137781  10.651  10.500  12.649
78628SOL    HW237782  10.585  10.542  12.519
78629SOL     OW37783   4.442  10.203   5.674
78629SOL    HW137784   4.479  10.290   5.659
78629SOL    HW237785   4.445  10.161   5.588
78630SOL     OW37786   0.372   3.299  14.117
78630SOL    HW137787   0.462   3.325  14.135
78630SOL    HW237788   0.374   3.262  14.029
78631SOL     OW37789   3.759  10.344   4.025
78631SOL    HW137790   3.767  10.432   4.061
78631SOL    HW237791   3.849  10.313   4.017
78632SOL     OW37792   8.785   4.102   4.802
78632SOL    HW137793   8.857   4.041   4.814
78632SOL    HW237794   8.826   4.185   4.779
78633SOL     OW37795   6.989   5.248  11.282
78633SOL    HW137796   7.053   5.185  11.248
78633SOL    HW237797   6.919   5.249  11.217
78634SOL     OW37798   7.294   2.552  13.603
78634SOL    HW137799   7.289   2.469  13.557
78634SOL    HW237800   7.339   2.532  13.685
78635SOL     OW37801   6.971  12.148   7.711
78635SOL    HW137802   6.921  12.116   7.635
78635SOL    HW237803   7.059  12.114   7.699
78636SOL     OW37804   7.195  14.109  13.903
78636SOL    HW137805   7.157  14.190  13.868
78636SOL    HW237806   7.165  14.106  13.994
78637SOL     OW37807   9.266  10.996  13.268
78637SOL    HW137808   9.330  10.957  13.327
78637SOL    HW237809   9.188  11.009  13.322
78638SOL     OW37810  12.445  13.895   8.697
78638SOL    HW137811  12.440  13.956   8.623
78638SOL    HW237812  12.363  13.907   8.744
78639SOL     OW37813  14.615   7.876   5.198
78639SOL    HW137814  14.604   7.816   5.124
78639SOL    HW237815  14.610   7.820   5.275
78640SOL     OW37816  13.858   1.714   5.122
78640SOL    HW137817  13.863   1.649   5.052
78640SOL    HW237818  13.943   1.759   5.119
78641SOL     OW37819   8.127   4.703   6.957
78641SOL    HW137820   8.204   4.703   6.900
78641SOL    HW237821   8.052   4.711   6.898
78642SOL     OW37822   8.368  12.432   7.442
78642SOL    HW137823   8.288  12.471   7.406
78642SOL    HW237824   8.347  12.415   7.534
78643SOL     OW37825  14.672   4.526   2.243
78643SOL    HW137826  14.730   4.598   2.217
78643SOL    HW237827  14.668   4.533   2.338
78644SOL     OW37828  12.094  11.664   3.731
78644SOL    HW137829  12.100  11.646   3.637
78644SOL    HW237830  12.000  11.669   3.749
78645SOL     OW37831  11.984   6.045   5.291
78645SOL    HW137832  12.067   6.015   5.255
78645SOL    HW237833  11.977   6.136   5.262
78646SOL     OW37834  10.881   8.334  13.322
78646SOL    HW137835  10.973   8.311  13.307
78646SOL    HW237836  10.872   8.422  13.285
78647SOL     OW37837   1.038  11.603  14.831
78647SOL    HW137838   1.065  11.583  14.742
78647SOL    HW237839   1.042  11.519   0.009
78648SOL     OW37840   7.714   9.498  10.572
78648SOL    HW137841   7.743   9.568  10.630
78648SOL    HW237842   7.624   9.520  10.551
78649SOL     OW37843   2.068   5.285   1.855
78649SOL    HW137844   2.089   5.375   1.833
78649SOL    HW237845   2.044   5.288   1.948
78650SOL     OW37846  12.266   3.534   7.869
78650SOL    HW137847  12.269   3.560   7.777
78650SOL    HW237848  12.193   3.583   7.907
78651SOL     OW37849   3.579  13.882  13.686
78651SOL    HW137850   3.588  13.950  13.753
78651SOL    HW237851   3.567  13.801  13.737
78652SOL     OW37852   5.267  11.018   1.820
78652SOL    HW137853   5.216  11.052   1.746
78652SOL    HW237854   5.358  11.029   1.793
78653SOL     OW37855  11.861   4.672   8.292
78653SOL    HW137856  11.806   4.749   8.278
78653SOL    HW237857  11.840   4.613   8.220
78654SOL     OW37858  10.172   2.627   5.405
78654SOL    HW137859  10.100   2.652   5.347
78654SOL    HW237860  10.192   2.707   5.454
78655SOL     OW37861  11.806   8.150  13.017
78655SOL    HW137862  11.796   8.232  13.065
78655SOL    HW237863  11.852   8.092  13.078
78656SOL     OW37864  11.506   8.183   7.441
78656SOL    HW137865  11.530   8.115   7.379
78656SOL    HW237866  11.493   8.261   7.387
78657SOL     OW37867   4.593   7.674   7.946
78657SOL    HW137868   4.602   7.766   7.970
78657SOL    HW237869   4.600   7.627   8.029
78658SOL     OW37870  11.005   8.509  11.047
78658SOL    HW137871  10.994   8.441  11.114
78658SOL    HW237872  11.062   8.574  11.089
78659SOL     OW37873  10.905  11.343  10.537
78659SOL    HW137874  10.946  11.376  10.617
78659SOL    HW237875  10.954  11.383  10.466
78660SOL     OW37876  10.220  11.624  12.488
78660SOL    HW137877  10.246  11.624  12.581
78660SOL    HW237878  10.138  11.673  12.487
78661SOL     OW37879  13.471   8.513  11.954
78661SOL    HW137880  13.422   8.487  12.032
78661SOL    HW237881  13.406   8.513  11.883
78662SOL     OW37882  10.259   2.014  11.382
78662SOL    HW137883  10.260   1.930  11.336
78662SOL    HW237884  10.167   2.028  11.403
78663SOL     OW37885  12.450   7.020  13.804
78663SOL    HW137886  12.408   7.070  13.875
78663SOL    HW237887  12.380   7.007  13.740
78664SOL     OW37888   1.345  14.867   3.601
78664SOL    HW137889   1.298   0.065   3.549
78664SOL    HW237890   1.358  14.795   3.540
78665SOL     OW37891   8.646  11.274  12.143
78665SOL    HW137892   8.693  11.268  12.060
78665SOL    HW237893   8.565  11.226  12.128
78666SOL     OW37894  12.938  13.432   2.045
78666SOL    HW137895  12.996  13.504   2.022
78666SOL    HW237896  12.992  13.375   2.101
78667SOL     OW37897  12.660   0.331   0.157
78667SOL    HW137898  12.599   0.259   0.142
78667SOL    HW237899  12.612   0.392   0.213
78668SOL     OW37900  13.057   9.697   3.692
78668SOL    HW137901  13.082   9.715   3.602
78668SOL    HW237902  13.058   9.782   3.736
78669SOL     OW37903  12.009   5.119   2.842
78669SOL    HW137904  11.987   5.165   2.923
78669SOL    HW237905  12.054   5.039   2.870
78670SOL     OW37906   9.561  12.490   5.871
78670SOL    HW137907   9.601  12.435   5.938
78670SOL    HW237908   9.491  12.436   5.834
78671SOL     OW37909  12.347  13.425   1.790
78671SOL    HW137910  12.278  13.492   1.796
78671SOL    HW237911  12.405  13.458   1.721
78672SOL     OW37912   4.044  13.832   4.619
78672SOL    HW137913   4.123  13.853   4.571
78672SOL    HW237914   3.974  13.878   4.573
78673SOL     OW37915   0.871   8.376  13.125
78673SOL    HW137916   0.924   8.307  13.085
78673SOL    HW237917   0.789   8.375  13.076
78674SOL     OW37918   0.429   8.969   0.066
78674SOL    HW137919   0.518   8.989   0.037
78674SOL    HW237920   0.397   8.905   0.003
78675SOL     OW37921   7.091  13.402   6.482
78675SOL    HW137922   7.161  13.467   6.490
78675SOL    HW237923   7.130  13.331   6.431
78676SOL     OW37924   4.908   4.295   8.830
78676SOL    HW137925   4.883   4.386   8.816
78676SOL    HW237926   4.891   4.278   8.922
78677SOL     OW37927   4.329   7.285   4.650
78677SOL    HW137928   4.238   7.256   4.645
78677SOL    HW237929   4.323   7.381   4.656
78678SOL     OW37930   8.996  12.231   8.973
78678SOL    HW137931   9.087  12.206   8.957
78678SOL    HW237932   8.991  12.243   9.068
78679SOL     OW37933   8.149   3.535  12.592
78679SOL    HW137934   8.244   3.545  12.583
78679SOL    HW237935   8.122   3.611  12.643
78680SOL     OW37936   9.863   9.072   0.074
78680SOL    HW137937   9.876   9.062   0.169
78680SOL    HW237938   9.947   9.051   0.035
78681SOL     OW37939   1.901   2.488   4.582
78681SOL    HW137940   1.980   2.497   4.635
78681SOL    HW237941   1.924   2.425   4.514
78682SOL     OW37942   1.433  12.431   3.529
78682SOL    HW137943   1.395  12.478   3.603
78682SOL    HW237944   1.424  12.338   3.552
78683SOL     OW37945  11.601   6.083   6.069
78683SOL    HW137946  11.585   6.169   6.107
78683SOL    HW237947  11.626   6.101   5.978
78684SOL     OW37948   9.013  10.881   7.936
78684SOL    HW137949   9.008  10.822   8.011
78684SOL    HW237950   9.072  10.838   7.875
78685SOL     OW37951   8.809  13.505  11.438
78685SOL    HW137952   8.748  13.578  11.443
78685SOL    HW237953   8.847  13.499  11.526
78686SOL     OW37954   5.410  12.976  14.319
78686SOL    HW137955   5.341  12.927  14.274
78686SOL    HW237956   5.487  12.918  14.314
78687SOL     OW37957   0.193   0.040   5.777
78687SOL    HW137958   0.248   0.069   5.705
78687SOL    HW237959   0.159  14.823   5.749
78688SOL     OW37960   2.288   5.514   0.647
78688SOL    HW137961   2.244   5.541   0.728
78688SOL    HW237962   2.321   5.426   0.666
78689SOL     OW37963  13.802  12.491   4.109
78689SOL    HW137964  13.880  12.438   4.094
78689SOL    HW237965  13.817  12.570   4.059
78690SOL     OW37966   8.492  13.374  12.802
78690SOL    HW137967   8.576  13.391  12.846
78690SOL    HW237968   8.502  13.286  12.765
78691SOL     OW37969  13.001   2.041   9.241
78691SOL    HW137970  13.036   1.963   9.283
78691SOL    HW237971  12.907   2.026   9.237
78692SOL     OW37972   6.794  11.898   7.928
78692SOL    HW137973   6.882  11.931   7.913
78692SOL    HW237974   6.803  11.802   7.927
78693SOL     OW37975   1.329  10.295   1.001
78693SOL    HW137976   1.330  10.206   0.966
78693SOL    HW237977   1.384  10.291   1.079
78694SOL     OW37978   1.544   9.760   1.305
78694SOL    HW137979   1.464   9.708   1.315
78694SOL    HW237980   1.606   9.702   1.263
78695SOL     OW37981   5.495   2.613   2.777
78695SOL    HW137982   5.524   2.683   2.835
78695SOL    HW237983   5.576   2.571   2.748
78696SOL     OW37984   2.160   4.762   3.268
78696SOL    HW137985   2.201   4.676   3.278
78696SOL    HW237986   2.067   4.742   3.254
78697SOL     OW37987   3.388  12.189   4.410
78697SOL    HW137988   3.311  12.234   4.374
78697SOL    HW237989   3.422  12.138   4.337
78698SOL     OW37990  14.365   0.100   0.287
78698SOL    HW137991  14.361   0.070   0.378
78698SOL    HW237992  14.301   0.171   0.283
78699SOL     OW37993  11.037  12.579   3.266
78699SOL    HW137994  10.951  12.622   3.274
78699SOL    HW237995  11.061  12.590   3.174
78700SOL     OW37996   3.141  14.334  13.584
78700SOL    HW137997   3.054  14.358  13.615
78700SOL    HW237998   3.181  14.416  13.557
78701SOL     OW37999   6.397   9.295   4.214
78701SOL    HW138000   6.388   9.199   4.215
78701SOL    HW238001   6.327   9.324   4.155
78702SOL     OW38002   5.948   3.316  12.261
78702SOL    HW138003   5.927   3.364  12.342
78702SOL    HW238004   5.964   3.385  12.197
78703SOL     OW38005   9.883  13.034   8.971
78703SOL    HW138006   9.856  12.944   8.993
78703SOL    HW238007   9.830  13.057   8.895
78704SOL     OW38008   8.427   0.505  14.056
78704SOL    HW138009   8.352   0.523  13.999
78704SOL    HW238010   8.400   0.537  14.142
78705SOL     OW38011   2.808   7.698   1.470
78705SOL    HW138012   2.815   7.776   1.525
78705SOL    HW238013   2.812   7.625   1.532
78706SOL     OW38014   5.787   0.679   6.870
78706SOL    HW138015   5.696   0.688   6.899
78706SOL    HW238016   5.818   0.600   6.914
78707SOL     OW38017  12.781  13.548   3.445
78707SOL    HW138018  12.849  13.583   3.503
78707SOL    HW238019  12.829  13.503   3.377
78708SOL     OW38020   1.952   9.327  10.085
78708SOL    HW138021   1.958   9.292   9.996
78708SOL    HW238022   2.022   9.391  10.090
78709SOL     OW38023  13.719  11.041  10.144
78709SOL    HW138024  13.771  11.019  10.222
78709SOL    HW238025  13.728  11.136  10.135
78710SOL     OW38026   8.743   3.591  12.423
78710SOL    HW138027   8.677   3.524  12.441
78710SOL    HW238028   8.812   3.575  12.487
78711SOL     OW38029  13.589   2.942   4.901
78711SOL    HW138030  13.629   2.885   4.967
78711SOL    HW238031  13.532   2.885   4.850
78712SOL     OW38032   5.856   2.051   1.012
78712SOL    HW138033   5.915   2.003   1.070
78712SOL    HW238034   5.913   2.085   0.943
78713SOL     OW38035   5.896   5.285  13.539
78713SOL    HW138036   5.815   5.242  13.565
78713SOL    HW238037   5.872   5.376  13.524
78714SOL     OW38038   2.852   7.379   0.987
78714SOL    HW138039   2.947   7.385   0.986
78714SOL    HW238040   2.826   7.411   1.074
78715SOL     OW38041   2.453   4.659  13.206
78715SOL    HW138042   2.436   4.674  13.113
78715SOL    HW238043   2.505   4.579  13.208
78716SOL     OW38044  13.684  11.169   5.151
78716SOL    HW138045  13.685  11.264   5.149
78716SOL    HW238046  13.763  11.145   5.200
78717SOL     OW38047   9.081   0.046   3.967
78717SOL    HW138048   9.173   0.060   3.945
78717SOL    HW238049   9.035   0.057   3.883
78718SOL     OW38050   8.233   0.285   5.483
78718SOL    HW138051   8.264   0.266   5.395
78718SOL    HW238052   8.304   0.336   5.523
78719SOL     OW38053  13.040   7.719   9.562
78719SOL    HW138054  12.961   7.706   9.509
78719SOL    HW238055  13.111   7.680   9.511
78720SOL     OW38056   8.919  14.503   5.459
78720SOL    HW138057   8.951  14.426   5.411
78720SOL    HW238058   8.990  14.566   5.453
78721SOL     OW38059   2.686   1.310   0.987
78721SOL    HW138060   2.609   1.358   1.019
78721SOL    HW238061   2.678   1.314   0.891
78722SOL     OW38062   0.651  13.185   0.621
78722SOL    HW138063   0.741  13.188   0.588
78722SOL    HW238064   0.642  13.263   0.675
78723SOL     OW38065   9.003  12.019  13.346
78723SOL    HW138066   8.986  12.092  13.406
78723SOL    HW238067   8.945  11.949  13.377
78724SOL     OW38068  12.299   3.919   3.799
78724SOL    HW138069  12.327   3.983   3.864
78724SOL    HW238070  12.314   3.962   3.715
78725SOL     OW38071   9.820   6.972   5.718
78725SOL    HW138072   9.876   7.047   5.699
78725SOL    HW238073   9.877   6.896   5.707
78726SOL     OW38074  13.554   9.918   1.001
78726SOL    HW138075  13.483   9.975   0.970
78726SOL    HW238076  13.577   9.953   1.087
78727SOL     OW38077   3.784   2.433  10.577
78727SOL    HW138078   3.794   2.529  10.577
78727SOL    HW238079   3.737   2.413  10.497
78728SOL     OW38080   1.306   1.941   4.167
78728SOL    HW138081   1.238   1.890   4.211
78728SOL    HW238082   1.288   1.929   4.074
78729SOL     OW38083  11.249   1.791   7.438
78729SOL    HW138084  11.241   1.886   7.440
78729SOL    HW238085  11.334   1.773   7.479
78730SOL     OW38086   6.273  11.920   8.301
78730SOL    HW138087   6.214  11.861   8.254
78730SOL    HW238088   6.220  11.953   8.374
78731SOL     OW38089   4.722  12.211   4.450
78731SOL    HW138090   4.750  12.169   4.368
78731SOL    HW238091   4.681  12.140   4.500
78732SOL     OW38092   6.258   6.799   4.851
78732SOL    HW138093   6.316   6.772   4.780
78732SOL    HW238094   6.266   6.894   4.854
78733SOL     OW38095   1.790  14.590   0.926
78733SOL    HW138096   1.814  14.532   0.855
78733SOL    HW238097   1.872  14.604   0.975
78734SOL     OW38098   3.109   2.309   9.514
78734SOL    HW138099   3.017   2.328   9.535
78734SOL    HW238100   3.125   2.355   9.432
78735SOL     OW38101   5.894   8.590   2.740
78735SOL    HW138102   5.885   8.560   2.650
78735SOL    HW238103   5.889   8.510   2.793
78736SOL     OW38104  10.332   7.783   6.442
78736SOL    HW138105  10.385   7.758   6.366
78736SOL    HW238106  10.368   7.867   6.469
78737SOL     OW38107  10.273   9.260  13.346
78737SOL    HW138108  10.231   9.175  13.356
78737SOL    HW238109  10.224   9.318  13.405
78738SOL     OW38110   6.563  13.460   9.250
78738SOL    HW138111   6.533  13.516   9.178
78738SOL    HW238112   6.636  13.508   9.288
78739SOL     OW38113   3.936  11.610   5.598
78739SOL    HW138114   3.943  11.635   5.506
78739SOL    HW238115   3.860  11.660   5.630
78740SOL     OW38116   6.508   7.406   0.240
78740SOL    HW138117   6.484   7.478   0.181
78740SOL    HW238118   6.548   7.340   0.184
78741SOL     OW38119  13.070   1.117  12.627
78741SOL    HW138120  13.044   1.026  12.614
78741SOL    HW238121  13.000   1.154  12.681
78742SOL     OW38122  12.336   4.248  14.458
78742SOL    HW138123  12.289   4.325  14.488
78742SOL    HW238124  12.362   4.203  14.538
78743SOL     OW38125   9.526  10.345   5.248
78743SOL    HW138126   9.562  10.332   5.335
78743SOL    HW238127   9.441  10.301   5.250
78744SOL     OW38128   8.334   8.770   7.970
78744SOL    HW138129   8.313   8.701   7.907
78744SOL    HW238130   8.342   8.850   7.918
78745SOL     OW38131  11.344   6.906   0.617
78745SOL    HW138132  11.263   6.955   0.629
78745SOL    HW238133  11.393   6.920   0.698
78746SOL     OW38134   6.594   9.114   8.988
78746SOL    HW138135   6.645   9.139   8.911
78746SOL    HW238136   6.659   9.098   9.056
78747SOL     OW38137   9.495   3.162   0.717
78747SOL    HW138138   9.551   3.086   0.700
78747SOL    HW238139   9.486   3.205   0.632
78748SOL     OW38140   1.400   8.956  10.486
78748SOL    HW138141   1.496   8.960  10.476
78748SOL    HW238142   1.376   9.044  10.514
78749SOL     OW38143   4.879   1.619   1.722
78749SOL    HW138144   4.932   1.698   1.713
78749SOL    HW238145   4.791   1.651   1.742
78750SOL     OW38146  13.941   0.021   3.498
78750SOL    HW138147  13.873  14.837   3.454
78750SOL    HW238148  13.927   0.004   3.591
78751SOL     OW38149  13.802  12.425   5.577
78751SOL    HW138150  13.809  12.425   5.481
78751SOL    HW238151  13.727  12.482   5.595
78752SOL     OW38152   0.990  11.967   0.592
78752SOL    HW138153   1.083  11.947   0.599
78752SOL    HW238154   0.957  11.902   0.529
78753SOL     OW38155   0.836   5.124   8.637
78753SOL    HW138156   0.932   5.125   8.633
78753SOL    HW238157   0.808   5.166   8.556
78754SOL     OW38158   5.530   3.176   3.888
78754SOL    HW138159   5.626   3.179   3.883
78754SOL    HW238160   5.511   3.157   3.980
78755SOL     OW38161  14.699   6.956   9.139
78755SOL    HW138162  14.666   7.021   9.202
78755SOL    HW238163  14.776   6.918   9.182
78756SOL     OW38164   1.203   6.711   6.540
78756SOL    HW138165   1.164   6.670   6.618
78756SOL    HW238166   1.129   6.747   6.492
78757SOL     OW38167   8.066   3.363  12.390
78757SOL    HW138168   8.084   3.439  12.445
78757SOL    HW238169   8.056   3.399  12.302
78758SOL     OW38170  11.519   1.832   4.037
78758SOL    HW138171  11.561   1.806   4.118
78758SOL    HW238172  11.434   1.788   4.038
78759SOL     OW38173  11.405   0.805   1.244
78759SOL    HW138174  11.332   0.866   1.252
78759SOL    HW238175  11.475   0.845   1.296
78760SOL     OW38176   0.549   7.409   8.881
78760SOL    HW138177   0.626   7.454   8.847
78760SOL    HW238178   0.488   7.406   8.807
78761SOL     OW38179   0.100   1.548   6.131
78761SOL    HW138180   0.099   1.532   6.226
78761SOL    HW238181   0.177   1.602   6.117
78762SOL     OW38182   2.580   8.281   1.227
78762SOL    HW138183   2.662   8.301   1.182
78762SOL    HW238184   2.530   8.229   1.164
78763SOL     OW38185   1.120   3.682  13.238
78763SOL    HW138186   1.107   3.617  13.169
78763SOL    HW238187   1.102   3.766  13.195
78764SOL     OW38188  12.842  14.302  11.309
78764SOL    HW138189  12.888  14.343  11.235
78764SOL    HW238190  12.862  14.359  11.383
78765SOL     OW38191  12.159   0.120  14.808
78765SOL    HW138192  12.229   0.177  14.839
78765SOL    HW238193  12.080   0.173  14.816
78766SOL     OW38194   6.213   6.550   2.779
78766SOL    HW138195   6.250   6.554   2.691
78766SOL    HW238196   6.161   6.630   2.787
78767SOL     OW38197   8.781  11.417   4.272
78767SOL    HW138198   8.777  11.380   4.183
78767SOL    HW238199   8.762  11.510   4.260
78768SOL     OW38200   7.451  14.508   1.530
78768SOL    HW138201   7.392  14.564   1.481
78768SOL    HW238202   7.536  14.520   1.488
78769SOL     OW38203   6.126  11.551   1.322
78769SOL    HW138204   6.198  11.563   1.260
78769SOL    HW238205   6.118  11.635   1.367
78770SOL     OW38206   7.298   9.323   9.931
78770SOL    HW138207   7.252   9.402   9.903
78770SOL    HW238208   7.343   9.293   9.852
78771SOL     OW38209   6.137   0.516   6.242
78771SOL    HW138210   6.182   0.446   6.289
78771SOL    HW238211   6.111   0.578   6.311
78772SOL     OW38212   6.080  13.419   1.648
78772SOL    HW138213   6.137  13.421   1.725
78772SOL    HW238214   6.010  13.358   1.670
78773SOL     OW38215  13.204  11.676  11.015
78773SOL    HW138216  13.299  11.680  11.024
78773SOL    HW238217  13.189  11.606  10.951
78774SOL     OW38218   9.575   5.509   2.656
78774SOL    HW138219   9.598   5.462   2.736
78774SOL    HW238220   9.534   5.590   2.688
78775SOL     OW38221   0.501   2.705   8.099
78775SOL    HW138222   0.461   2.675   8.181
78775SOL    HW238223   0.545   2.628   8.064
78776SOL     OW38224  11.174   9.341  11.522
78776SOL    HW138225  11.099   9.283  11.534
78776SOL    HW238226  11.146   9.403  11.455
78777SOL     OW38227   8.278   7.193   4.297
78777SOL    HW138228   8.372   7.211   4.306
78777SOL    HW238229   8.236   7.274   4.324
78778SOL     OW38230   2.567  14.292   7.678
78778SOL    HW138231   2.607  14.233   7.615
78778SOL    HW238232   2.573  14.246   7.762
78779SOL     OW38233   8.701   1.693  13.581
78779SOL    HW138234   8.620   1.730  13.616
78779SOL    HW238235   8.674   1.651  13.499
78780SOL     OW38236  14.450  10.883   4.430
78780SOL    HW138237  14.440  10.909   4.521
78780SOL    HW238238  14.376  10.923   4.384
78781SOL     OW38239   3.566   6.787   1.167
78781SOL    HW138240   3.530   6.875   1.153
78781SOL    HW238241   3.596   6.760   1.080
78782SOL     OW38242   5.835  11.615  10.678
78782SOL    HW138243   5.826  11.608  10.583
78782SOL    HW238244   5.930  11.616  10.694
78783SOL     OW38245  10.491   2.467   1.469
78783SOL    HW138246  10.439   2.448   1.390
78783SOL    HW238247  10.439   2.531   1.517
78784SOL     OW38248   6.119   1.538   5.963
78784SOL    HW138249   6.077   1.512   6.045
78784SOL    HW238250   6.047   1.543   5.900
78785SOL     OW38251   6.525   9.732  10.084
78785SOL    HW138252   6.591   9.702  10.146
78785SOL    HW238253   6.532   9.827  10.085
78786SOL     OW38254  13.290  13.276  10.910
78786SOL    HW138255  13.243  13.193  10.898
78786SOL    HW238256  13.379  13.250  10.932
78787SOL     OW38257   7.378   0.719   6.743
78787SOL    HW138258   7.321   0.679   6.809
78787SOL    HW238259   7.320   0.733   6.667
78788SOL     OW38260   1.936  11.662   1.543
78788SOL    HW138261   1.860  11.721   1.542
78788SOL    HW238262   1.920  11.605   1.619
78789SOL     OW38263   2.206   2.802   7.724
78789SOL    HW138264   2.246   2.780   7.809
78789SOL    HW238265   2.277   2.789   7.661
78790SOL     OW38266  12.702  12.050  14.495
78790SOL    HW138267  12.670  12.108  14.563
78790SOL    HW238268  12.639  11.978  14.492
78791SOL     OW38269   5.790   6.746  10.147
78791SOL    HW138270   5.753   6.772  10.063
78791SOL    HW238271   5.883   6.731  10.129
78792SOL     OW38272  11.483   4.023  11.071
78792SOL    HW138273  11.464   4.099  11.125
78792SOL    HW238274  11.420   4.027  11.000
78793SOL     OW38275  14.219  10.754   9.326
78793SOL    HW138276  14.299  10.716   9.289
78793SOL    HW238277  14.160  10.765   9.252
78794SOL     OW38278   7.084   1.081  10.828
78794SOL    HW138279   7.177   1.086  10.846
78794SOL    HW238280   7.043   1.070  10.914
78795SOL     OW38281   9.354   4.678   6.999
78795SOL    HW138282   9.307   4.652   7.078
78795SOL    HW238283   9.377   4.596   6.956
78796SOL     OW38284   0.495   7.015   2.777
78796SOL    HW138285   0.562   6.950   2.757
78796SOL    HW238286   0.421   6.964   2.810
78797SOL     OW38287   4.505   0.186   9.743
78797SOL    HW138288   4.426   0.147   9.780
78797SOL    HW238289   4.475   0.233   9.665
78798SOL     OW38290  14.719  10.224  10.392
78798SOL    HW138291  14.666  10.296  10.426
78798SOL    HW238292  14.800  10.267  10.363
78799SOL     OW38293   8.518  12.936   6.172
78799SOL    HW138294   8.564  12.860   6.208
78799SOL    HW238295   8.428  12.927   6.204
78800SOL     OW38296   6.906  11.012   8.201
78800SOL    HW138297   6.913  11.103   8.230
78800SOL    HW238298   6.891  10.963   8.282
78801SOL     OW38299  11.638  14.409   6.493
78801SOL    HW138300  11.547  14.407   6.524
78801SOL    HW238301  11.647  14.331   6.438
78802SOL     OW38302   4.061  11.982   3.077
78802SOL    HW138303   4.151  11.960   3.101
78802SOL    HW238304   4.042  11.927   3.002
78803SOL     OW38305   5.608   6.000   0.918
78803SOL    HW138306   5.586   5.941   0.990
78803SOL    HW238307   5.591   6.087   0.952
78804SOL     OW38308   1.463   5.088  12.358
78804SOL    HW138309   1.403   5.015  12.345
78804SOL    HW238310   1.474   5.126  12.271
78805SOL     OW38311   9.126  11.827   5.774
78805SOL    HW138312   9.153  11.796   5.688
78805SOL    HW238313   9.038  11.861   5.761
78806SOL     OW38314  10.427  11.525  12.325
78806SOL    HW138315  10.366  11.564  12.388
78806SOL    HW238316  10.456  11.599  12.271
78807SOL     OW38317   8.537  11.852  13.523
78807SOL    HW138318   8.462  11.803  13.558
78807SOL    HW238319   8.599  11.785  13.495
78808SOL     OW38320   3.558  13.248   3.183
78808SOL    HW138321   3.529  13.157   3.185
78808SOL    HW238322   3.644  13.247   3.226
78809SOL     OW38323   6.552   1.872  10.390
78809SOL    HW138324   6.548   1.916  10.475
78809SOL    HW238325   6.520   1.938  10.328
78810SOL     OW38326   1.051  12.657   3.406
78810SOL    HW138327   0.974  12.626   3.358
78810SOL    HW238328   1.115  12.678   3.338
78811SOL     OW38329  12.787  10.519   9.353
78811SOL    HW138330  12.753  10.448   9.298
78811SOL    HW238331  12.866  10.549   9.307
78812SOL     OW38332   6.562  12.182   9.046
78812SOL    HW138333   6.564  12.169   9.141
78812SOL    HW238334   6.515  12.264   9.034
78813SOL     OW38335  13.412  11.748   2.846
78813SOL    HW138336  13.390  11.838   2.820
78813SOL    HW238337  13.382  11.694   2.774
78814SOL     OW38338   1.866   0.031   4.563
78814SOL    HW138339   1.799  14.847   4.518
78814SOL    HW238340   1.859   0.003   4.654
78815SOL     OW38341   2.895   3.050  10.357
78815SOL    HW138342   2.986   3.056  10.326
78815SOL    HW238343   2.896   3.093  10.442
78816SOL     OW38344   0.988  11.067  11.969
78816SOL    HW138345   1.061  11.008  11.949
78816SOL    HW238346   1.015  11.113  12.048
78817SOL     OW38347   1.943   6.842  14.792
78817SOL    HW138348   1.958   6.882   0.009
78817SOL    HW238349   2.012   6.775  14.785
78818SOL     OW38350   7.398  10.498   2.842
78818SOL    HW138351   7.470  10.540   2.795
78818SOL    HW238352   7.324  10.558   2.831
78819SOL     OW38353   0.132  12.723   1.520
78819SOL    HW138354   0.172  12.758   1.599
78819SOL    HW238355   0.048  12.687   1.549
78820SOL     OW38356  12.585   6.074   8.382
78820SOL    HW138357  12.612   6.008   8.446
78820SOL    HW238358  12.526   6.027   8.323
78821SOL     OW38359   6.128  12.738  14.158
78821SOL    HW138360   6.075  12.705  14.085
78821SOL    HW238361   6.073  12.725  14.236
78822SOL     OW38362   0.556   8.710   7.658
78822SOL    HW138363   0.635   8.727   7.605
78822SOL    HW238364   0.529   8.796   7.689
78823SOL     OW38365   1.403  11.527   8.204
78823SOL    HW138366   1.331  11.572   8.159
78823SOL    HW238367   1.360  11.480   8.275
78824SOL     OW38368  12.109   2.225   1.927
78824SOL    HW138369  12.130   2.318   1.941
78824SOL    HW238370  12.183   2.178   1.965
78825SOL     OW38371   1.674   7.081   0.921
78825SOL    HW138372   1.703   7.114   1.005
78825SOL    HW238373   1.664   6.986   0.933
78826SOL     OW38374   0.544   6.530  11.536
78826SOL    HW138375   0.533   6.495  11.624
78826SOL    HW238376   0.639   6.541  11.526
78827SOL     OW38377   0.945  13.941   1.819
78827SOL    HW138378   0.944  13.955   1.913
78827SOL    HW238379   0.853  13.944   1.793
78828SOL     OW38380   1.899   8.385   0.362
78828SOL    HW138381   1.811   8.406   0.392
78828SOL    HW238382   1.904   8.289   0.368
78829SOL     OW38383   9.980   9.374   2.551
78829SOL    HW138384  10.010   9.406   2.636
78829SOL    HW238385   9.976   9.279   2.561
78830SOL     OW38386  10.582  11.455   9.974
78830SOL    HW138387  10.488  11.455   9.994
78830SOL    HW238388  10.623  11.418  10.053
78831SOL     OW38389   1.664  11.325   1.530
78831SOL    HW138390   1.735  11.369   1.578
78831SOL    HW238391   1.697  11.317   1.441
78832SOL     OW38392   7.351   2.419   7.389
78832SOL    HW138393   7.434   2.399   7.431
78832SOL    HW238394   7.319   2.496   7.435
78833SOL     OW38395  10.317   8.906   6.234
78833SOL    HW138396  10.400   8.921   6.280
78833SOL    HW238397  10.274   8.836   6.284
78834SOL     OW38398  12.420   8.121   2.850
78834SOL    HW138399  12.441   8.027   2.845
78834SOL    HW238400  12.382   8.131   2.937
78835SOL     OW38401   4.391   7.207   0.341
78835SOL    HW138402   4.413   7.138   0.278
78835SOL    HW238403   4.390   7.163   0.426
78836SOL     OW38404   4.386  13.077   2.896
78836SOL    HW138405   4.393  13.059   2.802
78836SOL    HW238406   4.357  13.168   2.901
78837SOL     OW38407   8.834   3.383   7.557
78837SOL    HW138408   8.820   3.288   7.564
78837SOL    HW238409   8.814   3.417   7.645
78838SOL     OW38410   9.215  14.009   7.680
78838SOL    HW138411   9.257  14.095   7.674
78838SOL    HW238412   9.121  14.028   7.685
78839SOL     OW38413  12.504   8.886   5.161
78839SOL    HW138414  12.435   8.950   5.178
78839SOL    HW238415  12.567   8.899   5.232
78840SOL     OW38416  12.041   2.959   6.103
78840SOL    HW138417  11.983   2.949   6.027
78840SOL    HW238418  12.089   3.039   6.084
78841SOL     OW38419   1.834   4.894   1.173
78841SOL    HW138420   1.896   4.959   1.138
78841SOL    HW238421   1.859   4.885   1.265
78842SOL     OW38422   6.584  12.303  13.919
78842SOL    HW138423   6.611  12.224  13.873
78842SOL    HW238424   6.599  12.283  14.011
78843SOL     OW38425   7.361   0.133   5.494
78843SOL    HW138426   7.352   0.152   5.401
78843SOL    HW238427   7.443   0.083   5.500
78844SOL     OW38428   5.807   4.067   1.163
78844SOL    HW138429   5.901   4.081   1.174
78844SOL    HW238430   5.796   3.972   1.168
78845SOL     OW38431   4.693   2.364   0.029
78845SOL    HW138432   4.703   2.296  14.830
78845SOL    HW238433   4.652   2.318   0.102
78846SOL     OW38434  12.716   4.989   2.520
78846SOL    HW138435  12.794   5.039   2.495
78846SOL    HW238436  12.745   4.935   2.593
78847SOL     OW38437   6.069  14.675   0.173
78847SOL    HW138438   6.053  14.692   0.080
78847SOL    HW238439   5.987  14.639   0.205
78848SOL     OW38440   7.965   4.367  11.632
78848SOL    HW138441   7.951   4.288  11.684
78848SOL    HW238442   8.035   4.414  11.678
78849SOL     OW38443  14.659   7.170   3.354
78849SOL    HW138444  14.750   7.151   3.329
78849SOL    HW238445  14.607   7.106   3.304
78850SOL     OW38446   3.220   9.665   4.568
78850SOL    HW138447   3.215   9.761   4.559
78850SOL    HW238448   3.293   9.650   4.628
78851SOL     OW38449  14.504   9.323   3.357
78851SOL    HW138450  14.565   9.333   3.431
78851SOL    HW238451  14.418   9.317   3.398
78852SOL     OW38452   8.354  10.668  11.780
78852SOL    HW138453   8.412  10.592  11.781
78852SOL    HW238454   8.269  10.634  11.807
78853SOL     OW38455  11.392  12.379   3.741
78853SOL    HW138456  11.468  12.348   3.789
78853SOL    HW238457  11.407  12.473   3.730
78854SOL     OW38458   9.401   9.269   7.459
78854SOL    HW138459   9.405   9.356   7.421
78854SOL    HW238460   9.309   9.243   7.450
78855SOL     OW38461   7.823   0.646  13.379
78855SOL    HW138462   7.764   0.719  13.395
78855SOL    HW238463   7.765   0.571  13.365
78856SOL     OW38464   3.890   4.870   1.012
78856SOL    HW138465   3.855   4.787   0.982
78856SOL    HW238466   3.915   4.916   0.932
78857SOL     OW38467  11.625   5.828  12.514
78857SOL    HW138468  11.667   5.914  12.518
78857SOL    HW238469  11.534   5.845  12.540
78858SOL     OW38470   3.891   0.959  10.496
78858SOL    HW138471   3.983   0.940  10.514
78858SOL    HW238472   3.883   1.053  10.510
78859SOL     OW38473  10.051  12.189   7.418
78859SOL    HW138474  10.135  12.144   7.412
78859SOL    HW238475  10.074  12.281   7.433
78860SOL     OW38476   8.933   4.693   3.568
78860SOL    HW138477   8.951   4.602   3.542
78860SOL    HW238478   8.949   4.744   3.489
78861SOL     OW38479   5.569   0.937   8.129
78861SOL    HW138480   5.502   0.955   8.194
78861SOL    HW238481   5.637   1.001   8.147
78862SOL     OW38482  11.271   1.985   6.332
78862SOL    HW138483  11.325   1.945   6.400
78862SOL    HW238484  11.192   2.014   6.378
78863SOL     OW38485  13.831   9.853  12.196
78863SOL    HW138486  13.799   9.934  12.236
78863SOL    HW238487  13.777   9.843  12.117
78864SOL     OW38488   0.585  10.746   9.797
78864SOL    HW138489   0.567  10.834   9.830
78864SOL    HW238490   0.532  10.739   9.718
78865SOL     OW38491   6.544   1.846   2.714
78865SOL    HW138492   6.588   1.922   2.752
78865SOL    HW238493   6.457   1.847   2.755
78866SOL     OW38494   1.678   1.541   1.735
78866SOL    HW138495   1.714   1.489   1.663
78866SOL    HW238496   1.719   1.627   1.725
78867SOL     OW38497   1.958   6.827  12.880
78867SOL    HW138498   1.875   6.788  12.851
78867SOL    HW238499   1.958   6.915  12.842
78868SOL     OW38500  13.338   9.693   9.358
78868SOL    HW138501  13.253   9.733   9.380
78868SOL    HW238502  13.347   9.621   9.419
78869SOL     OW38503  14.310   7.013   2.785
78869SOL    HW138504  14.237   6.956   2.762
78869SOL    HW238505  14.277   7.102   2.773
78870SOL     OW38506   3.258  13.272   0.207
78870SOL    HW138507   3.211  13.343   0.250
78870SOL    HW238508   3.260  13.202   0.273
78871SOL     OW38509   3.454   8.774   1.016
78871SOL    HW138510   3.435   8.865   1.039
78871SOL    HW238511   3.369   8.735   0.997
78872SOL     OW38512   8.571  12.572   6.701
78872SOL    HW138513   8.544  12.662   6.719
78872SOL    HW238514   8.575  12.530   6.787
78873SOL     OW38515   1.533   2.069   1.570
78873SOL    HW138516   1.568   1.983   1.543
78873SOL    HW238517   1.443   2.069   1.537
78874SOL     OW38518   1.501   1.867  10.112
78874SOL    HW138519   1.432   1.913  10.159
78874SOL    HW238520   1.570   1.854  10.178
78875SOL     OW38521   7.411  11.842   5.800
78875SOL    HW138522   7.405  11.789   5.721
78875SOL    HW238523   7.382  11.783   5.870
78876SOL     OW38524   2.559  14.816   3.440
78876SOL    HW138525   2.627  14.815   3.373
78876SOL    HW238526   2.592  14.757   3.508
78877SOL     OW38527   4.022  13.427   6.760
78877SOL    HW138528   4.009  13.367   6.686
78877SOL    HW238529   4.107  13.403   6.795
78878SOL     OW38530   1.594   9.687   1.572
78878SOL    HW138531   1.646   9.612   1.545
78878SOL    HW238532   1.589   9.742   1.493
78879SOL     OW38533   4.651   4.306  12.079
78879SOL    HW138534   4.723   4.319  12.140
78879SOL    HW238535   4.576   4.350  12.119
78880SOL     OW38536   1.781  13.534   5.001
78880SOL    HW138537   1.741  13.488   5.075
78880SOL    HW238538   1.739  13.620   5.001
78881SOL     OW38539  12.078  10.274   0.792
78881SOL    HW138540  12.020  10.228   0.732
78881SOL    HW238541  12.149  10.307   0.736
78882SOL     OW38542   8.097   0.067  11.989
78882SOL    HW138543   8.042   0.033  11.919
78882SOL    HW238544   8.071   0.159  11.996
78883SOL     OW38545   9.123   7.402  14.819
78883SOL    HW138546   9.030   7.427  14.821
78883SOL    HW238547   9.136   7.351   0.031
78884SOL     OW38548  11.524  12.725  11.595
78884SOL    HW138549  11.484  12.643  11.625
78884SOL    HW238550  11.450  12.783  11.578
78885SOL     OW38551  10.972   4.608   6.102
78885SOL    HW138552  10.928   4.687   6.072
78885SOL    HW238553  11.065   4.631   6.104
78886SOL     OW38554  12.488   8.936  14.699
78886SOL    HW138555  12.581   8.960  14.691
78886SOL    HW238556  12.448   9.012  14.741
78887SOL     OW38557  13.071   8.729  14.664
78887SOL    HW138558  13.166   8.724  14.680
78887SOL    HW238559  13.063   8.783  14.586
78888SOL     OW38560   5.005   8.230  14.704
78888SOL    HW138561   5.041   8.279  14.778
78888SOL    HW238562   4.928   8.185  14.740
78889SOL     OW38563   5.723   0.787  12.029
78889SOL    HW138564   5.655   0.800  12.096
78889SOL    HW238565   5.673   0.769  11.948
78890SOL     OW38566   7.850  14.373   8.633
78890SOL    HW138567   7.777  14.408   8.582
78890SOL    HW238568   7.812  14.358   8.720
78891SOL     OW38569  10.480  12.781   3.149
78891SOL    HW138570  10.407  12.817   3.100
78891SOL    HW238571  10.556  12.833   3.121
78892SOL     OW38572   7.452   7.453   0.931
78892SOL    HW138573   7.523   7.469   0.869
78892SOL    HW238574   7.485   7.384   0.988
78893SOL     OW38575   2.340  13.811  10.574
78893SOL    HW138576   2.270  13.817  10.639
78893SOL    HW238577   2.368  13.720  10.577
78894SOL     OW38578   0.556  11.266   8.933
78894SOL    HW138579   0.465  11.283   8.908
78894SOL    HW238580   0.557  11.274   9.028
78895SOL     OW38581   5.891   7.307  10.694
78895SOL    HW138582   5.808   7.273  10.659
78895SOL    HW238583   5.956   7.240  10.670
78896SOL     OW38584   9.333  11.130   7.506
78896SOL    HW138585   9.292  11.155   7.589
78896SOL    HW238586   9.316  11.203   7.447
78897SOL     OW38587   3.362   7.715   2.113
78897SOL    HW138588   3.306   7.660   2.169
78897SOL    HW238589   3.435   7.658   2.089
78898SOL     OW38590   2.623   6.777   9.142
78898SOL    HW138591   2.561   6.842   9.108
78898SOL    HW238592   2.654   6.732   9.064
78899SOL     OW38593   6.155  11.666   0.153
78899SOL    HW138594   6.193  11.629   0.074
78899SOL    HW238595   6.216  11.735   0.180
78900SOL     OW38596  12.103   6.815   2.534
78900SOL    HW138597  12.185   6.791   2.491
78900SOL    HW238598  12.129   6.875   2.603
78901SOL     OW38599   8.731   6.110  13.662
78901SOL    HW138600   8.721   6.019  13.689
78901SOL    HW238601   8.752   6.105  13.569
78902SOL     OW38602   9.588   9.650  11.933
78902SOL    HW138603   9.558   9.612  11.851
78902SOL    HW238604   9.516   9.634  11.995
78903SOL     OW38605   8.824   8.730   4.420
78903SOL    HW138606   8.826   8.825   4.409
78903SOL    HW238607   8.730   8.707   4.420
78904SOL     OW38608  11.075   6.270  12.936
78904SOL    HW138609  11.156   6.302  12.976
78904SOL    HW238610  11.047   6.198  12.993
78905SOL     OW38611   7.401   5.867   2.744
78905SOL    HW138612   7.465   5.838   2.679
78905SOL    HW238613   7.370   5.952   2.711
78906SOL     OW38614   6.885   9.625  11.576
78906SOL    HW138615   6.964   9.631  11.630
78906SOL    HW238616   6.817   9.595  11.636
78907SOL     OW38617   6.637   3.824   6.303
78907SOL    HW138618   6.660   3.739   6.267
78907SOL    HW238619   6.679   3.887   6.245
78908SOL     OW38620   6.334   6.704   4.268
78908SOL    HW138621   6.395   6.659   4.210
78908SOL    HW238622   6.295   6.772   4.214
78909SOL     OW38623   1.646   1.133   4.084
78909SOL    HW138624   1.611   1.102   4.167
78909SOL    HW238625   1.619   1.067   4.020
78910SOL     OW38626   2.455   0.667   2.708
78910SOL    HW138627   2.464   0.621   2.792
78910SOL    HW238628   2.543   0.697   2.687
78911SOL     OW38629   9.016   5.271   9.874
78911SOL    HW138630   8.961   5.193   9.875
78911SOL    HW238631   8.954   5.344   9.877
78912SOL     OW38632  10.460   1.546   5.450
78912SOL    HW138633  10.374   1.509   5.430
78912SOL    HW238634  10.467   1.541   5.545
78913SOL     OW38635   4.268   9.934  11.953
78913SOL    HW138636   4.212  10.004  11.918
78913SOL    HW238637   4.327   9.912  11.881
78914SOL     OW38638   1.538   3.657   7.986
78914SOL    HW138639   1.542   3.586   7.922
78914SOL    HW238640   1.615   3.711   7.966
78915SOL     OW38641   9.036   6.203   3.096
78915SOL    HW138642   9.021   6.128   3.154
78915SOL    HW238643   9.075   6.165   3.017
78916SOL     OW38644   4.084   6.949  13.118
78916SOL    HW138645   4.133   7.030  13.134
78916SOL    HW238646   4.017   6.948  13.186
78917SOL     OW38647   0.183   4.549   3.907
78917SOL    HW138648   0.182   4.454   3.904
78917SOL    HW238649   0.273   4.573   3.885
78918SOL     OW38650   7.728   6.843   0.398
78918SOL    HW138651   7.738   6.860   0.304
78918SOL    HW238652   7.643   6.882   0.420
78919SOL     OW38653  10.385   4.503  13.928
78919SOL    HW138654  10.338   4.440  13.873
78919SOL    HW238655  10.446   4.547  13.869
78920SOL     OW38656   5.841   4.695   0.344
78920SOL    HW138657   5.910   4.760   0.330
78920SOL    HW238658   5.818   4.704   0.436
78921SOL     OW38659   3.144  13.450   8.665
78921SOL    HW138660   3.176  13.440   8.575
78921SOL    HW238661   3.049  13.454   8.656
78922SOL     OW38662  14.052   2.112   0.373
78922SOL    HW138663  14.114   2.088   0.304
78922SOL    HW238664  14.071   2.204   0.391
78923SOL     OW38665   1.700   0.070   1.056
78923SOL    HW138666   1.634   0.021   1.105
78923SOL    HW238667   1.783   0.041   1.093
78924SOL     OW38668   1.348   6.100   7.392
78924SOL    HW138669   1.334   6.158   7.467
78924SOL    HW238670   1.347   6.012   7.429
78925SOL     OW38671  13.983  10.726   4.134
78925SOL    HW138672  13.906  10.753   4.185
78925SOL    HW238673  13.987  10.788   4.061
78926SOL     OW38674   0.424  11.892  11.504
78926SOL    HW138675   0.450  11.822  11.564
78926SOL    HW238676   0.507  11.932  11.476
78927SOL     OW38677   0.515  12.863  11.539
78927SOL    HW138678   0.543  12.785  11.491
78927SOL    HW238679   0.594  12.897  11.579
78928SOL     OW38680  12.243   8.143   5.882
78928SOL    HW138681  12.235   8.113   5.791
78928SOL    HW238682  12.325   8.192   5.883
78929SOL     OW38683   5.263   4.544  12.671
78929SOL    HW138684   5.249   4.525  12.764
78929SOL    HW238685   5.186   4.508  12.627
78930SOL     OW38686   2.317  10.090   8.014
78930SOL    HW138687   2.222  10.097   7.999
78930SOL    HW238688   2.343  10.012   7.965
78931SOL     OW38689  11.008   3.200  13.982
78931SOL    HW138690  10.970   3.285  13.957
78931SOL    HW238691  10.992   3.193  14.076
78932SOL     OW38692   6.758   4.094   1.815
78932SOL    HW138693   6.751   4.138   1.730
78932SOL    HW238694   6.709   4.013   1.805
78933SOL     OW38695  10.225   3.633   9.575
78933SOL    HW138696  10.272   3.579   9.638
78933SOL    HW238697  10.293   3.676   9.523
78934SOL     OW38698   5.974   4.950   8.801
78934SOL    HW138699   5.905   4.996   8.848
78934SOL    HW238700   5.958   4.970   8.709
78935SOL     OW38701   5.440   4.498   6.022
78935SOL    HW138702   5.488   4.475   6.101
78935SOL    HW238703   5.447   4.421   5.966
78936SOL     OW38704   6.737   1.714   2.585
78936SOL    HW138705   6.664   1.765   2.623
78936SOL    HW238706   6.750   1.643   2.648
78937SOL     OW38707  12.606  13.541  14.266
78937SOL    HW138708  12.554  13.547  14.186
78937SOL    HW238709  12.656  13.459  14.256
78938SOL     OW38710  11.658   8.628   0.562
78938SOL    HW138711  11.566   8.653   0.564
78938SOL    HW238712  11.700   8.682   0.629
78939SOL     OW38713   6.014   3.920  11.030
78939SOL    HW138714   5.988   3.857  11.097
78939SOL    HW238715   6.000   4.006  11.071
78940SOL     OW38716  13.076   7.301   0.508
78940SOL    HW138717  13.150   7.320   0.566
78940SOL    HW238718  13.107   7.326   0.421
78941SOL     OW38719  14.266  10.874   1.163
78941SOL    HW138720  14.327  10.804   1.140
78941SOL    HW238721  14.273  10.937   1.091
78942SOL     OW38722   6.327  11.712   4.949
78942SOL    HW138723   6.307  11.800   4.920
78942SOL    HW238724   6.251  11.659   4.924
78943SOL     OW38725   1.333   4.196  13.077
78943SOL    HW138726   1.295   4.268  13.128
78943SOL    HW238727   1.337   4.230  12.987
78944SOL     OW38728  11.858  14.805  11.965
78944SOL    HW138729  11.792  14.798  12.034
78944SOL    HW238730  11.867   0.031  11.950
78945SOL     OW38731  10.564   1.391   3.896
78945SOL    HW138732  10.639   1.333   3.881
78945SOL    HW238733  10.515   1.349   3.967
78946SOL     OW38734  11.405   9.275  14.460
78946SOL    HW138735  11.369   9.271  14.371
78946SOL    HW238736  11.333   9.250  14.516
78947SOL     OW38737   1.182   5.811   5.439
78947SOL    HW138738   1.244   5.778   5.374
78947SOL    HW238739   1.100   5.765   5.418
78948SOL     OW38740  10.028   3.818  14.102
78948SOL    HW138741   9.968   3.806  14.174
78948SOL    HW238742  10.042   3.730  14.066
78949SOL     OW38743  12.070  12.472   9.653
78949SOL    HW138744  12.138  12.405   9.645
78949SOL    HW238745  12.108  12.538   9.711
78950SOL     OW38746   9.026   4.042   3.720
78950SOL    HW138747   9.023   3.949   3.743
78950SOL    HW238748   8.995   4.087   3.799
78951SOL     OW38749  13.346   6.240  14.009
78951SOL    HW138750  13.397   6.261  14.087
78951SOL    HW238751  13.351   6.319  13.955
78952SOL     OW38752   8.716   2.468   3.016
78952SOL    HW138753   8.654   2.541   3.024
78952SOL    HW238754   8.742   2.449   3.106
78953SOL     OW38755  10.431   5.032   9.058
78953SOL    HW138756  10.389   5.065   8.979
78953SOL    HW238757  10.462   4.945   9.034
78954SOL     OW38758   5.840  12.837  12.865
78954SOL    HW138759   5.782  12.818  12.938
78954SOL    HW238760   5.921  12.790  12.886
78955SOL     OW38761  10.890   3.901   4.730
78955SOL    HW138762  10.856   3.812   4.725
78955SOL    HW238763  10.951   3.900   4.804
78956SOL     OW38764  11.236  12.787   2.737
78956SOL    HW138765  11.242  12.808   2.830
78956SOL    HW238766  11.174  12.852   2.702
78957SOL     OW38767  12.904  13.324   4.773
78957SOL    HW138768  12.971  13.359   4.714
78957SOL    HW238769  12.845  13.275   4.716
78958SOL     OW38770   3.316  13.941   9.968
78958SOL    HW138771   3.291  14.026   9.932
78958SOL    HW238772   3.243  13.883   9.946
78959SOL     OW38773  12.471   2.234  13.320
78959SOL    HW138774  12.464   2.144  13.352
78959SOL    HW238775  12.564   2.245  13.298
78960SOL     OW38776   7.562  12.720  10.964
78960SOL    HW138777   7.586  12.768  11.043
78960SOL    HW238778   7.643  12.679  10.935
78961SOL     OW38779   4.613   8.815   2.094
78961SOL    HW138780   4.549   8.770   2.038
78961SOL    HW238781   4.567   8.827   2.178
78962SOL     OW38782   5.237   9.907  13.955
78962SOL    HW138783   5.193   9.822  13.952
78962SOL    HW238784   5.298   9.904  13.881
78963SOL     OW38785  11.837  11.537  10.441
78963SOL    HW138786  11.769  11.495  10.491
78963SOL    HW238787  11.869  11.469  10.381
78964SOL     OW38788  12.567   8.619  10.518
78964SOL    HW138789  12.494   8.566  10.551
78964SOL    HW238790  12.540   8.710  10.535
78965SOL     OW38791   9.981   4.740  12.874
78965SOL    HW138792   9.996   4.778  12.787
78965SOL    HW238793  10.067   4.712  12.903
78966SOL     OW38794   5.706   0.459   1.839
78966SOL    HW138795   5.626   0.463   1.892
78966SOL    HW238796   5.775   0.489   1.898
78967SOL     OW38797   0.450  13.979   9.242
78967SOL    HW138798   0.403  13.981   9.326
78967SOL    HW238799   0.400  14.037   9.185
78968SOL     OW38800   3.204  10.971   3.639
78968SOL    HW138801   3.167  10.890   3.674
78968SOL    HW238802   3.183  10.969   3.546
78969SOL     OW38803   0.331   5.151   5.537
78969SOL    HW138804   0.342   5.060   5.510
78969SOL    HW238805   0.335   5.201   5.455
78970SOL     OW38806  13.384   5.276  10.229
78970SOL    HW138807  13.413   5.202  10.175
78970SOL    HW238808  13.407   5.353  10.178
78971SOL     OW38809   0.077   4.184  11.976
78971SOL    HW138810   0.145   4.121  12.000
78971SOL    HW238811   0.114   4.231  11.901
78972SOL     OW38812  12.561   4.176   8.327
78972SOL    HW138813  12.612   4.256   8.340
78972SOL    HW238814  12.470   4.205   8.332
78973SOL     OW38815   0.045   6.998  13.522
78973SOL    HW138816   0.068   7.067  13.584
78973SOL    HW238817  14.848   6.945  13.567
78974SOL     OW38818   2.451   0.979  10.991
78974SOL    HW138819   2.467   1.073  11.006
78974SOL    HW238820   2.475   0.966  10.899
78975SOL     OW38821   6.405   5.960   3.181
78975SOL    HW138822   6.370   5.950   3.270
78975SOL    HW238823   6.389   5.876   3.139
78976SOL     OW38824   7.501   5.830   9.974
78976SOL    HW138825   7.456   5.773  10.036
78976SOL    HW238826   7.492   5.787   9.889
78977SOL     OW38827   6.766  11.935   1.762
78977SOL    HW138828   6.852  11.899   1.786
78977SOL    HW238829   6.765  11.935   1.666
78978SOL     OW38830   8.078   8.277   0.142
78978SOL    HW138831   8.104   8.261   0.051
78978SOL    HW238832   8.154   8.251   0.193
78979SOL     OW38833  10.014  10.964   0.139
78979SOL    HW138834  10.001  10.873   0.166
78979SOL    HW238835  10.074  11.000   0.204
78980SOL     OW38836  12.122  10.496   9.184
78980SOL    HW138837  12.154  10.585   9.165
78980SOL    HW238838  12.197  10.440   9.169
78981SOL     OW38839   5.560  13.315   9.501
78981SOL    HW138840   5.570  13.282   9.591
78981SOL    HW238841   5.587  13.407   9.506
78982SOL     OW38842   5.492   6.689  11.937
78982SOL    HW138843   5.468   6.628  11.867
78982SOL    HW238844   5.585   6.671  11.953
78983SOL     OW38845   6.387   5.416   6.275
78983SOL    HW138846   6.339   5.396   6.356
78983SOL    HW238847   6.338   5.370   6.206
78984SOL     OW38848   1.814  10.459   8.899
78984SOL    HW138849   1.888  10.407   8.866
78984SOL    HW238850   1.853  10.511   8.970
78985SOL     OW38851   8.859   1.995   0.859
78985SOL    HW138852   8.932   1.943   0.824
78985SOL    HW238853   8.784   1.968   0.807
78986SOL     OW38854   5.991   9.337   0.124
78986SOL    HW138855   5.935   9.261   0.140
78986SOL    HW238856   5.935   9.412   0.139
78987SOL     OW38857   1.025  14.574  13.573
78987SOL    HW138858   0.931  14.583  13.586
78987SOL    HW238859   1.034  14.496  13.518
78988SOL     OW38860   8.761  11.615   5.863
78988SOL    HW138861   8.839  11.617   5.918
78988SOL    HW238862   8.688  11.608   5.925
78989SOL     OW38863   3.857  12.268  13.557
78989SOL    HW138864   3.895  12.325  13.623
78989SOL    HW238865   3.921  12.199  13.544
78990SOL     OW38866  14.847   2.417   7.862
78990SOL    HW138867   0.062   2.436   7.905
78990SOL    HW238868  14.792   2.381   7.931
78991SOL     OW38869   7.343   6.902   8.878
78991SOL    HW138870   7.425   6.950   8.890
78991SOL    HW238871   7.322   6.914   8.786
78992SOL     OW38872   2.642  10.281  13.711
78992SOL    HW138873   2.616  10.208  13.655
78992SOL    HW238874   2.730  10.258  13.741
78993SOL     OW38875   2.367   2.700   3.636
78993SOL    HW138876   2.362   2.777   3.694
78993SOL    HW238877   2.287   2.651   3.655
78994SOL     OW38878  13.909  10.503   2.182
78994SOL    HW138879  13.922  10.517   2.276
78994SOL    HW238880  13.815  10.485   2.174
78995SOL     OW38881  11.948   5.114  10.259
78995SOL    HW138882  11.917   5.203  10.276
78995SOL    HW238883  11.875   5.072  10.212
78996SOL     OW38884  10.032  12.313  12.910
78996SOL    HW138885  10.056  12.234  12.959
78996SOL    HW238886  10.088  12.382  12.945
78997SOL     OW38887  14.829   2.042   8.702
78997SOL    HW138888  14.800   2.067   8.790
78997SOL    HW238889  14.817   2.121   8.650
78998SOL     OW38890  10.184  12.858   5.920
78998SOL    HW138891  10.198  12.935   5.975
78998SOL    HW238892  10.121  12.805   5.969
78999SOL     OW38893   5.217   3.746   7.011
78999SOL    HW138894   5.240   3.697   7.090
78999SOL    HW238895   5.288   3.810   7.001
79000SOL     OW38896   2.124   1.642   7.545
79000SOL    HW138897   2.074   1.679   7.472
79000SOL    HW238898   2.076   1.562   7.569
79001SOL     OW38899   3.282   6.579   7.735
79001SOL    HW138900   3.242   6.508   7.785
79001SOL    HW238901   3.212   6.609   7.677
79002SOL     OW38902   9.799   0.999   4.846
79002SOL    HW138903   9.753   0.925   4.807
79002SOL    HW238904   9.891   0.985   4.822
79003SOL     OW38905   0.571   5.071   5.828
79003SOL    HW138906   0.594   5.058   5.736
79003SOL    HW238907   0.561   5.166   5.837
79004SOL     OW38908   4.814   5.056   9.271
79004SOL    HW138909   4.860   4.982   9.312
79004SOL    HW238910   4.763   5.016   9.201
79005SOL     OW38911   2.556   2.435  12.580
79005SOL    HW138912   2.579   2.515  12.627
79005SOL    HW238913   2.472   2.408  12.619
79006SOL     OW38914  10.897  14.114   4.015
79006SOL    HW138915  10.883  14.050   4.085
79006SOL    HW238916  10.993  14.117   4.005
79007SOL     OW38917   8.348  12.180   9.572
79007SOL    HW138918   8.312  12.198   9.659
79007SOL    HW238919   8.273  12.185   9.513
79008SOL     OW38920   5.578   2.488   0.436
79008SOL    HW138921   5.596   2.456   0.347
79008SOL    HW238922   5.602   2.580   0.434
79009SOL     OW38923   1.489  11.233   6.417
79009SOL    HW138924   1.524  11.317   6.386
79009SOL    HW238925   1.508  11.233   6.511
79010SOL     OW38926   3.692   0.180   5.560
79010SOL    HW138927   3.634   0.229   5.502
79010SOL    HW238928   3.666   0.089   5.549
79011SOL     OW38929  14.735   4.988   9.503
79011SOL    HW138930  14.756   5.007   9.595
79011SOL    HW238931  14.817   5.004   9.456
79012SOL     OW38932   4.671   5.413  12.977
79012SOL    HW138933   4.703   5.398  12.888
79012SOL    HW238934   4.746   5.394  13.033
79013SOL     OW38935  13.803   3.210  14.360
79013SOL    HW138936  13.761   3.170  14.436
79013SOL    HW238937  13.737   3.271  14.326
79014SOL     OW38938   4.703  11.249   9.734
79014SOL    HW138939   4.757  11.188   9.784
79014SOL    HW238940   4.766  11.308   9.692
79015SOL     OW38941   4.183   3.062   5.775
79015SOL    HW138942   4.220   2.974   5.782
79015SOL    HW238943   4.136   3.063   5.692
79016SOL     OW38944   3.789  13.805   8.879
79016SOL    HW138945   3.848  13.829   8.951
79016SOL    HW238946   3.842  13.750   8.822
79017SOL     OW38947   8.222   6.960   3.772
79017SOL    HW138948   8.240   7.021   3.843
79017SOL    HW238949   8.293   6.976   3.709
79018SOL     OW38950   3.398   5.880   7.327
79018SOL    HW138951   3.408   5.974   7.310
79018SOL    HW238952   3.308   5.861   7.299
79019SOL     OW38953   4.479   1.233   1.803
79019SOL    HW138954   4.440   1.311   1.762
79019SOL    HW238955   4.527   1.190   1.733
79020SOL     OW38956   2.815   0.000   4.085
79020SOL    HW138957   2.745  14.850   4.148
79020SOL    HW238958   2.892   0.019   4.139
79021SOL     OW38959   6.324  11.854   1.992
79021SOL    HW138960   6.401  11.904   1.965
79021SOL    HW238961   6.252  11.917   1.990
79022SOL     OW38962  14.554  12.892   9.625
79022SOL    HW138963  14.644  12.924   9.615
79022SOL    HW238964  14.530  12.860   9.538
79023SOL     OW38965   4.804   0.921   0.821
79023SOL    HW138966   4.759   0.888   0.742
79023SOL    HW238967   4.860   0.991   0.789
79024SOL     OW38968   6.222   7.671   1.359
79024SOL    HW138969   6.129   7.680   1.380
79024SOL    HW238970   6.225   7.601   1.293
79025SOL     OW38971   7.328   8.720  11.424
79025SOL    HW138972   7.371   8.753  11.503
79025SOL    HW238973   7.333   8.625  11.431
79026SOL     OW38974  10.738   5.020  10.981
79026SOL    HW138975  10.688   4.957  10.930
79026SOL    HW238976  10.829   5.006  10.954
79027SOL     OW38977   8.420  14.650  12.083
79027SOL    HW138978   8.390  14.594  12.154
79027SOL    HW238979   8.501  14.688  12.115
79028SOL     OW38980   8.153   3.620   1.884
79028SOL    HW138981   8.242   3.653   1.877
79028SOL    HW238982   8.122   3.651   1.969
79029SOL     OW38983   9.987   0.474   7.478
79029SOL    HW138984   9.985   0.425   7.396
79029SOL    HW238985   9.934   0.422   7.539
79030SOL     OW38986  10.669   0.514   6.689
79030SOL    HW138987  10.711   0.594   6.660
79030SOL    HW238988  10.702   0.500   6.778
79031SOL     OW38989   2.407   4.140   0.090
79031SOL    HW138990   2.345   4.079   0.129
79031SOL    HW238991   2.397   4.221   0.139
79032SOL     OW38992  14.824   3.998   6.669
79032SOL    HW138993  14.837   3.948   6.749
79032SOL    HW238994  14.761   4.066   6.693
79033SOL     OW38995  13.335   1.121   2.554
79033SOL    HW138996  13.334   1.195   2.616
79033SOL    HW238997  13.243   1.106   2.532
79034SOL     OW38998   1.610  12.351   0.007
79034SOL    HW138999   1.524  12.357   0.049
79034SOL    HW239000   1.594  12.374  14.783
79035SOL     OW39001  12.401  11.655   3.541
79035SOL    HW139002  12.358  11.648   3.456
79035SOL    HW239003  12.393  11.748   3.565
79036SOL     OW39004  12.977   4.524   6.227
79036SOL    HW139005  12.888   4.540   6.260
79036SOL    HW239006  13.033   4.577   6.284
79037SOL     OW39007   6.954  13.280  10.032
79037SOL    HW139008   6.986  13.247  10.116
79037SOL    HW239009   6.859  13.269  10.036
79038SOL     OW39010  14.246  11.593   3.366
79038SOL    HW139011  14.263  11.544   3.285
79038SOL    HW239012  14.162  11.558   3.398
79039SOL     OW39013  14.513  11.786   8.441
79039SOL    HW139014  14.608  11.785   8.438
79039SOL    HW239015  14.492  11.848   8.512
79040SOL     OW39016   1.746  12.186  13.663
79040SOL    HW139017   1.793  12.104  13.651
79040SOL    HW239018   1.664  12.161  13.706
79041SOL     OW39019   8.346   9.383   7.252
79041SOL    HW139020   8.368   9.290   7.246
79041SOL    HW239021   8.267   9.392   7.199
79042SOL     OW39022   8.189  10.602   4.901
79042SOL    HW139023   8.144  10.518   4.904
79042SOL    HW239024   8.192  10.624   4.808
79043SOL     OW39025   9.027  11.135   9.112
79043SOL    HW139026   8.934  11.156   9.123
79043SOL    HW239027   9.063  11.209   9.064
79044SOL     OW39028   9.260   6.623   8.952
79044SOL    HW139029   9.206   6.544   8.949
79044SOL    HW239030   9.247   6.664   8.866
79045SOL     OW39031   7.905   3.402   4.956
79045SOL    HW139032   7.986   3.391   4.905
79045SOL    HW239033   7.935   3.406   5.047
79046SOL     OW39034  13.522   0.106   9.094
79046SOL    HW139035  13.611   0.078   9.116
79046SOL    HW239036  13.529   0.201   9.079
79047SOL     OW39037  12.518  10.153   1.823
79047SOL    HW139038  12.438  10.106   1.847
79047SOL    HW239039  12.569  10.156   1.904
79048SOL     OW39040   1.755   0.347  13.742
79048SOL    HW139041   1.783   0.415  13.803
79048SOL    HW239042   1.815   0.355  13.668
79049SOL     OW39043   2.185  13.662   9.568
79049SOL    HW139044   2.171  13.669   9.474
79049SOL    HW239045   2.114  13.606   9.599
79050SOL     OW39046   3.362   6.782   7.910
79050SOL    HW139047   3.355   6.710   7.847
79050SOL    HW239048   3.348   6.861   7.857
79051SOL     OW39049   6.673   4.333  10.377
79051SOL    HW139050   6.766   4.343  10.399
79051SOL    HW239051   6.673   4.286  10.293
79052SOL     OW39052  11.184   1.381   0.351
79052SOL    HW139053  11.116   1.366   0.417
79052SOL    HW239054  11.182   1.475   0.335
79053SOL     OW39055  13.344  14.206  13.043
79053SOL    HW139056  13.286  14.199  12.967
79053SOL    HW239057  13.407  14.135  13.031
79054SOL     OW39058  14.232  12.895  14.016
79054SOL    HW139059  14.203  12.875  14.105
79054SOL    HW239060  14.177  12.968  13.988
79055SOL     OW39061   5.527   9.918  12.450
79055SOL    HW139062   5.532   9.907  12.355
79055SOL    HW239063   5.541  10.012  12.463
79056SOL     OW39064   4.481   0.280   4.441
79056SOL    HW139065   4.575   0.294   4.454
79056SOL    HW239066   4.476   0.214   4.372
79057SOL     OW39067   5.556   4.173   5.477
79057SOL    HW139068   5.461   4.164   5.472
79057SOL    HW239069   5.574   4.261   5.442
79058SOL     OW39070   2.549  13.620   7.899
79058SOL    HW139071   2.503  13.640   7.817
79058SOL    HW239072   2.485  13.636   7.968
79059SOL     OW39073   1.898   5.553   9.011
79059SOL    HW139074   1.803   5.548   9.000
79059SOL    HW239075   1.930   5.594   8.930
79060SOL     OW39076  10.934   7.325   8.688
79060SOL    HW139077  10.847   7.355   8.660
79060SOL    HW239078  10.992   7.398   8.665
79061SOL     OW39079   6.557   6.620   5.871
79061SOL    HW139080   6.600   6.534   5.870
79061SOL    HW239081   6.562   6.651   5.781
79062SOL     OW39082   0.746  12.607   2.590
79062SOL    HW139083   0.707  12.595   2.503
79062SOL    HW239084   0.805  12.532   2.600
79063SOL     OW39085  14.566   9.289  12.509
79063SOL    HW139086  14.612   9.214  12.472
79063SOL    HW239087  14.575   9.279  12.603
79064SOL     OW39088  13.893   2.031   7.327
79064SOL    HW139089  13.917   1.945   7.362
79064SOL    HW239090  13.832   2.067   7.390
79065SOL     OW39091   1.424   9.175  13.537
79065SOL    HW139092   1.371   9.106  13.576
79065SOL    HW239093   1.396   9.179  13.446
79066SOL     OW39094   9.182   5.928  11.316
79066SOL    HW139095   9.210   6.017  11.340
79066SOL    HW239096   9.257   5.872  11.337
79067SOL     OW39097   7.947   7.534  11.683
79067SOL    HW139098   7.964   7.441  11.698
79067SOL    HW239099   8.028   7.567  11.645
79068SOL     OW39100   3.661   8.366   3.947
79068SOL    HW139101   3.723   8.381   3.875
79068SOL    HW239102   3.638   8.454   3.977
79069SOL     OW39103   5.933  11.168  12.683
79069SOL    HW139104   5.853  11.206  12.720
79069SOL    HW239105   5.958  11.229  12.614
79070SOL     OW39106   1.700   3.138   9.345
79070SOL    HW139107   1.784   3.154   9.387
79070SOL    HW239108   1.722   3.092   9.264
79071SOL     OW39109  10.935   7.782  13.108
79071SOL    HW139110  10.887   7.700  13.116
79071SOL    HW239111  10.868   7.847  13.087
79072SOL     OW39112   5.418  13.270   7.043
79072SOL    HW139113   5.372  13.228   6.971
79072SOL    HW239114   5.350  13.318   7.090
79073SOL     OW39115   8.971  10.446   5.499
79073SOL    HW139116   9.005  10.461   5.411
79073SOL    HW239117   8.888  10.494   5.501
79074SOL     OW39118   2.360   5.669   6.300
79074SOL    HW139119   2.439   5.659   6.248
79074SOL    HW239120   2.288   5.653   6.239
79075SOL     OW39121   9.003   3.097   1.186
79075SOL    HW139122   8.964   3.090   1.273
79075SOL    HW239123   9.034   3.009   1.166
79076SOL     OW39124   9.113   5.026   6.137
79076SOL    HW139125   9.202   5.061   6.146
79076SOL    HW239126   9.126   4.932   6.122
79077SOL     OW39127   1.859   7.259   0.553
79077SOL    HW139128   1.775   7.250   0.508
79077SOL    HW239129   1.906   7.326   0.502
79078SOL     OW39130   0.296   4.965  14.422
79078SOL    HW139131   0.361   4.904  14.389
79078SOL    HW239132   0.260   4.923  14.500
79079SOL     OW39133   3.701   2.530   5.536
79079SOL    HW139134   3.753   2.539   5.456
79079SOL    HW239135   3.610   2.527   5.505
79080SOL     OW39136   8.441   0.735   8.631
79080SOL    HW139137   8.449   0.642   8.609
79080SOL    HW239138   8.481   0.743   8.717
79081SOL     OW39139   5.182   3.696   3.567
79081SOL    HW139140   5.184   3.610   3.608
79081SOL    HW239141   5.111   3.690   3.503
79082SOL     OW39142   1.102   4.452   2.008
79082SOL    HW139143   1.105   4.457   1.913
79082SOL    HW239144   1.169   4.514   2.038
79083SOL     OW39145  13.910  12.544   1.416
79083SOL    HW139146  13.950  12.631   1.411
79083SOL    HW239147  13.962  12.497   1.481
79084SOL     OW39148  10.597  14.488   3.997
79084SOL    HW139149  10.672  14.446   3.956
79084SOL    HW239150  10.609  14.474   4.091
79085SOL     OW39151  12.764   4.900   9.864
79085SOL    HW139152  12.799   4.858   9.942
79085SOL    HW239153  12.700   4.838   9.830
79086SOL     OW39154   8.818   5.581  14.221
79086SOL    HW139155   8.778   5.560  14.306
79086SOL    HW239156   8.744   5.605  14.165
79087SOL     OW39157  10.057   6.308   2.858
79087SOL    HW139158   9.962   6.305   2.869
79087SOL    HW239159  10.076   6.401   2.839
79088SOL     OW39160   9.118   6.779  12.319
79088SOL    HW139161   9.205   6.754  12.350
79088SOL    HW239162   9.094   6.853  12.376
79089SOL     OW39163  14.669   0.261  11.455
79089SOL    HW139164  14.598   0.233  11.398
79089SOL    HW239165  14.704   0.180  11.493
79090SOL     OW39166  12.336   5.700   2.122
79090SOL    HW139167  12.304   5.665   2.039
79090SOL    HW239168  12.390   5.631   2.159
79091SOL     OW39169   8.561   0.318  14.855
79091SOL    HW139170   8.517   0.333   0.070
79091SOL    HW239171   8.653   0.339   0.004
79092SOL     OW39172   0.487   3.587   0.311
79092SOL    HW139173   0.475   3.547   0.225
79092SOL    HW239174   0.419   3.654   0.315
79093SOL     OW39175   2.695  10.390   0.993
79093SOL    HW139176   2.748  10.463   0.961
79093SOL    HW239177   2.668  10.344   0.913
79094SOL     OW39178   4.863  12.234   2.801
79094SOL    HW139179   4.807  12.216   2.877
79094SOL    HW239180   4.856  12.155   2.747
79095SOL     OW39181   7.118  13.011   2.402
79095SOL    HW139182   7.188  13.009   2.338
79095SOL    HW239183   7.045  12.967   2.360
79096SOL     OW39184   2.001   1.068   0.214
79096SOL    HW139185   1.905   1.061   0.216
79096SOL    HW239186   2.024   1.117   0.292
79097SOL     OW39187   4.761   1.796   6.205
79097SOL    HW139188   4.763   1.738   6.129
79097SOL    HW239189   4.811   1.873   6.178
79098SOL     OW39190   3.461  12.215   1.384
79098SOL    HW139191   3.421  12.281   1.441
79098SOL    HW239192   3.550  12.206   1.417
79099SOL     OW39193   5.497   4.854   2.837
79099SOL    HW139194   5.588   4.883   2.846
79099SOL    HW239195   5.453   4.926   2.792
79100SOL     OW39196   1.720   0.529   7.202
79100SOL    HW139197   1.661   0.564   7.268
79100SOL    HW239198   1.807   0.538   7.239
79101SOL     OW39199   5.928   1.599   7.723
79101SOL    HW139200   5.869   1.645   7.782
79101SOL    HW239201   6.014   1.603   7.766
79102SOL     OW39202   6.916   7.735   4.282
79102SOL    HW139203   6.941   7.665   4.222
79102SOL    HW239204   6.956   7.814   4.245
79103SOL     OW39205  13.856   6.574  14.702
79103SOL    HW139206  13.938   6.622  14.716
79103SOL    HW239207  13.795   6.610  14.766
79104SOL     OW39208  10.193   9.237   3.413
79104SOL    HW139209  10.220   9.286   3.491
79104SOL    HW239210  10.153   9.303   3.356
79105SOL     OW39211   0.965  13.618   2.889
79105SOL    HW139212   1.009  13.622   2.805
79105SOL    HW239213   0.875  13.648   2.871
79106SOL     OW39214   4.317   5.938   0.904
79106SOL    HW139215   4.264   6.016   0.912
79106SOL    HW239216   4.255   5.868   0.885
79107SOL     OW39217   0.213   5.488  13.414
79107SOL    HW139218   0.190   5.402  13.379
79107SOL    HW239219   0.221   5.474  13.509
79108SOL     OW39220   2.680   2.013  11.953
79108SOL    HW139221   2.708   1.935  12.001
79108SOL    HW239222   2.758   2.041  11.904
79109SOL     OW39223   7.695   2.752  13.612
79109SOL    HW139224   7.686   2.720  13.522
79109SOL    HW239225   7.608   2.781  13.637
79110SOL     OW39226  13.475   9.007   3.655
79110SOL    HW139227  13.551   9.024   3.599
79110SOL    HW239228  13.412   8.963   3.598
79111SOL     OW39229   6.810  14.432  10.543
79111SOL    HW139230   6.825  14.380  10.465
79111SOL    HW239231   6.809  14.369  10.615
79112SOL     OW39232   7.118   8.938   3.334
79112SOL    HW139233   7.118   8.957   3.428
79112SOL    HW239234   7.125   9.024   3.292
79113SOL     OW39235  12.225   1.158   1.411
79113SOL    HW139236  12.299   1.108   1.375
79113SOL    HW239237  12.225   1.240   1.363
79114SOL     OW39238   5.939   4.403   3.754
79114SOL    HW139239   5.933   4.360   3.840
79114SOL    HW239240   5.970   4.491   3.774
79115SOL     OW39241   8.520   6.119  13.341
79115SOL    HW139242   8.545   6.210  13.357
79115SOL    HW239243   8.487   6.118  13.251
79116SOL     OW39244  14.545   5.255   8.596
79116SOL    HW139245  14.560   5.185   8.660
79116SOL    HW239246  14.449   5.257   8.585
79117SOL     OW39247  13.990  12.122   8.576
79117SOL    HW139248  13.975  12.042   8.627
79117SOL    HW239249  14.085  12.130   8.573
79118SOL     OW39250  10.282   5.594   6.798
79118SOL    HW139251  10.266   5.686   6.776
79118SOL    HW239252  10.230   5.578   6.876
79119SOL     OW39253   4.906   6.072  11.164
79119SOL    HW139254   4.962   5.995  11.151
79119SOL    HW239255   4.866   6.088  11.079
79120SOL     OW39256   8.097  10.398  13.612
79120SOL    HW139257   8.134  10.312  13.629
79120SOL    HW239258   8.099  10.443  13.696
79121SOL     OW39259  12.140  12.739  10.900
79121SOL    HW139260  12.192  12.687  10.839
79121SOL    HW239261  12.201  12.804  10.934
79122SOL     OW39262  12.055  14.794  13.921
79122SOL    HW139263  12.087  14.777  13.832
79122SOL    HW239264  12.023  14.710  13.952
79123SOL     OW39265  12.475   9.890   3.381
79123SOL    HW139266  12.463   9.899   3.286
79123SOL    HW239267  12.463   9.979   3.415
79124SOL     OW39268   6.162  11.485   9.670
79124SOL    HW139269   6.153  11.449   9.582
79124SOL    HW239270   6.097  11.437   9.722
79125SOL     OW39271  10.055   5.427   4.156
79125SOL    HW139272  10.016   5.507   4.121
79125SOL    HW239273   9.992   5.397   4.222
79126SOL     OW39274  14.718   1.771  13.142
79126SOL    HW139275  14.674   1.721  13.074
79126SOL    HW239276  14.647   1.808  13.195
79127SOL     OW39277   6.562   3.127  12.802
79127SOL    HW139278   6.624   3.198  12.787
79127SOL    HW239279   6.615   3.054  12.834
79128SOL     OW39280  14.811   6.131   7.868
79128SOL    HW139281  14.734   6.183   7.845
79128SOL    HW239282  14.799   6.108   7.960
79129SOL     OW39283  10.118   4.906   0.653
79129SOL    HW139284  10.108   4.812   0.669
79129SOL    HW239285  10.048   4.946   0.704
79130SOL     OW39286  13.921   3.002  11.062
79130SOL    HW139287  13.978   3.076  11.082
79130SOL    HW239288  13.896   2.967  11.148
79131SOL     OW39289  14.307   9.199  12.308
79131SOL    HW139290  14.389   9.224  12.351
79131SOL    HW239291  14.291   9.271  12.246
79132SOL     OW39292  13.941   9.482  10.099
79132SOL    HW139293  13.918   9.551  10.161
79132SOL    HW239294  13.953   9.404  10.154
79133SOL     OW39295  12.681   6.899   9.132
79133SOL    HW139296  12.636   6.815   9.147
79133SOL    HW239297  12.767   6.874   9.100
79134SOL     OW39298   6.905   3.065   0.584
79134SOL    HW139299   6.890   3.038   0.494
79134SOL    HW239300   7.001   3.066   0.593
79135SOL     OW39301  11.397   3.274   3.206
79135SOL    HW139302  11.471   3.334   3.192
79135SOL    HW239303  11.368   3.292   3.296
79136SOL     OW39304  10.157   6.000  14.034
79136SOL    HW139305  10.205   5.945  13.971
79136SOL    HW239306  10.133   6.078  13.984
79137SOL     OW39307  12.864   9.404   4.735
79137SOL    HW139308  12.814   9.353   4.799
79137SOL    HW239309  12.928   9.452   4.788
79138SOL     OW39310  10.579   3.671   2.312
79138SOL    HW139311  10.556   3.663   2.219
79138SOL    HW239312  10.590   3.581   2.342
79139SOL     OW39313  14.689   0.521  12.215
79139SOL    HW139314  14.659   0.441  12.258
79139SOL    HW239315  14.659   0.512  12.124
79140SOL     OW39316   1.241   9.244   0.433
79140SOL    HW139317   1.292   9.172   0.470
79140SOL    HW239318   1.221   9.300   0.509
79141SOL     OW39319   8.829   0.647   0.183
79141SOL    HW139320   8.830   0.710   0.256
79141SOL    HW239321   8.747   0.665   0.137
79142SOL     OW39322   3.515   2.517  12.757
79142SOL    HW139323   3.541   2.596  12.805
79142SOL    HW239324   3.420   2.525  12.747
79143SOL     OW39325  11.054   9.384   3.860
79143SOL    HW139326  11.121   9.395   3.793
79143SOL    HW239327  11.026   9.473   3.881
79144SOL     OW39328   9.564   0.072   4.030
79144SOL    HW139329   9.653   0.082   4.066
79144SOL    HW239330   9.523   0.005   4.085
79145SOL     OW39331   3.977   5.602   9.711
79145SOL    HW139332   4.036   5.639   9.646
79145SOL    HW239333   4.034   5.557   9.773
79146SOL     OW39334   1.797  12.032  14.845
79146SOL    HW139335   1.871  11.977   0.004
79146SOL    HW239336   1.828  12.079  14.768
79147SOL     OW39337   5.210   8.090   3.491
79147SOL    HW139338   5.231   8.082   3.584
79147SOL    HW239339   5.230   8.181   3.470
79148SOL     OW39340  12.198   7.998  14.193
79148SOL    HW139341  12.284   7.986  14.152
79148SOL    HW239342  12.163   7.909  14.201
79149SOL     OW39343  11.259   3.722   3.651
79149SOL    HW139344  11.261   3.628   3.667
79149SOL    HW239345  11.297   3.733   3.563
79150SOL     OW39346   7.014   8.636   5.139
79150SOL    HW139347   6.994   8.656   5.231
79150SOL    HW239348   6.940   8.672   5.090
79151SOL     OW39349   5.314  11.739   3.217
79151SOL    HW139350   5.335  11.673   3.283
79151SOL    HW239351   5.218  11.745   3.219
79152SOL     OW39352  12.417   4.654   7.290
79152SOL    HW139353  12.335   4.703   7.298
79152SOL    HW239354  12.460   4.690   7.212
79153SOL     OW39355   4.396  11.377   0.413
79153SOL    HW139356   4.482  11.361   0.372
79153SOL    HW239357   4.415  11.441   0.482
79154SOL     OW39358   4.880   4.850   7.490
79154SOL    HW139359   4.905   4.909   7.418
79154SOL    HW239360   4.883   4.762   7.451
79155SOL     OW39361  11.847   4.048  14.644
79155SOL    HW139362  11.901   4.048  14.722
79155SOL    HW239363  11.786   4.121  14.657
79156SOL     OW39364   2.613   3.730   9.639
79156SOL    HW139365   2.644   3.640   9.650
79156SOL    HW239366   2.682   3.774   9.589
79157SOL     OW39367   6.152   6.822   0.705
79157SOL    HW139368   6.074   6.803   0.757
79157SOL    HW239369   6.141   6.913   0.678
79158SOL     OW39370   1.868   5.823  10.313
79158SOL    HW139371   1.939   5.881  10.339
79158SOL    HW239372   1.903   5.735  10.325
79159SOL     OW39373   0.159  13.247  10.871
79159SOL    HW139374   0.137  13.338  10.850
79159SOL    HW239375   0.120  13.196  10.801
79160SOL     OW39376   1.944  10.945   1.594
79160SOL    HW139377   1.969  10.869   1.542
79160SOL    HW239378   1.945  11.018   1.532
79161SOL     OW39379  13.469   8.590  12.226
79161SOL    HW139380  13.482   8.567  12.318
79161SOL    HW239381  13.557   8.595  12.190
79162SOL     OW39382   5.183  12.100  14.024
79162SOL    HW139383   5.159  12.146  13.943
79162SOL    HW239384   5.111  12.119  14.084
79163SOL     OW39385  10.970   1.077   0.334
79163SOL    HW139386  10.999   1.014   0.268
79163SOL    HW239387  10.889   1.040   0.368
79164SOL     OW39388  14.707  11.499  12.317
79164SOL    HW139389  14.618  11.529  12.332
79164SOL    HW239390  14.754  11.576  12.285
79165SOL     OW39391  10.043   4.597  14.711
79165SOL    HW139392   9.971   4.538  14.733
79165SOL    HW239393  10.011   4.684  14.733
79166SOL     OW39394   3.361   2.039   5.422
79166SOL    HW139395   3.271   2.072   5.431
79166SOL    HW239396   3.413   2.099   5.475
79167SOL     OW39397   5.274   2.104   4.497
79167SOL    HW139398   5.256   2.186   4.543
79167SOL    HW239399   5.336   2.058   4.553
79168SOL     OW39400  12.179  13.609  10.171
79168SOL    HW139401  12.115  13.612  10.242
79168SOL    HW239402  12.264  13.604  10.215
79169SOL     OW39403  11.798  12.174  12.611
79169SOL    HW139404  11.789  12.141  12.700
79169SOL    HW239405  11.752  12.110  12.556
79170SOL     OW39406   8.577   8.767   2.785
79170SOL    HW139407   8.662   8.735   2.754
79170SOL    HW239408   8.559   8.716   2.864
79171SOL     OW39409  13.504  14.711  10.066
79171SOL    HW139410  13.447  14.645  10.108
79171SOL    HW239411  13.503  14.785  10.127
79172SOL     OW39412  14.616   5.665   5.871
79172SOL    HW139413  14.530   5.703   5.853
79172SOL    HW239414  14.676   5.710   5.812
79173SOL     OW39415   4.569  13.730  13.685
79173SOL    HW139416   4.621  13.772  13.617
79173SOL    HW239417   4.632  13.710  13.755
79174SOL     OW39418   1.009  14.210   2.586
79174SOL    HW139419   1.079  14.246   2.533
79174SOL    HW239420   1.053  14.149   2.646
79175SOL     OW39421   4.956   9.546  11.897
79175SOL    HW139422   4.904   9.626  11.889
79175SOL    HW239423   5.031   9.561  11.839
79176SOL     OW39424   6.322   5.074   0.773
79176SOL    HW139425   6.261   5.080   0.846
79176SOL    HW239426   6.313   4.984   0.741
79177SOL     OW39427   2.299   1.091   7.274
79177SOL    HW139428   2.220   1.141   7.253
79177SOL    HW239429   2.356   1.154   7.319
79178SOL     OW39430  13.019   8.339   6.344
79178SOL    HW139431  13.107   8.376   6.338
79178SOL    HW239432  13.012   8.282   6.268
79179SOL     OW39433   3.829   9.771   3.533
79179SOL    HW139434   3.908   9.802   3.577
79179SOL    HW239435   3.834   9.809   3.445
79180SOL     OW39436  12.593   4.627   8.627
79180SOL    HW139437  12.661   4.628   8.694
79180SOL    HW239438  12.587   4.535   8.600
79181SOL     OW39439   8.072  11.230   6.266
79181SOL    HW139440   8.163  11.237   6.238
79181SOL    HW239441   8.076  11.232   6.362
79182SOL     OW39442  11.329   9.376   2.509
79182SOL    HW139443  11.313   9.290   2.471
79182SOL    HW239444  11.268   9.434   2.464
79183SOL     OW39445  11.305   1.997  12.314
79183SOL    HW139446  11.222   2.039  12.293
79183SOL    HW239447  11.323   1.940  12.239
79184SOL     OW39448  11.891  14.412  10.422
79184SOL    HW139449  11.818  14.471  10.405
79184SOL    HW239450  11.959  14.468  10.460
79185SOL     OW39451   0.524   8.404   0.230
79185SOL    HW139452   0.576   8.358   0.296
79185SOL    HW239453   0.570   8.388   0.147
79186SOL     OW39454   7.420  12.814  14.085
79186SOL    HW139455   7.338  12.857  14.110
79186SOL    HW239456   7.398  12.765  14.006
79187SOL     OW39457   8.477   4.300   5.277
79187SOL    HW139458   8.444   4.213   5.256
79187SOL    HW239459   8.416   4.333   5.343
79188SOL     OW39460   3.999   2.644   4.909
79188SOL    HW139461   3.996   2.734   4.939
79188SOL    HW239462   4.069   2.603   4.961
79189SOL     OW39463  11.436  14.705   3.630
79189SOL    HW139464  11.416  14.621   3.589
79189SOL    HW239465  11.447  14.685   3.723
79190SOL     OW39466   3.511   6.916   4.678
79190SOL    HW139467   3.590   6.895   4.728
79190SOL    HW239468   3.440   6.909   4.741
79191SOL     OW39469  13.335   2.916   6.147
79191SOL    HW139470  13.411   2.882   6.099
79191SOL    HW239471  13.328   3.007   6.120
79192SOL     OW39472   4.627   7.838  12.014
79192SOL    HW139473   4.559   7.862  11.951
79192SOL    HW239474   4.610   7.746  12.034
79193SOL     OW39475   0.158   1.701   4.928
79193SOL    HW139476   0.159   1.608   4.905
79193SOL    HW239477   0.243   1.734   4.896
79194SOL     OW39478   9.701   5.232  10.089
79194SOL    HW139479   9.757   5.226  10.012
79194SOL    HW239480   9.613   5.241  10.055
79195SOL     OW39481   9.351   0.637   8.142
79195SOL    HW139482   9.277   0.578   8.130
79195SOL    HW239483   9.317   0.707   8.198
79196SOL     OW39484  13.780  10.073  11.200
79196SOL    HW139485  13.712  10.005  11.204
79196SOL    HW239486  13.757  10.134  11.270
79197SOL     OW39487   7.452  10.004   0.269
79197SOL    HW139488   7.526   9.950   0.294
79197SOL    HW239489   7.489  10.092   0.256
79198SOL     OW39490   8.872  13.966   0.039
79198SOL    HW139491   8.899  13.908   0.111
79198SOL    HW239492   8.873  13.909  14.830
79199SOL     OW39493   1.640  11.596   1.781
79199SOL    HW139494   1.667  11.666   1.841
79199SOL    HW239495   1.618  11.641   1.700
79200SOL     OW39496   5.668  11.011  12.612
79200SOL    HW139497   5.609  10.938  12.592
79200SOL    HW239498   5.754  10.982  12.580
79201SOL     OW39499   5.693   0.753  12.515
79201SOL    HW139500   5.764   0.691  12.529
79201SOL    HW239501   5.712   0.826  12.575
79202SOL     OW39502   3.115  13.132   8.297
79202SOL    HW139503   3.045  13.068   8.282
79202SOL    HW239504   3.194  13.089   8.263
79203SOL     OW39505  11.773   9.950   9.890
79203SOL    HW139506  11.701   9.999   9.850
79203SOL    HW239507  11.739   9.861   9.902
79204SOL     OW39508   1.061   0.751  14.244
79204SOL    HW139509   1.030   0.661  14.228
79204SOL    HW239510   1.154   0.748  14.220
79205SOL     OW39511  11.411   8.220  12.124
79205SOL    HW139512  11.324   8.261  12.122
79205SOL    HW239513  11.400   8.145  12.181
79206SOL     OW39514   5.597   7.053   9.289
79206SOL    HW139515   5.604   6.968   9.245
79206SOL    HW239516   5.658   7.048   9.362
79207SOL     OW39517   5.934   5.141   3.687
79207SOL    HW139518   5.861   5.200   3.672
79207SOL    HW239519   5.908   5.088   3.763
79208SOL     OW39520  12.907   2.922  10.220
79208SOL    HW139521  12.932   3.009  10.253
79208SOL    HW239522  12.916   2.864  10.296
79209SOL     OW39523  10.435   7.841   5.092
79209SOL    HW139524  10.512   7.788   5.111
79209SOL    HW239525  10.383   7.837   5.173
79210SOL     OW39526   4.517   9.383   0.459
79210SOL    HW139527   4.500   9.290   0.444
79210SOL    HW239528   4.437   9.427   0.430
79211SOL     OW39529   1.129   6.492   3.419
79211SOL    HW139530   1.219   6.494   3.451
79211SOL    HW239531   1.115   6.400   3.396
79212SOL     OW39532  14.491  14.661   0.528
79212SOL    HW139533  14.552  14.728   0.498
79212SOL    HW239534  14.451  14.698   0.607
79213SOL     OW39535  13.653  10.018  11.990
79213SOL    HW139536  13.658  10.019  12.086
79213SOL    HW239537  13.676   9.929  11.965
79214SOL     OW39538   6.938   2.172   5.235
79214SOL    HW139539   6.991   2.225   5.176
79214SOL    HW239540   6.981   2.180   5.320
79215SOL     OW39541  14.028   1.851   0.121
79215SOL    HW139542  13.977   1.779   0.085
79215SOL    HW239543  13.981   1.930   0.094
79216SOL     OW39544   0.566   5.631  14.187
79216SOL    HW139545   0.638   5.569  14.200
79216SOL    HW239546   0.569   5.653  14.094
79217SOL     OW39547  10.137  11.688   2.992
79217SOL    HW139548  10.232  11.680   3.000
79217SOL    HW239549  10.104  11.601   3.016
79218SOL     OW39550  14.758   9.561  14.776
79218SOL    HW139551  14.831   9.520  14.731
79218SOL    HW239552  14.684   9.502  14.763
79219SOL     OW39553   7.338   1.636  11.229
79219SOL    HW139554   7.377   1.715  11.267
79219SOL    HW239555   7.326   1.658  11.137
79220SOL     OW39556   4.301   7.812   9.934
79220SOL    HW139557   4.249   7.734   9.910
79220SOL    HW239558   4.268   7.881   9.876
79221SOL     OW39559  13.293   7.640   9.053
79221SOL    HW139560  13.285   7.707   8.985
79221SOL    HW239561  13.384   7.611   9.047
79222SOL     OW39562   6.063  11.389   7.043
79222SOL    HW139563   6.073  11.393   7.138
79222SOL    HW239564   5.968  11.394   7.029
79223SOL     OW39565  14.827   7.748  13.185
79223SOL    HW139566  14.804   7.658  13.209
79223SOL    HW239567  14.864   7.741  13.097
79224SOL     OW39568   6.609   0.109   2.685
79224SOL    HW139569   6.679   0.063   2.638
79224SOL    HW239570   6.558   0.151   2.616
79225SOL     OW39571   2.542  10.885   9.557
79225SOL    HW139572   2.624  10.931   9.535
79225SOL    HW239573   2.571  10.802   9.595
79226SOL     OW39574   7.059   3.915   9.190
79226SOL    HW139575   7.107   3.882   9.114
79226SOL    HW239576   7.092   4.004   9.203
79227SOL     OW39577  13.003  11.817   2.601
79227SOL    HW139578  12.925  11.775   2.635
79227SOL    HW239579  12.987  11.825   2.507
79228SOL     OW39580   6.615   3.988   8.756
79228SOL    HW139581   6.551   4.055   8.730
79228SOL    HW239582   6.629   3.937   8.676
79229SOL     OW39583   6.935   5.996   8.813
79229SOL    HW139584   6.944   5.984   8.908
79229SOL    HW239585   7.024   6.017   8.784
79230SOL     OW39586  12.718  12.052   2.892
79230SOL    HW139587  12.744  11.973   2.938
79230SOL    HW239588  12.780  12.058   2.819
79231SOL     OW39589  10.900  10.784   6.642
79231SOL    HW139590  10.844  10.728   6.588
79231SOL    HW239591  10.987  10.744   6.636
79232SOL     OW39592   3.626   8.231   2.514
79232SOL    HW139593   3.698   8.167   2.515
79232SOL    HW239594   3.556   8.188   2.466
79233SOL     OW39595   7.236  12.853   8.824
79233SOL    HW139596   7.240  12.759   8.811
79233SOL    HW239597   7.228  12.865   8.918
79234SOL     OW39598  14.324   7.008   7.929
79234SOL    HW139599  14.354   7.077   7.988
79234SOL    HW239600  14.259   6.959   7.980
79235SOL     OW39601  11.913   4.154   5.773
79235SOL    HW139602  11.914   4.060   5.753
79235SOL    HW239603  11.876   4.195   5.695
79236SOL     OW39604   6.565   0.612   3.479
79236SOL    HW139605   6.657   0.636   3.468
79236SOL    HW239606   6.536   0.587   3.391
79237SOL     OW39607  13.471  14.645   3.387
79237SOL    HW139608  13.525  14.593   3.446
79237SOL    HW239609  13.399  14.587   3.363
79238SOL     OW39610   5.916   9.734   1.761
79238SOL    HW139611   5.851   9.751   1.829
79238SOL    HW239612   5.919   9.814   1.710
79239SOL     OW39613   0.215   8.449  14.627
79239SOL    HW139614   0.293   8.397  14.609
79239SOL    HW239615   0.155   8.389  14.671
79240SOL     OW39616  10.238  11.019  10.187
79240SOL    HW139617  10.220  11.037  10.094
79240SOL    HW239618  10.250  10.924  10.190
79241SOL     OW39619   5.353   2.249   8.693
79241SOL    HW139620   5.376   2.169   8.741
79241SOL    HW239621   5.274   2.226   8.645
79242SOL     OW39622   6.112   9.671   5.144
79242SOL    HW139623   6.138   9.584   5.115
79242SOL    HW239624   6.025   9.659   5.183
79243SOL     OW39625  12.149   4.948   4.563
79243SOL    HW139626  12.222   4.888   4.546
79243SOL    HW239627  12.177   4.998   4.639
79244SOL     OW39628  12.912  11.218   1.166
79244SOL    HW139629  12.901  11.126   1.189
79244SOL    HW239630  12.888  11.266   1.245
79245SOL     OW39631   9.852  10.699  13.237
79245SOL    HW139632   9.818  10.610  13.235
79245SOL    HW239633   9.945  10.689  13.256
79246SOL     OW39634   1.170   3.522  11.236
79246SOL    HW139635   1.140   3.613  11.236
79246SOL    HW239636   1.213   3.512  11.151
79247SOL     OW39637   7.440  11.868   7.657
79247SOL    HW139638   7.492  11.814   7.598
79247SOL    HW239639   7.360  11.818   7.671
79248SOL     OW39640   7.256   0.170  13.901
79248SOL    HW139641   7.218   0.158  13.814
79248SOL    HW239642   7.344   0.205  13.884
79249SOL     OW39643   3.091  14.098   0.792
79249SOL    HW139644   3.062  14.136   0.708
79249SOL    HW239645   3.179  14.133   0.805
79250SOL     OW39646  12.259   0.932   4.252
79250SOL    HW139647  12.292   0.853   4.209
79250SOL    HW239648  12.304   1.004   4.209
79251SOL     OW39649   4.861  14.844  10.996
79251SOL    HW139650   4.894   0.045  10.938
79251SOL    HW239651   4.867  14.764  10.944
79252SOL     OW39652   3.721  12.144   9.637
79252SOL    HW139653   3.639  12.181   9.602
79252SOL    HW239654   3.736  12.192   9.718
79253SOL     OW39655   7.569  13.149   4.998
79253SOL    HW139656   7.527  13.160   4.912
79253SOL    HW239657   7.498  13.162   5.061
79254SOL     OW39658  11.896  12.878  12.904
79254SOL    HW139659  11.940  12.794  12.908
79254SOL    HW239660  11.837  12.878  12.980
79255SOL     OW39661   2.614   0.552   0.655
79255SOL    HW139662   2.627   0.460   0.680
79255SOL    HW239663   2.565   0.590   0.727
79256SOL     OW39664   3.763   7.420   5.765
79256SOL    HW139665   3.814   7.341   5.782
79256SOL    HW239666   3.812   7.465   5.696
79257SOL     OW39667  12.088  10.676  12.484
79257SOL    HW139668  12.182  10.673  12.466
79257SOL    HW239669  12.072  10.601  12.541
79258SOL     OW39670   2.530  13.748  11.018
79258SOL    HW139671   2.597  13.711  10.961
79258SOL    HW239672   2.503  13.676  11.074
79259SOL     OW39673   9.806  12.089  11.442
79259SOL    HW139674   9.731  12.148  11.447
79259SOL    HW239675   9.775  12.015  11.390
79260SOL     OW39676   1.061   5.198  12.218
79260SOL    HW139677   1.146   5.240  12.207
79260SOL    HW239678   1.082   5.110  12.250
79261SOL     OW39679   8.348   3.781  14.400
79261SOL    HW139680   8.309   3.696  14.378
79261SOL    HW239681   8.324   3.838  14.328
79262SOL     OW39682  10.725   4.842  12.233
79262SOL    HW139683  10.698   4.903  12.301
79262SOL    HW239684  10.815   4.866  12.213
79263SOL     OW39685   4.009   9.964  13.492
79263SOL    HW139686   4.038  10.055  13.483
79263SOL    HW239687   3.943   9.966  13.561
79264SOL     OW39688  10.347   5.801   3.753
79264SOL    HW139689  10.264   5.781   3.796
79264SOL    HW239690  10.386   5.871   3.806
79265SOL     OW39691   1.707   7.196  12.312
79265SOL    HW139692   1.751   7.202  12.228
79265SOL    HW239693   1.655   7.276  12.319
79266SOL     OW39694  13.935   9.210   0.716
79266SOL    HW139695  14.027   9.236   0.708
79266SOL    HW239696  13.896   9.234   0.632
79267SOL     OW39697   5.435  10.356  11.035
79267SOL    HW139698   5.387  10.363  10.952
79267SOL    HW239699   5.489  10.278  11.025
79268SOL     OW39700   1.051   5.675  13.774
79268SOL    HW139701   1.003   5.606  13.729
79268SOL    HW239702   1.143   5.657  13.756
79269SOL     OW39703   9.349  13.646  10.726
79269SOL    HW139704   9.403  13.724  10.732
79269SOL    HW239705   9.335  13.618  10.817
79270SOL     OW39706  11.721   3.149  12.601
79270SOL    HW139707  11.788   3.081  12.602
79270SOL    HW239708  11.724   3.188  12.689
79271SOL     OW39709   6.785   0.703  10.192
79271SOL    HW139710   6.741   0.774  10.238
79271SOL    HW239711   6.838   0.660  10.258
79272SOL     OW39712  10.038   7.015  10.395
79272SOL    HW139713  10.084   7.090  10.357
79272SOL    HW239714   9.977   7.055  10.457
79273SOL     OW39715   8.041   4.674   0.180
79273SOL    HW139716   8.105   4.734   0.218
79273SOL    HW239717   7.962   4.686   0.233
79274SOL     OW39718  10.328   9.827  13.660
79274SOL    HW139719  10.298   9.817  13.750
79274SOL    HW239720  10.387   9.903  13.663
79275SOL     OW39721   7.061   5.510   3.069
79275SOL    HW139722   7.077   5.604   3.073
79275SOL    HW239723   6.970   5.502   3.040
79276SOL     OW39724  11.668  11.400   3.357
79276SOL    HW139725  11.760  11.420   3.340
79276SOL    HW239726  11.658  11.307   3.334
79277SOL     OW39727   5.344  12.293   8.449
79277SOL    HW139728   5.364  12.386   8.438
79277SOL    HW239729   5.249  12.290   8.458
79278SOL     OW39730   3.333  10.653  13.518
79278SOL    HW139731   3.381  10.730  13.486
79278SOL    HW239732   3.399  10.583  13.520
79279SOL     OW39733   9.952   4.011   5.377
79279SOL    HW139734   9.970   4.034   5.285
79279SOL    HW239735   9.895   3.934   5.371
79280SOL     OW39736   8.992   6.191   9.428
79280SOL    HW139737   8.966   6.125   9.492
79280SOL    HW239738   8.924   6.258   9.435
79281SOL     OW39739   7.658  12.358  13.852
79281SOL    HW139740   7.675  12.452  13.859
79281SOL    HW239741   7.649  12.343  13.758
79282SOL     OW39742   0.521   6.388  11.754
79282SOL    HW139743   0.526   6.296  11.728
79282SOL    HW239744   0.608   6.407  11.791
79283SOL     OW39745   4.974  11.802   5.122
79283SOL    HW139746   4.991  11.808   5.028
79283SOL    HW239747   4.996  11.711   5.144
79284SOL     OW39748  10.648   9.423   6.023
79284SOL    HW139749  10.677   9.503   6.066
79284SOL    HW239750  10.686   9.352   6.075
79285SOL     OW39751  13.447  11.873   1.741
79285SOL    HW139752  13.440  11.956   1.789
79285SOL    HW239753  13.397  11.888   1.661
79286SOL     OW39754  12.464   0.503   3.894
79286SOL    HW139755  12.513   0.425   3.920
79286SOL    HW239756  12.373   0.473   3.885
79287SOL     OW39757  14.358  11.740   7.709
79287SOL    HW139758  14.433  11.695   7.670
79287SOL    HW239759  14.368  11.727   7.803
79288SOL     OW39760   2.583   4.608  12.710
79288SOL    HW139761   2.600   4.519  12.742
79288SOL    HW239762   2.521   4.644  12.773
79289SOL     OW39763   3.646   1.653   8.254
79289SOL    HW139764   3.625   1.596   8.328
79289SOL    HW239765   3.668   1.592   8.183
79290SOL     OW39766  14.699  10.944   4.307
79290SOL    HW139767  14.696  10.861   4.355
79290SOL    HW239768  14.623  10.993   4.340
79291SOL     OW39769   5.005  13.105   1.276
79291SOL    HW139770   4.922  13.057   1.275
79291SOL    HW239771   4.991  13.175   1.340
79292SOL     OW39772   2.121   6.161   1.084
79292SOL    HW139773   2.079   6.141   1.000
79292SOL    HW239774   2.143   6.076   1.121
79293SOL     OW39775  12.001   2.994   3.498
79293SOL    HW139776  12.041   2.911   3.471
79293SOL    HW239777  12.069   3.039   3.547
79294SOL     OW39778   4.271  13.761  14.072
79294SOL    HW139779   4.237  13.691  14.128
79294SOL    HW239780   4.341  13.801  14.124
79295SOL     OW39781   3.407  12.388  12.400
79295SOL    HW139782   3.431  12.302  12.434
79295SOL    HW239783   3.312  12.391  12.408
79296SOL     OW39784   6.793  13.801   7.039
79296SOL    HW139785   6.815  13.798   6.946
79296SOL    HW239786   6.734  13.728   7.053
79297SOL     OW39787   0.592  13.744  10.231
79297SOL    HW139788   0.571  13.771  10.321
79297SOL    HW239789   0.672  13.692  10.240
79298SOL     OW39790  12.554  13.510   1.401
79298SOL    HW139791  12.540  13.578   1.334
79298SOL    HW239792  12.648  13.495   1.400
79299SOL     OW39793   7.885   4.919   9.449
79299SOL    HW139794   7.885   4.998   9.394
79299SOL    HW239795   7.905   4.951   9.537
79300SOL     OW39796   8.455   9.052   2.275
79300SOL    HW139797   8.489   9.123   2.220
79300SOL    HW239798   8.444   8.978   2.216
79301SOL     OW39799  13.594  14.430   8.918
79301SOL    HW139800  13.662  14.458   8.979
79301SOL    HW239801  13.520  14.405   8.974
79302SOL     OW39802   6.493  10.192   2.099
79302SOL    HW139803   6.579  10.159   2.073
79302SOL    HW239804   6.452  10.118   2.144
79303SOL     OW39805   7.677   3.872   2.152
79303SOL    HW139806   7.665   3.790   2.200
79303SOL    HW239807   7.588   3.907   2.142
79304SOL     OW39808   0.549   0.049   5.331
79304SOL    HW139809   0.524   0.057   5.238
79304SOL    HW239810   0.608  14.841   5.333
79305SOL     OW39811  14.209  13.158   1.225
79305SOL    HW139812  14.248  13.092   1.283
79305SOL    HW239813  14.272  13.230   1.225
79306SOL     OW39814   4.847   9.841   8.256
79306SOL    HW139815   4.894   9.925   8.250
79306SOL    HW239816   4.791   9.851   8.332
79307SOL     OW39817   0.797  11.025  14.382
79307SOL    HW139818   0.833  10.937  14.371
79307SOL    HW239819   0.866  11.083  14.350
79308SOL     OW39820   4.045   4.804  12.845
79308SOL    HW139821   4.124   4.769  12.888
79308SOL    HW239822   3.995   4.842  12.917
79309SOL     OW39823   4.262   5.911   7.979
79309SOL    HW139824   4.336   5.968   8.001
79309SOL    HW239825   4.280   5.884   7.889
79310SOL     OW39826  11.383  13.239   2.853
79310SOL    HW139827  11.451  13.237   2.919
79310SOL    HW239828  11.323  13.168   2.877
79311SOL     OW39829   8.370   0.121  14.779
79311SOL    HW139830   8.428   0.191  14.807
79311SOL    HW239831   8.416   0.080  14.705
79312SOL     OW39832  12.844  12.561   3.704
79312SOL    HW139833  12.876  12.558   3.794
79312SOL    HW239834  12.920  12.583   3.651
79313SOL     OW39835  13.606   0.257   3.966
79313SOL    HW139836  13.687   0.307   3.969
79313SOL    HW239837  13.615   0.193   4.036
79314SOL     OW39838   3.783   2.047  14.160
79314SOL    HW139839   3.721   2.051  14.087
79314SOL    HW239840   3.785   2.136  14.196
79315SOL     OW39841   3.755   7.862   3.335
79315SOL    HW139842   3.705   7.920   3.277
79315SOL    HW239843   3.733   7.892   3.423
79316SOL     OW39844   3.442   3.803   7.500
79316SOL    HW139845   3.504   3.778   7.431
79316SOL    HW239846   3.356   3.788   7.461
79317SOL     OW39847   4.485   3.308  12.032
79317SOL    HW139848   4.494   3.293  11.938
79317SOL    HW239849   4.510   3.225  12.072
79318SOL     OW39850   8.061   2.384   5.355
79318SOL    HW139851   8.144   2.368   5.398
79318SOL    HW239852   8.073   2.467   5.308
79319SOL     OW39853  13.344   9.716  11.324
79319SOL    HW139854  13.356   9.644  11.385
79319SOL    HW239855  13.251   9.740  11.333
79320SOL     OW39856  14.303  14.189   6.930
79320SOL    HW139857  14.290  14.099   6.900
79320SOL    HW239858  14.214  14.222   6.944
79321SOL     OW39859   9.260   4.351   9.965
79321SOL    HW139860   9.259   4.440   9.929
79321SOL    HW239861   9.172   4.318   9.949
79322SOL     OW39862   3.582   4.647   5.872
79322SOL    HW139863   3.544   4.561   5.854
79322SOL    HW239864   3.641   4.664   5.798
79323SOL     OW39865   0.766   9.969   8.131
79323SOL    HW139866   0.722   9.889   8.160
79323SOL    HW239867   0.856   9.958   8.160
79324SOL     OW39868   6.232  14.677   0.709
79324SOL    HW139869   6.325  14.670   0.687
79324SOL    HW239870   6.197  14.589   0.692
79325SOL     OW39871   8.504  11.930   4.257
79325SOL    HW139872   8.592  11.960   4.233
79325SOL    HW239873   8.519  11.850   4.307
79326SOL     OW39874   8.117   7.598  10.681
79326SOL    HW139875   8.170   7.645  10.616
79326SOL    HW239876   8.131   7.505  10.660
79327SOL     OW39877   1.318   6.535   1.254
79327SOL    HW139878   1.319   6.511   1.347
79327SOL    HW239879   1.227   6.555   1.236
79328SOL     OW39880   7.491  12.898   7.502
79328SOL    HW139881   7.459  12.917   7.414
79328SOL    HW239882   7.480  12.979   7.550
79329SOL     OW39883  11.390  11.446  10.507
79329SOL    HW139884  11.336  11.522  10.531
79329SOL    HW239885  11.342  11.404  10.436
79330SOL     OW39886   5.085  12.397   8.774
79330SOL    HW139887   5.005  12.395   8.826
79330SOL    HW239888   5.099  12.306   8.748
79331SOL     OW39889  14.513  14.765   9.821
79331SOL    HW139890  14.566  14.733   9.895
79331SOL    HW239891  14.531  14.859   9.818
79332SOL     OW39892   5.995  13.385   5.689
79332SOL    HW139893   6.067  13.332   5.721
79332SOL    HW239894   5.917  13.351   5.733
79333SOL     OW39895  12.625  14.056  14.554
79333SOL    HW139896  12.704  14.108  14.570
79333SOL    HW239897  12.586  14.096  14.476
79334SOL     OW39898   3.243   8.951   2.509
79334SOL    HW139899   3.223   8.887   2.440
79334SOL    HW239900   3.174   8.939   2.574
79335SOL     OW39901   9.133   5.220   3.102
79335SOL    HW139902   9.162   5.129   3.090
79335SOL    HW239903   9.037   5.214   3.099
79336SOL     OW39904   7.995   7.467  10.199
79336SOL    HW139905   7.932   7.539  10.203
79336SOL    HW239906   7.959   7.401  10.258
79337SOL     OW39907  12.280   0.103   8.258
79337SOL    HW139908  12.249   0.188   8.288
79337SOL    HW239909  12.239   0.092   8.172
79338SOL     OW39910   7.027   9.109   5.884
79338SOL    HW139911   7.066   9.071   5.806
79338SOL    HW239912   7.070   9.194   5.893
79339SOL     OW39913   3.049  10.362   0.745
79339SOL    HW139914   3.088  10.376   0.659
79339SOL    HW239915   3.085  10.432   0.800
79340SOL     OW39916   4.761   5.741  13.921
79340SOL    HW139917   4.801   5.822  13.890
79340SOL    HW239918   4.688   5.725  13.861
79341SOL     OW39919  10.100  13.548   4.456
79341SOL    HW139920  10.138  13.466   4.427
79341SOL    HW239921  10.151  13.616   4.410
79342SOL     OW39922   4.074   5.031  11.104
79342SOL    HW139923   4.156   4.986  11.124
79342SOL    HW239924   4.082   5.056  11.013
79343SOL     OW39925   6.690   0.541   8.619
79343SOL    HW139926   6.713   0.615   8.675
79343SOL    HW239927   6.672   0.469   8.680
79344SOL     OW39928  13.597   9.671  13.149
79344SOL    HW139929  13.689   9.672  13.175
79344SOL    HW239930  13.563   9.589  13.183
79345SOL     OW39931  10.378  11.060   0.606
79345SOL    HW139932  10.310  11.125   0.625
79345SOL    HW239933  10.382  11.005   0.685
79346SOL     OW39934  14.509   9.022   5.634
79346SOL    HW139935  14.462   8.941   5.658
79346SOL    HW239936  14.440   9.081   5.604
79347SOL     OW39937  10.612  12.276   5.348
79347SOL    HW139938  10.625  12.202   5.407
79347SOL    HW239939  10.643  12.352   5.397
79348SOL     OW39940   3.303   7.251   3.263
79348SOL    HW139941   3.292   7.157   3.253
79348SOL    HW239942   3.330   7.281   3.176
79349SOL     OW39943   1.338  12.091   1.232
79349SOL    HW139944   1.320  12.118   1.142
79349SOL    HW239945   1.351  12.173   1.280
79350SOL     OW39946   5.283   0.487   3.378
79350SOL    HW139947   5.210   0.455   3.431
79350SOL    HW239948   5.248   0.560   3.329
79351SOL     OW39949  10.399  10.466  11.429
79351SOL    HW139950  10.437  10.502  11.349
79351SOL    HW239951  10.304  10.467  11.413
79352SOL     OW39952  10.478   7.967   3.398
79352SOL    HW139953  10.404   7.982   3.458
79352SOL    HW239954  10.441   7.982   3.311
79353SOL     OW39955   2.333   8.326   3.771
79353SOL    HW139956   2.331   8.391   3.841
79353SOL    HW239957   2.426   8.302   3.763
79354SOL     OW39958  11.944  13.425  14.160
79354SOL    HW139959  11.950  13.333  14.183
79354SOL    HW239960  11.850  13.444  14.158
79355SOL     OW39961   5.036   8.465   0.245
79355SOL    HW139962   4.956   8.418   0.265
79355SOL    HW239963   5.022   8.553   0.280
79356SOL     OW39964  12.989  14.379  11.860
79356SOL    HW139965  12.987  14.319  11.785
79356SOL    HW239966  13.015  14.463  11.822
79357SOL     OW39967   6.177   7.543  10.263
79357SOL    HW139968   6.153   7.478  10.329
79357SOL    HW239969   6.273   7.536  10.256
79358SOL     OW39970  12.615  14.853   2.168
79358SOL    HW139971  12.704   0.016   2.158
79358SOL    HW239972  12.619  14.791   2.241
79359SOL     OW39973   4.379  11.351  11.888
79359SOL    HW139974   4.446  11.316  11.946
79359SOL    HW239975   4.411  11.334  11.800
79360SOL     OW39976   0.249   6.155   1.984
79360SOL    HW139977   0.193   6.199   1.921
79360SOL    HW239978   0.275   6.074   1.941
79361SOL     OW39979   7.617  11.203  10.024
79361SOL    HW139980   7.679  11.165  10.087
79361SOL    HW239981   7.562  11.261  10.077
79362SOL     OW39982   6.382   1.970  11.305
79362SOL    HW139983   6.398   2.036  11.237
79362SOL    HW239984   6.465   1.966  11.354
79363SOL     OW39985   8.510  10.883   7.827
79363SOL    HW139986   8.595  10.841   7.838
79363SOL    HW239987   8.497  10.887   7.733
79364SOL     OW39988  10.167   3.521  14.355
79364SOL    HW139989  10.146   3.569  14.435
79364SOL    HW239990  10.261   3.505  14.360
79365SOL     OW39991   6.908   2.640   4.629
79365SOL    HW139992   6.873   2.711   4.574
79365SOL    HW239993   6.948   2.579   4.567
79366SOL     OW39994   7.502  11.867  14.183
79366SOL    HW139995   7.574  11.928  14.167
79366SOL    HW239996   7.430  11.899  14.129
79367SOL     OW39997   6.738  13.183   0.207
79367SOL    HW139998   6.739  13.091   0.184
79367SOL    HW239999   6.825  13.215   0.182
79368SOL     OW40000   6.245   6.959   0.373
79368SOL    HW140001   6.223   6.912   0.292
79368SOL    HW240002   6.313   6.905   0.414
79369SOL     OW40003   7.475  13.226   5.786
79369SOL    HW140004   7.502  13.147   5.832
79369SOL    HW240005   7.487  13.297   5.850
79370SOL     OW40006  13.470   8.271  10.809
79370SOL    HW140007  13.384   8.250  10.844
79370SOL    HW240008  13.452   8.332  10.737
79371SOL     OW40009   4.581   7.133   9.717
79371SOL    HW140010   4.653   7.196   9.711
79371SOL    HW240011   4.624   7.049   9.737
79372SOL     OW40012   6.507   7.893   9.733
79372SOL    HW140013   6.425   7.928   9.698
79372SOL    HW240014   6.569   7.898   9.660
79373SOL     OW40015  11.970   5.814  10.992
79373SOL    HW140016  11.935   5.877  10.930
79373SOL    HW240017  12.061   5.841  11.006
79374SOL     OW40018  14.645   8.532   7.230
79374SOL    HW140019  14.597   8.480   7.295
79374SOL    HW240020  14.661   8.471   7.158
79375SOL     OW40021   2.303   6.066   0.340
79375SOL    HW140022   2.294   5.972   0.323
79375SOL    HW240023   2.393   6.086   0.317
79376SOL     OW40024   2.325  10.409   7.978
79376SOL    HW140025   2.302  10.340   7.915
79376SOL    HW240026   2.241  10.450   8.000
79377SOL     OW40027   3.332  13.006   6.280
79377SOL    HW140028   3.347  12.946   6.208
79377SOL    HW240029   3.396  13.076   6.268
79378SOL     OW40030   7.261   1.890   3.485
79378SOL    HW140031   7.263   1.825   3.555
79378SOL    HW240032   7.336   1.868   3.429
79379SOL     OW40033  13.225   4.498  11.378
79379SOL    HW140034  13.147   4.444  11.395
79379SOL    HW240035  13.250   4.532  11.464
79380SOL     OW40036   1.661  13.726  10.799
79380SOL    HW140037   1.600  13.728  10.872
79380SOL    HW240038   1.747  13.735  10.839
79381SOL     OW40039   2.552  13.408   6.159
79381SOL    HW140040   2.637  13.426   6.119
79381SOL    HW240041   2.554  13.315   6.180
79382SOL     OW40042   7.528   5.628  10.501
79382SOL    HW140043   7.552   5.589  10.585
79382SOL    HW240044   7.434   5.613  10.493
79383SOL     OW40045   1.295   3.056   7.062
79383SOL    HW140046   1.227   2.993   7.087
79383SOL    HW240047   1.248   3.127   7.020
79384SOL     OW40048   2.970  12.603   3.322
79384SOL    HW140049   2.953  12.589   3.415
79384SOL    HW240050   3.065  12.614   3.316
79385SOL     OW40051  11.576  14.461   8.803
79385SOL    HW140052  11.628  14.541   8.811
79385SOL    HW240053  11.635  14.391   8.830
79386SOL     OW40054   0.028   7.925  11.707
79386SOL    HW140055   0.015   7.851  11.766
79386SOL    HW240056   0.120   7.919  11.681
79387SOL     OW40057  14.313   3.408  12.792
79387SOL    HW140058  14.368   3.360  12.730
79387SOL    HW240059  14.247   3.344  12.820
79388SOL     OW40060   1.755  10.634  11.830
79388SOL    HW140061   1.688  10.655  11.765
79388SOL    HW240062   1.727  10.680  11.910
79389SOL     OW40063   1.683  11.391   4.934
79389SOL    HW140064   1.664  11.366   4.844
79389SOL    HW240065   1.609  11.357   4.985
79390SOL     OW40066   0.216   7.780   7.918
79390SOL    HW140067   0.253   7.852   7.970
79390SOL    HW240068   0.266   7.783   7.836
79391SOL     OW40069   7.242  11.268   5.703
79391SOL    HW140070   7.234  11.265   5.607
79391SOL    HW240071   7.326  11.226   5.721
79392SOL     OW40072   5.567   2.795  14.295
79392SOL    HW140073   5.563   2.764  14.385
79392SOL    HW240074   5.485   2.764  14.255
79393SOL     OW40075   6.265   0.507  12.222
79393SOL    HW140076   6.317   0.453  12.163
79393SOL    HW240077   6.177   0.471  12.217
79394SOL     OW40078   1.092   1.587  10.586
79394SOL    HW140079   0.996   1.579  10.589
79394SOL    HW240080   1.108   1.656  10.522
79395SOL     OW40081   0.405   8.469  12.454
79395SOL    HW140082   0.425   8.527  12.381
79395SOL    HW240083   0.455   8.389  12.437
79396SOL     OW40084   9.544   3.953   5.087
79396SOL    HW140085   9.593   4.025   5.127
79396SOL    HW240086   9.499   3.994   5.012
79397SOL     OW40087  14.028   2.023   1.876
79397SOL    HW140088  14.048   1.965   1.802
79397SOL    HW240089  13.991   2.102   1.835
79398SOL     OW40090   1.132  12.362   3.642
79398SOL    HW140091   1.141  12.456   3.626
79398SOL    HW240092   1.200  12.342   3.707
79399SOL     OW40093   6.746   7.692   6.448
79399SOL    HW140094   6.835   7.729   6.445
79399SOL    HW240095   6.700   7.735   6.376
79400SOL     OW40096  13.141   2.249   3.135
79400SOL    HW140097  13.048   2.250   3.110
79400SOL    HW240098  13.141   2.217   3.225
79401SOL     OW40099   2.781   4.018   7.334
79401SOL    HW140100   2.827   3.956   7.391
79401SOL    HW240101   2.840   4.031   7.260
79402SOL     OW40102   3.091  14.497   0.492
79402SOL    HW140103   3.026  14.501   0.423
79402SOL    HW240104   3.048  14.535   0.568
79403SOL     OW40105   0.798  12.585  12.665
79403SOL    HW140106   0.822  12.559  12.754
79403SOL    HW240107   0.755  12.507  12.628
79404SOL     OW40108   5.066   9.115   9.076
79404SOL    HW140109   5.095   9.197   9.115
79404SOL    HW240110   4.993   9.140   9.019
79405SOL     OW40111   5.392  11.121  14.720
79405SOL    HW140112   5.399  11.033  14.682
79405SOL    HW240113   5.438  11.115  14.804
79406SOL     OW40114   4.605   6.156  10.129
79406SOL    HW140115   4.519   6.149  10.089
79406SOL    HW240116   4.664   6.111  10.068
79407SOL     OW40117   2.237  13.495   0.219
79407SOL    HW140118   2.261  13.445   0.298
79407SOL    HW240119   2.290  13.456   0.149
79408SOL     OW40120   4.189   6.091   6.939
79408SOL    HW140121   4.138   6.162   6.900
79408SOL    HW240122   4.266   6.083   6.883
79409SOL     OW40123   2.922   5.997  14.391
79409SOL    HW140124   2.990   6.042  14.441
79409SOL    HW240125   2.875   6.067  14.345
79410SOL     OW40126   9.802  13.311   5.609
79410SOL    HW140127   9.746  13.236   5.629
79410SOL    HW240128   9.850  13.285   5.531
79411SOL     OW40129   3.288  10.443  12.349
79411SOL    HW140130   3.281  10.439  12.444
79411SOL    HW240131   3.201  10.422  12.317
79412SOL     OW40132   0.045  13.758   0.395
79412SOL    HW140133   0.078  13.848   0.387
79412SOL    HW240134   0.118  13.710   0.434
79413SOL     OW40135  11.569   8.875  12.611
79413SOL    HW140136  11.501   8.808  12.611
79413SOL    HW240137  11.644   8.832  12.652
79414SOL     OW40138   4.685  10.667   9.727
79414SOL    HW140139   4.669  10.582   9.685
79414SOL    HW240140   4.716  10.723   9.655
79415SOL     OW40141   1.539   7.688   0.983
79415SOL    HW140142   1.488   7.766   1.002
79415SOL    HW240143   1.587   7.708   0.903
79416SOL     OW40144   0.273   0.855  12.195
79416SOL    HW140145   0.328   0.899  12.259
79416SOL    HW240146   0.190   0.903  12.196
79417SOL     OW40147   5.868   2.910   9.843
79417SOL    HW140148   5.910   2.901   9.757
79417SOL    HW240149   5.775   2.899   9.826
79418SOL     OW40150  11.900  13.360   9.416
79418SOL    HW140151  11.965  13.322   9.357
79418SOL    HW240152  11.862  13.285   9.462
79419SOL     OW40153   6.821   7.763  10.917
79419SOL    HW140154   6.911   7.773  10.946
79419SOL    HW240155   6.828   7.736  10.825
79420SOL     OW40156   7.982  12.908   3.531
79420SOL    HW140157   7.943  12.995   3.540
79420SOL    HW240158   7.933  12.866   3.461
79421SOL     OW40159   2.359  11.077   0.293
79421SOL    HW140160   2.415  11.150   0.267
79421SOL    HW240161   2.292  11.116   0.348
79422SOL     OW40162   0.823  10.694  14.118
79422SOL    HW140163   0.861  10.636  14.052
79422SOL    HW240164   0.745  10.730  14.077
79423SOL     OW40165   6.220   0.014   4.449
79423SOL    HW140166   6.244  14.853   4.537
79423SOL    HW240167   6.259  14.817   4.391
79424SOL     OW40168  14.389   8.279  14.421
79424SOL    HW140169  14.424   8.368  14.423
79424SOL    HW240170  14.361   8.263  14.512
79425SOL     OW40171   7.283  14.086   1.575
79425SOL    HW140172   7.248  14.146   1.511
79425SOL    HW240173   7.225  14.010   1.571
79426SOL     OW40174  14.695  13.761   8.713
79426SOL    HW140175  14.738  13.839   8.680
79426SOL    HW240176  14.717  13.758   8.806
79427SOL     OW40177   7.791   4.034   1.729
79427SOL    HW140178   7.804   3.940   1.740
79427SOL    HW240179   7.791   4.069   1.818
79428SOL     OW40180   9.085   2.829   0.282
79428SOL    HW140181   9.012   2.839   0.222
79428SOL    HW240182   9.085   2.736   0.305
79429SOL     OW40183   8.926  13.125   1.341
79429SOL    HW140184   8.947  13.040   1.301
79429SOL    HW240185   9.009  13.154   1.380
79430SOL     OW40186   3.202   3.962   3.625
79430SOL    HW140187   3.135   3.935   3.561
79430SOL    HW240188   3.152   3.991   3.701
79431SOL     OW40189   8.502   2.422  13.256
79431SOL    HW140190   8.558   2.490  13.219
79431SOL    HW240191   8.415   2.461  13.258
79432SOL     OW40192   4.888   4.111   1.605
79432SOL    HW140193   4.864   4.189   1.655
79432SOL    HW240194   4.944   4.143   1.535
79433SOL     OW40195   7.437  13.317  14.053
79433SOL    HW140196   7.495  13.254  14.011
79433SOL    HW240197   7.351  13.299  14.016
79434SOL     OW40198  10.799   6.249   8.860
79434SOL    HW140199  10.725   6.255   8.919
79434SOL    HW240200  10.828   6.339   8.847
79435SOL     OW40201  14.466   3.416   3.835
79435SOL    HW140202  14.488   3.419   3.742
79435SOL    HW240203  14.378   3.378   3.837
79436SOL     OW40204   4.075   9.963   6.404
79436SOL    HW140205   4.092  10.056   6.392
79436SOL    HW240206   4.128   9.939   6.481
79437SOL     OW40207   0.709   3.456  12.354
79437SOL    HW140208   0.749   3.369  12.343
79437SOL    HW240209   0.729   3.480  12.444
79438SOL     OW40210   2.417   4.194   9.263
79438SOL    HW140211   2.422   4.268   9.202
79438SOL    HW240212   2.431   4.233   9.349
79439SOL     OW40213  10.408  12.969  14.446
79439SOL    HW140214  10.453  13.037  14.395
79439SOL    HW240215  10.454  12.889  14.423
79440SOL     OW40216  14.659  14.335   7.647
79440SOL    HW140217  14.670  14.430   7.645
79440SOL    HW240218  14.635  14.311   7.558
79441SOL     OW40219   0.426   8.321   8.013
79441SOL    HW140220   0.499   8.300   7.956
79441SOL    HW240221   0.445   8.273   8.094
79442SOL     OW40222   2.459  12.211  14.726
79442SOL    HW140223   2.434  12.248  14.810
79442SOL    HW240224   2.509  12.281  14.683
79443SOL     OW40225  11.005   9.402   5.743
79443SOL    HW140226  11.017   9.364   5.830
79443SOL    HW240227  10.924   9.361   5.711
79444SOL     OW40228  13.717  12.299   9.902
79444SOL    HW140229  13.733  12.228   9.965
79444SOL    HW240230  13.640  12.344   9.936
79445SOL     OW40231   4.255   3.106   5.146
79445SOL    HW140232   4.295   3.101   5.233
79445SOL    HW240233   4.162   3.116   5.163
79446SOL     OW40234  13.936   5.587   9.135
79446SOL    HW140235  14.020   5.632   9.133
79446SOL    HW240236  13.891   5.617   9.056
79447SOL     OW40237   0.260   0.814   7.622
79447SOL    HW140238   0.309   0.855   7.551
79447SOL    HW240239   0.212   0.742   7.580
79448SOL     OW40240  10.260  14.632   2.556
79448SOL    HW140241  10.199  14.583   2.501
79448SOL    HW240242  10.282  14.572   2.627
79449SOL     OW40243   6.041   6.322  13.638
79449SOL    HW140244   5.968   6.275  13.597
79449SOL    HW240245   6.065   6.269  13.714
79450SOL     OW40246  13.095   9.480  12.684
79450SOL    HW140247  13.161   9.424  12.643
79450SOL    HW240248  13.014   9.431  12.677
79451SOL     OW40249  11.299   4.791  11.036
79451SOL    HW140250  11.286   4.702  11.003
79451SOL    HW240251  11.394   4.800  11.041
79452SOL     OW40252   4.920   6.318   7.477
79452SOL    HW140253   5.011   6.348   7.482
79452SOL    HW240254   4.892   6.315   7.568
79453SOL     OW40255   0.294  11.346   4.377
79453SOL    HW140256   0.215  11.371   4.424
79453SOL    HW240257   0.288  11.250   4.369
79454SOL     OW40258  12.725   8.854   0.498
79454SOL    HW140259  12.800   8.913   0.502
79454SOL    HW240260  12.748   8.792   0.429
79455SOL     OW40261   1.105   3.455  11.535
79455SOL    HW140262   1.159   3.480  11.609
79455SOL    HW240263   1.151   3.490  11.458
79456SOL     OW40264   9.238   7.745   7.446
79456SOL    HW140265   9.212   7.667   7.397
79456SOL    HW240266   9.333   7.746   7.443
79457SOL     OW40267   6.395   4.271   7.382
79457SOL    HW140268   6.312   4.279   7.429
79457SOL    HW240269   6.455   4.328   7.430
79458SOL     OW40270   2.055   9.437  12.697
79458SOL    HW140271   1.969   9.427  12.737
79458SOL    HW240272   2.073   9.352  12.656
79459SOL     OW40273   0.846  10.205   8.665
79459SOL    HW140274   0.818  10.279   8.718
79459SOL    HW240275   0.931  10.232   8.629
79460SOL     OW40276   8.512   1.428  14.342
79460SOL    HW140277   8.481   1.345  14.380
79460SOL    HW240278   8.558   1.471  14.414
79461SOL     OW40279   8.207  13.993   0.909
79461SOL    HW140280   8.226  13.997   1.002
79461SOL    HW240281   8.197  14.085   0.883
79462SOL     OW40282   2.471   2.539  12.340
79462SOL    HW140283   2.445   2.617  12.389
79462SOL    HW240284   2.522   2.487  12.402
79463SOL     OW40285   3.217   3.259  11.387
79463SOL    HW140286   3.173   3.294  11.310
79463SOL    HW240287   3.283   3.199  11.352
79464SOL     OW40288  14.059  11.586   9.604
79464SOL    HW140289  14.082  11.671   9.568
79464SOL    HW240290  14.029  11.535   9.529
79465SOL     OW40291   2.402   3.944   9.135
79465SOL    HW140292   2.445   3.870   9.178
79465SOL    HW240293   2.428   4.020   9.187
79466SOL     OW40294  12.103   3.374  12.955
79466SOL    HW140295  12.150   3.370  12.872
79466SOL    HW240296  12.079   3.466  12.965
79467SOL     OW40297  12.746  13.554  13.082
79467SOL    HW140298  12.715  13.559  12.992
79467SOL    HW240299  12.763  13.461  13.097
79468SOL     OW40300   6.253   0.172   9.805
79468SOL    HW140301   6.171   0.219   9.819
79468SOL    HW240302   6.291   0.164   9.892
79469SOL     OW40303   7.217   3.716  11.612
79469SOL    HW140304   7.143   3.657  11.604
79469SOL    HW240305   7.288   3.661  11.647
79470SOL     OW40306   4.303   5.450   5.877
79470SOL    HW140307   4.219   5.496   5.883
79470SOL    HW240308   4.349   5.494   5.805
79471SOL     OW40309   8.073   7.579   5.767
79471SOL    HW140310   8.041   7.560   5.856
79471SOL    HW240311   8.038   7.666   5.747
79472SOL     OW40312  12.367   8.024   0.875
79472SOL    HW140313  12.405   8.105   0.909
79472SOL    HW240314  12.422   7.955   0.910
79473SOL     OW40315   6.759   2.240   3.132
79473SOL    HW140316   6.801   2.311   3.180
79473SOL    HW240317   6.681   2.280   3.094
79474SOL     OW40318   3.199   1.624   8.075
79474SOL    HW140319   3.209   1.717   8.053
79474SOL    HW240320   3.123   1.621   8.133
79475SOL     OW40321  13.650   3.078   5.610
79475SOL    HW140322  13.668   3.071   5.516
79475SOL    HW240323  13.661   2.989   5.643
79476SOL     OW40324   5.518  13.737   5.133
79476SOL    HW140325   5.557  13.761   5.049
79476SOL    HW240326   5.443  13.796   5.142
79477SOL     OW40327   7.904   8.152   1.520
79477SOL    HW140328   7.884   8.236   1.561
79477SOL    HW240329   7.884   8.165   1.427
79478SOL     OW40330   7.731  11.484   9.126
79478SOL    HW140331   7.775  11.494   9.041
79478SOL    HW240332   7.800  11.452   9.184
79479SOL     OW40333  10.263   9.786   0.316
79479SOL    HW140334  10.277   9.692   0.314
79479SOL    HW240335  10.246   9.806   0.408
79480SOL     OW40336   3.932  13.576   7.203
79480SOL    HW140337   3.972  13.655   7.168
79480SOL    HW240338   3.941  13.584   7.298
79481SOL     OW40339   4.120  11.909  10.269
79481SOL    HW140340   4.139  11.840  10.205
79481SOL    HW240341   4.194  11.908  10.329
79482SOL     OW40342   5.305   0.534   5.492
79482SOL    HW140343   5.301   0.602   5.426
79482SOL    HW240344   5.217   0.495   5.493
79483SOL     OW40345   0.539  12.477  12.778
79483SOL    HW140346   0.556  12.383  12.773
79483SOL    HW240347   0.622  12.515  12.805
79484SOL     OW40348   2.309  12.676   3.498
79484SOL    HW140349   2.280  12.631   3.418
79484SOL    HW240350   2.228  12.693   3.546
79485SOL     OW40351   9.949   5.023  10.240
79485SOL    HW140352   9.915   5.047  10.153
79485SOL    HW240353   9.905   5.082  10.300
79486SOL     OW40354   3.968   0.813   7.217
79486SOL    HW140355   4.050   0.808   7.170
79486SOL    HW240356   3.901   0.797   7.151
79487SOL     OW40357   6.252  12.533   4.582
79487SOL    HW140358   6.296  12.525   4.666
79487SOL    HW240359   6.185  12.600   4.596
79488SOL     OW40360   1.013   6.815   1.959
79488SOL    HW140361   0.980   6.774   2.039
79488SOL    HW240362   0.991   6.907   1.968
79489SOL     OW40363  12.615   8.490   4.520
79489SOL    HW140364  12.699   8.515   4.481
79489SOL    HW240365  12.564   8.571   4.521
79490SOL     OW40366   3.103  13.695   9.401
79490SOL    HW140367   3.092  13.722   9.310
79490SOL    HW240368   3.162  13.620   9.397
79491SOL     OW40369  12.170  10.433  12.994
79491SOL    HW140370  12.170  10.405  12.903
79491SOL    HW240371  12.079  10.461  13.010
79492SOL     OW40372   5.364  10.034   0.795
79492SOL    HW140373   5.429  10.068   0.735
79492SOL    HW240374   5.403  10.045   0.882
79493SOL     OW40375  13.551  12.421  14.693
79493SOL    HW140376  13.472  12.442  14.642
79493SOL    HW240377  13.526  12.344  14.744
79494SOL     OW40378  10.514   6.759   9.203
79494SOL    HW140379  10.418   6.765   9.198
79494SOL    HW240380  10.531   6.665   9.213
79495SOL     OW40381  11.831  10.558  11.847
79495SOL    HW140382  11.835  10.463  11.852
79495SOL    HW240383  11.922  10.586  11.858
79496SOL     OW40384  13.532   0.266  11.039
79496SOL    HW140385  13.453   0.242  11.086
79496SOL    HW240386  13.572   0.182  11.015
79497SOL     OW40387   5.226  11.521   0.074
79497SOL    HW140388   5.219  11.614   0.096
79497SOL    HW240389   5.257  11.480   0.154
79498SOL     OW40390   4.541   0.530  12.697
79498SOL    HW140391   4.616   0.491  12.742
79498SOL    HW240392   4.467   0.477  12.725
79499SOL     OW40393   1.323   2.376   2.340
79499SOL    HW140394   1.258   2.366   2.410
79499SOL    HW240395   1.271   2.398   2.262
79500SOL     OW40396   7.667  14.820  11.952
79500SOL    HW140397   7.640   0.033  11.996
79500SOL    HW240398   7.761  14.813  11.971
79501SOL     OW40399   6.936   3.003   1.036
79501SOL    HW140400   6.854   3.003   1.085
79501SOL    HW240401   7.002   3.027   1.101
79502SOL     OW40402  11.292  10.124   0.765
79502SOL    HW140403  11.379  10.138   0.728
79502SOL    HW240404  11.240  10.092   0.691
79503SOL     OW40405  14.165  13.633   1.160
79503SOL    HW140406  14.143  13.598   1.247
79503SOL    HW240407  14.249  13.676   1.172
79504SOL     OW40408   4.235  10.183  13.259
79504SOL    HW140409   4.244  10.088  13.267
79504SOL    HW240410   4.175  10.207  13.329
79505SOL     OW40411  13.623  12.019   7.633
79505SOL    HW140412  13.621  11.936   7.585
79505SOL    HW240413  13.656  11.997   7.720
79506SOL     OW40414  11.662  12.314   5.300
79506SOL    HW140415  11.605  12.255   5.251
79506SOL    HW240416  11.648  12.290   5.392
79507SOL     OW40417   9.282   5.952  10.266
79507SOL    HW140418   9.342   5.980  10.334
79507SOL    HW240419   9.236   5.877  10.304
79508SOL     OW40420   2.390   3.160   7.343
79508SOL    HW140421   2.355   3.161   7.432
79508SOL    HW240422   2.365   3.074   7.309
79509SOL     OW40423   0.479   3.529   0.767
79509SOL    HW140424   0.390   3.563   0.761
79509SOL    HW240425   0.522   3.558   0.687
79510SOL     OW40426   1.131   1.377  13.917
79510SOL    HW140427   1.184   1.334  13.984
79510SOL    HW240428   1.041   1.363  13.945
79511SOL     OW40429   2.430   1.147   1.809
79511SOL    HW140430   2.405   1.085   1.740
79511SOL    HW240431   2.509   1.190   1.775
79512SOL     OW40432   3.951  14.518  14.136
79512SOL    HW140433   3.972  14.433  14.098
79512SOL    HW240434   3.855  14.521  14.138
79513SOL     OW40435  10.619   7.144  11.276
79513SOL    HW140436  10.692   7.200  11.303
79513SOL    HW240437  10.543   7.201  11.282
79514SOL     OW40438  11.035   7.104   9.845
79514SOL    HW140439  11.121   7.096   9.802
79514SOL    HW240440  11.040   7.186   9.894
79515SOL     OW40441  13.998   9.481   5.224
79515SOL    HW140442  13.979   9.535   5.147
79515SOL    HW240443  13.942   9.404   5.214
79516SOL     OW40444  11.372   8.012   3.570
79516SOL    HW140445  11.292   8.064   3.575
79516SOL    HW240446  11.443   8.077   3.571
79517SOL     OW40447   0.249   6.564   7.909
79517SOL    HW140448   0.194   6.569   7.831
79517SOL    HW240449   0.241   6.650   7.950
79518SOL     OW40450   3.586   2.154   0.871
79518SOL    HW140451   3.644   2.148   0.796
79518SOL    HW240452   3.643   2.147   0.947
79519SOL     OW40453   7.325   2.495   2.945
79519SOL    HW140454   7.409   2.509   2.989
79519SOL    HW240455   7.284   2.423   2.992
79520SOL     OW40456  13.913   8.654   9.503
79520SOL    HW140457  13.956   8.677   9.586
79520SOL    HW240458  13.843   8.594   9.529
79521SOL     OW40459   7.399   3.608   3.025
79521SOL    HW140460   7.433   3.634   3.111
79521SOL    HW240461   7.382   3.515   3.033
79522SOL     OW40462   1.847   6.462   3.053
79522SOL    HW140463   1.829   6.384   3.000
79522SOL    HW240464   1.883   6.427   3.135
79523SOL     OW40465   6.509   4.023   8.124
79523SOL    HW140466   6.523   4.078   8.047
79523SOL    HW240467   6.590   4.031   8.175
79524SOL     OW40468   0.713  14.197   9.348
79524SOL    HW140469   0.789  14.182   9.404
79524SOL    HW240470   0.644  14.224   9.408
79525SOL     OW40471   4.670   4.162   7.211
79525SOL    HW140472   4.711   4.133   7.130
79525SOL    HW240473   4.724   4.235   7.241
79526SOL     OW40474  12.594  14.257   8.864
79526SOL    HW140475  12.665  14.300   8.816
79526SOL    HW240476  12.587  14.306   8.946
79527SOL     OW40477   4.184   3.199   2.735
79527SOL    HW140478   4.243   3.245   2.676
79527SOL    HW240479   4.097   3.228   2.710
79528SOL     OW40480   5.252   3.573   1.043
79528SOL    HW140481   5.309   3.564   0.966
79528SOL    HW240482   5.312   3.585   1.116
79529SOL     OW40483  10.495  11.456  14.182
79529SOL    HW140484  10.547  11.420  14.254
79529SOL    HW240485  10.519  11.549  14.180
79530SOL     OW40486   9.467   9.233  14.453
79530SOL    HW140487   9.398   9.242  14.519
79530SOL    HW240488   9.548   9.225  14.504
79531SOL     OW40489   0.706  11.889   4.336
79531SOL    HW140490   0.672  11.891   4.425
79531SOL    HW240491   0.635  11.852   4.284
79532SOL     OW40492  12.965   0.811   3.599
79532SOL    HW140493  13.052   0.781   3.571
79532SOL    HW240494  12.974   0.907   3.603
79533SOL     OW40495  14.175   5.226  12.975
79533SOL    HW140496  14.157   5.304  12.921
79533SOL    HW240497  14.270   5.225  12.985
79534SOL     OW40498   2.840   4.310  10.882
79534SOL    HW140499   2.775   4.290  10.949
79534SOL    HW240500   2.921   4.322  10.931
79535SOL     OW40501   6.152   2.536   3.569
79535SOL    HW140502   6.059   2.549   3.551
79535SOL    HW240503   6.193   2.619   3.544
79536SOL     OW40504  10.452   6.993  13.945
79536SOL    HW140505  10.534   6.946  13.929
79536SOL    HW240506  10.447   7.002  14.040
79537SOL     OW40507  11.668   3.492   6.624
79537SOL    HW140508  11.759   3.461   6.629
79537SOL    HW240509  11.620   3.418   6.586
79538SOL     OW40510   5.316   7.337   2.839
79538SOL    HW140511   5.362   7.409   2.796
79538SOL    HW240512   5.225   7.349   2.814
79539SOL     OW40513   5.317   4.875   5.389
79539SOL    HW140514   5.376   4.948   5.369
79539SOL    HW240515   5.243   4.916   5.434
79540SOL     OW40516   0.071  11.516   2.121
79540SOL    HW140517  14.849  11.490   2.144
79540SOL    HW240518   0.109  11.545   2.204
79541SOL     OW40519   7.809   3.935   1.142
79541SOL    HW140520   7.899   3.966   1.133
79541SOL    HW240521   7.815   3.864   1.206
79542SOL     OW40522   7.816   9.249   4.748
79542SOL    HW140523   7.841   9.260   4.840
79542SOL    HW240524   7.861   9.169   4.720
79543SOL     OW40525   4.029  14.497   6.627
79543SOL    HW140526   4.031  14.442   6.706
79543SOL    HW240527   4.076  14.577   6.652
79544SOL     OW40528   3.953   9.022   5.096
79544SOL    HW140529   4.045   9.043   5.105
79544SOL    HW240530   3.951   8.941   5.046
79545SOL     OW40531  13.386   5.213   5.851
79545SOL    HW140532  13.346   5.126   5.847
79545SOL    HW240533  13.311   5.274   5.851
79546SOL     OW40534  11.544   9.035   1.591
79546SOL    HW140535  11.525   9.104   1.527
79546SOL    HW240536  11.594   8.969   1.541
79547SOL     OW40537  12.397  12.617  11.169
79547SOL    HW140538  12.358  12.553  11.228
79547SOL    HW240539  12.391  12.578  11.082
79548SOL     OW40540  10.843  13.835   7.270
79548SOL    HW140541  10.830  13.761   7.329
79548SOL    HW240542  10.778  13.822   7.201
79549SOL     OW40543   4.014   9.729  11.401
79549SOL    HW140544   4.007   9.770  11.314
79549SOL    HW240545   3.988   9.638  11.386
79550SOL     OW40546   1.986  13.812   4.901
79550SOL    HW140547   1.954  13.725   4.924
79550SOL    HW240548   2.012  13.804   4.809
79551SOL     OW40549   8.810  11.173   1.210
79551SOL    HW140550   8.833  11.157   1.302
79551SOL    HW240551   8.721  11.137   1.202
79552SOL     OW40552  10.121  11.045  12.073
79552SOL    HW140553  10.149  11.069  11.985
79552SOL    HW240554  10.026  11.039  12.068
79553SOL     OW40555   3.820   1.867   2.435
79553SOL    HW140556   3.768   1.836   2.361
79553SOL    HW240557   3.845   1.956   2.411
79554SOL     OW40558  13.911   0.717  14.816
79554SOL    HW140559  13.986   0.662  14.790
79554SOL    HW240560  13.848   0.707  14.745
79555SOL     OW40561  12.961  10.146   5.278
79555SOL    HW140562  12.929  10.062   5.314
79555SOL    HW240563  12.881  10.192   5.251
79556SOL     OW40564   9.169   4.074   7.015
79556SOL    HW140565   9.158   4.036   6.928
79556SOL    HW240566   9.180   3.998   7.073
79557SOL     OW40567   2.547   2.043  12.741
79557SOL    HW140568   2.510   2.052  12.653
79557SOL    HW240569   2.640   2.027  12.727
79558SOL     OW40570   7.742  10.529   2.945
79558SOL    HW140571   7.677  10.551   3.011
79558SOL    HW240572   7.817  10.585   2.965
79559SOL     OW40573  14.525   3.352   9.432
79559SOL    HW140574  14.534   3.265   9.392
79559SOL    HW240575  14.606   3.364   9.481
79560SOL     OW40576   3.402  11.601  14.770
79560SOL    HW140577   3.349  11.533  14.727
79560SOL    HW240578   3.353  11.681  14.756
79561SOL     OW40579  13.017   5.509   0.151
79561SOL    HW140580  13.093   5.565   0.168
79561SOL    HW240581  13.029   5.434   0.209
79562SOL     OW40582  14.092  14.563   9.024
79562SOL    HW140583  14.129  14.482   9.058
79562SOL    HW240584  14.089  14.550   8.929
79563SOL     OW40585  14.736   0.112   5.570
79563SOL    HW140586  14.789   0.187   5.543
79563SOL    HW240587  14.752   0.104   5.664
79564SOL     OW40588  10.753   0.140   0.847
79564SOL    HW140589  10.733   0.154   0.940
79564SOL    HW240590  10.696   0.203   0.802
79565SOL     OW40591   8.222   5.236  12.047
79565SOL    HW140592   8.174   5.156  12.023
79565SOL    HW240593   8.185   5.260  12.132
79566SOL     OW40594   9.451  13.199   5.805
79566SOL    HW140595   9.416  13.112   5.788
79566SOL    HW240596   9.468  13.236   5.718
79567SOL     OW40597  10.049   1.330  13.465
79567SOL    HW140598  10.047   1.246  13.420
79567SOL    HW240599  10.079   1.392  13.399
79568SOL     OW40600   3.467  12.850   9.772
79568SOL    HW140601   3.500  12.868   9.684
79568SOL    HW240602   3.540  12.870   9.830
79569SOL     OW40603   2.072   5.497   4.232
79569SOL    HW140604   2.002   5.524   4.172
79569SOL    HW240605   2.029   5.491   4.317
79570SOL     OW40606   1.890   2.178  12.354
79570SOL    HW140607   1.973   2.218  12.377
79570SOL    HW240608   1.854   2.149  12.438
79571SOL     OW40609   4.328  14.745   0.813
79571SOL    HW140610   4.290  14.818   0.861
79571SOL    HW240611   4.253  14.693   0.785
79572SOL     OW40612   3.393   6.437   2.495
79572SOL    HW140613   3.311   6.413   2.453
79572SOL    HW240614   3.455   6.449   2.423
79573SOL     OW40615   9.132  11.616   2.546
79573SOL    HW140616   9.043  11.619   2.580
79573SOL    HW240617   9.180  11.680   2.599
79574SOL     OW40618   7.821   2.959   6.993
79574SOL    HW140619   7.784   2.952   7.081
79574SOL    HW240620   7.851   2.870   6.973
79575SOL     OW40621  11.844   5.017   5.770
79575SOL    HW140622  11.760   4.981   5.801
79575SOL    HW240623  11.868   4.961   5.696
79576SOL     OW40624  12.114   9.066  11.820
79576SOL    HW140625  12.162   9.073  11.738
79576SOL    HW240626  12.125   9.151  11.863
79577SOL     OW40627   7.674  10.174   4.983
79577SOL    HW140628   7.673  10.267   4.963
79577SOL    HW240629   7.593  10.140   4.945
79578SOL     OW40630  11.224   9.922   3.837
79578SOL    HW140631  11.178  10.000   3.869
79578SOL    HW240632  11.189   9.907   3.749
79579SOL     OW40633  13.546   8.663  12.780
79579SOL    HW140634  13.473   8.723  12.797
79579SOL    HW240635  13.583   8.645  12.867
79580SOL     OW40636   2.427  11.884   3.520
79580SOL    HW140637   2.398  11.838   3.441
79580SOL    HW240638   2.507  11.839   3.547
79581SOL     OW40639   3.350   0.196  14.551
79581SOL    HW140640   3.369   0.283  14.586
79581SOL    HW240641   3.382   0.200  14.461
79582SOL     OW40642   5.833   0.539  13.823
79582SOL    HW140643   5.743   0.505  13.821
79582SOL    HW240644   5.823   0.634  13.815
79583SOL     OW40645  10.160  11.421  13.680
79583SOL    HW140646  10.236  11.365  13.667
79583SOL    HW240647  10.123  11.431  13.592
79584SOL     OW40648   8.367   1.160  12.439
79584SOL    HW140649   8.378   1.220  12.513
79584SOL    HW240650   8.366   1.073  12.479
79585SOL     OW40651   1.448   8.675   5.255
79585SOL    HW140652   1.528   8.677   5.307
79585SOL    HW240653   1.378   8.679   5.320
79586SOL     OW40654   2.563   2.653   1.857
79586SOL    HW140655   2.586   2.608   1.938
79586SOL    HW240656   2.644   2.695   1.829
79587SOL     OW40657  13.086  13.553   0.682
79587SOL    HW140658  13.053  13.482   0.737
79587SOL    HW240659  13.065  13.525   0.593
79588SOL     OW40660  14.335  11.756  11.375
79588SOL    HW140661  14.387  11.676  11.366
79588SOL    HW240662  14.310  11.780  11.285
79589SOL     OW40663   2.833   5.928  10.454
79589SOL    HW140664   2.894   5.854  10.444
79589SOL    HW240665   2.889   6.002  10.479
79590SOL     OW40666   9.846  11.122  13.988
79590SOL    HW140667   9.931  11.166  13.988
79590SOL    HW240668   9.862  11.038  14.031
79591SOL     OW40669   5.379   6.119   1.605
79591SOL    HW140670   5.297   6.107   1.653
79591SOL    HW240671   5.398   6.032   1.568
79592SOL     OW40672   6.237  13.723   1.858
79592SOL    HW140673   6.332  13.716   1.847
79592SOL    HW240674   6.207  13.632   1.864
79593SOL     OW40675   8.900   8.548  13.148
79593SOL    HW140676   8.870   8.528  13.059
79593SOL    HW240677   8.824   8.531  13.203
79594SOL     OW40678   6.506  13.915  11.048
79594SOL    HW140679   6.575  13.978  11.068
79594SOL    HW240680   6.438  13.966  11.004
79595SOL     OW40681   9.267  10.084  12.937
79595SOL    HW140682   9.255   9.995  12.968
79595SOL    HW240683   9.342  10.079  12.878
79596SOL     OW40684   8.769  14.348   7.185
79596SOL    HW140685   8.843  14.312   7.136
79596SOL    HW240686   8.799  14.348   7.276
79597SOL     OW40687   9.680  14.152  14.029
79597SOL    HW140688   9.616  14.109  13.971
79597SOL    HW240689   9.630  14.220  14.073
79598SOL     OW40690   6.296  14.099  12.409
79598SOL    HW140691   6.262  14.188  12.421
79598SOL    HW240692   6.233  14.056  12.352
79599SOL     OW40693  11.060   1.119   3.058
79599SOL    HW140694  11.033   1.112   3.149
79599SOL    HW240695  11.015   1.198   3.026
79600SOL     OW40696   8.883  10.958  11.566
79600SOL    HW140697   8.807  10.986  11.515
79600SOL    HW240698   8.952  10.945  11.501
79601SOL     OW40699   4.972   3.569   7.848
79601SOL    HW140700   4.879   3.592   7.848
79601SOL    HW240701   5.016   3.647   7.815
79602SOL     OW40702  10.385  12.359   7.786
79602SOL    HW140703  10.393  12.366   7.881
79602SOL    HW240704  10.291  12.352   7.771
79603SOL     OW40705  10.214  12.156   1.485
79603SOL    HW140706  10.183  12.221   1.548
79603SOL    HW240707  10.289  12.115   1.527
79604SOL     OW40708   4.381   6.417   2.778
79604SOL    HW140709   4.331   6.447   2.702
79604SOL    HW240710   4.323   6.432   2.853
79605SOL     OW40711   7.284   2.111  13.762
79605SOL    HW140712   7.201   2.158  13.758
79605SOL    HW240713   7.278   2.058  13.842
79606SOL     OW40714   1.109   6.300   1.016
79606SOL    HW140715   1.116   6.395   1.018
79606SOL    HW240716   1.053   6.280   0.941
79607SOL     OW40717   5.786   6.924   6.043
79607SOL    HW140718   5.755   6.909   6.132
79607SOL    HW240719   5.812   6.837   6.011
79608SOL     OW40720   2.578  11.591   7.776
79608SOL    HW140721   2.497  11.592   7.826
79608SOL    HW240722   2.558  11.538   7.699
79609SOL     OW40723   5.582  11.332  10.087
79609SOL    HW140724   5.511  11.302  10.029
79609SOL    HW240725   5.545  11.407  10.134
79610SOL     OW40726   0.397  13.887  12.191
79610SOL    HW140727   0.407  13.807  12.140
79610SOL    HW240728   0.420  13.861  12.281
79611SOL     OW40729   9.739   4.518   1.400
79611SOL    HW140730   9.794   4.440   1.406
79611SOL    HW240731   9.655   4.492   1.438
79612SOL     OW40732   2.668   4.247  11.806
79612SOL    HW140733   2.625   4.331  11.787
79612SOL    HW240734   2.746   4.271  11.857
79613SOL     OW40735  14.502   0.240   7.473
79613SOL    HW140736  14.513   0.154   7.513
79613SOL    HW240737  14.579   0.250   7.417
79614SOL     OW40738  11.784   8.437   5.857
79614SOL    HW140739  11.878   8.430   5.875
79614SOL    HW240740  11.742   8.407   5.937
79615SOL     OW40741   0.838   7.044   3.378
79615SOL    HW140742   0.779   7.091   3.318
79615SOL    HW240743   0.893   6.991   3.320
79616SOL     OW40744  11.001   2.664  14.800
79616SOL    HW140745  11.010   2.610  14.721
79616SOL    HW240746  10.922   2.631  14.842
79617SOL     OW40747   5.717   1.834  11.818
79617SOL    HW140748   5.812   1.825  11.819
79617SOL    HW240749   5.696   1.878  11.900
79618SOL     OW40750   9.221  10.138   5.763
79618SOL    HW140751   9.269  10.200   5.709
79618SOL    HW240752   9.275  10.125   5.840
79619SOL     OW40753  12.537   4.046   7.249
79619SOL    HW140754  12.543   4.109   7.178
79619SOL    HW240755  12.553   3.961   7.207
79620SOL     OW40756  13.824   5.907   2.766
79620SOL    HW140757  13.810   5.844   2.837
79620SOL    HW240758  13.835   5.852   2.688
79621SOL     OW40759  14.249  11.525   2.758
79621SOL    HW140760  14.201  11.444   2.771
79621SOL    HW240761  14.286  11.518   2.670
79622SOL     OW40762   9.766   2.222   9.991
79622SOL    HW140763   9.856   2.192   9.975
79622SOL    HW240764   9.738   2.258   9.907
79623SOL     OW40765   3.231   9.581  13.999
79623SOL    HW140766   3.139   9.560  14.016
79623SOL    HW240767   3.268   9.595  14.086
79624SOL     OW40768   8.483   5.256   2.594
79624SOL    HW140769   8.415   5.322   2.604
79624SOL    HW240770   8.563   5.306   2.579
79625SOL     OW40771   8.899   9.755   5.545
79625SOL    HW140772   8.813   9.725   5.573
79625SOL    HW240773   8.932   9.806   5.619
79626SOL     OW40774  11.121  10.108   0.302
79626SOL    HW140775  11.057  10.170   0.337
79626SOL    HW240776  11.084  10.081   0.218
79627SOL     OW40777   7.268  10.555   8.904
79627SOL    HW140778   7.175  10.578   8.895
79627SOL    HW240779   7.268  10.482   8.966
79628SOL     OW40780   3.597   9.606   0.483
79628SOL    HW140781   3.688   9.609   0.452
79628SOL    HW240782   3.598   9.656   0.565
79629SOL     OW40783  10.419   2.849   2.513
79629SOL    HW140784  10.454   2.792   2.444
79629SOL    HW240785  10.373   2.789   2.572
79630SOL     OW40786   5.509  11.402  12.799
79630SOL    HW140787   5.494  11.406  12.894
79630SOL    HW240788   5.494  11.491  12.769
79631SOL     OW40789   5.420  12.850  10.161
79631SOL    HW140790   5.429  12.887  10.073
79631SOL    HW240791   5.432  12.925  10.220
79632SOL     OW40792   5.606   9.907  11.966
79632SOL    HW140793   5.657   9.962  12.025
79632SOL    HW240794   5.648   9.916  11.881
79633SOL     OW40795   2.765   3.236  13.800
79633SOL    HW140796   2.798   3.317  13.762
79633SOL    HW240797   2.826   3.169  13.772
79634SOL     OW40798   5.063   2.698   6.091
79634SOL    HW140799   5.159   2.700   6.094
79634SOL    HW240800   5.036   2.664   6.176
79635SOL     OW40801  10.238   1.472   8.350
79635SOL    HW140802  10.295   1.438   8.281
79635SOL    HW240803  10.271   1.561   8.366
79636SOL     OW40804  10.495   8.288   5.555
79636SOL    HW140805  10.424   8.248   5.506
79636SOL    HW240806  10.572   8.276   5.500
79637SOL     OW40807  14.130   2.809   2.630
79637SOL    HW140808  14.073   2.821   2.555
79637SOL    HW240809  14.090   2.737   2.679
79638SOL     OW40810   7.197   5.651   2.747
79638SOL    HW140811   7.269   5.708   2.720
79638SOL    HW240812   7.158   5.696   2.822
79639SOL     OW40813   9.281   3.608   8.953
79639SOL    HW140814   9.244   3.629   9.039
79639SOL    HW240815   9.375   3.603   8.968
79640SOL     OW40816   4.182  10.765  14.781
79640SOL    HW140817   4.219  10.851  14.800
79640SOL    HW240818   4.172  10.724  14.866
79641SOL     OW40819   1.642   4.708   7.347
79641SOL    HW140820   1.578   4.725   7.279
79641SOL    HW240821   1.696   4.786   7.350
79642SOL     OW40822   1.216  12.856   4.303
79642SOL    HW140823   1.155  12.837   4.232
79642SOL    HW240824   1.285  12.909   4.263
79643SOL     OW40825  10.075   6.737   2.243
79643SOL    HW140826  10.028   6.695   2.315
79643SOL    HW240827  10.049   6.829   2.247
79644SOL     OW40828   2.582  12.830   0.554
79644SOL    HW140829   2.666  12.865   0.585
79644SOL    HW240830   2.523  12.905   0.557
79645SOL     OW40831  10.604  11.769  14.606
79645SOL    HW140832  10.653  11.688  14.595
79645SOL    HW240833  10.513  11.744  14.597
79646SOL     OW40834  14.087  10.407  13.542
79646SOL    HW140835  14.031  10.472  13.500
79646SOL    HW240836  14.170  10.453  13.558
79647SOL     OW40837  14.483   5.556  11.933
79647SOL    HW140838  14.477   5.624  11.866
79647SOL    HW240839  14.440   5.480  11.894
79648SOL     OW40840   3.380  12.818   6.121
79648SOL    HW140841   3.455  12.759   6.126
79648SOL    HW240842   3.316  12.780   6.182
79649SOL     OW40843   8.013  10.964  10.980
79649SOL    HW140844   7.947  10.992  10.916
79649SOL    HW240845   7.978  10.883  11.017
79650SOL     OW40846  11.550   3.794   1.306
79650SOL    HW140847  11.571   3.848   1.383
79650SOL    HW240848  11.556   3.855   1.232
79651SOL     OW40849   4.862  12.004   3.580
79651SOL    HW140850   4.945  12.035   3.544
79651SOL    HW240851   4.817  12.084   3.609
79652SOL     OW40852   0.705   3.234  10.448
79652SOL    HW140853   0.791   3.211  10.483
79652SOL    HW240854   0.677   3.156  10.400
79653SOL     OW40855  13.503   1.617   4.997
79653SOL    HW140856  13.420   1.647   4.960
79653SOL    HW240857  13.485   1.527   5.026
79654SOL     OW40858   5.263   4.996   4.285
79654SOL    HW140859   5.296   5.025   4.200
79654SOL    HW240860   5.196   4.931   4.264
79655SOL     OW40861  14.013   3.267  13.000
79655SOL    HW140862  14.035   3.358  12.983
79655SOL    HW240863  14.086   3.217  12.965
79656SOL     OW40864   9.871  11.661   9.393
79656SOL    HW140865   9.848  11.631   9.481
79656SOL    HW240866   9.802  11.626   9.337
79657SOL     OW40867  10.330   4.049   1.753
79657SOL    HW140868  10.267   4.001   1.699
79657SOL    HW240869  10.278   4.116   1.797
79658SOL     OW40870   6.147   9.858   5.612
79658SOL    HW140871   6.145   9.943   5.656
79658SOL    HW240872   6.102   9.798   5.673
79659SOL     OW40873   5.405  11.291  13.501
79659SOL    HW140874   5.359  11.290  13.585
79659SOL    HW240875   5.398  11.202  13.469
79660SOL     OW40876  11.857  13.371  12.822
79660SOL    HW140877  11.834  13.425  12.746
79660SOL    HW240878  11.920  13.424  12.871
79661SOL     OW40879  14.699   6.250   6.210
79661SOL    HW140880  14.680   6.265   6.117
79661SOL    HW240881  14.715   6.338   6.246
79662SOL     OW40882   0.078   0.360   6.341
79662SOL    HW140883   0.085   0.435   6.400
79662SOL    HW240884   0.155   0.366   6.286
79663SOL     OW40885  11.857  11.911  14.500
79663SOL    HW140886  11.828  12.001  14.517
79663SOL    HW240887  11.782  11.857  14.526
79664SOL     OW40888   6.397   9.741   1.665
79664SOL    HW140889   6.353   9.778   1.589
79664SOL    HW240890   6.352   9.658   1.681
79665SOL     OW40891  13.462  13.310   0.825
79665SOL    HW140892  13.529  13.306   0.894
79665SOL    HW240893  13.473  13.397   0.786
79666SOL     OW40894  12.413   3.744   2.123
79666SOL    HW140895  12.454   3.708   2.201
79666SOL    HW240896  12.347   3.805   2.156
79667SOL     OW40897  12.276   3.240   1.198
79667SOL    HW140898  12.313   3.168   1.249
79667SOL    HW240899  12.323   3.236   1.115
79668SOL     OW40900   4.385  13.751   0.878
79668SOL    HW140901   4.357  13.669   0.838
79668SOL    HW240902   4.357  13.818   0.817
79669SOL     OW40903  11.248   1.204   9.037
79669SOL    HW140904  11.223   1.296   9.026
79669SOL    HW240905  11.184   1.169   9.099
79670SOL     OW40906  10.883   2.110   4.554
79670SOL    HW140907  10.824   2.089   4.482
79670SOL    HW240908  10.825   2.130   4.628
79671SOL     OW40909   8.941   2.871  13.169
79671SOL    HW140910   8.854   2.849  13.137
79671SOL    HW240911   8.999   2.852  13.095
79672SOL     OW40912   7.453  11.180  12.357
79672SOL    HW140913   7.392  11.221  12.418
79672SOL    HW240914   7.501  11.253  12.318
79673SOL     OW40915   4.898  14.324  10.047
79673SOL    HW140916   4.862  14.326   9.959
79673SOL    HW240917   4.835  14.375  10.099
79674SOL     OW40918   1.672   3.201   4.064
79674SOL    HW140919   1.743   3.168   4.008
79674SOL    HW240920   1.717   3.239   4.140
79675SOL     OW40921   9.120  12.251   7.512
79675SOL    HW140922   9.136  12.252   7.418
79675SOL    HW240923   9.185  12.190   7.547
79676SOL     OW40924   5.580   4.434   1.325
79676SOL    HW140925   5.515   4.368   1.302
79676SOL    HW240926   5.555   4.512   1.276
79677SOL     OW40927   1.126  12.013   5.623
79677SOL    HW140928   1.199  11.972   5.576
79677SOL    HW240929   1.084  11.940   5.670
79678SOL     OW40930  14.069   3.959   2.622
79678SOL    HW140931  14.158   3.941   2.591
79678SOL    HW240932  14.041   3.878   2.662
79679SOL     OW40933  13.006   2.003   2.590
79679SOL    HW140934  13.047   1.982   2.675
79679SOL    HW240935  13.052   1.947   2.528
79680SOL     OW40936   3.897  14.752   5.374
79680SOL    HW140937   3.957  14.680   5.357
79680SOL    HW240938   3.857  14.731   5.458
79681SOL     OW40939   1.085   0.849   8.289
79681SOL    HW140940   1.031   0.920   8.256
79681SOL    HW240941   1.120   0.881   8.372
79682SOL     OW40942   0.505   2.205   7.314
79682SOL    HW140943   0.544   2.292   7.312
79682SOL    HW240944   0.573   2.149   7.352
79683SOL     OW40945   5.390   5.108  14.408
79683SOL    HW140946   5.428   5.054  14.340
79683SOL    HW240947   5.433   5.079  14.489
79684SOL     OW40948  14.663  12.079   6.319
79684SOL    HW140949  14.585  12.059   6.371
79684SOL    HW240950  14.629  12.109   6.235
79685SOL     OW40951   9.954   7.863   5.246
79685SOL    HW140952   9.935   7.903   5.331
79685SOL    HW240953   9.878   7.884   5.192
79686SOL     OW40954   7.186  11.561   5.471
79686SOL    HW140955   7.174  11.473   5.433
79686SOL    HW240956   7.183  11.619   5.395
79687SOL     OW40957   5.011   5.080   1.332
79687SOL    HW140958   5.098   5.066   1.368
79687SOL    HW240959   4.987   5.169   1.359
79688SOL     OW40960   9.164  11.370   8.701
79688SOL    HW140961   9.133  11.300   8.645
79688SOL    HW240962   9.256  11.381   8.677
79689SOL     OW40963   0.476  12.499   6.943
79689SOL    HW140964   0.468  12.480   6.849
79689SOL    HW240965   0.565  12.469   6.965
79690SOL     OW40966   7.291   2.316  12.822
79690SOL    HW140967   7.334   2.358  12.747
79690SOL    HW240968   7.229   2.255  12.783
79691SOL     OW40969  14.274   5.987  13.525
79691SOL    HW140970  14.281   5.910  13.581
79691SOL    HW240971  14.189   5.978  13.481
79692SOL     OW40972   4.384   0.162  12.825
79692SOL    HW140973   4.314   0.117  12.872
79692SOL    HW240974   4.341   0.240  12.789
79693SOL     OW40975  14.675   8.343   1.442
79693SOL    HW140976  14.581   8.324   1.451
79693SOL    HW240977  14.680   8.439   1.444
79694SOL     OW40978   0.149  10.627   2.585
79694SOL    HW140979   0.065  10.671   2.592
79694SOL    HW240980   0.202  10.685   2.529
79695SOL     OW40981  13.371  10.219  14.546
79695SOL    HW140982  13.311  10.224  14.620
79695SOL    HW240983  13.404  10.309  14.535
79696SOL     OW40984  13.551   9.957   9.822
79696SOL    HW140985  13.603   9.993   9.894
79696SOL    HW240986  13.582  10.003   9.744
79697SOL     OW40987  11.726   3.568   3.948
79697SOL    HW140988  11.731   3.543   4.040
79697SOL    HW240989  11.633   3.558   3.925
79698SOL     OW40990  10.314  13.994   6.126
79698SOL    HW140991  10.232  14.033   6.094
79698SOL    HW240992  10.289  13.906   6.154
79699SOL     OW40993   4.540  10.128   6.920
79699SOL    HW140994   4.496  10.084   6.847
79699SOL    HW240995   4.517  10.220   6.911
79700SOL     OW40996  13.289  14.421  14.682
79700SOL    HW140997  13.365  14.479  14.678
79700SOL    HW240998  13.292  14.384  14.770
79701SOL     OW40999   8.336   1.654   6.425
79701SOL    HW141000   8.265   1.601   6.461
79701SOL    HW241001   8.382   1.688   6.502
79702SOL     OW41002   3.566   5.655  10.578
79702SOL    HW141003   3.606   5.737  10.551
79702SOL    HW241004   3.484   5.651  10.529
79703SOL     OW41005   2.729  13.517  11.125
79703SOL    HW141006   2.640  13.482  11.115
79703SOL    HW241007   2.774  13.454  11.180
79704SOL     OW41008   2.969  11.398   1.775
79704SOL    HW141009   3.056  11.439   1.775
79704SOL    HW241010   2.947  11.390   1.682
79705SOL     OW41011   6.459  14.013   5.081
79705SOL    HW141012   6.476  14.039   4.991
79705SOL    HW241013   6.472  14.094   5.132
79706SOL     OW41014  13.546   1.945   2.915
79706SOL    HW141015  13.495   1.864   2.921
79706SOL    HW241016  13.489   2.013   2.949
79707SOL     OW41017   4.294   5.503  12.221
79707SOL    HW141018   4.347   5.432  12.257
79707SOL    HW241019   4.208   5.463  12.206
79708SOL     OW41020   8.041  10.781   2.455
79708SOL    HW141021   7.973  10.826   2.405
79708SOL    HW241022   8.015  10.689   2.454
79709SOL     OW41023  14.728   9.247   7.025
79709SOL    HW141024  14.775   9.166   7.005
79709SOL    HW241025  14.675   9.226   7.101
79710SOL     OW41026   2.028  13.048   5.606
79710SOL    HW141027   1.980  13.087   5.680
79710SOL    HW241028   2.050  13.123   5.551
79711SOL     OW41029   1.932   6.035   1.997
79711SOL    HW141030   1.884   5.952   1.994
79711SOL    HW241031   1.866   6.101   2.018
79712SOL     OW41032   9.540   2.533   8.941
79712SOL    HW141033   9.633   2.521   8.919
79712SOL    HW241034   9.513   2.447   8.974
79713SOL     OW41035   3.155   7.499   7.705
79713SOL    HW141036   3.061   7.488   7.686
79713SOL    HW241037   3.179   7.579   7.658
79714SOL     OW41038   9.319   2.870   4.382
79714SOL    HW141039   9.277   2.883   4.467
79714SOL    HW241040   9.354   2.781   4.386
79715SOL     OW41041   8.820   0.524   8.064
79715SOL    HW141042   8.817   0.597   8.002
79715SOL    HW241043   8.813   0.446   8.009
79716SOL     OW41044   4.497   1.119   6.823
79716SOL    HW141045   4.481   1.065   6.901
79716SOL    HW241046   4.521   1.056   6.755
79717SOL     OW41047   5.947   1.966   6.710
79717SOL    HW141048   5.981   1.892   6.760
79717SOL    HW241049   5.872   1.931   6.662
79718SOL     OW41050   8.846   0.314   6.970
79718SOL    HW141051   8.870   0.326   7.062
79718SOL    HW241052   8.758   0.352   6.963
79719SOL     OW41053   7.822   1.046  11.543
79719SOL    HW141054   7.763   0.971  11.553
79719SOL    HW241055   7.773   1.109  11.491
79720SOL     OW41056   1.854   8.198   9.681
79720SOL    HW141057   1.810   8.248   9.612
79720SOL    HW241058   1.901   8.129   9.633
79721SOL     OW41059  10.778   5.833  13.511
79721SOL    HW141060  10.814   5.748  13.486
79721SOL    HW241061  10.834   5.863  13.582
79722SOL     OW41062   5.415   3.956   1.563
79722SOL    HW141063   5.494   3.977   1.513
79722SOL    HW241064   5.380   3.877   1.522
79723SOL     OW41065   1.859  10.370   0.310
79723SOL    HW141066   1.906  10.317   0.375
79723SOL    HW241067   1.909  10.451   0.305
79724SOL     OW41068   8.738   0.472   3.043
79724SOL    HW141069   8.690   0.411   3.099
79724SOL    HW241070   8.674   0.540   3.021
79725SOL     OW41071   7.302   1.624   6.480
79725SOL    HW141072   7.337   1.690   6.540
79725SOL    HW241073   7.363   1.550   6.487
79726SOL     OW41074   5.121  14.833  14.797
79726SOL    HW141075   5.145  14.748  14.760
79726SOL    HW241076   5.087  14.812   0.017
79727SOL     OW41077   4.075   2.767  14.842
79727SOL    HW141078   4.033   2.852  14.833
79727SOL    HW241079   4.004   2.706  14.859
79728SOL     OW41080   7.104  10.450   3.811
79728SOL    HW141081   7.013  10.442   3.840
79728SOL    HW241082   7.099  10.447   3.715
79729SOL     OW41083   2.916  13.538   0.392
79729SOL    HW141084   2.842  13.532   0.331
79729SOL    HW241085   2.881  13.590   0.465
79730SOL     OW41086   3.949   8.127   4.393
79730SOL    HW141087   3.954   8.059   4.460
79730SOL    HW241088   4.039   8.139   4.363
79731SOL     OW41089  10.231   3.235  13.682
79731SOL    HW141090  10.194   3.150  13.656
79731SOL    HW241091  10.317   3.214  13.717
79732SOL     OW41092   2.708   3.360   3.580
79732SOL    HW141093   2.759   3.427   3.536
79732SOL    HW241094   2.702   3.389   3.671
79733SOL     OW41095   0.848   7.449   2.177
79733SOL    HW141096   0.915   7.469   2.242
79733SOL    HW241097   0.788   7.523   2.182
79734SOL     OW41098   0.356   8.913   7.018
79734SOL    HW141099   0.375   8.867   6.936
79734SOL    HW241100   0.336   8.843   7.080
79735SOL     OW41101  10.092   0.091   4.949
79735SOL    HW141102  10.126   0.180   4.939
79735SOL    HW241103  10.139   0.055   5.024
79736SOL     OW41104   7.209   5.605  13.310
79736SOL    HW141105   7.159   5.591  13.391
79736SOL    HW241106   7.216   5.700  13.303
79737SOL     OW41107  10.006  10.379   7.106
79737SOL    HW141108  10.003  10.291   7.068
79737SOL    HW241109   9.936  10.426   7.061
79738SOL     OW41110  12.513  10.337  11.452
79738SOL    HW141111  12.424  10.305  11.470
79738SOL    HW241112  12.570  10.265  11.478
79739SOL     OW41113   1.773   5.023  11.399
79739SOL    HW141114   1.727   5.049  11.478
79739SOL    HW241115   1.736   5.078  11.330
79740SOL     OW41116   2.644   0.206  11.170
79740SOL    HW141117   2.643   0.112  11.188
79740SOL    HW241118   2.664   0.213  11.076
79741SOL     OW41119   1.392  11.283   3.833
79741SOL    HW141120   1.411  11.299   3.925
79741SOL    HW241121   1.417  11.192   3.819
79742SOL     OW41122  12.092   6.582   2.838
79742SOL    HW141123  12.156   6.534   2.786
79742SOL    HW241124  12.060   6.519   2.902
79743SOL     OW41125   9.651   2.849   4.552
79743SOL    HW141126   9.672   2.903   4.475
79743SOL    HW241127   9.687   2.763   4.531
79744SOL     OW41128   5.321  12.975   4.341
79744SOL    HW141129   5.387  13.021   4.289
79744SOL    HW241130   5.369  12.939   4.416
79745SOL     OW41131  12.364   2.231  13.925
79745SOL    HW141132  12.396   2.180  13.851
79745SOL    HW241133  12.270   2.216  13.927
79746SOL     OW41134   3.406   6.093   5.201
79746SOL    HW141135   3.333   6.119   5.145
79746SOL    HW241136   3.376   6.111   5.290
79747SOL     OW41137   9.774   3.100   1.211
79747SOL    HW141138   9.700   3.110   1.151
79747SOL    HW241139   9.806   3.188   1.225
79748SOL     OW41140   9.879  12.051   2.249
79748SOL    HW141141   9.822  12.007   2.185
79748SOL    HW241142   9.904  12.133   2.207
79749SOL     OW41143   8.893  12.964   3.719
79749SOL    HW141144   8.816  12.949   3.665
79749SOL    HW241145   8.948  12.887   3.704
79750SOL     OW41146  10.134  11.054   4.885
79750SOL    HW141147  10.074  10.985   4.914
79750SOL    HW241148  10.221  11.022   4.909
79751SOL     OW41149   0.169   2.590   5.697
79751SOL    HW141150   0.187   2.535   5.774
79751SOL    HW241151   0.183   2.679   5.728
79752SOL     OW41152  11.472   2.971   0.536
79752SOL    HW141153  11.449   3.004   0.623
79752SOL    HW241154  11.396   2.992   0.481
79753SOL     OW41155   4.153   5.673  10.573
79753SOL    HW141156   4.088   5.662  10.643
79753SOL    HW241157   4.198   5.588  10.569
79754SOL     OW41158  11.177   7.057   4.528
79754SOL    HW141159  11.090   7.069   4.567
79754SOL    HW241160  11.211   6.978   4.569
79755SOL     OW41161  11.250   3.841   4.607
79755SOL    HW141162  11.308   3.764   4.606
79755SOL    HW241163  11.175   3.813   4.659
79756SOL     OW41164  10.429   6.616  10.112
79756SOL    HW141165  10.430   6.521  10.104
79756SOL    HW241166  10.345   6.636  10.154
79757SOL     OW41167   0.716  10.367  11.282
79757SOL    HW141168   0.631  10.382  11.324
79757SOL    HW241169   0.776  10.355  11.356
79758SOL     OW41170   8.780   8.408  13.417
79758SOL    HW141171   8.795   8.502  13.411
79758SOL    HW241172   8.844   8.377  13.481
79759SOL     OW41173   7.960   9.952  10.373
79759SOL    HW141174   7.997   9.894  10.307
79759SOL    HW241175   7.977  10.040  10.340
79760SOL     OW41176  13.576  14.836   2.245
79760SOL    HW141177  13.546  14.752   2.279
79760SOL    HW241178  13.669  14.823   2.227
79761SOL     OW41179   1.687   5.792   7.684
79761SOL    HW141180   1.638   5.724   7.730
79761SOL    HW241181   1.715   5.750   7.603
79762SOL     OW41182  12.195   0.847   8.325
79762SOL    HW141183  12.235   0.844   8.238
79762SOL    HW241184  12.157   0.935   8.331
79763SOL     OW41185   3.722   9.897   3.187
79763SOL    HW141186   3.727   9.983   3.229
79763SOL    HW241187   3.629   9.875   3.190
79764SOL     OW41188   7.928   2.192   7.203
79764SOL    HW141189   7.935   2.283   7.172
79764SOL    HW241190   7.992   2.144   7.150
79765SOL     OW41191   0.142  10.135  14.779
79765SOL    HW141192   0.060  10.152  14.732
79765SOL    HW241193   0.159  10.042  14.765
79766SOL     OW41194   8.801  12.751   1.309
79766SOL    HW141195   8.834  12.789   1.227
79766SOL    HW241196   8.707  12.740   1.294
79767SOL     OW41197  11.942   6.395  13.601
79767SOL    HW141198  11.951   6.345  13.682
79767SOL    HW241199  11.915   6.482  13.629
79768SOL     OW41200  10.004   8.931   9.242
79768SOL    HW141201   9.973   8.842   9.228
79768SOL    HW241202  10.034   8.960   9.155
79769SOL     OW41203   4.126   3.443   9.800
79769SOL    HW141204   4.100   3.466   9.889
79769SOL    HW241205   4.208   3.490   9.785
79770SOL     OW41206   2.800  11.907  10.687
79770SOL    HW141207   2.706  11.918  10.678
79770SOL    HW241208   2.831  11.891  10.598
79771SOL     OW41209  14.063   3.813   9.615
79771SOL    HW141210  14.053   3.730   9.568
79771SOL    HW241211  13.974   3.848   9.619
79772SOL     OW41212   1.315   4.830  13.416
79772SOL    HW141213   1.248   4.763  13.432
79772SOL    HW241214   1.314   4.843  13.322
79773SOL     OW41215   5.616  13.547  11.114
79773SOL    HW141216   5.639  13.487  11.043
79773SOL    HW241217   5.637  13.499  11.194
79774SOL     OW41218   8.973  10.794   1.458
79774SOL    HW141219   9.061  10.767   1.434
79774SOL    HW241220   8.983  10.832   1.545
79775SOL     OW41221   5.392   1.687   7.366
79775SOL    HW141222   5.433   1.758   7.414
79775SOL    HW241223   5.298   1.697   7.383
79776SOL     OW41224   4.592   3.696  10.453
79776SOL    HW141225   4.674   3.671  10.495
79776SOL    HW241226   4.569   3.779  10.494
79777SOL     OW41227  10.705  14.214   6.091
79777SOL    HW141228  10.721  14.183   6.180
79777SOL    HW241229  10.752  14.297   6.086
79778SOL     OW41230   4.029   9.720   5.749
79778SOL    HW141231   4.060   9.805   5.719
79778SOL    HW241232   4.071   9.656   5.691
79779SOL     OW41233  10.324   5.524  10.726
79779SOL    HW141234  10.389   5.539  10.795
79779SOL    HW241235  10.274   5.605  10.723
79780SOL     OW41236   6.353  12.541  10.746
79780SOL    HW141237   6.389  12.473  10.802
79780SOL    HW241238   6.396  12.622  10.775
79781SOL     OW41239  12.474   7.575   2.647
79781SOL    HW141240  12.484   7.516   2.573
79781SOL    HW241241  12.504   7.524   2.722
79782SOL     OW41242   4.872   9.725   7.031
79782SOL    HW141243   4.803   9.779   7.069
79782SOL    HW241244   4.941   9.786   7.007
79783SOL     OW41245  11.905   7.587  14.309
79783SOL    HW141246  11.947   7.507  14.279
79783SOL    HW241247  11.816   7.583  14.273
79784SOL     OW41248  11.162  14.467   1.795
79784SOL    HW141249  11.074  14.449   1.761
79784SOL    HW241250  11.153  14.549   1.844
79785SOL     OW41251   6.228   5.452  14.641
79785SOL    HW141252   6.323   5.440  14.638
79785SOL    HW241253   6.217   5.544  14.666
79786SOL     OW41254   6.336  14.301   3.315
79786SOL    HW141255   6.313  14.277   3.405
79786SOL    HW241256   6.324  14.396   3.312
79787SOL     OW41257   1.284   9.325   5.572
79787SOL    HW141258   1.288   9.263   5.645
79787SOL    HW241259   1.276   9.269   5.494
79788SOL     OW41260   1.882   2.230   9.458
79788SOL    HW141261   1.939   2.154   9.471
79788SOL    HW241262   1.853   2.254   9.546
79789SOL     OW41263   6.504  10.121   4.945
79789SOL    HW141264   6.444  10.103   5.017
79789SOL    HW241265   6.577  10.168   4.985
79790SOL     OW41266   8.712   8.951   9.237
79790SOL    HW141267   8.806   8.933   9.234
79790SOL    HW241268   8.705   9.042   9.263
79791SOL     OW41269   0.098  12.173   9.359
79791SOL    HW141270   0.037  12.206   9.426
79791SOL    HW241271   0.136  12.252   9.321
79792SOL     OW41272   7.902   6.112   3.721
79792SOL    HW141273   7.985   6.160   3.718
79792SOL    HW241274   7.839   6.177   3.755
79793SOL     OW41275   2.894   6.811   0.499
79793SOL    HW141276   2.837   6.814   0.422
79793SOL    HW241277   2.961   6.876   0.481
79794SOL     OW41278   0.286  12.087   5.419
79794SOL    HW141279   0.364  12.128   5.382
79794SOL    HW241280   0.278  12.125   5.506
79795SOL     OW41281   2.424  10.645  11.921
79795SOL    HW141282   2.475  10.627  12.000
79795SOL    HW241283   2.335  10.614  11.942
79796SOL     OW41284   6.995   1.705  13.475
79796SOL    HW141285   6.917   1.669  13.516
79796SOL    HW241286   7.032   1.764  13.541
79797SOL     OW41287  10.984   8.333  12.344
79797SOL    HW141288  11.061   8.296  12.300
79797SOL    HW241289  11.004   8.326  12.437
79798SOL     OW41290  14.346  13.624  12.384
79798SOL    HW141291  14.397  13.611  12.304
79798SOL    HW241292  14.307  13.711  12.372
79799SOL     OW41293  13.997  10.882   2.452
79799SOL    HW141294  14.089  10.853   2.458
79799SOL    HW241295  13.955  10.816   2.397
79800SOL     OW41296   0.218   7.701  10.052
79800SOL    HW141297   0.289   7.640  10.032
79800SOL    HW241298   0.205   7.691  10.147
79801SOL     OW41299   4.166   4.492   8.858
79801SOL    HW141300   4.145   4.442   8.937
79801SOL    HW241301   4.162   4.584   8.886
79802SOL     OW41302   7.098   5.971  14.275
79802SOL    HW141303   7.158   5.901  14.251
79802SOL    HW241304   7.085   5.960  14.369
79803SOL     OW41305   5.736  10.857   5.586
79803SOL    HW141306   5.800  10.797   5.624
79803SOL    HW241307   5.655  10.841   5.635
79804SOL     OW41308   3.809   3.338   0.428
79804SOL    HW141309   3.770   3.425   0.420
79804SOL    HW241310   3.795   3.298   0.343
79805SOL     OW41311   4.699   9.393   9.934
79805SOL    HW141312   4.696   9.359  10.023
79805SOL    HW241313   4.634   9.462   9.931
79806SOL     OW41314   3.530   3.557   5.830
79806SOL    HW141315   3.625   3.566   5.840
79806SOL    HW241316   3.515   3.462   5.829
79807SOL     OW41317  13.716   2.267  14.828
79807SOL    HW141318  13.637   2.247  14.778
79807SOL    HW241319  13.766   2.186  14.828
79808SOL     OW41320  12.095  12.756   6.574
79808SOL    HW141321  12.153  12.831   6.558
79808SOL    HW241322  12.128  12.716   6.654
79809SOL     OW41323   5.654   9.461   2.851
79809SOL    HW141324   5.693   9.392   2.797
79809SOL    HW241325   5.706   9.461   2.932
79810SOL     OW41326   3.489   7.009   0.944
79810SOL    HW141327   3.519   7.089   0.902
79810SOL    HW241328   3.399   7.028   0.971
79811SOL     OW41329  10.842   6.132   3.308
79811SOL    HW141330  10.809   6.043   3.316
79811SOL    HW241331  10.934   6.121   3.283
79812SOL     OW41332   2.155  12.390   9.806
79812SOL    HW141333   2.203  12.320   9.761
79812SOL    HW241334   2.139  12.455   9.738
79813SOL     OW41335  12.512   9.455   8.375
79813SOL    HW141336  12.420   9.448   8.403
79813SOL    HW241337  12.562   9.416   8.446
79814SOL     OW41338   0.817   3.031  14.213
79814SOL    HW141339   0.788   2.960  14.156
79814SOL    HW241340   0.887   2.993  14.265
79815SOL     OW41341   1.922  10.929  11.176
79815SOL    HW141342   1.868  10.990  11.125
79815SOL    HW241343   1.880  10.925  11.262
79816SOL     OW41344  10.842   7.364   1.168
79816SOL    HW141345  10.934   7.354   1.195
79816SOL    HW241346  10.846   7.410   1.084
79817SOL     OW41347   9.072   9.786   0.774
79817SOL    HW141348   9.091   9.878   0.755
79817SOL    HW241349   9.136   9.737   0.722
79818SOL     OW41350   2.328  13.986   9.569
79818SOL    HW141351   2.246  13.996   9.520
79818SOL    HW241352   2.375  14.068   9.553
79819SOL     OW41353   2.578   4.323  11.432
79819SOL    HW141354   2.578   4.356  11.522
79819SOL    HW241355   2.491   4.344  11.399
79820SOL     OW41356   8.073   1.050  10.077
79820SOL    HW141357   8.095   0.957  10.077
79820SOL    HW241358   8.000   1.058  10.016
79821SOL     OW41359   5.021   2.895   0.131
79821SOL    HW141360   4.993   2.953   0.059
79821SOL    HW241361   5.112   2.920   0.148
79822SOL     OW41362   5.279  14.359   1.805
79822SOL    HW141363   5.189  14.383   1.830
79822SOL    HW241364   5.321  14.442   1.783
79823SOL     OW41365  11.041  13.248   2.106
79823SOL    HW141366  11.009  13.241   2.196
79823SOL    HW241367  11.124  13.202   2.106
79824SOL     OW41368   6.060  14.477  14.425
79824SOL    HW141369   6.066  14.564  14.386
79824SOL    HW241370   6.104  14.420  14.363
79825SOL     OW41371   8.182   2.118   5.232
79825SOL    HW141372   8.231   2.200   5.229
79825SOL    HW241373   8.124   2.128   5.308
79826SOL     OW41374   8.321   6.197   7.440
79826SOL    HW141375   8.254   6.157   7.496
79826SOL    HW241376   8.393   6.216   7.500
79827SOL     OW41377   7.191   8.744   0.676
79827SOL    HW141378   7.271   8.751   0.623
79827SOL    HW241379   7.220   8.700   0.756
79828SOL     OW41380   2.740  14.355   0.922
79828SOL    HW141381   2.817  14.336   0.975
79828SOL    HW241382   2.666  14.329   0.978
79829SOL     OW41383  12.971   7.055   5.876
79829SOL    HW141384  12.965   7.145   5.844
79829SOL    HW241385  12.944   7.001   5.802
79830SOL     OW41386   1.712   5.291   3.718
79830SOL    HW141387   1.755   5.214   3.754
79830SOL    HW241388   1.657   5.257   3.647
79831SOL     OW41389   5.589  13.011   3.596
79831SOL    HW141390   5.523  12.941   3.604
79831SOL    HW241391   5.606  13.038   3.686
79832SOL     OW41392   6.291  14.576  14.783
79832SOL    HW141393   6.200  14.547  14.787
79832SOL    HW241394   6.333  14.516  14.721
79833SOL     OW41395   9.210   9.529   6.872
79833SOL    HW141396   9.135   9.480   6.905
79833SOL    HW241397   9.172   9.605   6.828
79834SOL     OW41398   9.959   9.602   4.275
79834SOL    HW141399   9.990   9.618   4.186
79834SOL    HW241400   9.874   9.558   4.263
79835SOL     OW41401  12.604  11.438   3.457
79835SOL    HW141402  12.591  11.378   3.531
79835SOL    HW241403  12.668  11.501   3.488
79836SOL     OW41404  10.121   7.903   8.613
79836SOL    HW141405  10.205   7.900   8.659
79836SOL    HW241406  10.077   7.822   8.637
79837SOL     OW41407   9.573   8.027  12.274
79837SOL    HW141408   9.604   7.937  12.266
79837SOL    HW241409   9.652   8.077  12.298
79838SOL     OW41410   7.755   7.546  13.307
79838SOL    HW141411   7.691   7.513  13.370
79838SOL    HW241412   7.737   7.498  13.226
79839SOL     OW41413   6.145   5.853   0.613
79839SOL    HW141414   6.061   5.808   0.606
79839SOL    HW241415   6.147   5.885   0.703
79840SOL     OW41416   0.483   2.070  11.078
79840SOL    HW141417   0.472   2.160  11.109
79840SOL    HW241418   0.577   2.060  11.068
79841SOL     OW41419   1.300   4.781   8.484
79841SOL    HW141420   1.328   4.761   8.394
79841SOL    HW241421   1.271   4.872   8.480
79842SOL     OW41422   0.972  13.411   0.516
79842SOL    HW141423   0.993  13.325   0.554
79842SOL    HW241424   1.025  13.473   0.566
79843SOL     OW41425  10.598   8.147   4.659
79843SOL    HW141426  10.598   8.114   4.569
79843SOL    HW241427  10.683   8.122   4.694
79844SOL     OW41428   3.087   2.422   6.143
79844SOL    HW141429   3.003   2.468   6.141
79844SOL    HW241430   3.093   2.389   6.233
79845SOL     OW41431   2.544   4.733   0.501
79845SOL    HW141432   2.467   4.776   0.465
79845SOL    HW241433   2.616   4.764   0.446
79846SOL     OW41434   8.432   3.997   8.472
79846SOL    HW141435   8.513   3.946   8.469
79846SOL    HW241436   8.371   3.948   8.417
79847SOL     OW41437   2.943   6.075   1.173
79847SOL    HW141438   2.968   6.035   1.090
79847SOL    HW241439   2.877   6.015   1.209
79848SOL     OW41440   7.979  13.740  10.475
79848SOL    HW141441   8.037  13.787  10.416
79848SOL    HW241442   7.989  13.648  10.451
79849SOL     OW41443  12.643   1.953   7.089
79849SOL    HW141444  12.619   1.963   7.181
79849SOL    HW241445  12.620   1.863   7.067
79850SOL     OW41446   5.596   4.145   7.527
79850SOL    HW141447   5.641   4.143   7.443
79850SOL    HW241448   5.512   4.102   7.510
79851SOL     OW41449  10.377   9.109   8.456
79851SOL    HW141450  10.339   9.062   8.530
79851SOL    HW241451  10.457   9.149   8.490
79852SOL     OW41452   0.102  10.209  13.121
79852SOL    HW141453   0.029  10.148  13.113
79852SOL    HW241454   0.173  10.169  13.070
79853SOL     OW41455   5.309  13.129   5.614
79853SOL    HW141456   5.351  13.105   5.696
79853SOL    HW241457   5.292  13.046   5.570
79854SOL     OW41458  14.176  13.259  10.606
79854SOL    HW141459  14.210  13.195  10.543
79854SOL    HW241460  14.184  13.343  10.561
79855SOL     OW41461  10.703   0.771   5.484
79855SOL    HW141462  10.624   0.728   5.453
79855SOL    HW241463  10.761   0.772   5.408
79856SOL     OW41464   6.407   8.179   7.146
79856SOL    HW141465   6.432   8.100   7.194
79856SOL    HW241466   6.413   8.154   7.053
79857SOL     OW41467   0.223  14.838   5.047
79857SOL    HW141468   0.147   0.014   5.008
79857SOL    HW241469   0.193  14.809   5.133
79858SOL     OW41470   5.230   5.435   2.739
79858SOL    HW141471   5.300   5.461   2.680
79858SOL    HW241472   5.229   5.502   2.807
79859SOL     OW41473  13.009  11.440  13.053
79859SOL    HW141474  13.077  11.478  13.109
79859SOL    HW241475  12.998  11.503  12.982
79860SOL     OW41476  10.126   7.078   9.456
79860SOL    HW141477  10.143   6.997   9.503
79860SOL    HW241478  10.145   7.057   9.364
79861SOL     OW41479   3.732   4.719  11.712
79861SOL    HW141480   3.758   4.785  11.775
79861SOL    HW241481   3.784   4.738  11.634
79862SOL     OW41482  10.754  11.473   8.094
79862SOL    HW141483  10.801  11.407   8.146
79862SOL    HW241484  10.718  11.424   8.020
79863SOL     OW41485   1.193   6.415   2.107
79863SOL    HW141486   1.118   6.358   2.123
79863SOL    HW241487   1.221   6.441   2.195
79864SOL     OW41488   2.490   6.625   9.522
79864SOL    HW141489   2.504   6.541   9.478
79864SOL    HW241490   2.514   6.609   9.613
79865SOL     OW41491  12.027   2.071   8.930
79865SOL    HW141492  11.986   2.019   8.861
79865SOL    HW241493  12.118   2.041   8.931
79866SOL     OW41494   9.125   6.688   3.373
79866SOL    HW141495   9.053   6.691   3.436
79866SOL    HW241496   9.096   6.625   3.307
79867SOL     OW41497   3.715   1.930   6.560
79867SOL    HW141498   3.658   2.007   6.565
79867SOL    HW241499   3.680   1.871   6.627
79868SOL     OW41500  11.881  13.340  13.885
79868SOL    HW141501  11.882  13.282  13.808
79868SOL    HW241502  11.905  13.283  13.958
79869SOL     OW41503   8.713   7.432   6.019
79869SOL    HW141504   8.704   7.524   5.996
79869SOL    HW241505   8.770   7.396   5.951
79870SOL     OW41506   9.389  14.740   6.488
79870SOL    HW141507   9.343  14.754   6.571
79870SOL    HW241508   9.420  14.827   6.462
79871SOL     OW41509   5.779   4.567   4.504
79871SOL    HW141510   5.755   4.541   4.593
79871SOL    HW241511   5.713   4.527   4.448
79872SOL     OW41512   1.484   5.236   0.983
79872SOL    HW141513   1.542   5.161   0.969
79872SOL    HW241514   1.410   5.201   1.032
79873SOL     OW41515   9.013   5.347   6.578
79873SOL    HW141516   9.010   5.428   6.627
79873SOL    HW241517   9.084   5.359   6.515
79874SOL     OW41518   0.143   3.012   8.130
79874SOL    HW141519   0.183   3.098   8.113
79874SOL    HW241520   0.069   3.008   8.069
79875SOL     OW41521   7.242   6.598  14.687
79875SOL    HW141522   7.210   6.571  14.773
79875SOL    HW241523   7.197   6.539  14.625
79876SOL     OW41524  13.544   2.885   3.340
79876SOL    HW141525  13.522   2.798   3.371
79876SOL    HW241526  13.461   2.922   3.309
79877SOL     OW41527   0.063  12.520   2.845
79877SOL    HW141528   0.134  12.463   2.875
79877SOL    HW241529   0.108  12.592   2.800
79878SOL     OW41530   6.733   8.089   2.056
79878SOL    HW141531   6.729   8.018   2.120
79878SOL    HW241532   6.642   8.101   2.029
79879SOL     OW41533  12.865   9.458  14.064
79879SOL    HW141534  12.828   9.477  13.978
79879SOL    HW241535  12.953   9.425  14.045
79880SOL     OW41536   7.291   3.629   4.744
79880SOL    HW141537   7.373   3.598   4.705
79880SOL    HW241538   7.253   3.552   4.786
79881SOL     OW41539  11.734  13.969   2.925
79881SOL    HW141540  11.770  14.036   2.867
79881SOL    HW241541  11.651  13.945   2.884
79882SOL     OW41542   9.861   0.161   5.565
79882SOL    HW141543   9.883   0.229   5.629
79882SOL    HW241544   9.927   0.093   5.579
79883SOL     OW41545  13.626   2.009  11.936
79883SOL    HW141546  13.604   2.076  11.872
79883SOL    HW241547  13.553   1.947  11.932
79884SOL     OW41548  12.860   2.262  10.210
79884SOL    HW141549  12.874   2.330  10.276
79884SOL    HW241550  12.944   2.256  10.164
79885SOL     OW41551  14.197   9.833   4.654
79885SOL    HW141552  14.241   9.764   4.703
79885SOL    HW241553  14.267   9.894   4.630
79886SOL     OW41554   1.993  14.032  11.974
79886SOL    HW141555   2.085  14.056  11.986
79886SOL    HW241556   1.955  14.039  12.061
79887SOL     OW41557   2.233  11.789  10.066
79887SOL    HW141558   2.150  11.801  10.112
79887SOL    HW241559   2.291  11.854  10.104
79888SOL     OW41560  13.030  12.382   2.150
79888SOL    HW141561  12.967  12.405   2.081
79888SOL    HW241562  13.112  12.367   2.103
79889SOL     OW41563   1.381  10.430   1.832
79889SOL    HW141564   1.314  10.498   1.838
79889SOL    HW241565   1.375  10.397   1.743
79890SOL     OW41566  10.783   7.717   2.437
79890SOL    HW141567  10.746   7.756   2.357
79890SOL    HW241568  10.708   7.707   2.495
79891SOL     OW41569  14.629   2.942  13.713
79891SOL    HW141570  14.592   3.023  13.750
79891SOL    HW241571  14.678   2.903  13.785
79892SOL     OW41572  10.751   1.852   6.116
79892SOL    HW141573  10.840   1.866   6.149
79892SOL    HW241574  10.738   1.922   6.052
79893SOL     OW41575  11.021  11.625   4.427
79893SOL    HW141576  11.016  11.690   4.357
79893SOL    HW241577  10.932  11.593   4.438
79894SOL     OW41578   3.096   9.305  10.004
79894SOL    HW141579   3.091   9.213  10.028
79894SOL    HW241580   3.190   9.323   9.997
79895SOL     OW41581   5.868  12.297   3.315
79895SOL    HW141582   5.827  12.306   3.229
79895SOL    HW241583   5.950  12.347   3.308
79896SOL     OW41584   1.019   0.535   1.846
79896SOL    HW141585   1.009   0.527   1.751
79896SOL    HW241586   0.930   0.530   1.880
79897SOL     OW41587   7.065   7.677   6.432
79897SOL    HW141588   7.092   7.706   6.519
79897SOL    HW241589   7.045   7.758   6.386
79898SOL     OW41590  13.490   4.421  12.785
79898SOL    HW141591  13.427   4.360  12.745
79898SOL    HW241592  13.532   4.369  12.854
79899SOL     OW41593  12.322  10.917   9.569
79899SOL    HW141594  12.382  10.845   9.551
79899SOL    HW241595  12.358  10.991   9.520
79900SOL     OW41596   7.849   5.085   3.761
79900SOL    HW141597   7.848   5.179   3.745
79900SOL    HW241598   7.922   5.072   3.821
79901SOL     OW41599   3.820   2.926   0.375
79901SOL    HW141600   3.903   2.956   0.413
79901SOL    HW241601   3.752   2.966   0.430
79902SOL     OW41602  14.113   7.126   0.005
79902SOL    HW141603  14.149   7.150  14.788
79902SOL    HW241604  14.179   7.153   0.068
79903SOL     OW41605   7.070  11.210  10.369
79903SOL    HW141606   7.094  11.253  10.286
79903SOL    HW241607   7.097  11.119  10.356
79904SOL     OW41608   2.841  13.964   6.331
79904SOL    HW141609   2.873  13.944   6.419
79904SOL    HW241610   2.752  13.928   6.329
79905SOL     OW41611   6.439   7.081  14.787
79905SOL    HW141612   6.496   7.091  14.710
79905SOL    HW241613   6.383   7.007  14.766
79906SOL     OW41614   1.568   9.668   6.302
79906SOL    HW141615   1.502   9.602   6.323
79906SOL    HW241616   1.634   9.621   6.251
79907SOL     OW41617   3.201   8.987  11.263
79907SOL    HW141618   3.270   9.005  11.327
79907SOL    HW241619   3.222   9.044  11.189
79908SOL     OW41620   8.370   6.283   6.196
79908SOL    HW141621   8.297   6.226   6.221
79908SOL    HW241622   8.428   6.227   6.145
79909SOL     OW41623  13.724  12.630   1.990
79909SOL    HW141624  13.803  12.681   1.975
79909SOL    HW241625  13.736  12.551   1.937
79910SOL     OW41626   7.012  10.776   0.483
79910SOL    HW141627   7.097  10.782   0.527
79910SOL    HW241628   6.977  10.865   0.487
79911SOL     OW41629   4.607   5.305   9.038
79911SOL    HW141630   4.620   5.360   9.115
79911SOL    HW241631   4.587   5.218   9.074
79912SOL     OW41632   0.069   9.115   3.747
79912SOL    HW141633   0.096   9.198   3.706
79912SOL    HW241634   0.077   9.050   3.677
79913SOL     OW41635   5.287   3.666   8.274
79913SOL    HW141636   5.226   3.673   8.348
79913SOL    HW241637   5.232   3.642   8.200
79914SOL     OW41638   7.837   6.359  11.417
79914SOL    HW141639   7.762   6.412  11.444
79914SOL    HW241640   7.817   6.331  11.328
79915SOL     OW41641   9.124   2.547  12.628
79915SOL    HW141642   9.204   2.595  12.649
79915SOL    HW241643   9.154   2.463  12.596
79916SOL     OW41644   8.996   8.058   7.163
79916SOL    HW141645   9.005   7.986   7.226
79916SOL    HW241646   9.078   8.107   7.172
79917SOL     OW41647  14.322   0.665   3.409
79917SOL    HW141648  14.366   0.623   3.483
79917SOL    HW241649  14.353   0.617   3.332
79918SOL     OW41650  13.806   1.984   3.462
79918SOL    HW141651  13.810   1.920   3.534
79918SOL    HW241652  13.746   1.945   3.398
79919SOL     OW41653   4.613  11.679   6.066
79919SOL    HW141654   4.531  11.702   6.110
79919SOL    HW241655   4.588  11.615   6.000
79920SOL     OW41656   1.752   1.969   2.793
79920SOL    HW141657   1.684   1.903   2.805
79920SOL    HW241658   1.829   1.919   2.764
79921SOL     OW41659   5.361  14.339   3.929
79921SOL    HW141660   5.306  14.378   3.997
79921SOL    HW241661   5.302  14.326   3.855
79922SOL     OW41662   0.480   5.598   7.609
79922SOL    HW141663   0.480   5.682   7.565
79922SOL    HW241664   0.449   5.617   7.698
79923SOL     OW41665  10.153   1.982   3.049
79923SOL    HW141666  10.128   2.074   3.036
79923SOL    HW241667  10.101   1.954   3.124
79924SOL     OW41668  14.563   4.606   3.747
79924SOL    HW141669  14.484   4.625   3.797
79924SOL    HW241670  14.534   4.603   3.656
79925SOL     OW41671   8.868   8.146   8.294
79925SOL    HW141672   8.780   8.131   8.259
79925SOL    HW241673   8.926   8.134   8.219
79926SOL     OW41674   8.771   8.387  12.611
79926SOL    HW141675   8.731   8.415  12.529
79926SOL    HW241676   8.737   8.298  12.626
79927SOL     OW41677  14.413   8.298  13.914
79927SOL    HW141678  14.358   8.338  13.846
79927SOL    HW241679  14.352   8.276  13.984
79928SOL     OW41680  14.824   4.080  10.807
79928SOL    HW141681  14.863   4.086  10.720
79928SOL    HW241682  14.753   4.144  10.806
79929SOL     OW41683   4.983   9.063   3.665
79929SOL    HW141684   4.889   9.061   3.650
79929SOL    HW241685   5.022   9.044   3.580
79930SOL     OW41686  12.679   7.395  11.442
79930SOL    HW141687  12.704   7.429  11.528
79930SOL    HW241688  12.594   7.353  11.457
79931SOL     OW41689  13.685   2.771  13.435
79931SOL    HW141690  13.628   2.772  13.512
79931SOL    HW241691  13.628   2.742  13.363
79932SOL     OW41692   9.517  13.468   7.010
79932SOL    HW141693   9.590  13.411   6.987
79932SOL    HW241694   9.460  13.467   6.934
79933SOL     OW41695  13.337   3.211   3.576
79933SOL    HW141696  13.343   3.206   3.671
79933SOL    HW241697  13.428   3.215   3.547
79934SOL     OW41698   2.066  10.968   8.952
79934SOL    HW141699   2.122  10.891   8.953
79934SOL    HW241700   1.986  10.940   8.998
79935SOL     OW41701   2.660  12.475   5.254
79935SOL    HW141702   2.729  12.538   5.231
79935SOL    HW241703   2.682  12.397   5.203
79936SOL     OW41704   4.638  10.025  13.128
79936SOL    HW141705   4.620  10.093  13.193
79936SOL    HW241706   4.632   9.943  13.177
79937SOL     OW41707   3.627  12.266   1.948
79937SOL    HW141708   3.698  12.293   2.007
79937SOL    HW241709   3.671  12.219   1.877
79938SOL     OW41710  11.162  14.054  10.405
79938SOL    HW141711  11.211  13.981  10.444
79938SOL    HW241712  11.161  14.121  10.474
79939SOL     OW41713  12.421  12.247   9.236
79939SOL    HW141714  12.424  12.156   9.209
79939SOL    HW241715  12.467  12.294   9.166
79940SOL     OW41716   6.394   4.140  10.444
79940SOL    HW141717   6.421   4.060  10.490
79940SOL    HW241718   6.307   4.120  10.411
79941SOL     OW41719   4.540   4.895   5.674
79941SOL    HW141720   4.598   4.962   5.637
79941SOL    HW241721   4.580   4.871   5.757
79942SOL     OW41722  14.235  12.093   1.363
79942SOL    HW141723  14.289  12.109   1.441
79942SOL    HW241724  14.181  12.018   1.387
79943SOL     OW41725  11.854   9.195   5.262
79943SOL    HW141726  11.943   9.227   5.274
79943SOL    HW241727  11.847   9.122   5.323
79944SOL     OW41728  10.954  11.505   0.293
79944SOL    HW141729  10.927  11.534   0.380
79944SOL    HW241730  10.908  11.423   0.280
79945SOL     OW41731  14.763   2.045   2.775
79945SOL    HW141732  14.696   2.030   2.841
79945SOL    HW241733  14.779   2.139   2.778
79946SOL     OW41734  11.774  14.146   5.248
79946SOL    HW141735  11.756  14.071   5.305
79946SOL    HW241736  11.735  14.121   5.164
79947SOL     OW41737   6.295   5.739   0.868
79947SOL    HW141738   6.215   5.791   0.874
79947SOL    HW241739   6.289   5.694   0.784
79948SOL     OW41740   6.691   8.805  10.085
79948SOL    HW141741   6.646   8.870  10.031
79948SOL    HW241742   6.727   8.742  10.023
79949SOL     OW41743   3.169   1.182   4.299
79949SOL    HW141744   3.139   1.159   4.211
79949SOL    HW241745   3.175   1.098   4.345
79950SOL     OW41746   5.376   3.635   2.294
79950SOL    HW141747   5.314   3.706   2.311
79950SOL    HW241748   5.431   3.632   2.372
79951SOL     OW41749   6.599   0.377   8.020
79951SOL    HW141750   6.691   0.349   8.016
79951SOL    HW241751   6.595   0.453   7.963
79952SOL     OW41752   0.116  10.056  14.467
79952SOL    HW141753   0.176  10.127  14.490
79952SOL    HW241754   0.111  10.003  14.546
79953SOL     OW41755  12.753  13.956  12.597
79953SOL    HW141756  12.814  13.902  12.647
79953SOL    HW241757  12.781  13.945  12.506
79954SOL     OW41758  14.351  11.736  10.010
79954SOL    HW141759  14.373  11.717  10.101
79954SOL    HW241760  14.255  11.732  10.006
79955SOL     OW41761   8.163  11.536  11.096
79955SOL    HW141762   8.144  11.590  11.173
79955SOL    HW241763   8.076  11.515  11.061
79956SOL     OW41764  12.482   9.130  10.342
79956SOL    HW141765  12.507   9.214  10.303
79956SOL    HW241766  12.439   9.153  10.425
79957SOL     OW41767   5.281   6.967   9.371
79957SOL    HW141768   5.193   6.941   9.345
79957SOL    HW241769   5.339   6.916   9.315
79958SOL     OW41770  13.858  11.556   2.473
79958SOL    HW141771  13.822  11.598   2.395
79958SOL    HW241772  13.896  11.475   2.442
79959SOL     OW41773   3.741   1.448   8.116
79959SOL    HW141774   3.700   1.362   8.127
79959SOL    HW241775   3.773   1.447   8.026
79960SOL     OW41776   2.300  14.826  13.664
79960SOL    HW141777   2.312   0.030  13.603
79960SOL    HW241778   2.211  14.836  13.696
79961SOL     OW41779   1.943   0.885   7.956
79961SOL    HW141780   1.912   0.903   8.044
79961SOL    HW241781   1.978   0.796   7.960
79962SOL     OW41782   2.829   3.755   5.880
79962SOL    HW141783   2.805   3.807   5.956
79962SOL    HW241784   2.919   3.780   5.861
79963SOL     OW41785   5.785   9.091   8.286
79963SOL    HW141786   5.859   9.143   8.253
79963SOL    HW241787   5.825   9.015   8.328
79964SOL     OW41788  10.380   5.289   4.420
79964SOL    HW141789  10.295   5.300   4.461
79964SOL    HW241790  10.365   5.230   4.346
79965SOL     OW41791  11.174   0.134  10.560
79965SOL    HW141792  11.243   0.199  10.545
79965SOL    HW241793  11.140   0.115  10.473
79966SOL     OW41794   9.098   8.413  12.874
79966SOL    HW141795   9.138   8.410  12.961
79966SOL    HW241796   9.159   8.365  12.818
79967SOL     OW41797  10.365  10.302   0.610
79967SOL    HW141798  10.448  10.348   0.603
79967SOL    HW241799  10.309  10.344   0.544
79968SOL     OW41800   2.418   8.362   5.574
79968SOL    HW141801   2.425   8.457   5.573
79968SOL    HW241802   2.505   8.332   5.600
79969SOL     OW41803   1.068   4.996   1.077
79969SOL    HW141804   1.033   5.030   1.159
79969SOL    HW241805   1.114   5.070   1.037
79970SOL     OW41806   7.586  13.783   3.387
79970SOL    HW141807   7.605  13.780   3.481
79970SOL    HW241808   7.574  13.876   3.369
79971SOL     OW41809  10.245  11.981  12.736
79971SOL    HW141810  10.284  12.028  12.809
79971SOL    HW241811  10.318  11.934  12.695
79972SOL     OW41812   4.312   1.858   2.843
79972SOL    HW141813   4.400   1.880   2.873
79972SOL    HW241814   4.261   1.848   2.923
79973SOL     OW41815   1.643   0.316   7.701
79973SOL    HW141816   1.656   0.403   7.662
79973SOL    HW241817   1.633   0.258   7.626
79974SOL     OW41818   8.771  11.273   4.773
79974SOL    HW141819   8.774  11.178   4.763
79974SOL    HW241820   8.780  11.287   4.867
79975SOL     OW41821   8.276   0.112   8.002
79975SOL    HW141822   8.305   0.081   7.916
79975SOL    HW241823   8.217   0.185   7.983
79976SOL     OW41824  12.807   2.139   2.827
79976SOL    HW141825  12.897   2.131   2.794
79976SOL    HW241826  12.817   2.148   2.922
79977SOL     OW41827   2.537  11.935  11.617
79977SOL    HW141828   2.475  11.979  11.674
79977SOL    HW241829   2.540  11.845  11.649
79978SOL     OW41830   2.491   2.920   4.635
79978SOL    HW141831   2.487   2.891   4.726
79978SOL    HW241832   2.399   2.937   4.612
79979SOL     OW41833   6.592   1.516   9.189
79979SOL    HW141834   6.571   1.478   9.274
79979SOL    HW241835   6.507   1.529   9.146
79980SOL     OW41836   4.120  13.190  10.927
79980SOL    HW141837   4.126  13.225  11.016
79980SOL    HW241838   4.043  13.133  10.929
79981SOL     OW41839  14.424   7.561   8.266
79981SOL    HW141840  14.342   7.528   8.230
79981SOL    HW241841  14.400   7.601   8.350
79982SOL     OW41842  14.171   7.797   7.767
79982SOL    HW141843  14.260   7.806   7.799
79982SOL    HW241844  14.124   7.872   7.804
79983SOL     OW41845   1.944   0.986   9.497
79983SOL    HW141846   2.002   1.029   9.560
79983SOL    HW241847   1.871   0.954   9.549
79984SOL     OW41848  13.016  13.706   0.153
79984SOL    HW141849  13.057  13.671   0.074
79984SOL    HW241850  12.927  13.728   0.126
79985SOL     OW41851  10.868   7.963   6.398
79985SOL    HW141852  10.954   7.955   6.439
79985SOL    HW241853  10.863   7.888   6.338
79986SOL     OW41854  11.192   9.892  10.436
79986SOL    HW141855  11.261   9.940  10.480
79986SOL    HW241856  11.121   9.955  10.424
79987SOL     OW41857  13.915   1.734  14.590
79987SOL    HW141858  13.928   1.829  14.595
79987SOL    HW241859  13.926   1.703  14.679
79988SOL     OW41860   9.578   7.397   1.950
79988SOL    HW141861   9.572   7.345   2.029
79988SOL    HW241862   9.595   7.334   1.880
79989SOL     OW41863   8.828   9.594   1.509
79989SOL    HW141864   8.753   9.623   1.457
79989SOL    HW241865   8.814   9.500   1.520
79990SOL     OW41866   6.396   9.279  13.199
79990SOL    HW141867   6.340   9.279  13.121
79990SOL    HW241868   6.464   9.215  13.181
79991SOL     OW41869   0.188   4.138  10.330
79991SOL    HW141870   0.217   4.119  10.419
79991SOL    HW241871   0.228   4.223  10.309
79992SOL     OW41872   5.490   1.321   2.193
79992SOL    HW141873   5.527   1.239   2.161
79992SOL    HW241874   5.399   1.301   2.211
79993SOL     OW41875   4.644   9.835  13.337
79993SOL    HW141876   4.555   9.810  13.360
79993SOL    HW241877   4.698   9.762  13.367
79994SOL     OW41878  11.071   8.841   4.829
79994SOL    HW141879  10.989   8.845   4.780
79994SOL    HW241880  11.067   8.915   4.889
79995SOL     OW41881  13.295  13.808   4.097
79995SOL    HW141882  13.286  13.798   4.192
79995SOL    HW241883  13.206  13.819   4.065
79996SOL     OW41884   1.287  10.944   3.804
79996SOL    HW141885   1.207  10.920   3.850
79996SOL    HW241886   1.259  11.004   3.735
79997SOL     OW41887   3.078   3.817   6.312
79997SOL    HW141888   3.068   3.766   6.232
79997SOL    HW241889   3.093   3.907   6.281
79998SOL     OW41890  10.898  13.057   1.814
79998SOL    HW141891  10.911  12.964   1.796
79998SOL    HW241892  10.962  13.078   1.882
79999SOL     OW41893  10.107  12.059   9.166
79999SOL    HW141894  10.031  12.056   9.224
79999SOL    HW241895  10.078  12.017   9.085
80000SOL     OW41896   8.432   1.269   1.746
80000SOL    HW141897   8.431   1.179   1.714
80000SOL    HW241898   8.478   1.319   1.679
80001SOL     OW41899   9.507  12.466   1.007
80001SOL    HW141900   9.599  12.478   1.029
80001SOL    HW241901   9.493  12.372   1.008
80002SOL     OW41902  10.563   3.571  13.048
80002SOL    HW141903  10.500   3.607  13.111
80002SOL    HW241904  10.643   3.621  13.063
80003SOL     OW41905   0.320  11.347   0.228
80003SOL    HW141906   0.279  11.281   0.171
80003SOL    HW241907   0.400  11.372   0.182
80004SOL     OW41908  10.104   1.663  10.007
80004SOL    HW141909  10.102   1.602  10.081
80004SOL    HW241910  10.086   1.748  10.046
80005SOL     OW41911   8.782   4.023   2.363
80005SOL    HW141912   8.761   4.099   2.310
80005SOL    HW241913   8.702   3.971   2.364
80006SOL     OW41914   3.064  11.419  11.480
80006SOL    HW141915   3.060  11.483  11.551
80006SOL    HW241916   3.155  11.422  11.450
80007SOL     OW41917   5.596   8.740   1.017
80007SOL    HW141918   5.568   8.825   0.985
80007SOL    HW241919   5.528   8.714   1.079
80008SOL     OW41920   4.157   8.065  12.814
80008SOL    HW141921   4.168   8.000  12.745
80008SOL    HW241922   4.096   8.024  12.876
80009SOL     OW41923  14.060   7.078   8.958
80009SOL    HW141924  14.043   7.160   8.911
80009SOL    HW241925  14.152   7.058   8.937
80010SOL     OW41926   6.082  10.919   7.700
80010SOL    HW141927   6.149  10.855   7.723
80010SOL    HW241928   6.069  10.908   7.606
80011SOL     OW41929   4.048   6.265  13.577
80011SOL    HW141930   4.057   6.228  13.664
80011SOL    HW241931   4.137   6.264  13.541
80012SOL     OW41932  14.575   6.579  10.465
80012SOL    HW141933  14.659   6.625  10.462
80012SOL    HW241934  14.576   6.520  10.390
80013SOL     OW41935  12.011   1.447   1.338
80013SOL    HW141936  11.943   1.381   1.347
80013SOL    HW241937  12.054   1.449   1.424
80014SOL     OW41938  10.459  12.527  14.601
80014SOL    HW141939  10.403  12.597  14.635
80014SOL    HW241940  10.398  12.460  14.572
80015SOL     OW41941  10.280  10.997  14.541
80015SOL    HW141942  10.303  11.032  14.455
80015SOL    HW241943  10.187  11.017  14.552
80016SOL     OW41944   6.457   8.424   4.124
80016SOL    HW141945   6.468   8.329   4.129
80016SOL    HW241946   6.540   8.460   4.156
80017SOL     OW41947  14.297   3.411   8.806
80017SOL    HW141948  14.265   3.413   8.896
80017SOL    HW241949  14.263   3.491   8.765
80018SOL     OW41950   6.624   7.211   8.218
80018SOL    HW141951   6.559   7.258   8.166
80018SOL    HW241952   6.642   7.132   8.166
80019SOL     OW41953   8.805   0.720  10.204
80019SOL    HW141954   8.715   0.686  10.206
80019SOL    HW241955   8.860   0.643  10.216
80020SOL     OW41956  10.140  14.735   2.255
80020SOL    HW141957  10.107  14.664   2.310
80020SOL    HW241958  10.226  14.756   2.292
80021SOL     OW41959  12.695  11.100  11.077
80021SOL    HW141960  12.700  11.009  11.106
80021SOL    HW241961  12.610  11.131  11.107
80022SOL     OW41962  10.772  11.100   5.532
80022SOL    HW141963  10.811  11.182   5.504
80022SOL    HW241964  10.714  11.075   5.459
80023SOL     OW41965   5.483   5.116   6.594
80023SOL    HW141966   5.450   5.147   6.678
80023SOL    HW241967   5.475   5.191   6.535
80024SOL     OW41968  14.407   8.319   1.509
80024SOL    HW141969  14.379   8.245   1.563
80024SOL    HW241970  14.328   8.371   1.498
80025SOL     OW41971   5.381   9.232  13.437
80025SOL    HW141972   5.392   9.211  13.529
80025SOL    HW241973   5.440   9.172  13.391
80026SOL     OW41974   4.882  11.050   1.500
80026SOL    HW141975   4.830  10.971   1.514
80026SOL    HW241976   4.819  11.117   1.474
80027SOL     OW41977   1.682  10.878  14.595
80027SOL    HW141978   1.728  10.962  14.601
80027SOL    HW241979   1.649  10.875  14.505
80028SOL     OW41980   0.741   2.844   0.124
80028SOL    HW141981   0.653   2.847   0.163
80028SOL    HW241982   0.726   2.858   0.030
80029SOL     OW41983  11.958  11.642   6.349
80029SOL    HW141984  12.008  11.724   6.350
80029SOL    HW241985  11.976  11.603   6.435
80030SOL     OW41986   9.503   8.630   3.510
80030SOL    HW141987   9.571   8.658   3.571
80030SOL    HW241988   9.442   8.704   3.507
80031SOL     OW41989   4.308  11.948   3.153
80031SOL    HW141990   4.340  11.981   3.069
80031SOL    HW241991   4.358  11.868   3.168
80032SOL     OW41992   8.431  11.245   4.109
80032SOL    HW141993   8.446  11.242   4.014
80032SOL    HW241994   8.343  11.210   4.120
80033SOL     OW41995   8.431  12.568   3.635
80033SOL    HW141996   8.400  12.632   3.572
80033SOL    HW241997   8.499  12.614   3.685
80034SOL     OW41998   2.577   1.325   1.486
80034SOL    HW141999   2.659   1.296   1.447
80034SOL    HW242000   2.540   1.245   1.524
80035SOL     OW42001  10.416  10.092   6.264
80035SOL    HW142002  10.362  10.017   6.241
80035SOL    HW242003  10.481  10.097   6.193
80036SOL     OW42004   3.306   3.824   5.448
80036SOL    HW142005   3.356   3.788   5.521
80036SOL    HW242006   3.215   3.804   5.469
80037SOL     OW42007  11.062  11.375   9.500
80037SOL    HW142008  11.078  11.325   9.580
80037SOL    HW242009  11.017  11.454   9.529
80038SOL     OW42010   4.294   9.610  10.736
80038SOL    HW142011   4.268   9.681  10.795
80038SOL    HW242012   4.223   9.604  10.672
80039SOL     OW42013   7.947  11.107   6.492
80039SOL    HW142014   8.041  11.112   6.509
80039SOL    HW242015   7.920  11.023   6.530
80040SOL     OW42016   1.915   4.981  12.893
80040SOL    HW142017   1.911   4.903  12.838
80040SOL    HW242018   1.827   4.988  12.930
80041SOL     OW42019   0.127   9.851  14.686
80041SOL    HW142020   0.143   9.838  14.780
80041SOL    HW242021   0.177   9.781  14.644
80042SOL     OW42022   2.178   1.021  13.823
80042SOL    HW142023   2.112   1.086  13.800
80042SOL    HW242024   2.247   1.032  13.758
80043SOL     OW42025  12.001   1.462   1.654
80043SOL    HW142026  11.948   1.540   1.667
80043SOL    HW242027  11.967   1.399   1.717
80044SOL     OW42028   1.044   7.784   0.423
80044SOL    HW142029   1.060   7.874   0.394
80044SOL    HW242030   1.026   7.792   0.516
80045SOL     OW42031   4.753   3.442  12.439
80045SOL    HW142032   4.724   3.390  12.364
80045SOL    HW242033   4.673   3.482  12.473
80046SOL     OW42034   0.338   2.959   9.021
80046SOL    HW142035   0.291   3.042   9.024
80046SOL    HW242036   0.431   2.984   9.024
80047SOL     OW42037  13.100  14.031   3.990
80047SOL    HW142038  13.067  14.088   4.060
80047SOL    HW242039  13.064  13.945   4.010
80048SOL     OW42040   5.695   7.720  10.246
80048SOL    HW142041   5.766   7.683  10.194
80048SOL    HW242042   5.670   7.800  10.200
80049SOL     OW42043   7.229   2.220  12.319
80049SOL    HW142044   7.147   2.262  12.346
80049SOL    HW242045   7.208   2.177  12.236
80050SOL     OW42046  11.684   4.760  11.304
80050SOL    HW142047  11.741   4.683  11.304
80050SOL    HW242048  11.715   4.812  11.378
80051SOL     OW42049   5.036  14.311   8.809
80051SOL    HW142050   4.987  14.289   8.729
80051SOL    HW242051   4.976  14.288   8.880
80052SOL     OW42052   5.428   8.161   8.615
80052SOL    HW142053   5.429   8.237   8.674
80052SOL    HW242054   5.520   8.138   8.604
80053SOL     OW42055   1.485   6.893   2.927
80053SOL    HW142056   1.564   6.873   2.878
80053SOL    HW242057   1.496   6.846   3.010
80054SOL     OW42058   3.857  13.938  13.855
80054SOL    HW142059   3.862  13.850  13.892
80054SOL    HW242060   3.766  13.964  13.870
80055SOL     OW42061   2.996  10.110   3.945
80055SOL    HW142062   2.933  10.107   4.017
80055SOL    HW242063   3.013  10.018   3.925
80056SOL     OW42064  11.730  12.482  14.853
80056SOL    HW142065  11.647  12.527  14.838
80056SOL    HW242066  11.795  12.553  14.857
80057SOL     OW42067  10.587   8.384  14.704
80057SOL    HW142068  10.650   8.313  14.720
80057SOL    HW242069  10.641   8.458  14.675
80058SOL     OW42070  14.769   5.886   7.583
80058SOL    HW142071  14.851   5.934   7.578
80058SOL    HW242072  14.792   5.802   7.623
80059SOL     OW42073  11.039   1.651  14.688
80059SOL    HW142074  11.120   1.693  14.658
80059SOL    HW242075  10.990   1.721  14.731
80060SOL     OW42076   2.074   5.621   6.798
80060SOL    HW142077   2.101   5.710   6.821
80060SOL    HW242078   2.062   5.624   6.703
80061SOL     OW42079   3.761   1.967  12.564
80061SOL    HW142080   3.795   1.928  12.645
80061SOL    HW242081   3.686   1.913  12.540
80062SOL     OW42082   3.406  10.483   6.586
80062SOL    HW142083   3.395  10.390   6.607
80062SOL    HW242084   3.460  10.518   6.657
80063SOL     OW42085  13.188   3.394   3.409
80063SOL    HW142086  13.248   3.429   3.342
80063SOL    HW242087  13.231   3.315   3.441
80064SOL     OW42088   3.774   2.083   1.556
80064SOL    HW142089   3.744   2.102   1.645
80064SOL    HW242090   3.727   2.145   1.500
80065SOL     OW42091   1.315  10.069   0.776
80065SOL    HW142092   1.254  10.138   0.748
80065SOL    HW242093   1.395  10.087   0.728
80066SOL     OW42094   8.045  14.764  10.244
80066SOL    HW142095   7.999  14.749  10.162
80066SOL    HW242096   8.088  14.849  10.233
80067SOL     OW42097   7.265   3.664   9.608
80067SOL    HW142098   7.282   3.688   9.517
80067SOL    HW242099   7.342   3.615   9.635
80068SOL     OW42100  13.542  12.148  11.224
80068SOL    HW142101  13.467  12.134  11.281
80068SOL    HW242102  13.555  12.243  11.225
80069SOL     OW42103   1.921   1.912   6.065
80069SOL    HW142104   1.848   1.856   6.090
80069SOL    HW242105   1.924   1.906   5.970
80070SOL     OW42106  10.288  10.253   8.695
80070SOL    HW142107  10.358  10.318   8.706
80070SOL    HW242108  10.211  10.294   8.732
80071SOL     OW42109  10.341   3.534   1.714
80071SOL    HW142110  10.252   3.569   1.707
80071SOL    HW242111  10.332   3.442   1.687
80072SOL     OW42112   6.614   2.894   9.459
80072SOL    HW142113   6.598   2.891   9.365
80072SOL    HW242114   6.546   2.837   9.496
80073SOL     OW42115  10.555   6.190   8.974
80073SOL    HW142116  10.611   6.114   8.958
80073SOL    HW242117  10.508   6.168   9.054
80074SOL     OW42118   8.257   6.670  11.192
80074SOL    HW142119   8.299   6.600  11.242
80074SOL    HW242120   8.323   6.740  11.189
80075SOL     OW42121  14.752   4.147   5.658
80075SOL    HW142122  14.691   4.073   5.650
80075SOL    HW242123  14.769   4.154   5.752
80076SOL     OW42124   7.865  14.056   2.456
80076SOL    HW142125   7.776  14.082   2.433
80076SOL    HW242126   7.904  14.026   2.374
80077SOL     OW42127  11.871   3.817   4.911
80077SOL    HW142128  11.861   3.910   4.935
80077SOL    HW242129  11.890   3.819   4.817
80078SOL     OW42130   2.629  11.898   8.054
80078SOL    HW142131   2.619  11.848   8.135
80078SOL    HW242132   2.575  11.976   8.067
80079SOL     OW42133   3.326   3.421  12.672
80079SOL    HW142134   3.238   3.460  12.680
80079SOL    HW242135   3.348   3.394  12.761
80080SOL     OW42136  13.866  12.747   8.963
80080SOL    HW142137  13.830  12.823   8.917
80080SOL    HW242138  13.925  12.707   8.899
80081SOL     OW42139   1.805   4.811   1.449
80081SOL    HW142140   1.800   4.784   1.541
80081SOL    HW242141   1.754   4.892   1.446
80082SOL     OW42142   1.328   3.257  13.693
80082SOL    HW142143   1.373   3.179  13.726
80082SOL    HW242144   1.370   3.330  13.737
80083SOL     OW42145   1.590   2.125   4.511
80083SOL    HW142146   1.630   2.166   4.434
80083SOL    HW242147   1.553   2.043   4.479
80084SOL     OW42148  10.479  11.127  10.195
80084SOL    HW142149  10.385  11.115  10.184
80084SOL    HW242150  10.518  11.051  10.153
80085SOL     OW42151  13.727   4.289   6.970
80085SOL    HW142152  13.761   4.206   7.001
80085SOL    HW242153  13.804   4.336   6.937
80086SOL     OW42154   7.531   3.080   3.803
80086SOL    HW142155   7.472   3.093   3.877
80086SOL    HW242156   7.533   2.985   3.790
80087SOL     OW42157   4.442   3.480  12.581
80087SOL    HW142158   4.458   3.482  12.676
80087SOL    HW242159   4.363   3.534  12.570
80088SOL     OW42160   4.464   8.117   7.229
80088SOL    HW142161   4.532   8.182   7.249
80088SOL    HW242162   4.512   8.035   7.216
80089SOL     OW42163   0.760   5.072  12.189
80089SOL    HW142164   0.808   5.152  12.166
80089SOL    HW242165   0.743   5.080  12.283
80090SOL     OW42166   6.537   6.726   7.306
80090SOL    HW142167   6.604   6.784   7.340
80090SOL    HW242168   6.488   6.698   7.383
80091SOL     OW42169   1.138   5.859  13.401
80091SOL    HW142170   1.095   5.882  13.483
80091SOL    HW242171   1.102   5.773  13.378
80092SOL     OW42172  12.578   6.775   2.030
80092SOL    HW142173  12.583   6.869   2.015
80092SOL    HW242174  12.523   6.766   2.108
80093SOL     OW42175   5.172   2.875   9.619
80093SOL    HW142176   5.224   2.931   9.561
80093SOL    HW242177   5.173   2.921   9.703
80094SOL     OW42178   2.307   3.323   4.139
80094SOL    HW142179   2.330   3.245   4.188
80094SOL    HW242180   2.339   3.396   4.192
80095SOL     OW42181  13.547  13.769   2.377
80095SOL    HW142182  13.453  13.778   2.363
80095SOL    HW242183  13.573  13.696   2.322
80096SOL     OW42184   6.579   7.334   2.022
80096SOL    HW142185   6.497   7.366   1.985
80096SOL    HW242186   6.556   7.303   2.109
80097SOL     OW42187   4.275  10.720   5.393
80097SOL    HW142188   4.331  10.658   5.346
80097SOL    HW242189   4.336  10.784   5.430
80098SOL     OW42190  10.190   2.250  11.087
80098SOL    HW142191  10.099   2.220  11.093
80098SOL    HW242192  10.214   2.236  10.995
80099SOL     OW42193   4.781   0.731   6.504
80099SOL    HW142194   4.764   0.685   6.586
80099SOL    HW242195   4.695   0.765   6.478
80100SOL     OW42196   8.297  12.723   1.848
80100SOL    HW142197   8.246  12.799   1.875
80100SOL    HW242198   8.256  12.649   1.894
80101SOL     OW42199   9.351   4.218   6.677
80101SOL    HW142200   9.359   4.309   6.704
80101SOL    HW242201   9.397   4.169   6.745
80102SOL     OW42202   8.980  12.808   6.455
80102SOL    HW142203   8.932  12.813   6.538
80102SOL    HW242204   9.067  12.843   6.474
80103SOL     OW42205   0.586   8.095   4.852
80103SOL    HW142206   0.536   8.151   4.793
80103SOL    HW242207   0.618   8.025   4.796
80104SOL     OW42208  11.716   0.592  10.329
80104SOL    HW142209  11.743   0.638  10.250
80104SOL    HW242210  11.627   0.562  10.311
80105SOL     OW42211   9.473  13.976  14.386
80105SOL    HW142212   9.494  13.908  14.322
80105SOL    HW242213   9.391  13.947  14.426
80106SOL     OW42214  14.603   4.745  11.008
80106SOL    HW142215  14.684   4.713  10.968
80106SOL    HW242216  14.608   4.718  11.099
80107SOL     OW42217   2.791   9.164   9.817
80107SOL    HW142218   2.801   9.255   9.789
80107SOL    HW242219   2.880   9.132   9.826
80108SOL     OW42220   1.017  12.229   2.385
80108SOL    HW142221   1.101  12.264   2.414
80108SOL    HW242222   1.034  12.137   2.367
80109SOL     OW42223  12.148   7.116   9.784
80109SOL    HW142224  12.128   7.199   9.741
80109SOL    HW242225  12.077   7.104   9.847
80110SOL     OW42226   2.241   9.273   7.165
80110SOL    HW142227   2.330   9.308   7.177
80110SOL    HW242228   2.252   9.178   7.169
80111SOL     OW42229   1.639  11.540   0.823
80111SOL    HW142230   1.639  11.496   0.737
80111SOL    HW242231   1.714  11.502   0.869
80112SOL     OW42232   6.246   2.100   2.922
80112SOL    HW142233   6.199   2.119   3.003
80112SOL    HW242234   6.260   2.186   2.881
80113SOL     OW42235   4.440   5.664  12.052
80113SOL    HW142236   4.381   5.610  12.105
80113SOL    HW242237   4.467   5.607  11.980
80114SOL     OW42238  12.895  14.240   5.995
80114SOL    HW142239  12.863  14.213   6.080
80114SOL    HW242240  12.991  14.239   6.003
80115SOL     OW42241   4.341   7.816   2.618
80115SOL    HW142242   4.407   7.760   2.659
80115SOL    HW242243   4.388   7.860   2.547
80116SOL     OW42244   0.580   8.715   1.354
80116SOL    HW142245   0.605   8.648   1.417
80116SOL    HW242246   0.540   8.667   1.282
80117SOL     OW42247   9.862  12.631  10.657
80117SOL    HW142248   9.871  12.717  10.615
80117SOL    HW242249   9.789  12.590  10.611
80118SOL     OW42250   6.527  13.257  11.310
80118SOL    HW142251   6.502  13.176  11.264
80118SOL    HW242252   6.470  13.261  11.386
80119SOL     OW42253   2.768   7.938   1.574
80119SOL    HW142254   2.854   7.979   1.581
80119SOL    HW242255   2.725   7.984   1.502
80120SOL     OW42256   1.970   3.362  12.915
80120SOL    HW142257   1.898   3.423  12.923
80120SOL    HW242258   2.042   3.414  12.879
80121SOL     OW42259   0.680   2.725  13.023
80121SOL    HW142260   0.672   2.819  13.039
80121SOL    HW242261   0.671   2.716  12.928
80122SOL     OW42262   2.552   6.002   4.863
80122SOL    HW142263   2.544   6.098   4.860
80122SOL    HW242264   2.466   5.970   4.838
80123SOL     OW42265  10.872   5.294   9.699
80123SOL    HW142266  10.944   5.239   9.731
80123SOL    HW242267  10.829   5.325   9.779
80124SOL     OW42268   5.560   6.450   4.124
80124SOL    HW142269   5.613   6.524   4.096
80124SOL    HW242270   5.573   6.445   4.218
80125SOL     OW42271  10.926   1.504   8.863
80125SOL    HW142272  10.853   1.550   8.905
80125SOL    HW242273  10.892   1.476   8.778
80126SOL     OW42274   4.563   4.647  11.012
80126SOL    HW142275   4.619   4.716  11.050
80126SOL    HW242276   4.525   4.687  10.934
80127SOL     OW42277   0.361   2.778  10.165
80127SOL    HW142278   0.266   2.780  10.172
80127SOL    HW242279   0.379   2.803  10.074
80128SOL     OW42280   2.950   2.078  14.717
80128SOL    HW142281   2.926   2.155  14.666
80128SOL    HW242282   3.041   2.060  14.692
80129SOL     OW42283   0.111   7.818   4.015
80129SOL    HW142284   0.103   7.753   3.946
80129SOL    HW242285   0.021   7.833   4.045
80130SOL     OW42286  11.965   0.579   7.541
80130SOL    HW142287  11.885   0.552   7.497
80130SOL    HW242288  11.983   0.667   7.509
80131SOL     OW42289  14.752   9.256   4.649
80131SOL    HW142290  14.667   9.212   4.647
80131SOL    HW242291  14.744   9.327   4.585
80132SOL     OW42292  11.979  13.702   1.495
80132SOL    HW142293  11.955  13.701   1.403
80132SOL    HW242294  12.052  13.640   1.502
80133SOL     OW42295   5.470   7.407  13.564
80133SOL    HW142296   5.485   7.480  13.504
80133SOL    HW242297   5.393   7.362  13.529
80134SOL     OW42298   7.606   5.493  12.396
80134SOL    HW142299   7.625   5.444  12.476
80134SOL    HW242300   7.528   5.545  12.417
80135SOL     OW42301   7.694   2.459   8.669
80135SOL    HW142302   7.679   2.553   8.662
80135SOL    HW242303   7.714   2.431   8.579
80136SOL     OW42304   0.215  12.366  11.911
80136SOL    HW142305   0.262  12.399  11.988
80136SOL    HW242306   0.134  12.417  11.910
80137SOL     OW42307   0.417  12.864   5.034
80137SOL    HW142308   0.379  12.794   5.087
80137SOL    HW242309   0.411  12.832   4.944
80138SOL     OW42310   3.510   3.816   3.142
80138SOL    HW142311   3.529   3.884   3.207
80138SOL    HW242312   3.570   3.745   3.163
80139SOL     OW42313  13.975   4.512   6.129
80139SOL    HW142314  13.895   4.497   6.180
80139SOL    HW242315  13.945   4.522   6.039
80140SOL     OW42316   5.449   0.726   0.037
80140SOL    HW142317   5.404   0.802  14.868
80140SOL    HW242318   5.520   0.708  14.844
80141SOL     OW42319  13.590  13.458  11.883
80141SOL    HW142320  13.667  13.465  11.940
80141SOL    HW242321  13.515  13.469  11.942
80142SOL     OW42322  13.679   7.932   9.076
80142SOL    HW142323  13.597   7.970   9.045
80142SOL    HW242324  13.659   7.901   9.164
80143SOL     OW42325   8.984   8.818  10.865
80143SOL    HW142326   9.014   8.821  10.956
80143SOL    HW242327   9.064   8.829  10.814
80144SOL     OW42328   1.136   9.493   2.533
80144SOL    HW142329   1.143   9.541   2.615
80144SOL    HW242330   1.135   9.401   2.558
80145SOL     OW42331  13.998   3.967   0.023
80145SOL    HW142332  14.003   4.050  14.843
80145SOL    HW242333  14.019   3.900  14.826
80146SOL     OW42334   0.551  10.475   5.865
80146SOL    HW142335   0.509  10.395   5.896
80146SOL    HW242336   0.608  10.502   5.937
80147SOL     OW42337  12.597   4.956  11.196
80147SOL    HW142338  12.576   4.946  11.289
80147SOL    HW242339  12.515   4.985  11.156
80148SOL     OW42340   7.705   6.479   0.522
80148SOL    HW142341   7.633   6.541   0.525
80148SOL    HW242342   7.666   6.397   0.494
80149SOL     OW42343   7.812   7.544  11.136
80149SOL    HW142344   7.764   7.503  11.064
80149SOL    HW242345   7.780   7.634  11.137
80150SOL     OW42346  13.773   4.682   6.702
80150SOL    HW142347  13.701   4.669   6.641
80150SOL    HW242348  13.741   4.646   6.785
80151SOL     OW42349   3.061   8.431   4.536
80151SOL    HW142350   3.129   8.373   4.502
80151SOL    HW242351   2.979   8.390   4.508
80152SOL     OW42352   8.827   3.240   0.544
80152SOL    HW142353   8.747   3.263   0.497
80152SOL    HW242354   8.886   3.207   0.476
80153SOL     OW42355  14.303   8.292   1.793
80153SOL    HW142356  14.256   8.209   1.795
80153SOL    HW242357  14.237   8.358   1.813
80154SOL     OW42358  11.960   3.844  11.899
80154SOL    HW142359  11.969   3.923  11.952
80154SOL    HW242360  12.031   3.787  11.928
80155SOL     OW42361   4.229   4.572   7.025
80155SOL    HW142362   4.161   4.520   6.983
80155SOL    HW242363   4.293   4.589   6.956
80156SOL     OW42364  11.430  14.505  12.238
80156SOL    HW142365  11.373  14.563  12.288
80156SOL    HW242366  11.377  14.426  12.224
80157SOL     OW42367  10.496   8.728   5.117
80157SOL    HW142368  10.531   8.801   5.168
80157SOL    HW242369  10.460   8.668   5.183
80158SOL     OW42370  13.597   2.487   0.425
80158SOL    HW142371  13.674   2.500   0.480
80158SOL    HW242372  13.630   2.444   0.346
80159SOL     OW42373   3.907   5.095   4.417
80159SOL    HW142374   3.964   5.170   4.435
80159SOL    HW242375   3.821   5.123   4.449
80160SOL     OW42376   6.580   2.050  12.645
80160SOL    HW142377   6.624   2.076  12.726
80160SOL    HW242378   6.614   1.962  12.627
80161SOL     OW42379  14.678   5.679   8.790
80161SOL    HW142380  14.646   5.692   8.879
80161SOL    HW242381  14.607   5.633   8.745
80162SOL     OW42382  10.611   7.425   8.253
80162SOL    HW142383  10.534   7.446   8.306
80162SOL    HW242384  10.648   7.347   8.294
80163SOL     OW42385   4.273  14.403   6.160
80163SOL    HW142386   4.178  14.413   6.162
80163SOL    HW242387   4.288  14.317   6.121
80164SOL     OW42388   9.110  13.021   7.268
80164SOL    HW142389   9.189  13.007   7.215
80164SOL    HW242390   9.139  13.009   7.358
80165SOL     OW42391   2.741  14.508  14.839
80165SOL    HW142392   2.780  14.498  14.752
80165SOL    HW242393   2.674  14.575  14.828
80166SOL     OW42394   2.046   0.456   3.034
80166SOL    HW142395   2.107   0.484   2.966
80166SOL    HW242396   1.995   0.535   3.055
80167SOL     OW42397   3.808   6.980   4.459
80167SOL    HW142398   3.793   6.916   4.389
80167SOL    HW242399   3.803   7.065   4.415
80168SOL     OW42400  10.555   2.998   4.193
80168SOL    HW142401  10.524   2.985   4.283
80168SOL    HW242402  10.649   3.012   4.202
80169SOL     OW42403   4.802  14.400  14.829
80169SOL    HW142404   4.880  14.381  14.778
80169SOL    HW242405   4.733  14.413  14.764
80170SOL     OW42406   0.926   1.642   1.331
80170SOL    HW142407   0.992   1.632   1.399
80170SOL    HW242408   0.906   1.552   1.304
80171SOL     OW42409   2.177   0.669   7.164
80171SOL    HW142410   2.094   0.631   7.193
80171SOL    HW242411   2.244   0.615   7.207
80172SOL     OW42412   1.684  10.505   8.032
80172SOL    HW142413   1.601  10.526   7.991
80172SOL    HW242414   1.742  10.578   8.009
80173SOL     OW42415   9.378  10.790   6.777
80173SOL    HW142416   9.393  10.701   6.811
80173SOL    HW242417   9.430  10.847   6.834
80174SOL     OW42418   2.909   1.017   3.806
80174SOL    HW142419   2.833   1.076   3.800
80174SOL    HW242420   2.871   0.931   3.824
80175SOL     OW42421   8.154   8.271   0.525
80175SOL    HW142422   8.094   8.282   0.598
80175SOL    HW242423   8.149   8.354   0.476
80176SOL     OW42424  10.349   2.396   4.985
80176SOL    HW142425  10.264   2.422   5.019
80176SOL    HW242426  10.393   2.478   4.963
80177SOL     OW42427   6.387  11.583   7.683
80177SOL    HW142428   6.374  11.543   7.769
80177SOL    HW242429   6.303  11.570   7.638
80178SOL     OW42430  13.234   6.773  14.182
80178SOL    HW142431  13.290   6.732  14.116
80178SOL    HW242432  13.145   6.748  14.157
80179SOL     OW42433   5.398   8.115   8.044
80179SOL    HW142434   5.493   8.102   8.054
80179SOL    HW242435   5.369   8.144   8.130
80180SOL     OW42436  12.414  10.253   3.608
80180SOL    HW142437  12.475  10.277   3.538
80180SOL    HW242438  12.470  10.246   3.686
80181SOL     OW42439   4.580  10.963  12.550
80181SOL    HW142440   4.549  10.885  12.596
80181SOL    HW242441   4.675  10.950  12.542
80182SOL     OW42442  13.551   7.549   1.071
80182SOL    HW142443  13.517   7.591   0.992
80182SOL    HW242444  13.585   7.621   1.124
80183SOL     OW42445   7.336  14.491   2.030
80183SOL    HW142446   7.325  14.545   1.952
80183SOL    HW242447   7.428  14.463   2.028
80184SOL     OW42448   0.725   9.985   4.940
80184SOL    HW142449   0.757  10.018   5.024
80184SOL    HW242450   0.791  10.013   4.877
80185SOL     OW42451   4.576   8.397   7.161
80185SOL    HW142452   4.627   8.370   7.237
80185SOL    HW242453   4.513   8.461   7.195
80186SOL     OW42454   0.318  14.658   5.387
80186SOL    HW142455   0.382  14.654   5.458
80186SOL    HW242456   0.356  14.606   5.316
80187SOL     OW42457   2.373   7.569  11.357
80187SOL    HW142458   2.462   7.597  11.379
80187SOL    HW242459   2.317   7.639  11.389
80188SOL     OW42460   6.186  11.270   2.738
80188SOL    HW142461   6.208  11.177   2.749
80188SOL    HW242462   6.126  11.271   2.663
80189SOL     OW42463   4.295   8.701   2.616
80189SOL    HW142464   4.238   8.643   2.565
80189SOL    HW242465   4.344   8.643   2.674
80190SOL     OW42466  11.164  13.658  11.221
80190SOL    HW142467  11.146  13.705  11.303
80190SOL    HW242468  11.179  13.568  11.248
80191SOL     OW42469   2.664   6.716   3.541
80191SOL    HW142470   2.696   6.725   3.451
80191SOL    HW242471   2.645   6.623   3.550
80192SOL     OW42472   3.241   9.457  14.709
80192SOL    HW142473   3.301   9.465  14.635
80192SOL    HW242474   3.221   9.363  14.712
80193SOL     OW42475   9.261  11.773   1.824
80193SOL    HW142476   9.209  11.771   1.743
80193SOL    HW242477   9.219  11.708   1.881
80194SOL     OW42478  10.373   3.724   9.234
80194SOL    HW142479  10.363   3.816   9.262
80194SOL    HW242480  10.458   3.698   9.269
80195SOL     OW42481  10.817  11.412   6.336
80195SOL    HW142482  10.856  11.378   6.255
80195SOL    HW242483  10.819  11.338   6.396
80196SOL     OW42484   7.384   5.530  13.915
80196SOL    HW142485   7.444   5.586  13.867
80196SOL    HW242486   7.306   5.585  13.929
80197SOL     OW42487  11.318   2.028   5.877
80197SOL    HW142488  11.321   2.080   5.796
80197SOL    HW242489  11.398   2.051   5.924
80198SOL     OW42490   0.950   4.429   9.969
80198SOL    HW142491   0.890   4.379   9.914
80198SOL    HW242492   0.981   4.500   9.912
80199SOL     OW42493   8.999   6.323  10.175
80199SOL    HW142494   9.052   6.289  10.103
80199SOL    HW242495   8.948   6.395  10.136
80200SOL     OW42496  10.057   4.397  12.052
80200SOL    HW142497  10.030   4.442  12.131
80200SOL    HW242498  10.152   4.405  12.051
80201SOL     OW42499   6.420  10.125   9.567
80201SOL    HW142500   6.326  10.112   9.553
80201SOL    HW242501   6.437  10.212   9.532
80202SOL     OW42502   4.863   6.845  13.250
80202SOL    HW142503   4.948   6.814  13.219
80202SOL    HW242504   4.809   6.850  13.172
80203SOL     OW42505  14.570  11.283   8.474
80203SOL    HW142506  14.570  11.263   8.380
80203SOL    HW242507  14.502  11.349   8.484
80204SOL     OW42508   8.141   3.479   3.523
80204SOL    HW142509   8.084   3.419   3.572
80204SOL    HW242510   8.087   3.556   3.508
80205SOL     OW42511   2.660   6.119   6.136
80205SOL    HW142512   2.644   6.181   6.207
80205SOL    HW242513   2.753   6.131   6.115
80206SOL     OW42514   4.634   8.377   2.715
80206SOL    HW142515   4.648   8.302   2.773
80206SOL    HW242516   4.718   8.422   2.714
80207SOL     OW42517  10.180   6.577  10.239
80207SOL    HW142518  10.161   6.642  10.307
80207SOL    HW242519  10.101   6.575  10.185
80208SOL     OW42520   7.089   2.882  11.994
80208SOL    HW142521   7.022   2.905  12.058
80208SOL    HW242522   7.072   2.791  11.972
80209SOL     OW42523  13.345  13.409   2.720
80209SOL    HW142524  13.412  13.468   2.687
80209SOL    HW242525  13.270  13.423   2.662
80210SOL     OW42526  11.582  14.217  14.468
80210SOL    HW142527  11.509  14.156  14.478
80210SOL    HW242528  11.660  14.162  14.469
80211SOL     OW42529   2.057   0.147   5.875
80211SOL    HW142530   2.086   0.124   5.787
80211SOL    HW242531   1.965   0.170   5.865
80212SOL     OW42532   6.479   7.964  14.579
80212SOL    HW142533   6.412   8.030  14.562
80212SOL    HW242534   6.431   7.881  14.581
80213SOL     OW42535   3.672   6.290   5.202
80213SOL    HW142536   3.755   6.326   5.171
80213SOL    HW242537   3.606   6.354   5.175
80214SOL     OW42538   6.950  12.028  14.784
80214SOL    HW142539   6.906  11.997  14.705
80214SOL    HW242540   6.880  12.041  14.847
80215SOL     OW42541  11.656   1.512   8.303
80215SOL    HW142542  11.722   1.483   8.239
80215SOL    HW242543  11.707   1.537   8.380
80216SOL     OW42544  11.124  12.582   9.439
80216SOL    HW142545  11.134  12.667   9.482
80216SOL    HW242546  11.165  12.520   9.500
80217SOL     OW42547   0.926  13.616   8.189
80217SOL    HW142548   0.872  13.674   8.134
80217SOL    HW242549   1.007  13.605   8.139
80218SOL     OW42550   2.299  14.010  11.511
80218SOL    HW142551   2.316  13.936  11.452
80218SOL    HW242552   2.204  14.008  11.525
80219SOL     OW42553   5.458  11.532   2.868
80219SOL    HW142554   5.375  11.521   2.823
80219SOL    HW242555   5.520  11.477   2.820
80220SOL     OW42556   9.110   9.587  10.536
80220SOL    HW142557   9.025   9.545  10.551
80220SOL    HW242558   9.089   9.664  10.484
80221SOL     OW42559   5.433   5.108   8.902
80221SOL    HW142560   5.349   5.081   8.939
80221SOL    HW242561   5.411   5.184   8.847
80222SOL     OW42562   4.131   0.769   0.562
80222SOL    HW142563   4.156   0.686   0.522
80222SOL    HW242564   4.071   0.809   0.499
80223SOL     OW42565   3.603   8.144   8.496
80223SOL    HW142566   3.669   8.154   8.565
80223SOL    HW242567   3.526   8.109   8.542
80224SOL     OW42568   3.222   1.963  10.799
80224SOL    HW142569   3.232   1.912  10.718
80224SOL    HW242570   3.129   1.959  10.819
80225SOL     OW42571   9.719   9.092   1.358
80225SOL    HW142572   9.652   9.035   1.396
80225SOL    HW242573   9.734   9.056   1.270
80226SOL     OW42574   6.018  10.267   3.196
80226SOL    HW142575   5.996  10.271   3.289
80226SOL    HW242576   5.935  10.250   3.152
80227SOL     OW42577  11.637   9.302  12.684
80227SOL    HW142578  11.699   9.375  12.675
80227SOL    HW242579  11.551   9.343  12.683
80228SOL     OW42580   5.597  12.975  10.491
80228SOL    HW142581   5.544  13.011  10.419
80228SOL    HW242582   5.606  12.882  10.470
80229SOL     OW42583   0.791   3.161   6.892
80229SOL    HW142584   0.870   3.182   6.842
80229SOL    HW242585   0.753   3.246   6.912
80230SOL     OW42586  11.882   9.960   2.558
80230SOL    HW142587  11.934   9.930   2.632
80230SOL    HW242588  11.936  10.027   2.516
80231SOL     OW42589   8.532   0.557   6.649
80231SOL    HW142590   8.627   0.552   6.655
80231SOL    HW242591   8.514   0.578   6.557
80232SOL     OW42592   3.147   2.836   4.892
80232SOL    HW142593   3.141   2.766   4.827
80232SOL    HW242594   3.176   2.912   4.841
80233SOL     OW42595  13.754   8.169   6.468
80233SOL    HW142596  13.777   8.109   6.539
80233SOL    HW242597  13.686   8.226   6.506
80234SOL     OW42598   3.405   3.330   2.201
80234SOL    HW142599   3.349   3.278   2.144
80234SOL    HW242600   3.482   3.275   2.217
80235SOL     OW42601   8.249  11.392   8.280
80235SOL    HW142602   8.321  11.455   8.275
80235SOL    HW242603   8.266  11.343   8.360
80236SOL     OW42604   5.254  12.300   1.708
80236SOL    HW142605   5.167  12.298   1.748
80236SOL    HW242606   5.263  12.389   1.674
80237SOL     OW42607   0.645  13.600   2.259
80237SOL    HW142608   0.587  13.667   2.225
80237SOL    HW242609   0.600  13.517   2.243
80238SOL     OW42610  12.727   1.986   5.749
80238SOL    HW142611  12.759   2.074   5.772
80238SOL    HW242612  12.769   1.966   5.665
80239SOL     OW42613   4.431   4.800   8.678
80239SOL    HW142614   4.398   4.873   8.626
80239SOL    HW242615   4.417   4.827   8.769
80240SOL     OW42616   0.874   0.588  10.976
80240SOL    HW142617   0.807   0.521  10.988
80240SOL    HW242618   0.928   0.555  10.904
80241SOL     OW42619   6.829   0.993   4.764
80241SOL    HW142620   6.843   1.059   4.696
80241SOL    HW242621   6.743   0.956   4.743
80242SOL     OW42622   8.224   1.131   9.838
80242SOL    HW142623   8.164   1.205   9.830
80242SOL    HW242624   8.198   1.088   9.920
80243SOL     OW42625   6.633   0.934  11.705
80243SOL    HW142626   6.668   0.957  11.619
80243SOL    HW242627   6.544   0.970  11.705
80244SOL     OW42628   8.881   6.499  12.681
80244SOL    HW142629   8.823   6.511  12.605
80244SOL    HW242630   8.937   6.577  12.680
80245SOL     OW42631   8.386   6.320   9.840
80245SOL    HW142632   8.340   6.362   9.767
80245SOL    HW242633   8.349   6.361   9.918
80246SOL     OW42634   6.497   5.139  10.354
80246SOL    HW142635   6.522   5.050  10.329
80246SOL    HW242636   6.469   5.180  10.273
80247SOL     OW42637   1.541   8.508   5.772
80247SOL    HW142638   1.558   8.545   5.858
80247SOL    HW242639   1.540   8.583   5.713
80248SOL     OW42640   4.511   3.951  13.575
80248SOL    HW142641   4.447   3.980  13.510
80248SOL    HW242642   4.534   4.030  13.623
80249SOL     OW42643   6.107   4.759  10.036
80249SOL    HW142644   6.053   4.742   9.959
80249SOL    HW242645   6.158   4.836  10.013
80250SOL     OW42646  14.827  13.116   8.996
80250SOL    HW142647   0.004  13.174   9.059
80250SOL    HW242648   0.012  13.121   8.917
80251SOL     OW42649   8.630  10.198   8.902
80251SOL    HW142650   8.583  10.254   8.840
80251SOL    HW242651   8.565  10.135   8.933
80252SOL     OW42652   8.540   1.430  10.714
80252SOL    HW142653   8.618   1.482  10.734
80252SOL    HW242654   8.472   1.495  10.695
80253SOL     OW42655  10.132   6.990   1.623
80253SOL    HW142656  10.064   6.948   1.676
80253SOL    HW242657  10.167   6.919   1.568
80254SOL     OW42658   4.571   7.267   1.272
80254SOL    HW142659   4.646   7.303   1.225
80254SOL    HW242660   4.498   7.276   1.211
80255SOL     OW42661   8.055  10.754   5.654
80255SOL    HW142662   8.125  10.796   5.704
80255SOL    HW242663   8.077  10.770   5.563
80256SOL     OW42664  14.102   9.321  14.697
80256SOL    HW142665  14.156   9.368  14.633
80256SOL    HW242666  14.115   9.229  14.676
80257SOL     OW42667   3.258   3.768  12.663
80257SOL    HW142668   3.313   3.830  12.712
80257SOL    HW242669   3.207   3.723  12.731
80258SOL     OW42670  14.654   7.900   0.214
80258SOL    HW142671  14.746   7.899   0.185
80258SOL    HW242672  14.659   7.923   0.307
80259SOL     OW42673   9.487   2.586   7.915
80259SOL    HW142674   9.519   2.546   7.996
80259SOL    HW242675   9.392   2.592   7.928
80260SOL     OW42676  14.553   7.247   2.931
80260SOL    HW142677  14.576   7.285   2.846
80260SOL    HW242678  14.501   7.315   2.974
80261SOL     OW42679  12.629   3.606  12.817
80261SOL    HW142680  12.585   3.650  12.890
80261SOL    HW242681  12.569   3.535  12.792
80262SOL     OW42682   5.455   3.517   0.833
80262SOL    HW142683   5.508   3.553   0.762
80262SOL    HW242684   5.461   3.422   0.823
80263SOL     OW42685   3.472   8.326  11.687
80263SOL    HW142686   3.470   8.341  11.781
80263SOL    HW242687   3.516   8.404  11.651
80264SOL     OW42688  11.292  12.827  11.495
80264SOL    HW142689  11.260  12.791  11.578
80264SOL    HW242690  11.237  12.904  11.481
80265SOL     OW42691  11.735  11.797   2.473
80265SOL    HW142692  11.811  11.771   2.524
80265SOL    HW242693  11.660  11.778   2.530
80266SOL     OW42694  14.496   5.241   1.292
80266SOL    HW142695  14.441   5.193   1.231
80266SOL    HW242696  14.580   5.194   1.292
80267SOL     OW42697   6.075   2.562  13.115
80267SOL    HW142698   5.996   2.613  13.130
80267SOL    HW242699   6.092   2.519  13.199
80268SOL     OW42700  11.948   3.995  10.932
80268SOL    HW142701  11.938   3.900  10.937
80268SOL    HW242702  11.995   4.018  11.013
80269SOL     OW42703   9.751  10.787   2.225
80269SOL    HW142704   9.820  10.754   2.167
80269SOL    HW242705   9.783  10.765   2.313
80270SOL     OW42706   1.065   6.656   7.528
80270SOL    HW142707   1.013   6.719   7.579
80270SOL    HW242708   1.056   6.686   7.437
80271SOL     OW42709  10.374   3.940   4.399
80271SOL    HW142710  10.463   3.915   4.373
80271SOL    HW242711  10.325   3.858   4.399
80272SOL     OW42712   2.956   7.397   5.572
80272SOL    HW142713   2.890   7.433   5.631
80272SOL    HW242714   3.003   7.474   5.539
80273SOL     OW42715   0.316   1.033  11.712
80273SOL    HW142716   0.284   1.092  11.780
80273SOL    HW242717   0.398   1.072  11.683
80274SOL     OW42718  11.689   3.848   7.569
80274SOL    HW142719  11.686   3.844   7.473
80274SOL    HW242720  11.626   3.782   7.597
80275SOL     OW42721   4.825   7.574   4.682
80275SOL    HW142722   4.780   7.652   4.715
80275SOL    HW242723   4.757   7.506   4.681
80276SOL     OW42724   5.890   0.840  10.460
80276SOL    HW142725   5.900   0.912  10.523
80276SOL    HW242726   5.807   0.799  10.482
80277SOL     OW42727   0.764   9.228   8.490
80277SOL    HW142728   0.803   9.269   8.568
80277SOL    HW242729   0.816   9.149   8.476
80278SOL     OW42730  10.559  11.958   0.222
80278SOL    HW142731  10.595  11.966   0.310
80278SOL    HW242732  10.516  12.042   0.207
80279SOL     OW42733   2.734   0.307   0.626
80279SOL    HW142734   2.779   0.352   0.554
80279SOL    HW242735   2.681   0.240   0.582
80280SOL     OW42736  11.260   3.427   2.752
80280SOL    HW142737  11.294   3.339   2.770
80280SOL    HW242738  11.268   3.474   2.835
80281SOL     OW42739  12.920   9.841  14.086
80281SOL    HW142740  12.912   9.763  14.141
80281SOL    HW242741  12.961   9.906  14.142
80282SOL     OW42742   0.362   6.101  11.430
80282SOL    HW142743   0.371   6.057  11.345
80282SOL    HW242744   0.439   6.159  11.435
80283SOL     OW42745  11.902  14.508  13.993
80283SOL    HW142746  11.905  14.421  13.953
80283SOL    HW242747  11.808  14.528  13.999
80284SOL     OW42748   1.337  12.664   4.482
80284SOL    HW142749   1.294  12.739   4.440
80284SOL    HW242750   1.290  12.588   4.448
80285SOL     OW42751  10.163   8.577   5.269
80285SOL    HW142752  10.218   8.580   5.348
80285SOL    HW242753  10.190   8.653   5.218
80286SOL     OW42754  10.020  10.151   2.483
80286SOL    HW142755  10.035  10.078   2.543
80286SOL    HW242756  10.028  10.113   2.396
80287SOL     OW42757   6.247   9.456   1.591
80287SOL    HW142758   6.159   9.440   1.626
80287SOL    HW242759   6.306   9.422   1.659
80288SOL     OW42760  13.008   5.435  11.878
80288SOL    HW142761  13.023   5.496  11.950
80288SOL    HW242762  12.925   5.463  11.839
80289SOL     OW42763   2.031   6.532  14.504
80289SOL    HW142764   2.042   6.446  14.464
80289SOL    HW242765   1.990   6.515  14.589
80290SOL     OW42766  11.956   9.215   7.489
80290SOL    HW142767  11.899   9.193   7.562
80290SOL    HW242768  11.904   9.197   7.411
80291SOL     OW42769   2.537   1.210  12.019
80291SOL    HW142770   2.549   1.302  11.996
80291SOL    HW242771   2.480   1.175  11.950
80292SOL     OW42772   2.608   8.371   8.603
80292SOL    HW142773   2.629   8.406   8.517
80292SOL    HW242774   2.651   8.286   8.606
80293SOL     OW42775  11.049  12.389   2.919
80293SOL    HW142776  11.097  12.307   2.931
80293SOL    HW242777  10.969  12.378   2.971
80294SOL     OW42778   0.098   0.662   6.392
80294SOL    HW142779   0.161   0.688   6.325
80294SOL    HW242780   0.124   0.712   6.470
80295SOL     OW42781   7.543   2.292  13.329
80295SOL    HW142782   7.603   2.355  13.290
80295SOL    HW242783   7.456   2.321  13.302
80296SOL     OW42784   1.045  12.264   4.238
80296SOL    HW142785   0.994  12.284   4.159
80296SOL    HW242786   1.113  12.331   4.240
80297SOL     OW42787   6.319   2.290   1.387
80297SOL    HW142788   6.408   2.255   1.380
80297SOL    HW242789   6.292   2.304   1.296
80298SOL     OW42790   4.714  12.181  10.491
80298SOL    HW142791   4.672  12.135  10.418
80298SOL    HW242792   4.651  12.250  10.514
80299SOL     OW42793   6.690   4.445   1.241
80299SOL    HW142794   6.689   4.529   1.286
80299SOL    HW242795   6.661   4.464   1.152
80300SOL     OW42796  12.596  12.867   5.150
80300SOL    HW142797  12.636  12.952   5.171
80300SOL    HW242798  12.620  12.851   5.059
80301SOL     OW42799   1.489   0.810   6.070
80301SOL    HW142800   1.520   0.736   6.122
80301SOL    HW242801   1.395   0.795   6.061
80302SOL     OW42802   0.234   3.897   4.786
80302SOL    HW142803   0.259   3.818   4.738
80302SOL    HW242804   0.260   3.969   4.729
80303SOL     OW42805  13.133  14.436  10.738
80303SOL    HW142806  13.040  14.457  10.746
80303SOL    HW242807  13.137  14.372  10.666
80304SOL     OW42808  14.250   5.242  14.485
80304SOL    HW142809  14.164   5.224  14.446
80304SOL    HW242810  14.231   5.267  14.575
80305SOL     OW42811  11.053  13.107   1.137
80305SOL    HW142812  10.959  13.127   1.142
80305SOL    HW242813  11.097  13.187   1.165
80306SOL     OW42814   7.162   2.551  12.190
80306SOL    HW142815   7.257   2.542  12.186
80306SOL    HW242816   7.148   2.640  12.221
80307SOL     OW42817   8.697   1.216   1.810
80307SOL    HW142818   8.606   1.221   1.780
80307SOL    HW242819   8.744   1.174   1.737
80308SOL     OW42820   1.682   3.556   6.698
80308SOL    HW142821   1.693   3.641   6.740
80308SOL    HW242822   1.731   3.563   6.616
80309SOL     OW42823  14.779   5.931   8.692
80309SOL    HW142824  14.764   5.848   8.737
80309SOL    HW242825  14.706   5.938   8.630
80310SOL     OW42826   2.217   3.123   9.675
80310SOL    HW142827   2.138   3.177   9.675
80310SOL    HW242828   2.189   3.040   9.638
80311SOL     OW42829   9.781   3.125   9.376
80311SOL    HW142830   9.858   3.160   9.330
80311SOL    HW242831   9.745   3.200   9.423
80312SOL     OW42832   2.795  12.560  14.589
80312SOL    HW142833   2.887  12.585  14.584
80312SOL    HW242834   2.769  12.579  14.679
80313SOL     OW42835   0.543   6.337   1.673
80313SOL    HW142836   0.631   6.372   1.688
80313SOL    HW242837   0.558   6.256   1.623
80314SOL     OW42838   2.566   0.419  12.347
80314SOL    HW142839   2.598   0.411  12.437
80314SOL    HW242840   2.505   0.346  12.337
80315SOL     OW42841  10.699  14.262  11.761
80315SOL    HW142842  10.682  14.338  11.817
80315SOL    HW242843  10.618  14.211  11.764
80316SOL     OW42844   4.502   6.131   9.666
80316SOL    HW142845   4.586   6.154   9.627
80316SOL    HW242846   4.505   6.036   9.678
80317SOL     OW42847   3.453  10.206   6.634
80317SOL    HW142848   3.358  10.199   6.629
80317SOL    HW242849   3.479  10.145   6.702
80318SOL     OW42850  14.426   0.747   1.873
80318SOL    HW142851  14.381   0.805   1.935
80318SOL    HW242852  14.447   0.668   1.924
80319SOL     OW42853   9.096  12.416   1.188
80319SOL    HW142854   9.026  12.428   1.251
80319SOL    HW242855   9.075  12.476   1.116
80320SOL     OW42856   4.098  13.217   4.292
80320SOL    HW142857   4.157  13.171   4.352
80320SOL    HW242858   4.018  13.229   4.343
80321SOL     OW42859  10.441  10.978   9.750
80321SOL    HW142860  10.392  10.980   9.832
80321SOL    HW242861  10.464  10.886   9.739
80322SOL     OW42862  13.203  12.204   5.181
80322SOL    HW142863  13.188  12.171   5.270
80322SOL    HW242864  13.236  12.128   5.132
80323SOL     OW42865   8.913   5.256  13.159
80323SOL    HW142866   8.922   5.259  13.064
80323SOL    HW242867   9.003   5.266  13.192
80324SOL     OW42868   2.988   9.295   3.399
80324SOL    HW142869   3.025   9.226   3.344
80324SOL    HW242870   3.035   9.288   3.482
80325SOL     OW42871  11.936  11.832   3.193
80325SOL    HW142872  11.905  11.814   3.281
80325SOL    HW242873  12.023  11.871   3.206
80326SOL     OW42874   9.593   0.527   7.266
80326SOL    HW142875   9.530   0.513   7.338
80326SOL    HW242876   9.602   0.622   7.261
80327SOL     OW42877   6.128  13.593  13.780
80327SOL    HW142878   6.202  13.557  13.829
80327SOL    HW242879   6.125  13.540  13.700
80328SOL     OW42880   0.133   9.006   5.937
80328SOL    HW142881   0.052   9.058   5.934
80328SOL    HW242882   0.111   8.932   5.993
80329SOL     OW42883   2.793  13.261   7.065
80329SOL    HW142884   2.751  13.286   7.147
80329SOL    HW242885   2.768  13.169   7.052
80330SOL     OW42886   3.420  10.597   1.603
80330SOL    HW142887   3.372  10.614   1.684
80330SOL    HW242888   3.381  10.655   1.539
80331SOL     OW42889   3.571   8.826   0.683
80331SOL    HW142890   3.591   8.805   0.774
80331SOL    HW242891   3.615   8.909   0.666
80332SOL     OW42892  14.369   0.130  10.266
80332SOL    HW142893  14.365   0.041  10.232
80332SOL    HW242894  14.427   0.124  10.342
80333SOL     OW42895   6.506   6.357  13.625
80333SOL    HW142896   6.441   6.343  13.694
80333SOL    HW242897   6.529   6.450  13.632
80334SOL     OW42898   7.278   7.547   5.523
80334SOL    HW142899   7.205   7.574   5.579
80334SOL    HW242900   7.253   7.460   5.491
80335SOL     OW42901  13.843  11.796  10.733
80335SOL    HW142902  13.902  11.872  10.736
80335SOL    HW242903  13.898  11.722  10.760
80336SOL     OW42904   4.789   9.385   5.620
80336SOL    HW142905   4.821   9.384   5.710
80336SOL    HW242906   4.694   9.393   5.628
80337SOL     OW42907   7.251  12.172  14.815
80337SOL    HW142908   7.214  12.136   0.027
80337SOL    HW242909   7.223  12.111  14.746
80338SOL     OW42910   1.361   9.069   1.516
80338SOL    HW142911   1.373   9.163   1.498
80338SOL    HW242912   1.439   9.028   1.480
80339SOL     OW42913   0.367   7.129   9.442
80339SOL    HW142914   0.435   7.075   9.483
80339SOL    HW242915   0.304   7.067   9.406
80340SOL     OW42916  11.452   0.826   4.809
80340SOL    HW142917  11.400   0.784   4.877
80340SOL    HW242918  11.459   0.917   4.837
80341SOL     OW42919   1.277   0.983   2.223
80341SOL    HW142920   1.187   0.968   2.194
80341SOL    HW242921   1.291   0.919   2.293
80342SOL     OW42922   8.537   6.487  10.180
80342SOL    HW142923   8.459   6.432  10.171
80342SOL    HW242924   8.503   6.574  10.197
80343SOL     OW42925  11.568   2.299   2.057
80343SOL    HW142926  11.527   2.298   1.971
80343SOL    HW242927  11.552   2.387   2.091
80344SOL     OW42928   4.106   6.866   7.212
80344SOL    HW142929   4.081   6.959   7.213
80344SOL    HW242930   4.200   6.867   7.193
80345SOL     OW42931   2.438   9.209  11.767
80345SOL    HW142932   2.425   9.276  11.700
80345SOL    HW242933   2.464   9.257  11.845
80346SOL     OW42934   3.280  11.304  10.846
80346SOL    HW142935   3.197  11.283  10.890
80346SOL    HW242936   3.254  11.349  10.766
80347SOL     OW42937  10.362   9.087   0.962
80347SOL    HW142938  10.350   9.166   0.909
80347SOL    HW242939  10.357   9.015   0.899
80348SOL     OW42940   4.514  13.535  14.211
80348SOL    HW142941   4.437  13.589  14.228
80348SOL    HW242942   4.567  13.544  14.290
80349SOL     OW42943   8.576   2.187   9.639
80349SOL    HW142944   8.551   2.272   9.673
80349SOL    HW242945   8.579   2.130   9.716
80350SOL     OW42946   3.220  12.232  11.396
80350SOL    HW142947   3.239  12.255  11.305
80350SOL    HW242948   3.298  12.183  11.424
80351SOL     OW42949   2.549   0.570   4.183
80351SOL    HW142950   2.484   0.557   4.113
80351SOL    HW242951   2.614   0.628   4.143
80352SOL     OW42952   6.475   3.314  12.359
80352SOL    HW142953   6.530   3.237  12.347
80352SOL    HW242954   6.496   3.370  12.283
80353SOL     OW42955   8.714   5.680  11.744
80353SOL    HW142956   8.663   5.680  11.663
80353SOL    HW242957   8.799   5.644  11.718
80354SOL     OW42958   9.383  10.519   0.567
80354SOL    HW142959   9.334  10.593   0.602
80354SOL    HW242960   9.425  10.553   0.488
80355SOL     OW42961  11.487  10.575   1.041
80355SOL    HW142962  11.453  10.485   1.039
80355SOL    HW242963  11.433  10.619   1.107
80356SOL     OW42964   1.721   6.395   3.533
80356SOL    HW142965   1.712   6.376   3.626
80356SOL    HW242966   1.812   6.372   3.512
80357SOL     OW42967   1.378  11.731   1.623
80357SOL    HW142968   1.355  11.823   1.609
80357SOL    HW242969   1.400  11.725   1.716
80358SOL     OW42970  11.666   9.857  13.189
80358SOL    HW142971  11.701   9.921  13.251
80358SOL    HW242972  11.609   9.801  13.241
80359SOL     OW42973   8.087   6.913   5.850
80359SOL    HW142974   8.113   6.858   5.923
80359SOL    HW242975   8.093   7.003   5.884
80360SOL     OW42976  13.632   1.746   7.418
80360SOL    HW142977  13.604   1.789   7.499
80360SOL    HW242978  13.577   1.786   7.350
80361SOL     OW42979  11.619   9.963  14.722
80361SOL    HW142980  11.571   9.925  14.649
80361SOL    HW242981  11.646  10.050  14.691
80362SOL     OW42982   5.404   3.440   7.977
80362SOL    HW142983   5.321   3.486   7.991
80362SOL    HW242984   5.470   3.509   7.983
80363SOL     OW42985   6.357  13.924  13.588
80363SOL    HW142986   6.325  13.968  13.667
80363SOL    HW242987   6.451  13.945  13.586
80364SOL     OW42988   9.112  13.003  11.341
80364SOL    HW142989   9.029  12.986  11.385
80364SOL    HW242990   9.092  13.073  11.278
80365SOL     OW42991   6.005  10.317   2.159
80365SOL    HW142992   5.997  10.301   2.253
80365SOL    HW242993   5.987  10.232   2.119
80366SOL     OW42994   8.407   1.666   0.006
80366SOL    HW142995   8.424   1.750   0.049
80366SOL    HW242996   8.479   1.609   0.034
80367SOL     OW42997   5.448  12.306  10.737
80367SOL    HW142998   5.384  12.234  10.738
80367SOL    HW242999   5.430  12.355  10.817
80368SOL     OW43000   4.211   4.898   4.064
80368SOL    HW143001   4.133   4.939   4.027
80368SOL    HW243002   4.284   4.948   4.026
80369SOL     OW43003   4.037   7.793   5.761
80369SOL    HW143004   4.116   7.840   5.735
80369SOL    HW243005   3.975   7.810   5.690
80370SOL     OW43006  11.840   6.463  10.705
80370SOL    HW143007  11.818   6.387  10.651
80370SOL    HW243008  11.755   6.499  10.731
80371SOL     OW43009  13.884   7.810  11.574
80371SOL    HW143010  13.858   7.862  11.650
80371SOL    HW243011  13.965   7.851  11.543
80372SOL     OW43012  11.013   7.756   0.738
80372SOL    HW143013  11.060   7.691   0.791
80372SOL    HW243014  10.921   7.735   0.751
80373SOL     OW43015   9.475   8.714   9.277
80373SOL    HW143016   9.440   8.798   9.307
80373SOL    HW243017   9.540   8.690   9.343
80374SOL     OW43018  12.512   9.182  12.464
80374SOL    HW143019  12.467   9.181  12.548
80374SOL    HW243020  12.520   9.089  12.440
80375SOL     OW43021   6.649  12.248  13.217
80375SOL    HW143022   6.684  12.325  13.173
80375SOL    HW243023   6.564  12.232  13.174
80376SOL     OW43024  13.209   5.426  10.543
80376SOL    HW143025  13.141   5.462  10.599
80376SOL    HW243026  13.176   5.340  10.516
80377SOL     OW43027  14.618   6.274   6.564
80377SOL    HW143028  14.706   6.310   6.559
80377SOL    HW243029  14.588   6.297   6.652
80378SOL     OW43030  11.882  13.833   3.102
80378SOL    HW143031  11.826  13.881   3.041
80378SOL    HW243032  11.838  13.841   3.187
80379SOL     OW43033  10.646  14.173   2.079
80379SOL    HW143034  10.639  14.139   1.990
80379SOL    HW243035  10.560  14.156   2.117
80380SOL     OW43036   5.255   7.527  14.298
80380SOL    HW143037   5.340   7.490  14.325
80380SOL    HW243038   5.210   7.544  14.381
80381SOL     OW43039   4.314  14.791  13.276
80381SOL    HW143040   4.290  14.744  13.356
80381SOL    HW243041   4.243  14.855  13.264
80382SOL     OW43042   7.674   0.987   4.283
80382SOL    HW143043   7.582   1.006   4.298
80382SOL    HW243044   7.697   1.037   4.204
80383SOL     OW43045  14.428   0.590   4.445
80383SOL    HW143046  14.389   0.614   4.529
80383SOL    HW243047  14.417   0.495   4.441
80384SOL     OW43048   9.794  14.249  10.764
80384SOL    HW143049   9.795  14.154  10.758
80384SOL    HW243050   9.850  14.269  10.838
80385SOL     OW43051   5.049  11.335   5.044
80385SOL    HW143052   5.114  11.346   4.976
80385SOL    HW243053   5.010  11.249   5.027
80386SOL     OW43054  14.809   9.909   4.968
80386SOL    HW143055  14.796   9.967   5.043
80386SOL    HW243056   0.013   9.949   4.919
80387SOL     OW43057   5.836   7.852   8.282
80387SOL    HW143058   5.749   7.812   8.276
80387SOL    HW243059   5.872   7.845   8.193
80388SOL     OW43060  12.110  14.864  10.878
80388SOL    HW143061  12.157   0.061  10.825
80388SOL    HW243062  12.066   0.047  10.945
80389SOL     OW43063  12.031  10.310  13.440
80389SOL    HW143064  12.091  10.251  13.395
80389SOL    HW243065  12.024  10.274  13.529
80390SOL     OW43066   9.724  13.058   4.915
80390SOL    HW143067   9.630  13.059   4.898
80390SOL    HW243068   9.732  13.058   5.010
80391SOL     OW43069   1.059  10.193   0.152
80391SOL    HW143070   0.971  10.202   0.115
80391SOL    HW243071   1.078  10.099   0.147
80392SOL     OW43072   8.461  10.121  11.856
80392SOL    HW143073   8.512  10.155  11.930
80392SOL    HW243074   8.409  10.196  11.827
80393SOL     OW43075   3.049   5.463  10.443
80393SOL    HW143076   3.124   5.469  10.501
80393SOL    HW243077   3.053   5.375  10.407
80394SOL     OW43078   0.461  10.908   4.466
80394SOL    HW143079   0.452  10.827   4.416
80394SOL    HW243080   0.538  10.951   4.428
80395SOL     OW43081   5.129   6.234   9.865
80395SOL    HW143082   5.136   6.322   9.903
80395SOL    HW243083   5.035   6.221   9.854
80396SOL     OW43084  10.735   7.690   5.077
80396SOL    HW143085  10.721   7.706   4.984
80396SOL    HW243086  10.692   7.607   5.094
80397SOL     OW43087  10.459   1.093  13.678
80397SOL    HW143088  10.527   1.029  13.702
80397SOL    HW243089  10.500   1.147  13.611
80398SOL     OW43090   3.616  13.418   4.373
80398SOL    HW143091   3.564  13.443   4.450
80398SOL    HW243092   3.607  13.323   4.368
80399SOL     OW43093   4.942   3.190   9.521
80399SOL    HW143094   4.966   3.258   9.459
80399SOL    HW243095   5.016   3.129   9.520
80400SOL     OW43096   3.681   9.145   9.700
80400SOL    HW143097   3.648   9.056   9.709
80400SOL    HW243098   3.706   9.171   9.788
80401SOL     OW43099   9.519  11.534   0.661
80401SOL    HW143100   9.508  11.533   0.756
80401SOL    HW243101   9.610  11.509   0.647
80402SOL     OW43102   4.217  14.145  14.825
80402SOL    HW143103   4.229  14.137  14.730
80402SOL    HW243104   4.306  14.148  14.860
80403SOL     OW43105   1.136  12.849   1.260
80403SOL    HW143106   1.095  12.892   1.335
80403SOL    HW243107   1.143  12.918   1.194
80404SOL     OW43108  10.224  13.674   3.132
80404SOL    HW143109  10.262  13.761   3.120
80404SOL    HW243110  10.162  13.684   3.204
80405SOL     OW43111   5.130   1.072  11.129
80405SOL    HW143112   5.154   1.147  11.074
80405SOL    HW243113   5.043   1.095  11.163
80406SOL     OW43114   6.574   7.402   7.029
80406SOL    HW143115   6.659   7.431   6.998
80406SOL    HW243116   6.586   7.386   7.123
80407SOL     OW43117   3.705  10.642   5.509
80407SOL    HW143118   3.783  10.697   5.505
80407SOL    HW243119   3.635  10.702   5.532
80408SOL     OW43120   9.806   4.498   7.167
80408SOL    HW143121   9.762   4.543   7.240
80408SOL    HW243122   9.785   4.552   7.090
80409SOL     OW43123   3.549   9.400   1.945
80409SOL    HW143124   3.487   9.456   1.898
80409SOL    HW243125   3.628   9.453   1.954
80410SOL     OW43126   7.385   9.060  13.658
80410SOL    HW143127   7.422   9.115  13.589
80410SOL    HW243128   7.290   9.069  13.647
80411SOL     OW43129   1.269   7.219   5.849
80411SOL    HW143130   1.275   7.302   5.802
80411SOL    HW243131   1.350   7.173   5.827
80412SOL     OW43132   5.959   9.506   1.551
80412SOL    HW143133   5.944   9.561   1.628
80412SOL    HW243134   5.964   9.567   1.478
80413SOL     OW43135   6.152  10.100   5.754
80413SOL    HW143136   6.184  10.051   5.830
80413SOL    HW243137   6.086  10.160   5.790
80414SOL     OW43138  10.119   0.874   8.565
80414SOL    HW143139  10.103   0.851   8.473
80414SOL    HW243140  10.209   0.908   8.565
80415SOL     OW43141   1.444   5.984   5.857
80415SOL    HW143142   1.445   5.906   5.913
80415SOL    HW243143   1.376   5.965   5.793
80416SOL     OW43144   7.913  11.636   2.274
80416SOL    HW143145   7.885  11.607   2.187
80416SOL    HW243146   7.833  11.668   2.316
80417SOL     OW43147  13.361   5.717   5.929
80417SOL    HW143148  13.318   5.716   6.014
80417SOL    HW243149  13.445   5.761   5.945
80418SOL     OW43150   0.704   0.153   4.018
80418SOL    HW143151   0.672   0.211   3.949
80418SOL    HW243152   0.773   0.101   3.976
80419SOL     OW43153  12.487  12.674  14.485
80419SOL    HW143154  12.437  12.658  14.405
80419SOL    HW243155  12.425  12.716  14.545
80420SOL     OW43156   3.215  14.466   2.010
80420SOL    HW143157   3.158  14.455   1.934
80420SOL    HW243158   3.303  14.445   1.976
80421SOL     OW43159   0.229   6.592   5.754
80421SOL    HW143160   0.306   6.536   5.750
80421SOL    HW243161   0.201   6.602   5.663
80422SOL     OW43162   3.514   7.115   6.912
80422SOL    HW143163   3.547   7.029   6.938
80422SOL    HW243164   3.443   7.095   6.851
80423SOL     OW43165   4.941   0.751  10.681
80423SOL    HW143166   4.971   0.810  10.750
80423SOL    HW243167   4.913   0.672  10.728
80424SOL     OW43168   5.784   4.847   6.310
80424SOL    HW143169   5.816   4.869   6.397
80424SOL    HW243170   5.812   4.920   6.255
80425SOL     OW43171  11.390  13.542   0.609
80425SOL    HW143172  11.436  13.594   0.543
80425SOL    HW243173  11.422  13.452   0.596
80426SOL     OW43174   5.674  11.779   4.614
80426SOL    HW143175   5.604  11.724   4.577
80426SOL    HW243176   5.679  11.854   4.555
80427SOL     OW43177  10.002   1.433  13.093
80427SOL    HW143178  10.065   1.476  13.151
80427SOL    HW243179  10.054   1.368  13.046
80428SOL     OW43180  14.208   2.268   9.645
80428SOL    HW143181  14.171   2.328   9.580
80428SOL    HW243182  14.266   2.323   9.697
80429SOL     OW43183  13.894   1.710  10.093
80429SOL    HW143184  13.858   1.714  10.005
80429SOL    HW243185  13.982   1.676  10.081
80430SOL     OW43186   7.028   8.695   1.853
80430SOL    HW143187   7.088   8.678   1.925
80430SOL    HW243188   7.069   8.653   1.777
80431SOL     OW43189   2.338  12.667  13.567
80431SOL    HW143190   2.417  12.640  13.521
80431SOL    HW243191   2.357  12.652  13.659
80432SOL     OW43192  10.629   9.559  13.457
80432SOL    HW143193  10.653   9.466  13.455
80432SOL    HW243194  10.681   9.599  13.387
80433SOL     OW43195   7.348   6.171  13.068
80433SOL    HW143196   7.413   6.181  12.999
80433SOL    HW243197   7.320   6.260  13.088
80434SOL     OW43198   5.511  13.469   1.199
80434SOL    HW143199   5.429  13.464   1.248
80434SOL    HW243200   5.550  13.553   1.226
80435SOL     OW43201   7.772   5.349   8.240
80435SOL    HW143202   7.728   5.315   8.318
80435SOL    HW243203   7.771   5.277   8.178
80436SOL     OW43204   3.842   6.907   8.445
80436SOL    HW143205   3.779   6.958   8.496
80436SOL    HW243206   3.916   6.966   8.432
80437SOL     OW43207  13.986   0.190   6.032
80437SOL    HW143208  14.056   0.226   5.978
80437SOL    HW243209  13.932   0.139   5.972
80438SOL     OW43210   3.607  12.990   9.271
80438SOL    HW143211   3.571  13.012   9.185
80438SOL    HW243212   3.639  12.900   9.261
80439SOL     OW43213   2.601  13.756   2.594
80439SOL    HW143214   2.693  13.785   2.594
80439SOL    HW243215   2.554  13.828   2.552
80440SOL     OW43216   3.196   3.062   5.162
80440SOL    HW143217   3.282   3.102   5.146
80440SOL    HW243218   3.215   2.969   5.173
80441SOL     OW43219  13.560   5.437  11.907
80441SOL    HW143220  13.625   5.507  11.910
80441SOL    HW243221  13.533   5.432  11.816
80442SOL     OW43222   9.819  13.273   7.288
80442SOL    HW143223   9.913  13.283   7.300
80442SOL    HW243224   9.782  13.290   7.374
80443SOL     OW43225   4.718   1.118   7.476
80443SOL    HW143226   4.756   1.205   7.488
80443SOL    HW243227   4.746   1.068   7.553
80444SOL     OW43228   4.175   5.159   5.568
80444SOL    HW143229   4.091   5.196   5.593
80444SOL    HW243230   4.185   5.081   5.623
80445SOL     OW43231   1.283   9.834  10.796
80445SOL    HW143232   1.373   9.803  10.788
80445SOL    HW243233   1.229   9.756  10.785
80446SOL     OW43234  11.838  11.654  14.086
80446SOL    HW143235  11.745  11.633  14.078
80446SOL    HW243236  11.882  11.569  14.079
80447SOL     OW43237  10.190   6.212   8.148
80447SOL    HW143238  10.104   6.250   8.132
80447SOL    HW243239  10.212   6.167   8.066
80448SOL     OW43240   2.596   4.837   5.393
80448SOL    HW143241   2.691   4.823   5.389
80448SOL    HW243242   2.568   4.793   5.473
80449SOL     OW43243   9.810  10.747   2.662
80449SOL    HW143244   9.790  10.789   2.746
80449SOL    HW243245   9.763  10.664   2.664
80450SOL     OW43246  10.209   1.738  10.817
80450SOL    HW143247  10.225   1.819  10.864
80450SOL    HW243248  10.129   1.703  10.855
80451SOL     OW43249   0.828   7.420  14.424
80451SOL    HW143250   0.783   7.494  14.383
80451SOL    HW243251   0.883   7.383  14.354
80452SOL     OW43252  10.548  10.562  14.591
80452SOL    HW143253  10.506  10.494  14.539
80452SOL    HW243254  10.536  10.534  14.681
80453SOL     OW43255  10.763  10.729  12.428
80453SOL    HW143256  10.671  10.705  12.429
80453SOL    HW243257  10.773  10.790  12.501
80454SOL     OW43258   8.879   7.024  14.329
80454SOL    HW143259   8.784   7.023  14.321
80454SOL    HW243260   8.907   6.942  14.288
80455SOL     OW43261  14.491   3.538  12.592
80455SOL    HW143262  14.427   3.487  12.642
80455SOL    HW243263  14.530   3.476  12.531
80456SOL     OW43264   9.563  14.788   9.454
80456SOL    HW143265   9.647  14.824   9.484
80456SOL    HW243266   9.564  14.803   9.359
80457SOL     OW43267   2.086   0.536  14.079
80457SOL    HW143268   2.077   0.572  14.167
80457SOL    HW243269   2.000   0.552  14.038
80458SOL     OW43270   9.176  14.380  11.957
80458SOL    HW143271   9.187  14.473  11.977
80458SOL    HW243272   9.100  14.376  11.900
80459SOL     OW43273   5.465   7.662   8.720
80459SOL    HW143274   5.499   7.722   8.787
80459SOL    HW243275   5.489   7.575   8.753
80460SOL     OW43276  10.495   4.540  13.687
80460SOL    HW143277  10.542   4.492  13.619
80460SOL    HW243278  10.563   4.593  13.730
80461SOL     OW43279   8.247   1.811  13.822
80461SOL    HW143280   8.162   1.855  13.819
80461SOL    HW243281   8.237   1.735  13.765
80462SOL     OW43282  11.289   7.403   0.496
80462SOL    HW143283  11.238   7.477   0.463
80462SOL    HW243284  11.224   7.337   0.518
80463SOL     OW43285   7.048  13.561   9.637
80463SOL    HW143286   7.006  13.563   9.551
80463SOL    HW243287   7.000  13.626   9.688
80464SOL     OW43288   1.244   3.320   9.586
80464SOL    HW143289   1.294   3.397   9.614
80464SOL    HW243290   1.175   3.356   9.530
80465SOL     OW43291   0.242  11.633  14.358
80465SOL    HW143292   0.288  11.549  14.353
80465SOL    HW243293   0.246  11.668  14.269
80466SOL     OW43294   9.154   0.238   6.842
80466SOL    HW143295   9.238   0.284   6.843
80466SOL    HW243296   9.139   0.213   6.934
80467SOL     OW43297   9.267  13.805   9.719
80467SOL    HW143298   9.319  13.789   9.797
80467SOL    HW243299   9.256  13.900   9.716
80468SOL     OW43300  13.788   5.112  11.797
80468SOL    HW143301  13.781   5.190  11.742
80468SOL    HW243302  13.697   5.085  11.812
80469SOL     OW43303  14.836   6.609   8.978
80469SOL    HW143304   0.017   6.530   9.004
80469SOL    HW243305  14.860   6.674   9.044
80470SOL     OW43306  14.034  13.738   4.566
80470SOL    HW143307  13.996  13.674   4.507
80470SOL    HW243308  14.050  13.815   4.512
80471SOL     OW43309  12.726  12.747   9.325
80471SOL    HW143310  12.692  12.660   9.344
80471SOL    HW243311  12.666  12.784   9.261
80472SOL     OW43312   3.346   7.717  10.853
80472SOL    HW143313   3.275   7.731  10.917
80472SOL    HW243314   3.382   7.632  10.876
80473SOL     OW43315   0.800   4.718   3.872
80473SOL    HW143316   0.886   4.759   3.884
80473SOL    HW243317   0.750   4.782   3.821
80474SOL     OW43318  11.892  10.853   0.070
80474SOL    HW143319  11.861  10.869  14.849
80474SOL    HW243320  11.982  10.822   0.059
80475SOL     OW43321   1.652   7.134   2.821
80475SOL    HW143322   1.713   7.175   2.881
80475SOL    HW243323   1.575   7.114   2.874
80476SOL     OW43324   5.776   9.392   8.703
80476SOL    HW143325   5.742   9.386   8.613
80476SOL    HW243326   5.740   9.316   8.748
80477SOL     OW43327   9.445   7.145   3.816
80477SOL    HW143328   9.412   7.125   3.904
80477SOL    HW243329   9.378   7.109   3.757
80478SOL     OW43330  12.913  10.074   9.311
80478SOL    HW143331  12.906  10.149   9.370
80478SOL    HW243332  13.007  10.066   9.293
80479SOL     OW43333   6.726   9.158   5.838
80479SOL    HW143334   6.638   9.122   5.832
80479SOL    HW243335   6.761   9.122   5.920
80480SOL     OW43336  10.591   1.446  12.744
80480SOL    HW143337  10.552   1.488  12.667
80480SOL    HW243338  10.664   1.504  12.768
80481SOL     OW43339   4.605  11.782   4.903
80481SOL    HW143340   4.632  11.735   4.824
80481SOL    HW243341   4.674  11.848   4.916
80482SOL     OW43342   8.955   7.933  12.533
80482SOL    HW143343   8.870   7.957  12.568
80482SOL    HW243344   8.950   7.954  12.439
80483SOL     OW43345  10.425   3.682   2.547
80483SOL    HW143346  10.406   3.620   2.618
80483SOL    HW243347  10.493   3.638   2.495
80484SOL     OW43348   3.108   9.611   5.233
80484SOL    HW143349   3.063   9.580   5.311
80484SOL    HW243350   3.196   9.632   5.263
80485SOL     OW43351   9.345   9.325   5.400
80485SOL    HW143352   9.303   9.240   5.417
80485SOL    HW243353   9.275   9.381   5.368
80486SOL     OW43354  12.784  13.137   5.536
80486SOL    HW143355  12.858  13.101   5.488
80486SOL    HW243356  12.776  13.227   5.505
80487SOL     OW43357  13.914   0.527   1.675
80487SOL    HW143358  13.835   0.545   1.624
80487SOL    HW243359  13.986   0.544   1.614
80488SOL     OW43360   4.325   8.101  14.637
80488SOL    HW143361   4.330   8.065  14.548
80488SOL    HW243362   4.408   8.075  14.678
80489SOL     OW43363   5.769   3.865   5.155
80489SOL    HW143364   5.759   3.770   5.147
80489SOL    HW243365   5.858   3.876   5.190
80490SOL     OW43366   2.480  11.586   2.765
80490SOL    HW143367   2.437  11.647   2.704
80490SOL    HW243368   2.564  11.567   2.725
80491SOL     OW43369   5.293  12.250   6.742
80491SOL    HW143370   5.242  12.257   6.661
80491SOL    HW243371   5.251  12.179   6.790
80492SOL     OW43372   5.759   8.659  12.954
80492SOL    HW143373   5.801   8.698  12.877
80492SOL    HW243374   5.667   8.650  12.929
80493SOL     OW43375   1.684   9.710  14.325
80493SOL    HW143376   1.755   9.746  14.378
80493SOL    HW243377   1.719   9.629  14.288
80494SOL     OW43378  14.222   2.235   1.164
80494SOL    HW143379  14.200   2.145   1.188
80494SOL    HW243380  14.315   2.243   1.185
80495SOL     OW43381   5.731  10.455   9.732
80495SOL    HW143382   5.684  10.472   9.813
80495SOL    HW243383   5.663  10.437   9.667
80496SOL     OW43384   4.425   8.101  14.086
80496SOL    HW143385   4.506   8.147  14.063
80496SOL    HW243386   4.365   8.122  14.014
80497SOL     OW43387  13.387   1.082  12.167
80497SOL    HW143388  13.293   1.089  12.185
80497SOL    HW243389  13.392   1.014  12.099
80498SOL     OW43390   2.868   1.872   2.390
80498SOL    HW143391   2.869   1.934   2.462
80498SOL    HW243392   2.837   1.790   2.429
80499SOL     OW43393   4.069  11.977  14.753
80499SOL    HW143394   4.085  11.896  14.704
80499SOL    HW243395   3.996  12.019  14.707
80500SOL     OW43396   0.146   6.307  12.352
80500SOL    HW143397   0.138   6.302  12.257
80500SOL    HW243398   0.237   6.333  12.368
80501SOL     OW43399   6.077   9.829   6.049
80501SOL    HW143400   6.029   9.882   6.113
80501SOL    HW243401   6.167   9.863   6.052
80502SOL     OW43402   9.968   5.599   3.973
80502SOL    HW143403   9.974   5.542   3.896
80502SOL    HW243404  10.038   5.664   3.960
80503SOL     OW43405  14.143  13.594   2.819
80503SOL    HW143406  14.055  13.574   2.853
80503SOL    HW243407  14.202  13.566   2.888
80504SOL     OW43408  11.358   1.261  14.605
80504SOL    HW143409  11.441   1.229  14.569
80504SOL    HW243410  11.356   1.354  14.581
80505SOL     OW43411   5.184   9.356   6.240
80505SOL    HW143412   5.269   9.364   6.197
80505SOL    HW243413   5.136   9.435   6.213
80506SOL     OW43414   3.482   6.488   1.510
80506SOL    HW143415   3.523   6.495   1.423
80506SOL    HW243416   3.511   6.567   1.556
80507SOL     OW43417  11.200   7.929   6.224
80507SOL    HW143418  11.289   7.910   6.195
80507SOL    HW243419  11.210   7.999   6.289
80508SOL     OW43420   5.359   0.346   5.105
80508SOL    HW143421   5.393   0.310   5.023
80508SOL    HW243422   5.417   0.310   5.172
80509SOL     OW43423  14.072  11.036   6.216
80509SOL    HW143424  14.097  11.040   6.124
80509SOL    HW243425  14.142  11.082   6.263
80510SOL     OW43426   6.318   0.502   0.960
80510SOL    HW143427   6.235   0.547   0.946
80510SOL    HW243428   6.335   0.456   0.877
80511SOL     OW43429   8.503   3.545   8.534
80511SOL    HW143430   8.508   3.637   8.508
80511SOL    HW243431   8.550   3.498   8.465
80512SOL     OW43432  10.961   2.002   4.103
80512SOL    HW143433  11.012   2.056   4.043
80512SOL    HW243434  11.027   1.958   4.157
80513SOL     OW43435   7.137  10.317  13.408
80513SOL    HW143436   7.091  10.279  13.483
80513SOL    HW243437   7.230  10.308  13.430
80514SOL     OW43438   7.822   7.165   0.568
80514SOL    HW143439   7.855   7.087   0.523
80514SOL    HW243440   7.793   7.223   0.498
80515SOL     OW43441   9.333   7.204   6.165
80515SOL    HW143442   9.392   7.148   6.114
80515SOL    HW243443   9.253   7.151   6.174
80516SOL     OW43444   4.803   3.110   4.130
80516SOL    HW143445   4.828   3.091   4.221
80516SOL    HW243446   4.831   3.200   4.116
80517SOL     OW43447   6.008   0.494  10.875
80517SOL    HW143448   6.013   0.575  10.824
80517SOL    HW243449   6.033   0.521  10.964
80518SOL     OW43450  10.398  14.841  13.962
80518SOL    HW143451  10.469  14.782  13.937
80518SOL    HW243452  10.331  14.784  14.000
80519SOL     OW43453  10.227   4.327   1.515
80519SOL    HW143454  10.318   4.334   1.542
80519SOL    HW243455  10.223   4.377   1.433
80520SOL     OW43456   2.015   7.553   3.262
80520SOL    HW143457   1.953   7.610   3.308
80520SOL    HW243458   2.090   7.548   3.321
80521SOL     OW43459  13.628   3.238   2.092
80521SOL    HW143460  13.714   3.211   2.122
80521SOL    HW243461  13.639   3.256   1.998
80522SOL     OW43462  13.761  14.107   6.606
80522SOL    HW143463  13.833  14.060   6.564
80522SOL    HW243464  13.769  14.086   6.699
80523SOL     OW43465   1.393   6.788   5.467
80523SOL    HW143466   1.348   6.835   5.397
80523SOL    HW243467   1.328   6.781   5.537
80524SOL     OW43468  10.478   3.052  10.545
80524SOL    HW143469  10.487   3.038  10.450
80524SOL    HW243470  10.497   2.966  10.583
80525SOL     OW43471   1.371   5.036   3.031
80525SOL    HW143472   1.441   4.979   2.999
80525SOL    HW243473   1.303   4.975   3.061
80526SOL     OW43474  10.090   7.154   4.475
80526SOL    HW143475  10.096   7.182   4.384
80526SOL    HW243476  10.111   7.233   4.526
80527SOL     OW43477   1.960  12.360   1.069
80527SOL    HW143478   1.924  12.432   1.018
80527SOL    HW243479   1.934  12.281   1.021
80528SOL     OW43480   4.951   5.504  11.061
80528SOL    HW143481   4.990   5.560  10.993
80528SOL    HW243482   4.885   5.452  11.014
80529SOL     OW43483   4.457  11.778   0.419
80529SOL    HW143484   4.374  11.792   0.465
80529SOL    HW243485   4.507  11.720   0.476
80530SOL     OW43486  14.267   2.572   3.554
80530SOL    HW143487  14.314   2.534   3.479
80530SOL    HW243488  14.288   2.514   3.627
80531SOL     OW43489   4.979  12.708   8.646
80531SOL    HW143490   5.070  12.724   8.621
80531SOL    HW243491   4.949  12.642   8.584
80532SOL     OW43492  13.193   7.737   2.712
80532SOL    HW143493  13.124   7.790   2.671
80532SOL    HW243494  13.256   7.720   2.642
80533SOL     OW43495   3.941   0.467   8.561
80533SOL    HW143496   3.890   0.433   8.487
80533SOL    HW243497   3.911   0.415   8.636
80534SOL     OW43498  12.358   1.908   5.039
80534SOL    HW143499  12.373   1.965   5.115
80534SOL    HW243500  12.390   1.957   4.964
80535SOL     OW43501   4.838  11.826   5.357
80535SOL    HW143502   4.888  11.879   5.418
80535SOL    HW243503   4.893  11.821   5.279
80536SOL     OW43504   0.565  13.442  14.864
80536SOL    HW143505   0.522  13.499   0.061
80536SOL    HW243506   0.575  13.497  14.787
80537SOL     OW43507   0.149   3.936   3.452
80537SOL    HW143508   0.221   3.877   3.473
80537SOL    HW243509   0.081   3.879   3.417
80538SOL     OW43510   1.192  14.695   5.598
80538SOL    HW143511   1.110  14.648   5.584
80538SOL    HW243512   1.260  14.630   5.583
80539SOL     OW43513   1.660   4.653   3.827
80539SOL    HW143514   1.723   4.692   3.888
80539SOL    HW243515   1.627   4.575   3.873
80540SOL     OW43516   6.387   3.589   5.241
80540SOL    HW143517   6.369   3.656   5.307
80540SOL    HW243518   6.377   3.636   5.158
80541SOL     OW43519   0.387   9.686   3.248
80541SOL    HW143520   0.333   9.720   3.176
80541SOL    HW243521   0.469   9.734   3.241
80542SOL     OW43522  10.940   3.561  10.999
80542SOL    HW143523  11.014   3.501  11.005
80542SOL    HW243524  10.913   3.556  10.907
80543SOL     OW43525   3.315   1.284  12.446
80543SOL    HW143526   3.259   1.362  12.445
80543SOL    HW243527   3.400   1.316  12.477
80544SOL     OW43528   9.409  10.443   7.110
80544SOL    HW143529   9.353  10.366   7.105
80544SOL    HW243530   9.422  10.469   7.019
80545SOL     OW43531   9.652  13.349  12.222
80545SOL    HW143532   9.712  13.336  12.296
80545SOL    HW243533   9.631  13.260  12.193
80546SOL     OW43534   1.903  14.162   2.472
80546SOL    HW143535   1.952  14.216   2.409
80546SOL    HW243536   1.958  14.163   2.550
80547SOL     OW43537  11.573   2.384  11.277
80547SOL    HW143538  11.615   2.466  11.303
80547SOL    HW243539  11.643   2.333  11.236
80548SOL     OW43540   8.666   5.779   1.602
80548SOL    HW143541   8.636   5.695   1.635
80548SOL    HW243542   8.762   5.774   1.608
80549SOL     OW43543   0.702   9.871   5.994
80549SOL    HW143544   0.716   9.909   6.081
80549SOL    HW243545   0.763   9.916   5.937
80550SOL     OW43546   6.437   4.951  14.739
80550SOL    HW143547   6.505   4.898  14.698
80550SOL    HW243548   6.483   5.030  14.768
80551SOL     OW43549  14.742  11.718   6.772
80551SOL    HW143550  14.808  11.655   6.745
80551SOL    HW243551  14.792  11.796   6.797
80552SOL     OW43552  14.019   6.341   4.578
80552SOL    HW143553  14.112   6.318   4.579
80552SOL    HW243554  13.994   6.343   4.670
80553SOL     OW43555   2.237   0.899  14.447
80553SOL    HW143556   2.274   0.906  14.534
80553SOL    HW243557   2.300   0.847  14.398
80554SOL     OW43558   6.081   8.862   4.412
80554SOL    HW143559   6.061   8.950   4.380
80554SOL    HW243560   6.056   8.864   4.504
80555SOL     OW43561   1.051   2.289  12.080
80555SOL    HW143562   0.973   2.339  12.103
80555SOL    HW243563   1.085   2.332  12.002
80556SOL     OW43564   2.012   2.880   8.375
80556SOL    HW143565   1.926   2.896   8.415
80556SOL    HW243566   2.053   2.816   8.433
80557SOL     OW43567   5.429  13.184   3.395
80557SOL    HW143568   5.353  13.167   3.450
80557SOL    HW243569   5.501  13.140   3.440
80558SOL     OW43570   4.479   8.873   1.016
80558SOL    HW143571   4.416   8.889   0.945
80558SOL    HW243572   4.556   8.924   0.991
80559SOL     OW43573   2.501   5.764   3.588
80559SOL    HW143574   2.463   5.707   3.521
80559SOL    HW243575   2.575   5.806   3.544
80560SOL     OW43576   5.359   6.856  11.250
80560SOL    HW143577   5.365   6.764  11.224
80560SOL    HW243578   5.339   6.903  11.169
80561SOL     OW43579  14.722   7.119  10.416
80561SOL    HW143580  14.815   7.101  10.430
80561SOL    HW243581  14.716   7.214  10.406
80562SOL     OW43582  13.930  10.972   3.980
80562SOL    HW143583  14.007  11.002   3.931
80562SOL    HW243584  13.937  11.015   4.065
80563SOL     OW43585   2.705   8.964   6.220
80563SOL    HW143586   2.706   9.060   6.228
80563SOL    HW243587   2.770   8.945   6.153
80564SOL     OW43588  13.703   6.259   5.217
80564SOL    HW143589  13.701   6.223   5.128
80564SOL    HW243590  13.702   6.354   5.205
80565SOL     OW43591   6.272  12.908   8.587
80565SOL    HW143592   6.211  12.981   8.591
80565SOL    HW243593   6.347  12.936   8.638
80566SOL     OW43594   6.891   4.414   8.286
80566SOL    HW143595   6.932   4.492   8.250
80566SOL    HW243596   6.797   4.432   8.283
80567SOL     OW43597  10.957   0.234   6.461
80567SOL    HW143598  10.985   0.194   6.378
80567SOL    HW243599  11.020   0.199   6.525
80568SOL     OW43600  10.394   8.879  10.098
80568SOL    HW143601  10.355   8.866  10.011
80568SOL    HW243602  10.455   8.806  10.107
80569SOL     OW43603   0.971   5.016   9.588
80569SOL    HW143604   1.059   5.053   9.589
80569SOL    HW243605   0.959   4.987   9.498
80570SOL     OW43606   3.717   8.105   0.110
80570SOL    HW143607   3.710   8.028   0.054
80570SOL    HW243608   3.789   8.085   0.169
80571SOL     OW43609   2.706   9.087   7.966
80571SOL    HW143610   2.646   9.155   7.939
80571SOL    HW243611   2.746   9.120   8.047
80572SOL     OW43612  13.905   1.116   9.861
80572SOL    HW143613  13.932   1.132   9.771
80572SOL    HW243614  13.943   1.188   9.911
80573SOL     OW43615  11.075   8.714  14.822
80573SOL    HW143616  11.091   8.645   0.018
80573SOL    HW243617  11.076   8.669  14.738
80574SOL     OW43618   9.807   1.800   2.472
80574SOL    HW143619   9.774   1.744   2.542
80574SOL    HW243620   9.898   1.816   2.496
80575SOL     OW43621   2.859   7.301  10.359
80575SOL    HW143622   2.846   7.245  10.282
80575SOL    HW243623   2.938   7.268  10.400
80576SOL     OW43624   4.074   0.884   4.844
80576SOL    HW143625   3.996   0.854   4.797
80576SOL    HW243626   4.086   0.819   4.914
80577SOL     OW43627   1.869   9.445   2.441
80577SOL    HW143628   1.792   9.467   2.493
80577SOL    HW243629   1.856   9.353   2.417
80578SOL     OW43630  11.686  13.066   2.062
80578SOL    HW143631  11.600  13.109   2.058
80578SOL    HW243632  11.676  13.000   2.130
80579SOL     OW43633  12.358   8.447   2.095
80579SOL    HW143634  12.353   8.402   2.011
80579SOL    HW243635  12.387   8.536   2.073
80580SOL     OW43636   1.706   2.808  13.171
80580SOL    HW143637   1.671   2.896  13.156
80580SOL    HW243638   1.760   2.817  13.250
80581SOL     OW43639   1.097  11.534   4.561
80581SOL    HW143640   1.128  11.460   4.510
80581SOL    HW243641   1.129  11.611   4.514
80582SOL     OW43642   2.390   2.395   9.892
80582SOL    HW143643   2.408   2.486   9.916
80582SOL    HW243644   2.297   2.395   9.868
80583SOL     OW43645  12.500  11.481  11.763
80583SOL    HW143646  12.543  11.420  11.824
80583SOL    HW243647  12.490  11.562  11.813
80584SOL     OW43648   8.292   6.148   0.072
80584SOL    HW143649   8.219   6.209   0.058
80584SOL    HW243650   8.294   6.093  14.862
80585SOL     OW43651   8.441   0.818   2.790
80585SOL    HW143652   8.429   0.907   2.823
80585SOL    HW243653   8.371   0.806   2.726
80586SOL     OW43654   6.496  14.676   4.653
80586SOL    HW143655   6.495  14.629   4.736
80586SOL    HW243656   6.421  14.735   4.658
80587SOL     OW43657   9.576  10.469   9.044
80587SOL    HW143658   9.606  10.529   8.976
80587SOL    HW243659   9.640  10.397   9.042
80588SOL     OW43660  14.804   1.835   2.351
80588SOL    HW143661  14.860   1.838   2.274
80588SOL    HW243662  14.857   1.872   2.421
80589SOL     OW43663  11.628   3.898   8.681
80589SOL    HW143664  11.612   3.948   8.600
80589SOL    HW243665  11.705   3.845   8.662
80590SOL     OW43666   8.713  14.159  11.689
80590SOL    HW143667   8.683  14.240  11.731
80590SOL    HW243668   8.637  14.128  11.641
80591SOL     OW43669  12.129  13.427   1.453
80591SOL    HW143670  12.175  13.344   1.446
80591SOL    HW243671  12.197  13.491   1.472
80592SOL     OW43672  10.770   9.598   3.978
80592SOL    HW143673  10.826   9.633   3.909
80592SOL    HW243674  10.784   9.656   4.053
80593SOL     OW43675   5.612  14.457   6.260
80593SOL    HW143676   5.519  14.472   6.272
80593SOL    HW243677   5.653  14.496   6.337
80594SOL     OW43678   4.229  10.454  11.339
80594SOL    HW143679   4.248  10.504  11.419
80594SOL    HW243680   4.241  10.362  11.365
80595SOL     OW43681   3.126   2.749   1.226
80595SOL    HW143682   3.072   2.676   1.195
80595SOL    HW243683   3.077   2.785   1.300
80596SOL     OW43684  11.781   9.876  14.120
80596SOL    HW143685  11.818   9.810  14.179
80596SOL    HW243686  11.835   9.871  14.041
80597SOL     OW43687  13.202   1.233   7.113
80597SOL    HW143688  13.173   1.233   7.022
80597SOL    HW243689  13.147   1.168   7.156
80598SOL     OW43690   8.806   1.270  10.365
80598SOL    HW143691   8.720   1.229  10.372
80598SOL    HW243692   8.823   1.273  10.271
80599SOL     OW43693  14.621   8.403   6.734
80599SOL    HW143694  14.529   8.398   6.762
80599SOL    HW243695  14.651   8.489   6.761
80600SOL     OW43696   7.506   3.055   6.976
80600SOL    HW143697   7.536   2.989   6.914
80600SOL    HW243698   7.540   3.137   6.941
80601SOL     OW43699   7.456   9.533   4.850
80601SOL    HW143700   7.392   9.462   4.839
80601SOL    HW243701   7.404   9.613   4.840
80602SOL     OW43702   1.525  11.673   3.285
80602SOL    HW143703   1.500  11.740   3.349
80602SOL    HW243704   1.567  11.722   3.215
80603SOL     OW43705   8.546   0.756  13.771
80603SOL    HW143706   8.580   0.845  13.761
80603SOL    HW243707   8.543   0.722  13.681
80604SOL     OW43708   8.173  12.102  14.544
80604SOL    HW143709   8.169  12.007  14.550
80604SOL    HW243710   8.266  12.123  14.559
80605SOL     OW43711  13.035   7.850   3.819
80605SOL    HW143712  12.972   7.784   3.791
80605SOL    HW243713  13.107   7.843   3.757
80606SOL     OW43714   8.630   5.109   3.817
80606SOL    HW143715   8.695   5.179   3.829
80606SOL    HW243716   8.683   5.031   3.799
80607SOL     OW43717   4.407   1.935   7.945
80607SOL    HW143718   4.461   2.003   7.987
80607SOL    HW243719   4.340   1.915   8.010
80608SOL     OW43720   2.278  13.692   0.416
80608SOL    HW143721   2.246  13.667   0.329
80608SOL    HW243722   2.349  13.754   0.399
80609SOL     OW43723   1.558   9.305   5.229
80609SOL    HW143724   1.534   9.361   5.156
80609SOL    HW243725   1.475   9.268   5.260
80610SOL     OW43726   6.414   2.931   4.357
80610SOL    HW143727   6.397   2.949   4.265
80610SOL    HW243728   6.413   2.836   4.364
80611SOL     OW43729   8.175   2.478   1.866
80611SOL    HW143730   8.267   2.476   1.839
80611SOL    HW243731   8.126   2.453   1.787
80612SOL     OW43732   2.664   1.724   6.743
80612SOL    HW143733   2.749   1.680   6.744
80612SOL    HW243734   2.684   1.816   6.763
80613SOL     OW43735   3.521  14.260   8.451
80613SOL    HW143736   3.455  14.240   8.517
80613SOL    HW243737   3.579  14.184   8.449
80614SOL     OW43738   3.585   7.286   8.530
80614SOL    HW143739   3.616   7.376   8.522
80614SOL    HW243740   3.526   7.275   8.456
80615SOL     OW43741  13.587   1.503  13.409
80615SOL    HW143742  13.573   1.545  13.494
80615SOL    HW243743  13.628   1.572  13.356
80616SOL     OW43744  11.354   4.341   0.264
80616SOL    HW143745  11.335   4.268   0.324
80616SOL    HW243746  11.325   4.419   0.312
80617SOL     OW43747   0.448   8.946   7.758
80617SOL    HW143748   0.502   9.024   7.768
80617SOL    HW243749   0.372   8.977   7.707
80618SOL     OW43750  11.043  13.521   1.372
80618SOL    HW143751  11.132  13.518   1.336
80618SOL    HW243752  10.987  13.496   1.299
80619SOL     OW43753  13.855   0.187  11.249
80619SOL    HW143754  13.771   0.217  11.215
80619SOL    HW243755  13.837   0.163  11.340
80620SOL     OW43756   3.075  13.917   2.100
80620SOL    HW143757   3.053  14.006   2.128
80620SOL    HW243758   3.157  13.898   2.146
80621SOL     OW43759  14.083   8.616   8.674
80621SOL    HW143760  14.144   8.662   8.732
80621SOL    HW243761  14.018   8.682   8.652
80622SOL     OW43762   2.734   4.112   9.037
80622SOL    HW143763   2.788   4.036   9.058
80622SOL    HW243764   2.657   4.075   8.993
80623SOL     OW43765   6.320   6.355   5.884
80623SOL    HW143766   6.308   6.446   5.856
80623SOL    HW243767   6.413   6.349   5.905
80624SOL     OW43768  12.259   7.360   1.179
80624SOL    HW143769  12.315   7.314   1.116
80624SOL    HW243770  12.316   7.376   1.254
80625SOL     OW43771   6.729  12.948   1.032
80625SOL    HW143772   6.726  13.017   0.966
80625SOL    HW243773   6.820  12.945   1.061
80626SOL     OW43774  11.958   8.800  12.910
80626SOL    HW143775  11.878   8.760  12.876
80626SOL    HW243776  12.029   8.750  12.870
80627SOL     OW43777   4.046   3.107   9.027
80627SOL    HW143778   3.983   3.176   9.007
80627SOL    HW243779   4.007   3.059   9.101
80628SOL     OW43780   4.772  12.979   1.309
80628SOL    HW143781   4.719  12.915   1.356
80628SOL    HW243782   4.730  12.989   1.224
80629SOL     OW43783   2.685   3.342   8.739
80629SOL    HW143784   2.640   3.334   8.824
80629SOL    HW243785   2.711   3.253   8.717
80630SOL     OW43786   6.584   2.343   3.959
80630SOL    HW143787   6.502   2.309   3.923
80630SOL    HW243788   6.566   2.435   3.977
80631SOL     OW43789  11.738  11.779   4.817
80631SOL    HW143790  11.824  11.820   4.803
80631SOL    HW243791  11.757  11.689   4.841
80632SOL     OW43792   4.903  10.660  12.615
80632SOL    HW143793   4.822  10.609  12.618
80632SOL    HW243794   4.967  10.601  12.575
80633SOL     OW43795  14.829  12.806   4.847
80633SOL    HW143796  14.810  12.740   4.780
80633SOL    HW243797  14.743  12.833   4.879
80634SOL     OW43798   7.698  12.092   6.250
80634SOL    HW143799   7.605  12.078   6.228
80634SOL    HW243800   7.707  12.059   6.339
80635SOL     OW43801   7.753   7.166  10.183
80635SOL    HW143802   7.672   7.217  10.178
80635SOL    HW243803   7.805   7.196  10.108
80636SOL     OW43804  12.644  12.388  11.009
80636SOL    HW143805  12.648  12.422  11.098
80636SOL    HW243806  12.558  12.347  11.002
80637SOL     OW43807   7.333   1.644   4.883
80637SOL    HW143808   7.315   1.552   4.865
80637SOL    HW243809   7.247   1.684   4.892
80638SOL     OW43810   0.127  13.699   3.220
80638SOL    HW143811   0.126  13.676   3.127
80638SOL    HW243812   0.203  13.756   3.231
80639SOL     OW43813  12.273   2.038  11.614
80639SOL    HW143814  12.241   1.950  11.636
80639SOL    HW243815  12.366   2.025  11.593
80640SOL     OW43816   8.404   6.145   0.544
80640SOL    HW143817   8.363   6.202   0.609
80640SOL    HW243818   8.334   6.129   0.480
80641SOL     OW43819   2.241   1.140   0.798
80641SOL    HW143820   2.206   1.068   0.746
80641SOL    HW243821   2.334   1.120   0.807
80642SOL     OW43822   9.490  12.141   3.733
80642SOL    HW143823   9.476  12.046   3.738
80642SOL    HW243824   9.468  12.173   3.821
80643SOL     OW43825   6.659   0.295   4.573
80643SOL    HW143826   6.750   0.281   4.544
80643SOL    HW243827   6.619   0.208   4.568
80644SOL     OW43828   7.103   7.867  13.815
80644SOL    HW143829   7.114   7.795  13.752
80644SOL    HW243830   7.075   7.941  13.761
80645SOL     OW43831  10.608   1.393   2.670
80645SOL    HW143832  10.527   1.380   2.621
80645SOL    HW243833  10.612   1.318   2.730
80646SOL     OW43834  11.714  14.609  12.588
80646SOL    HW143835  11.629  14.601  12.632
80646SOL    HW243836  11.740  14.700  12.603
80647SOL     OW43837   1.958   4.780   9.503
80647SOL    HW143838   1.935   4.759   9.594
80647SOL    HW243839   1.906   4.858   9.483
80648SOL     OW43840   0.957   9.150  11.251
80648SOL    HW143841   0.947   9.083  11.319
80648SOL    HW243842   0.996   9.224  11.297
80649SOL     OW43843   4.808   4.588   5.732
80649SOL    HW143844   4.890   4.610   5.776
80649SOL    HW243845   4.744   4.579   5.803
80650SOL     OW43846   9.951  13.586   6.924
80650SOL    HW143847  10.042  13.581   6.952
80650SOL    HW243848   9.904  13.618   7.000
80651SOL     OW43849   9.394   2.183   6.715
80651SOL    HW143850   9.324   2.132   6.755
80651SOL    HW243851   9.468   2.174   6.774
80652SOL     OW43852   8.900  10.803   6.849
80652SOL    HW143853   8.918  10.714   6.819
80652SOL    HW243854   8.835  10.792   6.919
80653SOL     OW43855   4.517  14.348   1.963
80653SOL    HW143856   4.485  14.438   1.967
80653SOL    HW243857   4.523  14.321   2.055
80654SOL     OW43858   6.461   5.133   1.761
80654SOL    HW143859   6.455   5.088   1.677
80654SOL    HW243860   6.492   5.066   1.822
80655SOL     OW43861   3.619   6.157  14.472
80655SOL    HW143862   3.615   6.222  14.401
80655SOL    HW243863   3.539   6.105  14.461
80656SOL     OW43864   4.092   1.705  12.068
80656SOL    HW143865   4.095   1.799  12.083
80656SOL    HW243866   4.182   1.675  12.081
80657SOL     OW43867   2.603  11.329  10.811
80657SOL    HW143868   2.588  11.250  10.862
80657SOL    HW243869   2.696  11.325  10.787
80658SOL     OW43870   1.850  13.132  14.110
80658SOL    HW143871   1.756  13.134  14.130
80658SOL    HW243872   1.885  13.212  14.149
80659SOL     OW43873   4.040  10.468   7.908
80659SOL    HW143874   4.047  10.495   8.000
80659SOL    HW243875   4.071  10.378   7.907
80660SOL     OW43876  10.575   4.640   8.434
80660SOL    HW143877  10.482   4.660   8.429
80660SOL    HW243878  10.615   4.693   8.366
80661SOL     OW43879   3.551  11.590  11.701
80661SOL    HW143880   3.603  11.563  11.777
80661SOL    HW243881   3.508  11.671  11.730
80662SOL     OW43882   7.422   4.441   9.520
80662SOL    HW143883   7.358   4.383   9.561
80662SOL    HW243884   7.454   4.390   9.445
80663SOL     OW43885   8.900   3.001   2.425
80663SOL    HW143886   8.819   3.010   2.476
80663SOL    HW243887   8.967   3.040   2.481
80664SOL     OW43888   2.835  12.918   0.647
80664SOL    HW143889   2.918  12.872   0.631
80664SOL    HW243890   2.853  13.009   0.623
80665SOL     OW43891  14.100  11.183   3.335
80665SOL    HW143892  14.032  11.235   3.290
80665SOL    HW243893  14.180  11.199   3.285
80666SOL     OW43894   0.920  11.390   0.235
80666SOL    HW143895   1.007  11.371   0.199
80666SOL    HW243896   0.930  11.376   0.329
80667SOL     OW43897   3.101   3.673   4.280
80667SOL    HW143898   3.189   3.645   4.256
80667SOL    HW243899   3.059   3.593   4.313
80668SOL     OW43900  10.445   7.587   0.933
80668SOL    HW143901  10.475   7.517   0.990
80668SOL    HW243902  10.489   7.666   0.966
80669SOL     OW43903   5.078  11.757  11.653
80669SOL    HW143904   5.129  11.813  11.711
80669SOL    HW243905   5.098  11.668  11.681
80670SOL     OW43906   7.410   8.757  13.071
80670SOL    HW143907   7.466   8.833  13.054
80670SOL    HW243908   7.412   8.748  13.166
80671SOL     OW43909   6.501  10.153  11.303
80671SOL    HW143910   6.570  10.090  11.323
80671SOL    HW243911   6.468  10.182  11.388
80672SOL     OW43912  13.804  11.188  14.208
80672SOL    HW143913  13.773  11.113  14.258
80672SOL    HW243914  13.899  11.180  14.208
80673SOL     OW43915   2.947  11.345   1.510
80673SOL    HW143916   3.037  11.319   1.491
80673SOL    HW243917   2.894  11.290   1.451
80674SOL     OW43918  13.716   2.666   2.446
80674SOL    HW143919  13.654   2.739   2.446
80674SOL    HW243920  13.737   2.652   2.538
80675SOL     OW43921   1.827  11.649   0.464
80675SOL    HW143922   1.783  11.724   0.424
80675SOL    HW243923   1.919  11.658   0.439
80676SOL     OW43924   5.418   1.211   5.058
80676SOL    HW143925   5.376   1.134   5.020
80676SOL    HW243926   5.380   1.285   5.011
80677SOL     OW43927   6.859   7.029   3.867
80677SOL    HW143928   6.781   6.983   3.898
80677SOL    HW243929   6.826   7.084   3.795
80678SOL     OW43930   2.009   3.265   0.940
80678SOL    HW143931   2.080   3.289   0.998
80678SOL    HW243932   1.935   3.248   0.998
80679SOL     OW43933   6.864   6.925  11.848
80679SOL    HW143934   6.794   6.897  11.789
80679SOL    HW243935   6.935   6.951  11.790
80680SOL     OW43936  10.046   5.898   2.540
80680SOL    HW143937  10.002   5.824   2.581
80680SOL    HW243938  10.133   5.899   2.580
80681SOL     OW43939  13.354  14.417   5.093
80681SOL    HW143940  13.413  14.398   5.166
80681SOL    HW243941  13.288  14.348   5.098
80682SOL     OW43942   7.137   8.103  12.412
80682SOL    HW143943   7.190   8.056  12.477
80682SOL    HW243944   7.148   8.195  12.433
80683SOL     OW43945  14.471   7.263   5.312
80683SOL    HW143946  14.525   7.205   5.258
80683SOL    HW243947  14.409   7.204   5.354
80684SOL     OW43948  14.134   9.406  12.215
80684SOL    HW143949  14.084   9.384  12.136
80684SOL    HW243950  14.114   9.498  12.232
80685SOL     OW43951  11.613  11.567  11.042
80685SOL    HW143952  11.699  11.526  11.031
80685SOL    HW243953  11.588  11.594  10.954
80686SOL     OW43954  12.162  12.439   6.892
80686SOL    HW143955  12.204  12.459   6.975
80686SOL    HW243956  12.188  12.509   6.833
80687SOL     OW43957  11.285   6.826  10.323
80687SOL    HW143958  11.275   6.782  10.238
80687SOL    HW243959  11.330   6.908  10.302
80688SOL     OW43960   9.038  12.883   1.689
80688SOL    HW143961   9.009  12.930   1.611
80688SOL    HW243962   8.968  12.821   1.708
80689SOL     OW43963   5.187   5.169  11.217
80689SOL    HW143964   5.226   5.137  11.299
80689SOL    HW243965   5.197   5.096  11.156
80690SOL     OW43966  13.376   9.653   5.367
80690SOL    HW143967  13.370   9.558   5.364
80690SOL    HW243968  13.469   9.671   5.381
80691SOL     OW43969  10.459   9.772   3.751
80691SOL    HW143970  10.536   9.821   3.721
80691SOL    HW243971  10.496   9.700   3.802
80692SOL     OW43972   0.385  12.477   2.465
80692SOL    HW143973   0.316  12.447   2.405
80692SOL    HW243974   0.462  12.486   2.409
80693SOL     OW43975   1.359   6.192  13.993
80693SOL    HW143976   1.319   6.236  14.068
80693SOL    HW243977   1.446   6.231  13.984
80694SOL     OW43978   0.356   3.355   3.111
80694SOL    HW143979   0.289   3.399   3.059
80694SOL    HW243980   0.314   3.337   3.195
80695SOL     OW43981   6.385   3.062   9.982
80695SOL    HW143982   6.320   3.038  10.048
80695SOL    HW243983   6.361   3.152   9.958
80696SOL     OW43984  10.355   0.863   5.375
80696SOL    HW143985  10.306   0.910   5.307
80696SOL    HW243986  10.432   0.918   5.390
80697SOL     OW43987   1.446   7.579   1.444
80697SOL    HW143988   1.423   7.541   1.529
80697SOL    HW243989   1.537   7.552   1.429
80698SOL     OW43990   5.486  10.078   1.760
80698SOL    HW143991   5.532  10.162   1.755
80698SOL    HW243992   5.401  10.100   1.797
80699SOL     OW43993   4.235   1.536   3.388
80699SOL    HW143994   4.241   1.631   3.396
80699SOL    HW243995   4.285   1.503   3.463
80700SOL     OW43996   1.105   8.439   8.459
80700SOL    HW143997   1.080   8.352   8.490
80700SOL    HW243998   1.052   8.453   8.380
80701SOL     OW43999  13.592   9.068   0.988
80701SOL    HW144000  13.527   9.096   0.924
80701SOL    HW244001  13.543   9.061   1.070
80702SOL     OW44002   4.331   8.287  12.480
80702SOL    HW144003   4.336   8.192  12.478
80702SOL    HW244004   4.373   8.315  12.398
80703SOL     OW44005   0.770   6.817   0.262
80703SOL    HW144006   0.850   6.792   0.309
80703SOL    HW244007   0.794   6.809   0.169
80704SOL     OW44008   4.398   9.671  11.525
80704SOL    HW144009   4.483   9.628  11.517
80704SOL    HW244010   4.351   9.644  11.447
80705SOL     OW44011  11.774   4.338   7.668
80705SOL    HW144012  11.773   4.396   7.744
80705SOL    HW244013  11.818   4.259   7.700
80706SOL     OW44014   4.413  12.894   5.733
80706SOL    HW144015   4.463  12.837   5.792
80706SOL    HW244016   4.425  12.982   5.768
80707SOL     OW44017   7.893   1.837   8.665
80707SOL    HW144018   7.830   1.878   8.607
80707SOL    HW244019   7.957   1.905   8.683
80708SOL     OW44020   0.484  11.436   6.377
80708SOL    HW144021   0.552  11.475   6.433
80708SOL    HW244022   0.533  11.376   6.319
80709SOL     OW44023  10.018  14.310   9.421
80709SOL    HW144024   9.929  14.284   9.398
80709SOL    HW244025  10.074  14.246   9.379
80710SOL     OW44026   0.242  12.068   3.339
80710SOL    HW144027   0.272  12.001   3.400
80710SOL    HW244028   0.288  12.049   3.257
80711SOL     OW44029   6.386   8.968   7.141
80711SOL    HW144030   6.450   8.922   7.086
80711SOL    HW244031   6.431   9.049   7.166
80712SOL     OW44032   5.022   6.506   5.011
80712SOL    HW144033   4.935   6.480   4.981
80712SOL    HW244034   5.071   6.520   4.930
80713SOL     OW44035   8.784  10.962   2.669
80713SOL    HW144036   8.804  10.915   2.588
80713SOL    HW244037   8.692  10.942   2.687
80714SOL     OW44038   6.040   3.105   6.380
80714SOL    HW144039   6.014   3.015   6.397
80714SOL    HW244040   5.963   3.158   6.403
80715SOL     OW44041  12.572  12.466   5.173
80715SOL    HW144042  12.582  12.382   5.128
80715SOL    HW244043  12.646  12.471   5.233
80716SOL     OW44044  14.435  12.007   8.227
80716SOL    HW144045  14.484  11.937   8.272
80716SOL    HW244046  14.502  12.062   8.189
80717SOL     OW44047  11.678   4.481  14.539
80717SOL    HW144048  11.674   4.406  14.599
80717SOL    HW244049  11.586   4.502  14.522
80718SOL     OW44050   7.215  13.155  14.308
80718SOL    HW144051   7.309  13.175  14.306
80718SOL    HW244052   7.207  13.073  14.260
80719SOL     OW44053   0.970   8.982   3.580
80719SOL    HW144054   1.049   8.988   3.634
80719SOL    HW244055   0.901   9.020   3.635
80720SOL     OW44056   5.143   2.377   0.738
80720SOL    HW144057   5.222   2.430   0.725
80720SOL    HW244058   5.110   2.406   0.824
80721SOL     OW44059  14.860   0.628   9.198
80721SOL    HW144060   0.067   0.585   9.239
80721SOL    HW244061   0.030   0.698   9.146
80722SOL     OW44062  13.209   6.209   8.048
80722SOL    HW144063  13.183   6.218   7.956
80722SOL    HW244064  13.133   6.239   8.098
80723SOL     OW44065   4.028   7.157   3.172
80723SOL    HW144066   4.034   7.061   3.170
80723SOL    HW244067   3.952   7.175   3.227
80724SOL     OW44068   3.907  14.801   7.365
80724SOL    HW144069   3.955  14.840   7.292
80724SOL    HW244070   3.949  14.716   7.378
80725SOL     OW44071   2.218  12.186   1.025
80725SOL    HW144072   2.135  12.227   1.044
80725SOL    HW244073   2.280  12.258   1.018
80726SOL     OW44074   3.884  13.981  14.495
80726SOL    HW144075   3.839  14.065  14.494
80726SOL    HW244076   3.975  14.003  14.477
80727SOL     OW44077  14.052   0.295   4.376
80727SOL    HW144078  14.063   0.200   4.388
80727SOL    HW244079  13.958   0.309   4.381
80728SOL     OW44080  14.116  13.077   7.006
80728SOL    HW144081  14.161  13.135   6.945
80728SOL    HW244082  14.036  13.125   7.031
80729SOL     OW44083  10.385   9.322  10.153
80729SOL    HW144084  10.408   9.302  10.062
80729SOL    HW244085  10.294   9.351  10.149
80730SOL     OW44086   5.170   7.975   8.026
80730SOL    HW144087   5.251   8.022   8.050
80730SOL    HW244088   5.138   8.022   7.949
80731SOL     OW44089   3.650   9.310   0.736
80731SOL    HW144090   3.650   9.257   0.816
80731SOL    HW244091   3.640   9.400   0.767
80732SOL     OW44092   9.062  12.230   1.452
80732SOL    HW144093   8.994  12.189   1.506
80732SOL    HW244094   9.039  12.323   1.450
80733SOL     OW44095  10.892  14.226   4.805
80733SOL    HW144096  10.952  14.278   4.752
80733SOL    HW244097  10.902  14.136   4.772
80734SOL     OW44098   9.248   5.000   8.585
80734SOL    HW144099   9.308   4.942   8.538
80734SOL    HW244100   9.246   4.964   8.674
80735SOL     OW44101   1.100  11.144   5.410
80735SOL    HW144102   1.194  11.133   5.427
80735SOL    HW244103   1.059  11.142   5.496
80736SOL     OW44104   0.938   7.103   7.998
80736SOL    HW144105   0.928   7.130   7.907
80736SOL    HW244106   1.032   7.091   8.010
80737SOL     OW44107   2.934  12.346  14.783
80737SOL    HW144108   2.852  12.345  14.833
80737SOL    HW244109   2.975  12.429  14.806
80738SOL     OW44110   1.903   2.362   3.747
80738SOL    HW144111   1.931   2.274   3.771
80738SOL    HW244112   1.958   2.385   3.673
80739SOL     OW44113  13.274   4.428   8.876
80739SOL    HW144114  13.332   4.436   8.952
80739SOL    HW244115  13.190   4.400   8.912
80740SOL     OW44116  13.784  11.549  10.058
80740SOL    HW144117  13.796  11.455  10.058
80740SOL    HW244118  13.712  11.565  10.119
80741SOL     OW44119   2.476   5.775  11.291
80741SOL    HW144120   2.490   5.860  11.332
80741SOL    HW244121   2.533   5.715  11.339
80742SOL     OW44122   5.050   4.282   3.552
80742SOL    HW144123   5.102   4.290   3.632
80742SOL    HW244124   4.962   4.307   3.578
80743SOL     OW44125  13.752   9.170   3.577
80743SOL    HW144126  13.794   9.256   3.589
80743SOL    HW244127  13.756   9.129   3.663
80744SOL     OW44128  12.801   9.637   5.503
80744SOL    HW144129  12.795   9.587   5.585
80744SOL    HW244130  12.870   9.594   5.454
80745SOL     OW44131   0.316   0.602  14.778
80745SOL    HW144132   0.268   0.619  14.697
80745SOL    HW244133   0.407   0.593  14.749
80746SOL     OW44134   9.588  14.090  11.101
80746SOL    HW144135   9.518  14.105  11.037
80746SOL    HW244136   9.669  14.090  11.049
80747SOL     OW44137  10.493  13.198   6.761
80747SOL    HW144138  10.458  13.287   6.765
80747SOL    HW244139  10.451  13.159   6.685
80748SOL     OW44140  13.641  10.224  14.597
80748SOL    HW144141  13.550  10.196  14.585
80748SOL    HW244142  13.675  10.165  14.664
80749SOL     OW44143  14.242   2.851   9.939
80749SOL    HW144144  14.283   2.931   9.974
80749SOL    HW244145  14.303   2.820   9.873
80750SOL     OW44146   3.664  10.211   5.566
80750SOL    HW144147   3.735  10.147   5.575
80750SOL    HW244148   3.694  10.272   5.499
80751SOL     OW44149  14.458   1.087   2.205
80751SOL    HW144150  14.404   1.163   2.181
80751SOL    HW244151  14.403   1.036   2.264
80752SOL     OW44152   5.737   9.286   5.699
80752SOL    HW144153   5.703   9.251   5.617
80752SOL    HW244154   5.819   9.239   5.713
80753SOL     OW44155   9.747   9.558   9.818
80753SOL    HW144156   9.689   9.628   9.789
80753SOL    HW244157   9.690   9.482   9.830
80754SOL     OW44158   6.065   3.054   1.812
80754SOL    HW144159   6.090   3.146   1.798
80754SOL    HW244160   6.147   3.006   1.808
80755SOL     OW44161  14.605   1.899   7.246
80755SOL    HW144162  14.594   1.885   7.340
80755SOL    HW244163  14.687   1.949   7.239
80756SOL     OW44164   9.476  11.742  11.241
80756SOL    HW144165   9.513  11.734  11.153
80756SOL    HW244166   9.381  11.744  11.228
80757SOL     OW44167   9.955   9.285   5.205
80757SOL    HW144168   9.969   9.373   5.172
80757SOL    HW244169   9.860   9.272   5.201
80758SOL     OW44170   7.578  12.232   2.195
80758SOL    HW144171   7.504  12.292   2.196
80758SOL    HW244172   7.639  12.269   2.132
80759SOL     OW44173   1.981   8.407   9.359
80759SOL    HW144174   1.921   8.380   9.289
80759SOL    HW244175   2.013   8.492   9.331
80760SOL     OW44176   7.671   5.946   6.189
80760SOL    HW144177   7.720   6.015   6.234
80760SOL    HW244178   7.646   5.885   6.258
80761SOL     OW44179  12.463   8.295  12.011
80761SOL    HW144180  12.486   8.202  12.007
80761SOL    HW244181  12.544   8.339  12.035
80762SOL     OW44182   0.395  14.837  10.783
80762SOL    HW144183   0.381  14.797  10.869
80762SOL    HW244184   0.490  14.830  10.770
80763SOL     OW44185   0.127  14.305   5.813
80763SOL    HW144186   0.162  14.225   5.773
80763SOL    HW244187   0.038  14.281   5.839
80764SOL     OW44188   5.816  11.302   5.243
80764SOL    HW144189   5.770  11.357   5.306
80764SOL    HW244190   5.748  11.248   5.203
80765SOL     OW44191   6.928   1.964   5.866
80765SOL    HW144192   7.016   1.971   5.904
80765SOL    HW244193   6.874   1.927   5.935
80766SOL     OW44194  10.086  13.904  14.240
80766SOL    HW144195  10.083  13.836  14.173
80766SOL    HW244196  10.067  13.985  14.192
80767SOL     OW44197   3.480   7.804  11.491
80767SOL    HW144198   3.468   7.717  11.453
80767SOL    HW244199   3.465   7.791  11.585
80768SOL     OW44200  13.576  14.113   5.420
80768SOL    HW144201  13.524  14.042   5.382
80768SOL    HW244202  13.529  14.193   5.395
80769SOL     OW44203  10.507   0.873   2.323
80769SOL    HW144204  10.541   0.805   2.265
80769SOL    HW244205  10.567   0.947   2.311
80770SOL     OW44206   0.874   8.210   2.275
80770SOL    HW144207   0.910   8.236   2.359
80770SOL    HW244208   0.941   8.236   2.211
80771SOL     OW44209   0.130   9.756  11.526
80771SOL    HW144210   0.115   9.777  11.618
80771SOL    HW244211   0.049   9.714  11.497
80772SOL     OW44212  14.358   0.858   4.893
80772SOL    HW144213  14.365   0.953   4.883
80772SOL    HW244214  14.433   0.835   4.948
80773SOL     OW44215   8.593   0.581  11.813
80773SOL    HW144216   8.667   0.557  11.756
80773SOL    HW244217   8.530   0.622  11.754
80774SOL     OW44218   0.097  12.865   6.699
80774SOL    HW144219   0.119  12.781   6.660
80774SOL    HW244220   0.016  12.892   6.656
80775SOL     OW44221   8.906   2.941   9.080
80775SOL    HW144222   8.933   2.849   9.074
80775SOL    HW244223   8.881   2.953   9.172
80776SOL     OW44224   8.187  12.903   8.880
80776SOL    HW144225   8.232  12.819   8.875
80776SOL    HW244226   8.121  12.891   8.948
80777SOL     OW44227  10.716   6.553   1.037
80777SOL    HW144228  10.783   6.497   1.000
80777SOL    HW244229  10.736   6.640   1.002
80778SOL     OW44230   7.941   8.586  14.011
80778SOL    HW144231   7.847   8.567  14.006
80778SOL    HW244232   7.958   8.644  13.937
80779SOL     OW44233  10.736   8.600  13.190
80779SOL    HW144234  10.642   8.588  13.206
80779SOL    HW244235  10.746   8.584  13.096
80780SOL     OW44236  14.728   1.443   7.062
80780SOL    HW144237  14.678   1.523   7.080
80780SOL    HW244238  14.677   1.374   7.105
80781SOL     OW44239   0.973   4.153  12.512
80781SOL    HW144240   0.954   4.206  12.589
80781SOL    HW244241   1.014   4.074  12.547
80782SOL     OW44242  13.840   7.646  14.074
80782SOL    HW144243  13.793   7.588  14.134
80782SOL    HW244244  13.867   7.720  14.129
80783SOL     OW44245   2.480  10.603   3.759
80783SOL    HW144246   2.447  10.690   3.781
80783SOL    HW244247   2.476  10.554   3.841
80784SOL     OW44248   4.101   8.037   5.122
80784SOL    HW144249   4.166   7.984   5.169
80784SOL    HW244250   4.144   8.060   5.039
80785SOL     OW44251  12.161  12.003   8.549
80785SOL    HW144252  12.123  12.037   8.468
80785SOL    HW244253  12.195  12.081   8.593
80786SOL     OW44254   2.358  12.936   6.630
80786SOL    HW144255   2.306  12.933   6.550
80786SOL    HW244256   2.296  12.960   6.699
80787SOL     OW44257   7.222   5.375   0.612
80787SOL    HW144258   7.139   5.327   0.607
80787SOL    HW244259   7.198   5.467   0.598
80788SOL     OW44260   5.357  14.580   2.417
80788SOL    HW144261   5.351  14.602   2.511
80788SOL    HW244262   5.380  14.663   2.375
80789SOL     OW44263  11.214   3.505   0.295
80789SOL    HW144264  11.160   3.442   0.247
80789SOL    HW244265  11.232   3.574   0.231
80790SOL     OW44266   5.451   1.077  10.752
80790SOL    HW144267   5.493   1.156  10.786
80790SOL    HW244268   5.452   1.089  10.657
80791SOL     OW44269   6.823   6.646   2.713
80791SOL    HW144270   6.789   6.697   2.639
80791SOL    HW244271   6.792   6.556   2.696
80792SOL     OW44272   1.196   5.176   0.017
80792SOL    HW144273   1.233   5.097   0.057
80792SOL    HW244274   1.143   5.215   0.086
80793SOL     OW44275   9.331   4.524  12.339
80793SOL    HW144276   9.277   4.484  12.408
80793SOL    HW244277   9.289   4.496  12.258
80794SOL     OW44278   8.842   1.265  12.945
80794SOL    HW144279   8.777   1.198  12.969
80794SOL    HW244280   8.889   1.227  12.871
80795SOL     OW44281  12.180   6.375  14.514
80795SOL    HW144282  12.132   6.380  14.596
80795SOL    HW244283  12.117   6.342  14.451
80796SOL     OW44284   7.814   8.271   7.269
80796SOL    HW144285   7.743   8.308   7.323
80796SOL    HW244286   7.787   8.288   7.179
80797SOL     OW44287   9.121   7.769   6.925
80797SOL    HW144288   9.107   7.806   6.838
80797SOL    HW244289   9.054   7.809   6.980
80798SOL     OW44290  11.310   5.721   9.420
80798SOL    HW144291  11.288   5.632   9.448
80798SOL    HW244292  11.364   5.756   9.491
80799SOL     OW44293   9.678  14.276  10.034
80799SOL    HW144294   9.661  14.347   9.972
80799SOL    HW244295   9.602  14.218  10.024
80800SOL     OW44296   8.563  11.330   7.869
80800SOL    HW144297   8.480  11.370   7.841
80800SOL    HW244298   8.605  11.304   7.787
80801SOL     OW44299  11.930   7.611   0.052
80801SOL    HW144300  11.861   7.676   0.066
80801SOL    HW244301  12.007   7.662   0.030
80802SOL     OW44302  10.364   2.111   9.731
80802SOL    HW144303  10.271   2.120   9.709
80802SOL    HW244304  10.407   2.178   9.678
80803SOL     OW44305   9.691   7.220   3.731
80803SOL    HW144306   9.604   7.193   3.759
80803SOL    HW244307   9.680   7.309   3.698
80804SOL     OW44308   8.205   2.068  14.474
80804SOL    HW144309   8.174   2.044  14.562
80804SOL    HW244310   8.125   2.085  14.425
80805SOL     OW44311   9.482  13.299  12.657
80805SOL    HW144312   9.502  13.338  12.742
80805SOL    HW244313   9.399  13.253  12.670
80806SOL     OW44314   9.530   8.886   1.399
80806SOL    HW144315   9.473   8.810   1.382
80806SOL    HW244316   9.568   8.869   1.485
80807SOL     OW44317   8.189  10.370   2.241
80807SOL    HW144318   8.115  10.326   2.197
80807SOL    HW244319   8.265  10.318   2.217
80808SOL     OW44320   5.871   1.617   1.335
80808SOL    HW144321   5.887   1.708   1.309
80808SOL    HW244322   5.819   1.623   1.414
80809SOL     OW44323   4.072   2.975  11.567
80809SOL    HW144324   3.984   2.939  11.564
80809SOL    HW244325   4.062   3.065  11.535
80810SOL     OW44326   1.395   0.792   0.485
80810SOL    HW144327   1.347   0.850   0.426
80810SOL    HW244328   1.355   0.806   0.571
80811SOL     OW44329   4.150   5.699   9.525
80811SOL    HW144330   4.224   5.661   9.574
80811SOL    HW244331   4.191   5.749   9.455
80812SOL     OW44332  11.147   0.258   7.143
80812SOL    HW144333  11.133   0.303   7.226
80812SOL    HW244334  11.095   0.178   7.150
80813SOL     OW44335   4.320   5.480  10.899
80813SOL    HW144336   4.366   5.546  10.952
80813SOL    HW244337   4.390   5.424  10.865
80814SOL     OW44338   4.198  13.731  13.557
80814SOL    HW144339   4.212  13.723  13.651
80814SOL    HW244340   4.170  13.643  13.530
80815SOL     OW44341  14.743  11.131   7.790
80815SOL    HW144342  14.803  11.086   7.731
80815SOL    HW244343  14.703  11.061   7.841
80816SOL     OW44344  14.054   1.742  11.799
80816SOL    HW144345  13.985   1.799  11.832
80816SOL    HW244346  14.103   1.716  11.876
80817SOL     OW44347  14.472   3.693   7.176
80817SOL    HW144348  14.382   3.718   7.196
80817SOL    HW244349  14.477   3.696   7.080
80818SOL     OW44350   4.135  10.630   8.935
80818SOL    HW144351   4.070  10.574   8.978
80818SOL    HW244352   4.219  10.596   8.964
80819SOL     OW44353   7.298  12.158   7.901
80819SOL    HW144354   7.306  12.223   7.970
80819SOL    HW244355   7.385  12.119   7.894
80820SOL     OW44356   7.915  11.185   6.833
80820SOL    HW144357   7.983  11.125   6.801
80820SOL    HW244358   7.939  11.201   6.924
80821SOL     OW44359   0.408   5.889   8.201
80821SOL    HW144360   0.490   5.879   8.153
80821SOL    HW244361   0.406   5.814   8.261
80822SOL     OW44362   7.557   8.561   0.811
80822SOL    HW144363   7.467   8.584   0.837
80822SOL    HW244364   7.605   8.559   0.894
80823SOL     OW44365   3.393   3.051   3.850
80823SOL    HW144366   3.393   2.961   3.882
80823SOL    HW244367   3.396   3.043   3.755
80824SOL     OW44368   7.354  11.563  12.097
80824SOL    HW144369   7.362  11.600  12.184
80824SOL    HW244370   7.275  11.602  12.061
80825SOL     OW44371   0.810   3.880  13.128
80825SOL    HW144372   0.799   3.816  13.058
80825SOL    HW244373   0.845   3.957  13.084
80826SOL     OW44374   9.667   7.141  11.624
80826SOL    HW144375   9.725   7.161  11.551
80826SOL    HW244376   9.599   7.085  11.586
80827SOL     OW44377  11.267   7.299  10.006
80827SOL    HW144378  11.288   7.230  10.069
80827SOL    HW244379  11.271   7.380  10.057
80828SOL     OW44380   3.645  13.586   2.883
80828SOL    HW144381   3.661  13.554   2.795
80828SOL    HW244382   3.627  13.680   2.872
80829SOL     OW44383  12.198   0.146   4.625
80829SOL    HW144384  12.232   0.232   4.599
80829SOL    HW244385  12.261   0.084   4.589
80830SOL     OW44386   7.315  12.314   8.410
80830SOL    HW144387   7.294  12.242   8.469
80830SOL    HW244388   7.386  12.361   8.454
80831SOL     OW44389  12.164   0.015   4.881
80831SOL    HW144390  12.161   0.040   4.789
80831SOL    HW244391  12.206   0.089   4.924
80832SOL     OW44392  10.571  10.490   3.819
80832SOL    HW144393  10.516  10.567   3.805
80832SOL    HW244394  10.573  10.480   3.914
80833SOL     OW44395   4.364  11.980  10.384
80833SOL    HW144396   4.453  11.993  10.350
80833SOL    HW244397   4.375  11.977  10.479
80834SOL     OW44398   5.823   5.717  14.744
80834SOL    HW144399   5.899   5.726  14.686
80834SOL    HW244400   5.780   5.637  14.713
80835SOL     OW44401   6.375   9.218   7.832
80835SOL    HW144402   6.340   9.275   7.900
80835SOL    HW244403   6.467   9.208   7.854
80836SOL     OW44404   8.354   9.055  10.019
80836SOL    HW144405   8.424   9.097   9.970
80836SOL    HW244406   8.325   9.122  10.081
80837SOL     OW44407  12.727  11.859  10.848
80837SOL    HW144408  12.695  11.827  10.932
80837SOL    HW244409  12.731  11.954  10.858
80838SOL     OW44410  11.626   5.266   3.003
80838SOL    HW144411  11.619   5.173   2.981
80838SOL    HW244412  11.607   5.271   3.096
80839SOL     OW44413   3.138   7.960   4.867
80839SOL    HW144414   3.224   8.002   4.878
80839SOL    HW244415   3.145   7.914   4.783
80840SOL     OW44416  12.967   7.634   6.471
80840SOL    HW144417  12.974   7.563   6.408
80840SOL    HW244418  13.013   7.708   6.430
80841SOL     OW44419  14.157   3.027   7.309
80841SOL    HW144420  14.123   2.962   7.370
80841SOL    HW244421  14.165   3.107   7.360
80842SOL     OW44422   4.423   8.036  14.365
80842SOL    HW144423   4.511   8.002  14.354
80842SOL    HW244424   4.402   8.079  14.282
80843SOL     OW44425   8.697   5.647   5.900
80843SOL    HW144426   8.604   5.661   5.920
80843SOL    HW244427   8.704   5.553   5.883
80844SOL     OW44428   8.738  11.829  11.894
80844SOL    HW144429   8.716  11.751  11.945
80844SOL    HW244430   8.833  11.836  11.902
80845SOL     OW44431   6.674   5.070  11.796
80845SOL    HW144432   6.591   5.051  11.753
80845SOL    HW244433   6.692   5.162  11.777
80846SOL     OW44434   0.091  13.736   2.582
80846SOL    HW144435   0.176  13.726   2.625
80846SOL    HW244436   0.039  13.786   2.644
80847SOL     OW44437  12.177  11.956   2.458
80847SOL    HW144438  12.140  12.022   2.400
80847SOL    HW244439  12.244  12.002   2.508
80848SOL     OW44440   5.168   9.979   9.607
80848SOL    HW144441   5.120   9.897   9.612
80848SOL    HW244442   5.230   9.975   9.680
80849SOL     OW44443   2.207   2.123   4.298
80849SOL    HW144444   2.155   2.134   4.219
80849SOL    HW244445   2.148   2.078   4.359
80850SOL     OW44446   3.158  10.032   1.475
80850SOL    HW144447   3.176  10.076   1.392
80850SOL    HW244448   3.126   9.945   1.449
80851SOL     OW44449   2.240   5.778   0.294
80851SOL    HW144450   2.220   5.700   0.346
80851SOL    HW244451   2.165   5.787   0.235
80852SOL     OW44452   7.245  10.887  11.110
80852SOL    HW144453   7.257  10.834  11.189
80852SOL    HW244454   7.231  10.822  11.041
80853SOL     OW44455  14.757  10.392  13.396
80853SOL    HW144456  14.755  10.418  13.304
80853SOL    HW244457  14.739  10.473  13.444
80854SOL     OW44458   8.335  11.113   5.346
80854SOL    HW144459   8.366  11.027   5.372
80854SOL    HW244460   8.305  11.102   5.256
80855SOL     OW44461   9.335  13.607  11.011
80855SOL    HW144462   9.407  13.545  11.017
80855SOL    HW244463   9.372  13.690  11.043
80856SOL     OW44464   9.919   7.068  14.568
80856SOL    HW144465   9.873   7.097  14.646
80856SOL    HW244466  10.012   7.081  14.588
80857SOL     OW44467   1.293  12.555   8.729
80857SOL    HW144468   1.262  12.558   8.820
80857SOL    HW244469   1.319  12.645   8.710
80858SOL     OW44470  14.587   4.619  12.212
80858SOL    HW144471  14.653   4.565  12.256
80858SOL    HW244472  14.618   4.627  12.122
80859SOL     OW44473   2.883  11.995   4.394
80859SOL    HW144474   2.912  12.009   4.304
80859SOL    HW244475   2.885  11.900   4.406
80860SOL     OW44476   6.891  12.299   6.706
80860SOL    HW144477   6.834  12.235   6.749
80860SOL    HW244478   6.868  12.383   6.747
80861SOL     OW44479  14.848   2.549   8.476
80861SOL    HW144480  14.856   2.617   8.543
80861SOL    HW244481   0.017   2.590   8.397
80862SOL     OW44482   9.665   1.475   1.244
80862SOL    HW144483   9.587   1.461   1.191
80862SOL    HW244484   9.675   1.394   1.294
80863SOL     OW44485   9.255   2.473   2.428
80863SOL    HW144486   9.193   2.520   2.483
80863SOL    HW244487   9.200   2.421   2.369
80864SOL     OW44488   9.260   4.382  13.079
80864SOL    HW144489   9.239   4.336  12.998
80864SOL    HW244490   9.354   4.399  13.073
80865SOL     OW44491   1.965  11.295   4.278
80865SOL    HW144492   1.965  11.205   4.311
80865SOL    HW244493   1.944  11.348   4.355
80866SOL     OW44494   4.657   0.215   9.347
80866SOL    HW144495   4.565   0.216   9.371
80866SOL    HW244496   4.682   0.122   9.350
80867SOL     OW44497   3.204   1.543   3.376
80867SOL    HW144498   3.234   1.455   3.400
80867SOL    HW244499   3.235   1.598   3.448
80868SOL     OW44500   6.494   7.280   3.657
80868SOL    HW144501   6.421   7.334   3.626
80868SOL    HW244502   6.452   7.200   3.688
80869SOL     OW44503  10.013   7.421   0.466
80869SOL    HW144504  10.090   7.374   0.496
80869SOL    HW244505   9.986   7.474   0.541
80870SOL     OW44506   2.098   4.471   0.561
80870SOL    HW144507   2.177   4.500   0.606
80870SOL    HW244508   2.128   4.407   0.497
80871SOL     OW44509  11.188   3.531   9.897
80871SOL    HW144510  11.186   3.436   9.911
80871SOL    HW244511  11.170   3.568   9.983
80872SOL     OW44512   9.892   4.085   9.987
80872SOL    HW144513   9.958   4.082   9.918
80872SOL    HW244514   9.852   4.171   9.979
80873SOL     OW44515   5.238   9.491   0.734
80873SOL    HW144516   5.273   9.422   0.791
80873SOL    HW244517   5.290   9.568   0.755
80874SOL     OW44518   3.211  14.198   9.086
80874SOL    HW144519   3.156  14.271   9.113
80874SOL    HW244520   3.196  14.131   9.152
80875SOL     OW44521   4.004  12.315   4.679
80875SOL    HW144522   3.978  12.236   4.727
80875SOL    HW244523   3.935  12.327   4.614
80876SOL     OW44524  10.444   4.449   9.752
80876SOL    HW144525  10.414   4.442   9.661
80876SOL    HW244526  10.363   4.461   9.802
80877SOL     OW44527  12.217  14.781   1.607
80877SOL    HW144528  12.183  14.693   1.592
80877SOL    HW244529  12.219  14.821   1.520
80878SOL     OW44530   8.726   3.073   1.040
80878SOL    HW144531   8.778   3.102   0.965
80878SOL    HW244532   8.689   2.989   1.012
80879SOL     OW44533   1.827   5.731  13.474
80879SOL    HW144534   1.812   5.765  13.562
80879SOL    HW244535   1.747   5.683  13.454
80880SOL     OW44536  11.332   3.379   0.900
80880SOL    HW144537  11.418   3.389   0.859
80880SOL    HW244538  11.329   3.287   0.927
80881SOL     OW44539   3.983   5.548  11.695
80881SOL    HW144540   4.001   5.486  11.766
80881SOL    HW244541   3.973   5.494  11.617
80882SOL     OW44542   0.257  13.391  13.819
80882SOL    HW144543   0.221  13.460  13.873
80882SOL    HW244544   0.227  13.411  13.730
80883SOL     OW44545   5.188   5.145   7.306
80883SOL    HW144546   5.250   5.075   7.285
80883SOL    HW244547   5.235   5.200   7.370
80884SOL     OW44548   7.057  10.933   1.632
80884SOL    HW144549   6.984  10.897   1.582
80884SOL    HW244550   7.095  11.000   1.575
80885SOL     OW44551   4.768  11.897   1.705
80885SOL    HW144552   4.851  11.943   1.717
80885SOL    HW244553   4.733  11.887   1.794
80886SOL     OW44554   4.626   7.531  11.984
80886SOL    HW144555   4.640   7.438  11.965
80886SOL    HW244556   4.712   7.563  12.011
80887SOL     OW44557  13.695  12.225  10.638
80887SOL    HW144558  13.699  12.179  10.554
80887SOL    HW244559  13.612  12.197  10.676
80888SOL     OW44560   5.430   5.025   2.302
80888SOL    HW144561   5.336   5.038   2.291
80888SOL    HW244562   5.441   4.930   2.306
80889SOL     OW44563   5.851   0.009   1.280
80889SOL    HW144564   5.897   0.027   1.198
80889SOL    HW244565   5.881   0.078   1.340
80890SOL     OW44566   7.025   2.667   0.473
80890SOL    HW144567   6.929   2.673   0.475
80890SOL    HW244568   7.045   2.646   0.381
80891SOL     OW44569   1.499  12.376   8.630
80891SOL    HW144570   1.432  12.431   8.671
80891SOL    HW244571   1.499  12.296   8.683
80892SOL     OW44572  14.074  10.437   1.294
80892SOL    HW144573  14.045  10.429   1.385
80892SOL    HW244574  14.053  10.528   1.271
80893SOL     OW44575   6.285   6.686  13.170
80893SOL    HW144576   6.339   6.610  13.190
80893SOL    HW244577   6.200   6.667  13.209
80894SOL     OW44578  13.320   1.852  12.361
80894SOL    HW144579  13.392   1.862  12.423
80894SOL    HW244580  13.249   1.904  12.399
80895SOL     OW44581   9.555  11.943   8.191
80895SOL    HW144582   9.601  11.986   8.118
80895SOL    HW244583   9.594  11.855   8.195
80896SOL     OW44584   1.190   4.855   4.155
80896SOL    HW144585   1.283   4.879   4.157
80896SOL    HW244586   1.146   4.927   4.199
80897SOL     OW44587  10.598  10.508  13.659
80897SOL    HW144588  10.634  10.467  13.738
80897SOL    HW244589  10.672  10.512  13.599
80898SOL     OW44590  12.188  14.398   3.163
80898SOL    HW144591  12.227  14.472   3.208
80898SOL    HW244592  12.260  14.335   3.153
80899SOL     OW44593   4.001   8.999  12.993
80899SOL    HW144594   4.076   8.994  13.051
80899SOL    HW244595   4.039   8.993  12.905
80900SOL     OW44596  10.655   7.240  14.305
80900SOL    HW144597  10.591   7.307  14.331
80900SOL    HW244598  10.607   7.183  14.245
80901SOL     OW44599   7.313   0.527   2.862
80901SOL    HW144600   7.391   0.518   2.807
80901SOL    HW244601   7.260   0.592   2.817
80902SOL     OW44602   2.225   3.789  11.283
80902SOL    HW144603   2.234   3.790  11.188
80902SOL    HW244604   2.295   3.846  11.315
80903SOL     OW44605   9.276  10.570   4.463
80903SOL    HW144606   9.306  10.602   4.378
80903SOL    HW244607   9.290  10.476   4.460
80904SOL     OW44608   2.131   7.301   6.466
80904SOL    HW144609   2.081   7.349   6.400
80904SOL    HW244610   2.201   7.361   6.492
80905SOL     OW44611  13.663   7.119   5.402
80905SOL    HW144612  13.752   7.147   5.381
80905SOL    HW244613  13.657   7.129   5.498
80906SOL     OW44614  11.756   6.034   3.768
80906SOL    HW144615  11.685   6.097   3.758
80906SOL    HW244616  11.753   6.010   3.861
80907SOL     OW44617   4.556  14.517   0.258
80907SOL    HW144618   4.468  14.555   0.253
80907SOL    HW244619   4.572  14.507   0.351
80908SOL     OW44620   7.926   7.911  10.468
80908SOL    HW144621   7.941   7.954  10.384
80908SOL    HW244622   7.911   7.819  10.446
80909SOL     OW44623   4.758   6.848   3.026
80909SOL    HW144624   4.685   6.874   2.969
80909SOL    HW244625   4.724   6.773   3.074
80910SOL     OW44626   1.367  10.768   0.589
80910SOL    HW144627   1.278  10.752   0.618
80910SOL    HW244628   1.416  10.691   0.618
80911SOL     OW44629  14.718   9.478   0.383
80911SOL    HW144630  14.751   9.554   0.334
80911SOL    HW244631  14.786   9.412   0.374
80912SOL     OW44632   5.194   5.399   2.075
80912SOL    HW144633   5.229   5.434   2.157
80912SOL    HW244634   5.267   5.408   2.013
80913SOL     OW44635   8.454   5.469   5.882
80913SOL    HW144636   8.384   5.468   5.946
80913SOL    HW244637   8.409   5.477   5.798
80914SOL     OW44638  10.031  10.390   0.835
80914SOL    HW144639  10.009  10.367   0.745
80914SOL    HW244640  10.102  10.330   0.859
80915SOL     OW44641   2.463   8.724  11.716
80915SOL    HW144642   2.500   8.812  11.709
80915SOL    HW244643   2.468   8.703  11.809
80916SOL     OW44644   0.255   0.436   0.374
80916SOL    HW144645   0.177   0.386   0.350
80916SOL    HW244646   0.269   0.415   0.467
80917SOL     OW44647   2.363   2.812   3.378
80917SOL    HW144648   2.363   2.807   3.474
80917SOL    HW244649   2.443   2.861   3.357
80918SOL     OW44650   3.450  13.655   8.411
80918SOL    HW144651   3.420  13.621   8.496
80918SOL    HW244652   3.460  13.749   8.425
80919SOL     OW44653   3.231  14.768   8.870
80919SOL    HW144654   3.161  14.716   8.831
80919SOL    HW244655   3.306  14.756   8.811
80920SOL     OW44656   5.105   0.982  12.737
80920SOL    HW144657   5.039   1.031  12.688
80920SOL    HW244658   5.093   1.010  12.828
80921SOL     OW44659   1.573   2.931   0.632
80921SOL    HW144660   1.538   2.846   0.656
80921SOL    HW244661   1.638   2.912   0.564
80922SOL     OW44662   4.925  14.342  13.710
80922SOL    HW144663   4.921  14.433  13.679
80922SOL    HW244664   4.889  14.290  13.637
80923SOL     OW44665   1.504  13.993  13.340
80923SOL    HW144666   1.515  13.921  13.402
80923SOL    HW244667   1.578  13.984  13.279
80924SOL     OW44668   1.495  12.977   5.808
80924SOL    HW144669   1.530  13.041   5.747
80924SOL    HW244670   1.552  12.982   5.885
80925SOL     OW44671   4.978   9.020   7.455
80925SOL    HW144672   5.002   9.104   7.417
80925SOL    HW244673   4.891   9.001   7.421
80926SOL     OW44674   4.130   1.365   6.074
80926SOL    HW144675   4.101   1.279   6.043
80926SOL    HW244676   4.139   1.354   6.169
80927SOL     OW44677   5.728   9.939   6.595
80927SOL    HW144678   5.752   9.874   6.529
80927SOL    HW244679   5.757  10.022   6.558
80928SOL     OW44680   5.544  11.043   1.772
80928SOL    HW144681   5.544  10.949   1.751
80928SOL    HW244682   5.635  11.063   1.793
80929SOL     OW44683  10.870   8.499   4.924
80929SOL    HW144684  10.814   8.421   4.919
80929SOL    HW244685  10.939   8.482   4.859
80930SOL     OW44686   6.370   0.798   7.773
80930SOL    HW144687   6.453   0.845   7.778
80930SOL    HW244688   6.387   0.725   7.713
80931SOL     OW44689  14.416  12.675  14.784
80931SOL    HW144690  14.486  12.660  14.848
80931SOL    HW244691  14.356  12.601  14.798
80932SOL     OW44692   6.629   4.177   0.650
80932SOL    HW144693   6.545   4.199   0.609
80932SOL    HW244694   6.694   4.221   0.595
80933SOL     OW44695   3.093  11.964  11.376
80933SOL    HW144696   3.115  12.042  11.324
80933SOL    HW244697   3.043  11.998  11.450
80934SOL     OW44698  12.246   3.466   6.069
80934SOL    HW144699  12.254   3.504   5.981
80934SOL    HW244700  12.189   3.526   6.116
80935SOL     OW44701  13.953   3.894   1.241
80935SOL    HW144702  13.900   3.815   1.250
80935SOL    HW244703  13.949   3.915   1.147
80936SOL     OW44704   9.750   5.296  14.285
80936SOL    HW144705   9.749   5.379  14.332
80936SOL    HW244706   9.719   5.231  14.349
80937SOL     OW44707   4.402  14.617   4.170
80937SOL    HW144708   4.363  14.656   4.091
80937SOL    HW244709   4.493  14.600   4.145
80938SOL     OW44710   2.360   7.656  13.694
80938SOL    HW144711   2.421   7.624  13.629
80938SOL    HW244712   2.403   7.639  13.778
80939SOL     OW44713   5.892  10.265  10.812
80939SOL    HW144714   5.881  10.335  10.749
80939SOL    HW244715   5.987  10.257  10.823
80940SOL     OW44716  14.028  10.331   1.579
80940SOL    HW144717  13.948  10.353   1.626
80940SOL    HW244718  14.060  10.252   1.622
80941SOL     OW44719   0.198   2.291   9.444
80941SOL    HW144720   0.285   2.290   9.404
80941SOL    HW244721   0.200   2.368   9.502
80942SOL     OW44722  10.558  10.908  11.995
80942SOL    HW144723  10.496  10.867  11.935
80942SOL    HW244724  10.644  10.887  11.959
80943SOL     OW44725   0.597   8.446  14.247
80943SOL    HW144726   0.535   8.499  14.296
80943SOL    HW244727   0.543   8.382  14.199
80944SOL     OW44728   1.832  10.141   9.354
80944SOL    HW144729   1.815  10.098   9.438
80944SOL    HW244730   1.748  10.140   9.309
80945SOL     OW44731   2.491  13.527   5.191
80945SOL    HW144732   2.410  13.539   5.240
80945SOL    HW244733   2.540  13.462   5.241
80946SOL     OW44734  14.256   9.862   9.786
80946SOL    HW144735  14.273   9.882   9.879
80946SOL    HW244736  14.254   9.767   9.782
80947SOL     OW44737  10.848   4.188   9.554
80947SOL    HW144738  10.902   4.237   9.616
80947SOL    HW244739  10.789   4.254   9.516
80948SOL     OW44740  12.696   4.910   3.415
80948SOL    HW144741  12.660   4.906   3.504
80948SOL    HW244742  12.620   4.913   3.358
80949SOL     OW44743  14.806  14.023  11.028
80949SOL    HW144744  14.843  14.108  11.052
80949SOL    HW244745   0.002  13.959  11.058
80950SOL     OW44746   2.612   8.374  13.609
80950SOL    HW144747   2.586   8.465  13.623
80950SOL    HW244748   2.629   8.341  13.698
80951SOL     OW44749  12.438   9.561   6.711
80951SOL    HW144750  12.370   9.616   6.750
80951SOL    HW244751  12.413   9.554   6.619
80952SOL     OW44752   6.352   9.668   4.467
80952SOL    HW144753   6.393   9.652   4.382
80952SOL    HW244754   6.269   9.620   4.463
80953SOL     OW44755   3.725  14.866   9.492
80953SOL    HW144756   3.636   0.010   9.526
80953SOL    HW244757   3.755   0.087   9.473
80954SOL     OW44758   0.726   5.282   7.711
80954SOL    HW144759   0.662   5.227   7.667
80954SOL    HW244760   0.800   5.224   7.731
80955SOL     OW44761   9.598   4.289   9.039
80955SOL    HW144762   9.512   4.280   8.998
80955SOL    HW244763   9.601   4.380   9.068
80956SOL     OW44764   9.597  10.821   6.960
80956SOL    HW144765   9.537  10.835   7.034
80956SOL    HW244766   9.648  10.901   6.955
80957SOL     OW44767   1.575   0.269   0.054
80957SOL    HW144768   1.647   0.212   0.028
80957SOL    HW244769   1.501   0.209   0.066
80958SOL     OW44770   9.657   3.847   1.744
80958SOL    HW144771   9.648   3.853   1.839
80958SOL    HW244772   9.725   3.911   1.723
80959SOL     OW44773  13.187   9.042   6.014
80959SOL    HW144774  13.215   8.990   6.089
80959SOL    HW244775  13.266   9.048   5.958
80960SOL     OW44776  14.483   5.811  10.659
80960SOL    HW144777  14.558   5.866  10.636
80960SOL    HW244778  14.407   5.862  10.633
80961SOL     OW44779   6.590  12.334   1.667
80961SOL    HW144780   6.669  12.378   1.636
80961SOL    HW244781   6.526  12.347   1.597
80962SOL     OW44782   7.415   0.467   0.589
80962SOL    HW144783   7.361   0.510   0.655
80962SOL    HW244784   7.425   0.532   0.520
80963SOL     OW44785  12.148  11.593   4.152
80963SOL    HW144786  12.072  11.650   4.147
80963SOL    HW244787  12.133  11.525   4.086
80964SOL     OW44788  14.175   9.221   0.331
80964SOL    HW144789  14.153   9.285   0.399
80964SOL    HW244790  14.229   9.269   0.269
80965SOL     OW44791   5.824  12.272  14.447
80965SOL    HW144792   5.762  12.289  14.517
80965SOL    HW244793   5.832  12.177  14.444
80966SOL     OW44794  10.911  13.657   1.554
80966SOL    HW144795  10.960  13.611   1.485
80966SOL    HW244796  10.935  13.750   1.542
80967SOL     OW44797   3.111   8.582   9.239
80967SOL    HW144798   3.103   8.505   9.297
80967SOL    HW244799   3.027   8.585   9.193
80968SOL     OW44800   6.928   1.295   2.750
80968SOL    HW144801   6.914   1.383   2.785
80968SOL    HW244802   6.996   1.306   2.684
80969SOL     OW44803  10.266   8.810   5.966
80969SOL    HW144804  10.271   8.823   6.061
80969SOL    HW244805  10.287   8.896   5.929
80970SOL     OW44806  14.403  13.153   6.135
80970SOL    HW144807  14.407  13.107   6.051
80970SOL    HW244808  14.495  13.172   6.156
80971SOL     OW44809   1.653  14.483   2.748
80971SOL    HW144810   1.602  14.402   2.745
80971SOL    HW244811   1.678  14.498   2.656
80972SOL     OW44812  11.864  11.475   4.772
80972SOL    HW144813  11.821  11.462   4.856
80972SOL    HW244814  11.806  11.431   4.709
80973SOL     OW44815   5.253   8.464   7.429
80973SOL    HW144816   5.322   8.519   7.393
80973SOL    HW244817   5.298   8.391   7.469
80974SOL     OW44818   6.801   0.076   3.496
80974SOL    HW144819   6.767   0.166   3.492
80974SOL    HW244820   6.831   0.058   3.407
80975SOL     OW44821   3.432   7.689  12.570
80975SOL    HW144822   3.341   7.693  12.541
80975SOL    HW244823   3.455   7.596  12.564
80976SOL     OW44824   9.048  11.970   8.834
80976SOL    HW144825   8.986  11.947   8.903
80976SOL    HW244826   9.054  11.891   8.780
80977SOL     OW44827   7.293  12.699   7.202
80977SOL    HW144828   7.319  12.608   7.208
80977SOL    HW244829   7.204  12.701   7.239
80978SOL     OW44830   6.369   6.714   3.045
80978SOL    HW144831   6.351   6.623   3.024
80978SOL    HW244832   6.285   6.749   3.077
80979SOL     OW44833   4.309  12.434  11.321
80979SOL    HW144834   4.290  12.354  11.274
80979SOL    HW244835   4.395  12.461  11.290
80980SOL     OW44836   5.817   9.761   8.489
80980SOL    HW144837   5.872   9.803   8.423
80980SOL    HW244838   5.811   9.824   8.561
80981SOL     OW44839  11.891   9.372  10.806
80981SOL    HW144840  11.977   9.359  10.847
80981SOL    HW244841  11.892   9.313  10.730
80982SOL     OW44842  14.811   8.605   2.539
80982SOL    HW144843  14.838   8.596   2.631
80982SOL    HW244844  14.736   8.664   2.541
80983SOL     OW44845  13.353   9.568  10.354
80983SOL    HW144846  13.308   9.498  10.305
80983SOL    HW244847  13.318   9.649  10.317
80984SOL     OW44848  12.111   5.233   0.095
80984SOL    HW144849  12.088   5.326   0.104
80984SOL    HW244850  12.120   5.202   0.185
80985SOL     OW44851  10.760   2.468  11.541
80985SOL    HW144852  10.821   2.419  11.596
80985SOL    HW244853  10.717   2.402  11.487
80986SOL     OW44854   2.550   3.115   2.250
80986SOL    HW144855   2.509   3.087   2.331
80986SOL    HW244856   2.644   3.101   2.264
80987SOL     OW44857  11.811   7.615   1.036
80987SOL    HW144858  11.789   7.556   0.963
80987SOL    HW244859  11.864   7.683   0.996
80988SOL     OW44860  14.839  12.637   1.843
80988SOL    HW144861   0.049  12.621   1.896
80988SOL    HW244862  14.819  12.553   1.803
80989SOL     OW44863   7.612  11.345   3.625
80989SOL    HW144864   7.550  11.407   3.663
80989SOL    HW244865   7.579  11.259   3.652
80990SOL     OW44866   4.925  10.466   5.886
80990SOL    HW144867   4.926  10.466   5.790
80990SOL    HW244868   4.887  10.382   5.910
80991SOL     OW44869  12.825   7.878  12.622
80991SOL    HW144870  12.863   7.963  12.647
80991SOL    HW244871  12.732   7.897  12.610
80992SOL     OW44872   1.241   7.124  11.271
80992SOL    HW144873   1.299   7.171  11.212
80992SOL    HW244874   1.177   7.082  11.214
80993SOL     OW44875  13.352   7.920   6.244
80993SOL    HW144876  13.331   8.014   6.242
80993SOL    HW244877  13.437   7.916   6.288
80994SOL     OW44878  14.672   4.716   9.424
80994SOL    HW144879  14.725   4.650   9.468
80994SOL    HW244880  14.703   4.799   9.459
80995SOL     OW44881   8.270   1.015   8.370
80995SOL    HW144882   8.253   1.020   8.276
80995SOL    HW244883   8.354   1.061   8.381
80996SOL     OW44884   2.953   6.985  12.547
80996SOL    HW144885   2.998   7.001  12.463
80996SOL    HW244886   2.980   7.059  12.601
80997SOL     OW44887   7.134   8.096   9.040
80997SOL    HW144888   7.081   8.028   9.000
80997SOL    HW244889   7.087   8.177   9.021
80998SOL     OW44890   5.507  14.637   5.027
80998SOL    HW144891   5.474  14.632   5.117
80998SOL    HW244892   5.532  14.547   5.007
80999SOL     OW44893   9.710  12.938   7.340
80999SOL    HW144894   9.658  13.007   7.300
80999SOL    HW244895   9.649  12.866   7.353
81000SOL     OW44896   3.928   0.229  14.057
81000SOL    HW144897   3.910   0.284  13.982
81000SOL    HW244898   4.002   0.272  14.101
81001SOL     OW44899   2.001  12.143  11.252
81001SOL    HW144900   1.935  12.158  11.320
81001SOL    HW244901   1.952  12.111  11.177
81002SOL     OW44902   1.633   8.581   1.107
81002SOL    HW144903   1.676   8.624   1.180
81002SOL    HW244904   1.696   8.517   1.076
81003SOL     OW44905   1.187   8.850   5.910
81003SOL    HW144906   1.210   8.939   5.885
81003SOL    HW244907   1.266   8.815   5.951
81004SOL     OW44908  14.390  13.992  10.556
81004SOL    HW144909  14.399  13.908  10.599
81004SOL    HW244910  14.348  13.972  10.472
81005SOL     OW44911   8.652   6.093  11.226
81005SOL    HW144912   8.626   6.106  11.135
81005SOL    HW244913   8.628   6.003  11.245
81006SOL     OW44914   2.370  11.246   4.407
81006SOL    HW144915   2.445  11.185   4.406
81006SOL    HW244916   2.307  11.203   4.465
81007SOL     OW44917  12.875   1.231  13.923
81007SOL    HW144918  12.872   1.204  14.015
81007SOL    HW244919  12.835   1.318  13.922
81008SOL     OW44920  12.981  14.796   2.678
81008SOL    HW144921  13.008  14.711   2.712
81008SOL    HW244922  12.932  14.836   2.750
81009SOL     OW44923   9.117  13.998  12.742
81009SOL    HW144924   9.097  14.082  12.783
81009SOL    HW244925   9.193  13.965  12.790
81010SOL     OW44926   5.414   7.487   4.260
81010SOL    HW144927   5.339   7.440   4.297
81010SOL    HW244928   5.465   7.516   4.336
81011SOL     OW44929   0.762   4.594  14.795
81011SOL    HW144930   0.811   4.516  14.823
81011SOL    HW244931   0.795   4.664  14.852
81012SOL     OW44932   0.488   4.183  10.644
81012SOL    HW144933   0.497   4.089  10.660
81012SOL    HW244934   0.577   4.214  10.630
81013SOL     OW44935  10.428   0.762  10.810
81013SOL    HW144936  10.387   0.751  10.724
81013SOL    HW244937  10.469   0.678  10.828
81014SOL     OW44938   0.695   6.615  11.928
81014SOL    HW144939   0.741   6.671  11.990
81014SOL    HW244940   0.602   6.626  11.950
81015SOL     OW44941  12.978   7.785  10.746
81015SOL    HW144942  12.983   7.732  10.666
81015SOL    HW244943  12.909   7.849  10.728
81016SOL     OW44944   1.481  11.927   3.752
81016SOL    HW144945   1.386  11.932   3.761
81016SOL    HW244946   1.502  11.835   3.770
81017SOL     OW44947  13.756   2.139  12.478
81017SOL    HW144948  13.664   2.158  12.492
81017SOL    HW244949  13.792   2.221  12.444
81018SOL     OW44950  13.576   5.476  13.374
81018SOL    HW144951  13.604   5.566  13.389
81018SOL    HW244952  13.655   5.424  13.384
81019SOL     OW44953  10.340   5.819   2.376
81019SOL    HW144954  10.354   5.890   2.438
81019SOL    HW244955  10.307   5.747   2.430
81020SOL     OW44956  14.665   4.800   5.485
81020SOL    HW144957  14.646   4.894   5.484
81020SOL    HW244958  14.740   4.791   5.545
81021SOL     OW44959  10.238  13.723   4.324
81021SOL    HW144960  10.272  13.812   4.316
81021SOL    HW244961  10.237  13.690   4.234
81022SOL     OW44962   9.310  12.557   1.467
81022SOL    HW144963   9.247  12.542   1.538
81022SOL    HW244964   9.385  12.597   1.511
81023SOL     OW44965  12.227   6.864   0.984
81023SOL    HW144966  12.205   6.935   0.923
81023SOL    HW244967  12.269   6.909   1.058
81024SOL     OW44968   3.836  10.478   9.935
81024SOL    HW144969   3.882  10.443   9.859
81024SOL    HW244970   3.906  10.514   9.991
81025SOL     OW44971   4.198  10.121  10.127
81025SOL    HW144972   4.252  10.195  10.099
81025SOL    HW244973   4.141  10.103  10.052
81026SOL     OW44974   1.364   7.247   8.111
81026SOL    HW144975   1.350   7.342   8.109
81026SOL    HW244976   1.451   7.236   8.148
81027SOL     OW44977   8.459   7.889  14.439
81027SOL    HW144978   8.397   7.828  14.398
81027SOL    HW244979   8.495   7.841  14.514
81028SOL     OW44980   7.833   0.657   0.201
81028SOL    HW144981   7.906   0.618   0.155
81028SOL    HW244982   7.816   0.598   0.275
81029SOL     OW44983   7.646   8.934  14.128
81029SOL    HW144984   7.698   8.980  14.062
81029SOL    HW244985   7.564   8.913  14.084
81030SOL     OW44986   6.673   5.637  11.706
81030SOL    HW144987   6.641   5.727  11.711
81030SOL    HW244988   6.768   5.644  11.720
81031SOL     OW44989   3.781   8.501   4.960
81031SOL    HW144990   3.750   8.493   4.870
81031SOL    HW244991   3.869   8.462   4.958
81032SOL     OW44992   2.171  10.529  11.748
81032SOL    HW144993   2.110  10.499  11.680
81032SOL    HW244994   2.246  10.469  11.740
81033SOL     OW44995  14.527   8.644   1.363
81033SOL    HW144996  14.433   8.661   1.356
81033SOL    HW244997  14.544   8.638   1.457
81034SOL     OW44998   8.902   3.307   1.008
81034SOL    HW144999   8.937   3.241   1.068
81034SOL    HW245000   8.827   3.344   1.055
81035SOL     OW45001  13.257  13.053  11.446
81035SOL    HW145002  13.319  13.074  11.375
81035SOL    HW245003  13.224  13.139  11.474
81036SOL     OW45004  12.334   4.231   7.321
81036SOL    HW145005  12.411   4.179   7.298
81036SOL    HW245006  12.326   4.294   7.249
81037SOL     OW45007  10.806  13.530   3.295
81037SOL    HW145008  10.863  13.471   3.246
81037SOL    HW245009  10.847  13.537   3.381
81038SOL     OW45010  12.576  10.182  13.858
81038SOL    HW145011  12.601  10.103  13.906
81038SOL    HW245012  12.510  10.153  13.795
81039SOL     OW45013   6.752  11.448   5.328
81039SOL    HW145014   6.682  11.510   5.345
81039SOL    HW245015   6.708  11.365   5.314
81040SOL     OW45016   9.634  11.482   9.015
81040SOL    HW145017   9.694  11.415   8.982
81040SOL    HW245018   9.643  11.554   8.953
81041SOL     OW45019   7.807  10.952   5.413
81041SOL    HW145020   7.854  11.022   5.368
81041SOL    HW245021   7.754  10.910   5.345
81042SOL     OW45022   3.864  11.946  11.145
81042SOL    HW145023   3.810  11.889  11.089
81042SOL    HW245024   3.943  11.895  11.161
81043SOL     OW45025  10.330   5.911  13.155
81043SOL    HW145026  10.351   5.848  13.086
81043SOL    HW245027  10.242   5.887  13.183
81044SOL     OW45028  12.820   9.171   4.422
81044SOL    HW145029  12.887   9.239   4.416
81044SOL    HW245030  12.774   9.175   4.338
81045SOL     OW45031   9.181   3.565  10.536
81045SOL    HW145032   9.158   3.648  10.493
81045SOL    HW245033   9.114   3.503  10.506
81046SOL     OW45034  12.574   9.524   0.758
81046SOL    HW145035  12.638   9.453   0.765
81046SOL    HW245036  12.497   9.483   0.719
81047SOL     OW45037   4.013   5.961   9.277
81047SOL    HW145038   4.011   5.866   9.287
81047SOL    HW245039   4.094   5.978   9.228
81048SOL     OW45040   8.550   6.041   7.513
81048SOL    HW145041   8.500   6.034   7.594
81048SOL    HW245042   8.606   6.117   7.526
81049SOL     OW45043   4.237  10.357   9.755
81049SOL    HW145044   4.143  10.341   9.747
81049SOL    HW245045   4.254  10.429   9.694
81050SOL     OW45046   0.860   1.794   0.487
81050SOL    HW145047   0.848   1.804   0.581
81050SOL    HW245048   0.934   1.851   0.465
81051SOL     OW45049   4.464   2.592   5.716
81051SOL    HW145050   4.511   2.524   5.667
81051SOL    HW245051   4.388   2.612   5.661
81052SOL     OW45052   9.235   2.783   5.953
81052SOL    HW145053   9.215   2.695   5.985
81052SOL    HW245054   9.200   2.784   5.864
81053SOL     OW45055   3.666   6.786   8.736
81053SOL    HW145056   3.666   6.853   8.667
81053SOL    HW245057   3.626   6.830   8.811
81054SOL     OW45058   0.501  14.479  12.742
81054SOL    HW145059   0.457  14.486  12.657
81054SOL    HW245060   0.430  14.483  12.805
81055SOL     OW45061   0.887   8.975   6.437
81055SOL    HW145062   0.901   8.880   6.441
81055SOL    HW245063   0.797   8.985   6.405
81056SOL     OW45064  10.067  12.412   0.730
81056SOL    HW145065   9.999  12.477   0.749
81056SOL    HW245066  10.056  12.392   0.637
81057SOL     OW45067   1.603   4.260   9.948
81057SOL    HW145068   1.641   4.314   9.879
81057SOL    HW245069   1.673   4.198   9.972
81058SOL     OW45070  14.238  13.556   6.866
81058SOL    HW145071  14.239  13.645   6.830
81058SOL    HW245072  14.236  13.568   6.961
81059SOL     OW45073   9.450   2.835  12.839
81059SOL    HW145074   9.403   2.912  12.807
81059SOL    HW245075   9.464   2.853  12.932
81060SOL     OW45076   7.675   1.129  12.432
81060SOL    HW145077   7.636   1.206  12.390
81060SOL    HW245078   7.754   1.110  12.382
81061SOL     OW45079   0.731   0.071   0.236
81061SOL    HW145080   0.711   0.165   0.232
81061SOL    HW245081   0.668   0.031   0.176
81062SOL     OW45082  10.691   6.311  10.632
81062SOL    HW145083  10.671   6.360  10.552
81062SOL    HW245084  10.777   6.343  10.658
81063SOL     OW45085   5.473  14.433   0.872
81063SOL    HW145086   5.445  14.480   0.950
81063SOL    HW245087   5.532  14.365   0.905
81064SOL     OW45088   2.170   1.596  10.447
81064SOL    HW145089   2.120   1.641  10.516
81064SOL    HW245090   2.111   1.595  10.372
81065SOL     OW45091  12.720   5.769  12.209
81065SOL    HW145092  12.678   5.817  12.138
81065SOL    HW245093  12.792   5.825  12.237
81066SOL     OW45094   6.607   0.601   7.854
81066SOL    HW145095   6.698   0.579   7.834
81066SOL    HW245096   6.570   0.625   7.769
81067SOL     OW45097   0.606   1.730   6.489
81067SOL    HW145098   0.553   1.784   6.431
81067SOL    HW245099   0.673   1.790   6.522
81068SOL     OW45100   2.151  11.376  10.383
81068SOL    HW145101   2.105  11.459  10.401
81068SOL    HW245102   2.238  11.403  10.354
81069SOL     OW45103   1.776   0.802  10.906
81069SOL    HW145104   1.812   0.816  10.818
81069SOL    HW245105   1.713   0.874  10.918
81070SOL     OW45106   6.404  14.755  13.544
81070SOL    HW145107   6.386  14.849  13.548
81070SOL    HW245108   6.450  14.736  13.626
81071SOL     OW45109   9.630  14.129  11.359
81071SOL    HW145110   9.596  14.053  11.406
81071SOL    HW245111   9.609  14.112  11.267
81072SOL     OW45112   8.606   9.628   8.729
81072SOL    HW145113   8.580   9.662   8.814
81072SOL    HW245114   8.626   9.536   8.745
81073SOL     OW45115   6.355   2.460   5.212
81073SOL    HW145116   6.345   2.538   5.157
81073SOL    HW245117   6.397   2.491   5.292
81074SOL     OW45118   2.596  10.234   6.615
81074SOL    HW145119   2.616  10.298   6.684
81074SOL    HW245120   2.586  10.151   6.661
81075SOL     OW45121  11.058  12.884   4.144
81075SOL    HW145122  11.030  12.912   4.057
81075SOL    HW245123  11.060  12.789   4.139
81076SOL     OW45124   5.332  14.077   0.516
81076SOL    HW145125   5.353  14.023   0.593
81076SOL    HW245126   5.371  14.162   0.535
81077SOL     OW45127   2.835   2.428   4.177
81077SOL    HW145128   2.759   2.372   4.188
81077SOL    HW245129   2.909   2.372   4.202
81078SOL     OW45130   0.387  13.931   2.869
81078SOL    HW145131   0.480  13.910   2.873
81078SOL    HW245132   0.350  13.864   2.810
81079SOL     OW45133  14.629   8.438   6.456
81079SOL    HW145134  14.656   8.526   6.431
81079SOL    HW245135  14.602   8.445   6.547
81080SOL     OW45136   4.866   8.837   2.072
81080SOL    HW145137   4.862   8.860   1.979
81080SOL    HW245138   4.775   8.825   2.098
81081SOL     OW45139   1.756   4.783   6.328
81081SOL    HW145140   1.809   4.752   6.255
81081SOL    HW245141   1.725   4.869   6.300
81082SOL     OW45142  11.772   8.889   7.446
81082SOL    HW145143  11.828   8.892   7.524
81082SOL    HW245144  11.768   8.980   7.416
81083SOL     OW45145  14.754   9.257   8.437
81083SOL    HW145146  14.779   9.195   8.369
81083SOL    HW245147  14.799   9.338   8.412
81084SOL     OW45148   1.323   5.104   6.632
81084SOL    HW145149   1.328   5.017   6.592
81084SOL    HW245150   1.361   5.092   6.719
81085SOL     OW45151   8.064  13.205   5.591
81085SOL    HW145152   8.047  13.141   5.660
81085SOL    HW245153   7.978  13.240   5.569
81086SOL     OW45154   0.024   5.850   1.556
81086SOL    HW145155   0.027   5.886   1.644
81086SOL    HW245156  14.868   5.758   1.569
81087SOL     OW45157   2.597   2.652  14.650
81087SOL    HW145158   2.542   2.730  14.640
81087SOL    HW245159   2.685   2.687  14.662
81088SOL     OW45160   3.083   4.816  14.776
81088SOL    HW145161   3.014   4.807  14.710
81088SOL    HW245162   3.118   4.727  14.786
81089SOL     OW45163  12.004   1.485   2.957
81089SOL    HW145164  12.003   1.392   2.977
81089SOL    HW245165  12.010   1.528   3.043
81090SOL     OW45166  11.025   5.705  13.933
81090SOL    HW145167  11.062   5.781  13.977
81090SOL    HW245168  10.931   5.722  13.929
81091SOL     OW45169   5.792   2.667  13.371
81091SOL    HW145170   5.838   2.688  13.452
81091SOL    HW245171   5.759   2.578  13.385
81092SOL     OW45172   6.978   7.811   4.873
81092SOL    HW145173   6.974   7.809   4.969
81092SOL    HW245174   6.892   7.845   4.847
81093SOL     OW45175  10.042  11.929  13.969
81093SOL    HW145176   9.976  11.863  13.945
81093SOL    HW245177  10.040  11.930  14.065
81094SOL     OW45178   0.650   3.600  13.296
81094SOL    HW145179   0.737   3.569  13.323
81094SOL    HW245180   0.593   3.525  13.311
81095SOL     OW45181   4.747   6.117  14.184
81095SOL    HW145182   4.728   6.182  14.251
81095SOL    HW245183   4.673   6.057  14.187
81096SOL     OW45184   9.202   5.327   4.497
81096SOL    HW145185   9.123   5.364   4.458
81096SOL    HW245186   9.257   5.305   4.422
81097SOL     OW45187  13.353   8.279   3.007
81097SOL    HW145188  13.339   8.265   2.914
81097SOL    HW245189  13.403   8.203   3.035
81098SOL     OW45190  12.528  10.324  10.698
81098SOL    HW145191  12.621  10.313  10.677
81098SOL    HW245192  12.504  10.242  10.742
81099SOL     OW45193  14.745   9.504  13.386
81099SOL    HW145194  14.833   9.465  13.395
81099SOL    HW245195  14.689   9.431  13.361
81100SOL     OW45196   4.427  10.027   5.369
81100SOL    HW145197   4.364   9.955   5.365
81100SOL    HW245198   4.512   9.984   5.378
81101SOL     OW45199   9.721   2.858  10.070
81101SOL    HW145200   9.657   2.791  10.048
81101SOL    HW245201   9.805   2.821  10.041
81102SOL     OW45202   3.310   8.201   6.315
81102SOL    HW145203   3.404   8.189   6.325
81102SOL    HW245204   3.291   8.282   6.361
81103SOL     OW45205  10.690  10.314   5.683
81103SOL    HW145206  10.778  10.278   5.695
81103SOL    HW245207  10.638  10.275   5.754
81104SOL     OW45208   0.131  11.790  11.638
81104SOL    HW145209   0.097  11.760  11.554
81104SOL    HW245210   0.063  11.767  11.702
81105SOL     OW45211  11.190  14.567   1.252
81105SOL    HW145212  11.207  14.508   1.179
81105SOL    HW245213  11.261  14.632   1.247
81106SOL     OW45214   8.253   5.436   6.033
81106SOL    HW145215   8.222   5.346   6.019
81106SOL    HW245216   8.187   5.491   5.990
81107SOL     OW45217   0.815   3.298   1.129
81107SOL    HW145218   0.891   3.354   1.143
81107SOL    HW245219   0.786   3.321   1.040
81108SOL     OW45220   0.110  14.598   1.411
81108SOL    HW145221   0.182  14.647   1.371
81108SOL    HW245222   0.056  14.570   1.337
81109SOL     OW45223  11.699   6.885   2.497
81109SOL    HW145224  11.620   6.933   2.472
81109SOL    HW245225  11.755   6.889   2.420
81110SOL     OW45226  11.267   0.813  13.751
81110SOL    HW145227  11.231   0.896  13.783
81110SOL    HW245228  11.349   0.803  13.799
81111SOL     OW45229   2.649   4.679  14.419
81111SOL    HW145230   2.638   4.769  14.386
81111SOL    HW245231   2.561   4.641  14.414
81112SOL     OW45232   4.159  10.575  10.571
81112SOL    HW145233   4.133  10.546  10.658
81112SOL    HW245234   4.221  10.509  10.541
81113SOL     OW45235  12.278   1.090   7.547
81113SOL    HW145236  12.196   1.139   7.547
81113SOL    HW245237  12.257   1.005   7.585
81114SOL     OW45238   9.931   4.335  10.962
81114SOL    HW145239   9.903   4.380  11.042
81114SOL    HW245240   9.927   4.242  10.985
81115SOL     OW45241  14.350  10.391   1.437
81115SOL    HW145242  14.311  10.478   1.442
81115SOL    HW245243  14.443  10.404   1.454
81116SOL     OW45244  11.150  12.699   3.739
81116SOL    HW145245  11.081  12.665   3.796
81116SOL    HW245246  11.166  12.630   3.676
81117SOL     OW45247  10.516  13.223  11.014
81117SOL    HW145248  10.482  13.290  11.073
81117SOL    HW245249  10.484  13.140  11.050
81118SOL     OW45250   5.410   9.677   5.787
81118SOL    HW145251   5.318   9.704   5.788
81118SOL    HW245252   5.440   9.700   5.699
81119SOL     OW45253   3.234   6.119   4.876
81119SOL    HW145254   3.140   6.120   4.862
81119SOL    HW245255   3.271   6.158   4.796
81120SOL     OW45256  10.942  14.493  13.084
81120SOL    HW145257  10.992  14.571  13.057
81120SOL    HW245258  10.867  14.529  13.132
81121SOL     OW45259  12.602   9.225   5.120
81121SOL    HW145260  12.510   9.204   5.106
81121SOL    HW245261  12.638   9.148   5.163
81122SOL     OW45262  11.279   3.145   1.033
81122SOL    HW145263  11.247   3.055   1.041
81122SOL    HW245264  11.321   3.164   1.117
81123SOL     OW45265  13.263   6.958   8.166
81123SOL    HW145266  13.289   6.923   8.251
81123SOL    HW245267  13.301   6.897   8.103
81124SOL     OW45268   1.196   2.414  14.646
81124SOL    HW145269   1.127   2.369  14.695
81124SOL    HW245270   1.150   2.460  14.576
81125SOL     OW45271   5.957   8.511  10.369
81125SOL    HW145272   5.946   8.584  10.430
81125SOL    HW245273   6.016   8.451  10.414
81126SOL     OW45274  12.282  10.590   8.454
81126SOL    HW145275  12.327  10.647   8.517
81126SOL    HW245276  12.217  10.543   8.507
81127SOL     OW45277   3.574  10.521   9.888
81127SOL    HW145278   3.527  10.485   9.813
81127SOL    HW245279   3.665  10.495   9.873
81128SOL     OW45280  10.757   1.593   4.221
81128SOL    HW145281  10.839   1.632   4.251
81128SOL    HW245282  10.771   1.498   4.229
81129SOL     OW45283   6.348   9.170   1.476
81129SOL    HW145284   6.397   9.238   1.430
81129SOL    HW245285   6.396   9.157   1.557
81130SOL     OW45286   1.165   1.227  13.121
81130SOL    HW145287   1.142   1.135  13.132
81130SOL    HW245288   1.238   1.226  13.058
81131SOL     OW45289   4.732   3.128   3.681
81131SOL    HW145290   4.711   3.204   3.736
81131SOL    HW245291   4.657   3.120   3.622
81132SOL     OW45292  11.443   9.804   3.418
81132SOL    HW145293  11.517   9.858   3.445
81132SOL    HW245294  11.389   9.862   3.365
81133SOL     OW45295   5.222   9.464  11.276
81133SOL    HW145296   5.238   9.543  11.225
81133SOL    HW245297   5.278   9.398  11.236
81134SOL     OW45298  10.199   1.080   1.055
81134SOL    HW145299  10.208   1.115   1.143
81134SOL    HW245300  10.289   1.079   1.020
81135SOL     OW45301   1.558   7.436   8.316
81135SOL    HW145302   1.606   7.408   8.394
81135SOL    HW245303   1.616   7.414   8.243
81136SOL     OW45304   6.262   8.863   2.096
81136SOL    HW145305   6.178   8.849   2.051
81136SOL    HW245306   6.271   8.958   2.101
81137SOL     OW45307   1.902   6.923   6.611
81137SOL    HW145308   1.850   6.883   6.541
81137SOL    HW245309   1.987   6.941   6.570
81138SOL     OW45310  12.476   2.742   3.560
81138SOL    HW145311  12.399   2.722   3.612
81138SOL    HW245312  12.451   2.816   3.505
81139SOL     OW45313   5.509   7.085   5.244
81139SOL    HW145314   5.553   7.008   5.278
81139SOL    HW245315   5.549   7.158   5.292
81140SOL     OW45316  13.308   2.592   0.380
81140SOL    HW145317  13.396   2.556   0.395
81140SOL    HW245318  13.257   2.563   0.456
81141SOL     OW45319  12.716   8.076  11.145
81141SOL    HW145320  12.637   8.129  11.133
81141SOL    HW245321  12.705   8.036  11.231
81142SOL     OW45322  13.656   4.210  13.480
81142SOL    HW145323  13.566   4.181  13.462
81142SOL    HW245324  13.703   4.193  13.399
81143SOL     OW45325   6.865  13.343   9.407
81143SOL    HW145326   6.901  13.407   9.346
81143SOL    HW245327   6.940  13.313   9.458
81144SOL     OW45328   0.472   7.565   7.941
81144SOL    HW145329   0.439   7.527   7.860
81144SOL    HW245330   0.448   7.657   7.936
81145SOL     OW45331   3.117   8.361  12.347
81145SOL    HW145332   3.112   8.447  12.389
81145SOL    HW245333   3.209   8.351  12.323
81146SOL     OW45334  12.594  13.831   6.367
81146SOL    HW145335  12.572  13.900   6.304
81146SOL    HW245336  12.644  13.767   6.316
81147SOL     OW45337  14.135   9.701   7.713
81147SOL    HW145338  14.226   9.689   7.742
81147SOL    HW245339  14.085   9.637   7.764
81148SOL     OW45340   9.335   8.095   0.733
81148SOL    HW145341   9.294   8.040   0.667
81148SOL    HW245342   9.367   8.034   0.800
81149SOL     OW45343  10.693   8.483   6.239
81149SOL    HW145344  10.716   8.505   6.148
81149SOL    HW245345  10.599   8.469   6.237
81150SOL     OW45346   1.819   5.379  14.185
81150SOL    HW145347   1.780   5.376  14.273
81150SOL    HW245348   1.788   5.462  14.148
81151SOL     OW45349  12.059   7.501  13.692
81151SOL    HW145350  12.110   7.453  13.627
81151SOL    HW245351  11.985   7.538  13.642
81152SOL     OW45352   1.580   4.765  12.629
81152SOL    HW145353   1.600   4.847  12.582
81152SOL    HW245354   1.549   4.706  12.560
81153SOL     OW45355   9.682  13.961   9.913
81153SOL    HW145356   9.677  13.964   9.817
81153SOL    HW245357   9.606  14.011   9.943
81154SOL     OW45358  12.547   8.570   5.794
81154SOL    HW145359  12.496   8.644   5.828
81154SOL    HW245360  12.638   8.591   5.816
81155SOL     OW45361   8.241   1.887   0.090
81155SOL    HW145362   8.190   1.821   0.138
81155SOL    HW245363   8.315   1.907   0.148
81156SOL     OW45364  14.483   7.395   3.768
81156SOL    HW145365  14.458   7.422   3.856
81156SOL    HW245366  14.574   7.424   3.758
81157SOL     OW45367  14.022   5.345  10.101
81157SOL    HW145368  14.064   5.371  10.183
81157SOL    HW245369  13.965   5.419  10.079
81158SOL     OW45370   1.973  13.304   5.887
81158SOL    HW145371   2.042  13.363   5.915
81158SOL    HW245372   1.892  13.353   5.900
81159SOL     OW45373   9.831   9.885   0.590
81159SOL    HW145374   9.854   9.810   0.645
81159SOL    HW245375   9.789   9.946   0.650
81160SOL     OW45376   9.096  10.322   7.033
81160SOL    HW145377   9.104  10.353   6.943
81160SOL    HW245378   9.003  10.300   7.042
81161SOL     OW45379  13.532   7.199   2.172
81161SOL    HW145380  13.504   7.109   2.154
81161SOL    HW245381  13.452   7.251   2.169
81162SOL     OW45382   8.739   1.612   2.885
81162SOL    HW145383   8.677   1.550   2.847
81162SOL    HW245384   8.782   1.652   2.810
81163SOL     OW45385  12.866  10.317  11.019
81163SOL    HW145386  12.923  10.362  11.082
81163SOL    HW245387  12.924  10.289  10.949
81164SOL     OW45388  10.637   9.841   5.803
81164SOL    HW145389  10.722   9.803   5.780
81164SOL    HW245390  10.587   9.839   5.721
81165SOL     OW45391   9.782   3.215  11.354
81165SOL    HW145392   9.694   3.189  11.382
81165SOL    HW245393   9.776   3.309  11.339
81166SOL     OW45394   8.577   2.704  13.702
81166SOL    HW145395   8.514   2.771  13.732
81166SOL    HW245396   8.560   2.628  13.757
81167SOL     OW45397   6.938  10.554   0.060
81167SOL    HW145398   6.930  10.463   0.090
81167SOL    HW245399   7.005  10.591   0.118
81168SOL     OW45400   6.224  12.765   9.200
81168SOL    HW145401   6.256  12.791   9.113
81168SOL    HW245402   6.299  12.722   9.241
81169SOL     OW45403   4.007  10.899   0.320
81169SOL    HW145404   4.000  10.836   0.392
81169SOL    HW245405   3.981  10.982   0.359
81170SOL     OW45406  12.604  14.577  13.024
81170SOL    HW145407  12.668  14.627  13.075
81170SOL    HW245408  12.643  14.572  12.936
81171SOL     OW45409   4.689   3.747   9.276
81171SOL    HW145410   4.726   3.832   9.297
81171SOL    HW245411   4.636   3.724   9.353
81172SOL     OW45412  14.387   1.628  12.285
81172SOL    HW145413  14.362   1.714  12.252
81172SOL    HW245414  14.337   1.618  12.366
81173SOL     OW45415   6.803   1.866  12.804
81173SOL    HW145416   6.827   1.846  12.713
81173SOL    HW245417   6.769   1.783  12.838
81174SOL     OW45418   6.229   2.677  10.504
81174SOL    HW145419   6.246   2.678  10.410
81174SOL    HW245420   6.139   2.646  10.513
81175SOL     OW45421  10.494  11.862  10.278
81175SOL    HW145422  10.438  11.836  10.206
81175SOL    HW245423  10.576  11.890  10.236
81176SOL     OW45424  11.380  10.878   5.095
81176SOL    HW145425  11.313  10.869   5.163
81176SOL    HW245426  11.332  10.904   5.017
81177SOL     OW45427  10.867   2.411  13.045
81177SOL    HW145428  10.896   2.320  13.051
81177SOL    HW245429  10.909   2.455  13.119
81178SOL     OW45430   4.571   5.405   0.577
81178SOL    HW145431   4.512   5.443   0.642
81178SOL    HW245432   4.543   5.313   0.571
81179SOL     OW45433   3.812  12.633  13.821
81179SOL    HW145434   3.899  12.630  13.859
81179SOL    HW245435   3.826  12.622  13.727
81180SOL     OW45436  14.533   3.872   0.111
81180SOL    HW145437  14.537   3.781   0.081
81180SOL    HW245438  14.535   3.866   0.206
81181SOL     OW45439   4.027  13.226   2.772
81181SOL    HW145440   3.960  13.222   2.704
81181SOL    HW245441   3.984  13.193   2.851
81182SOL     OW45442   5.374   3.848   9.258
81182SOL    HW145443   5.386   3.921   9.198
81182SOL    HW245444   5.454   3.796   9.249
81183SOL     OW45445   8.616   6.337   5.026
81183SOL    HW145446   8.586   6.260   4.979
81183SOL    HW245447   8.629   6.307   5.116
81184SOL     OW45448   1.077   5.431   4.471
81184SOL    HW145449   1.125   5.457   4.392
81184SOL    HW245450   1.126   5.356   4.505
81185SOL     OW45451   7.034   5.045   1.245
81185SOL    HW145452   7.116   5.092   1.252
81185SOL    HW245453   7.007   5.055   1.153
81186SOL     OW45454   5.544   6.836   2.014
81186SOL    HW145455   5.590   6.752   2.014
81186SOL    HW245456   5.471   6.823   1.953
81187SOL     OW45457   0.086   5.231   5.832
81187SOL    HW145458   0.031   5.170   5.881
81187SOL    HW245459   0.169   5.184   5.818
81188SOL     OW45460   6.811   4.520  11.858
81188SOL    HW145461   6.781   4.544  11.771
81188SOL    HW245462   6.745   4.556  11.917
81189SOL     OW45463  14.205  14.833   5.032
81189SOL    HW145464  14.208  14.769   4.961
81189SOL    HW245465  14.173   0.045   4.991
81190SOL     OW45466  13.737   6.287  14.334
81190SOL    HW145467  13.812   6.229  14.318
81190SOL    HW245468  13.728   6.288  14.429
81191SOL     OW45469  10.434   8.500  10.173
81191SOL    HW145470  10.491   8.575  10.183
81191SOL    HW245471  10.412   8.474  10.263
81192SOL     OW45472  11.258   8.998  11.132
81192SOL    HW145473  11.280   9.078  11.179
81192SOL    HW245474  11.341   8.969  11.094
81193SOL     OW45475   6.568   5.174  14.362
81193SOL    HW145476   6.593   5.173  14.269
81193SOL    HW245477   6.630   5.235  14.403
81194SOL     OW45478   6.036  13.662   0.675
81194SOL    HW145479   5.988  13.744   0.666
81194SOL    HW245480   6.017  13.614   0.593
81195SOL     OW45481   3.084   1.167   1.752
81195SOL    HW145482   3.178   1.151   1.742
81195SOL    HW245483   3.076   1.262   1.750
81196SOL     OW45484  12.776  10.968  12.948
81196SOL    HW145485  12.684  10.995  12.948
81196SOL    HW245486  12.825  11.050  12.959
81197SOL     OW45487   1.892  11.302   7.969
81197SOL    HW145488   1.845  11.385   7.961
81197SOL    HW245489   1.924  11.284   7.881
81198SOL     OW45490  13.671   7.711   1.756
81198SOL    HW145491  13.694   7.745   1.670
81198SOL    HW245492  13.719   7.766   1.818
81199SOL     OW45493   2.342  13.308   6.712
81199SOL    HW145494   2.386  13.296   6.796
81199SOL    HW245495   2.250  13.291   6.730
81200SOL     OW45496  12.217   8.383  10.209
81200SOL    HW145497  12.159   8.433  10.267
81200SOL    HW245498  12.305   8.413  10.231
81201SOL     OW45499  13.948   8.024  12.849
81201SOL    HW145500  13.875   8.046  12.908
81201SOL    HW245501  13.987   7.947  12.889
81202SOL     OW45502   8.462   8.596   9.249
81202SOL    HW145503   8.529   8.548   9.299
81202SOL    HW245504   8.511   8.647   9.185
81203SOL     OW45505   1.120   2.991   1.756
81203SOL    HW145506   1.029   2.986   1.785
81203SOL    HW245507   1.153   3.073   1.794
81204SOL     OW45508   4.383   5.587   7.236
81204SOL    HW145509   4.324   5.636   7.178
81204SOL    HW245510   4.456   5.562   7.179
81205SOL     OW45511   5.114   0.326   8.728
81205SOL    HW145512   5.021   0.341   8.711
81205SOL    HW245513   5.118   0.238   8.764
81206SOL     OW45514  12.934  14.138   2.381
81206SOL    HW145515  12.979  14.220   2.362
81206SOL    HW245516  12.997  14.070   2.357
81207SOL     OW45517  14.720  11.995   9.543
81207SOL    HW145518  14.808  11.967   9.521
81207SOL    HW245519  14.731  12.061   9.611
81208SOL     OW45520   2.941   1.036   9.118
81208SOL    HW145521   2.885   0.972   9.074
81208SOL    HW245522   2.999   1.068   9.049
81209SOL     OW45523   6.077   4.633   0.921
81209SOL    HW145524   6.107   4.688   0.993
81209SOL    HW245525   6.147   4.569   0.908
81210SOL     OW45526  12.791   5.949   7.558
81210SOL    HW145527  12.870   6.003   7.554
81210SOL    HW245528  12.743   5.971   7.479
81211SOL     OW45529  11.700  10.006   1.758
81211SOL    HW145530  11.703   9.986   1.665
81211SOL    HW245531  11.649   9.935   1.796
81212SOL     OW45532   6.254   4.568  10.551
81212SOL    HW145533   6.226   4.509  10.481
81212SOL    HW245534   6.263   4.512  10.628
81213SOL     OW45535   3.156  11.115   6.380
81213SOL    HW145536   3.171  11.094   6.288
81213SOL    HW245537   3.212  11.191   6.397
81214SOL     OW45538   6.898   0.212  12.569
81214SOL    HW145539   6.861   0.299  12.559
81214SOL    HW245540   6.949   0.198  12.490
81215SOL     OW45541   2.804  11.957   8.512
81215SOL    HW145542   2.822  11.864   8.498
81215SOL    HW245543   2.872  11.986   8.573
81216SOL     OW45544  14.630   9.193  12.793
81216SOL    HW145545  14.639   9.281  12.830
81216SOL    HW245546  14.708   9.146  12.824
81217SOL     OW45547   9.822   0.991  12.979
81217SOL    HW145548   9.759   1.062  12.975
81217SOL    HW245549   9.884   1.009  12.908
81218SOL     OW45550   2.265   1.718  13.537
81218SOL    HW145551   2.282   1.652  13.470
81218SOL    HW245552   2.195   1.680  13.591
81219SOL     OW45553   0.254  14.661  10.634
81219SOL    HW145554   0.317  14.590  10.623
81219SOL    HW245555   0.303  14.728  10.683
81220SOL     OW45556   9.444   1.972   9.654
81220SOL    HW145557   9.388   1.943   9.726
81220SOL    HW245558   9.421   2.064   9.641
81221SOL     OW45559   6.375   9.633   2.518
81221SOL    HW145560   6.312   9.561   2.523
81221SOL    HW245561   6.409   9.642   2.606
81222SOL     OW45562  10.238   7.913   5.542
81222SOL    HW145563  10.244   7.946   5.632
81222SOL    HW245564  10.323   7.932   5.503
81223SOL     OW45565  11.454  13.733  13.398
81223SOL    HW145566  11.384  13.752  13.461
81223SOL    HW245567  11.409  13.733  13.313
81224SOL     OW45568   3.475  11.776   4.490
81224SOL    HW145569   3.524  11.852   4.521
81224SOL    HW245570   3.529  11.701   4.514
81225SOL     OW45571   9.364   5.218   9.188
81225SOL    HW145572   9.365   5.128   9.156
81225SOL    HW245573   9.456   5.239   9.205
81226SOL     OW45574  14.424   0.629  14.104
81226SOL    HW145575  14.380   0.706  14.067
81226SOL    HW245576  14.407   0.636  14.198
81227SOL     OW45577   1.767   8.839   2.166
81227SOL    HW145578   1.687   8.881   2.198
81227SOL    HW245579   1.826   8.839   2.241
81228SOL     OW45580   2.798   2.293  10.140
81228SOL    HW145581   2.728   2.228  10.138
81228SOL    HW245582   2.798   2.326  10.230
81229SOL     OW45583   4.337   5.220  14.226
81229SOL    HW145584   4.283   5.211  14.304
81229SOL    HW245585   4.424   5.191  14.253
81230SOL     OW45586   2.592  11.466   4.442
81230SOL    HW145587   2.575  11.533   4.376
81230SOL    HW245588   2.520  11.404   4.432
81231SOL     OW45589  12.742   1.511   9.533
81231SOL    HW145590  12.714   1.596   9.567
81231SOL    HW245591  12.660   1.464   9.516
81232SOL     OW45592   9.630   8.364   3.967
81232SOL    HW145593   9.667   8.440   4.012
81232SOL    HW245594   9.647   8.291   4.027
81233SOL     OW45595   6.462   2.395   7.096
81233SOL    HW145596   6.374   2.382   7.060
81233SOL    HW245597   6.464   2.339   7.174
81234SOL     OW45598   9.254   8.487   8.582
81234SOL    HW145599   9.276   8.449   8.497
81234SOL    HW245600   9.166   8.454   8.601
81235SOL     OW45601   4.575   8.117  10.456
81235SOL    HW145602   4.648   8.058  10.475
81235SOL    HW245603   4.497   8.060  10.460
81236SOL     OW45604   7.036   6.462   9.421
81236SOL    HW145605   7.081   6.405   9.483
81236SOL    HW245606   7.102   6.526   9.394
81237SOL     OW45607  10.377   3.165   1.378
81237SOL    HW145608  10.445   3.180   1.312
81237SOL    HW245609  10.424   3.141   1.457
81238SOL     OW45610   2.160   2.713   6.590
81238SOL    HW145611   2.147   2.652   6.518
81238SOL    HW245612   2.108   2.790   6.567
81239SOL     OW45613  10.730   2.823  13.517
81239SOL    HW145614  10.672   2.884  13.471
81239SOL    HW245615  10.671   2.769  13.570
81240SOL     OW45616  13.675   0.496   1.511
81240SOL    HW145617  13.595   0.453   1.543
81240SOL    HW245618  13.691   0.455   1.426
81241SOL     OW45619   1.230  11.193  13.716
81241SOL    HW145620   1.316  11.233  13.703
81241SOL    HW245621   1.193  11.242  13.790
81242SOL     OW45622   3.682   3.547   2.382
81242SOL    HW145623   3.641   3.580   2.463
81242SOL    HW245624   3.692   3.453   2.396
81243SOL     OW45625   4.498   8.351   4.200
81243SOL    HW145626   4.424   8.392   4.155
81243SOL    HW245627   4.459   8.308   4.276
81244SOL     OW45628  12.794  13.843  14.482
81244SOL    HW145629  12.833  13.863  14.567
81244SOL    HW245630  12.706  13.879  14.487
81245SOL     OW45631   5.019   4.080   4.820
81245SOL    HW145632   4.998   4.172   4.833
81245SOL    HW245633   4.973   4.056   4.739
81246SOL     OW45634  11.512   5.652  13.171
81246SOL    HW145635  11.428   5.696  13.161
81246SOL    HW245636  11.550   5.652  13.083
81247SOL     OW45637   9.079   1.837  14.856
81247SOL    HW145638   9.108   1.821  14.767
81247SOL    HW245639   9.050   1.928  14.856
81248SOL     OW45640   9.822   8.301   2.293
81248SOL    HW145641   9.824   8.227   2.233
81248SOL    HW245642   9.729   8.319   2.306
81249SOL     OW45643   3.578  14.323  13.549
81249SOL    HW145644   3.504  14.308  13.608
81249SOL    HW245645   3.642  14.256  13.573
81250SOL     OW45646   5.762   3.023   3.573
81250SOL    HW145647   5.721   2.973   3.643
81250SOL    HW245648   5.696   3.027   3.504
81251SOL     OW45649   5.927   7.434   1.993
81251SOL    HW145650   6.002   7.415   2.050
81251SOL    HW245651   5.963   7.436   1.905
81252SOL     OW45652  11.168  13.864   2.929
81252SOL    HW145653  11.234  13.799   2.902
81252SOL    HW245654  11.085  13.817   2.925
81253SOL     OW45655   1.692   6.588  10.460
81253SOL    HW145656   1.664   6.560  10.547
81253SOL    HW245657   1.728   6.676  10.474
81254SOL     OW45658   8.930   8.408   8.968
81254SOL    HW145659   8.866   8.363   9.023
81254SOL    HW245660   8.960   8.341   8.907
81255SOL     OW45661   1.138   3.666   9.580
81255SOL    HW145662   1.087   3.747   9.581
81255SOL    HW245663   1.114   3.621   9.662
81256SOL     OW45664   3.196   9.693   5.601
81256SOL    HW145665   3.190   9.789   5.596
81256SOL    HW245666   3.119   9.662   5.553
81257SOL     OW45667  11.268  11.107   2.642
81257SOL    HW145668  11.316  11.039   2.595
81257SOL    HW245669  11.283  11.087   2.735
81258SOL     OW45670   6.134   6.422  13.151
81258SOL    HW145671   6.191   6.435  13.075
81258SOL    HW245672   6.064   6.487  13.139
81259SOL     OW45673  11.066   1.473  12.186
81259SOL    HW145674  11.103   1.388  12.165
81259SOL    HW245675  11.102   1.494  12.272
81260SOL     OW45676   6.801   9.029  10.773
81260SOL    HW145677   6.858   9.013  10.698
81260SOL    HW245678   6.715   9.045  10.735
81261SOL     OW45679   8.889  10.179  12.157
81261SOL    HW145680   8.957  10.126  12.115
81261SOL    HW245681   8.920  10.190  12.247
81262SOL     OW45682  12.626   1.300   4.547
81262SOL    HW145683  12.661   1.377   4.592
81262SOL    HW245684  12.613   1.329   4.457
81263SOL     OW45685  13.933   0.247   1.149
81263SOL    HW145686  13.933   0.161   1.192
81263SOL    HW245687  13.909   0.228   1.059
81264SOL     OW45688   1.228   8.936   0.704
81264SOL    HW145689   1.232   8.988   0.784
81264SOL    HW245690   1.296   8.973   0.648
81265SOL     OW45691  10.015   6.228   2.359
81265SOL    HW145692  10.109   6.209   2.360
81265SOL    HW245693   9.974   6.143   2.346
81266SOL     OW45694   2.619   0.663  11.791
81266SOL    HW145695   2.630   0.695  11.880
81266SOL    HW245696   2.641   0.570  11.795
81267SOL     OW45697  14.489   4.380  12.308
81267SOL    HW145698  14.545   4.439  12.258
81267SOL    HW245699  14.447   4.325  12.242
81268SOL     OW45700   0.801   0.793   5.005
81268SOL    HW145701   0.758   0.873   5.035
81268SOL    HW245702   0.753   0.722   5.047
81269SOL     OW45703   2.898  11.169  13.961
81269SOL    HW145704   2.907  11.095  13.901
81269SOL    HW245705   2.988  11.193  13.982
81270SOL     OW45706  13.984   2.877   9.455
81270SOL    HW145707  14.014   2.963   9.424
81270SOL    HW245708  13.944   2.836   9.378
81271SOL     OW45709  10.631  14.132  13.812
81271SOL    HW145710  10.683  14.179  13.878
81271SOL    HW245711  10.628  14.193  13.737
81272SOL     OW45712  11.764  10.992   3.727
81272SOL    HW145713  11.685  10.983   3.781
81272SOL    HW245714  11.780  10.905   3.692
81273SOL     OW45715   3.027   4.564   4.086
81273SOL    HW145716   3.059   4.653   4.070
81273SOL    HW245717   3.092   4.507   4.045
81274SOL     OW45718   5.613  12.373   4.785
81274SOL    HW145719   5.708  12.358   4.790
81274SOL    HW245720   5.605  12.462   4.753
81275SOL     OW45721  13.083   4.940  10.789
81275SOL    HW145722  12.990   4.922  10.773
81275SOL    HW245723  13.087   4.966  10.881
81276SOL     OW45724   1.954  11.564   5.315
81276SOL    HW145725   2.023  11.504   5.343
81276SOL    HW245726   1.887  11.558   5.382
81277SOL     OW45727   3.227  10.997   4.932
81277SOL    HW145728   3.301  10.946   4.900
81277SOL    HW245729   3.258  11.088   4.930
81278SOL     OW45730  10.006  10.126   6.983
81278SOL    HW145731  10.060  10.116   6.905
81278SOL    HW245732   9.934  10.064   6.970
81279SOL     OW45733  13.916   1.780  10.791
81279SOL    HW145734  13.938   1.873  10.791
81279SOL    HW245735  13.961   1.745  10.868
81280SOL     OW45736   9.466  10.453   3.575
81280SOL    HW145737   9.491  10.462   3.667
81280SOL    HW245738   9.495  10.536   3.535
81281SOL     OW45739  14.388   1.117  10.372
81281SOL    HW145740  14.294   1.130  10.360
81281SOL    HW245741  14.429   1.163  10.299
81282SOL     OW45742  10.912   5.238   5.942
81282SOL    HW145743  10.925   5.179   5.868
81282SOL    HW245744  10.975   5.309   5.928
81283SOL     OW45745   7.361   4.916   7.552
81283SOL    HW145746   7.372   4.821   7.554
81283SOL    HW245747   7.267   4.929   7.538
81284SOL     OW45748   3.623   9.008   2.248
81284SOL    HW145749   3.600   8.921   2.216
81284SOL    HW245750   3.636   9.060   2.168
81285SOL     OW45751   1.084   5.467   2.186
81285SOL    HW145752   1.120   5.521   2.115
81285SOL    HW245753   1.106   5.377   2.161
81286SOL     OW45754   8.404   9.157  12.176
81286SOL    HW145755   8.488   9.197  12.196
81286SOL    HW245756   8.340   9.212  12.221
81287SOL     OW45757  12.087   3.040  10.209
81287SOL    HW145758  12.123   3.022  10.122
81287SOL    HW245759  12.103   2.960  10.259
81288SOL     OW45760  10.857   8.258  12.658
81288SOL    HW145761  10.927   8.307  12.614
81288SOL    HW245762  10.839   8.185  12.599
81289SOL     OW45763   8.026  12.689  14.313
81289SOL    HW145764   8.084  12.616  14.332
81289SOL    HW245765   8.084  12.759  14.285
81290SOL     OW45766   5.080  14.618   6.506
81290SOL    HW145767   5.123  14.604   6.422
81290SOL    HW245768   5.146  14.594   6.571
81291SOL     OW45769   3.570   4.081   2.938
81291SOL    HW145770   3.478   4.081   2.964
81291SOL    HW245771   3.619   4.091   3.020
81292SOL     OW45772  14.048  11.925   5.567
81292SOL    HW145773  14.123  11.980   5.546
81292SOL    HW245774  14.027  11.946   5.658
81293SOL     OW45775  11.010   0.641  11.119
81293SOL    HW145776  11.056   0.563  11.089
81293SOL    HW245777  11.016   0.638  11.214
81294SOL     OW45778   2.613   1.162   1.252
81294SOL    HW145779   2.629   1.246   1.209
81294SOL    HW245780   2.540   1.124   1.205
81295SOL     OW45781  12.794  11.283   5.490
81295SOL    HW145782  12.843  11.364   5.492
81295SOL    HW245783  12.841  11.224   5.549
81296SOL     OW45784  12.671   3.784  11.564
81296SOL    HW145785  12.638   3.750  11.481
81296SOL    HW245786  12.604   3.845  11.594
81297SOL     OW45787   2.090  12.249   5.887
81297SOL    HW145788   2.052  12.242   5.975
81297SOL    HW245789   2.019  12.284   5.833
81298SOL     OW45790   3.085  10.865  11.299
81298SOL    HW145791   3.001  10.874  11.254
81298SOL    HW245792   3.102  10.770  11.298
81299SOL     OW45793  12.939   5.576  13.467
81299SOL    HW145794  12.893   5.494  13.449
81299SOL    HW245795  12.950   5.616  13.381
81300SOL     OW45796   3.179   4.147   1.109
81300SOL    HW145797   3.220   4.063   1.132
81300SOL    HW245798   3.109   4.157   1.173
81301SOL     OW45799   7.834   8.685   5.869
81301SOL    HW145800   7.884   8.668   5.949
81301SOL    HW245801   7.872   8.624   5.805
81302SOL     OW45802   8.126   6.698   6.975
81302SOL    HW145803   8.068   6.725   7.046
81302SOL    HW245804   8.155   6.610   6.999
81303SOL     OW45805   8.524   1.612   5.112
81303SOL    HW145806   8.573   1.690   5.136
81303SOL    HW245807   8.442   1.619   5.161
81304SOL     OW45808   5.145   2.760   3.035
81304SOL    HW145809   5.065   2.764   3.087
81304SOL    HW245810   5.118   2.788   2.947
81305SOL     OW45811   7.693   2.541  10.858
81305SOL    HW145812   7.699   2.635  10.876
81305SOL    HW245813   7.689   2.535  10.763
81306SOL     OW45814   0.558  12.011   9.290
81306SOL    HW145815   0.554  11.957   9.369
81306SOL    HW245816   0.469  12.011   9.256
81307SOL     OW45817  10.497  12.655   5.160
81307SOL    HW145818  10.432  12.632   5.226
81307SOL    HW245819  10.576  12.676   5.209
81308SOL     OW45820   4.758  12.327  13.198
81308SOL    HW145821   4.799  12.397  13.147
81308SOL    HW245822   4.772  12.352  13.289
81309SOL     OW45823  10.606   5.692   9.185
81309SOL    HW145824  10.556   5.701   9.104
81309SOL    HW245825  10.544   5.715   9.254
81310SOL     OW45826   9.366  13.526   6.795
81310SOL    HW145827   9.363  13.536   6.700
81310SOL    HW245828   9.332  13.608   6.829
81311SOL     OW45829   6.642   3.241  10.095
81311SOL    HW145830   6.736   3.258  10.083
81311SOL    HW245831   6.600   3.287  10.023
81312SOL     OW45832  12.200   1.289   5.253
81312SOL    HW145833  12.147   1.210   5.247
81312SOL    HW245834  12.259   1.285   5.177
81313SOL     OW45835   2.954   1.873  13.222
81313SOL    HW145836   2.951   1.788  13.265
81313SOL    HW245837   2.911   1.933  13.282
81314SOL     OW45838   3.638   5.770   6.114
81314SOL    HW145839   3.593   5.749   6.032
81314SOL    HW245840   3.619   5.696   6.171
81315SOL     OW45841   2.329   8.600   7.485
81315SOL    HW145842   2.260   8.648   7.440
81315SOL    HW245843   2.283   8.540   7.544
81316SOL     OW45844  11.439   5.318  10.816
81316SOL    HW145845  11.508   5.289  10.876
81316SOL    HW245846  11.469   5.403  10.784
81317SOL     OW45847   2.036   7.744   0.817
81317SOL    HW145848   2.070   7.702   0.896
81317SOL    HW245849   1.965   7.687   0.789
81318SOL     OW45850  10.129   9.317   5.844
81318SOL    HW145851  10.041   9.283   5.833
81318SOL    HW245852  10.125   9.370   5.923
81319SOL     OW45853  10.857  12.609   5.710
81319SOL    HW145854  10.951  12.593   5.701
81319SOL    HW245855  10.851  12.702   5.735
81320SOL     OW45856   0.967   4.625  12.740
81320SOL    HW145857   0.900   4.667  12.794
81320SOL    HW245858   0.921   4.556  12.693
81321SOL     OW45859  11.073  12.283  10.246
81321SOL    HW145860  11.163  12.262  10.223
81321SOL    HW245861  11.037  12.326  10.169
81322SOL     OW45862  12.980   2.281   7.395
81322SOL    HW145863  12.905   2.337   7.413
81322SOL    HW245864  12.970   2.255   7.303
81323SOL     OW45865   3.526   5.207  14.389
81323SOL    HW145866   3.596   5.156  14.349
81323SOL    HW245867   3.480   5.247  14.315
81324SOL     OW45868   0.213   3.073   4.239
81324SOL    HW145869   0.161   2.994   4.256
81324SOL    HW245870   0.261   3.053   4.159
81325SOL     OW45871   5.181   1.155   9.441
81325SOL    HW145872   5.220   1.068   9.439
81325SOL    HW245873   5.152   1.167   9.532
81326SOL     OW45874   2.094   9.283  14.234
81326SOL    HW145875   2.181   9.263  14.267
81326SOL    HW245876   2.096   9.378  14.217
81327SOL     OW45877   8.180  14.783   5.873
81327SOL    HW145878   8.239  14.710   5.854
81327SOL    HW245879   8.213  14.854   5.818
81328SOL     OW45880  10.833   7.671   4.742
81328SOL    HW145881  10.798   7.586   4.771
81328SOL    HW245882  10.757   7.729   4.744
81329SOL     OW45883   3.666   5.299   3.773
81329SOL    HW145884   3.737   5.261   3.825
81329SOL    HW245885   3.603   5.229   3.763
81330SOL     OW45886   2.851  10.571   6.251
81330SOL    HW145887   2.928  10.518   6.232
81330SOL    HW245888   2.878  10.661   6.233
81331SOL     OW45889  12.401  12.211  14.548
81331SOL    HW145890  12.333  12.165  14.598
81331SOL    HW245891  12.483  12.188  14.591
81332SOL     OW45892   5.225   7.684   9.909
81332SOL    HW145893   5.226   7.720   9.821
81332SOL    HW245894   5.234   7.589   9.896
81333SOL     OW45895  11.507  11.597   6.352
81333SOL    HW145896  11.575  11.576   6.288
81333SOL    HW245897  11.488  11.513   6.395
81334SOL     OW45898   3.337   3.212  12.509
81334SOL    HW145899   3.421   3.222  12.464
81334SOL    HW245900   3.332   3.288  12.567
81335SOL     OW45901  10.535   6.743  14.444
81335SOL    HW145902  10.593   6.679  14.402
81335SOL    HW245903  10.447   6.715  14.419
81336SOL     OW45904  10.270  13.922   5.736
81336SOL    HW145905  10.292  14.015   5.736
81336SOL    HW245906  10.334  13.883   5.677
81337SOL     OW45907  13.966   7.355   0.917
81337SOL    HW145908  13.946   7.447   0.935
81337SOL    HW245909  13.902   7.306   0.968
81338SOL     OW45910  10.543  13.538   7.410
81338SOL    HW145911  10.620  13.560   7.357
81338SOL    HW245912  10.480  13.608   7.392
81339SOL     OW45913   7.931  11.957   1.824
81339SOL    HW145914   8.025  11.948   1.839
81339SOL    HW245915   7.924  12.006   1.742
81340SOL     OW45916  10.822  10.729  14.081
81340SOL    HW145917  10.754  10.663  14.098
81340SOL    HW245918  10.897  10.679  14.049
81341SOL     OW45919   4.943  14.379   8.336
81341SOL    HW145920   5.012  14.315   8.315
81341SOL    HW245921   4.925  14.366   8.429
81342SOL     OW45922   1.811   1.320  11.035
81342SOL    HW145923   1.792   1.365  10.952
81342SOL    HW245924   1.893   1.273  11.018
81343SOL     OW45925  10.632  12.642   2.325
81343SOL    HW145926  10.659  12.584   2.254
81343SOL    HW245927  10.568  12.700   2.285
81344SOL     OW45928   8.632  13.241   8.366
81344SOL    HW145929   8.682  13.253   8.285
81344SOL    HW245930   8.541  13.236   8.338
81345SOL     OW45931  11.890  12.562  10.574
81345SOL    HW145932  11.822  12.496  10.583
81345SOL    HW245933  11.948  12.548  10.649
81346SOL     OW45934   1.768  13.650   7.406
81346SOL    HW145935   1.727  13.581   7.354
81346SOL    HW245936   1.772  13.613   7.495
81347SOL     OW45937   7.728   2.869  14.416
81347SOL    HW145938   7.793   2.799  14.411
81347SOL    HW245939   7.707   2.889  14.325
81348SOL     OW45940   8.600  14.801  11.219
81348SOL    HW145941   8.634  14.725  11.266
81348SOL    HW245942   8.506  14.801  11.239
81349SOL     OW45943  12.452  14.460   5.695
81349SOL    HW145944  12.493  14.540   5.728
81349SOL    HW245945  12.381  14.491   5.639
81350SOL     OW45946   4.554   8.761  11.864
81350SOL    HW145947   4.617   8.827  11.835
81350SOL    HW245948   4.549   8.772  11.959
81351SOL     OW45949  13.399   4.600   9.597
81351SOL    HW145950  13.466   4.628   9.659
81351SOL    HW245951  13.437   4.616   9.510
81352SOL     OW45952  14.232  13.166   5.854
81352SOL    HW145953  14.314  13.119   5.838
81352SOL    HW245954  14.195  13.123   5.931
81353SOL     OW45955  14.280  13.660  12.913
81353SOL    HW145956  14.371  13.676  12.938
81353SOL    HW245957  14.229  13.694  12.987
81354SOL     OW45958   0.702  13.143   7.070
81354SOL    HW145959   0.663  13.124   7.156
81354SOL    HW245960   0.781  13.089   7.067
81355SOL     OW45961   1.272   8.980   0.236
81355SOL    HW145962   1.268   9.057   0.293
81355SOL    HW245963   1.205   8.922   0.271
81356SOL     OW45964   0.115   0.156   0.045
81356SOL    HW145965   0.174   0.144  14.839
81356SOL    HW245966   0.113   0.251   0.060
81357SOL     OW45967   8.105   4.294   6.321
81357SOL    HW145968   8.124   4.366   6.260
81357SOL    HW245969   8.137   4.216   6.276
81358SOL     OW45970  11.855  10.650  13.262
81358SOL    HW145971  11.921  10.685  13.323
81358SOL    HW245972  11.772  10.684  13.295
81359SOL     OW45973   3.855   9.843   7.154
81359SOL    HW145974   3.926   9.829   7.091
81359SOL    HW245975   3.832   9.936   7.142
81360SOL     OW45976   2.905   2.031   7.364
81360SOL    HW145977   2.944   1.946   7.341
81360SOL    HW245978   2.835   2.009   7.425
81361SOL     OW45979  13.161   8.773  11.131
81361SOL    HW145980  13.148   8.798  11.040
81361SOL    HW245981  13.233   8.830  11.161
81362SOL     OW45982   6.123   6.374   7.289
81362SOL    HW145983   6.210   6.337   7.300
81362SOL    HW245984   6.118   6.444   7.354
81363SOL     OW45985  14.320   0.632  10.422
81363SOL    HW145986  14.376   0.559  10.397
81363SOL    HW245987  14.380   0.702  10.447
81364SOL     OW45988   6.117   3.386  11.193
81364SOL    HW145989   6.099   3.404  11.100
81364SOL    HW245990   6.146   3.295  11.194
81365SOL     OW45991  14.598  12.346  14.410
81365SOL    HW145992  14.630  12.426  14.452
81365SOL    HW245993  14.523  12.374  14.358
81366SOL     OW45994  11.994  10.209  10.039
81366SOL    HW145995  11.979  10.263   9.961
81366SOL    HW245996  12.010  10.272  10.109
81367SOL     OW45997  13.830   2.295  13.727
81367SOL    HW145998  13.739   2.322  13.730
81367SOL    HW245999  13.875   2.366  13.681
81368SOL     OW46000  10.930   6.383   0.855
81368SOL    HW146001  10.847   6.342   0.831
81368SOL    HW246002  10.988   6.364   0.781
81369SOL     OW46003  11.734   2.853   3.416
81369SOL    HW146004  11.682   2.870   3.338
81369SOL    HW246005  11.822   2.882   3.393
81370SOL     OW46006   3.973   8.702  14.062
81370SOL    HW146007   3.963   8.629  14.002
81370SOL    HW246008   4.042   8.756  14.024
81371SOL     OW46009   8.326  12.876   2.944
81371SOL    HW146010   8.334  12.785   2.971
81371SOL    HW246011   8.287  12.871   2.856
81372SOL     OW46012  10.897   1.687   6.714
81372SOL    HW146013  10.981   1.717   6.679
81372SOL    HW246014  10.920   1.633   6.789
81373SOL     OW46015   0.975  10.298   4.164
81373SOL    HW146016   1.069  10.280   4.175
81373SOL    HW246017   0.962  10.301   4.069
81374SOL     OW46018  14.146  10.420  12.688
81374SOL    HW146019  14.166  10.370  12.767
81374SOL    HW246020  14.140  10.354  12.619
81375SOL     OW46021  14.207   5.139   9.423
81375SOL    HW146022  14.234   5.228   9.445
81375SOL    HW246023  14.115   5.147   9.397
81376SOL     OW46024  12.115  10.977   1.477
81376SOL    HW146025  12.059  11.054   1.488
81376SOL    HW246026  12.056  10.909   1.444
81377SOL     OW46027   9.755   0.034   5.932
81377SOL    HW146028   9.702   0.103   5.893
81377SOL    HW246029   9.839   0.038   5.886
81378SOL     OW46030  13.849   1.872   8.565
81378SOL    HW146031  13.769   1.918   8.542
81378SOL    HW246032  13.824   1.814   8.637
81379SOL     OW46033   2.871  11.671   2.415
81379SOL    HW146034   2.884  11.765   2.421
81379SOL    HW246035   2.957  11.633   2.433
81380SOL     OW46036   9.209  14.044   5.509
81380SOL    HW146037   9.157  14.035   5.429
81380SOL    HW246038   9.291  13.998   5.489
81381SOL     OW46039   0.695   2.939   7.355
81381SOL    HW146040   0.616   2.886   7.344
81381SOL    HW246041   0.747   2.921   7.277
81382SOL     OW46042   1.561   4.774  13.571
81382SOL    HW146043   1.479   4.754  13.526
81382SOL    HW246044   1.550   4.739  13.659
81383SOL     OW46045   0.881   2.009   7.645
81383SOL    HW146046   0.921   1.927   7.617
81383SOL    HW246047   0.927   2.033   7.725
81384SOL     OW46048   2.416   8.989   4.645
81384SOL    HW146049   2.500   9.003   4.600
81384SOL    HW246050   2.409   8.894   4.653
81385SOL     OW46051  14.544  12.915   4.897
81385SOL    HW146052  14.496  12.903   4.815
81385SOL    HW246053  14.476  12.916   4.964
81386SOL     OW46054  14.247  10.477   7.485
81386SOL    HW146055  14.333  10.498   7.521
81386SOL    HW246056  14.206  10.562   7.471
81387SOL     OW46057   0.955   3.130   2.206
81387SOL    HW146058   0.994   3.047   2.234
81387SOL    HW246059   0.939   3.177   2.288
81388SOL     OW46060  10.964  12.348   3.900
81388SOL    HW146061  10.930  12.312   3.982
81388SOL    HW246062  10.898  12.328   3.835
81389SOL     OW46063  13.021  12.042   4.553
81389SOL    HW146064  13.023  12.065   4.460
81389SOL    HW246065  12.962  12.105   4.593
81390SOL     OW46066   8.708   4.087   8.247
81390SOL    HW146067   8.719   4.149   8.319
81390SOL    HW246068   8.662   4.013   8.286
81391SOL     OW46069   6.765  11.295  12.373
81391SOL    HW146070   6.784  11.359  12.442
81391SOL    HW246071   6.778  11.210  12.415
81392SOL     OW46072   4.978  11.141  14.466
81392SOL    HW146073   5.065  11.134  14.428
81392SOL    HW246074   4.924  11.081  14.414
81393SOL     OW46075  12.293   3.935  12.764
81393SOL    HW146076  12.272   3.908  12.675
81393SOL    HW246077  12.371   3.991  12.754
81394SOL     OW46078   8.803   6.105  10.021
81394SOL    HW146079   8.830   6.185  10.067
81394SOL    HW246080   8.715   6.086  10.055
81395SOL     OW46081  13.121   4.403  14.471
81395SOL    HW146082  13.104   4.433  14.382
81395SOL    HW246083  13.169   4.476  14.511
81396SOL     OW46084   9.152   1.887   4.352
81396SOL    HW146085   9.247   1.875   4.358
81396SOL    HW246086   9.116   1.838   4.426
81397SOL     OW46087   8.299  11.341   9.793
81397SOL    HW146088   8.327  11.433   9.800
81397SOL    HW246089   8.219  11.337   9.845
81398SOL     OW46090  11.523  10.700   9.017
81398SOL    HW146091  11.496  10.634   8.953
81398SOL    HW246092  11.612  10.723   8.991
81399SOL     OW46093   7.126  14.343   3.792
81399SOL    HW146094   7.111  14.423   3.842
81399SOL    HW246095   7.171  14.372   3.713
81400SOL     OW46096  14.376   4.939  14.598
81400SOL    HW146097  14.404   4.980  14.516
81400SOL    HW246098  14.365   5.012  14.659
81401SOL     OW46099  12.565  10.298   2.426
81401SOL    HW146100  12.531  10.379   2.389
81401SOL    HW246101  12.489  10.241   2.434
81402SOL     OW46102  10.239  11.165   0.004
81402SOL    HW146103  10.249  11.070   0.015
81402SOL    HW246104  10.326  11.196  14.846
81403SOL     OW46105   6.213   4.587   7.908
81403SOL    HW146106   6.143   4.553   7.963
81403SOL    HW246107   6.237   4.514   7.851
81404SOL     OW46108   5.809   3.308   4.668
81404SOL    HW146109   5.854   3.246   4.725
81404SOL    HW246110   5.859   3.389   4.678
81405SOL     OW46111   6.973  12.368  13.285
81405SOL    HW146112   6.997  12.276  13.286
81405SOL    HW246113   6.878  12.368  13.296
81406SOL     OW46114   6.029   5.109  12.888
81406SOL    HW146115   6.000   5.135  12.801
81406SOL    HW246116   5.973   5.035  12.911
81407SOL     OW46117   8.397   8.605   3.308
81407SOL    HW146118   8.303   8.593   3.324
81407SOL    HW246119   8.414   8.696   3.333
81408SOL     OW46120   8.609  10.191   1.612
81408SOL    HW146121   8.674  10.208   1.544
81408SOL    HW246122   8.655  10.135   1.675
81409SOL     OW46123   6.165   1.973   0.609
81409SOL    HW146124   6.124   2.058   0.626
81409SOL    HW246125   6.129   1.916   0.677
81410SOL     OW46126  14.039  13.136  12.225
81410SOL    HW146127  13.999  13.050  12.207
81410SOL    HW246128  14.034  13.145  12.320
81411SOL     OW46129  12.440   9.483  14.270
81411SOL    HW146130  12.465   9.566  14.309
81411SOL    HW246131  12.468   9.416  14.333
81412SOL     OW46132   0.475   9.314   1.528
81412SOL    HW146133   0.423   9.235   1.543
81412SOL    HW246134   0.425   9.383   1.572
81413SOL     OW46135   1.401   3.950   6.435
81413SOL    HW146136   1.363   3.935   6.349
81413SOL    HW246137   1.374   3.875   6.487
81414SOL     OW46138  13.718   5.978   1.090
81414SOL    HW146139  13.780   6.008   1.025
81414SOL    HW246140  13.645   5.942   1.039
81415SOL     OW46141   3.854   8.741   3.953
81415SOL    HW146142   3.768   8.726   3.913
81415SOL    HW246143   3.837   8.740   4.047
81416SOL     OW46144  13.445   9.360   3.633
81416SOL    HW146145  13.367   9.406   3.665
81416SOL    HW246146  13.410   9.291   3.576
81417SOL     OW46147  11.755   9.362  10.171
81417SOL    HW146148  11.781   9.356  10.263
81417SOL    HW246149  11.663   9.338  10.171
81418SOL     OW46150  13.156   5.085   8.501
81418SOL    HW146151  13.098   5.014   8.529
81418SOL    HW246152  13.243   5.057   8.531
81419SOL     OW46153   8.341   7.278   6.539
81419SOL    HW146154   8.353   7.288   6.634
81419SOL    HW246155   8.274   7.342   6.516
81420SOL     OW46156  13.757  11.338   5.715
81420SOL    HW146157  13.738  11.261   5.660
81420SOL    HW246158  13.728  11.412   5.661
81421SOL     OW46159   8.383   3.459   3.602
81421SOL    HW146160   8.412   3.550   3.603
81421SOL    HW246161   8.291   3.463   3.575
81422SOL     OW46162   8.200   0.862   2.360
81422SOL    HW146163   8.127   0.809   2.329
81422SOL    HW246164   8.276   0.829   2.313
81423SOL     OW46165  13.889   8.241  12.360
81423SOL    HW146166  13.924   8.180  12.425
81423SOL    HW246167  13.851   8.185  12.292
81424SOL     OW46168   7.627   2.285   2.449
81424SOL    HW146169   7.564   2.338   2.499
81424SOL    HW246170   7.699   2.345   2.431
81425SOL     OW46171   7.404   5.861   8.124
81425SOL    HW146172   7.420   5.947   8.086
81425SOL    HW246173   7.343   5.818   8.064
81426SOL     OW46174   3.235  11.401  14.170
81426SOL    HW146175   3.288  11.471  14.131
81426SOL    HW246176   3.145  11.426  14.152
81427SOL     OW46177   2.996  11.465  14.135
81427SOL    HW146178   2.970  11.545  14.180
81427SOL    HW246179   3.016  11.492  14.046
81428SOL     OW46180   1.375   4.815   8.215
81428SOL    HW146181   1.320   4.893   8.226
81428SOL    HW246182   1.393   4.812   8.121
81429SOL     OW46183   6.470  10.482   6.257
81429SOL    HW146184   6.487  10.528   6.175
81429SOL    HW246185   6.394  10.526   6.295
81430SOL     OW46186  11.151   7.710  10.023
81430SOL    HW146187  11.081   7.733   9.962
81430SOL    HW246188  11.108   7.702  10.108
81431SOL     OW46189   4.029  13.134  14.609
81431SOL    HW146190   4.122  13.155  14.611
81431SOL    HW246191   4.013  13.107  14.518
81432SOL     OW46192   8.860   7.151  12.436
81432SOL    HW146193   8.884   7.191  12.352
81432SOL    HW246194   8.778   7.105  12.418
81433SOL     OW46195   6.358  10.011   1.089
81433SOL    HW146196   6.312  10.072   1.147
81433SOL    HW246197   6.420  10.067   1.041
81434SOL     OW46198   2.798   1.616   8.679
81434SOL    HW146199   2.788   1.600   8.585
81434SOL    HW246200   2.744   1.549   8.721
81435SOL     OW46201  11.174   5.202   7.430
81435SOL    HW146202  11.098   5.214   7.488
81435SOL    HW246203  11.140   5.223   7.342
81436SOL     OW46204   5.464  14.105  10.042
81436SOL    HW146205   5.500  14.038  10.100
81436SOL    HW246206   5.512  14.185  10.065
81437SOL     OW46207  14.862   1.456   5.907
81437SOL    HW146208  14.831   1.539   5.870
81437SOL    HW246209   0.026   1.480   5.994
81438SOL     OW46210   8.624   5.114   0.899
81438SOL    HW146211   8.648   5.204   0.923
81438SOL    HW246212   8.691   5.060   0.941
81439SOL     OW46213   6.210   1.293   6.142
81439SOL    HW146214   6.254   1.264   6.222
81439SOL    HW246215   6.138   1.348   6.173
81440SOL     OW46216   2.264  12.738   4.733
81440SOL    HW146217   2.319  12.801   4.685
81440SOL    HW246218   2.183  12.786   4.751
81441SOL     OW46219   5.951  14.123   5.496
81441SOL    HW146220   5.946  14.027   5.502
81441SOL    HW246221   6.003  14.140   5.418
81442SOL     OW46222   3.798   7.835   3.034
81442SOL    HW146223   3.801   7.922   3.073
81442SOL    HW246224   3.885   7.821   2.998
81443SOL     OW46225  12.314  13.532  13.373
81443SOL    HW146226  12.386  13.525  13.312
81443SOL    HW246227  12.245  13.578  13.324
81444SOL     OW46228  14.535   0.278   9.103
81444SOL    HW146229  14.619   0.323   9.099
81444SOL    HW246230  14.526   0.251   9.195
81445SOL     OW46231   6.191   0.700   8.918
81445SOL    HW146232   6.178   0.701   8.823
81445SOL    HW246233   6.138   0.626   8.949
81446SOL     OW46234  14.182  11.061   0.064
81446SOL    HW146235  14.094  11.043   0.030
81446SOL    HW246236  14.235  11.077  14.854
81447SOL     OW46237   7.978   9.979   0.064
81447SOL    HW146238   7.940  10.017  14.853
81447SOL    HW246239   8.068  10.010   0.064
81448SOL     OW46240   3.498   7.498   2.409
81448SOL    HW146241   3.557   7.565   2.375
81448SOL    HW246242   3.412   7.519   2.372
81449SOL     OW46243   9.199   2.828   2.326
81449SOL    HW146244   9.123   2.886   2.324
81449SOL    HW246245   9.199   2.790   2.413
81450SOL     OW46246   2.793  10.331   3.047
81450SOL    HW146247   2.702  10.343   3.075
81450SOL    HW246248   2.808  10.236   3.054
81451SOL     OW46249   0.494   2.974   0.142
81451SOL    HW146250   0.459   3.058   0.112
81451SOL    HW246251   0.462   2.964   0.231
81452SOL     OW46252  11.783   9.006   0.710
81452SOL    HW146253  11.706   9.059   0.689
81452SOL    HW246254  11.841   9.019   0.635
81453SOL     OW46255   0.402  12.125  11.118
81453SOL    HW146256   0.315  12.140  11.081
81453SOL    HW246257   0.398  12.038  11.157
81454SOL     OW46258  14.575   4.813  14.772
81454SOL    HW146259  14.501   4.834  14.715
81454SOL    HW246260  14.651   4.819  14.715
81455SOL     OW46261   3.427   6.101  10.636
81455SOL    HW146262   3.470   6.092  10.721
81455SOL    HW246263   3.355   6.162  10.652
81456SOL     OW46264   6.430  12.882   4.314
81456SOL    HW146265   6.398  12.968   4.342
81456SOL    HW246266   6.447  12.892   4.220
81457SOL     OW46267  14.215   3.705  10.197
81457SOL    HW146268  14.305   3.674  10.205
81457SOL    HW246269  14.224   3.797  10.171
81458SOL     OW46270   8.342   3.004  12.280
81458SOL    HW146271   8.307   3.092  12.293
81458SOL    HW246272   8.427   3.005  12.324
81459SOL     OW46273   5.855   5.313  10.158
81459SOL    HW146274   5.838   5.371  10.084
81459SOL    HW246275   5.934   5.347  10.199
81460SOL     OW46276  10.952   9.971   3.267
81460SOL    HW146277  10.970   9.877   3.278
81460SOL    HW246278  10.881   9.974   3.203
81461SOL     OW46279   9.721  11.096   5.950
81461SOL    HW146280   9.739  11.160   6.020
81461SOL    HW246281   9.786  11.027   5.965
81462SOL     OW46282  11.520   3.766   2.490
81462SOL    HW146283  11.459   3.695   2.472
81462SOL    HW246284  11.499   3.833   2.425
81463SOL     OW46285   7.001  10.645   8.953
81463SOL    HW146286   6.986  10.615   9.043
81463SOL    HW246287   6.969  10.735   8.952
81464SOL     OW46288   0.755  13.593   0.651
81464SOL    HW146289   0.757  13.689   0.644
81464SOL    HW246290   0.797  13.563   0.570
81465SOL     OW46291  11.226  10.612   2.586
81465SOL    HW146292  11.274  10.592   2.666
81465SOL    HW246293  11.138  10.577   2.600
81466SOL     OW46294  12.220  11.478  13.856
81466SOL    HW146295  12.160  11.486  13.782
81466SOL    HW246296  12.307  11.495  13.819
81467SOL     OW46297  10.342   9.673   6.905
81467SOL    HW146298  10.355   9.760   6.868
81467SOL    HW246299  10.273   9.634   6.851
81468SOL     OW46300   6.968   1.699   6.213
81468SOL    HW146301   7.059   1.729   6.212
81468SOL    HW246302   6.970   1.615   6.167
81469SOL     OW46303   6.432   1.003   8.723
81469SOL    HW146304   6.426   0.974   8.814
81469SOL    HW246305   6.430   1.099   8.729
81470SOL     OW46306   3.509   6.217   9.929
81470SOL    HW146307   3.474   6.199  10.016
81470SOL    HW246308   3.540   6.132   9.897
81471SOL     OW46309   6.758   1.579   1.605
81471SOL    HW146310   6.831   1.524   1.575
81471SOL    HW246311   6.692   1.571   1.536
81472SOL     OW46312   1.117  14.371   0.221
81472SOL    HW146313   1.072  14.455   0.214
81472SOL    HW246314   1.197  14.382   0.169
81473SOL     OW46315   4.812   0.923  10.020
81473SOL    HW146316   4.864   0.887  10.091
81473SOL    HW246317   4.723   0.928  10.055
81474SOL     OW46318  13.432   1.510   8.820
81474SOL    HW146319  13.493   1.527   8.892
81474SOL    HW246320  13.488   1.502   8.743
81475SOL     OW46321   3.393   0.526   8.822
81475SOL    HW146322   3.470   0.523   8.879
81475SOL    HW246323   3.408   0.602   8.766
81476SOL     OW46324   4.676   1.096   9.465
81476SOL    HW146325   4.716   1.151   9.397
81476SOL    HW246326   4.699   1.140   9.547
81477SOL     OW46327   0.902   1.910   9.363
81477SOL    HW146328   0.901   1.988   9.307
81477SOL    HW246329   0.884   1.837   9.303
81478SOL     OW46330   8.606   0.321   7.325
81478SOL    HW146331   8.568   0.315   7.412
81478SOL    HW246332   8.583   0.238   7.283
81479SOL     OW46333   1.155   1.111  12.227
81479SOL    HW146334   1.120   1.104  12.138
81479SOL    HW246335   1.250   1.105  12.215
81480SOL     OW46336  12.302  10.462   2.681
81480SOL    HW146337  12.335  10.401   2.615
81480SOL    HW246338  12.343  10.546   2.658
81481SOL     OW46339   3.419   0.596   9.203
81481SOL    HW146340   3.473   0.642   9.267
81481SOL    HW246341   3.354   0.661   9.176
81482SOL     OW46342   4.338  11.674  13.876
81482SOL    HW146343   4.423  11.665  13.833
81482SOL    HW246344   4.304  11.758  13.844
81483SOL     OW46345  11.984   7.488   3.068
81483SOL    HW146346  12.064   7.457   3.112
81483SOL    HW246347  11.913   7.450   3.119
81484SOL     OW46348   4.591  13.434   2.209
81484SOL    HW146349   4.661  13.373   2.187
81484SOL    HW246350   4.571  13.480   2.127
81485SOL     OW46351  11.047   4.278   0.461
81485SOL    HW146352  11.011   4.242   0.379
81485SOL    HW246353  11.139   4.253   0.459
81486SOL     OW46354  10.298   2.385   7.582
81486SOL    HW146355  10.205   2.378   7.562
81486SOL    HW246356  10.340   2.323   7.522
81487SOL     OW46357   1.644  10.110   7.376
81487SOL    HW146358   1.656  10.018   7.399
81487SOL    HW246359   1.607  10.151   7.454
81488SOL     OW46360  12.874   1.514   8.148
81488SOL    HW146361  12.823   1.438   8.121
81488SOL    HW246362  12.909   1.490   8.233
81489SOL     OW46363   9.380   0.571   4.375
81489SOL    HW146364   9.452   0.587   4.436
81489SOL    HW246365   9.305   0.616   4.414
81490SOL     OW46366   5.512  14.048   6.045
81490SOL    HW146367   5.591  14.057   6.098
81490SOL    HW246368   5.505  14.132   6.000
81491SOL     OW46369   0.984   9.449  12.574
81491SOL    HW146370   0.914   9.385  12.584
81491SOL    HW246371   1.031   9.423  12.495
81492SOL     OW46372   5.299   5.085   0.496
81492SOL    HW146373   5.336   4.997   0.486
81492SOL    HW246374   5.374   5.142   0.512
81493SOL     OW46375   5.484   0.041   3.683
81493SOL    HW146376   5.533  14.827   3.682
81493SOL    HW246377   5.402   0.020   3.727
81494SOL     OW46378   8.758   5.714   0.122
81494SOL    HW146379   8.813   5.673   0.055
81494SOL    HW246380   8.819   5.757   0.181
81495SOL     OW46381  14.630   3.040   3.268
81495SOL    HW146382  14.659   3.068   3.355
81495SOL    HW246383  14.538   3.068   3.263
81496SOL     OW46384  11.924  13.515  10.279
81496SOL    HW146385  11.901  13.454  10.349
81496SOL    HW246386  11.881  13.597  10.303
81497SOL     OW46387   7.215   5.225  14.655
81497SOL    HW146388   7.204   5.246  14.748
81497SOL    HW246389   7.304   5.191  14.649
81498SOL     OW46390   4.390   6.538   1.712
81498SOL    HW146391   4.474   6.494   1.723
81498SOL    HW246392   4.324   6.473   1.736
81499SOL     OW46393  10.583   3.098   7.359
81499SOL    HW146394  10.603   3.119   7.268
81499SOL    HW246395  10.591   3.003   7.364
81500SOL     OW46396  10.267   3.329  14.682
81500SOL    HW146397  10.213   3.403  14.657
81500SOL    HW246398  10.311   3.302  14.601
81501SOL     OW46399   0.577  10.187   3.778
81501SOL    HW146400   0.509  10.208   3.842
81501SOL    HW246401   0.532  10.131   3.714
81502SOL     OW46402  12.318   8.530   2.637
81502SOL    HW146403  12.355   8.615   2.615
81502SOL    HW246404  12.384   8.489   2.692
81503SOL     OW46405   8.315   3.464   9.631
81503SOL    HW146406   8.261   3.493   9.558
81503SOL    HW246407   8.308   3.369   9.630
81504SOL     OW46408  14.615  10.323   7.457
81504SOL    HW146409  14.551  10.329   7.386
81504SOL    HW246410  14.611  10.409   7.500
81505SOL     OW46411   6.637  11.812  11.347
81505SOL    HW146412   6.726  11.778  11.351
81505SOL    HW246413   6.591  11.768  11.419
81506SOL     OW46414   5.749   6.620  11.946
81506SOL    HW146415   5.797   6.578  11.875
81506SOL    HW246416   5.791   6.705  11.957
81507SOL     OW46417   4.172   9.513   9.803
81507SOL    HW146418   4.161   9.599   9.763
81507SOL    HW246419   4.084   9.489   9.833
81508SOL     OW46420  11.466   2.755   8.382
81508SOL    HW146421  11.442   2.817   8.452
81508SOL    HW246422  11.444   2.669   8.418
81509SOL     OW46423   9.312   4.312  11.900
81509SOL    HW146424   9.357   4.228  11.903
81509SOL    HW246425   9.381   4.376  11.882
81510SOL     OW46426   7.270   4.249  12.277
81510SOL    HW146427   7.207   4.321  12.282
81510SOL    HW246428   7.332   4.267  12.348
81511SOL     OW46429   5.772   4.602   6.192
81511SOL    HW146430   5.744   4.688   6.223
81511SOL    HW246431   5.815   4.618   6.108
81512SOL     OW46432   0.114  13.332  11.858
81512SOL    HW146433   0.088  13.319  11.767
81512SOL    HW246434   0.047  13.286  11.909
81513SOL     OW46435   0.447   9.132   7.251
81513SOL    HW146436   0.502   9.196   7.297
81513SOL    HW246437   0.450   9.054   7.306
81514SOL     OW46438   1.974  14.202   0.688
81514SOL    HW146439   2.058  14.236   0.720
81514SOL    HW246440   1.959  14.122   0.739
81515SOL     OW46441   6.868   8.251   1.427
81515SOL    HW146442   6.894   8.339   1.454
81515SOL    HW246443   6.794   8.265   1.367
81516SOL     OW46444   6.596   9.583   7.966
81516SOL    HW146445   6.554   9.668   7.979
81516SOL    HW246446   6.538   9.520   8.011
81517SOL     OW46447  13.777  13.986  10.620
81517SOL    HW146448  13.722  14.029  10.686
81517SOL    HW246449  13.733  14.003  10.537
81518SOL     OW46450   1.120   1.513   5.002
81518SOL    HW146451   1.176   1.440   4.975
81518SOL    HW246452   1.122   1.573   4.927
81519SOL     OW46453   8.232   1.481  13.000
81519SOL    HW146454   8.303   1.469  12.937
81519SOL    HW246455   8.165   1.531  12.952
81520SOL     OW46456  10.192   9.824   5.562
81520SOL    HW146457  10.166   9.867   5.643
81520SOL    HW246458  10.132   9.857   5.496
81521SOL     OW46459  10.722  12.052   2.747
81521SOL    HW146460  10.707  12.131   2.694
81521SOL    HW246461  10.666  11.986   2.706
81522SOL     OW46462   4.695   3.791   8.534
81522SOL    HW146463   4.713   3.818   8.444
81522SOL    HW246464   4.634   3.857   8.568
81523SOL     OW46465   5.012   2.054  13.614
81523SOL    HW146466   4.919   2.034  13.603
81523SOL    HW246467   5.050   2.045  13.527
81524SOL     OW46468  11.311   0.277   4.061
81524SOL    HW146469  11.348   0.309   4.143
81524SOL    HW246470  11.232   0.329   4.048
81525SOL     OW46471   9.152   8.467   2.806
81525SOL    HW146472   9.072   8.502   2.844
81525SOL    HW246473   9.123   8.395   2.750
81526SOL     OW46474  14.686   6.241  11.048
81526SOL    HW146475  14.705   6.289  11.129
81526SOL    HW246476  14.618   6.178  11.073
81527SOL     OW46477   3.073   7.960   9.291
81527SOL    HW146478   3.146   8.013   9.259
81527SOL    HW246479   3.001   7.978   9.231
81528SOL     OW46480   2.979   2.554   5.493
81528SOL    HW146481   3.073   2.570   5.480
81528SOL    HW246482   2.936   2.606   5.426
81529SOL     OW46483   1.021   4.930   6.328
81529SOL    HW146484   1.101   4.910   6.279
81529SOL    HW246485   0.980   4.846   6.344
81530SOL     OW46486   8.571  14.661   9.370
81530SOL    HW146487   8.543  14.752   9.360
81530SOL    HW246488   8.653  14.667   9.419
81531SOL     OW46489   5.992   2.014   6.115
81531SOL    HW146490   6.067   2.010   6.174
81531SOL    HW246491   6.007   1.943   6.053
81532SOL     OW46492  14.621  12.140   1.980
81532SOL    HW146493  14.637  12.157   2.073
81532SOL    HW246494  14.526  12.129   1.974
81533SOL     OW46495  11.072   9.450   6.410
81533SOL    HW146496  11.073   9.512   6.337
81533SOL    HW246497  11.041   9.368   6.371
81534SOL     OW46498   3.868   1.865   0.432
81534SOL    HW146499   3.932   1.802   0.401
81534SOL    HW246500   3.917   1.923   0.490
81535SOL     OW46501  10.473   8.501   3.443
81535SOL    HW146502  10.378   8.501   3.432
81535SOL    HW246503  10.489   8.555   3.520
81536SOL     OW46504   5.490   3.212   1.649
81536SOL    HW146505   5.427   3.174   1.710
81536SOL    HW246506   5.440   3.221   1.567
81537SOL     OW46507   4.427  11.062  13.155
81537SOL    HW146508   4.427  10.982  13.102
81537SOL    HW246509   4.496  11.048  13.219
81538SOL     OW46510  11.205   5.480   3.632
81538SOL    HW146511  11.207   5.551   3.697
81538SOL    HW246512  11.116   5.445   3.639
81539SOL     OW46513   3.457   1.269  13.243
81539SOL    HW146514   3.475   1.213  13.318
81539SOL    HW246515   3.449   1.357  13.279
81540SOL     OW46516   0.028  13.333  11.144
81540SOL    HW146517   0.114  13.373  11.133
81540SOL    HW246518   0.029  13.259  11.084
81541SOL     OW46519  12.761   3.457   2.158
81541SOL    HW146520  12.744   3.546   2.127
81541SOL    HW246521  12.720   3.400   2.092
81542SOL     OW46522  11.213   2.465   7.208
81542SOL    HW146523  11.200   2.560   7.205
81542SOL    HW246524  11.174   2.438   7.291
81543SOL     OW46525   8.552   8.941  12.410
81543SOL    HW146526   8.488   8.924  12.342
81543SOL    HW246527   8.632   8.964  12.363
81544SOL     OW46528   9.806   9.722   4.865
81544SOL    HW146529   9.865   9.749   4.794
81544SOL    HW246530   9.761   9.645   4.831
81545SOL     OW46531   4.619   4.747   1.876
81545SOL    HW146532   4.676   4.734   1.952
81545SOL    HW246533   4.534   4.767   1.914
81546SOL     OW46534   3.577   8.841  11.141
81546SOL    HW146535   3.672   8.851  11.138
81546SOL    HW246536   3.549   8.859  11.052
81547SOL     OW46537   6.823   3.625   5.672
81547SOL    HW146538   6.837   3.612   5.578
81547SOL    HW246539   6.790   3.715   5.680
81548SOL     OW46540  10.938   8.462   5.839
81548SOL    HW146541  10.864   8.414   5.803
81548SOL    HW246542  10.900   8.545   5.869
81549SOL     OW46543   9.571   2.364   0.720
81549SOL    HW146544   9.509   2.293   0.703
81549SOL    HW246545   9.516   2.437   0.749
81550SOL     OW46546   4.665   2.385  14.299
81550SOL    HW146547   4.635   2.398  14.389
81550SOL    HW246548   4.746   2.334  14.308
81551SOL     OW46549   4.108   3.818   6.735
81551SOL    HW146550   4.148   3.772   6.808
81551SOL    HW246551   4.113   3.757   6.662
81552SOL     OW46552   5.406   9.526   5.000
81552SOL    HW146553   5.381   9.601   5.054
81552SOL    HW246554   5.452   9.467   5.059
81553SOL     OW46555   3.128  10.382   3.574
81553SOL    HW146556   3.124  10.397   3.668
81553SOL    HW246557   3.117  10.287   3.565
81554SOL     OW46558  12.231  13.357   2.052
81554SOL    HW146559  12.233  13.402   1.968
81554SOL    HW246560  12.288  13.409   2.109
81555SOL     OW46561   2.744  14.605   7.276
81555SOL    HW146562   2.713  14.560   7.355
81555SOL    HW246563   2.840  14.606   7.285
81556SOL     OW46564  14.311   3.942   1.621
81556SOL    HW146565  14.241   3.910   1.563
81556SOL    HW246566  14.297   4.036   1.625
81557SOL     OW46567  13.459  13.666  10.684
81557SOL    HW146568  13.406  13.643  10.761
81557SOL    HW246569  13.524  13.728  10.718
81558SOL     OW46570   5.897   2.411  14.460
81558SOL    HW146571   5.948   2.489  14.437
81558SOL    HW246572   5.886   2.364  14.378
81559SOL     OW46573   1.788   2.987   2.803
81559SOL    HW146574   1.859   3.044   2.833
81559SOL    HW246575   1.815   2.899   2.827
81560SOL     OW46576   7.705   4.141   3.921
81560SOL    HW146577   7.621   4.158   3.879
81560SOL    HW246578   7.688   4.152   4.014
81561SOL     OW46579  12.331   4.688   0.674
81561SOL    HW146580  12.242   4.657   0.662
81561SOL    HW246581  12.384   4.608   0.681
81562SOL     OW46582   7.702  11.461   2.180
81562SOL    HW146583   7.778  11.406   2.200
81562SOL    HW246584   7.715  11.487   2.089
81563SOL     OW46585   3.357   1.534   1.406
81563SOL    HW146586   3.374   1.441   1.415
81563SOL    HW246587   3.279   1.540   1.351
81564SOL     OW46588   7.322  11.523   0.293
81564SOL    HW146589   7.339  11.577   0.215
81564SOL    HW246590   7.293  11.586   0.359
81565SOL     OW46591   2.306   8.262   5.943
81565SOL    HW146592   2.294   8.187   5.883
81565SOL    HW246593   2.241   8.247   6.012
81566SOL     OW46594  14.801   4.610   9.640
81566SOL    HW146595  14.843   4.631   9.723
81566SOL    HW246596  14.853   4.538   9.604
81567SOL     OW46597   6.419   1.232  10.862
81567SOL    HW146598   6.512   1.239  10.839
81567SOL    HW246599   6.417   1.247  10.957
81568SOL     OW46600   4.877  12.048   2.603
81568SOL    HW146601   4.904  11.959   2.626
81568SOL    HW246602   4.939  12.076   2.535
81569SOL     OW46603   3.110   0.020   1.375
81569SOL    HW146604   3.060   0.089   1.332
81569SOL    HW246605   3.168   0.065   1.435
81570SOL     OW46606   0.699  11.095   4.489
81570SOL    HW146607   0.676  11.134   4.574
81570SOL    HW246608   0.650  11.146   4.425
81571SOL     OW46609   7.912  10.809  12.770
81571SOL    HW146610   7.824  10.772  12.770
81571SOL    HW246611   7.958  10.761  12.701
81572SOL     OW46612  14.369  13.589   7.928
81572SOL    HW146613  14.384  13.664   7.871
81572SOL    HW246614  14.369  13.514   7.869
81573SOL     OW46615  14.577   0.679  13.669
81573SOL    HW146616  14.536   0.753  13.715
81573SOL    HW246617  14.665   0.709  13.647
81574SOL     OW46618  13.667  12.485   6.716
81574SOL    HW146619  13.598  12.457   6.776
81574SOL    HW246620  13.660  12.425   6.641
81575SOL     OW46621  13.465  10.344  14.866
81575SOL    HW146622  13.559  10.332  14.851
81575SOL    HW246623  13.423  10.284  14.804
81576SOL     OW46624   5.399   3.300   9.020
81576SOL    HW146625   5.460   3.346   9.077
81576SOL    HW246626   5.407   3.208   9.045
81577SOL     OW46627  11.421  11.126   2.227
81577SOL    HW146628  11.381  11.166   2.304
81577SOL    HW246629  11.479  11.194   2.192
81578SOL     OW46630   5.705   9.166   5.472
81578SOL    HW146631   5.631   9.151   5.413
81578SOL    HW246632   5.780   9.128   5.426
81579SOL     OW46633   7.431  13.406  14.300
81579SOL    HW146634   7.434  13.400  14.204
81579SOL    HW246635   7.464  13.321  14.330
81580SOL     OW46636   4.877   9.019   8.538
81580SOL    HW146637   4.910   8.958   8.603
81580SOL    HW246638   4.791   9.045   8.572
81581SOL     OW46639  11.116   1.587   7.555
81581SOL    HW146640  11.174   1.659   7.530
81581SOL    HW246641  11.164   1.508   7.530
81582SOL     OW46642  11.973   4.207   5.475
81582SOL    HW146643  12.033   4.271   5.512
81582SOL    HW246644  11.886   4.244   5.492
81583SOL     OW46645   1.418   0.767   1.031
81583SOL    HW146646   1.504   0.805   1.011
81583SOL    HW246647   1.415   0.761   1.126
81584SOL     OW46648   6.062   1.746   6.552
81584SOL    HW146649   6.150   1.727   6.586
81584SOL    HW246650   6.037   1.667   6.504
81585SOL     OW46651   6.205   6.395   0.329
81585SOL    HW146652   6.295   6.403   0.299
81585SOL    HW246653   6.158   6.463   0.281
81586SOL     OW46654   0.379  10.543   7.602
81586SOL    HW146655   0.469  10.512   7.613
81586SOL    HW246656   0.370  10.560   7.509
81587SOL     OW46657   2.164   5.355  11.779
81587SOL    HW146658   2.159   5.319  11.691
81587SOL    HW246659   2.174   5.279  11.836
81588SOL     OW46660   9.699   5.110  12.719
81588SOL    HW146661   9.613   5.153  12.716
81588SOL    HW246662   9.761   5.182  12.728
81589SOL     OW46663  13.862   0.964   7.137
81589SOL    HW146664  13.830   1.054   7.135
81589SOL    HW246665  13.786   0.911   7.114
81590SOL     OW46666   1.899   9.214   8.043
81590SOL    HW146667   1.841   9.289   8.054
81590SOL    HW246668   1.866   9.149   8.105
81591SOL     OW46669  13.423   4.398  10.758
81591SOL    HW146670  13.337   4.428  10.787
81591SOL    HW246671  13.457   4.471  10.705
81592SOL     OW46672   2.633   8.841   3.150
81592SOL    HW146673   2.715   8.855   3.103
81592SOL    HW246674   2.577   8.794   3.088
81593SOL     OW46675   1.277   9.484   3.948
81593SOL    HW146676   1.286   9.401   3.901
81593SOL    HW246677   1.240   9.459   4.033
81594SOL     OW46678   1.493  13.846   9.710
81594SOL    HW146679   1.549  13.769   9.700
81594SOL    HW246680   1.448  13.832   9.794
81595SOL     OW46681  12.877   0.937   2.549
81595SOL    HW146682  12.931   0.890   2.487
81595SOL    HW246683  12.863   0.876   2.622
81596SOL     OW46684  14.237   1.679   2.824
81596SOL    HW146685  14.252   1.770   2.798
81596SOL    HW246686  14.177   1.686   2.898
81597SOL     OW46687   7.066   8.701  11.588
81597SOL    HW146688   7.119   8.779  11.606
81597SOL    HW246689   7.012   8.727  11.513
81598SOL     OW46690   1.086  14.634  10.229
81598SOL    HW146691   1.104  14.630  10.135
81598SOL    HW246692   1.141  14.565  10.267
81599SOL     OW46693  11.644   2.400   9.379
81599SOL    HW146694  11.705   2.462   9.421
81599SOL    HW246695  11.662   2.409   9.286
81600SOL     OW46696   8.611   1.862   2.333
81600SOL    HW146697   8.669   1.818   2.395
81600SOL    HW246698   8.612   1.954   2.359
81601SOL     OW46699   7.302   4.243  10.561
81601SOL    HW146700   7.264   4.310  10.504
81601SOL    HW246701   7.246   4.243  10.639
81602SOL     OW46702  11.881   1.734  11.675
81602SOL    HW146703  11.807   1.793  11.686
81602SOL    HW246704  11.846   1.661  11.623
81603SOL     OW46705   3.356   9.278   0.415
81603SOL    HW146706   3.444   9.302   0.386
81603SOL    HW246707   3.308   9.263   0.334
81604SOL     OW46708   1.657   7.584   9.705
81604SOL    HW146709   1.725   7.565   9.770
81604SOL    HW246710   1.690   7.660   9.658
81605SOL     OW46711  12.299  11.864   7.917
81605SOL    HW146712  12.204  11.869   7.906
81605SOL    HW246713  12.313  11.888   8.009
81606SOL     OW46714   2.685   9.914   6.497
81606SOL    HW146715   2.593   9.898   6.475
81606SOL    HW246716   2.686   9.925   6.592
81607SOL     OW46717   3.270   6.381  10.948
81607SOL    HW146718   3.334   6.315  10.975
81607SOL    HW246719   3.314   6.465  10.965
81608SOL     OW46720   8.148   6.625   3.079
81608SOL    HW146721   8.122   6.539   3.044
81608SOL    HW246722   8.242   6.630   3.062
81609SOL     OW46723   3.379   6.703   5.602
81609SOL    HW146724   3.292   6.683   5.634
81609SOL    HW246725   3.418   6.758   5.670
81610SOL     OW46726  14.415   9.427   0.838
81610SOL    HW146727  14.487   9.452   0.780
81610SOL    HW246728  14.352   9.499   0.831
81611SOL     OW46729   5.238  10.814  11.454
81611SOL    HW146730   5.266  10.816  11.545
81611SOL    HW246731   5.152  10.855  11.454
81612SOL     OW46732   6.294  12.754   3.938
81612SOL    HW146733   6.250  12.717   3.862
81612SOL    HW246734   6.343  12.828   3.904
81613SOL     OW46735  12.461  14.485  14.730
81613SOL    HW146736  12.440  14.560  14.674
81613SOL    HW246737  12.535  14.444  14.686
81614SOL     OW46738  11.308   2.873   1.949
81614SOL    HW146739  11.361   2.838   1.877
81614SOL    HW246740  11.231   2.909   1.906
81615SOL     OW46741   1.384   0.422  14.263
81615SOL    HW146742   1.364   0.515  14.252
81615SOL    HW246743   1.394   0.411  14.358
81616SOL     OW46744  14.402  14.456   9.767
81616SOL    HW146745  14.480  14.420   9.809
81616SOL    HW246746  14.345  14.481   9.840
81617SOL     OW46747  12.904  14.803  10.707
81617SOL    HW146748  12.996  14.794  10.685
81617SOL    HW246749  12.891   0.029  10.718
81618SOL     OW46750  11.122   5.985   8.667
81618SOL    HW146751  11.071   5.924   8.613
81618SOL    HW246752  11.064   6.006   8.740
81619SOL     OW46753   2.592   8.691  10.698
81619SOL    HW146754   2.611   8.642  10.618
81619SOL    HW246755   2.533   8.634  10.748
81620SOL     OW46756   3.783   0.363  10.208
81620SOL    HW146757   3.763   0.275  10.242
81620SOL    HW246758   3.840   0.402  10.275
81621SOL     OW46759   2.601  13.240   3.702
81621SOL    HW146760   2.689  13.223   3.736
81621SOL    HW246761   2.570  13.314   3.755
81622SOL     OW46762   1.979   9.727  14.032
81622SOL    HW146763   1.985   9.822  14.018
81622SOL    HW246764   1.952   9.692  13.947
81623SOL     OW46765   7.923   4.735   1.814
81623SOL    HW146766   7.843   4.715   1.861
81623SOL    HW246767   7.954   4.818   1.852
81624SOL     OW46768  12.092   4.548  14.382
81624SOL    HW146769  12.051   4.467  14.352
81624SOL    HW246770  12.160   4.520  14.442
81625SOL     OW46771   2.201   5.521   1.902
81625SOL    HW146772   2.194   5.593   1.839
81625SOL    HW246773   2.160   5.555   1.981
81626SOL     OW46774  13.711  11.460   2.918
81626SOL    HW146775  13.772  11.439   2.989
81626SOL    HW246776  13.706  11.556   2.919
81627SOL     OW46777   1.192   5.572   4.727
81627SOL    HW146778   1.098   5.554   4.719
81627SOL    HW246779   1.228   5.554   4.641
81628SOL     OW46780   3.323   2.744   5.085
81628SOL    HW146781   3.285   2.671   5.133
81628SOL    HW246782   3.260   2.763   5.016
81629SOL     OW46783   9.391   8.475  10.213
81629SOL    HW146784   9.405   8.570  10.216
81629SOL    HW246785   9.346   8.460  10.130
81630SOL     OW46786   5.204   6.765  13.619
81630SOL    HW146787   5.168   6.791  13.703
81630SOL    HW246788   5.198   6.844  13.564
81631SOL     OW46789   6.582   6.014   3.603
81631SOL    HW146790   6.656   6.074   3.602
81631SOL    HW246791   6.609   5.941   3.547
81632SOL     OW46792   5.500   5.026   0.920
81632SOL    HW146793   5.548   5.034   1.002
81632SOL    HW246794   5.466   5.114   0.903
81633SOL     OW46795   5.044   3.361   6.826
81633SOL    HW146796   5.107   3.430   6.804
81633SOL    HW246797   4.960   3.395   6.794
81634SOL     OW46798  12.949  11.703  12.369
81634SOL    HW146799  12.917  11.620  12.401
81634SOL    HW246800  12.976  11.751  12.448
81635SOL     OW46801  11.718   9.992   5.247
81635SOL    HW146802  11.623   9.986   5.261
81635SOL    HW246803  11.755   9.934   5.313
81636SOL     OW46804   2.364   5.040   6.656
81636SOL    HW146805   2.367   5.083   6.741
81636SOL    HW246806   2.431   5.084   6.604
81637SOL     OW46807  12.086  13.558  12.186
81637SOL    HW146808  12.074  13.515  12.101
81637SOL    HW246809  12.102  13.486  12.247
81638SOL     OW46810  12.710   0.347  14.510
81638SOL    HW146811  12.750   0.315  14.430
81638SOL    HW246812  12.654   0.275  14.540
81639SOL     OW46813   1.801   3.458  11.418
81639SOL    HW146814   1.710   3.488  11.414
81639SOL    HW246815   1.800   3.388  11.483
81640SOL     OW46816  13.185   3.283   5.944
81640SOL    HW146817  13.110   3.340   5.924
81640SOL    HW246818  13.262   3.339   5.933
81641SOL     OW46819   6.031   0.775   5.940
81641SOL    HW146820   5.993   0.707   5.996
81641SOL    HW246821   6.107   0.806   5.989
81642SOL     OW46822   9.873   5.043  12.375
81642SOL    HW146823   9.860   5.132  12.408
81642SOL    HW246824   9.960   5.045  12.334
81643SOL     OW46825   3.904   7.019  14.334
81643SOL    HW146826   3.988   6.997  14.292
81643SOL    HW246827   3.842   7.024  14.261
81644SOL     OW46828   5.764  10.203   5.098
81644SOL    HW146829   5.714  10.209   5.180
81644SOL    HW246830   5.702  10.165   5.035
81645SOL     OW46831  12.470   2.873  14.128
81645SOL    HW146832  12.417   2.849  14.052
81645SOL    HW246833  12.406   2.894  14.196
81646SOL     OW46834   4.208   4.921   8.479
81646SOL    HW146835   4.161   4.902   8.560
81646SOL    HW246836   4.143   4.961   8.422
81647SOL     OW46837   9.564   9.879   4.511
81647SOL    HW146838   9.564   9.973   4.494
81647SOL    HW246839   9.656   9.853   4.503
81648SOL     OW46840  10.997   5.927   9.519
81648SOL    HW146841  11.077   5.882   9.546
81648SOL    HW246842  10.928   5.861   9.528
81649SOL     OW46843  11.724   2.056   2.543
81649SOL    HW146844  11.808   2.018   2.517
81649SOL    HW246845  11.730   2.148   2.516
81650SOL     OW46846   5.939  12.670  10.151
81650SOL    HW146847   5.844  12.674  10.162
81650SOL    HW246848   5.972  12.644  10.237
81651SOL     OW46849   2.329   1.589   9.291
81651SOL    HW146850   2.407   1.544   9.259
81651SOL    HW246851   2.258   1.525   9.279
81652SOL     OW46852  10.093   8.012   2.203
81652SOL    HW146853  10.040   8.056   2.136
81652SOL    HW246854  10.040   8.018   2.283
81653SOL     OW46855   1.240   0.657   0.203
81653SOL    HW146856   1.252   0.587   0.267
81653SOL    HW246857   1.240   0.738   0.255
81654SOL     OW46858  12.942   1.462   0.787
81654SOL    HW146859  13.020   1.515   0.766
81654SOL    HW246860  12.976   1.387   0.835
81655SOL     OW46861  13.215   7.240   9.299
81655SOL    HW146862  13.251   7.264   9.213
81655SOL    HW246863  13.230   7.146   9.305
81656SOL     OW46864  10.351  11.250   9.596
81656SOL    HW146865  10.426  11.275   9.542
81656SOL    HW246866  10.389  11.226   9.681
81657SOL     OW46867  10.341   7.219   3.949
81657SOL    HW146868  10.288   7.140   3.955
81657SOL    HW246869  10.278   7.291   3.945
81658SOL     OW46870   4.011   9.494   7.455
81658SOL    HW146871   3.987   9.424   7.395
81658SOL    HW246872   4.091   9.464   7.498
81659SOL     OW46873  14.808   2.443   2.057
81659SOL    HW146874  14.799   2.532   2.091
81659SOL    HW246875  14.811   2.387   2.135
81660SOL     OW46876  10.489  10.601   0.913
81660SOL    HW146877  10.483  10.692   0.940
81660SOL    HW246878  10.408  10.584   0.865
81661SOL     OW46879   6.537   0.890   2.425
81661SOL    HW146880   6.472   0.952   2.392
81661SOL    HW246881   6.612   0.945   2.448
81662SOL     OW46882  13.704   2.353  11.805
81662SOL    HW146883  13.612   2.331  11.794
81662SOL    HW246884  13.720   2.343  11.899
81663SOL     OW46885   5.315   3.517  14.792
81663SOL    HW146886   5.318   3.518   0.019
81663SOL    HW246887   5.358   3.598  14.765
81664SOL     OW46888   9.781   2.066   7.927
81664SOL    HW146889   9.804   2.040   7.837
81664SOL    HW246890   9.791   1.985   7.977
81665SOL     OW46891  14.445  13.044  13.055
81665SOL    HW146892  14.457  12.958  13.014
81665SOL    HW246893  14.428  13.024  13.147
81666SOL     OW46894  10.145   0.111   0.432
81666SOL    HW146895  10.127   0.045   0.499
81666SOL    HW246896  10.079   0.096   0.365
81667SOL     OW46897   1.887   4.147   2.768
81667SOL    HW146898   1.902   4.183   2.855
81667SOL    HW246899   1.974   4.143   2.728
81668SOL     OW46900  14.335  10.276   3.826
81668SOL    HW146901  14.424  10.262   3.859
81668SOL    HW246902  14.283  10.292   3.904
81669SOL     OW46903  11.984   6.791   1.415
81669SOL    HW146904  11.997   6.886   1.419
81669SOL    HW246905  12.044   6.762   1.346
81670SOL     OW46906   8.351   6.401  11.622
81670SOL    HW146907   8.264   6.400  11.581
81670SOL    HW246908   8.375   6.493  11.626
81671SOL     OW46909   3.096   2.054   5.978
81671SOL    HW146910   3.090   2.073   6.071
81671SOL    HW246911   3.045   1.974   5.966
81672SOL     OW46912  10.454  11.120  10.478
81672SOL    HW146913  10.539  11.143  10.516
81672SOL    HW246914  10.468  11.124  10.383
81673SOL     OW46915   2.209   2.948   7.243
81673SOL    HW146916   2.242   2.859   7.233
81673SOL    HW246917   2.166   2.967   7.159
81674SOL     OW46918   4.006   5.202  11.318
81674SOL    HW146919   4.053   5.283  11.301
81674SOL    HW246920   4.031   5.144  11.246
81675SOL     OW46921  10.476   2.154  10.677
81675SOL    HW146922  10.533   2.114  10.743
81675SOL    HW246923  10.532   2.216  10.631
81676SOL     OW46924   1.431  11.137   3.368
81676SOL    HW146925   1.448  11.231   3.357
81676SOL    HW246926   1.375  11.114   3.293
81677SOL     OW46927   5.823   9.692  10.334
81677SOL    HW146928   5.870   9.773  10.355
81677SOL    HW246929   5.870   9.656  10.258
81678SOL     OW46930   1.096  12.332   1.413
81678SOL    HW146931   1.141  12.403   1.458
81678SOL    HW246932   1.149  12.316   1.335
81679SOL     OW46933  12.117   8.596   7.133
81679SOL    HW146934  12.152   8.675   7.093
81679SOL    HW246935  12.109   8.617   7.226
81680SOL     OW46936   7.434   2.017   7.834
81680SOL    HW146937   7.524   2.002   7.863
81680SOL    HW246938   7.382   2.010   7.913
81681SOL     OW46939   7.099   3.313   2.463
81681SOL    HW146940   7.140   3.387   2.419
81681SOL    HW246941   7.124   3.237   2.410
81682SOL     OW46942   2.291   5.088   9.760
81682SOL    HW146943   2.232   5.079   9.686
81682SOL    HW246944   2.238   5.064   9.836
81683SOL     OW46945   8.397  14.092  14.303
81683SOL    HW146946   8.459  14.044  14.357
81683SOL    HW246947   8.339  14.136  14.366
81684SOL     OW46948   6.361   5.378   7.344
81684SOL    HW146949   6.301   5.445   7.376
81684SOL    HW246950   6.447   5.405   7.376
81685SOL     OW46951   0.320   2.802   4.823
81685SOL    HW146952   0.303   2.893   4.846
81685SOL    HW246953   0.247   2.778   4.766
81686SOL     OW46954  13.324   3.370  11.104
81686SOL    HW146955  13.381   3.446  11.111
81686SOL    HW246956  13.278   3.367  11.188
81687SOL     OW46957   2.801  13.596  13.706
81687SOL    HW146958   2.720  13.643  13.721
81687SOL    HW246959   2.780  13.504  13.725
81688SOL     OW46960   5.801   2.911   2.635
81688SOL    HW146961   5.709   2.894   2.655
81688SOL    HW246962   5.799   2.975   2.564
81689SOL     OW46963  14.764   6.193  10.753
81689SOL    HW146964  14.710   6.177  10.830
81689SOL    HW246965  14.745   6.283  10.729
81690SOL     OW46966  12.177   0.886   2.048
81690SOL    HW146967  12.272   0.883   2.034
81690SOL    HW246968  12.166   0.878   2.142
81691SOL     OW46969   9.129   5.163   8.963
81691SOL    HW146970   9.155   5.075   8.993
81691SOL    HW246971   9.097   5.150   8.874
81692SOL     OW46972  11.740  11.009   4.990
81692SOL    HW146973  11.811  10.944   4.988
81692SOL    HW246974  11.682  10.979   5.060
81693SOL     OW46975   1.814   3.066   3.652
81693SOL    HW146976   1.891   3.081   3.598
81693SOL    HW246977   1.740   3.066   3.590
81694SOL     OW46978   4.571   7.959   1.853
81694SOL    HW146979   4.620   7.934   1.931
81694SOL    HW246980   4.506   7.889   1.843
81695SOL     OW46981   8.101  11.536   5.704
81695SOL    HW146982   8.162  11.584   5.648
81695SOL    HW246983   8.129  11.556   5.793
81696SOL     OW46984   3.785  10.385  10.662
81696SOL    HW146985   3.836  10.395  10.582
81696SOL    HW246986   3.728  10.461  10.666
81697SOL     OW46987  11.269  14.116   8.200
81697SOL    HW146988  11.264  14.021   8.209
81697SOL    HW246989  11.356  14.139   8.234
81698SOL     OW46990   6.957   0.042   4.694
81698SOL    HW146991   6.877   0.055   4.746
81698SOL    HW246992   6.959   0.115   4.633
81699SOL     OW46993  10.693   7.650   3.458
81699SOL    HW146994  10.708   7.621   3.547
81699SOL    HW246995  10.713   7.744   3.459
81700SOL     OW46996  11.531   2.395   9.844
81700SOL    HW146997  11.605   2.456   9.839
81700SOL    HW246998  11.508   2.379   9.753
81701SOL     OW46999  14.693   7.704   0.583
81701SOL    HW147000  14.681   7.799   0.579
81701SOL    HW247001  14.637   7.677   0.655
81702SOL     OW47002   7.390   4.087   5.490
81702SOL    HW147003   7.318   4.066   5.430
81702SOL    HW247004   7.347   4.108   5.572
81703SOL     OW47005   8.543   3.849  10.179
81703SOL    HW147006   8.557   3.910  10.252
81703SOL    HW247007   8.448   3.837  10.177
81704SOL     OW47008   8.785   5.464   9.169
81704SOL    HW147009   8.736   5.437   9.092
81704SOL    HW247010   8.840   5.536   9.139
81705SOL     OW47011   7.707  13.533   3.777
81705SOL    HW147012   7.756  13.451   3.773
81705SOL    HW247013   7.770  13.596   3.811
81706SOL     OW47014   0.503  13.838   2.227
81706SOL    HW147015   0.446  13.900   2.272
81706SOL    HW247016   0.480  13.845   2.135
81707SOL     OW47017   9.882   5.047   6.954
81707SOL    HW147018   9.901   4.975   6.893
81707SOL    HW247019   9.828   5.108   6.903
81708SOL     OW47020  10.425  12.071   3.803
81708SOL    HW147021  10.454  11.997   3.857
81708SOL    HW247022  10.350  12.107   3.850
81709SOL     OW47023   0.104   6.599   0.869
81709SOL    HW147024   0.145   6.538   0.808
81709SOL    HW247025   0.148   6.584   0.953
81710SOL     OW47026   2.109   0.295  13.528
81710SOL    HW147027   2.063   0.215  13.502
81710SOL    HW247028   2.180   0.303  13.465
81711SOL     OW47029  10.549   9.201   5.254
81711SOL    HW147030  10.479   9.164   5.202
81711SOL    HW247031  10.609   9.240   5.190
81712SOL     OW47032   1.350   9.449  11.841
81712SOL    HW147033   1.347   9.527  11.897
81712SOL    HW247034   1.311   9.381  11.895
81713SOL     OW47035   0.911  12.916   2.314
81713SOL    HW147036   0.880  12.969   2.240
81713SOL    HW247037   0.886  12.965   2.391
81714SOL     OW47038   3.547   1.361   8.376
81714SOL    HW147039   3.503   1.373   8.292
81714SOL    HW247040   3.486   1.398   8.440
81715SOL     OW47041   0.291   9.145  10.061
81715SOL    HW147042   0.320   9.236  10.068
81715SOL    HW247043   0.367   9.098  10.026
81716SOL     OW47044  11.264   6.440  10.976
81716SOL    HW147045  11.238   6.531  10.987
81716SOL    HW247046  11.306   6.437  10.890
81717SOL     OW47047   6.817   1.109   1.746
81717SOL    HW147048   6.822   1.063   1.829
81717SOL    HW247049   6.752   1.178   1.761
81718SOL     OW47050   7.062   5.291   5.204
81718SOL    HW147051   7.004   5.248   5.266
81718SOL    HW247052   7.139   5.316   5.256
81719SOL     OW47053  13.507  12.582   3.395
81719SOL    HW147054  13.519  12.520   3.323
81719SOL    HW247055  13.593  12.621   3.409
81720SOL     OW47056   5.624   0.538   6.577
81720SOL    HW147057   5.623   0.514   6.485
81720SOL    HW247058   5.716   0.554   6.598
81721SOL     OW47059   8.762   3.837   5.903
81721SOL    HW147060   8.719   3.819   5.987
81721SOL    HW247061   8.803   3.922   5.915
81722SOL     OW47062   3.890   6.242   2.396
81722SOL    HW147063   3.798   6.226   2.374
81722SOL    HW247064   3.903   6.334   2.375
81723SOL     OW47065   2.487  13.545  10.611
81723SOL    HW147066   2.571  13.589  10.600
81723SOL    HW247067   2.473  13.499  10.528
81724SOL     OW47068   7.762   8.713   3.250
81724SOL    HW147069   7.775   8.768   3.327
81724SOL    HW247070   7.776   8.771   3.176
81725SOL     OW47071   5.487  10.156  12.302
81725SOL    HW147072   5.535  10.224  12.348
81725SOL    HW247073   5.453  10.200  12.224
81726SOL     OW47074   2.825   9.330  10.938
81726SOL    HW147075   2.853   9.397  10.875
81726SOL    HW247076   2.736   9.308  10.913
81727SOL     OW47077   8.246   7.718   4.115
81727SOL    HW147078   8.222   7.697   4.025
81727SOL    HW247079   8.183   7.671   4.169
81728SOL     OW47080   1.083   0.544   0.688
81728SOL    HW147081   1.055   0.599   0.761
81728SOL    HW247082   1.025   0.468   0.691
81729SOL     OW47083  13.527   3.661  12.447
81729SOL    HW147084  13.570   3.733  12.400
81729SOL    HW247085  13.504   3.698  12.532
81730SOL     OW47086   4.761   1.819   5.707
81730SOL    HW147087   4.688   1.869   5.670
81730SOL    HW247088   4.771   1.744   5.647
81731SOL     OW47089  14.662  11.665   3.627
81731SOL    HW147090  14.587  11.687   3.681
81731SOL    HW247091  14.626  11.615   3.554
81732SOL     OW47092  12.524  13.688   0.962
81732SOL    HW147093  12.576  13.681   0.882
81732SOL    HW247094  12.586  13.672   1.033
81733SOL     OW47095  11.113   2.714  12.854
81733SOL    HW147096  11.060   2.672  12.787
81733SOL    HW247097  11.050   2.766  12.904
81734SOL     OW47098  14.675   0.981   1.385
81734SOL    HW147099  14.703   0.980   1.294
81734SOL    HW247100  14.755   0.990   1.436
81735SOL     OW47101   1.480  12.552   9.175
81735SOL    HW147102   1.524  12.534   9.093
81735SOL    HW247103   1.503  12.479   9.232
81736SOL     OW47104   0.207   5.448   7.273
81736SOL    HW147105   0.296   5.425   7.245
81736SOL    HW247106   0.216   5.471   7.365
81737SOL     OW47107   5.458   9.338   8.986
81737SOL    HW147108   5.440   9.422   9.027
81737SOL    HW247109   5.399   9.334   8.911
81738SOL     OW47110  10.631   2.049  14.603
81738SOL    HW147111  10.539   2.069  14.584
81738SOL    HW247112  10.648   1.969  14.553
81739SOL     OW47113  12.475  10.049   7.838
81739SOL    HW147114  12.402  10.044   7.778
81739SOL    HW247115  12.539  10.105   7.794
81740SOL     OW47116   9.382   2.829  10.518
81740SOL    HW147117   9.337   2.790  10.442
81740SOL    HW247118   9.475   2.813  10.501
81741SOL     OW47119   7.389   7.148   9.105
81741SOL    HW147120   7.297   7.136   9.082
81741SOL    HW247121   7.419   7.219   9.049
81742SOL     OW47122   8.348   3.772  12.039
81742SOL    HW147123   8.303   3.751  11.957
81742SOL    HW247124   8.331   3.865  12.052
81743SOL     OW47125   2.949   9.930  10.072
81743SOL    HW147126   2.855   9.938  10.083
81743SOL    HW247127   2.974  10.007  10.021
81744SOL     OW47128   7.321  13.972   8.184
81744SOL    HW147129   7.413  13.966   8.158
81744SOL    HW247130   7.306  13.892   8.234
81745SOL     OW47131   3.897  11.511   6.432
81745SOL    HW147132   3.919  11.418   6.437
81745SOL    HW247133   3.920  11.536   6.342
81746SOL     OW47134   5.326   5.703  12.377
81746SOL    HW147135   5.257   5.768  12.388
81746SOL    HW247136   5.291   5.643  12.310
81747SOL     OW47137  10.218   8.155  13.130
81747SOL    HW147138  10.176   8.237  13.157
81747SOL    HW247139  10.295   8.183  13.079
81748SOL     OW47140   0.416   7.400   9.304
81748SOL    HW147141   0.429   7.363   9.391
81748SOL    HW247142   0.329   7.369   9.278
81749SOL     OW47143  13.794   4.174  11.029
81749SOL    HW147144  13.724   4.151  11.091
81749SOL    HW247145  13.816   4.264  11.051
81750SOL     OW47146   5.329   7.063   0.770
81750SOL    HW147147   5.327   6.970   0.790
81750SOL    HW247148   5.292   7.106   0.847
81751SOL     OW47149   7.715  11.972   0.192
81751SOL    HW147150   7.642  11.958   0.251
81751SOL    HW247151   7.675  12.002   0.110
81752SOL     OW47152  13.631   0.075   9.451
81752SOL    HW147153  13.718   0.115   9.459
81752SOL    HW247154  13.578   0.121   9.516
81753SOL     OW47155   0.569   1.363  13.447
81753SOL    HW147156   0.569   1.428  13.376
81753SOL    HW247157   0.554   1.415  13.526
81754SOL     OW47158  12.235   3.209   6.139
81754SOL    HW147159  12.215   3.302   6.130
81754SOL    HW247160  12.324   3.207   6.175
81755SOL     OW47161   1.727  13.927   6.470
81755SOL    HW147162   1.654  13.901   6.413
81755SOL    HW247163   1.692  13.998   6.523
81756SOL     OW47164   0.185   5.827   3.512
81756SOL    HW147165   0.210   5.836   3.604
81756SOL    HW247166   0.265   5.843   3.463
81757SOL     OW47167  11.268   7.511   3.930
81757SOL    HW147168  11.286   7.434   3.983
81757SOL    HW247169  11.263   7.583   3.993
81758SOL     OW47170   6.044   1.224   0.412
81758SOL    HW147171   6.037   1.151   0.350
81758SOL    HW247172   6.099   1.190   0.483
81759SOL     OW47173   3.916   1.910  11.305
81759SOL    HW147174   3.957   1.996  11.302
81759SOL    HW247175   3.869   1.903  11.221
81760SOL     OW47176   7.644   1.966   0.004
81760SOL    HW147177   7.584   1.965   0.079
81760SOL    HW247178   7.654   2.059  14.851
81761SOL     OW47179  12.286   5.276   1.720
81761SOL    HW147180  12.271   5.187   1.753
81761SOL    HW247181  12.206   5.297   1.672
81762SOL     OW47182  14.496   7.486   2.288
81762SOL    HW147183  14.536   7.567   2.254
81762SOL    HW247184  14.419   7.516   2.335
81763SOL     OW47185   2.438  10.456   3.985
81763SOL    HW147186   2.371  10.393   3.958
81763SOL    HW247187   2.516  10.403   4.002
81764SOL     OW47188  14.824  13.108   5.361
81764SOL    HW147189  14.761  13.108   5.289
81764SOL    HW247190   0.041  13.094   5.318
81765SOL     OW47191   3.625   0.641   1.425
81765SOL    HW147192   3.558   0.668   1.488
81765SOL    HW247193   3.662   0.722   1.392
81766SOL     OW47194  11.534   1.275   8.944
81766SOL    HW147195  11.447   1.237   8.956
81766SOL    HW247196  11.526   1.366   8.972
81767SOL     OW47197   8.167   0.551  12.475
81767SOL    HW147198   8.096   0.495  12.443
81767SOL    HW247199   8.165   0.542  12.570
81768SOL     OW47200   9.010   2.232   6.183
81768SOL    HW147201   9.016   2.302   6.118
81768SOL    HW247202   8.969   2.274   6.259
81769SOL     OW47203   5.044  10.471   8.477
81769SOL    HW147204   4.959  10.489   8.518
81769SOL    HW247205   5.093  10.553   8.488
81770SOL     OW47206   7.740  13.579  14.240
81770SOL    HW147207   7.654  13.615  14.256
81770SOL    HW247208   7.800  13.634  14.292
81771SOL     OW47209   6.085   3.306   8.523
81771SOL    HW147210   6.084   3.332   8.615
81771SOL    HW247211   6.169   3.340   8.490
81772SOL     OW47212  12.761  11.023   0.598
81772SOL    HW147213  12.670  11.049   0.586
81772SOL    HW247214  12.766  10.936   0.559
81773SOL     OW47215   7.921   1.093  11.991
81773SOL    HW147216   7.901   1.180  12.025
81773SOL    HW247217   7.954   1.108  11.903
81774SOL     OW47218  11.012  11.384   1.352
81774SOL    HW147219  11.070  11.411   1.281
81774SOL    HW247220  11.042  11.295   1.374
81775SOL     OW47221   5.410  10.372  11.653
81775SOL    HW147222   5.413  10.455  11.605
81775SOL    HW247223   5.322  10.369  11.690
81776SOL     OW47224  13.230   0.492   6.112
81776SOL    HW147225  13.283   0.554   6.164
81776SOL    HW247226  13.290   0.421   6.091
81777SOL     OW47227   8.463   2.823  11.878
81777SOL    HW147228   8.453   2.901  11.933
81777SOL    HW247229   8.374   2.794  11.861
81778SOL     OW47230  10.036   2.769   3.655
81778SOL    HW147231  10.070   2.681   3.673
81778SOL    HW247232  10.036   2.775   3.559
81779SOL     OW47233  11.806   0.713  10.082
81779SOL    HW147234  11.876   0.779  10.079
81779SOL    HW247235  11.733   0.753  10.035
81780SOL     OW47236  14.414   4.667  11.778
81780SOL    HW147237  14.459   4.648  11.860
81780SOL    HW247238  14.465   4.738  11.739
81781SOL     OW47239  11.181   5.405   5.541
81781SOL    HW147240  11.243   5.398   5.469
81781SOL    HW247241  11.101   5.439   5.501
81782SOL     OW47242  14.204  10.253  12.456
81782SOL    HW147243  14.203  10.160  12.433
81782SOL    HW247244  14.261  10.294  12.391
81783SOL     OW47245   9.441   5.365   8.642
81783SOL    HW147246   9.353   5.344   8.673
81783SOL    HW247247   9.497   5.298   8.682
81784SOL     OW47248   8.824  11.673  10.404
81784SOL    HW147249   8.823  11.592  10.454
81784SOL    HW247250   8.916  11.687  10.382
81785SOL     OW47251   3.152   4.070  12.909
81785SOL    HW147252   3.070   4.063  12.861
81785SOL    HW247253   3.161   3.986  12.954
81786SOL     OW47254   5.273   9.879  14.217
81786SOL    HW147255   5.350   9.927  14.246
81786SOL    HW247256   5.270   9.891  14.122
81787SOL     OW47257   5.426  14.014   3.979
81787SOL    HW147258   5.510  13.999   3.937
81787SOL    HW247259   5.413  14.109   3.975
81788SOL     OW47260   7.186  10.247  11.701
81788SOL    HW147261   7.097  10.237  11.666
81788SOL    HW247262   7.228  10.309  11.642
81789SOL     OW47263   6.792  11.461  12.593
81789SOL    HW147264   6.753  11.460  12.681
81789SOL    HW247265   6.807  11.553  12.574
81790SOL     OW47266   5.275   2.109  11.179
81790SOL    HW147267   5.254   2.202  11.188
81790SOL    HW247268   5.263   2.073  11.267
81791SOL     OW47269   4.203   7.531   5.336
81791SOL    HW147270   4.179   7.624   5.327
81791SOL    HW247271   4.159   7.503   5.417
81792SOL     OW47272   3.498   4.054   9.973
81792SOL    HW147273   3.513   4.063  10.067
81792SOL    HW247274   3.523   3.964   9.953
81793SOL     OW47275   0.313   9.169   6.925
81793SOL    HW147276   0.262   9.223   6.986
81793SOL    HW247277   0.340   9.093   6.977
81794SOL     OW47278   5.085  14.650  13.334
81794SOL    HW147279   5.165  14.667  13.283
81794SOL    HW247280   5.019  14.629  13.268
81795SOL     OW47281   1.351   9.442   7.624
81795SOL    HW147282   1.340   9.536   7.640
81795SOL    HW247283   1.301   9.400   7.695
81796SOL     OW47284   3.567   3.417   0.861
81796SOL    HW147285   3.529   3.495   0.902
81796SOL    HW247286   3.658   3.440   0.846
81797SOL     OW47287   3.895   6.361   0.266
81797SOL    HW147288   3.886   6.332   0.176
81797SOL    HW247289   3.805   6.379   0.294
81798SOL     OW47290   9.477   7.455   9.361
81798SOL    HW147291   9.439   7.542   9.369
81798SOL    HW247292   9.517   7.455   9.274
81799SOL     OW47293   0.315   9.395   0.202
81799SOL    HW147294   0.403   9.415   0.232
81799SOL    HW247295   0.262   9.470   0.229
81800SOL     OW47296   5.285  12.928   3.714
81800SOL    HW147297   5.358  12.868   3.697
81800SOL    HW247298   5.217  12.873   3.753
81801SOL     OW47299  14.476   1.658   9.884
81801SOL    HW147300  14.536   1.636   9.955
81801SOL    HW247301  14.521   1.630   9.804
81802SOL     OW47302  11.426  13.454   7.229
81802SOL    HW147303  11.481  13.450   7.151
81802SOL    HW247304  11.346  13.496   7.199
81803SOL     OW47305   8.849  14.563   0.932
81803SOL    HW147306   8.806  14.604   0.857
81803SOL    HW247307   8.864  14.636   0.993
81804SOL     OW47308   4.686   3.261   1.928
81804SOL    HW147309   4.715   3.224   1.845
81804SOL    HW247310   4.743   3.221   1.994
81805SOL     OW47311   6.821  12.021   9.620
81805SOL    HW147312   6.832  11.927   9.602
81805SOL    HW247313   6.885  12.040   9.688
81806SOL     OW47314   4.773   5.988   3.162
81806SOL    HW147315   4.802   6.020   3.077
81806SOL    HW247316   4.702   6.047   3.187
81807SOL     OW47317  11.731  13.148   1.259
81807SOL    HW147318  11.655  13.146   1.317
81807SOL    HW247319  11.777  13.066   1.278
81808SOL     OW47320   4.745  10.802   5.017
81808SOL    HW147321   4.654  10.830   5.020
81808SOL    HW247322   4.774  10.826   4.928
81809SOL     OW47323   9.814  13.490   8.929
81809SOL    HW147324   9.855  13.555   8.986
81809SOL    HW247325   9.726  13.526   8.912
81810SOL     OW47326   6.282   0.271   6.750
81810SOL    HW147327   6.360   0.220   6.772
81810SOL    HW247328   6.309   0.327   6.677
81811SOL     OW47329   9.843   0.725  10.272
81811SOL    HW147330   9.840   0.718  10.177
81811SOL    HW247331   9.808   0.812  10.291
81812SOL     OW47332   7.035   9.182  12.354
81812SOL    HW147333   7.077   9.255  12.398
81812SOL    HW247334   6.976   9.222  12.291
81813SOL     OW47335  13.644   9.988   8.589
81813SOL    HW147336  13.663   9.902   8.626
81813SOL    HW247337  13.597   9.969   8.507
81814SOL     OW47338  11.634   4.969   9.904
81814SOL    HW147339  11.614   4.981   9.811
81814SOL    HW247340  11.562   4.915   9.937
81815SOL     OW47341   8.443   5.178   0.677
81815SOL    HW147342   8.505   5.139   0.739
81815SOL    HW247343   8.483   5.164   0.591
81816SOL     OW47344  14.595  12.728  10.081
81816SOL    HW147345  14.526  12.732  10.148
81816SOL    HW247346  14.548  12.730   9.998
81817SOL     OW47347  14.539   6.472   6.780
81817SOL    HW147348  14.470   6.514   6.729
81817SOL    HW247349  14.494   6.406   6.832
81818SOL     OW47350   9.985   8.417   4.643
81818SOL    HW147351  10.045   8.490   4.664
81818SOL    HW247352  10.015   8.345   4.698
81819SOL     OW47353   3.214  11.736   8.040
81819SOL    HW147354   3.162  11.797   7.987
81819SOL    HW247355   3.297  11.781   8.054
81820SOL     OW47356   7.168   5.899   3.667
81820SOL    HW147357   7.076   5.903   3.693
81820SOL    HW247358   7.169   5.837   3.594
81821SOL     OW47359   6.893  14.556  10.178
81821SOL    HW147360   6.885  14.473  10.225
81821SOL    HW247361   6.883  14.533  10.086
81822SOL     OW47362  14.565  11.300   0.794
81822SOL    HW147363  14.646  11.251   0.812
81822SOL    HW247364  14.515  11.243   0.736
81823SOL     OW47365   0.327   1.811   7.994
81823SOL    HW147366   0.354   1.778   8.080
81823SOL    HW247367   0.247   1.861   8.011
81824SOL     OW47368  11.342  12.033   2.230
81824SOL    HW147369  11.358  11.943   2.259
81824SOL    HW247370  11.371  12.034   2.139
81825SOL     OW47371  12.902   3.434  10.743
81825SOL    HW147372  12.956   3.411  10.819
81825SOL    HW247373  12.902   3.355  10.689
81826SOL     OW47374   2.049  10.588   8.181
81826SOL    HW147375   2.052  10.646   8.106
81826SOL    HW247376   1.998  10.513   8.152
81827SOL     OW47377   5.408   2.513   9.244
81827SOL    HW147378   5.481   2.550   9.294
81827SOL    HW247379   5.342   2.583   9.243
81828SOL     OW47380   2.116  11.758   6.965
81828SOL    HW147381   2.127  11.757   7.060
81828SOL    HW247382   2.191  11.708   6.932
81829SOL     OW47383  14.624  12.667  11.978
81829SOL    HW147384  14.564  12.617  12.033
81829SOL    HW247385  14.572  12.691  11.901
81830SOL     OW47386  11.869   2.333  12.793
81830SOL    HW147387  11.918   2.252  12.780
81830SOL    HW247388  11.800   2.330  12.727
81831SOL     OW47389   6.406  11.639   9.951
81831SOL    HW147390   6.426  11.573  10.017
81831SOL    HW247391   6.467  11.621   9.879
81832SOL     OW47392  10.862   2.228   8.636
81832SOL    HW147393  10.791   2.282   8.672
81832SOL    HW247394  10.819   2.174   8.570
81833SOL     OW47395   1.332   7.481   2.391
81833SOL    HW147396   1.425   7.497   2.407
81833SOL    HW247397   1.288   7.559   2.424
81834SOL     OW47398   2.526  11.780  12.200
81834SOL    HW147399   2.539  11.692  12.165
81834SOL    HW247400   2.448  11.812  12.154
81835SOL     OW47401   0.233  11.966   2.840
81835SOL    HW147402   0.182  12.047   2.841
81835SOL    HW247403   0.322  11.994   2.819
81836SOL     OW47404  12.888  10.310  14.310
81836SOL    HW147405  12.804  10.317  14.265
81836SOL    HW247406  12.894  10.217  14.333
81837SOL     OW47407   4.893   7.881  13.284
81837SOL    HW147408   4.968   7.841  13.330
81837SOL    HW247409   4.905   7.857  13.193
81838SOL     OW47410   1.547  14.069   0.845
81838SOL    HW147411   1.572  14.063   0.753
81838SOL    HW247412   1.473  14.009   0.853
81839SOL     OW47413   4.298   5.780   3.064
81839SOL    HW147414   4.363   5.712   3.080
81839SOL    HW247415   4.258   5.755   2.981
81840SOL     OW47416  12.679   6.078   0.309
81840SOL    HW147417  12.680   5.998   0.361
81840SOL    HW247418  12.696   6.048   0.219
81841SOL     OW47419  11.139   2.866  11.194
81841SOL    HW147420  11.198   2.906  11.129
81841SOL    HW247421  11.066   2.833  11.143
81842SOL     OW47422   7.564   1.784   9.742
81842SOL    HW147423   7.654   1.767   9.771
81842SOL    HW247424   7.539   1.865   9.787
81843SOL     OW47425  13.353   0.043   7.590
81843SOL    HW147426  13.406  14.845   7.545
81843SOL    HW247427  13.417   0.096   7.638
81844SOL     OW47428   0.860  12.136   7.602
81844SOL    HW147429   0.790  12.148   7.666
81844SOL    HW247430   0.893  12.048   7.619
81845SOL     OW47431   0.973  11.155   4.163
81845SOL    HW147432   0.989  11.234   4.214
81845SOL    HW247433   1.057  11.137   4.120
81846SOL     OW47434   6.495   6.378   4.928
81846SOL    HW147435   6.520   6.339   4.844
81846SOL    HW247436   6.567   6.435   4.951
81847SOL     OW47437  10.131   5.205   9.250
81847SOL    HW147438  10.169   5.128   9.292
81847SOL    HW247439  10.204   5.246   9.204
81848SOL     OW47440   3.275  14.693   7.340
81848SOL    HW147441   3.288  14.777   7.295
81848SOL    HW247442   3.306  14.710   7.429
81849SOL     OW47443  10.552  13.256   9.045
81849SOL    HW147444  10.567  13.273   8.952
81849SOL    HW247445  10.561  13.161   9.053
81850SOL     OW47446   3.778   8.796   7.566
81850SOL    HW147447   3.777   8.842   7.482
81850SOL    HW247448   3.686   8.792   7.592
81851SOL     OW47449   9.703   1.491   0.388
81851SOL    HW147450   9.646   1.557   0.348
81851SOL    HW247451   9.643   1.429   0.430
81852SOL     OW47452   2.718   2.361   3.778
81852SOL    HW147453   2.670   2.445   3.782
81852SOL    HW247454   2.674   2.305   3.841
81853SOL     OW47455  11.110   1.116  13.498
81853SOL    HW147456  11.131   1.195  13.547
81853SOL    HW247457  11.161   1.124  13.417
81854SOL     OW47458   8.497  14.294   6.394
81854SOL    HW147459   8.510  14.248   6.477
81854SOL    HW247460   8.515  14.229   6.327
81855SOL     OW47461   6.103  11.075   4.830
81855SOL    HW147462   6.046  11.001   4.808
81855SOL    HW247463   6.091  11.087   4.925
81856SOL     OW47464  10.708   8.878  11.019
81856SOL    HW147465  10.753   8.961  11.007
81856SOL    HW247466  10.764   8.813  10.976
81857SOL     OW47467   2.639   5.602   7.987
81857SOL    HW147468   2.706   5.669   7.973
81857SOL    HW247469   2.686   5.530   8.029
81858SOL     OW47470  12.148  14.289   7.798
81858SOL    HW147471  12.087  14.290   7.725
81858SOL    HW247472  12.095  14.260   7.873
81859SOL     OW47473   6.689   8.533   2.012
81859SOL    HW147474   6.727   8.502   2.095
81859SOL    HW247475   6.641   8.458   1.978
81860SOL     OW47476   8.908   3.366   5.763
81860SOL    HW147477   8.928   3.415   5.842
81860SOL    HW247478   8.858   3.427   5.709
81861SOL     OW47479   7.622   3.084   9.742
81861SOL    HW147480   7.695   3.133   9.703
81861SOL    HW247481   7.558   3.076   9.672
81862SOL     OW47482   3.098   1.603   5.850
81862SOL    HW147483   3.113   1.560   5.935
81862SOL    HW247484   3.047   1.540   5.800
81863SOL     OW47485   2.808  13.549   5.573
81863SOL    HW147486   2.869  13.602   5.523
81863SOL    HW247487   2.863  13.499   5.633
81864SOL     OW47488  12.078   8.444   8.073
81864SOL    HW147489  12.119   8.531   8.067
81864SOL    HW247490  12.148   8.387   8.104
81865SOL     OW47491   4.863   0.430   8.651
81865SOL    HW147492   4.769   0.434   8.630
81865SOL    HW247493   4.906   0.427   8.565
81866SOL     OW47494   3.779  10.427   9.463
81866SOL    HW147495   3.759  10.515   9.495
81866SOL    HW247496   3.798  10.439   9.370
81867SOL     OW47497   1.086   4.748   2.384
81867SOL    HW147498   1.163   4.695   2.405
81867SOL    HW247499   1.040   4.758   2.468
81868SOL     OW47500  13.898   4.588   3.638
81868SOL    HW147501  13.987   4.613   3.664
81868SOL    HW247502  13.841   4.643   3.691
81869SOL     OW47503   4.776   9.365   8.624
81869SOL    HW147504   4.838   9.384   8.694
81869SOL    HW247505   4.819   9.396   8.544
81870SOL     OW47506   6.965   3.650  13.084
81870SOL    HW147507   6.973   3.556  13.069
81870SOL    HW247508   7.019   3.690  13.016
81871SOL     OW47509  10.845  13.969   6.656
81871SOL    HW147510  10.797  14.051   6.645
81871SOL    HW247511  10.884  13.952   6.571
81872SOL     OW47512   8.266   0.505   7.156
81872SOL    HW147513   8.304   0.553   7.230
81872SOL    HW247514   8.183   0.550   7.139
81873SOL     OW47515   4.444  13.643   0.549
81873SOL    HW147516   4.376  13.690   0.501
81873SOL    HW247517   4.416  13.647   0.640
81874SOL     OW47518   3.065   1.084   8.378
81874SOL    HW147519   2.988   1.079   8.321
81874SOL    HW247520   3.046   1.026   8.451
81875SOL     OW47521   6.765   7.201  12.307
81875SOL    HW147522   6.785   7.199  12.213
81875SOL    HW247523   6.845   7.170  12.349
81876SOL     OW47524   6.887   2.604   5.975
81876SOL    HW147525   6.935   2.631   6.054
81876SOL    HW247526   6.939   2.640   5.903
81877SOL     OW47527   8.553  10.241   3.531
81877SOL    HW147528   8.511  10.204   3.610
81877SOL    HW247529   8.580  10.164   3.480
81878SOL     OW47530  12.977   7.512  12.047
81878SOL    HW147531  12.992   7.604  12.028
81878SOL    HW247532  13.057   7.468  12.017
81879SOL     OW47533   8.476  12.129   8.319
81879SOL    HW147534   8.571  12.129   8.315
81879SOL    HW247535   8.454  12.200   8.379
81880SOL     OW47536   0.835  14.567   3.170
81880SOL    HW147537   0.783  14.647   3.170
81880SOL    HW247538   0.822  14.530   3.257
81881SOL     OW47539   8.876   0.355   4.948
81881SOL    HW147540   8.886   0.348   5.043
81881SOL    HW247541   8.955   0.315   4.913
81882SOL     OW47542   4.279  11.778   8.020
81882SOL    HW147543   4.190  11.813   8.019
81882SOL    HW247544   4.272  11.694   7.975
81883SOL     OW47545   7.618  11.268   1.631
81883SOL    HW147546   7.536  11.281   1.678
81883SOL    HW247547   7.632  11.350   1.584
81884SOL     OW47548   9.599   3.525  13.906
81884SOL    HW147549   9.681   3.574  13.895
81884SOL    HW247550   9.532   3.592  13.913
81885SOL     OW47551  11.612   3.073   3.987
81885SOL    HW147552  11.533   3.019   3.979
81885SOL    HW247553  11.608   3.132   3.912
81886SOL     OW47554  10.858   6.624   2.493
81886SOL    HW147555  10.901   6.589   2.571
81886SOL    HW247556  10.808   6.550   2.457
81887SOL     OW47557  11.324   7.461   5.041
81887SOL    HW147558  11.236   7.454   5.006
81887SOL    HW247559  11.336   7.381   5.093
81888SOL     OW47560   8.099   9.223   1.380
81888SOL    HW147561   8.161   9.205   1.450
81888SOL    HW247562   8.055   9.304   1.406
81889SOL     OW47563   0.898  10.927   0.066
81889SOL    HW147564   0.989  10.951   0.082
81889SOL    HW247565   0.885  10.846   0.116
81890SOL     OW47566   3.206   6.804   4.380
81890SOL    HW147567   3.120   6.811   4.338
81890SOL    HW247568   3.188   6.812   4.473
81891SOL     OW47569   9.098   8.423  11.895
81891SOL    HW147570   9.125   8.350  11.950
81891SOL    HW247571   9.125   8.399  11.806
81892SOL     OW47572   8.746  10.717   6.219
81892SOL    HW147573   8.768  10.758   6.136
81892SOL    HW247574   8.685  10.646   6.195
81893SOL     OW47575   3.179   0.057   7.203
81893SOL    HW147576   3.165   0.151   7.197
81893SOL    HW247577   3.214   0.032   7.118
81894SOL     OW47578  11.594   5.362  13.192
81894SOL    HW147579  11.542   5.435  13.224
81894SOL    HW247580  11.620   5.389  13.103
81895SOL     OW47581   7.857  10.251  14.848
81895SOL    HW147582   7.895  10.336  14.824
81895SOL    HW247583   7.774  10.274   0.023
81896SOL     OW47584   1.468  12.667   1.804
81896SOL    HW147585   1.531  12.616   1.854
81896SOL    HW247586   1.500  12.757   1.808
81897SOL     OW47587  11.126   5.429   9.231
81897SOL    HW147588  11.079   5.501   9.273
81897SOL    HW247589  11.057   5.380   9.186
81898SOL     OW47590  11.642   4.159  12.156
81898SOL    HW147591  11.661   4.216  12.230
81898SOL    HW247592  11.639   4.070  12.193
81899SOL     OW47593  13.798   5.641   2.229
81899SOL    HW147594  13.840   5.642   2.143
81899SOL    HW247595  13.756   5.555   2.234
81900SOL     OW47596  13.620   8.701   7.468
81900SOL    HW147597  13.578   8.775   7.424
81900SOL    HW247598  13.557   8.674   7.535
81901SOL     OW47599  10.776  13.921   3.790
81901SOL    HW147600  10.827  13.972   3.853
81901SOL    HW247601  10.785  13.830   3.820
81902SOL     OW47602  14.372  13.260   7.205
81902SOL    HW147603  14.390  13.185   7.148
81902SOL    HW247604  14.298  13.232   7.259
81903SOL     OW47605   8.769   2.607   8.293
81903SOL    HW147606   8.752   2.513   8.295
81903SOL    HW247607   8.853   2.617   8.337
81904SOL     OW47608   6.548  10.425   1.704
81904SOL    HW147609   6.575  10.334   1.695
81904SOL    HW247610   6.488  10.426   1.778
81905SOL     OW47611   2.913   1.840   6.649
81905SOL    HW147612   2.923   1.745   6.656
81905SOL    HW247613   2.891   1.854   6.557
81906SOL     OW47614  13.369   6.762   8.008
81906SOL    HW147615  13.440   6.712   7.969
81906SOL    HW247616  13.328   6.702   8.070
81907SOL     OW47617  14.122   4.529   0.046
81907SOL    HW147618  14.120   4.498  14.823
81907SOL    HW247619  14.161   4.616   0.040
81908SOL     OW47620   5.627   8.525   9.653
81908SOL    HW147621   5.554   8.586   9.663
81908SOL    HW247622   5.654   8.505   9.743
81909SOL     OW47623  13.587  13.806   7.773
81909SOL    HW147624  13.505  13.756   7.774
81909SOL    HW247625  13.561  13.895   7.796
81910SOL     OW47626   5.114   1.102   6.859
81910SOL    HW147627   5.105   1.081   6.766
81910SOL    HW247628   5.070   1.186   6.868
81911SOL     OW47629  13.135   2.917  14.169
81911SOL    HW147630  13.223   2.941  14.199
81911SOL    HW247631  13.108   2.846  14.228
81912SOL     OW47632   8.453  13.925   5.351
81912SOL    HW147633   8.529  13.970   5.387
81912SOL    HW247634   8.378  13.975   5.385
81913SOL     OW47635  14.638   4.284   2.646
81913SOL    HW147636  14.712   4.327   2.602
81913SOL    HW247637  14.670   4.195   2.664
81914SOL     OW47638  13.385  11.711  11.962
81914SOL    HW147639  13.354  11.769  11.893
81914SOL    HW247640  13.319  11.643  11.968
81915SOL     OW47641  10.071   5.425  13.588
81915SOL    HW147642  10.096   5.441  13.679
81915SOL    HW247643  10.151   5.395  13.546
81916SOL     OW47644  11.717  11.877   6.189
81916SOL    HW147645  11.665  11.955   6.172
81916SOL    HW247646  11.797  11.890   6.137
81917SOL     OW47647   9.430   0.124   0.661
81917SOL    HW147648   9.352   0.123   0.717
81917SOL    HW247649   9.401   0.166   0.580
81918SOL     OW47650   8.509  11.380  11.504
81918SOL    HW147651   8.475  11.410  11.419
81918SOL    HW247652   8.464  11.297  11.520
81919SOL     OW47653   7.681  10.608   8.061
81919SOL    HW147654   7.649  10.580   7.976
81919SOL    HW247655   7.647  10.543   8.122
81920SOL     OW47656   7.522  13.106  13.910
81920SOL    HW147657   7.609  13.068  13.905
81920SOL    HW247658   7.487  13.098  13.821
81921SOL     OW47659  13.952   5.790  13.635
81921SOL    HW147660  14.018   5.839  13.684
81921SOL    HW247661  13.917   5.728  13.698
81922SOL     OW47662  13.128   4.581   1.554
81922SOL    HW147663  13.051   4.615   1.600
81922SOL    HW247664  13.167   4.657   1.512
81923SOL     OW47665   2.770   1.900  12.621
81923SOL    HW147666   2.716   1.821  12.620
81923SOL    HW247667   2.813   1.900  12.536
81924SOL     OW47668   6.357   3.544   7.832
81924SOL    HW147669   6.303   3.518   7.758
81924SOL    HW247670   6.397   3.627   7.807
81925SOL     OW47671   8.354   3.619   5.625
81925SOL    HW147672   8.409   3.563   5.569
81925SOL    HW247673   8.403   3.700   5.634
81926SOL     OW47674  12.966   0.248   8.292
81926SOL    HW147675  12.875   0.274   8.309
81926SOL    HW247676  12.959   0.159   8.256
81927SOL     OW47677   5.054   8.266  13.302
81927SOL    HW147678   5.029   8.307  13.384
81927SOL    HW247679   5.136   8.220  13.323
81928SOL     OW47680   2.814   9.677  12.618
81928SOL    HW147681   2.860   9.677  12.702
81928SOL    HW247682   2.799   9.584  12.600
81929SOL     OW47683   8.425  10.574  14.074
81929SOL    HW147684   8.398  10.666  14.072
81929SOL    HW247685   8.519  10.577  14.091
81930SOL     OW47686   1.252   2.298   7.448
81930SOL    HW147687   1.202   2.350   7.511
81930SOL    HW247688   1.295   2.363   7.392
81931SOL     OW47689  10.835  12.218   6.813
81931SOL    HW147690  10.913  12.264   6.783
81931SOL    HW247691  10.859  12.125   6.809
81932SOL     OW47692  13.548  12.553   4.081
81932SOL    HW147693  13.632  12.536   4.123
81932SOL    HW247694  13.568  12.562   3.988
81933SOL     OW47695   9.478  14.238  14.233
81933SOL    HW147696   9.459  14.303  14.302
81933SOL    HW247697   9.519  14.165  14.280
81934SOL     OW47698  10.568  12.897   5.030
81934SOL    HW147699  10.514  12.890   4.951
81934SOL    HW247700  10.550  12.817   5.079
81935SOL     OW47701   6.064   3.551   6.046
81935SOL    HW147702   6.036   3.609   6.117
81935SOL    HW247703   6.038   3.464   6.075
81936SOL     OW47704   5.265  13.224   7.413
81936SOL    HW147705   5.169  13.218   7.408
81936SOL    HW247706   5.281  13.280   7.489
81937SOL     OW47707   9.452   6.887   4.859
81937SOL    HW147708   9.397   6.819   4.896
81937SOL    HW247709   9.474   6.855   4.771
81938SOL     OW47710   7.316  10.145   9.558
81938SOL    HW147711   7.225  10.113   9.556
81938SOL    HW247712   7.367  10.073   9.520
81939SOL     OW47713   3.758  13.061   9.680
81939SOL    HW147714   3.758  13.156   9.693
81939SOL    HW247715   3.723  13.025   9.762
81940SOL     OW47716   4.089   7.171   5.534
81940SOL    HW147717   4.028   7.107   5.570
81940SOL    HW247718   4.142   7.198   5.610
81941SOL     OW47719  12.183   2.858  12.289
81941SOL    HW147720  12.172   2.797  12.216
81941SOL    HW247721  12.095   2.892  12.305
81942SOL     OW47722   2.190  13.028   8.692
81942SOL    HW147723   2.250  13.060   8.624
81942SOL    HW247724   2.105  13.063   8.667
81943SOL     OW47725  11.575   4.694  11.055
81943SOL    HW147726  11.627   4.735  11.123
81943SOL    HW247727  11.605   4.603  11.054
81944SOL     OW47728   4.544  14.019  10.257
81944SOL    HW147729   4.553  14.044  10.165
81944SOL    HW247730   4.623  13.970  10.277
81945SOL     OW47731   1.275   7.627  10.668
81945SOL    HW147732   1.224   7.704  10.644
81945SOL    HW247733   1.218   7.553  10.648
81946SOL     OW47734   7.294  11.747   0.096
81946SOL    HW147735   7.203  11.776   0.106
81946SOL    HW247736   7.345  11.806   0.152
81947SOL     OW47737   0.327   8.306   6.957
81947SOL    HW147738   0.301   8.254   6.882
81947SOL    HW247739   0.407   8.351   6.929
81948SOL     OW47740  14.057   7.021   5.565
81948SOL    HW147741  14.113   6.990   5.493
81948SOL    HW247742  14.006   7.092   5.526
81949SOL     OW47743   1.093   5.848  12.224
81949SOL    HW147744   1.025   5.877  12.284
81949SOL    HW247745   1.145   5.786  12.275
81950SOL     OW47746   1.074   2.403  13.370
81950SOL    HW147747   1.130   2.365  13.302
81950SOL    HW247748   1.053   2.490  13.337
81951SOL     OW47749   3.790   2.876  12.394
81951SOL    HW147750   3.854   2.888  12.323
81951SOL    HW247751   3.712   2.922  12.364
81952SOL     OW47752   1.261   7.476   2.825
81952SOL    HW147753   1.317   7.553   2.830
81952SOL    HW247754   1.224   7.467   2.913
81953SOL     OW47755  10.739   2.693  14.524
81953SOL    HW147756  10.818   2.639  14.516
81953SOL    HW247757  10.688   2.672  14.445
81954SOL     OW47758   0.678  14.720   4.336
81954SOL    HW147759   0.754  14.719   4.394
81954SOL    HW247760   0.613  14.666   4.380
81955SOL     OW47761   7.041   0.782   1.441
81955SOL    HW147762   7.043   0.816   1.531
81955SOL    HW247763   7.094   0.844   1.391
81956SOL     OW47764   0.876   5.123  11.375
81956SOL    HW147765   0.970   5.141  11.378
81956SOL    HW247766   0.848   5.149  11.288
81957SOL     OW47767   7.458  14.563   9.480
81957SOL    HW147768   7.534  14.601   9.525
81957SOL    HW247769   7.392  14.555   9.549
81958SOL     OW47770  14.099  12.516   6.616
81958SOL    HW147771  14.151  12.478   6.546
81958SOL    HW247772  14.036  12.447   6.640
81959SOL     OW47773   0.501  14.707   8.833
81959SOL    HW147774   0.563  14.771   8.798
81959SOL    HW247775   0.547  14.665   8.905
81960SOL     OW47776   8.986   2.161  11.385
81960SOL    HW147777   9.049   2.091  11.402
81960SOL    HW247778   8.997   2.221  11.459
81961SOL     OW47779   8.779  12.457   8.544
81961SOL    HW147780   8.804  12.429   8.456
81961SOL    HW247781   8.730  12.384   8.581
81962SOL     OW47782   8.414   5.102   6.741
81962SOL    HW147783   8.447   5.093   6.651
81962SOL    HW247784   8.327   5.063   6.739
81963SOL     OW47785   9.295  12.408  10.319
81963SOL    HW147786   9.238  12.448  10.384
81963SOL    HW247787   9.263  12.441  10.235
81964SOL     OW47788   3.643   3.331  13.683
81964SOL    HW147789   3.694   3.400  13.724
81964SOL    HW247790   3.605   3.282  13.756
81965SOL     OW47791  14.317   1.727   0.380
81965SOL    HW147792  14.293   1.708   0.290
81965SOL    HW247793  14.412   1.712   0.383
81966SOL     OW47794   7.056   7.043   5.815
81966SOL    HW147795   6.993   7.013   5.750
81966SOL    HW247796   7.003   7.077   5.886
81967SOL     OW47797  12.624   2.250   6.813
81967SOL    HW147798  12.592   2.339   6.798
81967SOL    HW247799  12.631   2.212   6.725
81968SOL     OW47800   4.228  14.354   4.850
81968SOL    HW147801   4.221  14.326   4.941
81968SOL    HW247802   4.172  14.432   4.845
81969SOL     OW47803   6.599  13.030  11.745
81969SOL    HW147804   6.539  13.009  11.674
81969SOL    HW247805   6.612  13.124  11.738
81970SOL     OW47806   5.854  13.887   9.857
81970SOL    HW147807   5.766  13.885   9.820
81970SOL    HW247808   5.889  13.799   9.842
81971SOL     OW47809   3.996  11.249  10.636
81971SOL    HW147810   3.983  11.167  10.683
81971SOL    HW247811   4.087  11.273  10.655
81972SOL     OW47812   5.007   6.879  11.128
81972SOL    HW147813   4.995   6.785  11.140
81972SOL    HW247814   5.048   6.909  11.210
81973SOL     OW47815  11.168  13.002  12.490
81973SOL    HW147816  11.201  13.091  12.477
81973SOL    HW247817  11.236  12.960  12.542
81974SOL     OW47818   5.675   4.750   6.792
81974SOL    HW147819   5.620   4.777   6.865
81974SOL    HW247820   5.712   4.832   6.758
81975SOL     OW47821   0.084   8.677  13.701
81975SOL    HW147822   0.065   8.767  13.677
81975SOL    HW247823  14.868   8.643  13.732
81976SOL     OW47824   3.608   8.196   3.516
81976SOL    HW147825   3.699   8.167   3.526
81976SOL    HW247826   3.578   8.210   3.606
81977SOL     OW47827  12.232   0.924  14.627
81977SOL    HW147828  12.271   1.011  14.641
81977SOL    HW247829  12.290   0.882  14.564
81978SOL     OW47830   2.924  13.122   5.822
81978SOL    HW147831   2.881  13.067   5.756
81978SOL    HW247832   3.010  13.081   5.835
81979SOL     OW47833   0.119  12.532   9.497
81979SOL    HW147834   0.079  12.609   9.455
81979SOL    HW247835   0.045  12.483   9.532
81980SOL     OW47836   5.479   5.948   1.413
81980SOL    HW147837   5.413   5.887   1.380
81980SOL    HW247838   5.562   5.915   1.380
81981SOL     OW47839   3.416   5.132   6.320
81981SOL    HW147840   3.416   5.126   6.225
81981SOL    HW247841   3.349   5.197   6.340
81982SOL     OW47842  14.095  14.423   6.416
81982SOL    HW147843  14.155  14.462   6.479
81982SOL    HW247844  14.060  14.497   6.367
81983SOL     OW47845  13.741  12.848  10.595
81983SOL    HW147846  13.729  12.755  10.609
81983SOL    HW247847  13.820  12.870  10.644
81984SOL     OW47848   9.200   6.658   8.383
81984SOL    HW147849   9.127   6.603   8.412
81984SOL    HW247850   9.270   6.595   8.364
81985SOL     OW47851   0.767   7.804   8.423
81985SOL    HW147852   0.793   7.868   8.356
81985SOL    HW247853   0.740   7.727   8.373
81986SOL     OW47854   3.132   0.129  10.679
81986SOL    HW147855   3.191   0.204  10.682
81986SOL    HW247856   3.103   0.117  10.769
81987SOL     OW47857   2.039   8.325   1.798
81987SOL    HW147858   2.071   8.415   1.810
81987SOL    HW247859   2.053   8.283   1.883
81988SOL     OW47860  13.797  11.759   4.690
81988SOL    HW147861  13.839  11.830   4.640
81988SOL    HW247862  13.860  11.687   4.685
81989SOL     OW47863   7.942  10.113  14.649
81989SOL    HW147864   7.914  10.169  14.721
81989SOL    HW247865   7.867  10.110  14.590
81990SOL     OW47866   2.608   7.247  14.745
81990SOL    HW147867   2.580   7.232  14.835
81990SOL    HW247868   2.660   7.327  14.749
81991SOL     OW47869   1.286  11.713   3.138
81991SOL    HW147870   1.361  11.673   3.183
81991SOL    HW247871   1.210  11.684   3.188
81992SOL     OW47872  10.033   5.298   2.261
81992SOL    HW147873  10.110   5.268   2.213
81992SOL    HW247874   9.984   5.350   2.198
81993SOL     OW47875   0.511  14.723  12.385
81993SOL    HW147876   0.555  14.700  12.303
81993SOL    HW247877   0.420  14.696  12.373
81994SOL     OW47878   4.575   6.948  11.878
81994SOL    HW147879   4.508   6.997  11.925
81994SOL    HW247880   4.602   7.007  11.807
81995SOL     OW47881  11.355  11.449   0.535
81995SOL    HW147882  11.301  11.484   0.605
81995SOL    HW247883  11.441  11.489   0.550
81996SOL     OW47884   2.107   5.606   0.487
81996SOL    HW147885   2.079   5.683   0.537
81996SOL    HW247886   2.163   5.557   0.548
81997SOL     OW47887  10.784  12.371   2.739
81997SOL    HW147888  10.797  12.355   2.646
81997SOL    HW247889  10.725  12.447   2.742
81998SOL     OW47890   4.323  11.695   4.956
81998SOL    HW147891   4.344  11.609   4.921
81998SOL    HW247892   4.403  11.746   4.947
81999SOL     OW47893   5.612   4.173   6.544
81999SOL    HW147894   5.598   4.160   6.450
81999SOL    HW247895   5.706   4.188   6.552
82000SOL     OW47896  12.962   7.460   2.591
82000SOL    HW147897  13.044   7.476   2.545
82000SOL    HW247898  12.907   7.414   2.528
82001SOL     OW47899   2.380  12.585   7.557
82001SOL    HW147900   2.473  12.577   7.534
82001SOL    HW247901   2.365  12.515   7.620
82002SOL     OW47902  13.253   6.648   4.570
82002SOL    HW147903  13.291   6.735   4.558
82002SOL    HW247904  13.173   6.663   4.620
82003SOL     OW47905  13.252  10.135  10.657
82003SOL    HW147906  13.197  10.092  10.592
82003SOL    HW247907  13.334  10.086  10.655
82004SOL     OW47908   7.549  11.696   1.551
82004SOL    HW147909   7.637  11.709   1.586
82004SOL    HW247910   7.490  11.723   1.621
82005SOL     OW47911   1.984  10.177   8.279
82005SOL    HW147912   1.888  10.178   8.270
82005SOL    HW247913   2.004  10.254   8.332
82006SOL     OW47914   3.620   3.346   6.363
82006SOL    HW147915   3.688   3.391   6.413
82006SOL    HW247916   3.538   3.375   6.403
82007SOL     OW47917   0.692  10.300   3.463
82007SOL    HW147918   0.747  10.346   3.399
82007SOL    HW247919   0.752  10.273   3.532
82008SOL     OW47920  11.196   9.280  12.236
82008SOL    HW147921  11.270   9.220  12.250
82008SOL    HW247922  11.179   9.277  12.142
82009SOL     OW47923  13.811   8.218  13.692
82009SOL    HW147924  13.782   8.136  13.652
82009SOL    HW247925  13.851   8.266  13.621
82010SOL     OW47926   3.960   1.138   7.545
82010SOL    HW147927   3.922   1.116   7.630
82010SOL    HW247928   4.033   1.077   7.536
82011SOL     OW47929   9.222  11.157  10.651
82011SOL    HW147930   9.175  11.088  10.603
82011SOL    HW247931   9.307  11.162  10.608
82012SOL     OW47932   7.023  12.691  14.277
82012SOL    HW147933   6.931  12.716  14.268
82012SOL    HW247934   7.048  12.663  14.189
82013SOL     OW47935   2.027  11.404  13.553
82013SOL    HW147936   1.999  11.439  13.468
82013SOL    HW247937   2.079  11.474  13.592
82014SOL     OW47938   2.320  10.412  14.762
82014SOL    HW147939   2.326  10.362  14.680
82014SOL    HW247940   2.228  10.437  14.768
82015SOL     OW47941  11.105   5.440  13.970
82015SOL    HW147942  11.192   5.455  14.005
82015SOL    HW247943  11.072   5.527  13.947
82016SOL     OW47944   4.054  12.471  11.037
82016SOL    HW147945   4.054  12.514  11.123
82016SOL    HW247946   3.961  12.460  11.017
82017SOL     OW47947   4.301  14.591  11.345
82017SOL    HW147948   4.243  14.666  11.356
82017SOL    HW247949   4.308  14.580  11.251
82018SOL     OW47950  13.282  14.378   7.242
82018SOL    HW147951  13.267  14.362   7.335
82018SOL    HW247952  13.375  14.357   7.229
82019SOL     OW47953   9.332   9.741   2.279
82019SOL    HW147954   9.363   9.652   2.261
82019SOL    HW247955   9.412   9.793   2.285
82020SOL     OW47956   3.934   4.099  12.259
82020SOL    HW147957   3.880   4.164  12.214
82020SOL    HW247958   3.934   4.127  12.351
82021SOL     OW47959   6.576   3.553   2.167
82021SOL    HW147960   6.489   3.540   2.131
82021SOL    HW247961   6.584   3.488   2.237
82022SOL     OW47962   7.353   0.092   2.529
82022SOL    HW147963   7.359   0.186   2.543
82022SOL    HW247964   7.269   0.080   2.484
82023SOL     OW47965   8.673   9.311  14.330
82023SOL    HW147966   8.704   9.220  14.324
82023SOL    HW247967   8.677   9.332  14.423
82024SOL     OW47968   0.295   4.530  10.941
82024SOL    HW147969   0.220   4.477  10.969
82024SOL    HW247970   0.258   4.598  10.886
82025SOL     OW47971   6.016  12.466   7.259
82025SOL    HW147972   6.052  12.481   7.171
82025SOL    HW247973   5.923  12.485   7.250
82026SOL     OW47974   6.020   8.218   8.140
82026SOL    HW147975   5.985   8.162   8.070
82026SOL    HW247976   6.030   8.304   8.100
82027SOL     OW47977   1.499   6.669  11.733
82027SOL    HW147978   1.445   6.695  11.659
82027SOL    HW247979   1.523   6.752  11.776
82028SOL     OW47980   8.465   5.937   1.507
82028SOL    HW147981   8.535   5.879   1.538
82028SOL    HW247982   8.511   6.017   1.480
82029SOL     OW47983   7.967  13.623  11.968
82029SOL    HW147984   8.030  13.554  11.948
82029SOL    HW247985   8.016  13.686  12.021
82030SOL     OW47986   3.882   7.722   0.400
82030SOL    HW147987   3.892   7.726   0.305
82030SOL    HW247988   3.788   7.733   0.414
82031SOL     OW47989   0.035   3.126   2.528
82031SOL    HW147990   0.123   3.156   2.549
82031SOL    HW247991   0.023   3.047   2.581
82032SOL     OW47992  13.200   5.743   4.914
82032SOL    HW147993  13.288   5.736   4.949
82032SOL    HW247994  13.165   5.824   4.950
82033SOL     OW47995   3.750   5.209   2.033
82033SOL    HW147996   3.679   5.218   2.096
82033SOL    HW247997   3.730   5.127   1.987
82034SOL     OW47998   1.587   9.288   0.357
82034SOL    HW147999   1.665   9.288   0.414
82034SOL    HW248000   1.621   9.310   0.270
82035SOL     OW48001   8.698   7.372  10.562
82035SOL    HW148002   8.736   7.365  10.475
82035SOL    HW248003   8.622   7.429  10.550
82036SOL     OW48004   9.173  14.372   4.742
82036SOL    HW148005   9.141  14.341   4.826
82036SOL    HW248006   9.197  14.293   4.694
82037SOL     OW48007   3.340   5.643   7.878
82037SOL    HW148008   3.286   5.682   7.810
82037SOL    HW248009   3.411   5.600   7.830
82038SOL     OW48010   9.697  10.169   9.620
82038SOL    HW148011   9.732  10.210   9.699
82038SOL    HW248012   9.745  10.086   9.614
82039SOL     OW48013   6.799  14.168  13.248
82039SOL    HW148014   6.747  14.240  13.213
82039SOL    HW248015   6.760  14.089  13.208
82040SOL     OW48016   1.137   0.832   5.831
82040SOL    HW148017   1.195   0.879   5.771
82040SOL    HW248018   1.142   0.882   5.912
82041SOL     OW48019  11.719   6.288   8.294
82041SOL    HW148020  11.684   6.377   8.289
82041SOL    HW248021  11.813   6.299   8.281
82042SOL     OW48022   2.860   0.558  11.256
82042SOL    HW148023   2.848   0.641  11.211
82042SOL    HW248024   2.842   0.578  11.348
82043SOL     OW48025  13.503  10.113   4.040
82043SOL    HW148026  13.586  10.065   4.038
82043SOL    HW248027  13.499  10.151   4.127
82044SOL     OW48028   5.256  11.151  10.560
82044SOL    HW148029   5.317  11.153  10.486
82044SOL    HW248030   5.311  11.134  10.636
82045SOL     OW48031   4.402   9.727  10.123
82045SOL    HW148032   4.387   9.667  10.050
82045SOL    HW248033   4.380   9.675  10.201
82046SOL     OW48034   4.666   0.387  13.853
82046SOL    HW148035   4.658   0.397  13.948
82046SOL    HW248036   4.600   0.322  13.830
82047SOL     OW48037   4.602  12.750   7.913
82047SOL    HW148038   4.543  12.675   7.917
82047SOL    HW248039   4.630  12.764   8.004
82048SOL     OW48040  13.060   2.785   2.481
82048SOL    HW148041  13.100   2.868   2.507
82048SOL    HW248042  13.025   2.802   2.394
82049SOL     OW48043  13.153  11.018   3.991
82049SOL    HW148044  13.095  10.943   3.978
82049SOL    HW248045  13.094  11.093   3.992
82050SOL     OW48046   1.017   0.121  10.863
82050SOL    HW148047   0.940   0.070  10.886
82050SOL    HW248048   1.027   0.109  10.768
82051SOL     OW48049  13.195   0.515   4.873
82051SOL    HW148050  13.255   0.581   4.908
82051SOL    HW248051  13.217   0.435   4.920
82052SOL     OW48052   4.825   1.775   8.017
82052SOL    HW148053   4.793   1.826   8.092
82052SOL    HW248054   4.802   1.828   7.941
82053SOL     OW48055  10.465   3.581   4.795
82053SOL    HW148056  10.510   3.541   4.721
82053SOL    HW248057  10.375   3.550   4.788
82054SOL     OW48058  14.265   6.570   5.496
82054SOL    HW148059  14.338   6.550   5.554
82054SOL    HW248060  14.190   6.525   5.534
82055SOL     OW48061   3.450   7.763  10.405
82055SOL    HW148062   3.361   7.764  10.370
82055SOL    HW248063   3.457   7.679  10.450
82056SOL     OW48064   0.917  14.635  11.416
82056SOL    HW148065   0.963  14.710  11.379
82056SOL    HW248066   0.829  14.668  11.435
82057SOL     OW48067   7.994  12.034  11.466
82057SOL    HW148068   7.968  12.079  11.386
82057SOL    HW248069   8.087  12.016  11.454
82058SOL     OW48070  10.808  13.379   7.712
82058SOL    HW148071  10.740  13.407   7.774
82058SOL    HW248072  10.882  13.437   7.729
82059SOL     OW48073  12.907   4.702   1.089
82059SOL    HW148074  12.906   4.790   1.125
82059SOL    HW248075  12.815   4.679   1.076
82060SOL     OW48076   0.085  12.923   4.224
82060SOL    HW148077   0.008  12.871   4.199
82060SOL    HW248078   0.144  12.917   4.149
82061SOL     OW48079  10.902  11.226  14.474
82061SOL    HW148080  10.918  11.293  14.540
82061SOL    HW248081  10.889  11.146  14.525
82062SOL     OW48082   6.825   5.870  13.398
82062SOL    HW148083   6.759   5.805  13.372
82062SOL    HW248084   6.892   5.819  13.443
82063SOL     OW48085   2.161  13.181  10.580
82063SOL    HW148086   2.068  13.178  10.558
82063SOL    HW248087   2.170  13.257  10.638
82064SOL     OW48088   3.942   5.463   8.942
82064SOL    HW148089   4.017   5.511   8.978
82064SOL    HW248090   3.982   5.400   8.882
82065SOL     OW48091  14.358   9.538   8.586
82065SOL    HW148092  14.310   9.620   8.592
82065SOL    HW248093  14.411   9.535   8.666
82066SOL     OW48094   3.262   0.118  10.393
82066SOL    HW148095   3.330   0.183  10.412
82066SOL    HW248096   3.290   0.040  10.442
82067SOL     OW48097   9.152  10.987   1.311
82067SOL    HW148098   9.227  11.044   1.293
82067SOL    HW248099   9.180  10.900   1.281
82068SOL     OW48100   2.003   1.133   5.012
82068SOL    HW148101   1.938   1.159   4.947
82068SOL    HW248102   1.964   1.156   5.096
82069SOL     OW48103   7.456   5.971  13.439
82069SOL    HW148104   7.399   5.939  13.369
82069SOL    HW248105   7.495   6.051  13.404
82070SOL     OW48106   1.148   3.106   8.215
82070SOL    HW148107   1.236   3.103   8.252
82070SOL    HW248108   1.134   3.198   8.194
82071SOL     OW48109   8.797  10.483   8.618
82071SOL    HW148110   8.762  10.439   8.541
82071SOL    HW248111   8.738  10.556   8.633
82072SOL     OW48112  12.672  11.962  10.328
82072SOL    HW148113  12.633  11.928  10.409
82072SOL    HW248114  12.733  12.030  10.357
82073SOL     OW48115  11.948   1.558  13.856
82073SOL    HW148116  11.913   1.533  13.941
82073SOL    HW248117  11.961   1.652  13.862
82074SOL     OW48118  14.846  14.614  10.621
82074SOL    HW148119  14.864  14.572  10.537
82074SOL    HW248120   0.062  14.654  10.645
82075SOL     OW48121   1.499  13.235   2.542
82075SOL    HW148122   1.592  13.255   2.532
82075SOL    HW248123   1.495  13.166   2.609
82076SOL     OW48124  10.981  10.477   0.292
82076SOL    HW148125  10.933  10.530   0.354
82076SOL    HW248126  10.920  10.408   0.267
82077SOL     OW48127  12.259   9.269   2.589
82077SOL    HW148128  12.275   9.270   2.495
82077SOL    HW248129  12.180   9.217   2.600
82078SOL     OW48130   7.190   5.577   0.941
82078SOL    HW148131   7.207   5.663   0.980
82078SOL    HW248132   7.264   5.524   0.968
82079SOL     OW48133   3.734  11.651   1.567
82079SOL    HW148134   3.809  11.702   1.537
82079SOL    HW248135   3.658  11.706   1.548
82080SOL     OW48136   7.331   8.214   0.037
82080SOL    HW148137   7.410   8.258   0.005
82080SOL    HW248138   7.262   8.279   0.028
82081SOL     OW48139   5.899  13.927   0.640
82081SOL    HW148140   5.891  13.932   0.735
82081SOL    HW248141   5.808  13.933   0.609
82082SOL     OW48142   7.204   0.910   0.240
82082SOL    HW148143   7.131   0.948   0.190
82082SOL    HW248144   7.274   0.899   0.176
82083SOL     OW48145   8.096   3.348  11.196
82083SOL    HW148146   8.041   3.422  11.219
82083SOL    HW248147   8.142   3.375  11.116
82084SOL     OW48148   3.838   0.716   4.787
82084SOL    HW148149   3.837   0.660   4.865
82084SOL    HW248150   3.833   0.654   4.713
82085SOL     OW48151   2.931   7.870   2.083
82085SOL    HW148152   2.884   7.821   2.151
82085SOL    HW248153   2.918   7.962   2.108
82086SOL     OW48154  10.416  12.998  10.638
82086SOL    HW148155  10.403  12.918  10.586
82086SOL    HW248156  10.502  13.031  10.609
82087SOL     OW48157   2.146  10.985  11.716
82087SOL    HW148158   2.144  11.078  11.695
82087SOL    HW248159   2.072  10.948  11.668
82088SOL     OW48160  12.382  13.960   0.317
82088SOL    HW148161  12.330  14.017   0.373
82088SOL    HW248162  12.353  13.980   0.228
82089SOL     OW48163   4.933   0.312   7.604
82089SOL    HW148164   4.969   0.230   7.639
82089SOL    HW248165   4.982   0.326   7.523
82090SOL     OW48166  13.862  12.838   7.913
82090SOL    HW148167  13.887  12.795   7.831
82090SOL    HW248168  13.810  12.772   7.960
82091SOL     OW48169   4.632  11.783  14.262
82091SOL    HW148170   4.578  11.803  14.339
82091SOL    HW248171   4.609  11.692  14.240
82092SOL     OW48172   2.237   3.387   6.503
82092SOL    HW148173   2.179   3.404   6.577
82092SOL    HW248174   2.302   3.326   6.537
82093SOL     OW48175   4.469  13.948   0.174
82093SOL    HW148176   4.476  14.035   0.135
82093SOL    HW248177   4.437  13.965   0.263
82094SOL     OW48178  13.576   5.167  14.412
82094SOL    HW148179  13.544   5.248  14.374
82094SOL    HW248180  13.643   5.195  14.475
82095SOL     OW48181  14.645   5.735  12.045
82095SOL    HW148182  14.690   5.754  11.963
82095SOL    HW248183  14.589   5.660  12.025
82096SOL     OW48184   0.427   2.125  14.834
82096SOL    HW148185   0.391   2.213  14.824
82096SOL    HW248186   0.522   2.139  14.838
82097SOL     OW48187   0.873  10.048   3.528
82097SOL    HW148188   0.795  10.019   3.480
82097SOL    HW248189   0.847  10.046   3.620
82098SOL     OW48190   8.753   5.289   8.116
82098SOL    HW148191   8.847   5.307   8.111
82098SOL    HW248192   8.715   5.340   8.044
82099SOL     OW48193   7.394   9.254  10.472
82099SOL    HW148194   7.417   9.346  10.470
82099SOL    HW248195   7.395   9.227  10.379
82100SOL     OW48196   2.652   5.423   3.243
82100SOL    HW148197   2.666   5.362   3.315
82100SOL    HW248198   2.638   5.367   3.167
82101SOL     OW48199   9.643   7.774   1.651
82101SOL    HW148200   9.592   7.853   1.672
82101SOL    HW248201   9.652   7.729   1.734
82102SOL     OW48202  14.606   6.042  10.579
82102SOL    HW148203  14.673   6.050  10.646
82102SOL    HW248204  14.559   6.125  10.581
82103SOL     OW48205  11.892   3.862   9.088
82103SOL    HW148206  11.840   3.911   9.025
82103SOL    HW248207  11.882   3.770   9.061
82104SOL     OW48208   1.730   2.325   8.636
82104SOL    HW148209   1.727   2.421   8.630
82104SOL    HW248210   1.788   2.298   8.564
82105SOL     OW48211  12.943  12.046   5.797
82105SOL    HW148212  12.876  12.044   5.866
82105SOL    HW248213  12.908  11.987   5.729
82106SOL     OW48214  12.271  11.575   5.381
82106SOL    HW148215  12.317  11.516   5.321
82106SOL    HW248216  12.297  11.663   5.353
82107SOL     OW48217  14.057  14.328   0.874
82107SOL    HW148218  14.131  14.387   0.861
82107SOL    HW248219  14.017  14.319   0.788
82108SOL     OW48220  14.037   3.534  12.882
82108SOL    HW148221  13.965   3.561  12.939
82108SOL    HW248222  14.002   3.541  12.793
82109SOL     OW48223   5.418   1.056   1.689
82109SOL    HW148224   5.355   0.986   1.676
82109SOL    HW248225   5.439   1.052   1.782
82110SOL     OW48226   9.839  12.066  11.985
82110SOL    HW148227   9.767  12.129  11.993
82110SOL    HW248228   9.883  12.069  12.070
82111SOL     OW48229   7.951   2.100  14.392
82111SOL    HW148230   7.932   2.115  14.300
82111SOL    HW248231   7.932   2.007  14.406
82112SOL     OW48232   3.460   8.910   2.659
82112SOL    HW148233   3.443   8.951   2.744
82112SOL    HW248234   3.377   8.920   2.611
82113SOL     OW48235   2.997   3.858   9.949
82113SOL    HW148236   3.075   3.911   9.966
82113SOL    HW248237   3.024   3.796   9.882
82114SOL     OW48238   7.650   1.980   0.762
82114SOL    HW148239   7.581   1.978   0.695
82114SOL    HW248240   7.731   1.969   0.712
82115SOL     OW48241   1.356  10.695   5.707
82115SOL    HW148242   1.261  10.687   5.703
82115SOL    HW248243   1.385  10.692   5.615
82116SOL     OW48244   9.130   9.158   7.543
82116SOL    HW148245   9.174   9.092   7.596
82116SOL    HW248246   9.057   9.112   7.502
82117SOL     OW48247   1.731  10.624   1.551
82117SOL    HW148248   1.762  10.583   1.470
82117SOL    HW248249   1.654  10.674   1.524
82118SOL     OW48250  10.706   3.386  11.938
82118SOL    HW148251  10.693   3.426  12.023
82118SOL    HW248252  10.800   3.387  11.924
82119SOL     OW48253   0.055   3.928   1.370
82119SOL    HW148254   0.129   3.917   1.311
82119SOL    HW248255  14.867   3.852   1.354
82120SOL     OW48256   9.959  13.856   7.736
82120SOL    HW148257   9.990  13.768   7.759
82120SOL    HW248258   9.863  13.847   7.734
82121SOL     OW48259   8.657  13.445   9.363
82121SOL    HW148260   8.743  13.486   9.353
82121SOL    HW248261   8.665  13.390   9.441
82122SOL     OW48262   1.327  14.296  11.395
82122SOL    HW148263   1.387  14.228  11.425
82122SOL    HW248264   1.258  14.298  11.461
82123SOL     OW48265   0.196   4.769  12.376
82123SOL    HW148266   0.162   4.849  12.335
82123SOL    HW248267   0.214   4.710  12.303
82124SOL     OW48268   2.842   5.252   1.590
82124SOL    HW148269   2.870   5.340   1.563
82124SOL    HW248270   2.822   5.261   1.683
82125SOL     OW48271   6.838   7.986   5.479
82125SOL    HW148272   6.779   8.062   5.480
82125SOL    HW248273   6.879   7.987   5.566
82126SOL     OW48274   9.626   9.159  13.574
82126SOL    HW148275   9.678   9.239  13.586
82126SOL    HW248276   9.675   9.092  13.622
82127SOL     OW48277  12.004  13.859  11.711
82127SOL    HW148278  11.917  13.882  11.678
82127SOL    HW248279  11.988  13.791  11.776
82128SOL     OW48280   1.437  11.462  13.019
82128SOL    HW148281   1.435  11.418  13.104
82128SOL    HW248282   1.420  11.554  13.039
82129SOL     OW48283   9.598   2.142  12.808
82129SOL    HW148284   9.547   2.075  12.853
82129SOL    HW248285   9.539   2.216  12.801
82130SOL     OW48286   6.480   8.211   3.190
82130SOL    HW148287   6.418   8.181   3.124
82130SOL    HW248288   6.483   8.306   3.178
82131SOL     OW48289   6.890   7.924   3.691
82131SOL    HW148290   6.827   7.891   3.627
82131SOL    HW248291   6.940   7.847   3.717
82132SOL     OW48292   3.269   9.536   7.159
82132SOL    HW148293   3.351   9.488   7.149
82132SOL    HW248294   3.287   9.601   7.226
82133SOL     OW48295   8.612   4.319   7.184
82133SOL    HW148296   8.548   4.365   7.130
82133SOL    HW248297   8.696   4.360   7.164
82134SOL     OW48298   7.795   3.831   1.905
82134SOL    HW148299   7.784   3.859   1.996
82134SOL    HW248300   7.729   3.764   1.892
82135SOL     OW48301   7.793  10.895   1.652
82135SOL    HW148302   7.723  10.855   1.703
82135SOL    HW248303   7.779  10.864   1.562
82136SOL     OW48304   8.657   4.999   0.602
82136SOL    HW148305   8.739   5.047   0.613
82136SOL    HW248306   8.673   4.915   0.645
82137SOL     OW48307   7.638  11.104   5.586
82137SOL    HW148308   7.719  11.076   5.543
82137SOL    HW248309   7.587  11.146   5.517
82138SOL     OW48310   4.852   2.307   4.194
82138SOL    HW148311   4.881   2.396   4.218
82138SOL    HW248312   4.874   2.299   4.101
82139SOL     OW48313  13.974   6.482  12.536
82139SOL    HW148314  14.034   6.451  12.604
82139SOL    HW248315  13.996   6.575  12.526
82140SOL     OW48316   2.729   5.426   0.869
82140SOL    HW148317   2.676   5.497   0.904
82140SOL    HW248318   2.669   5.351   0.865
82141SOL     OW48319   6.115   1.339   0.765
82141SOL    HW148320   6.187   1.355   0.826
82141SOL    HW248321   6.156   1.294   0.691
82142SOL     OW48322   4.872  10.311   9.024
82142SOL    HW148323   4.920  10.360   8.958
82142SOL    HW248324   4.912  10.224   9.024
82143SOL     OW48325  10.476   2.102   5.282
82143SOL    HW148326  10.464   2.011   5.254
82143SOL    HW248327  10.514   2.096   5.369
82144SOL     OW48328   6.944  14.525   4.579
82144SOL    HW148329   6.982  14.611   4.558
82144SOL    HW248330   6.854  14.530   4.545
82145SOL     OW48331   5.259   2.381   6.175
82145SOL    HW148332   5.195   2.376   6.245
82145SOL    HW248333   5.316   2.305   6.188
82146SOL     OW48334   9.306  12.622   6.375
82146SOL    HW148335   9.331  12.590   6.288
82146SOL    HW248336   9.233  12.565   6.400
82147SOL     OW48337   5.404  13.030   9.958
82147SOL    HW148338   5.319  13.024   9.914
82147SOL    HW248339   5.403  13.114  10.003
82148SOL     OW48340   4.047   4.847   8.691
82148SOL    HW148341   4.084   4.840   8.779
82148SOL    HW248342   3.971   4.904   8.701
82149SOL     OW48343  14.046  12.070   4.114
82149SOL    HW148344  14.139  12.078   4.092
82149SOL    HW248345  14.019  12.159   4.136
82150SOL     OW48346   8.851   3.181  12.171
82150SOL    HW148347   8.923   3.221  12.121
82150SOL    HW248348   8.772   3.226  12.140
82151SOL     OW48349  12.638   5.909  14.639
82151SOL    HW148350  12.686   5.834  14.605
82151SOL    HW248351  12.633   5.969  14.565
82152SOL     OW48352   9.730  14.320   9.459
82152SOL    HW148353   9.701  14.367   9.382
82152SOL    HW248354   9.779  14.384   9.511
82153SOL     OW48355   8.038   0.141   9.910
82153SOL    HW148356   7.966   0.139   9.973
82153SOL    HW248357   8.002   0.098   9.832
82154SOL     OW48358  11.993   2.740   6.836
82154SOL    HW148359  11.967   2.821   6.879
82154SOL    HW248360  11.933   2.731   6.762
82155SOL     OW48361   7.307   5.298   5.430
82155SOL    HW148362   7.357   5.309   5.349
82155SOL    HW248363   7.311   5.383   5.473
82156SOL     OW48364  12.524   8.072   5.928
82156SOL    HW148365  12.544   8.006   5.861
82156SOL    HW248366  12.495   8.148   5.878
82157SOL     OW48367   8.342   2.400   2.121
82157SOL    HW148368   8.347   2.490   2.088
82157SOL    HW248369   8.405   2.352   2.068
82158SOL     OW48370   9.349   0.387  10.417
82158SOL    HW148371   9.405   0.310  10.423
82158SOL    HW248372   9.268   0.361  10.461
82159SOL     OW48373   6.848   1.583  11.747
82159SOL    HW148374   6.861   1.642  11.820
82159SOL    HW248375   6.780   1.624  11.694
82160SOL     OW48376   2.975   8.133   6.889
82160SOL    HW148377   3.031   8.206   6.915
82160SOL    HW248378   2.898   8.174   6.851
82161SOL     OW48379  11.882  10.857  12.474
82161SOL    HW148380  11.957  10.798  12.469
82161SOL    HW248381  11.832  10.840  12.394
82162SOL     OW48382   3.380  14.539   0.405
82162SOL    HW148383   3.286  14.549   0.414
82162SOL    HW248384   3.414  14.628   0.402
82163SOL     OW48385   0.766  14.244  14.855
82163SOL    HW148386   0.763  14.266   0.080
82163SOL    HW248387   0.688  14.286  14.818
82164SOL     OW48388   4.802   1.809   0.506
82164SOL    HW148389   4.841   1.788   0.421
82164SOL    HW248390   4.793   1.724   0.549
82165SOL     OW48391  11.422  14.662   0.301
82165SOL    HW148392  11.377  14.594   0.250
82165SOL    HW248393  11.512  14.659   0.269
82166SOL     OW48394   2.431  11.662   2.492
82166SOL    HW148395   2.372  11.714   2.546
82166SOL    HW248396   2.415  11.691   2.402
82167SOL     OW48397  10.158  12.523   8.516
82167SOL    HW148398  10.106  12.603   8.506
82167SOL    HW248399  10.231  12.548   8.572
82168SOL     OW48400   8.671   9.877   9.045
82168SOL    HW148401   8.633   9.962   9.068
82168SOL    HW248402   8.727   9.855   9.120
82169SOL     OW48403   1.488   9.653   4.281
82169SOL    HW148404   1.405   9.659   4.233
82169SOL    HW248405   1.495   9.561   4.304
82170SOL     OW48406  10.098   6.209   8.840
82170SOL    HW148407  10.036   6.200   8.768
82170SOL    HW248408  10.156   6.281   8.814
82171SOL     OW48409  12.909   4.105  10.058
82171SOL    HW148410  12.854   4.030  10.079
82171SOL    HW248411  12.996   4.068  10.045
82172SOL     OW48412  11.918   4.477   6.228
82172SOL    HW148413  11.896   4.513   6.314
82172SOL    HW248414  11.965   4.396   6.247
82173SOL     OW48415  11.004   8.826  11.731
82173SOL    HW148416  11.003   8.872  11.815
82173SOL    HW248417  10.913   8.800  11.716
82174SOL     OW48418   1.744   9.076  13.171
82174SOL    HW148419   1.734   9.048  13.262
82174SOL    HW248420   1.701   9.162  13.168
82175SOL     OW48421  13.527   6.330   2.188
82175SOL    HW148422  13.467   6.265   2.153
82175SOL    HW248423  13.481   6.368   2.263
82176SOL     OW48424  14.482  11.961   5.959
82176SOL    HW148425  14.442  12.018   5.893
82176SOL    HW248426  14.565  12.004   5.981
82177SOL     OW48427  12.508   0.303   2.671
82177SOL    HW148428  12.590   0.334   2.708
82177SOL    HW248429  12.533   0.231   2.613
82178SOL     OW48430  11.289   8.906   1.099
82178SOL    HW148431  11.277   8.861   1.183
82178SOL    HW248432  11.219   8.971   1.097
82179SOL     OW48433   3.351   1.540   5.615
82179SOL    HW148434   3.356   1.633   5.592
82179SOL    HW248435   3.320   1.497   5.536
82180SOL     OW48436   5.513   1.532   1.995
82180SOL    HW148437   5.436   1.584   2.020
82180SOL    HW248438   5.518   1.463   2.062
82181SOL     OW48439   8.882   1.571  11.627
82181SOL    HW148440   8.957   1.620  11.593
82181SOL    HW248441   8.808   1.632  11.618
82182SOL     OW48442   0.522  14.000  10.976
82182SOL    HW148443   0.502  14.015  11.069
82182SOL    HW248444   0.617  14.004  10.971
82183SOL     OW48445   2.815   2.491  14.288
82183SOL    HW148446   2.795   2.571  14.337
82183SOL    HW248447   2.910   2.491  14.279
82184SOL     OW48448  14.423   8.585  12.256
82184SOL    HW148449  14.359   8.519  12.227
82184SOL    HW248450  14.370   8.651  12.301
82185SOL     OW48451   4.592  11.827  10.771
82185SOL    HW148452   4.656  11.867  10.713
82185SOL    HW248453   4.629  11.741  10.792
82186SOL     OW48454  11.197   4.143   3.881
82186SOL    HW148455  11.113   4.098   3.893
82186SOL    HW248456  11.253   4.106   3.950
82187SOL     OW48457   2.609   8.256   3.756
82187SOL    HW148458   2.643   8.199   3.824
82187SOL    HW248459   2.637   8.216   3.674
82188SOL     OW48460   6.874  13.481   0.296
82188SOL    HW148461   6.799  13.428   0.325
82188SOL    HW248462   6.861  13.490   0.201
82189SOL     OW48463  11.402   0.866   6.215
82189SOL    HW148464  11.398   0.954   6.178
82189SOL    HW248465  11.336   0.866   6.285
82190SOL     OW48466  11.087   3.093   0.014
82190SOL    HW148467  11.137   3.167  14.849
82190SOL    HW248468  11.045   3.055  14.805
82191SOL     OW48469   8.265   2.097   1.929
82191SOL    HW148470   8.215   2.102   2.010
82191SOL    HW248471   8.317   2.017   1.938
82192SOL     OW48472   5.677  13.139   5.446
82192SOL    HW148473   5.696  13.227   5.478
82192SOL    HW248474   5.595  13.148   5.397
82193SOL     OW48475  14.374   1.501  11.096
82193SOL    HW148476  14.433   1.531  11.165
82193SOL    HW248477  14.418   1.526  11.014
82194SOL     OW48478   0.940   2.961   8.457
82194SOL    HW148479   1.019   2.932   8.412
82194SOL    HW248480   0.927   2.897   8.527
82195SOL     OW48481  12.196   5.567  13.766
82195SOL    HW148482  12.254   5.497  13.799
82195SOL    HW248483  12.140   5.523  13.702
82196SOL     OW48484   7.391  13.708  13.715
82196SOL    HW148485   7.434  13.773  13.770
82196SOL    HW248486   7.310  13.687  13.761
82197SOL     OW48487   1.892  10.043  13.569
82197SOL    HW148488   1.880  10.132  13.603
82197SOL    HW248489   1.817  10.028  13.512
82198SOL     OW48490  12.758  14.398   2.097
82198SOL    HW148491  12.833  14.341   2.112
82198SOL    HW248492  12.781  14.448   2.019
82199SOL     OW48493   1.390   7.184   0.842
82199SOL    HW148494   1.475   7.144   0.823
82199SOL    HW248495   1.329   7.111   0.843
82200SOL     OW48496   7.637  12.999   5.891
82200SOL    HW148497   7.638  13.062   5.963
82200SOL    HW248498   7.648  12.914   5.933
82201SOL     OW48499   6.295   8.041  13.767
82201SOL    HW148500   6.241   8.106  13.811
82201SOL    HW248501   6.374   8.035  13.821
82202SOL     OW48502   2.441   7.318  14.437
82202SOL    HW148503   2.492   7.362  14.505
82202SOL    HW248504   2.437   7.227  14.466
82203SOL     OW48505  14.282  11.136  12.974
82203SOL    HW148506  14.271  11.211  12.915
82203SOL    HW248507  14.271  11.059  12.917
82204SOL     OW48508   2.117   0.137   8.582
82204SOL    HW148509   2.052   0.190   8.537
82204SOL    HW248510   2.194   0.193   8.589
82205SOL     OW48511   6.330   9.110   3.953
82205SOL    HW148512   6.343   9.065   4.036
82205SOL    HW248513   6.279   9.188   3.976
82206SOL     OW48514  13.899   0.613  10.045
82206SOL    HW148515  13.970   0.630  10.107
82206SOL    HW248516  13.886   0.697  10.000
82207SOL     OW48517   0.690   6.870   5.677
82207SOL    HW148518   0.596   6.885   5.688
82207SOL    HW248519   0.725   6.956   5.653
82208SOL     OW48520   8.983   2.901  14.664
82208SOL    HW148521   8.890   2.884  14.677
82208SOL    HW248522   9.026   2.852  14.734
82209SOL     OW48523   4.207   5.832   7.191
82209SOL    HW148524   4.126   5.882   7.203
82209SOL    HW248525   4.252   5.838   7.276
82210SOL     OW48526  13.581  14.695   1.110
82210SOL    HW148527  13.633  14.616   1.096
82210SOL    HW248528  13.644  14.761   1.139
82211SOL     OW48529   2.697  13.178   5.479
82211SOL    HW148530   2.736  13.172   5.566
82211SOL    HW248531   2.642  13.100   5.471
82212SOL     OW48532  14.745   3.864  14.779
82212SOL    HW148533  14.803   3.801  14.823
82212SOL    HW248534  14.662   3.856  14.825
82213SOL     OW48535   3.466   1.748   8.723
82213SOL    HW148536   3.410   1.710   8.656
82213SOL    HW248537   3.418   1.823   8.756
82214SOL     OW48538  11.542   1.322  14.059
82214SOL    HW148539  11.527   1.409  14.023
82214SOL    HW248540  11.555   1.337  14.153
82215SOL     OW48541   5.531   1.658  13.623
82215SOL    HW148542   5.508   1.737  13.574
82215SOL    HW248543   5.621   1.672  13.651
82216SOL     OW48544   0.503  11.793  12.969
82216SOL    HW148545   0.572  11.813  12.905
82216SOL    HW248546   0.475  11.878  13.001
82217SOL     OW48547   4.855   9.888   2.439
82217SOL    HW148548   4.842   9.911   2.347
82217SOL    HW248549   4.865   9.972   2.483
82218SOL     OW48550  14.344  14.061   0.819
82218SOL    HW148551  14.361  13.988   0.759
82218SOL    HW248552  14.253  14.050   0.845
82219SOL     OW48553  14.542   4.752  13.107
82219SOL    HW148554  14.507   4.835  13.075
82219SOL    HW248555  14.527   4.690  13.036
82220SOL     OW48556  12.444   0.218  11.118
82220SOL    HW148557  12.500   0.208  11.041
82220SOL    HW248558  12.495   0.178  11.189
82221SOL     OW48559  10.942   5.679  10.447
82221SOL    HW148560  10.955   5.700  10.355
82221SOL    HW248561  10.849   5.695  10.463
82222SOL     OW48562  11.390  10.977   2.859
82222SOL    HW148563  11.402  10.890   2.820
82222SOL    HW248564  11.477  11.000   2.891
82223SOL     OW48565  14.155   1.478   6.140
82223SOL    HW148566  14.188   1.390   6.158
82223SOL    HW248567  14.182   1.530   6.216
82224SOL     OW48568   2.946   9.387   9.148
82224SOL    HW148569   3.040   9.399   9.162
82224SOL    HW248570   2.928   9.431   9.065
82225SOL     OW48571   3.823   5.158  10.911
82225SOL    HW148572   3.866   5.227  10.961
82225SOL    HW248573   3.887   5.133  10.844
82226SOL     OW48574   7.812  11.586   3.077
82226SOL    HW148575   7.732  11.610   3.030
82226SOL    HW248576   7.823  11.656   3.142
82227SOL     OW48577  13.105  13.952   9.814
82227SOL    HW148578  13.175  14.009   9.783
82227SOL    HW248579  13.029  13.975   9.761
82228SOL     OW48580   3.169   2.300  14.411
82228SOL    HW148581   3.178   2.206  14.397
82228SOL    HW248582   3.160   2.337  14.323
82229SOL     OW48583   2.162  12.849   6.022
82229SOL    HW148584   2.193  12.774   5.971
82229SOL    HW248585   2.081  12.818   6.064
82230SOL     OW48586   0.194   6.021   6.952
82230SOL    HW148587   0.211   5.971   7.032
82230SOL    HW248588   0.161   5.956   6.890
82231SOL     OW48589   3.361   9.203   2.527
82231SOL    HW148590   3.319   9.258   2.461
82231SOL    HW248591   3.338   9.114   2.501
82232SOL     OW48592   3.831  10.920   0.116
82232SOL    HW148593   3.852  11.012   0.099
82232SOL    HW248594   3.887  10.896   0.190
82233SOL     OW48595   6.853  11.108   3.659
82233SOL    HW148596   6.857  11.164   3.736
82233SOL    HW248597   6.766  11.125   3.622
82234SOL     OW48598   6.786   2.664   2.386
82234SOL    HW148599   6.727   2.589   2.382
82234SOL    HW248600   6.796   2.692   2.295
82235SOL     OW48601  10.417   7.745  11.892
82235SOL    HW148602  10.508   7.724  11.914
82235SOL    HW248603  10.412   7.841  11.896
82236SOL     OW48604   7.165   7.433   1.388
82236SOL    HW148605   7.194   7.484   1.464
82236SOL    HW248606   7.246   7.399   1.350
82237SOL     OW48607   9.629  12.448   7.599
82237SOL    HW148608   9.616  12.355   7.617
82237SOL    HW248609   9.650  12.453   7.506
82238SOL     OW48610   1.001  11.082  10.324
82238SOL    HW148611   0.996  11.008  10.386
82238SOL    HW248612   0.918  11.128  10.336
82239SOL     OW48613   8.739   2.671   9.987
82239SOL    HW148614   8.803   2.697  10.053
82239SOL    HW248615   8.698   2.754   9.960
82240SOL     OW48616   3.517  13.769   7.430
82240SOL    HW148617   3.423  13.758   7.416
82240SOL    HW248618   3.552  13.680   7.433
82241SOL     OW48619   0.001   3.516  12.167
82241SOL    HW148620   0.067   3.470  12.114
82241SOL    HW248621   0.017   3.485  12.256
82242SOL     OW48622  11.045   3.089   9.005
82242SOL    HW148623  10.986   3.163   9.019
82242SOL    HW248624  10.995   3.013   9.037
82243SOL     OW48625  12.216   8.797   2.940
82243SOL    HW148626  12.154   8.723   2.938
82243SOL    HW248627  12.255   8.792   3.028
82244SOL     OW48628  10.998   7.520   7.427
82244SOL    HW148629  11.083   7.531   7.471
82244SOL    HW248630  11.015   7.544   7.336
82245SOL     OW48631   6.006  10.434   5.616
82245SOL    HW148632   6.044  10.511   5.573
82245SOL    HW248633   5.997  10.370   5.546
82246SOL     OW48634  11.098   3.217  11.290
82246SOL    HW148635  11.075   3.124  11.290
82246SOL    HW248636  11.110   3.239  11.197
82247SOL     OW48637   8.253   6.455   9.644
82247SOL    HW148638   8.174   6.472   9.695
82247SOL    HW248639   8.225   6.460   9.553
82248SOL     OW48640  10.977   0.512   5.502
82248SOL    HW148641  11.005   0.492   5.591
82248SOL    HW248642  10.953   0.427   5.465
82249SOL     OW48643   4.767  14.629   5.050
82249SOL    HW148644   4.695  14.647   5.110
82249SOL    HW248645   4.736  14.657   4.964
82250SOL     OW48646   7.848   7.247  12.029
82250SOL    HW148647   7.938   7.219  12.045
82250SOL    HW248648   7.809   7.174  11.980
82251SOL     OW48649   1.127  13.714   3.394
82251SOL    HW148650   1.103  13.740   3.305
82251SOL    HW248651   1.158  13.795   3.435
82252SOL     OW48652   3.053  11.923   2.987
82252SOL    HW148653   3.006  11.872   3.052
82252SOL    HW248654   3.007  11.904   2.905
82253SOL     OW48655   6.395   2.726   0.549
82253SOL    HW148656   6.464   2.761   0.605
82253SOL    HW248657   6.320   2.783   0.563
82254SOL     OW48658   4.018  12.248   5.100
82254SOL    HW148659   3.938  12.282   5.139
82254SOL    HW248660   3.989  12.201   5.022
82255SOL     OW48661   2.145   3.531   7.888
82255SOL    HW148662   2.217   3.586   7.858
82255SOL    HW248663   2.188   3.454   7.927
82256SOL     OW48664   1.029   5.969   3.885
82256SOL    HW148665   1.042   6.058   3.916
82256SOL    HW248666   0.966   5.931   3.946
82257SOL     OW48667  14.037   3.491  10.076
82257SOL    HW148668  14.083   3.468   9.995
82257SOL    HW248669  14.070   3.578  10.099
82258SOL     OW48670   4.000   3.160  14.822
82258SOL    HW148671   4.080   3.113  14.845
82258SOL    HW248672   3.935   3.091  14.806
82259SOL     OW48673   6.554   2.631   5.932
82259SOL    HW148674   6.635   2.681   5.939
82259SOL    HW248675   6.569   2.553   5.985
82260SOL     OW48676  10.458   6.764   5.188
82260SOL    HW148677  10.367   6.781   5.215
82260SOL    HW248678  10.477   6.677   5.221
82261SOL     OW48679  14.707   1.638   1.404
82261SOL    HW148680  14.674   1.625   1.492
82261SOL    HW248681  14.776   1.572   1.394
82262SOL     OW48682  13.662   5.596  11.574
82262SOL    HW148683  13.624   5.588  11.486
82262SOL    HW248684  13.739   5.651  11.562
82263SOL     OW48685  10.724   6.839   2.606
82263SOL    HW148686  10.792   6.778   2.578
82263SOL    HW248687  10.643   6.805   2.566
82264SOL     OW48688   3.317   9.353  13.045
82264SOL    HW148689   3.292   9.303  13.123
82264SOL    HW248690   3.406   9.322  13.025
82265SOL     OW48691   6.061  13.130   6.538
82265SOL    HW148692   6.019  13.116   6.623
82265SOL    HW248693   6.005  13.193   6.494
82266SOL     OW48694   4.939  11.200   0.344
82266SOL    HW148695   4.868  11.150   0.305
82266SOL    HW248696   4.915  11.291   0.329
82267SOL     OW48697   5.540  13.660  10.128
82267SOL    HW148698   5.473  13.705  10.077
82267SOL    HW248699   5.570  13.589  10.071
82268SOL     OW48700   7.466   3.652   6.145
82268SOL    HW148701   7.477   3.572   6.197
82268SOL    HW248702   7.514   3.634   6.063
82269SOL     OW48703   1.587   7.595  13.119
82269SOL    HW148704   1.573   7.641  13.202
82269SOL    HW248705   1.539   7.513  13.128
82270SOL     OW48706   1.705   3.413   9.357
82270SOL    HW148707   1.756   3.441   9.433
82270SOL    HW248708   1.707   3.318   9.360
82271SOL     OW48709  13.747   2.713   0.128
82271SOL    HW148710  13.750   2.768   0.206
82271SOL    HW248711  13.755   2.623   0.162
82272SOL     OW48712  10.313   3.348  13.135
82272SOL    HW148713  10.240   3.402  13.107
82272SOL    HW248714  10.299   3.337  13.230
82273SOL     OW48715  13.066   9.472  13.199
82273SOL    HW148716  13.106   9.543  13.249
82273SOL    HW248717  13.099   9.392  13.239
82274SOL     OW48718   2.784   5.630   7.713
82274SOL    HW148719   2.755   5.539   7.722
82274SOL    HW248720   2.847   5.643   7.783
82275SOL     OW48721   0.693   0.313   2.314
82275SOL    HW148722   0.629   0.377   2.283
82275SOL    HW248723   0.662   0.229   2.282
82276SOL     OW48724   3.513  13.270   2.564
82276SOL    HW148725   3.455  13.203   2.602
82276SOL    HW248726   3.478  13.286   2.477
82277SOL     OW48727   6.181   2.245   3.477
82277SOL    HW148728   6.200   2.339   3.478
82277SOL    HW248729   6.085   2.240   3.479
82278SOL     OW48730   6.430   6.738  13.748
82278SOL    HW148731   6.362   6.796  13.782
82278SOL    HW248732   6.404   6.722  13.657
82279SOL     OW48733   6.795   1.239  11.176
82279SOL    HW148734   6.706   1.217  11.204
82279SOL    HW248735   6.799   1.334  11.182
82280SOL     OW48736   1.933  14.437   8.058
82280SOL    HW148737   1.955  14.354   8.101
82280SOL    HW248738   1.849  14.420   8.015
82281SOL     OW48739  10.694  12.691  12.634
82281SOL    HW148740  10.783  12.723  12.623
82281SOL    HW248741  10.665  12.727  12.718
82282SOL     OW48742   0.854   1.132  14.010
82282SOL    HW148743   0.923   1.095  14.065
82282SOL    HW248744   0.829   1.061  13.951
82283SOL     OW48745   5.131  14.606   3.437
82283SOL    HW148746   5.079  14.651   3.371
82283SOL    HW248747   5.192  14.553   3.386
82284SOL     OW48748  14.595   5.554  11.207
82284SOL    HW148749  14.643   5.538  11.289
82284SOL    HW248750  14.528   5.486  11.205
82285SOL     OW48751   2.562  10.400  10.798
82285SOL    HW148752   2.622  10.409  10.872
82285SOL    HW248753   2.538  10.490  10.774
82286SOL     OW48754   9.305   6.078  14.853
82286SOL    HW148755   9.254   5.999  14.834
82286SOL    HW248756   9.368   6.084  14.781
82287SOL     OW48757   2.731  12.909  13.117
82287SOL    HW148758   2.656  12.850  13.119
82287SOL    HW248759   2.732  12.950  13.203
82288SOL     OW48760   2.021  14.416   6.638
82288SOL    HW148761   2.059  14.465   6.711
82288SOL    HW248762   1.997  14.332   6.675
82289SOL     OW48763   2.606   5.872   0.798
82289SOL    HW148764   2.610   5.875   0.703
82289SOL    HW248765   2.611   5.964   0.825
82290SOL     OW48766   5.444  10.191  14.653
82290SOL    HW148767   5.489  10.271  14.681
82290SOL    HW248768   5.490  10.121  14.698
82291SOL     OW48769   9.633   2.146  11.818
82291SOL    HW148770   9.563   2.110  11.764
82291SOL    HW248771   9.711   2.096  11.793
82292SOL     OW48772   8.558   8.395   7.142
82292SOL    HW148773   8.640   8.381   7.188
82292SOL    HW248774   8.491   8.396   7.211
82293SOL     OW48775   0.323  11.458   2.572
82293SOL    HW148776   0.351  11.548   2.554
82293SOL    HW248777   0.343  11.446   2.665
82294SOL     OW48778   1.707   2.373  11.300
82294SOL    HW148779   1.618   2.344  11.280
82294SOL    HW248780   1.747   2.298  11.344
82295SOL     OW48781  10.369  10.701   7.870
82295SOL    HW148782  10.408  10.779   7.829
82295SOL    HW248783  10.275  10.710   7.853
82296SOL     OW48784   5.753   4.312   1.654
82296SOL    HW148785   5.755   4.217   1.666
82296SOL    HW248786   5.787   4.347   1.736
82297SOL     OW48787  13.376   4.666   0.494
82297SOL    HW148788  13.323   4.710   0.560
82297SOL    HW248789  13.377   4.725   0.419
82298SOL     OW48790   8.274   4.531   0.175
82298SOL    HW148791   8.294   4.520   0.268
82298SOL    HW248792   8.180   4.552   0.173
82299SOL     OW48793  13.574   1.548   2.987
82299SOL    HW148794  13.488   1.566   2.948
82299SOL    HW248795  13.630   1.524   2.913
82300SOL     OW48796  12.372   8.116   2.561
82300SOL    HW148797  12.282   8.090   2.546
82300SOL    HW248798  12.385   8.108   2.655
82301SOL     OW48799  14.652  13.646  11.056
82301SOL    HW148800  14.620  13.576  11.112
82301SOL    HW248801  14.741  13.619  11.032
82302SOL     OW48802   4.122  14.295   6.780
82302SOL    HW148803   4.217  14.301   6.771
82302SOL    HW248804   4.099  14.366   6.841
82303SOL     OW48805  13.605  12.221  13.343
82303SOL    HW148806  13.601  12.142  13.397
82303SOL    HW248807  13.628  12.291  13.405
82304SOL     OW48808   1.777  11.732  11.649
82304SOL    HW148809   1.698  11.769  11.608
82304SOL    HW248810   1.753  11.720  11.741
82305SOL     OW48811  12.623   6.910   1.636
82305SOL    HW148812  12.532   6.929   1.611
82305SOL    HW248813  12.674   6.928   1.558
82306SOL     OW48814   3.425   5.431  12.942
82306SOL    HW148815   3.504   5.396  12.984
82306SOL    HW248816   3.439   5.526  12.941
82307SOL     OW48817   0.733   4.031  12.776
82307SOL    HW148818   0.731   4.125  12.798
82307SOL    HW248819   0.719   4.028  12.682
82308SOL     OW48820   7.174   7.857  12.237
82308SOL    HW148821   7.246   7.853  12.301
82308SOL    HW248822   7.145   7.948  12.239
82309SOL     OW48823   9.448   8.506   7.403
82309SOL    HW148824   9.453   8.509   7.499
82309SOL    HW248825   9.520   8.450   7.377
82310SOL     OW48826   4.682  12.968   5.051
82310SOL    HW148827   4.604  12.936   5.097
82310SOL    HW248828   4.685  13.062   5.070
82311SOL     OW48829  10.670  12.972   0.799
82311SOL    HW148830  10.675  12.937   0.888
82311SOL    HW248831  10.749  13.024   0.789
82312SOL     OW48832  12.758   0.299   0.697
82312SOL    HW148833  12.784   0.376   0.748
82312SOL    HW248834  12.838   0.273   0.651
82313SOL     OW48835   5.139   0.670   2.647
82313SOL    HW148836   5.083   0.683   2.723
82313SOL    HW248837   5.082   0.628   2.582
82314SOL     OW48838   5.181   9.051   9.548
82314SOL    HW148839   5.259   9.007   9.515
82314SOL    HW248840   5.110   8.990   9.529
82315SOL     OW48841   6.272  12.112   3.962
82315SOL    HW148842   6.191  12.143   3.921
82315SOL    HW248843   6.247  12.030   4.004
82316SOL     OW48844   4.194   9.037   0.196
82316SOL    HW148845   4.251   8.960   0.204
82316SOL    HW248846   4.184   9.068   0.286
82317SOL     OW48847   3.776   6.078   9.406
82317SOL    HW148848   3.863   6.056   9.372
82317SOL    HW248849   3.721   6.082   9.328
82318SOL     OW48850   4.425  11.358   3.921
82318SOL    HW148851   4.495  11.353   3.986
82318SOL    HW248852   4.414  11.268   3.890
82319SOL     OW48853   0.855   7.621   1.120
82319SOL    HW148854   0.914   7.591   1.051
82319SOL    HW248855   0.770   7.584   1.098
82320SOL     OW48856  10.867  10.607  11.133
82320SOL    HW148857  10.955  10.625  11.100
82320SOL    HW248858  10.812  10.675  11.093
82321SOL     OW48859  13.201   6.854  10.366
82321SOL    HW148860  13.119   6.900  10.383
82321SOL    HW248861  13.269   6.908  10.407
82322SOL     OW48862   0.204   8.993   8.499
82322SOL    HW148863   0.283   9.044   8.477
82322SOL    HW248864   0.238   8.909   8.530
82323SOL     OW48865   7.903   7.826   9.101
82323SOL    HW148866   7.936   7.859   9.185
82323SOL    HW248867   7.836   7.890   9.075
82324SOL     OW48868   8.719   7.470  11.031
82324SOL    HW148869   8.748   7.559  11.010
82324SOL    HW248870   8.732   7.421  10.949
82325SOL     OW48871   0.264   5.430   6.640
82325SOL    HW148872   0.235   5.485   6.567
82325SOL    HW248873   0.324   5.367   6.601
82326SOL     OW48874   3.082  12.421   8.569
82326SOL    HW148875   3.016  12.432   8.501
82326SOL    HW248876   3.138  12.498   8.561
82327SOL     OW48877   8.197  11.938   8.892
82327SOL    HW148878   8.191  11.949   8.987
82327SOL    HW248879   8.193  11.843   8.879
82328SOL     OW48880   7.465  12.507  11.662
82328SOL    HW148881   7.387  12.456  11.638
82328SOL    HW248882   7.467  12.580  11.600
82329SOL     OW48883   1.956   8.662  10.438
82329SOL    HW148884   1.971   8.746  10.480
82329SOL    HW248885   1.939   8.601  10.510
82330SOL     OW48886   5.965   3.976  13.795
82330SOL    HW148887   5.996   3.981  13.886
82330SOL    HW248888   6.045   3.973  13.743
82331SOL     OW48889   2.835   2.710  10.005
82331SOL    HW148890   2.814   2.619   9.981
82331SOL    HW248891   2.891   2.702  10.082
82332SOL     OW48892   5.493   6.915   8.646
82332SOL    HW148893   5.541   6.836   8.618
82332SOL    HW248894   5.560   6.983   8.649
82333SOL     OW48895  12.266  11.085  11.671
82333SOL    HW148896  12.241  11.172  11.638
82333SOL    HW248897  12.220  11.076  11.754
82334SOL     OW48898   0.627   5.757   6.873
82334SOL    HW148899   0.634   5.698   6.798
82334SOL    HW248900   0.690   5.723   6.937
82335SOL     OW48901  12.253   4.930   0.531
82335SOL    HW148902  12.274   4.946   0.623
82335SOL    HW248903  12.170   4.883   0.533
82336SOL     OW48904   1.945   7.792   3.653
82336SOL    HW148905   2.036   7.820   3.667
82336SOL    HW248906   1.895   7.842   3.717
82337SOL     OW48907  14.392   6.633   3.387
82337SOL    HW148908  14.430   6.609   3.471
82337SOL    HW248909  14.378   6.550   3.342
82338SOL     OW48910   2.157  14.548   8.825
82338SOL    HW148911   2.063  14.543   8.806
82338SOL    HW248912   2.183  14.635   8.795
82339SOL     OW48913   5.316   3.282   7.792
82339SOL    HW148914   5.281   3.350   7.734
82339SOL    HW248915   5.363   3.330   7.860
82340SOL     OW48916  10.251   1.314   4.224
82340SOL    HW148917  10.165   1.342   4.254
82340SOL    HW248918  10.278   1.382   4.162
82341SOL     OW48919   8.700   7.468   0.278
82341SOL    HW148920   8.781   7.508   0.248
82341SOL    HW248921   8.695   7.384   0.231
82342SOL     OW48922   2.020   0.528  10.376
82342SOL    HW148923   2.011   0.492  10.464
82342SOL    HW248924   1.952   0.596  10.371
82343SOL     OW48925   3.688   1.624   7.122
82343SOL    HW148926   3.639   1.685   7.178
82343SOL    HW248927   3.732   1.680   7.058
82344SOL     OW48928   2.835  11.780   8.830
82344SOL    HW148929   2.881  11.862   8.848
82344SOL    HW248930   2.793  11.756   8.913
82345SOL     OW48931   5.515  12.557   5.547
82345SOL    HW148932   5.434  12.583   5.505
82345SOL    HW248933   5.578  12.548   5.476
82346SOL     OW48934   6.816   8.160  10.795
82346SOL    HW148935   6.898   8.113  10.785
82346SOL    HW248936   6.766   8.109  10.858
82347SOL     OW48937  10.250   7.732  13.457
82347SOL    HW148938  10.165   7.774  13.453
82347SOL    HW248939  10.303   7.788  13.513
82348SOL     OW48940  12.383  11.846   8.495
82348SOL    HW148941  12.377  11.794   8.576
82348SOL    HW248942  12.307  11.904   8.499
82349SOL     OW48943   5.307  10.717   3.211
82349SOL    HW148944   5.359  10.762   3.278
82349SOL    HW248945   5.367  10.706   3.137
82350SOL     OW48946   5.348  13.775   6.630
82350SOL    HW148947   5.285  13.828   6.581
82350SOL    HW248948   5.385  13.836   6.694
82351SOL     OW48949   8.065  10.117   5.094
82351SOL    HW148950   7.996  10.162   5.143
82351SOL    HW248951   8.046  10.024   5.105
82352SOL     OW48952   3.596   3.894  12.933
82352SOL    HW148953   3.533   3.900  13.005
82352SOL    HW248954   3.558   3.948  12.864
82353SOL     OW48955  11.394  14.838   6.172
82353SOL    HW148956  11.441  14.849   6.254
82353SOL    HW248957  11.436   0.031   6.111
82354SOL     OW48958   3.334   4.807   4.426
82354SOL    HW148959   3.340   4.892   4.469
82354SOL    HW248960   3.249   4.772   4.454
82355SOL     OW48961   5.308   1.651  12.145
82355SOL    HW148962   5.369   1.658  12.219
82355SOL    HW248963   5.362   1.616  12.074
82356SOL     OW48964   8.424  12.202   3.033
82356SOL    HW148965   8.365  12.262   2.988
82356SOL    HW248966   8.365  12.143   3.081
82357SOL     OW48967   0.765  11.319   6.470
82357SOL    HW148968   0.839  11.377   6.451
82357SOL    HW248969   0.761  11.315   6.566
82358SOL     OW48970   0.942  11.059   6.307
82358SOL    HW148971   0.955  11.131   6.245
82358SOL    HW248972   0.912  11.102   6.387
82359SOL     OW48973   7.372  12.280   3.454
82359SOL    HW148974   7.365  12.219   3.526
82359SOL    HW248975   7.302  12.255   3.394
82360SOL     OW48976   6.148  11.035   2.583
82360SOL    HW148977   6.237  11.037   2.546
82360SOL    HW248978   6.094  11.076   2.516
82361SOL     OW48979  13.242   3.183   9.342
82361SOL    HW148980  13.274   3.273   9.344
82361SOL    HW248981  13.175   3.179   9.410
82362SOL     OW48982  12.115   7.744   2.611
82362SOL    HW148983  12.065   7.705   2.683
82362SOL    HW248984  12.122   7.675   2.546
82363SOL     OW48985   9.972   5.589   7.130
82363SOL    HW148986   9.965   5.525   7.201
82363SOL    HW248987  10.042   5.555   7.074
82364SOL     OW48988   4.240   0.676  13.430
82364SOL    HW148989   4.160   0.726  13.447
82364SOL    HW248990   4.223   0.590  13.470
82365SOL     OW48991  14.536   3.217   0.840
82365SOL    HW148992  14.502   3.159   0.772
82365SOL    HW248993  14.471   3.287   0.846
82366SOL     OW48994  13.477  13.057   7.215
82366SOL    HW148995  13.522  12.982   7.254
82366SOL    HW248996  13.431  13.022   7.139
82367SOL     OW48997   2.106  12.993   4.103
82367SOL    HW148998   2.122  13.063   4.167
82367SOL    HW248999   2.031  13.024   4.052
82368SOL     OW49000  12.178  12.378   8.374
82368SOL    HW149001  12.225  12.459   8.355
82368SOL    HW249002  12.237  12.328   8.430
82369SOL     OW49003   9.163   6.655   1.894
82369SOL    HW149004   9.164   6.560   1.894
82369SOL    HW249005   9.115   6.678   1.974
82370SOL     OW49006   5.474   0.114  11.445
82370SOL    HW149007   5.566   0.088  11.451
82370SOL    HW249008   5.435   0.050  11.386
82371SOL     OW49009   6.875  14.196  10.711
82371SOL    HW149010   6.943  14.135  10.683
82371SOL    HW249011   6.794  14.145  10.705
82372SOL     OW49012  12.026   3.031   7.580
82372SOL    HW149013  12.040   2.949   7.628
82372SOL    HW249014  11.980   3.087   7.643
82373SOL     OW49015   3.321   5.655   1.015
82373SOL    HW149016   3.279   5.647   0.929
82373SOL    HW249017   3.283   5.734   1.053
82374SOL     OW49018  14.773   9.540   3.170
82374SOL    HW149019  14.799   9.535   3.262
82374SOL    HW249020  14.758   9.449   3.144
82375SOL     OW49021  12.517   1.029   7.433
82375SOL    HW149022  12.430   1.062   7.456
82375SOL    HW249023  12.537   1.070   7.349
82376SOL     OW49024   0.822   5.292   3.217
82376SOL    HW149025   0.742   5.242   3.234
82376SOL    HW249026   0.888   5.225   3.197
82377SOL     OW49027   9.269   8.551   2.419
82377SOL    HW149028   9.334   8.617   2.398
82377SOL    HW249029   9.192   8.600   2.447
82378SOL     OW49030   5.032  14.330   4.070
82378SOL    HW149031   4.948  14.296   4.099
82378SOL    HW249032   5.027  14.327   3.974
82379SOL     OW49033  12.560  11.110   0.928
82379SOL    HW149034  12.624  11.177   0.951
82379SOL    HW249035  12.524  11.140   0.844
82380SOL     OW49036  10.192  11.026   9.926
82380SOL    HW149037  10.145  11.091   9.873
82380SOL    HW249038  10.182  10.944   9.877
82381SOL     OW49039   8.872   0.456  12.476
82381SOL    HW149040   8.900   0.374  12.435
82381SOL    HW249041   8.846   0.511  12.402
82382SOL     OW49042   6.164   1.227   5.219
82382SOL    HW149043   6.214   1.293   5.268
82382SOL    HW249044   6.093   1.202   5.278
82383SOL     OW49045  14.564   9.324   6.634
82383SOL    HW149046  14.483   9.308   6.585
82383SOL    HW249047  14.613   9.242   6.627
82384SOL     OW49048   8.686  13.786   6.991
82384SOL    HW149049   8.679  13.768   7.085
82384SOL    HW249050   8.664  13.702   6.949
82385SOL     OW49051   7.062   1.290   8.920
82385SOL    HW149052   7.010   1.299   9.000
82385SOL    HW249053   7.083   1.380   8.895
82386SOL     OW49054   0.570   1.838   8.732
82386SOL    HW149055   0.645   1.808   8.681
82386SOL    HW249056   0.591   1.816   8.823
82387SOL     OW49057   4.257   5.527   1.508
82387SOL    HW149058   4.277   5.598   1.568
82387SOL    HW249059   4.330   5.526   1.446
82388SOL     OW49060  14.523   7.570  11.754
82388SOL    HW149061  14.433   7.566  11.720
82388SOL    HW249062  14.523   7.647  11.811
82389SOL     OW49063  10.314   6.348   0.927
82389SOL    HW149064  10.390   6.360   0.870
82389SOL    HW249065  10.339   6.276   0.985
82390SOL     OW49066  10.821  13.261   5.475
82390SOL    HW149067  10.745  13.261   5.533
82390SOL    HW249068  10.890  13.220   5.526
82391SOL     OW49069  14.381   9.835  10.054
82391SOL    HW149070  14.475   9.821  10.045
82391SOL    HW249071  14.351   9.763  10.109
82392SOL     OW49072   4.611   5.711   7.894
82392SOL    HW149073   4.666   5.706   7.972
82392SOL    HW249074   4.565   5.795   7.903
82393SOL     OW49075  11.592   8.726   0.908
82393SOL    HW149076  11.577   8.632   0.904
82393SOL    HW249077  11.685   8.736   0.888
82394SOL     OW49078   3.578  14.276   7.336
82394SOL    HW149079   3.658  14.314   7.300
82394SOL    HW249080   3.507  14.330   7.301
82395SOL     OW49081   7.113  10.012  10.116
82395SOL    HW149082   7.200   9.993  10.152
82395SOL    HW249083   7.053   9.982  10.184
82396SOL     OW49084   0.730   2.046  14.073
82396SOL    HW149085   0.722   2.037  13.978
82396SOL    HW249086   0.812   2.002  14.094
82397SOL     OW49087   3.284   3.187   7.166
82397SOL    HW149088   3.354   3.251   7.156
82397SOL    HW249089   3.203   3.238   7.155
82398SOL     OW49090  11.815   0.685   9.723
82398SOL    HW149091  11.764   0.659   9.799
82398SOL    HW249092  11.758   0.667   9.648
82399SOL     OW49093   1.680  14.795   8.538
82399SOL    HW149094   1.741  14.742   8.488
82399SOL    HW249095   1.735  14.844   8.599
82400SOL     OW49096   7.207   8.752   1.191
82400SOL    HW149097   7.245   8.751   1.279
82400SOL    HW249098   7.182   8.844   1.178
82401SOL     OW49099  13.111  11.852   1.251
82401SOL    HW149100  13.084  11.807   1.331
82401SOL    HW249101  13.114  11.783   1.185
82402SOL     OW49102  11.228  11.016   7.481
82402SOL    HW149103  11.268  11.093   7.522
82402SOL    HW249104  11.245  11.026   7.388
82403SOL     OW49105   6.641  14.249   8.478
82403SOL    HW149106   6.545  14.256   8.479
82403SOL    HW249107   6.658  14.157   8.457
82404SOL     OW49108   5.932   9.751   5.427
82404SOL    HW149109   5.892   9.798   5.354
82404SOL    HW249110   5.987   9.817   5.470
82405SOL     OW49111   0.381   9.637   0.821
82405SOL    HW149112   0.360   9.680   0.904
82405SOL    HW249113   0.302   9.589   0.798
82406SOL     OW49114  12.497  14.404   1.341
82406SOL    HW149115  12.538  14.480   1.301
82406SOL    HW249116  12.456  14.357   1.269
82407SOL     OW49117   6.098  12.061  13.765
82407SOL    HW149118   6.088  11.987  13.825
82407SOL    HW249119   6.162  12.032  13.701
82408SOL     OW49120   9.848  13.862   2.744
82408SOL    HW149121   9.941  13.845   2.757
82408SOL    HW249122   9.829  13.936   2.803
82409SOL     OW49123   4.873  11.070  10.724
82409SOL    HW149124   4.867  11.166  10.720
82409SOL    HW249125   4.809  11.045  10.790
82410SOL     OW49126  11.579   0.019   4.814
82410SOL    HW149127  11.552  14.814   4.869
82410SOL    HW249128  11.662   0.047   4.850
82411SOL     OW49129   9.516   0.140   6.422
82411SOL    HW149130   9.465   0.147   6.502
82411SOL    HW249131   9.588   0.202   6.434
82412SOL     OW49132  14.240  12.093   6.560
82412SOL    HW149133  14.301  12.126   6.626
82412SOL    HW249134  14.228  12.001   6.583
82413SOL     OW49135   3.201   5.878   6.209
82413SOL    HW149136   3.282   5.848   6.250
82413SOL    HW249137   3.215   5.971   6.194
82414SOL     OW49138   9.947   5.275   4.880
82414SOL    HW149139   9.984   5.284   4.968
82414SOL    HW249140  10.002   5.209   4.838
82415SOL     OW49141   5.452   9.721   1.119
82415SOL    HW149142   5.504   9.658   1.070
82415SOL    HW249143   5.442   9.682   1.206
82416SOL     OW49144  13.367   1.962  11.193
82416SOL    HW149145  13.455   1.995  11.174
82416SOL    HW249146  13.333   1.934  11.108
82417SOL     OW49147   8.520  13.000   7.043
82417SOL    HW149148   8.566  13.084   7.038
82417SOL    HW249149   8.567  12.951   7.111
82418SOL     OW49150   3.886   4.073   6.976
82418SOL    HW149151   3.977   4.100   6.986
82418SOL    HW249152   3.840   4.152   6.951
82419SOL     OW49153   1.295  14.735   2.585
82419SOL    HW149154   1.307  14.653   2.633
82419SOL    HW249155   1.218  14.720   2.531
82420SOL     OW49156   3.189   4.838   3.144
82420SOL    HW149157   3.213   4.749   3.169
82420SOL    HW249158   3.140   4.827   3.062
82421SOL     OW49159  10.588   8.355   7.031
82421SOL    HW149160  10.653   8.306   6.980
82421SOL    HW249161  10.629   8.440   7.047
82422SOL     OW49162   6.177   2.759   9.919
82422SOL    HW149163   6.182   2.850   9.947
82422SOL    HW249164   6.189   2.763   9.824
82423SOL     OW49165  12.272  14.595   3.332
82423SOL    HW149166  12.295  14.546   3.411
82423SOL    HW249167  12.355  14.604   3.285
82424SOL     OW49168   6.497  13.648   6.946
82424SOL    HW149169   6.504  13.559   6.914
82424SOL    HW249170   6.529  13.644   7.036
82425SOL     OW49171   5.858  13.040   8.663
82425SOL    HW149172   5.803  12.961   8.661
82425SOL    HW249173   5.917  13.029   8.589
82426SOL     OW49174   1.258  11.266   9.625
82426SOL    HW149175   1.305  11.292   9.704
82426SOL    HW249176   1.316  11.204   9.582
82427SOL     OW49177  13.509   7.162   1.707
82427SOL    HW149178  13.493   7.189   1.616
82427SOL    HW249179  13.539   7.242   1.751
82428SOL     OW49180   1.964   2.593   3.910
82428SOL    HW149181   1.995   2.668   3.858
82428SOL    HW249182   1.905   2.546   3.852
82429SOL     OW49183   2.871   4.235  13.025
82429SOL    HW149184   2.827   4.222  13.108
82429SOL    HW249185   2.925   4.314  13.039
82430SOL     OW49186   9.391  13.185   3.492
82430SOL    HW149187   9.485  13.183   3.510
82430SOL    HW249188   9.373  13.099   3.453
82431SOL     OW49189   0.456  12.957   8.675
82431SOL    HW149190   0.441  12.870   8.712
82431SOL    HW249191   0.416  12.954   8.588
82432SOL     OW49192   0.884  14.074  14.541
82432SOL    HW149193   0.923  14.067  14.454
82432SOL    HW249194   0.912  14.159  14.574
82433SOL     OW49195   9.363   9.420  11.474
82433SOL    HW149196   9.338   9.409  11.382
82433SOL    HW249197   9.433   9.485  11.473
82434SOL     OW49198   3.390   5.374  12.593
82434SOL    HW149199   3.345   5.459  12.594
82434SOL    HW249200   3.461   5.384  12.656
82435SOL     OW49201   2.318   2.522   3.926
82435SOL    HW149202   2.378   2.588   3.960
82435SOL    HW249203   2.257   2.504   3.998
82436SOL     OW49204   0.915   7.166   1.732
82436SOL    HW149205   0.932   7.230   1.801
82436SOL    HW249206   0.882   7.089   1.778
82437SOL     OW49207   8.657   2.901  13.913
82437SOL    HW149208   8.668   2.925  13.821
82437SOL    HW249209   8.621   2.980  13.954
82438SOL     OW49210   8.185   7.111   9.406
82438SOL    HW149211   8.181   7.046   9.477
82438SOL    HW249212   8.128   7.182   9.435
82439SOL     OW49213   8.840   4.822   5.916
82439SOL    HW149214   8.857   4.809   5.823
82439SOL    HW249215   8.849   4.734   5.954
82440SOL     OW49216  12.705   4.114   3.644
82440SOL    HW149217  12.682   4.064   3.722
82440SOL    HW249218  12.798   4.095   3.629
82441SOL     OW49219  11.320   8.024   2.317
82441SOL    HW149220  11.233   8.000   2.284
82441SOL    HW249221  11.378   8.014   2.241
82442SOL     OW49222   2.733  10.450  14.328
82442SOL    HW149223   2.774  10.416  14.249
82442SOL    HW249224   2.774  10.535  14.342
82443SOL     OW49225   5.814   0.054   3.144
82443SOL    HW149226   5.778   0.081   3.228
82443SOL    HW249227   5.771  14.838   3.125
82444SOL     OW49228  11.726   5.804   1.628
82444SOL    HW149229  11.696   5.887   1.666
82444SOL    HW249230  11.704   5.811   1.535
82445SOL     OW49231   5.591  12.154  10.533
82445SOL    HW149232   5.588  12.234  10.584
82445SOL    HW249233   5.519  12.101  10.567
82446SOL     OW49234   9.162  11.953  13.857
82446SOL    HW149235   9.222  12.014  13.814
82446SOL    HW249236   9.118  12.006  13.923
82447SOL     OW49237   3.496   9.604  12.264
82447SOL    HW149238   3.400   9.592  12.266
82447SOL    HW249239   3.525   9.545  12.194
82448SOL     OW49240   1.144  14.150   3.255
82448SOL    HW149241   1.199  14.219   3.216
82448SOL    HW249242   1.122  14.093   3.181
82449SOL     OW49243   5.255   6.563   0.447
82449SOL    HW149244   5.172   6.515   0.448
82449SOL    HW249245   5.262   6.598   0.358
82450SOL     OW49246   0.717   5.158   5.387
82450SOL    HW149247   0.781   5.125   5.324
82450SOL    HW249248   0.659   5.214   5.335
82451SOL     OW49249   7.138   3.596  13.877
82451SOL    HW149250   7.121   3.647  13.797
82451SOL    HW249251   7.051   3.566  13.904
82452SOL     OW49252  11.446   3.074   9.570
82452SOL    HW149253  11.447   3.009   9.500
82452SOL    HW249254  11.458   3.023   9.650
82453SOL     OW49255   0.118   0.699   7.950
82453SOL    HW149256   0.108   0.770   7.887
82453SOL    HW249257   0.030   0.660   7.956
82454SOL     OW49258   9.655  13.117   9.844
82454SOL    HW149259   9.727  13.093   9.786
82454SOL    HW249260   9.697  13.162   9.917
82455SOL     OW49261   8.206   7.132  10.392
82455SOL    HW149262   8.222   7.043  10.360
82455SOL    HW249263   8.112   7.144  10.384
82456SOL     OW49264   5.274  10.438  11.256
82456SOL    HW149265   5.331  10.369  11.222
82456SOL    HW249266   5.186  10.400  11.255
82457SOL     OW49267  14.186   7.939  12.257
82457SOL    HW149268  14.249   7.893  12.313
82457SOL    HW249269  14.180   8.027  12.294
82458SOL     OW49270   7.072   6.171   5.132
82458SOL    HW149271   7.163   6.166   5.101
82458SOL    HW249272   7.064   6.261   5.165
82459SOL     OW49273   0.705   0.807  11.819
82459SOL    HW149274   0.652   0.863  11.876
82459SOL    HW249275   0.644   0.740  11.789
82460SOL     OW49276   4.981  13.046   7.417
82460SOL    HW149277   4.984  13.140   7.397
82460SOL    HW249278   4.909  13.037   7.480
82461SOL     OW49279   3.195   4.135   6.598
82461SOL    HW149280   3.159   4.173   6.517
82461SOL    HW249281   3.255   4.067   6.567
82462SOL     OW49282  14.814   8.364   0.675
82462SOL    HW149283  14.821   8.460   0.674
82462SOL    HW249284  14.766   8.345   0.756
82463SOL     OW49285  13.622   6.436  10.911
82463SOL    HW149286  13.707   6.404  10.882
82463SOL    HW249287  13.627   6.436  11.007
82464SOL     OW49288  14.369   5.773   5.857
82464SOL    HW149289  14.343   5.682   5.849
82464SOL    HW249290  14.344   5.812   5.773
82465SOL     OW49291   4.016   4.551  13.731
82465SOL    HW149292   4.015   4.458  13.751
82465SOL    HW249293   4.046   4.556  13.640
82466SOL     OW49294   4.075   7.520   7.004
82466SOL    HW149295   3.998   7.575   6.991
82466SOL    HW249296   4.081   7.468   6.924
82467SOL     OW49297   0.732  11.190  13.399
82467SOL    HW149298   0.753  11.162  13.310
82467SOL    HW249299   0.776  11.274  13.410
82468SOL     OW49300  11.181   3.567   1.559
82468SOL    HW149301  11.120   3.567   1.485
82468SOL    HW249302  11.264   3.595   1.522
82469SOL     OW49303  14.743  10.431  14.109
82469SOL    HW149304  14.813  10.372  14.080
82469SOL    HW249305  14.780  10.518  14.101
82470SOL     OW49306  10.196   9.450  11.608
82470SOL    HW149307  10.203   9.447  11.704
82470SOL    HW249308  10.164   9.538  11.590
82471SOL     OW49309   7.229   6.227  11.040
82471SOL    HW149310   7.268   6.293  11.098
82471SOL    HW249311   7.208   6.275  10.960
82472SOL     OW49312  14.772  14.125   4.650
82472SOL    HW149313  14.741  14.054   4.707
82472SOL    HW249314  14.692  14.155   4.605
82473SOL     OW49315   4.033  14.613   8.442
82473SOL    HW149316   3.981  14.624   8.362
82473SOL    HW249317   3.970  14.625   8.513
82474SOL     OW49318   8.780   5.231   5.352
82474SOL    HW149319   8.756   5.162   5.414
82474SOL    HW249320   8.861   5.200   5.312
82475SOL     OW49321   6.994  14.050  10.419
82475SOL    HW149322   6.999  14.024  10.511
82475SOL    HW249323   7.045  14.131  10.414
82476SOL     OW49324   5.225   5.318   7.022
82476SOL    HW149325   5.165   5.246   7.043
82476SOL    HW249326   5.167   5.393   7.005
82477SOL     OW49327  11.794   6.563   6.078
82477SOL    HW149328  11.741   6.509   6.136
82477SOL    HW249329  11.814   6.506   6.003
82478SOL     OW49330  11.301   1.688  11.125
82478SOL    HW149331  11.338   1.698  11.212
82478SOL    HW249332  11.376   1.692  11.066
82479SOL     OW49333  11.385   3.450  10.440
82479SOL    HW149334  11.455   3.502  10.479
82479SOL    HW249335  11.430   3.391  10.379
82480SOL     OW49336   6.010   6.131   1.074
82480SOL    HW149337   6.067   6.125   1.151
82480SOL    HW249338   6.048   6.202   1.023
82481SOL     OW49339   0.656  10.365   7.472
82481SOL    HW149340   0.572  10.320   7.481
82481SOL    HW249341   0.660  10.423   7.548
82482SOL     OW49342  11.880   3.025  12.092
82482SOL    HW149343  11.963   3.012  12.046
82482SOL    HW249344  11.896   2.995  12.181
82483SOL     OW49345   9.064   4.526   6.877
82483SOL    HW149346   9.028   4.463   6.814
82483SOL    HW249347   9.038   4.493   6.962
82484SOL     OW49348  14.035   5.286  10.770
82484SOL    HW149349  14.035   5.330  10.855
82484SOL    HW249350  14.071   5.199  10.788
82485SOL     OW49351   6.053  11.371  10.403
82485SOL    HW149352   6.109  11.378  10.481
82485SOL    HW249353   5.989  11.442  10.413
82486SOL     OW49354  14.226  10.440   7.876
82486SOL    HW149355  14.202  10.522   7.834
82486SOL    HW249356  14.321  10.447   7.891
82487SOL     OW49357   4.229   1.276   9.499
82487SOL    HW149358   4.153   1.274   9.557
82487SOL    HW249359   4.213   1.206   9.436
82488SOL     OW49360  12.480   2.542   1.414
82488SOL    HW149361  12.491   2.447   1.402
82488SOL    HW249362  12.391   2.559   1.383
82489SOL     OW49363  12.256  13.088  12.192
82489SOL    HW149364  12.301  13.014  12.152
82489SOL    HW249365  12.292  13.093  12.281
82490SOL     OW49366   0.994   8.794   4.188
82490SOL    HW149367   0.992   8.699   4.177
82490SOL    HW249368   1.012   8.808   4.281
82491SOL     OW49369  10.972   0.587  12.978
82491SOL    HW149370  11.027   0.609  13.054
82491SOL    HW249371  10.939   0.671  12.948
82492SOL     OW49372  13.706   7.386   5.685
82492SOL    HW149373  13.689   7.293   5.693
82492SOL    HW249374  13.620   7.427   5.694
82493SOL     OW49375   4.228   5.011   8.927
82493SOL    HW149376   4.212   5.081   8.990
82493SOL    HW249377   4.240   5.057   8.843
82494SOL     OW49378   5.226   1.310   4.489
82494SOL    HW149379   5.196   1.274   4.406
82494SOL    HW249380   5.314   1.344   4.470
82495SOL     OW49381   0.956  11.777   9.868
82495SOL    HW149382   0.912  11.806   9.948
82495SOL    HW249383   0.909  11.822   9.797
82496SOL     OW49384   0.132   2.186  10.627
82496SOL    HW149385   0.154   2.093  10.620
82496SOL    HW249386   0.211   2.225  10.664
82497SOL     OW49387   7.511   8.923  12.494
82497SOL    HW149388   7.450   8.899  12.424
82497SOL    HW249389   7.458   8.967  12.559
82498SOL     OW49390   1.014   9.339   1.041
82498SOL    HW149391   1.019   9.317   0.948
82498SOL    HW249392   1.074   9.412   1.052
82499SOL     OW49393   0.779   9.694   7.238
82499SOL    HW149394   0.801   9.706   7.146
82499SOL    HW249395   0.851   9.734   7.286
82500SOL     OW49396   3.512  10.940  10.113
82500SOL    HW149397   3.544  10.912  10.027
82500SOL    HW249398   3.419  10.918  10.111
82501SOL     OW49399   6.966  13.129   1.819
82501SOL    HW149400   7.018  13.139   1.898
82501SOL    HW249401   6.948  13.218   1.790
82502SOL     OW49402   3.854   0.697  14.407
82502SOL    HW149403   3.773   0.647  14.414
82502SOL    HW249404   3.825   0.785  14.383
82503SOL     OW49405   6.330   7.530  12.608
82503SOL    HW149406   6.235   7.523  12.619
82503SOL    HW249407   6.349   7.478  12.531
82504SOL     OW49408  12.955   7.433   3.292
82504SOL    HW149409  12.877   7.446   3.238
82504SOL    HW249410  12.992   7.520   3.303
82505SOL     OW49411   2.418   2.126   6.832
82505SOL    HW149412   2.458   2.043   6.809
82505SOL    HW249413   2.477   2.165   6.895
82506SOL     OW49414   5.218   8.930   5.841
82506SOL    HW149415   5.301   8.901   5.879
82506SOL    HW249416   5.187   8.999   5.901
82507SOL     OW49417  11.248  11.103   9.277
82507SOL    HW149418  11.248  11.007   9.266
82507SOL    HW249419  11.208  11.136   9.197
82508SOL     OW49420   3.458  12.056   7.855
82508SOL    HW149421   3.502  11.993   7.797
82508SOL    HW249422   3.442  12.007   7.936
82509SOL     OW49423   9.226  12.848  12.655
82509SOL    HW149424   9.183  12.928  12.625
82509SOL    HW249425   9.192  12.834  12.743
82510SOL     OW49426   0.688   5.000   2.399
82510SOL    HW149427   0.619   4.999   2.334
82510SOL    HW249428   0.709   5.093   2.411
82511SOL     OW49429  10.357  12.866   0.697
82511SOL    HW149430  10.439  12.881   0.649
82511SOL    HW249431  10.300  12.937   0.669
82512SOL     OW49432   1.185   1.946   0.982
82512SOL    HW149433   1.236   1.976   0.907
82512SOL    HW249434   1.239   1.969   1.058
82513SOL     OW49435   8.812   5.291   2.297
82513SOL    HW149436   8.872   5.249   2.359
82513SOL    HW249437   8.866   5.312   2.221
82514SOL     OW49438   1.634  10.429   4.430
82514SOL    HW149439   1.718  10.457   4.467
82514SOL    HW249440   1.586  10.395   4.506
82515SOL     OW49441  11.520   5.954   4.821
82515SOL    HW149442  11.507   5.979   4.730
82515SOL    HW249443  11.569   5.872   4.816
82516SOL     OW49444  13.596   9.592  10.140
82516SOL    HW149445  13.622   9.672  10.095
82516SOL    HW249446  13.502   9.583  10.123
82517SOL     OW49447   3.782  14.630   3.664
82517SOL    HW149448   3.816  14.546   3.696
82517SOL    HW249449   3.722  14.659   3.732
82518SOL     OW49450  13.606   3.945   4.055
82518SOL    HW149451  13.606   4.037   4.084
82518SOL    HW249452  13.523   3.936   4.009
82519SOL     OW49453  10.720   8.169   8.342
82519SOL    HW149454  10.629   8.147   8.361
82519SOL    HW249455  10.770   8.096   8.379
82520SOL     OW49456  11.127   1.438   1.323
82520SOL    HW149457  11.074   1.457   1.400
82520SOL    HW249458  11.121   1.518   1.270
82521SOL     OW49459  12.739   3.219   4.177
82521SOL    HW149460  12.704   3.192   4.262
82521SOL    HW249461  12.661   3.236   4.123
82522SOL     OW49462  14.225   9.545  11.027
82522SOL    HW149463  14.157   9.526  11.091
82522SOL    HW249464  14.233   9.465  10.975
82523SOL     OW49465   9.882  13.263  11.439
82523SOL    HW149466   9.921  13.178  11.459
82523SOL    HW249467   9.925  13.324  11.499
82524SOL     OW49468   1.065   4.314  11.472
82524SOL    HW149469   1.092   4.389  11.419
82524SOL    HW249470   1.126   4.311  11.545
82525SOL     OW49471   4.401   1.074   6.448
82525SOL    HW149472   4.424   1.047   6.359
82525SOL    HW249473   4.478   1.052   6.500
82526SOL     OW49474  10.395  12.769  14.725
82526SOL    HW149475  10.362  12.835  14.664
82526SOL    HW249476  10.402  12.814  14.809
82527SOL     OW49477  11.232   1.776  13.766
82527SOL    HW149478  11.193   1.701  13.811
82527SOL    HW249479  11.266   1.740  13.684
82528SOL     OW49480  10.384  12.145  13.581
82528SOL    HW149481  10.374  12.168  13.674
82528SOL    HW249482  10.336  12.213  13.534
82529SOL     OW49483  13.444  10.468  14.234
82529SOL    HW149484  13.481  10.383  14.210
82529SOL    HW249485  13.390  10.493  14.159
82530SOL     OW49486   4.772   9.556  14.288
82530SOL    HW149487   4.804   9.506  14.213
82530SOL    HW249488   4.788   9.647  14.264
82531SOL     OW49489   3.937   9.831  13.244
82531SOL    HW149490   4.009   9.776  13.214
82531SOL    HW249491   3.971   9.874  13.323
82532SOL     OW49492   3.648   3.219  14.795
82532SOL    HW149493   3.589   3.168  14.739
82532SOL    HW249494   3.728   3.168  14.799
82533SOL     OW49495   4.614  10.571   7.826
82533SOL    HW149496   4.520  10.558   7.835
82533SOL    HW249497   4.649  10.482   7.817
82534SOL     OW49498   5.141   4.270   5.958
82534SOL    HW149499   5.225   4.227   5.973
82534SOL    HW249500   5.146   4.302   5.867
82535SOL     OW49501  12.677   0.363   2.009
82535SOL    HW149502  12.766   0.327   2.008
82535SOL    HW249503  12.657   0.380   1.917
82536SOL     OW49504   1.991   8.346   2.465
82536SOL    HW149505   1.897   8.358   2.478
82536SOL    HW249506   2.030   8.380   2.545
82537SOL     OW49507   1.009  12.794   0.695
82537SOL    HW149508   0.930  12.845   0.713
82537SOL    HW249509   1.051  12.783   0.780
82538SOL     OW49510   8.703   4.624   2.698
82538SOL    HW149511   8.629   4.672   2.735
82538SOL    HW249512   8.681   4.612   2.606
82539SOL     OW49513   4.803   2.088  13.915
82539SOL    HW149514   4.871   2.137  13.961
82539SOL    HW249515   4.829   1.996  13.925
82540SOL     OW49516   2.441   6.447   0.372
82540SOL    HW149517   2.486   6.524   0.408
82540SOL    HW249518   2.365   6.435   0.429
82541SOL     OW49519   0.012   6.705  11.047
82541SOL    HW149520   0.071   6.780  11.060
82541SOL    HW249521   0.039   6.668  10.963
82542SOL     OW49522   9.200  10.545   1.434
82542SOL    HW149523   9.239  10.579   1.514
82542SOL    HW249524   9.227  10.607   1.366
82543SOL     OW49525  10.233   9.905   9.498
82543SOL    HW149526  10.154   9.957   9.480
82543SOL    HW249527  10.203   9.835   9.557
82544SOL     OW49528   8.150   6.887   1.843
82544SOL    HW149529   8.221   6.939   1.805
82544SOL    HW249530   8.077   6.948   1.850
82545SOL     OW49531   9.340   5.134  11.386
82545SOL    HW149532   9.299   5.163  11.467
82545SOL    HW249533   9.423   5.182  11.382
82546SOL     OW49534   8.552  11.293   5.461
82546SOL    HW149535   8.480  11.230   5.455
82546SOL    HW249536   8.592  11.293   5.374
82547SOL     OW49537   1.756  12.234   2.260
82547SOL    HW149538   1.710  12.204   2.339
82547SOL    HW249539   1.703  12.305   2.226
82548SOL     OW49540   2.683  12.306  11.041
82548SOL    HW149541   2.589  12.296  11.059
82548SOL    HW249542   2.722  12.223  11.070
82549SOL     OW49543   9.065   1.132   3.340
82549SOL    HW149544   8.994   1.194   3.324
82549SOL    HW249545   9.038   1.084   3.418
82550SOL     OW49546   9.273   5.842   8.119
82550SOL    HW149547   9.265   5.829   8.025
82550SOL    HW249548   9.188   5.815   8.154
82551SOL     OW49549   3.978   8.006   1.512
82551SOL    HW149550   3.884   8.001   1.494
82551SOL    HW249551   3.984   8.023   1.606
82552SOL     OW49552   6.001  13.313  10.347
82552SOL    HW149553   5.917  13.356  10.361
82552SOL    HW249554   5.994  13.272  10.261
82553SOL     OW49555   0.397   2.041   7.848
82553SOL    HW149556   0.346   1.978   7.900
82553SOL    HW249557   0.438   1.988   7.780
82554SOL     OW49558   0.248  14.466  13.185
82554SOL    HW149559   0.322  14.426  13.230
82554SOL    HW249560   0.252  14.558  13.210
82555SOL     OW49561   6.001   0.767   8.690
82555SOL    HW149562   6.052   0.777   8.609
82555SOL    HW249563   6.032   0.838   8.746
82556SOL     OW49564  11.158   0.279   9.646
82556SOL    HW149565  11.065   0.292   9.662
82556SOL    HW249566  11.167   0.286   9.551
82557SOL     OW49567   0.822   0.286   6.853
82557SOL    HW149568   0.730   0.274   6.874
82557SOL    HW249569   0.825   0.297   6.758
82558SOL     OW49570  12.887   5.782   7.066
82558SOL    HW149571  12.847   5.759   6.982
82558SOL    HW249572  12.921   5.700   7.100
82559SOL     OW49573  10.632  13.278  13.423
82559SOL    HW149574  10.563  13.211  13.419
82559SOL    HW249575  10.627  13.323  13.339
82560SOL     OW49576  10.731   9.862   7.747
82560SOL    HW149577  10.808   9.858   7.690
82560SOL    HW249578  10.713   9.956   7.757
82561SOL     OW49579  13.591   1.409  14.597
82561SOL    HW149580  13.501   1.410  14.629
82561SOL    HW249581  13.633   1.337  14.645
82562SOL     OW49582   7.485   9.246   6.828
82562SOL    HW149583   7.505   9.252   6.921
82562SOL    HW249584   7.392   9.221   6.826
82563SOL     OW49585   7.667   4.511   7.326
82563SOL    HW149586   7.664   4.428   7.374
82563SOL    HW249587   7.713   4.490   7.245
82564SOL     OW49588  13.614   8.196   8.809
82564SOL    HW149589  13.646   8.113   8.773
82564SOL    HW249590  13.650   8.198   8.898
82565SOL     OW49591  14.234   8.579  14.774
82565SOL    HW149592  14.290   8.579  14.852
82565SOL    HW249593  14.147   8.556  14.808
82566SOL     OW49594   4.433  12.352   4.946
82566SOL    HW149595   4.378  12.327   5.020
82566SOL    HW249596   4.500  12.409   4.983
82567SOL     OW49597   1.128  14.529   6.261
82567SOL    HW149598   1.223  14.519   6.258
82567SOL    HW249599   1.100  14.473   6.333
82568SOL     OW49600  11.075   2.920   1.493
82568SOL    HW149601  11.065   2.825   1.482
82568SOL    HW249602  10.985   2.952   1.499
82569SOL     OW49603  12.190   7.490  11.480
82569SOL    HW149604  12.109   7.445  11.504
82569SOL    HW249605  12.210   7.459  11.392
82570SOL     OW49606  11.903   9.686   2.717
82570SOL    HW149607  11.812   9.702   2.741
82570SOL    HW249608  11.899   9.622   2.646
82571SOL     OW49609  11.861   5.973   9.470
82571SOL    HW149610  11.884   5.911   9.401
82571SOL    HW249611  11.772   6.002   9.447
82572SOL     OW49612   2.825   6.583   3.807
82572SOL    HW149613   2.784   6.624   3.731
82572SOL    HW249614   2.915   6.616   3.805
82573SOL     OW49615   7.844  10.859   3.581
82573SOL    HW149616   7.749  10.856   3.586
82573SOL    HW249617   7.865  10.951   3.568
82574SOL     OW49618  11.300   5.502   8.667
82574SOL    HW149619  11.354   5.572   8.629
82574SOL    HW249620  11.228   5.548   8.709
82575SOL     OW49621  13.923   2.932   1.286
82575SOL    HW149622  13.875   2.892   1.358
82575SOL    HW249623  13.877   3.014   1.269
82576SOL     OW49624   4.385   0.811   4.398
82576SOL    HW149625   4.399   0.869   4.472
82576SOL    HW249626   4.294   0.823   4.374
82577SOL     OW49627   5.325   4.182   3.975
82577SOL    HW149628   5.272   4.228   4.040
82577SOL    HW249629   5.336   4.094   4.012
82578SOL     OW49630  11.314   1.867   8.437
82578SOL    HW149631  11.268   1.939   8.392
82578SOL    HW249632  11.245   1.824   8.487
82579SOL     OW49633   4.453   6.816   0.998
82579SOL    HW149634   4.395   6.794   1.072
82579SOL    HW249635   4.426   6.755   0.929
82580SOL     OW49636  14.699   1.291   8.136
82580SOL    HW149637  14.701   1.258   8.226
82580SOL    HW249638  14.785   1.332   8.124
82581SOL     OW49639   0.291   3.145   4.997
82581SOL    HW149640   0.299   3.210   5.066
82581SOL    HW249641   0.198   3.122   4.996
82582SOL     OW49642  14.203  11.274  12.719
82582SOL    HW149643  14.122  11.305  12.680
82582SOL    HW249644  14.272  11.320  12.670
82583SOL     OW49645   0.999   1.730   2.918
82583SOL    HW149646   1.055   1.683   2.980
82583SOL    HW249647   0.914   1.686   2.924
82584SOL     OW49648   8.500   1.641   4.230
82584SOL    HW149649   8.586   1.626   4.192
82584SOL    HW249650   8.455   1.695   4.165
82585SOL     OW49651   2.370  11.261  13.620
82585SOL    HW149652   2.363  11.327  13.552
82585SOL    HW249653   2.321  11.186  13.585
82586SOL     OW49654   4.281   2.807   5.087
82586SOL    HW149655   4.188   2.798   5.066
82586SOL    HW249656   4.293   2.901   5.102
82587SOL     OW49657   3.538   9.422   7.422
82587SOL    HW149658   3.557   9.360   7.351
82587SOL    HW249659   3.571   9.506   7.391
82588SOL     OW49660  13.295   1.345   0.827
82588SOL    HW149661  13.230   1.293   0.780
82588SOL    HW249662  13.299   1.428   0.780
82589SOL     OW49663   7.789   9.097   7.863
82589SOL    HW149664   7.825   9.176   7.821
82589SOL    HW249665   7.750   9.048   7.791
82590SOL     OW49666   1.803   1.883   5.507
82590SOL    HW149667   1.807   1.971   5.469
82590SOL    HW249668   1.784   1.826   5.433
82591SOL     OW49669   0.407  12.737  14.859
82591SOL    HW149670   0.340  12.774   0.049
82591SOL    HW249671   0.410  12.644   0.015
82592SOL     OW49672   2.148   4.824   9.318
82592SOL    HW149673   2.065   4.795   9.356
82592SOL    HW249674   2.205   4.747   9.323
82593SOL     OW49675   6.478  13.000  14.741
82593SOL    HW149676   6.562  13.045  14.730
82593SOL    HW249677   6.416  13.070  14.761
82594SOL     OW49678   0.438   9.751  10.818
82594SOL    HW149679   0.430   9.719  10.908
82594SOL    HW249680   0.526   9.724  10.792
82595SOL     OW49681  11.045  11.565   8.783
82595SOL    HW149682  11.135  11.542   8.807
82595SOL    HW249683  10.996  11.562   8.865
82596SOL     OW49684  14.816   3.566   1.337
82596SOL    HW149685   0.038   3.591   1.357
82596SOL    HW249686  14.806   3.480   1.377
82597SOL     OW49687   9.438   7.025   7.685
82597SOL    HW149688   9.348   7.041   7.713
82597SOL    HW249689   9.459   6.939   7.721
82598SOL     OW49690  11.672  10.070   3.316
82598SOL    HW149691  11.711  10.011   3.381
82598SOL    HW249692  11.724  10.150   3.324
82599SOL     OW49693   5.911   9.154   1.006
82599SOL    HW149694   5.912   9.065   0.972
82599SOL    HW249695   5.993   9.162   1.056
82600SOL     OW49696   6.136   8.619  10.188
82600SOL    HW149697   6.206   8.553  10.194
82600SOL    HW249698   6.069   8.587  10.248
82601SOL     OW49699   6.848  12.647   7.285
82601SOL    HW149700   6.857  12.709   7.358
82601SOL    HW249701   6.775  12.591   7.311
82602SOL     OW49702   4.608   2.281   2.806
82602SOL    HW149703   4.666   2.243   2.872
82602SOL    HW249704   4.654   2.359   2.775
82603SOL     OW49705  13.127  12.535  12.104
82603SOL    HW149706  13.058  12.471  12.119
82603SOL    HW249707  13.106  12.609  12.161
82604SOL     OW49708  14.626   7.975   0.581
82604SOL    HW149709  14.715   7.992   0.612
82604SOL    HW249710  14.613   8.038   0.510
82605SOL     OW49711   3.197  10.633  12.967
82605SOL    HW149712   3.207  10.719  13.008
82605SOL    HW249713   3.195  10.652  12.873
82606SOL     OW49714  14.839  14.548   2.666
82606SOL    HW149715  14.860  14.480   2.730
82606SOL    HW249716  14.765  14.512   2.616
82607SOL     OW49717   4.255  12.111   2.726
82607SOL    HW149718   4.209  12.098   2.643
82607SOL    HW249719   4.194  12.162   2.779
82608SOL     OW49720   5.575   0.619  14.367
82608SOL    HW149721   5.515   0.584  14.433
82608SOL    HW249722   5.526   0.691  14.326
82609SOL     OW49723  13.413  13.515   7.425
82609SOL    HW149724  13.431  13.488   7.335
82609SOL    HW249725  13.428  13.436   7.477
82610SOL     OW49726   8.553   5.764   5.104
82610SOL    HW149727   8.526   5.681   5.065
82610SOL    HW249728   8.480   5.823   5.086
82611SOL     OW49729   0.111   2.524   8.819
82611SOL    HW149730   0.129   2.616   8.836
82611SOL    HW249731   0.195   2.480   8.831
82612SOL     OW49732  11.601  11.407   8.208
82612SOL    HW149733  11.636  11.404   8.119
82612SOL    HW249734  11.673  11.444   8.261
82613SOL     OW49735  14.616   6.013  11.883
82613SOL    HW149736  14.671   6.018  11.805
82613SOL    HW249737  14.573   5.927  11.876
82614SOL     OW49738   6.617  14.739   0.330
82614SOL    HW149739   6.545  14.730   0.268
82614SOL    HW249740   6.688  14.688   0.292
82615SOL     OW49741   6.478   8.666   8.789
82615SOL    HW149742   6.527   8.593   8.751
82615SOL    HW249743   6.514   8.744   8.745
82616SOL     OW49744   9.943  11.547  14.544
82616SOL    HW149745   9.982  11.635  14.546
82616SOL    HW249746   9.951  11.516  14.634
82617SOL     OW49747   8.572  10.494   2.353
82617SOL    HW149748   8.629  10.477   2.278
82617SOL    HW249749   8.490  10.524   2.314
82618SOL     OW49750   3.219   2.101   4.712
82618SOL    HW149751   3.222   2.012   4.747
82618SOL    HW249752   3.130   2.131   4.732
82619SOL     OW49753   4.518   1.391   5.094
82619SOL    HW149754   4.585   1.427   5.035
82619SOL    HW249755   4.445   1.452   5.087
82620SOL     OW49756   6.371   3.353   3.486
82620SOL    HW149757   6.306   3.408   3.443
82620SOL    HW249758   6.374   3.274   3.432
82621SOL     OW49759  10.966   7.470   4.032
82621SOL    HW149760  11.037   7.451   3.972
82621SOL    HW249761  11.004   7.459   4.119
82622SOL     OW49762   0.466   7.534   4.216
82622SOL    HW149763   0.399   7.541   4.147
82622SOL    HW249764   0.532   7.598   4.190
82623SOL     OW49765   8.230   2.215  14.213
82623SOL    HW149766   8.231   2.184  14.303
82623SOL    HW249767   8.196   2.140  14.163
82624SOL     OW49768  10.766  14.137   1.568
82624SOL    HW149769  10.692  14.119   1.510
82624SOL    HW249770  10.750  14.226   1.599
82625SOL     OW49771   8.656   5.483   0.281
82625SOL    HW149772   8.678   5.565   0.237
82625SOL    HW249773   8.586   5.445   0.228
82626SOL     OW49774   0.031   3.300  13.621
82626SOL    HW149775  14.807   3.303  13.593
82626SOL    HW249776   0.033   3.354  13.700
82627SOL     OW49777   2.934  13.158   9.854
82627SOL    HW149778   3.006  13.123   9.907
82627SOL    HW249779   2.908  13.238   9.899
82628SOL     OW49780   7.917   6.812  13.431
82628SOL    HW149781   8.010   6.794  13.448
82628SOL    HW249782   7.905   6.785  13.340
82629SOL     OW49783  12.415   2.594   6.010
82629SOL    HW149784  12.491   2.592   5.951
82629SOL    HW249785  12.419   2.510   6.056
82630SOL     OW49786   1.520   1.894   4.323
82630SOL    HW149787   1.466   1.826   4.364
82630SOL    HW249788   1.464   1.931   4.255
82631SOL     OW49789   9.530  12.927  11.708
82631SOL    HW149790   9.623  12.950  11.708
82631SOL    HW249791   9.525  12.848  11.654
82632SOL     OW49792  13.132   4.812   5.651
82632SOL    HW149793  13.077   4.746   5.693
82632SOL    HW249794  13.147   4.779   5.562
82633SOL     OW49795   9.088  12.527   8.884
82633SOL    HW149796   9.041  12.469   8.943
82633SOL    HW249797   9.037  12.608   8.885
82634SOL     OW49798   1.743   3.422   9.664
82634SOL    HW149799   1.826   3.378   9.682
82634SOL    HW249800   1.743   3.499   9.721
82635SOL     OW49801   9.020  13.008   0.752
82635SOL    HW149802   9.024  13.095   0.714
82635SOL    HW249803   8.931  12.978   0.733
82636SOL     OW49804  11.292   4.755   9.214
82636SOL    HW149805  11.244   4.811   9.153
82636SOL    HW249806  11.240   4.675   9.218
82637SOL     OW49807  13.112   9.326   7.248
82637SOL    HW149808  13.085   9.416   7.232
82637SOL    HW249809  13.058   9.296   7.320
82638SOL     OW49810  11.870   1.811   2.823
82638SOL    HW149811  11.810   1.749   2.782
82638SOL    HW249812  11.813   1.875   2.866
82639SOL     OW49813   0.817  13.764  14.222
82639SOL    HW149814   0.875  13.764  14.146
82639SOL    HW249815   0.767  13.845  14.214
82640SOL     OW49816   2.331  10.092   2.232
82640SOL    HW149817   2.387  10.161   2.267
82640SOL    HW249818   2.348  10.093   2.137
82641SOL     OW49819   4.363   2.363   8.197
82641SOL    HW149820   4.336   2.452   8.220
82641SOL    HW249821   4.456   2.370   8.179
82642SOL     OW49822   6.171   5.280  14.456
82642SOL    HW149823   6.242   5.219  14.476
82642SOL    HW249824   6.189   5.356  14.512
82643SOL     OW49825   4.624   8.572  13.551
82643SOL    HW149826   4.569   8.568  13.473
82643SOL    HW249827   4.601   8.494  13.601
82644SOL     OW49828   9.228  13.764   6.849
82644SOL    HW149829   9.139  13.731   6.839
82644SOL    HW249830   9.243  13.818   6.771
82645SOL     OW49831   0.822   0.555   8.611
82645SOL    HW149832   0.812   0.510   8.527
82645SOL    HW249833   0.895   0.512   8.654
82646SOL     OW49834   8.059   5.228  11.613
82646SOL    HW149835   8.065   5.292  11.542
82646SOL    HW249836   8.098   5.149  11.576
82647SOL     OW49837  11.837  13.295   2.039
82647SOL    HW149838  11.790  13.212   2.051
82647SOL    HW249839  11.790  13.358   2.093
82648SOL     OW49840  12.246   3.874  11.382
82648SOL    HW149841  12.185   3.937  11.419
82648SOL    HW249842  12.324   3.880  11.437
82649SOL     OW49843   4.574   1.789   7.767
82649SOL    HW149844   4.512   1.808   7.697
82649SOL    HW249845   4.528   1.813   7.848
82650SOL     OW49846   1.558  14.043   1.618
82650SOL    HW149847   1.610  13.977   1.665
82650SOL    HW249848   1.573  14.024   1.526
82651SOL     OW49849   6.560  14.642  13.367
82651SOL    HW149850   6.494  14.666  13.431
82651SOL    HW249851   6.527  14.563  13.326
82652SOL     OW49852  14.670   8.342  14.573
82652SOL    HW149853  14.628   8.350  14.659
82652SOL    HW249854  14.762   8.363  14.589
82653SOL     OW49855   7.823   4.265   0.778
82653SOL    HW149856   7.760   4.193   0.775
82653SOL    HW249857   7.846   4.280   0.686
82654SOL     OW49858   3.871  10.967   9.512
82654SOL    HW149859   3.885  11.014   9.595
82654SOL    HW249860   3.928  11.013   9.450
82655SOL     OW49861  11.269  13.258  12.537
82655SOL    HW149862  11.332  13.297  12.476
82655SOL    HW249863  11.310  13.266  12.623
82656SOL     OW49864   9.211   3.026   5.540
82656SOL    HW149865   9.181   3.023   5.631
82656SOL    HW249866   9.160   3.097   5.500
82657SOL     OW49867   4.958   7.470   9.282
82657SOL    HW149868   4.915   7.394   9.242
82657SOL    HW249869   4.902   7.544   9.259
82658SOL     OW49870  12.540   7.105   8.985
82658SOL    HW149871  12.561   7.172   9.050
82658SOL    HW249872  12.607   7.037   8.998
82659SOL     OW49873   7.729   4.217   1.309
82659SOL    HW149874   7.726   4.305   1.272
82659SOL    HW249875   7.813   4.181   1.280
82660SOL     OW49876   7.162   5.846   9.032
82660SOL    HW149877   7.115   5.927   9.055
82660SOL    HW249878   7.130   5.781   9.095
82661SOL     OW49879  14.378   0.665   3.972
82661SOL    HW149880  14.380   0.704   4.059
82661SOL    HW249881  14.314   0.718   3.924
82662SOL     OW49882   1.230   9.287   0.012
82662SOL    HW149883   1.144   9.322   0.037
82662SOL    HW249884   1.282   9.290   0.092
82663SOL     OW49885   6.633  11.264   9.901
82663SOL    HW149886   6.636  11.325   9.828
82663SOL    HW249887   6.623  11.178   9.861
82664SOL     OW49888   2.539   8.118  12.727
82664SOL    HW149889   2.580   8.135  12.642
82664SOL    HW249890   2.489   8.198  12.745
82665SOL     OW49891   0.320  14.353   1.988
82665SOL    HW149892   0.354  14.340   1.899
82665SOL    HW249893   0.225  14.362   1.976
82666SOL     OW49894   3.897   7.998   6.721
82666SOL    HW149895   3.881   8.086   6.686
82666SOL    HW249896   3.968   8.010   6.784
82667SOL     OW49897   2.682   2.435   3.387
82667SOL    HW149898   2.745   2.445   3.458
82667SOL    HW249899   2.631   2.357   3.411
82668SOL     OW49900   4.021   7.449   0.399
82668SOL    HW149901   4.002   7.531   0.355
82668SOL    HW249902   3.935   7.409   0.414
82669SOL     OW49903   6.424  13.964  12.826
82669SOL    HW149904   6.372  13.997  12.899
82669SOL    HW249905   6.506  14.014  12.831
82670SOL     OW49906   8.164   0.927   1.871
82670SOL    HW149907   8.097   0.868   1.908
82670SOL    HW249908   8.140   1.014   1.903
82671SOL     OW49909  10.356   9.066  10.289
82671SOL    HW149910  10.384   9.153  10.261
82671SOL    HW249911  10.372   9.010  10.213
82672SOL     OW49912   9.436   1.886   4.360
82672SOL    HW149913   9.521   1.908   4.399
82672SOL    HW249914   9.447   1.905   4.266
82673SOL     OW49915   6.820  13.079   6.942
82673SOL    HW149916   6.858  13.053   6.858
82673SOL    HW249917   6.826  13.000   6.996
82674SOL     OW49918   2.251  11.010   4.990
82674SOL    HW149919   2.248  11.106   4.990
82674SOL    HW249920   2.228  10.986   4.900
82675SOL     OW49921   2.207   5.996   5.085
82675SOL    HW149922   2.139   6.063   5.101
82675SOL    HW249923   2.271   6.010   5.154
82676SOL     OW49924   7.547   3.050  14.555
82676SOL    HW149925   7.533   2.968  14.509
82676SOL    HW249926   7.641   3.066  14.549
82677SOL     OW49927   1.391   4.885   2.002
82677SOL    HW149928   1.380   4.979   1.987
82677SOL    HW249929   1.308   4.857   2.042
82678SOL     OW49930   0.848  12.583   1.643
82678SOL    HW149931   0.848  12.660   1.587
82678SOL    HW249932   0.773  12.596   1.702
82679SOL     OW49933   9.402  11.092  11.080
82679SOL    HW149934   9.435  11.030  11.014
82679SOL    HW249935   9.307  11.090  11.069
82680SOL     OW49936   0.294  13.331   1.228
82680SOL    HW149937   0.364  13.269   1.249
82680SOL    HW249938   0.241  13.287   1.162
82681SOL     OW49939   4.722  10.778  12.915
82681SOL    HW149940   4.757  10.700  12.956
82681SOL    HW249941   4.797  10.819  12.872
82682SOL     OW49942  11.953   7.641  10.677
82682SOL    HW149943  11.914   7.560  10.647
82682SOL    HW249944  11.925   7.649  10.768
82683SOL     OW49945  11.576   2.501   7.594
82683SOL    HW149946  11.660   2.545   7.606
82683SOL    HW249947  11.512   2.572   7.591
82684SOL     OW49948  14.603   6.174  12.662
82684SOL    HW149949  14.678   6.230  12.679
82684SOL    HW249950  14.638   6.103  12.608
82685SOL     OW49951   3.322   6.170   0.401
82685SOL    HW149952   3.333   6.077   0.381
82685SOL    HW249953   3.299   6.173   0.494
82686SOL     OW49954   8.312   2.095  11.911
82686SOL    HW149955   8.402   2.125  11.895
82686SOL    HW249956   8.300   2.022  11.849
82687SOL     OW49957   5.486  10.322   5.721
82687SOL    HW149958   5.569  10.369   5.706
82687SOL    HW249959   5.424  10.364   5.661
82688SOL     OW49960   0.967   9.807   0.280
82688SOL    HW149961   1.017   9.887   0.298
82688SOL    HW249962   1.004   9.742   0.340
82689SOL     OW49963  13.083  14.054   7.802
82689SOL    HW149964  13.099  14.149   7.806
82689SOL    HW249965  13.161  14.018   7.760
82690SOL     OW49966   7.980   3.607   1.694
82690SOL    HW149967   7.993   3.693   1.653
82690SOL    HW249968   8.037   3.609   1.771
82691SOL     OW49969  14.842   7.788   3.574
82691SOL    HW149970  14.802   7.716   3.622
82691SOL    HW249971   0.067   7.768   3.573
82692SOL     OW49972   8.334   0.799   7.158
82692SOL    HW149973   8.387   0.737   7.108
82692SOL    HW249974   8.269   0.832   7.096
82693SOL     OW49975   7.801  12.209   0.872
82693SOL    HW149976   7.882  12.256   0.890
82693SOL    HW249977   7.766  12.250   0.793
82694SOL     OW49978  10.842   7.733   6.238
82694SOL    HW149979  10.889   7.776   6.167
82694SOL    HW249980  10.888   7.650   6.249
82695SOL     OW49981  12.192   0.625  10.373
82695SOL    HW149982  12.103   0.652  10.397
82695SOL    HW249983  12.190   0.619  10.278
82696SOL     OW49984   9.196  13.406   7.719
82696SOL    HW149985   9.145  13.432   7.795
82696SOL    HW249986   9.274  13.463   7.722
82697SOL     OW49987  14.653   5.685   9.508
82697SOL    HW149988  14.580   5.661   9.451
82697SOL    HW249989  14.688   5.601   9.539
82698SOL     OW49990   8.757   5.234   1.404
82698SOL    HW149991   8.737   5.321   1.369
82698SOL    HW249992   8.842   5.212   1.367
82699SOL     OW49993  10.993   4.297   8.212
82699SOL    HW149994  10.916   4.242   8.220
82699SOL    HW249995  10.961   4.378   8.174
82700SOL     OW49996   8.060  14.539   5.720
82700SOL    HW149997   8.003  14.615   5.712
82700SOL    HW249998   8.127  14.552   5.653
82701SOL     OW49999  13.386   5.420   3.167
82701SOL    HW150000  13.375   5.356   3.096
82701SOL    HW250001  13.342   5.499   3.135
82702SOL     OW50002   9.052   1.438   1.726
82702SOL    HW150003   9.113   1.372   1.757
82702SOL    HW250004   8.988   1.448   1.797
82703SOL     OW50005  11.516  10.205   3.834
82703SOL    HW150006  11.447  10.266   3.861
82703SOL    HW250007  11.485  10.169   3.751
82704SOL     OW50008  10.883   7.911  14.382
82704SOL    HW150009  10.897   7.954  14.298
82704SOL    HW250010  10.906   7.977  14.448
82705SOL     OW50011   7.088   9.029   9.595
82705SOL    HW150012   7.152   8.963   9.568
82705SOL    HW250013   7.037   8.986   9.665
82706SOL     OW50014  12.744   8.392  12.902
82706SOL    HW150015  12.761   8.352  12.987
82706SOL    HW250016  12.820   8.447  12.885
82707SOL     OW50017  10.763   2.889   1.447
82707SOL    HW150018  10.716   2.818   1.491
82707SOL    HW250019  10.799   2.849   1.368
82708SOL     OW50020   1.581  12.355   6.134
82708SOL    HW150021   1.576  12.335   6.228
82708SOL    HW250022   1.675  12.366   6.118
82709SOL     OW50023  10.369   6.519  14.157
82709SOL    HW150024  10.311   6.594  14.171
82709SOL    HW250025  10.311   6.443  14.157
82710SOL     OW50026   4.364   3.078   2.354
82710SOL    HW150027   4.445   3.049   2.311
82710SOL    HW250028   4.357   3.022   2.431
82711SOL     OW50029  11.764  13.645   6.261
82711SOL    HW150030  11.679  13.684   6.241
82711SOL    HW250031  11.768  13.567   6.206
82712SOL     OW50032  10.399  11.178   6.046
82712SOL    HW150033  10.466  11.243   6.061
82712SOL    HW250034  10.382  11.182   5.952
82713SOL     OW50035   3.454  14.262   9.168
82713SOL    HW150036   3.488  14.344   9.133
82713SOL    HW250037   3.376  14.244   9.115
82714SOL     OW50038   2.705  14.118  11.239
82714SOL    HW150039   2.698  14.112  11.144
82714SOL    HW250040   2.652  14.045  11.271
82715SOL     OW50041   5.762  10.376   6.720
82715SOL    HW150042   5.729  10.296   6.761
82715SOL    HW250043   5.704  10.445   6.753
82716SOL     OW50044   8.264  11.285   0.385
82716SOL    HW150045   8.203  11.213   0.398
82716SOL    HW250046   8.349  11.243   0.371
82717SOL     OW50047   2.494   1.894  12.261
82717SOL    HW150048   2.523   1.982  12.239
82717SOL    HW250049   2.474   1.853  12.177
82718SOL     OW50050   1.168   3.870   9.330
82718SOL    HW150051   1.262   3.876   9.347
82718SOL    HW250052   1.162   3.829   9.244
82719SOL     OW50053   0.504   2.761   1.420
82719SOL    HW150054   0.515   2.849   1.455
82719SOL    HW250055   0.593   2.727   1.415
82720SOL     OW50056  11.652  13.867   9.427
82720SOL    HW150057  11.559  13.882   9.441
82720SOL    HW250058  11.668  13.778   9.459
82721SOL     OW50059   3.582   1.784   5.679
82721SOL    HW150060   3.633   1.845   5.625
82721SOL    HW250061   3.492   1.796   5.650
82722SOL     OW50062   2.059   3.341  13.755
82722SOL    HW150063   2.060   3.399  13.832
82722SOL    HW250064   2.068   3.401  13.681
82723SOL     OW50065   5.875  12.365   1.066
82723SOL    HW150066   5.799  12.388   1.012
82723SOL    HW250067   5.927  12.307   1.011
82724SOL     OW50068   3.730   8.979   2.990
82724SOL    HW150069   3.647   8.931   2.998
82724SOL    HW250070   3.795   8.920   3.029
82725SOL     OW50071   5.300  14.111  11.723
82725SOL    HW150072   5.371  14.047  11.723
82725SOL    HW250073   5.284  14.129  11.815
82726SOL     OW50074   1.612   2.472   1.794
82726SOL    HW150075   1.662   2.390   1.792
82726SOL    HW250076   1.633   2.510   1.880
82727SOL     OW50077   3.327   5.718   4.318
82727SOL    HW150078   3.352   5.743   4.230
82727SOL    HW250079   3.232   5.730   4.321
82728SOL     OW50080   6.704   7.987   2.990
82728SOL    HW150081   6.675   7.939   2.912
82728SOL    HW250082   6.650   7.952   3.061
82729SOL     OW50083   5.465   9.268  11.517
82729SOL    HW150084   5.545   9.260  11.569
82729SOL    HW250085   5.399   9.300  11.578
82730SOL     OW50086  10.191   6.727   3.374
82730SOL    HW150087  10.225   6.776   3.449
82730SOL    HW250088  10.146   6.652   3.413
82731SOL     OW50089  11.144  10.499  14.163
82731SOL    HW150090  11.217  10.451  14.204
82731SOL    HW250091  11.066  10.462  14.204
82732SOL     OW50092   0.884  12.941   5.296
82732SOL    HW150093   0.933  12.860   5.278
82732SOL    HW250094   0.875  12.983   5.210
82733SOL     OW50095  13.356   7.974  10.001
82733SOL    HW150096  13.451   7.985  10.003
82733SOL    HW250097  13.339   7.936   9.915
82734SOL     OW50098   5.264   8.562   3.133
82734SOL    HW150099   5.283   8.563   3.040
82734SOL    HW250100   5.236   8.472   3.151
82735SOL     OW50101  14.411  12.772  13.043
82735SOL    HW150102  14.381  12.685  13.015
82735SOL    HW250103  14.448  12.759  13.130
82736SOL     OW50104   4.662   7.582   6.563
82736SOL    HW150105   4.602   7.508   6.561
82736SOL    HW250106   4.746   7.546   6.534
82737SOL     OW50107   1.681   2.420   5.591
82737SOL    HW150108   1.754   2.443   5.534
82737SOL    HW250109   1.620   2.372   5.535
82738SOL     OW50110   7.427   1.425  13.958
82738SOL    HW150111   7.371   1.348  13.966
82738SOL    HW250112   7.473   1.413  13.875
82739SOL     OW50113   2.318   5.341  10.807
82739SOL    HW150114   2.323   5.269  10.870
82739SOL    HW250115   2.276   5.303  10.730
82740SOL     OW50116   0.253  12.183   4.734
82740SOL    HW150117   0.189  12.111   4.740
82740SOL    HW250118   0.322  12.149   4.677
82741SOL     OW50119   2.213  13.125   1.580
82741SOL    HW150120   2.203  13.096   1.671
82741SOL    HW250121   2.123  13.132   1.547
82742SOL     OW50122   9.770   7.001  11.835
82742SOL    HW150123   9.767   7.074  11.773
82742SOL    HW250124   9.708   6.937  11.800
82743SOL     OW50125   5.953  13.357  14.310
82743SOL    HW150126   5.913  13.437  14.276
82743SOL    HW250127   5.948  13.367  14.405
82744SOL     OW50128   6.523  11.356  13.201
82744SOL    HW150129   6.607  11.328  13.239
82744SOL    HW250130   6.525  11.325  13.111
82745SOL     OW50131  10.538   1.441   9.240
82745SOL    HW150132  10.562   1.425   9.331
82745SOL    HW250133  10.617   1.422   9.190
82746SOL     OW50134   8.291  11.808   0.319
82746SOL    HW150135   8.374  11.791   0.275
82746SOL    HW250136   8.236  11.733   0.296
82747SOL     OW50137   9.610   2.363   9.810
82747SOL    HW150138   9.598   2.456   9.794
82747SOL    HW250139   9.553   2.344   9.885
82748SOL     OW50140  12.849   8.257   6.680
82748SOL    HW150141  12.828   8.262   6.587
82748SOL    HW250142  12.941   8.280   6.686
82749SOL     OW50143   4.432   9.843  14.772
82749SOL    HW150144   4.425   9.756  14.809
82749SOL    HW250145   4.507   9.839  14.713
82750SOL     OW50146  10.715  11.869  10.613
82750SOL    HW150147  10.645  11.824  10.566
82750SOL    HW250148  10.688  11.960  10.615
82751SOL     OW50149  11.322   2.518   0.685
82751SOL    HW150150  11.259   2.541   0.617
82751SOL    HW250151  11.396   2.577   0.669
82752SOL     OW50152   7.147   5.861  13.927
82752SOL    HW150153   7.067   5.833  13.884
82752SOL    HW250154   7.171   5.787  13.983
82753SOL     OW50155   9.415   9.846   9.839
82753SOL    HW150156   9.465   9.790   9.781
82753SOL    HW250157   9.421   9.933   9.800
82754SOL     OW50158   5.847  10.236   9.053
82754SOL    HW150159   5.861  10.288   8.973
82754SOL    HW250160   5.800  10.294   9.112
82755SOL     OW50161   7.732   6.638   7.704
82755SOL    HW150162   7.675   6.661   7.630
82755SOL    HW250163   7.776   6.558   7.675
82756SOL     OW50164  14.121  12.644  12.434
82756SOL    HW150165  14.052  12.614  12.375
82756SOL    HW250166  14.075  12.688  12.505
82757SOL     OW50167   3.558   7.224   9.299
82757SOL    HW150168   3.540   7.136   9.264
82757SOL    HW250169   3.625   7.210   9.366
82758SOL     OW50170   3.706   1.773   8.873
82758SOL    HW150171   3.622   1.776   8.826
82758SOL    HW250172   3.704   1.690   8.921
82759SOL     OW50173  12.179   5.107  14.594
82759SOL    HW150174  12.254   5.072  14.643
82759SOL    HW250175  12.118   5.136  14.662
82760SOL     OW50176   3.955   7.644   2.006
82760SOL    HW150177   3.883   7.706   1.996
82760SOL    HW250178   3.930   7.569   1.952
82761SOL     OW50179  13.948  14.565   3.057
82761SOL    HW150180  13.948  14.475   3.024
82761SOL    HW250181  13.889  14.612   2.997
82762SOL     OW50182   0.320   0.363   8.830
82762SOL    HW150183   0.392   0.409   8.787
82762SOL    HW250184   0.360   0.283   8.864
82763SOL     OW50185   0.137  14.322   5.216
82763SOL    HW150186   0.111  14.352   5.303
82763SOL    HW250187   0.059  14.332   5.162
82764SOL     OW50188   3.765   5.488   6.655
82764SOL    HW150189   3.755   5.579   6.682
82764SOL    HW250190   3.858   5.479   6.635
82765SOL     OW50191  14.517   8.548  11.145
82765SOL    HW150192  14.474   8.602  11.079
82765SOL    HW250193  14.479   8.576  11.228
82766SOL     OW50194   0.344   7.373   0.314
82766SOL    HW150195   0.411   7.433   0.279
82766SOL    HW250196   0.314   7.415   0.394
82767SOL     OW50197   9.171   8.270   9.524
82767SOL    HW150198   9.259   8.305   9.514
82767SOL    HW250199   9.120   8.342   9.558
82768SOL     OW50200   0.281  12.595  11.581
82768SOL    HW150201   0.353  12.655  11.559
82768SOL    HW250202   0.324  12.520  11.622
82769SOL     OW50203  12.679  13.090   5.774
82769SOL    HW150204  12.720  13.105   5.689
82769SOL    HW250205  12.660  13.178   5.807
82770SOL     OW50206  10.538  12.423   6.774
82770SOL    HW150207  10.482  12.351   6.743
82770SOL    HW250208  10.563  12.470   6.695
82771SOL     OW50209  13.822   0.425   4.037
82771SOL    HW150210  13.909   0.398   4.066
82771SOL    HW250211  13.831   0.520   4.022
82772SOL     OW50212   7.067  14.862   4.240
82772SOL    HW150213   6.981  14.866   4.198
82772SOL    HW250214   7.106  14.781   4.206
82773SOL     OW50215   9.018   3.077   3.269
82773SOL    HW150216   9.093   3.111   3.219
82773SOL    HW250217   8.999   2.993   3.228
82774SOL     OW50218  11.980  11.625  10.181
82774SOL    HW150219  11.969  11.546  10.234
82774SOL    HW250220  11.891  11.655  10.163
82775SOL     OW50221  13.832  13.369   4.927
82775SOL    HW150222  13.863  13.393   5.014
82775SOL    HW250223  13.761  13.308   4.943
82776SOL     OW50224  12.255  10.669   3.975
82776SOL    HW150225  12.196  10.606   3.934
82776SOL    HW250226  12.199  10.742   4.000
82777SOL     OW50227   9.606   4.434  11.516
82777SOL    HW150228   9.637   4.520  11.486
82777SOL    HW250229   9.675   4.403  11.574
82778SOL     OW50230  14.338   6.452  13.563
82778SOL    HW150231  14.340   6.383  13.496
82778SOL    HW250232  14.285   6.414  13.634
82779SOL     OW50233  11.442   3.858   9.568
82779SOL    HW150234  11.516   3.823   9.617
82779SOL    HW250235  11.449   3.819   9.481
82780SOL     OW50236   2.106   3.372   4.516
82780SOL    HW150237   2.054   3.333   4.586
82780SOL    HW250238   2.074   3.329   4.436
82781SOL     OW50239   7.446  11.598   5.608
82781SOL    HW150240   7.505  11.632   5.541
82781SOL    HW250241   7.369  11.568   5.560
82782SOL     OW50242   1.637   0.308  14.272
82782SOL    HW150243   1.555   0.354  14.255
82782SOL    HW250244   1.704   0.365  14.234
82783SOL     OW50245   7.162   3.025  14.864
82783SOL    HW150246   7.139   3.050   0.085
82783SOL    HW250247   7.257   3.012  14.867
82784SOL     OW50248  10.864  12.766  11.230
82784SOL    HW150249  10.880  12.672  11.227
82784SOL    HW250250  10.878  12.790  11.322
82785SOL     OW50251   5.784  12.311  14.735
82785SOL    HW150252   5.744  12.393  14.704
82785SOL    HW250253   5.712  12.248  14.737
82786SOL     OW50254  13.492   7.085  14.245
82786SOL    HW150255  13.473   7.060  14.336
82786SOL    HW250256  13.423   7.149  14.223
82787SOL     OW50257   1.732   4.719  11.424
82787SOL    HW150258   1.654   4.729  11.477
82787SOL    HW250259   1.764   4.808  11.410
82788SOL     OW50260   6.233  13.863   5.127
82788SOL    HW150261   6.304  13.923   5.106
82788SOL    HW250262   6.233  13.859   5.222
82789SOL     OW50263   7.170   8.641  14.741
82789SOL    HW150264   7.137   8.729  14.757
82789SOL    HW250265   7.239   8.654  14.676
82790SOL     OW50266   4.080   2.171   6.794
82790SOL    HW150267   4.026   2.250   6.808
82790SOL    HW250268   4.027   2.100   6.828
82791SOL     OW50269  10.009   6.882  11.738
82791SOL    HW150270   9.919   6.901  11.764
82791SOL    HW250271  10.059   6.883  11.820
82792SOL     OW50272   7.913   3.843   0.449
82792SOL    HW150273   7.865   3.916   0.411
82792SOL    HW250274   7.867   3.765   0.417
82793SOL     OW50275  12.100   4.329   3.758
82793SOL    HW150276  12.056   4.402   3.716
82793SOL    HW250277  12.110   4.356   3.850
82794SOL     OW50278   3.394  10.489   5.630
82794SOL    HW150279   3.355  10.423   5.573
82794SOL    HW250280   3.447  10.543   5.571
82795SOL     OW50281   7.722   5.648  13.703
82795SOL    HW150282   7.815   5.668  13.707
82795SOL    HW250283   7.698   5.658  13.611
82796SOL     OW50284  10.956  13.752   1.092
82796SOL    HW150285  10.906  13.806   1.030
82796SOL    HW250286  10.959  13.805   1.172
82797SOL     OW50287  10.080   2.259   2.728
82797SOL    HW150288  10.152   2.312   2.759
82797SOL    HW250289  10.111   2.222   2.645
82798SOL     OW50290   5.320   1.001   1.058
82798SOL    HW150291   5.334   1.066   1.127
82798SOL    HW250292   5.251   1.040   1.003
82799SOL     OW50293  11.096  10.539   4.099
82799SOL    HW150294  11.126  10.603   4.163
82799SOL    HW250295  11.129  10.455   4.131
82800SOL     OW50296  14.764   2.027  13.291
82800SOL    HW150297  14.767   1.995  13.201
82800SOL    HW250298  14.700   1.971  13.334
82801SOL     OW50299   1.547   1.686  13.691
82801SOL    HW150300   1.483   1.641  13.746
82801SOL    HW250301   1.629   1.681  13.740
82802SOL     OW50302   3.476  14.594   5.074
82802SOL    HW150303   3.481  14.503   5.044
82802SOL    HW250304   3.565  14.615   5.102
82803SOL     OW50305  13.248   5.980   6.407
82803SOL    HW150306  13.246   6.048   6.340
82803SOL    HW250307  13.303   6.016   6.476
82804SOL     OW50308  12.970   0.388  13.074
82804SOL    HW150309  12.889   0.374  13.123
82804SOL    HW250310  13.036   0.405  13.141
82805SOL     OW50311   7.874  14.289  10.565
82805SOL    HW150312   7.944  14.310  10.627
82805SOL    HW250313   7.817  14.229  10.614
82806SOL     OW50314   3.766   9.639   9.318
82806SOL    HW150315   3.760   9.556   9.366
82806SOL    HW250316   3.808   9.615   9.235
82807SOL     OW50317   9.059   0.299   8.799
82807SOL    HW150318   9.091   0.287   8.710
82807SOL    HW250319   8.972   0.337   8.788
82808SOL     OW50320   9.020   3.178  13.132
82808SOL    HW150321   9.089   3.127  13.173
82808SOL    HW250322   8.941   3.125  13.145
82809SOL     OW50323   3.987  11.929   7.371
82809SOL    HW150324   4.052  11.888   7.428
82809SOL    HW250325   3.943  11.993   7.427
82810SOL     OW50326   1.573   3.669   9.423
82810SOL    HW150327   1.526   3.743   9.386
82810SOL    HW250328   1.663   3.681   9.394
82811SOL     OW50329   7.336   6.120  10.751
82811SOL    HW150330   7.373   6.033  10.740
82811SOL    HW250331   7.357   6.144  10.841
82812SOL     OW50332   3.556   7.911  12.654
82812SOL    HW150333   3.506   7.858  12.592
82812SOL    HW250334   3.609   7.969  12.599
82813SOL     OW50335   7.809   6.346  12.624
82813SOL    HW150336   7.783   6.381  12.539
82813SOL    HW250337   7.902   6.328  12.615
82814SOL     OW50338   2.735   1.308   9.046
82814SOL    HW150339   2.780   1.254   9.111
82814SOL    HW250340   2.804   1.335   8.986
82815SOL     OW50341   0.655   9.779  13.782
82815SOL    HW150342   0.612   9.803  13.700
82815SOL    HW250343   0.733   9.834  13.786
82816SOL     OW50344   5.672   3.563   8.093
82816SOL    HW150345   5.725   3.515   8.156
82816SOL    HW250346   5.638   3.638   8.142
82817SOL     OW50347   2.366   3.126  14.702
82817SOL    HW150348   2.323   3.151  14.784
82817SOL    HW250349   2.345   3.197  14.641
82818SOL     OW50350   2.985  13.966   3.417
82818SOL    HW150351   2.907  13.978   3.363
82818SOL    HW250352   3.043  13.912   3.364
82819SOL     OW50353   8.153   9.446  14.271
82819SOL    HW150354   8.194   9.363  14.247
82819SOL    HW250355   8.224   9.511  14.266
82820SOL     OW50356   4.802   2.923   2.780
82820SOL    HW150357   4.726   2.872   2.806
82820SOL    HW250358   4.768   2.986   2.717
82821SOL     OW50359   2.148   8.554   8.074
82821SOL    HW150360   2.171   8.465   8.049
82821SOL    HW250361   2.078   8.579   8.014
82822SOL     OW50362  13.366  14.592   2.297
82822SOL    HW150363  13.367  14.497   2.280
82822SOL    HW250364  13.318  14.629   2.223
82823SOL     OW50365   1.605   8.526  14.031
82823SOL    HW150366   1.576   8.437  14.054
82823SOL    HW250367   1.568   8.582  14.100
82824SOL     OW50368  14.246   9.424   6.955
82824SOL    HW150369  14.174   9.485   6.971
82824SOL    HW250370  14.241   9.361   7.027
82825SOL     OW50371  13.055   9.612  10.374
82825SOL    HW150372  13.133   9.635  10.426
82825SOL    HW250373  13.073   9.647  10.287
82826SOL     OW50374   6.369   1.134  13.256
82826SOL    HW150375   6.401   1.212  13.211
82826SOL    HW250376   6.398   1.146  13.346
82827SOL     OW50377   0.033   7.419  12.764
82827SOL    HW150378   0.065   7.396  12.676
82827SOL    HW250379  14.833   7.485  12.748
82828SOL     OW50380  14.647   0.516   4.218
82828SOL    HW150381  14.583   0.467   4.165
82828SOL    HW250382  14.667   0.458   4.291
82829SOL     OW50383   6.470  13.013  11.203
82829SOL    HW150384   6.444  12.963  11.125
82829SOL    HW250385   6.483  12.947  11.271
82830SOL     OW50386   8.245   7.110   0.803
82830SOL    HW150387   8.159   7.103   0.845
82830SOL    HW250388   8.242   7.046   0.732
82831SOL     OW50389   1.261   1.701  11.525
82831SOL    HW150390   1.186   1.756  11.503
82831SOL    HW250391   1.295   1.738  11.606
82832SOL     OW50392   2.246  14.828   8.027
82832SOL    HW150393   2.158  14.792   8.030
82832SOL    HW250394   2.296  14.765   7.975
82833SOL     OW50395   8.577  14.676   2.514
82833SOL    HW150396   8.558  14.616   2.442
82833SOL    HW250397   8.521  14.645   2.585
82834SOL     OW50398   9.512  12.595   7.116
82834SOL    HW150399   9.436  12.621   7.065
82834SOL    HW250400   9.475  12.545   7.189
82835SOL     OW50401   2.082   4.028   8.461
82835SOL    HW150402   1.987   4.027   8.461
82835SOL    HW250403   2.105   4.120   8.455
82836SOL     OW50404   3.072  12.874  12.027
82836SOL    HW150405   2.986  12.915  12.023
82836SOL    HW250406   3.054  12.781  12.037
82837SOL     OW50407   4.923   9.794  14.610
82837SOL    HW150408   4.973   9.856  14.664
82837SOL    HW250409   4.969   9.794  14.526
82838SOL     OW50410   4.109   7.524   1.125
82838SOL    HW150411   4.062   7.458   1.075
82838SOL    HW250412   4.040   7.581   1.161
82839SOL     OW50413   0.059  13.045   2.510
82839SOL    HW150414   0.042  13.131   2.548
82839SOL    HW250415   0.111  13.063   2.431
82840SOL     OW50416  12.000   4.834  14.737
82840SOL    HW150417  12.008   4.829  14.642
82840SOL    HW250418  11.972   4.747  14.764
82841SOL     OW50419  12.632  10.531  12.529
82841SOL    HW150420  12.643  10.439  12.505
82841SOL    HW250421  12.703  10.548  12.591
82842SOL     OW50422   2.614  11.645  11.639
82842SOL    HW150423   2.661  11.604  11.567
82842SOL    HW250424   2.638  11.594  11.716
82843SOL     OW50425   3.545   9.519   5.951
82843SOL    HW150426   3.523   9.426   5.944
82843SOL    HW250427   3.523   9.555   5.866
82844SOL     OW50428   1.438   4.770   1.411
82844SOL    HW150429   1.458   4.729   1.496
82844SOL    HW250430   1.455   4.700   1.348
82845SOL     OW50431   8.404   0.750   2.204
82845SOL    HW150432   8.472   0.695   2.166
82845SOL    HW250433   8.387   0.817   2.138
82846SOL     OW50434   8.113   6.185  10.374
82846SOL    HW150435   8.058   6.200  10.298
82846SOL    HW250436   8.159   6.268  10.388
82847SOL     OW50437   9.990   8.965   3.933
82847SOL    HW150438  10.022   8.975   4.023
82847SOL    HW250439   9.969   8.872   3.926
82848SOL     OW50440   0.361  14.036   7.587
82848SOL    HW150441   0.311  14.061   7.509
82848SOL    HW250442   0.453  14.047   7.561
82849SOL     OW50443   7.051   4.500   1.091
82849SOL    HW150444   7.022   4.590   1.105
82849SOL    HW250445   7.139   4.497   1.129
82850SOL     OW50446  10.802  10.867   2.247
82850SOL    HW150447  10.815  10.797   2.183
82850SOL    HW250448  10.741  10.927   2.204
82851SOL     OW50449   7.886  14.065   3.782
82851SOL    HW150450   7.855  14.002   3.847
82851SOL    HW250451   7.968  14.029   3.750
82852SOL     OW50452   5.735  14.300   2.608
82852SOL    HW150453   5.671  14.309   2.538
82852SOL    HW250454   5.809  14.254   2.567
82853SOL     OW50455   8.728   2.833  14.400
82853SOL    HW150456   8.774   2.806  14.479
82853SOL    HW250457   8.795   2.833  14.332
82854SOL     OW50458   7.154   9.637   7.716
82854SOL    HW150459   7.086   9.572   7.700
82854SOL    HW250460   7.147   9.657   7.809
82855SOL     OW50461   4.979   8.894  12.814
82855SOL    HW150462   4.993   8.807  12.777
82855SOL    HW250463   5.067   8.929  12.829
82856SOL     OW50464   7.661  10.991   9.353
82856SOL    HW150465   7.569  10.968   9.360
82856SOL    HW250466   7.662  11.087   9.356
82857SOL     OW50467   9.823  12.052   9.248
82857SOL    HW150468   9.764  11.983   9.279
82857SOL    HW250469   9.798  12.066   9.157
82858SOL     OW50470   0.534   4.524   8.146
82858SOL    HW150471   0.456   4.578   8.157
82858SOL    HW250472   0.601   4.585   8.114
82859SOL     OW50473   9.948  14.553   8.310
82859SOL    HW150474   9.873  14.500   8.282
82859SOL    HW250475  10.012  14.542   8.240
82860SOL     OW50476   1.026   0.821   1.852
82860SOL    HW150477   1.024   0.880   1.927
82860SOL    HW250478   1.027   0.734   1.891
82861SOL     OW50479   9.853  10.534   7.598
82861SOL    HW150480   9.812  10.611   7.639
82861SOL    HW250481   9.843  10.549   7.504
82862SOL     OW50482   3.118   4.741   1.404
82862SOL    HW150483   3.159   4.797   1.339
82862SOL    HW250484   3.164   4.657   1.396
82863SOL     OW50485   5.950   4.140  11.379
82863SOL    HW150486   5.939   4.189  11.298
82863SOL    HW250487   5.946   4.207  11.448
82864SOL     OW50488  12.286   5.633   8.364
82864SOL    HW150489  12.245   5.588   8.290
82864SOL    HW250490  12.324   5.562   8.416
82865SOL     OW50491  14.409   0.574   0.665
82865SOL    HW150492  14.353   0.517   0.719
82865SOL    HW250493  14.497   0.558   0.698
82866SOL     OW50494   2.613  13.326   7.953
82866SOL    HW150495   2.575  13.375   7.880
82866SOL    HW250496   2.690  13.376   7.978
82867SOL     OW50497   5.023  14.271   2.374
82867SOL    HW150498   5.028  14.223   2.292
82867SOL    HW250499   4.943  14.239   2.417
82868SOL     OW50500   1.101   5.708   1.351
82868SOL    HW150501   1.150   5.750   1.280
82868SOL    HW250502   1.126   5.616   1.347
82869SOL     OW50503   4.182   5.972  10.228
82869SOL    HW150504   4.216   5.985  10.316
82869SOL    HW250505   4.103   6.026  10.225
82870SOL     OW50506  12.703   0.069   5.778
82870SOL    HW150507  12.670  14.851   5.802
82870SOL    HW250508  12.699   0.072   5.683
82871SOL     OW50509   8.863   3.880  13.658
82871SOL    HW150510   8.957   3.894  13.649
82871SOL    HW250511   8.851   3.859  13.750
82872SOL     OW50512   1.559   5.580   7.836
82872SOL    HW150513   1.470   5.555   7.809
82872SOL    HW250514   1.601   5.498   7.859
82873SOL     OW50515   8.290   1.936   6.365
82873SOL    HW150516   8.373   1.961   6.324
82873SOL    HW250517   8.309   1.941   6.459
82874SOL     OW50518  11.372   9.757   0.075
82874SOL    HW150519  11.429   9.688   0.041
82874SOL    HW250520  11.370   9.823   0.006
82875SOL     OW50521   9.505   2.484   1.120
82875SOL    HW150522   9.432   2.429   1.093
82875SOL    HW250523   9.581   2.447   1.076
82876SOL     OW50524   3.688   9.992  13.402
82876SOL    HW150525   3.634   9.997  13.323
82876SOL    HW250526   3.755   9.927  13.381
82877SOL     OW50527  12.510  10.605   5.887
82877SOL    HW150528  12.440  10.540   5.891
82877SOL    HW250529  12.472  10.684   5.924
82878SOL     OW50530   8.647   6.353  13.713
82878SOL    HW150531   8.583   6.336  13.782
82878SOL    HW250532   8.693   6.270  13.701
82879SOL     OW50533  14.131   2.727   0.736
82879SOL    HW150534  14.063   2.677   0.781
82879SOL    HW250535  14.101   2.734   0.646
82880SOL     OW50536   8.866  11.709   5.156
82880SOL    HW150537   8.934  11.650   5.123
82880SOL    HW250538   8.867  11.697   5.251
82881SOL     OW50539   5.091   2.889  12.856
82881SOL    HW150540   5.041   2.953  12.806
82881SOL    HW250541   5.107   2.931  12.940
82882SOL     OW50542   5.329   0.317   9.447
82882SOL    HW150543   5.362   0.275   9.368
82882SOL    HW250544   5.292   0.245   9.499
82883SOL     OW50545   8.108  12.304   7.629
82883SOL    HW150546   8.056  12.266   7.558
82883SOL    HW250547   8.061  12.384   7.653
82884SOL     OW50548   2.258   2.034   3.921
82884SOL    HW150549   2.347   2.007   3.942
82884SOL    HW250550   2.256   2.036   3.825
82885SOL     OW50551   7.539   3.080   3.014
82885SOL    HW150552   7.503   3.032   3.089
82885SOL    HW250553   7.571   3.162   3.051
82886SOL     OW50554   3.715  10.845   4.632
82886SOL    HW150555   3.788  10.786   4.612
82886SOL    HW250556   3.640  10.807   4.587
82887SOL     OW50557   3.925   7.050   3.480
82887SOL    HW150558   3.857   7.111   3.450
82887SOL    HW250559   3.916   7.048   3.575
82888SOL     OW50560   9.198   8.570   3.917
82888SOL    HW150561   9.273   8.589   3.860
82888SOL    HW250562   9.187   8.475   3.910
82889SOL     OW50563   2.933   5.454   5.658
82889SOL    HW150564   2.988   5.467   5.735
82889SOL    HW250565   2.993   5.466   5.584
82890SOL     OW50566   2.732  13.597   1.513
82890SOL    HW150567   2.713  13.517   1.464
82890SOL    HW250568   2.665  13.659   1.483
82891SOL     OW50569  11.866  11.115   7.655
82891SOL    HW150570  11.839  11.125   7.564
82891SOL    HW250571  11.928  11.042   7.655
82892SOL     OW50572  10.286   0.053   0.062
82892SOL    HW150573  10.300   0.073  14.838
82892SOL    HW250574  10.285   0.138   0.106
82893SOL     OW50575   1.056   5.651   3.047
82893SOL    HW150576   1.125   5.714   3.065
82893SOL    HW250577   1.076   5.618   2.959
82894SOL     OW50578  10.055   8.798   4.814
82894SOL    HW150579  10.078   8.712   4.849
82894SOL    HW250580  10.138   8.846   4.812
82895SOL     OW50581   9.233   8.918   1.372
82895SOL    HW150582   9.142   8.890   1.365
82895SOL    HW250583   9.253   8.910   1.465
82896SOL     OW50584   0.363   7.126   2.289
82896SOL    HW150585   0.417   7.116   2.367
82896SOL    HW250586   0.273   7.111   2.319
82897SOL     OW50587   3.244   9.427  11.684
82897SOL    HW150588   3.324   9.447  11.732
82897SOL    HW250589   3.182   9.494  11.713
82898SOL     OW50590   6.019  11.418   8.513
82898SOL    HW150591   5.941  11.454   8.555
82898SOL    HW250592   5.985  11.366   8.440
82899SOL     OW50593   8.229   3.733  11.815
82899SOL    HW150594   8.206   3.799  11.751
82899SOL    HW250595   8.158   3.668  11.808
82900SOL     OW50596   8.090  14.141   5.015
82900SOL    HW150597   8.156  14.176   5.075
82900SOL    HW250598   8.010  14.189   5.037
82901SOL     OW50599   4.490  13.734   5.985
82901SOL    HW150600   4.527  13.691   6.062
82901SOL    HW250601   4.402  13.762   6.013
82902SOL     OW50602  10.667  11.260  10.642
82902SOL    HW150603  10.635  11.319  10.710
82902SOL    HW250604  10.742  11.305  10.604
82903SOL     OW50605  11.372   5.932   8.737
82903SOL    HW150606  11.390   5.848   8.695
82903SOL    HW250607  11.280   5.950   8.716
82904SOL     OW50608  11.078  13.127   4.746
82904SOL    HW150609  11.036  13.191   4.688
82904SOL    HW250610  11.169  13.126   4.717
82905SOL     OW50611   1.567   7.270  10.633
82905SOL    HW150612   1.518   7.207  10.579
82905SOL    HW250613   1.657   7.237  10.633
82906SOL     OW50614  11.978  14.655   0.233
82906SOL    HW150615  12.044  14.628   0.169
82906SOL    HW250616  11.905  14.687   0.181
82907SOL     OW50617   1.102   2.104   2.379
82907SOL    HW150618   1.066   2.188   2.408
82907SOL    HW250619   1.081   2.099   2.286
82908SOL     OW50620  10.873  11.654  10.345
82908SOL    HW150621  10.931  11.578  10.341
82908SOL    HW250622  10.851  11.672  10.254
82909SOL     OW50623  11.203   6.813   8.796
82909SOL    HW150624  11.162   6.861   8.868
82909SOL    HW250625  11.136   6.808   8.728
82910SOL     OW50626   3.015   4.851  11.424
82910SOL    HW150627   2.971   4.802  11.355
82910SOL    HW250628   3.106   4.820  11.421
82911SOL     OW50629   7.872   1.046   1.394
82911SOL    HW150630   7.955   1.033   1.439
82911SOL    HW250631   7.824   1.108   1.449
82912SOL     OW50632  14.513   2.365  10.278
82912SOL    HW150633  14.516   2.308  10.355
82912SOL    HW250634  14.536   2.308  10.205
82913SOL     OW50635   2.294   0.920   9.261
82913SOL    HW150636   2.232   0.855   9.292
82913SOL    HW250637   2.252   0.960   9.185
82914SOL     OW50638   1.023   4.901   0.244
82914SOL    HW150639   1.101   4.909   0.189
82914SOL    HW250640   1.046   4.945   0.326
82915SOL     OW50641  10.988   2.710   0.837
82915SOL    HW150642  10.921   2.771   0.868
82915SOL    HW250643  10.959   2.686   0.749
82916SOL     OW50644   8.379  12.020   9.160
82916SOL    HW150645   8.304  12.015   9.219
82916SOL    HW250646   8.416  12.107   9.175
82917SOL     OW50647   1.699   5.160  10.377
82917SOL    HW150648   1.635   5.191  10.441
82917SOL    HW250649   1.727   5.239  10.331
82918SOL     OW50650   2.416   3.006   0.820
82918SOL    HW150651   2.439   2.987   0.911
82918SOL    HW250652   2.499   3.030   0.778
82919SOL     OW50653  12.507  10.391   0.495
82919SOL    HW150654  12.498  10.392   0.399
82919SOL    HW250655  12.452  10.463   0.525
82920SOL     OW50656   5.843   5.453  14.380
82920SOL    HW150657   5.871   5.393  14.449
82920SOL    HW250658   5.751   5.471  14.399
82921SOL     OW50659  12.834   9.915  12.011
82921SOL    HW150660  12.743   9.886  12.006
82921SOL    HW250661  12.885   9.834  12.007
82922SOL     OW50662   3.709  11.206   4.709
82922SOL    HW150663   3.708  11.114   4.732
82922SOL    HW250664   3.794  11.238   4.740
82923SOL     OW50665  14.778   6.118  13.937
82923SOL    HW150666  14.769   6.099  13.843
82923SOL    HW250667  14.747   6.208  13.947
82924SOL     OW50668  14.056   6.459  13.827
82924SOL    HW150669  13.975   6.497  13.862
82924SOL    HW250670  14.072   6.382  13.881
82925SOL     OW50671  10.961   6.117   3.810
82925SOL    HW150672  10.949   6.130   3.904
82925SOL    HW250673  10.919   6.033   3.791
82926SOL     OW50674   5.260   1.881   9.378
82926SOL    HW150675   5.231   1.953   9.434
82926SOL    HW250676   5.276   1.808   9.437
82927SOL     OW50677  10.706   5.953  11.561
82927SOL    HW150678  10.715   5.858  11.556
82927SOL    HW250679  10.617   5.970  11.530
82928SOL     OW50680   3.170   0.745   8.198
82928SOL    HW150681   3.178   0.767   8.105
82928SOL    HW250682   3.212   0.818   8.243
82929SOL     OW50683   7.010   4.014   3.897
82929SOL    HW150684   7.040   4.062   3.974
82929SOL    HW250685   7.038   4.067   3.823
82930SOL     OW50686   9.698   3.719  11.477
82930SOL    HW150687   9.744   3.769  11.410
82930SOL    HW250688   9.754   3.727  11.555
82931SOL     OW50689   1.533   3.467   7.031
82931SOL    HW150690   1.559   3.405   7.099
82931SOL    HW250691   1.528   3.552   7.076
82932SOL     OW50692   1.918   4.980   4.402
82932SOL    HW150693   1.999   4.935   4.427
82932SOL    HW250694   1.900   5.041   4.473
82933SOL     OW50695  12.235   5.026   8.622
82933SOL    HW150696  12.293   4.962   8.664
82933SOL    HW250697  12.147   4.991   8.633
82934SOL     OW50698  13.707  14.350  12.984
82934SOL    HW150699  13.709  14.338  13.079
82934SOL    HW250700  13.764  14.425  12.968
82935SOL     OW50701  12.245   9.013   5.281
82935SOL    HW150702  12.258   8.941   5.342
82935SOL    HW250703  12.159   9.047   5.302
82936SOL     OW50704   4.677   1.245  11.139
82936SOL    HW150705   4.665   1.220  11.047
82936SOL    HW250706   4.591   1.276  11.167
82937SOL     OW50707  13.480   8.295   3.428
82937SOL    HW150708  13.403   8.306   3.483
82937SOL    HW250709  13.465   8.353   3.353
82938SOL     OW50710   2.818  14.396   7.890
82938SOL    HW150711   2.875  14.471   7.903
82938SOL    HW250712   2.862  14.343   7.823
82939SOL     OW50713   2.582  12.338   0.363
82939SOL    HW150714   2.583  12.352   0.268
82939SOL    HW250715   2.533  12.413   0.398
82940SOL     OW50716   2.089   4.702  12.080
82940SOL    HW150717   2.127   4.649  12.010
82940SOL    HW250718   2.145   4.687  12.156
82941SOL     OW50719  11.700  13.722   7.641
82941SOL    HW150720  11.756  13.664   7.692
82941SOL    HW250721  11.737  13.721   7.553
82942SOL     OW50722  14.339   8.759   3.466
82942SOL    HW150723  14.414   8.795   3.418
82942SOL    HW250724  14.288   8.836   3.491
82943SOL     OW50725  10.362   9.635   9.547
82943SOL    HW150726  10.349   9.588   9.464
82943SOL    HW250727  10.395   9.721   9.520
82944SOL     OW50728   9.002   5.310   9.381
82944SOL    HW150729   8.946   5.382   9.353
82944SOL    HW250730   8.949   5.263   9.447
82945SOL     OW50731   7.059   3.259   5.080
82945SOL    HW150732   6.965   3.278   5.077
82945SOL    HW250733   7.065   3.165   5.067
82946SOL     OW50734   0.119  14.638   5.708
82946SOL    HW150735   0.092  14.599   5.625
82946SOL    HW250736   0.060  14.601   5.773
82947SOL     OW50737  12.971   5.641   1.150
82947SOL    HW150738  12.968   5.645   1.245
82947SOL    HW250739  13.046   5.587   1.130
82948SOL     OW50740  11.274   1.990   8.150
82948SOL    HW150741  11.255   1.898   8.130
82948SOL    HW250742  11.260   2.036   8.067
82949SOL     OW50743  14.237   9.114  13.289
82949SOL    HW150744  14.184   9.035  13.281
82949SOL    HW250745  14.327   9.082  13.293
82950SOL     OW50746   0.465   8.920   6.432
82950SOL    HW150747   0.377   8.903   6.399
82950SOL    HW250748   0.451   8.965   6.515
82951SOL     OW50749  10.281   6.064  12.424
82951SOL    HW150750  10.289   6.075  12.329
82951SOL    HW250751  10.278   5.969  12.436
82952SOL     OW50752   4.246   5.408   0.335
82952SOL    HW150753   4.337   5.395   0.360
82952SOL    HW250754   4.231   5.344   0.265
82953SOL     OW50755   5.433  11.244  14.281
82953SOL    HW150756   5.511  11.194  14.260
82953SOL    HW250757   5.461  11.305  14.350
82954SOL     OW50758  11.628  12.505  10.968
82954SOL    HW150759  11.640  12.423  11.015
82954SOL    HW250760  11.577  12.482  10.891
82955SOL     OW50761   4.341  11.835   0.765
82955SOL    HW150762   4.378  11.770   0.824
82955SOL    HW250763   4.351  11.918   0.812
82956SOL     OW50764  10.830   2.185  11.530
82956SOL    HW150765  10.899   2.154  11.589
82956SOL    HW250766  10.749   2.173  11.579
82957SOL     OW50767  11.976   2.086   0.900
82957SOL    HW150768  11.969   2.151   0.969
82957SOL    HW250769  12.014   2.133   0.825
82958SOL     OW50770   6.691  11.228  10.152
82958SOL    HW150771   6.688  11.249  10.058
82958SOL    HW250772   6.774  11.182  10.163
82959SOL     OW50773   3.690  12.079  11.308
82959SOL    HW150774   3.689  12.150  11.244
82959SOL    HW250775   3.754  12.017  11.274
82960SOL     OW50776   0.424   4.036  10.156
82960SOL    HW150777   0.356   4.075  10.211
82960SOL    HW250778   0.505   4.046  10.206
82961SOL     OW50779   0.341   3.479   1.142
82961SOL    HW150780   0.320   3.491   1.235
82961SOL    HW250781   0.430   3.513   1.133
82962SOL     OW50782  12.514   4.110   2.145
82962SOL    HW150783  12.430   4.155   2.140
82962SOL    HW250784  12.575   4.168   2.099
82963SOL     OW50785  12.692   9.731   6.794
82963SOL    HW150786  12.688   9.662   6.860
82963SOL    HW250787  12.644   9.696   6.719
82964SOL     OW50788   2.790   2.377   4.756
82964SOL    HW150789   2.841   2.455   4.732
82964SOL    HW250790   2.700   2.400   4.734
82965SOL     OW50791   8.193   9.062   2.349
82965SOL    HW150792   8.283   9.076   2.318
82965SOL    HW250793   8.199   8.985   2.405
82966SOL     OW50794  13.735   3.939   1.500
82966SOL    HW150795  13.679   3.881   1.551
82966SOL    HW250796  13.687   3.955   1.419
82967SOL     OW50797   4.476  11.546   5.274
82967SOL    HW150798   4.457  11.465   5.226
82967SOL    HW250799   4.530  11.597   5.215
82968SOL     OW50800   2.362   2.511   1.098
82968SOL    HW150801   2.397   2.591   1.059
82968SOL    HW250802   2.439   2.457   1.116
82969SOL     OW50803  11.208  14.043   0.322
82969SOL    HW150804  11.146  14.106   0.362
82969SOL    HW250805  11.294  14.075   0.349
82970SOL     OW50806  10.783   7.086   5.451
82970SOL    HW150807  10.745   7.045   5.373
82970SOL    HW250808  10.737   7.169   5.460
82971SOL     OW50809  13.191   5.196  10.785
82971SOL    HW150810  13.165   5.104  10.773
82971SOL    HW250811  13.128   5.246  10.734
82972SOL     OW50812   3.151  14.061   6.394
82972SOL    HW150813   3.198  14.102   6.322
82972SOL    HW250814   3.081  14.123   6.417
82973SOL     OW50815   2.413   0.181   9.805
82973SOL    HW150816   2.456   0.128   9.738
82973SOL    HW250817   2.358   0.120   9.853
82974SOL     OW50818   1.488  14.433   9.099
82974SOL    HW150819   1.413  14.393   9.054
82974SOL    HW250820   1.488  14.524   9.068
82975SOL     OW50821   0.695   9.405  11.404
82975SOL    HW150822   0.665   9.398  11.313
82975SOL    HW250823   0.650   9.335  11.450
82976SOL     OW50824   2.806   9.124  10.624
82976SOL    HW150825   2.855   9.195  10.666
82976SOL    HW250826   2.825   9.133  10.531
82977SOL     OW50827   0.057   0.325   1.229
82977SOL    HW150828   0.131   0.315   1.169
82977SOL    HW250829   0.002   0.391   1.186
82978SOL     OW50830   2.537  10.731   4.396
82978SOL    HW150831   2.597  10.675   4.445
82978SOL    HW250832   2.530  10.690   4.310
82979SOL     OW50833  11.966   1.621  10.322
82979SOL    HW150834  11.926   1.614  10.409
82979SOL    HW250835  11.892   1.610  10.262
82980SOL     OW50836   2.460   5.789   7.005
82980SOL    HW150837   2.475   5.715   7.064
82980SOL    HW250838   2.545   5.832   6.998
82981SOL     OW50839  11.846   0.605   1.534
82981SOL    HW150840  11.796   0.686   1.541
82981SOL    HW250841  11.783   0.540   1.502
82982SOL     OW50842  10.010  12.342   9.059
82982SOL    HW150843  10.064  12.264   9.066
82982SOL    HW250844  10.055  12.397   8.995
82983SOL     OW50845   3.007  13.697   4.979
82983SOL    HW150846   2.931  13.660   5.023
82983SOL    HW250847   3.018  13.783   5.018
82984SOL     OW50848   3.633   7.918  14.574
82984SOL    HW150849   3.719   7.943  14.606
82984SOL    HW250850   3.612   7.837  14.620
82985SOL     OW50851   5.456   9.352   6.501
82985SOL    HW150852   5.491   9.434   6.465
82985SOL    HW250853   5.509   9.337   6.580
82986SOL     OW50854   5.065  12.471  10.519
82986SOL    HW150855   5.109  12.511  10.594
82986SOL    HW250856   5.021  12.394  10.555
82987SOL     OW50857   7.633  10.480  12.614
82987SOL    HW150858   7.654  10.567  12.579
82987SOL    HW250859   7.652  10.486  12.707
82988SOL     OW50860   8.406   4.408  12.502
82988SOL    HW150861   8.437   4.432  12.590
82988SOL    HW250862   8.357   4.485  12.473
82989SOL     OW50863   3.863   9.233   9.953
82989SOL    HW150864   3.913   9.255  10.031
82989SOL    HW250865   3.790   9.179   9.985
82990SOL     OW50866  13.369  13.314   9.639
82990SOL    HW150867  13.294  13.260   9.664
82990SOL    HW250868  13.445  13.259   9.658
82991SOL     OW50869   3.825  13.431   3.020
82991SOL    HW150870   3.820  13.347   2.974
82991SOL    HW250871   3.782  13.493   2.961
82992SOL     OW50872   4.313   0.475   4.522
82992SOL    HW150873   4.337   0.468   4.615
82992SOL    HW250874   4.364   0.407   4.479
82993SOL     OW50875   6.347   6.231   7.360
82993SOL    HW150876   6.374   6.183   7.438
82993SOL    HW250877   6.366   6.172   7.287
82994SOL     OW50878  11.099   6.503  14.207
82994SOL    HW150879  11.047   6.461  14.275
82994SOL    HW250880  11.127   6.586  14.246
82995SOL     OW50881  14.749   6.318   0.655
82995SOL    HW150882  14.686   6.249   0.675
82995SOL    HW250883  14.696   6.396   0.640
82996SOL     OW50884   2.203   4.038  13.119
82996SOL    HW150885   2.239   4.019  13.032
82996SOL    HW250886   2.274   4.017  13.179
82997SOL     OW50887   7.306   8.510  14.361
82997SOL    HW150888   7.280   8.602  14.351
82997SOL    HW250889   7.376   8.511  14.426
82998SOL     OW50890   6.438   4.878   8.398
82998SOL    HW150891   6.422   4.945   8.333
82998SOL    HW250892   6.355   4.869   8.445
82999SOL     OW50893   2.493   5.613   1.949
82999SOL    HW150894   2.420   5.665   1.916
82999SOL    HW250895   2.555   5.609   1.876
83000SOL     OW50896  12.345   5.291  14.430
83000SOL    HW150897  12.294   5.229  14.483
83000SOL    HW250898  12.421   5.311  14.485
83001SOL     OW50899   2.765   2.253   2.228
83001SOL    HW150900   2.672   2.266   2.246
83001SOL    HW250901   2.771   2.164   2.196
83002SOL     OW50902  14.707  11.311   5.513
83002SOL    HW150903  14.660  11.361   5.447
83002SOL    HW250904  14.698  11.220   5.485
83003SOL     OW50905   5.511   9.376  14.064
83003SOL    HW150906   5.495   9.465  14.095
83003SOL    HW250907   5.464   9.320  14.125
83004SOL     OW50908   5.233   8.064  10.278
83004SOL    HW150909   5.161   8.117  10.312
83004SOL    HW250910   5.230   8.077  10.183
83005SOL     OW50911   3.432  10.505  13.040
83005SOL    HW150912   3.353  10.555  13.018
83005SOL    HW250913   3.455  10.459  12.960
83006SOL     OW50914  10.440   2.696   4.249
83006SOL    HW150915  10.361   2.750   4.241
83006SOL    HW250916  10.492   2.720   4.172
83007SOL     OW50917   2.235   6.167   6.397
83007SOL    HW150918   2.279   6.082   6.396
83007SOL    HW250919   2.218   6.184   6.489
83008SOL     OW50920   5.167   9.971  13.545
83008SOL    HW150921   5.116   9.978  13.465
83008SOL    HW250922   5.122   9.905  13.597
83009SOL     OW50923   3.946   2.845   8.035
83009SOL    HW150924   4.035   2.815   8.057
83009SOL    HW250925   3.907   2.869   8.119
83010SOL     OW50926  14.384   9.555   7.512
83010SOL    HW150927  14.380   9.485   7.577
83010SOL    HW250928  14.319   9.530   7.445
83011SOL     OW50929   9.173   8.313   3.554
83011SOL    HW150930   9.139   8.400   3.573
83011SOL    HW250931   9.252   8.306   3.609
83012SOL     OW50932   5.387   5.231   5.531
83012SOL    HW150933   5.291   5.236   5.530
83012SOL    HW250934   5.416   5.321   5.517
83013SOL     OW50935   4.788   7.700   9.220
83013SOL    HW150936   4.783   7.747   9.303
83013SOL    HW250937   4.696   7.682   9.198
83014SOL     OW50938   3.127   6.681  11.435
83014SOL    HW150939   3.208   6.710  11.394
83014SOL    HW250940   3.111   6.745  11.505
83015SOL     OW50941  11.758   9.800   6.144
83015SOL    HW150942  11.729   9.838   6.227
83015SOL    HW250943  11.786   9.711   6.167
83016SOL     OW50944   9.610   8.679   9.970
83016SOL    HW150945   9.635   8.756   9.918
83016SOL    HW250946   9.682   8.669  10.033
83017SOL     OW50947   9.000   0.659  10.578
83017SOL    HW150948   9.004   0.645  10.484
83017SOL    HW250949   8.931   0.600  10.609
83018SOL     OW50950   6.469   4.920   9.067
83018SOL    HW150951   6.381   4.883   9.070
83018SOL    HW250952   6.470   4.973   8.987
83019SOL     OW50953   5.049   2.343   7.313
83019SOL    HW150954   5.017   2.429   7.285
83019SOL    HW250955   5.144   2.353   7.314
83020SOL     OW50956  13.009   2.656   3.335
83020SOL    HW150957  12.971   2.716   3.399
83020SOL    HW250958  13.067   2.599   3.386
83021SOL     OW50959  11.514   3.284   8.558
83021SOL    HW150960  11.459   3.226   8.505
83021SOL    HW250961  11.490   3.373   8.530
83022SOL     OW50962   8.509   1.285  13.218
83022SOL    HW150963   8.552   1.328  13.144
83022SOL    HW250964   8.438   1.344  13.241
83023SOL     OW50965  11.562   9.756   0.872
83023SOL    HW150966  11.479   9.744   0.825
83023SOL    HW250967  11.593   9.842   0.843
83024SOL     OW50968  13.211   9.237   2.202
83024SOL    HW150969  13.128   9.268   2.237
83024SOL    HW250970  13.188   9.195   2.119
83025SOL     OW50971  12.108   2.207   0.677
83025SOL    HW150972  12.195   2.242   0.659
83025SOL    HW250973  12.058   2.223   0.597
83026SOL     OW50974   0.193  10.087  11.492
83026SOL    HW150975   0.174  10.125  11.578
83026SOL    HW250976   0.288  10.089  11.485
83027SOL     OW50977   5.489   3.165   8.048
83027SOL    HW150978   5.542   3.206   8.116
83027SOL    HW250979   5.423   3.230   8.025
83028SOL     OW50980  13.823   5.645   3.252
83028SOL    HW150981  13.793   5.630   3.342
83028SOL    HW250982  13.811   5.560   3.209
83029SOL     OW50983   5.698  10.142  10.980
83029SOL    HW150984   5.757  10.197  10.927
83029SOL    HW250985   5.663  10.078  10.918
83030SOL     OW50986  14.516   1.428   7.399
83030SOL    HW150987  14.539   1.346   7.355
83030SOL    HW250988  14.598   1.477   7.403
83031SOL     OW50989  10.014   3.002   3.850
83031SOL    HW150990  10.039   3.067   3.783
83031SOL    HW250991  10.003   2.921   3.801
83032SOL     OW50992  12.934  10.180   0.679
83032SOL    HW150993  12.885  10.216   0.605
83032SOL    HW250994  12.877  10.191   0.754
83033SOL     OW50995   7.405   7.705  14.394
83033SOL    HW150996   7.383   7.643  14.324
83033SOL    HW250997   7.491   7.677  14.425
83034SOL     OW50998  14.158   3.928  12.719
83034SOL    HW150999  14.202   3.998  12.768
83034SOL    HW251000  14.190   3.847  12.760
83035SOL     OW51001   5.983   7.409   3.814
83035SOL    HW151002   5.897   7.438   3.783
83035SOL    HW251003   6.038   7.411   3.736
83036SOL     OW51004   6.521   0.645   5.636
83036SOL    HW151005   6.563   0.721   5.597
83036SOL    HW251006   6.482   0.678   5.717
83037SOL     OW51007   8.062   2.354  12.185
83037SOL    HW151008   8.024   2.354  12.273
83037SOL    HW251009   8.007   2.416  12.135
83038SOL     OW51010  11.385   7.611   8.400
83038SOL    HW151011  11.452   7.613   8.331
83038SOL    HW251012  11.303   7.597   8.353
83039SOL     OW51013   0.389  13.883  13.664
83039SOL    HW151014   0.434  13.966  13.676
83039SOL    HW251015   0.458  13.817  13.664
83040SOL     OW51016   7.829   1.215   4.127
83040SOL    HW151017   7.815   1.143   4.066
83040SOL    HW251018   7.924   1.215   4.143
83041SOL     OW51019   0.997   3.334   7.978
83041SOL    HW151020   1.020   3.405   7.918
83041SOL    HW251021   1.013   3.370   8.065
83042SOL     OW51022  11.010   3.892   3.166
83042SOL    HW151023  11.008   3.810   3.117
83042SOL    HW251024  10.999   3.866   3.257
83043SOL     OW51025  13.512   4.198   0.490
83043SOL    HW151026  13.435   4.253   0.507
83043SOL    HW251027  13.581   4.261   0.467
83044SOL     OW51028   1.971   2.777  12.756
83044SOL    HW151029   1.902   2.789  12.690
83044SOL    HW251030   2.037   2.724  12.711
83045SOL     OW51031   0.255  14.453   0.942
83045SOL    HW151032   0.347  14.478   0.941
83045SOL    HW251033   0.254  14.363   0.910
83046SOL     OW51034  10.643  11.876   6.904
83046SOL    HW151035  10.605  11.837   6.825
83046SOL    HW251036  10.665  11.801   6.959
83047SOL     OW51037   8.151  10.185  11.447
83047SOL    HW151038   8.142  10.233  11.529
83047SOL    HW251039   8.244  10.166  11.440
83048SOL     OW51040  11.120   7.943  11.332
83048SOL    HW151041  11.090   7.943  11.422
83048SOL    HW251042  11.215   7.935  11.338
83049SOL     OW51043  10.518  12.920   2.509
83049SOL    HW151044  10.552  13.005   2.481
83049SOL    HW251045  10.487  12.879   2.428
83050SOL     OW51046   3.314  10.212   3.042
83050SOL    HW151047   3.257  10.140   3.016
83050SOL    HW251048   3.273  10.290   3.004
83051SOL     OW51049   3.387   7.553   1.474
83051SOL    HW151050   3.377   7.470   1.427
83051SOL    HW251051   3.346   7.537   1.559
83052SOL     OW51052  10.785   3.065  11.971
83052SOL    HW151053  10.875   3.097  11.965
83052SOL    HW251054  10.734   3.141  11.998
83053SOL     OW51055   8.349   0.820  12.843
83053SOL    HW151056   8.261   0.787  12.863
83053SOL    HW251057   8.392   0.826  12.928
83054SOL     OW51058   4.373   8.312   1.343
83054SOL    HW151059   4.310   8.371   1.385
83054SOL    HW251060   4.444   8.304   1.406
83055SOL     OW51061   2.200   2.443  12.334
83055SOL    HW151062   2.215   2.385  12.260
83055SOL    HW251063   2.278   2.498  12.338
83056SOL     OW51064   5.639   4.658   1.869
83056SOL    HW151065   5.577   4.664   1.797
83056SOL    HW251066   5.725   4.670   1.828
83057SOL     OW51067   7.303  10.241   4.652
83057SOL    HW151068   7.217  10.199   4.651
83057SOL    HW251069   7.323  10.256   4.560
83058SOL     OW51070   5.423   8.481  10.010
83058SOL    HW151071   5.397   8.411   9.950
83058SOL    HW251072   5.350   8.489  10.072
83059SOL     OW51073   7.633   5.608   3.357
83059SOL    HW151074   7.565   5.643   3.415
83059SOL    HW251075   7.624   5.659   3.277
83060SOL     OW51076  14.345  11.827   5.021
83060SOL    HW151077  14.285  11.786   4.959
83060SOL    HW251078  14.292  11.840   5.100
83061SOL     OW51079   6.958   2.536   4.056
83061SOL    HW151080   6.991   2.500   4.138
83061SOL    HW251081   7.017   2.609   4.036
83062SOL     OW51082  14.214  12.229   7.242
83062SOL    HW151083  14.199  12.218   7.148
83062SOL    HW251084  14.200  12.142   7.278
83063SOL     OW51085   8.523   2.924   0.540
83063SOL    HW151086   8.485   2.839   0.562
83063SOL    HW251087   8.516   2.975   0.620
83064SOL     OW51088   8.090   5.715   9.512
83064SOL    HW151089   8.051   5.796   9.546
83064SOL    HW251090   8.032   5.645   9.543
83065SOL     OW51091   4.892  14.257   4.983
83065SOL    HW151092   4.923  14.328   5.039
83065SOL    HW251093   4.801  14.244   5.007
83066SOL     OW51094   9.876   4.993   6.503
83066SOL    HW151095   9.808   4.971   6.439
83066SOL    HW251096   9.882   5.089   6.500
83067SOL     OW51097   5.252  10.661   5.299
83067SOL    HW151098   5.175  10.699   5.257
83067SOL    HW251099   5.254  10.570   5.268
83068SOL     OW51100   4.263  10.732  12.848
83068SOL    HW151101   4.209  10.654  12.857
83068SOL    HW251102   4.208  10.804  12.879
83069SOL     OW51103   8.494   7.188  13.668
83069SOL    HW151104   8.444   7.110  13.647
83069SOL    HW251105   8.512   7.181  13.762
83070SOL     OW51106   5.209  12.970  10.923
83070SOL    HW151107   5.151  13.005  10.855
83070SOL    HW251108   5.149  12.936  10.989
83071SOL     OW51109   4.126   3.991   8.660
83071SOL    HW151110   4.161   3.980   8.749
83071SOL    HW251111   4.050   3.934   8.657
83072SOL     OW51112   0.746   5.843   7.301
83072SOL    HW151113   0.813   5.776   7.315
83072SOL    HW251114   0.791   5.912   7.252
83073SOL     OW51115   9.918   7.230   5.622
83073SOL    HW151116  10.003   7.262   5.592
83073SOL    HW251117   9.858   7.246   5.550
83074SOL     OW51118   2.617   0.709   9.935
83074SOL    HW151119   2.668   0.636   9.973
83074SOL    HW251120   2.549   0.727  10.000
83075SOL     OW51121  10.006   1.531   4.215
83075SOL    HW151122  10.028   1.488   4.297
83075SOL    HW251123   9.913   1.510   4.201
83076SOL     OW51124  14.301   0.672   8.736
83076SOL    HW151125  14.254   0.656   8.655
83076SOL    HW251126  14.274   0.760   8.762
83077SOL     OW51127   0.856   3.216  14.005
83077SOL    HW151128   0.847   3.153  14.077
83077SOL    HW251129   0.781   3.199  13.949
83078SOL     OW51130  12.286   9.554   5.674
83078SOL    HW151131  12.272   9.624   5.610
83078SOL    HW251132  12.208   9.557   5.729
83079SOL     OW51133   7.005   5.363  10.791
83079SOL    HW151134   6.940   5.385  10.724
83079SOL    HW251135   6.994   5.269  10.804
83080SOL     OW51136   7.879  13.904   1.464
83080SOL    HW151137   7.791  13.866   1.470
83080SOL    HW251138   7.875  13.982   1.520
83081SOL     OW51139   9.994   2.888   9.307
83081SOL    HW151140   9.935   2.955   9.340
83081SOL    HW251141  10.022   2.839   9.384
83082SOL     OW51142   6.163  10.430  10.383
83082SOL    HW151143   6.253  10.416  10.413
83082SOL    HW251144   6.114  10.357  10.419
83083SOL     OW51145   5.825   5.062   6.131
83083SOL    HW151146   5.739   5.086   6.096
83083SOL    HW251147   5.881   5.137   6.110
83084SOL     OW51148   6.460  13.108   3.971
83084SOL    HW151149   6.512  13.103   4.051
83084SOL    HW251150   6.477  13.026   3.926
83085SOL     OW51151  12.838  13.899   9.184
83085SOL    HW151152  12.885  13.817   9.198
83085SOL    HW251153  12.793  13.887   9.101
83086SOL     OW51154  14.293  12.777   1.086
83086SOL    HW151155  14.309  12.821   1.003
83086SOL    HW251156  14.377  12.735   1.108
83087SOL     OW51157   6.507   7.074   5.539
83087SOL    HW151158   6.464   7.125   5.608
83087SOL    HW251159   6.587   7.124   5.518
83088SOL     OW51160   4.234   3.699   4.982
83088SOL    HW151161   4.230   3.611   4.944
83088SOL    HW251162   4.168   3.748   4.934
83089SOL     OW51163   2.902   7.931   5.435
83089SOL    HW151164   2.853   7.939   5.353
83089SOL    HW251165   2.960   7.857   5.421
83090SOL     OW51166   9.296   8.368  13.541
83090SOL    HW151167   9.325   8.447  13.586
83090SOL    HW251168   9.354   8.362  13.465
83091SOL     OW51169  14.193   8.659   3.220
83091SOL    HW151170  14.245   8.614   3.153
83091SOL    HW251171  14.255   8.677   3.290
83092SOL     OW51172  14.194   2.871   6.969
83092SOL    HW151173  14.260   2.830   6.913
83092SOL    HW251174  14.228   2.861   7.058
83093SOL     OW51175   8.467   9.854   6.790
83093SOL    HW151176   8.480   9.932   6.737
83093SOL    HW251177   8.372   9.838   6.786
83094SOL     OW51178   9.835   5.733   4.539
83094SOL    HW151179   9.889   5.656   4.558
83094SOL    HW251180   9.777   5.740   4.615
83095SOL     OW51181  11.590   9.410   9.833
83095SOL    HW151182  11.584   9.341   9.767
83095SOL    HW251183  11.553   9.371   9.912
83096SOL     OW51184   5.530   0.306  10.385
83096SOL    HW151185   5.618   0.318  10.421
83096SOL    HW251186   5.502   0.394  10.361
83097SOL     OW51187   7.402   4.085   6.730
83097SOL    HW151188   7.330   4.038   6.772
83097SOL    HW251189   7.424   4.030   6.654
83098SOL     OW51190   5.275   0.865  13.538
83098SOL    HW151191   5.185   0.872  13.506
83098SOL    HW251192   5.283   0.934  13.604
83099SOL     OW51193   8.946   0.356   1.423
83099SOL    HW151194   9.029   0.391   1.391
83099SOL    HW251195   8.970   0.279   1.474
83100SOL     OW51196  14.190   2.231   5.022
83100SOL    HW151197  14.233   2.230   4.937
83100SOL    HW251198  14.245   2.287   5.077
83101SOL     OW51199   7.235   9.976  11.579
83101SOL    HW151200   7.249   9.913  11.650
83101SOL    HW251201   7.245  10.061  11.621
83102SOL     OW51202   6.487   2.396   3.631
83102SOL    HW151203   6.581   2.403   3.614
83102SOL    HW251204   6.469   2.463   3.696
83103SOL     OW51205  13.101  10.730   4.256
83103SOL    HW151206  13.083  10.791   4.183
83103SOL    HW251207  13.061  10.648   4.228
83104SOL     OW51208  13.357   9.963   9.501
83104SOL    HW151209  13.358  10.043   9.553
83104SOL    HW251210  13.440   9.965   9.453
83105SOL     OW51211   9.688   3.057   1.975
83105SOL    HW151212   9.610   3.004   1.990
83105SOL    HW251213   9.655   3.144   1.955
83106SOL     OW51214   6.644   1.626   3.612
83106SOL    HW151215   6.655   1.566   3.686
83106SOL    HW251216   6.711   1.693   3.625
83107SOL     OW51217  10.982  13.056   4.356
83107SOL    HW151218  10.987  13.006   4.274
83107SOL    HW251219  10.942  12.996   4.419
83108SOL     OW51220   2.193   9.105   2.813
83108SOL    HW151221   2.173   9.196   2.837
83108SOL    HW251222   2.267   9.111   2.754
83109SOL     OW51223  10.797   1.379   2.471
83109SOL    HW151224  10.718   1.394   2.523
83109SOL    HW251225  10.845   1.312   2.520
83110SOL     OW51226  12.379  11.988  10.587
83110SOL    HW151227  12.460  11.937  10.579
83110SOL    HW251228  12.344  11.991  10.498
83111SOL     OW51229   2.410   3.377  10.892
83111SOL    HW151230   2.401   3.346  10.982
83111SOL    HW251231   2.398   3.299  10.839
83112SOL     OW51232  14.389   7.607  11.178
83112SOL    HW151233  14.423   7.523  11.208
83112SOL    HW251234  14.356   7.589  11.090
83113SOL     OW51235   8.126  13.316  14.076
83113SOL    HW151236   8.052  13.365  14.042
83113SOL    HW251237   8.197  13.332  14.014
83114SOL     OW51238   3.122   8.697   8.201
83114SOL    HW151239   3.067   8.759   8.153
83114SOL    HW251240   3.212   8.725   8.183
83115SOL     OW51241  12.991  10.218   7.039
83115SOL    HW151242  13.038  10.293   7.003
83115SOL    HW251243  13.033  10.202   7.124
83116SOL     OW51244  11.720  12.891   3.649
83116SOL    HW151245  11.672  12.948   3.709
83116SOL    HW251246  11.811  12.920   3.654
83117SOL     OW51247   4.597   9.517  10.906
83117SOL    HW151248   4.635   9.604  10.895
83117SOL    HW251249   4.648   9.477  10.976
83118SOL     OW51250   6.146  11.921   6.188
83118SOL    HW151251   6.144  11.882   6.276
83118SOL    HW251252   6.221  11.880   6.146
83119SOL     OW51253   1.190  12.302  10.755
83119SOL    HW151254   1.100  12.272  10.766
83119SOL    HW251255   1.182  12.397  10.746
83120SOL     OW51256   4.047   5.290  10.158
83120SOL    HW151257   4.127   5.331  10.124
83120SOL    HW251258   4.079   5.229  10.225
83121SOL     OW51259   2.175   0.758  11.061
83121SOL    HW151260   2.161   0.668  11.032
83121SOL    HW251261   2.260   0.756  11.106
83122SOL     OW51262  14.518   5.816   0.027
83122SOL    HW151263  14.533   5.794   0.118
83122SOL    HW251264  14.493   5.733  14.853
83123SOL     OW51265   8.664   7.685   4.639
83123SOL    HW151266   8.698   7.657   4.724
83123SOL    HW251267   8.663   7.780   4.643
83124SOL     OW51268  14.096  12.173   5.730
83124SOL    HW151269  14.148  12.214   5.799
83124SOL    HW251270  14.005  12.186   5.758
83125SOL     OW51271   6.777   5.791   5.171
83125SOL    HW151272   6.745   5.833   5.091
83125SOL    HW251273   6.850   5.845   5.199
83126SOL     OW51274   7.410  14.692   5.309
83126SOL    HW151275   7.353  14.695   5.233
83126SOL    HW251276   7.474  14.624   5.288
83127SOL     OW51277   8.489   5.153   7.958
83127SOL    HW151278   8.454   5.101   7.886
83127SOL    HW251279   8.573   5.185   7.927
83128SOL     OW51280   2.301   6.884   7.348
83128SOL    HW151281   2.331   6.836   7.426
83128SOL    HW251282   2.311   6.976   7.372
83129SOL     OW51283   4.580   2.185  12.812
83129SOL    HW151284   4.516   2.224  12.872
83129SOL    HW251285   4.629   2.260  12.777
83130SOL     OW51286  13.358  13.998   9.249
83130SOL    HW151287  13.394  14.077   9.291
83130SOL    HW251288  13.365  14.016   9.155
83131SOL     OW51289  12.995  13.820   2.079
83131SOL    HW151290  13.037  13.893   2.033
83131SOL    HW251291  12.946  13.773   2.012
83132SOL     OW51292  14.490   0.152   2.657
83132SOL    HW151293  14.401   0.160   2.690
83132SOL    HW251294  14.546   0.178   2.731
83133SOL     OW51295   9.827   4.168  10.629
83133SOL    HW151296   9.764   4.106  10.592
83133SOL    HW251297   9.901   4.113  10.655
83134SOL     OW51298   9.122  12.470   2.168
83134SOL    HW151299   9.178  12.547   2.175
83134SOL    HW251300   9.182  12.397   2.155
83135SOL     OW51301   6.989   4.017  12.795
83135SOL    HW151302   7.002   3.922  12.801
83135SOL    HW251303   7.078   4.053  12.793
83136SOL     OW51304   2.733  10.404   9.142
83136SOL    HW151305   2.698  10.341   9.205
83136SOL    HW251306   2.664  10.413   9.076
83137SOL     OW51307   9.837  12.361   2.798
83137SOL    HW151308   9.785  12.283   2.779
83137SOL    HW251309   9.927  12.329   2.805
83138SOL     OW51310   1.728  13.025  11.033
83138SOL    HW151311   1.650  13.039  11.086
83138SOL    HW251312   1.800  13.056  11.088
83139SOL     OW51313   2.230  10.163  14.830
83139SOL    HW151314   2.300  10.107  14.797
83139SOL    HW251315   2.266  10.252  14.824
83140SOL     OW51316   3.241  10.372   4.077
83140SOL    HW151317   3.231  10.388   4.171
83140SOL    HW251318   3.322  10.418   4.053
83141SOL     OW51319   5.340  13.866   9.988
83141SOL    HW151320   5.351  13.958  10.012
83141SOL    HW251321   5.338  13.867   9.892
83142SOL     OW51322   7.835   3.381   4.636
83142SOL    HW151323   7.917   3.350   4.674
83142SOL    HW251324   7.862   3.448   4.573
83143SOL     OW51325   7.581   5.794   8.320
83143SOL    HW151326   7.634   5.719   8.292
83143SOL    HW251327   7.523   5.811   8.245
83144SOL     OW51328   7.921   0.611   5.950
83144SOL    HW151329   7.968   0.557   5.886
83144SOL    HW251330   7.833   0.573   5.953
83145SOL     OW51331   9.069   2.234   8.283
83145SOL    HW151332   9.088   2.183   8.362
83145SOL    HW251333   8.973   2.233   8.277
83146SOL     OW51334   8.101   7.078  13.613
83146SOL    HW151335   8.107   6.989  13.577
83146SOL    HW251336   8.029   7.074  13.675
83147SOL     OW51337   8.756   4.265   8.449
83147SOL    HW151338   8.770   4.225   8.534
83147SOL    HW251339   8.737   4.357   8.468
83148SOL     OW51340  11.085   6.733  11.666
83148SOL    HW151341  11.076   6.761  11.575
83148SOL    HW251342  11.093   6.814  11.716
83149SOL     OW51343  10.133  10.401   9.099
83149SOL    HW151344  10.162  10.342   9.169
83149SOL    HW251345  10.059  10.449   9.138
83150SOL     OW51346  13.447   9.235  10.469
83150SOL    HW151347  13.358   9.258  10.493
83150SOL    HW251348  13.462   9.281  10.386
83151SOL     OW51349   2.476   1.463   5.399
83151SOL    HW151350   2.418   1.466   5.323
83151SOL    HW251351   2.473   1.372   5.428
83152SOL     OW51352  13.804   4.435  11.475
83152SOL    HW151353  13.790   4.341  11.488
83152SOL    HW251354  13.717   4.471  11.461
83153SOL     OW51355   7.141   5.991   5.763
83153SOL    HW151356   7.057   6.008   5.807
83153SOL    HW251357   7.116   5.952   5.680
83154SOL     OW51358   2.027  14.061   7.256
83154SOL    HW151359   1.992  14.149   7.263
83154SOL    HW251360   2.035  14.045   7.162
83155SOL     OW51361   1.083   7.867  11.449
83155SOL    HW151362   1.091   7.849  11.543
83155SOL    HW251363   1.127   7.793  11.407
83156SOL     OW51364   9.542  12.054   3.025
83156SOL    HW151365   9.508  12.096   2.946
83156SOL    HW251366   9.633  12.034   3.005
83157SOL     OW51367   8.228   9.898   6.363
83157SOL    HW151368   8.318   9.865   6.372
83157SOL    HW251369   8.199   9.915   6.453
83158SOL     OW51370  11.839  10.190   0.683
83158SOL    HW151371  11.814  10.251   0.752
83158SOL    HW251372  11.786  10.215   0.607
83159SOL     OW51373   4.799   3.721  13.743
83159SOL    HW151374   4.781   3.649  13.805
83159SOL    HW251375   4.838   3.790  13.797
83160SOL     OW51376   1.191  10.084   2.720
83160SOL    HW151377   1.101  10.065   2.746
83160SOL    HW251378   1.238  10.091   2.803
83161SOL     OW51379   2.979   4.212   1.527
83161SOL    HW151380   2.983   4.200   1.622
83161SOL    HW251381   2.890   4.187   1.504
83162SOL     OW51382   3.936   6.028  10.619
83162SOL    HW151383   3.934   6.121  10.597
83162SOL    HW251384   4.029   6.005  10.618
83163SOL     OW51385   5.154   4.292   0.821
83163SOL    HW151386   5.181   4.342   0.897
83163SOL    HW251387   5.096   4.350   0.772
83164SOL     OW51388  11.261   5.759  10.023
83164SOL    HW151389  11.339   5.815  10.029
83164SOL    HW251390  11.295   5.670  10.019
83165SOL     OW51391   1.070  13.063   9.364
83165SOL    HW151392   1.006  13.093   9.300
83165SOL    HW251393   1.149  13.114   9.346
83166SOL     OW51394   1.929   3.298   5.185
83166SOL    HW151395   1.975   3.250   5.254
83166SOL    HW251396   1.948   3.390   5.203
83167SOL     OW51397  10.013   2.913  12.843
83167SOL    HW151398   9.972   2.870  12.918
83167SOL    HW251399  10.062   2.842  12.799
83168SOL     OW51400   6.997  12.054   9.814
83168SOL    HW151401   7.070  12.000   9.785
83168SOL    HW251402   6.989  12.037   9.907
83169SOL     OW51403   6.509  14.835   2.997
83169SOL    HW151404   6.440  14.780   2.959
83169SOL    HW251405   6.463   0.031   3.050
83170SOL     OW51406  14.761   2.884   0.297
83170SOL    HW151407  14.700   2.816   0.327
83170SOL    HW251408  14.781   2.934   0.376
83171SOL     OW51409   1.039   4.673   9.914
83171SOL    HW151410   1.128   4.647   9.892
83171SOL    HW251411   1.008   4.720   9.836
83172SOL     OW51412  11.039   7.339   7.130
83172SOL    HW151413  11.063   7.260   7.082
83172SOL    HW251414  11.082   7.329   7.215
83173SOL     OW51415   4.300   2.076   1.782
83173SOL    HW151416   4.249   2.155   1.799
83173SOL    HW251417   4.307   2.033   1.867
83174SOL     OW51418   5.423   3.504   1.272
83174SOL    HW151419   5.462   3.589   1.249
83174SOL    HW251420   5.412   3.508   1.367
83175SOL     OW51421   3.047   8.957   5.513
83175SOL    HW151422   3.072   9.049   5.519
83175SOL    HW251423   2.979   8.947   5.580
83176SOL     OW51424   3.515   2.732  13.805
83176SOL    HW151425   3.486   2.650  13.844
83176SOL    HW251426   3.460   2.799  13.847
83177SOL     OW51427   6.714  13.772   1.416
83177SOL    HW151428   6.761  13.692   1.394
83177SOL    HW251429   6.654  13.786   1.343
83178SOL     OW51430   3.637   5.494   5.360
83178SOL    HW151431   3.687   5.575   5.359
83178SOL    HW251432   3.681   5.437   5.297
83179SOL     OW51433  14.587   1.912   3.868
83179SOL    HW151434  14.556   1.822   3.881
83179SOL    HW251435  14.674   1.914   3.908
83180SOL     OW51436   9.662  13.860  12.910
83180SOL    HW151437   9.602  13.790  12.935
83180SOL    HW251438   9.701  13.890  12.992
83181SOL     OW51439  10.358   5.011   1.964
83181SOL    HW151440  10.452   5.008   1.984
83181SOL    HW251441  10.354   5.021   1.869
83182SOL     OW51442   5.902   0.650   9.604
83182SOL    HW151443   5.909   0.609   9.518
83182SOL    HW251444   5.988   0.690   9.619
83183SOL     OW51445   3.961   0.025  12.198
83183SOL    HW151446   4.001   0.110  12.217
83183SOL    HW251447   3.881   0.046  12.150
83184SOL     OW51448   9.980  11.266   1.236
83184SOL    HW151449   9.934  11.350   1.238
83184SOL    HW251450   9.955  11.222   1.317
83185SOL     OW51451   6.787   1.564   2.825
83185SOL    HW151452   6.820   1.633   2.883
83185SOL    HW251453   6.741   1.503   2.884
83186SOL     OW51454   1.167  12.452   8.970
83186SOL    HW151455   1.207  12.366   8.976
83186SOL    HW251456   1.173  12.488   9.058
83187SOL     OW51457  14.456   9.637   4.061
83187SOL    HW151458  14.484   9.630   3.970
83187SOL    HW251459  14.374   9.685   4.057
83188SOL     OW51460  10.390   5.251   0.868
83188SOL    HW151461  10.401   5.157   0.881
83188SOL    HW251462  10.439   5.269   0.787
83189SOL     OW51463   3.014   2.771  11.676
83189SOL    HW151464   2.957   2.814  11.613
83189SOL    HW251465   3.041   2.690  11.634
83190SOL     OW51466  12.436  10.309   6.339
83190SOL    HW151467  12.455  10.221   6.307
83190SOL    HW251468  12.521  10.353   6.341
83191SOL     OW51469   8.274   6.565   9.246
83191SOL    HW151470   8.187   6.566   9.287
83191SOL    HW251471   8.276   6.645   9.193
83192SOL     OW51472   0.406  13.797  12.456
83192SOL    HW151473   0.436  13.708  12.438
83192SOL    HW251474   0.484  13.844  12.484
83193SOL     OW51475   9.071   9.583   1.363
83193SOL    HW151476   9.123   9.645   1.414
83193SOL    HW251477   8.984   9.586   1.403
83194SOL     OW51478   0.145   9.540   2.571
83194SOL    HW151479   0.202   9.603   2.526
83194SOL    HW251480   0.057   9.574   2.559
83195SOL     OW51481   7.282   4.386   7.978
83195SOL    HW151482   7.196   4.346   7.989
83195SOL    HW251483   7.307   4.366   7.888
83196SOL     OW51484  10.651  11.941   9.490
83196SOL    HW151485  10.708  11.866   9.479
83196SOL    HW251486  10.663  11.992   9.410
83197SOL     OW51487   1.375  13.888   4.139
83197SOL    HW151488   1.359  13.962   4.081
83197SOL    HW251489   1.294  13.838   4.138
83198SOL     OW51490  13.769  12.309  12.649
83198SOL    HW151491  13.805  12.268  12.570
83198SOL    HW251492  13.788  12.247  12.719
83199SOL     OW51493  14.431   4.249   1.263
83199SOL    HW151494  14.495   4.264   1.193
83199SOL    HW251495  14.436   4.154   1.280
83200SOL     OW51496   0.559  11.561   0.815
83200SOL    HW151497   0.587  11.620   0.746
83200SOL    HW251498   0.638  11.545   0.867
83201SOL     OW51499  13.890   6.713   8.163
83201SOL    HW151500  13.815   6.661   8.190
83201SOL    HW251501  13.920   6.757   8.242
83202SOL     OW51502   0.217  14.223  14.823
83202SOL    HW151503   0.153  14.182  14.765
83202SOL    HW251504   0.298  14.174  14.808
83203SOL     OW51505   0.621   4.737   7.728
83203SOL    HW151506   0.590   4.648   7.714
83203SOL    HW251507   0.560   4.774   7.791
83204SOL     OW51508   2.110   6.588   2.266
83204SOL    HW151509   2.031   6.548   2.302
83204SOL    HW251510   2.084   6.678   2.246
83205SOL     OW51511  10.330  12.180   2.775
83205SOL    HW151512  10.360  12.108   2.721
83205SOL    HW251513  10.316  12.252   2.714
83206SOL     OW51514   5.351   9.982   9.807
83206SOL    HW151515   5.406   9.919   9.853
83206SOL    HW251516   5.384  10.068   9.835
83207SOL     OW51517   6.765   0.932  12.158
83207SOL    HW151518   6.827   1.002  12.179
83207SOL    HW251519   6.697   0.974  12.107
83208SOL     OW51520   9.269   3.867   8.607
83208SOL    HW151521   9.190   3.857   8.660
83208SOL    HW251522   9.251   3.818   8.527
83209SOL     OW51523   8.952   5.914  11.993
83209SOL    HW151524   8.861   5.925  11.966
83209SOL    HW251525   8.984   5.842  11.938
83210SOL     OW51526  14.311   1.718   4.768
83210SOL    HW151527  14.324   1.806   4.802
83210SOL    HW251528  14.216   1.704   4.771
83211SOL     OW51529  13.151   6.209   0.799
83211SOL    HW151530  13.132   6.301   0.785
83211SOL    HW251531  13.065   6.167   0.806
83212SOL     OW51532   9.107   8.776   6.570
83212SOL    HW151533   9.160   8.779   6.490
83212SOL    HW251534   9.094   8.868   6.593
83213SOL     OW51535   3.645   0.249   4.250
83213SOL    HW151536   3.592   0.193   4.307
83213SOL    HW251537   3.718   0.193   4.223
83214SOL     OW51538   8.283   6.666   3.413
83214SOL    HW151539   8.308   6.604   3.482
83214SOL    HW251540   8.289   6.615   3.332
83215SOL     OW51541   4.270   6.844   4.388
83215SOL    HW151542   4.348   6.893   4.417
83215SOL    HW251543   4.200   6.874   4.445
83216SOL     OW51544  12.120   9.642   1.514
83216SOL    HW151545  12.044   9.694   1.486
83216SOL    HW251546  12.176   9.639   1.436
83217SOL     OW51547   4.483   9.463   0.022
83217SOL    HW151548   4.451   9.387   0.070
83217SOL    HW251549   4.548   9.429  14.830
83218SOL     OW51550   4.862  13.845   4.112
83218SOL    HW151551   4.902  13.764   4.145
83218SOL    HW251552   4.904  13.915   4.163
83219SOL     OW51553  14.310   7.651  13.537
83219SOL    HW151554  14.394   7.696  13.525
83219SOL    HW251555  14.275   7.643  13.449
83220SOL     OW51556   1.828   9.543  12.346
83220SOL    HW151557   1.822   9.452  12.317
83220SOL    HW251558   1.737   9.566  12.368
83221SOL     OW51559   1.288   8.514   8.129
83221SOL    HW151560   1.320   8.491   8.216
83221SOL    HW251561   1.214   8.572   8.146
83222SOL     OW51562  13.308   3.790   1.224
83222SOL    HW151563  13.358   3.803   1.144
83222SOL    HW251564  13.216   3.795   1.197
83223SOL     OW51565   7.147   2.914  14.486
83223SOL    HW151566   7.082   2.896  14.418
83223SOL    HW251567   7.138   2.841  14.548
83224SOL     OW51568   4.881  13.134  11.580
83224SOL    HW151569   4.840  13.055  11.613
83224SOL    HW251570   4.820  13.167  11.514
83225SOL     OW51571  12.927  10.845  10.485
83225SOL    HW151572  12.930  10.750  10.490
83225SOL    HW251573  12.910  10.863  10.392
83226SOL     OW51574   9.146   8.394  11.581
83226SOL    HW151575   9.198   8.364  11.506
83226SOL    HW251576   9.064   8.425  11.543
83227SOL     OW51577   2.525   4.974   3.522
83227SOL    HW151578   2.448   5.001   3.472
83227SOL    HW251579   2.490   4.942   3.605
83228SOL     OW51580  12.873   9.198   8.861
83228SOL    HW151581  12.892   9.179   8.769
83228SOL    HW251582  12.911   9.285   8.875
83229SOL     OW51583   9.223   7.392   5.049
83229SOL    HW151584   9.135   7.375   5.080
83229SOL    HW251585   9.260   7.454   5.112
83230SOL     OW51586   7.770   6.025   4.777
83230SOL    HW151587   7.730   5.981   4.702
83230SOL    HW251588   7.834   6.085   4.738
83231SOL     OW51589   8.315  13.751   6.849
83231SOL    HW151590   8.380  13.784   6.787
83231SOL    HW251591   8.233  13.795   6.824
83232SOL     OW51592   8.084  14.333   4.708
83232SOL    HW151593   8.062  14.247   4.672
83232SOL    HW251594   8.042  14.396   4.649
83233SOL     OW51595   3.887  12.543   5.269
83233SOL    HW151596   3.968  12.593   5.258
83233SOL    HW251597   3.844  12.582   5.345
83234SOL     OW51598   1.179  10.973  11.258
83234SOL    HW151599   1.190  11.064  11.230
83234SOL    HW251600   1.243  10.924  11.207
83235SOL     OW51601   2.409   2.838   7.546
83235SOL    HW151602   2.422   2.811   7.455
83235SOL    HW251603   2.470   2.911   7.558
83236SOL     OW51604   6.772   3.716  13.425
83236SOL    HW151605   6.691   3.764  13.441
83236SOL    HW251606   6.817   3.766  13.357
83237SOL     OW51607   0.279   9.719   9.903
83237SOL    HW151608   0.263   9.630   9.933
83237SOL    HW251609   0.206   9.770   9.938
83238SOL     OW51610  12.771   8.930  10.448
83238SOL    HW151611  12.786   8.872  10.373
83238SOL    HW251612  12.839   8.996  10.441
83239SOL     OW51613   3.790   9.154   7.552
83239SOL    HW151614   3.849   9.218   7.592
83239SOL    HW251615   3.724   9.137   7.619
83240SOL     OW51616  12.482   1.691   8.282
83240SOL    HW151617  12.476   1.616   8.340
83240SOL    HW251618  12.571   1.686   8.245
83241SOL     OW51619   9.583  14.442   9.820
83241SOL    HW151620   9.678  14.444   9.832
83241SOL    HW251621   9.567  14.499   9.745
83242SOL     OW51622   0.845  13.960  10.347
83242SOL    HW151623   0.855  13.910  10.428
83242SOL    HW251624   0.843  13.894  10.278
83243SOL     OW51625   7.335  13.828   6.201
83243SOL    HW151626   7.285  13.746   6.202
83243SOL    HW251627   7.268  13.897   6.197
83244SOL     OW51628   0.588   3.217  10.027
83244SOL    HW151629   0.496   3.243  10.016
83244SOL    HW251630   0.613   3.181   9.942
83245SOL     OW51631  11.693   3.751   9.672
83245SOL    HW151632  11.738   3.835   9.658
83245SOL    HW251633  11.721   3.696   9.599
83246SOL     OW51634   4.252  10.661   5.024
83246SOL    HW151635   4.301  10.621   5.096
83246SOL    HW251636   4.217  10.587   4.975
83247SOL     OW51637   6.578  10.495   8.181
83247SOL    HW151638   6.640  10.446   8.127
83247SOL    HW251639   6.628  10.570   8.213
83248SOL     OW51640  10.017   5.169   3.977
83248SOL    HW151641  10.068   5.200   4.052
83248SOL    HW251642  10.010   5.245   3.919
83249SOL     OW51643   7.956   3.564   9.824
83249SOL    HW151644   7.868   3.581   9.791
83249SOL    HW251645   7.947   3.485   9.877
83250SOL     OW51646  14.606   4.854  13.705
83250SOL    HW151647  14.678   4.834  13.646
83250SOL    HW251648  14.624   4.802  13.783
83251SOL     OW51649   5.732  12.134  11.395
83251SOL    HW151650   5.824  12.159  11.394
83251SOL    HW251651   5.685  12.213  11.367
83252SOL     OW51652   4.472   7.261  12.757
83252SOL    HW151653   4.514   7.196  12.700
83252SOL    HW251654   4.507   7.345  12.728
83253SOL     OW51655  10.369  11.173   2.355
83253SOL    HW151656  10.311  11.221   2.297
83253SOL    HW251657  10.435  11.136   2.298
83254SOL     OW51658   6.521  11.584   8.437
83254SOL    HW151659   6.430  11.611   8.443
83254SOL    HW251660   6.568  11.644   8.495
83255SOL     OW51661   8.673   4.152  13.664
83255SOL    HW151662   8.640   4.201  13.740
83255SOL    HW251663   8.635   4.064  13.674
83256SOL     OW51664  12.762   6.810   0.001
83256SOL    HW151665  12.802   6.881   0.051
83256SOL    HW251666  12.734   6.851  14.787
83257SOL     OW51667   8.050  10.501   8.182
83257SOL    HW151668   8.107  10.478   8.108
83257SOL    HW251669   8.104  10.554   8.239
83258SOL     OW51670  13.255   4.895   9.290
83258SOL    HW151671  13.219   4.979   9.316
83258SOL    HW251672  13.286   4.856   9.372
83259SOL     OW51673   1.942  11.748  11.044
83259SOL    HW151674   1.861  11.715  11.083
83259SOL    HW251675   1.997  11.671  11.034
83260SOL     OW51676   7.820   5.907  14.300
83260SOL    HW151677   7.759   5.980  14.287
83260SOL    HW251678   7.876   5.935  14.372
83261SOL     OW51679   9.206   2.311  11.917
83261SOL    HW151680   9.138   2.369  11.951
83261SOL    HW251681   9.288   2.356  11.935
83262SOL     OW51682  10.146   1.578   6.689
83262SOL    HW151683  10.231   1.600   6.652
83262SOL    HW251684  10.087   1.645   6.654
83263SOL     OW51685   2.735  13.861   7.376
83263SOL    HW151686   2.789  13.836   7.451
83263SOL    HW251687   2.779  13.824   7.300
83264SOL     OW51688  10.042  14.800   8.213
83264SOL    HW151689  10.111  14.735   8.202
83264SOL    HW251690   9.967  14.751   8.247
83265SOL     OW51691   4.011   0.964   8.725
83265SOL    HW151692   3.992   0.996   8.637
83265SOL    HW251693   4.036   0.872   8.712
83266SOL     OW51694   2.633   2.003  13.632
83266SOL    HW151695   2.557   1.975  13.682
83266SOL    HW251696   2.689   1.926  13.626
83267SOL     OW51697  14.148   1.521   0.462
83267SOL    HW151698  14.195   1.466   0.524
83267SOL    HW251699  14.211   1.589   0.438
83268SOL     OW51700   1.019   3.497  14.331
83268SOL    HW151701   1.002   3.439  14.405
83268SOL    HW251702   1.112   3.520  14.339
83269SOL     OW51703   0.977  10.267   2.628
83269SOL    HW151704   1.022  10.339   2.584
83269SOL    HW251705   1.007  10.271   2.718
83270SOL     OW51706   0.716   7.606   7.246
83270SOL    HW151707   0.701   7.615   7.152
83270SOL    HW251708   0.704   7.512   7.263
83271SOL     OW51709   4.923  14.419   7.475
83271SOL    HW151710   4.998  14.451   7.425
83271SOL    HW251711   4.943  14.442   7.566
83272SOL     OW51712   8.285   9.479   1.992
83272SOL    HW151713   8.340   9.406   1.963
83272SOL    HW251714   8.220   9.489   1.923
83273SOL     OW51715   4.747  13.324   9.336
83273SOL    HW151716   4.829  13.283   9.307
83273SOL    HW251717   4.686  13.251   9.345
83274SOL     OW51718   3.108   1.227  13.225
83274SOL    HW151719   3.124   1.222  13.131
83274SOL    HW251720   3.154   1.151  13.261
83275SOL     OW51721   3.548  10.072   0.351
83275SOL    HW151722   3.580  10.083   0.441
83275SOL    HW251723   3.529   9.978   0.344
83276SOL     OW51724  12.000   1.438  14.575
83276SOL    HW151725  12.085   1.397  14.588
83276SOL    HW251726  12.018   1.532  14.580
83277SOL     OW51727   8.920   6.122  11.287
83277SOL    HW151728   8.926   6.195  11.349
83277SOL    HW251729   8.828   6.123  11.259
83278SOL     OW51730   2.650  10.607  13.769
83278SOL    HW151731   2.565  10.651  13.760
83278SOL    HW251732   2.628  10.514  13.762
83279SOL     OW51733   7.803   6.623   5.561
83279SOL    HW151734   7.833   6.709   5.591
83279SOL    HW251735   7.830   6.619   5.469
83280SOL     OW51736  12.547   3.582   6.179
83280SOL    HW151737  12.489   3.525   6.128
83280SOL    HW251738  12.636   3.554   6.154
83281SOL     OW51739  10.146   0.237  10.375
83281SOL    HW151740  10.130   0.147  10.346
83281SOL    HW251741  10.158   0.230  10.469
83282SOL     OW51742   7.584   0.857   3.667
83282SOL    HW151743   7.678   0.847   3.654
83282SOL    HW251744   7.553   0.770   3.691
83283SOL     OW51745  13.513   1.211  12.930
83283SOL    HW151746  13.523   1.128  12.977
83283SOL    HW251747  13.422   1.236  12.945
83284SOL     OW51748   6.440   1.276   0.925
83284SOL    HW151749   6.516   1.222   0.903
83284SOL    HW251750   6.434   1.339   0.853
83285SOL     OW51751   5.274   9.989  10.993
83285SOL    HW151752   5.339  10.040  11.042
83285SOL    HW251753   5.242  10.049  10.926
83286SOL     OW51754  11.000   1.321  10.640
83286SOL    HW151755  11.029   1.350  10.554
83286SOL    HW251756  11.033   1.387  10.700
83287SOL     OW51757  14.745  11.567  13.136
83287SOL    HW151758  14.750  11.656  13.171
83287SOL    HW251759  14.692  11.519  13.200
83288SOL     OW51760   7.100   4.185   9.213
83288SOL    HW151761   7.087   4.242   9.138
83288SOL    HW251762   7.104   4.244   9.288
83289SOL     OW51763   3.100  10.699  10.514
83289SOL    HW151764   3.187  10.660  10.512
83289SOL    HW251765   3.113  10.788  10.480
83290SOL     OW51766   0.021   3.389   3.424
83290SOL    HW151767   0.105   3.366   3.385
83290SOL    HW251768   0.043   3.436   3.504
83291SOL     OW51769   5.521  14.788   0.691
83291SOL    HW151770   5.499  14.762   0.602
83291SOL    HW251771   5.459  14.742   0.747
83292SOL     OW51772   4.025  13.633   0.245
83292SOL    HW151773   3.944  13.605   0.288
83292SOL    HW251774   4.030  13.581   0.165
83293SOL     OW51775  10.974   3.413  13.305
83293SOL    HW151776  11.040   3.464  13.351
83293SOL    HW251777  10.940   3.353  13.371
83294SOL     OW51778   6.636   2.015   7.349
83294SOL    HW151779   6.719   2.041   7.388
83294SOL    HW251780   6.622   1.925   7.379
83295SOL     OW51781   3.769   3.047   4.206
83295SOL    HW151782   3.685   3.092   4.210
83295SOL    HW251783   3.746   2.954   4.217
83296SOL     OW51784   1.230   2.443   8.352
83296SOL    HW151785   1.158   2.380   8.353
83296SOL    HW251786   1.309   2.388   8.350
83297SOL     OW51787   0.831   6.012   0.250
83297SOL    HW151788   0.788   6.059   0.179
83297SOL    HW251789   0.844   5.924   0.217
83298SOL     OW51790   0.209   1.164   0.389
83298SOL    HW151791   0.156   1.168   0.310
83298SOL    HW251792   0.257   1.247   0.390
83299SOL     OW51793   8.168   2.452  12.903
83299SOL    HW151794   8.196   2.534  12.863
83299SOL    HW251795   8.125   2.404  12.833
83300SOL     OW51796  10.559   2.893   7.015
83300SOL    HW151797  10.577   2.855   7.101
83300SOL    HW251798  10.561   2.987   7.029
83301SOL     OW51799   5.665   3.790  10.162
83301SOL    HW151800   5.607   3.718  10.137
83301SOL    HW251801   5.612   3.869  10.151
83302SOL     OW51802   0.281   2.668   7.596
83302SOL    HW151803   0.190   2.659   7.622
83302SOL    HW251804   0.280   2.667   7.500
83303SOL     OW51805  12.193  14.502   2.917
83303SOL    HW151806  12.172  14.459   3.000
83303SOL    HW251807  12.194  14.595   2.938
83304SOL     OW51808   3.002   7.238  12.663
83304SOL    HW151809   3.062   7.267  12.595
83304SOL    HW251810   3.008   7.305  12.731
83305SOL     OW51811  13.656  11.019  10.495
83305SOL    HW151812  13.579  10.974  10.460
83305SOL    HW251813  13.730  10.978  10.450
83306SOL     OW51814   5.141   9.491  14.245
83306SOL    HW151815   5.235   9.493  14.232
83306SOL    HW251816   5.123   9.563  14.306
83307SOL     OW51817   8.994   1.801  13.317
83307SOL    HW151818   8.975   1.762  13.402
83307SOL    HW251819   8.932   1.874  13.310
83308SOL     OW51820   2.909   5.167   3.133
83308SOL    HW151821   2.920   5.140   3.041
83308SOL    HW251822   2.828   5.123   3.160
83309SOL     OW51823   7.497   2.607  14.230
83309SOL    HW151824   7.505   2.701  14.249
83309SOL    HW251825   7.404   2.595  14.209
83310SOL     OW51826  12.461   9.598   3.393
83310SOL    HW151827  12.443   9.691   3.405
83310SOL    HW251828  12.396   9.554   3.448
83311SOL     OW51829   8.566  11.893  10.993
83311SOL    HW151830   8.478  11.862  11.016
83311SOL    HW251831   8.602  11.927  11.075
83312SOL     OW51832   0.040   5.251  12.351
83312SOL    HW151833  14.835   5.193  12.326
83312SOL    HW251834   0.119   5.201  12.329
83313SOL     OW51835  11.211  14.766  12.824
83313SOL    HW151836  11.168  14.781  12.908
83313SOL    HW251837  11.287  14.823  12.825
83314SOL     OW51838  12.473  12.329   2.349
83314SOL    HW151839  12.525  12.388   2.293
83314SOL    HW251840  12.406  12.294   2.290
83315SOL     OW51841   0.667  13.969   3.852
83315SOL    HW151842   0.607  13.919   3.797
83315SOL    HW251843   0.632  13.960   3.940
83316SOL     OW51844  11.700  10.206  10.582
83316SOL    HW151845  11.778  10.159  10.551
83316SOL    HW251846  11.656  10.235  10.502
83317SOL     OW51847  13.368   4.576   3.634
83317SOL    HW151848  13.320   4.577   3.551
83317SOL    HW251849  13.434   4.645   3.624
83318SOL     OW51850   9.000  11.691   1.490
83318SOL    HW151851   8.966  11.691   1.400
83318SOL    HW251852   9.003  11.598   1.514
83319SOL     OW51853   5.563   7.708   4.790
83319SOL    HW151854   5.538   7.616   4.802
83319SOL    HW251855   5.656   7.705   4.768
83320SOL     OW51856  12.383   7.701   7.599
83320SOL    HW151857  12.326   7.624   7.605
83320SOL    HW251858  12.362   7.739   7.513
83321SOL     OW51859   7.769   3.278   5.287
83321SOL    HW151860   7.754   3.361   5.242
83321SOL    HW251861   7.788   3.303   5.378
83322SOL     OW51862   1.485   4.133  11.855
83322SOL    HW151863   1.574   4.155  11.828
83322SOL    HW251864   1.452   4.077  11.785
83323SOL     OW51865   0.327   7.827  11.430
83323SOL    HW151866   0.331   7.739  11.468
83323SOL    HW251867   0.332   7.812  11.336
83324SOL     OW51868   4.066  14.270  10.390
83324SOL    HW151869   4.126  14.256  10.463
83324SOL    HW251870   4.061  14.185  10.346
83325SOL     OW51871   6.147   2.734   6.733
83325SOL    HW151872   6.135   2.650   6.688
83325SOL    HW251873   6.242   2.748   6.732
83326SOL     OW51874  13.496  12.255  13.727
83326SOL    HW151875  13.416  12.306  13.741
83326SOL    HW251876  13.527  12.236  13.816
83327SOL     OW51877   4.341   5.963  11.783
83327SOL    HW151878   4.374   6.034  11.838
83327SOL    HW251879   4.264   5.930  11.829
83328SOL     OW51880  10.000   7.528   5.291
83328SOL    HW151881   9.924   7.556   5.341
83328SOL    HW251882  10.027   7.607   5.242
83329SOL     OW51883  11.712  11.608   9.998
83329SOL    HW151884  11.732  11.573   9.911
83329SOL    HW251885  11.672  11.535  10.045
83330SOL     OW51886   0.611   0.514  12.834
83330SOL    HW151887   0.673   0.444  12.854
83330SOL    HW251888   0.577   0.542  12.919
83331SOL     OW51889  14.280   5.794  14.637
83331SOL    HW151890  14.342   5.726  14.611
83331SOL    HW251891  14.335   5.871  14.652
83332SOL     OW51892  14.449  14.253  13.940
83332SOL    HW151893  14.437  14.329  13.996
83332SOL    HW251894  14.542  14.233  13.948
83333SOL     OW51895   2.667  10.084  14.262
83333SOL    HW151896   2.742  10.029  14.240
83333SOL    HW251897   2.700  10.174  14.256
83334SOL     OW51898  11.624   2.667   0.104
83334SOL    HW151899  11.703   2.662   0.051
83334SOL    HW251900  11.606   2.761   0.111
83335SOL     OW51901   9.889   7.894  11.160
83335SOL    HW151902   9.981   7.911  11.140
83335SOL    HW251903   9.841   7.957  11.107
83336SOL     OW51904  14.753   8.837   9.487
83336SOL    HW151905  14.729   8.772   9.553
83336SOL    HW251906  14.695   8.911   9.505
83337SOL     OW51907   3.213   9.693  11.168
83337SOL    HW151908   3.222   9.775  11.119
83337SOL    HW251909   3.156   9.715  11.242
83338SOL     OW51910   6.905  10.833  12.744
83338SOL    HW151911   6.939  10.809  12.830
83338SOL    HW251912   6.810  10.831  12.755
83339SOL     OW51913   2.002   9.769  11.044
83339SOL    HW151914   1.912   9.761  11.013
83339SOL    HW251915   2.052   9.795  10.967
83340SOL     OW51916   7.087  12.121   8.996
83340SOL    HW151917   7.071  12.214   9.013
83340SOL    HW251918   7.038  12.076   9.064
83341SOL     OW51919   7.069   3.216  14.323
83341SOL    HW151920   7.082   3.217  14.418
83341SOL    HW251921   7.149   3.174  14.289
83342SOL     OW51922   8.722  11.710   4.337
83342SOL    HW151923   8.629  11.703   4.355
83342SOL    HW251924   8.738  11.805   4.328
83343SOL     OW51925   6.254   4.062   9.411
83343SOL    HW151926   6.293   4.081   9.325
83343SOL    HW251927   6.257   3.967   9.418
83344SOL     OW51928   8.194   8.099   8.422
83344SOL    HW151929   8.156   8.090   8.509
83344SOL    HW251930   8.275   8.149   8.436
83345SOL     OW51931  10.674   9.071   2.435
83345SOL    HW151932  10.761   9.091   2.401
83345SOL    HW251933  10.673   8.976   2.445
83346SOL     OW51934   3.559   1.460   0.116
83346SOL    HW151935   3.618   1.525   0.154
83346SOL    HW251936   3.491   1.447   0.182
83347SOL     OW51937  12.058   2.640   5.335
83347SOL    HW151938  12.045   2.635   5.430
83347SOL    HW251939  12.100   2.725   5.322
83348SOL     OW51940  13.938   4.170  13.626
83348SOL    HW151941  13.932   4.245  13.685
83348SOL    HW251942  14.013   4.119  13.658
83349SOL     OW51943   7.725   3.505  14.217
83349SOL    HW151944   7.806   3.554  14.201
83349SOL    HW251945   7.666   3.570  14.257
83350SOL     OW51946  10.868   7.235  14.688
83350SOL    HW151947  10.915   7.261  14.609
83350SOL    HW251948  10.933   7.239  14.758
83351SOL     OW51949   7.414  10.195   2.081
83351SOL    HW151950   7.427  10.241   2.164
83351SOL    HW251951   7.492  10.139   2.072
83352SOL     OW51952   9.305   9.186   2.419
83352SOL    HW151953   9.309   9.109   2.361
83352SOL    HW251954   9.224   9.174   2.469
83353SOL     OW51955   2.197   9.432  12.078
83353SOL    HW151956   2.161   9.431  11.989
83353SOL    HW251957   2.290   9.411  12.066
83354SOL     OW51958   5.282  10.204   1.889
83354SOL    HW151959   5.191  10.185   1.912
83354SOL    HW251960   5.282  10.298   1.871
83355SOL     OW51961   8.732   1.823  14.355
83355SOL    HW151962   8.706   1.789  14.270
83355SOL    HW251963   8.653   1.864  14.390
83356SOL     OW51964   9.594  12.827  11.233
83356SOL    HW151965   9.521  12.888  11.220
83356SOL    HW251966   9.561  12.743  11.202
83357SOL     OW51967  10.408   6.257   5.776
83357SOL    HW151968  10.390   6.187   5.839
83357SOL    HW251969  10.455   6.323   5.827
83358SOL     OW51970   2.101   9.214  13.552
83358SOL    HW151971   2.123   9.294  13.505
83358SOL    HW251972   2.098   9.239  13.644
83359SOL     OW51973   7.088  11.510   7.985
83359SOL    HW151974   7.181  11.532   7.975
83359SOL    HW251975   7.078  11.493   8.079
83360SOL     OW51976   5.486  14.202   2.940
83360SOL    HW151977   5.488  14.106   2.948
83360SOL    HW251978   5.569  14.223   2.897
83361SOL     OW51979   0.517   4.011   8.298
83361SOL    HW151980   0.547   3.921   8.306
83361SOL    HW251981   0.443   4.017   8.358
83362SOL     OW51982   2.096  13.641   9.296
83362SOL    HW151983   2.033  13.570   9.287
83362SOL    HW251984   2.053  13.716   9.254
83363SOL     OW51985   5.729   0.622  10.276
83363SOL    HW151986   5.705   0.649  10.365
83363SOL    HW251987   5.663   0.558  10.251
83364SOL     OW51988   0.024   2.461   6.604
83364SOL    HW151989   0.082   2.507   6.544
83364SOL    HW251990  14.818   2.520   6.617
83365SOL     OW51991   4.984  13.536  13.246
83365SOL    HW151992   5.039  13.614  13.242
83365SOL    HW251993   4.932  13.547  13.326
83366SOL     OW51994   9.453   6.148   2.052
83366SOL    HW151995   9.398   6.083   2.008
83366SOL    HW251996   9.537   6.145   2.006
83367SOL     OW51997  10.027   5.239   3.391
83367SOL    HW151998   9.952   5.193   3.430
83367SOL    HW251999  10.048   5.187   3.313
83368SOL     OW52000  13.349   6.208   3.810
83368SOL    HW152001  13.343   6.293   3.766
83368SOL    HW252002  13.286   6.152   3.763
83369SOL     OW52003   4.117  12.457   8.630
83369SOL    HW152004   4.182  12.387   8.620
83369SOL    HW252005   4.154  12.530   8.580
83370SOL     OW52006   6.186  10.122   4.437
83370SOL    HW152007   6.094  10.149   4.428
83370SOL    HW252008   6.204  10.129   4.531
83371SOL     OW52009   8.123   6.780   9.056
83371SOL    HW152010   8.098   6.834   8.981
83371SOL    HW252011   8.172   6.840   9.113
83372SOL     OW52012  12.100  11.231   5.613
83372SOL    HW152013  12.146  11.190   5.686
83372SOL    HW252014  12.169  11.266   5.557
83373SOL     OW52015   8.061   9.077  12.792
83373SOL    HW152016   7.995   9.025  12.746
83373SOL    HW252017   8.069   9.035  12.877
83374SOL     OW52018   0.250   5.639   0.346
83374SOL    HW152019   0.281   5.635   0.256
83374SOL    HW252020   0.163   5.679   0.340
83375SOL     OW52021   6.360  10.119   5.209
83375SOL    HW152022   6.433  10.125   5.270
83375SOL    HW252023   6.329  10.029   5.218
83376SOL     OW52024  11.530   5.823   3.626
83376SOL    HW152025  11.536   5.879   3.704
83376SOL    HW252026  11.512   5.735   3.660
83377SOL     OW52027  12.687   5.761   7.286
83377SOL    HW152028  12.667   5.753   7.193
83377SOL    HW252029  12.679   5.671   7.319
83378SOL     OW52030   3.457   7.433   0.432
83378SOL    HW152031   3.443   7.437   0.526
83378SOL    HW252032   3.415   7.351   0.405
83379SOL     OW52033   7.285   2.898   3.615
83379SOL    HW152034   7.372   2.890   3.576
83379SOL    HW252035   7.283   2.831   3.682
83380SOL     OW52036   7.517   4.659  11.584
83380SOL    HW152037   7.433   4.629  11.618
83380SOL    HW252038   7.580   4.595  11.616
83381SOL     OW52039   2.961   7.764   0.874
83381SOL    HW152040   2.898   7.783   0.943
83381SOL    HW252041   3.043   7.803   0.905
83382SOL     OW52042   6.742   3.327  12.775
83382SOL    HW152043   6.796   3.321  12.853
83382SOL    HW252044   6.689   3.406  12.788
83383SOL     OW52045   2.709  11.752   0.952
83383SOL    HW152046   2.693  11.806   1.029
83383SOL    HW252047   2.624  11.714   0.930
83384SOL     OW52048   8.012   4.301  14.120
83384SOL    HW152049   7.993   4.274  14.210
83384SOL    HW252050   7.950   4.373  14.103
83385SOL     OW52051  13.378  11.114  14.333
83385SOL    HW152052  13.302  11.096  14.279
83385SOL    HW252053  13.405  11.203  14.309
83386SOL     OW52054  12.746   2.756  14.248
83386SOL    HW152055  12.736   2.809  14.169
83386SOL    HW252056  12.656   2.734  14.273
83387SOL     OW52057   0.189   2.687   0.814
83387SOL    HW152058   0.134   2.709   0.889
83387SOL    HW252059   0.174   2.593   0.801
83388SOL     OW52060  11.751  13.908   3.325
83388SOL    HW152061  11.777  13.897   3.416
83388SOL    HW252062  11.701  13.990   3.323
83389SOL     OW52063  13.768  11.470  14.148
83389SOL    HW152064  13.754  11.379  14.177
83389SOL    HW252065  13.685  11.513  14.165
83390SOL     OW52066  13.288  14.723  11.558
83390SOL    HW152067  13.266  14.728  11.465
83390SOL    HW252068  13.225  14.782  11.600
83391SOL     OW52069   9.292   1.552   3.194
83391SOL    HW152070   9.290   1.457   3.177
83391SOL    HW252071   9.202   1.581   3.180
83392SOL     OW52072   4.222   7.047   8.037
83392SOL    HW152073   4.148   7.011   8.085
83392SOL    HW252074   4.298   6.996   8.068
83393SOL     OW52075  14.011   4.545  14.625
83393SOL    HW152076  13.961   4.503  14.555
83393SOL    HW252077  13.955   4.616  14.656
83394SOL     OW52078   4.036   3.504   8.784
83394SOL    HW152079   3.957   3.557   8.771
83394SOL    HW252080   4.091   3.557   8.841
83395SOL     OW52081   8.162   7.305   2.406
83395SOL    HW152082   8.074   7.329   2.376
83395SOL    HW252083   8.192   7.240   2.342
83396SOL     OW52084   5.658   8.163  13.791
83396SOL    HW152085   5.650   8.172  13.886
83396SOL    HW252086   5.609   8.083  13.770
83397SOL     OW52087   8.311   9.640   5.028
83397SOL    HW152088   8.224   9.678   5.016
83397SOL    HW252089   8.363   9.711   5.065
83398SOL     OW52090  11.100   7.752   4.778
83398SOL    HW152091  11.008   7.745   4.754
83398SOL    HW252092  11.146   7.693   4.717
83399SOL     OW52093  13.288   6.984   9.442
83399SOL    HW152094  13.366   6.935   9.467
83399SOL    HW252095  13.264   7.032   9.521
83400SOL     OW52096   4.486   6.653  10.030
83400SOL    HW152097   4.409   6.595  10.029
83400SOL    HW252098   4.495   6.678  10.122
83401SOL     OW52099   7.477   1.630   7.292
83401SOL    HW152100   7.523   1.572   7.353
83401SOL    HW252101   7.513   1.717   7.310
83402SOL     OW52102   8.400   0.334  11.220
83402SOL    HW152103   8.457   0.278  11.274
83402SOL    HW252104   8.460   0.377  11.159
83403SOL     OW52105   7.834  12.606  10.018
83403SOL    HW152106   7.829  12.541   9.947
83403SOL    HW252107   7.757  12.660  10.006
83404SOL     OW52108  14.507  11.755   7.952
83404SOL    HW152109  14.545  11.710   8.027
83404SOL    HW252110  14.559  11.835   7.943
83405SOL     OW52111  14.840   9.366  11.546
83405SOL    HW152112  14.816   9.446  11.591
83405SOL    HW252113  14.781   9.362  11.470
83406SOL     OW52114   0.974   9.162   5.831
83406SOL    HW152115   0.931   9.118   5.904
83406SOL    HW252116   1.066   9.167   5.856
83407SOL     OW52117   2.510  12.119  14.282
83407SOL    HW152118   2.594  12.159  14.306
83407SOL    HW252119   2.449  12.149  14.349
83408SOL     OW52120   7.520  12.584   1.131
83408SOL    HW152121   7.587  12.641   1.094
83408SOL    HW252122   7.460  12.566   1.058
83409SOL     OW52123   6.512  10.531   1.465
83409SOL    HW152124   6.525  10.508   1.557
83409SOL    HW252125   6.575  10.600   1.448
83410SOL     OW52126   5.348   7.666  13.611
83410SOL    HW152127   5.422   7.661  13.671
83410SOL    HW252128   5.272   7.642  13.664
83411SOL     OW52129  13.948   7.243   6.327
83411SOL    HW152130  13.923   7.153   6.305
83411SOL    HW252131  14.020   7.232   6.389
83412SOL     OW52132   3.543   0.580  13.501
83412SOL    HW152133   3.592   0.524  13.561
83412SOL    HW252134   3.483   0.629  13.557
83413SOL     OW52135   7.873  13.032  11.043
83413SOL    HW152136   7.959  12.994  11.065
83413SOL    HW252137   7.840  13.064  11.127
83414SOL     OW52138   5.380   1.866  13.511
83414SOL    HW152139   5.404   1.934  13.448
83414SOL    HW252140   5.284   1.862  13.507
83415SOL     OW52141   1.035  14.519   8.419
83415SOL    HW152142   0.980  14.503   8.343
83415SOL    HW252143   1.030  14.438   8.470
83416SOL     OW52144   1.712  10.583   2.214
83416SOL    HW152145   1.716  10.670   2.252
83416SOL    HW252146   1.671  10.596   2.128
83417SOL     OW52147  12.866   2.524  10.912
83417SOL    HW152148  12.907   2.602  10.950
83417SOL    HW252149  12.772   2.545  10.911
83418SOL     OW52150   6.488   2.846   8.480
83418SOL    HW152151   6.437   2.848   8.561
83418SOL    HW252152   6.469   2.760   8.442
83419SOL     OW52153   2.937   6.515   9.082
83419SOL    HW152154   2.855   6.516   9.130
83419SOL    HW252155   2.926   6.447   9.015
83420SOL     OW52156  11.092   0.078   0.185
83420SOL    HW152157  11.141   0.001   0.156
83420SOL    HW252158  11.002   0.046   0.198
83421SOL     OW52159   6.422   8.706   9.948
83421SOL    HW152160   6.338   8.750   9.937
83421SOL    HW252161   6.443   8.719  10.040
83422SOL     OW52162   9.754   2.449   5.144
83422SOL    HW152163   9.845   2.428   5.121
83422SOL    HW252164   9.762   2.514   5.214
83423SOL     OW52165  13.744  13.678   7.580
83423SOL    HW152166  13.830  13.702   7.616
83423SOL    HW252167  13.682  13.706   7.647
83424SOL     OW52168   7.258   4.200   7.704
83424SOL    HW152169   7.214   4.241   7.630
83424SOL    HW252170   7.329   4.149   7.665
83425SOL     OW52171   3.559   2.028  14.008
83425SOL    HW152172   3.505   1.958  14.046
83425SOL    HW252173   3.541   2.024  13.914
83426SOL     OW52174   9.783  12.839  11.428
83426SOL    HW152175   9.799  12.745  11.438
83426SOL    HW252176   9.714  12.845  11.362
83427SOL     OW52177  14.546  11.060   2.642
83427SOL    HW152178  14.595  11.141   2.629
83427SOL    HW252179  14.505  11.042   2.558
83428SOL     OW52180   1.115   4.043  14.813
83428SOL    HW152181   1.081   3.957  14.838
83428SOL    HW252182   1.126   4.089   0.029
83429SOL     OW52183   3.230   7.988   4.312
83429SOL    HW152184   3.307   8.022   4.267
83429SOL    HW252185   3.211   8.052   4.379
83430SOL     OW52186   3.832   2.039   9.202
83430SOL    HW152187   3.752   1.993   9.177
83430SOL    HW252188   3.881   1.976   9.255
83431SOL     OW52189   3.993   3.928   0.412
83431SOL    HW152190   3.912   3.906   0.366
83431SOL    HW252191   3.991   4.024   0.419
83432SOL     OW52192   4.596   1.234   0.263
83432SOL    HW152193   4.525   1.244   0.199
83432SOL    HW252194   4.599   1.319   0.308
83433SOL     OW52195   7.201   2.357   9.911
83433SOL    HW152196   7.142   2.416   9.864
83433SOL    HW252197   7.158   2.272   9.907
83434SOL     OW52198   0.222   9.008  12.984
83434SOL    HW152199   0.274   8.961  13.049
83434SOL    HW252200   0.268   9.091  12.973
83435SOL     OW52201   6.851   0.956   9.855
83435SOL    HW152202   6.826   1.003   9.776
83435SOL    HW252203   6.847   1.022   9.925
83436SOL     OW52204   2.782   7.834   4.177
83436SOL    HW152205   2.721   7.906   4.195
83436SOL    HW252206   2.839   7.832   4.254
83437SOL     OW52207   1.507  10.151   6.635
83437SOL    HW152208   1.485  10.058   6.632
83437SOL    HW252209   1.583  10.155   6.693
83438SOL     OW52210   2.527   1.685   4.102
83438SOL    HW152211   2.543   1.682   4.196
83438SOL    HW252212   2.504   1.595   4.078
83439SOL     OW52213   5.367   8.364  13.371
83439SOL    HW152214   5.334   8.275  13.365
83439SOL    HW252215   5.439   8.359  13.434
83440SOL     OW52216   0.914   2.893   5.251
83440SOL    HW152217   0.927   2.972   5.304
83440SOL    HW252218   0.838   2.913   5.197
83441SOL     OW52219  14.270   1.852   4.488
83441SOL    HW152220  14.334   1.802   4.438
83441SOL    HW252221  14.295   1.839   4.579
83442SOL     OW52222  14.207   7.437   8.122
83442SOL    HW152223  14.277   7.372   8.129
83442SOL    HW252224  14.219   7.476   8.036
83443SOL     OW52225   1.774  13.664   6.607
83443SOL    HW152226   1.757  13.745   6.558
83443SOL    HW252227   1.737  13.680   6.693
83444SOL     OW52228   6.730   5.601   7.327
83444SOL    HW152229   6.720   5.519   7.375
83444SOL    HW252230   6.652   5.652   7.350
83445SOL     OW52231   8.468   2.030  14.773
83445SOL    HW152232   8.453   2.002  14.683
83445SOL    HW252233   8.392   1.997  14.822
83446SOL     OW52234   2.189  13.897  14.170
83446SOL    HW152235   2.149  13.825  14.218
83446SOL    HW252236   2.177  13.874  14.078
83447SOL     OW52237  14.537   2.512   5.198
83447SOL    HW152238  14.589   2.591   5.211
83447SOL    HW252239  14.599   2.446   5.167
83448SOL     OW52240   1.977   5.765  11.259
83448SOL    HW152241   2.024   5.684  11.281
83448SOL    HW252242   1.925   5.785  11.336
83449SOL     OW52243   1.458   8.037  11.132
83449SOL    HW152244   1.385   8.030  11.194
83449SOL    HW252245   1.519   7.969  11.160
83450SOL     OW52246  13.992  10.780   3.552
83450SOL    HW152247  14.013  10.870   3.576
83450SOL    HW252248  13.901  10.768   3.578
83451SOL     OW52249   7.478  14.046   7.080
83451SOL    HW152250   7.533  14.105   7.028
83451SOL    HW252251   7.505  14.062   7.170
83452SOL     OW52252   5.061   4.847  13.089
83452SOL    HW152253   5.089   4.842  12.998
83452SOL    HW252254   5.050   4.940  13.106
83453SOL     OW52255   8.405   4.740  14.321
83453SOL    HW152256   8.482   4.773  14.368
83453SOL    HW252257   8.334   4.798  14.349
83454SOL     OW52258  13.152   1.554   4.342
83454SOL    HW152259  13.078   1.612   4.358
83454SOL    HW252260  13.218   1.610   4.301
83455SOL     OW52261   5.292   2.363   2.532
83455SOL    HW152262   5.341   2.331   2.457
83455SOL    HW252263   5.270   2.285   2.583
83456SOL     OW52264   7.883   4.679   5.215
83456SOL    HW152265   7.887   4.756   5.271
83456SOL    HW252266   7.925   4.610   5.266
83457SOL     OW52267  12.877  10.193   6.307
83457SOL    HW152268  12.784  10.201   6.330
83457SOL    HW252269  12.920  10.167   6.389
83458SOL     OW52270   9.896  13.053   1.815
83458SOL    HW152271   9.841  13.128   1.838
83458SOL    HW252272   9.970  13.059   1.876
83459SOL     OW52273  10.319  11.750   5.661
83459SOL    HW152274  10.323  11.811   5.735
83459SOL    HW252275  10.225  11.733   5.650
83460SOL     OW52276   1.642   4.232   2.687
83460SOL    HW152277   1.731   4.198   2.694
83460SOL    HW252278   1.653   4.327   2.688
83461SOL     OW52279   4.365   7.277  14.347
83461SOL    HW152280   4.344   7.309  14.435
83461SOL    HW252281   4.284   7.289  14.298
83462SOL     OW52282  12.681  10.795   3.804
83462SOL    HW152283  12.643  10.838   3.881
83462SOL    HW252284  12.705  10.868   3.747
83463SOL     OW52285   3.124  10.119   1.871
83463SOL    HW152286   3.055  10.169   1.914
83463SOL    HW252287   3.197  10.120   1.933
83464SOL     OW52288   2.979  13.240   8.919
83464SOL    HW152289   2.908  13.302   8.904
83464SOL    HW252290   3.059  13.292   8.911
83465SOL     OW52291   4.252   5.144   8.683
83465SOL    HW152292   4.332   5.197   8.680
83465SOL    HW252293   4.248   5.104   8.596
83466SOL     OW52294   5.206  10.259  13.009
83466SOL    HW152295   5.178  10.343  13.044
83466SOL    HW252296   5.265  10.282  12.937
83467SOL     OW52297  13.558   3.026   2.930
83467SOL    HW152298  13.532   3.060   2.844
83467SOL    HW252299  13.506   2.947   2.941
83468SOL     OW52300  12.921   2.541   0.722
83468SOL    HW152301  12.991   2.476   0.720
83468SOL    HW252302  12.842   2.491   0.745
83469SOL     OW52303   1.662  13.079  11.637
83469SOL    HW152304   1.599  13.015  11.604
83469SOL    HW252305   1.613  13.161  11.641
83470SOL     OW52306  14.759   0.813  11.683
83470SOL    HW152307  14.854   0.827  11.683
83470SOL    HW252308  14.745   0.739  11.742
83471SOL     OW52309   4.505   4.834   4.651
83471SOL    HW152310   4.531   4.759   4.598
83471SOL    HW252311   4.582   4.853   4.705
83472SOL     OW52312  12.071  13.644  12.637
83472SOL    HW152313  12.104  13.723  12.596
83472SOL    HW252314  12.067  13.665  12.730
83473SOL     OW52315   3.841   7.869   8.745
83473SOL    HW152316   3.837   7.870   8.841
83473SOL    HW252317   3.814   7.957   8.719
83474SOL     OW52318  13.099   0.405   1.134
83474SOL    HW152319  13.175   0.373   1.183
83474SOL    HW252320  13.054   0.464   1.194
83475SOL     OW52321   8.045   9.383   2.838
83475SOL    HW152322   7.952   9.391   2.858
83475SOL    HW252323   8.075   9.309   2.891
83476SOL     OW52324   0.003   4.587   1.751
83476SOL    HW152325  14.817   4.630   1.683
83476SOL    HW252326  14.808   4.561   1.818
83477SOL     OW52327   7.602   6.817   9.064
83477SOL    HW152328   7.692   6.799   9.090
83477SOL    HW252329   7.570   6.734   9.028
83478SOL     OW52330   2.964  11.697   8.142
83478SOL    HW152331   2.953  11.609   8.179
83478SOL    HW252332   3.047  11.693   8.095
83479SOL     OW52333   6.119   3.679   4.597
83479SOL    HW152334   6.208   3.689   4.631
83479SOL    HW252335   6.129   3.625   4.519
83480SOL     OW52336  14.773  14.821  11.443
83480SOL    HW152337  14.712  14.775  11.500
83480SOL    HW252338  14.762  14.780  11.357
83481SOL     OW52339   3.621   7.727   9.560
83481SOL    HW152340   3.591   7.814   9.533
83481SOL    HW252341   3.591   7.669   9.490
83482SOL     OW52342   4.090   7.870  13.463
83482SOL    HW152343   4.178   7.855  13.497
83482SOL    HW252344   4.104   7.892  13.370
83483SOL     OW52345   2.285   7.019   7.893
83483SOL    HW152346   2.330   6.967   7.826
83483SOL    HW252347   2.351   7.082   7.922
83484SOL     OW52348  13.418   8.274   9.087
83484SOL    HW152349  13.414   8.286   9.182
83484SOL    HW252350  13.397   8.182   9.074
83485SOL     OW52351  10.801   2.479   8.268
83485SOL    HW152352  10.765   2.530   8.196
83485SOL    HW252353  10.818   2.543   8.337
83486SOL     OW52354   5.421   1.861   0.940
83486SOL    HW152355   5.496   1.878   0.883
83486SOL    HW252356   5.421   1.934   1.002
83487SOL     OW52357   2.605   5.656  13.132
83487SOL    HW152358   2.552   5.723  13.174
83487SOL    HW252359   2.657   5.618  13.203
83488SOL     OW52360   2.339   5.755  12.568
83488SOL    HW152361   2.258   5.781  12.525
83488SOL    HW252362   2.319   5.670  12.608
83489SOL     OW52363   6.621   9.996   8.735
83489SOL    HW152364   6.581  10.065   8.789
83489SOL    HW252365   6.710   9.988   8.768
83490SOL     OW52366  12.930  12.050   2.693
83490SOL    HW152367  13.007  12.104   2.708
83490SOL    HW252368  12.964  11.967   2.660
83491SOL     OW52369   6.321  10.231  12.698
83491SOL    HW152370   6.344  10.141  12.675
83491SOL    HW252371   6.242  10.223  12.752
83492SOL     OW52372   5.316  11.211  12.310
83492SOL    HW152373   5.222  11.196  12.320
83492SOL    HW252374   5.355  11.124  12.314
83493SOL     OW52375   2.614   6.097  13.397
83493SOL    HW152376   2.581   6.050  13.321
83493SOL    HW252377   2.709   6.102  13.382
83494SOL     OW52378   3.232   5.045  10.712
83494SOL    HW152379   3.241   4.950  10.710
83494SOL    HW252380   3.316   5.077  10.678
83495SOL     OW52381   9.204   6.735   9.689
83495SOL    HW152382   9.259   6.770   9.759
83495SOL    HW252383   9.252   6.755   9.609
83496SOL     OW52384   5.278  10.247   1.199
83496SOL    HW152385   5.211  10.315   1.209
83496SOL    HW252386   5.350  10.291   1.155
83497SOL     OW52387   9.093  13.284   7.498
83497SOL    HW152388   9.044  13.202   7.507
83497SOL    HW252389   9.127  13.301   7.586
83498SOL     OW52390  12.324  13.782  14.058
83498SOL    HW152391  12.369  13.806  14.140
83498SOL    HW252392  12.374  13.708  14.025
83499SOL     OW52393   5.848   5.299   1.657
83499SOL    HW152394   5.904   5.317   1.581
83499SOL    HW252395   5.772   5.355   1.645
83500SOL     OW52396   0.130   9.723   3.316
83500SOL    HW152397   0.104   9.708   3.225
83500SOL    HW252398   0.225   9.721   3.314
83501SOL     OW52399   7.489   2.698   0.505
83501SOL    HW152400   7.533   2.645   0.571
83501SOL    HW252401   7.433   2.636   0.458
83502SOL     OW52402   0.354   0.682  14.065
83502SOL    HW152403   0.409   0.746  14.020
83502SOL    HW252404   0.392   0.597  14.043
83503SOL     OW52405   8.852   3.321   2.574
83503SOL    HW152406   8.942   3.312   2.607
83503SOL    HW252407   8.857   3.392   2.510
83504SOL     OW52408   2.662   8.770   0.749
83504SOL    HW152409   2.603   8.790   0.821
83504SOL    HW252410   2.728   8.712   0.787
83505SOL     OW52411   4.650  13.428   8.769
83505SOL    HW152412   4.713  13.372   8.723
83505SOL    HW252413   4.704  13.496   8.809
83506SOL     OW52414   0.575   0.234   6.944
83506SOL    HW152415   0.557   0.176   7.018
83506SOL    HW252416   0.490   0.270   6.919
83507SOL     OW52417  10.698   1.830  14.012
83507SOL    HW152418  10.661   1.761  14.068
83507SOL    HW252419  10.632   1.899  14.014
83508SOL     OW52420   8.083  11.298  12.990
83508SOL    HW152421   8.119  11.386  12.978
83508SOL    HW252422   8.080  11.286  13.085
83509SOL     OW52423   9.359   8.050   1.949
83509SOL    HW152424   9.421   8.106   1.995
83509SOL    HW252425   9.292   8.030   2.014
83510SOL     OW52426  12.466  14.819   5.591
83510SOL    HW152427  12.510  14.761   5.654
83510SOL    HW252428  12.373  14.811   5.612
83511SOL     OW52429   8.685   6.596  12.520
83511SOL    HW152430   8.729   6.662  12.467
83511SOL    HW252431   8.651   6.533  12.455
83512SOL     OW52432  12.046   9.925  12.888
83512SOL    HW152433  12.071   9.942  12.979
83512SOL    HW252434  12.060   9.831  12.876
83513SOL     OW52435  11.013   4.598  11.002
83513SOL    HW152436  11.088   4.542  11.019
83513SOL    HW252437  10.971   4.560  10.925
83514SOL     OW52438  14.591  11.700   2.517
83514SOL    HW152439  14.629  11.769   2.461
83514SOL    HW252440  14.508  11.679   2.475
83515SOL     OW52441   4.601  13.482   9.497
83515SOL    HW152442   4.601  13.575   9.474
83515SOL    HW252443   4.657  13.441   9.432
83516SOL     OW52444   9.888   2.682   4.750
83516SOL    HW152445   9.926   2.695   4.663
83516SOL    HW252446   9.904   2.765   4.796
83517SOL     OW52447  11.622   9.949   3.081
83517SOL    HW152448  11.597  10.024   3.027
83517SOL    HW252449  11.656   9.987   3.162
83518SOL     OW52450  14.812   3.040  10.293
83518SOL    HW152451  14.813   3.032  10.198
83518SOL    HW252452  14.801   3.133  10.309
83519SOL     OW52453   1.542   9.140   4.202
83519SOL    HW152454   1.606   9.082   4.242
83519SOL    HW252455   1.474   9.081   4.168
83520SOL     OW52456  10.504   1.791   4.109
83520SOL    HW152457  10.587   1.830   4.082
83520SOL    HW252458  10.514   1.776   4.203
83521SOL     OW52459  11.394   5.534  11.330
83521SOL    HW152460  11.451   5.523  11.254
83521SOL    HW252461  11.419   5.462  11.389
83522SOL     OW52462  14.137   2.919  10.685
83522SOL    HW152463  14.154   2.924  10.591
83522SOL    HW252464  14.224   2.924  10.725
83523SOL     OW52465  11.574   6.640   2.185
83523SOL    HW152466  11.619   6.715   2.146
83523SOL    HW252467  11.622   6.564   2.152
83524SOL     OW52468   0.477  13.168   3.881
83524SOL    HW152469   0.478  13.077   3.852
83524SOL    HW252470   0.519  13.167   3.967
83525SOL     OW52471   0.387   1.163  14.826
83525SOL    HW152472   0.460   1.198   0.009
83525SOL    HW252473   0.406   1.190  14.736
83526SOL     OW52474   3.075   3.235   8.639
83526SOL    HW152475   3.130   3.198   8.707
83526SOL    HW252476   3.116   3.209   8.557
83527SOL     OW52477   2.819   9.454   7.414
83527SOL    HW152478   2.784   9.480   7.329
83527SOL    HW252479   2.750   9.399   7.453
83528SOL     OW52480   4.415   0.348   6.909
83528SOL    HW152481   4.414   0.278   6.974
83528SOL    HW252482   4.469   0.417   6.947
83529SOL     OW52483   3.284  11.899   6.594
83529SOL    HW152484   3.303  11.858   6.510
83529SOL    HW252485   3.206  11.854   6.626
83530SOL     OW52486   2.435   2.556   6.411
83530SOL    HW152487   2.339   2.553   6.410
83530SOL    HW252488   2.461   2.467   6.435
83531SOL     OW52489  12.295   9.958   0.229
83531SOL    HW152490  12.272   9.991   0.316
83531SOL    HW252491  12.216   9.971   0.177
83532SOL     OW52492   7.633   1.314   8.865
83532SOL    HW152493   7.694   1.242   8.882
83532SOL    HW252494   7.640   1.369   8.943
83533SOL     OW52495   5.683   0.221   5.241
83533SOL    HW152496   5.671   0.270   5.323
83533SOL    HW252497   5.611   0.159   5.241
83534SOL     OW52498  11.072   8.073  11.110
83534SOL    HW152499  11.002   8.127  11.146
83534SOL    HW252500  11.110   8.029  11.185
83535SOL     OW52501   6.271  10.107   6.106
83535SOL    HW152502   6.302  10.024   6.069
83535SOL    HW252503   6.219  10.081   6.182
83536SOL     OW52504   5.584  14.090  13.476
83536SOL    HW152505   5.501  14.133  13.459
83536SOL    HW252506   5.585  14.076  13.571
83537SOL     OW52507  10.007   6.061  13.399
83537SOL    HW152508   9.993   6.152  13.374
83537SOL    HW252509   9.938   6.042  13.463
83538SOL     OW52510   1.316  12.517  14.581
83538SOL    HW152511   1.259  12.440  14.573
83538SOL    HW252512   1.272  12.573  14.644
83539SOL     OW52513   2.611   8.413   7.588
83539SOL    HW152514   2.689   8.420   7.532
83539SOL    HW252515   2.542   8.458   7.539
83540SOL     OW52516   5.800  14.380   9.275
83540SOL    HW152517   5.820  14.322   9.347
83540SOL    HW252518   5.870  14.367   9.212
83541SOL     OW52519   2.799   9.992  10.817
83541SOL    HW152520   2.765  10.067  10.768
83541SOL    HW252521   2.869   9.957  10.762
83542SOL     OW52522  12.889   2.638  11.596
83542SOL    HW152523  12.891   2.629  11.692
83542SOL    HW252524  12.977   2.611  11.568
83543SOL     OW52525  14.713  13.889   5.146
83543SOL    HW152526  14.756  13.806   5.125
83543SOL    HW252527  14.688  13.880   5.238
83544SOL     OW52528   9.176  10.750   5.620
83544SOL    HW152529   9.174  10.801   5.701
83544SOL    HW252530   9.098  10.779   5.572
83545SOL     OW52531   4.467   7.576   1.294
83545SOL    HW152532   4.547   7.594   1.246
83545SOL    HW252533   4.432   7.496   1.254
83546SOL     OW52534   7.396   6.522  12.061
83546SOL    HW152535   7.463   6.590  12.050
83546SOL    HW252536   7.317   6.571  12.083
83547SOL     OW52537  12.015   7.576   7.707
83547SOL    HW152538  12.005   7.671   7.704
83547SOL    HW252539  12.042   7.557   7.797
83548SOL     OW52540   6.742   9.033   0.860
83548SOL    HW152541   6.696   8.961   0.819
83548SOL    HW252542   6.833   9.002   0.868
83549SOL     OW52543   5.252   1.065   8.233
83549SOL    HW152544   5.333   1.070   8.283
83549SOL    HW252545   5.266   0.993   8.171
83550SOL     OW52546   5.381   3.036   4.735
83550SOL    HW152547   5.403   3.077   4.818
83550SOL    HW252548   5.327   3.100   4.689
83551SOL     OW52549   4.040   7.327   5.235
83551SOL    HW152550   4.082   7.412   5.251
83551SOL    HW252551   4.108   7.263   5.256
83552SOL     OW52552   2.000   8.003   2.459
83552SOL    HW152553   1.948   8.027   2.383
83552SOL    HW252554   2.043   8.084   2.486
83553SOL     OW52555  10.359   6.125   9.947
83553SOL    HW152556  10.384   6.188  10.016
83553SOL    HW252557  10.433   6.126   9.886
83554SOL     OW52558   5.824   4.202   9.747
83554SOL    HW152559   5.799   4.161   9.664
83554SOL    HW252560   5.799   4.139   9.814
83555SOL     OW52561   9.111  14.565  10.839
83555SOL    HW152562   9.116  14.628  10.768
83555SOL    HW252563   9.045  14.502  10.811
83556SOL     OW52564   3.409  13.963   3.123
83556SOL    HW152565   3.483  14.018   3.100
83556SOL    HW252566   3.347  14.022   3.165
83557SOL     OW52567   6.805   1.984   7.953
83557SOL    HW152568   6.711   1.968   7.941
83557SOL    HW252569   6.823   2.062   7.901
83558SOL     OW52570   3.286  10.490   2.443
83558SOL    HW152571   3.212  10.441   2.478
83558SOL    HW252572   3.363  10.451   2.486
83559SOL     OW52573   2.121   9.353   6.397
83559SOL    HW152574   2.173   9.341   6.476
83559SOL    HW252575   2.183   9.337   6.325
83560SOL     OW52576   0.187   5.216   4.611
83560SOL    HW152577   0.131   5.206   4.534
83560SOL    HW252578   0.237   5.135   4.614
83561SOL     OW52579  13.573   5.917   9.577
83561SOL    HW152580  13.497   5.890   9.629
83561SOL    HW252581  13.636   5.846   9.587
83562SOL     OW52582   1.382   9.229   1.132
83562SOL    HW152583   1.469   9.187   1.133
83562SOL    HW252584   1.364   9.248   1.224
83563SOL     OW52585  12.058  11.572   4.972
83563SOL    HW152586  12.021  11.524   4.898
83563SOL    HW252587  12.138  11.611   4.938
83564SOL     OW52588   1.301   2.197   6.597
83564SOL    HW152589   1.273   2.136   6.666
83564SOL    HW252590   1.396   2.189   6.595
83565SOL     OW52591   8.750  13.633   9.113
83565SOL    HW152592   8.753  13.686   9.193
83565SOL    HW252593   8.663  13.650   9.077
83566SOL     OW52594  10.170   8.620   3.087
83566SOL    HW152595  10.140   8.658   3.169
83566SOL    HW252596  10.177   8.526   3.106
83567SOL     OW52597   6.293  13.270  11.479
83567SOL    HW152598   6.207  13.272  11.521
83567SOL    HW252599   6.288  13.339  11.412
83568SOL     OW52600   3.086  13.491   3.284
83568SOL    HW152601   3.004  13.536   3.302
83568SOL    HW252602   3.098  13.500   3.189
83569SOL     OW52603  10.870   8.196   3.010
83569SOL    HW152604  10.877   8.228   3.100
83569SOL    HW252605  10.848   8.273   2.958
83570SOL     OW52606  14.328   9.263  10.133
83570SOL    HW152607  14.288   9.299  10.212
83570SOL    HW252608  14.413   9.229  10.162
83571SOL     OW52609   3.684  13.651   6.086
83571SOL    HW152610   3.767  13.656   6.134
83571SOL    HW252611   3.695  13.712   6.013
83572SOL     OW52612   3.176  13.524   3.034
83572SOL    HW152613   3.271  13.516   3.029
83572SOL    HW252614   3.145  13.502   2.946
83573SOL     OW52615   2.160   0.505   5.130
83573SOL    HW152616   2.193   0.542   5.047
83573SOL    HW252617   2.233   0.516   5.191
83574SOL     OW52618   0.788   6.261  12.430
83574SOL    HW152619   0.763   6.202  12.359
83574SOL    HW252620   0.789   6.348  12.390
83575SOL     OW52621  10.705  11.808   2.480
83575SOL    HW152622  10.759  11.886   2.491
83575SOL    HW252623  10.622  11.831   2.524
83576SOL     OW52624   1.753   4.279   1.769
83576SOL    HW152625   1.844   4.297   1.748
83576SOL    HW252626   1.754   4.262   1.863
83577SOL     OW52627   4.503   1.092   0.493
83577SOL    HW152628   4.464   1.140   0.566
83577SOL    HW252629   4.566   1.152   0.455
83578SOL     OW52630  10.502   5.763  11.916
83578SOL    HW152631  10.424   5.814  11.894
83578SOL    HW252632  10.473   5.672  11.909
83579SOL     OW52633   7.270  10.913   5.641
83579SOL    HW152634   7.318  10.918   5.559
83579SOL    HW252635   7.178  10.916   5.615
83580SOL     OW52636   1.917   3.490   4.899
83580SOL    HW152637   1.896   3.458   4.986
83580SOL    HW252638   1.962   3.417   4.857
83581SOL     OW52639   9.764   8.460   1.498
83581SOL    HW152640   9.757   8.477   1.592
83581SOL    HW252641   9.674   8.469   1.466
83582SOL     OW52642  13.378  12.242   6.537
83582SOL    HW152643  13.465  12.210   6.562
83582SOL    HW252644  13.382  12.248   6.442
83583SOL     OW52645  12.140  11.360  14.432
83583SOL    HW152646  12.122  11.439  14.482
83583SOL    HW252647  12.196  11.388  14.360
83584SOL     OW52648  10.807   3.142   0.366
83584SOL    HW152649  10.788   3.218   0.422
83584SOL    HW252650  10.763   3.161   0.283
83585SOL     OW52651   9.400   3.451   7.870
83585SOL    HW152652   9.429   3.454   7.779
83585SOL    HW252653   9.480   3.430   7.919
83586SOL     OW52654  12.574   9.158   5.714
83586SOL    HW152655  12.561   9.219   5.641
83586SOL    HW252656  12.518   9.083   5.694
83587SOL     OW52657  14.656  14.002   2.355
83587SOL    HW152658  14.609  14.060   2.415
83587SOL    HW252659  14.639  14.039   2.268
83588SOL     OW52660   5.714   8.651  11.911
83588SOL    HW152661   5.802   8.637  11.878
83588SOL    HW252662   5.697   8.577  11.970
83589SOL     OW52663  13.974  14.456  10.838
83589SOL    HW152664  13.918  14.469  10.915
83589SOL    HW252665  13.987  14.361  10.834
83590SOL     OW52666  10.171   1.847  14.604
83590SOL    HW152667  10.239   1.896  14.557
83590SOL    HW252668  10.089   1.888  14.577
83591SOL     OW52669   3.343  14.081   8.857
83591SOL    HW152670   3.334  14.151   8.792
83591SOL    HW252671   3.331  14.124   8.941
83592SOL     OW52672   5.426   4.273  13.362
83592SOL    HW152673   5.408   4.212  13.291
83592SOL    HW252674   5.342   4.285  13.406
83593SOL     OW52675  14.165   5.727  10.089
83593SOL    HW152676  14.104   5.712  10.161
83593SOL    HW252677  14.169   5.822  10.080
83594SOL     OW52678   8.770   8.270   6.700
83594SOL    HW152679   8.741   8.295   6.613
83594SOL    HW252680   8.723   8.189   6.719
83595SOL     OW52681   1.625   0.340   1.100
83595SOL    HW152682   1.645   0.247   1.110
83595SOL    HW252683   1.569   0.360   1.175
83596SOL     OW52684  13.308  12.381   0.356
83596SOL    HW152685  13.282  12.292   0.331
83596SOL    HW252686  13.306  12.431   0.274
83597SOL     OW52687   9.246   1.823   9.771
83597SOL    HW152688   9.160   1.861   9.752
83597SOL    HW252689   9.251   1.746   9.715
83598SOL     OW52690   8.113  13.336  12.526
83598SOL    HW152691   8.102  13.301  12.614
83598SOL    HW252692   8.151  13.423  12.539
83599SOL     OW52693  10.401  14.709   0.690
83599SOL    HW152694  10.443  14.657   0.758
83599SOL    HW252695  10.351  14.646   0.637
83600SOL     OW52696   0.616   4.999  10.824
83600SOL    HW152697   0.652   5.072  10.874
83600SOL    HW252698   0.617   4.925  10.885
83601SOL     OW52699  11.442   7.816   5.939
83601SOL    HW152700  11.467   7.817   6.031
83601SOL    HW252701  11.520   7.783   5.894
83602SOL     OW52702   8.688   6.531   7.785
83602SOL    HW152703   8.725   6.452   7.746
83602SOL    HW252704   8.752   6.600   7.764
83603SOL     OW52705   9.263   0.485   9.871
83603SOL    HW152706   9.228   0.562   9.826
83603SOL    HW252707   9.277   0.514   9.961
83604SOL     OW52708   5.299  11.942   8.942
83604SOL    HW152709   5.387  11.943   8.980
83604SOL    HW252710   5.244  11.987   9.007
83605SOL     OW52711   6.087  10.309   4.102
83605SOL    HW152712   6.015  10.269   4.150
83605SOL    HW252713   6.048  10.384   4.058
83606SOL     OW52714   8.462   0.610   6.380
83606SOL    HW152715   8.445   0.703   6.393
83606SOL    HW252716   8.557   0.605   6.369
83607SOL     OW52717   1.075   5.347   7.298
83607SOL    HW152718   1.157   5.300   7.291
83607SOL    HW252719   1.047   5.332   7.389
83608SOL     OW52720  12.464   8.734   8.244
83608SOL    HW152721  12.546   8.780   8.231
83608SOL    HW252722  12.399   8.785   8.196
83609SOL     OW52723   5.951   8.638   9.954
83609SOL    HW152724   5.881   8.701   9.969
83609SOL    HW252725   5.972   8.605  10.042
83610SOL     OW52726   9.806   0.350   3.474
83610SOL    HW152727   9.880   0.299   3.440
83610SOL    HW252728   9.825   0.440   3.447
83611SOL     OW52729   8.831   6.743   3.146
83611SOL    HW152730   8.869   6.660   3.175
83611SOL    HW252731   8.890   6.774   3.077
83612SOL     OW52732   1.383  10.650  14.167
83612SOL    HW152733   1.402  10.743  14.165
83612SOL    HW252734   1.310  10.639  14.105
83613SOL     OW52735   9.302   6.652  12.094
83613SOL    HW152736   9.242   6.580  12.113
83613SOL    HW252737   9.386   6.624  12.131
83614SOL     OW52738   7.237  13.564  12.945
83614SOL    HW152739   7.197  13.496  12.889
83614SOL    HW252740   7.183  13.641  12.930
83615SOL     OW52741   1.262   0.423   1.103
83615SOL    HW152742   1.291   0.347   1.154
83615SOL    HW252743   1.226   0.483   1.168
83616SOL     OW52744   1.990   6.025   7.844
83616SOL    HW152745   1.984   6.105   7.791
83616SOL    HW252746   1.900   5.994   7.851
83617SOL     OW52747   2.792   0.861   6.602
83617SOL    HW152748   2.715   0.918   6.604
83617SOL    HW252749   2.794   0.821   6.688
83618SOL     OW52750  11.439   1.235   6.531
83618SOL    HW152751  11.430   1.237   6.436
83618SOL    HW252752  11.393   1.313   6.561
83619SOL     OW52753   6.522   7.708   8.946
83619SOL    HW152754   6.442   7.698   8.895
83619SOL    HW252755   6.550   7.619   8.967
83620SOL     OW52756   0.381   5.054   4.055
83620SOL    HW152757   0.334   5.065   4.137
83620SOL    HW252758   0.453   4.995   4.076
83621SOL     OW52759   4.054  11.555   6.665
83621SOL    HW152760   4.096  11.640   6.656
83621SOL    HW252761   4.018  11.536   6.578
83622SOL     OW52762   7.225  11.752  14.287
83622SOL    HW152763   7.319  11.759  14.307
83622SOL    HW252764   7.203  11.838  14.250
83623SOL     OW52765   5.987   0.959  12.481
83623SOL    HW152766   6.042   1.018  12.533
83623SOL    HW252767   6.010   0.871  12.512
83624SOL     OW52768   9.985   4.627  12.211
83624SOL    HW152769  10.006   4.704  12.158
83624SOL    HW252770  10.028   4.644  12.295
83625SOL     OW52771   3.480   2.891  14.304
83625SOL    HW152772   3.467   2.953  14.231
83625SOL    HW252773   3.558   2.923  14.349
83626SOL     OW52774   3.811  10.884   8.552
83626SOL    HW152775   3.871  10.818   8.585
83626SOL    HW252776   3.850  10.968   8.578
83627SOL     OW52777   8.612   3.710  10.561
83627SOL    HW152778   8.630   3.712  10.654
83627SOL    HW252779   8.632   3.799  10.531
83628SOL     OW52780   7.934   0.480   3.269
83628SOL    HW152781   7.893   0.415   3.211
83628SOL    HW252782   7.863   0.505   3.329
83629SOL     OW52783  13.370   2.423  14.029
83629SOL    HW152784  13.452   2.457  13.993
83629SOL    HW252785  13.312   2.500  14.030
83630SOL     OW52786   8.519   4.567   7.576
83630SOL    HW152787   8.534   4.661   7.575
83630SOL    HW252788   8.474   4.548   7.494
83631SOL     OW52789  14.329   6.334   0.447
83631SOL    HW152790  14.403   6.284   0.481
83631SOL    HW252791  14.350   6.425   0.466
83632SOL     OW52792   3.613   4.856   2.780
83632SOL    HW152793   3.526   4.817   2.789
83632SOL    HW252794   3.599   4.936   2.729
83633SOL     OW52795   0.897   0.413   5.869
83633SOL    HW152796   0.945   0.495   5.858
83633SOL    HW252797   0.882   0.406   5.964
83634SOL     OW52798  14.435  14.344  13.539
83634SOL    HW152799  14.508  14.311  13.592
83634SOL    HW252800  14.476  14.370  13.456
83635SOL     OW52801   9.002   8.282   8.479
83635SOL    HW152802   8.968   8.213   8.422
83635SOL    HW252803   9.077   8.243   8.523
83636SOL     OW52804   4.869  11.775   4.269
83636SOL    HW152805   4.908  11.698   4.227
83636SOL    HW252806   4.837  11.742   4.353
83637SOL     OW52807   5.253  12.015   5.230
83637SOL    HW152808   5.305  11.935   5.233
83637SOL    HW252809   5.318  12.084   5.217
83638SOL     OW52810   6.469   3.652  10.829
83638SOL    HW152811   6.392   3.704  10.853
83638SOL    HW252812   6.437   3.562  10.824
83639SOL     OW52813  13.220   6.461   0.158
83639SOL    HW152814  13.209   6.398   0.087
83639SOL    HW252815  13.262   6.536   0.117
83640SOL     OW52816   8.583  10.384   7.006
83640SOL    HW152817   8.556  10.293   6.996
83640SOL    HW252818   8.559  10.426   6.923
83641SOL     OW52819  13.444  14.185   4.359
83641SOL    HW152820  13.486  14.109   4.399
83641SOL    HW252821  13.507  14.256   4.370
83642SOL     OW52822   6.998   4.861  11.094
83642SOL    HW152823   7.072   4.823  11.142
83642SOL    HW252824   6.930   4.872  11.160
83643SOL     OW52825   9.811  12.856   4.387
83643SOL    HW152826   9.862  12.933   4.363
83643SOL    HW252827   9.728  12.867   4.339
83644SOL     OW52828   1.386   4.175  10.429
83644SOL    HW152829   1.324   4.248  10.433
83644SOL    HW252830   1.440   4.193  10.353
83645SOL     OW52831   4.105   5.978   0.443
83645SOL    HW152832   4.144   5.899   0.405
83645SOL    HW252833   4.175   6.044   0.438
83646SOL     OW52834   5.271  11.672  13.434
83646SOL    HW152835   5.344  11.671  13.495
83646SOL    HW252836   5.304  11.719  13.357
83647SOL     OW52837  14.554   1.656   7.113
83647SOL    HW152838  14.555   1.743   7.153
83647SOL    HW252839  14.466   1.622   7.132
83648SOL     OW52840   7.675   0.415  11.982
83648SOL    HW152841   7.766   0.413  11.952
83648SOL    HW252842   7.681   0.435  12.076
83649SOL     OW52843  13.019   8.167   2.373
83649SOL    HW152844  13.093   8.112   2.398
83649SOL    HW252845  12.943   8.109   2.380
83650SOL     OW52846  10.620   5.678  12.353
83650SOL    HW152847  10.579   5.753  12.310
83650SOL    HW252848  10.551   5.643  12.411
83651SOL     OW52849  14.452   2.311   7.852
83651SOL    HW152850  14.528   2.279   7.899
83651SOL    HW252851  14.472   2.296   7.759
83652SOL     OW52852  12.659   0.550   1.158
83652SOL    HW152853  12.591   0.513   1.214
83652SOL    HW252854  12.697   0.475   1.113
83653SOL     OW52855   3.509  12.246   0.423
83653SOL    HW152856   3.531  12.177   0.360
83653SOL    HW252857   3.420  12.272   0.401
83654SOL     OW52858   3.426   0.515   2.493
83654SOL    HW152859   3.508   0.501   2.541
83654SOL    HW252860   3.379   0.581   2.544
83655SOL     OW52861   0.478   5.381   7.421
83655SOL    HW152862   0.462   5.436   7.498
83655SOL    HW252863   0.502   5.296   7.457
83656SOL     OW52864  12.763  10.546   0.469
83656SOL    HW152865  12.777  10.463   0.424
83656SOL    HW252866  12.696  10.526   0.535
83657SOL     OW52867   9.572   5.348   3.421
83657SOL    HW152868   9.515   5.312   3.353
83657SOL    HW252869   9.539   5.436   3.435
83658SOL     OW52870  10.502  10.498   6.280
83658SOL    HW152871  10.506  10.585   6.240
83658SOL    HW252872  10.557  10.443   6.225
83659SOL     OW52873   2.870   3.679  12.494
83659SOL    HW152874   2.832   3.623  12.426
83659SOL    HW252875   2.929   3.737  12.446
83660SOL     OW52876   9.928   7.273   5.251
83660SOL    HW152877   9.959   7.364   5.247
83660SOL    HW252878   9.875   7.270   5.331
83661SOL     OW52879  12.978   7.991   9.984
83661SOL    HW152880  12.998   7.904   9.949
83661SOL    HW252881  12.905   8.023   9.931
83662SOL     OW52882   1.383   2.834   9.942
83662SOL    HW152883   1.309   2.875   9.897
83662SOL    HW252884   1.342   2.769  10.000
83663SOL     OW52885   4.561  12.343   2.134
83663SOL    HW152886   4.636  12.393   2.168
83663SOL    HW252887   4.573  12.343   2.039
83664SOL     OW52888  11.485   3.381   5.927
83664SOL    HW152889  11.421   3.354   5.993
83664SOL    HW252890  11.495   3.475   5.940
83665SOL     OW52891  11.864   5.560   5.359
83665SOL    HW152892  11.865   5.505   5.281
83665SOL    HW252893  11.875   5.649   5.326
83666SOL     OW52894  12.007  10.916   4.296
83666SOL    HW152895  12.017  10.998   4.248
83666SOL    HW252896  11.969  10.856   4.232
83667SOL     OW52897   6.459   4.764   4.430
83667SOL    HW152898   6.460   4.858   4.448
83667SOL    HW252899   6.487   4.757   4.339
83668SOL     OW52900   8.138   3.473   4.156
83668SOL    HW152901   8.048   3.497   4.135
83668SOL    HW252902   8.167   3.541   4.217
83669SOL     OW52903   5.395  12.404   4.234
83669SOL    HW152904   5.390  12.497   4.213
83669SOL    HW252905   5.419  12.400   4.326
83670SOL     OW52906  12.748   2.856   8.639
83670SOL    HW152907  12.708   2.923   8.694
83670SOL    HW252908  12.755   2.779   8.695
83671SOL     OW52909  13.826   2.289   0.627
83671SOL    HW152910  13.827   2.384   0.628
83671SOL    HW252911  13.904   2.263   0.676
83672SOL     OW52912   3.702  12.634   1.193
83672SOL    HW152913   3.716  12.643   1.098
83672SOL    HW252914   3.735  12.547   1.214
83673SOL     OW52915   9.957  13.549  13.979
83673SOL    HW152916  10.007  13.530  14.058
83673SOL    HW252917   9.943  13.464  13.938
83674SOL     OW52918   3.537   9.760  10.432
83674SOL    HW152919   3.491   9.765  10.349
83674SOL    HW252920   3.627   9.737  10.408
83675SOL     OW52921  11.808   9.617   4.080
83675SOL    HW152922  11.837   9.701   4.116
83675SOL    HW252923  11.819   9.555   4.153
83676SOL     OW52924  14.249   6.505   2.914
83676SOL    HW152925  14.321   6.455   2.952
83676SOL    HW252926  14.277   6.525   2.825
83677SOL     OW52927   2.790   1.510  13.208
83677SOL    HW152928   2.851   1.496  13.136
83677SOL    HW252929   2.845   1.539  13.281
83678SOL     OW52930   3.557   1.351   5.827
83678SOL    HW152931   3.511   1.431   5.850
83678SOL    HW252932   3.650   1.370   5.843
83679SOL     OW52933   0.008   3.529   2.145
83679SOL    HW152934  14.829   3.532   2.229
83679SOL    HW252935   0.099   3.549   2.167
83680SOL     OW52936   7.157   0.172  12.715
83680SOL    HW152937   7.172   0.165  12.809
83680SOL    HW252938   7.063   0.188  12.707
83681SOL     OW52939   6.692   2.506   5.682
83681SOL    HW152940   6.645   2.434   5.725
83681SOL    HW252941   6.639   2.584   5.701
83682SOL     OW52942   0.748   1.228   2.571
83682SOL    HW152943   0.697   1.207   2.493
83682SOL    HW252944   0.699   1.298   2.614
83683SOL     OW52945   2.817   2.340   8.825
83683SOL    HW152946   2.801   2.258   8.872
83683SOL    HW252947   2.780   2.325   8.738
83684SOL     OW52948   8.885   8.820  11.872
83684SOL    HW152949   8.967   8.845  11.915
83684SOL    HW252950   8.817   8.867  11.920
83685SOL     OW52951   4.448   2.950   7.892
83685SOL    HW152952   4.383   2.882   7.874
83685SOL    HW252953   4.508   2.910   7.954
83686SOL     OW52954  10.925   5.485  14.751
83686SOL    HW152955  10.929   5.473  14.656
83686SOL    HW252956  10.937   5.397  14.787
83687SOL     OW52957   3.385   4.367  12.457
83687SOL    HW152958   3.309   4.400  12.410
83687SOL    HW252959   3.369   4.273  12.466
83688SOL     OW52960   0.308   8.549   7.625
83688SOL    HW152961   0.395   8.588   7.612
83688SOL    HW252962   0.273   8.537   7.537
83689SOL     OW52963   9.182  13.581   9.578
83689SOL    HW152964   9.213  13.660   9.623
83689SOL    HW252965   9.171  13.608   9.487
83690SOL     OW52966  12.893   7.198   2.666
83690SOL    HW152967  12.916   7.290   2.655
83690SOL    HW252968  12.969   7.151   2.631
83691SOL     OW52969  12.117   1.024   6.612
83691SOL    HW152970  12.126   1.068   6.527
83691SOL    HW252971  12.039   1.062   6.650
83692SOL     OW52972   3.798  11.106   3.336
83692SOL    HW152973   3.841  11.191   3.348
83692SOL    HW252974   3.714  11.115   3.380
83693SOL     OW52975   9.474   0.978   4.406
83693SOL    HW152976   9.454   1.054   4.460
83693SOL    HW252977   9.539   0.929   4.456
83694SOL     OW52978   9.958  13.139   0.344
83694SOL    HW152979  10.009  13.069   0.385
83694SOL    HW252980   9.947  13.110   0.253
83695SOL     OW52981   1.991  13.419  14.824
83695SOL    HW152982   2.075  13.465  14.815
83695SOL    HW252983   1.977  13.413   0.050
83696SOL     OW52984   3.060  11.055   0.976
83696SOL    HW152985   3.123  11.041   0.905
83696SOL    HW252986   3.109  11.106   1.041
83697SOL     OW52987  13.770  11.335   8.796
83697SOL    HW152988  13.687  11.320   8.842
83697SOL    HW252989  13.837  11.330   8.864
83698SOL     OW52990   7.200   9.763  10.013
83698SOL    HW152991   7.148   9.842  10.030
83698SOL    HW252992   7.291   9.793  10.020
83699SOL     OW52993  10.534  13.111   5.217
83699SOL    HW152994  10.520  13.044   5.150
83699SOL    HW252995  10.593  13.070   5.281
83700SOL     OW52996   8.173   7.517   6.908
83700SOL    HW152997   8.152   7.455   6.838
83700SOL    HW252998   8.268   7.528   6.902
83701SOL     OW52999   7.110   3.269   4.189
83701SOL    HW153000   7.070   3.311   4.265
83701SOL    HW253001   7.118   3.340   4.124
83702SOL     OW53002   6.532  10.568   7.466
83702SOL    HW153003   6.525  10.602   7.376
83702SOL    HW253004   6.614  10.520   7.467
83703SOL     OW53005   1.603   7.747  14.493
83703SOL    HW153006   1.676   7.734  14.554
83703SOL    HW253007   1.637   7.807  14.427
83704SOL     OW53008  12.147  12.956   9.389
83704SOL    HW153009  12.201  12.921   9.460
83704SOL    HW253010  12.197  13.031   9.355
83705SOL     OW53011   6.491  14.261   1.555
83705SOL    HW153012   6.500  14.269   1.650
83705SOL    HW253013   6.571  14.215   1.528
83706SOL     OW53014   2.299  13.358  10.227
83706SOL    HW153015   2.251  13.431  10.187
83706SOL    HW253016   2.368  13.337  10.164
83707SOL     OW53017  14.780   3.113  14.679
83707SOL    HW153018  14.713   3.047  14.693
83707SOL    HW253019  14.862   3.064  14.671
83708SOL     OW53020  14.049   0.819  12.626
83708SOL    HW153021  14.141   0.798  12.616
83708SOL    HW253022  14.022   0.852  12.540
83709SOL     OW53023   5.877  12.266   4.748
83709SOL    HW153024   5.876  12.185   4.799
83709SOL    HW253025   5.887  12.236   4.657
83710SOL     OW53026  14.232   8.641  13.511
83710SOL    HW153027  14.137   8.645  13.502
83710SOL    HW253028  14.247   8.605  13.599
83711SOL     OW53029   0.840   6.991  14.653
83711SOL    HW153030   0.789   6.976  14.573
83711SOL    HW253031   0.913   7.047  14.625
83712SOL     OW53032   5.058  14.548   0.095
83712SOL    HW153033   5.014  14.546   0.180
83712SOL    HW253034   5.004  14.492   0.039
83713SOL     OW53035   9.134   6.475   9.474
83713SOL    HW153036   9.095   6.431   9.398
83713SOL    HW253037   9.058   6.507   9.524
83714SOL     OW53038  10.390   8.587   2.912
83714SOL    HW153039  10.309   8.610   2.958
83714SOL    HW253040  10.392   8.491   2.914
83715SOL     OW53041   0.491   5.964   5.583
83715SOL    HW153042   0.541   6.040   5.614
83715SOL    HW253043   0.418   6.001   5.534
83716SOL     OW53044   1.177   3.523  12.845
83716SOL    HW153045   1.257   3.571  12.825
83716SOL    HW253046   1.166   3.463  12.772
83717SOL     OW53047  14.047   9.918   2.935
83717SOL    HW153048  13.973   9.866   2.902
83717SOL    HW253049  14.101   9.855   2.981
83718SOL     OW53050   8.539   8.557  10.130
83718SOL    HW153051   8.479   8.542  10.057
83718SOL    HW253052   8.542   8.473  10.176
83719SOL     OW53053  14.599  11.346   6.196
83719SOL    HW153054  14.648  11.266   6.177
83719SOL    HW253055  14.632  11.374   6.282
83720SOL     OW53056   5.434   7.580   0.889
83720SOL    HW153057   5.429   7.634   0.968
83720SOL    HW253058   5.343   7.559   0.869
83721SOL     OW53059  12.354  10.401  11.114
83721SOL    HW153060  12.440  10.359  11.124
83721SOL    HW253061  12.372  10.480  11.063
83722SOL     OW53062   3.396   6.558   5.985
83722SOL    HW153063   3.452   6.482   5.972
83722SOL    HW253064   3.312   6.521   6.012
83723SOL     OW53065  10.690   5.034   3.197
83723SOL    HW153066  10.627   4.987   3.251
83723SOL    HW253067  10.647   5.044   3.112
83724SOL     OW53068   7.922   3.524   5.853
83724SOL    HW153069   7.914   3.483   5.939
83724SOL    HW253070   8.013   3.510   5.828
83725SOL     OW53071  10.083   3.832  10.935
83725SOL    HW153072  10.087   3.922  10.968
83725SOL    HW253073  10.001   3.798  10.969
83726SOL     OW53074  11.837   5.079  12.161
83726SOL    HW153075  11.896   5.107  12.231
83726SOL    HW253076  11.772   5.025  12.206
83727SOL     OW53077   3.430   1.923   6.375
83727SOL    HW153078   3.348   1.909   6.421
83727SOL    HW253079   3.483   1.977   6.434
83728SOL     OW53080   3.772  10.063  10.278
83728SOL    HW153081   3.806  10.145  10.242
83728SOL    HW253082   3.715  10.091  10.350
83729SOL     OW53083  10.693  14.444   5.787
83729SOL    HW153084  10.765  14.489   5.830
83729SOL    HW253085  10.631  14.424   5.858
83730SOL     OW53086   8.419  13.286   1.293
83730SOL    HW153087   8.509  13.263   1.319
83730SOL    HW253088   8.419  13.276   1.198
83731SOL     OW53089  13.000   5.701   8.638
83731SOL    HW153090  13.058   5.706   8.714
83731SOL    HW253091  13.001   5.608   8.614
83732SOL     OW53092   2.949  13.339   1.836
83732SOL    HW153093   2.987  13.299   1.757
83732SOL    HW253094   2.893  13.409   1.803
83733SOL     OW53095   4.983  10.668   6.384
83733SOL    HW153096   5.074  10.687   6.408
83733SOL    HW253097   4.988  10.641   6.292
83734SOL     OW53098  12.413   7.320   6.417
83734SOL    HW153099  12.356   7.395   6.432
83734SOL    HW253100  12.442   7.329   6.327
83735SOL     OW53101  11.964   7.168  13.154
83735SOL    HW153102  11.910   7.244  13.176
83735SOL    HW253103  12.037   7.172  13.216
83736SOL     OW53104  14.369   7.020  13.218
83736SOL    HW153105  14.452   6.977  13.198
83736SOL    HW253106  14.348   6.991  13.307
83737SOL     OW53107  13.408  14.717   7.844
83737SOL    HW153108  13.385  14.777   7.773
83737SOL    HW253109  13.372  14.757   7.923
83738SOL     OW53110   7.633  10.412   7.281
83738SOL    HW153111   7.666  10.426   7.193
83738SOL    HW253112   7.633  10.499   7.321
83739SOL     OW53113   2.732   2.256  13.487
83739SOL    HW153114   2.690   2.176  13.519
83739SOL    HW253115   2.739   2.244  13.392
83740SOL     OW53116  12.271   7.042  11.267
83740SOL    HW153117  12.224   6.972  11.311
83740SOL    HW253118  12.289   7.008  11.179
83741SOL     OW53119   9.386   1.588  14.263
83741SOL    HW153120   9.344   1.625  14.341
83741SOL    HW253121   9.368   1.494  14.268
83742SOL     OW53122  14.657  10.874  11.657
83742SOL    HW153123  14.675  10.781  11.643
83742SOL    HW253124  14.575  10.876  11.706
83743SOL     OW53125   4.605  14.498   6.356
83743SOL    HW153126   4.676  14.551   6.391
83743SOL    HW253127   4.540  14.495   6.427
83744SOL     OW53128   3.701   1.272   8.840
83744SOL    HW153129   3.777   1.242   8.890
83744SOL    HW253130   3.737   1.297   8.755
83745SOL     OW53131   2.006   3.407   7.676
83745SOL    HW153132   2.010   3.446   7.589
83745SOL    HW253133   2.044   3.474   7.734
83746SOL     OW53134  11.107  13.267  14.194
83746SOL    HW153135  11.040  13.332  14.214
83746SOL    HW253136  11.183  13.294  14.246
83747SOL     OW53137   5.744   3.755   5.969
83747SOL    HW153138   5.770   3.742   6.060
83747SOL    HW253139   5.776   3.842   5.947
83748SOL     OW53140   1.191   7.353   6.115
83748SOL    HW153141   1.275   7.393   6.139
83748SOL    HW253142   1.207   7.313   6.030
83749SOL     OW53143   3.410  13.646   0.515
83749SOL    HW153144   3.430  13.580   0.581
83749SOL    HW253145   3.356  13.600   0.450
83750SOL     OW53146   2.494  14.673   4.526
83750SOL    HW153147   2.560  14.635   4.467
83750SOL    HW253148   2.449  14.596   4.563
83751SOL     OW53149   7.547   6.362   8.016
83751SOL    HW153150   7.547   6.301   7.943
83751SOL    HW253151   7.478   6.424   7.996
83752SOL     OW53152   2.080  12.603  13.528
83752SOL    HW153153   2.172  12.626  13.542
83752SOL    HW253154   2.082  12.527  13.469
83753SOL     OW53155  11.197   7.902  14.158
83753SOL    HW153156  11.112   7.946  14.164
83753SOL    HW253157  11.177   7.809  14.161
83754SOL     OW53158  10.712   6.223   0.809
83754SOL    HW153159  10.722   6.150   0.870
83754SOL    HW253160  10.710   6.181   0.722
83755SOL     OW53161   9.091  14.442   8.103
83755SOL    HW153162   9.041  14.362   8.121
83755SOL    HW253163   9.125  14.469   8.188
83756SOL     OW53164  11.873   0.771   1.963
83756SOL    HW153165  11.936   0.748   1.895
83756SOL    HW253166  11.835   0.854   1.933
83757SOL     OW53167   4.474  13.412   4.893
83757SOL    HW153168   4.384  13.423   4.924
83757SOL    HW253169   4.473  13.329   4.845
83758SOL     OW53170   0.611   8.459   6.987
83758SOL    HW153171   0.675   8.404   7.032
83758SOL    HW253172   0.603   8.421   6.900
83759SOL     OW53173  13.703   9.637   5.370
83759SOL    HW153174  13.787   9.674   5.396
83759SOL    HW253175  13.681   9.681   5.288
83760SOL     OW53176   1.389   8.381  14.165
83760SOL    HW153177   1.358   8.444  14.100
83760SOL    HW253178   1.328   8.307  14.157
83761SOL     OW53179   4.360   5.971  13.751
83761SOL    HW153180   4.285   6.018  13.787
83761SOL    HW253181   4.343   5.879  13.773
83762SOL     OW53182   6.285  13.223   2.706
83762SOL    HW153183   6.377  13.203   2.688
83762SOL    HW253184   6.279  13.224   2.802
83763SOL     OW53185  11.037  14.458   9.875
83763SOL    HW153186  11.039  14.370   9.838
83763SOL    HW253187  11.049  14.444   9.969
83764SOL     OW53188   3.010   9.001   4.054
83764SOL    HW153189   3.019   9.087   4.012
83764SOL    HW253190   2.935   9.011   4.113
83765SOL     OW53191   4.971  12.337   9.627
83765SOL    HW153192   4.991  12.429   9.612
83765SOL    HW253193   4.911  12.313   9.556
83766SOL     OW53194   4.385  14.386  13.202
83766SOL    HW153195   4.382  14.473  13.163
83766SOL    HW253196   4.294  14.355  13.198
83767SOL     OW53197   2.997   0.839   2.463
83767SOL    HW153198   2.995   0.902   2.535
83767SOL    HW253199   2.904   0.825   2.441
83768SOL     OW53200  14.719  11.136   1.258
83768SOL    HW153201  14.792  11.108   1.315
83768SOL    HW253202  14.659  11.182   1.317
83769SOL     OW53203   3.101   8.431   5.979
83769SOL    HW153204   3.070   8.495   5.915
83769SOL    HW253205   3.106   8.349   5.929
83770SOL     OW53206   8.495  13.161  11.965
83770SOL    HW153207   8.410  13.150  11.922
83770SOL    HW253208   8.509  13.256  11.968
83771SOL     OW53209   2.765   6.204   9.631
83771SOL    HW153210   2.859   6.192   9.646
83771SOL    HW253211   2.755   6.206   9.536
83772SOL     OW53212   4.926  11.548  13.081
83772SOL    HW153213   4.942  11.562  13.174
83772SOL    HW253214   4.832  11.535  13.075
83773SOL     OW53215  13.346   7.548   3.140
83773SOL    HW153216  13.421   7.539   3.199
83773SOL    HW253217  13.385   7.565   3.055
83774SOL     OW53218   1.821  14.640   9.684
83774SOL    HW153219   1.898  14.658   9.739
83774SOL    HW253220   1.848  14.565   9.631
83775SOL     OW53221   2.607   1.190   6.837
83775SOL    HW153222   2.560   1.273   6.843
83775SOL    HW253223   2.549   1.127   6.881
83776SOL     OW53224   2.048  14.539  11.469
83776SOL    HW153225   2.006  14.462  11.430
83776SOL    HW253226   2.086  14.586  11.394
83777SOL     OW53227   9.897  11.669  11.083
83777SOL    HW153228   9.850  11.685  11.165
83777SOL    HW253229   9.898  11.754  11.039
83778SOL     OW53230   2.534   0.639  13.025
83778SOL    HW153231   2.551   0.723  12.984
83778SOL    HW253232   2.515   0.580  12.951
83779SOL     OW53233   9.191   8.918  13.966
83779SOL    HW153234   9.147   8.961  13.892
83779SOL    HW253235   9.277   8.959  13.969
83780SOL     OW53236   4.507   1.637   0.016
83780SOL    HW153237   4.476   1.624   0.105
83780SOL    HW253238   4.428   1.634  14.830
83781SOL     OW53239  13.713  13.044   1.968
83781SOL    HW153240  13.798  13.005   1.946
83781SOL    HW253241  13.711  13.045   2.063
83782SOL     OW53242   3.871   8.047   1.093
83782SOL    HW153243   3.890   7.965   1.049
83782SOL    HW253244   3.861   8.111   1.023
83783SOL     OW53245  12.852   0.529  12.774
83783SOL    HW153246  12.924   0.529  12.712
83783SOL    HW253247  12.850   0.440  12.809
83784SOL     OW53248   8.924   3.617   4.361
83784SOL    HW153249   9.006   3.581   4.326
83784SOL    HW253250   8.898   3.556   4.429
83785SOL     OW53251   5.491  14.333  10.198
83785SOL    HW153252   5.478  14.304  10.288
83785SOL    HW253253   5.431  14.406  10.187
83786SOL     OW53254   4.476   8.337  12.265
83786SOL    HW153255   4.494   8.378  12.181
83786SOL    HW253256   4.549   8.364  12.321
83787SOL     OW53257   5.871   1.377  14.529
83787SOL    HW153258   5.848   1.306  14.589
83787SOL    HW253259   5.955   1.351  14.492
83788SOL     OW53260   3.341   7.059   1.284
83788SOL    HW153261   3.427   7.063   1.242
83788SOL    HW253262   3.289   7.002   1.228
83789SOL     OW53263   3.356   3.123   9.710
83789SOL    HW153264   3.263   3.124   9.732
83789SOL    HW253265   3.371   3.037   9.671
83790SOL     OW53266  12.869   8.804   6.680
83790SOL    HW153267  12.918   8.814   6.761
83790SOL    HW253268  12.780   8.784   6.707
83791SOL     OW53269   4.829   4.406  11.618
83791SOL    HW153270   4.877   4.428  11.697
83791SOL    HW253271   4.884   4.342  11.573
83792SOL     OW53272   4.157   1.917   6.509
83792SOL    HW153273   4.077   1.865   6.496
83792SOL    HW253274   4.179   1.948   6.421
83793SOL     OW53275   7.746  14.046   3.262
83793SOL    HW153276   7.798  13.992   3.321
83793SOL    HW253277   7.789  14.038   3.177
83794SOL     OW53278  11.838   0.964   8.078
83794SOL    HW153279  11.789   0.885   8.053
83794SOL    HW253280  11.879   0.942   8.161
83795SOL     OW53281  13.483  13.917   2.695
83795SOL    HW153282  13.517  13.998   2.658
83795SOL    HW253283  13.524  13.911   2.782
83796SOL     OW53284   9.334   6.173   8.368
83796SOL    HW153285   9.322   6.092   8.418
83796SOL    HW253286   9.357   6.145   8.280
83797SOL     OW53287   8.644  10.117   7.684
83797SOL    HW153288   8.685  10.159   7.760
83797SOL    HW253289   8.584  10.183   7.650
83798SOL     OW53290  10.202   3.206   3.729
83798SOL    HW153291  10.159   3.278   3.683
83798SOL    HW253292  10.257   3.248   3.794
83799SOL     OW53293   1.144   2.535   4.701
83799SOL    HW153294   1.144   2.522   4.606
83799SOL    HW253295   1.149   2.629   4.713
83800SOL     OW53296   6.988   0.917   7.174
83800SOL    HW153297   6.934   0.995   7.171
83800SOL    HW253298   7.075   0.949   7.199
83801SOL     OW53299  10.686   4.746  11.800
83801SOL    HW153300  10.761   4.714  11.849
83801SOL    HW253301  10.610   4.727  11.855
83802SOL     OW53302   4.354   9.775   2.274
83802SOL    HW153303   4.260   9.778   2.288
83802SOL    HW253304   4.374   9.681   2.263
83803SOL     OW53305   9.176   7.844   1.613
83803SOL    HW153306   9.093   7.889   1.627
83803SOL    HW253307   9.177   7.775   1.679
83804SOL     OW53308   3.082  14.786   0.214
83804SOL    HW153309   3.038  14.712   0.256
83804SOL    HW253310   3.145  14.745   0.155
83805SOL     OW53311  11.575  10.008   6.526
83805SOL    HW153312  11.532  10.082   6.568
83805SOL    HW253313  11.556  10.019   6.433
83806SOL     OW53314   5.308   8.935  10.018
83806SOL    HW153315   5.263   8.975   9.944
83806SOL    HW253316   5.269   8.977  10.095
83807SOL     OW53317   6.473  13.445   8.060
83807SOL    HW153318   6.397  13.394   8.087
83807SOL    HW253319   6.538  13.430   8.128
83808SOL     OW53320   7.489   7.554  13.828
83808SOL    HW153321   7.582   7.567  13.814
83808SOL    HW253322   7.451   7.642  13.825
83809SOL     OW53323   3.481   9.387  12.074
83809SOL    HW153324   3.477   9.295  12.099
83809SOL    HW253325   3.573   9.401  12.050
83810SOL     OW53326  13.005   8.858   2.871
83810SOL    HW153327  13.021   8.880   2.963
83810SOL    HW253328  13.087   8.879   2.827
83811SOL     OW53329   1.366   5.286   3.070
83811SOL    HW153330   1.316   5.319   2.995
83811SOL    HW253331   1.378   5.193   3.051
83812SOL     OW53332   8.075   9.272  11.881
83812SOL    HW153333   8.150   9.308  11.929
83812SOL    HW253334   8.108   9.191  11.842
83813SOL     OW53335   9.238  13.627   8.550
83813SOL    HW153336   9.264  13.703   8.497
83813SOL    HW253337   9.156  13.654   8.591
83814SOL     OW53338   9.123   6.096   2.657
83814SOL    HW153339   9.096   6.155   2.586
83814SOL    HW253340   9.155   6.155   2.725
83815SOL     OW53341  10.337   0.140  13.473
83815SOL    HW153342  10.433   0.146  13.475
83815SOL    HW253343  10.313   0.110  13.561
83816SOL     OW53344   2.960   0.806   4.269
83816SOL    HW153345   3.037   0.863   4.262
83816SOL    HW253346   2.997   0.719   4.285
83817SOL     OW53347  14.302   1.016  12.522
83817SOL    HW153348  14.394   1.032  12.501
83817SOL    HW253349  14.299   0.924  12.547
83818SOL     OW53350   5.835  13.514   2.266
83818SOL    HW153351   5.850  13.511   2.361
83818SOL    HW253352   5.743  13.488   2.256
83819SOL     OW53353   1.384   9.523   8.269
83819SOL    HW153354   1.421   9.596   8.220
83819SOL    HW253355   1.379   9.555   8.359
83820SOL     OW53356   7.395   5.878   9.509
83820SOL    HW153357   7.309   5.888   9.550
83820SOL    HW253358   7.381   5.897   9.417
83821SOL     OW53359   7.061   3.202   1.986
83821SOL    HW153360   6.973   3.178   2.015
83821SOL    HW253361   7.106   3.119   1.973
83822SOL     OW53362   3.597   5.632   9.453
83822SOL    HW153363   3.643   5.550   9.433
83822SOL    HW253364   3.627   5.655   9.541
83823SOL     OW53365  14.832   0.924   0.036
83823SOL    HW153366  14.854   1.016   0.055
83823SOL    HW253367   0.042   0.875   0.063
83824SOL     OW53368  12.724   5.871   2.506
83824SOL    HW153369  12.775   5.837   2.580
83824SOL    HW253370  12.651   5.917   2.548
83825SOL     OW53371   1.094   8.222  14.453
83825SOL    HW153372   1.134   8.215  14.540
83825SOL    HW253373   1.051   8.307  14.453
83826SOL     OW53374  12.459   0.755  11.031
83826SOL    HW153375  12.375   0.800  11.015
83826SOL    HW253376  12.487   0.789  11.116
83827SOL     OW53377   1.666   2.198  10.165
83827SOL    HW153378   1.634   2.194  10.255
83827SOL    HW253379   1.611   2.264  10.123
83828SOL     OW53380   4.733  11.950   9.448
83828SOL    HW153381   4.813  11.986   9.485
83828SOL    HW253382   4.686  11.913   9.523
83829SOL     OW53383   1.800   1.775   7.724
83829SOL    HW153384   1.794   1.746   7.815
83829SOL    HW253385   1.859   1.850   7.727
83830SOL     OW53386   0.146  10.837   8.906
83830SOL    HW153387   0.157  10.874   8.994
83830SOL    HW253388   0.154  10.742   8.920
83831SOL     OW53389  10.366   9.972   2.272
83831SOL    HW153390  10.372   9.879   2.250
83831SOL    HW253391  10.454  10.005   2.259
83832SOL     OW53392   2.597   7.996   5.780
83832SOL    HW153393   2.610   7.979   5.874
83832SOL    HW253394   2.629   7.918   5.736
83833SOL     OW53395   1.836   4.815   2.854
83833SOL    HW153396   1.784   4.863   2.790
83833SOL    HW253397   1.859   4.733   2.809
83834SOL     OW53398   5.629  11.231  11.363
83834SOL    HW153399   5.552  11.174  11.368
83834SOL    HW253400   5.684  11.190  11.296
83835SOL     OW53401  12.766   5.662  14.553
83835SOL    HW153402  12.799   5.690  14.467
83835SOL    HW253403  12.843   5.660  14.609
83836SOL     OW53404  11.202   4.043   1.550
83836SOL    HW153405  11.271   3.983   1.579
83836SOL    HW253406  11.124   4.014   1.596
83837SOL     OW53407  12.950  10.185  13.179
83837SOL    HW153408  12.945  10.189  13.083
83837SOL    HW253409  12.974  10.274  13.205
83838SOL     OW53410  14.412  11.894   0.491
83838SOL    HW153411  14.422  11.975   0.542
83838SOL    HW253412  14.418  11.824   0.556
83839SOL     OW53413   5.146   1.922   9.987
83839SOL    HW153414   5.133   1.866   9.910
83839SOL    HW253415   5.240   1.940   9.989
83840SOL     OW53416   8.034   0.875   8.411
83840SOL    HW153417   8.045   0.856   8.504
83840SOL    HW253418   8.115   0.918   8.386
83841SOL     OW53419  14.751   9.476  12.698
83841SOL    HW153420  14.760   9.474  12.793
83841SOL    HW253421  14.813   9.411  12.666
83842SOL     OW53422   8.755   5.799   5.698
83842SOL    HW153423   8.799   5.877   5.732
83842SOL    HW253424   8.744   5.742   5.774
83843SOL     OW53425  10.749   6.120  13.045
83843SOL    HW153426  10.741   6.117  12.950
83843SOL    HW253427  10.660   6.111  13.078
83844SOL     OW53428   8.775  10.836   3.536
83844SOL    HW153429   8.693  10.812   3.493
83844SOL    HW253430   8.801  10.918   3.493
83845SOL     OW53431  13.296   5.999   1.840
83845SOL    HW153432  13.297   6.021   1.746
83845SOL    HW253433  13.262   5.910   1.843
83846SOL     OW53434   2.400   4.503  11.044
83846SOL    HW153435   2.325   4.518  10.987
83846SOL    HW253436   2.371   4.435  11.105
83847SOL     OW53437   0.561  12.997  14.296
83847SOL    HW153438   0.607  13.074  14.328
83847SOL    HW253439   0.471  13.006  14.328
83848SOL     OW53440   8.256   2.030   4.176
83848SOL    HW153441   8.336   2.082   4.191
83848SOL    HW253442   8.199   2.089   4.126
83849SOL     OW53443   2.001   7.575   1.271
83849SOL    HW153444   2.096   7.589   1.270
83849SOL    HW253445   1.975   7.583   1.180
83850SOL     OW53446  14.059   1.433   3.149
83850SOL    HW153447  14.145   1.422   3.189
83850SOL    HW253448  14.000   1.380   3.203
83851SOL     OW53449  12.979  11.833   2.326
83851SOL    HW153450  12.887  11.850   2.343
83851SOL    HW253451  12.980  11.749   2.280
83852SOL     OW53452   9.684   8.822   4.455
83852SOL    HW153453   9.594   8.803   4.428
83852SOL    HW253454   9.711   8.745   4.504
83853SOL     OW53455   3.712   6.972  12.590
83853SOL    HW153456   3.759   6.919  12.525
83853SOL    HW253457   3.727   6.927  12.673
83854SOL     OW53458   8.509   8.609   3.021
83854SOL    HW153459   8.471   8.659   3.094
83854SOL    HW253460   8.481   8.519   3.038
83855SOL     OW53461   2.533   0.259   6.914
83855SOL    HW153462   2.450   0.231   6.875
83855SOL    HW253463   2.552   0.343   6.873
83856SOL     OW53464   0.911  11.088  12.616
83856SOL    HW153465   0.896  11.085  12.710
83856SOL    HW253466   0.961  11.168  12.602
83857SOL     OW53467   7.696  10.501  13.757
83857SOL    HW153468   7.750  10.527  13.831
83857SOL    HW253469   7.637  10.434  13.792
83858SOL     OW53470   8.688   0.400   8.663
83858SOL    HW153471   8.672   0.308   8.682
83858SOL    HW253472   8.688   0.443   8.749
83859SOL     OW53473   8.601  12.727  13.461
83859SOL    HW153474   8.643  12.667  13.399
83859SOL    HW253475   8.629  12.696  13.547
83860SOL     OW53476   6.310   3.617   2.107
83860SOL    HW153477   6.340   3.707   2.094
83860SOL    HW253478   6.254   3.600   2.031
83861SOL     OW53479  13.226  10.472  10.885
83861SOL    HW153480  13.249  10.446  10.796
83861SOL    HW253481  13.250  10.396  10.939
83862SOL     OW53482   4.456   7.175   3.839
83862SOL    HW153483   4.530   7.202   3.894
83862SOL    HW253484   4.498   7.137   3.761
83863SOL     OW53485  12.566   3.456   8.155
83863SOL    HW153486  12.535   3.439   8.066
83863SOL    HW253487  12.497   3.509   8.195
83864SOL     OW53488   1.635   3.112   3.455
83864SOL    HW153489   1.561   3.143   3.506
83864SOL    HW253490   1.666   3.190   3.408
83865SOL     OW53491  13.429  11.836  13.407
83865SOL    HW153492  13.479  11.863  13.330
83865SOL    HW253493  13.455  11.899  13.475
83866SOL     OW53494  11.628   8.259   0.047
83866SOL    HW153495  11.548   8.240  14.866
83866SOL    HW253496  11.657   8.344   0.013
83867SOL     OW53497   5.702  12.789   2.355
83867SOL    HW153498   5.683  12.879   2.330
83867SOL    HW253499   5.655  12.775   2.437
83868SOL     OW53500   6.019   2.383   8.938
83868SOL    HW153501   6.045   2.297   8.904
83868SOL    HW253502   6.101   2.422   8.968
83869SOL     OW53503   0.051  12.655   7.015
83869SOL    HW153504   0.055  12.620   6.926
83869SOL    HW253505   0.138  12.689   7.032
83870SOL     OW53506   8.493   4.029  13.930
83870SOL    HW153507   8.549   3.998  13.858
83870SOL    HW253508   8.405   4.004  13.904
83871SOL     OW53509   1.417   4.034   9.078
83871SOL    HW153510   1.368   4.111   9.108
83871SOL    HW253511   1.401   4.031   8.984
83872SOL     OW53512   2.305   0.625   9.915
83872SOL    HW153513   2.375   0.560   9.919
83872SOL    HW253514   2.241   0.595   9.981
83873SOL     OW53515   7.322  14.522   2.542
83873SOL    HW153516   7.309  14.442   2.592
83873SOL    HW253517   7.262  14.585   2.581
83874SOL     OW53518   1.206   3.234   7.685
83874SOL    HW153519   1.200   3.321   7.726
83874SOL    HW253520   1.153   3.242   7.606
83875SOL     OW53521  11.855   7.542   0.592
83875SOL    HW153522  11.864   7.529   0.498
83875SOL    HW253523  11.926   7.602   0.615
83876SOL     OW53524   3.527   4.299   1.511
83876SOL    HW153525   3.608   4.281   1.558
83876SOL    HW253526   3.460   4.306   1.579
83877SOL     OW53527   0.622   0.295   5.437
83877SOL    HW153528   0.671   0.305   5.518
83877SOL    HW253529   0.614   0.200   5.426
83878SOL     OW53530   2.032   5.229   0.167
83878SOL    HW153531   2.075   5.154   0.125
83878SOL    HW253532   2.099   5.297   0.169
83879SOL     OW53533   5.416  14.312   0.626
83879SOL    HW153534   5.422  14.342   0.716
83879SOL    HW253535   5.479  14.367   0.578
83880SOL     OW53536  13.343   4.055   9.614
83880SOL    HW153537  13.387   4.139   9.601
83880SOL    HW253538  13.414   3.993   9.631
83881SOL     OW53539   1.003   9.940   1.958
83881SOL    HW153540   1.009   9.942   2.054
83881SOL    HW253541   1.093   9.927   1.929
83882SOL     OW53542  12.308   9.410   5.142
83882SOL    HW153543  12.375   9.475   5.118
83882SOL    HW253544  12.324   9.337   5.083
83883SOL     OW53545   3.077  10.752  13.420
83883SOL    HW153546   3.159  10.710  13.446
83883SOL    HW253547   3.094  10.846  13.430
83884SOL     OW53548   3.665  13.619  11.800
83884SOL    HW153549   3.704  13.681  11.739
83884SOL    HW253550   3.571  13.632  11.791
83885SOL     OW53551   9.595   3.007  13.061
83885SOL    HW153552   9.612   3.043  13.148
83885SOL    HW253553   9.674   2.956  13.041
83886SOL     OW53554   1.673   7.485  11.898
83886SOL    HW153555   1.626   7.409  11.934
83886SOL    HW253556   1.655   7.555  11.960
83887SOL     OW53557   0.301   6.370   1.822
83887SOL    HW153558   0.307   6.438   1.888
83887SOL    HW253559   0.391   6.358   1.791
83888SOL     OW53560   4.093  13.901   0.786
83888SOL    HW153561   4.125  13.976   0.836
83888SOL    HW253562   4.164  13.879   0.727
83889SOL     OW53563  10.738  10.843  11.025
83889SOL    HW153564  10.752  10.890  11.108
83889SOL    HW253565  10.702  10.909  10.966
83890SOL     OW53566  14.746   3.646   1.634
83890SOL    HW153567  14.732   3.636   1.728
83890SOL    HW253568  14.837   3.675   1.625
83891SOL     OW53569   2.289   7.247   0.708
83891SOL    HW153570   2.235   7.222   0.783
83891SOL    HW253571   2.247   7.327   0.675
83892SOL     OW53572   2.905   7.892   4.652
83892SOL    HW153573   2.815   7.904   4.684
83892SOL    HW253574   2.946   7.836   4.718
83893SOL     OW53575   8.680  10.605  10.940
83893SOL    HW153576   8.708  10.523  10.983
83893SOL    HW253577   8.762  10.651  10.922
83894SOL     OW53578  12.844   0.338   5.265
83894SOL    HW153579  12.819   0.375   5.180
83894SOL    HW253580  12.851   0.244   5.248
83895SOL     OW53581  10.820  12.078   6.156
83895SOL    HW153582  10.871  12.103   6.233
83895SOL    HW253583  10.885  12.061   6.088
83896SOL     OW53584  12.003   7.785   4.190
83896SOL    HW153585  11.925   7.836   4.168
83896SOL    HW253586  11.987   7.699   4.151
83897SOL     OW53587   7.930  12.431   1.361
83897SOL    HW153588   7.958  12.342   1.338
83897SOL    HW253589   8.011  12.482   1.360
83898SOL     OW53590   0.137   3.521  14.310
83898SOL    HW153591   0.219   3.569  14.300
83898SOL    HW253592   0.160   3.443  14.360
83899SOL     OW53593   1.214   4.642   6.304
83899SOL    HW153594   1.123   4.663   6.285
83899SOL    HW253595   1.263   4.673   6.228
83900SOL     OW53596  11.079   4.981   0.118
83900SOL    HW153597  11.086   5.037   0.041
83900SOL    HW253598  10.994   5.003   0.156
83901SOL     OW53599   4.189  12.702   6.300
83901SOL    HW153600   4.172  12.613   6.269
83901SOL    HW253601   4.106  12.731   6.337
83902SOL     OW53602  12.363  10.939  14.726
83902SOL    HW153603  12.329  10.996  14.657
83902SOL    HW253604  12.455  10.927  14.703
83903SOL     OW53605   0.409  13.348  14.046
83903SOL    HW153606   0.340  13.337  13.980
83903SOL    HW253607   0.484  13.301  14.010
83904SOL     OW53608   7.994  11.662   6.289
83904SOL    HW153609   7.999  11.599   6.360
83904SOL    HW253610   7.959  11.612   6.215
83905SOL     OW53611  11.059   1.389   2.039
83905SOL    HW153612  11.071   1.323   1.971
83905SOL    HW253613  11.141   1.388   2.089
83906SOL     OW53614   9.082  10.212   3.654
83906SOL    HW153615   9.069  10.210   3.559
83906SOL    HW253616   9.104  10.122   3.677
83907SOL     OW53617  12.867   4.510  13.824
83907SOL    HW153618  12.812   4.440  13.791
83907SOL    HW253619  12.811   4.588  13.823
83908SOL     OW53620   5.156   4.832   3.857
83908SOL    HW153621   5.110   4.909   3.890
83908SOL    HW253622   5.128   4.824   3.766
83909SOL     OW53623  13.951   6.884   8.581
83909SOL    HW153624  13.869   6.899   8.534
83909SOL    HW253625  14.017   6.873   8.512
83910SOL     OW53626   3.211   7.347   4.073
83910SOL    HW153627   3.258   7.267   4.048
83910SOL    HW253628   3.131   7.346   4.020
83911SOL     OW53629   0.288  13.901   5.204
83911SOL    HW153630   0.222  13.888   5.271
83911SOL    HW253631   0.307  13.995   5.208
83912SOL     OW53632   8.519  13.126   0.278
83912SOL    HW153633   8.512  13.128   0.183
83912SOL    HW253634   8.586  13.191   0.299
83913SOL     OW53635  11.997  11.619   7.115
83913SOL    HW153636  11.939  11.678   7.067
83913SOL    HW253637  12.015  11.548   7.053
83914SOL     OW53638  14.394   1.336   3.090
83914SOL    HW153639  14.344   1.360   3.012
83914SOL    HW253640  14.478   1.382   3.079
83915SOL     OW53641   4.715   2.071   1.153
83915SOL    HW153642   4.743   2.152   1.196
83915SOL    HW253643   4.641   2.040   1.205
83916SOL     OW53644   5.603   8.168  13.319
83916SOL    HW153645   5.639   8.221  13.390
83916SOL    HW253646   5.617   8.077  13.347
83917SOL     OW53647   2.828   0.636   5.154
83917SOL    HW153648   2.896   0.651   5.089
83917SOL    HW253649   2.875   0.606   5.232
83918SOL     OW53650  13.746   9.111   6.028
83918SOL    HW153651  13.663   9.137   6.070
83918SOL    HW253652  13.781   9.193   5.994
83919SOL     OW53653   1.932  14.287   4.489
83919SOL    HW153654   1.873  14.215   4.508
83919SOL    HW253655   1.994  14.252   4.425
83920SOL     OW53656   4.348   4.533   5.698
83920SOL    HW153657   4.261   4.494   5.706
83920SOL    HW253658   4.377   4.547   5.788
83921SOL     OW53659   5.199   8.072   1.004
83921SOL    HW153660   5.215   8.009   1.073
83921SOL    HW253661   5.276   8.066   0.947
83922SOL     OW53662   1.131  12.337  11.931
83922SOL    HW153663   1.140  12.311  12.023
83922SOL    HW253664   1.174  12.266  11.882
83923SOL     OW53665   0.174  10.531  13.609
83923SOL    HW153666   0.113  10.458  13.618
83923SOL    HW253667   0.122  10.609  13.631
83924SOL     OW53668   0.441   0.984  10.239
83924SOL    HW153669   0.458   0.890  10.238
83924SOL    HW253670   0.522   1.024  10.208
83925SOL     OW53671   9.597  13.447   3.059
83925SOL    HW153672   9.524  13.430   3.119
83925SOL    HW253673   9.580  13.389   2.984
83926SOL     OW53674  12.485   0.789   6.148
83926SOL    HW153675  12.406   0.832   6.181
83926SOL    HW253676  12.454   0.733   6.077
83927SOL     OW53677   7.958  13.712  14.402
83927SOL    HW153678   7.988  13.657  14.475
83927SOL    HW253679   8.033  13.715  14.343
83928SOL     OW53680   6.572  10.635   6.473
83928SOL    HW153681   6.493  10.689   6.482
83928SOL    HW253682   6.539  10.545   6.474
83929SOL     OW53683   0.065   9.070   4.653
83929SOL    HW153684  14.850   9.118   4.647
83929SOL    HW253685   0.047   8.986   4.610
83930SOL     OW53686  10.421  11.074   1.155
83930SOL    HW153687  10.493  11.025   1.116
83930SOL    HW253688  10.342  11.025   1.130
83931SOL     OW53689  12.100   1.478   5.421
83931SOL    HW153690  12.156   1.488   5.499
83931SOL    HW253691  12.144   1.412   5.368
83932SOL     OW53692   4.631  12.320  12.521
83932SOL    HW153693   4.540  12.348  12.531
83932SOL    HW253694   4.625  12.229  12.492
83933SOL     OW53695   4.948   5.326   2.891
83933SOL    HW153696   5.017   5.295   2.833
83933SOL    HW253697   4.942   5.420   2.874
83934SOL     OW53698   2.545   5.179  10.169
83934SOL    HW153699   2.633   5.165  10.203
83934SOL    HW253700   2.557   5.244  10.099
83935SOL     OW53701   6.603   0.258  10.426
83935SOL    HW153702   6.651   0.261  10.509
83935SOL    HW253703   6.626   0.174  10.388
83936SOL     OW53704   9.055   8.224  11.333
83936SOL    HW153705   9.043   8.191  11.422
83936SOL    HW253706   8.967   8.247  11.304
83937SOL     OW53707   4.151  11.832   7.623
83937SOL    HW153708   4.074  11.806   7.674
83937SOL    HW253709   4.184  11.750   7.586
83938SOL     OW53710   9.185   5.000   1.188
83938SOL    HW153711   9.159   4.941   1.259
83938SOL    HW253712   9.159   4.954   1.108
83939SOL     OW53713  12.639   9.689   8.044
83939SOL    HW153714  12.650   9.670   8.138
83939SOL    HW253715  12.547   9.711   8.035
83940SOL     OW53716   6.254  12.741   9.836
83940SOL    HW153717   6.204  12.663   9.859
83940SOL    HW253718   6.303  12.763   9.916
83941SOL     OW53719   0.663   9.288   0.665
83941SOL    HW153720   0.570   9.280   0.682
83941SOL    HW253721   0.699   9.201   0.681
83942SOL     OW53722  14.458   1.748   0.724
83942SOL    HW153723  14.444   1.690   0.649
83942SOL    HW253724  14.379   1.801   0.729
83943SOL     OW53725  13.318   9.772   9.091
83943SOL    HW153726  13.359   9.739   9.172
83943SOL    HW253727  13.227   9.788   9.116
83944SOL     OW53728   7.045  12.914   0.400
83944SOL    HW153729   7.018  12.850   0.334
83944SOL    HW253730   7.124  12.954   0.364
83945SOL     OW53731  11.476   9.862  12.702
83945SOL    HW153732  11.465   9.879  12.796
83945SOL    HW253733  11.386   9.848  12.671
83946SOL     OW53734   9.855  14.824   6.314
83946SOL    HW153735   9.850  14.797   6.406
83946SOL    HW253736   9.947  14.812   6.291
83947SOL     OW53737  11.535   1.101   4.875
83947SOL    HW153738  11.512   1.147   4.956
83947SOL    HW253739  11.626   1.075   4.887
83948SOL     OW53740   4.495   2.795   9.205
83948SOL    HW153741   4.437   2.857   9.248
83948SOL    HW253742   4.467   2.796   9.113
83949SOL     OW53743   4.273   9.530  12.471
83949SOL    HW153744   4.179   9.525  12.491
83949SOL    HW253745   4.285   9.473  12.395
83950SOL     OW53746   5.962  11.161  10.251
83950SOL    HW153747   5.919  11.211  10.182
83950SOL    HW253748   6.003  11.227  10.307
83951SOL     OW53749   2.101   8.517   5.030
83951SOL    HW153750   2.140   8.468   4.958
83951SOL    HW253751   2.146   8.486   5.108
83952SOL     OW53752   8.950   2.740   5.114
83952SOL    HW153753   8.913   2.819   5.075
83952SOL    HW253754   8.912   2.736   5.202
83953SOL     OW53755   7.089   5.818   7.749
83953SOL    HW153756   7.008   5.791   7.707
83953SOL    HW253757   7.063   5.889   7.808
83954SOL     OW53758   7.745   0.392   2.535
83954SOL    HW153759   7.722   0.353   2.451
83954SOL    HW253760   7.835   0.422   2.524
83955SOL     OW53761  10.548   5.344  10.347
83955SOL    HW153762  10.600   5.280  10.299
83955SOL    HW253763  10.458   5.311  10.343
83956SOL     OW53764  13.763  13.056   6.029
83956SOL    HW153765  13.833  13.079   6.091
83956SOL    HW253766  13.707  13.134   6.028
83957SOL     OW53767  14.184  14.698   2.471
83957SOL    HW153768  14.255  14.673   2.530
83957SOL    HW253769  14.214  14.778   2.429
83958SOL     OW53770  10.593   0.250   5.178
83958SOL    HW153771  10.678   0.206   5.177
83958SOL    HW253772  10.612   0.338   5.145
83959SOL     OW53773   9.521   1.815   9.945
83959SOL    HW153774   9.491   1.824   9.854
83959SOL    HW253775   9.546   1.904   9.971
83960SOL     OW53776  10.316   0.896  14.401
83960SOL    HW153777  10.236   0.942  14.375
83960SOL    HW253778  10.294   0.803  14.392
83961SOL     OW53779   0.691   1.457   0.749
83961SOL    HW153780   0.601   1.454   0.718
83961SOL    HW253781   0.741   1.492   0.675
83962SOL     OW53782  11.722  14.670   8.797
83962SOL    HW153783  11.747  14.732   8.728
83962SOL    HW253784  11.739  14.718   8.879
83963SOL     OW53785   2.439   4.058  14.694
83963SOL    HW153786   2.444   4.102  14.779
83963SOL    HW253787   2.425   4.128  14.631
83964SOL     OW53788   7.449  14.491   0.104
83964SOL    HW153789   7.538  14.520   0.088
83964SOL    HW253790   7.436  14.504   0.198
83965SOL     OW53791   2.984  12.154  12.999
83965SOL    HW153792   2.977  12.245  12.971
83965SOL    HW253793   2.897  12.132  13.032
83966SOL     OW53794   6.535   0.886   8.110
83966SOL    HW153795   6.466   0.927   8.162
83966SOL    HW253796   6.545   0.942   8.034
83967SOL     OW53797  11.679   0.769   1.672
83967SOL    HW153798  11.596   0.801   1.637
83967SOL    HW253799  11.655   0.701   1.734
83968SOL     OW53800   3.790   3.428   5.995
83968SOL    HW153801   3.745   3.405   6.076
83968SOL    HW253802   3.811   3.343   5.954
83969SOL     OW53803  11.934  12.240  11.115
83969SOL    HW153804  12.012  12.291  11.092
83969SOL    HW253805  11.967  12.151  11.127
83970SOL     OW53806   7.173   6.098   7.553
83970SOL    HW153807   7.124   6.016   7.548
83970SOL    HW253808   7.250   6.084   7.499
83971SOL     OW53809  13.312   9.562   2.207
83971SOL    HW153810  13.252   9.516   2.266
83971SOL    HW253811  13.309   9.512   2.126
83972SOL     OW53812  11.292   0.490   9.014
83972SOL    HW153813  11.280   0.427   9.085
83972SOL    HW253814  11.382   0.476   8.985
83973SOL     OW53815   3.549  10.254   3.861
83973SOL    HW153816   3.536  10.159   3.863
83973SOL    HW253817   3.621  10.269   3.922
83974SOL     OW53818   5.255  13.134   8.675
83974SOL    HW153819   5.329  13.082   8.708
83974SOL    HW253820   5.281  13.225   8.691
83975SOL     OW53821   8.513  11.088   8.299
83975SOL    HW153822   8.464  11.102   8.380
83975SOL    HW253823   8.446  11.074   8.233
83976SOL     OW53824   5.172  12.432  11.569
83976SOL    HW153825   5.149  12.484  11.646
83976SOL    HW253826   5.225  12.360  11.604
83977SOL     OW53827  13.532   9.215   9.284
83977SOL    HW153828  13.618   9.191   9.319
83977SOL    HW253829  13.543   9.307   9.257
83978SOL     OW53830  13.627   3.577  10.676
83978SOL    HW153831  13.688   3.536  10.738
83978SOL    HW253832  13.570   3.630  10.732
83979SOL     OW53833  13.956   4.719  10.586
83979SOL    HW153834  13.962   4.638  10.637
83979SOL    HW253835  13.917   4.693  10.503
83980SOL     OW53836   0.779   2.679  13.501
83980SOL    HW153837   0.829   2.707  13.424
83980SOL    HW253838   0.742   2.760  13.536
83981SOL     OW53839   4.941   3.674   1.343
83981SOL    HW153840   4.905   3.665   1.432
83981SOL    HW253841   4.990   3.594   1.329
83982SOL     OW53842  12.775  11.228   8.285
83982SOL    HW153843  12.772  11.140   8.247
83982SOL    HW253844  12.773  11.213   8.380
83983SOL     OW53845   5.079  13.091  11.818
83983SOL    HW153846   5.067  13.078  11.724
83983SOL    HW253847   5.145  13.027  11.844
83984SOL     OW53848   8.283  13.326   7.695
83984SOL    HW153849   8.312  13.333   7.604
83984SOL    HW253850   8.284  13.232   7.713
83985SOL     OW53851  12.921  11.789   6.217
83985SOL    HW153852  12.999  11.753   6.260
83985SOL    HW253853  12.941  11.785   6.124
83986SOL     OW53854   0.341   3.427   8.799
83986SOL    HW153855   0.257   3.466   8.824
83986SOL    HW253856   0.384   3.493   8.745
83987SOL     OW53857  14.438   0.988  12.198
83987SOL    HW153858  14.486   0.930  12.140
83987SOL    HW253859  14.482   0.979  12.283
83988SOL     OW53860   3.825   7.969   5.993
83988SOL    HW153861   3.793   7.907   6.059
83988SOL    HW253862   3.788   7.939   5.911
83989SOL     OW53863   6.952   1.935   3.899
83989SOL    HW153864   6.900   2.015   3.906
83989SOL    HW253865   7.039   1.960   3.932
83990SOL     OW53866  12.745   4.318   8.927
83990SOL    HW153867  12.755   4.228   8.897
83990SOL    HW253868  12.660   4.319   8.972
83991SOL     OW53869   5.477   4.824   7.987
83991SOL    HW153870   5.484   4.827   7.892
83991SOL    HW253871   5.555   4.778   8.017
83992SOL     OW53872   2.961  12.002   8.202
83992SOL    HW153873   2.939  11.910   8.213
83992SOL    HW253874   3.041  12.014   8.252
83993SOL     OW53875   5.471   5.384   7.601
83993SOL    HW153876   5.412   5.316   7.569
83993SOL    HW253877   5.473   5.449   7.530
83994SOL     OW53878   4.634   3.046  11.252
83994SOL    HW153879   4.654   3.139  11.263
83994SOL    HW253880   4.687   3.018  11.178
83995SOL     OW53881  13.802   5.310   2.833
83995SOL    HW153882  13.797   5.405   2.843
83995SOL    HW253883  13.729   5.288   2.775
83996SOL     OW53884   5.131   3.658   2.975
83996SOL    HW153885   5.209   3.628   2.927
83996SOL    HW253886   5.166   3.697   3.055
83997SOL     OW53887   0.471   1.411   5.559
83997SOL    HW153888   0.522   1.492   5.556
83997SOL    HW253889   0.515   1.353   5.497
83998SOL     OW53890   5.846   3.923   9.878
83998SOL    HW153891   5.765   3.962   9.910
83998SOL    HW253892   5.881   3.876   9.954
83999SOL     OW53893   5.007   4.447   6.320
83999SOL    HW153894   5.022   4.456   6.414
83999SOL    HW253895   4.977   4.534   6.292
84000SOL     OW53896   8.264  12.330   0.224
84000SOL    HW153897   8.216  12.298   0.301
84000SOL    HW253898   8.298  12.250   0.182
84001SOL     OW53899  12.797  11.228   4.210
84001SOL    HW153900  12.814  11.139   4.240
84001SOL    HW253901  12.725  11.259   4.264
84002SOL     OW53902   0.349   1.097   5.879
84002SOL    HW153903   0.294   1.164   5.839
84002SOL    HW253904   0.424   1.146   5.914
84003SOL     OW53905   0.082  12.942   0.989
84003SOL    HW153906   0.142  12.887   0.938
84003SOL    HW253907   0.049  12.883   1.057
84004SOL     OW53908   7.145  11.223  14.237
84004SOL    HW153909   7.077  11.184  14.292
84004SOL    HW253910   7.224  11.223  14.291
84005SOL     OW53911  14.172   8.787  13.239
84005SOL    HW153912  14.216   8.734  13.173
84005SOL    HW253913  14.152   8.725  13.310
84006SOL     OW53914   2.680  13.258   9.488
84006SOL    HW153915   2.749  13.282   9.426
84006SOL    HW253916   2.601  13.300   9.455
84007SOL     OW53917   5.603  10.663  12.441
84007SOL    HW153918   5.612  10.693  12.531
84007SOL    HW253919   5.690  10.672  12.404
84008SOL     OW53920   5.052   2.446   3.264
84008SOL    HW153921   5.134   2.485   3.234
84008SOL    HW253922   5.074   2.355   3.284
84009SOL     OW53923   0.802  12.775   3.535
84009SOL    HW153924   0.820  12.868   3.546
84009SOL    HW253925   0.879  12.741   3.489
84010SOL     OW53926   0.734   8.279   5.361
84010SOL    HW153927   0.663   8.339   5.386
84010SOL    HW253928   0.707   8.245   5.276
84011SOL     OW53929  13.054   9.328   9.188
84011SOL    HW153930  13.040   9.322   9.283
84011SOL    HW253931  13.139   9.288   9.174
84012SOL     OW53932   6.785   2.151  10.188
84012SOL    HW153933   6.810   2.205  10.113
84012SOL    HW253934   6.783   2.211  10.262
84013SOL     OW53935   7.481   8.534   2.897
84013SOL    HW153936   7.412   8.467   2.904
84013SOL    HW253937   7.439   8.614   2.927
84014SOL     OW53938  11.989  13.672   2.135
84014SOL    HW153939  11.994  13.663   2.230
84014SOL    HW253940  12.079  13.688   2.107
84015SOL     OW53941   3.481  13.163   3.534
84015SOL    HW153942   3.566  13.207   3.529
84015SOL    HW253943   3.422  13.220   3.485
84016SOL     OW53944   8.786   0.543  10.772
84016SOL    HW153945   8.750   0.464  10.732
84016SOL    HW253946   8.833   0.511  10.849
84017SOL     OW53947  12.633  14.159   3.189
84017SOL    HW153948  12.710  14.203   3.226
84017SOL    HW253949  12.661  14.131   3.102
84018SOL     OW53950   8.127   8.074  10.906
84018SOL    HW153951   8.154   7.985  10.880
84018SOL    HW253952   8.130   8.073  11.001
84019SOL     OW53953  11.154   5.120  12.513
84019SOL    HW153954  11.171   5.201  12.562
84019SOL    HW253955  11.184   5.140  12.424
84020SOL     OW53956   8.780   7.513   2.553
84020SOL    HW153957   8.821   7.478   2.632
84020SOL    HW253958   8.686   7.502   2.568
84021SOL     OW53959  10.718   0.227   4.543
84021SOL    HW153960  10.657   0.301   4.535
84021SOL    HW253961  10.729   0.196   4.453
84022SOL     OW53962  13.242   0.833   6.040
84022SOL    HW153963  13.216   0.778   5.966
84022SOL    HW253964  13.160   0.870   6.072
84023SOL     OW53965   8.936   0.006  14.079
84023SOL    HW153966   8.968   0.065  14.147
84023SOL    HW253967   8.840   0.015  14.082
84024SOL     OW53968   3.280   2.810  10.972
84024SOL    HW153969   3.249   2.807  11.063
84024SOL    HW253970   3.347   2.878  10.972
84025SOL     OW53971   2.172  13.707   7.053
84025SOL    HW153972   2.086  13.746   7.069
84025SOL    HW253973   2.197  13.740   6.966
84026SOL     OW53974  14.362  11.465   2.530
84026SOL    HW153975  14.345  11.533   2.465
84026SOL    HW253976  14.356  11.383   2.482
84027SOL     OW53977   7.119  11.477   7.445
84027SOL    HW153978   7.161  11.553   7.405
84027SOL    HW253979   7.057  11.446   7.378
84028SOL     OW53980  11.736   7.278   1.415
84028SOL    HW153981  11.751   7.242   1.327
84028SOL    HW253982  11.658   7.233   1.446
84029SOL     OW53983  11.043   3.880   8.813
84029SOL    HW153984  11.068   3.947   8.877
84029SOL    HW253985  11.085   3.906   8.732
84030SOL     OW53986   0.862  10.492   9.222
84030SOL    HW153987   0.807  10.485   9.300
84030SOL    HW253988   0.942  10.535   9.252
84031SOL     OW53989   9.467  13.600   8.215
84031SOL    HW153990   9.386  13.605   8.165
84031SOL    HW253991   9.481  13.506   8.230
84032SOL     OW53992   6.182   7.793  12.234
84032SOL    HW153993   6.166   7.871  12.181
84032SOL    HW253994   6.236   7.824  12.306
84033SOL     OW53995  13.130   1.918   9.922
84033SOL    HW153996  13.217   1.909   9.960
84033SOL    HW253997  13.146   1.923   9.827
84034SOL     OW53998   2.880   0.182  14.209
84034SOL    HW153999   2.878   0.219  14.120
84034SOL    HW254000   2.922   0.250  14.262
84035SOL     OW54001   2.970  14.807   5.258
84035SOL    HW154002   3.026   0.017   5.262
84035SOL    HW254003   2.964  14.787   5.165
84036SOL     OW54004   9.205   2.122   2.043
84036SOL    HW154005   9.160   2.166   1.971
84036SOL    HW254006   9.136   2.079   2.093
84037SOL     OW54007  14.775  10.107   0.773
84037SOL    HW154008  14.842  10.161   0.815
84037SOL    HW254009  14.737  10.056   0.844
84038SOL     OW54010  14.303  13.425   6.121
84038SOL    HW154011  14.354  13.347   6.101
84038SOL    HW254012  14.296  13.426   6.216
84039SOL     OW54013   6.966   3.784  12.226
84039SOL    HW154014   6.927   3.855  12.176
84039SOL    HW254015   6.910   3.708  12.208
84040SOL     OW54016  10.194   2.261  10.081
84040SOL    HW154017  10.216   2.330  10.019
84040SOL    HW254018  10.278   2.219  10.100
84041SOL     OW54019  12.087   9.950   0.071
84041SOL    HW154020  12.043  10.005   0.006
84041SOL    HW254021  12.105   9.868   0.025
84042SOL     OW54022   5.233   4.122   7.773
84042SOL    HW154023   5.232   4.167   7.689
84042SOL    HW254024   5.179   4.177   7.830
84043SOL     OW54025   0.922   6.956   2.962
84043SOL    HW154026   0.970   7.038   2.970
84043SOL    HW254027   0.921   6.919   3.050
84044SOL     OW54028  10.049  13.472  11.685
84044SOL    HW154029  10.069  13.564  11.665
84044SOL    HW254030  10.119  13.445  11.744
84045SOL     OW54031  10.492   6.002  13.968
84045SOL    HW154032  10.558   5.942  13.934
84045SOL    HW254033  10.408   5.962  13.946
84046SOL     OW54034  12.668   4.493  12.701
84046SOL    HW154035  12.653   4.420  12.761
84046SOL    HW254036  12.622   4.469  12.621
84047SOL     OW54037  11.903  13.275   0.687
84047SOL    HW154038  11.981  13.223   0.707
84047SOL    HW254039  11.910  13.351   0.745
84048SOL     OW54040  13.766   8.502   8.543
84048SOL    HW154041  13.802   8.589   8.530
84048SOL    HW254042  13.837   8.443   8.518
84049SOL     OW54043   9.359   0.500  14.273
84049SOL    HW154044   9.414   0.426  14.248
84049SOL    HW254045   9.315   0.526  14.193
84050SOL     OW54046   5.210   9.362  13.796
84050SOL    HW154047   5.142   9.387  13.733
84050SOL    HW254048   5.230   9.443  13.843
84051SOL     OW54049   9.943   4.873   1.061
84051SOL    HW154050   9.888   4.882   1.138
84051SOL    HW254051   9.965   4.780   1.057
84052SOL     OW54052   1.846   8.117   5.133
84052SOL    HW154053   1.837   8.208   5.105
84052SOL    HW254054   1.883   8.123   5.221
84053SOL     OW54055   0.308  14.452  14.674
84053SOL    HW154056   0.274  14.414  14.755
84053SOL    HW254057   0.258  14.410  14.604
84054SOL     OW54058  11.134  13.744  13.452
84054SOL    HW154059  11.170  13.728  13.365
84054SOL    HW254060  11.194  13.806  13.493
84055SOL     OW54061  10.939   7.366   6.083
84055SOL    HW154062  11.003   7.300   6.056
84055SOL    HW254063  10.857   7.316   6.094
84056SOL     OW54064  11.472  10.613   3.324
84056SOL    HW154065  11.395  10.665   3.347
84056SOL    HW254066  11.445  10.562   3.248
84057SOL     OW54067   2.946   9.935  13.532
84057SOL    HW154068   3.037   9.906  13.533
84057SOL    HW254069   2.900   9.874  13.590
84058SOL     OW54070  10.629   8.344   0.336
84058SOL    HW154071  10.619   8.415   0.399
84058SOL    HW254072  10.548   8.346   0.284
84059SOL     OW54073   9.400   8.080  13.251
84059SOL    HW154074   9.406   8.161  13.199
84059SOL    HW254075   9.318   8.088  13.299
84060SOL     OW54076  10.840  13.573   7.398
84060SOL    HW154077  10.871  13.504   7.456
84060SOL    HW254078  10.896  13.567   7.320
84061SOL     OW54079   4.543   4.158   5.587
84061SOL    HW154080   4.565   4.107   5.509
84061SOL    HW254081   4.515   4.243   5.552
84062SOL     OW54082   8.401  14.318   5.629
84062SOL    HW154083   8.344  14.241   5.622
84062SOL    HW254084   8.417  14.345   5.539
84063SOL     OW54085  13.824   6.789  11.522
84063SOL    HW154086  13.749   6.841  11.551
84063SOL    HW254087  13.876   6.776  11.601
84064SOL     OW54088   5.592   5.630   7.081
84064SOL    HW154089   5.678   5.633   7.124
84064SOL    HW254090   5.532   5.600   7.149
84065SOL     OW54091   5.610   2.939   7.696
84065SOL    HW154092   5.515   2.948   7.709
84065SOL    HW254093   5.645   3.024   7.723
84066SOL     OW54094  12.177   7.374  14.420
84066SOL    HW154095  12.178   7.285  14.456
84066SOL    HW254096  12.136   7.365  14.334
84067SOL     OW54097   9.017   4.471   0.316
84067SOL    HW154098   8.949   4.537   0.325
84067SOL    HW254099   9.006   4.414   0.392
84068SOL     OW54100   6.988  14.411   3.525
84068SOL    HW154101   7.083  14.422   3.531
84068SOL    HW254102   6.975  14.364   3.443
84069SOL     OW54103   4.104   8.371  11.927
84069SOL    HW154104   4.122   8.398  12.017
84069SOL    HW254105   4.131   8.279  11.923
84070SOL     OW54106  10.264   2.522   2.862
84070SOL    HW154107  10.297   2.548   2.777
84070SOL    HW254108  10.188   2.580   2.877
84071SOL     OW54109  10.990   5.996  13.385
84071SOL    HW154110  11.070   5.991  13.437
84071SOL    HW254111  10.932   5.931  13.423
84072SOL     OW54112  11.409   4.596   9.859
84072SOL    HW154113  11.493   4.586   9.814
84072SOL    HW254114  11.426   4.659   9.929
84073SOL     OW54115   3.453   6.807  11.747
84073SOL    HW154116   3.449   6.749  11.671
84073SOL    HW254117   3.449   6.748  11.822
84074SOL     OW54118  10.326   4.692   4.215
84074SOL    HW154119  10.236   4.704   4.184
84074SOL    HW254120  10.316   4.647   4.299
84075SOL     OW54121   4.453  11.434   0.862
84075SOL    HW154122   4.464  11.444   0.768
84075SOL    HW254123   4.374  11.380   0.871
84076SOL     OW54124   8.183  14.200   2.309
84076SOL    HW154125   8.191  14.106   2.324
84076SOL    HW254126   8.150  14.207   2.220
84077SOL     OW54127  13.610   4.460   7.539
84077SOL    HW154128  13.530   4.487   7.496
84077SOL    HW254129  13.657   4.408   7.474
84078SOL     OW54130   9.485   4.167  12.887
84078SOL    HW154131   9.507   4.114  12.964
84078SOL    HW254132   9.513   4.113  12.813
84079SOL     OW54133   5.524   5.589  12.808
84079SOL    HW154134   5.609   5.618  12.773
84079SOL    HW254135   5.466   5.590  12.732
84080SOL     OW54136  11.903   1.712   6.290
84080SOL    HW154137  11.994   1.704   6.316
84080SOL    HW254138  11.853   1.696   6.370
84081SOL     OW54139  11.079  10.084   8.265
84081SOL    HW154140  11.095  10.059   8.356
84081SOL    HW254141  11.008  10.027   8.236
84082SOL     OW54142   1.946   2.307   4.369
84082SOL    HW154143   1.927   2.213   4.371
84082SOL    HW254144   1.923   2.334   4.280
84083SOL     OW54145  11.338  14.077  12.481
84083SOL    HW154146  11.331  14.143  12.550
84083SOL    HW254147  11.425  14.039  12.493
84084SOL     OW54148   0.172   7.322   9.233
84084SOL    HW154149   0.095   7.377   9.225
84084SOL    HW254150   0.138   7.234   9.245
84085SOL     OW54151   3.182   7.273   0.751
84085SOL    HW154152   3.228   7.195   0.723
84085SOL    HW254153   3.163   7.258   0.844
84086SOL     OW54154   0.992  11.333  11.408
84086SOL    HW154155   0.979  11.421  11.372
84086SOL    HW254156   0.921  11.281  11.370
84087SOL     OW54157   5.344   7.759  12.357
84087SOL    HW154158   5.384   7.769  12.443
84087SOL    HW254159   5.376   7.834  12.307
84088SOL     OW54160   1.452  11.000  11.516
84088SOL    HW154161   1.441  10.906  11.526
84088SOL    HW254162   1.366  11.032  11.487
84089SOL     OW54163   1.730  14.312   9.022
84089SOL    HW154164   1.663  14.374   9.052
84089SOL    HW254165   1.685  14.257   8.958
84090SOL     OW54166   2.588   1.041  14.656
84090SOL    HW154167   2.635   1.117  14.621
84090SOL    HW254168   2.656   0.981  14.684
84091SOL     OW54169   1.100  14.025   1.103
84091SOL    HW154170   1.014  14.028   1.146
84091SOL    HW254171   1.157  14.074   1.161
84092SOL     OW54172   7.614  12.103   7.331
84092SOL    HW154173   7.598  12.121   7.423
84092SOL    HW254174   7.659  12.181   7.298
84093SOL     OW54175   0.238   9.602  10.202
84093SOL    HW154176   0.157   9.607  10.253
84093SOL    HW254177   0.297   9.665  10.244
84094SOL     OW54178   5.427   0.707   5.800
84094SOL    HW154179   5.417   0.749   5.886
84094SOL    HW254180   5.394   0.773   5.738
84095SOL     OW54181   9.863  14.637   4.529
84095SOL    HW154182   9.957  14.657   4.521
84095SOL    HW254183   9.851  14.559   4.475
84096SOL     OW54184   2.852   8.257   8.306
84096SOL    HW154185   2.824   8.307   8.383
84096SOL    HW254186   2.903   8.320   8.255
84097SOL     OW54187   7.824   6.916   8.899
84097SOL    HW154188   7.762   6.846   8.876
84097SOL    HW254189   7.857   6.947   8.814
84098SOL     OW54190   3.753  13.536  13.562
84098SOL    HW154191   3.788  13.480  13.492
84098SOL    HW254192   3.782  13.624  13.539
84099SOL     OW54193  12.794  11.983  12.192
84099SOL    HW154194  12.792  11.994  12.288
84099SOL    HW254195  12.813  11.890  12.180
84100SOL     OW54196   9.190   8.238  10.736
84100SOL    HW154197   9.120   8.264  10.676
84100SOL    HW254198   9.267   8.226  10.680
84101SOL     OW54199  14.187   9.411   6.059
84101SOL    HW154200  14.219   9.409   5.969
84101SOL    HW254201  14.093   9.429   6.050
84102SOL     OW54202   7.078  13.154  14.793
84102SOL    HW154203   7.133  13.206  14.733
84102SOL    HW254204   7.087  13.198   0.010
84103SOL     OW54205  11.879   2.978   5.879
84103SOL    HW154206  11.811   3.036   5.912
84103SOL    HW254207  11.869   2.981   5.784
84104SOL     OW54208  11.165   3.152   8.634
84104SOL    HW154209  11.155   3.062   8.665
84104SOL    HW254210  11.247   3.182   8.673
84105SOL     OW54211   3.034   6.153  13.154
84105SOL    HW154212   3.020   6.209  13.078
84105SOL    HW254213   3.129   6.141  13.158
84106SOL     OW54214  10.115   9.596   9.680
84106SOL    HW154215  10.187   9.615   9.620
84106SOL    HW254216  10.141   9.514   9.723
84107SOL     OW54217  12.048  12.765   3.216
84107SOL    HW154218  12.065  12.775   3.122
84107SOL    HW254219  11.958  12.731   3.220
84108SOL     OW54220   3.039  11.493  11.829
84108SOL    HW154221   3.125  11.521  11.800
84108SOL    HW254222   2.984  11.571  11.820
84109SOL     OW54223   7.676   5.065  13.823
84109SOL    HW154224   7.623   5.007  13.769
84109SOL    HW254225   7.689   5.143  13.769
84110SOL     OW54226  10.064   7.242   2.040
84110SOL    HW154227  10.039   7.328   2.005
84110SOL    HW254228  10.092   7.192   1.963
84111SOL     OW54229   9.267   6.553   7.563
84111SOL    HW154230   9.213   6.598   7.628
84111SOL    HW254231   9.349   6.602   7.562
84112SOL     OW54232   5.717   8.454   0.554
84112SOL    HW154233   5.665   8.492   0.624
84112SOL    HW254234   5.655   8.437   0.483
84113SOL     OW54235   7.114   9.063   3.581
84113SOL    HW154236   7.205   9.069   3.610
84113SOL    HW254237   7.076   9.148   3.602
84114SOL     OW54238   1.555  12.956   8.581
84114SOL    HW154239   1.530  13.044   8.555
84114SOL    HW254240   1.611  12.925   8.511
84115SOL     OW54241   8.840   0.802  11.701
84115SOL    HW154242   8.794   0.857  11.764
84115SOL    HW254243   8.776   0.787  11.631
84116SOL     OW54244   2.047  10.860  12.542
84116SOL    HW154245   2.069  10.895  12.456
84116SOL    HW254246   2.032  10.938  12.596
84117SOL     OW54247   6.893  10.472  13.366
84117SOL    HW154248   6.799  10.457  13.358
84117SOL    HW254249   6.931  10.384  13.364
84118SOL     OW54250   2.965   4.450  11.428
84118SOL    HW154251   2.999   4.496  11.351
84118SOL    HW254252   3.042   4.414  11.471
84119SOL     OW54253  13.680  11.769   5.087
84119SOL    HW154254  13.656  11.752   4.996
84119SOL    HW254255  13.677  11.684   5.130
84120SOL     OW54256  13.286   9.704   4.575
84120SOL    HW154257  13.216   9.675   4.633
84120SOL    HW254258  13.246   9.708   4.488
84121SOL     OW54259   7.653  10.366   1.853
84121SOL    HW154260   7.747  10.359   1.835
84121SOL    HW254261   7.629  10.280   1.885
84122SOL     OW54262   4.148   4.847  12.597
84122SOL    HW154263   4.128   4.938  12.616
84122SOL    HW254264   4.113   4.798  12.672
84123SOL     OW54265   2.753   7.282   4.475
84123SOL    HW154266   2.827   7.337   4.499
84123SOL    HW254267   2.783   7.234   4.397
84124SOL     OW54268  12.135   1.179  11.556
84124SOL    HW154269  12.196   1.213  11.622
84124SOL    HW254270  12.123   1.088  11.580
84125SOL     OW54271  10.571   0.457   6.227
84125SOL    HW154272  10.637   0.417   6.285
84125SOL    HW254273  10.488   0.444   6.273
84126SOL     OW54274   2.406   0.692   0.811
84126SOL    HW154275   2.403   0.665   0.903
84126SOL    HW254276   2.361   0.622   0.764
84127SOL     OW54277  12.726   6.921  10.958
84127SOL    HW154278  12.660   6.860  10.924
84127SOL    HW254279  12.781   6.941  10.883
84128SOL     OW54280  10.304  13.363   7.616
84128SOL    HW154281  10.357  13.344   7.539
84128SOL    HW254282  10.224  13.312   7.603
84129SOL     OW54283   3.452   4.809   0.643
84129SOL    HW154284   3.395   4.841   0.574
84129SOL    HW254285   3.417   4.847   0.723
84130SOL     OW54286  10.568  12.961   0.124
84130SOL    HW154287  10.496  13.023   0.111
84130SOL    HW254288  10.647  13.011   0.104
84131SOL     OW54289   0.645   9.582   9.034
84131SOL    HW154290   0.668   9.489   9.026
84131SOL    HW254291   0.691   9.611   9.113
84132SOL     OW54292  12.770  11.794  11.146
84132SOL    HW154293  12.860  11.799  11.113
84132SOL    HW254294  12.743  11.885  11.155
84133SOL     OW54295   2.433  13.221   0.148
84133SOL    HW154296   2.519  13.256   0.125
84133SOL    HW254297   2.405  13.174   0.070
84134SOL     OW54298   1.886   1.879  11.441
84134SOL    HW154299   1.963   1.873  11.384
84134SOL    HW254300   1.891   1.801  11.496
84135SOL     OW54301  13.245  10.118   5.297
84135SOL    HW154302  13.274  10.184   5.234
84135SOL    HW254303  13.152  10.106   5.278
84136SOL     OW54304   1.734   7.462  11.045
84136SOL    HW154305   1.822   7.458  11.007
84136SOL    HW254306   1.718   7.555  11.059
84137SOL     OW54307  12.625   0.159   4.889
84137SOL    HW154308  12.591   0.244   4.861
84137SOL    HW254309  12.700   0.180   4.945
84138SOL     OW54310  10.984   4.482   2.296
84138SOL    HW154311  10.897   4.506   2.326
84138SOL    HW254312  11.030   4.451   2.374
84139SOL     OW54313   9.031  14.517   3.412
84139SOL    HW154314   8.983  14.492   3.333
84139SOL    HW254315   9.028  14.613   3.412
84140SOL     OW54316   1.525  12.600   5.425
84140SOL    HW154317   1.433  12.599   5.454
84140SOL    HW254318   1.532  12.524   5.367
84141SOL     OW54319   1.177   6.503   0.484
84141SOL    HW154320   1.141   6.474   0.568
84141SOL    HW254321   1.235   6.576   0.507
84142SOL     OW54322   3.001   3.025  10.932
84142SOL    HW154323   2.915   3.004  10.969
84142SOL    HW254324   3.051   3.060  11.006
84143SOL     OW54325   6.483  14.306  12.243
84143SOL    HW154326   6.564  14.301  12.193
84143SOL    HW254327   6.484  14.228  12.299
84144SOL     OW54328  14.320  12.988   8.545
84144SOL    HW154329  14.382  13.021   8.480
84144SOL    HW254330  14.274  12.917   8.500
84145SOL     OW54331  12.959   1.184  11.717
84145SOL    HW154332  12.963   1.088  11.727
84145SOL    HW254333  13.020   1.203  11.646
84146SOL     OW54334   8.163   4.554   7.688
84146SOL    HW154335   8.070   4.568   7.671
84146SOL    HW254336   8.208   4.620   7.635
84147SOL     OW54337   1.357   5.104  11.419
84147SOL    HW154338   1.385   5.121  11.329
84147SOL    HW254339   1.400   5.172  11.471
84148SOL     OW54340   2.046   3.541   5.217
84148SOL    HW154341   2.073   3.567   5.305
84148SOL    HW254342   1.983   3.607   5.190
84149SOL     OW54343   4.179   3.862   9.997
84149SOL    HW154344   4.257   3.902  10.035
84149SOL    HW254345   4.126   3.935   9.968
84150SOL     OW54346  11.942   9.276   7.165
84150SOL    HW154347  11.900   9.356   7.197
84150SOL    HW254348  11.879   9.240   7.103
84151SOL     OW54349  12.968   9.130  13.449
84151SOL    HW154350  12.988   9.101  13.360
84151SOL    HW254351  13.034   9.088  13.503
84152SOL     OW54352   2.508   8.464   6.250
84152SOL    HW154353   2.465   8.401   6.308
84152SOL    HW254354   2.463   8.455   6.166
84153SOL     OW54355   3.054  12.964   4.208
84153SOL    HW154356   3.081  12.944   4.297
84153SOL    HW254357   3.119  13.027   4.176
84154SOL     OW54358  13.554   5.836  12.182
84154SOL    HW154359  13.521   5.898  12.247
84154SOL    HW254360  13.504   5.756  12.197
84155SOL     OW54361   3.745   4.829   4.537
84155SOL    HW154362   3.789   4.864   4.460
84155SOL    HW254363   3.766   4.891   4.607
84156SOL     OW54364   6.572   4.667   5.728
84156SOL    HW154365   6.498   4.681   5.787
84156SOL    HW254366   6.596   4.754   5.698
84157SOL     OW54367   3.039  13.812  14.779
84157SOL    HW154368   2.965  13.855  14.821
84157SOL    HW254369   2.999  13.756  14.712
84158SOL     OW54370   9.969   4.219  13.804
84158SOL    HW154371   9.947   4.312  13.807
84158SOL    HW254372   9.976   4.193  13.896
84159SOL     OW54373  14.514   9.771   5.504
84159SOL    HW154374  14.452   9.832   5.463
84159SOL    HW254375  14.600   9.805   5.481
84160SOL     OW54376   3.758   1.034  11.809
84160SOL    HW154377   3.670   1.054  11.842
84160SOL    HW254378   3.809   1.013  11.887
84161SOL     OW54379   5.384   3.014  13.690
84161SOL    HW154380   5.348   2.973  13.611
84161SOL    HW254381   5.417   2.941  13.742
84162SOL     OW54382   4.320  10.965   2.957
84162SOL    HW154383   4.318  11.054   2.919
84162SOL    HW254384   4.281  10.910   2.889
84163SOL     OW54385   4.534   0.900   8.707
84163SOL    HW154386   4.451   0.904   8.660
84163SOL    HW254387   4.595   0.862   8.644
84164SOL     OW54388  10.592  14.719  12.266
84164SOL    HW154389  10.596  14.652  12.335
84164SOL    HW254390  10.532  14.682  12.201
84165SOL     OW54391  14.580  11.227   4.402
84165SOL    HW154392  14.607  11.295   4.341
84165SOL    HW254393  14.520  11.270   4.462
84166SOL     OW54394  12.374   6.827   1.369
84166SOL    HW154395  12.449   6.873   1.330
84166SOL    HW254396  12.314   6.897   1.394
84167SOL     OW54397  11.960   2.329   8.809
84167SOL    HW154398  11.979   2.236   8.822
84167SOL    HW254399  12.037   2.374   8.844
84168SOL     OW54400  12.881  12.631   7.093
84168SOL    HW154401  12.797  12.596   7.062
84168SOL    HW254402  12.862  12.722   7.114
84169SOL     OW54403  13.952   1.740  13.209
84169SOL    HW154404  14.039   1.775  13.188
84169SOL    HW254405  13.957   1.648  13.185
84170SOL     OW54406   9.258   5.860   3.688
84170SOL    HW154407   9.258   5.765   3.684
84170SOL    HW254408   9.298   5.888   3.605
84171SOL     OW54409  12.871   8.339   7.880
84171SOL    HW154410  12.810   8.267   7.866
84171SOL    HW254411  12.955   8.297   7.900
84172SOL     OW54412  13.727  10.345   6.494
84172SOL    HW154413  13.759  10.403   6.425
84172SOL    HW254414  13.665  10.397   6.544
84173SOL     OW54415   8.076   2.635   3.123
84173SOL    HW154416   8.035   2.613   3.039
84173SOL    HW254417   8.079   2.553   3.171
84174SOL     OW54418  14.328   1.758   6.825
84174SOL    HW154419  14.314   1.825   6.892
84174SOL    HW254420  14.244   1.752   6.779
84175SOL     OW54421   1.935  12.959  10.351
84175SOL    HW154422   1.910  12.974  10.443
84175SOL    HW254423   1.858  12.917  10.313
84176SOL     OW54424   9.396   0.212   1.835
84176SOL    HW154425   9.301   0.204   1.828
84176SOL    HW254426   9.412   0.306   1.841
84177SOL     OW54427   6.594   4.479   0.490
84177SOL    HW154428   6.621   4.500   0.400
84177SOL    HW254429   6.507   4.439   0.479
84178SOL     OW54430   5.028  12.977   8.773
84178SOL    HW154431   5.111  13.004   8.736
84178SOL    HW254432   5.044  12.888   8.806
84179SOL     OW54433   0.502   2.002  13.651
84179SOL    HW154434   0.496   2.079  13.594
84179SOL    HW254435   0.414   1.994  13.688
84180SOL     OW54436   5.774   6.491   1.741
84180SOL    HW154437   5.696   6.441   1.766
84180SOL    HW254438   5.818   6.511   1.824
84181SOL     OW54439   6.074   7.283   8.358
84181SOL    HW154440   6.060   7.370   8.393
84181SOL    HW254441   6.160   7.257   8.391
84182SOL     OW54442   6.413   0.224   0.321
84182SOL    HW154443   6.386   0.286   0.388
84182SOL    HW254444   6.365   0.143   0.341
84183SOL     OW54445   1.158   0.832   6.644
84183SOL    HW154446   1.072   0.865   6.620
84183SOL    HW254447   1.184   0.885   6.720
84184SOL     OW54448   8.787   7.057   7.955
84184SOL    HW154449   8.752   7.097   7.876
84184SOL    HW254450   8.744   7.103   8.027
84185SOL     OW54451  12.442   5.301  12.202
84185SOL    HW154452  12.400   5.215  12.206
84185SOL    HW254453  12.530   5.287  12.237
84186SOL     OW54454   4.353   0.893   8.508
84186SOL    HW154455   4.268   0.893   8.551
84186SOL    HW254456   4.350   0.819   8.447
84187SOL     OW54457   1.525   2.787   8.031
84187SOL    HW154458   1.599   2.846   8.039
84187SOL    HW254459   1.512   2.778   7.936
84188SOL     OW54460   2.161   6.865  13.476
84188SOL    HW154461   2.220   6.798  13.441
84188SOL    HW254462   2.187   6.874  13.567
84189SOL     OW54463  11.821  13.854  13.046
84189SOL    HW154464  11.732  13.860  13.083
84189SOL    HW254465  11.824  13.924  12.981
84190SOL     OW54466  10.255  12.652  13.713
84190SOL    HW154467  10.172  12.624  13.751
84190SOL    HW254468  10.282  12.727  13.766
84191SOL     OW54469   8.768   7.383  11.336
84191SOL    HW154470   8.774   7.339  11.251
84191SOL    HW254471   8.766   7.312  11.400
84192SOL     OW54472   8.799   1.002  11.196
84192SOL    HW154473   8.750   0.988  11.115
84192SOL    HW254474   8.732   1.005  11.264
84193SOL     OW54475  14.432   1.170  14.758
84193SOL    HW154476  14.358   1.109  14.753
84193SOL    HW254477  14.509   1.116  14.741
84194SOL     OW54478   4.378  13.695   6.820
84194SOL    HW154479   4.412  13.636   6.887
84194SOL    HW254480   4.407  13.782   6.848
84195SOL     OW54481  10.665   7.669   5.843
84195SOL    HW154482  10.757   7.646   5.854
84195SOL    HW254483  10.641   7.712   5.924
84196SOL     OW54484   4.267   7.714   4.902
84196SOL    HW154485   4.323   7.792   4.899
84196SOL    HW254486   4.296   7.667   4.979
84197SOL     OW54487   0.566  11.804   7.308
84197SOL    HW154488   0.622  11.773   7.379
84197SOL    HW254489   0.565  11.731   7.246
84198SOL     OW54490   9.874   8.359   3.207
84198SOL    HW154491   9.897   8.388   3.295
84198SOL    HW254492   9.781   8.382   3.198
84199SOL     OW54493   5.257  12.810   1.638
84199SOL    HW154494   5.253  12.796   1.733
84199SOL    HW254495   5.241  12.904   1.627
84200SOL     OW54496   1.306   8.632   1.181
84200SOL    HW154497   1.342   8.664   1.099
84200SOL    HW254498   1.289   8.711   1.232
84201SOL     OW54499   2.836   9.051   3.654
84201SOL    HW154500   2.919   9.005   3.667
84201SOL    HW254501   2.770   8.981   3.650
84202SOL     OW54502   4.687   6.646   1.020
84202SOL    HW154503   4.626   6.579   0.989
84202SOL    HW254504   4.635   6.727   1.022
84203SOL     OW54505   0.162  14.195   4.637
84203SOL    HW154506   0.067  14.189   4.643
84203SOL    HW254507   0.188  14.124   4.579
84204SOL     OW54508   6.608   0.489   6.283
84204SOL    HW154509   6.584   0.453   6.368
84204SOL    HW254510   6.630   0.580   6.301
84205SOL     OW54511   4.860  10.493   1.917
84205SOL    HW154512   4.815  10.554   1.976
84205SOL    HW254513   4.931  10.456   1.970
84206SOL     OW54514  11.045   7.890  13.763
84206SOL    HW154515  10.976   7.840  13.719
84206SOL    HW254516  11.125   7.841  13.748
84207SOL     OW54517   6.190   3.427  10.398
84207SOL    HW154518   6.167   3.381  10.317
84207SOL    HW254519   6.275   3.391  10.423
84208SOL     OW54520   1.616   2.629  13.339
84208SOL    HW154521   1.667   2.559  13.300
84208SOL    HW254522   1.646   2.708  13.294
84209SOL     OW54523  10.260   6.533   2.216
84209SOL    HW154524  10.192   6.601   2.221
84209SOL    HW254525  10.219   6.462   2.167
84210SOL     OW54526  11.011   4.787   2.410
84210SOL    HW154527  11.058   4.833   2.480
84210SOL    HW254528  11.025   4.694   2.430
84211SOL     OW54529   9.572   6.328  10.901
84211SOL    HW154530   9.494   6.376  10.930
84211SOL    HW254531   9.582   6.353  10.809
84212SOL     OW54532  14.064   7.842   0.256
84212SOL    HW154533  13.974   7.873   0.245
84212SOL    HW254534  14.060   7.782   0.330
84213SOL     OW54535  12.581   2.952   5.277
84213SOL    HW154536  12.529   2.909   5.345
84213SOL    HW254537  12.523   3.020   5.243
84214SOL     OW54538   7.744   3.978  13.245
84214SOL    HW154539   7.662   3.952  13.203
84214SOL    HW254540   7.727   4.066  13.278
84215SOL     OW54541   8.299   9.556   0.291
84215SOL    HW154542   8.327   9.596   0.209
84215SOL    HW254543   8.380   9.534   0.337
84216SOL     OW54544   5.387   8.364  12.027
84216SOL    HW154545   5.352   8.350  12.115
84216SOL    HW254546   5.423   8.453  12.029
84217SOL     OW54547  13.614  11.947   9.130
84217SOL    HW154548  13.629  11.916   9.219
84217SOL    HW254549  13.560  11.879   9.090
84218SOL     OW54550  10.229   6.864   9.611
84218SOL    HW154551  10.282   6.927   9.660
84218SOL    HW254552  10.263   6.779   9.637
84219SOL     OW54553   3.295   8.431   5.624
84219SOL    HW154554   3.324   8.491   5.555
84219SOL    HW254555   3.315   8.344   5.591
84220SOL     OW54556   6.230  11.155   5.558
84220SOL    HW154557   6.305  11.143   5.616
84220SOL    HW254558   6.264  11.206   5.485
84221SOL     OW54559   2.981   2.927   8.017
84221SOL    HW154560   2.966   2.836   7.989
84221SOL    HW254561   3.064   2.925   8.064
84222SOL     OW54562   9.475   0.255   2.223
84222SOL    HW154563   9.528   0.208   2.287
84222SOL    HW254564   9.495   0.347   2.237
84223SOL     OW54565   1.219   0.281  10.932
84223SOL    HW154566   1.263   0.240  11.007
84223SOL    HW254567   1.152   0.218  10.907
84224SOL     OW54568   5.361  10.871  14.610
84224SOL    HW154569   5.385  10.782  14.637
84224SOL    HW254570   5.265  10.868  14.601
84225SOL     OW54571   8.058   8.759   1.423
84225SOL    HW154572   8.012   8.828   1.375
84225SOL    HW254573   8.142   8.750   1.378
84226SOL     OW54574   9.529   9.296   8.357
84226SOL    HW154575   9.502   9.309   8.267
84226SOL    HW254576   9.625   9.296   8.354
84227SOL     OW54577   8.992   5.233   2.488
84227SOL    HW154578   9.019   5.264   2.574
84227SOL    HW254579   9.071   5.239   2.434
84228SOL     OW54580  10.473  14.311   5.382
84228SOL    HW154581  10.387  14.309   5.424
84228SOL    HW254582  10.517  14.387   5.422
84229SOL     OW54583   1.409   3.500   3.581
84229SOL    HW154584   1.505   3.500   3.580
84229SOL    HW254585   1.384   3.550   3.503
84230SOL     OW54586  13.715   7.774  12.763
84230SOL    HW154587  13.675   7.746  12.680
84230SOL    HW254588  13.670   7.722  12.830
84231SOL     OW54589  12.778   0.143   8.711
84231SOL    HW154590  12.786   0.085   8.787
84231SOL    HW254591  12.835   0.217   8.731
84232SOL     OW54592   5.205  14.692   0.348
84232SOL    HW154593   5.194  14.775   0.303
84232SOL    HW254594   5.300  14.680   0.356
84233SOL     OW54595   5.129  13.846   6.435
84233SOL    HW154596   5.071  13.916   6.405
84233SOL    HW254597   5.180  13.823   6.357
84234SOL     OW54598   7.504   2.047   5.040
84234SOL    HW154599   7.583   2.018   5.086
84234SOL    HW254600   7.483   1.974   4.981
84235SOL     OW54601   2.844   8.125   5.058
84235SOL    HW154602   2.915   8.070   5.025
84235SOL    HW254603   2.836   8.196   4.995
84236SOL     OW54604   8.813  14.363   1.974
84236SOL    HW154605   8.905  14.386   1.992
84236SOL    HW254606   8.786  14.314   2.052
84237SOL     OW54607   8.261  11.527   3.121
84237SOL    HW154608   8.298  11.606   3.081
84237SOL    HW254609   8.189  11.558   3.176
84238SOL     OW54610  11.753   1.257   9.138
84238SOL    HW154611  11.673   1.294   9.101
84238SOL    HW254612  11.734   1.164   9.147
84239SOL     OW54613  12.288   0.780   3.280
84239SOL    HW154614  12.305   0.831   3.360
84239SOL    HW254615  12.373   0.773   3.238
84240SOL     OW54616   2.542   5.841  11.931
84240SOL    HW154617   2.613   5.787  11.896
84240SOL    HW254618   2.583   5.892  12.001
84241SOL     OW54619   4.465   4.637  12.053
84241SOL    HW154620   4.423   4.695  11.989
84241SOL    HW254621   4.552   4.619  12.015
84242SOL     OW54622   2.313   1.969   3.248
84242SOL    HW154623   2.373   1.946   3.177
84242SOL    HW254624   2.226   1.948   3.214
84243SOL     OW54625   0.216   8.442  12.661
84243SOL    HW154626   0.285   8.460  12.598
84243SOL    HW254627   0.137   8.477  12.620
84244SOL     OW54628  14.025  10.368   8.590
84244SOL    HW154629  14.017  10.414   8.506
84244SOL    HW254630  14.105  10.405   8.629
84245SOL     OW54631  11.604  10.384   7.962
84245SOL    HW154632  11.518  10.393   8.004
84245SOL    HW254633  11.661  10.348   8.030
84246SOL     OW54634   7.817   0.592   8.630
84246SOL    HW154635   7.788   0.660   8.568
84246SOL    HW254636   7.751   0.524   8.624
84247SOL     OW54637  11.483   4.761  10.053
84247SOL    HW154638  11.441   4.833  10.101
84247SOL    HW254639  11.498   4.694  10.120
84248SOL     OW54640  10.525   2.927   9.060
84248SOL    HW154641  10.520   3.008   9.009
84248SOL    HW254642  10.619   2.912   9.070
84249SOL     OW54643   2.895   0.574  13.665
84249SOL    HW154644   2.840   0.516  13.717
84249SOL    HW254645   2.985   0.552  13.691
84250SOL     OW54646   3.283   1.625   2.303
84250SOL    HW154647   3.253   1.705   2.260
84250SOL    HW254648   3.364   1.650   2.348
84251SOL     OW54649   6.501  12.616   4.085
84251SOL    HW154650   6.436  12.669   4.039
84251SOL    HW254651   6.456  12.586   4.165
84252SOL     OW54652  13.553   0.060   0.689
84252SOL    HW154653  13.527  14.837   0.702
84252SOL    HW254654  13.631   0.055   0.633
84253SOL     OW54655   7.984  14.361   0.134
84253SOL    HW154656   7.945  14.441   0.099
84253SOL    HW254657   7.982  14.373   0.229
84254SOL     OW54658   1.771   8.085   8.870
84254SOL    HW154659   1.820   8.144   8.812
84254SOL    HW254660   1.826   8.078   8.948
84255SOL     OW54661  13.278   9.331  12.556
84255SOL    HW154662  13.282   9.236  12.568
84255SOL    HW254663  13.296   9.344  12.463
84256SOL     OW54664  13.469  12.512  13.430
84256SOL    HW154665  13.553  12.469  13.410
84256SOL    HW254666  13.472  12.594  13.380
84257SOL     OW54667  13.561   3.950  14.292
84257SOL    HW154668  13.523   3.956  14.380
84257SOL    HW254669  13.655   3.950  14.308
84258SOL     OW54670   7.403  10.051   6.759
84258SOL    HW154671   7.322  10.013   6.793
84258SOL    HW254672   7.468   9.982   6.771
84259SOL     OW54673   5.191   9.868   8.921
84259SOL    HW154674   5.259   9.824   8.871
84259SOL    HW254675   5.237   9.938   8.968
84260SOL     OW54676   8.192  10.980   7.439
84260SOL    HW154677   8.105  11.000   7.403
84260SOL    HW254678   8.248  11.049   7.402
84261SOL     OW54679   3.688   7.010   8.206
84261SOL    HW154680   3.598   6.977   8.215
84261SOL    HW254681   3.739   6.955   8.265
84262SOL     OW54682  14.772   9.460   4.473
84262SOL    HW154683  14.863   9.450   4.446
84262SOL    HW254684  14.727   9.491   4.395
84263SOL     OW54685   4.292   0.799  14.822
84263SOL    HW154686   4.386   0.816  14.825
84263SOL    HW254687   4.280   0.743  14.745
84264SOL     OW54688  12.679   7.799  10.489
84264SOL    HW154689  12.695   7.894  10.490
84264SOL    HW254690  12.634   7.782  10.572
84265SOL     OW54691  13.105   1.209   9.073
84265SOL    HW154692  13.121   1.136   9.132
84265SOL    HW254693  13.025   1.187   9.026
84266SOL     OW54694   8.249  13.702   9.399
84266SOL    HW154695   8.316  13.669   9.459
84266SOL    HW254696   8.298  13.754   9.335
84267SOL     OW54697  14.052   7.759   3.319
84267SOL    HW154698  14.086   7.776   3.407
84267SOL    HW254699  13.992   7.832   3.302
84268SOL     OW54700   3.411   1.765   1.793
84268SOL    HW154701   3.360   1.846   1.791
84268SOL    HW254702   3.348   1.696   1.774
84269SOL     OW54703  12.290  12.437   7.137
84269SOL    HW154704  12.335  12.515   7.169
84269SOL    HW254705  12.354  12.367   7.145
84270SOL     OW54706   9.304   9.651  14.541
84270SOL    HW154707   9.360   9.727  14.524
84270SOL    HW254708   9.313   9.597  14.463
84271SOL     OW54709   2.022   1.602  10.214
84271SOL    HW154710   2.032   1.534  10.148
84271SOL    HW254711   2.014   1.684  10.164
84272SOL     OW54712  13.210   1.147   2.963
84272SOL    HW154713  13.227   1.241   2.975
84272SOL    HW254714  13.115   1.141   2.958
84273SOL     OW54715  12.347   7.007   6.663
84273SOL    HW154716  12.322   7.035   6.575
84273SOL    HW254717  12.276   6.948   6.690
84274SOL     OW54718  14.703  14.778   4.918
84274SOL    HW154719  14.778  14.727   4.948
84274SOL    HW254720  14.740  14.862   4.892
84275SOL     OW54721   6.291   9.605   5.683
84275SOL    HW154722   6.370   9.655   5.661
84275SOL    HW254723   6.258   9.576   5.598
84276SOL     OW54724   1.069  13.957   4.009
84276SOL    HW154725   1.074  13.938   4.102
84276SOL    HW254726   1.036  14.047   4.004
84277SOL     OW54727   4.949   1.921   8.814
84277SOL    HW154728   4.855   1.937   8.810
84277SOL    HW254729   4.958   1.826   8.800
84278SOL     OW54730  11.646   3.450   0.364
84278SOL    HW154731  11.565   3.410   0.396
84278SOL    HW254732  11.627   3.471   0.272
84279SOL     OW54733   7.869   4.001   4.959
84279SOL    HW154734   7.810   4.018   4.886
84279SOL    HW254735   7.817   4.020   5.037
84280SOL     OW54736   1.771   5.956  14.499
84280SOL    HW154737   1.763   6.020  14.429
84280SOL    HW254738   1.771   5.871  14.455
84281SOL     OW54739   7.767   6.488   2.610
84281SOL    HW154740   7.832   6.517   2.546
84281SOL    HW254741   7.815   6.483   2.692
84282SOL     OW54742  14.254   3.123   0.343
84282SOL    HW154743  14.170   3.126   0.298
84282SOL    HW254744  14.311   3.179   0.290
84283SOL     OW54745   8.565   0.568  12.682
84283SOL    HW154746   8.603   0.569  12.594
84283SOL    HW254747   8.566   0.659  12.710
84284SOL     OW54748   7.059   7.802  11.605
84284SOL    HW154749   6.989   7.807  11.541
84284SOL    HW254750   7.016   7.776  11.686
84285SOL     OW54751   7.516   5.905  10.459
84285SOL    HW154752   7.549   5.816  10.445
84285SOL    HW254753   7.482   5.903  10.549
84286SOL     OW54754   8.375  10.809   3.135
84286SOL    HW154755   8.385  10.723   3.175
84286SOL    HW254756   8.463  10.846   3.135
84287SOL     OW54757  10.804   0.012   1.332
84287SOL    HW154758  10.885  14.831   1.314
84287SOL    HW254759  10.735  14.824   1.297
84288SOL     OW54760   6.107  14.713  13.010
84288SOL    HW154761   6.032  14.692  12.954
84288SOL    HW254762   6.160  14.634  13.009
84289SOL     OW54763   9.515   4.267   0.535
84289SOL    HW154764   9.611   4.266   0.528
84289SOL    HW254765   9.495   4.349   0.579
84290SOL     OW54766   0.914   9.205   5.579
84290SOL    HW154767   0.943   9.297   5.579
84290SOL    HW254768   0.946   9.170   5.662
84291SOL     OW54769   8.313  10.152   7.834
84291SOL    HW154770   8.294  10.103   7.754
84291SOL    HW254771   8.379  10.099   7.879
84292SOL     OW54772  11.024   4.492   3.900
84292SOL    HW154773  10.932   4.466   3.900
84292SOL    HW254774  11.051   4.486   3.808
84293SOL     OW54775   2.765  11.262  10.017
84293SOL    HW154776   2.707  11.202   9.972
84293SOL    HW254777   2.707  11.310  10.077
84294SOL     OW54778   8.312   7.978  11.853
84294SOL    HW154779   8.401   7.943  11.856
84294SOL    HW254780   8.257   7.905  11.881
84295SOL     OW54781   9.818   4.379  12.950
84295SOL    HW154782   9.842   4.318  13.020
84295SOL    HW254783   9.724   4.394  12.961
84296SOL     OW54784  13.863  14.044   3.915
84296SOL    HW154785  13.942  14.097   3.909
84296SOL    HW254786  13.842  14.044   4.008
84297SOL     OW54787   4.322   7.206   6.688
84297SOL    HW154788   4.392   7.224   6.751
84297SOL    HW254789   4.277   7.129   6.725
84298SOL     OW54790   7.785  12.505   1.859
84298SOL    HW154791   7.826  12.589   1.839
84298SOL    HW254792   7.853  12.440   1.839
84299SOL     OW54793   5.895   0.394   6.592
84299SOL    HW154794   5.907   0.313   6.542
84299SOL    HW254795   5.861   0.366   6.677
84300SOL     OW54796  11.354   2.823   2.601
84300SOL    HW154797  11.426   2.773   2.640
84300SOL    HW254798  11.383   2.842   2.512
84301SOL     OW54799   7.199   2.689   0.259
84301SOL    HW154800   7.187   2.639   0.178
84301SOL    HW254801   7.252   2.633   0.315
84302SOL     OW54802   2.838  13.422  10.680
84302SOL    HW154803   2.783  13.360  10.728
84302SOL    HW254804   2.779  13.494  10.657
84303SOL     OW54805  11.999  11.694   1.152
84303SOL    HW154806  11.922  11.643   1.128
84303SOL    HW254807  11.977  11.784   1.127
84304SOL     OW54808   0.883   2.537   0.613
84304SOL    HW154809   0.808   2.543   0.671
84304SOL    HW254810   0.955   2.579   0.661
84305SOL     OW54811   3.023  10.058   0.475
84305SOL    HW154812   3.014  10.107   0.557
84305SOL    HW254813   3.004  10.123   0.406
84306SOL     OW54814  10.893   6.647  12.053
84306SOL    HW154815  10.851   6.563  12.033
84306SOL    HW254816  10.914   6.642  12.146
84307SOL     OW54817   0.451   7.560   0.668
84307SOL    HW154818   0.460   7.468   0.694
84307SOL    HW254819   0.504   7.608   0.731
84308SOL     OW54820   1.547  11.584   2.675
84308SOL    HW154821   1.463  11.571   2.720
84308SOL    HW254822   1.609  11.531   2.724
84309SOL     OW54823   8.943  12.528   5.935
84309SOL    HW154824   8.964  12.511   5.844
84309SOL    HW254825   9.009  12.479   5.985
84310SOL     OW54826   6.451   1.875   8.870
84310SOL    HW154827   6.370   1.837   8.901
84310SOL    HW254828   6.471   1.945   8.932
84311SOL     OW54829   7.714   9.571   2.191
84311SOL    HW154830   7.637   9.619   2.223
84311SOL    HW254831   7.720   9.495   2.248
84312SOL     OW54832   3.824  12.394   4.485
84312SOL    HW154833   3.749  12.393   4.545
84312SOL    HW254834   3.790  12.434   4.405
84313SOL     OW54835  13.712   0.227   8.854
84313SOL    HW154836  13.621   0.232   8.822
84313SOL    HW254837  13.716   0.144   8.901
84314SOL     OW54838   9.935   8.459   7.014
84314SOL    HW154839   9.970   8.415   7.092
84314SOL    HW254840   9.973   8.547   7.017
84315SOL     OW54841   3.930   1.767   6.494
84315SOL    HW154842   3.957   1.727   6.577
84315SOL    HW254843   3.849   1.814   6.515
84316SOL     OW54844   3.783   9.828   0.138
84316SOL    HW154845   3.819   9.839   0.050
84316SOL    HW254846   3.838   9.884   0.193
84317SOL     OW54847   9.483   2.804  12.433
84317SOL    HW154848   9.480   2.827  12.341
84317SOL    HW254849   9.527   2.878  12.475
84318SOL     OW54850   9.599   0.849   3.294
84318SOL    HW154851   9.515   0.803   3.301
84318SOL    HW254852   9.588   0.907   3.219
84319SOL     OW54853   6.274   9.150   9.260
84319SOL    HW154854   6.234   9.127   9.344
84319SOL    HW254855   6.245   9.239   9.244
84320SOL     OW54856   0.114   6.418   7.171
84320SOL    HW154857   0.205   6.441   7.157
84320SOL    HW254858   0.098   6.343   7.114
84321SOL     OW54859   8.286   0.348  12.021
84321SOL    HW154860   8.329   0.272  11.981
84321SOL    HW254861   8.342   0.369  12.096
84322SOL     OW54862   3.861  10.901   1.567
84322SOL    HW154863   3.911  10.883   1.487
84322SOL    HW254864   3.832  10.992   1.557
84323SOL     OW54865  13.624  12.610   4.583
84323SOL    HW154866  13.682  12.565   4.522
84323SOL    HW254867  13.673  12.616   4.664
84324SOL     OW54868  13.843  14.321  12.423
84324SOL    HW154869  13.831  14.383  12.351
84324SOL    HW254870  13.831  14.373  12.502
84325SOL     OW54871  14.643   5.209   4.511
84325SOL    HW154872  14.614   5.132   4.561
84325SOL    HW254873  14.739   5.200   4.508
84326SOL     OW54874   8.630  14.360   8.998
84326SOL    HW154875   8.564  14.318   8.942
84326SOL    HW254876   8.710  14.311   8.982
84327SOL     OW54877   7.231   4.858  12.274
84327SOL    HW154878   7.248   4.951  12.289
84327SOL    HW254879   7.159   4.857  12.210
84328SOL     OW54880   9.979  10.488  12.839
84328SOL    HW154881   9.954  10.562  12.784
84328SOL    HW254882  10.038  10.525  12.905
84329SOL     OW54883   7.068  11.944   2.946
84329SOL    HW154884   6.977  11.964   2.923
84329SOL    HW254885   7.066  11.929   3.040
84330SOL     OW54886   6.196   0.389   1.781
84330SOL    HW154887   6.261   0.439   1.732
84330SOL    HW254888   6.204   0.422   1.871
84331SOL     OW54889   4.793   7.857  14.060
84331SOL    HW154890   4.760   7.770  14.083
84331SOL    HW254891   4.841   7.844  13.978
84332SOL     OW54892   7.438  14.328   2.899
84332SOL    HW154893   7.459  14.253   2.843
84332SOL    HW254894   7.484  14.310   2.981
84333SOL     OW54895   5.567   8.506   8.584
84333SOL    HW154896   5.522   8.524   8.502
84333SOL    HW254897   5.504   8.457   8.636
84334SOL     OW54898  12.397   8.089   1.153
84334SOL    HW154899  12.490   8.091   1.132
84334SOL    HW254900  12.381   7.998   1.180
84335SOL     OW54901   6.998   4.029   0.158
84335SOL    HW154902   6.998   4.086   0.081
84335SOL    HW254903   7.088   4.032   0.190
84336SOL     OW54904   4.019  12.775  10.662
84336SOL    HW154905   3.925  12.771  10.644
84336SOL    HW254906   4.038  12.869  10.663
84337SOL     OW54907   2.734   6.952   4.282
84337SOL    HW154908   2.643   6.924   4.291
84337SOL    HW254909   2.729   7.035   4.236
84338SOL     OW54910   0.085   8.879   8.260
84338SOL    HW154911   0.115   8.876   8.350
84338SOL    HW254912   0.009   8.821   8.258
84339SOL     OW54913  12.784   8.724  10.634
84339SOL    HW154914  12.783   8.818  10.618
84339SOL    HW254915  12.695   8.695  10.616
84340SOL     OW54916  10.383   7.784   8.659
84340SOL    HW154917  10.369   7.724   8.587
84340SOL    HW254918  10.477   7.779   8.676
84341SOL     OW54919   8.570   8.064   1.440
84341SOL    HW154920   8.491   8.083   1.389
84341SOL    HW254921   8.642   8.083   1.380
84342SOL     OW54922   8.751   0.386  11.705
84342SOL    HW154923   8.836   0.343  11.704
84342SOL    HW254924   8.748   0.435  11.623
84343SOL     OW54925   9.999  11.149   7.462
84343SOL    HW154926   9.976  11.096   7.539
84343SOL    HW254927   9.992  11.088   7.389
84344SOL     OW54928   6.457   8.448   5.216
84344SOL    HW154929   6.373   8.449   5.170
84344SOL    HW254930   6.488   8.358   5.207
84345SOL     OW54931  10.204   3.559  11.261
84345SOL    HW154932  10.234   3.581  11.350
84345SOL    HW254933  10.159   3.475  11.272
84346SOL     OW54934  12.446   0.393  13.797
84346SOL    HW154935  12.476   0.308  13.831
84346SOL    HW254936  12.500   0.457  13.843
84347SOL     OW54937  11.195   5.395  13.334
84347SOL    HW154938  11.183   5.312  13.287
84347SOL    HW254939  11.229   5.369  13.420
84348SOL     OW54940  13.650   5.053   6.992
84348SOL    HW154941  13.703   5.117   7.040
84348SOL    HW254942  13.708   5.023   6.921
84349SOL     OW54943   2.543  13.794   1.393
84349SOL    HW154944   2.537  13.887   1.370
84349SOL    HW254945   2.457  13.774   1.430
84350SOL     OW54946  10.343   3.842   5.564
84350SOL    HW154947  10.363   3.830   5.657
84350SOL    HW254948  10.290   3.765   5.541
84351SOL     OW54949   8.501   2.671   6.259
84351SOL    HW154950   8.429   2.636   6.311
84351SOL    HW254951   8.465   2.751   6.220
84352SOL     OW54952   7.180   7.978   3.685
84352SOL    HW154953   7.096   8.006   3.720
84352SOL    HW254954   7.175   7.882   3.684
84353SOL     OW54955   8.991   6.196   6.543
84353SOL    HW154956   8.949   6.281   6.547
84353SOL    HW254957   9.084   6.214   6.560
84354SOL     OW54958  10.217  14.846   7.503
84354SOL    HW154959  10.230   0.073   7.502
84354SOL    HW254960  10.135  14.833   7.455
84355SOL     OW54961   3.924   8.938   3.712
84355SOL    HW154962   3.926   8.924   3.617
84355SOL    HW254963   3.940   8.852   3.749
84356SOL     OW54964  13.657  11.336   1.291
84356SOL    HW154965  13.642  11.242   1.291
84356SOL    HW254966  13.735  11.348   1.345
84357SOL     OW54967  12.997   5.672  13.225
84357SOL    HW154968  12.969   5.689  13.135
84357SOL    HW254969  13.089   5.649  13.218
84358SOL     OW54970   1.543   5.469   1.816
84358SOL    HW154971   1.520   5.379   1.837
84358SOL    HW254972   1.565   5.467   1.723
84359SOL     OW54973  11.133   6.774  12.851
84359SOL    HW154974  11.183   6.709  12.804
84359SOL    HW254975  11.194   6.810  12.916
84360SOL     OW54976   4.225  13.406   3.270
84360SOL    HW154977   4.229  13.391   3.364
84360SOL    HW254978   4.252  13.323   3.230
84361SOL     OW54979   6.391  11.919   6.613
84361SOL    HW154980   6.392  12.014   6.622
84361SOL    HW254981   6.374  11.887   6.701
84362SOL     OW54982   7.451   6.722  13.279
84362SOL    HW154983   7.514   6.682  13.218
84362SOL    HW254984   7.505   6.776  13.337
84363SOL     OW54985   8.294  11.703   5.616
84363SOL    HW154986   8.307  11.774   5.679
84363SOL    HW254987   8.383  11.679   5.590
84364SOL     OW54988  12.854   4.876   8.828
84364SOL    HW154989  12.791   4.909   8.764
84364SOL    HW254990  12.808   4.807   8.874
84365SOL     OW54991  10.278   9.330   0.870
84365SOL    HW154992  10.219   9.388   0.917
84365SOL    HW254993  10.360   9.379   0.864
84366SOL     OW54994   4.033   1.902   9.527
84366SOL    HW154995   3.967   1.970   9.539
84366SOL    HW254996   4.053   1.872   9.616
84367SOL     OW54997   3.611   2.919   0.905
84367SOL    HW154998   3.522   2.914   0.869
84367SOL    HW254999   3.641   2.828   0.909
84368SOL     OW55000   6.774  13.884   1.973
84368SOL    HW155001   6.764  13.942   2.049
84368SOL    HW255002   6.868  13.866   1.970
84369SOL     OW55003   2.286   9.075   2.462
84369SOL    HW155004   2.252   9.066   2.373
84369SOL    HW255005   2.277   9.168   2.482
84370SOL     OW55006   0.128   2.521   3.391
84370SOL    HW155007   0.201   2.485   3.341
84370SOL    HW255008   0.052   2.510   3.335
84371SOL     OW55009   4.118   4.416   5.612
84371SOL    HW155010   4.065   4.361   5.555
84371SOL    HW255011   4.135   4.495   5.560
84372SOL     OW55012   6.178   1.011   7.779
84372SOL    HW155013   6.243   0.941   7.770
84372SOL    HW255014   6.224   1.082   7.823
84373SOL     OW55015   0.579  12.218  12.813
84373SOL    HW155016   0.542  12.153  12.754
84373SOL    HW255017   0.654  12.174  12.853
84374SOL     OW55018   5.908  10.429   5.011
84374SOL    HW155019   5.847  10.356   5.022
84374SOL    HW255020   5.851  10.506   5.006
84375SOL     OW55021  11.796   4.410   3.669
84375SOL    HW155022  11.882   4.449   3.685
84375SOL    HW255023  11.773   4.369   3.752
84376SOL     OW55024   1.835   2.142   3.116
84376SOL    HW155025   1.747   2.113   3.091
84376SOL    HW255026   1.887   2.134   3.036
84377SOL     OW55027   0.956   9.699   6.510
84377SOL    HW155028   0.994   9.626   6.558
84377SOL    HW255029   0.927   9.662   6.427
84378SOL     OW55030   4.631   7.646  11.536
84378SOL    HW155031   4.692   7.687  11.597
84378SOL    HW255032   4.544   7.666  11.573
84379SOL     OW55033   1.361  11.118  14.663
84379SOL    HW155034   1.387  11.181  14.730
84379SOL    HW255035   1.429  11.125  14.596
84380SOL     OW55036  13.670   8.062  10.831
84380SOL    HW155037  13.657   8.156  10.841
84380SOL    HW255038  13.708   8.034  10.914
84381SOL     OW55039   7.076   5.566  10.959
84381SOL    HW155040   7.052   5.492  10.903
84381SOL    HW255041   7.157   5.538  11.002
84382SOL     OW55042   6.602   2.706  14.162
84382SOL    HW155043   6.649   2.687  14.081
84382SOL    HW255044   6.625   2.634  14.221
84383SOL     OW55045   3.634   2.030   4.141
84383SOL    HW155046   3.605   1.992   4.225
84383SOL    HW255047   3.565   2.092   4.119
84384SOL     OW55048   6.647   8.306   1.270
84384SOL    HW155049   6.643   8.313   1.175
84384SOL    HW255050   6.574   8.360   1.301
84385SOL     OW55051   5.920  12.212   1.327
84385SOL    HW155052   5.907  12.267   1.250
84385SOL    HW255053   5.956  12.271   1.393
84386SOL     OW55054  14.754   5.345   1.761
84386SOL    HW155055  14.736   5.306   1.847
84386SOL    HW255056  14.677   5.324   1.708
84387SOL     OW55057   6.880   0.665  14.387
84387SOL    HW155058   6.801   0.669  14.441
84387SOL    HW255059   6.942   0.614  14.439
84388SOL     OW55060   2.891   5.885   5.057
84388SOL    HW155061   2.899   5.819   4.987
84388SOL    HW255062   2.977   5.884   5.099
84389SOL     OW55063   1.343   5.440   4.921
84389SOL    HW155064   1.310   5.468   5.006
84389SOL    HW255065   1.287   5.484   4.858
84390SOL     OW55066   8.904  13.659   2.462
84390SOL    HW155067   8.857  13.612   2.531
84390SOL    HW255068   8.996  13.654   2.488
84391SOL     OW55069   7.729  14.393   7.786
84391SOL    HW155070   7.761  14.382   7.875
84391SOL    HW255071   7.764  14.478   7.758
84392SOL     OW55072   3.881  12.519   4.999
84392SOL    HW155073   3.799  12.481   4.969
84392SOL    HW255074   3.881  12.504   5.093
84393SOL     OW55075  10.182   4.354   5.437
84393SOL    HW155076  10.209   4.266   5.464
84393SOL    HW255077  10.086   4.353   5.445
84394SOL     OW55078  11.524   6.835   1.941
84394SOL    HW155079  11.589   6.835   2.012
84394SOL    HW255080  11.440   6.823   1.985
84395SOL     OW55081   0.693   5.576   9.934
84395SOL    HW155082   0.627   5.645   9.942
84395SOL    HW255083   0.774   5.624   9.915
84396SOL     OW55084   0.722  10.082   2.100
84396SOL    HW155085   0.709  10.014   2.167
84396SOL    HW255086   0.727  10.164   2.149
84397SOL     OW55087   6.821   5.303   6.240
84397SOL    HW155088   6.881   5.255   6.183
84397SOL    HW255089   6.839   5.395   6.221
84398SOL     OW55090  10.963   0.822  12.017
84398SOL    HW155091  10.920   0.740  12.042
84398SOL    HW255092  10.980   0.813  11.923
84399SOL     OW55093  11.151   7.005   2.639
84399SOL    HW155094  11.099   7.066   2.691
84399SOL    HW255095  11.166   7.050   2.556
84400SOL     OW55096  14.841   9.440  12.008
84400SOL    HW155097   0.035   9.468  11.941
84400SOL    HW255098  14.849   9.506  12.077
84401SOL     OW55099  10.216   1.829   3.598
84401SOL    HW155100  10.182   1.765   3.536
84401SOL    HW255101  10.304   1.798   3.619
84402SOL     OW55102  11.081   5.176   1.001
84402SOL    HW155103  11.027   5.120   1.057
84402SOL    HW255104  11.069   5.264   1.037
84403SOL     OW55105  10.122  13.502   6.445
84403SOL    HW155106  10.127  13.483   6.539
84403SOL    HW255107  10.131  13.416   6.403
84404SOL     OW55108   6.904   3.178   7.160
84404SOL    HW155109   6.978   3.117   7.170
84404SOL    HW255110   6.899   3.194   7.066
84405SOL     OW55111  14.254   4.766   2.155
84405SOL    HW155112  14.167   4.739   2.185
84405SOL    HW255113  14.294   4.685   2.123
84406SOL     OW55114   5.706   6.873   1.126
84406SOL    HW155115   5.653   6.794   1.122
84406SOL    HW255116   5.751   6.877   1.042
84407SOL     OW55117   8.197  12.672   9.882
84407SOL    HW155118   8.290  12.693   9.888
84407SOL    HW255119   8.179  12.670   9.788
84408SOL     OW55120  12.749   8.296   5.943
84408SOL    HW155121  12.815   8.318   5.878
84408SOL    HW255122  12.684   8.246   5.894
84409SOL     OW55123   0.412   9.789  10.252
84409SOL    HW155124   0.388   9.864  10.306
84409SOL    HW255125   0.478   9.823  10.191
84410SOL     OW55126   4.899  12.204   4.161
84410SOL    HW155127   4.964  12.157   4.109
84410SOL    HW255128   4.950  12.265   4.214
84411SOL     OW55129   8.887   9.946   8.850
84411SOL    HW155130   8.815   9.990   8.895
84411SOL    HW255131   8.878   9.854   8.875
84412SOL     OW55132  14.025   7.195  10.850
84412SOL    HW155133  14.111   7.185  10.808
84412SOL    HW255134  14.029   7.280  10.894
84413SOL     OW55135  14.686   4.855  14.274
84413SOL    HW155136  14.779   4.878  14.264
84413SOL    HW255137  14.674   4.779  14.217
84414SOL     OW55138   6.768   7.914   7.745
84414SOL    HW155139   6.681   7.947   7.724
84414SOL    HW255140   6.799   7.971   7.816
84415SOL     OW55141   1.238   3.660   0.735
84415SOL    HW155142   1.309   3.604   0.705
84415SOL    HW255143   1.270   3.749   0.722
84416SOL     OW55144   7.415   6.329   0.291
84416SOL    HW155145   7.346   6.375   0.340
84416SOL    HW255146   7.406   6.362   0.201
84417SOL     OW55147  12.503   2.660  14.341
84417SOL    HW155148  12.461   2.721  14.401
84417SOL    HW255149  12.481   2.573  14.376
84418SOL     OW55150   9.574  11.259   5.749
84418SOL    HW155151   9.632  11.203   5.799
84418SOL    HW255152   9.523  11.199   5.694
84419SOL     OW55153   0.908  10.567   1.798
84419SOL    HW155154   0.839  10.554   1.863
84419SOL    HW255155   0.875  10.637   1.741
84420SOL     OW55156   9.521   0.962   0.475
84420SOL    HW155157   9.546   0.873   0.500
84420SOL    HW255158   9.434   0.974   0.512
84421SOL     OW55159   2.082  11.428  12.313
84421SOL    HW155160   2.126  11.511  12.334
84421SOL    HW255161   2.152  11.363  12.316
84422SOL     OW55162   6.459   2.674  13.508
84422SOL    HW155163   6.449   2.765  13.535
84422SOL    HW255164   6.474   2.678  13.414
84423SOL     OW55165  14.829   4.975   9.770
84423SOL    HW155166  14.759   4.916   9.798
84423SOL    HW255167   0.042   4.931   9.795
84424SOL     OW55168  12.263  14.193   2.136
84424SOL    HW155169  12.227  14.242   2.210
84424SOL    HW255170  12.358  14.194   2.149
84425SOL     OW55171   7.892   5.023   4.875
84425SOL    HW155172   7.942   4.947   4.906
84425SOL    HW255173   7.853   5.061   4.954
84426SOL     OW55174   7.683   6.065   2.005
84426SOL    HW155175   7.631   6.005   2.058
84426SOL    HW255176   7.638   6.068   1.921
84427SOL     OW55177   0.002  11.534   4.101
84427SOL    HW155178   0.073  11.556   4.162
84427SOL    HW255179   0.007  11.438   4.093
84428SOL     OW55180   8.672   9.139  12.764
84428SOL    HW155181   8.640   9.049  12.756
84428SOL    HW255182   8.613   9.180  12.827
84429SOL     OW55183   0.291  12.666   8.339
84429SOL    HW155184   0.219  12.648   8.400
84429SOL    HW255185   0.248  12.692   8.258
84430SOL     OW55186  13.924  10.071  13.049
84430SOL    HW155187  14.019  10.059  13.044
84430SOL    HW255188  13.897  10.088  12.959
84431SOL     OW55189   1.498  14.160   4.035
84431SOL    HW155190   1.548  14.108   3.973
84431SOL    HW255191   1.484  14.243   3.990
84432SOL     OW55192   4.617   3.994   5.303
84432SOL    HW155193   4.564   3.929   5.350
84432SOL    HW255194   4.554   4.039   5.247
84433SOL     OW55195   2.524  14.862   9.609
84433SOL    HW155196   2.570  14.817   9.680
84433SOL    HW255197   2.594   0.028   9.553
84434SOL     OW55198   8.051   0.226   4.238
84434SOL    HW155199   7.968   0.272   4.234
84434SOL    HW255200   8.117   0.295   4.248
84435SOL     OW55201  11.482   9.223  11.787
84435SOL    HW155202  11.427   9.241  11.863
84435SOL    HW255203  11.459   9.133  11.762
84436SOL     OW55204   2.984  10.720   5.845
84436SOL    HW155205   2.983  10.782   5.918
84436SOL    HW255206   3.069  10.677   5.851
84437SOL     OW55207   7.165   3.466   3.655
84437SOL    HW155208   7.119   3.385   3.635
84437SOL    HW255209   7.103   3.535   3.632
84438SOL     OW55210  13.531   7.480  13.399
84438SOL    HW155211  13.578   7.408  13.441
84438SOL    HW255212  13.527   7.548  13.467
84439SOL     OW55213   3.289   1.880   7.958
84439SOL    HW155214   3.279   1.975   7.956
84439SOL    HW255215   3.382   1.865   7.941
84440SOL     OW55216   5.854  12.024  14.834
84440SOL    HW155217   5.869  12.115  14.807
84440SOL    HW255218   5.762  12.008  14.816
84441SOL     OW55219   5.307  13.566   2.204
84441SOL    HW155220   5.256  13.545   2.283
84441SOL    HW255221   5.263  13.517   2.134
84442SOL     OW55222   8.534   2.929   6.732
84442SOL    HW155223   8.548   2.875   6.810
84442SOL    HW255224   8.548   3.019   6.762
84443SOL     OW55225  13.319  14.210  14.489
84443SOL    HW155226  13.334  14.288  14.543
84443SOL    HW255227  13.349  14.234  14.402
84444SOL     OW55228   5.573   6.057   6.238
84444SOL    HW155229   5.615   6.001   6.304
84444SOL    HW255230   5.493   6.011   6.214
84445SOL     OW55231   7.315   8.875   5.817
84445SOL    HW155232   7.232   8.836   5.843
84445SOL    HW255233   7.362   8.889   5.899
84446SOL     OW55234   7.672   8.755   2.932
84446SOL    HW155235   7.625   8.672   2.940
84446SOL    HW255236   7.649   8.803   3.011
84447SOL     OW55237   3.435   9.905   8.948
84447SOL    HW155238   3.447   9.817   8.984
84447SOL    HW255239   3.373   9.947   9.008
84448SOL     OW55240   3.550  12.654   0.741
84448SOL    HW155241   3.499  12.614   0.811
84448SOL    HW255242   3.554  12.587   0.672
84449SOL     OW55243   7.055  11.763   0.244
84449SOL    HW155244   6.991  11.697   0.220
84449SOL    HW255245   7.108  11.722   0.312
84450SOL     OW55246  13.442  13.863  11.195
84450SOL    HW155247  13.369  13.810  11.228
84450SOL    HW255248  13.401  13.934  11.146
84451SOL     OW55249  14.361   9.353  11.496
84451SOL    HW155250  14.344   9.304  11.415
84451SOL    HW255251  14.365   9.444  11.468
84452SOL     OW55252   7.498   6.361   2.872
84452SOL    HW155253   7.454   6.337   2.954
84452SOL    HW255254   7.568   6.420   2.899
84453SOL     OW55255  10.859   6.926  12.080
84453SOL    HW155256  10.847   6.831  12.078
84453SOL    HW255257  10.833   6.956  11.992
84454SOL     OW55258   0.352   8.812   1.460
84454SOL    HW155259   0.433   8.769   1.432
84454SOL    HW255260   0.362   8.825   1.554
84455SOL     OW55261   1.284   4.743   9.793
84455SOL    HW155262   1.362   4.692   9.811
84455SOL    HW255263   1.314   4.816   9.738
84456SOL     OW55264   6.099  11.222   0.709
84456SOL    HW155265   6.031  11.172   0.754
84456SOL    HW255266   6.059  11.308   0.693
84457SOL     OW55267   9.359  13.497  13.602
84457SOL    HW155268   9.409  13.525  13.679
84457SOL    HW255269   9.426  13.480  13.535
84458SOL     OW55270   2.028  12.713  10.449
84458SOL    HW155271   1.982  12.775  10.391
84458SOL    HW255272   2.044  12.637  10.393
84459SOL     OW55273   7.419   4.166   5.146
84459SOL    HW155274   7.375   4.115   5.213
84459SOL    HW255275   7.358   4.169   5.073
84460SOL     OW55276  12.602   4.741  13.184
84460SOL    HW155277  12.686   4.715  13.148
84460SOL    HW255278  12.601   4.703  13.272
84461SOL     OW55279   7.133   7.130  12.691
84461SOL    HW155280   7.220   7.091  12.682
84461SOL    HW255281   7.141   7.190  12.765
84462SOL     OW55282  13.065  11.486   6.514
84462SOL    HW155283  12.990  11.453   6.563
84462SOL    HW255284  13.126  11.413   6.511
84463SOL     OW55285  13.405   5.043   1.398
84463SOL    HW155286  13.500   5.047   1.383
84463SOL    HW255287  13.367   5.051   1.310
84464SOL     OW55288   7.840   6.256   4.143
84464SOL    HW155289   7.893   6.313   4.198
84464SOL    HW255290   7.903   6.218   4.081
84465SOL     OW55291   0.843  12.122  13.223
84465SOL    HW155292   0.903  12.050  13.246
84465SOL    HW255293   0.896  12.201  13.232
84466SOL     OW55294   4.674   9.103   9.476
84466SOL    HW155295   4.633   9.182   9.511
84466SOL    HW255296   4.621   9.031   9.508
84467SOL     OW55297   9.181   3.587   3.439
84467SOL    HW155298   9.143   3.563   3.524
84467SOL    HW255299   9.111   3.573   3.376
84468SOL     OW55300   7.160  12.736   5.434
84468SOL    HW155301   7.249  12.703   5.417
84468SOL    HW255302   7.126  12.679   5.502
84469SOL     OW55303  11.059   0.087  11.321
84469SOL    HW155304  11.035   0.180  11.323
84469SOL    HW255305  11.139   0.082  11.372
84470SOL     OW55306  14.455   0.489   6.211
84470SOL    HW155307  14.503   0.528   6.284
84470SOL    HW255308  14.389   0.554   6.188
84471SOL     OW55309   1.398   8.178   7.242
84471SOL    HW155310   1.488   8.210   7.250
84471SOL    HW255311   1.407   8.084   7.226
84472SOL     OW55312   8.388   7.383   9.419
84472SOL    HW155313   8.438   7.455   9.380
84472SOL    HW255314   8.344   7.342   9.345
84473SOL     OW55315   9.664  14.261  11.605
84473SOL    HW155316   9.588  14.314  11.581
84473SOL    HW255317   9.674  14.199  11.533
84474SOL     OW55318   5.405  10.780  11.837
84474SOL    HW155319   5.323  10.738  11.864
84474SOL    HW255320   5.469  10.752  11.902
84475SOL     OW55321  12.212  11.610   3.215
84475SOL    HW155322  12.305  11.589   3.208
84475SOL    HW255323  12.168  11.537   3.172
84476SOL     OW55324   0.532   6.110   4.760
84476SOL    HW155325   0.446   6.072   4.742
84476SOL    HW255326   0.519   6.161   4.840
84477SOL     OW55327  11.319   3.242   3.942
84477SOL    HW155328  11.365   3.177   3.889
84477SOL    HW255329  11.326   3.323   3.891
84478SOL     OW55330  13.598   4.642   6.003
84478SOL    HW155331  13.666   4.589   5.961
84478SOL    HW255332  13.522   4.634   5.945
84479SOL     OW55333   9.489   3.007  11.689
84479SOL    HW155334   9.419   3.068  11.665
84479SOL    HW255335   9.525   3.042  11.771
84480SOL     OW55336  11.123   7.593   8.318
84480SOL    HW155337  11.036   7.602   8.357
84480SOL    HW255338  11.107   7.556   8.232
84481SOL     OW55339   6.948   0.276   4.543
84481SOL    HW155340   6.958   0.350   4.603
84481SOL    HW255341   7.018   0.288   4.479
84482SOL     OW55342  11.135   0.071  11.045
84482SOL    HW155343  11.093   0.077  11.130
84482SOL    HW255344  11.122  14.848  11.017
84483SOL     OW55345   5.711  10.241  11.441
84483SOL    HW155346   5.719  10.164  11.497
84483SOL    HW255347   5.732  10.315  11.499
84484SOL     OW55348  12.532   5.234  13.184
84484SOL    HW155349  12.549   5.156  13.131
84484SOL    HW255350  12.610   5.287  13.174
84485SOL     OW55351   6.853  11.294   9.623
84485SOL    HW155352   6.791  11.316   9.553
84485SOL    HW255353   6.850  11.199   9.629
84486SOL     OW55354  14.317   8.688  11.828
84486SOL    HW155355  14.231   8.720  11.802
84486SOL    HW255356  14.378   8.759  11.808
84487SOL     OW55357   2.377   8.951  14.779
84487SOL    HW155358   2.444   8.883  14.770
84487SOL    HW255359   2.320   8.937  14.703
84488SOL     OW55360   6.955  14.857  13.787
84488SOL    HW155361   6.943   0.080  13.814
84488SOL    HW255362   7.032  14.858  13.731
84489SOL     OW55363   1.805  11.367  11.083
84489SOL    HW155364   1.737  11.366  11.151
84489SOL    HW255365   1.877  11.416  11.122
84490SOL     OW55366   8.053   5.630   3.802
84490SOL    HW155367   8.104   5.706   3.773
84490SOL    HW255368   8.068   5.625   3.896
84491SOL     OW55369   2.781   0.002   0.747
84491SOL    HW155370   2.836  14.794   0.726
84491SOL    HW255371   2.825   0.076   0.705
84492SOL     OW55372   6.435   5.705   4.314
84492SOL    HW155373   6.468   5.656   4.238
84492SOL    HW255374   6.512   5.752   4.346
84493SOL     OW55375   4.264   5.215   1.452
84493SOL    HW155376   4.242   5.300   1.489
84493SOL    HW255377   4.180   5.172   1.438
84494SOL     OW55378   8.455   8.754  14.713
84494SOL    HW155379   8.497   8.693  14.774
84494SOL    HW255380   8.456   8.838  14.759
84495SOL     OW55381   1.899   6.503   4.800
84495SOL    HW155382   1.868   6.587   4.764
84495SOL    HW255383   1.943   6.461   4.726
84496SOL     OW55384  13.365   2.506   9.645
84496SOL    HW155385  13.378   2.499   9.739
84496SOL    HW255386  13.298   2.441   9.625
84497SOL     OW55387   4.222   2.941  13.041
84497SOL    HW155388   4.153   2.942  13.106
84497SOL    HW255389   4.177   2.938  12.957
84498SOL     OW55390  14.266   8.270   8.174
84498SOL    HW155391  14.206   8.328   8.129
84498SOL    HW255392  14.230   8.182   8.161
84499SOL     OW55393   8.301  10.254   3.050
84499SOL    HW155394   8.351  10.293   2.979
84499SOL    HW255395   8.358  10.185   3.084
84500SOL     OW55396   0.151   1.819   6.547
84500SOL    HW155397   0.065   1.861   6.550
84500SOL    HW255398   0.173   1.801   6.639
84501SOL     OW55399  13.552   4.269   9.095
84501SOL    HW155400  13.472   4.241   9.139
84501SOL    HW255401  13.536   4.360   9.072
84502SOL     OW55402   7.661  11.203  12.712
84502SOL    HW155403   7.736  11.256  12.683
84502SOL    HW255404   7.681  11.182  12.804
84503SOL     OW55405  13.430   3.899   0.680
84503SOL    HW155406  13.446   3.897   0.586
84503SOL    HW255407  13.513   3.928   0.718
84504SOL     OW55408  11.748   8.789   2.756
84504SOL    HW155409  11.792   8.707   2.777
84504SOL    HW255410  11.819   8.845   2.722
84505SOL     OW55411  12.455   6.467   7.818
84505SOL    HW155412  12.383   6.529   7.811
84505SOL    HW255413  12.446   6.429   7.905
84506SOL     OW55414   8.338  10.504  12.523
84506SOL    HW155415   8.280  10.559  12.471
84506SOL    HW255416   8.361  10.432  12.464
84507SOL     OW55417   8.960  12.093   7.835
84507SOL    HW155418   8.897  12.090   7.763
84507SOL    HW255419   9.040  12.129   7.796
84508SOL     OW55420   3.325   9.725   7.399
84508SOL    HW155421   3.400   9.704   7.343
84508SOL    HW255422   3.293   9.809   7.367
84509SOL     OW55423   9.241   9.457   6.334
84509SOL    HW155424   9.190   9.457   6.415
84509SOL    HW255425   9.276   9.369   6.328
84510SOL     OW55426   4.353  10.335  10.595
84510SOL    HW155427   4.410  10.260  10.580
84510SOL    HW255428   4.272  10.297  10.631
84511SOL     OW55429   4.252   4.678   1.322
84511SOL    HW155430   4.321   4.684   1.256
84511SOL    HW255431   4.175   4.716   1.280
84512SOL     OW55432   1.751   3.362   3.343
84512SOL    HW155433   1.725   3.327   3.257
84512SOL    HW255434   1.843   3.385   3.332
84513SOL     OW55435   3.906   5.730  13.262
84513SOL    HW155436   3.913   5.639  13.233
84513SOL    HW255437   3.966   5.736  13.337
84514SOL     OW55438   8.276   4.787   1.967
84514SOL    HW155439   8.207   4.739   1.921
84514SOL    HW255440   8.278   4.747   2.054
84515SOL     OW55441  14.604   4.099   1.025
84515SOL    HW155442  14.560   4.028   1.072
84515SOL    HW255443  14.532   4.158   0.998
84516SOL     OW55444   5.093   1.184   7.566
84516SOL    HW155445   5.013   1.167   7.615
84516SOL    HW255446   5.101   1.109   7.507
84517SOL     OW55447   5.908   1.937   1.493
84517SOL    HW155448   5.966   1.875   1.536
84517SOL    HW255449   5.967   2.002   1.454
84518SOL     OW55450   2.428   0.542   7.228
84518SOL    HW155451   2.383   0.488   7.163
84518SOL    HW255452   2.380   0.528   7.309
84519SOL     OW55453  11.865  10.477  12.183
84519SOL    HW155454  11.854  10.568  12.157
84519SOL    HW255455  11.789  10.432  12.146
84520SOL     OW55456   5.208   9.601   7.101
84520SOL    HW155457   5.137   9.557   7.055
84520SOL    HW255458   5.251   9.531   7.150
84521SOL     OW55459   3.813   5.534   7.610
84521SOL    HW155460   3.733   5.565   7.651
84521SOL    HW255461   3.832   5.450   7.652
84522SOL     OW55462  13.659  13.312   5.470
84522SOL    HW155463  13.611  13.394   5.462
84522SOL    HW255464  13.670  13.301   5.565
84523SOL     OW55465   1.751  13.676  11.656
84523SOL    HW155466   1.783  13.586  11.651
84523SOL    HW255467   1.804  13.717  11.724
84524SOL     OW55468   2.858  12.199   6.855
84524SOL    HW155469   2.806  12.245   6.920
84524SOL    HW255470   2.830  12.108   6.862
84525SOL     OW55471   6.673   6.091   4.197
84525SOL    HW155472   6.694   6.003   4.167
84525SOL    HW255473   6.735   6.148   4.151
84526SOL     OW55474  13.711   7.612   6.712
84526SOL    HW155475  13.726   7.523   6.745
84526SOL    HW255476  13.744   7.668   6.782
84527SOL     OW55477   2.012   1.065   1.936
84527SOL    HW155478   1.973   1.150   1.915
84527SOL    HW255479   2.067   1.045   1.860
84528SOL     OW55480  13.897   7.611   2.973
84528SOL    HW155481  13.874   7.671   2.901
84528SOL    HW255482  13.866   7.657   3.051
84529SOL     OW55483   3.717   6.382   2.863
84529SOL    HW155484   3.705   6.426   2.947
84529SOL    HW255485   3.661   6.430   2.802
84530SOL     OW55486  13.340   6.297  11.971
84530SOL    HW155487  13.307   6.341  12.050
84530SOL    HW255488  13.401   6.232  12.004
84531SOL     OW55489   4.102  14.856   8.668
84531SOL    HW155490   4.147   0.056   8.718
84531SOL    HW255491   4.126  14.775   8.712
84532SOL     OW55492  11.329  14.295   1.641
84532SOL    HW155493  11.318  14.359   1.570
84532SOL    HW255494  11.315  14.345   1.721
84533SOL     OW55495   1.407  13.687   4.724
84533SOL    HW155496   1.387  13.618   4.660
84533SOL    HW255497   1.424  13.639   4.806
84534SOL     OW55498   3.810   4.453  14.430
84534SOL    HW155499   3.763   4.370  14.437
84534SOL    HW255500   3.766   4.511  14.492
84535SOL     OW55501   0.220   3.440   2.792
84535SOL    HW155502   0.177   3.426   2.876
84535SOL    HW255503   0.173   3.513   2.752
84536SOL     OW55504  11.022  13.488   7.193
84536SOL    HW155505  11.059  13.419   7.138
84536SOL    HW255506  11.044  13.462   7.283
84537SOL     OW55507   1.964  13.014   2.176
84537SOL    HW155508   2.059  13.015   2.166
84537SOL    HW255509   1.949  13.051   2.263
84538SOL     OW55510   7.198  11.132  13.976
84538SOL    HW155511   7.283  11.159  13.942
84538SOL    HW255512   7.189  11.181  14.058
84539SOL     OW55513  13.107   1.306  13.797
84539SOL    HW155514  13.025   1.267  13.826
84539SOL    HW255515  13.175   1.249  13.833
84540SOL     OW55516   7.659   4.231   1.609
84540SOL    HW155517   7.718   4.166   1.646
84540SOL    HW255518   7.682   4.233   1.516
84541SOL     OW55519   3.087  12.719  14.065
84541SOL    HW155520   3.112  12.657  14.133
84541SOL    HW255521   3.015  12.677  14.019
84542SOL     OW55522   1.618   9.677  11.589
84542SOL    HW155523   1.672   9.707  11.516
84542SOL    HW255524   1.662   9.598  11.621
84543SOL     OW55525   9.752  14.657  10.042
84543SOL    HW155526   9.730  14.591  10.108
84543SOL    HW255527   9.724  14.740  10.080
84544SOL     OW55528   0.629   8.415   9.948
84544SOL    HW155529   0.628   8.387   9.857
84544SOL    HW255530   0.538   8.407   9.977
84545SOL     OW55531   6.457  13.063  12.400
84545SOL    HW155532   6.433  13.054  12.308
84545SOL    HW255533   6.497  12.979  12.422
84546SOL     OW55534   6.807   1.919  10.072
84546SOL    HW155535   6.792   1.862  10.147
84546SOL    HW255536   6.776   2.005  10.101
84547SOL     OW55537   9.453   4.814   0.744
84547SOL    HW155538   9.467   4.758   0.821
84547SOL    HW255539   9.415   4.894   0.780
84548SOL     OW55540   0.099   5.074   2.245
84548SOL    HW155541   0.155   4.996   2.244
84548SOL    HW255542   0.021   5.047   2.294
84549SOL     OW55543  11.236  10.098  11.461
84549SOL    HW155544  11.224  10.003  11.471
84549SOL    HW255545  11.263  10.128  11.548
84550SOL     OW55546   3.512   6.507   6.830
84550SOL    HW155547   3.566   6.460   6.893
84550SOL    HW255548   3.535   6.468   6.745
84551SOL     OW55549   3.483  13.083  14.069
84551SOL    HW155550   3.416  13.052  14.008
84551SOL    HW255551   3.564  13.041  14.039
84552SOL     OW55552   4.461   2.938   9.622
84552SOL    HW155553   4.514   2.904   9.694
84552SOL    HW255554   4.524   2.956   9.552
84553SOL     OW55555  12.265  10.360  10.634
84553SOL    HW155556  12.213  10.361  10.715
84553SOL    HW255557  12.355  10.369  10.663
84554SOL     OW55558   9.323  13.963   3.100
84554SOL    HW155559   9.281  13.881   3.075
84554SOL    HW255560   9.306  13.971   3.194
84555SOL     OW55561   5.288   6.796   8.252
84555SOL    HW155562   5.321   6.732   8.190
84555SOL    HW255563   5.205   6.759   8.284
84556SOL     OW55564  10.071   1.198   7.516
84556SOL    HW155565  10.057   1.210   7.610
84556SOL    HW255566  10.054   1.106   7.500
84557SOL     OW55567   9.048   6.774   4.536
84557SOL    HW155568   9.130   6.769   4.586
84557SOL    HW255569   8.982   6.798   4.601
84558SOL     OW55570   5.739   6.605   1.373
84558SOL    HW155571   5.766   6.548   1.445
84558SOL    HW255572   5.821   6.643   1.341
84559SOL     OW55573  12.094   4.436   2.547
84559SOL    HW155574  12.044   4.434   2.465
84559SOL    HW255575  12.184   4.419   2.520
84560SOL     OW55576  14.339  13.386  14.263
84560SOL    HW155577  14.403  13.328  14.304
84560SOL    HW255578  14.372  13.400  14.175
84561SOL     OW55579   0.311   6.072   6.317
84561SOL    HW155580   0.225   6.035   6.297
84561SOL    HW255581   0.359   6.001   6.357
84562SOL     OW55582   4.621  14.115  10.909
84562SOL    HW155583   4.710  14.101  10.878
84562SOL    HW255584   4.576  14.032  10.893
84563SOL     OW55585  14.277   5.371   6.796
84563SOL    HW155586  14.265   5.462   6.767
84563SOL    HW255587  14.191   5.331   6.783
84564SOL     OW55588   8.952   6.005   8.676
84564SOL    HW155589   9.020   6.009   8.608
84564SOL    HW255590   8.995   6.041   8.754
84565SOL     OW55591  14.829   1.443  11.746
84565SOL    HW155592  14.754   1.390  11.773
84565SOL    HW255593  14.828   1.438  11.650
84566SOL     OW55594  10.292   6.621  14.479
84566SOL    HW155595  10.294   6.698  14.536
84566SOL    HW255596  10.201   6.615  14.450
84567SOL     OW55597   4.234   6.925   9.140
84567SOL    HW155598   4.179   7.000   9.162
84567SOL    HW255599   4.266   6.943   9.052
84568SOL     OW55600   2.911   3.549   0.509
84568SOL    HW155601   2.820   3.528   0.490
84568SOL    HW255602   2.906   3.628   0.563
84569SOL     OW55603   6.645   4.162   3.467
84569SOL    HW155604   6.582   4.232   3.448
84569SOL    HW255605   6.591   4.087   3.491
84570SOL     OW55606   8.270   8.988  10.865
84570SOL    HW155607   8.180   9.016  10.876
84570SOL    HW255608   8.282   8.917  10.928
84571SOL     OW55609  10.307   0.023   8.719
84571SOL    HW155610  10.269  14.828   8.780
84571SOL    HW255611  10.392  14.854   8.696
84572SOL     OW55612   9.535   7.860  10.012
84572SOL    HW155613   9.600   7.832   9.947
84572SOL    HW255614   9.451   7.836   9.974
84573SOL     OW55615   7.987   0.247   5.581
84573SOL    HW155616   8.072   0.250   5.537
84573SOL    HW255617   7.927   0.294   5.524
84574SOL     OW55618   6.773   0.671  12.769
84574SOL    HW155619   6.783   0.706  12.858
84574SOL    HW255620   6.837   0.720  12.717
84575SOL     OW55621   5.331   6.776   1.219
84575SOL    HW155622   5.361   6.685   1.222
84575SOL    HW255623   5.327   6.803   1.311
84576SOL     OW55624   3.257   6.617   3.289
84576SOL    HW155625   3.286   6.527   3.309
84576SOL    HW255626   3.235   6.614   3.196
84577SOL     OW55627   5.919   0.893   6.794
84577SOL    HW155628   5.892   0.959   6.858
84577SOL    HW255629   5.877   0.813   6.822
84578SOL     OW55630  14.221   4.468   2.997
84578SOL    HW155631  14.308   4.480   2.960
84578SOL    HW255632  14.218   4.376   3.022
84579SOL     OW55633   8.096   4.217  14.360
84579SOL    HW155634   8.175   4.175  14.327
84579SOL    HW255635   8.128   4.287  14.418
84580SOL     OW55636   6.842  14.410  14.311
84580SOL    HW155637   6.817  14.358  14.387
84580SOL    HW255638   6.759  14.447  14.281
84581SOL     OW55639   7.091  12.458   3.284
84581SOL    HW155640   7.074  12.476   3.376
84581SOL    HW255641   7.126  12.369   3.283
84582SOL     OW55642  10.582   8.825   9.808
84582SOL    HW155643  10.486   8.822   9.817
84582SOL    HW255644  10.605   8.738   9.777
84583SOL     OW55645   4.202   2.588  11.382
84583SOL    HW155646   4.201   2.684  11.384
84583SOL    HW255647   4.248   2.567  11.300
84584SOL     OW55648   6.466  14.148   8.892
84584SOL    HW155649   6.542  14.167   8.837
84584SOL    HW255650   6.421  14.076   8.847
84585SOL     OW55651  10.337   8.593   2.023
84585SOL    HW155652  10.328   8.596   1.928
84585SOL    HW255653  10.384   8.674   2.045
84586SOL     OW55654   6.834   2.895  13.694
84586SOL    HW155655   6.829   2.966  13.630
84586SOL    HW255656   6.925   2.866  13.691
84587SOL     OW55657   5.657  14.214   0.846
84587SOL    HW155658   5.709  14.144   0.885
84587SOL    HW255659   5.627  14.178   0.762
84588SOL     OW55660   4.469   3.544  14.363
84588SOL    HW155661   4.533   3.474  14.373
84588SOL    HW255662   4.423   3.547  14.447
84589SOL     OW55663   2.999   1.897   9.057
84589SOL    HW155664   2.992   1.985   9.094
84589SOL    HW255665   3.032   1.911   8.968
84590SOL     OW55666   9.771   2.027   2.054
84590SOL    HW155667   9.834   2.023   2.125
84590SOL    HW255668   9.694   1.980   2.087
84591SOL     OW55669   9.370   3.944   3.611
84591SOL    HW155670   9.368   3.861   3.660
84591SOL    HW255671   9.337   4.009   3.674
84592SOL     OW55672   9.958   6.481  13.123
84592SOL    HW155673   9.875   6.492  13.076
84592SOL    HW255674  10.017   6.445  13.057
84593SOL     OW55675   0.374   6.891   7.393
84593SOL    HW155676   0.342   6.810   7.355
84593SOL    HW255677   0.297   6.934   7.430
84594SOL     OW55678  14.316   1.013   3.622
84594SOL    HW155679  14.388   0.970   3.576
84594SOL    HW255680  14.356   1.089   3.663
84595SOL     OW55681  10.378  12.626   6.482
84595SOL    HW155682  10.331  12.639   6.564
84595SOL    HW255683  10.347  12.697   6.425
84596SOL     OW55684  11.145   6.624   9.476
84596SOL    HW155685  11.069   6.577   9.510
84596SOL    HW255686  11.216   6.560   9.479
84597SOL     OW55687   2.784  12.306   5.839
84597SOL    HW155688   2.866  12.337   5.875
84597SOL    HW255689   2.777  12.349   5.754
84598SOL     OW55690   4.476   2.221   6.092
84598SOL    HW155691   4.532   2.148   6.066
84598SOL    HW255692   4.496   2.290   6.028
84599SOL     OW55693   4.834   6.361   3.002
84599SOL    HW155694   4.888   6.325   3.073
84599SOL    HW255695   4.802   6.444   3.036
84600SOL     OW55696   6.098   7.768   8.079
84600SOL    HW155697   6.131   7.815   8.002
84600SOL    HW255698   6.008   7.744   8.056
84601SOL     OW55699  13.632   1.044   0.801
84601SOL    HW155700  13.625   1.133   0.768
84601SOL    HW255701  13.546   1.006   0.786
84602SOL     OW55702   1.836   0.130   5.594
84602SOL    HW155703   1.927   0.157   5.606
84602SOL    HW255704   1.786   0.192   5.646
84603SOL     OW55705   8.339   6.437  13.901
84603SOL    HW155706   8.396   6.362  13.918
84603SOL    HW255707   8.356   6.497  13.974
84604SOL     OW55708   6.483   7.403   5.412
84604SOL    HW155709   6.559   7.439   5.456
84604SOL    HW255710   6.410   7.421   5.471
84605SOL     OW55711   8.766   0.233  13.103
84605SOL    HW155712   8.817   0.207  13.027
84605SOL    HW255713   8.831   0.253  13.170
84606SOL     OW55714  10.569  13.850  13.382
84606SOL    HW155715  10.656  13.852  13.341
84606SOL    HW255716  10.509  13.880  13.313
84607SOL     OW55717  13.924   1.625  11.198
84607SOL    HW155718  13.852   1.617  11.136
84607SOL    HW255719  13.884   1.666  11.275
84608SOL     OW55720   3.451  14.105   4.702
84608SOL    HW155721   3.434  14.100   4.796
84608SOL    HW255722   3.380  14.054   4.662
84609SOL     OW55723   4.523   7.606   4.520
84609SOL    HW155724   4.598   7.562   4.480
84609SOL    HW255725   4.559   7.649   4.598
84610SOL     OW55726   2.398   4.401   2.661
84610SOL    HW155727   2.391   4.316   2.704
84610SOL    HW255728   2.420   4.462   2.732
84611SOL     OW55729   0.454   6.209  10.431
84611SOL    HW155730   0.445   6.115  10.417
84611SOL    HW255731   0.528   6.234  10.376
84612SOL     OW55732  10.004  13.180   6.518
84612SOL    HW155733   9.913  13.170   6.490
84612SOL    HW255734  10.029  13.093   6.549
84613SOL     OW55735   5.386  12.643   5.109
84613SOL    HW155736   5.359  12.551   5.113
84613SOL    HW255737   5.436  12.650   5.027
84614SOL     OW55738   5.019  10.633   2.892
84614SOL    HW155739   5.071  10.579   2.951
84614SOL    HW255740   5.080  10.701   2.862
84615SOL     OW55741   8.940   9.119  11.124
84615SOL    HW155742   9.021   9.113  11.074
84615SOL    HW255743   8.936   9.037  11.173
84616SOL     OW55744   9.434  13.724  11.927
84616SOL    HW155745   9.511  13.734  11.984
84616SOL    HW255746   9.408  13.633  11.937
84617SOL     OW55747   8.907   4.343   9.600
84617SOL    HW155748   8.982   4.398   9.578
84617SOL    HW255749   8.936   4.290   9.674
84618SOL     OW55750   0.136   1.760  11.896
84618SOL    HW155751   0.170   1.728  11.813
84618SOL    HW255752   0.111   1.681  11.944
84619SOL     OW55753  12.722   8.070  12.910
84619SOL    HW155754  12.653   8.136  12.901
84619SOL    HW255755  12.795   8.104  12.858
84620SOL     OW55756  10.812   3.873   7.806
84620SOL    HW155757  10.773   3.961   7.806
84620SOL    HW255758  10.904   3.888   7.831
84621SOL     OW55759   7.944   4.767   6.770
84621SOL    HW155760   7.928   4.768   6.676
84621SOL    HW255761   7.859   4.748   6.809
84622SOL     OW55762   4.592   3.757   2.888
84622SOL    HW155763   4.552   3.676   2.857
84622SOL    HW255764   4.686   3.742   2.880
84623SOL     OW55765   6.937   7.664   6.823
84623SOL    HW155766   6.846   7.696   6.820
84623SOL    HW255767   6.982   7.727   6.879
84624SOL     OW55768  12.866   6.664  13.465
84624SOL    HW155769  12.901   6.693  13.550
84624SOL    HW255770  12.936   6.684  13.403
84625SOL     OW55771   9.111  13.938  11.708
84625SOL    HW155772   9.202  13.957  11.687
84625SOL    HW255773   9.087  13.865  11.651
84626SOL     OW55774  11.054  11.235   9.748
84626SOL    HW155775  11.109  11.230   9.825
84626SOL    HW255776  10.978  11.287   9.775
84627SOL     OW55777  10.866   3.142   4.655
84627SOL    HW155778  10.827   3.107   4.575
84627SOL    HW255779  10.947   3.093   4.667
84628SOL     OW55780   2.914   7.967   8.394
84628SOL    HW155781   2.983   7.924   8.344
84628SOL    HW255782   2.920   8.059   8.370
84629SOL     OW55783   8.910   5.393   8.864
84629SOL    HW155784   8.956   5.402   8.947
84629SOL    HW255785   8.818   5.408   8.887
84630SOL     OW55786   6.397  13.902   6.813
84630SOL    HW155787   6.433  13.855   6.889
84630SOL    HW255788   6.420  13.846   6.739
84631SOL     OW55789   3.952   9.115   2.291
84631SOL    HW155790   4.020   9.097   2.227
84631SOL    HW255791   3.876   9.139   2.239
84632SOL     OW55792   7.006  12.763   2.060
84632SOL    HW155793   6.959  12.766   2.143
84632SOL    HW255794   7.073  12.696   2.072
84633SOL     OW55795   1.388  10.272   5.348
84633SOL    HW155796   1.436  10.201   5.305
84633SOL    HW255797   1.395  10.253   5.441
84634SOL     OW55798   5.864   8.760   3.097
84634SOL    HW155799   5.775   8.776   3.129
84634SOL    HW255800   5.861   8.671   3.062
84635SOL     OW55801   8.446   1.149   6.581
84635SOL    HW155802   8.476   1.129   6.669
84635SOL    HW255803   8.363   1.196   6.593
84636SOL     OW55804   9.691   3.907   6.647
84636SOL    HW155805   9.700   3.836   6.710
84636SOL    HW255806   9.622   3.962   6.683
84637SOL     OW55807   2.381  14.575   5.960
84637SOL    HW155808   2.375  14.665   5.929
84637SOL    HW255809   2.420  14.527   5.887
84638SOL     OW55810   9.218   8.706   8.759
84638SOL    HW155811   9.210   8.626   8.707
84638SOL    HW255812   9.142   8.704   8.818
84639SOL     OW55813  12.686  14.685   7.836
84639SOL    HW155814  12.773  14.666   7.799
84639SOL    HW255815  12.634  14.715   7.761
84640SOL     OW55816  13.455   8.147   1.095
84640SOL    HW155817  13.510   8.158   1.173
84640SOL    HW255818  13.513   8.171   1.022
84641SOL     OW55819   6.889   8.813  12.240
84641SOL    HW155820   6.944   8.818  12.319
84641SOL    HW255821   6.833   8.738  12.255
84642SOL     OW55822   8.353   5.870  13.804
84642SOL    HW155823   8.379   5.921  13.728
84642SOL    HW255824   8.359   5.779  13.775
84643SOL     OW55825   2.866   4.325   9.924
84643SOL    HW155826   2.828   4.335   9.836
84643SOL    HW255827   2.957   4.302   9.907
84644SOL     OW55828   8.956   9.832   6.458
84644SOL    HW155829   9.014   9.777   6.405
84644SOL    HW255830   8.948   9.913   6.408
84645SOL     OW55831   6.091  11.789   9.554
84645SOL    HW155832   6.000  11.759   9.551
84645SOL    HW255833   6.119  11.770   9.644
84646SOL     OW55834   9.247  10.860  12.004
84646SOL    HW155835   9.221  10.768  12.006
84646SOL    HW255836   9.193  10.898  11.934
84647SOL     OW55837   5.711   6.648   0.737
84647SOL    HW155838   5.751   6.722   0.692
84647SOL    HW255839   5.635   6.685   0.781
84648SOL     OW55840   1.384   9.310   8.590
84648SOL    HW155841   1.329   9.385   8.612
84648SOL    HW255842   1.453   9.346   8.535
84649SOL     OW55843   3.039  12.391  12.032
84649SOL    HW155844   2.964  12.449  12.019
84649SOL    HW255845   3.000  12.307  12.057
84650SOL     OW55846   0.812   0.498   0.005
84650SOL    HW155847   0.906   0.514  14.862
84650SOL    HW255848   0.794   0.526   0.095
84651SOL     OW55849   5.303  14.617   5.290
84651SOL    HW155850   5.281  14.689   5.350
84651SOL    HW255851   5.226  14.606   5.236
84652SOL     OW55852   1.819   1.215   0.844
84652SOL    HW155853   1.876   1.185   0.774
84652SOL    HW255854   1.879   1.259   0.906
84653SOL     OW55855   9.394   0.103  12.605
84653SOL    HW155856   9.441   0.125  12.525
84653SOL    HW255857   9.456   0.121  12.675
84654SOL     OW55858  13.616  13.933   6.824
84654SOL    HW155859  13.620  13.854   6.879
84654SOL    HW255860  13.683  13.991   6.860
84655SOL     OW55861  10.560   1.031  13.000
84655SOL    HW155862  10.605   1.059  12.921
84655SOL    HW255863  10.626   1.036  13.069
84656SOL     OW55864   1.345   3.570   1.256
84656SOL    HW155865   1.298   3.591   1.175
84656SOL    HW255866   1.276   3.544   1.317
84657SOL     OW55867   7.844   3.603   0.714
84657SOL    HW155868   7.751   3.622   0.726
84657SOL    HW255869   7.845   3.521   0.664
84658SOL     OW55870   3.832   2.118   4.871
84658SOL    HW155871   3.907   2.178   4.871
84658SOL    HW255872   3.813   2.104   4.964
84659SOL     OW55873  12.137   6.494   9.398
84659SOL    HW155874  12.128   6.538   9.483
84659SOL    HW255875  12.214   6.438   9.408
84660SOL     OW55876   8.749   2.134  10.485
84660SOL    HW155877   8.714   2.221  10.468
84660SOL    HW255878   8.673   2.077  10.488
84661SOL     OW55879  14.380   2.461  14.393
84661SOL    HW155880  14.464   2.463  14.347
84661SOL    HW255881  14.363   2.368  14.409
84662SOL     OW55882   2.694   6.837  10.268
84662SOL    HW155883   2.665   6.854  10.358
84662SOL    HW255884   2.624   6.871  10.213
84663SOL     OW55885   8.649  12.711   5.797
84663SOL    HW155886   8.717  12.681   5.736
84663SOL    HW255887   8.673  12.802   5.817
84664SOL     OW55888   6.222  10.828  10.741
84664SOL    HW155889   6.245  10.746  10.696
84664SOL    HW255890   6.273  10.825  10.822
84665SOL     OW55891  10.765   4.335   8.410
84665SOL    HW155892  10.707   4.324   8.485
84665SOL    HW255893  10.852   4.347   8.448
84666SOL     OW55894   4.219   8.115   4.299
84666SOL    HW155895   4.259   8.061   4.230
84666SOL    HW255896   4.294   8.151   4.347
84667SOL     OW55897  11.560  11.865   3.211
84667SOL    HW155898  11.499  11.913   3.154
84667SOL    HW255899  11.635  11.923   3.219
84668SOL     OW55900  11.910   7.010  14.006
84668SOL    HW155901  11.816   7.024  14.003
84668SOL    HW255902  11.942   7.041  13.921
84669SOL     OW55903   3.279   4.928   9.482
84669SOL    HW155904   3.338   4.929   9.556
84669SOL    HW255905   3.292   5.013   9.439
84670SOL     OW55906  14.507  11.513   1.141
84670SOL    HW155907  14.545  11.601   1.145
84670SOL    HW255908  14.583  11.456   1.124
84671SOL     OW55909  14.490   7.845  13.475
84671SOL    HW155910  14.576   7.831  13.514
84671SOL    HW255911  14.505   7.909  13.406
84672SOL     OW55912   8.264   4.357   5.464
84672SOL    HW155913   8.255   4.293   5.534
84672SOL    HW255914   8.253   4.442   5.507
84673SOL     OW55915   2.082   5.890  14.415
84673SOL    HW155916   2.108   5.859  14.329
84673SOL    HW255917   2.004   5.942  14.399
84674SOL     OW55918   6.708  13.698  11.304
84674SOL    HW155919   6.756  13.719  11.224
84674SOL    HW255920   6.745  13.757  11.370
84675SOL     OW55921   2.667  11.231   7.896
84675SOL    HW155922   2.609  11.307   7.891
84675SOL    HW255923   2.741  11.255   7.839
84676SOL     OW55924   8.411  13.987   3.952
84676SOL    HW155925   8.470  14.063   3.951
84676SOL    HW255926   8.461  13.917   3.909
84677SOL     OW55927   3.582   0.854   5.856
84677SOL    HW155928   3.636   0.888   5.927
84677SOL    HW255929   3.576   0.926   5.794
84678SOL     OW55930  14.158   2.365   6.173
84678SOL    HW155931  14.129   2.273   6.177
84678SOL    HW255932  14.155   2.394   6.264
84679SOL     OW55933   6.926   1.694   8.863
84679SOL    HW155934   6.961   1.688   8.775
84679SOL    HW255935   6.922   1.788   8.881
84680SOL     OW55936   6.412  10.544   3.020
84680SOL    HW155937   6.366  10.476   3.070
84680SOL    HW255938   6.361  10.624   3.036
84681SOL     OW55939  14.702   8.044  10.710
84681SOL    HW155940  14.790   8.061  10.744
84681SOL    HW255941  14.677   7.959  10.747
84682SOL     OW55942  13.424   8.565   5.607
84682SOL    HW155943  13.501   8.562   5.550
84682SOL    HW255944  13.404   8.473   5.625
84683SOL     OW55945   8.546   9.696   2.066
84683SOL    HW155946   8.469   9.718   2.118
84683SOL    HW255947   8.512   9.668   1.982
84684SOL     OW55948   5.222   4.319   4.182
84684SOL    HW155949   5.288   4.325   4.251
84684SOL    HW255950   5.161   4.390   4.202
84685SOL     OW55951   1.666   3.341   0.715
84685SOL    HW155952   1.741   3.310   0.766
84685SOL    HW255953   1.618   3.261   0.693
84686SOL     OW55954   7.648   8.194   0.366
84686SOL    HW155955   7.738   8.212   0.341
84686SOL    HW255956   7.654   8.131   0.437
84687SOL     OW55957   9.261   6.790   5.680
84687SOL    HW155958   9.209   6.867   5.703
84687SOL    HW255959   9.345   6.825   5.650
84688SOL     OW55960  12.536  13.010  13.332
84688SOL    HW155961  12.489  13.033  13.412
84688SOL    HW255962  12.468  13.001  13.266
84689SOL     OW55963   9.098   6.729  13.336
84689SOL    HW155964   9.049   6.647  13.338
84689SOL    HW255965   9.176   6.710  13.284
84690SOL     OW55966   2.395  12.479   8.556
84690SOL    HW155967   2.323  12.421   8.534
84690SOL    HW255968   2.435  12.441   8.634
84691SOL     OW55969  10.040   2.136  11.470
84691SOL    HW155970   9.994   2.066  11.517
84691SOL    HW255971   9.970   2.192  11.436
84692SOL     OW55972  10.771   4.164  13.494
84692SOL    HW155973  10.858   4.126  13.481
84692SOL    HW255974  10.727   4.152  13.410
84693SOL     OW55975   5.824   0.912  14.002
84693SOL    HW155976   5.800   0.828  14.041
84693SOL    HW255977   5.863   0.962  14.074
84694SOL     OW55978   5.764   3.101   5.486
84694SOL    HW155979   5.726   3.047   5.416
84694SOL    HW255980   5.706   3.177   5.492
84695SOL     OW55981  13.036  12.458  10.188
84695SOL    HW155982  12.957  12.492  10.147
84695SOL    HW255983  13.039  12.500  10.274
84696SOL     OW55984  11.944  10.985  10.054
84696SOL    HW155985  11.894  10.924  10.000
84696SOL    HW255986  11.971  10.933  10.130
84697SOL     OW55987  12.001   0.467   4.143
84697SOL    HW155988  12.009   0.433   4.054
84697SOL    HW255989  11.979   0.559   4.132
84698SOL     OW55990   9.089   7.457   1.587
84698SOL    HW155991   9.000   7.477   1.615
84698SOL    HW255992   9.143   7.523   1.631
84699SOL     OW55993   4.823  14.670   5.927
84699SOL    HW155994   4.874  14.690   6.006
84699SOL    HW255995   4.758  14.607   5.956
84700SOL     OW55996  11.297   9.007   3.138
84700SOL    HW155997  11.303   8.920   3.176
84700SOL    HW255998  11.352   9.061   3.195
84701SOL     OW55999   1.638  11.975   2.676
84701SOL    HW156000   1.611  11.917   2.604
84701SOL    HW256001   1.638  12.062   2.637
84702SOL     OW56002   8.692  12.794   3.547
84702SOL    HW156003   8.619  12.856   3.553
84702SOL    HW256004   8.700  12.757   3.634
84703SOL     OW56005   1.971   6.177  12.139
84703SOL    HW156006   2.004   6.129  12.063
84703SOL    HW256007   2.047   6.223  12.174
84704SOL     OW56008   2.526  10.409   1.857
84704SOL    HW156009   2.618  10.389   1.875
84704SOL    HW256010   2.528  10.463   1.778
84705SOL     OW56011   3.395   5.188   4.633
84705SOL    HW156012   3.438   5.274   4.641
84705SOL    HW256013   3.323   5.203   4.572
84706SOL     OW56014   6.098  10.034   1.720
84706SOL    HW156015   6.147   9.983   1.656
84706SOL    HW256016   6.006  10.025   1.692
84707SOL     OW56017   4.403   1.264  13.324
84707SOL    HW156018   4.347   1.203  13.374
84707SOL    HW256019   4.438   1.211  13.253
84708SOL     OW56020  12.263   5.932  12.431
84708SOL    HW156021  12.248   5.872  12.358
84708SOL    HW256022  12.283   6.016  12.390
84709SOL     OW56023   8.860  11.337   8.787
84709SOL    HW156024   8.923  11.265   8.789
84709SOL    HW256025   8.837  11.351   8.879
84710SOL     OW56026   7.765  11.669   1.995
84710SOL    HW156027   7.696  11.630   1.942
84710SOL    HW256028   7.841  11.673   1.936
84711SOL     OW56029   4.322   6.539   4.030
84711SOL    HW156030   4.289   6.554   4.118
84711SOL    HW256031   4.322   6.444   4.020
84712SOL     OW56032  11.533   4.360   5.064
84712SOL    HW156033  11.450   4.313   5.065
84712SOL    HW256034  11.566   4.351   5.154
84713SOL     OW56035   0.839   6.687  10.654
84713SOL    HW156036   0.878   6.719  10.734
84713SOL    HW256037   0.913   6.673  10.594
84714SOL     OW56038   0.933   3.311  13.734
84714SOL    HW156039   0.872   3.260  13.787
84714SOL    HW256040   0.972   3.247  13.675
84715SOL     OW56041   8.092  13.655  10.834
84715SOL    HW156042   8.138  13.692  10.910
84715SOL    HW256043   8.161  13.616  10.781
84716SOL     OW56044   5.305  13.342   7.652
84716SOL    HW156045   5.246  13.293   7.708
84716SOL    HW256046   5.288  13.434   7.674
84717SOL     OW56047   0.588  10.868   8.153
84717SOL    HW156048   0.644  10.801   8.115
84717SOL    HW256049   0.519  10.820   8.198
84718SOL     OW56050   1.741   4.401   6.017
84718SOL    HW156051   1.739   4.485   5.972
84718SOL    HW256052   1.694   4.417   6.099
84719SOL     OW56053   8.737  14.808   9.548
84719SOL    HW156054   8.761  14.844   9.463
84719SOL    HW256055   8.762   0.008   9.611
84720SOL     OW56056   4.132   4.437   4.793
84720SOL    HW156057   4.180   4.511   4.754
84720SOL    HW256058   4.132   4.456   4.887
84721SOL     OW56059   7.020   2.480   7.342
84721SOL    HW156060   6.931   2.511   7.360
84721SOL    HW256061   7.076   2.555   7.363
84722SOL     OW56062   4.049   6.398   2.890
84722SOL    HW156063   4.094   6.462   2.945
84722SOL    HW256064   3.956   6.417   2.904
84723SOL     OW56065   7.010   2.014   6.352
84723SOL    HW156066   7.100   2.023   6.382
84723SOL    HW256067   6.979   1.934   6.393
84724SOL     OW56068   8.639   6.890   9.592
84724SOL    HW156069   8.576   6.844   9.536
84724SOL    HW256070   8.591   6.966   9.625
84725SOL     OW56071   8.007  12.176   1.185
84725SOL    HW156072   8.019  12.204   1.094
84725SOL    HW256073   8.029  12.083   1.184
84726SOL     OW56074  10.007   4.101  14.042
84726SOL    HW156075  10.015   4.013  14.079
84726SOL    HW256076  10.094   4.139  14.050
84727SOL     OW56077   6.553   7.260  11.845
84727SOL    HW156078   6.645   7.238  11.855
84727SOL    HW256079   6.540   7.340  11.897
84728SOL     OW56080   6.264   0.215  11.987
84728SOL    HW156081   6.234   0.259  11.908
84728SOL    HW256082   6.326   0.277  12.026
84729SOL     OW56083   9.507   1.278   3.253
84729SOL    HW156084   9.503   1.285   3.349
84729SOL    HW256085   9.416   1.281   3.225
84730SOL     OW56086   7.008   6.449  13.683
84730SOL    HW156087   6.945   6.397  13.732
84730SOL    HW256088   7.078   6.387  13.661
84731SOL     OW56089   9.032   9.040  13.047
84731SOL    HW156090   9.078   8.990  12.980
84731SOL    HW256091   9.009   8.975  13.114
84732SOL     OW56092  11.602   8.068   5.917
84732SOL    HW156093  11.573   8.105   6.001
84732SOL    HW256094  11.534   8.004   5.895
84733SOL     OW56095   7.909   4.414   3.636
84733SOL    HW156096   7.979   4.462   3.678
84733SOL    HW256097   7.946   4.327   3.620
84734SOL     OW56098   0.280   2.122   6.860
84734SOL    HW156099   0.229   2.201   6.842
84734SOL    HW256100   0.361   2.155   6.898
84735SOL     OW56101  11.988  13.984   8.669
84735SOL    HW156102  11.994  13.989   8.574
84735SOL    HW256103  11.934  13.906   8.685
84736SOL     OW56104   6.811   7.698   1.519
84736SOL    HW156105   6.786   7.652   1.439
84736SOL    HW256106   6.812   7.631   1.586
84737SOL     OW56107   1.505   4.848   4.133
84737SOL    HW156108   1.499   4.922   4.072
84737SOL    HW256109   1.599   4.833   4.144
84738SOL     OW56110   7.711   3.393   7.856
84738SOL    HW156111   7.656   3.357   7.786
84738SOL    HW256112   7.649   3.435   7.916
84739SOL     OW56113   8.614   2.469   9.372
84739SOL    HW156114   8.551   2.491   9.441
84739SOL    HW256115   8.587   2.382   9.342
84740SOL     OW56116   6.780  10.213  13.653
84740SOL    HW156117   6.803  10.154  13.725
84740SOL    HW256118   6.773  10.154  13.577
84741SOL     OW56119   2.347   2.927  11.094
84741SOL    HW156120   2.420   2.983  11.067
84741SOL    HW256121   2.298   2.911  11.014
84742SOL     OW56122  14.362   5.404  11.170
84742SOL    HW156123  14.405   5.319  11.176
84742SOL    HW256124  14.300   5.403  11.243
84743SOL     OW56125  12.944  10.610   7.975
84743SOL    HW156126  12.856  10.637   8.002
84743SOL    HW256127  12.980  10.566   8.052
84744SOL     OW56128   0.295  11.587   7.793
84744SOL    HW156129   0.277  11.528   7.720
84744SOL    HW256130   0.275  11.534   7.871
84745SOL     OW56131   4.027  13.023   9.890
84745SOL    HW156132   3.996  12.960   9.825
84745SOL    HW256133   4.113  13.050   9.858
84746SOL     OW56134  14.453   3.956   1.208
84746SOL    HW156135  14.371   3.935   1.252
84746SOL    HW256136  14.514   3.888   1.236
84747SOL     OW56137  14.433   4.847   2.816
84747SOL    HW156138  14.527   4.852   2.835
84747SOL    HW256139  14.391   4.889   2.891
84748SOL     OW56140   0.948   8.263  11.313
84748SOL    HW156141   0.981   8.208  11.242
84748SOL    HW256142   0.914   8.341  11.269
84749SOL     OW56143   0.827   8.456  10.146
84749SOL    HW156144   0.867   8.535  10.108
84749SOL    HW256145   0.752   8.439  10.090
84750SOL     OW56146   7.416  12.093   1.383
84750SOL    HW156147   7.331  12.051   1.397
84750SOL    HW256148   7.415  12.169   1.442
84751SOL     OW56149   1.792   0.959  12.180
84751SOL    HW156150   1.766   0.989  12.093
84751SOL    HW256151   1.864   1.016  12.205
84752SOL     OW56152   0.643   0.699   9.765
84752SOL    HW156153   0.734   0.676   9.783
84752SOL    HW256154   0.635   0.692   9.670
84753SOL     OW56155   7.668  10.724   1.166
84753SOL    HW156156   7.579  10.745   1.193
84753SOL    HW256157   7.659  10.662   1.094
84754SOL     OW56158  14.336   4.199   4.563
84754SOL    HW156159  14.386   4.126   4.525
84754SOL    HW256160  14.265   4.156   4.612
84755SOL     OW56161   5.723   6.938   5.060
84755SOL    HW156162   5.704   6.975   5.146
84755SOL    HW256163   5.814   6.911   5.065
84756SOL     OW56164  12.202   1.841   0.483
84756SOL    HW156165  12.256   1.786   0.426
84756SOL    HW256166  12.159   1.780   0.543
84757SOL     OW56167  11.230  10.141  13.938
84757SOL    HW156168  11.153  10.169  13.987
84757SOL    HW256169  11.203  10.145  13.846
84758SOL     OW56170   3.695   2.886  10.896
84758SOL    HW156171   3.753   2.963  10.896
84758SOL    HW256172   3.755   2.811  10.900
84759SOL     OW56173  12.563   7.565  12.361
84759SOL    HW156174  12.475   7.603  12.357
84759SOL    HW256175  12.611   7.610  12.291
84760SOL     OW56176  12.326   7.628  12.270
84760SOL    HW156177  12.231   7.620  12.261
84760SOL    HW256178  12.360   7.593  12.188
84761SOL     OW56179   8.514   4.700   8.859
84761SOL    HW156180   8.529   4.725   8.768
84761SOL    HW256181   8.494   4.782   8.904
84762SOL     OW56182  10.707   4.867   7.182
84762SOL    HW156183  10.705   4.876   7.278
84762SOL    HW256184  10.771   4.798   7.166
84763SOL     OW56185   4.460   6.107   6.216
84763SOL    HW156186   4.390   6.095   6.280
84763SOL    HW256187   4.536   6.064   6.256
84764SOL     OW56188   9.934   2.136  10.264
84764SOL    HW156189   9.993   2.180  10.204
84764SOL    HW256190   9.910   2.055  10.219
84765SOL     OW56191  12.430   7.201  11.614
84765SOL    HW156192  12.425   7.210  11.519
84765SOL    HW256193  12.398   7.113  11.632
84766SOL     OW56194   2.802   4.537   6.074
84766SOL    HW156195   2.772   4.489   5.997
84766SOL    HW256196   2.782   4.479   6.148
84767SOL     OW56197   2.267   0.867  12.436
84767SOL    HW156198   2.313   0.792  12.398
84767SOL    HW256199   2.180   0.833  12.458
84768SOL     OW56200   6.526   9.393   9.889
84768SOL    HW156201   6.465   9.464   9.909
84768SOL    HW256202   6.610   9.423   9.924
84769SOL     OW56203   0.919   3.960   0.694
84769SOL    HW156204   0.877   4.035   0.736
84769SOL    HW256205   0.847   3.912   0.653
84770SOL     OW56206   0.707   5.517   3.145
84770SOL    HW156207   0.756   5.437   3.163
84770SOL    HW256208   0.741   5.548   3.061
84771SOL     OW56209  10.839   9.091  14.803
84771SOL    HW156210  10.784   9.027  14.847
84771SOL    HW256211  10.787   9.122  14.729
84772SOL     OW56212   0.579  13.468   3.636
84772SOL    HW156213   0.526  13.455   3.714
84772SOL    HW256214   0.549  13.551   3.600
84773SOL     OW56215   6.000  10.140  12.162
84773SOL    HW156216   6.059  10.208  12.130
84773SOL    HW256217   6.049  10.098  12.233
84774SOL     OW56218  14.028  10.543   3.423
84774SOL    HW156219  14.123  10.536   3.416
84774SOL    HW256220  14.014  10.617   3.482
84775SOL     OW56221  11.516  12.423   1.391
84775SOL    HW156222  11.421  12.424   1.401
84775SOL    HW256223  11.530  12.416   1.296
84776SOL     OW56224  10.415  10.682   5.369
84776SOL    HW156225  10.457  10.647   5.448
84776SOL    HW256226  10.488  10.716   5.316
84777SOL     OW56227   9.196   2.219   3.822
84777SOL    HW156228   9.115   2.247   3.865
84777SOL    HW256229   9.259   2.287   3.843
84778SOL     OW56230  13.814   7.789   6.928
84778SOL    HW156231  13.788   7.848   6.998
84778SOL    HW256232  13.818   7.703   6.970
84779SOL     OW56233   8.334  10.295   3.949
84779SOL    HW156234   8.291  10.224   3.997
84779SOL    HW256235   8.419  10.305   3.993
84780SOL     OW56236   2.527   6.146   2.233
84780SOL    HW156237   2.542   6.074   2.172
84780SOL    HW256238   2.559   6.114   2.317
84781SOL     OW56239   2.520   1.746  14.550
84781SOL    HW156240   2.610   1.777  14.566
84781SOL    HW256241   2.526   1.651  14.560
84782SOL     OW56242  11.321  12.487   6.172
84782SOL    HW156243  11.292  12.522   6.257
84782SOL    HW256244  11.248  12.432   6.143
84783SOL     OW56245   2.474  12.109   5.809
84783SOL    HW156246   2.467  12.188   5.863
84783SOL    HW256247   2.397  12.112   5.752
84784SOL     OW56248   3.441  14.675   8.300
84784SOL    HW156249   3.382  14.750   8.289
84784SOL    HW256250   3.511  14.689   8.236
84785SOL     OW56251  12.894   6.007  12.375
84785SOL    HW156252  12.817   6.061  12.357
84785SOL    HW256253  12.962   6.044  12.319
84786SOL     OW56254  14.146   5.841   0.028
84786SOL    HW156255  14.201   5.897   0.082
84786SOL    HW256256  14.201   5.817  14.821
84787SOL     OW56257   5.963  11.540   0.297
84787SOL    HW156258   6.011  11.604   0.243
84787SOL    HW256259   6.024  11.518   0.367
84788SOL     OW56260  13.724   2.512  14.651
84788SOL    HW156261  13.811   2.551  14.637
84788SOL    HW256262  13.739   2.438  14.709
84789SOL     OW56263   3.078  12.767   0.663
84789SOL    HW156264   3.171  12.747   0.650
84789SOL    HW256265   3.035  12.682   0.665
84790SOL     OW56266   3.019   8.843  10.047
84790SOL    HW156267   3.094   8.785  10.030
84790SOL    HW256268   2.950   8.784  10.079
84791SOL     OW56269   2.042  11.708   3.053
84791SOL    HW156270   1.992  11.763   3.114
84791SOL    HW256271   1.975  11.669   2.997
84792SOL     OW56272   8.511   9.770  14.745
84792SOL    HW156273   8.558   9.728  14.818
84792SOL    HW256274   8.568   9.756  14.669
84793SOL     OW56275   6.498   7.743   4.788
84793SOL    HW156276   6.415   7.716   4.829
84793SOL    HW256277   6.473   7.784   4.706
84794SOL     OW56278   4.037  12.134   0.376
84794SOL    HW156279   3.998  12.150   0.462
84794SOL    HW256280   4.116  12.188   0.376
84795SOL     OW56281   9.278  13.725   7.765
84795SOL    HW156282   9.192  13.764   7.782
84795SOL    HW256283   9.288  13.728   7.670
84796SOL     OW56284  11.568   6.310   1.847
84796SOL    HW156285  11.567   6.402   1.819
84796SOL    HW256286  11.627   6.308   1.922
84797SOL     OW56287   2.908   7.072   0.881
84797SOL    HW156288   2.824   7.083   0.836
84797SOL    HW256289   2.906   7.137   0.951
84798SOL     OW56290   6.790   2.125   0.070
84798SOL    HW156291   6.852   2.111   0.141
84798SOL    HW256292   6.792   2.044   0.020
84799SOL     OW56293  11.047   6.359   1.530
84799SOL    HW156294  11.059   6.333   1.438
84799SOL    HW256295  11.135   6.385   1.558
84800SOL     OW56296   0.245   1.176   8.180
84800SOL    HW156297   0.254   1.183   8.085
84800SOL    HW256298   0.335   1.167   8.212
84801SOL     OW56299   4.443   8.839  12.596
84801SOL    HW156300   4.386   8.903  12.553
84801SOL    HW256301   4.436   8.761  12.541
84802SOL     OW56302   3.265  14.843   4.588
84802SOL    HW156303   3.278   0.030   4.665
84802SOL    HW256304   3.354  14.819   4.560
84803SOL     OW56305  14.857   0.111  12.072
84803SOL    HW156306   0.020   0.198  12.049
84803SOL    HW256307  14.772   0.126  12.113
84804SOL     OW56308   1.533   1.033   8.431
84804SOL    HW156309   1.610   1.082   8.461
84804SOL    HW256310   1.489   1.004   8.511
84805SOL     OW56311   6.573   8.030  12.005
84805SOL    HW156312   6.631   7.953  12.000
84805SOL    HW256313   6.617   8.088  12.066
84806SOL     OW56314  13.399   0.070  11.222
84806SOL    HW156315  13.420   0.027  11.140
84806SOL    HW256316  13.337   0.011  11.265
84807SOL     OW56317  12.234  14.509  12.200
84807SOL    HW156318  12.207  14.418  12.214
84807SOL    HW256319  12.184  14.560  12.264
84808SOL     OW56320   4.148  14.145   9.785
84808SOL    HW156321   4.207  14.141   9.860
84808SOL    HW256322   4.100  14.228   9.796
84809SOL     OW56323   4.727   4.367   3.976
84809SOL    HW156324   4.642   4.400   3.947
84809SOL    HW256325   4.783   4.375   3.898
84810SOL     OW56326  11.682   8.838   8.614
84810SOL    HW156327  11.752   8.799   8.667
84810SOL    HW256328  11.608   8.778   8.624
84811SOL     OW56329  13.635  12.928   2.377
84811SOL    HW156330  13.675  13.012   2.353
84811SOL    HW256331  13.612  12.888   2.294
84812SOL     OW56332  13.018   4.628   4.709
84812SOL    HW156333  12.984   4.589   4.789
84812SOL    HW256334  13.103   4.663   4.733
84813SOL     OW56335   6.797   4.272   8.883
84813SOL    HW156336   6.819   4.200   8.823
84813SOL    HW256337   6.786   4.348   8.826
84814SOL     OW56338  10.145  14.368   2.177
84814SOL    HW156339  10.161  14.364   2.083
84814SOL    HW256340  10.050  14.378   2.185
84815SOL     OW56341  11.290  12.800  11.968
84815SOL    HW156342  11.231  12.833  12.035
84815SOL    HW256343  11.371  12.849  11.981
84816SOL     OW56344   8.454   5.036  10.160
84816SOL    HW156345   8.492   5.020  10.246
84816SOL    HW256346   8.450   4.950  10.119
84817SOL     OW56347  11.425  11.577   4.684
84817SOL    HW156348  11.392  11.667   4.682
84817SOL    HW256349  11.510  11.584   4.728
84818SOL     OW56350   2.956  13.509  12.792
84818SOL    HW156351   2.874  13.546  12.759
84818SOL    HW256352   3.016  13.512  12.716
84819SOL     OW56353   1.387   4.826  11.428
84819SOL    HW156354   1.386   4.921  11.415
84819SOL    HW256355   1.443   4.813  11.504
84820SOL     OW56356   3.951   9.224  13.336
84820SOL    HW156357   3.956   9.318  13.319
84820SOL    HW256358   3.959   9.184  13.250
84821SOL     OW56359   3.024  14.090  10.942
84821SOL    HW156360   3.096  14.109  10.882
84821SOL    HW256361   3.035  14.153  11.014
84822SOL     OW56362  12.273  13.182   1.334
84822SOL    HW156363  12.210  13.115   1.362
84822SOL    HW256364  12.248  13.201   1.244
84823SOL     OW56365   1.864   7.571  14.420
84823SOL    HW156366   1.949   7.559  14.462
84823SOL    HW256367   1.883   7.619  14.340
84824SOL     OW56368  13.567   3.589  13.331
84824SOL    HW156369  13.590   3.682  13.327
84824SOL    HW256370  13.650   3.543  13.314
84825SOL     OW56371  13.500   9.707   2.296
84825SOL    HW156372  13.450   9.749   2.366
84825SOL    HW256373  13.441   9.639   2.262
84826SOL     OW56374   3.771   3.760   1.825
84826SOL    HW156375   3.727   3.836   1.863
84826SOL    HW256376   3.842   3.740   1.887
84827SOL     OW56377   9.685  13.111   4.540
84827SOL    HW156378   9.621  13.172   4.504
84827SOL    HW256379   9.754  13.167   4.576
84828SOL     OW56380   8.654  11.600  12.025
84828SOL    HW156381   8.725  11.537  12.010
84828SOL    HW256382   8.575  11.554  11.999
84829SOL     OW56383  12.543   5.057   6.256
84829SOL    HW156384  12.457   5.040   6.295
84829SOL    HW256385  12.556   4.986   6.194
84830SOL     OW56386   8.088   3.242   8.766
84830SOL    HW156387   8.163   3.218   8.821
84830SOL    HW256388   8.027   3.169   8.775
84831SOL     OW56389   6.594   1.660   8.831
84831SOL    HW156390   6.557   1.594   8.890
84831SOL    HW256391   6.529   1.731   8.831
84832SOL     OW56392  11.112  13.669  11.773
84832SOL    HW156393  11.206  13.653  11.779
84832SOL    HW256394  11.104  13.764  11.761
84833SOL     OW56395   6.307   1.580   0.351
84833SOL    HW156396   6.370   1.641   0.313
84833SOL    HW256397   6.236   1.635   0.384
84834SOL     OW56398  11.743   3.910   2.815
84834SOL    HW156399  11.733   3.967   2.739
84834SOL    HW256400  11.831   3.930   2.848
84835SOL     OW56401  14.733   9.361   9.703
84835SOL    HW156402  14.680   9.393   9.630
84835SOL    HW256403  14.672   9.353   9.776
84836SOL     OW56404   8.996   0.581  13.700
84836SOL    HW156405   9.028   0.666  13.730
84836SOL    HW256406   8.933   0.554  13.768
84837SOL     OW56407  14.256   4.112   3.605
84837SOL    HW156408  14.274   4.019   3.591
84837SOL    HW256409  14.192   4.114   3.675
84838SOL     OW56410   3.908   1.768  10.749
84838SOL    HW156411   3.833   1.748  10.693
84838SOL    HW256412   3.956   1.836  10.701
84839SOL     OW56413  13.280   0.477  14.720
84839SOL    HW156414  13.364   0.441  14.750
84839SOL    HW256415  13.239   0.406  14.671
84840SOL     OW56416   5.125   1.388   8.422
84840SOL    HW156417   5.151   1.308   8.468
84840SOL    HW256418   5.030   1.391   8.431
84841SOL     OW56419   9.704  14.710   4.322
84841SOL    HW156420   9.661  14.795   4.336
84841SOL    HW256421   9.781  14.712   4.378
84842SOL     OW56422   8.294  10.826  14.023
84842SOL    HW156423   8.277  10.870  14.106
84842SOL    HW256424   8.207  10.813  13.984
84843SOL     OW56425  11.168   6.996   0.820
84843SOL    HW156426  11.091   7.053   0.825
84843SOL    HW256427  11.208   7.002   0.906
84844SOL     OW56428   8.645  10.809   3.227
84844SOL    HW156429   8.596  10.756   3.290
84844SOL    HW256430   8.736  10.784   3.241
84845SOL     OW56431   8.399  14.593  12.927
84845SOL    HW156432   8.493  14.606  12.941
84845SOL    HW256433   8.386  14.498  12.936
84846SOL     OW56434  12.422   7.184   3.182
84846SOL    HW156435  12.477   7.252   3.144
84846SOL    HW256436  12.438   7.107   3.127
84847SOL     OW56437   4.840   1.551   0.101
84847SOL    HW156438   4.850   1.629   0.155
84847SOL    HW256439   4.751   1.557   0.066
84848SOL     OW56440  12.171  13.610  14.784
84848SOL    HW156441  12.133  13.522  14.781
84848SOL    HW256442  12.152  13.647  14.698
84849SOL     OW56443  12.844   4.853  11.316
84849SOL    HW156444  12.912   4.824  11.377
84849SOL    HW256445  12.821   4.775  11.267
84850SOL     OW56446   5.686   7.566  14.861
84850SOL    HW156447   5.709   7.606  14.777
84850SOL    HW256448   5.637   7.487  14.837
84851SOL     OW56449  11.582  14.131   0.755
84851SOL    HW156450  11.565  14.042   0.788
84851SOL    HW256451  11.675  14.145   0.772
84852SOL     OW56452   2.959   8.192   2.531
84852SOL    HW156453   2.952   8.097   2.536
84852SOL    HW256454   3.004   8.217   2.611
84853SOL     OW56455   3.584   5.164  11.415
84853SOL    HW156456   3.500   5.121  11.429
84853SOL    HW256457   3.641   5.095  11.381
84854SOL     OW56458   1.504   4.509   1.527
84854SOL    HW156459   1.546   4.454   1.594
84854SOL    HW256460   1.423   4.462   1.505
84855SOL     OW56461   4.946   2.580   7.310
84855SOL    HW156462   5.008   2.651   7.325
84855SOL    HW256463   4.889   2.581   7.387
84856SOL     OW56464   5.279  13.868   5.741
84856SOL    HW156465   5.248  13.825   5.821
84856SOL    HW256466   5.267  13.962   5.758
84857SOL     OW56467  12.598  14.266   7.268
84857SOL    HW156468  12.635  14.224   7.346
84857SOL    HW256469  12.647  14.227   7.195
84858SOL     OW56470   4.531   3.806   9.888
84858SOL    HW156471   4.556   3.873   9.953
84858SOL    HW256472   4.603   3.744   9.889
84859SOL     OW56473  12.053   7.788   4.480
84859SOL    HW156474  12.050   7.770   4.386
84859SOL    HW256475  11.997   7.865   4.492
84860SOL     OW56476  14.114  11.304   0.525
84860SOL    HW156477  14.149  11.392   0.542
84860SOL    HW256478  14.055  11.316   0.450
84861SOL     OW56479   8.065   3.244  14.588
84861SOL    HW156480   8.103   3.168  14.633
84861SOL    HW256481   8.004   3.282  14.652
84862SOL     OW56482   5.515  12.928  13.809
84862SOL    HW156483   5.569  13.000  13.840
84862SOL    HW256484   5.546  12.852  13.859
84863SOL     OW56485   2.364   6.986  12.168
84863SOL    HW156486   2.403   6.960  12.084
84863SOL    HW256487   2.270   6.982  12.153
84864SOL     OW56488   8.851   4.888  10.461
84864SOL    HW156489   8.897   4.966  10.492
84864SOL    HW256490   8.827   4.842  10.541
84865SOL     OW56491   7.068   4.613   8.745
84865SOL    HW156492   7.091   4.706   8.746
84865SOL    HW256493   6.973   4.611   8.756
84866SOL     OW56494   1.326   1.349  10.560
84866SOL    HW156495   1.409   1.396  10.571
84866SOL    HW256496   1.294   1.336  10.650
84867SOL     OW56497   4.682   9.837   8.474
84867SOL    HW156498   4.591   9.867   8.478
84867SOL    HW256499   4.679   9.748   8.509
84868SOL     OW56500   3.454  10.358  14.143
84868SOL    HW156501   3.539  10.375  14.103
84868SOL    HW256502   3.411  10.296  14.083
84869SOL     OW56503  12.395  13.464  12.348
84869SOL    HW156504  12.382  13.478  12.442
84869SOL    HW256505  12.395  13.369  12.337
84870SOL     OW56506  12.653  11.504  13.159
84870SOL    HW156507  12.635  11.570  13.226
84870SOL    HW256508  12.625  11.421  13.199
84871SOL     OW56509   1.456  14.853   9.361
84871SOL    HW156510   1.536   0.031   9.333
84871SOL    HW256511   1.483  14.804   9.439
84872SOL     OW56512  13.617   2.551   6.860
84872SOL    HW156513  13.532   2.544   6.903
84872SOL    HW256514  13.669   2.604   6.920
84873SOL     OW56515   9.824   8.189   0.207
84873SOL    HW156516   9.823   8.227   0.120
84873SOL    HW256517   9.742   8.218   0.248
84874SOL     OW56518   0.822  11.451  13.412
84874SOL    HW156519   0.798  11.531  13.458
84874SOL    HW256520   0.914  11.463  13.389
84875SOL     OW56521   8.161   5.187  13.525
84875SOL    HW156522   8.191   5.217  13.610
84875SOL    HW256523   8.193   5.253  13.463
84876SOL     OW56524  14.222   9.803  14.207
84876SOL    HW156525  14.203   9.760  14.291
84876SOL    HW256526  14.313   9.830  14.214
84877SOL     OW56527   6.255   8.123   3.004
84877SOL    HW156528   6.300   8.163   2.930
84877SOL    HW256529   6.271   8.029   2.993
84878SOL     OW56530   5.489   1.175  12.563
84878SOL    HW156531   5.439   1.189  12.483
84878SOL    HW256532   5.580   1.170  12.533
84879SOL     OW56533  10.455  14.468  11.654
84879SOL    HW156534  10.503  14.453  11.735
84879SOL    HW256535  10.386  14.402  11.654
84880SOL     OW56536  13.502   7.497   5.794
84880SOL    HW156537  13.469   7.452   5.872
84880SOL    HW256538  13.495   7.590   5.814
84881SOL     OW56539   5.720   1.029  14.647
84881SOL    HW156540   5.763   1.107  14.683
84881SOL    HW256541   5.684   0.984  14.723
84882SOL     OW56542   2.242   0.984   8.112
84882SOL    HW156543   2.259   1.072   8.077
84882SOL    HW256544   2.209   0.934   8.038
84883SOL     OW56545   1.395   4.880  13.808
84883SOL    HW156546   1.333   4.920  13.868
84883SOL    HW256547   1.362   4.791  13.796
84884SOL     OW56548   9.182   8.576   9.792
84884SOL    HW156549   9.105   8.604   9.841
84884SOL    HW256550   9.146   8.533   9.714
84885SOL     OW56551   2.279  13.135   7.528
84885SOL    HW156552   2.260  13.222   7.494
84885SOL    HW256553   2.366  13.142   7.567
84886SOL     OW56554  11.817  14.125  12.326
84886SOL    HW156555  11.863  14.197  12.283
84886SOL    HW256556  11.801  14.062  12.256
84887SOL     OW56557  12.265  12.202   9.802
84887SOL    HW156558  12.336  12.263   9.782
84887SOL    HW256559  12.239  12.167   9.716
84888SOL     OW56560   4.072   0.428   0.238
84888SOL    HW156561   4.124   0.447   0.160
84888SOL    HW256562   3.995   0.383   0.205
84889SOL     OW56563   7.936   1.547  14.725
84889SOL    HW156564   8.023   1.583  14.744
84889SOL    HW256565   7.921   1.485  14.797
84890SOL     OW56566  12.958   8.930  14.807
84890SOL    HW156567  13.000   8.990  14.745
84890SOL    HW256568  13.020   8.858  14.817
84891SOL     OW56569   4.213   3.996   5.431
84891SOL    HW156570   4.149   3.975   5.364
84891SOL    HW256571   4.162   4.004   5.512
84892SOL     OW56572   0.678   3.839   7.403
84892SOL    HW156573   0.627   3.878   7.332
84892SOL    HW256574   0.613   3.805   7.464
84893SOL     OW56575   9.955  13.693   9.182
84893SOL    HW156576  10.036  13.705   9.132
84893SOL    HW256577   9.938  13.599   9.177
84894SOL     OW56578   2.988   5.600   4.044
84894SOL    HW156579   3.031   5.576   3.962
84894SOL    HW256580   2.910   5.649   4.017
84895SOL     OW56581  10.172   2.500   0.437
84895SOL    HW156582  10.188   2.429   0.500
84895SOL    HW256583  10.098   2.548   0.475
84896SOL     OW56584  12.602   9.593  11.260
84896SOL    HW156585  12.628   9.684  11.247
84896SOL    HW256586  12.556   9.569  11.179
84897SOL     OW56587  11.302  11.659   1.465
84897SOL    HW156588  11.212  11.687   1.454
84897SOL    HW256589  11.337  11.714   1.534
84898SOL     OW56590   5.942  13.160   0.701
84898SOL    HW156591   5.862  13.185   0.655
84898SOL    HW256592   5.912  13.135   0.789
84899SOL     OW56593  13.032  12.076   4.284
84899SOL    HW156594  13.103  12.103   4.226
84899SOL    HW256595  12.957  12.062   4.227
84900SOL     OW56596   8.672   5.378   0.989
84900SOL    HW156597   8.715   5.422   0.916
84900SOL    HW256598   8.742   5.336   1.037
84901SOL     OW56599   1.688   0.384   1.497
84901SOL    HW156600   1.663   0.410   1.585
84901SOL    HW256601   1.668   0.460   1.443
84902SOL     OW56602   0.438   3.557   5.165
84902SOL    HW156603   0.440   3.581   5.258
84902SOL    HW256604   0.440   3.641   5.119
84903SOL     OW56605   0.616   0.663   9.490
84903SOL    HW156606   0.544   0.619   9.444
84903SOL    HW256607   0.663   0.710   9.421
84904SOL     OW56608   9.790   4.355   0.789
84904SOL    HW156609   9.743   4.436   0.770
84904SOL    HW256610   9.770   4.337   0.881
84905SOL     OW56611   5.958   2.148   0.808
84905SOL    HW156612   6.012   2.223   0.783
84905SOL    HW256613   5.876   2.160   0.759
84906SOL     OW56614   8.705   0.546   5.424
84906SOL    HW156615   8.726   0.458   5.454
84906SOL    HW256616   8.769   0.563   5.355
84907SOL     OW56617   7.804  12.569   5.077
84907SOL    HW156618   7.888  12.553   5.120
84907SOL    HW256619   7.798  12.501   5.010
84908SOL     OW56620   5.034  13.254  10.492
84908SOL    HW156621   5.057  13.343  10.466
84908SOL    HW256622   4.939  13.256  10.505
84909SOL     OW56623  10.838  11.581   5.040
84909SOL    HW156624  10.789  11.662   5.025
84909SOL    HW256625  10.864  11.552   4.952
84910SOL     OW56626  10.451   5.645  13.768
84910SOL    HW156627  10.456   5.549  13.769
84910SOL    HW256628  10.506   5.671  13.695
84911SOL     OW56629  10.825   5.677   7.046
84911SOL    HW156630  10.879   5.694   6.969
84911SOL    HW256631  10.840   5.753   7.103
84912SOL     OW56632   1.024   9.710   7.455
84912SOL    HW156633   1.052   9.714   7.364
84912SOL    HW256634   1.095   9.751   7.504
84913SOL     OW56635  14.594   8.295   6.222
84913SOL    HW156636  14.616   8.320   6.312
84913SOL    HW256637  14.545   8.370   6.188
84914SOL     OW56638  11.254   8.442  10.334
84914SOL    HW156639  11.275   8.437  10.240
84914SOL    HW256640  11.248   8.350  10.361
84915SOL     OW56641   7.521   3.995   6.317
84915SOL    HW156642   7.611   3.976   6.291
84915SOL    HW256643   7.511   3.953   6.402
84916SOL     OW56644  11.680  12.371   7.202
84916SOL    HW156645  11.764  12.337   7.172
84916SOL    HW256646  11.702  12.441   7.264
84917SOL     OW56647  13.317   6.746   9.971
84917SOL    HW156648  13.278   6.660   9.982
84917SOL    HW256649  13.370   6.758  10.050
84918SOL     OW56650   4.799  12.377   1.399
84918SOL    HW156651   4.868  12.383   1.466
84918SOL    HW256652   4.740  12.310   1.431
84919SOL     OW56653  12.937  14.390   7.229
84919SOL    HW156654  12.903  14.429   7.310
84919SOL    HW256655  12.861  14.390   7.170
84920SOL     OW56656   6.323  11.479  12.155
84920SOL    HW156657   6.342  11.388  12.178
84920SOL    HW256658   6.227  11.481  12.145
84921SOL     OW56659  11.380   9.398   5.381
84921SOL    HW156660  11.404   9.305   5.371
84921SOL    HW256661  11.324   9.400   5.459
84922SOL     OW56662  14.666  12.429  11.467
84922SOL    HW156663  14.588  12.478  11.492
84922SOL    HW256664  14.732  12.453  11.532
84923SOL     OW56665   5.005  12.660  12.007
84923SOL    HW156666   4.978  12.645  12.098
84923SOL    HW256667   4.948  12.730  11.977
84924SOL     OW56668   6.186  11.577   2.499
84924SOL    HW156669   6.146  11.524   2.568
84924SOL    HW256670   6.170  11.527   2.419
84925SOL     OW56671   2.677  13.877   6.025
84925SOL    HW156672   2.739  13.805   6.016
84925SOL    HW256673   2.615  13.848   6.091
84926SOL     OW56674   2.576   2.536  11.538
84926SOL    HW156675   2.614   2.507  11.455
84926SOL    HW256676   2.486   2.559  11.516
84927SOL     OW56677  13.558   9.840   7.455
84927SOL    HW156678  13.561   9.919   7.507
84927SOL    HW256679  13.644   9.834   7.414
84928SOL     OW56680   4.745   4.417   7.299
84928SOL    HW156681   4.813   4.455   7.355
84928SOL    HW256682   4.665   4.463   7.325
84929SOL     OW56683  14.705   1.750  10.264
84929SOL    HW156684  14.626   1.803  10.272
84929SOL    HW256685  14.774   1.814  10.244
84930SOL     OW56686   2.479   2.705  11.151
84930SOL    HW156687   2.444   2.788  11.118
84930SOL    HW256688   2.405   2.644  11.145
84931SOL     OW56689   7.042   6.901   1.493
84931SOL    HW156690   6.983   6.894   1.418
84931SOL    HW256691   6.989   6.945   1.560
84932SOL     OW56692  10.938  13.434   2.912
84932SOL    HW156693  10.976  13.412   2.827
84932SOL    HW256694  10.904  13.523   2.901
84933SOL     OW56695   5.232  12.654   3.379
84933SOL    HW156696   5.185  12.727   3.418
84933SOL    HW256697   5.174  12.579   3.390
84934SOL     OW56698   9.148   9.120  10.952
84934SOL    HW156699   9.154   9.052  10.884
84934SOL    HW256700   9.235   9.124  10.990
84935SOL     OW56701   9.828   5.015  14.078
84935SOL    HW156702   9.775   5.036  14.155
84935SOL    HW256703   9.769   4.965  14.022
84936SOL     OW56704   8.001   9.888  11.772
84936SOL    HW156705   8.065   9.827  11.808
84936SOL    HW256706   8.048   9.972  11.767
84937SOL     OW56707   0.899   5.505   6.472
84937SOL    HW156708   0.936   5.480   6.387
84937SOL    HW256709   0.838   5.434   6.493
84938SOL     OW56710   8.276   1.499   1.449
84938SOL    HW156711   8.210   1.569   1.443
84938SOL    HW256712   8.226   1.421   1.473
84939SOL     OW56713   9.029   8.497   9.591
84939SOL    HW156714   9.052   8.536   9.507
84939SOL    HW256715   8.944   8.535   9.613
84940SOL     OW56716  12.378  13.285   7.603
84940SOL    HW156717  12.337  13.332   7.530
84940SOL    HW256718  12.414  13.206   7.564
84941SOL     OW56719   2.453   0.821   5.980
84941SOL    HW156720   2.486   0.796   6.067
84941SOL    HW256721   2.469   0.744   5.926
84942SOL     OW56722   8.355   2.796   9.851
84942SOL    HW156723   8.292   2.860   9.882
84942SOL    HW256724   8.311   2.711   9.861
84943SOL     OW56725   7.128  13.897   8.635
84943SOL    HW156726   7.129  13.960   8.563
84943SOL    HW256727   7.206  13.844   8.622
84944SOL     OW56728  11.566   4.595  14.811
84944SOL    HW156729  11.606   4.681  14.798
84944SOL    HW256730  11.476   4.606  14.781
84945SOL     OW56731   4.271   6.444   2.121
84945SOL    HW156732   4.240   6.524   2.163
84945SOL    HW256733   4.255   6.459   2.027
84946SOL     OW56734  14.009  11.837   3.466
84946SOL    HW156735  14.015  11.806   3.376
84946SOL    HW256736  13.924  11.881   3.471
84947SOL     OW56737   5.752   9.996  12.191
84947SOL    HW156738   5.706  10.077  12.214
84947SOL    HW256739   5.832  10.026  12.148
84948SOL     OW56740  13.109  13.762   5.657
84948SOL    HW156741  13.154  13.727   5.734
84948SOL    HW256742  13.061  13.838   5.690
84949SOL     OW56743   4.001   3.495  12.509
84949SOL    HW156744   3.914   3.533  12.495
84949SOL    HW256745   3.992   3.442  12.589
84950SOL     OW56746   9.429  12.359   2.822
84950SOL    HW156747   9.406  12.271   2.854
84950SOL    HW256748   9.349  12.410   2.836
84951SOL     OW56749   8.975   9.408  14.543
84951SOL    HW156750   9.035   9.454  14.484
84951SOL    HW256751   8.965   9.321  14.504
84952SOL     OW56752   9.963  11.623  12.710
84952SOL    HW156753  10.051  11.645  12.742
84952SOL    HW256754   9.907  11.628  12.787
84953SOL     OW56755  11.813   5.700  10.297
84953SOL    HW156756  11.845   5.610  10.289
84953SOL    HW256757  11.865   5.737  10.368
84954SOL     OW56758   0.658   8.338  11.083
84954SOL    HW156759   0.678   8.282  11.007
84954SOL    HW256760   0.622   8.278  11.148
84955SOL     OW56761   3.625  10.052  11.690
84955SOL    HW156762   3.698  10.011  11.736
84955SOL    HW256763   3.557   9.985  11.690
84956SOL     OW56764   9.921   6.082   4.611
84956SOL    HW156765   9.945   6.146   4.544
84956SOL    HW256766   9.967   6.002   4.585
84957SOL     OW56767  11.267   8.375   5.502
84957SOL    HW156768  11.294   8.328   5.581
84957SOL    HW256769  11.186   8.332   5.475
84958SOL     OW56770   1.388   6.246   5.942
84958SOL    HW156771   1.297   6.275   5.933
84958SOL    HW256772   1.389   6.158   5.905
84959SOL     OW56773  11.927   9.489   9.937
84959SOL    HW156774  11.927   9.394   9.950
84959SOL    HW256775  11.938   9.525  10.025
84960SOL     OW56776  11.134  12.538   5.694
84960SOL    HW156777  11.165  12.448   5.703
84960SOL    HW256778  11.151  12.578   5.779
84961SOL     OW56779  11.061   5.227  10.162
84961SOL    HW156780  11.028   5.179  10.238
84961SOL    HW256781  11.035   5.174  10.087
84962SOL     OW56782   3.687   1.673  10.636
84962SOL    HW156783   3.637   1.596  10.664
84962SOL    HW256784   3.722   1.648  10.550
84963SOL     OW56785   9.204   1.631   1.172
84963SOL    HW156786   9.119   1.600   1.202
84963SOL    HW256787   9.212   1.719   1.209
84964SOL     OW56788   5.225   4.841   0.292
84964SOL    HW156789   5.300   4.879   0.248
84964SOL    HW256790   5.191   4.775   0.231
84965SOL     OW56791  10.185  13.459   9.630
84965SOL    HW156792  10.196  13.553   9.614
84965SOL    HW256793  10.094  13.450   9.658
84966SOL     OW56794   9.377   3.814  11.740
84966SOL    HW156795   9.379   3.890  11.681
84966SOL    HW256796   9.289   3.779  11.731
84967SOL     OW56797   8.303  14.792   9.174
84967SOL    HW156798   8.255  14.822   9.096
84967SOL    HW256799   8.365  14.728   9.140
84968SOL     OW56800   9.836   4.803   9.449
84968SOL    HW156801   9.845   4.798   9.354
84968SOL    HW256802   9.752   4.760   9.467
84969SOL     OW56803  13.114   8.984   9.876
84969SOL    HW156804  13.077   9.072   9.892
84969SOL    HW256805  13.119   8.977   9.781
84970SOL     OW56806  13.884   0.348   2.995
84970SOL    HW156807  13.804   0.305   2.965
84970SOL    HW256808  13.864   0.380   3.082
84971SOL     OW56809   8.288   3.925  14.195
84971SOL    HW156810   8.327   4.010  14.215
84971SOL    HW256811   8.209   3.947  14.145
84972SOL     OW56812   1.760   3.746   7.853
84972SOL    HW156813   1.754   3.720   7.761
84972SOL    HW256814   1.839   3.801   7.858
84973SOL     OW56815   3.101  11.856   6.030
84973SOL    HW156816   3.162  11.825   5.964
84973SOL    HW256817   3.083  11.947   6.006
84974SOL     OW56818   1.705  10.055  14.577
84974SOL    HW156819   1.792  10.032  14.609
84974SOL    HW256820   1.654  10.073  14.656
84975SOL     OW56821   5.303   7.359   5.179
84975SOL    HW156822   5.389   7.349   5.219
84975SOL    HW256823   5.315   7.430   5.115
84976SOL     OW56824   6.710  11.637   3.539
84976SOL    HW156825   6.649  11.578   3.495
84976SOL    HW256826   6.718  11.602   3.628
84977SOL     OW56827   0.717   8.442   3.060
84977SOL    HW156828   0.799   8.422   3.105
84977SOL    HW256829   0.668   8.359   3.060
84978SOL     OW56830  11.983   3.586   6.107
84978SOL    HW156831  11.919   3.563   6.174
84978SOL    HW256832  11.987   3.681   6.109
84979SOL     OW56833   1.581   7.964  13.576
84979SOL    HW156834   1.580   7.895  13.509
84979SOL    HW256835   1.510   8.023  13.550
84980SOL     OW56836   9.531   8.264  10.760
84980SOL    HW156837   9.508   8.200  10.827
84980SOL    HW256838   9.458   8.261  10.698
84981SOL     OW56839   1.295   6.593   4.165
84981SOL    HW156840   1.357   6.533   4.206
84981SOL    HW256841   1.300   6.571   4.072
84982SOL     OW56842   9.052  13.307  10.012
84982SOL    HW156843   9.089  13.235   9.961
84982SOL    HW256844   8.983  13.265  10.064
84983SOL     OW56845   4.434   5.248   5.691
84983SOL    HW156846   4.459   5.341   5.700
84983SOL    HW256847   4.340   5.247   5.707
84984SOL     OW56848  11.240   8.100  10.218
84984SOL    HW156849  11.333   8.105  10.239
84984SOL    HW256850  11.229   8.153  10.140
84985SOL     OW56851   6.073   1.746   7.901
84985SOL    HW156852   6.077   1.748   7.996
84985SOL    HW256853   6.144   1.804   7.873
84986SOL     OW56854   1.524  11.039   3.751
84986SOL    HW156855   1.600  10.989   3.782
84986SOL    HW256856   1.448  10.991   3.784
84987SOL     OW56857   1.193   0.142   2.272
84987SOL    HW156858   1.245   0.072   2.232
84987SOL    HW256859   1.146   0.181   2.199
84988SOL     OW56860  10.561  13.133   1.674
84988SOL    HW156861  10.555  13.173   1.587
84988SOL    HW256862  10.599  13.047   1.659
84989SOL     OW56863   6.218   9.771   0.008
84989SOL    HW156864   6.243   9.702   0.071
84989SOL    HW256865   6.268   9.751  14.797
84990SOL     OW56866   9.344  14.345  10.514
84990SOL    HW156867   9.415  14.382  10.567
84990SOL    HW256868   9.386  14.278  10.461
84991SOL     OW56869  10.953   1.029   4.549
84991SOL    HW156870  10.867   1.055   4.515
84991SOL    HW256871  11.009   1.104   4.530
84992SOL     OW56872   6.505  10.218   6.337
84992SOL    HW156873   6.528  10.189   6.249
84992SOL    HW256874   6.474  10.307   6.326
84993SOL     OW56875   5.989   8.783   2.026
84993SOL    HW156876   6.006   8.701   1.981
84993SOL    HW256877   5.948   8.839   1.960
84994SOL     OW56878  10.268   5.950   5.524
84994SOL    HW156879  10.194   5.946   5.584
84994SOL    HW256880  10.342   5.978   5.578
84995SOL     OW56881  13.947  14.481   5.226
84995SOL    HW156882  13.933  14.518   5.138
84995SOL    HW256883  13.873  14.422   5.238
84996SOL     OW56884   2.521   6.245   7.158
84996SOL    HW156885   2.445   6.187   7.152
84996SOL    HW256886   2.575   6.207   7.227
84997SOL     OW56887   3.389   9.837   2.203
84997SOL    HW156888   3.467   9.841   2.258
84997SOL    HW256889   3.317   9.824   2.264
84998SOL     OW56890  14.224   6.548   8.309
84998SOL    HW156891  14.210   6.548   8.403
84998SOL    HW256892  14.307   6.501   8.297
84999SOL     OW56893  13.489  12.729  13.268
84999SOL    HW156894  13.576  12.762  13.287
84999SOL    HW256895  13.459  12.783  13.195
85000SOL     OW56896   8.613   8.176  12.077
85000SOL    HW156897   8.610   8.269  12.054
85000SOL    HW256898   8.522   8.147  12.069
85001SOL     OW56899   4.182   0.959  14.382
85001SOL    HW156900   4.223   0.957  14.468
85001SOL    HW256901   4.153   0.869  14.367
85002SOL     OW56902  10.833  12.599  12.950
85002SOL    HW156903  10.756  12.646  12.918
85002SOL    HW256904  10.812  12.577  13.040
85003SOL     OW56905  11.262   8.292   6.259
85003SOL    HW156906  11.276   8.377   6.303
85003SOL    HW256907  11.204   8.245   6.317
85004SOL     OW56908  12.680   0.543  11.053
85004SOL    HW156909  12.762   0.497  11.034
85004SOL    HW256910  12.633   0.545  10.970
85005SOL     OW56911  11.153   8.259  13.303
85005SOL    HW156912  11.231   8.297  13.261
85005SOL    HW256913  11.188   8.187  13.356
85006SOL     OW56914  10.402  12.041   6.857
85006SOL    HW156915  10.416  12.085   6.773
85006SOL    HW256916  10.484  11.995   6.873
85007SOL     OW56917   5.193  12.262   3.266
85007SOL    HW156918   5.180  12.201   3.338
85007SOL    HW256919   5.283  12.247   3.238
85008SOL     OW56920   8.954   2.179   0.546
85008SOL    HW156921   8.969   2.273   0.554
85008SOL    HW256922   8.864   2.166   0.576
85009SOL     OW56923   9.727   6.354  11.935
85009SOL    HW156924   9.694   6.322  11.851
85009SOL    HW256925   9.822   6.340  11.930
85010SOL     OW56926   1.997  11.912   1.038
85010SOL    HW156927   1.960  11.991   1.078
85010SOL    HW256928   2.014  11.938   0.947
85011SOL     OW56929   5.102  14.512  11.208
85011SOL    HW156930   5.032  14.571  11.236
85011SOL    HW256931   5.075  14.426  11.239
85012SOL     OW56932   8.673  10.614   9.297
85012SOL    HW156933   8.636  10.581   9.379
85012SOL    HW256934   8.669  10.540   9.236
85013SOL     OW56935   0.259  13.444  12.708
85013SOL    HW156936   0.273  13.363  12.657
85013SOL    HW256937   0.345  13.486  12.709
85014SOL     OW56938   2.174   0.221   8.123
85014SOL    HW156939   2.204   0.133   8.100
85014SOL    HW256940   2.239   0.280   8.084
85015SOL     OW56941   1.320   7.679   2.994
85015SOL    HW156942   1.372   7.729   3.057
85015SOL    HW256943   1.260   7.744   2.956
85016SOL     OW56944  12.216   1.741   3.715
85016SOL    HW156945  12.126   1.709   3.723
85016SOL    HW256946  12.207   1.836   3.707
85017SOL     OW56947   7.636  14.272   3.132
85017SOL    HW156948   7.696  14.329   3.180
85017SOL    HW256949   7.659  14.184   3.160
85018SOL     OW56950   1.242   9.528  12.290
85018SOL    HW156951   1.213   9.487  12.372
85018SOL    HW256952   1.307   9.467  12.255
85019SOL     OW56953   1.394  11.339   8.888
85019SOL    HW156954   1.423  11.279   8.819
85019SOL    HW256955   1.397  11.425   8.848
85020SOL     OW56956  12.998   5.115  12.184
85020SOL    HW156957  12.955   5.149  12.106
85020SOL    HW256958  13.090   5.136  12.171
85021SOL     OW56959  13.051  11.313  12.141
85021SOL    HW156960  12.990  11.284  12.209
85021SOL    HW256961  12.995  11.351  12.073
85022SOL     OW56962   6.878   4.598  14.294
85022SOL    HW156963   6.867   4.568  14.385
85022SOL    HW256964   6.823   4.675  14.288
85023SOL     OW56965   6.103   7.027   6.090
85023SOL    HW156966   6.048   6.962   6.134
85023SOL    HW256967   6.192   7.005   6.116
85024SOL     OW56968   6.395   4.671  13.188
85024SOL    HW156969   6.331   4.610  13.226
85024SOL    HW256970   6.419   4.632  13.105
85025SOL     OW56971   6.208  12.848   7.917
85025SOL    HW156972   6.236  12.760   7.890
85025SOL    HW256973   6.228  12.851   8.011
85026SOL     OW56974   7.528   6.200   7.800
85026SOL    HW156975   7.511   6.116   7.758
85026SOL    HW256976   7.544   6.261   7.727
85027SOL     OW56977   1.880  14.173   8.195
85027SOL    HW156978   1.789  14.148   8.180
85027SOL    HW256979   1.909  14.118   8.267
85028SOL     OW56980   4.928   1.928   2.614
85028SOL    HW156981   4.988   1.995   2.645
85028SOL    HW256982   4.844   1.973   2.605
85029SOL     OW56983  10.744  11.511   2.966
85029SOL    HW156984  10.706  11.449   2.904
85029SOL    HW256985  10.768  11.586   2.912
85030SOL     OW56986   2.583   4.666   5.633
85030SOL    HW156987   2.539   4.687   5.716
85030SOL    HW256988   2.672   4.643   5.658
85031SOL     OW56989   7.494  12.801   2.784
85031SOL    HW156990   7.463  12.711   2.796
85031SOL    HW256991   7.422  12.846   2.740
85032SOL     OW56992  14.661   6.143  11.377
85032SOL    HW156993  14.677   6.237  11.365
85032SOL    HW256994  14.606   6.119  11.303
85033SOL     OW56995   4.554   9.134  14.789
85033SOL    HW156996   4.505   9.144   0.002
85033SOL    HW256997   4.645   9.145  14.815
85034SOL     OW56998   0.826   0.088   8.272
85034SOL    HW156999   0.745   0.078   8.223
85034SOL    HW257000   0.828   0.014   8.332
85035SOL     OW57001   9.817   3.653  12.812
85035SOL    HW157002   9.757   3.601  12.759
85035SOL    HW257003   9.761   3.707  12.868
85036SOL     OW57004  14.172  13.101   9.811
85036SOL    HW157005  14.145  13.190   9.788
85036SOL    HW257006  14.250  13.085   9.759
85037SOL     OW57007   1.870   0.402   2.065
85037SOL    HW157008   1.868   0.417   2.160
85037SOL    HW257009   1.856   0.489   2.027
85038SOL     OW57010   0.567   2.664  10.479
85038SOL    HW157011   0.502   2.683  10.547
85038SOL    HW257012   0.648   2.702  10.511
85039SOL     OW57013   4.654   7.931  10.737
85039SOL    HW157014   4.716   7.944  10.665
85039SOL    HW257015   4.649   7.836  10.747
85040SOL     OW57016  14.039  12.481  11.241
85040SOL    HW157017  14.056  12.420  11.313
85040SOL    HW257018  14.045  12.567  11.281
85041SOL     OW57019  14.817   5.022   8.691
85041SOL    HW157020   0.036   4.982   8.699
85041SOL    HW257021  14.835   5.114   8.672
85042SOL     OW57022   1.120  10.535  14.044
85042SOL    HW157023   1.109  10.582  13.961
85042SOL    HW257024   1.123  10.442  14.019
85043SOL     OW57025  10.717   9.213   3.262
85043SOL    HW157026  10.781   9.177   3.324
85043SOL    HW257027  10.690   9.138   3.210
85044SOL     OW57028  14.053   6.407   6.409
85044SOL    HW157029  13.961   6.392   6.388
85044SOL    HW257030  14.101   6.346   6.353
85045SOL     OW57031  12.325   6.504   8.866
85045SOL    HW157032  12.402   6.537   8.820
85045SOL    HW257033  12.303   6.573   8.929
85046SOL     OW57034   5.531   8.549   1.529
85046SOL    HW157035   5.616   8.547   1.486
85046SOL    HW257036   5.513   8.458   1.552
85047SOL     OW57037  11.938  11.143   9.243
85047SOL    HW157038  11.846  11.129   9.221
85047SOL    HW257039  11.984  11.140   9.160
85048SOL     OW57040   3.497   6.045  13.887
85048SOL    HW157041   3.407   6.018  13.903
85048SOL    HW257042   3.550   5.972  13.919
85049SOL     OW57043  10.167   3.328  14.022
85049SOL    HW157044  10.253   3.293  14.044
85049SOL    HW257045  10.119   3.252  13.988
85050SOL     OW57046   2.769   1.702   0.167
85050SOL    HW157047   2.682   1.704   0.207
85050SOL    HW257048   2.778   1.787   0.124
85051SOL     OW57049  13.725  13.290   0.556
85051SOL    HW157050  13.646  13.245   0.529
85051SOL    HW257051  13.796  13.239   0.518
85052SOL     OW57052   9.705   6.224   3.159
85052SOL    HW157053   9.733   6.210   3.069
85052SOL    HW257054   9.773   6.279   3.197
85053SOL     OW57055   2.783   1.901   4.959
85053SOL    HW157056   2.726   1.932   5.030
85053SOL    HW257057   2.859   1.960   4.961
85054SOL     OW57058   9.708   4.319   6.988
85054SOL    HW157059   9.733   4.227   6.984
85054SOL    HW257060   9.723   4.344   7.079
85055SOL     OW57061  10.949  13.637   5.359
85055SOL    HW157062  10.876  13.579   5.383
85055SOL    HW257063  10.907  13.718   5.330
85056SOL     OW57064   9.555   4.966   5.114
85056SOL    HW157065   9.510   5.032   5.167
85056SOL    HW257066   9.496   4.950   5.040
85057SOL     OW57067  12.126   6.737   4.281
85057SOL    HW157068  12.071   6.814   4.294
85057SOL    HW257069  12.214   6.772   4.268
85058SOL     OW57070   1.938   9.321   8.672
85058SOL    HW157071   1.843   9.319   8.680
85058SOL    HW257072   1.955   9.309   8.578
85059SOL     OW57073   8.866   0.336   9.947
85059SOL    HW157074   8.838   0.307  10.034
85059SOL    HW257075   8.800   0.301   9.887
85060SOL     OW57076   3.399   6.085   7.620
85060SOL    HW157077   3.405   6.152   7.552
85060SOL    HW257078   3.421   6.003   7.575
85061SOL     OW57079   7.335   4.856  10.274
85061SOL    HW157080   7.365   4.872  10.363
85061SOL    HW257081   7.239   4.854  10.281
85062SOL     OW57082  12.329   8.591  14.480
85062SOL    HW157083  12.308   8.636  14.562
85062SOL    HW257084  12.297   8.501  14.494
85063SOL     OW57085   6.340   0.837   1.999
85063SOL    HW157086   6.333   0.889   1.919
85063SOL    HW257087   6.400   0.765   1.976
85064SOL     OW57088  10.314  10.917   6.060
85064SOL    HW157089  10.341  11.003   6.030
85064SOL    HW257090  10.247  10.934   6.126
85065SOL     OW57091   0.845  13.268   1.391
85065SOL    HW157092   0.932  13.301   1.369
85065SOL    HW257093   0.858  13.174   1.405
85066SOL     OW57094   7.244   6.406   3.385
85066SOL    HW157095   7.153   6.430   3.369
85066SOL    HW257096   7.275   6.373   3.301
85067SOL     OW57097   6.564  11.253   0.326
85067SOL    HW157098   6.584  11.279   0.416
85067SOL    HW257099   6.477  11.291   0.309
85068SOL     OW57100   1.292   9.955   1.309
85068SOL    HW157101   1.302   9.901   1.230
85068SOL    HW257102   1.198   9.948   1.330
85069SOL     OW57103   0.990   4.888   3.953
85069SOL    HW157104   0.999   4.878   3.859
85069SOL    HW257105   1.080   4.893   3.986
85070SOL     OW57106  10.772   0.803  14.034
85070SOL    HW157107  10.847   0.774  13.982
85070SOL    HW257108  10.807   0.870  14.092
85071SOL     OW57109   0.328  11.444   7.285
85071SOL    HW157110   0.235  11.450   7.306
85071SOL    HW257111   0.371  11.431   7.369
85072SOL     OW57112   1.888   0.562   9.925
85072SOL    HW157113   1.936   0.535  10.004
85072SOL    HW257114   1.913   0.498   9.859
85073SOL     OW57115  11.872   8.229   0.214
85073SOL    HW157116  11.780   8.254   0.221
85073SOL    HW257117  11.875   8.170   0.139
85074SOL     OW57118  12.535   1.340   9.483
85074SOL    HW157119  12.509   1.248   9.485
85074SOL    HW257120  12.456   1.388   9.509
85075SOL     OW57121   1.475  11.924   6.541
85075SOL    HW157122   1.420  11.879   6.606
85075SOL    HW257123   1.504  12.004   6.586
85076SOL     OW57124   6.416   0.875   8.462
85076SOL    HW157125   6.398   0.929   8.540
85076SOL    HW257126   6.494   0.825   8.486
85077SOL     OW57127  11.216   1.265  12.138
85077SOL    HW157128  11.176   1.183  12.166
85077SOL    HW257129  11.310   1.252  12.150
85078SOL     OW57130  12.694   5.513   8.562
85078SOL    HW157131  12.632   5.458   8.515
85078SOL    HW257132  12.642   5.555   8.631
85079SOL     OW57133  11.870   3.815   6.499
85079SOL    HW157134  11.914   3.735   6.526
85079SOL    HW257135  11.779   3.803   6.525
85080SOL     OW57136   4.944   1.552  14.567
85080SOL    HW157137   4.870   1.560  14.628
85080SOL    HW257138   4.955   1.640  14.531
85081SOL     OW57139   3.764   9.874  12.429
85081SOL    HW157140   3.705   9.807  12.465
85081SOL    HW257141   3.844   9.865  12.481
85082SOL     OW57142   6.663   2.010   3.336
85082SOL    HW157143   6.649   2.068   3.261
85082SOL    HW257144   6.591   2.031   3.396
85083SOL     OW57145  12.641   7.674   1.439
85083SOL    HW157146  12.675   7.756   1.403
85083SOL    HW257147  12.571   7.701   1.498
85084SOL     OW57148   3.701  13.058   3.815
85084SOL    HW157149   3.670  13.004   3.888
85084SOL    HW257150   3.634  13.126   3.805
85085SOL     OW57151  11.225   7.932   8.029
85085SOL    HW157152  11.199   7.846   7.996
85085SOL    HW257153  11.319   7.924   8.045
85086SOL     OW57154   3.909   7.512   5.555
85086SOL    HW157155   3.905   7.547   5.466
85086SOL    HW257156   3.996   7.538   5.587
85087SOL     OW57157   0.923   1.924  13.183
85087SOL    HW157158   0.992   1.977  13.223
85087SOL    HW257159   0.969   1.870  13.118
85088SOL     OW57160   2.388   6.699   6.800
85088SOL    HW157161   2.442   6.771   6.832
85088SOL    HW257162   2.408   6.625   6.858
85089SOL     OW57163  12.462  12.437  13.006
85089SOL    HW157164  12.433  12.350  13.030
85089SOL    HW257165  12.436  12.447  12.914
85090SOL     OW57166  11.688   9.410   5.315
85090SOL    HW157167  11.752   9.340   5.328
85090SOL    HW257168  11.635   9.409   5.395
85091SOL     OW57169   1.985  12.064  12.327
85091SOL    HW157170   1.982  11.979  12.284
85091SOL    HW257171   2.034  12.049  12.408
85092SOL     OW57172  11.807   3.841   4.210
85092SOL    HW157173  11.770   3.929   4.211
85092SOL    HW257174  11.864   3.839   4.133
85093SOL     OW57175   7.414   4.051   7.922
85093SOL    HW157176   7.387   4.116   7.857
85093SOL    HW257177   7.336   3.999   7.939
85094SOL     OW57178   8.458   0.636   9.071
85094SOL    HW157179   8.429   0.724   9.049
85094SOL    HW257180   8.383   0.580   9.051
85095SOL     OW57181   9.153  14.793  12.492
85095SOL    HW157182   9.157  14.793  12.396
85095SOL    HW257183   9.218  14.858  12.518
85096SOL     OW57184   1.906  13.744   0.659
85096SOL    HW157185   1.833  13.778   0.711
85096SOL    HW257186   1.928  13.660   0.700
85097SOL     OW57187   4.405   7.103   2.041
85097SOL    HW157188   4.424   7.017   2.003
85097SOL    HW257189   4.316   7.095   2.075
85098SOL     OW57190   8.894   4.343   8.209
85098SOL    HW157191   8.976   4.298   8.231
85098SOL    HW257192   8.837   4.328   8.284
85099SOL     OW57193  10.958   5.802   2.380
85099SOL    HW157194  11.026   5.753   2.426
85099SOL    HW257195  11.000   5.886   2.360
85100SOL     OW57196   5.118   1.622   4.473
85100SOL    HW157197   5.080   1.547   4.427
85100SOL    HW257198   5.176   1.663   4.410
85101SOL     OW57199   4.269   0.411  13.921
85101SOL    HW157200   4.188   0.436  13.965
85101SOL    HW257201   4.336   0.467  13.959
85102SOL     OW57202   5.346  11.421   3.323
85102SOL    HW157203   5.278  11.408   3.389
85102SOL    HW257204   5.413  11.356   3.344
85103SOL     OW57205   9.636  13.761   6.799
85103SOL    HW157206   9.551  13.772   6.757
85103SOL    HW257207   9.670  13.679   6.764
85104SOL     OW57208  10.386   3.124  13.313
85104SOL    HW157209  10.371   3.030  13.299
85104SOL    HW257210  10.445   3.149  13.242
85105SOL     OW57211  14.394  11.962   3.487
85105SOL    HW157212  14.356  11.976   3.400
85105SOL    HW257213  14.343  11.889   3.523
85106SOL     OW57214  11.631   7.007  14.024
85106SOL    HW157215  11.598   7.050  14.103
85106SOL    HW257216  11.554   6.997  13.968
85107SOL     OW57217  12.242   3.597  11.269
85107SOL    HW157218  12.196   3.673  11.305
85107SOL    HW257219  12.210   3.589  11.179
85108SOL     OW57220  11.958  10.080   4.043
85108SOL    HW157221  11.886  10.038   4.091
85108SOL    HW257222  11.965  10.030   3.962
85109SOL     OW57223   0.129   1.575   9.664
85109SOL    HW157224   0.195   1.548   9.727
85109SOL    HW257225   0.150   1.526   9.584
85110SOL     OW57226   2.736   2.522  10.612
85110SOL    HW157227   2.826   2.554  10.620
85110SOL    HW257228   2.685   2.600  10.590
85111SOL     OW57229   2.101   9.698   2.848
85111SOL    HW157230   2.076   9.716   2.938
85111SOL    HW257231   2.120   9.784   2.810
85112SOL     OW57232   7.741  13.025   3.642
85112SOL    HW157233   7.682  13.054   3.572
85112SOL    HW257234   7.740  12.929   3.636
85113SOL     OW57235  11.012   3.761   5.822
85113SOL    HW157236  11.058   3.840   5.850
85113SOL    HW257237  10.919   3.783   5.829
85114SOL     OW57238  14.250   7.688  12.656
85114SOL    HW157239  14.168   7.732  12.633
85114SOL    HW257240  14.313   7.718  12.591
85115SOL     OW57241   4.406   6.900   0.462
85115SOL    HW157242   4.322   6.945   0.454
85115SOL    HW257243   4.391   6.833   0.528
85116SOL     OW57244   5.632   1.210   5.655
85116SOL    HW157245   5.612   1.303   5.645
85116SOL    HW257246   5.562   1.176   5.709
85117SOL     OW57247  12.617   1.384   0.527
85117SOL    HW157248  12.651   1.347   0.608
85117SOL    HW257249  12.690   1.435   0.492
85118SOL     OW57250  14.213  11.204  13.510
85118SOL    HW157251  14.249  11.116  13.497
85118SOL    HW257252  14.229  11.222  13.603
85119SOL     OW57253   0.025   0.583  11.822
85119SOL    HW157254   0.069   0.522  11.882
85119SOL    HW257255   0.056   0.557  11.735
85120SOL     OW57256  14.186   3.277   4.742
85120SOL    HW157257  14.210   3.242   4.827
85120SOL    HW257258  14.267   3.313   4.706
85121SOL     OW57259  11.313  12.893  12.274
85121SOL    HW157260  11.221  12.904  12.251
85121SOL    HW257261  11.315  12.892  12.369
85122SOL     OW57262   6.632  12.998   4.155
85122SOL    HW157263   6.693  12.951   4.098
85122SOL    HW257264   6.673  12.996   4.241
85123SOL     OW57265   5.082  10.137   1.594
85123SOL    HW157266   5.070  10.121   1.501
85123SOL    HW257267   5.176  10.151   1.604
85124SOL     OW57268   7.210   6.767   4.017
85124SOL    HW157269   7.128   6.719   4.018
85124SOL    HW257270   7.188   6.853   4.053
85125SOL     OW57271   0.619   6.601   3.035
85125SOL    HW157272   0.663   6.619   3.118
85125SOL    HW257273   0.676   6.538   2.991
85126SOL     OW57274  10.554  10.732   8.066
85126SOL    HW157275  10.494  10.724   7.991
85126SOL    HW257276  10.551  10.825   8.089
85127SOL     OW57277   8.134  14.650   4.439
85127SOL    HW157278   8.156  14.649   4.532
85127SOL    HW257279   8.068  14.582   4.430
85128SOL     OW57280   0.419   0.613   3.813
85128SOL    HW157281   0.472   0.594   3.736
85128SOL    HW257282   0.447   0.550   3.879
85129SOL     OW57283   4.181  11.425  10.986
85129SOL    HW157284   4.097  11.379  10.990
85129SOL    HW257285   4.196  11.455  11.076
85130SOL     OW57286   1.061   8.189   7.397
85130SOL    HW157287   1.010   8.262   7.434
85130SOL    HW257288   1.149   8.201   7.433
85131SOL     OW57289   5.714   4.002  12.272
85131SOL    HW157290   5.661   4.030  12.197
85131SOL    HW257291   5.678   4.050  12.346
85132SOL     OW57292  13.349   0.406   5.078
85132SOL    HW157293  13.435   0.445   5.063
85132SOL    HW257294  13.366   0.332   5.136
85133SOL     OW57295   7.004  11.482   2.558
85133SOL    HW157296   7.063  11.477   2.483
85133SOL    HW257297   6.939  11.547   2.532
85134SOL     OW57298  10.164  11.645   6.764
85134SOL    HW157299  10.144  11.739   6.757
85134SOL    HW257300  10.228  11.640   6.835
85135SOL     OW57301   6.492   5.451   7.060
85135SOL    HW157302   6.464   5.451   6.969
85135SOL    HW257303   6.526   5.363   7.075
85136SOL     OW57304   8.243   0.310   6.479
85136SOL    HW157305   8.195   0.387   6.508
85136SOL    HW257306   8.331   0.321   6.514
85137SOL     OW57307   0.234  13.532   1.437
85137SOL    HW157308   0.182  13.583   1.374
85137SOL    HW257309   0.262  13.455   1.387
85138SOL     OW57310  13.650   6.061  12.921
85138SOL    HW157311  13.569   6.095  12.884
85138SOL    HW257312  13.719   6.111  12.877
85139SOL     OW57313  13.545   1.003   7.514
85139SOL    HW157314  13.558   1.097   7.526
85139SOL    HW257315  13.483   0.996   7.442
85140SOL     OW57316   0.006   9.952   9.328
85140SOL    HW157317  14.863   9.897   9.406
85140SOL    HW257318   0.029   9.890   9.258
85141SOL     OW57319   0.331  12.974   6.041
85141SOL    HW157320   0.409  12.990   5.987
85141SOL    HW257321   0.259  12.971   5.978
85142SOL     OW57322   4.409   9.199   0.139
85142SOL    HW157323   4.446   9.155   0.216
85142SOL    HW257324   4.318   9.171   0.137
85143SOL     OW57325  14.800  12.545   3.495
85143SOL    HW157326  14.710  12.572   3.481
85143SOL    HW257327  14.847  12.578   3.419
85144SOL     OW57328   1.570  13.109   5.196
85144SOL    HW157329   1.571  13.036   5.258
85144SOL    HW257330   1.510  13.081   5.127
85145SOL     OW57331  13.814   8.684  12.742
85145SOL    HW157332  13.835   8.674  12.649
85145SOL    HW257333  13.720   8.700  12.744
85146SOL     OW57334   9.849   8.693  11.523
85146SOL    HW157335   9.782   8.627  11.506
85146SOL    HW257336   9.802   8.776  11.518
85147SOL     OW57337   9.987   0.424  10.481
85147SOL    HW157338  10.037   0.359  10.432
85147SOL    HW257339   9.997   0.505  10.431
85148SOL     OW57340   1.007  12.319   3.409
85148SOL    HW157341   1.041  12.324   3.498
85148SOL    HW257342   1.081  12.346   3.354
85149SOL     OW57343   0.811   9.748   3.750
85149SOL    HW157344   0.777   9.698   3.825
85149SOL    HW257345   0.756   9.722   3.677
85150SOL     OW57346  11.799  13.822   8.789
85150SOL    HW157347  11.728  13.808   8.726
85150SOL    HW257348  11.793  13.748   8.849
85151SOL     OW57349  13.935   1.713   1.091
85151SOL    HW157350  13.884   1.789   1.122
85151SOL    HW257351  13.918   1.645   1.156
85152SOL     OW57352   2.698   3.758   5.641
85152SOL    HW157353   2.745   3.755   5.725
85152SOL    HW257354   2.620   3.705   5.655
85153SOL     OW57355   5.025   0.885   7.897
85153SOL    HW157356   4.950   0.898   7.954
85153SOL    HW257357   5.101   0.894   7.954
85154SOL     OW57358   8.100   0.329  10.942
85154SOL    HW157359   8.069   0.347  11.031
85154SOL    HW257360   8.053   0.391  10.887
85155SOL     OW57361   6.925   0.697   7.356
85155SOL    HW157362   6.949   0.760   7.287
85155SOL    HW257363   6.968   0.730   7.435
85156SOL     OW57364  10.585   5.414  11.307
85156SOL    HW157365  10.526   5.381  11.375
85156SOL    HW257366  10.643   5.475  11.353
85157SOL     OW57367   7.419   7.070   2.844
85157SOL    HW157368   7.420   7.002   2.911
85157SOL    HW257369   7.488   7.130   2.869
85158SOL     OW57370   6.115   3.587   0.173
85158SOL    HW157371   6.028   3.610   0.140
85158SOL    HW257372   6.135   3.504   0.130
85159SOL     OW57373   1.495   5.951   8.952
85159SOL    HW157374   1.456   5.980   8.869
85159SOL    HW257375   1.514   5.859   8.938
85160SOL     OW57376   6.328   6.077   5.813
85160SOL    HW157377   6.249   6.058   5.864
85160SOL    HW257378   6.343   6.170   5.826
85161SOL     OW57379   1.577   6.598   3.113
85161SOL    HW157380   1.552   6.519   3.162
85161SOL    HW257381   1.670   6.585   3.094
85162SOL     OW57382   1.406  12.132   5.160
85162SOL    HW157383   1.475  12.072   5.132
85162SOL    HW257384   1.354  12.148   5.082
85163SOL     OW57385   7.326   0.556  14.659
85163SOL    HW157386   7.253   0.542  14.719
85163SOL    HW257387   7.400   0.575  14.716
85164SOL     OW57388   0.630   8.110   9.931
85164SOL    HW157389   0.563   8.088   9.995
85164SOL    HW257390   0.680   8.181   9.971
85165SOL     OW57391  12.908   5.353   3.934
85165SOL    HW157392  12.835   5.338   3.995
85165SOL    HW257393  12.980   5.382   3.991
85166SOL     OW57394  14.712   0.750   1.566
85166SOL    HW157395  14.700   0.770   1.473
85166SOL    HW257396  14.751   0.830   1.603
85167SOL     OW57397  10.991   8.998   4.485
85167SOL    HW157398  11.071   8.948   4.471
85167SOL    HW257399  11.020   9.089   4.493
85168SOL     OW57400   4.635   7.882   1.404
85168SOL    HW157401   4.626   7.849   1.494
85168SOL    HW257402   4.590   7.817   1.350
85169SOL     OW57403   8.752   4.483  11.440
85169SOL    HW157404   8.794   4.402  11.469
85169SOL    HW257405   8.721   4.464  11.352
85170SOL     OW57406   9.325  11.947  12.239
85170SOL    HW157407   9.364  12.026  12.277
85170SOL    HW257408   9.247  11.931  12.292
85171SOL     OW57409   6.405   2.920   3.190
85171SOL    HW157410   6.426   2.836   3.231
85171SOL    HW257411   6.354   2.897   3.113
85172SOL     OW57412   8.196   8.609   8.536
85172SOL    HW157413   8.267   8.571   8.485
85172SOL    HW257414   8.146   8.533   8.568
85173SOL     OW57415   9.211  10.550   3.737
85173SOL    HW157416   9.266  10.513   3.669
85173SOL    HW257417   9.132  10.579   3.692
85174SOL     OW57418   6.221  13.222   5.733
85174SOL    HW157419   6.199  13.167   5.658
85174SOL    HW257420   6.283  13.171   5.784
85175SOL     OW57421   7.490   0.455  14.130
85175SOL    HW157422   7.499   0.360  14.117
85175SOL    HW257423   7.410   0.478  14.083
85176SOL     OW57424   9.394  10.027   1.548
85176SOL    HW157425   9.445   9.953   1.582
85176SOL    HW257426   9.395  10.091   1.619
85177SOL     OW57427  12.020   5.725  14.459
85177SOL    HW157428  12.099   5.717  14.513
85177SOL    HW257429  11.999   5.636  14.433
85178SOL     OW57430   1.554  11.905  11.816
85178SOL    HW157431   1.460  11.894  11.801
85178SOL    HW257432   1.564  11.901  11.911
85179SOL     OW57433   6.697   9.847   6.855
85179SOL    HW157434   6.622   9.897   6.824
85179SOL    HW257435   6.661   9.762   6.881
85180SOL     OW57436   0.941  11.657   5.465
85180SOL    HW157437   1.030  11.691   5.455
85180SOL    HW257438   0.894  11.692   5.389
85181SOL     OW57439   3.570   8.064   5.733
85181SOL    HW157440   3.493   8.117   5.754
85181SOL    HW257441   3.622   8.063   5.813
85182SOL     OW57442  12.837   6.616   4.555
85182SOL    HW157443  12.864   6.582   4.640
85182SOL    HW257444  12.742   6.618   4.558
85183SOL     OW57445  10.920   4.978   1.906
85183SOL    HW157446  10.935   4.923   1.984
85183SOL    HW257447  10.848   4.935   1.860
85184SOL     OW57448   6.836   3.296   2.281
85184SOL    HW157449   6.844   3.360   2.211
85184SOL    HW257450   6.910   3.313   2.339
85185SOL     OW57451   5.106  10.465  12.528
85185SOL    HW157452   5.042  10.394  12.536
85185SOL    HW257453   5.164  10.437  12.457
85186SOL     OW57454   5.072   4.147   6.804
85186SOL    HW157455   5.106   4.154   6.892
85186SOL    HW257456   5.004   4.214   6.799
85187SOL     OW57457   7.017  12.122  14.345
85187SOL    HW157458   6.928  12.158  14.346
85187SOL    HW257459   7.073  12.199  14.344
85188SOL     OW57460   4.489   3.970  13.091
85188SOL    HW157461   4.525   4.057  13.077
85188SOL    HW257462   4.497   3.955  13.186
85189SOL     OW57463   6.106  12.773  12.649
85189SOL    HW157464   6.065  12.855  12.678
85189SOL    HW257465   6.192  12.799  12.615
85190SOL     OW57466   3.500   5.708   8.606
85190SOL    HW157467   3.530   5.697   8.696
85190SOL    HW257468   3.410   5.739   8.615
85191SOL     OW57469  14.206   2.254   1.509
85191SOL    HW157470  14.170   2.196   1.577
85191SOL    HW257471  14.130   2.284   1.460
85192SOL     OW57472   9.182  11.758   6.330
85192SOL    HW157473   9.252  11.733   6.269
85192SOL    HW257474   9.216  11.837   6.373
85193SOL     OW57475   4.465   5.273   7.064
85193SOL    HW157476   4.419   5.258   7.146
85193SOL    HW257477   4.554   5.241   7.079
85194SOL     OW57478   0.913   9.003   7.793
85194SOL    HW157479   0.985   8.958   7.838
85194SOL    HW257480   0.904   8.956   7.711
85195SOL     OW57481   3.951   9.122   1.234
85195SOL    HW157482   3.919   9.206   1.267
85195SOL    HW257483   4.045   9.125   1.249
85196SOL     OW57484   5.176   7.611   7.376
85196SOL    HW157485   5.178   7.585   7.284
85196SOL    HW257486   5.263   7.588   7.410
85197SOL     OW57487   5.117   6.083   8.844
85197SOL    HW157488   5.063   6.119   8.915
85197SOL    HW257489   5.073   6.112   8.764
85198SOL     OW57490   3.066   5.972  12.540
85198SOL    HW157491   3.122   5.914  12.488
85198SOL    HW257492   3.021   5.913  12.601
85199SOL     OW57493  12.475   2.157   7.874
85199SOL    HW157494  12.528   2.101   7.929
85199SOL    HW257495  12.446   2.228   7.931
85200SOL     OW57496   3.065  12.207  13.705
85200SOL    HW157497   3.073  12.206  13.610
85200SOL    HW257498   3.122  12.279  13.733
85201SOL     OW57499   1.541   4.457  11.068
85201SOL    HW157500   1.628   4.496  11.067
85201SOL    HW257501   1.489   4.516  11.123
85202SOL     OW57502   3.595   2.424  10.360
85202SOL    HW157503   3.542   2.415  10.438
85202SOL    HW257504   3.536   2.402  10.288
85203SOL     OW57505  13.388   5.315  14.585
85203SOL    HW157506  13.310   5.355  14.623
85203SOL    HW257507  13.354   5.248  14.525
85204SOL     OW57508   1.983   2.850   2.992
85204SOL    HW157509   1.922   2.777   2.996
85204SOL    HW257510   1.969   2.898   3.074
85205SOL     OW57511  14.684   4.854   7.599
85205SOL    HW157512  14.656   4.815   7.516
85205SOL    HW257513  14.679   4.949   7.584
85206SOL     OW57514   5.107   5.298   5.548
85206SOL    HW157515   5.051   5.282   5.624
85206SOL    HW257516   5.075   5.380   5.512
85207SOL     OW57517  13.067   1.851   0.747
85207SOL    HW157518  13.080   1.885   0.835
85207SOL    HW257519  13.058   1.929   0.692
85208SOL     OW57520   5.091  10.514  13.716
85208SOL    HW157521   5.154  10.455  13.675
85208SOL    HW257522   5.139  10.553  13.789
85209SOL     OW57523   6.800  12.210   5.148
85209SOL    HW157524   6.708  12.187   5.139
85209SOL    HW257525   6.847  12.127   5.139
85210SOL     OW57526  10.104   3.678   1.713
85210SOL    HW157527  10.041   3.609   1.692
85210SOL    HW257528  10.067   3.723   1.789
85211SOL     OW57529  13.602   9.187   0.152
85211SOL    HW157530  13.608   9.233   0.068
85211SOL    HW257531  13.600   9.257   0.218
85212SOL     OW57532   6.025  13.530   1.205
85212SOL    HW157533   6.017  13.498   1.116
85212SOL    HW257534   6.117  13.518   1.228
85213SOL     OW57535   0.333   1.707  12.566
85213SOL    HW157536   0.429   1.711  12.569
85213SOL    HW257537   0.306   1.798  12.582
85214SOL     OW57538  10.920   8.610   8.394
85214SOL    HW157539  10.901   8.690   8.444
85214SOL    HW257540  10.996   8.632   8.341
85215SOL     OW57541   1.074  10.298   9.791
85215SOL    HW157542   1.160  10.311   9.751
85215SOL    HW257543   1.041  10.386   9.807
85216SOL     OW57544  10.654   7.976   5.754
85216SOL    HW157545  10.588   8.013   5.812
85216SOL    HW257546  10.669   7.888   5.788
85217SOL     OW57547   8.289   7.618  14.056
85217SOL    HW157548   8.240   7.694  14.087
85217SOL    HW257549   8.358   7.605  14.122
85218SOL     OW57550   6.282  12.453   1.661
85218SOL    HW157551   6.208  12.488   1.711
85218SOL    HW257552   6.355  12.510   1.683
85219SOL     OW57553   1.773   5.821   1.915
85219SOL    HW157554   1.707   5.789   1.977
85219SOL    HW257555   1.786   5.749   1.854
85220SOL     OW57556   1.762   7.268  13.129
85220SOL    HW157557   1.716   7.184  13.128
85220SOL    HW257558   1.725   7.317  13.056
85221SOL     OW57559  11.963  13.517  11.678
85221SOL    HW157560  12.042  13.519  11.625
85221SOL    HW257561  11.934  13.425  11.675
85222SOL     OW57562  13.769  10.859  11.157
85222SOL    HW157563  13.739  10.854  11.066
85222SOL    HW257564  13.689  10.876  11.207
85223SOL     OW57565   3.042   5.036  12.193
85223SOL    HW157566   3.063   5.128  12.178
85223SOL    HW257567   2.982   5.013  12.122
85224SOL     OW57568  10.275   0.408   8.094
85224SOL    HW157569  10.286   0.498   8.125
85224SOL    HW257570  10.267   0.357   8.175
85225SOL     OW57571   1.973   6.377   9.497
85225SOL    HW157572   1.980   6.299   9.442
85225SOL    HW257573   1.999   6.348   9.584
85226SOL     OW57574   9.996   0.726   1.964
85226SOL    HW157575   9.904   0.716   1.940
85226SOL    HW257576   9.998   0.709   2.058
85227SOL     OW57577  14.199   6.632   3.786
85227SOL    HW157578  14.131   6.657   3.849
85227SOL    HW257579  14.251   6.566   3.832
85228SOL     OW57580  13.706   7.271  10.033
85228SOL    HW157581  13.685   7.360  10.059
85228SOL    HW257582  13.766   7.282   9.958
85229SOL     OW57583   8.565  13.835   2.987
85229SOL    HW157584   8.603  13.761   3.035
85229SOL    HW257585   8.638  13.896   2.975
85230SOL     OW57586  13.646   6.324   2.809
85230SOL    HW157587  13.614   6.240   2.777
85230SOL    HW257588  13.587   6.389   2.770
85231SOL     OW57589   4.088  11.228  10.329
85231SOL    HW157590   4.129  11.218  10.243
85231SOL    HW257591   4.138  11.171  10.386
85232SOL     OW57592   5.421  11.547  14.754
85232SOL    HW157593   5.504  11.559  14.800
85232SOL    HW257594   5.362  11.509  14.819
85233SOL     OW57595  13.678   2.042   2.510
85233SOL    HW157596  13.735   2.119   2.508
85233SOL    HW257597  13.734   1.973   2.545
85234SOL     OW57598  10.928  14.660   9.314
85234SOL    HW157599  10.923  14.593   9.382
85234SOL    HW257600  10.838  14.673   9.286
85235SOL     OW57601   8.279   4.373  12.242
85235SOL    HW157602   8.355   4.372  12.300
85235SOL    HW257603   8.222   4.305  12.277
85236SOL     OW57604   1.834   5.535   2.982
85236SOL    HW157605   1.887   5.571   3.052
85236SOL    HW257606   1.850   5.593   2.907
85237SOL     OW57607   2.770   9.056   1.479
85237SOL    HW157608   2.809   9.098   1.555
85237SOL    HW257609   2.840   9.001   1.443
85238SOL     OW57610  12.260  10.934   9.892
85238SOL    HW157611  12.212  11.004   9.848
85238SOL    HW257612  12.352  10.956   9.880
85239SOL     OW57613   4.679  12.977   9.625
85239SOL    HW157614   4.614  12.907   9.618
85239SOL    HW257615   4.762  12.932   9.633
85240SOL     OW57616  12.378  14.102  13.923
85240SOL    HW157617  12.468  14.130  13.942
85240SOL    HW257618  12.388  14.020  13.875
85241SOL     OW57619   7.168   6.130   1.902
85241SOL    HW157620   7.112   6.206   1.915
85241SOL    HW257621   7.220   6.123   1.982
85242SOL     OW57622  12.965   6.724  14.156
85242SOL    HW157623  12.938   6.651  14.100
85242SOL    HW257624  12.929   6.802  14.113
85243SOL     OW57625   6.240  12.992  14.099
85243SOL    HW157626   6.330  12.957  14.095
85243SOL    HW257627   6.184  12.914  14.091
85244SOL     OW57628  11.415   7.456  12.237
85244SOL    HW157629  11.496   7.461  12.188
85244SOL    HW257630  11.346   7.458  12.171
85245SOL     OW57631   5.533   1.074  13.298
85245SOL    HW157632   5.591   1.150  13.294
85245SOL    HW257633   5.516   1.051  13.206
85246SOL     OW57634   3.912  13.157  13.270
85246SOL    HW157635   3.841  13.215  13.297
85246SOL    HW257636   3.956  13.205  13.200
85247SOL     OW57637   6.258   6.306   3.983
85247SOL    HW157638   6.329   6.270   3.931
85247SOL    HW257639   6.300   6.362   4.048
85248SOL     OW57640  10.108  14.279  13.696
85248SOL    HW157641  10.087  14.338  13.623
85248SOL    HW257642  10.173  14.219  13.660
85249SOL     OW57643  13.076  12.505   1.834
85249SOL    HW157644  13.116  12.585   1.801
85249SOL    HW257645  13.053  12.455   1.756
85250SOL     OW57646   7.421   0.696   0.371
85250SOL    HW157647   7.378   0.744   0.300
85250SOL    HW257648   7.410   0.752   0.448
85251SOL     OW57649  13.003  12.224   8.108
85251SOL    HW157650  12.926  12.277   8.131
85251SOL    HW257651  12.971  12.134   8.107
85252SOL     OW57652   1.689   2.225  13.030
85252SOL    HW157653   1.651   2.304  12.992
85252SOL    HW257654   1.619   2.161  13.028
85253SOL     OW57655  14.046   6.427  11.304
85253SOL    HW157656  13.988   6.355  11.284
85253SOL    HW257657  14.130   6.386  11.323
85254SOL     OW57658   7.506   6.977  14.130
85254SOL    HW157659   7.474   6.909  14.070
85254SOL    HW257660   7.497   6.938  14.217
85255SOL     OW57661   5.960   3.033   1.324
85255SOL    HW157662   5.902   2.971   1.367
85255SOL    HW257663   5.983   2.993   1.241
85256SOL     OW57664   5.324   4.407   6.341
85256SOL    HW157665   5.314   4.394   6.435
85256SOL    HW257666   5.234   4.415   6.309
85257SOL     OW57667   6.566   4.833   2.861
85257SOL    HW157668   6.580   4.837   2.955
85257SOL    HW257669   6.471   4.842   2.850
85258SOL     OW57670  14.661  10.838   8.487
85258SOL    HW157671  14.741  10.785   8.482
85258SOL    HW257672  14.659  10.869   8.577
85259SOL     OW57673   5.814  10.220  14.450
85259SOL    HW157674   5.771  10.232  14.365
85259SOL    HW257675   5.851  10.132  14.446
85260SOL     OW57676   2.431   4.872   2.373
85260SOL    HW157677   2.338   4.870   2.397
85260SOL    HW257678   2.434   4.838   2.284
85261SOL     OW57679   7.350   0.620   5.649
85261SOL    HW157680   7.375   0.660   5.732
85261SOL    HW257681   7.417   0.647   5.587
85262SOL     OW57682   4.303   0.105   2.988
85262SOL    HW157683   4.215   0.120   2.953
85262SOL    HW257684   4.355   0.077   2.913
85263SOL     OW57685   2.537   5.618   0.880
85263SOL    HW157686   2.566   5.683   0.816
85263SOL    HW257687   2.445   5.603   0.860
85264SOL     OW57688   5.661  11.105  14.153
85264SOL    HW157689   5.752  11.127  14.131
85264SOL    HW257690   5.668  11.025  14.206
85265SOL     OW57691   7.361   7.885   0.488
85265SOL    HW157692   7.342   7.903   0.396
85265SOL    HW257693   7.277   7.856   0.525
85266SOL     OW57694   5.570   0.318   8.614
85266SOL    HW157695   5.614   0.336   8.532
85266SOL    HW257696   5.548   0.225   8.611
85267SOL     OW57697   3.717   9.605   2.072
85267SOL    HW157698   3.770   9.677   2.107
85267SOL    HW257699   3.639   9.648   2.036
85268SOL     OW57700   9.221  14.349   6.742
85268SOL    HW157701   9.221  14.266   6.694
85268SOL    HW257702   9.148  14.342   6.803
85269SOL     OW57703   0.814   9.747   4.127
85269SOL    HW157704   0.779   9.826   4.085
85269SOL    HW257705   0.863   9.780   4.202
85270SOL     OW57706   3.495   3.461  10.363
85270SOL    HW157707   3.529   3.544  10.396
85270SOL    HW257708   3.480   3.477  10.270
85271SOL     OW57709  10.519   4.955  12.053
85271SOL    HW157710  10.536   5.044  12.023
85271SOL    HW257711  10.599   4.929  12.099
85272SOL     OW57712  12.491   7.187   4.226
85272SOL    HW157713  12.526   7.139   4.301
85272SOL    HW257714  12.525   7.139   4.150
85273SOL     OW57715  10.930   2.554   6.081
85273SOL    HW157716  10.906   2.600   6.000
85273SOL    HW257717  10.846   2.537   6.124
85274SOL     OW57718   1.634   9.411   6.034
85274SOL    HW157719   1.588   9.413   6.118
85274SOL    HW257720   1.711   9.465   6.047
85275SOL     OW57721   1.811   7.311   0.802
85275SOL    HW157722   1.829   7.298   0.708
85275SOL    HW257723   1.784   7.225   0.833
85276SOL     OW57724   5.910  12.087   7.409
85276SOL    HW157725   5.962  12.136   7.473
85276SOL    HW257726   5.973  12.028   7.369
85277SOL     OW57727  13.535   6.093  12.061
85277SOL    HW157728  13.576   6.134  12.137
85277SOL    HW257729  13.493   6.015  12.096
85278SOL     OW57730  12.377  10.793   1.759
85278SOL    HW157731  12.422  10.790   1.674
85278SOL    HW257732  12.333  10.878   1.759
85279SOL     OW57733   9.097  11.543   9.988
85279SOL    HW157734   9.116  11.485  10.062
85279SOL    HW257735   9.007  11.520   9.963
85280SOL     OW57736  14.133  12.384   1.513
85280SOL    HW157737  14.211  12.377   1.568
85280SOL    HW257738  14.074  12.316   1.545
85281SOL     OW57739   9.755  13.369   3.328
85281SOL    HW157740   9.850  13.376   3.332
85281SOL    HW257741   9.728  13.443   3.273
85282SOL     OW57742  10.782  11.030  13.244
85282SOL    HW157743  10.789  10.939  13.214
85282SOL    HW257744  10.848  11.077  13.192
85283SOL     OW57745   8.050  10.940   2.192
85283SOL    HW157746   8.140  10.907   2.183
85283SOL    HW257747   8.020  10.954   2.102
85284SOL     OW57748   4.779   9.716   0.433
85284SOL    HW157749   4.759   9.743   0.344
85284SOL    HW257750   4.761   9.622   0.435
85285SOL     OW57751   9.762   6.573   8.043
85285SOL    HW157752   9.837   6.632   8.032
85285SOL    HW257753   9.743   6.542   7.954
85286SOL     OW57754  13.940  11.870  14.255
85286SOL    HW157755  13.974  11.954  14.285
85286SOL    HW257756  13.945  11.813  14.332
85287SOL     OW57757  13.004  13.030   8.000
85287SOL    HW157758  12.951  13.066   8.071
85287SOL    HW257759  13.091  13.020   8.038
85288SOL     OW57760  12.459  12.806   9.986
85288SOL    HW157761  12.482  12.896  10.009
85288SOL    HW257762  12.413  12.773  10.064
85289SOL     OW57763  14.316   6.989   8.936
85289SOL    HW157764  14.315   6.895   8.916
85289SOL    HW257765  14.404   7.018   8.915
85290SOL     OW57766   8.702   6.623   0.314
85290SOL    HW157767   8.680   6.660   0.399
85290SOL    HW257768   8.681   6.530   0.322
85291SOL     OW57769   8.571   8.526   1.171
85291SOL    HW157770   8.623   8.450   1.145
85291SOL    HW257771   8.621   8.601   1.139
85292SOL     OW57772   5.887  14.236   7.425
85292SOL    HW157773   5.970  14.219   7.470
85292SOL    HW257774   5.871  14.330   7.439
85293SOL     OW57775   3.661  14.509   4.467
85293SOL    HW157776   3.740  14.505   4.413
85293SOL    HW257777   3.595  14.462   4.416
85294SOL     OW57778  11.124   4.399   1.759
85294SOL    HW157779  11.079   4.477   1.726
85294SOL    HW257780  11.096   4.392   1.850
85295SOL     OW57781  14.524  10.342   8.879
85295SOL    HW157782  14.585  10.316   8.948
85295SOL    HW257783  14.446  10.371   8.926
85296SOL     OW57784  13.847  12.116  12.318
85296SOL    HW157785  13.941  12.129  12.329
85296SOL    HW257786  13.836  12.021  12.320
85297SOL     OW57787   7.015   9.638   2.893
85297SOL    HW157788   6.962   9.676   2.964
85297SOL    HW257789   7.040   9.714   2.841
85298SOL     OW57790   5.546   6.242  10.934
85298SOL    HW157791   5.520   6.244  11.026
85298SOL    HW257792   5.471   6.204  10.889
85299SOL     OW57793   8.767   8.471   5.221
85299SOL    HW157794   8.811   8.395   5.182
85299SOL    HW257795   8.678   8.441   5.236
85300SOL     OW57796   7.644  11.729  10.225
85300SOL    HW157797   7.606  11.785  10.157
85300SOL    HW257798   7.697  11.788  10.279
85301SOL     OW57799   5.141   4.420   1.077
85301SOL    HW157800   5.153   4.513   1.094
85301SOL    HW257801   5.065   4.395   1.130
85302SOL     OW57802   8.288  13.242   0.163
85302SOL    HW157803   8.349  13.239   0.236
85302SOL    HW257804   8.343  13.256   0.086
85303SOL     OW57805   6.230  10.602  11.938
85303SOL    HW157806   6.302  10.610  12.000
85303SOL    HW257807   6.265  10.638  11.856
85304SOL     OW57808   6.607  12.945   6.770
85304SOL    HW157809   6.649  13.023   6.732
85304SOL    HW257810   6.601  12.883   6.697
85305SOL     OW57811   4.268   6.345   3.514
85305SOL    HW157812   4.282   6.345   3.419
85305SOL    HW257813   4.288   6.256   3.542
85306SOL     OW57814   5.021  11.230   6.130
85306SOL    HW157815   4.986  11.318   6.144
85306SOL    HW257816   4.960  11.189   6.069
85307SOL     OW57817   7.052   9.651  11.362
85307SOL    HW157818   7.025   9.742  11.354
85307SOL    HW257819   7.013   9.622  11.444
85308SOL     OW57820   0.043  14.627   4.408
85308SOL    HW157821  14.823  14.637   4.370
85308SOL    HW257822   0.028  14.587   4.493
85309SOL     OW57823  14.545   9.099  10.187
85309SOL    HW157824  14.592   9.149  10.254
85309SOL    HW257825  14.613   9.050  10.142
85310SOL     OW57826   0.412   2.375   6.810
85310SOL    HW157827   0.409   2.345   6.719
85310SOL    HW257828   0.389   2.468   6.805
85311SOL     OW57829  13.615   4.999   0.680
85311SOL    HW157830  13.662   4.920   0.706
85311SOL    HW257831  13.524   4.982   0.704
85312SOL     OW57832   0.765   2.851   3.244
85312SOL    HW157833   0.779   2.807   3.160
85312SOL    HW257834   0.850   2.848   3.287
85313SOL     OW57835   7.224   2.030   1.403
85313SOL    HW157836   7.318   2.036   1.420
85313SOL    HW257837   7.205   1.936   1.404
85314SOL     OW57838   4.135   4.616   1.741
85314SOL    HW157839   4.229   4.606   1.757
85314SOL    HW257840   4.117   4.556   1.668
85315SOL     OW57841  14.045   2.139   2.855
85315SOL    HW157842  13.968   2.193   2.872
85315SOL    HW257843  14.063   2.096   2.938
85316SOL     OW57844   5.995   0.415   0.248
85316SOL    HW157845   6.005   0.322   0.266
85316SOL    HW257846   5.967   0.420   0.157
85317SOL     OW57847  13.792  12.717   6.183
85317SOL    HW157848  13.838  12.758   6.110
85317SOL    HW257849  13.828  12.760   6.261
85318SOL     OW57850  10.314  11.360   1.542
85318SOL    HW157851  10.266  11.411   1.476
85318SOL    HW257852  10.376  11.308   1.490
85319SOL     OW57853   4.724   5.889   9.895
85319SOL    HW157854   4.630   5.886   9.913
85319SOL    HW257855   4.764   5.836   9.963
85320SOL     OW57856   3.122  13.201  11.518
85320SOL    HW157857   3.190  13.243  11.465
85320SOL    HW257858   3.077  13.274  11.561
85321SOL     OW57859  11.650  14.307   4.791
85321SOL    HW157860  11.691  14.260   4.718
85321SOL    HW257861  11.707  14.382   4.806
85322SOL     OW57862   0.153   0.473  12.047
85322SOL    HW157863   0.151   0.438  12.136
85322SOL    HW257864   0.141   0.397  11.990
85323SOL     OW57865   1.086   4.729   4.967
85323SOL    HW157866   1.078   4.650   4.915
85323SOL    HW257867   1.163   4.714   5.022
85324SOL     OW57868  14.445   9.539   0.357
85324SOL    HW157869  14.539   9.525   0.370
85324SOL    HW257870  14.429   9.627   0.390
85325SOL     OW57871   4.779   2.601   0.142
85325SOL    HW157872   4.871   2.592   0.121
85325SOL    HW257873   4.739   2.518   0.115
85326SOL     OW57874  12.077  10.714   9.866
85326SOL    HW157875  12.129  10.788   9.899
85326SOL    HW257876  12.133  10.638   9.879
85327SOL     OW57877  10.119  14.589   7.151
85327SOL    HW157878  10.125  14.518   7.215
85327SOL    HW257879  10.203  14.585   7.104
85328SOL     OW57880   9.249  13.243   2.123
85328SOL    HW157881   9.182  13.301   2.159
85328SOL    HW257882   9.204  13.193   2.055
85329SOL     OW57883   6.658   3.446  13.044
85329SOL    HW157884   6.746   3.416  13.068
85329SOL    HW257885   6.600   3.403  13.108
85330SOL     OW57886   4.461   7.928  11.830
85330SOL    HW157887   4.384   7.900  11.782
85330SOL    HW257888   4.483   8.014  11.793
85331SOL     OW57889   9.063  11.124   8.660
85331SOL    HW157890   9.098  11.086   8.741
85331SOL    HW257891   9.023  11.051   8.614
85332SOL     OW57892  14.395  13.953   4.410
85332SOL    HW157893  14.444  13.959   4.328
85332SOL    HW257894  14.431  14.023   4.465
85333SOL     OW57895  13.302   7.316  14.208
85333SOL    HW157896  13.244   7.259  14.259
85333SOL    HW257897  13.291   7.403  14.247
85334SOL     OW57898  10.268   2.581   9.112
85334SOL    HW157899  10.233   2.670   9.111
85334SOL    HW257900  10.362   2.592   9.122
85335SOL     OW57901   4.760   6.892   6.288
85335SOL    HW157902   4.664   6.889   6.277
85335SOL    HW257903   4.794   6.847   6.212
85336SOL     OW57904   5.858  12.006  14.452
85336SOL    HW157905   5.871  11.998  14.358
85336SOL    HW257906   5.791  11.940  14.473
85337SOL     OW57907   8.825   2.762   1.346
85337SOL    HW157908   8.740   2.745   1.387
85337SOL    HW257909   8.881   2.691   1.378
85338SOL     OW57910   2.576  11.433   5.562
85338SOL    HW157911   2.533  11.397   5.639
85338SOL    HW257912   2.566  11.528   5.570
85339SOL     OW57913  11.056   1.685   8.571
85339SOL    HW157914  11.116   1.610   8.576
85339SOL    HW257915  11.085   1.743   8.640
85340SOL     OW57916   3.362   8.547   4.245
85340SOL    HW157917   3.268   8.553   4.261
85340SOL    HW257918   3.371   8.478   4.179
85341SOL     OW57919  10.481   2.924   2.115
85341SOL    HW157920  10.396   2.943   2.153
85341SOL    HW257921  10.543   2.972   2.170
85342SOL     OW57922   0.990   3.307   9.024
85342SOL    HW157923   0.944   3.247   8.965
85342SOL    HW257924   0.983   3.267   9.110
85343SOL     OW57925   2.216   9.608   1.558
85343SOL    HW157926   2.255   9.678   1.610
85343SOL    HW257927   2.262   9.611   1.474
85344SOL     OW57928  13.434   4.959  14.584
85344SOL    HW157929  13.503   5.018  14.553
85344SOL    HW257930  13.438   4.884  14.526
85345SOL     OW57931   4.106   9.321   3.269
85345SOL    HW157932   4.071   9.257   3.207
85345SOL    HW257933   4.172   9.368   3.219
85346SOL     OW57934   1.579   7.833   9.922
85346SOL    HW157935   1.509   7.888   9.958
85346SOL    HW257936   1.606   7.877   9.842
85347SOL     OW57937   2.647  11.043  12.316
85347SOL    HW157938   2.626  11.087  12.398
85347SOL    HW257939   2.688  11.111  12.262
85348SOL     OW57940   7.280   8.353   2.943
85348SOL    HW157941   7.193   8.317   2.959
85348SOL    HW257942   7.340   8.279   2.956
85349SOL     OW57943   1.955   6.593   3.276
85349SOL    HW157944   1.878   6.594   3.332
85349SOL    HW257945   1.945   6.671   3.221
85350SOL     OW57946   2.982  12.617   7.670
85350SOL    HW157947   2.978  12.686   7.603
85350SOL    HW257948   3.007  12.664   7.751
85351SOL     OW57949   8.198  12.504   1.990
85351SOL    HW157950   8.149  12.564   2.046
85351SOL    HW257951   8.238  12.442   2.051
85352SOL     OW57952   0.866   6.096   1.891
85352SOL    HW157953   0.954   6.091   1.853
85352SOL    HW257954   0.859   6.018   1.946
85353SOL     OW57955  13.617   4.914   5.604
85353SOL    HW157956  13.622   4.942   5.695
85353SOL    HW257957  13.630   4.819   5.608
85354SOL     OW57958   9.127   4.180   0.045
85354SOL    HW157959   9.138   4.227  14.830
85354SOL    HW257960   9.170   4.235   0.109
85355SOL     OW57961  11.249   8.453  12.119
85355SOL    HW157962  11.287   8.483  12.036
85355SOL    HW257963  11.176   8.397  12.093
85356SOL     OW57964  14.707   2.767  14.323
85356SOL    HW157965  14.799   2.759  14.298
85356SOL    HW257966  14.662   2.702  14.268
85357SOL     OW57967   8.773   6.875   5.121
85357SOL    HW157968   8.755   6.803   5.060
85357SOL    HW257969   8.688   6.916   5.135
85358SOL     OW57970   1.838  12.174   5.654
85358SOL    HW157971   1.811  12.247   5.710
85358SOL    HW257972   1.757  12.146   5.612
85359SOL     OW57973   3.322  14.281  12.103
85359SOL    HW157974   3.300  14.224  12.177
85359SOL    HW257975   3.402  14.326  12.130
85360SOL     OW57976   4.308   3.721  11.860
85360SOL    HW157977   4.304   3.652  11.926
85360SOL    HW257978   4.320   3.802  11.910
85361SOL     OW57979   1.655  14.313  10.998
85361SOL    HW157980   1.664  14.246  10.930
85361SOL    HW257981   1.672  14.395  10.953
85362SOL     OW57982   5.403  10.732   0.678
85362SOL    HW157983   5.415  10.649   0.724
85362SOL    HW257984   5.485  10.746   0.632
85363SOL     OW57985  12.602  12.095   3.678
85363SOL    HW157986  12.575  12.154   3.608
85363SOL    HW257987  12.658  12.148   3.734
85364SOL     OW57988   7.628   1.145   4.568
85364SOL    HW157989   7.643   1.192   4.486
85364SOL    HW257990   7.600   1.057   4.542
85365SOL     OW57991   9.090   3.634   7.415
85365SOL    HW157992   9.123   3.649   7.504
85365SOL    HW257993   9.081   3.538   7.409
85366SOL     OW57994   8.775   3.600   2.774
85366SOL    HW157995   8.783   3.571   2.683
85366SOL    HW257996   8.684   3.628   2.782
85367SOL     OW57997   8.560   3.751   6.615
85367SOL    HW157998   8.618   3.758   6.691
85367SOL    HW257999   8.619   3.751   6.540
85368SOL     OW58000  11.580   4.751   8.858
85368SOL    HW158001  11.511   4.764   8.793
85368SOL    HW258002  11.625   4.836   8.863
85369SOL     OW58003   8.564   9.462   6.236
85369SOL    HW158004   8.486   9.484   6.285
85369SOL    HW258005   8.598   9.383   6.278
85370SOL     OW58006   1.370   8.353   6.097
85370SOL    HW158007   1.345   8.355   6.005
85370SOL    HW258008   1.291   8.381   6.144
85371SOL     OW58009   9.258   8.947   8.630
85371SOL    HW158010   9.186   9.007   8.650
85371SOL    HW258011   9.238   8.868   8.679
85372SOL     OW58012  11.139   9.142  12.808
85372SOL    HW158013  11.194   9.204  12.761
85372SOL    HW258014  11.136   9.175  12.898
85373SOL     OW58015   8.805   1.485   0.766
85373SOL    HW158016   8.829   1.433   0.842
85373SOL    HW258017   8.774   1.420   0.702
85374SOL     OW58018   8.054   8.258   3.232
85374SOL    HW158019   7.987   8.255   3.301
85374SOL    HW258020   8.033   8.184   3.175
85375SOL     OW58021  14.559   6.362   3.863
85375SOL    HW158022  14.643   6.392   3.827
85375SOL    HW258023  14.575   6.270   3.885
85376SOL     OW58024   5.535  11.606   2.386
85376SOL    HW158025   5.505  11.580   2.474
85376SOL    HW258026   5.502  11.695   2.374
85377SOL     OW58027   6.492   5.779   6.472
85377SOL    HW158028   6.564   5.727   6.437
85377SOL    HW258029   6.428   5.781   6.401
85378SOL     OW58030   4.080   8.487   8.055
85378SOL    HW158031   4.170   8.487   8.022
85378SOL    HW258032   4.037   8.415   8.008
85379SOL     OW58033  14.248   1.944  11.542
85379SOL    HW158034  14.279   1.856  11.525
85379SOL    HW258035  14.277   1.963  11.632
85380SOL     OW58036  11.132   0.249  10.822
85380SOL    HW158037  11.112   0.193  10.896
85380SOL    HW258038  11.063   0.232  10.758
85381SOL     OW58039  11.824   7.550   9.230
85381SOL    HW158040  11.768   7.620   9.265
85381SOL    HW258041  11.768   7.504   9.167
85382SOL     OW58042  14.008   3.999   4.261
85382SOL    HW158043  14.042   4.087   4.245
85382SOL    HW258044  13.990   3.964   4.174
85383SOL     OW58045  12.395   3.526  10.448
85383SOL    HW158046  12.347   3.603  10.479
85383SOL    HW258047  12.451   3.559  10.377
85384SOL     OW58048   2.218   1.072   6.764
85384SOL    HW158049   2.154   1.001   6.772
85384SOL    HW258050   2.284   1.051   6.830
85385SOL     OW58051   7.786  12.030   3.908
85385SOL    HW158052   7.728  12.105   3.901
85385SOL    HW258053   7.825  12.021   3.821
85386SOL     OW58054  14.574   5.409   9.272
85386SOL    HW158055  14.578   5.324   9.314
85386SOL    HW258056  14.640   5.406   9.203
85387SOL     OW58057   6.923   7.868   1.770
85387SOL    HW158058   6.915   7.894   1.678
85387SOL    HW258059   6.983   7.793   1.768
85388SOL     OW58060   2.477  10.484  14.359
85388SOL    HW158061   2.448  10.573  14.379
85388SOL    HW258062   2.572  10.492  14.349
85389SOL     OW58063  14.422   7.833   7.837
85389SOL    HW158064  14.494   7.770   7.825
85389SOL    HW258065  14.451   7.889   7.910
85390SOL     OW58066   2.663  11.729  13.588
85390SOL    HW158067   2.719  11.769  13.655
85390SOL    HW258068   2.651  11.799  13.523
85391SOL     OW58069   0.957   4.114  10.428
85391SOL    HW158070   0.946   4.079  10.340
85391SOL    HW258071   1.052   4.121  10.439
85392SOL     OW58072  14.584   9.459   5.654
85392SOL    HW158073  14.574   9.376   5.699
85392SOL    HW258074  14.510   9.512   5.683
85393SOL     OW58075   3.892   0.474   8.290
85393SOL    HW158076   3.843   0.552   8.314
85393SOL    HW258077   3.851   0.444   8.209
85394SOL     OW58078  10.681  14.262   9.775
85394SOL    HW158079  10.709  14.349   9.745
85394SOL    HW258080  10.586  14.262   9.763
85395SOL     OW58081   4.673   4.995   4.968
85395SOL    HW158082   4.600   5.056   4.982
85395SOL    HW258083   4.687   4.954   5.054
85396SOL     OW58084  13.084   4.168   0.023
85396SOL    HW158085  13.046   4.186  14.805
85396SOL    HW258086  13.009   4.156   0.080
85397SOL     OW58087   0.690   5.874  13.374
85397SOL    HW158088   0.610   5.847  13.330
85397SOL    HW258089   0.701   5.966  13.349
85398SOL     OW58090   2.394   5.572   7.878
85398SOL    HW158091   2.470   5.593   7.931
85398SOL    HW258092   2.357   5.493   7.918
85399SOL     OW58093   8.370   2.685   1.582
85399SOL    HW158094   8.337   2.633   1.509
85399SOL    HW258095   8.291   2.720   1.624
85400SOL     OW58096   0.640   2.281  11.980
85400SOL    HW158097   0.682   2.224  11.915
85400SOL    HW258098   0.574   2.225  12.021
85401SOL     OW58099   7.129   5.781   9.845
85401SOL    HW158100   7.082   5.843   9.901
85401SOL    HW258101   7.162   5.714   9.905
85402SOL     OW58102   0.685  14.294   7.122
85402SOL    HW158103   0.697  14.371   7.065
85402SOL    HW258104   0.661  14.223   7.062
85403SOL     OW58105  10.275  11.463  10.902
85403SOL    HW158106  10.258  11.520  10.828
85403SOL    HW258107  10.319  11.519  10.966
85404SOL     OW58108  13.557  13.628   7.185
85404SOL    HW158109  13.508  13.666   7.112
85404SOL    HW258110  13.541  13.687   7.258
85405SOL     OW58111   5.535   7.417   0.608
85405SOL    HW158112   5.441   7.435   0.617
85405SOL    HW258113   5.575   7.504   0.605
85406SOL     OW58114   6.980  13.186  11.970
85406SOL    HW158115   6.950  13.273  11.945
85406SOL    HW258116   6.916  13.127  11.932
85407SOL     OW58117   6.597   9.573   0.298
85407SOL    HW158118   6.559   9.556   0.384
85407SOL    HW258119   6.576   9.495   0.246
85408SOL     OW58120  11.858   5.980   4.196
85408SOL    HW158121  11.788   5.954   4.137
85408SOL    HW258122  11.829   6.063   4.234
85409SOL     OW58123   9.246   4.520   1.476
85409SOL    HW158124   9.161   4.478   1.462
85409SOL    HW258125   9.233   4.611   1.451
85410SOL     OW58126   9.216   0.819   4.486
85410SOL    HW158127   9.219   0.905   4.527
85410SOL    HW258128   9.150   0.827   4.417
85411SOL     OW58129   2.652   2.817   0.074
85411SOL    HW158130   2.566   2.778   0.081
85411SOL    HW258131   2.713   2.745   0.089
85412SOL     OW58132   8.120   5.468  13.172
85412SOL    HW158133   8.104   5.550  13.219
85412SOL    HW258134   8.180   5.419  13.229
85413SOL     OW58135  14.730   8.950  10.061
85413SOL    HW158136  14.768   8.993   9.984
85413SOL    HW258137  14.806   8.928  10.115
85414SOL     OW58138   4.800  12.678  10.579
85414SOL    HW158139   4.824  12.711  10.666
85414SOL    HW258140   4.884  12.658  10.538
85415SOL     OW58141   4.398  14.276  14.462
85415SOL    HW158142   4.347  14.356  14.476
85415SOL    HW258143   4.350  14.209  14.510
85416SOL     OW58144   1.234  10.540   7.984
85416SOL    HW158145   1.296  10.599   8.027
85416SOL    HW258146   1.279  10.514   7.904
85417SOL     OW58147   3.495   2.278  12.927
85417SOL    HW158148   3.541   2.204  12.887
85417SOL    HW258149   3.491   2.343  12.858
85418SOL     OW58150  11.570   2.641   2.644
85418SOL    HW158151  11.544   2.589   2.568
85418SOL    HW258152  11.613   2.579   2.702
85419SOL     OW58153   2.471  10.620   0.981
85419SOL    HW158154   2.524  10.545   0.954
85419SOL    HW258155   2.511  10.695   0.938
85420SOL     OW58156   4.257   7.826  10.236
85420SOL    HW158157   4.347   7.798  10.249
85420SOL    HW258158   4.243   7.820  10.141
85421SOL     OW58159  12.359  11.693  12.548
85421SOL    HW158160  12.455  11.688  12.548
85421SOL    HW258161  12.340  11.776  12.593
85422SOL     OW58162   8.686  10.991  11.791
85422SOL    HW158163   8.613  10.944  11.750
85422SOL    HW258164   8.760  10.976  11.732
85423SOL     OW58165  14.742  13.973   4.343
85423SOL    HW158166  14.676  13.968   4.274
85423SOL    HW258167  14.745  13.886   4.381
85424SOL     OW58168   6.660   4.574   7.177
85424SOL    HW158169   6.738   4.629   7.180
85424SOL    HW258170   6.662   4.533   7.090
85425SOL     OW58171   7.431  13.612  11.774
85425SOL    HW158172   7.374  13.688  11.763
85425SOL    HW258173   7.435  13.598  11.869
85426SOL     OW58174   2.508   9.992   5.298
85426SOL    HW158175   2.530  10.073   5.254
85426SOL    HW258176   2.465   9.938   5.232
85427SOL     OW58177   9.587   3.726  10.163
85427SOL    HW158178   9.581   3.821  10.149
85427SOL    HW258179   9.681   3.710  10.176
85428SOL     OW58180   7.764   0.229   8.442
85428SOL    HW158181   7.745   0.166   8.513
85428SOL    HW258182   7.728   0.187   8.364
85429SOL     OW58183   5.178   9.866   1.421
85429SOL    HW158184   5.242   9.935   1.403
85429SOL    HW258185   5.121   9.866   1.344
85430SOL     OW58186   4.040  11.697  14.084
85430SOL    HW158187   4.107  11.664  14.143
85430SOL    HW258188   4.044  11.639  14.008
85431SOL     OW58189  10.986   9.860   0.715
85431SOL    HW158190  10.964   9.851   0.808
85431SOL    HW258191  10.967   9.774   0.677
85432SOL     OW58192   6.965   7.938   0.498
85432SOL    HW158193   6.883   7.890   0.495
85432SOL    HW258194   6.957   8.004   0.429
85433SOL     OW58195   8.040  14.324   5.336
85433SOL    HW158196   8.024  14.386   5.265
85433SOL    HW258197   7.959  14.323   5.386
85434SOL     OW58198   3.134  10.245  11.131
85434SOL    HW158199   3.164  10.245  11.040
85434SOL    HW258200   3.209  10.277  11.181
85435SOL     OW58201   6.641   5.668   3.811
85435SOL    HW158202   6.555   5.711   3.813
85435SOL    HW258203   6.703   5.739   3.797
85436SOL     OW58204  12.341   5.803   4.186
85436SOL    HW158205  12.246   5.807   4.201
85436SOL    HW258206  12.379   5.848   4.261
85437SOL     OW58207   0.658   5.849  10.970
85437SOL    HW158208   0.684   5.770  11.017
85437SOL    HW258209   0.648   5.821  10.879
85438SOL     OW58210   2.288   3.732   8.149
85438SOL    HW158211   2.217   3.688   8.196
85438SOL    HW258212   2.272   3.711   8.057
85439SOL     OW58213   5.447  11.421   5.082
85439SOL    HW158214   5.480  11.483   5.146
85439SOL    HW258215   5.373  11.379   5.126
85440SOL     OW58216   2.261   3.266   0.720
85440SOL    HW158217   2.207   3.345   0.727
85440SOL    HW258218   2.291   3.251   0.810
85441SOL     OW58219   3.243  12.087   7.660
85441SOL    HW158220   3.326  12.085   7.709
85441SOL    HW258221   3.248  12.167   7.607
85442SOL     OW58222  12.591  14.024   5.162
85442SOL    HW158223  12.537  14.099   5.187
85442SOL    HW258224  12.541  13.948   5.192
85443SOL     OW58225  11.386   8.665   0.535
85443SOL    HW158226  11.307   8.622   0.568
85443SOL    HW258227  11.404   8.621   0.452
85444SOL     OW58228   9.478   2.685  10.078
85444SOL    HW158229   9.500   2.661  10.168
85444SOL    HW258230   9.408   2.750  10.087
85445SOL     OW58231   0.999   0.624   6.367
85445SOL    HW158232   1.024   0.573   6.445
85445SOL    HW258233   0.947   0.696   6.402
85446SOL     OW58234   2.054  12.199   6.149
85446SOL    HW158235   2.148  12.187   6.162
85446SOL    HW258236   2.015  12.180   6.234
85447SOL     OW58237   5.914   3.350   4.979
85447SOL    HW158238   5.994   3.351   4.926
85447SOL    HW258239   5.923   3.272   5.034
85448SOL     OW58240   5.041  13.124   8.101
85448SOL    HW158241   5.089  13.049   8.136
85448SOL    HW258242   4.949  13.097   8.103
85449SOL     OW58243   2.137  10.779   4.341
85449SOL    HW158244   2.056  10.733   4.318
85449SOL    HW258245   2.206  10.717   4.318
85450SOL     OW58246   4.317   4.498  10.868
85450SOL    HW158247   4.366   4.523  10.790
85450SOL    HW258248   4.375   4.521  10.941
85451SOL     OW58249   5.389  12.447  10.969
85451SOL    HW158250   5.429  12.510  11.030
85451SOL    HW258251   5.295  12.464  10.976
85452SOL     OW58252   1.098  14.731   7.123
85452SOL    HW158253   1.013  14.772   7.137
85452SOL    HW258254   1.152  14.800   7.082
85453SOL     OW58255  10.787   3.777  10.747
85453SOL    HW158256  10.780   3.766  10.652
85453SOL    HW258257  10.832   3.861  10.758
85454SOL     OW58258  11.988  13.079  12.493
85454SOL    HW158259  11.912  13.030  12.525
85454SOL    HW258260  11.992  13.059  12.400
85455SOL     OW58261  13.421   4.604   8.482
85455SOL    HW158262  13.394   4.520   8.521
85455SOL    HW258263  13.354   4.621   8.416
85456SOL     OW58264  11.663   6.673   7.498
85456SOL    HW158265  11.707   6.588   7.506
85456SOL    HW258266  11.697   6.710   7.417
85457SOL     OW58267   2.873  11.376   0.331
85457SOL    HW158268   2.871  11.351   0.239
85457SOL    HW258269   2.963  11.402   0.347
85458SOL     OW58270   5.959  12.362  10.926
85458SOL    HW158271   5.935  12.295  10.863
85458SOL    HW258272   6.040  12.329  10.966
85459SOL     OW58273  14.787  11.170  13.916
85459SOL    HW158274  14.703  11.185  13.872
85459SOL    HW258275  14.824  11.257  13.928
85460SOL     OW58276  14.778   9.477   3.463
85460SOL    HW158277  14.722   9.464   3.540
85460SOL    HW258278  14.797   9.388   3.432
85461SOL     OW58279   4.841   0.548   7.098
85461SOL    HW158280   4.919   0.568   7.149
85461SOL    HW258281   4.874   0.498   7.023
85462SOL     OW58282   7.065   0.798   0.455
85462SOL    HW158283   7.120   0.812   0.378
85462SOL    HW258284   7.080   0.707   0.478
85463SOL     OW58285  10.816  10.043  14.686
85463SOL    HW158286  10.771  10.077  14.609
85463SOL    HW258287  10.746  10.021  14.748
85464SOL     OW58288  14.822   0.507   1.660
85464SOL    HW158289  14.792   0.588   1.619
85464SOL    HW258290   0.018   0.471   1.599
85465SOL     OW58291   9.279   1.401   5.625
85465SOL    HW158292   9.215   1.335   5.596
85465SOL    HW258293   9.252   1.423   5.714
85466SOL     OW58294   1.603   5.974   6.807
85466SOL    HW158295   1.532   5.980   6.871
85466SOL    HW258296   1.599   6.057   6.759
85467SOL     OW58297  14.436  11.236  10.029
85467SOL    HW158298  14.514  11.275  10.069
85467SOL    HW258299  14.373  11.308  10.027
85468SOL     OW58300  13.070   0.308   2.259
85468SOL    HW158301  13.053   0.394   2.297
85468SOL    HW258302  13.047   0.247   2.328
85469SOL     OW58303   4.872  14.195   9.643
85469SOL    HW158304   4.835  14.127   9.700
85469SOL    HW258305   4.893  14.267   9.703
85470SOL     OW58306   9.010  10.113   3.044
85470SOL    HW158307   9.102  10.103   3.071
85470SOL    HW258308   9.002  10.205   3.022
85471SOL     OW58309   1.571  11.546  13.879
85471SOL    HW158310   1.601  11.473  13.824
85471SOL    HW258311   1.546  11.614  13.816
85472SOL     OW58312   1.520   9.242  14.209
85472SOL    HW158313   1.589   9.198  14.258
85472SOL    HW258314   1.526   9.333  14.236
85473SOL     OW58315   7.556  11.634  11.351
85473SOL    HW158316   7.462  11.650  11.341
85473SOL    HW258317   7.571  11.636  11.446
85474SOL     OW58318   8.626   9.230  10.536
85474SOL    HW158319   8.539   9.205  10.569
85474SOL    HW258320   8.626   9.202  10.445
85475SOL     OW58321   1.021   9.171   3.930
85475SOL    HW158322   1.003   9.077   3.937
85475SOL    HW258323   1.116   9.176   3.924
85476SOL     OW58324  12.359  10.575  11.849
85476SOL    HW158325  12.289  10.592  11.913
85476SOL    HW258326  12.333  10.627  11.773
85477SOL     OW58327   4.052   8.751  10.518
85477SOL    HW158328   4.014   8.826  10.565
85477SOL    HW258329   4.018   8.675  10.564
85478SOL     OW58330   8.168   2.469  11.737
85478SOL    HW158331   8.123   2.401  11.787
85478SOL    HW258332   8.098   2.527  11.706
85479SOL     OW58333   2.333  14.168   4.066
85479SOL    HW158334   2.389  14.091   4.060
85479SOL    HW258335   2.290  14.173   3.980
85480SOL     OW58336   2.064   1.123  13.426
85480SOL    HW158337   1.981   1.117  13.473
85480SOL    HW258338   2.098   1.033  13.425
85481SOL     OW58339   7.999  13.797  12.825
85481SOL    HW158340   7.904  13.788  12.835
85481SOL    HW258341   8.016  13.891  12.836
85482SOL     OW58342  10.726   3.892   1.206
85482SOL    HW158343  10.698   3.979   1.179
85482SOL    HW258344  10.788   3.908   1.278
85483SOL     OW58345  14.785  11.739  11.843
85483SOL    HW158346  14.690  11.738  11.844
85483SOL    HW258347  14.809  11.818  11.892
85484SOL     OW58348   6.496  14.341   9.075
85484SOL    HW158349   6.473  14.267   9.020
85484SOL    HW258350   6.545  14.400   9.017
85485SOL     OW58351  12.987  12.794  11.676
85485SOL    HW158352  12.995  12.873  11.730
85485SOL    HW258353  13.065  12.795  11.620
85486SOL     OW58354  11.855   2.532   5.176
85486SOL    HW158355  11.935   2.580   5.194
85486SOL    HW258356  11.834   2.489   5.258
85487SOL     OW58357  12.357   6.244   3.203
85487SOL    HW158358  12.288   6.286   3.255
85487SOL    HW258359  12.396   6.315   3.152
85488SOL     OW58360  11.884   1.775   5.016
85488SOL    HW158361  11.941   1.835   4.968
85488SOL    HW258362  11.942   1.733   5.079
85489SOL     OW58363   2.246   9.197   6.178
85489SOL    HW158364   2.184   9.125   6.175
85489SOL    HW258365   2.326   9.162   6.139
85490SOL     OW58366  14.161  13.707   8.332
85490SOL    HW158367  14.121  13.740   8.412
85490SOL    HW258368  14.126  13.618   8.322
85491SOL     OW58369   5.148  11.821  12.551
85491SOL    HW158370   5.134  11.899  12.604
85491SOL    HW258371   5.168  11.854  12.463
85492SOL     OW58372  13.071   8.654   7.278
85492SOL    HW158373  13.119   8.675   7.359
85492SOL    HW258374  13.023   8.574   7.299
85493SOL     OW58375   0.049   7.761   2.872
85493SOL    HW158376   0.077   7.793   2.787
85493SOL    HW258377  14.854   7.825   2.903
85494SOL     OW58378   6.636   7.890   5.646
85494SOL    HW158379   6.614   7.983   5.657
85494SOL    HW258380   6.719   7.880   5.691
85495SOL     OW58381   6.040   0.484   3.298
85495SOL    HW158382   5.972   0.544   3.328
85495SOL    HW258383   6.010   0.397   3.325
85496SOL     OW58384  10.004   1.161   6.785
85496SOL    HW158385   9.974   1.089   6.839
85496SOL    HW258386   9.976   1.138   6.696
85497SOL     OW58387   4.649  11.424   2.951
85497SOL    HW158388   4.558  11.394   2.957
85497SOL    HW258389   4.701  11.347   2.969
85498SOL     OW58390   9.684   8.247   7.956
85498SOL    HW158391   9.741   8.196   7.898
85498SOL    HW258392   9.741   8.275   8.027
85499SOL     OW58393  13.054   8.415   2.820
85499SOL    HW158394  12.979   8.361   2.795
85499SOL    HW258395  13.058   8.482   2.751
85500SOL     OW58396   8.682   1.569   4.503
85500SOL    HW158397   8.607   1.588   4.447
85500SOL    HW258398   8.644   1.531   4.582
85501SOL     OW58399   9.296   1.298   6.858
85501SOL    HW158400   9.257   1.320   6.774
85501SOL    HW258401   9.221   1.290   6.918
85502SOL     OW58402  10.538  11.183   3.705
85502SOL    HW158403  10.554  11.104   3.756
85502SOL    HW258404  10.584  11.252   3.754
85503SOL     OW58405   8.028   2.144   6.246
85503SOL    HW158406   8.025   2.075   6.180
85503SOL    HW258407   8.074   2.105   6.320
85504SOL     OW58408  11.473   9.149  14.700
85504SOL    HW158409  11.379   9.160  14.713
85504SOL    HW258410  11.488   9.173  14.609
85505SOL     OW58411  13.752  14.328   8.337
85505SOL    HW158412  13.768  14.401   8.277
85505SOL    HW258413  13.786  14.358   8.421
85506SOL     OW58414   4.528   5.694   0.981
85506SOL    HW158415   4.451   5.748   0.998
85506SOL    HW258416   4.494   5.618   0.933
85507SOL     OW58417   8.746   3.924   7.924
85507SOL    HW158418   8.719   4.015   7.938
85507SOL    HW258419   8.836   3.930   7.893
85508SOL     OW58420   4.471  10.774   3.334
85508SOL    HW158421   4.398  10.826   3.299
85508SOL    HW258422   4.536  10.838   3.361
85509SOL     OW58423  10.185  10.484   8.359
85509SOL    HW158424  10.220  10.520   8.440
85509SOL    HW258425  10.237  10.404   8.344
85510SOL     OW58426  13.512   5.866   6.924
85510SOL    HW158427  13.532   5.950   6.881
85510SOL    HW258428  13.598   5.826   6.940
85511SOL     OW58429   0.832   6.553  13.301
85511SOL    HW158430   0.770   6.618  13.332
85511SOL    HW258431   0.917   6.598  13.301
85512SOL     OW58432   3.007   9.317  12.608
85512SOL    HW158433   2.913   9.320  12.621
85512SOL    HW258434   3.021   9.359  12.523
85513SOL     OW58435   1.689   9.391   8.101
85513SOL    HW158436   1.721   9.481   8.090
85513SOL    HW258437   1.693   9.376   8.196
85514SOL     OW58438   7.306   3.448   8.910
85514SOL    HW158439   7.332   3.418   8.823
85514SOL    HW258440   7.242   3.517   8.893
85515SOL     OW58441   6.966   6.696   3.268
85515SOL    HW158442   6.992   6.689   3.176
85515SOL    HW258443   6.974   6.607   3.301
85516SOL     OW58444  13.917   8.879  14.272
85516SOL    HW158445  13.843   8.933  14.244
85516SOL    HW258446  13.908   8.798  14.221
85517SOL     OW58447   7.675  11.574   6.403
85517SOL    HW158448   7.720  11.492   6.423
85517SOL    HW258449   7.639  11.561   6.315
85518SOL     OW58450  14.020   8.893  12.366
85518SOL    HW158451  14.040   8.841  12.288
85518SOL    HW258452  13.981   8.973  12.332
85519SOL     OW58453  10.168   7.747  12.679
85519SOL    HW158454  10.259   7.731  12.704
85519SOL    HW258455  10.145   7.829  12.724
85520SOL     OW58456  10.337   8.404  11.463
85520SOL    HW158457  10.351   8.419  11.369
85520SOL    HW258458  10.257   8.453  11.483
85521SOL     OW58459   9.938  13.995   3.205
85521SOL    HW158460  10.000  13.924   3.226
85521SOL    HW258461   9.868  13.985   3.270
85522SOL     OW58462  13.176   2.768   0.992
85522SOL    HW158463  13.162   2.674   1.007
85522SOL    HW258464  13.115   2.790   0.921
85523SOL     OW58465  11.669   3.163   7.965
85523SOL    HW158466  11.647   3.070   7.966
85523SOL    HW258467  11.592   3.206   8.002
85524SOL     OW58468   0.474   6.424   0.815
85524SOL    HW158469   0.541   6.359   0.835
85524SOL    HW258470   0.395   6.392   0.857
85525SOL     OW58471   8.624   6.745   0.887
85525SOL    HW158472   8.614   6.810   0.956
85525SOL    HW258473   8.609   6.661   0.931
85526SOL     OW58474   1.776   7.232   8.766
85526SOL    HW158475   1.797   7.288   8.841
85526SOL    HW258476   1.843   7.253   8.701
85527SOL     OW58477   4.626   2.767   2.121
85527SOL    HW158478   4.545   2.761   2.172
85527SOL    HW258479   4.648   2.676   2.101
85528SOL     OW58480   7.659  13.811   8.785
85528SOL    HW158481   7.644  13.786   8.876
85528SOL    HW258482   7.698  13.898   8.791
85529SOL     OW58483   6.072  11.132   5.085
85529SOL    HW158484   6.036  11.220   5.098
85529SOL    HW258485   6.071  11.094   5.173
85530SOL     OW58486   6.166   1.566  14.707
85530SOL    HW158487   6.200   1.515  14.634
85530SOL    HW258488   6.122   1.641  14.666
85531SOL     OW58489   8.863   9.520   5.055
85531SOL    HW158490   8.906   9.603   5.032
85531SOL    HW258491   8.891   9.459   4.986
85532SOL     OW58492  14.179   3.124   8.091
85532SOL    HW158493  14.259   3.073   8.077
85532SOL    HW258494  14.138   3.085   8.168
85533SOL     OW58495   3.380   3.601   4.227
85533SOL    HW158496   3.375   3.612   4.132
85533SOL    HW258497   3.444   3.532   4.241
85534SOL     OW58498  12.152   4.483   4.959
85534SOL    HW158499  12.133   4.552   4.895
85534SOL    HW258500  12.141   4.401   4.910
85535SOL     OW58501   9.087   0.988   5.119
85535SOL    HW158502   9.179   1.012   5.107
85535SOL    HW258503   9.075   0.911   5.063
85536SOL     OW58504   0.335   4.350   3.463
85536SOL    HW158505   0.265   4.378   3.522
85536SOL    HW258506   0.415   4.354   3.516
85537SOL     OW58507  10.961  10.686  12.022
85537SOL    HW158508  10.921  10.632  12.090
85537SOL    HW258509  11.030  10.630  11.986
85538SOL     OW58510  11.109   4.628   5.477
85538SOL    HW158511  11.069   4.599   5.558
85538SOL    HW258512  11.194   4.583   5.474
85539SOL     OW58513   3.804   7.560  10.348
85539SOL    HW158514   3.808   7.650  10.381
85539SOL    HW258515   3.833   7.567  10.257
85540SOL     OW58516   4.692   3.290   5.958
85540SOL    HW158517   4.709   3.384   5.967
85540SOL    HW258518   4.690   3.257   6.048
85541SOL     OW58519  10.511   1.740   8.294
85541SOL    HW158520  10.494   1.698   8.378
85541SOL    HW258521  10.600   1.714   8.271
85542SOL     OW58522   9.851  11.321  14.377
85542SOL    HW158523   9.899  11.403  14.393
85542SOL    HW258524   9.889  11.286  14.296
85543SOL     OW58525   2.172  11.353   8.976
85543SOL    HW158526   2.144  11.383   8.889
85543SOL    HW258527   2.215  11.429   9.015
85544SOL     OW58528   8.090   0.287  11.720
85544SOL    HW158529   8.153   0.216  11.735
85544SOL    HW258530   8.007   0.242  11.701
85545SOL     OW58531   6.001   4.138   3.410
85545SOL    HW158532   5.987   4.074   3.479
85545SOL    HW258533   5.912   4.165   3.384
85546SOL     OW58534   8.077  10.257  12.976
85546SOL    HW158535   8.092  10.351  12.993
85546SOL    HW258536   8.102  10.246  12.885
85547SOL     OW58537   3.706  11.499  14.762
85547SOL    HW158538   3.619  11.465  14.782
85547SOL    HW258539   3.708  11.585  14.805
85548SOL     OW58540   9.932   8.449   2.517
85548SOL    HW158541   9.994   8.445   2.444
85548SOL    HW258542   9.857   8.397   2.487
85549SOL     OW58543   6.773   7.638   8.635
85549SOL    HW158544   6.805   7.592   8.557
85549SOL    HW258545   6.685   7.602   8.649
85550SOL     OW58546   8.681  14.739   0.059
85550SOL    HW158547   8.760  14.691   0.084
85550SOL    HW258548   8.631  14.677   0.005
85551SOL     OW58549   8.867  10.130  11.844
85551SOL    HW158550   8.807  10.072  11.796
85551SOL    HW258551   8.868  10.095  11.933
85552SOL     OW58552  12.828  11.627   3.361
85552SOL    HW158553  12.830  11.720   3.386
85552SOL    HW258554  12.908  11.590   3.399
85553SOL     OW58555  14.480   5.749   3.760
85553SOL    HW158556  14.567   5.788   3.770
85553SOL    HW258557  14.447   5.784   3.677
85554SOL     OW58558   4.910  10.142   7.594
85554SOL    HW158559   4.840  10.201   7.568
85554SOL    HW258560   4.948  10.112   7.511
85555SOL     OW58561   9.231  11.500   6.087
85555SOL    HW158562   9.278  11.420   6.062
85555SOL    HW258563   9.264  11.567   6.028
85556SOL     OW58564   8.462   7.927   4.919
85556SOL    HW158565   8.421   7.893   4.999
85556SOL    HW258566   8.555   7.908   4.930
85557SOL     OW58567  12.750   2.425   9.106
85557SOL    HW158568  12.842   2.416   9.081
85557SOL    HW258569  12.707   2.456   9.027
85558SOL     OW58570  12.787   6.855   3.828
85558SOL    HW158571  12.857   6.873   3.765
85558SOL    HW258572  12.833   6.833   3.909
85559SOL     OW58573   9.229  13.059  12.067
85559SOL    HW158574   9.219  12.993  12.135
85559SOL    HW258575   9.143  13.065  12.026
85560SOL     OW58576   2.634   6.028   8.891
85560SOL    HW158577   2.612   6.116   8.923
85560SOL    HW258578   2.597   6.024   8.803
85561SOL     OW58579   8.201   7.951   6.525
85561SOL    HW158580   8.198   8.042   6.556
85561SOL    HW258581   8.262   7.953   6.451
85562SOL     OW58582  13.246   8.829   6.177
85562SOL    HW158583  13.336   8.796   6.178
85562SOL    HW258584  13.208   8.798   6.260
85563SOL     OW58585   9.331  13.011   4.244
85563SOL    HW158586   9.272  12.954   4.195
85563SOL    HW258587   9.274  13.062   4.301
85564SOL     OW58588   9.228   2.682  13.128
85564SOL    HW158589   9.190   2.598  13.103
85564SOL    HW258590   9.182   2.746  13.073
85565SOL     OW58591   4.201   9.406   2.838
85565SOL    HW158592   4.152   9.463   2.897
85565SOL    HW258593   4.286   9.395   2.880
85566SOL     OW58594   4.243   8.895   3.414
85566SOL    HW158595   4.280   8.981   3.437
85566SOL    HW258596   4.154   8.898   3.449
85567SOL     OW58597   5.591  13.971   3.580
85567SOL    HW158598   5.515  13.930   3.621
85567SOL    HW258599   5.657  13.903   3.577
85568SOL     OW58600  11.017   4.606   0.468
85568SOL    HW158601  11.090   4.558   0.507
85568SOL    HW258602  11.031   4.697   0.496
85569SOL     OW58603  10.692   6.949   4.720
85569SOL    HW158604  10.641   6.892   4.664
85569SOL    HW258605  10.668   6.924   4.809
85570SOL     OW58606   5.420   3.217   2.124
85570SOL    HW158607   5.373   3.300   2.113
85570SOL    HW258608   5.494   3.224   2.063
85571SOL     OW58609   2.666  13.814  12.892
85571SOL    HW158610   2.717  13.882  12.937
85571SOL    HW258611   2.727  13.776  12.828
85572SOL     OW58612  13.708  13.923  13.946
85572SOL    HW158613  13.762  13.978  13.889
85572SOL    HW258614  13.745  13.835  13.936
85573SOL     OW58615   1.281   5.583  13.425
85573SOL    HW158616   1.282   5.488  13.438
85573SOL    HW258617   1.190   5.604  13.408
85574SOL     OW58618  12.477   0.972   1.130
85574SOL    HW158619  12.387   0.958   1.102
85574SOL    HW258620  12.473   0.979   1.225
85575SOL     OW58621  11.522   0.382  10.568
85575SOL    HW158622  11.612   0.348  10.566
85575SOL    HW258623  11.483   0.342  10.646
85576SOL     OW58624   0.918   8.639   8.889
85576SOL    HW158625   0.993   8.653   8.831
85576SOL    HW258626   0.852   8.597   8.833
85577SOL     OW58627  13.069  14.804  13.986
85577SOL    HW158628  13.093  14.779  13.897
85577SOL    HW258629  13.110   0.022  13.999
85578SOL     OW58630  14.840   0.916   4.278
85578SOL    HW158631  14.766   0.892   4.333
85578SOL    HW258632  14.843   0.848   4.211
85579SOL     OW58633   6.282   9.451   7.983
85579SOL    HW158634   6.269   9.523   7.921
85579SOL    HW258635   6.303   9.495   8.066
85580SOL     OW58636   3.655  14.839   8.779
85580SOL    HW158637   3.738  14.842   8.827
85580SOL    HW258638   3.621   0.061   8.785
85581SOL     OW58639   9.386  14.183  13.887
85581SOL    HW158640   9.373  14.113  13.951
85581SOL    HW258641   9.429  14.253  13.937
85582SOL     OW58642   3.958  14.234  10.697
85582SOL    HW158643   4.048  14.244  10.666
85582SOL    HW258644   3.956  14.147  10.737
85583SOL     OW58645   4.550   3.049   7.257
85583SOL    HW158646   4.547   3.143   7.241
85583SOL    HW258647   4.595   3.013   7.180
85584SOL     OW58648   1.674  10.044   3.302
85584SOL    HW158649   1.590  10.016   3.338
85584SOL    HW258650   1.677  10.005   3.214
85585SOL     OW58651   4.679   1.969   6.518
85585SOL    HW158652   4.769   1.950   6.490
85585SOL    HW258653   4.636   2.000   6.438
85586SOL     OW58654   7.617   9.350   9.025
85586SOL    HW158655   7.664   9.266   9.024
85586SOL    HW258656   7.681   9.413   8.993
85587SOL     OW58657   1.922   2.873   8.100
85587SOL    HW158658   1.872   2.953   8.084
85587SOL    HW258659   1.969   2.889   8.182
85588SOL     OW58660   8.027   0.050   6.326
85588SOL    HW158661   8.108   0.101   6.326
85588SOL    HW258662   8.026   0.008   6.239
85589SOL     OW58663   9.577  10.129   4.303
85589SOL    HW158664   9.570  10.101   4.212
85589SOL    HW258665   9.640  10.201   4.301
85590SOL     OW58666   7.317   1.720  10.972
85590SOL    HW158667   7.264   1.793  10.940
85590SOL    HW258668   7.302   1.650  10.909
85591SOL     OW58669   3.746  11.886   0.505
85591SOL    HW158670   3.670  11.918   0.455
85591SOL    HW258671   3.779  11.812   0.454
85592SOL     OW58672   2.871   9.364  13.010
85592SOL    HW158673   2.916   9.403  12.936
85592SOL    HW258674   2.820   9.435  13.048
85593SOL     OW58675   1.419   7.290   4.013
85593SOL    HW158676   1.469   7.365   4.044
85593SOL    HW258677   1.344   7.285   4.073
85594SOL     OW58678  14.631   4.776   9.171
85594SOL    HW158679  14.549   4.822   9.186
85594SOL    HW258680  14.643   4.721   9.249
85595SOL     OW58681   0.273   8.057   3.951
85595SOL    HW158682   0.223   7.978   3.973
85595SOL    HW258683   0.231   8.127   4.001
85596SOL     OW58684   7.721   3.261  14.364
85596SOL    HW158685   7.756   3.322  14.299
85596SOL    HW258686   7.704   3.314  14.441
85597SOL     OW58687  10.473   8.418   0.746
85597SOL    HW158688  10.456   8.352   0.813
85597SOL    HW258689  10.428   8.497   0.778
85598SOL     OW58690   5.360   8.730   7.999
85598SOL    HW158691   5.372   8.647   7.954
85598SOL    HW258692   5.272   8.724   8.036
85599SOL     OW58693  11.610   8.820  13.449
85599SOL    HW158694  11.599   8.758  13.521
85599SOL    HW258695  11.669   8.887  13.484
85600SOL     OW58696   3.359   7.451   3.457
85600SOL    HW158697   3.388   7.379   3.513
85600SOL    HW258698   3.307   7.408   3.389
85601SOL     OW58699  10.702   0.325   7.377
85601SOL    HW158700  10.609   0.340   7.358
85601SOL    HW258701  10.708   0.327   7.472
85602SOL     OW58702   2.829   1.140  12.985
85602SOL    HW158703   2.807   1.234  12.984
85602SOL    HW258704   2.914   1.135  12.943
85603SOL     OW58705   0.148   2.784   8.900
85603SOL    HW158706   0.082   2.846   8.933
85603SOL    HW258707   0.231   2.831   8.908
85604SOL     OW58708   1.556  13.232  14.229
85604SOL    HW158709   1.515  13.319  14.231
85604SOL    HW258710   1.545  13.198  14.318
85605SOL     OW58711  11.888   0.988   1.618
85605SOL    HW158712  11.837   1.052   1.667
85605SOL    HW258713  11.827   0.917   1.601
85606SOL     OW58714   6.061   8.987   2.456
85606SOL    HW158715   6.039   8.896   2.436
85606SOL    HW258716   6.026   9.000   2.544
85607SOL     OW58717   3.767   8.385  13.674
85607SOL    HW158718   3.765   8.348  13.762
85607SOL    HW258719   3.677   8.377  13.643
85608SOL     OW58720   6.998   2.287  12.511
85608SOL    HW158721   7.036   2.212  12.557
85608SOL    HW258722   6.989   2.355  12.578
85609SOL     OW58723   1.390   0.313   8.817
85609SOL    HW158724   1.437   0.280   8.741
85609SOL    HW258725   1.391   0.408   8.807
85610SOL     OW58726  10.096   9.471   6.981
85610SOL    HW158727  10.143   9.466   7.064
85610SOL    HW258728  10.142   9.410   6.923
85611SOL     OW58729  13.186  13.368   6.521
85611SOL    HW158730  13.282  13.368   6.512
85611SOL    HW258731  13.155  13.326   6.441
85612SOL     OW58732  12.610   9.327  10.759
85612SOL    HW158733  12.550   9.264  10.797
85612SOL    HW258734  12.693   9.280  10.751
85613SOL     OW58735  14.519   0.617  11.925
85613SOL    HW158736  14.559   0.571  11.851
85613SOL    HW258737  14.425   0.606  11.911
85614SOL     OW58738   2.467   7.739   6.842
85614SOL    HW158739   2.485   7.782   6.925
85614SOL    HW258740   2.545   7.756   6.789
85615SOL     OW58741  12.923   0.597   1.267
85615SOL    HW158742  12.949   0.687   1.289
85615SOL    HW258743  12.835   0.606   1.231
85616SOL     OW58744   9.218   2.347   1.413
85616SOL    HW158745   9.313   2.333   1.413
85616SOL    HW258746   9.189   2.307   1.496
85617SOL     OW58747   2.303   7.019  12.853
85617SOL    HW158748   2.360   7.055  12.920
85617SOL    HW258749   2.217   7.059  12.870
85618SOL     OW58750   4.960   7.295   0.959
85618SOL    HW158751   4.866   7.278   0.952
85618SOL    HW258752   4.999   7.209   0.974
85619SOL     OW58753  10.832   3.476   0.252
85619SOL    HW158754  10.788   3.455   0.335
85619SOL    HW258755  10.855   3.568   0.260
85620SOL     OW58756   9.722   7.299   5.446
85620SOL    HW158757   9.660   7.349   5.499
85620SOL    HW258758   9.670   7.271   5.370
85621SOL     OW58759   6.396   1.692  14.808
85621SOL    HW158760   6.318   1.638  14.797
85621SOL    HW258761   6.369   1.761   0.001
85622SOL     OW58762   3.508   8.075   4.385
85622SOL    HW158763   3.513   7.990   4.342
85622SOL    HW258764   3.576   8.128   4.342
85623SOL     OW58765  11.830  11.269  11.556
85623SOL    HW158766  11.804  11.201  11.618
85623SOL    HW258767  11.850  11.345  11.611
85624SOL     OW58768   0.448   7.533   1.900
85624SOL    HW158769   0.485   7.479   1.970
85624SOL    HW258770   0.355   7.541   1.923
85625SOL     OW58771   7.605   2.037   8.515
85625SOL    HW158772   7.675   1.989   8.470
85625SOL    HW258773   7.626   2.028   8.608
85626SOL     OW58774   4.931  14.760  12.840
85626SOL    HW158775   5.016  14.715  12.840
85626SOL    HW258776   4.872  14.700  12.794
85627SOL     OW58777   4.776   0.538   1.936
85627SOL    HW158778   4.695   0.519   1.890
85627SOL    HW258779   4.764   0.627   1.971
85628SOL     OW58780   0.789   3.623  11.700
85628SOL    HW158781   0.822   3.712  11.690
85628SOL    HW258782   0.840   3.571  11.638
85629SOL     OW58783  10.515   4.268   0.225
85629SOL    HW158784  10.483   4.308   0.306
85629SOL    HW258785  10.448   4.203   0.203
85630SOL     OW58786  13.156  13.307   0.347
85630SOL    HW158787  13.141  13.325   0.440
85630SOL    HW258788  13.094  13.362   0.301
85631SOL     OW58789   8.571   8.984   0.456
85631SOL    HW158790   8.598   8.927   0.384
85631SOL    HW258791   8.579   8.929   0.534
85632SOL     OW58792   3.594   3.953   8.328
85632SOL    HW158793   3.632   4.037   8.352
85632SOL    HW258794   3.669   3.896   8.310
85633SOL     OW58795  11.518  11.706  11.254
85633SOL    HW158796  11.438  11.671  11.214
85633SOL    HW258797  11.589  11.663  11.208
85634SOL     OW58798  10.135   1.275   5.989
85634SOL    HW158799  10.042   1.276   6.011
85634SOL    HW258800  10.175   1.221   6.057
85635SOL     OW58801  12.150   0.600  12.520
85635SOL    HW158802  12.150   0.565  12.430
85635SOL    HW258803  12.218   0.551  12.565
85636SOL     OW58804   9.594   9.264   3.111
85636SOL    HW158805   9.509   9.223   3.097
85636SOL    HW258806   9.609   9.317   3.032
85637SOL     OW58807  11.281   9.404   1.941
85637SOL    HW158808  11.221   9.367   2.006
85637SOL    HW258809  11.240   9.384   1.856
85638SOL     OW58810  13.341   8.360   6.986
85638SOL    HW158811  13.409   8.343   7.050
85638SOL    HW258812  13.270   8.300   7.009
85639SOL     OW58813  13.221   0.944  10.922
85639SOL    HW158814  13.151   0.878  10.915
85639SOL    HW258815  13.186   1.021  10.877
85640SOL     OW58816   8.062   8.136   8.638
85640SOL    HW158817   8.130   8.157   8.703
85640SOL    HW258818   8.000   8.209   8.644
85641SOL     OW58819  10.047  11.773   9.223
85641SOL    HW158820  10.126  11.793   9.274
85641SOL    HW258821   9.986  11.737   9.287
85642SOL     OW58822  14.329   1.302   7.997
85642SOL    HW158823  14.412   1.329   7.960
85642SOL    HW258824  14.271   1.377   7.986
85643SOL     OW58825   3.887   7.152   5.812
85643SOL    HW158826   3.903   7.084   5.877
85643SOL    HW258827   3.846   7.106   5.738
85644SOL     OW58828   9.982  13.875  10.135
85644SOL    HW158829   9.989  13.970  10.143
85644SOL    HW258830   9.968  13.859  10.042
85645SOL     OW58831   1.381   4.311  11.463
85645SOL    HW158832   1.330   4.294  11.384
85645SOL    HW258833   1.344   4.251  11.528
85646SOL     OW58834   1.833   1.435  12.826
85646SOL    HW158835   1.914   1.440  12.876
85646SOL    HW258836   1.860   1.448  12.735
85647SOL     OW58837  14.375   4.912   4.607
85647SOL    HW158838  14.454   4.965   4.621
85647SOL    HW258839  14.389   4.833   4.660
85648SOL     OW58840  11.289   2.589  10.436
85648SOL    HW158841  11.232   2.621  10.506
85648SOL    HW258842  11.317   2.502  10.465
85649SOL     OW58843   5.056   9.320  12.341
85649SOL    HW158844   4.980   9.375  12.320
85649SOL    HW258845   5.052   9.249  12.276
85650SOL     OW58846  13.162   1.791  11.302
85650SOL    HW158847  13.243   1.826  11.266
85650SOL    HW258848  13.112   1.763  11.226
85651SOL     OW58849   9.155   6.796   0.901
85651SOL    HW158850   9.090   6.808   0.832
85651SOL    HW258851   9.220   6.738   0.864
85652SOL     OW58852   7.307   9.810  11.797
85652SOL    HW158853   7.270   9.820  11.885
85652SOL    HW258854   7.387   9.862  11.798
85653SOL     OW58855  11.911  12.636   5.023
85653SOL    HW158856  11.859  12.644   5.103
85653SOL    HW258857  11.979  12.703   5.032
85654SOL     OW58858  14.346  10.892  13.549
85654SOL    HW158859  14.419  10.871  13.608
85654SOL    HW258860  14.268  10.878  13.602
85655SOL     OW58861   5.560  12.924  11.303
85655SOL    HW158862   5.650  12.942  11.277
85655SOL    HW258863   5.555  12.828  11.310
85656SOL     OW58864   4.517   5.039   8.454
85656SOL    HW158865   4.487   5.130   8.458
85656SOL    HW258866   4.568   5.027   8.534
85657SOL     OW58867  10.001   8.492   6.448
85657SOL    HW158868  10.019   8.404   6.415
85657SOL    HW258869   9.996   8.481   6.543
85658SOL     OW58870  12.928   8.227   5.715
85658SOL    HW158871  12.864   8.288   5.677
85658SOL    HW258872  12.935   8.157   5.651
85659SOL     OW58873  11.935   5.015  12.674
85659SOL    HW158874  11.887   5.098  12.664
85659SOL    HW258875  11.972   5.020  12.762
85660SOL     OW58876   5.771   8.217   8.808
85660SOL    HW158877   5.844   8.261   8.765
85660SOL    HW258878   5.723   8.174   8.736
85661SOL     OW58879   1.542   0.778  10.332
85661SOL    HW158880   1.486   0.767  10.410
85661SOL    HW258881   1.530   0.698  10.282
85662SOL     OW58882  14.564  14.597   8.466
85662SOL    HW158883  14.616  14.570   8.390
85662SOL    HW258884  14.600  14.683   8.490
85663SOL     OW58885   9.911  14.053   0.631
85663SOL    HW158886   9.852  13.980   0.651
85663SOL    HW258887   9.877  14.089   0.549
85664SOL     OW58888   3.849   8.466   5.503
85664SOL    HW158889   3.762   8.431   5.482
85664SOL    HW258890   3.901   8.389   5.524
85665SOL     OW58891   1.041   3.778   5.344
85665SOL    HW158892   1.069   3.805   5.257
85665SOL    HW258893   0.951   3.747   5.332
85666SOL     OW58894  12.276   9.339  11.262
85666SOL    HW158895  12.252   9.366  11.351
85666SOL    HW258896  12.247   9.248  11.256
85667SOL     OW58897   3.558   9.117   8.422
85667SOL    HW158898   3.486   9.058   8.445
85667SOL    HW258899   3.515   9.189   8.376
85668SOL     OW58900   3.142   8.470   5.185
85668SOL    HW158901   3.071   8.450   5.246
85668SOL    HW258902   3.216   8.495   5.242
85669SOL     OW58903  13.275   7.868   6.590
85669SOL    HW158904  13.243   7.884   6.679
85669SOL    HW258905  13.317   7.950   6.564
85670SOL     OW58906   5.522   0.818  13.927
85670SOL    HW158907   5.592   0.811  13.993
85670SOL    HW258908   5.490   0.908  13.936
85671SOL     OW58909  10.668   1.610   4.542
85671SOL    HW158910  10.607   1.621   4.469
85671SOL    HW258911  10.713   1.527   4.524
85672SOL     OW58912   3.608  14.324  12.407
85672SOL    HW158913   3.537  14.377  12.371
85672SOL    HW258914   3.677  14.328  12.341
85673SOL     OW58915   7.022  11.593   3.504
85673SOL    HW158916   6.940  11.639   3.521
85673SOL    HW258917   7.018  11.569   3.411
85674SOL     OW58918   5.008  13.940   3.838
85674SOL    HW158919   4.955  13.943   3.918
85674SOL    HW258920   5.082  13.885   3.860
85675SOL     OW58921   0.029   1.466   6.378
85675SOL    HW158922   0.036   1.372   6.367
85675SOL    HW258923   0.048   1.481   6.471
85676SOL     OW58924   2.395   8.452   2.734
85676SOL    HW158925   2.321   8.398   2.708
85676SOL    HW258926   2.467   8.390   2.746
85677SOL     OW58927   3.334   3.000  13.601
85677SOL    HW158928   3.384   2.976  13.679
85677SOL    HW258929   3.398   3.041  13.543
85678SOL     OW58930   0.332  13.244   9.099
85678SOL    HW158931   0.381  13.189   9.039
85678SOL    HW258932   0.334  13.331   9.059
85679SOL     OW58933   0.424   3.963   2.292
85679SOL    HW158934   0.348   4.015   2.319
85679SOL    HW258935   0.494   3.989   2.353
85680SOL     OW58936  14.256   0.485  11.521
85680SOL    HW158937  14.338   0.517  11.560
85680SOL    HW258938  14.221   0.425  11.588
85681SOL     OW58939   0.930   3.812   0.283
85681SOL    HW158940   0.967   3.770   0.361
85681SOL    HW258941   0.851   3.856   0.314
85682SOL     OW58942   1.151   7.657   6.126
85682SOL    HW158943   1.244   7.636   6.134
85682SOL    HW258944   1.108   7.572   6.126
85683SOL     OW58945  14.149   0.012   5.295
85683SOL    HW158946  14.211   0.070   5.338
85683SOL    HW258947  14.162   0.027   5.202
85684SOL     OW58948   9.797   4.140   7.371
85684SOL    HW158949   9.846   4.221   7.389
85684SOL    HW258950   9.706   4.165   7.383
85685SOL     OW58951   6.549   0.119   5.555
85685SOL    HW158952   6.637   0.140   5.586
85685SOL    HW258953   6.537   0.176   5.479
85686SOL     OW58954  13.298   5.272  11.208
85686SOL    HW158955  13.306   5.307  11.297
85686SOL    HW258956  13.290   5.178  11.221
85687SOL     OW58957   7.586   5.864  12.706
85687SOL    HW158958   7.673   5.898  12.726
85687SOL    HW258959   7.575   5.880  12.612
85688SOL     OW58960   8.786   5.209  10.187
85688SOL    HW158961   8.805   5.300  10.162
85688SOL    HW258962   8.707   5.215  10.241
85689SOL     OW58963   3.285   9.446   2.091
85689SOL    HW158964   3.250   9.487   2.011
85689SOL    HW258965   3.378   9.435   2.074
85690SOL     OW58966  12.942   4.348   1.635
85690SOL    HW158967  12.990   4.418   1.591
85690SOL    HW258968  12.850   4.372   1.626
85691SOL     OW58969  13.202   0.843  13.342
85691SOL    HW158970  13.255   0.883  13.410
85691SOL    HW258971  13.192   0.911  13.276
85692SOL     OW58972  11.322  10.534  10.502
85692SOL    HW158973  11.330  10.630  10.497
85692SOL    HW258974  11.380  10.502  10.433
85693SOL     OW58975  10.967   1.248   5.634
85693SOL    HW158976  10.991   1.162   5.600
85693SOL    HW258977  10.876   1.259   5.606
85694SOL     OW58978  10.175  14.012  11.574
85694SOL    HW158979  10.210  13.992  11.488
85694SOL    HW258980  10.080  14.008  11.563
85695SOL     OW58981   7.963  12.323   5.858
85695SOL    HW158982   7.933  12.303   5.770
85695SOL    HW258983   8.007  12.244   5.887
85696SOL     OW58984  13.897   5.551   6.797
85696SOL    HW158985  13.841   5.626   6.775
85696SOL    HW258986  13.847   5.474   6.768
85697SOL     OW58987   2.262  12.110   1.335
85697SOL    HW158988   2.202  12.061   1.392
85697SOL    HW258989   2.272  12.055   1.257
85698SOL     OW58990   3.544   4.960  11.766
85698SOL    HW158991   3.611   4.915  11.817
85698SOL    HW258992   3.525   5.039  11.817
85699SOL     OW58993  13.893   3.394  11.348
85699SOL    HW158994  13.877   3.340  11.270
85699SOL    HW258995  13.900   3.330  11.420
85700SOL     OW58996   4.074   7.854   2.992
85700SOL    HW158997   4.117   7.772   3.018
85700SOL    HW258998   4.139   7.899   2.938
85701SOL     OW58999  14.063   8.917  12.663
85701SOL    HW159000  14.077   9.003  12.704
85701SOL    HW259001  14.033   8.938  12.574
85702SOL     OW59002   5.728   3.350   4.309
85702SOL    HW159003   5.808   3.402   4.302
85702SOL    HW259004   5.657   3.415   4.307
85703SOL     OW59005  10.420   1.659   2.007
85703SOL    HW159006  10.418   1.607   2.087
85703SOL    HW259007  10.437   1.596   1.937
85704SOL     OW59008  12.955   1.811  13.580
85704SOL    HW159009  12.992   1.757  13.511
85704SOL    HW259010  12.890   1.865  13.536
85705SOL     OW59011  12.782  12.220   7.503
85705SOL    HW159012  12.740  12.294   7.546
85705SOL    HW259013  12.870  12.252   7.481
85706SOL     OW59014   5.647   5.365  12.507
85706SOL    HW159015   5.595   5.438  12.473
85706SOL    HW259016   5.674   5.316  12.429
85707SOL     OW59017   0.014   9.472   6.381
85707SOL    HW159018   0.029   9.559   6.346
85707SOL    HW259019  14.867   9.417   6.303
85708SOL     OW59020   8.016  12.975   2.913
85708SOL    HW159021   8.082  13.007   2.850
85708SOL    HW259022   7.933  12.979   2.865
85709SOL     OW59023   6.180  11.479   8.916
85709SOL    HW159024   6.234  11.519   8.848
85709SOL    HW259025   6.138  11.553   8.960
85710SOL     OW59026   3.158   6.016   0.742
85710SOL    HW159027   3.172   6.088   0.803
85710SOL    HW259028   3.067   6.025   0.714
85711SOL     OW59029  14.444  12.564   4.951
85711SOL    HW159030  14.528  12.517   4.957
85711SOL    HW259031  14.419  12.580   5.042
85712SOL     OW59032   0.737  11.334   9.281
85712SOL    HW159033   0.663  11.384   9.246
85712SOL    HW259034   0.754  11.268   9.214
85713SOL     OW59035  12.468   5.603   3.692
85713SOL    HW159036  12.440   5.629   3.780
85713SOL    HW259037  12.390   5.564   3.653
85714SOL     OW59038   3.001   3.901   2.574
85714SOL    HW159039   3.040   3.936   2.494
85714SOL    HW259040   3.058   3.829   2.600
85715SOL     OW59041  10.560  13.515   1.190
85715SOL    HW159042  10.585  13.597   1.147
85715SOL    HW259043  10.612  13.514   1.271
85716SOL     OW59044  14.666   9.522  12.358
85716SOL    HW159045  14.596   9.586  12.353
85716SOL    HW259046  14.624   9.442  12.390
85717SOL     OW59047   3.016   7.746   5.710
85717SOL    HW159048   3.092   7.798   5.737
85717SOL    HW259049   3.052   7.682   5.648
85718SOL     OW59050   8.111   8.431   5.775
85718SOL    HW159051   8.117   8.379   5.695
85718SOL    HW259052   8.060   8.377   5.836
85719SOL     OW59053   2.959  11.113   4.266
85719SOL    HW159054   2.904  11.055   4.319
85719SOL    HW259055   2.898  11.163   4.213
85720SOL     OW59056   9.987   0.121   7.079
85720SOL    HW159057  10.030   0.081   7.004
85720SOL    HW259058   9.893   0.113   7.060
85721SOL     OW59059   6.499   8.000   0.978
85721SOL    HW159060   6.450   7.945   1.040
85721SOL    HW259061   6.435   8.023   0.911
85722SOL     OW59062   1.680   6.348   9.241
85722SOL    HW159063   1.681   6.366   9.335
85722SOL    HW259064   1.704   6.431   9.200
85723SOL     OW59065  13.549  10.673   2.226
85723SOL    HW159066  13.513  10.660   2.314
85723SOL    HW259067  13.575  10.765   2.224
85724SOL     OW59068   5.771  10.564  13.480
85724SOL    HW159069   5.697  10.504  13.477
85724SOL    HW259070   5.848  10.507  13.478
85725SOL     OW59071  12.651   6.919   8.458
85725SOL    HW159072  12.642   6.951   8.368
85725SOL    HW259073  12.729   6.864   8.456
85726SOL     OW59074   0.936   3.895   1.666
85726SOL    HW159075   0.918   3.813   1.712
85726SOL    HW259076   0.926   3.963   1.733
85727SOL     OW59077   8.592  13.115   5.223
85727SOL    HW159078   8.587  13.088   5.131
85727SOL    HW259079   8.593  13.033   5.272
85728SOL     OW59080  14.051   2.903   4.364
85728SOL    HW159081  14.009   2.817   4.360
85728SOL    HW259082  14.059   2.922   4.457
85729SOL     OW59083  10.445  11.900   8.422
85729SOL    HW159084  10.351  11.884   8.427
85729SOL    HW259085  10.484  11.833   8.478
85730SOL     OW59086   2.994  14.554   8.049
85730SOL    HW159087   2.995  14.647   8.027
85730SOL    HW259088   2.974  14.552   8.143
85731SOL     OW59089   5.128  12.068   8.382
85731SOL    HW159090   5.189  12.078   8.309
85731SOL    HW259091   5.115  11.974   8.390
85732SOL     OW59092   6.257  11.437  10.571
85732SOL    HW159093   6.303  11.353  10.570
85732SOL    HW259094   6.307  11.493  10.512
85733SOL     OW59095   8.287   3.773   2.484
85733SOL    HW159096   8.211   3.716   2.470
85733SOL    HW259097   8.256   3.860   2.459
85734SOL     OW59098   6.025   1.439   7.365
85734SOL    HW159099   6.100   1.447   7.424
85734SOL    HW259100   5.968   1.512   7.389
85735SOL     OW59101   5.391   4.281   1.163
85735SOL    HW159102   5.297   4.297   1.172
85735SOL    HW259103   5.417   4.331   1.086
85736SOL     OW59104  10.146  10.373   2.389
85736SOL    HW159105  10.125  10.291   2.434
85736SOL    HW259106  10.231  10.399   2.425
85737SOL     OW59107   4.727  12.640   8.158
85737SOL    HW159108   4.819  12.663   8.154
85737SOL    HW259109   4.725  12.545   8.142
85738SOL     OW59110   4.376   7.156  11.192
85738SOL    HW159111   4.388   7.167  11.098
85738SOL    HW259112   4.359   7.244  11.225
85739SOL     OW59113   2.515   8.032   5.072
85739SOL    HW159114   2.591   8.011   5.125
85739SOL    HW259115   2.513   8.127   5.068
85740SOL     OW59116  13.234   4.814   1.472
85740SOL    HW159117  13.166   4.874   1.439
85740SOL    HW259118  13.271   4.860   1.547
85741SOL     OW59119   1.100   5.764  14.041
85741SOL    HW159120   1.168   5.828  14.020
85741SOL    HW259121   1.062   5.741  13.957
85742SOL     OW59122  13.929   9.076  13.690
85742SOL    HW159123  13.918   9.140  13.761
85742SOL    HW259124  13.842   9.037  13.679
85743SOL     OW59125   7.268  14.348   6.215
85743SOL    HW159126   7.344  14.351   6.157
85743SOL    HW259127   7.257  14.256   6.236
85744SOL     OW59128   3.267   0.769   5.352
85744SOL    HW159129   3.213   0.847   5.364
85744SOL    HW259130   3.209   0.697   5.378
85745SOL     OW59131  10.209  10.791  13.559
85745SOL    HW159132  10.302  10.773  13.577
85745SOL    HW259133  10.207  10.885  13.539
85746SOL     OW59134   5.315   0.884   2.609
85746SOL    HW159135   5.296   0.964   2.659
85746SOL    HW259136   5.242   0.825   2.630
85747SOL     OW59137   7.803   5.121   2.248
85747SOL    HW159138   7.727   5.165   2.287
85747SOL    HW259139   7.768   5.038   2.215
85748SOL     OW59140   1.574   3.760   3.717
85748SOL    HW159141   1.552   3.845   3.680
85748SOL    HW259142   1.611   3.711   3.645
85749SOL     OW59143  11.265   2.777   3.022
85749SOL    HW159144  11.291   2.864   3.053
85749SOL    HW259145  11.179   2.762   3.061
85750SOL     OW59146   9.186   7.732  13.853
85750SOL    HW159147   9.254   7.696  13.796
85750SOL    HW259148   9.123   7.660  13.864
85751SOL     OW59149   1.080  11.216  14.651
85751SOL    HW159150   1.042  11.255  14.572
85751SOL    HW259151   1.159  11.172  14.620
85752SOL     OW59152  13.109   7.959   9.660
85752SOL    HW159153  13.049   7.890   9.632
85752SOL    HW259154  13.053   8.023   9.704
85753SOL     OW59155   6.861   2.311   4.436
85753SOL    HW159156   6.884   2.370   4.364
85753SOL    HW259157   6.767   2.296   4.425
85754SOL     OW59158  14.358   0.179   3.219
85754SOL    HW159159  14.331   0.225   3.298
85754SOL    HW259160  14.330   0.235   3.147
85755SOL     OW59161   5.299   5.939   4.106
85755SOL    HW159162   5.219   5.981   4.138
85755SOL    HW259163   5.350   5.921   4.185
85756SOL     OW59164   6.089  11.299  14.299
85756SOL    HW159165   6.111  11.355  14.374
85756SOL    HW259166   6.113  11.211  14.327
85757SOL     OW59167   6.956   6.451   3.355
85757SOL    HW159168   6.893   6.444   3.428
85757SOL    HW259169   6.918   6.395   3.287
85758SOL     OW59170   7.018   0.484   1.089
85758SOL    HW159171   7.066   0.516   1.165
85758SOL    HW259172   7.050   0.395   1.075
85759SOL     OW59173   4.958   4.031   6.150
85759SOL    HW159174   4.914   3.964   6.201
85759SOL    HW259175   5.007   4.082   6.214
85760SOL     OW59176   0.409   2.848   4.514
85760SOL    HW159177   0.342   2.902   4.556
85760SOL    HW259178   0.460   2.909   4.461
85761SOL     OW59179   6.448  13.401  11.709
85761SOL    HW159180   6.357  13.381  11.732
85761SOL    HW259181   6.441  13.448  11.625
85762SOL     OW59182  12.429   6.200   0.238
85762SOL    HW159183  12.412   6.188   0.144
85762SOL    HW259184  12.517   6.164   0.251
85763SOL     OW59185  12.468   2.456   0.127
85763SOL    HW159186  12.458   2.550   0.109
85763SOL    HW259187  12.532   2.426   0.062
85764SOL     OW59188   0.736   1.181   1.921
85764SOL    HW159189   0.681   1.253   1.889
85764SOL    HW259190   0.820   1.223   1.940
85765SOL     OW59191   3.803   2.595   9.545
85765SOL    HW159192   3.823   2.503   9.567
85765SOL    HW259193   3.885   2.642   9.563
85766SOL     OW59194   1.088   0.332   6.955
85766SOL    HW159195   1.070   0.422   6.982
85766SOL    HW259196   1.001   0.292   6.945
85767SOL     OW59197   9.175  14.370  14.242
85767SOL    HW159198   9.175  14.404  14.152
85767SOL    HW259199   9.229  14.292  14.238
85768SOL     OW59200   4.420   9.840  11.713
85768SOL    HW159201   4.405   9.767  11.652
85768SOL    HW259202   4.359   9.908  11.683
85769SOL     OW59203   2.760  11.160  11.628
85769SOL    HW159204   2.826  11.169  11.558
85769SOL    HW259205   2.701  11.092  11.597
85770SOL     OW59206   6.193  10.121  12.435
85770SOL    HW159207   6.275  10.145  12.477
85770SOL    HW259208   6.219  10.064  12.363
85771SOL     OW59209   0.600   2.355   1.392
85771SOL    HW159210   0.586   2.269   1.432
85771SOL    HW259211   0.523   2.368   1.336
85772SOL     OW59212  10.805   0.356  11.222
85772SOL    HW159213  10.723   0.384  11.182
85772SOL    HW259214  10.780   0.320  11.307
85773SOL     OW59215   3.471   8.562  12.747
85773SOL    HW159216   3.465   8.657  12.731
85773SOL    HW259217   3.532   8.555  12.821
85774SOL     OW59218   2.723   6.122   6.487
85774SOL    HW159219   2.794   6.144   6.547
85774SOL    HW259220   2.677   6.049   6.529
85775SOL     OW59221  13.111   6.322   3.998
85775SOL    HW159222  13.167   6.388   4.038
85775SOL    HW259223  13.164   6.285   3.927
85776SOL     OW59224   9.443   4.018   3.011
85776SOL    HW159225   9.453   4.014   2.916
85776SOL    HW259226   9.409   4.106   3.028
85777SOL     OW59227   7.682   4.968  14.644
85777SOL    HW159228   7.706   5.053  14.682
85777SOL    HW259229   7.738   4.959  14.567
85778SOL     OW59230  11.264   7.277   3.449
85778SOL    HW159231  11.201   7.280   3.377
85778SOL    HW259232  11.211   7.258   3.527
85779SOL     OW59233   4.877   9.239  11.465
85779SOL    HW159234   4.893   9.235  11.370
85779SOL    HW259235   4.807   9.175  11.479
85780SOL     OW59236   0.238   1.943  10.617
85780SOL    HW159237   0.229   1.848  10.631
85780SOL    HW259238   0.273   1.977  10.699
85781SOL     OW59239   0.053  12.683  13.557
85781SOL    HW159240   0.006  12.653  13.635
85781SOL    HW259241   0.066  12.604  13.505
85782SOL     OW59242   0.628   6.030   9.377
85782SOL    HW159243   0.689   6.068   9.314
85782SOL    HW259244   0.594   5.951   9.334
85783SOL     OW59245   7.423   3.440   3.648
85783SOL    HW159246   7.331   3.447   3.673
85783SOL    HW259247   7.447   3.528   3.620
85784SOL     OW59248   8.184  12.898  10.452
85784SOL    HW159249   8.136  12.840  10.511
85784SOL    HW259250   8.188  12.982  10.499
85785SOL     OW59251   5.523  11.389  13.082
85785SOL    HW159252   5.449  11.438  13.117
85785SOL    HW259253   5.515  11.302  13.122
85786SOL     OW59254   5.695   7.443   4.432
85786SOL    HW159255   5.699   7.440   4.337
85786SOL    HW259256   5.783   7.470   4.459
85787SOL     OW59257  11.377   9.341   1.252
85787SOL    HW159258  11.420   9.258   1.275
85787SOL    HW259259  11.326   9.319   1.174
85788SOL     OW59260  13.686   1.410  12.265
85788SOL    HW159261  13.727   1.489  12.228
85788SOL    HW259262  13.759   1.351  12.282
85789SOL     OW59263   3.515   2.852  11.670
85789SOL    HW159264   3.528   2.869  11.577
85789SOL    HW259265   3.427   2.885  11.688
85790SOL     OW59266   7.884  13.053   9.969
85790SOL    HW159267   7.949  13.001  10.017
85790SOL    HW259268   7.895  13.142  10.001
85791SOL     OW59269   9.546  11.757   1.903
85791SOL    HW159270   9.451  11.768   1.903
85791SOL    HW259271   9.570  11.751   1.811
85792SOL     OW59272   1.464   2.943   9.490
85792SOL    HW159273   1.516   3.017   9.522
85792SOL    HW259274   1.502   2.923   9.404
85793SOL     OW59275  12.759   3.943   2.649
85793SOL    HW159276  12.830   3.923   2.588
85793SOL    HW259277  12.735   4.034   2.629
85794SOL     OW59278   9.642   5.848  14.471
85794SOL    HW159279   9.705   5.873  14.539
85794SOL    HW259280   9.594   5.928  14.453
85795SOL     OW59281   1.727   4.952   4.695
85795SOL    HW159282   1.753   4.977   4.783
85795SOL    HW259283   1.738   4.857   4.692
85796SOL     OW59284   7.345  10.335   9.341
85796SOL    HW159285   7.259  10.295   9.332
85796SOL    HW259286   7.348  10.364   9.432
85797SOL     OW59287   7.187   4.895   9.045
85797SOL    HW159288   7.101   4.922   9.078
85797SOL    HW259289   7.247   4.913   9.118
85798SOL     OW59290   7.606  10.006  12.213
85798SOL    HW159291   7.629   9.996  12.305
85798SOL    HW259292   7.604  10.100  12.198
85799SOL     OW59293   4.583   9.124   9.913
85799SOL    HW159294   4.558   9.205   9.958
85799SOL    HW259295   4.544   9.054   9.965
85800SOL     OW59296   3.907   3.906  14.042
85800SOL    HW159297   3.993   3.869  14.060
85800SOL    HW259298   3.897   3.899  13.947
85801SOL     OW59299  13.276   6.033   4.701
85801SOL    HW159300  13.204   6.088   4.673
85801SOL    HW259301  13.235   5.951   4.728
85802SOL     OW59302   7.686  10.081   1.957
85802SOL    HW159303   7.774  10.067   1.922
85802SOL    HW259304   7.698  10.086   2.052
85803SOL     OW59305  10.019   8.985  12.910
85803SOL    HW159306   9.941   8.998  12.965
85803SOL    HW259307  10.053   8.900  12.936
85804SOL     OW59308  12.982  10.583  10.506
85804SOL    HW159309  13.038  10.544  10.574
85804SOL    HW259310  12.912  10.519  10.493
85805SOL     OW59311  13.712  11.034   3.642
85805SOL    HW159312  13.769  11.074   3.576
85805SOL    HW259313  13.638  10.999   3.592
85806SOL     OW59314   9.548   4.824   6.850
85806SOL    HW159315   9.466   4.799   6.892
85806SOL    HW259316   9.526   4.835   6.758
85807SOL     OW59317   7.704   3.669   5.490
85807SOL    HW159318   7.720   3.601   5.555
85807SOL    HW259319   7.714   3.624   5.406
85808SOL     OW59320   7.607   3.394  11.984
85808SOL    HW159321   7.656   3.418  11.905
85808SOL    HW259322   7.562   3.475  12.009
85809SOL     OW59323   4.156   6.174   5.185
85809SOL    HW159324   4.162   6.204   5.094
85809SOL    HW259325   4.210   6.095   5.187
85810SOL     OW59326   9.934   7.183  10.035
85810SOL    HW159327   9.946   7.277  10.022
85810SOL    HW259328   9.928   7.147   9.947
85811SOL     OW59329   0.306   8.421   2.229
85811SOL    HW159330   0.248   8.492   2.203
85811SOL    HW259331   0.358   8.403   2.151
85812SOL     OW59332   1.536   6.595  13.462
85812SOL    HW159333   1.529   6.585  13.557
85812SOL    HW259334   1.591   6.522  13.434
85813SOL     OW59335   2.684   1.633  12.329
85813SOL    HW159336   2.668   1.718  12.288
85813SOL    HW259337   2.775   1.637  12.358
85814SOL     OW59338   3.068   4.371  13.724
85814SOL    HW159339   3.133   4.387  13.793
85814SOL    HW259340   3.050   4.457  13.688
85815SOL     OW59341   0.163  13.935  10.782
85815SOL    HW159342   0.119  14.020  10.779
85815SOL    HW259343   0.203  13.932  10.869
85816SOL     OW59344   4.206   4.740   0.998
85816SOL    HW159345   4.301   4.732   1.007
85816SOL    HW259346   4.191   4.834   0.986
85817SOL     OW59347   2.984   9.146   7.905
85817SOL    HW159348   2.904   9.162   7.955
85817SOL    HW259349   2.964   9.176   7.816
85818SOL     OW59350  13.040   3.531  12.151
85818SOL    HW159351  13.043   3.569  12.238
85818SOL    HW259352  12.985   3.590  12.100
85819SOL     OW59353   7.399   5.199   7.471
85819SOL    HW159354   7.415   5.106   7.484
85819SOL    HW259355   7.370   5.232   7.556
85820SOL     OW59356  13.333   9.362   2.623
85820SOL    HW159357  13.394   9.424   2.665
85820SOL    HW259358  13.301   9.410   2.546
85821SOL     OW59359  13.597   9.720   7.903
85821SOL    HW159360  13.521   9.775   7.919
85821SOL    HW259361  13.585   9.645   7.961
85822SOL     OW59362   4.156   4.538   0.797
85822SOL    HW159363   4.160   4.581   0.883
85822SOL    HW259364   4.068   4.560   0.764
85823SOL     OW59365   3.469  11.228  14.581
85823SOL    HW159366   3.557  11.259  14.601
85823SOL    HW259367   3.454  11.256  14.490
85824SOL     OW59368  14.331   3.856   8.456
85824SOL    HW159369  14.268   3.900   8.399
85824SOL    HW259370  14.324   3.764   8.432
85825SOL     OW59371   5.446  11.802   1.042
85825SOL    HW159372   5.508  11.857   0.994
85825SOL    HW259373   5.485  11.715   1.040
85826SOL     OW59374   1.451   3.572   7.652
85826SOL    HW159375   1.374   3.621   7.679
85826SOL    HW259376   1.453   3.495   7.710
85827SOL     OW59377   3.428   7.665  13.188
85827SOL    HW159378   3.511   7.698  13.154
85827SOL    HW259379   3.397   7.735  13.246
85828SOL     OW59380  11.788   6.739  11.604
85828SOL    HW159381  11.816   6.798  11.534
85828SOL    HW259382  11.692   6.748  11.605
85829SOL     OW59383   4.239  13.659   5.803
85829SOL    HW159384   4.331  13.671   5.780
85829SOL    HW259385   4.201  13.746   5.794
85830SOL     OW59386   3.665  11.250   1.281
85830SOL    HW159387   3.705  11.185   1.223
85830SOL    HW259388   3.572  11.227   1.282
85831SOL     OW59389   5.151   3.182   6.632
85831SOL    HW159390   5.239   3.186   6.595
85831SOL    HW259391   5.145   3.259   6.688
85832SOL     OW59392   4.022  12.972   1.265
85832SOL    HW159393   4.111  12.975   1.302
85832SOL    HW259394   3.965  12.969   1.341
85833SOL     OW59395  13.381   8.630   3.488
85833SOL    HW159396  13.376   8.557   3.549
85833SOL    HW259397  13.446   8.602   3.423
85834SOL     OW59398   5.568  12.308  12.015
85834SOL    HW159399   5.528  12.378  11.964
85834SOL    HW259400   5.563  12.338  12.106
85835SOL     OW59401   0.726  13.942   4.544
85835SOL    HW159402   0.702  13.861   4.587
85835SOL    HW259403   0.791  13.982   4.602
85836SOL     OW59404  12.893  12.418   6.244
85836SOL    HW159405  12.955  12.473   6.292
85836SOL    HW259406  12.943  12.388   6.167
85837SOL     OW59407   4.227   7.458   7.886
85837SOL    HW159408   4.244   7.364   7.882
85837SOL    HW259409   4.304   7.498   7.846
85838SOL     OW59410   4.183   4.743   8.954
85838SOL    HW159411   4.139   4.722   9.037
85838SOL    HW259412   4.181   4.838   8.949
85839SOL     OW59413  12.834  11.623   7.024
85839SOL    HW159414  12.779  11.546   7.010
85839SOL    HW259415  12.867  11.645   6.936
85840SOL     OW59416   1.371  12.364   6.513
85840SOL    HW159417   1.462  12.384   6.492
85840SOL    HW259418   1.335  12.446   6.547
85841SOL     OW59419   7.985   9.198   2.226
85841SOL    HW159420   8.050   9.132   2.251
85841SOL    HW259421   7.945   9.225   2.309
85842SOL     OW59422  13.417   4.302  14.358
85842SOL    HW159423  13.418   4.329  14.449
85842SOL    HW259424  13.451   4.213  14.359
85843SOL     OW59425  12.635  13.847   9.787
85843SOL    HW159426  12.704  13.912   9.778
85843SOL    HW259427  12.594  13.866   9.872
85844SOL     OW59428   5.753   2.008   5.541
85844SOL    HW159429   5.818   2.065   5.500
85844SOL    HW259430   5.674   2.021   5.489
85845SOL     OW59431   1.859  13.087   9.393
85845SOL    HW159432   1.940  13.133   9.371
85845SOL    HW259433   1.861  13.008   9.339
85846SOL     OW59434   5.101   0.933  11.803
85846SOL    HW159435   5.133   0.887  11.881
85846SOL    HW259436   5.178   0.941  11.747
85847SOL     OW59437   8.475  13.182  10.564
85847SOL    HW159438   8.540  13.209  10.500
85847SOL    HW259439   8.522  13.123  10.623
85848SOL     OW59440   7.935   7.329   5.309
85848SOL    HW159441   7.846   7.295   5.314
85848SOL    HW259442   7.956   7.353   5.399
85849SOL     OW59443  14.126   6.205   5.330
85849SOL    HW159444  14.129   6.155   5.411
85849SOL    HW259445  14.035   6.233   5.322
85850SOL     OW59446   6.729  11.580  11.684
85850SOL    HW159447   6.734  11.485  11.693
85850SOL    HW259448   6.792  11.600  11.615
85851SOL     OW59449  12.459   7.691   3.335
85851SOL    HW159450  12.538   7.654   3.374
85851SOL    HW259451  12.457   7.654   3.247
85852SOL     OW59452  12.463   8.199  11.152
85852SOL    HW159453  12.459   8.254  11.231
85852SOL    HW259454  12.475   8.261  11.081
85853SOL     OW59455  10.346  14.076   1.812
85853SOL    HW159456  10.432  14.118   1.810
85853SOL    HW259457  10.344  14.022   1.733
85854SOL     OW59458   4.726  14.535  11.245
85854SOL    HW159459   4.684  14.542  11.331
85854SOL    HW259460   4.714  14.443  11.220
85855SOL     OW59461   0.578  11.270   1.138
85855SOL    HW159462   0.579  11.344   1.198
85855SOL    HW259463   0.665  11.231   1.146
85856SOL     OW59464   1.820  13.401  13.327
85856SOL    HW159465   1.891  13.466  13.327
85856SOL    HW259466   1.744  13.449  13.359
85857SOL     OW59467   7.635   0.344   9.259
85857SOL    HW159468   7.677   0.423   9.292
85857SOL    HW259469   7.630   0.357   9.164
85858SOL     OW59470  12.037  11.441   9.510
85858SOL    HW159471  12.081  11.450   9.595
85858SOL    HW259472  12.009  11.349   9.508
85859SOL     OW59473   4.837   9.508   5.975
85859SOL    HW159474   4.929   9.486   5.965
85859SOL    HW259475   4.791   9.426   5.957
85860SOL     OW59476   5.882  10.430  14.070
85860SOL    HW159477   5.977  10.432  14.082
85860SOL    HW259478   5.870  10.446  13.977
85861SOL     OW59479   1.477  10.687  11.613
85861SOL    HW159480   1.469  10.690  11.517
85861SOL    HW259481   1.395  10.648  11.642
85862SOL     OW59482  13.367  12.838  12.491
85862SOL    HW159483  13.283  12.841  12.538
85862SOL    HW259484  13.376  12.746  12.465
85863SOL     OW59485   4.877   8.425   4.059
85863SOL    HW159486   4.938   8.481   4.011
85863SOL    HW259487   4.923   8.402   4.139
85864SOL     OW59488  12.808   6.474   5.530
85864SOL    HW159489  12.727   6.517   5.556
85864SOL    HW259490  12.841   6.525   5.456
85865SOL     OW59491   9.744   6.972  13.064
85865SOL    HW159492   9.783   6.985  13.150
85865SOL    HW259493   9.815   6.936  13.011
85866SOL     OW59494  14.740   8.604  11.975
85866SOL    HW159495  14.693   8.604  11.892
85866SOL    HW259496  14.820   8.653  11.957
85867SOL     OW59497  11.061   5.513   2.922
85867SOL    HW159498  11.014   5.544   2.999
85867SOL    HW259499  11.020   5.430   2.900
85868SOL     OW59500  12.873   8.674   8.825
85868SOL    HW159501  12.824   8.645   8.902
85868SOL    HW259502  12.958   8.702   8.859
85869SOL     OW59503   7.589  12.453   9.427
85869SOL    HW159504   7.668  12.478   9.379
85869SOL    HW259505   7.617  12.447   9.518
85870SOL     OW59506  12.774  12.236   3.832
85870SOL    HW159507  12.742  12.296   3.900
85870SOL    HW259508  12.866  12.260   3.822
85871SOL     OW59509  14.009  13.775   8.988
85871SOL    HW159510  13.989  13.683   8.976
85871SOL    HW259511  14.098  13.786   8.954
85872SOL     OW59512  14.273   9.399  12.919
85872SOL    HW159513  14.357   9.425  12.882
85872SOL    HW259514  14.211   9.405  12.846
85873SOL     OW59515   5.542  11.898   3.185
85873SOL    HW159516   5.472  11.834   3.173
85873SOL    HW259517   5.506  11.979   3.150
85874SOL     OW59518   9.197   9.381   3.860
85874SOL    HW159519   9.233   9.365   3.773
85874SOL    HW259520   9.173   9.473   3.860
85875SOL     OW59521   4.268   3.490   2.737
85875SOL    HW159522   4.244   3.583   2.743
85875SOL    HW259523   4.306   3.480   2.650
85876SOL     OW59524   5.080  11.723   7.115
85876SOL    HW159525   5.124  11.805   7.135
85876SOL    HW259526   5.149  11.657   7.122
85877SOL     OW59527  14.642   6.281   7.494
85877SOL    HW159528  14.559   6.319   7.525
85877SOL    HW259529  14.709   6.334   7.537
85878SOL     OW59530  12.090   3.987  12.454
85878SOL    HW159531  12.173   3.941  12.465
85878SOL    HW259532  12.114   4.079  12.444
85879SOL     OW59533   2.969   4.140   5.415
85879SOL    HW159534   3.034   4.088   5.367
85879SOL    HW259535   2.888   4.090   5.406
85880SOL     OW59536   7.804  10.003   5.941
85880SOL    HW159537   7.807  10.038   6.030
85880SOL    HW259538   7.851   9.920   5.946
85881SOL     OW59539   7.555   6.192   3.502
85881SOL    HW159540   7.533   6.179   3.594
85881SOL    HW259541   7.589   6.282   3.498
85882SOL     OW59542   0.364   6.735   2.243
85882SOL    HW159543   0.345   6.809   2.301
85882SOL    HW259544   0.422   6.770   2.176
85883SOL     OW59545  10.613  13.810   6.588
85883SOL    HW159546  10.708  13.819   6.587
85883SOL    HW259547  10.584  13.859   6.665
85884SOL     OW59548   3.077  14.826   2.135
85884SOL    HW159549   3.113   0.046   2.123
85884SOL    HW259550   3.001  14.823   2.076
85885SOL     OW59551  10.679   3.223  14.533
85885SOL    HW159552  10.615   3.169  14.577
85885SOL    HW259553  10.688   3.185  14.446
85886SOL     OW59554  12.497   0.182   9.216
85886SOL    HW159555  12.427   0.214   9.273
85886SOL    HW259556  12.491   0.236   9.137
85887SOL     OW59557   9.507   8.518  10.892
85887SOL    HW159558   9.479   8.582  10.827
85887SOL    HW259559   9.502   8.434  10.846
85888SOL     OW59560  10.817   9.711  11.070
85888SOL    HW159561  10.749   9.649  11.097
85888SOL    HW259562  10.877   9.658  11.017
85889SOL     OW59563   5.671   6.191   0.439
85889SOL    HW159564   5.682   6.235   0.523
85889SOL    HW259565   5.588   6.224   0.405
85890SOL     OW59566   0.813  13.396   7.953
85890SOL    HW159567   0.739  13.456   7.958
85890SOL    HW259568   0.883  13.446   7.911
85891SOL     OW59569  13.960   6.736   4.893
85891SOL    HW159570  13.893   6.673   4.868
85891SOL    HW259571  14.015   6.743   4.815
85892SOL     OW59572   4.123   6.214   2.193
85892SOL    HW159573   4.034   6.240   2.166
85892SOL    HW259574   4.175   6.294   2.181
85893SOL     OW59575  12.318  12.385   3.356
85893SOL    HW159576  12.239  12.345   3.394
85893SOL    HW259577  12.292  12.475   3.337
85894SOL     OW59578   7.865   2.763   4.717
85894SOL    HW159579   7.906   2.707   4.652
85894SOL    HW259580   7.771   2.746   4.709
85895SOL     OW59581   9.467   0.276   0.210
85895SOL    HW159582   9.533   0.245   0.271
85895SOL    HW259583   9.513   0.283   0.126
85896SOL     OW59584  13.948   3.850   1.915
85896SOL    HW159585  14.002   3.922   1.947
85896SOL    HW259586  14.002   3.772   1.927
85897SOL     OW59587   4.298   6.405   3.083
85897SOL    HW159588   4.262   6.326   3.123
85897SOL    HW259589   4.310   6.465   3.156
85898SOL     OW59590  11.705  12.275   1.518
85898SOL    HW159591  11.632  12.317   1.472
85898SOL    HW259592  11.783  12.307   1.475
85899SOL     OW59593  12.606  11.116   1.385
85899SOL    HW159594  12.696  11.147   1.378
85899SOL    HW259595  12.558  11.164   1.318
85900SOL     OW59596  11.220   6.195   5.128
85900SOL    HW159597  11.286   6.135   5.095
85900SOL    HW259598  11.146   6.139   5.152
85901SOL     OW59599   4.516  14.391   3.809
85901SOL    HW159600   4.469  14.470   3.782
85901SOL    HW259601   4.608  14.416   3.807
85902SOL     OW59602   4.256   0.720  14.548
85902SOL    HW159603   4.191   0.714  14.477
85902SOL    HW259604   4.339   0.700  14.505
85903SOL     OW59605   7.669  11.182  12.092
85903SOL    HW159606   7.762  11.197  12.111
85903SOL    HW259607   7.647  11.102  12.140
85904SOL     OW59608   1.923  10.639   4.274
85904SOL    HW159609   1.954  10.572   4.212
85904SOL    HW259610   1.892  10.589   4.350
85905SOL     OW59611   6.741   7.617   8.030
85905SOL    HW159612   6.741   7.661   8.115
85905SOL    HW259613   6.653   7.631   7.996
85906SOL     OW59614  10.173   6.425   9.071
85906SOL    HW159615  10.195   6.461   9.157
85906SOL    HW259616  10.253   6.437   9.019
85907SOL     OW59617   2.887   7.244   6.178
85907SOL    HW159618   2.853   7.178   6.238
85907SOL    HW259619   2.812   7.270   6.125
85908SOL     OW59620  11.025  13.427  10.456
85908SOL    HW159621  11.034  13.412  10.550
85908SOL    HW259622  11.077  13.357  10.416
85909SOL     OW59623   4.394   9.767  13.498
85909SOL    HW159624   4.417   9.811  13.580
85909SOL    HW259625   4.429   9.679  13.508
85910SOL     OW59626   6.662   1.641   0.624
85910SOL    HW159627   6.650   1.671   0.534
85910SOL    HW259628   6.641   1.717   0.678
85911SOL     OW59629  13.237  11.983   0.570
85911SOL    HW159630  13.275  12.065   0.540
85911SOL    HW259631  13.276  11.916   0.513
85912SOL     OW59632   3.480   7.430   1.828
85912SOL    HW159633   3.389   7.450   1.805
85912SOL    HW259634   3.484   7.334   1.829
85913SOL     OW59635  12.613  10.868  12.685
85913SOL    HW159636  12.537  10.900  12.733
85913SOL    HW259637  12.652  10.802  12.743
85914SOL     OW59638   4.164   7.587   8.794
85914SOL    HW159639   4.194   7.672   8.760
85914SOL    HW259640   4.178   7.593   8.889
85915SOL     OW59641  12.564   1.046  14.431
85915SOL    HW159642  12.607   1.126  14.462
85915SOL    HW259643  12.571   1.051  14.335
85916SOL     OW59644  11.451   4.179  14.217
85916SOL    HW159645  11.417   4.098  14.256
85916SOL    HW259646  11.520   4.150  14.158
85917SOL     OW59647  11.400   2.235  13.816
85917SOL    HW159648  11.310   2.223  13.845
85917SOL    HW259649  11.410   2.174  13.743
85918SOL     OW59650   8.257   8.174   1.034
85918SOL    HW159651   8.236   8.089   1.073
85918SOL    HW259652   8.317   8.153   0.962
85919SOL     OW59653  13.154   5.566   7.008
85919SOL    HW159654  13.078   5.582   6.951
85919SOL    HW259655  13.186   5.654   7.030
85920SOL     OW59656   0.673  11.059  14.843
85920SOL    HW159657   0.690  11.152  14.858
85920SOL    HW259658   0.741  11.013   0.024
85921SOL     OW59659  11.186  12.825   6.241
85921SOL    HW159660  11.209  12.916   6.224
85921SOL    HW259661  11.125  12.802   6.171
85922SOL     OW59662   9.110   8.064  12.868
85922SOL    HW159663   9.083   8.109  12.788
85922SOL    HW259664   9.052   8.099  12.935
85923SOL     OW59665  13.665   9.728   8.657
85923SOL    HW159666  13.684   9.707   8.565
85923SOL    HW259667  13.742   9.697   8.705
85924SOL     OW59668  12.877  12.439   1.143
85924SOL    HW159669  12.864  12.525   1.103
85924SOL    HW259670  12.959  12.447   1.192
85925SOL     OW59671  12.831   2.519   1.615
85925SOL    HW159672  12.867   2.450   1.560
85925SOL    HW259673  12.788   2.473   1.687
85926SOL     OW59674  11.426   3.946   8.957
85926SOL    HW159675  11.414   3.969   8.865
85926SOL    HW259676  11.520   3.958   8.972
85927SOL     OW59677   3.871  10.500   5.972
85927SOL    HW159678   3.835  10.439   5.907
85927SOL    HW259679   3.828  10.583   5.952
85928SOL     OW59680   7.076   8.975   7.847
85928SOL    HW159681   7.155   8.954   7.797
85928SOL    HW259682   7.109   8.991   7.936
85929SOL     OW59683   3.031   2.920   7.649
85929SOL    HW159684   3.071   2.968   7.721
85929SOL    HW259685   3.002   2.988   7.588
85930SOL     OW59686  13.441   6.839  13.108
85930SOL    HW159687  13.458   6.820  13.016
85930SOL    HW259688  13.425   6.933  13.111
85931SOL     OW59689   2.350   0.169   7.332
85931SOL    HW159690   2.420   0.114   7.295
85931SOL    HW259691   2.394   0.220   7.401
85932SOL     OW59692   5.662   6.226  11.692
85932SOL    HW159693   5.631   6.194  11.608
85932SOL    HW259694   5.674   6.320  11.679
85933SOL     OW59695   1.663   2.709   2.407
85933SOL    HW159696   1.624   2.760   2.336
85933SOL    HW259697   1.590   2.661   2.444
85934SOL     OW59698  14.128   8.283   9.622
85934SOL    HW159699  14.047   8.270   9.571
85934SOL    HW259700  14.097   8.299   9.711
85935SOL     OW59701   2.986   5.556  11.557
85935SOL    HW159702   3.070   5.532  11.518
85935SOL    HW259703   2.989   5.652  11.564
85936SOL     OW59704   6.023  12.112  10.427
85936SOL    HW159705   6.060  12.196  10.399
85936SOL    HW259706   6.023  12.058  10.348
85937SOL     OW59707  14.254   3.625   8.654
85937SOL    HW159708  14.215   3.711   8.672
85937SOL    HW259709  14.232   3.608   8.562
85938SOL     OW59710   0.132  10.671   5.904
85938SOL    HW159711   0.157  10.729   5.832
85938SOL    HW259712   0.119  10.585   5.862
85939SOL     OW59713  12.955   4.977   5.879
85939SOL    HW159714  12.944   5.071   5.868
85939SOL    HW259715  13.040   4.957   5.840
85940SOL     OW59716   1.659   1.034  10.288
85940SOL    HW159717   1.631   0.943  10.284
85940SOL    HW259718   1.679   1.049  10.381
85941SOL     OW59719   3.086  12.069   7.960
85941SOL    HW159720   3.044  12.048   8.043
85941SOL    HW259721   3.063  11.995   7.902
85942SOL     OW59722   7.609   1.792  10.959
85942SOL    HW159723   7.546   1.724  10.986
85942SOL    HW259724   7.570   1.830  10.880
85943SOL     OW59725   8.666   2.006   7.712
85943SOL    HW159726   8.662   1.940   7.643
85943SOL    HW259727   8.605   2.075   7.684
85944SOL     OW59728   6.125   6.317  12.174
85944SOL    HW159729   6.080   6.280  12.250
85944SOL    HW259730   6.174   6.244  12.137
85945SOL     OW59731   3.557   6.503  10.186
85945SOL    HW159732   3.487   6.564  10.210
85945SOL    HW259733   3.512   6.421  10.166
85946SOL     OW59734  14.236   6.074  11.279
85946SOL    HW159735  14.152   6.095  11.321
85946SOL    HW259736  14.255   5.985  11.306
85947SOL     OW59737   4.991   9.779  13.316
85947SOL    HW159738   4.939   9.699  13.326
85947SOL    HW259739   5.068   9.751  13.267
85948SOL     OW59740   8.248  11.565  14.494
85948SOL    HW159741   8.218  11.578  14.584
85948SOL    HW259742   8.216  11.642  14.447
85949SOL     OW59743  13.609  12.618   2.507
85949SOL    HW159744  13.680  12.586   2.451
85949SOL    HW259745  13.599  12.710   2.482
85950SOL     OW59746   1.656   1.687  13.169
85950SOL    HW159747   1.748   1.714  13.159
85950SOL    HW259748   1.653   1.646  13.255
85951SOL     OW59749  13.967   1.938   5.464
85951SOL    HW159750  13.962   2.026   5.427
85951SOL    HW259751  13.931   1.947   5.552
85952SOL     OW59752  14.392   9.011   0.615
85952SOL    HW159753  14.378   9.105   0.623
85952SOL    HW259754  14.458   9.003   0.545
85953SOL     OW59755   8.746  12.550  14.827
85953SOL    HW159756   8.782  12.487  14.764
85953SOL    HW259757   8.730  12.629  14.775
85954SOL     OW59758   3.108   0.114   3.109
85954SOL    HW159759   3.130   0.096   3.200
85954SOL    HW259760   3.171   0.181   3.082
85955SOL     OW59761   7.499  14.129   4.726
85955SOL    HW159762   7.509  14.039   4.756
85955SOL    HW259763   7.588  14.165   4.726
85956SOL     OW59764   5.514   0.580  11.455
85956SOL    HW159765   5.472   0.662  11.481
85956SOL    HW259766   5.578   0.606  11.389
85957SOL     OW59767  12.016   4.185  11.799
85957SOL    HW159768  11.963   4.151  11.871
85957SOL    HW259769  12.087   4.232  11.841
85958SOL     OW59770   3.750   1.425   5.303
85958SOL    HW159771   3.699   1.476   5.367
85958SOL    HW259772   3.824   1.391   5.353
85959SOL     OW59773  12.902   9.422   7.857
85959SOL    HW159774  12.807   9.436   7.854
85959SOL    HW259775  12.933   9.487   7.921
85960SOL     OW59776   9.228   3.443  11.932
85960SOL    HW159777   9.318   3.432  11.902
85960SOL    HW259778   9.207   3.534  11.913
85961SOL     OW59779  10.050   1.563  14.561
85961SOL    HW159780  10.124   1.513  14.526
85961SOL    HW259781  10.058   1.649  14.519
85962SOL     OW59782   6.259   9.417   0.184
85962SOL    HW159783   6.264   9.502   0.227
85962SOL    HW259784   6.166   9.395   0.185
85963SOL     OW59785  11.963   1.747   4.150
85963SOL    HW159786  11.961   1.683   4.221
85963SOL    HW259787  12.032   1.809   4.175
85964SOL     OW59788   1.493  10.862  12.921
85964SOL    HW159789   1.464  10.913  12.997
85964SOL    HW259790   1.427  10.879  12.854
85965SOL     OW59791  12.737   4.094   6.505
85965SOL    HW159792  12.692   4.177   6.492
85965SOL    HW259793  12.727   4.075   6.598
85966SOL     OW59794   7.948   1.742  10.343
85966SOL    HW159795   8.000   1.779  10.272
85966SOL    HW259796   7.881   1.690  10.300
85967SOL     OW59797   1.210  13.883  14.295
85967SOL    HW159798   1.151  13.820  14.336
85967SOL    HW259799   1.297  13.843  14.303
85968SOL     OW59800  12.289   4.855  11.144
85968SOL    HW159801  12.291   4.760  11.131
85968SOL    HW259802  12.317   4.867  11.235
85969SOL     OW59803  12.974   0.912   2.238
85969SOL    HW159804  13.022   0.993   2.219
85969SOL    HW259805  12.886   0.928   2.204
85970SOL     OW59806   2.330   9.456   9.575
85970SOL    HW159807   2.414   9.411   9.585
85970SOL    HW259808   2.340   9.536   9.626
85971SOL     OW59809  13.414   2.876   4.290
85971SOL    HW159810  13.361   2.889   4.212
85971SOL    HW259811  13.357   2.831   4.352
85972SOL     OW59812  13.006   1.579   2.601
85972SOL    HW159813  13.011   1.499   2.653
85972SOL    HW259814  13.091   1.620   2.613
85973SOL     OW59815   5.975  10.753   7.141
85973SOL    HW159816   6.069  10.736   7.135
85973SOL    HW259817   5.963  10.834   7.090
85974SOL     OW59818   9.770  11.276   6.134
85974SOL    HW159819   9.783  11.371   6.141
85974SOL    HW259820   9.765  11.246   6.225
85975SOL     OW59821   7.231   3.532   8.307
85975SOL    HW159822   7.166   3.529   8.237
85975SOL    HW259823   7.315   3.526   8.262
85976SOL     OW59824   8.616   7.511   9.839
85976SOL    HW159825   8.671   7.564   9.782
85976SOL    HW259826   8.663   7.506   9.922
85977SOL     OW59827   8.421   7.127  12.201
85977SOL    HW159828   8.414   7.219  12.177
85977SOL    HW259829   8.346   7.112  12.259
85978SOL     OW59830   2.357   5.587   1.168
85978SOL    HW159831   2.435   5.563   1.217
85978SOL    HW259832   2.316   5.504   1.145
85979SOL     OW59833   0.235  12.349   9.670
85979SOL    HW159834   0.314  12.322   9.622
85979SOL    HW259835   0.200  12.422   9.619
85980SOL     OW59836   6.959   5.260   0.571
85980SOL    HW159837   6.896   5.321   0.609
85980SOL    HW259838   6.927   5.174   0.597
85981SOL     OW59839   3.897  10.630   2.792
85981SOL    HW159840   3.951  10.553   2.775
85981SOL    HW259841   3.834  10.631   2.720
85982SOL     OW59842   8.401   6.895  12.843
85982SOL    HW159843   8.357   6.906  12.759
85982SOL    HW259844   8.476   6.838  12.824
85983SOL     OW59845   8.608   1.353   5.286
85983SOL    HW159846   8.568   1.431   5.247
85983SOL    HW259847   8.564   1.280   5.243
85984SOL     OW59848  10.261   1.267   0.816
85984SOL    HW159849  10.194   1.266   0.747
85984SOL    HW259850  10.221   1.219   0.888
85985SOL     OW59851   4.504  12.757   9.632
85985SOL    HW159852   4.437  12.755   9.564
85985SOL    HW259853   4.508  12.668   9.666
85986SOL     OW59854  10.153   5.231  13.878
85986SOL    HW159855  10.061   5.212  13.898
85986SOL    HW259856  10.176   5.169  13.809
85987SOL     OW59857   5.546   1.332   2.895
85987SOL    HW159858   5.517   1.254   2.944
85987SOL    HW259859   5.601   1.379   2.957
85988SOL     OW59860   8.541   2.905   4.323
85988SOL    HW159861   8.466   2.939   4.372
85988SOL    HW259862   8.525   2.932   4.232
85989SOL     OW59863   2.435  10.011   9.411
85989SOL    HW159864   2.367   9.967   9.463
85989SOL    HW259865   2.389  10.044   9.334
85990SOL     OW59866   4.647   6.757  10.508
85990SOL    HW159867   4.650   6.839  10.557
85990SOL    HW259868   4.566   6.715  10.537
85991SOL     OW59869   3.664   9.552   0.845
85991SOL    HW159870   3.590   9.611   0.841
85991SOL    HW259871   3.741   9.609   0.843
85992SOL     OW59872   7.875   9.949   5.366
85992SOL    HW159873   7.831  10.030   5.339
85992SOL    HW259874   7.911   9.913   5.285
85993SOL     OW59875   8.717  13.853   8.865
85993SOL    HW159876   8.662  13.818   8.935
85993SOL    HW259877   8.771  13.779   8.837
85994SOL     OW59878   7.379  12.310   1.578
85994SOL    HW159879   7.439  12.305   1.652
85994SOL    HW259880   7.384  12.402   1.549
85995SOL     OW59881   7.678   1.965   2.946
85995SOL    HW159882   7.603   2.010   2.908
85995SOL    HW259883   7.732   2.036   2.982
85996SOL     OW59884  10.372   1.909   8.136
85996SOL    HW159885  10.433   1.918   8.063
85996SOL    HW259886  10.420   1.859   8.202
85997SOL     OW59887  13.805   3.475   2.678
85997SOL    HW159888  13.830   3.411   2.611
85997SOL    HW259889  13.789   3.422   2.756
85998SOL     OW59890  10.885   2.338   7.191
85998SOL    HW159891  10.914   2.383   7.112
85998SOL    HW259892  10.806   2.384   7.219
85999SOL     OW59893   5.659  13.347   4.885
85999SOL    HW159894   5.642  13.376   4.795
85999SOL    HW259895   5.580  13.370   4.933
86000SOL     OW59896  10.628   3.036  13.420
86000SOL    HW159897  10.558   3.086  13.377
86000SOL    HW259898  10.656   3.093  13.492
86001SOL     OW59899  10.764   7.674   3.735
86001SOL    HW159900  10.843   7.639   3.695
86001SOL    HW259901  10.792   7.703   3.822
86002SOL     OW59902   9.344   8.465   5.237
86002SOL    HW159903   9.326   8.372   5.227
86002SOL    HW259904   9.264   8.509   5.209
86003SOL     OW59905  12.888  13.399   0.796
86003SOL    HW159906  12.835  13.402   0.876
86003SOL    HW259907  12.929  13.313   0.797
86004SOL     OW59908   6.932   3.563   9.601
86004SOL    HW159909   6.969   3.618   9.671
86004SOL    HW259910   7.003   3.504   9.577
86005SOL     OW59911  13.816   8.884  13.128
86005SOL    HW159912  13.885   8.932  13.082
86005SOL    HW259913  13.827   8.910  13.220
86006SOL     OW59914   4.690   6.668   5.419
86006SOL    HW159915   4.631   6.723   5.367
86006SOL    HW259916   4.769   6.660   5.365
86007SOL     OW59917   6.145   1.638   2.905
86007SOL    HW159918   6.205   1.565   2.895
86007SOL    HW259919   6.188   1.711   2.859
86008SOL     OW59920   5.508   6.737   0.912
86008SOL    HW159921   5.531   6.691   0.993
86008SOL    HW259922   5.460   6.815   0.942
86009SOL     OW59923   7.290   8.595   5.421
86009SOL    HW159924   7.252   8.683   5.425
86009SOL    HW259925   7.306   8.571   5.512
86010SOL     OW59926  11.264   0.321   2.231
86010SOL    HW159927  11.303   0.404   2.204
86010SOL    HW259928  11.282   0.316   2.325
86011SOL     OW59929  10.563  12.813   0.999
86011SOL    HW159930  10.476  12.793   0.966
86011SOL    HW259931  10.548  12.867   1.077
86012SOL     OW59932   9.219   7.373   3.588
86012SOL    HW159933   9.225   7.374   3.492
86012SOL    HW259934   9.213   7.466   3.612
86013SOL     OW59935   0.284  13.231  14.663
86013SOL    HW159936   0.201  13.188  14.683
86013SOL    HW259937   0.267  13.324  14.673
86014SOL     OW59938  13.101   3.356   1.812
86014SOL    HW159939  13.038   3.388   1.747
86014SOL    HW259940  13.065   3.387   1.896
86015SOL     OW59941  11.182  11.470   4.615
86015SOL    HW159942  11.139  11.540   4.565
86015SOL    HW259943  11.261  11.511   4.650
86016SOL     OW59944  11.493   1.180  12.108
86016SOL    HW159945  11.469   1.157  12.018
86016SOL    HW259946  11.547   1.259  12.099
86017SOL     OW59947   3.946   8.910   7.722
86017SOL    HW159948   3.880   8.873   7.664
86017SOL    HW259949   3.927   9.004   7.725
86018SOL     OW59950  10.153   5.561  14.109
86018SOL    HW159951  10.228   5.619  14.102
86018SOL    HW259952  10.143   5.547  14.203
86019SOL     OW59953   9.802   3.081   1.529
86019SOL    HW159954   9.861   3.105   1.457
86019SOL    HW259955   9.714   3.093   1.493
86020SOL     OW59956   3.113   7.393   9.887
86020SOL    HW159957   3.159   7.476   9.880
86020SOL    HW259958   3.183   7.328   9.898
86021SOL     OW59959  14.179  13.862  11.264
86021SOL    HW159960  14.115  13.882  11.195
86021SOL    HW259961  14.204  13.948  11.298
86022SOL     OW59962   4.622   0.691   9.787
86022SOL    HW159963   4.585   0.768   9.742
86022SOL    HW259964   4.619   0.622   9.721
86023SOL     OW59965  11.496  12.614  14.234
86023SOL    HW159966  11.512  12.520  14.245
86023SOL    HW259967  11.438  12.636  14.307
86024SOL     OW59968   7.455  13.265  13.593
86024SOL    HW159969   7.415  13.299  13.513
86024SOL    HW259970   7.473  13.342  13.646
86025SOL     OW59971   2.450   8.037   8.263
86025SOL    HW159972   2.407   7.980   8.198
86025SOL    HW259973   2.528   7.988   8.290
86026SOL     OW59974  13.881  10.072   7.916
86026SOL    HW159975  13.824  10.147   7.930
86026SOL    HW259976  13.960  10.092   7.966
86027SOL     OW59977  14.823   7.873   6.488
86027SOL    HW159978   0.024   7.808   6.479
86027SOL    HW259979  14.868   7.950   6.524
86028SOL     OW59980   0.629   6.122  11.385
86028SOL    HW159981   0.700   6.180  11.410
86028SOL    HW259982   0.651   6.093  11.296
86029SOL     OW59983   5.871   5.929   1.216
86029SOL    HW159984   5.822   5.992   1.269
86029SOL    HW259985   5.910   5.981   1.146
86030SOL     OW59986   6.931   1.496  14.632
86030SOL    HW159987   6.875   1.479  14.556
86030SOL    HW259988   6.955   1.588  14.624
86031SOL     OW59989   0.683  11.577   7.486
86031SOL    HW159990   0.738  11.600   7.562
86031SOL    HW259991   0.594  11.583   7.519
86032SOL     OW59992  14.780  12.150   4.870
86032SOL    HW159993  14.723  12.073   4.874
86032SOL    HW259994  14.866  12.118   4.899
86033SOL     OW59995   2.583   3.112   8.405
86033SOL    HW159996   2.671   3.102   8.441
86033SOL    HW259997   2.568   3.207   8.405
86034SOL     OW59998  11.631   0.013  13.482
86034SOL    HW159999  11.602  14.836  13.402
86034SOL    HW260000  11.683   0.086  13.451
86035SOL     OW60001  14.279  13.624   4.688
86035SOL    HW160002  14.238  13.538   4.702
86035SOL    HW260003  14.247  13.653   4.603
86036SOL     OW60004   2.038   5.132   5.321
86036SOL    HW160005   1.978   5.176   5.382
86036SOL    HW260006   2.124   5.144   5.361
86037SOL     OW60007  14.068   4.840   6.687
86037SOL    HW160008  14.024   4.854   6.603
86037SOL    HW260009  14.132   4.911   6.693
86038SOL     OW60010   4.958   4.807  12.676
86038SOL    HW160011   5.020   4.818  12.749
86038SOL    HW260012   4.963   4.889  12.627
86039SOL     OW60013  14.585   5.770  13.764
86039SOL    HW160014  14.526   5.705  13.724
86039SOL    HW260015  14.624   5.815  13.689
86040SOL     OW60016   4.725   7.589   1.143
86040SOL    HW160017   4.750   7.532   1.070
86040SOL    HW260018   4.762   7.548   1.221
86041SOL     OW60019   5.114   5.547   8.599
86041SOL    HW160020   5.055   5.551   8.524
86041SOL    HW260021   5.121   5.637   8.630
86042SOL     OW60022  12.702  14.117   7.452
86042SOL    HW160023  12.653  14.036   7.465
86042SOL    HW260024  12.794  14.090   7.458
86043SOL     OW60025   0.260  13.480  14.602
86043SOL    HW160026   0.180  13.510  14.559
86043SOL    HW260027   0.327  13.486  14.535
86044SOL     OW60028   1.006   5.574  10.809
86044SOL    HW160029   0.985   5.634  10.737
86044SOL    HW260030   1.050   5.629  10.874
86045SOL     OW60031   4.598   8.433  14.283
86045SOL    HW160032   4.689   8.454  14.307
86045SOL    HW260033   4.569   8.373  14.352
86046SOL     OW60034   3.598  12.745   6.734
86046SOL    HW160035   3.512  12.754   6.691
86046SOL    HW260036   3.661  12.750   6.662
86047SOL     OW60037   6.946  11.927   8.180
86047SOL    HW160038   6.951  11.924   8.276
86047SOL    HW260039   6.924  11.838   8.154
86048SOL     OW60040  13.717   0.378  13.350
86048SOL    HW160041  13.678   0.389  13.263
86048SOL    HW260042  13.741   0.467  13.376
86049SOL     OW60043   9.895   9.039   0.941
86049SOL    HW160044   9.949   9.090   0.880
86049SOL    HW260045   9.955   9.016   1.012
86050SOL     OW60046  12.519   4.929  11.454
86050SOL    HW160047  12.425   4.914  11.464
86050SOL    HW260048  12.543   4.983  11.529
86051SOL     OW60049   8.433   6.679   8.147
86051SOL    HW160050   8.520   6.643   8.130
86051SOL    HW260051   8.441   6.772   8.126
86052SOL     OW60052   0.935   7.548   3.365
86052SOL    HW160053   1.022   7.552   3.325
86052SOL    HW260054   0.916   7.454   3.371
86053SOL     OW60055   4.393   2.126   6.906
86053SOL    HW160056   4.430   2.052   6.954
86053SOL    HW260057   4.468   2.180   6.882
86054SOL     OW60058  11.297   8.276   7.941
86054SOL    HW160059  11.328   8.235   7.860
86054SOL    HW260060  11.228   8.218   7.973
86055SOL     OW60061  11.945   5.837  10.512
86055SOL    HW160062  11.970   5.773  10.579
86055SOL    HW260063  11.982   5.920  10.543
86056SOL     OW60064   3.269   1.532   0.203
86056SOL    HW160065   3.316   1.476   0.265
86056SOL    HW260066   3.196   1.568   0.254
86057SOL     OW60067   7.333  14.498  13.296
86057SOL    HW160068   7.270  14.433  13.326
86057SOL    HW260069   7.359  14.545  13.375
86058SOL     OW60070   1.040   1.346   9.260
86058SOL    HW160071   1.050   1.349   9.164
86058SOL    HW260072   1.079   1.262   9.285
86059SOL     OW60073   4.588  11.209  11.988
86059SOL    HW160074   4.674  11.250  11.992
86059SOL    HW260075   4.601  11.132  11.933
86060SOL     OW60076   5.591   6.495   0.246
86060SOL    HW160077   5.674   6.509   0.292
86060SOL    HW260078   5.570   6.579   0.206
86061SOL     OW60079  12.639   2.360   1.153
86061SOL    HW160080  12.694   2.295   1.110
86061SOL    HW260081  12.618   2.321   1.238
86062SOL     OW60082   4.969   1.829  13.120
86062SOL    HW160083   4.883   1.795  13.143
86062SOL    HW260084   4.990   1.788  13.037
86063SOL     OW60085   1.668   0.247   7.192
86063SOL    HW160086   1.759   0.220   7.180
86063SOL    HW260087   1.663   0.334   7.152
86064SOL     OW60088   7.244  13.361   6.812
86064SOL    HW160089   7.303  13.423   6.769
86064SOL    HW260090   7.292  13.279   6.814
86065SOL     OW60091   1.793   2.699   7.363
86065SOL    HW160092   1.766   2.651   7.441
86065SOL    HW260093   1.740   2.779   7.364
86066SOL     OW60094  12.415  13.778  11.593
86066SOL    HW160095  12.463  13.717  11.649
86066SOL    HW260096  12.375  13.840  11.654
86067SOL     OW60097   5.251  14.108   7.296
86067SOL    HW160098   5.299  14.037   7.338
86067SOL    HW260099   5.175  14.123   7.352
86068SOL     OW60100   2.817   1.007  13.822
86068SOL    HW160101   2.732   0.995  13.778
86068SOL    HW260102   2.831   0.925  13.869
86069SOL     OW60103  13.238   7.579  14.343
86069SOL    HW160104  13.265   7.625  14.422
86069SOL    HW260105  13.207   7.647  14.284
86070SOL     OW60106   1.208   9.709  11.213
86070SOL    HW160107   1.237   9.777  11.273
86070SOL    HW260108   1.288   9.667  11.183
86071SOL     OW60109   8.631   9.021   2.541
86071SOL    HW160110   8.573   9.017   2.465
86071SOL    HW260111   8.575   8.996   2.615
86072SOL     OW60112   0.311   6.693  11.170
86072SOL    HW160113   0.351   6.735  11.246
86072SOL    HW260114   0.383   6.678  11.109
86073SOL     OW60115   6.231   5.229  11.973
86073SOL    HW160116   6.146   5.198  11.941
86073SOL    HW260117   6.290   5.155  11.962
86074SOL     OW60118   1.344   0.757   1.293
86074SOL    HW160119   1.302   0.842   1.284
86074SOL    HW260120   1.357   0.746   1.388
86075SOL     OW60121   7.883   0.546  13.730
86075SOL    HW160122   7.931   0.579  13.653
86075SOL    HW260123   7.795   0.529  13.697
86076SOL     OW60124  12.466   1.796   2.377
86076SOL    HW160125  12.490   1.752   2.459
86076SOL    HW260126  12.399   1.859   2.402
86077SOL     OW60127   0.941  13.655   0.971
86077SOL    HW160128   1.037  13.655   0.980
86077SOL    HW260129   0.923  13.725   0.907
86078SOL     OW60130   9.034   5.083   7.757
86078SOL    HW160131   9.064   5.038   7.678
86078SOL    HW260132   9.075   5.035   7.829
86079SOL     OW60133   6.376   9.908   0.315
86079SOL    HW160134   6.427   9.949   0.245
86079SOL    HW260135   6.295   9.959   0.318
86080SOL     OW60136  10.955   1.123   0.693
86080SOL    HW160137  10.912   1.052   0.644
86080SOL    HW260138  10.889   1.193   0.694
86081SOL     OW60139   1.841   0.728  10.355
86081SOL    HW160140   1.895   0.773  10.290
86081SOL    HW260141   1.752   0.738  10.323
86082SOL     OW60142   2.798  13.674  10.941
86082SOL    HW160143   2.870  13.634  10.892
86082SOL    HW260144   2.776  13.610  11.008
86083SOL     OW60145   3.549   6.965   3.825
86083SOL    HW160146   3.463   6.983   3.863
86083SOL    HW260147   3.534   6.891   3.766
86084SOL     OW60148  13.694  12.464   8.316
86084SOL    HW160149  13.700  12.381   8.365
86084SOL    HW260150  13.685  12.437   8.225
86085SOL     OW60151   6.784   6.323   7.391
86085SOL    HW160152   6.708   6.292   7.440
86085SOL    HW260153   6.791   6.416   7.412
86086SOL     OW60154   3.305   7.236  12.131
86086SOL    HW160155   3.336   7.278  12.051
86086SOL    HW260156   3.254   7.161  12.101
86087SOL     OW60157  10.224   7.111   8.966
86087SOL    HW160158  10.167   7.188   8.968
86087SOL    HW260159  10.304   7.142   8.924
86088SOL     OW60160   3.520   7.035   5.491
86088SOL    HW160161   3.440   6.984   5.506
86088SOL    HW260162   3.535   7.030   5.397
86089SOL     OW60163   9.330   6.469  13.488
86089SOL    HW160164   9.268   6.451  13.417
86089SOL    HW260165   9.338   6.386  13.534
86090SOL     OW60166   7.483   3.498   9.697
86090SOL    HW160167   7.556   3.467   9.642
86090SOL    HW260168   7.469   3.427   9.760
86091SOL     OW60169  10.507   2.948  12.971
86091SOL    HW160170  10.462   2.953  13.055
86091SOL    HW260171  10.442   2.910  12.911
86092SOL     OW60172   0.163   9.316   1.486
86092SOL    HW160173   0.207   9.233   1.469
86092SOL    HW260174   0.089   9.293   1.543
86093SOL     OW60175   7.543   4.613   8.939
86093SOL    HW160176   7.594   4.574   8.868
86093SOL    HW260177   7.477   4.666   8.894
86094SOL     OW60178  10.701  14.048   8.779
86094SOL    HW160179  10.672  14.029   8.868
86094SOL    HW260180  10.794  14.029   8.779
86095SOL     OW60181   2.574  12.371   1.937
86095SOL    HW160182   2.588  12.286   1.895
86095SOL    HW260183   2.651  12.383   1.993
86096SOL     OW60184   1.127   5.978  13.174
86096SOL    HW160185   1.202   6.037  13.184
86096SOL    HW260186   1.125   5.927  13.255
86097SOL     OW60187  10.585   8.381   8.000
86097SOL    HW160188  10.572   8.297   7.957
86097SOL    HW260189  10.667   8.372   8.048
86098SOL     OW60190   7.517   7.565   1.830
86098SOL    HW160191   7.516   7.497   1.761
86098SOL    HW260192   7.591   7.621   1.806
86099SOL     OW60193  11.871   2.735   4.985
86099SOL    HW160194  11.952   2.783   4.998
86099SOL    HW260195  11.867   2.674   5.059
86100SOL     OW60196   3.225   9.167   4.184
86100SOL    HW160197   3.260   9.079   4.171
86100SOL    HW260198   3.301   9.219   4.210
86101SOL     OW60199   8.535   6.191  10.371
86101SOL    HW160200   8.442   6.200  10.393
86101SOL    HW260201   8.566   6.122  10.429
86102SOL     OW60202   8.079   1.980  13.703
86102SOL    HW160203   7.997   1.975  13.654
86102SOL    HW260204   8.118   2.063  13.675
86103SOL     OW60205   7.915   7.066  10.627
86103SOL    HW160206   7.951   7.026  10.548
86103SOL    HW260207   7.951   7.015  10.699
86104SOL     OW60208   5.142   3.729  14.119
86104SOL    HW160209   5.158   3.744  14.212
86104SOL    HW260210   5.049   3.708  14.114
86105SOL     OW60211   1.231   5.353   1.106
86105SOL    HW160212   1.221   5.438   1.063
86105SOL    HW260213   1.236   5.290   1.035
86106SOL     OW60214   0.907   7.798   8.994
86106SOL    HW160215   0.944   7.879   8.957
86106SOL    HW260216   0.813   7.817   9.002
86107SOL     OW60217   6.178  10.487   0.175
86107SOL    HW160218   6.188  10.443   0.091
86107SOL    HW260219   6.152  10.418   0.236
86108SOL     OW60220  13.171   0.431  10.633
86108SOL    HW160221  13.190   0.399  10.722
86108SOL    HW260222  13.182   0.355  10.577
86109SOL     OW60223   9.983   0.154   3.456
86109SOL    HW160224  10.021   0.140   3.542
86109SOL    HW260225  10.031   0.095   3.398
86110SOL     OW60226   6.751   4.723  14.749
86110SOL    HW160227   6.730   4.816  14.760
86110SOL    HW260228   6.741   4.686  14.837
86111SOL     OW60229   9.647   5.210   9.222
86111SOL    HW160230   9.707   5.224   9.295
86111SOL    HW260231   9.696   5.240   9.145
86112SOL     OW60232   5.635   9.815   5.972
86112SOL    HW160233   5.668   9.855   5.892
86112SOL    HW260234   5.576   9.746   5.943
86113SOL     OW60235   4.346   1.618   5.393
86113SOL    HW160236   4.436   1.638   5.368
86113SOL    HW260237   4.350   1.605   5.488
86114SOL     OW60238  13.837  13.128   3.486
86114SOL    HW160239  13.775  13.097   3.551
86114SOL    HW260240  13.897  13.185   3.535
86115SOL     OW60241  14.444   3.596   2.397
86115SOL    HW160242  14.517   3.652   2.423
86115SOL    HW260243  14.385   3.596   2.472
86116SOL     OW60244   1.564  11.187  14.479
86116SOL    HW160245   1.578  11.112  14.422
86116SOL    HW260246   1.640  11.187  14.538
86117SOL     OW60247   6.554  11.404   2.754
86117SOL    HW160248   6.508  11.371   2.677
86117SOL    HW260249   6.491  11.395   2.825
86118SOL     OW60250   8.358   1.595   6.989
86118SOL    HW160251   8.429   1.658   6.995
86118SOL    HW260252   8.383   1.537   6.917
86119SOL     OW60253   9.163   1.566   4.779
86119SOL    HW160254   9.230   1.628   4.808
86119SOL    HW260255   9.172   1.491   4.839
86120SOL     OW60256  12.260   6.613   6.853
86120SOL    HW160257  12.226   6.540   6.801
86120SOL    HW260258  12.232   6.595   6.942
86121SOL     OW60259  12.542   8.926  14.368
86121SOL    HW160260  12.598   8.925  14.445
86121SOL    HW260261  12.453   8.940  14.402
86122SOL     OW60262  10.920   3.347   9.035
86122SOL    HW160263  10.964   3.360   9.118
86122SOL    HW260264  10.837   3.393   9.044
86123SOL     OW60265   0.236   4.634   6.068
86123SOL    HW160266   0.314   4.646   6.122
86123SOL    HW260267   0.222   4.719   6.026
86124SOL     OW60268   9.342   6.793   7.254
86124SOL    HW160269   9.248   6.798   7.236
86124SOL    HW260270   9.378   6.872   7.213
86125SOL     OW60271   7.956  14.726  12.632
86125SOL    HW160272   8.029  14.707  12.690
86125SOL    HW260273   7.893  14.655  12.648
86126SOL     OW60274   5.131   6.174   3.579
86126SOL    HW160275   5.212   6.200   3.536
86126SOL    HW260276   5.147   6.191   3.672
86127SOL     OW60277  13.393   6.141   9.202
86127SOL    HW160278  13.312   6.192   9.212
86127SOL    HW260279  13.365   6.060   9.160
86128SOL     OW60280   9.116   5.294   7.328
86128SOL    HW160281   9.128   5.244   7.408
86128SOL    HW260282   9.140   5.233   7.258
86129SOL     OW60283   9.807   9.489   1.629
86129SOL    HW160284   9.800   9.440   1.548
86129SOL    HW260285   9.786   9.425   1.698
86130SOL     OW60286   8.073   5.228   2.763
86130SOL    HW160287   8.049   5.218   2.671
86130SOL    HW260288   8.147   5.289   2.762
86131SOL     OW60289   8.192   9.841   9.993
86131SOL    HW160290   8.152   9.928   9.999
86131SOL    HW260291   8.176   9.801  10.078
86132SOL     OW60292  10.384   1.946   6.251
86132SOL    HW160293  10.429   1.987   6.325
86132SOL    HW260294  10.453   1.934   6.186
86133SOL     OW60295   1.099   0.152  12.123
86133SOL    HW160296   1.150   0.180  12.199
86133SOL    HW260297   1.057   0.232  12.091
86134SOL     OW60298  10.851  14.543  13.884
86134SOL    HW160299  10.778  14.605  13.890
86134SOL    HW260300  10.891  14.561  13.799
86135SOL     OW60301   4.376   7.597   1.584
86135SOL    HW160302   4.411   7.562   1.502
86135SOL    HW260303   4.325   7.674   1.557
86136SOL     OW60304   1.232   3.217  11.454
86136SOL    HW160305   1.187   3.276  11.514
86136SOL    HW260306   1.173   3.211  11.378
86137SOL     OW60307  14.340   6.689  13.439
86137SOL    HW160308  14.335   6.605  13.484
86137SOL    HW260309  14.309   6.670  13.350
86138SOL     OW60310  14.317  10.410   9.040
86138SOL    HW160311  14.292  10.361   9.118
86138SOL    HW260312  14.302  10.501   9.063
86139SOL     OW60313   5.318   4.851   1.784
86139SOL    HW160314   5.348   4.761   1.770
86139SOL    HW260315   5.389   4.905   1.748
86140SOL     OW60316   0.903   1.671   7.372
86140SOL    HW160317   0.950   1.753   7.361
86140SOL    HW260318   0.968   1.603   7.352
86141SOL     OW60319  14.828  13.842  11.863
86141SOL    HW160320   0.048  13.859  11.895
86141SOL    HW260321  14.780  13.923  11.881
86142SOL     OW60322   5.610  10.817  10.442
86142SOL    HW160323   5.523  10.777  10.438
86142SOL    HW260324   5.669  10.749  10.410
86143SOL     OW60325   0.396   7.943   1.036
86143SOL    HW160326   0.455   8.015   1.060
86143SOL    HW260327   0.367   7.963   0.947
86144SOL     OW60328   5.036  13.796  10.443
86144SOL    HW160329   5.068  13.793  10.533
86144SOL    HW260330   5.115  13.808  10.390
86145SOL     OW60331  11.491   5.085   2.267
86145SOL    HW160332  11.544   5.010   2.241
86145SOL    HW260333  11.543   5.128   2.335
86146SOL     OW60334   0.334   4.753  12.623
86146SOL    HW160335   0.292   4.795  12.549
86146SOL    HW260336   0.293   4.667  12.629
86147SOL     OW60337   7.971   6.106  12.897
86147SOL    HW160338   8.011   6.192  12.881
86147SOL    HW260339   7.909   6.095  12.825
86148SOL     OW60340   1.701   0.029   0.291
86148SOL    HW160341   1.712   0.120   0.264
86148SOL    HW260342   1.787   0.003   0.323
86149SOL     OW60343   9.941  14.412   5.295
86149SOL    HW160344   9.864  14.462   5.268
86149SOL    HW260345   9.915  14.320   5.283
86150SOL     OW60346   9.381   4.132   3.359
86150SOL    HW160347   9.477   4.134   3.357
86150SOL    HW260348   9.360   4.059   3.417
86151SOL     OW60349  10.947  13.113  10.292
86151SOL    HW160350  10.872  13.139  10.238
86151SOL    HW260351  11.012  13.082  10.229
86152SOL     OW60352   8.396   0.770   8.140
86152SOL    HW160353   8.426   0.856   8.109
86152SOL    HW260354   8.476   0.721   8.155
86153SOL     OW60355   7.915   1.770  11.502
86153SOL    HW160356   7.844   1.711  11.477
86153SOL    HW260357   7.994   1.716  11.495
86154SOL     OW60358  12.264   7.513   9.217
86154SOL    HW160359  12.246   7.421   9.236
86154SOL    HW260360  12.198   7.561   9.266
86155SOL     OW60361  10.354  14.786   9.145
86155SOL    HW160362  10.292  14.775   9.217
86155SOL    HW260363  10.432  14.739   9.174
86156SOL     OW60364   4.395  11.005  10.275
86156SOL    HW160365   4.438  10.972  10.354
86156SOL    HW260366   4.417  11.098  10.274
86157SOL     OW60367  11.272  12.012   5.960
86157SOL    HW160368  11.293  12.028   6.052
86157SOL    HW260369  11.264  11.917   5.953
86158SOL     OW60370   4.295   0.659   1.068
86158SOL    HW160371   4.278   0.689   0.978
86158SOL    HW260372   4.318   0.567   1.059
86159SOL     OW60373   2.906   0.533  14.793
86159SOL    HW160374   2.830   0.477  14.800
86159SOL    HW260375   2.895   0.579  14.709
86160SOL     OW60376   0.487   6.936  11.849
86160SOL    HW160377   0.424   6.879  11.893
86160SOL    HW260378   0.531   6.982  11.919
86161SOL     OW60379   5.592  14.344   4.254
86161SOL    HW160380   5.611  14.330   4.161
86161SOL    HW260381   5.517  14.288   4.272
86162SOL     OW60382   1.790   0.724   5.484
86162SOL    HW160383   1.851   0.705   5.412
86162SOL    HW260384   1.830   0.682   5.560
86163SOL     OW60385   5.997   3.010  10.868
86163SOL    HW160386   6.093   3.012  10.866
86163SOL    HW260387   5.976   2.940  10.930
86164SOL     OW60388   9.556  14.538  10.905
86164SOL    HW160389   9.639  14.587  10.899
86164SOL    HW260390   9.488  14.605  10.895
86165SOL     OW60391   3.254   5.227  11.764
86165SOL    HW160392   3.298   5.164  11.821
86165SOL    HW260393   3.226   5.175  11.688
86166SOL     OW60394   0.132   6.122   2.243
86166SOL    HW160395   0.100   6.191   2.302
86166SOL    HW260396   0.173   6.169   2.171
86167SOL     OW60397   7.800   8.565   0.146
86167SOL    HW160398   7.872   8.602   0.095
86167SOL    HW260399   7.809   8.470   0.135
86168SOL     OW60400  12.309  10.951   5.427
86168SOL    HW160401  12.247  10.925   5.359
86168SOL    HW260402  12.263  11.018   5.478
86169SOL     OW60403   2.001   8.052   3.995
86169SOL    HW160404   1.909   8.032   4.009
86169SOL    HW260405   2.002   8.107   3.916
86170SOL     OW60406   8.350   2.224   6.059
86170SOL    HW160407   8.431   2.238   6.107
86170SOL    HW260408   8.378   2.191   5.974
86171SOL     OW60409   0.837  11.409   3.314
86171SOL    HW160410   0.772  11.379   3.251
86171SOL    HW260411   0.911  11.350   3.301
86172SOL     OW60412   6.505  10.545   3.437
86172SOL    HW160413   6.556  10.590   3.369
86172SOL    HW260414   6.415  10.573   3.423
86173SOL     OW60415   6.646  14.612  14.649
86173SOL    HW160416   6.571  14.660  14.614
86173SOL    HW260417   6.608  14.547  14.709
86174SOL     OW60418  14.350  10.107  14.180
86174SOL    HW160419  14.356  10.090  14.274
86174SOL    HW260420  14.394  10.191  14.168
86175SOL     OW60421   9.342  13.931   8.517
86175SOL    HW160422   9.304  13.948   8.603
86175SOL    HW260423   9.280  13.969   8.455
86176SOL     OW60424  10.081  11.883  10.177
86176SOL    HW160425  10.034  11.885  10.093
86176SOL    HW260426  10.154  11.823  10.162
86177SOL     OW60427   4.198   3.366  10.356
86177SOL    HW160428   4.134   3.434  10.376
86177SOL    HW260429   4.240   3.395  10.275
86178SOL     OW60430  11.569  13.693   4.178
86178SOL    HW160431  11.622  13.709   4.100
86178SOL    HW260432  11.518  13.615   4.157
86179SOL     OW60433   4.346   0.528   5.281
86179SOL    HW160434   4.285   0.473   5.330
86179SOL    HW260435   4.302   0.612   5.273
86180SOL     OW60436  11.944  14.744   7.651
86180SOL    HW160437  11.991  14.684   7.708
86180SOL    HW260438  11.862  14.762   7.696
86181SOL     OW60439  12.160  13.204  10.532
86181SOL    HW160440  12.215  13.278  10.556
86181SOL    HW260441  12.161  13.147  10.609
86182SOL     OW60442   3.555  11.739   4.754
86182SOL    HW160443   3.520  11.759   4.841
86182SOL    HW260444   3.647  11.766   4.758
86183SOL     OW60445  13.702   6.130  14.036
86183SOL    HW160446  13.681   6.085  14.118
86183SOL    HW260447  13.770   6.076  13.995
86184SOL     OW60448   7.544   5.003  10.422
86184SOL    HW160449   7.508   5.078  10.374
86184SOL    HW260450   7.566   5.039  10.508
86185SOL     OW60451  10.038   1.646  12.369
86185SOL    HW160452  10.114   1.668  12.424
86185SOL    HW260453   9.985   1.725  12.369
86186SOL     OW60454   6.571   1.663   3.199
86186SOL    HW160455   6.622   1.713   3.135
86186SOL    HW260456   6.566   1.575   3.162
86187SOL     OW60457   7.963   1.481   2.494
86187SOL    HW160458   7.985   1.471   2.402
86187SOL    HW260459   7.909   1.561   2.497
86188SOL     OW60460   6.879  13.325   9.019
86188SOL    HW160461   6.935  13.397   8.989
86188SOL    HW260462   6.790  13.361   9.011
86189SOL     OW60463  12.297  11.028   6.124
86189SOL    HW160464  12.251  11.010   6.206
86189SOL    HW260465  12.360  11.097   6.147
86190SOL     OW60466   2.099   7.408   1.967
86190SOL    HW160467   2.011   7.370   1.956
86190SOL    HW260468   2.105   7.474   1.898
86191SOL     OW60469   2.692  14.630  13.605
86191SOL    HW160470   2.655  14.717  13.609
86191SOL    HW260471   2.619  14.571  13.623
86192SOL     OW60472   6.373  13.584   3.500
86192SOL    HW160473   6.352  13.546   3.415
86192SOL    HW260474   6.378  13.678   3.484
86193SOL     OW60475  13.729   5.711   6.359
86193SOL    HW160476  13.800   5.651   6.382
86193SOL    HW260477  13.666   5.657   6.310
86194SOL     OW60478   2.204  11.274   3.261
86194SOL    HW160479   2.156  11.201   3.299
86194SOL    HW260480   2.147  11.307   3.192
86195SOL     OW60481   7.751   0.852  12.515
86195SOL    HW160482   7.737   0.943  12.491
86195SOL    HW260483   7.694   0.803  12.456
86196SOL     OW60484   1.526   9.124   7.056
86196SOL    HW160485   1.492   9.168   7.134
86196SOL    HW260486   1.606   9.080   7.086
86197SOL     OW60487   3.282   6.195  14.161
86197SOL    HW160488   3.355   6.245  14.124
86197SOL    HW260489   3.207   6.220  14.108
86198SOL     OW60490  14.846   8.356   4.494
86198SOL    HW160491  14.846   8.379   4.401
86198SOL    HW260492   0.058   8.396   4.529
86199SOL     OW60493   5.088  14.394  12.718
86199SOL    HW160494   5.145  14.416  12.792
86199SOL    HW260495   5.148  14.365  12.650
86200SOL     OW60496   0.345  11.141  10.152
86200SOL    HW160497   0.314  11.141  10.243
86200SOL    HW260498   0.361  11.049  10.131
86201SOL     OW60499   5.250   4.020  12.401
86201SOL    HW160500   5.324   3.972  12.440
86201SOL    HW260501   5.273   4.029  12.309
86202SOL     OW60502   5.630   7.911   7.284
86202SOL    HW160503   5.686   7.867   7.220
86202SOL    HW260504   5.567   7.844   7.310
86203SOL     OW60505  12.519   5.403   1.717
86203SOL    HW160506  12.549   5.377   1.804
86203SOL    HW260507  12.433   5.362   1.708
86204SOL     OW60508  10.546  12.322   1.833
86204SOL    HW160509  10.514  12.334   1.923
86204SOL    HW260510  10.640  12.336   1.839
86205SOL     OW60511   9.273   9.368   8.910
86205SOL    HW160512   9.306   9.371   8.821
86205SOL    HW260513   9.203   9.303   8.907
86206SOL     OW60514   5.265  12.794   1.901
86206SOL    HW160515   5.351  12.768   1.934
86206SOL    HW260516   5.205  12.780   1.975
86207SOL     OW60517   8.870   6.457   6.541
86207SOL    HW160518   8.951   6.502   6.566
86207SOL    HW260519   8.842   6.501   6.460
86208SOL     OW60520  14.213   2.398  10.536
86208SOL    HW160521  14.257   2.327  10.490
86208SOL    HW260522  14.146   2.428  10.474
86209SOL     OW60523  13.502   5.603   6.765
86209SOL    HW160524  13.568   5.638   6.705
86209SOL    HW260525  13.462   5.680   6.805
86210SOL     OW60526   6.345   0.714  13.855
86210SOL    HW160527   6.267   0.658  13.854
86210SOL    HW260528   6.332   0.775  13.783
86211SOL     OW60529  14.072   2.828   7.464
86211SOL    HW160530  13.989   2.810   7.508
86211SOL    HW260531  14.138   2.792   7.523
86212SOL     OW60532   0.654   0.269   3.769
86212SOL    HW160533   0.713   0.334   3.730
86212SOL    HW260534   0.576   0.270   3.713
86213SOL     OW60535   3.775  13.867   7.103
86213SOL    HW160536   3.795  13.832   7.016
86213SOL    HW260537   3.681  13.885   7.101
86214SOL     OW60538  12.448  10.417  14.519
86214SOL    HW160539  12.393  10.429  14.596
86214SOL    HW260540  12.423  10.490  14.461
86215SOL     OW60541   9.489  10.117  14.590
86215SOL    HW160542   9.575  10.149  14.619
86215SOL    HW260543   9.449  10.080  14.668
86216SOL     OW60544   7.742   5.377   3.432
86216SOL    HW160545   7.795   5.402   3.508
86216SOL    HW260546   7.698   5.458   3.405
86217SOL     OW60547  14.838   8.271   8.566
86217SOL    HW160548   0.046   8.327   8.551
86217SOL    HW260549  14.764   8.330   8.563
86218SOL     OW60550  14.618   3.484   8.226
86218SOL    HW160551  14.563   3.424   8.176
86218SOL    HW260552  14.632   3.440   8.310
86219SOL     OW60553   5.386   9.515   2.920
86219SOL    HW160554   5.477   9.518   2.891
86219SOL    HW260555   5.359   9.425   2.905
86220SOL     OW60556   2.620  11.543   1.135
86220SOL    HW160557   2.620  11.603   1.210
86220SOL    HW260558   2.677  11.585   1.071
86221SOL     OW60559   8.636  11.482   2.554
86221SOL    HW160560   8.686  11.543   2.500
86221SOL    HW260561   8.631  11.402   2.502
86222SOL     OW60562   2.832   7.202   5.413
86222SOL    HW160563   2.877   7.271   5.461
86222SOL    HW260564   2.818   7.133   5.478
86223SOL     OW60565   0.046   1.528   0.591
86223SOL    HW160566   0.138   1.525   0.615
86223SOL    HW260567   0.006   1.588   0.655
86224SOL     OW60568   2.410  13.863   4.116
86224SOL    HW160569   2.320  13.832   4.128
86224SOL    HW260570   2.455  13.839   4.197
86225SOL     OW60571  13.186   3.394   0.668
86225SOL    HW160572  13.271   3.350   0.677
86225SOL    HW260573  13.198   3.455   0.595
86226SOL     OW60574   2.324   8.384  14.778
86226SOL    HW160575   2.271   8.454  14.817
86226SOL    HW260576   2.342   8.325  14.851
86227SOL     OW60577   5.385   4.022   7.422
86227SOL    HW160578   5.388   3.928   7.440
86227SOL    HW260579   5.432   4.032   7.339
86228SOL     OW60580   9.430   0.814   1.428
86228SOL    HW160581   9.373   0.791   1.501
86228SOL    HW260582   9.467   0.731   1.399
86229SOL     OW60583   6.523   9.830   3.450
86229SOL    HW160584   6.585   9.899   3.427
86229SOL    HW260585   6.497   9.851   3.540
86230SOL     OW60586   9.436   8.660   9.749
86230SOL    HW160587   9.489   8.672   9.828
86230SOL    HW260588   9.349   8.636   9.782
86231SOL     OW60589   5.153   4.789   3.588
86231SOL    HW160590   5.151   4.755   3.499
86231SOL    HW260591   5.219   4.735   3.633
86232SOL     OW60592   7.297   9.450   7.488
86232SOL    HW160593   7.305   9.522   7.551
86232SOL    HW260594   7.282   9.372   7.541
86233SOL     OW60595   1.091   4.481  12.939
86233SOL    HW160596   1.043   4.547  12.889
86233SOL    HW260597   1.179   4.482  12.901
86234SOL     OW60598   0.738   2.091  10.990
86234SOL    HW160599   0.730   2.182  11.020
86234SOL    HW260600   0.692   2.089  10.907
86235SOL     OW60601  10.669  10.526  14.156
86235SOL    HW160602  10.608  10.455  14.139
86235SOL    HW260603  10.731  10.489  14.220
86236SOL     OW60604  11.783  12.236   4.752
86236SOL    HW160605  11.842  12.307   4.776
86236SOL    HW260606  11.804  12.216   4.661
86237SOL     OW60607   9.892   5.328   0.023
86237SOL    HW160608   9.868   5.294   0.109
86237SOL    HW260609   9.899   5.423   0.036
86238SOL     OW60610   1.726  14.359   5.379
86238SOL    HW160611   1.752  14.345   5.288
86238SOL    HW260612   1.631  14.346   5.380
86239SOL     OW60613   9.062   2.990  11.091
86239SOL    HW160614   9.031   2.946  11.012
86239SOL    HW260615   9.121   2.927  11.132
86240SOL     OW60616   4.456   4.712   8.060
86240SOL    HW160617   4.483   4.763   8.137
86240SOL    HW260618   4.436   4.778   7.993
86241SOL     OW60619  10.729   3.211   8.037
86241SOL    HW160620  10.715   3.270   8.111
86241SOL    HW260621  10.649   3.159   8.032
86242SOL     OW60622  10.675   7.444   4.801
86242SOL    HW160623  10.637   7.457   4.889
86242SOL    HW260624  10.635   7.362   4.770
86243SOL     OW60625  14.307  13.896   2.903
86243SOL    HW160626  14.379  13.835   2.887
86243SOL    HW260627  14.314  13.917   2.996
86244SOL     OW60628   2.365   2.986   5.978
86244SOL    HW160629   2.380   2.966   6.070
86244SOL    HW260630   2.313   2.912   5.946
86245SOL     OW60631   5.507  11.443   1.394
86245SOL    HW160632   5.435  11.396   1.437
86245SOL    HW260633   5.585  11.418   1.444
86246SOL     OW60634   4.151   8.694   9.076
86246SOL    HW160635   4.061   8.667   9.059
86246SOL    HW260636   4.204   8.624   9.039
86247SOL     OW60637  12.905   5.560   5.362
86247SOL    HW160638  12.862   5.484   5.403
86247SOL    HW260639  12.923   5.532   5.272
86248SOL     OW60640   9.524   8.010   8.394
86248SOL    HW160641   9.453   7.974   8.341
86248SOL    HW260642   9.603   7.996   8.342
86249SOL     OW60643   4.776  14.652   3.963
86249SOL    HW160644   4.769  14.708   3.885
86249SOL    HW260645   4.763  14.563   3.930
86250SOL     OW60646   3.510   2.411   7.520
86250SOL    HW160647   3.473   2.349   7.584
86250SOL    HW260648   3.434   2.441   7.470
86251SOL     OW60649  14.376  13.349   4.996
86251SOL    HW160650  14.387  13.254   4.986
86251SOL    HW260651  14.338  13.360   5.083
86252SOL     OW60652   7.815  12.028   4.430
86252SOL    HW160653   7.778  12.075   4.504
86252SOL    HW260654   7.883  12.085   4.396
86253SOL     OW60655   1.143   9.934   7.869
86253SOL    HW160656   1.053   9.935   7.902
86253SOL    HW260657   1.183   9.857   7.909
86254SOL     OW60658   0.997   6.999   7.460
86254SOL    HW160659   1.006   7.049   7.379
86254SOL    HW260660   0.965   6.913   7.432
86255SOL     OW60661  13.702  11.161   2.002
86255SOL    HW160662  13.632  11.123   1.950
86255SOL    HW260663  13.660  11.229   2.054
86256SOL     OW60664  14.423  10.405   3.277
86256SOL    HW160665  14.366  10.453   3.338
86256SOL    HW260666  14.381  10.414   3.192
86257SOL     OW60667   8.709   4.223   2.195
86257SOL    HW160668   8.776   4.219   2.127
86257SOL    HW260669   8.627   4.239   2.147
86258SOL     OW60670  14.827  12.011   9.188
86258SOL    HW160671  14.773  12.076   9.145
86258SOL    HW260672   0.011  12.061   9.251
86259SOL     OW60673   6.296  14.033  13.032
86259SOL    HW160674   6.207  14.044  12.997
86259SOL    HW260675   6.288  14.054  13.125
86260SOL     OW60676   2.640  10.708   8.998
86260SOL    HW160677   2.663  10.620   8.971
86260SOL    HW260678   2.548  10.703   9.022
86261SOL     OW60679  11.692  11.191  13.971
86261SOL    HW160680  11.600  11.175  13.951
86261SOL    HW260681  11.736  11.109  13.949
86262SOL     OW60682  11.059  13.081   0.519
86262SOL    HW160683  11.147  13.101   0.549
86262SOL    HW260684  11.056  13.116   0.430
86263SOL     OW60685   1.881   3.088   9.921
86263SOL    HW160686   1.941   3.088   9.995
86263SOL    HW260687   1.827   3.009   9.933
86264SOL     OW60688  11.984   0.215   2.784
86264SOL    HW160689  12.059   0.202   2.726
86264SOL    HW260690  11.928   0.276   2.737
86265SOL     OW60691   4.055   2.152  11.312
86265SOL    HW160692   4.068   2.157  11.218
86265SOL    HW260693   4.068   2.242  11.343
86266SOL     OW60694   2.789   8.975   4.230
86266SOL    HW160695   2.803   8.959   4.324
86266SOL    HW260696   2.734   9.053   4.227
86267SOL     OW60697  14.633   9.023   6.007
86267SOL    HW160698  14.541   9.036   6.027
86267SOL    HW260699  14.673   8.997   6.090
86268SOL     OW60700   6.425   0.960  14.743
86268SOL    HW160701   6.352   0.908  14.708
86268SOL    HW260702   6.479   0.980  14.667
86269SOL     OW60703   8.831   6.891   0.361
86269SOL    HW160704   8.749   6.924   0.324
86269SOL    HW260705   8.804   6.825   0.424
86270SOL     OW60706   7.569   0.192   2.095
86270SOL    HW160707   7.509   0.149   2.034
86270SOL    HW260708   7.647   0.210   2.042
86271SOL     OW60709  11.516   2.095   4.285
86271SOL    HW160710  11.521   2.079   4.191
86271SOL    HW260711  11.584   2.039   4.323
86272SOL     OW60712   5.227   3.147  11.742
86272SOL    HW160713   5.273   3.229  11.722
86272SOL    HW260714   5.289   3.097  11.796
86273SOL     OW60715   0.707   1.455   9.839
86273SOL    HW160716   0.787   1.407   9.820
86273SOL    HW260717   0.734   1.547   9.844
86274SOL     OW60718   3.031   3.500   0.914
86274SOL    HW160719   2.947   3.542   0.898
86274SOL    HW260720   3.077   3.561   0.972
86275SOL     OW60721   3.051   6.833  11.051
86275SOL    HW160722   2.981   6.866  11.108
86275SOL    HW260723   3.012   6.758  11.007
86276SOL     OW60724  10.561  14.786  11.859
86276SOL    HW160725  10.654  14.789  11.882
86276SOL    HW260726  10.521  14.856  11.909
86277SOL     OW60727  12.668   7.445  10.083
86277SOL    HW160728  12.625   7.511  10.028
86277SOL    HW260729  12.616   7.366  10.070
86278SOL     OW60730  12.505   1.094  12.230
86278SOL    HW160731  12.547   1.046  12.301
86278SOL    HW260732  12.576   1.144  12.190
86279SOL     OW60733   2.148   8.913  14.080
86279SOL    HW160734   2.194   8.960  14.149
86279SOL    HW260735   2.108   8.981  14.026
86280SOL     OW60736   2.465  14.620   6.240
86280SOL    HW160737   2.555  14.645   6.259
86280SOL    HW260738   2.465  14.600   6.146
86281SOL     OW60739   6.630   6.828   9.748
86281SOL    HW160740   6.659   6.820   9.657
86281SOL    HW260741   6.665   6.912   9.777
86282SOL     OW60742   0.583   8.902   9.527
86282SOL    HW160743   0.541   8.825   9.564
86282SOL    HW260744   0.613   8.875   9.441
86283SOL     OW60745   3.829   0.179   1.076
86283SOL    HW160746   3.795   0.188   0.987
86283SOL    HW260747   3.908   0.234   1.078
86284SOL     OW60748   2.145   8.181   2.002
86284SOL    HW160749   2.230   8.200   1.962
86284SOL    HW260750   2.151   8.218   2.090
86285SOL     OW60751   1.083   7.018  11.074
86285SOL    HW160752   1.004   7.032  11.022
86285SOL    HW260753   1.140   6.967  11.017
86286SOL     OW60754   2.523  14.505   4.872
86286SOL    HW160755   2.469  14.534   4.798
86286SOL    HW260756   2.460  14.492   4.943
86287SOL     OW60757   7.925  13.038   6.638
86287SOL    HW160758   7.955  13.009   6.552
86287SOL    HW260759   7.920  12.957   6.689
86288SOL     OW60760  14.383  13.781   0.920
86288SOL    HW160761  14.323  13.717   0.880
86288SOL    HW260762  14.469  13.754   0.890
86289SOL     OW60763   8.405   5.485   9.059
86289SOL    HW160764   8.399   5.480   9.155
86289SOL    HW260765   8.406   5.578   9.040
86290SOL     OW60766  10.898   4.081  12.289
86290SOL    HW160767  10.940   4.001  12.256
86290SOL    HW260768  10.804   4.062  12.282
86291SOL     OW60769   9.630   5.955   6.691
86291SOL    HW160770   9.582   5.879   6.724
86291SOL    HW260771   9.589   5.974   6.606
86292SOL     OW60772   6.935   1.925  12.224
86292SOL    HW160773   6.931   1.834  12.254
86292SOL    HW260774   6.905   1.976  12.298
86293SOL     OW60775  14.711   6.179   1.002
86293SOL    HW160776  14.695   6.175   0.908
86293SOL    HW260777  14.719   6.088   1.029
86294SOL     OW60778  13.900   3.563   7.424
86294SOL    HW160779  13.832   3.630   7.434
86294SOL    HW260780  13.965   3.584   7.491
86295SOL     OW60781   2.410  10.031  14.693
86295SOL    HW160782   2.504  10.012  14.692
86295SOL    HW260783   2.372   9.965  14.636
86296SOL     OW60784  13.475  12.922  10.595
86296SOL    HW160785  13.478  12.900  10.502
86296SOL    HW260786  13.566  12.938  10.620
86297SOL     OW60787   5.110   8.624   4.142
86297SOL    HW160788   5.101   8.539   4.184
86297SOL    HW260789   5.084   8.609   4.051
86298SOL     OW60790  11.326   1.996   2.623
86298SOL    HW160791  11.371   2.074   2.591
86298SOL    HW260792  11.248   2.030   2.669
86299SOL     OW60793   4.428   0.815   3.496
86299SOL    HW160794   4.397   0.725   3.506
86299SOL    HW260795   4.452   0.822   3.404
86300SOL     OW60796  14.024   5.729   3.749
86300SOL    HW160797  14.081   5.657   3.720
86300SOL    HW260798  13.942   5.686   3.773
86301SOL     OW60799   1.150   8.827   8.630
86301SOL    HW160800   1.218   8.893   8.616
86301SOL    HW260801   1.070   8.867   8.596
86302SOL     OW60802  10.749   0.108   5.956
86302SOL    HW160803  10.706   0.057   5.887
86302SOL    HW260804  10.789   0.043   6.013
86303SOL     OW60805  14.270   2.770  11.645
86303SOL    HW160806  14.174   2.764  11.644
86303SOL    HW260807  14.296   2.759  11.553
86304SOL     OW60808   2.290   8.657  10.416
86304SOL    HW160809   2.318   8.730  10.360
86304SOL    HW260810   2.231   8.606  10.362
86305SOL     OW60811   1.912   9.494  11.403
86305SOL    HW160812   1.882   9.404  11.419
86305SOL    HW260813   1.951   9.491  11.316
86306SOL     OW60814  11.240   4.458  10.059
86306SOL    HW160815  11.285   4.500   9.986
86306SOL    HW260816  11.295   4.383  10.081
86307SOL     OW60817   2.269  11.903   3.029
86307SOL    HW160818   2.347  11.852   3.005
86307SOL    HW260819   2.195  11.847   3.002
86308SOL     OW60820   3.803   4.326   6.102
86308SOL    HW160821   3.851   4.266   6.159
86308SOL    HW260822   3.820   4.413   6.138
86309SOL     OW60823   5.141  11.087   1.598
86309SOL    HW160824   5.053  11.073   1.562
86309SOL    HW260825   5.199  11.051   1.531
86310SOL     OW60826   5.295  12.110   8.174
86310SOL    HW160827   5.378  12.157   8.183
86310SOL    HW260828   5.238  12.170   8.126
86311SOL     OW60829  11.995  13.907   2.559
86311SOL    HW160830  11.919  13.908   2.616
86311SOL    HW260831  11.986  13.985   2.505
86312SOL     OW60832   1.557   1.706   8.221
86312SOL    HW160833   1.579   1.640   8.156
86312SOL    HW260834   1.497   1.766   8.176
86313SOL     OW60835   5.350   1.774   0.445
86313SOL    HW160836   5.340   1.844   0.509
86313SOL    HW260837   5.261   1.748   0.423
86314SOL     OW60838   4.529   0.330   3.874
86314SOL    HW160839   4.468   0.309   3.945
86314SOL    HW260840   4.507   0.420   3.850
86315SOL     OW60841   3.314   3.926  14.862
86315SOL    HW160842   3.364   3.844  14.866
86315SOL    HW260843   3.304   3.952   0.085
86316SOL     OW60844  10.649   7.987   6.848
86316SOL    HW160845  10.606   7.961   6.766
86316SOL    HW260846  10.609   7.934   6.915
86317SOL     OW60847  12.189   8.825   6.993
86317SOL    HW160848  12.279   8.793   6.996
86317SOL    HW260849  12.194   8.913   7.031
86318SOL     OW60850  10.552   2.390   6.490
86318SOL    HW160851  10.641   2.399   6.525
86318SOL    HW260852  10.514   2.477   6.497
86319SOL     OW60853   2.719  14.313   9.682
86319SOL    HW160854   2.696  14.234   9.729
86319SOL    HW260855   2.785  14.356   9.736
86320SOL     OW60856   8.041  12.891   3.933
86320SOL    HW160857   7.986  12.886   4.011
86320SOL    HW260858   8.003  12.828   3.872
86321SOL     OW60859  12.971  11.782   9.099
86321SOL    HW160860  12.980  11.765   9.005
86321SOL    HW260861  12.877  11.788   9.113
86322SOL     OW60862   9.648   3.467   5.148
86322SOL    HW160863   9.610   3.554   5.163
86322SOL    HW260864   9.599   3.431   5.075
86323SOL     OW60865   3.441   1.670  12.713
86323SOL    HW160866   3.461   1.635  12.799
86323SOL    HW260867   3.432   1.593  12.657
86324SOL     OW60868   8.101  12.187   3.082
86324SOL    HW160869   8.047  12.173   3.004
86324SOL    HW260870   8.083  12.277   3.107
86325SOL     OW60871   6.556  10.140  14.346
86325SOL    HW160872   6.572  10.070  14.409
86325SOL    HW260873   6.495  10.199  14.390
86326SOL     OW60874   6.664  11.354   9.141
86326SOL    HW160875   6.686  11.277   9.089
86326SOL    HW260876   6.591  11.394   9.094
86327SOL     OW60877   2.581  10.265   5.298
86327SOL    HW160878   2.649  10.332   5.301
86327SOL    HW260879   2.584  10.223   5.384
86328SOL     OW60880  10.773  12.813   0.261
86328SOL    HW160881  10.732  12.747   0.206
86328SOL    HW260882  10.722  12.893   0.245
86329SOL     OW60883   8.378  11.793   1.390
86329SOL    HW160884   8.360  11.711   1.436
86329SOL    HW260885   8.337  11.783   1.305
86330SOL     OW60886   8.445   1.161   2.399
86330SOL    HW160887   8.356   1.127   2.413
86330SOL    HW260888   8.496   1.122   2.469
86331SOL     OW60889  13.982   0.663  10.815
86331SOL    HW160890  14.035   0.660  10.736
86331SOL    HW260891  13.981   0.573  10.848
86332SOL     OW60892  13.084   8.119   4.055
86332SOL    HW160893  13.079   8.209   4.086
86332SOL    HW260894  13.106   8.068   4.133
86333SOL     OW60895   4.597   3.064   1.365
86333SOL    HW160896   4.655   2.989   1.349
86333SOL    HW260897   4.510   3.032   1.341
86334SOL     OW60898  13.338   8.605   4.807
86334SOL    HW160899  13.325   8.547   4.733
86334SOL    HW260900  13.388   8.553   4.870
86335SOL     OW60901   5.349   8.102   0.295
86335SOL    HW160902   5.295   8.052   0.234
86335SOL    HW260903   5.435   8.060   0.290
86336SOL     OW60904   3.354   9.191   0.696
86336SOL    HW160905   3.447   9.204   0.712
86336SOL    HW260906   3.335   9.244   0.619
86337SOL     OW60907  14.839  11.208   0.859
86337SOL    HW160908   0.065  11.203   0.874
86337SOL    HW260909  14.830  11.224   0.765
86338SOL     OW60910   3.923   2.759   7.214
86338SOL    HW160911   3.837   2.736   7.179
86338SOL    HW260912   3.968   2.675   7.224
86339SOL     OW60913  14.611   0.952   6.743
86339SOL    HW160914  14.590   0.953   6.650
86339SOL    HW260915  14.579   1.036   6.776
86340SOL     OW60916   1.885   3.148   0.328
86340SOL    HW160917   1.872   3.206   0.404
86340SOL    HW260918   1.972   3.172   0.295
86341SOL     OW60919  11.588   2.914  14.094
86341SOL    HW160920  11.579   2.909  13.998
86341SOL    HW260921  11.497   2.916  14.125
86342SOL     OW60922   1.494   5.797   3.245
86342SOL    HW160923   1.490   5.717   3.192
86342SOL    HW260924   1.406   5.833   3.239
86343SOL     OW60925   2.366   4.099   5.342
86343SOL    HW160926   2.321   4.037   5.285
86343SOL    HW260927   2.402   4.164   5.282
86344SOL     OW60928   1.580   5.017   2.314
86344SOL    HW160929   1.563   4.934   2.359
86344SOL    HW260930   1.532   5.009   2.232
86345SOL     OW60931   1.757  13.041   9.633
86345SOL    HW160932   1.790  13.128   9.655
86345SOL    HW260933   1.800  13.019   9.551
86346SOL     OW60934   3.569   7.041   0.361
86346SOL    HW160935   3.486   7.088   0.358
86346SOL    HW260936   3.598   7.050   0.452
86347SOL     OW60937   7.970  14.205   4.354
86347SOL    HW160938   7.894  14.149   4.367
86347SOL    HW260939   8.036  14.148   4.316
86348SOL     OW60940   0.526  13.249   5.767
86348SOL    HW160941   0.571  13.332   5.751
86348SOL    HW260942   0.553  13.193   5.695
86349SOL     OW60943   1.917   9.788  14.457
86349SOL    HW160944   1.984   9.760  14.394
86349SOL    HW260945   1.954   9.868  14.496
86350SOL     OW60946   0.475  13.050  12.391
86350SOL    HW160947   0.529  13.053  12.470
86350SOL    HW260948   0.400  12.996  12.415
86351SOL     OW60949   3.515   4.706   1.527
86351SOL    HW160950   3.480   4.762   1.596
86351SOL    HW260951   3.494   4.617   1.556
86352SOL     OW60952   1.377   9.520  11.579
86352SOL    HW160953   1.368   9.497  11.672
86352SOL    HW260954   1.437   9.595  11.579
86353SOL     OW60955  10.981   7.298   2.959
86353SOL    HW160956  10.908   7.274   3.017
86353SOL    HW260957  10.953   7.268   2.873
86354SOL     OW60958  14.669   0.613   6.384
86354SOL    HW160959  14.760   0.599   6.357
86354SOL    HW260960  14.675   0.634   6.477
86355SOL     OW60961   9.251   0.375  12.365
86355SOL    HW160962   9.221   0.416  12.284
86355SOL    HW260963   9.238   0.281  12.350
86356SOL     OW60964   9.845   9.705   2.890
86356SOL    HW160965   9.780   9.729   2.824
86356SOL    HW260966   9.929   9.736   2.854
86357SOL     OW60967   7.729  10.582   5.299
86357SOL    HW160968   7.693  10.525   5.367
86357SOL    HW260969   7.703  10.541   5.217
86358SOL     OW60970   8.186   9.860   6.893
86358SOL    HW160971   8.143   9.793   6.946
86358SOL    HW260972   8.187   9.938   6.949
86359SOL     OW60973  10.901  12.637   9.872
86359SOL    HW160974  10.862  12.583   9.803
86359SOL    HW260975  10.827  12.664   9.926
86360SOL     OW60976  11.015  13.973   7.747
86360SOL    HW160977  11.036  13.947   7.658
86360SOL    HW260978  11.091  13.947   7.798
86361SOL     OW60979   7.716  12.762   6.516
86361SOL    HW160980   7.804  12.724   6.513
86361SOL    HW260981   7.693  12.776   6.424
86362SOL     OW60982  13.352   7.347  10.192
86362SOL    HW160983  13.343   7.351  10.287
86362SOL    HW260984  13.271   7.384  10.158
86363SOL     OW60985   0.810  10.070   6.856
86363SOL    HW160986   0.893  10.117   6.857
86363SOL    HW260987   0.832   9.982   6.827
86364SOL     OW60988   3.768   5.681   4.656
86364SOL    HW160989   3.720   5.667   4.575
86364SOL    HW260990   3.699   5.697   4.722
86365SOL     OW60991   0.824  11.717   7.828
86365SOL    HW160992   0.736  11.681   7.826
86365SOL    HW260993   0.880  11.648   7.792
86366SOL     OW60994   3.513  11.035  11.838
86366SOL    HW160995   3.458  11.091  11.783
86366SOL    HW260996   3.593  11.086  11.852
86367SOL     OW60997  12.963  14.655   0.456
86367SOL    HW160998  13.032  14.706   0.414
86367SOL    HW260999  12.884  14.708   0.446
86368SOL     OW61000   0.666  11.946   6.277
86368SOL    HW161001   0.575  11.957   6.249
86368SOL    HW261002   0.659  11.899   6.360
86369SOL     OW61003  14.059  13.668   2.240
86369SOL    HW161004  14.004  13.644   2.315
86369SOL    HW261005  14.053  13.764   2.236
86370SOL     OW61006   0.318  10.120   9.989
86370SOL    HW161007   0.278  10.155  10.069
86370SOL    HW261008   0.404  10.088  10.017
86371SOL     OW61009  11.300   9.206   9.575
86371SOL    HW161010  11.323   9.296   9.598
86371SOL    HW261011  11.303   9.205   9.479
86372SOL     OW61012   9.299   7.927   8.252
86372SOL    HW161013   9.283   8.022   8.256
86372SOL    HW261014   9.230   7.889   8.306
86373SOL     OW61015  13.893   4.409   9.174
86373SOL    HW161016  13.926   4.414   9.084
86373SOL    HW261017  13.928   4.487   9.217
86374SOL     OW61018   4.244  14.138   9.106
86374SOL    HW161019   4.322  14.098   9.067
86374SOL    HW261020   4.270  14.228   9.125
86375SOL     OW61021   9.309   2.733   8.538
86375SOL    HW161022   9.223   2.749   8.499
86375SOL    HW261023   9.365   2.800   8.499
86376SOL     OW61024   9.938   3.135   0.718
86376SOL    HW161025   9.907   3.086   0.794
86376SOL    HW261026   9.974   3.217   0.754
86377SOL     OW61027  11.970  13.390   6.975
86377SOL    HW161028  12.040  13.347   7.024
86377SOL    HW261029  12.004  13.397   6.885
86378SOL     OW61030  13.188  10.793   2.073
86378SOL    HW161031  13.232  10.878   2.070
86378SOL    HW261032  13.259  10.729   2.071
86379SOL     OW61033   7.448   8.589  11.128
86379SOL    HW161034   7.370   8.613  11.077
86379SOL    HW261035   7.430   8.622  11.216
86380SOL     OW61036  12.628   8.950   2.285
86380SOL    HW161037  12.564   9.001   2.334
86380SOL    HW261038  12.589   8.863   2.277
86381SOL     OW61039   3.805   4.083   4.050
86381SOL    HW161040   3.786   4.176   4.042
86381SOL    HW261041   3.772   4.059   4.137
86382SOL     OW61042   5.326   8.572  13.749
86382SOL    HW161043   5.243   8.619  13.752
86382SOL    HW261044   5.390   8.637  13.718
86383SOL     OW61045  13.776   2.613   7.954
86383SOL    HW161046  13.868   2.594   7.936
86383SOL    HW261047  13.729   2.536   7.921
86384SOL     OW61048  14.789   7.963  10.008
86384SOL    HW161049   0.006   7.995  10.040
86384SOL    HW261050  14.771   8.015   9.930
86385SOL     OW61051   6.676   5.973   6.009
86385SOL    HW161052   6.708   5.942   6.093
86385SOL    HW261053   6.593   6.016   6.029
86386SOL     OW61054   5.960   4.182   3.922
86386SOL    HW161055   5.961   4.156   4.014
86386SOL    HW261056   5.953   4.100   3.874
86387SOL     OW61057  12.065   0.961  13.391
86387SOL    HW161058  11.979   0.989  13.358
86387SOL    HW261059  12.128   1.008  13.336
86388SOL     OW61060  10.295   3.269   5.389
86388SOL    HW161061  10.251   3.262   5.474
86388SOL    HW261062  10.379   3.310   5.409
86389SOL     OW61063  11.509   0.528   8.796
86389SOL    HW161064  11.559   0.492   8.723
86389SOL    HW261065  11.533   0.621   8.797
86390SOL     OW61066  13.269   1.442   3.886
86390SOL    HW161067  13.233   1.364   3.927
86390SOL    HW261068  13.197   1.478   3.835
86391SOL     OW61069   4.138   7.200   7.515
86391SOL    HW161070   4.092   7.160   7.588
86391SOL    HW261071   4.226   7.162   7.519
86392SOL     OW61072   7.177   8.830   5.492
86392SOL    HW161073   7.256   8.882   5.498
86392SOL    HW261074   7.122   8.876   5.428
86393SOL     OW61075   7.335  12.066  13.356
86393SOL    HW161076   7.263  12.061  13.293
86393SOL    HW261077   7.414  12.063  13.301
86394SOL     OW61078  10.107   2.986  11.086
86394SOL    HW161079  10.044   3.009  11.154
86394SOL    HW261080  10.166   2.923  11.127
86395SOL     OW61081   3.696   1.742   2.852
86395SOL    HW161082   3.651   1.770   2.931
86395SOL    HW261083   3.777   1.702   2.883
86396SOL     OW61084   3.818   9.271   6.733
86396SOL    HW161085   3.818   9.176   6.745
86396SOL    HW261086   3.870   9.285   6.654
86397SOL     OW61087  13.229   0.307  10.848
86397SOL    HW161088  13.283   0.248  10.796
86397SOL    HW261089  13.182   0.250  10.908
86398SOL     OW61090   9.784   2.381   1.317
86398SOL    HW161091   9.808   2.450   1.256
86398SOL    HW261092   9.706   2.415   1.361
86399SOL     OW61093  11.026   0.377   7.948
86399SOL    HW161094  11.045   0.419   8.031
86399SOL    HW261095  11.111   0.372   7.904
86400SOL     OW61096   6.429   1.717   8.136
86400SOL    HW161097   6.504   1.662   8.158
86400SOL    HW261098   6.430   1.788   8.201
86401SOL     OW61099   2.620   1.162   3.087
86401SOL    HW161100   2.699   1.109   3.075
86401SOL    HW261101   2.549   1.104   3.061
86402SOL     OW61102  10.840   5.218   6.202
86402SOL    HW161103  10.904   5.248   6.267
86402SOL    HW261104  10.881   5.237   6.118
86403SOL     OW61105  10.956  12.114   6.379
86403SOL    HW161106  10.899  12.123   6.455
86403SOL    HW261107  10.977  12.021   6.375
86404SOL     OW61108  10.096   4.341   3.416
86404SOL    HW161109  10.103   4.248   3.437
86404SOL    HW261110  10.079   4.383   3.500
86405SOL     OW61111  10.304   0.834  13.388
86405SOL    HW161112  10.254   0.809  13.466
86405SOL    HW261113  10.395   0.816  13.412
86406SOL     OW61114   0.096   7.826   8.531
86406SOL    HW161115   0.131   7.822   8.442
86406SOL    HW261116   0.001   7.818   8.519
86407SOL     OW61117   0.006   0.817  10.239
86407SOL    HW161118   0.033   0.789  10.327
86407SOL    HW261119   0.063   0.891  10.219
86408SOL     OW61120   2.828   9.330   3.634
86408SOL    HW161121   2.833   9.236   3.650
86408SOL    HW261122   2.875   9.343   3.551
86409SOL     OW61123  13.968  10.869   4.817
86409SOL    HW161124  13.933  10.896   4.732
86409SOL    HW261125  14.035  10.804   4.796
86410SOL     OW61126   9.513   8.368  14.022
86410SOL    HW161127   9.519   8.436  13.955
86410SOL    HW261128   9.433   8.320  14.001
86411SOL     OW61129   4.403  11.515   6.340
86411SOL    HW161130   4.344  11.464   6.284
86411SOL    HW261131   4.431  11.454   6.407
86412SOL     OW61132   5.622  14.793  11.052
86412SOL    HW161133   5.562  14.742  11.106
86412SOL    HW261134   5.574  14.809  10.971
86413SOL     OW61135   6.183   0.842  11.677
86413SOL    HW161136   6.148   0.891  11.603
86413SOL    HW261137   6.106   0.823  11.731
86414SOL     OW61138   4.426   5.505  14.763
86414SOL    HW161139   4.372   5.530  14.688
86414SOL    HW261140   4.507   5.556  14.753
86415SOL     OW61141   9.158   4.737  10.190
86415SOL    HW161142   9.139   4.827  10.217
86415SOL    HW261143   9.254   4.731  10.196
86416SOL     OW61144  14.794   4.950   7.876
86416SOL    HW161145  14.771   4.895   7.951
86416SOL    HW261146  14.733   4.921   7.807
86417SOL     OW61147   1.205  12.305   9.353
86417SOL    HW161148   1.118  12.277   9.324
86417SOL    HW261149   1.207  12.399   9.335
86418SOL     OW61150  14.520   9.724  14.488
86418SOL    HW161151  14.466   9.651  14.517
86418SOL    HW261152  14.586   9.734  14.556
86419SOL     OW61153  13.801  14.581   9.057
86419SOL    HW161154  13.780  14.571   9.150
86419SOL    HW261155  13.895  14.600   9.056
86420SOL     OW61156   3.262   4.615  13.097
86420SOL    HW161157   3.176   4.579  13.116
86420SOL    HW261158   3.247   4.672  13.021
86421SOL     OW61159   7.539  10.204  11.081
86421SOL    HW161160   7.489  10.217  11.000
86421SOL    HW261161   7.563  10.112  11.080
86422SOL     OW61162  11.998   9.095   6.914
86422SOL    HW161163  12.062   9.079   6.845
86422SOL    HW261164  12.034   9.050   6.991
86423SOL     OW61165   6.508  11.592   5.370
86423SOL    HW161166   6.452  11.667   5.351
86423SOL    HW261167   6.447  11.518   5.379
86424SOL     OW61168   2.108   1.386   3.447
86424SOL    HW161169   2.120   1.309   3.390
86424SOL    HW261170   2.105   1.460   3.387
86425SOL     OW61171   6.276  11.479   1.831
86425SOL    HW161172   6.272  11.418   1.904
86425SOL    HW261173   6.240  11.561   1.866
86426SOL     OW61174   8.686   0.074   9.296
86426SOL    HW161175   8.730   0.158   9.308
86426SOL    HW261176   8.599   0.097   9.262
86427SOL     OW61177   3.181  12.387  14.165
86427SOL    HW161178   3.265  12.428  14.144
86427SOL    HW261179   3.204  12.299  14.195
86428SOL     OW61180  10.176   9.263   6.814
86428SOL    HW161181  10.243   9.222   6.870
86428SOL    HW261182  10.106   9.198   6.809
86429SOL     OW61183  14.060   6.987   8.054
86429SOL    HW161184  14.067   6.962   8.146
86429SOL    HW261185  13.967   7.002   8.040
86430SOL     OW61186   6.304   8.450  11.005
86430SOL    HW161187   6.372   8.384  11.016
86430SOL    HW261188   6.248   8.417  10.936
86431SOL     OW61189   7.006  14.704   8.144
86431SOL    HW161190   6.915  14.729   8.125
86431SOL    HW261191   7.021  14.733   8.233
86432SOL     OW61192   7.599   6.050   6.637
86432SOL    HW161193   7.669   6.005   6.590
86432SOL    HW261194   7.631   6.139   6.650
86433SOL     OW61195   0.908   3.017   6.528
86433SOL    HW161196   1.000   3.046   6.527
86433SOL    HW261197   0.858   3.098   6.532
86434SOL     OW61198   1.599  13.215   1.984
86434SOL    HW161199   1.578  13.268   2.061
86434SOL    HW261200   1.557  13.261   1.911
86435SOL     OW61201   3.966   5.132   7.891
86435SOL    HW161202   3.899   5.067   7.872
86435SOL    HW261203   3.970   5.136   7.986
86436SOL     OW61204   5.053   0.931   7.333
86436SOL    HW161205   4.996   0.927   7.257
86436SOL    HW261206   4.995   0.916   7.408
86437SOL     OW61207   7.474   4.332   9.004
86437SOL    HW161208   7.568   4.328   9.018
86437SOL    HW261209   7.455   4.425   8.990
86438SOL     OW61210   4.605  13.998   2.347
86438SOL    HW161211   4.648  13.965   2.268
86438SOL    HW261212   4.547  13.927   2.375
86439SOL     OW61213   1.911   3.615   0.173
86439SOL    HW161214   1.896   3.666   0.253
86439SOL    HW261215   1.823   3.585   0.147
86440SOL     OW61216  14.820   3.752   4.436
86440SOL    HW161217  14.857   3.753   4.348
86440SOL    HW261218  14.804   3.844   4.457
86441SOL     OW61219   2.850   4.740   2.240
86441SOL    HW161220   2.834   4.647   2.227
86441SOL    HW261221   2.945   4.749   2.233
86442SOL     OW61222   5.574   8.685   1.753
86442SOL    HW161223   5.578   8.642   1.668
86442SOL    HW261224   5.502   8.642   1.799
86443SOL     OW61225   3.480  10.220   7.079
86443SOL    HW161226   3.535  10.274   7.134
86443SOL    HW261227   3.411  10.278   7.048
86444SOL     OW61228   5.972   4.474  13.648
86444SOL    HW161229   5.899   4.501  13.591
86444SOL    HW261230   5.971   4.536  13.720
86445SOL     OW61231   8.505   5.447   0.709
86445SOL    HW161232   8.494   5.354   0.732
86445SOL    HW261233   8.446   5.460   0.635
86446SOL     OW61234   9.420   3.163   7.742
86446SOL    HW161235   9.401   3.250   7.707
86446SOL    HW261236   9.399   3.168   7.835
86447SOL     OW61237   0.567   8.023   6.940
86447SOL    HW161238   0.638   7.974   6.899
86447SOL    HW261239   0.510   8.049   6.867
86448SOL     OW61240   0.419   3.130   9.304
86448SOL    HW161241   0.492   3.178   9.265
86448SOL    HW261242   0.353   3.125   9.234
86449SOL     OW61243   7.671   3.613   8.067
86449SOL    HW161244   7.636   3.702   8.071
86449SOL    HW261245   7.763   3.623   8.093
86450SOL     OW61246   5.773  14.316  12.898
86450SOL    HW161247   5.762  14.291  12.806
86450SOL    HW261248   5.861  14.288  12.920
86451SOL     OW61249   0.959   6.268   6.195
86451SOL    HW161250   0.985   6.177   6.181
86451SOL    HW261251   0.863   6.265   6.201
86452SOL     OW61252   1.946   8.011   5.795
86452SOL    HW161253   1.879   8.068   5.757
86452SOL    HW261254   1.950   8.037   5.887
86453SOL     OW61255  14.653   4.813   1.787
86453SOL    HW161256  14.633   4.867   1.863
86453SOL    HW261257  14.590   4.741   1.791
86454SOL     OW61258   9.679   1.295   0.798
86454SOL    HW161259   9.679   1.384   0.762
86454SOL    HW261260   9.744   1.297   0.867
86455SOL     OW61261   9.819   4.165   4.040
86455SOL    HW161262   9.733   4.164   3.998
86455SOL    HW261263   9.865   4.237   3.998
86456SOL     OW61264   0.310   3.959   6.652
86456SOL    HW161265   0.278   3.934   6.740
86456SOL    HW261266   0.230   3.968   6.600
86457SOL     OW61267   3.691   1.017  11.551
86457SOL    HW161268   3.732   0.991  11.633
86457SOL    HW261269   3.677   1.111  11.559
86458SOL     OW61270   8.252   2.976   0.698
86458SOL    HW161271   8.330   2.998   0.748
86458SOL    HW261272   8.226   3.058   0.656
86459SOL     OW61273   5.202   1.728   3.051
86459SOL    HW161274   5.123   1.752   3.002
86459SOL    HW261275   5.271   1.723   2.984
86460SOL     OW61276   5.171  11.463   2.325
86460SOL    HW161277   5.124  11.447   2.407
86460SOL    HW261278   5.256  11.420   2.337
86461SOL     OW61279   0.188  11.006   9.819
86461SOL    HW161280   0.194  10.932   9.880
86461SOL    HW261281   0.110  11.055   9.848
86462SOL     OW61282   8.082   3.337   8.000
86462SOL    HW161283   8.011   3.274   8.006
86462SOL    HW261284   8.063   3.387   7.921
86463SOL     OW61285  14.759   1.722   0.787
86463SOL    HW161286  14.672   1.738   0.752
86463SOL    HW261287  14.744   1.677   0.870
86464SOL     OW61288   6.091   0.632   7.590
86464SOL    HW161289   6.108   0.593   7.504
86464SOL    HW261290   6.149   0.708   7.593
86465SOL     OW61291   6.155  12.181  10.935
86465SOL    HW161292   6.235  12.131  10.949
86465SOL    HW261293   6.089  12.115  10.913
86466SOL     OW61294   1.268  13.227   0.689
86466SOL    HW161295   1.273  13.231   0.784
86466SOL    HW261296   1.272  13.318   0.660
86467SOL     OW61297   2.318  13.212  14.655
86467SOL    HW161298   2.283  13.179  14.572
86467SOL    HW261299   2.329  13.133  14.709
86468SOL     OW61300  10.187   4.134   2.267
86468SOL    HW161301  10.180   4.201   2.198
86468SOL    HW261302  10.266   4.159   2.316
86469SOL     OW61303  13.885   8.775   8.578
86469SOL    HW161304  13.891   8.837   8.505
86469SOL    HW261305  13.797   8.789   8.613
86470SOL     OW61306   1.896   5.833   3.621
86470SOL    HW161307   1.875   5.741   3.636
86470SOL    HW261308   1.876   5.875   3.705
86471SOL     OW61309   0.514   3.368   2.238
86471SOL    HW161310   0.486   3.329   2.154
86471SOL    HW261311   0.472   3.314   2.304
86472SOL     OW61312   5.821   9.256  14.362
86472SOL    HW161313   5.907   9.225  14.389
86472SOL    HW261314   5.759   9.200  14.409
86473SOL     OW61315  10.739   5.355   7.228
86473SOL    HW161316  10.724   5.370   7.135
86473SOL    HW261317  10.827   5.319   7.233
86474SOL     OW61318   2.408   2.827   6.498
86474SOL    HW161319   2.396   2.837   6.592
86474SOL    HW261320   2.412   2.733   6.483
86475SOL     OW61321   7.131   8.454   9.988
86475SOL    HW161322   7.188   8.413  10.054
86475SOL    HW261323   7.045   8.457  10.030
86476SOL     OW61324  13.531   6.254  12.488
86476SOL    HW161325  13.437   6.263  12.508
86476SOL    HW261326  13.564   6.344  12.488
86477SOL     OW61327   5.463   4.876  11.273
86477SOL    HW161328   5.493   4.960  11.239
86477SOL    HW261329   5.542   4.824  11.282
86478SOL     OW61330   4.076   2.203  12.024
86478SOL    HW161331   4.147   2.259  12.055
86478SOL    HW261332   4.082   2.207  11.928
86479SOL     OW61333  10.695   5.437   1.687
86479SOL    HW161334  10.679   5.486   1.606
86479SOL    HW261335  10.700   5.504   1.755
86480SOL     OW61336   8.168  11.222   4.092
86480SOL    HW161337   8.168  11.317   4.082
86480SOL    HW261338   8.087  11.203   4.140
86481SOL     OW61339   4.240   4.542  14.522
86481SOL    HW161340   4.216   4.487  14.447
86481SOL    HW261341   4.158   4.554  14.570
86482SOL     OW61342  13.735   4.575  10.093
86482SOL    HW161343  13.765   4.501  10.039
86482SOL    HW261344  13.755   4.549  10.183
86483SOL     OW61345   1.210   2.070  12.027
86483SOL    HW161346   1.180   2.134  12.091
86483SOL    HW261347   1.144   2.073  11.958
86484SOL     OW61348  14.174   0.425   1.577
86484SOL    HW161349  14.205   0.515   1.574
86484SOL    HW261350  14.192   0.395   1.666
86485SOL     OW61351   4.386  12.647   3.656
86485SOL    HW161352   4.403  12.730   3.701
86485SOL    HW261353   4.297  12.623   3.685
86486SOL     OW61354  11.348  10.969   6.762
86486SOL    HW161355  11.430  11.019   6.759
86486SOL    HW261356  11.320  10.973   6.854
86487SOL     OW61357   4.924  13.828   1.919
86487SOL    HW161358   5.011  13.809   1.882
86487SOL    HW261359   4.925  13.786   2.005
86488SOL     OW61360  10.264  11.167   3.078
86488SOL    HW161361  10.311  11.090   3.108
86488SOL    HW261362  10.276  11.167   2.983
86489SOL     OW61363   0.661   4.781   7.439
86489SOL    HW161364   0.587   4.723   7.454
86489SOL    HW261365   0.687   4.809   7.527
86490SOL     OW61366   2.294   4.439   1.713
86490SOL    HW161367   2.361   4.460   1.778
86490SOL    HW261368   2.310   4.499   1.641
86491SOL     OW61369   7.722  11.044   2.154
86491SOL    HW161370   7.652  11.073   2.096
86491SOL    HW261371   7.797  11.030   2.096
86492SOL     OW61372   8.783  13.607  12.315
86492SOL    HW161373   8.859  13.632  12.261
86492SOL    HW261374   8.821  13.577  12.397
86493SOL     OW61375   1.825  14.277   1.882
86493SOL    HW161376   1.730  14.268   1.873
86493SOL    HW261377   1.855  14.301   1.795
86494SOL     OW61378   2.366   8.055  13.600
86494SOL    HW161379   2.412   7.972  13.593
86494SOL    HW261380   2.362   8.074  13.693
86495SOL     OW61381   4.473   9.961   0.556
86495SOL    HW161382   4.455   9.937   0.465
86495SOL    HW261383   4.563   9.933   0.572
86496SOL     OW61384   9.819  11.284   9.420
86496SOL    HW161385   9.857  11.230   9.489
86496SOL    HW261386   9.893  11.336   9.388
86497SOL     OW61387   7.932  13.928   0.789
86497SOL    HW161388   7.904  13.849   0.835
86497SOL    HW261389   8.021  13.944   0.821
86498SOL     OW61390   4.295   2.125  12.622
86498SOL    HW161391   4.275   2.197  12.683
86498SOL    HW261392   4.297   2.047  12.677
86499SOL     OW61393  12.118   0.913  11.581
86499SOL    HW161394  12.161   0.835  11.618
86499SOL    HW261395  12.034   0.880  11.549
86500SOL     OW61396  14.071  11.190  14.266
86500SOL    HW161397  14.085  11.281  14.293
86500SOL    HW261398  14.051  11.144  14.348
86501SOL     OW61399  12.978   2.948   8.832
86501SOL    HW161400  12.921   3.024   8.843
86501SOL    HW261401  12.971   2.901   8.915
86502SOL     OW61402   0.360  11.110  13.302
86502SOL    HW161403   0.369  11.149  13.389
86502SOL    HW261404   0.269  11.080  13.298
86503SOL     OW61405   0.152   0.648  14.552
86503SOL    HW161406   0.080   0.708  14.572
86503SOL    HW261407   0.110   0.574  14.508
86504SOL     OW61408  13.016  14.113   1.673
86504SOL    HW161409  12.967  14.127   1.592
86504SOL    HW261410  13.108  14.107   1.645
86505SOL     OW61411  10.861   0.228  12.353
86505SOL    HW161412  10.797   0.275  12.301
86505SOL    HW261413  10.929   0.293  12.372
86506SOL     OW61414  13.007  11.636  10.389
86506SOL    HW161415  12.987  11.704  10.325
86506SOL    HW261416  13.069  11.677  10.449
86507SOL     OW61417  10.381   3.689  13.235
86507SOL    HW161418  10.410   3.621  13.296
86507SOL    HW261419  10.286   3.679  13.231
86508SOL     OW61420   8.705   8.824   8.143
86508SOL    HW161421   8.617   8.842   8.178
86508SOL    HW261422   8.690   8.798   8.052
86509SOL     OW61423   5.747   9.389  13.886
86509SOL    HW161424   5.802   9.361  13.959
86509SOL    HW261425   5.659   9.397  13.924
86510SOL     OW61426   8.919  11.614   4.077
86510SOL    HW161427   8.853  11.639   4.013
86510SOL    HW261428   9.000  11.607   4.027
86511SOL     OW61429  11.455   9.696  11.098
86511SOL    HW161430  11.533   9.748  11.116
86511SOL    HW261431  11.470   9.614  11.146
86512SOL     OW61432  13.372   1.130   9.494
86512SOL    HW161433  13.392   1.062   9.430
86512SOL    HW261434  13.363   1.210   9.443
86513SOL     OW61435  14.258  12.572   7.434
86513SOL    HW161436  14.309  12.642   7.393
86513SOL    HW261437  14.312  12.494   7.426
86514SOL     OW61438  13.480   0.035   2.849
86514SOL    HW161439  13.415  14.832   2.856
86514SOL    HW261440  13.497   0.042   2.755
86515SOL     OW61441  12.032   3.305  13.426
86515SOL    HW161442  12.089   3.304  13.503
86515SOL    HW261443  12.071   3.242  13.365
86516SOL     OW61444  13.285   7.262   7.439
86516SOL    HW161445  13.328   7.199   7.495
86516SOL    HW261446  13.201   7.279   7.482
86517SOL     OW61447   5.340   9.751   1.651
86517SOL    HW161448   5.265   9.699   1.620
86517SOL    HW261449   5.319   9.840   1.623
86518SOL     OW61450   3.454   5.771  10.804
86518SOL    HW161451   3.473   5.726  10.722
86518SOL    HW261452   3.535   5.765  10.854
86519SOL     OW61453  12.611  12.596  13.961
86519SOL    HW161454  12.674  12.632  14.024
86519SOL    HW261455  12.636  12.505  13.950
86520SOL     OW61456   2.287   6.277   4.030
86520SOL    HW161457   2.307   6.316   4.116
86520SOL    HW261458   2.268   6.185   4.050
86521SOL     OW61459  11.302  13.327  14.366
86521SOL    HW161460  11.317  13.416  14.400
86521SOL    HW261461  11.383  13.306  14.319
86522SOL     OW61462   4.229  11.875   0.507
86522SOL    HW161463   4.266  11.867   0.595
86522SOL    HW261464   4.257  11.961   0.476
86523SOL     OW61465   8.046   5.149   4.666
86523SOL    HW161466   8.088   5.232   4.688
86523SOL    HW261467   7.976   5.140   4.731
86524SOL     OW61468   6.549   9.534   4.639
86524SOL    HW161469   6.506   9.479   4.704
86524SOL    HW261470   6.484   9.599   4.615
86525SOL     OW61471  13.853  11.300   1.525
86525SOL    HW161472  13.785  11.359   1.557
86525SOL    HW261473  13.862  11.233   1.593
86526SOL     OW61474   3.416   2.998  13.884
86526SOL    HW161475   3.333   3.044  13.868
86526SOL    HW261476   3.445   3.030  13.970
86527SOL     OW61477   0.266  10.523   6.640
86527SOL    HW161478   0.334  10.575   6.598
86527SOL    HW261479   0.314  10.462   6.697
86528SOL     OW61480   7.568   9.536   7.133
86528SOL    HW161481   7.661   9.547   7.115
86528SOL    HW261482   7.524   9.580   7.061
86529SOL     OW61483  14.730  12.645   4.423
86529SOL    HW161484  14.638  12.670   4.416
86529SOL    HW261485  14.756  12.674   4.510
86530SOL     OW61486  12.505  13.677   1.869
86530SOL    HW161487  12.477  13.658   1.959
86530SOL    HW261488  12.589  13.631   1.861
86531SOL     OW61489   2.337  12.067   4.206
86531SOL    HW161490   2.324  12.013   4.128
86531SOL    HW261491   2.298  12.151   4.183
86532SOL     OW61492  12.409   9.199  14.815
86532SOL    HW161493  12.396   9.285  14.855
86532SOL    HW261494  12.421   9.140   0.021
86533SOL     OW61495   1.876   4.136   4.128
86533SOL    HW161496   1.790   4.136   4.085
86533SOL    HW261497   1.860   4.094   4.213
86534SOL     OW61498   8.426  14.271  12.906
86534SOL    HW161499   8.419  14.314  12.991
86534SOL    HW261500   8.514  14.233  12.906
86535SOL     OW61501   8.803   2.378   4.545
86535SOL    HW161502   8.775   2.290   4.569
86535SOL    HW261503   8.722   2.428   4.540
86536SOL     OW61504   4.224   6.450   8.916
86536SOL    HW161505   4.291   6.417   8.856
86536SOL    HW261506   4.224   6.387   8.988
86537SOL     OW61507   9.062   4.545  11.515
86537SOL    HW161508   9.050   4.515  11.605
86537SOL    HW261509   8.993   4.501  11.466
86538SOL     OW61510  10.816  10.212   2.400
86538SOL    HW161511  10.780  10.142   2.454
86538SOL    HW261512  10.881  10.169   2.345
86539SOL     OW61513   9.177   0.515  11.374
86539SOL    HW161514   9.250   0.578  11.374
86539SOL    HW261515   9.098   0.570  11.375
86540SOL     OW61516  11.954   6.895   1.673
86540SOL    HW161517  11.943   6.873   1.580
86540SOL    HW261518  11.883   6.850   1.717
86541SOL     OW61519   0.362   2.492   3.888
86541SOL    HW161520   0.390   2.569   3.938
86541SOL    HW261521   0.422   2.489   3.814
86542SOL     OW61522  10.520   3.481   2.915
86542SOL    HW161523  10.501   3.417   2.983
86542SOL    HW261524  10.605   3.453   2.879
86543SOL     OW61525  11.626  12.416   1.122
86543SOL    HW161526  11.604  12.327   1.095
86543SOL    HW261527  11.721  12.421   1.114
86544SOL     OW61528  14.021  11.964  12.089
86544SOL    HW161529  14.057  11.934  12.005
86544SOL    HW261530  13.937  11.919  12.097
86545SOL     OW61531   3.083  11.592   2.883
86545SOL    HW161532   3.039  11.541   2.815
86545SOL    HW261533   3.022  11.593   2.956
86546SOL     OW61534   4.772   6.829   5.946
86546SOL    HW161535   4.795   6.916   5.977
86546SOL    HW261536   4.798   6.771   6.018
86547SOL     OW61537   8.917   7.030   1.764
86547SOL    HW161538   8.922   6.962   1.832
86547SOL    HW261539   8.898   7.110   1.812
86548SOL     OW61540   7.965  12.220   2.847
86548SOL    HW161541   7.874  12.251   2.844
86548SOL    HW261542   7.975  12.169   2.767
86549SOL     OW61543   2.860   3.101   4.138
86549SOL    HW161544   2.776   3.100   4.184
86549SOL    HW261545   2.903   3.181   4.168
86550SOL     OW61546   7.417   9.592   5.858
86550SOL    HW161547   7.416   9.581   5.953
86550SOL    HW261548   7.508   9.613   5.838
86551SOL     OW61549  12.721   5.024   0.403
86551SOL    HW161550  12.656   5.030   0.333
86551SOL    HW261551  12.748   4.932   0.403
86552SOL     OW61552   5.483  10.487   2.091
86552SOL    HW161553   5.565  10.439   2.104
86552SOL    HW261554   5.511  10.574   2.060
86553SOL     OW61555   8.452   4.191  10.069
86553SOL    HW161556   8.399   4.140  10.008
86553SOL    HW261557   8.412   4.176  10.155
86554SOL     OW61558  12.453   8.015   7.851
86554SOL    HW161559  12.482   8.028   7.941
86554SOL    HW261560  12.389   7.944   7.856
86555SOL     OW61561   3.698   7.387   2.558
86555SOL    HW161562   3.614   7.415   2.522
86555SOL    HW261563   3.739   7.336   2.488
86556SOL     OW61564   5.877  11.001  13.613
86556SOL    HW161565   5.813  11.033  13.677
86556SOL    HW261566   5.827  10.941  13.558
86557SOL     OW61567  12.093   8.204   3.214
86557SOL    HW161568  12.170   8.258   3.198
86557SOL    HW261569  12.121   8.115   3.192
86558SOL     OW61570   4.223   6.346   1.845
86558SOL    HW161571   4.257   6.276   1.790
86558SOL    HW261572   4.130   6.326   1.855
86559SOL     OW61573   6.401  13.437   7.245
86559SOL    HW161574   6.326  13.496   7.248
86559SOL    HW261575   6.385  13.381   7.169
86560SOL     OW61576   5.342  12.684  13.966
86560SOL    HW161577   5.286  12.612  13.995
86560SOL    HW261578   5.325  12.754  14.029
86561SOL     OW61579  13.047   0.644   4.663
86561SOL    HW161580  13.100   0.596   4.727
86561SOL    HW261581  12.957   0.620   4.684
86562SOL     OW61582  14.283   2.626  14.591
86562SOL    HW161583  14.371   2.659  14.612
86562SOL    HW261584  14.298   2.562  14.522
86563SOL     OW61585   2.020   9.501  11.162
86563SOL    HW161586   2.036   9.589  11.128
86563SOL    HW261587   2.099   9.452  11.140
86564SOL     OW61588   0.133   8.288   8.169
86564SOL    HW161589   0.099   8.346   8.101
86564SOL    HW261590   0.224   8.314   8.180
86565SOL     OW61591   2.808   5.632   3.644
86565SOL    HW161592   2.748   5.690   3.597
86565SOL    HW261593   2.811   5.669   3.732
86566SOL     OW61594   0.956   1.167  14.687
86566SOL    HW161595   0.962   1.167  14.591
86566SOL    HW261596   0.865   1.192  14.705
86567SOL     OW61597   4.328   8.359   2.950
86567SOL    HW161598   4.357   8.438   2.995
86567SOL    HW261599   4.353   8.287   3.009
86568SOL     OW61600   7.272   4.039   3.325
86568SOL    HW161601   7.333   4.018   3.254
86568SOL    HW261602   7.207   4.097   3.285
86569SOL     OW61603   6.430  14.595   4.042
86569SOL    HW161604   6.461  14.504   4.036
86569SOL    HW261605   6.364  14.602   3.972
86570SOL     OW61606  10.090   5.288   2.721
86570SOL    HW161607  10.110   5.381   2.728
86570SOL    HW261608  10.100   5.268   2.628
86571SOL     OW61609   0.830  11.670  14.257
86571SOL    HW161610   0.782  11.589  14.239
86571SOL    HW261611   0.770  11.722  14.311
86572SOL     OW61612   5.329  14.468   9.543
86572SOL    HW161613   5.378  14.471   9.461
86572SOL    HW261614   5.389  14.424   9.604
86573SOL     OW61615   3.695   6.672   7.723
86573SOL    HW161616   3.632   6.690   7.654
86573SOL    HW261617   3.780   6.688   7.683
86574SOL     OW61618  11.508   9.693   3.042
86574SOL    HW161619  11.413   9.691   3.027
86574SOL    HW261620  11.529   9.786   3.049
86575SOL     OW61621   1.953   9.093   1.495
86575SOL    HW161622   1.928   9.001   1.504
86575SOL    HW261623   1.878   9.142   1.527
86576SOL     OW61624   6.767   7.312   2.415
86576SOL    HW161625   6.855   7.321   2.380
86576SOL    HW261626   6.727   7.398   2.404
86577SOL     OW61627  10.944   4.125   1.350
86577SOL    HW161628  10.913   4.176   1.424
86577SOL    HW261629  10.981   4.046   1.389
86578SOL     OW61630   9.547   3.951   6.098
86578SOL    HW161631   9.535   4.042   6.070
86578SOL    HW261632   9.632   3.951   6.142
86579SOL     OW61633   3.884   7.438   9.594
86579SOL    HW161634   3.937   7.440   9.674
86579SOL    HW261635   3.872   7.530   9.571
86580SOL     OW61636   9.651   1.204  12.943
86580SOL    HW161637   9.575   1.180  12.996
86580SOL    HW261638   9.615   1.221  12.856
86581SOL     OW61639   0.372   9.475  13.263
86581SOL    HW161640   0.429   9.549  13.241
86581SOL    HW261641   0.292   9.491  13.212
86582SOL     OW61642   9.911  13.171  10.874
86582SOL    HW161643   9.976  13.221  10.923
86582SOL    HW261644   9.928  13.194  10.782
86583SOL     OW61645   1.752   6.144  10.626
86583SOL    HW161646   1.844   6.148  10.652
86583SOL    HW261647   1.728   6.052  10.640
86584SOL     OW61648   1.011   1.894   7.307
86584SOL    HW161649   1.047   1.880   7.219
86584SOL    HW261650   0.954   1.970   7.298
86585SOL     OW61651   8.042   7.624  12.798
86585SOL    HW161652   7.971   7.585  12.850
86585SOL    HW261653   8.111   7.642  12.861
86586SOL     OW61654   7.395  12.606   8.110
86586SOL    HW161655   7.317  12.654   8.139
86586SOL    HW261656   7.420  12.647   8.028
86587SOL     OW61657   3.522  12.875   3.907
86587SOL    HW161658   3.436  12.910   3.930
86587SOL    HW261659   3.523  12.875   3.812
86588SOL     OW61660   6.803   3.273   3.345
86588SOL    HW161661   6.747   3.341   3.383
86588SOL    HW261662   6.760   3.191   3.368
86589SOL     OW61663   9.926   8.836   8.960
86589SOL    HW161664   9.869   8.791   8.897
86589SOL    HW261665   9.980   8.893   8.905
86590SOL     OW61666   0.215   3.873   6.906
86590SOL    HW161667   0.221   3.779   6.885
86590SOL    HW261668   0.145   3.878   6.970
86591SOL     OW61669   9.241  12.673  13.480
86591SOL    HW161670   9.160  12.635  13.512
86591SOL    HW261671   9.214  12.752  13.433
86592SOL     OW61672   1.976   0.197   0.481
86592SOL    HW161673   1.898   0.252   0.486
86592SOL    HW261674   2.048   0.255   0.505
86593SOL     OW61675  13.024  10.590   5.842
86593SOL    HW161676  13.069  10.538   5.909
86593SOL    HW261677  12.935  10.557   5.843
86594SOL     OW61678   2.159   4.095  13.404
86594SOL    HW161679   2.234   4.039  13.423
86594SOL    HW261680   2.109   4.047  13.339
86595SOL     OW61681   1.910  11.060   8.141
86595SOL    HW161682   1.896  11.128   8.075
86595SOL    HW261683   1.822  11.030   8.163
86596SOL     OW61684  10.055   8.553  12.068
86596SOL    HW161685  10.020   8.584  11.984
86596SOL    HW261686  10.064   8.459  12.057
86597SOL     OW61687   0.497  11.397   4.686
86597SOL    HW161688   0.499  11.437   4.599
86597SOL    HW261689   0.509  11.470   4.746
86598SOL     OW61690   1.727  10.968   7.416
86598SOL    HW161691   1.738  11.018   7.496
86598SOL    HW261692   1.705  11.033   7.349
86599SOL     OW61693   5.868   0.645   6.507
86599SOL    HW161694   5.954   0.683   6.526
86599SOL    HW261695   5.881   0.551   6.517
86600SOL     OW61696  13.159   8.683   1.903
86600SOL    HW161697  13.092   8.718   1.845
86600SOL    HW261698  13.125   8.699   1.991
86601SOL     OW61699   7.407   2.877   6.571
86601SOL    HW161700   7.497   2.887   6.542
86601SOL    HW261701   7.413   2.858   6.665
86602SOL     OW61702   2.308  10.740   5.623
86602SOL    HW161703   2.304  10.656   5.669
86602SOL    HW261704   2.219  10.753   5.589
86603SOL     OW61705   1.627   7.169   8.098
86603SOL    HW161706   1.696   7.230   8.126
86603SOL    HW261707   1.623   7.180   8.003
86604SOL     OW61708   1.606   8.125   0.031
86604SOL    HW161709   1.589   8.077  14.817
86604SOL    HW261710   1.587   8.063   0.100
86605SOL     OW61711   1.285  14.070   7.342
86605SOL    HW161712   1.197  14.072   7.303
86605SOL    HW261713   1.344  14.065   7.267
86606SOL     OW61714   5.832  13.089   9.686
86606SOL    HW161715   5.925  13.094   9.707
86606SOL    HW261716   5.790  13.153   9.742
86607SOL     OW61717   1.042  14.317   5.771
86607SOL    HW161718   1.120  14.367   5.798
86607SOL    HW261719   0.982  14.325   5.845
86608SOL     OW61720  10.733   1.881   3.962
86608SOL    HW161721  10.755   1.845   3.876
86608SOL    HW261722  10.810   1.933   3.986
86609SOL     OW61723   6.227   7.025   3.473
86609SOL    HW161724   6.297   7.080   3.507
86609SOL    HW261725   6.185   6.987   3.550
86610SOL     OW61726   2.757   7.260  11.342
86610SOL    HW161727   2.663   7.256  11.359
86610SOL    HW261728   2.764   7.277  11.249
86611SOL     OW61729  12.978   1.120   1.288
86611SOL    HW161730  12.956   1.118   1.381
86611SOL    HW261731  13.024   1.204   1.276
86612SOL     OW61732   0.500   9.811   3.677
86612SOL    HW161733   0.462   9.886   3.630
86612SOL    HW261734   0.441   9.795   3.750
86613SOL     OW61735  14.432  10.655   9.197
86613SOL    HW161736  14.377  10.661   9.118
86613SOL    HW261737  14.509  10.607   9.168
86614SOL     OW61738   2.896  12.438  10.096
86614SOL    HW161739   2.868  12.523  10.130
86614SOL    HW261740   2.986  12.428  10.128
86615SOL     OW61741   9.047   3.033   6.145
86615SOL    HW161742   9.092   3.027   6.060
86615SOL    HW261743   8.983   2.962   6.144
86616SOL     OW61744   2.774   7.892  10.505
86616SOL    HW161745   2.845   7.943  10.543
86616SOL    HW261746   2.813   7.807  10.484
86617SOL     OW61747   5.113   0.541   4.733
86617SOL    HW161748   5.159   0.579   4.658
86617SOL    HW261749   5.022   0.532   4.702
86618SOL     OW61750  12.565   9.374  14.063
86618SOL    HW161751  12.495   9.405  14.121
86618SOL    HW261752  12.645   9.383  14.115
86619SOL     OW61753  13.711  12.134  10.338
86619SOL    HW161754  13.750  12.131  10.251
86619SOL    HW261755  13.661  12.053  10.346
86620SOL     OW61756  11.296   1.565   6.345
86620SOL    HW161757  11.202   1.555   6.331
86620SOL    HW261758  11.310   1.537   6.436
86621SOL     OW61759   4.378   5.844  14.394
86621SOL    HW161760   4.334   5.829  14.477
86621SOL    HW261761   4.470   5.859  14.417
86622SOL     OW61762   0.235  13.351   3.433
86622SOL    HW161763   0.171  13.288   3.401
86622SOL    HW261764   0.261  13.317   3.519
86623SOL     OW61765   1.740   3.441   8.481
86623SOL    HW161766   1.799   3.378   8.440
86623SOL    HW261767   1.727   3.509   8.415
86624SOL     OW61768   3.484   4.172  11.029
86624SOL    HW161769   3.495   4.253  10.980
86624SOL    HW261770   3.414   4.124  10.984
86625SOL     OW61771   8.235   4.383   7.095
86625SOL    HW161772   8.170   4.405   7.161
86625SOL    HW261773   8.280   4.466   7.077
86626SOL     OW61774   8.805   2.380   1.660
86626SOL    HW161775   8.889   2.407   1.698
86626SOL    HW261776   8.749   2.457   1.669
86627SOL     OW61777   1.778  10.891   9.812
86627SOL    HW161778   1.732  10.956   9.864
86627SOL    HW261779   1.843  10.853   9.872
86628SOL     OW61780  12.536   7.459  13.574
86628SOL    HW161781  12.589   7.387  13.608
86628SOL    HW261782  12.592   7.502  13.509
86629SOL     OW61783   1.631   1.875   8.558
86629SOL    HW161784   1.630   1.924   8.640
86629SOL    HW261785   1.539   1.869   8.533
86630SOL     OW61786  11.123   8.761  10.572
86630SOL    HW161787  11.084   8.771  10.486
86630SOL    HW261788  11.125   8.849  10.608
86631SOL     OW61789  12.025  12.557   1.775
86631SOL    HW161790  11.997  12.478   1.730
86631SOL    HW261791  12.054  12.616   1.705
86632SOL     OW61792   0.481   4.692   1.227
86632SOL    HW161793   0.429   4.705   1.307
86632SOL    HW261794   0.460   4.604   1.198
86633SOL     OW61795  13.644   8.035  13.888
86633SOL    HW161796  13.658   8.118  13.843
86633SOL    HW261797  13.727   8.017  13.932
86634SOL     OW61798   0.922   2.553   9.313
86634SOL    HW161799   0.831   2.585   9.316
86634SOL    HW261800   0.972   2.619   9.362
86635SOL     OW61801   3.570   0.390  11.617
86635SOL    HW161802   3.534   0.387  11.529
86635SOL    HW261803   3.662   0.412  11.605
86636SOL     OW61804   6.239   0.812   2.961
86636SOL    HW161805   6.158   0.850   2.995
86636SOL    HW261806   6.224   0.805   2.866
86637SOL     OW61807   3.191   6.272   5.150
86637SOL    HW161808   3.201   6.364   5.175
86637SOL    HW261809   3.226   6.266   5.062
86638SOL     OW61810   9.327   8.557   0.552
86638SOL    HW161811   9.390   8.579   0.483
86638SOL    HW261812   9.378   8.555   0.632
86639SOL     OW61813   8.516   3.924  11.740
86639SOL    HW161814   8.577   3.987  11.701
86639SOL    HW261815   8.527   3.935  11.834
86640SOL     OW61816  11.145   9.536   2.384
86640SOL    HW161817  11.071   9.478   2.404
86640SOL    HW261818  11.173   9.508   2.297
86641SOL     OW61819  14.114   9.765   1.642
86641SOL    HW161820  14.084   9.834   1.583
86641SOL    HW261821  14.198   9.797   1.675
86642SOL     OW61822   7.756  13.754   2.534
86642SOL    HW161823   7.807  13.828   2.501
86642SOL    HW261824   7.709  13.721   2.458
86643SOL     OW61825   0.603   8.265  12.642
86643SOL    HW161826   0.522   8.216  12.656
86643SOL    HW261827   0.621   8.256  12.548
86644SOL     OW61828  11.694  10.435   7.493
86644SOL    HW161829  11.786  10.440   7.466
86644SOL    HW261830  11.697  10.401   7.582
86645SOL     OW61831   9.625   3.923  12.718
86645SOL    HW161832   9.565   3.947  12.647
86645SOL    HW261833   9.711   3.917  12.675
86646SOL     OW61834   6.753  14.435   7.659
86646SOL    HW161835   6.730  14.521   7.693
86646SOL    HW261836   6.787  14.453   7.571
86647SOL     OW61837  13.807  10.165   0.479
86647SOL    HW161838  13.737  10.230   0.467
86647SOL    HW261839  13.842  10.184   0.566
86648SOL     OW61840   6.470  13.601   1.163
86648SOL    HW161841   6.564  13.621   1.165
86648SOL    HW261842   6.450  13.585   1.071
86649SOL     OW61843  13.299   2.579  13.272
86649SOL    HW161844  13.374   2.635  13.250
86649SOL    HW261845  13.265   2.551  13.187
86650SOL     OW61846   8.407   4.627   4.056
86650SOL    HW161847   8.439   4.538   4.041
86650SOL    HW261848   8.476   4.669   4.108
86651SOL     OW61849   8.674   0.290   4.012
86651SOL    HW161850   8.713   0.325   3.932
86651SOL    HW261851   8.749   0.264   4.066
86652SOL     OW61852  10.445   3.521   0.825
86652SOL    HW161853  10.503   3.464   0.774
86652SOL    HW261854  10.492   3.605   0.828
86653SOL     OW61855   9.184  13.818   0.873
86653SOL    HW161856   9.094  13.816   0.841
86653SOL    HW261857   9.194  13.734   0.919
86654SOL     OW61858  11.371  11.560   9.384
86654SOL    HW161859  11.363  11.565   9.289
86654SOL    HW261860  11.461  11.587   9.402
86655SOL     OW61861   7.114   3.890  14.553
86655SOL    HW161862   7.159   3.946  14.489
86655SOL    HW261863   7.045   3.847  14.503
86656SOL     OW61864   6.746   6.249   0.659
86656SOL    HW161865   6.786   6.260   0.745
86656SOL    HW261866   6.693   6.169   0.667
86657SOL     OW61867   6.606  11.221   5.355
86657SOL    HW161868   6.549  11.251   5.426
86657SOL    HW261869   6.563  11.142   5.322
86658SOL     OW61870   5.628   4.664  14.579
86658SOL    HW161871   5.568   4.639  14.509
86658SOL    HW261872   5.694   4.595  14.579
86659SOL     OW61873   0.395  10.932   2.049
86659SOL    HW161874   0.302  10.931   2.025
86659SOL    HW261875   0.436  10.870   1.989
86660SOL     OW61876  13.289   8.838   5.626
86660SOL    HW161877  13.299   8.743   5.628
86660SOL    HW261878  13.336   8.869   5.703
86661SOL     OW61879  12.087  11.102   3.909
86661SOL    HW161880  12.037  11.146   3.978
86661SOL    HW261881  12.063  11.149   3.829
86662SOL     OW61882  11.854   7.183   8.746
86662SOL    HW161883  11.810   7.098   8.750
86662SOL    HW261884  11.873   7.197   8.654
86663SOL     OW61885  13.921  13.469  13.097
86663SOL    HW161886  14.012  13.451  13.074
86663SOL    HW261887  13.908  13.562  13.075
86664SOL     OW61888   8.853  14.828   8.008
86664SOL    HW161889   8.858   0.037   7.951
86664SOL    HW261890   8.913  14.765   7.969
86665SOL     OW61891  13.276   3.367   6.705
86665SOL    HW161892  13.362   3.388   6.667
86665SOL    HW261893  13.250   3.286   6.660
86666SOL     OW61894   5.253   0.078   8.841
86666SOL    HW161895   5.293   0.085   8.754
86666SOL    HW261896   5.217  14.857   8.844
86667SOL     OW61897   6.448   3.456  11.633
86667SOL    HW161898   6.511   3.511  11.587
86667SOL    HW261899   6.413   3.398  11.564
86668SOL     OW61900   0.810   1.320   9.448
86668SOL    HW161901   0.778   1.244   9.498
86668SOL    HW261902   0.903   1.302   9.433
86669SOL     OW61903   4.941  13.613   9.276
86669SOL    HW161904   4.963  13.587   9.365
86669SOL    HW261905   5.014  13.581   9.222
86670SOL     OW61906   3.928   6.491   5.422
86670SOL    HW161907   3.936   6.399   5.445
86670SOL    HW261908   3.987   6.536   5.483
86671SOL     OW61909  12.854   5.778  10.093
86671SOL    HW161910  12.852   5.783  10.188
86671SOL    HW261911  12.801   5.852  10.063
86672SOL     OW61912   9.708   2.071   0.461
86672SOL    HW161913   9.613   2.073   0.450
86672SOL    HW261914   9.742   2.077   0.372
86673SOL     OW61915  12.118   1.431  13.701
86673SOL    HW161916  12.062   1.464  13.771
86673SOL    HW261917  12.057   1.407  13.631
86674SOL     OW61918  13.852  10.266  12.181
86674SOL    HW161919  13.901  10.295  12.258
86674SOL    HW261920  13.915  10.216  12.130
86675SOL     OW61921   1.484   9.906   7.965
86675SOL    HW161922   1.474   9.831   8.022
86675SOL    HW261923   1.395   9.940   7.954
86676SOL     OW61924  11.489   3.404   9.303
86676SOL    HW161925  11.443   3.360   9.232
86676SOL    HW261926  11.437   3.482   9.321
86677SOL     OW61927   3.950  13.156   5.616
86677SOL    HW161928   4.034  13.198   5.633
86677SOL    HW261929   3.973  13.065   5.595
86678SOL     OW61930   2.816   3.591   8.418
86678SOL    HW161931   2.874   3.561   8.489
86678SOL    HW261932   2.875   3.607   8.345
86679SOL     OW61933  14.464   6.157   9.492
86679SOL    HW161934  14.471   6.086   9.428
86679SOL    HW261935  14.375   6.190   9.481
86680SOL     OW61936  11.351   1.691   1.960
86680SOL    HW161937  11.311   1.737   2.033
86680SOL    HW261938  11.425   1.746   1.933
86681SOL     OW61939  13.108  10.296   8.613
86681SOL    HW161940  13.086  10.204   8.633
86681SOL    HW261941  13.192  10.292   8.569
86682SOL     OW61942  11.519   1.572   5.665
86682SOL    HW161943  11.490   1.529   5.746
86682SOL    HW261944  11.458   1.644   5.653
86683SOL     OW61945  12.958  11.809   4.836
86683SOL    HW161946  12.946  11.898   4.869
86683SOL    HW261947  12.918  11.809   4.749
86684SOL     OW61948  13.784  10.620   4.691
86684SOL    HW161949  13.740  10.703   4.673
86684SOL    HW261950  13.766  10.566   4.614
86685SOL     OW61951  14.640   5.544   6.513
86685SOL    HW161952  14.559   5.594   6.511
86685SOL    HW261953  14.694   5.587   6.579
86686SOL     OW61954   7.360  10.348   4.940
86686SOL    HW161955   7.334  10.342   4.848
86686SOL    HW261956   7.278  10.356   4.988
86687SOL     OW61957   7.686   1.266   6.615
86687SOL    HW161958   7.656   1.233   6.700
86687SOL    HW261959   7.718   1.188   6.570
86688SOL     OW61960  12.041   5.181   5.684
86688SOL    HW161961  11.966   5.159   5.740
86688SOL    HW261962  12.072   5.266   5.717
86689SOL     OW61963  11.913   5.028   5.171
86689SOL    HW161964  11.836   5.064   5.128
86689SOL    HW261965  11.978   5.098   5.166
86690SOL     OW61966   4.505   1.622   8.499
86690SOL    HW161967   4.495   1.629   8.594
86690SOL    HW261968   4.454   1.696   8.465
86691SOL     OW61969   3.030   6.980   7.649
86691SOL    HW161970   2.993   6.895   7.672
86691SOL    HW261971   2.968   7.017   7.585
86692SOL     OW61972   8.544   0.020   0.498
86692SOL    HW161973   8.512  14.804   0.529
86692SOL    HW261974   8.638   0.007   0.484
86693SOL     OW61975   8.882   9.370   8.488
86693SOL    HW161976   8.925   9.344   8.406
86693SOL    HW261977   8.792   9.389   8.463
86694SOL     OW61978   5.075  14.700   2.527
86694SOL    HW161979   5.118  14.781   2.500
86694SOL    HW261980   5.062  14.710   2.621
86695SOL     OW61981  12.316   5.789   8.607
86695SOL    HW161982  12.234   5.832   8.631
86695SOL    HW261983  12.293   5.734   8.531
86696SOL     OW61984   8.885   5.534   9.847
86696SOL    HW161985   8.799   5.574   9.856
86696SOL    HW261986   8.935   5.596   9.794
86697SOL     OW61987  13.745   8.818  10.566
86697SOL    HW161988  13.745   8.810  10.471
86697SOL    HW261989  13.660   8.856  10.587
86698SOL     OW61990   6.937   7.453   6.351
86698SOL    HW161991   6.996   7.391   6.308
86698SOL    HW261992   6.989   7.533   6.361
86699SOL     OW61993   5.828  14.783  14.555
86699SOL    HW161994   5.893  14.848  14.530
86699SOL    HW261995   5.761  14.832  14.602
86700SOL     OW61996  11.490  13.719   9.134
86700SOL    HW161997  11.510  13.806   9.101
86700SOL    HW261998  11.540  13.712   9.216
86701SOL     OW61999   1.819   4.042   5.209
86701SOL    HW162000   1.733   4.014   5.240
86701SOL    HW262001   1.822   4.135   5.227
86702SOL     OW62002   7.061   4.611   9.367
86702SOL    HW162003   6.968   4.623   9.385
86702SOL    HW262004   7.100   4.697   9.384
86703SOL     OW62005   7.190   6.235  13.749
86703SOL    HW162006   7.199   6.246  13.654
86703SOL    HW262007   7.132   6.160  13.758
86704SOL     OW62008  13.419   9.118   1.187
86704SOL    HW162009  13.331   9.130   1.222
86704SOL    HW262010  13.443   9.204   1.153
86705SOL     OW62011   0.021  14.665  13.888
86705SOL    HW162012   0.101  14.675  13.838
86705SOL    HW262013   0.015  14.570  13.905
86706SOL     OW62014  10.031   4.113  12.753
86706SOL    HW162015  10.009   4.202  12.725
86706SOL    HW262016  10.046   4.121  12.847
86707SOL     OW62017   6.334   2.895  10.639
86707SOL    HW162018   6.305   2.816  10.593
86707SOL    HW262019   6.428   2.898  10.623
86708SOL     OW62020   1.851   9.334  11.921
86708SOL    HW162021   1.788   9.367  11.857
86708SOL    HW262022   1.933   9.379  11.898
86709SOL     OW62023   0.742   0.639   2.937
86709SOL    HW162024   0.799   0.669   3.008
86709SOL    HW262025   0.654   0.638   2.976
86710SOL     OW62026   9.532   1.617   8.780
86710SOL    HW162027   9.440   1.598   8.801
86710SOL    HW262028   9.581   1.575   8.850
86711SOL     OW62029   8.944  14.524   1.507
86711SOL    HW162030   8.869  14.529   1.567
86711SOL    HW262031   8.907  14.491   1.425
86712SOL     OW62032   2.917   4.038   1.211
86712SOL    HW162033   2.895   4.009   1.299
86712SOL    HW262034   2.921   3.957   1.159
86713SOL     OW62035   7.267   3.984   6.989
86713SOL    HW162036   7.236   3.939   7.068
86713SOL    HW262037   7.200   3.966   6.923
86714SOL     OW62038   0.609   6.419   8.365
86714SOL    HW162039   0.703   6.403   8.370
86714SOL    HW262040   0.584   6.390   8.278
86715SOL     OW62041   7.192   5.400   3.286
86715SOL    HW162042   7.132   5.429   3.218
86715SOL    HW262043   7.262   5.354   3.239
86716SOL     OW62044   7.754  14.359   3.929
86716SOL    HW162045   7.694  14.298   3.972
86716SOL    HW262046   7.717  14.446   3.946
86717SOL     OW62047   7.721   9.161  11.183
86717SOL    HW162048   7.704   9.220  11.109
86717SOL    HW262049   7.674   9.200  11.256
86718SOL     OW62050  11.359   1.175   7.909
86718SOL    HW162051  11.423   1.216   7.851
86718SOL    HW262052  11.328   1.099   7.861
86719SOL     OW62053   6.063  12.638  13.131
86719SOL    HW162054   6.112  12.640  13.213
86719SOL    HW262055   5.982  12.592  13.153
86720SOL     OW62056   7.845  14.525  10.275
86720SOL    HW162057   7.802  14.538  10.191
86720SOL    HW262058   7.874  14.612  10.302
86721SOL     OW62059  14.410   9.360  13.140
86721SOL    HW162060  14.354   9.388  13.213
86721SOL    HW262061  14.351   9.355  13.065
86722SOL     OW62062  12.136  14.733   8.339
86722SOL    HW162063  12.200  14.802   8.326
86722SOL    HW262064  12.121  14.732   8.434
86723SOL     OW62065   5.277   5.778   0.259
86723SOL    HW162066   5.285   5.685   0.279
86723SOL    HW262067   5.315   5.787   0.172
86724SOL     OW62068   0.484   7.377   6.596
86724SOL    HW162069   0.442   7.461   6.616
86724SOL    HW262070   0.526   7.391   6.511
86725SOL     OW62071   1.307   7.051   3.962
86725SOL    HW162072   1.254   7.071   3.885
86725SOL    HW262073   1.360   7.129   3.977
86726SOL     OW62074   4.452   4.539   0.533
86726SOL    HW162075   4.460   4.525   0.439
86726SOL    HW262076   4.479   4.630   0.546
86727SOL     OW62077   9.648   5.473  11.821
86727SOL    HW162078   9.733   5.488  11.779
86727SOL    HW262079   9.605   5.559  11.820
86728SOL     OW62080  10.113  14.534  12.272
86728SOL    HW162081  10.024  14.498  12.267
86728SOL    HW262082  10.105  14.610  12.330
86729SOL     OW62083  14.829  13.333   2.951
86729SOL    HW162084   0.009  13.321   3.032
86729SOL    HW262085  14.778  13.253   2.941
86730SOL     OW62086   5.617  14.098  11.590
86730SOL    HW162087   5.521  14.102  11.585
86730SOL    HW262088   5.641  14.169  11.649
86731SOL     OW62089   4.621   9.988   9.319
86731SOL    HW162090   4.681  10.021   9.386
86731SOL    HW262091   4.581  10.067   9.282
86732SOL     OW62092   5.676   3.425   5.918
86732SOL    HW162093   5.737   3.457   5.985
86732SOL    HW262094   5.700   3.473   5.839
86733SOL     OW62095   8.749   0.148   1.732
86733SOL    HW162096   8.833   0.127   1.691
86733SOL    HW262097   8.772   0.164   1.824
86734SOL     OW62098  10.835  13.055  11.494
86734SOL    HW162099  10.821  13.022  11.582
86734SOL    HW262100  10.748  13.070  11.459
86735SOL     OW62101   7.289  14.496   9.653
86735SOL    HW162102   7.208  14.535   9.686
86735SOL    HW262103   7.269  14.403   9.644
86736SOL     OW62104  14.594   7.770   6.320
86736SOL    HW162105  14.666   7.791   6.378
86736SOL    HW262106  14.580   7.850   6.268
86737SOL     OW62107   0.922   2.858   4.852
86737SOL    HW162108   0.829   2.873   4.867
86737SOL    HW262109   0.930   2.848   4.757
86738SOL     OW62110  12.377   0.015   4.460
86738SOL    HW162111  12.377  14.791   4.489
86738SOL    HW262112  12.469   0.040   4.461
86739SOL     OW62113   8.554   5.288  14.292
86739SOL    HW162114   8.499   5.236  14.351
86739SOL    HW262115   8.644   5.260  14.311
86740SOL     OW62116  12.948   1.018   4.182
86740SOL    HW162117  12.942   0.934   4.138
86740SOL    HW262118  13.012   1.004   4.253
86741SOL     OW62119  13.773   4.180  12.557
86741SOL    HW162120  13.850   4.138  12.518
86741SOL    HW262121  13.787   4.171  12.651
86742SOL     OW62122   9.767  11.547   0.756
86742SOL    HW162123   9.779  11.596   0.837
86742SOL    HW262124   9.840  11.485   0.754
86743SOL     OW62125  12.211   4.316   6.621
86743SOL    HW162126  12.132   4.304   6.674
86743SOL    HW262127  12.212   4.410   6.602
86744SOL     OW62128   4.000   4.393  11.120
86744SOL    HW162129   4.015   4.362  11.031
86744SOL    HW262130   3.975   4.314  11.169
86745SOL     OW62131   4.922   9.859  11.880
86745SOL    HW162132   4.993   9.819  11.829
86745SOL    HW262133   4.960   9.940  11.915
86746SOL     OW62134   3.378  12.825   7.551
86746SOL    HW162135   3.323  12.843   7.627
86746SOL    HW262136   3.343  12.880   7.482
86747SOL     OW62137  12.709   8.826   1.937
86747SOL    HW162138  12.641   8.760   1.927
86747SOL    HW262139  12.779   8.797   1.878
86748SOL     OW62140   4.643  13.721   1.528
86748SOL    HW162141   4.607  13.741   1.442
86748SOL    HW262142   4.613  13.793   1.584
86749SOL     OW62143  11.713   8.559  12.992
86749SOL    HW162144  11.756   8.485  13.035
86749SOL    HW262145  11.675   8.609  13.064
86750SOL     OW62146  11.539  12.895   3.374
86750SOL    HW162147  11.603  12.934   3.434
86750SOL    HW262148  11.577  12.908   3.287
86751SOL     OW62149  10.407  10.432   9.925
86751SOL    HW162150  10.441  10.366   9.865
86751SOL    HW262151  10.424  10.516   9.881
86752SOL     OW62152  13.563   5.943  14.561
86752SOL    HW162153  13.543   5.986  14.478
86752SOL    HW262154  13.623   5.873  14.538
86753SOL     OW62155   3.997   1.425  13.896
86753SOL    HW162156   4.059   1.498  13.893
86753SOL    HW262157   3.963   1.419  13.806
86754SOL     OW62158  12.036   7.340   0.159
86754SOL    HW162159  12.003   7.250   0.167
86754SOL    HW262160  12.002   7.371   0.076
86755SOL     OW62161   4.183  14.722   7.638
86755SOL    HW162162   4.122  14.698   7.708
86755SOL    HW262163   4.268  14.728   7.681
86756SOL     OW62164  14.663  13.547   5.987
86756SOL    HW162165  14.672  13.452   5.979
86756SOL    HW262166  14.600  13.560   6.058
86757SOL     OW62167   9.963  14.460   1.851
86757SOL    HW162168   9.869  14.478   1.848
86757SOL    HW262169   9.992  14.464   1.759
86758SOL     OW62170   4.674   5.246   2.797
86758SOL    HW162171   4.770   5.245   2.807
86758SOL    HW262172   4.657   5.319   2.738
86759SOL     OW62173  10.455   7.223  12.473
86759SOL    HW162174  10.525   7.188  12.528
86759SOL    HW262175  10.474   7.189  12.386
86760SOL     OW62176   8.941   5.787   7.002
86760SOL    HW162177   8.945   5.742   6.918
86760SOL    HW262178   8.848   5.810   7.013
86761SOL     OW62179   6.818  12.690   0.391
86761SOL    HW162180   6.886  12.676   0.326
86761SOL    HW262181   6.744  12.636   0.361
86762SOL     OW62182   2.229  13.021  10.813
86762SOL    HW162183   2.197  13.052  10.728
86762SOL    HW262184   2.171  12.948  10.836
86763SOL     OW62185  12.423   6.816  14.445
86763SOL    HW162186  12.478   6.747  14.482
86763SOL    HW262187  12.360   6.770  14.390
86764SOL     OW62188   2.569  10.406   5.611
86764SOL    HW162189   2.538  10.483   5.565
86764SOL    HW262190   2.540  10.418   5.701
86765SOL     OW62191   2.378  13.171   6.971
86765SOL    HW162192   2.455  13.226   6.954
86765SOL    HW262193   2.330  13.217   7.040
86766SOL     OW62194   4.042   3.192  14.238
86766SOL    HW162195   4.125   3.237  14.251
86766SOL    HW262196   3.998   3.195  14.323
86767SOL     OW62197   8.348   5.455  14.635
86767SOL    HW162198   8.260   5.422  14.617
86767SOL    HW262199   8.403   5.376  14.638
86768SOL     OW62200   8.473  11.663   0.047
86768SOL    HW162201   8.481  11.638  14.823
86768SOL    HW262202   8.381  11.645   0.068
86769SOL     OW62203   4.163   7.888   8.186
86769SOL    HW162204   4.223   7.863   8.116
86769SOL    HW262205   4.153   7.983   8.177
86770SOL     OW62206   5.440   1.466  14.635
86770SOL    HW162207   5.473   1.482  14.724
86770SOL    HW262208   5.348   1.491  14.639
86771SOL     OW62209   4.268   4.987  10.611
86771SOL    HW162210   4.337   4.921  10.620
86771SOL    HW262211   4.295   5.039  10.535
86772SOL     OW62212   4.736  10.478   6.217
86772SOL    HW162213   4.829  10.495   6.201
86772SOL    HW262214   4.725  10.385   6.201
86773SOL     OW62215   7.111   9.637   8.208
86773SOL    HW162216   7.020   9.641   8.236
86773SOL    HW262217   7.158   9.689   8.273
86774SOL     OW62218  11.997   7.328   6.347
86774SOL    HW162219  11.999   7.422   6.367
86774SOL    HW262220  12.071   7.315   6.288
86775SOL     OW62221   8.803   4.733  11.823
86775SOL    HW162222   8.753   4.726  11.742
86775SOL    HW262223   8.841   4.646  11.835
86776SOL     OW62224   8.526   6.999   1.388
86776SOL    HW162225   8.590   6.969   1.452
86776SOL    HW262226   8.515   7.092   1.406
86777SOL     OW62227   6.509   3.119   5.291
86777SOL    HW162228   6.506   3.127   5.196
86777SOL    HW262229   6.498   3.208   5.323
86778SOL     OW62230   8.656   4.073  12.224
86778SOL    HW162231   8.649   4.041  12.134
86778SOL    HW262232   8.669   4.167  12.216
86779SOL     OW62233  12.855   0.319  13.797
86779SOL    HW162234  12.788   0.267  13.753
86779SOL    HW262235  12.828   0.410  13.783
86780SOL     OW62236  10.636  10.335   6.908
86780SOL    HW162237  10.701  10.337   6.978
86780SOL    HW262238  10.571  10.400   6.934
86781SOL     OW62239   5.846   7.611   4.121
86781SOL    HW162240   5.794   7.688   4.143
86781SOL    HW262241   5.783   7.547   4.089
86782SOL     OW62242  14.288   4.200   1.542
86782SOL    HW162243  14.220   4.251   1.498
86782SOL    HW262244  14.368   4.250   1.526
86783SOL     OW62245   9.902   2.080   4.468
86783SOL    HW162246   9.959   2.133   4.525
86783SOL    HW262247   9.956   2.005   4.444
86784SOL     OW62248  13.983   8.386   4.454
86784SOL    HW162249  14.071   8.349   4.466
86784SOL    HW262250  13.958   8.417   4.541
86785SOL     OW62251  14.101   5.183   2.578
86785SOL    HW162252  14.060   5.139   2.652
86785SOL    HW262253  14.051   5.153   2.502
86786SOL     OW62254  14.421   4.461   3.263
86786SOL    HW162255  14.339   4.414   3.254
86786SOL    HW262256  14.478   4.424   3.195
86787SOL     OW62257  11.524   7.306  11.098
86787SOL    HW162258  11.511   7.394  11.135
86787SOL    HW262259  11.573   7.259  11.165
86788SOL     OW62260   7.756   2.607   5.615
86788SOL    HW162261   7.705   2.637   5.540
86788SOL    HW262262   7.832   2.665   5.617
86789SOL     OW62263   5.297   4.458   7.205
86789SOL    HW162264   5.249   4.527   7.251
86789SOL    HW262265   5.379   4.499   7.178
86790SOL     OW62266  14.355   4.014   2.571
86790SOL    HW162267  14.420   4.031   2.503
86790SOL    HW262268  14.336   4.100   2.609
86791SOL     OW62269   4.367  14.534   5.951
86791SOL    HW162270   4.365  14.454   5.900
86791SOL    HW262271   4.329  14.510   6.035
86792SOL     OW62272  10.421  13.715   2.143
86792SOL    HW162273  10.394  13.791   2.090
86792SOL    HW262274  10.511  13.698   2.116
86793SOL     OW62275   4.492   2.475   5.966
86793SOL    HW162276   4.509   2.493   5.874
86793SOL    HW262277   4.425   2.538   5.991
86794SOL     OW62278   0.122  11.825   1.181
86794SOL    HW162279   0.057  11.794   1.243
86794SOL    HW262280   0.098  11.915   1.162
86795SOL     OW62281   3.918   7.443  10.764
86795SOL    HW162282   3.896   7.405  10.679
86795SOL    HW262283   3.920   7.369  10.824
86796SOL     OW62284   9.635   6.428  14.410
86796SOL    HW162285   9.623   6.495  14.477
86796SOL    HW262286   9.554   6.430  14.359
86797SOL     OW62287   6.552   5.295   7.775
86797SOL    HW162288   6.572   5.318   7.865
86797SOL    HW262289   6.633   5.313   7.727
86798SOL     OW62290  14.799   0.728  10.988
86798SOL    HW162291  14.741   0.654  11.006
86798SOL    HW262292   0.005   0.690  10.941
86799SOL     OW62293  11.079  14.277   6.166
86799SOL    HW162294  11.118  14.362   6.185
86799SOL    HW262295  11.133  14.215   6.216
86800SOL     OW62296   5.757   1.929   6.270
86800SOL    HW162297   5.799   1.867   6.210
86800SOL    HW262298   5.828   1.962   6.325
86801SOL     OW62299   2.043   3.599   8.140
86801SOL    HW162300   2.077   3.554   8.063
86801SOL    HW262301   2.017   3.528   8.199
86802SOL     OW62302   4.236  13.962  13.424
86802SOL    HW162303   4.159  13.976  13.369
86802SOL    HW262304   4.208  13.895  13.487
86803SOL     OW62305  10.436   0.007   2.232
86803SOL    HW162306  10.429   0.067   2.158
86803SOL    HW262307  10.414  14.789   2.195
86804SOL     OW62308  11.396   6.454   9.559
86804SOL    HW162309  11.487   6.465   9.586
86804SOL    HW262310  11.346   6.460   9.641
86805SOL     OW62311   5.981  14.196  13.279
86805SOL    HW162312   5.963  14.244  13.360
86805SOL    HW262313   5.894  14.175  13.244
86806SOL     OW62314   7.806  14.262   5.092
86806SOL    HW162315   7.821  14.206   5.168
86806SOL    HW262316   7.795  14.350   5.129
86807SOL     OW62317  10.696   3.330   8.601
86807SOL    HW162318  10.770   3.331   8.662
86807SOL    HW262319  10.618   3.331   8.657
86808SOL     OW62320   8.254   1.224  13.427
86808SOL    HW162321   8.281   1.308  13.389
86808SOL    HW262322   8.164   1.212  13.396
86809SOL     OW62323   9.436   4.841   2.108
86809SOL    HW162324   9.468   4.905   2.172
86809SOL    HW262325   9.488   4.762   2.125
86810SOL     OW62326   9.052   6.020  12.387
86810SOL    HW162327   9.116   5.979  12.329
86810SOL    HW262328   8.978   6.042  12.330
86811SOL     OW62329  12.435   8.415  10.887
86811SOL    HW162330  12.519   8.418  10.840
86811SOL    HW262331  12.387   8.344  10.845
86812SOL     OW62332   7.407   2.486  13.850
86812SOL    HW162333   7.466   2.550  13.890
86812SOL    HW262334   7.411   2.410  13.909
86813SOL     OW62335   4.073   2.459  11.029
86813SOL    HW162336   4.155   2.477  11.075
86813SOL    HW262337   4.067   2.364  11.026
86814SOL     OW62338  11.050   7.667  11.424
86814SOL    HW162339  11.043   7.756  11.460
86814SOL    HW262340  11.087   7.679  11.337
86815SOL     OW62341  11.529   1.334  13.316
86815SOL    HW162342  11.609   1.283  13.308
86815SOL    HW262343  11.559   1.425  13.320
86816SOL     OW62344   0.343   0.136   8.421
86816SOL    HW162345   0.286   0.060   8.430
86816SOL    HW262346   0.286   0.211   8.440
86817SOL     OW62347   9.601  14.147   0.836
86817SOL    HW162348   9.529  14.110   0.784
86817SOL    HW262349   9.612  14.085   0.908
86818SOL     OW62350   4.064   5.096  10.775
86818SOL    HW162351   4.120   5.135  10.708
86818SOL    HW262352   4.101   5.008  10.789
86819SOL     OW62353  13.648  12.109  14.866
86819SOL    HW162354  13.621  12.059   0.075
86819SOL    HW262355  13.638  12.201   0.025
86820SOL     OW62356  12.617  14.481   3.618
86820SOL    HW162357  12.526  14.500   3.642
86820SOL    HW262358  12.615  14.467   3.523
86821SOL     OW62359   3.698   2.106  12.003
86821SOL    HW162360   3.730   2.016  12.007
86821SOL    HW262361   3.614   2.100  11.958
86822SOL     OW62362   7.890   4.523  12.041
86822SOL    HW162363   7.908   4.521  12.135
86822SOL    HW262364   7.796   4.541  12.035
86823SOL     OW62365   9.388   7.368  10.147
86823SOL    HW162366   9.331   7.293  10.135
86823SOL    HW262367   9.395   7.407  10.060
86824SOL     OW62368   4.225   4.910   1.467
86824SOL    HW162369   4.215   4.820   1.436
86824SOL    HW262370   4.319   4.919   1.483
86825SOL     OW62371   3.074   7.101   5.806
86825SOL    HW162372   3.117   7.034   5.858
86825SOL    HW262373   3.100   7.184   5.847
86826SOL     OW62374   8.169  12.834   1.167
86826SOL    HW162375   8.201  12.881   1.244
86826SOL    HW262376   8.236  12.849   1.100
86827SOL     OW62377   5.756  12.719   5.368
86827SOL    HW162378   5.850  12.712   5.356
86827SOL    HW262379   5.745  12.782   5.439
86828SOL     OW62380   7.100   7.473   7.992
86828SOL    HW162381   7.140   7.457   8.078
86828SOL    HW262382   7.049   7.393   7.974
86829SOL     OW62383   8.964  14.289  11.278
86829SOL    HW162384   8.912  14.242  11.213
86829SOL    HW262385   8.937  14.251  11.362
86830SOL     OW62386  11.545  11.061   3.914
86830SOL    HW162387  11.542  11.157   3.920
86830SOL    HW262388  11.454  11.035   3.898
86831SOL     OW62389   3.899   3.668   3.607
86831SOL    HW162390   3.896   3.644   3.514
86831SOL    HW262391   3.918   3.762   3.607
86832SOL     OW62392   4.388   0.042   2.361
86832SOL    HW162393   4.368   0.096   2.437
86832SOL    HW262394   4.320   0.064   2.297
86833SOL     OW62395   2.231   9.824  14.586
86833SOL    HW162396   2.238   9.784  14.499
86833SOL    HW262397   2.251   9.753  14.647
86834SOL     OW62398  13.664   2.000  10.798
86834SOL    HW162399  13.759   2.006  10.793
86834SOL    HW262400  13.644   2.004  10.892
86835SOL     OW62401   6.831  11.307   8.873
86835SOL    HW162402   6.772  11.382   8.868
86835SOL    HW262403   6.919  11.345   8.871
86836SOL     OW62404   0.269  12.431   6.197
86836SOL    HW162405   0.185  12.393   6.171
86836SOL    HW262406   0.296  12.381   6.273
86837SOL     OW62407  14.633   7.248  13.432
86837SOL    HW162408  14.697   7.177  13.428
86837SOL    HW262409  14.685   7.326  13.452
86838SOL     OW62410  12.941   0.710  13.624
86838SOL    HW162411  12.879   0.643  13.652
86838SOL    HW262412  12.957   0.762  13.703
86839SOL     OW62413   8.917   7.878   8.159
86839SOL    HW162414   8.975   7.849   8.089
86839SOL    HW262415   8.974   7.891   8.234
86840SOL     OW62416   5.019   5.060  12.551
86840SOL    HW162417   4.963   5.120  12.502
86840SOL    HW262418   5.060   5.116  12.617
86841SOL     OW62419  13.223  11.918  10.870
86841SOL    HW162420  13.220  11.874  10.955
86841SOL    HW262421  13.316  11.927  10.850
86842SOL     OW62422   1.372   9.341  10.024
86842SOL    HW162423   1.283   9.306  10.017
86842SOL    HW262424   1.390   9.378   9.937
86843SOL     OW62425   8.724   7.996   0.838
86843SOL    HW162426   8.669   7.920   0.819
86843SOL    HW262427   8.768   8.015   0.755
86844SOL     OW62428   8.209  13.304   7.417
86844SOL    HW162429   8.234  13.396   7.412
86844SOL    HW262430   8.114  13.304   7.414
86845SOL     OW62431   5.459   0.845   3.580
86845SOL    HW162432   5.476   0.751   3.591
86845SOL    HW262433   5.494   0.885   3.660
86846SOL     OW62434   9.546   2.836   9.248
86846SOL    HW162435   9.585   2.850   9.334
86846SOL    HW262436   9.581   2.752   9.219
86847SOL     OW62437   8.936  11.621  14.578
86847SOL    HW162438   8.945  11.584  14.666
86847SOL    HW262439   8.937  11.545  14.520
86848SOL     OW62440   4.124   2.209  13.848
86848SOL    HW162441   4.185   2.278  13.873
86848SOL    HW262442   4.138   2.140  13.913
86849SOL     OW62443   3.497   7.165   2.343
86849SOL    HW162444   3.448   7.093   2.385
86849SOL    HW262445   3.481   7.240   2.399
86850SOL     OW62446   4.484  12.400   1.618
86850SOL    HW162447   4.395  12.416   1.586
86850SOL    HW262448   4.521  12.338   1.555
86851SOL     OW62449   4.322   3.955   4.608
86851SOL    HW162450   4.307   4.043   4.642
86851SOL    HW262451   4.396   3.922   4.660
86852SOL     OW62452   9.138   5.194   9.656
86852SOL    HW162453   9.102   5.227   9.738
86852SOL    HW262454   9.126   5.265   9.593
86853SOL     OW62455   4.059  10.749   6.885
86853SOL    HW162456   4.015  10.703   6.956
86853SOL    HW262457   4.042  10.842   6.902
86854SOL     OW62458   7.439   9.252   8.413
86854SOL    HW162459   7.421   9.317   8.481
86854SOL    HW262460   7.364   9.258   8.354
86855SOL     OW62461   8.960   2.586  10.903
86855SOL    HW162462   8.933   2.629  10.985
86855SOL    HW262463   9.048   2.621  10.886
86856SOL     OW62464  14.805  10.937   2.825
86856SOL    HW162465  14.740  10.871   2.847
86856SOL    HW262466  14.794  10.952   2.731
86857SOL     OW62467  12.804   9.773  10.032
86857SOL    HW162468  12.782   9.862  10.006
86857SOL    HW262469  12.757   9.718   9.969
86858SOL     OW62470  11.777  14.616   1.079
86858SOL    HW162471  11.793  14.594   1.171
86858SOL    HW262472  11.682  14.630   1.074
86859SOL     OW62473  12.498  14.581   6.718
86859SOL    HW162474  12.498  14.486   6.726
86859SOL    HW262475  12.406  14.604   6.703
86860SOL     OW62476  13.173   4.215   4.622
86860SOL    HW162477  13.163   4.121   4.610
86860SOL    HW262478  13.154   4.229   4.715
86861SOL     OW62479  13.671   7.851   2.804
86861SOL    HW162480  13.683   7.775   2.747
86861SOL    HW262481  13.612   7.909   2.755
86862SOL     OW62482   5.231   5.909  13.258
86862SOL    HW162483   5.242   5.859  13.339
86862SOL    HW262484   5.321   5.926  13.229
86863SOL     OW62485  11.608  12.213  12.047
86863SOL    HW162486  11.555  12.290  12.025
86863SOL    HW262487  11.696  12.235  12.017
86864SOL     OW62488   4.069  13.553  10.233
86864SOL    HW162489   4.144  13.596  10.274
86864SOL    HW262490   4.081  13.567  10.139
86865SOL     OW62491   4.905  14.340   6.649
86865SOL    HW162492   4.989  14.348   6.604
86865SOL    HW262493   4.859  14.272   6.601
86866SOL     OW62494   9.067   3.640   0.989
86866SOL    HW162495   8.997   3.580   1.015
86866SOL    HW262496   9.091   3.613   0.901
86867SOL     OW62497   1.412   7.348  14.606
86867SOL    HW162498   1.451   7.412  14.547
86867SOL    HW262499   1.472   7.274  14.604
86868SOL     OW62500  14.176  13.766  12.684
86868SOL    HW162501  14.194  13.712  12.761
86868SOL    HW262502  14.262  13.797  12.657
86869SOL     OW62503   0.419  11.595   9.508
86869SOL    HW162504   0.484  11.552   9.563
86869SOL    HW262505   0.362  11.524   9.477
86870SOL     OW62506   3.045   0.935   6.259
86870SOL    HW162507   3.025   0.928   6.165
86870SOL    HW262508   2.959   0.935   6.302
86871SOL     OW62509   8.634  12.607   5.497
86871SOL    HW162510   8.672  12.520   5.486
86871SOL    HW262511   8.542  12.591   5.519
86872SOL     OW62512  14.759   6.386   0.267
86872SOL    HW162513  14.827   6.423   0.210
86872SOL    HW262514  14.808   6.330   0.328
86873SOL     OW62515   4.500  12.575   4.594
86873SOL    HW162516   4.416  12.621   4.592
86873SOL    HW262517   4.491  12.505   4.530
86874SOL     OW62518   5.296   0.122   8.009
86874SOL    HW162519   5.230   0.053   8.015
86874SOL    HW262520   5.246   0.202   7.991
86875SOL     OW62521   3.530   1.228  11.848
86875SOL    HW162522   3.582   1.236  11.928
86875SOL    HW262523   3.439   1.231  11.878
86876SOL     OW62524  12.922   5.073   4.938
86876SOL    HW162525  12.860   5.132   4.981
86876SOL    HW262526  12.885   4.986   4.950
86877SOL     OW62527  14.335   6.685   4.824
86877SOL    HW162528  14.262   6.696   4.762
86877SOL    HW262529  14.398   6.752   4.799
86878SOL     OW62530   7.963   2.693   4.046
86878SOL    HW162531   7.942   2.601   4.063
86878SOL    HW262532   7.878   2.733   4.028
86879SOL     OW62533   4.946   5.855   8.250
86879SOL    HW162534   4.981   5.786   8.193
86879SOL    HW262535   4.914   5.808   8.327
86880SOL     OW62536   3.330   1.061  13.941
86880SOL    HW162537   3.369   1.123  14.003
86880SOL    HW262538   3.245   1.100  13.920
86881SOL     OW62539  11.062   2.204   1.063
86881SOL    HW162540  11.112   2.122   1.071
86881SOL    HW262541  11.117   2.260   1.008
86882SOL     OW62542   2.395  13.324   8.145
86882SOL    HW162543   2.416  13.245   8.195
86882SOL    HW262544   2.469  13.335   8.085
86883SOL     OW62545   7.999   8.318   8.895
86883SOL    HW162546   7.905   8.311   8.910
86883SOL    HW262547   8.033   8.359   8.974
86884SOL     OW62548  14.057   5.165   0.118
86884SOL    HW162549  13.969   5.142   0.090
86884SOL    HW262550  14.060   5.261   0.113
86885SOL     OW62551  14.242   3.775   1.286
86885SOL    HW162552  14.282   3.689   1.287
86885SOL    HW262553  14.197   3.780   1.201
86886SOL     OW62554  13.100   9.763   9.805
86886SOL    HW162555  13.191   9.776   9.776
86886SOL    HW262556  13.059   9.715   9.733
86887SOL     OW62557  10.328   0.013   2.653
86887SOL    HW162558  10.338  14.786   2.646
86887SOL    HW262559  10.234   0.027   2.642
86888SOL     OW62560   0.566   7.892   1.617
86888SOL    HW162561   0.493   7.947   1.588
86888SOL    HW262562   0.619   7.880   1.538
86889SOL     OW62563   3.758   9.100  11.932
86889SOL    HW162564   3.704   9.116  12.009
86889SOL    HW262565   3.831   9.161  11.941
86890SOL     OW62566   8.825   9.153   8.046
86890SOL    HW162567   8.904   9.141   8.099
86890SOL    HW262568   8.827   9.082   7.982
86891SOL     OW62569   3.070   3.986   7.905
86891SOL    HW162570   3.136   4.038   7.859
86891SOL    HW262571   2.989   4.000   7.856
86892SOL     OW62572   7.030   6.160  14.646
86892SOL    HW162573   7.099   6.106  14.684
86892SOL    HW262574   6.949   6.115  14.668
86893SOL     OW62575  11.258  14.475   7.678
86893SOL    HW162576  11.214  14.541   7.626
86893SOL    HW262577  11.195  14.403   7.685
86894SOL     OW62578   8.102   4.577   0.699
86894SOL    HW162579   8.094   4.496   0.750
86894SOL    HW262580   8.086   4.550   0.609
86895SOL     OW62581   6.852  10.712  12.116
86895SOL    HW162582   6.775  10.692  12.064
86895SOL    HW262583   6.837  10.669  12.200
86896SOL     OW62584   3.242   4.930   7.865
86896SOL    HW162585   3.224   4.858   7.926
86896SOL    HW262586   3.326   4.966   7.895
86897SOL     OW62587  10.246   0.511   7.526
86897SOL    HW162588  10.235   0.560   7.607
86897SOL    HW262589  10.157   0.482   7.503
86898SOL     OW62590   4.395  12.834   4.970
86898SOL    HW162591   4.371  12.753   4.926
86898SOL    HW262592   4.464  12.871   4.915
86899SOL     OW62593   6.118  10.176  10.477
86899SOL    HW162594   6.179  10.133  10.417
86899SOL    HW262595   6.162  10.173  10.562
86900SOL     OW62596   3.295   7.885   7.861
86900SOL    HW162597   3.389   7.900   7.850
86900SOL    HW262598   3.290   7.824   7.935
86901SOL     OW62599  12.454   0.693   5.134
86901SOL    HW162600  12.425   0.648   5.214
86901SOL    HW262601  12.512   0.762   5.166
86902SOL     OW62602   4.836  10.721   5.679
86902SOL    HW162603   4.915  10.741   5.730
86902SOL    HW262604   4.768  10.777   5.716
86903SOL     OW62605   7.282   6.455  13.055
86903SOL    HW162606   7.195   6.486  13.032
86903SOL    HW262607   7.336   6.476  12.979
86904SOL     OW62608   0.167   8.470   6.438
86904SOL    HW162609   0.128   8.486   6.524
86904SOL    HW262610   0.096   8.430   6.387
86905SOL     OW62611   8.368  14.466   0.788
86905SOL    HW162612   8.382  14.518   0.866
86905SOL    HW262613   8.456  14.434   0.764
86906SOL     OW62614   4.358  13.057   6.212
86906SOL    HW162615   4.377  12.967   6.186
86906SOL    HW262616   4.441  13.089   6.246
86907SOL     OW62617  13.139   7.348   5.650
86907SOL    HW162618  13.216   7.395   5.619
86907SOL    HW262619  13.152   7.340   5.745
86908SOL     OW62620   7.908   2.364   8.477
86908SOL    HW162621   7.971   2.425   8.439
86908SOL    HW262622   7.925   2.367   8.571
86909SOL     OW62623   5.952   3.148   8.319
86909SOL    HW162624   5.987   3.208   8.385
86909SOL    HW262625   6.029   3.119   8.270
86910SOL     OW62626   1.786   2.081   2.149
86910SOL    HW162627   1.848   2.051   2.083
86910SOL    HW262628   1.824   2.051   2.232
86911SOL     OW62629   2.162   5.061   7.783
86911SOL    HW162630   2.222   5.042   7.854
86911SOL    HW262631   2.193   5.007   7.710
86912SOL     OW62632   8.728  13.493   6.566
86912SOL    HW162633   8.697  13.423   6.510
86912SOL    HW262634   8.711  13.573   6.516
86913SOL     OW62635   1.028   7.339  11.279
86913SOL    HW162636   1.050   7.268  11.340
86913SOL    HW262637   1.087   7.325  11.204
86914SOL     OW62638   2.195  13.682   3.238
86914SOL    HW162639   2.252  13.627   3.293
86914SOL    HW262640   2.189  13.765   3.285
86915SOL     OW62641   8.538   1.700   5.922
86915SOL    HW162642   8.492   1.714   6.005
86915SOL    HW262643   8.497   1.762   5.861
86916SOL     OW62644  13.830  12.401   6.045
86916SOL    HW162645  13.787  12.316   6.051
86916SOL    HW262646  13.758  12.463   6.030
86917SOL     OW62647   8.348   8.424  12.625
86917SOL    HW162648   8.412   8.489  12.655
86917SOL    HW262649   8.373   8.343  12.669
86918SOL     OW62650   6.086  13.883   2.000
86918SOL    HW162651   6.031  13.836   2.063
86918SOL    HW262652   6.136  13.814   1.956
86919SOL     OW62653  11.373  12.248   2.416
86919SOL    HW162654  11.373  12.173   2.357
86919SOL    HW262655  11.281  12.274   2.422
86920SOL     OW62656   5.570   0.872   1.299
86920SOL    HW162657   5.599   0.784   1.275
86920SOL    HW262658   5.579   0.923   1.218
86921SOL     OW62659   9.077   3.749   2.280
86921SOL    HW162660   8.996   3.777   2.238
86921SOL    HW262661   9.132   3.717   2.208
86922SOL     OW62662   8.996   6.759   2.178
86922SOL    HW162663   8.966   6.841   2.139
86922SOL    HW262664   9.073   6.783   2.229
86923SOL     OW62665  12.621   2.854   6.239
86923SOL    HW162666  12.639   2.782   6.299
86923SOL    HW262667  12.662   2.930   6.280
86924SOL     OW62668   7.979   6.301   2.491
86924SOL    HW162669   7.951   6.249   2.566
86924SOL    HW262670   7.946   6.254   2.415
86925SOL     OW62671  11.408   7.708   1.279
86925SOL    HW162672  11.438   7.634   1.332
86925SOL    HW262673  11.485   7.734   1.229
86926SOL     OW62674   6.897  10.080  12.372
86926SOL    HW162675   6.832  10.037  12.427
86926SOL    HW262676   6.881  10.174  12.384
86927SOL     OW62677   8.232   3.434  10.595
86927SOL    HW162678   8.275   3.369  10.650
86927SOL    HW262679   8.290   3.443  10.519
86928SOL     OW62680   4.047   3.302   3.853
86928SOL    HW162681   3.970   3.249   3.831
86928SOL    HW262682   4.103   3.297   3.776
86929SOL     OW62683  13.981   9.705   1.872
86929SOL    HW162684  13.928   9.785   1.866
86929SOL    HW262685  14.050   9.717   1.806
86930SOL     OW62686   6.355   0.536   5.843
86930SOL    HW162687   6.263   0.514   5.824
86930SOL    HW262688   6.392   0.455   5.877
86931SOL     OW62689   7.808   8.563  10.387
86931SOL    HW162690   7.788   8.518  10.469
86931SOL    HW262691   7.723   8.598  10.357
86932SOL     OW62692   1.755   8.348   2.065
86932SOL    HW162693   1.707   8.430   2.057
86932SOL    HW262694   1.690   8.285   2.097
86933SOL     OW62695  10.126  14.351   1.236
86933SOL    HW162696  10.138  14.400   1.317
86933SOL    HW262697  10.155  14.412   1.167
86934SOL     OW62698   4.743   1.241  14.093
86934SOL    HW162699   4.782   1.327  14.075
86934SOL    HW262700   4.718   1.245  14.185
86935SOL     OW62701   0.415   7.752   7.150
86935SOL    HW162702   0.396   7.723   7.239
86935SOL    HW262703   0.498   7.800   7.158
86936SOL     OW62704  12.078  12.075   4.257
86936SOL    HW162705  12.124  12.074   4.173
86936SOL    HW262706  12.097  12.161   4.293
86937SOL     OW62707   2.672  13.344   3.048
86937SOL    HW162708   2.643  13.272   3.102
86937SOL    HW262709   2.606  13.413   3.061
86938SOL     OW62710   5.060  10.944  11.049
86938SOL    HW162711   5.024  10.858  11.071
86938SOL    HW262712   5.070  10.942  10.954
86939SOL     OW62713   8.229   1.277   6.636
86939SOL    HW162714   8.184   1.361   6.630
86939SOL    HW262715   8.158   1.212   6.632
86940SOL     OW62716   6.878  13.594   0.020
86940SOL    HW162717   6.811  13.655  14.856
86940SOL    HW262718   6.961  13.638   0.003
86941SOL     OW62719   4.661   0.347   1.430
86941SOL    HW162720   4.668   0.439   1.404
86941SOL    HW262721   4.637   0.351   1.523
86942SOL     OW62722  13.714  10.717   3.545
86942SOL    HW162723  13.693  10.742   3.635
86942SOL    HW262724  13.629  10.702   3.504
86943SOL     OW62725  12.523   8.558   8.455
86943SOL    HW162726  12.510   8.606   8.373
86943SOL    HW262727  12.608   8.515   8.444
86944SOL     OW62728   2.714   2.000   0.329
86944SOL    HW162729   2.656   2.022   0.256
86944SOL    HW262730   2.656   1.995   0.405
86945SOL     OW62731   8.650  11.390   0.019
86945SOL    HW162732   8.721  11.452   0.036
86945SOL    HW262733   8.588  11.405   0.091
86946SOL     OW62734  11.908   3.852   8.609
86946SOL    HW162735  11.905   3.933   8.660
86946SOL    HW262736  11.987   3.808   8.639
86947SOL     OW62737   8.995   3.172   6.844
86947SOL    HW162738   9.056   3.207   6.780
86947SOL    HW262739   8.949   3.101   6.799
86948SOL     OW62740   2.544   9.361   1.598
86948SOL    HW162741   2.633   9.330   1.616
86948SOL    HW262742   2.552   9.457   1.600
86949SOL     OW62743   1.887   0.537   0.046
86949SOL    HW162744   1.823   0.504  14.851
86949SOL    HW262745   1.850   0.620   0.076
86950SOL     OW62746   0.982   6.479   2.373
86950SOL    HW162747   1.039   6.405   2.397
86950SOL    HW262748   1.033   6.556   2.396
86951SOL     OW62749   2.321   2.942   0.096
86951SOL    HW162750   2.248   3.002   0.107
86951SOL    HW262751   2.377   2.984   0.030
86952SOL     OW62752   5.252   4.473  14.499
86952SOL    HW162753   5.161   4.442  14.506
86952SOL    HW262754   5.287   4.429  14.422
86953SOL     OW62755   6.056   7.515  12.541
86953SOL    HW162756   6.003   7.594  12.533
86953SOL    HW262757   6.016   7.452  12.481
86954SOL     OW62758  12.175  12.724   9.262
86954SOL    HW162759  12.256  12.703   9.309
86954SOL    HW262760  12.146  12.806   9.299
86955SOL     OW62761   2.816  10.509   5.750
86955SOL    HW162762   2.869  10.574   5.798
86955SOL    HW262763   2.821  10.537   5.659
86956SOL     OW62764   5.228   9.242   2.349
86956SOL    HW162765   5.179   9.318   2.381
86956SOL    HW262766   5.226   9.180   2.422
86957SOL     OW62767  12.216  11.848   2.109
86957SOL    HW162768  12.174  11.902   2.176
86957SOL    HW262769  12.198  11.894   2.027
86958SOL     OW62770  13.468   9.251   1.644
86958SOL    HW162771  13.469   9.293   1.558
86958SOL    HW262772  13.375   9.232   1.659
86959SOL     OW62773   1.611  11.416  10.865
86959SOL    HW162774   1.672  11.418  10.939
86959SOL    HW262775   1.661  11.452  10.791
86960SOL     OW62776  12.526   0.475   1.496
86960SOL    HW162777  12.621   0.484   1.495
86960SOL    HW262778  12.502   0.489   1.588
86961SOL     OW62779  11.230  12.448   1.382
86961SOL    HW162780  11.169  12.406   1.322
86961SOL    HW262781  11.250  12.532   1.341
86962SOL     OW62782   7.876   1.346  12.091
86962SOL    HW162783   7.821   1.365  12.167
86962SOL    HW262784   7.966   1.354  12.124
86963SOL     OW62785   7.676  14.618   0.150
86963SOL    HW162786   7.662  14.667   0.231
86963SOL    HW262787   7.765  14.641   0.123
86964SOL     OW62788  11.543  14.066   3.476
86964SOL    HW162789  11.476  14.000   3.494
86964SOL    HW262790  11.504  14.148   3.508
86965SOL     OW62791   5.045   8.628   3.878
86965SOL    HW162792   5.008   8.632   3.789
86965SOL    HW262793   5.115   8.692   3.878
86966SOL     OW62794   4.961  12.304   6.327
86966SOL    HW162795   4.870  12.293   6.355
86966SOL    HW262796   4.962  12.387   6.280
86967SOL     OW62797  11.447  12.569   8.601
86967SOL    HW162798  11.448  12.652   8.554
86967SOL    HW262799  11.386  12.513   8.553
86968SOL     OW62800   8.639   5.561   2.261
86968SOL    HW162801   8.614   5.480   2.305
86968SOL    HW262802   8.582   5.565   2.184
86969SOL     OW62803  14.307  13.301   1.500
86969SOL    HW162804  14.345  13.302   1.588
86969SOL    HW262805  14.369  13.350   1.446
86970SOL     OW62806  13.322   9.782   7.933
86970SOL    HW162807  13.352   9.868   7.904
86970SOL    HW262808  13.277   9.799   8.016
86971SOL     OW62809   6.471  11.522   5.095
86971SOL    HW162810   6.508  11.560   5.174
86971SOL    HW262811   6.413  11.590   5.060
86972SOL     OW62812   7.164   3.020   7.948
86972SOL    HW162813   7.129   2.941   7.989
86972SOL    HW262814   7.092   3.053   7.895
86973SOL     OW62815   6.438  11.322   6.715
86973SOL    HW162816   6.413  11.283   6.799
86973SOL    HW262817   6.368  11.384   6.697
86974SOL     OW62818   0.454   0.499  12.007
86974SOL    HW162819   0.366   0.538  12.008
86974SOL    HW262820   0.482   0.502  12.099
86975SOL     OW62821   4.216   1.446   7.877
86975SOL    HW162822   4.258   1.453   7.791
86975SOL    HW262823   4.286   1.467   7.939
86976SOL     OW62824   3.473   0.873   5.209
86976SOL    HW162825   3.415   0.835   5.276
86976SOL    HW262826   3.552   0.819   5.215
86977SOL     OW62827   7.459   2.312   4.323
86977SOL    HW162828   7.375   2.303   4.278
86977SOL    HW262829   7.473   2.227   4.365
86978SOL     OW62830   9.514  13.069  12.351
86978SOL    HW162831   9.435  13.120  12.366
86978SOL    HW262832   9.483  12.978  12.344
86979SOL     OW62833  11.826   4.173   2.231
86979SOL    HW162834  11.769   4.158   2.156
86979SOL    HW262835  11.834   4.087   2.272
86980SOL     OW62836  11.364   4.479   7.478
86980SOL    HW162837  11.332   4.389   7.484
86980SOL    HW262838  11.415   4.492   7.558
86981SOL     OW62839   0.080  11.390  10.045
86981SOL    HW162840   0.035  11.309  10.019
86981SOL    HW262841   0.010  11.453  10.061
86982SOL     OW62842  11.340   6.282   6.488
86982SOL    HW162843  11.260   6.327   6.516
86982SOL    HW262844  11.340   6.200   6.536
86983SOL     OW62845   6.692  11.468   4.531
86983SOL    HW162846   6.631  11.512   4.471
86983SOL    HW262847   6.764  11.439   4.475
86984SOL     OW62848   4.386   4.815  11.875
86984SOL    HW162849   4.298   4.791  11.846
86984SOL    HW262850   4.405   4.896  11.828
86985SOL     OW62851  12.199   1.740   6.204
86985SOL    HW162852  12.202   1.798   6.128
86985SOL    HW262853  12.246   1.661   6.177
86986SOL     OW62854   3.336  14.812   6.006
86986SOL    HW162855   3.413  14.757   6.015
86986SOL    HW262856   3.358   0.006   5.936
86987SOL     OW62857  12.961  11.334   6.130
86987SOL    HW162858  12.971  11.239   6.133
86987SOL    HW262859  12.967  11.362   6.221
86988SOL     OW62860   6.230   3.305   9.925
86988SOL    HW162861   6.222   3.384   9.978
86988SOL    HW262862   6.143   3.265   9.928
86989SOL     OW62863   5.665  12.857  14.342
86989SOL    HW162864   5.750  12.884  14.377
86989SOL    HW262865   5.687  12.794  14.273
86990SOL     OW62866   2.580   5.321   9.309
86990SOL    HW162867   2.585   5.385   9.239
86990SOL    HW262868   2.560   5.372   9.387
86991SOL     OW62869   9.924  11.430   7.026
86991SOL    HW162870   9.832  11.431   6.999
86991SOL    HW262871   9.944  11.522   7.043
86992SOL     OW62872   9.025   9.880  14.502
86992SOL    HW162873   9.018   9.785  14.513
86992SOL    HW262874   9.011   9.894  14.408
86993SOL     OW62875   6.715  10.084  14.124
86993SOL    HW162876   6.677  10.101  14.038
86993SOL    HW262877   6.668  10.142  14.184
86994SOL     OW62878  13.120  13.443   2.600
86994SOL    HW162879  13.125  13.495   2.520
86994SOL    HW262880  13.040  13.392   2.591
86995SOL     OW62881  12.036  11.149   3.377
86995SOL    HW162882  12.099  11.200   3.428
86995SOL    HW262883  11.958  11.144   3.431
86996SOL     OW62884   5.454   7.232  10.742
86996SOL    HW162885   5.477   7.255  10.832
86996SOL    HW262886   5.435   7.138  10.745
86997SOL     OW62887   7.288   5.141  11.609
86997SOL    HW162888   7.195   5.148  11.586
86997SOL    HW262889   7.288   5.112  11.701
86998SOL     OW62890   4.027   2.194  10.368
86998SOL    HW162891   4.015   2.258  10.297
86998SOL    HW262892   4.060   2.246  10.441
86999SOL     OW62893   7.458  14.573  10.857
86999SOL    HW162894   7.457  14.667  10.838
86999SOL    HW262895   7.483  14.567  10.949
87000SOL     OW62896  11.525  13.818   8.207
87000SOL    HW162897  11.436  13.826   8.238
87000SOL    HW262898  11.516  13.807   8.112
87001SOL     OW62899  12.443   6.724  11.511
87001SOL    HW162900  12.459   6.717  11.417
87001SOL    HW262901  12.496   6.653  11.549
87002SOL     OW62902   9.969  10.406   2.780
87002SOL    HW162903  10.046  10.407   2.837
87002SOL    HW262904   9.956  10.314   2.758
87003SOL     OW62905   4.418  10.283  14.750
87003SOL    HW162906   4.472  10.361  14.765
87003SOL    HW262907   4.340  10.316  14.705
87004SOL     OW62908   1.610   2.631   1.559
87004SOL    HW162909   1.598   2.578   1.638
87004SOL    HW262910   1.614   2.568   1.487
87005SOL     OW62911   2.987  13.489   5.257
87005SOL    HW162912   2.921  13.537   5.206
87005SOL    HW262913   3.034  13.437   5.192
87006SOL     OW62914  12.074   2.677  11.238
87006SOL    HW162915  12.136   2.661  11.167
87006SOL    HW262916  11.993   2.702  11.193
87007SOL     OW62917   8.316   2.950  10.451
87007SOL    HW162918   8.246   3.003  10.487
87007SOL    HW262919   8.340   2.992  10.369
87008SOL     OW62920   5.824  10.435   0.173
87008SOL    HW162921   5.815  10.341   0.189
87008SOL    HW262922   5.757  10.475   0.229
87009SOL     OW62923   7.834  12.041   3.375
87009SOL    HW162924   7.768  12.072   3.438
87009SOL    HW262925   7.917  12.071   3.412
87010SOL     OW62926   4.132  14.268  13.229
87010SOL    HW162927   4.099  14.188  13.269
87010SOL    HW262928   4.089  14.271  13.143
87011SOL     OW62929   6.541   1.047   5.458
87011SOL    HW162930   6.553   1.090   5.543
87011SOL    HW262931   6.564   1.115   5.394
87012SOL     OW62932  10.395   5.357  13.836
87012SOL    HW162933  10.308   5.334  13.870
87012SOL    HW262934  10.399   5.314  13.750
87013SOL     OW62935   1.350   2.342   0.898
87013SOL    HW162936   1.356   2.434   0.872
87013SOL    HW262937   1.328   2.346   0.991
87014SOL     OW62938   7.032   4.309   7.899
87014SOL    HW162939   6.981   4.390   7.907
87014SOL    HW262940   7.058   4.306   7.807
87015SOL     OW62941   5.553   1.798   4.150
87015SOL    HW162942   5.574   1.709   4.177
87015SOL    HW262943   5.605   1.812   4.070
87016SOL     OW62944   5.603   7.811   4.460
87016SOL    HW162945   5.644   7.744   4.515
87016SOL    HW262946   5.617   7.893   4.508
87017SOL     OW62947   3.850  13.524   3.723
87017SOL    HW162948   3.902  13.444   3.719
87017SOL    HW262949   3.827  13.533   3.815
87018SOL     OW62950   8.549   6.887   2.554
87018SOL    HW162951   8.531   6.902   2.461
87018SOL    HW262952   8.597   6.804   2.556
87019SOL     OW62953   8.669  13.851   3.372
87019SOL    HW162954   8.709  13.862   3.458
87019SOL    HW262955   8.688  13.760   3.348
87020SOL     OW62956  14.178   6.902  11.483
87020SOL    HW162957  14.120   6.932  11.413
87020SOL    HW262958  14.149   6.813  11.501
87021SOL     OW62959  11.421   1.254   4.046
87021SOL    HW162960  11.513   1.273   4.029
87021SOL    HW262961  11.408   1.165   4.015
87022SOL     OW62962   2.900   1.920   4.596
87022SOL    HW162963   2.883   1.837   4.641
87022SOL    HW262964   2.936   1.894   4.511
87023SOL     OW62965  12.973   8.870   1.784
87023SOL    HW162966  13.057   8.876   1.738
87023SOL    HW262967  12.934   8.957   1.774
87024SOL     OW62968  13.673  14.599   6.473
87024SOL    HW162969  13.688  14.582   6.566
87024SOL    HW262970  13.582  14.575   6.458
87025SOL     OW62971   1.491   7.885   0.181
87025SOL    HW162972   1.432   7.857   0.110
87025SOL    HW262973   1.452   7.849   0.260
87026SOL     OW62974   6.222   5.998   4.904
87026SOL    HW162975   6.194   6.073   4.955
87026SOL    HW262976   6.145   5.976   4.851
87027SOL     OW62977  10.872   7.315   4.691
87027SOL    HW162978  10.827   7.370   4.755
87027SOL    HW262979  10.820   7.323   4.611
87028SOL     OW62980  14.516   0.853   0.802
87028SOL    HW162981  14.437   0.820   0.759
87028SOL    HW262982  14.511   0.817   0.891
87029SOL     OW62983  12.338   2.087  10.946
87029SOL    HW162984  12.260   2.136  10.919
87029SOL    HW262985  12.328   2.001  10.906
87030SOL     OW62986   6.081   4.800  13.677
87030SOL    HW162987   6.024   4.741  13.727
87030SOL    HW262988   6.072   4.885  13.720
87031SOL     OW62989   2.262  14.151   6.922
87031SOL    HW162990   2.313  14.123   6.999
87031SOL    HW262991   2.301  14.234   6.896
87032SOL     OW62992   0.227  10.001  12.558
87032SOL    HW162993   0.243   9.911  12.529
87032SOL    HW262994   0.314  10.040  12.565
87033SOL     OW62995  13.599   0.726   9.422
87033SOL    HW162996  13.594   0.630   9.432
87033SOL    HW262997  13.557   0.760   9.501
87034SOL     OW62998   8.008   9.939   3.942
87034SOL    HW162999   7.975   9.851   3.927
87034SOL    HW263000   7.933   9.997   3.927
87035SOL     OW63001   4.085  13.574  11.512
87035SOL    HW163002   4.036  13.501  11.549
87035SOL    HW263003   4.145  13.534  11.449
87036SOL     OW63004   8.165  13.686   5.780
87036SOL    HW163005   8.110  13.764   5.781
87036SOL    HW263006   8.244  13.714   5.733
87037SOL     OW63007  12.539  10.486   0.180
87037SOL    HW163008  12.624  10.530   0.179
87037SOL    HW263009  12.549  10.412   0.121
87038SOL     OW63010   8.496  10.931   0.578
87038SOL    HW163011   8.409  10.900   0.551
87038SOL    HW263012   8.541  10.950   0.495
87039SOL     OW63013  13.667   3.452   1.157
87039SOL    HW163014  13.593   3.417   1.108
87039SOL    HW263015  13.680   3.389   1.228
87040SOL     OW63016  12.787  14.750   6.969
87040SOL    HW163017  12.779  14.714   6.881
87040SOL    HW263018  12.862  14.705   7.007
87041SOL     OW63019   9.822   6.772  11.135
87041SOL    HW163020   9.806   6.678  11.131
87041SOL    HW263021   9.816   6.794  11.228
87042SOL     OW63022  14.064   0.751   7.640
87042SOL    HW163023  14.077   0.764   7.545
87042SOL    HW263024  14.069   0.840   7.676
87043SOL     OW63025   1.053  12.923   6.303
87043SOL    HW163026   1.072  12.831   6.288
87043SOL    HW263027   1.013  12.954   6.222
87044SOL     OW63028  11.378   4.198   1.980
87044SOL    HW163029  11.291   4.237   1.987
87044SOL    HW263030  11.406   4.218   1.891
87045SOL     OW63031   8.286   0.230   2.330
87045SOL    HW163032   8.313   0.322   2.334
87045SOL    HW263033   8.358   0.182   2.372
87046SOL     OW63034  14.658   8.668   9.688
87046SOL    HW163035  14.588   8.724   9.721
87046SOL    HW263036  14.656   8.591   9.744
87047SOL     OW63037   3.809   9.212   1.489
87047SOL    HW163038   3.734   9.264   1.461
87047SOL    HW263039   3.786   9.122   1.463
87048SOL     OW63040  12.290  12.628  14.261
87048SOL    HW163041  12.244  12.565  14.206
87048SOL    HW263042  12.346  12.677  14.201
87049SOL     OW63043  12.075  13.896  10.115
87049SOL    HW163044  12.095  13.860  10.201
87049SOL    HW263045  11.995  13.948  10.128
87050SOL     OW63046  12.248   7.506   0.156
87050SOL    HW163047  12.183   7.439   0.134
87050SOL    HW263048  12.239   7.571   0.086
87051SOL     OW63049  10.598  14.119   2.577
87051SOL    HW163050  10.592  14.212   2.553
87051SOL    HW263051  10.689  14.096   2.559
87052SOL     OW63052  13.083  12.807   2.163
87052SOL    HW163053  13.015  12.781   2.100
87052SOL    HW263054  13.094  12.901   2.148
87053SOL     OW63055   1.760   6.237   5.390
87053SOL    HW163056   1.721   6.151   5.404
87053SOL    HW263057   1.768   6.245   5.295
87054SOL     OW63058   5.197  10.818   6.865
87054SOL    HW163059   5.256  10.888   6.891
87054SOL    HW263060   5.164  10.782   6.947
87055SOL     OW63061   0.962  13.633   6.882
87055SOL    HW163062   0.997  13.682   6.808
87055SOL    HW263063   0.901  13.570   6.843
87056SOL     OW63064   1.205  12.120   6.422
87056SOL    HW163065   1.250  12.180   6.481
87056SOL    HW263066   1.210  12.035   6.466
87057SOL     OW63067   4.118  12.284   3.127
87057SOL    HW163068   4.095  12.318   3.213
87057SOL    HW263069   4.091  12.192   3.130
87058SOL     OW63070   8.089  12.109   0.304
87058SOL    HW163071   8.060  12.031   0.256
87058SOL    HW263072   8.141  12.074   0.377
87059SOL     OW63073   7.740  12.081   2.392
87059SOL    HW163074   7.677  12.093   2.321
87059SOL    HW263075   7.714  11.999   2.433
87060SOL     OW63076   1.711   4.256  11.120
87060SOL    HW163077   1.625   4.297  11.110
87060SOL    HW263078   1.700   4.194  11.191
87061SOL     OW63079   0.322   2.002   0.651
87061SOL    HW163080   0.319   1.999   0.555
87061SOL    HW263081   0.231   1.986   0.678
87062SOL     OW63082   0.201  10.662   0.344
87062SOL    HW163083   0.279  10.665   0.400
87062SOL    HW263084   0.128  10.656   0.406
87063SOL     OW63085   6.093   7.593  12.073
87063SOL    HW163086   6.016   7.644  12.045
87063SOL    HW263087   6.130   7.645  12.145
87064SOL     OW63088   9.825   6.563   8.323
87064SOL    HW163089   9.898   6.622   8.308
87064SOL    HW263090   9.794   6.541   8.235
87065SOL     OW63091   7.600   7.491   5.164
87065SOL    HW163092   7.526   7.431   5.177
87065SOL    HW263093   7.658   7.444   5.104
87066SOL     OW63094   1.562  10.933  14.844
87066SOL    HW163095   1.580  10.880  14.766
87066SOL    HW263096   1.476  10.971  14.827
87067SOL     OW63097   1.080   7.959   6.959
87067SOL    HW163098   1.165   7.965   6.915
87067SOL    HW263099   1.029   8.032   6.925
87068SOL     OW63100   2.351   4.002   7.384
87068SOL    HW163101   2.328   4.008   7.477
87068SOL    HW263102   2.314   3.918   7.356
87069SOL     OW63103   2.073  14.852   5.353
87069SOL    HW163104   2.093   0.037   5.275
87069SOL    HW263105   2.080  14.762   5.323
87070SOL     OW63106  11.660   2.020  13.526
87070SOL    HW163107  11.672   1.927  13.546
87070SOL    HW263108  11.736   2.063  13.565
87071SOL     OW63109  14.601   1.661   0.392
87071SOL    HW163110  14.584   1.591   0.455
87071SOL    HW263111  14.674   1.628   0.339
87072SOL     OW63112   3.907  13.431   1.287
87072SOL    HW163113   3.884  13.356   1.232
87072SOL    HW263114   3.935  13.392   1.370
87073SOL     OW63115  10.550  12.503  13.424
87073SOL    HW163116  10.524  12.480  13.513
87073SOL    HW263117  10.475  12.480  13.369
87074SOL     OW63118   9.069   5.947  11.044
87074SOL    HW163119   9.089   5.921  11.134
87074SOL    HW263120   8.980   5.916  11.029
87075SOL     OW63121  11.920   0.579   2.820
87075SOL    HW163122  11.900   0.492   2.787
87075SOL    HW263123  11.913   0.571   2.915
87076SOL     OW63124   6.003  14.487   1.220
87076SOL    HW163125   6.082  14.540   1.232
87076SOL    HW263126   6.001  14.429   1.297
87077SOL     OW63127  14.264   3.513  11.384
87077SOL    HW163128  14.343   3.498  11.436
87077SOL    HW263129  14.242   3.427  11.348
87078SOL     OW63130   4.629   1.249  10.004
87078SOL    HW163131   4.719   1.274  10.025
87078SOL    HW263132   4.576   1.291  10.072
87079SOL     OW63133   3.460   3.622   1.027
87079SOL    HW163134   3.494   3.607   1.115
87079SOL    HW263135   3.501   3.704   1.000
87080SOL     OW63136   0.997   6.577   0.927
87080SOL    HW163137   1.060   6.639   0.964
87080SOL    HW263138   0.912   6.620   0.939
87081SOL     OW63139   8.441  14.682   4.121
87081SOL    HW163140   8.370  14.644   4.172
87081SOL    HW263141   8.434  14.776   4.135
87082SOL     OW63142   8.881   6.840   1.161
87082SOL    HW163143   8.835   6.789   1.094
87082SOL    HW263144   8.860   6.796   1.243
87083SOL     OW63145  12.867  14.631   8.784
87083SOL    HW163146  12.887  14.672   8.700
87083SOL    HW263147  12.888  14.699   8.849
87084SOL     OW63148   5.025   6.746   8.266
87084SOL    HW163149   4.956   6.805   8.237
87084SOL    HW263150   4.979   6.674   8.309
87085SOL     OW63151   2.288   6.496   3.484
87085SOL    HW163152   2.254   6.544   3.408
87085SOL    HW263153   2.219   6.505   3.550
87086SOL     OW63154   4.835   1.440   4.129
87086SOL    HW163155   4.741   1.421   4.130
87086SOL    HW263156   4.854   1.463   4.038
87087SOL     OW63157   4.979   6.375   4.371
87087SOL    HW163158   4.988   6.334   4.285
87087SOL    HW263159   4.997   6.304   4.433
87088SOL     OW63160   2.260  12.465   3.910
87088SOL    HW163161   2.292  12.467   3.820
87088SOL    HW263162   2.185  12.523   3.910
87089SOL     OW63163  14.228   9.464  13.330
87089SOL    HW163164  14.146   9.461  13.380
87089SOL    HW263165  14.274   9.540  13.364
87090SOL     OW63166  10.057   6.613   1.960
87090SOL    HW163167  10.011   6.655   2.033
87090SOL    HW263168  10.009   6.530   1.947
87091SOL     OW63169   8.886  10.552   6.733
87091SOL    HW163170   8.791  10.558   6.733
87091SOL    HW263171   8.905  10.458   6.728
87092SOL     OW63172  11.595  13.022  10.201
87092SOL    HW163173  11.587  12.995  10.292
87092SOL    HW263174  11.550  12.953  10.152
87093SOL     OW63175   1.056   2.126   2.092
87093SOL    HW163176   1.111   2.051   2.071
87093SOL    HW263177   1.107   2.202   2.066
87094SOL     OW63178   3.860   0.328   7.232
87094SOL    HW163179   3.820   0.303   7.315
87094SOL    HW263180   3.936   0.380   7.257
87095SOL     OW63181  11.868  14.218  11.621
87095SOL    HW163182  11.952  14.193  11.581
87095SOL    HW263183  11.803  14.176  11.564
87096SOL     OW63184   6.836   8.082   2.710
87096SOL    HW163185   6.812   8.097   2.801
87096SOL    HW263186   6.927   8.052   2.713
87097SOL     OW63187  10.820  14.729   0.102
87097SOL    HW163188  10.912  14.713   0.126
87097SOL    HW263189  10.770  14.670   0.158
87098SOL     OW63190  12.293   3.613   5.832
87098SOL    HW163191  12.198   3.623   5.830
87098SOL    HW263192  12.312   3.548   5.763
87099SOL     OW63193   9.957   7.943  13.625
87099SOL    HW163194  10.038   7.957  13.674
87099SOL    HW263195   9.970   7.859  13.581
87100SOL     OW63196   4.055  12.390   1.097
87100SOL    HW163197   4.081  12.463   1.040
87100SOL    HW263198   4.005  12.332   1.041
87101SOL     OW63199   0.229   1.630  13.410
87101SOL    HW163200   0.136   1.632  13.385
87101SOL    HW263201   0.275   1.606  13.330
87102SOL     OW63202   3.523  13.308   3.909
87102SOL    HW163203   3.540  13.387   3.857
87102SOL    HW263204   3.436  13.323   3.946
87103SOL     OW63205   0.999   2.641  11.801
87103SOL    HW163206   1.048   2.704  11.748
87103SOL    HW263207   1.038   2.647  11.888
87104SOL     OW63208   8.783  11.798  12.702
87104SOL    HW163209   8.709  11.858  12.702
87104SOL    HW263210   8.766  11.739  12.628
87105SOL     OW63211   6.811   0.177   1.073
87105SOL    HW163212   6.893   0.180   1.124
87105SOL    HW263213   6.779   0.087   1.087
87106SOL     OW63214   4.001   7.971  11.529
87106SOL    HW163215   4.025   7.889  11.486
87106SOL    HW263216   3.988   8.033  11.457
87107SOL     OW63217   4.853   0.759  12.472
87107SOL    HW163218   4.800   0.680  12.463
87107SOL    HW263219   4.879   0.781  12.382
87108SOL     OW63220  12.126  13.747  11.485
87108SOL    HW163221  12.082  13.782  11.562
87108SOL    HW263222  12.161  13.663  11.513
87109SOL     OW63223   7.851   6.539   4.057
87109SOL    HW163224   7.902   6.612   4.022
87109SOL    HW263225   7.893   6.461   4.020
87110SOL     OW63226  10.689  12.976  11.153
87110SOL    HW163227  10.708  12.981  11.059
87110SOL    HW263228  10.731  12.895  11.182
87111SOL     OW63229  13.284   8.841  13.246
87111SOL    HW163230  13.323   8.928  13.255
87111SOL    HW263231  13.321   8.789  13.317
87112SOL     OW63232   7.445   6.438  13.355
87112SOL    HW163233   7.421   6.512  13.300
87112SOL    HW263234   7.516   6.470  13.410
87113SOL     OW63235   1.566   4.402   6.250
87113SOL    HW163236   1.628   4.462   6.290
87113SOL    HW263237   1.556   4.331   6.314
87114SOL     OW63238   3.189   2.030   8.521
87114SOL    HW163239   3.242   2.107   8.542
87114SOL    HW263240   3.099   2.061   8.527
87115SOL     OW63241  13.772  10.651   9.207
87115SOL    HW163242  13.726  10.686   9.130
87115SOL    HW263243  13.713  10.670   9.280
87116SOL     OW63244   7.009  13.140   7.738
87116SOL    HW163245   6.937  13.174   7.685
87116SOL    HW263246   7.007  13.045   7.723
87117SOL     OW63247   0.684   1.820   3.721
87117SOL    HW163248   0.760   1.769   3.692
87117SOL    HW263249   0.677   1.890   3.656
87118SOL     OW63250   4.368   0.548   7.296
87118SOL    HW163251   4.273   0.540   7.302
87118SOL    HW263252   4.397   0.556   7.387
87119SOL     OW63253  10.476  11.774   4.945
87119SOL    HW163254  10.551  11.821   4.982
87119SOL    HW263255  10.413  11.843   4.925
87120SOL     OW63256  12.081   7.088   3.515
87120SOL    HW163257  12.107   7.037   3.592
87120SOL    HW263258  12.045   7.169   3.550
87121SOL     OW63259   9.292  13.538   3.428
87121SOL    HW163260   9.316  13.525   3.520
87121SOL    HW263261   9.226  13.471   3.411
87122SOL     OW63262   8.942   1.423   8.244
87122SOL    HW163263   8.958   1.395   8.154
87122SOL    HW263264   9.004   1.374   8.297
87123SOL     OW63265   6.052   5.613  14.501
87123SOL    HW163266   5.969   5.587  14.460
87123SOL    HW263267   6.089   5.531  14.535
87124SOL     OW63268   4.941   4.981   0.221
87124SOL    HW163269   4.906   5.065   0.250
87124SOL    HW263270   4.987   4.946   0.298
87125SOL     OW63271   1.935  13.708  11.894
87125SOL    HW163272   1.918  13.732  11.985
87125SOL    HW263273   2.031  13.701  11.889
87126SOL     OW63274   4.667   0.458  12.951
87126SOL    HW163275   4.666   0.415  13.037
87126SOL    HW263276   4.755   0.493  12.943
87127SOL     OW63277   3.752  14.612  11.879
87127SOL    HW163278   3.834  14.624  11.927
87127SOL    HW263279   3.770  14.541  11.818
87128SOL     OW63280   2.353   3.015   1.411
87128SOL    HW163281   2.259   3.018   1.430
87128SOL    HW263282   2.375   3.104   1.385
87129SOL     OW63283   7.027   6.160   9.627
87129SOL    HW163284   7.026   6.133   9.535
87129SOL    HW263285   7.088   6.233   9.630
87130SOL     OW63286   8.369   5.642   9.517
87130SOL    HW163287   8.279   5.667   9.535
87130SOL    HW263288   8.407   5.717   9.472
87131SOL     OW63289  14.110   7.399   7.252
87131SOL    HW163290  14.033   7.442   7.288
87131SOL    HW263291  14.082   7.369   7.166
87132SOL     OW63292   5.191   5.740   3.941
87132SOL    HW163293   5.274   5.716   3.902
87132SOL    HW263294   5.206   5.827   3.979
87133SOL     OW63295   9.575   8.349   4.498
87133SOL    HW163296   9.511   8.375   4.432
87133SOL    HW263297   9.550   8.397   4.577
87134SOL     OW63298   0.300   5.411   3.524
87134SOL    HW163299   0.308   5.459   3.441
87134SOL    HW263300   0.350   5.331   3.510
87135SOL     OW63301  13.657   3.903   6.489
87135SOL    HW163302  13.734   3.877   6.439
87135SOL    HW263303  13.628   3.823   6.532
87136SOL     OW63304   3.415  14.556   7.588
87136SOL    HW163305   3.459  14.483   7.630
87136SOL    HW263306   3.481  14.625   7.582
87137SOL     OW63307  12.328   8.294  14.516
87137SOL    HW163308  12.310   8.299  14.610
87137SOL    HW263309  12.423   8.290  14.509
87138SOL     OW63310   7.394  10.311  11.938
87138SOL    HW163311   7.446  10.380  11.896
87138SOL    HW263312   7.337  10.279  11.868
87139SOL     OW63313  12.249   2.826  13.433
87139SOL    HW163314  12.303   2.880  13.375
87139SOL    HW263315  12.260   2.866  13.520
87140SOL     OW63316  10.093   2.945  12.026
87140SOL    HW163317  10.124   2.979  12.110
87140SOL    HW263318  10.138   2.861  12.017
87141SOL     OW63319   9.295   3.334   4.304
87141SOL    HW163320   9.207   3.297   4.298
87141SOL    HW263321   9.349   3.264   4.340
87142SOL     OW63322   7.693   6.071   3.318
87142SOL    HW163323   7.660   6.107   3.401
87142SOL    HW263324   7.720   6.147   3.268
87143SOL     OW63325  10.462   8.295  14.468
87143SOL    HW163326  10.466   8.208  14.508
87143SOL    HW263327  10.495   8.353  14.536
87144SOL     OW63328   8.783  13.786   6.499
87144SOL    HW163329   8.761  13.877   6.481
87144SOL    HW263330   8.878  13.781   6.488
87145SOL     OW63331   5.715   1.746   7.020
87145SOL    HW163332   5.768   1.690   6.965
87145SOL    HW263333   5.658   1.686   7.068
87146SOL     OW63334   2.101   9.975  13.878
87146SOL    HW163335   2.186  10.018  13.868
87146SOL    HW263336   2.089   9.928  13.795
87147SOL     OW63337   4.586   7.031   7.808
87147SOL    HW163338   4.632   6.995   7.732
87147SOL    HW263339   4.613   6.975   7.881
87148SOL     OW63340   5.226   7.923  11.166
87148SOL    HW163341   5.162   7.988  11.196
87148SOL    HW263342   5.234   7.939  11.072
87149SOL     OW63343   4.391  12.224  10.846
87149SOL    HW163344   4.321  12.289  10.847
87149SOL    HW263345   4.363  12.157  10.908
87150SOL     OW63346   1.630   6.817   0.986
87150SOL    HW163347   1.592   6.782   1.067
87150SOL    HW263348   1.578   6.778   0.916
87151SOL     OW63349  10.855   4.678   0.077
87151SOL    HW163350  10.803   4.598   0.077
87151SOL    HW263351  10.792   4.748   0.093
87152SOL     OW63352   7.227   9.256   7.672
87152SOL    HW163353   7.161   9.218   7.613
87152SOL    HW263354   7.177   9.282   7.749
87153SOL     OW63355  13.121  12.677   1.502
87153SOL    HW163356  13.030  12.688   1.531
87153SOL    HW263357  13.145  12.763   1.468
87154SOL     OW63358   5.258   1.085   7.222
87154SOL    HW163359   5.249   1.179   7.238
87154SOL    HW263360   5.184   1.046   7.269
87155SOL     OW63361   9.711   8.446   0.292
87155SOL    HW163362   9.788   8.495   0.320
87155SOL    HW263363   9.640   8.479   0.347
87156SOL     OW63364   8.595   7.649  10.538
87156SOL    HW163365   8.548   7.720  10.493
87156SOL    HW263366   8.687   7.671  10.528
87157SOL     OW63367   2.695   9.884   3.915
87157SOL    HW163368   2.703   9.971   3.954
87157SOL    HW263369   2.764   9.833   3.956
87158SOL     OW63370   7.641   1.020  10.156
87158SOL    HW163371   7.720   0.991  10.110
87158SOL    HW263372   7.570   1.005  10.092
87159SOL     OW63373  11.034   2.583   6.647
87159SOL    HW163374  11.067   2.586   6.736
87159SOL    HW263375  11.043   2.672   6.614
87160SOL     OW63376   0.441   3.185  11.837
87160SOL    HW163377   0.454   3.114  11.901
87160SOL    HW263378   0.499   3.255  11.867
87161SOL     OW63379   1.763   2.946   2.135
87161SOL    HW163380   1.702   2.958   2.062
87161SOL    HW263381   1.814   2.869   2.112
87162SOL     OW63382   5.336   9.493   3.869
87162SOL    HW163383   5.381   9.409   3.881
87162SOL    HW263384   5.249   9.480   3.907
87163SOL     OW63385   6.649  11.190   4.702
87163SOL    HW163386   6.613  11.268   4.660
87163SOL    HW263387   6.634  11.203   4.795
87164SOL     OW63388   6.192   7.517   3.986
87164SOL    HW163389   6.123   7.474   3.936
87164SOL    HW263390   6.146   7.585   4.037
87165SOL     OW63391  13.661   3.015   5.339
87165SOL    HW163392  13.730   2.951   5.354
87165SOL    HW263393  13.692   3.066   5.264
87166SOL     OW63394   9.949   0.698   8.681
87166SOL    HW163395  10.021   0.745   8.638
87166SOL    HW263396   9.870   0.746   8.657
87167SOL     OW63397   6.423   1.351   8.424
87167SOL    HW163398   6.506   1.342   8.471
87167SOL    HW263399   6.385   1.431   8.459
87168SOL     OW63400   9.663  10.539  12.625
87168SOL    HW163401   9.729  10.600  12.658
87168SOL    HW263402   9.681  10.457  12.671
87169SOL     OW63403   4.243  14.253  10.610
87169SOL    HW163404   4.257  14.161  10.588
87169SOL    HW263405   4.315  14.275  10.669
87170SOL     OW63406   7.022  11.698  12.803
87170SOL    HW163407   7.003  11.785  12.770
87170SOL    HW263408   7.059  11.651  12.728
87171SOL     OW63409   8.265   4.225  10.559
87171SOL    HW163410   8.177   4.215  10.522
87171SOL    HW263411   8.251   4.262  10.646
87172SOL     OW63412   6.902   7.030   1.699
87172SOL    HW163413   6.877   6.990   1.782
87172SOL    HW263414   6.889   7.124   1.713
87173SOL     OW63415  10.137  14.526   1.465
87173SOL    HW163416  10.079  14.484   1.528
87173SOL    HW263417  10.085  14.599   1.430
87174SOL     OW63418   8.437   8.876  11.966
87174SOL    HW163419   8.411   8.874  11.873
87174SOL    HW263420   8.372   8.822  12.010
87175SOL     OW63421   2.413   2.368   7.825
87175SOL    HW163422   2.319   2.382   7.838
87175SOL    HW263423   2.424   2.274   7.831
87176SOL     OW63424  11.875   9.169   9.794
87176SOL    HW163425  11.899   9.097   9.735
87176SOL    HW263426  11.819   9.225   9.741
87177SOL     OW63427  11.310  10.390  14.395
87177SOL    HW163428  11.370  10.334  14.345
87177SOL    HW263429  11.352  10.476  14.395
87178SOL     OW63430   6.459   5.022   7.968
87178SOL    HW163431   6.412   5.037   8.050
87178SOL    HW263432   6.430   5.093   7.910
87179SOL     OW63433  11.067   9.007  10.048
87179SOL    HW163434  10.992   9.065  10.056
87179SOL    HW263435  11.096   9.018   9.957
87180SOL     OW63436   2.823   4.240   6.556
87180SOL    HW163437   2.754   4.201   6.501
87180SOL    HW263438   2.791   4.329   6.573
87181SOL     OW63439   1.445   5.113   7.725
87181SOL    HW163440   1.354   5.133   7.702
87181SOL    HW263441   1.494   5.188   7.694
87182SOL     OW63442   4.877  13.873   1.301
87182SOL    HW163443   4.957  13.910   1.339
87182SOL    HW263444   4.806  13.922   1.341
87183SOL     OW63445   0.252   5.119   1.443
87183SOL    HW163446   0.340   5.153   1.432
87183SOL    HW263447   0.231   5.078   1.359
87184SOL     OW63448   2.492  14.246   4.423
87184SOL    HW163449   2.460  14.323   4.377
87184SOL    HW263450   2.422  14.181   4.413
87185SOL     OW63451   9.610   4.386   7.535
87185SOL    HW163452   9.570   4.351   7.455
87185SOL    HW263453   9.576   4.475   7.542
87186SOL     OW63454   9.503   5.632   2.382
87186SOL    HW163455   9.460   5.559   2.336
87186SOL    HW263456   9.491   5.612   2.475
87187SOL     OW63457  10.375  14.504   3.829
87187SOL    HW163458  10.391  14.441   3.760
87187SOL    HW263459  10.453  14.498   3.885
87188SOL     OW63460   4.065   6.013  13.382
87188SOL    HW163461   4.054   6.080  13.450
87188SOL    HW263462   4.047   5.930  13.426
87189SOL     OW63463   7.328   4.527  10.383
87189SOL    HW163464   7.321   4.613  10.424
87189SOL    HW263465   7.421   4.504  10.391
87190SOL     OW63466   3.324   0.742   0.060
87190SOL    HW163467   3.273   0.676   0.013
87190SOL    HW263468   3.360   0.694   0.135
87191SOL     OW63469   6.338   6.402  12.395
87191SOL    HW163470   6.334   6.422  12.301
87191SOL    HW263471   6.429   6.420  12.420
87192SOL     OW63472  11.495   2.528   2.165
87192SOL    HW163473  11.518   2.618   2.144
87192SOL    HW263474  11.399   2.527   2.166
87193SOL     OW63475  13.456   7.740  10.818
87193SOL    HW163476  13.483   7.707  10.903
87193SOL    HW263477  13.427   7.830  10.834
87194SOL     OW63478   9.883   4.244   9.079
87194SOL    HW163479   9.804   4.278   9.038
87194SOL    HW263480   9.919   4.318   9.127
87195SOL     OW63481   3.159   2.681   4.041
87195SOL    HW163482   3.110   2.762   4.033
87195SOL    HW263483   3.098   2.612   4.014
87196SOL     OW63484   1.039   7.416   4.986
87196SOL    HW163485   0.980   7.491   4.981
87196SOL    HW263486   1.101   7.430   4.915
87197SOL     OW63487  13.861   9.261  12.709
87197SOL    HW163488  13.864   9.346  12.664
87197SOL    HW263489  13.953   9.240  12.725
87198SOL     OW63490   9.796  12.783   9.020
87198SOL    HW163491   9.847  12.762   9.098
87198SOL    HW263492   9.706  12.794   9.052
87199SOL     OW63493   1.811  14.354   3.825
87199SOL    HW163494   1.896  14.394   3.839
87199SOL    HW263495   1.748  14.426   3.833
87200SOL     OW63496   2.061   8.527  14.473
87200SOL    HW163497   2.052   8.575  14.391
87200SOL    HW263498   1.995   8.458  14.468
87201SOL     OW63499   6.733   5.030   3.623
87201SOL    HW163500   6.730   5.007   3.716
87201SOL    HW263501   6.755   5.124   3.622
87202SOL     OW63502   4.261   1.778  10.910
87202SOL    HW163503   4.312   1.794  10.830
87202SOL    HW263504   4.219   1.693  10.895
87203SOL     OW63505  14.449   8.477   6.090
87203SOL    HW163506  14.364   8.439   6.111
87203SOL    HW263507  14.464   8.454   5.998
87204SOL     OW63508   5.896   3.055  12.360
87204SOL    HW163509   5.952   3.072  12.435
87204SOL    HW263510   5.874   3.142  12.326
87205SOL     OW63511   5.299  14.649   4.637
87205SOL    HW163512   5.366  14.712   4.610
87205SOL    HW263513   5.292  14.660   4.732
87206SOL     OW63514   5.109   5.820   4.400
87206SOL    HW163515   5.173   5.756   4.369
87206SOL    HW263516   5.117   5.818   4.495
87207SOL     OW63517  13.636  13.357  14.716
87207SOL    HW163518  13.728  13.380  14.728
87207SOL    HW263519  13.587  13.435  14.742
87208SOL     OW63520   6.316   6.300  14.499
87208SOL    HW163521   6.357   6.348  14.427
87208SOL    HW263522   6.384   6.239  14.529
87209SOL     OW63523   4.356   6.854   1.271
87209SOL    HW163524   4.261   6.841   1.262
87209SOL    HW263525   4.384   6.786   1.331
87210SOL     OW63526  14.233   9.443   0.498
87210SOL    HW163527  14.316   9.483   0.471
87210SOL    HW263528  14.166   9.504   0.468
87211SOL     OW63529   8.329   4.518  13.436
87211SOL    HW163530   8.415   4.535  13.474
87211SOL    HW263531   8.332   4.426  13.411
87212SOL     OW63532   6.380   2.989   4.087
87212SOL    HW163533   6.309   3.051   4.106
87212SOL    HW263534   6.343   2.932   4.020
87213SOL     OW63535  10.169   9.839   1.896
87213SOL    HW163536  10.147   9.891   1.818
87213SOL    HW263537  10.092   9.784   1.910
87214SOL     OW63538  13.847   5.789   5.812
87214SOL    HW163539  13.899   5.788   5.893
87214SOL    HW263540  13.886   5.721   5.757
87215SOL     OW63541   4.484  14.733  13.872
87215SOL    HW163542   4.400  14.694  13.896
87215SOL    HW263543   4.548  14.684  13.923
87216SOL     OW63544   4.000   4.840   5.075
87216SOL    HW163545   3.967   4.876   4.993
87216SOL    HW263546   4.095   4.846   5.068
87217SOL     OW63547   2.897   9.805   4.662
87217SOL    HW163548   2.915   9.834   4.572
87217SOL    HW263549   2.870   9.884   4.708
87218SOL     OW63550  11.415   9.882   5.354
87218SOL    HW163551  11.401   9.953   5.416
87218SOL    HW263552  11.355   9.900   5.281
87219SOL     OW63553   7.103   3.209  11.873
87219SOL    HW163554   7.080   3.300  11.853
87219SOL    HW263555   7.174   3.189  11.811
87220SOL     OW63556   1.529   9.493   7.857
87220SOL    HW163557   1.491   9.449   7.782
87220SOL    HW263558   1.614   9.451   7.870
87221SOL     OW63559  11.749   5.056   1.271
87221SOL    HW163560  11.841   5.050   1.245
87221SOL    HW263561  11.720   5.142   1.239
87222SOL     OW63562   1.971   6.745   5.123
87222SOL    HW163563   1.897   6.762   5.181
87222SOL    HW263564   1.950   6.791   5.042
87223SOL     OW63565   6.155   8.730   0.694
87223SOL    HW163566   6.228   8.721   0.633
87223SOL    HW263567   6.078   8.700   0.644
87224SOL     OW63568  12.330  13.989  10.214
87224SOL    HW163569  12.353  13.933  10.289
87224SOL    HW263570  12.270  14.054  10.250
87225SOL     OW63571   1.258  10.440   7.729
87225SOL    HW163572   1.202  10.385   7.675
87225SOL    HW263573   1.339  10.391   7.738
87226SOL     OW63574   8.431  13.970   4.814
87226SOL    HW163575   8.526  13.980   4.811
87226SOL    HW263576   8.399  14.027   4.745
87227SOL     OW63577   1.756   6.511   0.610
87227SOL    HW163578   1.837   6.517   0.560
87227SOL    HW263579   1.729   6.419   0.601
87228SOL     OW63580  11.907   1.050   6.305
87228SOL    HW163581  11.840   1.007   6.359
87228SOL    HW263582  11.857   1.107   6.246
87229SOL     OW63583   9.412  10.120   4.706
87229SOL    HW163584   9.471  10.096   4.778
87229SOL    HW263585   9.326  10.091   4.737
87230SOL     OW63586   4.457   6.067   4.477
87230SOL    HW163587   4.412   6.148   4.453
87230SOL    HW263588   4.401   5.997   4.441
87231SOL     OW63589  12.299  12.941   9.604
87231SOL    HW163590  12.361  12.870   9.620
87231SOL    HW263591  12.296  12.989   9.687
87232SOL     OW63592   0.312   4.433   0.501
87232SOL    HW163593   0.317   4.443   0.406
87232SOL    HW263594   0.284   4.343   0.515
87233SOL     OW63595   2.499  10.457   8.673
87233SOL    HW163596   2.464  10.544   8.654
87233SOL    HW263597   2.454  10.399   8.612
87234SOL     OW63598   8.157   1.941   3.425
87234SOL    HW163599   8.119   1.854   3.412
87234SOL    HW263600   8.250   1.924   3.436
87235SOL     OW63601  14.211   7.884   2.159
87235SOL    HW163602  14.120   7.860   2.174
87235SOL    HW263603  14.249   7.809   2.113
87236SOL     OW63604   4.136   0.146   9.529
87236SOL    HW163605   4.196   0.088   9.481
87236SOL    HW263606   4.191   0.186   9.597
87237SOL     OW63607  12.069  12.234  10.200
87237SOL    HW163608  12.051  12.267  10.113
87237SOL    HW263609  12.127  12.159  10.186
87238SOL     OW63610   4.077  14.001   4.348
87238SOL    HW163611   4.082  14.080   4.294
87238SOL    HW263612   4.157  14.004   4.402
87239SOL     OW63613   8.891   3.493  10.737
87239SOL    HW163614   8.903   3.518  10.646
87239SOL    HW263615   8.926   3.567  10.787
87240SOL     OW63616  11.845   7.210   6.903
87240SOL    HW163617  11.870   7.180   6.816
87240SOL    HW263618  11.918   7.184   6.959
87241SOL     OW63619  13.273   5.209  12.162
87241SOL    HW163620  13.252   5.210  12.255
87241SOL    HW263621  13.273   5.301  12.136
87242SOL     OW63622   2.063  14.099   5.036
87242SOL    HW163623   2.048  14.007   5.014
87242SOL    HW263624   2.016  14.148   4.969
87243SOL     OW63625   3.992   2.079  13.337
87243SOL    HW163626   4.055   2.110  13.403
87243SOL    HW263627   3.915   2.134  13.350
87244SOL     OW63628  10.119   8.989   1.870
87244SOL    HW163629  10.106   9.032   1.954
87244SOL    HW263630  10.109   8.895   1.888
87245SOL     OW63631  11.136   6.590  11.286
87245SOL    HW163632  11.160   6.510  11.332
87245SOL    HW263633  11.219   6.626  11.255
87246SOL     OW63634   1.943   6.796  13.166
87246SOL    HW163635   1.941   6.810  13.071
87246SOL    HW263636   1.966   6.882  13.202
87247SOL     OW63637   3.798   9.498   7.179
87247SOL    HW163638   3.890   9.515   7.199
87247SOL    HW263639   3.792   9.504   7.084
87248SOL     OW63640   2.718  10.587   0.346
87248SOL    HW163641   2.748  10.677   0.357
87248SOL    HW263642   2.625  10.595   0.324
87249SOL     OW63643   5.488   0.298   4.425
87249SOL    HW163644   5.469   0.218   4.473
87249SOL    HW263645   5.576   0.284   4.389
87250SOL     OW63646  12.235  10.877  14.369
87250SOL    HW163647  12.183  10.904  14.444
87250SOL    HW263648  12.306  10.825  14.407
87251SOL     OW63649  11.388   5.462   4.212
87251SOL    HW163650  11.452   5.532   4.200
87251SOL    HW263651  11.305   5.507   4.226
87252SOL     OW63652   6.097   4.319   7.422
87252SOL    HW163653   6.078   4.340   7.330
87252SOL    HW263654   6.019   4.275   7.453
87253SOL     OW63655   9.521   5.167   5.549
87253SOL    HW163656   9.564   5.148   5.632
87253SOL    HW263657   9.586   5.145   5.482
87254SOL     OW63658   0.931  14.375  11.392
87254SOL    HW163659   0.909  14.468  11.395
87254SOL    HW263660   1.006  14.366  11.450
87255SOL     OW63661   1.101  12.749  11.662
87255SOL    HW163662   1.170  12.715  11.719
87255SOL    HW263663   1.110  12.844  11.667
87256SOL     OW63664   8.203   1.018  13.938
87256SOL    HW163665   8.263   1.031  13.864
87256SOL    HW263666   8.168   1.105  13.956
87257SOL     OW63667   3.101   3.106   4.754
87257SOL    HW163668   3.086   3.200   4.747
87257SOL    HW263669   3.154   3.096   4.833
87258SOL     OW63670   6.797   4.629   9.476
87258SOL    HW163671   6.713   4.599   9.440
87258SOL    HW263672   6.774   4.706   9.528
87259SOL     OW63673  12.654   2.669  12.637
87259SOL    HW163674  12.664   2.654  12.732
87259SOL    HW263675  12.564   2.699  12.627
87260SOL     OW63676   5.631  10.276  10.239
87260SOL    HW163677   5.585  10.196  10.215
87260SOL    HW263678   5.566  10.346  10.227
87261SOL     OW63679   1.851  11.869   0.758
87261SOL    HW163680   1.756  11.869   0.750
87261SOL    HW263681   1.872  11.785   0.799
87262SOL     OW63682   6.549   7.709  10.667
87262SOL    HW163683   6.541   7.803  10.678
87262SOL    HW263684   6.640   7.696  10.639
87263SOL     OW63685  12.950  14.189  12.246
87263SOL    HW163686  12.881  14.245  12.279
87263SOL    HW263687  13.014  14.185  12.318
87264SOL     OW63688   5.545  10.533  13.932
87264SOL    HW163689   5.544  10.492  14.018
87264SOL    HW263690   5.618  10.596  13.936
87265SOL     OW63691   6.346   3.873   2.175
87265SOL    HW163692   6.266   3.871   2.227
87265SOL    HW263693   6.330   3.943   2.111
87266SOL     OW63694   7.007   7.232  14.582
87266SOL    HW163695   7.008   7.141  14.614
87266SOL    HW263696   6.958   7.280  14.649
87267SOL     OW63697   8.803   0.848  10.730
87267SOL    HW163698   8.774   0.757  10.722
87267SOL    HW263699   8.722   0.898  10.738
87268SOL     OW63700   7.943  11.981   3.688
87268SOL    HW163701   8.037  11.965   3.694
87268SOL    HW263702   7.914  11.922   3.618
87269SOL     OW63703  13.493  10.649   5.007
87269SOL    HW163704  13.418  10.693   5.048
87269SOL    HW263705  13.569  10.698   5.040
87270SOL     OW63706   8.757   8.503   3.084
87270SOL    HW163707   8.798   8.571   3.139
87270SOL    HW263708   8.672   8.540   3.060
87271SOL     OW63709  10.784  10.667   0.065
87271SOL    HW163710  10.830  10.734   0.014
87271SOL    HW263711  10.789  10.588   0.011
87272SOL     OW63712   8.711   1.532   8.036
87272SOL    HW163713   8.778   1.560   7.975
87272SOL    HW263714   8.678   1.614   8.074
87273SOL     OW63715   6.817   1.960   8.310
87273SOL    HW163716   6.882   2.017   8.268
87273SOL    HW263717   6.867   1.883   8.338
87274SOL     OW63718  12.828   0.552   0.054
87274SOL    HW163719  12.910   0.556   0.102
87274SOL    HW263720  12.781   0.477   0.092
87275SOL     OW63721   0.604   6.725   5.082
87275SOL    HW163722   0.671   6.792   5.090
87275SOL    HW263723   0.566   6.718   5.169
87276SOL     OW63724   5.270   0.886   9.734
87276SOL    HW163725   5.198   0.888   9.671
87276SOL    HW263726   5.246   0.817   9.796
87277SOL     OW63727   3.813   5.344   9.548
87277SOL    HW163728   3.903   5.375   9.539
87277SOL    HW263729   3.819   5.273   9.613
87278SOL     OW63730   2.170   2.094   1.630
87278SOL    HW163731   2.200   2.006   1.610
87278SOL    HW263732   2.082   2.098   1.593
87279SOL     OW63733  10.548  11.091   7.155
87279SOL    HW163734  10.499  11.106   7.074
87279SOL    HW263735  10.508  11.151   7.218
87280SOL     OW63736   9.366  10.747   6.486
87280SOL    HW163737   9.394  10.714   6.571
87280SOL    HW263738   9.397  10.838   6.484
87281SOL     OW63739   4.445   4.230   8.077
87281SOL    HW163740   4.430   4.242   8.171
87281SOL    HW263741   4.461   4.136   8.068
87282SOL     OW63742   5.435   0.536  10.252
87282SOL    HW163743   5.450   0.612  10.196
87282SOL    HW263744   5.368   0.486  10.206
87283SOL     OW63745  11.330   7.554  13.075
87283SOL    HW163746  11.376   7.519  13.151
87283SOL    HW263747  11.240   7.525  13.086
87284SOL     OW63748  14.422  10.915  11.426
87284SOL    HW163749  14.355  10.942  11.488
87284SOL    HW263750  14.398  10.825  11.402
87285SOL     OW63751   6.905   0.536   4.220
87285SOL    HW163752   6.876   0.611   4.167
87285SOL    HW263753   6.854   0.542   4.300
87286SOL     OW63754  11.011   2.123   2.298
87286SOL    HW163755  10.990   2.166   2.381
87286SOL    HW263756  11.012   2.030   2.319
87287SOL     OW63757  13.127   0.446   0.869
87287SOL    HW163758  13.051   0.494   0.836
87287SOL    HW263759  13.101   0.418   0.957
87288SOL     OW63760   3.365  12.838   6.555
87288SOL    HW163761   3.328  12.890   6.483
87288SOL    HW263762   3.309  12.857   6.630
87289SOL     OW63763  12.445   8.751   6.997
87289SOL    HW163764  12.511   8.688   7.026
87289SOL    HW263765  12.488   8.799   6.926
87290SOL     OW63766   1.726   1.439   6.947
87290SOL    HW163767   1.783   1.515   6.956
87290SOL    HW263768   1.653   1.470   6.893
87291SOL     OW63769   9.555   0.791   7.394
87291SOL    HW163770   9.545   0.883   7.416
87291SOL    HW263771   9.622   0.759   7.454
87292SOL     OW63772  13.193   9.623  10.624
87292SOL    HW163773  13.284   9.652  10.628
87292SOL    HW263774  13.142   9.703  10.631
87293SOL     OW63775   5.919   2.949   4.583
87293SOL    HW163776   5.826   2.967   4.598
87293SOL    HW263777   5.933   2.863   4.622
87294SOL     OW63778  10.454  13.845   8.214
87294SOL    HW163779  10.471  13.786   8.288
87294SOL    HW263780  10.477  13.932   8.247
87295SOL     OW63781   0.071   5.336   1.387
87295SOL    HW163782   0.130   5.260   1.381
87295SOL    HW263783   0.091   5.388   1.309
87296SOL     OW63784   6.041  11.345   4.817
87296SOL    HW163785   5.950  11.336   4.845
87296SOL    HW263786   6.072  11.255   4.805
87297SOL     OW63787   0.676   1.560   2.601
87297SOL    HW163788   0.700   1.651   2.616
87297SOL    HW263789   0.601   1.545   2.658
87298SOL     OW63790   6.045   9.585   7.330
87298SOL    HW163791   6.125   9.545   7.297
87298SOL    HW263792   6.067   9.676   7.346
87299SOL     OW63793   3.351  11.028  11.163
87299SOL    HW163794   3.268  11.030  11.115
87299SOL    HW263795   3.346  11.104  11.222
87300SOL     OW63796  11.801  14.463   6.152
87300SOL    HW163797  11.729  14.525   6.167
87300SOL    HW263798  11.778  14.419   6.070
87301SOL     OW63799  14.778  14.558   5.907
87301SOL    HW163800  14.826  14.556   5.989
87301SOL    HW263801  14.743  14.469   5.898
87302SOL     OW63802   2.978  14.226   0.988
87302SOL    HW163803   3.037  14.184   1.051
87302SOL    HW263804   2.995  14.180   0.905
87303SOL     OW63805   4.181  12.334   9.793
87303SOL    HW163806   4.202  12.241   9.797
87303SOL    HW263807   4.120  12.342   9.720
87304SOL     OW63808   6.307   7.934  14.227
87304SOL    HW163809   6.361   7.863  14.264
87304SOL    HW263810   6.219   7.916  14.259
87305SOL     OW63811  13.404   5.435   1.769
87305SOL    HW163812  13.329   5.482   1.733
87305SOL    HW263813  13.375   5.345   1.775
87306SOL     OW63814   3.341   6.360   2.917
87306SOL    HW163815   3.377   6.288   2.970
87306SOL    HW263816   3.278   6.403   2.975
87307SOL     OW63817   8.141  13.502   6.378
87307SOL    HW163818   8.112  13.488   6.288
87307SOL    HW263819   8.152  13.414   6.414
87308SOL     OW63820   2.649   8.037   7.404
87308SOL    HW163821   2.594   8.026   7.482
87308SOL    HW263822   2.735   8.007   7.431
87309SOL     OW63823   2.713   7.542  12.861
87309SOL    HW163824   2.679   7.627  12.889
87309SOL    HW263825   2.763   7.510  12.936
87310SOL     OW63826   5.427  10.915   1.143
87310SOL    HW163827   5.420  10.940   1.051
87310SOL    HW263828   5.518  10.934   1.166
87311SOL     OW63829   0.436  13.454   8.940
87311SOL    HW163830   0.528  13.430   8.939
87311SOL    HW263831   0.433  13.539   8.984
87312SOL     OW63832  11.812   6.926  10.438
87312SOL    HW163833  11.896   6.945  10.397
87312SOL    HW263834  11.795   6.834  10.418
87313SOL     OW63835   1.796   1.896  14.044
87313SOL    HW163836   1.873   1.862  14.091
87313SOL    HW263837   1.824   1.983  14.013
87314SOL     OW63838   8.358   5.081   6.192
87314SOL    HW163839   8.360   4.988   6.169
87314SOL    HW263840   8.274   5.093   6.236
87315SOL     OW63841   5.012  13.126  14.327
87315SOL    HW163842   5.019  13.204  14.272
87315SOL    HW263843   4.988  13.159  14.413
87316SOL     OW63844   1.731   0.316  12.979
87316SOL    HW163845   1.786   0.374  13.032
87316SOL    HW263846   1.644   0.355  12.985
87317SOL     OW63847   0.347  10.729  10.882
87317SOL    HW163848   0.306  10.775  10.956
87317SOL    HW263849   0.325  10.637  10.896
87318SOL     OW63850  11.359   3.238   4.779
87318SOL    HW163851  11.427   3.184   4.821
87318SOL    HW263852  11.304   3.269   4.851
87319SOL     OW63853   1.976  13.883   9.207
87319SOL    HW163854   1.887  13.864   9.238
87319SOL    HW263855   1.965  13.904   9.115
87320SOL     OW63856   6.230   5.400   4.686
87320SOL    HW163857   6.291   5.328   4.700
87320SOL    HW263858   6.248   5.430   4.597
87321SOL     OW63859  12.592   5.936   0.059
87321SOL    HW163860  12.682   5.925   0.028
87321SOL    HW263861  12.545   5.970  14.851
87322SOL     OW63862   7.524  12.264  14.841
87322SOL    HW163863   7.433  12.238  14.826
87322SOL    HW263864   7.575  12.184  14.828
87323SOL     OW63865   6.949   9.747   7.187
87323SOL    HW163866   6.993   9.735   7.271
87323SOL    HW263867   6.866   9.789   7.210
87324SOL     OW63868   1.243   0.925   0.317
87324SOL    HW163869   1.247   0.951   0.225
87324SOL    HW263870   1.204   1.000   0.362
87325SOL     OW63871   5.146   2.517   5.132
87325SOL    HW163872   5.162   2.573   5.208
87325SOL    HW263873   5.133   2.429   5.168
87326SOL     OW63874  10.132   8.275   7.794
87326SOL    HW163875  10.215   8.258   7.751
87326SOL    HW263876  10.114   8.367   7.777
87327SOL     OW63877  13.197  10.960   4.608
87327SOL    HW163878  13.277  10.909   4.598
87327SOL    HW263879  13.186  10.969   4.703
87328SOL     OW63880   4.826   9.227   5.883
87328SOL    HW163881   4.741   9.186   5.869
87328SOL    HW263882   4.871   9.169   5.945
87329SOL     OW63883   9.336   8.268   1.723
87329SOL    HW163884   9.282   8.269   1.802
87329SOL    HW263885   9.362   8.176   1.712
87330SOL     OW63886  11.354   0.765   3.039
87330SOL    HW163887  11.441   0.743   3.072
87330SOL    HW263888  11.304   0.788   3.118
87331SOL     OW63889  11.691   3.134   1.217
87331SOL    HW163890  11.735   3.161   1.137
87331SOL    HW263891  11.601   3.115   1.190
87332SOL     OW63892   5.732   8.629  13.326
87332SOL    HW163893   5.803   8.684  13.360
87332SOL    HW263894   5.774   8.545  13.306
87333SOL     OW63895   2.547   8.831   9.839
87333SOL    HW163896   2.482   8.763   9.825
87333SOL    HW263897   2.598   8.800   9.914
87334SOL     OW63898  13.317   5.182   1.614
87334SOL    HW163899  13.294   5.095   1.646
87334SOL    HW263900  13.333   5.170   1.520
87335SOL     OW63901   5.291  13.536   2.650
87335SOL    HW163902   5.300  13.449   2.688
87335SOL    HW263903   5.298  13.595   2.724
87336SOL     OW63904   9.962   4.919   2.953
87336SOL    HW163905   9.969   4.987   3.021
87336SOL    HW263906  10.044   4.925   2.905
87337SOL     OW63907   7.573   7.494   6.488
87337SOL    HW163908   7.659   7.476   6.452
87337SOL    HW263909   7.585   7.571   6.544
87338SOL     OW63910   1.546  12.467   6.810
87338SOL    HW163911   1.455  12.486   6.832
87338SOL    HW263912   1.580  12.549   6.775
87339SOL     OW63913   0.667  10.789  14.584
87339SOL    HW163914   0.739  10.727  14.594
87339SOL    HW263915   0.589  10.741  14.611
87340SOL     OW63916   2.116  14.806   7.523
87340SOL    HW163917   2.205  14.841   7.530
87340SOL    HW263918   2.112  14.767   7.435
87341SOL     OW63919  11.273  14.440   8.342
87341SOL    HW163920  11.322  14.365   8.309
87341SOL    HW263921  11.328  14.476   8.412
87342SOL     OW63922   7.815   2.116   9.732
87342SOL    HW163923   7.783   2.188   9.678
87342SOL    HW263924   7.738   2.086   9.780
87343SOL     OW63925   6.771   2.519   3.133
87343SOL    HW163926   6.824   2.497   3.210
87343SOL    HW263927   6.803   2.605   3.106
87344SOL     OW63928   1.235   9.919   3.114
87344SOL    HW163929   1.270   9.964   3.037
87344SOL    HW263930   1.176   9.853   3.078
87345SOL     OW63931   6.857  14.655  14.151
87345SOL    HW163932   6.861  14.603  14.231
87345SOL    HW263933   6.949  14.680  14.135
87346SOL     OW63934   8.900  10.273  11.261
87346SOL    HW163935   8.851  10.210  11.314
87346SOL    HW263936   8.959  10.316  11.322
87347SOL     OW63937   7.106   6.045  12.623
87347SOL    HW163938   7.089   6.135  12.650
87347SOL    HW263939   7.127   5.999  12.704
87348SOL     OW63940   6.145   7.927   9.769
87348SOL    HW163941   6.110   8.010   9.800
87348SOL    HW263942   6.239   7.933   9.786
87349SOL     OW63943   8.049   4.312  11.210
87349SOL    HW163944   8.055   4.217  11.198
87349SOL    HW263945   8.134   4.337  11.247
87350SOL     OW63946  13.752  14.104   6.083
87350SOL    HW163947  13.823  14.147   6.035
87350SOL    HW263948  13.691  14.076   6.015
87351SOL     OW63949   5.375   7.871   2.689
87351SOL    HW163950   5.350   7.958   2.721
87351SOL    HW263951   5.468   7.865   2.710
87352SOL     OW63952   4.398   2.843   0.854
87352SOL    HW163953   4.456   2.782   0.807
87352SOL    HW263954   4.410   2.927   0.810
87353SOL     OW63955   4.488  13.495  13.515
87353SOL    HW163956   4.522  13.552  13.447
87353SOL    HW263957   4.488  13.549  13.594
87354SOL     OW63958   8.554   7.576  14.168
87354SOL    HW163959   8.593   7.663  14.173
87354SOL    HW263960   8.618   7.524  14.118
87355SOL     OW63961   0.677  13.972   1.842
87355SOL    HW163962   0.625  14.030   1.897
87355SOL    HW263963   0.628  13.967   1.759
87356SOL     OW63964   8.013   4.214   1.561
87356SOL    HW163965   7.978   4.223   1.472
87356SOL    HW263966   7.968   4.281   1.611
87357SOL     OW63967  12.594  10.431  14.000
87357SOL    HW163968  12.585  10.356  13.941
87357SOL    HW263969  12.678  10.470  13.977
87358SOL     OW63970   2.751   5.373  14.082
87358SOL    HW163971   2.750   5.338  13.993
87358SOL    HW263972   2.661   5.364  14.112
87359SOL     OW63973   9.207   8.630  14.050
87359SOL    HW163974   9.174   8.556  13.999
87359SOL    HW263975   9.234   8.694  13.985
87360SOL     OW63976   9.564  14.690  14.741
87360SOL    HW163977   9.641  14.633  14.746
87360SOL    HW263978   9.594  14.773  14.779
87361SOL     OW63979   2.396  12.509  13.923
87361SOL    HW163980   2.301  12.516  13.937
87361SOL    HW263981   2.426  12.451  13.993
87362SOL     OW63982   7.641  12.970  12.545
87362SOL    HW163983   7.719  12.970  12.490
87362SOL    HW263984   7.568  12.980  12.484
87363SOL     OW63985  10.684   8.238   1.901
87363SOL    HW163986  10.661   8.247   1.809
87363SOL    HW263987  10.750   8.305   1.916
87364SOL     OW63988   9.101   1.675   8.067
87364SOL    HW163989   9.138   1.735   8.003
87364SOL    HW263990   9.023   1.720   8.101
87365SOL     OW63991  14.137   7.591  10.570
87365SOL    HW163992  14.115   7.656  10.503
87365SOL    HW263993  14.098   7.625  10.651
87366SOL     OW63994   4.541   3.019   8.406
87366SOL    HW163995   4.555   3.029   8.500
87366SOL    HW263996   4.622   2.980   8.374
87367SOL     OW63997   8.478   4.205   8.914
87367SOL    HW163998   8.484   4.266   8.987
87367SOL    HW263999   8.425   4.250   8.848
87368SOL     OW64000   6.376   9.986   4.067
87368SOL    HW164001   6.457   9.980   4.117
87368SOL    HW264002   6.329   9.905   4.089
87369SOL     OW64003   9.075   6.401   8.882
87369SOL    HW164004   9.103   6.310   8.874
87369SOL    HW264005   9.002   6.399   8.944
87370SOL     OW64006   1.321   0.264   9.853
87370SOL    HW164007   1.339   0.193   9.790
87370SOL    HW264008   1.320   0.343   9.799
87371SOL     OW64009  10.815   5.029  14.842
87371SOL    HW164010  10.832   5.103  14.785
87371SOL    HW264011  10.752   4.975  14.794
87372SOL     OW64012   6.348   6.929   9.733
87372SOL    HW164013   6.258   6.913   9.703
87372SOL    HW264014   6.357   7.025   9.730
87373SOL     OW64015   3.125   3.940   5.256
87373SOL    HW164016   3.142   3.860   5.207
87373SOL    HW264017   3.186   3.936   5.330
87374SOL     OW64018   9.985   0.648   7.696
87374SOL    HW164019   9.908   0.637   7.752
87374SOL    HW264020   9.966   0.594   7.619
87375SOL     OW64021   9.817  12.112  13.158
87375SOL    HW164022   9.791  12.204  13.167
87375SOL    HW264023   9.737  12.063  13.173
87376SOL     OW64024   7.367   9.212  13.094
87376SOL    HW164025   7.393   9.301  13.069
87376SOL    HW264026   7.272   9.210  13.080
87377SOL     OW64027   8.768  14.248  13.733
87377SOL    HW164028   8.817  14.329  13.725
87377SOL    HW264029   8.808  14.189  13.668
87378SOL     OW64030  12.399  13.161  11.686
87378SOL    HW164031  12.444  13.228  11.737
87378SOL    HW264032  12.420  13.078  11.730
87379SOL     OW64033   9.569  11.277  11.838
87379SOL    HW164034   9.551  11.371  11.832
87379SOL    HW264035   9.645  11.263  11.782
87380SOL     OW64036   6.643   3.066  12.319
87380SOL    HW164037   6.619   2.998  12.255
87380SOL    HW264038   6.701   3.021  12.381
87381SOL     OW64039   9.729   0.679   1.894
87381SOL    HW164040   9.774   0.693   1.811
87381SOL    HW264041   9.661   0.746   1.897
87382SOL     OW64042   8.181   6.816   9.513
87382SOL    HW164043   8.176   6.738   9.568
87382SOL    HW264044   8.090   6.842   9.500
87383SOL     OW64045   7.272  12.671  10.070
87383SOL    HW164046   7.215  12.596  10.088
87383SOL    HW264047   7.355  12.632  10.043
87384SOL     OW64048   8.351  13.497   3.049
87384SOL    HW164049   8.288  13.565   3.026
87384SOL    HW264050   8.318  13.418   3.005
87385SOL     OW64051   3.832  10.395  11.945
87385SOL    HW164052   3.742  10.374  11.968
87385SOL    HW264053   3.835  10.491  11.949
87386SOL     OW64054  13.679   5.083   8.495
87386SOL    HW164055  13.748   5.017   8.501
87386SOL    HW264056  13.722   5.164   8.520
87387SOL     OW64057   3.307   1.215  11.054
87387SOL    HW164058   3.333   1.125  11.074
87387SOL    HW264059   3.258   1.243  11.131
87388SOL     OW64060   5.479  13.626   5.880
87388SOL    HW164061   5.457  13.612   5.789
87388SOL    HW264062   5.416  13.692   5.911
87389SOL     OW64063   6.771  11.714   7.647
87389SOL    HW164064   6.782  11.696   7.740
87389SOL    HW264065   6.769  11.628   7.605
87390SOL     OW64066   3.372   2.059   3.137
87390SOL    HW164067   3.406   2.016   3.216
87390SOL    HW264068   3.374   2.152   3.158
87391SOL     OW64069   0.859   6.264  11.450
87391SOL    HW164070   0.890   6.247  11.361
87391SOL    HW264071   0.880   6.184  11.499
87392SOL     OW64072   4.066   1.543   9.995
87392SOL    HW164073   4.139   1.481   9.994
87392SOL    HW264074   4.030   1.538   9.906
87393SOL     OW64075   0.667   4.336  13.193
87393SOL    HW164076   0.620   4.389  13.128
87393SOL    HW264077   0.630   4.248  13.183
87394SOL     OW64078   8.944  12.488   8.067
87394SOL    HW164079   9.032  12.454   8.080
87394SOL    HW264080   8.957  12.576   8.032
87395SOL     OW64081   7.236   4.481   2.830
87395SOL    HW164082   7.238   4.568   2.790
87395SOL    HW264083   7.151   4.445   2.805
87396SOL     OW64084   0.602   8.774   4.041
87396SOL    HW164085   0.540   8.704   4.062
87396SOL    HW264086   0.570   8.850   4.090
87397SOL     OW64087  13.577   4.924  10.376
87397SOL    HW164088  13.531   5.004  10.352
87397SOL    HW264089  13.585   4.928  10.471
87398SOL     OW64090   7.096   5.123   7.899
87398SOL    HW164091   7.150   5.084   7.968
87398SOL    HW264092   7.011   5.137   7.940
87399SOL     OW64093   4.686   5.049  12.804
87399SOL    HW164094   4.751   5.109  12.766
87399SOL    HW264095   4.615   5.047  12.739
87400SOL     OW64096  13.950   9.230   8.206
87400SOL    HW164097  13.876   9.237   8.267
87400SOL    HW264098  13.917   9.266   8.124
87401SOL     OW64099   9.458   1.844  11.715
87401SOL    HW164100   9.394   1.772  11.715
87401SOL    HW264101   9.407   1.920  11.743
87402SOL     OW64102  10.266  12.423   4.490
87402SOL    HW164103  10.211  12.396   4.417
87402SOL    HW264104  10.350  12.446   4.451
87403SOL     OW64105  11.312   7.901   1.574
87403SOL    HW164106  11.399   7.912   1.613
87403SOL    HW264107  11.327   7.909   1.480
87404SOL     OW64108   8.272   2.238   9.361
87404SOL    HW164109   8.361   2.225   9.328
87404SOL    HW264110   8.258   2.165   9.421
87405SOL     OW64111  10.921   9.707   7.362
87405SOL    HW164112  10.857   9.765   7.321
87405SOL    HW264113  10.935   9.745   7.449
87406SOL     OW64114   1.464  14.424  13.948
87406SOL    HW164115   1.446  14.352  13.888
87406SOL    HW264116   1.384  14.478  13.944
87407SOL     OW64117  11.884   3.692  12.461
87407SOL    HW164118  11.905   3.615  12.513
87407SOL    HW264119  11.898   3.665  12.371
87408SOL     OW64120   2.885   2.361   9.274
87408SOL    HW164121   2.823   2.421   9.233
87408SOL    HW264122   2.957   2.416   9.302
87409SOL     OW64123   6.580   0.568   1.710
87409SOL    HW164124   6.668   0.603   1.724
87409SOL    HW264125   6.545   0.555   1.798
87410SOL     OW64126  10.148  13.996   2.871
87410SOL    HW164127  10.187  14.063   2.815
87410SOL    HW264128  10.163  13.914   2.824
87411SOL     OW64129   3.417   3.308   9.496
87411SOL    HW164130   3.368   3.265   9.566
87411SOL    HW264131   3.503   3.267   9.497
87412SOL     OW64132   6.486   5.463  14.678
87412SOL    HW164133   6.553   5.423  14.734
87412SOL    HW264134   6.535   5.510  14.612
87413SOL     OW64135  13.520   9.804  14.016
87413SOL    HW164136  13.547   9.843  14.099
87413SOL    HW264137  13.587   9.832  13.953
87414SOL     OW64138  10.486   4.161  13.993
87414SOL    HW164139  10.487   4.067  14.013
87414SOL    HW264140  10.480   4.165  13.897
87415SOL     OW64141  13.201  11.905   6.985
87415SOL    HW164142  13.209  11.817   7.021
87415SOL    HW264143  13.273  11.953   7.026
87416SOL     OW64144   8.438  12.184   4.363
87416SOL    HW164145   8.412  12.097   4.332
87416SOL    HW264146   8.436  12.177   4.459
87417SOL     OW64147  14.522   2.273   9.392
87417SOL    HW164148  14.566   2.329   9.456
87417SOL    HW264149  14.532   2.184   9.426
87418SOL     OW64150   0.388   2.680  10.897
87418SOL    HW164151   0.373   2.703  10.805
87418SOL    HW264152   0.303   2.646  10.927
87419SOL     OW64153   6.918   7.368   5.762
87419SOL    HW164154   6.856   7.298   5.784
87419SOL    HW264155   6.937   7.409   5.847
87420SOL     OW64156   7.329  14.380   7.536
87420SOL    HW164157   7.302  14.313   7.474
87420SOL    HW264158   7.424  14.377   7.534
87421SOL     OW64159   8.520  10.093   6.657
87421SOL    HW164160   8.507  10.185   6.636
87421SOL    HW264161   8.583  10.062   6.591
87422SOL     OW64162   6.893   2.742   9.121
87422SOL    HW164163   6.867   2.707   9.036
87422SOL    HW264164   6.892   2.837   9.110
87423SOL     OW64165   4.139  11.860  13.052
87423SOL    HW164166   4.157  11.892  12.964
87423SOL    HW264167   4.193  11.915  13.109
87424SOL     OW64168  14.253   5.956   7.362
87424SOL    HW164169  14.193   5.911   7.303
87424SOL    HW264170  14.319   5.891   7.385
87425SOL     OW64171  10.255   5.335  11.734
87425SOL    HW164172  10.281   5.245  11.714
87425SOL    HW264173  10.193   5.358  11.665
87426SOL     OW64174   3.751  12.135   6.598
87426SOL    HW164175   3.814  12.144   6.670
87426SOL    HW264176   3.774  12.051   6.556
87427SOL     OW64177   0.292   8.091   4.644
87427SOL    HW164178   0.244   8.076   4.726
87427SOL    HW264179   0.302   8.186   4.639
87428SOL     OW64180   8.799  11.465  12.766
87428SOL    HW164181   8.739  11.391  12.754
87428SOL    HW264182   8.763  11.535  12.712
87429SOL     OW64183   4.152   5.932   1.295
87429SOL    HW164184   4.212   5.919   1.369
87429SOL    HW264185   4.171   5.859   1.236
87430SOL     OW64186   2.188   9.395  10.851
87430SOL    HW164187   2.109   9.437  10.816
87430SOL    HW264188   2.254   9.464  10.848
87431SOL     OW64189  11.811  10.645   9.591
87431SOL    HW164190  11.860  10.695   9.656
87431SOL    HW264191  11.878  10.595   9.544
87432SOL     OW64192   4.229   1.448   7.197
87432SOL    HW164193   4.280   1.521   7.233
87432SOL    HW264194   4.292   1.376   7.189
87433SOL     OW64195   1.938  12.714  14.806
87433SOL    HW164196   1.898  12.770  14.739
87433SOL    HW264197   1.863  12.679  14.854
87434SOL     OW64198   0.477   4.112   6.026
87434SOL    HW164199   0.572   4.096   6.027
87434SOL    HW264200   0.440   4.035   6.070
87435SOL     OW64201   1.271  14.665   1.336
87435SOL    HW164202   1.220  14.587   1.316
87435SOL    HW264203   1.209  14.724   1.379
87436SOL     OW64204  11.606   9.297   0.037
87436SOL    HW164205  11.698   9.291   0.010
87436SOL    HW264206  11.561   9.232  14.851
87437SOL     OW64207   4.008   8.067  12.467
87437SOL    HW164208   4.019   7.990  12.523
87437SOL    HW264209   4.098   8.095  12.448
87438SOL     OW64210   3.531   3.916   5.295
87438SOL    HW164211   3.590   3.893   5.367
87438SOL    HW264212   3.444   3.898   5.330
87439SOL     OW64213  13.859  10.114   5.537
87439SOL    HW164214  13.863  10.034   5.591
87439SOL    HW264215  13.873  10.083   5.448
87440SOL     OW64216   8.401   1.133   3.058
87440SOL    HW164217   8.431   1.077   3.129
87440SOL    HW264218   8.317   1.094   3.031
87441SOL     OW64219   0.294  13.849   8.027
87441SOL    HW164220   0.314  13.941   8.012
87441SOL    HW264221   0.239  13.824   7.953
87442SOL     OW64222  10.501   5.592   9.555
87442SOL    HW164223  10.434   5.532   9.585
87442SOL    HW264224  10.480   5.675   9.597
87443SOL     OW64225   7.161   4.255   7.059
87443SOL    HW164226   7.197   4.168   7.040
87443SOL    HW264227   7.154   4.297   6.974
87444SOL     OW64228   4.506   2.580   6.648
87444SOL    HW164229   4.478   2.546   6.733
87444SOL    HW264230   4.584   2.529   6.626
87445SOL     OW64231   8.830   0.089   3.407
87445SOL    HW164232   8.835   0.031   3.331
87445SOL    HW264233   8.907   0.066   3.460
87446SOL     OW64234   9.298  13.943   2.113
87446SOL    HW164235   9.341  13.989   2.041
87446SOL    HW264236   9.369  13.918   2.172
87447SOL     OW64237   1.183   9.060   6.981
87447SOL    HW164238   1.140   8.987   6.937
87447SOL    HW264239   1.192   9.127   6.914
87448SOL     OW64240   6.176  14.544   4.786
87448SOL    HW164241   6.192  14.506   4.699
87448SOL    HW264242   6.081  14.538   4.796
87449SOL     OW64243  11.539   0.961  12.277
87449SOL    HW164244  11.511   1.035  12.224
87449SOL    HW264245  11.522   0.884  12.222
87450SOL     OW64246   7.472   6.718   1.710
87450SOL    HW164247   7.433   6.650   1.654
87450SOL    HW264248   7.397   6.770   1.739
87451SOL     OW64249   1.357   0.378  11.227
87451SOL    HW164250   1.396   0.444  11.169
87451SOL    HW264251   1.419   0.306  11.226
87452SOL     OW64252   1.321   0.716  12.776
87452SOL    HW164253   1.396   0.657  12.787
87452SOL    HW264254   1.356   0.792  12.730
87453SOL     OW64255  13.576  11.558   5.293
87453SOL    HW164256  13.511  11.496   5.326
87453SOL    HW264257  13.637  11.504   5.243
87454SOL     OW64258   4.493  10.077   1.651
87454SOL    HW164259   4.451  10.067   1.736
87454SOL    HW264260   4.421  10.075   1.588
87455SOL     OW64261  11.998   0.726   3.242
87455SOL    HW164262  11.967   0.802   3.193
87455SOL    HW264263  12.093   0.729   3.232
87456SOL     OW64264  12.617   3.787  13.995
87456SOL    HW164265  12.711   3.778  13.981
87456SOL    HW264266  12.597   3.724  14.064
87457SOL     OW64267   7.282  10.891   9.779
87457SOL    HW164268   7.360  10.841   9.804
87457SOL    HW264269   7.305  10.930   9.695
87458SOL     OW64270   1.608  10.208  12.154
87458SOL    HW164271   1.523  10.165  12.160
87458SOL    HW264272   1.672  10.139  12.169
87459SOL     OW64273  10.576   0.085   3.512
87459SOL    HW164274  10.655   0.128   3.478
87459SOL    HW264275  10.609   0.009   3.559
87460SOL     OW64276  10.481   4.714  14.591
87460SOL    HW164277  10.419   4.720  14.519
87460SOL    HW264278  10.432   4.671  14.661
87461SOL     OW64279  14.610   3.172   2.102
87461SOL    HW164280  14.675   3.135   2.161
87461SOL    HW264281  14.566   3.240   2.153
87462SOL     OW64282  11.337   7.220   3.921
87462SOL    HW164283  11.376   7.242   3.836
87462SOL    HW264284  11.260   7.167   3.900
87463SOL     OW64285   3.430   0.891   1.797
87463SOL    HW164286   3.411   0.985   1.797
87463SOL    HW264287   3.360   0.853   1.744
87464SOL     OW64288  11.440  11.680  13.124
87464SOL    HW164289  11.443  11.729  13.042
87464SOL    HW264290  11.426  11.589  13.096
87465SOL     OW64291   5.396   9.219   6.920
87465SOL    HW164292   5.346   9.286   6.874
87465SOL    HW264293   5.332   9.175   6.975
87466SOL     OW64294   1.242  14.711   0.611
87466SOL    HW164295   1.155  14.692   0.645
87466SOL    HW264296   1.293  14.734   0.688
87467SOL     OW64297   6.823  13.651   5.757
87467SOL    HW164298   6.728  13.641   5.764
87467SOL    HW264299   6.841  13.737   5.795
87468SOL     OW64300  12.100  10.579  12.013
87468SOL    HW164301  12.167  10.605  12.077
87468SOL    HW264302  12.052  10.509  12.057
87469SOL     OW64303   3.563   1.358  12.524
87469SOL    HW164304   3.596   1.290  12.467
87469SOL    HW264305   3.635   1.378  12.583
87470SOL     OW64306  10.532  11.014  11.398
87470SOL    HW164307  10.489  11.093  11.364
87470SOL    HW264308  10.523  11.021  11.493
87471SOL     OW64309  11.922   9.725  12.325
87471SOL    HW164310  11.939   9.808  12.280
87471SOL    HW264311  11.930   9.747  12.418
87472SOL     OW64312   4.586   6.736  12.221
87472SOL    HW164313   4.579   6.814  12.276
87472SOL    HW264314   4.538   6.758  12.141
87473SOL     OW64315   3.131   0.462  13.777
87473SOL    HW164316   3.096   0.384  13.735
87473SOL    HW264317   3.223   0.465  13.750
87474SOL     OW64318   9.159   8.200  12.047
87474SOL    HW164319   9.213   8.121  12.046
87474SOL    HW264320   9.190   8.250  12.123
87475SOL     OW64321   5.251  11.065   6.952
87475SOL    HW164322   5.326  11.090   7.006
87475SOL    HW264323   5.253  11.128   6.880
87476SOL     OW64324   8.586   1.968  12.861
87476SOL    HW164325   8.649   1.981  12.933
87476SOL    HW264326   8.610   1.884  12.824
87477SOL     OW64327   3.165   7.585  12.198
87477SOL    HW164328   3.126   7.647  12.136
87477SOL    HW264329   3.245   7.555  12.156
87478SOL     OW64330   9.865   7.451   1.450
87478SOL    HW164331   9.883   7.385   1.517
87478SOL    HW264332   9.774   7.478   1.468
87479SOL     OW64333   7.705  11.261   6.682
87479SOL    HW164334   7.782  11.221   6.723
87479SOL    HW264335   7.683  11.203   6.610
87480SOL     OW64336  13.122   9.351   6.909
87480SOL    HW164337  13.150   9.438   6.938
87480SOL    HW264338  13.083   9.312   6.987
87481SOL     OW64339   8.072   3.818   7.378
87481SOL    HW164340   8.037   3.848   7.294
87481SOL    HW264341   8.100   3.898   7.422
87482SOL     OW64342   7.547   1.705  10.012
87482SOL    HW164343   7.530   1.677   9.922
87482SOL    HW264344   7.461   1.726  10.048
87483SOL     OW64345  13.819   9.152   3.316
87483SOL    HW164346  13.832   9.058   3.305
87483SOL    HW264347  13.797   9.162   3.409
87484SOL     OW64348   5.255   9.292  10.038
87484SOL    HW164349   5.159   9.284  10.037
87484SOL    HW264350   5.280   9.280   9.947
87485SOL     OW64351   8.475  12.795   8.067
87485SOL    HW164352   8.554  12.849   8.067
87485SOL    HW264353   8.491  12.728   8.133
87486SOL     OW64354  11.185   5.219  14.300
87486SOL    HW164355  11.223   5.145  14.253
87486SOL    HW264356  11.094   5.222  14.271
87487SOL     OW64357   1.215   7.443   0.416
87487SOL    HW164358   1.178   7.374   0.361
87487SOL    HW264359   1.210   7.522   0.362
87488SOL     OW64360   9.958   0.912   6.948
87488SOL    HW164361   9.888   0.851   6.971
87488SOL    HW264362  10.038   0.870   6.980
87489SOL     OW64363  10.312   1.482  10.182
87489SOL    HW164364  10.345   1.503  10.095
87489SOL    HW264365  10.376   1.520  10.242
87490SOL     OW64366  14.761  13.312   0.500
87490SOL    HW164367  14.671  13.281   0.516
87490SOL    HW264368  14.753  13.367   0.422
87491SOL     OW64369   3.312   4.888  12.549
87491SOL    HW164370   3.271   4.972  12.529
87491SOL    HW264371   3.239   4.827  12.559
87492SOL     OW64372  10.942   9.896   6.881
87492SOL    HW164373  10.864   9.933   6.923
87492SOL    HW264374  11.001   9.877   6.953
87493SOL     OW64375  11.706  14.281  10.575
87493SOL    HW164376  11.694  14.340  10.650
87493SOL    HW264377  11.773  14.325  10.522
87494SOL     OW64378  12.276   1.529   6.839
87494SOL    HW164379  12.213   1.475   6.791
87494SOL    HW264380  12.347   1.468   6.863
87495SOL     OW64381   7.369  13.050  10.430
87495SOL    HW164382   7.443  13.032  10.372
87495SOL    HW264383   7.333  12.964  10.452
87496SOL     OW64384   8.964   1.684  13.573
87496SOL    HW164385   8.965   1.589  13.562
87496SOL    HW264386   8.872   1.708  13.562
87497SOL     OW64387  14.266  13.369   5.688
87497SOL    HW164388  14.236  13.304   5.752
87497SOL    HW264389  14.200  13.366   5.618
87498SOL     OW64390   0.900  11.927   2.011
87498SOL    HW164391   0.849  11.909   2.090
87498SOL    HW264392   0.883  11.852   1.954
87499SOL     OW64393  11.370   3.950  14.309
87499SOL    HW164394  11.297   3.943  14.247
87499SOL    HW264395  11.327   3.953  14.395
87500SOL     OW64396   9.060   9.329  10.800
87500SOL    HW164397   9.070   9.253  10.858
87500SOL    HW264398   9.149   9.364  10.792
87501SOL     OW64399   0.219  12.729   5.431
87501SOL    HW164400   0.270  12.804   5.461
87501SOL    HW264401   0.157  12.712   5.502
87502SOL     OW64402   2.341  13.597   6.108
87502SOL    HW164403   2.397  13.527   6.142
87502SOL    HW264404   2.381  13.678   6.141
87503SOL     OW64405   3.294   6.167   8.410
87503SOL    HW164406   3.238   6.229   8.457
87503SOL    HW264407   3.372   6.217   8.387
87504SOL     OW64408  11.261  11.733  14.063
87504SOL    HW164409  11.350  11.760  14.038
87504SOL    HW264410  11.270  11.703  14.153
87505SOL     OW64411   6.029   5.813   3.479
87505SOL    HW164412   5.972   5.802   3.403
87505SOL    HW264413   6.118   5.799   3.445
87506SOL     OW64414  13.255  13.855   2.831
87506SOL    HW164415  13.196  13.813   2.769
87506SOL    HW264416  13.337  13.865   2.784
87507SOL     OW64417   5.009   4.819  14.391
87507SOL    HW164418   5.092   4.790  14.428
87507SOL    HW264419   4.958   4.849  14.467
87508SOL     OW64420   4.620   5.921  11.736
87508SOL    HW164421   4.528   5.922  11.765
87508SOL    HW264422   4.654   5.838  11.769
87509SOL     OW64423   6.349   7.418   4.246
87509SOL    HW164424   6.289   7.344   4.262
87509SOL    HW264425   6.310   7.465   4.172
87510SOL     OW64426  10.889   4.687   1.202
87510SOL    HW164427  10.838   4.606   1.203
87510SOL    HW264428  10.945   4.681   1.279
87511SOL     OW64429   8.267   9.581   6.649
87511SOL    HW164430   8.257   9.578   6.554
87511SOL    HW264431   8.361   9.592   6.663
87512SOL     OW64432  10.676   9.115   7.087
87512SOL    HW164433  10.667   9.177   7.015
87512SOL    HW264434  10.614   9.045   7.066
87513SOL     OW64435   0.257  10.858   7.440
87513SOL    HW164436   0.243  10.865   7.534
87513SOL    HW264437   0.338  10.906   7.423
87514SOL     OW64438   0.028  13.702  12.948
87514SOL    HW164439   0.079  13.743  13.018
87514SOL    HW264440  14.805  13.722  12.969
87515SOL     OW64441   0.353   5.637  12.273
87515SOL    HW164442   0.335   5.712  12.215
87515SOL    HW264443   0.364   5.677  12.360
87516SOL     OW64444  11.071   2.328   4.528
87516SOL    HW164445  11.026   2.251   4.492
87516SOL    HW264446  11.006   2.368   4.586
87517SOL     OW64447  12.033  10.227   1.181
87517SOL    HW164448  12.064  10.177   1.105
87517SOL    HW264449  11.994  10.162   1.239
87518SOL     OW64450  12.083  14.733  12.977
87518SOL    HW164451  12.103  14.741  13.071
87518SOL    HW264452  12.053  14.643  12.967
87519SOL     OW64453   1.858  10.547   3.334
87519SOL    HW164454   1.850  10.564   3.240
87519SOL    HW264455   1.851  10.451   3.341
87520SOL     OW64456   4.214  11.068  12.827
87520SOL    HW164457   4.237  11.143  12.883
87520SOL    HW264458   4.149  11.020  12.878
87521SOL     OW64459   5.819   6.746   4.764
87521SOL    HW164460   5.825   6.803   4.687
87521SOL    HW264461   5.880   6.785   4.826
87522SOL     OW64462   5.216   5.498   5.080
87522SOL    HW164463   5.293   5.469   5.130
87522SOL    HW264464   5.250   5.563   5.018
87523SOL     OW64465   3.129   3.621  12.882
87523SOL    HW164466   3.085   3.561  12.941
87523SOL    HW264467   3.089   3.606  12.797
87524SOL     OW64468   8.466   0.928  10.015
87524SOL    HW164469   8.562   0.936  10.010
87524SOL    HW264470   8.439   0.995  10.077
87525SOL     OW64471  11.169   4.052   8.992
87525SOL    HW164472  11.258   4.017   9.001
87525SOL    HW264473  11.180   4.147   8.991
87526SOL     OW64474  11.754   2.679  14.607
87526SOL    HW164475  11.777   2.697  14.699
87526SOL    HW264476  11.806   2.601  14.585
87527SOL     OW64477   9.859   8.121   1.470
87527SOL    HW164478   9.764   8.129   1.462
87527SOL    HW264479   9.877   8.030   1.446
87528SOL     OW64480   3.448   9.258  11.535
87528SOL    HW164481   3.393   9.318  11.587
87528SOL    HW264482   3.473   9.190  11.596
87529SOL     OW64483  14.059   5.351   3.836
87529SOL    HW164484  13.996   5.328   3.904
87529SOL    HW264485  14.144   5.330   3.875
87530SOL     OW64486  11.445   5.271   1.459
87530SOL    HW164487  11.455   5.333   1.531
87530SOL    HW264488  11.443   5.186   1.501
87531SOL     OW64489  13.340   6.000  10.770
87531SOL    HW164490  13.258   6.049  10.781
87531SOL    HW264491  13.314   5.908  10.777
87532SOL     OW64492   6.067   3.012  10.028
87532SOL    HW164493   6.035   2.947  10.091
87532SOL    HW264494   5.995   3.022   9.966
87533SOL     OW64495   7.752   4.332  10.535
87533SOL    HW164496   7.689   4.277  10.582
87533SOL    HW264497   7.698   4.380  10.471
87534SOL     OW64498   6.148   5.136   6.731
87534SOL    HW164499   6.190   5.095   6.656
87534SOL    HW264500   6.197   5.103   6.807
87535SOL     OW64501  13.559   1.802   9.276
87535SOL    HW164502  13.578   1.882   9.327
87535SOL    HW264503  13.485   1.762   9.322
87536SOL     OW64504   7.316   1.915  12.251
87536SOL    HW164505   7.259   1.958  12.188
87536SOL    HW264506   7.264   1.842  12.285
87537SOL     OW64507  12.722  10.186   3.681
87537SOL    HW164508  12.760  10.104   3.650
87537SOL    HW264509  12.703  10.235   3.601
87538SOL     OW64510   2.258   0.760   3.073
87538SOL    HW164511   2.281   0.689   3.012
87538SOL    HW264512   2.319   0.749   3.146
87539SOL     OW64513   0.561  10.247   9.585
87539SOL    HW164514   0.636  10.268   9.641
87539SOL    HW264515   0.513  10.180   9.634
87540SOL     OW64516  11.440  11.816   5.456
87540SOL    HW164517  11.418  11.889   5.514
87540SOL    HW264518  11.524  11.840   5.417
87541SOL     OW64519   1.771   4.306  12.004
87541SOL    HW164520   1.803   4.311  12.094
87541SOL    HW264521   1.849   4.316  11.950
87542SOL     OW64522  14.498   9.997  14.716
87542SOL    HW164523  14.551   9.918  14.712
87542SOL    HW264524  14.455  10.003  14.631
87543SOL     OW64525  13.047   5.985   8.954
87543SOL    HW164526  13.078   6.037   8.880
87543SOL    HW264527  12.995   6.046   9.006
87544SOL     OW64528   5.556   2.959  12.464
87544SOL    HW164529   5.475   3.003  12.490
87544SOL    HW264530   5.620   2.986  12.529
87545SOL     OW64531   8.179   0.064  13.242
87545SOL    HW164532   8.165   0.159  13.237
87545SOL    HW264533   8.098   0.026  13.209
87546SOL     OW64534  13.235  12.573  14.226
87546SOL    HW164535  13.277  12.507  14.172
87546SOL    HW264536  13.157  12.599  14.177
87547SOL     OW64537   1.593  11.075   4.230
87547SOL    HW164538   1.636  10.997   4.266
87547SOL    HW264539   1.503  11.047   4.214
87548SOL     OW64540   7.776  12.915   2.166
87548SOL    HW164541   7.776  12.819   2.166
87548SOL    HW264542   7.689  12.939   2.196
87549SOL     OW64543  14.865  12.959  14.280
87549SOL    HW164544   0.028  12.876  14.243
87549SOL    HW264545   0.052  13.025  14.238
87550SOL     OW64546   6.235  11.636   6.253
87550SOL    HW164547   6.322  11.642   6.214
87550SOL    HW264548   6.236  11.701   6.323
87551SOL     OW64549   2.378  10.137   5.578
87551SOL    HW164550   2.305  10.199   5.574
87551SOL    HW264551   2.436  10.172   5.645
87552SOL     OW64552   5.794   2.717   6.235
87552SOL    HW164553   5.881   2.710   6.196
87552SOL    HW264554   5.753   2.791   6.191
87553SOL     OW64555  11.047  13.427   0.472
87553SOL    HW164556  11.037  13.522   0.466
87553SOL    HW264557  11.119  13.415   0.535
87554SOL     OW64558   3.667  12.995   3.328
87554SOL    HW164559   3.714  12.941   3.391
87554SOL    HW264560   3.734  13.052   3.290
87555SOL     OW64561   1.108  13.162   3.099
87555SOL    HW164562   1.060  13.238   3.069
87555SOL    HW264563   1.185  13.198   3.143
87556SOL     OW64564   9.022  13.997   4.441
87556SOL    HW164565   8.984  14.066   4.495
87556SOL    HW264566   9.001  14.023   4.351
87557SOL     OW64567   6.580   2.581   1.484
87557SOL    HW164568   6.626   2.666   1.478
87557SOL    HW264569   6.601   2.537   1.401
87558SOL     OW64570   2.883   4.879  10.860
87558SOL    HW164571   2.839   4.800  10.891
87558SOL    HW264572   2.831   4.908  10.785
87559SOL     OW64573   7.605  13.744   2.761
87559SOL    HW164574   7.651  13.738   2.678
87559SOL    HW264575   7.591  13.838   2.773
87560SOL     OW64576   6.432  11.739   4.663
87560SOL    HW164577   6.343  11.763   4.687
87560SOL    HW264578   6.479  11.733   4.747
87561SOL     OW64579   1.910  13.513   3.474
87561SOL    HW164580   1.976  13.582   3.476
87561SOL    HW264581   1.889  13.503   3.381
87562SOL     OW64582   8.305   4.754   2.629
87562SOL    HW164583   8.259   4.829   2.666
87562SOL    HW264584   8.325   4.780   2.539
87563SOL     OW64585   3.405  10.303  10.127
87563SOL    HW164586   3.445  10.217  10.136
87563SOL    HW264587   3.388  10.313  10.034
87564SOL     OW64588   0.828   9.978   5.466
87564SOL    HW164589   0.824   9.883   5.477
87564SOL    HW264590   0.736  10.005   5.463
87565SOL     OW64591  14.761   1.068   8.816
87565SOL    HW164592  14.782   1.075   8.910
87565SOL    HW264593  14.845   1.082   8.772
87566SOL     OW64594   4.529   4.077   6.372
87566SOL    HW164595   4.603   4.137   6.382
87566SOL    HW264596   4.555   4.018   6.301
87567SOL     OW64597   4.849   3.256   8.486
87567SOL    HW164598   4.906   3.181   8.473
87567SOL    HW264599   4.879   3.296   8.567
87568SOL     OW64600   7.521  10.319  13.871
87568SOL    HW164601   7.509  10.234  13.829
87568SOL    HW264602   7.470  10.313  13.952
87569SOL     OW64603   5.385   1.603  10.260
87569SOL    HW164604   5.298   1.586  10.225
87569SOL    HW264605   5.369   1.649  10.343
87570SOL     OW64606  14.305  11.000  10.810
87570SOL    HW164607  14.334  10.918  10.850
87570SOL    HW264608  14.295  10.978  10.717
87571SOL     OW64609   2.445  13.768  14.181
87571SOL    HW164610   2.374  13.730  14.130
87571SOL    HW264611   2.408  13.847  14.219
87572SOL     OW64612   2.267  13.385  11.324
87572SOL    HW164613   2.201  13.331  11.280
87572SOL    HW264614   2.218  13.432  11.392
87573SOL     OW64615   6.138   8.865  14.176
87573SOL    HW164616   6.125   8.959  14.188
87573SOL    HW264617   6.223   8.847  14.216
87574SOL     OW64618   4.792  10.695  12.325
87574SOL    HW164619   4.774  10.768  12.266
87574SOL    HW264620   4.864  10.726  12.380
87575SOL     OW64621   1.653   1.522   7.525
87575SOL    HW164622   1.588   1.558   7.464
87575SOL    HW264623   1.622   1.433   7.541
87576SOL     OW64624  10.130  12.533   3.609
87576SOL    HW164625  10.170  12.618   3.589
87576SOL    HW264626  10.105  12.540   3.701
87577SOL     OW64627   4.029   0.980  13.127
87577SOL    HW164628   3.956   0.975  13.188
87577SOL    HW264629   3.988   0.969  13.041
87578SOL     OW64630   8.887  11.569   2.685
87578SOL    HW164631   8.825  11.520   2.630
87578SOL    HW264632   8.841  11.580   2.768
87579SOL     OW64633  10.344  13.088   6.949
87579SOL    HW164634  10.286  13.056   6.880
87579SOL    HW264635  10.402  13.150   6.904
87580SOL     OW64636   6.912   7.835   6.234
87580SOL    HW164637   6.904   7.783   6.154
87580SOL    HW264638   6.842   7.901   6.227
87581SOL     OW64639   4.394   6.856   2.851
87581SOL    HW164640   4.441   6.774   2.861
87581SOL    HW264641   4.462   6.919   2.825
87582SOL     OW64642  10.528  14.825  12.835
87582SOL    HW164643  10.462  14.858  12.775
87582SOL    HW264644  10.481  14.764  12.893
87583SOL     OW64645  11.137   2.191  13.907
87583SOL    HW164646  11.067   2.150  13.958
87583SOL    HW264647  11.103   2.278  13.885
87584SOL     OW64648   6.194  11.593   8.433
87584SOL    HW164649   6.152  11.590   8.347
87584SOL    HW264650   6.161  11.515   8.479
87585SOL     OW64651   7.693  10.932   0.080
87585SOL    HW164652   7.701  10.955  14.855
87585SOL    HW264653   7.672  11.014   0.124
87586SOL     OW64654   0.650   7.563  10.694
87586SOL    HW164655   0.621   7.653  10.680
87586SOL    HW264656   0.683   7.563  10.784
87587SOL     OW64657   0.755   4.629  12.265
87587SOL    HW164658   0.687   4.685  12.303
87587SOL    HW264659   0.741   4.634  12.171
87588SOL     OW64660   5.980  11.528  14.587
87588SOL    HW164661   6.063  11.481  14.580
87588SOL    HW264662   5.913  11.460  14.589
87589SOL     OW64663   9.817   1.153   0.124
87589SOL    HW164664   9.775   1.147   0.210
87589SOL    HW264665   9.810   1.064   0.088
87590SOL     OW64666   7.095   4.472   7.664
87590SOL    HW164667   7.088   4.552   7.716
87590SOL    HW264668   7.173   4.485   7.610
87591SOL     OW64669   0.727   4.219   4.437
87591SOL    HW164670   0.651   4.272   4.458
87591SOL    HW264671   0.742   4.232   4.344
87592SOL     OW64672   7.904   9.235   1.969
87592SOL    HW164673   7.828   9.276   2.010
87592SOL    HW264674   7.967   9.224   2.040
87593SOL     OW64675  11.187  12.750   6.662
87593SOL    HW164676  11.150  12.754   6.573
87593SOL    HW264677  11.249  12.823   6.665
87594SOL     OW64678   8.997   4.120   1.644
87594SOL    HW164679   9.048   4.050   1.602
87594SOL    HW264680   9.058   4.193   1.652
87595SOL     OW64681  10.185   6.075  10.804
87595SOL    HW164682  10.268   6.110  10.837
87595SOL    HW264683  10.126   6.151  10.800
87596SOL     OW64684   9.297   4.450   2.238
87596SOL    HW164685   9.276   4.526   2.292
87596SOL    HW264686   9.289   4.375   2.297
87597SOL     OW64687   6.749   6.127   0.362
87597SOL    HW164688   6.722   6.208   0.406
87597SOL    HW264689   6.797   6.156   0.284
87598SOL     OW64690   0.392   1.442  11.859
87598SOL    HW164691   0.463   1.432  11.923
87598SOL    HW264692   0.430   1.413  11.776
87599SOL     OW64693   1.229   7.402   4.170
87599SOL    HW164694   1.194   7.341   4.234
87599SOL    HW264695   1.266   7.473   4.222
87600SOL     OW64696   3.762   2.921   1.312
87600SOL    HW164697   3.818   2.935   1.388
87600SOL    HW264698   3.675   2.949   1.341
87601SOL     OW64699   1.706   9.364  12.163
87601SOL    HW164700   1.704   9.437  12.101
87601SOL    HW264701   1.761   9.299  12.121
87602SOL     OW64702  11.792   3.900   0.307
87602SOL    HW164703  11.794   3.857   0.392
87602SOL    HW264704  11.832   3.836   0.247
87603SOL     OW64705   0.523   0.028   1.895
87603SOL    HW164706   0.471  14.816   1.888
87603SOL    HW264707   0.477   0.092   1.840
87604SOL     OW64708   4.973  11.421   8.810
87604SOL    HW164709   4.964  11.326   8.823
87604SOL    HW264710   4.908  11.459   8.869
87605SOL     OW64711   8.135   5.683   8.966
87605SOL    HW164712   8.102   5.772   8.974
87605SOL    HW264713   8.106   5.639   9.046
87606SOL     OW64714   0.777   4.315   6.832
87606SOL    HW164715   0.685   4.339   6.819
87606SOL    HW264716   0.783   4.292   6.925
87607SOL     OW64717   3.736  10.284   6.827
87607SOL    HW164718   3.764  10.321   6.743
87607SOL    HW264719   3.646  10.314   6.838
87608SOL     OW64720   8.954   9.793   3.641
87608SOL    HW164721   8.923   9.821   3.727
87608SOL    HW264722   9.015   9.861   3.613
87609SOL     OW64723   1.711   6.512   4.275
87609SOL    HW164724   1.695   6.521   4.181
87609SOL    HW264725   1.793   6.558   4.290
87610SOL     OW64726   5.958  14.307  11.363
87610SOL    HW164727   5.883  14.253  11.338
87610SOL    HW264728   5.920  14.379  11.414
87611SOL     OW64729   9.053   0.339   3.198
87611SOL    HW164730   8.989   0.354   3.268
87611SOL    HW264731   9.013   0.378   3.121
87612SOL     OW64732   6.767  10.944   7.959
87612SOL    HW164733   6.807  10.924   7.874
87612SOL    HW264734   6.839  10.981   8.010
87613SOL     OW64735   3.254  10.690   4.392
87613SOL    HW164736   3.323  10.755   4.378
87613SOL    HW264737   3.221  10.671   4.305
87614SOL     OW64738  13.725   5.227   5.540
87614SOL    HW164739  13.701   5.136   5.523
87614SOL    HW264740  13.761   5.227   5.628
87615SOL     OW64741  12.479   6.275   1.224
87615SOL    HW164742  12.544   6.345   1.226
87615SOL    HW264743  12.464   6.253   1.316
87616SOL     OW64744   3.183   9.171  11.074
87616SOL    HW164745   3.192   9.218  11.157
87616SOL    HW264746   3.091   9.183  11.050
87617SOL     OW64747  10.536   8.772  11.784
87617SOL    HW164748  10.559   8.802  11.873
87617SOL    HW264749  10.566   8.681  11.781
87618SOL     OW64750  10.633   2.998   7.756
87618SOL    HW164751  10.589   2.959   7.831
87618SOL    HW264752  10.601   3.088   7.753
87619SOL     OW64753  11.796   9.414   5.970
87619SOL    HW164754  11.855   9.461   6.028
87619SOL    HW264755  11.732   9.373   6.029
87620SOL     OW64756   6.530  10.473   8.910
87620SOL    HW164757   6.542  10.560   8.870
87620SOL    HW264758   6.436  10.465   8.923
87621SOL     OW64759   3.543   4.295  11.557
87621SOL    HW164760   3.496   4.270  11.477
87621SOL    HW264761   3.614   4.351  11.527
87622SOL     OW64762  11.567  12.672  13.271
87622SOL    HW164763  11.578  12.749  13.215
87622SOL    HW264764  11.489  12.693  13.324
87623SOL     OW64765   4.349   7.556   5.998
87623SOL    HW164766   4.321   7.648   5.997
87623SOL    HW264767   4.363   7.536   6.090
87624SOL     OW64768   4.771   6.579   3.114
87624SOL    HW164769   4.847   6.609   3.163
87624SOL    HW264770   4.703   6.567   3.181
87625SOL     OW64771   5.474  11.169   4.710
87625SOL    HW164772   5.381  11.182   4.692
87625SOL    HW264773   5.480  11.167   4.806
87626SOL     OW64774   2.532   2.292   0.241
87626SOL    HW164775   2.443   2.268   0.268
87626SOL    HW264776   2.554   2.230   0.172
87627SOL     OW64777   0.644   4.890   3.742
87627SOL    HW164778   0.565   4.927   3.781
87627SOL    HW264779   0.634   4.908   3.648
87628SOL     OW64780  10.583   7.926   1.336
87628SOL    HW164781  10.500   7.961   1.366
87628SOL    HW264782  10.644   7.945   1.407
87629SOL     OW64783   2.087   4.335   4.180
87629SOL    HW164784   2.010   4.294   4.142
87629SOL    HW264785   2.160   4.282   4.148
87630SOL     OW64786   3.159  12.127  11.794
87630SOL    HW164787   3.186  12.062  11.729
87630SOL    HW264788   3.210  12.106  11.872
87631SOL     OW64789   1.837   0.912   7.647
87631SOL    HW164790   1.884   0.930   7.728
87631SOL    HW264791   1.901   0.932   7.578
87632SOL     OW64792   5.410   6.752   9.235
87632SOL    HW164793   5.505   6.745   9.241
87632SOL    HW264794   5.378   6.663   9.254
87633SOL     OW64795   7.671   0.520   5.872
87633SOL    HW164796   7.718   0.498   5.792
87633SOL    HW264797   7.616   0.594   5.849
87634SOL     OW64798  10.775   0.756   9.650
87634SOL    HW164799  10.687   0.733   9.680
87634SOL    HW264800  10.780   0.851   9.659
87635SOL     OW64801   0.290  10.540   1.601
87635SOL    HW164802   0.385  10.527   1.605
87635SOL    HW264803   0.254  10.452   1.590
87636SOL     OW64804   5.905   0.322   1.106
87636SOL    HW164805   5.946   0.236   1.093
87636SOL    HW264806   5.811   0.304   1.107
87637SOL     OW64807  10.007  10.304  10.393
87637SOL    HW164808   9.921  10.328  10.427
87637SOL    HW264809   9.989  10.259  10.311
87638SOL     OW64810   6.367   3.654   7.408
87638SOL    HW164811   6.298   3.679   7.469
87638SOL    HW264812   6.361   3.718   7.337
87639SOL     OW64813   7.268   3.537  11.976
87639SOL    HW164814   7.270   3.615  12.032
87639SOL    HW264815   7.175   3.523  11.958
87640SOL     OW64816  11.090  14.840  14.481
87640SOL    HW164817  11.022  14.821  14.546
87640SOL    HW264818  11.171  14.844  14.530
87641SOL     OW64819  14.068  14.410   1.715
87641SOL    HW164820  14.113  14.326   1.715
87641SOL    HW264821  14.020  14.412   1.798
87642SOL     OW64822  14.733   3.156  12.470
87642SOL    HW164823  14.664   3.219  12.448
87642SOL    HW264824  14.730   3.149  12.565
87643SOL     OW64825   8.575   0.635  10.498
87643SOL    HW164826   8.493   0.635  10.547
87643SOL    HW264827   8.641   0.609  10.562
87644SOL     OW64828   4.198   8.084  11.896
87644SOL    HW164829   4.126   8.059  11.954
87644SOL    HW264830   4.275   8.087  11.953
87645SOL     OW64831   6.741   8.075   9.179
87645SOL    HW164832   6.797   8.000   9.160
87645SOL    HW264833   6.652   8.038   9.182
87646SOL     OW64834   8.142   3.776  12.760
87646SOL    HW164835   8.121   3.842  12.693
87646SOL    HW264836   8.216   3.813  12.808
87647SOL     OW64837  12.647   5.187   0.898
87647SOL    HW164838  12.739   5.205   0.877
87647SOL    HW264839  12.648   5.101   0.939
87648SOL     OW64840  13.621   8.465   7.840
87648SOL    HW164841  13.560   8.497   7.906
87648SOL    HW264842  13.680   8.538   7.824
87649SOL     OW64843  13.658  12.987   8.342
87649SOL    HW164844  13.622  13.055   8.284
87649SOL    HW264845  13.609  12.908   8.320
87650SOL     OW64846   6.252   9.864  14.403
87650SOL    HW164847   6.343   9.835  14.405
87650SOL    HW264848   6.217   9.840  14.489
87651SOL     OW64849   0.597   9.614   6.100
87651SOL    HW164850   0.648   9.684   6.059
87651SOL    HW264851   0.596   9.544   6.035
87652SOL     OW64852   4.265   9.142   8.951
87652SOL    HW164853   4.280   9.081   9.023
87652SOL    HW264854   4.288   9.093   8.873
87653SOL     OW64855   3.176   6.047   9.285
87653SOL    HW164856   3.244   5.988   9.251
87653SOL    HW264857   3.140   6.089   9.207
87654SOL     OW64858   7.436   7.614   8.821
87654SOL    HW164859   7.487   7.551   8.771
87654SOL    HW264860   7.497   7.686   8.839
87655SOL     OW64861   2.252   1.645   0.532
87655SOL    HW164862   2.319   1.706   0.501
87655SOL    HW264863   2.301   1.571   0.566
87656SOL     OW64864  12.691   2.130   9.849
87656SOL    HW164865  12.754   2.070   9.889
87656SOL    HW264866  12.674   2.195   9.918
87657SOL     OW64867   2.787  11.494  11.496
87657SOL    HW164868   2.878  11.490  11.466
87657SOL    HW264869   2.742  11.427  11.446
87658SOL     OW64870  12.358  14.526   8.723
87658SOL    HW164871  12.329  14.481   8.802
87658SOL    HW264872  12.358  14.459   8.655
87659SOL     OW64873   9.803   5.876   8.273
87659SOL    HW164874   9.789   5.926   8.193
87659SOL    HW264875   9.898   5.875   8.284
87660SOL     OW64876  10.227   3.896   8.864
87660SOL    HW164877  10.168   3.958   8.907
87660SOL    HW264878  10.173   3.853   8.798
87661SOL     OW64879   3.512   0.761   8.002
87661SOL    HW164880   3.605   0.780   7.994
87661SOL    HW264881   3.470   0.823   7.942
87662SOL     OW64882   7.490   6.477   8.270
87662SOL    HW164883   7.520   6.430   8.193
87662SOL    HW264884   7.499   6.414   8.342
87663SOL     OW64885   8.629   1.998   3.093
87663SOL    HW164886   8.704   2.053   3.116
87663SOL    HW264887   8.560   2.024   3.154
87664SOL     OW64888   1.411  10.181   5.635
87664SOL    HW164889   1.491  10.226   5.661
87664SOL    HW264890   1.411  10.099   5.685
87665SOL     OW64891   1.928   2.002   7.415
87665SOL    HW164892   1.937   2.033   7.505
87665SOL    HW264893   1.879   2.071   7.370
87666SOL     OW64894   2.953   4.200   6.020
87666SOL    HW164895   2.879   4.261   6.015
87666SOL    HW264896   2.968   4.174   5.929
87667SOL     OW64897   2.442  11.849  13.941
87667SOL    HW164898   2.521  11.899  13.961
87667SOL    HW264899   2.468  11.758  13.947
87668SOL     OW64900   0.437  11.893   7.878
87668SOL    HW164901   0.513  11.841   7.904
87668SOL    HW264902   0.361  11.842   7.908
87669SOL     OW64903  14.422  14.206   3.757
87669SOL    HW164904  14.478  14.265   3.707
87669SOL    HW264905  14.343  14.197   3.704
87670SOL     OW64906   2.806   3.703  13.943
87670SOL    HW164907   2.829   3.769  14.008
87670SOL    HW264908   2.850   3.733  13.863
87671SOL     OW64909   5.105   9.430   2.462
87671SOL    HW164910   5.139   9.512   2.497
87671SOL    HW264911   5.051   9.394   2.532
87672SOL     OW64912   4.480  13.964  13.155
87672SOL    HW164913   4.402  13.909  13.158
87672SOL    HW264914   4.501  13.980  13.247
87673SOL     OW64915   7.141   6.805   1.193
87673SOL    HW164916   7.188   6.863   1.254
87673SOL    HW264917   7.114   6.863   1.122
87674SOL     OW64918  11.013   6.711   0.219
87674SOL    HW164919  11.015   6.644   0.287
87674SOL    HW264920  11.055   6.787   0.259
87675SOL     OW64921   7.425   6.569  10.395
87675SOL    HW164922   7.444   6.581  10.488
87675SOL    HW264923   7.349   6.626  10.379
87676SOL     OW64924   1.967   1.759  13.107
87676SOL    HW164925   1.932   1.840  13.145
87676SOL    HW264926   2.007   1.787  13.025
87677SOL     OW64927  10.069   7.595   2.008
87677SOL    HW164928  10.159   7.564   2.011
87677SOL    HW264929  10.059   7.645   2.089
87678SOL     OW64930   2.143  14.680  11.244
87678SOL    HW164931   2.132  14.765  11.201
87678SOL    HW264932   2.069  14.628  11.214
87679SOL     OW64933   1.075  12.905   3.153
87679SOL    HW164934   1.101  12.997   3.149
87679SOL    HW264935   1.018  12.900   3.230
87680SOL     OW64936  14.772  10.976   4.032
87680SOL    HW164937  14.707  10.994   3.964
87680SOL    HW264938  14.723  10.979   4.114
87681SOL     OW64939   7.202   5.438  11.682
87681SOL    HW164940   7.272   5.380  11.652
87681SOL    HW264941   7.207   5.435  11.777
87682SOL     OW64942   4.354   1.238   0.120
87682SOL    HW164943   4.334   1.148   0.144
87682SOL    HW264944   4.389   1.231   0.031
87683SOL     OW64945   2.775  14.517   8.489
87683SOL    HW164946   2.704  14.492   8.548
87683SOL    HW264947   2.732  14.527   8.404
87684SOL     OW64948  12.184   1.886   9.371
87684SOL    HW164949  12.216   1.887   9.281
87684SOL    HW264950  12.194   1.976   9.401
87685SOL     OW64951  12.699  14.168   7.998
87685SOL    HW164952  12.789  14.133   7.997
87685SOL    HW264953  12.708  14.256   7.962
87686SOL     OW64954   9.211  10.230   7.869
87686SOL    HW164955   9.240  10.292   7.936
87686SOL    HW264956   9.279  10.235   7.801
87687SOL     OW64957   0.775   5.498   5.299
87687SOL    HW164958   0.744   5.542   5.220
87687SOL    HW264959   0.834   5.429   5.267
87688SOL     OW64960   1.682   6.216   5.939
87688SOL    HW164961   1.721   6.134   5.968
87688SOL    HW264962   1.601   6.190   5.894
87689SOL     OW64963   0.397   6.334   4.432
87689SOL    HW164964   0.333   6.365   4.496
87689SOL    HW264965   0.462   6.286   4.483
87690SOL     OW64966  10.080   5.447   2.466
87690SOL    HW164967  10.040   5.386   2.404
87690SOL    HW264968  10.163   5.472   2.424
87691SOL     OW64969   8.168   2.851   2.331
87691SOL    HW164970   8.125   2.912   2.271
87691SOL    HW264971   8.158   2.892   2.417
87692SOL     OW64972   8.158   6.081   9.661
87692SOL    HW164973   8.081   6.023   9.654
87692SOL    HW264974   8.201   6.053   9.742
87693SOL     OW64975   4.348   6.127   7.450
87693SOL    HW164976   4.351   6.031   7.452
87693SOL    HW264977   4.424   6.152   7.398
87694SOL     OW64978  10.100  12.546   1.499
87694SOL    HW164979  10.152  12.486   1.445
87694SOL    HW264980  10.142  12.631   1.487
87695SOL     OW64981   3.314   0.969   8.360
87695SOL    HW164982   3.251   1.032   8.325
87695SOL    HW264983   3.336   1.003   8.447
87696SOL     OW64984  10.062  12.906  14.286
87696SOL    HW164985  10.008  12.886  14.210
87696SOL    HW264986  10.111  12.984  14.261
87697SOL     OW64987  10.235   6.270   1.966
87697SOL    HW164988  10.330   6.283   1.966
87697SOL    HW264989  10.211   6.264   1.874
87698SOL     OW64990   1.628  10.992   7.871
87698SOL    HW164991   1.700  11.024   7.818
87698SOL    HW264992   1.584  11.071   7.903
87699SOL     OW64993  13.298  13.387  10.051
87699SOL    HW164994  13.283  13.480  10.063
87699SOL    HW264995  13.212  13.350  10.032
87700SOL     OW64996   8.382  13.496   5.623
87700SOL    HW164997   8.433  13.550   5.684
87700SOL    HW264998   8.328  13.560   5.576
87701SOL     OW64999  13.972   8.992   8.426
87701SOL    HW165000  13.958   9.059   8.493
87701SOL    HW265001  14.064   8.968   8.435
87702SOL     OW65002   1.383   3.547   9.649
87702SOL    HW165003   1.413   3.561   9.739
87702SOL    HW265004   1.336   3.627   9.626
87703SOL     OW65005   0.297  12.069   6.406
87703SOL    HW165006   0.208  12.035   6.409
87703SOL    HW265007   0.329  12.045   6.319
87704SOL     OW65008   5.612  11.108   3.611
87704SOL    HW165009   5.607  11.019   3.645
87704SOL    HW265010   5.702  11.136   3.631
87705SOL     OW65011   6.803   5.343   9.556
87705SOL    HW165012   6.731   5.315   9.501
87705SOL    HW265013   6.766   5.347   9.644
87706SOL     OW65014  14.468  13.027   4.205
87706SOL    HW165015  14.418  12.945   4.200
87706SOL    HW265016  14.533  13.011   4.273
87707SOL     OW65017  10.551   0.167  14.617
87707SOL    HW165018  10.582   0.129  14.699
87707SOL    HW265019  10.557   0.096  14.553
87708SOL     OW65020  13.227   4.040   7.498
87708SOL    HW165021  13.290   4.034   7.427
87708SOL    HW265022  13.154   3.985   7.470
87709SOL     OW65023   8.496   0.191  12.555
87709SOL    HW165024   8.535   0.176  12.468
87709SOL    HW265025   8.567   0.232  12.605
87710SOL     OW65026   5.721   6.237   6.036
87710SOL    HW165027   5.803   6.191   6.052
87710SOL    HW265028   5.654   6.182   6.076
87711SOL     OW65029  12.625   8.195   7.742
87711SOL    HW165030  12.593   8.109   7.713
87711SOL    HW265031  12.650   8.240   7.661
87712SOL     OW65032  11.818  12.238   4.467
87712SOL    HW165033  11.777  12.321   4.493
87712SOL    HW265034  11.746  12.187   4.431
87713SOL     OW65035   3.916  11.098  11.280
87713SOL    HW165036   3.830  11.056  11.275
87713SOL    HW265037   3.922  11.130  11.370
87714SOL     OW65038   2.160  11.256   6.546
87714SOL    HW165039   2.138  11.209   6.465
87714SOL    HW265040   2.217  11.195   6.594
87715SOL     OW65041  13.577   3.525   4.786
87715SOL    HW165042  13.605   3.519   4.877
87715SOL    HW265043  13.618   3.605   4.753
87716SOL     OW65044   5.189   3.725   5.802
87716SOL    HW165045   5.128   3.788   5.841
87716SOL    HW265046   5.166   3.726   5.709
87717SOL     OW65047   6.527  14.416   0.672
87717SOL    HW165048   6.445  14.398   0.719
87717SOL    HW265049   6.518  14.506   0.642
87718SOL     OW65050   9.092   3.931   6.797
87718SOL    HW165051   9.097   3.847   6.843
87718SOL    HW265052   9.004   3.933   6.761
87719SOL     OW65053  11.360  12.544   6.763
87719SOL    HW165054  11.302  12.601   6.713
87719SOL    HW265055  11.447  12.561   6.726
87720SOL     OW65056  12.202   0.352  11.581
87720SOL    HW165057  12.189   0.398  11.664
87720SOL    HW265058  12.206   0.421  11.515
87721SOL     OW65059   5.076   9.092   2.911
87721SOL    HW165060   5.050   8.999   2.911
87721SOL    HW265061   5.022   9.131   2.980
87722SOL     OW65062   5.673   7.774  14.256
87722SOL    HW165063   5.622   7.726  14.190
87722SOL    HW265064   5.760   7.737  14.250
87723SOL     OW65065   2.684  11.507  11.913
87723SOL    HW165066   2.774  11.540  11.920
87723SOL    HW265067   2.659  11.485  12.003
87724SOL     OW65068   3.259   9.276   4.620
87724SOL    HW165069   3.295   9.189   4.600
87724SOL    HW265070   3.269   9.284   4.715
87725SOL     OW65071   0.124  10.465   7.683
87725SOL    HW165072   0.132  10.389   7.627
87725SOL    HW265073   0.211  10.506   7.682
87726SOL     OW65074   5.651  14.240  11.095
87726SOL    HW165075   5.600  14.307  11.142
87726SOL    HW265076   5.685  14.183  11.164
87727SOL     OW65077   7.681   2.814   0.828
87727SOL    HW165078   7.591   2.795   0.803
87727SOL    HW265079   7.734   2.761   0.768
87728SOL     OW65080   7.233  13.588   8.637
87728SOL    HW165081   7.290  13.519   8.603
87728SOL    HW265082   7.292  13.661   8.655
87729SOL     OW65083   9.236  14.172   4.590
87729SOL    HW165084   9.195  14.097   4.634
87729SOL    HW265085   9.266  14.136   4.506
87730SOL     OW65086   1.835   9.407  14.536
87730SOL    HW165087   1.885   9.326  14.527
87730SOL    HW265088   1.755   9.381  14.581
87731SOL     OW65089   6.389  10.794   9.380
87731SOL    HW165090   6.427  10.733   9.317
87731SOL    HW265091   6.358  10.737   9.451
87732SOL     OW65092   9.793   5.675   1.101
87732SOL    HW165093   9.711   5.655   1.058
87732SOL    HW265094   9.859   5.623   1.055
87733SOL     OW65095  10.944  10.195  11.450
87733SOL    HW165096  11.016  10.132  11.448
87733SOL    HW265097  10.872  10.148  11.492
87734SOL     OW65098   5.367   2.364   2.878
87734SOL    HW165099   5.381   2.445   2.830
87734SOL    HW265100   5.370   2.295   2.812
87735SOL     OW65101  14.500   9.823  13.961
87735SOL    HW165102  14.559   9.899  13.958
87735SOL    HW265103  14.468   9.821  14.051
87736SOL     OW65104  13.797   3.041   9.269
87736SOL    HW165105  13.794   2.970   9.334
87736SOL    HW265106  13.739   3.108   9.304
87737SOL     OW65107  14.513   6.682   1.439
87737SOL    HW165108  14.557   6.729   1.510
87737SOL    HW265109  14.572   6.610   1.418
87738SOL     OW65110   5.010   0.103   4.184
87738SOL    HW165111   5.098   0.073   4.162
87738SOL    HW265112   4.960   0.024   4.201
87739SOL     OW65113   3.569   9.402   6.413
87739SOL    HW165114   3.639   9.339   6.395
87739SOL    HW265115   3.549   9.389   6.506
87740SOL     OW65116   8.271  13.097  10.938
87740SOL    HW165117   8.270  13.190  10.961
87740SOL    HW265118   8.193  13.060  10.978
87741SOL     OW65119  12.923   6.736  13.724
87741SOL    HW165120  13.010   6.716  13.758
87741SOL    HW265121  12.864   6.721  13.798
87742SOL     OW65122   1.489   6.944   5.020
87742SOL    HW165123   1.490   6.858   5.062
87742SOL    HW265124   1.534   7.002   5.082
87743SOL     OW65125   1.778   4.814   0.459
87743SOL    HW165126   1.772   4.848   0.548
87743SOL    HW265127   1.800   4.721   0.469
87744SOL     OW65128   5.706   2.427  10.616
87744SOL    HW165129   5.634   2.466  10.665
87744SOL    HW265130   5.739   2.498  10.560
87745SOL     OW65131   5.941  12.860  11.946
87745SOL    HW165132   6.002  12.887  11.877
87745SOL    HW265133   5.854  12.882  11.910
87746SOL     OW65134  11.102  13.355   3.831
87746SOL    HW165135  11.117  13.284   3.893
87746SOL    HW265136  11.166  13.421   3.855
87747SOL     OW65137   2.960   8.921  11.446
87747SOL    HW165138   2.960   9.007  11.488
87747SOL    HW265139   3.030   8.926  11.381
87748SOL     OW65140   8.099   2.844  12.164
87748SOL    HW165141   8.165   2.818  12.099
87748SOL    HW265142   8.130   2.807  12.246
87749SOL     OW65143   2.955  10.948  13.776
87749SOL    HW165144   3.035  10.896  13.770
87749SOL    HW265145   2.967  11.018  13.712
87750SOL     OW65146   8.447   2.461   1.220
87750SOL    HW165147   8.390   2.436   1.147
87750SOL    HW265148   8.473   2.378   1.259
87751SOL     OW65149  14.848   9.506  14.096
87751SOL    HW165150   0.046   9.460  14.148
87751SOL    HW265151  14.790   9.546  14.161
87752SOL     OW65152   6.583  10.858   5.815
87752SOL    HW165153   6.667  10.899   5.835
87752SOL    HW265154   6.557  10.816   5.896
87753SOL     OW65155  10.579   4.529   1.271
87753SOL    HW165156  10.642   4.508   1.202
87753SOL    HW265157  10.573   4.449   1.323
87754SOL     OW65158   8.338  14.246   0.369
87754SOL    HW165159   8.369  14.336   0.373
87754SOL    HW265160   8.259  14.245   0.424
87755SOL     OW65161   0.327  12.152  14.546
87755SOL    HW165162   0.270  12.076  14.533
87755SOL    HW265163   0.271  12.227  14.526
87756SOL     OW65164  14.187  14.376  14.269
87756SOL    HW165165  14.184  14.354  14.362
87756SOL    HW265166  14.097  14.400  14.247
87757SOL     OW65167   8.337   9.113   0.559
87757SOL    HW165168   8.359   9.041   0.500
87757SOL    HW265169   8.422   9.145   0.590
87758SOL     OW65170   1.540  14.061   8.916
87758SOL    HW165171   1.506  14.023   8.835
87758SOL    HW265172   1.470  14.047   8.980
87759SOL     OW65173   4.181   5.460  12.512
87759SOL    HW165174   4.099   5.419  12.542
87759SOL    HW265175   4.246   5.390  12.516
87760SOL     OW65176   3.650   4.842   9.145
87760SOL    HW165177   3.667   4.794   9.226
87760SOL    HW265178   3.579   4.794   9.103
87761SOL     OW65179   3.493   5.844   1.536
87761SOL    HW165180   3.424   5.908   1.519
87761SOL    HW265181   3.446   5.763   1.555
87762SOL     OW65182  12.003  12.105   7.384
87762SOL    HW165183  12.066  12.100   7.456
87762SOL    HW265184  12.044  12.162   7.320
87763SOL     OW65185  13.347   2.807   4.641
87763SOL    HW165186  13.328   2.899   4.619
87763SOL    HW265187  13.285   2.757   4.588
87764SOL     OW65188  10.510   3.013   9.526
87764SOL    HW165189  10.452   3.053   9.462
87764SOL    HW265190  10.558   2.947   9.476
87765SOL     OW65191  11.366  14.019   5.016
87765SOL    HW165192  11.283  14.032   4.971
87765SOL    HW265193  11.343  13.975   5.098
87766SOL     OW65194   8.560   2.033  14.220
87766SOL    HW165195   8.508   2.072  14.149
87766SOL    HW265196   8.647   2.020  14.182
87767SOL     OW65197   6.779   8.491   7.777
87767SOL    HW165198   6.821   8.572   7.806
87767SOL    HW265199   6.717   8.519   7.709
87768SOL     OW65200   3.956   2.899  12.173
87768SOL    HW165201   3.956   2.941  12.087
87768SOL    HW265202   3.984   2.809  12.156
87769SOL     OW65203  14.149  13.063   5.433
87769SOL    HW165204  14.182  13.070   5.343
87769SOL    HW265205  14.065  13.109   5.431
87770SOL     OW65206  10.382  12.156  11.051
87770SOL    HW165207  10.390  12.229  10.989
87770SOL    HW265208  10.426  12.188  11.130
87771SOL     OW65209   4.769   7.321   6.691
87771SOL    HW165210   4.686   7.323   6.737
87771SOL    HW265211   4.766   7.240   6.639
87772SOL     OW65212  12.173   5.184   0.372
87772SOL    HW165213  12.157   5.090   0.364
87772SOL    HW265214  12.111   5.214   0.438
87773SOL     OW65215   6.967   5.929   9.390
87773SOL    HW165216   6.915   5.910   9.312
87773SOL    HW265217   7.039   5.982   9.358
87774SOL     OW65218   3.314  11.557   6.773
87774SOL    HW165219   3.349  11.481   6.819
87774SOL    HW265220   3.346  11.632   6.822
87775SOL     OW65221   6.357   9.544  13.326
87775SOL    HW165222   6.345   9.520  13.417
87775SOL    HW265223   6.299   9.485  13.277
87776SOL     OW65224  14.157  10.423   0.352
87776SOL    HW165225  14.101  10.422   0.275
87776SOL    HW265226  14.242  10.453   0.320
87777SOL     OW65227   8.768   2.114   9.462
87777SOL    HW165228   8.690   2.142   9.510
87777SOL    HW265229   8.841   2.156   9.508
87778SOL     OW65230  13.504   7.043  12.293
87778SOL    HW165231  13.467   7.083  12.371
87778SOL    HW265232  13.586   7.089  12.278
87779SOL     OW65233   2.782  12.360   2.106
87779SOL    HW165234   2.756  12.388   2.194
87779SOL    HW265235   2.780  12.264   2.111
87780SOL     OW65236   7.164  11.188   1.301
87780SOL    HW165237   7.235  11.223   1.248
87780SOL    HW265238   7.172  11.093   1.294
87781SOL     OW65239  12.140  12.996   1.035
87781SOL    HW165240  12.107  12.983   1.124
87781SOL    HW265241  12.084  12.941   0.980
87782SOL     OW65242   1.938  13.154   1.516
87782SOL    HW165243   1.944  13.141   1.422
87782SOL    HW265244   1.879  13.086   1.547
87783SOL     OW65245   7.087   4.755   1.835
87783SOL    HW165246   7.180   4.751   1.814
87783SOL    HW265247   7.049   4.679   1.791
87784SOL     OW65248   3.305   9.282   3.931
87784SOL    HW165249   3.380   9.224   3.944
87784SOL    HW265250   3.239   9.250   3.992
87785SOL     OW65251   8.199   8.250   3.990
87785SOL    HW165252   8.153   8.177   4.030
87785SOL    HW265253   8.162   8.256   3.902
87786SOL     OW65254   8.222  14.562  12.716
87786SOL    HW165255   8.265  14.576  12.800
87786SOL    HW265256   8.245  14.638  12.663
87787SOL     OW65257   1.994   0.790  10.119
87787SOL    HW165258   1.938   0.820  10.047
87787SOL    HW265259   2.017   0.700  10.095
87788SOL     OW65260   6.287  10.708   3.702
87788SOL    HW165261   6.321  10.713   3.792
87788SOL    HW265262   6.299  10.617   3.677
87789SOL     OW65263   6.555   8.128   8.744
87789SOL    HW165264   6.517   8.130   8.832
87789SOL    HW265265   6.594   8.041   8.737
87790SOL     OW65266  13.454  12.370   9.941
87790SOL    HW165267  13.390  12.396   9.875
87790SOL    HW265268  13.403  12.322  10.006
87791SOL     OW65269   3.466   6.962  12.124
87791SOL    HW165270   3.501   6.917  12.046
87791SOL    HW265271   3.424   7.041  12.089
87792SOL     OW65272   5.802   8.522   2.497
87792SOL    HW165273   5.823   8.595   2.439
87792SOL    HW265274   5.708   8.529   2.512
87793SOL     OW65275   3.311   5.318  14.547
87793SOL    HW165276   3.397   5.287  14.517
87793SOL    HW265277   3.314   5.307  14.642
87794SOL     OW65278  12.137   9.674  14.818
87794SOL    HW165279  12.052   9.632  14.831
87794SOL    HW265280  12.190   9.608  14.774
87795SOL     OW65281  13.503   5.451   2.047
87795SOL    HW165282  13.482   5.541   2.069
87795SOL    HW265283  13.483   5.444   1.954
87796SOL     OW65284   1.735   6.095   7.712
87796SOL    HW165285   1.728   6.012   7.666
87796SOL    HW265286   1.786   6.151   7.654
87797SOL     OW65287   2.499   5.687   5.535
87797SOL    HW165288   2.530   5.607   5.577
87797SOL    HW265289   2.498   5.752   5.605
87798SOL     OW65290   8.570   5.020   2.462
87798SOL    HW165291   8.541   5.107   2.491
87798SOL    HW265292   8.626   4.988   2.533
87799SOL     OW65293   7.371  14.293  11.581
87799SOL    HW165294   7.436  14.225  11.563
87799SOL    HW265295   7.320  14.259  11.655
87800SOL     OW65296  10.125  13.200  13.389
87800SOL    HW165297  10.100  13.162  13.305
87800SOL    HW265298  10.042  13.219  13.432
87801SOL     OW65299   1.383   5.637   2.772
87801SOL    HW165300   1.383   5.730   2.795
87801SOL    HW265301   1.454   5.629   2.708
87802SOL     OW65302   6.491   2.066  10.198
87802SOL    HW165303   6.504   2.046  10.106
87802SOL    HW265304   6.564   2.124  10.221
87803SOL     OW65305   0.781  11.420   8.806
87803SOL    HW165306   0.721  11.451   8.737
87803SOL    HW265307   0.725  11.369   8.864
87804SOL     OW65308   7.032   0.082   5.849
87804SOL    HW165309   7.065   0.100   5.761
87804SOL    HW265310   6.999   0.166   5.880
87805SOL     OW65311   9.684   0.747  14.556
87805SOL    HW165312   9.738   0.825  14.568
87805SOL    HW265313   9.746   0.678  14.536
87806SOL     OW65314  12.694   3.198   3.547
87806SOL    HW165315  12.768   3.234   3.596
87806SOL    HW265316  12.697   3.242   3.462
87807SOL     OW65317  13.097   9.528   2.449
87807SOL    HW165318  13.057   9.464   2.509
87807SOL    HW265319  13.060   9.506   2.364
87808SOL     OW65320  12.541   7.486  12.719
87808SOL    HW165321  12.480   7.424  12.679
87808SOL    HW265322  12.494   7.569  12.719
87809SOL     OW65323  11.101   5.649   8.808
87809SOL    HW165324  11.133   5.673   8.895
87809SOL    HW265325  11.005   5.645   8.818
87810SOL     OW65326  13.051   0.833  13.850
87810SOL    HW165327  13.050   0.820  13.945
87810SOL    HW265328  13.041   0.927  13.838
87811SOL     OW65329   5.036   4.931   6.450
87811SOL    HW165330   4.974   4.858   6.454
87811SOL    HW265331   5.069   4.939   6.539
87812SOL     OW65332   8.909   6.721   0.136
87812SOL    HW165333   8.846   6.696   0.203
87812SOL    HW265334   8.973   6.775   0.182
87813SOL     OW65335   4.032   2.875  11.168
87813SOL    HW165336   4.105   2.858  11.226
87813SOL    HW265337   4.060   2.949  11.114
87814SOL     OW65338   3.125   2.514  12.270
87814SOL    HW165339   3.144   2.422  12.290
87814SOL    HW265340   3.209   2.551  12.244
87815SOL     OW65341   6.883   4.966   1.598
87815SOL    HW165342   6.891   4.978   1.693
87815SOL    HW265343   6.965   4.924   1.572
87816SOL     OW65344   0.234  14.247   8.308
87816SOL    HW165345   0.139  14.255   8.300
87816SOL    HW265346   0.262  14.214   8.222
87817SOL     OW65347   9.704   2.100   1.015
87817SOL    HW165348   9.797   2.083   1.034
87817SOL    HW265349   9.665   2.118   1.101
87818SOL     OW65350  10.195   1.011  12.522
87818SOL    HW165351  10.227   0.921  12.516
87818SOL    HW265352  10.256   1.054  12.582
87819SOL     OW65353  11.628  12.883   0.811
87819SOL    HW165354  11.700  12.894   0.749
87819SOL    HW265355  11.647  12.800   0.854
87820SOL     OW65356   1.995   2.414   8.338
87820SOL    HW165357   1.966   2.488   8.283
87820SOL    HW265358   1.915   2.365   8.355
87821SOL     OW65359  12.660  10.398   5.375
87821SOL    HW165360  12.722  10.380   5.304
87821SOL    HW265361  12.700  10.359   5.452
87822SOL     OW65362   9.874   3.400   3.588
87822SOL    HW165363   9.956   3.442   3.610
87822SOL    HW265364   9.859   3.422   3.496
87823SOL     OW65365  12.990   4.406   0.970
87823SOL    HW165366  12.898   4.385   0.991
87823SOL    HW265367  12.995   4.501   0.976
87824SOL     OW65368   8.820   1.122   8.836
87824SOL    HW165369   8.900   1.115   8.784
87824SOL    HW265370   8.753   1.078   8.784
87825SOL     OW65371  11.097  14.676   8.628
87825SOL    HW165372  11.043  14.663   8.706
87825SOL    HW265373  11.051  14.744   8.579
87826SOL     OW65374   4.917   6.687   1.838
87826SOL    HW165375   4.865   6.708   1.760
87826SOL    HW265376   4.876   6.738   1.908
87827SOL     OW65377  11.876   4.386  10.023
87827SOL    HW165378  11.860   4.363  10.114
87827SOL    HW265379  11.804   4.345   9.975
87828SOL     OW65380  10.833  11.642   3.220
87828SOL    HW165381  10.919  11.607   3.242
87828SOL    HW265382  10.807  11.595   3.141
87829SOL     OW65383   7.803   8.011   3.196
87829SOL    HW165384   7.781   8.104   3.190
87829SOL    HW265385   7.739   7.967   3.141
87830SOL     OW65386   4.228   6.222   2.446
87830SOL    HW165387   4.177   6.202   2.367
87830SOL    HW265388   4.162   6.237   2.514
87831SOL     OW65389   4.989   8.872   8.757
87831SOL    HW165390   5.062   8.895   8.815
87831SOL    HW265391   4.928   8.825   8.813
87832SOL     OW65392   6.535   0.429   2.380
87832SOL    HW165393   6.467   0.362   2.368
87832SOL    HW265394   6.532   0.450   2.473
87833SOL     OW65395   9.881   3.354   2.647
87833SOL    HW165396   9.933   3.274   2.640
87833SOL    HW265397   9.813   3.345   2.580
87834SOL     OW65398   6.366  13.053   3.456
87834SOL    HW165399   6.278  13.084   3.475
87834SOL    HW265400   6.412  13.056   3.541
87835SOL     OW65401   4.787  14.427   3.116
87835SOL    HW165402   4.767  14.357   3.054
87835SOL    HW265403   4.702  14.465   3.137
87836SOL     OW65404   8.331  13.233   5.604
87836SOL    HW165405   8.235  13.230   5.599
87836SOL    HW265406   8.352  13.326   5.613
87837SOL     OW65407   4.550  13.590   8.477
87837SOL    HW165408   4.550  13.601   8.382
87837SOL    HW265409   4.498  13.511   8.492
87838SOL     OW65410  14.467   7.564  10.240
87838SOL    HW165411  14.445   7.656  10.228
87838SOL    HW265412  14.411   7.518  10.178
87839SOL     OW65413   6.246  11.627   3.971
87839SOL    HW165414   6.308  11.666   4.033
87839SOL    HW265415   6.301  11.582   3.907
87840SOL     OW65416  12.964  14.775  12.673
87840SOL    HW165417  12.889  14.833  12.664
87840SOL    HW265418  12.991  14.756  12.583
87841SOL     OW65419   6.814   7.657  10.382
87841SOL    HW165420   6.900   7.632  10.347
87841SOL    HW265421   6.751   7.615  10.324
87842SOL     OW65422  13.706   4.883   2.792
87842SOL    HW165423  13.707   4.913   2.883
87842SOL    HW265424  13.634   4.820   2.789
87843SOL     OW65425   5.651  10.841   0.587
87843SOL    HW165426   5.600  10.908   0.541
87843SOL    HW265427   5.729  10.888   0.617
87844SOL     OW65428  10.262  10.444   7.994
87844SOL    HW165429  10.317  10.376   8.033
87844SOL    HW265430  10.325  10.509   7.961
87845SOL     OW65431   8.121  11.567   3.888
87845SOL    HW165432   8.057  11.496   3.878
87845SOL    HW265433   8.070  11.641   3.920
87846SOL     OW65434  14.452   7.107   6.404
87846SOL    HW165435  14.511   7.137   6.473
87846SOL    HW265436  14.510   7.082   6.331
87847SOL     OW65437   3.594  11.441   4.839
87847SOL    HW165438   3.559  11.413   4.923
87847SOL    HW265439   3.627  11.361   4.798
87848SOL     OW65440   6.290   0.684  13.135
87848SOL    HW165441   6.310   0.603  13.087
87848SOL    HW265442   6.367   0.698  13.191
87849SOL     OW65443   3.745   0.124  12.036
87849SOL    HW165444   3.708   0.194  11.982
87849SOL    HW265445   3.674   0.061  12.046
87850SOL     OW65446   6.419  12.930   2.427
87850SOL    HW165447   6.328  12.959   2.422
87850SOL    HW265448   6.461  12.993   2.487
87851SOL     OW65449   2.964   6.454   0.033
87851SOL    HW165450   2.996   6.364   0.041
87851SOL    HW265451   2.869   6.445   0.030
87852SOL     OW65452  11.922  13.078   3.701
87852SOL    HW165453  11.958  13.096   3.788
87852SOL    HW265454  11.881  13.161   3.675
87853SOL     OW65455   8.390  14.797   8.452
87853SOL    HW165456   8.342  14.853   8.391
87853SOL    HW265457   8.382  14.709   8.416
87854SOL     OW65458  12.001   4.696   6.466
87854SOL    HW165459  11.929   4.758   6.473
87854SOL    HW265460  11.959   4.610   6.463
87855SOL     OW65461   2.777  11.608   9.892
87855SOL    HW165462   2.825  11.621   9.810
87855SOL    HW265463   2.805  11.681   9.948
87856SOL     OW65464  12.357   0.414  13.166
87856SOL    HW165465  12.397   0.337  13.207
87856SOL    HW265466  12.431   0.460  13.125
87857SOL     OW65467   3.538   8.082  10.340
87857SOL    HW165468   3.535   8.033  10.421
87857SOL    HW265469   3.447   8.102  10.320
87858SOL     OW65470  12.794  11.964   1.571
87858SOL    HW165471  12.749  12.016   1.505
87858SOL    HW265472  12.724  11.920   1.620
87859SOL     OW65473   4.571   8.349   3.518
87859SOL    HW165474   4.633   8.277   3.504
87859SOL    HW265475   4.616   8.407   3.580
87860SOL     OW65476  11.392  13.165   5.401
87860SOL    HW165477  11.357  13.081   5.373
87860SOL    HW265478  11.337  13.230   5.357
87861SOL     OW65479   0.816  10.877  12.080
87861SOL    HW165480   0.871  10.950  12.109
87861SOL    HW265481   0.849  10.855  11.993
87862SOL     OW65482   4.189   1.657   6.266
87862SOL    HW165483   4.221   1.567   6.268
87862SOL    HW265484   4.264   1.710   6.294
87863SOL     OW65485   6.294   8.845   1.164
87863SOL    HW165486   6.255   8.780   1.105
87863SOL    HW265487   6.375   8.871   1.121
87864SOL     OW65488   2.874   3.363  11.520
87864SOL    HW165489   2.918   3.305  11.582
87864SOL    HW265490   2.859   3.444  11.569
87865SOL     OW65491   0.709  13.752   1.571
87865SOL    HW165492   0.750  13.715   1.493
87865SOL    HW265493   0.637  13.693   1.591
87866SOL     OW65494   3.422   3.502  11.818
87866SOL    HW165495   3.479   3.576  11.796
87866SOL    HW265496   3.441   3.485  11.911
87867SOL     OW65497  13.356   7.621   6.549
87867SOL    HW165498  13.319   7.709   6.561
87867SOL    HW265499  13.443   7.638   6.513
87868SOL     OW65500   2.930  11.371   9.200
87868SOL    HW165501   2.934  11.341   9.109
87868SOL    HW265502   2.860  11.319   9.240
87869SOL     OW65503  13.104  14.237  10.562
87869SOL    HW165504  13.017  14.224  10.525
87869SOL    HW265505  13.164  14.209  10.493
87870SOL     OW65506  10.153  12.573   5.785
87870SOL    HW165507  10.098  12.531   5.718
87870SOL    HW265508  10.142  12.667   5.769
87871SOL     OW65509   1.357   1.695   2.400
87871SOL    HW165510   1.261   1.688   2.397
87871SOL    HW265511   1.384   1.630   2.465
87872SOL     OW65512  13.024   3.810   1.093
87872SOL    HW165513  13.088   3.803   1.021
87872SOL    HW265514  13.012   3.904   1.105
87873SOL     OW65515   3.231  11.520   5.941
87873SOL    HW165516   3.252  11.608   5.908
87873SOL    HW265517   3.150  11.496   5.895
87874SOL     OW65518   3.091   1.941  12.240
87874SOL    HW165519   3.180   1.945  12.204
87874SOL    HW265520   3.053   2.026  12.217
87875SOL     OW65521  14.739   9.619   7.879
87875SOL    HW165522  14.710   9.658   7.961
87875SOL    HW265523  14.671   9.643   7.816
87876SOL     OW65524   8.553   3.059   5.168
87876SOL    HW165525   8.528   3.142   5.128
87876SOL    HW265526   8.608   3.084   5.242
87877SOL     OW65527  10.229   5.142   6.351
87877SOL    HW165528  10.157   5.188   6.308
87877SOL    HW265529  10.257   5.077   6.286
87878SOL     OW65530   2.443   6.755   0.430
87878SOL    HW165531   2.516   6.782   0.484
87878SOL    HW265532   2.374   6.732   0.492
87879SOL     OW65533   7.107   2.077   2.224
87879SOL    HW165534   7.172   2.090   2.293
87879SOL    HW265535   7.152   2.026   2.157
87880SOL     OW65536   6.894   6.730  11.559
87880SOL    HW165537   6.878   6.638  11.542
87880SOL    HW265538   6.860   6.775  11.481
87881SOL     OW65539   1.878   4.867  14.842
87881SOL    HW165540   1.900   4.918  14.764
87881SOL    HW265541   1.938   4.900   0.042
87882SOL     OW65542  13.361   6.358   9.875
87882SOL    HW165543  13.327   6.429   9.931
87882SOL    HW265544  13.437   6.325   9.923
87883SOL     OW65545   7.719   5.502   2.308
87883SOL    HW165546   7.812   5.522   2.321
87883SOL    HW265547   7.673   5.570   2.357
87884SOL     OW65548  14.412  12.805   5.741
87884SOL    HW165549  14.389  12.839   5.655
87884SOL    HW265550  14.351  12.732   5.756
87885SOL     OW65551  14.679  13.126   5.128
87885SOL    HW165552  14.683  13.216   5.094
87885SOL    HW265553  14.732  13.075   5.067
87886SOL     OW65554   2.638  12.664   2.526
87886SOL    HW165555   2.629  12.576   2.488
87886SOL    HW265556   2.730  12.668   2.553
87887SOL     OW65557   7.958   0.214   4.528
87887SOL    HW165558   7.975   0.230   4.435
87887SOL    HW265559   8.044   0.215   4.569
87888SOL     OW65560   0.439   4.128  14.693
87888SOL    HW165561   0.491   4.198  14.734
87888SOL    HW265562   0.492   4.049  14.704
87889SOL     OW65563   1.858   7.683  14.154
87889SOL    HW165564   1.952   7.680  14.135
87889SOL    HW265565   1.817   7.663  14.070
87890SOL     OW65566  12.856   2.147   0.477
87890SOL    HW165567  12.856   2.100   0.394
87890SOL    HW265568  12.935   2.116   0.522
87891SOL     OW65569   6.631   4.556   4.555
87891SOL    HW165570   6.617   4.628   4.616
87891SOL    HW265571   6.603   4.478   4.603
87892SOL     OW65572   9.732   7.627  13.651
87892SOL    HW165573   9.742   7.585  13.737
87892SOL    HW265574   9.674   7.568  13.602
87893SOL     OW65575  10.160   1.831   6.921
87893SOL    HW165576  10.253   1.824   6.898
87893SOL    HW265577  10.118   1.868   6.844
87894SOL     OW65578  13.675   1.855   2.295
87894SOL    HW165579  13.669   1.904   2.377
87894SOL    HW265580  13.769   1.839   2.284
87895SOL     OW65581   9.451   5.050   2.329
87895SOL    HW165582   9.390   5.123   2.341
87895SOL    HW265583   9.538   5.089   2.339
87896SOL     OW65584   9.810  13.574  11.750
87896SOL    HW165585   9.897  13.541  11.728
87896SOL    HW265586   9.773  13.506  11.806
87897SOL     OW65587   5.250   2.661   5.648
87897SOL    HW165588   5.187   2.704   5.706
87897SOL    HW265589   5.316   2.625   5.708
87898SOL     OW65590   1.493  12.255   4.770
87898SOL    HW165591   1.426  12.323   4.778
87898SOL    HW265592   1.570  12.293   4.813
87899SOL     OW65593   5.255   7.179  11.643
87899SOL    HW165594   5.193   7.185  11.716
87899SOL    HW265595   5.338   7.156  11.685
87900SOL     OW65596   0.914   2.171  12.360
87900SOL    HW165597   0.864   2.245  12.325
87900SOL    HW265598   0.922   2.110  12.286
87901SOL     OW65599   5.946   9.070  13.401
87901SOL    HW165600   5.992   9.101  13.323
87901SOL    HW265601   5.927   9.150  13.451
87902SOL     OW65602   8.359  13.910   9.193
87902SOL    HW165603   8.365  13.934   9.286
87902SOL    HW265604   8.331  13.990   9.149
87903SOL     OW65605   2.767   5.590  12.913
87903SOL    HW165606   2.709   5.610  12.986
87903SOL    HW265607   2.844   5.550  12.955
87904SOL     OW65608   7.167   7.140   5.329
87904SOL    HW165609   7.247   7.100   5.363
87904SOL    HW265610   7.188   7.232   5.318
87905SOL     OW65611  11.972  12.744   2.719
87905SOL    HW165612  11.939  12.657   2.741
87905SOL    HW265613  12.044  12.728   2.659
87906SOL     OW65614   2.623   1.748  13.299
87906SOL    HW165615   2.652   1.768  13.388
87906SOL    HW265616   2.668   1.666  13.277
87907SOL     OW65617   3.019   7.386  12.884
87907SOL    HW165618   3.021   7.465  12.939
87907SOL    HW265619   2.963   7.325  12.931
87908SOL     OW65620   3.587   2.816   7.878
87908SOL    HW165621   3.580   2.773   7.963
87908SOL    HW265622   3.586   2.744   7.814
87909SOL     OW65623   9.276  11.086  12.605
87909SOL    HW165624   9.211  11.141  12.562
87909SOL    HW265625   9.339  11.066  12.535
87910SOL     OW65626   6.721   0.730   8.812
87910SOL    HW165627   6.662   0.803   8.832
87910SOL    HW265628   6.806   0.758   8.845
87911SOL     OW65629   6.345   6.461   5.603
87911SOL    HW165630   6.321   6.432   5.515
87911SOL    HW265631   6.324   6.554   5.604
87912SOL     OW65632  12.716   9.907   0.445
87912SOL    HW165633  12.640   9.964   0.438
87912SOL    HW265634  12.699   9.853   0.521
87913SOL     OW65635   7.849   9.697  14.745
87913SOL    HW165636   7.798   9.747  14.809
87913SOL    HW265637   7.926   9.668  14.794
87914SOL     OW65638   7.613   8.059  13.439
87914SOL    HW165639   7.676   8.115  13.485
87914SOL    HW265640   7.644   7.970  13.456
87915SOL     OW65641   7.766  14.399   2.469
87915SOL    HW165642   7.851  14.358   2.481
87915SOL    HW265643   7.785  14.483   2.428
87916SOL     OW65644  12.212   0.060   6.141
87916SOL    HW165645  12.291   0.111   6.159
87916SOL    HW265646  12.224  14.847   6.190
87917SOL     OW65647   3.214   2.781   3.539
87917SOL    HW165648   3.233   2.737   3.456
87917SOL    HW265649   3.119   2.789   3.541
87918SOL     OW65650   2.464   7.068   1.501
87918SOL    HW165651   2.412   7.027   1.433
87918SOL    HW265652   2.536   7.111   1.454
87919SOL     OW65653   4.032  10.877  12.903
87919SOL    HW165654   3.983  10.862  12.985
87919SOL    HW265655   3.964  10.895  12.838
87920SOL     OW65656   8.237   3.489  11.468
87920SOL    HW165657   8.171   3.558  11.475
87920SOL    HW265658   8.187   3.408  11.472
87921SOL     OW65659  11.496   3.714  14.610
87921SOL    HW165660  11.479   3.655  14.537
87921SOL    HW265661  11.516   3.798  14.569
87922SOL     OW65662  13.002   1.693  12.180
87922SOL    HW165663  12.963   1.638  12.112
87922SOL    HW265664  13.091   1.659  12.189
87923SOL     OW65665   9.142   6.852  11.643
87923SOL    HW165666   9.198   6.864  11.566
87923SOL    HW265667   9.199   6.868  11.718
87924SOL     OW65668   1.219   6.817  10.951
87924SOL    HW165669   1.257   6.862  10.875
87924SOL    HW265670   1.156   6.756  10.913
87925SOL     OW65671   7.998   1.891   7.424
87925SOL    HW165672   7.944   1.868   7.349
87925SOL    HW265673   8.034   1.808   7.454
87926SOL     OW65674   4.383   5.892   9.629
87926SOL    HW165675   4.296   5.931   9.623
87926SOL    HW265676   4.369   5.798   9.613
87927SOL     OW65677   0.470  13.996   1.657
87927SOL    HW165678   0.477  14.006   1.562
87927SOL    HW265679   0.395  13.939   1.671
87928SOL     OW65680  10.854  10.698   5.096
87928SOL    HW165681  10.927  10.663   5.045
87928SOL    HW265682  10.837  10.630   5.162
87929SOL     OW65683   9.768  11.385   9.789
87929SOL    HW165684   9.693  11.444   9.797
87929SOL    HW265685   9.730  11.299   9.771
87930SOL     OW65686   6.507   4.313   6.181
87930SOL    HW165687   6.478   4.305   6.090
87930SOL    HW265688   6.471   4.236   6.225
87931SOL     OW65689  13.893   0.556   8.706
87931SOL    HW165690  13.956   0.558   8.778
87931SOL    HW265691  13.907   0.639   8.660
87932SOL     OW65692  10.356  12.351  13.251
87932SOL    HW165693  10.289  12.416  13.271
87932SOL    HW265694  10.357  12.345  13.155
87933SOL     OW65695   6.906   1.438  10.959
87933SOL    HW165696   6.980   1.381  10.982
87933SOL    HW265697   6.859   1.451  11.042
87934SOL     OW65698   8.972   8.832  13.215
87934SOL    HW165699   8.893   8.863  13.258
87934SOL    HW265700   8.948   8.747  13.178
87935SOL     OW65701   3.767  11.422   6.738
87935SOL    HW165702   3.843  11.470   6.706
87935SOL    HW265703   3.786  11.330   6.721
87936SOL     OW65704  13.987  12.969   1.309
87936SOL    HW165705  13.944  12.997   1.228
87936SOL    HW265706  13.929  12.999   1.379
87937SOL     OW65707  12.809   8.599  11.391
87937SOL    HW165708  12.746   8.535  11.358
87937SOL    HW265709  12.780   8.616  11.480
87938SOL     OW65710  10.423   3.812  13.500
87938SOL    HW165711  10.376   3.746  13.449
87938SOL    HW265712  10.423   3.890  13.445
87939SOL     OW65713   8.475   1.547  11.844
87939SOL    HW165714   8.534   1.550  11.768
87939SOL    HW265715   8.492   1.629  11.890
87940SOL     OW65716  13.273   2.873   8.871
87940SOL    HW165717  13.182   2.878   8.842
87940SOL    HW265718  13.297   2.963   8.889
87941SOL     OW65719   1.966   4.511  12.375
87941SOL    HW165720   1.923   4.522  12.460
87941SOL    HW265721   2.027   4.585  12.369
87942SOL     OW65722   8.520   4.984   6.954
87942SOL    HW165723   8.497   5.035   6.876
87942SOL    HW265724   8.436   4.955   6.989
87943SOL     OW65725  12.700   0.607  11.598
87943SOL    HW165726  12.753   0.644  11.527
87943SOL    HW265727  12.762   0.592  11.669
87944SOL     OW65728  10.557   6.692   7.836
87944SOL    HW165729  10.505   6.612   7.828
87944SOL    HW265730  10.611   6.694   7.757
87945SOL     OW65731   4.022   1.756  10.387
87945SOL    HW165732   3.934   1.719  10.386
87945SOL    HW265733   4.014   1.837  10.438
87946SOL     OW65734  11.159  14.521   6.232
87946SOL    HW165735  11.182  14.524   6.325
87946SOL    HW265736  11.128  14.610   6.213
87947SOL     OW65737  12.798   0.272   9.409
87947SOL    HW165738  12.783   0.315   9.325
87947SOL    HW265739  12.853   0.333   9.458
87948SOL     OW65740  14.290   3.568   2.134
87948SOL    HW165741  14.261   3.616   2.211
87948SOL    HW265742  14.270   3.627   2.061
87949SOL     OW65743   3.845   6.248   0.769
87949SOL    HW165744   3.821   6.158   0.789
87949SOL    HW265745   3.780   6.277   0.704
87950SOL     OW65746   4.317   1.541  12.996
87950SOL    HW165747   4.260   1.489  13.053
87950SOL    HW265748   4.358   1.476  12.939
87951SOL     OW65749  12.593   6.872   1.158
87951SOL    HW165750  12.651   6.803   1.124
87951SOL    HW265751  12.545   6.901   1.080
87952SOL     OW65752   0.538   7.352  10.238
87952SOL    HW165753   0.611   7.415  10.236
87952SOL    HW265754   0.476   7.389  10.301
87953SOL     OW65755   3.467  12.292   2.234
87953SOL    HW165756   3.522  12.250   2.300
87953SOL    HW265757   3.472  12.234   2.158
87954SOL     OW65758  12.418  11.376   6.141
87954SOL    HW165759  12.461  11.461   6.131
87954SOL    HW265760  12.328  11.398   6.166
87955SOL     OW65761   1.880   6.377   5.896
87955SOL    HW165762   1.799   6.337   5.926
87955SOL    HW265763   1.854   6.435   5.825
87956SOL     OW65764   1.904  12.091  10.053
87956SOL    HW165765   1.826  12.144  10.039
87956SOL    HW265766   1.946  12.086   9.967
87957SOL     OW65767   9.747   5.393   6.155
87957SOL    HW165768   9.654   5.379   6.133
87957SOL    HW265769   9.785   5.305   6.154
87958SOL     OW65770   9.473  13.176  13.334
87958SOL    HW165771   9.511  13.198  13.419
87958SOL    HW265772   9.527  13.104  13.301
87959SOL     OW65773   7.974  14.835   4.245
87959SOL    HW165774   8.003   0.058   4.232
87959SOL    HW265775   8.013  14.810   4.329
87960SOL     OW65776   4.645  13.905   8.251
87960SOL    HW165777   4.568  13.858   8.220
87960SOL    HW265778   4.719  13.855   8.217
87961SOL     OW65779   1.164   5.973  12.013
87961SOL    HW165780   1.183   5.894  11.964
87961SOL    HW265781   1.141   5.942  12.101
87962SOL     OW65782   3.312   7.651   8.614
87962SOL    HW165783   3.232   7.599   8.625
87962SOL    HW265784   3.368   7.624   8.687
87963SOL     OW65785   1.938  14.052   1.426
87963SOL    HW165786   1.848  14.051   1.394
87963SOL    HW265787   1.930  14.080   1.517
87964SOL     OW65788  13.201   7.081   6.252
87964SOL    HW165789  13.211   7.116   6.163
87964SOL    HW265790  13.256   7.137   6.306
87965SOL     OW65791   4.759   4.211   2.295
87965SOL    HW165792   4.819   4.244   2.362
87965SOL    HW265793   4.794   4.125   2.271
87966SOL     OW65794  10.735   0.844   3.546
87966SOL    HW165795  10.743   0.754   3.516
87966SOL    HW265796  10.717   0.894   3.466
87967SOL     OW65797   5.371   7.053   4.780
87967SOL    HW165798   5.427   7.070   4.855
87967SOL    HW265799   5.314   6.982   4.808
87968SOL     OW65800  10.869   3.246  13.115
87968SOL    HW165801  10.913   3.299  13.181
87968SOL    HW265802  10.865   3.303  13.038
87969SOL     OW65803  14.222   7.308  13.211
87969SOL    HW165804  14.260   7.222  13.194
87969SOL    HW265805  14.240   7.325  13.303
87970SOL     OW65806  13.547   8.446   8.377
87970SOL    HW165807  13.468   8.454   8.431
87970SOL    HW265808  13.619   8.465   8.438
87971SOL     OW65809  11.351   3.542   1.150
87971SOL    HW165810  11.437   3.529   1.190
87971SOL    HW265811  11.364   3.522   1.057
87972SOL     OW65812   5.523  11.925  10.222
87972SOL    HW165813   5.514  12.021  10.226
87972SOL    HW265814   5.452  11.892  10.276
87973SOL     OW65815  11.399   9.798   2.111
87973SOL    HW165816  11.465   9.852   2.155
87973SOL    HW265817  11.449   9.748   2.046
87974SOL     OW65818   8.344   9.549   6.341
87974SOL    HW165819   8.307   9.635   6.321
87974SOL    HW265820   8.268   9.491   6.347
87975SOL     OW65821   1.550   1.276  13.895
87975SOL    HW165822   1.596   1.294  13.977
87975SOL    HW265823   1.577   1.188  13.871
87976SOL     OW65824  11.634   1.735  12.607
87976SOL    HW165825  11.623   1.829  12.598
87976SOL    HW265826  11.728   1.723  12.621
87977SOL     OW65827  11.675  11.103  11.826
87977SOL    HW165828  11.751  11.045  11.831
87977SOL    HW265829  11.603  11.046  11.798
87978SOL     OW65830   7.087   1.854   0.222
87978SOL    HW165831   7.113   1.848   0.314
87978SOL    HW265832   7.051   1.943   0.213
87979SOL     OW65833   4.926   1.811   3.680
87979SOL    HW165834   4.889   1.806   3.768
87979SOL    HW265835   5.020   1.805   3.693
87980SOL     OW65836   1.124  11.927  13.893
87980SOL    HW165837   1.064  11.913  13.966
87980SOL    HW265838   1.210  11.906  13.928
87981SOL     OW65839   9.076   8.681  13.428
87981SOL    HW165840   9.092   8.737  13.352
87981SOL    HW265841   9.121   8.725  13.501
87982SOL     OW65842   5.372   1.079  14.289
87982SOL    HW165843   5.432   1.150  14.311
87982SOL    HW265844   5.331   1.106  14.207
87983SOL     OW65845   0.088  11.025  13.342
87983SOL    HW165846   0.000  11.063  13.344
87983SOL    HW265847   0.074  10.931  13.351
87984SOL     OW65848   3.450  10.342   3.370
87984SOL    HW165849   3.536  10.352   3.410
87984SOL    HW265850   3.398  10.297   3.436
87985SOL     OW65851  10.276   1.528   4.542
87985SOL    HW165852  10.346   1.533   4.476
87985SOL    HW265853  10.220   1.457   4.511
87986SOL     OW65854   5.581  11.165   3.031
87986SOL    HW165855   5.585  11.246   3.080
87986SOL    HW265856   5.619  11.099   3.089
87987SOL     OW65857   0.998   0.534   0.973
87987SOL    HW165858   1.001   0.449   0.929
87987SOL    HW265859   1.015   0.514   1.065
87988SOL     OW65860   1.724   4.122   4.670
87988SOL    HW165861   1.803   4.175   4.654
87988SOL    HW265862   1.755   4.031   4.663
87989SOL     OW65863  10.937   7.415  12.870
87989SOL    HW165864  10.862   7.438  12.926
87989SOL    HW265865  10.912   7.446  12.783
87990SOL     OW65866   5.769   7.178   2.816
87990SOL    HW165867   5.739   7.099   2.771
87990SOL    HW265868   5.757   7.159   2.909
87991SOL     OW65869   4.918   6.452  14.174
87991SOL    HW165870   4.932   6.544  14.150
87991SOL    HW265871   4.950   6.402  14.100
87992SOL     OW65872   9.286  14.409  13.196
87992SOL    HW165873   9.307  14.502  13.197
87992SOL    HW265874   9.320  14.376  13.280
87993SOL     OW65875   3.745  13.853  10.247
87993SOL    HW165876   3.838  13.860  10.226
87993SOL    HW265877   3.702  13.839  10.162
87994SOL     OW65878   9.955  10.732   6.326
87994SOL    HW165879   9.976  10.743   6.418
87994SOL    HW265880   9.887  10.797   6.309
87995SOL     OW65881   6.417   1.731  12.237
87995SOL    HW165882   6.399   1.786  12.313
87995SOL    HW265883   6.445   1.647  12.274
87996SOL     OW65884   0.689   1.973  10.268
87996SOL    HW165885   0.712   1.880  10.267
87996SOL    HW265886   0.609   1.979  10.216
87997SOL     OW65887  11.869   2.501   0.223
87997SOL    HW165888  11.774   2.501   0.232
87997SOL    HW265889  11.897   2.585   0.260
87998SOL     OW65890  14.863   5.425   5.661
87998SOL    HW165891   0.015   5.365   5.732
87998SOL    HW265892   0.070   5.485   5.660
87999SOL     OW65893   2.213  13.334   9.563
87999SOL    HW165894   2.188  13.300   9.648
87999SOL    HW265895   2.209  13.258   9.504
88000SOL     OW65896  12.524   2.092  13.037
88000SOL    HW165897  12.448   2.133  13.079
88000SOL    HW265898  12.599   2.129  13.083
88001SOL     OW65899   4.861  12.436   4.652
88001SOL    HW165900   4.811  12.373   4.599
88001SOL    HW265901   4.920  12.382   4.704
88002SOL     OW65902   9.630   1.060  11.793
88002SOL    HW165903   9.563   1.117  11.830
88002SOL    HW265904   9.582   0.990  11.751
88003SOL     OW65905   5.559   4.043   1.785
88003SOL    HW165906   5.515   4.021   1.703
88003SOL    HW265907   5.652   4.035   1.766
88004SOL     OW65908   4.902   7.137   4.606
88004SOL    HW165909   4.911   7.087   4.525
88004SOL    HW265910   4.990   7.139   4.643
88005SOL     OW65911   3.856   9.901   8.720
88005SOL    HW165912   3.876   9.962   8.650
88005SOL    HW265913   3.763   9.880   8.708
88006SOL     OW65914   1.046   1.079  13.726
88006SOL    HW165915   1.090   1.134  13.791
88006SOL    HW265916   1.047   0.992  13.764
88007SOL     OW65917   0.712   2.291   5.966
88007SOL    HW165918   0.713   2.288   6.062
88007SOL    HW265919   0.623   2.265   5.942
88008SOL     OW65920   2.637  12.723  14.407
88008SOL    HW165921   2.680  12.778  14.341
88008SOL    HW265922   2.708  12.692  14.463
88009SOL     OW65923   6.388   1.491   3.532
88009SOL    HW165924   6.415   1.458   3.446
88009SOL    HW265925   6.450   1.561   3.552
88010SOL     OW65926   7.671  13.736   0.370
88010SOL    HW165927   7.582  13.702   0.375
88010SOL    HW265928   7.721  13.667   0.326
88011SOL     OW65929   9.725  14.813   3.014
88011SOL    HW165930   9.669  14.736   3.018
88011SOL    HW265931   9.804  14.788   3.061
88012SOL     OW65932   5.541   2.530  11.463
88012SOL    HW165933   5.550   2.565  11.552
88012SOL    HW265934   5.453   2.556  11.436
88013SOL     OW65935  14.625  13.553   1.135
88013SOL    HW165936  14.661  13.636   1.103
88013SOL    HW265937  14.603  13.504   1.056
88014SOL     OW65938  10.679  12.940   8.243
88014SOL    HW165939  10.763  12.978   8.267
88014SOL    HW265940  10.697  12.887   8.165
88015SOL     OW65941   3.328  11.078  12.473
88015SOL    HW165942   3.311  11.108  12.384
88015SOL    HW265943   3.359  11.156  12.519
88016SOL     OW65944  12.370  13.690  13.088
88016SOL    HW165945  12.458  13.725  13.105
88016SOL    HW265946  12.312  13.750  13.136
88017SOL     OW65947   8.490   6.236   4.063
88017SOL    HW165948   8.498   6.307   4.000
88017SOL    HW265949   8.573   6.189   4.057
88018SOL     OW65950  14.710  11.411  11.834
88018SOL    HW165951  14.768  11.336  11.819
88018SOL    HW265952  14.681  11.401  11.925
88019SOL     OW65953   7.877   3.388   6.072
88019SOL    HW165954   7.957   3.380   6.124
88019SOL    HW265955   7.813   3.335   6.118
88020SOL     OW65956   2.764   5.460   0.600
88020SOL    HW165957   2.681   5.479   0.555
88020SOL    HW265958   2.743   5.465   0.693
88021SOL     OW65959   0.350  12.166   9.095
88021SOL    HW165960   0.417  12.142   9.031
88021SOL    HW265961   0.389  12.237   9.146
88022SOL     OW65962   7.684   9.503   2.753
88022SOL    HW165963   7.736   9.551   2.689
88022SOL    HW265964   7.598   9.494   2.712
88023SOL     OW65965  14.072  10.404  10.655
88023SOL    HW165966  14.103  10.482  10.700
88023SOL    HW265967  13.996  10.375  10.705
88024SOL     OW65968  10.445   8.663   6.690
88024SOL    HW165969  10.382   8.594   6.669
88024SOL    HW265970  10.390   8.738   6.714
88025SOL     OW65971   2.704  12.551  12.783
88025SOL    HW165972   2.746  12.475  12.823
88025SOL    HW265973   2.729  12.547  12.691
88026SOL     OW65974   5.492  14.765   6.638
88026SOL    HW165975   5.578  14.808   6.642
88026SOL    HW265976   5.449  14.804   6.562
88027SOL     OW65977  10.804   2.688   8.503
88027SOL    HW165978  10.832   2.627   8.572
88027SOL    HW265979  10.882   2.740   8.485
88028SOL     OW65980   0.946   8.994   8.285
88028SOL    HW165981   1.033   9.028   8.264
88028SOL    HW265982   0.906   8.978   8.199
88029SOL     OW65983   8.978  13.439   5.819
88029SOL    HW165984   8.948  13.444   5.910
88029SOL    HW265985   9.060  13.389   5.824
88030SOL     OW65986  13.073   7.160   6.883
88030SOL    HW165987  13.118   7.223   6.939
88030SOL    HW265988  12.984   7.157   6.917
88031SOL     OW65989   1.686   7.770   5.167
88031SOL    HW165990   1.745   7.823   5.114
88031SOL    HW265991   1.674   7.821   5.247
88032SOL     OW65992   1.079  12.899   4.530
88032SOL    HW165993   1.127  12.868   4.453
88032SOL    HW265994   1.134  12.874   4.604
88033SOL     OW65995   2.400   7.176  13.504
88033SOL    HW165996   2.447   7.256  13.526
88033SOL    HW265997   2.330   7.170  13.569
88034SOL     OW65998   9.807   8.738  14.373
88034SOL    HW165999   9.833   8.828  14.350
88034SOL    HW266000   9.782   8.699  14.289
88035SOL     OW66001   5.477  14.247  10.459
88035SOL    HW166002   5.550  14.186  10.449
88035SOL    HW266003   5.427  14.212  10.532
88036SOL     OW66004   4.415   0.648  10.663
88036SOL    HW166005   4.456   0.637  10.749
88036SOL    HW266006   4.358   0.724  10.673
88037SOL     OW66007   8.603  11.707  10.815
88037SOL    HW166008   8.584  11.765  10.889
88037SOL    HW266009   8.588  11.619  10.848
88038SOL     OW66010  14.201  14.446   2.758
88038SOL    HW166011  14.236  14.533   2.778
88038SOL    HW266012  14.189  14.405   2.843
88039SOL     OW66013   8.624   4.046   6.611
88039SOL    HW166014   8.574   3.988   6.669
88039SOL    HW266015   8.605   4.134   6.643
88040SOL     OW66016   7.938  14.148   6.808
88040SOL    HW166017   7.847  14.120   6.804
88040SOL    HW266018   7.960  14.175   6.719
88041SOL     OW66019   8.289  13.197   5.996
88041SOL    HW166020   8.261  13.289   5.994
88041SOL    HW266021   8.209  13.147   5.982
88042SOL     OW66022   9.356  13.212   9.131
88042SOL    HW166023   9.361  13.250   9.219
88042SOL    HW266024   9.445  13.220   9.096
88043SOL     OW66025   4.789   3.561   8.831
88043SOL    HW166026   4.833   3.489   8.785
88043SOL    HW266027   4.757   3.521   8.912
88044SOL     OW66028   1.633  11.652  12.083
88044SOL    HW166029   1.586  11.615  12.008
88044SOL    HW266030   1.725  11.627  12.068
88045SOL     OW66031   3.913  11.118  12.454
88045SOL    HW166032   3.989  11.074  12.492
88045SOL    HW266033   3.923  11.106  12.360
88046SOL     OW66034   9.983   7.256   3.721
88046SOL    HW166035   9.893   7.260   3.690
88046SOL    HW266036  10.023   7.186   3.669
88047SOL     OW66037   6.700   2.907   5.351
88047SOL    HW166038   6.740   2.922   5.436
88047SOL    HW266039   6.635   2.976   5.342
88048SOL     OW66040   8.965   8.614   7.946
88048SOL    HW166041   8.936   8.528   7.918
88048SOL    HW266042   9.008   8.651   7.869
88049SOL     OW66043   1.518   5.946   0.516
88049SOL    HW166044   1.491   6.037   0.510
88049SOL    HW266045   1.442   5.900   0.553
88050SOL     OW66046   9.025  12.325   3.165
88050SOL    HW166047   9.065  12.411   3.176
88050SOL    HW266048   9.026  12.286   3.252
88051SOL     OW66049   2.696   4.607   3.743
88051SOL    HW166050   2.658   4.656   3.670
88051SOL    HW266051   2.745   4.536   3.702
88052SOL     OW66052   9.954   0.417   6.355
88052SOL    HW166053   9.987   0.402   6.444
88052SOL    HW266054  10.002   0.355   6.301
88053SOL     OW66055  13.332  11.655  13.951
88053SOL    HW166056  13.274  11.579  13.939
88053SOL    HW266057  13.298  11.699  14.029
88054SOL     OW66058  14.129  10.759   1.613
88054SOL    HW166059  14.214  10.782   1.576
88054SOL    HW266060  14.132  10.664   1.625
88055SOL     OW66061   8.835   4.460  11.786
88055SOL    HW166062   8.914   4.406  11.798
88055SOL    HW266063   8.764   4.405  11.820
88056SOL     OW66064   7.782   3.449   0.148
88056SOL    HW166065   7.867   3.409   0.132
88056SOL    HW266066   7.792   3.539   0.117
88057SOL     OW66067   1.423   6.940   1.722
88057SOL    HW166068   1.352   6.917   1.661
88057SOL    HW266069   1.379   6.984   1.795
88058SOL     OW66070   4.517  12.985   7.348
88058SOL    HW166071   4.529  12.907   7.403
88058SOL    HW266072   4.606  13.013   7.327
88059SOL     OW66073   6.222   1.265   6.420
88059SOL    HW166074   6.279   1.321   6.473
88059SOL    HW266075   6.157   1.231   6.481
88060SOL     OW66076  10.955  13.801  12.984
88060SOL    HW166077  10.913  13.861  12.923
88060SOL    HW266078  10.995  13.733  12.928
88061SOL     OW66079   9.645  12.921   8.109
88061SOL    HW166080   9.634  12.955   8.021
88061SOL    HW266081   9.594  12.840   8.110
88062SOL     OW66082   0.946   8.111   6.817
88062SOL    HW166083   0.946   8.206   6.828
88062SOL    HW266084   1.021   8.094   6.759
88063SOL     OW66085  11.398  13.213  14.756
88063SOL    HW166086  11.380  13.242  14.666
88063SOL    HW266087  11.448  13.284  14.795
88064SOL     OW66088   9.658  10.681   6.736
88064SOL    HW166089   9.656  10.735   6.816
88064SOL    HW266090   9.612  10.601   6.761
88065SOL     OW66091   6.170  11.898  10.469
88065SOL    HW166092   6.151  11.866  10.380
88065SOL    HW266093   6.111  11.972  10.481
88066SOL     OW66094  11.763   9.231   4.051
88066SOL    HW166095  11.706   9.233   3.974
88066SOL    HW266096  11.715   9.279   4.118
88067SOL     OW66097   9.520   7.554   0.731
88067SOL    HW166098   9.426   7.564   0.716
88067SOL    HW266099   9.554   7.644   0.732
88068SOL     OW66100   1.942   7.194   7.911
88068SOL    HW166101   1.979   7.116   7.953
88068SOL    HW266102   1.978   7.192   7.822
88069SOL     OW66103   6.898   5.260   7.194
88069SOL    HW166104   6.935   5.283   7.109
88069SOL    HW266105   6.803   5.259   7.180
88070SOL     OW66106  13.185   6.794  13.785
88070SOL    HW166107  13.195   6.881  13.824
88070SOL    HW266108  13.159   6.811  13.695
88071SOL     OW66109   3.147   3.566   3.868
88071SOL    HW166110   3.224   3.523   3.906
88071SOL    HW266111   3.176   3.655   3.848
88072SOL     OW66112  11.208   8.537   9.556
88072SOL    HW166113  11.122   8.530   9.597
88072SOL    HW266114  11.201   8.485   9.476
88073SOL     OW66115  11.411   9.984   8.362
88073SOL    HW166116  11.494   9.995   8.409
88073SOL    HW266117  11.350  10.040   8.411
88074SOL     OW66118   8.886   0.808   6.557
88074SOL    HW166119   8.928   0.827   6.640
88074SOL    HW266120   8.856   0.718   6.565
88075SOL     OW66121   6.728  12.130  10.474
88075SOL    HW166122   6.768  12.083  10.401
88075SOL    HW266123   6.659  12.072  10.506
88076SOL     OW66124  12.862   0.069   7.608
88076SOL    HW166125  12.952   0.037   7.603
88076SOL    HW266126  12.852   0.125   7.531
88077SOL     OW66127   3.384  14.157  14.502
88077SOL    HW166128   3.334  14.103  14.563
88077SOL    HW266129   3.418  14.096  14.437
88078SOL     OW66130   9.206   9.665   3.152
88078SOL    HW166131   9.152   9.702   3.082
88078SOL    HW266132   9.295   9.697   3.134
88079SOL     OW66133   4.573   1.809   3.641
88079SOL    HW166134   4.620   1.880   3.685
88079SOL    HW266135   4.541   1.754   3.713
88080SOL     OW66136  10.993  11.121  13.091
88080SOL    HW166137  11.005  11.036  13.048
88080SOL    HW266138  11.065  11.125  13.155
88081SOL     OW66139  12.184   6.118   2.459
88081SOL    HW166140  12.218   6.073   2.382
88081SOL    HW266141  12.208   6.062   2.532
88082SOL     OW66142  14.404  10.052   0.543
88082SOL    HW166143  14.490  10.087   0.519
88082SOL    HW266144  14.386  10.091   0.629
88083SOL     OW66145  14.676   3.987  11.783
88083SOL    HW166146  14.604   3.994  11.721
88083SOL    HW266147  14.664   3.901  11.824
88084SOL     OW66148  12.498   9.469   5.809
88084SOL    HW166149  12.436   9.410   5.852
88084SOL    HW266150  12.442   9.528   5.758
88085SOL     OW66151  14.722  13.361   7.894
88085SOL    HW166152  14.668  13.297   7.847
88085SOL    HW266153  14.671  13.384   7.972
88086SOL     OW66154   1.472   1.164   0.453
88086SOL    HW166155   1.393   1.189   0.406
88086SOL    HW266156   1.442   1.102   0.520
88087SOL     OW66157   3.298  13.508   9.414
88087SOL    HW166158   3.252  13.438   9.461
88087SOL    HW266159   3.367  13.463   9.364
88088SOL     OW66160  11.717  12.338  14.251
88088SOL    HW166161  11.754  12.376  14.171
88088SOL    HW266162  11.754  12.390  14.322
88089SOL     OW66163   7.701   6.730  14.253
88089SOL    HW166164   7.765   6.717  14.183
88089SOL    HW266165   7.640   6.656  14.244
88090SOL     OW66166   1.280   0.784   2.764
88090SOL    HW166167   1.280   0.822   2.676
88090SOL    HW266168   1.187   0.778   2.787
88091SOL     OW66169  14.385   3.540   4.444
88091SOL    HW166170  14.396   3.492   4.526
88091SOL    HW266171  14.321   3.608   4.464
88092SOL     OW66172   1.398  14.491   1.557
88092SOL    HW166173   1.407  14.553   1.629
88092SOL    HW266174   1.401  14.546   1.478
88093SOL     OW66175  11.053   4.548   2.576
88093SOL    HW166176  11.085   4.625   2.622
88093SOL    HW266177  10.969   4.529   2.616
88094SOL     OW66178   8.552  11.108   1.805
88094SOL    HW166179   8.469  11.068   1.830
88094SOL    HW266180   8.590  11.139   1.887
88095SOL     OW66181  13.928  10.307   3.388
88095SOL    HW166182  13.958  10.396   3.408
88095SOL    HW266183  13.876  10.316   3.308
88096SOL     OW66184   5.232   2.597   8.559
88096SOL    HW166185   5.316   2.628   8.593
88096SOL    HW266186   5.201   2.668   8.504
88097SOL     OW66187   1.682   3.906   8.806
88097SOL    HW166188   1.693   3.917   8.900
88097SOL    HW266189   1.588   3.915   8.791
88098SOL     OW66190   7.928   7.306   4.245
88098SOL    HW166191   7.953   7.226   4.199
88098SOL    HW266192   7.832   7.306   4.244
88099SOL     OW66193   6.093   6.211   9.489
88099SOL    HW166194   6.126   6.282   9.543
88099SOL    HW266195   5.998   6.211   9.506
88100SOL     OW66196   4.751   1.519   2.396
88100SOL    HW166197   4.727   1.611   2.387
88100SOL    HW266198   4.673   1.471   2.369
88101SOL     OW66199  10.806  14.348   3.867
88101SOL    HW166200  10.790  14.305   3.783
88101SOL    HW266201  10.831  14.277   3.926
88102SOL     OW66202   3.641   1.640  13.976
88102SOL    HW166203   3.605   1.658  13.889
88102SOL    HW266204   3.601   1.706  14.032
88103SOL     OW66205   8.232   6.161   3.404
88103SOL    HW166206   8.308   6.142   3.348
88103SOL    HW266207   8.190   6.076   3.416
88104SOL     OW66208   2.879   2.690   9.023
88104SOL    HW166209   2.834   2.722   9.101
88104SOL    HW266210   2.972   2.705   9.042
88105SOL     OW66211   4.964  13.741   2.621
88105SOL    HW166212   4.976  13.835   2.636
88105SOL    HW266213   4.946  13.734   2.527
88106SOL     OW66214  12.580   2.769   7.411
88106SOL    HW166215  12.488   2.761   7.384
88106SOL    HW266216  12.593   2.694   7.470
88107SOL     OW66217  14.290  13.087   7.659
88107SOL    HW166218  14.227  13.015   7.662
88107SOL    HW266219  14.235  13.166   7.651
88108SOL     OW66220   3.625  10.478   7.725
88108SOL    HW166221   3.664  10.460   7.811
88108SOL    HW266222   3.536  10.443   7.732
88109SOL     OW66223   2.119   0.763  11.457
88109SOL    HW166224   2.159   0.676  11.450
88109SOL    HW266225   2.153   0.799  11.539
88110SOL     OW66226   5.918  11.009  14.444
88110SOL    HW166227   5.952  10.931  14.488
88110SOL    HW266228   5.854  10.976  14.381
88111SOL     OW66229  13.317  10.971  10.897
88111SOL    HW166230  13.227  10.947  10.921
88111SOL    HW266231  13.359  10.889  10.874
88112SOL     OW66232  11.007   9.430   1.751
88112SOL    HW166233  10.938   9.365   1.764
88112SOL    HW266234  11.084   9.379   1.725
88113SOL     OW66235   6.842   9.428   7.905
88113SOL    HW166236   6.801   9.356   7.856
88113SOL    HW266237   6.772   9.493   7.914
88114SOL     OW66238   3.418   0.874   2.565
88114SOL    HW166239   3.512   0.891   2.569
88114SOL    HW266240   3.392   0.901   2.477
88115SOL     OW66241   6.172   4.836  10.539
88115SOL    HW166242   6.156   4.834  10.445
88115SOL    HW266243   6.174   4.743  10.564
88116SOL     OW66244   8.134   6.894   8.806
88116SOL    HW166245   8.063   6.880   8.743
88116SOL    HW266246   8.205   6.838   8.773
88117SOL     OW66247   5.989  14.574  10.139
88117SOL    HW166248   5.895  14.570  10.156
88117SOL    HW266249   6.012  14.665  10.156
88118SOL     OW66250   2.465  14.481   2.994
88118SOL    HW166251   2.522  14.451   2.923
88118SOL    HW266252   2.457  14.406   3.053
88119SOL     OW66253  13.051   9.986   2.259
88119SOL    HW166254  12.985   9.975   2.190
88119SOL    HW266255  13.072  10.079   2.257
88120SOL     OW66256   8.502   7.317   6.325
88120SOL    HW166257   8.449   7.332   6.403
88120SOL    HW266258   8.547   7.234   6.341
88121SOL     OW66259   2.090   7.624   7.780
88121SOL    HW166260   2.006   7.583   7.801
88121SOL    HW266261   2.066   7.698   7.723
88122SOL     OW66262   0.437  12.532   2.102
88122SOL    HW166263   0.475  12.473   2.037
88122SOL    HW266264   0.513  12.572   2.145
88123SOL     OW66265   5.722   1.458   3.073
88123SOL    HW166266   5.811   1.426   3.060
88123SOL    HW266267   5.734   1.545   3.112
88124SOL     OW66268   5.025  10.821   6.647
88124SOL    HW166269   5.081  10.798   6.573
88124SOL    HW266270   5.081  10.810   6.724
88125SOL     OW66271   2.529   0.076  12.327
88125SOL    HW166272   2.601   0.038  12.378
88125SOL    HW266273   2.550   0.054  12.236
88126SOL     OW66274   1.254  12.125   9.735
88126SOL    HW166275   1.276  12.033   9.725
88126SOL    HW266276   1.167  12.135   9.697
88127SOL     OW66277   2.782  13.516   9.642
88127SOL    HW166278   2.753  13.515   9.551
88127SOL    HW266279   2.712  13.473   9.691
88128SOL     OW66280   9.174   7.670   2.216
88128SOL    HW166281   9.235   7.627   2.276
88128SOL    HW266282   9.088   7.654   2.254
88129SOL     OW66283  11.631   6.562   8.724
88129SOL    HW166284  11.613   6.566   8.818
88129SOL    HW266285  11.686   6.484   8.714
88130SOL     OW66286   0.503  13.174   1.482
88130SOL    HW166287   0.550  13.186   1.565
88130SOL    HW266288   0.481  13.081   1.480
88131SOL     OW66289  10.516   1.531   3.454
88131SOL    HW166290  10.477   1.456   3.408
88131SOL    HW266291  10.493   1.606   3.399
88132SOL     OW66292   7.416   3.806   5.060
88132SOL    HW166293   7.385   3.717   5.075
88132SOL    HW266294   7.347   3.862   5.095
88133SOL     OW66295   1.918   9.827   3.938
88133SOL    HW166296   1.931   9.765   4.010
88133SOL    HW266297   1.827   9.817   3.913
88134SOL     OW66298   7.376   3.814  13.718
88134SOL    HW166299   7.398   3.866  13.795
88134SOL    HW266300   7.453   3.758  13.704
88135SOL     OW66301  14.233  13.903   2.245
88135SOL    HW166302  14.255  13.950   2.326
88135SOL    HW266303  14.148  13.937   2.220
88136SOL     OW66304   6.755   6.155   9.603
88136SOL    HW166305   6.845   6.173   9.632
88136SOL    HW266306   6.753   6.060   9.590
88137SOL     OW66307   7.482   1.053  10.659
88137SOL    HW166308   7.528   0.979  10.700
88137SOL    HW266309   7.477   1.029  10.567
88138SOL     OW66310   9.737   8.980   9.427
88138SOL    HW166311   9.678   9.027   9.369
88138SOL    HW266312   9.737   9.030   9.508
88139SOL     OW66313  13.730  10.166   7.046
88139SOL    HW166314  13.717  10.235   6.981
88139SOL    HW266315  13.722  10.085   6.996
88140SOL     OW66316   0.744   3.365   0.173
88140SOL    HW166317   0.799   3.412   0.236
88140SOL    HW266318   0.766   3.404   0.089
88141SOL     OW66319  11.155  10.642   9.444
88141SOL    HW166320  11.138  10.645   9.538
88141SOL    HW266321  11.230  10.584   9.435
88142SOL     OW66322   3.154   8.277   3.893
88142SOL    HW166323   3.088   8.299   3.827
88142SOL    HW266324   3.204   8.206   3.854
88143SOL     OW66325   5.309  14.505   1.097
88143SOL    HW166326   5.392  14.510   1.145
88143SOL    HW266327   5.244  14.485   1.165
88144SOL     OW66328   7.723   9.033  11.656
88144SOL    HW166329   7.768   9.063  11.735
88144SOL    HW266330   7.669   9.107  11.630
88145SOL     OW66331   4.325  12.739   9.422
88145SOL    HW166332   4.268  12.767   9.350
88145SOL    HW266333   4.345  12.648   9.403
88146SOL     OW66334   2.177  12.020   1.687
88146SOL    HW166335   2.268  12.044   1.673
88146SOL    HW266336   2.159  12.047   1.777
88147SOL     OW66337   2.702  10.134   5.939
88147SOL    HW166338   2.615  10.100   5.920
88147SOL    HW266339   2.689  10.203   6.003
88148SOL     OW66340  13.514   6.361  10.267
88148SOL    HW166341  13.560   6.339  10.348
88148SOL    HW266342  13.432   6.312  10.272
88149SOL     OW66343   4.061   2.942  13.264
88149SOL    HW166344   4.040   2.861  13.219
88149SOL    HW266345   4.133   2.919  13.323
88150SOL     OW66346   9.373   6.373   4.551
88150SOL    HW166347   9.382   6.452   4.603
88150SOL    HW266348   9.329   6.310   4.608
88151SOL     OW66349   1.014   3.896   1.037
88151SOL    HW166350   1.032   3.964   0.972
88151SOL    HW266351   1.061   3.924   1.115
88152SOL     OW66352  14.515   4.005  10.491
88152SOL    HW166353  14.608   3.982  10.484
88152SOL    HW266354  14.491   4.034  10.404
88153SOL     OW66355   8.361  11.526   7.816
88153SOL    HW166356   8.422  11.565   7.879
88153SOL    HW266357   8.310  11.464   7.867
88154SOL     OW66358   6.435   3.319   8.482
88154SOL    HW166359   6.393   3.383   8.425
88154SOL    HW266360   6.423   3.236   8.438
88155SOL     OW66361   5.729  13.463   0.719
88155SOL    HW166362   5.733  13.417   0.803
88155SOL    HW266363   5.739  13.395   0.653
88156SOL     OW66364  12.638   7.809  10.770
88156SOL    HW166365  12.611   7.886  10.819
88156SOL    HW266366  12.697   7.762  10.829
88157SOL     OW66367  10.130   9.753  10.426
88157SOL    HW166368  10.060   9.691  10.447
88157SOL    HW266369  10.110   9.830  10.480
88158SOL     OW66370   2.695  10.724  10.497
88158SOL    HW166371   2.623  10.706  10.557
88158SOL    HW266372   2.663  10.694  10.412
88159SOL     OW66373   8.142  11.742  13.593
88159SOL    HW166374   8.134  11.766  13.685
88159SOL    HW266375   8.183  11.818  13.552
88160SOL     OW66376   1.555   8.873  13.891
88160SOL    HW166377   1.638   8.918  13.881
88160SOL    HW266378   1.547   8.857  13.985
88161SOL     OW66379  12.229   4.251  14.095
88161SOL    HW166380  12.304   4.191  14.095
88161SOL    HW266381  12.222   4.282  14.005
88162SOL     OW66382  12.477   7.366  11.080
88162SOL    HW166383  12.514   7.287  11.039
88162SOL    HW266384  12.544   7.433  11.069
88163SOL     OW66385   6.737   0.520   5.008
88163SOL    HW166386   6.787   0.600   4.994
88163SOL    HW266387   6.647   0.543   4.984
88164SOL     OW66388  11.099  11.826   4.657
88164SOL    HW166389  11.062  11.769   4.589
88164SOL    HW266390  11.178  11.862   4.618
88165SOL     OW66391   5.955   3.859   1.523
88165SOL    HW166392   5.985   3.798   1.456
88165SOL    HW266393   5.981   3.945   1.490
88166SOL     OW66394  11.936   7.844   1.231
88166SOL    HW166395  11.954   7.920   1.286
88166SOL    HW266396  11.963   7.871   1.143
88167SOL     OW66397  12.900   4.057  13.576
88167SOL    HW166398  12.924   3.970  13.543
88167SOL    HW266399  12.817   4.042  13.622
88168SOL     OW66400  11.222  13.725   4.467
88168SOL    HW166401  11.219  13.798   4.529
88168SOL    HW266402  11.180  13.758   4.388
88169SOL     OW66403   5.786  13.236  11.842
88169SOL    HW166404   5.759  13.151  11.876
88169SOL    HW266405   5.875  13.222  11.809
88170SOL     OW66406   8.522  10.560  13.620
88170SOL    HW166407   8.482  10.630  13.672
88170SOL    HW266408   8.523  10.594  13.531
88171SOL     OW66409   6.586   0.684   2.910
88171SOL    HW166410   6.618   0.701   2.821
88171SOL    HW266411   6.659   0.706   2.967
88172SOL     OW66412   7.901   6.227   0.438
88172SOL    HW166413   7.807   6.244   0.442
88172SOL    HW266414   7.919   6.176   0.518
88173SOL     OW66415  11.261  10.162   9.677
88173SOL    HW166416  11.334  10.221   9.694
88173SOL    HW266417  11.298  10.093   9.623
88174SOL     OW66418   8.377  14.829  13.398
88174SOL    HW166419   8.297  14.844  13.349
88174SOL    HW266420   8.439   0.027  13.366
88175SOL     OW66421   9.812  11.430  10.156
88175SOL    HW166422   9.719  11.450  10.151
88175SOL    HW266423   9.849  11.499  10.211
88176SOL     OW66424  12.455  10.468  12.807
88176SOL    HW166425  12.511  10.430  12.739
88176SOL    HW266426  12.371  10.423  12.797
88177SOL     OW66427   1.304   1.743  11.184
88177SOL    HW166428   1.327   1.712  11.272
88177SOL    HW266429   1.347   1.828  11.177
88178SOL     OW66430   4.499   8.689   8.481
88178SOL    HW166431   4.406   8.694   8.503
88178SOL    HW266432   4.504   8.620   8.415
88179SOL     OW66433  11.001   0.490   6.153
88179SOL    HW166434  10.945   0.515   6.226
88179SOL    HW266435  10.941   0.474   6.080
88180SOL     OW66436   1.017  11.476  10.848
88180SOL    HW166437   1.047  11.480  10.758
88180SOL    HW266438   1.096  11.486  10.901
88181SOL     OW66439   7.750   6.194   1.247
88181SOL    HW166440   7.782   6.276   1.286
88181SOL    HW266441   7.763   6.129   1.316
88182SOL     OW66442   9.651  11.101   1.205
88182SOL    HW166443   9.590  11.029   1.194
88182SOL    HW266444   9.735  11.067   1.174
88183SOL     OW66445  10.851  14.204   7.602
88183SOL    HW166446  10.837  14.212   7.697
88183SOL    HW266447  10.792  14.134   7.575
88184SOL     OW66448   7.131   5.462  14.794
88184SOL    HW166449   7.101   5.553  14.790
88184SOL    HW266450   7.076   5.421  14.860
88185SOL     OW66451  13.926   6.989   4.998
88185SOL    HW166452  13.831   6.991   5.000
88185SOL    HW266453  13.948   6.915   4.941
88186SOL     OW66454   2.539   9.484  13.468
88186SOL    HW166455   2.546   9.436  13.385
88186SOL    HW266456   2.541   9.415  13.535
88187SOL     OW66457   7.331  13.663   2.347
88187SOL    HW166458   7.282  13.691   2.423
88187SOL    HW266459   7.277  13.596   2.306
88188SOL     OW66460   1.119   4.151   9.283
88188SOL    HW166461   1.168   4.196   9.352
88188SOL    HW266462   1.115   4.060   9.312
88189SOL     OW66463  10.720  13.515   5.475
88189SOL    HW166464  10.626  13.499   5.478
88189SOL    HW266465  10.759  13.430   5.458
88190SOL     OW66466  12.481   3.738   0.120
88190SOL    HW166467  12.434   3.657   0.104
88190SOL    HW266468  12.527   3.756   0.038
88191SOL     OW66469   0.984   6.845   6.415
88191SOL    HW166470   0.975   6.755   6.386
88191SOL    HW266471   1.016   6.893   6.339
88192SOL     OW66472   3.589  13.174   5.072
88192SOL    HW166473   3.673  13.147   5.111
88192SOL    HW266474   3.569  13.257   5.116
88193SOL     OW66475   2.191   7.236   5.200
88193SOL    HW166476   2.137   7.291   5.144
88193SOL    HW266477   2.133   7.166   5.229
88194SOL     OW66478  11.653  14.644   2.185
88194SOL    HW166479  11.618  14.724   2.146
88194SOL    HW266480  11.607  14.573   2.140
88195SOL     OW66481   4.061  10.406   2.714
88195SOL    HW166482   4.139  10.404   2.769
88195SOL    HW266483   4.046  10.314   2.691
88196SOL     OW66484  11.476   0.044   0.719
88196SOL    HW166485  11.386   0.028   0.748
88196SOL    HW266486  11.489  14.853   0.645
88197SOL     OW66487   6.081  11.057   6.080
88197SOL    HW166488   5.995  11.062   6.038
88197SOL    HW266489   6.066  11.091   6.169
88198SOL     OW66490   7.631   1.091   2.247
88198SOL    HW166491   7.661   1.145   2.174
88198SOL    HW266492   7.603   1.155   2.313
88199SOL     OW66493   2.418   5.524   9.684
88199SOL    HW166494   2.437   5.617   9.693
88199SOL    HW266495   2.503   5.482   9.674
88200SOL     OW66496   9.656   2.161  11.196
88200SOL    HW166497   9.603   2.138  11.120
88200SOL    HW266498   9.744   2.175  11.161
88201SOL     OW66499   0.832   9.211  10.765
88201SOL    HW166500   0.879   9.294  10.774
88201SOL    HW266501   0.792   9.196  10.851
88202SOL     OW66502   8.908  11.369   2.052
88202SOL    HW166503   8.924  11.351   2.144
88202SOL    HW266504   8.936  11.460   2.040
88203SOL     OW66505   7.338  12.951   0.391
88203SOL    HW166506   7.299  12.873   0.431
88203SOL    HW266507   7.425  12.956   0.430
88204SOL     OW66508  11.388   6.201   3.772
88204SOL    HW166509  11.399   6.212   3.677
88204SOL    HW266510  11.385   6.291   3.806
88205SOL     OW66511   8.168   8.585  12.743
88205SOL    HW166512   8.222   8.507  12.728
88205SOL    HW266513   8.182   8.640  12.666
88206SOL     OW66514   4.467   6.968   2.456
88206SOL    HW166515   4.503   6.989   2.370
88206SOL    HW266516   4.499   7.038   2.513
88207SOL     OW66517  12.137   7.583   0.965
88207SOL    HW166518  12.173   7.512   1.019
88207SOL    HW266519  12.163   7.663   1.010
88208SOL     OW66520   2.285  11.876   4.841
88208SOL    HW166521   2.265  11.825   4.762
88208SOL    HW266522   2.287  11.811   4.911
88209SOL     OW66523   5.133   1.337   8.139
88209SOL    HW166524   5.184   1.262   8.171
88209SOL    HW266525   5.143   1.404   8.206
88210SOL     OW66526   1.464  13.829   3.563
88210SOL    HW166527   1.453  13.768   3.491
88210SOL    HW266528   1.556  13.821   3.589
88211SOL     OW66529   5.388   4.865   5.974
88211SOL    HW166530   5.379   4.771   5.990
88211SOL    HW266531   5.326   4.883   5.903
88212SOL     OW66532   9.240  14.457   4.119
88212SOL    HW166533   9.299  14.489   4.051
88212SOL    HW266534   9.153  14.482   4.089
88213SOL     OW66535   0.206   5.598   5.625
88213SOL    HW166536   0.217   5.692   5.637
88213SOL    HW266537   0.292   5.561   5.645
88214SOL     OW66538   9.096   7.891  14.392
88214SOL    HW166539   9.084   7.864  14.301
88214SOL    HW266540   9.026   7.846  14.439
88215SOL     OW66541   6.315   3.338  13.925
88215SOL    HW166542   6.343   3.411  13.869
88215SOL    HW266543   6.220   3.333  13.912
88216SOL     OW66544  10.259   5.162   2.512
88216SOL    HW166545  10.316   5.239   2.510
88216SOL    HW266546  10.245   5.141   2.420
88217SOL     OW66547   9.755  12.790  14.089
88217SOL    HW166548   9.715  12.814  14.172
88217SOL    HW266549   9.717  12.706  14.067
88218SOL     OW66550   5.795   0.797  10.058
88218SOL    HW166551   5.732   0.759  10.119
88218SOL    HW266552   5.758   0.883  10.036
88219SOL     OW66553  13.469  11.001   1.479
88219SOL    HW166554  13.407  10.931   1.457
88219SOL    HW266555  13.497  11.036   1.394
88220SOL     OW66556   6.877   6.440  11.538
88220SOL    HW166557   6.858   6.375  11.470
88220SOL    HW266558   6.820   6.415  11.611
88221SOL     OW66559   9.915  13.053  14.715
88221SOL    HW166560   9.994  13.019  14.673
88221SOL    HW266561   9.948  13.116  14.779
88222SOL     OW66562   6.095   9.281  10.079
88222SOL    HW166563   6.101   9.340  10.004
88222SOL    HW266564   6.141   9.202  10.051
88223SOL     OW66565   0.938   7.423  10.005
88223SOL    HW166566   0.944   7.485  10.078
88223SOL    HW266567   1.023   7.379  10.002
88224SOL     OW66568   3.442   1.402   2.662
88224SOL    HW166569   3.359   1.417   2.616
88224SOL    HW266570   3.423   1.425   2.753
88225SOL     OW66571  13.197  13.834  14.501
88225SOL    HW166572  13.226  13.917  14.463
88225SOL    HW266573  13.253  13.768  14.459
88226SOL     OW66574   5.167   9.792   5.843
88226SOL    HW166575   5.184   9.866   5.901
88226SOL    HW266576   5.090   9.818   5.792
88227SOL     OW66577   5.995   9.000   6.605
88227SOL    HW166578   6.047   8.977   6.527
88227SOL    HW266579   6.051   8.975   6.679
88228SOL     OW66580   3.091   6.693   3.800
88228SOL    HW166581   3.119   6.684   3.709
88228SOL    HW266582   3.171   6.685   3.852
88229SOL     OW66583   5.388  11.827   2.652
88229SOL    HW166584   5.332  11.883   2.597
88229SOL    HW266585   5.366  11.738   2.625
88230SOL     OW66586   8.613   6.214  12.680
88230SOL    HW166587   8.678   6.184  12.617
88230SOL    HW266588   8.664   6.256  12.749
88231SOL     OW66589   9.260   8.651   6.052
88231SOL    HW166590   9.253   8.743   6.079
88231SOL    HW266591   9.352   8.629   6.065
88232SOL     OW66592   1.714  11.417   3.807
88232SOL    HW166593   1.759  11.372   3.878
88232SOL    HW266594   1.716  11.354   3.734
88233SOL     OW66595  14.671   5.332   5.483
88233SOL    HW166596  14.740   5.362   5.543
88233SOL    HW266597  14.697   5.243   5.459
88234SOL     OW66598   2.386   0.350   4.543
88234SOL    HW166599   2.452   0.396   4.491
88234SOL    HW266600   2.429   0.335   4.627
88235SOL     OW66601  11.665  11.987   9.264
88235SOL    HW166602  11.742  12.030   9.228
88235SOL    HW266603  11.700  11.913   9.315
88236SOL     OW66604   5.734   9.064   5.893
88236SOL    HW166605   5.780   9.089   5.813
88236SOL    HW266606   5.646   9.100   5.882
88237SOL     OW66607   8.423  12.791   8.446
88237SOL    HW166608   8.341  12.791   8.496
88237SOL    HW266609   8.397  12.811   8.357
88238SOL     OW66610  10.980   1.468   2.300
88238SOL    HW166611  10.983   1.462   2.205
88238SOL    HW266612  10.911   1.408   2.326
88239SOL     OW66613  14.377  11.805   5.319
88239SOL    HW166614  14.327  11.883   5.294
88239SOL    HW266615  14.399  11.818   5.411
88240SOL     OW66616   3.725   5.134   6.579
88240SOL    HW166617   3.698   5.116   6.669
88240SOL    HW266618   3.749   5.048   6.544
88241SOL     OW66619   4.882   7.103   8.761
88241SOL    HW166620   4.901   7.017   8.798
88241SOL    HW266621   4.926   7.104   8.676
88242SOL     OW66622   8.095   3.519   7.226
88242SOL    HW166623   8.023   3.507   7.288
88242SOL    HW266624   8.121   3.610   7.238
88243SOL     OW66625   5.462   2.591  10.943
88243SOL    HW166626   5.544   2.616  10.986
88243SOL    HW266627   5.412   2.672  10.939
88244SOL     OW66628  10.542   0.547   5.648
88244SOL    HW166629  10.602   0.477   5.676
88244SOL    HW266630  10.485   0.505   5.583
88245SOL     OW66631  11.290  11.786   4.261
88245SOL    HW166632  11.303  11.876   4.233
88245SOL    HW266633  11.221  11.753   4.204
88246SOL     OW66634   2.874   6.767   7.873
88246SOL    HW166635   2.938   6.832   7.901
88246SOL    HW266636   2.863   6.782   7.779
88247SOL     OW66637  13.687   7.693  12.486
88247SOL    HW166638  13.626   7.686  12.413
88247SOL    HW266639  13.760   7.635  12.463
88248SOL     OW66640   4.327   1.544  12.133
88248SOL    HW166641   4.391   1.488  12.091
88248SOL    HW266642   4.337   1.527  12.226
88249SOL     OW66643   4.494   6.732   6.236
88249SOL    HW166644   4.531   6.718   6.149
88249SOL    HW266645   4.459   6.646   6.261
88250SOL     OW66646   4.477   0.705   6.777
88250SOL    HW166647   4.486   0.682   6.869
88250SOL    HW266648   4.554   0.668   6.735
88251SOL     OW66649   5.122   9.674   5.421
88251SOL    HW166650   5.089   9.588   5.449
88251SOL    HW266651   5.045   9.730   5.418
88252SOL     OW66652  11.775  14.047  11.401
88252SOL    HW166653  11.711  14.060  11.331
88252SOL    HW266654  11.767  13.955  11.424
88253SOL     OW66655   7.458   8.113   8.388
88253SOL    HW166656   7.475   8.019   8.397
88253SOL    HW266657   7.429   8.123   8.297
88254SOL     OW66658   5.755  14.680   8.505
88254SOL    HW166659   5.738  14.727   8.424
88254SOL    HW266660   5.832  14.723   8.542
88255SOL     OW66661   5.522  10.271   0.171
88255SOL    HW166662   5.474  10.216   0.233
88255SOL    HW266663   5.613  10.242   0.179
88256SOL     OW66664   9.556   8.092   2.546
88256SOL    HW166665   9.530   8.138   2.625
88256SOL    HW266666   9.475   8.082   2.496
88257SOL     OW66667  12.724   7.318   9.482
88257SOL    HW166668  12.689   7.245   9.430
88257SOL    HW266669  12.817   7.320   9.462
88258SOL     OW66670  12.020   3.650   5.800
88258SOL    HW166671  12.039   3.723   5.858
88258SOL    HW266672  11.926   3.656   5.783
88259SOL     OW66673   4.289  10.208   2.199
88259SOL    HW166674   4.347  10.137   2.228
88259SOL    HW266675   4.212  10.164   2.165
88260SOL     OW66676   3.743   3.761   7.651
88260SOL    HW166677   3.692   3.828   7.698
88260SOL    HW266678   3.834   3.789   7.660
88261SOL     OW66679  12.188  12.252   4.029
88261SOL    HW166680  12.277  12.284   4.041
88261SOL    HW266681  12.137  12.330   4.008
88262SOL     OW66682   0.970   9.287   9.772
88262SOL    HW166683   0.975   9.239   9.690
88262SOL    HW266684   1.031   9.242   9.831
88263SOL     OW66685  11.351   6.958   4.317
88263SOL    HW166686  11.366   7.012   4.395
88263SOL    HW266687  11.257   6.968   4.300
88264SOL     OW66688  11.346   2.471  11.155
88264SOL    HW166689  11.340   2.560  11.190
88264SOL    HW266690  11.429   2.437  11.189
88265SOL     OW66691   0.305   1.628   9.398
88265SOL    HW166692   0.393   1.665   9.407
88265SOL    HW266693   0.315   1.537   9.424
88266SOL     OW66694  12.318   0.581   0.562
88266SOL    HW166695  12.367   0.529   0.498
88266SOL    HW266696  12.227   0.555   0.548
88267SOL     OW66697  10.193   9.417   0.525
88267SOL    HW166698  10.228   9.328   0.527
88267SOL    HW266699  10.234   9.461   0.599
88268SOL     OW66700   6.600  12.404   2.652
88268SOL    HW166701   6.611  12.496   2.678
88268SOL    HW266702   6.556  12.409   2.567
88269SOL     OW66703   9.488   6.604   8.100
88269SOL    HW166704   9.451   6.548   8.168
88269SOL    HW266705   9.579   6.578   8.094
88270SOL     OW66706  11.702   1.771   9.702
88270SOL    HW166707  11.737   1.683   9.716
88270SOL    HW266708  11.750   1.804   9.625
88271SOL     OW66709  13.666   7.876   6.060
88271SOL    HW166710  13.721   7.821   6.116
88271SOL    HW266711  13.626   7.939   6.119
88272SOL     OW66712   6.469   5.713   0.606
88272SOL    HW166713   6.387   5.665   0.615
88272SOL    HW266714   6.462   5.757   0.521
88273SOL     OW66715   3.268  12.168  10.483
88273SOL    HW166716   3.184  12.189  10.523
88273SOL    HW266717   3.282  12.075  10.501
88274SOL     OW66718   0.638   3.428   5.085
88274SOL    HW166719   0.646   3.373   5.163
88274SOL    HW266720   0.552   3.469   5.093
88275SOL     OW66721   4.067   5.572   0.552
88275SOL    HW166722   4.087   5.502   0.490
88275SOL    HW266723   3.972   5.568   0.561
88276SOL     OW66724  13.805   0.117  11.513
88276SOL    HW166725  13.717   0.089  11.536
88276SOL    HW266726  13.811   0.207  11.546
88277SOL     OW66727  14.857   6.342   9.608
88277SOL    HW166728  14.806   6.267   9.637
88277SOL    HW266729  14.792   6.406   9.579
88278SOL     OW66730   2.797  11.768   5.372
88278SOL    HW166731   2.886  11.754   5.342
88278SOL    HW266732   2.743  11.719   5.309
88279SOL     OW66733   6.760   1.337   4.539
88279SOL    HW166734   6.725   1.388   4.467
88279SOL    HW266735   6.828   1.283   4.500
88280SOL     OW66736   5.967   6.953  14.427
88280SOL    HW166737   5.940   7.045  14.423
88280SOL    HW266738   5.903   6.911  14.484
88281SOL     OW66739   9.320  13.733   9.100
88281SOL    HW166740   9.278  13.801   9.152
88281SOL    HW266741   9.326  13.658   9.159
88282SOL     OW66742  10.567   7.771  10.128
88282SOL    HW166743  10.589   7.862  10.150
88282SOL    HW266744  10.476   7.762  10.154
88283SOL     OW66745   6.699   1.793   5.517
88283SOL    HW166746   6.703   1.879   5.476
88283SOL    HW266747   6.779   1.788   5.569
88284SOL     OW66748   6.711   2.380  11.288
88284SOL    HW166749   6.705   2.326  11.209
88284SOL    HW266750   6.639   2.350  11.343
88285SOL     OW66751   7.202   6.697  14.113
88285SOL    HW166752   7.185   6.610  14.078
88285SOL    HW266753   7.159   6.756  14.051
88286SOL     OW66754  11.923   4.349  11.519
88286SOL    HW166755  11.897   4.259  11.537
88286SOL    HW266756  11.983   4.342  11.445
88287SOL     OW66757  10.561  10.903   8.386
88287SOL    HW166758  10.498  10.956   8.336
88287SOL    HW266759  10.534  10.812   8.370
88288SOL     OW66760  11.783  13.575   8.544
88288SOL    HW166761  11.762  13.663   8.515
88288SOL    HW266762  11.755  13.519   8.471
88289SOL     OW66763   3.899   9.264   2.797
88289SOL    HW166764   3.889   9.357   2.779
88289SOL    HW266765   3.914   9.225   2.711
88290SOL     OW66766  12.360   4.584   6.083
88290SOL    HW166767  12.430   4.521   6.096
88290SOL    HW266768  12.287   4.533   6.048
88291SOL     OW66769  14.234  13.788   8.852
88291SOL    HW166770  14.255  13.696   8.839
88291SOL    HW266771  14.294  13.835   8.795
88292SOL     OW66772  12.024   7.483   7.177
88292SOL    HW166773  11.954   7.424   7.203
88292SOL    HW266774  12.014   7.559   7.235
88293SOL     OW66775   3.625   7.127  10.781
88293SOL    HW166776   3.625   7.140  10.686
88293SOL    HW266777   3.546   7.077  10.799
88294SOL     OW66778   1.354   4.749   7.176
88294SOL    HW166779   1.296   4.790   7.112
88294SOL    HW266780   1.382   4.668   7.134
88295SOL     OW66781   9.496   9.661   8.128
88295SOL    HW166782   9.431   9.723   8.097
88295SOL    HW266783   9.453   9.614   8.200
88296SOL     OW66784  11.313  14.815  10.723
88296SOL    HW166785  11.257  14.787  10.796
88296SOL    HW266786  11.265   0.019  10.682
88297SOL     OW66787  11.244  10.117   1.154
88297SOL    HW166788  11.258  10.116   1.249
88297SOL    HW266789  11.153  10.089   1.143
88298SOL     OW66790   8.582  11.998   2.410
88298SOL    HW166791   8.596  11.928   2.473
88298SOL    HW266792   8.608  12.077   2.455
88299SOL     OW66793   6.051   9.248  13.172
88299SOL    HW166794   6.074   9.297  13.092
88299SOL    HW266795   6.024   9.316  13.234
88300SOL     OW66796   6.628  11.300   6.524
88300SOL    HW166797   6.575  11.291   6.444
88300SOL    HW266798   6.564  11.301   6.595
88301SOL     OW66799   3.752   6.156   6.640
88301SOL    HW166800   3.682   6.097   6.666
88301SOL    HW266801   3.792   6.114   6.564
88302SOL     OW66802  11.811   9.841   5.721
88302SOL    HW166803  11.735   9.796   5.758
88302SOL    HW266804  11.886   9.800   5.763
88303SOL     OW66805   4.038  12.129   7.746
88303SOL    HW166806   4.003  12.156   7.831
88303SOL    HW266807   4.128  12.102   7.765
88304SOL     OW66808  10.076   7.279  11.803
88304SOL    HW166809   9.997   7.328  11.779
88304SOL    HW266810  10.060   7.248  11.892
88305SOL     OW66811   1.828   1.276   7.133
88305SOL    HW166812   1.800   1.318   7.214
88305SOL    HW266813   1.829   1.346   7.068
88306SOL     OW66814   8.165  11.612   8.593
88306SOL    HW166815   8.182  11.643   8.504
88306SOL    HW266816   8.169  11.517   8.586
88307SOL     OW66817   8.748  14.013   9.115
88307SOL    HW166818   8.753  14.045   9.025
88307SOL    HW266819   8.830  14.041   9.155
88308SOL     OW66820  11.500   5.234  10.246
88308SOL    HW166821  11.540   5.228  10.333
88308SOL    HW266822  11.413   5.272  10.262
88309SOL     OW66823   0.671   4.898   9.368
88309SOL    HW166824   0.644   4.845   9.293
88309SOL    HW266825   0.589   4.921   9.412
88310SOL     OW66826   7.000  10.544   8.425
88310SOL    HW166827   7.049  10.516   8.348
88310SOL    HW266828   7.034  10.490   8.496
88311SOL     OW66829   9.228   9.985   3.276
88311SOL    HW166830   9.224   9.891   3.261
88311SOL    HW266831   9.319  10.009   3.257
88312SOL     OW66832  13.833  13.402   4.161
88312SOL    HW166833  13.894  13.339   4.122
88312SOL    HW266834  13.800  13.453   4.086
88313SOL     OW66835  12.697   1.664  11.257
88313SOL    HW166836  12.687   1.597  11.325
88313SOL    HW266837  12.621   1.651  11.200
88314SOL     OW66838   1.790   0.743   8.170
88314SOL    HW166839   1.769   0.678   8.102
88314SOL    HW266840   1.728   0.814   8.155
88315SOL     OW66841   9.286   6.198   0.255
88315SOL    HW166842   9.291   6.127   0.318
88315SOL    HW266843   9.245   6.159   0.177
88316SOL     OW66844   1.962  13.354   8.384
88316SOL    HW166845   1.974  13.442   8.347
88316SOL    HW266846   2.040  13.340   8.438
88317SOL     OW66847  10.717  10.884  12.646
88317SOL    HW166848  10.740  10.925  12.729
88317SOL    HW266849  10.622  10.889  12.642
88318SOL     OW66850   0.246   0.205   1.010
88318SOL    HW166851   0.328   0.215   0.961
88318SOL    HW266852   0.178   0.238   0.951
88319SOL     OW66853  12.821  13.799  11.560
88319SOL    HW166854  12.839  13.745  11.482
88319SOL    HW266855  12.891  13.775  11.621
88320SOL     OW66856  13.098  13.669   4.941
88320SOL    HW166857  13.058  13.680   5.027
88320SOL    HW266858  13.169  13.607   4.955
88321SOL     OW66859   0.640   9.177   5.679
88321SOL    HW166860   0.711   9.238   5.656
88321SOL    HW266861   0.683   9.091   5.682
88322SOL     OW66862   3.930   1.514   7.607
88322SOL    HW166863   3.902   1.577   7.541
88322SOL    HW266864   4.009   1.473   7.570
88323SOL     OW66865   0.369   7.220   8.689
88323SOL    HW166866   0.298   7.225   8.625
88323SOL    HW266867   0.324   7.205   8.773
88324SOL     OW66868  10.593   5.812   5.085
88324SOL    HW166869  10.607   5.775   5.173
88324SOL    HW266870  10.536   5.748   5.042
88325SOL     OW66871   3.487  11.528  10.806
88325SOL    HW166872   3.541  11.464  10.760
88325SOL    HW266873   3.399  11.515  10.772
88326SOL     OW66874   7.114   0.989  11.575
88326SOL    HW166875   7.047   0.923  11.561
88326SOL    HW266876   7.092   1.028  11.659
88327SOL     OW66877   1.190  14.464  14.629
88327SOL    HW166878   1.279  14.460  14.595
88327SOL    HW266879   1.195  14.529  14.700
88328SOL     OW66880   2.288   0.915   8.349
88328SOL    HW166881   2.201   0.891   8.381
88328SOL    HW266882   2.274   0.941   8.258
88329SOL     OW66883   9.545  11.857  10.931
88329SOL    HW166884   9.449  11.856  10.939
88329SOL    HW266885   9.565  11.779  10.880
88330SOL     OW66886   5.749  13.750   1.798
88330SOL    HW166887   5.700  13.670   1.819
88330SOL    HW266888   5.681  13.816   1.783
88331SOL     OW66889   2.723   4.310  14.677
88331SOL    HW166890   2.713   4.324  14.771
88331SOL    HW266891   2.807   4.350  14.655
88332SOL     OW66892   6.848   0.788  13.027
88332SOL    HW166893   6.863   0.874  13.066
88332SOL    HW266894   6.932   0.765  12.987
88333SOL     OW66895  13.506   0.572  12.891
88333SOL    HW166896  13.444   0.501  12.873
88333SOL    HW266897  13.556   0.581  12.810
88334SOL     OW66898   5.175   0.291   5.719
88334SOL    HW166899   5.255   0.344   5.720
88334SOL    HW266900   5.145   0.295   5.628
88335SOL     OW66901  11.601   0.724   0.322
88335SOL    HW166902  11.576   0.632   0.338
88335SOL    HW266903  11.521   0.765   0.289
88336SOL     OW66904  10.657   9.835   4.971
88336SOL    HW166905  10.731   9.895   4.966
88336SOL    HW266906  10.608   9.851   4.890
88337SOL     OW66907  14.351   5.429  13.250
88337SOL    HW166908  14.375   5.433  13.157
88337SOL    HW266909  14.305   5.511  13.267
88338SOL     OW66910   2.062   0.821   0.076
88338SOL    HW166911   2.060   0.895   0.137
88338SOL    HW266912   1.978   0.827   0.029
88339SOL     OW66913   0.171   8.829   0.148
88339SOL    HW166914   0.193   8.737   0.132
88339SOL    HW266915   0.255   8.874   0.143
88340SOL     OW66916   1.165  12.153   8.149
88340SOL    HW166917   1.070  12.167   8.148
88340SOL    HW266918   1.189  12.160   8.241
88341SOL     OW66919   9.508   8.086  10.982
88341SOL    HW166920   9.431   8.030  10.971
88341SOL    HW266921   9.541   8.066  11.069
88342SOL     OW66922   3.442   5.808   5.114
88342SOL    HW166923   3.460   5.802   5.208
88342SOL    HW266924   3.471   5.723   5.079
88343SOL     OW66925   9.004  14.140   0.907
88343SOL    HW166926   9.073  14.117   0.845
88343SOL    HW266927   9.050  14.180   0.981
88344SOL     OW66928   0.167   2.727  12.801
88344SOL    HW166929   0.208   2.725  12.888
88344SOL    HW266930   0.230   2.683  12.744
88345SOL     OW66931   4.863   1.633  12.438
88345SOL    HW166932   4.778   1.659  12.404
88345SOL    HW266933   4.926   1.688  12.391
88346SOL     OW66934   5.372   3.454   0.549
88346SOL    HW166935   5.433   3.521   0.580
88346SOL    HW266936   5.290   3.500   0.535
88347SOL     OW66937  13.270   7.018  14.655
88347SOL    HW166938  13.269   6.981  14.566
88347SOL    HW266939  13.321   6.956  14.706
88348SOL     OW66940   5.156   2.993   0.671
88348SOL    HW166941   5.132   2.951   0.588
88348SOL    HW266942   5.073   3.001   0.718
88349SOL     OW66943   7.360  11.594  13.480
88349SOL    HW166944   7.352  11.607  13.385
88349SOL    HW266945   7.450  11.562  13.492
88350SOL     OW66946   6.602   0.455  14.776
88350SOL    HW166947   6.573   0.394  14.844
88350SOL    HW266948   6.651   0.401  14.714
88351SOL     OW66949   6.296   8.333   2.206
88351SOL    HW166950   6.209   8.371   2.218
88351SOL    HW266951   6.347   8.367   2.280
88352SOL     OW66952   2.175   3.884   8.691
88352SOL    HW166953   2.204   3.939   8.619
88352SOL    HW266954   2.087   3.857   8.668
88353SOL     OW66955   5.153   1.794   1.118
88353SOL    HW166956   5.061   1.818   1.106
88353SOL    HW266957   5.202   1.865   1.075
88354SOL     OW66958  10.154   8.104  11.432
88354SOL    HW166959  10.197   8.018  11.436
88354SOL    HW266960  10.111   8.104  11.347
88355SOL     OW66961   1.258   2.013  14.741
88355SOL    HW166962   1.305   1.976  14.666
88355SOL    HW266963   1.321   2.071  14.783
88356SOL     OW66964  14.035   0.235   8.991
88356SOL    HW166965  14.023   0.144   9.017
88356SOL    HW266966  13.990   0.286   9.059
88357SOL     OW66967  14.167   1.659   9.344
88357SOL    HW166968  14.164   1.703   9.429
88357SOL    HW266969  14.103   1.706   9.290
88358SOL     OW66970   2.546  11.333   8.435
88358SOL    HW166971   2.588  11.275   8.499
88358SOL    HW266972   2.590  11.314   8.353
88359SOL     OW66973   5.462  10.032   3.071
88359SOL    HW166974   5.386   9.974   3.079
88359SOL    HW266975   5.483  10.057   3.161
88360SOL     OW66976   1.166  11.048  10.939
88360SOL    HW166977   1.235  11.007  10.888
88360SOL    HW266978   1.203  11.132  10.968
88361SOL     OW66979   6.285   1.916   1.722
88361SOL    HW166980   6.225   1.848   1.690
88361SOL    HW266981   6.370   1.873   1.722
88362SOL     OW66982  12.212  13.975  12.288
88362SOL    HW166983  12.260  13.929  12.357
88362SOL    HW266984  12.137  14.013  12.334
88363SOL     OW66985  10.017   2.975   8.658
88363SOL    HW166986   9.996   2.900   8.713
88363SOL    HW266987   9.954   2.971   8.586
88364SOL     OW66988   2.333   3.407   0.168
88364SOL    HW166989   2.377   3.454   0.097
88364SOL    HW266990   2.396   3.341   0.197
88365SOL     OW66991  13.365   6.555   6.103
88365SOL    HW166992  13.286   6.526   6.150
88365SOL    HW266993  13.433   6.558   6.171
88366SOL     OW66994  12.868   1.039   9.289
88366SOL    HW166995  12.903   1.085   9.213
88366SOL    HW266996  12.943   1.027   9.347
88367SOL     OW66997  11.874  11.802  12.705
88367SOL    HW166998  11.928  11.854  12.645
88367SOL    HW266999  11.801  11.772  12.651
88368SOL     OW67000   5.363  13.385  10.297
88368SOL    HW167001   5.271  13.395  10.321
88368SOL    HW267002   5.405  13.463  10.334
88369SOL     OW67003  13.399   8.907  11.214
88369SOL    HW167004  13.352   8.991  11.215
88369SOL    HW267005  13.473   8.921  11.274
88370SOL     OW67006   5.309  12.656   5.741
88370SOL    HW167007   5.319  12.643   5.835
88370SOL    HW267008   5.397  12.645   5.705
88371SOL     OW67009  12.213   3.929   2.162
88371SOL    HW167010  12.155   3.902   2.090
88371SOL    HW267011  12.210   4.024   2.161
88372SOL     OW67012   6.538  11.032   8.219
88372SOL    HW167013   6.605  11.071   8.164
88372SOL    HW267014   6.456  11.073   8.191
88373SOL     OW67015  11.780  11.956  12.124
88373SOL    HW167016  11.833  11.940  12.202
88373SOL    HW267017  11.716  12.022  12.151
88374SOL     OW67018   5.144  13.835  12.772
88374SOL    HW167019   5.111  13.870  12.689
88374SOL    HW267020   5.225  13.883  12.787
88375SOL     OW67021  13.245   3.797   9.221
88375SOL    HW167022  13.224   3.801   9.128
88375SOL    HW267023  13.161   3.782   9.264
88376SOL     OW67024   6.803   9.268  13.047
88376SOL    HW167025   6.826   9.331  13.115
88376SOL    HW267026   6.721   9.302  13.011
88377SOL     OW67027  12.899  12.661   0.979
88377SOL    HW167028  12.891  12.721   0.905
88377SOL    HW267029  12.992  12.665   1.004
88378SOL     OW67030  13.693  14.079   9.849
88378SOL    HW167031  13.677  13.991   9.883
88378SOL    HW267032  13.663  14.075   9.758
88379SOL     OW67033   2.164  11.346  14.143
88379SOL    HW167034   2.242  11.367  14.194
88379SOL    HW267035   2.187  11.372  14.053
88380SOL     OW67036  12.094   9.048   7.164
88380SOL    HW167037  12.051   9.132   7.180
88380SOL    HW267038  12.178   9.055   7.210
88381SOL     OW67039  14.694  13.605   1.698
88381SOL    HW167040  14.663  13.517   1.677
88381SOL    HW267041  14.641  13.662   1.643
88382SOL     OW67042   9.851   0.418   7.055
88382SOL    HW167043   9.880   0.400   7.144
88382SOL    HW267044   9.795   0.344   7.033
88383SOL     OW67045   1.744  11.860   9.142
88383SOL    HW167046   1.757  11.886   9.051
88383SOL    HW267047   1.669  11.801   9.140
88384SOL     OW67048  14.851  14.023   7.553
88384SOL    HW167049   0.022  14.106   7.579
88384SOL    HW267050  14.789  14.003   7.623
88385SOL     OW67051   6.407  11.911   9.593
88385SOL    HW167052   6.427  11.819   9.576
88385SOL    HW267053   6.487  11.947   9.632
88386SOL     OW67054   8.980   3.791   9.382
88386SOL    HW167055   8.893   3.811   9.416
88386SOL    HW267056   9.015   3.726   9.442
88387SOL     OW67057  11.712  13.543   2.630
88387SOL    HW167058  11.785  13.606   2.628
88387SOL    HW267059  11.744  13.471   2.683
88388SOL     OW67060   0.894  12.556   9.393
88388SOL    HW167061   0.863  12.645   9.413
88388SOL    HW267062   0.958  12.537   9.461
88389SOL     OW67063  12.799   2.133   3.970
88389SOL    HW167064  12.868   2.067   3.963
88389SOL    HW267065  12.829   2.193   4.038
88390SOL     OW67066   8.618  10.299   4.919
88390SOL    HW167067   8.572  10.326   4.998
88390SOL    HW267068   8.553  10.307   4.849
88391SOL     OW67069   0.976  13.203   9.888
88391SOL    HW167070   0.895  13.249   9.869
88391SOL    HW267071   0.986  13.141   9.816
88392SOL     OW67072   9.949   5.588   6.216
88392SOL    HW167073   9.904   5.504   6.207
88392SOL    HW267074   9.879   5.653   6.210
88393SOL     OW67075  10.323   3.345   6.107
88393SOL    HW167076  10.295   3.279   6.043
88393SOL    HW267077  10.365   3.294   6.176
88394SOL     OW67078  13.269   9.531   7.824
88394SOL    HW167079  13.322   9.608   7.806
88394SOL    HW267080  13.192   9.565   7.870
88395SOL     OW67081   7.227  12.878  11.107
88395SOL    HW167082   7.143  12.897  11.066
88395SOL    HW267083   7.288  12.941  11.067
88396SOL     OW67084   6.051  11.783  14.305
88396SOL    HW167085   6.084  11.813  14.221
88396SOL    HW267086   6.129  11.768  14.358
88397SOL     OW67087  10.479  12.240  14.409
88397SOL    HW167088  10.562  12.225  14.363
88397SOL    HW267089  10.460  12.332  14.395
88398SOL     OW67090  13.456   7.576  11.377
88398SOL    HW167091  13.549   7.583  11.399
88398SOL    HW267092  13.446   7.488  11.341
88399SOL     OW67093   8.669   8.004   8.846
88399SOL    HW167094   8.587   8.014   8.895
88399SOL    HW267095   8.644   8.017   8.754
88400SOL     OW67096   3.101   9.966  13.871
88400SOL    HW167097   3.165   9.927  13.931
88400SOL    HW267098   3.153   9.997  13.797
88401SOL     OW67099   3.212   5.044   0.014
88401SOL    HW167100   3.171   4.965  14.847
88401SOL    HW267101   3.139   5.096   0.048
88402SOL     OW67102   8.101   5.873   6.999
88402SOL    HW167103   8.142   5.925   7.068
88402SOL    HW267104   8.150   5.896   6.920
88403SOL     OW67105   8.472  14.560   9.098
88403SOL    HW167106   8.501  14.572   9.188
88403SOL    HW267107   8.536  14.499   9.060
88404SOL     OW67108  13.721  12.122   6.144
88404SOL    HW167109  13.650  12.116   6.080
88404SOL    HW267110  13.693  12.067   6.216
88405SOL     OW67111  12.269   6.731  12.758
88405SOL    HW167112  12.277   6.826  12.755
88405SOL    HW267113  12.355   6.698  12.732
88406SOL     OW67114  10.852  10.001   8.145
88406SOL    HW167115  10.882   9.963   8.063
88406SOL    HW267116  10.762   9.968   8.156
88407SOL     OW67117   8.357  11.368   5.058
88407SOL    HW167118   8.410  11.305   5.010
88407SOL    HW267119   8.300  11.407   4.992
88408SOL     OW67120  11.519  13.187   7.013
88408SOL    HW167121  11.495  13.223   6.927
88408SOL    HW267122  11.450  13.122   7.031
88409SOL     OW67123   8.759  12.112   1.014
88409SOL    HW167124   8.837  12.158   1.045
88409SOL    HW267125   8.734  12.056   1.087
88410SOL     OW67126   0.592  10.445   7.741
88410SOL    HW167127   0.553  10.402   7.818
88410SOL    HW267128   0.671  10.486   7.775
88411SOL     OW67129   6.392   0.375  14.317
88411SOL    HW167130   6.429   0.292  14.347
88411SOL    HW267131   6.314   0.350  14.268
88412SOL     OW67132  12.991  13.267   1.598
88412SOL    HW167133  12.936  13.228   1.666
88412SOL    HW267134  13.043  13.332   1.644
88413SOL     OW67135  11.069   6.897   4.892
88413SOL    HW167136  11.049   6.972   4.835
88413SOL    HW267137  11.079   6.823   4.833
88414SOL     OW67138   8.657   9.281  12.249
88414SOL    HW167139   8.691   9.251  12.333
88414SOL    HW267140   8.709   9.233  12.184
88415SOL     OW67141   1.374   2.243  14.318
88415SOL    HW167142   1.356   2.315  14.258
88415SOL    HW267143   1.292   2.193  14.321
88416SOL     OW67144   5.745  12.009   3.616
88416SOL    HW167145   5.795  12.091   3.610
88416SOL    HW267146   5.750  11.985   3.709
88417SOL     OW67147   0.795   3.847   2.407
88417SOL    HW167148   0.838   3.869   2.324
88417SOL    HW267149   0.786   3.751   2.404
88418SOL     OW67150  11.096  14.366   8.546
88418SOL    HW167151  11.104  14.453   8.585
88418SOL    HW267152  11.115  14.379   8.453
88419SOL     OW67153   9.519   2.310  13.519
88419SOL    HW167154   9.506   2.381  13.455
88419SOL    HW267155   9.431   2.288  13.548
88420SOL     OW67156   2.426   4.107   0.611
88420SOL    HW167157   2.458   4.140   0.695
88420SOL    HW267158   2.437   4.012   0.616
88421SOL     OW67159   7.862   8.153   2.122
88421SOL    HW167160   7.874   8.058   2.118
88421SOL    HW267161   7.867   8.181   2.030
88422SOL     OW67162   7.564   9.754   5.061
88422SOL    HW167163   7.533   9.703   4.985
88422SOL    HW267164   7.647   9.791   5.032
88423SOL     OW67165  10.633   2.901  11.820
88423SOL    HW167166  10.692   2.949  11.878
88423SOL    HW267167  10.691   2.843  11.770
88424SOL     OW67168   2.982  14.752   4.994
88424SOL    HW167169   3.026  14.667   5.001
88424SOL    HW267170   2.910  14.736   4.933
88425SOL     OW67171   3.644   2.084   7.851
88425SOL    HW167172   3.638   1.989   7.835
88425SOL    HW267173   3.596   2.098   7.932
88426SOL     OW67174  10.172   6.170  10.284
88426SOL    HW167175  10.088   6.207  10.259
88426SOL    HW267176  10.154   6.078  10.302
88427SOL     OW67177  14.129   6.897   8.285
88427SOL    HW167178  14.198   6.963   8.292
88427SOL    HW267179  14.162   6.821   8.333
88428SOL     OW67180  13.536   0.432   2.475
88428SOL    HW167181  13.506   0.441   2.566
88428SOL    HW267182  13.456   0.440   2.423
88429SOL     OW67183   8.255   9.069   4.259
88429SOL    HW167184   8.300   9.031   4.334
88429SOL    HW267185   8.176   9.016   4.248
88430SOL     OW67186   2.299   9.295  13.255
88430SOL    HW167187   2.270   9.371  13.306
88430SOL    HW267188   2.308   9.225  13.319
88431SOL     OW67189   7.247  12.030   7.148
88431SOL    HW167190   7.303  11.960   7.179
88431SOL    HW267191   7.217  12.074   7.228
88432SOL     OW67192   5.120  12.493   9.256
88432SOL    HW167193   5.188  12.517   9.194
88432SOL    HW267194   5.038  12.516   9.213
88433SOL     OW67195   6.486  14.790   5.031
88433SOL    HW167196   6.426  14.716   5.029
88433SOL    HW267197   6.449  14.849   5.097
88434SOL     OW67198   4.860   2.817   6.668
88434SOL    HW167199   4.953   2.824   6.649
88434SOL    HW267200   4.827   2.754   6.604
88435SOL     OW67201   9.485  11.948  11.408
88435SOL    HW167202   9.503  11.866  11.362
88435SOL    HW267203   9.454  12.008  11.340
88436SOL     OW67204   8.942   0.032   8.943
88436SOL    HW167205   8.922  14.839   9.014
88436SOL    HW267206   8.971  14.844   8.871
88437SOL     OW67207   8.844   6.477   7.295
88437SOL    HW167208   8.873   6.389   7.271
88437SOL    HW267209   8.922   6.518   7.333
88438SOL     OW67210   0.314   4.688   8.154
88438SOL    HW167211   0.257   4.642   8.093
88438SOL    HW267212   0.255   4.722   8.221
88439SOL     OW67213   5.550   8.158   8.975
88439SOL    HW167214   5.620   8.118   8.925
88439SOL    HW267215   5.509   8.220   8.914
88440SOL     OW67216   1.991   8.208  11.717
88440SOL    HW167217   1.935   8.176  11.788
88440SOL    HW267218   1.990   8.138  11.652
88441SOL     OW67219   7.352   6.181   7.033
88441SOL    HW167220   7.307   6.116   6.979
88441SOL    HW267221   7.391   6.242   6.970
88442SOL     OW67222   2.433  13.696   7.085
88442SOL    HW167223   2.446  13.645   7.005
88442SOL    HW267224   2.339  13.711   7.090
88443SOL     OW67225   2.780   8.197  11.397
88443SOL    HW167226   2.712   8.132  11.381
88443SOL    HW267227   2.774   8.216  11.490
88444SOL     OW67228  11.844   5.497   5.623
88444SOL    HW167229  11.870   5.511   5.532
88444SOL    HW267230  11.825   5.585   5.656
88445SOL     OW67231   9.362   5.317  14.057
88445SOL    HW167232   9.274   5.353  14.068
88445SOL    HW267233   9.420   5.390  14.079
88446SOL     OW67234   2.182  10.351   8.821
88446SOL    HW167235   2.241  10.276   8.814
88446SOL    HW267236   2.125  10.329   8.894
88447SOL     OW67237  12.316   4.335   8.316
88447SOL    HW167238  12.391   4.389   8.289
88447SOL    HW267239  12.260   4.332   8.239
88448SOL     OW67240  12.183   8.093   4.193
88448SOL    HW167241  12.213   8.007   4.221
88448SOL    HW267242  12.144   8.132   4.272
88449SOL     OW67243   3.658   8.503   1.489
88449SOL    HW167244   3.674   8.568   1.558
88449SOL    HW267245   3.564   8.510   1.472
88450SOL     OW67246   2.512   5.540   0.441
88450SOL    HW167247   2.437   5.552   0.498
88450SOL    HW267248   2.493   5.593   0.364
88451SOL     OW67249   6.240   1.971  13.355
88451SOL    HW167250   6.154   1.975  13.397
88451SOL    HW267251   6.293   1.918  13.414
88452SOL     OW67252   3.161   7.370   5.335
88452SOL    HW167253   3.238   7.343   5.285
88452SOL    HW267254   3.088   7.363   5.273
88453SOL     OW67255  13.406   0.586   4.697
88453SOL    HW167256  13.365   0.601   4.783
88453SOL    HW267257  13.438   0.496   4.701
88454SOL     OW67258  12.304  14.769   7.722
88454SOL    HW167259  12.265  14.682   7.713
88454SOL    HW267260  12.325  14.794   7.632
88455SOL     OW67261  14.605   7.929  11.691
88455SOL    HW167262  14.692   7.894  11.668
88455SOL    HW267263  14.622   8.020  11.713
88456SOL     OW67264   3.395  13.585   6.167
88456SOL    HW167265   3.343  13.661   6.191
88456SOL    HW267266   3.485  13.617   6.163
88457SOL     OW67267  14.314  13.678   5.957
88457SOL    HW167268  14.339  13.592   5.992
88457SOL    HW267269  14.350  13.741   6.020
88458SOL     OW67270   6.730   7.555   5.634
88458SOL    HW167271   6.799   7.491   5.651
88458SOL    HW267272   6.687   7.568   5.718
88459SOL     OW67273   7.382  14.476  13.030
88459SOL    HW167274   7.349  14.389  13.008
88459SOL    HW267275   7.381  14.479  13.125
88460SOL     OW67276   4.884   4.897   2.518
88460SOL    HW167277   4.928   4.813   2.501
88460SOL    HW267278   4.836   4.882   2.600
88461SOL     OW67279   5.399   8.869   0.845
88461SOL    HW167280   5.382   8.777   0.824
88461SOL    HW267281   5.452   8.901   0.772
88462SOL     OW67282   5.717   3.613   8.744
88462SOL    HW167283   5.715   3.674   8.670
88462SOL    HW267284   5.789   3.644   8.798
88463SOL     OW67285   6.192  10.218  13.513
88463SOL    HW167286   6.261  10.279  13.538
88463SOL    HW267287   6.221  10.183  13.429
88464SOL     OW67288   5.352   1.205   3.569
88464SOL    HW167289   5.314   1.271   3.510
88464SOL    HW267290   5.284   1.138   3.576
88465SOL     OW67291   5.653   5.431   2.203
88465SOL    HW167292   5.661   5.336   2.216
88465SOL    HW267293   5.713   5.450   2.131
88466SOL     OW67294  13.431   0.023  11.911
88466SOL    HW167295  13.373  14.820  11.937
88466SOL    HW267296  13.380   0.075  11.849
88467SOL     OW67297  12.488  14.230   0.411
88467SOL    HW167298  12.399  14.266   0.405
88467SOL    HW267299  12.493  14.191   0.498
88468SOL     OW67300   6.780   7.762  14.321
88468SOL    HW167301   6.839   7.695  14.287
88468SOL    HW267302   6.831   7.843  14.319
88469SOL     OW67303   8.270   7.121   1.729
88469SOL    HW167304   8.218   7.167   1.662
88469SOL    HW267305   8.270   7.180   1.804
88470SOL     OW67306   4.468   4.202   0.491
88470SOL    HW167307   4.425   4.251   0.561
88470SOL    HW267308   4.397   4.178   0.432
88471SOL     OW67309   3.045   0.587   4.554
88471SOL    HW167310   3.092   0.611   4.474
88471SOL    HW267311   2.994   0.510   4.529
88472SOL     OW67312  12.373  12.162   2.125
88472SOL    HW167313  12.332  12.224   2.064
88472SOL    HW267314  12.414  12.096   2.070
88473SOL     OW67315  11.415   3.331  12.570
88473SOL    HW167316  11.367   3.248  12.578
88473SOL    HW267317  11.368   3.392  12.627
88474SOL     OW67318   1.862   3.078  11.463
88474SOL    HW167319   1.944   3.104  11.421
88474SOL    HW267320   1.800   3.067  11.390
88475SOL     OW67321   1.764   5.601  12.730
88475SOL    HW167322   1.846   5.562  12.699
88475SOL    HW267323   1.737   5.546  12.803
88476SOL     OW67324   4.806   3.828  13.031
88476SOL    HW167325   4.861   3.838  12.953
88476SOL    HW267326   4.732   3.888  13.016
88477SOL     OW67327  12.413   3.923   1.415
88477SOL    HW167328  12.438   3.879   1.496
88477SOL    HW267329  12.320   3.943   1.426
88478SOL     OW67330   0.598  12.911   5.352
88478SOL    HW167331   0.684  12.887   5.318
88478SOL    HW267332   0.545  12.832   5.340
88479SOL     OW67333  12.607  12.809  11.121
88479SOL    HW167334  12.555  12.729  11.116
88479SOL    HW267335  12.686  12.783  11.168
88480SOL     OW67336  14.138   9.830  12.137
88480SOL    HW167337  14.149   9.810  12.044
88480SOL    HW267338  14.083   9.758  12.170
88481SOL     OW67339   9.641   4.839  10.431
88481SOL    HW167340   9.682   4.925  10.427
88481SOL    HW267341   9.627   4.823  10.525
88482SOL     OW67342  13.432   7.915   7.366
88482SOL    HW167343  13.455   7.978   7.434
88482SOL    HW267344  13.345   7.942   7.337
88483SOL     OW67345   3.986   7.616   7.868
88483SOL    HW167346   4.044   7.547   7.834
88483SOL    HW267347   4.013   7.626   7.959
88484SOL     OW67348  11.004   8.448  13.637
88484SOL    HW167349  11.068   8.443  13.708
88484SOL    HW267350  10.979   8.357  13.620
88485SOL     OW67351   1.136   8.866   4.761
88485SOL    HW167352   1.201   8.934   4.775
88485SOL    HW267353   1.187   8.788   4.739
88486SOL     OW67354   1.609   8.815  11.514
88486SOL    HW167355   1.623   8.731  11.558
88486SOL    HW267356   1.646   8.803  11.427
88487SOL     OW67357  10.096   2.879   0.208
88487SOL    HW167358  10.134   2.924   0.284
88487SOL    HW267359  10.010   2.851   0.238
88488SOL     OW67360  12.365   3.191   8.211
88488SOL    HW167361  12.413   3.155   8.137
88488SOL    HW267362  12.289   3.234   8.172
88489SOL     OW67363   7.000   9.807   0.998
88489SOL    HW167364   6.966   9.772   1.080
88489SOL    HW267365   7.071   9.866   1.024
88490SOL     OW67366   4.391   2.622  12.148
88490SOL    HW167367   4.453   2.598  12.079
88490SOL    HW267368   4.368   2.713  12.130
88491SOL     OW67369   2.511  13.306   4.417
88491SOL    HW167370   2.537  13.232   4.362
88491SOL    HW267371   2.578  13.372   4.401
88492SOL     OW67372   0.892   6.406   1.258
88492SOL    HW167373   0.805   6.435   1.282
88492SOL    HW267374   0.942   6.407   1.339
88493SOL     OW67375   5.860  10.176   2.979
88493SOL    HW167376   5.764  10.175   2.976
88493SOL    HW267377   5.887  10.142   2.894
88494SOL     OW67378   4.045  10.738  12.099
88494SOL    HW167379   4.050  10.714  12.007
88494SOL    HW267380   4.050  10.655  12.146
88495SOL     OW67381   1.628   8.110   5.831
88495SOL    HW167382   1.558   8.089   5.769
88495SOL    HW267383   1.588   8.173   5.892
88496SOL     OW67384  11.977   8.472   8.346
88496SOL    HW167385  11.990   8.559   8.308
88496SOL    HW267386  12.044   8.466   8.413
88497SOL     OW67387   4.614  12.922  10.294
88497SOL    HW167388   4.575  12.930  10.381
88497SOL    HW267389   4.539  12.929  10.234
88498SOL     OW67390   0.708   8.405   8.981
88498SOL    HW167391   0.695   8.332   8.920
88498SOL    HW267392   0.729   8.363   9.065
88499SOL     OW67393   8.625  10.871  12.744
88499SOL    HW167394   8.543  10.887  12.698
88499SOL    HW267395   8.689  10.859  12.674
88500SOL     OW67396   6.648   1.902   4.158
88500SOL    HW167397   6.683   1.989   4.137
88500SOL    HW267398   6.561   1.901   4.118
88501SOL     OW67399   4.473   3.815   5.890
88501SOL    HW167400   4.462   3.722   5.906
88501SOL    HW267401   4.531   3.820   5.814
88502SOL     OW67402  12.030   1.300   7.754
88502SOL    HW167403  12.106   1.334   7.802
88502SOL    HW267404  12.009   1.218   7.799
88503SOL     OW67405   7.855   4.422   4.707
88503SOL    HW167406   7.874   4.513   4.683
88503SOL    HW267407   7.781   4.429   4.769
88504SOL     OW67408  14.717   7.600   3.758
88504SOL    HW167409  14.725   7.657   3.835
88504SOL    HW267410  14.769   7.523   3.779
88505SOL     OW67411   1.989   9.060   2.581
88505SOL    HW167412   1.962   9.131   2.638
88505SOL    HW267413   2.085   9.064   2.581
88506SOL     OW67414   3.906   9.380   2.086
88506SOL    HW167415   3.955   9.398   2.166
88506SOL    HW267416   3.838   9.447   2.084
88507SOL     OW67417   2.905   1.396   4.555
88507SOL    HW167418   2.900   1.407   4.460
88507SOL    HW267419   2.985   1.442   4.580
88508SOL     OW67420   9.131  10.443   2.772
88508SOL    HW167421   9.087  10.406   2.849
88508SOL    HW267422   9.081  10.410   2.698
88509SOL     OW67423   5.022   5.143   0.534
88509SOL    HW167424   5.113   5.114   0.531
88509SOL    HW267425   4.988   5.107   0.616
88510SOL     OW67426   4.040   7.098  10.168
88510SOL    HW167427   4.073   7.014  10.199
88510SOL    HW267428   3.953   7.106  10.207
88511SOL     OW67429   7.193   3.030   3.056
88511SOL    HW167430   7.128   3.059   3.119
88511SOL    HW267431   7.263   2.993   3.109
88512SOL     OW67432   1.083  14.079   9.734
88512SOL    HW167433   1.132  14.024   9.672
88512SOL    HW267434   1.085  14.166   9.695
88513SOL     OW67435  11.954   2.989   0.566
88513SOL    HW167436  12.039   3.032   0.579
88513SOL    HW267437  11.895   3.059   0.540
88514SOL     OW67438   5.663  13.070   2.346
88514SOL    HW167439   5.584  13.087   2.398
88514SOL    HW267440   5.711  13.153   2.346
88515SOL     OW67441   9.981  13.665   1.726
88515SOL    HW167442  10.065  13.668   1.772
88515SOL    HW267443  10.004  13.644   1.635
88516SOL     OW67444   7.848  12.590   1.015
88516SOL    HW167445   7.845  12.518   1.078
88516SOL    HW267446   7.882  12.550   0.934
88517SOL     OW67447   2.634   8.090   6.961
88517SOL    HW167448   2.619   8.002   6.995
88517SOL    HW267449   2.694   8.130   7.024
88518SOL     OW67450   2.143  14.832  10.166
88518SOL    HW167451   2.195  14.831  10.246
88518SOL    HW267452   2.071  14.772  10.183
88519SOL     OW67453  14.049   7.322  12.541
88519SOL    HW167454  14.137   7.316  12.578
88519SOL    HW267455  13.998   7.369  12.607
88520SOL     OW67456   4.847   1.989   8.223
88520SOL    HW167457   4.828   2.043   8.301
88520SOL    HW267458   4.881   2.051   8.159
88521SOL     OW67459   4.968  11.996  13.116
88521SOL    HW167460   5.059  11.992  13.086
88521SOL    HW267461   4.921  12.033  13.042
88522SOL     OW67462   3.517  12.562   9.695
88522SOL    HW167463   3.576  12.539   9.767
88522SOL    HW267464   3.507  12.657   9.701
88523SOL     OW67465   0.030   6.399   6.568
88523SOL    HW167466   0.060   6.309   6.586
88523SOL    HW267467   0.096   6.454   6.611
88524SOL     OW67468   8.097   8.186   6.954
88524SOL    HW167469   8.123   8.278   6.953
88524SOL    HW267470   8.144   8.148   7.029
88525SOL     OW67471  13.393   3.982   4.320
88525SOL    HW167472  13.397   3.891   4.349
88525SOL    HW267473  13.480   4.018   4.340
88526SOL     OW67474  10.957   5.064   3.767
88526SOL    HW167475  10.903   5.000   3.815
88526SOL    HW267476  11.047   5.044   3.794
88527SOL     OW67477   3.339  14.319   2.514
88527SOL    HW167478   3.301  14.338   2.428
88527SOL    HW267479   3.418  14.373   2.518
88528SOL     OW67480   2.841  10.809  11.179
88528SOL    HW167481   2.868  10.729  11.224
88528SOL    HW267482   2.798  10.778  11.099
88529SOL     OW67483   9.496   2.623  14.474
88529SOL    HW167484   9.489   2.653  14.383
88529SOL    HW267485   9.414   2.650  14.514
88530SOL     OW67486   1.621  13.579   9.710
88530SOL    HW167487   1.572  13.578   9.792
88530SOL    HW267488   1.570  13.521   9.652
88531SOL     OW67489   1.217  11.154   8.974
88531SOL    HW167490   1.292  11.209   8.952
88531SOL    HW267491   1.157  11.165   8.901
88532SOL     OW67492  14.331   5.772   7.676
88532SOL    HW167493  14.334   5.741   7.766
88532SOL    HW267494  14.336   5.868   7.683
88533SOL     OW67495   9.689  11.093  10.656
88533SOL    HW167496   9.629  11.160  10.623
88533SOL    HW267497   9.709  11.039  10.579
88534SOL     OW67498   7.797   9.417  11.824
88534SOL    HW167499   7.823   9.452  11.739
88534SOL    HW267500   7.876   9.377  11.859
88535SOL     OW67501   0.434  12.189  14.791
88535SOL    HW167502   0.402  12.193  14.701
88535SOL    HW267503   0.525  12.219  14.785
88536SOL     OW67504   9.740   1.580   0.714
88536SOL    HW167505   9.678   1.608   0.781
88536SOL    HW267506   9.713   1.627   0.635
88537SOL     OW67507  10.264   7.784   1.841
88537SOL    HW167508  10.227   7.872   1.844
88537SOL    HW267509  10.281   7.762   1.933
88538SOL     OW67510  12.304   8.346  11.447
88538SOL    HW167511  12.293   8.421  11.506
88538SOL    HW267512  12.382   8.366  11.397
88539SOL     OW67513  13.046   4.220  12.141
88539SOL    HW167514  12.971   4.229  12.083
88539SOL    HW267515  13.031   4.137  12.188
88540SOL     OW67516  11.226   5.995   8.984
88540SOL    HW167517  11.262   5.993   8.896
88540SOL    HW267518  11.208   5.904   9.005
88541SOL     OW67519   3.124   3.960   2.351
88541SOL    HW167520   3.062   3.899   2.309
88541SOL    HW267521   3.209   3.936   2.315
88542SOL     OW67522  13.379   9.951   1.346
88542SOL    HW167523  13.459   9.992   1.312
88542SOL    HW267524  13.321  10.025   1.366
88543SOL     OW67525  10.913   0.801   3.062
88543SOL    HW167526  10.871   0.778   3.145
88543SOL    HW267527  10.999   0.836   3.087
88544SOL     OW67528  13.197   3.336   9.065
88544SOL    HW167529  13.278   3.376   9.032
88544SOL    HW267530  13.184   3.377   9.151
88545SOL     OW67531   2.361  10.971   2.187
88545SOL    HW167532   2.291  11.035   2.174
88545SOL    HW267533   2.326  10.889   2.151
88546SOL     OW67534   2.368   7.910   7.584
88546SOL    HW167535   2.430   7.977   7.611
88546SOL    HW267536   2.345   7.932   7.494
88547SOL     OW67537   9.554  11.193   1.440
88547SOL    HW167538   9.538  11.129   1.509
88547SOL    HW267539   9.626  11.155   1.388
88548SOL     OW67540  14.287   4.599  11.553
88548SOL    HW167541  14.304   4.629  11.643
88548SOL    HW267542  14.224   4.528  11.563
88549SOL     OW67543   2.631   7.864   8.387
88549SOL    HW167544   2.630   7.785   8.441
88549SOL    HW267545   2.723   7.875   8.362
88550SOL     OW67546   7.693  12.200   7.788
88550SOL    HW167547   7.654  12.126   7.835
88550SOL    HW267548   7.648  12.277   7.823
88551SOL     OW67549   7.737   1.360   6.969
88551SOL    HW167550   7.660   1.367   6.912
88551SOL    HW267551   7.734   1.438   7.024
88552SOL     OW67552   7.260   4.502   9.170
88552SOL    HW167553   7.209   4.510   9.089
88552SOL    HW267554   7.213   4.557   9.233
88553SOL     OW67555   1.922  12.096   2.978
88553SOL    HW167556   1.914  12.123   2.886
88553SOL    HW267557   1.848  12.036   2.991
88554SOL     OW67558   5.584   6.519   3.284
88554SOL    HW167559   5.612   6.431   3.258
88554SOL    HW267560   5.488   6.512   3.290
88555SOL     OW67561   3.098   2.518  11.539
88555SOL    HW167562   3.156   2.547  11.469
88555SOL    HW267563   3.054   2.441  11.504
88556SOL     OW67564   1.029  11.060   3.129
88556SOL    HW167565   0.950  11.108   3.156
88556SOL    HW267566   1.089  11.070   3.203
88557SOL     OW67567  13.537   5.309   0.841
88557SOL    HW167568  13.502   5.242   0.783
88557SOL    HW267569  13.574   5.375   0.781
88558SOL     OW67570   3.036   8.394   9.404
88558SOL    HW167571   3.084   8.312   9.415
88558SOL    HW267572   3.002   8.414   9.491
88559SOL     OW67573  12.513   8.848   5.852
88559SOL    HW167574  12.418   8.843   5.841
88559SOL    HW267575  12.527   8.829   5.945
88560SOL     OW67576   9.901   9.661  10.576
88560SOL    HW167577   9.942   9.580  10.545
88560SOL    HW267578   9.809   9.637  10.589
88561SOL     OW67579  12.117   1.459   5.041
88561SOL    HW167580  12.211   1.449   5.060
88561SOL    HW267581  12.089   1.530   5.098
88562SOL     OW67582   7.599  12.193  12.098
88562SOL    HW167583   7.598  12.098  12.113
88562SOL    HW267584   7.690  12.218  12.113
88563SOL     OW67585   1.960   2.572  13.499
88563SOL    HW167586   1.909   2.557  13.420
88563SOL    HW267587   1.998   2.659  13.488
88564SOL     OW67588   7.403   7.222  14.186
88564SOL    HW167589   7.398   7.250  14.095
88564SOL    HW267590   7.429   7.130  14.182
88565SOL     OW67591  14.273   7.350  13.960
88565SOL    HW167592  14.216   7.427  13.951
88565SOL    HW267593  14.351   7.371  13.909
88566SOL     OW67594   4.564   6.223   2.744
88566SOL    HW167595   4.520   6.306   2.764
88566SOL    HW267596   4.500   6.173   2.694
88567SOL     OW67597   6.180   6.130   1.284
88567SOL    HW167598   6.261   6.126   1.233
88567SOL    HW267599   6.208   6.116   1.375
88568SOL     OW67600  13.664   3.739   9.097
88568SOL    HW167601  13.605   3.749   9.023
88568SOL    HW267602  13.724   3.814   9.092
88569SOL     OW67603   3.695   5.832  14.010
88569SOL    HW167604   3.781   5.798  13.982
88569SOL    HW267605   3.716   5.901  14.072
88570SOL     OW67606   4.025   9.263   7.657
88570SOL    HW167607   4.078   9.342   7.642
88570SOL    HW267608   4.040   9.209   7.579
88571SOL     OW67609   6.274   7.218   1.868
88571SOL    HW167610   6.270   7.314   1.865
88571SOL    HW267611   6.347   7.195   1.810
88572SOL     OW67612  14.075  10.547   8.392
88572SOL    HW167613  14.056  10.519   8.302
88572SOL    HW267614  14.169  10.530   8.403
88573SOL     OW67615  13.905  12.792   4.286
88573SOL    HW167616  13.912  12.824   4.376
88573SOL    HW267617  13.888  12.870   4.233
88574SOL     OW67618   9.284   4.554   6.671
88574SOL    HW167619   9.191   4.541   6.656
88574SOL    HW267620   9.298   4.526   6.761
88575SOL     OW67621   8.766   8.871   6.631
88575SOL    HW167622   8.770   8.777   6.615
88575SOL    HW267623   8.846   8.891   6.680
88576SOL     OW67624  14.582  10.542   7.613
88576SOL    HW167625  14.518  10.612   7.599
88576SOL    HW267626  14.603  10.547   7.706
88577SOL     OW67627   9.652   6.753   1.367
88577SOL    HW167628   9.614   6.752   1.279
88577SOL    HW267629   9.696   6.668   1.374
88578SOL     OW67630  12.492  13.059   0.586
88578SOL    HW167631  12.541  13.093   0.660
88578SOL    HW267632  12.559  13.030   0.524
88579SOL     OW67633  12.940   0.971   7.449
88579SOL    HW167634  12.855   0.930   7.440
88579SOL    HW267635  12.942   1.002   7.540
88580SOL     OW67636   6.158   9.825   8.993
88580SOL    HW167637   6.112   9.746   9.020
88580SOL    HW267638   6.211   9.797   8.918
88581SOL     OW67639  13.224   7.996   1.165
88581SOL    HW167640  13.161   8.061   1.196
88581SOL    HW267641  13.297   8.048   1.131
88582SOL     OW67642   1.771  12.190   4.674
88582SOL    HW167643   1.720  12.202   4.754
88582SOL    HW267644   1.836  12.260   4.676
88583SOL     OW67645   9.602   2.132   1.257
88583SOL    HW167646   9.601   2.056   1.314
88583SOL    HW267647   9.556   2.200   1.305
88584SOL     OW67648  11.981   9.389   1.194
88584SOL    HW167649  12.016   9.373   1.106
88584SOL    HW267650  11.925   9.466   1.184
88585SOL     OW67651  13.791   3.138   0.058
88585SOL    HW167652  13.711   3.160   0.105
88585SOL    HW267653  13.813   3.217   0.008
88586SOL     OW67654   9.427   0.649   8.808
88586SOL    HW167655   9.508   0.684   8.843
88586SOL    HW267656   9.376   0.625   8.885
88587SOL     OW67657   2.681  10.008   0.844
88587SOL    HW167658   2.620  10.005   0.917
88587SOL    HW267659   2.752  10.066   0.874
88588SOL     OW67660  10.302  14.447  14.586
88588SOL    HW167661  10.333  14.512  14.650
88588SOL    HW267662  10.355  14.462  14.508
88589SOL     OW67663  13.150   2.211  11.055
88589SOL    HW167664  13.170   2.238  10.966
88589SOL    HW267665  13.122   2.120  11.048
88590SOL     OW67666   7.863  13.287   2.503
88590SOL    HW167667   7.806  13.307   2.578
88590SOL    HW267668   7.837  13.350   2.436
88591SOL     OW67669  11.818   9.571   2.370
88591SOL    HW167670  11.871   9.650   2.366
88591SOL    HW267671  11.867   9.511   2.426
88592SOL     OW67672   3.669   0.681  11.115
88592SOL    HW167673   3.726   0.739  11.164
88592SOL    HW267674   3.702   0.593  11.134
88593SOL     OW67675   4.244   7.936  11.688
88593SOL    HW167676   4.214   7.982  11.767
88593SOL    HW267677   4.181   7.961  11.620
88594SOL     OW67678   3.693  12.225   5.997
88594SOL    HW167679   3.719  12.137   5.969
88594SOL    HW267680   3.670  12.270   5.916
88595SOL     OW67681   4.415  11.602   9.606
88595SOL    HW167682   4.414  11.509   9.585
88595SOL    HW267683   4.399  11.606   9.700
88596SOL     OW67684   3.078   1.878   0.098
88596SOL    HW167685   3.035   1.793   0.088
88596SOL    HW267686   3.044   1.913   0.180
88597SOL     OW67687   9.739   0.527   6.724
88597SOL    HW167688   9.731   0.613   6.682
88597SOL    HW267689   9.833   0.510   6.727
88598SOL     OW67690  14.243  14.791   1.402
88598SOL    HW167691  14.188  14.733   1.454
88598SOL    HW267692  14.295  14.840   1.466
88599SOL     OW67693   3.837   2.494   2.855
88599SOL    HW167694   3.835   2.464   2.946
88599SOL    HW267695   3.930   2.492   2.832
88600SOL     OW67696  13.643   5.413   3.894
88600SOL    HW167697  13.573   5.450   3.947
88600SOL    HW267698  13.606   5.334   3.856
88601SOL     OW67699   8.958   1.495   3.039
88601SOL    HW167700   9.032   1.550   3.014
88601SOL    HW267701   8.881   1.541   3.006
88602SOL     OW67702  13.914   1.540   4.598
88602SOL    HW167703  13.825   1.530   4.564
88602SOL    HW267704  13.948   1.451   4.603
88603SOL     OW67705   9.313   2.063   2.353
88603SOL    HW167706   9.352   1.983   2.388
88603SOL    HW267707   9.232   2.074   2.403
88604SOL     OW67708   7.834  13.055   8.977
88604SOL    HW167709   7.850  13.008   8.895
88604SOL    HW267710   7.829  13.147   8.952
88605SOL     OW67711   7.912   9.781   5.559
88605SOL    HW167712   7.894   9.833   5.482
88605SOL    HW267713   7.862   9.700   5.545
88606SOL     OW67714   3.643   7.762  13.388
88606SOL    HW167715   3.588   7.764  13.466
88606SOL    HW267716   3.725   7.722  13.416
88607SOL     OW67717  13.522   6.782   9.389
88607SOL    HW167718  13.530   6.873   9.359
88607SOL    HW267719  13.588   6.773   9.458
88608SOL     OW67720   4.210   4.200  12.406
88608SOL    HW167721   4.227   4.201  12.500
88608SOL    HW267722   4.184   4.110  12.387
88609SOL     OW67723   3.019  10.475   2.571
88609SOL    HW167724   2.931  10.513   2.572
88609SOL    HW267725   3.022  10.422   2.650
88610SOL     OW67726   2.205  11.780   7.532
88610SOL    HW167727   2.300  11.774   7.522
88610SOL    HW267728   2.170  11.715   7.471
88611SOL     OW67729   4.132  10.850  10.950
88611SOL    HW167730   4.080  10.788  11.002
88611SOL    HW267731   4.192  10.889  11.013
88612SOL     OW67732   2.581  13.693   9.849
88612SOL    HW167733   2.590  13.603   9.815
88612SOL    HW267734   2.490  13.716   9.829
88613SOL     OW67735  14.402   9.340   7.705
88613SOL    HW167736  14.322   9.360   7.754
88613SOL    HW267737  14.436   9.261   7.747
88614SOL     OW67738  11.522   8.700  12.301
88614SOL    HW167739  11.480   8.771  12.350
88614SOL    HW267740  11.559   8.743  12.224
88615SOL     OW67741   4.938   5.325   6.510
88615SOL    HW167742   5.025   5.312   6.547
88615SOL    HW267743   4.935   5.266   6.435
88616SOL     OW67744  10.509   5.123   8.131
88616SOL    HW167745  10.541   5.213   8.123
88616SOL    HW267746  10.569   5.082   8.193
88617SOL     OW67747   2.326   3.803   7.016
88617SOL    HW167748   2.394   3.835   6.957
88617SOL    HW267749   2.268   3.752   6.960
88618SOL     OW67750   8.756   6.874   6.589
88618SOL    HW167751   8.806   6.934   6.645
88618SOL    HW267752   8.666   6.903   6.598
88619SOL     OW67753   4.135   6.855   1.547
88619SOL    HW167754   4.092   6.844   1.631
88619SOL    HW267755   4.221   6.892   1.568
88620SOL     OW67756   8.842   8.415   2.846
88620SOL    HW167757   8.845   8.503   2.809
88620SOL    HW267758   8.821   8.427   2.938
88621SOL     OW67759   3.818  14.642   6.546
88621SOL    HW167760   3.903  14.602   6.565
88621SOL    HW267761   3.769  14.575   6.499
88622SOL     OW67762   0.542   4.385  14.833
88622SOL    HW167763   0.611   4.378   0.031
88622SOL    HW267764   0.558   4.470  14.791
88623SOL     OW67765   8.019  14.589  13.078
88623SOL    HW167766   8.034  14.508  13.030
88623SOL    HW267767   7.939  14.625  13.039
88624SOL     OW67768   4.456   8.984   2.518
88624SOL    HW167769   4.456   8.916   2.585
88624SOL    HW267770   4.465   8.937   2.436
88625SOL     OW67771   7.942   3.938   8.560
88625SOL    HW167772   7.867   3.993   8.581
88625SOL    HW267773   8.016   3.983   8.600
88626SOL     OW67774   6.950   0.177   7.596
88626SOL    HW167775   6.864   0.197   7.558
88626SOL    HW267776   6.948   0.084   7.614
88627SOL     OW67777   4.235  13.121   6.484
88627SOL    HW167778   4.311  13.139   6.540
88627SOL    HW267779   4.262  13.048   6.429
88628SOL     OW67780   0.575   5.347   5.830
88628SOL    HW167781   0.663   5.385   5.832
88628SOL    HW267782   0.523   5.404   5.887
88629SOL     OW67783   3.721   2.270   8.452
88629SOL    HW167784   3.768   2.249   8.372
88629SOL    HW267785   3.629   2.275   8.425
88630SOL     OW67786   5.026  10.412  14.732
88630SOL    HW167787   4.933  10.387  14.736
88630SOL    HW267788   5.073  10.330  14.739
88631SOL     OW67789  13.095  10.564   1.330
88631SOL    HW167790  13.027  10.591   1.267
88631SOL    HW267791  13.048  10.553   1.412
88632SOL     OW67792   3.466   3.013   6.872
88632SOL    HW167793   3.525   3.028   6.799
88632SOL    HW267794   3.387   3.063   6.850
88633SOL     OW67795  10.998  12.778   6.441
88633SOL    HW167796  11.071  12.804   6.384
88633SOL    HW267797  10.942  12.724   6.385
88634SOL     OW67798   9.556   0.745   6.918
88634SOL    HW167799   9.595   0.687   6.853
88634SOL    HW267800   9.487   0.791   6.871
88635SOL     OW67801  10.404   5.487   7.698
88635SOL    HW167802  10.442   5.478   7.610
88635SOL    HW267803  10.459   5.553   7.740
88636SOL     OW67804  13.135   2.367  13.649
88636SOL    HW167805  13.169   2.438  13.594
88636SOL    HW267806  13.062   2.331  13.600
88637SOL     OW67807   0.126   7.520   0.172
88637SOL    HW167808   0.193   7.466   0.214
88637SOL    HW267809   0.066   7.543   0.242
88638SOL     OW67810   6.336  11.420   8.214
88638SOL    HW167811   6.356  11.392   8.304
88638SOL    HW267812   6.377  11.506   8.206
88639SOL     OW67813   7.510   7.400   9.050
88639SOL    HW167814   7.472   7.404   8.963
88639SOL    HW267815   7.440   7.429   9.108
88640SOL     OW67816   4.512   6.581   8.342
88640SOL    HW167817   4.546   6.670   8.331
88640SOL    HW267818   4.423   6.585   8.306
88641SOL     OW67819   3.340  14.229  14.786
88641SOL    HW167820   3.421  14.278  14.769
88641SOL    HW267821   3.360  14.139  14.761
88642SOL     OW67822   7.081   5.794  10.380
88642SOL    HW167823   7.032   5.807  10.461
88642SOL    HW267824   7.094   5.883  10.346
88643SOL     OW67825   9.604   7.400   6.055
88643SOL    HW167826   9.545   7.344   6.004
88643SOL    HW267827   9.548   7.470   6.088
88644SOL     OW67828   0.298   3.273  13.584
88644SOL    HW167829   0.220   3.218  13.577
88644SOL    HW267830   0.277   3.351  13.533
88645SOL     OW67831   3.981  12.632   8.175
88645SOL    HW167832   3.983  12.565   8.107
88645SOL    HW267833   4.073  12.653   8.192
88646SOL     OW67834  13.363   2.553  14.839
88646SOL    HW167835  13.374   2.507  14.756
88646SOL    HW267836  13.424   2.627  14.834
88647SOL     OW67837  14.778   1.432   2.394
88647SOL    HW167838  14.863   1.470   2.371
88647SOL    HW267839  14.714   1.498   2.369
88648SOL     OW67840   3.345  12.032  10.742
88648SOL    HW167841   3.419  12.071  10.694
88648SOL    HW267842   3.373  11.942  10.757
88649SOL     OW67843   1.151  14.496  10.648
88649SOL    HW167844   1.135  14.511  10.741
88649SOL    HW267845   1.246  14.505  10.638
88650SOL     OW67846  12.243   5.482   9.152
88650SOL    HW167847  12.329   5.461   9.189
88650SOL    HW267848  12.204   5.543   9.215
88651SOL     OW67849   1.310  12.900  13.140
88651SOL    HW167850   1.270  12.982  13.111
88651SOL    HW267851   1.302  12.841  13.065
88652SOL     OW67852  12.016  10.733  13.443
88652SOL    HW167853  12.038  10.826  13.440
88652SOL    HW267854  11.946  10.726  13.508
88653SOL     OW67855   3.613   5.061  12.975
88653SOL    HW167856   3.638   5.111  12.897
88653SOL    HW267857   3.542   5.004  12.946
88654SOL     OW67858  11.694   5.326   9.549
88654SOL    HW167859  11.607   5.289   9.564
88654SOL    HW267860  11.706   5.322   9.454
88655SOL     OW67861   9.369   0.898   6.772
88655SOL    HW167862   9.443   0.918   6.715
88655SOL    HW267863   9.298   0.877   6.712
88656SOL     OW67864   2.854  10.552   8.784
88656SOL    HW167865   2.907  10.621   8.744
88656SOL    HW267866   2.780  10.540   8.724
88657SOL     OW67867  14.471  10.149   2.023
88657SOL    HW167868  14.510  10.126   2.108
88657SOL    HW267869  14.413  10.076   2.003
88658SOL     OW67870  13.895   5.024  13.446
88658SOL    HW167871  13.885   5.012  13.352
88658SOL    HW267872  13.959   5.094  13.455
88659SOL     OW67873   7.496   7.237  11.710
88659SOL    HW167874   7.458   7.284  11.636
88659SOL    HW267875   7.580   7.205  11.677
88660SOL     OW67876   8.558   2.286  13.520
88660SOL    HW167877   8.615   2.358  13.545
88660SOL    HW267878   8.530   2.307  13.431
88661SOL     OW67879  12.843   3.053   0.602
88661SOL    HW167880  12.893   3.117   0.653
88661SOL    HW267881  12.910   2.999   0.559
88662SOL     OW67882  10.299   1.557   9.236
88662SOL    HW167883  10.390   1.545   9.212
88662SOL    HW267884  10.292   1.518   9.323
88663SOL     OW67885   4.704   1.160   7.190
88663SOL    HW167886   4.699   1.153   7.285
88663SOL    HW267887   4.773   1.224   7.174
88664SOL     OW67888   6.758   6.959   6.505
88664SOL    HW167889   6.717   6.898   6.443
88664SOL    HW267890   6.684   7.008   6.542
88665SOL     OW67891   8.312   3.719  13.938
88665SOL    HW167892   8.285   3.802  13.900
88665SOL    HW267893   8.312   3.658  13.864
88666SOL     OW67894   0.304   4.131   4.650
88666SOL    HW167895   0.258   4.202   4.696
88666SOL    HW267896   0.278   4.141   4.559
88667SOL     OW67897  13.881  10.036   1.068
88667SOL    HW167898  13.974  10.013   1.065
88667SOL    HW267899  13.836   9.953   1.085
88668SOL     OW67900  13.191   2.680   9.519
88668SOL    HW167901  13.235   2.764   9.533
88668SOL    HW267902  13.237   2.619   9.578
88669SOL     OW67903  11.662   6.439  10.102
88669SOL    HW167904  11.625   6.352  10.087
88669SOL    HW267905  11.756   6.423  10.117
88670SOL     OW67906   8.559   9.616  10.380
88670SOL    HW167907   8.605   9.555  10.436
88670SOL    HW267908   8.572   9.701  10.421
88671SOL     OW67909   4.154  12.004  11.793
88671SOL    HW167910   4.209  12.079  11.773
88671SOL    HW267911   4.127  11.971  11.707
88672SOL     OW67912   0.052   7.946   0.117
88672SOL    HW167913   0.017   7.974   0.032
88672SOL    HW267914   0.109   7.872   0.096
88673SOL     OW67915   6.580  12.653   5.468
88673SOL    HW167916   6.495  12.675   5.506
88673SOL    HW267917   6.601  12.567   5.503
88674SOL     OW67918   0.995  11.906   8.709
88674SOL    HW167919   1.074  11.951   8.739
88674SOL    HW267920   0.940  11.901   8.786
88675SOL     OW67921  12.899  13.210  10.950
88675SOL    HW167922  12.976  13.157  10.932
88675SOL    HW267923  12.898  13.275  10.880
88676SOL     OW67924  13.813  14.123   2.667
88676SOL    HW167925  13.726  14.156   2.687
88676SOL    HW267926  13.807  14.028   2.681
88677SOL     OW67927   7.146  10.533   1.133
88677SOL    HW167928   7.052  10.521   1.122
88677SOL    HW267929   7.171  10.465   1.196
88678SOL     OW67930   6.777   6.389   4.818
88678SOL    HW167931   6.856   6.424   4.775
88678SOL    HW267932   6.743   6.325   4.756
88679SOL     OW67933   1.934  12.603   6.316
88679SOL    HW167934   2.000  12.538   6.339
88679SOL    HW267935   1.885  12.617   6.397
88680SOL     OW67936   8.028  10.250   2.750
88680SOL    HW167937   7.946  10.298   2.749
88680SOL    HW267938   8.077  10.283   2.674
88681SOL     OW67939   7.735   7.298   6.765
88681SOL    HW167940   7.675   7.301   6.839
88681SOL    HW267941   7.748   7.389   6.740
88682SOL     OW67942   1.157  14.838   1.043
88682SOL    HW167943   1.216  14.850   0.968
88682SOL    HW267944   1.195   0.024   1.112
88683SOL     OW67945  11.484   1.286   7.200
88683SOL    HW167946  11.503   1.285   7.294
88683SOL    HW267947  11.415   1.352   7.190
88684SOL     OW67948   8.385   4.223   8.333
88684SOL    HW167949   8.415   4.217   8.242
88684SOL    HW267950   8.407   4.139   8.372
88685SOL     OW67951   8.516   3.817  13.277
88685SOL    HW167952   8.601   3.822  13.321
88685SOL    HW267953   8.509   3.900  13.230
88686SOL     OW67954  11.266   4.656  11.434
88686SOL    HW167955  11.179   4.638  11.468
88686SOL    HW267956  11.254   4.734  11.379
88687SOL     OW67957   3.461   0.135   0.967
88687SOL    HW167958   3.444   0.042   0.954
88687SOL    HW267959   3.432   0.177   0.886
88688SOL     OW67960   9.531   1.592   2.959
88688SOL    HW167961   9.513   1.598   3.053
88688SOL    HW267962   9.570   1.677   2.937
88689SOL     OW67963   0.865   2.652   4.400
88689SOL    HW167964   0.853   2.680   4.309
88689SOL    HW267965   0.775   2.644   4.434
88690SOL     OW67966   5.906  12.769   1.024
88690SOL    HW167967   5.931  12.800   1.111
88690SOL    HW267968   5.920  12.674   1.028
88691SOL     OW67969   0.289   6.077  12.242
88691SOL    HW167970   0.228   6.005  12.226
88691SOL    HW267971   0.245   6.155  12.207
88692SOL     OW67972  14.301   0.764  12.615
88692SOL    HW167973  14.277   0.681  12.658
88692SOL    HW267974  14.393   0.752  12.591
88693SOL     OW67975   5.081   6.501   9.553
88693SOL    HW167976   5.077   6.558   9.476
88693SOL    HW267977   5.158   6.446   9.537
88694SOL     OW67978   2.649   5.561   4.316
88694SOL    HW167979   2.633   5.581   4.408
88694SOL    HW267980   2.561   5.545   4.280
88695SOL     OW67981   9.618  13.438  11.560
88695SOL    HW167982   9.665  13.457  11.641
88695SOL    HW267983   9.615  13.342  11.556
88696SOL     OW67984  12.518   9.839   5.852
88696SOL    HW167985  12.559   9.802   5.774
88696SOL    HW267986  12.582   9.825   5.922
88697SOL     OW67987   7.088   8.511   7.182
88697SOL    HW167988   7.002   8.469   7.190
88697SOL    HW267989   7.077   8.574   7.111
88698SOL     OW67990  12.475  12.748  12.722
88698SOL    HW167991  12.506  12.682  12.659
88698SOL    HW267992  12.382  12.731  12.731
88699SOL     OW67993   6.955  13.091   8.035
88699SOL    HW167994   6.958  13.001   8.067
88699SOL    HW267995   6.975  13.084   7.942
88700SOL     OW67996   8.493  14.388   1.444
88700SOL    HW167997   8.483  14.304   1.489
88700SOL    HW267998   8.481  14.454   1.513
88701SOL     OW67999  10.593   2.908   6.689
88701SOL    HW168000  10.534   2.926   6.617
88701SOL    HW268001  10.612   2.994   6.727
88702SOL     OW68002   8.945   4.780   2.686
88702SOL    HW168003   8.873   4.717   2.692
88702SOL    HW268004   9.023   4.731   2.711
88703SOL     OW68005  10.021   4.606   9.462
88703SOL    HW168006   9.994   4.567   9.546
88703SOL    HW268007   9.969   4.686   9.455
88704SOL     OW68008   6.527   6.034  11.580
88704SOL    HW168009   6.574   6.010  11.660
88704SOL    HW268010   6.436   6.007  11.597
88705SOL     OW68011   4.881  11.570   6.506
88705SOL    HW168012   4.873  11.584   6.412
88705SOL    HW268013   4.822  11.497   6.525
88706SOL     OW68014  10.238   9.190   6.237
88706SOL    HW168015  10.288   9.110   6.222
88706SOL    HW268016  10.220   9.224   6.150
88707SOL     OW68017   9.558   6.389   7.387
88707SOL    HW168018   9.533   6.481   7.401
88707SOL    HW268019   9.647   6.383   7.421
88708SOL     OW68020  14.338   6.629   2.682
88708SOL    HW168021  14.281   6.704   2.698
88708SOL    HW268022  14.362   6.636   2.589
88709SOL     OW68023  12.356   0.938   2.512
88709SOL    HW168024  12.312   1.011   2.469
88709SOL    HW268025  12.449   0.953   2.494
88710SOL     OW68026   5.036  11.874   4.860
88710SOL    HW168027   5.110  11.847   4.806
88710SOL    HW268028   4.964  11.885   4.798
88711SOL     OW68029   5.032   0.360   5.461
88711SOL    HW168030   4.972   0.291   5.489
88711SOL    HW268031   4.978   0.419   5.408
88712SOL     OW68032  13.214  13.810   8.875
88712SOL    HW168033  13.150  13.796   8.806
88712SOL    HW268034  13.290  13.847   8.830
88713SOL     OW68035   5.220   5.955  14.017
88713SOL    HW168036   5.292   6.018  14.008
88713SOL    HW268037   5.190   5.967  14.106
88714SOL     OW68038  14.586  13.424   8.111
88714SOL    HW168039  14.602  13.518   8.117
88714SOL    HW268040  14.492  13.414   8.128
88715SOL     OW68041   3.230   5.649   4.869
88715SOL    HW168042   3.299   5.582   4.872
88715SOL    HW268043   3.227   5.684   4.958
88716SOL     OW68044  11.316   2.356   6.568
88716SOL    HW168045  11.386   2.295   6.591
88716SOL    HW268046  11.251   2.303   6.523
88717SOL     OW68047   8.474  12.569  11.753
88717SOL    HW168048   8.515  12.483  11.762
88717SOL    HW268049   8.486  12.592  11.661
88718SOL     OW68050   3.557   0.100   7.234
88718SOL    HW168051   3.562   0.133   7.144
88718SOL    HW268052   3.648   0.084   7.258
88719SOL     OW68053  13.837  13.631   9.930
88719SOL    HW168054  13.891  13.552   9.928
88719SOL    HW268055  13.791  13.627  10.014
88720SOL     OW68056   0.464   6.268   6.447
88720SOL    HW168057   0.406   6.205   6.406
88720SOL    HW268058   0.456   6.251   6.541
88721SOL     OW68059   5.190   4.625   6.098
88721SOL    HW168060   5.256   4.555   6.105
88721SOL    HW268061   5.218   4.690   6.162
88722SOL     OW68062  12.899  11.380   6.712
88722SOL    HW168063  12.823  11.322   6.714
88722SOL    HW268064  12.973  11.322   6.729
88723SOL     OW68065   1.723  12.714  14.289
88723SOL    HW168066   1.753  12.656  14.218
88723SOL    HW268067   1.628  12.711  14.283
88724SOL     OW68068   4.526  12.072   1.731
88724SOL    HW168069   4.559  12.022   1.806
88724SOL    HW268070   4.431  12.066   1.738
88725SOL     OW68071   8.222  11.053   8.440
88725SOL    HW168072   8.204  11.045   8.346
88725SOL    HW268073   8.251  10.966   8.467
88726SOL     OW68074  10.066   5.937   5.718
88726SOL    HW168075  10.006   5.866   5.693
88726SOL    HW268076  10.100   5.910   5.803
88727SOL     OW68077   0.417  10.230   5.938
88727SOL    HW168078   0.327  10.199   5.934
88727SOL    HW268079   0.444  10.215   6.028
88728SOL     OW68080   6.356  12.622   4.311
88728SOL    HW168081   6.387  12.712   4.325
88728SOL    HW268082   6.292  12.608   4.380
88729SOL     OW68083  10.041   2.700  11.599
88729SOL    HW168084  10.064   2.793  11.605
88729SOL    HW268085  10.120   2.654  11.629
88730SOL     OW68086   5.341   9.069   6.137
88730SOL    HW168087   5.378   9.154   6.111
88730SOL    HW268088   5.252   9.070   6.104
88731SOL     OW68089  12.436  13.797   5.213
88731SOL    HW168090  12.430  13.706   5.185
88731SOL    HW268091  12.346  13.829   5.211
88732SOL     OW68092   4.201  13.232  11.951
88732SOL    HW168093   4.145  13.307  11.968
88732SOL    HW268094   4.268  13.237  12.020
88733SOL     OW68095   6.097  12.758  13.619
88733SOL    HW168096   6.119  12.851  13.632
88733SOL    HW268097   6.147  12.712  13.687
88734SOL     OW68098   1.091  14.057   0.523
88734SOL    HW168099   1.073  14.092   0.436
88734SOL    HW268100   1.028  14.100   0.580
88735SOL     OW68101   1.629  10.684   2.529
88735SOL    HW168102   1.604  10.758   2.474
88735SOL    HW268103   1.574  10.611   2.499
88736SOL     OW68104   6.402  11.448  13.557
88736SOL    HW168105   6.330  11.472  13.616
88736SOL    HW268106   6.383  11.358  13.532
88737SOL     OW68107  12.514   7.451   0.742
88737SOL    HW168108  12.560   7.530   0.714
88737SOL    HW268109  12.574   7.408   0.804
88738SOL     OW68110  12.117   9.798   2.826
88738SOL    HW168111  12.074   9.849   2.895
88738SOL    HW268112  12.045   9.756   2.780
88739SOL     OW68113  14.713   2.299  11.751
88739SOL    HW168114  14.642   2.318  11.689
88739SOL    HW268115  14.765   2.231  11.709
88740SOL     OW68116   0.507   4.059   9.878
88740SOL    HW168117   0.485   4.022   9.963
88740SOL    HW268118   0.443   4.020   9.818
88741SOL     OW68119   7.123   0.495  12.559
88741SOL    HW168120   7.155   0.585  12.554
88741SOL    HW268121   7.071   0.484  12.479
88742SOL     OW68122   6.771  11.403  14.766
88742SOL    HW168123   6.702  11.432  14.706
88742SOL    HW268124   6.743  11.317  14.795
88743SOL     OW68125   7.788  10.436   0.948
88743SOL    HW168126   7.711  10.437   1.004
88743SOL    HW268127   7.753  10.423   0.860
88744SOL     OW68128   4.045   8.317   3.765
88744SOL    HW168129   3.977   8.371   3.724
88744SOL    HW268130   3.997   8.251   3.815
88745SOL     OW68131  10.724  13.313   4.494
88745SOL    HW168132  10.672  13.361   4.559
88745SOL    HW268133  10.811  13.353   4.501
88746SOL     OW68134  13.741   3.660   3.248
88746SOL    HW168135  13.795   3.659   3.326
88746SOL    HW268136  13.801   3.681   3.177
88747SOL     OW68137   9.768   1.259  11.148
88747SOL    HW168138   9.787   1.317  11.073
88747SOL    HW268139   9.854   1.237  11.183
88748SOL     OW68140   8.717  10.057   8.401
88748SOL    HW168141   8.748  10.029   8.314
88748SOL    HW268142   8.722   9.978   8.454
88749SOL     OW68143   5.582  14.465   3.805
88749SOL    HW168144   5.564  14.415   3.726
88749SOL    HW268145   5.529  14.423   3.873
88750SOL     OW68146   9.873   2.671   7.256
88750SOL    HW168147   9.888   2.743   7.317
88750SOL    HW268148   9.958   2.628   7.248
88751SOL     OW68149  10.899  12.263   0.176
88751SOL    HW168150  10.876  12.320   0.249
88751SOL    HW268151  10.920  12.322   0.104
88752SOL     OW68152   4.835   3.629   5.438
88752SOL    HW168153   4.838   3.683   5.359
88752SOL    HW268154   4.748   3.589   5.437
88753SOL     OW68155   8.631   2.370  12.806
88753SOL    HW168156   8.712   2.322  12.821
88753SOL    HW268157   8.567   2.328  12.863
88754SOL     OW68158  11.282  14.867   2.689
88754SOL    HW168159  11.335  14.808   2.742
88754SOL    HW268160  11.216   0.034   2.749
88755SOL     OW68161   8.584   9.276   1.350
88755SOL    HW168162   8.660   9.312   1.396
88755SOL    HW268163   8.518   9.345   1.354
88756SOL     OW68164  13.629   9.128  14.588
88756SOL    HW168165  13.641   9.204  14.645
88756SOL    HW268166  13.715   9.114  14.548
88757SOL     OW68167   8.874  14.156   4.703
88757SOL    HW168168   8.799  14.176   4.647
88757SOL    HW268169   8.865  14.215   4.778
88758SOL     OW68170   1.077  13.997   6.459
88758SOL    HW168171   1.054  14.090   6.459
88758SOL    HW268172   1.082  13.973   6.366
88759SOL     OW68173   7.002   4.124   1.930
88759SOL    HW168174   7.058   4.114   1.853
88759SOL    HW268175   6.914   4.106   1.899
88760SOL     OW68176   7.230   6.223   5.951
88760SOL    HW168177   7.312   6.259   5.918
88760SOL    HW268178   7.197   6.169   5.879
88761SOL     OW68179   3.590   9.612   4.548
88761SOL    HW168180   3.542   9.574   4.622
88761SOL    HW268181   3.681   9.588   4.564
88762SOL     OW68182  10.286  13.621   9.321
88762SOL    HW168183  10.352  13.556   9.297
88762SOL    HW268184  10.203  13.575   9.317
88763SOL     OW68185   6.995   6.738   8.013
88763SOL    HW168186   7.043   6.671   8.063
88763SOL    HW268187   6.903   6.722   8.034
88764SOL     OW68188  11.863  12.642   4.401
88764SOL    HW168189  11.814  12.596   4.470
88764SOL    HW268190  11.848  12.590   4.322
88765SOL     OW68191   4.388  12.507   9.323
88765SOL    HW168192   4.405  12.530   9.231
88765SOL    HW268193   4.318  12.442   9.319
88766SOL     OW68194   4.614  14.449   2.350
88766SOL    HW168195   4.684  14.511   2.373
88766SOL    HW268196   4.655  14.363   2.356
88767SOL     OW68197   4.144  10.648  13.190
88767SOL    HW168198   4.234  10.625  13.213
88767SOL    HW268199   4.106  10.567  13.157
88768SOL     OW68200  10.670   0.264   8.336
88768SOL    HW168201  10.656   0.169   8.341
88768SOL    HW268202  10.695   0.280   8.245
88769SOL     OW68203   0.612  14.080   7.519
88769SOL    HW168204   0.686  14.107   7.574
88769SOL    HW268205   0.651  14.051   7.437
88770SOL     OW68206   8.336   0.470   2.838
88770SOL    HW168207   8.387   0.407   2.787
88770SOL    HW268208   8.390   0.490   2.914
88771SOL     OW68209  13.537   8.978  10.637
88771SOL    HW168210  13.492   9.012  10.714
88771SOL    HW268211  13.517   9.042  10.568
88772SOL     OW68212   0.030  10.732  11.129
88772SOL    HW168213   0.011  10.806  11.186
88772SOL    HW268214   0.046  10.659  11.188
88773SOL     OW68215   9.671   4.019  11.748
88773SOL    HW168216   9.733   3.948  11.764
88773SOL    HW268217   9.674   4.033  11.653
88774SOL     OW68218   2.892   2.910   8.854
88774SOL    HW168219   2.870   2.831   8.903
88774SOL    HW268220   2.903   2.977   8.922
88775SOL     OW68221   6.870   5.528   5.293
88775SOL    HW168222   6.818   5.454   5.260
88775SOL    HW268223   6.850   5.599   5.232
88776SOL     OW68224   1.859   7.279   9.524
88776SOL    HW168225   1.927   7.212   9.513
88776SOL    HW268226   1.782   7.243   9.482
88777SOL     OW68227   9.035   3.120   5.139
88777SOL    HW168228   9.038   3.214   5.122
88777SOL    HW268229   9.116   3.102   5.187
88778SOL     OW68230   5.422   2.719  10.397
88778SOL    HW168231   5.435   2.624  10.391
88778SOL    HW268232   5.493   2.756  10.345
88779SOL     OW68233   9.659  13.856   3.280
88779SOL    HW168234   9.622  13.935   3.240
88779SOL    HW268235   9.588  13.822   3.335
88780SOL     OW68236   6.002   7.151   5.751
88780SOL    HW168237   6.038   7.239   5.765
88780SOL    HW268238   5.928   7.145   5.810
88781SOL     OW68239   9.733  10.952   3.398
88781SOL    HW168240   9.769  11.035   3.431
88781SOL    HW268241   9.638  10.962   3.406
88782SOL     OW68242  11.981  12.746  13.681
88782SOL    HW168243  11.985  12.671  13.621
88782SOL    HW268244  11.987  12.822  13.623
88783SOL     OW68245  13.280   4.348   0.539
88783SOL    HW168246  13.203   4.299   0.568
88783SOL    HW268247  13.303   4.404   0.614
88784SOL     OW68248  13.878  10.973   7.924
88784SOL    HW168249  13.886  10.886   7.963
88784SOL    HW268250  13.802  11.011   7.967
88785SOL     OW68251   7.480   8.073   6.278
88785SOL    HW168252   7.397   8.118   6.297
88785SOL    HW268253   7.485   8.003   6.344
88786SOL     OW68254   2.244   2.498  10.826
88786SOL    HW168255   2.253   2.411  10.788
88786SOL    HW268256   2.226   2.555  10.751
88787SOL     OW68257   5.387   5.225   3.502
88787SOL    HW168258   5.468   5.175   3.491
88787SOL    HW268259   5.318   5.164   3.477
88788SOL     OW68260   6.821  11.387   3.355
88788SOL    HW168261   6.857  11.300   3.335
88788SOL    HW268262   6.832  11.437   3.274
88789SOL     OW68263   9.092  10.077   0.524
88789SOL    HW168264   9.179  10.052   0.491
88789SOL    HW268265   9.103  10.168   0.553
88790SOL     OW68266   4.700   7.169   3.102
88790SOL    HW168267   4.710   7.238   3.036
88790SOL    HW268268   4.702   7.088   3.052
88791SOL     OW68269  12.046   5.448  14.367
88791SOL    HW168270  12.072   5.367  14.324
88791SOL    HW268271  12.129   5.494  14.382
88792SOL     OW68272   0.338  14.783   6.670
88792SOL    HW168273   0.403  14.751   6.732
88792SOL    HW268274   0.318   0.004   6.700
88793SOL     OW68275   8.970  11.103   6.364
88793SOL    HW168276   8.923  11.019   6.371
88793SOL    HW268277   9.059  11.083   6.393
88794SOL     OW68278   2.874   2.287   9.762
88794SOL    HW168279   2.820   2.334   9.826
88794SOL    HW268280   2.937   2.238   9.815
88795SOL     OW68281   6.579   4.475  11.228
88795SOL    HW168282   6.560   4.426  11.148
88795SOL    HW268283   6.494   4.480  11.273
88796SOL     OW68284  10.341   7.154   7.351
88796SOL    HW168285  10.388   7.121   7.275
88796SOL    HW268286  10.323   7.076   7.404
88797SOL     OW68287  11.156   5.313   4.765
88797SOL    HW168288  11.146   5.334   4.672
88797SOL    HW268289  11.119   5.225   4.773
88798SOL     OW68290   3.135   0.521   1.538
88798SOL    HW168291   3.053   0.565   1.514
88798SOL    HW268292   3.117   0.483   1.624
88799SOL     OW68293  12.539   8.867   3.895
88799SOL    HW168294  12.472   8.869   3.826
88799SOL    HW268295  12.500   8.915   3.968
88800SOL     OW68296  11.906   2.896  12.887
88800SOL    HW168297  11.981   2.858  12.933
88800SOL    HW268298  11.837   2.902  12.953
88801SOL     OW68299   4.071   9.160   8.395
88801SOL    HW168300   4.145   9.103   8.374
88801SOL    HW268301   4.004   9.101   8.429
88802SOL     OW68302   6.390   4.299   2.824
88802SOL    HW168303   6.305   4.301   2.780
88802SOL    HW268304   6.372   4.258   2.909
88803SOL     OW68305  10.225   4.972   5.351
88803SOL    HW168306  10.130   4.968   5.339
88803SOL    HW268307  10.261   4.930   5.273
88804SOL     OW68308   0.456   2.352  10.145
88804SOL    HW168309   0.504   2.414  10.091
88804SOL    HW268310   0.520   2.283  10.165
88805SOL     OW68311   9.316   3.260  13.776
88805SOL    HW168312   9.395   3.264  13.830
88805SOL    HW268313   9.244   3.258  13.840
88806SOL     OW68314  12.716   3.848  14.447
88806SOL    HW168315  12.732   3.760  14.415
88806SOL    HW268316  12.622   3.850  14.467
88807SOL     OW68317  14.055   2.703   0.443
88807SOL    HW168318  14.026   2.784   0.400
88807SOL    HW268319  14.140   2.685   0.404
88808SOL     OW68320   9.571   5.997   6.418
88808SOL    HW168321   9.488   6.029   6.381
88808SOL    HW268322   9.563   5.902   6.414
88809SOL     OW68323   6.918   4.410  10.218
88809SOL    HW168324   6.855   4.370  10.158
88809SOL    HW268325   7.002   4.369  10.195
88810SOL     OW68326   5.412  11.096  10.766
88810SOL    HW168327   5.422  11.074  10.858
88810SOL    HW268328   5.492  11.063  10.725
88811SOL     OW68329   8.892  12.024   2.650
88811SOL    HW168330   8.961  12.090   2.662
88811SOL    HW268331   8.908  11.988   2.562
88812SOL     OW68332   5.036   9.554  10.103
88812SOL    HW168333   5.011   9.495  10.033
88812SOL    HW268334   5.060   9.497  10.176
88813SOL     OW68335  13.630   4.607   3.892
88813SOL    HW168336  13.658   4.576   3.978
88813SOL    HW268337  13.607   4.528   3.844
88814SOL     OW68338   7.086   8.957   9.135
88814SOL    HW168339   7.112   8.865   9.126
88814SOL    HW268340   7.152   8.995   9.192
88815SOL     OW68341   9.024   3.961  14.067
88815SOL    HW168342   9.050   4.009  14.146
88815SOL    HW268343   8.977   4.027  14.014
88816SOL     OW68344   3.245  10.451  12.621
88816SOL    HW168345   3.257  10.380  12.685
88816SOL    HW268346   3.221  10.527  12.674
88817SOL     OW68347  14.624  10.886   7.911
88817SOL    HW168348  14.615  10.894   8.006
88817SOL    HW268349  14.540  10.917   7.876
88818SOL     OW68350   5.214  12.569   0.989
88818SOL    HW168351   5.178  12.538   0.906
88818SOL    HW268352   5.287  12.626   0.964
88819SOL     OW68353  14.646  10.592   5.748
88819SOL    HW168354  14.663  10.543   5.828
88819SOL    HW268355  14.584  10.538   5.699
88820SOL     OW68356   8.798   6.402   3.467
88820SOL    HW168357   8.746   6.407   3.547
88820SOL    HW268358   8.843   6.486   3.461
88821SOL     OW68359   4.938   9.226  10.078
88821SOL    HW168360   4.883   9.260  10.150
88821SOL    HW268361   4.978   9.147  10.114
88822SOL     OW68362   0.558   5.959   3.585
88822SOL    HW168363   0.650   5.936   3.592
88822SOL    HW268364   0.530   5.924   3.501
88823SOL     OW68365  11.784  14.067   8.961
88823SOL    HW168366  11.820  13.994   8.912
88823SOL    HW268367  11.733  14.117   8.897
88824SOL     OW68368  13.351   4.926  10.733
88824SOL    HW168369  13.353   4.989  10.661
88824SOL    HW268370  13.259   4.924  10.761
88825SOL     OW68371   1.935   2.943  13.025
88825SOL    HW168372   1.841   2.922  13.030
88825SOL    HW268373   1.968   2.885  12.956
88826SOL     OW68374   9.713  10.862   6.374
88826SOL    HW168375   9.719  10.957   6.378
88826SOL    HW268376   9.642  10.845   6.311
88827SOL     OW68377   1.528   8.009   8.834
88827SOL    HW168378   1.546   7.915   8.838
88827SOL    HW268379   1.614   8.051   8.844
88828SOL     OW68380  10.129   4.335   3.139
88828SOL    HW168381  10.115   4.342   3.234
88828SOL    HW268382  10.150   4.243   3.125
88829SOL     OW68383   7.455   1.770  11.828
88829SOL    HW168384   7.375   1.792  11.781
88829SOL    HW268385   7.473   1.679  11.805
88830SOL     OW68386   0.690   1.543   5.324
88830SOL    HW168387   0.727   1.584   5.402
88830SOL    HW268388   0.766   1.520   5.271
88831SOL     OW68389  13.165   0.132   9.206
88831SOL    HW168390  13.209   0.150   9.289
88831SOL    HW268391  13.084   0.086   9.231
88832SOL     OW68392   7.693   2.928   6.524
88832SOL    HW168393   7.748   2.850   6.523
88832SOL    HW268394   7.746   2.994   6.570
88833SOL     OW68395   5.729  10.504   6.485
88833SOL    HW168396   5.762  10.470   6.568
88833SOL    HW268397   5.636  10.522   6.500
88834SOL     OW68398   8.572   5.424  11.505
88834SOL    HW168399   8.478   5.439  11.513
88834SOL    HW268400   8.599   5.391  11.591
88835SOL     OW68401   6.559  11.576   0.163
88835SOL    HW168402   6.645  11.611   0.188
88835SOL    HW268403   6.559  11.581   0.067
88836SOL     OW68404   0.464  12.135   4.147
88836SOL    HW168405   0.436  12.047   4.172
88836SOL    HW268406   0.538  12.121   4.088
88837SOL     OW68407   5.629   9.657  12.137
88837SOL    HW168408   5.642   9.728  12.074
88837SOL    HW268409   5.681   9.682  12.213
88838SOL     OW68410   5.766   9.351   0.863
88838SOL    HW168411   5.759   9.296   0.785
88838SOL    HW268412   5.809   9.296   0.928
88839SOL     OW68413   5.701   9.621   0.900
88839SOL    HW168414   5.770   9.679   0.933
88839SOL    HW268415   5.735   9.533   0.917
88840SOL     OW68416   3.493   6.077   6.965
88840SOL    HW168417   3.574   6.066   7.015
88840SOL    HW268418   3.491   6.002   6.906
88841SOL     OW68419  14.518  13.077   1.476
88841SOL    HW168420  14.480  12.991   1.457
88841SOL    HW268421  14.443  13.137   1.470
88842SOL     OW68422   3.317   0.074   8.319
88842SOL    HW168423   3.381   0.133   8.279
88842SOL    HW268424   3.233   0.116   8.303
88843SOL     OW68425  10.833   1.844   2.308
88843SOL    HW168426  10.899   1.836   2.239
88843SOL    HW268427  10.881   1.826   2.389
88844SOL     OW68428   1.716   7.181   1.213
88844SOL    HW168429   1.779   7.249   1.237
88844SOL    HW268430   1.664   7.168   1.292
88845SOL     OW68431  14.164   1.218   8.926
88845SOL    HW168432  14.209   1.133   8.926
88845SOL    HW268433  14.230   1.280   8.960
88846SOL     OW68434   4.694  11.083   3.719
88846SOL    HW168435   4.691  11.177   3.701
88846SOL    HW268436   4.734  11.076   3.805
88847SOL     OW68437   3.196   1.355   3.675
88847SOL    HW168438   3.248   1.337   3.597
88847SOL    HW268439   3.126   1.414   3.644
88848SOL     OW68440  13.934   2.793  13.959
88848SOL    HW168441  13.901   2.879  13.983
88848SOL    HW268442  13.867   2.732  13.991
88849SOL     OW68443   3.781   0.824  13.835
88849SOL    HW168444   3.848   0.856  13.896
88849SOL    HW268445   3.698   0.855  13.872
88850SOL     OW68446   9.263   5.261   7.802
88850SOL    HW168447   9.232   5.349   7.821
88850SOL    HW268448   9.185   5.206   7.810
88851SOL     OW68449   9.209   7.859  12.462
88851SOL    HW168450   9.246   7.856  12.550
88851SOL    HW268451   9.118   7.883  12.475
88852SOL     OW68452  14.024   2.496   8.421
88852SOL    HW168453  13.929   2.490   8.427
88852SOL    HW268454  14.042   2.589   8.411
88853SOL     OW68455  14.763  10.516   5.416
88853SOL    HW168456  14.719  10.451   5.471
88853SOL    HW268457  14.772  10.593   5.472
88854SOL     OW68458  13.612   8.834  14.520
88854SOL    HW168459  13.666   8.853  14.442
88854SOL    HW268460  13.564   8.915  14.536
88855SOL     OW68461  10.199   4.067  10.080
88855SOL    HW168462  10.185   3.995  10.018
88855SOL    HW268463  10.266   4.121  10.040
88856SOL     OW68464  10.929   4.959   8.558
88856SOL    HW168465  10.963   4.967   8.469
88856SOL    HW268466  10.834   4.955   8.548
88857SOL     OW68467   4.857   6.634  12.708
88857SOL    HW168468   4.795   6.686  12.657
88857SOL    HW268469   4.815   6.548  12.715
88858SOL     OW68470  10.283   7.099  11.709
88858SOL    HW168471  10.203   7.117  11.759
88858SOL    HW268472  10.346   7.163  11.741
88859SOL     OW68473  14.424   9.941   8.527
88859SOL    HW168474  14.457  10.016   8.577
88859SOL    HW268475  14.357   9.902   8.584
88860SOL     OW68476   9.737   4.591  14.478
88860SOL    HW168477   9.677   4.521  14.501
88860SOL    HW268478   9.769   4.568  14.391
88861SOL     OW68479   6.930   3.754  14.401
88861SOL    HW168480   6.907   3.747  14.308
88861SOL    HW268481   6.922   3.665  14.435
88862SOL     OW68482  13.243  14.633   1.008
88862SOL    HW168483  13.279  14.644   1.096
88862SOL    HW268484  13.149  14.621   1.023
88863SOL     OW68485   3.576  10.524   3.142
88863SOL    HW168486   3.556  10.481   3.225
88863SOL    HW268487   3.507  10.590   3.133
88864SOL     OW68488   6.275   9.143  13.405
88864SOL    HW168489   6.310   9.210  13.346
88864SOL    HW268490   6.203   9.186  13.450
88865SOL     OW68491  12.004   8.460   3.898
88865SOL    HW168492  12.038   8.503   3.976
88865SOL    HW268493  12.080   8.416   3.860
88866SOL     OW68494   1.002   1.948   6.341
88866SOL    HW168495   1.039   2.031   6.372
88866SOL    HW268496   1.064   1.918   6.275
88867SOL     OW68497   9.200   5.525  13.948
88867SOL    HW168498   9.144   5.519  13.870
88867SOL    HW268499   9.140   5.507  14.021
88868SOL     OW68500  13.024   5.671  14.650
88868SOL    HW168501  13.051   5.693  14.739
88868SOL    HW268502  13.088   5.607  14.620
88869SOL     OW68503   1.539   1.752   2.005
88869SOL    HW168504   1.500   1.666   2.022
88869SOL    HW268505   1.633   1.735   2.003
88870SOL     OW68506   7.573   5.290  10.903
88870SOL    HW168507   7.577   5.205  10.947
88870SOL    HW268508   7.650   5.337  10.935
88871SOL     OW68509  12.859   9.792   2.886
88871SOL    HW168510  12.907   9.710   2.897
88871SOL    HW268511  12.887   9.825   2.801
88872SOL     OW68512   9.225   4.500  14.336
88872SOL    HW168513   9.256   4.571  14.280
88872SOL    HW268514   9.270   4.512  14.419
88873SOL     OW68515   0.486   7.724   3.720
88873SOL    HW168516   0.559   7.690   3.668
88873SOL    HW268517   0.520   7.728   3.809
88874SOL     OW68518  13.126  10.570   8.196
88874SOL    HW168519  13.089  10.581   8.284
88874SOL    HW268520  13.190  10.500   8.206
88875SOL     OW68521  12.288   4.328   8.815
88875SOL    HW168522  12.277   4.279   8.734
88875SOL    HW268523  12.223   4.291   8.875
88876SOL     OW68524  12.729   5.942   2.235
88876SOL    HW168525  12.749   5.913   2.324
88876SOL    HW268526  12.807   5.988   2.206
88877SOL     OW68527  13.393  13.958   0.685
88877SOL    HW168528  13.351  13.918   0.761
88877SOL    HW268529  13.454  14.022   0.721
88878SOL     OW68530   6.393   3.971   1.503
88878SOL    HW168531   6.379   3.919   1.582
88878SOL    HW268532   6.478   3.942   1.470
88879SOL     OW68533   3.637   0.881  14.498
88879SOL    HW168534   3.707   0.905  14.558
88879SOL    HW268535   3.600   0.964  14.469
88880SOL     OW68536   1.786   9.610   7.337
88880SOL    HW168537   1.760   9.522   7.365
88880SOL    HW268538   1.856   9.635   7.398
88881SOL     OW68539  14.351  12.250  10.214
88881SOL    HW168540  14.273  12.199  10.191
88881SOL    HW268541  14.424  12.200  10.178
88882SOL     OW68542   6.447  13.310   6.097
88882SOL    HW168543   6.533  13.338   6.067
88882SOL    HW268544   6.385  13.367   6.051
88883SOL     OW68545   7.811  10.226   5.199
88883SOL    HW168546   7.746  10.180   5.147
88883SOL    HW268547   7.760  10.280   5.259
88884SOL     OW68548   6.410   7.674  11.990
88884SOL    HW168549   6.452   7.692  12.074
88884SOL    HW268550   6.317   7.684  12.007
88885SOL     OW68551  11.047  10.240   3.610
88885SOL    HW168552  11.080  10.328   3.596
88885SOL    HW268553  10.991  10.248   3.687
88886SOL     OW68554   3.536   4.306   3.130
88886SOL    HW168555   3.604   4.272   3.188
88886SOL    HW268556   3.528   4.399   3.155
88887SOL     OW68557  10.202   4.098   3.462
88887SOL    HW168558  10.159   4.014   3.476
88887SOL    HW268559  10.247   4.088   3.378
88888SOL     OW68560  13.118  11.376   8.200
88888SOL    HW168561  13.027  11.394   8.223
88888SOL    HW268562  13.117  11.288   8.162
88889SOL     OW68563   7.693   6.304   8.731
88889SOL    HW168564   7.605   6.333   8.706
88889SOL    HW268565   7.682   6.272   8.821
88890SOL     OW68566   2.022  14.600   4.793
88890SOL    HW168567   2.028  14.561   4.706
88890SOL    HW268568   2.059  14.688   4.783
88891SOL     OW68569   9.725  14.725  10.560
88891SOL    HW168570   9.634  14.715  10.590
88891SOL    HW268571   9.759  14.797  10.613
88892SOL     OW68572  10.368   3.305  12.630
88892SOL    HW168573  10.309   3.299  12.706
88892SOL    HW268574  10.443   3.251  12.653
88893SOL     OW68575   4.798   0.604   1.604
88893SOL    HW168576   4.737   0.614   1.531
88893SOL    HW268577   4.772   0.522   1.646
88894SOL     OW68578  13.768  12.778   3.955
88894SOL    HW168579  13.838  12.818   3.902
88894SOL    HW268580  13.763  12.833   4.033
88895SOL     OW68581   8.835   2.663   1.092
88895SOL    HW168582   8.846   2.723   1.165
88895SOL    HW268583   8.873   2.581   1.122
88896SOL     OW68584   9.287   5.293   2.828
88896SOL    HW168585   9.232   5.336   2.763
88896SOL    HW268586   9.313   5.364   2.888
88897SOL     OW68587   4.685   7.219   0.597
88897SOL    HW168588   4.609   7.165   0.621
88897SOL    HW268589   4.760   7.161   0.607
88898SOL     OW68590   9.872   6.780   0.127
88898SOL    HW168591   9.968   6.790   0.125
88898SOL    HW268592   9.855   6.705   0.070
88899SOL     OW68593   1.717  13.069  13.834
88899SOL    HW168594   1.696  13.157  13.867
88899SOL    HW268595   1.714  13.077  13.739
88900SOL     OW68596   7.334   3.432   6.998
88900SOL    HW168597   7.255   3.466   7.040
88900SOL    HW268598   7.386   3.511   6.979
88901SOL     OW68599   8.382   4.921   9.466
88901SOL    HW168600   8.468   4.883   9.483
88901SOL    HW268601   8.383   4.943   9.373
88902SOL     OW68602   6.569   1.708   4.779
88902SOL    HW168603   6.664   1.710   4.776
88902SOL    HW268604   6.547   1.742   4.865
88903SOL     OW68605  13.655  11.482   6.763
88903SOL    HW168606  13.709  11.542   6.814
88903SOL    HW268607  13.636  11.530   6.682
88904SOL     OW68608   4.814   8.056  14.848
88904SOL    HW168609   4.842   7.997   0.051
88904SOL    HW268610   4.754   8.117   0.022
88905SOL     OW68611   2.561   8.674   2.135
88905SOL    HW168612   2.562   8.615   2.060
88905SOL    HW268613   2.653   8.690   2.155
88906SOL     OW68614  11.800   1.589   5.593
88906SOL    HW168615  11.710   1.581   5.624
88906SOL    HW268616  11.811   1.518   5.530
88907SOL     OW68617   1.332  14.398   4.277
88907SOL    HW168618   1.405  14.367   4.330
88907SOL    HW268619   1.299  14.320   4.232
88908SOL     OW68620   6.516   0.527   3.203
88908SOL    HW168621   6.527   0.577   3.122
88908SOL    HW268622   6.430   0.487   3.195
88909SOL     OW68623   4.297  11.593   8.954
88909SOL    HW168624   4.243  11.524   8.992
88909SOL    HW268625   4.305  11.658   9.023
88910SOL     OW68626  10.525  12.481  10.683
88910SOL    HW168627  10.589  12.540  10.725
88910SOL    HW268628  10.544  12.488  10.590
88911SOL     OW68629   4.497   3.304   7.430
88911SOL    HW168630   4.428   3.239   7.446
88911SOL    HW268631   4.540   3.313   7.515
88912SOL     OW68632   1.535  14.857   6.766
88912SOL    HW168633   1.527  14.812   6.682
88912SOL    HW268634   1.586  14.798   6.820
88913SOL     OW68635   1.342   1.746   3.059
88913SOL    HW168636   1.311   1.665   3.019
88913SOL    HW268637   1.301   1.747   3.146
88914SOL     OW68638   3.325   4.236   1.888
88914SOL    HW168639   3.292   4.159   1.934
88914SOL    HW268640   3.403   4.205   1.842
88915SOL     OW68641   7.488   1.033   9.714
88915SOL    HW168642   7.421   0.987   9.663
88915SOL    HW268643   7.459   1.024   9.805
88916SOL     OW68644   0.446  11.105   7.870
88916SOL    HW168645   0.441  11.136   7.960
88916SOL    HW268646   0.356  11.113   7.837
88917SOL     OW68647   9.850  12.261   9.485
88917SOL    HW168648   9.777  12.235   9.429
88917SOL    HW268649   9.918  12.196   9.469
88918SOL     OW68650  13.920   0.504  12.143
88918SOL    HW168651  13.991   0.566  12.129
88918SOL    HW268652  13.844   0.559  12.162
88919SOL     OW68653   6.048   9.279   4.418
88919SOL    HW168654   5.966   9.259   4.461
88919SOL    HW268655   6.035   9.251   4.327
88920SOL     OW68656   6.447  13.615   4.797
88920SOL    HW168657   6.496  13.571   4.867
88920SOL    HW268658   6.471  13.567   4.718
88921SOL     OW68659  14.265   9.322  12.618
88921SOL    HW168660  14.222   9.406  12.606
88921SOL    HW268661  14.317   9.309  12.539
88922SOL     OW68662   2.539   7.803   2.416
88922SOL    HW168663   2.572   7.891   2.399
88922SOL    HW268664   2.444   7.810   2.402
88923SOL     OW68665   6.340   9.715  14.652
88923SOL    HW168666   6.317   9.638  14.599
88923SOL    HW268667   6.432   9.732  14.632
88924SOL     OW68668   9.862   9.681   0.745
88924SOL    HW168669   9.958   9.681   0.745
88924SOL    HW268670   9.838   9.602   0.695
88925SOL     OW68671   6.196   7.335   0.577
88925SOL    HW168672   6.238   7.381   0.650
88925SOL    HW268673   6.246   7.360   0.500
88926SOL     OW68674  12.579  10.131   5.237
88926SOL    HW168675  12.626  10.201   5.283
88926SOL    HW268676  12.547  10.074   5.306
88927SOL     OW68677   1.728   2.805   8.445
88927SOL    HW168678   1.682   2.789   8.528
88927SOL    HW268679   1.672   2.765   8.379
88928SOL     OW68680   8.692   6.577  12.165
88928SOL    HW168681   8.660   6.628  12.091
88928SOL    HW268682   8.637   6.499  12.166
88929SOL     OW68683   8.369  13.609   6.197
88929SOL    HW168684   8.459  13.640   6.188
88929SOL    HW268685   8.378  13.514   6.209
88930SOL     OW68686  12.667   9.058   5.338
88930SOL    HW168687  12.630   8.991   5.395
88930SOL    HW268688  12.752   9.080   5.377
88931SOL     OW68689   4.834  13.059  10.318
88931SOL    HW168690   4.819  13.135  10.375
88931SOL    HW268691   4.747  13.027  10.297
88932SOL     OW68692  11.430  10.875   3.680
88932SOL    HW168693  11.456  10.962   3.650
88932SOL    HW268694  11.512  10.832   3.702
88933SOL     OW68695   6.459  14.858   9.985
88933SOL    HW168696   6.532  14.832   9.928
88933SOL    HW268697   6.469   0.084   9.996
88934SOL     OW68698   1.178   2.161  13.095
88934SOL    HW168699   1.216   2.076  13.116
88934SOL    HW268700   1.093   2.161  13.138
88935SOL     OW68701   0.888  13.799  10.105
88935SOL    HW168702   0.981  13.809  10.125
88935SOL    HW268703   0.873  13.705  10.103
88936SOL     OW68704   1.140   8.277   4.083
88936SOL    HW168705   1.233   8.293   4.100
88936SOL    HW268706   1.124   8.189   4.118
88937SOL     OW68707   1.818   7.675   9.262
88937SOL    HW168708   1.872   7.626   9.323
88937SOL    HW268709   1.794   7.755   9.310
88938SOL     OW68710   5.069  13.011   4.256
88938SOL    HW168711   5.138  12.991   4.320
88938SOL    HW268712   5.104  13.085   4.206
88939SOL     OW68713   4.918  12.302   0.954
88939SOL    HW168714   4.884  12.242   0.888
88939SOL    HW268715   5.007  12.322   0.923
88940SOL     OW68716  14.640   1.363  12.964
88940SOL    HW168717  14.632   1.456  12.942
88940SOL    HW268718  14.556   1.325  12.940
88941SOL     OW68719   3.558  10.651   7.162
88941SOL    HW168720   3.469  10.677   7.185
88941SOL    HW268721   3.561  10.558   7.185
88942SOL     OW68722   3.012   5.695   8.398
88942SOL    HW168723   3.026   5.665   8.308
88942SOL    HW268724   2.983   5.786   8.388
88943SOL     OW68725  13.034   2.991   3.336
88943SOL    HW168726  12.982   3.017   3.260
88943SOL    HW268727  12.971   2.948   3.394
88944SOL     OW68728   9.205   2.135  12.260
88944SOL    HW168729   9.270   2.140  12.190
88944SOL    HW268730   9.142   2.069  12.230
88945SOL     OW68731   9.218   9.483  12.721
88945SOL    HW168732   9.161   9.550  12.682
88945SOL    HW268733   9.294   9.479  12.662
88946SOL     OW68734   0.420   0.208   3.094
88946SOL    HW168735   0.362   0.229   3.167
88946SOL    HW268736   0.376   0.243   3.017
88947SOL     OW68737  11.640   5.190   2.465
88947SOL    HW168738  11.659   5.283   2.479
88947SOL    HW268739  11.676   5.147   2.543
88948SOL     OW68740  12.419  13.421   4.003
88948SOL    HW168741  12.340  13.466   3.972
88948SOL    HW268742  12.468  13.490   4.049
88949SOL     OW68743   6.034  11.105   8.184
88949SOL    HW168744   6.115  11.096   8.234
88949SOL    HW268745   6.042  11.040   8.114
88950SOL     OW68746   7.033   5.952  11.728
88950SOL    HW168747   6.976   5.938  11.653
88950SOL    HW268748   7.077   6.035  11.710
88951SOL     OW68749   4.722   3.056  14.405
88951SOL    HW168750   4.749   3.076  14.315
88951SOL    HW268751   4.727   2.961  14.410
88952SOL     OW68752  11.771   9.352  12.374
88952SOL    HW168753  11.811   9.277  12.329
88952SOL    HW268754  11.688   9.318  12.407
88953SOL     OW68755   8.782   9.713   6.095
88953SOL    HW168756   8.833   9.792   6.114
88953SOL    HW268757   8.795   9.657   6.171
88954SOL     OW68758  13.813   5.912   7.661
88954SOL    HW168759  13.880   5.889   7.597
88954SOL    HW268760  13.859   5.911   7.745
88955SOL     OW68761   0.932   6.553   9.851
88955SOL    HW168762   0.980   6.606   9.788
88955SOL    HW268763   0.913   6.613   9.923
88956SOL     OW68764   2.292   9.278   6.880
88956SOL    HW168765   2.225   9.285   6.812
88956SOL    HW268766   2.242   9.277   6.962
88957SOL     OW68767   0.685   2.898   6.794
88957SOL    HW168768   0.591   2.896   6.777
88957SOL    HW268769   0.709   2.990   6.789
88958SOL     OW68770   7.341   0.925   5.223
88958SOL    HW168771   7.326   0.913   5.130
88958SOL    HW268772   7.324   1.018   5.239
88959SOL     OW68773   9.784   9.920   9.016
88959SOL    HW168774   9.839   9.923   8.937
88959SOL    HW268775   9.740  10.005   9.017
88960SOL     OW68776   2.040   9.542   0.540
88960SOL    HW168777   1.947   9.557   0.521
88960SOL    HW268778   2.054   9.587   0.623
88961SOL     OW68779   1.654   1.387   2.483
88961SOL    HW168780   1.747   1.380   2.460
88961SOL    HW268781   1.610   1.409   2.401
88962SOL     OW68782  10.164  10.485  14.404
88962SOL    HW168783  10.139  10.573  14.377
88962SOL    HW268784  10.090  10.455  14.457
88963SOL     OW68785  14.048   0.479   3.296
88963SOL    HW168786  14.040   0.552   3.357
88963SOL    HW268787  14.104   0.512   3.226
88964SOL     OW68788   9.441   5.278   7.575
88964SOL    HW168789   9.373   5.271   7.643
88964SOL    HW268790   9.405   5.231   7.500
88965SOL     OW68791   4.094   8.606  10.978
88965SOL    HW168792   4.077   8.611  11.072
88965SOL    HW268793   4.148   8.528  10.967
88966SOL     OW68794  13.102  11.907  12.047
88966SOL    HW168795  13.143  11.927  12.131
88966SOL    HW268796  13.176  11.897  11.986
88967SOL     OW68797   1.524   3.328  14.126
88967SOL    HW168798   1.436   3.314  14.160
88967SOL    HW268799   1.510   3.363  14.037
88968SOL     OW68800   4.557  12.933  12.296
88968SOL    HW168801   4.568  12.855  12.350
88968SOL    HW268802   4.646  12.967  12.285
88969SOL     OW68803  13.480   6.286   1.781
88969SOL    HW168804  13.398   6.305   1.735
88969SOL    HW268805  13.453   6.261   1.869
88970SOL     OW68806   4.398   9.172   8.120
88970SOL    HW168807   4.368   9.172   8.030
88970SOL    HW268808   4.330   9.124   8.168
88971SOL     OW68809  11.156   0.577   1.175
88971SOL    HW168810  11.126   0.502   1.227
88971SOL    HW268811  11.234   0.608   1.221
88972SOL     OW68812  10.134   4.525  12.657
88972SOL    HW168813  10.047   4.487  12.672
88972SOL    HW268814  10.177   4.519  12.742
88973SOL     OW68815   9.525   3.158   4.025
88973SOL    HW168816   9.507   3.220   3.955
88973SOL    HW268817   9.462   3.087   4.011
88974SOL     OW68818  13.749   2.716   4.476
88974SOL    HW168819  13.711   2.803   4.486
88974SOL    HW268820  13.784   2.695   4.563
88975SOL     OW68821   9.274   7.221   8.069
88975SOL    HW168822   9.274   7.205   7.975
88975SOL    HW268823   9.361   7.255   8.087
88976SOL     OW68824   0.586  13.813   8.249
88976SOL    HW168825   0.656  13.811   8.184
88976SOL    HW268826   0.618  13.758   8.321
88977SOL     OW68827   7.418   9.067   2.088
88977SOL    HW168828   7.357   9.029   2.152
88977SOL    HW268829   7.417   9.006   2.015
88978SOL     OW68830   5.548   0.574  12.391
88978SOL    HW168831   5.602   0.637  12.437
88978SOL    HW268832   5.569   0.490  12.432
88979SOL     OW68833  11.643   2.020  12.644
88979SOL    HW168834  11.571   2.073  12.677
88979SOL    HW268835  11.713   2.083  12.626
88980SOL     OW68836  14.851   7.051   6.970
88980SOL    HW168837   0.003   7.076   6.880
88980SOL    HW268838  14.835   6.957   6.966
88981SOL     OW68839   5.647   4.147   5.723
88981SOL    HW168840   5.591   4.200   5.780
88981SOL    HW268841   5.609   4.156   5.636
88982SOL     OW68842   7.019   8.816  11.985
88982SOL    HW168843   7.088   8.878  12.011
88982SOL    HW268844   6.966   8.806  12.064
88983SOL     OW68845   4.807  12.103   0.784
88983SOL    HW168846   4.860  12.033   0.823
88983SOL    HW268847   4.799  12.078   0.692
88984SOL     OW68848   1.919   7.488   6.611
88984SOL    HW168849   1.931   7.533   6.528
88984SOL    HW268850   1.990   7.520   6.667
88985SOL     OW68851  10.854   7.480   3.338
88985SOL    HW168852  10.778   7.517   3.383
88985SOL    HW268853  10.924   7.544   3.352
88986SOL     OW68854  14.476  13.718   7.665
88986SOL    HW168855  14.419  13.784   7.625
88986SOL    HW268856  14.531  13.686   7.593
88987SOL     OW68857   1.025  12.466  10.405
88987SOL    HW168858   0.987  12.388  10.447
88987SOL    HW268859   0.958  12.533  10.417
88988SOL     OW68860  12.322   7.024   1.163
88988SOL    HW168861  12.384   7.091   1.133
88988SOL    HW268862  12.259   7.073   1.216
88989SOL     OW68863   0.541  12.892   1.168
88989SOL    HW168864   0.592  12.949   1.110
88989SOL    HW268865   0.524  12.814   1.116
88990SOL     OW68866   9.825  10.320   7.791
88990SOL    HW168867   9.832  10.377   7.714
88990SOL    HW268868   9.894  10.352   7.850
88991SOL     OW68869   4.686   5.000   4.346
88991SOL    HW168870   4.601   5.039   4.369
88991SOL    HW268871   4.750   5.066   4.371
88992SOL     OW68872   2.658   4.893  12.870
88992SOL    HW168873   2.721   4.825  12.896
88992SOL    HW268874   2.572   4.851  12.879
88993SOL     OW68875   4.727   6.341   8.871
88993SOL    HW168876   4.704   6.419   8.920
88993SOL    HW268877   4.725   6.368   8.779
88994SOL     OW68878  11.091   7.223   5.775
88994SOL    HW168879  11.113   7.151   5.717
88994SOL    HW268880  11.132   7.300   5.734
88995SOL     OW68881  11.207   1.752  12.979
88995SOL    HW168882  11.295   1.724  12.955
88995SOL    HW268883  11.166   1.674  13.017
88996SOL     OW68884   6.662   3.042   2.850
88996SOL    HW168885   6.639   2.960   2.893
88996SOL    HW268886   6.757   3.035   2.835
88997SOL     OW68887  10.778   6.601   8.068
88997SOL    HW168888  10.686   6.584   8.053
88997SOL    HW268889  10.803   6.544   8.141
88998SOL     OW68890  14.456   6.390   8.246
88998SOL    HW168891  14.493   6.412   8.332
88998SOL    HW268892  14.458   6.294   8.243
88999SOL     OW68893   5.380   3.679   2.566
88999SOL    HW168894   5.369   3.774   2.557
88999SOL    HW268895   5.449   3.669   2.632
89000SOL     OW68896   1.786  11.378  12.449
89000SOL    HW168897   1.761  11.330  12.528
89000SOL    HW268898   1.879  11.358  12.438
89001SOL     OW68899  13.813  12.126  14.070
89001SOL    HW168900  13.834  12.039  14.037
89001SOL    HW268901  13.853  12.130  14.156
89002SOL     OW68902  14.815  11.409   6.677
89002SOL    HW168903  14.821  11.386   6.769
89002SOL    HW268904  14.804  11.325   6.632
89003SOL     OW68905   9.318   2.364   5.165
89003SOL    HW168906   9.328   2.278   5.206
89003SOL    HW268907   9.224   2.383   5.172
89004SOL     OW68908  12.874   9.421   1.831
89004SOL    HW168909  12.877   9.487   1.900
89004SOL    HW268910  12.790   9.377   1.843
89005SOL     OW68911   3.787   2.996   5.199
89005SOL    HW168912   3.741   3.058   5.143
89005SOL    HW268913   3.739   2.998   5.282
89006SOL     OW68914   8.666  13.978   5.996
89006SOL    HW168915   8.614  14.021   5.929
89006SOL    HW268916   8.676  13.888   5.965
89007SOL     OW68917   4.674   1.904  10.655
89007SOL    HW168918   4.725   1.834  10.615
89007SOL    HW268919   4.735   1.978  10.659
89008SOL     OW68920   9.874   1.892  11.401
89008SOL    HW168921   9.788   1.923  11.429
89008SOL    HW268922   9.892   1.818  11.459
89009SOL     OW68923  11.173  14.436   0.976
89009SOL    HW168924  11.131  14.470   0.897
89009SOL    HW268925  11.247  14.384   0.943
89010SOL     OW68926  13.695  14.254   3.424
89010SOL    HW168927  13.719  14.262   3.516
89010SOL    HW268928  13.760  14.194   3.387
89011SOL     OW68929  12.891   7.973   6.686
89011SOL    HW168930  12.874   8.066   6.701
89011SOL    HW268931  12.903   7.966   6.591
89012SOL     OW68932  12.183  10.944   0.520
89012SOL    HW168933  12.111  10.912   0.466
89012SOL    HW268934  12.260  10.937   0.464
89013SOL     OW68935   8.051   1.258  13.957
89013SOL    HW168936   8.087   1.262  13.868
89013SOL    HW268937   7.969   1.308  13.952
89014SOL     OW68938  11.419  13.030   3.754
89014SOL    HW168939  11.331  13.033   3.715
89014SOL    HW268940  11.431  12.937   3.777
89015SOL     OW68941  10.662   8.108   0.495
89015SOL    HW168942  10.677   8.164   0.571
89015SOL    HW268943  10.658   8.169   0.421
89016SOL     OW68944   2.719   2.220   4.391
89016SOL    HW168945   2.814   2.226   4.404
89016SOL    HW268946   2.703   2.130   4.365
89017SOL     OW68947   1.604   9.044   1.133
89017SOL    HW168948   1.658   8.973   1.097
89017SOL    HW268949   1.567   9.006   1.213
89018SOL     OW68950   8.502   8.362   2.187
89018SOL    HW168951   8.452   8.295   2.234
89018SOL    HW268952   8.444   8.392   2.117
89019SOL     OW68953   8.657   1.941   0.430
89019SOL    HW168954   8.677   2.012   0.491
89019SOL    HW268955   8.734   1.937   0.372
89020SOL     OW68956   8.221   0.754   3.921
89020SOL    HW168957   8.227   0.665   3.887
89020SOL    HW268958   8.157   0.749   3.992
89021SOL     OW68959   8.059   2.614   2.180
89021SOL    HW168960   8.073   2.647   2.091
89021SOL    HW268961   8.041   2.693   2.232
89022SOL     OW68962  11.832   1.729   3.141
89022SOL    HW168963  11.804   1.734   3.050
89022SOL    HW268964  11.874   1.644   3.149
89023SOL     OW68965   5.881  13.808   9.010
89023SOL    HW168966   5.929  13.737   8.968
89023SOL    HW268967   5.843  13.769   9.088
89024SOL     OW68968   3.497  10.410  12.785
89024SOL    HW168969   3.589  10.382  12.792
89024SOL    HW268970   3.464  10.363  12.709
89025SOL     OW68971  12.209  14.605  10.776
89025SOL    HW168972  12.186  14.608  10.683
89025SOL    HW268973  12.200  14.696  10.806
89026SOL     OW68974  11.398   1.592   7.870
89026SOL    HW168975  11.321   1.552   7.911
89026SOL    HW268976  11.367   1.676   7.837
89027SOL     OW68977  12.106   8.204   1.046
89027SOL    HW168978  12.197   8.195   1.072
89027SOL    HW268979  12.056   8.174   1.122
89028SOL     OW68980   5.124   9.133   1.728
89028SOL    HW168981   5.140   9.131   1.822
89028SOL    HW268982   5.210   9.147   1.689
89029SOL     OW68983   0.856   6.090  10.659
89029SOL    HW168984   0.803   6.139  10.722
89029SOL    HW268985   0.877   6.154  10.591
89030SOL     OW68986   2.774  11.184   1.329
89030SOL    HW168987   2.697  11.189   1.385
89030SOL    HW268988   2.748  11.227   1.248
89031SOL     OW68989  13.900  10.734   7.394
89031SOL    HW168990  13.878  10.827   7.392
89031SOL    HW268991  13.927  10.713   7.305
89032SOL     OW68992   8.843   8.545  11.427
89032SOL    HW168993   8.867   8.612  11.490
89032SOL    HW268994   8.921   8.533  11.373
89033SOL     OW68995   7.398  10.892  10.365
89033SOL    HW168996   7.309  10.927  10.354
89033SOL    HW268997   7.385  10.800  10.389
89034SOL     OW68998  14.331   8.224   0.864
89034SOL    HW168999  14.334   8.139   0.907
89034SOL    HW269000  14.245   8.228   0.822
89035SOL     OW69001   0.047   7.086   8.987
89035SOL    HW169002  14.847   7.052   9.045
89035SOL    HW269003   0.021   7.056   8.899
89036SOL     OW69004  13.597   8.817   6.158
89036SOL    HW169005  13.621   8.803   6.250
89036SOL    HW269006  13.614   8.732   6.116
89037SOL     OW69007   7.344  10.371   3.922
89037SOL    HW169008   7.425  10.417   3.901
89037SOL    HW269009   7.277  10.415   3.870
89038SOL     OW69010   3.339  11.376   1.641
89038SOL    HW169011   3.426  11.374   1.682
89038SOL    HW269012   3.288  11.434   1.697
89039SOL     OW69013  10.467   8.372  14.043
89039SOL    HW169014  10.506   8.344  14.126
89039SOL    HW269015  10.395   8.310  14.028
89040SOL     OW69016  11.534   5.320   4.416
89040SOL    HW169017  11.492   5.269   4.485
89040SOL    HW269018  11.461   5.350   4.361
89041SOL     OW69019  14.258   4.877  11.185
89041SOL    HW169020  14.309   4.821  11.243
89041SOL    HW269021  14.323   4.926  11.135
89042SOL     OW69022   9.523   9.975  10.523
89042SOL    HW169023   9.483   9.889  10.532
89042SOL    HW269024   9.601   9.972  10.580
89043SOL     OW69025  13.043  10.352   1.925
89043SOL    HW169026  13.130  10.345   1.887
89043SOL    HW269027  13.025  10.446   1.927
89044SOL     OW69028  12.658   8.188   8.684
89044SOL    HW169029  12.726   8.256   8.684
89044SOL    HW269030  12.703   8.109   8.713
89045SOL     OW69031   9.971   7.067   1.176
89045SOL    HW169032  10.024   6.987   1.181
89045SOL    HW269033   9.906   7.048   1.109
89046SOL     OW69034  10.298  11.901   4.218
89046SOL    HW169035  10.378  11.943   4.251
89046SOL    HW269036  10.318  11.808   4.219
89047SOL     OW69037   1.922  12.869  12.847
89047SOL    HW169038   1.930  12.839  12.756
89047SOL    HW269039   1.842  12.827  12.879
89048SOL     OW69040  12.564  14.421  13.382
89048SOL    HW169041  12.501  14.443  13.314
89048SOL    HW269042  12.617  14.501  13.392
89049SOL     OW69043   4.567   3.224  12.942
89049SOL    HW169044   4.507   3.290  12.979
89049SOL    HW269045   4.612   3.270  12.871
89050SOL     OW69046   6.897   0.329   6.815
89050SOL    HW169047   6.816   0.295   6.853
89050SOL    HW269048   6.869   0.408   6.767
89051SOL     OW69049   0.735  14.440   2.472
89051SOL    HW169050   0.740  14.443   2.377
89051SOL    HW269051   0.654  14.486   2.494
89052SOL     OW69052  10.069   1.321  14.267
89052SOL    HW169053  10.070   1.291  14.176
89052SOL    HW269054  10.159   1.310  14.297
89053SOL     OW69055   8.158   3.497   0.413
89053SOL    HW169056   8.239   3.536   0.379
89053SOL    HW269057   8.123   3.448   0.339
89054SOL     OW69058  10.349   4.595  11.360
89054SOL    HW169059  10.442   4.618  11.366
89054SOL    HW269060  10.305   4.679  11.351
89055SOL     OW69061  10.439   0.873   2.985
89055SOL    HW169062  10.362   0.915   2.947
89055SOL    HW269063  10.461   0.926   3.061
89056SOL     OW69064   9.781  13.900   6.250
89056SOL    HW169065   9.877  13.896   6.246
89056SOL    HW269066   9.761  13.880   6.341
89057SOL     OW69067  11.018  10.159   4.719
89057SOL    HW169068  10.927  10.131   4.711
89057SOL    HW269069  11.056  10.142   4.633
89058SOL     OW69070   0.804  11.869  12.305
89058SOL    HW169071   0.759  11.895  12.385
89058SOL    HW269072   0.805  11.948  12.251
89059SOL     OW69073   6.488   5.605  12.205
89059SOL    HW169074   6.516   5.595  12.114
89059SOL    HW269075   6.451   5.519  12.227
89060SOL     OW69076  14.405   9.397   8.083
89060SOL    HW169077  14.391   9.355   7.998
89060SOL    HW269078  14.494   9.372   8.108
89061SOL     OW69079  13.086  12.320   4.772
89061SOL    HW169080  13.127  12.234   4.766
89061SOL    HW269081  13.010  12.307   4.829
89062SOL     OW69082   0.721  14.174  12.024
89062SOL    HW169083   0.635  14.203  11.995
89062SOL    HW269084   0.773  14.254  12.029
89063SOL     OW69085  14.375   8.824   2.124
89063SOL    HW169086  14.425   8.892   2.078
89063SOL    HW269087  14.416   8.742   2.096
89064SOL     OW69088   7.694   0.865   0.497
89064SOL    HW169089   7.686   0.914   0.415
89064SOL    HW269090   7.712   0.775   0.469
89065SOL     OW69091   7.659   0.782   8.462
89065SOL    HW169092   7.673   0.766   8.369
89065SOL    HW269093   7.565   0.768   8.474
89066SOL     OW69094   1.960   4.570  10.475
89066SOL    HW169095   1.926   4.650  10.436
89066SOL    HW269096   2.035   4.546  10.421
89067SOL     OW69097  13.518  12.324   5.944
89067SOL    HW169098  13.434  12.305   5.986
89067SOL    HW269099  13.511  12.287   5.856
89068SOL     OW69100   1.489   7.431  12.559
89068SOL    HW169101   1.406   7.464  12.593
89068SOL    HW269102   1.555   7.489  12.596
89069SOL     OW69103   0.450   1.507   5.893
89069SOL    HW169104   0.541   1.480   5.902
89069SOL    HW269105   0.420   1.466   5.812
89070SOL     OW69106   4.399   7.878   8.805
89070SOL    HW169107   4.429   7.788   8.794
89070SOL    HW269108   4.416   7.919   8.720
89071SOL     OW69109   9.423   5.372   0.690
89071SOL    HW169110   9.435   5.467   0.693
89071SOL    HW269111   9.508   5.336   0.716
89072SOL     OW69112   2.799   0.193   2.032
89072SOL    HW169113   2.847   0.251   2.091
89072SOL    HW269114   2.707   0.219   2.043
89073SOL     OW69115   8.440   7.995  14.860
89073SOL    HW169116   8.519   7.982  14.807
89073SOL    HW269117   8.447   8.086   0.023
89074SOL     OW69118   6.774   7.785  12.870
89074SOL    HW169119   6.830   7.846  12.918
89074SOL    HW269120   6.716   7.841  12.819
89075SOL     OW69121   5.988   3.563  11.842
89075SOL    HW169122   5.988   3.576  11.747
89075SOL    HW269123   6.049   3.629  11.875
89076SOL     OW69124   1.457   4.062   2.610
89076SOL    HW169125   1.533   4.118   2.622
89076SOL    HW269126   1.383   4.116   2.635
89077SOL     OW69127   3.271   3.706   0.617
89077SOL    HW169128   3.236   3.751   0.694
89077SOL    HW269129   3.302   3.622   0.651
89078SOL     OW69130   2.726  12.839  13.789
89078SOL    HW169131   2.668  12.803  13.855
89078SOL    HW269132   2.668  12.887  13.729
89079SOL     OW69133  14.520  10.654   1.358
89079SOL    HW169134  14.453  10.704   1.403
89079SOL    HW269135  14.603  10.691   1.387
89080SOL     OW69136  11.502   4.045  13.862
89080SOL    HW169137  11.556   4.054  13.940
89080SOL    HW269138  11.507   4.131  13.819
89081SOL     OW69139  10.366  10.939   7.512
89081SOL    HW169140  10.365  10.847   7.485
89081SOL    HW269141  10.334  10.987   7.436
89082SOL     OW69142  14.798  11.893  10.712
89082SOL    HW169143  14.707  11.863  10.718
89082SOL    HW269144  14.791  11.989  10.715
89083SOL     OW69145   1.304   1.167   5.181
89083SOL    HW169146   1.361   1.098   5.214
89083SOL    HW269147   1.338   1.186   5.093
89084SOL     OW69148   2.487   5.285  13.823
89084SOL    HW169149   2.577   5.318  13.820
89084SOL    HW269150   2.472   5.263  13.915
89085SOL     OW69151  12.412   3.622  10.118
89085SOL    HW169152  12.411   3.650  10.026
89085SOL    HW269153  12.322   3.594  10.136
89086SOL     OW69154  10.818   0.397  12.653
89086SOL    HW169155  10.761   0.442  12.715
89086SOL    HW269156  10.771   0.316  12.631
89087SOL     OW69157   6.788  13.817   7.981
89087SOL    HW169158   6.862  13.867   8.014
89087SOL    HW269159   6.712  13.853   8.027
89088SOL     OW69160   0.593  11.459   1.356
89088SOL    HW169161   0.526  11.516   1.394
89088SOL    HW269162   0.616  11.399   1.427
89089SOL     OW69163  14.342   2.182  11.424
89089SOL    HW169164  14.415   2.155  11.368
89089SOL    HW269165  14.330   2.109  11.485
89090SOL     OW69166   2.739   8.412  14.774
89090SOL    HW169167   2.729   8.373  14.687
89090SOL    HW269168   2.804   8.481  14.762
89091SOL     OW69169  11.285   9.614   9.371
89091SOL    HW169170  11.274   9.694   9.320
89091SOL    HW269171  11.248   9.545   9.315
89092SOL     OW69172  12.433  12.462  12.727
89092SOL    HW169173  12.360  12.475  12.666
89092SOL    HW269174  12.457  12.370  12.716
89093SOL     OW69175  13.276   8.906   0.420
89093SOL    HW169176  13.260   8.816   0.450
89093SOL    HW269177  13.336   8.895   0.346
89094SOL     OW69178   8.660   5.356  14.018
89094SOL    HW169179   8.586   5.416  14.017
89094SOL    HW269180   8.669   5.331  14.110
89095SOL     OW69181  14.646  11.615  11.253
89095SOL    HW169182  14.652  11.619  11.157
89095SOL    HW269183  14.735  11.631  11.283
89096SOL     OW69184  10.996   9.120   2.378
89096SOL    HW169185  11.002   9.045   2.437
89096SOL    HW269186  10.962   9.084   2.296
89097SOL     OW69187   5.493  11.788   3.727
89097SOL    HW169188   5.500  11.694   3.746
89097SOL    HW269189   5.448  11.793   3.643
89098SOL     OW69190   3.914   3.491  11.352
89098SOL    HW169191   3.944   3.490  11.262
89098SOL    HW269192   3.898   3.400  11.374
89099SOL     OW69193   0.829   8.133  12.782
89099SOL    HW169194   0.793   8.053  12.820
89099SOL    HW269195   0.764   8.160  12.717
89100SOL     OW69196   6.145  11.018  10.073
89100SOL    HW169197   6.236  11.043  10.060
89100SOL    HW269198   6.108  11.087  10.127
89101SOL     OW69199  11.967   2.100   2.821
89101SOL    HW169200  11.951   2.173   2.761
89101SOL    HW269201  11.909   2.031   2.790
89102SOL     OW69202   3.407  12.151  14.178
89102SOL    HW169203   3.436  12.164  14.087
89102SOL    HW269204   3.460  12.213  14.228
89103SOL     OW69205   1.725   1.709   3.313
89103SOL    HW169206   1.697   1.756   3.391
89103SOL    HW269207   1.674   1.748   3.242
89104SOL     OW69208  14.161   9.642   7.214
89104SOL    HW169209  14.156   9.625   7.308
89104SOL    HW269210  14.234   9.704   7.206
89105SOL     OW69211  14.014   3.634  13.523
89105SOL    HW169212  14.060   3.677  13.594
89105SOL    HW269213  13.935   3.598  13.563
89106SOL     OW69214   8.031   5.065   8.106
89106SOL    HW169215   8.002   5.098   8.191
89106SOL    HW269216   8.063   5.142   8.060
89107SOL     OW69217   6.599  12.558   2.052
89107SOL    HW169218   6.684  12.553   2.009
89107SOL    HW269219   6.549  12.619   1.998
89108SOL     OW69220   9.754  10.485   9.630
89108SOL    HW169221   9.833  10.528   9.661
89108SOL    HW269222   9.693  10.491   9.704
89109SOL     OW69223   2.037   8.687   4.529
89109SOL    HW169224   2.007   8.773   4.559
89109SOL    HW269225   1.977   8.625   4.570
89110SOL     OW69226   7.279   3.773   6.296
89110SOL    HW169227   7.348   3.746   6.237
89110SOL    HW269228   7.256   3.862   6.268
89111SOL     OW69229  12.302   1.281  14.373
89111SOL    HW169230  12.359   1.242  14.438
89111SOL    HW269231  12.308   1.223  14.297
89112SOL     OW69232  13.634  12.724  14.634
89112SOL    HW169233  13.572  12.781  14.679
89112SOL    HW269234  13.687  12.684  14.703
89113SOL     OW69235  10.336   8.521  10.596
89113SOL    HW169236  10.397   8.547  10.665
89113SOL    HW269237  10.250   8.553  10.626
89114SOL     OW69238  11.576   0.848   2.365
89114SOL    HW169239  11.507   0.897   2.322
89114SOL    HW269240  11.649   0.849   2.303
89115SOL     OW69241  13.427   5.340   7.784
89115SOL    HW169242  13.430   5.426   7.826
89115SOL    HW269243  13.385   5.283   7.849
89116SOL     OW69244  14.429   5.095   2.668
89116SOL    HW169245  14.394   5.025   2.723
89116SOL    HW269246  14.520   5.106   2.698
89117SOL     OW69247   0.073   2.151   7.781
89117SOL    HW169248   0.154   2.151   7.832
89117SOL    HW269249   0.082   2.225   7.721
89118SOL     OW69250   3.150  11.961  13.719
89118SOL    HW169251   3.234  11.958  13.673
89118SOL    HW269252   3.120  12.051  13.708
89119SOL     OW69253   1.914   1.093   1.421
89119SOL    HW169254   1.922   1.000   1.398
89119SOL    HW269255   1.822   1.104   1.444
89120SOL     OW69256   8.243   4.315   8.038
89120SOL    HW169257   8.271   4.402   8.068
89120SOL    HW269258   8.325   4.267   8.025
89121SOL     OW69259  13.198   2.009   8.402
89121SOL    HW169260  13.166   1.919   8.415
89121SOL    HW269261  13.257   2.003   8.327
89122SOL     OW69262   3.944   0.595   2.386
89122SOL    HW169263   3.902   0.632   2.464
89122SOL    HW269264   3.882   0.613   2.315
89123SOL     OW69265   1.922   2.208   1.496
89123SOL    HW169266   1.871   2.235   1.572
89123SOL    HW269267   1.999   2.265   1.497
89124SOL     OW69268  12.240  12.534   7.890
89124SOL    HW169269  12.171  12.513   7.953
89124SOL    HW269270  12.285  12.450   7.876
89125SOL     OW69271  13.321  12.033   9.047
89125SOL    HW169272  13.318  12.069   8.958
89125SOL    HW269273  13.369  11.951   9.038
89126SOL     OW69274   0.172   0.058   2.831
89126SOL    HW169275   0.263   0.065   2.803
89126SOL    HW269276   0.156   0.138   2.881
89127SOL     OW69277   7.619   8.776   7.111
89127SOL    HW169278   7.654   8.705   7.165
89127SOL    HW269279   7.564   8.732   7.047
89128SOL     OW69280   8.541   6.268  14.009
89128SOL    HW169281   8.575   6.293  14.095
89128SOL    HW269282   8.545   6.173  14.008
89129SOL     OW69283   3.123  11.902  13.399
89129SOL    HW169284   3.118  11.997  13.384
89129SOL    HW269285   3.047  11.866  13.354
89130SOL     OW69286   9.028  13.817   4.139
89130SOL    HW169287   8.992  13.898   4.176
89130SOL    HW269288   9.056  13.766   4.215
89131SOL     OW69289   0.985  13.424   5.444
89131SOL    HW169290   0.983  13.332   5.416
89131SOL    HW269291   0.915  13.431   5.508
89132SOL     OW69292   7.901  10.987   9.548
89132SOL    HW169293   7.843  10.926   9.593
89132SOL    HW269294   7.851  11.016   9.472
89133SOL     OW69295   5.716   3.222   6.178
89133SOL    HW169296   5.800   3.249   6.141
89133SOL    HW269297   5.665   3.303   6.185
89134SOL     OW69298  12.314   2.749   8.347
89134SOL    HW169299  12.399   2.786   8.373
89134SOL    HW269300  12.258   2.825   8.334
89135SOL     OW69301   3.628   9.234  11.299
89135SOL    HW169302   3.567   9.255  11.369
89135SOL    HW269303   3.588   9.270  11.220
89136SOL     OW69304  10.513   5.318   4.758
89136SOL    HW169305  10.568   5.244   4.730
89136SOL    HW269306  10.425   5.282   4.767
89137SOL     OW69307   9.272   0.563   0.301
89137SOL    HW169308   9.250   0.598   0.215
89137SOL    HW269309   9.347   0.506   0.286
89138SOL     OW69310   1.636   6.071  14.854
89138SOL    HW169311   1.634   6.140  14.788
89138SOL    HW269312   1.545   6.061   0.014
89139SOL     OW69313   9.021   2.168  12.611
89139SOL    HW169314   9.050   2.208  12.529
89139SOL    HW269315   9.096   2.118  12.641
89140SOL     OW69316  13.356  13.988   1.176
89140SOL    HW169317  13.362  13.913   1.236
89140SOL    HW269318  13.434  14.040   1.194
89141SOL     OW69319   3.962  13.605  14.277
89141SOL    HW169320   3.885  13.605  14.333
89141SOL    HW269321   3.962  13.692  14.237
89142SOL     OW69322   2.763   2.122   7.974
89142SOL    HW169323   2.842   2.099   8.022
89142SOL    HW269324   2.763   2.218   7.973
89143SOL     OW69325  11.158   9.129   9.807
89143SOL    HW169326  11.207   9.191   9.861
89143SOL    HW269327  11.184   9.149   9.717
89144SOL     OW69328   7.201  11.832   5.410
89144SOL    HW169329   7.246  11.914   5.431
89144SOL    HW269330   7.136  11.822   5.480
89145SOL     OW69331   9.875   6.203  12.189
89145SOL    HW169332   9.894   6.294  12.211
89145SOL    HW269333   9.960   6.166  12.166
89146SOL     OW69334  12.622   7.317   3.059
89146SOL    HW169335  12.649   7.399   3.018
89146SOL    HW269336  12.702   7.283   3.100
89147SOL     OW69337   4.527  13.974  11.399
89147SOL    HW169338   4.601  13.944  11.347
89147SOL    HW269339   4.551  14.063  11.426
89148SOL     OW69340   6.191  14.831   5.403
89148SOL    HW169341   6.220  14.742   5.421
89148SOL    HW269342   6.135  14.854   5.478
89149SOL     OW69343  13.134   8.444   0.716
89149SOL    HW169344  13.159   8.375   0.655
89149SOL    HW269345  13.214   8.497   0.726
89150SOL     OW69346   7.071   5.091   3.656
89150SOL    HW169347   7.073   5.156   3.727
89150SOL    HW269348   7.043   5.010   3.699
89151SOL     OW69349  12.715   8.362  12.057
89151SOL    HW169350  12.761   8.386  12.138
89151SOL    HW269351  12.785   8.333  11.998
89152SOL     OW69352   5.287  12.519   7.209
89152SOL    HW169353   5.313  12.498   7.299
89152SOL    HW269354   5.350  12.472   7.154
89153SOL     OW69355   0.229  13.632   2.141
89153SOL    HW169356   0.174  13.638   2.063
89153SOL    HW269357   0.238  13.722   2.172
89154SOL     OW69358   7.179   0.495   0.031
89154SOL    HW169359   7.141   0.552   0.097
89154SOL    HW269360   7.199   0.414   0.077
89155SOL     OW69361   7.822   7.081   5.565
89155SOL    HW169362   7.770   7.125   5.633
89155SOL    HW269363   7.766   7.083   5.487
89156SOL     OW69364   1.562  11.141  14.069
89156SOL    HW169365   1.539  11.224  14.112
89156SOL    HW269366   1.591  11.167  13.982
89157SOL     OW69367   1.792  14.232   7.499
89157SOL    HW169368   1.883  14.221   7.527
89157SOL    HW269369   1.740  14.213   7.577
89158SOL     OW69370   6.688   1.931  14.239
89158SOL    HW169371   6.755   1.876  14.280
89158SOL    HW269372   6.667   1.887  14.157
89159SOL     OW69373   9.419   0.216  11.766
89159SOL    HW169374   9.352   0.280  11.742
89159SOL    HW269375   9.449   0.181  11.682
89160SOL     OW69376   8.590   8.081   9.277
89160SOL    HW169377   8.509   8.099   9.230
89160SOL    HW269378   8.583   7.989   9.303
89161SOL     OW69379   2.260   6.044   2.614
89161SOL    HW169380   2.230   6.133   2.600
89161SOL    HW269381   2.257   6.003   2.527
89162SOL     OW69382   9.566   7.500   1.312
89162SOL    HW169383   9.508   7.434   1.349
89162SOL    HW269384   9.547   7.579   1.362
89163SOL     OW69385   3.546   3.563  14.425
89163SOL    HW169386   3.541   3.649  14.466
89163SOL    HW269387   3.489   3.570  14.348
89164SOL     OW69388   5.200  11.466   1.166
89164SOL    HW169389   5.277  11.482   1.112
89164SOL    HW269390   5.200  11.537   1.230
89165SOL     OW69391   2.306  14.474   2.128
89165SOL    HW169392   2.344  14.395   2.166
89165SOL    HW269393   2.349  14.546   2.174
89166SOL     OW69394   0.027   0.993  11.888
89166SOL    HW169395   0.104   1.048  11.904
89166SOL    HW269396   0.037   0.920  11.949
89167SOL     OW69397   1.775   1.101   2.599
89167SOL    HW169398   1.814   1.165   2.540
89167SOL    HW269399   1.681   1.110   2.585
89168SOL     OW69400   5.557   4.046   0.025
89168SOL    HW169401   5.589   4.134   0.004
89168SOL    HW269402   5.601   4.024   0.107
89169SOL     OW69403  10.990   4.354   6.880
89169SOL    HW169404  10.935   4.392   6.811
89169SOL    HW269405  10.951   4.385   6.961
89170SOL     OW69406   0.544  13.316  12.029
89170SOL    HW169407   0.490  13.323  12.107
89170SOL    HW269408   0.585  13.402  12.021
89171SOL     OW69409   1.913   5.533   1.154
89171SOL    HW169410   1.873   5.569   1.233
89171SOL    HW269411   1.840   5.505   1.100
89172SOL     OW69412  13.641   4.180  14.564
89172SOL    HW169413  13.641   4.175  14.660
89172SOL    HW269414  13.677   4.096  14.535
89173SOL     OW69415   7.701   1.454  12.927
89173SOL    HW169416   7.709   1.403  12.846
89173SOL    HW269417   7.664   1.537  12.899
89174SOL     OW69418   2.616   6.927  10.557
89174SOL    HW169419   2.547   6.983  10.520
89174SOL    HW269420   2.598   6.925  10.651
89175SOL     OW69421  10.738   0.047   7.372
89175SOL    HW169422  10.714   0.039   7.279
89175SOL    HW269423  10.737   0.141   7.388
89176SOL     OW69424   2.822   0.081   6.275
89176SOL    HW169425   2.855   0.153   6.221
89176SOL    HW269426   2.767   0.123   6.341
89177SOL     OW69427   4.944  12.981   8.402
89177SOL    HW169428   4.868  12.995   8.345
89177SOL    HW269429   4.920  12.904   8.454
89178SOL     OW69430   8.433   2.470   8.971
89178SOL    HW169431   8.428   2.411   8.896
89178SOL    HW269432   8.354   2.453   9.022
89179SOL     OW69433   4.358  14.099   9.593
89179SOL    HW169434   4.279  14.090   9.646
89179SOL    HW269435   4.339  14.048   9.514
89180SOL     OW69436   3.733  12.961  10.739
89180SOL    HW169437   3.669  13.014  10.787
89180SOL    HW269438   3.683  12.927  10.664
89181SOL     OW69439   1.449   5.043   2.712
89181SOL    HW169440   1.445   5.139   2.713
89181SOL    HW269441   1.542   5.023   2.706
89182SOL     OW69442   0.570   7.986  13.038
89182SOL    HW169443   0.483   7.946  13.042
89182SOL    HW269444   0.605   7.958  12.953
89183SOL     OW69445  12.693  11.228   3.294
89183SOL    HW169446  12.614  11.176   3.280
89183SOL    HW269447  12.664  11.304   3.344
89184SOL     OW69448  12.573   0.450  10.806
89184SOL    HW169449  12.500   0.493  10.762
89184SOL    HW269450  12.567   0.359  10.778
89185SOL     OW69451  13.156  12.121   1.206
89185SOL    HW169452  13.122  12.140   1.293
89185SOL    HW269453  13.142  12.027   1.194
89186SOL     OW69454   6.394  11.080  14.134
89186SOL    HW169455   6.489  11.080  14.144
89186SOL    HW269456   6.376  11.154  14.076
89187SOL     OW69457  10.230   5.276   5.353
89187SOL    HW169458  10.323   5.286   5.334
89187SOL    HW269459  10.222   5.187   5.388
89188SOL     OW69460  11.436   8.855  14.176
89188SOL    HW169461  11.459   8.834  14.266
89188SOL    HW269462  11.505   8.915  14.147
89189SOL     OW69463  13.614   5.218   7.655
89189SOL    HW169464  13.549   5.271   7.702
89189SOL    HW269465  13.698   5.247   7.690
89190SOL     OW69466   5.294   9.417   1.398
89190SOL    HW169467   5.331   9.393   1.483
89190SOL    HW269468   5.240   9.494   1.417
89191SOL     OW69469  14.219   6.122   5.054
89191SOL    HW169470  14.195   6.179   5.128
89191SOL    HW269471  14.284   6.062   5.090
89192SOL     OW69472   4.284   6.422   1.043
89192SOL    HW169473   4.308   6.481   0.971
89192SOL    HW269474   4.368   6.400   1.084
89193SOL     OW69475  12.309   1.001   9.852
89193SOL    HW169476  12.326   1.023   9.944
89193SOL    HW269477  12.396   0.997   9.813
89194SOL     OW69478  11.091   7.583   0.368
89194SOL    HW169479  11.034   7.539   0.304
89194SOL    HW269480  11.040   7.658   0.398
89195SOL     OW69481   4.693  13.050   1.812
89195SOL    HW169482   4.679  12.982   1.746
89195SOL    HW269483   4.644  13.126   1.780
89196SOL     OW69484   7.184   6.765  13.424
89196SOL    HW169485   7.252   6.731  13.366
89196SOL    HW269486   7.193   6.861  13.418
89197SOL     OW69487   9.268   0.107  12.210
89197SOL    HW169488   9.313   0.161  12.145
89197SOL    HW269489   9.177   0.105  12.182
89198SOL     OW69490   2.671   6.328   6.320
89198SOL    HW169491   2.742   6.382   6.355
89198SOL    HW269492   2.668   6.251   6.377
89199SOL     OW69493  10.211   4.400   2.640
89199SOL    HW169494  10.188   4.313   2.607
89199SOL    HW269495  10.200   4.394   2.735
89200SOL     OW69496   9.102   7.540   2.645
89200SOL    HW169497   9.023   7.495   2.673
89200SOL    HW269498   9.084   7.633   2.660
89201SOL     OW69499   7.596   9.908   8.394
89201SOL    HW169500   7.534   9.979   8.375
89201SOL    HW269501   7.625   9.878   8.308
89202SOL     OW69502   0.746   4.828  12.500
89202SOL    HW169503   0.803   4.897  12.534
89202SOL    HW269504   0.709   4.787  12.579
89203SOL     OW69505   5.508   7.421   1.159
89203SOL    HW169506   5.537   7.511   1.143
89203SOL    HW269507   5.541   7.371   1.084
89204SOL     OW69508  13.812   5.199   0.796
89204SOL    HW169509  13.717   5.188   0.789
89204SOL    HW269510  13.838   5.140   0.867
89205SOL     OW69511   2.651   2.663   7.064
89205SOL    HW169512   2.667   2.587   7.010
89205SOL    HW269513   2.738   2.698   7.084
89206SOL     OW69514   1.755   7.587  13.894
89206SOL    HW169515   1.847   7.596  13.870
89206SOL    HW269516   1.709   7.644  13.833
89207SOL     OW69517   1.242  11.664   9.562
89207SOL    HW169518   1.255  11.617   9.480
89207SOL    HW269519   1.183  11.609   9.613
89208SOL     OW69520   4.395   7.437   9.991
89208SOL    HW169521   4.379   7.354   9.948
89208SOL    HW269522   4.423   7.496   9.921
89209SOL     OW69523   2.331   5.242   2.604
89209SOL    HW169524   2.387   5.319   2.612
89209SOL    HW269525   2.302   5.243   2.513
89210SOL     OW69526   8.208  13.929   7.086
89210SOL    HW169527   8.200  13.908   6.993
89210SOL    HW269528   8.118  13.932   7.117
89211SOL     OW69529  14.782   4.796   2.188
89211SOL    HW169530  14.733   4.841   2.119
89211SOL    HW269531  14.799   4.864   2.253
89212SOL     OW69532   8.506  14.638  11.648
89212SOL    HW169533   8.441  14.626  11.578
89212SOL    HW269534   8.453  14.650  11.727
89213SOL     OW69535  10.333   3.168  10.898
89213SOL    HW169536  10.420   3.128  10.904
89213SOL    HW269537  10.337   3.244  10.957
89214SOL     OW69538  11.560   2.144   5.986
89214SOL    HW169539  11.643   2.146   5.938
89214SOL    HW269540  11.532   2.235   5.989
89215SOL     OW69541   9.783   9.986  10.619
89215SOL    HW169542   9.853   9.936  10.578
89215SOL    HW269543   9.783   9.957  10.710
89216SOL     OW69544   1.986  12.424  14.456
89216SOL    HW169545   2.082  12.421  14.459
89216SOL    HW269546   1.965  12.511  14.422
89217SOL     OW69547  13.418  14.397   6.676
89217SOL    HW169548  13.474  14.364   6.605
89217SOL    HW269549  13.469  14.467   6.717
89218SOL     OW69550   5.068   2.349   6.375
89218SOL    HW169551   4.987   2.304   6.398
89218SOL    HW269552   5.134   2.310   6.433
89219SOL     OW69553  14.352   7.480  14.465
89219SOL    HW169554  14.274   7.494  14.411
89219SOL    HW269555  14.351   7.551  14.528
89220SOL     OW69556   0.306   9.491   1.631
89220SOL    HW169557   0.285   9.582   1.615
89220SOL    HW269558   0.247   9.442   1.574
89221SOL     OW69559   8.831   5.870   4.882
89221SOL    HW169560   8.736   5.886   4.886
89221SOL    HW269561   8.865   5.911   4.961
89222SOL     OW69562   6.377   7.520   0.455
89222SOL    HW169563   6.462   7.560   0.475
89222SOL    HW269564   6.395   7.463   0.380
89223SOL     OW69565   8.234   0.505   6.227
89223SOL    HW169566   8.228   0.411   6.239
89223SOL    HW269567   8.298   0.534   6.293
89224SOL     OW69568   7.891   1.374   1.878
89224SOL    HW169569   7.911   1.466   1.864
89224SOL    HW269570   7.919   1.331   1.797
89225SOL     OW69571  13.772  14.868   9.075
89225SOL    HW169572  13.842  14.857   9.139
89225SOL    HW269573  13.735  14.780   9.065
89226SOL     OW69574   2.951   6.653   4.599
89226SOL    HW169575   2.976   6.658   4.507
89226SOL    HW269576   2.858   6.677   4.600
89227SOL     OW69577   6.629  11.572   8.815
89227SOL    HW169578   6.574  11.614   8.881
89227SOL    HW269579   6.577  11.499   8.783
89228SOL     OW69580  12.875   0.529   0.858
89228SOL    HW169581  12.827   0.611   0.844
89228SOL    HW269582  12.844   0.497   0.942
89229SOL     OW69583   4.049  14.541  14.379
89229SOL    HW169584   4.015  14.539  14.289
89229SOL    HW269585   3.973  14.565  14.432
89230SOL     OW69586  14.386   7.892   6.902
89230SOL    HW169587  14.458   7.829   6.909
89230SOL    HW269588  14.307   7.837   6.902
89231SOL     OW69589   0.798   5.377   5.551
89231SOL    HW169590   0.762   5.440   5.488
89231SOL    HW269591   0.798   5.293   5.504
89232SOL     OW69592   8.554  12.419   3.182
89232SOL    HW169593   8.550  12.336   3.134
89232SOL    HW269594   8.573  12.393   3.272
89233SOL     OW69595   0.619   9.507   5.493
89233SOL    HW169596   0.690   9.508   5.429
89233SOL    HW269597   0.647   9.568   5.561
89234SOL     OW69598   6.411   9.736   9.205
89234SOL    HW169599   6.400   9.641   9.209
89234SOL    HW269600   6.432   9.753   9.113
89235SOL     OW69601   3.380   9.496  14.474
89235SOL    HW169602   3.335   9.453  14.401
89235SOL    HW269603   3.464   9.451  14.480
89236SOL     OW69604  12.163   8.949   7.674
89236SOL    HW169605  12.194   8.929   7.586
89236SOL    HW269606  12.080   8.902   7.682
89237SOL     OW69607   0.156   1.934   5.195
89237SOL    HW169608   0.230   1.955   5.138
89237SOL    HW269609   0.105   1.870   5.145
89238SOL     OW69610  10.481  10.699  10.289
89238SOL    HW169611  10.518  10.782  10.258
89238SOL    HW269612  10.550  10.661  10.344
89239SOL     OW69613   3.924  12.476   9.270
89239SOL    HW169614   4.007  12.440   9.301
89239SOL    HW269615   3.857  12.424   9.315
89240SOL     OW69616   9.604  10.856  10.043
89240SOL    HW169617   9.582  10.789  10.108
89240SOL    HW269618   9.698  10.866  10.050
89241SOL     OW69619   7.232   4.880   3.926
89241SOL    HW169620   7.145   4.900   3.893
89241SOL    HW269621   7.250   4.950   3.990
89242SOL     OW69622   5.033   2.289   1.280
89242SOL    HW169623   5.079   2.219   1.327
89242SOL    HW269624   5.094   2.318   1.214
89243SOL     OW69625   0.814   0.152   7.877
89243SOL    HW169626   0.754   0.099   7.929
89243SOL    HW269627   0.839   0.223   7.935
89244SOL     OW69628   8.280   5.925   1.929
89244SOL    HW169629   8.241   5.843   1.959
89244SOL    HW269630   8.362   5.932   1.978
89245SOL     OW69631  13.998   0.398   9.916
89245SOL    HW169632  14.056   0.361   9.983
89245SOL    HW269633  13.951   0.469   9.961
89246SOL     OW69634   7.008   4.087   2.202
89246SOL    HW169635   6.930   4.041   2.234
89246SOL    HW269636   7.014   4.064   2.110
89247SOL     OW69637  11.882  14.482  13.011
89247SOL    HW169638  11.903  14.570  13.042
89247SOL    HW269639  11.945  14.465  12.942
89248SOL     OW69640   4.182   0.067  14.843
89248SOL    HW169641   4.202   0.066  14.750
89248SOL    HW269642   4.262   0.100   0.017
89249SOL     OW69643   7.617   9.137  12.038
89249SOL    HW169644   7.568   9.211  12.002
89249SOL    HW269645   7.564   9.105  12.110
89250SOL     OW69646   8.321   3.804   0.763
89250SOL    HW169647   8.254   3.774   0.702
89250SOL    HW269648   8.288   3.888   0.796
89251SOL     OW69649   1.864   4.938   7.226
89251SOL    HW169650   1.934   4.875   7.241
89251SOL    HW269651   1.908   5.022   7.216
89252SOL     OW69652  13.157   6.039   1.096
89252SOL    HW169653  13.132   6.123   1.134
89252SOL    HW269654  13.226   6.061   1.033
89253SOL     OW69655   1.680  14.630   5.214
89253SOL    HW169656   1.695  14.724   5.213
89253SOL    HW269657   1.585  14.620   5.220
89254SOL     OW69658   1.644   0.736   7.736
89254SOL    HW169659   1.690   0.676   7.795
89254SOL    HW269660   1.709   0.804   7.716
89255SOL     OW69661   9.642  12.578   1.827
89255SOL    HW169662   9.729  12.617   1.816
89255SOL    HW269663   9.607  12.619   1.906
89256SOL     OW69664  11.132   6.730   0.800
89256SOL    HW169665  11.194   6.705   0.869
89256SOL    HW269666  11.154   6.820   0.779
89257SOL     OW69667  12.940   4.083   0.303
89257SOL    HW169668  12.903   4.042   0.225
89257SOL    HW269669  12.953   4.010   0.364
89258SOL     OW69670   0.089   9.784  10.818
89258SOL    HW169671   0.146   9.711  10.842
89258SOL    HW269672   0.047   9.809  10.900
89259SOL     OW69673  11.206   7.664   1.010
89259SOL    HW169674  11.280   7.605   1.024
89259SOL    HW269675  11.166   7.673   1.097
89260SOL     OW69676  14.712  12.560   7.463
89260SOL    HW169677  14.767  12.605   7.528
89260SOL    HW269678  14.722  12.612   7.383
89261SOL     OW69679  13.116  12.590   4.723
89261SOL    HW169680  13.097  12.501   4.754
89261SOL    HW269681  13.212  12.596   4.726
89262SOL     OW69682   4.748   5.376   8.386
89262SOL    HW169683   4.691   5.447   8.415
89262SOL    HW269684   4.724   5.362   8.294
89263SOL     OW69685   6.475  12.837  14.500
89263SOL    HW169686   6.544  12.875  14.554
89263SOL    HW269687   6.444  12.762  14.551
89264SOL     OW69688  10.740  11.136   7.938
89264SOL    HW169689  10.762  11.058   7.888
89264SOL    HW269690  10.722  11.105   8.026
89265SOL     OW69691  10.508   4.055   1.526
89265SOL    HW169692  10.448   4.086   1.458
89265SOL    HW269693  10.452   4.040   1.602
89266SOL     OW69694   0.673  12.062   6.575
89266SOL    HW169695   0.585  12.034   6.600
89266SOL    HW269696   0.703  12.115   6.649
89267SOL     OW69697   2.248  10.568   9.051
89267SOL    HW169698   2.266  10.509   8.978
89267SOL    HW269699   2.329  10.569   9.102
89268SOL     OW69700   1.114   2.061  13.381
89268SOL    HW169701   1.202   2.094  13.364
89268SOL    HW269702   1.127   1.980  13.430
89269SOL     OW69703  12.373  13.561   7.486
89269SOL    HW169704  12.311  13.609   7.541
89269SOL    HW269705  12.324  13.543   7.405
89270SOL     OW69706  13.460   2.827   0.504
89270SOL    HW169707  13.395   2.894   0.483
89270SOL    HW269708  13.429   2.749   0.458
89271SOL     OW69709   1.079  13.899   7.035
89271SOL    HW169710   1.158  13.899   6.981
89271SOL    HW269711   1.084  13.980   7.086
89272SOL     OW69712   9.138   0.045   6.373
89272SOL    HW169713   9.146   0.019   6.281
89272SOL    HW269714   9.211   0.106   6.387
89273SOL     OW69715   2.635  13.759  11.659
89273SOL    HW169716   2.698  13.725  11.723
89273SOL    HW269717   2.668  13.847  11.638
89274SOL     OW69718   2.693   4.337   3.897
89274SOL    HW169719   2.624   4.396   3.927
89274SOL    HW269720   2.675   4.254   3.941
89275SOL     OW69721  14.602   7.332  11.849
89275SOL    HW169722  14.575   7.402  11.790
89275SOL    HW269723  14.553   7.255  11.820
89276SOL     OW69724   1.507  10.637   8.621
89276SOL    HW169725   1.591  10.662   8.581
89276SOL    HW269726   1.517  10.659   8.714
89277SOL     OW69727   5.025   3.425   0.070
89277SOL    HW169728   5.041   3.450  14.847
89277SOL    HW269729   5.109   3.441   0.114
89278SOL     OW69730   0.903   3.305  13.396
89278SOL    HW169731   0.981   3.314  13.450
89278SOL    HW269732   0.893   3.211  13.384
89279SOL     OW69733   3.864  13.705   9.304
89279SOL    HW169734   3.791  13.647   9.284
89279SOL    HW269735   3.938  13.668   9.256
89280SOL     OW69736   9.315   4.334   5.877
89280SOL    HW169737   9.246   4.382   5.832
89280SOL    HW269738   9.278   4.247   5.892
89281SOL     OW69739   2.285   0.670  13.731
89281SOL    HW169740   2.226   0.681  13.657
89281SOL    HW269741   2.250   0.596  13.780
89282SOL     OW69742  10.384   1.247   5.131
89282SOL    HW169743  10.355   1.161   5.100
89282SOL    HW269744  10.479   1.239   5.138
89283SOL     OW69745   1.341   3.836  11.112
89283SOL    HW169746   1.326   3.781  11.035
89283SOL    HW269747   1.257   3.879  11.128
89284SOL     OW69748   9.174  10.606  11.985
89284SOL    HW169749   9.237  10.536  12.000
89284SOL    HW269750   9.094  10.561  11.958
89285SOL     OW69751   5.056   8.439   9.214
89285SOL    HW169752   5.010   8.428   9.131
89285SOL    HW269753   5.144   8.465   9.190
89286SOL     OW69754  11.011   5.841   3.377
89286SOL    HW169755  10.958   5.771   3.415
89286SOL    HW269756  11.014   5.822   3.284
89287SOL     OW69757   3.183  10.341   8.541
89287SOL    HW169758   3.188  10.389   8.459
89287SOL    HW269759   3.116  10.387   8.592
89288SOL     OW69760  11.368   9.846  13.419
89288SOL    HW169761  11.387   9.760  13.382
89288SOL    HW269762  11.273   9.847  13.433
89289SOL     OW69763  13.583  10.650   2.873
89289SOL    HW169764  13.665  10.639   2.922
89289SOL    HW269765  13.610  10.649   2.781
89290SOL     OW69766   4.142   7.427  13.848
89290SOL    HW169767   4.182   7.368  13.783
89290SOL    HW269768   4.079   7.372  13.894
89291SOL     OW69769   1.596   9.207   6.427
89291SOL    HW169770   1.677   9.185   6.382
89291SOL    HW269771   1.599   9.155   6.508
89292SOL     OW69772   0.397  12.522  14.409
89292SOL    HW169773   0.404  12.595  14.471
89292SOL    HW269774   0.315  12.478  14.433
89293SOL     OW69775  11.402   8.010  13.631
89293SOL    HW169776  11.383   7.986  13.722
89293SOL    HW269777  11.394   7.928  13.583
89294SOL     OW69778  12.241   4.289  11.902
89294SOL    HW169779  12.311   4.344  11.937
89294SOL    HW269780  12.239   4.213  11.961
89295SOL     OW69781   8.783   4.102   5.295
89295SOL    HW169782   8.718   4.106   5.225
89295SOL    HW269783   8.857   4.153   5.263
89296SOL     OW69784   6.585   6.793   0.090
89296SOL    HW169785   6.600   6.717   0.146
89296SOL    HW269786   6.494   6.818   0.107
89297SOL     OW69787  13.556  12.679  11.017
89297SOL    HW169788  13.649  12.688  11.035
89297SOL    HW269789  13.527  12.768  10.993
89298SOL     OW69790  11.689   6.047   5.767
89298SOL    HW169791  11.675   6.076   5.677
89298SOL    HW269792  11.673   5.952   5.765
89299SOL     OW69793  13.290   2.581   8.216
89299SOL    HW169794  13.292   2.676   8.201
89299SOL    HW269795  13.284   2.572   8.311
89300SOL     OW69796   5.425   9.003   8.572
89300SOL    HW169797   5.331   8.998   8.552
89300SOL    HW269798   5.440   8.931   8.633
89301SOL     OW69799  10.230   8.114   8.838
89301SOL    HW169800  10.158   8.174   8.816
89301SOL    HW269801  10.202   8.071   8.919
89302SOL     OW69802  12.528  12.229  14.293
89302SOL    HW169803  12.482  12.229  14.377
89302SOL    HW269804  12.550  12.320  14.277
89303SOL     OW69805   8.219  14.855   1.111
89303SOL    HW169806   8.290   0.032   1.157
89303SOL    HW269807   8.147   0.050   1.111
89304SOL     OW69808  14.198  11.992   8.101
89304SOL    HW169809  14.136  11.993   8.174
89304SOL    HW269810  14.282  11.969   8.141
89305SOL     OW69811   4.527   4.425   4.795
89305SOL    HW169812   4.619   4.443   4.774
89305SOL    HW269813   4.523   4.428   4.890
89306SOL     OW69814   9.336  12.496  10.738
89306SOL    HW169815   9.267  12.477  10.674
89306SOL    HW269816   9.406  12.434  10.717
89307SOL     OW69817  12.891   3.920   0.061
89307SOL    HW169818  12.826   3.915  14.858
89307SOL    HW269819  12.855   3.866   0.131
89308SOL     OW69820   3.110  14.220  13.976
89308SOL    HW169821   3.149  14.231  14.063
89308SOL    HW269822   3.047  14.149  13.987
89309SOL     OW69823  10.735   3.410   1.175
89309SOL    HW169824  10.661   3.376   1.125
89309SOL    HW269825  10.785   3.332   1.201
89310SOL     OW69826   8.224   7.425   4.788
89310SOL    HW169827   8.308   7.453   4.752
89310SOL    HW269828   8.245   7.385   4.872
89311SOL     OW69829   2.576   7.603   7.184
89311SOL    HW169830   2.637   7.622   7.255
89311SOL    HW269831   2.528   7.685   7.171
89312SOL     OW69832   6.657   4.485   6.361
89312SOL    HW169833   6.616   4.440   6.287
89312SOL    HW269834   6.750   4.482   6.342
89313SOL     OW69835   2.174   8.267  13.427
89313SOL    HW169836   2.140   8.192  13.378
89313SOL    HW269837   2.229   8.229  13.494
89314SOL     OW69838   9.001   5.373   4.989
89314SOL    HW169839   9.013   5.465   5.014
89314SOL    HW269840   9.080   5.351   4.940
89315SOL     OW69841  14.568   1.069  13.108
89315SOL    HW169842  14.656   1.065  13.070
89315SOL    HW269843  14.583   1.062  13.203
89316SOL     OW69844   3.197  10.812   5.625
89316SOL    HW169845   3.142  10.844   5.697
89316SOL    HW269846   3.157  10.729   5.600
89317SOL     OW69847   4.950  13.523   1.750
89317SOL    HW169848   5.021  13.469   1.714
89317SOL    HW269849   4.888  13.460   1.787
89318SOL     OW69850   8.393   0.980   1.143
89318SOL    HW169851   8.378   1.043   1.214
89318SOL    HW269852   8.488   0.971   1.139
89319SOL     OW69853   2.501  12.259  13.052
89319SOL    HW169854   2.507  12.355  13.052
89319SOL    HW269855   2.409  12.241  13.029
89320SOL     OW69856   7.725   1.103   5.935
89320SOL    HW169857   7.695   1.067   5.852
89320SOL    HW269858   7.660   1.170   5.957
89321SOL     OW69859  14.115   3.122   3.493
89321SOL    HW169860  14.193   3.067   3.480
89321SOL    HW269861  14.150   3.211   3.500
89322SOL     OW69862   2.364  14.463   7.620
89322SOL    HW169863   2.398  14.374   7.626
89322SOL    HW269864   2.339  14.474   7.528
89323SOL     OW69865   0.130   8.201  10.531
89323SOL    HW169866   0.090   8.135  10.588
89323SOL    HW269867   0.217   8.216  10.568
89324SOL     OW69868   7.599   4.298   3.012
89324SOL    HW169869   7.633   4.289   2.922
89324SOL    HW269870   7.627   4.219   3.056
89325SOL     OW69871  13.062   6.935   1.605
89325SOL    HW169872  12.996   6.866   1.604
89325SOL    HW269873  13.125   6.907   1.672
89326SOL     OW69874   9.874  14.147  12.554
89326SOL    HW169875   9.827  14.081  12.603
89326SOL    HW269876   9.944  14.099  12.509
89327SOL     OW69877  13.685   5.471   0.671
89327SOL    HW169878  13.704   5.488   0.578
89327SOL    HW269879  13.771   5.471   0.713
89328SOL     OW69880   6.140   4.658   0.173
89328SOL    HW169881   6.142   4.702   0.259
89328SOL    HW269882   6.174   4.724   0.112
89329SOL     OW69883   7.899  10.725   3.069
89329SOL    HW169884   7.989  10.706   3.094
89329SOL    HW269885   7.872  10.796   3.127
89330SOL     OW69886  13.210   5.283   6.919
89330SOL    HW169887  13.189   5.353   6.980
89330SOL    HW269888  13.264   5.325   6.851
89331SOL     OW69889  10.724   5.876  10.834
89331SOL    HW169890  10.740   5.785  10.811
89331SOL    HW269891  10.765   5.927  10.765
89332SOL     OW69892  12.767   8.602   0.382
89332SOL    HW169893  12.791   8.573   0.470
89332SOL    HW269894  12.746   8.522   0.335
89333SOL     OW69895  13.671   5.003  14.168
89333SOL    HW169896  13.682   4.997  14.263
89333SOL    HW269897  13.649   5.095  14.152
89334SOL     OW69898  12.151   3.512   8.291
89334SOL    HW169899  12.103   3.577   8.240
89334SOL    HW269900  12.166   3.440   8.229
89335SOL     OW69901   5.574  14.596   8.819
89335SOL    HW169902   5.611  14.657   8.755
89335SOL    HW269903   5.649  14.557   8.863
89336SOL     OW69904  10.255   3.758  10.152
89336SOL    HW169905  10.247   3.818  10.226
89336SOL    HW269906  10.183   3.696  10.164
89337SOL     OW69907   3.324   8.953   8.216
89337SOL    HW169908   3.398   8.911   8.259
89337SOL    HW269909   3.344   9.046   8.219
89338SOL     OW69910  12.109   4.614  12.756
89338SOL    HW169911  12.180   4.650  12.810
89338SOL    HW269912  12.066   4.550  12.812
89339SOL     OW69913   0.832   5.658   1.221
89339SOL    HW169914   0.757   5.700   1.264
89339SOL    HW269915   0.909   5.695   1.264
89340SOL     OW69916   1.462   7.840  12.596
89340SOL    HW169917   1.463   7.819  12.503
89340SOL    HW269918   1.408   7.772  12.636
89341SOL     OW69919   9.584  14.553   3.534
89341SOL    HW169920   9.611  14.632   3.581
89341SOL    HW269921   9.492  14.569   3.513
89342SOL     OW69922  11.189   1.970   3.743
89342SOL    HW169923  11.261   2.033   3.750
89342SOL    HW269924  11.119   2.008   3.796
89343SOL     OW69925  12.650   4.999   6.612
89343SOL    HW169926  12.648   4.970   6.703
89343SOL    HW269927  12.633   5.094   6.617
89344SOL     OW69928   2.210   8.489   5.276
89344SOL    HW169929   2.252   8.575   5.276
89344SOL    HW269930   2.153   8.490   5.353
89345SOL     OW69931   0.348   3.821   0.313
89345SOL    HW169932   0.328   3.822   0.219
89345SOL    HW269933   0.264   3.832   0.356
89346SOL     OW69934   8.806  10.608   1.294
89346SOL    HW169935   8.738  10.673   1.279
89346SOL    HW269936   8.869  10.652   1.352
89347SOL     OW69937  12.971   8.243   6.092
89347SOL    HW169938  12.876   8.253   6.081
89347SOL    HW269939  12.988   8.152   6.069
89348SOL     OW69940  14.392  11.435   2.105
89348SOL    HW169941  14.429  11.390   2.029
89348SOL    HW269942  14.383  11.526   2.077
89349SOL     OW69943  11.443   3.752   0.443
89349SOL    HW169944  11.512   3.713   0.497
89349SOL    HW269945  11.396   3.810   0.502
89350SOL     OW69946   3.159   9.533   0.211
89350SOL    HW169947   3.243   9.487   0.216
89350SOL    HW269948   3.095   9.470   0.243
89351SOL     OW69949   7.520   8.582  10.692
89351SOL    HW169950   7.575   8.583  10.771
89351SOL    HW269951   7.535   8.668  10.652
89352SOL     OW69952   6.359   0.193   3.124
89352SOL    HW169953   6.271   0.161   3.105
89352SOL    HW269954   6.349   0.288   3.133
89353SOL     OW69955   0.109   6.794   0.679
89353SOL    HW169956   0.175   6.789   0.609
89353SOL    HW269957   0.124   6.716   0.732
89354SOL     OW69958   8.090  10.416   6.551
89354SOL    HW169959   8.053  10.341   6.504
89354SOL    HW269960   8.038  10.420   6.632
89355SOL     OW69961   4.951   4.407   7.718
89355SOL    HW169962   4.878   4.369   7.767
89355SOL    HW269963   5.026   4.401   7.777
89356SOL     OW69964   0.952   3.569  10.957
89356SOL    HW169965   0.970   3.635  11.024
89356SOL    HW269966   0.939   3.619  10.876
89357SOL     OW69967   2.681   0.393  14.830
89357SOL    HW169968   2.628   0.332   0.013
89357SOL    HW269969   2.641   0.393  14.743
89358SOL     OW69970   7.343   2.459   8.058
89358SOL    HW169971   7.397   2.411   7.994
89358SOL    HW269972   7.375   2.429   8.143
89359SOL     OW69973   5.645   4.496   0.573
89359SOL    HW169974   5.573   4.463   0.520
89359SOL    HW269975   5.616   4.484   0.664
89360SOL     OW69976   2.947  12.745   8.788
89360SOL    HW169977   3.026  12.690   8.782
89360SOL    HW269978   2.976  12.831   8.756
89361SOL     OW69979   2.664   6.526   4.019
89361SOL    HW169980   2.710   6.554   3.939
89361SOL    HW269981   2.721   6.460   4.058
89362SOL     OW69982   2.599   0.723   9.335
89362SOL    HW169983   2.688   0.756   9.351
89362SOL    HW269984   2.561   0.713   9.421
89363SOL     OW69985  11.328  14.484  11.679
89363SOL    HW169986  11.250  14.434  11.654
89363SOL    HW269987  11.395  14.418  11.695
89364SOL     OW69988   7.636  11.115  11.257
89364SOL    HW169989   7.649  11.208  11.237
89364SOL    HW269990   7.613  11.075  11.173
89365SOL     OW69991   5.818   7.958   3.262
89365SOL    HW169992   5.746   8.020   3.267
89365SOL    HW269993   5.791   7.884   3.317
89366SOL     OW69994   6.630   5.779   5.752
89366SOL    HW169995   6.634   5.786   5.847
89366SOL    HW269996   6.633   5.870   5.722
89367SOL     OW69997  10.426  11.371  14.710
89367SOL    HW169998  10.344  11.372  14.660
89367SOL    HW269999  10.440  11.462  14.735
89368SOL     OW70000   4.600   4.121   3.173
89368SOL    HW170001   4.524   4.118   3.115
89368SOL    HW270002   4.567   4.160   3.254
89369SOL     OW70003   2.038   2.050   4.729
89369SOL    HW170004   1.946   2.046   4.700
89369SOL    HW270005   2.082   2.101   4.662
89370SOL     OW70006   0.871  13.720   5.108
89370SOL    HW170007   0.787  13.674   5.112
89370SOL    HW270008   0.868  13.768   5.025
89371SOL     OW70009  12.610   1.981   5.255
89371SOL    HW170010  12.537   2.032   5.218
89371SOL    HW270011  12.632   2.025   5.336
89372SOL     OW70012   1.470   2.501  14.783
89372SOL    HW170013   1.411   2.574  14.765
89372SOL    HW270014   1.482   2.458  14.698
89373SOL     OW70015  14.081  10.842   8.593
89373SOL    HW170016  14.037  10.805   8.516
89373SOL    HW270017  14.167  10.868   8.561
89374SOL     OW70018   6.715  10.916   6.449
89374SOL    HW170019   6.706  10.821   6.447
89374SOL    HW270020   6.711  10.939   6.542
89375SOL     OW70021   3.505   4.398   7.055
89375SOL    HW170022   3.489   4.372   7.145
89375SOL    HW270023   3.437   4.353   7.005
89376SOL     OW70024  12.102  10.835   3.081
89376SOL    HW170025  12.171  10.788   3.033
89376SOL    HW270026  12.149  10.898   3.136
89377SOL     OW70027  12.086   7.511  13.092
89377SOL    HW170028  12.123   7.581  13.039
89377SOL    HW270029  12.044   7.556  13.165
89378SOL     OW70030  12.793   7.962   8.728
89378SOL    HW170031  12.776   7.907   8.805
89378SOL    HW270032  12.765   7.908   8.654
89379SOL     OW70033   3.291   4.190   3.157
89379SOL    HW170034   3.297   4.138   3.237
89379SOL    HW270035   3.381   4.211   3.134
89380SOL     OW70036   8.668   2.501   8.660
89380SOL    HW170037   8.712   2.586   8.661
89380SOL    HW270038   8.700   2.458   8.581
89381SOL     OW70039   9.931  12.186   3.105
89381SOL    HW170040   9.988  12.227   3.040
89381SOL    HW270041   9.959  12.095   3.108
89382SOL     OW70042   1.109   6.850   7.781
89382SOL    HW170043   1.115   6.905   7.859
89382SOL    HW270044   1.194   6.860   7.738
89383SOL     OW70045   4.235  13.748   5.417
89383SOL    HW170046   4.144  13.780   5.421
89383SOL    HW270047   4.280  13.797   5.486
89384SOL     OW70048   7.610   8.373   2.014
89384SOL    HW170049   7.640   8.333   2.096
89384SOL    HW270050   7.629   8.466   2.023
89385SOL     OW70051  13.378   4.608   7.499
89385SOL    HW170052  13.317   4.544   7.462
89385SOL    HW270053  13.321   4.679   7.530
89386SOL     OW70054  11.739   2.796   0.950
89386SOL    HW170055  11.813   2.846   0.984
89386SOL    HW270056  11.751   2.797   0.855
89387SOL     OW70057  11.157   2.405   6.048
89387SOL    HW170058  11.085   2.467   6.067
89387SOL    HW270059  11.136   2.328   6.101
89388SOL     OW70060   2.521  13.120   8.270
89388SOL    HW170061   2.551  13.029   8.263
89388SOL    HW270062   2.498  13.131   8.362
89389SOL     OW70063   4.017   4.020  12.004
89389SOL    HW170064   4.093   3.961  12.004
89389SOL    HW270065   4.002   4.039  12.096
89390SOL     OW70066   2.940   6.309   1.369
89390SOL    HW170067   2.907   6.267   1.290
89390SOL    HW270068   2.867   6.306   1.431
89391SOL     OW70069   8.720   3.426   2.161
89391SOL    HW170070   8.786   3.466   2.105
89391SOL    HW270071   8.770   3.368   2.219
89392SOL     OW70072  11.587   4.891   5.679
89392SOL    HW170073  11.533   4.843   5.616
89392SOL    HW270074  11.557   4.982   5.673
89393SOL     OW70075  10.125   1.412   8.583
89393SOL    HW170076  10.038   1.389   8.550
89393SOL    HW270077  10.176   1.430   8.504
89394SOL     OW70078  11.698   3.012   9.305
89394SOL    HW170079  11.771   2.951   9.309
89394SOL    HW270080  11.633   2.976   9.365
89395SOL     OW70081  13.071   2.375   8.007
89395SOL    HW170082  13.100   2.461   7.975
89395SOL    HW270083  13.028   2.335   7.931
89396SOL     OW70084   8.910   2.134   6.582
89396SOL    HW170085   8.968   2.209   6.598
89396SOL    HW270086   8.970   2.065   6.553
89397SOL     OW70087  10.469   0.173   9.310
89397SOL    HW170088  10.409   0.190   9.237
89397SOL    HW270089  10.516   0.094   9.284
89398SOL     OW70090   6.354   8.182  13.319
89398SOL    HW170091   6.293   8.195  13.391
89398SOL    HW270092   6.441   8.192  13.358
89399SOL     OW70093   7.161   0.823   1.064
89399SOL    HW170094   7.149   0.739   1.107
89399SOL    HW270095   7.199   0.880   1.131
89400SOL     OW70096   6.276  11.237   2.000
89400SOL    HW170097   6.193  11.192   1.988
89400SOL    HW270098   6.339  11.168   2.019
89401SOL     OW70099   1.915  11.761   8.146
89401SOL    HW170100   1.852  11.728   8.082
89401SOL    HW270101   1.888  11.723   8.229
89402SOL     OW70102   6.150   5.615  13.907
89402SOL    HW170103   6.238   5.580  13.895
89402SOL    HW270104   6.130   5.601  14.000
89403SOL     OW70105   8.554  13.813   8.191
89403SOL    HW170106   8.574  13.729   8.150
89403SOL    HW270107   8.511  13.863   8.122
89404SOL     OW70108   3.587  13.865   6.537
89404SOL    HW170109   3.645  13.938   6.517
89404SOL    HW270110   3.516  13.904   6.588
89405SOL     OW70111  13.067   9.769  12.397
89405SOL    HW170112  13.131   9.751  12.466
89405SOL    HW270113  13.109   9.837  12.344
89406SOL     OW70114   5.386  12.503  12.304
89406SOL    HW170115   5.294  12.481  12.287
89406SOL    HW270116   5.394  12.594  12.275
89407SOL     OW70117   2.992   1.388   2.852
89407SOL    HW170118   2.984   1.347   2.938
89407SOL    HW270119   2.902   1.404   2.825
89408SOL     OW70120   0.982  14.219   4.012
89408SOL    HW170121   1.049  14.274   3.971
89408SOL    HW270122   0.905  14.231   3.956
89409SOL     OW70123  11.124   2.235  12.281
89409SOL    HW170124  11.032   2.213  12.266
89409SOL    HW270125  11.159   2.252  12.194
89410SOL     OW70126  10.472   3.219   7.842
89410SOL    HW170127  10.479   3.297   7.896
89410SOL    HW270128  10.485   3.250   7.752
89411SOL     OW70129  12.252  13.207   6.178
89411SOL    HW170130  12.220  13.232   6.264
89411SOL    HW270131  12.325  13.266   6.161
89412SOL     OW70132   3.815   0.733   2.577
89412SOL    HW170133   3.785   0.810   2.528
89412SOL    HW270134   3.807   0.758   2.668
89413SOL     OW70135   1.047   4.342   1.188
89413SOL    HW170136   1.088   4.256   1.176
89413SOL    HW270137   0.953   4.326   1.181
89414SOL     OW70138   2.940   3.241  14.254
89414SOL    HW170139   2.920   3.276  14.167
89414SOL    HW270140   2.936   3.146  14.243
89415SOL     OW70141   3.743   4.644   9.796
89415SOL    HW170142   3.765   4.691   9.716
89415SOL    HW270143   3.778   4.698   9.867
89416SOL     OW70144   2.301  10.836   7.521
89416SOL    HW170145   2.359  10.761   7.514
89416SOL    HW270146   2.222  10.801   7.564
89417SOL     OW70147   2.781  10.877   0.089
89417SOL    HW170148   2.874  10.859   0.106
89417SOL    HW270149   2.760  10.821   0.014
89418SOL     OW70150   5.571   6.734  11.584
89418SOL    HW170151   5.595   6.740  11.492
89418SOL    HW270152   5.633   6.790  11.629
89419SOL     OW70153  11.658  13.664   4.768
89419SOL    HW170154  11.711  13.602   4.718
89419SOL    HW270155  11.567  13.639   4.749
89420SOL     OW70156  14.315   0.776  13.353
89420SOL    HW170157  14.344   0.773  13.444
89420SOL    HW270158  14.342   0.692  13.316
89421SOL     OW70159   0.958  10.226   2.010
89421SOL    HW170160   1.043  10.184   1.997
89421SOL    HW270161   0.896  10.153   2.010
89422SOL     OW70162   0.334   1.513  13.172
89422SOL    HW170163   0.428   1.492  13.175
89422SOL    HW270164   0.311   1.503  13.079
89423SOL     OW70165  10.517   7.484  13.159
89423SOL    HW170166  10.477   7.504  13.244
89423SOL    HW270167  10.444   7.483  13.097
89424SOL     OW70168   1.624   0.660  13.472
89424SOL    HW170169   1.591   0.599  13.538
89424SOL    HW270170   1.645   0.605  13.397
89425SOL     OW70171   3.915   8.563   8.512
89425SOL    HW170172   3.933   8.499   8.580
89425SOL    HW270173   3.819   8.564   8.504
89426SOL     OW70174  11.029  10.897   9.390
89426SOL    HW170175  11.072  10.815   9.368
89426SOL    HW270176  11.077  10.930   9.466
89427SOL     OW70177  13.486   4.205   0.206
89427SOL    HW170178  13.460   4.295   0.222
89427SOL    HW270179  13.491   4.165   0.292
89428SOL     OW70180   3.832   4.626   5.029
89428SOL    HW170181   3.832   4.645   4.936
89428SOL    HW270182   3.879   4.699   5.069
89429SOL     OW70183   3.019  14.854  12.369
89429SOL    HW170184   2.942   0.030  12.406
89429SOL    HW270185   3.071  14.828  12.445
89430SOL     OW70186   5.408   7.013  12.074
89430SOL    HW170187   5.386   7.000  12.167
89430SOL    HW270188   5.348   6.956  12.027
89431SOL     OW70189   9.492  10.573   5.775
89431SOL    HW170190   9.435  10.523   5.833
89431SOL    HW270191   9.436  10.640   5.737
89432SOL     OW70192   9.152  12.738  14.551
89432SOL    HW170193   9.169  12.828  14.578
89432SOL    HW270194   9.183  12.684  14.623
89433SOL     OW70195  12.281   8.573  10.590
89433SOL    HW170196  12.255   8.652  10.637
89433SOL    HW270197  12.223   8.570  10.514
89434SOL     OW70198   8.007   3.766   9.117
89434SOL    HW170199   8.065   3.817   9.060
89434SOL    HW270200   7.926   3.757   9.067
89435SOL     OW70201   0.847   0.801  14.445
89435SOL    HW170202   0.908   0.778  14.375
89435SOL    HW270203   0.797   0.720  14.460
89436SOL     OW70204   4.714  14.334   5.272
89436SOL    HW170205   4.790  14.392   5.271
89436SOL    HW270206   4.656  14.371   5.338
89437SOL     OW70207   4.836   7.907   8.670
89437SOL    HW170208   4.818   7.835   8.730
89437SOL    HW270209   4.782   7.979   8.702
89438SOL     OW70210  14.260  11.567   5.216
89438SOL    HW170211  14.332  11.523   5.171
89438SOL    HW270212  14.299  11.646   5.253
89439SOL     OW70213  12.691  13.441  13.380
89439SOL    HW170214  12.759  13.374  13.370
89439SOL    HW270215  12.633  13.427  13.306
89440SOL     OW70216   5.652   6.340   0.651
89440SOL    HW170217   5.563   6.373   0.662
89440SOL    HW270218   5.699   6.411   0.608
89441SOL     OW70219   5.763   0.522   7.290
89441SOL    HW170220   5.852   0.550   7.312
89441SOL    HW270221   5.707   0.569   7.353
89442SOL     OW70222   0.160   0.898   1.987
89442SOL    HW170223   0.096   0.836   1.953
89442SOL    HW270224   0.240   0.847   1.998
89443SOL     OW70225   1.725   2.247   2.787
89443SOL    HW170226   1.782   2.171   2.780
89443SOL    HW270227   1.637   2.211   2.790
89444SOL     OW70228  10.578   8.442  10.924
89444SOL    HW170229  10.576   8.504  10.850
89444SOL    HW270230  10.598   8.497  11.000
89445SOL     OW70231   3.943  14.507   1.928
89445SOL    HW170232   3.987  14.580   1.883
89445SOL    HW270233   3.887  14.468   1.860
89446SOL     OW70234  14.679  14.401   6.634
89446SOL    HW170235  14.611  14.337   6.612
89446SOL    HW270236  14.687  14.456   6.556
89447SOL     OW70237  11.559   2.534  13.674
89447SOL    HW170238  11.483   2.477  13.680
89447SOL    HW270239  11.624   2.494  13.732
89448SOL     OW70240   8.808  12.936   6.938
89448SOL    HW170241   8.902  12.925   6.928
89448SOL    HW270242   8.790  12.915   7.030
89449SOL     OW70243   4.658   4.420  14.707
89449SOL    HW170244   4.613   4.347  14.750
89449SOL    HW270245   4.750   4.411  14.733
89450SOL     OW70246   5.886   9.959   9.056
89450SOL    HW170247   5.979   9.950   9.075
89450SOL    HW270248   5.866  10.051   9.074
89451SOL     OW70249   1.754   0.423   8.690
89451SOL    HW170250   1.769   0.502   8.742
89451SOL    HW270251   1.661   0.405   8.699
89452SOL     OW70252  12.454  11.405   9.337
89452SOL    HW170253  12.535  11.356   9.322
89452SOL    HW270254  12.475  11.494   9.306
89453SOL     OW70255   0.322   9.048  11.222
89453SOL    HW170256   0.371   9.038  11.140
89453SOL    HW270257   0.350   8.974  11.276
89454SOL     OW70258   7.981   9.470   7.531
89454SOL    HW170259   7.944   9.459   7.443
89454SOL    HW270260   8.052   9.533   7.519
89455SOL     OW70261   8.766   0.343   0.994
89455SOL    HW170262   8.703   0.332   0.923
89455SOL    HW270263   8.720   0.313   1.072
89456SOL     OW70264  10.976  13.228   9.637
89456SOL    HW170265  11.069  13.250   9.642
89456SOL    HW270266  10.974  13.132   9.636
89457SOL     OW70267   9.347  10.766  14.694
89457SOL    HW170268   9.419  10.823  14.719
89457SOL    HW270269   9.326  10.792  14.604
89458SOL     OW70270   6.807   8.754   8.564
89458SOL    HW170271   6.740   8.806   8.609
89458SOL    HW270272   6.763   8.724   8.484
89459SOL     OW70273   2.038   4.964   6.120
89459SOL    HW170274   2.131   4.946   6.128
89459SOL    HW270275   1.997   4.877   6.117
89460SOL     OW70276   2.740   2.472   9.063
89460SOL    HW170277   2.732   2.437   8.974
89460SOL    HW270278   2.805   2.541   9.056
89461SOL     OW70279  13.628   6.322  13.406
89461SOL    HW170280  13.685   6.388  13.368
89461SOL    HW270281  13.618   6.348  13.497
89462SOL     OW70282   6.075   9.043   7.541
89462SOL    HW170283   6.166   9.067   7.558
89462SOL    HW270284   6.024   9.091   7.607
89463SOL     OW70285  14.603   5.678   0.765
89463SOL    HW170286  14.620   5.601   0.819
89463SOL    HW270287  14.685   5.692   0.717
89464SOL     OW70288   9.684  13.830   7.692
89464SOL    HW170289   9.592  13.817   7.717
89464SOL    HW270290   9.693  13.780   7.611
89465SOL     OW70291  11.723  10.562   1.322
89465SOL    HW170292  11.648  10.599   1.369
89465SOL    HW270293  11.745  10.630   1.257
89466SOL     OW70294   9.999   4.459   3.633
89466SOL    HW170295   9.936   4.520   3.672
89466SOL    HW270296  10.057   4.437   3.705
89467SOL     OW70297   2.857   0.853  11.216
89467SOL    HW170298   2.761   0.847  11.223
89467SOL    HW270299   2.880   0.925  11.275
89468SOL     OW70300   7.157   0.192  10.358
89468SOL    HW170301   7.100   0.150  10.293
89468SOL    HW270302   7.191   0.120  10.410
89469SOL     OW70303   4.434   8.704   0.397
89469SOL    HW170304   4.473   8.749   0.472
89469SOL    HW270305   4.490   8.627   0.384
89470SOL     OW70306   7.749   1.951   3.691
89470SOL    HW170307   7.687   2.019   3.665
89470SOL    HW270308   7.803   1.936   3.614
89471SOL     OW70309  13.903   9.766   4.748
89471SOL    HW170310  13.991   9.798   4.727
89471SOL    HW270311  13.890   9.692   4.688
89472SOL     OW70312   9.948   1.865   3.215
89472SOL    HW170313   9.943   1.836   3.124
89472SOL    HW270314   9.873   1.923   3.225
89473SOL     OW70315  11.483   4.282   8.827
89473SOL    HW170316  11.485   4.274   8.923
89473SOL    HW270317  11.552   4.222   8.798
89474SOL     OW70318   1.429   0.290   9.398
89474SOL    HW170319   1.511   0.243   9.387
89474SOL    HW270320   1.455   0.380   9.417
89475SOL     OW70321   4.731   9.592   7.420
89475SOL    HW170322   4.735   9.677   7.463
89475SOL    HW270323   4.773   9.532   7.481
89476SOL     OW70324   9.173  10.728  14.190
89476SOL    HW170325   9.159  10.651  14.133
89476SOL    HW270326   9.209  10.794  14.131
89477SOL     OW70327   9.039   9.851   5.773
89477SOL    HW170328   9.099   9.921   5.748
89477SOL    HW270329   9.009   9.875   5.861
89478SOL     OW70330  10.364   8.779   7.327
89478SOL    HW170331  10.355   8.762   7.421
89478SOL    HW270332  10.434   8.845   7.322
89479SOL     OW70333  14.320  13.897   9.845
89479SOL    HW170334  14.288  13.979   9.882
89479SOL    HW270335  14.243  13.839   9.846
89480SOL     OW70336   7.541   8.873  10.659
89480SOL    HW170337   7.454   8.896  10.691
89480SOL    HW270338   7.599   8.942  10.692
89481SOL     OW70339   9.221  14.861  10.703
89481SOL    HW170340   9.139  14.816  10.683
89481SOL    HW270341   9.206   0.035  10.788
89482SOL     OW70342   8.072   6.309   0.069
89482SOL    HW170343   8.088   6.383   0.129
89482SOL    HW270344   8.081   6.347  14.850
89483SOL     OW70345  10.880   1.374   8.225
89483SOL    HW170346  10.855   1.312   8.294
89483SOL    HW270347  10.975   1.362   8.216
89484SOL     OW70348   7.069   7.771   5.907
89484SOL    HW170349   7.048   7.698   5.965
89484SOL    HW270350   7.124   7.829   5.960
89485SOL     OW70351   3.694   4.641  12.782
89485SOL    HW170352   3.756   4.568  12.784
89485SOL    HW270353   3.620   4.609  12.730
89486SOL     OW70354   8.278  11.838   3.460
89486SOL    HW170355   8.224  11.847   3.539
89486SOL    HW270356   8.231  11.773   3.408
89487SOL     OW70357  14.632   4.977   2.041
89487SOL    HW170358  14.667   5.065   2.026
89487SOL    HW270359  14.565   4.989   2.108
89488SOL     OW70360  12.655  12.745   7.729
89488SOL    HW170361  12.731  12.788   7.768
89488SOL    HW270362  12.632  12.676   7.791
89489SOL     OW70363   3.223   7.878   4.630
89489SOL    HW170364   3.311   7.889   4.666
89489SOL    HW270365   3.204   7.961   4.586
89490SOL     OW70366   3.326   6.618   3.905
89490SOL    HW170367   3.274   6.538   3.919
89490SOL    HW270368   3.356   6.643   3.992
89491SOL     OW70369   2.345   2.277   9.524
89491SOL    HW170370   2.387   2.357   9.556
89491SOL    HW270371   2.385   2.262   9.438
89492SOL     OW70372   4.486  13.775   2.153
89492SOL    HW170373   4.557  13.831   2.121
89492SOL    HW270374   4.506  13.688   2.118
89493SOL     OW70375  13.020   9.002   0.250
89493SOL    HW170376  12.931   8.985   0.219
89493SOL    HW270377  13.007   9.040   0.337
89494SOL     OW70378   5.984   4.670   9.436
89494SOL    HW170379   5.948   4.619   9.510
89494SOL    HW270380   6.078   4.676   9.455
89495SOL     OW70381   5.426   0.428   5.747
89495SOL    HW170382   5.404   0.508   5.794
89495SOL    HW270383   5.410   0.448   5.655
89496SOL     OW70384   5.783  12.104   6.647
89496SOL    HW170385   5.867  12.147   6.628
89496SOL    HW270386   5.757  12.139   6.732
89497SOL     OW70387   3.534   1.961   6.114
89497SOL    HW170388   3.485   1.919   6.185
89497SOL    HW270389   3.474   2.027   6.079
89498SOL     OW70390   7.956   5.877   2.209
89498SOL    HW170391   8.047   5.900   2.188
89498SOL    HW270392   7.942   5.793   2.164
89499SOL     OW70393   9.487  11.157   7.121
89499SOL    HW170394   9.394  11.148   7.103
89499SOL    HW270395   9.524  11.199   7.044
89500SOL     OW70396   2.932   5.068   6.254
89500SOL    HW170397   2.959   5.058   6.345
89500SOL    HW270398   2.928   5.163   6.241
89501SOL     OW70399   7.937   0.450   2.174
89501SOL    HW170400   7.927   0.383   2.106
89501SOL    HW270401   7.953   0.400   2.254
89502SOL     OW70402   8.153  14.705   7.593
89502SOL    HW170403   8.178  14.777   7.535
89502SOL    HW270404   8.131  14.633   7.534
89503SOL     OW70405  11.478   2.211   3.359
89503SOL    HW170406  11.523   2.136   3.397
89503SOL    HW270407  11.528   2.287   3.390
89504SOL     OW70408   1.031   9.331  12.298
89504SOL    HW170409   0.936   9.340  12.293
89504SOL    HW270410   1.048   9.241  12.272
89505SOL     OW70411   8.192  10.380   2.533
89505SOL    HW170412   8.184  10.383   2.438
89505SOL    HW270413   8.196  10.472   2.559
89506SOL     OW70414   7.926   3.234   7.506
89506SOL    HW170415   7.977   3.215   7.427
89506SOL    HW270416   7.908   3.148   7.543
89507SOL     OW70417   8.844   7.249   5.402
89507SOL    HW170418   8.902   7.275   5.331
89507SOL    HW270419   8.900   7.199   5.462
89508SOL     OW70420   2.221   8.014   9.433
89508SOL    HW170421   2.160   8.033   9.361
89508SOL    HW270422   2.275   7.942   9.400
89509SOL     OW70423  11.246   6.573  13.518
89509SOL    HW170424  11.326   6.537  13.557
89509SOL    HW270425  11.176   6.540  13.574
89510SOL     OW70426  11.148   1.497  11.236
89510SOL    HW170427  11.149   1.403  11.217
89510SOL    HW270428  11.205   1.536  11.170
89511SOL     OW70429   1.635   6.530   0.205
89511SOL    HW170430   1.723   6.500   0.230
89511SOL    HW270431   1.648   6.569   0.118
89512SOL     OW70432  11.379   3.785   8.691
89512SOL    HW170433  11.336   3.842   8.627
89512SOL    HW270434  11.472   3.804   8.682
89513SOL     OW70435   3.404   1.568   5.896
89513SOL    HW170436   3.365   1.560   5.810
89513SOL    HW270437   3.460   1.645   5.890
89514SOL     OW70438   7.680   5.115   3.348
89514SOL    HW170439   7.710   5.203   3.371
89514SOL    HW270440   7.686   5.065   3.429
89515SOL     OW70441  12.068   3.030   8.513
89515SOL    HW170442  12.106   2.979   8.585
89515SOL    HW270443  12.028   3.106   8.556
89516SOL     OW70444  14.290  10.802  14.309
89516SOL    HW170445  14.227  10.824  14.378
89516SOL    HW270446  14.356  10.870  14.314
89517SOL     OW70447   4.321   6.571   3.298
89517SOL    HW170448   4.286   6.606   3.380
89517SOL    HW270449   4.302   6.638   3.233
89518SOL     OW70450   0.695   7.735   9.486
89518SOL    HW170451   0.612   7.736   9.533
89518SOL    HW270452   0.762   7.738   9.555
89519SOL     OW70453  13.401  13.906   8.228
89519SOL    HW170454  13.475  13.965   8.214
89519SOL    HW270455  13.330  13.945   8.177
89520SOL     OW70456  14.331  14.326  11.976
89520SOL    HW170457  14.299  14.414  11.955
89520SOL    HW270458  14.313  14.316  12.069
89521SOL     OW70459  10.753   4.552   2.406
89521SOL    HW170460  10.766   4.528   2.498
89521SOL    HW270461  10.675   4.502   2.380
89522SOL     OW70462   3.111  10.874   0.427
89522SOL    HW170463   3.197  10.841   0.401
89522SOL    HW270464   3.055  10.854   0.352
89523SOL     OW70465  13.921   6.219   8.630
89523SOL    HW170466  13.902   6.262   8.546
89523SOL    HW270467  13.845   6.163   8.646
89524SOL     OW70468   0.170   0.082   4.740
89524SOL    HW170469   0.210   0.054   4.658
89524SOL    HW270470   0.235   0.139   4.781
89525SOL     OW70471   9.435  10.604   5.170
89525SOL    HW170472   9.480  10.608   5.085
89525SOL    HW270473   9.469  10.524   5.210
89526SOL     OW70474  13.509   1.920   0.170
89526SOL    HW170475  13.564   1.846   0.146
89526SOL    HW270476  13.531   1.938   0.261
89527SOL     OW70477   2.275   0.907  10.284
89527SOL    HW170478   2.187   0.874  10.269
89527SOL    HW270479   2.278   0.991  10.237
89528SOL     OW70480  12.884   1.675   9.842
89528SOL    HW170481  12.947   1.687   9.913
89528SOL    HW270482  12.932   1.629   9.773
89529SOL     OW70483   4.350  10.203   0.589
89529SOL    HW170484   4.326  10.191   0.681
89529SOL    HW270485   4.419  10.139   0.574
89530SOL     OW70486  12.605   5.571   6.838
89530SOL    HW170487  12.568   5.516   6.768
89530SOL    HW270488  12.568   5.535   6.919
89531SOL     OW70489   3.040   3.880   4.959
89531SOL    HW170490   2.978   3.926   4.902
89531SOL    HW270491   3.118   3.935   4.959
89532SOL     OW70492   6.243   0.943   9.828
89532SOL    HW170493   6.318   0.898   9.868
89532SOL    HW270494   6.199   0.985   9.902
89533SOL     OW70495   4.853   5.658   5.543
89533SOL    HW170496   4.902   5.740   5.535
89533SOL    HW270497   4.894   5.599   5.480
89534SOL     OW70498   3.506   2.141   8.941
89534SOL    HW170499   3.519   2.110   9.031
89534SOL    HW270500   3.411   2.147   8.931
89535SOL     OW70501   1.729   4.474   9.799
89535SOL    HW170502   1.810   4.463   9.849
89535SOL    HW270503   1.723   4.568   9.784
89536SOL     OW70504  11.171   3.443   3.707
89536SOL    HW170505  11.122   3.364   3.683
89536SOL    HW270506  11.111   3.492   3.764
89537SOL     OW70507   3.733  10.712   5.844
89537SOL    HW170508   3.691  10.689   5.927
89537SOL    HW270509   3.661  10.711   5.780
89538SOL     OW70510  12.619   0.055   4.258
89538SOL    HW170511  12.602   0.140   4.299
89538SOL    HW270512  12.711   0.037   4.277
89539SOL     OW70513   0.587   3.036   9.058
89539SOL    HW170514   0.666   3.005   9.014
89539SOL    HW270515   0.619   3.092   9.128
89540SOL     OW70516   7.105   8.820   2.686
89540SOL    HW170517   7.061   8.807   2.602
89540SOL    HW270518   7.037   8.806   2.751
89541SOL     OW70519  14.356   7.034  11.203
89541SOL    HW170520  14.388   6.948  11.228
89541SOL    HW270521  14.261   7.026  11.205
89542SOL     OW70522   8.764  10.760   7.065
89542SOL    HW170523   8.814  10.719   7.136
89542SOL    HW270524   8.719  10.833   7.108
89543SOL     OW70525   5.326   5.969  11.407
89543SOL    HW170526   5.265   6.041  11.424
89543SOL    HW270527   5.284   5.892  11.447
89544SOL     OW70528   0.194   1.036   9.715
89544SOL    HW170529   0.107   1.058   9.750
89544SOL    HW270530   0.245   1.011   9.792
89545SOL     OW70531  10.592  10.992   3.944
89545SOL    HW170532  10.507  10.950   3.934
89545SOL    HW270533  10.590  11.030   4.032
89546SOL     OW70534   8.500  13.614   4.920
89546SOL    HW170535   8.547  13.560   4.983
89546SOL    HW270536   8.449  13.676   4.973
89547SOL     OW70537  12.169   5.975  14.854
89547SOL    HW170538  12.109   6.008   0.053
89547SOL    HW270539  12.115   5.967  14.775
89548SOL     OW70540   9.917   3.383   2.946
89548SOL    HW170541   9.919   3.476   2.964
89548SOL    HW270542   9.868   3.375   2.864
89549SOL     OW70543  12.472  11.826   0.125
89549SOL    HW170544  12.481  11.839   0.219
89549SOL    HW270545  12.421  11.901   0.095
89550SOL     OW70546   4.944   4.431   1.970
89550SOL    HW170547   5.005   4.422   2.043
89550SOL    HW270548   4.974   4.508   1.922
89551SOL     OW70549   8.084   8.542  10.734
89551SOL    HW170550   8.122   8.629  10.747
89551SOL    HW270551   8.105   8.520  10.643
89552SOL     OW70552   1.930   1.656   4.170
89552SOL    HW170553   1.990   1.711   4.120
89552SOL    HW270554   1.847   1.703   4.167
89553SOL     OW70555  14.580   1.844   6.173
89553SOL    HW170556  14.648   1.790   6.133
89553SOL    HW270557  14.514   1.853   6.105
89554SOL     OW70558   1.812   8.367   5.010
89554SOL    HW170559   1.782   8.310   4.939
89554SOL    HW270560   1.896   8.401   4.980
89555SOL     OW70561   9.032   2.489   4.662
89555SOL    HW170562   9.099   2.466   4.598
89555SOL    HW270563   8.950   2.463   4.621
89556SOL     OW70564   5.770   6.542   5.114
89556SOL    HW170565   5.711   6.512   5.184
89556SOL    HW270566   5.727   6.621   5.081
89557SOL     OW70567   9.452   1.119   4.642
89557SOL    HW170568   9.515   1.082   4.705
89557SOL    HW270569   9.366   1.091   4.675
89558SOL     OW70570  12.636   5.399  11.992
89558SOL    HW170571  12.573   5.470  11.982
89558SOL    HW270572  12.711   5.439  12.035
89559SOL     OW70573   9.834   1.836   8.065
89559SOL    HW170574   9.925   1.817   8.088
89559SOL    HW270575   9.809   1.768   8.003
89560SOL     OW70576   9.245   8.773   4.093
89560SOL    HW170577   9.194   8.760   4.173
89560SOL    HW270578   9.230   8.693   4.042
89561SOL     OW70579  12.026   3.909   9.933
89561SOL    HW170580  12.028   3.826   9.981
89561SOL    HW270581  12.096   3.961   9.973
89562SOL     OW70582   0.280   3.593   1.373
89562SOL    HW170583   0.245   3.569   1.459
89562SOL    HW270584   0.341   3.664   1.391
89563SOL     OW70585  14.511  13.539  10.226
89563SOL    HW170586  14.556  13.610  10.271
89563SOL    HW270587  14.430  13.577  10.194
89564SOL     OW70588   7.818   9.999   9.974
89564SOL    HW170589   7.895  10.039  10.014
89564SOL    HW270590   7.830   9.905   9.987
89565SOL     OW70591   6.201  14.654   1.311
89565SOL    HW170592   6.189  14.701   1.229
89565SOL    HW270593   6.189  14.720   1.379
89566SOL     OW70594   2.465  10.633  11.483
89566SOL    HW170595   2.466  10.569  11.554
89566SOL    HW270596   2.431  10.713  11.523
89567SOL     OW70597  10.897   6.252  14.104
89567SOL    HW170598  10.806   6.275  14.084
89567SOL    HW270599  10.898   6.236  14.198
89568SOL     OW70600   3.934   2.619   5.308
89568SOL    HW170601   3.989   2.634   5.231
89568SOL    HW270602   3.889   2.537   5.289
89569SOL     OW70603   1.688   7.660   1.787
89569SOL    HW170604   1.740   7.589   1.748
89569SOL    HW270605   1.738   7.739   1.767
89570SOL     OW70606  10.206   9.862  14.732
89570SOL    HW170607  10.147   9.872  14.807
89570SOL    HW270608  10.163   9.912  14.662
89571SOL     OW70609  13.591   6.577   8.125
89571SOL    HW170610  13.536   6.499   8.133
89571SOL    HW270611  13.647   6.559   8.050
89572SOL     OW70612   3.248   7.502   1.714
89572SOL    HW170613   3.208   7.588   1.709
89572SOL    HW270614   3.177   7.441   1.691
89573SOL     OW70615   2.210  13.283   0.495
89573SOL    HW170616   2.262  13.203   0.501
89573SOL    HW270617   2.129  13.255   0.453
89574SOL     OW70618   8.901  14.417   4.997
89574SOL    HW170619   8.856  14.500   5.014
89574SOL    HW270620   8.831  14.353   4.986
89575SOL     OW70621  13.216   7.268  11.218
89575SOL    HW170622  13.199   7.190  11.166
89575SOL    HW270623  13.149   7.330  11.191
89576SOL     OW70624   8.855   0.472  11.191
89576SOL    HW170625   8.845   0.558  11.149
89576SOL    HW270626   8.872   0.412  11.118
89577SOL     OW70627   3.526   4.988   2.118
89577SOL    HW170628   3.581   4.942   2.181
89577SOL    HW270629   3.542   5.081   2.134
89578SOL     OW70630  14.745   0.365   1.884
89578SOL    HW170631  14.830   0.364   1.928
89578SOL    HW270632  14.761   0.410   1.801
89579SOL     OW70633   8.556  14.691  12.604
89579SOL    HW170634   8.651  14.695  12.588
89579SOL    HW270635   8.522  14.640  12.531
89580SOL     OW70636   0.721  10.029  14.152
89580SOL    HW170637   0.691   9.959  14.210
89580SOL    HW270638   0.800  10.062  14.194
89581SOL     OW70639   4.379   5.782   0.625
89581SOL    HW170640   4.308   5.761   0.685
89581SOL    HW270641   4.454   5.733   0.658
89582SOL     OW70642  12.697   1.175  10.188
89582SOL    HW170643  12.788   1.147  10.194
89582SOL    HW270644  12.702   1.267  10.162
89583SOL     OW70645   5.028   8.188   8.635
89583SOL    HW170646   5.062   8.100   8.619
89583SOL    HW270647   4.950   8.194   8.581
89584SOL     OW70648  14.054   8.493   6.353
89584SOL    HW170649  13.963   8.465   6.343
89584SOL    HW270650  14.049   8.574   6.404
89585SOL     OW70651   6.791   6.596  10.050
89585SOL    HW170652   6.856   6.545  10.098
89585SOL    HW270653   6.718   6.606  10.111
89586SOL     OW70654   8.248   3.907   5.645
89586SOL    HW170655   8.195   3.858   5.583
89586SOL    HW270656   8.304   3.841   5.685
89587SOL     OW70657   4.873  11.470   0.686
89587SOL    HW170658   4.848  11.379   0.702
89587SOL    HW270659   4.862  11.482   0.591
89588SOL     OW70660  11.343   7.587   3.173
89588SOL    HW170661  11.256   7.551   3.191
89588SOL    HW270662  11.348   7.666   3.227
89589SOL     OW70663   4.149   8.980  12.684
89589SOL    HW170664   4.097   8.904  12.656
89589SOL    HW270665   4.190   9.011  12.603
89590SOL     OW70666  11.145  13.368  13.178
89590SOL    HW170667  11.197  13.301  13.224
89590SOL    HW270668  11.209  13.415  13.124
89591SOL     OW70669   9.237  11.477   7.542
89591SOL    HW170670   9.242  11.435   7.456
89591SOL    HW270671   9.265  11.567   7.526
89592SOL     OW70672   3.034  12.137  10.686
89592SOL    HW170673   3.020  12.063  10.627
89592SOL    HW270674   3.075  12.099  10.763
89593SOL     OW70675   1.106   3.961  13.406
89593SOL    HW170676   1.179   3.923  13.356
89593SOL    HW270677   1.146   3.990  13.488
89594SOL     OW70678   1.663   7.674  12.094
89594SOL    HW170679   1.699   7.738  12.155
89594SOL    HW270680   1.568   7.686  12.098
89595SOL     OW70681  10.995  10.648   2.950
89595SOL    HW170682  11.081  10.650   2.992
89595SOL    HW270683  11.014  10.628   2.858
89596SOL     OW70684   2.201   2.781  14.094
89596SOL    HW170685   2.288   2.792  14.056
89596SOL    HW270686   2.216   2.747  14.182
89597SOL     OW70687  10.453   3.727   8.881
89597SOL    HW170688  10.478   3.704   8.791
89597SOL    HW270689  10.369   3.771   8.872
89598SOL     OW70690  13.198   1.406   6.451
89598SOL    HW170691  13.182   1.347   6.525
89598SOL    HW270692  13.220   1.489   6.493
89599SOL     OW70693   6.948   1.350   9.304
89599SOL    HW170694   6.935   1.407   9.229
89599SOL    HW270695   6.976   1.408   9.374
89600SOL     OW70696  10.118  14.191   9.697
89600SOL    HW170697  10.208  14.224   9.704
89600SOL    HW270698  10.114  14.152   9.610
89601SOL     OW70699   6.091  11.365  13.015
89601SOL    HW170700   5.996  11.376  13.020
89601SOL    HW270701   6.121  11.371  13.106
89602SOL     OW70702   9.379   0.859   4.971
89602SOL    HW170703   9.450   0.819   5.021
89602SOL    HW270704   9.395   0.953   4.977
89603SOL     OW70705  11.653   2.152   4.941
89603SOL    HW170706  11.617   2.069   4.910
89603SOL    HW270707  11.641   2.150   5.036
89604SOL     OW70708   4.841   7.017   1.086
89604SOL    HW170709   4.926   6.995   1.125
89604SOL    HW270710   4.777   6.999   1.155
89605SOL     OW70711  14.458  13.488   2.637
89605SOL    HW170712  14.422  13.571   2.604
89605SOL    HW270713  14.540  13.513   2.680
89606SOL     OW70714   2.423   4.463   8.221
89606SOL    HW170715   2.355   4.452   8.154
89606SOL    HW270716   2.424   4.557   8.240
89607SOL     OW70717  10.775  13.297  10.867
89607SOL    HW170718  10.688  13.295  10.827
89607SOL    HW270719  10.805  13.388  10.856
89608SOL     OW70720  14.313   5.649  14.169
89608SOL    HW170721  14.296   5.600  14.249
89608SOL    HW270722  14.403   5.679  14.177
89609SOL     OW70723  12.064   0.221  10.103
89609SOL    HW170724  11.994   0.180  10.053
89609SOL    HW270725  12.019   0.274  10.169
89610SOL     OW70726  11.495   0.835   5.602
89610SOL    HW170727  11.439   0.913   5.601
89610SOL    HW270728  11.539   0.838   5.686
89611SOL     OW70729  10.787   9.888   9.325
89611SOL    HW170730  10.776   9.809   9.378
89611SOL    HW270731  10.805   9.957   9.389
89612SOL     OW70732  12.512   2.671  12.983
89612SOL    HW170733  12.563   2.614  12.926
89612SOL    HW270734  12.460   2.611  13.036
89613SOL     OW70735  10.857  12.644   9.389
89613SOL    HW170736  10.944  12.606   9.380
89613SOL    HW270737  10.847  12.700   9.312
89614SOL     OW70738   7.709   4.096   8.583
89614SOL    HW170739   7.638   4.039   8.612
89614SOL    HW270740   7.678   4.133   8.500
89615SOL     OW70741  10.464   6.074  11.867
89615SOL    HW170742  10.536   6.027  11.908
89615SOL    HW270743  10.400   6.006  11.844
89616SOL     OW70744  14.161  10.830   8.251
89616SOL    HW170745  14.179  10.921   8.229
89616SOL    HW270746  14.237  10.801   8.301
89617SOL     OW70747   4.320   5.191   2.658
89617SOL    HW170748   4.280   5.273   2.630
89617SOL    HW270749   4.406   5.217   2.693
89618SOL     OW70750   7.624   6.469  13.986
89618SOL    HW170751   7.533   6.453  13.962
89618SOL    HW270752   7.671   6.468  13.903
89619SOL     OW70753   5.863   8.324  14.409
89619SOL    HW170754   5.874   8.398  14.349
89619SOL    HW270755   5.813   8.260  14.359
89620SOL     OW70756   5.203   0.004   7.219
89620SOL    HW170757   5.197  14.788   7.174
89620SOL    HW270758   5.224   0.067   7.150
89621SOL     OW70759   3.270  13.696   2.644
89621SOL    HW170760   3.341  13.746   2.605
89621SOL    HW270761   3.229  13.756   2.707
89622SOL     OW70762   6.531   9.476   2.858
89622SOL    HW170763   6.452   9.529   2.849
89622SOL    HW270764   6.537   9.459   2.952
89623SOL     OW70765   4.976   2.516   8.640
89623SOL    HW170766   4.919   2.556   8.574
89623SOL    HW270767   5.065   2.530   8.605
89624SOL     OW70768   6.628   5.085   0.769
89624SOL    HW170769   6.542   5.120   0.745
89624SOL    HW270770   6.689   5.155   0.746
89625SOL     OW70771  11.771   5.767  11.782
89625SOL    HW170772  11.775   5.812  11.867
89625SOL    HW270773  11.861   5.768  11.750
89626SOL     OW70774   7.899   2.182   1.824
89626SOL    HW170775   7.960   2.231   1.769
89626SOL    HW270776   7.924   2.205   1.913
89627SOL     OW70777   5.006   1.502   6.095
89627SOL    HW170778   5.083   1.536   6.048
89627SOL    HW270779   4.931   1.542   6.051
89628SOL     OW70780  12.924  12.377   0.244
89628SOL    HW170781  12.994  12.426   0.286
89628SOL    HW270782  12.966  12.332   0.171
89629SOL     OW70783   5.731   5.281   3.389
89629SOL    HW170784   5.723   5.191   3.358
89629SOL    HW270785   5.741   5.333   3.310
89630SOL     OW70786   3.720   0.920  12.041
89630SOL    HW170787   3.704   0.995  12.097
89630SOL    HW270788   3.633   0.886  12.022
89631SOL     OW70789   4.226   5.807  14.622
89631SOL    HW170790   4.145   5.768  14.655
89631SOL    HW270791   4.265   5.850  14.699
89632SOL     OW70792   3.363   4.867   8.634
89632SOL    HW170793   3.409   4.801   8.686
89632SOL    HW270794   3.399   4.950   8.664
89633SOL     OW70795   8.503   4.752   2.827
89633SOL    HW170796   8.424   4.734   2.776
89633SOL    HW270797   8.523   4.844   2.807
89634SOL     OW70798   0.443   1.302   3.407
89634SOL    HW170799   0.471   1.261   3.489
89634SOL    HW270800   0.498   1.262   3.340
89635SOL     OW70801  12.320  13.066   7.220
89635SOL    HW170802  12.369  13.082   7.301
89635SOL    HW270803  12.280  12.980   7.232
89636SOL     OW70804  10.122   7.999   9.971
89636SOL    HW170805  10.049   7.982   9.911
89636SOL    HW270806  10.122   8.094   9.981
89637SOL     OW70807   0.066  11.495  12.611
89637SOL    HW170808   0.116  11.535  12.682
89637SOL    HW270809   0.022  11.420  12.651
89638SOL     OW70810   4.749  11.401  12.482
89638SOL    HW170811   4.665  11.374  12.445
89638SOL    HW270812   4.815  11.354  12.431
89639SOL     OW70813   8.175   0.959   9.454
89639SOL    HW170814   8.204   0.930   9.368
89639SOL    HW270815   8.158   0.878   9.502
89640SOL     OW70816   3.884  13.996  12.249
89640SOL    HW170817   3.975  13.971  12.265
89640SOL    HW270818   3.835  13.915  12.259
89641SOL     OW70819   5.963   0.490   3.713
89641SOL    HW170820   5.909   0.533   3.646
89641SOL    HW270821   6.053   0.504   3.684
89642SOL     OW70822  11.688  12.970  11.450
89642SOL    HW170823  11.696  12.876  11.438
89642SOL    HW270824  11.723  13.008  11.369
89643SOL     OW70825   0.648  11.991   1.746
89643SOL    HW170826   0.618  12.026   1.830
89643SOL    HW270827   0.610  12.049   1.680
89644SOL     OW70828  13.892   5.406   1.508
89644SOL    HW170829  13.964   5.435   1.564
89644SOL    HW270830  13.934   5.378   1.426
89645SOL     OW70831  10.680   5.074   4.333
89645SOL    HW170832  10.765   5.046   4.300
89645SOL    HW270833  10.616   5.037   4.272
89646SOL     OW70834   1.043   6.799   3.264
89646SOL    HW170835   1.088   6.878   3.233
89646SOL    HW270836   1.112   6.733   3.269
89647SOL     OW70837   5.760   4.204   3.292
89647SOL    HW170838   5.664   4.199   3.288
89647SOL    HW270839   5.787   4.207   3.200
89648SOL     OW70840  12.969   4.136  12.544
89648SOL    HW170841  12.975   4.230  12.561
89648SOL    HW270842  13.059   4.104  12.550
89649SOL     OW70843   6.013   3.598   8.737
89649SOL    HW170844   6.095   3.613   8.784
89649SOL    HW270845   6.025   3.643   8.653
89650SOL     OW70846   8.264   8.860  11.114
89650SOL    HW170847   8.176   8.823  11.115
89650SOL    HW270848   8.317   8.797  11.164
89651SOL     OW70849   5.494  12.035   1.274
89651SOL    HW170850   5.474  11.973   1.204
89651SOL    HW270851   5.425  12.021   1.339
89652SOL     OW70852   1.385   0.572   8.600
89652SOL    HW170853   1.329   0.637   8.558
89652SOL    HW270854   1.474   0.607   8.592
89653SOL     OW70855   3.449  11.622   8.198
89653SOL    HW170856   3.451  11.539   8.150
89653SOL    HW270857   3.416  11.598   8.284
89654SOL     OW70858   4.224   3.221  11.289
89654SOL    HW170859   4.197   3.287  11.352
89654SOL    HW270860   4.309   3.251  11.258
89655SOL     OW70861   7.001   6.463   6.807
89655SOL    HW170862   6.928   6.420   6.852
89655SOL    HW270863   6.968   6.479   6.718
89656SOL     OW70864   2.700   4.243   1.482
89656SOL    HW170865   2.681   4.267   1.573
89656SOL    HW270866   2.668   4.154   1.473
89657SOL     OW70867   6.403   6.084   6.926
89657SOL    HW170868   6.314   6.077   6.960
89657SOL    HW270869   6.428   6.175   6.942
89658SOL     OW70870   6.720  13.484   5.216
89658SOL    HW170871   6.752  13.523   5.298
89658SOL    HW270872   6.798  13.450   5.173
89659SOL     OW70873   3.453   1.260   5.596
89659SOL    HW170874   3.425   1.343   5.557
89659SOL    HW270875   3.498   1.286   5.677
89660SOL     OW70876   8.984   9.418  12.282
89660SOL    HW170877   8.914   9.364  12.318
89660SOL    HW270878   9.058   9.358  12.271
89661SOL     OW70879  13.167   1.042   4.770
89661SOL    HW170880  13.092   1.086   4.730
89661SOL    HW270881  13.239   1.055   4.708
89662SOL     OW70882   7.785   7.202   6.261
89662SOL    HW170883   7.850   7.241   6.202
89662SOL    HW270884   7.805   7.108   6.260
89663SOL     OW70885   2.653   3.656  13.023
89663SOL    HW170886   2.664   3.613  13.108
89663SOL    HW270887   2.570   3.703  13.032
89664SOL     OW70888   2.984  11.324  14.642
89664SOL    HW170889   2.998  11.278  14.559
89664SOL    HW270890   2.930  11.264  14.693
89665SOL     OW70891  14.746  12.435   3.774
89665SOL    HW170892  14.748  12.340   3.766
89665SOL    HW270893  14.758  12.467   3.684
89666SOL     OW70894   5.627   8.647  12.546
89666SOL    HW170895   5.701   8.585  12.545
89666SOL    HW270896   5.631   8.690  12.460
89667SOL     OW70897   7.978   8.426  13.103
89667SOL    HW170898   7.973   8.347  13.049
89667SOL    HW270899   8.069   8.430  13.131
89668SOL     OW70900  11.616   4.292  14.817
89668SOL    HW170901  11.605   4.252   0.035
89668SOL    HW270902  11.603   4.386  14.832
89669SOL     OW70903  14.031   3.104  11.474
89669SOL    HW170904  13.993   3.167  11.536
89669SOL    HW270905  13.957   3.050  11.447
89670SOL     OW70906  10.325   9.683   4.969
89670SOL    HW170907  10.345   9.632   5.048
89670SOL    HW270908  10.288   9.764   5.003
89671SOL     OW70909  13.414   4.158  10.150
89671SOL    HW170910  13.392   4.240  10.107
89671SOL    HW270911  13.472   4.113  10.088
89672SOL     OW70912   5.874   8.124   9.968
89672SOL    HW170913   5.901   8.201  10.018
89672SOL    HW270914   5.914   8.050  10.013
89673SOL     OW70915   4.239   0.945   1.483
89673SOL    HW170916   4.233   0.904   1.570
89673SOL    HW270917   4.183   0.890   1.427
89674SOL     OW70918   8.371   8.151   6.004
89674SOL    HW170919   8.310   8.121   6.072
89674SOL    HW270920   8.335   8.116   5.923
89675SOL     OW70921  13.991  11.937   8.285
89675SOL    HW170922  13.928  11.869   8.264
89675SOL    HW270923  13.995  11.937   8.381
89676SOL     OW70924  14.064   2.884  12.385
89676SOL    HW170925  14.026   2.799  12.408
89676SOL    HW270926  14.076   2.880  12.290
89677SOL     OW70927   3.617   6.559   0.680
89677SOL    HW170928   3.707   6.565   0.647
89677SOL    HW270929   3.604   6.466   0.699
89678SOL     OW70930   3.465  12.458   7.189
89678SOL    HW170931   3.449  12.376   7.142
89678SOL    HW270932   3.470  12.524   7.120
89679SOL     OW70933   7.196  11.322  14.514
89679SOL    HW170934   7.252  11.272  14.573
89679SOL    HW270935   7.115  11.336  14.564
89680SOL     OW70936  12.290   4.884   6.657
89680SOL    HW170937  12.267   4.960   6.603
89680SOL    HW270938  12.229   4.816   6.630
89681SOL     OW70939   9.330  12.069   3.217
89681SOL    HW170940   9.341  11.988   3.268
89681SOL    HW270941   9.387  12.058   3.142
89682SOL     OW70942   9.213   3.412   2.343
89682SOL    HW170943   9.200   3.457   2.259
89682SOL    HW270944   9.226   3.482   2.406
89683SOL     OW70945   3.857   6.283   2.067
89683SOL    HW170946   3.778   6.232   2.083
89683SOL    HW270947   3.886   6.256   1.980
89684SOL     OW70948  12.892  10.408  12.277
89684SOL    HW170949  12.934  10.425  12.193
89684SOL    HW270950  12.813  10.359  12.255
89685SOL     OW70951   5.987   0.785  11.862
89685SOL    HW170952   5.945   0.776  11.947
89685SOL    HW270953   5.917   0.812  11.803
89686SOL     OW70954  12.022   0.858  11.264
89686SOL    HW170955  12.111   0.893  11.258
89686SOL    HW270956  11.979   0.913  11.329
89687SOL     OW70957   8.827   4.954   0.979
89687SOL    HW170958   8.893   5.010   1.020
89687SOL    HW270959   8.872   4.913   0.905
89688SOL     OW70960   2.970   9.958  14.794
89688SOL    HW170961   2.917   9.966  14.715
89688SOL    HW270962   3.051  10.004  14.773
89689SOL     OW70963   9.209  11.031   0.974
89689SOL    HW170964   9.191  10.976   0.898
89689SOL    HW270965   9.133  11.020   1.031
89690SOL     OW70966   4.380  12.600   5.279
89690SOL    HW170967   4.410  12.570   5.365
89690SOL    HW270968   4.460  12.604   5.226
89691SOL     OW70969   9.932  10.118   0.159
89691SOL    HW170970   9.882  10.098   0.237
89691SOL    HW270971   9.997  10.048   0.153
89692SOL     OW70972  10.363   2.660   4.750
89692SOL    HW170973  10.331   2.727   4.690
89692SOL    HW270974  10.385   2.707   4.830
89693SOL     OW70975   3.539  13.734   3.236
89693SOL    HW170976   3.490  13.801   3.186
89693SOL    HW270977   3.480  13.659   3.238
89694SOL     OW70978  12.174  12.986   3.311
89694SOL    HW170979  12.098  13.041   3.329
89694SOL    HW270980  12.137  12.903   3.279
89695SOL     OW70981   5.745   3.946  12.910
89695SOL    HW170982   5.742   4.028  12.960
89695SOL    HW270983   5.811   3.894  12.956
89696SOL     OW70984   5.157   5.628  14.737
89696SOL    HW170985   5.191   5.569  14.670
89696SOL    HW270986   5.152   5.574  14.816
89697SOL     OW70987   9.463  14.813  11.593
89697SOL    HW170988   9.368  14.812  11.603
89697SOL    HW270989   9.493  14.740  11.648
89698SOL     OW70990   1.290  11.374  10.407
89698SOL    HW170991   1.358  11.410  10.351
89698SOL    HW270992   1.332  11.300  10.451
89699SOL     OW70993   3.533   1.297   3.474
89699SOL    HW170994   3.518   1.268   3.564
89699SOL    HW270995   3.593   1.232   3.437
89700SOL     OW70996   6.490   0.911  14.012
89700SOL    HW170997   6.559   0.856  14.050
89700SOL    HW270998   6.440   0.850  13.957
89701SOL     OW70999   5.368   1.054   2.854
89701SOL    HW171000   5.311   1.023   2.924
89701SOL    HW271001   5.320   1.127   2.814
89702SOL     OW71002  14.456   3.343  10.321
89702SOL    HW171003  14.451   3.273  10.386
89702SOL    HW271004  14.397   3.315  10.251
89703SOL     OW71005  13.752  13.829   5.342
89703SOL    HW171006  13.799  13.909   5.321
89703SOL    HW271007  13.725  13.840   5.433
89704SOL     OW71008   8.471   7.826   0.582
89704SOL    HW171009   8.495   7.767   0.511
89704SOL    HW271010   8.375   7.828   0.581
89705SOL     OW71011   1.147   4.720   1.645
89705SOL    HW171012   1.101   4.778   1.585
89705SOL    HW271013   1.221   4.772   1.677
89706SOL     OW71014  10.247   4.657   7.811
89706SOL    HW171015  10.297   4.678   7.732
89706SOL    HW271016  10.222   4.565   7.801
89707SOL     OW71017  13.481   4.655  10.715
89707SOL    HW171018  13.525   4.731  10.676
89707SOL    HW271019  13.394   4.687  10.739
89708SOL     OW71020   6.468  11.717  12.768
89708SOL    HW171021   6.399  11.656  12.796
89708SOL    HW271022   6.427  11.803  12.771
89709SOL     OW71023  14.366   7.478   2.767
89709SOL    HW171024  14.386   7.564   2.729
89709SOL    HW271025  14.360   7.495   2.861
89710SOL     OW71026   9.529  11.468   1.374
89710SOL    HW171027   9.551  11.375   1.381
89710SOL    HW271028   9.513  11.482   1.281
89711SOL     OW71029  11.574  10.636  13.760
89711SOL    HW171030  11.503  10.576  13.784
89711SOL    HW271031  11.535  10.723  13.765
89712SOL     OW71032   3.558   3.636   8.243
89712SOL    HW171033   3.593   3.688   8.315
89712SOL    HW271034   3.469   3.670   8.230
89713SOL     OW71035   3.187  11.457  12.395
89713SOL    HW171036   3.271  11.489  12.363
89713SOL    HW271037   3.180  11.368  12.362
89714SOL     OW71038  13.372  10.525  12.194
89714SOL    HW171039  13.340  10.459  12.255
89714SOL    HW271040  13.427  10.477  12.132
89715SOL     OW71041   0.986  14.719   2.640
89715SOL    HW171042   1.012  14.697   2.551
89715SOL    HW271043   0.924  14.651   2.665
89716SOL     OW71044   9.660   2.509  11.041
89716SOL    HW171045   9.685   2.589  10.995
89716SOL    HW271046   9.597   2.538  11.108
89717SOL     OW71047   4.907   6.643   6.420
89717SOL    HW171048   4.814   6.621   6.427
89717SOL    HW271049   4.908   6.728   6.375
89718SOL     OW71050   8.749   8.380   9.379
89718SOL    HW171051   8.806   8.414   9.449
89718SOL    HW271052   8.664   8.369   9.421
89719SOL     OW71053   9.485   9.230  12.351
89719SOL    HW171054   9.523   9.161  12.406
89719SOL    HW271055   9.476   9.189  12.265
89720SOL     OW71056   4.978  13.632  12.081
89720SOL    HW171057   4.902  13.647  12.025
89720SOL    HW271058   5.024  13.716  12.083
89721SOL     OW71059   8.810  12.248  12.669
89721SOL    HW171060   8.755  12.193  12.726
89721SOL    HW271061   8.747  12.301  12.620
89722SOL     OW71062   9.076   3.448  12.829
89722SOL    HW171063   9.130   3.369  12.823
89722SOL    HW271064   9.129   3.510  12.878
89723SOL     OW71065  11.047  12.924  11.145
89723SOL    HW171066  10.982  12.856  11.162
89723SOL    HW271067  11.129  12.886  11.174
89724SOL     OW71068   3.490   8.163   9.208
89724SOL    HW171069   3.494   8.254   9.237
89724SOL    HW271070   3.415   8.160   9.148
89725SOL     OW71071   7.144  10.000   9.251
89725SOL    HW171072   7.067   9.947   9.274
89725SOL    HW271073   7.209   9.977   9.317
89726SOL     OW71074   0.766   8.748   7.487
89726SOL    HW171075   0.714   8.824   7.462
89726SOL    HW271076   0.788   8.705   7.404
89727SOL     OW71077   8.790  14.430   0.389
89727SOL    HW171078   8.831  14.363   0.334
89727SOL    HW271079   8.856  14.498   0.398
89728SOL     OW71080   7.615   8.476   3.640
89728SOL    HW171081   7.596   8.395   3.686
89728SOL    HW271082   7.676   8.523   3.698
89729SOL     OW71083   2.748   2.622   5.656
89729SOL    HW171084   2.829   2.575   5.636
89729SOL    HW271085   2.721   2.658   5.571
89730SOL     OW71086   8.705   9.259  13.400
89730SOL    HW171087   8.720   9.231  13.490
89730SOL    HW271088   8.791   9.289  13.370
89731SOL     OW71089   3.566   4.454   3.689
89731SOL    HW171090   3.527   4.516   3.628
89731SOL    HW271091   3.575   4.503   3.771
89732SOL     OW71092   1.076  11.902  14.675
89732SOL    HW171093   1.117  11.948  14.749
89732SOL    HW271094   1.148  11.852  14.635
89733SOL     OW71095   3.523   9.460   8.243
89733SOL    HW171096   3.539   9.493   8.155
89733SOL    HW271097   3.506   9.538   8.296
89734SOL     OW71098   2.065   2.275   6.455
89734SOL    HW171099   2.118   2.236   6.524
89734SOL    HW271100   2.059   2.208   6.387
89735SOL     OW71101  14.734   7.251   1.279
89735SOL    HW171102  14.726   7.272   1.372
89735SOL    HW271103  14.764   7.332   1.238
89736SOL     OW71104   3.826   2.354   5.256
89736SOL    HW171105   3.855   2.302   5.181
89736SOL    HW271106   3.731   2.344   5.257
89737SOL     OW71107  10.014   9.985  13.088
89737SOL    HW171108  10.030   9.905  13.139
89737SOL    HW271109   9.928  10.015  13.118
89738SOL     OW71110  14.854   2.176  13.842
89738SOL    HW171111  14.791   2.105  13.833
89738SOL    HW271112  14.864   2.211  13.753
89739SOL     OW71113   0.495   1.974   0.939
89739SOL    HW171114   0.579   2.002   0.975
89739SOL    HW271115   0.495   2.005   0.849
89740SOL     OW71116  13.439   9.859  10.946
89740SOL    HW171117  13.344   9.847  10.956
89740SOL    HW271118  13.452   9.954  10.946
89741SOL     OW71119  11.368   3.427  11.243
89741SOL    HW171120  11.343   3.504  11.293
89741SOL    HW271121  11.294   3.367  11.251
89742SOL     OW71122   5.490   2.137  13.368
89742SOL    HW171123   5.413   2.146  13.424
89742SOL    HW271124   5.459   2.085  13.293
89743SOL     OW71125  11.166   3.338   6.686
89743SOL    HW171126  11.245   3.304   6.728
89743SOL    HW271127  11.193   3.362   6.598
89744SOL     OW71128   6.201  10.656   0.954
89744SOL    HW171129   6.170  10.743   0.979
89744SOL    HW271130   6.127  10.615   0.910
89745SOL     OW71131   9.007  13.617  12.178
89745SOL    HW171132   9.093  13.659  12.176
89745SOL    HW271133   9.027  13.523  12.183
89746SOL     OW71134  14.719   2.264  12.175
89746SOL    HW171135  14.814   2.255  12.187
89746SOL    HW271136  14.687   2.299  12.258
89747SOL     OW71137   3.554   9.941  13.161
89747SOL    HW171138   3.553   9.904  13.073
89747SOL    HW271139   3.533  10.034  13.148
89748SOL     OW71140  12.196   0.197  13.017
89748SOL    HW171141  12.150   0.159  13.092
89748SOL    HW271142  12.177   0.291  13.021
89749SOL     OW71143   2.404   7.340   6.829
89749SOL    HW171144   2.378   7.407   6.893
89749SOL    HW271145   2.333   7.275   6.832
89750SOL     OW71146   4.101   5.520   2.283
89750SOL    HW171147   4.174   5.475   2.242
89750SOL    HW271148   4.025   5.497   2.230
89751SOL     OW71149   6.009  10.115   0.666
89751SOL    HW171150   6.056  10.109   0.749
89751SOL    HW271151   5.943  10.046   0.672
89752SOL     OW71152   5.226  13.821  13.774
89752SOL    HW171153   5.239  13.739  13.822
89752SOL    HW271154   5.298  13.878  13.803
89753SOL     OW71155  13.142   0.119   9.552
89753SOL    HW171156  13.082   0.071   9.495
89753SOL    HW271157  13.170   0.194   9.500
89754SOL     OW71158   2.770   4.804  11.215
89754SOL    HW171159   2.750   4.755  11.295
89754SOL    HW271160   2.833   4.749  11.168
89755SOL     OW71161  10.680  14.825   2.334
89755SOL    HW171162  10.726   0.041   2.334
89755SOL    HW271163  10.592  14.846   2.304
89756SOL     OW71164  11.288   0.051  14.017
89756SOL    HW171165  11.377   0.080  14.040
89756SOL    HW271166  11.239   0.132  14.006
89757SOL     OW71167  11.343   6.511   9.037
89757SOL    HW171168  11.294   6.591   9.053
89757SOL    HW271169  11.283   6.441   9.061
89758SOL     OW71170   1.200  14.038   4.468
89758SOL    HW171171   1.266  14.036   4.537
89758SOL    HW271172   1.249  14.034   4.386
89759SOL     OW71173   8.339   1.866   3.694
89759SOL    HW171174   8.408   1.860   3.760
89759SOL    HW271175   8.378   1.918   3.623
89760SOL     OW71176   5.064   5.440   3.431
89760SOL    HW171177   5.098   5.447   3.521
89760SOL    HW271178   4.974   5.409   3.442
89761SOL     OW71179  10.045   6.484   5.097
89761SOL    HW171180  10.100   6.416   5.137
89761SOL    HW271181  10.018   6.446   5.013
89762SOL     OW71182   1.813  13.378  10.040
89762SOL    HW171183   1.897  13.337  10.060
89762SOL    HW271184   1.748  13.315  10.070
89763SOL     OW71185  10.247   8.982   4.467
89763SOL    HW171186  10.243   9.060   4.523
89763SOL    HW271187  10.340   8.973   4.445
89764SOL     OW71188   6.864   0.088   3.230
89764SOL    HW171189   6.828   0.033   3.161
89764SOL    HW271190   6.839   0.177   3.205
89765SOL     OW71191   0.955   4.053  11.558
89765SOL    HW171192   0.886   4.119  11.552
89765SOL    HW271193   1.019   4.080  11.493
89766SOL     OW71194  11.885   6.554  11.244
89766SOL    HW171195  11.972   6.568  11.207
89766SOL    HW271196  11.825   6.568  11.171
89767SOL     OW71197   9.790   5.314  14.031
89767SOL    HW171198   9.834   5.249  13.976
89767SOL    HW271199   9.783   5.271  14.117
89768SOL     OW71200   8.828   3.829   3.838
89768SOL    HW171201   8.739   3.859   3.855
89768SOL    HW271202   8.830   3.812   3.744
89769SOL     OW71203  13.106   8.995   7.421
89769SOL    HW171204  13.072   9.042   7.496
89769SOL    HW271205  13.034   8.995   7.358
89770SOL     OW71206   4.869   3.674  13.490
89770SOL    HW171207   4.832   3.677  13.578
89770SOL    HW271208   4.963   3.657  13.504
89771SOL     OW71209   1.682   6.269  14.352
89771SOL    HW171210   1.669   6.328  14.277
89771SOL    HW271211   1.627   6.194  14.333
89772SOL     OW71212  14.565   5.999   6.670
89772SOL    HW171213  14.631   5.989   6.739
89772SOL    HW271214  14.565   6.092   6.650
89773SOL     OW71215   1.016  10.795   3.013
89773SOL    HW171216   1.035  10.739   3.088
89773SOL    HW271217   1.018  10.884   3.049
89774SOL     OW71218   9.147   5.478   5.635
89774SOL    HW171219   9.123   5.536   5.708
89774SOL    HW271220   9.069   5.476   5.579
89775SOL     OW71221   1.288   6.054  10.120
89775SOL    HW171222   1.274   6.131  10.065
89775SOL    HW271223   1.199   6.022  10.138
89776SOL     OW71224   0.807  11.120   9.093
89776SOL    HW171225   0.776  11.030   9.083
89776SOL    HW271226   0.813  11.153   9.003
89777SOL     OW71227  11.513   1.935   9.417
89777SOL    HW171228  11.604   1.908   9.429
89777SOL    HW271229  11.462   1.859   9.443
89778SOL     OW71230   2.055   8.730  10.837
89778SOL    HW171231   2.046   8.724  10.933
89778SOL    HW271232   2.009   8.811  10.814
89779SOL     OW71233   3.469  13.075   7.890
89779SOL    HW171234   3.486  13.112   7.804
89779SOL    HW271235   3.471  12.980   7.877
89780SOL     OW71236   8.302   3.918  10.633
89780SOL    HW171237   8.296   3.981  10.705
89780SOL    HW271238   8.213   3.883  10.624
89781SOL     OW71239   9.727   3.967   0.631
89781SOL    HW171240   9.736   4.061   0.648
89781SOL    HW271241   9.663   3.961   0.560
89782SOL     OW71242  11.380  10.735  13.436
89782SOL    HW171243  11.304  10.787  13.463
89782SOL    HW271244  11.344  10.648  13.418
89783SOL     OW71245   6.783  11.606   6.291
89783SOL    HW171246   6.851  11.672   6.283
89783SOL    HW271247   6.701  11.653   6.275
89784SOL     OW71248   0.539   3.258   8.865
89784SOL    HW171249   0.513   3.203   8.939
89784SOL    HW271250   0.481   3.333   8.869
89785SOL     OW71251  10.330  10.200   8.379
89785SOL    HW171252  10.311  10.116   8.337
89785SOL    HW271253  10.311  10.184   8.472
89786SOL     OW71254  14.774   9.929  14.219
89786SOL    HW171255  14.835   9.988  14.262
89786SOL    HW271256  14.822   9.893  14.144
89787SOL     OW71257  11.905   0.810  12.730
89787SOL    HW171258  11.959   0.754  12.786
89787SOL    HW271259  11.922   0.778  12.641
89788SOL     OW71260   6.066  13.692   4.695
89788SOL    HW171261   6.017  13.626   4.744
89788SOL    HW271262   6.122  13.734   4.760
89789SOL     OW71263   0.748   0.622  13.957
89789SOL    HW171264   0.691   0.564  14.006
89789SOL    HW271265   0.811   0.564  13.915
89790SOL     OW71266   6.847   4.777  13.978
89790SOL    HW171267   6.854   4.788  13.883
89790SOL    HW271268   6.806   4.858  14.008
89791SOL     OW71269  13.824  11.943   7.061
89791SOL    HW171270  13.731  11.961   7.078
89791SOL    HW271271  13.824  11.857   7.019
89792SOL     OW71272   3.213   9.366   1.624
89792SOL    HW171273   3.128   9.372   1.668
89792SOL    HW271274   3.276   9.353   1.694
89793SOL     OW71275  12.977   4.076   7.069
89793SOL    HW171276  13.064   4.049   7.099
89793SOL    HW271277  12.917   4.016   7.114
89794SOL     OW71278  10.829  14.076   8.104
89794SOL    HW171279  10.761  14.068   8.037
89794SOL    HW271280  10.841  14.170   8.115
89795SOL     OW71281   0.920  12.250  10.549
89795SOL    HW171282   0.858  12.272  10.619
89795SOL    HW271283   0.970  12.176  10.583
89796SOL     OW71284   6.153  12.775   1.911
89796SOL    HW171285   6.097  12.850   1.895
89796SOL    HW271286   6.105  12.721   1.974
89797SOL     OW71287   8.638   8.613  13.665
89797SOL    HW171288   8.672   8.633  13.578
89797SOL    HW271289   8.552   8.573  13.649
89798SOL     OW71290   5.488   9.743  11.469
89798SOL    HW171291   5.457   9.659  11.503
89798SOL    HW271292   5.443   9.809  11.522
89799SOL     OW71293  11.196  14.501  13.899
89799SOL    HW171294  11.201  14.538  13.811
89799SOL    HW271295  11.223  14.409  13.888
89800SOL     OW71296   1.397   6.428   0.303
89800SOL    HW171297   1.477   6.435   0.251
89800SOL    HW271298   1.334   6.487   0.260
89801SOL     OW71299   0.014   2.262   4.066
89801SOL    HW171300  14.786   2.262   4.073
89801SOL    HW271301   0.044   2.308   4.144
89802SOL     OW71302   8.216  13.123  10.619
89802SOL    HW171303   8.213  13.111  10.714
89802SOL    HW271304   8.310  13.131  10.599
89803SOL     OW71305   8.111   0.124  10.590
89803SOL    HW171306   8.137   0.116  10.682
89803SOL    HW271307   8.058   0.046  10.573
89804SOL     OW71308   0.543   3.257   9.554
89804SOL    HW171309   0.508   3.313   9.486
89804SOL    HW271310   0.521   3.168   9.526
89805SOL     OW71311  13.531   0.345   1.818
89805SOL    HW171312  13.463   0.314   1.877
89805SOL    HW271313  13.562   0.427   1.857
89806SOL     OW71314   1.898   7.551  11.700
89806SOL    HW171315   1.847   7.547  11.781
89806SOL    HW271316   1.937   7.639  11.700
89807SOL     OW71317   9.180   7.286   5.791
89807SOL    HW171318   9.276   7.285   5.785
89807SOL    HW271319   9.158   7.375   5.817
89808SOL     OW71320   7.816   1.227   0.702
89808SOL    HW171321   7.824   1.138   0.666
89808SOL    HW271322   7.722   1.246   0.696
89809SOL     OW71323   7.737   4.798   6.379
89809SOL    HW171324   7.757   4.778   6.288
89809SOL    HW271325   7.710   4.714   6.417
89810SOL     OW71326   1.520   4.106   6.953
89810SOL    HW171327   1.439   4.121   7.001
89810SOL    HW271328   1.491   4.081   6.865
89811SOL     OW71329  13.928   2.131   4.606
89811SOL    HW171330  14.023   2.147   4.597
89811SOL    HW271331  13.921   2.054   4.661
89812SOL     OW71332   3.545   8.992   5.345
89812SOL    HW171333   3.582   9.047   5.275
89812SOL    HW271334   3.559   8.903   5.314
89813SOL     OW71335   9.954   4.407   7.721
89813SOL    HW171336  10.036   4.416   7.771
89813SOL    HW271337   9.952   4.484   7.664
89814SOL     OW71338   4.966  12.156  14.174
89814SOL    HW171339   4.970  12.082  14.234
89814SOL    HW271340   4.884  12.200  14.196
89815SOL     OW71341  14.861  12.006   8.218
89815SOL    HW171342   0.002  12.090   8.173
89815SOL    HW271343  14.795  11.959   8.168
89816SOL     OW71344   3.411   7.185   7.876
89816SOL    HW171345   3.484   7.124   7.875
89816SOL    HW271346   3.433   7.251   7.811
89817SOL     OW71347  11.566  14.257  11.463
89817SOL    HW171348  11.538  14.212  11.384
89817SOL    HW271349  11.634  14.318  11.433
89818SOL     OW71350   0.824   9.105  13.019
89818SOL    HW171351   0.769   9.051  12.963
89818SOL    HW271352   0.906   9.114  12.971
89819SOL     OW71353   9.265   8.124   7.224
89819SOL    HW171354   9.324   8.091   7.156
89819SOL    HW271355   9.298   8.087   7.305
89820SOL     OW71356  13.390   7.915  13.967
89820SOL    HW171357  13.326   7.961  13.913
89820SOL    HW271358  13.473   7.959  13.949
89821SOL     OW71359   0.442   8.234   5.829
89821SOL    HW171360   0.364   8.272   5.869
89821SOL    HW271361   0.421   8.141   5.819
89822SOL     OW71362   7.704   1.179   1.992
89822SOL    HW171363   7.692   1.139   1.905
89822SOL    HW271364   7.761   1.254   1.976
89823SOL     OW71365  11.080   2.607   4.861
89823SOL    HW171366  11.161   2.556   4.863
89823SOL    HW271367  11.015   2.546   4.825
89824SOL     OW71368  14.131   9.991   1.037
89824SOL    HW171369  14.160  10.081   1.054
89824SOL    HW271370  14.164   9.972   0.949
89825SOL     OW71371   0.167  10.946  12.047
89825SOL    HW171372   0.151  10.867  12.097
89825SOL    HW271373   0.104  10.941  11.974
89826SOL     OW71374   5.541   3.084   1.048
89826SOL    HW171375   5.517   3.077   1.141
89826SOL    HW271376   5.465   3.124   1.006
89827SOL     OW71377   7.860  10.734   8.959
89827SOL    HW171378   7.913  10.814   8.955
89827SOL    HW271379   7.886  10.691   9.041
89828SOL     OW71380   5.496   4.678  13.034
89828SOL    HW171381   5.485   4.767  13.002
89828SOL    HW271382   5.549   4.687  13.113
89829SOL     OW71383  11.481  12.998   9.195
89829SOL    HW171384  11.510  12.943   9.122
89829SOL    HW271385  11.528  12.965   9.271
89830SOL     OW71386  11.123  12.391   2.361
89830SOL    HW171387  11.097  12.331   2.291
89830SOL    HW271388  11.116  12.478   2.322
89831SOL     OW71389  11.834   9.536   1.804
89831SOL    HW171390  11.762   9.571   1.752
89831SOL    HW271391  11.900   9.511   1.739
89832SOL     OW71392  11.343  11.407   3.063
89832SOL    HW171393  11.415  11.469   3.065
89832SOL    HW271394  11.373  11.333   3.115
89833SOL     OW71395   2.030   9.524   0.890
89833SOL    HW171396   2.033   9.430   0.910
89833SOL    HW271397   1.996   9.565   0.969
89834SOL     OW71398   8.277   4.046   7.807
89834SOL    HW171399   8.337   4.114   7.777
89834SOL    HW271400   8.328   3.994   7.869
89835SOL     OW71401   6.914  10.791   4.298
89835SOL    HW171402   6.847  10.736   4.337
89835SOL    HW271403   6.996  10.760   4.336
89836SOL     OW71404  14.360  13.248  12.900
89836SOL    HW171405  14.439  13.301  12.909
89836SOL    HW271406  14.380  13.168  12.949
89837SOL     OW71407   4.672   7.851   0.445
89837SOL    HW171408   4.734   7.884   0.381
89837SOL    HW271409   4.717   7.859   0.529
89838SOL     OW71410  14.754   0.285   6.982
89838SOL    HW171411  14.814   0.348   6.941
89838SOL    HW271412  14.671   0.331   6.987
89839SOL     OW71413   1.063   3.346   6.506
89839SOL    HW171414   1.087   3.400   6.430
89839SOL    HW271415   1.140   3.292   6.521
89840SOL     OW71416  11.440   5.643   0.131
89840SOL    HW171417  11.493   5.722   0.141
89840SOL    HW271418  11.364   5.658   0.188
89841SOL     OW71419   3.764   4.684   4.200
89841SOL    HW171420   3.763   4.589   4.212
89841SOL    HW271421   3.856   4.706   4.189
89842SOL     OW71422   2.033   4.533   5.177
89842SOL    HW171423   2.103   4.482   5.137
89842SOL    HW271424   2.076   4.609   5.214
89843SOL     OW71425   6.832  12.601   4.903
89843SOL    HW171426   6.834  12.579   4.996
89843SOL    HW271427   6.917  12.574   4.870
89844SOL     OW71428  10.573   1.090   3.460
89844SOL    HW171429  10.513   1.092   3.535
89844SOL    HW271430  10.647   1.144   3.487
89845SOL     OW71431  11.618   6.242   0.606
89845SOL    HW171432  11.703   6.247   0.650
89845SOL    HW271433  11.626   6.303   0.533
89846SOL     OW71434   1.995   6.188   8.506
89846SOL    HW171435   1.988   6.232   8.421
89846SOL    HW271436   2.042   6.250   8.561
89847SOL     OW71437  12.918   9.126   8.603
89847SOL    HW171438  12.943   9.175   8.525
89847SOL    HW271439  12.997   9.078   8.628
89848SOL     OW71440   4.035   4.859   3.698
89848SOL    HW171441   4.023   4.923   3.627
89848SOL    HW271442   4.096   4.795   3.662
89849SOL     OW71443  14.102   3.950  12.214
89849SOL    HW171444  14.023   3.994  12.246
89849SOL    HW271445  14.170   3.975  12.276
89850SOL     OW71446   8.641   9.838   8.561
89850SOL    HW171447   8.571   9.888   8.602
89850SOL    HW271448   8.636   9.751   8.601
89851SOL     OW71449   2.367   7.171   6.381
89851SOL    HW171450   2.278   7.197   6.405
89851SOL    HW271451   2.423   7.237   6.421
89852SOL     OW71452   1.289  13.532  12.707
89852SOL    HW171453   1.240  13.522  12.626
89852SOL    HW271454   1.251  13.610  12.749
89853SOL     OW71455   6.136   8.510   3.490
89853SOL    HW171456   6.103   8.435   3.541
89853SOL    HW271457   6.169   8.571   3.556
89854SOL     OW71458   3.520   4.291   1.241
89854SOL    HW171459   3.517   4.325   1.330
89854SOL    HW271460   3.484   4.202   1.248
89855SOL     OW71461   2.745  14.678   4.852
89855SOL    HW171462   2.782  14.637   4.774
89855SOL    HW271463   2.675  14.619   4.879
89856SOL     OW71464   8.414  14.491   4.473
89856SOL    HW171465   8.402  14.430   4.400
89856SOL    HW271466   8.454  14.568   4.433
89857SOL     OW71467   4.184  10.382  14.562
89857SOL    HW171468   4.203  10.310  14.503
89857SOL    HW271469   4.234  10.456  14.527
89858SOL     OW71470   7.066   4.818  14.577
89858SOL    HW171471   6.990   4.779  14.620
89858SOL    HW271472   7.041   4.909  14.560
89859SOL     OW71473   8.932  14.660  12.124
89859SOL    HW171474   8.904  14.609  12.048
89859SOL    HW271475   9.016  14.622  12.149
89860SOL     OW71476   1.768   2.056   8.832
89860SOL    HW171477   1.755   2.114   8.757
89860SOL    HW271478   1.714   2.093   8.901
89861SOL     OW71479   6.583   1.178  11.337
89861SOL    HW171480   6.631   1.109  11.382
89861SOL    HW271481   6.495   1.142  11.323
89862SOL     OW71482   4.579   2.584   0.612
89862SOL    HW171483   4.483   2.586   0.614
89862SOL    HW271484   4.602   2.630   0.531
89863SOL     OW71485   1.654  12.514   9.687
89863SOL    HW171486   1.634  12.424   9.714
89863SOL    HW271487   1.724  12.541   9.747
89864SOL     OW71488   1.204   6.282   7.824
89864SOL    HW171489   1.165   6.369   7.817
89864SOL    HW271490   1.169   6.246   7.905
89865SOL     OW71491  10.706   7.513   7.136
89865SOL    HW171492  10.647   7.493   7.208
89865SOL    HW271493  10.746   7.597   7.160
89866SOL     OW71494   0.464   7.400   7.415
89866SOL    HW171495   0.388   7.368   7.366
89866SOL    HW271496   0.512   7.322   7.439
89867SOL     OW71497   1.198   7.987  12.708
89867SOL    HW171498   1.112   7.949  12.694
89867SOL    HW271499   1.234   7.938  12.782
89868SOL     OW71500   0.485  13.899  11.734
89868SOL    HW171501   0.566  13.885  11.783
89868SOL    HW271502   0.494  13.987  11.698
89869SOL     OW71503   4.090   7.175  14.628
89869SOL    HW171504   4.174   7.199  14.667
89869SOL    HW271505   4.111   7.105  14.566
89870SOL     OW71506  12.196   3.317  14.494
89870SOL    HW171507  12.132   3.363  14.440
89870SOL    HW271508  12.146   3.247  14.536
89871SOL     OW71509  11.824   6.993  10.794
89871SOL    HW171510  11.773   7.036  10.726
89871SOL    HW271511  11.871   7.064  10.838
89872SOL     OW71512   3.866   8.092   7.264
89872SOL    HW171513   3.961   8.100   7.278
89872SOL    HW271514   3.859   8.026   7.194
89873SOL     OW71515   5.029   6.921  12.255
89873SOL    HW171516   4.934   6.923  12.247
89873SOL    HW271517   5.055   7.013  12.255
89874SOL     OW71518  13.624   3.936  11.418
89874SOL    HW171519  13.588   3.847  11.424
89874SOL    HW271520  13.682   3.933  11.342
89875SOL     OW71521   1.136   0.734   0.888
89875SOL    HW171522   1.087   0.659   0.923
89875SOL    HW271523   1.223   0.727   0.929
89876SOL     OW71524   1.488   6.056  12.020
89876SOL    HW171525   1.403   6.044  11.976
89876SOL    HW271526   1.473   6.023  12.109
89877SOL     OW71527   2.713   9.828   6.918
89877SOL    HW171528   2.783   9.808   6.980
89877SOL    HW271529   2.713   9.754   6.857
89878SOL     OW71530   8.064   3.164   7.287
89878SOL    HW171531   8.020   3.205   7.212
89878SOL    HW271532   8.120   3.097   7.248
89879SOL     OW71533   0.629  10.128   6.641
89879SOL    HW171534   0.658  10.084   6.561
89879SOL    HW271535   0.698  10.111   6.705
89880SOL     OW71536   2.377   4.550   0.697
89880SOL    HW171537   2.397   4.554   0.791
89880SOL    HW271538   2.407   4.634   0.663
89881SOL     OW71539   6.856  11.163  10.821
89881SOL    HW171540   6.903  11.181  10.903
89881SOL    HW271541   6.897  11.221  10.757
89882SOL     OW71542   4.668   6.078   0.316
89882SOL    HW171543   4.700   6.147   0.374
89882SOL    HW271544   4.579   6.104   0.294
89883SOL     OW71545   5.885   8.156  12.011
89883SOL    HW171546   5.846   8.069  12.006
89883SOL    HW271547   5.810   8.216  12.010
89884SOL     OW71548  14.207   8.106   3.667
89884SOL    HW171549  14.149   8.155   3.608
89884SOL    HW271550  14.149   8.049   3.717
89885SOL     OW71551   2.647   4.683   8.578
89885SOL    HW171552   2.644   4.692   8.674
89885SOL    HW271553   2.687   4.597   8.563
89886SOL     OW71554   9.546   7.722  14.660
89886SOL    HW171555   9.467   7.669  14.670
89886SOL    HW271556   9.543   7.785  14.732
89887SOL     OW71557   5.876  12.162   9.673
89887SOL    HW171558   5.894  12.204   9.757
89887SOL    HW271559   5.790  12.198   9.647
89888SOL     OW71560  13.230   1.392   0.237
89888SOL    HW171561  13.145   1.384   0.280
89888SOL    HW271562  13.246   1.306   0.198
89889SOL     OW71563   5.635   7.842   2.741
89889SOL    HW171564   5.688   7.902   2.794
89889SOL    HW271565   5.694   7.814   2.671
89890SOL     OW71566  14.800  14.323   5.051
89890SOL    HW171567  14.784  14.250   4.992
89890SOL    HW271568  14.732  14.315   5.118
89891SOL     OW71569   2.744   1.891   8.566
89891SOL    HW171570   2.657   1.931   8.570
89891SOL    HW271571   2.737   1.825   8.497
89892SOL     OW71572   3.129   1.974   0.721
89892SOL    HW171573   3.045   2.006   0.690
89892SOL    HW271574   3.191   1.995   0.651
89893SOL     OW71575   7.809  12.344   6.273
89893SOL    HW171576   7.779  12.268   6.223
89893SOL    HW271577   7.899  12.323   6.298
89894SOL     OW71578   7.716   4.821   4.756
89894SOL    HW171579   7.765   4.895   4.791
89894SOL    HW271580   7.767   4.791   4.681
89895SOL     OW71581   3.495   7.332   7.668
89895SOL    HW171582   3.588   7.311   7.671
89895SOL    HW271583   3.492   7.424   7.642
89896SOL     OW71584   2.772   4.801   6.085
89896SOL    HW171585   2.794   4.708   6.088
89896SOL    HW271586   2.808   4.837   6.166
89897SOL     OW71587   1.180  12.963  11.193
89897SOL    HW171588   1.120  13.013  11.138
89897SOL    HW271589   1.134  12.880  11.208
89898SOL     OW71590   6.299   4.930   4.161
89898SOL    HW171591   6.244   4.932   4.239
89898SOL    HW271592   6.387   4.947   4.193
89899SOL     OW71593   8.038   4.461  12.646
89899SOL    HW171594   8.079   4.534  12.693
89899SOL    HW271595   7.966   4.434  12.702
89900SOL     OW71596   8.599  11.033   6.931
89900SOL    HW171597   8.686  11.002   6.959
89900SOL    HW271598   8.605  11.128   6.936
89901SOL     OW71599  12.865   0.255   0.434
89901SOL    HW171600  12.854   0.351   0.433
89901SOL    HW271601  12.959   0.242   0.429
89902SOL     OW71602  13.778  12.040  14.637
89902SOL    HW171603  13.763  12.082  14.722
89902SOL    HW271604  13.864  12.073  14.609
89903SOL     OW71605  14.458   4.845   6.666
89903SOL    HW171606  14.449   4.918   6.728
89903SOL    HW271607  14.550   4.821   6.670
89904SOL     OW71608   9.784  12.007   8.011
89904SOL    HW171609   9.802  12.092   7.970
89904SOL    HW271610   9.846  11.947   7.970
89905SOL     OW71611  12.581   3.847   6.558
89905SOL    HW171612  12.676   3.837   6.568
89905SOL    HW271613  12.545   3.797   6.631
89906SOL     OW71614  13.293  11.385   6.260
89906SOL    HW171615  13.246  11.467   6.252
89906SOL    HW271616  13.273  11.338   6.178
89907SOL     OW71617   0.605   3.552   8.509
89907SOL    HW171618   0.601   3.617   8.439
89907SOL    HW271619   0.521   3.507   8.505
89908SOL     OW71620   8.324   2.101   8.036
89908SOL    HW171621   8.250   2.146   8.076
89908SOL    HW271622   8.285   2.034   7.980
89909SOL     OW71623   3.870   5.481  10.154
89909SOL    HW171624   3.931   5.408  10.165
89909SOL    HW271625   3.802   5.448  10.096
89910SOL     OW71626   4.025  12.234   2.857
89910SOL    HW171627   4.029  12.210   2.950
89910SOL    HW271628   4.028  12.330   2.858
89911SOL     OW71629   6.605   5.193   8.188
89911SOL    HW171630   6.602   5.288   8.197
89911SOL    HW271631   6.514   5.164   8.201
89912SOL     OW71632  14.121  14.126   7.157
89912SOL    HW171633  14.084  14.122   7.245
89912SOL    HW271634  14.179  14.203   7.160
89913SOL     OW71635   8.262   4.629   2.191
89913SOL    HW171636   8.318   4.551   2.183
89913SOL    HW271637   8.173   4.594   2.199
89914SOL     OW71638   3.386  14.708  10.772
89914SOL    HW171639   3.395  14.696  10.867
89914SOL    HW271640   3.351  14.625  10.741
89915SOL     OW71641   5.925   0.251   0.703
89915SOL    HW171642   5.919   0.318   0.770
89915SOL    HW271643   5.941   0.299   0.622
89916SOL     OW71644   4.164  12.261   6.834
89916SOL    HW171645   4.254  12.238   6.858
89916SOL    HW271646   4.169  12.278   6.739
89917SOL     OW71647   1.673   0.973  12.752
89917SOL    HW171648   1.702   1.043  12.810
89917SOL    HW271649   1.721   0.988  12.671
89918SOL     OW71650   1.709   9.945   3.053
89918SOL    HW171651   1.797   9.976   3.035
89918SOL    HW271652   1.676   9.916   2.968
89919SOL     OW71653   0.725   2.967   1.397
89919SOL    HW171654   0.818   2.985   1.404
89919SOL    HW271655   0.719   2.874   1.375
89920SOL     OW71656  13.119   0.272   7.201
89920SOL    HW171657  13.128   0.365   7.224
89920SOL    HW271658  13.209   0.243   7.186
89921SOL     OW71659   9.090   7.503  13.102
89921SOL    HW171660   9.182   7.511  13.079
89921SOL    HW271661   9.043   7.511  13.019
89922SOL     OW71662   9.077   8.250   2.615
89922SOL    HW171663   8.986   8.222   2.608
89922SOL    HW271664   9.111   8.244   2.526
89923SOL     OW71665  12.242   9.458   9.113
89923SOL    HW171666  12.173   9.522   9.130
89923SOL    HW271667  12.197   9.382   9.076
89924SOL     OW71668   2.858   1.838  13.664
89924SOL    HW171669   2.907   1.816  13.586
89924SOL    HW271670   2.924   1.848  13.733
89925SOL     OW71671   0.682  13.063  12.902
89925SOL    HW171672   0.698  13.094  12.991
89925SOL    HW271673   0.753  13.001  12.885
89926SOL     OW71674  13.891   9.563  14.172
89926SOL    HW171675  13.953   9.572  14.100
89926SOL    HW271676  13.823   9.627  14.153
89927SOL     OW71677  14.742   7.433   7.383
89927SOL    HW171678  14.688   7.370   7.431
89927SOL    HW271679  14.686   7.462   7.311
89928SOL     OW71680   1.765   7.638   3.082
89928SOL    HW171681   1.731   7.727   3.091
89928SOL    HW271682   1.848   7.639   3.130
89929SOL     OW71683   5.381   9.200   1.642
89929SOL    HW171684   5.442   9.260   1.598
89929SOL    HW271685   5.434   9.158   1.709
89930SOL     OW71686   1.017  11.295   2.514
89930SOL    HW171687   1.112  11.303   2.524
89930SOL    HW271688   1.003  11.273   2.422
89931SOL     OW71689  11.034   8.223   1.025
89931SOL    HW171690  11.054   8.182   0.941
89931SOL    HW271691  11.068   8.162   1.090
89932SOL     OW71692   7.918   6.943   9.768
89932SOL    HW171693   7.938   6.901   9.684
89932SOL    HW271694   7.991   7.002   9.783
89933SOL     OW71695  12.096   9.828   0.938
89933SOL    HW171696  12.158   9.759   0.962
89933SOL    HW271697  12.090   9.823   0.843
89934SOL     OW71698  14.650   8.566  10.207
89934SOL    HW171699  14.663   8.474  10.228
89934SOL    HW271700  14.713   8.584  10.137
89935SOL     OW71701  12.333  13.132   2.198
89935SOL    HW171702  12.251  13.165   2.162
89935SOL    HW271703  12.365  13.072   2.131
89936SOL     OW71704  10.413   1.512   7.935
89936SOL    HW171705  10.375   1.427   7.954
89936SOL    HW271706  10.508   1.497   7.935
89937SOL     OW71707  10.099   8.613  10.374
89937SOL    HW171708  10.032   8.635  10.309
89937SOL    HW271709  10.126   8.698  10.410
89938SOL     OW71710   5.687   9.032   3.318
89938SOL    HW171711   5.714   9.095   3.250
89938SOL    HW271712   5.770   8.997   3.351
89939SOL     OW71713   5.133   7.450   4.164
89939SOL    HW171714   5.155   7.404   4.245
89939SOL    HW271715   5.167   7.538   4.177
89940SOL     OW71716   8.293  10.041   9.676
89940SOL    HW171717   8.354   9.978   9.714
89940SOL    HW271718   8.269  10.098   9.749
89941SOL     OW71719  12.162   8.394   8.543
89941SOL    HW171720  12.218   8.377   8.619
89941SOL    HW271721  12.112   8.313   8.531
89942SOL     OW71722   2.712   4.932  14.383
89942SOL    HW171723   2.750   4.999  14.440
89942SOL    HW271724   2.761   4.941  14.301
89943SOL     OW71725  12.307   2.035   2.795
89943SOL    HW171726  12.389   2.058   2.752
89943SOL    HW271727  12.307   2.085   2.876
89944SOL     OW71728  13.379   5.042  14.862
89944SOL    HW171729  13.408   5.130  14.840
89944SOL    HW271730  13.386   4.993  14.780
89945SOL     OW71731  10.974   2.628   4.522
89945SOL    HW171732  10.941   2.608   4.610
89945SOL    HW271733  10.933   2.562   4.466
89946SOL     OW71734   4.106  10.228   6.312
89946SOL    HW171735   4.019  10.253   6.281
89946SOL    HW271736   4.158  10.216   6.232
89947SOL     OW71737   7.391   7.249   1.358
89947SOL    HW171738   7.332   7.195   1.306
89947SOL    HW271739   7.477   7.209   1.347
89948SOL     OW71740   3.628   4.841   8.250
89948SOL    HW171741   3.686   4.811   8.179
89948SOL    HW271742   3.610   4.932   8.228
89949SOL     OW71743   6.392  13.165   4.418
89949SOL    HW171744   6.368  13.189   4.507
89949SOL    HW271745   6.414  13.248   4.375
89950SOL     OW71746  10.453  13.549   3.679
89950SOL    HW171747  10.480  13.472   3.730
89950SOL    HW271748  10.377  13.518   3.629
89951SOL     OW71749   0.674  11.242   6.214
89951SOL    HW171750   0.707  11.272   6.298
89951SOL    HW271751   0.749  11.252   6.154
89952SOL     OW71752   0.894  11.458   7.053
89952SOL    HW171753   0.968  11.418   7.098
89952SOL    HW271754   0.821  11.451   7.115
89953SOL     OW71755   5.357   3.883   5.508
89953SOL    HW171756   5.287   3.821   5.529
89953SOL    HW271757   5.314   3.953   5.461
89954SOL     OW71758   9.794   8.066  14.337
89954SOL    HW171759   9.737   8.028  14.404
89954SOL    HW271760   9.868   8.006  14.332
89955SOL     OW71761  14.069   4.651   1.352
89955SOL    HW171762  14.049   4.558   1.367
89955SOL    HW271763  14.037   4.695   1.431
89956SOL     OW71764   3.838  11.725  14.521
89956SOL    HW171765   3.869  11.801  14.472
89956SOL    HW271766   3.776  11.761  14.585
89957SOL     OW71767  14.488   7.125   2.552
89957SOL    HW171768  14.493   7.201   2.610
89957SOL    HW271769  14.446   7.057   2.605
89958SOL     OW71770   6.865  12.926  11.870
89958SOL    HW171771   6.782  12.957  11.834
89958SOL    HW271772   6.925  12.924  11.796
89959SOL     OW71773  10.069   2.123   6.931
89959SOL    HW171774  10.130   2.053   6.954
89959SOL    HW271775   9.992   2.078   6.897
89960SOL     OW71776   2.698   3.231   9.685
89960SOL    HW171777   2.707   3.142   9.719
89960SOL    HW271778   2.708   3.221   9.590
89961SOL     OW71779   9.484   3.325   1.321
89961SOL    HW171780   9.507   3.395   1.260
89961SOL    HW271781   9.388   3.329   1.326
89962SOL     OW71782  14.461   6.292  10.636
89962SOL    HW171783  14.491   6.383  10.629
89962SOL    HW271784  14.373   6.293  10.598
89963SOL     OW71785   7.264  13.567   4.168
89963SOL    HW171786   7.244  13.661   4.174
89963SOL    HW271787   7.275  13.539   4.258
89964SOL     OW71788  14.683   8.124  12.558
89964SOL    HW171789  14.765   8.174  12.558
89964SOL    HW271790  14.652   8.129  12.649
89965SOL     OW71791   7.311  13.440   9.737
89965SOL    HW171792   7.335  13.481   9.820
89965SOL    HW271793   7.237  13.492   9.705
89966SOL     OW71794   8.489   8.352   0.560
89966SOL    HW171795   8.518   8.342   0.651
89966SOL    HW271796   8.480   8.262   0.527
89967SOL     OW71797  13.298   0.263   6.524
89967SOL    HW171798  13.219   0.245   6.472
89967SOL    HW271799  13.302   0.359   6.527
89968SOL     OW71800  14.805   6.099   1.417
89968SOL    HW171801   0.014   6.145   1.452
89968SOL    HW271802  14.829   6.006   1.421
89969SOL     OW71803   3.584   2.567  10.036
89969SOL    HW171804   3.668   2.521  10.032
89969SOL    HW271805   3.608   2.656  10.064
89970SOL     OW71806   9.477  12.366   6.314
89970SOL    HW171807   9.488  12.271   6.320
89970SOL    HW271808   9.514  12.399   6.396
89971SOL     OW71809   7.093  11.088   6.704
89971SOL    HW171810   7.064  11.143   6.777
89971SOL    HW271811   7.026  11.100   6.637
89972SOL     OW71812   4.523   6.081  10.890
89972SOL    HW171813   4.604   6.030  10.887
89972SOL    HW271814   4.528   6.140  10.816
89973SOL     OW71815  10.782   6.755  12.723
89973SOL    HW171816  10.844   6.823  12.748
89973SOL    HW271817  10.800   6.739  12.631
89974SOL     OW71818  11.878   8.937   5.392
89974SOL    HW171819  11.880   8.924   5.487
89974SOL    HW271820  11.906   8.853   5.355
89975SOL     OW71821  14.341   3.372  13.211
89975SOL    HW171822  14.396   3.428  13.156
89975SOL    HW271823  14.256   3.416  13.213
89976SOL     OW71824   4.055  12.647  13.913
89976SOL    HW171825   4.043  12.739  13.940
89976SOL    HW271826   4.143  12.625  13.943
89977SOL     OW71827   5.612   3.445  12.489
89977SOL    HW171828   5.542   3.506  12.513
89977SOL    HW271829   5.574   3.391  12.420
89978SOL     OW71830   0.398   3.748  12.802
89978SOL    HW171831   0.462   3.810  12.838
89978SOL    HW271832   0.321   3.801  12.783
89979SOL     OW71833   6.416  14.781   2.725
89979SOL    HW171834   6.357  14.855   2.710
89979SOL    HW271835   6.500  14.821   2.745
89980SOL     OW71836   1.434   5.875  13.610
89980SOL    HW171837   1.389   5.960  13.603
89980SOL    HW271838   1.527   5.898  13.607
89981SOL     OW71839   6.755   2.546  12.183
89981SOL    HW171840   6.679   2.503  12.222
89981SOL    HW271841   6.829   2.491  12.209
89982SOL     OW71842   2.636  12.899   7.988
89982SOL    HW171843   2.583  12.858   7.920
89982SOL    HW271844   2.598  12.867   8.070
89983SOL     OW71845   2.417  11.586   8.502
89983SOL    HW171846   2.421  11.497   8.469
89983SOL    HW271847   2.508  11.608   8.525
89984SOL     OW71848   8.559   4.659   1.379
89984SOL    HW171849   8.641   4.695   1.346
89984SOL    HW271850   8.492   4.720   1.348
89985SOL     OW71851  10.031   3.731   1.226
89985SOL    HW171852  10.020   3.681   1.145
89985SOL    HW271853   9.959   3.795   1.224
89986SOL     OW71854   6.938   9.838  10.273
89986SOL    HW171855   6.979   9.876  10.351
89986SOL    HW271856   6.900   9.756  10.303
89987SOL     OW71857   9.913   9.822  12.871
89987SOL    HW171858   9.895   9.731  12.893
89987SOL    HW271859   9.951   9.859  12.951
89988SOL     OW71860   3.093   0.493   7.935
89988SOL    HW171861   3.107   0.587   7.929
89988SOL    HW271862   3.077   0.465   7.845
89989SOL     OW71863  14.452  11.527  11.419
89989SOL    HW171864  14.518  11.538  11.351
89989SOL    HW271865  14.502  11.519  11.501
89990SOL     OW71866   4.588   7.459   4.056
89990SOL    HW171867   4.638   7.486   3.978
89990SOL    HW271868   4.615   7.368   4.071
89991SOL     OW71869   7.290  11.300  10.777
89991SOL    HW171870   7.245  11.307  10.693
89991SOL    HW271871   7.376  11.340  10.761
89992SOL     OW71872  12.656   4.645   2.663
89992SOL    HW171873  12.600   4.631   2.587
89992SOL    HW271874  12.716   4.570   2.663
89993SOL     OW71875   4.040   3.758  11.831
89993SOL    HW171876   4.020   3.766  11.924
89993SOL    HW271877   4.135   3.754  11.827
89994SOL     OW71878  14.075   6.982  11.236
89994SOL    HW171879  14.050   6.899  11.194
89994SOL    HW271880  13.992   7.027  11.252
89995SOL     OW71881  11.576  11.671  13.654
89995SOL    HW171882  11.544  11.596  13.706
89995SOL    HW271883  11.557  11.747  13.708
89996SOL     OW71884   0.171  10.643  14.424
89996SOL    HW171885   0.091  10.676  14.465
89996SOL    HW271886   0.146  10.558  14.387
89997SOL     OW71887   2.266   8.601   6.384
89997SOL    HW171888   2.300   8.520   6.346
89997SOL    HW271889   2.330   8.625   6.450
89998SOL     OW71890   9.869  11.910  12.859
89998SOL    HW171891   9.829  11.979  12.912
89998SOL    HW271892   9.916  11.855  12.923
89999SOL     OW71893  12.034   3.488  10.367
89999SOL    HW171894  11.950   3.491  10.321
89999SOL    HW271895  12.065   3.579  10.368
90000SOL     OW71896  14.592   2.929   3.548
90000SOL    HW171897  14.548   2.962   3.626
90000SOL    HW271898  14.659   2.995   3.529
90001SOL     OW71899   1.214  13.469   8.910
90001SOL    HW171900   1.271  13.446   8.983
90001SOL    HW271901   1.267  13.527   8.855
90002SOL     OW71902  14.276  12.434   8.695
90002SOL    HW171903  14.231  12.413   8.777
90002SOL    HW271904  14.358  12.386   8.699
90003SOL     OW71905  11.692  12.165   7.407
90003SOL    HW171906  11.777  12.126   7.426
90003SOL    HW271907  11.710  12.234   7.345
90004SOL     OW71908   3.212   9.684  14.850
90004SOL    HW171909   3.181   9.631   0.055
90004SOL    HW271910   3.221   9.623  14.777
90005SOL     OW71911   0.641  10.702  10.357
90005SOL    HW171912   0.592  10.761  10.414
90005SOL    HW271913   0.606  10.718  10.269
90006SOL     OW71914  10.207   3.904   8.095
90006SOL    HW171915  10.269   3.940   8.158
90006SOL    HW271916  10.204   3.810   8.115
90007SOL     OW71917   1.060  10.923   1.064
90007SOL    HW171918   1.064  10.833   1.029
90007SOL    HW271919   1.103  10.976   0.997
90008SOL     OW71920  13.907   3.218   9.093
90008SOL    HW171921  13.876   3.151   9.154
90008SOL    HW271922  13.833   3.278   9.084
90009SOL     OW71923   4.701  11.511   1.276
90009SOL    HW171924   4.699  11.597   1.320
90009SOL    HW271925   4.609  11.485   1.271
90010SOL     OW71926   7.532  11.097   3.679
90010SOL    HW171927   7.464  11.114   3.745
90010SOL    HW271928   7.502  11.017   3.634
90011SOL     OW71929   6.272   5.807  12.146
90011SOL    HW171930   6.318   5.750  12.084
90011SOL    HW271931   6.262   5.754  12.225
90012SOL     OW71932   8.547  13.531   1.815
90012SOL    HW171933   8.498  13.608   1.786
90012SOL    HW271934   8.636  13.564   1.831
90013SOL     OW71935  10.997   2.325  10.096
90013SOL    HW171936  11.075   2.376  10.117
90013SOL    HW271937  10.944   2.327  10.176
90014SOL     OW71938   9.876   6.986  13.978
90014SOL    HW171939   9.882   6.920  13.910
90014SOL    HW271940   9.966   6.995  14.011
90015SOL     OW71941   5.397   9.985   7.596
90015SOL    HW171942   5.314  10.025   7.620
90015SOL    HW271943   5.456  10.060   7.581
90016SOL     OW71944  13.889   9.358   5.864
90016SOL    HW171945  13.931   9.277   5.835
90016SOL    HW271946  13.856   9.399   5.784
90017SOL     OW71947   0.366  14.338   4.032
90017SOL    HW171948   0.388  14.339   3.939
90017SOL    HW271949   0.348  14.246   4.051
90018SOL     OW71950   3.696   6.403   3.932
90018SOL    HW171951   3.787   6.372   3.928
90018SOL    HW271952   3.697   6.469   4.001
90019SOL     OW71953   1.691  14.387   7.956
90019SOL    HW171954   1.597  14.375   7.948
90019SOL    HW271955   1.717  14.427   7.873
90020SOL     OW71956   3.626   4.416   4.849
90020SOL    HW171957   3.679   4.494   4.831
90020SOL    HW271958   3.557   4.448   4.907
90021SOL     OW71959  12.939   0.765  12.279
90021SOL    HW171960  13.018   0.754  12.331
90021SOL    HW271961  12.931   0.683  12.230
90022SOL     OW71962   6.699  13.742   7.702
90022SOL    HW171963   6.783  13.728   7.744
90022SOL    HW271964   6.634  13.711   7.765
90023SOL     OW71965   6.592   4.708  13.895
90023SOL    HW171966   6.606   4.783  13.952
90023SOL    HW271967   6.550   4.642  13.950
90024SOL     OW71968   6.432   1.737   7.843
90024SOL    HW171969   6.419   1.696   7.929
90024SOL    HW271970   6.466   1.824   7.863
90025SOL     OW71971  11.373  10.795   8.345
90025SOL    HW171972  11.334  10.732   8.286
90025SOL    HW271973  11.304  10.815   8.408
90026SOL     OW71974   4.052   2.328  14.392
90026SOL    HW171975   4.076   2.421  14.389
90026SOL    HW271976   3.967   2.323  14.349
90027SOL     OW71977  13.285   2.527  12.241
90027SOL    HW171978  13.207   2.478  12.217
90027SOL    HW271979  13.257   2.619  12.241
90028SOL     OW71980  13.571   7.363  12.105
90028SOL    HW171981  13.634   7.301  12.142
90028SOL    HW271982  13.547   7.325  12.020
90029SOL     OW71983  12.249  11.572   1.172
90029SOL    HW171984  12.218  11.481   1.176
90029SOL    HW271985  12.169  11.623   1.160
90030SOL     OW71986   6.121  10.788  12.610
90030SOL    HW171987   6.174  10.850  12.660
90030SOL    HW271988   6.076  10.841  12.544
90031SOL     OW71989   1.230   8.934  12.242
90031SOL    HW171990   1.229   8.910  12.149
90031SOL    HW271991   1.228   8.851  12.289
90032SOL     OW71992   5.385   0.640  10.938
90032SOL    HW171993   5.463   0.595  10.968
90032SOL    HW271994   5.407   0.733  10.942
90033SOL     OW71995   2.711   7.487  13.245
90033SOL    HW171996   2.783   7.502  13.306
90033SOL    HW271997   2.739   7.412  13.193
90034SOL     OW71998  10.185  11.064   4.011
90034SOL    HW171999  10.217  11.108   4.090
90034SOL    HW272000  10.108  11.015   4.041
90035SOL     OW72001   6.522  11.436   0.904
90035SOL    HW172002   6.488  11.524   0.895
90035SOL    HW272003   6.445  11.380   0.913
90036SOL     OW72004  11.348   9.381   8.497
90036SOL    HW172005  11.390   9.354   8.416
90036SOL    HW272006  11.420   9.388   8.560
90037SOL     OW72007   4.458   8.499  11.922
90037SOL    HW172008   4.392   8.504  11.990
90037SOL    HW272009   4.466   8.589  11.889
90038SOL     OW72010  13.645   4.689  14.204
90038SOL    HW172011  13.600   4.754  14.150
90038SOL    HW272012  13.736   4.719  14.207
90039SOL     OW72013   6.634   9.896   5.211
90039SOL    HW172014   6.674   9.812   5.231
90039SOL    HW272015   6.550   9.874   5.170
90040SOL     OW72016  10.384   0.671  12.258
90040SOL    HW172017  10.448   0.704  12.321
90040SOL    HW272018  10.390   0.731  12.183
90041SOL     OW72019   2.157   3.026   3.602
90041SOL    HW172020   2.227   3.084   3.572
90041SOL    HW272021   2.083   3.047   3.546
90042SOL     OW72022   1.478   4.775  10.442
90042SOL    HW172023   1.490   4.728  10.524
90042SOL    HW272024   1.411   4.726  10.395
90043SOL     OW72025   4.292   6.125  14.550
90043SOL    HW172026   4.362   6.144  14.488
90043SOL    HW272027   4.259   6.211  14.576
90044SOL     OW72028   5.704  14.006   3.926
90044SOL    HW172029   5.715  13.918   3.963
90044SOL    HW272030   5.780  14.019   3.871
90045SOL     OW72031  10.996   3.667   3.005
90045SOL    HW172032  11.071   3.698   2.955
90045SOL    HW272033  10.987   3.575   2.981
90046SOL     OW72034  13.267   3.953  13.692
90046SOL    HW172035  13.321   4.032  13.684
90046SOL    HW272036  13.223   3.964  13.776
90047SOL     OW72037  12.921   5.235   9.650
90047SOL    HW172038  12.983   5.307   9.659
90047SOL    HW272039  12.911   5.200   9.738
90048SOL     OW72040  11.757   4.101   6.640
90048SOL    HW172041  11.740   4.183   6.686
90048SOL    HW272042  11.675   4.052   6.648
90049SOL     OW72043  13.264  11.145  13.432
90049SOL    HW172044  13.267  11.117  13.523
90049SOL    HW272045  13.295  11.235  13.433
90050SOL     OW72046   7.231   3.170   3.286
90050SOL    HW172047   7.315   3.184   3.329
90050SOL    HW272048   7.189   3.099   3.336
90051SOL     OW72049  12.924  14.845  13.581
90051SOL    HW172050  12.910  14.762  13.626
90051SOL    HW272051  13.001   0.014  13.624
90052SOL     OW72052  11.261  12.560  12.518
90052SOL    HW172053  11.296  12.591  12.601
90052SOL    HW272054  11.334  12.512  12.478
90053SOL     OW72055   5.718  13.963   6.697
90053SOL    HW172056   5.813  13.954   6.701
90053SOL    HW272057   5.694  13.999   6.783
90054SOL     OW72058   1.515  10.418   5.044
90054SOL    HW172059   1.560  10.424   4.960
90054SOL    HW272060   1.578  10.374   5.102
90055SOL     OW72061   5.666   4.606   6.562
90055SOL    HW172062   5.675   4.665   6.637
90055SOL    HW272063   5.574   4.579   6.563
90056SOL     OW72064  10.216   4.345   3.984
90056SOL    HW172065  10.163   4.423   3.966
90056SOL    HW272066  10.170   4.275   3.937
90057SOL     OW72067   8.694   9.841   3.179
90057SOL    HW172068   8.751   9.765   3.194
90057SOL    HW272069   8.674   9.874   3.267
90058SOL     OW72070   4.495   3.367   6.865
90058SOL    HW172071   4.587   3.379   6.888
90058SOL    HW272072   4.448   3.376   6.948
90059SOL     OW72073   1.501  10.860   4.997
90059SOL    HW172074   1.493  10.914   4.918
90059SOL    HW272075   1.414  10.822   5.009
90060SOL     OW72076   6.890   5.065  14.273
90060SOL    HW172077   6.956   5.042  14.208
90060SOL    HW272078   6.861   5.153  14.248
90061SOL     OW72079   7.278   1.169   6.538
90061SOL    HW172080   7.320   1.111   6.602
90061SOL    HW272081   7.188   1.137   6.531
90062SOL     OW72082   3.032   9.860   9.705
90062SOL    HW172083   2.955   9.832   9.656
90062SOL    HW272084   3.024   9.956   9.708
90063SOL     OW72085   4.504   6.463  14.068
90063SOL    HW172086   4.575   6.430  14.124
90063SOL    HW272087   4.548   6.519  14.004
90064SOL     OW72088   9.651   7.712   9.786
90064SOL    HW172089   9.584   7.761   9.738
90064SOL    HW272090   9.691   7.655   9.719
90065SOL     OW72091   7.431  14.128   2.511
90065SOL    HW172092   7.459  14.097   2.598
90065SOL    HW272093   7.376  14.204   2.529
90066SOL     OW72094  12.229   8.824  12.395
90066SOL    HW172095  12.213   8.761  12.466
90066SOL    HW272096  12.323   8.838  12.396
90067SOL     OW72097  14.744  13.221  10.904
90067SOL    HW172098  14.723  13.145  10.959
90067SOL    HW272099  14.669  13.228  10.844
90068SOL     OW72100   2.969   7.237   1.377
90068SOL    HW172101   2.992   7.245   1.470
90068SOL    HW272102   2.880   7.201   1.378
90069SOL     OW72103  13.321  11.217   8.769
90069SOL    HW172104  13.226  11.224   8.776
90069SOL    HW272105  13.343  11.265   8.689
90070SOL     OW72106   1.789   8.274   6.289
90070SOL    HW172107   1.741   8.245   6.367
90070SOL    HW272108   1.721   8.285   6.222
90071SOL     OW72109   0.449   3.478   3.520
90071SOL    HW172110   0.421   3.398   3.566
90071SOL    HW272111   0.532   3.454   3.480
90072SOL     OW72112  14.542   6.635   9.085
90072SOL    HW172113  14.522   6.674   9.170
90072SOL    HW272114  14.610   6.571   9.103
90073SOL     OW72115   5.834   0.499  12.894
90073SOL    HW172116   5.924   0.512  12.923
90073SOL    HW272117   5.782   0.504  12.974
90074SOL     OW72118   8.011   6.518   3.644
90074SOL    HW172119   8.101   6.541   3.624
90074SOL    HW272120   7.970   6.600   3.670
90075SOL     OW72121   4.014   9.604   7.723
90075SOL    HW172122   3.997   9.569   7.635
90075SOL    HW272123   3.936   9.580   7.774
90076SOL     OW72124   6.790   4.306   5.189
90076SOL    HW172125   6.877   4.317   5.150
90076SOL    HW272126   6.736   4.374   5.148
90077SOL     OW72127   4.287   6.521   4.958
90077SOL    HW172128   4.268   6.558   5.044
90077SOL    HW272129   4.318   6.596   4.906
90078SOL     OW72130  10.645   3.869   4.357
90078SOL    HW172131  10.665   3.794   4.301
90078SOL    HW272132  10.730   3.913   4.369
90079SOL     OW72133   8.835   0.496   1.774
90079SOL    HW172134   8.890   0.424   1.745
90079SOL    HW272135   8.880   0.532   1.850
90080SOL     OW72136   0.579   5.477  13.739
90080SOL    HW172137   0.539   5.476  13.652
90080SOL    HW272138   0.507   5.494  13.799
90081SOL     OW72139   2.168  11.969  13.868
90081SOL    HW172140   2.250  11.920  13.862
90081SOL    HW272141   2.194  12.056  13.896
90082SOL     OW72142  13.243  10.668   6.473
90082SOL    HW172143  13.272  10.712   6.393
90082SOL    HW272144  13.319  10.614   6.499
90083SOL     OW72145   2.820  11.081  11.026
90083SOL    HW172146   2.725  11.077  11.015
90083SOL    HW272147   2.844  10.996  11.062
90084SOL     OW72148  12.233  13.203   9.281
90084SOL    HW172149  12.307  13.196   9.343
90084SOL    HW272150  12.242  13.290   9.244
90085SOL     OW72151   1.008   7.749  11.121
90085SOL    HW172152   1.013   7.716  11.211
90085SOL    HW272153   1.036   7.676  11.066
90086SOL     OW72154   8.739   8.176   2.458
90086SOL    HW172155   8.774   8.087   2.462
90086SOL    HW272156   8.717   8.197   2.548
90087SOL     OW72157   3.725   6.509  13.808
90087SOL    HW172158   3.782   6.530  13.882
90087SOL    HW272159   3.701   6.417  13.821
90088SOL     OW72160  12.708   7.463   6.742
90088SOL    HW172161  12.681   7.397   6.678
90088SOL    HW272162  12.699   7.546   6.696
90089SOL     OW72163   6.020   5.330   1.426
90089SOL    HW172164   6.097   5.366   1.382
90089SOL    HW272165   5.947   5.382   1.393
90090SOL     OW72166   2.414   2.098   7.888
90090SOL    HW172167   2.482   2.103   7.955
90090SOL    HW272168   2.364   2.019   7.909
90091SOL     OW72169  13.248   3.341  13.034
90091SOL    HW172170  13.341   3.327  13.016
90091SOL    HW272171  13.213   3.380  12.954
90092SOL     OW72172   3.301   6.104   5.914
90092SOL    HW172173   3.227   6.127   5.970
90092SOL    HW272174   3.265   6.042   5.851
90093SOL     OW72175  11.127   0.077   9.000
90093SOL    HW172176  11.035   0.081   9.028
90093SOL    HW272177  11.154  14.856   9.020
90094SOL     OW72178   6.066  11.548  10.148
90094SOL    HW172179   5.994  11.502  10.105
90094SOL    HW272180   6.140  11.488  10.140
90095SOL     OW72181   8.202  13.097  13.003
90095SOL    HW172182   8.261  13.169  13.025
90095SOL    HW272183   8.197  13.045  13.083
90096SOL     OW72184  11.845  10.201  13.162
90096SOL    HW172185  11.901  10.276  13.139
90096SOL    HW272186  11.794  10.184  13.083
90097SOL     OW72187   8.859   8.521  12.858
90097SOL    HW172188   8.823   8.479  12.780
90097SOL    HW272189   8.945   8.482  12.871
90098SOL     OW72190  11.651  13.317   0.034
90098SOL    HW172191  11.667  13.294  14.810
90098SOL    HW272192  11.694  13.247   0.084
90099SOL     OW72193   5.798   8.730   9.690
90099SOL    HW172194   5.867   8.687   9.639
90099SOL    HW272195   5.737   8.660   9.712
90100SOL     OW72196   2.699  14.083  10.224
90100SOL    HW172197   2.727  14.064  10.314
90100SOL    HW272198   2.603  14.081  10.228
90101SOL     OW72199  11.926  13.621  13.216
90101SOL    HW172200  11.929  13.687  13.147
90101SOL    HW272201  11.841  13.579  13.205
90102SOL     OW72202   1.294   5.050   8.062
90102SOL    HW172203   1.295   5.004   7.978
90102SOL    HW272204   1.275   5.141   8.039
90103SOL     OW72205  11.121   2.282  11.109
90103SOL    HW172206  11.070   2.350  11.067
90103SOL    HW272207  11.202   2.325  11.137
90104SOL     OW72208  10.155  11.691   6.458
90104SOL    HW172209  10.168  11.670   6.550
90104SOL    HW272210  10.100  11.620   6.424
90105SOL     OW72211   0.531   6.359   4.211
90105SOL    HW172212   0.617   6.367   4.254
90105SOL    HW272213   0.468   6.363   4.283
90106SOL     OW72214   3.130   5.365   4.246
90106SOL    HW172215   3.062   5.403   4.302
90106SOL    HW272216   3.083   5.333   4.170
90107SOL     OW72217   4.571  14.795   1.288
90107SOL    HW172218   4.561  14.704   1.260
90107SOL    HW272219   4.658  14.820   1.259
90108SOL     OW72220   7.278  11.270   4.452
90108SOL    HW172221   7.237  11.317   4.378
90108SOL    HW272222   7.338  11.208   4.411
90109SOL     OW72223  11.823  12.539   7.864
90109SOL    HW172224  11.888  12.519   7.931
90109SOL    HW272225  11.838  12.631   7.842
90110SOL     OW72226   8.191  14.097   7.490
90110SOL    HW172227   8.203  14.006   7.460
90110SOL    HW272228   8.111  14.126   7.446
90111SOL     OW72229   5.689   6.846  11.036
90111SOL    HW172230   5.739   6.798  10.970
90111SOL    HW272231   5.706   6.938  11.017
90112SOL     OW72232   4.576  10.389   6.644
90112SOL    HW172233   4.562  10.300   6.611
90112SOL    HW272234   4.580  10.443   6.565
90113SOL     OW72235   8.368   5.021  13.583
90113SOL    HW172236   8.286   5.069  13.575
90113SOL    HW272237   8.365   4.957  13.512
90114SOL     OW72238   3.339   3.622  10.861
90114SOL    HW172239   3.334   3.716  10.876
90114SOL    HW272240   3.352   3.613  10.767
90115SOL     OW72241   1.450   3.522   9.960
90115SOL    HW172242   1.540   3.503   9.933
90115SOL    HW272243   1.460   3.563  10.046
90116SOL     OW72244   9.193  10.976   0.171
90116SOL    HW172245   9.196  11.004   0.263
90116SOL    HW272246   9.101  10.985   0.146
90117SOL     OW72247  13.186   3.921  11.110
90117SOL    HW172248  13.246   3.992  11.086
90117SOL    HW272249  13.134   3.905  11.031
90118SOL     OW72250   0.131  14.575   4.708
90118SOL    HW172251   0.195  14.536   4.768
90118SOL    HW272252   0.085  14.641   4.761
90119SOL     OW72253   8.790  10.681   7.326
90119SOL    HW172254   8.738  10.695   7.405
90119SOL    HW272255   8.809  10.587   7.327
90120SOL     OW72256   1.184   9.692   0.445
90120SOL    HW172257   1.240   9.643   0.505
90120SOL    HW272258   1.239   9.707   0.367
90121SOL     OW72259   8.547  14.534  14.809
90121SOL    HW172260   8.547  14.479   0.020
90121SOL    HW272261   8.610  14.492  14.751
90122SOL     OW72262  10.779   3.905   0.482
90122SOL    HW172263  10.807   3.986   0.525
90122SOL    HW272264  10.747   3.934   0.396
90123SOL     OW72265  12.069  13.961   5.410
90123SOL    HW172266  12.015  14.013   5.469
90123SOL    HW272267  12.101  13.889   5.465
90124SOL     OW72268  12.346  10.056   1.177
90124SOL    HW172269  12.295   9.992   1.227
90124SOL    HW272270  12.294  10.072   1.099
90125SOL     OW72271   1.613  11.889   0.682
90125SOL    HW172272   1.634  11.942   0.606
90125SOL    HW272273   1.538  11.836   0.654
90126SOL     OW72274  10.667  10.089   7.449
90126SOL    HW172275  10.630  10.175   7.429
90126SOL    HW272276  10.760  10.105   7.462
90127SOL     OW72277   6.355   1.005   4.433
90127SOL    HW172278   6.339   1.004   4.528
90127SOL    HW272279   6.370   1.097   4.412
90128SOL     OW72280  10.138   0.789   6.623
90128SOL    HW172281  10.159   0.858   6.686
90128SOL    HW272282  10.222   0.746   6.606
90129SOL     OW72283   6.497  12.174   4.148
90129SOL    HW172284   6.406  12.165   4.117
90129SOL    HW272285   6.493  12.147   4.240
90130SOL     OW72286   1.606   5.208   3.189
90130SOL    HW172287   1.609   5.251   3.275
90130SOL    HW272288   1.521   5.233   3.153
90131SOL     OW72289   2.981  12.077   2.553
90131SOL    HW172290   2.899  12.070   2.601
90131SOL    HW272291   2.990  11.992   2.508
90132SOL     OW72292  11.964   2.258   3.482
90132SOL    HW172293  11.921   2.177   3.455
90132SOL    HW272294  11.978   2.249   3.576
90133SOL     OW72295   9.077   2.490   8.657
90133SOL    HW172296   9.087   2.400   8.686
90133SOL    HW272297   9.146   2.538   8.703
90134SOL     OW72298   2.858   4.631   7.090
90134SOL    HW172299   2.876   4.688   7.165
90134SOL    HW272300   2.833   4.692   7.020
90135SOL     OW72301   2.533   9.502   5.506
90135SOL    HW172302   2.618   9.474   5.541
90135SOL    HW272303   2.536   9.477   5.413
90136SOL     OW72304   5.362  13.332   3.133
90136SOL    HW172305   5.393  13.304   3.219
90136SOL    HW272306   5.339  13.251   3.088
90137SOL     OW72307   6.286   8.837   6.517
90137SOL    HW172308   6.268   8.864   6.607
90137SOL    HW272309   6.213   8.870   6.466
90138SOL     OW72310  12.909  12.121   8.671
90138SOL    HW172311  12.919  12.038   8.626
90138SOL    HW272312  12.839  12.166   8.623
90139SOL     OW72313  11.110   7.655   2.089
90139SOL    HW172314  11.048   7.719   2.056
90139SOL    HW272315  11.195   7.699   2.081
90140SOL     OW72316   2.912  12.802   0.092
90140SOL    HW172317   2.986  12.862   0.103
90140SOL    HW272318   2.835  12.857   0.105
90141SOL     OW72319  14.121   5.633   3.253
90141SOL    HW172320  14.025   5.640   3.253
90141SOL    HW272321  14.142   5.594   3.338
90142SOL     OW72322   7.994  12.128   7.422
90142SOL    HW172323   7.916  12.175   7.450
90142SOL    HW272324   7.977  12.037   7.445
90143SOL     OW72325   4.513   5.033  13.814
90143SOL    HW172326   4.452   4.987  13.756
90143SOL    HW272327   4.517   5.122  13.779
90144SOL     OW72328   1.920  12.122   6.388
90144SOL    HW172329   1.846  12.062   6.389
90144SOL    HW272330   1.893  12.195   6.443
90145SOL     OW72331   0.036   6.870   5.567
90145SOL    HW172332   0.066   6.887   5.656
90145SOL    HW272333  14.847   6.944   5.547
90146SOL     OW72334  12.389   1.489   1.359
90146SOL    HW172335  12.371   1.552   1.290
90146SOL    HW272336  12.320   1.503   1.424
90147SOL     OW72337   0.476  10.041   1.629
90147SOL    HW172338   0.500  10.121   1.675
90147SOL    HW272339   0.414   9.998   1.687
90148SOL     OW72340   3.211   1.619   9.046
90148SOL    HW172341   3.216   1.713   9.063
90148SOL    HW272342   3.118   1.598   9.059
90149SOL     OW72343  14.000  11.963   4.822
90149SOL    HW172344  14.075  11.903   4.831
90149SOL    HW272345  13.991  11.975   4.727
90150SOL     OW72346   8.692   3.719   6.345
90150SOL    HW172347   8.750   3.643   6.345
90150SOL    HW272348   8.652   3.719   6.258
90151SOL     OW72349   7.106  14.443   6.988
90151SOL    HW172350   7.035  14.383   6.966
90151SOL    HW272351   7.093  14.461   7.081
90152SOL     OW72352  11.621   0.198   2.381
90152SOL    HW172353  11.649   0.229   2.467
90152SOL    HW272354  11.702   0.191   2.330
90153SOL     OW72355   1.124   0.482   8.509
90153SOL    HW172356   1.165   0.456   8.426
90153SOL    HW272357   1.172   0.433   8.576
90154SOL     OW72358  13.685   9.000   8.659
90154SOL    HW172359  13.614   8.941   8.633
90154SOL    HW272360  13.715   8.965   8.743
90155SOL     OW72361  12.199   9.416   7.762
90155SOL    HW172362  12.133   9.462   7.710
90155SOL    HW272363  12.168   9.423   7.852
90156SOL     OW72364   2.760  11.707  13.891
90156SOL    HW172365   2.814  11.633  13.917
90156SOL    HW272366   2.821  11.769  13.851
90157SOL     OW72367   0.911  11.506   1.865
90157SOL    HW172368   0.855  11.443   1.910
90157SOL    HW272369   0.954  11.456   1.796
90158SOL     OW72370   4.496   2.905   4.267
90158SOL    HW172371   4.566   2.934   4.325
90158SOL    HW272372   4.443   2.846   4.321
90159SOL     OW72373   9.301   3.523   6.852
90159SOL    HW172374   9.324   3.478   6.933
90159SOL    HW272375   9.215   3.562   6.870
90160SOL     OW72376   1.020   0.721   3.874
90160SOL    HW172377   1.084   0.678   3.931
90160SOL    HW272378   0.991   0.798   3.924
90161SOL     OW72379   9.923   1.803  12.764
90161SOL    HW172380   9.864   1.831  12.694
90161SOL    HW272381   9.885   1.839  12.844
90162SOL     OW72382   1.761   9.576  12.868
90162SOL    HW172383   1.812   9.642  12.914
90162SOL    HW272384   1.796   9.493  12.899
90163SOL     OW72385   7.575  10.344  14.171
90163SOL    HW172386   7.652  10.379  14.126
90163SOL    HW272387   7.602  10.335  14.262
90164SOL     OW72388   8.258   5.563  11.723
90164SOL    HW172389   8.210   5.643  11.742
90164SOL    HW272390   8.345   5.578  11.760
90165SOL     OW72391   8.739   3.383   7.870
90165SOL    HW172392   8.676   3.319   7.904
90165SOL    HW272393   8.759   3.439   7.945
90166SOL     OW72394  14.410  11.655   0.118
90166SOL    HW172395  14.405  11.591   0.190
90166SOL    HW272396  14.385  11.738   0.159
90167SOL     OW72397   1.728  11.094  13.846
90167SOL    HW172398   1.822  11.110  13.846
90167SOL    HW272399   1.718  11.010  13.801
90168SOL     OW72400  14.607   0.847   8.887
90168SOL    HW172401  14.590   0.779   8.823
90168SOL    HW272402  14.661   0.911   8.840
90169SOL     OW72403   3.337   8.821  12.052
90169SOL    HW172404   3.283   8.743  12.065
90169SOL    HW272405   3.298   8.866  11.977
90170SOL     OW72406   6.319  13.641  13.528
90170SOL    HW172407   6.283  13.647  13.440
90170SOL    HW272408   6.308  13.729  13.564
90171SOL     OW72409   9.892   1.463   9.359
90171SOL    HW172410   9.848   1.411   9.426
90171SOL    HW272411   9.883   1.413   9.278
90172SOL     OW72412   9.421   9.016   4.388
90172SOL    HW172413   9.505   9.002   4.430
90172SOL    HW272414   9.359   8.962   4.438
90173SOL     OW72415   1.886   6.967   7.181
90173SOL    HW172416   1.893   6.962   7.086
90173SOL    HW272417   1.960   6.917   7.214
90174SOL     OW72418  12.120  12.048  10.677
90174SOL    HW172419  12.127  12.141  10.659
90174SOL    HW272420  12.211  12.016  10.673
90175SOL     OW72421   5.373   4.380   7.553
90175SOL    HW172422   5.444   4.367   7.490
90175SOL    HW272423   5.314   4.306   7.537
90176SOL     OW72424   3.188  13.790   3.874
90176SOL    HW172425   3.257  13.773   3.937
90176SOL    HW272426   3.116  13.827   3.925
90177SOL     OW72427   4.860   5.562   9.906
90177SOL    HW172428   4.919   5.536   9.836
90177SOL    HW272429   4.917   5.581   9.980
90178SOL     OW72430   9.540   5.324   7.869
90178SOL    HW172431   9.469   5.260   7.871
90178SOL    HW272432   9.560   5.340   7.961
90179SOL     OW72433  10.722   7.718   0.723
90179SOL    HW172434  10.681   7.643   0.679
90179SOL    HW272435  10.664   7.792   0.704
90180SOL     OW72436   4.026  14.414  14.640
90180SOL    HW172437   4.107  14.416  14.589
90180SOL    HW272438   4.033  14.488  14.700
90181SOL     OW72439   9.763   4.569   2.905
90181SOL    HW172440   9.858   4.559   2.912
90181SOL    HW272441   9.751   4.655   2.864
90182SOL     OW72442   5.437  13.272   1.567
90182SOL    HW172443   5.424  13.366   1.556
90182SOL    HW272444   5.514  13.253   1.514
90183SOL     OW72445  10.226   9.229   8.229
90183SOL    HW172446  10.235   9.185   8.314
90183SOL    HW272447  10.213   9.158   8.166
90184SOL     OW72448   2.830   9.680  12.886
90184SOL    HW172449   2.888   9.751  12.913
90184SOL    HW272450   2.821   9.625  12.964
90185SOL     OW72451  11.815   3.120  10.395
90185SOL    HW172452  11.862   3.039  10.419
90185SOL    HW272453  11.725   3.092  10.381
90186SOL     OW72454   4.862  10.156  11.671
90186SOL    HW172455   4.793  10.200  11.720
90186SOL    HW272456   4.848  10.183  11.580
90187SOL     OW72457  14.040   0.365  14.851
90187SOL    HW172458  14.096   0.291   0.005
90187SOL    HW272459  14.101   0.438  14.838
90188SOL     OW72460   2.489   3.329  11.973
90188SOL    HW172461   2.578   3.358  11.996
90188SOL    HW272462   2.459   3.393  11.909
90189SOL     OW72463  14.132   1.117  14.115
90189SOL    HW172464  14.091   1.095  14.198
90189SOL    HW272465  14.106   1.208  14.098
90190SOL     OW72466  10.438   8.833   2.131
90190SOL    HW172467  10.412   8.896   2.064
90190SOL    HW272468  10.462   8.887   2.206
90191SOL     OW72469   3.534   9.924  13.877
90191SOL    HW172470   3.612   9.910  13.931
90191SOL    HW272471   3.460   9.904  13.934
90192SOL     OW72472   8.102   5.339  12.888
90192SOL    HW172473   8.016   5.333  12.930
90192SOL    HW272474   8.157   5.384  12.952
90193SOL     OW72475  14.802   7.481   3.437
90193SOL    HW172476  14.804   7.386   3.446
90193SOL    HW272477  14.846   7.498   3.354
90194SOL     OW72478   5.518   2.166   0.652
90194SOL    HW172479   5.598   2.130   0.615
90194SOL    HW272480   5.520   2.259   0.630
90195SOL     OW72481   5.556  13.264   0.033
90195SOL    HW172482   5.605  13.245   0.114
90195SOL    HW272483   5.623  13.279  14.835
90196SOL     OW72484   9.641   7.170  14.367
90196SOL    HW172485   9.668   7.254  14.329
90196SOL    HW272486   9.654   7.181  14.461
90197SOL     OW72487   2.519  10.424   4.258
90197SOL    HW172488   2.612  10.438   4.275
90197SOL    HW272489   2.512  10.329   4.246
90198SOL     OW72490   4.938  11.425   7.813
90198SOL    HW172491   4.957  11.335   7.785
90198SOL    HW272492   4.937  11.475   7.731
90199SOL     OW72493   3.982   5.433  13.448
90199SOL    HW172494   3.968   5.340  13.462
90199SOL    HW272495   3.897   5.473  13.468
90200SOL     OW72496  11.807   1.123   4.648
90200SOL    HW172497  11.886   1.121   4.594
90200SOL    HW272498  11.838   1.101   4.736
90201SOL     OW72499   9.698  10.863  11.378
90201SOL    HW172500   9.663  10.808  11.447
90201SOL    HW272501   9.733  10.802  11.313
90202SOL     OW72502  12.076   6.487   1.293
90202SOL    HW172503  12.138   6.483   1.365
90202SOL    HW272504  12.101   6.566   1.244
90203SOL     OW72505   0.277   9.159  14.437
90203SOL    HW172506   0.362   9.184  14.400
90203SOL    HW272507   0.260   9.072  14.401
90204SOL     OW72508   7.698  10.861   5.154
90204SOL    HW172509   7.610  10.856   5.117
90204SOL    HW272510   7.736  10.775   5.137
90205SOL     OW72511   5.553  14.242   3.614
90205SOL    HW172512   5.560  14.148   3.601
90205SOL    HW272513   5.503  14.273   3.538
90206SOL     OW72514  13.283   9.019   4.936
90206SOL    HW172515  13.252   8.931   4.915
90206SOL    HW272516  13.236   9.076   4.875
90207SOL     OW72517   4.418   8.333   9.292
90207SOL    HW172518   4.386   8.246   9.320
90207SOL    HW272519   4.371   8.350   9.210
90208SOL     OW72520   2.773  11.448  10.496
90208SOL    HW172521   2.679  11.457  10.512
90208SOL    HW272522   2.787  11.491  10.412
90209SOL     OW72523   0.422   7.530  11.160
90209SOL    HW172524   0.476   7.606  11.140
90209SOL    HW272525   0.394   7.544  11.251
90210SOL     OW72526  12.721  11.397  10.119
90210SOL    HW172527  12.689  11.343  10.047
90210SOL    HW272528  12.763  11.335  10.179
90211SOL     OW72529  13.262   9.803  10.272
90211SOL    HW172530  13.209   9.845  10.204
90211SOL    HW272531  13.316   9.874  10.308
90212SOL     OW72532   2.076   2.537   5.212
90212SOL    HW172533   2.037   2.481   5.145
90212SOL    HW272534   2.150   2.578   5.169
90213SOL     OW72535   1.847   6.672   2.031
90213SOL    HW172536   1.901   6.737   2.076
90213SOL    HW272537   1.772   6.659   2.088
90214SOL     OW72538   4.607  10.096   2.454
90214SOL    HW172539   4.688  10.147   2.445
90214SOL    HW272540   4.610  10.062   2.544
90215SOL     OW72541   1.489   4.227   5.985
90215SOL    HW172542   1.530   4.152   6.029
90215SOL    HW272543   1.503   4.300   6.045
90216SOL     OW72544   7.482   5.495   6.833
90216SOL    HW172545   7.424   5.448   6.773
90216SOL    HW272546   7.507   5.574   6.786
90217SOL     OW72547  13.791   4.137   6.105
90217SOL    HW172548  13.708   4.091   6.119
90217SOL    HW272549  13.783   4.216   6.159
90218SOL     OW72550  12.072   2.450   4.276
90218SOL    HW172551  12.060   2.514   4.206
90218SOL    HW272552  12.005   2.383   4.259
90219SOL     OW72553  12.208   9.303   7.516
90219SOL    HW172554  12.216   9.341   7.603
90219SOL    HW272555  12.117   9.276   7.509
90220SOL     OW72556   5.078   8.923   9.279
90220SOL    HW172557   5.072   8.993   9.214
90220SOL    HW272558   5.164   8.935   9.319
90221SOL     OW72559  13.274   1.752   7.767
90221SOL    HW172560  13.261   1.730   7.674
90221SOL    HW272561  13.197   1.802   7.791
90222SOL     OW72562   7.835   3.288  13.922
90222SOL    HW172563   7.739   3.284  13.921
90222SOL    HW272564   7.856   3.363  13.867
90223SOL     OW72565   6.962   5.828  10.632
90223SOL    HW172566   7.019   5.782  10.694
90223SOL    HW272567   6.873   5.803  10.658
90224SOL     OW72568  14.784  14.680   8.021
90224SOL    HW172569  14.715  14.744   8.007
90224SOL    HW272570  14.860  14.731   8.049
90225SOL     OW72571   8.354   9.960   2.258
90225SOL    HW172572   8.313  10.004   2.333
90225SOL    HW272573   8.280   9.936   2.202
90226SOL     OW72574   1.162  12.255   0.670
90226SOL    HW172575   1.166  12.264   0.575
90226SOL    HW272576   1.073  12.226   0.688
90227SOL     OW72577   0.226   6.248  13.634
90227SOL    HW172578   0.318   6.228  13.617
90227SOL    HW272579   0.213   6.224  13.726
90228SOL     OW72580  14.238  14.172   5.673
90228SOL    HW172581  14.244  14.241   5.607
90228SOL    HW272582  14.192  14.213   5.746
90229SOL     OW72583   7.593  10.372   5.405
90229SOL    HW172584   7.528  10.396   5.471
90229SOL    HW272585   7.617  10.282   5.426
90230SOL     OW72586  13.381   2.108   0.043
90230SOL    HW172587  13.340   2.049  14.847
90230SOL    HW272588  13.416   2.050   0.110
90231SOL     OW72589   5.722  11.592   0.455
90231SOL    HW172590   5.806  11.578   0.410
90231SOL    HW272591   5.660  11.537   0.406
90232SOL     OW72592  14.417  10.374   1.178
90232SOL    HW172593  14.364  10.370   1.258
90232SOL    HW272594  14.487  10.310   1.193
90233SOL     OW72595   0.584   0.759   7.424
90233SOL    HW172596   0.653   0.699   7.395
90233SOL    HW272597   0.583   0.828   7.357
90234SOL     OW72598  13.584  10.689   7.976
90234SOL    HW172599  13.581  10.650   7.888
90234SOL    HW272600  13.619  10.777   7.963
90235SOL     OW72601  13.319   2.655   6.254
90235SOL    HW172602  13.326   2.719   6.184
90235SOL    HW272603  13.409   2.639   6.282
90236SOL     OW72604   0.439   5.774  13.850
90236SOL    HW172605   0.499   5.791  13.778
90236SOL    HW272606   0.356   5.815  13.822
90237SOL     OW72607   3.771   4.988   8.411
90237SOL    HW172608   3.722   4.926   8.356
90237SOL    HW272609   3.861   4.979   8.381
90238SOL     OW72610   6.854   3.536   3.996
90238SOL    HW172611   6.894   3.615   4.033
90238SOL    HW272612   6.843   3.557   3.903
90239SOL     OW72613  10.544   1.832   5.089
90239SOL    HW172614  10.521   1.755   5.037
90239SOL    HW272615  10.610   1.800   5.151
90240SOL     OW72616  13.537  11.341   3.568
90240SOL    HW172617  13.474  11.277   3.602
90240SOL    HW272618  13.604  11.288   3.525
90241SOL     OW72619  11.467   0.680   0.998
90241SOL    HW172620  11.435   0.736   1.068
90241SOL    HW272621  11.392   0.670   0.939
90242SOL     OW72622  10.267  14.451   4.812
90242SOL    HW172623  10.216  14.406   4.744
90242SOL    HW272624  10.222  14.534   4.825
90243SOL     OW72625   6.893   0.973   3.669
90243SOL    HW172626   6.941   1.055   3.669
90243SOL    HW272627   6.920   0.928   3.749
90244SOL     OW72628   2.267   6.357   8.862
90244SOL    HW172629   2.333   6.386   8.925
90244SOL    HW272630   2.273   6.421   8.791
90245SOL     OW72631  14.749   3.044   2.300
90245SOL    HW172632  14.826   3.082   2.342
90245SOL    HW272633  14.697   3.010   2.373
90246SOL     OW72634   6.085  11.472   6.454
90246SOL    HW172635   6.003  11.424   6.439
90246SOL    HW272636   6.098  11.523   6.374
90247SOL     OW72637  14.004  13.729   7.179
90247SOL    HW172638  13.961  13.672   7.243
90247SOL    HW272639  14.091  13.746   7.216
90248SOL     OW72640   9.902  14.174   7.360
90248SOL    HW172641   9.889  14.094   7.411
90248SOL    HW272642   9.887  14.147   7.269
90249SOL     OW72643   9.697  11.704   8.116
90249SOL    HW172644   9.773  11.734   8.067
90249SOL    HW272645   9.629  11.690   8.050
90250SOL     OW72646  12.404   2.362   6.177
90250SOL    HW172647  12.327   2.305   6.171
90250SOL    HW272648  12.433   2.353   6.267
90251SOL     OW72649  11.732   0.322   9.290
90251SOL    HW172650  11.807   0.366   9.251
90251SOL    HW272651  11.770   0.255   9.347
90252SOL     OW72652   3.980  10.954   9.152
90252SOL    HW172653   3.885  10.939   9.147
90252SOL    HW272654   3.988  11.046   9.175
90253SOL     OW72655   1.187   2.263   1.870
90253SOL    HW172656   1.217   2.289   1.783
90253SOL    HW272657   1.167   2.170   1.861
90254SOL     OW72658   5.876  12.062   4.925
90254SOL    HW172659   5.952  12.062   4.984
90254SOL    HW272660   5.805  12.028   4.979
90255SOL     OW72661   1.150   2.253  10.494
90255SOL    HW172662   1.061   2.286  10.504
90255SOL    HW272663   1.198   2.323  10.450
90256SOL     OW72664   0.357   0.880   9.572
90256SOL    HW172665   0.283   0.910   9.625
90256SOL    HW272666   0.379   0.794   9.609
90257SOL     OW72667   0.128   9.145   8.904
90257SOL    HW172668   0.075   9.218   8.872
90257SOL    HW272669   0.071   9.100   8.967
90258SOL     OW72670   6.995   6.328   6.481
90258SOL    HW172671   6.945   6.372   6.412
90258SOL    HW272672   6.935   6.263   6.517
90259SOL     OW72673  14.771   1.630  12.547
90259SOL    HW172674  14.818   1.713  12.545
90259SOL    HW272675  14.749   1.613  12.455
90260SOL     OW72676   6.424   0.345  12.845
90260SOL    HW172677   6.515   0.354  12.817
90260SOL    HW272678   6.403   0.252  12.831
90261SOL     OW72679  12.787   1.298  11.912
90261SOL    HW172680  12.852   1.261  11.852
90261SOL    HW272681  12.810   1.390  11.918
90262SOL     OW72682  11.894  12.895   6.462
90262SOL    HW172683  11.963  12.832   6.486
90262SOL    HW272684  11.937  12.957   6.404
90263SOL     OW72685   3.350   3.293  10.538
90263SOL    HW172686   3.412   3.338  10.481
90263SOL    HW272687   3.373   3.323  10.626
90264SOL     OW72688   7.811   4.757   0.300
90264SOL    HW172689   7.751   4.826   0.271
90264SOL    HW272690   7.766   4.716   0.374
90265SOL     OW72691   6.825   2.405   8.421
90265SOL    HW172692   6.774   2.325   8.434
90265SOL    HW272693   6.880   2.411   8.499
90266SOL     OW72694   4.747  13.888   6.287
90266SOL    HW172695   4.800  13.810   6.275
90266SOL    HW272696   4.756  13.937   6.205
90267SOL     OW72697   2.159   1.580   2.835
90267SOL    HW172698   2.151   1.489   2.809
90267SOL    HW272699   2.078   1.621   2.803
90268SOL     OW72700  11.803  13.785  14.525
90268SOL    HW172701  11.817  13.715  14.588
90268SOL    HW272702  11.801  13.740  14.440
90269SOL     OW72703   1.622   0.697   8.550
90269SOL    HW172704   1.624   0.792   8.564
90269SOL    HW272705   1.705   0.678   8.507
90270SOL     OW72706  12.482   8.721   4.489
90270SOL    HW172707  12.528   8.804   4.495
90270SOL    HW272708  12.395   8.739   4.525
90271SOL     OW72709   1.378  11.045   1.233
90271SOL    HW172710   1.435  11.020   1.161
90271SOL    HW272711   1.368  11.140   1.224
90272SOL     OW72712   7.200  13.175   6.325
90272SOL    HW172713   7.185  13.101   6.383
90272SOL    HW272714   7.295  13.185   6.322
90273SOL     OW72715   6.599   3.190  13.614
90273SOL    HW172716   6.692   3.167  13.610
90273SOL    HW272717   6.598   3.286  13.620
90274SOL     OW72718   2.195  12.449  10.397
90274SOL    HW172719   2.263  12.509  10.426
90274SOL    HW272720   2.232  12.406  10.320
90275SOL     OW72721  14.509   9.526   3.814
90275SOL    HW172722  14.492   9.434   3.793
90275SOL    HW272723  14.516   9.569   3.729
90276SOL     OW72724   2.993  13.079  12.576
90276SOL    HW172725   3.072  13.066  12.628
90276SOL    HW272726   2.931  13.013  12.609
90277SOL     OW72727   5.544   9.176  10.553
90277SOL    HW172728   5.515   9.162  10.463
90277SOL    HW272729   5.604   9.250  10.548
90278SOL     OW72730   5.637  10.668   3.384
90278SOL    HW172731   5.631  10.759   3.354
90278SOL    HW272732   5.693  10.625   3.320
90279SOL     OW72733   9.833   0.977   1.313
90279SOL    HW172734   9.832   1.001   1.221
90279SOL    HW272735   9.835   0.882   1.313
90280SOL     OW72736   7.766  11.051   2.982
90280SOL    HW172737   7.819  11.022   2.908
90280SOL    HW272738   7.821  11.039   3.059
90281SOL     OW72739  10.295   4.591  10.541
90281SOL    HW172740  10.282   4.496  10.547
90281SOL    HW272741  10.231   4.619  10.476
90282SOL     OW72742   9.840  10.097  13.333
90282SOL    HW172743   9.752  10.104  13.370
90282SOL    HW272744   9.898  10.091  13.409
90283SOL     OW72745   3.111   1.670   5.414
90283SOL    HW172746   3.060   1.735   5.462
90283SOL    HW272747   3.060   1.590   5.422
90284SOL     OW72748   4.115   1.440   5.804
90284SOL    HW172749   4.196   1.405   5.766
90284SOL    HW272750   4.125   1.426   5.898
90285SOL     OW72751   5.775   8.269   9.728
90285SOL    HW172752   5.733   8.339   9.780
90285SOL    HW272753   5.777   8.194   9.787
90286SOL     OW72754   1.315  12.060  10.893
90286SOL    HW172755   1.274  12.127  10.947
90286SOL    HW272756   1.339  12.105  10.812
90287SOL     OW72757   9.032   2.521  11.985
90287SOL    HW172758   9.097   2.585  12.013
90287SOL    HW272759   8.966   2.522  12.054
90288SOL     OW72760   9.449  11.817  13.330
90288SOL    HW172761   9.431  11.791  13.420
90288SOL    HW272762   9.390  11.892  13.314
90289SOL     OW72763   2.930   0.283  14.580
90289SOL    HW172764   2.949   0.283  14.674
90289SOL    HW272765   2.834   0.285  14.575
90290SOL     OW72766   7.811  10.235   0.412
90290SOL    HW172767   7.795  10.213   0.504
90290SOL    HW272768   7.904  10.256   0.408
90291SOL     OW72769  11.945   8.879   9.035
90291SOL    HW172770  11.946   8.964   8.992
90291SOL    HW272771  11.996   8.893   9.115
90292SOL     OW72772   8.832   7.284   6.507
90292SOL    HW172773   8.781   7.208   6.479
90292SOL    HW272774   8.810   7.352   6.443
90293SOL     OW72775   1.112   6.820   3.915
90293SOL    HW172776   1.065   6.746   3.953
90293SOL    HW272777   1.056   6.895   3.932
90294SOL     OW72778   4.387   5.610  11.335
90294SOL    HW172779   4.356   5.691  11.374
90294SOL    HW272780   4.467   5.589  11.382
90295SOL     OW72781   5.211  10.667  11.154
90295SOL    HW172782   5.216  10.730  11.226
90295SOL    HW272783   5.211  10.582  11.197
90296SOL     OW72784  10.633  10.209  10.001
90296SOL    HW172785  10.595  10.205  10.089
90296SOL    HW272786  10.564  10.176   9.944
90297SOL     OW72787  10.687   7.928  13.053
90297SOL    HW172788  10.611   7.901  13.105
90297SOL    HW272789  10.690   8.023  13.061
90298SOL     OW72790  10.970   0.140   3.112
90298SOL    HW172791  10.890   0.097   3.081
90298SOL    HW272792  10.987   0.100   3.197
90299SOL     OW72793  12.104   7.395  12.835
90299SOL    HW172794  12.084   7.430  12.922
90299SOL    HW272795  12.197   7.374  12.838
90300SOL     OW72796   9.438  11.628  12.013
90300SOL    HW172797   9.478  11.560  11.959
90300SOL    HW272798   9.416  11.585  12.095
90301SOL     OW72799   5.801   7.086  12.706
90301SOL    HW172800   5.851   7.029  12.648
90301SOL    HW272801   5.710   7.074  12.679
90302SOL     OW72802   4.298  13.260   0.063
90302SOL    HW172803   4.257  13.344   0.080
90302SOL    HW272804   4.382  13.264   0.109
90303SOL     OW72805   2.069  13.361  13.611
90303SOL    HW172806   2.082  13.439  13.666
90303SOL    HW272807   2.078  13.393  13.522
90304SOL     OW72808   9.490  11.561   5.457
90304SOL    HW172809   9.427  11.604   5.398
90304SOL    HW272810   9.546  11.509   5.399
90305SOL     OW72811  10.473   4.852   3.892
90305SOL    HW172812  10.390   4.844   3.844
90305SOL    HW272813  10.457   4.923   3.955
90306SOL     OW72814  14.351   6.728   6.334
90306SOL    HW172815  14.322   6.784   6.263
90306SOL    HW272816  14.375   6.646   6.292
90307SOL     OW72817   8.697   9.152  11.315
90307SOL    HW172818   8.625   9.138  11.254
90307SOL    HW272819   8.772   9.109  11.274
90308SOL     OW72820   2.720  13.702   3.760
90308SOL    HW172821   2.751  13.611   3.762
90308SOL    HW272822   2.800  13.754   3.768
90309SOL     OW72823  12.412   1.688   1.139
90309SOL    HW172824  12.408   1.784   1.133
90309SOL    HW272825  12.326   1.659   1.109
90310SOL     OW72826  10.788   4.298   3.262
90310SOL    HW172827  10.749   4.212   3.246
90310SOL    HW272828  10.880   4.288   3.239
90311SOL     OW72829   7.490   3.972   8.707
90311SOL    HW172830   7.481   3.939   8.796
90311SOL    HW272831   7.468   3.898   8.651
90312SOL     OW72832  12.096   2.674   2.319
90312SOL    HW172833  12.042   2.676   2.240
90312SOL    HW272834  12.173   2.725   2.297
90313SOL     OW72835   9.815   9.180   6.419
90313SOL    HW172836   9.765   9.132   6.485
90313SOL    HW272837   9.843   9.113   6.357
90314SOL     OW72838   7.304  14.282  12.664
90314SOL    HW172839   7.398  14.270  12.678
90314SOL    HW272840   7.282  14.361  12.714
90315SOL     OW72841  14.474   8.300   4.707
90315SOL    HW172842  14.432   8.279   4.790
90315SOL    HW272843  14.401   8.323   4.649
90316SOL     OW72844   1.612   9.127   3.469
90316SOL    HW172845   1.656   9.177   3.539
90316SOL    HW272846   1.552   9.191   3.429
90317SOL     OW72847   3.774   1.455   9.877
90317SOL    HW172848   3.699   1.411   9.837
90317SOL    HW272849   3.826   1.384   9.914
90318SOL     OW72850   8.667  11.308   8.126
90318SOL    HW172851   8.624  11.235   8.170
90318SOL    HW272852   8.634  11.305   8.036
90319SOL     OW72853   0.705   2.440  12.838
90319SOL    HW172854   0.771   2.416  12.903
90319SOL    HW272855   0.745   2.510  12.787
90320SOL     OW72856  13.326   6.845  13.532
90320SOL    HW172857  13.399   6.886  13.578
90320SOL    HW272858  13.295   6.913  13.471
90321SOL     OW72859   4.152   7.850   6.446
90321SOL    HW172860   4.206   7.781   6.484
90321SOL    HW272861   4.114   7.811   6.367
90322SOL     OW72862   3.278  13.216  11.980
90322SOL    HW172863   3.301  13.157  11.908
90322SOL    HW272864   3.200  13.177  12.018
90323SOL     OW72865   3.646   8.749   1.647
90323SOL    HW172866   3.640   8.832   1.694
90323SOL    HW272867   3.740   8.727   1.649
90324SOL     OW72868   2.028   6.486   7.707
90324SOL    HW172869   2.047   6.399   7.674
90324SOL    HW272870   2.061   6.485   7.797
90325SOL     OW72871   8.599  11.536   2.815
90325SOL    HW172872   8.628  11.627   2.820
90325SOL    HW272873   8.611  11.512   2.723
90326SOL     OW72874   1.103   2.320   7.129
90326SOL    HW172875   1.174   2.341   7.190
90326SOL    HW272876   1.145   2.320   7.043
90327SOL     OW72877   3.334  10.276   7.906
90327SOL    HW172878   3.328  10.345   7.839
90327SOL    HW272879   3.379  10.318   7.979
90328SOL     OW72880   1.626  14.601   8.742
90328SOL    HW172881   1.619  14.656   8.820
90328SOL    HW272882   1.637  14.663   8.670
90329SOL     OW72883   5.650   2.048   4.922
90329SOL    HW172884   5.583   2.022   4.986
90329SOL    HW272885   5.733   2.036   4.968
90330SOL     OW72886   6.252  11.778   7.919
90330SOL    HW172887   6.262  11.873   7.925
90330SOL    HW272888   6.331  11.747   7.875
90331SOL     OW72889  12.857   5.414  10.365
90331SOL    HW172890  12.828   5.460  10.287
90331SOL    HW272891  12.909   5.478  10.413
90332SOL     OW72892   6.401  10.944   6.548
90332SOL    HW172893   6.458  10.988   6.485
90332SOL    HW272894   6.452  10.939   6.628
90333SOL     OW72895   7.387   7.331  13.009
90333SOL    HW172896   7.388   7.354  13.102
90333SOL    HW272897   7.372   7.236  13.008
90334SOL     OW72898   4.940   6.912  12.914
90334SOL    HW172899   4.933   6.826  12.956
90334SOL    HW272900   4.853   6.950  12.921
90335SOL     OW72901   4.509   2.748   1.112
90335SOL    HW172902   4.533   2.666   1.156
90335SOL    HW272903   4.418   2.764   1.140
90336SOL     OW72904   8.731   5.473   0.548
90336SOL    HW172905   8.695   5.471   0.459
90336SOL    HW272906   8.656   5.490   0.604
90337SOL     OW72907   1.402   7.604   1.826
90337SOL    HW172908   1.493   7.604   1.797
90337SOL    HW272909   1.358   7.542   1.768
90338SOL     OW72910   8.121   8.111  10.513
90338SOL    HW172911   8.063   8.040  10.488
90338SOL    HW272912   8.081   8.148  10.592
90339SOL     OW72913  13.227   1.859  14.516
90339SOL    HW172914  13.231   1.803  14.439
90339SOL    HW272915  13.196   1.943  14.482
90340SOL     OW72916   7.312   8.780   4.194
90340SOL    HW172917   7.273   8.862   4.225
90340SOL    HW272918   7.240   8.717   4.198
90341SOL     OW72919  10.478  11.002   8.069
90341SOL    HW172920  10.389  11.028   8.091
90341SOL    HW272921  10.481  11.004   7.973
90342SOL     OW72922   8.460  14.730   5.029
90342SOL    HW172923   8.412  14.688   5.101
90342SOL    HW272924   8.391  14.765   4.972
90343SOL     OW72925   8.039   2.634   8.791
90343SOL    HW172926   7.971   2.631   8.724
90343SOL    HW272927   8.089   2.554   8.778
90344SOL     OW72928  10.222   9.525   4.374
90344SOL    HW172929  10.275   9.459   4.330
90344SOL    HW272930  10.152   9.545   4.311
90345SOL     OW72931   6.767   4.025  10.978
90345SOL    HW172932   6.817   4.101  10.949
90345SOL    HW272933   6.679   4.039  10.943
90346SOL     OW72934   5.210   9.632  12.491
90346SOL    HW172935   5.237   9.723  12.495
90346SOL    HW272936   5.219   9.608  12.399
90347SOL     OW72937   2.864   0.557   6.651
90347SOL    HW172938   2.857   0.628   6.588
90347SOL    HW272939   2.927   0.588   6.716
90348SOL     OW72940   1.837  10.279  11.085
90348SOL    HW172941   1.880  10.355  11.045
90348SOL    HW272942   1.760  10.315  11.129
90349SOL     OW72943   0.057   0.604  12.395
90349SOL    HW172944   0.050   0.541  12.323
90349SOL    HW272945   0.151   0.613  12.410
90350SOL     OW72946  14.175  11.581  11.539
90350SOL    HW172947  14.123  11.658  11.519
90350SOL    HW272948  14.265  11.608  11.523
90351SOL     OW72949   1.193  11.569   7.607
90351SOL    HW172950   1.159  11.613   7.685
90351SOL    HW272951   1.222  11.639   7.550
90352SOL     OW72952   7.000   4.601   9.090
90352SOL    HW172953   6.992   4.641   9.177
90352SOL    HW272954   6.960   4.664   9.031
90353SOL     OW72955  13.245  13.904   6.605
90353SOL    HW172956  13.210  13.899   6.694
90353SOL    HW272957  13.332  13.942   6.616
90354SOL     OW72958   4.316  12.841   3.037
90354SOL    HW172959   4.347  12.918   2.990
90354SOL    HW272960   4.226  12.862   3.062
90355SOL     OW72961   5.479   5.206   0.085
90355SOL    HW172962   5.439   5.228   0.001
90355SOL    HW272963   5.417   5.239   0.151
90356SOL     OW72964   7.048   6.454   4.024
90356SOL    HW172965   7.092   6.384   4.072
90356SOL    HW272966   7.089   6.454   3.938
90357SOL     OW72967   3.497   0.037  11.663
90357SOL    HW172968   3.426  14.840  11.666
90357SOL    HW272969   3.559   0.002  11.599
90358SOL     OW72970   5.560   6.605   2.253
90358SOL    HW172971   5.527   6.693   2.271
90358SOL    HW272972   5.491   6.562   2.204
90359SOL     OW72973   8.582   7.387  10.156
90359SOL    HW172974   8.596   7.330  10.080
90359SOL    HW272975   8.519   7.340  10.211
90360SOL     OW72976  14.082   5.487  11.645
90360SOL    HW172977  14.127   5.510  11.564
90360SOL    HW272978  14.145   5.506  11.714
90361SOL     OW72979   4.571   7.046   3.626
90361SOL    HW172980   4.530   6.968   3.588
90361SOL    HW272981   4.560   7.114   3.559
90362SOL     OW72982   7.826   9.842   2.391
90362SOL    HW172983   7.922   9.833   2.391
90362SOL    HW272984   7.810   9.923   2.343
90363SOL     OW72985   5.293  11.581   2.584
90363SOL    HW172986   5.303  11.494   2.624
90363SOL    HW272987   5.240  11.565   2.506
90364SOL     OW72988   8.178  10.442   8.825
90364SOL    HW172989   8.185  10.497   8.903
90364SOL    HW272990   8.168  10.353   8.858
90365SOL     OW72991   2.120  12.140  14.795
90365SOL    HW172992   2.103  12.225  14.834
90365SOL    HW272993   2.198  12.152  14.742
90366SOL     OW72994   0.627   9.048  14.215
90366SOL    HW172995   0.553   9.022  14.162
90366SOL    HW272996   0.703   9.008  14.172
90367SOL     OW72997  12.204  14.240  13.749
90367SOL    HW172998  12.254  14.181  13.804
90367SOL    HW272999  12.267  14.274  13.685
90368SOL     OW73000   9.181  10.601   1.847
90368SOL    HW173001   9.208  10.573   1.935
90368SOL    HW273002   9.107  10.660   1.863
90369SOL     OW73003   3.575  11.134   4.091
90369SOL    HW173004   3.527  11.210   4.125
90369SOL    HW273005   3.593  11.155   4.000
90370SOL     OW73006  12.093   5.435  12.237
90370SOL    HW173007  12.162   5.461  12.175
90370SOL    HW273008  12.079   5.512  12.291
90371SOL     OW73009   3.980   8.278  10.437
90371SOL    HW173010   3.974   8.218  10.363
90371SOL    HW273011   4.067   8.262  10.473
90372SOL     OW73012   1.692   4.159   9.631
90372SOL    HW173013   1.764   4.147   9.569
90372SOL    HW273014   1.698   4.083   9.689
90373SOL     OW73015   7.577   5.727   6.675
90373SOL    HW173016   7.591   5.758   6.764
90373SOL    HW273017   7.481   5.729   6.664
90374SOL     OW73018   8.101   5.287   4.280
90374SOL    HW173019   8.105   5.378   4.309
90374SOL    HW273020   8.013   5.258   4.303
90375SOL     OW73021   1.726  10.143   7.658
90375SOL    HW173022   1.725  10.180   7.746
90375SOL    HW273023   1.759  10.054   7.669
90376SOL     OW73024   6.463  13.312  10.088
90376SOL    HW173025   6.448  13.244  10.022
90376SOL    HW273026   6.377  13.324  10.129
90377SOL     OW73027   2.910   4.092  12.207
90377SOL    HW173028   2.956   4.017  12.169
90377SOL    HW273029   2.945   4.168  12.159
90378SOL     OW73030   4.165   9.673   3.505
90378SOL    HW173031   4.259   9.690   3.498
90378SOL    HW273032   4.129   9.704   3.423
90379SOL     OW73033  14.841   1.345   3.187
90379SOL    HW173034   0.054   1.373   3.230
90379SOL    HW273035  14.774   1.354   3.254
90380SOL     OW73036   3.740  14.728   3.250
90380SOL    HW173037   3.762  14.635   3.251
90380SOL    HW273038   3.722  14.748   3.158
90381SOL     OW73039   6.840  13.675   2.718
90381SOL    HW173040   6.909  13.619   2.681
90381SOL    HW273041   6.869  13.693   2.807
90382SOL     OW73042   5.868  10.611   7.719
90382SOL    HW173043   5.901  10.532   7.677
90382SOL    HW273044   5.906  10.683   7.668
90383SOL     OW73045   5.367  10.904   6.243
90383SOL    HW173046   5.343  10.992   6.213
90383SOL    HW273047   5.379  10.855   6.162
90384SOL     OW73048  13.909   6.681   0.460
90384SOL    HW173049  13.888   6.766   0.423
90384SOL    HW273050  13.838   6.664   0.522
90385SOL     OW73051   3.004  13.349  12.488
90385SOL    HW173052   2.981  13.269  12.535
90385SOL    HW273053   3.078  13.385  12.537
90386SOL     OW73054   0.057  14.354   1.960
90386SOL    HW173055  14.861  14.423   1.976
90386SOL    HW273056   0.045  14.330   1.868
90387SOL     OW73057  11.386   3.592  11.509
90387SOL    HW173058  11.295   3.563  11.510
90387SOL    HW273059  11.391   3.659  11.578
90388SOL     OW73060   4.605  11.643  13.837
90388SOL    HW173061   4.655  11.637  13.918
90388SOL    HW273062   4.655  11.591  13.774
90389SOL     OW73063   0.852  11.892   4.941
90389SOL    HW173064   0.927  11.890   4.882
90389SOL    HW273065   0.802  11.812   4.919
90390SOL     OW73066  10.081   7.566   0.169
90390SOL    HW173067  10.153   7.553   0.230
90390SOL    HW273068  10.010   7.512   0.203
90391SOL     OW73069   0.946   2.869   4.020
90391SOL    HW173070   1.000   2.885   4.097
90391SOL    HW273071   0.999   2.902   3.947
90392SOL     OW73072  10.572   0.003   6.778
90392SOL    HW173073  10.621  14.789   6.780
90392SOL    HW273074  10.631   0.066   6.737
90393SOL     OW73075  13.413   2.241   9.359
90393SOL    HW173076  13.382   2.327   9.332
90393SOL    HW273077  13.426   2.193   9.278
90394SOL     OW73078   2.168   2.567  10.208
90394SOL    HW173079   2.169   2.517  10.126
90394SOL    HW273080   2.202   2.506  10.273
90395SOL     OW73081   9.822   0.770   6.661
90395SOL    HW173082   9.904   0.775   6.710
90395SOL    HW273083   9.849   0.778   6.569
90396SOL     OW73084  13.048   0.390   3.814
90396SOL    HW173085  12.966   0.424   3.778
90396SOL    HW273086  13.027   0.303   3.846
90397SOL     OW73087  11.109  13.017  14.601
90397SOL    HW173088  11.142  12.933  14.632
90397SOL    HW273089  11.032  12.995  14.549
90398SOL     OW73090   4.738   9.980   4.484
90398SOL    HW173091   4.647   9.963   4.460
90398SOL    HW273092   4.771   9.895   4.515
90399SOL     OW73093   8.002  14.172  10.115
90399SOL    HW173094   8.035  14.259  10.093
90399SOL    HW273095   8.022  14.161  10.208
90400SOL     OW73096   2.856  12.562  11.944
90400SOL    HW173097   2.900  12.597  11.867
90400SOL    HW273098   2.780  12.619  11.957
90401SOL     OW73099   5.466   9.792   0.089
90401SOL    HW173100   5.532   9.731   0.121
90401SOL    HW273101   5.500   9.823   0.005
90402SOL     OW73102  11.811  14.400   2.390
90402SOL    HW173103  11.756  14.445   2.454
90402SOL    HW273104  11.873  14.467   2.361
90403SOL     OW73105   2.440   4.167  13.341
90403SOL    HW173106   2.411   4.209  13.422
90403SOL    HW273107   2.399   4.218  13.271
90404SOL     OW73108   0.469  14.484   5.234
90404SOL    HW173109   0.564  14.494   5.232
90404SOL    HW273110   0.454  14.392   5.212
90405SOL     OW73111   0.369   0.637   9.749
90405SOL    HW173112   0.465   0.646   9.746
90405SOL    HW273113   0.352   0.549   9.716
90406SOL     OW73114   1.696   3.518  12.226
90406SOL    HW173115   1.636   3.448  12.251
90406SOL    HW273116   1.722   3.559  12.309
90407SOL     OW73117   8.829   9.005   6.969
90407SOL    HW173118   8.865   8.927   6.926
90407SOL    HW273119   8.767   8.970   7.033
90408SOL     OW73120   2.555  13.888   5.341
90408SOL    HW173121   2.511  13.829   5.403
90408SOL    HW273122   2.539  13.976   5.377
90409SOL     OW73123   4.798  13.007   8.031
90409SOL    HW173124   4.730  13.059   7.988
90409SOL    HW273125   4.756  12.972   8.109
90410SOL     OW73126  12.031  14.488  14.252
90410SOL    HW173127  12.010  14.407  14.300
90410SOL    HW273128  11.984  14.480  14.169
90411SOL     OW73129   2.267   0.045  11.386
90411SOL    HW173130   2.311  14.858  11.321
90411SOL    HW273131   2.338   0.080  11.440
90412SOL     OW73132  12.222  10.500   2.131
90412SOL    HW173133  12.288  10.432   2.142
90412SOL    HW273134  12.266  10.568   2.081
90413SOL     OW73135   7.463  12.669  14.704
90413SOL    HW173136   7.536  12.651  14.764
90413SOL    HW273137   7.504  12.709  14.627
90414SOL     OW73138  13.657   6.709  14.851
90414SOL    HW173139  13.721   6.779  14.836
90414SOL    HW273140  13.691   6.662   0.060
90415SOL     OW73141   2.776  12.657   1.778
90415SOL    HW173142   2.829  12.597   1.831
90415SOL    HW273143   2.705  12.684   1.837
90416SOL     OW73144   7.112   8.032  13.582
90416SOL    HW173145   7.092   7.986  13.500
90416SOL    HW273146   7.196   8.075  13.566
90417SOL     OW73147   1.714  12.393  13.956
90417SOL    HW173148   1.791  12.352  13.917
90417SOL    HW273149   1.639  12.348  13.916
90418SOL     OW73150  11.777   9.610  10.756
90418SOL    HW173151  11.693   9.600  10.801
90418SOL    HW273152  11.831   9.538  10.791
90419SOL     OW73153   3.027  14.804  11.424
90419SOL    HW173154   3.059  14.835  11.509
90419SOL    HW273155   3.092  14.835  11.361
90420SOL     OW73156  10.271   5.129   7.494
90420SOL    HW173157  10.217   5.051   7.510
90420SOL    HW273158  10.259   5.149   7.402
90421SOL     OW73159   8.763   7.674   2.130
90421SOL    HW173160   8.827   7.673   2.201
90421SOL    HW273161   8.703   7.746   2.153
90422SOL     OW73162   3.587   5.504   1.610
90422SOL    HW173163   3.613   5.433   1.668
90422SOL    HW273164   3.669   5.533   1.569
90423SOL     OW73165  10.168  14.173   3.291
90423SOL    HW173166  10.150  14.080   3.284
90423SOL    HW273167  10.262  14.181   3.275
90424SOL     OW73168  10.770  10.993   2.644
90424SOL    HW173169  10.854  11.033   2.622
90424SOL    HW273170  10.705  11.060   2.625
90425SOL     OW73171   3.223   0.638   6.455
90425SOL    HW173172   3.146   0.625   6.400
90425SOL    HW273173   3.219   0.731   6.479
90426SOL     OW73174   7.115  12.463   1.610
90426SOL    HW173175   7.163  12.543   1.591
90426SOL    HW273176   7.163  12.394   1.563
90427SOL     OW73177  14.241   1.357  11.576
90427SOL    HW173178  14.190   1.412  11.516
90427SOL    HW273179  14.267   1.417  11.646
90428SOL     OW73180   9.114  11.361   8.967
90428SOL    HW173181   9.124  11.345   8.873
90428SOL    HW273182   9.204  11.375   8.998
90429SOL     OW73183   5.456   3.853  12.501
90429SOL    HW173184   5.516   3.819  12.435
90429SOL    HW273185   5.513   3.896  12.565
90430SOL     OW73186  11.182   3.963   5.193
90430SOL    HW173187  11.104   4.017   5.205
90430SOL    HW273188  11.169   3.920   5.109
90431SOL     OW73189  11.384   2.842   4.294
90431SOL    HW173190  11.472   2.812   4.314
90431SOL    HW273191  11.328   2.767   4.315
90432SOL     OW73192   3.958   2.447   7.555
90432SOL    HW173193   4.008   2.445   7.637
90432SOL    HW273194   3.988   2.527   7.511
90433SOL     OW73195   7.204   6.722   4.377
90433SOL    HW173196   7.142   6.650   4.366
90433SOL    HW273197   7.199   6.772   4.296
90434SOL     OW73198   8.168   6.123   2.096
90434SOL    HW173199   8.173   6.198   2.037
90434SOL    HW273200   8.201   6.050   2.044
90435SOL     OW73201   1.215  13.625  14.482
90435SOL    HW173202   1.186  13.712  14.508
90435SOL    HW273203   1.204  13.572  14.561
90436SOL     OW73204  12.130  11.225   5.316
90436SOL    HW173205  12.216  11.232   5.356
90436SOL    HW273206  12.143  11.249   5.224
90437SOL     OW73207   6.616  13.036   7.867
90437SOL    HW173208   6.580  13.087   7.794
90437SOL    HW273209   6.662  13.100   7.921
90438SOL     OW73210  13.908  14.806  12.469
90438SOL    HW173211  13.970   0.009  12.482
90438SOL    HW273212  13.825  14.840  12.501
90439SOL     OW73213   2.688   8.447   9.717
90439SOL    HW173214   2.629   8.447   9.792
90439SOL    HW273215   2.697   8.354   9.694
90440SOL     OW73216   0.809  11.671   5.773
90440SOL    HW173217   0.839  11.750   5.726
90440SOL    HW273218   0.742  11.633   5.716
90441SOL     OW73219   6.891   6.215   0.146
90441SOL    HW173220   6.836   6.293   0.147
90441SOL    HW273221   6.973   6.244   0.107
90442SOL     OW73222  13.641   2.958  10.463
90442SOL    HW173223  13.609   3.047  10.455
90442SOL    HW273224  13.720   2.966  10.516
90443SOL     OW73225  14.475   3.022   4.628
90443SOL    HW173226  14.414   2.975   4.571
90443SOL    HW273227  14.444   3.003   4.716
90444SOL     OW73228   7.447   2.318  11.217
90444SOL    HW173229   7.414   2.228  11.231
90444SOL    HW273230   7.419   2.340  11.129
90445SOL     OW73231   1.366   6.186   3.106
90445SOL    HW173232   1.423   6.236   3.164
90445SOL    HW273233   1.306   6.251   3.071
90446SOL     OW73234   4.045   4.738  11.911
90446SOL    HW173235   4.052   4.773  11.822
90446SOL    HW273236   4.030   4.644  11.898
90447SOL     OW73237   1.300   9.165  14.647
90447SOL    HW173238   1.226   9.106  14.633
90447SOL    HW273239   1.275   9.215  14.726
90448SOL     OW73240   5.647  10.525   0.357
90448SOL    HW173241   5.624  10.609   0.317
90448SOL    HW273242   5.567  10.497   0.402
90449SOL     OW73243   5.640   0.883  10.756
90449SOL    HW173244   5.684   0.932  10.826
90449SOL    HW273245   5.560   0.933  10.738
90450SOL     OW73246   6.016  12.449   3.900
90450SOL    HW173247   6.047  12.370   3.855
90450SOL    HW273248   6.041  12.521   3.842
90451SOL     OW73249   4.807   2.854   7.285
90451SOL    HW173250   4.893   2.895   7.293
90451SOL    HW273251   4.820   2.783   7.222
90452SOL     OW73252  10.823   6.927   0.341
90452SOL    HW173253  10.916   6.943   0.320
90452SOL    HW273254  10.787   6.890   0.261
90453SOL     OW73255   1.088  13.167   4.434
90453SOL    HW173256   1.097  13.239   4.496
90453SOL    HW273257   1.110  13.089   4.485
90454SOL     OW73258  12.743  13.334   1.208
90454SOL    HW173259  12.795  13.377   1.140
90454SOL    HW273260  12.653  13.340   1.177
90455SOL     OW73261   3.677   2.649   0.951
90455SOL    HW173262   3.736   2.633   1.024
90455SOL    HW273263   3.604   2.590   0.966
90456SOL     OW73264  11.123   4.237  10.834
90456SOL    HW173265  11.147   4.150  10.865
90456SOL    HW273266  11.130   4.293  10.911
90457SOL     OW73267   1.424  11.648   8.911
90457SOL    HW173268   1.468  11.655   8.995
90457SOL    HW273269   1.342  11.697   8.922
90458SOL     OW73270  11.908  14.333   0.041
90458SOL    HW173271  11.814  14.352   0.044
90458SOL    HW273272  11.936  14.362  14.822
90459SOL     OW73273   5.625   7.669   5.093
90459SOL    HW173274   5.676   7.726   5.150
90459SOL    HW273275   5.541   7.714   5.084
90460SOL     OW73276   4.533   4.305   1.795
90460SOL    HW173277   4.476   4.269   1.727
90460SOL    HW273278   4.615   4.325   1.750
90461SOL     OW73279  14.280   5.492   5.774
90461SOL    HW173280  14.279   5.406   5.817
90461SOL    HW273281  14.311   5.475   5.685
90462SOL     OW73282  14.269  12.076   5.263
90462SOL    HW173283  14.243  12.088   5.355
90462SOL    HW273284  14.322  12.153   5.243
90463SOL     OW73285   1.815   0.738  12.816
90463SOL    HW173286   1.899   0.781  12.833
90463SOL    HW273287   1.755   0.810  12.799
90464SOL     OW73288  11.982  11.577   4.507
90464SOL    HW173289  11.959  11.565   4.599
90464SOL    HW273290  12.003  11.670   4.499
90465SOL     OW73291   2.729   1.257   3.578
90465SOL    HW173292   2.741   1.265   3.483
90465SOL    HW273293   2.711   1.164   3.592
90466SOL     OW73294  12.356  11.223  12.301
90466SOL    HW173295  12.326  11.314  12.304
90466SOL    HW273296  12.294  11.175  12.355
90467SOL     OW73297   6.208   9.501   0.581
90467SOL    HW173298   6.209   9.460   0.494
90467SOL    HW273299   6.123   9.477   0.617
90468SOL     OW73300  12.312  14.023   0.042
90468SOL    HW173301  12.365  14.102   0.032
90468SOL    HW273302  12.331  13.970  14.833
90469SOL     OW73303   3.677   4.431  10.882
90469SOL    HW173304   3.608   4.448  10.817
90469SOL    HW273305   3.711   4.345  10.858
90470SOL     OW73306   3.899   0.136  11.199
90470SOL    HW173307   3.983   0.121  11.157
90470SOL    HW273308   3.918   0.134  11.292
90471SOL     OW73309  10.146   5.656  12.578
90471SOL    HW173310  10.215   5.718  12.556
90471SOL    HW273311  10.111   5.688  12.661
90472SOL     OW73312  14.078   4.090  12.996
90472SOL    HW173313  14.167   4.061  12.974
90472SOL    HW273314  14.083   4.114  13.089
90473SOL     OW73315   3.232  11.594   5.526
90473SOL    HW173316   3.208  11.528   5.591
90473SOL    HW273317   3.198  11.559   5.443
90474SOL     OW73318  11.728   9.255  13.265
90474SOL    HW173319  11.781   9.194  13.214
90474SOL    HW273320  11.735   9.223  13.355
90475SOL     OW73321   4.814   8.186   7.595
90475SOL    HW173322   4.816   8.114   7.659
90475SOL    HW273323   4.895   8.175   7.545
90476SOL     OW73324   8.688   0.324   5.592
90476SOL    HW173325   8.653   0.273   5.665
90476SOL    HW273326   8.746   0.389   5.634
90477SOL     OW73327  13.023   7.386   5.122
90477SOL    HW173328  13.056   7.335   5.048
90477SOL    HW273329  12.933   7.408   5.097
90478SOL     OW73330   2.193   8.415   7.658
90478SOL    HW173331   2.251   8.407   7.734
90478SOL    HW273332   2.105   8.426   7.696
90479SOL     OW73333  14.850   7.778   9.415
90479SOL    HW173334   0.004   7.702   9.469
90479SOL    HW273335  14.770   7.813   9.454
90480SOL     OW73336  14.662   1.458   2.773
90480SOL    HW173337  14.663   1.461   2.869
90480SOL    HW273338  14.605   1.385   2.752
90481SOL     OW73339  13.281  14.468   4.661
90481SOL    HW173340  13.274  14.479   4.756
90481SOL    HW273341  13.208  14.409   4.639
90482SOL     OW73342   4.458   6.143   5.949
90482SOL    HW173343   4.456   6.133   6.044
90482SOL    HW273344   4.377   6.191   5.928
90483SOL     OW73345   7.406   9.880   8.632
90483SOL    HW173346   7.403   9.973   8.653
90483SOL    HW273347   7.474   9.873   8.565
90484SOL     OW73348  12.419   9.503   2.745
90484SOL    HW173349  12.447   9.421   2.784
90484SOL    HW273350  12.501   9.550   2.727
90485SOL     OW73351  13.219   0.043   0.975
90485SOL    HW173352  13.221  14.818   0.953
90485SOL    HW273353  13.127   0.068   0.964
90486SOL     OW73354  12.455  12.326   0.086
90486SOL    HW173355  12.539  12.371   0.093
90486SOL    HW273356  12.403  12.381   0.027
90487SOL     OW73357  13.775  14.335  14.061
90487SOL    HW173358  13.867  14.357  14.047
90487SOL    HW273359  13.777  14.249  14.104
90488SOL     OW73360   8.082   8.713   8.871
90488SOL    HW173361   8.081   8.720   8.967
90488SOL    HW273362   8.174   8.712   8.847
90489SOL     OW73363   6.747   6.580  10.791
90489SOL    HW173364   6.692   6.550  10.718
90489SOL    HW273365   6.744   6.509  10.855
90490SOL     OW73366   0.104  14.302   9.531
90490SOL    HW173367   0.062  14.276   9.613
90490SOL    HW273368   0.138  14.390   9.549
90491SOL     OW73369  10.353   7.623   9.249
90491SOL    HW173370  10.364   7.624   9.344
90491SOL    HW273371  10.303   7.543   9.231
90492SOL     OW73372   3.832  11.802   4.252
90492SOL    HW173373   3.824  11.753   4.333
90492SOL    HW273374   3.909  11.857   4.264
90493SOL     OW73375   4.531   4.561   4.232
90493SOL    HW173376   4.566   4.472   4.227
90493SOL    HW273377   4.481   4.572   4.151
90494SOL     OW73378  11.445  13.893  12.848
90494SOL    HW173379  11.377  13.855  12.793
90494SOL    HW273380  11.498  13.946  12.789
90495SOL     OW73381  14.506  10.475  11.336
90495SOL    HW173382  14.450  10.450  11.409
90495SOL    HW273383  14.560  10.546  11.370
90496SOL     OW73384   4.708   1.550   6.638
90496SOL    HW173385   4.705   1.618   6.705
90496SOL    HW273386   4.770   1.582   6.573
90497SOL     OW73387  14.722  11.262  10.806
90497SOL    HW173388  14.659  11.320  10.763
90497SOL    HW273389  14.691  11.174  10.787
90498SOL     OW73390  12.819  12.516  12.818
90498SOL    HW173391  12.790  12.532  12.908
90498SOL    HW273392  12.772  12.437  12.792
90499SOL     OW73393   5.480   2.663   8.906
90499SOL    HW173394   5.532   2.740   8.881
90499SOL    HW273395   5.518   2.592   8.855
90500SOL     OW73396   2.099   4.951   0.119
90500SOL    HW173397   2.170   4.887   0.121
90500SOL    HW273398   2.070   4.958   0.210
90501SOL     OW73399   4.415   8.201  11.551
90501SOL    HW173400   4.401   8.203  11.646
90501SOL    HW273401   4.480   8.270  11.536
90502SOL     OW73402   0.574  13.521  12.718
90502SOL    HW173403   0.596  13.613  12.702
90502SOL    HW273404   0.614  13.501  12.803
90503SOL     OW73405  12.881  10.515   8.885
90503SOL    HW173406  12.976  10.513   8.872
90503SOL    HW273407  12.845  10.478   8.804
90504SOL     OW73408   0.601   6.380   7.385
90504SOL    HW173409   0.655   6.443   7.433
90504SOL    HW273410   0.664   6.319   7.346
90505SOL     OW73411   9.568  10.187   0.474
90505SOL    HW173412   9.639  10.140   0.431
90505SOL    HW273413   9.555  10.266   0.422
90506SOL     OW73414   4.811  10.991  14.306
90506SOL    HW173415   4.848  10.912  14.267
90506SOL    HW273416   4.781  11.043  14.232
90507SOL     OW73417   0.868   6.253   3.638
90507SOL    HW173418   0.837   6.324   3.693
90507SOL    HW273419   0.825   6.269   3.553
90508SOL     OW73420   3.361   0.558   8.140
90508SOL    HW173421   3.419   0.617   8.092
90508SOL    HW273422   3.289   0.615   8.168
90509SOL     OW73423   0.122  10.516   9.396
90509SOL    HW173424   0.172  10.513   9.478
90509SOL    HW273425   0.180  10.473   9.332
90510SOL     OW73426   2.394   2.794  12.424
90510SOL    HW173427   2.348   2.823  12.345
90510SOL    HW273428   2.390   2.870  12.483
90511SOL     OW73429   4.443   4.013   8.852
90511SOL    HW173430   4.516   3.958   8.823
90511SOL    HW273431   4.473   4.102   8.837
90512SOL     OW73432   7.744   1.938   5.396
90512SOL    HW173433   7.743   1.862   5.338
90512SOL    HW273434   7.758   1.901   5.483
90513SOL     OW73435   4.960   6.296   3.230
90513SOL    HW173436   4.875   6.293   3.275
90513SOL    HW273437   5.002   6.376   3.263
90514SOL     OW73438  13.428  11.789   5.635
90514SOL    HW173439  13.443  11.694   5.636
90514SOL    HW273440  13.423  11.811   5.542
90515SOL     OW73441   6.074  13.370   9.038
90515SOL    HW173442   6.041  13.342   9.123
90515SOL    HW273443   6.036  13.309   8.975
90516SOL     OW73444   7.379   5.674   5.473
90516SOL    HW173445   7.382   5.669   5.568
90516SOL    HW273446   7.384   5.768   5.454
90517SOL     OW73447   4.066  14.348   0.935
90517SOL    HW173448   4.011  14.314   0.864
90517SOL    HW273449   4.025  14.316   1.015
90518SOL     OW73450   2.209  14.441   1.532
90518SOL    HW173451   2.284  14.403   1.486
90518SOL    HW273452   2.165  14.366   1.573
90519SOL     OW73453   9.771   0.835   7.581
90519SOL    HW173454   9.804   0.756   7.624
90519SOL    HW273455   9.762   0.899   7.651
90520SOL     OW73456   3.642   8.869  10.479
90520SOL    HW173457   3.719   8.861  10.535
90520SOL    HW273458   3.638   8.785  10.433
90521SOL     OW73459   0.590   7.525   0.300
90521SOL    HW173460   0.628   7.532   0.213
90521SOL    HW273461   0.665   7.529   0.360
90522SOL     OW73462   1.531   6.157   6.189
90522SOL    HW173463   1.451   6.142   6.238
90522SOL    HW273464   1.505   6.214   6.117
90523SOL     OW73465   2.923   9.945  14.513
90523SOL    HW173466   2.902  10.030  14.552
90523SOL    HW273467   3.018   9.940  14.515
90524SOL     OW73468  13.154   6.013   9.447
90524SOL    HW173469  13.168   6.040   9.537
90524SOL    HW273470  13.198   6.080   9.395
90525SOL     OW73471   0.673   7.821   6.576
90525SOL    HW173472   0.690   7.915   6.582
90525SOL    HW273473   0.665   7.793   6.668
90526SOL     OW73474   0.871  13.941   2.080
90526SOL    HW173475   0.788  13.987   2.072
90526SOL    HW273476   0.873  13.911   2.171
90527SOL     OW73477   8.783   3.314   9.483
90527SOL    HW173478   8.741   3.231   9.508
90527SOL    HW273479   8.716   3.380   9.502
90528SOL     OW73480  14.009   0.434  10.350
90528SOL    HW173481  14.015   0.517  10.303
90528SOL    HW273482  13.926   0.396  10.322
90529SOL     OW73483  11.078  10.644   3.846
90529SOL    HW173484  11.074  10.599   3.930
90529SOL    HW273485  11.029  10.725   3.860
90530SOL     OW73486   2.782   7.203   1.768
90530SOL    HW173487   2.709   7.232   1.822
90530SOL    HW273488   2.787   7.109   1.782
90531SOL     OW73489   8.346   8.093   2.569
90531SOL    HW173490   8.298   8.019   2.605
90531SOL    HW273491   8.412   8.113   2.636
90532SOL     OW73492  14.497   8.812  13.243
90532SOL    HW173493  14.477   8.731  13.196
90532SOL    HW273494  14.505   8.878  13.175
90533SOL     OW73495  11.340   6.425   8.457
90533SOL    HW173496  11.406   6.356   8.450
90533SOL    HW273497  11.377   6.487   8.519
90534SOL     OW73498   0.423  10.080   2.258
90534SOL    HW173499   0.445  10.142   2.189
90534SOL    HW273500   0.505  10.033   2.275
90535SOL     OW73501   4.559  11.128   8.831
90535SOL    HW173502   4.616  11.094   8.761
90535SOL    HW273503   4.530  11.214   8.799
90536SOL     OW73504  10.206  10.959  10.791
90536SOL    HW173505  10.245  11.044  10.809
90536SOL    HW273506  10.123  10.979  10.749
90537SOL     OW73507   6.659   5.355   0.479
90537SOL    HW173508   6.707   5.356   0.562
90537SOL    HW273509   6.713   5.407   0.419
90538SOL     OW73510   1.605  10.290   5.989
90538SOL    HW173511   1.530  10.241   6.021
90538SOL    HW273512   1.594  10.378   6.025
90539SOL     OW73513  10.049  14.349  14.625
90539SOL    HW173514  10.142  14.372  14.628
90539SOL    HW273515  10.022  14.371  14.536
90540SOL     OW73516   8.735  13.591   3.329
90540SOL    HW173517   8.700  13.592   3.240
90540SOL    HW273518   8.742  13.498   3.351
90541SOL     OW73519   6.864   1.053   7.438
90541SOL    HW173520   6.940   0.997   7.421
90541SOL    HW273521   6.842   1.036   7.529
90542SOL     OW73522  14.257   1.168  14.429
90542SOL    HW173523  14.191   1.211  14.374
90542SOL    HW273524  14.301   1.240  14.474
90543SOL     OW73525   9.435   4.619  12.815
90543SOL    HW173526   9.354   4.661  12.785
90543SOL    HW273527   9.486   4.605  12.736
90544SOL     OW73528   1.809   9.826   4.758
90544SOL    HW173529   1.784   9.865   4.674
90544SOL    HW273530   1.732   9.837   4.813
90545SOL     OW73531   4.213   2.158  12.950
90545SOL    HW173532   4.169   2.090  12.899
90545SOL    HW273533   4.255   2.111  13.022
90546SOL     OW73534   2.551   3.376   7.290
90546SOL    HW173535   2.501   3.455   7.312
90546SOL    HW273536   2.493   3.304   7.315
90547SOL     OW73537  11.802  10.671   0.844
90547SOL    HW173538  11.719  10.679   0.796
90547SOL    HW273539  11.869  10.685   0.777
90548SOL     OW73540   9.242   3.045   0.701
90548SOL    HW173541   9.239   3.032   0.606
90548SOL    HW273542   9.331   3.076   0.719
90549SOL     OW73543  11.412   4.994   1.554
90549SOL    HW173544  11.486   4.958   1.505
90549SOL    HW273545  11.377   4.918   1.602
90550SOL     OW73546  14.448   4.084  12.603
90550SOL    HW173547  14.426   4.015  12.666
90550SOL    HW273548  14.503   4.041  12.538
90551SOL     OW73549   5.335   5.068  11.455
90551SOL    HW173550   5.409   5.127  11.447
90551SOL    HW273551   5.373   4.980  11.445
90552SOL     OW73552   9.572   4.903   6.536
90552SOL    HW173553   9.479   4.895   6.556
90552SOL    HW273554   9.583   4.995   6.511
90553SOL     OW73555   5.277   7.887   1.205
90553SOL    HW173556   5.243   7.859   1.290
90553SOL    HW273557   5.342   7.821   1.181
90554SOL     OW73558   0.158   7.190   6.473
90554SOL    HW173559   0.221   7.119   6.466
90554SOL    HW273560   0.135   7.212   6.383
90555SOL     OW73561   0.431   3.213  10.479
90555SOL    HW173562   0.516   3.258  10.482
90555SOL    HW273563   0.453   3.120  10.492
90556SOL     OW73564   7.434   1.900   1.629
90556SOL    HW173565   7.391   1.835   1.574
90556SOL    HW273566   7.458   1.851   1.708
90557SOL     OW73567  12.552   1.475  14.788
90557SOL    HW173568  12.498   1.404  14.823
90557SOL    HW273569  12.640   1.439  14.786
90558SOL     OW73570   2.669   8.373   0.883
90558SOL    HW173571   2.578   8.374   0.913
90558SOL    HW273572   2.684   8.461   0.849
90559SOL     OW73573   5.459   0.550   1.155
90559SOL    HW173574   5.451   0.507   1.069
90559SOL    HW273575   5.382   0.607   1.160
90560SOL     OW73576   8.237   1.802  10.175
90560SOL    HW173577   8.221   1.836  10.263
90560SOL    HW273578   8.271   1.714  10.188
90561SOL     OW73579  14.160   0.359   3.807
90561SOL    HW173580  14.179   0.449   3.834
90561SOL    HW273581  14.077   0.365   3.760
90562SOL     OW73582  11.107   8.730   8.947
90562SOL    HW173583  11.089   8.812   8.901
90562SOL    HW273584  11.036   8.671   8.919
90563SOL     OW73585   4.112   4.784  11.651
90563SOL    HW173586   4.143   4.836  11.578
90563SOL    HW273587   4.053   4.719  11.611
90564SOL     OW73588   8.351   0.332   4.017
90564SOL    HW173589   8.437   0.345   3.978
90564SOL    HW273590   8.291   0.381   3.962
90565SOL     OW73591   7.361  14.518   6.869
90565SOL    HW173592   7.272  14.514   6.902
90565SOL    HW273593   7.415  14.534   6.946
90566SOL     OW73594   1.944   4.496   9.008
90566SOL    HW173595   1.941   4.592   9.015
90566SOL    HW273596   1.926   4.479   8.915
90567SOL     OW73597   4.467  10.631  12.009
90567SOL    HW173598   4.372  10.625  12.005
90567SOL    HW273599   4.492  10.680  11.931
90568SOL     OW73600   1.784   2.259  11.721
90568SOL    HW173601   1.858   2.289  11.668
90568SOL    HW273602   1.779   2.321  11.793
90569SOL     OW73603  10.210  10.314   1.776
90569SOL    HW173604  10.257  10.233   1.755
90569SOL    HW273605  10.126  10.284   1.810
90570SOL     OW73606   0.767   9.317  12.288
90570SOL    HW173607   0.689   9.278  12.248
90570SOL    HW273608   0.745   9.409  12.297
90571SOL     OW73609   5.517  12.346   1.260
90571SOL    HW173610   5.426  12.361   1.232
90571SOL    HW273611   5.530  12.252   1.253
90572SOL     OW73612  14.070   9.799   0.797
90572SOL    HW173613  14.067   9.893   0.778
90572SOL    HW273614  13.980   9.770   0.788
90573SOL     OW73615   7.369   1.486  10.828
90573SOL    HW173616   7.349   1.393  10.818
90573SOL    HW273617   7.461   1.493  10.804
90574SOL     OW73618   6.759  14.406   7.387
90574SOL    HW173619   6.730  14.316   7.399
90574SOL    HW273620   6.816  14.403   7.311
90575SOL     OW73621   5.182  11.624   8.090
90575SOL    HW173622   5.273  11.594   8.089
90575SOL    HW273623   5.130  11.543   8.089
90576SOL     OW73624   3.813  13.208   2.569
90576SOL    HW173625   3.720  13.221   2.552
90576SOL    HW273626   3.841  13.144   2.504
90577SOL     OW73627   3.679   7.033  13.577
90577SOL    HW173628   3.590   7.061  13.556
90577SOL    HW273629   3.694   6.956  13.522
90578SOL     OW73630   7.297   8.180   3.906
90578SOL    HW173631   7.268   8.090   3.895
90578SOL    HW273632   7.372   8.174   3.966
90579SOL     OW73633   8.545   7.024  11.741
90579SOL    HW173634   8.606   6.959  11.707
90579SOL    HW273635   8.578   7.045  11.828
90580SOL     OW73636  12.310   5.508  12.091
90580SOL    HW173637  12.335   5.429  12.139
90580SOL    HW273638  12.386   5.528  12.036
90581SOL     OW73639  10.984   0.453  11.588
90581SOL    HW173640  10.937   0.533  11.609
90581SOL    HW273641  11.059   0.453  11.648
90582SOL     OW73642   3.354   3.953   2.187
90582SOL    HW173643   3.308   3.993   2.114
90582SOL    HW273644   3.406   3.883   2.147
90583SOL     OW73645   2.659   8.495   0.355
90583SOL    HW173646   2.631   8.533   0.272
90583SOL    HW273647   2.608   8.542   0.422
90584SOL     OW73648   1.220   9.362  13.741
90584SOL    HW173649   1.294   9.307  13.718
90584SOL    HW273650   1.216   9.358  13.837
90585SOL     OW73651  11.961  12.010   3.897
90585SOL    HW173652  11.979  11.975   3.809
90585SOL    HW273653  11.866  12.013   3.902
90586SOL     OW73654   0.501  12.246  14.278
90586SOL    HW173655   0.524  12.321  14.333
90586SOL    HW273656   0.408  12.260  14.257
90587SOL     OW73657   2.496   0.891   1.975
90587SOL    HW173658   2.460   0.892   2.064
90587SOL    HW273659   2.486   0.981   1.944
90588SOL     OW73660  14.680   2.636   4.577
90588SOL    HW173661  14.600   2.633   4.525
90588SOL    HW273662  14.652   2.671   4.662
90589SOL     OW73663  10.872   9.019   1.713
90589SOL    HW173664  10.875   9.013   1.617
90589SOL    HW273665  10.816   8.947   1.740
90590SOL     OW73666   8.223  12.595  11.036
90590SOL    HW173667   8.166  12.520  11.021
90590SOL    HW273668   8.172  12.654  11.091
90591SOL     OW73669  12.225   9.077  12.643
90591SOL    HW173670  12.141   9.068  12.597
90591SOL    HW273671  12.240   8.990  12.682
90592SOL     OW73672   8.593   6.951  10.311
90592SOL    HW173673   8.662   6.999  10.266
90592SOL    HW273674   8.639   6.896  10.374
90593SOL     OW73675   4.513   9.182  14.360
90593SOL    HW173676   4.497   9.098  14.317
90593SOL    HW273677   4.471   9.247  14.303
90594SOL     OW73678   0.225   3.161   5.911
90594SOL    HW173679   0.213   3.083   5.965
90594SOL    HW273680   0.317   3.159   5.886
90595SOL     OW73681   9.051   4.611   4.424
90595SOL    HW173682   8.969   4.583   4.466
90595SOL    HW273683   9.048   4.572   4.337
90596SOL     OW73684  10.991   9.844   7.588
90596SOL    HW173685  10.987   9.935   7.560
90596SOL    HW273686  11.083   9.827   7.605
90597SOL     OW73687   4.854   6.229   3.616
90597SOL    HW173688   4.945   6.210   3.594
90597SOL    HW273689   4.818   6.271   3.539
90598SOL     OW73690   2.021  10.333  14.495
90598SOL    HW173691   2.041  10.305  14.406
90598SOL    HW273692   2.102  10.320  14.544
90599SOL     OW73693   6.096  10.890  13.532
90599SOL    HW173694   6.014  10.929  13.561
90599SOL    HW273695   6.092  10.894  13.436
90600SOL     OW73696   7.554   1.807   5.834
90600SOL    HW173697   7.498   1.833   5.907
90600SOL    HW273698   7.509   1.840   5.756
90601SOL     OW73699   0.320   5.725   1.434
90601SOL    HW173700   0.321   5.642   1.482
90601SOL    HW273701   0.293   5.790   1.500
90602SOL     OW73702   1.404   7.604  12.905
90602SOL    HW173703   1.487   7.592  12.951
90602SOL    HW273704   1.375   7.691  12.930
90603SOL     OW73705   3.245   0.764  11.032
90603SOL    HW173706   3.179   0.699  11.059
90603SOL    HW273707   3.197   0.846  11.028
90604SOL     OW73708  12.733  10.984   4.316
90604SOL    HW173709  12.645  10.991   4.353
90604SOL    HW273710  12.783  10.937   4.383
90605SOL     OW73711   2.301   2.808   4.917
90605SOL    HW173712   2.266   2.844   4.999
90605SOL    HW273713   2.306   2.713   4.933
90606SOL     OW73714   4.238   3.464   8.398
90606SOL    HW173715   4.293   3.532   8.439
90606SOL    HW273716   4.218   3.404   8.470
90607SOL     OW73717  13.378  11.563  10.720
90607SOL    HW173718  13.422  11.612  10.789
90607SOL    HW273719  13.431  11.577  10.642
90608SOL     OW73720   6.646   6.565   6.821
90608SOL    HW173721   6.614   6.608   6.901
90608SOL    HW273722   6.682   6.482   6.851
90609SOL     OW73723  10.575   3.846   4.641
90609SOL    HW173724  10.562   3.899   4.563
90609SOL    HW273725  10.604   3.761   4.607
90610SOL     OW73726   2.432   8.584   3.662
90610SOL    HW173727   2.400   8.518   3.601
90610SOL    HW273728   2.353   8.617   3.705
90611SOL     OW73729   3.735  14.427   0.208
90611SOL    HW173730   3.825  14.437   0.241
90611SOL    HW273731   3.717  14.510   0.164
90612SOL     OW73732   0.045  11.501   4.572
90612SOL    HW173733  14.859  11.559   4.626
90612SOL    HW273734   0.010  11.414   4.588
90613SOL     OW73735   8.996  14.860   0.139
90613SOL    HW173736   8.979   0.011   0.047
90613SOL    HW273737   9.090   0.007   0.150
90614SOL     OW73738   7.640  14.212  12.347
90614SOL    HW173739   7.735  14.220  12.360
90614SOL    HW273740   7.620  14.273  12.276
90615SOL     OW73741   2.984  12.727   9.254
90615SOL    HW173742   2.973  12.766   9.340
90615SOL    HW273743   3.024  12.796   9.201
90616SOL     OW73744   3.399   8.644  11.237
90616SOL    HW173745   3.459   8.570  11.237
90616SOL    HW273746   3.444   8.713  11.189
90617SOL     OW73747   5.503   5.055   1.229
90617SOL    HW173748   5.503   5.134   1.282
90617SOL    HW273749   5.579   5.005   1.259
90618SOL     OW73750  10.722   2.066   3.637
90618SOL    HW173751  10.693   2.058   3.546
90618SOL    HW273752  10.653   2.116   3.680
90619SOL     OW73753   0.658   7.411   3.304
90619SOL    HW173754   0.686   7.366   3.383
90619SOL    HW273755   0.737   7.413   3.249
90620SOL     OW73756   7.845  10.403   4.376
90620SOL    HW173757   7.907  10.349   4.425
90620SOL    HW273758   7.760  10.363   4.393
90621SOL     OW73759   4.365   6.797  12.600
90621SOL    HW173760   4.317   6.874  12.630
90621SOL    HW273761   4.404   6.759  12.679
90622SOL     OW73762   7.378   9.738   7.610
90622SOL    HW173763   7.302   9.708   7.660
90622SOL    HW273764   7.452   9.730   7.670
90623SOL     OW73765   9.207   4.049   8.268
90623SOL    HW173766   9.248   4.123   8.312
90623SOL    HW273767   9.113   4.058   8.288
90624SOL     OW73768  10.563  11.603   9.267
90624SOL    HW173769  10.580  11.647   9.351
90624SOL    HW273770  10.642  11.620   9.215
90625SOL     OW73771  14.575   9.221   8.924
90625SOL    HW173772  14.611   9.252   8.841
90625SOL    HW273773  14.649   9.178   8.967
90626SOL     OW73774   7.904   3.065  13.783
90626SOL    HW173775   7.859   3.128  13.840
90626SOL    HW273776   7.919   3.113  13.702
90627SOL     OW73777   5.592   4.437   4.351
90627SOL    HW173778   5.620   4.349   4.325
90627SOL    HW273779   5.576   4.483   4.268
90628SOL     OW73780   9.860   3.641   7.125
90628SOL    HW173781   9.918   3.603   7.192
90628SOL    HW273782   9.915   3.704   7.079
90629SOL     OW73783  11.143   6.808   5.748
90629SOL    HW173784  11.061   6.802   5.796
90629SOL    HW273785  11.146   6.729   5.695
90630SOL     OW73786  12.526   4.199   8.735
90630SOL    HW173787  12.457   4.259   8.763
90630SOL    HW273788  12.593   4.255   8.697
90631SOL     OW73789  11.028   1.016  12.740
90631SOL    HW173790  10.998   0.926  12.729
90631SOL    HW273791  11.075   1.036  12.659
90632SOL     OW73792   7.510   9.843   1.920
90632SOL    HW173793   7.561   9.922   1.942
90632SOL    HW273794   7.576   9.781   1.889
90633SOL     OW73795   4.639   8.723   5.112
90633SOL    HW173796   4.653   8.636   5.149
90633SOL    HW273797   4.700   8.780   5.160
90634SOL     OW73798  13.816   3.575  11.131
90634SOL    HW173799  13.881   3.645  11.122
90634SOL    HW273800  13.849   3.521  11.203
90635SOL     OW73801   8.216   3.437   1.052
90635SOL    HW173802   8.276   3.364   1.034
90635SOL    HW273803   8.179   3.416   1.138
90636SOL     OW73804   9.907   6.942   2.332
90636SOL    HW173805   9.849   6.972   2.402
90636SOL    HW273806   9.884   6.998   2.257
90637SOL     OW73807  13.788   3.437  10.866
90637SOL    HW173808  13.748   3.422  10.952
90637SOL    HW273809  13.820   3.350  10.840
90638SOL     OW73810   3.865   3.108  10.983
90638SOL    HW173811   3.914   3.190  10.983
90638SOL    HW273812   3.791   3.124  11.042
90639SOL     OW73813   5.301  12.459   0.436
90639SOL    HW173814   5.298  12.435   0.528
90639SOL    HW273815   5.356  12.538   0.434
90640SOL     OW73816  10.291   2.765   5.825
90640SOL    HW173817  10.366   2.732   5.775
90640SOL    HW273818  10.230   2.692   5.828
90641SOL     OW73819  13.651  10.125  13.903
90641SOL    HW173820  13.724  10.119  13.842
90641SOL    HW273821  13.578  10.081  13.858
90642SOL     OW73822   5.755  11.282   4.783
90642SOL    HW173823   5.699  11.210   4.755
90642SOL    HW273824   5.773  11.331   4.703
90643SOL     OW73825   7.268   1.518   1.800
90643SOL    HW173826   7.356   1.525   1.765
90643SOL    HW273827   7.281   1.494   1.892
90644SOL     OW73828   8.345  12.693   5.769
90644SOL    HW173829   8.417  12.635   5.794
90644SOL    HW273830   8.370  12.779   5.801
90645SOL     OW73831   3.721   5.481   2.969
90645SOL    HW173832   3.630   5.509   2.967
90645SOL    HW273833   3.733   5.433   2.887
90646SOL     OW73834   1.543  10.320   0.239
90646SOL    HW173835   1.576  10.308   0.150
90646SOL    HW273836   1.620  10.340   0.291
90647SOL     OW73837   5.386  12.352   4.953
90647SOL    HW173838   5.311  12.327   4.899
90647SOL    HW273839   5.462  12.337   4.897
90648SOL     OW73840   9.237  10.662   2.902
90648SOL    HW173841   9.314  10.671   2.847
90648SOL    HW273842   9.186  10.592   2.862
90649SOL     OW73843   7.082  11.590   6.658
90649SOL    HW173844   7.038  11.524   6.605
90649SOL    HW273845   7.166  11.606   6.614
90650SOL     OW73846   2.681   8.774   8.569
90650SOL    HW173847   2.614   8.716   8.605
90650SOL    HW273848   2.680   8.850   8.628
90651SOL     OW73849   6.390  12.244   3.123
90651SOL    HW173850   6.347  12.162   3.098
90651SOL    HW273851   6.418  12.229   3.213
90652SOL     OW73852  11.552   0.360   8.580
90652SOL    HW173853  11.499   0.294   8.534
90652SOL    HW273854  11.639   0.321   8.585
90653SOL     OW73855   0.905  11.556  10.052
90653SOL    HW173856   0.810  11.565  10.063
90653SOL    HW273857   0.929  11.628   9.994
90654SOL     OW73858   8.605   3.762   4.861
90654SOL    HW173859   8.550   3.725   4.930
90654SOL    HW273860   8.573   3.721   4.781
90655SOL     OW73861  11.194   3.686   5.598
90655SOL    HW173862  11.157   3.711   5.683
90655SOL    HW273863  11.165   3.596   5.585
90656SOL     OW73864   9.330   2.830   6.795
90656SOL    HW173865   9.245   2.821   6.839
90656SOL    HW273866   9.316   2.898   6.729
90657SOL     OW73867   6.866  12.382   6.988
90657SOL    HW173868   6.785  12.407   7.031
90657SOL    HW273869   6.910  12.325   7.051
90658SOL     OW73870   0.432   5.733   0.520
90658SOL    HW173871   0.362   5.712   0.458
90658SOL    HW273872   0.498   5.665   0.505
90659SOL     OW73873   6.238   4.059  10.105
90659SOL    HW173874   6.251   4.151  10.079
90659SOL    HW273875   6.210   4.064  10.196
90660SOL     OW73876   6.379  14.272   2.455
90660SOL    HW173877   6.452  14.279   2.394
90660SOL    HW273878   6.404  14.326   2.529
90661SOL     OW73879   5.810   2.854  14.656
90661SOL    HW173880   5.889   2.802  14.670
90661SOL    HW273881   5.742   2.790  14.634
90662SOL     OW73882   7.348  14.778   6.223
90662SOL    HW173883   7.279  14.834   6.258
90662SOL    HW273884   7.393  14.744   6.300
90663SOL     OW73885   9.286   1.959   8.566
90663SOL    HW173886   9.297   2.024   8.636
90663SOL    HW273887   9.375   1.927   8.549
90664SOL     OW73888   0.605   9.713  14.038
90664SOL    HW173889   0.603   9.741  13.946
90664SOL    HW273890   0.690   9.742  14.070
90665SOL     OW73891   4.807  14.560   5.661
90665SOL    HW173892   4.763  14.475   5.670
90665SOL    HW273893   4.842  14.578   5.748
90666SOL     OW73894   0.048   2.910   9.352
90666SOL    HW173895  14.829   2.925   9.315
90666SOL    HW273896   0.069   2.991   9.397
90667SOL     OW73897   6.477   6.985   8.859
90667SOL    HW173898   6.467   6.892   8.842
90667SOL    HW273899   6.391   7.013   8.889
90668SOL     OW73900   2.115   9.310   5.659
90668SOL    HW173901   2.125   9.403   5.675
90668SOL    HW273902   2.036   9.285   5.707
90669SOL     OW73903  12.571   2.751   0.395
90669SOL    HW173904  12.658   2.717   0.414
90669SOL    HW273905  12.515   2.711   0.463
90670SOL     OW73906   1.519  12.167   4.475
90670SOL    HW173907   1.564  12.239   4.429
90670SOL    HW273908   1.525  12.191   4.568
90671SOL     OW73909   3.300   2.046  13.504
90671SOL    HW173910   3.356   2.124  13.500
90671SOL    HW273911   3.275   2.029  13.413
90672SOL     OW73912   9.723   5.012   0.371
90672SOL    HW173913   9.812   4.990   0.397
90672SOL    HW273914   9.695   4.937   0.317
90673SOL     OW73915   6.251   2.940   0.613
90673SOL    HW173916   6.292   3.019   0.649
90673SOL    HW273917   6.170   2.930   0.663
90674SOL     OW73918   3.716   5.544  12.317
90674SOL    HW173919   3.714   5.585  12.404
90674SOL    HW273920   3.648   5.477  12.321
90675SOL     OW73921   4.245  13.635   5.139
90675SOL    HW173922   4.334  13.662   5.121
90675SOL    HW273923   4.244  13.616   5.233
90676SOL     OW73924  12.850   3.409  12.851
90676SOL    HW173925  12.806   3.494  12.852
90676SOL    HW273926  12.838   3.374  12.939
90677SOL     OW73927   9.573  14.298   0.413
90677SOL    HW173928   9.626  14.242   0.356
90677SOL    HW273929   9.485  14.294   0.377
90678SOL     OW73930   5.338   1.218   7.712
90678SOL    HW173931   5.251   1.226   7.673
90678SOL    HW273932   5.336   1.281   7.785
90679SOL     OW73933   2.733   8.107   1.827
90679SOL    HW173934   2.727   8.111   1.731
90679SOL    HW273935   2.740   8.014   1.847
90680SOL     OW73936   2.088   6.926  10.080
90680SOL    HW173937   2.097   6.990  10.150
90680SOL    HW273938   2.153   6.858  10.102
90681SOL     OW73939  12.389   1.807  12.791
90681SOL    HW173940  12.419   1.805  12.882
90681SOL    HW273941  12.454   1.755  12.744
90682SOL     OW73942   9.149  12.999   2.553
90682SOL    HW173943   9.227  13.043   2.588
90682SOL    HW273944   9.184  12.933   2.493
90683SOL     OW73945  12.060   3.081  11.639
90683SOL    HW173946  11.977   3.095  11.592
90683SOL    HW273947  12.123   3.062  11.570
90684SOL     OW73948   6.585  10.972   5.537
90684SOL    HW173949   6.652  10.982   5.605
90684SOL    HW273950   6.546  10.886   5.555
90685SOL     OW73951   8.001   5.519  12.649
90685SOL    HW173952   7.995   5.509  12.744
90685SOL    HW273953   7.938   5.589  12.628
90686SOL     OW73954   3.603  11.819   3.679
90686SOL    HW173955   3.695  11.812   3.702
90686SOL    HW273956   3.556  11.785   3.755
90687SOL     OW73957   1.979  11.084  12.678
90687SOL    HW173958   1.889  11.105  12.653
90687SOL    HW273959   1.992  11.131  12.760
90688SOL     OW73960  11.185   6.592   5.580
90688SOL    HW173961  11.146   6.515   5.621
90688SOL    HW273962  11.154   6.588   5.489
90689SOL     OW73963  10.050  14.809   1.885
90689SOL    HW173964   9.986  14.832   1.818
90689SOL    HW273965  10.124  14.772   1.837
90690SOL     OW73966  13.266  11.067  10.339
90690SOL    HW173967  13.270  11.013  10.418
90690SOL    HW273968  13.349  11.114  10.338
90691SOL     OW73969  11.322  13.918   5.288
90691SOL    HW173970  11.243  13.937   5.339
90691SOL    HW273971  11.301  13.837   5.242
90692SOL     OW73972   7.066   6.311   1.516
90692SOL    HW173973   6.997   6.295   1.451
90692SOL    HW273974   7.074   6.406   1.520
90693SOL     OW73975  10.090  14.406   4.280
90693SOL    HW173976  10.156  14.470   4.254
90693SOL    HW273977  10.091  14.341   4.209
90694SOL     OW73978   8.858   9.022   1.591
90694SOL    HW173979   8.884   8.973   1.513
90694SOL    HW273980   8.777   8.980   1.621
90695SOL     OW73981   0.764   7.803  10.440
90695SOL    HW173982   0.697   7.823  10.506
90695SOL    HW273983   0.748   7.866  10.370
90696SOL     OW73984   1.128   2.110   0.191
90696SOL    HW173985   1.185   2.037   0.167
90696SOL    HW273986   1.136   2.172   0.119
90697SOL     OW73987   3.430  10.781  11.996
90697SOL    HW173988   3.468  10.863  11.965
90697SOL    HW273989   3.344  10.777  11.952
90698SOL     OW73990   0.531  12.637  10.886
90698SOL    HW173991   0.477  12.673  10.955
90698SOL    HW273992   0.488  12.663  10.805
90699SOL     OW73993   3.697  10.412   3.497
90699SOL    HW173994   3.740  10.382   3.577
90699SOL    HW273995   3.768  10.437   3.438
90700SOL     OW73996   9.122   8.368   1.200
90700SOL    HW173997   9.210   8.404   1.185
90700SOL    HW273998   9.136   8.292   1.256
90701SOL     OW73999   4.238  12.428   1.533
90701SOL    HW174000   4.148  12.409   1.562
90701SOL    HW274001   4.227  12.478   1.453
90702SOL     OW74002   4.631   7.006   2.796
90702SOL    HW174003   4.636   7.092   2.753
90702SOL    HW274004   4.700   6.955   2.754
90703SOL     OW74005  12.679   7.300   5.248
90703SOL    HW174006  12.703   7.356   5.174
90703SOL    HW274007  12.601   7.254   5.218
90704SOL     OW74008   8.082  12.265  13.381
90704SOL    HW174009   8.097  12.228  13.294
90704SOL    HW274010   8.151  12.331  13.391
90705SOL     OW74011   9.813   4.206   8.196
90705SOL    HW174012   9.883   4.150   8.228
90705SOL    HW274013   9.735   4.176   8.244
90706SOL     OW74014   4.633   1.869   4.112
90706SOL    HW174015   4.580   1.943   4.139
90706SOL    HW274016   4.723   1.902   4.112
90707SOL     OW74017  11.658   6.601   2.532
90707SOL    HW174018  11.722   6.574   2.597
90707SOL    HW274019  11.678   6.693   2.515
90708SOL     OW74020   2.567   8.294   4.779
90708SOL    HW174021   2.511   8.217   4.768
90708SOL    HW274022   2.630   8.289   4.708
90709SOL     OW74023   5.381   7.041  13.657
90709SOL    HW174024   5.340   7.024  13.572
90709SOL    HW274025   5.454   6.979  13.662
90710SOL     OW74026  11.134  10.394  11.839
90710SOL    HW174027  11.069  10.423  11.775
90710SOL    HW274028  11.206  10.456  11.832
90711SOL     OW74029  11.311   1.169   3.194
90711SOL    HW174030  11.356   1.218   3.125
90711SOL    HW274031  11.224   1.151   3.158
90712SOL     OW74032   3.475  12.813   8.006
90712SOL    HW174033   3.445  12.763   8.081
90712SOL    HW274034   3.565  12.837   8.027
90713SOL     OW74035  10.426   3.469  14.418
90713SOL    HW174036  10.451   3.558  14.443
90713SOL    HW274037  10.502   3.416  14.438
90714SOL     OW74038   0.664   0.490  14.228
90714SOL    HW174039   0.586   0.519  14.275
90714SOL    HW274040   0.737   0.524  14.279
90715SOL     OW74041  12.008   2.971   0.091
90715SOL    HW174042  11.954   3.023   0.151
90715SOL    HW274043  12.031   3.031   0.020
90716SOL     OW74044  11.796  13.430   4.230
90716SOL    HW174045  11.761  13.358   4.179
90716SOL    HW274046  11.881  13.450   4.190
90717SOL     OW74047   1.915  14.093  12.237
90717SOL    HW174048   1.821  14.095  12.256
90717SOL    HW274049   1.950  14.024  12.294
90718SOL     OW74050   1.347  11.931   6.067
90718SOL    HW174051   1.338  12.014   6.021
90718SOL    HW274052   1.263  11.886   6.053
90719SOL     OW74053   9.719   5.226   4.742
90719SOL    HW174054   9.724   5.131   4.732
90719SOL    HW274055   9.796   5.248   4.794
90720SOL     OW74056  10.829  11.120   8.685
90720SOL    HW174057  10.904  11.177   8.703
90720SOL    HW274058  10.785  11.110   8.770
90721SOL     OW74059   2.375   5.014  13.964
90721SOL    HW174060   2.347   4.923  13.963
90721SOL    HW274061   2.448   5.018  13.903
90722SOL     OW74062   6.177   7.627   5.347
90722SOL    HW174063   6.205   7.600   5.434
90722SOL    HW274064   6.149   7.545   5.305
90723SOL     OW74065   0.793   1.578   3.291
90723SOL    HW174066   0.849   1.554   3.218
90723SOL    HW274067   0.705   1.583   3.254
90724SOL     OW74068   5.584   6.331   1.982
90724SOL    HW174069   5.539   6.318   1.898
90724SOL    HW274070   5.519   6.375   2.037
90725SOL     OW74071  14.776  13.547  13.566
90725SOL    HW174072  14.830  13.559  13.488
90725SOL    HW274073  14.718  13.623  13.566
90726SOL     OW74074  12.799   6.006   7.897
90726SOL    HW174075  12.808   6.098   7.921
90726SOL    HW274076  12.889   5.973   7.894
90727SOL     OW74077  11.451  12.379   2.023
90727SOL    HW174078  11.463  12.450   2.087
90727SOL    HW274079  11.532  12.329   2.027
90728SOL     OW74080   2.477  11.003   1.925
90728SOL    HW174081   2.433  10.993   2.009
90728SOL    HW274082   2.562  11.042   1.946
90729SOL     OW74083   7.910   2.608  11.713
90729SOL    HW174084   7.834   2.661  11.739
90729SOL    HW274085   7.933   2.640  11.626
90730SOL     OW74086   2.028  11.379   5.970
90730SOL    HW174087   2.079  11.424   6.037
90730SOL    HW274088   1.995  11.301   6.015
90731SOL     OW74089   4.168  11.185   8.907
90731SOL    HW174090   4.216  11.186   8.824
90731SOL    HW274091   4.080  11.154   8.884
90732SOL     OW74092  14.252   0.581  11.842
90732SOL    HW174093  14.205   0.497  11.833
90732SOL    HW274094  14.233   0.628  11.761
90733SOL     OW74095   6.684   9.271  10.398
90733SOL    HW174096   6.642   9.355  10.417
90733SOL    HW274097   6.736   9.287  10.319
90734SOL     OW74098   5.397   0.903   9.150
90734SOL    HW174099   5.445   0.899   9.232
90734SOL    HW274100   5.416   0.989   9.114
90735SOL     OW74101  11.761  13.572   8.980
90735SOL    HW174102  11.685  13.515   8.980
90735SOL    HW274103  11.752  13.623   9.061
90736SOL     OW74104  12.728   2.776   3.733
90736SOL    HW174105  12.712   2.794   3.826
90736SOL    HW274106  12.640   2.775   3.694
90737SOL     OW74107  14.865   6.453   7.634
90737SOL    HW174108   0.044   6.536   7.625
90737SOL    HW274109  14.854   6.443   7.728
90738SOL     OW74110   9.091  14.188   5.061
90738SOL    HW174111   9.033  14.133   5.008
90738SOL    HW274112   9.179  14.168   5.029
90739SOL     OW74113   3.538   4.858   2.478
90739SOL    HW174114   3.523   4.773   2.437
90739SOL    HW274115   3.625   4.884   2.447
90740SOL     OW74116   8.903   5.356   6.037
90740SOL    HW174117   8.906   5.264   6.010
90740SOL    HW274118   8.862   5.401   5.963
90741SOL     OW74119   8.326  10.782   0.427
90741SOL    HW174120   8.408  10.763   0.381
90741SOL    HW274121   8.287  10.697   0.443
90742SOL     OW74122  12.085   7.523  12.301
90742SOL    HW174123  12.021   7.565  12.358
90742SOL    HW274124  12.121   7.452  12.355
90743SOL     OW74125   5.844  14.311   1.729
90743SOL    HW174126   5.757  14.286   1.760
90743SOL    HW274127   5.898  14.234   1.743
90744SOL     OW74128   9.442   0.105  10.168
90744SOL    HW174129   9.428   0.134  10.078
90744SOL    HW274130   9.457   0.011  10.161
90745SOL     OW74131   3.575   1.154   4.040
90745SOL    HW174132   3.536   1.223   4.092
90745SOL    HW274133   3.665   1.147   4.072
90746SOL     OW74134  13.101   7.151   1.999
90746SOL    HW174135  13.109   7.063   1.962
90746SOL    HW274136  13.168   7.202   1.954
90747SOL     OW74137  14.000   5.828   7.495
90747SOL    HW174138  13.973   5.741   7.465
90747SOL    HW274139  13.990   5.884   7.419
90748SOL     OW74140   4.717   5.285   1.256
90748SOL    HW174141   4.796   5.330   1.285
90748SOL    HW274142   4.682   5.243   1.334
90749SOL     OW74143   5.659   2.951   5.866
90749SOL    HW174144   5.581   2.900   5.847
90749SOL    HW274145   5.721   2.926   5.798
90750SOL     OW74146   9.005  13.002  10.571
90750SOL    HW174147   9.024  12.910  10.590
90750SOL    HW274148   8.910  13.009  10.583
90751SOL     OW74149  13.660   1.047   5.570
90751SOL    HW174150  13.675   1.078   5.659
90751SOL    HW274151  13.671   0.952   5.575
90752SOL     OW74152  12.740  13.394  12.188
90752SOL    HW174153  12.802  13.466  12.197
90752SOL    HW274154  12.662  13.434  12.149
90753SOL     OW74155   7.469  12.954   8.361
90753SOL    HW174156   7.433  13.040   8.383
90753SOL    HW274157   7.529  12.970   8.289
90754SOL     OW74158   9.845   6.069   0.364
90754SOL    HW174159   9.775   6.108   0.418
90754SOL    HW274160   9.800   6.007   0.308
90755SOL     OW74161   9.375   5.718  14.771
90755SOL    HW174162   9.282   5.715  14.792
90755SOL    HW274163   9.379   5.698  14.678
90756SOL     OW74164   4.228  13.744   0.404
90756SOL    HW174165   4.173  13.712   0.333
90756SOL    HW274166   4.222  13.840   0.397
90757SOL     OW74167  13.358   5.659  12.256
90757SOL    HW174168  13.353   5.573  12.215
90757SOL    HW274169  13.300   5.714  12.204
90758SOL     OW74170   2.616   1.341   2.204
90758SOL    HW174171   2.667   1.269   2.168
90758SOL    HW274172   2.605   1.319   2.297
90759SOL     OW74173  13.622   0.658   4.043
90759SOL    HW174174  13.548   0.622   3.994
90759SOL    HW274175  13.662   0.720   3.982
90760SOL     OW74176   6.700   4.943   8.036
90760SOL    HW174177   6.709   5.037   8.054
90760SOL    HW274178   6.609   4.933   8.008
90761SOL     OW74179   0.229   0.559  10.085
90761SOL    HW174180   0.290   0.498  10.042
90761SOL    HW274181   0.275   0.585  10.165
90762SOL     OW74182   9.640   3.411  12.078
90762SOL    HW174183   9.692   3.486  12.107
90762SOL    HW274184   9.669   3.339  12.133
90763SOL     OW74185   9.328   8.863  11.472
90763SOL    HW174186   9.286   8.948  11.458
90763SOL    HW274187   9.388   8.853  11.399
90764SOL     OW74188   6.916   7.719   7.281
90764SOL    HW174189   6.854   7.728   7.209
90764SOL    HW274190   6.870   7.752   7.358
90765SOL     OW74191  14.837   1.436  12.709
90765SOL    HW174192  14.793   1.497  12.650
90765SOL    HW274193  14.792   1.353  12.695
90766SOL     OW74194   5.560   9.375   5.194
90766SOL    HW174195   5.516   9.413   5.270
90766SOL    HW274196   5.562   9.281   5.212
90767SOL     OW74197   4.378  14.629  13.071
90767SOL    HW174198   4.361  14.716  13.108
90767SOL    HW274199   4.441  14.646  13.000
90768SOL     OW74200   7.801   5.991  13.857
90768SOL    HW174201   7.863   5.958  13.793
90768SOL    HW274202   7.758   6.065  13.814
90769SOL     OW74203   0.731   9.436   0.018
90769SOL    HW174204   0.704   9.374  14.818
90769SOL    HW274205   0.689   9.518  14.861
90770SOL     OW74206   3.003  12.044   5.117
90770SOL    HW174207   3.064  12.080   5.053
90770SOL    HW274208   2.968  11.965   5.076
90771SOL     OW74209   9.086   0.233   4.524
90771SOL    HW174210   9.099   0.213   4.431
90771SOL    HW274211   9.175   0.232   4.561
90772SOL     OW74212   9.333   7.097  13.660
90772SOL    HW174213   9.306   7.033  13.595
90772SOL    HW274214   9.428   7.093  13.660
90773SOL     OW74215  11.633  14.165   5.862
90773SOL    HW174216  11.621  14.228   5.791
90773SOL    HW274217  11.670  14.087   5.819
90774SOL     OW74218   2.645  12.450   3.578
90774SOL    HW174219   2.584  12.517   3.610
90774SOL    HW274220   2.611  12.426   3.492
90775SOL     OW74221   7.517   0.261   0.060
90775SOL    HW174222   7.429   0.224   0.072
90775SOL    HW274223   7.521   0.332   0.124
90776SOL     OW74224   0.628   3.325   5.347
90776SOL    HW174225   0.599   3.239   5.318
90776SOL    HW274226   0.608   3.326   5.441
90777SOL     OW74227   6.569   6.871   2.301
90777SOL    HW174228   6.517   6.926   2.361
90777SOL    HW274229   6.646   6.924   2.282
90778SOL     OW74230  13.069   7.218  10.034
90778SOL    HW174231  12.996   7.188  10.089
90778SOL    HW274232  13.096   7.300  10.074
90779SOL     OW74233  11.716  12.127  13.127
90779SOL    HW174234  11.716  12.082  13.043
90779SOL    HW274235  11.623  12.137  13.149
90780SOL     OW74236   0.612   1.343  13.137
90780SOL    HW174237   0.587   1.258  13.102
90780SOL    HW274238   0.700   1.358  13.102
90781SOL     OW74239   0.529  12.391   5.221
90781SOL    HW174240   0.544  12.324   5.288
90781SOL    HW274241   0.538  12.474   5.268
90782SOL     OW74242  11.874   8.566   6.226
90782SOL    HW174243  11.870   8.634   6.159
90782SOL    HW274244  11.799   8.510   6.207
90783SOL     OW74245  12.635  10.770   2.161
90783SOL    HW174246  12.657  10.706   2.094
90783SOL    HW274247  12.709  10.768   2.222
90784SOL     OW74248  11.038   0.811   7.339
90784SOL    HW174249  10.985   0.798   7.418
90784SOL    HW274250  10.983   0.863   7.282
90785SOL     OW74251   4.651   6.699  12.551
90785SOL    HW174252   4.582   6.764  12.563
90785SOL    HW274253   4.608   6.615  12.564
90786SOL     OW74254  12.594   5.487   0.426
90786SOL    HW174255  12.532   5.555   0.400
90786SOL    HW274256  12.545   5.405   0.417
90787SOL     OW74257   2.620   2.007   5.136
90787SOL    HW174258   2.626   2.077   5.201
90787SOL    HW274259   2.575   1.936   5.182
90788SOL     OW74260   8.980   7.597   6.328
90788SOL    HW174261   9.031   7.599   6.409
90788SOL    HW274262   8.910   7.535   6.346
90789SOL     OW74263   7.531  14.415   3.671
90789SOL    HW174264   7.576  14.423   3.755
90789SOL    HW274265   7.524  14.505   3.639
90790SOL     OW74266   3.619  14.176   1.078
90790SOL    HW174267   3.576  14.091   1.069
90790SOL    HW274268   3.549  14.236   1.103
90791SOL     OW74269   4.322   2.550   9.363
90791SOL    HW174270   4.272   2.632   9.368
90791SOL    HW274271   4.290   2.507   9.283
90792SOL     OW74272   5.249   7.597  13.230
90792SOL    HW174273   5.199   7.527  13.191
90792SOL    HW274274   5.341   7.572  13.217
90793SOL     OW74275  12.360  13.939   9.375
90793SOL    HW174276  12.280  13.888   9.386
90793SOL    HW274277  12.337  14.027   9.403
90794SOL     OW74278   0.009   6.470  10.543
90794SOL    HW174279   0.068   6.425  10.483
90794SOL    HW274280   0.014   6.562  10.517
90795SOL     OW74281   6.119   9.509   3.756
90795SOL    HW174282   6.056   9.437   3.761
90795SOL    HW274283   6.182   9.480   3.690
90796SOL     OW74284  14.343   2.015  11.789
90796SOL    HW174285  14.394   2.039  11.867
90796SOL    HW274286  14.258   2.057  11.803
90797SOL     OW74287  12.979   2.573   4.491
90797SOL    HW174288  12.913   2.618   4.439
90797SOL    HW274289  12.938   2.561   4.577
90798SOL     OW74290  13.378   5.373  13.561
90798SOL    HW174291  13.377   5.278  13.550
90798SOL    HW274292  13.446   5.404  13.501
90799SOL     OW74293   2.186   9.106  11.740
90799SOL    HW174294   2.263   9.158  11.764
90799SOL    HW274295   2.113   9.149  11.785
90800SOL     OW74296   8.377  10.649  12.761
90800SOL    HW174297   8.400  10.737  12.733
90800SOL    HW274298   8.334  10.610  12.685
90801SOL     OW74299   6.474   0.213   1.920
90801SOL    HW174300   6.477   0.165   1.837
90801SOL    HW274301   6.514   0.153   1.983
90802SOL     OW74302  12.853   9.114  14.430
90802SOL    HW174303  12.839   9.066  14.511
90802SOL    HW274304  12.924   9.068  14.386
90803SOL     OW74305   5.020   0.079  12.358
90803SOL    HW174306   5.023   0.173  12.345
90803SOL    HW274307   5.082   0.062  12.430
90804SOL     OW74308  10.328  11.337  10.568
90804SOL    HW174309  10.247  11.328  10.618
90804SOL    HW274310  10.348  11.249  10.538
90805SOL     OW74311  14.515  10.143   4.264
90805SOL    HW174312  14.454  10.120   4.334
90805SOL    HW274313  14.511  10.238   4.258
90806SOL     OW74314   9.134  11.015  12.206
90806SOL    HW174315   9.202  11.056  12.259
90806SOL    HW274316   9.182  10.963  12.141
90807SOL     OW74317  14.678  14.663  14.582
90807SOL    HW174318  14.710  14.573  14.581
90807SOL    HW274319  14.628  14.670  14.664
90808SOL     OW74320   3.517   0.443   2.258
90808SOL    HW174321   3.458   0.492   2.201
90808SOL    HW274322   3.496   0.474   2.346
90809SOL     OW74323   5.556  13.077   4.233
90809SOL    HW174324   5.637  13.103   4.188
90809SOL    HW274325   5.495  13.058   4.161
90810SOL     OW74326  11.781   1.860   1.449
90810SOL    HW174327  11.808   1.781   1.403
90810SOL    HW274328  11.765   1.924   1.380
90811SOL     OW74329  13.256   4.196   1.181
90811SOL    HW174330  13.334   4.149   1.154
90811SOL    HW274331  13.278   4.289   1.169
90812SOL     OW74332   0.996   1.679  14.022
90812SOL    HW174333   0.979   1.585  14.032
90812SOL    HW274334   1.084   1.684  13.986
90813SOL     OW74335   4.451   2.632  10.853
90813SOL    HW174336   4.375   2.599  10.805
90813SOL    HW274337   4.438   2.727  10.858
90814SOL     OW74338   7.331   8.142   8.851
90814SOL    HW174339   7.281   8.123   8.930
90814SOL    HW274340   7.266   8.163   8.784
90815SOL     OW74341   5.195  10.672  10.876
90815SOL    HW174342   5.185  10.762  10.844
90815SOL    HW274343   5.186  10.680  10.971
90816SOL     OW74344   4.634  13.915   7.924
90816SOL    HW174345   4.676  13.960   7.997
90816SOL    HW274346   4.592  13.985   7.873
90817SOL     OW74347  12.896   0.327   2.573
90817SOL    HW174348  12.837   0.353   2.643
90817SOL    HW274349  12.957   0.401   2.563
90818SOL     OW74350   3.660  14.713   2.981
90818SOL    HW174351   3.671  14.623   2.952
90818SOL    HW274352   3.566  14.730   2.975
90819SOL     OW74353   9.526   4.196  10.343
90819SOL    HW174354   9.616   4.225  10.352
90819SOL    HW274355   9.478   4.274  10.316
90820SOL     OW74356   7.668   7.483  14.262
90820SOL    HW174357   7.719   7.455  14.187
90820SOL    HW274358   7.701   7.570  14.284
90821SOL     OW74359   3.339   7.047  10.439
90821SOL    HW174360   3.363   6.958  10.465
90821SOL    HW274361   3.417   7.099  10.455
90822SOL     OW74362   2.460  13.813   8.508
90822SOL    HW174363   2.463  13.891   8.564
90822SOL    HW274364   2.460  13.740   8.570
90823SOL     OW74365  10.692  14.343   8.784
90823SOL    HW174366  10.708  14.266   8.730
90823SOL    HW274367  10.615  14.384   8.745
90824SOL     OW74368   2.471   5.342   4.009
90824SOL    HW174369   2.457   5.250   3.989
90824SOL    HW274370   2.442   5.388   3.930
90825SOL     OW74371   2.900   2.824  12.271
90825SOL    HW174372   2.888   2.732  12.294
90825SOL    HW274373   2.995   2.837  12.269
90826SOL     OW74374   3.572   3.711   1.280
90826SOL    HW174375   3.581   3.792   1.330
90826SOL    HW274376   3.662   3.690   1.252
90827SOL     OW74377  13.688  10.411   6.019
90827SOL    HW174378  13.741  10.349   5.970
90827SOL    HW274379  13.714  10.399   6.110
90828SOL     OW74380   8.524   0.406   7.079
90828SOL    HW174381   8.447   0.464   7.080
90828SOL    HW274382   8.553   0.403   7.170
90829SOL     OW74383  11.038   3.124   3.862
90829SOL    HW174384  11.034   3.060   3.791
90829SOL    HW274385  11.130   3.123   3.890
90830SOL     OW74386   0.516   0.918   9.121
90830SOL    HW174387   0.567   0.951   9.047
90830SOL    HW274388   0.427   0.950   9.105
90831SOL     OW74389  12.678  12.246   3.102
90831SOL    HW174390  12.647  12.324   3.056
90831SOL    HW274391  12.678  12.178   3.035
90832SOL     OW74392   7.530   8.500   1.282
90832SOL    HW174393   7.590   8.558   1.235
90832SOL    HW274394   7.476   8.461   1.212
90833SOL     OW74395   5.641  10.997  12.047
90833SOL    HW174396   5.654  11.042  12.131
90833SOL    HW274397   5.695  10.919  12.052
90834SOL     OW74398   3.220   7.324   3.801
90834SOL    HW174399   3.205   7.361   3.714
90834SOL    HW274400   3.219   7.400   3.859
90835SOL     OW74401   7.284   4.527   1.192
90835SOL    HW174402   7.354   4.574   1.236
90835SOL    HW274403   7.273   4.446   1.243
90836SOL     OW74404   8.193  11.815  11.636
90836SOL    HW174405   8.175  11.722  11.649
90836SOL    HW274406   8.118  11.860  11.676
90837SOL     OW74407   8.098   7.124   7.223
90837SOL    HW174408   8.026   7.136   7.285
90837SOL    HW274409   8.058   7.133   7.137
90838SOL     OW74410  12.487   6.267  14.624
90838SOL    HW174411  12.569   6.251  14.577
90838SOL    HW274412  12.451   6.346  14.584
90839SOL     OW74413   7.396   5.874   9.213
90839SOL    HW174414   7.345   5.891   9.134
90839SOL    HW274415   7.395   5.779   9.223
90840SOL     OW74416   3.174   0.056   1.868
90840SOL    HW174417   3.096   0.104   1.896
90840SOL    HW274418   3.182   0.074   1.775
90841SOL     OW74419   7.016   3.013   8.568
90841SOL    HW174420   6.968   3.067   8.631
90841SOL    HW274421   7.052   3.075   8.505
90842SOL     OW74422   3.995   2.405  14.710
90842SOL    HW174423   3.981   2.494  14.676
90842SOL    HW274424   3.910   2.379  14.746
90843SOL     OW74425  11.133   9.281   2.123
90843SOL    HW174426  11.198   9.304   2.190
90843SOL    HW274427  11.162   9.196   2.090
90844SOL     OW74428   0.654  10.347  14.467
90844SOL    HW174429   0.688  10.434  14.445
90844SOL    HW274430   0.733  10.293  14.480
90845SOL     OW74431   2.641   0.673  14.417
90845SOL    HW174432   2.559   0.631  14.389
90845SOL    HW274433   2.672   0.719  14.340
90846SOL     OW74434   5.139  10.701   9.237
90846SOL    HW174435   5.166  10.629   9.295
90846SOL    HW274436   5.134  10.777   9.295
90847SOL     OW74437   3.210   0.166   3.335
90847SOL    HW174438   3.274   0.211   3.280
90847SOL    HW274439   3.200   0.223   3.412
90848SOL     OW74440   1.336   8.733   4.174
90848SOL    HW174441   1.338   8.705   4.082
90848SOL    HW274442   1.244   8.726   4.199
90849SOL     OW74443  12.605  11.378  12.558
90849SOL    HW174444  12.650  11.304  12.598
90849SOL    HW274445  12.628  11.373  12.465
90850SOL     OW74446   2.594  11.346   0.393
90850SOL    HW174447   2.570  11.431   0.356
90850SOL    HW274448   2.686  11.334   0.367
90851SOL     OW74449   3.907   6.982  14.604
90851SOL    HW174450   3.912   6.978  14.509
90851SOL    HW274451   3.964   7.055  14.628
90852SOL     OW74452   8.139   8.200   1.818
90852SOL    HW174453   8.149   8.175   1.726
90852SOL    HW274454   8.053   8.242   1.822
90853SOL     OW74455  10.100  12.674   7.805
90853SOL    HW174456  10.097  12.743   7.870
90853SOL    HW274457  10.192  12.664   7.784
90854SOL     OW74458   3.588   4.555   0.364
90854SOL    HW174459   3.573   4.537   0.457
90854SOL    HW274460   3.617   4.647   0.362
90855SOL     OW74461   6.300  13.395   9.413
90855SOL    HW174462   6.337  13.375   9.327
90855SOL    HW274463   6.300  13.311   9.459
90856SOL     OW74464  12.111   5.134  13.457
90856SOL    HW174465  12.149   5.190  13.525
90856SOL    HW274466  12.167   5.148  13.380
90857SOL     OW74467   1.487  14.608   5.839
90857SOL    HW174468   1.569  14.572   5.873
90857SOL    HW274469   1.507  14.636   5.750
90858SOL     OW74470   9.810  11.299  12.160
90858SOL    HW174471   9.871  11.359  12.203
90858SOL    HW274472   9.770  11.351  12.090
90859SOL     OW74473   2.882  11.968   6.420
90859SOL    HW174474   2.841  11.944   6.337
90859SOL    HW274475   2.960  12.017   6.394
90860SOL     OW74476  14.177   1.131   2.923
90860SOL    HW174477  14.174   1.084   2.839
90860SOL    HW274478  14.192   1.222   2.899
90861SOL     OW74479  13.496  14.370   0.403
90861SOL    HW174480  13.432  14.438   0.427
90861SOL    HW274481  13.468  14.293   0.452
90862SOL     OW74482  11.173   4.174   4.756
90862SOL    HW174483  11.250   4.199   4.704
90862SOL    HW274484  11.108   4.242   4.735
90863SOL     OW74485   8.265   8.984   8.409
90863SOL    HW174486   8.188   8.927   8.414
90863SOL    HW274487   8.230   9.069   8.383
90864SOL     OW74488  13.832   0.014   4.608
90864SOL    HW174489  13.744   0.013   4.570
90864SOL    HW274490  13.850  14.791   4.628
90865SOL     OW74491   5.647   8.146   0.650
90865SOL    HW174492   5.714   8.202   0.611
90865SOL    HW274493   5.680   8.057   0.639
90866SOL     OW74494  13.525  10.033  12.490
90866SOL    HW174495  13.541  10.015  12.582
90866SOL    HW274496  13.512  10.127  12.486
90867SOL     OW74497   9.520   4.326   6.054
90867SOL    HW174498   9.480   4.336   5.967
90867SOL    HW274499   9.456   4.276   6.104
90868SOL     OW74500   7.902   8.351   1.895
90868SOL    HW174501   7.932   8.441   1.888
90868SOL    HW274502   7.821   8.349   1.845
90869SOL     OW74503  13.290  11.969   1.546
90869SOL    HW174504  13.280  11.880   1.513
90869SOL    HW274505  13.224  12.021   1.499
90870SOL     OW74506   5.709   2.700   6.742
90870SOL    HW174507   5.761   2.749   6.805
90870SOL    HW274508   5.748   2.721   6.657
90871SOL     OW74509   9.224   5.267  12.357
90871SOL    HW174510   9.209   5.217  12.277
90871SOL    HW274511   9.275   5.343  12.329
90872SOL     OW74512   3.574  12.966   8.343
90872SOL    HW174513   3.592  12.872   8.350
90872SOL    HW274514   3.648  13.000   8.292
90873SOL     OW74515   5.885   1.956  12.223
90873SOL    HW174516   5.948   2.000  12.166
90873SOL    HW274517   5.800   1.968  12.179
90874SOL     OW74518   0.306  10.919  14.765
90874SOL    HW174519   0.322  10.826  14.755
90874SOL    HW274520   0.214  10.926  14.790
90875SOL     OW74521   8.379   4.330  13.132
90875SOL    HW174522   8.409   4.420  13.143
90875SOL    HW274523   8.327   4.331  13.051
90876SOL     OW74524   4.272  10.276  13.604
90876SOL    HW174525   4.358  10.309  13.578
90876SOL    HW274526   4.251  10.324  13.685
90877SOL     OW74527   9.417   0.419   2.000
90877SOL    HW174528   9.380   0.378   2.078
90877SOL    HW274529   9.512   0.411   2.011
90878SOL     OW74530  10.129   3.516   7.650
90878SOL    HW174531  10.042   3.475   7.643
90878SOL    HW274532  10.126   3.564   7.733
90879SOL     OW74533  13.944  11.313   9.715
90879SOL    HW174534  14.011  11.372   9.680
90879SOL    HW274535  13.986  11.227   9.714
90880SOL     OW74536   7.537   4.756  11.007
90880SOL    HW174537   7.516   4.711  11.089
90880SOL    HW274538   7.614   4.710  10.974
90881SOL     OW74539   4.608   0.412   2.639
90881SOL    HW174540   4.610   0.503   2.667
90881SOL    HW274541   4.578   0.416   2.548
90882SOL     OW74542   6.345   0.825   5.239
90882SOL    HW174543   6.288   0.788   5.171
90882SOL    HW274544   6.340   0.920   5.225
90883SOL     OW74545  14.837   1.555   4.536
90883SOL    HW174546   0.013   1.623   4.485
90883SOL    HW274547  14.837   1.589   4.626
90884SOL     OW74548   5.064   5.873   3.019
90884SOL    HW174549   5.000   5.912   2.960
90884SOL    HW274550   5.047   5.915   3.103
90885SOL     OW74551   4.070  13.910   4.901
90885SOL    HW174552   4.094  13.877   4.815
90885SOL    HW274553   4.053  13.832   4.953
90886SOL     OW74554   6.579   3.223   1.513
90886SOL    HW174555   6.562   3.286   1.583
90886SOL    HW274556   6.548   3.139   1.548
90887SOL     OW74557   3.173  10.096  14.182
90887SOL    HW174558   3.217  10.152  14.245
90887SOL    HW274559   3.159  10.152  14.105
90888SOL     OW74560   6.586  13.731  12.627
90888SOL    HW174561   6.664  13.750  12.680
90888SOL    HW274562   6.558  13.816  12.594
90889SOL     OW74563   5.783  10.194   3.871
90889SOL    HW174564   5.784  10.101   3.845
90889SOL    HW274565   5.777  10.192   3.966
90890SOL     OW74566  13.243   8.238  13.601
90890SOL    HW174567  13.313   8.297  13.629
90890SOL    HW274568  13.266   8.215  13.510
90891SOL     OW74569   2.990  14.762   7.057
90891SOL    HW174570   3.011  14.696   6.991
90891SOL    HW274571   3.058  14.828   7.047
90892SOL     OW74572   0.912   6.272   7.613
90892SOL    HW174573   0.887   6.315   7.531
90892SOL    HW274574   0.968   6.200   7.587
90893SOL     OW74575   7.189   2.946  11.064
90893SOL    HW174576   7.246   2.937  10.987
90893SOL    HW274577   7.237   3.005  11.122
90894SOL     OW74578  13.676  13.995   4.319
90894SOL    HW174579  13.769  14.001   4.297
90894SOL    HW274580  13.632  13.987   4.234
90895SOL     OW74581   9.566   3.072   9.140
90895SOL    HW174582   9.660   3.090   9.147
90895SOL    HW274583   9.556   2.983   9.173
90896SOL     OW74584   6.950  11.618   5.834
90896SOL    HW174585   7.007  11.689   5.863
90896SOL    HW274586   6.952  11.623   5.739
90897SOL     OW74587  11.897   3.136   3.293
90897SOL    HW174588  11.955   3.184   3.234
90897SOL    HW274589  11.954   3.099   3.359
90898SOL     OW74590   7.596   4.138   8.311
90898SOL    HW174591   7.528   4.075   8.287
90898SOL    HW274592   7.655   4.140   8.236
90899SOL     OW74593   1.142   6.836   3.633
90899SOL    HW174594   1.074   6.900   3.610
90899SOL    HW274595   1.132   6.824   3.727
90900SOL     OW74596  10.186   4.047  12.487
90900SOL    HW174597  10.174   4.138  12.461
90900SOL    HW274598  10.160   4.044  12.579
90901SOL     OW74599   2.788  12.742   0.893
90901SOL    HW174600   2.814  12.769   0.804
90901SOL    HW274601   2.747  12.657   0.881
90902SOL     OW74602   9.592   6.136   0.491
90902SOL    HW174603   9.569   6.169   0.404
90902SOL    HW274604   9.516   6.157   0.545
90903SOL     OW74605  10.655  10.135  11.678
90903SOL    HW174606  10.600  10.185  11.738
90903SOL    HW274607  10.598  10.115  11.603
90904SOL     OW74608   9.439   4.080   0.037
90904SOL    HW174609   9.475   4.026  14.835
90904SOL    HW274610   9.355   4.040   0.058
90905SOL     OW74611   8.081   8.549  14.847
90905SOL    HW174612   8.070   8.454  14.847
90905SOL    HW274613   8.128   8.568  14.765
90906SOL     OW74614   5.789   0.200  12.271
90906SOL    HW174615   5.775   0.171  12.361
90906SOL    HW274616   5.739   0.281  12.264
90907SOL     OW74617   3.502   7.583   3.642
90907SOL    HW174618   3.481   7.671   3.674
90907SOL    HW274619   3.422   7.554   3.597
90908SOL     OW74620   7.434   8.058   0.252
90908SOL    HW174621   7.486   8.119   0.305
90908SOL    HW274622   7.387   8.115   0.190
90909SOL     OW74623  11.865   5.739  13.250
90909SOL    HW174624  11.877   5.788  13.169
90909SOL    HW274625  11.919   5.784  13.314
90910SOL     OW74626  14.366   9.811   1.319
90910SOL    HW174627  14.276   9.802   1.351
90910SOL    HW274628  14.357   9.821   1.225
90911SOL     OW74629   3.467   2.270   3.867
90911SOL    HW174630   3.406   2.344   3.862
90911SOL    HW274631   3.467   2.246   3.959
90912SOL     OW74632  14.537   1.529   4.624
90912SOL    HW174633  14.548   1.620   4.595
90912SOL    HW274634  14.611   1.482   4.586
90913SOL     OW74635   4.831   9.455   8.888
90913SOL    HW174636   4.883   9.535   8.885
90913SOL    HW274637   4.809   9.445   8.981
90914SOL     OW74638   2.867  13.726   1.057
90914SOL    HW174639   2.835  13.736   0.967
90914SOL    HW274640   2.788  13.717   1.109
90915SOL     OW74641   6.903   8.792   2.854
90915SOL    HW174642   6.957   8.803   2.932
90915SOL    HW274643   6.824   8.844   2.872
90916SOL     OW74644   2.541   9.623   5.063
90916SOL    HW174645   2.579   9.701   5.022
90916SOL    HW274646   2.603   9.600   5.133
90917SOL     OW74647   7.520  11.795  13.084
90917SOL    HW174648   7.549  11.736  13.014
90917SOL    HW274649   7.439  11.756  13.116
90918SOL     OW74650   7.854  13.148  13.692
90918SOL    HW174651   7.820  13.108  13.772
90918SOL    HW274652   7.851  13.242  13.709
90919SOL     OW74653   2.505   3.956   6.876
90919SOL    HW174654   2.585   4.000   6.907
90919SOL    HW274655   2.530   3.917   6.792
90920SOL     OW74656   8.586   9.192  10.257
90920SOL    HW174657   8.621   9.113  10.215
90920SOL    HW274658   8.491   9.179  10.256
90921SOL     OW74659   7.738   1.011   6.604
90921SOL    HW174660   7.773   0.922   6.611
90921SOL    HW274661   7.654   0.999   6.560
90922SOL     OW74662   7.034  11.344  14.731
90922SOL    HW174663   6.942  11.348  14.760
90922SOL    HW274664   7.072  11.426  14.762
90923SOL     OW74665   2.883  14.481  12.197
90923SOL    HW174666   2.896  14.566  12.154
90923SOL    HW274667   2.864  14.502  12.288
90924SOL     OW74668  13.627   5.385   1.400
90924SOL    HW174669  13.664   5.343   1.322
90924SOL    HW274670  13.700   5.435   1.437
90925SOL     OW74671  13.001   5.527   5.616
90925SOL    HW174672  12.950   5.447   5.631
90925SOL    HW274673  12.965   5.564   5.536
90926SOL     OW74674   3.658   8.656  14.045
90926SOL    HW174675   3.750   8.631  14.050
90926SOL    HW274676   3.618   8.616  14.122
90927SOL     OW74677   2.132  10.151  12.490
90927SOL    HW174678   2.211  10.196  12.521
90927SOL    HW274679   2.162  10.063  12.466
90928SOL     OW74680   2.507   0.642  12.644
90928SOL    HW174681   2.460   0.613  12.566
90928SOL    HW274682   2.439   0.649  12.712
90929SOL     OW74683   6.193  14.092   7.049
90929SOL    HW174684   6.221  14.175   7.011
90929SOL    HW274685   6.261  14.071   7.113
90930SOL     OW74686   5.046  10.717   5.888
90930SOL    HW174687   5.113  10.709   5.956
90930SOL    HW274688   5.017  10.627   5.872
90931SOL     OW74689   4.945  14.646   3.151
90931SOL    HW174690   4.919  14.556   3.128
90931SOL    HW274691   5.030  14.658   3.108
90932SOL     OW74692  11.383   2.467   1.086
90932SOL    HW174693  11.432   2.548   1.079
90932SOL    HW274694  11.439   2.410   1.139
90933SOL     OW74695   9.842   8.282  11.284
90933SOL    HW174696   9.825   8.201  11.236
90933SOL    HW274697   9.809   8.265  11.372
90934SOL     OW74698   6.693   6.996  12.969
90934SOL    HW174699   6.632   7.050  12.918
90934SOL    HW274700   6.637   6.950  13.032
90935SOL     OW74701   6.732   1.463   5.810
90935SOL    HW174702   6.730   1.435   5.719
90935SOL    HW274703   6.733   1.381   5.860
90936SOL     OW74704  13.672   3.497   5.052
90936SOL    HW174705  13.749   3.442   5.044
90936SOL    HW274706  13.699   3.569   5.109
90937SOL     OW74707   7.930   1.648  12.174
90937SOL    HW174708   7.943   1.732  12.219
90937SOL    HW274709   7.968   1.583  12.233
90938SOL     OW74710   2.208   1.366   6.702
90938SOL    HW174711   2.256   1.395   6.780
90938SOL    HW274712   2.212   1.271   6.704
90939SOL     OW74713  13.645  10.672   6.329
90939SOL    HW174714  13.628  10.736   6.260
90939SOL    HW274715  13.675  10.724   6.404
90940SOL     OW74716  13.588   9.676   6.248
90940SOL    HW174717  13.502   9.646   6.279
90940SOL    HW274718  13.604   9.623   6.170
90941SOL     OW74719   5.677  13.526  14.346
90941SOL    HW174720   5.603  13.587  14.345
90941SOL    HW274721   5.740  13.563  14.285
90942SOL     OW74722  13.903   5.556   9.764
90942SOL    HW174723  13.962   5.481   9.762
90942SOL    HW274724  13.880   5.567   9.856
90943SOL     OW74725   3.526   8.405   1.155
90943SOL    HW174726   3.484   8.421   1.070
90943SOL    HW274727   3.619   8.402   1.135
90944SOL     OW74728   8.989   7.262  10.475
90944SOL    HW174729   8.927   7.284  10.544
90944SOL    HW274730   8.969   7.323  10.404
90945SOL     OW74731   3.413  10.522  10.991
90945SOL    HW174732   3.426  10.549  11.082
90945SOL    HW274733   3.320  10.535  10.976
90946SOL     OW74734  12.084   1.099   4.549
90946SOL    HW174735  12.101   1.167   4.484
90946SOL    HW274736  12.169   1.055   4.561
90947SOL     OW74737   4.408   6.393  11.178
90947SOL    HW174738   4.445   6.412  11.091
90947SOL    HW274739   4.399   6.478  11.220
90948SOL     OW74740   5.092  12.122  10.235
90948SOL    HW174741   5.015  12.177  10.227
90948SOL    HW274742   5.166  12.183  10.235
90949SOL     OW74743   4.936   6.419   1.862
90949SOL    HW174744   4.929   6.514   1.851
90949SOL    HW274745   4.886   6.400   1.941
90950SOL     OW74746  14.731   3.184  11.104
90950SOL    HW174747  14.686   3.261  11.069
90950SOL    HW274748  14.820   3.214  11.121
90951SOL     OW74749   3.805  12.762  12.480
90951SOL    HW174750   3.786  12.692  12.417
90951SOL    HW274751   3.831  12.836  12.426
90952SOL     OW74752   5.113   8.404   8.777
90952SOL    HW174753   5.036   8.445   8.817
90952SOL    HW274754   5.079   8.325   8.735
90953SOL     OW74755   0.809   0.601   5.518
90953SOL    HW174756   0.854   0.523   5.485
90953SOL    HW274757   0.850   0.674   5.471
90954SOL     OW74758   3.112   7.831  11.320
90954SOL    HW174759   3.071   7.913  11.348
90954SOL    HW274760   3.047   7.790  11.263
90955SOL     OW74761  14.432   7.376   4.580
90955SOL    HW174762  14.392   7.332   4.505
90955SOL    HW274763  14.512   7.416   4.544
90956SOL     OW74764  12.638   3.485   4.157
90956SOL    HW174765  12.607   3.421   4.093
90956SOL    HW274766  12.709   3.440   4.203
90957SOL     OW74767   5.950  10.279  10.055
90957SOL    HW174768   6.039  10.263  10.025
90957SOL    HW274769   5.906  10.194  10.045
90958SOL     OW74770   1.388   6.411  13.229
90958SOL    HW174771   1.298   6.395  13.258
90958SOL    HW274772   1.389   6.382  13.138
90959SOL     OW74773   5.109  12.832   4.019
90959SOL    HW174774   5.075  12.896   4.082
90959SOL    HW274775   5.099  12.747   4.063
90960SOL     OW74776  13.058   6.525   0.861
90960SOL    HW174777  13.045   6.609   0.906
90960SOL    HW274778  13.008   6.462   0.912
90961SOL     OW74779   0.792   1.918   1.472
90961SOL    HW174780   0.768   1.992   1.416
90961SOL    HW274781   0.778   1.950   1.561
90962SOL     OW74782   2.755   4.249   0.627
90962SOL    HW174783   2.671   4.239   0.671
90962SOL    HW274784   2.748   4.334   0.582
90963SOL     OW74785  13.674   9.832  10.067
90963SOL    HW174786  13.715   9.861   9.986
90963SOL    HW274787  13.721   9.880  10.136
90964SOL     OW74788   9.832   3.918   1.222
90964SOL    HW174789   9.797   3.968   1.149
90964SOL    HW274790   9.755   3.888   1.270
90965SOL     OW74791   5.888  10.683   1.626
90965SOL    HW174792   5.948  10.654   1.695
90965SOL    HW274793   5.803  10.647   1.651
90966SOL     OW74794   8.567  10.579   9.544
90966SOL    HW174795   8.497  10.644   9.537
90966SOL    HW274796   8.522  10.498   9.566
90967SOL     OW74797   4.150   3.934   6.457
90967SOL    HW174798   4.200   3.857   6.484
90967SOL    HW274799   4.072   3.933   6.511
90968SOL     OW74800   3.291   5.904   2.298
90968SOL    HW174801   3.220   5.891   2.361
90968SOL    HW274802   3.262   5.860   2.218
90969SOL     OW74803   1.407   8.417   9.099
90969SOL    HW174804   1.397   8.324   9.121
90969SOL    HW274805   1.358   8.428   9.018
90970SOL     OW74806   1.764  12.266   1.789
90970SOL    HW174807   1.729  12.336   1.734
90970SOL    HW274808   1.854  12.292   1.807
90971SOL     OW74809  13.639   0.611   8.112
90971SOL    HW174810  13.649   0.643   8.022
90971SOL    HW274811  13.704   0.541   8.119
90972SOL     OW74812   2.148   5.925   3.449
90972SOL    HW174813   2.053   5.925   3.449
90972SOL    HW274814   2.172   5.878   3.369
90973SOL     OW74815   2.234   3.197   6.923
90973SOL    HW174816   2.186   3.131   6.973
90973SOL    HW274817   2.222   3.278   6.974
90974SOL     OW74818  11.144   1.315   1.647
90974SOL    HW174819  11.129   1.400   1.606
90974SOL    HW274820  11.083   1.313   1.721
90975SOL     OW74821   8.579   8.278  12.953
90975SOL    HW174822   8.586   8.207  13.016
90975SOL    HW274823   8.548   8.236  12.873
90976SOL     OW74824   9.453  13.609   5.796
90976SOL    HW174825   9.417  13.660   5.723
90976SOL    HW274826   9.542  13.641   5.807
90977SOL     OW74827   3.226   5.893  12.878
90977SOL    HW174828   3.143   5.932  12.853
90977SOL    HW274829   3.203   5.805  12.910
90978SOL     OW74830   7.037  10.860  13.196
90978SOL    HW174831   6.941  10.863  13.196
90978SOL    HW274832   7.057  10.768  13.217
90979SOL     OW74833   8.525   7.496   8.305
90979SOL    HW174834   8.577   7.467   8.380
90979SOL    HW274835   8.437   7.506   8.339
90980SOL     OW74836   9.167   0.767   6.416
90980SOL    HW174837   9.238   0.717   6.455
90980SOL    HW274838   9.151   0.838   6.478
90981SOL     OW74839  11.114   0.964  11.587
90981SOL    HW174840  11.048   0.916  11.637
90981SOL    HW274841  11.069   1.044  11.560
90982SOL     OW74842  10.196   1.227   2.002
90982SOL    HW174843  10.138   1.294   2.038
90982SOL    HW274844  10.156   1.144   2.028
90983SOL     OW74845  13.262   9.834   5.887
90983SOL    HW174846  13.239   9.781   5.964
90983SOL    HW274847  13.296   9.916   5.923
90984SOL     OW74848  13.717   6.860  10.660
90984SOL    HW174849  13.752   6.935  10.708
90984SOL    HW274850  13.709   6.892  10.570
90985SOL     OW74851   3.579   5.186   2.467
90985SOL    HW174852   3.521   5.111   2.480
90985SOL    HW274853   3.549   5.252   2.529
90986SOL     OW74854   2.680   8.599  14.523
90986SOL    HW174855   2.737   8.542  14.472
90986SOL    HW274856   2.605   8.544  14.547
90987SOL     OW74857   8.421   0.606   7.370
90987SOL    HW174858   8.455   0.670   7.307
90987SOL    HW274859   8.499   0.563   7.405
90988SOL     OW74860  10.357   0.062  11.585
90988SOL    HW174861  10.263   0.046  11.593
90988SOL    HW274862  10.385   0.089  11.672
90989SOL     OW74863  14.323  10.595  13.064
90989SOL    HW174864  14.353  10.678  13.026
90989SOL    HW274865  14.303  10.617  13.155
90990SOL     OW74866   0.674   5.462  11.743
90990SOL    HW174867   0.739   5.531  11.756
90990SOL    HW274868   0.707   5.412  11.668
90991SOL     OW74869  10.251   8.105   5.808
90991SOL    HW174870  10.296   8.124   5.890
90991SOL    HW274871  10.231   8.191   5.771
90992SOL     OW74872   3.687   2.274   9.168
90992SOL    HW174873   3.753   2.211   9.196
90992SOL    HW274874   3.646   2.303   9.250
90993SOL     OW74875   4.721   0.541   4.980
90993SOL    HW174876   4.813   0.521   5.000
90993SOL    HW274877   4.678   0.543   5.066
90994SOL     OW74878  12.424  12.321   4.723
90994SOL    HW174879  12.366  12.257   4.683
90994SOL    HW274880  12.438  12.387   4.655
90995SOL     OW74881   2.117   4.225   9.250
90995SOL    HW174882   2.111   4.320   9.259
90995SOL    HW274883   2.208   4.205   9.269
90996SOL     OW74884   8.966   9.845  12.738
90996SOL    HW174885   8.876   9.877  12.738
90996SOL    HW274886   9.016   9.915  12.697
90997SOL     OW74887  12.621  12.556   7.922
90997SOL    HW174888  12.675  12.616   7.973
90997SOL    HW274889  12.598  12.486   7.983
90998SOL     OW74890  12.654   8.844  13.585
90998SOL    HW174891  12.736   8.868  13.628
90998SOL    HW274892  12.682   8.799  13.505
90999SOL     OW74893   9.865   9.626   3.625
90999SOL    HW174894   9.866   9.669   3.710
90999SOL    HW274895   9.845   9.535   3.644
91000SOL     OW74896   0.919   9.989   8.504
91000SOL    HW174897   0.888  10.075   8.531
91000SOL    HW274898   0.849   9.929   8.529
91001SOL     OW74899   9.466   9.726   3.857
91001SOL    HW174900   9.446   9.790   3.925
91001SOL    HW274901   9.402   9.656   3.870
91002SOL     OW74902   4.850  12.444   5.107
91002SOL    HW174903   4.761  12.432   5.077
91002SOL    HW274904   4.885  12.513   5.051
91003SOL     OW74905   5.669  13.659   8.727
91003SOL    HW174906   5.672  13.753   8.747
91003SOL    HW274907   5.696  13.616   8.808
91004SOL     OW74908   7.467  10.216  14.493
91004SOL    HW174909   7.557  10.234  14.466
91004SOL    HW274910   7.471  10.133  14.540
91005SOL     OW74911   7.283  11.049   8.188
91005SOL    HW174912   7.317  11.129   8.228
91005SOL    HW274913   7.332  10.978   8.230
91006SOL     OW74914   4.956  12.943   4.945
91006SOL    HW174915   4.960  12.928   5.040
91006SOL    HW274916   4.863  12.941   4.925
91007SOL     OW74917   9.205   1.794  10.982
91007SOL    HW174918   9.207   1.765  10.891
91007SOL    HW274919   9.297   1.795  11.009
91008SOL     OW74920   1.811   0.316  11.208
91008SOL    HW174921   1.793   0.382  11.275
91008SOL    HW274922   1.889   0.271  11.241
91009SOL     OW74923   2.856  10.343   5.148
91009SOL    HW174924   2.877  10.419   5.204
91009SOL    HW274925   2.804  10.379   5.077
91010SOL     OW74926  12.232  11.242   1.331
91010SOL    HW174927  12.164  11.217   1.269
91010SOL    HW274928  12.314  11.213   1.291
91011SOL     OW74929  11.628   8.575  10.967
91011SOL    HW174930  11.720   8.575  10.992
91011SOL    HW274931  11.613   8.486  10.933
91012SOL     OW74932  10.776   6.369   4.453
91012SOL    HW174933  10.809   6.335   4.536
91012SOL    HW274934  10.754   6.460   4.472
91013SOL     OW74935   8.785   3.221   5.063
91013SOL    HW174936   8.784   3.287   5.133
91013SOL    HW274937   8.870   3.178   5.073
91014SOL     OW74938   2.767  12.334  14.278
91014SOL    HW174939   2.806  12.307  14.361
91014SOL    HW274940   2.815  12.414  14.255
91015SOL     OW74941  13.770  14.575   0.835
91015SOL    HW174942  13.781  14.668   0.854
91015SOL    HW274943  13.819  14.561   0.755
91016SOL     OW74944   7.933   3.227   3.336
91016SOL    HW174945   7.868   3.202   3.401
91016SOL    HW274946   7.933   3.323   3.337
91017SOL     OW74947   2.477   5.475   2.530
91017SOL    HW174948   2.446   5.545   2.587
91017SOL    HW274949   2.572   5.472   2.543
91018SOL     OW74950   9.733   8.328   5.409
91018SOL    HW174951   9.657   8.384   5.422
91018SOL    HW274952   9.801   8.387   5.377
91019SOL     OW74953   8.637  12.474   4.096
91019SOL    HW174954   8.603  12.563   4.088
91019SOL    HW274955   8.583  12.422   4.036
91020SOL     OW74956   8.796   5.326  12.529
91020SOL    HW174957   8.784   5.357  12.440
91020SOL    HW274958   8.758   5.238  12.530
91021SOL     OW74959  13.520   3.440   4.277
91021SOL    HW174960  13.535   3.521   4.325
91021SOL    HW274961  13.554   3.457   4.189
91022SOL     OW74962   3.817  13.310   4.050
91022SOL    HW174963   3.722  13.297   4.055
91022SOL    HW274964   3.828  13.405   4.048
91023SOL     OW74965  14.050  14.498  13.432
91023SOL    HW174966  14.108  14.512  13.507
91023SOL    HW274967  14.000  14.420  13.454
91024SOL     OW74968  12.737  10.073   8.547
91024SOL    HW174969  12.739  10.027   8.463
91024SOL    HW274970  12.657  10.125   8.544
91025SOL     OW74971   6.385   4.575  14.083
91025SOL    HW174972   6.329   4.535  14.017
91025SOL    HW274973   6.397   4.507  14.149
91026SOL     OW74974  14.193   0.648  10.655
91026SOL    HW174975  14.208   0.555  10.674
91026SOL    HW274976  14.216   0.657  10.562
91027SOL     OW74977   0.805  10.553  14.396
91027SOL    HW174978   0.875  10.608  14.432
91027SOL    HW274979   0.845  10.510  14.321
91028SOL     OW74980   9.481  13.262   0.237
91028SOL    HW174981   9.553  13.200   0.226
91028SOL    HW274982   9.519  13.336   0.285
91029SOL     OW74983  13.313   4.481   1.157
91029SOL    HW174984  13.402   4.475   1.121
91029SOL    HW274985  13.274   4.556   1.114
91030SOL     OW74986   8.721   4.379   8.809
91030SOL    HW174987   8.711   4.284   8.818
91030SOL    HW274988   8.701   4.397   8.718
91031SOL     OW74989  12.482   7.324   6.157
91031SOL    HW174990  12.557   7.381   6.174
91031SOL    HW274991  12.482   7.313   6.061
91032SOL     OW74992  11.794  10.492   8.322
91032SOL    HW174993  11.812  10.406   8.361
91032SOL    HW274994  11.859  10.502   8.254
91033SOL     OW74995  13.346  13.335   4.427
91033SOL    HW174996  13.431  13.342   4.383
91033SOL    HW274997  13.366  13.294   4.511
91034SOL     OW74998   2.311  12.180   2.123
91034SOL    HW174999   2.334  12.118   2.193
91034SOL    HW275000   2.396  12.207   2.086
91035SOL     OW75001   3.308  12.186   5.374
91035SOL    HW175002   3.397  12.218   5.387
91035SOL    HW275003   3.310  12.141   5.290
91036SOL     OW75004  12.784   1.735   0.013
91036SOL    HW175005  12.697   1.774   0.021
91036SOL    HW275006  12.822   1.741   0.101
91037SOL     OW75007   6.742   1.708   2.021
91037SOL    HW175008   6.687   1.634   2.044
91037SOL    HW275009   6.700   1.784   2.062
91038SOL     OW75010  10.442   7.637   4.112
91038SOL    HW175011  10.464   7.633   4.019
91038SOL    HW275012  10.355   7.676   4.115
91039SOL     OW75013   2.988   9.514  10.159
91039SOL    HW175014   3.060   9.538  10.218
91039SOL    HW275015   3.029   9.504  10.074
91040SOL     OW75016   2.802   0.777   7.729
91040SOL    HW175017   2.829   0.856   7.682
91040SOL    HW275018   2.809   0.707   7.664
91041SOL     OW75019  14.033   0.280  10.568
91041SOL    HW175020  13.961   0.308  10.624
91041SOL    HW275021  14.029   0.339  10.493
91042SOL     OW75022  14.532   3.363  12.357
91042SOL    HW175023  14.574   3.398  12.279
91042SOL    HW275024  14.469   3.298  12.324
91043SOL     OW75025   0.775  10.451  13.980
91043SOL    HW175026   0.805  10.360  13.975
91043SOL    HW275027   0.716  10.453  14.055
91044SOL     OW75028   3.173  10.686   4.070
91044SOL    HW175029   3.262  10.657   4.090
91044SOL    HW275030   3.176  10.709   3.977
91045SOL     OW75031   4.625   2.000   6.014
91045SOL    HW175032   4.557   1.952   5.967
91045SOL    HW275033   4.706   1.955   5.992
91046SOL     OW75034   5.964  12.889   0.634
91046SOL    HW175035   6.014  12.860   0.710
91046SOL    HW275036   5.980  12.983   0.630
91047SOL     OW75037  14.746   0.714   8.442
91047SOL    HW175038  14.680   0.685   8.379
91047SOL    HW275039  14.707   0.694   8.528
91048SOL     OW75040   9.901  11.557   2.191
91048SOL    HW175041   9.837  11.609   2.143
91048SOL    HW275042   9.984  11.571   2.144
91049SOL     OW75043   6.632   7.156  11.241
91049SOL    HW175044   6.715   7.202  11.260
91049SOL    HW275045   6.577   7.222  11.200
91050SOL     OW75046  10.116   1.248  12.907
91050SOL    HW175047  10.108   1.166  12.858
91050SOL    HW275048  10.113   1.316  12.840
91051SOL     OW75049  13.211  10.322  13.009
91051SOL    HW175050  13.185  10.237  13.043
91051SOL    HW275051  13.214  10.311  12.914
91052SOL     OW75052  10.430  14.032   3.934
91052SOL    HW175053  10.493  14.027   4.006
91052SOL    HW275054  10.435  13.946   3.892
91053SOL     OW75055   3.902   0.463   3.211
91053SOL    HW175056   3.831   0.511   3.254
91053SOL    HW275057   3.959   0.435   3.282
91054SOL     OW75058  10.922   3.600   9.567
91054SOL    HW175059  10.995   3.656   9.594
91054SOL    HW275060  10.845   3.643   9.604
91055SOL     OW75061   2.382  11.314  14.313
91055SOL    HW175062   2.389  11.285  14.404
91055SOL    HW275063   2.468  11.353  14.294
91056SOL     OW75064  10.820  12.082  11.474
91056SOL    HW175065  10.907  12.118  11.492
91056SOL    HW275066  10.800  12.110  11.385
91057SOL     OW75067  10.974   4.919  10.019
91057SOL    HW175068  11.038   4.849  10.013
91057SOL    HW275069  10.924   4.900  10.098
91058SOL     OW75070   4.735   3.564   0.090
91058SOL    HW175071   4.820   3.529   0.064
91058SOL    HW275072   4.754   3.653   0.119
91059SOL     OW75073   8.095   7.005  11.598
91059SOL    HW175074   8.053   6.920  11.599
91059SOL    HW275075   8.052   7.052  11.526
91060SOL     OW75076   3.343   0.451   4.982
91060SOL    HW175077   3.366   0.509   4.910
91060SOL    HW275078   3.248   0.441   4.975
91061SOL     OW75079   5.395   7.516   6.182
91061SOL    HW175080   5.471   7.567   6.210
91061SOL    HW275081   5.379   7.545   6.092
91062SOL     OW75082   2.111   4.188  10.825
91062SOL    HW175083   2.067   4.126  10.883
91062SOL    HW275084   2.184   4.139  10.788
91063SOL     OW75085   5.149   9.378  13.352
91063SOL    HW175086   5.231   9.328  13.356
91063SOL    HW275087   5.129   9.399  13.443
91064SOL     OW75088  10.314   2.062   7.116
91064SOL    HW175089  10.384   2.027   7.060
91064SOL    HW275090  10.284   1.988   7.167
91065SOL     OW75091   3.680  10.578   1.679
91065SOL    HW175092   3.738  10.590   1.604
91065SOL    HW275093   3.592  10.575   1.640
91066SOL     OW75094   1.553  10.116   6.304
91066SOL    HW175095   1.562  10.193   6.359
91066SOL    HW275096   1.641  10.100   6.270
91067SOL     OW75097   5.887   9.174   6.088
91067SOL    HW175098   5.891   9.110   6.160
91067SOL    HW275099   5.831   9.133   6.022
91068SOL     OW75100   3.378   4.019   1.285
91068SOL    HW175101   3.440   4.013   1.358
91068SOL    HW275102   3.306   3.961   1.309
91069SOL     OW75103   0.650  10.152  12.525
91069SOL    HW175104   0.616  10.204  12.452
91069SOL    HW275105   0.627  10.202  12.603
91070SOL     OW75106   7.665   6.146  14.233
91070SOL    HW175107   7.635   6.165  14.322
91070SOL    HW275108   7.721   6.220  14.210
91071SOL     OW75109  13.196  14.470   8.870
91071SOL    HW175110  13.187  14.554   8.824
91071SOL    HW275111  13.141  14.410   8.820
91072SOL     OW75112   4.840   1.400   2.065
91072SOL    HW175113   4.756   1.354   2.068
91072SOL    HW275114   4.891   1.361   2.137
91073SOL     OW75115   0.416   5.387   7.777
91073SOL    HW175116   0.474   5.446   7.729
91073SOL    HW275117   0.470   5.352   7.848
91074SOL     OW75118  14.604  10.034  12.926
91074SOL    HW175119  14.543  10.099  12.963
91074SOL    HW275120  14.666  10.016  12.996
91075SOL     OW75121  11.005  11.221   8.030
91075SOL    HW175122  10.914  11.189   8.031
91075SOL    HW275123  11.046  11.177   8.104
91076SOL     OW75124   3.733   7.762   5.805
91076SOL    HW175125   3.790   7.685   5.803
91076SOL    HW275126   3.648   7.729   5.777
91077SOL     OW75127  14.340   0.899  13.116
91077SOL    HW175128  14.340   0.849  13.197
91077SOL    HW275129  14.416   0.957  13.123
91078SOL     OW75130   8.268   9.405  13.096
91078SOL    HW175131   8.189   9.352  13.105
91078SOL    HW275132   8.336   9.354  13.140
91079SOL     OW75133  14.864   2.172   9.323
91079SOL    HW175134   0.067   2.229   9.351
91079SOL    HW275135  14.788   2.202   9.373
91080SOL     OW75136   0.540   3.684   4.134
91080SOL    HW175137   0.552   3.636   4.052
91080SOL    HW275138   0.478   3.754   4.113
91081SOL     OW75139  10.019   9.435  13.138
91081SOL    HW175140  10.102   9.461  13.177
91081SOL    HW275141   9.953   9.458  13.203
91082SOL     OW75142   4.274  10.903   3.205
91082SOL    HW175143   4.180  10.913   3.220
91082SOL    HW275144   4.286  10.918   3.112
91083SOL     OW75145   0.957  10.735  14.543
91083SOL    HW175146   0.986  10.675  14.612
91083SOL    HW275147   0.981  10.822  14.575
91084SOL     OW75148  10.948   5.941   1.451
91084SOL    HW175149  10.917   6.021   1.409
91084SOL    HW275150  11.043   5.944   1.442
91085SOL     OW75151  10.860   5.276   8.385
91085SOL    HW175152  10.790   5.265   8.449
91085SOL    HW275153  10.839   5.213   8.316
91086SOL     OW75154  13.857  14.630   0.589
91086SOL    HW175155  13.825  14.719   0.573
91086SOL    HW275156  13.862  14.590   0.502
91087SOL     OW75157   6.086   4.823   0.393
91087SOL    HW175158   6.173   4.860   0.407
91087SOL    HW275159   6.058   4.791   0.479
91088SOL     OW75160   7.334   4.278   4.706
91088SOL    HW175161   7.359   4.369   4.725
91088SOL    HW275162   7.284   4.283   4.625
91089SOL     OW75163   1.021  11.561   0.516
91089SOL    HW175164   1.069  11.540   0.436
91089SOL    HW275165   1.087  11.595   0.576
91090SOL     OW75166   6.319   6.930   8.338
91090SOL    HW175167   6.373   6.891   8.407
91090SOL    HW275168   6.357   6.896   8.256
91091SOL     OW75169  12.101   6.840  11.949
91091SOL    HW175170  12.107   6.757  11.900
91091SOL    HW275171  12.009   6.864  11.945
91092SOL     OW75172   9.072   0.912  10.688
91092SOL    HW175173   9.092   0.838  10.630
91092SOL    HW275174   8.983   0.896  10.718
91093SOL     OW75175   4.146   8.374  13.697
91093SOL    HW175176   4.092   8.453  13.693
91093SOL    HW275177   4.236   8.407  13.688
91094SOL     OW75178  11.387   7.068  11.317
91094SOL    HW175179  11.477   7.087  11.291
91094SOL    HW275180  11.352   7.152  11.347
91095SOL     OW75181   9.738  12.820   8.689
91095SOL    HW175182   9.653  12.796   8.724
91095SOL    HW275183   9.796  12.749   8.716
91096SOL     OW75184   9.748   6.224   4.186
91096SOL    HW175185   9.670   6.199   4.236
91096SOL    HW275186   9.815   6.162   4.216
91097SOL     OW75187  11.562   5.424  14.437
91097SOL    HW175188  11.496   5.360  14.413
91097SOL    HW275189  11.617   5.379  14.502
91098SOL     OW75190   1.517   3.145   7.754
91098SOL    HW175191   1.440   3.142   7.696
91098SOL    HW275192   1.579   3.201   7.708
91099SOL     OW75193  10.248   1.087   3.867
91099SOL    HW175194  10.188   1.134   3.809
91099SOL    HW275195  10.200   1.079   3.950
91100SOL     OW75196   2.196  11.092  14.473
91100SOL    HW175197   2.276  11.118  14.518
91100SOL    HW275198   2.224  11.076  14.382
91101SOL     OW75199   2.964   8.074   1.246
91101SOL    HW175200   2.946   7.981   1.252
91101SOL    HW275201   2.976   8.103   1.337
91102SOL     OW75202   1.523   8.825  14.157
91102SOL    HW175203   1.450   8.807  14.217
91102SOL    HW275204   1.592   8.861  14.213
91103SOL     OW75205   6.587  13.886   9.056
91103SOL    HW175206   6.650  13.828   9.014
91103SOL    HW275207   6.604  13.972   9.016
91104SOL     OW75208   8.970   6.521  13.808
91104SOL    HW175209   9.049   6.559  13.769
91104SOL    HW275210   8.989   6.427  13.814
91105SOL     OW75211   1.398   9.951   4.064
91105SOL    HW175212   1.439   9.868   4.041
91105SOL    HW275213   1.440   9.976   4.147
91106SOL     OW75214   1.704   8.702   8.780
91106SOL    HW175215   1.795   8.715   8.803
91106SOL    HW275216   1.665   8.661   8.857
91107SOL     OW75217   7.531   6.424   0.871
91107SOL    HW175218   7.472   6.499   0.883
91107SOL    HW275219   7.519   6.398   0.780
91108SOL     OW75220   1.673   7.840   1.988
91108SOL    HW175221   1.664   7.761   1.934
91108SOL    HW275222   1.593   7.889   1.972
91109SOL     OW75223   4.436  13.211   1.338
91109SOL    HW175224   4.474  13.294   1.310
91109SOL    HW275225   4.396  13.230   1.423
91110SOL     OW75226   6.354   6.480  12.140
91110SOL    HW175227   6.341   6.516  12.052
91110SOL    HW275228   6.281   6.420  12.153
91111SOL     OW75229   5.043   9.932   1.789
91111SOL    HW175230   4.997   9.993   1.846
91111SOL    HW275231   5.074   9.986   1.716
91112SOL     OW75232   7.361   9.741   0.178
91112SOL    HW175233   7.399   9.821   0.213
91112SOL    HW275234   7.290   9.720   0.237
91113SOL     OW75235   7.315   0.516   3.571
91113SOL    HW175236   7.239   0.510   3.513
91113SOL    HW275237   7.350   0.604   3.556
91114SOL     OW75238  11.042   1.620  13.875
91114SOL    HW175239  10.954   1.622  13.837
91114SOL    HW275240  11.042   1.690  13.940
91115SOL     OW75241   6.846   4.072   2.529
91115SOL    HW175242   6.915   4.072   2.595
91115SOL    HW275243   6.781   4.134   2.562
91116SOL     OW75244   1.048  11.082   7.984
91116SOL    HW175245   1.101  11.153   8.019
91116SOL    HW275246   1.111  11.020   7.948
91117SOL     OW75247  12.995  11.832   6.586
91117SOL    HW175248  13.081  11.815   6.547
91117SOL    HW275249  12.978  11.758   6.643
91118SOL     OW75250   8.918   8.348  10.108
91118SOL    HW175251   8.855   8.278  10.126
91118SOL    HW275252   8.998   8.303  10.083
91119SOL     OW75253   3.944  14.819  13.973
91119SOL    HW175254   3.855  14.836  14.005
91119SOL    HW275255   3.934  14.749  13.908
91120SOL     OW75256  14.820   5.983   4.456
91120SOL    HW175257  14.839   6.014   4.545
91120SOL    HW275258  14.780   5.897   4.468
91121SOL     OW75259   8.177   4.777  10.864
91121SOL    HW175260   8.202   4.717  10.795
91121SOL    HW275261   8.108   4.831  10.825
91122SOL     OW75262   2.914  14.605  13.421
91122SOL    HW175263   2.844  14.594  13.485
91122SOL    HW275264   2.916  14.699  13.403
91123SOL     OW75265  13.716   4.733   8.763
91123SOL    HW175266  13.769   4.729   8.843
91123SOL    HW275267  13.774   4.772   8.698
91124SOL     OW75268   7.569  12.914   4.712
91124SOL    HW175269   7.505  12.896   4.643
91124SOL    HW275270   7.580  13.009   4.710
91125SOL     OW75271   9.856  10.645   4.825
91125SOL    HW175272   9.791  10.590   4.868
91125SOL    HW275273   9.939  10.598   4.837
91126SOL     OW75274   1.699   3.721   2.834
91126SOL    HW175275   1.778   3.757   2.793
91126SOL    HW275276   1.668   3.654   2.773
91127SOL     OW75277   6.404   5.743  10.991
91127SOL    HW175278   6.423   5.810  10.926
91127SOL    HW275279   6.488   5.724  11.031
91128SOL     OW75280   1.063  12.060  12.143
91128SOL    HW175281   1.146  12.090  12.106
91128SOL    HW275282   1.088  11.996  12.210
91129SOL     OW75283   5.466   2.100   5.984
91129SOL    HW175284   5.530   2.132   6.048
91129SOL    HW275285   5.519   2.053   5.920
91130SOL     OW75286   4.951   6.880   6.653
91130SOL    HW175287   4.958   6.808   6.716
91130SOL    HW275288   4.861   6.910   6.661
91131SOL     OW75289  12.825   2.508   0.077
91131SOL    HW175290  12.838   2.603   0.085
91131SOL    HW275291  12.827   2.476   0.167
91132SOL     OW75292   7.038   6.326   7.114
91132SOL    HW175293   7.038   6.237   7.077
91132SOL    HW275294   6.967   6.371   7.069
91133SOL     OW75295  13.727  14.317   4.753
91133SOL    HW175296  13.697  14.369   4.679
91133SOL    HW275297  13.811  14.281   4.726
91134SOL     OW75298   6.715   5.212  10.507
91134SOL    HW175299   6.706   5.305  10.525
91134SOL    HW275300   6.661   5.197  10.429
91135SOL     OW75301   8.630   2.260   5.649
91135SOL    HW175302   8.682   2.290   5.723
91135SOL    HW275303   8.644   2.165   5.646
91136SOL     OW75304   5.654   0.724  10.550
91136SOL    HW175305   5.622   0.788  10.614
91136SOL    HW275306   5.637   0.639  10.591
91137SOL     OW75307  11.741  10.366   0.875
91137SOL    HW175308  11.661  10.406   0.840
91137SOL    HW275309  11.721  10.348   0.967
91138SOL     OW75310   9.618   7.397   8.706
91138SOL    HW175311   9.587   7.321   8.756
91138SOL    HW275312   9.628   7.466   8.771
91139SOL     OW75313   0.283  14.551  10.959
91139SOL    HW175314   0.226  14.481  10.927
91139SOL    HW275315   0.337  14.510  11.025
91140SOL     OW75316   5.609  12.242   9.557
91140SOL    HW175317   5.630  12.279   9.471
91140SOL    HW275318   5.605  12.148   9.542
91141SOL     OW75319  10.250   5.024  10.896
91141SOL    HW175320  10.271   5.068  10.978
91141SOL    HW275321  10.212   4.940  10.923
91142SOL     OW75322   1.880   8.941  14.185
91142SOL    HW175323   1.971   8.912  14.194
91142SOL    HW275324   1.847   8.894  14.108
91143SOL     OW75325   3.720  11.532   9.442
91143SOL    HW175326   3.717  11.456   9.500
91143SOL    HW275327   3.646  11.519   9.383
91144SOL     OW75328   0.691  12.330   7.047
91144SOL    HW175329   0.654  12.269   7.111
91144SOL    HW275330   0.773  12.360   7.087
91145SOL     OW75331   0.139   6.179   3.952
91145SOL    HW175332   0.218   6.126   3.962
91145SOL    HW275333   0.123   6.216   4.039
91146SOL     OW75334  13.739   8.359   0.154
91146SOL    HW175335  13.759   8.445   0.116
91146SOL    HW275336  13.703   8.379   0.241
91147SOL     OW75337   6.104  13.440   0.098
91147SOL    HW175338   6.144  13.424   0.183
91147SOL    HW275339   6.140  13.524   0.070
91148SOL     OW75340  13.976  12.221  13.245
91148SOL    HW175341  14.027  12.261  13.175
91148SOL    HW275342  13.914  12.289  13.271
91149SOL     OW75343   1.112   3.899   6.447
91149SOL    HW175344   1.080   3.912   6.358
91149SOL    HW275345   1.150   3.983   6.472
91150SOL     OW75346   3.380  14.102   7.395
91150SOL    HW175347   3.314  14.083   7.329
91150SOL    HW275348   3.455  14.135   7.345
91151SOL     OW75349   5.464   3.045   9.092
91151SOL    HW175350   5.446   2.971   9.150
91151SOL    HW275351   5.558   3.059   9.097
91152SOL     OW75352   2.127   8.606   8.593
91152SOL    HW175353   2.174   8.689   8.606
91152SOL    HW275354   2.135   8.588   8.500
91153SOL     OW75355  14.644   1.175   1.964
91153SOL    HW175356  14.588   1.126   2.024
91153SOL    HW275357  14.585   1.238   1.922
91154SOL     OW75358  13.644   6.908  11.663
91154SOL    HW175359  13.628   6.887  11.755
91154SOL    HW275360  13.557   6.906  11.623
91155SOL     OW75361   5.635   5.215   7.725
91155SOL    HW175362   5.580   5.286   7.692
91155SOL    HW275363   5.619   5.214   7.819
91156SOL     OW75364   2.968   9.323   0.235
91156SOL    HW175365   2.881   9.322   0.275
91156SOL    HW275366   2.961   9.265   0.160
91157SOL     OW75367   4.416  10.579   7.541
91157SOL    HW175368   4.404  10.559   7.448
91157SOL    HW275369   4.345  10.533   7.585
91158SOL     OW75370   2.518   7.340   8.693
91158SOL    HW175371   2.488   7.428   8.673
91158SOL    HW275372   2.486   7.323   8.782
91159SOL     OW75373  12.415   3.757   9.876
91159SOL    HW175374  12.402   3.851   9.864
91159SOL    HW275375  12.507   3.743   9.852
91160SOL     OW75376   1.745  12.599   5.043
91160SOL    HW175377   1.747  12.691   5.069
91160SOL    HW275378   1.826  12.562   5.080
91161SOL     OW75379   7.175   5.316   9.943
91161SOL    HW175380   7.181   5.230   9.984
91161SOL    HW275381   7.243   5.316   9.875
91162SOL     OW75382   1.674  11.422   0.550
91162SOL    HW175383   1.733  11.484   0.508
91162SOL    HW275384   1.591  11.432   0.503
91163SOL     OW75385  10.150   3.246   1.650
91163SOL    HW175386  10.070   3.257   1.700
91163SOL    HW275387  10.132   3.290   1.567
91164SOL     OW75388  11.607   5.198   5.935
91164SOL    HW175389  11.566   5.168   5.854
91164SOL    HW275390  11.663   5.271   5.907
91165SOL     OW75391  12.719   6.520  11.846
91165SOL    HW175392  12.796   6.531  11.790
91165SOL    HW275393  12.736   6.440  11.895
91166SOL     OW75394  12.199   2.284   9.687
91166SOL    HW175395  12.270   2.308   9.747
91166SOL    HW275396  12.241   2.227   9.623
91167SOL     OW75397  14.765   7.242   5.726
91167SOL    HW175398  14.742   7.150   5.726
91167SOL    HW275399  14.692   7.285   5.680
91168SOL     OW75400   6.854  11.723   2.623
91168SOL    HW175401   6.877  11.788   2.557
91168SOL    HW275402   6.759  11.734   2.636
91169SOL     OW75403   3.365   2.585   3.621
91169SOL    HW175404   3.332   2.675   3.621
91169SOL    HW275405   3.308   2.538   3.682
91170SOL     OW75406   9.319  11.710  13.062
91170SOL    HW175407   9.386  11.735  13.125
91170SOL    HW275408   9.340  11.759  12.982
91171SOL     OW75409  12.129   4.695   6.953
91171SOL    HW175410  12.164   4.784   6.945
91171SOL    HW275411  12.202   4.638   6.927
91172SOL     OW75412   3.782  12.326  12.535
91172SOL    HW175413   3.695  12.309  12.570
91172SOL    HW275414   3.800  12.250  12.479
91173SOL     OW75415   7.197   6.809  13.024
91173SOL    HW175416   7.284   6.815  12.986
91173SOL    HW275417   7.159   6.730  12.985
91174SOL     OW75418   8.532   2.575  12.680
91174SOL    HW175419   8.460   2.529  12.638
91174SOL    HW275420   8.583   2.507  12.723
91175SOL     OW75421   4.135   4.263  13.202
91175SOL    HW175422   4.223   4.256  13.165
91175SOL    HW275423   4.077   4.229  13.134
91176SOL     OW75424   9.705   5.968   8.685
91176SOL    HW175425   9.662   5.959   8.600
91176SOL    HW275426   9.657   5.910   8.743
91177SOL     OW75427   5.436   6.742   0.527
91177SOL    HW175428   5.514   6.710   0.480
91177SOL    HW275429   5.370   6.674   0.514
91178SOL     OW75430   6.282   0.291   4.462
91178SOL    HW175431   6.274   0.196   4.472
91178SOL    HW275432   6.371   0.304   4.429
91179SOL     OW75433   1.587   1.450   3.465
91179SOL    HW175434   1.645   1.518   3.430
91179SOL    HW275435   1.646   1.382   3.497
91180SOL     OW75436   1.071   3.752  12.920
91180SOL    HW175437   1.153   3.786  12.957
91180SOL    HW275438   1.095   3.668  12.883
91181SOL     OW75439  12.854  11.584   5.419
91181SOL    HW175440  12.946  11.600   5.442
91181SOL    HW275441  12.806  11.602   5.499
91182SOL     OW75442   1.099   4.089   5.016
91182SOL    HW175443   1.060   4.019   4.964
91182SOL    HW275444   1.029   4.119   5.073
91183SOL     OW75445   1.314   9.677   5.177
91183SOL    HW175446   1.351   9.634   5.254
91183SOL    HW275447   1.228   9.709   5.206
91184SOL     OW75448   7.191  13.882   6.495
91184SOL    HW175449   7.114  13.924   6.534
91184SOL    HW275450   7.182  13.790   6.517
91185SOL     OW75451   1.527   0.464  11.420
91185SOL    HW175452   1.441   0.439  11.386
91185SOL    HW275453   1.568   0.514  11.350
91186SOL     OW75454  10.692   8.245   2.585
91186SOL    HW175455  10.608   8.254   2.541
91186SOL    HW275456  10.669   8.220   2.675
91187SOL     OW75457   8.150   3.876   4.936
91187SOL    HW175458   8.182   3.879   4.846
91187SOL    HW275459   8.060   3.909   4.931
91188SOL     OW75460   2.548  11.024   7.113
91188SOL    HW175461   2.642  11.027   7.094
91188SOL    HW275462   2.542  10.980   7.198
91189SOL     OW75463   7.407  12.876  12.896
91189SOL    HW175464   7.343  12.805  12.897
91189SOL    HW275465   7.407  12.909  12.986
91190SOL     OW75466  14.529   3.390   3.580
91190SOL    HW175467  14.569   3.429   3.503
91190SOL    HW275468  14.573   3.305   3.591
91191SOL     OW75469  10.684  12.557   7.517
91191SOL    HW175470  10.699  12.592   7.430
91191SOL    HW275471  10.770  12.562   7.560
91192SOL     OW75472   1.674   2.624   0.319
91192SOL    HW175473   1.651   2.675   0.397
91192SOL    HW275474   1.764   2.595   0.335
91193SOL     OW75475   4.211  12.717   3.993
91193SOL    HW175476   4.292  12.742   3.949
91193SOL    HW275477   4.211  12.769   4.074
91194SOL     OW75478   5.940   1.199  11.747
91194SOL    HW175479   5.885   1.160  11.816
91194SOL    HW275480   5.958   1.126  11.687
91195SOL     OW75481   6.737  13.031   7.509
91195SOL    HW175482   6.744  13.086   7.587
91195SOL    HW275483   6.643  13.026   7.492
91196SOL     OW75484   0.927  11.384   6.796
91196SOL    HW175485   0.863  11.316   6.776
91196SOL    HW275486   0.910  11.407   6.887
91197SOL     OW75487   6.740   3.899  11.235
91197SOL    HW175488   6.801   3.957  11.190
91197SOL    HW275489   6.675   3.875  11.169
91198SOL     OW75490   6.577   2.741   5.168
91198SOL    HW175491   6.549   2.818   5.119
91198SOL    HW275492   6.630   2.775   5.239
91199SOL     OW75493   4.441  11.286  10.285
91199SOL    HW175494   4.474  11.344  10.216
91199SOL    HW275495   4.413  11.345  10.355
91200SOL     OW75496   6.281  14.238   6.536
91200SOL    HW175497   6.265  14.193   6.618
91200SOL    HW275498   6.351  14.300   6.556
91201SOL     OW75499  12.469   3.959  14.524
91201SOL    HW175500  12.441   4.009  14.601
91201SOL    HW275501  12.497   4.025  14.461
91202SOL     OW75502   0.329   5.658   1.725
91202SOL    HW175503   0.384   5.590   1.684
91202SOL    HW275504   0.248   5.613   1.746
91203SOL     OW75505  11.366  14.278  10.058
91203SOL    HW175506  11.403  14.196  10.024
91203SOL    HW275507  11.336  14.255  10.146
91204SOL     OW75508  10.963   4.165   1.091
91204SOL    HW175509  10.938   4.155   1.183
91204SOL    HW275510  11.057   4.149   1.089
91205SOL     OW75511   4.292  12.124   3.770
91205SOL    HW175512   4.206  12.083   3.760
91205SOL    HW275513   4.290  12.162   3.858
91206SOL     OW75514   8.086  11.125  13.659
91206SOL    HW175515   8.108  11.202  13.712
91206SOL    HW275516   8.060  11.160  13.574
91207SOL     OW75517   5.671   5.324   1.328
91207SOL    HW175518   5.585   5.366   1.329
91207SOL    HW275519   5.730   5.387   1.370
91208SOL     OW75520  12.177  13.322   8.708
91208SOL    HW175521  12.265  13.351   8.684
91208SOL    HW275522  12.169  13.344   8.801
91209SOL     OW75523   1.569   5.880   3.519
91209SOL    HW175524   1.522   5.859   3.438
91209SOL    HW275525   1.558   5.801   3.573
91210SOL     OW75526  11.151   7.003  14.290
91210SOL    HW175527  11.162   7.015  14.385
91210SOL    HW275528  11.155   7.091  14.254
91211SOL     OW75529  11.112  10.902  11.257
91211SOL    HW175530  11.018  10.921  11.265
91211SOL    HW275531  11.154  10.971  11.309
91212SOL     OW75532   2.780  13.118   4.670
91212SOL    HW175533   2.749  13.085   4.586
91212SOL    HW275534   2.820  13.203   4.649
91213SOL     OW75535  13.347   6.850   0.158
91213SOL    HW175536  13.367   6.820   0.070
91213SOL    HW275537  13.397   6.931   0.168
91214SOL     OW75538   0.206  12.342  13.191
91214SOL    HW175539   0.144  12.415  13.204
91214SOL    HW275540   0.189  12.284  13.265
91215SOL     OW75541  11.558   3.589  14.086
91215SOL    HW175542  11.539   3.495  14.090
91215SOL    HW275543  11.631   3.595  14.023
91216SOL     OW75544   1.153   7.300   9.304
91216SOL    HW175545   1.064   7.332   9.296
91216SOL    HW275546   1.167   7.244   9.228
91217SOL     OW75547  10.146  11.316   4.951
91217SOL    HW175548  10.059  11.324   4.992
91217SOL    HW275549  10.153  11.224   4.927
91218SOL     OW75550  11.435  14.328   2.569
91218SOL    HW175551  11.369  14.273   2.527
91218SOL    HW275552  11.441  14.405   2.514
91219SOL     OW75553  10.618   6.685   6.303
91219SOL    HW175554  10.698   6.716   6.347
91219SOL    HW275555  10.564   6.764   6.295
91220SOL     OW75556   2.733   7.106   6.879
91220SOL    HW175557   2.764   7.187   6.837
91220SOL    HW275558   2.695   7.135   6.962
91221SOL     OW75559   7.030  10.820  14.855
91221SOL    HW175560   7.025  10.750  14.790
91221SOL    HW275561   7.042  10.774   0.070
91222SOL     OW75562  11.061   6.944   1.304
91222SOL    HW175563  11.126   6.983   1.362
91222SOL    HW275564  11.108   6.928   1.222
91223SOL     OW75565  12.628   0.445   5.415
91223SOL    HW175566  12.671   0.523   5.450
91223SOL    HW275567  12.696   0.401   5.365
91224SOL     OW75568   3.170   2.392  14.116
91224SOL    HW175569   3.245   2.338  14.140
91224SOL    HW275570   3.194   2.432  14.033
91225SOL     OW75571   8.447  10.191   0.304
91225SOL    HW175572   8.410  10.273   0.272
91225SOL    HW275573   8.493  10.154   0.228
91226SOL     OW75574   8.366  13.874  11.891
91226SOL    HW175575   8.362  13.964  11.860
91226SOL    HW275576   8.326  13.877  11.978
91227SOL     OW75577   9.552   0.199  10.415
91227SOL    HW175578   9.629   0.242  10.379
91227SOL    HW275579   9.505   0.165  10.339
91228SOL     OW75580  12.707   9.410  14.628
91228SOL    HW175581  12.765   9.382  14.698
91228SOL    HW275582  12.745   9.492  14.595
91229SOL     OW75583  14.367   1.965  13.537
91229SOL    HW175584  14.278   1.933  13.550
91229SOL    HW275585  14.393   2.000  13.622
91230SOL     OW75586   5.044  11.818   3.205
91230SOL    HW175587   5.044  11.862   3.290
91230SOL    HW275588   4.984  11.744   3.216
91231SOL     OW75589   5.928  10.123  13.459
91231SOL    HW175590   6.010  10.161  13.490
91231SOL    HW275591   5.871  10.123  13.536
91232SOL     OW75592   2.285   0.304  14.328
91232SOL    HW175593   2.326   0.302  14.242
91232SOL    HW275594   2.209   0.246  14.320
91233SOL     OW75595   3.414   4.892  10.233
91233SOL    HW175596   3.418   4.837  10.312
91233SOL    HW275597   3.406   4.981  10.266
91234SOL     OW75598  10.409  11.706   0.241
91234SOL    HW175599  10.433  11.798   0.257
91234SOL    HW275600  10.492  11.659   0.247
91235SOL     OW75601  11.882   9.154  12.231
91235SOL    HW175602  11.968   9.113  12.243
91235SOL    HW275603  11.820   9.081  12.234
91236SOL     OW75604  12.151   1.895  13.697
91236SOL    HW175605  12.200   1.951  13.637
91236SOL    HW275606  12.078   1.861  13.644
91237SOL     OW75607   1.143   1.793   7.998
91237SOL    HW175608   1.155   1.702   7.972
91237SOL    HW275609   1.049   1.803   8.011
91238SOL     OW75610   5.951   4.213  12.486
91238SOL    HW175611   6.028   4.198  12.431
91238SOL    HW275612   5.938   4.308  12.483
91239SOL     OW75613  14.797  11.054   3.274
91239SOL    HW175614  14.749  11.076   3.194
91239SOL    HW275615  14.730  11.026   3.336
91240SOL     OW75616   7.386   3.092   1.966
91240SOL    HW175617   7.326   3.075   2.038
91240SOL    HW275618   7.370   3.021   1.904
91241SOL     OW75619   7.758  12.442  13.353
91241SOL    HW175620   7.840  12.478  13.387
91241SOL    HW275621   7.713  12.517  13.315
91242SOL     OW75622   2.915   3.822  14.218
91242SOL    HW175623   2.848   3.784  14.275
91242SOL    HW275624   2.994   3.824  14.272
91243SOL     OW75625   8.327   9.446   7.664
91243SOL    HW175626   8.305   9.361   7.703
91243SOL    HW275627   8.390   9.425   7.595
91244SOL     OW75628  10.440  13.087   8.217
91244SOL    HW175629  10.500  13.014   8.205
91244SOL    HW275630  10.487  13.163   8.181
91245SOL     OW75631   3.508   2.557  12.502
91245SOL    HW175632   3.548   2.542  12.588
91245SOL    HW275633   3.439   2.491  12.496
91246SOL     OW75634   4.455   2.819  14.337
91246SOL    HW175635   4.416   2.732  14.332
91246SOL    HW275636   4.455   2.851  14.247
91247SOL     OW75637   4.758  14.154   7.029
91247SOL    HW175638   4.668  14.143   6.998
91247SOL    HW275639   4.750  14.153   7.125
91248SOL     OW75640   3.001   6.400   8.376
91248SOL    HW175641   2.925   6.420   8.430
91248SOL    HW275642   3.066   6.365   8.438
91249SOL     OW75643  12.875  11.389   4.894
91249SOL    HW175644  12.881  11.305   4.939
91249SOL    HW275645  12.881  11.367   4.801
91250SOL     OW75646   4.306   6.320   9.648
91250SOL    HW175647   4.337   6.231   9.667
91250SOL    HW275648   4.358   6.376   9.706
91251SOL     OW75649   7.480   9.719   9.943
91251SOL    HW175650   7.558   9.680   9.903
91251SOL    HW275651   7.484   9.693  10.035
91252SOL     OW75652   7.009  13.079   4.672
91252SOL    HW175653   7.016  12.993   4.632
91252SOL    HW275654   7.088  13.087   4.726
91253SOL     OW75655   4.573   5.659   4.687
91253SOL    HW175656   4.573   5.672   4.592
91253SOL    HW275657   4.637   5.589   4.701
91254SOL     OW75658   3.052   1.148   4.072
91254SOL    HW175659   3.052   1.112   3.983
91254SOL    HW275660   2.960   1.149   4.098
91255SOL     OW75661   4.956   0.124  10.777
91255SOL    HW175662   4.996   0.180  10.711
91255SOL    HW275663   4.864   0.118  10.751
91256SOL     OW75664  12.159   5.083   7.514
91256SOL    HW175665  12.176   5.086   7.608
91256SOL    HW275666  12.082   5.026   7.505
91257SOL     OW75667   8.534   3.278   9.805
91257SOL    HW175668   8.623   3.283   9.840
91257SOL    HW275669   8.545   3.287   9.710
91258SOL     OW75670   5.266  13.030   1.324
91258SOL    HW175671   5.259  12.935   1.314
91258SOL    HW275672   5.179  13.063   1.304
91259SOL     OW75673   9.864   8.834   7.263
91259SOL    HW175674   9.903   8.801   7.344
91259SOL    HW275675   9.781   8.873   7.290
91260SOL     OW75676   6.700   5.771   1.775
91260SOL    HW175677   6.789   5.781   1.808
91260SOL    HW275678   6.647   5.825   1.834
91261SOL     OW75679   9.599   2.758   6.704
91261SOL    HW175680   9.511   2.774   6.737
91261SOL    HW275681   9.585   2.699   6.629
91262SOL     OW75682  13.875   8.309   7.710
91262SOL    HW175683  13.808   8.271   7.767
91262SOL    HW275684  13.891   8.396   7.746
91263SOL     OW75685   6.934   0.772  11.461
91263SOL    HW175686   6.937   0.698  11.401
91263SOL    HW275687   6.987   0.744  11.536
91264SOL     OW75688   0.516  14.585   3.217
91264SOL    HW175689   0.553  14.664   3.258
91264SOL    HW275690   0.501  14.611   3.126
91265SOL     OW75691   5.557   8.028   5.226
91265SOL    HW175692   5.569   8.018   5.132
91265SOL    HW275693   5.471   7.989   5.244
91266SOL     OW75694  11.292  13.751   1.676
91266SOL    HW175695  11.342  13.824   1.712
91266SOL    HW275696  11.206  13.787   1.657
91267SOL     OW75697   4.863  13.249  12.410
91267SOL    HW175698   4.899  13.297  12.336
91267SOL    HW275699   4.910  13.285  12.486
91268SOL     OW75700  13.904   1.638  14.847
91268SOL    HW175701  13.891   1.543  14.856
91268SOL    HW275702  13.839   1.676   0.039
91269SOL     OW75703   6.649  14.239  12.627
91269SOL    HW175704   6.706  14.231  12.550
91269SOL    HW275705   6.570  14.281  12.593
91270SOL     OW75706  12.486  10.000  10.409
91270SOL    HW175707  12.432   9.981  10.485
91270SOL    HW275708  12.454   9.942  10.341
91271SOL     OW75709   5.956  14.051   8.602
91271SOL    HW175710   5.911  14.089   8.526
91271SOL    HW275711   5.908  14.084   8.678
91272SOL     OW75712   6.131   5.249  10.347
91272SOL    HW175713   6.120   5.157  10.369
91272SOL    HW275714   6.178   5.248  10.263
91273SOL     OW75715   8.390   1.196   9.536
91273SOL    HW175716   8.387   1.252   9.614
91273SOL    HW275717   8.337   1.120   9.558
91274SOL     OW75718   8.865  14.544   0.031
91274SOL    HW175719   8.880  14.485   0.105
91274SOL    HW275720   8.934  14.522  14.836
91275SOL     OW75721   2.131   7.154   7.717
91275SOL    HW175722   2.163   7.069   7.746
91275SOL    HW275723   2.161   7.162   7.626
91276SOL     OW75724   7.301   4.324   3.541
91276SOL    HW175725   7.333   4.384   3.474
91276SOL    HW275726   7.371   4.259   3.550
91277SOL     OW75727  10.931   9.928  14.465
91277SOL    HW175728  10.943   9.985  14.541
91277SOL    HW275729  10.849   9.958  14.426
91278SOL     OW75730   7.644  13.498   4.082
91278SOL    HW175731   7.618  13.442   4.008
91278SOL    HW275732   7.698  13.566   4.042
91279SOL     OW75733  10.832  13.620   9.029
91279SOL    HW175734  10.811  13.528   9.048
91279SOL    HW275735  10.878  13.651   9.107
91280SOL     OW75736  12.901   4.654   9.676
91280SOL    HW175737  12.910   4.645   9.770
91280SOL    HW275738  12.945   4.736   9.655
91281SOL     OW75739  13.539  10.149   4.562
91281SOL    HW175740  13.481  10.204   4.615
91281SOL    HW275741  13.523  10.060   4.593
91282SOL     OW75742   2.577  11.101  10.351
91282SOL    HW175743   2.509  11.066  10.408
91282SOL    HW275744   2.647  11.128  10.411
91283SOL     OW75745   1.851   4.291  12.277
91283SOL    HW175746   1.855   4.202  12.312
91283SOL    HW275747   1.921   4.338  12.321
91284SOL     OW75748  13.279   0.299   7.477
91284SOL    HW175749  13.366   0.299   7.438
91284SOL    HW275750  13.276   0.220   7.531
91285SOL     OW75751   9.667  12.030  10.235
91285SOL    HW175752   9.650  11.941  10.265
91285SOL    HW275753   9.691  12.021  10.143
91286SOL     OW75754   8.176   2.194  13.304
91286SOL    HW175755   8.216   2.279  13.289
91286SOL    HW275756   8.091   2.199  13.261
91287SOL     OW75757   4.805  11.657   9.428
91287SOL    HW175758   4.714  11.641   9.403
91287SOL    HW275759   4.816  11.752   9.419
91288SOL     OW75760   9.493  14.214  13.101
91288SOL    HW175761   9.557  14.250  13.039
91288SOL    HW275762   9.440  14.289  13.128
91289SOL     OW75763   6.565   0.215   8.755
91289SOL    HW175764   6.503   0.196   8.825
91289SOL    HW275765   6.646   0.238   8.800
91290SOL     OW75766  12.794   3.596   2.567
91290SOL    HW175767  12.865   3.543   2.533
91290SOL    HW275768  12.831   3.684   2.577
91291SOL     OW75769   8.310   0.355   9.384
91291SOL    HW175770   8.335   0.316   9.300
91291SOL    HW275771   8.324   0.449   9.373
91292SOL     OW75772  14.159  12.249  13.909
91292SOL    HW175773  14.146  12.157  13.931
91292SOL    HW275774  14.224  12.280  13.972
91293SOL     OW75775   5.220   4.947   1.501
91293SOL    HW175776   5.282   4.909   1.564
91293SOL    HW275777   5.243   5.040   1.497
91294SOL     OW75778   3.558  14.753   4.517
91294SOL    HW175779   3.619  14.679   4.523
91294SOL    HW275780   3.583  14.811   4.588
91295SOL     OW75781   8.409   1.011  13.367
91295SOL    HW175782   8.440   1.028  13.278
91295SOL    HW275783   8.361   1.090  13.391
91296SOL     OW75784   8.973   3.618   9.800
91296SOL    HW175785   9.028   3.618   9.879
91296SOL    HW275786   9.035   3.619   9.728
91297SOL     OW75787   9.575   2.062  10.062
91297SOL    HW175788   9.638   2.125  10.026
91297SOL    HW275789   9.544   2.103  10.143
91298SOL     OW75790  13.207   3.981   6.820
91298SOL    HW175791  13.216   3.945   6.908
91298SOL    HW275792  13.264   4.058   6.820
91299SOL     OW75793  10.841   9.356  10.606
91299SOL    HW175794  10.840   9.450  10.587
91299SOL    HW275795  10.921   9.342  10.655
91300SOL     OW75796   4.557   1.510   5.886
91300SOL    HW175797   4.569   1.437   5.948
91300SOL    HW275798   4.520   1.580   5.939
91301SOL     OW75799  12.766   7.269  10.948
91301SOL    HW175800  12.812   7.341  10.905
91301SOL    HW275801  12.737   7.213  10.876
91302SOL     OW75802  12.571  14.276  11.568
91302SOL    HW175803  12.566  14.366  11.535
91302SOL    HW275804  12.505  14.229  11.517
91303SOL     OW75805   9.188  13.743   1.949
91303SOL    HW175806   9.183  13.823   2.001
91303SOL    HW275807   9.186  13.773   1.858
91304SOL     OW75808   6.232   8.620   3.703
91304SOL    HW175809   6.273   8.703   3.728
91304SOL    HW275810   6.263   8.558   3.769
91305SOL     OW75811   4.537   0.147  14.107
91305SOL    HW175812   4.541   0.061  14.149
91305SOL    HW275813   4.465   0.140  14.045
91306SOL     OW75814   1.779   9.491   7.697
91306SOL    HW175815   1.796   9.397   7.687
91306SOL    HW275816   1.859   9.526   7.736
91307SOL     OW75817  12.189   4.033  10.363
91307SOL    HW175818  12.238   4.104  10.402
91307SOL    HW275819  12.105   4.033  10.410
91308SOL     OW75820  11.149  14.155   3.889
91308SOL    HW175821  11.191  14.219   3.832
91308SOL    HW275822  11.161  14.071   3.844
91309SOL     OW75823   9.916   0.871  11.920
91309SOL    HW175824   9.905   0.869  12.015
91309SOL    HW275825   9.835   0.831  11.886
91310SOL     OW75826  13.254   1.737   3.627
91310SOL    HW175827  13.238   1.725   3.720
91310SOL    HW275828  13.344   1.705   3.614
91311SOL     OW75829  11.873   6.649  10.409
91311SOL    HW175830  11.862   6.590  10.484
91311SOL    HW275831  11.966   6.643  10.387
91312SOL     OW75832   8.851   1.155  14.772
91312SOL    HW175833   8.941   1.186  14.766
91312SOL    HW275834   8.856   1.063  14.746
91313SOL     OW75835  12.449   5.644   1.826
91313SOL    HW175836  12.447   5.556   1.865
91313SOL    HW275837  12.435   5.629   1.733
91314SOL     OW75838  14.848   7.830   4.808
91314SOL    HW175839  14.828   7.738   4.794
91314SOL    HW275840  14.804   7.876   4.737
91315SOL     OW75841  14.536   0.319   5.472
91315SOL    HW175842  14.511   0.376   5.544
91315SOL    HW275843  14.601   0.260   5.510
91316SOL     OW75844   3.568  12.321  14.852
91316SOL    HW175845   3.481  12.302   0.021
91316SOL    HW275846   3.574  12.417  14.854
91317SOL     OW75847  13.769   1.167  11.732
91317SOL    HW175848  13.694   1.126  11.776
91317SOL    HW275849  13.801   1.100  11.671
91318SOL     OW75850   9.349  14.244  11.786
91318SOL    HW175851   9.402  14.219  11.861
91318SOL    HW275852   9.264  14.269  11.824
91319SOL     OW75853   1.876   7.898   7.103
91319SOL    HW175854   1.942   7.882   7.036
91319SOL    HW275855   1.922   7.884   7.186
91320SOL     OW75856   1.239  10.741   4.943
91320SOL    HW175857   1.216  10.650   4.959
91320SOL    HW275858   1.160  10.790   4.965
91321SOL     OW75859  10.328   6.995   3.477
91321SOL    HW175860  10.378   6.970   3.400
91321SOL    HW275861  10.350   6.929   3.543
91322SOL     OW75862  10.740  12.419   7.021
91322SOL    HW175863  10.761  12.379   6.936
91322SOL    HW275864  10.745  12.513   7.004
91323SOL     OW75865   5.431   9.005  10.940
91323SOL    HW175866   5.386   9.067  10.997
91323SOL    HW275867   5.443   8.927  10.994
91324SOL     OW75868   7.818   0.584  13.010
91324SOL    HW175869   7.811   0.664  13.061
91324SOL    HW275870   7.829   0.613  12.920
91325SOL     OW75871   1.112   5.941   0.787
91325SOL    HW175872   1.124   5.846   0.798
91325SOL    HW275873   1.018   5.955   0.801
91326SOL     OW75874  10.564   3.588   7.594
91326SOL    HW175875  10.501   3.541   7.540
91326SOL    HW275876  10.648   3.550   7.572
91327SOL     OW75877   3.576  12.855   0.429
91327SOL    HW175878   3.558  12.941   0.390
91327SOL    HW275879   3.597  12.874   0.521
91328SOL     OW75880   2.063   8.996   6.212
91328SOL    HW175881   1.972   9.010   6.187
91328SOL    HW275882   2.092   8.922   6.159
91329SOL     OW75883   6.394  10.215   4.310
91329SOL    HW175884   6.309  10.175   4.328
91329SOL    HW275885   6.435  10.224   4.397
91330SOL     OW75886   2.560  12.656   3.137
91330SOL    HW175887   2.624  12.666   3.208
91330SOL    HW275888   2.487  12.712   3.162
91331SOL     OW75889   1.914   9.068   7.823
91331SOL    HW175890   1.914   8.977   7.851
91331SOL    HW275891   1.926   9.119   7.903
91332SOL     OW75892   9.518   8.741  11.822
91332SOL    HW175893   9.437   8.692  11.838
91332SOL    HW275894   9.533   8.731  11.728
91333SOL     OW75895   6.035   8.156   1.154
91333SOL    HW175896   6.129   8.173   1.157
91333SOL    HW275897   6.000   8.206   1.228
91334SOL     OW75898   9.128   2.295   2.268
91334SOL    HW175899   9.194   2.264   2.205
91334SOL    HW275900   9.054   2.321   2.213
91335SOL     OW75901  10.358   1.280  13.855
91335SOL    HW175902  10.381   1.204  13.802
91335SOL    HW275903  10.301   1.332  13.798
91336SOL     OW75904  12.316   0.375  10.101
91336SOL    HW175905  12.378   0.312  10.064
91336SOL    HW275906  12.233   0.329  10.102
91337SOL     OW75907   1.980  12.054   9.515
91337SOL    HW175908   1.899  12.057   9.464
91337SOL    HW275909   2.011  12.145   9.516
91338SOL     OW75910   0.835  11.430   5.930
91338SOL    HW175911   0.843  11.520   5.899
91338SOL    HW275912   0.761  11.394   5.881
91339SOL     OW75913   7.698  14.558   9.990
91339SOL    HW175914   7.621  14.608   9.962
91339SOL    HW275915   7.661  14.483  10.037
91340SOL     OW75916  11.105   7.221  11.631
91340SOL    HW175917  11.134   7.312  11.634
91340SOL    HW275918  11.014   7.226  11.602
91341SOL     OW75919   7.220   4.422   3.995
91341SOL    HW175920   7.223   4.515   4.019
91341SOL    HW275921   7.297   4.410   3.939
91342SOL     OW75922   1.350  14.111  14.568
91342SOL    HW175923   1.305  14.084  14.648
91342SOL    HW275924   1.392  14.194  14.590
91343SOL     OW75925   2.942  14.212   6.539
91343SOL    HW175926   2.861  14.259   6.519
91343SOL    HW275927   3.001  14.280   6.572
91344SOL     OW75928   5.609   2.345  13.218
91344SOL    HW175929   5.569   2.289  13.284
91344SOL    HW275930   5.564   2.322  13.137
91345SOL     OW75931   0.701   7.182   2.146
91345SOL    HW175932   0.749   7.265   2.151
91345SOL    HW275933   0.628   7.193   2.207
91346SOL     OW75934  13.930  13.580   2.459
91346SOL    HW175935  13.990  13.525   2.511
91346SOL    HW275936  13.844  13.540   2.472
91347SOL     OW75937  12.137   6.186   2.877
91347SOL    HW175938  12.232   6.184   2.861
91347SOL    HW275939  12.129   6.194   2.972
91348SOL     OW75940  14.587   0.514   4.987
91348SOL    HW175941  14.556   0.484   5.073
91348SOL    HW275942  14.571   0.608   4.987
91349SOL     OW75943  10.381   2.418   2.147
91349SOL    HW175944  10.321   2.412   2.074
91349SOL    HW275945  10.389   2.512   2.164
91350SOL     OW75946   7.045   9.113   8.531
91350SOL    HW175947   7.019   9.045   8.470
91350SOL    HW275948   6.990   9.099   8.608
91351SOL     OW75949  10.509   1.194   4.247
91351SOL    HW175950  10.522   1.161   4.159
91351SOL    HW275951  10.419   1.227   4.248
91352SOL     OW75952   4.354   2.634   7.982
91352SOL    HW175953   4.449   2.637   7.972
91352SOL    HW275954   4.321   2.664   7.897
91353SOL     OW75955   0.903   6.515  13.606
91353SOL    HW175956   0.965   6.462  13.656
91353SOL    HW275957   0.891   6.467  13.524
91354SOL     OW75958   1.423   7.631   3.828
91354SOL    HW175959   1.472   7.612   3.748
91354SOL    HW275960   1.415   7.726   3.829
91355SOL     OW75961   1.740   6.495   7.746
91355SOL    HW175962   1.811   6.467   7.688
91355SOL    HW275963   1.765   6.582   7.776
91356SOL     OW75964   4.042   9.088   6.244
91356SOL    HW175965   4.138   9.092   6.247
91356SOL    HW275966   4.021   8.996   6.260
91357SOL     OW75967   7.382   0.153   7.446
91357SOL    HW175968   7.452   0.204   7.488
91357SOL    HW275969   7.428   0.080   7.403
91358SOL     OW75970   0.077   1.107  14.398
91358SOL    HW175971   0.123   1.096  14.315
91358SOL    HW275972   0.118   1.044  14.456
91359SOL     OW75973  10.831   2.831   7.821
91359SOL    HW175974  10.883   2.861   7.896
91359SOL    HW275975  10.760   2.894   7.814
91360SOL     OW75976   7.486  12.144  13.601
91360SOL    HW175977   7.460  12.080  13.535
91360SOL    HW275978   7.553  12.100  13.653
91361SOL     OW75979  11.156   0.495  14.464
91361SOL    HW175980  11.132   0.407  14.435
91361SOL    HW275981  11.132   0.497  14.557
91362SOL     OW75982   5.525  10.362   5.420
91362SOL    HW175983   5.431  10.376   5.431
91362SOL    HW275984   5.533  10.272   5.391
91363SOL     OW75985   8.404   5.678   0.858
91363SOL    HW175986   8.330   5.634   0.900
91363SOL    HW275987   8.451   5.608   0.814
91364SOL     OW75988   6.637  12.978  10.228
91364SOL    HW175989   6.676  13.061  10.201
91364SOL    HW275990   6.549  13.001  10.259
91365SOL     OW75991   6.087   4.458  10.066
91365SOL    HW175992   6.073   4.411   9.983
91365SOL    HW275993   6.077   4.550  10.043
91366SOL     OW75994   0.322   7.621   8.716
91366SOL    HW175995   0.358   7.706   8.690
91366SOL    HW275996   0.332   7.621   8.812
91367SOL     OW75997   5.125  12.057  10.500
91367SOL    HW175998   5.089  11.969  10.510
91367SOL    HW275999   5.111  12.079  10.408
91368SOL     OW76000   6.249   9.746   3.828
91368SOL    HW176001   6.235   9.742   3.922
91368SOL    HW276002   6.192   9.677   3.792
91369SOL     OW76003   6.240   0.286   6.360
91369SOL    HW176004   6.220   0.250   6.273
91369SOL    HW276005   6.209   0.219   6.421
91370SOL     OW76006  11.278   4.169   0.046
91370SOL    HW176007  11.350   4.110   0.026
91370SOL    HW276008  11.316   4.235   0.104
91371SOL     OW76009   6.137  13.315  11.841
91371SOL    HW176010   6.094  13.297  11.758
91371SOL    HW276011   6.115  13.406  11.861
91372SOL     OW76012   0.947   0.291  14.035
91372SOL    HW176013   1.003   0.213  14.035
91372SOL    HW276014   0.870   0.265  14.086
91373SOL     OW76015  13.438   5.578   6.334
91373SOL    HW176016  13.404   5.634   6.404
91373SOL    HW276017  13.360   5.542   6.293
91374SOL     OW76018  14.756   5.644  13.160
91374SOL    HW176019  14.663   5.661  13.177
91374SOL    HW276020  14.759   5.551  13.136
91375SOL     OW76021  12.419  11.946   3.808
91375SOL    HW176022  12.346  12.006   3.787
91375SOL    HW276023  12.483  11.962   3.738
91376SOL     OW76024   2.485  11.289   6.760
91376SOL    HW176025   2.537  11.329   6.830
91376SOL    HW276026   2.541  11.219   6.726
91377SOL     OW76027  14.290  11.094   1.368
91377SOL    HW176028  14.294  11.159   1.298
91377SOL    HW276029  14.279  11.010   1.323
91378SOL     OW76030   7.922   6.081   8.728
91378SOL    HW176031   7.843   6.074   8.781
91378SOL    HW276032   7.903   6.032   8.648
91379SOL     OW76033   4.023   5.135   2.973
91379SOL    HW176034   4.081   5.071   2.934
91379SOL    HW276035   4.082   5.199   3.014
91380SOL     OW76036   4.907   8.592   8.731
91380SOL    HW176037   4.826   8.573   8.682
91380SOL    HW276038   4.950   8.660   8.679
91381SOL     OW76039   6.676   4.242   2.062
91381SOL    HW176040   6.657   4.155   2.098
91381SOL    HW276041   6.712   4.225   1.975
91382SOL     OW76042   9.126   3.884   1.129
91382SOL    HW176043   9.116   3.792   1.102
91382SOL    HW276044   9.220   3.893   1.146
91383SOL     OW76045   6.012  12.310  11.452
91383SOL    HW176046   6.003  12.259  11.533
91383SOL    HW276047   6.052  12.249  11.390
91384SOL     OW76048  12.661   4.931  14.767
91384SOL    HW176049  12.685   5.020  14.793
91384SOL    HW276050  12.731   4.903  14.708
91385SOL     OW76051   2.141  13.351   5.640
91385SOL    HW176052   2.067  13.371   5.582
91385SOL    HW276053   2.175  13.437   5.665
91386SOL     OW76054  13.825   2.562   0.575
91386SOL    HW176055  13.911   2.583   0.538
91386SOL    HW276056  13.786   2.647   0.594
91387SOL     OW76057   8.506   8.050  12.425
91387SOL    HW176058   8.433   8.010  12.473
91387SOL    HW276059   8.508   8.004  12.342
91388SOL     OW76060  10.619   7.705   1.144
91388SOL    HW176061  10.604   7.615   1.172
91388SOL    HW276062  10.574   7.759   1.210
91389SOL     OW76063   2.835   0.458   8.942
91389SOL    HW176064   2.745   0.477   8.916
91389SOL    HW276065   2.871   0.408   8.868
91390SOL     OW76066  14.628  10.810   6.476
91390SOL    HW176067  14.710  10.808   6.426
91390SOL    HW276068  14.570  10.749   6.430
91391SOL     OW76069   1.070   9.759   8.816
91391SOL    HW176070   1.091   9.744   8.723
91391SOL    HW276071   1.004   9.829   8.814
91392SOL     OW76072  13.140   7.945  14.819
91392SOL    HW176073  13.147   7.932  14.725
91392SOL    HW276074  13.078   7.878  14.848
91393SOL     OW76075   6.067   5.236  14.095
91393SOL    HW176076   5.979   5.258  14.066
91393SOL    HW276077   6.061   5.232  14.190
91394SOL     OW76078  11.192  10.771  14.144
91394SOL    HW176079  11.226  10.684  14.166
91394SOL    HW276080  11.261  10.810  14.091
91395SOL     OW76081   9.560  12.172   9.511
91395SOL    HW176082   9.579  12.085   9.474
91395SOL    HW276083   9.578  12.163   9.605
91396SOL     OW76084  14.013   6.782   1.212
91396SOL    HW176085  13.922   6.807   1.223
91396SOL    HW276086  14.042   6.758   1.300
91397SOL     OW76087   4.994   0.185   1.185
91397SOL    HW176088   5.084   0.155   1.180
91397SOL    HW276089   4.957   0.139   1.260
91398SOL     OW76090   8.362  14.172   4.627
91398SOL    HW176091   8.353  14.264   4.653
91398SOL    HW276092   8.396  14.176   4.537
91399SOL     OW76093  11.289   2.296   7.679
91399SOL    HW176094  11.378   2.319   7.653
91399SOL    HW276095  11.243   2.380   7.687
91400SOL     OW76096   2.190   5.405   5.435
91400SOL    HW176097   2.216   5.403   5.343
91400SOL    HW276098   2.269   5.381   5.483
91401SOL     OW76099   3.700  11.754   5.742
91401SOL    HW176100   3.739  11.829   5.696
91401SOL    HW276101   3.633  11.722   5.683
91402SOL     OW76102  12.233  13.691   8.510
91402SOL    HW176103  12.160  13.639   8.544
91402SOL    HW276104  12.307  13.666   8.565
91403SOL     OW76105   0.241  14.119  11.744
91403SOL    HW176106   0.250  14.182  11.816
91403SOL    HW276107   0.152  14.133  11.711
91404SOL     OW76108   9.082  12.363   1.715
91404SOL    HW176109   9.151  12.313   1.759
91404SOL    HW276110   9.115  12.454   1.715
91405SOL     OW76111  14.178   6.732   3.542
91405SOL    HW176112  14.196   6.704   3.632
91405SOL    HW276113  14.257   6.710   3.493
91406SOL     OW76114   8.985   2.036   8.702
91406SOL    HW176115   9.001   2.031   8.608
91406SOL    HW276116   8.890   2.046   8.710
91407SOL     OW76117   0.100   3.800   5.487
91407SOL    HW176118   0.138   3.874   5.440
91407SOL    HW276119   0.007   3.804   5.468
91408SOL     OW76120   4.332   6.132  12.953
91408SOL    HW176121   4.263   6.082  12.909
91408SOL    HW276122   4.291   6.160  13.035
91409SOL     OW76123   7.248   0.205   8.515
91409SOL    HW176124   7.242   0.149   8.592
91409SOL    HW276125   7.169   0.259   8.519
91410SOL     OW76126  13.298   2.920   5.807
91410SOL    HW176127  13.296   3.015   5.802
91410SOL    HW276128  13.389   2.898   5.829
91411SOL     OW76129   3.863  10.181   3.650
91411SOL    HW176130   3.824  10.252   3.701
91411SOL    HW276131   3.865  10.106   3.710
91412SOL     OW76132   2.456   2.655   3.082
91412SOL    HW176133   2.413   2.741   3.073
91412SOL    HW276134   2.453   2.618   2.994
91413SOL     OW76135   7.539   6.758   4.628
91413SOL    HW176136   7.516   6.697   4.557
91413SOL    HW276137   7.473   6.742   4.695
91414SOL     OW76138   2.755  12.176   0.496
91414SOL    HW176139   2.810  12.165   0.419
91414SOL    HW276140   2.699  12.251   0.475
91415SOL     OW76141   1.103   4.000   5.819
91415SOL    HW176142   1.078   3.961   5.735
91415SOL    HW276143   1.165   3.937   5.856
91416SOL     OW76144  11.439   7.320  10.226
91416SOL    HW176145  11.516   7.350  10.176
91416SOL    HW276146  11.421   7.391  10.288
91417SOL     OW76147  14.168   9.224  11.664
91417SOL    HW176148  14.135   9.145  11.621
91417SOL    HW276149  14.232   9.260  11.602
91418SOL     OW76150   6.951  14.769  11.168
91418SOL    HW176151   6.937  14.858  11.199
91418SOL    HW276152   6.981  14.779  11.078
91419SOL     OW76153   2.063  14.336   1.292
91419SOL    HW176154   2.030  14.257   1.335
91419SOL    HW276155   2.156  14.318   1.277
91420SOL     OW76156  11.433   9.795   4.371
91420SOL    HW176157  11.523   9.780   4.397
91420SOL    HW276158  11.439   9.861   4.302
91421SOL     OW76159   7.234  13.275  14.571
91421SOL    HW176160   7.186  13.252  14.492
91421SOL    HW276161   7.281  13.195  14.595
91422SOL     OW76162   7.411  12.545   2.828
91422SOL    HW176163   7.342  12.494   2.786
91422SOL    HW276164   7.405  12.522   2.921
91423SOL     OW76165   8.319   3.246   7.384
91423SOL    HW176166   8.361   3.163   7.408
91423SOL    HW276167   8.226   3.225   7.376
91424SOL     OW76168   2.561   9.146   8.374
91424SOL    HW176169   2.492   9.175   8.314
91424SOL    HW276170   2.639   9.193   8.347
91425SOL     OW76171   6.795   3.573  12.205
91425SOL    HW176172   6.837   3.487  12.209
91425SOL    HW276173   6.707   3.555  12.171
91426SOL     OW76174  12.595   3.137   8.339
91426SOL    HW176175  12.572   3.046   8.355
91426SOL    HW276176  12.515   3.177   8.306
91427SOL     OW76177   9.818  10.460   8.803
91427SOL    HW176178   9.779  10.546   8.788
91427SOL    HW276179   9.779  10.404   8.735
91428SOL     OW76180   5.850   4.825   1.042
91428SOL    HW176181   5.848   4.921   1.038
91428SOL    HW276182   5.942   4.802   1.034
91429SOL     OW76183  10.577  13.706   0.722
91429SOL    HW176184  10.535  13.627   0.688
91429SOL    HW276185  10.504  13.765   0.742
91430SOL     OW76186   3.183   3.430   9.411
91430SOL    HW176187   3.217   3.471   9.331
91430SOL    HW276188   3.260   3.398   9.457
91431SOL     OW76189   1.103  12.829   1.685
91431SOL    HW176190   1.072  12.756   1.738
91431SOL    HW276191   1.162  12.877   1.743
91432SOL     OW76192   3.859   0.872  11.382
91432SOL    HW176193   3.772   0.878  11.422
91432SOL    HW276194   3.902   0.955  11.405
91433SOL     OW76195   4.503   2.149  11.683
91433SOL    HW176196   4.537   2.073  11.731
91433SOL    HW276197   4.550   2.147  11.600
91434SOL     OW76198   9.748   3.758  11.970
91434SOL    HW176199   9.665   3.798  11.997
91434SOL    HW276200   9.764   3.690  12.036
91435SOL     OW76201   9.478   4.780   4.675
91435SOL    HW176202   9.414   4.754   4.609
91435SOL    HW276203   9.538   4.706   4.680
91436SOL     OW76204  10.435   4.288  11.854
91436SOL    HW176205  10.342   4.309  11.843
91436SOL    HW276206  10.469   4.282  11.765
91437SOL     OW76207  12.847  12.189  10.400
91437SOL    HW176208  12.825  12.268  10.351
91437SOL    HW276209  12.868  12.221  10.488
91438SOL     OW76210   2.928  12.962  13.461
91438SOL    HW176211   2.973  12.971  13.377
91438SOL    HW276212   2.910  13.052  13.488
91439SOL     OW76213  14.417  12.683   4.697
91439SOL    HW176214  14.358  12.617   4.659
91439SOL    HW276215  14.422  12.659   4.789
91440SOL     OW76216   4.863   5.213   3.132
91440SOL    HW176217   4.927   5.262   3.081
91440SOL    HW276218   4.795   5.277   3.154
91441SOL     OW76219   1.270   4.239  11.219
91441SOL    HW176220   1.330   4.171  11.189
91441SOL    HW276221   1.239   4.280  11.139
91442SOL     OW76222  10.603   9.017   6.758
91442SOL    HW176223  10.566   9.068   6.686
91442SOL    HW276224  10.537   8.950   6.776
91443SOL     OW76225  11.575   6.324   1.196
91443SOL    HW176226  11.647   6.369   1.238
91443SOL    HW276227  11.521   6.291   1.268
91444SOL     OW76228   4.602   3.303   4.730
91444SOL    HW176229   4.541   3.280   4.660
91444SOL    HW276230   4.611   3.398   4.725
91445SOL     OW76231   2.087   4.297  13.623
91445SOL    HW176232   2.019   4.233  13.641
91445SOL    HW276233   2.117   4.276  13.534
91446SOL     OW76234   6.148  12.635   3.721
91446SOL    HW176235   6.183  12.553   3.684
91446SOL    HW276236   6.081  12.663   3.658
91447SOL     OW76237   4.386   4.750   2.240
91447SOL    HW176238   4.367   4.735   2.147
91447SOL    HW276239   4.339   4.831   2.260
91448SOL     OW76240  10.141   7.621   4.723
91448SOL    HW176241  10.205   7.692   4.719
91448SOL    HW276242  10.125   7.610   4.817
91449SOL     OW76243  12.746   8.920   5.014
91449SOL    HW176244  12.678   8.894   5.076
91449SOL    HW276245  12.761   8.842   4.960
91450SOL     OW76246   8.595  11.272   2.349
91450SOL    HW176247   8.588  11.177   2.355
91450SOL    HW276248   8.504  11.301   2.336
91451SOL     OW76249   9.052   4.379  10.780
91451SOL    HW176250   9.006   4.371  10.697
91451SOL    HW276251   9.084   4.469  10.782
91452SOL     OW76252   4.295  12.607   1.812
91452SOL    HW176253   4.265  12.568   1.894
91452SOL    HW276254   4.289  12.536   1.748
91453SOL     OW76255   6.091   5.489  12.850
91453SOL    HW176256   6.027   5.556  12.829
91453SOL    HW276257   6.085   5.427  12.778
91454SOL     OW76258   6.106   2.569  11.232
91454SOL    HW176259   6.101   2.603  11.321
91454SOL    HW276260   6.153   2.637  11.183
91455SOL     OW76261   0.856  11.533   8.190
91455SOL    HW176262   0.817  11.493   8.268
91455SOL    HW276263   0.842  11.469   8.121
91456SOL     OW76264  10.087   7.475   2.764
91456SOL    HW176265  10.057   7.398   2.811
91456SOL    HW276266  10.023   7.543   2.785
91457SOL     OW76267   5.906   8.714  10.950
91457SOL    HW176268   5.875   8.657  10.879
91457SOL    HW276269   5.976   8.765  10.911
91458SOL     OW76270  11.261   7.132   1.963
91458SOL    HW176271  11.184   7.092   2.004
91458SOL    HW276272  11.227   7.209   1.918
91459SOL     OW76273  13.999  12.993   9.995
91459SOL    HW176274  14.015  12.904  10.027
91459SOL    HW276275  14.060  13.003   9.922
91460SOL     OW76276   9.112  10.516   4.678
91460SOL    HW176277   9.071  10.432   4.656
91460SOL    HW276278   9.165  10.538   4.602
91461SOL     OW76279   9.933   2.435   4.824
91461SOL    HW176280   9.989   2.452   4.900
91461SOL    HW276281   9.930   2.518   4.777
91462SOL     OW76282   1.005  10.565   7.475
91462SOL    HW176283   1.058  10.604   7.545
91462SOL    HW276284   0.915  10.577   7.503
91463SOL     OW76285  10.944   6.636   6.910
91463SOL    HW176286  10.889   6.612   6.835
91463SOL    HW276287  10.967   6.727   6.895
91464SOL     OW76288   8.856  10.491  12.958
91464SOL    HW176289   8.773  10.533  12.979
91464SOL    HW276290   8.898  10.476  13.043
91465SOL     OW76291   3.691  13.812   1.600
91465SOL    HW176292   3.749  13.860   1.540
91465SOL    HW276293   3.604  13.823   1.562
91466SOL     OW76294   8.313   9.325   2.594
91466SOL    HW176295   8.271   9.411   2.601
91466SOL    HW276296   8.353   9.325   2.507
91467SOL     OW76297  10.721   3.812   8.868
91467SOL    HW176298  10.755   3.846   8.785
91467SOL    HW276299  10.629   3.790   8.849
91468SOL     OW76300   7.163   5.647  13.014
91468SOL    HW176301   7.202   5.608  13.092
91468SOL    HW276302   7.071   5.619  13.016
91469SOL     OW76303  12.517   5.843   7.026
91469SOL    HW176304  12.599   5.828   6.979
91469SOL    HW276305  12.515   5.937   7.042
91470SOL     OW76306   9.854  10.965  12.567
91470SOL    HW176307   9.879  11.030  12.501
91470SOL    HW276308   9.797  11.013  12.628
91471SOL     OW76309   0.863   4.308   8.918
91471SOL    HW176310   0.915   4.282   8.993
91471SOL    HW276311   0.881   4.241   8.852
91472SOL     OW76312  10.082   4.226   8.839
91472SOL    HW176313  10.065   4.149   8.784
91472SOL    HW276314  10.013   4.224   8.905
91473SOL     OW76315  11.115  14.412   7.089
91473SOL    HW176316  11.203  14.376   7.099
91473SOL    HW276317  11.078  14.411   7.177
91474SOL     OW76318  13.986   6.143  10.044
91474SOL    HW176319  13.957   6.124   9.955
91474SOL    HW276320  13.935   6.220  10.070
91475SOL     OW76321  11.652   6.835   7.921
91475SOL    HW176322  11.692   6.821   8.007
91475SOL    HW276323  11.644   6.747   7.884
91476SOL     OW76324   9.068   9.607   1.879
91476SOL    HW176325   9.046   9.594   1.971
91476SOL    HW276326   9.102   9.522   1.851
91477SOL     OW76327  14.559   0.066   0.985
91477SOL    HW176328  14.594  14.854   1.026
91477SOL    HW276329  14.490   0.034   0.926
91478SOL     OW76330   8.735  13.459   2.157
91478SOL    HW176331   8.790  13.397   2.206
91478SOL    HW276332   8.651  13.456   2.201
91479SOL     OW76333  10.144   0.034   3.683
91479SOL    HW176334  10.187  14.833   3.733
91479SOL    HW276335  10.077   0.068   3.741
91480SOL     OW76336   3.386   7.538   8.845
91480SOL    HW176337   3.302   7.544   8.890
91480SOL    HW276338   3.452   7.545   8.914
91481SOL     OW76339  12.656   6.998   8.152
91481SOL    HW176340  12.706   7.080   8.145
91481SOL    HW276341  12.676   6.951   8.071
91482SOL     OW76342   1.518   2.518   4.986
91482SOL    HW176343   1.455   2.590   4.984
91482SOL    HW276344   1.542   2.504   4.895
91483SOL     OW76345  10.409   9.520   2.687
91483SOL    HW176346  10.331   9.514   2.630
91483SOL    HW276347  10.466   9.450   2.656
91484SOL     OW76348   0.691   1.089   3.395
91484SOL    HW176349   0.638   1.094   3.475
91484SOL    HW276350   0.754   1.019   3.412
91485SOL     OW76351  11.200   6.502   6.920
91485SOL    HW176352  11.147   6.581   6.912
91485SOL    HW276353  11.277   6.519   6.865
91486SOL     OW76354   3.468   7.401   4.500
91486SOL    HW176355   3.426   7.471   4.549
91486SOL    HW276356   3.455   7.425   4.408
91487SOL     OW76357   3.036  11.723   5.298
91487SOL    HW176358   3.116  11.776   5.292
91487SOL    HW276359   3.018  11.695   5.208
91488SOL     OW76360  14.644   8.093  14.431
91488SOL    HW176361  14.637   8.179  14.472
91488SOL    HW276362  14.554   8.061  14.426
91489SOL     OW76363   7.512  11.215  11.630
91489SOL    HW176364   7.534  11.134  11.583
91489SOL    HW276365   7.423  11.200  11.661
91490SOL     OW76366   8.211   3.095   4.158
91490SOL    HW176367   8.202   3.044   4.078
91490SOL    HW276368   8.236   3.031   4.225
91491SOL     OW76369   8.210  11.108   6.491
91491SOL    HW176370   8.287  11.161   6.470
91491SOL    HW276371   8.246  11.028   6.530
91492SOL     OW76372   9.262   3.882   0.069
91492SOL    HW176373   9.266   3.888  14.841
91492SOL    HW276374   9.309   3.801   0.089
91493SOL     OW76375  10.094   2.357   6.764
91493SOL    HW176376  10.076   2.311   6.846
91493SOL    HW276377  10.139   2.291   6.710
91494SOL     OW76378   2.847  12.844   4.095
91494SOL    HW176379   2.909  12.906   4.132
91494SOL    HW276380   2.882  12.758   4.116
91495SOL     OW76381   7.618   2.785   9.654
91495SOL    HW176382   7.663   2.844   9.594
91495SOL    HW276383   7.600   2.707   9.602
91496SOL     OW76384   6.290   8.682   0.209
91496SOL    HW176385   6.281   8.594   0.246
91496SOL    HW276386   6.385   8.695   0.203
91497SOL     OW76387   6.841   6.412   9.835
91497SOL    HW176388   6.828   6.490   9.889
91497SOL    HW276389   6.794   6.431   9.754
91498SOL     OW76390   8.445   1.782  11.171
91498SOL    HW176391   8.407   1.768  11.084
91498SOL    HW276392   8.527   1.733  11.169
91499SOL     OW76393  11.875   5.434   5.989
91499SOL    HW176394  11.899   5.526   5.977
91499SOL    HW276395  11.935   5.386   5.931
91500SOL     OW76396   6.807   4.801   5.138
91500SOL    HW176397   6.796   4.857   5.061
91500SOL    HW276398   6.902   4.793   5.148
91501SOL     OW76399   3.048   9.930   5.807
91501SOL    HW176400   3.056   9.936   5.902
91501SOL    HW276401   2.954   9.915   5.792
91502SOL     OW76402   0.774  14.724   2.317
91502SOL    HW176403   0.790  14.661   2.246
91502SOL    HW276404   0.802  14.808   2.281
91503SOL     OW76405  10.058   2.017   4.808
91503SOL    HW176406  10.119   2.048   4.875
91503SOL    HW276407  10.048   2.091   4.748
91504SOL     OW76408  12.032   5.570   4.178
91504SOL    HW176409  12.026   5.541   4.269
91504SOL    HW276410  12.053   5.663   4.184
91505SOL     OW76411  12.450  12.694  13.302
91505SOL    HW176412  12.424  12.761  13.240
91505SOL    HW276413  12.517  12.643  13.256
91506SOL     OW76414   9.607   9.397   3.488
91506SOL    HW176415   9.675   9.435   3.544
91506SOL    HW276416   9.656   9.348   3.422
91507SOL     OW76417   8.025   0.819  12.301
91507SOL    HW176418   7.974   0.746  12.265
91507SOL    HW276419   8.116   0.798  12.279
91508SOL     OW76420  12.828   3.373  13.125
91508SOL    HW176421  12.863   3.317  13.194
91508SOL    HW276422  12.877   3.454  13.132
91509SOL     OW76423   2.072  13.059   7.686
91509SOL    HW176424   2.145  13.064   7.625
91509SOL    HW276425   2.073  13.144   7.731
91510SOL     OW76426   3.301   0.705  13.611
91510SOL    HW176427   3.269   0.770  13.673
91510SOL    HW276428   3.290   0.747  13.525
91511SOL     OW76429  10.311   7.036   0.073
91511SOL    HW176430  10.289   7.090  14.865
91511SOL    HW276431  10.351   7.097   0.135
91512SOL     OW76432   4.518   2.767   4.814
91512SOL    HW176433   4.521   2.861   4.830
91512SOL    HW276434   4.547   2.756   4.724
91513SOL     OW76435  11.397  14.489   5.196
91513SOL    HW176436  11.337  14.558   5.224
91513SOL    HW276437  11.415  14.439   5.275
91514SOL     OW76438   5.535   0.263   5.929
91514SOL    HW176439   5.546   0.184   5.875
91514SOL    HW276440   5.505   0.330   5.867
91515SOL     OW76441   7.366  13.910  14.867
91515SOL    HW176442   7.392  13.981  14.808
91515SOL    HW276443   7.387  13.943   0.087
91516SOL     OW76444  13.753  10.758   3.875
91516SOL    HW176445  13.801  10.838   3.895
91516SOL    HW276446  13.819  10.689   3.873
91517SOL     OW76447   8.580   3.176   2.417
91517SOL    HW176448   8.652   3.230   2.450
91517SOL    HW276449   8.501   3.224   2.442
91518SOL     OW76450  13.833   6.446   4.114
91518SOL    HW176451  13.818   6.352   4.121
91518SOL    HW276452  13.833   6.477   4.204
91519SOL     OW76453   6.513  13.127  13.584
91519SOL    HW176454   6.428  13.152  13.547
91519SOL    HW276455   6.527  13.037  13.553
91520SOL     OW76456   9.884  10.950  14.768
91520SOL    HW176457   9.935  10.968  14.847
91520SOL    HW276458   9.932  10.879  14.725
91521SOL     OW76459   2.766   9.978   5.439
91521SOL    HW176460   2.778  10.064   5.480
91521SOL    HW276461   2.682   9.984   5.393
91522SOL     OW76462   9.070   9.120   2.237
91522SOL    HW176463   8.981   9.087   2.244
91522SOL    HW276464   9.062   9.214   2.252
91523SOL     OW76465   3.245   1.325  11.972
91523SOL    HW176466   3.176   1.377  11.929
91523SOL    HW276467   3.212   1.235  11.969
91524SOL     OW76468   1.127   6.057   9.431
91524SOL    HW176469   1.126   6.000   9.355
91524SOL    HW276470   1.215   6.047   9.468
91525SOL     OW76471   1.389   8.791   9.324
91525SOL    HW176472   1.317   8.815   9.266
91525SOL    HW276473   1.461   8.849   9.299
91526SOL     OW76474   3.253  12.149  11.117
91526SOL    HW176475   3.258  12.186  11.029
91526SOL    HW276476   3.318  12.079  11.118
91527SOL     OW76477   9.620  10.015  12.173
91527SOL    HW176478   9.644   9.958  12.100
91527SOL    HW276479   9.691  10.079  12.178
91528SOL     OW76480   1.471   8.215  12.868
91528SOL    HW176481   1.491   8.154  12.797
91528SOL    HW276482   1.542   8.203  12.931
91529SOL     OW76483   2.142   9.037   5.271
91529SOL    HW176484   2.083   9.098   5.316
91529SOL    HW276485   2.163   9.080   5.189
91530SOL     OW76486   4.132   8.170   1.803
91530SOL    HW176487   4.038   8.156   1.808
91530SOL    HW276488   4.143   8.238   1.737
91531SOL     OW76489   8.589  11.230   6.067
91531SOL    HW176490   8.646  11.244   6.143
91531SOL    HW276491   8.627  11.154   6.023
91532SOL     OW76492  11.687   4.301   4.855
91532SOL    HW176493  11.634   4.309   4.934
91532SOL    HW276494  11.624   4.288   4.784
91533SOL     OW76495   6.000   3.446  13.257
91533SOL    HW176496   5.919   3.427  13.209
91533SOL    HW276497   5.971   3.497  13.333
91534SOL     OW76498   8.520   2.872   7.023
91534SOL    HW176499   8.485   2.806   7.083
91534SOL    HW276500   8.521   2.953   7.075
91535SOL     OW76501   8.509   3.013  11.385
91535SOL    HW176502   8.604   2.999  11.390
91535SOL    HW276503   8.495   3.096  11.430
91536SOL     OW76504   6.379   6.119   9.036
91536SOL    HW176505   6.352   6.134   8.945
91536SOL    HW276506   6.303   6.146   9.088
91537SOL     OW76507  13.910   2.723   5.520
91537SOL    HW176508  13.901   2.787   5.450
91537SOL    HW276509  13.946   2.773   5.593
91538SOL     OW76510  14.496   3.128  11.404
91538SOL    HW176511  14.576   3.169  11.373
91538SOL    HW276512  14.500   3.135  11.499
91539SOL     OW76513   2.607   6.333  10.851
91539SOL    HW176514   2.529   6.385  10.868
91539SOL    HW276515   2.586   6.246  10.884
91540SOL     OW76516   2.057   6.982   0.164
91540SOL    HW176517   2.058   6.950   0.254
91540SOL    HW276518   2.122   7.052   0.162
91541SOL     OW76519  13.415  14.221   9.849
91541SOL    HW176520  13.445  14.186   9.765
91541SOL    HW276521  13.440  14.313   9.846
91542SOL     OW76522   2.381  11.604   8.070
91542SOL    HW176523   2.473  11.627   8.066
91542SOL    HW276524   2.335  11.684   8.043
91543SOL     OW76525   9.882   3.273   7.963
91543SOL    HW176526   9.862   3.191   7.919
91543SOL    HW276527   9.969   3.297   7.931
91544SOL     OW76528   5.535   8.230  11.301
91544SOL    HW176529   5.530   8.324  11.285
91544SOL    HW276530   5.602   8.199  11.239
91545SOL     OW76531   6.322   4.223   4.332
91545SOL    HW176532   6.244   4.228   4.387
91545SOL    HW276533   6.376   4.298   4.360
91546SOL     OW76534   0.887   6.470  14.581
91546SOL    HW176535   0.879   6.396  14.522
91546SOL    HW276536   0.976   6.464  14.615
91547SOL     OW76537  12.795   2.462   8.021
91547SOL    HW176538  12.837   2.519   7.956
91547SOL    HW276539  12.868   2.419   8.066
91548SOL     OW76540  10.771   7.254  10.980
91548SOL    HW176541  10.689   7.204  10.986
91548SOL    HW276542  10.781   7.294  11.066
91549SOL     OW76543   0.158   8.287   7.352
91549SOL    HW176544   0.153   8.342   7.430
91549SOL    HW276545   0.249   8.257   7.349
91550SOL     OW76546   5.814   2.069   2.336
91550SOL    HW176547   5.853   2.052   2.250
91550SOL    HW276548   5.733   2.117   2.317
91551SOL     OW76549   0.816   9.647   9.255
91551SOL    HW176550   0.754   9.707   9.297
91551SOL    HW276551   0.789   9.560   9.284
91552SOL     OW76552   4.002  11.668   8.235
91552SOL    HW176553   3.910  11.695   8.227
91552SOL    HW276554   4.052  11.747   8.219
91553SOL     OW76555   8.925   6.737   4.279
91553SOL    HW176556   8.975   6.762   4.356
91553SOL    HW276557   8.834   6.758   4.301
91554SOL     OW76558   2.157   3.504   0.792
91554SOL    HW176559   2.103   3.562   0.738
91554SOL    HW276560   2.102   3.482   0.867
91555SOL     OW76561   1.111   7.105  10.359
91555SOL    HW176562   1.077   7.095  10.270
91555SOL    HW276563   1.042   7.069  10.415
91556SOL     OW76564   4.845   6.167   6.978
91556SOL    HW176565   4.761   6.208   6.955
91556SOL    HW276566   4.863   6.201   7.066
91557SOL     OW76567  12.511  11.954   9.360
91557SOL    HW176568  12.602  11.930   9.380
91557SOL    HW276569  12.516  12.044   9.328
91558SOL     OW76570   6.164  11.415   6.066
91558SOL    HW176571   6.186  11.484   6.128
91558SOL    HW276572   6.078  11.383   6.096
91559SOL     OW76573   6.825   9.225   5.102
91559SOL    HW176574   6.749   9.246   5.048
91559SOL    HW276575   6.789   9.199   5.186
91560SOL     OW76576   3.139  14.469   1.550
91560SOL    HW176577   3.145  14.376   1.569
91560SOL    HW276578   3.109  14.473   1.459
91561SOL     OW76579  13.962   6.609   7.304
91561SOL    HW176580  13.961   6.636   7.395
91561SOL    HW276581  13.941   6.688   7.255
91562SOL     OW76582  14.775  13.829  11.288
91562SOL    HW176583  14.776  13.744  11.244
91562SOL    HW276584  14.686  13.838  11.320
91563SOL     OW76585   6.712  12.086   3.695
91563SOL    HW176586   6.638  12.139   3.722
91563SOL    HW276587   6.771  12.147   3.652
91564SOL     OW76588  13.789  13.880   8.257
91564SOL    HW176589  13.725  13.813   8.235
91564SOL    HW276590  13.795  13.877   8.353
91565SOL     OW76591   7.100   2.424   8.156
91565SOL    HW176592   7.105   2.383   8.243
91565SOL    HW276593   7.192   2.433   8.129
91566SOL     OW76594   8.662  13.832   1.925
91566SOL    HW176595   8.756  13.819   1.913
91566SOL    HW276596   8.648  13.822   2.019
91567SOL     OW76597  10.736   4.961   1.272
91567SOL    HW176598  10.671   4.958   1.203
91567SOL    HW276599  10.706   4.898   1.337
91568SOL     OW76600   2.499  11.788   2.966
91568SOL    HW176601   2.585  11.829   2.975
91568SOL    HW276602   2.516  11.705   2.921
91569SOL     OW76603   5.705   3.794  14.788
91569SOL    HW176604   5.659   3.867  14.745
91569SOL    HW276605   5.785   3.834  14.823
91570SOL     OW76606  11.791  13.427   0.246
91570SOL    HW176607  11.769  13.415   0.153
91570SOL    HW276608  11.884  13.406   0.251
91571SOL     OW76609   8.681  14.274   4.942
91571SOL    HW176610   8.600  14.303   4.985
91571SOL    HW276611   8.682  14.180   4.955
91572SOL     OW76612  12.525  11.563   7.223
91572SOL    HW176613  12.455  11.562   7.288
91572SOL    HW276614  12.603  11.591   7.271
91573SOL     OW76615  13.987  12.609  12.916
91573SOL    HW176616  13.920  12.657  12.867
91573SOL    HW276617  14.029  12.676  12.971
91574SOL     OW76618  12.284   8.928  14.465
91574SOL    HW176619  12.273   8.937  14.560
91574SOL    HW276620  12.238   8.847  14.443
91575SOL     OW76621   3.495  10.973   7.042
91575SOL    HW176622   3.451  10.914   6.980
91575SOL    HW276623   3.587  10.951   7.034
91576SOL     OW76624   0.704   8.958   7.116
91576SOL    HW176625   0.655   9.020   7.171
91576SOL    HW276626   0.751   9.014   7.054
91577SOL     OW76627  12.330   9.888   2.162
91577SOL    HW176628  12.304   9.873   2.253
91577SOL    HW276629  12.406   9.831   2.149
91578SOL     OW76630   3.631   1.762   2.234
91578SOL    HW176631   3.571   1.809   2.176
91578SOL    HW276632   3.587   1.680   2.253
91579SOL     OW76633   8.653   2.741   4.720
91579SOL    HW176634   8.697   2.689   4.787
91579SOL    HW276635   8.713   2.738   4.645
91580SOL     OW76636   9.913   1.355   5.243
91580SOL    HW176637   9.885   1.331   5.331
91580SOL    HW276638   9.998   1.396   5.256
91581SOL     OW76639   1.311   0.247   0.561
91581SOL    HW176640   1.347   0.174   0.510
91581SOL    HW276641   1.379   0.268   0.625
91582SOL     OW76642   3.289   5.654  14.767
91582SOL    HW176643   3.231   5.621  14.699
91582SOL    HW276644   3.374   5.664  14.724
91583SOL     OW76645   7.708   9.957   7.299
91583SOL    HW176646   7.641   9.995   7.243
91583SOL    HW276647   7.788  10.005   7.277
91584SOL     OW76648  13.110   1.678  11.560
91584SOL    HW176649  13.132   1.715  11.474
91584SOL    HW276650  13.143   1.589  11.556
91585SOL     OW76651   7.539   4.307   6.663
91585SOL    HW176652   7.516   4.235   6.722
91585SOL    HW276653   7.616   4.347   6.702
91586SOL     OW76654   8.138   5.250   3.607
91586SOL    HW176655   8.074   5.196   3.562
91586SOL    HW276656   8.221   5.231   3.563
91587SOL     OW76657   4.665  12.518   4.897
91587SOL    HW176658   4.751  12.527   4.857
91587SOL    HW276659   4.604  12.550   4.830
91588SOL     OW76660  13.079  13.179   8.483
91588SOL    HW176661  13.155  13.227   8.514
91588SOL    HW276662  13.053  13.123   8.556
91589SOL     OW76663   2.788  11.939   1.851
91589SOL    HW176664   2.858  11.947   1.915
91589SOL    HW276665   2.815  11.867   1.793
91590SOL     OW76666   5.314  11.092   7.900
91590SOL    HW176667   5.292  11.149   7.827
91590SOL    HW276668   5.410  11.096   7.906
91591SOL     OW76669   9.833   6.324   0.156
91591SOL    HW176670   9.877   6.338   0.240
91591SOL    HW276671   9.744   6.298   0.180
91592SOL     OW76672   2.036   2.987  12.297
91592SOL    HW176673   2.064   3.014  12.385
91592SOL    HW276674   2.113   2.945  12.259
91593SOL     OW76675   0.720   6.664   6.324
91593SOL    HW176676   0.683   6.620   6.247
91593SOL    HW276677   0.803   6.700   6.293
91594SOL     OW76678  11.610   5.709   7.956
91594SOL    HW176679  11.580   5.626   7.993
91594SOL    HW276680  11.574   5.710   7.867
91595SOL     OW76681   7.063  14.570   7.283
91595SOL    HW176682   7.056  14.493   7.340
91595SOL    HW276683   7.127  14.626   7.328
91596SOL     OW76684  10.624   3.403   1.894
91596SOL    HW176685  10.576   3.469   1.943
91596SOL    HW276686  10.556   3.346   1.858
91597SOL     OW76687  12.547  11.142   6.001
91597SOL    HW176688  12.517  11.233   6.006
91597SOL    HW276689  12.589  11.126   6.086
91598SOL     OW76690  13.690  14.813  11.851
91598SOL    HW176691  13.728   0.030  11.873
91598SOL    HW276692  13.601  14.817  11.885
91599SOL     OW76693   3.891  12.631   3.546
91599SOL    HW176694   3.854  12.719   3.558
91599SOL    HW276695   3.821  12.572   3.574
91600SOL     OW76696   2.400   1.010   6.975
91600SOL    HW176697   2.366   1.002   7.064
91600SOL    HW276698   2.436   0.924   6.955
91601SOL     OW76699  10.629   4.740  13.879
91601SOL    HW176700  10.665   4.740  13.967
91601SOL    HW276701  10.661   4.821  13.839
91602SOL     OW76702   3.281  12.086   2.888
91602SOL    HW176703   3.232  12.010   2.920
91602SOL    HW276704   3.364  12.083   2.936
91603SOL     OW76705   7.924   5.376  13.588
91603SOL    HW176706   7.974   5.328  13.522
91603SOL    HW276707   7.986   5.442  13.622
91604SOL     OW76708  12.828   0.607   9.657
91604SOL    HW176709  12.763   0.544   9.687
91604SOL    HW276710  12.863   0.570   9.576
91605SOL     OW76711  12.307  11.592   7.864
91605SOL    HW176712  12.251  11.548   7.928
91605SOL    HW276713  12.300  11.685   7.886
91606SOL     OW76714  12.710   8.011   4.389
91606SOL    HW176715  12.617   7.994   4.374
91606SOL    HW276716  12.716   8.030   4.482
91607SOL     OW76717   7.068  12.949   0.674
91607SOL    HW176718   7.095  12.930   0.584
91607SOL    HW276719   7.149  12.972   0.719
91608SOL     OW76720   5.432  11.074   8.973
91608SOL    HW176721   5.462  11.139   8.910
91608SOL    HW276722   5.455  10.990   8.935
91609SOL     OW76723   2.601   6.411   1.924
91609SOL    HW176724   2.578   6.435   1.834
91609SOL    HW276725   2.523   6.434   1.975
91610SOL     OW76726   0.328  11.914   4.893
91610SOL    HW176727   0.388  11.888   4.823
91610SOL    HW276728   0.379  11.905   4.973
91611SOL     OW76729   0.832  11.742   0.394
91611SOL    HW176730   0.888  11.671   0.422
91611SOL    HW276731   0.828  11.734   0.298
91612SOL     OW76732   0.416  10.685   7.834
91612SOL    HW176733   0.399  10.632   7.756
91612SOL    HW276734   0.445  10.622   7.900
91613SOL     OW76735  11.165   9.586  10.447
91613SOL    HW176736  11.072   9.605  10.434
91613SOL    HW276737  11.208   9.671  10.440
91614SOL     OW76738  12.015   8.383   0.389
91614SOL    HW176739  11.959   8.342   0.323
91614SOL    HW276740  11.954   8.424   0.450
91615SOL     OW76741   8.366  10.985  12.971
91615SOL    HW176742   8.290  10.929  12.989
91615SOL    HW276743   8.349  11.021  12.884
91616SOL     OW76744   5.344   3.085  11.425
91616SOL    HW176745   5.398   3.014  11.391
91616SOL    HW276746   5.358   3.157  11.363
91617SOL     OW76747   7.033   4.742   6.951
91617SOL    HW176748   6.978   4.808   6.995
91617SOL    HW276749   7.080   4.792   6.884
91618SOL     OW76750   3.938   1.514   1.270
91618SOL    HW176751   3.906   1.529   1.359
91618SOL    HW276752   4.030   1.539   1.273
91619SOL     OW76753  11.951   4.961  11.931
91619SOL    HW176754  11.918   4.987  12.018
91619SOL    HW276755  11.872   4.943  11.881
91620SOL     OW76756  11.324   5.679  11.943
91620SOL    HW176757  11.346   5.697  11.852
91620SOL    HW276758  11.372   5.744  11.994
91621SOL     OW76759   2.360   6.660   2.370
91621SOL    HW176760   2.436   6.653   2.311
91621SOL    HW276761   2.285   6.637   2.316
91622SOL     OW76762   6.290   6.674   5.911
91622SOL    HW176763   6.383   6.670   5.891
91622SOL    HW276764   6.260   6.755   5.869
91623SOL     OW76765   1.498   5.409  12.316
91623SOL    HW176766   1.541   5.422  12.400
91623SOL    HW276767   1.569   5.405  12.253
91624SOL     OW76768   4.971   8.415   3.572
91624SOL    HW176769   5.021   8.496   3.568
91624SOL    HW276770   5.001   8.371   3.652
91625SOL     OW76771   5.253  11.761  12.130
91625SOL    HW176772   5.342  11.741  12.160
91625SOL    HW276773   5.265  11.813  12.051
91626SOL     OW76774  11.968   7.311   9.818
91626SOL    HW176775  11.960   7.365   9.897
91626SOL    HW276776  12.016   7.367   9.757
91627SOL     OW76777   4.218   3.705   6.951
91627SOL    HW176778   4.190   3.745   7.033
91627SOL    HW276779   4.311   3.687   6.963
91628SOL     OW76780   6.816  13.494   4.591
91628SOL    HW176781   6.792  13.502   4.683
91628SOL    HW276782   6.741  13.450   4.550
91629SOL     OW76783  13.440   4.837   6.676
91629SOL    HW176784  13.407   4.756   6.637
91629SOL    HW276785  13.371   4.865   6.735
91630SOL     OW76786  14.824   9.292   4.198
91630SOL    HW176787  14.849   9.264   4.111
91630SOL    HW276788   0.025   9.258   4.255
91631SOL     OW76789  11.652   8.410   6.104
91631SOL    HW176790  11.637   8.327   6.149
91631SOL    HW276791  11.565   8.448   6.095
91632SOL     OW76792   2.900   4.590   3.237
91632SOL    HW176793   2.955   4.660   3.273
91632SOL    HW276794   2.847   4.634   3.171
91633SOL     OW76795   0.052   5.829   0.262
91633SOL    HW176796  14.845   5.887   0.260
91633SOL    HW276797   0.099   5.848   0.181
91634SOL     OW76798   9.412  10.823   7.956
91634SOL    HW176799   9.331  10.799   8.000
91634SOL    HW276800   9.385  10.878   7.883
91635SOL     OW76801   1.225   7.894  12.416
91635SOL    HW176802   1.309   7.902  12.371
91635SOL    HW276803   1.243   7.922  12.506
91636SOL     OW76804   4.916  10.242  12.606
91636SOL    HW176805   4.872  10.262  12.689
91636SOL    HW276806   4.988  10.183  12.631
91637SOL     OW76807   1.977  13.671   5.731
91637SOL    HW176808   2.025  13.737   5.681
91637SOL    HW276809   2.038  13.644   5.800
91638SOL     OW76810   3.679   9.469  13.875
91638SOL    HW176811   3.584   9.483  13.874
91638SOL    HW276812   3.692   9.392  13.931
91639SOL     OW76813   9.923   0.126   3.798
91639SOL    HW176814   9.921   0.193   3.866
91639SOL    HW276815   9.845   0.142   3.746
91640SOL     OW76816  12.884   4.219  13.041
91640SOL    HW176817  12.842   4.156  12.982
91640SOL    HW276818  12.974   4.226  13.009
91641SOL     OW76819   5.649   9.503   5.841
91641SOL    HW176820   5.652   9.414   5.808
91641SOL    HW276821   5.581   9.546   5.790
91642SOL     OW76822   9.310  13.455   3.698
91642SOL    HW176823   9.304  13.360   3.701
91642SOL    HW276824   9.364  13.479   3.773
91643SOL     OW76825   0.448   4.205   5.243
91643SOL    HW176826   0.365   4.253   5.253
91643SOL    HW276827   0.449   4.178   5.151
91644SOL     OW76828   3.463   1.834   5.226
91644SOL    HW176829   3.447   1.902   5.291
91644SOL    HW276830   3.412   1.863   5.149
91645SOL     OW76831  13.040  11.165  10.225
91645SOL    HW176832  13.122  11.136  10.265
91645SOL    HW276833  13.002  11.226  10.288
91646SOL     OW76834   7.440   3.475   8.150
91646SOL    HW176835   7.396   3.446   8.070
91646SOL    HW276836   7.522   3.513   8.121
91647SOL     OW76837   6.397   1.075   5.118
91647SOL    HW176838   6.326   1.124   5.159
91647SOL    HW276839   6.463   1.141   5.097
91648SOL     OW76840   7.098  11.521  13.845
91648SOL    HW176841   7.112  11.580  13.919
91648SOL    HW276842   7.063  11.441  13.885
91649SOL     OW76843   1.323  13.601   0.207
91649SOL    HW176844   1.397  13.559   0.163
91649SOL    HW276845   1.267  13.632   0.136
91650SOL     OW76846  10.841  13.549  10.809
91650SOL    HW176847  10.898  13.624  10.791
91650SOL    HW276848  10.753  13.582  10.792
91651SOL     OW76849   0.147   9.369   4.793
91651SOL    HW176850   0.052   9.376   4.783
91651SOL    HW276851   0.166   9.277   4.774
91652SOL     OW76852  13.920   3.683   4.534
91652SOL    HW176853  13.925   3.591   4.560
91652SOL    HW276854  13.845   3.718   4.583
91653SOL     OW76855   4.732   2.499   3.085
91653SOL    HW176856   4.686   2.417   3.101
91653SOL    HW276857   4.677   2.567   3.124
91654SOL     OW76858   0.818   4.203   7.625
91654SOL    HW176859   0.868   4.242   7.696
91654SOL    HW276860   0.857   4.117   7.611
91655SOL     OW76861   0.089  10.675   3.801
91655SOL    HW176862   0.065  10.609   3.865
91655SOL    HW276863   0.135  10.627   3.732
91656SOL     OW76864  10.954   0.021   8.539
91656SOL    HW176865  10.907  14.831   8.479
91656SOL    HW276866  10.898   0.025   8.617
91657SOL     OW76867   6.326  13.416  13.887
91657SOL    HW176868   6.383  13.411  13.811
91657SOL    HW276869   6.258  13.351  13.871
91658SOL     OW76870   7.677  14.727  13.458
91658SOL    HW176871   7.765  14.761  13.438
91658SOL    HW276872   7.624  14.754  13.383
91659SOL     OW76873   4.355   7.500  12.409
91659SOL    HW176874   4.280   7.449  12.441
91659SOL    HW276875   4.319   7.554  12.339
91660SOL     OW76876  11.504   9.319   3.053
91660SOL    HW176877  11.582   9.359   3.092
91660SOL    HW276878  11.437   9.388   3.056
91661SOL     OW76879  13.342   4.145   3.195
91661SOL    HW176880  13.290   4.155   3.275
91661SOL    HW276881  13.281   4.167   3.125
91662SOL     OW76882   5.895   9.264  14.104
91662SOL    HW176883   5.967   9.201  14.109
91662SOL    HW276884   5.875   9.285  14.195
91663SOL     OW76885  12.680   2.903   9.723
91663SOL    HW176886  12.747   2.842   9.692
91663SOL    HW276887  12.671   2.884   9.816
91664SOL     OW76888   4.951   0.782  14.258
91664SOL    HW176889   4.929   0.778  14.165
91664SOL    HW276890   4.895   0.851  14.293
91665SOL     OW76891   9.746  13.489   7.754
91665SOL    HW176892   9.807  13.554   7.789
91665SOL    HW276893   9.704  13.533   7.680
91666SOL     OW76894   3.899   2.708  10.920
91666SOL    HW176895   3.888   2.614  10.932
91666SOL    HW276896   3.951   2.736  10.995
91667SOL     OW76897  12.404  14.457  13.178
91667SOL    HW176898  12.401  14.364  13.155
91667SOL    HW276899  12.488  14.487  13.143
91668SOL     OW76900  14.367  12.399   2.505
91668SOL    HW176901  14.456  12.434   2.508
91668SOL    HW276902  14.359  12.348   2.586
91669SOL     OW76903   5.896  11.149  11.535
91669SOL    HW176904   5.852  11.220  11.582
91669SOL    HW276905   5.827  11.084  11.520
91670SOL     OW76906   3.779  12.268   1.104
91670SOL    HW176907   3.727  12.307   1.033
91670SOL    HW276908   3.817  12.190   1.065
91671SOL     OW76909  11.282  12.260   6.624
91671SOL    HW176910  11.341  12.307   6.565
91671SOL    HW276911  11.309  12.288   6.712
91672SOL     OW76912   3.327  13.859   5.160
91672SOL    HW176913   3.236  13.865   5.132
91672SOL    HW276914   3.355  13.771   5.132
91673SOL     OW76915   3.026   0.779  11.975
91673SOL    HW176916   3.113   0.741  11.980
91673SOL    HW276917   2.974   0.715  11.926
91674SOL     OW76918   5.734   5.571   6.127
91674SOL    HW176919   5.718   5.557   6.033
91674SOL    HW276920   5.796   5.643   6.129
91675SOL     OW76921  13.181   7.560   0.799
91675SOL    HW176922  13.110   7.618   0.774
91675SOL    HW276923  13.140   7.473   0.805
91676SOL     OW76924   7.817   9.531   1.265
91676SOL    HW176925   7.830   9.604   1.326
91676SOL    HW276926   7.758   9.472   1.312
91677SOL     OW76927   2.822   3.565   5.478
91677SOL    HW176928   2.750   3.619   5.509
91677SOL    HW276929   2.853   3.519   5.556
91678SOL     OW76930  12.360   4.338  13.167
91678SOL    HW176931  12.292   4.398  13.199
91678SOL    HW276932  12.334   4.319  13.077
91679SOL     OW76933   5.693   2.106  11.192
91679SOL    HW176934   5.683   2.153  11.274
91679SOL    HW276935   5.751   2.033  11.212
91680SOL     OW76936   1.452   4.632  14.507
91680SOL    HW176937   1.435   4.656  14.416
91680SOL    HW276938   1.489   4.544  14.501
91681SOL     OW76939  10.562   4.710   6.409
91681SOL    HW176940  10.567   4.657   6.329
91681SOL    HW276941  10.601   4.655   6.477
91682SOL     OW76942   0.814   5.366   0.288
91682SOL    HW176943   0.747   5.435   0.287
91682SOL    HW276944   0.781   5.300   0.228
91683SOL     OW76945  14.460   6.698   2.427
91683SOL    HW176946  14.485   6.627   2.369
91683SOL    HW276947  14.542   6.730   2.463
91684SOL     OW76948   4.302  13.763  13.219
91684SOL    HW176949   4.258  13.822  13.279
91684SOL    HW276950   4.266  13.676  13.239
91685SOL     OW76951  14.769   2.196   0.624
91685SOL    HW176952  14.843   2.153   0.581
91685SOL    HW276953  14.729   2.128   0.677
91686SOL     OW76954   9.015   5.478  13.739
91686SOL    HW176955   8.957   5.412  13.777
91686SOL    HW276956   8.975   5.500  13.655
91687SOL     OW76957   2.888   1.403   8.091
91687SOL    HW176958   2.906   1.477   8.148
91687SOL    HW276959   2.810   1.362   8.129
91688SOL     OW76960  13.759  13.895   9.052
91688SOL    HW176961  13.847  13.880   9.016
91688SOL    HW276962  13.711  13.936   8.980
91689SOL     OW76963   4.658   7.760   0.914
91689SOL    HW176964   4.651   7.668   0.939
91689SOL    HW276965   4.572   7.797   0.934
91690SOL     OW76966  13.317   6.081   6.663
91690SOL    HW176967  13.306   6.160   6.715
91690SOL    HW276968  13.233   6.034   6.673
91691SOL     OW76969   4.332  12.142   1.480
91691SOL    HW176970   4.261  12.124   1.418
91691SOL    HW276971   4.347  12.236   1.472
91692SOL     OW76972  14.343  11.130   1.813
91692SOL    HW176973  14.343  11.225   1.823
91692SOL    HW276974  14.282  11.113   1.741
91693SOL     OW76975   3.889  12.026   1.025
91693SOL    HW176976   3.844  11.941   1.025
91693SOL    HW276977   3.976  12.007   0.989
91694SOL     OW76978   8.388   2.655   0.249
91694SOL    HW176979   8.304   2.671   0.291
91694SOL    HW276980   8.367   2.613   0.166
91695SOL     OW76981   6.323   3.854  13.630
91695SOL    HW176982   6.275   3.884  13.553
91695SOL    HW276983   6.342   3.935  13.678
91696SOL     OW76984   3.912   0.450   6.818
91696SOL    HW176985   3.833   0.474   6.865
91696SOL    HW276986   3.891   0.464   6.726
91697SOL     OW76987  13.103   8.459   9.682
91697SOL    HW176988  13.131   8.384   9.630
91697SOL    HW276989  13.111   8.429   9.773
91698SOL     OW76990  11.957   6.123   3.107
91698SOL    HW176991  11.923   6.212   3.097
91698SOL    HW276992  11.910   6.072   3.040
91699SOL     OW76993  10.340   5.682  13.015
91699SOL    HW176994  10.302   5.608  12.968
91699SOL    HW276995  10.416   5.707  12.963
91700SOL     OW76996   1.962   0.649   4.262
91700SOL    HW176997   2.028   0.593   4.302
91700SOL    HW276998   1.900   0.588   4.222
91701SOL     OW76999   6.090   8.714   2.328
91701SOL    HW177000   6.014   8.657   2.337
91701SOL    HW277001   6.085   8.746   2.238
91702SOL     OW77002  14.711  13.405   6.758
91702SOL    HW177003  14.763  13.429   6.682
91702SOL    HW277004  14.745  13.319   6.784
91703SOL     OW77005   1.429  12.108   6.931
91703SOL    HW177006   1.360  12.062   6.884
91703SOL    HW277007   1.383  12.165   6.993
91704SOL     OW77008  11.335   5.570   7.826
91704SOL    HW177009  11.397   5.609   7.764
91704SOL    HW277010  11.313   5.642   7.885
91705SOL     OW77011   7.835   0.434   6.628
91705SOL    HW177012   7.751   0.481   6.636
91705SOL    HW277013   7.825   0.381   6.549
91706SOL     OW77014  11.298   8.205  14.086
91706SOL    HW177015  11.371   8.166  14.038
91706SOL    HW277016  11.320   8.191  14.178
91707SOL     OW77017  14.585  13.410  13.869
91707SOL    HW177018  14.553  13.321  13.855
91707SOL    HW277019  14.519  13.466  13.828
91708SOL     OW77020   9.022   9.087   8.845
91708SOL    HW177021   9.048   9.155   8.783
91708SOL    HW277022   9.044   9.122   8.931
91709SOL     OW77023  11.460   2.429   4.357
91709SOL    HW177024  11.416   2.389   4.282
91709SOL    HW277025  11.400   2.416   4.431
91710SOL     OW77026   0.780   0.400   2.800
91710SOL    HW177027   0.837   0.350   2.858
91710SOL    HW277028   0.775   0.487   2.839
91711SOL     OW77029  11.240  14.119  12.922
91711SOL    HW177030  11.272  14.035  12.890
91711SOL    HW277031  11.221  14.104  13.014
91712SOL     OW77032   9.378   2.659   0.406
91712SOL    HW177033   9.459   2.612   0.425
91712SOL    HW277034   9.380   2.674   0.312
91713SOL     OW77035  11.530   9.656  11.506
91713SOL    HW177036  11.476   9.636  11.582
91713SOL    HW277037  11.579   9.735  11.531
91714SOL     OW77038   4.237   9.504   6.855
91714SOL    HW177039   4.248   9.496   6.760
91714SOL    HW277040   4.306   9.449   6.892
91715SOL     OW77041   3.156   6.508   9.756
91715SOL    HW177042   3.235   6.455   9.755
91715SOL    HW277043   3.090   6.454   9.712
91716SOL     OW77044   0.648   2.053   2.312
91716SOL    HW177045   0.568   2.096   2.342
91716SOL    HW277046   0.651   2.071   2.218
91717SOL     OW77047   6.501  13.370   2.449
91717SOL    HW177048   6.425  13.411   2.406
91717SOL    HW277049   6.529  13.435   2.513
91718SOL     OW77050  14.089  12.801   1.679
91718SOL    HW177051  14.165  12.855   1.701
91718SOL    HW277052  14.104  12.774   1.589
91719SOL     OW77053  12.403   1.791   5.846
91719SOL    HW177054  12.338   1.839   5.897
91719SOL    HW277055  12.487   1.817   5.884
91720SOL     OW77056  14.380   4.362  10.009
91720SOL    HW177057  14.367   4.455   9.991
91720SOL    HW277058  14.425   4.329   9.932
91721SOL     OW77059   3.420  11.621  12.458
91721SOL    HW177060   3.438  11.649  12.548
91721SOL    HW277061   3.497  11.571  12.433
91722SOL     OW77062  14.274   6.969  11.708
91722SOL    HW177063  14.254   6.972  11.614
91722SOL    HW277064  14.315   6.883  11.721
91723SOL     OW77065  13.276   5.926   5.323
91723SOL    HW177066  13.282   5.836   5.291
91723SOL    HW277067  13.320   5.923   5.408
91724SOL     OW77068   0.524   9.856  11.837
91724SOL    HW177069   0.546   9.774  11.881
91724SOL    HW277070   0.453   9.832  11.777
91725SOL     OW77071   9.141  13.302   3.014
91725SOL    HW177072   9.111  13.379   3.062
91725SOL    HW277073   9.092  13.230   3.053
91726SOL     OW77074   4.218   3.459   6.236
91726SOL    HW177075   4.274   3.475   6.313
91726SOL    HW277076   4.235   3.368   6.212
91727SOL     OW77077   8.201   4.210  11.631
91727SOL    HW177078   8.246   4.295  11.639
91727SOL    HW277079   8.181   4.202  11.538
91728SOL     OW77080   4.767   1.441   4.994
91728SOL    HW177081   4.860   1.421   4.998
91728SOL    HW277082   4.741   1.451   5.086
91729SOL     OW77083   1.999  12.725   6.961
91729SOL    HW177084   1.956  12.670   7.027
91729SOL    HW277085   2.091  12.698   6.965
91730SOL     OW77086   9.203   9.245  12.304
91730SOL    HW177087   9.232   9.279  12.389
91730SOL    HW277088   9.283   9.214  12.262
91731SOL     OW77089   8.667  13.837   2.209
91731SOL    HW177090   8.607  13.781   2.258
91731SOL    HW277091   8.750  13.788   2.208
91732SOL     OW77092   4.963   1.848  10.177
91732SOL    HW177093   4.898   1.860  10.108
91732SOL    HW277094   5.046   1.876  10.137
91733SOL     OW77095  10.130   7.827  10.487
91733SOL    HW177096  10.070   7.836  10.413
91733SOL    HW277097  10.101   7.893  10.550
91734SOL     OW77098   1.830   0.944   3.023
91734SOL    HW177099   1.814   0.849   3.029
91734SOL    HW277100   1.879   0.955   2.942
91735SOL     OW77101   5.451   8.925   3.505
91735SOL    HW177102   5.485   8.856   3.563
91735SOL    HW277103   5.525   8.945   3.447
91736SOL     OW77104   5.762   7.285  12.203
91736SOL    HW177105   5.820   7.285  12.280
91736SOL    HW277106   5.674   7.271  12.240
91737SOL     OW77107   2.667  14.812  13.017
91737SOL    HW177108   2.717  14.760  13.080
91737SOL    HW277109   2.631   0.016  13.069
91738SOL     OW77110  11.233  13.844   7.883
91738SOL    HW177111  11.299  13.912   7.898
91738SOL    HW277112  11.211  13.813   7.971
91739SOL     OW77113   3.144  13.703   6.584
91739SOL    HW177114   3.146  13.718   6.679
91739SOL    HW277115   3.229  13.665   6.564
91740SOL     OW77116   2.007   3.197  13.124
91740SOL    HW177117   1.982   3.110  13.094
91740SOL    HW277118   1.999   3.253  13.046
91741SOL     OW77119   8.979  12.503   5.390
91741SOL    HW177120   9.040  12.446   5.342
91741SOL    HW277121   8.954  12.570   5.327
91742SOL     OW77122   8.080   0.913   7.565
91742SOL    HW177123   8.000   0.920   7.513
91742SOL    HW277124   8.095   0.819   7.574
91743SOL     OW77125   7.780  14.807   9.450
91743SOL    HW177126   7.823  14.824   9.367
91743SOL    HW277127   7.707   0.001   9.452
91744SOL     OW77128   3.291  11.843   5.246
91744SOL    HW177129   3.356  11.789   5.201
91744SOL    HW277130   3.288  11.924   5.196
91745SOL     OW77131   3.065   7.563   7.114
91745SOL    HW177132   3.073   7.511   7.034
91745SOL    HW277133   2.976   7.598   7.111
91746SOL     OW77134   0.565  11.667   3.721
91746SOL    HW177135   0.489  11.621   3.755
91746SOL    HW277136   0.598  11.611   3.651
91747SOL     OW77137   6.842   4.736  13.174
91747SOL    HW177138   6.877   4.822  13.153
91747SOL    HW277139   6.810   4.701  13.091
91748SOL     OW77140   6.790   9.467   8.198
91748SOL    HW177141   6.771   9.560   8.183
91748SOL    HW277142   6.799   9.430   8.110
91749SOL     OW77143  11.549   2.118  14.053
91749SOL    HW177144  11.492   2.169  13.995
91749SOL    HW277145  11.591   2.055  13.995
91750SOL     OW77146   3.742   4.799   0.450
91750SOL    HW177147   3.745   4.894   0.439
91750SOL    HW277148   3.694   4.786   0.532
91751SOL     OW77149   3.042  11.330   2.800
91751SOL    HW177150   3.098  11.338   2.723
91751SOL    HW277151   3.098  11.354   2.874
91752SOL     OW77152   4.591   8.128   6.578
91752SOL    HW177153   4.665   8.141   6.518
91752SOL    HW277154   4.514   8.131   6.522
91753SOL     OW77155   0.490   3.190  11.416
91753SOL    HW177156   0.492   3.119  11.480
91753SOL    HW277157   0.409   3.176  11.367
91754SOL     OW77158   3.411   1.384   7.802
91754SOL    HW177159   3.416   1.357   7.711
91754SOL    HW277160   3.325   1.425   7.811
91755SOL     OW77161   6.335  10.755   3.992
91755SOL    HW177162   6.429  10.756   3.975
91755SOL    HW277163   6.320  10.675   4.043
91756SOL     OW77164   8.531   4.575  13.101
91756SOL    HW177165   8.524   4.638  13.173
91756SOL    HW277166   8.614   4.531  13.115
91757SOL     OW77167   0.270   8.262  13.427
91757SOL    HW177168   0.211   8.240  13.499
91757SOL    HW277169   0.234   8.214  13.352
91758SOL     OW77170   6.937   7.337   1.786
91758SOL    HW177171   6.925   7.395   1.711
91758SOL    HW277172   7.003   7.381   1.840
91759SOL     OW77173   8.890   3.941   7.159
91759SOL    HW177174   8.822   3.885   7.122
91759SOL    HW277175   8.849   3.980   7.237
91760SOL     OW77176  14.703  13.562   2.753
91760SOL    HW177177  14.773  13.619   2.721
91760SOL    HW277178  14.743  13.475   2.758
91761SOL     OW77179   0.321   0.872   2.886
91761SOL    HW177180   0.233   0.846   2.860
91761SOL    HW277181   0.309   0.952   2.937
91762SOL     OW77182   1.920  13.793   1.106
91762SOL    HW177183   1.854  13.859   1.084
91762SOL    HW277184   1.916  13.786   1.202
91763SOL     OW77185   4.572  13.774   9.470
91763SOL    HW177186   4.619  13.832   9.529
91763SOL    HW277187   4.480  13.782   9.497
91764SOL     OW77188  12.093   8.841   9.819
91764SOL    HW177189  12.111   8.928   9.854
91764SOL    HW277190  12.037   8.800   9.885
91765SOL     OW77191  11.546   0.568  14.139
91765SOL    HW177192  11.548   0.659  14.108
91765SOL    HW277193  11.467   0.563  14.193
91766SOL     OW77194   6.466   3.832  12.339
91766SOL    HW177195   6.511   3.762  12.387
91766SOL    HW277196   6.429   3.888  12.408
91767SOL     OW77197   3.128   3.838  13.055
91767SOL    HW177198   3.039   3.873  13.061
91767SOL    HW277199   3.117   3.746  13.032
91768SOL     OW77200   3.692  12.401  10.731
91768SOL    HW177201   3.713  12.394  10.824
91768SOL    HW277202   3.624  12.469  10.728
91769SOL     OW77203  13.530   5.159   3.840
91769SOL    HW177204  13.505   5.089   3.900
91769SOL    HW277205  13.456   5.168   3.780
91770SOL     OW77206   4.481   6.339   6.587
91770SOL    HW177207   4.547   6.307   6.526
91770SOL    HW277208   4.519   6.324   6.674
91771SOL     OW77209   7.956  13.264   4.684
91771SOL    HW177210   7.954  13.292   4.593
91771SOL    HW277211   7.891  13.320   4.727
91772SOL     OW77212   7.296   3.827  12.697
91772SOL    HW177213   7.223   3.831  12.636
91772SOL    HW277214   7.352   3.900  12.672
91773SOL     OW77215   2.789  10.324   1.879
91773SOL    HW177216   2.874  10.339   1.837
91773SOL    HW277217   2.810  10.268   1.954
91774SOL     OW77218   1.324  13.422   1.188
91774SOL    HW177219   1.279  13.504   1.210
91774SOL    HW277220   1.412  13.433   1.224
91775SOL     OW77221  10.613  11.946   8.809
91775SOL    HW177222  10.669  12.016   8.841
91775SOL    HW277223  10.546  11.990   8.758
91776SOL     OW77224  10.258   0.672   1.829
91776SOL    HW177225  10.313   0.732   1.778
91776SOL    HW277226  10.170   0.709   1.823
91777SOL     OW77227   0.392  10.614   0.152
91777SOL    HW177228   0.384  10.540   0.090
91777SOL    HW277229   0.315  10.606   0.208
91778SOL     OW77230  10.110   9.847   8.931
91778SOL    HW177231  10.114   9.822   9.024
91778SOL    HW277232  10.116   9.942   8.932
91779SOL     OW77233   1.165  11.064   0.860
91779SOL    HW177234   1.241  11.122   0.867
91779SOL    HW277235   1.141  11.068   0.768
91780SOL     OW77236   2.893   9.963  14.245
91780SOL    HW177237   2.916   9.961  14.338
91780SOL    HW277238   2.971   9.998  14.202
91781SOL     OW77239   1.725   5.850  10.590
91781SOL    HW177240   1.711   5.877  10.499
91781SOL    HW277241   1.796   5.787  10.586
91782SOL     OW77242  12.703   6.483  11.184
91782SOL    HW177243  12.776   6.523  11.231
91782SOL    HW277244  12.687   6.401  11.229
91783SOL     OW77245  10.459   5.738   7.138
91783SOL    HW177246  10.372   5.773   7.160
91783SOL    HW277247  10.508   5.745   7.220
91784SOL     OW77248  13.651  11.131   7.711
91784SOL    HW177249  13.679  11.146   7.801
91784SOL    HW277250  13.576  11.071   7.719
91785SOL     OW77251   6.726   0.013   8.606
91785SOL    HW177252   6.655   0.051   8.659
91785SOL    HW277253   6.686   0.000   8.520
91786SOL     OW77254   8.082   7.578  12.503
91786SOL    HW177255   8.087   7.483  12.507
91786SOL    HW277256   8.089   7.606  12.595
91787SOL     OW77257   3.894   7.896  12.192
91787SOL    HW177258   3.939   7.980  12.188
91787SOL    HW277259   3.936   7.849  12.264
91788SOL     OW77260   8.245   0.091   7.434
91788SOL    HW177261   8.288   0.014   7.397
91788SOL    HW277262   8.241   0.154   7.362
91789SOL     OW77263  13.260   2.301   7.361
91789SOL    HW177264  13.165   2.290   7.367
91789SOL    HW277265  13.271   2.378   7.305
91790SOL     OW77266   2.535   7.136   9.613
91790SOL    HW177267   2.593   7.167   9.543
91790SOL    HW277268   2.537   7.041   9.605
91791SOL     OW77269  14.411  12.290  13.307
91791SOL    HW177270  14.453  12.230  13.368
91791SOL    HW277271  14.465  12.285  13.228
91792SOL     OW77272   1.522  12.164  13.852
91792SOL    HW177273   1.443  12.213  13.877
91792SOL    HW277274   1.554  12.127  13.934
91793SOL     OW77275   7.773   1.506   9.674
91793SOL    HW177276   7.772   1.481   9.766
91793SOL    HW277277   7.839   1.575   9.669
91794SOL     OW77278   9.932   0.762  13.307
91794SOL    HW177279  10.013   0.773  13.256
91794SOL    HW277280   9.903   0.851  13.325
91795SOL     OW77281   0.030   9.811   2.655
91795SOL    HW177282   0.007   9.760   2.732
91795SOL    HW277283   0.118   9.844   2.674
91796SOL     OW77284  14.077   2.235   3.738
91796SOL    HW177285  14.124   2.164   3.782
91796SOL    HW277286  14.132   2.312   3.752
91797SOL     OW77287  10.133   7.176   1.398
91797SOL    HW177288  10.137   7.097   1.453
91797SOL    HW277289  10.056   7.163   1.343
91798SOL     OW77290   3.416  10.793   6.833
91798SOL    HW177291   3.358  10.719   6.852
91798SOL    HW277292   3.504  10.755   6.835
91799SOL     OW77293   7.891   1.407  13.558
91799SOL    HW177294   7.864   1.357  13.481
91799SOL    HW277295   7.878   1.499  13.533
91800SOL     OW77296   5.223   8.893   8.955
91800SOL    HW177297   5.217   8.806   8.993
91800SOL    HW277298   5.164   8.946   9.009
91801SOL     OW77299  10.625  10.983   4.511
91801SOL    HW177300  10.538  10.979   4.552
91801SOL    HW277301  10.644  10.892   4.488
91802SOL     OW77302  12.993  13.476  13.519
91802SOL    HW177303  13.029  13.551  13.470
91802SOL    HW277304  12.997  13.404  13.457
91803SOL     OW77305  13.356   3.332  14.080
91803SOL    HW177306  13.363   3.257  14.139
91803SOL    HW277307  13.430   3.323  14.020
91804SOL     OW77308   8.539  13.424  13.666
91804SOL    HW177309   8.480  13.416  13.591
91804SOL    HW277310   8.559  13.334  13.691
91805SOL     OW77311  13.759   9.663   6.450
91805SOL    HW177312  13.770   9.578   6.408
91805SOL    HW277313  13.682   9.700   6.408
91806SOL     OW77314   7.776  11.805   3.272
91806SOL    HW177315   7.811  11.883   3.315
91806SOL    HW277316   7.695  11.835   3.230
91807SOL     OW77317   0.234  12.860   0.168
91807SOL    HW177318   0.283  12.924   0.220
91807SOL    HW277319   0.143  12.871   0.194
91808SOL     OW77320   3.031   5.171   0.795
91808SOL    HW177321   3.055   5.110   0.865
91808SOL    HW277322   3.114   5.192   0.752
91809SOL     OW77323   3.033   7.252   1.674
91809SOL    HW177324   2.940   7.259   1.697
91809SOL    HW277325   3.072   7.204   1.748
91810SOL     OW77326   5.635   0.580   0.197
91810SOL    HW177327   5.676   0.526   0.130
91810SOL    HW277328   5.578   0.640   0.148
91811SOL     OW77329  10.579   7.161   3.271
91811SOL    HW177330  10.527   7.224   3.321
91811SOL    HW277331  10.571   7.079   3.319
91812SOL     OW77332   8.365   5.682   9.934
91812SOL    HW177333   8.421   5.609   9.960
91812SOL    HW277334   8.285   5.641   9.900
91813SOL     OW77335  11.417   6.260  13.335
91813SOL    HW177336  11.446   6.298  13.418
91813SOL    HW277337  11.455   6.172  13.334
91814SOL     OW77338   0.248   8.072   8.924
91814SOL    HW177339   0.325   8.022   8.897
91814SOL    HW277340   0.186   8.061   8.852
91815SOL     OW77341   1.484  14.138   0.139
91815SOL    HW177342   1.460  14.146   0.232
91815SOL    HW277343   1.428  14.068   0.106
91816SOL     OW77344   1.905  11.343   0.048
91816SOL    HW177345   1.849  11.272   0.016
91816SOL    HW277346   1.990  11.302   0.062
91817SOL     OW77347  11.511   4.582   7.887
91817SOL    HW177348  11.460   4.576   7.968
91817SOL    HW277349  11.525   4.491   7.861
91818SOL     OW77350   9.476   1.586   0.011
91818SOL    HW177351   9.430   1.539  14.810
91818SOL    HW277352   9.564   1.549   0.012
91819SOL     OW77353  13.797   3.284   6.760
91819SOL    HW177354  13.706   3.314   6.755
91819SOL    HW277355  13.811   3.269   6.854
91820SOL     OW77356   8.311   4.786   5.775
91820SOL    HW177357   8.222   4.821   5.778
91820SOL    HW277358   8.365   4.853   5.816
91821SOL     OW77359   7.654   6.401  10.343
91821SOL    HW177360   7.579   6.460  10.346
91821SOL    HW277361   7.625   6.323  10.389
91822SOL     OW77362   5.263   6.862  14.241
91822SOL    HW177363   5.282   6.948  14.279
91822SOL    HW277364   5.311   6.800  14.297
91823SOL     OW77365   3.679  13.350   8.494
91823SOL    HW177366   3.747  13.392   8.442
91823SOL    HW277367   3.604  13.409   8.488
91824SOL     OW77368  11.034   8.020  12.180
91824SOL    HW177369  11.015   8.080  12.252
91824SOL    HW277370  11.122   7.987  12.199
91825SOL     OW77371   3.911   8.924   6.759
91825SOL    HW177372   3.991   8.969   6.783
91825SOL    HW277373   3.920   8.837   6.796
91826SOL     OW77374   2.045  14.649   8.338
91826SOL    HW177375   2.033  14.678   8.248
91826SOL    HW277376   2.095  14.718   8.380
91827SOL     OW77377  12.646  10.234   9.408
91827SOL    HW177378  12.564  10.190   9.431
91827SOL    HW277379  12.690  10.249   9.491
91828SOL     OW77380   0.130   3.157   5.394
91828SOL    HW177381   0.176   3.077   5.420
91828SOL    HW277382   0.182   3.192   5.322
91829SOL     OW77383   0.683   3.408   6.873
91829SOL    HW177384   0.599   3.454   6.879
91829SOL    HW277385   0.728   3.449   6.800
91830SOL     OW77386   5.120   5.356   0.665
91830SOL    HW177387   5.086   5.315   0.585
91830SOL    HW277388   5.119   5.450   0.647
91831SOL     OW77389  11.055   6.383   2.200
91831SOL    HW177390  11.096   6.428   2.274
91831SOL    HW277391  10.974   6.348   2.236
91832SOL     OW77392   7.354   9.032  14.635
91832SOL    HW177393   7.265   9.011  14.662
91832SOL    HW277394   7.404   9.035  14.717
91833SOL     OW77395   2.593  13.454  13.956
91833SOL    HW177396   2.523  13.502  13.911
91833SOL    HW277397   2.548  13.382  14.001
91834SOL     OW77398   5.541   6.357  14.202
91834SOL    HW177399   5.474   6.292  14.222
91834SOL    HW277400   5.565   6.340  14.111
91835SOL     OW77401   6.084  10.008   1.991
91835SOL    HW177402   6.071  10.005   1.896
91835SOL    HW277403   6.175   9.983   2.004
91836SOL     OW77404  12.790  11.828   5.246
91836SOL    HW177405  12.845  11.751   5.248
91836SOL    HW277406  12.722  11.808   5.181
91837SOL     OW77407   2.529   0.077  10.305
91837SOL    HW177408   2.468   0.015  10.264
91837SOL    HW277409   2.475   0.151  10.330
91838SOL     OW77410   9.475  10.601   9.410
91838SOL    HW177411   9.403  10.603   9.474
91838SOL    HW277412   9.522  10.521   9.430
91839SOL     OW77413   1.698  14.499   7.702
91839SOL    HW177414   1.715  14.592   7.689
91839SOL    HW277415   1.619  14.482   7.650
91840SOL     OW77416   1.632   5.538   0.694
91840SOL    HW177417   1.704   5.495   0.741
91840SOL    HW277418   1.620   5.484   0.616
91841SOL     OW77419   3.608   2.364  13.702
91841SOL    HW177420   3.685   2.313  13.725
91841SOL    HW277421   3.643   2.449  13.674
91842SOL     OW77422  14.717  12.507   9.664
91842SOL    HW177423  14.769  12.553   9.730
91842SOL    HW277424  14.693  12.575   9.601
91843SOL     OW77425   9.271   9.647   7.095
91843SOL    HW177426   9.190   9.653   7.146
91843SOL    HW277427   9.251   9.585   7.025
91844SOL     OW77428  14.674   0.223   0.570
91844SOL    HW177429  14.584   0.222   0.602
91844SOL    HW277430  14.693   0.316   0.554
91845SOL     OW77431   8.903   1.222   6.289
91845SOL    HW177432   8.881   1.269   6.209
91845SOL    HW277433   8.820   1.183   6.318
91846SOL     OW77434  12.899  10.360  12.536
91846SOL    HW177435  12.892  10.386  12.444
91846SOL    HW277436  12.929  10.270  12.533
91847SOL     OW77437   7.751   1.976   4.539
91847SOL    HW177438   7.823   1.979   4.601
91847SOL    HW277439   7.699   1.900   4.566
91848SOL     OW77440   0.561   3.691   4.772
91848SOL    HW177441   0.576   3.774   4.726
91848SOL    HW277442   0.513   3.637   4.710
91849SOL     OW77443  11.943  13.021   9.567
91849SOL    HW177444  11.910  12.936   9.594
91849SOL    HW277445  12.015  13.001   9.507
91850SOL     OW77446   1.478  10.030  14.390
91850SOL    HW177447   1.533  10.033  14.313
91850SOL    HW277448   1.538  10.047  14.463
91851SOL     OW77449  13.850  11.479  13.659
91851SOL    HW177450  13.787  11.408  13.641
91851SOL    HW277451  13.927  11.456  13.607
91852SOL     OW77452  13.685  10.008   6.701
91852SOL    HW177453  13.734   9.927   6.687
91852SOL    HW277454  13.750  10.069   6.735
91853SOL     OW77455   3.588   3.910   5.011
91853SOL    HW177456   3.567   3.910   5.104
91853SOL    HW277457   3.611   4.001   4.991
91854SOL     OW77458   2.105   0.590  11.881
91854SOL    HW177459   2.101   0.585  11.977
91854SOL    HW277460   2.102   0.499  11.852
91855SOL     OW77461  11.861  10.906   8.913
91855SOL    HW177462  11.895  10.855   8.840
91855SOL    HW277463  11.854  10.844   8.985
91856SOL     OW77464   8.205   6.406   5.493
91856SOL    HW177465   8.120   6.427   5.455
91856SOL    HW277466   8.202   6.444   5.581
91857SOL     OW77467  11.057  14.749   4.999
91857SOL    HW177468  11.060  14.793   4.914
91857SOL    HW277469  11.143  14.709   5.009
91858SOL     OW77470   2.235  14.195   0.791
91858SOL    HW177471   2.316  14.183   0.742
91858SOL    HW277472   2.208  14.105   0.814
91859SOL     OW77473  10.351   5.330   9.524
91859SOL    HW177474  10.319   5.280   9.449
91859SOL    HW277475  10.446   5.320   9.522
91860SOL     OW77476  13.592   9.583   5.800
91860SOL    HW177477  13.662   9.558   5.741
91860SOL    HW277478  13.556   9.664   5.762
91861SOL     OW77479   1.145  12.263   8.422
91861SOL    HW177480   1.136  12.285   8.514
91861SOL    HW277481   1.115  12.341   8.375
91862SOL     OW77482   2.019   7.575   4.791
91862SOL    HW177483   2.076   7.648   4.816
91862SOL    HW277484   2.017   7.578   4.696
91863SOL     OW77485  12.553   5.652  10.083
91863SOL    HW177486  12.609   5.639  10.007
91863SOL    HW277487  12.512   5.567  10.099
91864SOL     OW77488   6.938  12.341   9.744
91864SOL    HW177489   6.856  12.350   9.793
91864SOL    HW277490   6.974  12.256   9.773
91865SOL     OW77491  11.473   7.612  10.630
91865SOL    HW177492  11.536   7.656  10.572
91865SOL    HW277493  11.491   7.519  10.618
91866SOL     OW77494   8.751   3.131  11.555
91866SOL    HW177495   8.786   3.220  11.566
91866SOL    HW277496   8.803   3.093  11.484
91867SOL     OW77497   0.291   4.640  14.838
91867SOL    HW177498   0.283   4.563  14.782
91867SOL    HW277499   0.210   4.640   0.022
91868SOL     OW77500   8.838   7.106   6.754
91868SOL    HW177501   8.869   7.172   6.693
91868SOL    HW277502   8.769   7.149   6.804
91869SOL     OW77503  14.332  11.687   2.384
91869SOL    HW177504  14.371  11.763   2.340
91869SOL    HW277505  14.246  11.718   2.412
91870SOL     OW77506   9.341   7.734   8.054
91870SOL    HW177507   9.361   7.825   8.075
91870SOL    HW277508   9.363   7.686   8.134
91871SOL     OW77509   7.771  12.945   1.890
91871SOL    HW177510   7.770  13.040   1.873
91871SOL    HW277511   7.770  12.938   1.985
91872SOL     OW77512   6.184  14.349  12.349
91872SOL    HW177513   6.201  14.442  12.332
91872SOL    HW277514   6.218  14.304  12.272
91873SOL     OW77515  10.794   0.085  11.157
91873SOL    HW177516  10.816   0.136  11.235
91873SOL    HW277517  10.812   0.144  11.084
91874SOL     OW77518  10.206   9.806  13.895
91874SOL    HW177519  10.195   9.795  13.990
91874SOL    HW277520  10.116   9.813  13.862
91875SOL     OW77521  10.718   5.053   6.955
91875SOL    HW177522  10.716   5.028   7.047
91875SOL    HW277523  10.721   5.149   6.957
91876SOL     OW77524  13.505  11.325   8.966
91876SOL    HW177525  13.442  11.295   8.900
91876SOL    HW277526  13.450  11.354   9.039
91877SOL     OW77527  10.663   1.823   5.342
91877SOL    HW177528  10.672   1.868   5.426
91877SOL    HW277529  10.686   1.732   5.360
91878SOL     OW77530  10.862   6.241   1.683
91878SOL    HW177531  10.780   6.281   1.654
91878SOL    HW277532  10.930   6.292   1.639
91879SOL     OW77533   5.587   0.586   2.902
91879SOL    HW177534   5.564   0.548   2.987
91879SOL    HW277535   5.683   0.582   2.900
91880SOL     OW77536  13.848   3.852   5.537
91880SOL    HW177537  13.872   3.897   5.456
91880SOL    HW277538  13.882   3.908   5.607
91881SOL     OW77539  11.921   4.948   8.087
91881SOL    HW177540  11.978   4.877   8.056
91881SOL    HW277541  11.976   5.000   8.145
91882SOL     OW77542   7.523   3.836   4.279
91882SOL    HW177543   7.534   3.750   4.319
91882SOL    HW277544   7.540   3.898   4.350
91883SOL     OW77545   6.967   7.470  10.214
91883SOL    HW177546   6.926   7.386  10.195
91883SOL    HW277547   6.916   7.534  10.163
91884SOL     OW77548   2.781   6.199  12.427
91884SOL    HW177549   2.833   6.166  12.354
91884SOL    HW277550   2.845   6.211  12.498
91885SOL     OW77551  11.690  13.186   3.390
91885SOL    HW177552  11.671  13.279   3.374
91885SOL    HW277553  11.643  13.166   3.471
91886SOL     OW77554   3.552   3.030  13.442
91886SOL    HW177555   3.645   3.021  13.420
91886SOL    HW277556   3.515   3.083  13.372
91887SOL     OW77557   4.540   0.676   7.680
91887SOL    HW177558   4.624   0.689   7.725
91887SOL    HW277559   4.486   0.630   7.744
91888SOL     OW77560   3.984   4.937   0.221
91888SOL    HW177561   3.911   4.973   0.170
91888SOL    HW277562   4.061   4.984   0.190
91889SOL     OW77563   0.959   7.399   7.832
91889SOL    HW177564   0.945   7.312   7.794
91889SOL    HW277565   0.974   7.456   7.757
91890SOL     OW77566  13.647  11.715   2.956
91890SOL    HW177567  13.646  11.756   3.043
91890SOL    HW277568  13.555  11.707   2.933
91891SOL     OW77569   3.225   8.671   2.385
91891SOL    HW177570   3.169   8.706   2.316
91891SOL    HW277571   3.195   8.581   2.397
91892SOL     OW77572   3.463  10.056   5.526
91892SOL    HW177573   3.414  10.045   5.608
91892SOL    HW277574   3.515  10.135   5.541
91893SOL     OW77575   2.444  12.762   8.492
91893SOL    HW177576   2.413  12.672   8.502
91893SOL    HW277577   2.367  12.811   8.466
91894SOL     OW77578  14.466   8.054   9.519
91894SOL    HW177579  14.392   7.998   9.542
91894SOL    HW277580  14.479   8.109   9.597
91895SOL     OW77581  13.951   9.287  10.524
91895SOL    HW177582  13.905   9.310  10.442
91895SOL    HW277583  13.972   9.194  10.514
91896SOL     OW77584  14.645  14.681   4.345
91896SOL    HW177585  14.591  14.702   4.269
91896SOL    HW277586  14.621  14.745   4.411
91897SOL     OW77587  11.774   0.489  13.748
91897SOL    HW177588  11.740   0.544  13.677
91897SOL    HW277589  11.869   0.497  13.741
91898SOL     OW77590  13.858   1.312   7.364
91898SOL    HW177591  13.909   1.388   7.390
91898SOL    HW277592  13.897   1.283   7.282
91899SOL     OW77593  10.460  12.169   1.102
91899SOL    HW177594  10.457  12.205   1.014
91899SOL    HW277595  10.371  12.180   1.135
91900SOL     OW77596   2.937   5.555  14.580
91900SOL    HW177597   2.905   5.497  14.511
91900SOL    HW277598   2.890   5.637  14.567
91901SOL     OW77599   6.836   6.869   4.794
91901SOL    HW177600   6.752   6.909   4.818
91901SOL    HW277601   6.876   6.931   4.734
91902SOL     OW77602   2.233   5.069  11.290
91902SOL    HW177603   2.264   5.155  11.318
91902SOL    HW277604   2.312   5.025  11.257
91903SOL     OW77605   4.781   1.051   8.755
91903SOL    HW177606   4.736   1.118   8.704
91903SOL    HW277607   4.714   0.984   8.771
91904SOL     OW77608   1.277  13.388   5.033
91904SOL    HW177609   1.340  13.433   4.978
91904SOL    HW277610   1.194  13.433   5.016
91905SOL     OW77611  14.469  14.683  13.839
91905SOL    HW177612  14.495  14.687  13.747
91905SOL    HW277613  14.422  14.765  13.854
91906SOL     OW77614   6.687   7.578  12.634
91906SOL    HW177615   6.707   7.564  12.726
91906SOL    HW277616   6.639   7.661  12.633
91907SOL     OW77617   5.264   4.752   6.308
91907SOL    HW177618   5.262   4.723   6.400
91907SOL    HW277619   5.340   4.810   6.304
91908SOL     OW77620   6.735   7.702   5.407
91908SOL    HW177621   6.747   7.797   5.415
91908SOL    HW277622   6.744   7.670   5.497
91909SOL     OW77623  11.930   3.617   5.085
91909SOL    HW177624  12.024   3.625   5.070
91909SOL    HW277625  11.891   3.626   4.998
91910SOL     OW77626   7.280   8.688   4.455
91910SOL    HW177627   7.333   8.717   4.381
91910SOL    HW277628   7.297   8.752   4.524
91911SOL     OW77629   9.255  12.557   9.822
91911SOL    HW177630   9.324  12.607   9.779
91911SOL    HW277631   9.174  12.595   9.789
91912SOL     OW77632   7.361   4.996   0.806
91912SOL    HW177633   7.312   4.962   0.731
91912SOL    HW277634   7.319   5.080   0.826
91913SOL     OW77635  13.305   6.330   8.970
91913SOL    HW177636  13.242   6.388   8.927
91913SOL    HW277637  13.268   6.314   9.056
91914SOL     OW77638  10.477   5.696   7.880
91914SOL    HW177639  10.524   5.651   7.950
91914SOL    HW277640  10.395   5.725   7.920
91915SOL     OW77641   1.799  14.291   8.538
91915SOL    HW177642   1.862  14.230   8.577
91915SOL    HW277643   1.847  14.332   8.466
91916SOL     OW77644   6.047  12.626  10.406
91916SOL    HW177645   6.051  12.710  10.451
91916SOL    HW277646   6.071  12.562  10.473
91917SOL     OW77647  11.298  13.161   0.619
91917SOL    HW177648  11.364  13.112   0.667
91917SOL    HW277649  11.348  13.211   0.553
91918SOL     OW77650   8.293   2.369   5.486
91918SOL    HW177651   8.379   2.409   5.469
91918SOL    HW277652   8.251   2.429   5.548
91919SOL     OW77653  14.813   1.141   7.545
91919SOL    HW177654  14.835   1.226   7.585
91919SOL    HW277655  14.730   1.157   7.500
91920SOL     OW77656   0.119   5.448   4.243
91920SOL    HW177657   0.169   5.502   4.182
91920SOL    HW277658   0.054   5.508   4.280
91921SOL     OW77659   7.845   1.422   0.073
91921SOL    HW177660   7.769   1.450   0.124
91921SOL    HW277661   7.917   1.418   0.136
91922SOL     OW77662   8.545  12.652   0.185
91922SOL    HW177663   8.463  12.618   0.149
91922SOL    HW277664   8.613  12.608   0.135
91923SOL     OW77665   7.056   5.386  12.436
91923SOL    HW177666   7.086   5.462  12.386
91923SOL    HW277667   7.039   5.421  12.524
91924SOL     OW77668  10.309   2.567  12.129
91924SOL    HW177669  10.401   2.547  12.150
91924SOL    HW277670  10.313   2.647  12.078
91925SOL     OW77671   4.315   5.760   8.257
91925SOL    HW177672   4.300   5.776   8.164
91925SOL    HW277673   4.376   5.829   8.284
91926SOL     OW77674  13.789   5.790  14.539
91926SOL    HW177675  13.815   5.754  14.455
91926SOL    HW277676  13.869   5.829  14.574
91927SOL     OW77677   5.401  13.519   6.602
91927SOL    HW177678   5.386  13.613   6.615
91927SOL    HW277679   5.365  13.501   6.515
91928SOL     OW77680  14.117   6.611  14.816
91928SOL    HW177681  14.077   6.588   0.031
91928SOL    HW277682  14.141   6.527  14.776
91929SOL     OW77683   9.200  10.525  10.583
91929SOL    HW177684   9.136  10.532  10.512
91929SOL    HW277685   9.277  10.485  10.542
91930SOL     OW77686   9.401  11.169  12.837
91930SOL    HW177687   9.335  11.152  12.769
91930SOL    HW277688   9.353  11.161  12.919
91931SOL     OW77689   4.415   3.844  14.338
91931SOL    HW177690   4.335   3.792  14.336
91931SOL    HW277691   4.484   3.781  14.359
91932SOL     OW77692   6.500   0.802  12.716
91932SOL    HW177693   6.569   0.736  12.722
91932SOL    HW277694   6.424   0.761  12.757
91933SOL     OW77695  14.153  12.203   9.774
91933SOL    HW177696  14.233  12.242   9.739
91933SOL    HW277697  14.149  12.116   9.736
91934SOL     OW77698  12.980  14.832   3.643
91934SOL    HW177699  12.943  14.752   3.682
91934SOL    HW277700  13.047  14.800   3.582
91935SOL     OW77701   4.263   1.701   1.749
91935SOL    HW177702   4.292   1.782   1.706
91935SOL    HW277703   4.183   1.726   1.796
91936SOL     OW77704   0.617   5.913  12.989
91936SOL    HW177705   0.551   5.955  12.935
91936SOL    HW277706   0.701   5.941  12.951
91937SOL     OW77707  10.021   5.947  10.323
91937SOL    HW177708   9.957   5.899  10.271
91937SOL    HW277709   9.998   5.926  10.414
91938SOL     OW77710   0.200   8.242   5.261
91938SOL    HW177711   0.159   8.157   5.275
91938SOL    HW277712   0.127   8.305   5.261
91939SOL     OW77713   2.646   9.701   4.725
91939SOL    HW177714   2.652   9.612   4.761
91939SOL    HW277715   2.736   9.733   4.725
91940SOL     OW77716   2.340   0.949   0.487
91940SOL    HW177717   2.333   1.007   0.411
91940SOL    HW277718   2.415   0.983   0.536
91941SOL     OW77719   8.528  13.527   8.192
91941SOL    HW177720   8.439  13.495   8.208
91941SOL    HW277721   8.577  13.448   8.168
91942SOL     OW77722   9.715   6.990   7.909
91942SOL    HW177723   9.644   6.939   7.870
91942SOL    HW277724   9.795   6.946   7.880
91943SOL     OW77725  12.350   9.259   4.934
91943SOL    HW177726  12.352   9.320   4.861
91943SOL    HW277727  12.418   9.195   4.914
91944SOL     OW77728   2.626   6.451  14.118
91944SOL    HW177729   2.600   6.495  14.199
91944SOL    HW277730   2.665   6.520  14.065
91945SOL     OW77731  12.151  10.257   3.581
91945SOL    HW177732  12.129  10.348   3.559
91945SOL    HW277733  12.244  10.260   3.604
91946SOL     OW77734  12.075  11.802  10.517
91946SOL    HW177735  11.983  11.777  10.519
91946SOL    HW277736  12.083  11.871  10.582
91947SOL     OW77737   2.892  13.395   8.216
91947SOL    HW177738   2.923  13.403   8.126
91947SOL    HW277739   2.865  13.304   8.224
91948SOL     OW77740  13.103  12.986  13.031
91948SOL    HW177741  13.138  12.985  13.121
91948SOL    HW277742  13.132  13.069  12.995
91949SOL     OW77743   0.814   5.426  13.370
91949SOL    HW177744   0.773   5.433  13.283
91949SOL    HW277745   0.794   5.337  13.399
91950SOL     OW77746   7.281   3.556  14.452
91950SOL    HW177747   7.194   3.591  14.469
91950SOL    HW277748   7.293   3.489  14.520
91951SOL     OW77749   6.704   9.669   8.687
91951SOL    HW177750   6.746   9.748   8.721
91951SOL    HW277751   6.649   9.700   8.615
91952SOL     OW77752   3.753   8.032   4.080
91952SOL    HW177753   3.775   7.953   4.130
91952SOL    HW277754   3.746   8.101   4.147
91953SOL     OW77755   3.829  10.829   6.143
91953SOL    HW177756   3.755  10.789   6.097
91953SOL    HW277757   3.839  10.776   6.222
91954SOL     OW77758   9.624  14.391   3.853
91954SOL    HW177759   9.552  14.443   3.890
91954SOL    HW277760   9.598  14.300   3.866
91955SOL     OW77761  10.630  13.604   9.439
91955SOL    HW177762  10.581  13.526   9.413
91955SOL    HW277763  10.722  13.579   9.433
91956SOL     OW77764   0.157  11.309  11.492
91956SOL    HW177765   0.196  11.371  11.553
91956SOL    HW277766   0.069  11.342  11.477
91957SOL     OW77767   5.044  12.416   1.882
91957SOL    HW177768   4.989  12.480   1.836
91957SOL    HW277769   5.066  12.459   1.965
91958SOL     OW77770   0.165   3.002   2.163
91958SOL    HW177771   0.110   2.973   2.090
91958SOL    HW277772   0.154   3.097   2.165
91959SOL     OW77773  14.194   6.895   0.482
91959SOL    HW177774  14.140   6.961   0.526
91959SOL    HW277775  14.140   6.865   0.408
91960SOL     OW77776   5.654   3.481   2.142
91960SOL    HW177777   5.562   3.476   2.116
91960SOL    HW277778   5.694   3.404   2.102
91961SOL     OW77779   6.897   4.274  11.481
91961SOL    HW177780   6.926   4.364  11.496
91961SOL    HW277781   6.828   4.260  11.546
91962SOL     OW77782   5.161   4.625   8.715
91962SOL    HW177783   5.229   4.685   8.745
91962SOL    HW277784   5.119   4.671   8.642
91963SOL     OW77785   2.047   2.297   5.358
91963SOL    HW177786   2.107   2.246   5.305
91963SOL    HW277787   2.030   2.376   5.306
91964SOL     OW77788   5.819   1.301  10.722
91964SOL    HW177789   5.729   1.282  10.697
91964SOL    HW277790   5.815   1.316  10.817
91965SOL     OW77791   2.740   2.089   8.964
91965SOL    HW177792   2.741   2.008   8.913
91965SOL    HW277793   2.648   2.107   8.979
91966SOL     OW77794   2.617  12.362  11.954
91966SOL    HW177795   2.684  12.332  12.015
91966SOL    HW277796   2.606  12.455  11.974
91967SOL     OW77797   5.249  12.652  13.724
91967SOL    HW177798   5.232  12.735  13.680
91967SOL    HW277799   5.272  12.676  13.814
91968SOL     OW77800   0.546  10.248   4.938
91968SOL    HW177801   0.454  10.267   4.958
91968SOL    HW277802   0.573  10.188   5.007
91969SOL     OW77803   1.945   7.262   2.988
91969SOL    HW177804   1.981   7.178   2.958
91969SOL    HW277805   1.971   7.324   2.920
91970SOL     OW77806   2.373   0.888   2.202
91970SOL    HW177807   2.417   0.930   2.276
91970SOL    HW277808   2.339   0.806   2.238
91971SOL     OW77809   0.094  14.589   8.986
91971SOL    HW177810   0.136  14.513   8.946
91971SOL    HW277811   0.000  14.571   8.979
91972SOL     OW77812  12.655  12.316   0.979
91972SOL    HW177813  12.736  12.341   1.024
91972SOL    HW277814  12.678  12.315   0.886
91973SOL     OW77815   2.446  10.494   8.215
91973SOL    HW177816   2.386  10.567   8.231
91973SOL    HW277817   2.406  10.446   8.142
91974SOL     OW77818   6.108   8.419   7.967
91974SOL    HW177819   6.030   8.430   7.912
91974SOL    HW277820   6.110   8.498   8.021
91975SOL     OW77821   3.462   0.697  11.400
91975SOL    HW177822   3.370   0.706  11.424
91975SOL    HW277823   3.506   0.674  11.482
91976SOL     OW77824   4.012   3.747  12.772
91976SOL    HW177825   3.951   3.701  12.715
91976SOL    HW277826   3.959   3.811  12.819
91977SOL     OW77827   8.452   2.755  14.671
91977SOL    HW177828   8.452   2.849  14.655
91977SOL    HW277829   8.401   2.718  14.599
91978SOL     OW77830   1.412  14.326  10.137
91978SOL    HW177831   1.465  14.251  10.110
91978SOL    HW277832   1.469  14.376  10.195
91979SOL     OW77833   1.658   9.554   3.595
91979SOL    HW177834   1.601   9.478   3.584
91979SOL    HW277835   1.746   9.520   3.581
91980SOL     OW77836   8.650  12.238  10.891
91980SOL    HW177837   8.651  12.333  10.903
91980SOL    HW277838   8.735  12.208  10.923
91981SOL     OW77839  14.216  10.866  11.699
91981SOL    HW177840  14.197  10.815  11.778
91981SOL    HW277841  14.135  10.915  11.682
91982SOL     OW77842   8.950  13.351  10.634
91982SOL    HW177843   9.009  13.328  10.706
91982SOL    HW277844   9.008  13.381  10.564
91983SOL     OW77845  12.916   2.846   6.134
91983SOL    HW177846  12.849   2.779   6.121
91983SOL    HW277847  12.982   2.804   6.189
91984SOL     OW77848  14.767   4.296  14.368
91984SOL    HW177849  14.805   4.227  14.422
91984SOL    HW277850  14.754   4.255  14.282
91985SOL     OW77851   5.510   3.449  10.571
91985SOL    HW177852   5.430   3.498  10.593
91985SOL    HW277853   5.572   3.516  10.542
91986SOL     OW77854   0.212   2.004   7.474
91986SOL    HW177855   0.248   2.088   7.501
91986SOL    HW277856   0.279   1.940   7.498
91987SOL     OW77857   5.864   7.678   9.198
91987SOL    HW177858   5.861   7.762   9.244
91987SOL    HW277859   5.953   7.675   9.162
91988SOL     OW77860  12.910   4.365  13.512
91988SOL    HW177861  12.891   4.273  13.531
91988SOL    HW277862  12.858   4.384  13.434
91989SOL     OW77863  10.303   0.635  11.764
91989SOL    HW177864  10.249   0.706  11.799
91989SOL    HW277865  10.246   0.590  11.701
91990SOL     OW77866  14.083   0.626   9.349
91990SOL    HW177867  14.154   0.633   9.414
91990SOL    HW277868  14.128   0.633   9.264
91991SOL     OW77869   6.485   9.396   6.499
91991SOL    HW177870   6.466   9.450   6.422
91991SOL    HW277871   6.509   9.311   6.464
91992SOL     OW77872   5.762   8.287  11.688
91992SOL    HW177873   5.827   8.340  11.643
91992SOL    HW277874   5.811   8.214  11.725
91993SOL     OW77875   8.988  12.290   6.614
91993SOL    HW177876   8.902  12.292   6.571
91993SOL    HW277877   8.993  12.203   6.652
91994SOL     OW77878   6.524   5.083   1.270
91994SOL    HW177879   6.616   5.060   1.282
91994SOL    HW277880   6.501   5.049   1.184
91995SOL     OW77881   6.488   9.524   0.606
91995SOL    HW177882   6.392   9.521   0.614
91995SOL    HW277883   6.515   9.586   0.674
91996SOL     OW77884  11.175   5.007   3.315
91996SOL    HW177885  11.242   5.070   3.340
91996SOL    HW277886  11.093   5.056   3.316
91997SOL     OW77887   6.157   5.408  13.154
91997SOL    HW177888   6.098   5.420  13.079
91997SOL    HW277889   6.212   5.334  13.129
91998SOL     OW77890  14.618  11.323   2.638
91998SOL    HW177891  14.690  11.377   2.671
91998SOL    HW277892  14.540  11.376   2.655
91999SOL     OW77893   4.467   7.064   0.102
91999SOL    HW177894   4.501   6.978   0.077
91999SOL    HW277895   4.534   7.126   0.071
92000SOL     OW77896  11.600  11.317   6.380
92000SOL    HW177897  11.692  11.316   6.406
92000SOL    HW277898  11.602  11.300   6.286
92001SOL     OW77899  12.450   8.596  13.532
92001SOL    HW177900  12.473   8.677  13.487
92001SOL    HW277901  12.355   8.592  13.526
92002SOL     OW77902  11.221  12.264   2.126
92002SOL    HW177903  11.244  12.173   2.148
92002SOL    HW277904  11.302  12.301   2.091
92003SOL     OW77905   5.731  14.510   2.051
92003SOL    HW177906   5.818  14.544   2.072
92003SOL    HW277907   5.739  14.415   2.060
92004SOL     OW77908   4.133  10.917  10.239
92004SOL    HW177909   4.218  10.959  10.225
92004SOL    HW277910   4.097  10.904  10.152
92005SOL     OW77911   6.486   9.510  12.281
92005SOL    HW177912   6.535   9.482  12.358
92005SOL    HW277913   6.402   9.541  12.315
92006SOL     OW77914  14.300   4.318   5.223
92006SOL    HW177915  14.229   4.257   5.203
92006SOL    HW277916  14.324   4.355   5.138
92007SOL     OW77917   2.350  13.788   9.756
92007SOL    HW177918   2.369  13.876   9.723
92007SOL    HW277919   2.286  13.752   9.694
92008SOL     OW77920   7.016   4.957   2.293
92008SOL    HW177921   7.026   4.892   2.222
92008SOL    HW277922   7.069   5.031   2.265
92009SOL     OW77923  12.134  13.756   0.148
92009SOL    HW177924  12.169  13.838   0.114
92009SOL    HW277925  12.150  13.692   0.079
92010SOL     OW77926   5.334   1.727   1.674
92010SOL    HW177927   5.366   1.762   1.590
92010SOL    HW277928   5.409   1.736   1.733
92011SOL     OW77929   9.158  10.641   6.359
92011SOL    HW177930   9.203  10.614   6.279
92011SOL    HW277931   9.225  10.683   6.411
92012SOL     OW77932   2.733  14.123  10.967
92012SOL    HW177933   2.713  14.166  10.884
92012SOL    HW277934   2.820  14.086  10.954
92013SOL     OW77935   5.540   3.141  11.614
92013SOL    HW177936   5.499   3.129  11.700
92013SOL    HW277937   5.466   3.156  11.554
92014SOL     OW77938   9.508   4.560   2.523
92014SOL    HW177939   9.581   4.557   2.461
92014SOL    HW277940   9.498   4.469   2.552
92015SOL     OW77941   6.107   6.882   9.591
92015SOL    HW177942   6.124   6.808   9.532
92015SOL    HW277943   6.149   6.957   9.548
92016SOL     OW77944   0.280   3.386  10.320
92016SOL    HW177945   0.222   3.376  10.245
92016SOL    HW277946   0.301   3.296  10.346
92017SOL     OW77947   2.229  13.474   4.337
92017SOL    HW177948   2.256  13.547   4.394
92017SOL    HW277949   2.290  13.477   4.263
92018SOL     OW77950   9.267  13.186  12.401
92018SOL    HW177951   9.230  13.235  12.328
92018SOL    HW277952   9.193  13.164  12.456
92019SOL     OW77953   9.082   8.293   6.097
92019SOL    HW177954   8.990   8.319   6.105
92019SOL    HW277955   9.106   8.318   6.008
92020SOL     OW77956  10.069   9.408  13.464
92020SOL    HW177957   9.974   9.403  13.476
92020SOL    HW277958  10.096   9.480  13.522
92021SOL     OW77959   7.057   0.068   7.961
92021SOL    HW177960   7.121   0.048   8.030
92021SOL    HW277961   7.048  14.855   7.912
92022SOL     OW77962   0.317  14.579  12.251
92022SOL    HW177963   0.299  14.651  12.192
92022SOL    HW277964   0.356  14.511  12.196
92023SOL     OW77965   3.346   8.179   6.948
92023SOL    HW177966   3.345   8.217   6.860
92023SOL    HW277967   3.439   8.163   6.967
92024SOL     OW77968  12.813   3.652   3.649
92024SOL    HW177969  12.824   3.660   3.744
92024SOL    HW277970  12.841   3.737   3.615
92025SOL     OW77971   8.528   9.694  12.690
92025SOL    HW177972   8.475   9.621  12.656
92025SOL    HW277973   8.618   9.667  12.675
92026SOL     OW77974  12.174   0.356  10.414
92026SOL    HW177975  12.266   0.329  10.410
92026SOL    HW277976  12.178   0.451  10.427
92027SOL     OW77977   1.273   9.370  12.543
92027SOL    HW177978   1.333   9.312  12.498
92027SOL    HW277979   1.194   9.317  12.556
92028SOL     OW77980   4.166  12.686  10.921
92028SOL    HW177981   4.125  12.603  10.944
92028SOL    HW277982   4.123  12.712  10.840
92029SOL     OW77983   4.682   9.359  13.291
92029SOL    HW177984   4.652   9.395  13.207
92029SOL    HW277985   4.775   9.342  13.278
92030SOL     OW77986  14.043   2.001  14.161
92030SOL    HW177987  14.081   2.039  14.241
92030SOL    HW277988  14.117   1.993  14.101
92031SOL     OW77989   8.015   4.581   6.323
92031SOL    HW177990   8.106   4.571   6.295
92031SOL    HW277991   7.964   4.564   6.244
92032SOL     OW77992   7.857   7.112  13.220
92032SOL    HW177993   7.890   7.058  13.293
92032SOL    HW277994   7.936   7.136  13.172
92033SOL     OW77995  10.914   8.756  13.350
92033SOL    HW177996  10.868   8.840  13.356
92033SOL    HW277997  10.899   8.727  13.260
92034SOL     OW77998   4.454  10.730  12.639
92034SOL    HW177999   4.509  10.653  12.652
92034SOL    HW278000   4.408  10.740  12.722
92035SOL     OW78001   3.305   5.570  10.939
92035SOL    HW178002   3.342   5.604  10.858
92035SOL    HW278003   3.370   5.593  11.006
92036SOL     OW78004   7.924   3.594  14.613
92036SOL    HW178005   7.912   3.643  14.694
92036SOL    HW278006   7.838   3.553  14.597
92037SOL     OW78007  10.240  14.642   8.202
92037SOL    HW178008  10.268  14.566   8.150
92037SOL    HW278009  10.314  14.702   8.199
92038SOL     OW78010  11.019   6.716   4.686
92038SOL    HW178011  10.933   6.758   4.687
92038SOL    HW278012  11.016   6.658   4.610
92039SOL     OW78013  10.525  13.357  12.026
92039SOL    HW178014  10.476  13.278  12.002
92039SOL    HW278015  10.461  13.428  12.017
92040SOL     OW78016   2.464   4.103   5.597
92040SOL    HW178017   2.445   4.070   5.509
92040SOL    HW278018   2.403   4.175   5.609
92041SOL     OW78019  13.254   5.324  13.109
92041SOL    HW178020  13.229   5.384  13.180
92041SOL    HW278021  13.317   5.264  13.148
92042SOL     OW78022   6.823   1.151  13.318
92042SOL    HW178023   6.811   1.132  13.411
92042SOL    HW278024   6.771   1.085  13.273
92043SOL     OW78025   9.375   6.400   5.470
92043SOL    HW178026   9.431   6.462   5.424
92043SOL    HW278027   9.342   6.449   5.545
92044SOL     OW78028   7.172  14.336   9.382
92044SOL    HW178029   7.258  14.371   9.356
92044SOL    HW278030   7.188  14.243   9.399
92045SOL     OW78031   2.864  13.214  11.218
92045SOL    HW178032   2.924  13.221  11.143
92045SOL    HW278033   2.849  13.120  11.228
92046SOL     OW78034   1.774   1.193   1.796
92046SOL    HW178035   1.769   1.190   1.701
92046SOL    HW278036   1.771   1.286   1.818
92047SOL     OW78037   0.770   8.618   9.134
92047SOL    HW178038   0.815   8.646   9.054
92047SOL    HW278039   0.718   8.542   9.107
92048SOL     OW78040  11.238  14.603   3.383
92048SOL    HW178041  11.281  14.539   3.440
92048SOL    HW278042  11.148  14.606   3.415
92049SOL     OW78043  12.538   7.317   5.676
92049SOL    HW178044  12.621   7.277   5.649
92049SOL    HW278045  12.474   7.281   5.614
92050SOL     OW78046  10.361  13.036   2.872
92050SOL    HW178047  10.323  13.118   2.839
92050SOL    HW278048  10.290  12.996   2.923
92051SOL     OW78049   7.253   5.091   8.118
92051SOL    HW178050   7.305   5.013   8.136
92051SOL    HW278051   7.218   5.117   8.204
92052SOL     OW78052  12.532  11.407  13.720
92052SOL    HW178053  12.601  11.374  13.777
92052SOL    HW278054  12.540  11.355  13.640
92053SOL     OW78055   2.846   2.901   2.058
92053SOL    HW178056   2.836   2.992   2.030
92053SOL    HW278057   2.843   2.850   1.977
92054SOL     OW78058   0.736   1.575   6.099
92054SOL    HW178059   0.662   1.521   6.126
92054SOL    HW278060   0.782   1.595   6.181
92055SOL     OW78061   3.261  12.824  10.044
92055SOL    HW178062   3.191  12.834  10.109
92055SOL    HW278063   3.261  12.906   9.996
92056SOL     OW78064   2.533   0.290   7.478
92056SOL    HW178065   2.540   0.343   7.398
92056SOL    HW278066   2.624   0.280   7.507
92057SOL     OW78067  14.372   4.507   1.371
92057SOL    HW178068  14.361   4.527   1.278
92057SOL    HW278069  14.417   4.423   1.372
92058SOL     OW78070  13.766   8.411   6.331
92058SOL    HW178071  13.730   8.413   6.242
92058SOL    HW278072  13.723   8.335   6.371
92059SOL     OW78073   2.494  10.314   7.285
92059SOL    HW178074   2.527  10.281   7.201
92059SOL    HW278075   2.409  10.353   7.264
92060SOL     OW78076   2.390   2.557   9.259
92060SOL    HW178077   2.309   2.511   9.279
92060SOL    HW278078   2.456   2.487   9.255
92061SOL     OW78079   0.499  10.455  11.428
92061SOL    HW178080   0.510  10.460  11.523
92061SOL    HW278081   0.437  10.383  11.414
92062SOL     OW78082  13.859   5.788  12.328
92062SOL    HW178083  13.806   5.772  12.250
92062SOL    HW278084  13.837   5.717  12.388
92063SOL     OW78085   9.348   4.036  10.481
92063SOL    HW178086   9.413   4.085  10.430
92063SOL    HW278087   9.335   4.088  10.560
92064SOL     OW78088   2.711  14.302   8.317
92064SOL    HW178089   2.660  14.380   8.297
92064SOL    HW278090   2.710  14.251   8.237
92065SOL     OW78091   8.595   6.679   8.611
92065SOL    HW178092   8.668   6.660   8.671
92065SOL    HW278093   8.630   6.660   8.524
92066SOL     OW78094   4.959   2.320  13.707
92066SOL    HW178095   4.989   2.286  13.623
92066SOL    HW278096   5.019   2.282  13.771
92067SOL     OW78097  10.215   3.571   5.559
92067SOL    HW178098  10.230   3.476   5.558
92067SOL    HW278099  10.137   3.583   5.505
92068SOL     OW78100   1.660   5.025   6.256
92068SOL    HW178101   1.709   5.096   6.215
92068SOL    HW278102   1.592   5.070   6.307
92069SOL     OW78103  14.376   7.793   1.777
92069SOL    HW178104  14.346   7.779   1.866
92069SOL    HW278105  14.448   7.731   1.765
92070SOL     OW78106   4.358   4.770   5.516
92070SOL    HW178107   4.358   4.690   5.568
92070SOL    HW278108   4.422   4.827   5.560
92071SOL     OW78109  14.605   1.288   4.982
92071SOL    HW178110  14.616   1.319   5.072
92071SOL    HW278111  14.532   1.340   4.948
92072SOL     OW78112  13.811   0.590   7.055
92072SOL    HW178113  13.892   0.597   7.004
92072SOL    HW278114  13.777   0.680   7.057
92073SOL     OW78115  14.322   4.104  11.292
92073SOL    HW178116  14.243   4.117  11.344
92073SOL    HW278117  14.291   4.095  11.202
92074SOL     OW78118   8.476   0.092   5.427
92074SOL    HW178119   8.418   0.133   5.363
92074SOL    HW278120   8.563   0.124   5.403
92075SOL     OW78121   0.010  10.270   4.839
92075SOL    HW178122   0.067  10.346   4.834
92075SOL    HW278123   0.004  10.238   4.748
92076SOL     OW78124  14.222  10.490   1.670
92076SOL    HW178125  14.260  10.444   1.745
92076SOL    HW278126  14.161  10.427   1.632
92077SOL     OW78127   7.774   5.075   1.005
92077SOL    HW178128   7.777   5.100   0.913
92077SOL    HW278129   7.787   5.157   1.053
92078SOL     OW78130  14.569  13.221   8.384
92078SOL    HW178131  14.585  13.135   8.345
92078SOL    HW278132  14.504  13.261   8.327
92079SOL     OW78133  11.661  13.603  11.848
92079SOL    HW178134  11.750  13.633  11.832
92079SOL    HW278135  11.671  13.530  11.909
92080SOL     OW78136  10.825  13.346   9.103
92080SOL    HW178137  10.731  13.330   9.116
92080SOL    HW278138  10.868  13.286   9.165
92081SOL     OW78139   5.767   9.499   6.697
92081SOL    HW178140   5.715   9.421   6.676
92081SOL    HW278141   5.725   9.570   6.649
92082SOL     OW78142   7.021   5.737   3.394
92082SOL    HW178143   6.971   5.732   3.312
92082SOL    HW278144   7.112   5.746   3.366
92083SOL     OW78145   8.399   2.865   3.778
92083SOL    HW178146   8.402   2.786   3.723
92083SOL    HW278147   8.480   2.912   3.757
92084SOL     OW78148  10.579   3.086  12.456
92084SOL    HW178149  10.595   3.146  12.528
92084SOL    HW278150  10.519   3.133  12.398
92085SOL     OW78151   7.523   1.214  11.817
92085SOL    HW178152   7.583   1.274  11.863
92085SOL    HW278153   7.496   1.152  11.884
92086SOL     OW78154  11.431   3.664   0.166
92086SOL    HW178155  11.442   3.686   0.259
92086SOL    HW278156  11.510   3.615   0.144
92087SOL     OW78157   3.533   5.636   1.954
92087SOL    HW178158   3.455   5.686   1.976
92087SOL    HW278159   3.499   5.554   1.917
92088SOL     OW78160   4.007   0.368   9.204
92088SOL    HW178161   3.951   0.425   9.257
92088SOL    HW278162   3.988   0.393   9.114
92089SOL     OW78163   2.018  13.247   3.884
92089SOL    HW178164   1.984  13.158   3.873
92089SOL    HW278165   2.102  13.246   3.839
92090SOL     OW78166  12.403   6.283   6.343
92090SOL    HW178167  12.472   6.225   6.313
92090SOL    HW278168  12.327   6.226   6.358
92091SOL     OW78169   4.485  10.596   9.335
92091SOL    HW178170   4.455  10.508   9.312
92091SOL    HW278171   4.470  10.647   9.255
92092SOL     OW78172  12.855   6.956  11.187
92092SOL    HW178173  12.836   7.048  11.205
92092SOL    HW278174  12.808   6.937  11.105
92093SOL     OW78175   8.049   1.815  12.362
92093SOL    HW178176   8.123   1.762  12.391
92093SOL    HW278177   8.088   1.900  12.338
92094SOL     OW78178   5.027   7.687   7.674
92094SOL    HW178179   4.951   7.634   7.650
92094SOL    HW278180   5.102   7.633   7.649
92095SOL     OW78181  13.711   7.776  10.187
92095SOL    HW178182  13.787   7.824  10.155
92095SOL    HW278183  13.689   7.818  10.270
92096SOL     OW78184   5.507   4.824   7.004
92096SOL    HW178185   5.422   4.862   6.981
92096SOL    HW278186   5.537   4.877   7.078
92097SOL     OW78187   7.220  14.478   3.179
92097SOL    HW178188   7.147  14.509   3.125
92097SOL    HW278189   7.273  14.556   3.196
92098SOL     OW78190   7.895   3.358   0.547
92098SOL    HW178191   7.983   3.329   0.523
92098SOL    HW278192   7.844   3.278   0.553
92099SOL     OW78193  13.055   8.252  11.307
92099SOL    HW178194  13.103   8.265  11.388
92099SOL    HW278195  13.031   8.340  11.277
92100SOL     OW78196   4.020   4.128   5.668
92100SOL    HW178197   4.088   4.080   5.714
92100SOL    HW278198   4.031   4.219   5.695
92101SOL     OW78199  12.621   4.874  12.168
92101SOL    HW178200  12.559   4.936  12.128
92101SOL    HW278201  12.675   4.929  12.225
92102SOL     OW78202   2.928   4.244   0.823
92102SOL    HW178203   2.865   4.205   0.883
92102SOL    HW278204   2.890   4.232   0.736
92103SOL     OW78205  11.051   4.236  12.012
92103SOL    HW178206  11.037   4.326  12.040
92103SOL    HW278207  10.965   4.195  12.022
92104SOL     OW78208  12.543   3.127  11.851
92104SOL    HW178209  12.491   3.058  11.892
92104SOL    HW278210  12.631   3.088  11.842
92105SOL     OW78211   5.473  10.801   5.696
92105SOL    HW178212   5.453  10.753   5.776
92105SOL    HW278213   5.395  10.790   5.641
92106SOL     OW78214   9.404  14.177   6.543
92106SOL    HW178215   9.343  14.247   6.518
92106SOL    HW278216   9.396  14.112   6.473
92107SOL     OW78217  11.147   4.290   6.170
92107SOL    HW178218  11.099   4.278   6.088
92107SOL    HW278219  11.215   4.354   6.148
92108SOL     OW78220   5.584   6.176   4.601
92108SOL    HW178221   5.546   6.264   4.603
92108SOL    HW278222   5.623   6.169   4.514
92109SOL     OW78223   1.742  10.704  14.093
92109SOL    HW178224   1.829  10.682  14.127
92109SOL    HW278225   1.734  10.798  14.106
92110SOL     OW78226   2.559   0.230   1.500
92110SOL    HW178227   2.549   0.136   1.513
92110SOL    HW278228   2.572   0.266   1.587
92111SOL     OW78229   3.608   6.050   8.610
92111SOL    HW178230   3.672   5.993   8.567
92111SOL    HW278231   3.646   6.070   8.695
92112SOL     OW78232   4.838   1.599  10.025
92112SOL    HW178233   4.856   1.623   9.934
92112SOL    HW278234   4.802   1.510  10.019
92113SOL     OW78235   7.997  11.730   9.020
92113SOL    HW178236   8.055  11.689   8.956
92113SOL    HW278237   7.911  11.691   9.003
92114SOL     OW78238   7.974  10.975  14.312
92114SOL    HW178239   7.968  11.065  14.344
92114SOL    HW278240   8.020  10.928  14.381
92115SOL     OW78241  14.843  14.460  13.115
92115SOL    HW178242   0.060  14.477  13.156
92115SOL    HW278243  14.801  14.546  13.111
92116SOL     OW78244   8.148   1.810   5.627
92116SOL    HW178245   8.113   1.741   5.682
92116SOL    HW278246   8.072   1.845   5.581
92117SOL     OW78247   9.745   0.757   4.400
92117SOL    HW178248   9.752   0.683   4.339
92117SOL    HW278249   9.743   0.834   4.344
92118SOL     OW78250  14.126   7.321   4.319
92118SOL    HW178251  14.187   7.253   4.289
92118SOL    HW278252  14.064   7.331   4.247
92119SOL     OW78253  12.877  12.932  14.660
92119SOL    HW178254  12.893  12.882  14.579
92119SOL    HW278255  12.798  12.983  14.641
92120SOL     OW78256   0.343  11.466   3.070
92120SOL    HW178257   0.257  11.509   3.070
92120SOL    HW278258   0.333  11.394   3.132
92121SOL     OW78259  10.747   4.470   1.795
92121SOL    HW178260  10.817   4.526   1.762
92121SOL    HW278261  10.786   4.424   1.870
92122SOL     OW78262  10.439   0.448  11.953
92122SOL    HW178263  10.429   0.532  11.909
92122SOL    HW278264  10.534   0.440  11.968
92123SOL     OW78265  11.501   6.978   5.274
92123SOL    HW178266  11.459   7.061   5.253
92123SOL    HW278267  11.514   6.982   5.369
92124SOL     OW78268   9.080   8.340   2.173
92124SOL    HW178269   9.014   8.275   2.195
92124SOL    HW278270   9.059   8.415   2.227
92125SOL     OW78271  10.431   4.834  13.554
92125SOL    HW178272  10.381   4.881  13.488
92125SOL    HW278273  10.365   4.796  13.612
92126SOL     OW78274   7.670  13.138  13.427
92126SOL    HW178275   7.637  13.160  13.514
92126SOL    HW278276   7.755  13.097  13.444
92127SOL     OW78277  11.700  11.407  12.480
92127SOL    HW178278  11.644  11.338  12.516
92127SOL    HW278279  11.676  11.485  12.529
92128SOL     OW78280   8.283   5.193   1.391
92128SOL    HW178281   8.351   5.211   1.456
92128SOL    HW278282   8.329   5.193   1.307
92129SOL     OW78283   7.560  12.744  14.450
92129SOL    HW178284   7.602  12.830  14.457
92129SOL    HW278285   7.467  12.764  14.435
92130SOL     OW78286  12.857  14.161  14.620
92130SOL    HW178287  12.917  14.118  14.560
92130SOL    HW278288  12.913  14.216  14.675
92131SOL     OW78289   8.788   6.697   5.642
92131SOL    HW178290   8.745   6.620   5.679
92131SOL    HW278291   8.732   6.724   5.570
92132SOL     OW78292  14.595   1.815  11.503
92132SOL    HW178293  14.643   1.791  11.581
92132SOL    HW278294  14.505   1.785  11.519
92133SOL     OW78295  10.200   2.536   2.597
92133SOL    HW178296  10.211   2.469   2.530
92133SOL    HW278297  10.117   2.579   2.575
92134SOL     OW78298   3.426   8.205  10.627
92134SOL    HW178299   3.364   8.132  10.629
92134SOL    HW278300   3.480   8.192  10.705
92135SOL     OW78301   7.448  12.692   7.867
92135SOL    HW178302   7.388  12.735   7.806
92135SOL    HW278303   7.534  12.729   7.846
92136SOL     OW78304   6.901   1.245   1.522
92136SOL    HW178305   6.985   1.258   1.566
92136SOL    HW278306   6.844   1.209   1.590
92137SOL     OW78307  11.089   6.966   4.194
92137SOL    HW178308  10.999   6.961   4.161
92137SOL    HW278309  11.143   6.962   4.115
92138SOL     OW78310  14.333  14.549  10.378
92138SOL    HW178311  14.333  14.621  10.442
92138SOL    HW278312  14.421  14.511  10.386
92139SOL     OW78313  11.268   4.850   3.131
92139SOL    HW178314  11.247   4.912   3.201
92139SOL    HW278315  11.194   4.789   3.130
92140SOL     OW78316   4.204   0.563   1.522
92140SOL    HW178317   4.283   0.581   1.572
92140SOL    HW278318   4.174   0.649   1.494
92141SOL     OW78319   2.483   6.327   9.110
92141SOL    HW178320   2.458   6.376   9.189
92141SOL    HW278321   2.429   6.248   9.112
92142SOL     OW78322   4.366   3.165   4.296
92142SOL    HW178323   4.357   3.183   4.202
92142SOL    HW278324   4.429   3.093   4.300
92143SOL     OW78325  14.168   5.414   0.543
92143SOL    HW178326  14.221   5.424   0.623
92143SOL    HW278327  14.116   5.335   0.559
92144SOL     OW78328   1.447   3.863   9.291
92144SOL    HW178329   1.457   3.943   9.342
92144SOL    HW278330   1.429   3.893   9.202
92145SOL     OW78331   3.135   2.422  11.788
92145SOL    HW178332   3.196   2.352  11.769
92145SOL    HW278333   3.130   2.472  11.707
92146SOL     OW78334  14.458  11.069   5.935
92146SOL    HW178335  14.523  11.004   5.907
92146SOL    HW278336  14.492  11.152   5.903
92147SOL     OW78337   4.916   8.034   0.982
92147SOL    HW178338   4.915   7.953   1.033
92147SOL    HW278339   5.005   8.069   0.995
92148SOL     OW78340  11.814   1.062   4.965
92148SOL    HW178341  11.873   0.998   4.925
92148SOL    HW278342  11.799   1.029   5.053
92149SOL     OW78343   6.233   6.457  14.694
92149SOL    HW178344   6.248   6.432  14.602
92149SOL    HW278345   6.183   6.385  14.730
92150SOL     OW78346   6.948   9.081   7.512
92150SOL    HW178347   6.984   9.115   7.430
92150SOL    HW278348   6.990   8.996   7.523
92151SOL     OW78349   0.737   6.072  11.133
92151SOL    HW178350   0.704   6.008  11.070
92151SOL    HW278351   0.730   6.156  11.087
92152SOL     OW78352   5.811   3.363   1.119
92152SOL    HW178353   5.831   3.297   1.052
92152SOL    HW278354   5.751   3.320   1.179
92153SOL     OW78355   4.231   7.637  11.933
92153SOL    HW178356   4.279   7.643  11.851
92153SOL    HW278357   4.139   7.644  11.907
92154SOL     OW78358   0.777   0.364   5.201
92154SOL    HW178359   0.828   0.283   5.188
92154SOL    HW278360   0.727   0.348   5.281
92155SOL     OW78361  10.381   2.223   4.782
92155SOL    HW178362  10.375   2.264   4.869
92155SOL    HW278363  10.386   2.297   4.722
92156SOL     OW78364  10.763   3.820   3.010
92156SOL    HW178365  10.702   3.771   3.066
92156SOL    HW278366  10.837   3.760   2.998
92157SOL     OW78367  11.802   5.561   6.582
92157SOL    HW178368  11.875   5.558   6.520
92157SOL    HW278369  11.780   5.469   6.597
92158SOL     OW78370   8.685  10.562  14.142
92158SOL    HW178371   8.766  10.590  14.100
92158SOL    HW278372   8.712  10.495  14.205
92159SOL     OW78373  10.459   8.181   0.908
92159SOL    HW178374  10.549   8.212   0.919
92159SOL    HW278375  10.464   8.087   0.926
92160SOL     OW78376   5.647   3.312  10.814
92160SOL    HW178377   5.597   3.315  10.732
92160SOL    HW278378   5.579   3.312  10.882
92161SOL     OW78379   4.034   2.685  14.533
92161SOL    HW178380   4.117   2.657  14.571
92161SOL    HW278381   4.055   2.765  14.486
92162SOL     OW78382  13.944  12.828   1.949
92162SOL    HW178383  13.986  12.775   1.881
92162SOL    HW278384  14.015  12.879   1.988
92163SOL     OW78385   2.632  14.133   2.672
92163SOL    HW178386   2.606  14.078   2.599
92163SOL    HW278387   2.568  14.113   2.741
92164SOL     OW78388   3.806  10.784   6.445
92164SOL    HW178389   3.864  10.821   6.512
92164SOL    HW278390   3.829  10.691   6.442
92165SOL     OW78391   9.612  10.038   4.051
92165SOL    HW178392   9.659  10.063   3.972
92165SOL    HW278393   9.669   9.975   4.094
92166SOL     OW78394   5.672   9.886   5.025
92166SOL    HW178395   5.684   9.792   5.007
92166SOL    HW278396   5.580   9.903   5.005
92167SOL     OW78397   5.647   2.523   1.108
92167SOL    HW178398   5.581   2.592   1.098
92167SOL    HW278399   5.705   2.536   1.033
92168SOL     OW78400   4.192   5.113   3.349
92168SOL    HW178401   4.224   5.035   3.305
92168SOL    HW278402   4.186   5.179   3.280
92169SOL     OW78403   3.988   4.410   5.080
92169SOL    HW178404   3.944   4.494   5.064
92169SOL    HW278405   3.916   4.349   5.099
92170SOL     OW78406   9.093   2.459  10.328
92170SOL    HW178407   9.042   2.379  10.314
92170SOL    HW278408   9.079   2.481  10.420
92171SOL     OW78409   1.651   2.312   1.192
92171SOL    HW178410   1.715   2.242   1.206
92171SOL    HW278411   1.670   2.343   1.103
92172SOL     OW78412   6.052  14.024   9.007
92172SOL    HW178413   5.981  13.959   9.006
92172SOL    HW278414   6.074  14.035   9.099
92173SOL     OW78415   6.504  14.292   5.143
92173SOL    HW178416   6.545  14.374   5.118
92173SOL    HW278417   6.426  14.286   5.087
92174SOL     OW78418   4.926   9.042  12.593
92174SOL    HW178419   4.928   8.996  12.677
92174SOL    HW278420   4.869   9.118  12.608
92175SOL     OW78421  12.942   1.034   3.344
92175SOL    HW178422  12.951   1.109   3.284
92175SOL    HW278423  13.023   0.985   3.333
92176SOL     OW78424   9.457   8.755   7.852
92176SOL    HW178425   9.407   8.688   7.803
92176SOL    HW278426   9.393   8.792   7.913
92177SOL     OW78427  11.512  10.815  12.481
92177SOL    HW178428  11.429  10.771  12.466
92177SOL    HW278429  11.501  10.860  12.564
92178SOL     OW78430   3.719   1.389   6.345
92178SOL    HW178431   3.739   1.311   6.295
92178SOL    HW278432   3.785   1.453   6.317
92179SOL     OW78433   2.290  14.785   7.096
92179SOL    HW178434   2.364  14.792   7.037
92179SOL    HW278435   2.329  14.776   7.183
92180SOL     OW78436   6.648  13.892   2.682
92180SOL    HW178437   6.739  13.874   2.709
92180SOL    HW278438   6.598  13.888   2.763
92181SOL     OW78439  13.783   1.394  14.309
92181SOL    HW178440  13.735   1.464  14.264
92181SOL    HW278441  13.863   1.382  14.258
92182SOL     OW78442   4.287  10.640  14.554
92182SOL    HW178443   4.245  10.686  14.626
92182SOL    HW278444   4.309  10.709  14.491
92183SOL     OW78445   1.821   2.001  13.195
92183SOL    HW178446   1.766   2.053  13.137
92183SOL    HW278447   1.766   1.982  13.271
92184SOL     OW78448   6.327  12.860  12.907
92184SOL    HW178449   6.275  12.929  12.947
92184SOL    HW278450   6.263  12.802  12.865
92185SOL     OW78451   6.889   0.465   5.633
92185SOL    HW178452   6.970   0.504   5.603
92185SOL    HW278453   6.847   0.533   5.685
92186SOL     OW78454   7.166   3.883   0.357
92186SOL    HW178455   7.197   3.945   0.291
92186SOL    HW278456   7.105   3.933   0.411
92187SOL     OW78457   6.732   0.524  10.390
92187SOL    HW178458   6.696   0.440  10.420
92187SOL    HW278459   6.654   0.579  10.375
92188SOL     OW78460   9.759   8.354   5.917
92188SOL    HW178461   9.682   8.346   5.973
92188SOL    HW278462   9.830   8.378   5.976
92189SOL     OW78463   2.161  11.683  10.502
92189SOL    HW178464   2.237  11.725  10.460
92189SOL    HW278465   2.086  11.737  10.475
92190SOL     OW78466   2.343  11.362   4.158
92190SOL    HW178467   2.341  11.347   4.253
92190SOL    HW278468   2.295  11.288   4.121
92191SOL     OW78469   9.569   5.033   7.103
92191SOL    HW178470   9.591   5.116   7.060
92191SOL    HW278471   9.565   4.969   7.032
92192SOL     OW78472   0.172   6.259   1.505
92192SOL    HW178473   0.146   6.300   1.588
92192SOL    HW278474   0.260   6.225   1.521
92193SOL     OW78475  14.633   9.272   7.936
92193SOL    HW178476  14.701   9.211   7.908
92193SOL    HW278477  14.681   9.346   7.974
92194SOL     OW78478   0.069  13.274   9.181
92194SOL    HW178479   0.155  13.268   9.142
92194SOL    HW278480   0.069  13.357   9.229
92195SOL     OW78481  13.331   4.558  11.623
92195SOL    HW178482  13.272   4.600  11.686
92195SOL    HW278483  13.356   4.476  11.666
92196SOL     OW78484   9.042   3.358   9.352
92196SOL    HW178485   8.971   3.404   9.308
92196SOL    HW278486   9.000   3.308   9.422
92197SOL     OW78487  11.300  10.543   6.562
92197SOL    HW178488  11.214  10.504   6.549
92197SOL    HW278489  11.282  10.634   6.587
92198SOL     OW78490  13.888   2.608   3.054
92198SOL    HW178491  13.818   2.670   3.033
92198SOL    HW278492  13.864   2.574   3.140
92199SOL     OW78493   3.748   7.824   4.686
92199SOL    HW178494   3.727   7.762   4.616
92199SOL    HW278495   3.843   7.819   4.695
92200SOL     OW78496  12.146  14.092   8.867
92200SOL    HW178497  12.138  14.021   8.931
92200SOL    HW278498  12.075  14.077   8.805
92201SOL     OW78499  14.071   1.759  11.014
92201SOL    HW178500  14.109   1.835  11.057
92201SOL    HW278501  14.044   1.701  11.085
92202SOL     OW78502   4.488   6.201  11.379
92202SOL    HW178503   4.409   6.175  11.427
92202SOL    HW278504   4.456   6.260  11.311
92203SOL     OW78505   6.544   3.470  12.125
92203SOL    HW178506   6.536   3.446  12.032
92203SOL    HW278507   6.496   3.552  12.133
92204SOL     OW78508  12.243   6.182  12.285
92204SOL    HW178509  12.295   6.262  12.292
92204SOL    HW278510  12.164   6.209  12.239
92205SOL     OW78511  12.875  14.624  13.927
92205SOL    HW178512  12.820  14.618  14.005
92205SOL    HW278513  12.934  14.697  13.945
92206SOL     OW78514   8.150  10.633  13.276
92206SOL    HW178515   8.066  10.679  13.265
92206SOL    HW278516   8.201  10.690  13.333
92207SOL     OW78517   5.977   0.267  10.683
92207SOL    HW178518   5.915   0.214  10.732
92207SOL    HW278519   6.010   0.330  10.747
92208SOL     OW78520   8.476  10.195  13.143
92208SOL    HW178521   8.409  10.169  13.206
92208SOL    HW278522   8.476  10.123  13.079
92209SOL     OW78523   7.574  10.848   4.581
92209SOL    HW178524   7.487  10.831   4.544
92209SOL    HW278525   7.627  10.773   4.554
92210SOL     OW78526   9.675  11.329   7.494
92210SOL    HW178527   9.647  11.380   7.418
92210SOL    HW278528   9.687  11.394   7.563
92211SOL     OW78529  14.110   3.303  10.626
92211SOL    HW178530  14.111   3.351  10.543
92211SOL    HW278531  14.123   3.370  10.693
92212SOL     OW78532   9.985   8.193   1.939
92212SOL    HW178533   9.895   8.219   1.919
92212SOL    HW278534   9.997   8.111   1.890
92213SOL     OW78535  10.115   1.902  10.124
92213SOL    HW178536  10.205   1.902  10.091
92213SOL    HW278537  10.069   1.963  10.067
92214SOL     OW78538  12.524   7.767   2.926
92214SOL    HW178539  12.559   7.804   2.845
92214SOL    HW278540  12.563   7.820   2.996
92215SOL     OW78541  12.036   3.508   5.482
92215SOL    HW178542  12.033   3.415   5.459
92215SOL    HW278543  12.025   3.510   5.577
92216SOL     OW78544   5.093  10.357   0.654
92216SOL    HW178545   5.109  10.277   0.603
92216SOL    HW278546   5.146  10.346   0.733
92217SOL     OW78547   6.218  12.195   6.932
92217SOL    HW178548   6.150  12.149   6.981
92217SOL    HW278549   6.203  12.287   6.950
92218SOL     OW78550   0.406   6.176   8.674
92218SOL    HW178551   0.447   6.118   8.610
92218SOL    HW278552   0.440   6.146   8.758
92219SOL     OW78553   3.982  13.977   0.567
92219SOL    HW178554   3.912  13.918   0.538
92219SOL    HW278555   4.016  13.936   0.646
92220SOL     OW78556   3.200  11.241  14.851
92220SOL    HW178557   3.210  11.223  14.758
92220SOL    HW278558   3.168  11.331  14.855
92221SOL     OW78559   2.702  12.231   3.060
92221SOL    HW178560   2.634  12.187   3.112
92221SOL    HW278561   2.755  12.277   3.126
92222SOL     OW78562   7.865   6.520  10.638
92222SOL    HW178563   7.923   6.589  10.606
92222SOL    HW278564   7.817   6.491  10.560
92223SOL     OW78565   0.424  10.703   9.585
92223SOL    HW178566   0.333  10.730   9.572
92223SOL    HW278567   0.471  10.742   9.511
92224SOL     OW78568   1.191   3.084   6.530
92224SOL    HW178569   1.179   2.989   6.535
92224SOL    HW278570   1.286   3.097   6.534
92225SOL     OW78571   6.622  12.566  13.931
92225SOL    HW178572   6.544  12.586  13.983
92225SOL    HW278573   6.616  12.473  13.912
92226SOL     OW78574   0.297   7.713  11.885
92226SOL    HW178575   0.312   7.626  11.849
92226SOL    HW278576   0.202   7.725  11.880
92227SOL     OW78577   4.985   8.768  14.777
92227SOL    HW178578   4.963   8.688  14.825
92227SOL    HW278579   4.924   8.769  14.703
92228SOL     OW78580   8.748   1.389   0.513
92228SOL    HW178581   8.761   1.478   0.479
92228SOL    HW278582   8.798   1.333   0.454
92229SOL     OW78583   7.809   3.015  11.342
92229SOL    HW178584   7.805   3.075  11.268
92229SOL    HW278585   7.860   2.941  11.311
92230SOL     OW78586   6.136   9.143   1.149
92230SOL    HW178587   6.133   9.088   1.227
92230SOL    HW278588   6.217   9.117   1.104
92231SOL     OW78589   2.008   5.719   3.128
92231SOL    HW178590   2.064   5.737   3.204
92231SOL    HW278591   1.920   5.716   3.164
92232SOL     OW78592   1.241  14.321   1.740
92232SOL    HW178593   1.304  14.344   1.672
92232SOL    HW278594   1.155  14.332   1.698
92233SOL     OW78595   9.114   9.865   4.634
92233SOL    HW178596   9.173   9.880   4.560
92233SOL    HW278597   9.028   9.855   4.594
92234SOL     OW78598  11.066  13.941   5.050
92234SOL    HW178599  10.987  13.985   5.082
92234SOL    HW278600  11.069  13.859   5.100
92235SOL     OW78601   2.250   9.679   0.786
92235SOL    HW178602   2.182   9.737   0.753
92235SOL    HW278603   2.204   9.599   0.812
92236SOL     OW78604   0.999   6.639  10.880
92236SOL    HW178605   1.025   6.556  10.920
92236SOL    HW278606   0.917   6.662  10.924
92237SOL     OW78607  10.739   9.783  12.118
92237SOL    HW178608  10.723   9.868  12.077
92237SOL    HW278609  10.652   9.752  12.143
92238SOL     OW78610   6.327   3.624  11.990
92238SOL    HW178611   6.291   3.702  12.032
92238SOL    HW278612   6.363   3.655  11.908
92239SOL     OW78613   4.249   0.183  13.109
92239SOL    HW178614   4.254   0.277  13.129
92239SOL    HW278615   4.157   0.169  13.086
92240SOL     OW78616  10.620   3.290  13.590
92240SOL    HW178617  10.686   3.358  13.581
92240SOL    HW278618  10.568   3.318  13.667
92241SOL     OW78619   2.818   4.076  14.279
92241SOL    HW178620   2.850   4.081  14.369
92241SOL    HW278621   2.837   3.986  14.252
92242SOL     OW78622  11.576  10.882   4.586
92242SOL    HW178623  11.552  10.962   4.633
92242SOL    HW278624  11.664  10.861   4.617
92243SOL     OW78625   1.055   1.799   6.799
92243SOL    HW178626   1.114   1.874   6.788
92243SOL    HW278627   0.989   1.829   6.862
92244SOL     OW78628   8.899   6.208  10.405
92244SOL    HW178629   8.904   6.215  10.310
92244SOL    HW278630   8.886   6.115  10.422
92245SOL     OW78631   0.912   8.096   3.515
92245SOL    HW178632   0.852   8.033   3.554
92245SOL    HW278633   0.941   8.055   3.433
92246SOL     OW78634   3.207  13.735   0.169
92246SOL    HW178635   3.116  13.758   0.151
92246SOL    HW278636   3.244  13.814   0.209
92247SOL     OW78637   0.309   6.263   8.937
92247SOL    HW178638   0.247   6.265   8.863
92247SOL    HW278639   0.292   6.344   8.985
92248SOL     OW78640   7.343   5.166   8.994
92248SOL    HW178641   7.274   5.100   8.995
92248SOL    HW278642   7.323   5.221   8.918
92249SOL     OW78643   3.423   2.538  13.354
92249SOL    HW178644   3.471   2.503  13.279
92249SOL    HW278645   3.341   2.489  13.356
92250SOL     OW78646   4.794  10.120  10.080
92250SOL    HW178647   4.856  10.092  10.148
92250SOL    HW278648   4.715  10.070  10.098
92251SOL     OW78649   1.941  13.226   0.664
92251SOL    HW178650   1.926  13.204   0.572
92251SOL    HW278651   1.899  13.156   0.713
92252SOL     OW78652   7.639   2.657   3.308
92252SOL    HW178653   7.675   2.583   3.357
92252SOL    HW278654   7.715   2.713   3.289
92253SOL     OW78655   7.894  12.831   1.138
92253SOL    HW178656   7.989  12.833   1.130
92253SOL    HW278657   7.868  12.753   1.088
92254SOL     OW78658  11.092   3.802  11.759
92254SOL    HW178659  11.001   3.777  11.777
92254SOL    HW278660  11.087   3.856  11.680
92255SOL     OW78661   6.722  14.800  12.091
92255SOL    HW178662   6.649  14.747  12.060
92255SOL    HW278663   6.794  14.780  12.031
92256SOL     OW78664   4.666   1.257  14.370
92256SOL    HW178665   4.737   1.284  14.428
92256SOL    HW278666   4.614   1.197  14.423
92257SOL     OW78667   3.316   1.569   9.571
92257SOL    HW178668   3.393   1.513   9.571
92257SOL    HW278669   3.307   1.597   9.480
92258SOL     OW78670   5.724   9.479   4.658
92258SOL    HW178671   5.756   9.388   4.654
92258SOL    HW278672   5.784   9.522   4.719
92259SOL     OW78673  10.733  12.686  12.234
92259SOL    HW178674  10.665  12.627  12.200
92259SOL    HW278675  10.812  12.633  12.234
92260SOL     OW78676   8.850  13.242  10.175
92260SOL    HW178677   8.869  13.172  10.238
92260SOL    HW278678   8.889  13.320  10.215
92261SOL     OW78679  13.202  12.675   1.031
92261SOL    HW178680  13.253  12.756   1.033
92261SOL    HW278681  13.237  12.627   0.956
92262SOL     OW78682   4.461  10.223   2.935
92262SOL    HW178683   4.518  10.157   2.896
92262SOL    HW278684   4.437  10.187   3.021
92263SOL     OW78685   6.134   6.174  13.291
92263SOL    HW178686   6.135   6.257  13.242
92263SOL    HW278687   6.206   6.183  13.354
92264SOL     OW78688  14.807   6.609   7.292
92264SOL    HW178689  14.866   6.670   7.337
92264SOL    HW278690  14.861   6.571   7.222
92265SOL     OW78691   4.768  11.326   0.027
92265SOL    HW178692   4.780  11.252   0.086
92265SOL    HW278693   4.773  11.289  14.807
92266SOL     OW78694  11.655   3.949   1.877
92266SOL    HW178695  11.721   3.900   1.828
92266SOL    HW278696  11.605   3.995   1.810
92267SOL     OW78697   0.944   1.585   7.853
92267SOL    HW178698   0.864   1.633   7.830
92267SOL    HW278699   0.937   1.503   7.806
92268SOL     OW78700  12.570   7.428   4.805
92268SOL    HW178701  12.509   7.357   4.786
92268SOL    HW278702  12.525   7.507   4.773
92269SOL     OW78703   8.265   8.982   5.079
92269SOL    HW178704   8.312   9.066   5.074
92269SOL    HW278705   8.321   8.920   5.032
92270SOL     OW78706   9.016  11.727   6.919
92270SOL    HW178707   9.015  11.782   6.841
92270SOL    HW278708   8.923  11.718   6.943
92271SOL     OW78709  12.363   1.581  13.557
92271SOL    HW178710  12.329   1.625  13.635
92271SOL    HW278711  12.446   1.543  13.587
92272SOL     OW78712   1.417   9.471   5.850
92272SOL    HW178713   1.479   9.437   5.914
92272SOL    HW278714   1.469   9.492   5.773
92273SOL     OW78715   1.879  10.984   5.038
92273SOL    HW178716   1.803  10.961   5.092
92273SOL    HW278717   1.900  10.904   4.990
92274SOL     OW78718  13.086   1.045   9.897
92274SOL    HW178719  13.105   0.963   9.852
92274SOL    HW278720  13.168   1.068   9.940
92275SOL     OW78721   5.482   1.455  12.457
92275SOL    HW178722   5.559   1.511  12.466
92275SOL    HW278723   5.490   1.417  12.369
92276SOL     OW78724   2.906  10.715  14.150
92276SOL    HW178725   2.997  10.695  14.131
92276SOL    HW278726   2.871  10.751  14.068
92277SOL     OW78727  10.231   3.037   8.479
92277SOL    HW178728  10.264   3.125   8.459
92277SOL    HW278729  10.136   3.044   8.467
92278SOL     OW78730   0.191   2.142   3.280
92278SOL    HW178731   0.254   2.121   3.350
92278SOL    HW278732   0.224   2.224   3.243
92279SOL     OW78733   5.575  12.983   2.681
92279SOL    HW178734   5.554  13.076   2.689
92279SOL    HW278735   5.531  12.941   2.755
92280SOL     OW78736   3.231   9.992   5.170
92280SOL    HW178737   3.275   9.910   5.194
92280SOL    HW278738   3.222   9.987   5.075
92281SOL     OW78739  10.260   2.966   3.038
92281SOL    HW178740  10.189   3.026   3.016
92281SOL    HW278741  10.331   2.988   2.977
92282SOL     OW78742   4.815   9.969   7.822
92282SOL    HW178743   4.764   9.990   7.900
92282SOL    HW278744   4.822  10.053   7.775
92283SOL     OW78745  11.715   6.558   2.923
92283SOL    HW178746  11.727   6.634   2.866
92283SOL    HW278747  11.740   6.589   3.010
92284SOL     OW78748   0.151   2.980   3.116
92284SOL    HW178749   0.092   3.054   3.099
92284SOL    HW278750   0.092   2.905   3.130
92285SOL     OW78751   8.179   3.024   8.206
92285SOL    HW178752   8.261   3.061   8.238
92285SOL    HW278753   8.198   2.995   8.117
92286SOL     OW78754   0.491   6.527   0.370
92286SOL    HW178755   0.482   6.554   0.461
92286SOL    HW278756   0.498   6.609   0.321
92287SOL     OW78757   9.686  12.331   5.505
92287SOL    HW178758   9.661  12.304   5.593
92287SOL    HW278759   9.753  12.268   5.478
92288SOL     OW78760   8.242   1.119  11.789
92288SOL    HW178761   8.149   1.107  11.771
92288SOL    HW278762   8.248   1.208  11.824
92289SOL     OW78763   7.938   7.685   6.907
92289SOL    HW178764   8.021   7.640   6.921
92289SOL    HW278765   7.894   7.635   6.838
92290SOL     OW78766   1.863   3.835   2.395
92290SOL    HW178767   1.774   3.868   2.405
92290SOL    HW278768   1.913   3.911   2.363
92291SOL     OW78769   8.659   7.738   6.817
92291SOL    HW178770   8.701   7.743   6.903
92291SOL    HW278771   8.666   7.646   6.792
92292SOL     OW78772   7.555  14.499   7.055
92292SOL    HW178773   7.632  14.549   7.027
92292SOL    HW278774   7.564  14.493   7.151
92293SOL     OW78775   8.785   8.641   4.837
92293SOL    HW178776   8.736   8.642   4.919
92293SOL    HW278777   8.722   8.613   4.771
92294SOL     OW78778  12.875  14.019   9.417
92294SOL    HW178779  12.890  13.990   9.327
92294SOL    HW278780  12.786  13.990   9.437
92295SOL     OW78781   5.257  14.719  14.259
92295SOL    HW178782   5.188  14.690  14.199
92295SOL    HW278783   5.308  14.640  14.277
92296SOL     OW78784   5.045   0.398   8.437
92296SOL    HW178785   5.064   0.306   8.455
92296SOL    HW278786   5.127   0.433   8.401
92297SOL     OW78787   6.913   3.199  12.110
92297SOL    HW178788   6.963   3.215  12.029
92297SOL    HW278789   6.821   3.207  12.083
92298SOL     OW78790   4.543   0.791   2.235
92298SOL    HW178791   4.455   0.756   2.245
92298SOL    HW278792   4.545   0.869   2.289
92299SOL     OW78793   7.263  13.721   8.342
92299SOL    HW178794   7.353  13.748   8.358
92299SOL    HW278795   7.258  13.632   8.378
92300SOL     OW78796   7.964   3.560   1.299
92300SOL    HW178797   7.941   3.559   1.206
92300SOL    HW278798   7.915   3.633   1.336
92301SOL     OW78799   5.374   5.972   8.915
92301SOL    HW178800   5.304   6.028   8.883
92301SOL    HW278801   5.433   6.031   8.961
92302SOL     OW78802   2.095  14.019   8.071
92302SOL    HW178803   2.129  14.049   7.987
92302SOL    HW278804   2.017  14.073   8.086
92303SOL     OW78805   3.741   0.004   2.180
92303SOL    HW178806   3.650  14.845   2.186
92303SOL    HW278807   3.757   0.051   2.262
92304SOL     OW78808  13.379  12.264   5.675
92304SOL    HW178809  13.363  12.171   5.693
92304SOL    HW278810  13.414  12.265   5.586
92305SOL     OW78811  11.319   0.360   3.446
92305SOL    HW178812  11.327   0.280   3.497
92305SOL    HW278813  11.272   0.421   3.503
92306SOL     OW78814  10.771  12.704   3.826
92306SOL    HW178815  10.837  12.679   3.890
92306SOL    HW278816  10.814  12.693   3.741
92307SOL     OW78817  12.265  14.621  14.505
92307SOL    HW178818  12.226  14.709  14.513
92307SOL    HW278819  12.205  14.564  14.554
92308SOL     OW78820   6.282   1.394   0.527
92308SOL    HW178821   6.301   1.469   0.470
92308SOL    HW278822   6.350   1.330   0.506
92309SOL     OW78823   7.782   1.226   3.791
92309SOL    HW178824   7.809   1.314   3.765
92309SOL    HW278825   7.690   1.237   3.816
92310SOL     OW78826  13.830   1.924   0.854
92310SOL    HW178827  13.745   1.900   0.817
92310SOL    HW278828  13.818   1.915   0.948
92311SOL     OW78829   2.535   5.697   0.206
92311SOL    HW178830   2.481   5.757   0.154
92311SOL    HW278831   2.560   5.628   0.145
92312SOL     OW78832   6.624   1.382   9.455
92312SOL    HW178833   6.671   1.305   9.423
92312SOL    HW278834   6.675   1.411   9.531
92313SOL     OW78835  14.811   7.190  10.777
92313SOL    HW178836  14.788   7.174  10.869
92313SOL    HW278837   0.038   7.200  10.778
92314SOL     OW78838   9.210  13.278   0.563
92314SOL    HW178839   9.115  13.267   0.564
92314SOL    HW278840   9.244  13.193   0.589
92315SOL     OW78841  12.533   4.476  12.439
92315SOL    HW178842  12.515   4.544  12.375
92315SOL    HW278843  12.581   4.409  12.390
92316SOL     OW78844   4.651  12.206   8.465
92316SOL    HW178845   4.728  12.257   8.490
92316SOL    HW278846   4.675  12.115   8.486
92317SOL     OW78847   7.952   6.652   5.991
92317SOL    HW178848   7.879   6.712   6.008
92317SOL    HW278849   8.030   6.706   6.001
92318SOL     OW78850   2.122   4.243   6.385
92318SOL    HW178851   2.156   4.174   6.443
92318SOL    HW278852   2.029   4.221   6.375
92319SOL     OW78853   3.606   3.708  11.768
92319SOL    HW178854   3.609   3.744  11.857
92319SOL    HW278855   3.689   3.734  11.729
92320SOL     OW78856  13.312   0.589  13.353
92320SOL    HW178857  13.255   0.664  13.337
92320SOL    HW278858  13.263   0.534  13.414
92321SOL     OW78859   0.939   3.315   4.227
92321SOL    HW178860   0.960   3.390   4.283
92321SOL    HW278861   0.850   3.331   4.198
92322SOL     OW78862   2.343   8.844   0.419
92322SOL    HW178863   2.253   8.820   0.443
92322SOL    HW278864   2.346   8.833   0.324
92323SOL     OW78865   6.512   3.404   9.514
92323SOL    HW178866   6.590   3.380   9.565
92323SOL    HW278867   6.533   3.490   9.478
92324SOL     OW78868   2.314   2.140  13.631
92324SOL    HW178869   2.330   2.197  13.706
92324SOL    HW278870   2.225   2.160  13.604
92325SOL     OW78871  14.752  12.673   2.995
92325SOL    HW178872  14.806  12.632   2.927
92325SOL    HW278873  14.804  12.749   3.024
92326SOL     OW78874  13.007   4.214  11.614
92326SOL    HW178875  12.973   4.131  11.579
92326SOL    HW278876  13.090   4.190  11.655
92327SOL     OW78877  13.824   7.260  12.811
92327SOL    HW178878  13.882   7.336  12.813
92327SOL    HW278879  13.879   7.187  12.836
92328SOL     OW78880  14.316   7.943   2.916
92328SOL    HW178881  14.352   7.995   2.845
92328SOL    HW278882  14.375   7.868   2.924
92329SOL     OW78883   9.950   4.598   4.766
92329SOL    HW178884  10.007   4.532   4.727
92329SOL    HW278885   9.901   4.634   4.692
92330SOL     OW78886   9.755   8.716   2.342
92330SOL    HW178887   9.741   8.793   2.398
92330SOL    HW278888   9.667   8.682   2.327
92331SOL     OW78889  13.153   8.336   5.871
92331SOL    HW178890  13.094   8.302   5.938
92331SOL    HW278891  13.241   8.316   5.904
92332SOL     OW78892   3.545   1.820   7.845
92332SOL    HW178893   3.567   1.727   7.836
92332SOL    HW278894   3.506   1.844   7.761
92333SOL     OW78895  12.720  10.641   3.340
92333SOL    HW178896  12.762  10.605   3.418
92333SOL    HW278897  12.684  10.725   3.370
92334SOL     OW78898   2.365  10.063   7.317
92334SOL    HW178899   2.385  10.025   7.231
92334SOL    HW278900   2.448  10.102   7.346
92335SOL     OW78901   8.042   4.212   2.828
92335SOL    HW178902   8.131   4.242   2.847
92335SOL    HW278903   7.987   4.288   2.848
92336SOL     OW78904  14.789  13.038   1.332
92336SOL    HW178905  14.772  13.117   1.281
92336SOL    HW278906  14.714  13.030   1.390
92337SOL     OW78907  11.622   7.113   5.781
92337SOL    HW178908  11.698   7.163   5.753
92337SOL    HW278909  11.597   7.152   5.865
92338SOL     OW78910   6.048  12.528   6.526
92338SOL    HW178911   6.070  12.500   6.437
92338SOL    HW278912   6.131  12.553   6.566
92339SOL     OW78913   3.704   6.024   7.113
92339SOL    HW178914   3.684   5.967   7.188
92339SOL    HW278915   3.800   6.026   7.110
92340SOL     OW78916   4.659  13.964   4.291
92340SOL    HW178917   4.737  13.929   4.247
92340SOL    HW278918   4.694  14.008   4.369
92341SOL     OW78919  11.126  13.819   9.975
92341SOL    HW178920  11.151  13.753  10.040
92341SOL    HW278921  11.105  13.897  10.025
92342SOL     OW78922   2.406  12.367   0.988
92342SOL    HW178923   2.487  12.322   0.964
92342SOL    HW278924   2.419  12.390   1.080
92343SOL     OW78925  13.703   3.291  11.115
92343SOL    HW178926  13.658   3.215  11.152
92343SOL    HW278927  13.633   3.355  11.099
92344SOL     OW78928   8.553  12.434   0.991
92344SOL    HW178929   8.617  12.501   1.015
92344SOL    HW278930   8.541  12.381   1.070
92345SOL     OW78931  11.707  14.480   7.709
92345SOL    HW178932  11.757  14.491   7.790
92345SOL    HW278933  11.743  14.401   7.669
92346SOL     OW78934   4.668   7.624   5.024
92346SOL    HW178935   4.758   7.654   5.032
92346SOL    HW278936   4.641   7.601   5.113
92347SOL     OW78937  14.271  12.681   3.819
92347SOL    HW178938  14.178  12.681   3.796
92347SOL    HW278939  14.304  12.596   3.788
92348SOL     OW78940  14.405   8.188   5.417
92348SOL    HW178941  14.313   8.177   5.395
92348SOL    HW278942  14.450   8.182   5.333
92349SOL     OW78943   9.885   6.664  12.568
92349SOL    HW178944   9.882   6.623  12.482
92349SOL    HW278945   9.851   6.752  12.554
92350SOL     OW78946  10.234   2.209   7.349
92350SOL    HW178947  10.174   2.208   7.424
92350SOL    HW278948  10.178   2.199   7.273
92351SOL     OW78949  11.211   7.426   5.653
92351SOL    HW178950  11.304   7.401   5.653
92351SOL    HW278951  11.201   7.479   5.574
92352SOL     OW78952   9.389   5.799   8.355
92352SOL    HW178953   9.427   5.711   8.353
92352SOL    HW278954   9.343   5.807   8.272
92353SOL     OW78955  10.168  10.279  11.196
92353SOL    HW178956  10.141  10.363  11.159
92353SOL    HW278957  10.248  10.256  11.149
92354SOL     OW78958   6.071   1.096   7.528
92354SOL    HW178959   6.122   1.079   7.607
92354SOL    HW278960   6.025   1.014   7.511
92355SOL     OW78961  13.256  14.318   2.308
92355SOL    HW178962  13.330  14.274   2.350
92355SOL    HW278963  13.196  14.337   2.380
92356SOL     OW78964  11.222  14.670   5.300
92356SOL    HW178965  11.284  14.736   5.329
92356SOL    HW278966  11.187  14.632   5.381
92357SOL     OW78967   3.523   4.540  13.192
92357SOL    HW178968   3.440   4.568  13.153
92357SOL    HW278969   3.589   4.576  13.134
92358SOL     OW78970  10.637  10.996   6.685
92358SOL    HW178971  10.663  11.038   6.602
92358SOL    HW278972  10.717  10.954   6.717
92359SOL     OW78973   3.844  12.353   8.728
92359SOL    HW178974   3.920  12.325   8.677
92359SOL    HW278975   3.792  12.274   8.739
92360SOL     OW78976   9.865   2.621  14.362
92360SOL    HW178977   9.830   2.710  14.375
92360SOL    HW278978   9.923   2.608  14.437
92361SOL     OW78979   4.468  13.073  11.247
92361SOL    HW178980   4.394  13.088  11.306
92361SOL    HW278981   4.459  12.982  11.220
92362SOL     OW78982  12.953   3.378   7.065
92362SOL    HW178983  12.934   3.352   7.156
92362SOL    HW278984  12.903   3.317   7.012
92363SOL     OW78985  14.867   7.324   2.908
92363SOL    HW178986  14.800   7.306   2.843
92363SOL    HW278987   0.070   7.365   2.858
92364SOL     OW78988   1.731   4.633   0.188
92364SOL    HW178989   1.728   4.591   0.274
92364SOL    HW278990   1.671   4.707   0.195
92365SOL     OW78991   2.897   0.390   2.515
92365SOL    HW178992   2.885   0.300   2.546
92365SOL    HW278993   2.988   0.410   2.536
92366SOL     OW78994   1.454   2.426   0.435
92366SOL    HW178995   1.527   2.483   0.458
92366SOL    HW278996   1.474   2.396   0.347
92367SOL     OW78997   0.391  13.093  12.136
92367SOL    HW178998   0.328  13.075  12.206
92367SOL    HW278999   0.476  13.067  12.173
92368SOL     OW79000   8.051   0.032   2.517
92368SOL    HW179001   8.060  14.810   2.548
92368SOL    HW279002   8.087   0.086   2.587
92369SOL     OW79003   0.779   7.376  10.538
92369SOL    HW179004   0.753   7.440  10.605
92369SOL    HW279005   0.741   7.410  10.457
92370SOL     OW79006   1.196   1.259   7.092
92370SOL    HW179007   1.106   1.284   7.074
92370SOL    HW279008   1.248   1.300   7.023
92371SOL     OW79009  10.566  12.113  14.662
92371SOL    HW179010  10.528  12.125  14.575
92371SOL    HW279011  10.492  12.126  14.722
92372SOL     OW79012  13.036  10.216   1.218
92372SOL    HW179013  12.952  10.259   1.234
92372SOL    HW279014  13.017  10.151   1.150
92373SOL     OW79015   9.841   0.165   6.668
92373SOL    HW179016   9.882   0.080   6.683
92373SOL    HW279017   9.807   0.190   6.754
92374SOL     OW79018   6.500   4.377  10.558
92374SOL    HW179019   6.582   4.371  10.509
92374SOL    HW279020   6.439   4.321  10.510
92375SOL     OW79021   4.127   6.369  14.604
92375SOL    HW179022   4.196   6.422  14.564
92375SOL    HW279023   4.056   6.369  14.538
92376SOL     OW79024   8.037   4.734   6.022
92376SOL    HW179025   7.985   4.654   6.025
92376SOL    HW279026   8.096   4.726   6.097
92377SOL     OW79027  14.739   5.527   2.953
92377SOL    HW179028  14.810   5.470   2.922
92377SOL    HW279029  14.663   5.469   2.960
92378SOL     OW79030   5.060  10.812   5.198
92378SOL    HW179031   4.981  10.827   5.250
92378SOL    HW279032   5.032  10.826   5.108
92379SOL     OW79033  13.975  13.156   0.150
92379SOL    HW179034  13.953  13.069   0.118
92379SOL    HW279035  14.019  13.199   0.076
92380SOL     OW79036   5.537   4.344   3.013
92380SOL    HW179037   5.480   4.302   2.948
92380SOL    HW279038   5.523   4.438   3.000
92381SOL     OW79039   1.182  11.569   0.304
92381SOL    HW179040   1.275  11.566   0.282
92381SOL    HW279041   1.149  11.648   0.261
92382SOL     OW79042  10.867   9.442   3.220
92382SOL    HW179043  10.828   9.460   3.134
92382SOL    HW279044  10.827   9.360   3.248
92383SOL     OW79045   4.172   6.734   1.046
92383SOL    HW179046   4.131   6.734   1.132
92383SOL    HW279047   4.169   6.826   1.018
92384SOL     OW79048   2.216  11.422   7.774
92384SOL    HW179049   2.206  11.513   7.800
92384SOL    HW279050   2.219  11.373   7.856
92385SOL     OW79051   2.496   4.371   9.825
92385SOL    HW179052   2.462   4.391   9.912
92385SOL    HW279053   2.539   4.452   9.796
92386SOL     OW79054  11.338  12.178   7.414
92386SOL    HW179055  11.358  12.191   7.507
92386SOL    HW279056  11.257  12.128   7.413
92387SOL     OW79057   9.145  12.111   5.434
92387SOL    HW179058   9.178  12.022   5.445
92387SOL    HW279059   9.103  12.111   5.348
92388SOL     OW79060   8.422   5.752   2.659
92388SOL    HW179061   8.437   5.817   2.728
92388SOL    HW279062   8.406   5.671   2.706
92389SOL     OW79063  10.396   9.948   4.371
92389SOL    HW179064  10.454   9.875   4.349
92389SOL    HW279065  10.379   9.937   4.465
92390SOL     OW79066   0.524   4.626   1.757
92390SOL    HW179067   0.583   4.696   1.786
92390SOL    HW279068   0.557   4.547   1.800
92391SOL     OW79069  11.178  14.648  12.342
92391SOL    HW179070  11.145  14.601  12.265
92391SOL    HW279071  11.161  14.740  12.322
92392SOL     OW79072   4.475  14.102   8.712
92392SOL    HW179073   4.517  14.096   8.626
92392SOL    HW279074   4.436  14.190   8.713
92393SOL     OW79075   9.339   3.960   2.734
92393SOL    HW179076   9.316   3.944   2.643
92393SOL    HW279077   9.256   3.959   2.781
92394SOL     OW79078   7.744   7.142  11.639
92394SOL    HW179079   7.809   7.121  11.572
92394SOL    HW279080   7.784   7.213  11.690
92395SOL     OW79081  12.450   7.250  12.588
92395SOL    HW179082  12.513   7.260  12.517
92395SOL    HW279083  12.399   7.173  12.565
92396SOL     OW79084   2.524   4.664   0.918
92396SOL    HW179085   2.469   4.742   0.925
92396SOL    HW279086   2.504   4.614   0.997
92397SOL     OW79087   7.242   2.278   0.494
92397SOL    HW179088   7.282   2.206   0.544
92397SOL    HW279089   7.232   2.243   0.406
92398SOL     OW79090   5.518   3.356  14.443
92398SOL    HW179091   5.574   3.281  14.421
92398SOL    HW279092   5.578   3.423  14.473
92399SOL     OW79093  10.724   4.427   3.939
92399SOL    HW179094  10.646   4.461   3.982
92399SOL    HW279095  10.691   4.377   3.864
92400SOL     OW79096   6.030  12.249   3.017
92400SOL    HW179097   6.124  12.235   3.032
92400SOL    HW279098   6.006  12.182   2.953
92401SOL     OW79099  13.950   8.087  12.569
92401SOL    HW179100  13.986   8.051  12.650
92401SOL    HW279101  13.858   8.059  12.569
92402SOL     OW79102  10.097  10.721  11.867
92402SOL    HW179103  10.034  10.787  11.838
92402SOL    HW279104  10.102  10.734  11.962
92403SOL     OW79105   2.484   3.455  13.664
92403SOL    HW179106   2.423   3.382  13.652
92403SOL    HW279107   2.448   3.505  13.737
92404SOL     OW79108   1.205  12.860  14.378
92404SOL    HW179109   1.214  12.773  14.341
92404SOL    HW279110   1.113  12.868  14.401
92405SOL     OW79111   1.993   7.051   9.499
92405SOL    HW179112   1.954   7.004   9.425
92405SOL    HW279113   2.071   7.000   9.521
92406SOL     OW79114   4.510  11.676   1.837
92406SOL    HW179115   4.521  11.769   1.858
92406SOL    HW279116   4.451  11.674   1.763
92407SOL     OW79117   2.591  10.868   3.313
92407SOL    HW179118   2.614  10.776   3.297
92407SOL    HW279119   2.559  10.870   3.403
92408SOL     OW79120  10.643   3.785   6.641
92408SOL    HW179121  10.692   3.746   6.569
92408SOL    HW279122  10.703   3.848   6.680
92409SOL     OW79123   6.581   7.050   9.098
92409SOL    HW179124   6.540   7.022   9.016
92409SOL    HW279125   6.507   7.062   9.159
92410SOL     OW79126  12.603  13.839   3.223
92410SOL    HW179127  12.604  13.926   3.262
92410SOL    HW279128  12.621  13.780   3.296
92411SOL     OW79129   2.618  14.500   5.825
92411SOL    HW179130   2.666  14.418   5.831
92411SOL    HW279131   2.663  14.550   5.757
92412SOL     OW79132  10.811   1.295  14.458
92412SOL    HW179133  10.806   1.200  14.459
92412SOL    HW279134  10.894   1.314  14.415
92413SOL     OW79135   3.257   5.025   2.069
92413SOL    HW179136   3.352   5.022   2.066
92413SOL    HW279137   3.230   5.049   1.980
92414SOL     OW79138  10.606   7.536   7.557
92414SOL    HW179139  10.599   7.445   7.529
92414SOL    HW279140  10.535   7.581   7.509
92415SOL     OW79141  10.032   3.040   8.137
92415SOL    HW179142   9.954   3.087   8.167
92415SOL    HW279143  10.005   2.948   8.135
92416SOL     OW79144   6.216  11.117   3.776
92416SOL    HW179145   6.189  11.062   3.703
92416SOL    HW279146   6.192  11.066   3.854
92417SOL     OW79147   3.505  12.014   6.241
92417SOL    HW179148   3.514  12.109   6.238
92417SOL    HW279149   3.415  11.997   6.214
92418SOL     OW79150   0.184  10.640   4.313
92418SOL    HW179151   0.149  10.637   4.224
92418SOL    HW279152   0.279  10.642   4.302
92419SOL     OW79153   2.769  11.053   9.577
92419SOL    HW179154   2.744  11.098   9.496
92419SOL    HW279155   2.864  11.059   9.579
92420SOL     OW79156  13.917   7.271  11.453
92420SOL    HW179157  13.843   7.312  11.498
92420SOL    HW279158  13.989   7.333  11.464
92421SOL     OW79159   5.071   1.686   3.299
92421SOL    HW179160   5.102   1.717   3.213
92421SOL    HW279161   4.993   1.635   3.280
92422SOL     OW79162   9.779   7.765  13.260
92422SOL    HW179163   9.716   7.697  13.238
92422SOL    HW279164   9.725   7.840  13.288
92423SOL     OW79165  12.672  11.183  13.858
92423SOL    HW179166  12.658  11.133  13.938
92423SOL    HW279167  12.679  11.117  13.789
92424SOL     OW79168  12.336   2.165   8.648
92424SOL    HW179169  12.413   2.114   8.674
92424SOL    HW279170  12.295   2.191   8.730
92425SOL     OW79171  12.886   9.913   4.173
92425SOL    HW179172  12.796   9.919   4.204
92425SOL    HW279173  12.883   9.940   4.082
92426SOL     OW79174  13.186   5.263   1.845
92426SOL    HW179175  13.217   5.257   1.754
92426SOL    HW279176  13.092   5.275   1.837
92427SOL     OW79177   1.131   4.751  14.755
92427SOL    HW179178   1.072   4.823  14.729
92427SOL    HW279179   1.219   4.787  14.742
92428SOL     OW79180   5.327   5.862   3.307
92428SOL    HW179181   5.309   5.771   3.282
92428SOL    HW279182   5.240   5.900   3.322
92429SOL     OW79183  11.530   2.937  13.788
92429SOL    HW179184  11.515   2.880  13.712
92429SOL    HW279185  11.508   3.025  13.756
92430SOL     OW79186   0.874  10.407   6.447
92430SOL    HW179187   0.884  10.487   6.397
92430SOL    HW279188   0.811  10.355   6.396
92431SOL     OW79189   9.900   7.217   7.357
92431SOL    HW179190   9.891   7.258   7.443
92431SOL    HW279191   9.949   7.136   7.374
92432SOL     OW79192  13.691   7.948   4.421
92432SOL    HW179193  13.679   7.864   4.465
92432SOL    HW279194  13.648   8.012   4.478
92433SOL     OW79195  13.194   9.901   1.620
92433SOL    HW179196  13.210   9.807   1.626
92433SOL    HW279197  13.197   9.932   1.711
92434SOL     OW79198   2.502   3.982   4.625
92434SOL    HW179199   2.538   3.995   4.713
92434SOL    HW279200   2.518   3.890   4.605
92435SOL     OW79201  12.100   7.048   0.519
92435SOL    HW179202  12.144   6.994   0.454
92435SOL    HW279203  12.088   7.133   0.477
92436SOL     OW79204  14.131  14.031  14.453
92436SOL    HW179205  14.064  14.019  14.520
92436SOL    HW279206  14.166  14.119  14.469
92437SOL     OW79207   7.791   6.834   0.664
92437SOL    HW179208   7.759   6.823   0.575
92437SOL    HW279209   7.856   6.765   0.674
92438SOL     OW79210   0.959   2.134  10.723
92438SOL    HW179211   0.997   2.063  10.774
92438SOL    HW279212   1.034   2.191  10.702
92439SOL     OW79213   2.336   0.686   4.025
92439SOL    HW179214   2.267   0.752   4.013
92439SOL    HW279215   2.296   0.604   3.994
92440SOL     OW79216   3.623   3.215   2.352
92440SOL    HW179217   3.666   3.157   2.415
92440SOL    HW279218   3.688   3.226   2.282
92441SOL     OW79219   4.496   7.221   1.541
92441SOL    HW179220   4.512   7.256   1.454
92441SOL    HW279221   4.583   7.208   1.578
92442SOL     OW79222  13.103  10.851  12.092
92442SOL    HW179223  13.067  10.910  12.026
92442SOL    HW279224  13.195  10.840  12.067
92443SOL     OW79225   5.853  11.091   2.116
92443SOL    HW179226   5.802  11.153   2.167
92443SOL    HW279227   5.808  11.086   2.032
92444SOL     OW79228  14.220   6.033   0.592
92444SOL    HW179229  14.203   6.117   0.549
92444SOL    HW279230  14.279   5.987   0.533
92445SOL     OW79231   5.528   5.268  11.952
92445SOL    HW179232   5.516   5.297  11.862
92445SOL    HW279233   5.476   5.329  12.004
92446SOL     OW79234   6.283   0.807   7.490
92446SOL    HW179235   6.367   0.779   7.454
92446SOL    HW279236   6.303   0.889   7.535
92447SOL     OW79237   7.100   9.235   1.231
92447SOL    HW179238   7.092   9.330   1.236
92447SOL    HW279239   7.125   9.208   1.320
92448SOL     OW79240   3.355  11.702  10.501
92448SOL    HW179241   3.415  11.631  10.476
92448SOL    HW279242   3.408  11.782  10.493
92449SOL     OW79243   7.155   0.032   2.371
92449SOL    HW179244   7.208   0.025   2.291
92449SOL    HW279245   7.101  14.822   2.370
92450SOL     OW79246   0.727  11.382   7.309
92450SOL    HW179247   0.789  11.332   7.362
92450SOL    HW279248   0.687  11.443   7.371
92451SOL     OW79249  11.397   9.597  13.039
92451SOL    HW179250  11.342   9.673  13.021
92451SOL    HW279251  11.429   9.611  13.128
92452SOL     OW79252  11.503   7.338   7.762
92452SOL    HW179253  11.575   7.400   7.771
92452SOL    HW279254  11.541   7.253   7.784
92453SOL     OW79255   3.173   7.934   0.643
92453SOL    HW179256   3.262   7.966   0.629
92453SOL    HW279257   3.176   7.891   0.728
92454SOL     OW79258  12.201  11.624   6.797
92454SOL    HW179259  12.265  11.637   6.866
92454SOL    HW279260  12.218  11.536   6.764
92455SOL     OW79261   0.277  14.741   1.222
92455SOL    HW179262   0.207  14.750   1.156
92455SOL    HW279263   0.298  14.831   1.246
92456SOL     OW79264   3.178  12.711   6.275
92456SOL    HW179265   3.087  12.710   6.304
92456SOL    HW279266   3.226  12.664   6.343
92457SOL     OW79267   0.339  13.901   2.031
92457SOL    HW179268   0.255  13.945   2.016
92457SOL    HW279269   0.347  13.838   1.960
92458SOL     OW79270  12.088  14.687   9.960
92458SOL    HW179271  12.061  14.597   9.943
92458SOL    HW279272  12.025  14.719  10.025
92459SOL     OW79273   8.981   2.345   0.998
92459SOL    HW179274   8.913   2.397   0.957
92459SOL    HW279275   8.987   2.379   1.087
92460SOL     OW79276   1.341   4.991   0.387
92460SOL    HW179277   1.264   4.961   0.436
92460SOL    HW279278   1.371   5.068   0.435
92461SOL     OW79279  14.063   5.143   4.873
92461SOL    HW179280  14.104   5.202   4.936
92461SOL    HW279281  13.971   5.168   4.874
92462SOL     OW79282  10.503  12.476  14.052
92462SOL    HW179283  10.474  12.546  13.993
92462SOL    HW279284  10.593  12.459  14.026
92463SOL     OW79285  12.104   9.322   1.899
92463SOL    HW179286  12.014   9.328   1.932
92463SOL    HW279287  12.138   9.411   1.907
92464SOL     OW79288  12.387  11.093   2.844
92464SOL    HW179289  12.394  11.034   2.770
92464SOL    HW279290  12.296  11.122   2.844
92465SOL     OW79291  11.967  14.283   3.203
92465SOL    HW179292  12.045  14.337   3.192
92465SOL    HW279293  11.998  14.193   3.189
92466SOL     OW79294   1.692   7.302   7.624
92466SOL    HW179295   1.757   7.242   7.587
92466SOL    HW279296   1.654   7.345   7.547
92467SOL     OW79297   2.180   5.564  14.774
92467SOL    HW179298   2.151   5.651  14.748
92467SOL    HW279299   2.197   5.518  14.691
92468SOL     OW79300  12.694   5.818   0.823
92468SOL    HW179301  12.614   5.821   0.875
92468SOL    HW279302  12.763   5.845   0.885
92469SOL     OW79303  12.086  10.856   8.486
92469SOL    HW179304  12.176  10.880   8.466
92469SOL    HW279305  12.039  10.869   8.404
92470SOL     OW79306   7.346   8.460   1.886
92470SOL    HW179307   7.426   8.428   1.926
92470SOL    HW279308   7.313   8.386   1.835
92471SOL     OW79309  14.372  13.421   8.868
92471SOL    HW179310  14.294  13.366   8.875
92471SOL    HW279311  14.434  13.367   8.818
92472SOL     OW79312   4.534  14.699  14.742
92472SOL    HW179313   4.615  14.672  14.786
92472SOL    HW279314   4.465  14.685  14.808
92473SOL     OW79315   1.413   1.518  11.391
92473SOL    HW179316   1.369   1.586  11.442
92473SOL    HW279317   1.394   1.437  11.439
92474SOL     OW79318  14.243  14.386   8.809
92474SOL    HW179319  14.288  14.386   8.893
92474SOL    HW279320  14.307  14.421   8.747
92475SOL     OW79321  10.103  12.651   8.211
92475SOL    HW179322  10.127  12.617   8.298
92475SOL    HW279323  10.183  12.690   8.177
92476SOL     OW79324  10.177   3.308  10.288
92476SOL    HW179325  10.231   3.333  10.364
92476SOL    HW279326  10.122   3.384  10.271
92477SOL     OW79327   0.664  14.468   7.723
92477SOL    HW179328   0.735  14.404   7.727
92477SOL    HW279329   0.603  14.432   7.658
92478SOL     OW79330   8.289   3.877   4.620
92478SOL    HW179331   8.348   3.824   4.673
92478SOL    HW279332   8.345   3.945   4.583
92479SOL     OW79333   4.426  13.592  10.156
92479SOL    HW179334   4.362  13.561  10.220
92479SOL    HW279335   4.439  13.518  10.097
92480SOL     OW79336  10.396   1.854   0.628
92480SOL    HW179337  10.348   1.816   0.554
92480SOL    HW279338  10.346   1.825   0.705
92481SOL     OW79339  12.150  13.275   7.141
92481SOL    HW179340  12.080  13.211   7.149
92481SOL    HW279341  12.230  13.227   7.164
92482SOL     OW79342   2.214  14.159   7.870
92482SOL    HW179343   2.308  14.141   7.878
92482SOL    HW279344   2.200  14.238   7.922
92483SOL     OW79345  13.781   7.874  11.054
92483SOL    HW179346  13.757   7.892  11.145
92483SOL    HW279347  13.798   7.780  11.052
92484SOL     OW79348   0.520   7.245   9.088
92484SOL    HW179349   0.496   7.311   9.152
92484SOL    HW279350   0.547   7.296   9.011
92485SOL     OW79351   4.036   8.168   6.949
92485SOL    HW179352   4.116   8.174   7.001
92485SOL    HW279353   4.051   8.227   6.875
92486SOL     OW79354   4.968  11.918  12.814
92486SOL    HW179355   5.043  11.956  12.769
92486SOL    HW279356   4.980  11.823  12.806
92487SOL     OW79357   9.461   3.121  12.864
92487SOL    HW179358   9.387   3.162  12.909
92487SOL    HW279359   9.503   3.067  12.932
92488SOL     OW79360   5.261   2.822   0.869
92488SOL    HW179361   5.205   2.874   0.927
92488SOL    HW279362   5.258   2.868   0.785
92489SOL     OW79363  11.007   6.353   3.681
92489SOL    HW179364  11.062   6.334   3.604
92489SOL    HW279365  10.999   6.268   3.725
92490SOL     OW79366   1.730   6.004  11.905
92490SOL    HW179367   1.759   6.086  11.866
92490SOL    HW279368   1.638   6.019  11.928
92491SOL     OW79369  10.955   5.768  11.962
92491SOL    HW179370  11.025   5.831  11.941
92491SOL    HW279371  10.875   5.813  11.935
92492SOL     OW79372   8.058  10.115   7.245
92492SOL    HW179373   7.967  10.140   7.229
92492SOL    HW279374   8.058  10.083   7.335
92493SOL     OW79375  14.212   0.677   9.055
92493SOL    HW179376  14.269   0.611   9.014
92493SOL    HW279377  14.268   0.754   9.063
92494SOL     OW79378   0.115   1.446  14.450
92494SOL    HW179379   0.122   1.351  14.458
92494SOL    HW279380   0.050   1.461  14.382
92495SOL     OW79381   2.651  12.374   6.310
92495SOL    HW179382   2.655  12.315   6.386
92495SOL    HW279383   2.614  12.321   6.240
92496SOL     OW79384   5.600   5.262   3.902
92496SOL    HW179385   5.601   5.281   3.808
92496SOL    HW279386   5.595   5.167   3.908
92497SOL     OW79387  11.394   8.085   3.901
92497SOL    HW179388  11.474   8.094   3.849
92497SOL    HW279389  11.328   8.053   3.839
92498SOL     OW79390  11.949   4.491   3.327
92498SOL    HW179391  11.916   4.477   3.239
92498SOL    HW279392  12.027   4.436   3.333
92499SOL     OW79393   1.959   8.355  11.367
92499SOL    HW179394   2.020   8.428  11.358
92499SOL    HW279395   2.013   8.281  11.396
92500SOL     OW79396   4.440   3.950  10.106
92500SOL    HW179397   4.408   4.035  10.077
92500SOL    HW279398   4.488   3.969  10.188
92501SOL     OW79399   1.475   9.150   8.315
92501SOL    HW179400   1.549   9.205   8.343
92501SOL    HW279401   1.422   9.139   8.394
92502SOL     OW79402   7.913   0.901   2.131
92502SOL    HW179403   7.886   0.992   2.139
92502SOL    HW279404   7.841   0.858   2.085
92503SOL     OW79405  12.659  13.900  10.612
92503SOL    HW179406  12.625  13.860  10.692
92503SOL    HW279407  12.590  13.887  10.547
92504SOL     OW79408   8.454  10.873   7.529
92504SOL    HW179409   8.446  10.802   7.465
92504SOL    HW279410   8.364  10.890   7.556
92505SOL     OW79411   1.299   1.303   7.521
92505SOL    HW179412   1.237   1.374   7.504
92505SOL    HW279413   1.281   1.239   7.453
92506SOL     OW79414   5.412   8.676   9.784
92506SOL    HW179415   5.330   8.678   9.734
92506SOL    HW279416   5.387   8.638   9.869
92507SOL     OW79417   1.774   4.358   0.358
92507SOL    HW179418   1.762   4.269   0.391
92507SOL    HW279419   1.741   4.356   0.268
92508SOL     OW79420   1.688  13.588  13.064
92508SOL    HW179421   1.713  13.523  12.998
92508SOL    HW279422   1.771  13.615  13.104
92509SOL     OW79423  11.955   4.938  13.578
92509SOL    HW179424  11.988   4.997  13.510
92509SOL    HW279425  12.034   4.898  13.615
92510SOL     OW79426  12.665   5.216   4.451
92510SOL    HW179427  12.628   5.136   4.414
92510SOL    HW279428  12.592   5.257   4.498
92511SOL     OW79429   3.293  14.181   8.604
92511SOL    HW179430   3.215  14.237   8.597
92511SOL    HW279431   3.276  14.108   8.545
92512SOL     OW79432   8.796   8.817   6.206
92512SOL    HW179433   8.718   8.871   6.191
92512SOL    HW279434   8.762   8.727   6.213
92513SOL     OW79435  11.852   3.545  14.064
92513SOL    HW179436  11.854   3.552  13.969
92513SOL    HW279437  11.905   3.618  14.095
92514SOL     OW79438   0.573   9.710   9.375
92514SOL    HW179439   0.495   9.744   9.330
92514SOL    HW279440   0.540   9.638   9.429
92515SOL     OW79441   7.739   4.073   0.375
92515SOL    HW179442   7.654   4.113   0.358
92515SOL    HW279443   7.742   3.997   0.317
92516SOL     OW79444   1.182   1.893   9.943
92516SOL    HW179445   1.195   1.971   9.997
92516SOL    HW279446   1.126   1.836   9.996
92517SOL     OW79447   5.979   9.449   9.301
92517SOL    HW179448   5.908   9.508   9.323
92517SOL    HW279449   6.020   9.487   9.223
92518SOL     OW79450  10.293   0.235   7.503
92518SOL    HW179451  10.266   0.321   7.535
92518SOL    HW279452  10.354   0.253   7.432
92519SOL     OW79453   2.120   1.787   5.567
92519SOL    HW179454   2.163   1.703   5.582
92519SOL    HW279455   2.070   1.803   5.646
92520SOL     OW79456   5.464  10.851   8.233
92520SOL    HW179457   5.373  10.870   8.254
92520SOL    HW279458   5.489  10.782   8.295
92521SOL     OW79459  10.193   1.025   4.363
92521SOL    HW179460  10.283   1.006   4.391
92521SOL    HW279461  10.203   1.084   4.288
92522SOL     OW79462   2.502   2.351  10.641
92522SOL    HW179463   2.577   2.393  10.683
92522SOL    HW279464   2.537   2.318  10.558
92523SOL     OW79465  13.246   5.071   3.995
92523SOL    HW179466  13.201   5.094   4.077
92523SOL    HW279467  13.272   4.980   4.007
92524SOL     OW79468   7.499   5.252   4.625
92524SOL    HW179469   7.535   5.224   4.541
92524SOL    HW279470   7.576   5.273   4.678
92525SOL     OW79471   8.592   1.801   9.639
92525SOL    HW179472   8.497   1.808   9.648
92525SOL    HW279473   8.608   1.802   9.545
92526SOL     OW79474   6.134  14.680   6.717
92526SOL    HW179475   6.162  14.694   6.626
92526SOL    HW279476   6.165  14.592   6.738
92527SOL     OW79477   9.741   4.565  13.466
92527SOL    HW179478   9.666   4.624  13.465
92527SOL    HW279479   9.803   4.605  13.527
92528SOL     OW79480  14.214   2.114  10.941
92528SOL    HW179481  14.252   2.154  11.020
92528SOL    HW279482  14.266   2.034  10.927
92529SOL     OW79483   7.645  10.477  11.849
92529SOL    HW179484   7.728  10.431  11.836
92529SOL    HW279485   7.668  10.570  11.840
92530SOL     OW79486   3.451   2.624   6.392
92530SOL    HW179487   3.545   2.638   6.381
92530SOL    HW279488   3.420   2.603   6.304
92531SOL     OW79489   4.902  10.357   1.681
92531SOL    HW179490   4.896  10.370   1.776
92531SOL    HW279491   4.932  10.266   1.672
92532SOL     OW79492  12.009   7.847   3.582
92532SOL    HW179493  12.054   7.881   3.659
92532SOL    HW279494  12.079   7.812   3.527
92533SOL     OW79495   3.092   0.186  13.293
92533SOL    HW179496   3.066   0.279  13.297
92533SOL    HW279497   3.098   0.166  13.200
92534SOL     OW79498  11.618  10.190   5.766
92534SOL    HW179499  11.557  10.157   5.832
92534SOL    HW279500  11.647  10.274   5.801
92535SOL     OW79501  12.493   0.377   8.708
92535SOL    HW179502  12.424   0.391   8.643
92535SOL    HW279503  12.536   0.296   8.680
92536SOL     OW79504  12.078  10.447   1.030
92536SOL    HW179505  12.048  10.413   0.946
92536SOL    HW279506  12.022  10.404   1.095
92537SOL     OW79507  12.394   1.484  11.329
92537SOL    HW179508  12.464   1.521  11.382
92537SOL    HW279509  12.337   1.558  11.310
92538SOL     OW79510  11.076  10.149  14.197
92538SOL    HW179511  11.114  10.063  14.214
92538SOL    HW279512  11.005  10.156  14.261
92539SOL     OW79513   8.917   3.125  14.533
92539SOL    HW179514   8.927   3.031  14.520
92539SOL    HW279515   8.986   3.165  14.480
92540SOL     OW79516  13.990   3.131   0.526
92540SOL    HW179517  14.081   3.102   0.529
92540SOL    HW279518  13.984   3.182   0.445
92541SOL     OW79519  14.796   9.792   9.555
92541SOL    HW179520  14.706   9.783   9.526
92541SOL    HW279521  14.811   9.717   9.613
92542SOL     OW79522  12.726   3.330   3.302
92542SOL    HW179523  12.816   3.361   3.289
92542SOL    HW279524  12.700   3.296   3.216
92543SOL     OW79525   1.432   1.676   5.736
92543SOL    HW179526   1.462   1.766   5.748
92543SOL    HW279527   1.471   1.627   5.809
92544SOL     OW79528   5.710   6.906   6.846
92544SOL    HW179529   5.741   6.917   6.756
92544SOL    HW279530   5.662   6.823   6.845
92545SOL     OW79531   2.544   5.558  13.533
92545SOL    HW179532   2.471   5.619  13.526
92545SOL    HW279533   2.611   5.607  13.582
92546SOL     OW79534   1.344  12.851   8.692
92546SOL    HW179535   1.287  12.845   8.615
92546SOL    HW279536   1.426  12.887   8.659
92547SOL     OW79537  10.066   4.808   2.635
92547SOL    HW179538  10.092   4.841   2.549
92547SOL    HW279539  10.127   4.849   2.696
92548SOL     OW79540   0.662   0.330   0.254
92548SOL    HW179541   0.680   0.424   0.266
92548SOL    HW279542   0.569   0.326   0.233
92549SOL     OW79543   4.697   0.898  10.834
92549SOL    HW179544   4.639   0.824  10.850
92549SOL    HW279545   4.779   0.874  10.877
92550SOL     OW79546  11.825  13.280  10.076
92550SOL    HW179547  11.792  13.287  10.165
92550SOL    HW279548  11.827  13.185  10.059
92551SOL     OW79549  10.598  10.445   2.990
92551SOL    HW179550  10.575  10.534   3.015
92551SOL    HW279551  10.689  10.435   3.017
92552SOL     OW79552  11.241  13.274   0.886
92552SOL    HW179553  11.238  13.185   0.920
92552SOL    HW279554  11.265  13.264   0.794
92553SOL     OW79555  10.143   6.863   8.911
92553SOL    HW179556  10.050   6.867   8.933
92553SOL    HW279557  10.177   6.949   8.935
92554SOL     OW79558   2.538  11.124  10.970
92554SOL    HW179559   2.511  11.115  11.061
92554SOL    HW279560   2.496  11.050  10.925
92555SOL     OW79561  13.649   7.832   7.153
92555SOL    HW179562  13.632   7.802   7.242
92555SOL    HW279563  13.584   7.787   7.099
92556SOL     OW79564  12.690  14.405   1.554
92556SOL    HW179565  12.651  14.398   1.467
92556SOL    HW279566  12.617  14.433   1.610
92557SOL     OW79567  14.675   6.179   9.995
92557SOL    HW179568  14.629   6.099  10.019
92557SOL    HW279569  14.647   6.197   9.905
92558SOL     OW79570   5.270   4.784  14.123
92558SOL    HW179571   5.266   4.777  14.027
92558SOL    HW279572   5.197   4.841  14.146
92559SOL     OW79573  14.780   7.180  14.103
92559SOL    HW179574  14.723   7.153  14.032
92559SOL    HW279575  14.786   7.102  14.159
92560SOL     OW79576   0.031   5.437   8.155
92560SOL    HW179577  14.807   5.420   8.136
92560SOL    HW279578   0.059   5.497   8.085
92561SOL     OW79579   7.486   6.214  12.015
92561SOL    HW179580   7.469   6.280  11.948
92561SOL    HW279581   7.446   6.250  12.095
92562SOL     OW79582   2.001  10.510   2.632
92562SOL    HW179583   2.000  10.591   2.682
92562SOL    HW279584   2.079  10.517   2.577
92563SOL     OW79585   0.167   6.404   0.679
92563SOL    HW179586   0.084   6.377   0.639
92563SOL    HW279587   0.232   6.347   0.638
92564SOL     OW79588   1.381   9.291   1.772
92564SOL    HW179589   1.372   9.370   1.719
92564SOL    HW279590   1.293   9.252   1.772
92565SOL     OW79591   3.752   8.459   7.610
92565SOL    HW179592   3.724   8.385   7.663
92565SOL    HW279593   3.671   8.491   7.569
92566SOL     OW79594  12.815   2.688  14.684
92566SOL    HW179595  12.861   2.734  14.614
92566SOL    HW279596  12.732   2.661  14.645
92567SOL     OW79597  10.405   0.864   0.436
92567SOL    HW179598  10.379   0.825   0.519
92567SOL    HW279599  10.360   0.948   0.434
92568SOL     OW79600   2.791  13.050   9.628
92568SOL    HW179601   2.768  13.135   9.591
92568SOL    HW279602   2.846  13.071   9.703
92569SOL     OW79603   4.166   8.685   5.958
92569SOL    HW179604   4.216   8.720   5.884
92569SOL    HW279605   4.209   8.603   5.980
92570SOL     OW79606  10.161  10.824  12.998
92570SOL    HW179607  10.085  10.866  13.038
92570SOL    HW279608  10.156  10.733  13.026
92571SOL     OW79609   9.242   7.106   6.863
92571SOL    HW179610   9.296   7.171   6.817
92571SOL    HW279611   9.235   7.033   6.801
92572SOL     OW79612   5.360   3.024   6.736
92572SOL    HW179613   5.289   3.016   6.672
92572SOL    HW279614   5.435   2.983   6.693
92573SOL     OW79615   5.191   0.026   0.677
92573SOL    HW179616   5.114  14.853   0.637
92573SOL    HW279617   5.231  14.824   0.729
92574SOL     OW79618  11.485   8.024   5.602
92574SOL    HW179619  11.435   8.015   5.521
92574SOL    HW279620  11.420   8.024   5.672
92575SOL     OW79621  12.085  13.565   5.785
92575SOL    HW179622  12.055  13.597   5.870
92575SOL    HW279623  12.021  13.500   5.759
92576SOL     OW79624   6.418   7.073   5.012
92576SOL    HW179625   6.442   7.164   4.994
92576SOL    HW279626   6.402   7.072   5.107
92577SOL     OW79627  14.817  10.792   1.318
92577SOL    HW179628  14.862  10.865   1.274
92577SOL    HW279629  14.863  10.783   1.401
92578SOL     OW79630  13.055   0.957   6.336
92578SOL    HW179631  13.085   1.043   6.307
92578SOL    HW279632  13.012   0.919   6.259
92579SOL     OW79633   6.605   3.894   1.354
92579SOL    HW179634   6.564   3.821   1.308
92579SOL    HW279635   6.616   3.961   1.287
92580SOL     OW79636   4.831  10.095  12.036
92580SOL    HW179637   4.764  10.059  11.977
92580SOL    HW279638   4.781  10.132  12.109
92581SOL     OW79639   5.990   6.415  10.725
92581SOL    HW179640   5.938   6.345  10.765
92581SOL    HW279641   5.937   6.445  10.652
92582SOL     OW79642  13.743   8.440  14.417
92582SOL    HW179643  13.781   8.455  14.504
92582SOL    HW279644  13.815   8.457  14.356
92583SOL     OW79645   5.536   4.722   3.343
92583SOL    HW179646   5.475   4.792   3.320
92583SOL    HW279647   5.542   4.668   3.264
92584SOL     OW79648   7.090   0.635  12.268
92584SOL    HW179649   7.128   0.549  12.250
92584SOL    HW279650   7.018   0.643  12.207
92585SOL     OW79651   8.769   5.410   5.817
92585SOL    HW179652   8.684   5.368   5.803
92585SOL    HW279653   8.830   5.358   5.764
92586SOL     OW79654   2.975   1.202   5.291
92586SOL    HW179655   2.914   1.228   5.221
92586SOL    HW279656   3.033   1.138   5.249
92587SOL     OW79657   9.247   7.634  10.019
92587SOL    HW179658   9.325   7.589   9.988
92587SOL    HW279659   9.258   7.638  10.114
92588SOL     OW79660   2.948  14.633   7.548
92588SOL    HW179661   2.957  14.726   7.527
92588SOL    HW279662   3.025  14.613   7.602
92589SOL     OW79663  14.605  12.093   3.989
92589SOL    HW179664  14.664  12.102   3.914
92589SOL    HW279665  14.569  12.005   3.981
92590SOL     OW79666  13.768   4.065   5.027
92590SOL    HW179667  13.715   3.990   5.058
92590SOL    HW279668  13.719   4.142   5.057
92591SOL     OW79669  11.001  11.981   2.673
92591SOL    HW179670  10.913  12.013   2.695
92591SOL    HW279671  11.056  12.060   2.676
92592SOL     OW79672   4.473   5.311  12.333
92592SOL    HW179673   4.525   5.355  12.401
92592SOL    HW279674   4.538   5.267  12.278
92593SOL     OW79675   5.930  10.717  11.069
92593SOL    HW179676   5.932  10.622  11.056
92593SOL    HW279677   5.871  10.750  11.002
92594SOL     OW79678  10.047   0.445   8.673
92594SOL    HW179679  10.053   0.523   8.729
92594SOL    HW279680   9.966   0.458   8.624
92595SOL     OW79681   0.291  10.970   0.402
92595SOL    HW179682   0.310  10.897   0.461
92595SOL    HW279683   0.343  10.952   0.324
92596SOL     OW79684  11.550   7.126   0.641
92596SOL    HW179685  11.525   7.217   0.654
92596SOL    HW279686  11.629   7.131   0.586
92597SOL     OW79687  12.853   2.695   0.960
92597SOL    HW179688  12.772   2.647   0.979
92597SOL    HW279689  12.893   2.646   0.888
92598SOL     OW79690  11.032  12.397  13.220
92598SOL    HW179691  11.026  12.449  13.300
92598SOL    HW279692  11.023  12.306  13.250
92599SOL     OW79693   7.438  12.258   2.550
92599SOL    HW179694   7.363  12.202   2.530
92599SOL    HW279695   7.478  12.277   2.464
92600SOL     OW79696  13.821   1.273   4.316
92600SOL    HW179697  13.908   1.296   4.348
92600SOL    HW279698  13.785   1.216   4.383
92601SOL     OW79699   9.629  12.787   2.775
92601SOL    HW179700   9.664  12.776   2.864
92601SOL    HW279701   9.615  12.698   2.743
92602SOL     OW79702   0.244   6.713   9.086
92602SOL    HW179703   0.318   6.764   9.053
92602SOL    HW279704   0.260   6.624   9.055
92603SOL     OW79705   3.902   7.802  13.652
92603SOL    HW179706   3.958   7.737  13.696
92603SOL    HW279707   3.955   7.832  13.578
92604SOL     OW79708   2.693  14.759   5.946
92604SOL    HW179709   2.703  14.741   6.039
92604SOL    HW279710   2.676  14.674   5.906
92605SOL     OW79711   1.564   3.599  11.060
92605SOL    HW179712   1.650   3.637  11.044
92605SOL    HW279713   1.562   3.581  11.154
92606SOL     OW79714   5.452   5.444  11.047
92606SOL    HW179715   5.500   5.390  10.983
92606SOL    HW279716   5.365   5.405  11.051
92607SOL     OW79717   7.532  12.701  11.426
92607SOL    HW179718   7.539  12.784  11.474
92607SOL    HW279719   7.619  12.662  11.433
92608SOL     OW79720   6.819  12.297   6.451
92608SOL    HW179721   6.896  12.313   6.396
92608SOL    HW279722   6.855  12.277   6.537
92609SOL     OW79723   9.624   8.278  13.026
92609SOL    HW179724   9.597   8.212  12.962
92609SOL    HW279725   9.585   8.360  12.993
92610SOL     OW79726  12.933  13.703   1.596
92610SOL    HW179727  12.893  13.649   1.527
92610SOL    HW279728  13.002  13.752   1.551
92611SOL     OW79729   6.783  13.212  10.578
92611SOL    HW179730   6.821  13.267  10.647
92611SOL    HW279731   6.696  13.250  10.563
92612SOL     OW79732   5.403   8.988   6.764
92612SOL    HW179733   5.483   8.940   6.787
92612SOL    HW279734   5.392   9.050   6.836
92613SOL     OW79735   5.532  10.136   5.289
92613SOL    HW179736   5.444  10.159   5.262
92613SOL    HW279737   5.551  10.054   5.245
92614SOL     OW79738   0.616  13.721   8.557
92614SOL    HW179739   0.636  13.812   8.580
92614SOL    HW279740   0.693  13.691   8.509
92615SOL     OW79741   7.708  14.780  10.564
92615SOL    HW179742   7.672  14.692  10.563
92615SOL    HW279743   7.797  14.769  10.599
92616SOL     OW79744   9.707   2.373   6.341
92616SOL    HW179745   9.734   2.349   6.430
92616SOL    HW279746   9.619   2.335   6.332
92617SOL     OW79747   2.109  14.214   4.269
92617SOL    HW179748   2.048  14.187   4.200
92617SOL    HW279749   2.195  14.212   4.227
92618SOL     OW79750  10.214   2.644  13.170
92618SOL    HW179751  10.231   2.580  13.100
92618SOL    HW279752  10.135   2.611  13.213
92619SOL     OW79753  13.331   2.366   3.874
92619SOL    HW179754  13.292   2.349   3.960
92619SOL    HW279755  13.288   2.447   3.844
92620SOL     OW79756  11.352   4.898  14.796
92620SOL    HW179757  11.334   4.811  14.762
92620SOL    HW279758  11.434   4.889  14.843
92621SOL     OW79759  12.869   4.512   8.377
92621SOL    HW179760  12.940   4.447   8.379
92621SOL    HW279761  12.914   4.596   8.379
92622SOL     OW79762   8.790   4.467   7.633
92622SOL    HW179763   8.711   4.506   7.596
92622SOL    HW279764   8.783   4.481   7.727
92623SOL     OW79765   1.990  13.721  11.102
92623SOL    HW179766   2.061  13.722  11.038
92623SOL    HW279767   2.012  13.650  11.162
92624SOL     OW79768  11.901  10.200   5.236
92624SOL    HW179769  11.977  10.175   5.183
92624SOL    HW279770  11.851  10.120   5.245
92625SOL     OW79771   0.069   3.598   7.733
92625SOL    HW179772   0.124   3.535   7.778
92625SOL    HW279773  14.848   3.578   7.762
92626SOL     OW79774  12.460   7.038  14.591
92626SOL    HW179775  12.506   7.108  14.545
92626SOL    HW279776  12.451   6.969  14.526
92627SOL     OW79777   0.159   8.527  12.190
92627SOL    HW179778   0.119   8.527  12.103
92627SOL    HW279779   0.110   8.593  12.239
92628SOL     OW79780   0.982   7.046  10.120
92628SOL    HW179781   0.925   7.061  10.045
92628SOL    HW279782   1.034   6.969  10.097
92629SOL     OW79783   0.128   8.238   6.743
92629SOL    HW179784   0.091   8.197   6.821
92629SOL    HW279785   0.081   8.198   6.670
92630SOL     OW79786   0.049   2.955  11.867
92630SOL    HW179787   0.081   3.046  11.867
92630SOL    HW279788  14.860   2.950  11.944
92631SOL     OW79789   6.459   6.803   6.593
92631SOL    HW179790   6.488   6.841   6.675
92631SOL    HW279791   6.415   6.722   6.618
92632SOL     OW79792   0.976  12.211  14.417
92632SOL    HW179793   0.957  12.223  14.324
92632SOL    HW279794   0.890  12.214  14.460
92633SOL     OW79795  11.677  13.508   8.049
92633SOL    HW179796  11.648  13.596   8.024
92633SOL    HW279797  11.694  13.464   7.966
92634SOL     OW79798   1.357  10.695   2.781
92634SOL    HW179799   1.388  10.762   2.721
92634SOL    HW279800   1.286  10.652   2.734
92635SOL     OW79801   1.840  14.152  14.640
92635SOL    HW179802   1.767  14.120  14.693
92635SOL    HW279803   1.887  14.074  14.613
92636SOL     OW79804   8.558   0.096   3.636
92636SOL    HW179805   8.650   0.115   3.654
92636SOL    HW279806   8.519   0.078   3.722
92637SOL     OW79807   7.521   5.501  13.409
92637SOL    HW179808   7.579   5.562  13.455
92637SOL    HW279809   7.485   5.552  13.336
92638SOL     OW79810   2.325  12.038   7.118
92638SOL    HW179811   2.372  12.000   7.044
92638SOL    HW279812   2.233  12.022   7.098
92639SOL     OW79813  12.432  11.985  13.410
92639SOL    HW179814  12.386  11.901  13.418
92639SOL    HW279815  12.391  12.027  13.334
92640SOL     OW79816   3.603   8.763  11.991
92640SOL    HW179817   3.508   8.761  12.007
92640SOL    HW279818   3.635   8.678  12.022
92641SOL     OW79819   2.997   0.020  10.264
92641SOL    HW179820   3.072   0.076  10.284
92641SOL    HW279821   3.019  14.803  10.303
92642SOL     OW79822  14.788   7.656   0.912
92642SOL    HW179823  14.775   7.747   0.885
92642SOL    HW279824  14.709   7.610   0.881
92643SOL     OW79825   3.735   0.593  12.619
92643SOL    HW179826   3.686   0.516  12.592
92643SOL    HW279827   3.705   0.663  12.561
92644SOL     OW79828   2.542   7.138  12.957
92644SOL    HW179829   2.526   7.165  13.048
92644SOL    HW279830   2.603   7.064  12.965
92645SOL     OW79831   2.653   3.770   4.092
92645SOL    HW179832   2.630   3.826   4.167
92645SOL    HW279833   2.748   3.772   4.090
92646SOL     OW79834   4.852  14.020   8.857
92646SOL    HW179835   4.834  13.973   8.939
92646SOL    HW279836   4.817  14.107   8.871
92647SOL     OW79837  10.316   7.674  10.639
92647SOL    HW179838  10.388   7.702  10.582
92647SOL    HW279839  10.237   7.707  10.596
92648SOL     OW79840  14.784   4.356   9.056
92648SOL    HW179841  14.777   4.447   9.028
92648SOL    HW279842  14.752   4.306   8.981
92649SOL     OW79843  11.742   8.072  13.467
92649SOL    HW179844  11.768   8.159  13.437
92649SOL    HW279845  11.791   8.058  13.548
92650SOL     OW79846  11.116  14.510  14.605
92650SOL    HW179847  11.206  14.536  14.623
92650SOL    HW279848  11.096  14.550  14.520
92651SOL     OW79849   8.462   9.871   9.484
92651SOL    HW179850   8.381   9.912   9.514
92651SOL    HW279851   8.450   9.777   9.500
92652SOL     OW79852  13.284   4.094   2.805
92652SOL    HW179853  13.340   4.017   2.795
92652SOL    HW279854  13.279   4.132   2.717
92653SOL     OW79855   0.276   8.812   3.799
92653SOL    HW179856   0.346   8.874   3.814
92653SOL    HW279857   0.292   8.777   3.711
92654SOL     OW79858   5.044  14.667  11.498
92654SOL    HW179859   5.002  14.732  11.554
92654SOL    HW279860   5.015  14.690  11.409
92655SOL     OW79861  10.843   9.988  10.556
92655SOL    HW179862  10.911  10.030  10.607
92655SOL    HW279863  10.761  10.015  10.598
92656SOL     OW79864   6.170  13.318   5.246
92656SOL    HW179865   6.215  13.315   5.161
92656SOL    HW279866   6.077  13.322   5.222
92657SOL     OW79867   8.830  10.218   0.065
92657SOL    HW179868   8.851  10.132   0.028
92657SOL    HW279869   8.774  10.199   0.140
92658SOL     OW79870  10.438   3.629  11.961
92658SOL    HW179871  10.431   3.537  11.989
92658SOL    HW279872  10.387   3.678  12.025
92659SOL     OW79873  12.368  10.500   4.548
92659SOL    HW179874  12.436  10.432   4.548
92659SOL    HW279875  12.414  10.580   4.574
92660SOL     OW79876   3.487   9.928   4.140
92660SOL    HW179877   3.472   9.859   4.205
92660SOL    HW279878   3.437  10.003   4.172
92661SOL     OW79879   5.063   6.812   2.787
92661SOL    HW179880   5.022   6.725   2.792
92661SOL    HW279881   5.153   6.795   2.760
92662SOL     OW79882   1.589  12.144   6.676
92662SOL    HW179883   1.560  12.235   6.683
92662SOL    HW279884   1.575  12.108   6.764
92663SOL     OW79885   5.471   6.534   8.500
92663SOL    HW179886   5.467   6.502   8.410
92663SOL    HW279887   5.548   6.592   8.502
92664SOL     OW79888   4.057   4.892   0.492
92664SOL    HW179889   4.105   4.810   0.484
92664SOL    HW279890   4.043   4.920   0.401
92665SOL     OW79891   7.483   7.445   7.682
92665SOL    HW179892   7.486   7.540   7.694
92665SOL    HW279893   7.574   7.416   7.692
92666SOL     OW79894   8.733   2.441  10.632
92666SOL    HW179895   8.760   2.398  10.713
92666SOL    HW279896   8.662   2.499  10.657
92667SOL     OW79897  12.271   1.491   6.046
92667SOL    HW179898  12.256   1.519   5.956
92667SOL    HW279899  12.365   1.506   6.061
92668SOL     OW79900   1.308  11.727  14.150
92668SOL    HW179901   1.335  11.786  14.080
92668SOL    HW279902   1.348  11.643  14.127
92669SOL     OW79903   2.430  14.276   9.969
92669SOL    HW179904   2.344  14.243   9.996
92669SOL    HW279905   2.428  14.369   9.989
92670SOL     OW79906   8.685  13.238  11.564
92670SOL    HW179907   8.772  13.275  11.550
92670SOL    HW279908   8.631  13.312  11.591
92671SOL     OW79909   3.739   4.087  11.968
92671SOL    HW179910   3.827   4.075  12.004
92671SOL    HW279911   3.750   4.153  11.900
92672SOL     OW79912   0.571  10.503   0.461
92672SOL    HW179913   0.643  10.448   0.491
92672SOL    HW279914   0.611  10.588   0.443
92673SOL     OW79915  11.416   2.482   3.769
92673SOL    HW179916  11.464   2.474   3.852
92673SOL    HW279917  11.484   2.507   3.706
92674SOL     OW79918   9.920  14.020  11.544
92674SOL    HW179919   9.857  13.975  11.601
92674SOL    HW279920   9.934  14.105  11.587
92675SOL     OW79921   3.366  13.091  13.204
92675SOL    HW179922   3.366  12.995  13.197
92675SOL    HW279923   3.437  13.119  13.146
92676SOL     OW79924   1.201  12.182  10.347
92676SOL    HW179925   1.151  12.116  10.299
92676SOL    HW279926   1.181  12.163  10.439
92677SOL     OW79927   8.215  11.209  12.324
92677SOL    HW179928   8.248  11.258  12.248
92677SOL    HW279929   8.171  11.133  12.287
92678SOL     OW79930   9.677  12.884  10.336
92678SOL    HW179931   9.591  12.889  10.377
92678SOL    HW279932   9.669  12.938  10.257
92679SOL     OW79933  14.132   9.234   1.114
92679SOL    HW179934  14.118   9.161   1.054
92679SOL    HW279935  14.124   9.312   1.059
92680SOL     OW79936   9.686   9.602   4.217
92680SOL    HW179937   9.728   9.654   4.286
92680SOL    HW279938   9.604   9.573   4.255
92681SOL     OW79939   1.759   3.476   2.175
92681SOL    HW179940   1.842   3.445   2.213
92681SOL    HW279941   1.726   3.539   2.239
92682SOL     OW79942  13.700   9.209   7.771
92682SOL    HW179943  13.655   9.155   7.706
92682SOL    HW279944  13.630   9.243   7.827
92683SOL     OW79945  11.992   9.458  13.424
92683SOL    HW179946  12.011   9.412  13.506
92683SOL    HW279947  12.075   9.497  13.399
92684SOL     OW79948  10.886   8.037   3.689
92684SOL    HW179949  10.840   8.119   3.704
92684SOL    HW279950  10.823   7.982   3.642
92685SOL     OW79951   1.390   3.135   3.614
92685SOL    HW179952   1.383   3.213   3.668
92685SOL    HW279953   1.300   3.115   3.589
92686SOL     OW79954   4.884  12.554  13.084
92686SOL    HW179955   4.928  12.627  13.039
92686SOL    HW279956   4.903  12.568  13.176
92687SOL     OW79957   5.054  13.113  10.032
92687SOL    HW179958   4.986  13.160   9.982
92687SOL    HW279959   5.091  13.179  10.090
92688SOL     OW79960  11.036   3.809   6.360
92688SOL    HW179961  10.976   3.883   6.370
92688SOL    HW279962  11.116   3.848   6.323
92689SOL     OW79963   0.160   7.651   6.463
92689SOL    HW179964   0.133   7.582   6.523
92689SOL    HW279965   0.246   7.679   6.497
92690SOL     OW79966  12.670   4.664   3.182
92690SOL    HW179967  12.726   4.633   3.111
92690SOL    HW279968  12.642   4.752   3.154
92691SOL     OW79969  14.358  13.682   5.688
92691SOL    HW179970  14.345  13.696   5.782
92691SOL    HW279971  14.372  13.588   5.679
92692SOL     OW79972  14.232   9.440   6.635
92692SOL    HW179973  14.312   9.452   6.686
92692SOL    HW279974  14.187   9.525   6.640
92693SOL     OW79975   7.998  11.710  14.401
92693SOL    HW179976   8.048  11.724  14.320
92693SOL    HW279977   7.921  11.766  14.392
92694SOL     OW79978   6.031   3.736  11.567
92694SOL    HW179979   5.974   3.807  11.596
92694SOL    HW279980   6.008   3.723  11.475
92695SOL     OW79981   3.259   0.553   7.433
92695SOL    HW179982   3.315   0.517   7.502
92695SOL    HW279983   3.305   0.630   7.401
92696SOL     OW79984  14.095   6.368   7.420
92696SOL    HW179985  14.013   6.320   7.428
92696SOL    HW279986  14.079   6.451   7.466
92697SOL     OW79987  10.203  13.276  12.329
92697SOL    HW179988  10.190  13.327  12.249
92697SOL    HW279989  10.198  13.341  12.400
92698SOL     OW79990   0.538  10.399  12.334
92698SOL    HW179991   0.555  10.450  12.413
92698SOL    HW279992   0.470  10.448  12.287
92699SOL     OW79993   8.175   4.955   2.772
92699SOL    HW179994   8.158   5.049   2.783
92699SOL    HW279995   8.173   4.920   2.861
92700SOL     OW79996  11.384  12.746  10.778
92700SOL    HW179997  11.324  12.672  10.780
92700SOL    HW279998  11.340  12.812  10.725
92701SOL     OW79999  13.447   8.631   5.872
92701SOL    HW180000  13.357   8.657   5.890
92701SOL    HW280001  13.444   8.595   5.783
92702SOL     OW80002   9.149   0.205  10.542
92702SOL    HW180003   9.193   0.157  10.612
92702SOL    HW280004   9.066   0.158  10.531
92703SOL     OW80005   6.665   9.994   1.094
92703SOL    HW180006   6.727   9.928   1.124
92703SOL    HW280007   6.612  10.014   1.171
92704SOL     OW80008   5.191   8.270  10.641
92704SOL    HW180009   5.187   8.330  10.716
92704SOL    HW280010   5.100   8.253  10.619
92705SOL     OW80011   2.780  14.853  12.768
92705SOL    HW180012   2.740  14.843  12.854
92705SOL    HW280013   2.706  14.843  12.707
92706SOL     OW80014   2.394  10.955  11.208
92706SOL    HW180015   2.462  10.961  11.276
92706SOL    HW280016   2.317  10.995  11.248
92707SOL     OW80017   3.235   1.624  13.492
92707SOL    HW180018   3.229   1.540  13.537
92707SOL    HW280019   3.296   1.607  13.420
92708SOL     OW80020   3.644   1.085   9.065
92708SOL    HW180021   3.709   1.109   8.999
92708SOL    HW280022   3.695   1.072   9.145
92709SOL     OW80023   7.718   1.636   8.742
92709SOL    HW180024   7.631   1.674   8.732
92709SOL    HW280025   7.778   1.706   8.718
92710SOL     OW80026   0.026  11.339   0.030
92710SOL    HW180027   0.106  11.388   0.007
92710SOL    HW280028   0.055  11.248   0.036
92711SOL     OW80029   8.598   0.794   8.370
92711SOL    HW180030   8.535   0.801   8.442
92711SOL    HW280031   8.612   0.700   8.360
92712SOL     OW80032   4.776   7.933   5.818
92712SOL    HW180033   4.818   7.897   5.897
92712SOL    HW280034   4.774   8.027   5.832
92713SOL     OW80035   1.476  10.954   2.616
92713SOL    HW180036   1.422  10.965   2.538
92713SOL    HW280037   1.447  11.023   2.675
92714SOL     OW80038   5.776  14.082   2.283
92714SOL    HW180039   5.830  14.109   2.357
92714SOL    HW280040   5.723  14.009   2.317
92715SOL     OW80041   9.362  14.008  12.979
92715SOL    HW180042   9.430  14.058  13.024
92715SOL    HW280043   9.314  13.964  13.050
92716SOL     OW80044  10.095  12.253   6.111
92716SOL    HW180045  10.122  12.341   6.081
92716SOL    HW280046  10.177  12.210   6.135
92717SOL     OW80047  10.943   6.751  13.405
92717SOL    HW180048  10.850   6.732  13.410
92717SOL    HW280049  10.985   6.666  13.421
92718SOL     OW80050  14.062  11.367   1.402
92718SOL    HW180051  14.041  11.456   1.373
92718SOL    HW280052  13.977  11.330   1.428
92719SOL     OW80053   9.106  11.516   8.398
92719SOL    HW180054   9.132  11.434   8.355
92719SOL    HW280055   9.030  11.492   8.451
92720SOL     OW80056   0.683  10.297   2.266
92720SOL    HW180057   0.622  10.352   2.216
92720SOL    HW280058   0.683  10.335   2.354
92721SOL     OW80059   3.554  11.807   3.145
92721SOL    HW180060   3.525  11.716   3.149
92721SOL    HW280061   3.520  11.847   3.225
92722SOL     OW80062   1.809  12.156   0.923
92722SOL    HW180063   1.847  12.106   0.850
92722SOL    HW280064   1.725  12.113   0.940
92723SOL     OW80065  14.783   0.129  14.144
92723SOL    HW180066  14.775   0.080  14.062
92723SOL    HW280067  14.737   0.076  14.209
92724SOL     OW80068   9.341   1.929   4.619
92724SOL    HW180069   9.423   1.946   4.666
92724SOL    HW280070   9.369   1.904   4.531
92725SOL     OW80071  14.112   2.675  13.790
92725SOL    HW180072  14.046   2.721  13.842
92725SOL    HW280073  14.162   2.744  13.747
92726SOL     OW80074   6.095  13.891   5.934
92726SOL    HW180075   6.175  13.899   5.881
92726SOL    HW280076   6.094  13.969   5.989
92727SOL     OW80077  14.344   1.847  10.029
92727SOL    HW180078  14.333   1.932   9.987
92727SOL    HW280079  14.389   1.794   9.963
92728SOL     OW80080   4.033   7.170   8.748
92728SOL    HW180081   3.990   7.256   8.751
92728SOL    HW280082   3.974   7.112   8.795
92729SOL     OW80083   8.911   0.617   5.275
92729SOL    HW180084   8.953   0.685   5.329
92729SOL    HW280085   8.934   0.640   5.185
92730SOL     OW80086  14.529   8.080   0.038
92730SOL    HW180087  14.589   8.014   0.074
92730SOL    HW280088  14.445   8.060   0.079
92731SOL     OW80089   1.783   5.187   9.592
92731SOL    HW180090   1.726   5.123   9.634
92731SOL    HW280091   1.834   5.137   9.530
92732SOL     OW80092  10.597  10.441   0.522
92732SOL    HW180093  10.645  10.375   0.572
92732SOL    HW280094  10.642  10.444   0.437
92733SOL     OW80095   2.162   8.331   2.228
92733SOL    HW180096   2.107   8.407   2.208
92733SOL    HW280097   2.150   8.317   2.322
92734SOL     OW80098  14.671  13.431  11.589
92734SOL    HW180099  14.685  13.435  11.494
92734SOL    HW280100  14.681  13.522  11.618
92735SOL     OW80101  12.477   4.258  10.068
92735SOL    HW180102  12.481   4.205  10.148
92735SOL    HW280103  12.566   4.258  10.035
92736SOL     OW80104   5.405  10.432   8.435
92736SOL    HW180105   5.417  10.387   8.519
92736SOL    HW280106   5.361  10.367   8.379
92737SOL     OW80107   2.423  14.318  12.696
92737SOL    HW180108   2.392  14.353  12.613
92737SOL    HW280109   2.346  14.319  12.753
92738SOL     OW80110   6.975   8.887  12.860
92738SOL    HW180111   6.928   8.964  12.828
92738SOL    HW280112   7.066   8.904  12.837
92739SOL     OW80113   1.169   7.882   3.218
92739SOL    HW180114   1.079   7.881   3.251
92739SOL    HW280115   1.167   7.947   3.148
92740SOL     OW80116   8.265   2.993   1.077
92740SOL    HW180117   8.311   2.909   1.068
92740SOL    HW280118   8.236   2.994   1.168
92741SOL     OW80119   2.072   0.040   2.506
92741SOL    HW180120   2.165   0.051   2.485
92741SOL    HW280121   2.070   0.028   2.601
92742SOL     OW80122   7.444   9.931  11.283
92742SOL    HW180123   7.361   9.979  11.292
92742SOL    HW280124   7.422   9.841  11.307
92743SOL     OW80125   3.825   6.606  13.285
92743SOL    HW180126   3.919   6.600  13.274
92743SOL    HW280127   3.806   6.544  13.356
92744SOL     OW80128   2.954   6.200   5.776
92744SOL    HW180129   2.866   6.234   5.763
92744SOL    HW280130   2.942   6.106   5.790
92745SOL     OW80131   1.632  12.976   7.151
92745SOL    HW180132   1.705  12.962   7.090
92745SOL    HW280133   1.669  12.955   7.237
92746SOL     OW80134   4.326   6.118  11.066
92746SOL    HW180135   4.350   6.197  11.115
92746SOL    HW280136   4.389   6.114  10.994
92747SOL     OW80137  11.614  13.867   7.111
92747SOL    HW180138  11.546  13.873   7.045
92747SOL    HW280139  11.579  13.808   7.177
92748SOL     OW80140   6.432   6.593   3.571
92748SOL    HW180141   6.489   6.651   3.520
92748SOL    HW280142   6.353   6.584   3.519
92749SOL     OW80143   8.637   2.672  14.062
92749SOL    HW180144   8.578   2.632  13.998
92749SOL    HW280145   8.681   2.743  14.013
92750SOL     OW80146   6.160  11.126   1.143
92750SOL    HW180147   6.136  11.036   1.168
92750SOL    HW280148   6.076  11.169   1.128
92751SOL     OW80149   9.736   0.905   2.503
92751SOL    HW180150   9.802   0.843   2.474
92751SOL    HW280151   9.778   0.990   2.495
92752SOL     OW80152   8.989   1.762   1.656
92752SOL    HW180153   8.961   1.724   1.572
92752SOL    HW280154   8.915   1.747   1.715
92753SOL     OW80155   6.810  10.161   8.083
92753SOL    HW180156   6.748  10.171   8.011
92753SOL    HW280157   6.896  10.168   8.042
92754SOL     OW80158   5.660   2.188  12.524
92754SOL    HW180159   5.620   2.274  12.514
92754SOL    HW280160   5.589   2.132  12.556
92755SOL     OW80161  11.108   2.882   0.465
92755SOL    HW180162  11.138   2.956   0.413
92755SOL    HW280163  11.020   2.863   0.432
92756SOL     OW80164  14.327   5.825   3.530
92756SOL    HW180165  14.289   5.762   3.469
92756SOL    HW280166  14.265   5.897   3.532
92757SOL     OW80167   7.564   0.530   1.329
92757SOL    HW180168   7.634   0.554   1.268
92757SOL    HW280169   7.531   0.446   1.295
92758SOL     OW80170   3.562   3.224   3.996
92758SOL    HW180171   3.545   3.154   3.932
92758SOL    HW280172   3.645   3.262   3.968
92759SOL     OW80173   0.174   0.216   2.219
92759SOL    HW180174   0.186   0.301   2.260
92759SOL    HW280175   0.183   0.153   2.290
92760SOL     OW80176   9.080  14.462  14.752
92760SOL    HW180177   9.141  14.491  14.685
92760SOL    HW280178   9.135  14.452  14.830
92761SOL     OW80179   3.604  10.583  13.789
92761SOL    HW180180   3.650  10.660  13.756
92761SOL    HW280181   3.599  10.524  13.714
92762SOL     OW80182  14.434   5.926   9.322
92762SOL    HW180183  14.368   5.943   9.255
92762SOL    HW280184  14.447   5.832   9.320
92763SOL     OW80185   3.436  11.307   7.395
92763SOL    HW180186   3.462  11.392   7.359
92763SOL    HW280187   3.454  11.245   7.325
92764SOL     OW80188   7.802  11.533   7.816
92764SOL    HW180189   7.715  11.568   7.837
92764SOL    HW280190   7.799  11.519   7.721
92765SOL     OW80191   0.101   7.553   8.557
92765SOL    HW180192   0.131   7.644   8.549
92765SOL    HW280193   0.114   7.532   8.649
92766SOL     OW80194  13.920   0.818   8.605
92766SOL    HW180195  13.988   0.798   8.541
92766SOL    HW280196  13.922   0.913   8.614
92767SOL     OW80197   7.265   9.008  14.131
92767SOL    HW180198   7.181   8.965  14.118
92767SOL    HW280199   7.330   8.949  14.093
92768SOL     OW80200   1.341   5.369  11.120
92768SOL    HW180201   1.393   5.448  11.136
92768SOL    HW280202   1.405   5.302  11.098
92769SOL     OW80203   2.081   9.421   9.420
92769SOL    HW180204   2.099   9.363   9.346
92769SOL    HW280205   2.164   9.422   9.469
92770SOL     OW80206   9.846   2.376   9.328
92770SOL    HW180207   9.890   2.456   9.357
92770SOL    HW280208   9.765   2.372   9.379
92771SOL     OW80209   0.549  14.618   1.676
92771SOL    HW180210   0.560  14.564   1.755
92771SOL    HW280211   0.471  14.582   1.634
92772SOL     OW80212  11.554   4.340   0.909
92772SOL    HW180213  11.582   4.362   0.998
92772SOL    HW280214  11.497   4.264   0.920
92773SOL     OW80215   1.723  13.086   6.244
92773SOL    HW180216   1.676  13.095   6.326
92773SOL    HW280217   1.811  13.119   6.263
92774SOL     OW80218   2.392   3.494   3.473
92774SOL    HW180219   2.358   3.555   3.538
92774SOL    HW280220   2.480   3.528   3.453
92775SOL     OW80221   3.972   1.383  11.712
92775SOL    HW180222   3.942   1.435  11.637
92775SOL    HW280223   3.950   1.437  11.788
92776SOL     OW80224   9.008   6.111   2.184
92776SOL    HW180225   9.050   6.026   2.197
92776SOL    HW280226   8.928   6.091   2.136
92777SOL     OW80227  10.163  13.097   6.310
92777SOL    HW180228  10.227  13.167   6.324
92777SOL    HW280229  10.099  13.109   6.380
92778SOL     OW80230   0.611   4.042   2.453
92778SOL    HW180231   0.654   4.115   2.409
92778SOL    HW280232   0.678   3.974   2.457
92779SOL     OW80233   1.167   6.920   5.786
92779SOL    HW180234   1.140   6.866   5.861
92779SOL    HW280235   1.251   6.956   5.812
92780SOL     OW80236  14.674   4.107  11.197
92780SOL    HW180237  14.604   4.050  11.165
92780SOL    HW280238  14.635   4.156  11.269
92781SOL     OW80239   1.525   8.127   2.366
92781SOL    HW180240   1.593   8.100   2.428
92781SOL    HW280241   1.458   8.169   2.420
92782SOL     OW80242   5.681   8.609  10.501
92782SOL    HW180243   5.668   8.517  10.477
92782SOL    HW280244   5.639   8.659  10.430
92783SOL     OW80245   1.001   7.508  10.276
92783SOL    HW180246   1.049   7.462  10.345
92783SOL    HW280247   1.012   7.601  10.296
92784SOL     OW80248   7.771   9.110   6.473
92784SOL    HW180249   7.694   9.055   6.459
92784SOL    HW280250   7.749   9.162   6.551
92785SOL     OW80251   4.836   1.718   6.940
92785SOL    HW180252   4.904   1.753   6.883
92785SOL    HW280253   4.860   1.748   7.028
92786SOL     OW80254   3.381   0.919   9.234
92786SOL    HW180255   3.466   0.948   9.267
92786SOL    HW280256   3.394   0.908   9.140
92787SOL     OW80257  13.092   6.460  11.064
92787SOL    HW180258  13.081   6.553  11.047
92787SOL    HW280259  13.182   6.440  11.038
92788SOL     OW80260   4.700   9.878   0.690
92788SOL    HW180261   4.709   9.790   0.727
92788SOL    HW280262   4.782   9.893   0.644
92789SOL     OW80263  11.636   8.058   4.379
92789SOL    HW180264  11.598   8.128   4.434
92789SOL    HW280265  11.580   8.056   4.301
92790SOL     OW80266  10.819  14.649   8.336
92790SOL    HW180267  10.811  14.604   8.420
92790SOL    HW280268  10.885  14.600   8.288
92791SOL     OW80269   6.059  13.100  10.521
92791SOL    HW180270   6.049  13.158  10.445
92791SOL    HW280271   5.989  13.125  10.580
92792SOL     OW80272   6.012  11.901  11.997
92792SOL    HW180273   5.989  11.808  12.007
92792SOL    HW280274   5.995  11.920  11.905
92793SOL     OW80275   1.387   3.969   7.679
92793SOL    HW180276   1.406   4.039   7.742
92793SOL    HW280277   1.380   4.014   7.595
92794SOL     OW80278   3.435   1.318   7.523
92794SOL    HW180279   3.531   1.325   7.522
92794SOL    HW280280   3.417   1.232   7.486
92795SOL     OW80281   9.137   6.319   2.813
92795SOL    HW180282   9.151   6.368   2.894
92795SOL    HW280283   9.182   6.369   2.746
92796SOL     OW80284   1.405   7.406   9.301
92796SOL    HW180285   1.310   7.394   9.297
92796SOL    HW280286   1.434   7.343   9.366
92797SOL     OW80287  11.867  10.086   6.239
92797SOL    HW180288  11.864  10.026   6.313
92797SOL    HW280289  11.888  10.031   6.164
92798SOL     OW80290  10.628   7.033   0.788
92798SOL    HW180291  10.555   7.095   0.786
92798SOL    HW280292  10.602   6.966   0.850
92799SOL     OW80293   2.718  12.868   5.441
92799SOL    HW180294   2.689  12.778   5.459
92799SOL    HW280295   2.686  12.885   5.352
92800SOL     OW80296  13.419   5.507   0.385
92800SOL    HW180297  13.330   5.518   0.419
92800SOL    HW280298  13.434   5.585   0.331
92801SOL     OW80299   6.682   6.690   1.236
92801SOL    HW180300   6.720   6.767   1.280
92801SOL    HW280301   6.748   6.622   1.247
92802SOL     OW80302  10.324   1.258  11.298
92802SOL    HW180303  10.260   1.233  11.231
92802SOL    HW280304  10.409   1.252  11.254
92803SOL     OW80305  14.706   4.461  12.467
92803SOL    HW180306  14.780   4.405  12.443
92803SOL    HW280307  14.635   4.432  12.411
92804SOL     OW80308   8.854   8.495  13.763
92804SOL    HW180309   8.907   8.492  13.684
92804SOL    HW280310   8.776   8.546  13.738
92805SOL     OW80311  13.319  11.736  12.485
92805SOL    HW180312  13.361  11.734  12.400
92805SOL    HW280313  13.310  11.644  12.510
92806SOL     OW80314   7.327   6.559   2.677
92806SOL    HW180315   7.395   6.589   2.618
92806SOL    HW280316   7.369   6.492   2.731
92807SOL     OW80317   4.627  13.236   6.390
92807SOL    HW180318   4.674  13.310   6.352
92807SOL    HW280319   4.695  13.169   6.404
92808SOL     OW80320   7.755  14.413  13.510
92808SOL    HW180321   7.842  14.430  13.547
92808SOL    HW280322   7.729  14.497  13.472
92809SOL     OW80323   3.353   8.236   9.707
92809SOL    HW180324   3.426   8.244   9.769
92809SOL    HW280325   3.372   8.301   9.639
92810SOL     OW80326   5.863  13.834  12.172
92810SOL    HW180327   5.956  13.811  12.167
92810SOL    HW280328   5.839  13.856  12.083
92811SOL     OW80329   1.742  12.051   8.936
92811SOL    HW180330   1.726  12.084   9.025
92811SOL    HW280331   1.832  12.018   8.939
92812SOL     OW80332  11.004   3.457   0.047
92812SOL    HW180333  10.944   3.462   0.121
92812SOL    HW280334  10.959   3.402  14.851
92813SOL     OW80335  10.966   0.249   4.652
92813SOL    HW180336  11.020   0.276   4.578
92813SOL    HW280337  10.878   0.236   4.614
92814SOL     OW80338   2.790   3.132   5.414
92814SOL    HW180339   2.753   3.142   5.502
92814SOL    HW280340   2.870   3.185   5.415
92815SOL     OW80341   7.836   3.365   8.390
92815SOL    HW180342   7.906   3.412   8.344
92815SOL    HW280343   7.871   3.350   8.478
92816SOL     OW80344  11.734   1.878   8.208
92816SOL    HW180345  11.685   1.893   8.289
92816SOL    HW280346  11.672   1.837   8.149
92817SOL     OW80347   2.283  11.798   5.684
92817SOL    HW180348   2.207  11.763   5.731
92817SOL    HW280349   2.272  11.893   5.687
92818SOL     OW80350  12.481  12.608   1.446
92818SOL    HW180351  12.516  12.679   1.392
92818SOL    HW280352  12.444  12.546   1.383
92819SOL     OW80353  14.458   8.468   3.296
92819SOL    HW180354  14.443   8.479   3.202
92819SOL    HW280355  14.371   8.447   3.332
92820SOL     OW80356   2.434   2.866   2.170
92820SOL    HW180357   2.461   2.958   2.168
92820SOL    HW280358   2.515   2.818   2.189
92821SOL     OW80359  14.042   7.733   8.665
92821SOL    HW180360  14.013   7.649   8.630
92821SOL    HW280361  14.021   7.729   8.758
92822SOL     OW80362  10.115  11.583   4.210
92822SOL    HW180363  10.208  11.577   4.230
92822SOL    HW280364  10.111  11.588   4.115
92823SOL     OW80365   6.452   9.575  13.074
92823SOL    HW180366   6.429   9.577  13.167
92823SOL    HW280367   6.498   9.658  13.059
92824SOL     OW80368   7.600   9.867   2.810
92824SOL    HW180369   7.509   9.892   2.827
92824SOL    HW280370   7.599   9.832   2.721
92825SOL     OW80371   2.349  14.758   4.320
92825SOL    HW180372   2.277  14.695   4.327
92825SOL    HW280373   2.394  14.753   4.404
92826SOL     OW80374  12.554  13.965   2.216
92826SOL    HW180375  12.639  13.976   2.175
92826SOL    HW280376  12.510  14.049   2.205
92827SOL     OW80377   5.008   7.488   6.276
92827SOL    HW180378   5.000   7.579   6.246
92827SOL    HW280379   4.972   7.489   6.364
92828SOL     OW80380  12.598   6.644   5.612
92828SOL    HW180381  12.631   6.733   5.602
92828SOL    HW280382  12.504   6.651   5.592
92829SOL     OW80383   1.374  12.274  12.863
92829SOL    HW180384   1.302  12.273  12.799
92829SOL    HW280385   1.432  12.343  12.832
92830SOL     OW80386   3.409  12.992  13.659
92830SOL    HW180387   3.466  13.067  13.676
92830SOL    HW280388   3.340  13.027  13.602
92831SOL     OW80389   3.737   2.287   3.893
92831SOL    HW180390   3.642   2.275   3.891
92831SOL    HW280391   3.755   2.352   3.826
92832SOL     OW80392   3.429   1.280   4.207
92832SOL    HW180393   3.337   1.270   4.233
92832SOL    HW280394   3.458   1.360   4.250
92833SOL     OW80395   9.025  13.097   8.048
92833SOL    HW180396   9.111  13.131   8.072
92833SOL    HW280397   9.039  13.005   8.028
92834SOL     OW80398   0.073   8.093   9.589
92834SOL    HW180399   0.024   8.068   9.511
92834SOL    HW280400   0.145   8.030   9.593
92835SOL     OW80401   9.479   0.622  13.084
92835SOL    HW180402   9.573   0.618  13.102
92835SOL    HW280403   9.456   0.714  13.100
92836SOL     OW80404   7.082   2.407   9.533
92836SOL    HW180405   7.070   2.431   9.625
92836SOL    HW280406   7.170   2.439   9.512
92837SOL     OW80407   7.934  10.283   8.532
92837SOL    HW180408   7.903  10.197   8.505
92837SOL    HW280409   7.870  10.313   8.596
92838SOL     OW80410   0.258   5.220   5.014
92838SOL    HW180411   0.309   5.144   5.041
92838SOL    HW280412   0.288   5.290   5.072
92839SOL     OW80413   0.173   5.787   4.825
92839SOL    HW180414   0.142   5.847   4.892
92839SOL    HW280415   0.120   5.708   4.836
92840SOL     OW80416  12.272   1.130   7.981
92840SOL    HW180417  12.195   1.076   7.965
92840SOL    HW280418  12.337   1.098   7.918
92841SOL     OW80419  14.833  14.137   9.140
92841SOL    HW180420   0.018  14.159   9.217
92841SOL    HW280421  14.752  14.188   9.152
92842SOL     OW80422   3.737   7.458   3.578
92842SOL    HW180423   3.664   7.519   3.576
92842SOL    HW280424   3.702   7.377   3.541
92843SOL     OW80425  14.026  14.009   3.541
92843SOL    HW180426  13.963  14.020   3.470
92843SOL    HW280427  13.986  13.945   3.600
92844SOL     OW80428   5.151   4.182  10.451
92844SOL    HW180429   5.186   4.271  10.464
92844SOL    HW280430   5.121   4.155  10.537
92845SOL     OW80431   4.621  14.584   7.176
92845SOL    HW180432   4.710  14.612   7.155
92845SOL    HW280433   4.631  14.500   7.221
92846SOL     OW80434   0.706   7.779  13.241
92846SOL    HW180435   0.788   7.827  13.250
92846SOL    HW280436   0.664   7.818  13.164
92847SOL     OW80437  14.713   3.175  12.755
92847SOL    HW180438  14.778   3.107  12.773
92847SOL    HW280439  14.709   3.226  12.835
92848SOL     OW80440   9.414  10.102   1.934
92848SOL    HW180441   9.387  10.010   1.935
92848SOL    HW280442   9.361  10.142   1.866
92849SOL     OW80443   0.414  13.959  12.869
92849SOL    HW180444   0.369  14.044  12.866
92849SOL    HW280445   0.481  13.964  12.801
92850SOL     OW80446  10.239   3.313   5.654
92850SOL    HW180447  10.224   3.227   5.693
92850SOL    HW280448  10.235   3.374   5.728
92851SOL     OW80449  12.738   7.972  11.770
92851SOL    HW180450  12.772   7.905  11.829
92851SOL    HW280451  12.649   7.945  11.750
92852SOL     OW80452  11.573   4.661  11.817
92852SOL    HW180453  11.527   4.615  11.747
92852SOL    HW280454  11.629   4.594  11.856
92853SOL     OW80455   9.375   5.086   3.414
92853SOL    HW180456   9.329   5.151   3.468
92853SOL    HW280457   9.391   5.131   3.331
92854SOL     OW80458  11.449   9.537  14.811
92854SOL    HW180459  11.451   9.533  14.716
92854SOL    HW280460  11.515   9.475  14.840
92855SOL     OW80461  14.004   6.074  10.815
92855SOL    HW180462  14.083   6.116  10.781
92855SOL    HW280463  14.034   5.990  10.849
92856SOL     OW80464   9.497  14.163  10.369
92856SOL    HW180465   9.582  14.203  10.383
92856SOL    HW280466   9.511  14.070  10.387
92857SOL     OW80467   0.100  13.381  11.527
92857SOL    HW180468   0.010  13.352  11.542
92857SOL    HW280469   0.094  13.477  11.525
92858SOL     OW80470  14.779   0.837   7.567
92858SOL    HW180471  14.780   0.741   7.571
92858SOL    HW280472  14.828   0.865   7.644
92859SOL     OW80473   6.183   0.064  12.737
92859SOL    HW180474   6.226   0.106  12.811
92859SOL    HW280475   6.195  14.838  12.752
92860SOL     OW80476   7.464   0.723   1.009
92860SOL    HW180477   7.442   0.688   1.095
92860SOL    HW280478   7.463   0.646   0.951
92861SOL     OW80479  14.486   4.506   0.342
92861SOL    HW180480  14.465   4.440   0.408
92861SOL    HW280481  14.454   4.468   0.260
92862SOL     OW80482  14.644   3.896   1.992
92862SOL    HW180483  14.565   3.914   1.941
92862SOL    HW280484  14.627   3.811   2.033
92863SOL     OW80485   5.634  13.271  14.638
92863SOL    HW180486   5.603  13.358  14.664
92863SOL    HW280487   5.574  13.243  14.569
92864SOL     OW80488   8.762  13.027  13.166
92864SOL    HW180489   8.705  13.035  13.243
92864SOL    HW280490   8.832  12.969  13.194
92865SOL     OW80491  14.707  11.227   9.717
92865SOL    HW180492  14.678  11.157   9.659
92865SOL    HW280493  14.660  11.305   9.686
92866SOL     OW80494   0.195  11.830   2.268
92866SOL    HW180495   0.103  11.840   2.293
92866SOL    HW280496   0.244  11.837   2.350
92867SOL     OW80497   1.169   7.217  13.504
92867SOL    HW180498   1.206   7.132  13.482
92867SOL    HW280499   1.077   7.211  13.476
92868SOL     OW80500  11.003   1.798   2.043
92868SOL    HW180501  11.046   1.821   1.961
92868SOL    HW280502  10.910   1.793   2.022
92869SOL     OW80503  12.584  14.266   8.246
92869SOL    HW180504  12.599  14.223   8.162
92869SOL    HW280505  12.494  14.244   8.269
92870SOL     OW80506  14.340  13.356   2.369
92870SOL    HW180507  14.348  13.339   2.275
92870SOL    HW280508  14.415  13.412   2.390
92871SOL     OW80509   5.720   9.530   5.465
92871SOL    HW180510   5.785   9.600   5.467
92871SOL    HW280511   5.744   9.474   5.539
92872SOL     OW80512  12.583  13.045   0.124
92872SOL    HW180513  12.528  13.109   0.078
92872SOL    HW280514  12.607  13.089   0.205
92873SOL     OW80515   2.162   6.652  12.864
92873SOL    HW180516   2.147   6.588  12.933
92873SOL    HW280517   2.105   6.726  12.885
92874SOL     OW80518   4.490   5.652   8.959
92874SOL    HW180519   4.448   5.700   8.888
92874SOL    HW280520   4.556   5.598   8.916
92875SOL     OW80521   8.814  12.628  10.948
92875SOL    HW180522   8.866  12.619  11.027
92875SOL    HW280523   8.783  12.718  10.950
92876SOL     OW80524   0.576   4.885  10.482
92876SOL    HW180525   0.666   4.871  10.455
92876SOL    HW280526   0.526   4.888  10.400
92877SOL     OW80527   3.482  10.891   0.668
92877SOL    HW180528   3.515  10.803   0.686
92877SOL    HW280529   3.407  10.876   0.610
92878SOL     OW80530   9.799  12.455  10.158
92878SOL    HW180531   9.859  12.382  10.142
92878SOL    HW280532   9.788  12.497  10.073
92879SOL     OW80533   0.336   8.341   4.283
92879SOL    HW180534   0.375   8.307   4.363
92879SOL    HW280535   0.394   8.412   4.256
92880SOL     OW80536   7.713  13.767  13.786
92880SOL    HW180537   7.684  13.792  13.873
92880SOL    HW280538   7.788  13.710  13.800
92881SOL     OW80539   0.286   1.670   7.295
92881SOL    HW180540   0.200   1.692   7.260
92881SOL    HW280541   0.344   1.738   7.261
92882SOL     OW80542   6.886   1.445   6.813
92882SOL    HW180543   6.963   1.499   6.796
92882SOL    HW280544   6.882   1.438   6.908
92883SOL     OW80545   6.454   5.793   9.753
92883SOL    HW180546   6.471   5.734   9.827
92883SOL    HW280547   6.362   5.818   9.762
92884SOL     OW80548   9.154   3.155   2.314
92884SOL    HW180549   9.160   3.250   2.325
92884SOL    HW280550   9.245   3.124   2.313
92885SOL     OW80551  12.358  13.815   2.916
92885SOL    HW180552  12.294  13.826   2.846
92885SOL    HW280553  12.311  13.768   2.985
92886SOL     OW80554   2.965   2.329  14.582
92886SOL    HW180555   3.028   2.314  14.511
92886SOL    HW280556   2.950   2.424  14.580
92887SOL     OW80557   9.871   8.434  10.844
92887SOL    HW180558   9.866   8.526  10.819
92887SOL    HW280559   9.897   8.435  10.936
92888SOL     OW80560  12.827   3.528   9.155
92888SOL    HW180561  12.792   3.596   9.213
92888SOL    HW280562  12.762   3.458   9.159
92889SOL     OW80563   3.706   1.752   9.634
92889SOL    HW180564   3.658   1.692   9.692
92889SOL    HW280565   3.651   1.830   9.632
92890SOL     OW80566   5.548  12.614   9.478
92890SOL    HW180567   5.546  12.532   9.428
92890SOL    HW280568   5.607  12.596   9.550
92891SOL     OW80569   4.822  11.864   4.688
92891SOL    HW180570   4.764  11.905   4.624
92891SOL    HW280571   4.828  11.773   4.659
92892SOL     OW80572   4.010   5.205   7.140
92892SOL    HW180573   4.097   5.237   7.118
92892SOL    HW280574   3.983   5.258   7.215
92893SOL     OW80575   1.101   2.284   6.825
92893SOL    HW180576   1.014   2.251   6.803
92893SOL    HW280577   1.101   2.374   6.792
92894SOL     OW80578   0.185   1.277   7.903
92894SOL    HW180579   0.201   1.211   7.836
92894SOL    HW280580   0.101   1.316   7.879
92895SOL     OW80581   6.572   6.560  11.590
92895SOL    HW180582   6.521   6.623  11.539
92895SOL    HW280583   6.598   6.607  11.668
92896SOL     OW80584   8.410   8.829   8.601
92896SOL    HW180585   8.371   8.901   8.552
92896SOL    HW280586   8.442   8.769   8.533
92897SOL     OW80587   5.478  10.154  14.130
92897SOL    HW180588   5.543  10.108  14.184
92897SOL    HW280589   5.505  10.138  14.040
92898SOL     OW80590   3.702  10.019  10.737
92898SOL    HW180591   3.648   9.968  10.797
92898SOL    HW280592   3.777   9.962  10.718
92899SOL     OW80593   1.821   3.511   7.247
92899SOL    HW180594   1.825   3.430   7.196
92899SOL    HW280595   1.738   3.506   7.294
92900SOL     OW80596   0.626   8.670   9.678
92900SOL    HW180597   0.683   8.624   9.616
92900SOL    HW280598   0.563   8.605   9.707
92901SOL     OW80599   8.606   9.209  14.609
92901SOL    HW180600   8.520   9.167  14.612
92901SOL    HW280601   8.597   9.286  14.665
92902SOL     OW80602   1.335   3.707   2.226
92902SOL    HW180603   1.290   3.667   2.152
92902SOL    HW280604   1.411   3.751   2.187
92903SOL     OW80605   9.628   2.142   2.556
92903SOL    HW180606   9.606   2.193   2.478
92903SOL    HW280607   9.723   2.131   2.552
92904SOL     OW80608   4.940   7.567   8.509
92904SOL    HW180609   4.873   7.507   8.475
92904SOL    HW280610   4.915   7.580   8.600
92905SOL     OW80611   0.738  13.626   6.350
92905SOL    HW180612   0.821  13.637   6.395
92905SOL    HW280613   0.724  13.531   6.349
92906SOL     OW80614   4.094   2.702  13.575
92906SOL    HW180615   4.132   2.789  13.560
92906SOL    HW280616   4.023   2.718  13.638
92907SOL     OW80617   2.596  14.366  12.150
92907SOL    HW180618   2.667  14.308  12.177
92907SOL    HW280619   2.626  14.404  12.067
92908SOL     OW80620   4.368   7.603   5.131
92908SOL    HW180621   4.294   7.550   5.160
92908SOL    HW280622   4.445   7.561   5.169
92909SOL     OW80623   5.717   1.827   2.473
92909SOL    HW180624   5.653   1.857   2.538
92909SOL    HW280625   5.762   1.907   2.444
92910SOL     OW80626  12.434  14.197  10.855
92910SOL    HW180627  12.440  14.114  10.901
92910SOL    HW280628  12.380  14.252  10.911
92911SOL     OW80629   8.183  10.593   9.086
92911SOL    HW180630   8.217  10.649   9.156
92911SOL    HW280631   8.092  10.576   9.111
92912SOL     OW80632   4.699   7.804   3.878
92912SOL    HW180633   4.776   7.861   3.873
92912SOL    HW280634   4.700   7.769   3.968
92913SOL     OW80635   3.958   6.897   3.264
92913SOL    HW180636   3.959   6.802   3.277
92913SOL    HW280637   3.955   6.933   3.352
92914SOL     OW80638   0.751   8.019   1.161
92914SOL    HW180639   0.832   8.069   1.161
92914SOL    HW280640   0.684   8.081   1.133
92915SOL     OW80641   9.325   6.839   9.896
92915SOL    HW180642   9.278   6.922   9.909
92915SOL    HW280643   9.394   6.840   9.962
92916SOL     OW80644  10.984   0.196   8.176
92916SOL    HW180645  11.010   0.186   8.268
92916SOL    HW280646  11.027   0.277   8.148
92917SOL     OW80647   4.824  14.671   6.471
92917SOL    HW180648   4.918  14.675   6.490
92917SOL    HW280649   4.782  14.666   6.558
92918SOL     OW80650   6.146  12.094  14.428
92918SOL    HW180651   6.063  12.049  14.447
92918SOL    HW280652   6.190  12.037  14.364
92919SOL     OW80653   8.791   9.824   2.107
92919SOL    HW180654   8.830   9.768   2.174
92919SOL    HW280655   8.713   9.776   2.078
92920SOL     OW80656   8.534   7.833  13.753
92920SOL    HW180657   8.556   7.891  13.679
92920SOL    HW280658   8.439   7.825  13.750
92921SOL     OW80659  11.876   8.724   6.463
92921SOL    HW180660  11.934   8.681   6.526
92921SOL    HW280661  11.857   8.656   6.398
92922SOL     OW80662   2.956   2.586   4.339
92922SOL    HW180663   2.897   2.542   4.278
92922SOL    HW280664   2.981   2.517   4.401
92923SOL     OW80665  10.088  10.179   7.990
92923SOL    HW180666  10.164  10.122   7.999
92923SOL    HW280667  10.118  10.264   8.022
92924SOL     OW80668   6.749   7.084   7.650
92924SOL    HW180669   6.697   7.161   7.672
92924SOL    HW280670   6.838   7.117   7.643
92925SOL     OW80671   6.475   8.668  14.346
92925SOL    HW180672   6.405   8.734  14.339
92925SOL    HW280673   6.461   8.627  14.432
92926SOL     OW80674  10.473   0.248  14.198
92926SOL    HW180675  10.433   0.232  14.113
92926SOL    HW280676  10.561   0.210  14.191
92927SOL     OW80677   8.926   4.132  12.126
92927SOL    HW180678   8.924   4.036  12.123
92927SOL    HW280679   8.860   4.155  12.192
92928SOL     OW80680   7.308  11.638   6.501
92928SOL    HW180681   7.311  11.734   6.507
92928SOL    HW280682   7.395  11.610   6.529
92929SOL     OW80683  14.797   3.241   4.880
92929SOL    HW180684  14.787   3.192   4.798
92929SOL    HW280685  14.846   3.182   4.937
92930SOL     OW80686  12.309   6.740  13.027
92930SOL    HW180687  12.297   6.832  13.002
92930SOL    HW280688  12.290   6.691  12.948
92931SOL     OW80689   2.650   1.458  13.461
92931SOL    HW180690   2.730   1.497  13.497
92931SOL    HW280691   2.662   1.463  13.366
92932SOL     OW80692   8.987   4.303   9.053
92932SOL    HW180693   8.950   4.220   9.022
92932SOL    HW280694   8.956   4.311   9.142
92933SOL     OW80695  11.528  11.859   0.623
92933SOL    HW180696  11.517  11.940   0.673
92933SOL    HW280697  11.459  11.801   0.656
92934SOL     OW80698   7.521   2.156   6.728
92934SOL    HW180699   7.546   2.176   6.818
92934SOL    HW280700   7.466   2.230   6.701
92935SOL     OW80701   6.848  13.155  13.863
92935SOL    HW180702   6.755  13.180  13.857
92935SOL    HW280703   6.886  13.220  13.922
92936SOL     OW80704  11.234   6.736  10.641
92936SOL    HW180705  11.195   6.794  10.575
92936SOL    HW280706  11.326   6.730  10.615
92937SOL     OW80707   1.821  10.140   1.539
92937SOL    HW180708   1.786  10.083   1.471
92937SOL    HW280709   1.813  10.089   1.620
92938SOL     OW80710  12.951   0.546  10.078
92938SOL    HW180711  13.003   0.627  10.075
92938SOL    HW280712  12.982   0.495  10.003
92939SOL     OW80713   2.045   7.541   7.410
92939SOL    HW180714   2.114   7.501   7.358
92939SOL    HW280715   1.965   7.495   7.384
92940SOL     OW80716  14.013   2.395   1.081
92940SOL    HW180717  14.076   2.334   1.119
92940SOL    HW280718  13.957   2.421   1.154
92941SOL     OW80719   4.962   0.558   0.368
92941SOL    HW180720   5.010   0.511   0.435
92941SOL    HW280721   4.888   0.501   0.347
92942SOL     OW80722  13.417  11.472   8.600
92942SOL    HW180723  13.342  11.488   8.543
92942SOL    HW280724  13.480  11.425   8.544
92943SOL     OW80725   2.089   5.292   4.903
92943SOL    HW180726   2.085   5.326   4.992
92943SOL    HW280727   2.051   5.204   4.908
92944SOL     OW80728  13.921   3.723   4.253
92944SOL    HW180729  13.958   3.654   4.308
92944SOL    HW280730  13.955   3.804   4.291
92945SOL     OW80731  11.882   9.418   2.036
92945SOL    HW180732  11.953   9.475   2.064
92945SOL    HW280733  11.837   9.468   1.967
92946SOL     OW80734   4.533  13.546  11.196
92946SOL    HW180735   4.623  13.523  11.172
92946SOL    HW280736   4.484  13.536  11.114
92947SOL     OW80737  10.428   0.750  10.470
92947SOL    HW180738  10.408   0.712  10.385
92947SOL    HW280739  10.411   0.680  10.533
92948SOL     OW80740   1.867  12.051   8.307
92948SOL    HW180741   1.844  11.969   8.352
92948SOL    HW280742   1.916  12.101   8.373
92949SOL     OW80743   1.946  10.607   9.470
92949SOL    HW180744   1.892  10.628   9.546
92949SOL    HW280745   1.950  10.512   9.469
92950SOL     OW80746  12.879  12.959   1.714
92950SOL    HW180747  12.893  13.033   1.773
92950SOL    HW280748  12.863  12.885   1.773
92951SOL     OW80749   8.633  12.478  12.575
92951SOL    HW180750   8.558  12.534  12.593
92951SOL    HW280751   8.620  12.448  12.485
92952SOL     OW80752   4.727  10.386  14.820
92952SOL    HW180753   4.695  10.351   0.035
92952SOL    HW280754   4.677  10.467  14.808
92953SOL     OW80755   0.818   5.007   0.904
92953SOL    HW180756   0.860   5.028   0.987
92953SOL    HW280757   0.775   4.923   0.920
92954SOL     OW80758  13.273   8.215   9.633
92954SOL    HW180759  13.326   8.195   9.710
92954SOL    HW280760  13.239   8.130   9.604
92955SOL     OW80761  11.795   5.648   4.889
92955SOL    HW180762  11.807   5.554   4.899
92955SOL    HW280763  11.763   5.659   4.799
92956SOL     OW80764  14.011   3.585  11.974
92956SOL    HW180765  14.100   3.567  12.005
92956SOL    HW280766  13.969   3.499  11.970
92957SOL     OW80767   6.792   8.315   2.617
92957SOL    HW180768   6.844   8.334   2.539
92957SOL    HW280769   6.813   8.224   2.638
92958SOL     OW80770   4.273   9.687   7.739
92958SOL    HW180771   4.324   9.664   7.816
92958SOL    HW280772   4.187   9.646   7.753
92959SOL     OW80773  14.365  10.325  10.636
92959SOL    HW180774  14.387  10.357  10.548
92959SOL    HW280775  14.271  10.340  10.644
92960SOL     OW80776   6.281  14.290   4.988
92960SOL    HW180777   6.202  14.240   5.009
92960SOL    HW280778   6.297  14.270   4.895
92961SOL     OW80779  14.847   0.583   2.608
92961SOL    HW180780  14.808   0.512   2.557
92961SOL    HW280781  14.773   0.625   2.652
92962SOL     OW80782  10.322   6.595   0.291
92962SOL    HW180783  10.342   6.564   0.379
92962SOL    HW280784  10.268   6.526   0.253
92963SOL     OW80785   8.151   8.750   6.093
92963SOL    HW180786   8.084   8.784   6.034
92963SOL    HW280787   8.225   8.729   6.036
92964SOL     OW80788   1.055   8.610   4.585
92964SOL    HW180789   1.060   8.637   4.677
92964SOL    HW280790   1.038   8.692   4.538
92965SOL     OW80791   0.172   6.499   2.896
92965SOL    HW180792   0.248   6.544   2.861
92965SOL    HW280793   0.174   6.412   2.856
92966SOL     OW80794   7.117   2.710   2.011
92966SOL    HW180795   7.133   2.616   2.003
92966SOL    HW280796   7.199   2.746   2.045
92967SOL     OW80797  10.349   8.772   5.642
92967SOL    HW180798  10.329   8.855   5.598
92967SOL    HW280799  10.264   8.729   5.651
92968SOL     OW80800   7.088   3.718   9.799
92968SOL    HW180801   7.165   3.692   9.750
92968SOL    HW280802   7.101   3.811   9.818
92969SOL     OW80803  10.525  13.393   1.993
92969SOL    HW180804  10.585  13.466   2.010
92969SOL    HW280805  10.583  13.320   1.973
92970SOL     OW80806  11.549   6.569   1.752
92970SOL    HW180807  11.482   6.593   1.816
92970SOL    HW280808  11.538   6.632   1.681
92971SOL     OW80809   8.579   4.512  10.804
92971SOL    HW180810   8.585   4.419  10.785
92971SOL    HW280811   8.668   4.546  10.789
92972SOL     OW80812  13.434   2.791   2.961
92972SOL    HW180813  13.457   2.721   3.022
92972SOL    HW280814  13.425   2.747   2.876
92973SOL     OW80815   2.556  11.110   0.569
92973SOL    HW180816   2.627  11.140   0.626
92973SOL    HW280817   2.549  11.178   0.502
92974SOL     OW80818   6.027   6.836   8.976
92974SOL    HW180819   6.031   6.776   9.050
92974SOL    HW280820   5.938   6.829   8.943
92975SOL     OW80821  11.017  13.205  11.208
92975SOL    HW180822  10.982  13.118  11.186
92975SOL    HW280823  10.963  13.266  11.157
92976SOL     OW80824   7.888  11.493  11.024
92976SOL    HW180825   7.847  11.541  11.096
92976SOL    HW280826   7.816  11.442  10.986
92977SOL     OW80827   9.280   4.980   3.033
92977SOL    HW180828   9.299   5.015   2.946
92977SOL    HW280829   9.366   4.953   3.067
92978SOL     OW80830   3.233   0.998   0.126
92978SOL    HW180831   3.244   1.004   0.221
92978SOL    HW280832   3.257   0.907   0.106
92979SOL     OW80833   2.089   0.004   3.386
92979SOL    HW180834   2.043   0.068   3.332
92979SOL    HW280835   2.164   0.051   3.420
92980SOL     OW80836  13.762  13.752   0.383
92980SOL    HW180837  13.779  13.701   0.463
92980SOL    HW280838  13.674  13.787   0.396
92981SOL     OW80839  11.211   8.586  13.436
92981SOL    HW180840  11.301   8.555  13.426
92981SOL    HW280841  11.162   8.507  13.462
92982SOL     OW80842   2.162   4.482   3.280
92982SOL    HW180843   2.084   4.465   3.333
92982SOL    HW280844   2.228   4.422   3.314
92983SOL     OW80845   3.295  14.630   9.093
92983SOL    HW180846   3.280  14.657   9.003
92983SOL    HW280847   3.227  14.673   9.144
92984SOL     OW80848   3.969  11.470  12.242
92984SOL    HW180849   3.906  11.398  12.228
92984SOL    HW280850   4.052  11.426  12.261
92985SOL     OW80851   0.268  11.223  11.239
92985SOL    HW180852   0.187  11.221  11.189
92985SOL    HW280853   0.240  11.230  11.331
92986SOL     OW80854  14.643   3.594   0.667
92986SOL    HW180855  14.708   3.632   0.608
92986SOL    HW280856  14.576   3.558   0.608
92987SOL     OW80857   8.565   5.995   8.487
92987SOL    HW180858   8.616   5.940   8.547
92987SOL    HW280859   8.631   6.047   8.441
92988SOL     OW80860   7.822  11.909   2.948
92988SOL    HW180861   7.773  11.829   2.927
92988SOL    HW280862   7.817  11.962   2.868
92989SOL     OW80863  10.660   6.670   0.696
92989SOL    HW180864  10.688   6.624   0.617
92989SOL    HW280865  10.648   6.761   0.668
92990SOL     OW80866   2.771   0.891   4.481
92990SOL    HW180867   2.806   0.973   4.515
92990SOL    HW280868   2.848   0.835   4.467
92991SOL     OW80869   5.442  12.771   5.347
92991SOL    HW180870   5.420  12.712   5.275
92991SOL    HW280871   5.537  12.774   5.348
92992SOL     OW80872   2.663  11.614   6.515
92992SOL    HW180873   2.726  11.685   6.520
92992SOL    HW280874   2.707  11.539   6.554
92993SOL     OW80875   4.152   0.819   3.663
92993SOL    HW180876   4.167   0.772   3.582
92993SOL    HW280877   4.210   0.895   3.658
92994SOL     OW80878   8.480  13.468  12.023
92994SOL    HW180879   8.502  13.476  12.116
92994SOL    HW280880   8.563  13.452  11.980
92995SOL     OW80881   5.508   0.567   4.433
92995SOL    HW180882   5.480   0.476   4.441
92995SOL    HW280883   5.493   0.604   4.520
92996SOL     OW80884   4.496   2.268  13.305
92996SOL    HW180885   4.475   2.280  13.398
92996SOL    HW280886   4.562   2.198  13.304
92997SOL     OW80887   5.836  13.295   8.016
92997SOL    HW180888   5.882  13.211   8.005
92997SOL    HW280889   5.747  13.270   8.040
92998SOL     OW80890   7.364   6.635  11.681
92998SOL    HW180891   7.284   6.661  11.727
92998SOL    HW280892   7.387   6.710  11.627
92999SOL     OW80893   4.651   3.052   9.179
92999SOL    HW180894   4.607   2.968   9.168
92999SOL    HW280895   4.740   3.036   9.150
93000SOL     OW80896   3.931  11.956  14.107
93000SOL    HW180897   3.846  11.963  14.065
93000SOL    HW280898   3.960  11.867  14.088
93001SOL     OW80899   1.086   6.686   7.213
93001SOL    HW180900   0.997   6.661   7.188
93001SOL    HW280901   1.091   6.779   7.192
93002SOL     OW80902   6.832   4.932   0.286
93002SOL    HW180903   6.773   4.919   0.360
93002SOL    HW280904   6.815   4.859   0.227
93003SOL     OW80905  14.613   8.435   2.324
93003SOL    HW180906  14.556   8.358   2.321
93003SOL    HW280907  14.699   8.401   2.299
93004SOL     OW80908   3.214   0.782   0.984
93004SOL    HW180909   3.151   0.825   0.926
93004SOL    HW280910   3.202   0.688   0.966
93005SOL     OW80911   4.039   1.374   5.435
93005SOL    HW180912   4.121   1.362   5.483
93005SOL    HW280913   4.052   1.455   5.385
93006SOL     OW80914  12.472   4.600  12.214
93006SOL    HW180915  12.515   4.686  12.209
93006SOL    HW280916  12.381   4.617  12.193
93007SOL     OW80917  12.802   0.316   6.332
93007SOL    HW180918  12.774   0.243   6.276
93007SOL    HW280919  12.896   0.304   6.342
93008SOL     OW80920   1.582   7.071   6.100
93008SOL    HW180921   1.517   7.008   6.069
93008SOL    HW280922   1.648   7.074   6.031
93009SOL     OW80923   2.258  12.383   7.190
93009SOL    HW180924   2.245  12.332   7.110
93009SOL    HW280925   2.352  12.401   7.193
93010SOL     OW80926   8.870   3.581   1.987
93010SOL    HW180927   8.939   3.640   1.955
93010SOL    HW280928   8.788   3.621   1.957
93011SOL     OW80929   6.295  13.210   9.108
93011SOL    HW180930   6.258  13.132   9.065
93011SOL    HW280931   6.241  13.282   9.077
93012SOL     OW80932   4.767   4.847   0.052
93012SOL    HW180933   4.691   4.906   0.060
93012SOL    HW280934   4.838   4.894   0.096
93013SOL     OW80935  13.540   8.999   1.730
93013SOL    HW180936  13.517   9.089   1.710
93013SOL    HW280937  13.588   8.969   1.653
93014SOL     OW80938   0.324   7.568   3.972
93014SOL    HW180939   0.361   7.648   3.935
93014SOL    HW280940   0.318   7.507   3.897
93015SOL     OW80941   9.339   1.333   6.444
93015SOL    HW180942   9.348   1.428   6.444
93015SOL    HW280943   9.399   1.304   6.513
93016SOL     OW80944  11.610  10.081  12.317
93016SOL    HW180945  11.571   9.997  12.294
93016SOL    HW280946  11.647  10.067  12.405
93017SOL     OW80947   5.276   3.366   2.410
93017SOL    HW180948   5.349   3.307   2.428
93017SOL    HW280949   5.314   3.453   2.414
93018SOL     OW80950   9.789  13.585   2.698
93018SOL    HW180951   9.799  13.528   2.774
93018SOL    HW280952   9.790  13.673   2.734
93019SOL     OW80953   4.066  11.586   8.497
93019SOL    HW180954   4.014  11.515   8.462
93019SOL    HW280955   4.069  11.651   8.427
93020SOL     OW80956  11.118   1.599   5.631
93020SOL    HW180957  11.033   1.641   5.618
93020SOL    HW280958  11.179   1.671   5.642
93021SOL     OW80959   8.396   2.229   8.354
93021SOL    HW180960   8.357   2.231   8.442
93021SOL    HW280961   8.323   2.244   8.295
93022SOL     OW80962   5.676  11.741   1.331
93022SOL    HW180963   5.628  11.682   1.273
93022SOL    HW280964   5.724  11.799   1.273
93023SOL     OW80965  13.832   0.415   6.076
93023SOL    HW180966  13.817   0.411   6.171
93023SOL    HW280967  13.884   0.337   6.057
93024SOL     OW80968   8.964   1.146  12.720
93024SOL    HW180969   9.004   1.206  12.658
93024SOL    HW280970   9.038   1.109  12.769
93025SOL     OW80971   6.707   6.710  13.099
93025SOL    HW180972   6.779   6.755  13.056
93025SOL    HW280973   6.653   6.677  13.026
93026SOL     OW80974  11.523   9.310   6.444
93026SOL    HW180975  11.610   9.276   6.462
93026SOL    HW280976  11.538   9.389   6.392
93027SOL     OW80977  14.830   5.913   0.792
93027SOL    HW180978  14.832   5.968   0.871
93027SOL    HW280979   0.017   5.838   0.813
93028SOL     OW80980   1.960   1.611   0.938
93028SOL    HW180981   1.872   1.635   0.907
93028SOL    HW280982   1.979   1.528   0.894
93029SOL     OW80983  10.270   3.099   3.322
93029SOL    HW180984  10.251   3.063   3.235
93029SOL    HW280985  10.363   3.080   3.336
93030SOL     OW80986   3.558   9.542   9.793
93030SOL    HW180987   3.510   9.517   9.714
93030SOL    HW280988   3.630   9.596   9.761
93031SOL     OW80989  11.960   0.580  10.530
93031SOL    HW180990  11.984   0.662  10.574
93031SOL    HW280991  11.866   0.590  10.511
93032SOL     OW80992   5.910   7.657  10.107
93032SOL    HW180993   6.001   7.673  10.081
93032SOL    HW280994   5.864   7.640  10.025
93033SOL     OW80995   5.391  11.748   1.456
93033SOL    HW180996   5.476  11.706   1.450
93033SOL    HW280997   5.346  11.722   1.375
93034SOL     OW80998   8.660  14.619   3.045
93034SOL    HW180999   8.597  14.548   3.029
93034SOL    HW281000   8.680  14.652   2.957
93035SOL     OW81001   1.677   9.955   0.440
93035SOL    HW181002   1.691   9.869   0.402
93035SOL    HW281003   1.689  10.016   0.368
93036SOL     OW81004   8.040   2.957   3.669
93036SOL    HW181005   7.969   3.012   3.704
93036SOL    HW281006   8.032   2.874   3.715
93037SOL     OW81007  12.770  12.445   5.368
93037SOL    HW181008  12.738  12.514   5.426
93037SOL    HW281009  12.855  12.420   5.405
93038SOL     OW81010   7.908  12.766  13.174
93038SOL    HW181011   7.819  12.733  13.186
93038SOL    HW281012   7.962  12.688  13.160
93039SOL     OW81013  10.057   4.137  13.037
93039SOL    HW181014  10.129   4.195  13.058
93039SOL    HW281015  10.075   4.057  13.086
93040SOL     OW81016   4.879  11.307   3.534
93040SOL    HW181017   4.893  11.401   3.526
93040SOL    HW281018   4.784  11.298   3.544
93041SOL     OW81019  10.055  10.834  12.400
93041SOL    HW181020   9.998  10.828  12.477
93041SOL    HW281021  10.105  10.915  12.413
93042SOL     OW81022   6.567  11.228   3.847
93042SOL    HW181023   6.550  11.152   3.903
93042SOL    HW281024   6.662  11.241   3.852
93043SOL     OW81025  12.630   7.988   8.467
93043SOL    HW181026  12.661   8.063   8.518
93043SOL    HW281027  12.541   8.011   8.442
93044SOL     OW81028   6.675   5.415   2.428
93044SOL    HW181029   6.646   5.343   2.371
93044SOL    HW281030   6.767   5.427   2.405
93045SOL     OW81031   0.137   2.746  13.708
93045SOL    HW181032   0.187   2.713  13.633
93045SOL    HW281033   0.105   2.832  13.679
93046SOL     OW81034   3.845   2.913  10.290
93046SOL    HW181035   3.937   2.903  10.266
93046SOL    HW281036   3.807   2.826  10.279
93047SOL     OW81037  12.872   8.434   4.981
93047SOL    HW181038  12.936   8.463   5.046
93047SOL    HW281039  12.853   8.343   5.004
93048SOL     OW81040   7.173  11.565   4.998
93048SOL    HW181041   7.094  11.529   5.039
93048SOL    HW281042   7.196  11.641   5.051
93049SOL     OW81043   0.429   0.722  10.220
93049SOL    HW181044   0.470   0.713  10.307
93049SOL    HW281045   0.486   0.671  10.162
93050SOL     OW81046   8.795   1.869   5.725
93050SOL    HW181047   8.798   1.896   5.633
93050SOL    HW281048   8.788   1.773   5.721
93051SOL     OW81049  12.269   2.970  11.014
93051SOL    HW181050  12.177   2.992  11.004
93051SOL    HW281051  12.305   3.041  11.067
93052SOL     OW81052   0.647  14.766  13.754
93052SOL    HW181053   0.595  14.821  13.812
93052SOL    HW281054   0.593  14.689  13.739
93053SOL     OW81055   0.764   0.610   3.905
93053SOL    HW181056   0.741   0.551   3.977
93053SOL    HW281057   0.856   0.633   3.921
93054SOL     OW81058  14.692  11.820  13.265
93054SOL    HW181059  14.601  11.800  13.244
93054SOL    HW281060  14.710  11.902  13.219
93055SOL     OW81061  13.596   5.780  11.091
93055SOL    HW181062  13.655   5.838  11.042
93055SOL    HW281063  13.601   5.812  11.181
93056SOL     OW81064  14.065   4.100  11.446
93056SOL    HW181065  14.059   4.018  11.494
93056SOL    HW281066  13.993   4.154  11.480
93057SOL     OW81067  10.298   4.353  14.663
93057SOL    HW181068  10.332   4.350  14.574
93057SOL    HW281069  10.330   4.437  14.698
93058SOL     OW81070  10.761  12.167  13.655
93058SOL    HW181071  10.777  12.083  13.699
93058SOL    HW281072  10.729  12.143  13.568
93059SOL     OW81073   7.251  14.531  11.279
93059SOL    HW181074   7.176  14.518  11.221
93059SOL    HW281075   7.313  14.463  11.255
93060SOL     OW81076   1.343   7.417  14.276
93060SOL    HW181077   1.338   7.446  14.185
93060SOL    HW281078   1.430   7.446  14.306
93061SOL     OW81079   2.634   2.423   1.171
93061SOL    HW181080   2.624   2.330   1.193
93061SOL    HW281081   2.715   2.426   1.119
93062SOL     OW81082   9.933   2.941   4.268
93062SOL    HW181083   9.987   2.982   4.201
93062SOL    HW281084   9.854   2.995   4.272
93063SOL     OW81085   4.690  12.844  13.391
93063SOL    HW181086   4.599  12.818  13.376
93063SOL    HW281087   4.691  12.877  13.481
93064SOL     OW81088   4.840  14.785   7.691
93064SOL    HW181089   4.821  14.703   7.646
93064SOL    HW281090   4.923  14.815   7.653
93065SOL     OW81091   8.154   2.532   2.454
93065SOL    HW181092   8.128   2.546   2.363
93065SOL    HW281093   8.237   2.579   2.463
93066SOL     OW81094  13.115   2.911   1.975
93066SOL    HW181095  13.142   2.835   1.923
93066SOL    HW281096  13.192   2.967   1.977
93067SOL     OW81097   0.873   1.193   8.824
93067SOL    HW181098   0.819   1.114   8.815
93067SOL    HW281099   0.884   1.225   8.734
93068SOL     OW81100   4.106   9.855   7.963
93068SOL    HW181101   4.059   9.869   7.880
93068SOL    HW281102   4.171   9.926   7.965
93069SOL     OW81103   8.914   1.129   6.969
93069SOL    HW181104   9.003   1.127   7.003
93069SOL    HW281105   8.923   1.143   6.875
93070SOL     OW81106   1.896  12.486  10.871
93070SOL    HW181107   1.895  12.520  10.781
93070SOL    HW281108   1.985  12.454  10.883
93071SOL     OW81109   3.104  10.339   4.903
93071SOL    HW181110   3.086  10.312   4.993
93071SOL    HW281111   3.145  10.262   4.863
93072SOL     OW81112  10.249   1.434  13.653
93072SOL    HW181113  10.186   1.411  13.585
93072SOL    HW281114  10.311   1.493  13.609
93073SOL     OW81115   8.050   6.222   7.171
93073SOL    HW181116   8.010   6.207   7.257
93073SOL    HW281117   7.991   6.179   7.109
93074SOL     OW81118  10.150   8.656  12.925
93074SOL    HW181119  10.239   8.670  12.894
93074SOL    HW281120  10.099   8.643  12.845
93075SOL     OW81121   5.732   8.292  10.860
93075SOL    HW181122   5.791   8.240  10.915
93075SOL    HW281123   5.683   8.227  10.810
93076SOL     OW81124   2.154  11.440  12.908
93076SOL    HW181125   2.070  11.485  12.915
93076SOL    HW281126   2.154  11.402  12.820
93077SOL     OW81127   2.756   5.441   4.846
93077SOL    HW181128   2.813   5.378   4.800
93077SOL    HW281129   2.668   5.422   4.812
93078SOL     OW81130   3.080  14.142   2.284
93078SOL    HW181131   3.110  14.233   2.279
93078SOL    HW281132   3.153  14.094   2.324
93079SOL     OW81133  10.816  10.746  10.716
93079SOL    HW181134  10.848  10.821  10.667
93079SOL    HW281135  10.763  10.783  10.786
93080SOL     OW81136  14.222  11.809   3.664
93080SOL    HW181137  14.173  11.872   3.716
93080SOL    HW281138  14.164  11.787   3.591
93081SOL     OW81139   4.979   8.401   5.904
93081SOL    HW181140   4.992   8.443   5.819
93081SOL    HW281141   5.066   8.396   5.942
93082SOL     OW81142  10.133  12.951  14.575
93082SOL    HW181143  10.113  12.904  14.494
93082SOL    HW281144  10.218  12.992  14.558
93083SOL     OW81145   1.278   5.555   8.397
93083SOL    HW181146   1.288   5.647   8.373
93083SOL    HW281147   1.296   5.507   8.316
93084SOL     OW81148   3.268  14.508   0.782
93084SOL    HW181149   3.203  14.556   0.732
93084SOL    HW281150   3.339  14.570   0.796
93085SOL     OW81151   5.535   8.889   9.889
93085SOL    HW181152   5.461   8.912   9.944
93085SOL    HW281153   5.503   8.819   9.833
93086SOL     OW81154  14.721   5.057  12.218
93086SOL    HW181155  14.686   4.982  12.266
93086SOL    HW281156  14.644   5.101  12.181
93087SOL     OW81157  12.218  10.658  11.583
93087SOL    HW181158  12.220  10.586  11.519
93087SOL    HW281159  12.125  10.680  11.591
93088SOL     OW81160   3.070   0.601  12.832
93088SOL    HW181161   3.096   0.690  12.811
93088SOL    HW281162   3.058   0.601  12.927
93089SOL     OW81163  12.726   2.261  13.173
93089SOL    HW181164  12.796   2.265  13.108
93089SOL    HW281165  12.729   2.347  13.217
93090SOL     OW81166   6.546   2.592   9.018
93090SOL    HW181167   6.469   2.536   9.016
93090SOL    HW281168   6.512   2.680   9.001
93091SOL     OW81169   3.645  12.370   2.990
93091SOL    HW181170   3.562  12.399   2.953
93091SOL    HW281171   3.704  12.361   2.915
93092SOL     OW81172   8.209   7.930   0.103
93092SOL    HW181173   8.292   7.949   0.060
93092SOL    HW281174   8.206   7.990   0.177
93093SOL     OW81175  13.737   4.543   4.425
93093SOL    HW181176  13.709   4.488   4.498
93093SOL    HW281177  13.759   4.627   4.465
93094SOL     OW81178  13.470  13.577   1.543
93094SOL    HW181179  13.459  13.485   1.520
93094SOL    HW281180  13.562  13.596   1.524
93095SOL     OW81181  14.340   4.641  10.862
93095SOL    HW181182  14.422   4.687  10.880
93095SOL    HW281183  14.303   4.687  10.786
93096SOL     OW81184  12.848  11.159   7.716
93096SOL    HW181185  12.894  11.242   7.709
93096SOL    HW281186  12.760  11.177   7.684
93097SOL     OW81187  13.556  13.953  14.802
93097SOL    HW181188  13.638  14.003  14.805
93097SOL    HW281189  13.503  13.991   0.004
93098SOL     OW81190  13.520   2.100  14.659
93098SOL    HW181191  13.465   2.110  14.737
93098SOL    HW281192  13.546   2.008  14.659
93099SOL     OW81193   2.315  12.133   4.795
93099SOL    HW181194   2.379  12.120   4.725
93099SOL    HW281195   2.314  12.050   4.842
93100SOL     OW81196  14.298   0.127   8.075
93100SOL    HW181197  14.304   0.155   7.984
93100SOL    HW281198  14.219   0.169   8.108
93101SOL     OW81199   2.783   8.802  12.975
93101SOL    HW181200   2.754   8.730  13.032
93101SOL    HW281201   2.725   8.796  12.899
93102SOL     OW81202   2.878  13.248   3.803
93102SOL    HW181203   2.939  13.262   3.731
93102SOL    HW281204   2.920  13.180   3.856
93103SOL     OW81205  12.502   1.582  10.167
93103SOL    HW181206  12.522   1.642  10.095
93103SOL    HW281207  12.411   1.602  10.190
93104SOL     OW81208  11.266   3.781   7.593
93104SOL    HW181209  11.220   3.746   7.669
93104SOL    HW281210  11.264   3.876   7.605
93105SOL     OW81211  13.477   5.496   9.728
93105SOL    HW181212  13.403   5.470   9.673
93105SOL    HW281213  13.547   5.435   9.705
93106SOL     OW81214   6.718  10.721   1.427
93106SOL    HW181215   6.789  10.762   1.378
93106SOL    HW281216   6.719  10.763   1.513
93107SOL     OW81217  12.302   6.235   4.325
93107SOL    HW181218  12.270   6.194   4.246
93107SOL    HW281219  12.385   6.276   4.300
93108SOL     OW81220   1.049   3.408   8.230
93108SOL    HW181221   0.969   3.400   8.282
93108SOL    HW281222   1.105   3.466   8.282
93109SOL     OW81223  13.791  11.675  12.676
93109SOL    HW181224  13.725  11.676  12.746
93109SOL    HW281225  13.816  11.767  12.665
93110SOL     OW81226   0.365   8.873   7.332
93110SOL    HW181227   0.428   8.838   7.269
93110SOL    HW281228   0.348   8.801   7.393
93111SOL     OW81229   9.392  12.076   2.812
93111SOL    HW181230   9.375  11.982   2.803
93111SOL    HW281231   9.395  12.108   2.722
93112SOL     OW81232   4.384   5.866  11.166
93112SOL    HW181233   4.357   5.948  11.124
93112SOL    HW281234   4.447   5.893  11.233
93113SOL     OW81235   1.970  10.106   2.129
93113SOL    HW181236   2.023  10.142   2.201
93113SOL    HW281237   1.898  10.169   2.119
93114SOL     OW81238  13.251  10.363  13.462
93114SOL    HW181239  13.169  10.365  13.412
93114SOL    HW281240  13.319  10.359  13.394
93115SOL     OW81241   0.219   0.735   5.855
93115SOL    HW181242   0.224   0.792   5.932
93115SOL    HW281243   0.197   0.794   5.783
93116SOL     OW81244   0.114   0.300   8.492
93116SOL    HW181245   0.049   0.342   8.436
93116SOL    HW281246   0.128   0.362   8.563
93117SOL     OW81247   0.177   1.286   5.762
93117SOL    HW181248   0.155   1.303   5.670
93117SOL    HW281249   0.143   1.363   5.808
93118SOL     OW81250   5.717   7.799   2.481
93118SOL    HW181251   5.724   7.894   2.468
93118SOL    HW281252   5.643   7.773   2.426
93119SOL     OW81253   6.062  12.957   5.890
93119SOL    HW181254   6.039  12.872   5.851
93119SOL    HW281255   6.021  12.955   5.976
93120SOL     OW81256   5.658   1.916   2.847
93120SOL    HW181257   5.734   1.896   2.792
93120SOL    HW281258   5.695   1.932   2.934
93121SOL     OW81259  10.173  14.791   1.609
93121SOL    HW181260  10.262  14.807   1.579
93121SOL    HW281261  10.123   0.000   1.580
93122SOL     OW81262  10.875   7.720  13.623
93122SOL    HW181263  10.791   7.732  13.667
93122SOL    HW281264  10.854   7.718  13.530
93123SOL     OW81265   5.019   2.056  10.981
93123SOL    HW181266   5.027   2.064  11.076
93123SOL    HW281267   5.082   2.120  10.946
93124SOL     OW81268  10.851   7.466  11.826
93124SOL    HW181269  10.789   7.490  11.758
93124SOL    HW281270  10.877   7.549  11.865
93125SOL     OW81271   2.048   3.354   2.202
93125SOL    HW181272   2.105   3.309   2.139
93125SOL    HW281273   2.078   3.445   2.201
93126SOL     OW81274   1.829   0.480  14.223
93126SOL    HW181275   1.899   0.545  14.224
93126SOL    HW281276   1.756   0.524  14.268
93127SOL     OW81277   3.855   5.496   2.070
93127SOL    HW181278   3.836   5.403   2.084
93127SOL    HW281279   3.773   5.532   2.037
93128SOL     OW81280   8.474   4.799  10.003
93128SOL    HW181281   8.429   4.718   9.979
93128SOL    HW281282   8.496   4.840   9.919
93129SOL     OW81283   1.469   9.719   2.123
93129SOL    HW181284   1.527   9.795   2.114
93129SOL    HW281285   1.527   9.644   2.108
93130SOL     OW81286   7.372   7.849   0.808
93130SOL    HW181287   7.333   7.825   0.723
93130SOL    HW281288   7.461   7.876   0.787
93131SOL     OW81289   7.836   7.939   2.856
93131SOL    HW181290   7.800   7.879   2.921
93131SOL    HW281291   7.860   7.882   2.783
93132SOL     OW81292   1.003   9.238   7.925
93132SOL    HW181293   1.088   9.248   7.882
93132SOL    HW281294   0.964   9.160   7.885
93133SOL     OW81295   1.892   6.856   1.113
93133SOL    HW181296   1.814   6.829   1.064
93133SOL    HW281297   1.872   6.834   1.204
93134SOL     OW81298   8.920   8.981   1.043
93134SOL    HW181299   8.838   9.010   1.083
93134SOL    HW281300   8.894   8.917   0.977
93135SOL     OW81301   8.359   6.662   0.202
93135SOL    HW181302   8.444   6.644   0.242
93135SOL    HW281303   8.374   6.741   0.149
93136SOL     OW81304   1.013  11.524   4.180
93136SOL    HW181305   1.104  11.531   4.207
93136SOL    HW281306   0.963  11.565   4.251
93137SOL     OW81307  12.405   1.264   5.477
93137SOL    HW181308  12.409   1.342   5.421
93137SOL    HW281309  12.414   1.191   5.416
93138SOL     OW81310  11.261   7.862   0.332
93138SOL    HW181311  11.226   7.860   0.243
93138SOL    HW281312  11.192   7.823   0.386
93139SOL     OW81313   8.233   3.108  13.078
93139SOL    HW181314   8.184   3.113  13.160
93139SOL    HW281315   8.172   3.071  13.015
93140SOL     OW81316   4.756  13.514   7.228
93140SOL    HW181317   4.678  13.534   7.175
93140SOL    HW281318   4.829  13.523   7.168
93141SOL     OW81319   3.487  11.958   3.350
93141SOL    HW181320   3.465  12.036   3.300
93141SOL    HW281321   3.416  11.950   3.414
93142SOL     OW81322  13.545   2.907   2.385
93142SOL    HW181323  13.535   3.002   2.393
93142SOL    HW281324  13.471   2.871   2.433
93143SOL     OW81325   3.408   3.788   9.988
93143SOL    HW181326   3.399   3.755  10.077
93143SOL    HW281327   3.318   3.799   9.957
93144SOL     OW81328   5.411   4.423  12.352
93144SOL    HW181329   5.454   4.498  12.310
93144SOL    HW281330   5.350   4.391  12.286
93145SOL     OW81331   0.339   2.014   9.228
93145SOL    HW181332   0.356   2.024   9.322
93145SOL    HW281333   0.293   1.931   9.222
93146SOL     OW81334   6.631   8.304   9.604
93146SOL    HW181335   6.607   8.286   9.513
93146SOL    HW281336   6.580   8.382   9.627
93147SOL     OW81337   3.503   4.001  10.736
93147SOL    HW181338   3.442   4.028  10.667
93147SOL    HW281339   3.529   3.912  10.711
93148SOL     OW81340  11.800   6.262  10.506
93148SOL    HW181341  11.723   6.209  10.486
93148SOL    HW281342  11.872   6.220  10.460
93149SOL     OW81343  14.305   7.031   9.200
93149SOL    HW181344  14.288   6.954   9.255
93149SOL    HW281345  14.270   7.007   9.114
93150SOL     OW81346   2.097   6.881   0.404
93150SOL    HW181347   2.064   6.934   0.477
93150SOL    HW281348   2.136   6.804   0.445
93151SOL     OW81349   0.497   2.738  13.753
93151SOL    HW181350   0.562   2.668  13.754
93151SOL    HW281351   0.445   2.720  13.675
93152SOL     OW81352  11.359   3.728  13.570
93152SOL    HW181353  11.432   3.702  13.514
93152SOL    HW281354  11.399   3.743  13.655
93153SOL     OW81355   1.087   0.035   3.004
93153SOL    HW181356   1.025  14.845   2.960
93153SOL    HW281357   1.045   0.120   3.005
93154SOL     OW81358   4.013   2.957   6.438
93154SOL    HW181359   3.928   2.933   6.401
93154SOL    HW281360   4.012   3.053   6.442
93155SOL     OW81361   0.975   7.141   7.722
93155SOL    HW181362   0.942   7.082   7.655
93155SOL    HW281363   1.066   7.114   7.734
93156SOL     OW81364   7.207   6.653   2.901
93156SOL    HW181365   7.245   6.626   2.818
93156SOL    HW281366   7.120   6.613   2.902
93157SOL     OW81367   8.334   9.635  14.200
93157SOL    HW181368   8.422   9.602  14.180
93157SOL    HW281369   8.348   9.699  14.270
93158SOL     OW81370   8.956   7.217  12.191
93158SOL    HW181371   9.037   7.268  12.197
93158SOL    HW281372   8.985   7.126  12.184
93159SOL     OW81373  11.988  10.759  12.190
93159SOL    HW181374  12.026  10.701  12.124
93159SOL    HW281375  12.012  10.719  12.274
93160SOL     OW81376   9.924   9.223   3.031
93160SOL    HW181377  10.018   9.240   3.040
93160SOL    HW281378   9.893   9.291   2.970
93161SOL     OW81379  14.006  12.762  10.515
93161SOL    HW181380  13.947  12.704  10.563
93161SOL    HW281381  13.950  12.806  10.451
93162SOL     OW81382  12.356  11.243   9.598
93162SOL    HW181383  12.353  11.221   9.505
93162SOL    HW281384  12.411  11.321   9.603
93163SOL     OW81385   7.819  10.198   2.486
93163SOL    HW181386   7.873  10.126   2.520
93163SOL    HW281387   7.737  10.191   2.535
93164SOL     OW81388   8.162   2.470   8.294
93164SOL    HW181389   8.226   2.490   8.363
93164SOL    HW281390   8.090   2.531   8.310
93165SOL     OW81391   9.324   2.190   3.568
93165SOL    HW181392   9.293   2.177   3.658
93165SOL    HW281393   9.374   2.111   3.548
93166SOL     OW81394  14.708   3.392   6.378
93166SOL    HW181395  14.670   3.315   6.335
93166SOL    HW281396  14.775   3.356   6.437
93167SOL     OW81397  14.644   4.210   0.340
93167SOL    HW181398  14.637   4.287   0.282
93167SOL    HW281399  14.553   4.180   0.350
93168SOL     OW81400  11.820   5.196   8.618
93168SOL    HW181401  11.805   5.279   8.663
93168SOL    HW281402  11.772   5.205   8.535
93169SOL     OW81403  13.790   5.573  10.021
93169SOL    HW181404  13.831   5.599  10.104
93169SOL    HW281405  13.699   5.603  10.030
93170SOL     OW81406   8.767   1.766  11.454
93170SOL    HW181407   8.818   1.763  11.373
93170SOL    HW281408   8.781   1.855  11.487
93171SOL     OW81409   0.292  13.414   9.584
93171SOL    HW181410   0.353  13.408   9.510
93171SOL    HW281411   0.218  13.463   9.549
93172SOL     OW81412   5.531  11.566   1.150
93172SOL    HW181413   5.532  11.527   1.237
93172SOL    HW281414   5.492  11.499   1.094
93173SOL     OW81415   1.213   2.604  12.869
93173SOL    HW181416   1.156   2.676  12.844
93173SOL    HW281417   1.155   2.541  12.913
93174SOL     OW81418   5.084   5.686  10.923
93174SOL    HW181419   5.171   5.717  10.948
93174SOL    HW281420   5.072   5.718  10.833
93175SOL     OW81421   2.298   8.489  12.598
93175SOL    HW181422   2.218   8.469  12.550
93175SOL    HW281423   2.367   8.488  12.532
93176SOL     OW81424   2.975   8.137   4.554
93176SOL    HW181425   2.948   8.048   4.577
93176SOL    HW281426   3.052   8.155   4.608
93177SOL     OW81427  13.417   6.235   3.237
93177SOL    HW181428  13.362   6.198   3.306
93177SOL    HW281429  13.393   6.327   3.234
93178SOL     OW81430   0.725  12.225   3.573
93178SOL    HW181431   0.770  12.206   3.490
93178SOL    HW281432   0.633  12.238   3.548
93179SOL     OW81433   4.248   8.799  11.719
93179SOL    HW181434   4.338   8.828  11.706
93179SOL    HW281435   4.215   8.856  11.788
93180SOL     OW81436   9.495   4.545   3.466
93180SOL    HW181437   9.590   4.531   3.462
93180SOL    HW281438   9.470   4.563   3.375
93181SOL     OW81439   5.796  12.096  11.053
93181SOL    HW181440   5.760  12.019  11.098
93181SOL    HW281441   5.811  12.065  10.964
93182SOL     OW81442  14.029   3.249   1.532
93182SOL    HW181443  13.969   3.228   1.460
93182SOL    HW281444  14.107   3.197   1.514
93183SOL     OW81445   7.347  10.637   6.569
93183SOL    HW181446   7.327  10.698   6.498
93183SOL    HW281447   7.291  10.561   6.552
93184SOL     OW81448  12.236  13.562  13.863
93184SOL    HW181449  12.170  13.626  13.835
93184SOL    HW281450  12.252  13.509  13.785
93185SOL     OW81451   9.524  11.394  11.442
93185SOL    HW181452   9.574  11.476  11.443
93185SOL    HW281453   9.590  11.326  11.450
93186SOL     OW81454   3.132  10.056   6.504
93186SOL    HW181455   3.048  10.038   6.461
93186SOL    HW281456   3.195  10.001   6.457
93187SOL     OW81457  14.152   6.855   5.137
93187SOL    HW181458  14.074   6.905   5.115
93187SOL    HW281459  14.172   6.879   5.227
93188SOL     OW81460  13.529  10.737  10.452
93188SOL    HW181461  13.453  10.680  10.466
93188SOL    HW281462  13.603  10.687  10.487
93189SOL     OW81463  12.433   3.874  10.573
93189SOL    HW181464  12.393   3.959  10.595
93189SOL    HW281465  12.507   3.897  10.517
93190SOL     OW81466   8.626   3.811   5.260
93190SOL    HW181467   8.579   3.860   5.327
93190SOL    HW281468   8.637   3.873   5.188
93191SOL     OW81469  13.161   4.691  11.812
93191SOL    HW181470  13.080   4.644  11.829
93191SOL    HW281471  13.166   4.756  11.882
93192SOL     OW81472   8.715   5.418   6.265
93192SOL    HW181473   8.685   5.342   6.215
93192SOL    HW281474   8.779   5.460   6.208
93193SOL     OW81475   0.391   2.079   0.398
93193SOL    HW181476   0.319   2.056   0.339
93193SOL    HW281477   0.432   2.155   0.357
93194SOL     OW81478   3.700   3.189  12.201
93194SOL    HW181479   3.684   3.097  12.221
93194SOL    HW281480   3.683   3.235  12.283
93195SOL     OW81481   6.192  10.902   6.846
93195SOL    HW181482   6.205  10.864   6.759
93195SOL    HW281483   6.211  10.830   6.907
93196SOL     OW81484   9.049   0.159   5.705
93196SOL    HW181485   9.061   0.093   5.637
93196SOL    HW281486   9.134   0.202   5.712
93197SOL     OW81487  12.262   3.914   3.409
93197SOL    HW181488  12.341   3.954   3.445
93197SOL    HW281489  12.276   3.915   3.314
93198SOL     OW81490   9.794   9.956   5.923
93198SOL    HW181491   9.710  10.000   5.924
93198SOL    HW281492   9.776   9.869   5.958
93199SOL     OW81493  11.646   3.238   5.150
93199SOL    HW181494  11.695   3.287   5.218
93199SOL    HW281495  11.558   3.275   5.154
93200SOL     OW81496   2.146  11.983   8.125
93200SOL    HW181497   2.083  11.920   8.161
93200SOL    HW281498   2.173  12.036   8.201
93201SOL     OW81499   1.849  12.546  10.613
93201SOL    HW181500   1.868  12.633  10.578
93201SOL    HW281501   1.861  12.487  10.539
93202SOL     OW81502   2.329   4.071   6.021
93202SOL    HW181503   2.328   3.976   6.015
93202SOL    HW281504   2.274   4.100   5.949
93203SOL     OW81505  12.820   5.526  11.690
93203SOL    HW181506  12.872   5.484  11.621
93203SOL    HW281507  12.733   5.536  11.651
93204SOL     OW81508   8.171   8.932   7.443
93204SOL    HW181509   8.177   8.859   7.506
93204SOL    HW281510   8.096   8.909   7.388
93205SOL     OW81511   5.229  10.535   0.374
93205SOL    HW181512   5.198  10.493   0.294
93205SOL    HW281513   5.151  10.544   0.428
93206SOL     OW81514  11.903   1.486   0.179
93206SOL    HW181515  11.824   1.433   0.190
93206SOL    HW281516  11.968   1.424   0.145
93207SOL     OW81517  11.823  12.270  14.719
93207SOL    HW181518  11.778  12.191  14.751
93207SOL    HW281519  11.796  12.339  14.779
93208SOL     OW81520  10.511  12.531   4.344
93208SOL    HW181521  10.585  12.591   4.350
93208SOL    HW281522  10.536  12.466   4.279
93209SOL     OW81523  12.611   5.956   3.167
93209SOL    HW181524  12.655   6.038   3.188
93209SOL    HW281525  12.521   5.969   3.198
93210SOL     OW81526   0.931   8.011   7.585
93210SOL    HW181527   0.902   8.096   7.552
93210SOL    HW281528   1.005   8.030   7.641
93211SOL     OW81529  10.050   1.982   9.260
93211SOL    HW181530  10.056   1.922   9.185
93211SOL    HW281531   9.957   1.986   9.281
93212SOL     OW81532  14.826   7.217   9.833
93212SOL    HW181533   0.003   7.217   9.917
93212SOL    HW281534   0.024   7.248   9.770
93213SOL     OW81535   9.745   2.537  14.134
93213SOL    HW181536   9.828   2.535  14.086
93213SOL    HW281537   9.770   2.529  14.226
93214SOL     OW81538   2.930   5.108   2.851
93214SOL    HW181539   2.973   5.034   2.807
93214SOL    HW281540   2.860   5.133   2.791
93215SOL     OW81541   2.241   1.845   1.495
93215SOL    HW181542   2.304   1.872   1.428
93215SOL    HW281543   2.156   1.875   1.463
93216SOL     OW81544   5.107   9.382  10.330
93216SOL    HW181545   5.147   9.304  10.371
93216SOL    HW281546   5.181   9.441  10.315
93217SOL     OW81547  12.406  14.281   0.059
93217SOL    HW181548  12.442  14.340  14.861
93217SOL    HW281549  12.383  14.339   0.132
93218SOL     OW81550   0.952   9.605   4.985
93218SOL    HW181551   0.919   9.515   4.981
93218SOL    HW281552   0.883   9.654   5.028
93219SOL     OW81553  13.606   3.805   5.423
93219SOL    HW181554  13.518   3.803   5.461
93219SOL    HW281555  13.663   3.831   5.496
93220SOL     OW81556  11.145   5.464   2.252
93220SOL    HW181557  11.141   5.541   2.196
93220SOL    HW281558  11.224   5.417   2.224
93221SOL     OW81559   6.728  11.278   5.944
93221SOL    HW181560   6.737  11.333   6.021
93221SOL    HW281561   6.783  11.202   5.961
93222SOL     OW81562  13.624   2.452   4.508
93222SOL    HW181563  13.606   2.512   4.580
93222SOL    HW281564  13.707   2.482   4.471
93223SOL     OW81565   3.894   1.878   3.366
93223SOL    HW181566   3.925   1.935   3.296
93223SOL    HW281567   3.813   1.919   3.397
93224SOL     OW81568   4.040   6.782   1.300
93224SOL    HW181569   4.044   6.807   1.392
93224SOL    HW281570   4.007   6.692   1.300
93225SOL     OW81571   5.918   7.981   3.769
93225SOL    HW181572   5.917   8.073   3.795
93225SOL    HW281573   5.893   7.934   3.848
93226SOL     OW81574   0.911   1.201   7.120
93226SOL    HW181575   0.825   1.218   7.082
93226SOL    HW281576   0.944   1.126   7.072
93227SOL     OW81577  11.413   2.928  12.728
93227SOL    HW181578  11.368   2.867  12.787
93227SOL    HW281579  11.453   2.992  12.787
93228SOL     OW81580   7.514   8.369   9.180
93228SOL    HW181581   7.591   8.399   9.228
93228SOL    HW281582   7.515   8.274   9.189
93229SOL     OW81583   3.837  11.603   5.934
93229SOL    HW181584   3.791  11.670   5.884
93229SOL    HW281585   3.824  11.522   5.884
93230SOL     OW81586  12.878  14.049   9.710
93230SOL    HW181587  12.863  14.142   9.728
93230SOL    HW281588  12.876  14.043   9.614
93231SOL     OW81589   9.316  14.540   3.474
93231SOL    HW181590   9.231  14.507   3.442
93231SOL    HW281591   9.340  14.480   3.545
93232SOL     OW81592   6.579   3.160   0.137
93232SOL    HW181593   6.572   3.115   0.221
93232SOL    HW281594   6.672   3.182   0.130
93233SOL     OW81595  13.085  11.300  11.513
93233SOL    HW181596  13.093  11.286  11.419
93233SOL    HW281597  13.084  11.395  11.524
93234SOL     OW81598   8.132   7.330  10.654
93234SOL    HW181599   8.163   7.259  10.712
93234SOL    HW281600   8.156   7.300  10.566
93235SOL     OW81601   4.244  13.380   7.432
93235SOL    HW181602   4.155  13.372   7.466
93235SOL    HW281603   4.262  13.474   7.433
93236SOL     OW81604   6.233   4.630   5.527
93236SOL    HW181605   6.217   4.604   5.618
93236SOL    HW281606   6.290   4.707   5.534
93237SOL     OW81607  13.260   6.624  13.136
93237SOL    HW181608  13.330   6.679  13.171
93237SOL    HW281609  13.277   6.619  13.042
93238SOL     OW81610   3.810  10.613   6.801
93238SOL    HW181611   3.830  10.694   6.755
93238SOL    HW281612   3.889  10.560   6.793
93239SOL     OW81613  11.262   8.446   7.097
93239SOL    HW181614  11.336   8.418   7.152
93239SOL    HW281615  11.216   8.365   7.077
93240SOL     OW81616  12.082  13.204  14.644
93240SOL    HW181617  12.165  13.205  14.596
93240SOL    HW281618  12.018  13.169  14.583
93241SOL     OW81619   6.502   0.418   9.252
93241SOL    HW181620   6.559   0.342   9.248
93241SOL    HW281621   6.553   0.484   9.300
93242SOL     OW81622   2.302  13.687   1.054
93242SOL    HW181623   2.358  13.765   1.057
93242SOL    HW281624   2.305  13.652   1.144
93243SOL     OW81625  12.823   1.819   6.482
93243SOL    HW181626  12.851   1.796   6.570
93243SOL    HW281627  12.727   1.810   6.484
93244SOL     OW81628   8.536   1.030   3.825
93244SOL    HW181629   8.457   1.047   3.774
93244SOL    HW281630   8.510   0.965   3.890
93245SOL     OW81631   1.879  12.391   5.820
93245SOL    HW181632   1.830  12.402   5.901
93245SOL    HW281633   1.874  12.477   5.777
93246SOL     OW81634  10.829  12.504   5.997
93246SOL    HW181635  10.839  12.564   5.923
93246SOL    HW281636  10.752  12.537   6.044
93247SOL     OW81637   4.922  14.370  12.415
93247SOL    HW181638   4.859  14.423  12.368
93247SOL    HW281639   4.869  14.319  12.477
93248SOL     OW81640   1.538   9.652   8.071
93248SOL    HW181641   1.634   9.646   8.063
93248SOL    HW281642   1.505   9.588   8.008
93249SOL     OW81643  14.655   9.278   3.608
93249SOL    HW181644  14.721   9.213   3.583
93249SOL    HW281645  14.629   9.253   3.696
93250SOL     OW81646  13.418   9.422  10.713
93250SOL    HW181647  13.414   9.418  10.617
93250SOL    HW281648  13.452   9.509  10.731
93251SOL     OW81649  10.915  13.991   0.253
93251SOL    HW181650  10.938  14.072   0.208
93251SOL    HW281651  10.959  13.922   0.202
93252SOL     OW81652   6.862  12.311  13.678
93252SOL    HW181653   6.806  12.292  13.602
93252SOL    HW281654   6.888  12.226  13.711
93253SOL     OW81655   8.734   8.461   5.820
93253SOL    HW181656   8.704   8.371   5.826
93253SOL    HW281657   8.659   8.510   5.788
93254SOL     OW81658   7.825   8.876  10.299
93254SOL    HW181659   7.739   8.911  10.322
93254SOL    HW281660   7.842   8.809  10.364
93255SOL     OW81661   5.934   2.579  10.986
93255SOL    HW181662   5.965   2.660  10.946
93255SOL    HW281663   5.965   2.583  11.076
93256SOL     OW81664   0.526   7.169   7.607
93256SOL    HW181665   0.433   7.153   7.621
93256SOL    HW281666   0.563   7.173   7.695
93257SOL     OW81667   2.536  11.954  13.453
93257SOL    HW181668   2.456  11.938  13.505
93257SOL    HW281669   2.525  12.043  13.420
93258SOL     OW81670   6.764   6.137   9.930
93258SOL    HW181671   6.778   6.229   9.909
93258SOL    HW281672   6.720   6.101   9.853
93259SOL     OW81673   0.113  11.097   7.282
93259SOL    HW181674   0.056  11.084   7.357
93259SOL    HW281675   0.155  11.012   7.268
93260SOL     OW81676   5.147  11.500   1.489
93260SOL    HW181677   5.220  11.438   1.490
93260SOL    HW281678   5.126  11.515   1.581
93261SOL     OW81679   5.018  10.317   9.769
93261SOL    HW181680   5.019  10.365   9.686
93261SOL    HW281681   4.926  10.316   9.795
93262SOL     OW81682   7.092   1.643  12.237
93262SOL    HW181683   7.163   1.642  12.302
93262SOL    HW281684   7.136   1.637  12.153
93263SOL     OW81685   8.085  14.796   8.312
93263SOL    HW181686   8.114  14.743   8.237
93263SOL    HW281687   8.146   0.001   8.314
93264SOL     OW81688  10.553   8.419   2.386
93264SOL    HW181689  10.514   8.340   2.423
93264SOL    HW281690  10.583   8.470   2.462
93265SOL     OW81691  14.842   7.444   1.110
93265SOL    HW181692   0.007   7.402   1.030
93265SOL    HW281693  14.792   7.519   1.077
93266SOL     OW81694   2.514   1.562   9.603
93266SOL    HW181695   2.419   1.569   9.613
93266SOL    HW281696   2.526   1.495   9.536
93267SOL     OW81697   4.245   6.311   4.439
93267SOL    HW181698   4.237   6.375   4.368
93267SOL    HW281699   4.327   6.332   4.482
93268SOL     OW81700   8.411   7.275   8.719
93268SOL    HW181701   8.423   7.370   8.706
93268SOL    HW281702   8.327   7.268   8.765
93269SOL     OW81703  10.807  12.500  11.248
93269SOL    HW181704  10.715  12.489  11.224
93269SOL    HW281705  10.806  12.507  11.344
93270SOL     OW81706   8.380   7.069  14.388
93270SOL    HW181707   8.318   7.141  14.375
93270SOL    HW281708   8.325   6.991  14.392
93271SOL     OW81709   7.735   3.509   3.342
93271SOL    HW181710   7.652   3.462   3.345
93271SOL    HW281711   7.749   3.539   3.431
93272SOL     OW81712   7.042   7.459  13.134
93272SOL    HW181713   7.045   7.547  13.095
93272SOL    HW281714   6.985   7.470  13.211
93273SOL     OW81715   1.922  14.311   6.061
93273SOL    HW181716   1.959  14.399   6.057
93273SOL    HW281717   1.931  14.285   6.152
93274SOL     OW81718  12.139  10.153  10.514
93274SOL    HW181719  12.112  10.112  10.596
93274SOL    HW281720  12.185  10.233  10.541
93275SOL     OW81721  12.720   8.019  13.229
93275SOL    HW181722  12.739   8.014  13.135
93275SOL    HW281723  12.802   7.993  13.272
93276SOL     OW81724   3.629   9.916  14.322
93276SOL    HW181725   3.564   9.979  14.353
93276SOL    HW281726   3.621   9.842  14.383
93277SOL     OW81727  14.712   8.130   1.867
93277SOL    HW181728  14.699   8.089   1.782
93277SOL    HW281729  14.790   8.185   1.855
93278SOL     OW81730  13.564   1.128   1.503
93278SOL    HW181731  13.575   1.097   1.593
93278SOL    HW281732  13.472   1.112   1.483
93279SOL     OW81733   8.287   2.015  12.650
93279SOL    HW181734   8.291   2.054  12.737
93279SOL    HW281735   8.242   1.931  12.664
93280SOL     OW81736   5.909   6.107   9.685
93280SOL    HW181737   5.933   6.169   9.754
93280SOL    HW281738   5.813   6.106   9.686
93281SOL     OW81739   6.473   8.662   2.463
93281SOL    HW181740   6.419   8.734   2.497
93281SOL    HW281741   6.479   8.680   2.369
93282SOL     OW81742  10.642   0.955  11.758
93282SOL    HW181743  10.599   1.001  11.831
93282SOL    HW281744  10.620   0.863  11.772
93283SOL     OW81745   4.508  13.644   8.173
93283SOL    HW181746   4.528  13.648   8.080
93283SOL    HW281747   4.416  13.618   8.177
93284SOL     OW81748  14.860   4.430   7.527
93284SOL    HW181749   0.065   4.433   7.465
93284SOL    HW281750   0.009   4.352   7.579
93285SOL     OW81751  10.058   7.477  14.347
93285SOL    HW181752  10.109   7.558  14.353
93285SOL    HW281753  10.051   7.459  14.254
93286SOL     OW81754   6.128  13.068   4.333
93286SOL    HW181755   6.056  13.114   4.376
93286SOL    HW281756   6.204  13.126   4.345
93287SOL     OW81757  10.443   7.443   7.310
93287SOL    HW181758  10.408   7.519   7.357
93287SOL    HW281759  10.367   7.407   7.263
93288SOL     OW81760   9.559   9.253   4.564
93288SOL    HW181761   9.629   9.209   4.515
93288SOL    HW281762   9.532   9.326   4.508
93289SOL     OW81763  12.175  12.899   0.503
93289SOL    HW181764  12.205  12.911   0.593
93289SOL    HW281765  12.151  12.987   0.474
93290SOL     OW81766   0.289   9.765   6.251
93290SOL    HW181767   0.241   9.692   6.212
93290SOL    HW281768   0.336   9.804   6.177
93291SOL     OW81769  11.939   1.285   5.701
93291SOL    HW181770  11.913   1.339   5.775
93291SOL    HW281771  12.033   1.300   5.692
93292SOL     OW81772   5.637  10.507  11.311
93292SOL    HW181773   5.547  10.518  11.344
93292SOL    HW281774   5.632  10.431  11.253
93293SOL     OW81775  14.478   4.140   0.034
93293SOL    HW181776  14.573   4.150   0.035
93293SOL    HW281777  14.463   4.046   0.047
93294SOL     OW81778   8.138  12.318  14.865
93294SOL    HW181779   8.052  12.280   0.012
93294SOL    HW281780   8.178  12.322   0.084
93295SOL     OW81781   3.743   2.429  10.844
93295SOL    HW181782   3.676   2.451  10.780
93295SOL    HW281783   3.818   2.401  10.792
93296SOL     OW81784   4.187   2.841   1.937
93296SOL    HW181785   4.210   2.781   2.008
93296SOL    HW281786   4.264   2.897   1.927
93297SOL     OW81787   1.500  14.780  14.857
93297SOL    HW181788   1.517  14.745   0.076
93297SOL    HW281789   1.502  14.703  14.800
93298SOL     OW81790  14.506   6.854   4.684
93298SOL    HW181791  14.521   6.831   4.592
93298SOL    HW281792  14.495   6.949   4.682
93299SOL     OW81793   7.682   9.037   0.808
93299SOL    HW181794   7.667   9.122   0.767
93299SOL    HW281795   7.760   9.051   0.862
93300SOL     OW81796   4.306   0.057   1.126
93300SOL    HW181797   4.260   0.078   1.044
93300SOL    HW281798   4.398   0.070   1.104
93301SOL     OW81799  12.656   2.188   8.130
93301SOL    HW181800  12.670   2.280   8.151
93301SOL    HW281801  12.740   2.146   8.148
93302SOL     OW81802  10.290   3.325   8.879
93302SOL    HW181803  10.346   3.346   8.954
93302SOL    HW281804  10.247   3.408   8.857
93303SOL     OW81805   6.339  10.370   5.933
93303SOL    HW181806   6.247  10.393   5.921
93303SOL    HW281807   6.347  10.352   6.027
93304SOL     OW81808   4.204  11.887   8.549
93304SOL    HW181809   4.177  11.899   8.458
93304SOL    HW281810   4.289  11.844   8.544
93305SOL     OW81811  13.723  13.723  12.749
93305SOL    HW181812  13.680  13.640  12.730
93305SOL    HW281813  13.798  13.699  12.804
93306SOL     OW81814  11.328  12.964  10.589
93306SOL    HW181815  11.237  12.939  10.572
93306SOL    HW281816  11.324  13.059  10.606
93307SOL     OW81817  11.027   5.051   5.739
93307SOL    HW181818  10.946   5.042   5.690
93307SOL    HW281819  11.049   4.962   5.766
93308SOL     OW81820   2.146   2.933  14.455
93308SOL    HW181821   2.076   2.880  14.492
93308SOL    HW281822   2.116   3.023  14.463
93309SOL     OW81823   3.289   7.311  12.563
93309SOL    HW181824   3.362   7.373  12.567
93309SOL    HW281825   3.326   7.229  12.597
93310SOL     OW81826   4.150   1.824   4.912
93310SOL    HW181827   4.227   1.874   4.883
93310SOL    HW281828   4.184   1.755   4.968
93311SOL     OW81829  11.994  13.776   8.039
93311SOL    HW181830  12.082  13.810   8.058
93311SOL    HW281831  12.009  13.704   7.978
93312SOL     OW81832   6.619  14.809   3.941
93312SOL    HW181833   6.552  14.765   3.993
93312SOL    HW281834   6.587  14.806   3.851
93313SOL     OW81835  13.674   0.972   8.154
93313SOL    HW181836  13.648   1.009   8.069
93313SOL    HW281837  13.600   0.918   8.181
93314SOL     OW81838   0.775  13.535   7.577
93314SOL    HW181839   0.680  13.537   7.587
93314SOL    HW281840   0.791  13.465   7.514
93315SOL     OW81841  11.226  12.580   1.629
93315SOL    HW181842  11.248  12.662   1.584
93315SOL    HW281843  11.217  12.516   1.559
93316SOL     OW81844  12.541   9.012  11.813
93316SOL    HW181845  12.497   8.932  11.784
93316SOL    HW281846  12.589   9.042  11.735
93317SOL     OW81847   8.426  14.827  13.695
93317SOL    HW181848   8.441   0.040  13.744
93317SOL    HW281849   8.383  14.854  13.615
93318SOL     OW81850   9.842   0.603   2.762
93318SOL    HW181851   9.845   0.691   2.799
93318SOL    HW281852   9.932   0.586   2.735
93319SOL     OW81853   1.118  13.095   1.975
93319SOL    HW181854   1.115  13.183   2.012
93319SOL    HW281855   1.122  13.109   1.881
93320SOL     OW81856   7.719  13.862   9.637
93320SOL    HW181857   7.710  13.882   9.544
93320SOL    HW281858   7.796  13.806   9.643
93321SOL     OW81859   5.778   4.693   9.208
93321SOL    HW181860   5.724   4.732   9.278
93321SOL    HW281861   5.866   4.690   9.246
93322SOL     OW81862   7.633  13.656  11.560
93322SOL    HW181863   7.659  13.695  11.644
93322SOL    HW281864   7.552  13.701  11.537
93323SOL     OW81865   9.382   6.385   9.974
93323SOL    HW181866   9.462   6.349  10.013
93323SOL    HW281867   9.397   6.376   9.880
93324SOL     OW81868   8.915  12.390  13.909
93324SOL    HW181869   8.969  12.426  13.980
93324SOL    HW281870   8.951  12.427  13.829
93325SOL     OW81871  13.107   0.491  11.307
93325SOL    HW181872  13.189   0.532  11.280
93325SOL    HW281873  13.133   0.423  11.368
93326SOL     OW81874   7.520  12.266  14.481
93326SOL    HW181875   7.502  12.251  14.574
93326SOL    HW281876   7.434  12.280  14.442
93327SOL     OW81877   8.234   1.007   0.390
93327SOL    HW181878   8.165   0.949   0.357
93327SOL    HW281879   8.224   1.005   0.485
93328SOL     OW81880  14.464   0.169   8.338
93328SOL    HW181881  14.404   0.189   8.409
93328SOL    HW281882  14.421   0.202   8.259
93329SOL     OW81883   1.027   0.790   9.576
93329SOL    HW181884   0.968   0.739   9.521
93329SOL    HW281885   1.114   0.752   9.559
93330SOL     OW81886   4.356   5.220   6.484
93330SOL    HW181887   4.289   5.158   6.513
93330SOL    HW281888   4.351   5.291   6.548
93331SOL     OW81889  14.570   9.577   1.380
93331SOL    HW181890  14.581   9.671   1.369
93331SOL    HW281891  14.476   9.562   1.371
93332SOL     OW81892   0.337   2.598  12.606
93332SOL    HW181893   0.394   2.669  12.577
93332SOL    HW281894   0.260   2.603  12.550
93333SOL     OW81895   4.113  12.549   3.739
93333SOL    HW181896   4.062  12.568   3.660
93333SOL    HW281897   4.058  12.582   3.811
93334SOL     OW81898   6.018  11.923   7.200
93334SOL    HW181899   6.071  11.844   7.216
93334SOL    HW281900   6.019  11.933   7.105
93335SOL     OW81901   7.824   2.599   5.270
93335SOL    HW181902   7.897   2.607   5.332
93335SOL    HW281903   7.838   2.671   5.208
93336SOL     OW81904  14.590   8.728   3.115
93336SOL    HW181905  14.504   8.693   3.094
93336SOL    HW281906  14.578   8.775   3.197
93337SOL     OW81907   9.545  11.760  14.813
93337SOL    HW181908   9.514  11.707   0.018
93337SOL    HW281909   9.593  11.832  14.854
93338SOL     OW81910   6.356  10.237   7.691
93338SOL    HW181911   6.356  10.250   7.596
93338SOL    HW281912   6.436  10.280   7.722
93339SOL     OW81913   7.219   4.492   4.984
93339SOL    HW181914   7.147   4.430   5.000
93339SOL    HW281915   7.256   4.508   5.071
93340SOL     OW81916   4.200   1.066   7.160
93340SOL    HW181917   4.124   1.090   7.107
93340SOL    HW281918   4.249   1.147   7.171
93341SOL     OW81919   9.058  12.140  10.817
93341SOL    HW181920   8.995  12.069  10.824
93341SOL    HW281921   9.043  12.177  10.730
93342SOL     OW81922   9.862   1.150  10.496
93342SOL    HW181923   9.804   1.220  10.524
93342SOL    HW281924   9.950   1.178  10.523
93343SOL     OW81925  12.017   8.939   6.318
93343SOL    HW181926  11.951   8.897   6.374
93343SOL    HW281927  11.968   9.005   6.269
93344SOL     OW81928  14.601   9.828   5.142
93344SOL    HW181929  14.657   9.831   5.065
93344SOL    HW281930  14.640   9.762   5.199
93345SOL     OW81931  12.380  10.777  13.638
93345SOL    HW181932  12.382  10.803  13.546
93345SOL    HW281933  12.432  10.697  13.642
93346SOL     OW81934   8.639   8.687   5.092
93346SOL    HW181935   8.678   8.615   5.141
93346SOL    HW281936   8.616   8.752   5.159
93347SOL     OW81937   0.629   0.847   3.175
93347SOL    HW181938   0.576   0.783   3.127
93347SOL    HW281939   0.719   0.829   3.148
93348SOL     OW81940   8.559   6.667   5.903
93348SOL    HW181941   8.477   6.677   5.855
93348SOL    HW281942   8.564   6.745   5.958
93349SOL     OW81943   1.110   5.597   3.314
93349SOL    HW181944   1.069   5.586   3.228
93349SOL    HW281945   1.084   5.684   3.343
93350SOL     OW81946   9.891  11.807  14.859
93350SOL    HW181947   9.906  11.713  14.862
93350SOL    HW281948   9.961  11.844   0.045
93351SOL     OW81949   9.876   0.596  11.088
93351SOL    HW181950   9.894   0.526  11.151
93351SOL    HW281951   9.807   0.560  11.032
93352SOL     OW81952   1.101  12.716   0.438
93352SOL    HW181953   1.056  12.726   0.521
93352SOL    HW281954   1.073  12.792   0.386
93353SOL     OW81955   6.595  12.644   5.802
93353SOL    HW181956   6.513  12.627   5.755
93353SOL    HW281957   6.633  12.557   5.814
93354SOL     OW81958  13.519   0.828  14.694
93354SOL    HW181959  13.472   0.824  14.610
93354SOL    HW281960  13.566   0.744  14.698
93355SOL     OW81961  14.489   3.593   0.080
93355SOL    HW181962  14.550   3.536   0.128
93355SOL    HW281963  14.484   3.553  14.861
93356SOL     OW81964   2.900   9.394   1.241
93356SOL    HW181965   2.928   9.399   1.149
93356SOL    HW281966   2.965   9.447   1.288
93357SOL     OW81967   8.351   9.630  12.994
93357SOL    HW181968   8.319   9.554  13.043
93357SOL    HW281969   8.432   9.655  13.038
93358SOL     OW81970  12.095   8.172  10.991
93358SOL    HW181971  12.098   8.246  10.931
93358SOL    HW281972  12.126   8.208  11.074
93359SOL     OW81973   4.644   0.144  12.890
93359SOL    HW181974   4.559   0.146  12.847
93359SOL    HW281975   4.625   0.135  12.983
93360SOL     OW81976  10.750  12.609   4.120
93360SOL    HW181977  10.832  12.599   4.071
93360SOL    HW281978  10.777  12.633   4.208
93361SOL     OW81979   6.470   6.442   1.804
93361SOL    HW181980   6.485   6.369   1.743
93361SOL    HW281981   6.408   6.408   1.868
93362SOL     OW81982   5.245   5.650   7.345
93362SOL    HW181983   5.227   5.704   7.268
93362SOL    HW281984   5.254   5.713   7.416
93363SOL     OW81985   1.451  12.659  12.191
93363SOL    HW181986   1.468  12.749  12.162
93363SOL    HW281987   1.536  12.626  12.219
93364SOL     OW81988  10.989  10.692   8.032
93364SOL    HW181989  10.952  10.632   7.967
93364SOL    HW281990  11.026  10.763   7.980
93365SOL     OW81991  14.499   4.589   0.027
93365SOL    HW181992  14.567   4.544   0.076
93365SOL    HW281993  14.543   4.663  14.854
93366SOL     OW81994   7.584   2.230  14.310
93366SOL    HW181995   7.548   2.294  14.248
93366SOL    HW281996   7.653   2.186  14.261
93367SOL     OW81997   7.963   3.299   3.657
93367SOL    HW181998   8.009   3.268   3.735
93367SOL    HW281999   7.888   3.239   3.648
93368SOL     OW82000  10.638   7.332  11.972
93368SOL    HW182001  10.725   7.372  11.975
93368SOL    HW282002  10.584   7.389  12.028
93369SOL     OW82003  14.360   1.815   6.499
93369SOL    HW182004  14.366   1.774   6.585
93369SOL    HW282005  14.448   1.808   6.463
93370SOL     OW82006  10.818   4.683  14.063
93370SOL    HW182007  10.806   4.647  14.151
93370SOL    HW282008  10.896   4.738  14.070
93371SOL     OW82009   3.896   9.335  14.731
93371SOL    HW182010   3.850   9.266  14.684
93371SOL    HW282011   3.952   9.288  14.793
93372SOL     OW82012   0.827  12.935   4.513
93372SOL    HW182013   0.918  12.906   4.526
93372SOL    HW282014   0.775  12.856   4.526
93373SOL     OW82015   0.643   8.339   5.658
93373SOL    HW182016   0.621   8.429   5.635
93373SOL    HW282017   0.598   8.324   5.741
93374SOL     OW82018   5.810  14.132   9.618
93374SOL    HW182019   5.891  14.094   9.585
93374SOL    HW282020   5.742  14.069   9.591
93375SOL     OW82021   9.474   2.467   3.415
93375SOL    HW182022   9.439   2.533   3.355
93375SOL    HW282023   9.411   2.463   3.487
93376SOL     OW82024   5.643  10.724  12.714
93376SOL    HW182025   5.559  10.700  12.751
93376SOL    HW282026   5.701  10.736  12.789
93377SOL     OW82027  10.307   5.995   7.074
93377SOL    HW182028  10.245   5.922   7.062
93377SOL    HW282029  10.258   6.072   7.046
93378SOL     OW82030  13.573   6.531   6.276
93378SOL    HW182031  13.656   6.545   6.321
93378SOL    HW282032  13.522   6.477   6.336
93379SOL     OW82033  13.001  11.585   0.641
93379SOL    HW182034  12.920  11.582   0.589
93379SOL    HW282035  13.024  11.678   0.644
93380SOL     OW82036   9.900   4.899   1.603
93380SOL    HW182037   9.808   4.871   1.610
93380SOL    HW282038   9.936   4.845   1.532
93381SOL     OW82039  11.941   3.382   7.538
93381SOL    HW182040  11.993   3.324   7.482
93381SOL    HW282041  11.911   3.451   7.479
93382SOL     OW82042   1.780   5.914   4.761
93382SOL    HW182043   1.687   5.936   4.756
93382SOL    HW282044   1.816   5.941   4.677
93383SOL     OW82045  11.022   8.615  11.980
93383SOL    HW182046  11.114   8.602  11.956
93383SOL    HW282047  11.025   8.670  12.059
93384SOL     OW82048   1.180   0.045   5.016
93384SOL    HW182049   1.117  14.845   4.992
93384SOL    HW282050   1.223   0.012   5.094
93385SOL     OW82051   4.101   5.325   9.508
93385SOL    HW182052   4.132   5.266   9.439
93385SOL    HW282053   4.143   5.409   9.488
93386SOL     OW82054   4.934   3.082  12.715
93386SOL    HW182055   4.874   3.118  12.780
93386SOL    HW282056   5.009   3.142  12.716
93387SOL     OW82057  14.220   5.292   2.941
93387SOL    HW182058  14.212   5.366   2.880
93387SOL    HW282059  14.155   5.229   2.912
93388SOL     OW82060  13.382   1.549  13.213
93388SOL    HW182061  13.458   1.491  13.216
93388SOL    HW282062  13.382   1.585  13.125
93389SOL     OW82063  11.616   9.443   2.587
93389SOL    HW182064  11.595   9.524   2.634
93389SOL    HW282065  11.531   9.413   2.553
93390SOL     OW82066  13.365   6.687   6.720
93390SOL    HW182067  13.396   6.778   6.720
93390SOL    HW282068  13.270   6.694   6.720
93391SOL     OW82069  14.054   9.409  10.753
93391SOL    HW182070  13.973   9.444  10.789
93391SOL    HW282071  14.026   9.351  10.682
93392SOL     OW82072  13.227  11.733  13.171
93392SOL    HW182073  13.286  11.799  13.206
93392SOL    HW282074  13.283  11.658  13.153
93393SOL     OW82075  14.725   7.595   9.634
93393SOL    HW182076  14.668   7.671   9.619
93393SOL    HW282077  14.757   7.607   9.723
93394SOL     OW82078   0.393   7.674   1.204
93394SOL    HW182079   0.398   7.747   1.265
93394SOL    HW282080   0.349   7.710   1.127
93395SOL     OW82081  11.202   6.725  14.307
93395SOL    HW182082  11.159   6.810  14.302
93395SOL    HW282083  11.293   6.742  14.284
93396SOL     OW82084  11.738   6.574  12.385
93396SOL    HW182085  11.707   6.631  12.315
93396SOL    HW282086  11.691   6.491  12.373
93397SOL     OW82087   2.427   6.423   1.692
93397SOL    HW182088   2.381   6.340   1.681
93397SOL    HW282089   2.361   6.490   1.673
93398SOL     OW82090   4.490   6.312  10.356
93398SOL    HW182091   4.519   6.402  10.338
93398SOL    HW282092   4.533   6.259  10.289
93399SOL     OW82093   1.806  11.082   0.046
93399SOL    HW182094   1.752  11.013   0.006
93399SOL    HW282095   1.806  11.061   0.139
93400SOL     OW82096   7.351   2.512   0.397
93400SOL    HW182097   7.392   2.485   0.315
93400SOL    HW282098   7.316   2.431   0.434
93401SOL     OW82099   3.449   5.070   1.105
93401SOL    HW182100   3.417   5.160   1.114
93401SOL    HW282101   3.449   5.036   1.194
93402SOL     OW82102   6.647   9.130   7.940
93402SOL    HW182103   6.627   9.036   7.945
93402SOL    HW282104   6.725   9.135   7.885
93403SOL     OW82105  11.436   6.023   3.239
93403SOL    HW182106  11.495   6.040   3.166
93403SOL    HW282107  11.364   5.974   3.201
93404SOL     OW82108   2.925  10.112   8.975
93404SOL    HW182109   2.978  10.149   9.046
93404SOL    HW282110   2.839  10.096   9.014
93405SOL     OW82111   9.623   8.597  14.206
93405SOL    HW182112   9.570   8.583  14.285
93405SOL    HW282113   9.585   8.538  14.141
93406SOL     OW82114   3.690  12.970   9.929
93406SOL    HW182115   3.777  12.935   9.948
93406SOL    HW282116   3.652  12.987  10.015
93407SOL     OW82117   6.555   6.687   7.036
93407SOL    HW182118   6.523   6.696   7.125
93407SOL    HW282119   6.602   6.768   7.018
93408SOL     OW82120   3.974  12.003   4.543
93408SOL    HW182121   3.979  12.073   4.477
93408SOL    HW282122   4.054  11.953   4.530
93409SOL     OW82123   9.682  11.764  11.769
93409SOL    HW182124   9.738  11.778  11.846
93409SOL    HW282125   9.684  11.847  11.722
93410SOL     OW82126  12.624  11.295   7.245
93410SOL    HW182127  12.690  11.277   7.178
93410SOL    HW282128  12.583  11.377   7.216
93411SOL     OW82129   4.308   8.148   8.568
93411SOL    HW182130   4.230   8.093   8.569
93411SOL    HW282131   4.377   8.091   8.533
93412SOL     OW82132  13.789  10.642  10.485
93412SOL    HW182133  13.868  10.689  10.511
93412SOL    HW282134  13.820  10.553  10.465
93413SOL     OW82135   1.516  12.836   7.756
93413SOL    HW182136   1.527  12.897   7.829
93413SOL    HW282137   1.437  12.867   7.711
93414SOL     OW82138  12.382  11.130   6.965
93414SOL    HW182139  12.320  11.202   6.980
93414SOL    HW282140  12.345  11.056   7.012
93415SOL     OW82141  12.673   8.773   8.692
93415SOL    HW182142  12.754   8.750   8.738
93415SOL    HW282143  12.639   8.690   8.660
93416SOL     OW82144   0.010  10.387  14.606
93416SOL    HW182145   0.048  10.372  14.519
93416SOL    HW282146  14.824  10.309  14.622
93417SOL     OW82147   6.235  13.358   4.564
93417SOL    HW182148   6.163  13.343   4.503
93417SOL    HW282149   6.194  13.360   4.650
93418SOL     OW82150   0.576  12.564  11.648
93418SOL    HW182151   0.550  12.527  11.563
93418SOL    HW282152   0.671  12.574  11.641
93419SOL     OW82153  12.615   2.665   8.105
93419SOL    HW182154  12.654   2.669   8.192
93419SOL    HW282155  12.654   2.588   8.064
93420SOL     OW82156  14.465  13.722   3.513
93420SOL    HW182157  14.555  13.733   3.480
93420SOL    HW282158  14.435  13.811   3.532
93421SOL     OW82159   6.507  13.561   1.902
93421SOL    HW182160   6.538  13.534   1.989
93421SOL    HW282161   6.433  13.503   1.884
93422SOL     OW82162  12.811   0.117  10.452
93422SOL    HW182163  12.868   0.157  10.386
93422SOL    HW282164  12.842   0.152  10.535
93423SOL     OW82165  12.085   8.474   3.383
93423SOL    HW182166  12.104   8.421   3.460
93423SOL    HW282167  12.135   8.433   3.312
93424SOL     OW82168   2.256  12.360   2.357
93424SOL    HW182169   2.233  12.308   2.280
93424SOL    HW282170   2.256  12.298   2.429
93425SOL     OW82171   9.289  14.117   4.029
93425SOL    HW182172   9.216  14.135   3.969
93425SOL    HW282173   9.366  14.113   3.973
93426SOL     OW82174   7.896  10.777   4.767
93426SOL    HW182175   7.802  10.766   4.759
93426SOL    HW282176   7.909  10.872   4.764
93427SOL     OW82177   8.711   4.159   7.563
93427SOL    HW182178   8.632   4.211   7.555
93427SOL    HW282179   8.717   4.111   7.481
93428SOL     OW82180  14.560   5.920   1.587
93428SOL    HW182181  14.596   5.863   1.655
93428SOL    HW282182  14.617   5.997   1.588
93429SOL     OW82183   6.639   3.863   4.148
93429SOL    HW182184   6.557   3.912   4.160
93429SOL    HW282185   6.675   3.896   4.066
93430SOL     OW82186  11.361  13.217   5.703
93430SOL    HW182187  11.270  13.221   5.733
93430SOL    HW282188  11.357  13.174   5.618
93431SOL     OW82189   9.240   9.939   3.962
93431SOL    HW182190   9.224   9.935   3.868
93431SOL    HW282191   9.189   9.866   3.998
93432SOL     OW82192  14.651   2.724   9.865
93432SOL    HW182193  14.581   2.738   9.928
93432SOL    HW282194  14.675   2.813   9.837
93433SOL     OW82195   6.074   1.614   4.972
93433SOL    HW182196   6.095   1.669   4.897
93433SOL    HW282197   6.130   1.537   4.961
93434SOL     OW82198   6.881  11.808  13.140
93434SOL    HW182199   6.822  11.825  13.067
93434SOL    HW282200   6.960  11.771  13.100
93435SOL     OW82201  10.386  13.462   6.744
93435SOL    HW182202  10.301  13.422   6.762
93435SOL    HW282203  10.383  13.546   6.789
93436SOL     OW82204   4.200   9.927   9.359
93436SOL    HW182205   4.237   9.888   9.279
93436SOL    HW282206   4.114   9.958   9.333
93437SOL     OW82207   4.609   2.572  11.950
93437SOL    HW182208   4.700   2.581  11.922
93437SOL    HW282209   4.594   2.478  11.954
93438SOL     OW82210   6.299  11.651  13.934
93438SOL    HW182211   6.284  11.663  13.841
93438SOL    HW282212   6.240  11.580  13.960
93439SOL     OW82213   2.682  13.682   0.256
93439SOL    HW182214   2.748  13.746   0.230
93439SOL    HW282215   2.659  13.637   0.175
93440SOL     OW82216  14.121   9.700   3.781
93440SOL    HW182217  14.028   9.718   3.767
93440SOL    HW282218  14.140   9.737   3.868
93441SOL     OW82219   6.619  13.465   8.359
93441SOL    HW182220   6.675  13.475   8.282
93441SOL    HW282221   6.665  13.401   8.413
93442SOL     OW82222  10.122   9.681   4.047
93442SOL    HW182223  10.210   9.659   4.014
93442SOL    HW282224  10.127   9.775   4.065
93443SOL     OW82225  10.722   6.451   2.781
93443SOL    HW182226  10.778   6.389   2.735
93443SOL    HW282227  10.782   6.506   2.831
93444SOL     OW82228   5.661   0.035   4.385
93444SOL    HW182229   5.631  14.856   4.307
93444SOL    HW282230   5.754   0.015   4.391
93445SOL     OW82231   3.530   9.339  13.302
93445SOL    HW182232   3.596   9.309  13.238
93445SOL    HW282233   3.574   9.330  13.386
93446SOL     OW82234   6.836   8.472  10.099
93446SOL    HW182235   6.771   8.521  10.049
93446SOL    HW282236   6.786   8.400  10.138
93447SOL     OW82237   2.357  13.512   5.726
93447SOL    HW182238   2.437  13.563   5.741
93447SOL    HW282239   2.387  13.427   5.694
93448SOL     OW82240   0.558   0.770   3.450
93448SOL    HW182241   0.531   0.786   3.359
93448SOL    HW282242   0.653   0.775   3.447
93449SOL     OW82243   4.459  10.460   4.873
93449SOL    HW182244   4.495  10.378   4.907
93449SOL    HW282245   4.506  10.529   4.921
93450SOL     OW82246   7.709  12.427   7.163
93450SOL    HW182247   7.649  12.388   7.100
93450SOL    HW282248   7.692  12.521   7.157
93451SOL     OW82249  11.077   0.763   5.443
93451SOL    HW182250  11.127   0.757   5.525
93451SOL    HW282251  11.024   0.683   5.442
93452SOL     OW82252   0.262   5.943  13.344
93452SOL    HW182253   0.348   5.917  13.313
93452SOL    HW282254   0.204   5.871  13.317
93453SOL     OW82255   7.178   7.363   8.719
93453SOL    HW182256   7.134   7.357   8.804
93453SOL    HW282257   7.108   7.349   8.655
93454SOL     OW82258  11.931   0.542   7.967
93454SOL    HW182259  11.851   0.509   7.926
93454SOL    HW282260  11.903   0.577   8.051
93455SOL     OW82261   8.936   6.340  11.846
93455SOL    HW182262   8.894   6.426  11.836
93455SOL    HW282263   8.879   6.293  11.906
93456SOL     OW82264  10.114  14.525   9.782
93456SOL    HW182265  10.146  14.516   9.693
93456SOL    HW282266  10.174  14.473   9.835
93457SOL     OW82267   4.193  10.620   0.440
93457SOL    HW182268   4.141  10.660   0.510
93457SOL    HW282269   4.275  10.595   0.482
93458SOL     OW82270  14.732   4.382   7.841
93458SOL    HW182271  14.811   4.401   7.791
93458SOL    HW282272  14.758   4.314   7.903
93459SOL     OW82273  12.492   8.779   4.801
93459SOL    HW182274  12.458   8.710   4.744
93459SOL    HW282275  12.552   8.733   4.860
93460SOL     OW82276   2.662   3.091   4.337
93460SOL    HW182277   2.737   3.042   4.371
93460SOL    HW282278   2.672   3.179   4.373
93461SOL     OW82279   6.300   9.415   8.981
93461SOL    HW182280   6.318   9.444   9.071
93461SOL    HW282281   6.205   9.415   8.975
93462SOL     OW82282   8.334   1.907   7.698
93462SOL    HW182283   8.337   2.002   7.702
93462SOL    HW282284   8.246   1.884   7.728
93463SOL     OW82285  10.301   1.875   2.091
93463SOL    HW182286  10.339   1.801   2.044
93463SOL    HW282287  10.345   1.877   2.175
93464SOL     OW82288   0.438   7.629  14.269
93464SOL    HW182289   0.411   7.549  14.315
93464SOL    HW282290   0.434   7.698  14.335
93465SOL     OW82291  10.290   8.135   6.768
93465SOL    HW182292  10.273   8.213   6.715
93465SOL    HW282293  10.344   8.167   6.841
93466SOL     OW82294  10.133   8.577  11.469
93466SOL    HW182295  10.197   8.646  11.483
93466SOL    HW282296  10.049   8.618  11.491
93467SOL     OW82297  11.697   7.320   2.436
93467SOL    HW182298  11.758   7.342   2.506
93467SOL    HW282299  11.720   7.381   2.365
93468SOL     OW82300  12.755   7.429   4.019
93468SOL    HW182301  12.733   7.513   4.060
93468SOL    HW282302  12.671   7.394   3.989
93469SOL     OW82303   2.094   3.304   3.939
93469SOL    HW182304   2.157   3.309   3.867
93469SOL    HW282305   2.102   3.388   3.984
93470SOL     OW82306   1.656   2.422   8.339
93470SOL    HW182307   1.600   2.480   8.289
93470SOL    HW282308   1.599   2.386   8.407
93471SOL     OW82309   2.212   6.655   4.017
93471SOL    HW182310   2.153   6.701   4.078
93471SOL    HW282311   2.295   6.649   4.064
93472SOL     OW82312   4.707   9.937   9.035
93472SOL    HW182313   4.746   9.975   9.114
93472SOL    HW282314   4.694   9.844   9.057
93473SOL     OW82315   9.604  14.468  12.160
93473SOL    HW182316   9.564  14.525  12.094
93473SOL    HW282317   9.688  14.443  12.123
93474SOL     OW82318   6.989   5.174   0.285
93474SOL    HW182319   6.982   5.080   0.298
93474SOL    HW282320   6.984   5.211   0.374
93475SOL     OW82321   9.921   3.749  10.404
93475SOL    HW182322   9.923   3.817  10.337
93475SOL    HW282323   9.930   3.796  10.486
93476SOL     OW82324  12.620   3.261  14.133
93476SOL    HW182325  12.556   3.308  14.186
93476SOL    HW282326  12.569   3.219  14.064
93477SOL     OW82327   0.030   1.012  12.263
93477SOL    HW182328   0.016   1.099  12.227
93477SOL    HW282329  14.811   0.983  12.290
93478SOL     OW82330  14.750   5.144  14.484
93478SOL    HW182331  14.731   5.226  14.530
93478SOL    HW282332  14.709   5.154  14.398
93479SOL     OW82333   8.397  10.662   7.348
93479SOL    HW182334   8.441  10.606   7.285
93479SOL    HW282335   8.311  10.678   7.309
93480SOL     OW82336  11.111   0.575   0.907
93480SOL    HW182337  11.116   0.479   0.903
93480SOL    HW282338  11.133   0.596   0.997
93481SOL     OW82339  13.414   6.582  11.946
93481SOL    HW182340  13.355   6.592  12.020
93481SOL    HW282341  13.420   6.487  11.933
93482SOL     OW82342   9.367   5.914  10.543
93482SOL    HW182343   9.361   5.819  10.540
93482SOL    HW282344   9.440   5.932  10.603
93483SOL     OW82345   1.018  12.254   4.921
93483SOL    HW182346   0.949  12.301   4.968
93483SOL    HW282347   0.973  12.211   4.848
93484SOL     OW82348  10.417  10.260   3.744
93484SOL    HW182349  10.491  10.222   3.695
93484SOL    HW282350  10.450  10.345   3.773
93485SOL     OW82351   2.161  13.567   5.906
93485SOL    HW182352   2.221  13.564   5.980
93485SOL    HW282353   2.207  13.522   5.836
93486SOL     OW82354   1.189   6.661   8.140
93486SOL    HW182355   1.242   6.657   8.220
93486SOL    HW282356   1.239   6.613   8.075
93487SOL     OW82357   8.516  10.873  13.150
93487SOL    HW182358   8.478  10.914  13.072
93487SOL    HW282359   8.481  10.925  13.223
93488SOL     OW82360  10.519   5.918   8.305
93488SOL    HW182361  10.494   5.966   8.383
93488SOL    HW282362  10.608   5.888   8.323
93489SOL     OW82363   4.087   9.068   6.944
93489SOL    HW182364   4.140   8.995   6.977
93489SOL    HW282365   4.111   9.142   7.000
93490SOL     OW82366  14.432   6.058   2.528
93490SOL    HW182367  14.337   6.052   2.535
93490SOL    HW282368  14.451   6.152   2.531
93491SOL     OW82369   7.390   5.296   5.866
93491SOL    HW182370   7.358   5.288   5.956
93491SOL    HW282371   7.311   5.312   5.814
93492SOL     OW82372   5.143   4.737   4.707
93492SOL    HW182373   5.198   4.659   4.709
93492SOL    HW282374   5.058   4.707   4.739
93493SOL     OW82375  13.482  12.153   9.271
93493SOL    HW182376  13.549  12.110   9.217
93493SOL    HW282377  13.400  12.141   9.223
93494SOL     OW82378  14.552   5.882  12.651
93494SOL    HW182379  14.463   5.913  12.638
93494SOL    HW282380  14.549   5.789  12.626
93495SOL     OW82381   3.317   1.633  13.034
93495SOL    HW182382   3.290   1.715  12.993
93495SOL    HW282383   3.367   1.587  12.967
93496SOL     OW82384   3.160   3.421   4.426
93496SOL    HW182385   3.236   3.473   4.453
93496SOL    HW282386   3.183   3.389   4.339
93497SOL     OW82387   1.821   6.667  13.741
93497SOL    HW182388   1.834   6.714  13.823
93497SOL    HW282389   1.851   6.728  13.673
93498SOL     OW82390  10.261   0.375   6.599
93498SOL    HW182391  10.229   0.286   6.581
93498SOL    HW282392  10.261   0.382   6.694
93499SOL     OW82393   9.748  13.103   6.499
93499SOL    HW182394   9.700  13.137   6.574
93499SOL    HW282395   9.701  13.138   6.423
93500SOL     OW82396   8.347   5.981  12.460
93500SOL    HW182397   8.412   5.953  12.396
93500SOL    HW282398   8.325   5.901  12.509
93501SOL     OW82399   9.157   6.075  13.950
93501SOL    HW182400   9.133   5.983  13.936
93501SOL    HW282401   9.249   6.079  13.925
93502SOL     OW82402   7.265   3.975  11.558
93502SOL    HW182403   7.214   4.010  11.486
93502SOL    HW282404   7.254   3.880  11.552
93503SOL     OW82405   3.550   0.446   4.055
93503SOL    HW182406   3.508   0.389   3.991
93503SOL    HW282407   3.589   0.387   4.119
93504SOL     OW82408   0.461   3.801   1.427
93504SOL    HW182409   0.393   3.857   1.464
93504SOL    HW282410   0.520   3.862   1.381
93505SOL     OW82411   6.604   4.057   1.136
93505SOL    HW182412   6.578   4.147   1.117
93505SOL    HW282413   6.631   4.021   1.051
93506SOL     OW82414  11.028   4.025   2.545
93506SOL    HW182415  10.941   4.039   2.584
93506SOL    HW282416  11.010   4.011   2.452
93507SOL     OW82417  10.298   0.784   7.281
93507SOL    HW182418  10.214   0.757   7.318
93507SOL    HW282419  10.360   0.776   7.353
93508SOL     OW82420  10.193   1.612   1.802
93508SOL    HW182421  10.245   1.691   1.786
93508SOL    HW282422  10.106   1.645   1.824
93509SOL     OW82423   4.086   9.711   1.987
93509SOL    HW182424   4.023   9.769   1.944
93509SOL    HW282425   4.158   9.769   2.012
93510SOL     OW82426   4.732  14.319   0.202
93510SOL    HW182427   4.673  14.393   0.211
93510SOL    HW282428   4.792  14.345   0.132
93511SOL     OW82429   1.056  10.168   3.167
93511SOL    HW182430   1.131  10.204   3.215
93511SOL    HW282431   1.089  10.089   3.125
93512SOL     OW82432   8.359  11.786   2.765
93512SOL    HW182433   8.304  11.720   2.721
93512SOL    HW282434   8.348  11.767   2.859
93513SOL     OW82435   9.510   9.648  11.072
93513SOL    HW182436   9.491   9.563  11.032
93513SOL    HW282437   9.456   9.710  11.024
93514SOL     OW82438   7.144   7.858   5.398
93514SOL    HW182439   7.192   7.855   5.315
93514SOL    HW282440   7.122   7.951   5.409
93515SOL     OW82441   4.930   3.388   7.431
93515SOL    HW182442   4.901   3.312   7.380
93515SOL    HW282443   4.981   3.440   7.369
93516SOL     OW82444   1.242  13.672   5.211
93516SOL    HW182445   1.274  13.744   5.156
93516SOL    HW282446   1.192  13.715   5.280
93517SOL     OW82447   3.624   9.490   2.291
93517SOL    HW182448   3.645   9.565   2.346
93517SOL    HW282449   3.662   9.511   2.206
93518SOL     OW82450   6.068   4.911  10.281
93518SOL    HW182451   6.007   4.983  10.268
93518SOL    HW282452   6.015   4.832  10.272
93519SOL     OW82453   1.044  11.549   2.818
93519SOL    HW182454   1.064  11.641   2.835
93519SOL    HW282455   0.952  11.539   2.841
93520SOL     OW82456  12.340   6.539   7.331
93520SOL    HW182457  12.335   6.444   7.337
93520SOL    HW282458  12.421   6.562   7.377
93521SOL     OW82459   2.945   7.828   4.389
93521SOL    HW182460   3.025   7.775   4.389
93521SOL    HW282461   2.920   7.833   4.482
93522SOL     OW82462   8.556   9.176   8.134
93522SOL    HW182463   8.544   9.085   8.107
93522SOL    HW282464   8.641   9.201   8.099
93523SOL     OW82465   4.245  12.802  11.560
93523SOL    HW182466   4.179  12.794  11.629
93523SOL    HW282467   4.277  12.892  11.569
93524SOL     OW82468   1.760  13.250  11.883
93524SOL    HW182469   1.665  13.262  11.877
93524SOL    HW282470   1.791  13.329  11.927
93525SOL     OW82471   6.914   1.160   8.376
93525SOL    HW182472   6.976   1.087   8.385
93525SOL    HW282473   6.855   1.132   8.306
93526SOL     OW82474   6.561   3.494   4.957
93526SOL    HW182475   6.580   3.551   4.883
93526SOL    HW282476   6.473   3.518   4.985
93527SOL     OW82477   2.260   9.599   2.432
93527SOL    HW182478   2.278   9.583   2.525
93527SOL    HW282479   2.247   9.693   2.426
93528SOL     OW82480   6.470   9.424   3.878
93528SOL    HW182481   6.550   9.378   3.852
93528SOL    HW282482   6.475   9.508   3.833
93529SOL     OW82483   4.915   6.930   0.843
93529SOL    HW182484   4.885   6.962   0.928
93529SOL    HW282485   4.997   6.884   0.862
93530SOL     OW82486  11.972   2.196   9.490
93530SOL    HW182487  11.982   2.192   9.585
93530SOL    HW282488  12.035   2.261   9.461
93531SOL     OW82489  10.166  12.984   2.072
93531SOL    HW182490  10.199  13.040   2.143
93531SOL    HW282491  10.235  12.987   2.005
93532SOL     OW82492   9.521   8.189   3.032
93532SOL    HW182493   9.483   8.117   2.981
93532SOL    HW282494   9.460   8.261   3.021
93533SOL     OW82495   4.021  10.819  10.493
93533SOL    HW182496   4.041  10.726  10.500
93533SOL    HW282497   4.054  10.845  10.407
93534SOL     OW82498   7.800   1.322  14.496
93534SOL    HW182499   7.742   1.386  14.539
93534SOL    HW282500   7.816   1.256  14.564
93535SOL     OW82501   3.330   2.557   3.022
93535SOL    HW182502   3.297   2.617   2.956
93535SOL    HW282503   3.398   2.506   2.977
93536SOL     OW82504   0.003   0.300   9.119
93536SOL    HW182505  14.824   0.266   9.195
93536SOL    HW282506   0.093   0.308   9.148
93537SOL     OW82507  14.539   5.567  14.582
93537SOL    HW182508  14.544   5.625  14.506
93537SOL    HW282509  14.622   5.519  14.582
93538SOL     OW82510   3.940  10.086   5.868
93538SOL    HW182511   4.030  10.086   5.900
93538SOL    HW282512   3.944  10.040   5.784
93539SOL     OW82513   3.166   4.120   8.927
93539SOL    HW182514   3.122   4.041   8.895
93539SOL    HW282515   3.182   4.172   8.848
93540SOL     OW82516  12.998   0.220   5.580
93540SOL    HW182517  13.059   0.235   5.507
93540SOL    HW282518  12.921   0.180   5.539
93541SOL     OW82519   6.971   5.273   4.080
93541SOL    HW182520   6.904   5.220   4.122
93541SOL    HW282521   6.964   5.359   4.121
93542SOL     OW82522   5.906   8.923   4.030
93542SOL    HW182523   5.983   8.868   4.041
93542SOL    HW282524   5.918   8.965   3.945
93543SOL     OW82525  12.077   5.646   7.531
93543SOL    HW182526  12.078   5.634   7.437
93543SOL    HW282527  12.100   5.738   7.544
93544SOL     OW82528  12.043  13.054   4.700
93544SOL    HW182529  12.119  13.032   4.753
93544SOL    HW282530  12.008  12.970   4.671
93545SOL     OW82531   9.869   5.354   5.272
93545SOL    HW182532   9.920   5.309   5.206
93545SOL    HW282533   9.800   5.398   5.223
93546SOL     OW82534  12.401   0.834  14.421
93546SOL    HW182535  12.454   0.778  14.365
93546SOL    HW282536  12.450   0.915  14.428
93547SOL     OW82537   9.734   0.425   1.318
93547SOL    HW182538   9.795   0.391   1.253
93547SOL    HW282539   9.765   0.387   1.401
93548SOL     OW82540   9.339   4.917   7.513
93548SOL    HW182541   9.378   4.864   7.582
93548SOL    HW282542   9.414   4.950   7.463
93549SOL     OW82543  12.931  13.322   7.914
93549SOL    HW182544  12.978  13.349   7.836
93549SOL    HW282545  12.957  13.231   7.929
93550SOL     OW82546   6.818  13.702  10.749
93550SOL    HW182547   6.733  13.733  10.716
93550SOL    HW282548   6.883  13.744  10.693
93551SOL     OW82549  13.062   8.790   0.702
93551SOL    HW182550  13.006   8.715   0.684
93551SOL    HW282551  13.071   8.834   0.618
93552SOL     OW82552   2.396   3.984   9.526
93552SOL    HW182553   2.376   4.070   9.562
93552SOL    HW282554   2.428   3.933   9.601
93553SOL     OW82555   0.389   0.345   2.012
93553SOL    HW182556   0.394   0.294   2.093
93553SOL    HW282557   0.297   0.370   2.005
93554SOL     OW82558  13.478  12.247   5.423
93554SOL    HW182559  13.525  12.237   5.340
93554SOL    HW282560  13.386  12.256   5.398
93555SOL     OW82561   1.360   2.502  11.640
93555SOL    HW182562   1.420   2.428  11.633
93555SOL    HW282563   1.413   2.573  11.677
93556SOL     OW82564   6.542   6.539   6.159
93556SOL    HW182565   6.565   6.446   6.152
93556SOL    HW282566   6.523   6.565   6.069
93557SOL     OW82567   6.094  11.337   1.505
93557SOL    HW182568   6.188  11.339   1.526
93557SOL    HW282569   6.085  11.400   1.434
93558SOL     OW82570  12.920   2.499   9.507
93558SOL    HW182571  13.008   2.533   9.488
93558SOL    HW282572  12.918   2.413   9.464
93559SOL     OW82573   9.710   5.880  10.601
93559SOL    HW182574   9.685   5.797  10.560
93559SOL    HW282575   9.798   5.864  10.635
93560SOL     OW82576  13.754  12.123   4.748
93560SOL    HW182577  13.796  12.056   4.803
93560SOL    HW282578  13.674  12.145   4.795
93561SOL     OW82579  14.023  10.735   1.278
93561SOL    HW182580  13.961  10.806   1.295
93561SOL    HW282581  14.079  10.768   1.208
93562SOL     OW82582  12.375   8.774   2.514
93562SOL    HW182583  12.422   8.719   2.452
93562SOL    HW282584  12.300   8.807   2.465
93563SOL     OW82585  14.003   2.957   3.214
93563SOL    HW182586  13.908   2.946   3.218
93563SOL    HW282587  14.038   2.883   3.264
93564SOL     OW82588  14.790  14.138   3.809
93564SOL    HW182589  14.776  14.196   3.883
93564SOL    HW282590  14.740  14.178   3.737
93565SOL     OW82591  10.581   2.506   9.461
93565SOL    HW182592  10.520   2.548   9.522
93565SOL    HW282593  10.547   2.528   9.374
93566SOL     OW82594   9.321   6.865   4.532
93566SOL    HW182595   9.315   6.956   4.562
93566SOL    HW282596   9.345   6.871   4.440
93567SOL     OW82597   6.430   7.210   6.247
93567SOL    HW182598   6.374   7.276   6.206
93567SOL    HW282599   6.388   7.192   6.331
93568SOL     OW82600   0.281  10.723   8.650
93568SOL    HW182601   0.313  10.757   8.733
93568SOL    HW282602   0.311  10.632   8.648
93569SOL     OW82603  14.435   0.926   6.191
93569SOL    HW182604  14.372   0.855   6.178
93569SOL    HW282605  14.450   0.961   6.103
93570SOL     OW82606  11.488  10.113   6.015
93570SOL    HW182607  11.428  10.057   5.966
93570SOL    HW282608  11.431  10.177   6.058
93571SOL     OW82609   5.138   0.057   0.219
93571SOL    HW182610   5.066   0.051   0.283
93571SOL    HW282611   5.178   0.143   0.237
93572SOL     OW82612  13.955   2.574   0.861
93572SOL    HW182613  13.945   2.490   0.907
93572SOL    HW282614  13.910   2.637   0.917
93573SOL     OW82615   0.555   4.178   7.736
93573SOL    HW182616   0.542   4.147   7.826
93573SOL    HW282617   0.650   4.172   7.722
93574SOL     OW82618  14.005   1.554   0.680
93574SOL    HW182619  14.072   1.572   0.746
93574SOL    HW282620  14.054   1.528   0.602
93575SOL     OW82621  12.212   5.153  10.648
93575SOL    HW182622  12.184   5.194  10.730
93575SOL    HW282623  12.130   5.130  10.604
93576SOL     OW82624   8.990  10.412  11.812
93576SOL    HW182625   8.970  10.319  11.798
93576SOL    HW282626   8.966  10.428  11.903
93577SOL     OW82627   2.500  10.669  10.739
93577SOL    HW182628   2.570  10.705  10.794
93577SOL    HW282629   2.421  10.676  10.793
93578SOL     OW82630   9.287  10.700  10.024
93578SOL    HW182631   9.347  10.683  10.096
93578SOL    HW282632   9.203  10.663  10.052
93579SOL     OW82633   1.367   2.013   5.484
93579SOL    HW182634   1.300   1.950   5.509
93579SOL    HW282635   1.420   2.025   5.563
93580SOL     OW82636   7.904   7.296   1.377
93580SOL    HW182637   7.867   7.383   1.363
93580SOL    HW282638   7.979   7.292   1.318
93581SOL     OW82639  11.426   8.800   5.672
93581SOL    HW182640  11.442   8.708   5.650
93581SOL    HW282641  11.455   8.848   5.594
93582SOL     OW82642   8.862   9.940  11.082
93582SOL    HW182643   8.782   9.892  11.103
93582SOL    HW282644   8.835  10.001  11.012
93583SOL     OW82645  14.123   9.602  13.996
93583SOL    HW182646  14.157   9.692  13.998
93583SOL    HW282647  14.201   9.547  13.985
93584SOL     OW82648  11.906  12.383  11.579
93584SOL    HW182649  11.916  12.473  11.608
93584SOL    HW282650  11.898  12.389  11.484
93585SOL     OW82651  12.357   5.927  11.652
93585SOL    HW182652  12.346   6.020  11.671
93585SOL    HW282653  12.334   5.919  11.559
93586SOL     OW82654   0.899  10.719  11.443
93586SOL    HW182655   0.817  10.720  11.395
93586SOL    HW282656   0.954  10.656  11.396
93587SOL     OW82657   0.402   8.620   0.096
93587SOL    HW182658   0.439   8.557   0.158
93587SOL    HW282659   0.326   8.577   0.059
93588SOL     OW82660   9.005   9.623   3.417
93588SOL    HW182661   8.967   9.671   3.491
93588SOL    HW282662   9.082   9.674   3.392
93589SOL     OW82663  12.410   1.176   3.753
93589SOL    HW182664  12.440   1.163   3.663
93589SOL    HW282665  12.421   1.270   3.768
93590SOL     OW82666   6.135   1.918  10.261
93590SOL    HW182667   6.158   1.988  10.322
93590SOL    HW282668   6.041   1.931  10.246
93591SOL     OW82669   3.241  11.498  13.755
93591SOL    HW182670   3.236  11.566  13.688
93591SOL    HW282671   3.327  11.511  13.796
93592SOL     OW82672  13.597   4.987   4.869
93592SOL    HW182673  13.553   4.928   4.930
93592SOL    HW282674  13.530   5.051   4.845
93593SOL     OW82675   5.277   5.098   4.539
93593SOL    HW182676   5.254   5.190   4.541
93593SOL    HW282677   5.271   5.074   4.446
93594SOL     OW82678   4.963  11.903   2.263
93594SOL    HW182679   5.014  11.860   2.194
93594SOL    HW282680   5.023  11.967   2.301
93595SOL     OW82681   1.054  14.127   7.194
93595SOL    HW182682   1.064  14.208   7.144
93595SOL    HW282683   0.960  14.121   7.212
93596SOL     OW82684  14.337   3.613  10.467
93596SOL    HW182685  14.264   3.572  10.420
93596SOL    HW282686  14.404   3.628  10.400
93597SOL     OW82687   2.998  13.051   1.062
93597SOL    HW182688   2.955  13.000   1.131
93597SOL    HW282689   2.998  13.141   1.095
93598SOL     OW82690   9.678  12.573  14.263
93598SOL    HW182691   9.617  12.506  14.295
93598SOL    HW282692   9.739  12.586  14.336
93599SOL     OW82693   3.996  12.944   6.161
93599SOL    HW182694   4.085  12.959   6.131
93599SOL    HW282695   3.986  12.849   6.160
93600SOL     OW82696   9.655   9.722   5.095
93600SOL    HW182697   9.709   9.704   5.018
93600SOL    HW282698   9.584   9.658   5.090
93601SOL     OW82699   7.112   9.604  14.602
93601SOL    HW182700   7.155   9.521  14.584
93601SOL    HW282701   7.033   9.581  14.650
93602SOL     OW82702   8.615   7.565  13.858
93602SOL    HW182703   8.566   7.641  13.826
93602SOL    HW282704   8.703   7.578  13.823
93603SOL     OW82705   5.733  13.884  11.187
93603SOL    HW182706   5.647  13.847  11.169
93603SOL    HW282707   5.786  13.859  11.111
93604SOL     OW82708  10.709   4.425  13.574
93604SOL    HW182709  10.738   4.454  13.661
93604SOL    HW282710  10.732   4.333  13.570
93605SOL     OW82711  12.486   1.858  14.268
93605SOL    HW182712  12.582   1.861  14.271
93605SOL    HW282713  12.459   1.949  14.284
93606SOL     OW82714  10.180   6.939  12.315
93606SOL    HW182715  10.159   7.000  12.386
93606SOL    HW282716  10.263   6.900  12.341
93607SOL     OW82717   4.468   6.756   0.172
93607SOL    HW182718   4.379   6.751   0.137
93607SOL    HW282719   4.461   6.816   0.247
93608SOL     OW82720   5.169   7.004   5.990
93608SOL    HW182721   5.160   7.099   5.982
93608SOL    HW282722   5.116   6.968   5.919
93609SOL     OW82723  10.125  11.752   0.435
93609SOL    HW182724  10.050  11.724   0.487
93609SOL    HW282725  10.184  11.794   0.498
93610SOL     OW82726  12.938  13.841   0.533
93610SOL    HW182727  12.866  13.788   0.567
93610SOL    HW282728  12.903  13.880   0.452
93611SOL     OW82729  14.199   8.006   8.134
93611SOL    HW182730  14.287   8.001   8.098
93611SOL    HW282731  14.169   7.915   8.136
93612SOL     OW82732  12.069   8.560  10.402
93612SOL    HW182733  11.989   8.534  10.446
93612SOL    HW282734  12.063   8.656  10.396
93613SOL     OW82735   0.542   7.773  11.099
93613SOL    HW182736   0.556   7.848  11.157
93613SOL    HW282737   0.481   7.805  11.033
93614SOL     OW82738  11.798   3.438  10.237
93614SOL    HW182739  11.824   3.350  10.209
93614SOL    HW282740  11.716   3.454  10.191
93615SOL     OW82741   2.096   3.488  13.548
93615SOL    HW182742   2.041   3.460  13.474
93615SOL    HW282743   2.169   3.534  13.507
93616SOL     OW82744   2.454   6.014   1.687
93616SOL    HW182745   2.521   6.002   1.619
93616SOL    HW282746   2.496   6.073   1.750
93617SOL     OW82747   0.856   2.728   7.628
93617SOL    HW182748   0.948   2.710   7.648
93617SOL    HW282749   0.842   2.817   7.659
93618SOL     OW82750   0.976   8.929   2.429
93618SOL    HW182751   0.894   8.903   2.471
93618SOL    HW282752   1.043   8.920   2.497
93619SOL     OW82753   7.897  12.638   3.404
93619SOL    HW182754   7.827  12.623   3.341
93619SOL    HW282755   7.918  12.551   3.438
93620SOL     OW82756   0.484  10.539   5.106
93620SOL    HW182757   0.551  10.572   5.047
93620SOL    HW282758   0.506  10.447   5.120
93621SOL     OW82759   8.830   0.001   6.853
93621SOL    HW182760   8.737  14.857   6.872
93621SOL    HW282761   8.858   0.070   6.913
93622SOL     OW82762  12.501   9.264   4.106
93622SOL    HW182763  12.473   9.310   4.027
93622SOL    HW282764  12.468   9.317   4.178
93623SOL     OW82765  12.805   9.482   8.795
93623SOL    HW182766  12.781   9.543   8.864
93623SOL    HW282767  12.901   9.485   8.793
93624SOL     OW82768  12.001   5.681  10.724
93624SOL    HW182769  12.014   5.699  10.817
93624SOL    HW282770  12.027   5.589  10.714
93625SOL     OW82771  11.120   7.693  14.624
93625SOL    HW182772  11.162   7.638  14.559
93625SOL    HW282773  11.183   7.763  14.642
93626SOL     OW82774  12.424   9.419   6.990
93626SOL    HW182775  12.391   9.474   6.919
93626SOL    HW282776  12.367   9.439   7.064
93627SOL     OW82777  10.464  14.153  11.695
93627SOL    HW182778  10.460  14.061  11.670
93627SOL    HW282779  10.375  14.186  11.682
93628SOL     OW82780   3.594   9.997   3.902
93628SOL    HW182781   3.567   9.973   3.991
93628SOL    HW282782   3.689  10.001   3.906
93629SOL     OW82783  13.009   8.606   1.622
93629SOL    HW182784  12.984   8.570   1.536
93629SOL    HW282785  13.084   8.553   1.648
93630SOL     OW82786  11.488   7.771   4.039
93630SOL    HW182787  11.503   7.837   3.972
93630SOL    HW282788  11.393   7.761   4.044
93631SOL     OW82789   1.197  11.425   3.684
93631SOL    HW182790   1.283  11.402   3.721
93631SOL    HW282791   1.135  11.371   3.732
93632SOL     OW82792   1.705   1.084   8.786
93632SOL    HW182793   1.765   1.072   8.860
93632SOL    HW282794   1.757   1.063   8.709
93633SOL     OW82795  11.819  13.933   9.645
93633SOL    HW182796  11.772  13.919   9.563
93633SOL    HW282797  11.864  13.850   9.662
93634SOL     OW82798  11.991   7.913  10.316
93634SOL    HW182799  11.974   7.931  10.408
93634SOL    HW282800  12.038   7.990  10.284
93635SOL     OW82801   3.544  14.650   6.043
93635SOL    HW182802   3.633  14.666   6.011
93635SOL    HW282803   3.549  14.667   6.137
93636SOL     OW82804   2.846   7.717   2.287
93636SOL    HW182805   2.936   7.701   2.316
93636SOL    HW282806   2.811   7.629   2.269
93637SOL     OW82807   2.084   5.717  13.595
93637SOL    HW182808   2.004   5.745  13.552
93637SOL    HW282809   2.072   5.740  13.687
93638SOL     OW82810   8.157   0.664   7.544
93638SOL    HW182811   8.184   0.606   7.616
93638SOL    HW282812   8.224   0.651   7.477
93639SOL     OW82813   0.639  14.614  12.134
93639SOL    HW182814   0.698  14.625  12.059
93639SOL    HW282815   0.573  14.552  12.104
93640SOL     OW82816  12.856  11.625  13.749
93640SOL    HW182817  12.827  11.542  13.787
93640SOL    HW282818  12.951  11.623  13.757
93641SOL     OW82819   1.508   3.651  12.080
93641SOL    HW182820   1.505   3.737  12.122
93641SOL    HW282821   1.575   3.603  12.127
93642SOL     OW82822  11.116   0.851   2.474
93642SOL    HW182823  11.056   0.788   2.514
93642SOL    HW282824  11.117   0.828   2.381
93643SOL     OW82825  10.893  10.084   8.949
93643SOL    HW182826  10.949  10.153   8.915
93643SOL    HW282827  10.867  10.116   9.036
93644SOL     OW82828   2.818   3.516  10.467
93644SOL    HW182829   2.776   3.516  10.553
93644SOL    HW282830   2.904   3.477  10.483
93645SOL     OW82831   5.769   1.386   9.983
93645SOL    HW182832   5.697   1.437  10.020
93645SOL    HW282833   5.846   1.415  10.032
93646SOL     OW82834   3.160   4.782  10.859
93646SOL    HW182835   3.193   4.781  10.949
93646SOL    HW282836   3.065   4.784  10.868
93647SOL     OW82837   4.227   8.855  14.778
93647SOL    HW182838   4.261   8.887  14.695
93647SOL    HW282839   4.242   8.927  14.839
93648SOL     OW82840   1.933   0.173   7.159
93648SOL    HW182841   1.994   0.193   7.230
93648SOL    HW282842   1.988   0.165   7.081
93649SOL     OW82843  11.198   5.404   0.264
93649SOL    HW182844  11.154   5.351   0.331
93649SOL    HW282845  11.275   5.440   0.309
93650SOL     OW82846   4.126   8.909   2.553
93650SOL    HW182847   4.151   8.979   2.615
93650SOL    HW282848   4.190   8.840   2.569
93651SOL     OW82849   4.732  13.081  14.510
93651SOL    HW182850   4.674  13.079  14.586
93651SOL    HW282851   4.812  13.122  14.543
93652SOL     OW82852  13.075  13.715   2.685
93652SOL    HW182853  12.994  13.744   2.728
93652SOL    HW282854  13.060  13.623   2.664
93653SOL     OW82855   2.387  14.304   1.365
93653SOL    HW182856   2.408  14.217   1.331
93653SOL    HW282857   2.437  14.364   1.309
93654SOL     OW82858   0.985   9.351   0.127
93654SOL    HW182859   0.895   9.381   0.110
93654SOL    HW282860   1.000   9.372   0.219
93655SOL     OW82861  11.872   2.889   8.436
93655SOL    HW182862  11.951   2.941   8.451
93655SOL    HW282863  11.895   2.831   8.364
93656SOL     OW82864   2.323   7.648   2.152
93656SOL    HW182865   2.264   7.683   2.086
93656SOL    HW282866   2.273   7.577   2.193
93657SOL     OW82867   4.072   6.109   2.920
93657SOL    HW182868   4.162   6.103   2.950
93657SOL    HW282869   4.062   6.199   2.888
93658SOL     OW82870   9.133   1.387   4.577
93658SOL    HW182871   9.192   1.337   4.521
93658SOL    HW282872   9.192   1.440   4.631
93659SOL     OW82873   9.790   2.239   5.831
93659SOL    HW182874   9.862   2.177   5.840
93659SOL    HW282875   9.799   2.297   5.907
93660SOL     OW82876  13.958  13.884   7.587
93660SOL    HW182877  13.965  13.834   7.669
93660SOL    HW282878  13.890  13.949   7.604
93661SOL     OW82879   8.319   9.205   4.706
93661SOL    HW182880   8.256   9.158   4.653
93661SOL    HW282881   8.397   9.150   4.706
93662SOL     OW82882   0.188  11.668  13.181
93662SOL    HW182883   0.148  11.618  13.110
93662SOL    HW282884   0.248  11.606  13.222
93663SOL     OW82885   6.924   6.498  12.386
93663SOL    HW182886   6.890   6.571  12.439
93663SOL    HW282887   6.874   6.503  12.304
93664SOL     OW82888  12.723   0.775   8.508
93664SOL    HW182889  12.630   0.790   8.492
93664SOL    HW282890  12.726   0.698   8.565
93665SOL     OW82891  14.354   7.845   8.727
93665SOL    HW182892  14.336   7.902   8.652
93665SOL    HW282893  14.429   7.792   8.699
93666SOL     OW82894   8.060   3.917   1.587
93666SOL    HW182895   8.125   3.948   1.650
93666SOL    HW282896   7.993   3.986   1.584
93667SOL     OW82897   3.296  14.657   0.102
93667SOL    HW182898   3.289  14.659   0.006
93667SOL    HW282899   3.251  14.576   0.128
93668SOL     OW82900   3.756  11.967   9.207
93668SOL    HW182901   3.718  11.932   9.287
93668SOL    HW282902   3.702  11.929   9.137
93669SOL     OW82903  11.357   8.559  14.606
93669SOL    HW182904  11.384   8.577  14.696
93669SOL    HW282905  11.282   8.617  14.591
93670SOL     OW82906  12.628   2.574   8.383
93670SOL    HW182907  12.551   2.526   8.416
93670SOL    HW282908  12.699   2.509   8.386
93671SOL     OW82909   3.765   8.803  13.289
93671SOL    HW182910   3.739   8.773  13.201
93671SOL    HW282911   3.818   8.731  13.324
93672SOL     OW82912   6.653   8.683   6.365
93672SOL    HW182913   6.590   8.689   6.436
93672SOL    HW282914   6.706   8.606   6.386
93673SOL     OW82915   8.363   2.621   3.325
93673SOL    HW182916   8.285   2.571   3.300
93673SOL    HW282917   8.427   2.555   3.350
93674SOL     OW82918   9.246  14.326   7.637
93674SOL    HW182919   9.223  14.390   7.704
93674SOL    HW282920   9.335  14.299   7.659
93675SOL     OW82921   9.054  13.602   1.231
93675SOL    HW182922   9.127  13.611   1.170
93675SOL    HW282923   8.987  13.663   1.199
93676SOL     OW82924   7.472   6.203   9.112
93676SOL    HW182925   7.431   6.123   9.146
93676SOL    HW282926   7.431   6.274   9.161
93677SOL     OW82927   5.295  14.059   6.262
93677SOL    HW182928   5.354  14.128   6.231
93677SOL    HW282929   5.208  14.099   6.260
93678SOL     OW82930   9.402  13.261   1.166
93678SOL    HW182931   9.394  13.187   1.227
93678SOL    HW282932   9.314  13.273   1.132
93679SOL     OW82933  13.835   9.571   0.956
93679SOL    HW182934  13.796   9.659   0.954
93679SOL    HW282935  13.766   9.513   0.925
93680SOL     OW82936  14.747  10.841  14.273
93680SOL    HW182937  14.661  10.858  14.311
93680SOL    HW282938  14.803  10.823  14.348
93681SOL     OW82939   3.158   5.074   1.039
93681SOL    HW182940   3.192   5.163   1.048
93681SOL    HW282941   3.085   5.070   1.101
93682SOL     OW82942  11.520  13.449   6.022
93682SOL    HW182943  11.470  13.495   5.954
93682SOL    HW282944  11.453  13.415   6.082
93683SOL     OW82945   7.766  10.473   0.662
93683SOL    HW182946   7.855  10.491   0.630
93683SOL    HW282947   7.766  10.380   0.682
93684SOL     OW82948  13.668   6.542  10.122
93684SOL    HW182949  13.602   6.507  10.183
93684SOL    HW282950  13.640   6.632  10.107
93685SOL     OW82951   6.792   3.068  11.575
93685SOL    HW182952   6.756   3.083  11.488
93685SOL    HW282953   6.845   2.989  11.566
93686SOL     OW82954  12.937   0.247   3.545
93686SOL    HW182955  12.956   0.283   3.631
93686SOL    HW282956  12.983   0.162   3.544
93687SOL     OW82957   2.486   7.515  13.099
93687SOL    HW182958   2.562   7.501  13.155
93687SOL    HW282959   2.480   7.436  13.046
93688SOL     OW82960   7.909   2.797   3.242
93688SOL    HW182961   7.963   2.751   3.178
93688SOL    HW282962   7.897   2.885   3.204
93689SOL     OW82963   3.347   8.478  13.977
93689SOL    HW182964   3.263   8.483  13.931
93689SOL    HW282965   3.412   8.499  13.910
93690SOL     OW82966   7.667   1.972  11.740
93690SOL    HW182967   7.756   1.966  11.775
93690SOL    HW282968   7.612   1.934  11.808
93691SOL     OW82969  10.294   1.731   1.457
93691SOL    HW182970  10.252   1.808   1.495
93691SOL    HW282971  10.226   1.663   1.460
93692SOL     OW82972  12.110   7.037   1.413
93692SOL    HW182973  12.182   7.038   1.477
93692SOL    HW282974  12.049   7.105   1.445
93693SOL     OW82975   2.030   1.842   5.248
93693SOL    HW182976   1.960   1.892   5.204
93693SOL    HW282977   1.994   1.823   5.334
93694SOL     OW82978   7.670   1.360   9.141
93694SOL    HW182979   7.744   1.369   9.202
93694SOL    HW282980   7.610   1.301   9.185
93695SOL     OW82981  13.896  12.999  14.149
93695SOL    HW182982  13.868  12.908  14.147
93695SOL    HW282983  13.870  13.035  14.064
93696SOL     OW82984  13.533   0.230   7.672
93696SOL    HW182985  13.628   0.237   7.660
93696SOL    HW282986  13.502   0.321   7.668
93697SOL     OW82987   9.030   6.507   4.732
93697SOL    HW182988   8.962   6.449   4.767
93697SOL    HW282989   8.991   6.544   4.653
93698SOL     OW82990   8.421   5.267   8.608
93698SOL    HW182991   8.487   5.199   8.602
93698SOL    HW282992   8.375   5.248   8.690
93699SOL     OW82993   3.124  13.823   1.598
93699SOL    HW182994   3.181  13.747   1.601
93699SOL    HW282995   3.089  13.831   1.686
93700SOL     OW82996   0.102   4.956   7.043
93700SOL    HW182997   0.168   4.914   7.099
93700SOL    HW282998   0.125   5.049   7.044
93701SOL     OW82999   4.102   5.657   6.126
93701SOL    HW183000   4.174   5.606   6.164
93701SOL    HW283001   4.121   5.748   6.152
93702SOL     OW83002  10.145   3.087   1.896
93702SOL    HW183003  10.064   3.050   1.861
93702SOL    HW283004  10.167   3.159   1.837
93703SOL     OW83005   1.832   7.677  13.038
93703SOL    HW183006   1.741   7.676  13.069
93703SOL    HW283007   1.834   7.613  12.967
93704SOL     OW83008   2.228   8.051   1.566
93704SOL    HW183009   2.168   8.105   1.618
93704SOL    HW283010   2.299   8.030   1.626
93705SOL     OW83011  10.112  11.124   3.658
93705SOL    HW183012  10.029  11.126   3.706
93705SOL    HW283013  10.094  11.070   3.581
93706SOL     OW83014  13.069   3.973   3.357
93706SOL    HW183015  13.112   3.892   3.330
93706SOL    HW283016  13.016   3.998   3.281
93707SOL     OW83017   3.067  13.541   6.334
93707SOL    HW183018   3.125  13.612   6.362
93707SOL    HW283019   3.123  13.463   6.333
93708SOL     OW83020   5.087   0.474   6.873
93708SOL    HW183021   5.131   0.417   6.809
93708SOL    HW283022   4.994   0.456   6.861
93709SOL     OW83023  12.137  11.494   0.323
93709SOL    HW183024  12.197  11.508   0.396
93709SOL    HW283025  12.050  11.495   0.363
93710SOL     OW83026  11.894   0.078   3.937
93710SOL    HW183027  11.868   0.169   3.951
93710SOL    HW283028  11.812   0.028   3.947
93711SOL     OW83029   0.887  14.710   8.887
93711SOL    HW183030   0.937  14.791   8.884
93711SOL    HW283031   0.817  14.723   8.823
93712SOL     OW83032   9.697   1.136  10.142
93712SOL    HW183033   9.733   1.205  10.086
93712SOL    HW283034   9.612   1.169  10.170
93713SOL     OW83035   1.533   5.367   9.541
93713SOL    HW183036   1.493   5.383   9.627
93713SOL    HW283037   1.614   5.319   9.561
93714SOL     OW83038   7.425   3.598   3.902
93714SOL    HW183039   7.467   3.665   3.956
93714SOL    HW283040   7.347   3.640   3.867
93715SOL     OW83041   0.974   4.120   2.570
93715SOL    HW183042   1.064   4.155   2.568
93715SOL    HW283043   0.958   4.088   2.482
93716SOL     OW83044   1.572  14.671   9.544
93716SOL    HW183045   1.651  14.687   9.595
93716SOL    HW283046   1.593  14.594   9.491
93717SOL     OW83047   2.423   5.348   5.580
93717SOL    HW183048   2.496   5.394   5.621
93717SOL    HW283049   2.436   5.256   5.603
93718SOL     OW83050  14.066   6.608   2.475
93718SOL    HW183051  14.063   6.516   2.448
93718SOL    HW283052  14.028   6.609   2.562
93719SOL     OW83053   9.501   9.383   6.565
93719SOL    HW183054   9.457   9.313   6.613
93719SOL    HW283055   9.578   9.404   6.618
93720SOL     OW83056  13.238   8.678   1.321
93720SOL    HW183057  13.289   8.692   1.400
93720SOL    HW283058  13.200   8.591   1.332
93721SOL     OW83059   8.057   1.951  13.054
93721SOL    HW183060   8.119   2.012  13.015
93721SOL    HW283061   8.055   1.877  12.995
93722SOL     OW83062   6.508   5.312   4.655
93722SOL    HW183063   6.525   5.257   4.731
93722SOL    HW283064   6.537   5.399   4.681
93723SOL     OW83065   8.018   8.558   2.795
93723SOL    HW183066   8.087   8.553   2.862
93723SOL    HW283067   7.990   8.467   2.783
93724SOL     OW83068   8.721  10.776   5.293
93724SOL    HW183069   8.658  10.831   5.245
93724SOL    HW283070   8.803  10.788   5.246
93725SOL     OW83071   1.716   2.831   3.795
93725SOL    HW183072   1.738   2.747   3.755
93725SOL    HW283073   1.796   2.882   3.789
93726SOL     OW83074   0.257   9.089   1.947
93726SOL    HW183075   0.318   9.027   1.907
93726SOL    HW283076   0.173   9.042   1.948
93727SOL     OW83077   3.683   0.704   7.439
93727SOL    HW183078   3.666   0.794   7.412
93727SOL    HW283079   3.625   0.690   7.514
93728SOL     OW83080   5.736   2.088   3.990
93728SOL    HW183081   5.742   2.182   4.006
93728SOL    HW283082   5.691   2.080   3.907
93729SOL     OW83083   4.228   3.323   1.316
93729SOL    HW183084   4.267   3.322   1.228
93729SOL    HW283085   4.287   3.376   1.368
93730SOL     OW83086   4.788  12.751  12.822
93730SOL    HW183087   4.873  12.744  12.866
93730SOL    HW283088   4.727  12.707  12.881
93731SOL     OW83089   4.421   0.176   1.736
93731SOL    HW183090   4.419   0.102   1.676
93731SOL    HW283091   4.331   0.185   1.767
93732SOL     OW83092  13.047   4.484   7.896
93732SOL    HW183093  13.039   4.572   7.933
93732SOL    HW283094  13.099   4.436   7.961
93733SOL     OW83095   4.866   1.798  10.977
93733SOL    HW183096   4.799   1.827  10.914
93733SOL    HW283097   4.925   1.872  10.985
93734SOL     OW83098   4.649  11.396   5.614
93734SOL    HW183099   4.668  11.417   5.706
93734SOL    HW283100   4.735  11.389   5.573
93735SOL     OW83101   9.057   8.017  10.192
93735SOL    HW183102   9.103   7.935  10.171
93735SOL    HW283103   9.043   8.013  10.287
93736SOL     OW83104  14.728  11.387   1.058
93736SOL    HW183105  14.767  11.328   0.994
93736SOL    HW283106  14.779  11.373   1.138
93737SOL     OW83107   7.897   2.859   1.269
93737SOL    HW183108   7.956   2.895   1.203
93737SOL    HW283109   7.819   2.832   1.221
93738SOL     OW83110   9.251   1.470   4.055
93738SOL    HW183111   9.331   1.460   4.003
93738SOL    HW283112   9.219   1.558   4.034
93739SOL     OW83113  13.397   2.445  13.519
93739SOL    HW183114  13.394   2.360  13.476
93739SOL    HW283115  13.399   2.508  13.447
93740SOL     OW83116   1.177  10.228  10.532
93740SOL    HW183117   1.190  10.211  10.626
93740SOL    HW283118   1.114  10.161  10.505
93741SOL     OW83119   3.171  11.973   4.228
93741SOL    HW183120   3.171  11.909   4.157
93741SOL    HW283121   3.253  12.021   4.218
93742SOL     OW83122   8.777   8.154  14.032
93742SOL    HW183123   8.814   8.157  14.120
93742SOL    HW283124   8.759   8.062  14.016
93743SOL     OW83125   6.787   4.999   8.860
93743SOL    HW183126   6.711   4.950   8.829
93743SOL    HW283127   6.751   5.081   8.893
93744SOL     OW83128   7.215  10.466  12.669
93744SOL    HW183129   7.198  10.428  12.755
93744SOL    HW283130   7.227  10.560  12.687
93745SOL     OW83131  11.057   4.946   7.883
93745SOL    HW183132  11.064   5.003   7.959
93745SOL    HW283133  10.991   4.881   7.909
93746SOL     OW83134   9.094   7.964   0.225
93746SOL    HW183135   9.062   7.977   0.136
93746SOL    HW283136   9.014   7.966   0.279
93747SOL     OW83137   3.987  12.923   9.645
93747SOL    HW183138   3.966  12.870   9.569
93747SOL    HW283139   3.917  12.988   9.649
93748SOL     OW83140  10.392  13.617   0.478
93748SOL    HW183141  10.363  13.593   0.390
93748SOL    HW283142  10.373  13.540   0.532
93749SOL     OW83143   1.085  14.529  12.216
93749SOL    HW183144   1.047  14.496  12.298
93749SOL    HW283145   1.053  14.618  12.209
93750SOL     OW83146  10.403   0.522   2.188
93750SOL    HW183147  10.404   0.468   2.267
93750SOL    HW283148  10.489   0.563   2.186
93751SOL     OW83149   3.618  13.594  13.263
93751SOL    HW183150   3.552  13.654  13.227
93751SOL    HW283151   3.698  13.647  13.267
93752SOL     OW83152   7.697   1.319   5.223
93752SOL    HW183153   7.659   1.293   5.307
93752SOL    HW283154   7.626   1.365   5.178
93753SOL     OW83155   1.158   0.969  12.585
93753SOL    HW183156   1.178   0.932  12.498
93753SOL    HW283157   1.242   1.000  12.618
93754SOL     OW83158   1.748   2.496  10.282
93754SOL    HW183159   1.790   2.565  10.232
93754SOL    HW283160   1.815   2.467  10.344
93755SOL     OW83161   6.007   8.078  13.396
93755SOL    HW183162   6.085   8.026  13.415
93755SOL    HW283163   6.036   8.140  13.329
93756SOL     OW83164   5.753   9.045   9.904
93756SOL    HW183165   5.778   9.037   9.812
93756SOL    HW283166   5.689   8.975   9.918
93757SOL     OW83167   5.849   5.874   0.891
93757SOL    HW183168   5.777   5.937   0.892
93757SOL    HW283169   5.854   5.844   0.800
93758SOL     OW83170  12.574   8.663   0.676
93758SOL    HW183171  12.601   8.723   0.606
93758SOL    HW283172  12.656   8.622   0.704
93759SOL     OW83173  10.303  10.576   3.390
93759SOL    HW183174  10.269  10.487   3.386
93759SOL    HW283175  10.299  10.608   3.300
93760SOL     OW83176   6.028  10.529   3.032
93760SOL    HW183177   6.016  10.479   2.950
93760SOL    HW283178   6.111  10.496   3.067
93761SOL     OW83179   6.415  11.342  12.717
93761SOL    HW183180   6.372  11.419  12.754
93761SOL    HW283181   6.474  11.377  12.650
93762SOL     OW83182   2.139   6.127   9.703
93762SOL    HW183183   2.183   6.086   9.629
93762SOL    HW283184   2.130   6.057   9.767
93763SOL     OW83185   5.887   1.369   7.120
93763SOL    HW183186   5.799   1.366   7.159
93763SOL    HW283187   5.943   1.399   7.192
93764SOL     OW83188  11.151   6.508   2.404
93764SOL    HW183189  11.117   6.525   2.492
93764SOL    HW283190  11.235   6.555   2.401
93765SOL     OW83191   7.692  13.248   9.997
93765SOL    HW183192   7.692  13.271  10.090
93765SOL    HW283193   7.717  13.156   9.996
93766SOL     OW83194  12.932   9.165  12.874
93766SOL    HW183195  12.857   9.164  12.813
93766SOL    HW283196  12.986   9.091  12.845
93767SOL     OW83197   7.860   4.752   8.566
93767SOL    HW183198   7.873   4.780   8.475
93767SOL    HW283199   7.782   4.800   8.594
93768SOL     OW83200  12.619  11.129  10.476
93768SOL    HW183201  12.596  11.208  10.525
93768SOL    HW283202  12.550  11.121  10.410
93769SOL     OW83203   3.698   7.327   2.076
93769SOL    HW183204   3.650   7.245   2.066
93769SOL    HW283205   3.752   7.314   2.154
93770SOL     OW83206   0.818   2.256   7.990
93770SOL    HW183207   0.878   2.188   7.959
93770SOL    HW283208   0.742   2.208   8.024
93771SOL     OW83209   3.644   6.288  11.177
93771SOL    HW183210   3.695   6.207  11.174
93771SOL    HW283211   3.610   6.298  11.088
93772SOL     OW83212   0.966   9.428  14.113
93772SOL    HW183213   0.872   9.412  14.106
93772SOL    HW283214   1.003   9.391  14.032
93773SOL     OW83215   3.856   7.604   5.311
93773SOL    HW183216   3.804   7.545   5.256
93773SOL    HW283217   3.790   7.654   5.360
93774SOL     OW83218   8.416   5.932   0.959
93774SOL    HW183219   8.418   5.846   0.919
93774SOL    HW283220   8.504   5.968   0.942
93775SOL     OW83221  13.323   5.467  12.036
93775SOL    HW183222  13.299   5.522  11.961
93775SOL    HW283223  13.412   5.438  12.017
93776SOL     OW83224  13.413   9.015   0.049
93776SOL    HW183225  13.493   9.041   0.096
93776SOL    HW283226  13.346   9.076   0.080
93777SOL     OW83227  11.951  14.833  10.424
93777SOL    HW183228  11.969   0.031  10.491
93777SOL    HW283229  11.857  14.840  10.408
93778SOL     OW83230   2.885   3.526  11.037
93778SOL    HW183231   2.854   3.563  11.119
93778SOL    HW283232   2.890   3.600  10.977
93779SOL     OW83233   7.623   7.005   4.689
93779SOL    HW183234   7.603   7.053   4.608
93779SOL    HW283235   7.582   6.919   4.675
93780SOL     OW83236  10.718   6.109   5.831
93780SOL    HW183237  10.731   6.178   5.766
93780SOL    HW283238  10.678   6.153   5.905
93781SOL     OW83239   8.359  10.287   2.731
93781SOL    HW183240   8.429  10.251   2.676
93781SOL    HW283241   8.301  10.331   2.669
93782SOL     OW83242   9.152   0.763  14.569
93782SOL    HW183243   9.244   0.777  14.544
93782SOL    HW283244   9.113   0.850  14.565
93783SOL     OW83245  11.070   2.019  10.666
93783SOL    HW183246  11.039   1.929  10.656
93783SOL    HW283247  11.082   2.050  10.576
93784SOL     OW83248   1.324   9.121  10.206
93784SOL    HW183249   1.239   9.147  10.243
93784SOL    HW283250   1.346   9.190  10.144
93785SOL     OW83251   0.924   3.631   2.170
93785SOL    HW183252   0.853   3.623   2.234
93785SOL    HW283253   0.973   3.549   2.179
93786SOL     OW83254  11.111   3.602   2.376
93786SOL    HW183255  11.160   3.520   2.376
93786SOL    HW283256  11.020   3.577   2.360
93787SOL     OW83257   6.288  10.061  10.298
93787SOL    HW183258   6.235  10.020  10.230
93787SOL    HW283259   6.327   9.988  10.346
93788SOL     OW83260   2.737  14.136   4.360
93788SOL    HW183261   2.762  14.200   4.294
93788SOL    HW283262   2.656  14.170   4.398
93789SOL     OW83263   7.669  14.831   6.483
93789SOL    HW183264   7.600  14.765   6.494
93789SOL    HW283265   7.745  14.793   6.528
93790SOL     OW83266  13.478   9.327   7.899
93790SOL    HW183267  13.437   9.407   7.932
93790SOL    HW283268  13.440   9.315   7.812
93791SOL     OW83269   3.781  10.224   2.575
93791SOL    HW183270   3.830  10.206   2.655
93791SOL    HW283271   3.752  10.139   2.544
93792SOL     OW83272  14.468   4.921   0.271
93792SOL    HW183273  14.410   4.964   0.333
93792SOL    HW283274  14.546   4.900   0.321
93793SOL     OW83275   3.203   1.880  12.733
93793SOL    HW183276   3.246   1.850  12.653
93793SOL    HW283277   3.111   1.855  12.722
93794SOL     OW83278   6.599  10.115   7.663
93794SOL    HW183279   6.595  10.132   7.569
93794SOL    HW283280   6.529  10.051   7.679
93795SOL     OW83281   5.532   2.076   5.374
93795SOL    HW183282   5.477   2.018   5.322
93795SOL    HW283283   5.472   2.140   5.413
93796SOL     OW83284   1.016   8.236   3.725
93796SOL    HW183285   0.959   8.204   3.656
93796SOL    HW283286   1.036   8.159   3.778
93797SOL     OW83287   4.853  14.862  12.563
93797SOL    HW183288   4.927  14.811  12.595
93797SOL    HW283289   4.888   0.044  12.489
93798SOL     OW83290  13.101  11.455   5.918
93798SOL    HW183291  13.056  11.450   6.002
93798SOL    HW283292  13.031  11.461   5.853
93799SOL     OW83293   3.101   3.852   1.758
93799SOL    HW183294   3.017   3.889   1.733
93799SOL    HW283295   3.109   3.772   1.706
93800SOL     OW83296   4.382   5.363   1.054
93800SOL    HW183297   4.325   5.430   1.093
93800SOL    HW283298   4.324   5.313   0.997
93801SOL     OW83299   6.840   3.678   2.556
93801SOL    HW183300   6.875   3.653   2.641
93801SOL    HW283301   6.745   3.672   2.567
93802SOL     OW83302  13.095  10.004   9.622
93802SOL    HW183303  13.172   9.949   9.625
93802SOL    HW283304  13.056   9.988   9.536
93803SOL     OW83305   3.673   2.637   7.219
93803SOL    HW183306   3.614   2.685   7.278
93803SOL    HW283307   3.666   2.546   7.248
93804SOL     OW83308  13.293   0.287   1.328
93804SOL    HW183309  13.326   0.198   1.312
93804SOL    HW283310  13.207   0.273   1.369
93805SOL     OW83311  12.821   2.172  11.712
93805SOL    HW183312  12.767   2.127  11.647
93805SOL    HW283313  12.882   2.104  11.743
93806SOL     OW83314  11.605   4.377   2.276
93806SOL    HW183315  11.600   4.389   2.181
93806SOL    HW283316  11.676   4.315   2.289
93807SOL     OW83317   7.165  12.904  14.150
93807SOL    HW183318   7.143  12.839  14.216
93807SOL    HW283319   7.106  12.886  14.077
93808SOL     OW83320   2.514  14.204   0.035
93808SOL    HW183321   2.571  14.226  14.830
93808SOL    HW283322   2.429  14.184  14.862
93809SOL     OW83323  10.875   1.737   4.959
93809SOL    HW183324  10.955   1.750   4.909
93809SOL    HW283325  10.818   1.687   4.901
93810SOL     OW83326   9.195   1.084   4.730
93810SOL    HW183327   9.176   1.112   4.641
93810SOL    HW283328   9.229   1.163   4.773
93811SOL     OW83329  14.638   8.909   7.768
93811SOL    HW183330  14.561   8.859   7.741
93811SOL    HW283331  14.605   8.998   7.784
93812SOL     OW83332  11.791   7.139   2.687
93812SOL    HW183333  11.709   7.093   2.668
93812SOL    HW283334  11.763   7.223   2.724
93813SOL     OW83335  14.088   6.509   5.038
93813SOL    HW183336  14.170   6.520   5.086
93813SOL    HW283337  14.049   6.596   5.038
93814SOL     OW83338  13.780   5.212  13.108
93814SOL    HW183339  13.719   5.142  13.084
93814SOL    HW283340  13.861   5.166  13.132
93815SOL     OW83341   1.885   7.086   2.626
93815SOL    HW183342   1.797   7.088   2.664
93815SOL    HW283343   1.932   7.020   2.678
93816SOL     OW83344  12.127  12.212  13.677
93816SOL    HW183345  12.062  12.152  13.711
93816SOL    HW283346  12.211  12.168  13.691
93817SOL     OW83347   5.994   9.524   8.576
93817SOL    HW183348   5.927   9.487   8.634
93817SOL    HW283349   5.954   9.526   8.490
93818SOL     OW83350  12.259   6.177  11.615
93818SOL    HW183351  12.220   6.160  11.530
93818SOL    HW283352  12.194   6.229  11.662
93819SOL     OW83353  10.505  11.437  11.820
93819SOL    HW183354  10.496  11.529  11.797
93819SOL    HW283355  10.419  11.411  11.853
93820SOL     OW83356  11.426   3.045   8.793
93820SOL    HW183357  11.392   3.002   8.871
93820SOL    HW283358  11.521   3.034   8.799
93821SOL     OW83359  12.929   3.461   0.411
93821SOL    HW183360  12.884   3.502   0.485
93821SOL    HW283361  12.922   3.367   0.427
93822SOL     OW83362  12.108  10.877   2.164
93822SOL    HW183363  12.024  10.884   2.209
93822SOL    HW283364  12.086  10.839   2.078
93823SOL     OW83365   3.531   5.801  12.746
93823SOL    HW183366   3.542   5.847  12.662
93823SOL    HW283367   3.601   5.835  12.801
93824SOL     OW83368   1.973   8.316  10.805
93824SOL    HW183369   1.907   8.353  10.864
93824SOL    HW283370   1.926   8.250  10.754
93825SOL     OW83371   3.389  11.508   9.782
93825SOL    HW183372   3.444  11.585   9.769
93825SOL    HW283373   3.385  11.496   9.877
93826SOL     OW83374   0.290   2.746  13.037
93826SOL    HW183375   0.358   2.680  13.028
93826SOL    HW283376   0.313   2.794  13.116
93827SOL     OW83377  13.108  13.398  11.926
93827SOL    HW183378  13.040  13.342  11.887
93827SOL    HW283379  13.172  13.337  11.961
93828SOL     OW83380   3.222  10.625   5.203
93828SOL    HW183381   3.213  10.530   5.211
93828SOL    HW283382   3.316  10.640   5.201
93829SOL     OW83383   4.526  11.161   1.939
93829SOL    HW183384   4.545  11.157   2.033
93829SOL    HW283385   4.542  11.252   1.916
93830SOL     OW83386  14.305  14.723  10.583
93830SOL    HW183387  14.284  14.801  10.634
93830SOL    HW283388  14.401  14.718  10.585
93831SOL     OW83389  10.960   3.144   6.650
93831SOL    HW183390  11.023   3.215   6.668
93831SOL    HW283391  10.887   3.163   6.708
93832SOL     OW83392   0.299  14.164   4.332
93832SOL    HW183393   0.209  14.154   4.303
93832SOL    HW283394   0.309  14.257   4.350
93833SOL     OW83395   9.179  12.281   0.752
93833SOL    HW183396   9.192  12.376   0.747
93833SOL    HW283397   9.100  12.272   0.806
93834SOL     OW83398  13.778   3.646   8.394
93834SOL    HW183399  13.830   3.715   8.351
93834SOL    HW283400  13.839   3.607   8.456
93835SOL     OW83401   8.241  10.441  13.887
93835SOL    HW183402   8.302  10.480  13.950
93835SOL    HW283403   8.285  10.362  13.856
93836SOL     OW83404   1.530   6.727   9.816
93836SOL    HW183405   1.538   6.771   9.900
93836SOL    HW283406   1.474   6.652   9.833
93837SOL     OW83407  10.472   3.940   8.640
93837SOL    HW183408  10.444   3.966   8.552
93837SOL    HW283409  10.436   4.008   8.698
93838SOL     OW83410   0.359   9.883  13.049
93838SOL    HW183411   0.282   9.871  13.106
93838SOL    HW283412   0.433   9.889  13.110
93839SOL     OW83413  11.940  10.915   2.856
93839SOL    HW183414  11.953  10.860   2.933
93839SOL    HW283415  11.992  10.994   2.874
93840SOL     OW83416   6.714  13.175   1.276
93840SOL    HW183417   6.753  13.187   1.363
93840SOL    HW283418   6.780  13.208   1.215
93841SOL     OW83419  14.847   8.038   2.496
93841SOL    HW183420   0.063   8.083   2.492
93841SOL    HW283421  14.812   8.043   2.407
93842SOL     OW83422   7.630   9.789   2.564
93842SOL    HW183423   7.568   9.722   2.536
93842SOL    HW283424   7.702   9.785   2.501
93843SOL     OW83425   2.401  14.734   2.977
93843SOL    HW183426   2.340  14.763   3.045
93843SOL    HW283427   2.413  14.641   2.993
93844SOL     OW83428   1.722   4.403  12.831
93844SOL    HW183429   1.754   4.319  12.863
93844SOL    HW283430   1.728   4.396  12.736
93845SOL     OW83431   8.465   8.400   6.166
93845SOL    HW183432   8.417   8.359   6.093
93845SOL    HW283433   8.531   8.334   6.190
93846SOL     OW83434  13.319  13.669   1.284
93846SOL    HW183435  13.358  13.618   1.213
93846SOL    HW283436  13.265  13.606   1.333
93847SOL     OW83437   4.898  12.551  14.328
93847SOL    HW183438   4.909  12.514  14.416
93847SOL    HW283439   4.804  12.566  14.320
93848SOL     OW83440   6.032   2.682   6.108
93848SOL    HW183441   6.008   2.663   6.017
93848SOL    HW283442   6.097   2.752   6.101
93849SOL     OW83443   0.836  13.777   5.586
93849SOL    HW183444   0.893  13.740   5.518
93849SOL    HW283445   0.878  13.859   5.611
93850SOL     OW83446  14.047   8.231   5.132
93850SOL    HW183447  14.062   8.255   5.224
93850SOL    HW283448  13.961   8.269   5.112
93851SOL     OW83449   6.463   1.255   1.368
93851SOL    HW183450   6.523   1.316   1.325
93851SOL    HW283451   6.401   1.230   1.300
93852SOL     OW83452  11.677   9.994  12.575
93852SOL    HW183453  11.742   9.927  12.551
93852SOL    HW283454  11.608   9.945  12.619
93853SOL     OW83455   0.616   5.885  13.649
93853SOL    HW183456   0.544   5.945  13.631
93853SOL    HW283457   0.658   5.872  13.564
93854SOL     OW83458  14.744  10.972   0.964
93854SOL    HW183459  14.775  11.056   0.929
93854SOL    HW283460  14.710  10.994   1.051
93855SOL     OW83461   8.856   8.050   3.239
93855SOL    HW183462   8.833   8.027   3.329
93855SOL    HW283463   8.823   8.139   3.229
93856SOL     OW83464  13.019  10.983   1.518
93856SOL    HW183465  12.966  10.960   1.442
93856SOL    HW283466  12.961  11.035   1.573
93857SOL     OW83467  13.611  11.539   6.090
93857SOL    HW183468  13.611  11.634   6.081
93857SOL    HW283469  13.671  11.523   6.164
93858SOL     OW83470   9.919   6.267  11.433
93858SOL    HW183471   9.909   6.320  11.354
93858SOL    HW283472  10.008   6.232  11.428
93859SOL     OW83473   5.500  13.800   2.326
93859SOL    HW183474   5.545  13.837   2.250
93859SOL    HW283475   5.447  13.729   2.290
93860SOL     OW83476   4.145  11.135   1.820
93860SOL    HW183477   4.159  11.187   1.741
93860SOL    HW283478   4.122  11.048   1.789
93861SOL     OW83479   6.314   2.446  14.218
93861SOL    HW183480   6.403   2.413  14.204
93861SOL    HW283481   6.292   2.419  14.306
93862SOL     OW83482   9.719   4.327   6.600
93862SOL    HW183483   9.673   4.408   6.622
93862SOL    HW283484   9.759   4.298   6.683
93863SOL     OW83485   9.363   5.791  11.618
93863SOL    HW183486   9.376   5.699  11.641
93863SOL    HW283487   9.268   5.804  11.620
93864SOL     OW83488   7.215  10.763  14.278
93864SOL    HW183489   7.267  10.683  14.276
93864SOL    HW283490   7.279  10.834  14.286
93865SOL     OW83491   8.934   3.080   0.369
93865SOL    HW183492   8.859   3.031   0.336
93865SOL    HW283493   9.008   3.021   0.357
93866SOL     OW83494   9.193   9.020   0.887
93866SOL    HW183495   9.195   9.032   0.792
93866SOL    HW283496   9.100   9.026   0.910
93867SOL     OW83497  11.256   1.716   8.144
93867SOL    HW183498  11.314   1.651   8.183
93867SOL    HW283499  11.173   1.670   8.132
93868SOL     OW83500   8.401   4.516   7.338
93868SOL    HW183501   8.429   4.425   7.353
93868SOL    HW283502   8.428   4.534   7.248
93869SOL     OW83503   0.473   6.283   4.987
93869SOL    HW183504   0.464   6.284   5.082
93869SOL    HW283505   0.492   6.375   4.964
93870SOL     OW83506   3.525   3.476  11.082
93870SOL    HW183507   3.476   3.512  11.155
93870SOL    HW283508   3.483   3.513  11.004
93871SOL     OW83509   1.857  14.257  12.618
93871SOL    HW183510   1.823  14.182  12.570
93871SOL    HW283511   1.834  14.333  12.564
93872SOL     OW83512   0.692   0.134   4.664
93872SOL    HW183513   0.746   0.211   4.682
93872SOL    HW283514   0.625   0.165   4.603
93873SOL     OW83515   3.744  11.401  11.587
93873SOL    HW183516   3.758  11.370  11.676
93873SOL    HW283517   3.680  11.472  11.595
93874SOL     OW83518   6.973   1.318   4.900
93874SOL    HW183519   6.998   1.299   4.991
93874SOL    HW283520   6.912   1.392   4.908
93875SOL     OW83521  12.023   7.763   1.961
93875SOL    HW183522  11.971   7.843   1.964
93875SOL    HW283523  11.961   7.694   1.939
93876SOL     OW83524   5.620   1.252   8.552
93876SOL    HW183525   5.597   1.313   8.622
93876SOL    HW283526   5.698   1.290   8.511
93877SOL     OW83527   8.324  10.322   1.067
93877SOL    HW183528   8.241  10.356   1.034
93877SOL    HW283529   8.309  10.228   1.081
93878SOL     OW83530   7.905   5.614   1.514
93878SOL    HW183531   7.878   5.602   1.423
93878SOL    HW283532   7.877   5.534   1.559
93879SOL     OW83533   1.996   1.781   8.321
93879SOL    HW183534   1.961   1.697   8.351
93879SOL    HW283535   1.933   1.846   8.351
93880SOL     OW83536  10.153  13.770  14.000
93880SOL    HW183537  10.122  13.848  13.954
93880SOL    HW283538  10.098  13.699  13.967
93881SOL     OW83539   3.447  13.352  11.636
93881SOL    HW183540   3.407  13.365  11.550
93881SOL    HW283541   3.433  13.436  11.681
93882SOL     OW83542   4.117   2.062   0.983
93882SOL    HW183543   4.038   2.111   1.004
93882SOL    HW283544   4.146   2.026   1.067
93883SOL     OW83545   1.391   1.568   1.645
93883SOL    HW183546   1.476   1.551   1.605
93883SOL    HW283547   1.394   1.660   1.670
93884SOL     OW83548  13.458  11.511  14.816
93884SOL    HW183549  13.470  11.553   0.033
93884SOL    HW283550  13.388  11.448  14.831
93885SOL     OW83551  10.442  12.514   1.162
93885SOL    HW183552  10.398  12.509   1.077
93885SOL    HW283553  10.531  12.541   1.141
93886SOL     OW83554   8.938   8.987   4.892
93886SOL    HW183555   8.896   8.955   4.812
93886SOL    HW283556   8.866   9.001   4.953
93887SOL     OW83557   9.466  14.100   9.995
93887SOL    HW183558   9.415  14.114   9.915
93887SOL    HW283559   9.404  14.115  10.066
93888SOL     OW83560   3.307   1.580  14.266
93888SOL    HW183561   3.242   1.634  14.312
93888SOL    HW283562   3.387   1.592  14.316
93889SOL     OW83563  11.116  14.219   8.772
93889SOL    HW183564  11.097  14.259   8.687
93889SOL    HW283565  11.205  14.250   8.793
93890SOL     OW83566  11.456   3.152  11.486
93890SOL    HW183567  11.472   3.212  11.559
93890SOL    HW283568  11.368   3.117  11.502
93891SOL     OW83569   5.551  12.870   1.924
93891SOL    HW183570   5.620  12.896   1.863
93891SOL    HW283571   5.553  12.775   1.924
93892SOL     OW83572   7.047  13.477   5.329
93892SOL    HW183573   7.097  13.435   5.398
93892SOL    HW283574   6.999  13.547   5.373
93893SOL     OW83575  10.245   2.328  11.506
93893SOL    HW183576  10.193   2.335  11.586
93893SOL    HW283577  10.218   2.245  11.467
93894SOL     OW83578   9.087   5.666  14.222
93894SOL    HW183579   9.115   5.577  14.204
93894SOL    HW283580   8.992   5.665  14.211
93895SOL     OW83581   8.202  10.886  12.194
93895SOL    HW183582   8.206  10.891  12.289
93895SOL    HW283583   8.250  10.807  12.171
93896SOL     OW83584   3.570   9.355  10.152
93896SOL    HW183585   3.596   9.447  10.146
93896SOL    HW283586   3.601   9.327  10.238
93897SOL     OW83587  11.253  11.514   4.152
93897SOL    HW183588  11.335  11.520   4.201
93897SOL    HW283589  11.192  11.571   4.199
93898SOL     OW83590   1.835   3.394  14.058
93898SOL    HW183591   1.776   3.322  14.037
93898SOL    HW283592   1.794   3.438  14.133
93899SOL     OW83593   0.782  13.838   2.303
93899SOL    HW183594   0.743  13.752   2.316
93899SOL    HW283595   0.708  13.897   2.291
93900SOL     OW83596   1.650  11.124   5.595
93900SOL    HW183597   1.642  11.197   5.657
93900SOL    HW283598   1.599  11.054   5.636
93901SOL     OW83599  13.738  13.005   9.214
93901SOL    HW183600  13.704  12.930   9.263
93901SOL    HW283601  13.714  12.987   9.123
93902SOL     OW83602   4.684  14.372   0.789
93902SOL    HW183603   4.744  14.446   0.791
93902SOL    HW283604   4.666  14.353   0.882
93903SOL     OW83605   3.748  12.352   0.810
93903SOL    HW183606   3.819  12.288   0.813
93903SOL    HW283607   3.672  12.302   0.781
93904SOL     OW83608   9.699  13.283   7.545
93904SOL    HW183609   9.616  13.330   7.547
93904SOL    HW283610   9.738  13.299   7.631
93905SOL     OW83611   6.548   8.776  10.961
93905SOL    HW183612   6.602   8.697  10.967
93905SOL    HW283613   6.482   8.765  11.030
93906SOL     OW83614   5.716   5.930   0.437
93906SOL    HW183615   5.697   6.023   0.425
93906SOL    HW283616   5.752   5.902   0.353
93907SOL     OW83617   1.944   4.124  10.426
93907SOL    HW183618   1.981   4.069  10.357
93907SOL    HW283619   1.892   4.189  10.379
93908SOL     OW83620   8.626  11.382   4.549
93908SOL    HW183621   8.662  11.312   4.604
93908SOL    HW283622   8.679  11.378   4.468
93909SOL     OW83623   9.562  12.211  12.362
93909SOL    HW183624   9.484  12.206  12.417
93909SOL    HW283625   9.627  12.257  12.415
93910SOL     OW83626   8.007   1.074  12.872
93910SOL    HW183627   8.010   1.165  12.902
93910SOL    HW283628   8.045   1.076  12.784
93911SOL     OW83629   6.011   4.070   4.184
93911SOL    HW183630   6.088   4.015   4.178
93911SOL    HW283631   5.958   4.030   4.253
93912SOL     OW83632  14.792   3.215  14.407
93912SOL    HW183633   0.014   3.248  14.402
93912SOL    HW283634  14.786   3.174  14.493
93913SOL     OW83635   2.691   2.490   6.837
93913SOL    HW183636   2.777   2.468   6.872
93913SOL    HW283637   2.709   2.536   6.756
93914SOL     OW83638  10.391  14.032   5.431
93914SOL    HW183639  10.470  14.081   5.409
93914SOL    HW283640  10.332  14.098   5.467
93915SOL     OW83641   0.498  11.936  13.668
93915SOL    HW183642   0.538  11.849  13.669
93915SOL    HW283643   0.569  11.996  13.687
93916SOL     OW83644  11.789   6.103  12.878
93916SOL    HW183645  11.830   6.165  12.938
93916SOL    HW283646  11.856   6.035  12.865
93917SOL     OW83647   8.032  10.636   5.107
93917SOL    HW183648   8.099  10.634   5.038
93917SOL    HW283649   7.951  10.610   5.062
93918SOL     OW83650  14.764  13.626  14.761
93918SOL    HW183651  14.723  13.540  14.748
93918SOL    HW283652  14.848  13.606  14.802
93919SOL     OW83653  13.190   6.848   8.856
93919SOL    HW183654  13.143   6.869   8.776
93919SOL    HW283655  13.271   6.899   8.851
93920SOL     OW83656  10.958  13.395  13.843
93920SOL    HW183657  10.987  13.405  13.752
93920SOL    HW283658  10.949  13.484  13.875
93921SOL     OW83659   3.286   9.915   0.153
93921SOL    HW183660   3.369   9.874   0.176
93921SOL    HW283661   3.244   9.852   0.094
93922SOL     OW83662   3.464   9.823  11.681
93922SOL    HW183663   3.541   9.766  11.675
93922SOL    HW283664   3.401   9.785  11.620
93923SOL     OW83665   4.514   6.491   0.879
93923SOL    HW183666   4.551   6.402   0.874
93923SOL    HW283667   4.498   6.515   0.788
93924SOL     OW83668   8.572   9.269   9.087
93924SOL    HW183669   8.497   9.211   9.101
93924SOL    HW283670   8.633   9.247   9.158
93925SOL     OW83671   6.867   6.371  10.561
93925SOL    HW183672   6.908   6.287  10.580
93925SOL    HW283673   6.799   6.351  10.498
93926SOL     OW83674  11.664   5.127   8.161
93926SOL    HW183675  11.617   5.118   8.078
93926SOL    HW283676  11.757   5.117   8.137
93927SOL     OW83677   4.884   5.293   5.775
93927SOL    HW183678   4.835   5.268   5.853
93927SOL    HW283679   4.895   5.388   5.783
93928SOL     OW83680   3.878   7.639   1.210
93928SOL    HW183681   3.824   7.565   1.240
93928SOL    HW283682   3.881   7.698   1.285
93929SOL     OW83683  10.755   0.253  13.947
93929SOL    HW183684  10.821   0.323  13.945
93929SOL    HW283685  10.679   0.291  13.903
93930SOL     OW83686  11.617   8.671   8.924
93930SOL    HW183687  11.694   8.658   8.978
93930SOL    HW283688  11.617   8.596   8.864
93931SOL     OW83689   7.676   8.324   0.675
93931SOL    HW183690   7.661   8.416   0.699
93931SOL    HW283691   7.613   8.276   0.728
93932SOL     OW83692   8.107  14.178   3.482
93932SOL    HW183693   8.016  14.146   3.481
93932SOL    HW283694   8.152  14.119   3.542
93933SOL     OW83695   3.033  13.397   6.995
93933SOL    HW183696   2.996  13.394   6.907
93933SOL    HW283697   2.965  13.358   7.050
93934SOL     OW83698  14.340  13.677   4.423
93934SOL    HW183699  14.392  13.635   4.492
93934SOL    HW283700  14.358  13.770   4.434
93935SOL     OW83701   9.998  10.479   7.995
93935SOL    HW183702   9.981  10.515   8.082
93935SOL    HW283703  10.093  10.479   7.987
93936SOL     OW83704   9.749  13.767   1.418
93936SOL    HW183705   9.743  13.851   1.373
93936SOL    HW283706   9.733  13.788   1.510
93937SOL     OW83707  14.670   4.853   8.426
93937SOL    HW183708  14.760   4.883   8.414
93937SOL    HW283709  14.629   4.924   8.476
93938SOL     OW83710   6.735   9.715  12.404
93938SOL    HW183711   6.714   9.625  12.430
93938SOL    HW283712   6.826   9.711  12.375
93939SOL     OW83713   8.411   0.424  12.263
93939SOL    HW183714   8.467   0.481  12.316
93939SOL    HW283715   8.341   0.397  12.323
93940SOL     OW83716   9.034   9.723   5.065
93940SOL    HW183717   9.029   9.805   5.016
93940SOL    HW283718   9.012   9.749   5.155
93941SOL     OW83719  12.901   7.412  13.342
93941SOL    HW183720  12.895   7.378  13.253
93941SOL    HW283721  12.974   7.364  13.381
93942SOL     OW83722   4.160   8.439   7.285
93942SOL    HW183723   4.086   8.378   7.283
93942SOL    HW283724   4.236   8.384   7.306
93943SOL     OW83725   0.035   2.617  14.518
93943SOL    HW183726   0.052   2.526  14.494
93943SOL    HW283727   0.004   2.658  14.437
93944SOL     OW83728  12.985   6.262   4.431
93944SOL    HW183729  13.002   6.322   4.358
93944SOL    HW283730  13.070   6.223   4.451
93945SOL     OW83731  11.862   0.531   8.292
93945SOL    HW183732  11.768   0.513   8.291
93945SOL    HW283733  11.868   0.627   8.293
93946SOL     OW83734   5.711   9.682  12.784
93946SOL    HW183735   5.635   9.624  12.778
93946SOL    HW283736   5.693   9.737  12.860
93947SOL     OW83737   8.023   6.689   0.670
93947SOL    HW183738   7.974   6.631   0.728
93947SOL    HW283739   8.012   6.650   0.583
93948SOL     OW83740   3.426   9.630  13.776
93948SOL    HW183741   3.344   9.599  13.815
93948SOL    HW283742   3.439   9.717  13.814
93949SOL     OW83743  12.810   4.762   0.356
93949SOL    HW183744  12.782   4.755   0.265
93949SOL    HW283745  12.895   4.717   0.358
93950SOL     OW83746   5.374  12.574   2.807
93950SOL    HW183747   5.341  12.596   2.720
93950SOL    HW283748   5.467  12.593   2.804
93951SOL     OW83749  10.713  10.899  10.317
93951SOL    HW183750  10.734  10.892  10.224
93951SOL    HW283751  10.738  10.989  10.340
93952SOL     OW83752   7.730  13.439  10.636
93952SOL    HW183753   7.726  13.520  10.585
93952SOL    HW283754   7.700  13.372  10.575
93953SOL     OW83755   6.270   8.441   4.749
93953SOL    HW183756   6.328   8.400   4.813
93953SOL    HW283757   6.204   8.373   4.730
93954SOL     OW83758   1.428   6.124   9.794
93954SOL    HW183759   1.372   6.175   9.854
93954SOL    HW283760   1.408   6.033   9.816
93955SOL     OW83761   0.767   3.275   3.448
93955SOL    HW183762   0.764   3.350   3.389
93955SOL    HW283763   0.836   3.219   3.412
93956SOL     OW83764   7.152   2.746   7.367
93956SOL    HW183765   7.229   2.752   7.424
93956SOL    HW283766   7.155   2.827   7.315
93957SOL     OW83767   3.079   8.663   7.813
93957SOL    HW183768   3.148   8.597   7.822
93957SOL    HW283769   3.114   8.740   7.858
93958SOL     OW83770  12.608  13.441  10.884
93958SOL    HW183771  12.693  13.428  10.841
93958SOL    HW283772  12.545  13.404  10.823
93959SOL     OW83773   8.776   0.415  11.431
93959SOL    HW183774   8.815   0.446  11.350
93959SOL    HW283775   8.725   0.338  11.406
93960SOL     OW83776  10.815   5.364   7.935
93960SOL    HW183777  10.862   5.447   7.926
93960SOL    HW283778  10.784   5.344   7.847
93961SOL     OW83779  12.229  10.940   7.133
93961SOL    HW183780  12.134  10.931   7.133
93961SOL    HW283781  12.261  10.853   7.158
93962SOL     OW83782   0.206  13.888   0.122
93962SOL    HW183783   0.222  13.863   0.031
93962SOL    HW283784   0.281  13.943   0.145
93963SOL     OW83785   7.276   9.605   9.220
93963SOL    HW183786   7.180   9.598   9.225
93963SOL    HW283787   7.307   9.522   9.256
93964SOL     OW83788   4.184   9.215   0.483
93964SOL    HW183789   4.265   9.175   0.514
93964SOL    HW283790   4.171   9.291   0.540
93965SOL     OW83791  10.843  10.091  12.244
93965SOL    HW183792  10.863  10.092  12.151
93965SOL    HW283793  10.748  10.100  12.249
93966SOL     OW83794  14.384   7.302  11.117
93966SOL    HW183795  14.291   7.319  11.104
93966SOL    HW283796  14.389   7.210  11.142
93967SOL     OW83797   6.283   0.075  13.002
93967SOL    HW183798   6.290   0.124  13.084
93967SOL    HW283799   6.210   0.015  13.016
93968SOL     OW83800   0.837  10.242   7.923
93968SOL    HW183801   0.834  10.186   7.846
93968SOL    HW283802   0.881  10.321   7.893
93969SOL     OW83803  11.859   1.586   1.917
93969SOL    HW183804  11.857   1.641   1.996
93969SOL    HW283805  11.951   1.559   1.909
93970SOL     OW83806   9.727  13.163   3.801
93970SOL    HW183807   9.803  13.161   3.859
93970SOL    HW283808   9.732  13.249   3.758
93971SOL     OW83809   4.931   1.804   4.132
93971SOL    HW183810   5.021   1.782   4.108
93971SOL    HW283811   4.918   1.760   4.216
93972SOL     OW83812  12.707   2.386  11.605
93972SOL    HW183813  12.762   2.323  11.653
93972SOL    HW283814  12.726   2.369  11.513
93973SOL     OW83815   4.511   5.977   9.371
93973SOL    HW183816   4.481   5.982   9.461
93973SOL    HW283817   4.599   6.016   9.373
93974SOL     OW83818  12.817   7.786   3.212
93974SOL    HW183819  12.901   7.829   3.200
93974SOL    HW283820  12.831   7.726   3.285
93975SOL     OW83821   7.451   5.682   5.735
93975SOL    HW183822   7.522   5.738   5.768
93975SOL    HW283823   7.459   5.602   5.786
93976SOL     OW83824   2.413  10.121   9.931
93976SOL    HW183825   2.372  10.174   9.862
93976SOL    HW283826   2.352  10.125  10.004
93977SOL     OW83827   7.271   2.001  12.899
93977SOL    HW183828   7.342   1.937  12.886
93977SOL    HW283829   7.316   2.083  12.918
93978SOL     OW83830   9.114  10.339   1.620
93978SOL    HW183831   9.189  10.364   1.673
93978SOL    HW283832   9.118  10.396   1.544
93979SOL     OW83833   0.221  12.863   9.604
93979SOL    HW183834   0.146  12.804   9.595
93979SOL    HW283835   0.202  12.914   9.683
93980SOL     OW83836   7.231   1.618   6.214
93980SOL    HW183837   7.194   1.530   6.208
93980SOL    HW283838   7.266   1.624   6.302
93981SOL     OW83839  14.095   2.613   9.608
93981SOL    HW183840  14.175   2.615   9.556
93981SOL    HW283841  14.045   2.689   9.579
93982SOL     OW83842   8.555   2.750   5.059
93982SOL    HW183843   8.576   2.689   5.130
93982SOL    HW283844   8.621   2.819   5.066
93983SOL     OW83845   8.626   1.035   2.588
93983SOL    HW183846   8.621   0.943   2.562
93983SOL    HW283847   8.553   1.047   2.649
93984SOL     OW83848  14.619   2.732   8.001
93984SOL    HW183849  14.552   2.665   7.989
93984SOL    HW283850  14.684   2.714   7.934
93985SOL     OW83851  13.682   1.926  13.626
93985SOL    HW183852  13.656   1.837  13.602
93985SOL    HW283853  13.603   1.963  13.667
93986SOL     OW83854  11.983   3.856   4.019
93986SOL    HW183855  12.046   3.804   3.969
93986SOL    HW283856  11.984   3.942   3.977
93987SOL     OW83857  11.644  13.638   3.822
93987SOL    HW183858  11.716  13.685   3.864
93987SOL    HW283859  11.571  13.700   3.824
93988SOL     OW83860  13.207  14.840   1.914
93988SOL    HW183861  13.238  14.839   1.823
93988SOL    HW283862  13.112  14.843   1.907
93989SOL     OW83863   6.235  10.506   8.790
93989SOL    HW183864   6.289  10.485   8.714
93989SOL    HW283865   6.154  10.456   8.776
93990SOL     OW83866   5.049   8.155   9.391
93990SOL    HW183867   4.993   8.108   9.453
93990SOL    HW283868   4.989   8.212   9.343
93991SOL     OW83869  11.610   6.045  11.618
93991SOL    HW183870  11.646   5.974  11.671
93991SOL    HW283871  11.632   6.021  11.528
93992SOL     OW83872   7.641   4.068   5.395
93992SOL    HW183873   7.679   4.021   5.469
93992SOL    HW283874   7.548   4.074   5.416
93993SOL     OW83875   0.375   8.579   6.891
93993SOL    HW183876   0.452   8.528   6.915
93993SOL    HW283877   0.326   8.586   6.973
93994SOL     OW83878   5.576   6.451   2.698
93994SOL    HW183879   5.512   6.433   2.630
93994SOL    HW283880   5.638   6.512   2.659
93995SOL     OW83881   4.468   0.423  12.330
93995SOL    HW183882   4.510   0.509  12.318
93995SOL    HW283883   4.396   0.423  12.268
93996SOL     OW83884  12.309   3.199  12.530
93996SOL    HW183885  12.325   3.229  12.440
93996SOL    HW283886  12.396   3.179  12.564
93997SOL     OW83887   8.594   0.373  12.042
93997SOL    HW183888   8.579   0.427  11.964
93997SOL    HW283889   8.542   0.415  12.111
93998SOL     OW83890  12.779  12.206   7.909
93998SOL    HW183891  12.707  12.232   7.966
93998SOL    HW283892  12.800  12.117   7.937
93999SOL     OW83893  12.214   7.298   6.170
93999SOL    HW183894  12.206   7.204   6.185
93999SOL    HW283895  12.304   7.309   6.139
94000SOL     OW83896   4.219   5.118   0.266
94000SOL    HW183897   4.241   5.126   0.173
94000SOL    HW283898   4.256   5.033   0.292
94001SOL     OW83899  13.134   1.483   7.252
94001SOL    HW183900  13.071   1.434   7.199
94001SOL    HW283901  13.084   1.554   7.290
94002SOL     OW83902  12.290   8.934   3.725
94002SOL    HW183903  12.263   9.014   3.771
94002SOL    HW283904  12.209   8.896   3.692
94003SOL     OW83905  12.711   0.848  13.509
94003SOL    HW183906  12.772   0.871  13.580
94003SOL    HW283907  12.713   0.752  13.505
94004SOL     OW83908  11.809   2.241   8.392
94004SOL    HW183909  11.731   2.190   8.371
94004SOL    HW283910  11.807   2.315   8.330
94005SOL     OW83911  14.145   2.001   2.143
94005SOL    HW183912  14.229   1.959   2.128
94005SOL    HW283913  14.100   1.997   2.059
94006SOL     OW83914   3.936  10.346   7.638
94006SOL    HW183915   3.915  10.271   7.694
94006SOL    HW283916   3.867  10.347   7.572
94007SOL     OW83917   8.025   7.368   5.586
94007SOL    HW183918   8.059   7.422   5.657
94007SOL    HW283919   7.952   7.320   5.625
94008SOL     OW83920   6.902   7.950  13.049
94008SOL    HW183921   6.817   7.929  13.087
94008SOL    HW283922   6.918   8.041  13.072
94009SOL     OW83923   2.415  11.294  11.178
94009SOL    HW183924   2.511  11.286  11.179
94009SOL    HW283925   2.393  11.296  11.085
94010SOL     OW83926   9.419   1.887   6.475
94010SOL    HW183927   9.487   1.875   6.542
94010SOL    HW283928   9.466   1.926   6.401
94011SOL     OW83929  10.466   3.214  12.231
94011SOL    HW183930  10.376   3.182  12.225
94011SOL    HW283931  10.503   3.202  12.144
94012SOL     OW83932   7.253   0.552   9.018
94012SOL    HW183933   7.258   0.461   8.991
94012SOL    HW283934   7.291   0.601   8.945
94013SOL     OW83935   6.099   0.994   0.874
94013SOL    HW183936   6.024   0.934   0.869
94013SOL    HW283937   6.091   1.035   0.960
94014SOL     OW83938   9.351   4.250   3.122
94014SOL    HW183939   9.366   4.345   3.117
94014SOL    HW283940   9.337   4.233   3.215
94015SOL     OW83941  12.628   3.042   0.102
94015SOL    HW183942  12.627   3.017   0.194
94015SOL    HW283943  12.677   2.972   0.059
94016SOL     OW83944   0.944   5.661   1.853
94016SOL    HW183945   0.881   5.705   1.911
94016SOL    HW283946   1.020   5.719   1.852
94017SOL     OW83947   7.181  14.300   4.213
94017SOL    HW183948   7.173  14.244   4.136
94017SOL    HW283949   7.266  14.278   4.250
94018SOL     OW83950  13.391   6.444   2.863
94018SOL    HW183951  13.376   6.493   2.782
94018SOL    HW283952  13.422   6.510   2.925
94019SOL     OW83953   6.909   2.244   9.428
94019SOL    HW183954   6.977   2.302   9.462
94019SOL    HW283955   6.956   2.165   9.401
94020SOL     OW83956  12.840  13.150   0.619
94020SOL    HW183957  12.830  13.062   0.582
94020SOL    HW283958  12.924  13.146   0.666
94021SOL     OW83959   3.717   2.137  10.968
94021SOL    HW183960   3.753   2.222  10.995
94021SOL    HW283961   3.720   2.139  10.872
94022SOL     OW83962   4.511   9.268   0.860
94022SOL    HW183963   4.585   9.216   0.830
94022SOL    HW283964   4.525   9.354   0.822
94023SOL     OW83965  11.641   6.087   1.521
94023SOL    HW183966  11.561   6.139   1.514
94023SOL    HW283967  11.686   6.123   1.597
94024SOL     OW83968   7.760  14.056  10.699
94024SOL    HW183969   7.782  13.989  10.764
94024SOL    HW283970   7.664  14.059  10.698
94025SOL     OW83971   2.564   3.271   0.326
94025SOL    HW183972   2.589   3.249   0.236
94025SOL    HW283973   2.581   3.365   0.333
94026SOL     OW83974   6.388  11.190   9.295
94026SOL    HW183975   6.412  11.105   9.333
94026SOL    HW283976   6.375  11.171   9.202
94027SOL     OW83977   7.251   4.198   7.412
94027SOL    HW183978   7.266   4.292   7.420
94027SOL    HW283979   7.156   4.188   7.417
94028SOL     OW83980   4.019   7.824   4.822
94028SOL    HW183981   4.103   7.779   4.826
94028SOL    HW283982   3.976   7.801   4.905
94029SOL     OW83983  14.366   3.630  12.320
94029SOL    HW183984  14.390   3.603  12.409
94029SOL    HW283985  14.369   3.725  12.322
94030SOL     OW83986  13.931   5.107  11.298
94030SOL    HW183987  13.970   5.043  11.357
94030SOL    HW283988  13.857   5.143  11.347
94031SOL     OW83989   6.047  14.500   5.619
94031SOL    HW183990   5.999  14.545   5.551
94031SOL    HW283991   6.000  14.519   5.700
94032SOL     OW83992   2.447  11.789  14.762
94032SOL    HW183993   2.462  11.694  14.766
94032SOL    HW283994   2.418  11.812  14.850
94033SOL     OW83995  12.890  11.749   9.730
94033SOL    HW183996  12.973  11.787   9.758
94033SOL    HW283997  12.855  11.707   9.808
94034SOL     OW83998  12.786   1.944  13.378
94034SOL    HW183999  12.729   2.015  13.406
94034SOL    HW284000  12.729   1.868  13.373
94035SOL     OW84001  10.616   7.307   0.029
94035SOL    HW184002  10.580   7.390   0.058
94035SOL    HW284003  10.600   7.305  14.802
94036SOL     OW84004   4.591   7.369   4.921
94036SOL    HW184005   4.631   7.387   4.836
94036SOL    HW284006   4.619   7.442   4.977
94037SOL     OW84007   8.495  10.619  14.449
94037SOL    HW184008   8.430  10.663  14.394
94037SOL    HW284009   8.496  10.529  14.418
94038SOL     OW84010  10.451  11.643  11.239
94038SOL    HW184011  10.468  11.642  11.144
94038SOL    HW284012  10.360  11.614  11.247
94039SOL     OW84013  11.321   6.228   9.114
94039SOL    HW184014  11.280   6.156   9.066
94039SOL    HW284015  11.412   6.229   9.083
94040SOL     OW84016  13.330  11.544   8.852
94040SOL    HW184017  13.242  11.506   8.859
94040SOL    HW284018  13.356  11.526   8.762
94041SOL     OW84019   3.727   1.321  14.773
94041SOL    HW184020   3.683   1.378  14.836
94041SOL    HW284021   3.820   1.335  14.788
94042SOL     OW84022  11.951   3.320  11.511
94042SOL    HW184023  11.882   3.270  11.554
94042SOL    HW284024  11.969   3.272  11.430
94043SOL     OW84025   8.547   7.786  13.142
94043SOL    HW184026   8.609   7.741  13.085
94043SOL    HW284027   8.511   7.717  13.197
94044SOL     OW84028  13.044   6.236   0.235
94044SOL    HW184029  12.995   6.310   0.200
94044SOL    HW284030  13.136   6.259   0.219
94045SOL     OW84031  14.551   0.321   9.581
94045SOL    HW184032  14.489   0.366   9.524
94045SOL    HW284033  14.623   0.383   9.594
94046SOL     OW84034  13.232   5.466   4.830
94046SOL    HW184035  13.320   5.463   4.793
94046SOL    HW284036  13.216   5.558   4.849
94047SOL     OW84037  14.208   7.957  14.748
94047SOL    HW184038  14.277   8.000  14.797
94047SOL    HW284039  14.160   7.906  14.814
94048SOL     OW84040   8.812   4.892   3.702
94048SOL    HW184041   8.849   4.811   3.668
94048SOL    HW284042   8.883   4.931   3.754
94049SOL     OW84043   5.965   4.233   6.884
94049SOL    HW184044   5.953   4.328   6.880
94049SOL    HW284045   6.044   4.216   6.833
94050SOL     OW84046   2.358   7.908  12.635
94050SOL    HW184047   2.363   7.988  12.686
94050SOL    HW284048   2.381   7.934  12.546
94051SOL     OW84049   4.184   5.893   0.126
94051SOL    HW184050   4.247   5.857   0.188
94051SOL    HW284051   4.237   5.923   0.053
94052SOL     OW84052  11.893   4.709   9.613
94052SOL    HW184053  11.946   4.656   9.672
94052SOL    HW284054  11.953   4.777   9.582
94053SOL     OW84055   3.387  14.246  13.699
94053SOL    HW184056   3.303  14.290  13.687
94053SOL    HW284057   3.364  14.159  13.731
94054SOL     OW84058   0.518   5.916   1.360
94054SOL    HW184059   0.456   5.844   1.367
94054SOL    HW284060   0.532   5.926   1.266
94055SOL     OW84061   4.996   3.406  13.864
94055SOL    HW184062   5.039   3.327  13.830
94055SOL    HW284063   5.037   3.478  13.816
94056SOL     OW84064   8.936   1.800   6.679
94056SOL    HW184065   9.003   1.732   6.681
94056SOL    HW284066   8.958   1.853   6.603
94057SOL     OW84067   8.628   8.535   7.918
94057SOL    HW184068   8.628   8.484   7.838
94057SOL    HW284069   8.689   8.489   7.976
94058SOL     OW84070  12.832   3.084   7.066
94058SOL    HW184071  12.756   3.076   7.009
94058SOL    HW284072  12.806   3.039   7.147
94059SOL     OW84073   6.701   5.843   8.164
94059SOL    HW184074   6.612   5.808   8.169
94059SOL    HW284075   6.710   5.874   8.074
94060SOL     OW84076   4.259   5.481   6.291
94060SOL    HW184077   4.353   5.494   6.279
94060SOL    HW284078   4.247   5.386   6.285
94061SOL     OW84079   4.987   0.586   4.295
94061SOL    HW184080   4.971   0.626   4.209
94061SOL    HW284081   4.946   0.499   4.289
94062SOL     OW84082  12.884   4.176   8.643
94062SOL    HW184083  12.867   4.136   8.728
94062SOL    HW284084  12.978   4.164   8.629
94063SOL     OW84085   6.800  14.178  12.171
94063SOL    HW184086   6.746  14.101  12.150
94063SOL    HW284087   6.783  14.239  12.100
94064SOL     OW84088   3.080  12.007   0.230
94064SOL    HW184089   3.036  12.065   0.293
94064SOL    HW284090   3.069  12.051   0.146
94065SOL     OW84091   7.583   7.490   5.517
94065SOL    HW184092   7.505   7.520   5.470
94065SOL    HW284093   7.551   7.470   5.605
94066SOL     OW84094  13.461   7.553  11.921
94066SOL    HW184095  13.501   7.481  11.970
94066SOL    HW284096  13.374   7.522  11.898
94067SOL     OW84097   2.694   6.237  11.502
94067SOL    HW184098   2.671   6.328  11.518
94067SOL    HW284099   2.787   6.231  11.525
94068SOL     OW84100   8.796  11.758   0.660
94068SOL    HW184101   8.832  11.678   0.696
94068SOL    HW284102   8.819  11.826   0.724
94069SOL     OW84103   8.478  12.615  10.516
94069SOL    HW184104   8.460  12.678  10.447
94069SOL    HW284105   8.529  12.546  10.473
94070SOL     OW84106   8.247   8.705  12.099
94070SOL    HW184107   8.159   8.731  12.071
94070SOL    HW284108   8.249   8.611  12.087
94071SOL     OW84109   3.967   0.515   5.383
94071SOL    HW184110   4.020   0.440   5.357
94071SOL    HW284111   4.012   0.590   5.345
94072SOL     OW84112   9.702   3.582   9.672
94072SOL    HW184113   9.661   3.636   9.604
94072SOL    HW284114   9.658   3.607   9.753
94073SOL     OW84115  13.393  12.512  12.140
94073SOL    HW184116  13.301  12.518  12.116
94073SOL    HW284117  13.393  12.523  12.235
94074SOL     OW84118   9.800   2.810  13.016
94074SOL    HW184119   9.784   2.722  12.980
94074SOL    HW284120   9.801   2.797  13.111
94075SOL     OW84121  12.437  10.330   2.130
94075SOL    HW184122  12.491  10.373   2.196
94075SOL    HW284123  12.500  10.286   2.073
94076SOL     OW84124  14.019  12.107   6.748
94076SOL    HW184125  14.084  12.119   6.679
94076SOL    HW284126  13.961  12.183   6.740
94077SOL     OW84127   3.867  11.155   8.765
94077SOL    HW184128   3.865  11.207   8.685
94077SOL    HW284129   3.804  11.197   8.823
94078SOL     OW84130  11.368   4.725  12.045
94078SOL    HW184131  11.413   4.700  11.965
94078SOL    HW284132  11.437   4.762  12.100
94079SOL     OW84133  12.940   1.222   3.151
94079SOL    HW184134  12.905   1.225   3.062
94079SOL    HW284135  13.022   1.271   3.146
94080SOL     OW84136  12.867  13.592   8.918
94080SOL    HW184137  12.784  13.545   8.927
94080SOL    HW284138  12.910  13.583   9.003
94081SOL     OW84139   5.335  11.807   7.702
94081SOL    HW184140   5.345  11.902   7.712
94081SOL    HW284141   5.346  11.772   7.791
94082SOL     OW84142  14.179   4.863   3.984
94082SOL    HW184143  14.106   4.895   3.931
94082SOL    HW284144  14.178   4.920   4.061
94083SOL     OW84145  12.816   3.483   7.384
94083SOL    HW184146  12.856   3.396   7.390
94083SOL    HW284147  12.822   3.519   7.472
94084SOL     OW84148   9.105   4.351  12.114
94084SOL    HW184149   9.179   4.354  12.054
94084SOL    HW284150   9.060   4.269  12.093
94085SOL     OW84151   2.190  13.382   3.164
94085SOL    HW184152   2.266  13.381   3.222
94085SOL    HW284153   2.227  13.402   3.078
94086SOL     OW84154   3.757  14.471  13.139
94086SOL    HW184155   3.747  14.541  13.074
94086SOL    HW284156   3.817  14.409  13.098
94087SOL     OW84157   2.872   7.510  12.647
94087SOL    HW184158   2.802   7.500  12.711
94087SOL    HW284159   2.931   7.575  12.686
94088SOL     OW84160   5.412   4.931   4.694
94088SOL    HW184161   5.353   4.868   4.736
94088SOL    HW284162   5.354   4.989   4.645
94089SOL     OW84163   8.854   6.415  14.438
94089SOL    HW184164   8.897   6.423  14.353
94089SOL    HW284165   8.912   6.359  14.490
94090SOL     OW84166   6.202   9.278   8.399
94090SOL    HW184167   6.119   9.274   8.446
94090SOL    HW284168   6.258   9.214   8.443
94091SOL     OW84169  11.731   3.257   9.146
94091SOL    HW184170  11.640   3.287   9.150
94091SOL    HW284171  11.731   3.176   9.197
94092SOL     OW84172   0.202  12.415   4.343
94092SOL    HW184173   0.217  12.482   4.410
94092SOL    HW284174   0.270  12.432   4.277
94093SOL     OW84175  10.337   4.658   9.265
94093SOL    HW184176  10.282   4.696   9.197
94093SOL    HW284177  10.411   4.621   9.218
94094SOL     OW84178   1.161   0.308   8.951
94094SOL    HW184179   1.127   0.395   8.928
94094SOL    HW284180   1.244   0.301   8.903
94095SOL     OW84181   6.218   1.149   2.744
94095SOL    HW184182   6.280   1.077   2.736
94095SOL    HW284183   6.133   1.106   2.753
94096SOL     OW84184   3.059  12.674  14.575
94096SOL    HW184185   3.146  12.709  14.594
94096SOL    HW284186   3.059  12.659  14.480
94097SOL     OW84187  10.711  10.194   1.267
94097SOL    HW184188  10.666  10.171   1.349
94097SOL    HW284189  10.651  10.255   1.223
94098SOL     OW84190   1.866   1.477   7.795
94098SOL    HW184191   1.800   1.533   7.755
94098SOL    HW284192   1.839   1.388   7.772
94099SOL     OW84193  12.981  10.366   9.797
94099SOL    HW184194  13.026  10.439   9.754
94099SOL    HW284195  13.024  10.358   9.883
94100SOL     OW84196   3.559   4.508  12.324
94100SOL    HW184197   3.501   4.513  12.248
94100SOL    HW284198   3.505   4.470  12.393
94101SOL     OW84199   2.067   8.897   3.511
94101SOL    HW184200   2.022   8.939   3.437
94101SOL    HW284201   2.148   8.864   3.473
94102SOL     OW84202  10.413   8.347   6.476
94102SOL    HW184203  10.344   8.355   6.542
94102SOL    HW284204  10.488   8.313   6.524
94103SOL     OW84205  11.663  13.172   8.609
94103SOL    HW184206  11.606  13.245   8.633
94103SOL    HW284207  11.685  13.130   8.692
94104SOL     OW84208   8.823  12.126   7.021
94104SOL    HW184209   8.780  12.124   6.935
94104SOL    HW284210   8.894  12.188   7.011
94105SOL     OW84211  14.071  11.897   7.883
94105SOL    HW184212  14.064  11.975   7.828
94105SOL    HW284213  14.111  11.929   7.964
94106SOL     OW84214  12.939   5.421   8.574
94106SOL    HW184215  12.926   5.336   8.616
94106SOL    HW284216  12.850   5.456   8.565
94107SOL     OW84217  14.621  13.528  12.360
94107SOL    HW184218  14.568  13.509  12.282
94107SOL    HW284219  14.686  13.458  12.362
94108SOL     OW84220   5.994   9.352  11.865
94108SOL    HW184221   5.938   9.318  11.795
94108SOL    HW284222   6.003   9.278  11.925
94109SOL     OW84223  12.094  14.670   2.048
94109SOL    HW184224  12.104  14.736   1.980
94109SOL    HW284225  12.183  14.658   2.083
94110SOL     OW84226  13.493   0.248   6.118
94110SOL    HW184227  13.533   0.296   6.190
94110SOL    HW284228  13.566   0.231   6.058
94111SOL     OW84229   6.500  14.591   6.321
94111SOL    HW184230   6.592  14.595   6.295
94111SOL    HW284231   6.466  14.678   6.300
94112SOL     OW84232   9.715  10.577   2.450
94112SOL    HW184233   9.700  10.507   2.387
94112SOL    HW284234   9.810  10.587   2.452
94113SOL     OW84235   9.207  13.591  13.276
94113SOL    HW184236   9.170  13.633  13.199
94113SOL    HW284237   9.132  13.576  13.334
94114SOL     OW84238   6.700  13.701   4.318
94114SOL    HW184239   6.683  13.737   4.231
94114SOL    HW284240   6.629  13.638   4.332
94115SOL     OW84241   9.597   1.045   0.810
94115SOL    HW184242   9.608   1.140   0.818
94115SOL    HW284243   9.550   1.033   0.728
94116SOL     OW84244   3.924   8.129   2.095
94116SOL    HW184245   3.925   8.115   2.001
94116SOL    HW284246   3.838   8.099   2.124
94117SOL     OW84247   2.916  10.141   0.145
94117SOL    HW184248   2.972  10.197   0.092
94117SOL    HW284249   2.907  10.061   0.093
94118SOL     OW84250  11.954   1.481   2.297
94118SOL    HW184251  11.894   1.432   2.242
94118SOL    HW284252  12.039   1.438   2.285
94119SOL     OW84253  10.332   6.176  14.651
94119SOL    HW184254  10.404   6.136  14.601
94119SOL    HW284255  10.360   6.170  14.742
94120SOL     OW84256   1.752   8.283   5.649
94120SOL    HW184257   1.683   8.236   5.696
94120SOL    HW284258   1.795   8.337   5.715
94121SOL     OW84259   4.070  12.796   1.987
94121SOL    HW184260   4.039  12.794   1.896
94121SOL    HW284261   4.011  12.737   2.034
94122SOL     OW84262   7.861   8.635  13.623
94122SOL    HW184263   7.902   8.557  13.661
94122SOL    HW284264   7.774   8.638  13.662
94123SOL     OW84265   7.953   0.720   0.890
94123SOL    HW184266   7.878   0.724   0.831
94123SOL    HW284267   7.932   0.783   0.960
94124SOL     OW84268  11.925   3.348   8.752
94124SOL    HW184269  11.864   3.279   8.727
94124SOL    HW284270  11.979   3.361   8.674
94125SOL     OW84271   1.081   0.578   0.017
94125SOL    HW184272   1.130   0.600   0.096
94125SOL    HW284273   1.115   0.492  14.859
94126SOL     OW84274   5.575   3.013   3.360
94126SOL    HW184275   5.581   2.943   3.295
94126SOL    HW284276   5.558   3.092   3.308
94127SOL     OW84277  13.402   2.271   4.825
94127SOL    HW184278  13.441   2.197   4.778
94127SOL    HW284279  13.398   2.342   4.760
94128SOL     OW84280   1.123   5.216  14.415
94128SOL    HW184281   1.043   5.245  14.460
94128SOL    HW284282   1.169   5.297  14.394
94129SOL     OW84283   8.725   8.101  12.603
94129SOL    HW184284   8.692   8.049  12.677
94129SOL    HW284285   8.656   8.095  12.537
94130SOL     OW84286   5.991   9.979  14.447
94130SOL    HW184287   5.924   9.950  14.384
94130SOL    HW284288   6.068   9.995  14.393
94131SOL     OW84289  10.520  10.043   4.077
94131SOL    HW184290  10.486   9.954   4.069
94131SOL    HW284291  10.485  10.075   4.160
94132SOL     OW84292   3.625   3.747  12.417
94132SOL    HW184293   3.650   3.776  12.330
94132SOL    HW284294   3.637   3.824  12.473
94133SOL     OW84295   5.439  11.631   5.723
94133SOL    HW184296   5.345  11.624   5.736
94133SOL    HW284297   5.458  11.571   5.651
94134SOL     OW84298   8.000  12.992   2.270
94134SOL    HW184299   7.916  12.965   2.233
94134SOL    HW284300   8.027  13.067   2.217
94135SOL     OW84301  10.141   6.011   3.289
94135SOL    HW184302  10.105   6.070   3.223
94135SOL    HW284303  10.216   6.058   3.326
94136SOL     OW84304   9.417   7.531  12.430
94136SOL    HW184305   9.452   7.603  12.482
94136SOL    HW284306   9.325   7.553  12.417
94137SOL     OW84307   8.241   1.596   3.615
94137SOL    HW184308   8.292   1.672   3.642
94137SOL    HW284309   8.165   1.634   3.570
94138SOL     OW84310  13.907  13.594   4.363
94138SOL    HW184311  13.910  13.508   4.321
94138SOL    HW284312  13.895  13.656   4.291
94139SOL     OW84313   7.788   7.443   7.046
94139SOL    HW184314   7.704   7.412   7.079
94139SOL    HW284315   7.769   7.531   7.011
94140SOL     OW84316  14.471   8.408   5.850
94140SOL    HW184317  14.410   8.439   5.782
94140SOL    HW284318  14.517   8.334   5.809
94141SOL     OW84319   6.795   1.264  14.021
94141SOL    HW184320   6.824   1.189  14.074
94141SOL    HW284321   6.865   1.328  14.031
94142SOL     OW84322  10.561  13.421   3.284
94142SOL    HW184323  10.656  13.408   3.275
94142SOL    HW284324  10.552  13.502   3.333
94143SOL     OW84325   7.295   2.684   4.355
94143SOL    HW184326   7.299   2.633   4.437
94143SOL    HW284327   7.282   2.774   4.384
94144SOL     OW84328   3.171   5.432   5.305
94144SOL    HW184329   3.173   5.364   5.238
94144SOL    HW284330   3.100   5.491   5.278
94145SOL     OW84331  12.936   9.027  11.952
94145SOL    HW184332  12.909   8.991  11.867
94145SOL    HW284333  13.026   9.056  11.938
94146SOL     OW84334   4.642  11.457  13.653
94146SOL    HW184335   4.725  11.411  13.660
94146SOL    HW284336   4.583  11.409  13.711
94147SOL     OW84337  10.987   2.015   7.819
94147SOL    HW184338  10.949   1.969   7.893
94147SOL    HW284339  10.935   2.096   7.812
94148SOL     OW84340   1.161  12.316  14.580
94148SOL    HW184341   1.098  12.292  14.648
94148SOL    HW284342   1.124  12.280  14.500
94149SOL     OW84343   3.555   0.759  10.167
94149SOL    HW184344   3.504   0.736  10.244
94149SOL    HW284345   3.635   0.800  10.201
94150SOL     OW84346   6.750  10.114   5.597
94150SOL    HW184347   6.720  10.023   5.600
94150SOL    HW284348   6.706  10.155   5.672
94151SOL     OW84349   2.913  12.434   4.885
94151SOL    HW184350   2.857  12.367   4.926
94151SOL    HW284351   2.938  12.396   4.801
94152SOL     OW84352   0.069   8.945   1.652
94152SOL    HW184353   0.102   8.952   1.562
94152SOL    HW284354   0.049   8.852   1.663
94153SOL     OW84355   9.843  13.499   2.213
94153SOL    HW184356   9.876  13.571   2.268
94153SOL    HW284357   9.920  13.444   2.197
94154SOL     OW84358   2.207   3.552   4.848
94154SOL    HW184359   2.227   3.622   4.786
94154SOL    HW284360   2.112   3.555   4.857
94155SOL     OW84361   2.048  10.614  13.722
94155SOL    HW184362   2.042  10.708  13.741
94155SOL    HW284363   1.981  10.600  13.655
94156SOL     OW84364  10.724   1.919  10.525
94156SOL    HW184365  10.779   1.849  10.560
94156SOL    HW284366  10.695   1.968  10.602
94157SOL     OW84367  13.053   1.543   9.671
94157SOL    HW184368  13.139   1.518   9.704
94157SOL    HW284369  13.014   1.461   9.641
94158SOL     OW84370  13.154   2.891  10.647
94158SOL    HW184371  13.217   2.961  10.663
94158SOL    HW284372  13.074   2.919  10.693
94159SOL     OW84373   6.305   2.732  13.118
94159SOL    HW184374   6.245   2.658  13.121
94159SOL    HW284375   6.250   2.806  13.092
94160SOL     OW84376   2.891   9.827  13.944
94160SOL    HW184377   2.963   9.884  13.914
94160SOL    HW284378   2.932   9.769  14.008
94161SOL     OW84379   8.484  10.028  14.356
94161SOL    HW184380   8.574  10.003  14.335
94161SOL    HW284381   8.462  10.095  14.291
94162SOL     OW84382  12.334  11.851   5.814
94162SOL    HW184383  12.328  11.766   5.770
94162SOL    HW284384  12.284  11.911   5.759
94163SOL     OW84385  12.859   8.223  11.868
94163SOL    HW184386  12.940   8.172  11.874
94163SOL    HW284387  12.792   8.158  11.847
94164SOL     OW84388   3.784  14.358   0.503
94164SOL    HW184389   3.845  14.366   0.430
94164SOL    HW284390   3.721  14.292   0.475
94165SOL     OW84391   0.067   3.955   1.898
94165SOL    HW184392  14.852   3.914   1.923
94165SOL    HW284393   0.048   4.049   1.898
94166SOL     OW84394   2.084   3.904   3.348
94166SOL    HW184395   2.141   3.869   3.279
94166SOL    HW284396   2.122   3.989   3.369
94167SOL     OW84397   0.884  13.409   0.835
94167SOL    HW184398   0.848  13.489   0.797
94167SOL    HW284399   0.852  13.409   0.925
94168SOL     OW84400  11.652   8.472   6.460
94168SOL    HW184401  11.746   8.457   6.454
94168SOL    HW284402  11.630   8.449   6.550
94169SOL     OW84403  11.580   7.127  14.261
94169SOL    HW184404  11.644   7.136  14.331
94169SOL    HW284405  11.511   7.072  14.298
94170SOL     OW84406   2.517  10.152  11.703
94170SOL    HW184407   2.439  10.102  11.729
94170SOL    HW284408   2.583  10.085  11.685
94171SOL     OW84409   0.696  14.593   4.058
94171SOL    HW184410   0.683  14.637   4.143
94171SOL    HW284411   0.788  14.566   4.059
94172SOL     OW84412   7.098   8.913  14.717
94172SOL    HW184413   7.073   8.975  14.785
94172SOL    HW284414   7.020   8.907  14.661
94173SOL     OW84415  12.599   2.867   6.989
94173SOL    HW184416  12.637   2.948   6.957
94173SOL    HW284417  12.514   2.861   6.945
94174SOL     OW84418  11.024   0.482   8.863
94174SOL    HW184419  11.109   0.472   8.905
94174SOL    HW284420  11.045   0.493   8.770
94175SOL     OW84421   9.990   2.823   1.574
94175SOL    HW184422   9.927   2.856   1.637
94175SOL    HW284423  10.002   2.894   1.512
94176SOL     OW84424   3.718   4.590   2.165
94176SOL    HW184425   3.804   4.551   2.174
94176SOL    HW284426   3.657   4.518   2.180
94177SOL     OW84427   9.933  11.716   2.450
94177SOL    HW184428   9.934  11.645   2.385
94177SOL    HW284429  10.023  11.749   2.452
94178SOL     OW84430   8.056  13.646   1.115
94178SOL    HW184431   8.127  13.634   1.052
94178SOL    HW284432   8.047  13.741   1.124
94179SOL     OW84433   1.263   0.965  14.559
94179SOL    HW184434   1.207   1.030  14.517
94179SOL    HW284435   1.325   1.017  14.611
94180SOL     OW84436   3.362  12.905  12.368
94180SOL    HW184437   3.291  12.959  12.335
94180SOL    HW284438   3.341  12.816  12.339
94181SOL     OW84439  14.074   7.930   2.762
94181SOL    HW184440  14.156   7.933   2.810
94181SOL    HW284441  14.008   7.956   2.826
94182SOL     OW84442   9.070   7.889   1.899
94182SOL    HW184443   9.119   7.896   1.981
94182SOL    HW284444   9.089   7.970   1.852
94183SOL     OW84445   8.325   8.425  12.035
94183SOL    HW184446   8.420   8.434  12.026
94183SOL    HW284447   8.314   8.370  12.112
94184SOL     OW84448  11.423   9.111   5.378
94184SOL    HW184449  11.338   9.087   5.340
94184SOL    HW284450  11.464   9.027   5.399
94185SOL     OW84451   0.118   2.188   2.587
94185SOL    HW184452   0.092   2.222   2.673
94185SOL    HW284453   0.105   2.261   2.528
94186SOL     OW84454   1.610  13.064   4.399
94186SOL    HW184455   1.572  13.025   4.320
94186SOL    HW284456   1.688  13.110   4.368
94187SOL     OW84457   4.444   8.750   2.345
94187SOL    HW184458   4.370   8.729   2.402
94187SOL    HW284459   4.492   8.667   2.337
94188SOL     OW84460   8.897   4.260   3.321
94188SOL    HW184461   8.907   4.245   3.227
94188SOL    HW284462   8.958   4.200   3.362
94189SOL     OW84463   6.336   9.912   2.979
94189SOL    HW184464   6.295   9.840   3.027
94189SOL    HW284465   6.427   9.912   3.008
94190SOL     OW84466   6.343   7.062  12.955
94190SOL    HW184467   6.409   7.131  12.943
94190SOL    HW284468   6.379   7.007  13.025
94191SOL     OW84469   5.725   5.356   3.653
94191SOL    HW184470   5.685   5.443   3.650
94191SOL    HW284471   5.740   5.334   3.561
94192SOL     OW84472   2.262   1.425  10.085
94192SOL    HW184473   2.278   1.518  10.076
94192SOL    HW284474   2.309   1.400  10.165
94193SOL     OW84475   0.935   1.108  10.247
94193SOL    HW184476   1.010   1.151  10.205
94193SOL    HW284477   0.922   1.028  10.196
94194SOL     OW84478  14.650  14.384   9.852
94194SOL    HW184479  14.676  14.293   9.838
94194SOL    HW284480  14.719  14.436   9.810
94195SOL     OW84481  11.466   5.008  11.720
94195SOL    HW184482  11.441   5.087  11.768
94195SOL    HW284483  11.388   4.984  11.671
94196SOL     OW84484   0.260   2.243   2.010
94196SOL    HW184485   0.255   2.259   1.916
94196SOL    HW284486   0.228   2.324   2.050
94197SOL     OW84487  11.055  14.577   4.040
94197SOL    HW184488  11.005  14.576   3.958
94197SOL    HW284489  11.007  14.519   4.099
94198SOL     OW84490   1.583   1.215   5.594
94198SOL    HW184491   1.539   1.269   5.528
94198SOL    HW284492   1.673   1.208   5.563
94199SOL     OW84493  14.479   4.356   2.418
94199SOL    HW184494  14.509   4.274   2.380
94199SOL    HW284495  14.519   4.358   2.505
94200SOL     OW84496   3.766   7.261   1.051
94200SOL    HW184497   3.852   7.272   1.011
94200SOL    HW284498   3.720   7.344   1.035
94201SOL     OW84499  13.332   9.943   8.661
94201SOL    HW184500  13.259   9.974   8.607
94201SOL    HW284501  13.356   9.858   8.623
94202SOL     OW84502   2.421   1.816   0.350
94202SOL    HW184503   2.349   1.807   0.288
94202SOL    HW284504   2.490   1.760   0.315
94203SOL     OW84505  12.915   9.068   4.677
94203SOL    HW184506  12.887   9.081   4.587
94203SOL    HW284507  12.854   9.120   4.729
94204SOL     OW84508  14.267   5.214   9.060
94204SOL    HW184509  14.257   5.305   9.087
94204SOL    HW284510  14.178   5.180   9.056
94205SOL     OW84511   6.296   6.237   2.453
94205SOL    HW184512   6.390   6.243   2.437
94205SOL    HW284513   6.277   6.143   2.451
94206SOL     OW84514   2.958  13.326   7.518
94206SOL    HW184515   2.956  13.252   7.458
94206SOL    HW284516   2.890  13.385   7.484
94207SOL     OW84517  11.667  13.853   0.345
94207SOL    HW184518  11.672  13.887   0.255
94207SOL    HW284519  11.686  13.929   0.400
94208SOL     OW84520  12.517   4.058   0.166
94208SOL    HW184521  12.521   3.972   0.124
94208SOL    HW284522  12.571   4.049   0.245
94209SOL     OW84523   0.664   9.149   6.016
94209SOL    HW184524   0.699   9.073   6.062
94209SOL    HW284525   0.572   9.153   6.043
94210SOL     OW84526  14.710  12.526   8.101
94210SOL    HW184527  14.762  12.538   8.180
94210SOL    HW284528  14.768  12.555   8.030
94211SOL     OW84529   9.135  10.438   6.036
94211SOL    HW184530   9.173  10.523   6.058
94211SOL    HW284531   9.136  10.435   5.940
94212SOL     OW84532   5.819   2.671   7.777
94212SOL    HW184533   5.732   2.700   7.749
94212SOL    HW284534   5.862   2.751   7.807
94213SOL     OW84535   0.265   8.897  11.709
94213SOL    HW184536   0.286   8.816  11.661
94213SOL    HW284537   0.331   8.901  11.779
94214SOL     OW84538   3.522   1.692   0.653
94214SOL    HW184539   3.541   1.702   0.746
94214SOL    HW284540   3.574   1.762   0.611
94215SOL     OW84541  10.076   6.248   3.155
94215SOL    HW184542  10.033   6.333   3.163
94215SOL    HW284543  10.054   6.218   3.067
94216SOL     OW84544   2.279   6.923   2.074
94216SOL    HW184545   2.364   6.878   2.078
94216SOL    HW284546   2.244   6.900   1.988
94217SOL     OW84547   6.394  14.844  12.528
94217SOL    HW184548   6.475  14.795  12.534
94217SOL    HW284549   6.395   0.014  12.440
94218SOL     OW84550   8.299   5.581  12.994
94218SOL    HW184551   8.342   5.638  13.059
94218SOL    HW284552   8.218   5.554  13.037
94219SOL     OW84553  12.658  14.853   8.334
94219SOL    HW184554  12.609   0.030   8.265
94219SOL    HW284555  12.608  14.773   8.351
94220SOL     OW84556  13.868  10.495  13.424
94220SOL    HW184557  13.860  10.411  13.470
94220SOL    HW284558  13.783  10.538  13.437
94221SOL     OW84559   9.831  10.737   9.055
94221SOL    HW184560   9.876  10.805   9.107
94221SOL    HW284561   9.870  10.744   8.968
94222SOL     OW84562   1.638   8.175   8.488
94222SOL    HW184563   1.725   8.157   8.454
94222SOL    HW284564   1.648   8.255   8.539
94223SOL     OW84565   3.761  10.617  10.464
94223SOL    HW184566   3.698  10.664  10.520
94223SOL    HW284567   3.782  10.680  10.395
94224SOL     OW84568   3.444  14.085   8.087
94224SOL    HW184569   3.517  14.063   8.029
94224SOL    HW284570   3.448  14.181   8.095
94225SOL     OW84571  13.450   7.968   5.106
94225SOL    HW184572  13.508   8.032   5.065
94225SOL    HW284573  13.502   7.930   5.177
94226SOL     OW84574  12.526   1.574  12.335
94226SOL    HW184575  12.442   1.530  12.319
94226SOL    HW284576  12.580   1.548  12.260
94227SOL     OW84577   6.258   0.403  14.613
94227SOL    HW184578   6.314   0.472  14.577
94227SOL    HW284579   6.184   0.398  14.553
94228SOL     OW84580  11.164   3.353   4.968
94228SOL    HW184581  11.184   3.350   5.062
94228SOL    HW284582  11.070   3.337   4.964
94229SOL     OW84583   7.645  12.194  13.211
94229SOL    HW184584   7.695  12.124  13.252
94229SOL    HW284585   7.681  12.275  13.249
94230SOL     OW84586  11.050  12.435   0.001
94230SOL    HW184587  11.021  12.526   0.002
94230SOL    HW284588  10.991  12.392  14.807
94231SOL     OW84589  14.114   4.377   1.390
94231SOL    HW184590  14.096   4.346   1.301
94231SOL    HW284591  14.196   4.425   1.382
94232SOL     OW84592  11.360  13.106   4.654
94232SOL    HW184593  11.430  13.139   4.711
94232SOL    HW284594  11.390  13.124   4.565
94233SOL     OW84595   1.183   1.738   4.801
94233SOL    HW184596   1.251   1.802   4.822
94233SOL    HW284597   1.100   1.784   4.815
94234SOL     OW84598   1.874   3.782  11.575
94234SOL    HW184599   1.967   3.802  11.577
94234SOL    HW284600   1.863   3.712  11.639
94235SOL     OW84601  10.603   7.584  10.610
94235SOL    HW184602  10.572   7.563  10.698
94235SOL    HW284603  10.659   7.661  10.622
94236SOL     OW84604  11.882  12.161  11.728
94236SOL    HW184605  11.881  12.244  11.681
94236SOL    HW284606  11.906  12.185  11.818
94237SOL     OW84607   6.284   9.089   4.465
94237SOL    HW184608   6.241   9.174   4.478
94237SOL    HW284609   6.267   9.041   4.545
94238SOL     OW84610  14.473   1.609   4.167
94238SOL    HW184611  14.554   1.593   4.119
94238SOL    HW284612  14.494   1.678   4.229
94239SOL     OW84613   3.229   4.787   4.014
94239SOL    HW184614   3.276   4.758   4.092
94239SOL    HW284615   3.284   4.759   3.941
94240SOL     OW84616   1.849   7.385   8.967
94240SOL    HW184617   1.909   7.341   9.027
94240SOL    HW284618   1.782   7.423   9.023
94241SOL     OW84619   2.178  13.589  14.025
94241SOL    HW184620   2.189  13.501  13.991
94241SOL    HW284621   2.149  13.577  14.116
94242SOL     OW84622   1.872   1.253   3.341
94242SOL    HW184623   1.826   1.228   3.261
94242SOL    HW284624   1.963   1.230   3.324
94243SOL     OW84625   7.792   6.562  11.932
94243SOL    HW184626   7.781   6.522  11.846
94243SOL    HW284627   7.703   6.577  11.963
94244SOL     OW84628   9.639   5.362   8.123
94244SOL    HW184629   9.680   5.448   8.127
94244SOL    HW284630   9.622   5.339   8.214
94245SOL     OW84631   0.888  10.239   1.389
94245SOL    HW184632   0.888  10.313   1.450
94245SOL    HW284633   0.970  10.193   1.407
94246SOL     OW84634   1.733  14.192   1.289
94246SOL    HW184635   1.637  14.194   1.290
94246SOL    HW284636   1.758  14.284   1.285
94247SOL     OW84637   6.699   9.840   7.241
94247SOL    HW184638   6.616   9.802   7.270
94247SOL    HW284639   6.675   9.922   7.199
94248SOL     OW84640  13.238   7.374   9.674
94248SOL    HW184641  13.233   7.298   9.732
94248SOL    HW284642  13.296   7.347   9.603
94249SOL     OW84643  12.729   9.112  13.648
94249SOL    HW184644  12.800   9.130  13.587
94249SOL    HW284645  12.768   9.055  13.714
94250SOL     OW84646   2.788   5.072   8.996
94250SOL    HW184647   2.829   5.037   8.917
94250SOL    HW284648   2.703   5.029   9.000
94251SOL     OW84649   3.816  12.499   6.539
94251SOL    HW184650   3.868  12.467   6.613
94251SOL    HW284651   3.873  12.562   6.495
94252SOL     OW84652  12.194   9.854   3.195
94252SOL    HW184653  12.175   9.762   3.211
94252SOL    HW284654  12.194   9.894   3.282
94253SOL     OW84655  14.111   9.000  11.509
94253SOL    HW184656  14.054   9.010  11.433
94253SOL    HW284657  14.180   8.940  11.478
94254SOL     OW84658   6.238  13.750   7.944
94254SOL    HW184659   6.186  13.673   7.924
94254SOL    HW284660   6.276  13.731   8.030
94255SOL     OW84661   5.499   8.768  13.404
94255SOL    HW184662   5.522   8.770  13.496
94255SOL    HW284663   5.565   8.712  13.363
94256SOL     OW84664   8.487   9.599   1.826
94256SOL    HW184665   8.555   9.532   1.826
94256SOL    HW284666   8.427   9.573   1.756
94257SOL     OW84667  10.201   6.516   4.240
94257SOL    HW184668  10.153   6.544   4.318
94257SOL    HW284669  10.251   6.593   4.213
94258SOL     OW84670   9.030  10.843  14.571
94258SOL    HW184671   8.950  10.844  14.519
94258SOL    HW284672   9.012  10.781  14.642
94259SOL     OW84673  11.163   2.965  13.390
94259SOL    HW184674  11.224   2.925  13.327
94259SOL    HW284675  11.109   3.023  13.336
94260SOL     OW84676   6.671   1.202   6.256
94260SOL    HW184677   6.701   1.116   6.228
94260SOL    HW284678   6.594   1.185   6.309
94261SOL     OW84679  14.095   2.317   3.286
94261SOL    HW184680  14.160   2.373   3.329
94261SOL    HW284681  14.078   2.247   3.350
94262SOL     OW84682   4.679  14.557   0.508
94262SOL    HW184683   4.707  14.466   0.519
94262SOL    HW284684   4.751  14.609   0.543
94263SOL     OW84685   2.507   2.456   8.526
94263SOL    HW184686   2.535   2.449   8.617
94263SOL    HW284687   2.424   2.504   8.530
94264SOL     OW84688   5.229   2.572   8.955
94264SOL    HW184689   5.319   2.577   8.923
94264SOL    HW284690   5.229   2.495   9.013
94265SOL     OW84691   2.827   3.204  14.580
94265SOL    HW184692   2.811   3.162  14.495
94265SOL    HW284693   2.763   3.275  14.583
94266SOL     OW84694  12.829   3.731   7.229
94266SOL    HW184695  12.851   3.693   7.144
94266SOL    HW284696  12.828   3.657   7.290
94267SOL     OW84697   1.519  11.693   9.156
94267SOL    HW184698   1.549  11.636   9.227
94267SOL    HW284699   1.424  11.684   9.155
94268SOL     OW84700  12.229   6.478   6.589
94268SOL    HW184701  12.221   6.546   6.522
94268SOL    HW284702  12.314   6.437   6.572
94269SOL     OW84703   3.696   4.967  14.396
94269SOL    HW184704   3.706   4.890  14.340
94269SOL    HW284705   3.772   5.021  14.375
94270SOL     OW84706   4.084  10.800   7.437
94270SOL    HW184707   4.051  10.712   7.417
94270SOL    HW284708   4.092  10.843   7.352
94271SOL     OW84709  14.050   6.867   0.207
94271SOL    HW184710  14.075   6.940   0.150
94271SOL    HW284711  13.955   6.869   0.209
94272SOL     OW84712   2.370   6.590   5.175
94272SOL    HW184713   2.371   6.510   5.227
94272SOL    HW284714   2.302   6.574   5.109
94273SOL     OW84715  10.189   3.051  12.253
94273SOL    HW184716  10.181   3.135  12.298
94273SOL    HW284717  10.253   3.002  12.306
94274SOL     OW84718  13.793   7.747  14.747
94274SOL    HW184719  13.784   7.658  14.713
94274SOL    HW284720  13.869   7.743  14.805
94275SOL     OW84721   0.111   1.883  13.102
94275SOL    HW184722   0.024   1.844  13.102
94275SOL    HW284723   0.171   1.809  13.092
94276SOL     OW84724   2.401   4.497   6.729
94276SOL    HW184725   2.405   4.475   6.636
94276SOL    HW284726   2.358   4.583   6.731
94277SOL     OW84727   0.898   1.278  11.854
94277SOL    HW184728   0.862   1.266  11.942
94277SOL    HW284729   0.825   1.261  11.795
94278SOL     OW84730   3.286   5.387   9.150
94278SOL    HW184731   3.305   5.479   9.168
94278SOL    HW284732   3.330   5.369   9.067
94279SOL     OW84733   4.446   6.206   8.134
94279SOL    HW184734   4.529   6.227   8.091
94279SOL    HW284735   4.380   6.255   8.084
94280SOL     OW84736  11.536   0.000   9.082
94280SOL    HW184737  11.460  14.811   9.072
94280SOL    HW284738  11.611  14.810   9.075
94281SOL     OW84739  10.397  11.667   2.525
94281SOL    HW184740  10.330  11.734   2.510
94281SOL    HW284741  10.457  11.676   2.451
94282SOL     OW84742   5.961  10.704   0.103
94282SOL    HW184743   5.920  10.634   0.153
94282SOL    HW284744   6.054  10.681   0.102
94283SOL     OW84745   4.257  12.069   8.755
94283SOL    HW184746   4.331  12.061   8.814
94283SOL    HW284747   4.267  11.997   8.693
94284SOL     OW84748   2.732   4.035  13.976
94284SOL    HW184749   2.827   4.021  13.977
94284SOL    HW284750   2.722   4.130  13.969
94285SOL     OW84751  12.965   2.811   2.194
94285SOL    HW184752  12.890   2.759   2.164
94285SOL    HW284753  13.015   2.829   2.115
94286SOL     OW84754   6.041  11.242  13.619
94286SOL    HW184755   5.981  11.193  13.563
94286SOL    HW284756   6.040  11.195  13.703
94287SOL     OW84757   2.585  11.950   4.418
94287SOL    HW184758   2.562  11.872   4.367
94287SOL    HW284759   2.638  12.003   4.358
94288SOL     OW84760  13.955   8.227   1.534
94288SOL    HW184761  13.911   8.180   1.605
94288SOL    HW284762  14.045   8.196   1.537
94289SOL     OW84763  10.876   3.987   4.472
94289SOL    HW184764  10.896   3.946   4.557
94289SOL    HW284765  10.958   4.029   4.446
94290SOL     OW84766   6.086   7.317   4.694
94290SOL    HW184767   6.044   7.301   4.779
94290SOL    HW284768   6.179   7.322   4.714
94291SOL     OW84769  10.292   4.444  11.129
94291SOL    HW184770  10.372   4.483  11.094
94291SOL    HW284771  10.296   4.458  11.223
94292SOL     OW84772   2.176  11.354   1.890
94292SOL    HW184773   2.186  11.274   1.942
94292SOL    HW284774   2.117  11.409   1.941
94293SOL     OW84775   2.414   1.452   7.225
94293SOL    HW184776   2.421   1.399   7.304
94293SOL    HW284777   2.342   1.513   7.244
94294SOL     OW84778  11.213   6.114   9.898
94294SOL    HW184779  11.170   6.035   9.868
94294SOL    HW284780  11.190   6.181   9.833
94295SOL     OW84781  13.289  11.666   2.380
94295SOL    HW184782  13.231  11.741   2.370
94295SOL    HW284783  13.377  11.704   2.380
94296SOL     OW84784   4.056  10.650  11.418
94296SOL    HW184785   4.114  10.578  11.394
94296SOL    HW284786   3.969  10.610  11.420
94297SOL     OW84787  13.825   1.003  13.475
94297SOL    HW184788  13.842   0.962  13.390
94297SOL    HW284789  13.802   1.094  13.453
94298SOL     OW84790   2.368   2.664   9.965
94298SOL    HW184791   2.319   2.692  10.042
94298SOL    HW284792   2.350   2.732   9.899
94299SOL     OW84793  10.086  13.515   3.722
94299SOL    HW184794  10.110  13.446   3.661
94299SOL    HW284795  10.120  13.485   3.806
94300SOL     OW84796   9.424  11.715   3.132
94300SOL    HW184797   9.430  11.801   3.090
94300SOL    HW284798   9.441  11.652   3.062
94301SOL     OW84799  11.947   0.702   5.827
94301SOL    HW184800  12.015   0.759   5.863
94301SOL    HW284801  11.879   0.761   5.797
94302SOL     OW84802  12.084   0.698  12.158
94302SOL    HW184803  12.139   0.774  12.175
94302SOL    HW284804  12.066   0.702  12.064
94303SOL     OW84805   7.058   2.774   4.017
94303SOL    HW184806   7.051   2.860   4.058
94303SOL    HW284807   7.148   2.771   3.985
94304SOL     OW84808   2.811   1.844   1.811
94304SOL    HW184809   2.800   1.815   1.901
94304SOL    HW284810   2.903   1.871   1.806
94305SOL     OW84811   3.766   5.707  14.312
94305SOL    HW184812   3.794   5.624  14.351
94305SOL    HW284813   3.840   5.766  14.326
94306SOL     OW84814  10.313   4.831   5.840
94306SOL    HW184815  10.284   4.743   5.866
94306SOL    HW284816  10.408   4.828   5.847
94307SOL     OW84817   1.478   9.631   0.129
94307SOL    HW184818   1.469   9.547   0.174
94307SOL    HW284819   1.402   9.682   0.159
94308SOL     OW84820  11.502   0.035  13.031
94308SOL    HW184821  11.507  14.845  13.107
94308SOL    HW284822  11.422   0.086  13.045
94309SOL     OW84823  10.536   4.361   7.985
94309SOL    HW184824  10.519   4.293   7.920
94309SOL    HW284825  10.559   4.313   8.065
94310SOL     OW84826   9.073  14.044   1.225
94310SOL    HW184827   9.154  13.992   1.224
94310SOL    HW284828   9.006  13.984   1.195
94311SOL     OW84829   4.271  13.190  11.474
94311SOL    HW184830   4.270  13.285  11.492
94311SOL    HW284831   4.255  13.150  11.559
94312SOL     OW84832  13.699   6.475  12.493
94312SOL    HW184833  13.792   6.456  12.504
94312SOL    HW284834  13.696   6.568  12.471
94313SOL     OW84835  11.443  14.822   7.716
94313SOL    HW184836  11.498  14.860   7.784
94313SOL    HW284837  11.395  14.752   7.760
94314SOL     OW84838   4.869   8.599   9.892
94314SOL    HW184839   4.959   8.629   9.878
94314SOL    HW284840   4.825   8.675   9.930
94315SOL     OW84841   6.405   5.596  13.836
94315SOL    HW184842   6.395   5.504  13.811
94315SOL    HW284843   6.443   5.638  13.759
94316SOL     OW84844  14.620  12.177   8.106
94316SOL    HW184845  14.623  12.161   8.012
94316SOL    HW284846  14.695  12.234   8.123
94317SOL     OW84847   9.430   0.038   3.782
94317SOL    HW184848   9.437   0.129   3.754
94317SOL    HW284849   9.477   0.034   3.865
94318SOL     OW84850  11.245  10.908   1.778
94318SOL    HW184851  11.171  10.961   1.752
94318SOL    HW284852  11.297  10.965   1.835
94319SOL     OW84853  10.621   5.171   9.602
94319SOL    HW184854  10.677   5.112   9.651
94319SOL    HW284855  10.677   5.246   9.582
94320SOL     OW84856   0.394  13.298   7.074
94320SOL    HW184857   0.347  13.377   7.099
94320SOL    HW284858   0.406  13.250   7.157
94321SOL     OW84859  13.959   2.905   3.555
94321SOL    HW184860  14.004   2.837   3.504
94321SOL    HW284861  14.013   2.983   3.544
94322SOL     OW84862  10.949   4.844   2.121
94322SOL    HW184863  10.867   4.852   2.170
94322SOL    HW284864  11.017   4.870   2.182
94323SOL     OW84865  11.928   4.491   0.295
94323SOL    HW184866  11.920   4.435   0.371
94323SOL    HW284867  11.839   4.526   0.282
94324SOL     OW84868   7.589   7.681   6.691
94324SOL    HW184869   7.604   7.747   6.759
94324SOL    HW284870   7.494   7.681   6.679
94325SOL     OW84871  13.636   7.725   4.573
94325SOL    HW184872  13.595   7.641   4.554
94325SOL    HW284873  13.700   7.705   4.642
94326SOL     OW84874   0.633   0.503   5.830
94326SOL    HW184875   0.621   0.520   5.736
94326SOL    HW284876   0.727   0.490   5.840
94327SOL     OW84877  12.122   1.907   5.631
94327SOL    HW184878  12.066   1.829   5.635
94327SOL    HW284879  12.093   1.961   5.705
94328SOL     OW84880   2.180   0.779   5.772
94328SOL    HW184881   2.187   0.824   5.856
94328SOL    HW284882   2.089   0.752   5.767
94329SOL     OW84883   4.977  14.012  14.717
94329SOL    HW184884   4.921  14.007  14.794
94329SOL    HW284885   5.014  13.924  14.708
94330SOL     OW84886   6.180   6.021   5.317
94330SOL    HW184887   6.107   6.082   5.301
94330SOL    HW284888   6.184   6.013   5.412
94331SOL     OW84889   4.209   2.906   8.859
94331SOL    HW184890   4.202   3.001   8.851
94331SOL    HW284891   4.125   2.874   8.826
94332SOL     OW84892   4.098  11.991   0.841
94332SOL    HW184893   4.179  12.017   0.884
94332SOL    HW284894   4.121  11.914   0.789
94333SOL     OW84895   9.040   8.873   9.871
94333SOL    HW184896   9.104   8.806   9.895
94333SOL    HW284897   9.082   8.923   9.801
94334SOL     OW84898   6.010  10.419   2.760
94334SOL    HW184899   6.062  10.481   2.709
94334SOL    HW284900   5.925  10.416   2.715
94335SOL     OW84901  13.313   1.034   8.236
94335SOL    HW184902  13.370   1.110   8.241
94335SOL    HW284903  13.270   1.041   8.150
94336SOL     OW84904   2.335   1.537  12.043
94336SOL    HW184905   2.288   1.485  11.979
94336SOL    HW284906   2.428   1.522  12.023
94337SOL     OW84907  12.373   4.669  11.912
94337SOL    HW184908  12.325   4.664  11.829
94337SOL    HW284909  12.320   4.728  11.966
94338SOL     OW84910  14.177   0.908  10.412
94338SOL    HW184911  14.188   1.002  10.397
94338SOL    HW284912  14.263   0.878  10.441
94339SOL     OW84913   9.899   9.578   3.326
94339SOL    HW184914   9.870   9.609   3.412
94339SOL    HW284915   9.828   9.602   3.266
94340SOL     OW84916  11.930  13.857   9.293
94340SOL    HW184917  11.838  13.871   9.316
94340SOL    HW284918  11.973  13.840   9.377
94341SOL     OW84919   7.234   6.330   9.576
94341SOL    HW184920   7.211   6.373   9.659
94341SOL    HW284921   7.308   6.381   9.543
94342SOL     OW84922   3.117   0.009  14.168
94342SOL    HW184923   3.141   0.055  14.249
94342SOL    HW284924   3.023   0.022  14.160
94343SOL     OW84925  14.265   6.581   8.677
94343SOL    HW184926  14.287   6.627   8.758
94343SOL    HW284927  14.188   6.528   8.699
94344SOL     OW84928  11.299   5.061   4.283
94344SOL    HW184929  11.283   5.143   4.236
94344SOL    HW284930  11.285   4.993   4.216
94345SOL     OW84931   6.127  10.100   0.313
94345SOL    HW184932   6.116  10.186   0.352
94345SOL    HW284933   6.054  10.048   0.349
94346SOL     OW84934   6.412   1.650   5.736
94346SOL    HW184935   6.481   1.663   5.801
94346SOL    HW284936   6.457   1.654   5.652
94347SOL     OW84937   7.158  12.183   5.079
94347SOL    HW184938   7.172  12.119   5.009
94347SOL    HW284939   7.199  12.263   5.046
94348SOL     OW84940   6.237  14.540   7.607
94348SOL    HW184941   6.200  14.560   7.521
94348SOL    HW284942   6.275  14.623   7.636
94349SOL     OW84943   4.506   3.959   8.005
94349SOL    HW184944   4.425   3.944   7.955
94349SOL    HW284945   4.521   3.878   8.052
94350SOL     OW84946   0.435  12.083   4.548
94350SOL    HW184947   0.439  11.995   4.511
94350SOL    HW284948   0.506  12.085   4.613
94351SOL     OW84949   6.848   9.828  10.003
94351SOL    HW184950   6.886   9.818  10.091
94351SOL    HW284951   6.778   9.891  10.015
94352SOL     OW84952   7.967  12.614   5.781
94352SOL    HW184953   7.978  12.524   5.813
94352SOL    HW284954   7.964  12.604   5.686
94353SOL     OW84955  12.849   4.006  11.523
94353SOL    HW184956  12.790   3.934  11.544
94353SOL    HW284957  12.874   3.991  11.432
94354SOL     OW84958  14.033  12.132   5.133
94354SOL    HW184959  13.997  12.058   5.182
94354SOL    HW284960  14.123  12.139   5.164
94355SOL     OW84961  11.299   2.610   9.766
94355SOL    HW184962  11.368   2.548   9.743
94355SOL    HW284963  11.338   2.666   9.833
94356SOL     OW84964  10.257   9.718  11.924
94356SOL    HW184965  10.171   9.754  11.943
94356SOL    HW284966  10.241   9.624  11.912
94357SOL     OW84967   6.007   0.104   0.310
94357SOL    HW184968   6.100   0.088   0.294
94357SOL    HW284969   5.964   0.084   0.227
94358SOL     OW84970   2.007   2.512   1.609
94358SOL    HW184971   2.084   2.482   1.659
94358SOL    HW284972   1.946   2.543   1.676
94359SOL     OW84973   7.779   3.078  10.918
94359SOL    HW184974   7.730   3.122  10.988
94359SOL    HW284975   7.869   3.079  10.949
94360SOL     OW84976  13.637   1.396   6.517
94360SOL    HW184977  13.643   1.420   6.424
94360SOL    HW284978  13.695   1.321   6.526
94361SOL     OW84979   4.016   2.087   7.233
94361SOL    HW184980   4.035   2.148   7.305
94361SOL    HW284981   4.086   2.023   7.236
94362SOL     OW84982  12.527   8.645   1.790
94362SOL    HW184983  12.460   8.578   1.804
94362SOL    HW284984  12.512   8.674   1.699
94363SOL     OW84985   8.975   3.599  14.506
94363SOL    HW184986   8.966   3.649  14.588
94363SOL    HW284987   8.886   3.568  14.487
94364SOL     OW84988   2.070  14.838  13.824
94364SOL    HW184989   2.018  14.763  13.854
94364SOL    HW284990   2.061   0.035  13.894
94365SOL     OW84991   7.669   9.712   9.637
94365SOL    HW184992   7.628   9.798   9.634
94365SOL    HW284993   7.647   9.672   9.552
94366SOL     OW84994   5.551   4.223   3.782
94366SOL    HW184995   5.490   4.168   3.733
94366SOL    HW284996   5.497   4.269   3.846
94367SOL     OW84997   5.587  14.613  14.544
94367SOL    HW184998   5.549  14.644  14.626
94367SOL    HW284999   5.665  14.667  14.532
94368SOL     OW85000  12.916   1.690  13.896
94368SOL    HW185001  12.821   1.701  13.903
94368SOL    HW285002  12.941   1.751  13.826
94369SOL     OW85003  13.840  10.895   5.950
94369SOL    HW185004  13.822  10.941   6.032
94369SOL    HW285005  13.891  10.818   5.977
94370SOL     OW85006  14.133   4.643   1.012
94370SOL    HW185007  14.075   4.580   1.054
94370SOL    HW285008  14.217   4.633   1.057
94371SOL     OW85009   0.584  10.432  13.373
94371SOL    HW185010   0.518  10.364  13.387
94371SOL    HW285011   0.666  10.394  13.402
94372SOL     OW85012   4.951   5.493   5.351
94372SOL    HW185013   4.954   5.560   5.284
94372SOL    HW285014   4.958   5.410   5.304
94373SOL     OW85015   7.836   7.140   2.749
94373SOL    HW185016   7.840   7.126   2.654
94373SOL    HW285017   7.853   7.054   2.787
94374SOL     OW85018  10.777   9.274  13.955
94374SOL    HW185019  10.734   9.355  13.930
94374SOL    HW285020  10.716   9.231  14.015
94375SOL     OW85021  11.105  12.513  11.491
94375SOL    HW185022  11.057  12.596  11.498
94375SOL    HW285023  11.195  12.539  11.469
94376SOL     OW85024   3.898   2.300   1.301
94376SOL    HW185025   3.907   2.207   1.322
94376SOL    HW285026   3.952   2.345   1.367
94377SOL     OW85027   5.034   4.292  12.265
94377SOL    HW185028   5.127   4.274  12.281
94377SOL    HW285029   5.014   4.245  12.184
94378SOL     OW85030  11.496  14.426  13.874
94378SOL    HW185031  11.460  14.350  13.919
94378SOL    HW285032  11.532  14.481  13.943
94379SOL     OW85033   0.288  13.191   8.062
94379SOL    HW185034   0.337  13.218   8.140
94379SOL    HW285035   0.295  13.096   8.061
94380SOL     OW85036  12.021  13.675   6.033
94380SOL    HW185037  12.036  13.630   6.116
94380SOL    HW285038  12.048  13.765   6.050
94381SOL     OW85039   6.616  13.269  14.135
94381SOL    HW185040   6.584  13.243  14.221
94381SOL    HW285041   6.567  13.215  14.074
94382SOL     OW85042   9.349   4.773   0.468
94382SOL    HW185043   9.367   4.854   0.421
94382SOL    HW285044   9.379   4.789   0.558
94383SOL     OW85045   2.434   2.182   8.360
94383SOL    HW185046   2.398   2.208   8.275
94383SOL    HW285047   2.445   2.264   8.407
94384SOL     OW85048   4.772   4.762   8.691
94384SOL    HW185049   4.776   4.823   8.765
94384SOL    HW285050   4.732   4.812   8.621
94385SOL     OW85051   8.359   4.287   5.914
94385SOL    HW185052   8.282   4.343   5.906
94385SOL    HW285053   8.420   4.320   5.848
94386SOL     OW85054  10.839  10.441   3.089
94386SOL    HW185055  10.896  10.424   3.164
94386SOL    HW285056  10.879  10.515   3.044
94387SOL     OW85057   4.636  12.720   1.114
94387SOL    HW185058   4.671  12.782   1.049
94387SOL    HW285059   4.711  12.700   1.170
94388SOL     OW85060   6.516  12.975   7.274
94388SOL    HW185061   6.519  12.964   7.179
94388SOL    HW285062   6.561  13.058   7.289
94389SOL     OW85063  11.006  10.110   7.901
94389SOL    HW185064  11.075  10.065   7.852
94389SOL    HW285065  11.053  10.173   7.955
94390SOL     OW85066  12.428   9.147   9.149
94390SOL    HW185067  12.430   9.218   9.213
94390SOL    HW285068  12.356   9.169   9.090
94391SOL     OW85069   2.781   0.017   8.288
94391SOL    HW185070   2.723   0.091   8.305
94391SOL    HW285071   2.776  14.831   8.367
94392SOL     OW85072   6.056  10.354   7.980
94392SOL    HW185073   6.146  10.348   8.014
94392SOL    HW285074   6.017  10.269   8.001
94393SOL     OW85075   5.955   5.116   2.582
94393SOL    HW185076   5.971   5.139   2.673
94393SOL    HW285077   5.965   5.198   2.534
94394SOL     OW85078   0.651   0.432   1.176
94394SOL    HW185079   0.641   0.393   1.262
94394SOL    HW285080   0.563   0.460   1.152
94395SOL     OW85081   6.282   4.639   9.257
94395SOL    HW185082   6.251   4.686   9.180
94395SOL    HW285083   6.273   4.702   9.329
94396SOL     OW85084   0.584   4.054   4.239
94396SOL    HW185085   0.645   3.983   4.253
94396SOL    HW285086   0.638   4.125   4.203
94397SOL     OW85087  13.914   5.907  13.055
94397SOL    HW185088  13.838   5.927  13.111
94397SOL    HW285089  13.923   5.985  13.000
94398SOL     OW85090   7.948   9.747   1.458
94398SOL    HW185091   7.873   9.805   1.467
94398SOL    HW285092   8.024   9.804   1.462
94399SOL     OW85093   9.168   8.878   0.267
94399SOL    HW185094   9.148   8.971   0.255
94399SOL    HW285095   9.264   8.874   0.265
94400SOL     OW85096  11.525   5.714   7.706
94400SOL    HW185097  11.585   5.676   7.642
94400SOL    HW285098  11.513   5.805   7.677
94401SOL     OW85099   9.906   4.120   7.709
94401SOL    HW185100   9.925   4.212   7.693
94401SOL    HW285101   9.977   4.091   7.766
94402SOL     OW85102   6.487   5.141   4.874
94402SOL    HW185103   6.450   5.189   4.948
94402SOL    HW285104   6.535   5.068   4.914
94403SOL     OW85105   4.244  13.124   2.018
94403SOL    HW185106   4.235  13.062   2.090
94403SOL    HW285107   4.257  13.209   2.061
94404SOL     OW85108   2.469   4.921  11.728
94404SOL    HW185109   2.515   4.977  11.666
94404SOL    HW285110   2.395   4.973  11.759
94405SOL     OW85111  14.171   3.184   6.538
94405SOL    HW185112  14.159   3.093   6.512
94405SOL    HW285113  14.138   3.235   6.463
94406SOL     OW85114  13.437   8.624  14.083
94406SOL    HW185115  13.510   8.680  14.054
94406SOL    HW285116  13.461   8.600  14.173
94407SOL     OW85117   4.181  11.465  14.349
94407SOL    HW185118   4.167  11.393  14.288
94407SOL    HW285119   4.093  11.490  14.377
94408SOL     OW85120  10.446  10.741   2.322
94408SOL    HW185121  10.454  10.748   2.417
94408SOL    HW285122  10.361  10.780   2.302
94409SOL     OW85123  10.061   8.787   2.895
94409SOL    HW185124  10.025   8.719   2.839
94409SOL    HW285125  10.120   8.741   2.955
94410SOL     OW85126  11.698  11.395  10.618
94410SOL    HW185127  11.719  11.356  10.703
94410SOL    HW285128  11.637  11.334  10.578
94411SOL     OW85129   6.059   7.054  14.187
94411SOL    HW185130   6.028   7.008  14.265
94411SOL    HW285131   6.002   7.022  14.117
94412SOL     OW85132  14.736  11.308   6.423
94412SOL    HW185133  14.747  11.229   6.476
94412SOL    HW285134  14.732  11.379   6.486
94413SOL     OW85135   1.245  13.949   9.330
94413SOL    HW185136   1.195  14.027   9.307
94413SOL    HW285137   1.229  13.937   9.424
94414SOL     OW85138   8.991   8.938   9.162
94414SOL    HW185139   9.013   8.901   9.077
94414SOL    HW285140   9.060   9.003   9.178
94415SOL     OW85141   6.389   6.035  10.262
94415SOL    HW185142   6.318   6.092  10.231
94415SOL    HW285143   6.429   6.003  10.181
94416SOL     OW85144  12.281  10.285   3.951
94416SOL    HW185145  12.237  10.248   4.028
94416SOL    HW285146  12.361  10.323   3.986
94417SOL     OW85147   8.328  11.140   6.024
94417SOL    HW185148   8.420  11.162   6.037
94417SOL    HW285149   8.315  11.059   6.072
94418SOL     OW85150   1.606   4.112   1.627
94418SOL    HW185151   1.668   4.040   1.636
94418SOL    HW285152   1.633   4.175   1.693
94419SOL     OW85153   5.256   8.851   4.478
94419SOL    HW185154   5.170   8.822   4.509
94419SOL    HW285155   5.298   8.888   4.555
94420SOL     OW85156   0.022  12.321   2.118
94420SOL    HW185157  14.857  12.326   2.028
94420SOL    HW285158  14.812  12.324   2.172
94421SOL     OW85159   0.576   2.143   4.930
94421SOL    HW185160   0.625   2.223   4.915
94421SOL    HW285161   0.546   2.116   4.844
94422SOL     OW85162  12.831   7.286   6.115
94422SOL    HW185163  12.897   7.253   6.177
94422SOL    HW285164  12.773   7.340   6.169
94423SOL     OW85165   2.899  13.988  12.649
94423SOL    HW185166   2.930  13.973  12.738
94423SOL    HW285167   2.895  13.901  12.609
94424SOL     OW85168  13.075  10.662  11.503
94424SOL    HW185169  12.981  10.674  11.516
94424SOL    HW285170  13.108  10.751  11.488
94425SOL     OW85171   6.870  11.509   0.384
94425SOL    HW185172   6.827  11.577   0.436
94425SOL    HW285173   6.831  11.518   0.297
94426SOL     OW85174   4.013  11.669   3.164
94426SOL    HW185175   3.933  11.636   3.204
94426SOL    HW285176   3.996  11.668   3.070
94427SOL     OW85177   6.545   5.439   1.315
94427SOL    HW185178   6.620   5.448   1.257
94427SOL    HW285179   6.567   5.366   1.372
94428SOL     OW85180   5.784  10.606   8.616
94428SOL    HW185181   5.749  10.626   8.530
94428SOL    HW285182   5.874  10.639   8.613
94429SOL     OW85183   9.189  12.406   5.260
94429SOL    HW185184   9.225  12.438   5.177
94429SOL    HW285185   9.264  12.368   5.305
94430SOL     OW85186   9.689  11.915  13.691
94430SOL    HW185187   9.656  11.833  13.655
94430SOL    HW285188   9.721  11.964  13.616
94431SOL     OW85189   9.347  12.372   4.515
94431SOL    HW185190   9.331  12.456   4.559
94431SOL    HW285191   9.316  12.306   4.577
94432SOL     OW85192   4.356   2.466  11.106
94432SOL    HW185193   4.390   2.388  11.149
94432SOL    HW285194   4.431   2.502  11.058
94433SOL     OW85195   8.779  10.477  13.719
94433SOL    HW185196   8.768  10.541  13.648
94433SOL    HW285197   8.690  10.460  13.750
94434SOL     OW85198   6.208   1.999   7.500
94434SOL    HW185199   6.188   1.988   7.407
94434SOL    HW285200   6.170   2.084   7.522
94435SOL     OW85201  13.568   5.744  14.243
94435SOL    HW185202  13.483   5.783  14.223
94435SOL    HW285203  13.566   5.660  14.197
94436SOL     OW85204   1.563   5.378   4.564
94436SOL    HW185205   1.526   5.381   4.653
94436SOL    HW285206   1.647   5.333   4.575
94437SOL     OW85207   0.372  14.009   4.604
94437SOL    HW185208   0.426  14.087   4.615
94437SOL    HW285209   0.387  13.958   4.683
94438SOL     OW85210  10.148   7.144   7.703
94438SOL    HW185211  10.070   7.088   7.703
94438SOL    HW285212  10.220   7.085   7.723
94439SOL     OW85213   8.280   9.300   8.119
94439SOL    HW185214   8.185   9.288   8.120
94439SOL    HW285215   8.315   9.213   8.138
94440SOL     OW85216   1.149   7.974   8.078
94440SOL    HW185217   1.181   7.985   8.167
94440SOL    HW285218   1.155   7.879   8.062
94441SOL     OW85219   8.011   4.268  13.242
94441SOL    HW185220   8.023   4.237  13.152
94441SOL    HW285221   8.100   4.277  13.276
94442SOL     OW85222   5.369   2.965  14.049
94442SOL    HW185223   5.426   3.014  14.108
94442SOL    HW285224   5.280   2.993  14.072
94443SOL     OW85225   0.656   5.449   2.256
94443SOL    HW185226   0.649   5.417   2.166
94443SOL    HW285227   0.568   5.483   2.275
94444SOL     OW85228  14.108   8.281   5.429
94444SOL    HW185229  14.023   8.273   5.474
94444SOL    HW285230  14.122   8.375   5.421
94445SOL     OW85231  14.047  13.945  10.177
94445SOL    HW185232  14.028  13.854  10.203
94445SOL    HW285233  13.966  13.992  10.196
94446SOL     OW85234  12.436   1.369  10.023
94446SOL    HW185235  12.494   1.375   9.946
94446SOL    HW285236  12.468   1.437  10.082
94447SOL     OW85237   3.893  14.043  11.224
94447SOL    HW185238   3.943  13.991  11.161
94447SOL    HW285239   3.879  14.127  11.180
94448SOL     OW85240  10.542   5.721   3.022
94448SOL    HW185241  10.522   5.633   3.055
94448SOL    HW285242  10.465   5.745   2.970
94449SOL     OW85243   3.775   7.730  12.667
94449SOL    HW185244   3.799   7.716  12.759
94449SOL    HW285245   3.682   7.751  12.670
94450SOL     OW85246   5.804   1.083   6.978
94450SOL    HW185247   5.782   1.013   7.040
94450SOL    HW285248   5.755   1.159   7.008
94451SOL     OW85249   6.982  12.634   4.235
94451SOL    HW185250   6.960  12.604   4.323
94451SOL    HW285251   7.071  12.602   4.219
94452SOL     OW85252   9.771   2.523  12.936
94452SOL    HW185253   9.736   2.458  12.997
94452SOL    HW285254   9.805   2.472  12.863
94453SOL     OW85255   6.678   0.266  13.150
94453SOL    HW185256   6.654   0.347  13.195
94453SOL    HW285257   6.623   0.199  13.190
94454SOL     OW85258   6.548   3.506  11.363
94454SOL    HW185259   6.461   3.539  11.341
94454SOL    HW285260   6.604   3.536  11.291
94455SOL     OW85261  11.256  11.209   1.516
94455SOL    HW185262  11.244  11.225   1.609
94455SOL    HW285263  11.319  11.276   1.488
94456SOL     OW85264   9.867   0.096   8.634
94456SOL    HW185265   9.942   0.110   8.692
94456SOL    HW285266   9.863   0.002   8.622
94457SOL     OW85267  14.650  11.368   3.712
94457SOL    HW185268  14.672  11.438   3.775
94457SOL    HW285269  14.555  11.371   3.706
94458SOL     OW85270  14.694   1.981   9.561
94458SOL    HW185271  14.772   1.926   9.567
94458SOL    HW285272  14.662   1.968   9.472
94459SOL     OW85273   6.355  11.361   2.952
94459SOL    HW185274   6.293  11.324   2.889
94459SOL    HW285275   6.301  11.409   3.014
94460SOL     OW85276   4.202  11.090   0.189
94460SOL    HW185277   4.144  11.016   0.206
94460SOL    HW285278   4.238  11.073   0.102
94461SOL     OW85279  12.023   0.569  11.025
94461SOL    HW185280  12.061   0.484  11.047
94461SOL    HW285281  11.943   0.574  11.077
94462SOL     OW85282   1.697   8.864   2.565
94462SOL    HW185283   1.612   8.865   2.521
94462SOL    HW285284   1.679   8.831   2.653
94463SOL     OW85285   2.614  11.205   5.117
94463SOL    HW185286   2.574  11.246   5.194
94463SOL    HW285287   2.668  11.275   5.078
94464SOL     OW85288  13.278   4.441   4.901
94464SOL    HW185289  13.251   4.463   4.812
94464SOL    HW285290  13.348   4.503   4.921
94465SOL     OW85291   4.969  11.068   9.491
94465SOL    HW185292   5.004  11.112   9.568
94465SOL    HW285293   4.891  11.118   9.467
94466SOL     OW85294  13.048  12.952   2.726
94466SOL    HW185295  12.975  13.011   2.705
94466SOL    HW285296  13.118  12.979   2.667
94467SOL     OW85297   9.728   0.145   6.951
94467SOL    HW185298   9.667   0.194   7.007
94467SOL    HW285299   9.681   0.065   6.928
94468SOL     OW85300  12.328   7.068   6.409
94468SOL    HW185301  12.282   7.046   6.328
94468SOL    HW285302  12.360   7.157   6.395
94469SOL     OW85303  13.405   2.545   9.317
94469SOL    HW185304  13.326   2.581   9.357
94469SOL    HW285305  13.437   2.616   9.260
94470SOL     OW85306  11.016   8.484   0.539
94470SOL    HW185307  11.094   8.480   0.595
94470SOL    HW285308  11.016   8.574   0.505
94471SOL     OW85309  11.185   1.673   0.467
94471SOL    HW185310  11.274   1.639   0.476
94471SOL    HW285311  11.192   1.766   0.488
94472SOL     OW85312   3.631  11.660   2.455
94472SOL    HW185313   3.600  11.577   2.490
94472SOL    HW285314   3.725  11.647   2.441
94473SOL     OW85315   8.684  13.408   7.101
94473SOL    HW185316   8.687  13.458   7.020
94473SOL    HW285317   8.775  13.404   7.131
94474SOL     OW85318  10.304  13.005  13.644
94474SOL    HW185319  10.283  13.097  13.663
94474SOL    HW285320  10.238  12.978  13.580
94475SOL     OW85321  14.614   1.287  11.787
94475SOL    HW185322  14.537   1.325  11.829
94475SOL    HW285323  14.609   1.194  11.806
94476SOL     OW85324   3.272  11.686   3.514
94476SOL    HW185325   3.268  11.651   3.603
94476SOL    HW285326   3.325  11.622   3.465
94477SOL     OW85327   2.727   1.828   8.886
94477SOL    HW185328   2.700   1.808   8.796
94477SOL    HW285329   2.821   1.812   8.888
94478SOL     OW85330  14.710  12.328   6.664
94478SOL    HW185331  14.733  12.273   6.739
94478SOL    HW285332  14.615  12.332   6.665
94479SOL     OW85333   8.920  11.867  13.765
94479SOL    HW185334   9.010  11.892  13.785
94479SOL    HW285335   8.890  11.821  13.843
94480SOL     OW85336   5.242  11.756   1.229
94480SOL    HW185337   5.206  11.845   1.226
94480SOL    HW285338   5.289  11.747   1.147
94481SOL     OW85339  11.810   0.095   9.962
94481SOL    HW185340  11.824   0.031   9.893
94481SOL    HW285341  11.790   0.177   9.916
94482SOL     OW85342  12.291   6.779   3.736
94482SOL    HW185343  12.353   6.842   3.700
94482SOL    HW285344  12.213   6.788   3.682
94483SOL     OW85345   4.141   2.476   5.147
94483SOL    HW185346   4.119   2.418   5.220
94483SOL    HW285347   4.236   2.486   5.153
94484SOL     OW85348   6.097  12.378  12.479
94484SOL    HW185349   6.076  12.289  12.505
94484SOL    HW285350   6.166  12.369  12.414
94485SOL     OW85351   7.712   1.661   9.050
94485SOL    HW185352   7.735   1.593   8.987
94485SOL    HW285353   7.710   1.616   9.135
94486SOL     OW85354   9.376   7.173   1.093
94486SOL    HW185355   9.391   7.255   1.047
94486SOL    HW285356   9.312   7.126   1.039
94487SOL     OW85357   0.671  14.094   3.239
94487SOL    HW185358   0.727  14.127   3.169
94487SOL    HW285359   0.621  14.170   3.268
94488SOL     OW85360   0.683  14.145  12.751
94488SOL    HW185361   0.631  14.134  12.671
94488SOL    HW285362   0.664  14.234  12.780
94489SOL     OW85363  14.433   2.199  10.485
94489SOL    HW185364  14.490   2.152  10.545
94489SOL    HW285365  14.366   2.135  10.460
94490SOL     OW85366   4.779   3.166   0.956
94490SOL    HW185367   4.833   3.241   0.978
94490SOL    HW285368   4.703   3.203   0.911
94491SOL     OW85369  12.566   3.054  14.311
94491SOL    HW185370  12.530   2.980  14.262
94491SOL    HW285371  12.601   3.113  14.243
94492SOL     OW85372   1.517   8.949   3.770
94492SOL    HW185373   1.571   8.924   3.694
94492SOL    HW285374   1.430   8.914   3.749
94493SOL     OW85375   8.552  13.987   7.255
94493SOL    HW185376   8.510  14.047   7.193
94493SOL    HW285377   8.638  13.969   7.216
94494SOL     OW85378   9.373   2.660  12.661
94494SOL    HW185379   9.425   2.700  12.591
94494SOL    HW285380   9.418   2.686  12.742
94495SOL     OW85381  10.934   1.535  10.456
94495SOL    HW185382  10.877   1.498  10.523
94495SOL    HW285383  10.889   1.519  10.373
94496SOL     OW85384  13.471   9.165  11.331
94496SOL    HW185385  13.465   9.253  11.370
94496SOL    HW285386  13.501   9.180  11.242
94497SOL     OW85387   5.472   0.132  12.529
94497SOL    HW185388   5.388   0.086  12.538
94497SOL    HW285389   5.531   0.083  12.586
94498SOL     OW85390   9.344   0.481   1.082
94498SOL    HW185391   9.309   0.398   1.050
94498SOL    HW285392   9.429   0.490   1.039
94499SOL     OW85393   0.141   4.415   4.676
94499SOL    HW185394   0.233   4.432   4.659
94499SOL    HW285395   0.103   4.400   4.589
94500SOL     OW85396   1.848   2.990   7.572
94500SOL    HW185397   1.813   3.018   7.488
94500SOL    HW285398   1.943   2.992   7.561
94501SOL     OW85399   4.624   3.435   8.160
94501SOL    HW185400   4.716   3.410   8.167
94501SOL    HW285401   4.589   3.423   8.249
94502SOL     OW85402  12.114   7.507   3.485
94502SOL    HW185403  12.134   7.471   3.399
94502SOL    HW285404  12.057   7.441   3.525
94503SOL     OW85405   2.407   8.640   5.447
94503SOL    HW185406   2.424   8.616   5.356
94503SOL    HW285407   2.412   8.736   5.448
94504SOL     OW85408  13.871   0.568   6.350
94504SOL    HW185409  13.799   0.507   6.369
94504SOL    HW285410  13.879   0.621   6.430
94505SOL     OW85411   0.016   4.436   2.578
94505SOL    HW185412   0.103   4.453   2.542
94505SOL    HW285413  14.829   4.505   2.543
94506SOL     OW85414   5.497   2.302   5.107
94506SOL    HW185415   5.451   2.314   5.190
94506SOL    HW285416   5.485   2.209   5.087
94507SOL     OW85417   2.654   9.824  10.965
94507SOL    HW185418   2.701   9.881  10.904
94507SOL    HW285419   2.649   9.740  10.920
94508SOL     OW85420   6.453  13.409  13.646
94508SOL    HW185421   6.426  13.495  13.614
94508SOL    HW285422   6.425  13.349  13.578
94509SOL     OW85423   3.023   5.456   0.490
94509SOL    HW185424   2.996   5.373   0.452
94509SOL    HW285425   2.948   5.485   0.542
94510SOL     OW85426   5.633   1.745   3.385
94510SOL    HW185427   5.586   1.724   3.304
94510SOL    HW285428   5.725   1.753   3.358
94511SOL     OW85429   4.555   1.506   4.127
94511SOL    HW185430   4.462   1.504   4.150
94511SOL    HW285431   4.598   1.549   4.201
94512SOL     OW85432   2.574   0.963  10.761
94512SOL    HW185433   2.601   0.894  10.700
94512SOL    HW285434   2.544   1.034  10.704
94513SOL     OW85435   9.386   8.406   9.508
94513SOL    HW185436   9.389   8.469   9.580
94513SOL    HW285437   9.388   8.460   9.429
94514SOL     OW85438   2.584   2.592   3.776
94514SOL    HW185439   2.520   2.628   3.714
94514SOL    HW285440   2.567   2.640   3.858
94515SOL     OW85441  11.339   1.972   6.856
94515SOL    HW185442  11.273   2.024   6.902
94515SOL    HW285443  11.365   2.027   6.782
94516SOL     OW85444  14.798  13.377   1.471
94516SOL    HW185445   0.005  13.336   1.515
94516SOL    HW285446  14.810  13.356   1.378
94517SOL     OW85447   2.838   9.526   4.851
94517SOL    HW185448   2.858   9.618   4.870
94517SOL    HW285449   2.898   9.502   4.781
94518SOL     OW85450   0.700   2.217   3.950
94518SOL    HW185451   0.704   2.134   3.998
94518SOL    HW285452   0.617   2.214   3.903
94519SOL     OW85453   3.702   9.171   4.395
94519SOL    HW185454   3.741   9.085   4.411
94519SOL    HW285455   3.740   9.200   4.312
94520SOL     OW85456   3.109   0.188   7.982
94520SOL    HW185457   3.198   0.155   7.992
94520SOL    HW285458   3.119   0.282   7.972
94521SOL     OW85459   3.582   4.214   6.295
94521SOL    HW185460   3.676   4.198   6.296
94521SOL    HW285461   3.572   4.293   6.241
94522SOL     OW85462  10.924   5.036   2.838
94522SOL    HW185463  10.982   4.975   2.883
94522SOL    HW285464  10.838   4.994   2.840
94523SOL     OW85465  14.281  11.460   0.305
94523SOL    HW185466  14.359  11.408   0.327
94523SOL    HW285467  14.266  11.514   0.383
94524SOL     OW85468  11.310   6.661  10.115
94524SOL    HW185469  11.386   6.641  10.060
94524SOL    HW285470  11.253   6.714  10.059
94525SOL     OW85471  12.367   0.852   9.506
94525SOL    HW185472  12.386   0.780   9.566
94525SOL    HW285473  12.276   0.875   9.525
94526SOL     OW85474  11.879   2.011   1.928
94526SOL    HW185475  11.861   1.985   2.018
94526SOL    HW285476  11.947   1.950   1.899
94527SOL     OW85477  13.668   9.631   2.526
94527SOL    HW185478  13.615   9.618   2.447
94527SOL    HW285479  13.758   9.635   2.493
94528SOL     OW85480   8.717  11.290  10.823
94528SOL    HW185481   8.622  11.280  10.825
94528SOL    HW285482   8.734  11.367  10.877
94529SOL     OW85483  10.405   5.859   9.649
94529SOL    HW185484  10.319   5.858   9.608
94529SOL    HW285485  10.388   5.834   9.740
94530SOL     OW85486   6.252  13.840  13.275
94530SOL    HW185487   6.256  13.934  13.294
94530SOL    HW285488   6.163  13.825  13.245
94531SOL     OW85489   4.912  14.198   0.868
94531SOL    HW185490   5.007  14.202   0.874
94531SOL    HW285491   4.881  14.259   0.934
94532SOL     OW85492   4.512   2.784  11.628
94532SOL    HW185493   4.518   2.859  11.569
94532SOL    HW285494   4.447   2.810  11.694
94533SOL     OW85495   8.958   0.791  12.037
94533SOL    HW185496   8.970   0.724  11.969
94533SOL    HW285497   9.042   0.795  12.082
94534SOL     OW85498  13.926   7.964   6.281
94534SOL    HW185499  13.991   7.998   6.343
94534SOL    HW285500  13.876   8.040   6.255
94535SOL     OW85501  12.556  12.561   6.651
94535SOL    HW185502  12.608  12.482   6.668
94535SOL    HW285503  12.618  12.633   6.660
94536SOL     OW85504   9.665   3.241   7.381
94536SOL    HW185505   9.686   3.334   7.376
94536SOL    HW285506   9.598   3.228   7.314
94537SOL     OW85507  10.935   6.043   2.999
94537SOL    HW185508  10.968   5.962   3.038
94537SOL    HW285509  10.956   6.110   3.064
94538SOL     OW85510   4.822   5.136   4.795
94538SOL    HW185511   4.772   5.087   4.860
94538SOL    HW285512   4.879   5.071   4.754
94539SOL     OW85513  13.367   1.661   9.459
94539SOL    HW185514  13.382   1.701   9.544
94539SOL    HW285515  13.281   1.693   9.432
94540SOL     OW85516   7.334   6.909   3.698
94540SOL    HW185517   7.361   6.819   3.717
94540SOL    HW285518   7.273   6.931   3.768
94541SOL     OW85519   3.495   1.266   4.675
94541SOL    HW185520   3.482   1.231   4.763
94541SOL    HW285521   3.561   1.209   4.636
94542SOL     OW85522  13.112   2.790   7.418
94542SOL    HW185523  13.141   2.849   7.487
94542SOL    HW285524  13.036   2.745   7.456
94543SOL     OW85525   4.737   1.962   1.764
94543SOL    HW185526   4.748   1.881   1.715
94543SOL    HW285527   4.820   2.009   1.752
94544SOL     OW85528   6.928   0.150  11.262
94544SOL    HW185529   6.851   0.182  11.214
94544SOL    HW285530   6.941   0.215  11.331
94545SOL     OW85531  12.213   2.089   4.586
94545SOL    HW185532  12.254   2.161   4.539
94545SOL    HW285533  12.269   2.075   4.663
94546SOL     OW85534  13.538  14.193  11.192
94546SOL    HW185535  13.535  14.288  11.190
94546SOL    HW285536  13.456  14.165  11.152
94547SOL     OW85537   9.194   4.889  13.195
94547SOL    HW185538   9.132   4.915  13.127
94547SOL    HW285539   9.245   4.818  13.155
94548SOL     OW85540   4.693   7.774   7.372
94548SOL    HW185541   4.662   7.834   7.304
94548SOL    HW285542   4.788   7.776   7.365
94549SOL     OW85543   5.797  11.432   7.000
94549SOL    HW185544   5.743  11.507   6.974
94549SOL    HW285545   5.798  11.376   6.923
94550SOL     OW85546   8.269  11.060   1.859
94550SOL    HW185547   8.226  11.001   1.797
94550SOL    HW285548   8.235  11.147   1.838
94551SOL     OW85549   7.370   1.903   5.309
94551SOL    HW185550   7.358   1.998   5.305
94551SOL    HW285551   7.400   1.880   5.221
94552SOL     OW85552  10.247   2.353  12.469
94552SOL    HW185553  10.176   2.404  12.506
94552SOL    HW285554  10.311   2.345  12.539
94553SOL     OW85555  12.037  14.252   6.993
94553SOL    HW185556  12.080  14.168   6.984
94553SOL    HW285557  12.008  14.255   7.085
94554SOL     OW85558   4.231  10.961  13.369
94554SOL    HW185559   4.298  10.958  13.437
94554SOL    HW285560   4.275  10.999  13.293
94555SOL     OW85561   7.422   8.143   1.515
94555SOL    HW185562   7.330   8.159   1.495
94555SOL    HW285563   7.420   8.070   1.577
94556SOL     OW85564  11.302  13.073   6.745
94556SOL    HW185565  11.330  13.070   6.836
94556SOL    HW285566  11.368  13.022   6.698
94557SOL     OW85567   2.861   8.484  13.367
94557SOL    HW185568   2.951   8.487  13.336
94557SOL    HW285569   2.841   8.391  13.373
94558SOL     OW85570  11.394  12.973   9.671
94558SOL    HW185571  11.320  12.919   9.698
94558SOL    HW285572  11.446  12.916   9.614
94559SOL     OW85573   6.479   5.080  11.152
94559SOL    HW185574   6.409   5.120  11.101
94559SOL    HW285575   6.500   5.145  11.219
94560SOL     OW85576  10.107   3.874   2.182
94560SOL    HW185577  10.147   3.959   2.202
94560SOL    HW285578  10.035   3.867   2.245
94561SOL     OW85579   0.382   6.038  10.691
94561SOL    HW185580   0.374   5.950  10.725
94561SOL    HW285581   0.292   6.069  10.681
94562SOL     OW85582   4.614  12.617   1.407
94562SOL    HW185583   4.642  12.532   1.372
94562SOL    HW285584   4.519  12.619   1.392
94563SOL     OW85585   4.436   0.553  11.264
94563SOL    HW185586   4.459   0.584  11.351
94563SOL    HW285587   4.399   0.629  11.220
94564SOL     OW85588  10.907  12.708   1.148
94564SOL    HW185589  10.977  12.770   1.168
94564SOL    HW285590  10.827  12.750   1.181
94565SOL     OW85591   9.402   5.440  12.243
94565SOL    HW185592   9.487   5.395  12.250
94565SOL    HW285593   9.382   5.438  12.149
94566SOL     OW85594   4.102  12.173  12.831
94566SOL    HW185595   4.050  12.167  12.910
94566SOL    HW285596   4.080  12.258  12.794
94567SOL     OW85597   7.446  10.107   1.709
94567SOL    HW185598   7.524  10.085   1.758
94567SOL    HW285599   7.386  10.035   1.725
94568SOL     OW85600   0.067   4.218   7.667
94568SOL    HW185601   0.038   4.178   7.585
94568SOL    HW285602   0.124   4.152   7.706
94569SOL     OW85603   3.733   9.741   2.963
94569SOL    HW185604   3.741   9.798   3.039
94569SOL    HW285605   3.718   9.800   2.889
94570SOL     OW85606   3.156   7.133   5.556
94570SOL    HW185607   3.082   7.194   5.549
94570SOL    HW285608   3.143   7.090   5.641
94571SOL     OW85609  13.733  14.405   9.518
94571SOL    HW185610  13.662  14.352   9.554
94571SOL    HW285611  13.706  14.495   9.535
94572SOL     OW85612   6.258   2.533   9.085
94572SOL    HW185613   6.285   2.458   9.139
94572SOL    HW285614   6.227   2.598   9.147
94573SOL     OW85615  11.540   6.270  12.487
94573SOL    HW185616  11.456   6.313  12.507
94573SOL    HW285617  11.571   6.316  12.408
94574SOL     OW85618  12.838  13.044   5.006
94574SOL    HW185619  12.905  12.976   4.992
94574SOL    HW285620  12.875  13.122   4.965
94575SOL     OW85621   9.589   4.104   7.657
94575SOL    HW185622   9.680   4.113   7.687
94575SOL    HW285623   9.559   4.193   7.644
94576SOL     OW85624   9.838  12.661   0.988
94576SOL    HW185625   9.784  12.740   0.993
94576SOL    HW285626   9.808  12.616   0.909
94577SOL     OW85627  14.489   8.455   9.920
94577SOL    HW185628  14.407   8.502   9.908
94577SOL    HW285629  14.475   8.402   9.998
94578SOL     OW85630  12.378  14.204   5.227
94578SOL    HW185631  12.349  14.192   5.318
94578SOL    HW285632  12.299  14.189   5.175
94579SOL     OW85633  12.618   4.143  14.290
94579SOL    HW185634  12.691   4.157  14.230
94579SOL    HW285635  12.659   4.141  14.377
94580SOL     OW85636  10.891  14.465  11.767
94580SOL    HW185637  10.814  14.510  11.732
94580SOL    HW285638  10.856  14.402  11.830
94581SOL     OW85639   0.147   9.598   4.380
94581SOL    HW185640   0.242   9.581   4.377
94581SOL    HW285641   0.138   9.686   4.344
94582SOL     OW85642   6.106   8.918  10.177
94582SOL    HW185643   6.075   8.944  10.090
94582SOL    HW285644   6.145   8.831  10.164
94583SOL     OW85645  10.852  14.197   4.284
94583SOL    HW185646  10.783  14.222   4.346
94583SOL    HW285647  10.853  14.268   4.220
94584SOL     OW85648   7.767  13.734  11.817
94584SOL    HW185649   7.693  13.762  11.871
94584SOL    HW285650   7.832  13.703  11.880
94585SOL     OW85651   4.483  11.911   1.471
94585SOL    HW185652   4.449  12.001   1.479
94585SOL    HW285653   4.578  11.922   1.461
94586SOL     OW85654   4.175   9.177  14.628
94586SOL    HW185655   4.267   9.204  14.627
94586SOL    HW285656   4.152   9.175  14.721
94587SOL     OW85657   7.046   6.824  12.494
94587SOL    HW185658   7.016   6.871  12.571
94587SOL    HW285659   7.123   6.873  12.463
94588SOL     OW85660  12.523   8.750   7.525
94588SOL    HW185661  12.562   8.730   7.610
94588SOL    HW285662  12.480   8.670   7.498
94589SOL     OW85663   0.004   8.566  11.633
94589SOL    HW185664   0.072   8.499  11.625
94589SOL    HW285665  14.797   8.529  11.585
94590SOL     OW85666   2.153   7.561   4.053
94590SOL    HW185667   2.248   7.561   4.044
94590SOL    HW285668   2.125   7.641   4.008
94591SOL     OW85669  10.739   7.800  10.760
94591SOL    HW185670  10.801   7.834  10.825
94591SOL    HW285671  10.715   7.876  10.707
94592SOL     OW85672   3.005   7.432   3.633
94592SOL    HW185673   3.036   7.379   3.560
94592SOL    HW285674   2.971   7.369   3.696
94593SOL     OW85675   2.141  13.765   5.196
94593SOL    HW185676   2.163  13.778   5.288
94593SOL    HW285677   2.104  13.677   5.192
94594SOL     OW85678   7.700   4.908   1.932
94594SOL    HW185679   7.614   4.896   1.972
94594SOL    HW285680   7.761   4.868   1.994
94595SOL     OW85681   9.822   7.891   7.427
94595SOL    HW185682   9.822   7.797   7.410
94595SOL    HW285683   9.874   7.902   7.506
94596SOL     OW85684   3.770  12.485  14.209
94596SOL    HW185685   3.850  12.535  14.199
94596SOL    HW285686   3.744  12.500  14.300
94597SOL     OW85687   1.203   3.967   4.020
94597SOL    HW185688   1.180   3.881   4.055
94597SOL    HW285689   1.170   4.030   4.084
94598SOL     OW85690   0.025   2.298   8.384
94598SOL    HW185691   0.010   2.392   8.393
94598SOL    HW285692   0.091   2.278   8.450
94599SOL     OW85693   7.418   6.199   8.818
94599SOL    HW185694   7.342   6.257   8.816
94599SOL    HW285695   7.431   6.181   8.911
94600SOL     OW85696  13.487   8.974   8.319
94600SOL    HW185697  13.523   8.885   8.314
94600SOL    HW285698  13.495   9.009   8.231
94601SOL     OW85699  13.941   9.920   5.684
94601SOL    HW185700  14.013   9.979   5.705
94601SOL    HW285701  13.974   9.865   5.613
94602SOL     OW85702   2.899   1.128   0.877
94602SOL    HW185703   2.868   1.218   0.890
94602SOL    HW285704   2.846   1.076   0.937
94603SOL     OW85705  11.789   1.558  14.433
94603SOL    HW185706  11.851   1.560  14.361
94603SOL    HW285707  11.837   1.519  14.506
94604SOL     OW85708   0.325  10.634  10.285
94604SOL    HW185709   0.282  10.687  10.352
94604SOL    HW285710   0.352  10.554  10.331
94605SOL     OW85711  10.637   9.366   7.682
94605SOL    HW185712  10.661   9.284   7.640
94605SOL    HW285713  10.717   9.417   7.682
94606SOL     OW85714   8.600   2.210  12.231
94606SOL    HW185715   8.517   2.239  12.194
94606SOL    HW285716   8.629   2.283  12.287
94607SOL     OW85717   0.983   5.301   9.258
94607SOL    HW185718   0.962   5.221   9.209
94607SOL    HW285719   0.910   5.311   9.320
94608SOL     OW85720   5.251   1.647   9.536
94608SOL    HW185721   5.181   1.582   9.540
94608SOL    HW285722   5.227   1.713   9.601
94609SOL     OW85723   4.103   1.466  11.083
94609SOL    HW185724   4.105   1.522  11.005
94609SOL    HW285725   4.018   1.423  11.080
94610SOL     OW85726  11.643  11.677   0.430
94610SOL    HW185727  11.555  11.671   0.393
94610SOL    HW285728  11.644  11.761   0.476
94611SOL     OW85729   5.844  12.444   4.287
94611SOL    HW185730   5.873  12.393   4.212
94611SOL    HW285731   5.907  12.424   4.356
94612SOL     OW85732   7.711  10.719   7.630
94612SOL    HW185733   7.688  10.660   7.702
94612SOL    HW285734   7.803  10.700   7.612
94613SOL     OW85735   8.338   6.026   9.102
94613SOL    HW185736   8.319   6.119   9.112
94613SOL    HW285737   8.360   6.015   9.009
94614SOL     OW85738  13.448   9.435   8.222
94614SOL    HW185739  13.395   9.509   8.250
94614SOL    HW285740  13.386   9.374   8.183
94615SOL     OW85741   4.922   7.373   1.732
94615SOL    HW185742   4.917   7.282   1.704
94615SOL    HW285743   4.837   7.410   1.708
94616SOL     OW85744   7.844   0.774   3.662
94616SOL    HW185745   7.922   0.830   3.656
94616SOL    HW285746   7.869   0.705   3.723
94617SOL     OW85747   5.714   8.730   9.245
94617SOL    HW185748   5.634   8.764   9.206
94617SOL    HW285749   5.689   8.645   9.282
94618SOL     OW85750  14.653   8.958   3.801
94618SOL    HW185751  14.681   8.870   3.775
94618SOL    HW285752  14.616   8.946   3.889
94619SOL     OW85753   9.943  12.640   6.961
94619SOL    HW185754   9.955  12.671   6.871
94619SOL    HW285755  10.029  12.652   7.002
94620SOL     OW85756   2.467   0.940   0.843
94620SOL    HW185757   2.431   0.852   0.835
94620SOL    HW285758   2.549   0.937   0.793
94621SOL     OW85759   5.769  13.007   6.459
94621SOL    HW185760   5.839  13.036   6.518
94621SOL    HW285761   5.708  13.081   6.456
94622SOL     OW85762  13.407  14.543   1.803
94622SOL    HW185763  13.319  14.580   1.808
94622SOL    HW285764  13.465  14.617   1.822
94623SOL     OW85765   6.847   2.642  11.500
94623SOL    HW185766   6.874   2.673  11.414
94623SOL    HW285767   6.892   2.700  11.562
94624SOL     OW85768  14.790   5.854   5.186
94624SOL    HW185769  14.797   5.910   5.263
94624SOL    HW285770  14.840   5.899   5.118
94625SOL     OW85771   2.804   3.553  13.381
94625SOL    HW185772   2.784   3.468  13.341
94625SOL    HW285773   2.718   3.586  13.410
94626SOL     OW85774   0.983   0.444   3.232
94626SOL    HW185775   0.925   0.507   3.274
94626SOL    HW285776   1.071   0.479   3.249
94627SOL     OW85777  14.198   4.833   8.263
94627SOL    HW185778  14.110   4.869   8.270
94627SOL    HW285779  14.226   4.853   8.174
94628SOL     OW85780  10.315  10.124   7.085
94628SOL    HW185781  10.253  10.131   7.158
94628SOL    HW285782  10.324  10.213   7.052
94629SOL     OW85783  10.836   3.816   0.970
94629SOL    HW185784  10.841   3.721   0.967
94629SOL    HW285785  10.778   3.835   1.044
94630SOL     OW85786  14.183   5.234   6.404
94630SOL    HW185787  14.188   5.182   6.323
94630SOL    HW285788  14.247   5.194   6.462
94631SOL     OW85789  12.355  14.712   3.609
94631SOL    HW185790  12.377  14.750   3.524
94631SOL    HW285791  12.275  14.662   3.593
94632SOL     OW85792   7.338  10.770   2.932
94632SOL    HW185793   7.319  10.822   2.854
94632SOL    HW285794   7.251  10.742   2.963
94633SOL     OW85795   8.574  13.474  11.652
94633SOL    HW185796   8.524  13.500  11.574
94633SOL    HW285797   8.575  13.551  11.708
94634SOL     OW85798   9.501  13.060   3.125
94634SOL    HW185799   9.579  13.055   3.180
94634SOL    HW285800   9.475  13.152   3.129
94635SOL     OW85801  11.439   6.880  14.725
94635SOL    HW185802  11.491   6.946  14.772
94635SOL    HW285803  11.373   6.853  14.788
94636SOL     OW85804   3.074   1.788   1.766
94636SOL    HW185805   3.028   1.743   1.696
94636SOL    HW285806   3.116   1.862   1.723
94637SOL     OW85807   1.112  13.804   6.697
94637SOL    HW185808   1.088  13.884   6.650
94637SOL    HW285809   1.173  13.760   6.639
94638SOL     OW85810  11.108  11.573  11.831
94638SOL    HW185811  11.169  11.505  11.857
94638SOL    HW285812  11.152  11.655  11.855
94639SOL     OW85813  12.079  11.356   3.619
94639SOL    HW185814  12.161  11.306   3.621
94639SOL    HW285815  12.096  11.426   3.556
94640SOL     OW85816   6.044   4.390  13.396
94640SOL    HW185817   6.034   4.412  13.489
94640SOL    HW285818   5.971   4.434  13.353
94641SOL     OW85819   3.866   1.051  13.672
94641SOL    HW185820   3.870   1.147  13.670
94641SOL    HW285821   3.860   1.029  13.765
94642SOL     OW85822  11.523  10.472  12.670
94642SOL    HW185823  11.459  10.432  12.611
94642SOL    HW285824  11.495  10.444  12.757
94643SOL     OW85825   0.754   6.232   8.583
94643SOL    HW185826   0.800   6.274   8.511
94643SOL    HW285827   0.734   6.144   8.550
94644SOL     OW85828  13.253  13.674  11.305
94644SOL    HW185829  13.188  13.680  11.234
94644SOL    HW285830  13.278  13.581  11.306
94645SOL     OW85831   5.043  11.789  13.954
94645SOL    HW185832   5.118  11.801  13.896
94645SOL    HW285833   4.992  11.870  13.944
94646SOL     OW85834   0.883   3.096   5.781
94646SOL    HW185835   0.824   3.101   5.705
94646SOL    HW285836   0.961   3.144   5.754
94647SOL     OW85837  14.248   1.574   1.595
94647SOL    HW185838  14.165   1.532   1.616
94647SOL    HW285839  14.313   1.504   1.604
94648SOL     OW85840  14.188   7.870  14.335
94648SOL    HW185841  14.278   7.901  14.330
94648SOL    HW285842  14.137   7.947  14.359
94649SOL     OW85843   0.909   3.053   4.313
94649SOL    HW185844   0.917   3.138   4.270
94649SOL    HW285845   0.817   3.045   4.336
94650SOL     OW85846   6.067   6.593  11.559
94650SOL    HW185847   6.059   6.636  11.644
94650SOL    HW285848   6.152   6.549  11.562
94651SOL     OW85849   3.149  11.157   5.613
94651SOL    HW185850   3.166  11.240   5.659
94651SOL    HW285851   3.205  11.161   5.536
94652SOL     OW85852   7.955   5.687  10.483
94652SOL    HW185853   8.047   5.689  10.457
94652SOL    HW285854   7.937   5.776  10.514
94653SOL     OW85855  12.749   2.808  13.179
94653SOL    HW185856  12.813   2.801  13.108
94653SOL    HW285857  12.724   2.900  13.179
94654SOL     OW85858   7.658   4.338   7.883
94654SOL    HW185859   7.577   4.326   7.833
94654SOL    HW285860   7.728   4.322   7.820
94655SOL     OW85861   9.985   2.870   5.456
94655SOL    HW185862   9.939   2.815   5.393
94655SOL    HW285863   9.968   2.959   5.426
94656SOL     OW85864  13.558   9.313  10.215
94656SOL    HW185865  13.577   9.404  10.190
94656SOL    HW285866  13.490   9.286  10.154
94657SOL     OW85867   9.201  10.220   6.708
94657SOL    HW185868   9.143  10.145   6.722
94657SOL    HW285869   9.159  10.270   6.639
94658SOL     OW85870   0.352   6.465   8.459
94658SOL    HW185871   0.440   6.435   8.438
94658SOL    HW285872   0.355   6.560   8.443
94659SOL     OW85873  11.301   9.896  14.682
94659SOL    HW185874  11.349   9.934  14.609
94659SOL    HW285875  11.234   9.961  14.704
94660SOL     OW85876   5.770   2.804   2.055
94660SOL    HW185877   5.686   2.784   2.098
94660SOL    HW285878   5.748   2.812   1.962
94661SOL     OW85879   1.613   7.576  10.023
94661SOL    HW185880   1.606   7.569  10.118
94661SOL    HW285881   1.609   7.670  10.006
94662SOL     OW85882  11.714   6.577   5.294
94662SOL    HW185883  11.662   6.585   5.214
94662SOL    HW285884  11.652   6.544   5.359
94663SOL     OW85885   3.107   9.780   1.396
94663SOL    HW185886   3.057   9.810   1.321
94663SOL    HW285887   3.104   9.684   1.390
94664SOL     OW85888   7.483  11.428   6.672
94664SOL    HW185889   7.555  11.366   6.683
94664SOL    HW285890   7.453  11.415   6.582
94665SOL     OW85891  13.463   8.170   5.451
94665SOL    HW185892  13.547   8.127   5.466
94665SOL    HW285893  13.403   8.098   5.431
94666SOL     OW85894  12.773   0.636   4.099
94666SOL    HW185895  12.735   0.548   4.104
94666SOL    HW285896  12.699   0.693   4.077
94667SOL     OW85897   2.994  11.060  10.017
94667SOL    HW185898   2.998  11.037   9.924
94667SOL    HW285899   2.918  11.118  10.025
94668SOL     OW85900   8.685   7.087  10.699
94668SOL    HW185901   8.635   7.109  10.619
94668SOL    HW285902   8.719   6.999  10.682
94669SOL     OW85903   2.351  11.002  10.811
94669SOL    HW185904   2.297  11.082  10.806
94669SOL    HW285905   2.288  10.932  10.826
94670SOL     OW85906  11.602  10.014   8.086
94670SOL    HW185907  11.512  10.023   8.119
94670SOL    HW285908  11.598   9.939   8.027
94671SOL     OW85909   3.757  12.680  10.584
94671SOL    HW185910   3.679  12.648  10.631
94671SOL    HW285911   3.770  12.617  10.514
94672SOL     OW85912  12.751  13.040  11.837
94672SOL    HW185913  12.742  13.074  11.926
94672SOL    HW285914  12.661  13.016  11.812
94673SOL     OW85915   8.063   5.218   6.872
94673SOL    HW185916   7.973   5.251   6.871
94673SOL    HW285917   8.118   5.297   6.873
94674SOL     OW85918   8.131   6.353  11.308
94674SOL    HW185919   8.086   6.416  11.252
94674SOL    HW285920   8.224   6.370  11.291
94675SOL     OW85921  10.967   4.968  12.229
94675SOL    HW185922  10.952   5.003  12.317
94675SOL    HW285923  11.018   5.036  12.185
94676SOL     OW85924   6.794   5.243   1.836
94676SOL    HW185925   6.843   5.162   1.820
94676SOL    HW285926   6.817   5.300   1.763
94677SOL     OW85927   6.060  14.059   9.532
94677SOL    HW185928   6.112  14.129   9.493
94677SOL    HW285929   6.108  13.979   9.509
94678SOL     OW85930  10.847   9.080   5.807
94678SOL    HW185931  10.799   8.998   5.797
94678SOL    HW285932  10.878   9.079   5.898
94679SOL     OW85933  12.809  14.595  10.148
94679SOL    HW185934  12.738  14.653  10.175
94679SOL    HW285935  12.882  14.619  10.204
94680SOL     OW85936  14.767  13.540  10.098
94680SOL    HW185937  14.769  13.557  10.004
94680SOL    HW285938  14.674  13.544  10.121
94681SOL     OW85939   7.515  12.389   6.918
94681SOL    HW185940   7.472  12.469   6.947
94681SOL    HW285941   7.445  12.324   6.914
94682SOL     OW85942   1.950   8.444  13.502
94682SOL    HW185943   1.941   8.396  13.584
94682SOL    HW285944   1.993   8.383  13.443
94683SOL     OW85945   7.134  10.572   4.691
94683SOL    HW185946   7.085  10.491   4.703
94683SOL    HW285947   7.219  10.545   4.656
94684SOL     OW85948   5.158  13.431  11.525
94684SOL    HW185949   5.098  13.412  11.597
94684SOL    HW285950   5.229  13.368  11.535
94685SOL     OW85951  11.889   6.768   9.905
94685SOL    HW185952  11.840   6.719   9.972
94685SOL    HW285953  11.930   6.840   9.953
94686SOL     OW85954  12.713   7.131  11.674
94686SOL    HW185955  12.719   7.038  11.652
94686SOL    HW285956  12.654   7.168  11.609
94687SOL     OW85957  14.856  11.715  12.282
94687SOL    HW185958  14.864  11.807  12.257
94687SOL    HW285959  14.834  11.717  12.375
94688SOL     OW85960   8.220   2.182   1.048
94688SOL    HW185961   8.129   2.181   1.018
94688SOL    HW285962   8.258   2.104   1.009
94689SOL     OW85963   9.057   3.762   2.816
94689SOL    HW185964   9.033   3.833   2.874
94689SOL    HW285965   9.034   3.793   2.728
94690SOL     OW85966  10.480   2.152   0.655
94690SOL    HW185967  10.440   2.071   0.623
94690SOL    HW285968  10.533   2.183   0.581
94691SOL     OW85969   9.068  10.727  10.278
94691SOL    HW185970   9.161  10.714  10.264
94691SOL    HW285971   9.063  10.797  10.343
94692SOL     OW85972   0.660  14.609  13.342
94692SOL    HW185973   0.750  14.632  13.323
94692SOL    HW285974   0.608  14.664  13.284
94693SOL     OW85975   9.379   4.547   1.813
94693SOL    HW185976   9.302   4.580   1.860
94693SOL    HW285977   9.375   4.591   1.728
94694SOL     OW85978   5.143   1.520   9.033
94694SOL    HW185979   5.097   1.556   9.109
94694SOL    HW285980   5.236   1.534   9.051
94695SOL     OW85981   5.943  10.460   3.921
94695SOL    HW185982   5.883  10.533   3.936
94695SOL    HW285983   5.885  10.384   3.911
94696SOL     OW85984   1.905   0.702  11.145
94696SOL    HW185985   1.878   0.748  11.065
94696SOL    HW285986   2.000   0.701  11.142
94697SOL     OW85987   3.289   4.454   2.083
94697SOL    HW185988   3.269   4.384   2.020
94697SOL    HW285989   3.273   4.535   2.035
94698SOL     OW85990   3.369   8.211  13.117
94698SOL    HW185991   3.289   8.240  13.161
94698SOL    HW285992   3.434   8.278  13.139
94699SOL     OW85993   8.071  10.178  11.775
94699SOL    HW185994   8.003  10.216  11.831
94699SOL    HW285995   8.146  10.236  11.786
94700SOL     OW85996   5.078  14.400  11.546
94700SOL    HW185997   5.026  14.366  11.473
94700SOL    HW285998   5.080  14.495  11.532
94701SOL     OW85999   6.230   8.074   7.937
94701SOL    HW186000   6.220   8.124   8.018
94701SOL    HW286001   6.143   8.038   7.919
94702SOL     OW86002   1.735   1.795  12.822
94702SOL    HW186003   1.826   1.792  12.792
94702SOL    HW286004   1.689   1.846  12.756
94703SOL     OW86005  11.676  12.675  11.959
94703SOL    HW186006  11.624  12.723  12.024
94703SOL    HW286007  11.672  12.730  11.880
94704SOL     OW86008   7.118   4.943  12.594
94704SOL    HW186009   7.204   4.980  12.576
94704SOL    HW286010   7.058   4.994  12.540
94705SOL     OW86011  10.889   9.966   3.825
94705SOL    HW186012  10.873   9.977   3.918
94705SOL    HW286013  10.876  10.053   3.787
94706SOL     OW86014   6.988   4.494   1.793
94706SOL    HW186015   6.956   4.454   1.712
94706SOL    HW286016   7.010   4.420   1.849
94707SOL     OW86017   1.154  12.812  13.698
94707SOL    HW186018   1.184  12.778  13.614
94707SOL    HW286019   1.229  12.799  13.757
94708SOL     OW86020   5.109  13.759  14.639
94708SOL    HW186021   5.093  13.742  14.732
94708SOL    HW286022   5.203  13.776  14.633
94709SOL     OW86023   7.448   0.764   6.221
94709SOL    HW186024   7.495   0.684   6.194
94709SOL    HW286025   7.384   0.779   6.152
94710SOL     OW86026  12.696   1.535   7.639
94710SOL    HW186027  12.697   1.451   7.593
94710SOL    HW286028  12.703   1.601   7.570
94711SOL     OW86029   4.837  10.119  12.379
94711SOL    HW186030   4.869  10.030  12.375
94711SOL    HW286031   4.890  10.162  12.446
94712SOL     OW86032  11.165  11.037   9.575
94712SOL    HW186033  11.220  11.085   9.513
94712SOL    HW286034  11.124  11.105   9.628
94713SOL     OW86035  10.505   6.548  10.851
94713SOL    HW186036  10.540   6.629  10.888
94713SOL    HW286037  10.566   6.480  10.880
94714SOL     OW86038   6.323   0.276   7.168
94714SOL    HW186039   6.255   0.265   7.102
94714SOL    HW286040   6.305   0.208   7.233
94715SOL     OW86041   7.662   6.909   9.867
94715SOL    HW186042   7.756   6.929   9.872
94715SOL    HW286043   7.620   6.977   9.919
94716SOL     OW86044   0.227   5.929  11.804
94716SOL    HW186045   0.192   5.907  11.718
94716SOL    HW286046   0.248   5.844  11.844
94717SOL     OW86047   2.252  13.864  13.545
94717SOL    HW186048   2.211  13.945  13.513
94717SOL    HW286049   2.320  13.844  13.480
94718SOL     OW86050   6.597   9.861  14.589
94718SOL    HW186051   6.583   9.923  14.661
94718SOL    HW286052   6.685   9.881  14.557
94719SOL     OW86053   9.520   3.280   3.467
94719SOL    HW186054   9.585   3.229   3.419
94719SOL    HW286055   9.454   3.304   3.402
94720SOL     OW86056   3.399  11.778   1.843
94720SOL    HW186057   3.479  11.733   1.817
94720SOL    HW286058   3.414  11.804   1.934
94721SOL     OW86059   1.617  11.456   2.915
94721SOL    HW186060   1.524  11.472   2.933
94721SOL    HW286061   1.629  11.363   2.935
94722SOL     OW86062   6.628   9.032   1.247
94722SOL    HW186063   6.562   8.994   1.305
94722SOL    HW286064   6.709   8.985   1.267
94723SOL     OW86065  11.517   4.134   1.696
94723SOL    HW186066  11.605   4.168   1.684
94723SOL    HW286067  11.461   4.212   1.691
94724SOL     OW86068   3.546  13.104  12.208
94724SOL    HW186069   3.619  13.062  12.253
94724SOL    HW286070   3.528  13.048  12.132
94725SOL     OW86071   6.258   4.677   9.546
94725SOL    HW186072   6.349   4.683   9.575
94725SOL    HW286073   6.230   4.589   9.570
94726SOL     OW86074  11.411   9.204  11.357
94726SOL    HW186075  11.505   9.220  11.344
94726SOL    HW286076  11.383   9.276  11.413
94727SOL     OW86077   1.341  10.462  11.888
94727SOL    HW186078   1.402  10.388  11.887
94727SOL    HW286079   1.302  10.463  11.801
94728SOL     OW86080  11.869   3.802   7.038
94728SOL    HW186081  11.875   3.878   6.980
94728SOL    HW286082  11.959   3.781   7.060
94729SOL     OW86083   8.396   7.771   4.679
94729SOL    HW186084   8.436   7.821   4.750
94729SOL    HW286085   8.469   7.734   4.630
94730SOL     OW86086   2.774   5.777   9.680
94730SOL    HW186087   2.748   5.688   9.654
94730SOL    HW286088   2.695   5.830   9.665
94731SOL     OW86089   0.068   1.585  10.062
94731SOL    HW186090   0.037   1.655  10.003
94731SOL    HW286091  14.864   1.522  10.063
94732SOL     OW86092   9.938  10.517   8.264
94732SOL    HW186093  10.018  10.480   8.301
94732SOL    HW286094   9.898  10.564   8.337
94733SOL     OW86095   6.446   7.040   3.287
94733SOL    HW186096   6.358   7.073   3.276
94733SOL    HW286097   6.434   6.953   3.325
94734SOL     OW86098  13.990   4.942   9.484
94734SOL    HW186099  14.079   4.974   9.495
94734SOL    HW286100  13.961   4.978   9.400
94735SOL     OW86101   3.513   4.100  12.101
94735SOL    HW186102   3.595   4.070  12.060
94735SOL    HW286103   3.479   4.165  12.040
94736SOL     OW86104   7.257   1.627   0.202
94736SOL    HW186105   7.219   1.566   0.265
94736SOL    HW286106   7.208   1.708   0.216
94737SOL     OW86107  10.563   3.407   5.019
94737SOL    HW186108  10.559   3.463   4.941
94737SOL    HW286109  10.513   3.329   4.994
94738SOL     OW86110  14.780   6.448   7.885
94738SOL    HW186111  14.795   6.414   7.973
94738SOL    HW286112  14.690   6.479   7.886
94739SOL     OW86113  13.387  10.332   7.328
94739SOL    HW186114  13.448  10.406   7.331
94739SOL    HW286115  13.443  10.255   7.315
94740SOL     OW86116   1.188  13.799  11.768
94740SOL    HW186117   1.135  13.865  11.723
94740SOL    HW286118   1.214  13.841  11.850
94741SOL     OW86119  10.661   8.996   9.281
94741SOL    HW186120  10.597   9.060   9.251
94741SOL    HW286121  10.743   9.045   9.287
94742SOL     OW86122  13.434   6.049  11.104
94742SOL    HW186123  13.416   5.965  11.062
94742SOL    HW286124  13.512   6.033  11.157
94743SOL     OW86125   6.780  14.548   9.529
94743SOL    HW186126   6.724  14.511   9.461
94743SOL    HW286127   6.840  14.477   9.553
94744SOL     OW86128   2.093   6.883   2.669
94744SOL    HW186129   2.165   6.942   2.646
94744SOL    HW286130   2.117   6.850   2.756
94745SOL     OW86131   1.237  14.759  10.776
94745SOL    HW186132   1.243  14.844  10.732
94745SOL    HW286133   1.322  14.748  10.818
94746SOL     OW86134  12.469  11.320   1.216
94746SOL    HW186135  12.541  11.373   1.184
94746SOL    HW286136  12.390  11.364   1.184
94747SOL     OW86137   1.070  13.841   4.675
94747SOL    HW186138   1.084  13.910   4.610
94747SOL    HW286139   1.083  13.760   4.627
94748SOL     OW86140  13.278   0.713   9.372
94748SOL    HW186141  13.247   0.658   9.443
94748SOL    HW286142  13.280   0.655   9.295
94749SOL     OW86143   1.200  11.614   1.235
94749SOL    HW186144   1.282  11.597   1.280
94749SOL    HW286145   1.132  11.587   1.296
94750SOL     OW86146   3.829  11.620  13.421
94750SOL    HW186147   3.920  11.611  13.448
94750SOL    HW286148   3.791  11.683  13.483
94751SOL     OW86149   2.217   5.375   9.783
94751SOL    HW186150   2.220   5.290   9.740
94751SOL    HW286151   2.277   5.430   9.732
94752SOL     OW86152   1.294   9.424   2.209
94752SOL    HW186153   1.346   9.370   2.149
94752SOL    HW286154   1.257   9.492   2.154
94753SOL     OW86155   6.864   3.707  11.420
94753SOL    HW186156   6.814   3.786  11.442
94753SOL    HW286157   6.846   3.693  11.328
94754SOL     OW86158  14.373   6.159   4.168
94754SOL    HW186159  14.445   6.204   4.212
94754SOL    HW286160  14.295   6.208   4.193
94755SOL     OW86161   6.968   2.861   6.695
94755SOL    HW186162   7.028   2.836   6.765
94755SOL    HW286163   7.024   2.894   6.625
94756SOL     OW86164  10.548  13.652   4.023
94756SOL    HW186165  10.564  13.637   4.116
94756SOL    HW286166  10.636  13.654   3.983
94757SOL     OW86167  13.365  10.760   0.884
94757SOL    HW186168  13.382  10.706   0.962
94757SOL    HW286169  13.270  10.773   0.885
94758SOL     OW86170  13.452   0.892   1.878
94758SOL    HW186171  13.489   0.853   1.957
94758SOL    HW286172  13.442   0.819   1.818
94759SOL     OW86173  14.797   3.419   4.303
94759SOL    HW186174  14.777   3.377   4.387
94759SOL    HW286175  14.715   3.462   4.278
94760SOL     OW86176   2.900   9.731   2.921
94760SOL    HW186177   2.822   9.779   2.890
94760SOL    HW286178   2.889   9.727   3.016
94761SOL     OW86179   0.581   7.184   5.763
94761SOL    HW186180   0.545   7.099   5.788
94761SOL    HW286181   0.535   7.247   5.818
94762SOL     OW86182   6.175   5.029   7.421
94762SOL    HW186183   6.144   5.090   7.355
94762SOL    HW286184   6.195   4.949   7.372
94763SOL     OW86185  10.225  12.913  11.560
94763SOL    HW186186  10.305  12.911  11.613
94763SOL    HW286187  10.251  12.958  11.479
94764SOL     OW86188  12.988  14.603   7.076
94764SOL    HW186189  12.993  14.553   7.158
94764SOL    HW286190  13.065  14.576   7.027
94765SOL     OW86191   4.721   9.408  14.721
94765SOL    HW186192   4.741   9.322  14.758
94765SOL    HW286193   4.726   9.395  14.626
94766SOL     OW86194  11.097  12.424  10.608
94766SOL    HW186195  11.099  12.481  10.685
94766SOL    HW286196  11.187  12.392  10.598
94767SOL     OW86197   5.656   7.165  10.552
94767SOL    HW186198   5.600   7.225  10.601
94767SOL    HW286199   5.684   7.101  10.618
94768SOL     OW86200  12.912   5.116   5.335
94768SOL    HW186201  12.860   5.038   5.355
94768SOL    HW286202  13.001   5.092   5.362
94769SOL     OW86203   9.293  10.702   4.921
94769SOL    HW186204   9.216  10.653   4.950
94769SOL    HW286205   9.367  10.643   4.936
94770SOL     OW86206  11.404  12.251  13.233
94770SOL    HW186207  11.453  12.174  13.261
94770SOL    HW286208  11.313  12.234  13.259
94771SOL     OW86209   4.137   3.047   7.811
94771SOL    HW186210   4.218   3.093   7.834
94771SOL    HW286211   4.078   3.116   7.782
94772SOL     OW86212   8.769   4.724   1.146
94772SOL    HW186213   8.801   4.813   1.128
94772SOL    HW286214   8.674   4.730   1.136
94773SOL     OW86215  10.439  12.340   0.699
94773SOL    HW186216  10.452  12.432   0.675
94773SOL    HW286217  10.506  12.293   0.650
94774SOL     OW86218   3.962   3.031   1.892
94774SOL    HW186219   4.004   3.114   1.870
94774SOL    HW286220   4.034   2.977   1.925
94775SOL     OW86221  13.489  11.489   9.838
94775SOL    HW186222  13.570  11.452   9.802
94775SOL    HW286223  13.464  11.428   9.908
94776SOL     OW86224  12.230   6.523  11.984
94776SOL    HW186225  12.196   6.435  11.969
94776SOL    HW286226  12.266   6.550  11.899
94777SOL     OW86227   2.038   8.538   6.026
94777SOL    HW186228   2.001   8.615   5.984
94777SOL    HW286229   2.028   8.555   6.120
94778SOL     OW86230   9.573  14.539   8.875
94778SOL    HW186231   9.589  14.515   8.784
94778SOL    HW286232   9.479  14.559   8.878
94779SOL     OW86233  10.878   7.069   9.231
94779SOL    HW186234  10.849   7.150   9.189
94779SOL    HW286235  10.884   7.092   9.324
94780SOL     OW86236   5.970   5.892   7.932
94780SOL    HW186237   5.986   5.986   7.928
94780SOL    HW286238   5.922   5.879   8.013
94781SOL     OW86239  12.859  13.656   2.451
94781SOL    HW186240  12.787  13.607   2.412
94781SOL    HW286241  12.938  13.612   2.420
94782SOL     OW86242   8.131  10.136   4.089
94782SOL    HW186243   8.065  10.196   4.124
94782SOL    HW286244   8.086  10.088   4.020
94783SOL     OW86245   4.182  13.675   1.722
94783SOL    HW186246   4.210  13.647   1.635
94783SOL    HW286247   4.260  13.713   1.762
94784SOL     OW86248   5.754   3.385   6.836
94784SOL    HW186249   5.808   3.449   6.790
94784SOL    HW286250   5.770   3.403   6.929
94785SOL     OW86251   8.355  14.338  14.475
94785SOL    HW186252   8.361  14.323  14.569
94785SOL    HW286253   8.262  14.328  14.455
94786SOL     OW86254   6.456  12.645   1.704
94786SOL    HW186255   6.471  12.642   1.798
94786SOL    HW286256   6.504  12.723   1.675
94787SOL     OW86257   2.838   6.441  10.734
94787SOL    HW186258   2.778   6.506  10.696
94787SOL    HW286259   2.787   6.400  10.804
94788SOL     OW86260   8.256   2.952   5.198
94788SOL    HW186261   8.225   2.988   5.115
94788SOL    HW286262   8.347   2.927   5.181
94789SOL     OW86263   2.268   3.045  13.136
94789SOL    HW186264   2.180   3.083  13.124
94789SOL    HW286265   2.327   3.112  13.100
94790SOL     OW86266   4.391   9.730   1.756
94790SOL    HW186267   4.426   9.727   1.667
94790SOL    HW286268   4.432   9.656   1.801
94791SOL     OW86269   3.171   7.418  13.619
94791SOL    HW186270   3.146   7.496  13.669
94791SOL    HW286271   3.173   7.447  13.528
94792SOL     OW86272   8.876   4.397   0.053
94792SOL    HW186273   8.785   4.399   0.083
94792SOL    HW286274   8.928   4.413   0.131
94793SOL     OW86275  11.556   8.140  14.004
94793SOL    HW186276  11.569   8.152  13.910
94793SOL    HW286277  11.569   8.227  14.042
94794SOL     OW86278  14.370   1.682  11.458
94794SOL    HW186279  14.438   1.617  11.472
94794SOL    HW286280  14.295   1.632  11.427
94795SOL     OW86281   1.733   2.604   3.581
94795SOL    HW186282   1.721   2.576   3.490
94795SOL    HW286283   1.683   2.540   3.632
94796SOL     OW86284   0.608   0.079   7.312
94796SOL    HW186285   0.614  14.857   7.346
94796SOL    HW286286   0.569   0.068   7.225
94797SOL     OW86287  12.602   1.046   9.205
94797SOL    HW186288  12.694   1.032   9.230
94797SOL    HW286289  12.551   1.008   9.276
94798SOL     OW86290   0.152   5.568   5.353
94798SOL    HW186291   0.179   5.644   5.302
94798SOL    HW286292   0.167   5.594   5.444
94799SOL     OW86293  14.226  14.776  12.535
94799SOL    HW186294  14.177  14.693  12.529
94799SOL    HW286295  14.181  14.825  12.604
94800SOL     OW86296  14.639   9.325   7.560
94800SOL    HW186297  14.601   9.351   7.644
94800SOL    HW286298  14.566   9.285   7.513
94801SOL     OW86299  11.734   8.247   5.372
94801SOL    HW186300  11.802   8.219   5.311
94801SOL    HW286301  11.652   8.222   5.330
94802SOL     OW86302   5.265   2.961   0.234
94802SOL    HW186303   5.310   2.880   0.209
94802SOL    HW286304   5.327   3.006   0.291
94803SOL     OW86305  14.836  12.173   0.103
94803SOL    HW186306   0.049  12.159   0.152
94803SOL    HW286307  14.792  12.088   0.104
94804SOL     OW86308  13.775   6.516   4.542
94804SOL    HW186309  13.823   6.528   4.624
94804SOL    HW286310  13.787   6.423   4.521
94805SOL     OW86311  12.841   4.767  10.877
94805SOL    HW186312  12.886   4.724  10.949
94805SOL    HW286313  12.765   4.810  10.918
94806SOL     OW86314   9.747   1.590   3.585
94806SOL    HW186315   9.836   1.621   3.602
94806SOL    HW286316   9.707   1.659   3.534
94807SOL     OW86317  12.831   9.372   6.795
94807SOL    HW186318  12.780   9.421   6.860
94807SOL    HW286319  12.863   9.439   6.734
94808SOL     OW86320  10.104   5.978  10.009
94808SOL    HW186321  10.173   6.042   9.995
94808SOL    HW286322  10.075   5.994  10.099
94809SOL     OW86323   7.912   0.861   4.301
94809SOL    HW186324   7.999   0.897   4.319
94809SOL    HW286325   7.851   0.930   4.330
94810SOL     OW86326   0.698   5.695   5.120
94810SOL    HW186327   0.745   5.766   5.076
94810SOL    HW286328   0.644   5.656   5.051
94811SOL     OW86329   5.209   8.692   9.535
94811SOL    HW186330   5.262   8.708   9.457
94811SOL    HW286331   5.135   8.640   9.503
94812SOL     OW86332   1.125  10.564   1.340
94812SOL    HW186333   1.132  10.530   1.250
94812SOL    HW286334   1.215  10.573   1.369
94813SOL     OW86335   4.932   8.948   9.636
94813SOL    HW186336   4.914   9.013   9.704
94813SOL    HW286337   4.866   8.880   9.650
94814SOL     OW86338   5.821  13.248  12.765
94814SOL    HW186339   5.860  13.333  12.748
94814SOL    HW286340   5.883  13.204  12.824
94815SOL     OW86341  14.515   3.196   5.244
94815SOL    HW186342  14.573   3.218   5.317
94815SOL    HW286343  14.466   3.277   5.227
94816SOL     OW86344   4.645  10.566   2.356
94816SOL    HW186345   4.564  10.531   2.319
94816SOL    HW286346   4.693  10.600   2.281
94817SOL     OW86347   6.155   0.763   9.644
94817SOL    HW186348   6.237   0.755   9.594
94817SOL    HW286349   6.180   0.811   9.723
94818SOL     OW86350   5.152   4.354   0.462
94818SOL    HW186351   5.147   4.267   0.502
94818SOL    HW286352   5.102   4.410   0.522
94819SOL     OW86353  11.011   2.283   1.307
94819SOL    HW186354  11.037   2.249   1.221
94819SOL    HW286355  10.915   2.283   1.305
94820SOL     OW86356   5.799   9.733   6.422
94820SOL    HW186357   5.863   9.663   6.440
94820SOL    HW286358   5.796   9.738   6.327
94821SOL     OW86359   4.750   5.517   0.781
94821SOL    HW186360   4.725   5.472   0.700
94821SOL    HW286361   4.686   5.486   0.846
94822SOL     OW86362   8.474   2.977   0.144
94822SOL    HW186363   8.434   3.006   0.226
94822SOL    HW286364   8.404   2.930   0.098
94823SOL     OW86365   8.025   1.295   8.521
94823SOL    HW186366   7.966   1.312   8.594
94823SOL    HW286367   7.967   1.266   8.450
94824SOL     OW86368  14.086  12.080   1.958
94824SOL    HW186369  14.017  12.029   1.915
94824SOL    HW286370  14.081  12.166   1.915
94825SOL     OW86371   4.820  12.102   8.085
94825SOL    HW186372   4.887  12.163   8.118
94825SOL    HW286373   4.844  12.018   8.122
94826SOL     OW86374   8.131   7.403   4.387
94826SOL    HW186375   8.057   7.370   4.337
94826SOL    HW286376   8.113   7.496   4.398
94827SOL     OW86377   4.571   4.920  12.352
94827SOL    HW186378   4.661   4.894  12.334
94827SOL    HW286379   4.537   4.852  12.409
94828SOL     OW86380   1.207   3.097   7.907
94828SOL    HW186381   1.134   3.125   7.962
94828SOL    HW286382   1.199   3.150   7.828
94829SOL     OW86383   3.762  12.621  13.215
94829SOL    HW186384   3.744  12.551  13.279
94829SOL    HW286385   3.758  12.702  13.266
94830SOL     OW86386   9.957   6.563  10.101
94830SOL    HW186387   9.918   6.647  10.125
94830SOL    HW286388   9.927   6.545  10.012
94831SOL     OW86389   2.495   4.836   7.534
94831SOL    HW186390   2.413   4.882   7.548
94831SOL    HW286391   2.477   4.776   7.462
94832SOL     OW86392   7.257   3.375  13.674
94832SOL    HW186393   7.303   3.421  13.744
94832SOL    HW286394   7.165   3.380  13.699
94833SOL     OW86395  13.685  13.951   7.164
94833SOL    HW186396  13.671  13.910   7.249
94833SOL    HW286397  13.770  13.917   7.135
94834SOL     OW86398  12.754   4.310   1.066
94834SOL    HW186399  12.726   4.293   1.156
94834SOL    HW286400  12.675   4.336   1.020
94835SOL     OW86401   3.271   5.899  11.003
94835SOL    HW186402   3.207   5.908  10.932
94835SOL    HW286403   3.345   5.853  10.963
94836SOL     OW86404   4.838   6.645  11.573
94836SOL    HW186405   4.830   6.579  11.642
94836SOL    HW286406   4.910   6.614  11.518
94837SOL     OW86407  12.609  14.219   6.480
94837SOL    HW186408  12.662  14.176   6.547
94837SOL    HW286409  12.524  14.231   6.521
94838SOL     OW86410   9.197   5.955   1.632
94838SOL    HW186411   9.202   5.914   1.546
94838SOL    HW286412   9.276   6.009   1.637
94839SOL     OW86413   7.484  12.458   4.238
94839SOL    HW186414   7.419  12.484   4.173
94839SOL    HW286415   7.521  12.377   4.205
94840SOL     OW86416   1.305   0.485   0.831
94840SOL    HW186417   1.246   0.549   0.791
94840SOL    HW286418   1.286   0.492   0.925
94841SOL     OW86419  11.936  10.203  12.075
94841SOL    HW186420  12.006  10.264  12.100
94841SOL    HW286421  11.869  10.260  12.037
94842SOL     OW86422  14.412   3.047  10.079
94842SOL    HW186423  14.351   3.114  10.110
94842SOL    HW286424  14.487   3.096  10.046
94843SOL     OW86425  13.403   7.994   9.058
94843SOL    HW186426  13.356   7.926   9.009
94843SOL    HW286427  13.409   7.959   9.147
94844SOL     OW86428   6.777   1.108   7.707
94844SOL    HW186429   6.807   1.110   7.798
94844SOL    HW286430   6.778   1.200   7.680
94845SOL     OW86431   9.068  12.690  14.122
94845SOL    HW186432   9.036  12.600  14.110
94845SOL    HW286433   9.147  12.680  14.175
94846SOL     OW86434   2.725  14.100  13.154
94846SOL    HW186435   2.804  14.139  13.116
94846SOL    HW286436   2.715  14.145  13.238
94847SOL     OW86437   0.627   5.379   4.953
94847SOL    HW186438   0.566   5.343   4.889
94847SOL    HW286439   0.696   5.420   4.900
94848SOL     OW86440   2.648   5.081   7.140
94848SOL    HW186441   2.588   5.128   7.197
94848SOL    HW286442   2.666   4.999   7.185
94849SOL     OW86443   0.107  10.310  14.067
94849SOL    HW186444   0.124  10.283  13.977
94849SOL    HW286445   0.114  10.229  14.118
94850SOL     OW86446   6.407   3.656   4.606
94850SOL    HW186447   6.443   3.567   4.599
94850SOL    HW286448   6.475   3.707   4.649
94851SOL     OW86449   4.103   5.691  13.050
94851SOL    HW186450   4.100   5.612  13.105
94851SOL    HW286451   4.053   5.756  13.100
94852SOL     OW86452   2.827  12.079  14.184
94852SOL    HW186453   2.882  12.094  14.107
94852SOL    HW286454   2.815  12.166  14.221
94853SOL     OW86455   5.755  12.035  10.748
94853SOL    HW186456   5.703  12.072  10.677
94853SOL    HW286457   5.726  11.944  10.754
94854SOL     OW86458   7.882   2.031  12.747
94854SOL    HW186459   7.914   1.946  12.718
94854SOL    HW286460   7.790   2.033  12.720
94855SOL     OW86461   2.730   3.484   9.611
94855SOL    HW186462   2.724   3.502   9.517
94855SOL    HW286463   2.727   3.389   9.618
94856SOL     OW86464  12.849   9.396  12.602
94856SOL    HW186465  12.846   9.302  12.618
94856SOL    HW286466  12.821   9.406  12.511
94857SOL     OW86467   1.369  13.222  11.630
94857SOL    HW186468   1.357  13.128  11.613
94857SOL    HW286469   1.344  13.264  11.548
94858SOL     OW86470   8.671   2.624   1.720
94858SOL    HW186471   8.661   2.660   1.632
94858SOL    HW286472   8.666   2.700   1.779
94859SOL     OW86473  11.129  12.029   7.379
94859SOL    HW186474  11.067  12.101   7.395
94859SOL    HW286475  11.074  11.954   7.359
94860SOL     OW86476   1.103  10.341   3.553
94860SOL    HW186477   1.094  10.422   3.602
94860SOL    HW286478   1.060  10.358   3.469
94861SOL     OW86479  11.509   8.978   6.007
94861SOL    HW186480  11.534   8.885   6.000
94861SOL    HW286481  11.509   8.995   6.101
94862SOL     OW86482  11.371  14.273   0.875
94862SOL    HW186483  11.456  14.250   0.838
94862SOL    HW286484  11.356  14.209   0.944
94863SOL     OW86485   8.836  14.170   0.601
94863SOL    HW186486   8.826  14.197   0.692
94863SOL    HW286487   8.890  14.238   0.561
94864SOL     OW86488   5.852  10.739   5.312
94864SOL    HW186489   5.803  10.804   5.363
94864SOL    HW286490   5.812  10.656   5.334
94865SOL     OW86491   1.519  10.494   0.639
94865SOL    HW186492   1.613  10.493   0.657
94865SOL    HW286493   1.494  10.401   0.636
94866SOL     OW86494   9.471   6.963  14.534
94866SOL    HW186495   9.501   7.047  14.499
94866SOL    HW286496   9.534   6.941  14.602
94867SOL     OW86497   5.845   1.100   2.572
94867SOL    HW186498   5.880   1.083   2.484
94867SOL    HW286499   5.777   1.034   2.584
94868SOL     OW86500   8.207   1.333   1.849
94868SOL    HW186501   8.197   1.298   1.938
94868SOL    HW286502   8.298   1.315   1.827
94869SOL     OW86503   8.168   8.592  13.258
94869SOL    HW186504   8.107   8.666  13.269
94869SOL    HW286505   8.231   8.622  13.192
94870SOL     OW86506   4.074   9.548  11.921
94870SOL    HW186507   4.074   9.555  11.825
94870SOL    HW286508   4.135   9.616  11.949
94871SOL     OW86509   5.900   8.959  10.378
94871SOL    HW186510   5.976   8.964  10.320
94871SOL    HW286511   5.826   8.946  10.319
94872SOL     OW86512   0.219   7.822   2.672
94872SOL    HW186513   0.301   7.789   2.635
94872SOL    HW286514   0.220   7.916   2.653
94873SOL     OW86515   6.173   7.057   2.196
94873SOL    HW186516   6.234   7.019   2.133
94873SOL    HW286517   6.088   7.054   2.151
94874SOL     OW86518   6.667   6.752  11.012
94874SOL    HW186519   6.697   6.687  10.948
94874SOL    HW286520   6.710   6.726  11.094
94875SOL     OW86521   4.453  11.205   6.531
94875SOL    HW186522   4.371  11.245   6.560
94875SOL    HW286523   4.486  11.159   6.608
94876SOL     OW86524   1.165  11.008   5.839
94876SOL    HW186525   1.256  11.028   5.815
94876SOL    HW286526   1.160  10.912   5.837
94877SOL     OW86527  11.112  10.893   3.129
94877SOL    HW186528  11.113  10.799   3.145
94877SOL    HW286529  11.028  10.909   3.084
94878SOL     OW86530   1.154   6.595   9.550
94878SOL    HW186531   1.145   6.500   9.555
94878SOL    HW286532   1.234   6.609   9.500
94879SOL     OW86533   0.825  12.684   4.940
94879SOL    HW186534   0.790  12.750   4.999
94879SOL    HW286535   0.911  12.718   4.914
94880SOL     OW86536  11.248   5.701   3.808
94880SOL    HW186537  11.244   5.774   3.746
94880SOL    HW286538  11.215   5.738   3.890
94881SOL     OW86539   4.250   3.352  14.322
94881SOL    HW186540   4.312   3.425  14.318
94881SOL    HW286541   4.295   3.285  14.375
94882SOL     OW86542   9.267   6.643  10.682
94882SOL    HW186543   9.281   6.617  10.591
94882SOL    HW286544   9.345   6.694  10.704
94883SOL     OW86545   6.386  13.912   8.762
94883SOL    HW186546   6.387  13.878   8.673
94883SOL    HW286547   6.306  13.964   8.767
94884SOL     OW86548  12.015  14.774   4.138
94884SOL    HW186549  11.981  14.839   4.076
94884SOL    HW286550  12.082  14.820   4.187
94885SOL     OW86551  12.507   3.344   8.920
94885SOL    HW186552  12.485   3.340   9.013
94885SOL    HW286553  12.468   3.265   8.883
94886SOL     OW86554   6.456   6.071  14.594
94886SOL    HW186555   6.374   6.021  14.601
94886SOL    HW286556   6.513   6.015  14.542
94887SOL     OW86557   1.662   6.851   5.833
94887SOL    HW186558   1.574   6.825   5.861
94887SOL    HW286559   1.679   6.798   5.755
94888SOL     OW86560  12.131   8.449   1.267
94888SOL    HW186561  12.134   8.432   1.172
94888SOL    HW286562  12.218   8.425   1.298
94889SOL     OW86563   7.884  12.281   8.208
94889SOL    HW186564   7.804  12.242   8.244
94889SOL    HW286565   7.898  12.235   8.125
94890SOL     OW86566   3.772  10.392   5.406
94890SOL    HW186567   3.784  10.411   5.313
94890SOL    HW286568   3.742  10.475   5.443
94891SOL     OW86569   6.785  14.684   5.697
94891SOL    HW186570   6.806  14.776   5.717
94891SOL    HW286571   6.703  14.689   5.648
94892SOL     OW86572  10.139  11.617   2.068
94892SOL    HW186573  10.163  11.650   1.981
94892SOL    HW286574  10.221  11.618   2.118
94893SOL     OW86575  14.178   5.820   4.056
94893SOL    HW186576  14.173   5.913   4.035
94893SOL    HW286577  14.181   5.817   4.152
94894SOL     OW86578   0.193   5.417   2.388
94894SOL    HW186579   0.111   5.434   2.435
94894SOL    HW286580   0.167   5.366   2.312
94895SOL     OW86581  11.559   8.581   7.638
94895SOL    HW186582  11.556   8.664   7.591
94895SOL    HW286583  11.468   8.552   7.641
94896SOL     OW86584   3.283   3.374  13.095
94896SOL    HW186585   3.314   3.311  13.030
94896SOL    HW286586   3.193   3.394  13.069
94897SOL     OW86587  12.487   8.740  11.210
94897SOL    HW186588  12.439   8.661  11.186
94897SOL    HW286589  12.555   8.748  11.143
94898SOL     OW86590  14.115   7.347  11.161
94898SOL    HW186591  14.118   7.375  11.070
94898SOL    HW286592  14.048   7.279  11.164
94899SOL     OW86593   3.525   0.888   4.035
94899SOL    HW186594   3.567   0.828   3.974
94899SOL    HW286595   3.575   0.969   4.028
94900SOL     OW86596   9.501   2.997   3.153
94900SOL    HW186597   9.555   3.058   3.204
94900SOL    HW286598   9.557   2.971   3.080
94901SOL     OW86599   8.049   0.798   0.292
94901SOL    HW186600   8.104   0.720   0.293
94901SOL    HW286601   7.961   0.766   0.274
94902SOL     OW86602   3.905   0.666   2.071
94902SOL    HW186603   3.830   0.609   2.054
94902SOL    HW286604   3.974   0.633   2.014
94903SOL     OW86605  11.742   5.009   8.787
94903SOL    HW186606  11.792   5.041   8.711
94903SOL    HW286607  11.656   5.049   8.776
94904SOL     OW86608   7.550   3.153   7.248
94904SOL    HW186609   7.527   3.111   7.165
94904SOL    HW286610   7.569   3.081   7.307
94905SOL     OW86611   4.002  11.057   7.777
94905SOL    HW186612   3.909  11.044   7.759
94905SOL    HW286613   4.017  11.010   7.860
94906SOL     OW86614  10.695  13.012  14.572
94906SOL    HW186615  10.627  12.964  14.524
94906SOL    HW286616  10.757  13.039  14.504
94907SOL     OW86617   8.759  10.942   6.651
94907SOL    HW186618   8.814  10.911   6.723
94907SOL    HW286619   8.795  10.900   6.573
94908SOL     OW86620  12.268   0.993   0.851
94908SOL    HW186621  12.315   1.041   0.783
94908SOL    HW286622  12.182   1.034   0.854
94909SOL     OW86623   9.908  14.481   0.128
94909SOL    HW186624   9.905  14.524   0.214
94909SOL    HW286625   9.816  14.467   0.106
94910SOL     OW86626   7.401   7.798  13.854
94910SOL    HW186627   7.439   7.879  13.821
94910SOL    HW286628   7.311   7.799  13.821
94911SOL     OW86629   3.582  14.714  10.399
94911SOL    HW186630   3.594  14.623  10.426
94911SOL    HW286631   3.515  14.709  10.331
94912SOL     OW86632   2.834   6.584   0.641
94912SOL    HW186633   2.893   6.579   0.717
94912SOL    HW286634   2.844   6.673   0.608
94913SOL     OW86635   7.840   9.836   8.877
94913SOL    HW186636   7.774   9.770   8.854
94913SOL    HW286637   7.862   9.817   8.968
94914SOL     OW86638  13.589   0.258  11.313
94914SOL    HW186639  13.522   0.214  11.261
94914SOL    HW286640  13.600   0.202  11.390
94915SOL     OW86641   4.624   3.424   2.863
94915SOL    HW186642   4.535   3.437   2.897
94915SOL    HW286643   4.673   3.392   2.938
94916SOL     OW86644   9.886   8.875  13.205
94916SOL    HW186645   9.969   8.832  13.223
94916SOL    HW286646   9.851   8.829  13.128
94917SOL     OW86647   3.743  11.254  13.733
94917SOL    HW186648   3.677  11.232  13.668
94917SOL    HW286649   3.820  11.279  13.682
94918SOL     OW86650   5.195   5.986   4.911
94918SOL    HW186651   5.240   5.999   4.827
94918SOL    HW286652   5.156   6.071   4.930
94919SOL     OW86653   8.164   1.287   7.402
94919SOL    HW186654   8.238   1.311   7.458
94919SOL    HW286655   8.198   1.214   7.350
94920SOL     OW86656   5.590   2.876   9.832
94920SOL    HW186657   5.560   2.798   9.878
94920SOL    HW286658   5.545   2.948   9.875
94921SOL     OW86659   6.947   5.709  10.123
94921SOL    HW186660   6.930   5.801  10.140
94921SOL    HW286661   7.041   5.698  10.139
94922SOL     OW86662  12.196   7.962   7.341
94922SOL    HW186663  12.186   8.002   7.254
94922SOL    HW286664  12.198   8.037   7.401
94923SOL     OW86665  14.697   7.224  14.731
94923SOL    HW186666  14.634   7.192  14.796
94923SOL    HW286667  14.780   7.230  14.780
94924SOL     OW86668  12.123   3.797   7.094
94924SOL    HW186669  12.176   3.832   7.023
94924SOL    HW286670  12.185   3.782   7.165
94925SOL     OW86671   3.379  12.618   9.068
94925SOL    HW186672   3.337  12.567   9.000
94925SOL    HW286673   3.446  12.669   9.022
94926SOL     OW86674   9.305  11.887   9.131
94926SOL    HW186675   9.323  11.793   9.126
94926SOL    HW286676   9.309  11.908   9.224
94927SOL     OW86677  12.611   4.956  10.478
94927SOL    HW186678  12.516   4.960  10.489
94927SOL    HW286679  12.635   5.042  10.443
94928SOL     OW86680   0.011  13.271   7.662
94928SOL    HW186681  14.813  13.339   7.676
94928SOL    HW286682   0.089  13.303   7.708
94929SOL     OW86683   0.606   7.185  13.092
94929SOL    HW186684   0.612   7.233  13.174
94929SOL    HW286685   0.525   7.136  13.097
94930SOL     OW86686   2.094   4.323   7.604
94930SOL    HW186687   2.177   4.276   7.615
94930SOL    HW286688   2.107   4.374   7.524
94931SOL     OW86689  11.393   2.056  11.653
94931SOL    HW186690  11.315   2.000  11.650
94931SOL    HW286691  11.416   2.070  11.561
94932SOL     OW86692   8.801   2.999   1.983
94932SOL    HW186693   8.839   3.082   1.956
94932SOL    HW286694   8.791   3.006   2.078
94933SOL     OW86695   4.935  13.365   5.783
94933SOL    HW186696   4.898  13.390   5.698
94933SOL    HW286697   5.029  13.379   5.773
94934SOL     OW86698  10.110   2.027   1.469
94934SOL    HW186699  10.033   2.083   1.478
94934SOL    HW286700  10.184   2.088   1.475
94935SOL     OW86701   2.283   6.957   6.029
94935SOL    HW186702   2.244   6.875   5.998
94935SOL    HW286703   2.212   7.001   6.076
94936SOL     OW86704   9.122   9.410   3.234
94936SOL    HW186705   9.078   9.448   3.310
94936SOL    HW286706   9.163   9.485   3.191
94937SOL     OW86707   5.383  14.444  13.547
94937SOL    HW186708   5.300  14.401  13.526
94937SOL    HW286709   5.383  14.452  13.642
94938SOL     OW86710   9.833  11.300   2.192
94938SOL    HW186711   9.874  11.384   2.174
94938SOL    HW286712   9.795  11.310   2.280
94939SOL     OW86713   7.313   2.749  11.786
94939SOL    HW186714   7.238   2.701  11.821
94939SOL    HW286715   7.331   2.707  11.702
94940SOL     OW86716   2.349   4.763  13.704
94940SOL    HW186717   2.270   4.763  13.650
94940SOL    HW286718   2.421   4.780  13.643
94941SOL     OW86719   2.487   8.962  13.055
94941SOL    HW186720   2.451   8.881  13.091
94941SOL    HW286721   2.531   8.935  12.974
94942SOL     OW86722  12.952   2.160  10.782
94942SOL    HW186723  12.963   2.152  10.877
94942SOL    HW286724  12.866   2.121  10.764
94943SOL     OW86725   5.863   4.290   2.762
94943SOL    HW186726   5.949   4.331   2.754
94943SOL    HW286727   5.867   4.214   2.704
94944SOL     OW86728   1.130  12.557   9.232
94944SOL    HW186729   1.172  12.642   9.248
94944SOL    HW286730   1.044  12.564   9.272
94945SOL     OW86731  13.788   0.371   9.079
94945SOL    HW186732  13.781   0.341   8.988
94945SOL    HW286733  13.699   0.364   9.114
94946SOL     OW86734   5.025   2.908   8.836
94946SOL    HW186735   5.121   2.910   8.834
94946SOL    HW286736   5.004   2.823   8.874
94947SOL     OW86737   1.782  12.100   8.032
94947SOL    HW186738   1.778  12.088   8.127
94947SOL    HW286739   1.871  12.133   8.017
94948SOL     OW86740  13.676  14.495  11.731
94948SOL    HW186741  13.724  14.415  11.748
94948SOL    HW286742  13.738  14.565  11.751
94949SOL     OW86743   4.724   9.770   0.161
94949SOL    HW186744   4.671   9.691   0.170
94949SOL    HW286745   4.782   9.752   0.088
94950SOL     OW86746  11.662  10.283   9.401
94950SOL    HW186747  11.625  10.362   9.363
94950SOL    HW286748  11.672  10.303   9.494
94951SOL     OW86749   2.441   4.354   7.917
94951SOL    HW186750   2.481   4.279   7.961
94951SOL    HW286751   2.501   4.426   7.935
94952SOL     OW86752  10.390   5.543  12.398
94952SOL    HW186753  10.400   5.454  12.432
94952SOL    HW286754  10.297   5.563  12.413
94953SOL     OW86755  10.466  10.035   9.387
94953SOL    HW186756  10.393  10.005   9.442
94953SOL    HW286757  10.465   9.975   9.312
94954SOL     OW86758   0.951   0.912   6.217
94954SOL    HW186759   0.937   0.961   6.298
94954SOL    HW286760   0.874   0.855   6.211
94955SOL     OW86761   3.384   9.878  14.738
94955SOL    HW186762   3.325   9.811  14.774
94955SOL    HW286763   3.452   9.828  14.693
94956SOL     OW86764  14.023   8.428  14.277
94956SOL    HW186765  14.113   8.450  14.252
94956SOL    HW286766  14.017   8.455  14.369
94957SOL     OW86767   9.177   1.910   1.342
94957SOL    HW186768   9.250   1.849   1.353
94957SOL    HW286769   9.164   1.948   1.429
94958SOL     OW86770  14.104  10.087   0.770
94958SOL    HW186771  14.056  10.170   0.775
94958SOL    HW286772  14.196  10.113   0.764
94959SOL     OW86773   9.833   1.961   6.851
94959SOL    HW186774   9.825   1.907   6.772
94959SOL    HW286775   9.833   1.898   6.923
94960SOL     OW86776  14.435   7.409  12.527
94960SOL    HW186777  14.370   7.389  12.594
94960SOL    HW286778  14.384   7.425  12.447
94961SOL     OW86779  12.330   6.264   7.343
94961SOL    HW186780  12.309   6.179   7.382
94961SOL    HW286781  12.367   6.242   7.258
94962SOL     OW86782   4.325   0.585   1.991
94962SOL    HW186783   4.402   0.538   2.023
94962SOL    HW286784   4.324   0.668   2.039
94963SOL     OW86785  10.178  11.469   7.212
94963SOL    HW186786  10.145  11.387   7.175
94963SOL    HW286787  10.104  11.502   7.264
94964SOL     OW86788   2.946  11.445   4.337
94964SOL    HW186789   3.019  11.385   4.353
94964SOL    HW286790   2.887  11.396   4.279
94965SOL     OW86791  12.537   8.108   5.069
94965SOL    HW186792  12.528   8.067   4.983
94965SOL    HW286793  12.604   8.056   5.114
94966SOL     OW86794  11.671   3.456  12.615
94966SOL    HW186795  11.591   3.404  12.613
94966SOL    HW286796  11.717   3.430  12.535
94967SOL     OW86797   5.479   0.644   7.913
94967SOL    HW186798   5.532   0.723   7.922
94967SOL    HW286799   5.540   0.578   7.880
94968SOL     OW86800   4.920   0.140  12.970
94968SOL    HW186801   4.936   0.059  12.923
94968SOL    HW286802   4.828   0.161  12.952
94969SOL     OW86803   8.935  12.163   5.610
94969SOL    HW186804   9.004  12.155   5.545
94969SOL    HW286805   8.962  12.236   5.665
94970SOL     OW86806  14.120   3.848  14.237
94970SOL    HW186807  14.071   3.918  14.279
94970SOL    HW286808  14.206   3.851  14.278
94971SOL     OW86809  11.300   2.203   3.788
94971SOL    HW186810  11.359   2.278   3.778
94971SOL    HW286811  11.229   2.235   3.844
94972SOL     OW86812   8.562   2.948   7.695
94972SOL    HW186813   8.610   2.890   7.755
94972SOL    HW286814   8.523   3.014   7.752
94973SOL     OW86815   4.441  12.859  14.664
94973SOL    HW186816   4.409  12.821  14.746
94973SOL    HW286817   4.468  12.948  14.688
94974SOL     OW86818  11.607  13.879  10.963
94974SOL    HW186819  11.531  13.871  10.905
94974SOL    HW286820  11.569  13.897  11.049
94975SOL     OW86821  13.776   3.418   4.473
94975SOL    HW186822  13.861   3.436   4.432
94975SOL    HW286823  13.734   3.355   4.414
94976SOL     OW86824   0.147   3.707   2.779
94976SOL    HW186825   0.237   3.715   2.811
94976SOL    HW286826   0.130   3.791   2.736
94977SOL     OW86827  11.527   8.819   7.515
94977SOL    HW186828  11.615   8.834   7.478
94977SOL    HW286829  11.478   8.777   7.444
94978SOL     OW86830   4.380   5.510   0.792
94978SOL    HW186831   4.332   5.430   0.811
94978SOL    HW286832   4.313   5.574   0.769
94979SOL     OW86833   7.082   8.650  11.251
94979SOL    HW186834   7.162   8.677  11.296
94979SOL    HW286835   7.047   8.731  11.213
94980SOL     OW86836   2.495   1.729  10.817
94980SOL    HW186837   2.571   1.760  10.766
94980SOL    HW286838   2.419   1.764  10.771
94981SOL     OW86839   7.587  14.200   0.912
94981SOL    HW186840   7.526  14.218   0.841
94981SOL    HW286841   7.665  14.251   0.890
94982SOL     OW86842   3.655   2.841   9.565
94982SOL    HW186843   3.612   2.861   9.648
94982SOL    HW286844   3.686   2.751   9.575
94983SOL     OW86845   2.792   5.563   7.229
94983SOL    HW186846   2.774   5.470   7.244
94983SOL    HW286847   2.834   5.565   7.143
94984SOL     OW86848   3.681  12.777   4.142
94984SOL    HW186849   3.715  12.862   4.169
94984SOL    HW286850   3.616  12.797   4.075
94985SOL     OW86851  12.552   6.056   2.609
94985SOL    HW186852  12.464   6.036   2.577
94985SOL    HW286853  12.588   6.116   2.544
94986SOL     OW86854   5.340   0.026   2.954
94986SOL    HW186855   5.326   0.091   2.885
94986SOL    HW286856   5.335  14.810   2.910
94987SOL     OW86857   6.282   0.584   4.542
94987SOL    HW186858   6.272   0.514   4.607
94987SOL    HW286859   6.331   0.543   4.471
94988SOL     OW86860  11.991   5.262   3.209
94988SOL    HW186861  11.903   5.232   3.229
94988SOL    HW286862  11.979   5.333   3.145
94989SOL     OW86863   5.096   7.551  12.242
94989SOL    HW186864   5.072   7.644  12.233
94989SOL    HW286865   5.170   7.540  12.182
94990SOL     OW86866  12.073   7.503   7.968
94990SOL    HW186867  12.147   7.492   8.026
94990SOL    HW286868  12.009   7.438   7.997
94991SOL     OW86869   4.323  14.225   0.336
94991SOL    HW186870   4.386  14.250   0.268
94991SOL    HW286871   4.361  14.258   0.417
94992SOL     OW86872   8.036  11.098   1.437
94992SOL    HW186873   7.964  11.051   1.395
94992SOL    HW286874   7.994  11.164   1.492
94993SOL     OW86875   5.447   7.963   3.351
94993SOL    HW186876   5.387   8.008   3.410
94993SOL    HW286877   5.509   8.030   3.323
94994SOL     OW86878   7.685   9.632   3.797
94994SOL    HW186879   7.676   9.699   3.729
94994SOL    HW286880   7.618   9.653   3.861
94995SOL     OW86881   8.030  13.058   4.851
94995SOL    HW186882   7.998  13.128   4.795
94995SOL    HW286883   8.034  13.098   4.938
94996SOL     OW86884  14.133   5.884  13.828
94996SOL    HW186885  14.211   5.939  13.831
94996SOL    HW286886  14.127   5.846  13.916
94997SOL     OW86887  14.330   8.193   9.070
94997SOL    HW186888  14.336   8.287   9.055
94997SOL    HW286889  14.421   8.165   9.083
94998SOL     OW86890   7.588  11.583   0.026
94998SOL    HW186891   7.631  11.551   0.106
94998SOL    HW286892   7.585  11.678   0.037
94999SOL     OW86893   7.875  13.725  13.339
94999SOL    HW186894   7.870  13.631  13.356
94999SOL    HW286895   7.796  13.760  13.379
95000SOL     OW86896  14.494  11.082   0.642
95000SOL    HW186897  14.529  11.114   0.558
95000SOL    HW286898  14.551  11.008   0.664
95001SOL     OW86899   1.960   8.754  13.540
95001SOL    HW186900   1.908   8.785  13.465
95001SOL    HW286901   1.963   8.659  13.529
95002SOL     OW86902   0.023   0.645   2.154
95002SOL    HW186903   0.003   0.679   2.067
95002SOL    HW286904   0.088   0.705   2.189
95003SOL     OW86905   3.432   7.579  13.571
95003SOL    HW186906   3.477   7.536  13.499
95003SOL    HW286907   3.345   7.600  13.537
95004SOL     OW86908   5.244   4.776  11.694
95004SOL    HW186909   5.160   4.730  11.698
95004SOL    HW286910   5.223   4.866  11.720
95005SOL     OW86911   9.541   2.865   4.860
95005SOL    HW186912   9.457   2.819   4.870
95005SOL    HW286913   9.578   2.828   4.779
95006SOL     OW86914   5.125  14.256   5.510
95006SOL    HW186915   5.041  14.214   5.529
95006SOL    HW286916   5.190  14.190   5.534
95007SOL     OW86917  10.512  10.424   8.712
95007SOL    HW186918  10.447  10.490   8.689
95007SOL    HW286919  10.593  10.473   8.726
95008SOL     OW86920   8.522   0.335  13.067
95008SOL    HW186921   8.614   0.309  13.059
95008SOL    HW286922   8.487   0.330  12.978
95009SOL     OW86923  11.060   5.690   0.491
95009SOL    HW186924  11.016   5.729   0.416
95009SOL    HW286925  11.154   5.701   0.472
95010SOL     OW86926   3.361   0.106   0.481
95010SOL    HW186927   3.371   0.167   0.554
95010SOL    HW286928   3.441   0.053   0.483
95011SOL     OW86929   3.310   6.405  14.386
95011SOL    HW186930   3.268   6.388  14.470
95011SOL    HW286931   3.272   6.341  14.326
95012SOL     OW86932   7.458   9.300  12.580
95012SOL    HW186933   7.468   9.376  12.523
95012SOL    HW286934   7.422   9.335  12.661
95013SOL     OW86935  10.667   0.131  10.784
95013SOL    HW186936  10.688   0.213  10.828
95013SOL    HW286937  10.746   0.107  10.737
95014SOL     OW86938  14.031   6.034   4.909
95014SOL    HW186939  13.969   5.978   4.955
95014SOL    HW286940  14.090   6.067   4.977
95015SOL     OW86941   2.824  13.083   8.593
95015SOL    HW186942   2.775  13.016   8.546
95015SOL    HW286943   2.894  13.035   8.637
95016SOL     OW86944   6.232   6.701   4.537
95016SOL    HW186945   6.324   6.717   4.558
95016SOL    HW286946   6.226   6.719   4.443
95017SOL     OW86947  13.436   9.933   4.662
95017SOL    HW186948  13.463   9.921   4.753
95017SOL    HW286949  13.396   9.849   4.637
95018SOL     OW86950  13.236   8.965   1.527
95018SOL    HW186951  13.314   8.911   1.540
95018SOL    HW286952  13.167   8.902   1.507
95019SOL     OW86953   4.232   6.858  11.556
95019SOL    HW186954   4.221   6.849  11.461
95019SOL    HW286955   4.289   6.785  11.581
95020SOL     OW86956  11.110   3.430   1.206
95020SOL    HW186957  11.200   3.462   1.197
95020SOL    HW286958  11.120   3.338   1.230
95021SOL     OW86959  11.835   4.491  12.578
95021SOL    HW186960  11.926   4.519  12.588
95021SOL    HW286961  11.830   4.408  12.625
95022SOL     OW86962   2.813   3.394  12.375
95022SOL    HW186963   2.762   3.322  12.336
95022SOL    HW286964   2.904   3.372  12.355
95023SOL     OW86965  12.860   6.995  14.100
95023SOL    HW186966  12.952   7.005  14.076
95023SOL    HW286967  12.816   7.071  14.062
95024SOL     OW86968  10.293  10.925   2.525
95024SOL    HW186969  10.238  10.968   2.459
95024SOL    HW286970  10.240  10.851   2.555
95025SOL     OW86971   9.677   3.800   4.448
95025SOL    HW186972   9.635   3.755   4.375
95025SOL    HW286973   9.651   3.749   4.525
95026SOL     OW86974   6.087   7.261  12.237
95026SOL    HW186975   6.071   7.198  12.167
95026SOL    HW286976   6.161   7.314  12.206
95027SOL     OW86977  13.436  11.480  14.555
95027SOL    HW186978  13.515  11.442  14.515
95027SOL    HW286979  13.456  11.485  14.649
95028SOL     OW86980  13.803   0.802   3.867
95028SOL    HW186981  13.853   0.729   3.832
95028SOL    HW286982  13.800   0.866   3.795
95029SOL     OW86983   6.786   1.198  14.574
95029SOL    HW186984   6.834   1.255  14.634
95029SOL    HW286985   6.733   1.142  14.631
95030SOL     OW86986  10.665   2.792   7.537
95030SOL    HW186987  10.641   2.854   7.606
95030SOL    HW286988  10.690   2.712   7.584
95031SOL     OW86989   6.406   9.030   5.274
95031SOL    HW186990   6.393   8.953   5.218
95031SOL    HW286991   6.500   9.029   5.293
95032SOL     OW86992   2.649   5.378  12.816
95032SOL    HW186993   2.689   5.459  12.846
95032SOL    HW286994   2.715   5.311  12.834
95033SOL     OW86995   2.283  12.817   7.984
95033SOL    HW186996   2.197  12.844   7.952
95033SOL    HW286997   2.297  12.731   7.945
95034SOL     OW86998   4.011   5.688  10.261
95034SOL    HW186999   4.059   5.673  10.342
95034SOL    HW287000   3.972   5.603  10.240
95035SOL     OW87001   6.180   9.023   4.715
95035SOL    HW187002   6.226   8.948   4.753
95035SOL    HW287003   6.100   8.987   4.679
95036SOL     OW87004  10.394  12.913   4.454
95036SOL    HW187005  10.438  12.865   4.524
95036SOL    HW287006  10.459  12.975   4.423
95037SOL     OW87007  11.448   1.166   4.369
95037SOL    HW187008  11.435   1.132   4.457
95037SOL    HW287009  11.511   1.237   4.379
95038SOL     OW87010   6.600  10.234  12.839
95038SOL    HW187011   6.663  10.284  12.787
95038SOL    HW287012   6.526  10.221  12.780
95039SOL     OW87013  12.632   5.715   5.532
95039SOL    HW187014  12.725   5.713   5.556
95039SOL    HW287015  12.595   5.639   5.576
95040SOL     OW87016  13.581   3.983   9.325
95040SOL    HW187017  13.655   4.043   9.314
95040SOL    HW287018  13.612   3.918   9.387
95041SOL     OW87019  10.768  13.928  12.844
95041SOL    HW187020  10.735  13.976  12.920
95041SOL    HW287021  10.720  13.845  12.847
95042SOL     OW87022   2.013   0.787   6.123
95042SOL    HW187023   2.071   0.829   6.060
95042SOL    HW287024   2.072   0.747   6.187
95043SOL     OW87025   8.772   8.156   1.238
95043SOL    HW187026   8.809   8.233   1.195
95043SOL    HW287027   8.799   8.082   1.183
95044SOL     OW87028   5.428   2.216  11.765
95044SOL    HW187029   5.479   2.241  11.842
95044SOL    HW287030   5.407   2.124  11.778
95045SOL     OW87031   7.651  11.155   8.987
95045SOL    HW187032   7.707  11.149   8.910
95045SOL    HW287033   7.616  11.066   8.998
95046SOL     OW87034   4.497   6.011   8.335
95046SOL    HW187035   4.458   6.097   8.351
95046SOL    HW287036   4.549   6.023   8.256
95047SOL     OW87037   1.805   5.729   5.798
95047SOL    HW187038   1.895   5.702   5.817
95047SOL    HW287039   1.751   5.660   5.837
95048SOL     OW87040   9.449   3.096   2.196
95048SOL    HW187041   9.398   3.018   2.177
95048SOL    HW287042   9.529   3.063   2.238
95049SOL     OW87043   5.947   1.219   7.890
95049SOL    HW187044   5.855   1.242   7.890
95049SOL    HW287045   5.972   1.214   7.798
95050SOL     OW87046   1.326   8.567   3.327
95050SOL    HW187047   1.323   8.650   3.278
95050SOL    HW287048   1.268   8.583   3.402
95051SOL     OW87049   1.957  13.650  13.087
95051SOL    HW187050   2.035  13.622  13.040
95051SOL    HW287051   1.989  13.709  13.155
95052SOL     OW87052   4.760   9.259  12.553
95052SOL    HW187053   4.759   9.309  12.634
95052SOL    HW287054   4.748   9.325  12.484
95053SOL     OW87055   8.500   7.495   3.287
95053SOL    HW187056   8.476   7.586   3.302
95053SOL    HW287057   8.505   7.486   3.192
95054SOL     OW87058   3.049   9.337   2.476
95054SOL    HW187059   3.106   9.407   2.509
95054SOL    HW287060   2.965   9.379   2.462
95055SOL     OW87061  13.016   8.707   8.033
95055SOL    HW187062  12.932   8.665   8.053
95055SOL    HW287063  12.994   8.800   8.025
95056SOL     OW87064  11.839  14.235   3.436
95056SOL    HW187065  11.925  14.252   3.473
95056SOL    HW287066  11.853  14.233   3.341
95057SOL     OW87067  14.107   2.524   4.025
95057SOL    HW187068  14.134   2.563   4.108
95057SOL    HW287069  14.106   2.596   3.963
95058SOL     OW87070  11.890   3.438   6.359
95058SOL    HW187071  11.872   3.346   6.341
95058SOL    HW287072  11.821   3.486   6.313
95059SOL     OW87073  14.456  12.824   0.358
95059SOL    HW187074  14.480  12.870   0.278
95059SOL    HW287075  14.521  12.853   0.423
95060SOL     OW87076   8.000   4.425   5.266
95060SOL    HW187077   8.055   4.383   5.332
95060SOL    HW287078   7.923   4.369   5.259
95061SOL     OW87079   1.208   3.851   8.655
95061SOL    HW187080   1.211   3.895   8.571
95061SOL    HW287081   1.115   3.847   8.677
95062SOL     OW87082  11.493   9.941   9.823
95062SOL    HW187083  11.460  10.017   9.776
95062SOL    HW287084  11.519   9.879   9.755
95063SOL     OW87085  11.179  14.252   9.181
95063SOL    HW187086  11.208  14.299   9.259
95063SOL    HW287087  11.185  14.160   9.205
95064SOL     OW87088   9.802  12.303   8.909
95064SOL    HW187089   9.871  12.328   8.971
95064SOL    HW287090   9.725  12.350   8.939
95065SOL     OW87091   9.485   3.368   2.626
95065SOL    HW187092   9.468   3.275   2.615
95065SOL    HW287093   9.565   3.384   2.577
95066SOL     OW87094   1.964  10.612   0.315
95066SOL    HW187095   1.943  10.680   0.380
95066SOL    HW287096   1.930  10.646   0.233
95067SOL     OW87097   0.991  11.924  13.647
95067SOL    HW187098   1.049  11.944  13.720
95067SOL    HW287099   0.935  11.854  13.681
95068SOL     OW87100   4.184   7.271  12.940
95068SOL    HW187101   4.149   7.346  12.892
95068SOL    HW287102   4.267   7.251  12.897
95069SOL     OW87103   2.092   2.145  12.883
95069SOL    HW187104   2.095   2.120  12.976
95069SOL    HW287105   2.183   2.156  12.858
95070SOL     OW87106   0.117   1.676  12.847
95070SOL    HW187107   0.107   1.592  12.891
95070SOL    HW287108   0.027   1.707  12.833
95071SOL     OW87109  10.343   3.358   0.454
95071SOL    HW187110  10.283   3.362   0.529
95071SOL    HW287111  10.329   3.441   0.408
95072SOL     OW87112   1.008   5.114   3.528
95072SOL    HW187113   1.072   5.126   3.458
95072SOL    HW287114   1.055   5.140   3.607
95073SOL     OW87115   7.930  11.273   4.281
95073SOL    HW187116   7.888  11.190   4.306
95073SOL    HW287117   7.870  11.341   4.312
95074SOL     OW87118   8.669   3.610  11.024
95074SOL    HW187119   8.677   3.542  10.957
95074SOL    HW287120   8.720   3.577  11.098
95075SOL     OW87121   6.230   4.091   9.697
95075SOL    HW187122   6.260   4.092   9.606
95075SOL    HW287123   6.310   4.096   9.749
95076SOL     OW87124   2.359  12.087  12.252
95076SOL    HW187125   2.315  12.029  12.315
95076SOL    HW287126   2.341  12.047  12.166
95077SOL     OW87127   7.842   8.895  12.730
95077SOL    HW187128   7.871   8.814  12.772
95077SOL    HW287129   7.831   8.872  12.638
95078SOL     OW87130   5.764  11.742   5.260
95078SOL    HW187131   5.789  11.661   5.216
95078SOL    HW287132   5.700  11.783   5.201
95079SOL     OW87133   8.677  10.351  10.194
95079SOL    HW187134   8.744  10.389  10.138
95079SOL    HW287135   8.711  10.265  10.218
95080SOL     OW87136  11.147  13.376   6.128
95080SOL    HW187137  11.080  13.424   6.079
95080SOL    HW287138  11.200  13.444   6.170
95081SOL     OW87139   3.877   8.990   9.543
95081SOL    HW187140   3.827   9.048   9.600
95081SOL    HW287141   3.950   8.961   9.596
95082SOL     OW87142  10.229   7.227   9.652
95082SOL    HW187143  10.312   7.182   9.668
95082SOL    HW287144  10.202   7.197   9.565
95083SOL     OW87145   9.751   9.991   7.238
95083SOL    HW187146   9.758  10.086   7.238
95083SOL    HW287147   9.677   9.972   7.181
95084SOL     OW87148  11.909   6.906   6.240
95084SOL    HW187149  11.850   6.955   6.183
95084SOL    HW287150  11.883   6.815   6.229
95085SOL     OW87151   7.487   6.949   0.352
95085SOL    HW187152   7.447   6.892   0.286
95085SOL    HW287153   7.506   7.030   0.306
95086SOL     OW87154   2.619   8.105   6.678
95086SOL    HW187155   2.624   8.075   6.769
95086SOL    HW287156   2.702   8.077   6.639
95087SOL     OW87157  10.348   4.190  11.020
95087SOL    HW187158  10.311   4.276  11.038
95087SOL    HW287159  10.388   4.198  10.933
95088SOL     OW87160  10.034   1.700   2.620
95088SOL    HW187161  10.116   1.656   2.642
95088SOL    HW287162   9.993   1.715   2.705
95089SOL     OW87163  14.619   6.595   4.670
95089SOL    HW187164  14.672   6.551   4.736
95089SOL    HW287165  14.571   6.662   4.718
95090SOL     OW87166  13.281   8.378   6.306
95090SOL    HW187167  13.304   8.356   6.216
95090SOL    HW287168  13.315   8.467   6.319
95091SOL     OW87169   3.486  10.902   3.846
95091SOL    HW187170   3.392  10.886   3.851
95091SOL    HW287171   3.516  10.844   3.776
95092SOL     OW87172  14.274   1.101   7.205
95092SOL    HW187173  14.201   1.097   7.143
95092SOL    HW287174  14.235   1.135   7.285
95093SOL     OW87175   8.002   6.583  14.800
95093SOL    HW187176   7.969   6.573  14.711
95093SOL    HW287177   8.096   6.600  14.789
95094SOL     OW87178   1.158   0.626   4.407
95094SOL    HW187179   1.185   0.612   4.498
95094SOL    HW287180   1.110   0.709   4.409
95095SOL     OW87181  13.962   7.733   6.062
95095SOL    HW187182  13.922   7.696   5.983
95095SOL    HW287183  13.924   7.683   6.134
95096SOL     OW87184  10.404  12.424   8.044
95096SOL    HW187185  10.494  12.392   8.043
95096SOL    HW287186  10.411  12.514   8.076
95097SOL     OW87187  14.865   4.956   0.857
95097SOL    HW187188  14.845   4.945   0.764
95097SOL    HW287189   0.031   4.871   0.884
95098SOL     OW87190   2.164   6.874   1.812
95098SOL    HW187191   2.070   6.878   1.828
95098SOL    HW287192   2.180   6.943   1.747
95099SOL     OW87193   9.784   6.656  13.471
95099SOL    HW187194   9.866   6.644  13.520
95099SOL    HW287195   9.799   6.735  13.418
95100SOL     OW87196  13.207   4.010   0.443
95100SOL    HW187197  13.301   3.993   0.443
95100SOL    HW287198  13.200   4.103   0.419
95101SOL     OW87199   6.313   7.095  14.304
95101SOL    HW187200   6.374   7.168  14.297
95101SOL    HW287201   6.231   7.128  14.267
95102SOL     OW87202   3.870   6.800   7.363
95102SOL    HW187203   3.837   6.882   7.399
95102SOL    HW287204   3.933   6.826   7.297
95103SOL     OW87205   6.848  11.159  12.074
95103SOL    HW187206   6.926  11.106  12.059
95103SOL    HW287207   6.802  11.161  11.990
95104SOL     OW87208   8.273   7.852   8.330
95104SOL    HW187209   8.233   7.938   8.340
95104SOL    HW287210   8.363   7.863   8.361
95105SOL     OW87211   6.349  12.674   5.626
95105SOL    HW187212   6.300  12.756   5.632
95105SOL    HW287213   6.285  12.610   5.593
95106SOL     OW87214   3.313   1.874  11.658
95106SOL    HW187215   3.247   1.903  11.595
95106SOL    HW287216   3.276   1.795  11.697
95107SOL     OW87217   2.947   1.645  13.378
95107SOL    HW187218   2.934   1.615  13.468
95107SOL    HW287219   3.018   1.590  13.345
95108SOL     OW87220   4.599   8.133   0.986
95108SOL    HW187221   4.677   8.102   0.938
95108SOL    HW287222   4.629   8.141   1.077
95109SOL     OW87223   3.557   4.737   1.965
95109SOL    HW187224   3.575   4.831   1.969
95109SOL    HW287225   3.604   4.701   2.041
95110SOL     OW87226  11.525   1.748   8.064
95110SOL    HW187227  11.504   1.690   7.990
95110SOL    HW287228  11.442   1.758   8.110
95111SOL     OW87229   5.246  11.322   8.188
95111SOL    HW187230   5.187  11.260   8.144
95111SOL    HW287231   5.329  11.314   8.140
95112SOL     OW87232   3.335  10.053   2.012
95112SOL    HW187233   3.372  10.023   1.929
95112SOL    HW287234   3.365   9.988   2.076
95113SOL     OW87235  13.384   8.646   2.523
95113SOL    HW187236  13.457   8.673   2.468
95113SOL    HW287237  13.423   8.590   2.589
95114SOL     OW87238   5.219  13.712   2.911
95114SOL    HW187239   5.263  13.723   2.995
95114SOL    HW287240   5.272  13.765   2.850
95115SOL     OW87241   8.436   4.696   1.647
95115SOL    HW187242   8.503   4.743   1.697
95115SOL    HW287243   8.479   4.675   1.564
95116SOL     OW87244  13.487   4.369   0.771
95116SOL    HW187245  13.525   4.384   0.858
95116SOL    HW287246  13.418   4.304   0.786
95117SOL     OW87247   7.549   5.499  10.723
95117SOL    HW187248   7.453   5.495  10.722
95117SOL    HW287249   7.575   5.430  10.783
95118SOL     OW87250  11.130   9.713   3.247
95118SOL    HW187251  11.191   9.780   3.216
95118SOL    HW287252  11.141   9.640   3.186
95119SOL     OW87253   5.983   4.404   8.465
95119SOL    HW187254   5.987   4.375   8.556
95119SOL    HW287255   5.925   4.341   8.422
95120SOL     OW87256   0.008   9.546   3.755
95120SOL    HW187257  14.860   9.623   3.700
95120SOL    HW287258   0.035   9.582   3.839
95121SOL     OW87259   1.321  10.401  11.614
95121SOL    HW187260   1.297  10.316  11.651
95121SOL    HW287261   1.309  10.390  11.520
95122SOL     OW87262  14.108   3.300   6.790
95122SOL    HW187263  14.127   3.277   6.699
95122SOL    HW287264  14.013   3.298   6.796
95123SOL     OW87265   1.149   2.472   9.917
95123SOL    HW187266   1.235   2.467   9.876
95123SOL    HW287267   1.119   2.381   9.919
95124SOL     OW87268   2.649   4.132   9.836
95124SOL    HW187269   2.611   4.219   9.844
95124SOL    HW287270   2.730   4.145   9.787
95125SOL     OW87271   2.906  11.632   1.483
95125SOL    HW187272   2.888  11.539   1.469
95125SOL    HW287273   3.000  11.641   1.466
95126SOL     OW87274   4.191   2.789   9.304
95126SOL    HW187275   4.119   2.786   9.241
95126SOL    HW287276   4.232   2.874   9.291
95127SOL     OW87277   1.821  11.001   9.387
95127SOL    HW187278   1.833  11.034   9.476
95127SOL    HW287279   1.761  10.928   9.396
95128SOL     OW87280   7.893   7.054  14.067
95128SOL    HW187281   7.840   7.093  14.136
95128SOL    HW287282   7.862   7.094  13.987
95129SOL     OW87283   4.316   0.945   0.850
95129SOL    HW187284   4.400   0.946   0.897
95129SOL    HW287285   4.326   1.013   0.783
95130SOL     OW87286   8.802  12.603   3.394
95130SOL    HW187287   8.735  12.535   3.389
95130SOL    HW287288   8.759  12.676   3.437
95131SOL     OW87289  11.259  10.838   0.367
95131SOL    HW187290  11.199  10.841   0.442
95131SOL    HW287291  11.346  10.828   0.407
95132SOL     OW87292   8.439  12.222   2.530
95132SOL    HW187293   8.386  12.142   2.528
95132SOL    HW287294   8.457  12.241   2.438
95133SOL     OW87295   4.797   7.648   2.061
95133SOL    HW187296   4.773   7.739   2.079
95133SOL    HW287297   4.881   7.637   2.105
95134SOL     OW87298   8.146   7.044  13.162
95134SOL    HW187299   8.139   7.029  13.068
95134SOL    HW287300   8.184   6.963  13.196
95135SOL     OW87301   4.513   4.573   7.387
95135SOL    HW187302   4.471   4.656   7.410
95135SOL    HW287303   4.518   4.525   7.470
95136SOL     OW87304   7.897  10.306   7.818
95136SOL    HW187305   7.956  10.381   7.815
95136SOL    HW287306   7.884  10.288   7.911
95137SOL     OW87307   9.584   0.519   2.278
95137SOL    HW187308   9.667   0.512   2.325
95137SOL    HW287309   9.575   0.612   2.259
95138SOL     OW87310   7.298  11.035   6.866
95138SOL    HW187311   7.324  11.125   6.886
95138SOL    HW287312   7.216  11.043   6.818
95139SOL     OW87313   9.404  13.864  13.217
95139SOL    HW187314   9.335  13.930  13.213
95139SOL    HW287315   9.407  13.837  13.309
95140SOL     OW87316   6.356   1.613  13.861
95140SOL    HW187317   6.302   1.558  13.804
95140SOL    HW287318   6.445   1.581  13.849
95141SOL     OW87319   9.165   8.916  14.544
95141SOL    HW187320   9.160   8.984  14.611
95141SOL    HW287321   9.179   8.964  14.463
95142SOL     OW87322   9.938  12.418   4.480
95142SOL    HW187323   9.958  12.327   4.458
95142SOL    HW287324   9.915  12.416   4.573
95143SOL     OW87325   1.064   6.909   2.242
95143SOL    HW187326   1.033   6.987   2.197
95143SOL    HW287327   1.157   6.923   2.255
95144SOL     OW87328  10.072   3.473   4.382
95144SOL    HW187329  10.037   3.449   4.297
95144SOL    HW287330  10.152   3.422   4.391
95145SOL     OW87331   3.494   2.943   8.408
95145SOL    HW187332   3.404   2.977   8.412
95145SOL    HW287333   3.483   2.851   8.385
95146SOL     OW87334   1.091   2.198   6.425
95146SOL    HW187335   1.178   2.214   6.462
95146SOL    HW287336   1.031   2.227   6.494
95147SOL     OW87337  12.938  10.908   1.799
95147SOL    HW187338  12.943  11.003   1.796
95147SOL    HW287339  13.024  10.878   1.772
95148SOL     OW87340  10.448   3.826   3.722
95148SOL    HW187341  10.362   3.864   3.735
95148SOL    HW287342  10.491   3.833   3.807
95149SOL     OW87343   6.509  12.821   1.148
95149SOL    HW187344   6.457  12.901   1.152
95149SOL    HW287345   6.594  12.849   1.114
95150SOL     OW87346  10.397  14.859   8.227
95150SOL    HW187347  10.367   0.053   8.293
95150SOL    HW287348  10.490  14.848   8.245
95151SOL     OW87349   1.952  12.099   7.225
95151SOL    HW187350   1.911  12.045   7.292
95151SOL    HW287351   2.042  12.067   7.221
95152SOL     OW87352   9.468   3.782  12.012
95152SOL    HW187353   9.452   3.692  12.039
95152SOL    HW287354   9.421   3.792  11.930
95153SOL     OW87355  13.194  10.426   6.324
95153SOL    HW187356  13.200  10.481   6.403
95153SOL    HW287357  13.284  10.401   6.305
95154SOL     OW87358   3.447   6.639   8.724
95154SOL    HW187359   3.541   6.653   8.723
95154SOL    HW287360   3.417   6.682   8.804
95155SOL     OW87361   1.422   6.037   8.708
95155SOL    HW187362   1.327   6.033   8.704
95155SOL    HW287363   1.444   6.122   8.670
95156SOL     OW87364   8.569   5.395   6.944
95156SOL    HW187365   8.517   5.371   6.867
95156SOL    HW287366   8.645   5.338   6.940
95157SOL     OW87367   0.489   6.809   0.267
95157SOL    HW187368   0.581   6.784   0.252
95157SOL    HW287369   0.489   6.904   0.262
95158SOL     OW87370   2.335  10.281  14.522
95158SOL    HW187371   2.352  10.196  14.480
95158SOL    HW287372   2.383  10.344  14.469
95159SOL     OW87373  11.583   2.050   0.371
95159SOL    HW187374  11.523   2.117   0.401
95159SOL    HW287375  11.665   2.097   0.353
95160SOL     OW87376   0.278   0.439  13.492
95160SOL    HW187377   0.331   0.397  13.560
95160SOL    HW287378   0.331   0.513  13.462
95161SOL     OW87379  10.360  13.608   5.306
95161SOL    HW187380  10.389  13.546   5.239
95161SOL    HW287381  10.333  13.686   5.258
95162SOL     OW87382   8.288   4.418   2.624
95162SOL    HW187383   8.194   4.413   2.638
95162SOL    HW287384   8.307   4.512   2.618
95163SOL     OW87385  12.086   9.700   7.339
95163SOL    HW187386  11.995   9.694   7.311
95163SOL    HW287387  12.083   9.754   7.418
95164SOL     OW87388   0.283   5.319   3.889
95164SOL    HW187389   0.310   5.327   3.797
95164SOL    HW287390   0.214   5.384   3.899
95165SOL     OW87391  13.727   8.170   3.433
95165SOL    HW187392  13.635   8.192   3.417
95165SOL    HW287393  13.775   8.244   3.395
95166SOL     OW87394  14.716   0.280   7.305
95166SOL    HW187395  14.797   0.309   7.263
95166SOL    HW287396  14.744   0.216   7.369
95167SOL     OW87397  12.857   7.109   6.480
95167SOL    HW187398  12.784   7.153   6.522
95167SOL    HW287399  12.886   7.044   6.545
95168SOL     OW87400   2.006  13.630   2.206
95168SOL    HW187401   1.974  13.647   2.295
95168SOL    HW287402   2.056  13.549   2.214
95169SOL     OW87403   2.513   4.482   0.054
95169SOL    HW187404   2.464   4.434   0.121
95169SOL    HW287405   2.604   4.453   0.064
95170SOL     OW87406   3.959   1.114   9.518
95170SOL    HW187407   3.986   1.187   9.574
95170SOL    HW287408   4.028   1.048   9.530
95171SOL     OW87409   1.751   7.118  11.506
95171SOL    HW187410   1.673   7.172  11.499
95171SOL    HW287411   1.820   7.169  11.463
95172SOL     OW87412   8.448   8.354   3.092
95172SOL    HW187413   8.389   8.365   3.166
95172SOL    HW287414   8.472   8.262   3.093
95173SOL     OW87415   6.879   1.802   1.516
95173SOL    HW187416   6.820   1.735   1.551
95173SOL    HW287417   6.931   1.829   1.592
95174SOL     OW87418   9.878  11.781   4.629
95174SOL    HW187419   9.895  11.712   4.564
95174SOL    HW287420   9.791  11.761   4.663
95175SOL     OW87421  12.946   7.115   8.521
95175SOL    HW187422  12.869   7.063   8.498
95175SOL    HW287423  13.008   7.052   8.557
95176SOL     OW87424  13.277   2.731  11.111
95176SOL    HW187425  13.247   2.693  11.029
95176SOL    HW287426  13.328   2.808  11.085
95177SOL     OW87427   5.152   8.004  14.577
95177SOL    HW187428   5.146   8.075  14.641
95177SOL    HW287429   5.108   7.930  14.618
95178SOL     OW87430   7.234   0.524  13.210
95178SOL    HW187431   7.192   0.471  13.143
95178SOL    HW287432   7.179   0.602  13.217
95179SOL     OW87433   6.943  11.828  10.175
95179SOL    HW187434   6.862  11.781  10.155
95179SOL    HW287435   6.921  11.920  10.165
95180SOL     OW87436   5.171   9.499  12.973
95180SOL    HW187437   5.227   9.424  12.995
95180SOL    HW287438   5.192   9.519  12.882
95181SOL     OW87439  11.660   8.167   4.674
95181SOL    HW187440  11.738   8.216   4.648
95181SOL    HW287441  11.650   8.184   4.768
95182SOL     OW87442   0.752   6.647   8.252
95182SOL    HW187443   0.733   6.740   8.260
95182SOL    HW287444   0.735   6.611   8.339
95183SOL     OW87445   2.272   5.381   4.631
95183SOL    HW187446   2.287   5.378   4.726
95183SOL    HW287447   2.360   5.389   4.593
95184SOL     OW87448   2.275   4.959   8.008
95184SOL    HW187449   2.277   4.876   8.056
95184SOL    HW287450   2.298   5.025   8.074
95185SOL     OW87451   7.190   4.627  13.913
95185SOL    HW187452   7.131   4.663  13.847
95185SOL    HW287453   7.132   4.578  13.972
95186SOL     OW87454   8.039   1.475  12.335
95186SOL    HW187455   8.108   1.517  12.385
95186SOL    HW287456   8.083   1.404  12.289
95187SOL     OW87457   2.510   0.645   3.746
95187SOL    HW187458   2.465   0.574   3.701
95187SOL    HW287459   2.441   0.689   3.796
95188SOL     OW87460   0.800   0.443   6.591
95188SOL    HW187461   0.890   0.466   6.614
95188SOL    HW287462   0.751   0.523   6.605
95189SOL     OW87463   6.933   7.706  11.893
95189SOL    HW187464   6.911   7.612  11.891
95189SOL    HW287465   7.029   7.708  11.893
95190SOL     OW87466   6.928   8.770   9.605
95190SOL    HW187467   6.948   8.742   9.515
95190SOL    HW287468   6.833   8.784   9.605
95191SOL     OW87469   3.912   4.421   7.776
95191SOL    HW187470   3.947   4.418   7.865
95191SOL    HW287471   3.984   4.388   7.721
95192SOL     OW87472  14.369   2.420   3.353
95192SOL    HW187473  14.432   2.443   3.285
95192SOL    HW287474  14.386   2.328   3.372
95193SOL     OW87475   5.365  14.863  13.999
95193SOL    HW187476   5.334   0.028  14.084
95193SOL    HW287477   5.320   0.048  13.934
95194SOL     OW87478  11.441   3.136  11.941
95194SOL    HW187479  11.460   3.093  11.858
95194SOL    HW287480  11.409   3.066  11.998
95195SOL     OW87481   1.840   0.868  14.803
95195SOL    HW187482   1.770   0.819  14.761
95195SOL    HW287483   1.823   0.959  14.781
95196SOL     OW87484   2.339   9.838   1.003
95196SOL    HW187485   2.319   9.793   0.921
95196SOL    HW287486   2.286   9.794   1.069
95197SOL     OW87487   0.651   2.909  12.341
95197SOL    HW187488   0.684   2.887  12.428
95197SOL    HW287489   0.695   2.991  12.318
95198SOL     OW87490  13.991  13.597  13.651
95198SOL    HW187491  14.054  13.648  13.701
95198SOL    HW287492  13.961  13.657  13.582
95199SOL     OW87493   0.624  11.552   6.632
95199SOL    HW187494   0.551  11.554   6.694
95199SOL    HW287495   0.701  11.572   6.684
95200SOL     OW87496   8.278   8.239  11.790
95200SOL    HW187497   8.299   8.151  11.822
95200SOL    HW287498   8.275   8.293  11.869
95201SOL     OW87499   5.690   6.491  11.633
95201SOL    HW187500   5.648   6.577  11.641
95201SOL    HW287501   5.692   6.475  11.538
95202SOL     OW87502  14.385   4.728   8.458
95202SOL    HW187503  14.313   4.754   8.401
95202SOL    HW287504  14.451   4.797   8.446
95203SOL     OW87505  13.329   5.861   1.406
95203SOL    HW187506  13.343   5.831   1.316
95203SOL    HW287507  13.372   5.795   1.461
95204SOL     OW87508   3.486  12.665   1.994
95204SOL    HW187509   3.448  12.577   1.986
95204SOL    HW287510   3.470  12.690   2.085
95205SOL     OW87511   9.519   6.910   6.880
95205SOL    HW187512   9.560   6.857   6.948
95205SOL    HW287513   9.568   6.993   6.881
95206SOL     OW87514  12.174  11.827   9.725
95206SOL    HW187515  12.184  11.796   9.815
95206SOL    HW287516  12.223  11.909   9.723
95207SOL     OW87517   7.496   4.020  12.596
95207SOL    HW187518   7.572   4.064  12.557
95207SOL    HW287519   7.484   4.064  12.680
95208SOL     OW87520   3.123  12.298   9.024
95208SOL    HW187521   3.086  12.385   9.040
95208SOL    HW287522   3.086  12.242   9.092
95209SOL     OW87523   3.337   5.049   8.900
95209SOL    HW187524   3.246   5.054   8.869
95209SOL    HW287525   3.329   5.034   8.994
95210SOL     OW87526  11.595  10.312   9.920
95210SOL    HW187527  11.533  10.246   9.950
95210SOL    HW287528  11.637  10.344  10.000
95211SOL     OW87529   9.053   9.854   4.172
95211SOL    HW187530   8.959   9.858   4.192
95211SOL    HW287531   9.096   9.858   4.257
95212SOL     OW87532   2.140   1.668   4.641
95212SOL    HW187533   2.197   1.630   4.708
95212SOL    HW287534   2.188   1.745   4.610
95213SOL     OW87535   1.964   2.426  10.443
95213SOL    HW187536   1.975   2.521  10.453
95213SOL    HW287537   2.052   2.395  10.421
95214SOL     OW87538  12.119   0.824   2.333
95214SOL    HW187539  12.184   0.835   2.403
95214SOL    HW287540  12.125   0.732   2.310
95215SOL     OW87541   6.267   5.409   6.780
95215SOL    HW187542   6.229   5.405   6.868
95215SOL    HW287543   6.232   5.333   6.735
95216SOL     OW87544   3.708   0.981  10.009
95216SOL    HW187545   3.741   0.918  10.073
95216SOL    HW287546   3.613   0.970  10.011
95217SOL     OW87547  13.972  11.554   1.949
95217SOL    HW187548  13.980  11.459   1.942
95217SOL    HW287549  13.890  11.568   1.996
95218SOL     OW87550   1.624  12.813  12.743
95218SOL    HW187551   1.653  12.760  12.817
95218SOL    HW287552   1.535  12.839  12.766
95219SOL     OW87553   6.264   0.064  12.222
95219SOL    HW187554   6.244   0.103  12.137
95219SOL    HW287555   6.344   0.014  12.207
95220SOL     OW87556   7.176  12.643  12.806
95220SOL    HW187557   7.121  12.621  12.881
95220SOL    HW287558   7.115  12.648  12.732
95221SOL     OW87559  12.760   1.080   5.678
95221SOL    HW187560  12.850   1.048   5.677
95221SOL    HW287561  12.708   1.007   5.645
95222SOL     OW87562  12.108   7.755  11.468
95222SOL    HW187563  12.033   7.771  11.524
95222SOL    HW287564  12.126   7.661  11.477
95223SOL     OW87565   6.330   3.984  12.520
95223SOL    HW187566   6.260   3.928  12.552
95223SOL    HW287567   6.301   4.073  12.539
95224SOL     OW87568  11.725   1.960   6.828
95224SOL    HW187569  11.716   2.012   6.908
95224SOL    HW287570  11.755   1.875   6.858
95225SOL     OW87571  14.773   5.184  14.213
95225SOL    HW187572  14.719   5.143  14.146
95225SOL    HW287573  14.846   5.124  14.225
95226SOL     OW87574  11.743   8.064  11.492
95226SOL    HW187575  11.788   8.006  11.554
95226SOL    HW287576  11.729   8.145  11.543
95227SOL     OW87577   5.732   8.707   8.290
95227SOL    HW187578   5.669   8.652   8.244
95227SOL    HW287579   5.743   8.784   8.234
95228SOL     OW87580  14.735   9.675  11.726
95228SOL    HW187581  14.682   9.747  11.759
95228SOL    HW287582  14.677   9.599  11.731
95229SOL     OW87583  10.401  10.109   5.629
95229SOL    HW187584  10.327  10.083   5.683
95229SOL    HW287585  10.455  10.164   5.686
95230SOL     OW87586   5.535  12.206  11.060
95230SOL    HW187587   5.628  12.191  11.077
95230SOL    HW287588   5.532  12.286  11.007
95231SOL     OW87589   7.211  10.166   8.713
95231SOL    HW187590   7.187  10.164   8.806
95231SOL    HW287591   7.193  10.078   8.681
95232SOL     OW87592  14.114  13.990   4.406
95232SOL    HW187593  14.113  14.084   4.425
95232SOL    HW287594  14.204  13.963   4.425
95233SOL     OW87595   9.887  13.762  12.244
95233SOL    HW187596   9.920  13.767  12.334
95233SOL    HW287597   9.965  13.764  12.190
95234SOL     OW87598   6.669   6.797   9.459
95234SOL    HW187599   6.593   6.802   9.402
95234SOL    HW287600   6.692   6.888   9.477
95235SOL     OW87601   8.707   7.272   0.936
95235SOL    HW187602   8.616   7.242   0.944
95235SOL    HW287603   8.751   7.236   1.012
95236SOL     OW87604   9.685   1.526   5.765
95236SOL    HW187605   9.662   1.562   5.679
95236SOL    HW287606   9.778   1.546   5.774
95237SOL     OW87607  10.047  11.672   7.066
95237SOL    HW187608  10.086  11.760   7.065
95237SOL    HW287609  10.121  11.613   7.081
95238SOL     OW87610   4.494   0.324   2.900
95238SOL    HW187611   4.552   0.324   2.976
95238SOL    HW287612   4.483   0.232   2.877
95239SOL     OW87613   5.370   1.296   0.868
95239SOL    HW187614   5.448   1.251   0.835
95239SOL    HW287615   5.386   1.389   0.849
95240SOL     OW87616   9.337  12.286  11.529
95240SOL    HW187617   9.246  12.256  11.522
95240SOL    HW287618   9.338  12.341  11.607
95241SOL     OW87619   8.257   1.387  11.831
95241SOL    HW187620   8.331   1.447  11.821
95241SOL    HW287621   8.183   1.444  11.850
95242SOL     OW87622   8.123   0.428  13.939
95242SOL    HW187623   8.162   0.494  13.882
95242SOL    HW287624   8.031   0.455  13.947
95243SOL     OW87625   1.574  10.805   5.835
95243SOL    HW187626   1.499  10.779   5.782
95243SOL    HW287627   1.619  10.723   5.854
95244SOL     OW87628   5.766   3.249   2.628
95244SOL    HW187629   5.779   3.286   2.716
95244SOL    HW287630   5.769   3.155   2.641
95245SOL     OW87631  14.332   9.651   4.811
95245SOL    HW187632  14.401   9.614   4.757
95245SOL    HW287633  14.283   9.575   4.843
95246SOL     OW87634   9.673  12.947  13.323
95246SOL    HW187635   9.621  12.881  13.369
95246SOL    HW287636   9.680  12.913  13.234
95247SOL     OW87637   9.954   3.537   0.766
95247SOL    HW187638   9.867   3.538   0.725
95247SOL    HW287639  10.012   3.501   0.698
95248SOL     OW87640  10.027   2.087  13.435
95248SOL    HW187641   9.941   2.077  13.475
95248SOL    HW287642  10.084   2.030  13.486
95249SOL     OW87643   3.599  12.805  11.708
95249SOL    HW187644   3.637  12.811  11.620
95249SOL    HW287645   3.560  12.892  11.723
95250SOL     OW87646   1.254   7.710  14.077
95250SOL    HW187647   1.289   7.778  14.020
95250SOL    HW287648   1.318   7.703  14.148
95251SOL     OW87649   8.752   9.413   7.132
95251SOL    HW187650   8.792   9.357   7.198
95251SOL    HW287651   8.685   9.358   7.091
95252SOL     OW87652   6.361  13.300   3.167
95252SOL    HW187653   6.433  13.310   3.229
95252SOL    HW287654   6.289  13.351   3.206
95253SOL     OW87655   6.301  11.938   7.638
95253SOL    HW187656   6.229  11.907   7.583
95253SOL    HW287657   6.380  11.900   7.599
95254SOL     OW87658  13.385  13.713   8.443
95254SOL    HW187659  13.412  13.775   8.375
95254SOL    HW287660  13.290  13.716   8.442
95255SOL     OW87661  11.715   7.922   3.825
95255SOL    HW187662  11.712   8.000   3.770
95255SOL    HW287663  11.740   7.955   3.912
95256SOL     OW87664  10.271  13.658  11.506
95256SOL    HW187665  10.268  13.674  11.600
95256SOL    HW287666  10.326  13.728  11.471
95257SOL     OW87667   1.449   2.508   4.697
95257SOL    HW187668   1.430   2.539   4.608
95257SOL    HW287669   1.436   2.413   4.693
95258SOL     OW87670  13.785   4.147   8.131
95258SOL    HW187671  13.872   4.175   8.103
95258SOL    HW287672  13.761   4.209   8.200
95259SOL     OW87673  10.619  11.373   8.693
95259SOL    HW187674  10.578  11.436   8.634
95259SOL    HW287675  10.630  11.294   8.639
95260SOL     OW87676   5.165  10.171  14.678
95260SOL    HW187677   5.258  10.190  14.689
95260SOL    HW287678   5.155  10.082  14.712
95261SOL     OW87679   2.803  12.140   5.291
95261SOL    HW187680   2.861  12.099   5.227
95261SOL    HW287681   2.728  12.170   5.239
95262SOL     OW87682   0.738  12.131   9.905
95262SOL    HW187683   0.680  12.152   9.831
95262SOL    HW287684   0.811  12.192   9.895
95263SOL     OW87685  12.973   2.297   1.540
95263SOL    HW187686  13.049   2.253   1.502
95263SOL    HW287687  12.921   2.227   1.578
95264SOL     OW87688   9.398  13.207  11.415
95264SOL    HW187689   9.481  13.207  11.367
95264SOL    HW287690   9.332  13.188  11.348
95265SOL     OW87691  13.792  10.539   5.613
95265SOL    HW187692  13.839  10.459   5.638
95265SOL    HW287693  13.860  10.598   5.583
95266SOL     OW87694   6.694   3.747   7.514
95266SOL    HW187695   6.780   3.781   7.538
95266SOL    HW287696   6.649   3.821   7.472
95267SOL     OW87697   5.827  11.553  10.408
95267SOL    HW187698   5.740  11.513  10.414
95267SOL    HW287699   5.820  11.615  10.335
95268SOL     OW87700  10.562  10.368   9.494
95268SOL    HW187701  10.650  10.404   9.486
95268SOL    HW287702  10.546  10.324   9.410
95269SOL     OW87703   6.802   6.921   3.523
95269SOL    HW187704   6.762   7.003   3.550
95269SOL    HW287705   6.766   6.855   3.583
95270SOL     OW87706   0.101  14.325   3.479
95270SOL    HW187707   0.089  14.400   3.422
95270SOL    HW287708   0.132  14.255   3.421
95271SOL     OW87709  11.551   1.071   0.160
95271SOL    HW187710  11.457   1.083   0.161
95271SOL    HW287711  11.574   1.062   0.067
95272SOL     OW87712  13.241   2.668  10.818
95272SOL    HW187713  13.323   2.713  10.799
95272SOL    HW287714  13.187   2.683  10.740
95273SOL     OW87715   5.040   3.857  11.548
95273SOL    HW187716   4.958   3.899  11.573
95273SOL    HW287717   5.017   3.765  11.535
95274SOL     OW87718  11.870   5.702   9.904
95274SOL    HW187719  11.782   5.740   9.907
95274SOL    HW287720  11.868   5.644   9.828
95275SOL     OW87721   0.310   6.497   9.500
95275SOL    HW187722   0.226   6.453   9.486
95275SOL    HW287723   0.330   6.483   9.593
95276SOL     OW87724  10.602  12.120   3.610
95276SOL    HW187725  10.557  12.155   3.533
95276SOL    HW287726  10.531  12.089   3.666
95277SOL     OW87727   9.680   1.107   0.338
95277SOL    HW187728   9.614   1.061   0.390
95277SOL    HW287729   9.703   1.183   0.391
95278SOL     OW87730   6.521  11.884   0.978
95278SOL    HW187731   6.510  11.969   1.019
95278SOL    HW287732   6.459  11.884   0.905
95279SOL     OW87733  13.255   4.975   4.311
95279SOL    HW187734  13.168   5.005   4.284
95279SOL    HW287735  13.239   4.912   4.381
95280SOL     OW87736   6.417   9.595  10.944
95280SOL    HW187737   6.350   9.549  10.892
95280SOL    HW287738   6.424   9.544  11.024
95281SOL     OW87739   9.369  14.219   5.031
95281SOL    HW187740   9.401  14.186   5.115
95281SOL    HW287741   9.437  14.195   4.968
95282SOL     OW87742   8.310   4.861   2.358
95282SOL    HW187743   8.314   4.803   2.283
95282SOL    HW287744   8.401   4.878   2.381
95283SOL     OW87745   8.502  12.508   8.532
95283SOL    HW187746   8.595  12.528   8.544
95283SOL    HW287747   8.492  12.418   8.562
95284SOL     OW87748   0.932  12.598   3.878
95284SOL    HW187749   0.865  12.534   3.853
95284SOL    HW287750   0.999  12.589   3.811
95285SOL     OW87751   9.982   2.493  14.004
95285SOL    HW187752   9.930   2.429  13.956
95285SOL    HW287753  10.055   2.443  14.040
95286SOL     OW87754  10.646   4.390   7.260
95286SOL    HW187755  10.556   4.384   7.227
95286SOL    HW287756  10.683   4.303   7.245
95287SOL     OW87757   2.283   3.129   0.381
95287SOL    HW187758   2.354   3.127   0.317
95287SOL    HW287759   2.211   3.173   0.337
95288SOL     OW87760   9.041  12.737   0.311
95288SOL    HW187761   9.037  12.697   0.224
95288SOL    HW287762   9.055  12.830   0.294
95289SOL     OW87763   9.600  11.325  12.980
95289SOL    HW187764   9.593  11.416  12.951
95289SOL    HW287765   9.551  11.276  12.915
95290SOL     OW87766   4.190  12.442  10.033
95290SOL    HW187767   4.185  12.387   9.955
95290SOL    HW287768   4.274  12.420  10.073
95291SOL     OW87769  10.974   1.954  14.566
95291SOL    HW187770  11.015   2.038  14.587
95291SOL    HW287771  10.921   1.933  14.643
95292SOL     OW87772  11.709   4.650   0.774
95292SOL    HW187773  11.670   4.578   0.824
95292SOL    HW287774  11.645   4.721   0.780
95293SOL     OW87775  13.696  13.971   2.217
95293SOL    HW187776  13.638  13.926   2.278
95293SOL    HW287777  13.710  14.057   2.257
95294SOL     OW87778  11.849   1.833   7.662
95294SOL    HW187779  11.826   1.913   7.616
95294SOL    HW287780  11.792   1.833   7.740
95295SOL     OW87781  12.001  12.123   1.833
95295SOL    HW187782  12.045  12.159   1.757
95295SOL    HW287783  12.062  12.058   1.868
95296SOL     OW87784  14.135  12.765   1.411
95296SOL    HW187785  14.082  12.817   1.351
95296SOL    HW287786  14.222  12.803   1.405
95297SOL     OW87787  10.437  13.913  10.598
95297SOL    HW187788  10.430  13.817  10.598
95297SOL    HW287789  10.378  13.941  10.528
95298SOL     OW87790  12.391   8.331   1.282
95298SOL    HW187791  12.409   8.248   1.239
95298SOL    HW287792  12.444   8.329   1.362
95299SOL     OW87793  12.367   2.341  10.417
95299SOL    HW187794  12.397   2.416  10.365
95299SOL    HW287795  12.285   2.314  10.377
95300SOL     OW87796   2.312   0.160   0.627
95300SOL    HW187797   2.374   0.095   0.659
95300SOL    HW287798   2.244   0.163   0.695
95301SOL     OW87799   4.371   5.382   3.418
95301SOL    HW187800   4.344   5.342   3.501
95301SOL    HW287801   4.426   5.316   3.376
95302SOL     OW87802   3.517   5.439   6.044
95302SOL    HW187803   3.546   5.483   6.124
95302SOL    HW287804   3.438   5.486   6.018
95303SOL     OW87805   4.723   0.853  10.279
95303SOL    HW187806   4.660   0.919  10.250
95303SOL    HW287807   4.669   0.782  10.312
95304SOL     OW87808   2.130   6.135   0.586
95304SOL    HW187809   2.194   6.150   0.655
95304SOL    HW287810   2.182   6.112   0.509
95305SOL     OW87811   3.270   7.090   7.370
95305SOL    HW187812   3.189   7.040   7.361
95305SOL    HW287813   3.250   7.158   7.435
95306SOL     OW87814   7.948   7.647   3.929
95306SOL    HW187815   7.995   7.585   3.985
95306SOL    HW287816   7.856   7.622   3.938
95307SOL     OW87817   9.239   8.021  10.404
95307SOL    HW187818   9.299   7.961  10.359
95307SOL    HW287819   9.186   7.964  10.460
95308SOL     OW87820  13.599   5.187   4.610
95308SOL    HW187821  13.551   5.174   4.692
95308SOL    HW287822  13.536   5.227   4.550
95309SOL     OW87823   8.192  14.552   4.197
95309SOL    HW187824   8.176  14.602   4.277
95309SOL    HW287825   8.107  14.512   4.177
95310SOL     OW87826  10.295   7.039  11.349
95310SOL    HW187827  10.362   6.985  11.307
95310SOL    HW287828  10.252   6.981  11.411
95311SOL     OW87829   8.881  10.615   0.446
95311SOL    HW187830   8.876  10.527   0.483
95311SOL    HW287831   8.849  10.606   0.357
95312SOL     OW87832   0.237   3.527   2.496
95312SOL    HW187833   0.310   3.570   2.451
95312SOL    HW287834   0.278   3.469   2.560
95313SOL     OW87835   3.601   3.200  11.152
95313SOL    HW187836   3.527   3.153  11.192
95313SOL    HW287837   3.562   3.280  11.117
95314SOL     OW87838   9.710   4.625   0.718
95314SOL    HW187839   9.645   4.664   0.776
95314SOL    HW287840   9.790   4.674   0.734
95315SOL     OW87841   9.814   1.296   9.549
95315SOL    HW187842   9.836   1.214   9.506
95315SOL    HW287843   9.751   1.271   9.617
95316SOL     OW87844   4.055   8.856   7.348
95316SOL    HW187845   4.081   8.835   7.259
95316SOL    HW287846   3.961   8.874   7.342
95317SOL     OW87847  14.523  14.140  12.928
95317SOL    HW187848  14.555  14.208  12.869
95317SOL    HW287849  14.493  14.188  13.006
95318SOL     OW87850   7.783  14.040   2.714
95318SOL    HW187851   7.845  13.971   2.741
95318SOL    HW287852   7.812  14.065   2.626
95319SOL     OW87853   9.503   4.738   7.735
95319SOL    HW187854   9.582   4.784   7.707
95319SOL    HW287855   9.531   4.648   7.750
95320SOL     OW87856  13.572  14.028  10.449
95320SOL    HW187857  13.519  14.007  10.526
95320SOL    HW287858  13.533  13.977  10.378
95321SOL     OW87859   2.813   4.065   2.896
95321SOL    HW187860   2.834   4.095   2.984
95321SOL    HW287861   2.898   4.043   2.857
95322SOL     OW87862   1.824   0.621   6.003
95322SOL    HW187863   1.847   0.545   6.055
95322SOL    HW287864   1.880   0.691   6.036
95323SOL     OW87865   6.398  11.059   2.491
95323SOL    HW187866   6.452  11.126   2.531
95323SOL    HW287867   6.449  11.031   2.414
95324SOL     OW87868  14.660  12.313   4.122
95324SOL    HW187869  14.642  12.220   4.104
95324SOL    HW287870  14.716  12.312   4.200
95325SOL     OW87871   0.394   0.323   0.170
95325SOL    HW187872   0.353   0.242   0.201
95325SOL    HW287873   0.347   0.393   0.215
95326SOL     OW87874  12.962   3.622   4.580
95326SOL    HW187875  12.915   3.540   4.587
95326SOL    HW287876  13.049   3.597   4.549
95327SOL     OW87877  11.325   2.834   9.452
95327SOL    HW187878  11.239   2.794   9.463
95327SOL    HW287879  11.387   2.765   9.476
95328SOL     OW87880   0.416   5.773  11.609
95328SOL    HW187881   0.373   5.690  11.589
95328SOL    HW287882   0.410   5.780  11.705
95329SOL     OW87883   3.770  14.258  10.467
95329SOL    HW187884   3.846  14.266  10.524
95329SOL    HW287885   3.805  14.225  10.384
95330SOL     OW87886   3.430  13.355  14.850
95330SOL    HW187887   3.386  13.432  14.814
95330SOL    HW287888   3.369  13.322   0.049
95331SOL     OW87889   6.219  12.668  13.846
95331SOL    HW187890   6.295  12.688  13.791
95331SOL    HW287891   6.239  12.582  13.883
95332SOL     OW87892   0.283   6.739   8.380
95332SOL    HW187893   0.231   6.776   8.308
95332SOL    HW287894   0.372   6.771   8.365
95333SOL     OW87895   6.347   8.453   0.384
95333SOL    HW187896   6.435   8.471   0.417
95333SOL    HW287897   6.296   8.434   0.462
95334SOL     OW87898   7.943   9.744  14.496
95334SOL    HW187899   7.916   9.746  14.588
95334SOL    HW287900   8.023   9.691  14.496
95335SOL     OW87901   4.785   1.442   8.923
95335SOL    HW187902   4.693   1.416   8.928
95335SOL    HW287903   4.832   1.360   8.909
95336SOL     OW87904   2.027   7.243   1.570
95336SOL    HW187905   1.956   7.186   1.599
95336SOL    HW287906   2.106   7.202   1.606
95337SOL     OW87907   3.992   2.558  12.246
95337SOL    HW187908   4.056   2.530  12.312
95337SOL    HW287909   3.909   2.521  12.277
95338SOL     OW87910   6.166   2.967   9.479
95338SOL    HW187911   6.228   3.012   9.422
95338SOL    HW287912   6.119   3.038   9.523
95339SOL     OW87913  11.652  13.580   1.807
95339SOL    HW187914  11.706  13.512   1.766
95339SOL    HW287915  11.715  13.637   1.851
95340SOL     OW87916  12.336   1.253   4.034
95340SOL    HW187917  12.406   1.207   3.988
95340SOL    HW287918  12.381   1.320   4.085
95341SOL     OW87919   8.610   4.971   0.195
95341SOL    HW187920   8.640   5.025   0.121
95341SOL    HW287921   8.685   4.969   0.254
95342SOL     OW87922   0.708   7.742  11.571
95342SOL    HW187923   0.764   7.816  11.547
95342SOL    HW287924   0.707   7.687  11.492
95343SOL     OW87925   3.209  12.357  10.188
95343SOL    HW187926   3.285  12.411  10.164
95343SOL    HW287927   3.205  12.291  10.119
95344SOL     OW87928   6.422   2.067   2.216
95344SOL    HW187929   6.432   2.133   2.147
95344SOL    HW287930   6.498   2.010   2.207
95345SOL     OW87931   7.905   4.463  11.394
95345SOL    HW187932   7.928   4.405  11.321
95345SOL    HW287933   7.943   4.422  11.471
95346SOL     OW87934   2.435  14.090  10.195
95346SOL    HW187935   2.344  14.119  10.198
95346SOL    HW287936   2.450  14.048  10.280
95347SOL     OW87937  10.287   8.932   9.609
95347SOL    HW187938  10.236   9.010   9.588
95347SOL    HW287939  10.372   8.946   9.567
95348SOL     OW87940   4.803   5.398   3.481
95348SOL    HW187941   4.740   5.348   3.532
95348SOL    HW287942   4.807   5.483   3.525
95349SOL     OW87943  14.833   0.775   5.166
95349SOL    HW187944  14.848   0.828   5.245
95349SOL    HW287945  14.842   0.685   5.196
95350SOL     OW87946  14.594   8.826   7.013
95350SOL    HW187947  14.688   8.824   7.030
95350SOL    HW287948  14.587   8.861   6.924
95351SOL     OW87949   1.652  12.420   2.060
95351SOL    HW187950   1.677  12.512   2.053
95351SOL    HW287951   1.593  12.405   1.986
95352SOL     OW87952   6.660   6.000  10.345
95352SOL    HW187953   6.566   6.019  10.335
95352SOL    HW287954   6.676   6.008  10.439
95353SOL     OW87955   9.634   3.018   8.493
95353SOL    HW187956   9.633   2.979   8.580
95353SOL    HW287957   9.556   3.074   8.490
95354SOL     OW87958  11.623   9.800  12.269
95354SOL    HW187959  11.575   9.760  12.341
95354SOL    HW287960  11.685   9.733  12.240
95355SOL     OW87961   9.949   5.656   2.594
95355SOL    HW187962  10.007   5.593   2.551
95355SOL    HW287963   9.862   5.633   2.563
95356SOL     OW87964   8.396   1.694  14.548
95356SOL    HW187965   8.453   1.766  14.520
95356SOL    HW287966   8.353   1.665  14.468
95357SOL     OW87967   0.749   0.345  11.585
95357SOL    HW187968   0.669   0.301  11.613
95357SOL    HW287969   0.784   0.289  11.515
95358SOL     OW87970   2.746   0.326   8.343
95358SOL    HW187971   2.793   0.380   8.279
95358SOL    HW287972   2.716   0.388   8.410
95359SOL     OW87973  14.353  10.105   3.615
95359SOL    HW187974  14.282  10.134   3.557
95359SOL    HW287975  14.331  10.144   3.700
95360SOL     OW87976   2.845   0.431   1.689
95360SOL    HW187977   2.833   0.393   1.602
95360SOL    HW287978   2.760   0.422   1.732
95361SOL     OW87979   6.424   5.343  13.740
95361SOL    HW187980   6.340   5.299  13.748
95361SOL    HW287981   6.488   5.273  13.733
95362SOL     OW87982   5.388  10.172  11.349
95362SOL    HW187983   5.450  10.198  11.417
95362SOL    HW287984   5.440  10.121  11.287
95363SOL     OW87985  14.485   9.470   2.529
95363SOL    HW187986  14.427   9.518   2.470
95363SOL    HW287987  14.463   9.503   2.617
95364SOL     OW87988   2.512   6.618  12.151
95364SOL    HW187989   2.492   6.666  12.231
95364SOL    HW287990   2.554   6.538  12.182
95365SOL     OW87991  11.790   1.992   4.318
95365SOL    HW187992  11.812   1.990   4.411
95365SOL    HW287993  11.758   1.904   4.299
95366SOL     OW87994   8.887  13.384   3.590
95366SOL    HW187995   8.810  13.335   3.560
95366SOL    HW287996   8.961  13.345   3.544
95367SOL     OW87997   9.574  12.963  13.722
95367SOL    HW187998   9.665  12.959  13.751
95367SOL    HW287999   9.579  13.003  13.635
95368SOL     OW88000  10.142   0.624   2.238
95368SOL    HW188001  10.113   0.548   2.287
95368SOL    HW288002  10.210   0.590   2.179
95369SOL     OW88003   5.504   0.118  13.539
95369SOL    HW188004   5.511   0.152  13.450
95369SOL    HW288005   5.590   0.133  13.578
95370SOL     OW88006   5.037  10.043   8.364
95370SOL    HW188007   5.054  10.091   8.283
95370SOL    HW288008   5.099  10.082   8.427
95371SOL     OW88009   7.978   0.457  10.704
95371SOL    HW188010   8.042   0.470  10.634
95371SOL    HW288011   7.947   0.367  10.692
95372SOL     OW88012   0.746   5.835   7.692
95372SOL    HW188013   0.672   5.833   7.631
95372SOL    HW288014   0.781   5.746   7.691
95373SOL     OW88015  14.754   9.765   6.710
95373SOL    HW188016  14.803   9.743   6.789
95373SOL    HW288017  14.744   9.681   6.664
95374SOL     OW88018   2.252  11.014  13.292
95374SOL    HW188019   2.238  10.944  13.355
95374SOL    HW288020   2.164  11.044  13.269
95375SOL     OW88021   8.239   7.672  14.652
95375SOL    HW188022   8.178   7.608  14.691
95375SOL    HW288023   8.186   7.750  14.639
95376SOL     OW88024  10.166   6.305  12.646
95376SOL    HW188025  10.255   6.277  12.623
95376SOL    HW288026  10.160   6.395  12.614
95377SOL     OW88027   5.960   8.043   7.904
95377SOL    HW188028   5.888   7.982   7.917
95377SOL    HW288029   5.969   8.050   7.809
95378SOL     OW88030  13.869   1.273  12.825
95378SOL    HW188031  13.851   1.179  12.828
95378SOL    HW288032  13.820   1.304  12.749
95379SOL     OW88033  11.973  11.347  10.245
95379SOL    HW188034  11.986  11.325  10.153
95379SOL    HW288035  11.992  11.266  10.293
95380SOL     OW88036  13.332   4.584   6.479
95380SOL    HW188037  13.254   4.633   6.454
95380SOL    HW288038  13.299   4.508   6.527
95381SOL     OW88039   4.581   5.447  12.526
95381SOL    HW188040   4.664   5.446  12.478
95381SOL    HW288041   4.582   5.529  12.575
95382SOL     OW88042   2.471  11.126  11.524
95382SOL    HW188043   2.445  11.151  11.613
95382SOL    HW288044   2.459  11.206  11.473
95383SOL     OW88045   1.272   2.841   9.651
95383SOL    HW188046   1.349   2.877   9.608
95383SOL    HW288047   1.227   2.917   9.687
95384SOL     OW88048   2.526  14.318   6.556
95384SOL    HW188049   2.609  14.318   6.508
95384SOL    HW288050   2.476  14.247   6.517
95385SOL     OW88051  13.778  12.426  13.206
95385SOL    HW188052  13.718  12.366  13.250
95385SOL    HW288053  13.731  12.451  13.126
95386SOL     OW88054   8.710   1.905   6.807
95386SOL    HW188055   8.735   1.947   6.890
95386SOL    HW288056   8.787   1.854   6.782
95387SOL     OW88057   0.044   7.748   2.466
95387SOL    HW188058   0.128   7.739   2.512
95387SOL    HW288059   0.007   7.830   2.500
95388SOL     OW88060  14.536   4.776  10.613
95388SOL    HW188061  14.591   4.710  10.655
95388SOL    HW288062  14.486   4.727  10.548
95389SOL     OW88063  12.386   2.254   9.109
95389SOL    HW188064  12.482   2.255   9.107
95389SOL    HW288065  12.361   2.179   9.055
95390SOL     OW88066  10.666   6.028   4.921
95390SOL    HW188067  10.637   5.985   5.001
95390SOL    HW288068  10.638   5.969   4.851
95391SOL     OW88069   8.542  10.206   4.189
95391SOL    HW188070   8.523  10.298   4.207
95391SOL    HW288071   8.637  10.204   4.173
95392SOL     OW88072  12.287  10.790   1.147
95392SOL    HW188073  12.251  10.740   1.220
95392SOL    HW288074  12.221  10.781   1.078
95393SOL     OW88075  12.629  14.251  13.741
95393SOL    HW188076  12.632  14.207  13.826
95393SOL    HW288077  12.697  14.318  13.747
95394SOL     OW88078   6.404  13.083  10.324
95394SOL    HW188079   6.347  13.041  10.388
95394SOL    HW288080   6.421  13.170  10.359
95395SOL     OW88081  10.490   8.601   9.582
95395SOL    HW188082  10.410   8.555   9.608
95395SOL    HW288083  10.460   8.691   9.565
95396SOL     OW88084   8.690   9.921  10.742
95396SOL    HW188085   8.777   9.952  10.719
95396SOL    HW288086   8.659   9.984  10.808
95397SOL     OW88087   1.362   1.621  10.725
95397SOL    HW188088   1.357   1.619  10.821
95397SOL    HW288089   1.271   1.611  10.696
95398SOL     OW88090   5.206   2.700  10.173
95398SOL    HW188091   5.119   2.709  10.211
95398SOL    HW288092   5.266   2.710  10.247
95399SOL     OW88093   6.296   8.626  10.501
95399SOL    HW188094   6.311   8.692  10.433
95399SOL    HW288095   6.202   8.608  10.496
95400SOL     OW88096  12.150   7.751   4.759
95400SOL    HW188097  12.146   7.778   4.668
95400SOL    HW288098  12.061   7.719   4.778
95401SOL     OW88099  11.671   5.190  10.964
95401SOL    HW188100  11.675   5.277  10.924
95401SOL    HW288101  11.755   5.181  11.011
95402SOL     OW88102   7.377   1.427   0.546
95402SOL    HW188103   7.403   1.400   0.459
95402SOL    HW288104   7.286   1.397   0.555
95403SOL     OW88105   0.279   4.909   6.404
95403SOL    HW188106   0.360   4.888   6.358
95403SOL    HW288107   0.308   4.957   6.482
95404SOL     OW88108  12.681   9.541   6.970
95404SOL    HW188109  12.710   9.514   7.057
95404SOL    HW288110  12.595   9.500   6.960
95405SOL     OW88111  10.524   8.336   9.970
95405SOL    HW188112  10.602   8.390   9.956
95405SOL    HW288113  10.476   8.381  10.041
95406SOL     OW88114   8.868   8.886  11.249
95406SOL    HW188115   8.780   8.849  11.240
95406SOL    HW288116   8.927   8.815  11.226
95407SOL     OW88117  13.037  13.280   7.664
95407SOL    HW188118  13.040  13.375   7.661
95407SOL    HW288119  12.982  13.255   7.590
95408SOL     OW88120  14.035  14.796   8.666
95408SOL    HW188121  14.064  14.831   8.582
95408SOL    HW288122  14.110  14.807   8.725
95409SOL     OW88123   6.745   9.621   9.246
95409SOL    HW188124   6.703   9.623   9.160
95409SOL    HW288125   6.734   9.531   9.276
95410SOL     OW88126   2.646   0.673   8.351
95410SOL    HW188127   2.731   0.698   8.314
95410SOL    HW288128   2.586   0.743   8.324
95411SOL     OW88129   8.121   5.076  11.126
95411SOL    HW188130   8.082   5.046  11.043
95411SOL    HW288131   8.045   5.092  11.183
95412SOL     OW88132   0.674   4.557  12.935
95412SOL    HW188133   0.707   4.607  13.010
95412SOL    HW288134   0.625   4.620  12.883
95413SOL     OW88135  13.703   6.096   0.577
95413SOL    HW188136  13.789   6.062   0.603
95413SOL    HW288137  13.721   6.185   0.548
95414SOL     OW88138  14.501  11.564   8.597
95414SOL    HW188139  14.498  11.634   8.532
95414SOL    HW288140  14.416  11.521   8.590
95415SOL     OW88141   3.745   4.516  11.133
95415SOL    HW188142   3.824   4.463  11.148
95415SOL    HW288143   3.715   4.490  11.046
95416SOL     OW88144  14.646   7.191   9.298
95416SOL    HW188145  14.650   7.165   9.390
95416SOL    HW288146  14.553   7.198   9.279
95417SOL     OW88147   0.846  10.187  13.947
95417SOL    HW188148   0.779  10.135  13.992
95417SOL    HW288149   0.830  10.173  13.854
95418SOL     OW88150  13.961   1.957  10.281
95418SOL    HW188151  13.994   1.932  10.368
95418SOL    HW288152  13.950   1.874  10.235
95419SOL     OW88153   2.418   5.386   4.877
95419SOL    HW188154   2.383   5.324   4.940
95419SOL    HW288155   2.459   5.454   4.931
95420SOL     OW88156  10.961   7.700  10.252
95420SOL    HW188157  10.944   7.710  10.346
95420SOL    HW288158  10.879   7.668  10.216
95421SOL     OW88159  10.625  11.910  14.357
95421SOL    HW188160  10.531  11.919  14.376
95421SOL    HW288161  10.664  11.884  14.440
95422SOL     OW88162   8.014   6.754   8.416
95422SOL    HW188163   8.063   6.816   8.470
95422SOL    HW288164   8.052   6.763   8.328
95423SOL     OW88165  12.516  11.065   6.537
95423SOL    HW188166  12.445  11.047   6.598
95423SOL    HW288167  12.583  11.001   6.558
95424SOL     OW88168   8.613  11.464   1.427
95424SOL    HW188169   8.619  11.387   1.483
95424SOL    HW288170   8.571  11.530   1.482
95425SOL     OW88171   5.555   1.775   5.807
95425SOL    HW188172   5.592   1.730   5.884
95425SOL    HW288173   5.592   1.863   5.812
95426SOL     OW88174   9.133   1.106   4.458
95426SOL    HW188175   9.166   1.152   4.380
95426SOL    HW288176   9.057   1.057   4.427
95427SOL     OW88177   4.206   5.961  12.772
95427SOL    HW188178   4.157   5.913  12.706
95427SOL    HW288179   4.259   5.894  12.816
95428SOL     OW88180   0.720  13.348  10.391
95428SOL    HW188181   0.800  13.385  10.430
95428SOL    HW288182   0.753  13.284  10.327
95429SOL     OW88183  13.821  12.332   0.622
95429SOL    HW188184  13.799  12.381   0.701
95429SOL    HW288185  13.819  12.240   0.650
95430SOL     OW88186  11.092   3.086   0.671
95430SOL    HW188187  11.085   2.998   0.633
95430SOL    HW288188  11.163   3.128   0.623
95431SOL     OW88189   0.769   8.702   4.411
95431SOL    HW188190   0.743   8.653   4.489
95431SOL    HW288191   0.827   8.770   4.445
95432SOL     OW88192   9.120   4.755   1.382
95432SOL    HW188193   9.031   4.738   1.414
95432SOL    HW288194   9.158   4.813   1.448
95433SOL     OW88195   3.484   4.346   7.326
95433SOL    HW188196   3.441   4.382   7.404
95433SOL    HW288197   3.553   4.288   7.361
95434SOL     OW88198   4.624   1.657   1.441
95434SOL    HW188199   4.564   1.583   1.446
95434SOL    HW288200   4.599   1.703   1.360
95435SOL     OW88201   1.206   8.257   4.692
95435SOL    HW188202   1.282   8.314   4.679
95435SOL    HW288203   1.140   8.289   4.631
95436SOL     OW88204   0.958   0.577   7.858
95436SOL    HW188205   1.017   0.636   7.905
95436SOL    HW288206   1.016   0.516   7.813
95437SOL     OW88207  11.844  14.197   6.634
95437SOL    HW188208  11.851  14.291   6.650
95437SOL    HW288209  11.864  14.187   6.541
95438SOL     OW88210  11.010   2.277   9.545
95438SOL    HW188211  11.020   2.297   9.638
95438SOL    HW288212  10.954   2.347   9.511
95439SOL     OW88213   3.152  10.269   5.180
95439SOL    HW188214   3.171  10.175   5.183
95439SOL    HW288215   3.069  10.278   5.227
95440SOL     OW88216   2.826  12.970  12.009
95440SOL    HW188217   2.797  13.062  12.014
95440SOL    HW288218   2.753  12.924  11.969
95441SOL     OW88219   8.769   1.711   2.542
95441SOL    HW188220   8.847   1.744   2.587
95441SOL    HW288221   8.798   1.631   2.499
95442SOL     OW88222  11.272  11.362   6.439
95442SOL    HW188223  11.318  11.349   6.356
95442SOL    HW288224  11.216  11.439   6.423
95443SOL     OW88225   2.146   8.787   5.177
95443SOL    HW188226   2.233   8.790   5.137
95443SOL    HW288227   2.129   8.877   5.204
95444SOL     OW88228  13.397   3.415   9.431
95444SOL    HW188229  13.377   3.488   9.372
95444SOL    HW288230  13.399   3.453   9.518
95445SOL     OW88231   4.386   7.871   2.339
95445SOL    HW188232   4.424   7.796   2.292
95445SOL    HW288233   4.295   7.845   2.354
95446SOL     OW88234   2.833   8.613   2.940
95446SOL    HW188235   2.885   8.581   2.866
95446SOL    HW288236   2.810   8.703   2.916
95447SOL     OW88237   6.186   3.092   0.125
95447SOL    HW188238   6.240   3.062   0.051
95447SOL    HW288239   6.222   3.046   0.201
95448SOL     OW88240   1.264  11.301  13.290
95448SOL    HW188241   1.171  11.283  13.274
95448SOL    HW288242   1.289  11.238  13.357
95449SOL     OW88243  14.134   0.437   5.443
95449SOL    HW188244  14.199   0.507   5.452
95449SOL    HW288245  14.125   0.401   5.531
95450SOL     OW88246  12.037   3.601   2.528
95450SOL    HW188247  11.943   3.621   2.528
95450SOL    HW288248  12.080   3.686   2.537
95451SOL     OW88249   6.046   8.864   8.222
95451SOL    HW188250   6.098   8.820   8.289
95451SOL    HW288251   6.025   8.795   8.159
95452SOL     OW88252  13.760  13.384   9.431
95452SOL    HW188253  13.796  13.428   9.354
95452SOL    HW288254  13.811  13.303   9.437
95453SOL     OW88255   5.597   2.512   7.336
95453SOL    HW188256   5.682   2.487   7.374
95453SOL    HW288257   5.593   2.464   7.253
95454SOL     OW88258  11.030   0.794  12.362
95454SOL    HW188259  11.000   0.813  12.451
95454SOL    HW288260  11.010   0.702  12.349
95455SOL     OW88261  14.249  12.989   4.642
95455SOL    HW188262  14.200  12.908   4.656
95455SOL    HW288263  14.221  13.020   4.556
95456SOL     OW88264   3.905   2.306   7.090
95456SOL    HW188265   3.928   2.238   7.153
95456SOL    HW288266   3.944   2.386   7.125
95457SOL     OW88267   6.485  14.217  14.790
95457SOL    HW188268   6.512  14.150  14.853
95457SOL    HW288269   6.550  14.286  14.800
95458SOL     OW88270   2.409   1.250   2.692
95458SOL    HW188271   2.346   1.197   2.643
95458SOL    HW288272   2.492   1.203   2.681
95459SOL     OW88273   0.126  10.809   3.035
95459SOL    HW188274   0.056  10.787   2.973
95459SOL    HW288275   0.185  10.867   2.985
95460SOL     OW88276   3.847   2.088   9.517
95460SOL    HW188277   3.755   2.087   9.541
95460SOL    HW288278   3.875   2.178   9.534
95461SOL     OW88279   8.995   3.073  13.718
95461SOL    HW188280   9.059   3.013  13.754
95461SOL    HW288281   9.029   3.096  13.631
95462SOL     OW88282   8.682   8.318   3.917
95462SOL    HW188283   8.748   8.353   3.857
95462SOL    HW288284   8.732   8.282   3.990
95463SOL     OW88285   9.848   7.768  12.669
95463SOL    HW188286   9.840   7.734  12.758
95463SOL    HW288287   9.818   7.858  12.674
95464SOL     OW88288   1.252  14.068   2.686
95464SOL    HW188289   1.333  14.039   2.643
95464SOL    HW288290   1.269  14.158   2.712
95465SOL     OW88291   5.507  10.363  13.147
95465SOL    HW188292   5.539  10.300  13.212
95465SOL    HW288293   5.519  10.320  13.063
95466SOL     OW88294   0.250   9.069  10.477
95466SOL    HW188295   0.274   9.160  10.457
95466SOL    HW288296   0.171   9.076  10.530
95467SOL     OW88297   9.069   2.833  12.940
95467SOL    HW188298   9.060   2.907  12.879
95467SOL    HW288299   9.050   2.756  12.888
95468SOL     OW88300  11.896   0.706  14.058
95468SOL    HW188301  11.896   0.785  14.112
95468SOL    HW288302  11.866   0.735  13.973
95469SOL     OW88303   4.616   5.549   0.306
95469SOL    HW188304   4.582   5.638   0.304
95469SOL    HW288305   4.598   5.518   0.395
95470SOL     OW88306  10.170  10.107   4.366
95470SOL    HW188307  10.106  10.050   4.322
95470SOL    HW288308  10.255  10.068   4.344
95471SOL     OW88309  10.172   6.700  14.165
95471SOL    HW188310  10.100   6.684  14.225
95471SOL    HW288311  10.131   6.708  14.079
95472SOL     OW88312   6.603  14.659   8.380
95472SOL    HW188313   6.587  14.744   8.339
95472SOL    HW288314   6.548  14.659   8.458
95473SOL     OW88315  11.374  10.445   7.316
95473SOL    HW188316  11.454  10.497   7.306
95473SOL    HW288317  11.394  10.362   7.274
95474SOL     OW88318   1.619   4.329   5.427
95474SOL    HW188319   1.600   4.257   5.487
95474SOL    HW288320   1.552   4.322   5.359
95475SOL     OW88321  10.406  10.372  14.457
95475SOL    HW188322  10.435  10.320  14.381
95475SOL    HW288323  10.328  10.418  14.426
95476SOL     OW88324   5.114  14.434   0.572
95476SOL    HW188325   5.200  14.391   0.565
95476SOL    HW288326   5.117  14.504   0.507
95477SOL     OW88327   4.083   0.662   8.997
95477SOL    HW188328   4.126   0.672   8.912
95477SOL    HW288329   4.032   0.581   8.988
95478SOL     OW88330  12.791   3.109   5.408
95478SOL    HW188331  12.851   3.035   5.407
95478SOL    HW288332  12.720   3.085   5.348
95479SOL     OW88333   0.578   1.106   1.338
95479SOL    HW188334   0.617   1.174   1.392
95479SOL    HW288335   0.578   1.143   1.249
95480SOL     OW88336   3.923   7.660  13.400
95480SOL    HW188337   3.956   7.642  13.312
95480SOL    HW288338   3.979   7.730  13.433
95481SOL     OW88339  13.587  12.813   7.294
95481SOL    HW188340  13.554  12.746   7.234
95481SOL    HW288341  13.656  12.769   7.344
95482SOL     OW88342   8.509   8.082   3.126
95482SOL    HW188343   8.523   8.039   3.211
95482SOL    HW288344   8.462   8.017   3.074
95483SOL     OW88345   1.137   6.414   9.284
95483SOL    HW188346   1.232   6.410   9.293
95483SOL    HW288347   1.119   6.504   9.256
95484SOL     OW88348  14.257  13.645  10.225
95484SOL    HW188349  14.181  13.687  10.266
95484SOL    HW288350  14.284  13.706  10.157
95485SOL     OW88351   1.065   3.858  10.862
95485SOL    HW188352   0.972   3.874  10.844
95485SOL    HW288353   1.100   3.944  10.884
95486SOL     OW88354  14.728   2.843   3.130
95486SOL    HW188355  14.717   2.924   3.180
95486SOL    HW288356  14.647   2.794   3.144
95487SOL     OW88357   5.158  14.410   1.536
95487SOL    HW188358   5.139  14.461   1.614
95487SOL    HW288359   5.121  14.324   1.554
95488SOL     OW88360   5.169   6.875   4.606
95488SOL    HW188361   5.150   6.880   4.700
95488SOL    HW288362   5.170   6.966   4.576
95489SOL     OW88363   3.181  13.211   0.870
95489SOL    HW188364   3.203  13.304   0.867
95489SOL    HW288365   3.220  13.180   0.952
95490SOL     OW88366   6.002   3.532   9.149
95490SOL    HW188367   6.014   3.525   9.244
95490SOL    HW288368   6.042   3.616   9.126
95491SOL     OW88369  12.793   9.244  12.157
95491SOL    HW188370  12.705   9.233  12.121
95491SOL    HW288371  12.818   9.156  12.186
95492SOL     OW88372   4.248   6.595   9.380
95492SOL    HW188373   4.250   6.509   9.423
95492SOL    HW288374   4.338   6.607   9.348
95493SOL     OW88375   1.390   9.419   9.768
95493SOL    HW188376   1.449   9.477   9.719
95493SOL    HW288377   1.353   9.361   9.702
95494SOL     OW88378  11.372  12.190   1.457
95494SOL    HW188379  11.300  12.253   1.461
95494SOL    HW288380  11.417  12.200   1.541
95495SOL     OW88381  13.928  12.528  12.300
95495SOL    HW188382  13.931  12.474  12.221
95495SOL    HW288383  13.835  12.549  12.311
95496SOL     OW88384   9.672   0.872   7.997
95496SOL    HW188385   9.733   0.899   8.065
95496SOL    HW288386   9.644   0.784   8.023
95497SOL     OW88387   3.693  11.831   3.438
95497SOL    HW188388   3.668  11.807   3.528
95497SOL    HW288389   3.613  11.865   3.398
95498SOL     OW88390   4.862  14.705   6.204
95498SOL    HW188391   4.857  14.688   6.298
95498SOL    HW288392   4.777  14.744   6.182
95499SOL     OW88393   0.189  12.400   8.977
95499SOL    HW188394   0.115  12.449   8.941
95499SOL    HW288395   0.161  12.377   9.066
95500SOL     OW88396  10.394  13.997   2.666
95500SOL    HW188397  10.479  14.038   2.650
95500SOL    HW288398  10.415  13.917   2.715
95501SOL     OW88399   7.141   9.641   3.367
95501SOL    HW188400   7.191   9.722   3.352
95501SOL    HW288401   7.050   9.670   3.374
95502SOL     OW88402  12.625  10.082   4.870
95502SOL    HW188403  12.614  10.088   4.775
95502SOL    HW288404  12.594  10.166   4.904
95503SOL     OW88405  10.436   9.609  12.667
95503SOL    HW188406  10.382   9.545  12.713
95503SOL    HW288407  10.526   9.575  12.675
95504SOL     OW88408   2.610   7.770   8.877
95504SOL    HW188409   2.547   7.827   8.833
95504SOL    HW288410   2.583   7.682   8.851
95505SOL     OW88411   0.267   4.292   4.955
95505SOL    HW188412   0.239   4.367   4.902
95505SOL    HW288413   0.361   4.304   4.964
95506SOL     OW88414   7.243   9.383  11.084
95506SOL    HW188415   7.196   9.350  11.007
95506SOL    HW288416   7.177   9.383  11.154
95507SOL     OW88417   0.568   0.682   6.037
95507SOL    HW188418   0.586   0.605   5.984
95507SOL    HW288419   0.580   0.756   5.978
95508SOL     OW88420   3.720   5.163   4.138
95508SOL    HW188421   3.695   5.163   4.046
95508SOL    HW288422   3.704   5.073   4.167
95509SOL     OW88423   9.868   6.686   4.095
95509SOL    HW188424   9.856   6.648   4.182
95509SOL    HW288425   9.843   6.778   4.105
95510SOL     OW88426  13.691   1.368   9.655
95510SOL    HW188427  13.786   1.358   9.654
95510SOL    HW288428  13.673   1.433   9.587
95511SOL     OW88429   1.624   6.514   1.923
95511SOL    HW188430   1.623   6.591   1.867
95511SOL    HW288431   1.558   6.456   1.886
95512SOL     OW88432   5.027   3.947   0.726
95512SOL    HW188433   5.018   4.038   0.756
95512SOL    HW288434   5.069   3.902   0.800
95513SOL     OW88435  12.999   3.048  11.751
95513SOL    HW188436  12.988   3.007  11.665
95513SOL    HW288437  13.085   3.018  11.780
95514SOL     OW88438  13.957   6.053   8.995
95514SOL    HW188439  13.921   6.003   9.068
95514SOL    HW288440  13.962   6.143   9.027
95515SOL     OW88441   8.397  12.659  12.088
95515SOL    HW188442   8.426  12.568  12.092
95515SOL    HW288443   8.476  12.708  12.063
95516SOL     OW88444  10.466   8.254  13.066
95516SOL    HW188445  10.540   8.259  13.005
95516SOL    HW288446  10.506   8.242  13.152
95517SOL     OW88447   4.298   0.262   0.308
95517SOL    HW188448   4.206   0.287   0.306
95517SOL    HW288449   4.308   0.214   0.390
95518SOL     OW88450   3.749   3.909   9.074
95518SOL    HW188451   3.810   3.958   9.019
95518SOL    HW288452   3.804   3.872   9.143
95519SOL     OW88453   6.827   2.164  14.204
95519SOL    HW188454   6.792   2.077  14.222
95519SOL    HW288455   6.753   2.223  14.215
95520SOL     OW88456   8.414  10.051   1.489
95520SOL    HW188457   8.482  10.115   1.512
95520SOL    HW288458   8.380  10.020   1.573
95521SOL     OW88459   9.268   7.603   1.764
95521SOL    HW188460   9.226   7.589   1.849
95521SOL    HW288461   9.322   7.525   1.750
95522SOL     OW88462   7.087   2.110   9.781
95522SOL    HW188463   7.163   2.091   9.727
95522SOL    HW288464   7.012   2.096   9.724
95523SOL     OW88465   7.972   2.310   4.295
95523SOL    HW188466   7.905   2.328   4.361
95523SOL    HW288467   8.052   2.293   4.346
95524SOL     OW88468   8.522  12.710  14.410
95524SOL    HW188469   8.447  12.652  14.422
95524SOL    HW288470   8.582  12.660  14.353
95525SOL     OW88471  10.410   7.122   7.980
95525SOL    HW188472  10.435   7.185   8.047
95525SOL    HW288473  10.493   7.079   7.955
95526SOL     OW88474   6.313  11.287   6.977
95526SOL    HW188475   6.223  11.320   6.975
95526SOL    HW288476   6.359  11.347   7.035
95527SOL     OW88477  10.370   8.020  10.275
95527SOL    HW188478  10.298   8.081  10.292
95527SOL    HW288479  10.331   7.933  10.281
95528SOL     OW88480   2.929  12.147   7.621
95528SOL    HW188481   2.922  12.223   7.680
95528SOL    HW288482   3.019  12.116   7.633
95529SOL     OW88483   3.058  14.251   3.453
95529SOL    HW188484   2.999  14.178   3.471
95529SOL    HW288485   3.146  14.215   3.468
95530SOL     OW88486   8.116  12.331  10.042
95530SOL    HW188487   8.136  12.367  10.128
95530SOL    HW288488   8.066  12.400   9.999
95531SOL     OW88489   3.720  13.707   5.403
95531SOL    HW188490   3.636  13.749   5.421
95531SOL    HW288491   3.731  13.715   5.308
95532SOL     OW88492   7.743   2.080  12.085
95532SOL    HW188493   7.753   2.175  12.078
95532SOL    HW288494   7.650   2.064  12.071
95533SOL     OW88495  10.805   0.249   3.451
95533SOL    HW188496  10.845   0.272   3.535
95533SOL    HW288497  10.849   0.169   3.425
95534SOL     OW88498  10.440   6.022   6.132
95534SOL    HW188499  10.357   6.066   6.110
95534SOL    HW288500  10.419   5.929   6.126
95535SOL     OW88501   5.926  10.627   7.995
95535SOL    HW188502   5.932  10.532   8.009
95535SOL    HW288503   5.910  10.636   7.901
95536SOL     OW88504  12.500   9.478   2.234
95536SOL    HW188505  12.502   9.564   2.193
95536SOL    HW288506  12.407   9.461   2.250
95537SOL     OW88507   8.993   1.714  12.369
95537SOL    HW188508   9.020   1.648  12.305
95537SOL    HW288509   9.064   1.715  12.433
95538SOL     OW88510   6.459   3.364   5.995
95538SOL    HW188511   6.515   3.365   5.917
95538SOL    HW288512   6.454   3.272   6.019
95539SOL     OW88513   4.557  13.479   0.823
95539SOL    HW188514   4.587  13.417   0.890
95539SOL    HW288515   4.637  13.521   0.792
95540SOL     OW88516  13.029  13.559  10.558
95540SOL    HW188517  12.973  13.609  10.617
95540SOL    HW288518  13.027  13.470  10.594
95541SOL     OW88519   5.993   5.747   1.507
95541SOL    HW188520   6.073   5.725   1.555
95541SOL    HW288521   5.970   5.835   1.537
95542SOL     OW88522   3.893   1.241  10.531
95542SOL    HW188523   3.885   1.291  10.449
95542SOL    HW288524   3.965   1.283  10.577
95543SOL     OW88525   8.143   6.980  14.151
95543SOL    HW188526   8.056   7.001  14.118
95543SOL    HW288527   8.196   7.058  14.133
95544SOL     OW88528  14.482   2.353  11.569
95544SOL    HW188529  14.528   2.383  11.490
95544SOL    HW288530  14.405   2.308  11.536
95545SOL     OW88531   1.607   8.926   9.249
95545SOL    HW188532   1.581   8.952   9.160
95545SOL    HW288533   1.690   8.971   9.264
95546SOL     OW88534   1.392  12.249   1.441
95546SOL    HW188535   1.473  12.300   1.437
95546SOL    HW288536   1.381  12.229   1.533
95547SOL     OW88537   6.215   3.974   4.579
95547SOL    HW188538   6.135   3.927   4.558
95547SOL    HW288539   6.246   4.007   4.494
95548SOL     OW88540   6.562  13.538  11.073
95548SOL    HW188541   6.480  13.567  11.034
95548SOL    HW288542   6.567  13.584  11.157
95549SOL     OW88543  13.799   2.508   7.583
95549SOL    HW188544  13.753   2.507   7.666
95549SOL    HW288545  13.890   2.528   7.606
95550SOL     OW88546   7.493   6.178  12.851
95550SOL    HW188547   7.434   6.215  12.785
95550SOL    HW288548   7.547   6.116  12.803
95551SOL     OW88549  11.600  11.064  14.566
95551SOL    HW188550  11.513  11.101  14.582
95551SOL    HW288551  11.643  11.127  14.508
95552SOL     OW88552   8.009  12.486  10.670
95552SOL    HW188553   7.921  12.453  10.688
95552SOL    HW288554   8.068  12.415  10.697
95553SOL     OW88555   8.247   8.571   0.305
95553SOL    HW188556   8.153   8.554   0.303
95553SOL    HW288557   8.262   8.613   0.390
95554SOL     OW88558   2.834   5.358  11.035
95554SOL    HW188559   2.783   5.299  11.091
95554SOL    HW288560   2.897   5.302  10.991
95555SOL     OW88561   0.480  10.505   7.029
95555SOL    HW188562   0.437  10.450   6.963
95555SOL    HW288563   0.512  10.442   7.094
95556SOL     OW88564   2.688   5.494   9.579
95556SOL    HW188565   2.708   5.411   9.623
95556SOL    HW288566   2.737   5.490   9.497
95557SOL     OW88567   9.672   5.873   0.264
95557SOL    HW188568   9.585   5.856   0.229
95557SOL    HW288569   9.713   5.787   0.269
95558SOL     OW88570   8.680   2.129   4.552
95558SOL    HW188571   8.695   2.034   4.557
95558SOL    HW288572   8.662   2.145   4.459
95559SOL     OW88573   1.660   6.547  10.740
95559SOL    HW188574   1.619   6.476  10.789
95559SOL    HW288575   1.601   6.622  10.753
95560SOL     OW88576   3.778  13.643   8.366
95560SOL    HW188577   3.706  13.693   8.405
95560SOL    HW288578   3.741  13.608   8.285
95561SOL     OW88579  12.661   5.898   4.279
95561SOL    HW188580  12.730   5.888   4.343
95561SOL    HW288581  12.580   5.896   4.330
95562SOL     OW88582  13.986   0.167   9.718
95562SOL    HW188583  13.934   0.097   9.758
95562SOL    HW288584  13.985   0.238   9.782
95563SOL     OW88585   4.581   7.916   4.563
95563SOL    HW188586   4.664   7.873   4.582
95563SOL    HW288587   4.594   7.955   4.476
95564SOL     OW88588   2.568   0.478   8.535
95564SOL    HW188589   2.582   0.541   8.465
95564SOL    HW288590   2.609   0.518   8.612
95565SOL     OW88591   9.970  13.904   8.309
95565SOL    HW188592   9.922  13.880   8.389
95565SOL    HW288593   9.902  13.917   8.243
95566SOL     OW88594   6.764   6.945  11.378
95566SOL    HW188595   6.774   6.861  11.333
95566SOL    HW288596   6.704   6.995  11.324
95567SOL     OW88597  10.323   4.980   5.602
95567SOL    HW188598  10.312   4.910   5.667
95567SOL    HW288599  10.273   4.951   5.526
95568SOL     OW88600   6.364   3.775   5.487
95568SOL    HW188601   6.306   3.850   5.495
95568SOL    HW288602   6.334   3.714   5.555
95569SOL     OW88603   1.516  13.156   9.126
95569SOL    HW188604   1.534  13.138   9.033
95569SOL    HW288605   1.449  13.091   9.149
95570SOL     OW88606   9.729   8.398   8.353
95570SOL    HW188607   9.693   8.487   8.355
95570SOL    HW288608   9.725   8.368   8.444
95571SOL     OW88609  12.726   3.852   3.355
95571SOL    HW188610  12.776   3.838   3.275
95571SOL    HW288611  12.667   3.777   3.359
95572SOL     OW88612   9.389   6.585   7.070
95572SOL    HW188613   9.303   6.545   7.075
95572SOL    HW288614   9.383   6.663   7.126
95573SOL     OW88615  14.203   0.747  13.823
95573SOL    HW188616  14.134   0.772  13.884
95573SOL    HW288617  14.228   0.659  13.850
95574SOL     OW88618   3.212  12.681  12.687
95574SOL    HW188619   3.174  12.720  12.609
95574SOL    HW288620   3.184  12.737  12.759
95575SOL     OW88621   5.277  11.151  13.738
95575SOL    HW188622   5.195  11.109  13.763
95575SOL    HW288623   5.327  11.157  13.819
95576SOL     OW88624   7.770   9.796  13.771
95576SOL    HW188625   7.851   9.798  13.720
95576SOL    HW288626   7.788   9.852  13.846
95577SOL     OW88627   4.335   4.434   2.164
95577SOL    HW188628   4.312   4.397   2.249
95577SOL    HW288629   4.407   4.380   2.133
95578SOL     OW88630   3.555  11.963  10.187
95578SOL    HW188631   3.560  11.964  10.091
95578SOL    HW288632   3.640  11.929  10.215
95579SOL     OW88633   5.361  13.455   9.358
95579SOL    HW188634   5.332  13.507   9.433
95579SOL    HW288635   5.422  13.392   9.396
95580SOL     OW88636   4.364  11.563   8.533
95580SOL    HW188637   4.400  11.597   8.451
95580SOL    HW288638   4.269  11.571   8.523
95581SOL     OW88639   8.120  12.131   7.154
95581SOL    HW188640   8.082  12.125   7.067
95581SOL    HW288641   8.048  12.108   7.213
95582SOL     OW88642   0.684  10.277   5.712
95582SOL    HW188643   0.739  10.351   5.737
95582SOL    HW288644   0.625  10.313   5.646
95583SOL     OW88645   2.140  13.237  11.139
95583SOL    HW188646   2.216  13.210  11.087
95583SOL    HW288647   2.091  13.156  11.153
95584SOL     OW88648   1.227   3.260   3.179
95584SOL    HW188649   1.239   3.178   3.130
95584SOL    HW288650   1.303   3.313   3.156
95585SOL     OW88651  11.837   0.516   2.096
95585SOL    HW188652  11.923   0.502   2.137
95585SOL    HW288653  11.844   0.602   2.056
95586SOL     OW88654  11.572   0.216   9.547
95586SOL    HW188655  11.531   0.196   9.463
95586SOL    HW288656  11.500   0.218   9.610
95587SOL     OW88657   1.076   5.686   9.354
95587SOL    HW188658   1.145   5.738   9.313
95587SOL    HW288659   1.118   5.603   9.377
95588SOL     OW88660   2.282  10.383   4.757
95588SOL    HW188661   2.303  10.305   4.807
95588SOL    HW288662   2.355  10.393   4.696
95589SOL     OW88663   2.965  11.233   1.999
95589SOL    HW188664   2.981  11.311   2.050
95589SOL    HW288665   2.954  11.265   1.909
95590SOL     OW88666   5.043  12.882  12.537
95590SOL    HW188667   4.976  12.927  12.589
95590SOL    HW288668   5.108  12.855  12.601
95591SOL     OW88669   9.522  12.361   8.101
95591SOL    HW188670   9.455  12.293   8.105
95591SOL    HW288671   9.560  12.363   8.188
95592SOL     OW88672  11.482   1.893  10.144
95592SOL    HW188673  11.468   1.811  10.096
95592SOL    HW288674  11.453   1.961  10.084
95593SOL     OW88675   7.064   0.416   2.014
95593SOL    HW188676   7.123   0.414   2.090
95593SOL    HW288677   6.990   0.361   2.040
95594SOL     OW88678  10.185   6.154  11.447
95594SOL    HW188679  10.252   6.154  11.515
95594SOL    HW288680  10.218   6.093  11.381
95595SOL     OW88681  13.002   8.530   3.068
95595SOL    HW188682  13.009   8.503   2.976
95595SOL    HW288683  12.918   8.575   3.072
95596SOL     OW88684   7.453  10.907  14.345
95596SOL    HW188685   7.440  10.864  14.430
95596SOL    HW288686   7.547  10.901  14.329
95597SOL     OW88687   3.889  13.220  10.069
95597SOL    HW188688   3.921  13.159  10.002
95597SOL    HW288689   3.877  13.303  10.023
95598SOL     OW88690   8.722  14.786  13.092
95598SOL    HW188691   8.669  14.831  13.157
95598SOL    HW288692   8.702  14.830  13.010
95599SOL     OW88693  10.891  12.180  13.400
95599SOL    HW188694  10.884  12.160  13.493
95599SOL    HW288695  10.815  12.136  13.360
95600SOL     OW88696   7.125   6.422  14.531
95600SOL    HW188697   7.078   6.348  14.571
95600SOL    HW288698   7.159   6.387  14.449
95601SOL     OW88699   0.550  12.769  11.841
95601SOL    HW188700   0.555  12.694  11.782
95601SOL    HW288701   0.574  12.844  11.787
95602SOL     OW88702  10.048   3.447  13.658
95602SOL    HW188703  10.052   3.470  13.751
95602SOL    HW288704  10.109   3.374  13.649
95603SOL     OW88705   6.456   9.532   5.399
95603SOL    HW188706   6.544   9.561   5.423
95603SOL    HW288707   6.402   9.610   5.406
95604SOL     OW88708   8.857  12.404   0.892
95604SOL    HW188709   8.884  12.357   0.971
95604SOL    HW288710   8.797  12.471   0.924
95605SOL     OW88711   1.499   0.722   1.563
95605SOL    HW188712   1.535   0.747   1.648
95605SOL    HW288713   1.434   0.655   1.583
95606SOL     OW88714   0.906   2.788   2.033
95606SOL    HW188715   0.997   2.790   2.003
95606SOL    HW288716   0.912   2.808   2.126
95607SOL     OW88717   9.462   5.813   9.331
95607SOL    HW188718   9.516   5.860   9.268
95607SOL    HW288719   9.455   5.724   9.296
95608SOL     OW88720   3.956  10.670   5.446
95608SOL    HW188721   4.027  10.613   5.416
95608SOL    HW288722   4.000  10.737   5.499
95609SOL     OW88723   2.622   1.605   9.242
95609SOL    HW188724   2.692   1.596   9.306
95609SOL    HW288725   2.616   1.700   9.227
95610SOL     OW88726   8.085  10.077  10.064
95610SOL    HW188727   8.110  10.099  10.154
95610SOL    HW288728   8.108  10.155  10.013
95611SOL     OW88729  14.847  10.854   7.155
95611SOL    HW188730   0.034  10.799   7.211
95611SOL    HW288731  14.763  10.810   7.152
95612SOL     OW88732   0.509   3.534   7.745
95612SOL    HW188733   0.421   3.513   7.715
95612SOL    HW288734   0.537   3.458   7.795
95613SOL     OW88735   5.276   8.948  14.412
95613SOL    HW188736   5.277   8.855  14.434
95613SOL    HW288737   5.223   8.955  14.333
95614SOL     OW88738   3.685   1.877   5.913
95614SOL    HW188739   3.632   1.867   5.833
95614SOL    HW288740   3.621   1.902   5.980
95615SOL     OW88741  14.204   6.441  12.667
95615SOL    HW188742  14.259   6.447  12.745
95615SOL    HW288743  14.266   6.443  12.594
95616SOL     OW88744  10.635   9.760   7.954
95616SOL    HW188745  10.686   9.792   7.879
95616SOL    HW288746  10.695   9.703   8.001
95617SOL     OW88747   7.410   8.433   4.297
95617SOL    HW188748   7.412   8.474   4.383
95617SOL    HW288749   7.499   8.445   4.263
95618SOL     OW88750   0.070  12.147   9.758
95618SOL    HW188751  14.853  12.191   9.764
95618SOL    HW288752   0.132  12.217   9.735
95619SOL     OW88753   1.045   4.266  10.686
95619SOL    HW188754   1.047   4.259  10.590
95619SOL    HW288755   1.113   4.206  10.716
95620SOL     OW88756   6.891   0.222   2.875
95620SOL    HW188757   6.944   0.288   2.920
95620SOL    HW288758   6.820   0.273   2.835
95621SOL     OW88759  12.191   3.953   7.538
95621SOL    HW188760  12.246   3.949   7.617
95621SOL    HW288761  12.174   4.046   7.526
95622SOL     OW88762   6.339  12.305   0.712
95622SOL    HW188763   6.270  12.322   0.777
95622SOL    HW288764   6.417  12.288   0.765
95623SOL     OW88765   7.366   3.607  12.847
95623SOL    HW188766   7.293   3.551  12.873
95623SOL    HW288767   7.326   3.690  12.821
95624SOL     OW88768   6.260   5.303   2.410
95624SOL    HW188769   6.334   5.345   2.367
95624SOL    HW288770   6.213   5.260   2.339
95625SOL     OW88771  12.210   7.512   5.314
95625SOL    HW188772  12.299   7.545   5.307
95625SOL    HW288773  12.165   7.576   5.369
95626SOL     OW88774   2.317   0.135   6.766
95626SOL    HW188775   2.277   0.187   6.696
95626SOL    HW288776   2.287   0.046   6.751
95627SOL     OW88777   9.809   0.497   0.890
95627SOL    HW188778   9.723   0.455   0.890
95627SOL    HW288779   9.791   0.589   0.909
95628SOL     OW88780   8.698   3.802   9.547
95628SOL    HW188781   8.760   3.821   9.617
95628SOL    HW288782   8.627   3.864   9.559
95629SOL     OW88783   9.319   7.827   9.829
95629SOL    HW188784   9.259   7.757   9.856
95629SOL    HW288785   9.347   7.802   9.741
95630SOL     OW88786   6.219  11.418   5.669
95630SOL    HW188787   6.301  11.394   5.626
95630SOL    HW288788   6.186  11.336   5.707
95631SOL     OW88789   2.385   6.757  12.758
95631SOL    HW188790   2.404   6.839  12.803
95631SOL    HW288791   2.296   6.735  12.784
95632SOL     OW88792   7.363   2.641   5.393
95632SOL    HW188793   7.442   2.686   5.424
95632SOL    HW288794   7.346   2.575   5.459
95633SOL     OW88795   9.180   5.164  12.087
95633SOL    HW188796   9.265   5.119  12.086
95633SOL    HW288797   9.198   5.249  12.048
95634SOL     OW88798   7.113   9.349  12.964
95634SOL    HW188799   7.099   9.406  13.040
95634SOL    HW288800   7.096   9.261  12.998
95635SOL     OW88801   9.173  11.429  13.281
95635SOL    HW188802   9.261  11.395  13.299
95635SOL    HW288803   9.122  11.352  13.258
95636SOL     OW88804  14.172  12.939   3.294
95636SOL    HW188805  14.137  12.950   3.205
95636SOL    HW288806  14.259  12.902   3.281
95637SOL     OW88807   2.909   1.114   4.520
95637SOL    HW188808   2.986   1.072   4.559
95637SOL    HW288809   2.887   1.185   4.580
95638SOL     OW88810  13.331   3.631   7.789
95638SOL    HW188811  13.241   3.605   7.773
95638SOL    HW288812  13.369   3.558   7.839
95639SOL     OW88813   4.140   8.518   2.479
95639SOL    HW188814   4.079   8.478   2.542
95639SOL    HW288815   4.142   8.457   2.406
95640SOL     OW88816  14.429  12.092  14.119
95640SOL    HW188817  14.413  12.016  14.174
95640SOL    HW288818  14.419  12.060  14.029
95641SOL     OW88819  11.990   5.352  13.970
95641SOL    HW188820  11.941   5.390  13.897
95641SOL    HW288821  11.929   5.355  14.043
95642SOL     OW88822   4.691   0.914   7.681
95642SOL    HW188823   4.604   0.886   7.652
95642SOL    HW288824   4.717   0.848   7.746
95643SOL     OW88825   9.257   4.359   0.199
95643SOL    HW188826   9.303   4.418   0.139
95643SOL    HW288827   9.189   4.413   0.238
95644SOL     OW88828   7.520  12.011  10.235
95644SOL    HW188829   7.443  11.973  10.277
95644SOL    HW288830   7.495  12.101  10.214
95645SOL     OW88831   6.135   7.206  13.067
95645SOL    HW188832   6.060   7.176  13.015
95645SOL    HW288833   6.211   7.174  13.019
95646SOL     OW88834   9.874   0.041  11.024
95646SOL    HW188835   9.833   0.122  11.052
95646SOL    HW288836   9.967   0.063  11.014
95647SOL     OW88837   0.581   4.203   3.170
95647SOL    HW188838   0.649   4.137   3.182
95647SOL    HW288839   0.504   4.166   3.214
95648SOL     OW88840  10.969  12.169   3.573
95648SOL    HW188841  11.061  12.154   3.593
95648SOL    HW288842  10.928  12.082   3.582
95649SOL     OW88843   2.245  10.484   9.484
95649SOL    HW188844   2.161  10.439   9.479
95649SOL    HW288845   2.292  10.439   9.554
95650SOL     OW88846  14.354  10.635   1.054
95650SOL    HW188847  14.394  10.558   1.097
95650SOL    HW288848  14.377  10.625   0.962
95651SOL     OW88849   1.975   3.094  14.710
95651SOL    HW188850   1.961   3.176  14.663
95651SOL    HW288851   1.926   3.029  14.659
95652SOL     OW88852   9.626   2.606   4.748
95652SOL    HW188853   9.716   2.608   4.717
95652SOL    HW288854   9.633   2.614   4.843
95653SOL     OW88855   8.898   4.725   9.197
95653SOL    HW188856   8.840   4.787   9.153
95653SOL    HW288857   8.846   4.645   9.204
95654SOL     OW88858   5.083  13.902   0.622
95654SOL    HW188859   5.156  13.893   0.560
95654SOL    HW288860   5.019  13.956   0.575
95655SOL     OW88861   1.231  13.671   1.270
95655SOL    HW188862   1.174  13.708   1.337
95655SOL    HW288863   1.299  13.738   1.257
95656SOL     OW88864  11.912   7.016   7.428
95656SOL    HW188865  11.869   6.932   7.408
95656SOL    HW288866  11.900   7.026   7.523
95657SOL     OW88867   0.454   0.689   7.821
95657SOL    HW188868   0.514   0.757   7.790
95657SOL    HW288869   0.367   0.724   7.805
95658SOL     OW88870   0.850  14.636   6.441
95658SOL    HW188871   0.799  14.592   6.373
95658SOL    HW288872   0.928  14.667   6.396
95659SOL     OW88873  14.101   3.730   2.238
95659SOL    HW188874  14.027   3.791   2.244
95659SOL    HW288875  14.177   3.781   2.266
95660SOL     OW88876   9.081   6.818   7.202
95660SOL    HW188877   9.043   6.755   7.263
95660SOL    HW288878   9.011   6.881   7.186
95661SOL     OW88879  12.667  12.523   2.614
95661SOL    HW188880  12.694  12.602   2.566
95661SOL    HW288881  12.691  12.451   2.556
95662SOL     OW88882  10.366   5.669  13.329
95662SOL    HW188883  10.378   5.680  13.235
95662SOL    HW288884  10.310   5.592  13.337
95663SOL     OW88885   5.893  13.731  10.989
95663SOL    HW188886   5.905  13.648  11.036
95663SOL    HW288887   5.828  13.711  10.922
95664SOL     OW88888   2.759   7.470   5.752
95664SOL    HW188889   2.674   7.514   5.746
95664SOL    HW288890   2.738   7.377   5.748
95665SOL     OW88891   4.265   6.817   3.185
95665SOL    HW188892   4.205   6.844   3.254
95665SOL    HW288893   4.329   6.888   3.179
95666SOL     OW88894   9.335  12.153  10.870
95666SOL    HW188895   9.353  12.235  10.916
95666SOL    HW288896   9.242  12.157  10.849
95667SOL     OW88897   8.984   0.434   7.777
95667SOL    HW188898   8.963   0.454   7.685
95667SOL    HW288899   8.972   0.517   7.823
95668SOL     OW88900   2.277  13.366  14.359
95668SOL    HW188901   2.355  13.413  14.329
95668SOL    HW288902   2.215  13.373  14.286
95669SOL     OW88903   9.477   4.510  11.818
95669SOL    HW188904   9.494   4.534  11.727
95669SOL    HW288905   9.425   4.583  11.853
95670SOL     OW88906   8.913   8.200  13.043
95670SOL    HW188907   8.876   8.282  13.009
95670SOL    HW288908   8.858   8.178  13.118
95671SOL     OW88909  12.822   0.381   5.873
95671SOL    HW188910  12.894   0.389   5.810
95671SOL    HW288911  12.746   0.417   5.826
95672SOL     OW88912  13.463   6.012   5.697
95672SOL    HW188913  13.376   6.050   5.691
95672SOL    HW288914  13.448   5.918   5.686
95673SOL     OW88915   3.073   0.986  10.603
95673SOL    HW188916   3.009   1.057  10.610
95673SOL    HW288917   3.082   0.971  10.509
95674SOL     OW88918   1.665   8.645   5.467
95674SOL    HW188919   1.711   8.723   5.438
95674SOL    HW288920   1.596   8.678   5.524
95675SOL     OW88921   1.569   8.185  11.746
95675SOL    HW188922   1.556   8.279  11.735
95675SOL    HW288923   1.497   8.157  11.802
95676SOL     OW88924   1.279   4.771   3.480
95676SOL    HW188925   1.345   4.702   3.489
95676SOL    HW288926   1.324   4.851   3.509
95677SOL     OW88927   2.332   4.070   8.065
95677SOL    HW188928   2.386   4.021   8.004
95677SOL    HW288929   2.384   4.077   8.145
95678SOL     OW88930   5.929   6.893   8.560
95678SOL    HW188931   6.012   6.878   8.605
95678SOL    HW288932   5.952   6.948   8.485
95679SOL     OW88933  14.413   4.612  13.728
95679SOL    HW188934  14.484   4.551  13.708
95679SOL    HW288935  14.417   4.678  13.658
95680SOL     OW88936  10.936  11.895  10.444
95680SOL    HW188937  10.886  11.927  10.519
95680SOL    HW288938  10.898  11.808  10.426
95681SOL     OW88939   7.207   8.304   4.175
95681SOL    HW188940   7.275   8.344   4.229
95681SOL    HW288941   7.215   8.347   4.090
95682SOL     OW88942   9.147   6.212   4.617
95682SOL    HW188943   9.119   6.130   4.657
95682SOL    HW288944   9.069   6.245   4.573
95683SOL     OW88945  13.855  10.001   9.944
95683SOL    HW188946  13.887  10.090   9.935
95683SOL    HW288947  13.865   9.962   9.857
95684SOL     OW88948   8.955  10.747   5.161
95684SOL    HW188949   8.949  10.674   5.223
95684SOL    HW288950   8.981  10.707   5.079
95685SOL     OW88951   2.417   7.901   8.787
95685SOL    HW188952   2.323   7.915   8.799
95685SOL    HW288953   2.440   7.957   8.713
95686SOL     OW88954   6.373   0.946   6.877
95686SOL    HW188955   6.326   1.014   6.925
95686SOL    HW288956   6.410   0.890   6.946
95687SOL     OW88957   9.669   4.794  10.701
95687SOL    HW188958   9.736   4.738  10.741
95687SOL    HW288959   9.679   4.879  10.744
95688SOL     OW88960  13.518   3.234   8.733
95688SOL    HW188961  13.532   3.324   8.761
95688SOL    HW288962  13.599   3.189   8.758
95689SOL     OW88963   1.428   3.605  12.772
95689SOL    HW188964   1.468   3.518  12.770
95689SOL    HW288965   1.459   3.644  12.854
95690SOL     OW88966  13.335  14.710   6.634
95690SOL    HW188967  13.407  14.668   6.681
95690SOL    HW288968  13.336  14.668   6.548
95691SOL     OW88969  13.277   7.480   3.627
95691SOL    HW188970  13.332   7.556   3.610
95691SOL    HW288971  13.245   7.492   3.716
95692SOL     OW88972  14.483   8.218   8.324
95692SOL    HW188973  14.406   8.250   8.278
95692SOL    HW288974  14.537   8.295   8.337
95693SOL     OW88975  10.555   3.113  11.429
95693SOL    HW188976  10.649   3.101  11.437
95693SOL    HW288977  10.516   3.045  11.484
95694SOL     OW88978   9.224   5.905   8.536
95694SOL    HW188979   9.185   5.825   8.572
95694SOL    HW288980   9.289   5.874   8.473
95695SOL     OW88981   1.848   6.223  11.807
95695SOL    HW188982   1.764   6.264  11.827
95695SOL    HW288983   1.903   6.294  11.773
95696SOL     OW88984   8.687  11.053   5.611
95696SOL    HW188985   8.697  11.138   5.568
95696SOL    HW288986   8.594  11.047   5.632
95697SOL     OW88987  14.535   8.916   0.952
95697SOL    HW188988  14.443   8.905   0.976
95697SOL    HW288989  14.542   9.008   0.924
95698SOL     OW88990   8.787  14.732   9.962
95698SOL    HW188991   8.842  14.720   9.885
95698SOL    HW288992   8.750  14.645   9.979
95699SOL     OW88993  11.792   3.157   8.624
95699SOL    HW188994  11.807   3.074   8.669
95699SOL    HW288995  11.700   3.177   8.641
95700SOL     OW88996  14.845   9.676  13.610
95700SOL    HW188997   0.046   9.659  13.545
95700SOL    HW288998   0.024   9.691  13.692
95701SOL     OW88999   9.976  10.210   4.988
95701SOL    HW189000   9.931  10.163   4.918
95701SOL    HW289001   9.936  10.297   4.988
95702SOL     OW89002  14.742   5.643   3.218
95702SOL    HW189003  14.650   5.625   3.201
95702SOL    HW289004  14.771   5.692   3.141
95703SOL     OW89005  10.669  14.064   1.812
95703SOL    HW189006  10.722  13.992   1.847
95703SOL    HW289007  10.705  14.080   1.725
95704SOL     OW89008   3.483   8.892   3.073
95704SOL    HW189009   3.468   8.802   3.042
95704SOL    HW289010   3.407   8.911   3.128
95705SOL     OW89011   7.250   2.325   2.689
95705SOL    HW189012   7.241   2.379   2.768
95705SOL    HW289013   7.326   2.362   2.644
95706SOL     OW89014   8.105   7.166   7.648
95706SOL    HW189015   8.125   7.253   7.682
95706SOL    HW289016   8.187   7.136   7.608
95707SOL     OW89017   3.996   2.728   2.263
95707SOL    HW189018   4.061   2.707   2.196
95707SOL    HW289019   4.048   2.745   2.342
95708SOL     OW89020   6.579  10.374   2.303
95708SOL    HW189021   6.528  10.318   2.245
95708SOL    HW289022   6.529  10.376   2.385
95709SOL     OW89023  12.840  14.000   3.361
95709SOL    HW189024  12.914  13.940   3.375
95709SOL    HW289025  12.879  14.087   3.367
95710SOL     OW89026   2.310   5.081   8.247
95710SOL    HW189027   2.289   5.039   8.331
95710SOL    HW289028   2.374   5.149   8.270
95711SOL     OW89029   1.893   5.487   1.462
95711SOL    HW189030   1.887   5.392   1.449
95711SOL    HW289031   1.815   5.522   1.417
95712SOL     OW89032  13.809   6.242   0.817
95712SOL    HW189033  13.881   6.256   0.756
95712SOL    HW289034  13.849   6.251   0.903
95713SOL     OW89035   2.158  10.189  10.196
95713SOL    HW189036   2.227  10.123  10.203
95713SOL    HW289037   2.083  10.150  10.239
95714SOL     OW89038  12.739   0.916   9.560
95714SOL    HW189039  12.778   0.860   9.628
95714SOL    HW289040  12.762   0.873   9.477
95715SOL     OW89041  10.734   7.321   6.741
95715SOL    HW189042  10.643   7.336   6.766
95715SOL    HW289043  10.784   7.363   6.811
95716SOL     OW89044  13.005  11.000  10.683
95716SOL    HW189045  13.044  11.080  10.649
95716SOL    HW289046  12.985  10.948  10.605
95717SOL     OW89047  11.383  11.615  14.282
95717SOL    HW189048  11.403  11.572  14.365
95717SOL    HW289049  11.419  11.703  14.290
95718SOL     OW89050   4.747   5.698  11.788
95718SOL    HW189051   4.830   5.732  11.755
95718SOL    HW289052   4.741   5.610  11.753
95719SOL     OW89053  14.053   9.967   6.015
95719SOL    HW189054  14.053   9.979   6.110
95719SOL    HW289055  14.125   9.906   5.999
95720SOL     OW89056   3.046  10.865   0.136
95720SOL    HW189057   3.040  10.907   0.051
95720SOL    HW289058   3.120  10.805   0.129
95721SOL     OW89059  10.728   8.302   0.647
95721SOL    HW189060  10.771   8.377   0.606
95721SOL    HW289061  10.762   8.300   0.736
95722SOL     OW89062  11.774  11.190   3.537
95722SOL    HW189063  11.683  11.204   3.566
95722SOL    HW289064  11.802  11.111   3.584
95723SOL     OW89065   9.379   5.606   9.683
95723SOL    HW189066   9.401   5.582   9.593
95723SOL    HW289067   9.462   5.633   9.721
95724SOL     OW89068   7.258  12.140  10.006
95724SOL    HW189069   7.191  12.197   9.968
95724SOL    HW289070   7.217  12.053  10.009
95725SOL     OW89071   2.035   8.501   3.591
95725SOL    HW189072   2.036   8.408   3.570
95725SOL    HW289073   1.967   8.538   3.535
95726SOL     OW89074   3.459  14.448  10.116
95726SOL    HW189075   3.512  14.430  10.038
95726SOL    HW289076   3.369  14.430  10.089
95727SOL     OW89077  13.772  14.854   0.478
95727SOL    HW189078  13.793   0.079   0.463
95727SOL    HW289079  13.819  14.807   0.410
95728SOL     OW89080   0.357   9.069   3.930
95728SOL    HW189081   0.336   8.995   3.987
95728SOL    HW289082   0.277   9.083   3.879
95729SOL     OW89083   2.022   1.357  13.274
95729SOL    HW189084   1.927   1.363  13.285
95729SOL    HW289085   2.047   1.277  13.320
95730SOL     OW89086   3.408   1.807  14.076
95730SOL    HW189087   3.352   1.779  14.004
95730SOL    HW289088   3.367   1.768  14.154
95731SOL     OW89089   3.122  14.458   1.056
95731SOL    HW189090   3.058  14.389   1.038
95731SOL    HW289091   3.086  14.536   1.014
95732SOL     OW89092  12.005   0.406  13.125
95732SOL    HW189093  11.916   0.413  13.160
95732SOL    HW289094  12.061   0.398  13.202
95733SOL     OW89095   5.950  12.667   9.214
95733SOL    HW189096   6.044  12.675   9.199
95733SOL    HW289097   5.941  12.588   9.266
95734SOL     OW89098   7.372  10.949  12.234
95734SOL    HW189099   7.408  10.969  12.148
95734SOL    HW289100   7.381  11.031  12.283
95735SOL     OW89101   7.472   1.389  11.236
95735SOL    HW189102   7.381   1.419  11.245
95735SOL    HW289103   7.517   1.429  11.310
95736SOL     OW89104  10.822   1.399   7.043
95736SOL    HW189105  10.840   1.465   7.110
95736SOL    HW289106  10.839   1.316   7.086
95737SOL     OW89107   5.872   6.922   8.060
95737SOL    HW189108   5.933   6.864   8.014
95737SOL    HW289109   5.920   7.004   8.070
95738SOL     OW89110   9.734  14.799   2.438
95738SOL    HW189111   9.659  14.854   2.416
95738SOL    HW289112   9.790  14.855   2.490
95739SOL     OW89113   3.450   2.286   8.356
95739SOL    HW189114   3.387   2.351   8.325
95739SOL    HW289115   3.413   2.255   8.439
95740SOL     OW89116   7.519   9.941  11.940
95740SOL    HW189117   7.596   9.972  11.893
95740SOL    HW289118   7.522   9.987  12.024
95741SOL     OW89119   7.080   4.250  14.293
95741SOL    HW189120   7.124   4.170  14.322
95741SOL    HW289121   7.131   4.279  14.217
95742SOL     OW89122   0.119   4.701   0.963
95742SOL    HW189123   0.129   4.671   1.053
95742SOL    HW289124   0.125   4.622   0.910
95743SOL     OW89125  13.553   0.203   8.423
95743SOL    HW189126  13.632   0.153   8.443
95743SOL    HW289127  13.558   0.221   8.330
95744SOL     OW89128   4.661   7.316   0.137
95744SOL    HW189129   4.697   7.332   0.225
95744SOL    HW289130   4.572   7.352   0.140
95745SOL     OW89131   6.388   3.877   4.814
95745SOL    HW189132   6.378   3.895   4.721
95745SOL    HW289133   6.316   3.925   4.856
95746SOL     OW89134   1.285   9.829   0.196
95746SOL    HW189135   1.351   9.899   0.194
95746SOL    HW289136   1.214   9.862   0.141
95747SOL     OW89137   4.178   2.140   8.544
95747SOL    HW189138   4.085   2.148   8.561
95747SOL    HW289139   4.219   2.144   8.630
95748SOL     OW89140   0.668   1.590   7.719
95748SOL    HW189141   0.587   1.641   7.711
95748SOL    HW289142   0.664   1.527   7.647
95749SOL     OW89143   9.304   7.642   4.132
95749SOL    HW189144   9.277   7.657   4.041
95749SOL    HW289145   9.318   7.729   4.168
95750SOL     OW89146   9.650  12.330  13.432
95750SOL    HW189147   9.666  12.334  13.526
95750SOL    HW289148   9.555  12.334  13.423
95751SOL     OW89149  12.724   2.739   1.783
95751SOL    HW189150  12.796   2.698   1.735
95751SOL    HW289151  12.725   2.695   1.868
95752SOL     OW89152   0.123  11.656   0.033
95752SOL    HW189153   0.164  11.570   0.024
95752SOL    HW289154   0.163  11.709  14.832
95753SOL     OW89155   1.501   8.029   5.612
95753SOL    HW189156   1.476   7.947   5.569
95753SOL    HW289157   1.560   8.072   5.549
95754SOL     OW89158   5.534   9.559  11.068
95754SOL    HW189159   5.487   9.527  10.991
95754SOL    HW289160   5.612   9.504  11.073
95755SOL     OW89161   9.662   9.917  11.175
95755SOL    HW189162   9.686   9.834  11.216
95755SOL    HW289163   9.681   9.983  11.242
95756SOL     OW89164   7.563   8.222   5.051
95756SOL    HW189165   7.489   8.279   5.072
95756SOL    HW289166   7.524   8.147   5.007
95757SOL     OW89167  12.528   6.383  13.639
95757SOL    HW189168  12.519   6.414  13.549
95757SOL    HW289169  12.609   6.423  13.670
95758SOL     OW89170   4.635  14.265   1.714
95758SOL    HW189171   4.578  14.315   1.656
95758SOL    HW289172   4.602  14.283   1.802
95759SOL     OW89173   3.341   6.224   6.761
95759SOL    HW189174   3.393   6.184   6.830
95759SOL    HW289175   3.316   6.310   6.797
95760SOL     OW89176  13.045   8.384   8.547
95760SOL    HW189177  13.111   8.433   8.596
95760SOL    HW289178  12.964   8.395   8.596
95761SOL     OW89179   2.221   4.570  13.330
95761SOL    HW189180   2.273   4.605  13.258
95761SOL    HW289181   2.190   4.485  13.298
95762SOL     OW89182  12.387   7.375   6.743
95762SOL    HW189183  12.415   7.467   6.738
95762SOL    HW289184  12.305   7.372   6.695
95763SOL     OW89185   4.350   4.959  13.438
95763SOL    HW189186   4.360   4.865  13.431
95763SOL    HW289187   4.390   4.994  13.359
95764SOL     OW89188  12.148   5.309   5.465
95764SOL    HW189189  12.235   5.326   5.503
95764SOL    HW289190  12.104   5.253   5.528
95765SOL     OW89191   6.729   4.700  13.645
95765SOL    HW189192   6.681   4.770  13.601
95765SOL    HW289193   6.676   4.679  13.722
95766SOL     OW89194  13.015   2.303  11.378
95766SOL    HW189195  13.105   2.278  11.396
95766SOL    HW289196  12.984   2.237  11.315
95767SOL     OW89197   2.918   9.945   6.687
95767SOL    HW189198   2.931   9.919   6.596
95767SOL    HW289199   2.910   9.862   6.735
95768SOL     OW89200   2.258  14.263  12.424
95768SOL    HW189201   2.304  14.188  12.388
95768SOL    HW289202   2.225  14.310  12.347
95769SOL     OW89203   4.403   0.475  14.617
95769SOL    HW189204   4.324   0.432  14.586
95769SOL    HW289205   4.423   0.539  14.549
95770SOL     OW89206   3.813  13.468   9.970
95770SOL    HW189207   3.860  13.461   9.888
95770SOL    HW289208   3.865  13.528  10.023
95771SOL     OW89209   4.740   0.493  14.119
95771SOL    HW189210   4.772   0.582  14.131
95771SOL    HW289211   4.665   0.485  14.177
95772SOL     OW89212   8.238  12.543   8.479
95772SOL    HW189213   8.243  12.453   8.510
95772SOL    HW289214   8.317  12.585   8.513
95773SOL     OW89215  13.556   6.650   4.408
95773SOL    HW189216  13.623   6.606   4.461
95773SOL    HW289217  13.552   6.601   4.327
95774SOL     OW89218  14.624   8.708   1.112
95774SOL    HW189219  14.605   8.793   1.072
95774SOL    HW289220  14.586   8.713   1.200
95775SOL     OW89221  13.280   9.400  14.453
95775SOL    HW189222  13.318   9.469  14.398
95775SOL    HW289223  13.300   9.428  14.543
95776SOL     OW89224   1.218   1.747   3.666
95776SOL    HW189225   1.229   1.704   3.750
95776SOL    HW289226   1.222   1.676   3.602
95777SOL     OW89227   5.046   4.542  10.376
95777SOL    HW189228   5.017   4.472  10.318
95777SOL    HW289229   5.064   4.498  10.459
95778SOL     OW89230   5.054  10.154   0.161
95778SOL    HW189231   5.117  10.083   0.177
95778SOL    HW289232   4.993  10.118   0.097
95779SOL     OW89233   2.057   7.823   4.530
95779SOL    HW189234   2.098   7.737   4.519
95779SOL    HW289235   2.075   7.869   4.447
95780SOL     OW89236   8.066  14.717   1.636
95780SOL    HW189237   7.988  14.769   1.656
95780SOL    HW289238   8.096  14.750   1.552
95781SOL     OW89239   5.096   4.944  12.265
95781SOL    HW189240   5.182   4.901  12.263
95781SOL    HW289241   5.070   4.942  12.357
95782SOL     OW89242   3.669  13.340   7.611
95782SOL    HW189243   3.759  13.312   7.590
95782SOL    HW289244   3.676  13.380   7.697
95783SOL     OW89245   9.389  11.127   9.735
95783SOL    HW189246   9.395  11.054   9.796
95783SOL    HW289247   9.353  11.199   9.786
95784SOL     OW89248   5.474   0.329  11.251
95784SOL    HW189249   5.516   0.271  11.314
95784SOL    HW289250   5.381   0.320  11.267
95785SOL     OW89251   3.013   8.094  14.261
95785SOL    HW189252   3.060   8.071  14.341
95785SOL    HW289253   3.050   8.178  14.235
95786SOL     OW89254   2.497   3.681  13.886
95786SOL    HW189255   2.497   3.775  13.865
95786SOL    HW289256   2.588   3.655  13.878
95787SOL     OW89257   8.713  12.443   2.869
95787SOL    HW189258   8.657  12.515   2.841
95787SOL    HW289259   8.719  12.386   2.792
95788SOL     OW89260  12.626   3.372   9.232
95788SOL    HW189261  12.534   3.391   9.253
95788SOL    HW289262  12.628   3.276   9.222
95789SOL     OW89263   3.725  10.800   7.003
95789SOL    HW189264   3.763  10.736   6.943
95789SOL    HW289265   3.659  10.751   7.052
95790SOL     OW89266   4.608  10.971   2.368
95790SOL    HW189267   4.605  10.912   2.292
95790SOL    HW289268   4.563  11.050   2.337
95791SOL     OW89269  11.302   0.511   8.064
95791SOL    HW189270  11.231   0.472   8.115
95791SOL    HW289271  11.289   0.479   7.975
95792SOL     OW89272   7.493   8.382   8.244
95792SOL    HW189273   7.451   8.297   8.230
95792SOL    HW289274   7.586   8.365   8.227
95793SOL     OW89275  12.288   5.344   9.573
95793SOL    HW189276  12.324   5.283   9.510
95793SOL    HW289277  12.361   5.402   9.595
95794SOL     OW89278   1.989  14.094   0.953
95794SOL    HW189279   2.040  14.144   1.017
95794SOL    HW289280   1.934  14.036   1.006
95795SOL     OW89281   9.091   3.724  11.860
95795SOL    HW189282   9.112   3.817  11.851
95795SOL    HW289283   8.996   3.720  11.853
95796SOL     OW89284   4.748   0.407   4.531
95796SOL    HW189285   4.817   0.393   4.467
95796SOL    HW289286   4.756   0.499   4.556
95797SOL     OW89287   3.700   9.215   0.118
95797SOL    HW189288   3.674   9.238   0.207
95797SOL    HW289289   3.789   9.247   0.109
95798SOL     OW89290  11.365  14.258  11.951
95798SOL    HW189291  11.421  14.217  12.017
95798SOL    HW289292  11.426  14.293  11.886
95799SOL     OW89293   4.938   8.426  13.718
95799SOL    HW189294   4.863   8.399  13.665
95799SOL    HW289295   5.013   8.383  13.677
95800SOL     OW89296  11.579  12.926  10.467
95800SOL    HW189297  11.489  12.934  10.499
95800SOL    HW289298  11.611  12.844  10.504
95801SOL     OW89299   5.711   6.735   0.391
95801SOL    HW189300   5.723   6.807   0.453
95801SOL    HW289301   5.752   6.660   0.434
95802SOL     OW89302   1.802   5.067  10.819
95802SOL    HW189303   1.885   5.057  10.773
95802SOL    HW289304   1.739   5.019  10.766
95803SOL     OW89305   6.803   9.574  11.827
95803SOL    HW189306   6.807   9.556  11.920
95803SOL    HW289307   6.739   9.645  11.819
95804SOL     OW89308   2.709  14.698   3.005
95804SOL    HW189309   2.717  14.762   3.075
95804SOL    HW289310   2.627  14.722   2.960
95805SOL     OW89311   7.768   8.975   1.119
95805SOL    HW189312   7.837   8.979   1.185
95805SOL    HW289313   7.814   8.992   1.036
95806SOL     OW89314   5.866   4.918  12.642
95806SOL    HW189315   5.901   4.860  12.574
95806SOL    HW289316   5.786   4.953  12.605
95807SOL     OW89317   2.769  10.757   7.560
95807SOL    HW189318   2.783  10.663   7.575
95807SOL    HW289319   2.816  10.800   7.631
95808SOL     OW89320   2.287   2.426  12.696
95808SOL    HW189321   2.282   2.480  12.774
95808SOL    HW289322   2.313   2.339  12.727
95809SOL     OW89323   5.397  11.516  11.255
95809SOL    HW189324   5.327  11.460  11.287
95809SOL    HW289325   5.388  11.515  11.160
95810SOL     OW89326   7.915   9.629   1.846
95810SOL    HW189327   7.978   9.558   1.833
95810SOL    HW289328   7.944   9.672   1.927
95811SOL     OW89329   9.101  13.613   9.305
95811SOL    HW189330   9.019  13.602   9.353
95811SOL    HW289331   9.118  13.528   9.265
95812SOL     OW89332   3.458  10.982   8.844
95812SOL    HW189333   3.473  11.063   8.894
95812SOL    HW289334   3.431  11.012   8.758
95813SOL     OW89335  12.503  10.082   0.474
95813SOL    HW189336  12.521  10.173   0.497
95813SOL    HW289337  12.410  10.081   0.452
95814SOL     OW89338   8.736  12.932   9.802
95814SOL    HW189339   8.767  12.954   9.890
95814SOL    HW289340   8.804  12.965   9.743
95815SOL     OW89341  11.933  14.582   7.226
95815SOL    HW189342  11.939  14.647   7.296
95815SOL    HW289343  12.020  14.580   7.187
95816SOL     OW89344   1.339  10.151   9.720
95816SOL    HW189345   1.334  10.217   9.650
95816SOL    HW289346   1.377  10.198   9.794
95817SOL     OW89347   8.460  14.433  10.372
95817SOL    HW189348   8.417  14.419  10.288
95817SOL    HW289349   8.414  14.508  10.410
95818SOL     OW89350   2.157  14.707  13.074
95818SOL    HW189351   2.206  14.702  12.991
95818SOL    HW289352   2.086  14.643  13.063
95819SOL     OW89353  10.955  10.718   2.649
95819SOL    HW189354  10.992  10.753   2.569
95819SOL    HW289355  10.861  10.720   2.636
95820SOL     OW89356   0.615   3.303   3.058
95820SOL    HW189357   0.526   3.326   3.082
95820SOL    HW289358   0.624   3.211   3.085
95821SOL     OW89359   5.161  11.022   9.010
95821SOL    HW189360   5.249  11.030   8.974
95821SOL    HW289361   5.174  11.015   9.104
95822SOL     OW89362   0.592  11.468   3.189
95822SOL    HW189363   0.632  11.555   3.189
95822SOL    HW289364   0.503  11.483   3.156
95823SOL     OW89365   6.353  13.056   0.933
95823SOL    HW189366   6.284  13.119   0.911
95823SOL    HW289367   6.393  13.090   1.013
95824SOL     OW89368   5.910   5.080   9.981
95824SOL    HW189369   5.819   5.053   9.970
95824SOL    HW289370   5.913   5.123  10.066
95825SOL     OW89371   9.518   5.657   1.047
95825SOL    HW189372   9.530   5.588   1.112
95825SOL    HW289373   9.496   5.735   1.098
95826SOL     OW89374   9.441  13.423   8.553
95826SOL    HW189375   9.386  13.471   8.615
95826SOL    HW289376   9.398  13.437   8.468
95827SOL     OW89377  10.807  11.339   8.331
95827SOL    HW189378  10.809  11.423   8.377
95827SOL    HW289379  10.863  11.281   8.382
95828SOL     OW89380   4.779   9.704   6.676
95828SOL    HW189381   4.764   9.738   6.588
95828SOL    HW289382   4.743   9.772   6.734
95829SOL     OW89383   5.070   6.920   3.716
95829SOL    HW189384   5.097   7.011   3.729
95829SOL    HW289385   4.976   6.925   3.699
95830SOL     OW89386  13.280  11.199   8.004
95830SOL    HW189387  13.302  11.201   7.911
95830SOL    HW289388  13.336  11.267   8.043
95831SOL     OW89389   4.714   0.661  14.633
95831SOL    HW189390   4.649   0.593  14.621
95831SOL    HW289391   4.795   0.624  14.597
95832SOL     OW89392   9.086   4.963   4.319
95832SOL    HW189393   9.098   4.949   4.413
95832SOL    HW289394   8.993   4.944   4.304
95833SOL     OW89395   7.837   2.166   9.419
95833SOL    HW189396   7.872   2.101   9.480
95833SOL    HW289397   7.749   2.184   9.452
95834SOL     OW89398   0.780   6.292   3.379
95834SOL    HW189399   0.815   6.358   3.319
95834SOL    HW289400   0.685   6.301   3.371
95835SOL     OW89401   3.455  14.849   3.314
95835SOL    HW189402   3.508  14.788   3.263
95835SOL    HW289403   3.490   0.068   3.293
95836SOL     OW89404   4.256   3.539   5.587
95836SOL    HW189405   4.271   3.464   5.529
95836SOL    HW289406   4.308   3.519   5.665
95837SOL     OW89407  10.653   1.904  10.052
95837SOL    HW189408  10.562   1.927  10.034
95837SOL    HW289409  10.650   1.856  10.135
95838SOL     OW89410  13.246   4.995   5.811
95838SOL    HW189411  13.256   4.943   5.891
95838SOL    HW289412  13.203   4.936   5.749
95839SOL     OW89413   3.150   4.119  11.412
95839SOL    HW189414   3.154   4.049  11.477
95839SOL    HW289415   3.155   4.199  11.463
95840SOL     OW89416   0.566   3.298  13.061
95840SOL    HW189417   0.658   3.301  13.087
95840SOL    HW289418   0.546   3.387  13.032
95841SOL     OW89419   3.898  13.626   7.700
95841SOL    HW189420   3.892  13.552   7.760
95841SOL    HW289421   3.850  13.696   7.743
95842SOL     OW89422   8.436   9.171   3.191
95842SOL    HW189423   8.423   9.217   3.274
95842SOL    HW289424   8.451   9.080   3.217
95843SOL     OW89425   5.135   1.552  10.192
95843SOL    HW189426   5.077   1.533  10.266
95843SOL    HW289427   5.098   1.631  10.153
95844SOL     OW89428   3.860   3.248   2.220
95844SOL    HW189429   3.949   3.216   2.226
95844SOL    HW289430   3.830   3.222   2.132
95845SOL     OW89431   5.034   4.951   5.952
95845SOL    HW189432   4.996   4.864   5.957
95845SOL    HW289433   5.042   4.979   6.043
95846SOL     OW89434   9.790   8.178   6.661
95846SOL    HW189435   9.807   8.201   6.752
95846SOL    HW289436   9.866   8.127   6.634
95847SOL     OW89437   7.447  14.017  13.898
95847SOL    HW189438   7.421  13.967  13.975
95847SOL    HW289439   7.364  14.042  13.857
95848SOL     OW89440   0.410  11.496   4.158
95848SOL    HW189441   0.352  11.452   4.219
95848SOL    HW289442   0.395  11.451   4.074
95849SOL     OW89443   3.494  10.089   1.728
95849SOL    HW189444   3.414  10.135   1.703
95849SOL    HW289445   3.545  10.154   1.776
95850SOL     OW89446   2.868   6.037   0.222
95850SOL    HW189447   2.901   6.094   0.152
95850SOL    HW289448   2.857   6.095   0.297
95851SOL     OW89449   9.523  12.516   3.883
95851SOL    HW189450   9.580  12.450   3.843
95851SOL    HW289451   9.453  12.529   3.818
95852SOL     OW89452  13.375   8.722   6.723
95852SOL    HW189453  13.407   8.752   6.808
95852SOL    HW289454  13.295   8.773   6.708
95853SOL     OW89455   7.070   7.735  13.061
95853SOL    HW189456   7.007   7.807  13.049
95853SOL    HW289457   7.155   7.774  13.042
95854SOL     OW89458   1.177   1.427   3.647
95854SOL    HW189459   1.135   1.358   3.699
95854SOL    HW289460   1.219   1.380   3.575
95855SOL     OW89461   6.177   3.605   3.156
95855SOL    HW189462   6.233   3.662   3.208
95855SOL    HW289463   6.111   3.573   3.218
95856SOL     OW89464  13.358   8.679   7.714
95856SOL    HW189465  13.392   8.591   7.697
95856SOL    HW289466  13.273   8.681   7.670
95857SOL     OW89467   3.751   5.175  11.669
95857SOL    HW189468   3.679   5.235  11.651
95857SOL    HW289469   3.745   5.108  11.601
95858SOL     OW89470   6.892   6.499  12.080
95858SOL    HW189471   6.962   6.446  12.042
95858SOL    HW289472   6.874   6.567  12.014
95859SOL     OW89473  10.806   7.742   9.999
95859SOL    HW189474  10.722   7.764  10.038
95859SOL    HW289475  10.815   7.648  10.011
95860SOL     OW89476   4.075   9.488   8.517
95860SOL    HW189477   4.003   9.542   8.549
95860SOL    HW289478   4.044   9.453   8.434
95861SOL     OW89479   4.546   0.544   7.045
95861SOL    HW189480   4.503   0.541   7.130
95861SOL    HW289481   4.634   0.577   7.063
95862SOL     OW89482   2.520   3.632   3.237
95862SOL    HW189483   2.574   3.694   3.286
95862SOL    HW289484   2.583   3.576   3.193
95863SOL     OW89485  12.659   8.704   4.261
95863SOL    HW189486  12.597   8.728   4.330
95863SOL    HW289487  12.614   8.638   4.209
95864SOL     OW89488   7.091   9.909  10.500
95864SOL    HW189489   7.053   9.858  10.572
95864SOL    HW289490   7.173   9.943  10.537
95865SOL     OW89491   0.723   4.029   1.879
95865SOL    HW189492   0.684   3.975   1.811
95865SOL    HW289493   0.664   4.022   1.954
95866SOL     OW89494   2.182   4.522   8.643
95866SOL    HW189495   2.261   4.551   8.597
95866SOL    HW289496   2.133   4.603   8.659
95867SOL     OW89497   0.100   0.246   9.832
95867SOL    HW189498   0.134   0.194   9.905
95867SOL    HW289499   0.170   0.245   9.767
95868SOL     OW89500   8.649   0.272   2.056
95868SOL    HW189501   8.741   0.262   2.030
95868SOL    HW289502   8.625   0.186   2.091
95869SOL     OW89503   8.921   6.942   3.459
95869SOL    HW189504   8.846   7.001   3.454
95869SOL    HW289505   8.884   6.855   3.446
95870SOL     OW89506   2.643   7.036   7.336
95870SOL    HW189507   2.561   7.065   7.377
95870SOL    HW289508   2.648   7.086   7.255
95871SOL     OW89509  13.598  12.688  11.852
95871SOL    HW189510  13.573  12.602  11.886
95871SOL    HW289511  13.628  12.737  11.928
95872SOL     OW89512  13.462  13.091   7.923
95872SOL    HW189513  13.533  13.062   7.866
95872SOL    HW289514  13.384  13.086   7.868
95873SOL     OW89515   6.043   0.852  12.240
95873SOL    HW189516   6.064   0.892  12.324
95873SOL    HW289517   5.988   0.777  12.262
95874SOL     OW89518   5.799  10.830   9.794
95874SOL    HW189519   5.707  10.808   9.777
95874SOL    HW289520   5.832  10.756   9.845
95875SOL     OW89521   7.766   9.797  11.028
95875SOL    HW189522   7.731   9.865  11.086
95875SOL    HW289523   7.859   9.794  11.049
95876SOL     OW89524   2.655  10.346  12.571
95876SOL    HW189525   2.663  10.433  12.532
95876SOL    HW289526   2.708  10.350  12.650
95877SOL     OW89527  14.862   0.458  13.547
95877SOL    HW189528   0.071   0.449  13.492
95877SOL    HW289529   0.004   0.391  13.614
95878SOL     OW89530   0.657   1.693   7.986
95878SOL    HW189531   0.583   1.753   7.981
95878SOL    HW289532   0.669   1.662   7.897
95879SOL     OW89533   3.195   1.270   6.949
95879SOL    HW189534   3.125   1.334   6.959
95879SOL    HW289535   3.257   1.312   6.890
95880SOL     OW89536   8.191  11.265   2.077
95880SOL    HW189537   8.153  11.250   2.163
95880SOL    HW289538   8.187  11.180   2.033
95881SOL     OW89539  14.291   8.701   0.380
95881SOL    HW189540  14.383   8.686   0.401
95881SOL    HW289541  14.248   8.619   0.404
95882SOL     OW89542   5.634   5.611   2.819
95882SOL    HW189543   5.575   5.603   2.744
95882SOL    HW289544   5.688   5.688   2.798
95883SOL     OW89545   9.800  14.018  10.394
95883SOL    HW189546   9.830  14.025  10.304
95883SOL    HW289547   9.732  13.951  10.392
95884SOL     OW89548   3.984  11.553   2.849
95884SOL    HW189549   4.056  11.610   2.823
95884SOL    HW289550   4.011  11.465   2.821
95885SOL     OW89551   4.752   4.649   4.595
95885SOL    HW189552   4.674   4.596   4.576
95885SOL    HW289553   4.789   4.667   4.509
95886SOL     OW89554   1.992   9.209   8.939
95886SOL    HW189555   1.974   9.213   8.845
95886SOL    HW289556   2.084   9.234   8.947
95887SOL     OW89557   6.839  14.805   9.481
95887SOL    HW189558   6.819  14.712   9.489
95887SOL    HW289559   6.917  14.818   9.534
95888SOL     OW89560   7.144  11.708   8.810
95888SOL    HW189561   7.113  11.715   8.900
95888SOL    HW289562   7.127  11.795   8.772
95889SOL     OW89563   5.694  13.320  12.499
95889SOL    HW189564   5.619  13.380  12.501
95889SOL    HW289565   5.758  13.364  12.443
95890SOL     OW89566   2.882  11.866   6.673
95890SOL    HW189567   2.956  11.806   6.684
95890SOL    HW289568   2.890  11.899   6.584
95891SOL     OW89569  14.486   2.147   8.617
95891SOL    HW189570  14.491   2.055   8.592
95891SOL    HW289571  14.573   2.182   8.597
95892SOL     OW89572  11.941   6.277   1.088
95892SOL    HW189573  11.907   6.367   1.088
95892SOL    HW289574  11.965   6.260   1.179
95893SOL     OW89575   8.851  11.131  14.452
95893SOL    HW189576   8.833  11.204  14.511
95893SOL    HW289577   8.767  11.088  14.441
95894SOL     OW89578  13.449  12.738   7.837
95894SOL    HW189579  13.501  12.770   7.764
95894SOL    HW289580  13.460  12.643   7.835
95895SOL     OW89581   8.779   9.210  12.014
95895SOL    HW189582   8.870   9.184  12.002
95895SOL    HW289583   8.739   9.197  11.928
95896SOL     OW89584  12.653  14.363   9.839
95896SOL    HW189585  12.644  14.448   9.796
95896SOL    HW289586  12.572  14.317   9.819
95897SOL     OW89587   7.595  10.981  12.558
95897SOL    HW189588   7.558  11.021  12.480
95897SOL    HW289589   7.605  11.053  12.620
95898SOL     OW89590  10.815   7.589   3.098
95898SOL    HW189591  10.830   7.543   3.181
95898SOL    HW289592  10.719   7.593   3.090
95899SOL     OW89593   2.968   9.248  10.264
95899SOL    HW189594   2.890   9.202  10.232
95899SOL    HW289595   3.001   9.295  10.188
95900SOL     OW89596  14.256   5.230   9.930
95900SOL    HW189597  14.237   5.310   9.980
95900SOL    HW289598  14.216   5.160   9.982
95901SOL     OW89599   2.672  12.557  10.325
95901SOL    HW189600   2.708  12.559  10.414
95901SOL    HW289601   2.698  12.641  10.287
95902SOL     OW89602   6.401   9.781   5.148
95902SOL    HW189603   6.371   9.730   5.073
95902SOL    HW289604   6.351   9.745   5.222
95903SOL     OW89605   1.840  13.908  13.999
95903SOL    HW189606   1.912  13.943  13.946
95903SOL    HW289607   1.801  13.986  14.039
95904SOL     OW89608   6.632  14.675  12.542
95904SOL    HW189609   6.663  14.752  12.590
95904SOL    HW289610   6.694  14.664  12.471
95905SOL     OW89611   0.395  11.105  10.791
95905SOL    HW189612   0.423  11.105  10.882
95905SOL    HW289613   0.397  11.197  10.765
95906SOL     OW89614   1.426   8.671   7.731
95906SOL    HW189615   1.381   8.602   7.778
95906SOL    HW289616   1.428   8.745   7.792
95907SOL     OW89617   4.741   2.692   6.439
95907SOL    HW189618   4.719   2.774   6.394
95907SOL    HW289619   4.680   2.628   6.403
95908SOL     OW89620   1.656  12.915   2.324
95908SOL    HW189621   1.676  12.918   2.231
95908SOL    HW289622   1.722  12.971   2.365
95909SOL     OW89623  10.563   8.933   8.284
95909SOL    HW189624  10.486   8.973   8.324
95909SOL    HW289625  10.595   8.998   8.222
95910SOL     OW89626   3.025   7.076   1.158
95910SOL    HW189627   3.011   7.113   1.245
95910SOL    HW289628   2.968   6.999   1.155
95911SOL     OW89629   2.282  10.288   7.658
95911SOL    HW189630   2.205  10.242   7.694
95911SOL    HW289631   2.253  10.319   7.573
95912SOL     OW89632  10.400   4.626   4.694
95912SOL    HW189633  10.325   4.599   4.748
95912SOL    HW289634  10.476   4.594   4.742
95913SOL     OW89635   3.783   0.394   2.113
95913SOL    HW189636   3.713   0.441   2.160
95913SOL    HW289637   3.740   0.317   2.077
95914SOL     OW89638   6.850  14.376  13.617
95914SOL    HW189639   6.923  14.333  13.574
95914SOL    HW289640   6.773  14.328  13.588
95915SOL     OW89641  12.206   2.073   2.365
95915SOL    HW189642  12.230   2.034   2.449
95915SOL    HW289643  12.209   2.167   2.381
95916SOL     OW89644   5.444  12.509  11.872
95916SOL    HW189645   5.357  12.538  11.843
95916SOL    HW289646   5.492  12.591  11.886
95917SOL     OW89647   6.937  11.625  10.509
95917SOL    HW189648   7.025  11.592  10.528
95917SOL    HW289649   6.907  11.573  10.435
95918SOL     OW89650   1.974  14.486   0.574
95918SOL    HW189651   1.975  14.413   0.513
95918SOL    HW289652   2.053  14.535   0.554
95919SOL     OW89653   7.445   6.838   8.515
95919SOL    HW189654   7.363   6.792   8.535
95919SOL    HW289655   7.475   6.799   8.433
95920SOL     OW89656   8.641   8.527  14.815
95920SOL    HW189657   8.551   8.508  14.842
95920SOL    HW289658   8.689   8.446  14.832
95921SOL     OW89659  10.533  10.393   1.754
95921SOL    HW189660  10.587  10.457   1.800
95921SOL    HW289661  10.469  10.365   1.819
95922SOL     OW89662   0.802   6.766   7.385
95922SOL    HW189663   0.750   6.706   7.438
95922SOL    HW289664   0.806   6.724   7.299
95923SOL     OW89665  14.451  14.822   2.074
95923SOL    HW189666  14.448   0.049   2.066
95923SOL    HW289667  14.538  14.804   2.112
95924SOL     OW89668   1.328   8.890   4.975
95924SOL    HW189669   1.409   8.839   4.983
95924SOL    HW289670   1.348   8.954   4.907
95925SOL     OW89671   9.072  10.129  12.416
95925SOL    HW189672   9.090  10.118  12.509
95925SOL    HW289673   9.148  10.177  12.382
95926SOL     OW89674  12.845  10.415   4.873
95926SOL    HW189675  12.896  10.340   4.844
95926SOL    HW289676  12.854  10.480   4.803
95927SOL     OW89677   1.371   5.442   5.884
95927SOL    HW189678   1.352   5.352   5.856
95927SOL    HW289679   1.291   5.490   5.867
95928SOL     OW89680   7.008   9.241  14.700
95928SOL    HW189681   6.923   9.277  14.726
95928SOL    HW289682   7.050   9.311  14.650
95929SOL     OW89683  11.974   9.552   4.526
95929SOL    HW189684  11.989   9.513   4.612
95929SOL    HW289685  11.889   9.518   4.499
95930SOL     OW89686   5.610  14.178  13.940
95930SOL    HW189687   5.577  14.165  14.030
95930SOL    HW289688   5.705  14.177  13.950
95931SOL     OW89689   5.919  13.117  11.062
95931SOL    HW189690   5.853  13.187  11.069
95931SOL    HW289691   5.891  13.066  10.987
95932SOL     OW89692   6.163   3.103  11.273
95932SOL    HW189693   6.142   3.058  11.191
95932SOL    HW289694   6.085   3.091  11.327
95933SOL     OW89695   1.165   3.639   7.396
95933SOL    HW189696   1.204   3.573   7.452
95933SOL    HW289697   1.080   3.657   7.436
95934SOL     OW89698  10.503  13.416   9.261
95934SOL    HW189699  10.511  13.361   9.183
95934SOL    HW289700  10.467  13.358   9.327
95935SOL     OW89701   4.292   2.518  11.690
95935SOL    HW189702   4.291   2.570  11.771
95935SOL    HW289703   4.307   2.582  11.621
95936SOL     OW89704   9.806  14.222  12.133
95936SOL    HW189705   9.729  14.172  12.161
95936SOL    HW289706   9.872  14.155  12.116
95937SOL     OW89707   8.423   9.422   9.320
95937SOL    HW189708   8.489   9.354   9.308
95937SOL    HW289709   8.455   9.474   9.393
95938SOL     OW89710   3.807  14.116  12.846
95938SOL    HW189711   3.822  14.035  12.798
95938SOL    HW289712   3.743  14.164  12.793
95939SOL     OW89713   9.519   6.107   1.295
95939SOL    HW189714   9.579   6.122   1.368
95939SOL    HW289715   9.485   6.194   1.273
95940SOL     OW89716  14.074  13.587   5.009
95940SOL    HW189717  14.031  13.533   5.075
95940SOL    HW289718  14.159  13.608   5.047
95941SOL     OW89719   1.082   7.078   5.571
95941SOL    HW189720   0.991   7.095   5.596
95941SOL    HW289721   1.120   7.034   5.647
95942SOL     OW89722  10.459   4.694  12.209
95942SOL    HW189723  10.455   4.765  12.144
95942SOL    HW289724  10.552   4.683  12.227
95943SOL     OW89725   5.685   9.366  13.492
95943SOL    HW189726   5.665   9.291  13.436
95943SOL    HW289727   5.697   9.327  13.579
95944SOL     OW89728   4.273   4.178  10.021
95944SOL    HW189729   4.331   4.175   9.945
95944SOL    HW289730   4.263   4.271  10.040
95945SOL     OW89731   5.775   2.420   8.801
95945SOL    HW189732   5.849   2.410   8.861
95945SOL    HW289733   5.814   2.419   8.714
95946SOL     OW89734   4.864   0.776  13.628
95946SOL    HW189735   4.874   0.685  13.656
95946SOL    HW289736   4.881   0.828  13.706
95947SOL     OW89737  12.470  11.442   2.615
95947SOL    HW189738  12.504  11.520   2.572
95947SOL    HW289739  12.407  11.475   2.680
95948SOL     OW89740   1.811  10.126  13.130
95948SOL    HW189741   1.846  10.121  13.041
95948SOL    HW289742   1.885  10.101  13.186
95949SOL     OW89743   8.180   8.820  10.118
95949SOL    HW189744   8.218   8.764  10.186
95949SOL    HW289745   8.255   8.860  10.075
95950SOL     OW89746  13.105   4.333   3.351
95950SOL    HW189747  13.097   4.305   3.259
95950SOL    HW289748  13.016   4.356   3.377
95951SOL     OW89749   1.928  11.458   7.456
95951SOL    HW189750   1.836  11.431   7.448
95951SOL    HW289751   1.929  11.514   7.533
95952SOL     OW89752  11.805   1.354  11.425
95952SOL    HW189753  11.752   1.282  11.391
95952SOL    HW289754  11.880   1.359  11.365
95953SOL     OW89755  13.325   3.477   3.193
95953SOL    HW189756  13.378   3.405   3.159
95953SOL    HW289757  13.386   3.551   3.199
95954SOL     OW89758  12.756   4.357   5.602
95954SOL    HW189759  12.835   4.344   5.654
95954SOL    HW289760  12.787   4.393   5.518
95955SOL     OW89761  13.902   6.328   2.876
95955SOL    HW189762  13.807   6.326   2.870
95955SOL    HW289763  13.931   6.248   2.834
95956SOL     OW89764   4.738   3.507   7.099
95956SOL    HW189765   4.734   3.431   7.158
95956SOL    HW289766   4.744   3.583   7.159
95957SOL     OW89767  10.726  12.815  10.311
95957SOL    HW189768  10.700  12.862  10.390
95957SOL    HW289769  10.767  12.734  10.342
95958SOL     OW89770  13.363   3.624  13.130
95958SOL    HW189771  13.276   3.611  13.167
95958SOL    HW289772  13.421   3.626  13.205
95959SOL     OW89773   5.720   9.870  13.777
95959SOL    HW189774   5.710   9.948  13.721
95959SOL    HW289775   5.803   9.883  13.822
95960SOL     OW89776   5.184   7.431  10.968
95960SOL    HW189777   5.177   7.471  11.054
95960SOL    HW289778   5.199   7.338  10.986
95961SOL     OW89779   9.296   5.611  10.129
95961SOL    HW189780   9.377   5.646  10.092
95961SOL    HW289781   9.284   5.527  10.084
95962SOL     OW89782   1.226   9.774   1.631
95962SOL    HW189783   1.230   9.739   1.721
95962SOL    HW289784   1.154   9.726   1.590
95963SOL     OW89785   7.081  11.034   4.110
95963SOL    HW189786   6.989  11.017   4.132
95963SOL    HW289787   7.077  11.104   4.045
95964SOL     OW89788   0.020   5.161   9.953
95964SOL    HW189789   0.105   5.201   9.938
95964SOL    HW289790   0.002   5.111   9.873
95965SOL     OW89791  14.244  14.678   4.831
95965SOL    HW189792  14.194  14.597   4.824
95965SOL    HW289793  14.334  14.653   4.809
95966SOL     OW89794   7.284  14.371  13.722
95966SOL    HW189795   7.213  14.367  13.787
95966SOL    HW289796   7.273  14.291  13.670
95967SOL     OW89797   2.881   0.886  12.168
95967SOL    HW189798   2.921   0.864  12.084
95967SOL    HW289799   2.930   0.963  12.198
95968SOL     OW89800  14.500  12.660   2.292
95968SOL    HW189801  14.593  12.645   2.311
95968SOL    HW289802  14.463  12.691   2.374
95969SOL     OW89803   1.310   9.565  10.557
95969SOL    HW189804   1.244   9.525  10.500
95969SOL    HW289805   1.261   9.591  10.635
95970SOL     OW89806   5.938   6.730   1.234
95970SOL    HW189807   5.900   6.664   1.177
95970SOL    HW289808   6.027   6.701   1.249
95971SOL     OW89809   8.156  10.088   5.659
95971SOL    HW189810   8.073  10.093   5.611
95971SOL    HW289811   8.134  10.118   5.747
95972SOL     OW89812  10.778   6.431  13.461
95972SOL    HW189813  10.726   6.511  13.467
95972SOL    HW289814  10.809   6.429  13.371
95973SOL     OW89815  11.354  14.279   8.853
95973SOL    HW189816  11.418  14.345   8.826
95973SOL    HW289817  11.363  14.276   8.948
95974SOL     OW89818  14.221  13.436  12.555
95974SOL    HW189819  14.157  13.479  12.612
95974SOL    HW289820  14.252  13.505  12.498
95975SOL     OW89821   6.578   0.637   9.058
95975SOL    HW189822   6.638   0.582   9.008
95975SOL    HW289823   6.528   0.575   9.112
95976SOL     OW89824   9.860   4.593   0.092
95976SOL    HW189825   9.863   4.518   0.151
95976SOL    HW289826   9.799   4.567   0.023
95977SOL     OW89827   3.062  10.612   8.993
95977SOL    HW189828   2.998  10.591   8.925
95977SOL    HW289829   3.144  10.623   8.946
95978SOL     OW89830   8.982  10.984   1.080
95978SOL    HW189831   8.914  10.995   1.014
95978SOL    HW289832   8.952  11.037   1.154
95979SOL     OW89833   8.357   3.249   8.872
95979SOL    HW189834   8.339   3.227   8.963
95979SOL    HW289835   8.453   3.248   8.865
95980SOL     OW89836   1.274  10.030   9.428
95980SOL    HW189837   1.225   9.982   9.494
95980SOL    HW289838   1.315  10.102   9.475
95981SOL     OW89839   5.813  14.221   2.046
95981SOL    HW189840   5.862  14.173   1.979
95981SOL    HW289841   5.823  14.169   2.125
95982SOL     OW89842  11.832  11.918   2.233
95982SOL    HW189843  11.801  11.876   2.313
95982SOL    HW289844  11.754  11.927   2.178
95983SOL     OW89845   1.180  13.599   8.502
95983SOL    HW189846   1.201  13.586   8.595
95983SOL    HW289847   1.151  13.690   8.497
95984SOL     OW89848  10.992   0.023   2.187
95984SOL    HW189849  11.066   0.001   2.244
95984SOL    HW289850  11.032   0.047   2.103
95985SOL     OW89851   9.548   1.739   0.540
95985SOL    HW189852   9.484   1.678   0.577
95985SOL    HW289853   9.530   1.737   0.446
95986SOL     OW89854   9.459  11.847   3.737
95986SOL    HW189855   9.441  11.807   3.652
95986SOL    HW289856   9.428  11.782   3.800
95987SOL     OW89857   7.910  12.536  12.950
95987SOL    HW189858   7.915  12.626  12.917
95987SOL    HW289859   7.816  12.517  12.952
95988SOL     OW89860  12.004   1.660   5.738
95988SOL    HW189861  11.934   1.644   5.675
95988SOL    HW289862  11.962   1.650   5.823
95989SOL     OW89863   4.017  10.677   8.148
95989SOL    HW189864   4.100  10.693   8.193
95989SOL    HW289865   3.964  10.630   8.213
95990SOL     OW89866   6.689   1.296   5.292
95990SOL    HW189867   6.658   1.384   5.272
95990SOL    HW289868   6.693   1.252   5.208
95991SOL     OW89869   0.592   0.129  14.453
95991SOL    HW189870   0.561   0.040  14.440
95991SOL    HW289871   0.610   0.162  14.365
95992SOL     OW89872   2.274  12.258   5.483
95992SOL    HW189873   2.348  12.268   5.423
95992SOL    HW289874   2.199  12.289   5.434
95993SOL     OW89875  11.042   3.531   5.979
95993SOL    HW189876  10.955   3.537   6.018
95993SOL    HW289877  11.044   3.598   5.912
95994SOL     OW89878   4.144   4.457  13.413
95994SOL    HW189879   4.204   4.525  13.386
95994SOL    HW289880   4.130   4.404  13.334
95995SOL     OW89881  12.368   8.558   0.236
95995SOL    HW189882  12.338   8.469   0.256
95995SOL    HW289883  12.452   8.546   0.192
95996SOL     OW89884  10.453  10.742   7.176
95996SOL    HW189885  10.385  10.771   7.116
95996SOL    HW289886  10.529  10.796   7.155
95997SOL     OW89887  12.781  11.352  11.009
95997SOL    HW189888  12.837  11.331  10.935
95997SOL    HW289889  12.757  11.268  11.047
95998SOL     OW89890  13.316  14.860   3.936
95998SOL    HW189891  13.336  14.831   4.025
95998SOL    HW289892  13.341  14.787   3.880
95999SOL     OW89893  13.964   7.448   9.456
95999SOL    HW189894  13.974   7.462   9.362
95999SOL    HW289895  13.948   7.535   9.492
96000SOL     OW89896   1.958  13.235   6.235
96000SOL    HW189897   1.958  13.327   6.262
96000SOL    HW289898   2.024  13.230   6.166
96001SOL     OW89899  12.176   3.693   3.873
96001SOL    HW189900  12.172   3.634   3.798
96001SOL    HW289901  12.236   3.762   3.846
96002SOL     OW89902   2.263   3.101   8.963
96002SOL    HW189903   2.198   3.071   9.026
96002SOL    HW289904   2.343   3.054   8.988
96003SOL     OW89905   3.135  12.950   5.849
96003SOL    HW189906   3.224  12.980   5.868
96003SOL    HW289907   3.119  12.880   5.912
96004SOL     OW89908   7.009   7.226   9.706
96004SOL    HW189909   7.034   7.157   9.768
96004SOL    HW289910   7.031   7.189   9.620
96005SOL     OW89911  11.027   5.299  11.732
96005SOL    HW189912  11.097   5.331  11.675
96005SOL    HW289913  10.948   5.340  11.698
96006SOL     OW89914   0.675   8.332  11.437
96006SOL    HW189915   0.745   8.283  11.480
96006SOL    HW289916   0.600   8.323  11.496
96007SOL     OW89917   3.428   0.045  13.224
96007SOL    HW189918   3.409   0.137  13.203
96007SOL    HW289919   3.489   0.018  13.156
96008SOL     OW89920  14.019   8.322   3.583
96008SOL    HW189921  13.995   8.345   3.673
96008SOL    HW289922  14.052   8.404   3.545
96009SOL     OW89923   9.119   6.323   5.429
96009SOL    HW189924   9.213   6.307   5.427
96009SOL    HW289925   9.111   6.418   5.416
96010SOL     OW89926   2.085   8.614  13.268
96010SOL    HW189927   2.042   8.554  13.329
96010SOL    HW289928   2.012   8.651  13.216
96011SOL     OW89929  12.928  14.812   4.116
96011SOL    HW189930  12.980  14.740   4.152
96011SOL    HW289931  12.859  14.769   4.065
96012SOL     OW89932   8.986   3.258   6.293
96012SOL    HW189933   9.073   3.287   6.319
96012SOL    HW289934   9.002   3.185   6.233
96013SOL     OW89935  13.137   4.691   5.384
96013SOL    HW189936  13.183   4.653   5.309
96013SOL    HW289937  13.058   4.730   5.347
96014SOL     OW89938   7.357  10.367   5.243
96014SOL    HW189939   7.441  10.368   5.290
96014SOL    HW289940   7.380  10.341   5.154
96015SOL     OW89941   2.508  14.154   2.209
96015SOL    HW189942   2.466  14.157   2.123
96015SOL    HW289943   2.590  14.202   2.198
96016SOL     OW89944  12.454   0.023   7.916
96016SOL    HW189945  12.415  14.805   7.902
96016SOL    HW289946  12.430   0.074   7.838
96017SOL     OW89947   5.642   5.078   4.692
96017SOL    HW189948   5.595   5.133   4.754
96017SOL    HW289949   5.577   5.014   4.662
96018SOL     OW89950   4.053  11.072   9.923
96018SOL    HW189951   4.089  10.988   9.893
96018SOL    HW289952   3.958  11.058   9.924
96019SOL     OW89953  12.504  13.147  11.432
96019SOL    HW189954  12.454  13.137  11.512
96019SOL    HW289955  12.463  13.221  11.387
96020SOL     OW89956   1.520   4.605   1.164
96020SOL    HW189957   1.483   4.659   1.094
96020SOL    HW289958   1.450   4.542   1.185
96021SOL     OW89959   2.440  13.612   3.513
96021SOL    HW189960   2.423  13.532   3.462
96021SOL    HW289961   2.498  13.664   3.458
96022SOL     OW89962  13.934  12.922   0.008
96022SOL    HW189963  13.900  12.832   0.008
96022SOL    HW289964  13.879  12.968  14.813
96023SOL     OW89965  12.324   6.623   2.139
96023SOL    HW189966  12.356   6.608   2.050
96023SOL    HW289967  12.229   6.617   2.131
96024SOL     OW89968   3.125   6.621   7.434
96024SOL    HW189969   3.100   6.529   7.445
96024SOL    HW289970   3.159   6.625   7.344
96025SOL     OW89971   7.554  10.496   9.057
96025SOL    HW189972   7.556  10.554   9.133
96025SOL    HW289973   7.467  10.508   9.020
96026SOL     OW89974  12.095  11.896   9.471
96026SOL    HW189975  12.130  11.859   9.552
96026SOL    HW289976  12.115  11.990   9.477
96027SOL     OW89977   5.479   1.395   1.746
96027SOL    HW189978   5.416   1.359   1.810
96027SOL    HW289979   5.467   1.490   1.752
96028SOL     OW89980  10.859   8.165   5.665
96028SOL    HW189981  10.793   8.099   5.683
96028SOL    HW289982  10.817   8.248   5.686
96029SOL     OW89983  12.922   8.176   9.443
96029SOL    HW189984  13.016   8.163   9.438
96029SOL    HW289985  12.889   8.096   9.485
96030SOL     OW89986   6.357  13.383   7.539
96030SOL    HW189987   6.351  13.479   7.531
96030SOL    HW289988   6.369  13.352   7.450
96031SOL     OW89989   5.315   0.242   2.768
96031SOL    HW189990   5.231   0.231   2.723
96031SOL    HW289991   5.347   0.328   2.740
96032SOL     OW89992  11.680  12.468   4.549
96032SOL    HW189993  11.703  12.535   4.612
96032SOL    HW289994  11.599  12.499   4.508
96033SOL     OW89995  10.149   2.967   9.758
96033SOL    HW189996  10.110   3.011   9.834
96033SOL    HW289997  10.075   2.949   9.700
96034SOL     OW89998   0.613   7.358   3.658
96034SOL    HW189999   0.522   7.386   3.650
96034SOL    HW290000   0.639   7.385   3.746
96035SOL     OW90001   7.525   8.182  12.766
96035SOL    HW190002   7.519   8.198  12.861
96035SOL    HW290003   7.619   8.174  12.749
96036SOL     OW90004   7.418   1.008   9.981
96036SOL    HW190005   7.361   0.998  10.057
96036SOL    HW290006   7.414   1.102   9.962
96037SOL     OW90007  11.304  11.887  10.566
96037SOL    HW190008  11.241  11.959  10.562
96037SOL    HW290009  11.358  11.907  10.643
96038SOL     OW90010   9.418   6.158   9.714
96038SOL    HW190011   9.356   6.100   9.758
96038SOL    HW290012   9.369   6.238   9.698
96039SOL     OW90013  13.580  12.057   7.052
96039SOL    HW190014  13.490  12.072   7.081
96039SOL    HW290015  13.623  12.141   7.062
96040SOL     OW90016   5.023   9.873   0.745
96040SOL    HW190017   5.068   9.831   0.819
96040SOL    HW290018   4.996   9.958   0.779
96041SOL     OW90019   0.896  13.312   3.489
96041SOL    HW190020   0.932  13.355   3.411
96041SOL    HW290021   0.843  13.380   3.531
96042SOL     OW90022   3.153   2.084   2.941
96042SOL    HW190023   3.092   2.051   3.006
96042SOL    HW290024   3.239   2.071   2.980
96043SOL     OW90025   4.864   4.521   8.554
96043SOL    HW190026   4.802   4.452   8.531
96043SOL    HW290027   4.823   4.568   8.627
96044SOL     OW90028   6.037  12.750   5.695
96044SOL    HW190029   5.999  12.803   5.624
96044SOL    HW290030   5.962  12.703   5.732
96045SOL     OW90031   6.490  10.874   0.644
96045SOL    HW190032   6.438  10.800   0.612
96045SOL    HW290033   6.510  10.850   0.735
96046SOL     OW90034  11.394   6.094   0.653
96046SOL    HW190035  11.367   6.070   0.564
96046SOL    HW290036  11.471   6.150   0.640
96047SOL     OW90037   0.022   8.026   6.915
96047SOL    HW190038   0.033   8.035   7.010
96047SOL    HW290039  14.795   8.018   6.903
96048SOL     OW90040  11.735   3.538   7.699
96048SOL    HW190041  11.644   3.555   7.675
96048SOL    HW290042  11.785   3.562   7.622
96049SOL     OW90043   0.992  10.454   7.871
96049SOL    HW190044   0.998  10.545   7.903
96049SOL    HW290045   1.078  10.436   7.834
96050SOL     OW90046  11.581  11.804   9.010
96050SOL    HW190047  11.576  11.880   9.069
96050SOL    HW290048  11.674  11.779   9.013
96051SOL     OW90049   2.275   8.321  12.250
96051SOL    HW190050   2.317   8.405  12.233
96051SOL    HW290051   2.192   8.344  12.291
96052SOL     OW90052   7.113  12.333  11.521
96052SOL    HW190053   7.064  12.415  11.517
96052SOL    HW290054   7.088  12.295  11.605
96053SOL     OW90055   5.480  11.161   7.093
96053SOL    HW190056   5.558  11.168   7.038
96053SOL    HW290057   5.475  11.246   7.138
96054SOL     OW90058   4.851  14.023  13.849
96054SOL    HW190059   4.764  14.048  13.818
96054SOL    HW290060   4.904  14.016  13.769
96055SOL     OW90061   5.243  13.523   9.602
96055SOL    HW190062   5.199  13.608   9.604
96055SOL    HW290063   5.172  13.459   9.603
96056SOL     OW90064  10.992  13.515  13.565
96056SOL    HW190065  10.954  13.510  13.477
96056SOL    HW290066  11.065  13.575  13.556
96057SOL     OW90067   5.257   0.284   0.319
96057SOL    HW190068   5.320   0.262   0.387
96057SOL    HW290069   5.233   0.374   0.336
96058SOL     OW90070  12.185  12.103   6.091
96058SOL    HW190071  12.211  12.151   6.013
96058SOL    HW290072  12.205  12.012   6.071
96059SOL     OW90073   3.264   1.636   7.610
96059SOL    HW190074   3.282   1.728   7.630
96059SOL    HW290075   3.241   1.596   7.694
96060SOL     OW90076   3.444   8.751   7.060
96060SOL    HW190077   3.421   8.728   6.970
96060SOL    HW290078   3.409   8.839   7.072
96061SOL     OW90079  12.366   5.397   4.362
96061SOL    HW190080  12.383   5.488   4.387
96061SOL    HW290081  12.342   5.402   4.269
96062SOL     OW90082   0.732   2.000  13.782
96062SOL    HW190083   0.656   2.025  13.729
96062SOL    HW290084   0.778   2.082  13.798
96063SOL     OW90085   2.186  13.503   8.736
96063SOL    HW190086   2.137  13.423   8.756
96063SOL    HW290087   2.122  13.574   8.746
96064SOL     OW90088   9.218  12.856   2.329
96064SOL    HW190089   9.162  12.831   2.255
96064SOL    HW290090   9.277  12.921   2.293
96065SOL     OW90091   9.232   1.864   2.656
96065SOL    HW190092   9.311   1.847   2.606
96065SOL    HW290093   9.263   1.885   2.744
96066SOL     OW90094  13.392   5.217  13.960
96066SOL    HW190095  13.486   5.211  13.939
96066SOL    HW290096  13.357   5.132  13.934
96067SOL     OW90097   8.280   0.796   3.582
96067SOL    HW190098   8.201   0.759   3.543
96067SOL    HW290099   8.339   0.722   3.591
96068SOL     OW90100   7.349   0.113   1.882
96068SOL    HW190101   7.357   0.062   1.801
96068SOL    HW290102   7.297   0.190   1.856
96069SOL     OW90103   5.797  14.167   8.425
96069SOL    HW190104   5.796  14.190   8.332
96069SOL    HW290105   5.768  14.247   8.470
96070SOL     OW90106   0.075   0.831   9.056
96070SOL    HW190107   0.106   0.853   9.144
96070SOL    HW290108   0.086   0.912   9.006
96071SOL     OW90109   0.521  13.521   2.569
96071SOL    HW190110   0.540  13.450   2.509
96071SOL    HW290111   0.530  13.600   2.516
96072SOL     OW90112   2.651   0.314  10.668
96072SOL    HW190113   2.581   0.327  10.604
96072SOL    HW290114   2.725   0.364  10.634
96073SOL     OW90115   1.793   5.613  14.747
96073SOL    HW190116   1.757   5.690  14.791
96073SOL    HW290117   1.727   5.545  14.760
96074SOL     OW90118  10.476   7.559   0.122
96074SOL    HW190119  10.543   7.613   0.165
96074SOL    HW290120  10.395   7.580   0.169
96075SOL     OW90121  14.550  13.212  10.684
96075SOL    HW190122  14.524  13.301  10.706
96075SOL    HW290123  14.550  13.210  10.588
96076SOL     OW90124  13.255  12.727  13.393
96076SOL    HW190125  13.327  12.732  13.330
96076SOL    HW290126  13.231  12.634  13.394
96077SOL     OW90127   4.003   2.945  14.435
96077SOL    HW190128   4.018   2.937  14.341
96077SOL    HW290129   3.968   3.034  14.447
96078SOL     OW90130  12.954   3.183  10.657
96078SOL    HW190131  12.923   3.095  10.676
96078SOL    HW290132  13.009   3.174  10.579
96079SOL     OW90133   1.784   1.375   1.461
96079SOL    HW190134   1.854   1.407   1.518
96079SOL    HW290135   1.728   1.451   1.446
96080SOL     OW90136   2.484  11.812  12.686
96080SOL    HW190137   2.555  11.748  12.691
96080SOL    HW290138   2.405  11.762  12.706
96081SOL     OW90139   3.987  13.249   7.080
96081SOL    HW190140   3.938  13.325   7.114
96081SOL    HW290141   3.921  13.195   7.037
96082SOL     OW90142   0.665  14.841   4.968
96082SOL    HW190143   0.666  14.860   4.874
96082SOL    HW290144   0.580   0.005   4.999
96083SOL     OW90145  13.164   0.608   8.134
96083SOL    HW190146  13.158   0.513   8.122
96083SOL    HW290147  13.073   0.637   8.143
96084SOL     OW90148   7.560  10.539   3.855
96084SOL    HW190149   7.490  10.605   3.858
96084SOL    HW290150   7.640  10.587   3.876
96085SOL     OW90151   6.981  10.288  11.503
96085SOL    HW190152   7.051  10.347  11.474
96085SOL    HW290153   6.900  10.328  11.472
96086SOL     OW90154   3.781  12.430   7.611
96086SOL    HW190155   3.760  12.471   7.527
96086SOL    HW290156   3.720  12.357   7.619
96087SOL     OW90157   4.304  10.376   9.361
96087SOL    HW190158   4.241  10.354   9.292
96087SOL    HW290159   4.331  10.292   9.398
96088SOL     OW90160   6.241   6.078   8.309
96088SOL    HW190161   6.244   6.133   8.231
96088SOL    HW290162   6.160   6.103   8.353
96089SOL     OW90163  13.609  13.964   8.844
96089SOL    HW190164  13.548  13.908   8.796
96089SOL    HW290165  13.668  13.997   8.777
96090SOL     OW90166   8.610   0.777  14.221
96090SOL    HW190167   8.681   0.823  14.175
96090SOL    HW290168   8.538   0.776  14.157
96091SOL     OW90169  10.293   8.081   1.501
96091SOL    HW190170  10.259   8.129   1.577
96091SOL    HW290171  10.244   7.998   1.501
96092SOL     OW90172   5.317   6.359   6.237
96092SOL    HW190173   5.308   6.455   6.236
96092SOL    HW290174   5.358   6.340   6.321
96093SOL     OW90175  13.493  10.843   0.573
96093SOL    HW190176  13.584  10.862   0.595
96093SOL    HW290177  13.479  10.753   0.604
96094SOL     OW90178   3.849  14.069   7.925
96094SOL    HW190179   3.849  14.109   7.838
96094SOL    HW290180   3.942  14.066   7.949
96095SOL     OW90181   3.542   8.194   3.787
96095SOL    HW190182   3.580   8.247   3.857
96095SOL    HW290183   3.501   8.120   3.832
96096SOL     OW90184   9.083   9.197   5.706
96096SOL    HW190185   9.021   9.267   5.727
96096SOL    HW290186   9.140   9.192   5.782
96097SOL     OW90187   3.478  10.528   8.173
96097SOL    HW190188   3.460  10.454   8.232
96097SOL    HW290189   3.510  10.597   8.231
96098SOL     OW90190   1.920   7.324   1.310
96098SOL    HW190191   1.951   7.307   1.400
96098SOL    HW290192   1.953   7.412   1.290
96099SOL     OW90193   3.981   1.601   3.258
96099SOL    HW190194   4.061   1.559   3.289
96099SOL    HW290195   3.929   1.615   3.337
96100SOL     OW90196   2.281   1.339   7.718
96100SOL    HW190197   2.222   1.372   7.649
96100SOL    HW290198   2.343   1.410   7.733
96101SOL     OW90199  13.450  10.488   5.906
96101SOL    HW190200  13.389  10.550   5.944
96101SOL    HW290201  13.521  10.482   5.969
96102SOL     OW90202   8.047   6.812  11.079
96102SOL    HW190203   8.050   6.859  11.163
96102SOL    HW290204   8.119   6.750  11.084
96103SOL     OW90205   4.001   7.739   3.328
96103SOL    HW190206   3.942   7.807   3.295
96103SOL    HW290207   3.967   7.658   3.290
96104SOL     OW90208   4.018   5.734  14.770
96104SOL    HW190209   4.062   5.683  14.838
96104SOL    HW290210   3.928   5.700  14.769
96105SOL     OW90211   4.092   6.759  10.894
96105SOL    HW190212   4.104   6.699  10.968
96105SOL    HW290213   4.114   6.707  10.817
96106SOL     OW90214   1.263   2.423  13.593
96106SOL    HW190215   1.216   2.381  13.521
96106SOL    HW290216   1.346   2.452  13.555
96107SOL     OW90217   5.153   2.049  13.846
96107SOL    HW190218   5.092   2.092  13.906
96107SOL    HW290219   5.105   2.040  13.764
96108SOL     OW90220  13.146   2.227   0.683
96108SOL    HW190221  13.181   2.247   0.596
96108SOL    HW290222  13.221   2.235   0.741
96109SOL     OW90223   7.501  10.764   9.835
96109SOL    HW190224   7.590  10.798   9.824
96109SOL    HW290225   7.514  10.672   9.858
96110SOL     OW90226  14.042   2.414  13.164
96110SOL    HW190227  14.025   2.325  13.195
96110SOL    HW290228  14.007   2.470  13.233
96111SOL     OW90229   4.043  10.700  11.834
96111SOL    HW190230   4.113  10.695  11.769
96111SOL    HW290231   3.986  10.770  11.802
96112SOL     OW90232  10.698  11.887   4.653
96112SOL    HW190233  10.633  11.818   4.644
96112SOL    HW290234  10.759  11.855   4.719
96113SOL     OW90235   6.057  11.898   2.259
96113SOL    HW190236   6.127  11.867   2.315
96113SOL    HW290237   6.088  11.983   2.226
96114SOL     OW90238   4.949  12.236  10.633
96114SOL    HW190239   5.016  12.178  10.596
96114SOL    HW290240   4.869  12.213  10.585
96115SOL     OW90241   2.826   3.782   9.463
96115SOL    HW190242   2.760   3.846   9.437
96115SOL    HW290243   2.889   3.833   9.515
96116SOL     OW90244   0.877   0.229   1.896
96116SOL    HW190245   0.912   0.248   1.984
96116SOL    HW290246   0.823   0.305   1.875
96117SOL     OW90247  10.902  11.781   6.214
96117SOL    HW190248  10.860  11.779   6.129
96117SOL    HW290249  10.996  11.780   6.195
96118SOL     OW90250  10.419   1.451   6.905
96118SOL    HW190251  10.384   1.436   6.993
96118SOL    HW290252  10.343   1.440   6.848
96119SOL     OW90253   9.642  10.164   9.213
96119SOL    HW190254   9.675  10.223   9.145
96119SOL    HW290255   9.629  10.220   9.289
96120SOL     OW90256   5.710   3.091   7.259
96120SOL    HW190257   5.774   3.068   7.192
96120SOL    HW290258   5.650   3.151   7.216
96121SOL     OW90259   8.032   4.403   0.483
96121SOL    HW190260   8.016   4.310   0.496
96121SOL    HW290261   7.969   4.430   0.417
96122SOL     OW90262   0.594   2.742   6.151
96122SOL    HW190263   0.529   2.678   6.123
96122SOL    HW290264   0.665   2.690   6.189
96123SOL     OW90265   0.661  10.393   2.549
96123SOL    HW190266   0.719  10.374   2.623
96123SOL    HW290267   0.579  10.350   2.572
96124SOL     OW90268   8.078  13.177  11.522
96124SOL    HW190269   8.018  13.103  11.513
96124SOL    HW290270   8.134  13.154  11.596
96125SOL     OW90271   5.762   5.792   9.367
96125SOL    HW190272   5.683   5.808   9.315
96125SOL    HW290273   5.751   5.704   9.401
96126SOL     OW90274   6.931  14.434   9.259
96126SOL    HW190275   6.863  14.408   9.321
96126SOL    HW290276   7.012  14.397   9.294
96127SOL     OW90277   6.785   1.521  14.411
96127SOL    HW190278   6.696   1.557  14.404
96127SOL    HW290279   6.841   1.591  14.377
96128SOL     OW90280   2.090   2.424   3.541
96128SOL    HW190281   2.062   2.359   3.477
96128SOL    HW290282   2.186   2.420   3.540
96129SOL     OW90283   7.092   4.634  11.260
96129SOL    HW190284   7.151   4.561  11.241
96129SOL    HW290285   7.031   4.599  11.325
96130SOL     OW90286   2.357   0.904   9.908
96130SOL    HW190287   2.302   0.938   9.978
96130SOL    HW290288   2.348   0.809   9.914
96131SOL     OW90289   3.575   7.030   4.977
96131SOL    HW190290   3.642   7.003   5.039
96131SOL    HW290291   3.624   7.047   4.896
96132SOL     OW90292   8.583  13.318   3.986
96132SOL    HW190293   8.619  13.314   4.074
96132SOL    HW290294   8.490  13.340   4.000
96133SOL     OW90295  14.864  13.793   2.851
96133SOL    HW190296   0.035  13.718   2.896
96133SOL    HW290297  14.832  13.849   2.921
96134SOL     OW90298   0.761  12.503  13.398
96134SOL    HW190299   0.694  12.440  13.424
96134SOL    HW290300   0.840  12.474  13.444
96135SOL     OW90301   6.849   7.344   6.063
96135SOL    HW190302   6.865   7.351   6.157
96135SOL    HW290303   6.760   7.309   6.056
96136SOL     OW90304   3.530  14.667  13.005
96136SOL    HW190305   3.441  14.641  13.031
96136SOL    HW290306   3.533  14.648  12.911
96137SOL     OW90307   6.244   9.428   5.043
96137SOL    HW190308   6.223   9.362   4.976
96137SOL    HW290309   6.271   9.377   5.119
96138SOL     OW90310  11.713   7.119   7.237
96138SOL    HW190311  11.719   7.211   7.211
96138SOL    HW290312  11.751   7.116   7.325
96139SOL     OW90313  11.627   7.034  12.620
96139SOL    HW190314  11.698   7.007  12.561
96139SOL    HW290315  11.672   7.062  12.700
96140SOL     OW90316   9.788   5.069   8.323
96140SOL    HW190317   9.735   5.042   8.397
96140SOL    HW290318   9.785   4.995   8.262
96141SOL     OW90319  13.488  10.698   4.731
96141SOL    HW190320  13.489  10.691   4.826
96141SOL    HW290321  13.480  10.608   4.700
96142SOL     OW90322  11.684   7.263   0.292
96142SOL    HW190323  11.722   7.341   0.332
96142SOL    HW290324  11.754   7.197   0.296
96143SOL     OW90325  14.057   2.339  10.300
96143SOL    HW190326  13.964   2.364  10.293
96143SOL    HW290327  14.096   2.371  10.218
96144SOL     OW90328  10.782  11.005  11.229
96144SOL    HW190329  10.857  11.063  11.239
96144SOL    HW290330  10.721  11.033  11.297
96145SOL     OW90331   8.131   8.687   5.640
96145SOL    HW190332   8.143   8.752   5.709
96145SOL    HW290333   8.100   8.609   5.686
96146SOL     OW90334  12.632  11.618   2.304
96146SOL    HW190335  12.640  11.671   2.383
96146SOL    HW290336  12.626  11.682   2.232
96147SOL     OW90337  14.258   6.567   0.981
96147SOL    HW190338  14.337   6.619   0.965
96147SOL    HW290339  14.285   6.501   1.044
96148SOL     OW90340  10.726   5.665   3.972
96148SOL    HW190341  10.636   5.695   3.962
96148SOL    HW290342  10.772   5.702   3.897
96149SOL     OW90343  11.997  14.371   0.869
96149SOL    HW190344  12.047  14.451   0.855
96149SOL    HW290345  12.055  14.301   0.840
96150SOL     OW90346   5.440  11.262   5.814
96150SOL    HW190347   5.441  11.167   5.797
96150SOL    HW290348   5.348  11.284   5.825
96151SOL     OW90349   1.496  11.263  13.575
96151SOL    HW190350   1.474  11.334  13.515
96151SOL    HW290351   1.591  11.257  13.572
96152SOL     OW90352  12.680  14.736   6.402
96152SOL    HW190353  12.659  14.799   6.471
96152SOL    HW290354  12.738  14.672   6.444
96153SOL     OW90355   9.856   5.561   8.138
96153SOL    HW190356   9.934   5.523   8.178
96153SOL    HW290357   9.876   5.565   8.045
96154SOL     OW90358   4.475   1.328   3.801
96154SOL    HW190359   4.551   1.358   3.850
96154SOL    HW290360   4.451   1.245   3.841
96155SOL     OW90361  11.395   2.698   7.177
96155SOL    HW190362  11.421   2.776   7.226
96155SOL    HW290363  11.300   2.704   7.171
96156SOL     OW90364   3.673  13.227   8.021
96156SOL    HW190365   3.738  13.164   7.988
96156SOL    HW290366   3.592  13.202   7.978
96157SOL     OW90367   1.829  12.779   2.612
96157SOL    HW190368   1.913  12.816   2.583
96157SOL    HW290369   1.844  12.685   2.615
96158SOL     OW90370   9.726  11.469  12.475
96158SOL    HW190371   9.773  11.517  12.407
96158SOL    HW290372   9.670  11.535  12.517
96159SOL     OW90373   7.543   5.733   4.246
96159SOL    HW190374   7.560   5.694   4.332
96159SOL    HW290375   7.597   5.812   4.245
96160SOL     OW90376  10.132  12.895  12.458
96160SOL    HW190377  10.227  12.893  12.446
96160SOL    HW290378  10.099  12.941  12.380
96161SOL     OW90379   3.437   0.623   6.188
96161SOL    HW190380   3.404   0.589   6.105
96161SOL    HW290381   3.361   0.622   6.246
96162SOL     OW90382   5.545   3.022  13.259
96162SOL    HW190383   5.612   3.059  13.202
96162SOL    HW290384   5.529   2.934  13.224
96163SOL     OW90385   3.977   3.747  11.132
96163SOL    HW190386   3.883   3.756  11.112
96163SOL    HW290387   3.996   3.655  11.118
96164SOL     OW90388  11.301   4.237  13.288
96164SOL    HW190389  11.236   4.305  13.277
96164SOL    HW290390  11.280   4.172  13.221
96165SOL     OW90391   5.768   1.018  12.738
96165SOL    HW190392   5.812   1.080  12.796
96165SOL    HW290393   5.783   1.052  12.650
96166SOL     OW90394   7.034   9.996   6.091
96166SOL    HW190395   7.068  10.072   6.138
96166SOL    HW290396   7.007   9.935   6.160
96167SOL     OW90397   5.647  13.462   9.986
96167SOL    HW190398   5.608  13.375   9.972
96167SOL    HW290399   5.741  13.447   9.982
96168SOL     OW90400  11.564  11.947   1.980
96168SOL    HW190401  11.488  11.929   1.925
96168SOL    HW290402  11.634  11.894   1.943
96169SOL     OW90403   2.288  12.106   3.430
96169SOL    HW190404   2.334  12.029   3.461
96169SOL    HW290405   2.230  12.074   3.361
96170SOL     OW90406   4.153   1.990   5.512
96170SOL    HW190407   4.095   2.047   5.562
96170SOL    HW290408   4.123   1.901   5.533
96171SOL     OW90409  14.509   7.980   6.181
96171SOL    HW190410  14.471   7.921   6.116
96171SOL    HW290411  14.486   8.068   6.149
96172SOL     OW90412   1.269  10.214   6.519
96172SOL    HW190413   1.316  10.244   6.441
96172SOL    HW290414   1.338  10.194   6.582
96173SOL     OW90415  11.158   0.748   9.496
96173SOL    HW190416  11.113   0.735   9.412
96173SOL    HW290417  11.246   0.777   9.471
96174SOL     OW90418  11.706   5.710  13.976
96174SOL    HW190419  11.757   5.658  13.913
96174SOL    HW290420  11.771   5.740  14.040
96175SOL     OW90421   9.754   2.181  13.488
96175SOL    HW190422   9.673   2.233  13.492
96175SOL    HW290423   9.820   2.236  13.530
96176SOL     OW90424   5.603  13.947   9.495
96176SOL    HW190425   5.540  14.019   9.486
96176SOL    HW290426   5.632  13.929   9.406
96177SOL     OW90427  12.851   3.650  14.728
96177SOL    HW190428  12.818   3.567  14.695
96177SOL    HW290429  12.891   3.629  14.812
96178SOL     OW90430   5.370  13.852   3.730
96178SOL    HW190431   5.370  13.907   3.807
96178SOL    HW290432   5.304  13.890   3.673
96179SOL     OW90433  14.341   7.774   4.369
96179SOL    HW190434  14.281   7.699   4.368
96179SOL    HW290435  14.347   7.799   4.461
96180SOL     OW90436   5.259   9.764   6.638
96180SOL    HW190437   5.207   9.696   6.681
96180SOL    HW290438   5.346   9.724   6.628
96181SOL     OW90439  10.442   4.257   2.889
96181SOL    HW190440  10.355   4.242   2.851
96181SOL    HW290441  10.460   4.177   2.939
96182SOL     OW90442   8.305   4.677   4.745
96182SOL    HW190443   8.274   4.589   4.723
96182SOL    HW290444   8.350   4.666   4.829
96183SOL     OW90445  11.998   9.951  10.042
96183SOL    HW190446  11.923   9.939   9.984
96183SOL    HW290447  12.017  10.045  10.036
96184SOL     OW90448   3.292  14.103   3.508
96184SOL    HW190449   3.274  14.117   3.601
96184SOL    HW290450   3.310  14.010   3.501
96185SOL     OW90451  10.692   0.476   1.935
96185SOL    HW190452  10.714   0.384   1.952
96185SOL    HW290453  10.611   0.472   1.884
96186SOL     OW90454  11.243   4.209   2.598
96186SOL    HW190455  11.186   4.133   2.603
96186SOL    HW290456  11.205   4.263   2.529
96187SOL     OW90457   0.912  10.112  10.456
96187SOL    HW190458   0.918  10.153  10.370
96187SOL    HW290459   0.890  10.183  10.515
96188SOL     OW90460   7.930   7.840   2.628
96188SOL    HW190461   7.885   7.840   2.544
96188SOL    HW290462   8.012   7.886   2.611
96189SOL     OW90463  14.048   0.710   2.006
96189SOL    HW190464  14.141   0.687   1.996
96189SOL    HW290465  14.029   0.763   1.929
96190SOL     OW90466  10.472   7.508   5.747
96190SOL    HW190467  10.545   7.561   5.779
96190SOL    HW290468  10.432   7.561   5.678
96191SOL     OW90469   2.231  14.463  10.663
96191SOL    HW190470   2.312  14.423  10.695
96191SOL    HW290471   2.185  14.392  10.619
96192SOL     OW90472   5.036  13.373  10.911
96192SOL    HW190473   5.111  13.335  10.866
96192SOL    HW290474   5.018  13.313  10.983
96193SOL     OW90475   2.885  12.734   9.857
96193SOL    HW190476   2.859  12.744   9.766
96193SOL    HW290477   2.980  12.723   9.855
96194SOL     OW90478   6.027   4.752   0.670
96194SOL    HW190479   6.029   4.701   0.751
96194SOL    HW290480   5.934   4.769   0.655
96195SOL     OW90481   0.822   5.712  11.802
96195SOL    HW190482   0.792   5.800  11.778
96195SOL    HW290483   0.855   5.723  11.891
96196SOL     OW90484   6.230   8.684   0.977
96196SOL    HW190485   6.251   8.717   0.889
96196SOL    HW290486   6.249   8.590   0.972
96197SOL     OW90487  12.377   7.139   5.479
96197SOL    HW190488  12.286   7.168   5.470
96197SOL    HW290489  12.402   7.112   5.391
96198SOL     OW90490   9.854   5.986   6.331
96198SOL    HW190491   9.784   5.951   6.276
96198SOL    HW290492   9.835   6.079   6.337
96199SOL     OW90493   3.120   4.690  10.303
96199SOL    HW190494   3.064   4.720  10.375
96199SOL    HW290495   3.209   4.708  10.333
96200SOL     OW90496   6.852   0.367   6.259
96200SOL    HW190497   6.843   0.311   6.182
96200SOL    HW290498   6.763   0.391   6.282
96201SOL     OW90499   1.229   1.048   3.320
96201SOL    HW190500   1.306   0.992   3.329
96201SOL    HW290501   1.249   1.125   3.372
96202SOL     OW90502  13.541   5.367   2.636
96202SOL    HW190503  13.459   5.337   2.597
96202SOL    HW290504  13.539   5.462   2.627
96203SOL     OW90505   3.271  12.358   8.015
96203SOL    HW190506   3.358  12.341   7.977
96203SOL    HW290507   3.210  12.315   7.956
96204SOL     OW90508  12.716  14.737   9.660
96204SOL    HW190509  12.764  14.716   9.740
96204SOL    HW290510  12.638  14.681   9.663
96205SOL     OW90511  10.978  10.957   7.303
96205SOL    HW190512  10.887  10.982   7.318
96205SOL    HW290513  10.994  10.886   7.365
96206SOL     OW90514   8.270   6.596  14.815
96206SOL    HW190515   8.342   6.638  14.767
96206SOL    HW290516   8.312   6.561   0.026
96207SOL     OW90517   4.056   5.326  10.951
96207SOL    HW190518   4.075   5.259  10.886
96207SOL    HW290519   4.141   5.363  10.974
96208SOL     OW90520  10.162   3.955  13.412
96208SOL    HW190521  10.183   3.864  13.431
96208SOL    HW290522  10.074   3.953  13.376
96209SOL     OW90523   2.611   6.318   8.870
96209SOL    HW190524   2.583   6.393   8.817
96209SOL    HW290525   2.580   6.338   8.958
96210SOL     OW90526   4.364  14.119  13.925
96210SOL    HW190527   4.336  14.208  13.948
96210SOL    HW290528   4.395  14.082  14.007
96211SOL     OW90529   6.993   0.190  10.960
96211SOL    HW190530   7.040   0.266  10.994
96211SOL    HW290531   7.049   0.154  10.892
96212SOL     OW90532  12.699   8.080  12.298
96212SOL    HW190533  12.640   8.025  12.350
96212SOL    HW290534  12.673   8.169  12.318
96213SOL     OW90535  10.958   4.919  11.505
96213SOL    HW190536  10.914   4.964  11.433
96213SOL    HW290537  10.902   4.936  11.581
96214SOL     OW90538   3.849   5.690   2.546
96214SOL    HW190539   3.777   5.683   2.484
96214SOL    HW290540   3.909   5.754   2.506
96215SOL     OW90541  13.363  11.914   9.720
96215SOL    HW190542  13.386  11.980   9.655
96215SOL    HW290543  13.336  11.838   9.669
96216SOL     OW90544   0.794  11.345  13.700
96216SOL    HW190545   0.730  11.333  13.629
96216SOL    HW290546   0.869  11.291  13.674
96217SOL     OW90547   7.685   6.840   1.561
96217SOL    HW190548   7.758   6.780   1.574
96217SOL    HW290549   7.612   6.801   1.609
96218SOL     OW90550   2.586  10.870   3.602
96218SOL    HW190551   2.643  10.856   3.678
96218SOL    HW290552   2.530  10.792   3.600
96219SOL     OW90553   8.443  11.293   1.107
96219SOL    HW190554   8.360  11.281   1.154
96219SOL    HW290555   8.420  11.280   1.015
96220SOL     OW90556   1.481   9.918  12.406
96220SOL    HW190557   1.400   9.869  12.392
96220SOL    HW290558   1.455   9.993  12.459
96221SOL     OW90559  10.602   1.729  14.724
96221SOL    HW190560  10.685   1.698  14.688
96221SOL    HW290561  10.559   1.773  14.651
96222SOL     OW90562   0.005  13.523   0.650
96222SOL    HW190563   0.081  13.495   0.599
96222SOL    HW290564  14.809  13.453   0.639
96223SOL     OW90565  14.765  12.950   0.527
96223SOL    HW190566  14.843  12.971   0.579
96223SOL    HW290567  14.720  12.882   0.577
96224SOL     OW90568  11.367  11.229   8.313
96224SOL    HW190569  11.373  11.305   8.255
96224SOL    HW290570  11.298  11.175   8.274
96225SOL     OW90571   5.998   8.304   8.640
96225SOL    HW190572   6.028   8.371   8.578
96225SOL    HW290573   6.075   8.248   8.653
96226SOL     OW90574   7.283   7.395  10.196
96226SOL    HW190575   7.293   7.440  10.112
96226SOL    HW290576   7.189   7.375  10.201
96227SOL     OW90577   3.827   8.447   4.208
96227SOL    HW190578   3.826   8.542   4.203
96227SOL    HW290579   3.917   8.422   4.187
96228SOL     OW90580   5.350   0.688   2.999
96228SOL    HW190581   5.423   0.674   2.938
96228SOL    HW290582   5.304   0.764   2.964
96229SOL     OW90583   4.049   9.454   2.296
96229SOL    HW190584   4.075   9.458   2.388
96229SOL    HW290585   4.041   9.546   2.269
96230SOL     OW90586  11.742   7.218   9.461
96230SOL    HW190587  11.674   7.254   9.405
96230SOL    HW290588  11.705   7.221   9.549
96231SOL     OW90589   4.186  14.417  12.957
96231SOL    HW190590   4.184  14.507  12.990
96231SOL    HW290591   4.253  14.418  12.888
96232SOL     OW90592   9.886   7.084   3.110
96232SOL    HW190593   9.858   7.109   3.198
96232SOL    HW290594   9.947   7.012   3.123
96233SOL     OW90595   4.482   3.389   1.435
96233SOL    HW190596   4.551   3.454   1.421
96233SOL    HW290597   4.511   3.312   1.387
96234SOL     OW90598  14.363   2.845   2.775
96234SOL    HW190599  14.292   2.838   2.712
96234SOL    HW290600  14.377   2.755   2.805
96235SOL     OW90601   0.813  13.001   4.211
96235SOL    HW190602   0.871  12.964   4.145
96235SOL    HW290603   0.738  12.941   4.214
96236SOL     OW90604   4.514   3.695   8.121
96236SOL    HW190605   4.574   3.621   8.113
96236SOL    HW290606   4.428   3.656   8.137
96237SOL     OW90607  13.867  12.294   9.429
96237SOL    HW190608  13.839  12.267   9.516
96237SOL    HW290609  13.789  12.332   9.390
96238SOL     OW90610   5.734  11.053   9.913
96238SOL    HW190611   5.672  10.995   9.957
96238SOL    HW290612   5.784  10.996   9.855
96239SOL     OW90613   3.853  13.421  12.830
96239SOL    HW190614   3.932  13.413  12.776
96239SOL    HW290615   3.827  13.331  12.847
96240SOL     OW90616   0.091   6.276   3.694
96240SOL    HW190617   0.108   6.263   3.787
96240SOL    HW290618   0.172   6.248   3.650
96241SOL     OW90619  11.752   3.924   9.906
96241SOL    HW190620  11.838   3.958   9.933
96241SOL    HW290621  11.764   3.899   9.815
96242SOL     OW90622  10.865   9.277  11.348
96242SOL    HW190623  10.879   9.223  11.426
96242SOL    HW290624  10.796   9.338  11.373
96243SOL     OW90625   8.170   7.279  10.072
96243SOL    HW190626   8.223   7.328  10.008
96243SOL    HW290627   8.116   7.346  10.114
96244SOL     OW90628  13.287   2.993   3.138
96244SOL    HW190629  13.239   2.960   3.214
96244SOL    HW290630  13.318   2.914   3.094
96245SOL     OW90631  10.992   3.406   2.975
96245SOL    HW190632  10.939   3.334   3.010
96245SOL    HW290633  11.060   3.362   2.923
96246SOL     OW90634   5.938  11.664   3.557
96246SOL    HW190635   5.918  11.707   3.474
96246SOL    HW290636   6.028  11.690   3.577
96247SOL     OW90637   1.771  14.196   0.256
96247SOL    HW190638   1.704  14.167   0.193
96247SOL    HW290639   1.732  14.271   0.300
96248SOL     OW90640  12.014   6.192   2.140
96248SOL    HW190641  12.083   6.127   2.154
96248SOL    HW290642  11.936   6.154   2.180
96249SOL     OW90643   5.603   0.316   8.886
96249SOL    HW190644   5.512   0.329   8.912
96249SOL    HW290645   5.599   0.296   8.793
96250SOL     OW90646  10.569   6.550   0.224
96250SOL    HW190647  10.485   6.595   0.222
96250SOL    HW290648  10.546   6.459   0.242
96251SOL     OW90649   3.824   4.336   3.458
96251SOL    HW190650   3.803   4.336   3.552
96251SOL    HW290651   3.857   4.424   3.441
96252SOL     OW90652  13.450   3.360   5.417
96252SOL    HW190653  13.411   3.285   5.462
96252SOL    HW290654  13.392   3.376   5.343
96253SOL     OW90655   0.583   2.334  14.057
96253SOL    HW190656   0.585   2.246  14.097
96253SOL    HW290657   0.509   2.330  13.996
96254SOL     OW90658   9.402   6.816  13.778
96254SOL    HW190659   9.431   6.894  13.824
96254SOL    HW290660   9.315   6.798  13.815
96255SOL     OW90661   7.788   6.946  11.090
96255SOL    HW190662   7.800   6.853  11.074
96255SOL    HW290663   7.872   6.986  11.064
96256SOL     OW90664  10.106  11.691   5.320
96256SOL    HW190665  10.157  11.771   5.321
96256SOL    HW290666  10.028  11.713   5.268
96257SOL     OW90667   5.816   3.597   5.091
96257SOL    HW190668   5.856   3.516   5.059
96257SOL    HW290669   5.890   3.657   5.103
96258SOL     OW90670   5.322  13.792   1.395
96258SOL    HW190671   5.232  13.784   1.364
96258SOL    HW290672   5.314  13.829   1.483
96259SOL     OW90673   5.771   2.362  11.670
96259SOL    HW190674   5.709   2.420  11.715
96259SOL    HW290675   5.849   2.416  11.657
96260SOL     OW90676   2.470  12.080   7.783
96260SOL    HW190677   2.541  12.080   7.719
96260SOL    HW290678   2.390  12.083   7.730
96261SOL     OW90679   1.661   8.205   6.559
96261SOL    HW190680   1.637   8.294   6.532
96261SOL    HW290681   1.628   8.197   6.648
96262SOL     OW90682   5.370   4.922   3.199
96262SOL    HW190683   5.301   4.901   3.137
96262SOL    HW290684   5.335   4.994   3.251
96263SOL     OW90685  13.560   5.825   9.180
96263SOL    HW190686  13.567   5.742   9.228
96263SOL    HW290687  13.481   5.866   9.215
96264SOL     OW90688  12.995   6.222  11.183
96264SOL    HW190689  13.036   6.304  11.155
96264SOL    HW290690  13.044   6.153  11.137
96265SOL     OW90691   6.032  14.484   3.978
96265SOL    HW190692   6.053  14.529   4.060
96265SOL    HW290693   6.103  14.420   3.968
96266SOL     OW90694  14.023   7.419   8.467
96266SOL    HW190695  13.985   7.410   8.380
96266SOL    HW290696  13.950   7.445   8.523
96267SOL     OW90697   6.961   5.506   1.653
96267SOL    HW190698   6.961   5.601   1.642
96267SOL    HW290699   6.966   5.472   1.563
96268SOL     OW90700  13.579   2.539  13.931
96268SOL    HW190701  13.632   2.573  14.003
96268SOL    HW290702  13.639   2.484  13.880
96269SOL     OW90703  14.200  14.307  12.761
96269SOL    HW190704  14.114  14.269  12.742
96269SOL    HW290705  14.232  14.257  12.836
96270SOL     OW90706   0.952   7.055   3.616
96270SOL    HW190707   0.902   7.018   3.688
96270SOL    HW290708   0.895   7.045   3.540
96271SOL     OW90709  14.635  10.846   0.748
96271SOL    HW190710  14.677  10.895   0.819
96271SOL    HW290711  14.591  10.774   0.792
96272SOL     OW90712   5.601   5.859  12.927
96272SOL    HW190713   5.644   5.900  13.002
96272SOL    HW290714   5.585   5.769  12.955
96273SOL     OW90715   1.073   2.462   4.982
96273SOL    HW190716   1.038   2.536   5.032
96273SOL    HW290717   1.126   2.503   4.913
96274SOL     OW90718  12.274   1.799   4.146
96274SOL    HW190719  12.261   1.890   4.120
96274SOL    HW290720  12.279   1.801   4.241
96275SOL     OW90721   2.572   9.562   0.153
96275SOL    HW190722   2.637   9.563   0.223
96275SOL    HW290723   2.513   9.489   0.175
96276SOL     OW90724   8.480   8.851   7.640
96276SOL    HW190725   8.512   8.924   7.587
96276SOL    HW290726   8.424   8.891   7.706
96277SOL     OW90727  12.070   9.992   5.412
96277SOL    HW190728  12.136  10.057   5.435
96277SOL    HW290729  12.086   9.973   5.319
96278SOL     OW90730  12.002   8.500  14.704
96278SOL    HW190731  11.939   8.455  14.647
96278SOL    HW290732  11.986   8.463  14.791
96279SOL     OW90733  13.329   1.444   1.351
96279SOL    HW190734  13.305   1.480   1.436
96279SOL    HW290735  13.425   1.438   1.353
96280SOL     OW90736  14.746   5.752   4.610
96280SOL    HW190737  14.775   5.732   4.699
96280SOL    HW290738  14.676   5.816   4.621
96281SOL     OW90739   4.865  11.828   8.129
96281SOL    HW190740   4.868  11.744   8.084
96281SOL    HW290741   4.946  11.872   8.102
96282SOL     OW90742   8.278  14.244  14.750
96282SOL    HW190743   8.287  14.336  14.774
96282SOL    HW290744   8.183  14.228  14.754
96283SOL     OW90745  11.292   4.006   3.625
96283SOL    HW190746  11.267   4.031   3.714
96283SOL    HW290747  11.287   3.910   3.626
96284SOL     OW90748   3.443   7.433   4.209
96284SOL    HW190749   3.474   7.505   4.154
96284SOL    HW290750   3.362   7.403   4.167
96285SOL     OW90751  12.396  14.243   3.112
96285SOL    HW190752  12.369  14.209   3.027
96285SOL    HW290753  12.487  14.213   3.122
96286SOL     OW90754   8.439   6.768   9.430
96286SOL    HW190755   8.357   6.801   9.468
96286SOL    HW290756   8.417   6.679   9.401
96287SOL     OW90757   6.435  13.082   1.953
96287SOL    HW190758   6.377  13.110   1.882
96287SOL    HW290759   6.423  13.148   2.021
96288SOL     OW90760   3.093   9.496   0.692
96288SOL    HW190761   3.060   9.431   0.630
96288SOL    HW290762   3.116   9.572   0.638
96289SOL     OW90763  13.941   5.995   1.811
96289SOL    HW190764  13.918   6.039   1.892
96289SOL    HW290765  14.022   5.948   1.831
96290SOL     OW90766  13.463   5.120   4.215
96290SOL    HW190767  13.489   5.077   4.134
96290SOL    HW290768  13.381   5.077   4.241
96291SOL     OW90769   9.111   4.615  14.863
96291SOL    HW190770   9.059   4.553  14.812
96291SOL    HW290771   9.198   4.575   0.001
96292SOL     OW90772   8.824   6.017   5.817
96292SOL    HW190773   8.791   6.082   5.754
96292SOL    HW290774   8.764   6.024   5.891
96293SOL     OW90775  14.248  12.311  14.197
96293SOL    HW190776  14.297  12.230  14.187
96293SOL    HW290777  14.223  12.312  14.290
96294SOL     OW90778   0.557   9.689   6.653
96294SOL    HW190779   0.580   9.677   6.561
96294SOL    HW290780   0.568   9.603   6.692
96295SOL     OW90781  13.923   7.384  12.145
96295SOL    HW190782  13.879   7.373  12.061
96295SOL    HW290783  13.972   7.466  12.136
96296SOL     OW90784   2.812  13.590   7.730
96296SOL    HW190785   2.836  13.672   7.688
96296SOL    HW290786   2.746  13.552   7.672
96297SOL     OW90787   1.825   6.406  12.165
96297SOL    HW190788   1.884   6.437  12.096
96297SOL    HW290789   1.851   6.316  12.181
96298SOL     OW90790   2.925  14.828   8.054
96298SOL    HW190791   2.876  14.854   8.132
96298SOL    HW290792   2.989   0.030   8.041
96299SOL     OW90793  10.026  12.763   0.399
96299SOL    HW190794  10.117  12.776   0.424
96299SOL    HW290795  10.024  12.676   0.359
96300SOL     OW90796  12.643   9.779   8.854
96300SOL    HW190797  12.676   9.726   8.927
96300SOL    HW290798  12.647   9.869   8.885
96301SOL     OW90799  12.654   9.514   6.505
96301SOL    HW190800  12.715   9.440   6.511
96301SOL    HW290801  12.618   9.522   6.593
96302SOL     OW90802  10.777  10.483   3.599
96302SOL    HW190803  10.703  10.523   3.645
96302SOL    HW290804  10.737  10.429   3.531
96303SOL     OW90805  10.787  11.337  11.383
96303SOL    HW190806  10.807  11.289  11.464
96303SOL    HW290807  10.737  11.413  11.413
96304SOL     OW90808   8.258  14.792   2.373
96304SOL    HW190809   8.343  14.834   2.360
96304SOL    HW290810   8.216  14.843   2.442
96305SOL     OW90811   6.127   9.576   5.443
96305SOL    HW190812   6.059   9.642   5.453
96305SOL    HW290813   6.104   9.530   5.362
96306SOL     OW90814   5.057   9.283   4.018
96306SOL    HW190815   5.027   9.338   4.090
96306SOL    HW290816   4.977   9.261   3.970
96307SOL     OW90817   1.180  12.718   8.198
96307SOL    HW190818   1.198  12.775   8.123
96307SOL    HW290819   1.266  12.690   8.228
96308SOL     OW90820   3.449   4.010  12.734
96308SOL    HW190821   3.528   4.030  12.683
96308SOL    HW290822   3.377   4.027  12.674
96309SOL     OW90823  11.284   1.656   1.692
96309SOL    HW190824  11.324   1.673   1.777
96309SOL    HW290825  11.214   1.721   1.685
96310SOL     OW90826  13.314   2.766   2.215
96310SOL    HW190827  13.328   2.719   2.297
96310SOL    HW290828  13.220   2.757   2.198
96311SOL     OW90829   1.125   5.581   9.957
96311SOL    HW190830   1.091   5.492   9.962
96311SOL    HW290831   1.139   5.596   9.864
96312SOL     OW90832   5.737   6.757  14.425
96312SOL    HW190833   5.701   6.830  14.475
96312SOL    HW290834   5.670   6.738  14.359
96313SOL     OW90835  13.374   3.297   1.444
96313SOL    HW190836  13.404   3.388   1.444
96313SOL    HW290837  13.357   3.277   1.352
96314SOL     OW90838  11.215   4.708  10.756
96314SOL    HW190839  11.131   4.746  10.784
96314SOL    HW290840  11.240   4.650  10.828
96315SOL     OW90841   4.245   0.438  13.133
96315SOL    HW190842   4.240   0.500  13.206
96315SOL    HW290843   4.245   0.494  13.055
96316SOL     OW90844   7.278   5.366   6.671
96316SOL    HW190845   7.197   5.404   6.706
96316SOL    HW290846   7.251   5.320   6.592
96317SOL     OW90847   5.254  11.797  14.666
96317SOL    HW190848   5.286  11.713  14.697
96317SOL    HW290849   5.300  11.862  14.719
96318SOL     OW90850   7.075  11.923   6.983
96318SOL    HW190851   7.138  11.978   7.030
96318SOL    HW290852   6.990  11.962   7.002
96319SOL     OW90853  14.771   6.472   4.856
96319SOL    HW190854  14.865   6.482   4.842
96319SOL    HW290855  14.764   6.428   4.941
96320SOL     OW90856  12.268   5.474   9.858
96320SOL    HW190857  12.284   5.472   9.764
96320SOL    HW290858  12.175   5.495   9.867
96321SOL     OW90859  14.477   2.149   0.903
96321SOL    HW190860  14.524   2.231   0.912
96321SOL    HW290861  14.501   2.098   0.980
96322SOL     OW90862  13.400   6.637  12.884
96322SOL    HW190863  13.400   6.544  12.908
96322SOL    HW290864  13.473   6.647  12.823
96323SOL     OW90865  14.624   0.659   9.525
96323SOL    HW190866  14.632   0.655   9.621
96323SOL    HW290867  14.701   0.708   9.496
96324SOL     OW90868   1.709  10.720   4.873
96324SOL    HW190869   1.637  10.713   4.936
96324SOL    HW290870   1.680  10.786   4.810
96325SOL     OW90871  10.958  14.380  10.136
96325SOL    HW190872  10.979  14.299  10.182
96325SOL    HW290873  10.867  14.370  10.110
96326SOL     OW90874   0.643  14.806   7.968
96326SOL    HW190875   0.565  14.796   7.914
96326SOL    HW290876   0.612  14.851   8.046
96327SOL     OW90877  12.160  11.478   6.216
96327SOL    HW190878  12.136  11.399   6.264
96327SOL    HW290879  12.089  11.540   6.233
96328SOL     OW90880   7.198   4.989  10.521
96328SOL    HW190881   7.106   4.998  10.545
96328SOL    HW290882   7.222   5.075  10.487
96329SOL     OW90883  11.859   5.361   7.480
96329SOL    HW190884  11.836   5.345   7.571
96329SOL    HW290885  11.836   5.281   7.434
96330SOL     OW90886   1.960   3.845  13.095
96330SOL    HW190887   2.030   3.854  13.160
96330SOL    HW290888   1.879   3.862  13.143
96331SOL     OW90889   5.994   2.510   5.307
96331SOL    HW190890   6.067   2.462   5.347
96331SOL    HW290891   5.928   2.443   5.290
96332SOL     OW90892   2.110   2.407   1.387
96332SOL    HW190893   2.196   2.367   1.400
96332SOL    HW290894   2.087   2.444   1.473
96333SOL     OW90895   8.838   5.809  10.999
96333SOL    HW190896   8.911   5.747  10.998
96333SOL    HW290897   8.775   5.773  10.937
96334SOL     OW90898  10.651   9.273   4.994
96334SOL    HW190899  10.656   9.367   4.974
96334SOL    HW290900  10.734   9.237   4.961
96335SOL     OW90901   4.080   8.165  10.767
96335SOL    HW190902   4.002   8.119  10.734
96335SOL    HW290903   4.134   8.096  10.805
96336SOL     OW90904   2.499  14.477  11.003
96336SOL    HW190905   2.482  14.409  11.068
96336SOL    HW290906   2.571  14.529  11.041
96337SOL     OW90907   4.988  13.645  10.884
96337SOL    HW190908   5.069  13.671  10.840
96337SOL    HW290909   5.006  13.558  10.918
96338SOL     OW90910   5.730   0.381  10.880
96338SOL    HW190911   5.744   0.293  10.845
96338SOL    HW290912   5.815   0.405  10.917
96339SOL     OW90913   0.810   2.420  10.214
96339SOL    HW190914   0.766   2.502  10.193
96339SOL    HW290915   0.833   2.428  10.307
96340SOL     OW90916   6.028   6.373   7.001
96340SOL    HW190917   6.083   6.308   6.957
96340SOL    HW290918   6.071   6.386   7.085
96341SOL     OW90919  13.142   8.941  13.617
96341SOL    HW190920  13.205   8.982  13.676
96341SOL    HW290921  13.183   8.858  13.592
96342SOL     OW90922   5.752  12.358   3.905
96342SOL    HW190923   5.830  12.414   3.908
96342SOL    HW290924   5.782  12.276   3.866
96343SOL     OW90925   6.406   4.274  13.526
96343SOL    HW190926   6.424   4.366  13.545
96343SOL    HW290927   6.442   4.259  13.439
96344SOL     OW90928  12.667   9.981   8.023
96344SOL    HW190929  12.626  10.008   7.941
96344SOL    HW290930  12.648   9.888   8.031
96345SOL     OW90931  10.327   4.052   4.957
96345SOL    HW190932  10.326   4.100   4.874
96345SOL    HW290933  10.382   3.976   4.939
96346SOL     OW90934   5.451   1.033  13.715
96346SOL    HW190935   5.485   1.078  13.793
96346SOL    HW290936   5.445   1.101  13.648
96347SOL     OW90937   5.155   3.100  11.057
96347SOL    HW190938   5.187   3.170  11.114
96347SOL    HW290939   5.231   3.045  11.041
96348SOL     OW90940   6.649  12.830   8.138
96348SOL    HW190941   6.619  12.847   8.227
96348SOL    HW290942   6.680  12.915   8.107
96349SOL     OW90943  10.652   9.776   2.102
96349SOL    HW190944  10.695   9.835   2.039
96349SOL    HW290945  10.588   9.728   2.049
96350SOL     OW90946   8.236   7.454   8.030
96350SOL    HW190947   8.292   7.504   7.971
96350SOL    HW290948   8.213   7.516   8.099
96351SOL     OW90949  10.691   3.090   9.959
96351SOL    HW190950  10.636   3.011   9.965
96351SOL    HW290951  10.654   3.140   9.887
96352SOL     OW90952  13.205   6.267   2.742
96352SOL    HW190953  13.248   6.186   2.712
96352SOL    HW290954  13.262   6.300   2.811
96353SOL     OW90955   0.185  13.323   4.413
96353SOL    HW190956   0.226  13.313   4.327
96353SOL    HW290957   0.182  13.235   4.449
96354SOL     OW90958   0.721  13.874  11.926
96354SOL    HW190959   0.809  13.910  11.928
96354SOL    HW290960   0.687  13.889  12.015
96355SOL     OW90961  11.719   2.982   6.182
96355SOL    HW190962  11.646   3.042   6.167
96355SOL    HW290963  11.735   2.944   6.095
96356SOL     OW90964   2.413   4.390   7.337
96356SOL    HW190965   2.404   4.444   7.415
96356SOL    HW290966   2.487   4.332   7.357
96357SOL     OW90967  11.745   3.123   0.436
96357SOL    HW190968  11.760   3.139   0.343
96357SOL    HW290969  11.696   3.042   0.439
96358SOL     OW90970   1.032   1.704  10.058
96358SOL    HW190971   1.041   1.711  10.153
96358SOL    HW290972   1.070   1.619  10.037
96359SOL     OW90973  12.999  14.434   1.072
96359SOL    HW190974  13.066  14.406   1.009
96359SOL    HW290975  12.951  14.354   1.092
96360SOL     OW90976   0.603   4.194  11.835
96360SOL    HW190977   0.633   4.194  11.744
96360SOL    HW290978   0.618   4.284  11.865
96361SOL     OW90979   9.482   1.986  13.511
96361SOL    HW190980   9.524   2.071  13.512
96361SOL    HW290981   9.449   1.976  13.422
96362SOL     OW90982   6.205  11.908  12.525
96362SOL    HW190983   6.155  11.901  12.444
96362SOL    HW290984   6.195  11.823  12.567
96363SOL     OW90985  10.664  13.733   5.992
96363SOL    HW190986  10.633  13.822   5.976
96363SOL    HW290987  10.738  13.723   5.931
96364SOL     OW90988  11.358   1.828   4.415
96364SOL    HW190989  11.324   1.741   4.397
96364SOL    HW290990  11.347   1.839   4.509
96365SOL     OW90991   6.976  14.081  11.312
96365SOL    HW190992   6.920  14.157  11.297
96365SOL    HW290993   6.938  14.013  11.257
96366SOL     OW90994   0.189  10.187   6.100
96366SOL    HW190995   0.099  10.189   6.065
96366SOL    HW290996   0.190  10.257   6.165
96367SOL     OW90997   1.802  12.733  14.558
96367SOL    HW190998   1.781  12.681  14.480
96367SOL    HW290999   1.828  12.818  14.523
96368SOL     OW91000   4.482   6.731  12.858
96368SOL    HW191001   4.431   6.751  12.936
96368SOL    HW291002   4.555   6.793  12.861
96369SOL     OW91003  13.297   1.459   9.790
96369SOL    HW191004  13.343   1.378   9.769
96369SOL    HW291005  13.234   1.434   9.858
96370SOL     OW91006   3.264  11.356  10.304
96370SOL    HW191007   3.233  11.300  10.374
96370SOL    HW291008   3.357  11.337  10.297
96371SOL     OW91009   7.551  12.089   8.488
96371SOL    HW191010   7.459  12.081   8.515
96371SOL    HW291011   7.593  12.011   8.522
96372SOL     OW91012   7.787   9.670   4.300
96372SOL    HW191013   7.750   9.597   4.251
96372SOL    HW291014   7.874   9.682   4.264
96373SOL     OW91015   7.635   3.324   1.525
96373SOL    HW191016   7.685   3.341   1.605
96373SOL    HW291017   7.640   3.406   1.475
96374SOL     OW91018  11.882   4.256  10.285
96374SOL    HW191019  11.836   4.207  10.353
96374SOL    HW291020  11.942   4.193  10.246
96375SOL     OW91021  13.721   8.397  12.832
96375SOL    HW191022  13.633   8.361  12.816
96375SOL    HW291023  13.746   8.436  12.748
96376SOL     OW91024   9.954   1.158   7.122
96376SOL    HW191025   9.943   1.080   7.067
96376SOL    HW291026   9.875   1.160   7.176
96377SOL     OW91027   0.702   4.034  12.488
96377SOL    HW191028   0.796   4.033  12.468
96377SOL    HW291029   0.667   3.957  12.443
96378SOL     OW91030   6.615   4.935  12.835
96378SOL    HW191031   6.536   4.918  12.784
96378SOL    HW291032   6.682   4.958  12.770
96379SOL     OW91033  11.897   9.016   3.314
96379SOL    HW191034  11.870   9.039   3.403
96379SOL    HW291035  11.913   9.100   3.271
96380SOL     OW91036  11.077   3.898   1.815
96380SOL    HW191037  11.068   3.815   1.768
96380SOL    HW291038  10.988   3.931   1.825
96381SOL     OW91039  13.685   9.178   5.534
96381SOL    HW191040  13.620   9.109   5.524
96381SOL    HW291041  13.730   9.157   5.616
96382SOL     OW91042  13.668  13.648   3.469
96382SOL    HW191043  13.668  13.552   3.478
96382SOL    HW291044  13.579  13.669   3.442
96383SOL     OW91045  13.893  12.273  13.820
96383SOL    HW191046  13.986  12.283  13.837
96383SOL    HW291047  13.865  12.200  13.876
96384SOL     OW91048  11.519   9.055   4.253
96384SOL    HW191049  11.612   9.049   4.231
96384SOL    HW291050  11.486   8.967   4.236
96385SOL     OW91051  12.016   8.424   7.464
96385SOL    HW191052  12.020   8.518   7.451
96385SOL    HW291053  11.952   8.393   7.399
96386SOL     OW91054   0.477   3.192   8.602
96386SOL    HW191055   0.498   3.209   8.694
96386SOL    HW291056   0.493   3.098   8.591
96387SOL     OW91057   4.318   5.896   1.541
96387SOL    HW191058   4.275   5.831   1.597
96387SOL    HW291059   4.407   5.901   1.575
96388SOL     OW91060  10.226   5.119   7.950
96388SOL    HW191061  10.157   5.114   7.884
96388SOL    HW291062  10.238   5.029   7.978
96389SOL     OW91063   8.559  11.124   6.586
96389SOL    HW191064   8.490  11.116   6.653
96389SOL    HW291065   8.613  11.046   6.598
96390SOL     OW91066   0.043  11.722  14.498
96390SOL    HW191067   0.114  11.677  14.452
96390SOL    HW291068  14.836  11.716  14.439
96391SOL     OW91069   0.458   4.032  11.642
96391SOL    HW191070   0.517   4.049  11.568
96391SOL    HW291071   0.387   3.980  11.604
96392SOL     OW91072  10.384   1.372   3.268
96392SOL    HW191073  10.407   1.288   3.229
96392SOL    HW291074  10.294   1.360   3.298
96393SOL     OW91075   3.649   2.963   7.175
96393SOL    HW191076   3.563   2.951   7.135
96393SOL    HW291077   3.645   2.914   7.257
96394SOL     OW91078   9.592  11.150   6.725
96394SOL    HW191079   9.679  11.137   6.688
96394SOL    HW291080   9.534  11.097   6.669
96395SOL     OW91081  12.211  12.273  13.435
96395SOL    HW191082  12.297  12.270  13.477
96395SOL    HW291083  12.151  12.237  13.500
96396SOL     OW91084  13.823   6.688   2.648
96396SOL    HW191085  13.838   6.596   2.626
96396SOL    HW291086  13.862   6.699   2.735
96397SOL     OW91087  14.224   6.408   1.234
96397SOL    HW191088  14.143   6.414   1.185
96397SOL    HW291089  14.242   6.314   1.239
96398SOL     OW91090   1.825  14.777  11.129
96398SOL    HW191091   1.894  14.843  11.120
96398SOL    HW291092   1.870  14.694  11.112
96399SOL     OW91093   0.869   4.881   3.444
96399SOL    HW191094   0.934   4.946   3.470
96399SOL    HW291095   0.912   4.829   3.377
96400SOL     OW91096   4.774  13.157   2.513
96400SOL    HW191097   4.741  13.120   2.594
96400SOL    HW291098   4.718  13.121   2.445
96401SOL     OW91099   2.669   0.258  14.566
96401SOL    HW191100   2.672   0.165  14.591
96401SOL    HW291101   2.575   0.277  14.559
96402SOL     OW91102  14.155  14.210  10.383
96402SOL    HW191103  14.167  14.119  10.358
96402SOL    HW291104  14.078  14.209  10.441
96403SOL     OW91105  13.783   7.159   3.506
96403SOL    HW191106  13.760   7.068   3.525
96403SOL    HW291107  13.869   7.171   3.546
96404SOL     OW91108   4.753  12.113   7.805
96404SOL    HW191109   4.820  12.181   7.790
96404SOL    HW291110   4.756  12.097   7.899
96405SOL     OW91111   1.740  13.766   4.417
96405SOL    HW191112   1.695  13.829   4.361
96405SOL    HW291113   1.782  13.706   4.355
96406SOL     OW91114  14.213  13.826   0.034
96406SOL    HW191115  14.219  13.744  14.852
96406SOL    HW291116  14.298  13.868   0.023
96407SOL     OW91117   3.728   4.009  13.722
96407SOL    HW191118   3.823   4.008  13.732
96407SOL    HW291119   3.713   3.978  13.633
96408SOL     OW91120   7.462   7.347   1.605
96408SOL    HW191121   7.427   7.298   1.680
96408SOL    HW291122   7.423   7.304   1.528
96409SOL     OW91123   7.858  14.072   5.287
96409SOL    HW191124   7.952  14.057   5.281
96409SOL    HW291125   7.823  13.990   5.321
96410SOL     OW91126   9.522   4.180   1.644
96410SOL    HW191127   9.472   4.118   1.695
96410SOL    HW291128   9.609   4.180   1.684
96411SOL     OW91129   7.073   9.298   8.999
96411SOL    HW191130   7.168   9.288   8.996
96411SOL    HW291131   7.059   9.393   9.001
96412SOL     OW91132   2.245   6.429  13.717
96412SOL    HW191133   2.316   6.471  13.668
96412SOL    HW291134   2.248   6.337  13.691
96413SOL     OW91135  13.826  14.232   7.242
96413SOL    HW191136  13.821  14.167   7.172
96413SOL    HW291137  13.894  14.293   7.213
96414SOL     OW91138   7.494  12.513   0.111
96414SOL    HW191139   7.485  12.431   0.062
96414SOL    HW291140   7.578  12.548   0.083
96415SOL     OW91141  10.301  12.772   0.958
96415SOL    HW191142  10.289  12.825   0.879
96415SOL    HW291143  10.280  12.683   0.930
96416SOL     OW91144   2.747   5.689  13.659
96416SOL    HW191145   2.822   5.715  13.606
96416SOL    HW291146   2.783   5.629  13.725
96417SOL     OW91147  10.815   0.646   3.271
96417SOL    HW191148  10.864   0.564   3.259
96417SOL    HW291149  10.724   0.619   3.282
96418SOL     OW91150   9.766   9.208  12.066
96418SOL    HW191151   9.761   9.132  12.007
96418SOL    HW291152   9.707   9.272  12.027
96419SOL     OW91153   2.761  10.262   3.714
96419SOL    HW191154   2.757  10.355   3.737
96419SOL    HW291155   2.848  10.251   3.675
96420SOL     OW91156   2.443  11.624   5.056
96420SOL    HW191157   2.374  11.589   5.112
96420SOL    HW291158   2.498  11.676   5.114
96421SOL     OW91159   2.537   1.275  10.270
96421SOL    HW191160   2.610   1.254  10.329
96421SOL    HW291161   2.508   1.362  10.299
96422SOL     OW91162  14.832  13.623   3.636
96422SOL    HW191163  14.805  13.703   3.681
96422SOL    HW291164  14.766  13.559   3.661
96423SOL     OW91165  13.153  14.399  11.230
96423SOL    HW191166  13.108  14.423  11.310
96423SOL    HW291167  13.085  14.397  11.163
96424SOL     OW91168  11.027  12.322  11.147
96424SOL    HW191169  10.986  12.235  11.151
96424SOL    HW291170  10.962  12.381  11.185
96425SOL     OW91171   4.505   2.253   1.731
96425SOL    HW191172   4.429   2.196   1.743
96425SOL    HW291173   4.548   2.254   1.817
96426SOL     OW91174  11.149   2.296   2.690
96426SOL    HW191175  11.200   2.374   2.667
96426SOL    HW291176  11.201   2.253   2.758
96427SOL     OW91177   8.929   1.524  12.615
96427SOL    HW191178   8.962   1.588  12.679
96427SOL    HW291179   8.895   1.578  12.543
96428SOL     OW91180   8.184   0.469   4.222
96428SOL    HW191181   8.135   0.542   4.184
96428SOL    HW291182   8.267   0.468   4.174
96429SOL     OW91183  11.868   1.209   8.463
96429SOL    HW191184  11.927   1.146   8.421
96429SOL    HW291185  11.786   1.160   8.474
96430SOL     OW91186  10.852   9.935   4.313
96430SOL    HW191187  10.901   9.869   4.266
96430SOL    HW291188  10.856   9.907   4.405
96431SOL     OW91189   0.582  11.526  12.572
96431SOL    HW191190   0.517  11.587  12.538
96431SOL    HW291191   0.537  11.480  12.643
96432SOL     OW91192  11.459   7.041  12.948
96432SOL    HW191193  11.515   6.992  12.888
96432SOL    HW291194  11.415   6.974  13.001
96433SOL     OW91195  13.684   7.338   1.997
96433SOL    HW191196  13.764   7.286   1.993
96433SOL    HW291197  13.629   7.292   2.060
96434SOL     OW91198   1.369   5.979  12.513
96434SOL    HW191199   1.447   5.925  12.503
96434SOL    HW291200   1.331   5.984  12.425
96435SOL     OW91201   5.800   9.874   4.083
96435SOL    HW191202   5.736   9.914   4.142
96435SOL    HW291203   5.884   9.912   4.110
96436SOL     OW91204   2.936   2.973  11.250
96436SOL    HW191205   2.907   3.064  11.256
96436SOL    HW291206   2.893   2.928  11.323
96437SOL     OW91207   9.591   7.676   1.079
96437SOL    HW191208   9.586   7.725   1.161
96437SOL    HW291209   9.669   7.621   1.088
96438SOL     OW91210   2.644   4.220   2.521
96438SOL    HW191211   2.619   4.237   2.612
96438SOL    HW291212   2.627   4.303   2.476
96439SOL     OW91213   1.075   9.793  10.227
96439SOL    HW191214   1.123   9.868  10.261
96439SOL    HW291215   1.088   9.796  10.133
96440SOL     OW91216  13.655  12.692   5.022
96440SOL    HW191217  13.703  12.684   4.939
96440SOL    HW291218  13.719  12.730   5.082
96441SOL     OW91219   6.222  12.781   5.327
96441SOL    HW191220   6.219  12.700   5.277
96441SOL    HW291221   6.241  12.849   5.262
96442SOL     OW91222   6.983  13.681   7.731
96442SOL    HW191223   7.061  13.654   7.780
96442SOL    HW291224   6.985  13.627   7.652
96443SOL     OW91225   0.838   5.587   7.312
96443SOL    HW191226   0.933   5.581   7.305
96443SOL    HW291227   0.807   5.497   7.301
96444SOL     OW91228   9.933   6.328  10.205
96444SOL    HW191229   9.906   6.282  10.126
96444SOL    HW291230   9.947   6.418  10.177
96445SOL     OW91231   1.201   5.347   5.411
96445SOL    HW191232   1.190   5.265   5.459
96445SOL    HW291233   1.293   5.370   5.424
96446SOL     OW91234   6.049   5.626   7.100
96446SOL    HW191235   6.035   5.718   7.125
96446SOL    HW291236   5.975   5.605   7.044
96447SOL     OW91237   1.967   1.888  13.437
96447SOL    HW191238   2.049   1.887  13.388
96447SOL    HW291239   1.963   1.975  13.476
96448SOL     OW91240   3.931   5.601  10.948
96448SOL    HW191241   3.968   5.518  10.918
96448SOL    HW291242   3.924   5.655  10.869
96449SOL     OW91243   2.887   7.582  10.114
96449SOL    HW191244   2.857   7.660  10.067
96449SOL    HW291245   2.867   7.510  10.054
96450SOL     OW91246   1.624   1.413   1.088
96450SOL    HW191247   1.708   1.386   1.127
96450SOL    HW291248   1.612   1.353   1.015
96451SOL     OW91249   9.615   2.537   5.534
96451SOL    HW191250   9.522   2.523   5.519
96451SOL    HW291251   9.639   2.469   5.598
96452SOL     OW91252  12.276   5.493  13.344
96452SOL    HW191253  12.358   5.449  13.369
96452SOL    HW291254  12.247   5.448  13.265
96453SOL     OW91255   6.341   6.956   2.861
96453SOL    HW191256   6.425   6.930   2.899
96453SOL    HW291257   6.326   7.044   2.894
96454SOL     OW91258  10.422   6.184  10.919
96454SOL    HW191259  10.482   6.258  10.932
96454SOL    HW291260  10.448   6.146  10.835
96455SOL     OW91261  13.815  10.881  11.586
96455SOL    HW191262  13.789  10.973  11.576
96455SOL    HW291263  13.832  10.871  11.680
96456SOL     OW91264   6.068   7.089  13.726
96456SOL    HW191265   5.987   7.106  13.773
96456SOL    HW291266   6.046   7.019  13.664
96457SOL     OW91267   8.853   7.478  12.308
96457SOL    HW191268   8.931   7.422  12.312
96457SOL    HW291269   8.867   7.534  12.232
96458SOL     OW91270   7.198   5.433   1.838
96458SOL    HW191271   7.125   5.473   1.791
96458SOL    HW291272   7.171   5.342   1.852
96459SOL     OW91273   5.102  11.797  13.609
96459SOL    HW191274   5.172  11.796  13.675
96459SOL    HW291275   5.148  11.787  13.525
96460SOL     OW91276  12.117  12.223  14.673
96460SOL    HW191277  12.151  12.292  14.730
96460SOL    HW291278  12.024  12.243  14.662
96461SOL     OW91279   6.260   3.790   9.388
96461SOL    HW191280   6.307   3.818   9.467
96461SOL    HW291281   6.313   3.718   9.354
96462SOL     OW91282  10.874   5.623   3.524
96462SOL    HW191283  10.829   5.539   3.529
96462SOL    HW291284  10.900   5.642   3.615
96463SOL     OW91285   2.913  12.566   5.137
96463SOL    HW191286   2.933  12.658   5.122
96463SOL    HW291287   2.920  12.526   5.050
96464SOL     OW91288  12.277  10.783   0.775
96464SOL    HW191289  12.259  10.840   0.699
96464SOL    HW291290  12.191  10.756   0.805
96465SOL     OW91291   7.014   9.928   7.606
96465SOL    HW191292   7.071   9.971   7.671
96465SOL    HW291293   7.069   9.921   7.528
96466SOL     OW91294  12.059   5.739   8.891
96466SOL    HW191295  12.030   5.688   8.967
96466SOL    HW291296  12.002   5.710   8.820
96467SOL     OW91297   2.084  11.515  11.021
96467SOL    HW191298   2.074  11.468  11.104
96467SOL    HW291299   2.175  11.499  10.996
96468SOL     OW91300   9.745  12.049  14.284
96468SOL    HW191301   9.725  12.098  14.364
96468SOL    HW291302   9.737  11.957  14.311
96469SOL     OW91303   0.397  12.892  14.074
96469SOL    HW191304   0.369  12.811  14.117
96469SOL    HW291305   0.457  12.933  14.136
96470SOL     OW91306  12.783  12.751   2.862
96470SOL    HW191307  12.689  12.734   2.853
96470SOL    HW291308  12.817  12.747   2.773
96471SOL     OW91309   9.115   5.346   0.717
96471SOL    HW191310   9.130   5.343   0.812
96471SOL    HW291311   9.196   5.313   0.679
96472SOL     OW91312   7.733   8.576   6.388
96472SOL    HW191313   7.691   8.556   6.472
96472SOL    HW291314   7.788   8.652   6.406
96473SOL     OW91315  11.298   8.542  11.859
96473SOL    HW191316  11.311   8.585  11.775
96473SOL    HW291317  11.333   8.454  11.848
96474SOL     OW91318   6.967   7.211   0.507
96474SOL    HW191319   7.039   7.274   0.501
96474SOL    HW291320   6.888   7.264   0.494
96475SOL     OW91321  12.443   8.042  11.483
96475SOL    HW191322  12.416   8.127  11.448
96475SOL    HW291323  12.409   7.978  11.420
96476SOL     OW91324   9.893   9.920   3.517
96476SOL    HW191325   9.968   9.978   3.527
96476SOL    HW291326   9.919   9.839   3.562
96477SOL     OW91327   2.556   0.397   1.311
96477SOL    HW191328   2.637   0.363   1.273
96477SOL    HW291329   2.539   0.341   1.386
96478SOL     OW91330   5.226   8.166  14.312
96478SOL    HW191331   5.195   8.237  14.368
96478SOL    HW291332   5.165   8.094  14.329
96479SOL     OW91333  13.345  10.940  14.557
96479SOL    HW191334  13.315  10.850  14.543
96479SOL    HW291335  13.366  10.972  14.469
96480SOL     OW91336   0.793   1.725   9.921
96480SOL    HW191337   0.874   1.714   9.972
96480SOL    HW291338   0.802   1.812   9.882
96481SOL     OW91339   3.379  11.170   0.581
96481SOL    HW191340   3.442  11.139   0.516
96481SOL    HW291341   3.295  11.166   0.536
96482SOL     OW91342   5.494  11.748   9.373
96482SOL    HW191343   5.538  11.695   9.307
96482SOL    HW291344   5.565  11.794   9.419
96483SOL     OW91345   6.381  11.241  13.938
96483SOL    HW191346   6.439  11.308  13.974
96483SOL    HW291347   6.298  11.287  13.924
96484SOL     OW91348  14.446   0.165   3.968
96484SOL    HW191349  14.512   0.234   3.968
96484SOL    HW291350  14.412   0.166   3.878
96485SOL     OW91351  13.983   2.573  14.672
96485SOL    HW191352  14.078   2.576  14.658
96485SOL    HW291353  13.968   2.629  14.748
96486SOL     OW91354   8.093   4.022  11.206
96486SOL    HW191355   8.002   4.012  11.176
96486SOL    HW291356   8.103   3.954  11.273
96487SOL     OW91357  12.261   7.347   8.099
96487SOL    HW191358  12.219   7.279   8.150
96487SOL    HW291359  12.259   7.315   8.009
96488SOL     OW91360   3.287   1.938  12.468
96488SOL    HW191361   3.290   2.033  12.484
96488SOL    HW291362   3.255   1.930  12.379
96489SOL     OW91363   5.748   0.724   8.833
96489SOL    HW191364   5.832   0.700   8.793
96489SOL    HW291365   5.721   0.802   8.786
96490SOL     OW91366   5.343   6.274   5.987
96490SOL    HW191367   5.266   6.218   5.984
96490SOL    HW291368   5.349   6.302   6.078
96491SOL     OW91369  13.247  11.097   1.161
96491SOL    HW191370  13.245  11.183   1.118
96491SOL    HW291371  13.204  11.038   1.099
96492SOL     OW91372   6.111   5.580   6.212
96492SOL    HW191373   6.126   5.508   6.150
96492SOL    HW291374   6.191   5.584   6.265
96493SOL     OW91375  12.761   8.923  14.622
96493SOL    HW191376  12.816   8.928  14.700
96493SOL    HW291377  12.805   8.859  14.566
96494SOL     OW91378   4.481  14.689  11.924
96494SOL    HW191379   4.413  14.676  11.857
96494SOL    HW291380   4.436  14.732  11.996
96495SOL     OW91381  12.719   1.675   7.369
96495SOL    HW191382  12.688   1.622   7.296
96495SOL    HW291383  12.655   1.746   7.377
96496SOL     OW91384  11.704  13.313  12.416
96496SOL    HW191385  11.772  13.367  12.457
96496SOL    HW291386  11.750  13.265  12.347
96497SOL     OW91387   1.153   6.425   6.329
96497SOL    HW191388   1.101   6.352   6.295
96497SOL    HW291389   1.222   6.438   6.263
96498SOL     OW91390   6.940   2.254   1.461
96498SOL    HW191391   7.020   2.214   1.495
96498SOL    HW291392   6.965   2.345   1.444
96499SOL     OW91393   8.865   8.870   2.476
96499SOL    HW191394   8.808   8.945   2.495
96499SOL    HW291395   8.834   8.837   2.391
96500SOL     OW91396  11.586   3.622   6.855
96500SOL    HW191397  11.535   3.691   6.811
96500SOL    HW291398  11.621   3.569   6.783
96501SOL     OW91399  11.303  14.263  12.289
96501SOL    HW191400  11.352  14.197  12.241
96501SOL    HW291401  11.282  14.221  12.372
96502SOL     OW91402  10.396  14.215   3.715
96502SOL    HW191403  10.394  14.159   3.793
96502SOL    HW291404  10.476  14.189   3.669
96503SOL     OW91405   6.754  11.812  10.484
96503SOL    HW191406   6.828  11.752  10.483
96503SOL    HW291407   6.693  11.777  10.419
96504SOL     OW91408   5.864   7.925  14.812
96504SOL    HW191409   5.898   7.998  14.761
96504SOL    HW291410   5.843   7.858  14.747
96505SOL     OW91411   9.853   2.280  11.639
96505SOL    HW191412   9.875   2.194  11.673
96505SOL    HW291413   9.914   2.340  11.682
96506SOL     OW91414   6.636   7.647   5.144
96506SOL    HW191415   6.635   7.656   5.240
96506SOL    HW291416   6.678   7.727   5.113
96507SOL     OW91417   1.634   3.392   1.421
96507SOL    HW191418   1.612   3.303   1.391
96507SOL    HW291419   1.584   3.403   1.502
96508SOL     OW91420   2.026   2.743   4.660
96508SOL    HW191421   2.060   2.688   4.731
96508SOL    HW291422   1.962   2.688   4.616
96509SOL     OW91423   1.699  14.327   5.639
96509SOL    HW191424   1.730  14.339   5.550
96509SOL    HW291425   1.616  14.280   5.630
96510SOL     OW91426   8.545  14.274  10.859
96510SOL    HW191427   8.497  14.268  10.777
96510SOL    HW291428   8.540  14.366  10.884
96511SOL     OW91429   4.922  13.000   9.139
96511SOL    HW191430   4.856  12.947   9.185
96511SOL    HW291431   4.947  13.067   9.203
96512SOL     OW91432   0.443   4.085   3.718
96512SOL    HW191433   0.475   4.081   3.628
96512SOL    HW291434   0.367   4.143   3.714
96513SOL     OW91435   1.183   9.902  12.574
96513SOL    HW191436   1.221   9.845  12.508
96513SOL    HW291437   1.254   9.918  12.636
96514SOL     OW91438   3.103  13.287   7.842
96514SOL    HW191439   3.179  13.306   7.897
96514SOL    HW291440   3.110  13.193   7.824
96515SOL     OW91441   9.889   5.159  13.469
96515SOL    HW191442   9.926   5.241  13.500
96515SOL    HW291443   9.842   5.182  13.389
96516SOL     OW91444   5.274   2.044  10.750
96516SOL    HW191445   5.283   2.114  10.815
96516SOL    HW291446   5.289   2.086  10.666
96517SOL     OW91447   5.928   3.418   1.845
96517SOL    HW191448   5.844   3.410   1.800
96517SOL    HW291449   5.921   3.359   1.920
96518SOL     OW91450   7.346   6.392   7.216
96518SOL    HW191451   7.323   6.364   7.128
96518SOL    HW291452   7.267   6.376   7.267
96519SOL     OW91453   8.908   9.047   8.478
96519SOL    HW191454   8.814   9.046   8.457
96519SOL    HW291455   8.922   8.971   8.533
96520SOL     OW91456   5.933  12.039  12.842
96520SOL    HW191457   5.862  12.074  12.896
96520SOL    HW291458   5.937  11.946  12.864
96521SOL     OW91459   9.366   7.586  11.869
96521SOL    HW191460   9.314   7.506  11.864
96521SOL    HW291461   9.333   7.640  11.797
96522SOL     OW91462  10.899   4.264   9.943
96522SOL    HW191463  10.965   4.275   9.874
96522SOL    HW291464  10.837   4.335   9.929
96523SOL     OW91465   4.356   7.938  10.477
96523SOL    HW191466   4.394   7.862  10.521
96523SOL    HW291467   4.334   7.907  10.389
96524SOL     OW91468   7.085   7.243   6.920
96524SOL    HW191469   7.120   7.266   7.006
96524SOL    HW291470   7.120   7.310   6.861
96525SOL     OW91471  10.738   3.590   3.162
96525SOL    HW191472  10.735   3.513   3.219
96525SOL    HW291473  10.819   3.581   3.113
96526SOL     OW91474  13.218   1.295   4.370
96526SOL    HW191475  13.209   1.388   4.349
96526SOL    HW291476  13.295   1.267   4.320
96527SOL     OW91477   9.968   4.424   8.117
96527SOL    HW191478   9.915   4.344   8.106
96527SOL    HW291479   9.984   4.430   8.211
96528SOL     OW91480  14.662   8.264   3.816
96528SOL    HW191481  14.599   8.295   3.750
96528SOL    HW291482  14.655   8.168   3.811
96529SOL     OW91483  13.314  10.740   2.650
96529SOL    HW191484  13.391  10.796   2.647
96529SOL    HW291485  13.243  10.797   2.678
96530SOL     OW91486   1.833   4.372  14.428
96530SOL    HW191487   1.750   4.391  14.471
96530SOL    HW291488   1.879   4.313  14.488
96531SOL     OW91489   6.168   1.990  14.126
96531SOL    HW191490   6.155   1.913  14.182
96531SOL    HW291491   6.093   1.989  14.066
96532SOL     OW91492   3.709   9.932   5.915
96532SOL    HW191493   3.781   9.993   5.898
96532SOL    HW291494   3.630   9.984   5.904
96533SOL     OW91495  11.781  12.092   6.611
96533SOL    HW191496  11.750  12.045   6.689
96533SOL    HW291497  11.778  12.027   6.541
96534SOL     OW91498   1.852   9.279   6.279
96534SOL    HW191499   1.930   9.256   6.329
96534SOL    HW291500   1.839   9.205   6.220
96535SOL     OW91501   7.492   4.264   9.821
96535SOL    HW191502   7.439   4.224   9.753
96535SOL    HW291503   7.497   4.357   9.797
96536SOL     OW91504   2.011   1.601   9.190
96536SOL    HW191505   2.037   1.546   9.263
96536SOL    HW291506   1.958   1.670   9.230
96537SOL     OW91507   7.983  14.511   6.336
96537SOL    HW191508   7.981  14.417   6.320
96537SOL    HW291509   8.067  14.540   6.298
96538SOL     OW91510  13.705   9.041   3.039
96538SOL    HW191511  13.778   9.103   3.028
96538SOL    HW291512  13.710   9.015   3.131
96539SOL     OW91513   7.792   8.780  14.710
96539SOL    HW191514   7.790   8.872  14.686
96539SOL    HW291515   7.717   8.768  14.768
96540SOL     OW91516   6.540  10.948   4.305
96540SOL    HW191517   6.490  10.867   4.311
96540SOL    HW291518   6.595  10.948   4.384
96541SOL     OW91519   1.213  13.516   1.913
96541SOL    HW191520   1.221  13.601   1.869
96541SOL    HW291521   1.125  13.486   1.892
96542SOL     OW91522  14.369  12.669   8.863
96542SOL    HW191523  14.317  12.602   8.907
96542SOL    HW291524  14.335  12.672   8.774
96543SOL     OW91525   7.088   3.670   3.217
96543SOL    HW191526   7.124   3.680   3.129
96543SOL    HW291527   7.041   3.586   3.214
96544SOL     OW91528   1.995  14.036  14.315
96544SOL    HW191529   1.957  13.984  14.384
96544SOL    HW291530   2.055  13.976  14.269
96545SOL     OW91531   5.033   3.495   7.190
96545SOL    HW191532   4.971   3.451   7.132
96545SOL    HW291533   5.119   3.465   7.159
96546SOL     OW91534  12.235  10.369  14.309
96546SOL    HW191535  12.182  10.419  14.371
96546SOL    HW291536  12.303  10.429  14.281
96547SOL     OW91537  11.129   4.364  14.199
96547SOL    HW191538  11.154   4.313  14.276
96547SOL    HW291539  11.129   4.455  14.229
96548SOL     OW91540   9.976   5.905  11.311
96548SOL    HW191541   9.908   5.852  11.270
96548SOL    HW291542   9.973   5.989  11.265
96549SOL     OW91543  12.371  13.037  13.558
96549SOL    HW191544  12.393  12.944  13.561
96549SOL    HW291545  12.277  13.040  13.541
96550SOL     OW91546   2.766   3.360   3.987
96550SOL    HW191547   2.839   3.316   3.944
96550SOL    HW291548   2.751   3.439   3.934
96551SOL     OW91549   5.569  14.459   0.177
96551SOL    HW191550   5.509  14.520   0.134
96551SOL    HW291551   5.557  14.376   0.131
96552SOL     OW91552  10.106   9.937  14.133
96552SOL    HW191553  10.035   9.927  14.069
96552SOL    HW291554  10.092  10.024  14.170
96553SOL     OW91555   8.981  13.940  12.255
96553SOL    HW191556   8.904  13.908  12.209
96553SOL    HW291557   9.051  13.938  12.189
96554SOL     OW91558   4.453  11.062   5.676
96554SOL    HW191559   4.496  11.090   5.757
96554SOL    HW291560   4.381  11.124   5.665
96555SOL     OW91561   1.941   4.671   7.839
96555SOL    HW191562   1.853   4.652   7.871
96555SOL    HW291563   1.971   4.744   7.892
96556SOL     OW91564  12.221   3.449   1.392
96556SOL    HW191565  12.205   3.390   1.466
96556SOL    HW291566  12.254   3.392   1.323
96557SOL     OW91567   5.712  14.497   8.205
96557SOL    HW191568   5.631  14.535   8.169
96557SOL    HW291569   5.765  14.476   8.128
96558SOL     OW91570   3.702   7.168   4.657
96558SOL    HW191571   3.708   7.087   4.708
96558SOL    HW291572   3.755   7.151   4.579
96559SOL     OW91573  12.438   8.567   2.996
96559SOL    HW191574  12.475   8.636   2.940
96559SOL    HW291575  12.450   8.487   2.945
96560SOL     OW91576   1.108  11.304   3.295
96560SOL    HW191577   1.157  11.362   3.353
96560SOL    HW291578   1.172  11.278   3.229
96561SOL     OW91579  14.462   4.985  12.343
96561SOL    HW191580  14.412   5.047  12.396
96561SOL    HW291581  14.421   4.900  12.360
96562SOL     OW91582  10.371   7.775   2.136
96562SOL    HW191583  10.366   7.859   2.091
96562SOL    HW291584  10.284   7.764   2.176
96563SOL     OW91585   7.371   9.768  11.000
96563SOL    HW191586   7.308   9.783  11.070
96563SOL    HW291587   7.415   9.686  11.025
96564SOL     OW91588   7.628   9.639   7.714
96564SOL    HW191589   7.641   9.652   7.620
96564SOL    HW291590   7.585   9.554   7.721
96565SOL     OW91591  11.361   3.744   3.397
96565SOL    HW191592  11.455   3.731   3.408
96565SOL    HW291593  11.354   3.812   3.330
96566SOL     OW91594   6.024   5.056  10.593
96566SOL    HW191595   5.955   5.072  10.529
96566SOL    HW291596   6.069   4.977  10.561
96567SOL     OW91597   8.822   4.497   7.086
96567SOL    HW191598   8.837   4.467   7.176
96567SOL    HW291599   8.816   4.593   7.094
96568SOL     OW91600   3.620   4.410   8.746
96568SOL    HW191601   3.585   4.494   8.778
96568SOL    HW291602   3.585   4.401   8.658
96569SOL     OW91603   7.263   0.845  10.992
96569SOL    HW191604   7.284   0.933  10.962
96569SOL    HW291605   7.241   0.856  11.084
96570SOL     OW91606   4.889   8.000  10.160
96570SOL    HW191607   4.937   7.924  10.129
96570SOL    HW291608   4.844   8.034  10.082
96571SOL     OW91609   2.186   6.236   4.438
96571SOL    HW191610   2.243   6.217   4.512
96571SOL    HW291611   2.160   6.150   4.405
96572SOL     OW91612  14.623  11.470  14.804
96572SOL    HW191613  14.692  11.536  14.799
96572SOL    HW291614  14.635  11.429   0.021
96573SOL     OW91615   4.934   4.354   4.192
96573SOL    HW191616   4.848   4.361   4.152
96573SOL    HW291617   4.976   4.439   4.174
96574SOL     OW91618  11.887   4.339   3.107
96574SOL    HW191619  11.936   4.257   3.115
96574SOL    HW291620  11.795   4.314   3.114
96575SOL     OW91621   6.280   1.536  11.885
96575SOL    HW191622   6.354   1.502  11.934
96575SOL    HW291623   6.251   1.613  11.935
96576SOL     OW91624   2.559  14.452   8.667
96576SOL    HW191625   2.536  14.363   8.640
96576SOL    HW291626   2.499  14.470   8.740
96577SOL     OW91627   9.982  10.708  14.680
96577SOL    HW191628  10.044  10.641  14.709
96577SOL    HW291629  10.003  10.722  14.588
96578SOL     OW91630   9.719   7.167  13.878
96578SOL    HW191631   9.769   7.216  13.944
96578SOL    HW291632   9.759   7.080  13.878
96579SOL     OW91633   7.492   1.805  11.398
96579SOL    HW191634   7.572   1.773  11.357
96579SOL    HW291635   7.511   1.897  11.419
96580SOL     OW91636   8.399   8.422   8.926
96580SOL    HW191637   8.440   8.417   8.839
96580SOL    HW291638   8.371   8.513   8.934
96581SOL     OW91639   6.908  13.277   4.267
96581SOL    HW191640   6.861  13.199   4.296
96581SOL    HW291641   6.958  13.305   4.344
96582SOL     OW91642   7.476   2.687   3.113
96582SOL    HW191643   7.513   2.728   3.035
96582SOL    HW291644   7.547   2.691   3.178
96583SOL     OW91645   6.504   1.745   0.279
96583SOL    HW191646   6.570   1.695   0.231
96583SOL    HW291647   6.496   1.827   0.230
96584SOL     OW91648  12.991  10.412   6.600
96584SOL    HW191649  13.053  10.429   6.529
96584SOL    HW291650  12.990  10.317   6.609
96585SOL     OW91651   1.566   7.681   4.376
96585SOL    HW191652   1.647   7.708   4.419
96585SOL    HW291653   1.550   7.750   4.311
96586SOL     OW91654  12.633  11.706  10.208
96586SOL    HW191655  12.658  11.798  10.212
96586SOL    HW291656  12.540  11.705  10.230
96587SOL     OW91657  13.950   4.400   2.993
96587SOL    HW191658  14.042   4.427   2.986
96587SOL    HW291659  13.900   4.476   2.963
96588SOL     OW91660  11.620   5.665  11.585
96588SOL    HW191661  11.673   5.589  11.558
96588SOL    HW291662  11.664   5.696  11.664
96589SOL     OW91663   0.184   3.805   3.169
96589SOL    HW191664   0.186   3.742   3.241
96589SOL    HW291665   0.160   3.888   3.211
96590SOL     OW91666   3.226   1.311  14.371
96590SOL    HW191667   3.298   1.256  14.404
96590SOL    HW291668   3.260   1.400  14.378
96591SOL     OW91669  10.858   2.192   5.713
96591SOL    HW191670  10.864   2.263   5.648
96591SOL    HW291671  10.933   2.136   5.694
96592SOL     OW91672  11.598   8.609  13.277
96592SOL    HW191673  11.536   8.540  13.300
96592SOL    HW291674  11.591   8.672  13.349
96593SOL     OW91675   8.619   6.826  13.158
96593SOL    HW191676   8.646   6.734  13.151
96593SOL    HW291677   8.585   6.834  13.247
96594SOL     OW91678   3.266   3.612  11.185
96594SOL    HW191679   3.256   3.652  11.099
96594SOL    HW291680   3.320   3.673  11.234
96595SOL     OW91681  14.393   3.887  14.286
96595SOL    HW191682  14.393   3.960  14.347
96595SOL    HW291683  14.466   3.832  14.314
96596SOL     OW91684  13.107   5.672  11.084
96596SOL    HW191685  13.201   5.665  11.066
96596SOL    HW291686  13.069   5.594  11.042
96597SOL     OW91687   1.716   3.082   6.453
96597SOL    HW191688   1.766   3.161   6.474
96597SOL    HW291689   1.782   3.013   6.444
96598SOL     OW91690  14.429   0.696   6.594
96598SOL    HW191691  14.337   0.674   6.612
96598SOL    HW291692  14.467   0.711   6.680
96599SOL     OW91693  10.147  12.119  10.315
96599SOL    HW191694  10.123  12.028  10.304
96599SOL    HW291695  10.064  12.167  10.310
96600SOL     OW91696   8.723  10.173   0.296
96600SOL    HW191697   8.780  10.112   0.343
96600SOL    HW291698   8.636  10.157   0.331
96601SOL     OW91699  10.262   1.735  12.146
96601SOL    HW191700  10.335   1.707  12.201
96601SOL    HW291701  10.191   1.755  12.208
96602SOL     OW91702  14.840   6.938   0.976
96602SOL    HW191703   0.038   6.924   0.908
96602SOL    HW291704  14.757   6.914   0.935
96603SOL     OW91705   2.146   5.879   8.131
96603SOL    HW191706   2.191   5.875   8.047
96603SOL    HW291707   2.174   5.961   8.170
96604SOL     OW91708   7.535   0.839   2.218
96604SOL    HW191709   7.602   0.776   2.242
96604SOL    HW291710   7.579   0.924   2.226
96605SOL     OW91711  14.461   2.541  12.877
96605SOL    HW191712  14.368   2.524  12.892
96605SOL    HW291713  14.500   2.538  12.964
96606SOL     OW91714   4.372   7.828   3.122
96606SOL    HW191715   4.300   7.831   3.185
96606SOL    HW291716   4.360   7.907   3.069
96607SOL     OW91717   2.717   5.311   8.458
96607SOL    HW191718   2.741   5.385   8.515
96607SOL    HW291719   2.800   5.269   8.438
96608SOL     OW91720   3.839   8.692   1.995
96608SOL    HW191721   3.829   8.603   1.963
96608SOL    HW291722   3.820   8.747   1.918
96609SOL     OW91723   4.439   9.388  12.258
96609SOL    HW191724   4.529   9.411  12.283
96609SOL    HW291725   4.404   9.467  12.218
96610SOL     OW91726   9.576   3.633  10.613
96610SOL    HW191727   9.636   3.633  10.538
96610SOL    HW291728   9.508   3.571  10.588
96611SOL     OW91729  13.474   6.258   5.581
96611SOL    HW191730  13.461   6.322   5.651
96611SOL    HW291731  13.503   6.179   5.627
96612SOL     OW91732   6.909   5.180   5.401
96612SOL    HW191733   6.930   5.228   5.481
96612SOL    HW291734   6.820   5.147   5.414
96613SOL     OW91735   1.885   1.186   5.387
96613SOL    HW191736   1.946   1.113   5.375
96613SOL    HW291737   1.894   1.239   5.308
96614SOL     OW91738  14.545   7.553   1.193
96614SOL    HW191739  14.452   7.550   1.218
96614SOL    HW291740  14.550   7.495   1.117
96615SOL     OW91741  12.638   3.616   1.811
96615SOL    HW191742  12.608   3.679   1.877
96615SOL    HW291743  12.638   3.532   1.857
96616SOL     OW91744   5.224   5.343   1.230
96616SOL    HW191745   5.141   5.327   1.276
96616SOL    HW291746   5.202   5.334   1.138
96617SOL     OW91747  14.519   6.296   3.554
96617SOL    HW191748  14.485   6.245   3.628
96617SOL    HW291749  14.609   6.266   3.544
96618SOL     OW91750   9.611   7.281   2.212
96618SOL    HW191751   9.687   7.234   2.176
96618SOL    HW291752   9.608   7.253   2.303
96619SOL     OW91753   8.979  14.823   3.653
96619SOL    HW191754   8.940  14.736   3.654
96619SOL    HW291755   9.074  14.806   3.657
96620SOL     OW91756   3.834   9.850   6.345
96620SOL    HW191757   3.920   9.890   6.340
96620SOL    HW291758   3.849   9.766   6.389
96621SOL     OW91759   8.004  14.243  14.755
96621SOL    HW191760   7.915  14.222  14.728
96621SOL    HW291761   7.996  14.269  14.847
96622SOL     OW91762   3.689   5.926  13.277
96622SOL    HW191763   3.714   5.984  13.205
96622SOL    HW291764   3.751   5.854  13.272
96623SOL     OW91765   8.499   2.788  11.222
96623SOL    HW191766   8.493   2.846  11.298
96623SOL    HW291767   8.565   2.723  11.247
96624SOL     OW91768   9.080   4.011  13.475
96624SOL    HW191769   9.015   4.034  13.409
96624SOL    HW291770   9.128   4.092  13.491
96625SOL     OW91771   1.870   8.520   8.455
96625SOL    HW191772   1.936   8.571   8.502
96625SOL    HW291773   1.915   8.440   8.428
96626SOL     OW91774   8.016   3.098  12.226
96626SOL    HW191775   7.974   3.099  12.312
96626SOL    HW291776   8.033   3.005  12.209
96627SOL     OW91777  14.209   4.375  13.556
96627SOL    HW191778  14.218   4.441  13.488
96627SOL    HW291779  14.265   4.303  13.529
96628SOL     OW91780   2.506  11.313   5.327
96628SOL    HW191781   2.430  11.369   5.308
96628SOL    HW291782   2.554  11.361   5.394
96629SOL     OW91783   5.459  12.220   0.025
96629SOL    HW191784   5.490  12.163   0.095
96629SOL    HW291785   5.383  12.265   0.063
96630SOL     OW91786  11.781   9.754   5.440
96630SOL    HW191787  11.710   9.693   5.419
96630SOL    HW291788  11.752   9.797   5.521
96631SOL     OW91789   8.457  12.934   4.876
96631SOL    HW191790   8.512  12.861   4.904
96631SOL    HW291791   8.417  12.967   4.956
96632SOL     OW91792  13.383   1.168   7.825
96632SOL    HW191793  13.304   1.144   7.874
96632SOL    HW291794  13.357   1.243   7.773
96633SOL     OW91795   8.582   7.896   2.306
96633SOL    HW191796   8.538   7.920   2.224
96633SOL    HW291797   8.545   7.810   2.328
96634SOL     OW91798  14.357   6.499  11.992
96634SOL    HW191799  14.425   6.446  11.950
96634SOL    HW291800  14.390   6.514  12.080
96635SOL     OW91801  11.459   2.187   9.457
96635SOL    HW191802  11.476   2.093   9.454
96635SOL    HW291803  11.530   2.226   9.406
96636SOL     OW91804  12.541   6.214  14.182
96636SOL    HW191805  12.569   6.170  14.101
96636SOL    HW291806  12.495   6.293  14.151
96637SOL     OW91807  12.596   1.655   3.080
96637SOL    HW191808  12.506   1.635   3.107
96637SOL    HW291809  12.593   1.748   3.056
96638SOL     OW91810   1.357   4.393   4.472
96638SOL    HW191811   1.418   4.460   4.441
96638SOL    HW291812   1.397   4.359   4.552
96639SOL     OW91813   9.389  10.222  11.307
96639SOL    HW191814   9.348  10.169  11.238
96639SOL    HW291815   9.446  10.282  11.260
96640SOL     OW91816   7.518   0.121  10.133
96640SOL    HW191817   7.459   0.095  10.062
96640SOL    HW291818   7.512   0.049  10.196
96641SOL     OW91819  12.035   4.845   8.719
96641SOL    HW191820  12.095   4.771   8.735
96641SOL    HW291821  11.959   4.805   8.677
96642SOL     OW91822   7.629   4.493   5.802
96642SOL    HW191823   7.573   4.554   5.850
96642SOL    HW291824   7.615   4.515   5.710
96643SOL     OW91825   4.914  13.369  12.146
96643SOL    HW191826   4.819  13.355  12.144
96643SOL    HW291827   4.925  13.464  12.143
96644SOL     OW91828   3.884   6.026  14.145
96644SOL    HW191829   3.958   6.079  14.175
96644SOL    HW291830   3.811   6.087  14.142
96645SOL     OW91831   7.921   7.141   7.417
96645SOL    HW191832   7.990   7.136   7.483
96645SOL    HW291833   7.857   7.074   7.443
96646SOL     OW91834  10.632   0.471  12.830
96646SOL    HW191835  10.605   0.399  12.888
96646SOL    HW291836  10.624   0.549  12.883
96647SOL     OW91837   5.579   4.426   6.223
96647SOL    HW191838   5.645   4.495   6.231
96647SOL    HW291839   5.517   4.443   6.294
96648SOL     OW91840   9.549  11.367  10.084
96648SOL    HW191841   9.532  11.273  10.080
96648SOL    HW291842   9.496  11.397  10.158
96649SOL     OW91843   9.225   3.369   6.373
96649SOL    HW191844   9.286   3.396   6.441
96649SOL    HW291845   9.279   3.358   6.295
96650SOL     OW91846   9.847   9.570  13.334
96650SOL    HW191847   9.783   9.511  13.375
96650SOL    HW291848   9.799   9.652  13.322
96651SOL     OW91849   8.972   0.386  10.940
96651SOL    HW191850   9.045   0.441  10.913
96651SOL    HW291851   8.954   0.330  10.864
96652SOL     OW91852  11.076   0.460   8.223
96652SOL    HW191853  11.104   0.458   8.315
96652SOL    HW291854  11.041   0.549   8.211
96653SOL     OW91855   3.633   5.341  13.617
96653SOL    HW191856   3.595   5.266  13.663
96653SOL    HW291857   3.607   5.329  13.526
96654SOL     OW91858  10.576  10.720   9.850
96654SOL    HW191859  10.617  10.683   9.772
96654SOL    HW291860  10.607  10.664   9.922
96655SOL     OW91861  14.113  12.341   9.263
96655SOL    HW191862  14.079  12.324   9.350
96655SOL    HW291863  14.043  12.315   9.203
96656SOL     OW91864   7.874   6.521   3.416
96656SOL    HW191865   7.924   6.511   3.497
96656SOL    HW291866   7.884   6.437   3.371
96657SOL     OW91867  13.917  10.870  10.855
96657SOL    HW191868  13.973  10.922  10.798
96657SOL    HW291869  13.838  10.924  10.866
96658SOL     OW91870   3.913   9.578  12.231
96658SOL    HW191871   3.997   9.579  12.184
96658SOL    HW291872   3.855   9.631  12.176
96659SOL     OW91873   8.069  12.748  11.858
96659SOL    HW191874   7.995  12.749  11.918
96659SOL    HW291875   8.108  12.661  11.868
96660SOL     OW91876   3.248   2.342  13.376
96660SOL    HW191877   3.257   2.305  13.288
96660SOL    HW291878   3.173   2.295  13.414
96661SOL     OW91879  10.251   2.293   0.593
96661SOL    HW191880  10.182   2.258   0.649
96661SOL    HW291881  10.329   2.243   0.617
96662SOL     OW91882   5.145   3.720  12.527
96662SOL    HW191883   5.230   3.754  12.499
96662SOL    HW291884   5.114   3.668  12.453
96663SOL     OW91885   2.453  10.409  11.682
96663SOL    HW191886   2.484  10.319  11.679
96663SOL    HW291887   2.520  10.455  11.734
96664SOL     OW91888  13.912   7.729   9.571
96664SOL    HW191889  13.882   7.782   9.497
96664SOL    HW291890  13.999   7.764   9.592
96665SOL     OW91891  10.596   7.141   5.098
96665SOL    HW191892  10.658   7.176   5.163
96665SOL    HW291893  10.640   7.062   5.065
96666SOL     OW91894   5.550  10.801   8.895
96666SOL    HW191895   5.504  10.780   8.976
96666SOL    HW291896   5.541  10.723   8.840
96667SOL     OW91897  10.842   2.562  13.923
96667SOL    HW191898  10.746   2.556  13.922
96667SOL    HW291899  10.863   2.616  13.847
96668SOL     OW91900  13.676   4.412  12.322
96668SOL    HW191901  13.668   4.507  12.317
96668SOL    HW291902  13.599   4.379  12.277
96669SOL     OW91903   3.080   5.218  14.348
96669SOL    HW191904   3.058   5.216  14.255
96669SOL    HW291905   3.094   5.311  14.367
96670SOL     OW91906   0.815   6.978  13.198
96670SOL    HW191907   0.886   6.964  13.134
96670SOL    HW291908   0.750   7.029  13.150
96671SOL     OW91909   9.207   9.099   9.129
96671SOL    HW191910   9.265   9.067   9.061
96671SOL    HW291911   9.257   9.168   9.173
96672SOL     OW91912   3.197  13.778  12.589
96672SOL    HW191913   3.224  13.772  12.497
96672SOL    HW291914   3.257  13.843  12.627
96673SOL     OW91915   4.262  11.060   0.834
96673SOL    HW191916   4.186  11.047   0.777
96673SOL    HW291917   4.267  11.155   0.845
96674SOL     OW91918  12.231  10.902   7.631
96674SOL    HW191919  12.164  10.890   7.699
96674SOL    HW291920  12.209  10.986   7.590
96675SOL     OW91921   6.596   4.622  10.076
96675SOL    HW191922   6.508   4.585  10.068
96675SOL    HW291923   6.648   4.572  10.012
96676SOL     OW91924   4.720   5.785  12.928
96676SOL    HW191925   4.641   5.749  12.968
96676SOL    HW291926   4.787   5.777  12.996
96677SOL     OW91927  14.320   5.104   0.669
96677SOL    HW191928  14.261   5.042   0.626
96677SOL    HW291929  14.394   5.112   0.609
96678SOL     OW91930   8.922   1.262   4.686
96678SOL    HW191931   8.864   1.272   4.611
96678SOL    HW291932   9.003   1.305   4.660
96679SOL     OW91933   6.680   3.679  11.857
96679SOL    HW191934   6.656   3.704  11.947
96679SOL    HW291935   6.739   3.749  11.828
96680SOL     OW91936   3.520   6.476   5.046
96680SOL    HW191937   3.565   6.415   4.987
96680SOL    HW291938   3.451   6.515   4.992
96681SOL     OW91939   9.487   3.447  11.873
96681SOL    HW191940   9.557   3.466  11.810
96681SOL    HW291941   9.531   3.408  11.948
96682SOL     OW91942  12.275   2.917  14.274
96682SOL    HW191943  12.182   2.909  14.255
96682SOL    HW291944  12.280   2.932  14.369
96683SOL     OW91945   9.220   2.783   0.878
96683SOL    HW191946   9.144   2.785   0.936
96683SOL    HW291947   9.213   2.865   0.828
96684SOL     OW91948  13.527  13.556   4.066
96684SOL    HW191949  13.571  13.531   4.147
96684SOL    HW291950  13.456  13.613   4.094
96685SOL     OW91951   7.413   9.500   9.634
96685SOL    HW191952   7.357   9.527   9.707
96685SOL    HW291953   7.446   9.582   9.597
96686SOL     OW91954   5.543  12.805  12.429
96686SOL    HW191955   5.638  12.799  12.435
96686SOL    HW291956   5.510  12.740  12.490
96687SOL     OW91957   3.211   4.484  13.501
96687SOL    HW191958   3.293   4.435  13.494
96687SOL    HW291959   3.236   4.568  13.538
96688SOL     OW91960   8.952   1.606   2.045
96688SOL    HW191961   8.900   1.562   1.978
96688SOL    HW291962   9.005   1.669   1.995
96689SOL     OW91963   4.862   8.134   0.749
96689SOL    HW191964   4.889   8.111   0.838
96689SOL    HW291965   4.852   8.050   0.704
96690SOL     OW91966  10.902   2.598   7.715
96690SOL    HW191967  10.837   2.558   7.774
96690SOL    HW291968  10.895   2.692   7.732
96691SOL     OW91969  14.426  11.339  11.845
96691SOL    HW191970  14.508  11.372  11.880
96691SOL    HW291971  14.448  11.305  11.758
96692SOL     OW91972  14.025   2.384   8.747
96692SOL    HW191973  14.034   2.370   8.842
96692SOL    HW291974  13.997   2.298   8.713
96693SOL     OW91975   2.937   7.265  12.165
96693SOL    HW191976   2.953   7.297  12.254
96693SOL    HW291977   2.935   7.170  12.174
96694SOL     OW91978   0.404  13.581   2.951
96694SOL    HW191979   0.444  13.495   2.939
96694SOL    HW291980   0.472  13.635   2.991
96695SOL     OW91981   9.687   3.953  10.525
96695SOL    HW191982   9.693   3.957  10.430
96695SOL    HW291983   9.597   3.929  10.544
96696SOL     OW91984  10.128  13.549  11.976
96696SOL    HW191985  10.079  13.498  12.041
96696SOL    HW291986  10.211  13.568  12.018
96697SOL     OW91987  10.930   8.404  10.205
96697SOL    HW191988  10.875   8.330  10.231
96697SOL    HW291989  10.961   8.441  10.287
96698SOL     OW91990   1.735  13.816   8.439
96698SOL    HW191991   1.782  13.818   8.522
96698SOL    HW291992   1.682  13.895   8.439
96699SOL     OW91993   2.688   7.926   4.849
96699SOL    HW191994   2.611   7.978   4.823
96699SOL    HW291995   2.695   7.940   4.943
96700SOL     OW91996  13.641   2.826   5.694
96700SOL    HW191997  13.674   2.781   5.772
96700SOL    HW291998  13.572   2.769   5.660
96701SOL     OW91999  10.605   3.472  14.156
96701SOL    HW192000  10.579   3.560  14.130
96701SOL    HW292001  10.523   3.428  14.178
96702SOL     OW92002  13.933  10.983  14.855
96702SOL    HW192003  13.874  11.008   0.058
96702SOL    HW292004  13.908  11.039  14.782
96703SOL     OW92005   8.393  13.811   5.628
96703SOL    HW192006   8.472  13.845   5.669
96703SOL    HW292007   8.416  13.799   5.536
96704SOL     OW92008   3.938  13.684   8.677
96704SOL    HW192009   3.924  13.600   8.633
96704SOL    HW292010   3.982  13.738   8.612
96705SOL     OW92011   7.941  11.492   9.307
96705SOL    HW192012   8.016  11.551   9.302
96705SOL    HW292013   7.903  11.508   9.394
96706SOL     OW92014   7.925   5.488   9.553
96706SOL    HW192015   7.984   5.413   9.546
96706SOL    HW292016   7.854   5.458   9.610
96707SOL     OW92017  13.810  11.258  10.301
96707SOL    HW192018  13.815  11.353  10.310
96707SOL    HW292019  13.862  11.224  10.374
96708SOL     OW92020   6.358   6.932   7.204
96708SOL    HW192021   6.400   6.849   7.227
96708SOL    HW292022   6.264   6.911   7.204
96709SOL     OW92023  11.442  13.904   4.322
96709SOL    HW192024  11.407  13.934   4.238
96709SOL    HW292025  11.495  13.827   4.299
96710SOL     OW92026  10.113  12.516   6.087
96710SOL    HW192027  10.037  12.564   6.052
96710SOL    HW292028  10.172  12.506   6.013
96711SOL     OW92029  12.008   7.815  14.645
96711SOL    HW192030  12.064   7.751  14.602
96711SOL    HW292031  12.060   7.895  14.650
96712SOL     OW92032   4.691  11.855   7.370
96712SOL    HW192033   4.677  11.949   7.368
96712SOL    HW292034   4.604  11.817   7.368
96713SOL     OW92035  14.611   7.891   6.733
96713SOL    HW192036  14.683   7.881   6.672
96713SOL    HW292037  14.605   7.806   6.777
96714SOL     OW92038   3.457   3.102  14.124
96714SOL    HW192039   3.540   3.119  14.169
96714SOL    HW292040   3.405   3.180  14.139
96715SOL     OW92041   9.778   5.787   5.337
96715SOL    HW192042   9.737   5.864   5.377
96715SOL    HW292043   9.717   5.715   5.354
96716SOL     OW92044   9.974  14.405   3.012
96716SOL    HW192045   9.928  14.348   2.950
96716SOL    HW292046   9.922  14.399   3.093
96717SOL     OW92047   4.227   4.748   2.844
96717SOL    HW192048   4.132   4.742   2.842
96717SOL    HW292049   4.246   4.841   2.831
96718SOL     OW92050   5.042   8.776   0.661
96718SOL    HW192051   5.122   8.725   0.666
96718SOL    HW292052   4.986   8.739   0.730
96719SOL     OW92053  10.409   2.855  13.242
96719SOL    HW192054  10.361   2.784  13.198
96719SOL    HW292055  10.495   2.817  13.260
96720SOL     OW92056   1.105  14.828   1.466
96720SOL    HW192057   1.143  14.823   1.553
96720SOL    HW292058   1.011  14.838   1.481
96721SOL     OW92059   3.374  11.142   2.339
96721SOL    HW192060   3.279  11.139   2.326
96721SOL    HW292061   3.386  11.129   2.433
96722SOL     OW92062  10.091   2.892  14.446
96722SOL    HW192063  10.115   2.840  14.523
96722SOL    HW292064  10.020   2.948  14.476
96723SOL     OW92065   9.766   7.100   3.392
96723SOL    HW192066   9.835   7.082   3.457
96723SOL    HW292067   9.701   7.151   3.441
96724SOL     OW92068   0.066  10.368   2.579
96724SOL    HW192069   0.041  10.449   2.624
96724SOL    HW292070  14.851  10.326   2.557
96725SOL     OW92071  10.096  10.448  10.978
96725SOL    HW192072  10.067  10.376  10.921
96725SOL    HW292073  10.025  10.512  10.974
96726SOL     OW92074  13.092   8.711   4.442
96726SOL    HW192075  13.080   8.737   4.533
96726SOL    HW292076  13.088   8.793   4.392
96727SOL     OW92077  12.187   3.852  13.011
96727SOL    HW192078  12.166   3.940  13.044
96727SOL    HW292079  12.217   3.867  12.921
96728SOL     OW92080   5.793   0.330   5.582
96728SOL    HW192081   5.738   0.406   5.561
96728SOL    HW292082   5.731   0.263   5.610
96729SOL     OW92083   3.119  13.136  10.634
96729SOL    HW192084   3.036  13.094  10.656
96729SOL    HW292085   3.095  13.206  10.573
96730SOL     OW92086  10.899   1.672   5.225
96730SOL    HW192087  10.992   1.695   5.231
96730SOL    HW292088  10.884   1.658   5.132
96731SOL     OW92089   0.132   9.417  14.787
96731SOL    HW192090   0.102   9.344  14.732
96731SOL    HW292091   0.210   9.383  14.831
96732SOL     OW92092  12.798   9.839   7.745
96732SOL    HW192093  12.839   9.806   7.665
96732SOL    HW292094  12.728   9.776   7.763
96733SOL     OW92095   0.283  11.150   1.508
96733SOL    HW192096   0.206  11.205   1.521
96733SOL    HW292097   0.300  11.154   1.414
96734SOL     OW92098  10.492   3.868   7.530
96734SOL    HW192099  10.531   3.781   7.536
96734SOL    HW292100  10.416   3.865   7.588
96735SOL     OW92101   2.850   6.285   4.080
96735SOL    HW192102   2.848   6.249   3.991
96735SOL    HW292103   2.863   6.209   4.137
96736SOL     OW92104  12.443  12.389   4.256
96736SOL    HW192105  12.515  12.441   4.221
96736SOL    HW292106  12.364  12.434   4.227
96737SOL     OW92107   3.598  10.703  12.776
96737SOL    HW192108   3.578  10.623  12.726
96737SOL    HW292109   3.600  10.772  12.710
96738SOL     OW92110   0.961  14.611  14.590
96738SOL    HW192111   1.057  14.613  14.585
96738SOL    HW292112   0.937  14.700  14.614
96739SOL     OW92113   7.138  10.590  12.969
96739SOL    HW192114   7.107  10.591  13.060
96739SOL    HW292115   7.129  10.498  12.943
96740SOL     OW92116  12.394   9.245   4.494
96740SOL    HW192117  12.378   9.303   4.420
96740SOL    HW292118  12.362   9.294   4.570
96741SOL     OW92119  12.613  12.996   0.990
96741SOL    HW192120  12.539  12.945   1.023
96741SOL    HW292121  12.641  12.948   0.912
96742SOL     OW92122   6.828  11.619   0.092
96742SOL    HW192123   6.838  11.712   0.069
96742SOL    HW292124   6.824  11.574   0.008
96743SOL     OW92125   1.130   7.937  14.561
96743SOL    HW192126   1.224   7.928  14.581
96743SOL    HW292127   1.115   8.031  14.565
96744SOL     OW92128   0.896   4.564  14.411
96744SOL    HW192129   0.974   4.549  14.464
96744SOL    HW292130   0.847   4.481  14.417
96745SOL     OW92131   6.681  13.650   2.422
96745SOL    HW192132   6.604  13.706   2.415
96745SOL    HW292133   6.672  13.608   2.508
96746SOL     OW92134   9.804   8.672   3.401
96746SOL    HW192135   9.733   8.643   3.344
96746SOL    HW292136   9.761   8.703   3.481
96747SOL     OW92137   1.136   8.965  14.857
96747SOL    HW192138   1.174   8.882  14.826
96747SOL    HW292139   1.193   8.991   0.061
96748SOL     OW92140  13.343  14.296   2.859
96748SOL    HW192141  13.251  14.293   2.888
96748SOL    HW292142  13.393  14.297   2.940
96749SOL     OW92143   8.441  11.494  13.308
96749SOL    HW192144   8.365  11.515  13.361
96749SOL    HW292145   8.515  11.505  13.367
96750SOL     OW92146   8.787  11.251   3.615
96750SOL    HW192147   8.706  11.303   3.614
96750SOL    HW292148   8.778  11.193   3.690
96751SOL     OW92149   6.830  14.414  10.854
96751SOL    HW192150   6.846  14.324  10.826
96751SOL    HW292151   6.890  14.427  10.927
96752SOL     OW92152  12.295  14.438  11.336
96752SOL    HW192153  12.269  14.529  11.351
96752SOL    HW292154  12.387  14.435  11.362
96753SOL     OW92155   6.032  13.069   7.996
96753SOL    HW192156   6.073  13.002   7.941
96753SOL    HW292157   6.083  13.148   7.981
96754SOL     OW92158   2.594  10.967  14.062
96754SOL    HW192159   2.657  10.919  14.008
96754SOL    HW292160   2.511  10.956  14.017
96755SOL     OW92161   7.919  13.543   7.582
96755SOL    HW192162   7.935  13.452   7.560
96755SOL    HW292163   7.833  13.543   7.624
96756SOL     OW92164  12.699  10.994   8.130
96756SOL    HW192165  12.768  10.933   8.154
96756SOL    HW292166  12.713  11.011   8.036
96757SOL     OW92167  13.510   6.485   4.802
96757SOL    HW192168  13.567   6.416   4.767
96757SOL    HW292169  13.453   6.508   4.730
96758SOL     OW92170   7.332   5.321   7.236
96758SOL    HW192171   7.371   5.286   7.316
96758SOL    HW292172   7.287   5.401   7.263
96759SOL     OW92173   4.828   3.556  12.862
96759SOL    HW192174   4.891   3.603  12.917
96759SOL    HW292175   4.743   3.593  12.886
96760SOL     OW92176   4.165  14.382   0.064
96760SOL    HW192177   4.078  14.393   0.026
96760SOL    HW292178   4.181  14.287   0.060
96761SOL     OW92179   3.902   1.260   3.304
96761SOL    HW192180   3.906   1.344   3.349
96761SOL    HW292181   3.883   1.282   3.213
96762SOL     OW92182   6.456   4.611   2.292
96762SOL    HW192183   6.536   4.661   2.306
96762SOL    HW292184   6.485   4.532   2.246
96763SOL     OW92185   0.138   7.088  12.664
96763SOL    HW192186   0.131   7.135  12.747
96763SOL    HW292187   0.076   7.015  12.672
96764SOL     OW92188   4.547   0.022   7.348
96764SOL    HW192189   4.639  14.863   7.350
96764SOL    HW292190   4.549   0.114   7.320
96765SOL     OW92191   7.260  11.626  11.317
96765SOL    HW192192   7.209  11.548  11.339
96765SOL    HW292193   7.216  11.697  11.364
96766SOL     OW92194  11.587   1.268   3.231
96766SOL    HW192195  11.556   1.306   3.313
96766SOL    HW292196  11.510   1.265   3.174
96767SOL     OW92197   9.627   6.694   6.228
96767SOL    HW192198   9.653   6.616   6.276
96767SOL    HW292199   9.585   6.661   6.149
96768SOL     OW92200   7.252   9.269   1.686
96768SOL    HW192201   7.209   9.201   1.738
96768SOL    HW292202   7.307   9.316   1.750
96769SOL     OW92203   4.011  12.134   7.146
96769SOL    HW192204   4.068  12.079   7.200
96769SOL    HW292205   4.067  12.161   7.073
96770SOL     OW92206  12.418   7.272   7.406
96770SOL    HW192207  12.407   7.177   7.404
96770SOL    HW292208  12.427   7.296   7.314
96771SOL     OW92209  10.202   0.026   7.798
96771SOL    HW192210  10.252   0.004   7.719
96771SOL    HW292211  10.188   0.120   7.793
96772SOL     OW92212   8.231   2.493  13.242
96772SOL    HW192213   8.223   2.557  13.313
96772SOL    HW292214   8.146   2.497  13.197
96773SOL     OW92215   0.616   0.396   8.343
96773SOL    HW192216   0.634   0.475   8.293
96773SOL    HW292217   0.521   0.394   8.350
96774SOL     OW92218   0.666  12.959   8.462
96774SOL    HW192219   0.614  13.039   8.461
96774SOL    HW292220   0.657  12.926   8.552
96775SOL     OW92221  13.988   3.400   0.649
96775SOL    HW192222  13.977   3.310   0.618
96775SOL    HW292223  14.006   3.391   0.742
96776SOL     OW92224  11.339  12.933  13.531
96776SOL    HW192225  11.297  12.868  13.475
96776SOL    HW292226  11.314  13.018  13.493
96777SOL     OW92227   9.840   4.009  13.662
96777SOL    HW192228   9.881   4.080  13.711
96777SOL    HW292229   9.907   3.942  13.657
96778SOL     OW92230   0.245  10.813   5.012
96778SOL    HW192231   0.246  10.762   4.930
96778SOL    HW292232   0.244  10.904   4.983
96779SOL     OW92233   7.213   9.482   6.427
96779SOL    HW192234   7.220   9.438   6.343
96779SOL    HW292235   7.129   9.454   6.462
96780SOL     OW92236  10.387   8.459  12.085
96780SOL    HW192237  10.459   8.499  12.134
96780SOL    HW292238  10.326   8.427  12.152
96781SOL     OW92239   5.748   3.603   5.683
96781SOL    HW192240   5.767   3.614   5.590
96781SOL    HW292241   5.723   3.691   5.713
96782SOL     OW92242   3.681   2.599   9.241
96782SOL    HW192243   3.655   2.525   9.296
96782SOL    HW292244   3.771   2.619   9.268
96783SOL     OW92245   4.342   6.713  13.865
96783SOL    HW192246   4.366   6.657  13.792
96783SOL    HW292247   4.252   6.689  13.885
96784SOL     OW92248  10.307   6.483   1.244
96784SOL    HW192249  10.283   6.534   1.166
96784SOL    HW292250  10.282   6.393   1.222
96785SOL     OW92251   8.940   2.480  14.078
96785SOL    HW192252   8.903   2.550  14.023
96785SOL    HW292253   8.919   2.399  14.031
96786SOL     OW92254   1.646   4.018  12.323
96786SOL    HW192255   1.727   4.057  12.358
96786SOL    HW292256   1.598   3.990  12.400
96787SOL     OW92257  13.884   1.906  12.472
96787SOL    HW192258  13.944   1.938  12.539
96787SOL    HW292259  13.827   1.980  12.452
96788SOL     OW92260  14.097  13.152   0.785
96788SOL    HW192261  14.106  13.080   0.848
96788SOL    HW292262  14.002  13.165   0.778
96789SOL     OW92263   2.862  11.634   3.400
96789SOL    HW192264   2.810  11.561   3.365
96789SOL    HW292265   2.917  11.595   3.467
96790SOL     OW92266  13.697   1.026   8.844
96790SOL    HW192267  13.752   0.949   8.858
96790SOL    HW292268  13.650   1.037   8.927
96791SOL     OW92269   9.336  10.738   0.138
96791SOL    HW192270   9.298  10.826   0.137
96791SOL    HW292271   9.367  10.724   0.048
96792SOL     OW92272   4.048   5.521   8.649
96792SOL    HW192273   4.039   5.433   8.687
96792SOL    HW292274   4.104   5.507   8.572
96793SOL     OW92275   4.739   1.711  11.509
96793SOL    HW192276   4.676   1.654  11.465
96793SOL    HW292277   4.789   1.751  11.438
96794SOL     OW92278   8.078   3.239   6.238
96794SOL    HW192279   8.142   3.254   6.308
96794SOL    HW292280   8.013   3.182   6.278
96795SOL     OW92281  10.954  10.459   5.978
96795SOL    HW192282  10.934  10.498   6.063
96795SOL    HW292283  10.883  10.396   5.964
96796SOL     OW92284   7.140   6.815   2.586
96796SOL    HW192285   7.186   6.755   2.644
96796SOL    HW292286   7.198   6.891   2.577
96797SOL     OW92287  14.607   4.121   3.470
96797SOL    HW192288  14.534   4.163   3.516
96797SOL    HW292289  14.685   4.150   3.516
96798SOL     OW92290  11.141  13.926   5.816
96798SOL    HW192291  11.061  13.961   5.856
96798SOL    HW292292  11.119  13.915   5.723
96799SOL     OW92293   8.943   2.458   1.252
96799SOL    HW192294   8.929   2.376   1.300
96799SOL    HW292295   9.031   2.486   1.278
96800SOL     OW92296   5.492  12.934  11.678
96800SOL    HW192297   5.477  12.862  11.618
96800SOL    HW292298   5.427  13.000  11.654
96801SOL     OW92299  11.786   5.394   1.038
96801SOL    HW192300  11.757   5.378   1.128
96801SOL    HW292301  11.706   5.393   0.986
96802SOL     OW92302  11.059   7.383   4.910
96802SOL    HW192303  11.025   7.314   4.967
96802SOL    HW292304  11.015   7.369   4.826
96803SOL     OW92305  13.282  12.011   2.123
96803SOL    HW192306  13.246  12.091   2.160
96803SOL    HW292307  13.377  12.023   2.127
96804SOL     OW92308   0.941   3.896   4.914
96804SOL    HW192309   0.907   3.891   4.825
96804SOL    HW292310   0.874   3.854   4.968
96805SOL     OW92311   8.139   8.130   4.694
96805SOL    HW192312   8.096   8.205   4.652
96805SOL    HW292313   8.069   8.086   4.743
96806SOL     OW92314   8.369   0.672  10.874
96806SOL    HW192315   8.359   0.767  10.865
96806SOL    HW292316   8.337   0.637  10.791
96807SOL     OW92317   8.408   7.277  14.792
96807SOL    HW192318   8.467   7.201  14.801
96807SOL    HW292319   8.337   7.245  14.737
96808SOL     OW92320  10.884   0.521   0.244
96808SOL    HW192321  10.802   0.474   0.232
96808SOL    HW292322  10.883   0.590   0.177
96809SOL     OW92323  13.149  10.413   4.534
96809SOL    HW192324  13.168  10.404   4.441
96809SOL    HW292325  13.073  10.356   4.549
96810SOL     OW92326   7.542   7.131  10.483
96810SOL    HW192327   7.523   7.181  10.403
96810SOL    HW292328   7.537   7.040  10.455
96811SOL     OW92329  10.723   7.785   8.898
96811SOL    HW192330  10.681   7.780   8.984
96811SOL    HW292331  10.803   7.836   8.914
96812SOL     OW92332   2.024  11.521   2.072
96812SOL    HW192333   2.090  11.523   2.142
96812SOL    HW292334   1.996  11.612   2.063
96813SOL     OW92335   8.481   4.770   7.967
96813SOL    HW192336   8.390   4.747   7.986
96813SOL    HW292337   8.514   4.806   8.049
96814SOL     OW92338   9.357   0.113   1.103
96814SOL    HW192339   9.374   0.029   1.060
96814SOL    HW292340   9.268   0.135   1.077
96815SOL     OW92341   0.085  10.256   7.510
96815SOL    HW192342   0.068  10.165   7.532
96815SOL    HW292343   0.007  10.283   7.460
96816SOL     OW92344   3.749   7.854  10.915
96816SOL    HW192345   3.667   7.893  10.944
96816SOL    HW292346   3.725   7.768  10.881
96817SOL     OW92347   4.435   6.793   9.801
96817SOL    HW192348   4.476   6.756   9.880
96817SOL    HW292349   4.443   6.725   9.735
96818SOL     OW92350  13.407   2.189  12.221
96818SOL    HW192351  13.318   2.219  12.205
96818SOL    HW292352  13.415   2.107  12.172
96819SOL     OW92353  13.626  13.562   9.677
96819SOL    HW192354  13.583  13.511   9.608
96819SOL    HW292355  13.694  13.611   9.631
96820SOL     OW92356  12.005   3.033  11.010
96820SOL    HW192357  11.914   3.009  11.030
96820SOL    HW292358  11.998   3.115  10.962
96821SOL     OW92359   2.938  10.906  11.755
96821SOL    HW192360   3.008  10.971  11.752
96821SOL    HW292361   2.958  10.854  11.833
96822SOL     OW92362  10.279  13.800   7.627
96822SOL    HW192363  10.277  13.786   7.532
96822SOL    HW292364  10.220  13.733   7.663
96823SOL     OW92365   8.535   6.504   8.952
96823SOL    HW192366   8.611   6.491   8.895
96823SOL    HW292367   8.527   6.599   8.959
96824SOL     OW92368   4.707   9.595  10.312
96824SOL    HW192369   4.757   9.615  10.392
96824SOL    HW292370   4.616   9.614  10.336
96825SOL     OW92371   9.463  14.247   4.215
96825SOL    HW192372   9.431  14.331   4.247
96825SOL    HW292373   9.389  14.209   4.168
96826SOL     OW92374   1.211  14.765   1.977
96826SOL    HW192375   1.221  14.671   1.963
96826SOL    HW292376   1.186  14.800   1.891
96827SOL     OW92377   5.840   6.780   4.337
96827SOL    HW192378   5.884   6.801   4.420
96827SOL    HW292379   5.790   6.858   4.315
96828SOL     OW92380  11.997   8.847  11.357
96828SOL    HW192381  11.969   8.766  11.316
96828SOL    HW292382  11.916   8.888  11.387
96829SOL     OW92383   8.560  12.310   9.017
96829SOL    HW192384   8.515  12.336   9.097
96829SOL    HW292385   8.636  12.261   9.047
96830SOL     OW92386   3.604   8.726   1.232
96830SOL    HW192387   3.552   8.729   1.152
96830SOL    HW292388   3.563   8.658   1.285
96831SOL     OW92389  12.551   2.603  14.640
96831SOL    HW192390  12.513   2.567  14.559
96831SOL    HW292391  12.484   2.664  14.673
96832SOL     OW92392   6.379   5.122   6.584
96832SOL    HW192393   6.439   5.065   6.632
96832SOL    HW292394   6.428   5.147   6.506
96833SOL     OW92395  12.830   9.520   3.911
96833SOL    HW192396  12.743   9.530   3.872
96833SOL    HW292397  12.856   9.430   3.888
96834SOL     OW92398  11.924   1.998  11.076
96834SOL    HW192399  11.930   1.919  11.022
96834SOL    HW292400  11.936   2.070  11.015
96835SOL     OW92401  13.402   9.833  11.825
96835SOL    HW192402  13.397   9.767  11.895
96835SOL    HW292403  13.451   9.790  11.755
96836SOL     OW92404   6.116   7.569  13.730
96836SOL    HW192405   6.186   7.528  13.680
96836SOL    HW292406   6.122   7.662  13.709
96837SOL     OW92407   0.001   7.142   3.107
96837SOL    HW192408  14.789   7.109   3.067
96837SOL    HW292409   0.015   7.228   3.067
96838SOL     OW92410   2.392   6.088   5.332
96838SOL    HW192411   2.371   6.073   5.424
96838SOL    HW292412   2.428   6.005   5.301
96839SOL     OW92413   6.864  13.992   0.701
96839SOL    HW192414   6.798  14.059   0.718
96839SOL    HW292415   6.843  13.960   0.613
96840SOL     OW92416   1.592   9.651   3.336
96840SOL    HW192417   1.677   9.694   3.324
96840SOL    HW292418   1.581   9.645   3.431
96841SOL     OW92419   1.787  13.915   7.134
96841SOL    HW192420   1.791  13.819   7.139
96841SOL    HW292421   1.878  13.943   7.126
96842SOL     OW92422   2.943  11.048   3.941
96842SOL    HW192423   2.886  10.981   3.905
96842SOL    HW292424   2.931  11.124   3.884
96843SOL     OW92425  10.279  12.638   4.689
96843SOL    HW192426  10.266  12.587   4.609
96843SOL    HW292427  10.195  12.631   4.735
96844SOL     OW92428   1.888  12.362   6.843
96844SOL    HW192429   1.860  12.452   6.823
96844SOL    HW292430   1.807  12.318   6.871
96845SOL     OW92431   4.542  14.136  12.222
96845SOL    HW192432   4.635  14.133  12.245
96845SOL    HW292433   4.534  14.213  12.166
96846SOL     OW92434   1.627   0.648  14.321
96846SOL    HW192435   1.649   0.707  14.249
96846SOL    HW292436   1.531   0.655  14.328
96847SOL     OW92437   6.020  14.502   1.898
96847SOL    HW192438   5.968  14.581   1.887
96847SOL    HW292439   5.985  14.440   1.834
96848SOL     OW92440   7.936   9.720   2.104
96848SOL    HW192441   7.865   9.670   2.144
96848SOL    HW292442   7.921   9.811   2.131
96849SOL     OW92443   4.250  13.610   4.352
96849SOL    HW192444   4.307  13.686   4.341
96849SOL    HW292445   4.236  13.603   4.447
96850SOL     OW92446   4.444   4.396   1.285
96850SOL    HW192447   4.522   4.351   1.252
96850SOL    HW292448   4.376   4.379   1.221
96851SOL     OW92449  14.100  13.498   3.401
96851SOL    HW192450  14.025  13.516   3.457
96851SOL    HW292451  14.136  13.415   3.434
96852SOL     OW92452  14.342   6.811   2.980
96852SOL    HW192453  14.364   6.876   2.914
96852SOL    HW292454  14.427   6.773   3.005
96853SOL     OW92455   6.927   7.624  12.458
96853SOL    HW192456   6.864   7.557  12.431
96853SOL    HW292457   6.885   7.668  12.532
96854SOL     OW92458   0.468  13.494   8.599
96854SOL    HW192459   0.433  13.497   8.688
96854SOL    HW292460   0.520  13.574   8.590
96855SOL     OW92461   2.584   9.328   9.072
96855SOL    HW192462   2.592   9.271   9.148
96855SOL    HW292463   2.546   9.272   9.004
96856SOL     OW92464  10.318  11.471   5.543
96856SOL    HW192465  10.322  11.412   5.618
96856SOL    HW292466  10.330  11.558   5.581
96857SOL     OW92467   9.168   2.130   9.691
96857SOL    HW192468   9.241   2.109   9.632
96857SOL    HW292469   9.110   2.054   9.685
96858SOL     OW92470   1.083   6.538   4.978
96858SOL    HW192471   1.104   6.453   5.016
96858SOL    HW292472   1.158   6.593   5.000
96859SOL     OW92473   4.056   0.076  10.019
96859SOL    HW192474   4.083   0.080  10.111
96859SOL    HW292475   3.978   0.020  10.019
96860SOL     OW92476   8.497  13.025   9.895
96860SOL    HW192477   8.453  13.043   9.812
96860SOL    HW292478   8.590  13.028   9.873
96861SOL     OW92479   2.807   7.085   0.071
96861SOL    HW192480   2.854   7.164   0.094
96861SOL    HW292481   2.830   7.068  14.848
96862SOL     OW92482  13.600   8.275   2.294
96862SOL    HW192483  13.508   8.261   2.272
96862SOL    HW292484  13.605   8.265   2.389
96863SOL     OW92485   0.332   2.327   5.090
96863SOL    HW192486   0.412   2.282   5.117
96863SOL    HW292487   0.358   2.381   5.015
96864SOL     OW92488   6.167   1.922   9.780
96864SOL    HW192489   6.144   1.830   9.771
96864SOL    HW292490   6.246   1.932   9.728
96865SOL     OW92491   3.305  12.651  12.292
96865SOL    HW192492   3.274  12.635  12.203
96865SOL    HW292493   3.326  12.564  12.326
96866SOL     OW92494  11.431   2.365  11.514
96866SOL    HW192495  11.452   2.388  11.423
96866SOL    HW292496  11.463   2.275  11.523
96867SOL     OW92497   3.008   2.292   5.321
96867SOL    HW192498   3.023   2.279   5.227
96867SOL    HW292499   3.008   2.388   5.331
96868SOL     OW92500  12.403   1.389   5.105
96868SOL    HW192501  12.485   1.410   5.150
96868SOL    HW292502  12.430   1.353   5.021
96869SOL     OW92503  10.282   6.109  12.949
96869SOL    HW192504  10.343   6.118  12.876
96869SOL    HW292505  10.302   6.023  12.987
96870SOL     OW92506   9.890   8.663  10.226
96870SOL    HW192507   9.830   8.589  10.229
96870SOL    HW292508   9.881   8.698  10.138
96871SOL     OW92509   1.490   8.847  12.448
96871SOL    HW192510   1.539   8.889  12.377
96871SOL    HW292511   1.482   8.756  12.421
96872SOL     OW92512   8.154   6.170  13.130
96872SOL    HW192513   8.235   6.183  13.080
96872SOL    HW292514   8.089   6.144  13.065
96873SOL     OW92515  13.606   0.562  12.325
96873SOL    HW192516  13.651   0.637  12.364
96873SOL    HW292517  13.595   0.585  12.233
96874SOL     OW92518   9.895  14.428  12.296
96874SOL    HW192519   9.876  14.352  12.241
96874SOL    HW292520   9.828  14.425  12.364
96875SOL     OW92521   8.244   0.209   2.062
96875SOL    HW192522   8.225   0.199   2.156
96875SOL    HW292523   8.242   0.304   2.048
96876SOL     OW92524  12.115  14.169  10.310
96876SOL    HW192525  12.061  14.105  10.264
96876SOL    HW292526  12.086  14.254  10.276
96877SOL     OW92527  14.596   5.755  11.755
96877SOL    HW192528  14.601   5.815  11.680
96877SOL    HW292529  14.687   5.743  11.782
96878SOL     OW92530  13.631  13.552   0.785
96878SOL    HW192531  13.701  13.560   0.720
96878SOL    HW292532  13.558  13.602   0.749
96879SOL     OW92533  10.011   6.515  13.579
96879SOL    HW192534   9.986   6.448  13.643
96879SOL    HW292535  10.087   6.477  13.533
96880SOL     OW92536   3.871   9.986   2.448
96880SOL    HW192537   3.929  10.057   2.421
96880SOL    HW292538   3.928   9.924   2.492
96881SOL     OW92539  12.421   7.627   8.892
96881SOL    HW192540  12.399   7.538   8.865
96881SOL    HW292541  12.464   7.617   8.977
96882SOL     OW92542   4.309  12.283   0.705
96882SOL    HW192543   4.399  12.281   0.736
96882SOL    HW292544   4.309  12.228   0.626
96883SOL     OW92545  12.380  13.188  12.430
96883SOL    HW192546  12.369  13.195  12.525
96883SOL    HW292547  12.461  13.140  12.418
96884SOL     OW92548  10.923   3.278   8.754
96884SOL    HW192549  10.999   3.249   8.704
96884SOL    HW292550  10.960   3.322   8.831
96885SOL     OW92551   0.537   7.087   4.827
96885SOL    HW192552   0.579   7.003   4.813
96885SOL    HW292553   0.561   7.112   4.916
96886SOL     OW92554   8.827  13.808   1.609
96886SOL    HW192555   8.847  13.759   1.689
96886SOL    HW292556   8.888  13.773   1.544
96887SOL     OW92557   0.778   9.560  13.165
96887SOL    HW192558   0.827   9.478  13.154
96887SOL    HW292559   0.837   9.617  13.214
96888SOL     OW92560   8.586   5.383   3.507
96888SOL    HW192561   8.542   5.402   3.424
96888SOL    HW292562   8.527   5.322   3.551
96889SOL     OW92563   3.239   8.032  10.375
96889SOL    HW192564   3.154   7.994  10.353
96889SOL    HW292565   3.251   8.012  10.468
96890SOL     OW92566   4.017  11.435  11.405
96890SOL    HW192567   4.070  11.363  11.439
96890SOL    HW292568   3.942  11.440  11.464
96891SOL     OW92569   5.767   6.638   2.041
96891SOL    HW192570   5.795   6.669   2.127
96891SOL    HW292571   5.734   6.549   2.057
96892SOL     OW92572   3.165  11.524  14.609
96892SOL    HW192573   3.105  11.456  14.579
96892SOL    HW292574   3.118  11.606  14.594
96893SOL     OW92575   1.235   7.531  13.336
96893SOL    HW192576   1.264   7.622  13.330
96893SOL    HW292577   1.283   7.495  13.410
96894SOL     OW92578   5.562   3.259  14.017
96894SOL    HW192579   5.510   3.179  14.024
96894SOL    HW292580   5.652   3.228  14.012
96895SOL     OW92581   0.872  14.803   2.892
96895SOL    HW192582   0.779  14.783   2.884
96895SOL    HW292583   0.907  14.788   2.804
96896SOL     OW92584   3.414   2.229  11.006
96896SOL    HW192585   3.408   2.194  10.917
96896SOL    HW292586   3.492   2.187  11.042
96897SOL     OW92587  12.866   5.735   9.495
96897SOL    HW192588  12.867   5.811   9.554
96897SOL    HW292589  12.927   5.673   9.535
96898SOL     OW92590  10.117   3.075   4.101
96898SOL    HW192591  10.082   3.032   4.023
96898SOL    HW292592  10.210   3.087   4.083
96899SOL     OW92593   2.802   0.519   7.567
96899SOL    HW192594   2.820   0.428   7.589
96899SOL    HW292595   2.864   0.540   7.497
96900SOL     OW92596   9.959  11.417   1.845
96900SOL    HW192597   9.881  11.373   1.810
96900SOL    HW292598   9.924  11.491   1.895
96901SOL     OW92599   8.618   0.528   8.273
96901SOL    HW192600   8.645   0.448   8.318
96901SOL    HW292601   8.682   0.539   8.203
96902SOL     OW92602   6.410   6.392   7.018
96902SOL    HW192603   6.468   6.420   7.089
96902SOL    HW292604   6.366   6.472   6.991
96903SOL     OW92605   4.906   1.882   1.043
96903SOL    HW192606   4.839   1.856   0.979
96903SOL    HW292607   4.856   1.916   1.117
96904SOL     OW92608   5.011   8.747  11.957
96904SOL    HW192609   5.004   8.792  12.041
96904SOL    HW292610   5.016   8.654  11.979
96905SOL     OW92611   6.791   8.177  10.490
96905SOL    HW192612   6.841   8.101  10.518
96905SOL    HW292613   6.762   8.217  10.571
96906SOL     OW92614   9.507   7.962  12.704
96906SOL    HW192615   9.479   8.036  12.758
96906SOL    HW292616   9.601   7.975  12.691
96907SOL     OW92617  14.416  13.283   3.493
96907SOL    HW192618  14.389  13.327   3.574
96907SOL    HW292619  14.512  13.292   3.492
96908SOL     OW92620  13.105  13.293   5.549
96908SOL    HW192621  13.112  13.367   5.489
96908SOL    HW292622  13.017  13.258   5.534
96909SOL     OW92623  14.658  12.678  10.429
96909SOL    HW192624  14.569  12.699  10.397
96909SOL    HW292625  14.708  12.660  10.349
96910SOL     OW92626   0.088   3.008  13.628
96910SOL    HW192627   0.054   3.027  13.540
96910SOL    HW292628   0.020   3.039  13.687
96911SOL     OW92629   5.653   6.095   9.719
96911SOL    HW192630   5.665   6.054   9.633
96911SOL    HW292631   5.559   6.088   9.735
96912SOL     OW92632   1.453   2.566  10.909
96912SOL    HW192633   1.488   2.483  10.876
96912SOL    HW292634   1.393   2.541  10.979
96913SOL     OW92635   9.922   8.740   7.543
96913SOL    HW192636   9.928   8.680   7.617
96913SOL    HW292637   9.881   8.819   7.580
96914SOL     OW92638   6.328   3.099   9.304
96914SOL    HW192639   6.301   3.190   9.309
96914SOL    HW292640   6.402   3.099   9.244
96915SOL     OW92641   9.179   6.689   1.146
96915SOL    HW192642   9.180   6.724   1.057
96915SOL    HW292643   9.133   6.755   1.198
96916SOL     OW92644   2.337   1.963   5.728
96916SOL    HW192645   2.250   1.982   5.694
96916SOL    HW292646   2.396   1.985   5.656
96917SOL     OW92647   9.391   7.778   6.997
96917SOL    HW192648   9.306   7.751   6.964
96917SOL    HW292649   9.450   7.706   6.973
96918SOL     OW92650  12.394   6.390   5.729
96918SOL    HW192651  12.341   6.470   5.731
96918SOL    HW292652  12.454   6.399   5.803
96919SOL     OW92653   1.844  12.209   0.359
96919SOL    HW192654   1.893  12.132   0.332
96919SOL    HW292655   1.849  12.210   0.454
96920SOL     OW92656   5.559  12.624   7.977
96920SOL    HW192657   5.576  12.568   7.901
96920SOL    HW292658   5.485  12.582   8.021
96921SOL     OW92659  13.121   0.691  10.741
96921SOL    HW192660  13.162   0.745  10.673
96921SOL    HW292661  13.143   0.601  10.717
96922SOL     OW92662   8.956   3.673  11.238
96922SOL    HW192663   8.924   3.761  11.219
96922SOL    HW292664   9.013   3.684  11.315
96923SOL     OW92665  12.914  12.530  14.399
96923SOL    HW192666  12.881  12.441  14.387
96923SOL    HW292667  13.001  12.518  14.438
96924SOL     OW92668   4.598   6.173  12.993
96924SOL    HW192669   4.505   6.158  13.006
96924SOL    HW292670   4.605   6.265  12.967
96925SOL     OW92671   9.949   0.654   8.032
96925SOL    HW192672   9.900   0.604   7.967
96925SOL    HW292673   9.985   0.588   8.091
96926SOL     OW92674   6.742   9.520   1.500
96926SOL    HW192675   6.771   9.572   1.575
96926SOL    HW292676   6.800   9.444   1.500
96927SOL     OW92677   4.912  12.563  13.347
96927SOL    HW192678   4.954  12.645  13.372
96927SOL    HW292679   4.839  12.554  13.408
96928SOL     OW92680   8.178  10.628  11.115
96928SOL    HW192681   8.120  10.582  11.054
96928SOL    HW292682   8.190  10.568  11.188
96929SOL     OW92683  11.341   4.346  10.668
96929SOL    HW192684  11.316   4.381  10.582
96929SOL    HW292685  11.267   4.291  10.693
96930SOL     OW92686   8.744   5.322   5.041
96930SOL    HW192687   8.835   5.344   5.023
96930SOL    HW292688   8.730   5.350   5.131
96931SOL     OW92689   6.075  13.759   3.634
96931SOL    HW192690   6.144  13.770   3.699
96931SOL    HW292691   6.065  13.665   3.624
96932SOL     OW92692   0.815  13.489   0.277
96932SOL    HW192693   0.883  13.484   0.344
96932SOL    HW292694   0.733  13.501   0.325
96933SOL     OW92695   2.620  13.889   3.558
96933SOL    HW192696   2.646  13.821   3.621
96933SOL    HW292697   2.577  13.955   3.612
96934SOL     OW92698  10.337   2.783  11.968
96934SOL    HW192699  10.337   2.868  11.923
96934SOL    HW292700  10.398   2.729  11.917
96935SOL     OW92701  14.555   7.578   1.743
96935SOL    HW192702  14.639   7.591   1.787
96935SOL    HW292703  14.578   7.567   1.650
96936SOL     OW92704   6.573   2.631  11.512
96936SOL    HW192705   6.666   2.607  11.518
96936SOL    HW292706   6.545   2.638  11.604
96937SOL     OW92707   6.478   7.596   0.974
96937SOL    HW192708   6.443   7.667   1.028
96937SOL    HW292709   6.534   7.640   0.910
96938SOL     OW92710  12.241   6.534  13.687
96938SOL    HW192711  12.300   6.470  13.727
96938SOL    HW292712  12.161   6.484  13.668
96939SOL     OW92713   1.950   5.749   9.193
96939SOL    HW192714   1.898   5.778   9.268
96939SOL    HW292715   1.912   5.665   9.169
96940SOL     OW92716  14.018  10.618   4.533
96940SOL    HW192717  13.945  10.654   4.584
96940SOL    HW292718  14.034  10.684   4.465
96941SOL     OW92719  13.640   7.314   4.731
96941SOL    HW192720  13.655   7.400   4.691
96941SOL    HW292721  13.557   7.285   4.693
96942SOL     OW92722   8.211  12.032  11.187
96942SOL    HW192723   8.227  11.948  11.144
96942SOL    HW292724   8.293  12.081  11.177
96943SOL     OW92725   4.734  12.570  13.775
96943SOL    HW192726   4.710  12.580  13.867
96943SOL    HW292727   4.830  12.572  13.775
96944SOL     OW92728   5.028   7.814  14.786
96944SOL    HW192729   4.942   7.774  14.770
96944SOL    HW292730   5.024   7.842   0.010
96945SOL     OW92731   7.108   0.158  12.979
96945SOL    HW192732   7.098   0.178  13.072
96945SOL    HW292733   7.030   0.105  12.958
96946SOL     OW92734  10.128  11.318   5.441
96946SOL    HW192735  10.048  11.366   5.420
96946SOL    HW292736  10.190  11.385   5.470
96947SOL     OW92737  10.470  10.027  10.151
96947SOL    HW192738  10.406   9.975  10.200
96947SOL    HW292739  10.465  10.114  10.190
96948SOL     OW92740  13.757  12.862  13.187
96948SOL    HW192741  13.801  12.942  13.159
96948SOL    HW292742  13.733  12.818  13.105
96949SOL     OW92743   8.103   0.699   2.084
96949SOL    HW192744   8.045   0.771   2.110
96949SOL    HW292745   8.054   0.620   2.104
96950SOL     OW92746   3.425  12.095   4.142
96950SOL    HW192747   3.448  12.121   4.053
96950SOL    HW292748   3.486  12.024   4.163
96951SOL     OW92749   3.935  12.800  10.026
96951SOL    HW192750   3.977  12.881   9.997
96951SOL    HW292751   3.958  12.736   9.957
96952SOL     OW92752   4.922   2.864  13.946
96952SOL    HW192753   5.008   2.850  13.905
96952SOL    HW292754   4.865   2.890  13.874
96953SOL     OW92755   4.201   9.839  14.137
96953SOL    HW192756   4.206   9.932  14.114
96953SOL    HW292757   4.220   9.793  14.055
96954SOL     OW92758   6.562   9.139  14.450
96954SOL    HW192759   6.626   9.077  14.485
96954SOL    HW292760   6.614   9.201  14.399
96955SOL     OW92761   1.134   1.843   5.585
96955SOL    HW192762   1.165   1.781   5.651
96955SOL    HW292763   1.138   1.794   5.503
96956SOL     OW92764  11.871   3.608   2.801
96956SOL    HW192765  11.897   3.607   2.709
96956SOL    HW292766  11.902   3.693   2.833
96957SOL     OW92767  13.948   5.704  11.630
96957SOL    HW192768  13.947   5.722  11.724
96957SOL    HW292769  13.993   5.620  11.622
96958SOL     OW92770   5.097   3.736   7.668
96958SOL    HW192771   5.103   3.723   7.573
96958SOL    HW292772   5.183   3.771   7.693
96959SOL     OW92773   4.727   9.480   2.649
96959SOL    HW192774   4.806   9.525   2.620
96959SOL    HW292775   4.666   9.550   2.672
96960SOL     OW92776  10.740  12.204   9.794
96960SOL    HW192777  10.680  12.180   9.724
96960SOL    HW292778  10.684  12.214   9.871
96961SOL     OW92779   7.646   0.873  10.827
96961SOL    HW192780   7.699   0.911  10.897
96961SOL    HW292781   7.586   0.814  10.873
96962SOL     OW92782  12.722   7.769   3.997
96962SOL    HW192783  12.747   7.854   3.960
96962SOL    HW292784  12.633   7.754   3.964
96963SOL     OW92785   9.450  12.427   4.820
96963SOL    HW192786   9.489  12.363   4.761
96963SOL    HW292787   9.523  12.479   4.853
96964SOL     OW92788   1.544   4.282   1.077
96964SOL    HW192789   1.625   4.333   1.071
96964SOL    HW292790   1.533   4.266   1.171
96965SOL     OW92791   7.386   1.682   1.099
96965SOL    HW192792   7.437   1.626   1.159
96965SOL    HW292793   7.418   1.658   1.012
96966SOL     OW92794  11.885   9.266   0.306
96966SOL    HW192795  11.935   9.347   0.296
96966SOL    HW292796  11.793   9.294   0.307
96967SOL     OW92797  13.462   1.236   2.315
96967SOL    HW192798  13.401   1.310   2.317
96967SOL    HW292799  13.431   1.178   2.384
96968SOL     OW92800   3.289   5.163   0.663
96968SOL    HW192801   3.330   5.100   0.722
96968SOL    HW292802   3.286   5.118   0.578
96969SOL     OW92803  14.810   5.457  14.603
96969SOL    HW192804   0.032   5.490  14.609
96969SOL    HW292805  14.793   5.420  14.689
96970SOL     OW92806   4.096   5.447   1.825
96970SOL    HW192807   4.052   5.517   1.873
96970SOL    HW292808   4.045   5.438   1.744
96971SOL     OW92809  14.468  11.797   0.730
96971SOL    HW192810  14.543  11.854   0.712
96971SOL    HW292811  14.507  11.715   0.761
96972SOL     OW92812   8.195  11.188  10.293
96972SOL    HW192813   8.262  11.147  10.346
96972SOL    HW292814   8.182  11.275  10.332
96973SOL     OW92815   5.129   1.801  10.630
96973SOL    HW192816   5.117   1.844  10.545
96973SOL    HW292817   5.180   1.863  10.681
96974SOL     OW92818   4.340  10.120   9.449
96974SOL    HW192819   4.278  10.057   9.413
96974SOL    HW292820   4.403  10.067   9.497
96975SOL     OW92821  10.934   1.508   7.330
96975SOL    HW192822  10.962   1.537   7.417
96975SOL    HW292823  10.840   1.492   7.340
96976SOL     OW92824   0.902   8.729  12.695
96976SOL    HW192825   0.853   8.654  12.663
96976SOL    HW292826   0.965   8.692  12.758
96977SOL     OW92827   1.870   4.517  11.584
96977SOL    HW192828   1.806   4.469  11.636
96977SOL    HW292829   1.819   4.579  11.534
96978SOL     OW92830   1.057   9.681   8.266
96978SOL    HW192831   1.059   9.640   8.352
96978SOL    HW292832   1.042   9.774   8.284
96979SOL     OW92833  13.890   5.316   5.348
96979SOL    HW192834  13.906   5.401   5.388
96979SOL    HW292835  13.820   5.277   5.400
96980SOL     OW92836   8.929  13.142  10.923
96980SOL    HW192837   8.879  13.217  10.956
96980SOL    HW292838   9.002  13.182  10.876
96981SOL     OW92839  14.345   2.850   4.875
96981SOL    HW192840  14.381   2.762   4.869
96981SOL    HW292841  14.391   2.889   4.949
96982SOL     OW92842   5.366   3.397  11.750
96982SOL    HW192843   5.380   3.482  11.793
96982SOL    HW292844   5.434   3.392  11.684
96983SOL     OW92845   5.255  11.738   4.727
96983SOL    HW192846   5.341  11.746   4.767
96983SOL    HW292847   5.260  11.657   4.676
96984SOL     OW92848   3.056   6.478   4.137
96984SOL    HW192849   2.994   6.411   4.167
96984SOL    HW292850   3.002   6.555   4.121
96985SOL     OW92851  10.452   5.685  14.042
96985SOL    HW192852  10.464   5.652  13.954
96985SOL    HW292853  10.532   5.736  14.060
96986SOL     OW92854  13.655  10.570   6.666
96986SOL    HW192855  13.697  10.620   6.736
96986SOL    HW292856  13.620  10.636   6.606
96987SOL     OW92857   6.328  11.787  10.675
96987SOL    HW192858   6.278  11.832  10.743
96987SOL    HW292859   6.281  11.808  10.594
96988SOL     OW92860  14.639   2.390   0.989
96988SOL    HW192861  14.615   2.451   0.920
96988SOL    HW292862  14.734   2.383   0.983
96989SOL     OW92863   5.658   1.194   6.208
96989SOL    HW192864   5.706   1.114   6.229
96989SOL    HW292865   5.716   1.243   6.149
96990SOL     OW92866  11.522   7.413  12.522
96990SOL    HW192867  11.447   7.428  12.580
96990SOL    HW292868  11.506   7.469  12.446
96991SOL     OW92869   6.386   9.613   7.344
96991SOL    HW192870   6.468   9.588   7.386
96991SOL    HW292871   6.387   9.568   7.259
96992SOL     OW92872  13.275  10.169  12.714
96992SOL    HW192873  13.350  10.228  12.711
96992SOL    HW292874  13.199  10.228  12.712
96993SOL     OW92875  11.890  12.910  14.272
96993SOL    HW192876  11.977  12.869  14.279
96993SOL    HW292877  11.839  12.847  14.220
96994SOL     OW92878   6.533  14.131   9.697
96994SOL    HW192879   6.516  14.150   9.789
96994SOL    HW292880   6.488  14.048   9.681
96995SOL     OW92881  11.484  11.085   3.521
96995SOL    HW192882  11.470  11.053   3.433
96995SOL    HW292883  11.403  11.133   3.542
96996SOL     OW92884   6.083   3.350   6.640
96996SOL    HW192885   5.999   3.323   6.602
96996SOL    HW292886   6.062   3.427   6.692
96997SOL     OW92887   7.807   4.482  12.327
96997SOL    HW192888   7.774   4.437  12.405
96997SOL    HW292889   7.892   4.517  12.354
96998SOL     OW92890  12.832   8.629  11.841
96998SOL    HW192891  12.773   8.605  11.913
96998SOL    HW292892  12.893   8.691  11.880
96999SOL     OW92893  11.092   8.745  13.626
96999SOL    HW192894  11.141   8.724  13.546
96999SOL    HW292895  11.042   8.666  13.645
97000SOL     OW92896   2.161   6.370   5.834
97000SOL    HW192897   2.190   6.409   5.917
97000SOL    HW292898   2.066   6.382   5.834
97001SOL     OW92899   5.815   5.349   4.155
97001SOL    HW192900   5.807   5.271   4.101
97001SOL    HW292901   5.724   5.378   4.170
97002SOL     OW92902  11.583   6.516  10.762
97002SOL    HW192903  11.556   6.559  10.681
97002SOL    HW292904  11.516   6.448  10.777
97003SOL     OW92905   1.728   3.256   3.110
97003SOL    HW192906   1.750   3.278   3.019
97003SOL    HW292907   1.788   3.186   3.133
97004SOL     OW92908   4.203   3.669   8.948
97004SOL    HW192909   4.299   3.670   8.957
97004SOL    HW292910   4.175   3.599   9.008
97005SOL     OW92911  12.468  10.465  13.295
97005SOL    HW192912  12.450  10.425  13.381
97005SOL    HW292913  12.385  10.505  13.270
97006SOL     OW92914  12.724   7.531  11.122
97006SOL    HW192915  12.785   7.473  11.076
97006SOL    HW292916  12.756   7.619  11.103
97007SOL     OW92917   5.560  11.172   6.130
97007SOL    HW192918   5.558  11.110   6.202
97007SOL    HW292919   5.469  11.179   6.102
97008SOL     OW92920  14.398   0.236   0.697
97008SOL    HW192921  14.326   0.271   0.644
97008SOL    HW292922  14.373   0.256   0.788
97009SOL     OW92923   4.334  11.664   3.628
97009SOL    HW192924   4.380  11.585   3.600
97009SOL    HW292925   4.398  11.734   3.614
97010SOL     OW92926   7.162   5.661   0.663
97010SOL    HW192927   7.125   5.648   0.750
97010SOL    HW292928   7.097   5.714   0.617
97011SOL     OW92929   8.514   5.352   6.441
97011SOL    HW192930   8.434   5.395   6.411
97011SOL    HW292931   8.582   5.383   6.381
97012SOL     OW92932  11.496  14.710  10.540
97012SOL    HW192933  11.434  14.749  10.602
97012SOL    HW292934  11.446  14.698  10.460
97013SOL     OW92935   1.503   2.880  10.484
97013SOL    HW192936   1.589   2.920  10.495
97013SOL    HW292937   1.488   2.882  10.389
97014SOL     OW92938  14.457  10.405   4.215
97014SOL    HW192939  14.439  10.473   4.281
97014SOL    HW292940  14.370  10.374   4.189
97015SOL     OW92941  13.542   2.092   3.515
97015SOL    HW192942  13.542   2.015   3.457
97015SOL    HW292943  13.635   2.111   3.530
97016SOL     OW92944  14.167  11.650   8.337
97016SOL    HW192945  14.209  11.717   8.390
97016SOL    HW292946  14.098  11.614   8.393
97017SOL     OW92947  12.702  13.273  12.641
97017SOL    HW192948  12.620  13.255  12.595
97017SOL    HW292949  12.675  13.304  12.727
97018SOL     OW92950   1.090   3.525   8.888
97018SOL    HW192951   1.071   3.519   8.795
97018SOL    HW292952   1.050   3.446   8.926
97019SOL     OW92953  11.495   9.135   7.565
97019SOL    HW192954  11.458   9.142   7.477
97019SOL    HW292955  11.507   9.041   7.579
97020SOL     OW92956   8.485  10.447   0.662
97020SOL    HW192957   8.559  10.408   0.616
97020SOL    HW292958   8.451  10.376   0.716
97021SOL     OW92959   6.097   3.626  14.247
97021SOL    HW192960   6.177   3.639  14.299
97021SOL    HW292961   6.113   3.676  14.166
97022SOL     OW92962   5.115  14.231   4.747
97022SOL    HW192963   5.041  14.215   4.805
97022SOL    HW292964   5.092  14.312   4.700
97023SOL     OW92965   7.052   8.431   8.620
97023SOL    HW192966   7.076   8.510   8.572
97023SOL    HW292967   7.007   8.464   8.698
97024SOL     OW92968  10.564   5.658  13.511
97024SOL    HW192969  10.612   5.733  13.476
97024SOL    HW292970  10.491   5.646  13.451
97025SOL     OW92971  10.246  13.493   3.499
97025SOL    HW192972  10.174  13.537   3.453
97025SOL    HW292973  10.258  13.411   3.453
97026SOL     OW92974   6.899  11.590   3.822
97026SOL    HW192975   6.971  11.641   3.784
97026SOL    HW292976   6.827  11.653   3.831
97027SOL     OW92977   3.320  10.156   9.885
97027SOL    HW192978   3.247  10.104   9.919
97027SOL    HW292979   3.281  10.211   9.817
97028SOL     OW92980  14.419   6.938   8.677
97028SOL    HW192981  14.453   6.913   8.763
97028SOL    HW292982  14.416   7.034   8.680
97029SOL     OW92983   9.266  12.203  12.367
97029SOL    HW192984   9.278  12.298  12.377
97029SOL    HW292985   9.247  12.192  12.274
97030SOL     OW92986   8.342  13.487  11.198
97030SOL    HW192987   8.283  13.431  11.149
97030SOL    HW292988   8.330  13.461  11.290
97031SOL     OW92989   7.575   0.421   1.586
97031SOL    HW192990   7.512   0.480   1.627
97031SOL    HW292991   7.581   0.452   1.496
97032SOL     OW92992   0.970  10.432   1.549
97032SOL    HW192993   0.973  10.478   1.633
97032SOL    HW292994   1.054  10.453   1.507
97033SOL     OW92995   9.996  13.839   0.096
97033SOL    HW192996  10.086  13.812   0.074
97033SOL    HW292997  10.007  13.923   0.140
97034SOL     OW92998   6.396  13.283   0.786
97034SOL    HW192999   6.392  13.221   0.713
97034SOL    HW293000   6.481  13.265   0.827
97035SOL     OW93001   2.210   9.179  14.614
97035SOL    HW193002   2.274   9.207  14.548
97035SOL    HW293003   2.255   9.192  14.698
97036SOL     OW93004   5.719   5.064  12.855
97036SOL    HW193005   5.763   5.008  12.791
97036SOL    HW293006   5.642   5.014  12.882
97037SOL     OW93007  13.383  10.495  13.672
97037SOL    HW193008  13.379  10.591  13.674
97037SOL    HW293009  13.320  10.471  13.604
97038SOL     OW93010   2.792   3.148   1.930
97038SOL    HW193011   2.769   3.216   1.993
97038SOL    HW293012   2.709   3.125   1.888
97039SOL     OW93013   5.423   0.561  12.062
97039SOL    HW193014   5.363   0.507  12.012
97039SOL    HW293015   5.367   0.607  12.125
97040SOL     OW93016  11.975  11.783   5.394
97040SOL    HW193017  12.022  11.793   5.477
97040SOL    HW293018  11.963  11.688   5.385
97041SOL     OW93019   6.644   8.979   4.536
97041SOL    HW193020   6.578   8.914   4.558
97041SOL    HW293021   6.598   9.063   4.544
97042SOL     OW93022   4.461  14.067   3.472
97042SOL    HW193023   4.456  14.040   3.380
97042SOL    HW293024   4.485  13.986   3.519
97043SOL     OW93025   9.313   8.132  12.418
97043SOL    HW193026   9.318   8.037  12.423
97043SOL    HW293027   9.340   8.163  12.504
97044SOL     OW93028  12.356   6.961   9.716
97044SOL    HW193029  12.309   6.877   9.712
97044SOL    HW293030  12.286   7.026   9.725
97045SOL     OW93031  14.728   6.677   6.676
97045SOL    HW193032  14.675   6.602   6.702
97045SOL    HW293033  14.685   6.712   6.598
97046SOL     OW93034   2.750   9.182   1.735
97046SOL    HW193035   2.656   9.170   1.748
97046SOL    HW293036   2.774   9.251   1.797
97047SOL     OW93037   3.343  10.821   7.492
97047SOL    HW193038   3.347  10.899   7.437
97047SOL    HW293039   3.435  10.802   7.512
97048SOL     OW93040   2.984   0.068   0.440
97048SOL    HW193041   3.030   0.004   0.386
97048SOL    HW293042   2.892   0.053   0.420
97049SOL     OW93043   7.625  12.936  14.217
97049SOL    HW193044   7.595  13.015  14.262
97049SOL    HW293045   7.551  12.909  14.163
97050SOL     OW93046   6.235   3.354   5.721
97050SOL    HW193047   6.229   3.277   5.778
97050SOL    HW293048   6.160   3.346   5.662
97051SOL     OW93049   6.241  12.589   7.646
97051SOL    HW193050   6.229  12.515   7.588
97051SOL    HW293051   6.195  12.661   7.603
97052SOL     OW93052   0.611  14.578   9.116
97052SOL    HW193053   0.549  14.557   9.186
97052SOL    HW293054   0.672  14.505   9.116
97053SOL     OW93055   6.317   8.594   9.263
97053SOL    HW193056   6.262   8.627   9.334
97053SOL    HW293057   6.330   8.669   9.205
97054SOL     OW93058   3.627  13.576   8.892
97054SOL    HW193059   3.560  13.581   8.824
97054SOL    HW293060   3.666  13.663   8.895
97055SOL     OW93061   0.453   5.646   7.292
97055SOL    HW193062   0.490   5.565   7.326
97055SOL    HW293063   0.489   5.714   7.350
97056SOL     OW93064   5.298   3.171  14.866
97056SOL    HW193065   5.342   3.130   0.073
97056SOL    HW293066   5.340   3.257  14.858
97057SOL     OW93067   1.856   8.308   1.211
97057SOL    HW193068   1.804   8.331   1.134
97057SOL    HW293069   1.944   8.342   1.192
97058SOL     OW93070   0.702   8.100   6.582
97058SOL    HW193071   0.714   8.097   6.488
97058SOL    HW293072   0.769   8.161   6.613
97059SOL     OW93073  13.289   0.329  12.201
97059SOL    HW193074  13.228   0.259  12.223
97059SOL    HW293075  13.368   0.285  12.172
97060SOL     OW93076  10.398  11.452   0.732
97060SOL    HW193077  10.403  11.513   0.658
97060SOL    HW293078  10.460  11.383   0.710
97061SOL     OW93079  14.284   4.109  12.354
97061SOL    HW193080  14.357   4.047  12.354
97061SOL    HW293081  14.309   4.175  12.290
97062SOL     OW93082   9.594  14.397   6.229
97062SOL    HW193083   9.672  14.345   6.249
97062SOL    HW293084   9.529  14.332   6.202
97063SOL     OW93085  13.708   8.893   4.750
97063SOL    HW193086  13.716   8.849   4.665
97063SOL    HW293087  13.733   8.826   4.814
97064SOL     OW93088   7.236   1.364   6.793
97064SOL    HW193089   7.235   1.361   6.698
97064SOL    HW293090   7.258   1.455   6.814
97065SOL     OW93091   2.026   7.341   8.118
97065SOL    HW193092   2.024   7.276   8.047
97065SOL    HW293093   2.113   7.332   8.156
97066SOL     OW93094   9.762   1.378   9.981
97066SOL    HW193095   9.722   1.437  10.045
97066SOL    HW293096   9.727   1.406   9.897
97067SOL     OW93097   3.280   5.079   3.210
97067SOL    HW193098   3.247   5.001   3.167
97067SOL    HW293099   3.326   5.047   3.287
97068SOL     OW93100   0.394  12.491  12.157
97068SOL    HW193101   0.447  12.479  12.078
97068SOL    HW293102   0.444  12.449  12.226
97069SOL     OW93103   8.344  11.319   1.540
97069SOL    HW193104   8.427  11.275   1.556
97069SOL    HW293105   8.283  11.279   1.602
97070SOL     OW93106  14.032   0.356   5.009
97070SOL    HW193107  14.123   0.385   5.023
97070SOL    HW293108  13.987   0.377   5.090
97071SOL     OW93109   2.568   6.423   7.447
97071SOL    HW193110   2.535   6.480   7.378
97071SOL    HW293111   2.495   6.364   7.466
97072SOL     OW93112  11.563   3.476   5.455
97072SOL    HW193113  11.489   3.435   5.411
97072SOL    HW293114  11.629   3.485   5.387
97073SOL     OW93115   4.207   5.261  14.540
97073SOL    HW193116   4.124   5.218  14.562
97073SOL    HW293117   4.275   5.200  14.570
97074SOL     OW93118   8.262  12.400  11.249
97074SOL    HW193119   8.320  12.336  11.209
97074SOL    HW293120   8.283  12.482  11.203
97075SOL     OW93121   4.804  14.252   4.181
97075SOL    HW193122   4.786  14.190   4.111
97075SOL    HW293123   4.719  14.290   4.203
97076SOL     OW93124  10.626  14.419   3.054
97076SOL    HW193125  10.679  14.481   3.105
97076SOL    HW293126  10.541  14.463   3.045
97077SOL     OW93127  14.393  14.231  12.538
97077SOL    HW193128  14.311  14.209  12.494
97077SOL    HW293129  14.372  14.226  12.631
97078SOL     OW93130   5.052   9.454   6.487
97078SOL    HW193131   5.118   9.397   6.447
97078SOL    HW293132   4.970   9.432   6.442
97079SOL     OW93133   8.347  11.295  13.595
97079SOL    HW193134   8.289  11.269  13.667
97079SOL    HW293135   8.302  11.367  13.552
97080SOL     OW93136   8.591   5.720  12.843
97080SOL    HW193137   8.642   5.662  12.788
97080SOL    HW293138   8.655   5.770  12.893
97081SOL     OW93139   2.702   6.284   1.085
97081SOL    HW193140   2.635   6.275   1.153
97081SOL    HW293141   2.778   6.239   1.121
97082SOL     OW93142  13.228  13.049  12.070
97082SOL    HW193143  13.264  13.127  12.029
97082SOL    HW293144  13.251  13.058  12.163
97083SOL     OW93145  10.656   1.369   8.016
97083SOL    HW193146  10.693   1.324   7.940
97083SOL    HW293147  10.725   1.365   8.083
97084SOL     OW93148   2.428   4.236  12.667
97084SOL    HW193149   2.500   4.192  12.710
97084SOL    HW293150   2.445   4.226  12.573
97085SOL     OW93151   7.940   5.131  14.201
97085SOL    HW193152   7.850   5.106  14.182
97085SOL    HW293153   7.992   5.052  14.182
97086SOL     OW93154  11.756  11.980   1.477
97086SOL    HW193155  11.822  12.049   1.479
97086SOL    HW293156  11.742  11.957   1.569
97087SOL     OW93157  14.467  10.473   7.978
97087SOL    HW193158  14.539  10.518   7.935
97087SOL    HW293159  14.466  10.509   8.067
97088SOL     OW93160   1.470   7.302   1.110
97088SOL    HW193161   1.425   7.272   1.031
97088SOL    HW293162   1.543   7.241   1.121
97089SOL     OW93163   3.093   1.017   1.183
97089SOL    HW193164   3.141   0.941   1.217
97089SOL    HW293165   3.010   0.981   1.153
97090SOL     OW93166   8.730  12.762   6.305
97090SOL    HW193167   8.716  12.673   6.271
97090SOL    HW293168   8.806  12.754   6.363
97091SOL     OW93169   3.985   5.100   1.774
97091SOL    HW193170   4.015   5.169   1.715
97091SOL    HW293171   4.060   5.042   1.784
97092SOL     OW93172  14.314   0.754  14.857
97092SOL    HW193173  14.388   0.810   0.014
97092SOL    HW293174  14.266   0.740   0.070
97093SOL     OW93175   4.534  13.885   8.874
97093SOL    HW193176   4.520  13.972   8.838
97093SOL    HW293177   4.524  13.826   8.800
97094SOL     OW93178   4.815   0.143  14.203
97094SOL    HW193179   4.829   0.069  14.143
97094SOL    HW293180   4.729   0.177  14.178
97095SOL     OW93181   1.175  12.919   3.777
97095SOL    HW193182   1.152  12.999   3.729
97095SOL    HW293183   1.124  12.925   3.858
97096SOL     OW93184   3.153   9.809   2.751
97096SOL    HW193185   3.075   9.767   2.787
97096SOL    HW293186   3.226   9.772   2.801
97097SOL     OW93187   0.447   9.528   9.551
97097SOL    HW193188   0.459   9.445   9.506
97097SOL    HW293189   0.353   9.532   9.567
97098SOL     OW93190   6.183  13.194   6.163
97098SOL    HW193191   6.101  13.229   6.128
97098SOL    HW293192   6.234  13.272   6.186
97099SOL     OW93193  11.672   7.691   5.842
97099SOL    HW193194  11.672   7.610   5.893
97099SOL    HW293195  11.747   7.683   5.784
97100SOL     OW93196   9.841   5.142   2.656
97100SOL    HW193197   9.865   5.121   2.565
97100SOL    HW293198   9.923   5.168   2.697
97101SOL     OW93199   9.966   6.419   0.380
97101SOL    HW193200  10.050   6.405   0.336
97101SOL    HW293201   9.983   6.489   0.443
97102SOL     OW93202  12.631  11.652  12.570
97102SOL    HW193203  12.668  11.657  12.658
97102SOL    HW293204  12.617  11.559  12.555
97103SOL     OW93205   9.618  10.034   8.167
97103SOL    HW193206   9.691  10.055   8.110
97103SOL    HW293207   9.556  10.105   8.155
97104SOL     OW93208   8.307   4.913   0.652
97104SOL    HW193209   8.341   4.935   0.566
97104SOL    HW293210   8.248   4.985   0.674
97105SOL     OW93211   5.189   9.097   2.586
97105SOL    HW193212   5.107   9.129   2.622
97105SOL    HW293213   5.254   9.117   2.653
97106SOL     OW93214  11.225  14.513   5.816
97106SOL    HW193215  11.170  14.463   5.876
97106SOL    HW293216  11.315  14.486   5.838
97107SOL     OW93217   9.587  14.383   0.084
97107SOL    HW193218   9.548  14.359   0.000
97107SOL    HW293219   9.630  14.304   0.115
97108SOL     OW93220  14.229   2.575   4.267
97108SOL    HW193221  14.180   2.602   4.345
97108SOL    HW293222  14.314   2.548   4.300
97109SOL     OW93223  14.102  11.307   2.013
97109SOL    HW193224  14.048  11.358   2.073
97109SOL    HW293225  14.187  11.352   2.014
97110SOL     OW93226  10.330  13.484  11.744
97110SOL    HW193227  10.394  13.555  11.740
97110SOL    HW293228  10.383  13.405  11.753
97111SOL     OW93229   8.724   0.542   8.900
97111SOL    HW193230   8.741   0.482   8.972
97111SOL    HW293231   8.654   0.598   8.932
97112SOL     OW93232   0.503  13.791   7.082
97112SOL    HW193233   0.598  13.784   7.084
97112SOL    HW293234   0.486  13.884   7.096
97113SOL     OW93235   4.478   8.944   4.892
97113SOL    HW193236   4.530   9.004   4.946
97113SOL    HW293237   4.489   8.977   4.803
97114SOL     OW93238  11.227  10.854   9.172
97114SOL    HW193239  11.241  10.792   9.101
97114SOL    HW293240  11.133  10.873   9.168
97115SOL     OW93241   8.454   7.425  12.639
97115SOL    HW193242   8.449   7.490  12.710
97115SOL    HW293243   8.548   7.413  12.624
97116SOL     OW93244   9.778   1.818   0.963
97116SOL    HW193245   9.741   1.907   0.963
97116SOL    HW293246   9.709   1.763   0.927
97117SOL     OW93247   9.359   2.346   4.040
97117SOL    HW193248   9.397   2.277   4.094
97117SOL    HW293249   9.289   2.383   4.094
97118SOL     OW93250   9.713   1.141   6.212
97118SOL    HW193251   9.762   1.062   6.237
97118SOL    HW293252   9.621   1.114   6.216
97119SOL     OW93253   0.366   2.880   2.825
97119SOL    HW193254   0.304   2.819   2.865
97119SOL    HW293255   0.369   2.854   2.733
97120SOL     OW93256   3.704   0.176  13.869
97120SOL    HW193257   3.644   0.112  13.907
97120SOL    HW293258   3.788   0.159  13.911
97121SOL     OW93259   5.567  11.892   9.956
97121SOL    HW193260   5.550  11.881  10.050
97121SOL    HW293261   5.512  11.966   9.931
97122SOL     OW93262   8.524   4.604   9.468
97122SOL    HW193263   8.441   4.617   9.514
97122SOL    HW293264   8.591   4.617   9.535
97123SOL     OW93265   0.353  10.033   2.530
97123SOL    HW193266   0.351  10.016   2.436
97123SOL    HW293267   0.368  10.128   2.537
97124SOL     OW93268  13.581  14.421   4.311
97124SOL    HW193269  13.676  14.428   4.316
97124SOL    HW293270  13.562  14.432   4.218
97125SOL     OW93271   0.374  11.905   8.183
97125SOL    HW193272   0.382  11.828   8.239
97125SOL    HW293273   0.316  11.877   8.112
97126SOL     OW93274   3.005  13.109   7.362
97126SOL    HW193275   3.081  13.051   7.362
97126SOL    HW293276   2.962  13.093   7.278
97127SOL     OW93277  10.531   8.946   9.508
97127SOL    HW193278  10.580   8.963   9.427
97127SOL    HW293279  10.578   8.996   9.574
97128SOL     OW93280  12.021   9.277   0.639
97128SOL    HW193281  12.080   9.278   0.564
97128SOL    HW293282  11.946   9.330   0.611
97129SOL     OW93283  12.995   6.368  13.534
97129SOL    HW193284  13.056   6.359  13.607
97129SOL    HW293285  13.047   6.410  13.464
97130SOL     OW93286   5.949   3.617   0.782
97130SOL    HW193287   5.974   3.707   0.802
97130SOL    HW293288   5.853   3.619   0.777
97131SOL     OW93289   5.251   6.569  10.108
97131SOL    HW193290   5.270   6.490  10.159
97131SOL    HW293291   5.334   6.615  10.104
97132SOL     OW93292  13.632   1.086   1.774
97132SOL    HW193293  13.594   1.046   1.852
97132SOL    HW293294  13.605   1.178   1.779
97133SOL     OW93295  11.678   7.752   4.931
97133SOL    HW193296  11.616   7.718   4.995
97133SOL    HW293297  11.764   7.725   4.965
97134SOL     OW93298   1.822   4.544   0.552
97134SOL    HW193299   1.914   4.543   0.578
97134SOL    HW293300   1.813   4.466   0.496
97135SOL     OW93301  10.607   3.205   5.709
97135SOL    HW193302  10.550   3.129   5.723
97135SOL    HW293303  10.623   3.239   5.797
97136SOL     OW93304  12.655   2.476  12.833
97136SOL    HW193305  12.749   2.466  12.849
97136SOL    HW293306  12.628   2.392  12.795
97137SOL     OW93307   0.208   0.266   3.887
97137SOL    HW193308   0.220   0.230   3.974
97137SOL    HW293309   0.291   0.250   3.842
97138SOL     OW93310   6.201   7.880  13.411
97138SOL    HW193311   6.263   7.893  13.339
97138SOL    HW293312   6.148   7.805  13.384
97139SOL     OW93313  13.266  12.676  10.040
97139SOL    HW193314  13.236  12.625   9.965
97139SOL    HW293315  13.289  12.611  10.106
97140SOL     OW93316   0.997   7.069   4.948
97140SOL    HW193317   0.951   7.128   5.007
97140SOL    HW293318   0.988   6.983   4.990
97141SOL     OW93319   1.759   3.548  12.918
97141SOL    HW193320   1.700   3.558  12.992
97141SOL    HW293321   1.711   3.493  12.856
97142SOL     OW93322   0.650   6.781  12.432
97142SOL    HW193323   0.673   6.688  12.429
97142SOL    HW293324   0.580   6.786  12.498
97143SOL     OW93325   3.030   6.850   3.162
97143SOL    HW193326   2.979   6.783   3.207
97143SOL    HW293327   2.971   6.882   3.093
97144SOL     OW93328   5.043   5.569   1.460
97144SOL    HW193329   5.014   5.601   1.546
97144SOL    HW293330   5.087   5.645   1.420
97145SOL     OW93331  14.829   2.021   7.292
97145SOL    HW193332  14.825   2.114   7.316
97145SOL    HW293333   0.036   1.986   7.341
97146SOL     OW93334   6.187   0.862   3.731
97146SOL    HW193335   6.270   0.822   3.704
97146SOL    HW293336   6.205   0.899   3.818
97147SOL     OW93337   9.490   3.287   3.798
97147SOL    HW193338   9.498   3.300   3.703
97147SOL    HW293339   9.398   3.303   3.817
97148SOL     OW93340   1.395  11.012   0.451
97148SOL    HW193341   1.452  11.079   0.489
97148SOL    HW293342   1.397  10.940   0.514
97149SOL     OW93343   9.819   2.733  10.980
97149SOL    HW193344   9.818   2.766  10.891
97149SOL    HW293345   9.908   2.699  10.992
97150SOL     OW93346   1.980   2.675   9.855
97150SOL    HW193347   2.039   2.741   9.820
97150SOL    HW293348   1.930   2.645   9.779
97151SOL     OW93349  11.952   4.462   6.985
97151SOL    HW193350  11.903   4.490   7.062
97151SOL    HW293351  12.022   4.527   6.977
97152SOL     OW93352  14.143   2.363  12.730
97152SOL    HW193353  14.169   2.280  12.770
97152SOL    HW293354  14.172   2.430  12.791
97153SOL     OW93355  13.449  13.644   1.962
97153SOL    HW193356  13.544  13.646   1.970
97153SOL    HW293357  13.431  13.689   1.880
97154SOL     OW93358  13.932   2.027  11.527
97154SOL    HW193359  14.008   1.983  11.565
97154SOL    HW293360  13.968   2.106  11.486
97155SOL     OW93361   3.991  11.824  12.490
97155SOL    HW193362   4.046  11.756  12.529
97155SOL    HW293363   4.047  11.866  12.424
97156SOL     OW93364   8.624   9.045   8.421
97156SOL    HW193365   8.558   9.030   8.353
97156SOL    HW293366   8.585   9.113   8.477
97157SOL     OW93367   7.951   5.488  14.577
97157SOL    HW193368   7.944   5.523  14.488
97157SOL    HW293369   7.960   5.394  14.565
97158SOL     OW93370  11.518   2.547   1.587
97158SOL    HW193371  11.432   2.573   1.554
97158SOL    HW293372  11.554   2.626   1.627
97159SOL     OW93373   2.958   6.106   4.811
97159SOL    HW193374   2.899   6.047   4.765
97159SOL    HW293375   2.907   6.136   4.887
97160SOL     OW93376  13.267   0.425   8.463
97160SOL    HW193377  13.249   0.338   8.499
97160SOL    HW293378  13.341   0.411   8.404
97161SOL     OW93379   3.553   2.349  11.763
97161SOL    HW193380   3.551   2.444  11.753
97161SOL    HW293381   3.617   2.320  11.698
97162SOL     OW93382   1.554   9.181   5.883
97162SOL    HW193383   1.581   9.248   5.945
97162SOL    HW293384   1.577   9.218   5.797
97163SOL     OW93385   8.689  12.560   8.977
97163SOL    HW193386   8.634  12.485   8.954
97163SOL    HW293387   8.665  12.581   9.068
97164SOL     OW93388  14.264   2.540   1.140
97164SOL    HW193389  14.192   2.485   1.170
97164SOL    HW293390  14.237   2.629   1.163
97165SOL     OW93391   9.675  11.348  14.039
97165SOL    HW193392   9.589  11.313  14.015
97165SOL    HW293393   9.732  11.271  14.041
97166SOL     OW93394   2.296  13.890   3.398
97166SOL    HW193395   2.355  13.846   3.459
97166SOL    HW293396   2.328  13.981   3.396
97167SOL     OW93397   4.809   7.673  10.855
97167SOL    HW193398   4.843   7.583  10.849
97167SOL    HW293399   4.878   7.727  10.817
97168SOL     OW93400   8.575   7.571  11.844
97168SOL    HW193401   8.668   7.548  11.842
97168SOL    HW293402   8.530   7.490  11.818
97169SOL     OW93403   1.228  11.308   1.838
97169SOL    HW193404   1.322  11.312   1.820
97169SOL    HW293405   1.187  11.340   1.757
97170SOL     OW93406   8.402  10.867  12.567
97170SOL    HW193407   8.316  10.901  12.544
97170SOL    HW293408   8.451  10.867  12.484
97171SOL     OW93409  11.080   9.660   1.855
97171SOL    HW193410  11.166   9.657   1.814
97171SOL    HW293411  11.036   9.580   1.826
97172SOL     OW93412   4.230   7.648   3.764
97172SOL    HW193413   4.143   7.607   3.759
97172SOL    HW293414   4.266   7.617   3.847
97173SOL     OW93415   2.429  10.953  12.181
97173SOL    HW193416   2.434  11.002  12.099
97173SOL    HW293417   2.496  10.992  12.237
97174SOL     OW93418   7.821  12.640  11.415
97174SOL    HW193419   7.842  12.639  11.509
97174SOL    HW293420   7.832  12.549  11.387
97175SOL     OW93421   6.181  12.382  11.851
97175SOL    HW193422   6.228  12.348  11.774
97175SOL    HW293423   6.169  12.475  11.832
97176SOL     OW93424   7.693   8.174   9.496
97176SOL    HW193425   7.741   8.243   9.451
97176SOL    HW293426   7.616   8.218   9.533
97177SOL     OW93427   1.784  14.601   4.941
97177SOL    HW193428   1.873  14.572   4.922
97177SOL    HW293429   1.774  14.588   5.035
97178SOL     OW93430   6.357   9.615   8.819
97178SOL    HW193431   6.348   9.581   8.730
97178SOL    HW293432   6.363   9.536   8.874
97179SOL     OW93433   1.094  13.627   4.485
97179SOL    HW193434   1.172  13.606   4.435
97179SOL    HW293435   1.031  13.660   4.421
97180SOL     OW93436  10.839   2.502   3.160
97180SOL    HW193437  10.805   2.430   3.212
97180SOL    HW293438  10.859   2.463   3.075
97181SOL     OW93439  14.625   1.999   6.801
97181SOL    HW193440  14.603   1.906   6.801
97181SOL    HW293441  14.630   2.023   6.893
97182SOL     OW93442   3.356   9.541   9.959
97182SOL    HW193443   3.434   9.559   9.906
97182SOL    HW293444   3.282   9.568   9.904
97183SOL     OW93445   2.053   8.207  10.187
97183SOL    HW193446   2.139   8.238  10.160
97183SOL    HW293447   2.060   8.111  10.184
97184SOL     OW93448   2.504   9.367   7.710
97184SOL    HW193449   2.454   9.349   7.630
97184SOL    HW293450   2.500   9.463   7.720
97185SOL     OW93451  11.498   0.259   8.996
97185SOL    HW193452  11.473   0.317   9.067
97185SOL    HW293453  11.537   0.183   9.039
97186SOL     OW93454   4.177  12.504  12.853
97186SOL    HW193455   4.095  12.499  12.804
97186SOL    HW293456   4.171  12.585  12.903
97187SOL     OW93457   2.537   0.291   2.050
97187SOL    HW193458   2.476   0.328   2.114
97187SOL    HW293459   2.482   0.265   1.976
97188SOL     OW93460   7.523   9.886  12.778
97188SOL    HW193461   7.588   9.873  12.846
97188SOL    HW293462   7.571   9.876  12.696
97189SOL     OW93463   3.620   6.166   0.108
97189SOL    HW193464   3.689   6.132   0.164
97189SOL    HW293465   3.617   6.104   0.034
97190SOL     OW93466   5.007   1.387   2.684
97190SOL    HW193467   4.978   1.478   2.678
97190SOL    HW293468   5.095   1.387   2.645
97191SOL     OW93469  10.268   2.568   3.368
97191SOL    HW193470  10.329   2.597   3.436
97191SOL    HW293471  10.191   2.538   3.416
97192SOL     OW93472   4.738   7.189  12.865
97192SOL    HW193473   4.719   7.217  12.775
97192SOL    HW293474   4.686   7.247  12.920
97193SOL     OW93475  13.370   5.606   8.480
97193SOL    HW193476  13.418   5.557   8.547
97193SOL    HW293477  13.285   5.562   8.475
97194SOL     OW93478  11.874  11.740   9.755
97194SOL    HW193479  11.968  11.732   9.770
97194SOL    HW293480  11.845  11.650   9.740
97195SOL     OW93481   9.777   0.897  14.003
97195SOL    HW193482   9.796   0.953  13.928
97195SOL    HW293483   9.860   0.855  14.025
97196SOL     OW93484  13.527  13.225   7.467
97196SOL    HW193485  13.502  13.140   7.504
97196SOL    HW293486  13.513  13.215   7.373
97197SOL     OW93487   6.974   5.466   5.562
97197SOL    HW193488   7.052   5.516   5.538
97197SOL    HW293489   6.907   5.495   5.500
97198SOL     OW93490  12.471  13.693   4.357
97198SOL    HW193491  12.386  13.657   4.333
97198SOL    HW293492  12.459  13.788   4.352
97199SOL     OW93493   5.158   3.960   8.389
97199SOL    HW193494   5.108   4.031   8.429
97199SOL    HW293495   5.114   3.880   8.419
97200SOL     OW93496   7.198   7.832   9.978
97200SOL    HW193497   7.173   7.924   9.989
97200SOL    HW293498   7.198   7.819   9.883
97201SOL     OW93499   1.182   2.799   6.437
97201SOL    HW193500   1.201   2.710   6.407
97201SOL    HW293501   1.092   2.815   6.411
97202SOL     OW93502   8.613   3.452  10.728
97202SOL    HW193503   8.585   3.476  10.640
97202SOL    HW293504   8.708   3.465  10.728
97203SOL     OW93505   9.333   2.356   0.966
97203SOL    HW193506   9.250   2.338   0.921
97203SOL    HW293507   9.383   2.276   0.956
97204SOL     OW93508   0.753   8.178   2.666
97204SOL    HW193509   0.815   8.224   2.722
97204SOL    HW293510   0.789   8.184   2.578
97205SOL     OW93511   8.426   0.294   5.009
97205SOL    HW193512   8.351   0.285   4.950
97205SOL    HW293513   8.502   0.293   4.951
97206SOL     OW93514   8.243   9.900   3.778
97206SOL    HW193515   8.281   9.818   3.811
97206SOL    HW293516   8.162   9.910   3.829
97207SOL     OW93517   3.909   9.799  10.668
97207SOL    HW193518   3.927   9.822  10.577
97207SOL    HW293519   3.976   9.734  10.690
97208SOL     OW93520   3.406   5.517   7.306
97208SOL    HW193521   3.479   5.468   7.269
97208SOL    HW293522   3.337   5.513   7.240
97209SOL     OW93523  10.543  10.734   3.077
97209SOL    HW193524  10.626  10.735   3.125
97209SOL    HW293525  10.561  10.782   2.997
97210SOL     OW93526   6.262   0.093   0.977
97210SOL    HW193527   6.224   0.092   0.889
97210SOL    HW293528   6.357   0.091   0.962
97211SOL     OW93529  11.396  12.717   7.930
97211SOL    HW193530  11.317  12.712   7.876
97211SOL    HW293531  11.432  12.628   7.927
97212SOL     OW93532  12.748   2.519  13.246
97212SOL    HW193533  12.778   2.543  13.334
97212SOL    HW293534  12.719   2.602  13.207
97213SOL     OW93535  14.247  13.059  14.626
97213SOL    HW193536  14.268  12.969  14.602
97213SOL    HW293537  14.280  13.069  14.715
97214SOL     OW93538   6.271   2.797   3.932
97214SOL    HW193539   6.200   2.760   3.986
97214SOL    HW293540   6.225   2.848   3.865
97215SOL     OW93541   9.354   6.600   1.522
97215SOL    HW193542   9.388   6.536   1.585
97215SOL    HW293543   9.415   6.673   1.527
97216SOL     OW93544   2.858   7.025   5.650
97216SOL    HW193545   2.792   7.090   5.676
97216SOL    HW293546   2.930   7.038   5.713
97217SOL     OW93547   3.293  11.284   4.894
97217SOL    HW193548   3.272  11.353   4.958
97217SOL    HW293549   3.299  11.330   4.810
97218SOL     OW93550   6.155  14.296   9.402
97218SOL    HW193551   6.094  14.358   9.442
97218SOL    HW293552   6.212  14.350   9.348
97219SOL     OW93553  12.570  12.790   4.249
97219SOL    HW193554  12.660  12.795   4.217
97219SOL    HW293555  12.528  12.724   4.193
97220SOL     OW93556   7.452   4.374   4.323
97220SOL    HW193557   7.482   4.385   4.233
97220SOL    HW293558   7.497   4.444   4.371
97221SOL     OW93559   8.495  10.034  14.634
97221SOL    HW193560   8.509   9.940  14.645
97221SOL    HW293561   8.454  10.043  14.548
97222SOL     OW93562   7.079   0.154   5.585
97222SOL    HW193563   7.083   0.245   5.556
97222SOL    HW293564   7.140   0.109   5.527
97223SOL     OW93565   6.177  14.348  11.236
97223SOL    HW193566   6.214  14.264  11.208
97223SOL    HW293567   6.089  14.326  11.268
97224SOL     OW93568  11.701   0.042  10.324
97224SOL    HW193569  11.671   0.098  10.253
97224SOL    HW293570  11.636   0.055  10.393
97225SOL     OW93571   0.788  13.778   7.085
97225SOL    HW193572   0.876  13.815   7.095
97225SOL    HW293573   0.793  13.692   7.127
97226SOL     OW93574   7.706   3.819   7.512
97226SOL    HW193575   7.737   3.910   7.514
97226SOL    HW293576   7.703   3.793   7.604
97227SOL     OW93577   8.079  12.111   5.984
97227SOL    HW193578   8.145  12.069   6.039
97227SOL    HW293579   7.996  12.074   6.013
97228SOL     OW93580   9.415   1.667   7.464
97228SOL    HW193581   9.358   1.620   7.403
97228SOL    HW293582   9.503   1.637   7.444
97229SOL     OW93583   4.841   1.048  13.280
97229SOL    HW193584   4.797   1.079  13.201
97229SOL    HW293585   4.882   0.966  13.254
97230SOL     OW93586   7.453   5.461   1.978
97230SOL    HW193587   7.465   5.553   1.955
97230SOL    HW293588   7.361   5.443   1.959
97231SOL     OW93589  11.729   8.192   2.022
97231SOL    HW193590  11.751   8.285   2.013
97231SOL    HW293591  11.648   8.182   1.972
97232SOL     OW93592  12.472   4.438   4.273
97232SOL    HW193593  12.424   4.391   4.341
97232SOL    HW293594  12.439   4.528   4.278
97233SOL     OW93595  14.095   7.095   9.792
97233SOL    HW193596  14.185   7.117   9.814
97233SOL    HW293597  14.061   7.173   9.748
97234SOL     OW93598   5.987  14.411  12.089
97234SOL    HW193599   5.903  14.436  12.049
97234SOL    HW293600   6.022  14.493  12.124
97235SOL     OW93601  10.692  12.606   4.891
97235SOL    HW193602  10.763  12.654   4.935
97235SOL    HW293603  10.661  12.544   4.957
97236SOL     OW93604   2.190   1.346   8.309
97236SOL    HW193605   2.116   1.404   8.295
97236SOL    HW293606   2.152   1.258   8.305
97237SOL     OW93607   1.757  11.164   6.931
97237SOL    HW193608   1.824  11.227   6.904
97237SOL    HW293609   1.795  11.078   6.913
97238SOL     OW93610   9.767  14.343   7.595
97238SOL    HW193611   9.836  14.324   7.531
97238SOL    HW293612   9.813  14.344   7.679
97239SOL     OW93613   0.751   4.320   1.283
97239SOL    HW193614   0.689   4.376   1.329
97239SOL    HW293615   0.756   4.241   1.337
97240SOL     OW93616   7.173   3.329  10.167
97240SOL    HW193617   7.192   3.419  10.142
97240SOL    HW293618   7.239   3.308  10.233
97241SOL     OW93619   8.603   3.242   4.033
97241SOL    HW193620   8.513   3.274   4.042
97241SOL    HW293621   8.644   3.303   3.971
97242SOL     OW93622  13.656   2.252   6.922
97242SOL    HW193623  13.603   2.330   6.935
97242SOL    HW293624  13.619   2.210   6.844
97243SOL     OW93625   8.799   8.160  10.900
97243SOL    HW193626   8.802   8.252  10.873
97243SOL    HW293627   8.724   8.155  10.959
97244SOL     OW93628  10.662  14.303  10.607
97244SOL    HW193629  10.719  14.233  10.576
97244SOL    HW293630  10.604  14.322  10.533
97245SOL     OW93631   3.532   2.819   2.849
97245SOL    HW193632   3.439   2.797   2.839
97245SOL    HW293633   3.536   2.914   2.842
97246SOL     OW93634  11.767  12.007   8.010
97246SOL    HW193635  11.837  12.070   8.023
97246SOL    HW293636  11.758  12.001   7.915
97247SOL     OW93637   0.797   4.046  11.204
97247SOL    HW193638   0.725   4.078  11.258
97247SOL    HW293639   0.757   3.982  11.146
97248SOL     OW93640  10.629   7.840   6.433
97248SOL    HW193641  10.699   7.903   6.449
97248SOL    HW293642  10.671   7.770   6.382
97249SOL     OW93643   8.619  13.443   4.338
97249SOL    HW193644   8.535  13.483   4.361
97249SOL    HW293645   8.643  13.392   4.415
97250SOL     OW93646   0.677   8.463   8.523
97250SOL    HW193647   0.719   8.384   8.557
97250SOL    HW293648   0.645   8.509   8.600
97251SOL     OW93649  12.644   5.204   5.693
97251SOL    HW193650  12.619   5.113   5.707
97251SOL    HW293651  12.566   5.245   5.657
97252SOL     OW93652  14.220   4.701   0.407
97252SOL    HW193653  14.289   4.701   0.340
97252SOL    HW293654  14.260   4.657   0.482
97253SOL     OW93655   5.079  14.861   5.669
97253SOL    HW193656   5.040  14.789   5.717
97253SOL    HW293657   5.172  14.859   5.693
97254SOL     OW93658   6.070   7.315   1.382
97254SOL    HW193659   6.089   7.364   1.462
97254SOL    HW293660   6.120   7.361   1.314
97255SOL     OW93661   0.101   9.988  10.555
97255SOL    HW193662   0.139   9.913  10.602
97255SOL    HW293663   0.073   9.952  10.471
97256SOL     OW93664  12.564  12.272   5.440
97256SOL    HW193665  12.615  12.344   5.402
97256SOL    HW293666  12.496  12.254   5.375
97257SOL     OW93667   9.771  13.328   1.594
97257SOL    HW193668   9.791  13.395   1.529
97257SOL    HW293669   9.814  13.249   1.561
97258SOL     OW93670  10.142   6.052   0.812
97258SOL    HW193671  10.221   6.050   0.757
97258SOL    HW293672  10.088   6.121   0.775
97259SOL     OW93673   3.963   5.418   6.035
97259SOL    HW193674   4.015   5.440   5.957
97259SOL    HW293675   3.989   5.482   6.101
97260SOL     OW93676   6.870   8.531  10.902
97260SOL    HW193677   6.793   8.508  10.954
97260SOL    HW293678   6.887   8.623  10.923
97261SOL     OW93679  12.437   3.160  13.970
97261SOL    HW193680  12.378   3.085  13.965
97261SOL    HW293681  12.472   3.170  13.882
97262SOL     OW93682   2.400   0.776  14.239
97262SOL    HW193683   2.370   0.763  14.148
97262SOL    HW293684   2.490   0.806  14.230
97263SOL     OW93685   8.195  11.310  14.598
97263SOL    HW193686   8.137  11.374  14.637
97263SOL    HW293687   8.249  11.360  14.537
97264SOL     OW93688   5.255  13.476   1.298
97264SOL    HW193689   5.234  13.421   1.222
97264SOL    HW293690   5.202  13.554   1.287
97265SOL     OW93691   5.507   2.832   3.145
97265SOL    HW193692   5.503   2.915   3.098
97265SOL    HW293693   5.565   2.777   3.093
97266SOL     OW93694   0.037  10.502   1.314
97266SOL    HW193695  14.828  10.474   1.364
97266SOL    HW293696   0.025  10.596   1.301
97267SOL     OW93697   8.708  13.584  10.668
97267SOL    HW193698   8.759  13.646  10.720
97267SOL    HW293699   8.760  13.503  10.669
97268SOL     OW93700   3.420   4.946   9.725
97268SOL    HW193701   3.366   4.872   9.751
97268SOL    HW293702   3.495   4.943   9.785
97269SOL     OW93703   2.281   3.047  13.828
97269SOL    HW193704   2.308   2.962  13.861
97269SOL    HW293705   2.303   3.109  13.898
97270SOL     OW93706   8.246  11.819   8.098
97270SOL    HW193707   8.203  11.869   8.168
97270SOL    HW293708   8.237  11.873   8.020
97271SOL     OW93709   2.379   3.364   9.489
97271SOL    HW193710   2.395   3.342   9.581
97271SOL    HW293711   2.418   3.450   9.478
97272SOL     OW93712   0.653  10.591   0.732
97272SOL    HW193713   0.607  10.582   0.648
97272SOL    HW293714   0.584  10.585   0.798
97273SOL     OW93715   8.030   2.036   5.441
97273SOL    HW193716   8.037   2.099   5.512
97273SOL    HW293717   7.937   2.032   5.421
97274SOL     OW93718  10.183   8.820  13.754
97274SOL    HW193719  10.248   8.776  13.808
97274SOL    HW293720  10.207   8.913  13.758
97275SOL     OW93721  10.313   8.890   6.806
97275SOL    HW193722  10.232   8.871   6.853
97275SOL    HW293723  10.284   8.929   6.724
97276SOL     OW93724  10.538  11.376   4.136
97276SOL    HW193725  10.626  11.402   4.160
97276SOL    HW293726  10.534  11.388   4.042
97277SOL     OW93727   1.311   1.377   9.056
97277SOL    HW193728   1.247   1.430   9.009
97277SOL    HW293729   1.334   1.429   9.133
97278SOL     OW93730  10.764  11.693  12.788
97278SOL    HW193731  10.804  11.779  12.771
97278SOL    HW293732  10.828  11.630  12.754
97279SOL     OW93733   8.708   5.324   2.861
97279SOL    HW193734   8.791   5.337   2.816
97279SOL    HW293735   8.658   5.266   2.804
97280SOL     OW93736  13.613   5.899   2.102
97280SOL    HW193737  13.560   5.932   2.175
97280SOL    HW293738  13.695   5.948   2.108
97281SOL     OW93739  14.798  11.754   2.304
97281SOL    HW193740  14.743  11.736   2.227
97281SOL    HW293741  14.835  11.669   2.327
97282SOL     OW93742   9.800  13.305  13.213
97282SOL    HW193743   9.865  13.306  13.143
97282SOL    HW293744   9.719  13.278  13.170
97283SOL     OW93745  11.580   3.663   8.350
97283SOL    HW193746  11.555   3.750   8.321
97283SOL    HW293747  11.675   3.660   8.342
97284SOL     OW93748   5.437   9.739   0.580
97284SOL    HW193749   5.353   9.784   0.585
97284SOL    HW293750   5.482   9.780   0.507
97285SOL     OW93751  12.272   8.842   1.323
97285SOL    HW193752  12.328   8.861   1.248
97285SOL    HW293753  12.208   8.913   1.324
97286SOL     OW93754   4.324   4.394   6.187
97286SOL    HW193755   4.240   4.426   6.157
97286SOL    HW293756   4.388   4.454   6.150
97287SOL     OW93757   1.118   7.277   5.202
97287SOL    HW193758   1.210   7.252   5.213
97287SOL    HW293759   1.119   7.338   5.128
97288SOL     OW93760   7.912   4.721   3.129
97288SOL    HW193761   7.968   4.719   3.206
97288SOL    HW293762   7.858   4.799   3.141
97289SOL     OW93763   5.909   2.633  12.210
97289SOL    HW193764   5.980   2.696  12.223
97289SOL    HW293765   5.842   2.659  12.273
97290SOL     OW93766   4.938   6.133   8.317
97290SOL    HW193767   4.941   6.153   8.411
97290SOL    HW293768   4.972   6.044   8.310
97291SOL     OW93769  14.504   9.922   2.224
97291SOL    HW193770  14.515   9.851   2.161
97291SOL    HW293771  14.593   9.949   2.247
97292SOL     OW93772   1.705  13.059   2.993
97292SOL    HW193773   1.793  13.022   2.985
97292SOL    HW293774   1.684  13.091   2.906
97293SOL     OW93775   6.263   4.855   2.771
97293SOL    HW193776   6.287   4.934   2.724
97293SOL    HW293777   6.179   4.875   2.812
97294SOL     OW93778   1.270   1.912   9.347
97294SOL    HW193779   1.229   1.847   9.289
97294SOL    HW293780   1.223   1.904   9.430
97295SOL     OW93781  13.538   2.860  12.813
97295SOL    HW193782  13.553   2.891  12.723
97295SOL    HW293783  13.472   2.792  12.804
97296SOL     OW93784   0.029   8.708   6.610
97296SOL    HW193785   0.089   8.780   6.628
97296SOL    HW293786   0.062   8.635   6.663
97297SOL     OW93787  11.365   9.239   7.904
97297SOL    HW193788  11.384   9.305   7.838
97297SOL    HW293789  11.341   9.161   7.855
97298SOL     OW93790   0.699  14.829   0.582
97298SOL    HW193791   0.658  14.782   0.509
97298SOL    HW293792   0.639  14.817   0.655
97299SOL     OW93793   6.184   6.004  11.932
97299SOL    HW193794   6.091   6.018  11.949
97299SOL    HW293795   6.217   5.962  12.012
97300SOL     OW93796   2.543  10.484   2.814
97300SOL    HW193797   2.555  10.567   2.860
97300SOL    HW293798   2.463  10.447   2.852
97301SOL     OW93799   4.656   6.938   0.502
97301SOL    HW193800   4.665   6.884   0.580
97301SOL    HW293801   4.563   6.934   0.481
97302SOL     OW93802  13.630   6.379  12.182
97302SOL    HW193803  13.704   6.415  12.231
97302SOL    HW293804  13.552   6.415  12.225
97303SOL     OW93805   0.520  13.569   1.714
97303SOL    HW193806   0.491  13.497   1.658
97303SOL    HW293807   0.548  13.527   1.795
97304SOL     OW93808   3.502   6.527   2.734
97304SOL    HW193809   3.456   6.480   2.803
97304SOL    HW293810   3.455   6.504   2.654
97305SOL     OW93811   0.223   2.324  12.549
97305SOL    HW193812   0.296   2.379  12.577
97305SOL    HW293813   0.184   2.292  12.631
97306SOL     OW93814  13.704  13.226  12.431
97306SOL    HW193815  13.799  13.221  12.417
97306SOL    HW293816  13.690  13.185  12.516
97307SOL     OW93817   7.467   8.567  14.789
97307SOL    HW193818   7.442   8.628  14.720
97307SOL    HW293819   7.424   8.601  14.868
97308SOL     OW93820  14.173   9.011   6.811
97308SOL    HW193821  14.082   8.984   6.820
97308SOL    HW293822  14.177   9.056   6.727
97309SOL     OW93823   6.107  14.164   9.791
97309SOL    HW193824   6.081  14.119   9.711
97309SOL    HW293825   6.026  14.201   9.825
97310SOL     OW93826   5.801   0.370   2.399
97310SOL    HW193827   5.734   0.413   2.347
97310SOL    HW293828   5.843   0.308   2.338
97311SOL     OW93829  11.544   2.650  12.016
97311SOL    HW193830  11.604   2.718  12.046
97311SOL    HW293831  11.559   2.576  12.075
97312SOL     OW93832   5.156   9.734  10.523
97312SOL    HW193833   5.194   9.654  10.486
97312SOL    HW293834   5.230   9.779  10.563
97313SOL     OW93835   5.289   4.747   2.201
97313SOL    HW193836   5.246   4.821   2.159
97313SOL    HW293837   5.373   4.739   2.157
97314SOL     OW93838  14.158  10.680   5.923
97314SOL    HW193839  14.151  10.731   5.843
97314SOL    HW293840  14.068  10.650   5.941
97315SOL     OW93841  11.163   7.165   8.724
97315SOL    HW193842  11.094   7.228   8.701
97315SOL    HW293843  11.127   7.116   8.798
97316SOL     OW93844   9.386   8.614  11.559
97316SOL    HW193845   9.359   8.702  11.532
97316SOL    HW293846   9.329   8.593  11.633
97317SOL     OW93847   3.280   0.319   3.099
97317SOL    HW193848   3.246   0.394   3.148
97317SOL    HW293849   3.368   0.345   3.072
97318SOL     OW93850   0.030   9.058   6.857
97318SOL    HW193851   0.016   9.096   6.770
97318SOL    HW293852   0.118   9.088   6.882
97319SOL     OW93853   3.736   1.401   1.737
97319SOL    HW193854   3.752   1.329   1.798
97319SOL    HW293855   3.697   1.470   1.792
97320SOL     OW93856   5.120  13.497  10.354
97320SOL    HW193857   5.041  13.503  10.300
97320SOL    HW293858   5.156  13.586  10.354
97321SOL     OW93859   8.108  14.612  13.353
97321SOL    HW193860   8.095  14.605  13.258
97321SOL    HW293861   8.199  14.586  13.367
97322SOL     OW93862   9.400  13.021  13.945
97322SOL    HW193863   9.439  12.991  13.863
97322SOL    HW293864   9.414  13.116  13.946
97323SOL     OW93865   6.517   9.493   8.266
97323SOL    HW193866   6.523   9.403   8.234
97323SOL    HW293867   6.582   9.497   8.336
97324SOL     OW93868   2.672   1.851  11.608
97324SOL    HW193869   2.640   1.788  11.673
97324SOL    HW293870   2.725   1.913  11.659
97325SOL     OW93871  14.796  12.700   2.362
97325SOL    HW193872  14.836  12.613   2.368
97325SOL    HW293873  14.862  12.753   2.317
97326SOL     OW93874   9.505   9.614   6.408
97326SOL    HW193875   9.412   9.623   6.427
97326SOL    HW293876   9.528   9.526   6.439
97327SOL     OW93877   2.593   7.570   0.030
97327SOL    HW193878   2.582   7.662   0.006
97327SOL    HW293879   2.510   7.545   0.071
97328SOL     OW93880   4.292   7.558   4.632
97328SOL    HW193881   4.374   7.598   4.601
97328SOL    HW293882   4.276   7.599   4.717
97329SOL     OW93883   7.915   4.719  10.727
97329SOL    HW193884   7.983   4.654  10.710
97329SOL    HW293885   7.852   4.674  10.784
97330SOL     OW93886   0.895   1.231   9.772
97330SOL    HW193887   0.807   1.223   9.737
97330SOL    HW293888   0.931   1.142   9.768
97331SOL     OW93889  10.654   0.619   8.232
97331SOL    HW193890  10.585   0.593   8.292
97331SOL    HW293891  10.685   0.536   8.194
97332SOL     OW93892  12.225  13.049  14.828
97332SOL    HW193893  12.187  13.081  14.746
97332SOL    HW293894  12.315  13.081  14.826
97333SOL     OW93895   6.534  11.329   7.727
97333SOL    HW193896   6.473  11.346   7.799
97333SOL    HW293897   6.478  11.317   7.650
97334SOL     OW93898   0.866  12.985  11.319
97334SOL    HW193899   0.870  12.897  11.357
97334SOL    HW293900   0.789  13.025  11.360
97335SOL     OW93901   9.269   3.384   1.894
97335SOL    HW193902   9.284   3.425   1.809
97335SOL    HW293903   9.261   3.290   1.874
97336SOL     OW93904   3.236  13.526  12.648
97336SOL    HW193905   3.307  13.483  12.601
97336SOL    HW293906   3.238  13.617  12.616
97337SOL     OW93907   3.374  14.046   3.965
97337SOL    HW193908   3.453  14.032   3.913
97337SOL    HW293909   3.359  13.963   4.009
97338SOL     OW93910  10.388  12.182   9.037
97338SOL    HW193911  10.360  12.123   9.107
97338SOL    HW293912  10.329  12.163   8.964
97339SOL     OW93913   8.535   1.316   9.994
97339SOL    HW193914   8.490   1.244  10.038
97339SOL    HW293915   8.510   1.394  10.042
97340SOL     OW93916  13.300   7.713   6.058
97340SOL    HW193917  13.293   7.634   6.111
97340SOL    HW293918  13.311   7.784   6.121
97341SOL     OW93919   1.454   3.018  14.103
97341SOL    HW193920   1.459   3.080  14.175
97341SOL    HW293921   1.533   3.034  14.051
97342SOL     OW93922   5.902   6.421   5.357
97342SOL    HW193923   5.944   6.472   5.288
97342SOL    HW293924   5.810   6.450   5.355
97343SOL     OW93925   8.530   0.075  12.111
97343SOL    HW193926   8.582   0.019  12.054
97343SOL    HW293927   8.547   0.163  12.079
97344SOL     OW93928   1.834   5.600   4.085
97344SOL    HW193929   1.811   5.566   3.999
97344SOL    HW293930   1.782   5.548   4.147
97345SOL     OW93931  11.926   0.257  11.489
97345SOL    HW193932  11.922   0.350  11.469
97345SOL    HW293933  12.019   0.236  11.491
97346SOL     OW93934   3.160   9.105   1.044
97346SOL    HW193935   3.165   9.158   0.965
97346SOL    HW293936   3.085   9.048   1.030
97347SOL     OW93937   7.812   1.716   8.243
97347SOL    HW193938   7.814   1.628   8.206
97347SOL    HW293939   7.796   1.773   8.169
97348SOL     OW93940   8.347  13.412  13.933
97348SOL    HW193941   8.304  13.453  13.858
97348SOL    HW293942   8.440  13.412  13.911
97349SOL     OW93943  10.867   6.749   0.879
97349SOL    HW193944  10.961   6.739   0.868
97349SOL    HW293945  10.830   6.733   0.793
97350SOL     OW93946  13.918   4.649   8.979
97350SOL    HW193947  13.976   4.722   9.002
97350SOL    HW293948  13.969   4.596   8.917
97351SOL     OW93949   7.298   7.429   7.034
97351SOL    HW193950   7.298   7.523   7.050
97351SOL    HW293951   7.302   7.389   7.121
97352SOL     OW93952   5.746  12.048   3.932
97352SOL    HW193953   5.738  12.047   4.028
97352SOL    HW293954   5.827  12.000   3.914
97353SOL     OW93955   8.549   6.409  13.064
97353SOL    HW193956   8.479   6.445  13.009
97353SOL    HW293957   8.525   6.317  13.076
97354SOL     OW93958   7.492   9.251   7.114
97354SOL    HW193959   7.469   9.178   7.172
97354SOL    HW293960   7.554   9.303   7.164
97355SOL     OW93961   6.912  14.592  14.514
97355SOL    HW193962   6.821  14.595  14.542
97355SOL    HW293963   6.921  14.506  14.473
97356SOL     OW93964   7.876  12.325   8.475
97356SOL    HW193965   7.838  12.400   8.520
97356SOL    HW293966   7.858  12.340   8.382
97357SOL     OW93967   1.298   4.961   1.355
97357SOL    HW193968   1.358   4.889   1.373
97357SOL    HW293969   1.354   5.031   1.320
97358SOL     OW93970   4.640  12.802   4.771
97358SOL    HW193971   4.731  12.773   4.772
97358SOL    HW293972   4.597  12.746   4.707
97359SOL     OW93973   2.057   6.208   5.193
97359SOL    HW193974   2.061   6.154   5.272
97359SOL    HW293975   2.073   6.297   5.224
97360SOL     OW93976   5.057   5.522  12.901
97360SOL    HW193977   5.125   5.513  12.967
97360SOL    HW293978   5.032   5.614  12.903
97361SOL     OW93979   3.619  12.819   5.274
97361SOL    HW193980   3.576  12.904   5.261
97361SOL    HW293981   3.640  12.817   5.367
97362SOL     OW93982   1.058  10.539  11.346
97362SOL    HW193983   1.150  10.562  11.361
97362SOL    HW293984   1.062  10.465  11.285
97363SOL     OW93985   8.878   8.243   7.624
97363SOL    HW193986   8.808   8.183   7.598
97363SOL    HW293987   8.953   8.216   7.571
97364SOL     OW93988   3.459  12.789  14.423
97364SOL    HW193989   3.507  12.798  14.341
97364SOL    HW293990   3.487  12.865  14.475
97365SOL     OW93991   6.955   8.281   4.334
97365SOL    HW193992   6.896   8.222   4.288
97365SOL    HW293993   7.023   8.303   4.269
97366SOL     OW93994  12.033   4.184   9.348
97366SOL    HW193995  11.940   4.165   9.353
97366SOL    HW293996  12.076   4.102   9.374
97367SOL     OW93997   2.916   9.642   7.611
97367SOL    HW193998   2.890   9.572   7.550
97367SOL    HW293999   3.005   9.620   7.636
97368SOL     OW94000  10.994   4.460  12.481
97368SOL    HW194001  10.947   4.431  12.559
97368SOL    HW294002  10.959   4.548  12.464
97369SOL     OW94003   3.195  11.649  10.065
97369SOL    HW194004   3.155  11.704  10.132
97369SOL    HW294005   3.183  11.698   9.983
97370SOL     OW94006  12.818   6.410   3.770
97370SOL    HW194007  12.887   6.370   3.717
97370SOL    HW294008  12.833   6.377   3.858
97371SOL     OW94009   3.961  12.100   4.089
97371SOL    HW194010   4.002  12.019   4.058
97371SOL    HW294011   3.910  12.132   4.015
97372SOL     OW94012   6.560   5.633   1.572
97372SOL    HW194013   6.595   5.545   1.565
97372SOL    HW294014   6.612   5.675   1.641
97373SOL     OW94015  11.000   9.368   6.033
97373SOL    HW194016  10.994   9.462   6.052
97373SOL    HW294017  11.081   9.341   6.075
97374SOL     OW94018  13.464   8.781   4.563
97374SOL    HW194019  13.515   8.717   4.513
97374SOL    HW294020  13.400   8.728   4.610
97375SOL     OW94021  12.724   5.074  13.368
97375SOL    HW194022  12.651   5.061  13.428
97375SOL    HW294023  12.696   5.034  13.286
97376SOL     OW94024   9.501   5.624   6.191
97376SOL    HW194025   9.468   5.589   6.274
97376SOL    HW294026   9.422   5.641   6.139
97377SOL     OW94027  12.532   2.944   1.779
97377SOL    HW194028  12.615   2.909   1.747
97377SOL    HW294029  12.468   2.917   1.713
97378SOL     OW94030   0.380   7.012   6.448
97378SOL    HW194031   0.462   7.014   6.400
97378SOL    HW294032   0.403   7.040   6.537
97379SOL     OW94033  13.538  11.262  12.962
97379SOL    HW194034  13.593  11.187  12.937
97379SOL    HW294035  13.450  11.238  12.932
97380SOL     OW94036   6.529  10.771  14.818
97380SOL    HW194037   6.593  10.825  14.864
97380SOL    HW294038   6.570  10.752  14.734
97381SOL     OW94039   8.017   0.017   6.044
97381SOL    HW194040   8.070  14.836   5.982
97381SOL    HW294041   7.927  14.867   6.018
97382SOL     OW94042  13.328   7.230   4.579
97382SOL    HW194043  13.386   7.261   4.509
97382SOL    HW294044  13.240   7.239   4.542
97383SOL     OW94045   1.415   7.043  10.499
97383SOL    HW194046   1.487   7.030  10.438
97383SOL    HW294047   1.336   7.041  10.445
97384SOL     OW94048   7.714   0.822   5.990
97384SOL    HW194049   7.773   0.801   6.063
97384SOL    HW294050   7.735   0.913   5.969
97385SOL     OW94051   3.476  13.354   6.454
97385SOL    HW194052   3.564  13.342   6.419
97385SOL    HW294053   3.479  13.315   6.542
97386SOL     OW94054  10.323   2.796   1.319
97386SOL    HW194055  10.313   2.800   1.414
97386SOL    HW294056  10.260   2.729   1.291
97387SOL     OW94057   1.279  10.270  13.471
97387SOL    HW194058   1.248  10.276  13.561
97387SOL    HW294059   1.250  10.352  13.430
97388SOL     OW94060  13.152   4.861   3.743
97388SOL    HW194061  13.195   4.782   3.776
97388SOL    HW294062  13.085   4.880   3.808
97389SOL     OW94063   4.223   1.056  13.348
97389SOL    HW194064   4.188   1.019  13.267
97389SOL    HW294065   4.199   0.993  13.415
97390SOL     OW94066   9.167   0.926   9.610
97390SOL    HW194067   9.143   0.927   9.517
97390SOL    HW294068   9.122   1.002   9.647
97391SOL     OW94069   0.387  10.014   0.107
97391SOL    HW194070   0.420  10.093   0.064
97391SOL    HW294071   0.350  10.045   0.189
97392SOL     OW94072   9.840  14.538   3.231
97392SOL    HW194073   9.904  14.483   3.275
97392SOL    HW294074   9.847  14.623   3.275
97393SOL     OW94075  12.160  14.813   6.796
97393SOL    HW194076  12.130  14.844   6.882
97393SOL    HW294077  12.237  14.867   6.777
97394SOL     OW94078  11.959   7.952   2.976
97394SOL    HW194079  11.980   7.901   2.897
97394SOL    HW294080  11.971   7.891   3.048
97395SOL     OW94081   6.397   0.189   3.429
97395SOL    HW194082   6.381   0.193   3.335
97395SOL    HW294083   6.311   0.206   3.469
97396SOL     OW94084   2.601   0.558   4.762
97396SOL    HW194085   2.585   0.647   4.731
97396SOL    HW294086   2.692   0.540   4.740
97397SOL     OW94087   1.011  11.759  10.510
97397SOL    HW194088   1.061  11.746  10.430
97397SOL    HW294089   0.921  11.771  10.481
97398SOL     OW94090   4.886  11.888   9.711
97398SOL    HW194091   4.891  11.948   9.786
97398SOL    HW294092   4.938  11.931   9.643
97399SOL     OW94093  12.253   3.419   2.963
97399SOL    HW194094  12.158   3.417   2.957
97399SOL    HW294095  12.282   3.444   2.875
97400SOL     OW94096   5.100  11.044   7.473
97400SOL    HW194097   5.072  11.136   7.473
97400SOL    HW294098   5.129  11.028   7.384
97401SOL     OW94099   7.146  14.632   1.005
97401SOL    HW194100   7.143  14.572   0.931
97401SOL    HW294101   7.060  14.625   1.045
97402SOL     OW94102  13.970  12.665   9.803
97402SOL    HW194103  13.895  12.608   9.789
97402SOL    HW294104  13.980  12.713   9.721
97403SOL     OW94105  11.064   6.506  10.635
97403SOL    HW194106  11.080   6.476  10.546
97403SOL    HW294107  11.118   6.585  10.645
97404SOL     OW94108   4.145  13.754  10.811
97404SOL    HW194109   4.173  13.730  10.723
97404SOL    HW294110   4.086  13.684  10.838
97405SOL     OW94111   1.867   6.010   3.082
97405SOL    HW194112   1.851   5.992   3.174
97405SOL    HW294113   1.950   5.966   3.063
97406SOL     OW94114   2.274   9.348   8.905
97406SOL    HW194115   2.242   9.315   8.821
97406SOL    HW294116   2.356   9.394   8.883
97407SOL     OW94117   6.481  10.423  10.512
97407SOL    HW194118   6.533  10.344  10.526
97407SOL    HW294119   6.454  10.450  10.599
97408SOL     OW94120  12.802   9.394   5.968
97408SOL    HW194121  12.716   9.355   5.951
97408SOL    HW294122  12.862   9.320   5.965
97409SOL     OW94123   8.084   4.477  11.856
97409SOL    HW194124   7.998   4.479  11.898
97409SOL    HW294125   8.147   4.482  11.928
97410SOL     OW94126   7.314   1.208   4.693
97410SOL    HW194127   7.299   1.165   4.777
97410SOL    HW294128   7.249   1.168   4.634
97411SOL     OW94129  11.780  11.516   5.067
97411SOL    HW194130  11.810  11.428   5.088
97411SOL    HW294131  11.846  11.574   5.105
97412SOL     OW94132   5.970   3.942  12.198
97412SOL    HW194133   5.900   3.952  12.263
97412SOL    HW294134   5.924   3.931  12.115
97413SOL     OW94135   7.987  10.745  14.134
97413SOL    HW194136   8.001  10.818  14.194
97413SOL    HW294137   7.944  10.784  14.058
97414SOL     OW94138  10.482   6.457  14.571
97414SOL    HW194139  10.408   6.502  14.530
97414SOL    HW294140  10.447   6.422  14.653
97415SOL     OW94141   2.930   9.195   2.708
97415SOL    HW194142   2.980   9.232   2.636
97415SOL    HW294143   2.889   9.271   2.750
97416SOL     OW94144   4.106   6.332  10.378
97416SOL    HW194145   4.096   6.427  10.368
97416SOL    HW294146   4.136   6.321  10.468
97417SOL     OW94147   4.925  13.210   4.426
97417SOL    HW194148   4.885  13.155   4.493
97417SOL    HW294149   4.983  13.152   4.378
97418SOL     OW94150   9.362  13.795   4.333
97418SOL    HW194151   9.417  13.766   4.260
97418SOL    HW294152   9.290  13.732   4.335
97419SOL     OW94153   0.920  14.028   5.628
97419SOL    HW194154   1.011  13.999   5.628
97419SOL    HW294155   0.925  14.121   5.650
97420SOL     OW94156  13.588   8.885   9.595
97420SOL    HW194157  13.521   8.940   9.553
97420SOL    HW294158  13.650   8.948   9.633
97421SOL     OW94159  14.465  12.510  12.174
97421SOL    HW194160  14.479  12.492  12.267
97421SOL    HW294161  14.415  12.591  12.172
97422SOL     OW94162  13.324   7.794  11.970
97422SOL    HW194163  13.396   7.733  11.952
97422SOL    HW294164  13.339   7.822  12.060
97423SOL     OW94165   5.214   2.293  10.906
97423SOL    HW194166   5.288   2.305  10.965
97423SOL    HW294167   5.162   2.373  10.916
97424SOL     OW94168  11.760  12.765   5.609
97424SOL    HW194169  11.846  12.792   5.639
97424SOL    HW294170  11.701  12.786   5.682
97425SOL     OW94171  10.638   2.748   7.242
97425SOL    HW194172  10.618   2.761   7.335
97425SOL    HW294173  10.643   2.653   7.232
97426SOL     OW94174   9.307  14.054   9.144
97426SOL    HW194175   9.281  14.134   9.099
97426SOL    HW294176   9.352  14.084   9.223
97427SOL     OW94177   8.093  10.899  13.794
97427SOL    HW194178   8.097  10.981  13.745
97427SOL    HW294179   8.066  10.833  13.729
97428SOL     OW94180  12.845   5.452   0.519
97428SOL    HW194181  12.759   5.479   0.487
97428SOL    HW294182  12.906   5.484   0.453
97429SOL     OW94183   1.124   4.954  13.723
97429SOL    HW194184   1.108   5.007  13.801
97429SOL    HW294185   1.135   4.865  13.756
97430SOL     OW94186   6.630   1.198   5.016
97430SOL    HW194187   6.643   1.118   4.965
97430SOL    HW294188   6.602   1.263   4.953
97431SOL     OW94189  11.933  13.143   3.314
97431SOL    HW194190  11.965  13.214   3.370
97431SOL    HW294191  11.838  13.147   3.322
97432SOL     OW94192   0.337  14.806   8.049
97432SOL    HW194193   0.389  14.783   8.126
97432SOL    HW294194   0.247  14.813   8.082
97433SOL     OW94195   9.236   5.841  12.580
97433SOL    HW194196   9.159   5.897  12.570
97433SOL    HW294197   9.264   5.856  12.670
97434SOL     OW94198   8.942   8.595   3.988
97434SOL    HW194199   8.927   8.558   4.075
97434SOL    HW294200   9.036   8.591   3.976
97435SOL     OW94201  13.535   5.872   8.501
97435SOL    HW194202  13.531   5.788   8.455
97435SOL    HW294203  13.489   5.856   8.583
97436SOL     OW94204  14.831  12.093  10.020
97436SOL    HW194205  14.854  12.104   9.928
97436SOL    HW294206  14.852  12.001  10.039
97437SOL     OW94207   3.005   4.818   3.820
97437SOL    HW194208   3.011   4.731   3.780
97437SOL    HW294209   3.076   4.819   3.884
97438SOL     OW94210   3.023  12.006   0.518
97438SOL    HW194211   3.113  11.978   0.534
97438SOL    HW294212   2.970  11.930   0.540
97439SOL     OW94213   6.294  12.941   6.695
97439SOL    HW194214   6.351  13.017   6.694
97439SOL    HW294215   6.217  12.968   6.645
97440SOL     OW94216  12.761  11.406  11.613
97440SOL    HW194217  12.742  11.429  11.523
97440SOL    HW294218  12.684  11.358  11.643
97441SOL     OW94219   2.621   3.386   8.465
97441SOL    HW194220   2.664   3.471   8.455
97441SOL    HW294221   2.628   3.367   8.559
97442SOL     OW94222   8.868   4.115   1.033
97442SOL    HW194223   8.951   4.122   1.079
97442SOL    HW294224   8.891   4.108   0.941
97443SOL     OW94225   4.803   2.805  12.704
97443SOL    HW194226   4.887   2.780  12.667
97443SOL    HW294227   4.798   2.900  12.691
97444SOL     OW94228   6.583  13.788  14.271
97444SOL    HW194229   6.644  13.743  14.212
97444SOL    HW294230   6.630  13.792  14.354
97445SOL     OW94231  12.474   1.337   6.866
97445SOL    HW194232  12.453   1.277   6.938
97445SOL    HW294233  12.488   1.280   6.790
97446SOL     OW94234  13.097   9.994  10.099
97446SOL    HW194235  13.027   9.953  10.049
97446SOL    HW294236  13.155  10.032  10.032
97447SOL     OW94237   7.334  10.971   3.516
97447SOL    HW194238   7.256  10.973   3.571
97447SOL    HW294239   7.309  11.020   3.437
97448SOL     OW94240  14.511   0.723   9.866
97448SOL    HW194241  14.579   0.656   9.875
97448SOL    HW294242  14.444   0.698   9.929
97449SOL     OW94243   9.266   4.316  12.550
97449SOL    HW194244   9.215   4.353  12.622
97449SOL    HW294245   9.236   4.225  12.545
97450SOL     OW94246   1.250   5.602  14.813
97450SOL    HW194247   1.256   5.511  14.783
97450SOL    HW294248   1.340   5.633  14.813
97451SOL     OW94249   9.404   7.128  14.164
97451SOL    HW194250   9.400   7.221  14.143
97451SOL    HW294251   9.483   7.118  14.218
97452SOL     OW94252  12.912  11.616   5.029
97452SOL    HW194253  12.919  11.677   4.955
97452SOL    HW294254  12.896  11.531   4.988
97453SOL     OW94255   6.137  12.234   2.184
97453SOL    HW194256   6.190  12.313   2.172
97453SOL    HW294257   6.170  12.195   2.265
97454SOL     OW94258   5.383   0.913  11.121
97454SOL    HW194259   5.408   1.001  11.092
97454SOL    HW294260   5.300   0.896  11.076
97455SOL     OW94261   2.938   9.123   1.940
97455SOL    HW194262   2.881   9.096   1.868
97455SOL    HW294263   3.008   9.058   1.940
97456SOL     OW94264   4.529  13.316  11.618
97456SOL    HW194265   4.446  13.364  11.618
97456SOL    HW294266   4.505  13.227  11.645
97457SOL     OW94267   5.185   0.252   9.037
97457SOL    HW194268   5.214   0.197   8.964
97457SOL    HW294269   5.246   0.231   9.108
97458SOL     OW94270   8.135   9.593  11.806
97458SOL    HW194271   8.094   9.623  11.725
97458SOL    HW294272   8.070   9.609  11.874
97459SOL     OW94273  14.590   9.586  11.169
97459SOL    HW194274  14.572   9.501  11.129
97459SOL    HW294275  14.620   9.641  11.097
97460SOL     OW94276  11.429   0.652   2.494
97460SOL    HW194277  11.410   0.698   2.576
97460SOL    HW294278  11.482   0.714   2.444
97461SOL     OW94279  13.654   8.177  13.427
97461SOL    HW194280  13.712   8.154  13.355
97461SOL    HW294281  13.649   8.097  13.480
97462SOL     OW94282   3.509  12.536   8.604
97462SOL    HW194283   3.601  12.542   8.630
97462SOL    HW294284   3.468  12.486   8.674
97463SOL     OW94285   4.655   6.335  12.037
97463SOL    HW194286   4.707   6.396  12.089
97463SOL    HW294287   4.686   6.346  11.948
97464SOL     OW94288  14.518   2.520   0.299
97464SOL    HW194289  14.562   2.587   0.351
97464SOL    HW294290  14.552   2.437   0.333
97465SOL     OW94291   5.192  13.766   0.860
97465SOL    HW194292   5.169  13.842   0.913
97465SOL    HW294293   5.185  13.797   0.769
97466SOL     OW94294  10.703   2.557   5.259
97466SOL    HW194295  10.695   2.468   5.225
97466SOL    HW294296  10.779   2.593   5.213
97467SOL     OW94297   8.795  12.398   2.147
97467SOL    HW194298   8.815  12.308   2.172
97467SOL    HW294299   8.814  12.450   2.226
97468SOL     OW94300   5.165   8.609   8.590
97468SOL    HW194301   5.136   8.538   8.648
97468SOL    HW294302   5.153   8.574   8.502
97469SOL     OW94303   2.890   7.465   7.664
97469SOL    HW194304   2.804   7.504   7.676
97469SOL    HW294305   2.901   7.459   7.569
97470SOL     OW94306  11.164  13.495   1.040
97470SOL    HW194307  11.069  13.504   1.049
97470SOL    HW294308  11.176  13.410   0.997
97471SOL     OW94309   2.699  12.670   7.173
97471SOL    HW194310   2.683  12.759   7.207
97471SOL    HW294311   2.746  12.626   7.243
97472SOL     OW94312   0.204   4.502  12.623
97472SOL    HW194313   0.199   4.485  12.529
97472SOL    HW294314   0.116   4.481  12.655
97473SOL     OW94315   1.150   2.070  14.344
97473SOL    HW194316   1.178   1.978  14.343
97473SOL    HW294317   1.078   2.073  14.407
97474SOL     OW94318   4.034   3.078   8.492
97474SOL    HW194319   3.965   3.026   8.532
97474SOL    HW294320   4.060   3.140   8.560
97475SOL     OW94321   4.189   3.680   7.234
97475SOL    HW194322   4.246   3.606   7.256
97475SOL    HW294323   4.131   3.689   7.309
97476SOL     OW94324   7.866   5.129   6.230
97476SOL    HW194325   7.783   5.114   6.277
97476SOL    HW294326   7.840   5.173   6.149
97477SOL     OW94327   4.812  11.991   5.649
97477SOL    HW194328   4.732  12.044   5.655
97477SOL    HW294329   4.881  12.055   5.632
97478SOL     OW94330   7.930   8.777   2.202
97478SOL    HW194331   7.956   8.759   2.293
97478SOL    HW294332   7.874   8.854   2.208
97479SOL     OW94333   8.581   4.648   0.018
97479SOL    HW194334   8.554   4.639   0.110
97479SOL    HW294335   8.520   4.592  14.838
97480SOL     OW94336   7.464   4.687  13.862
97480SOL    HW194337   7.372   4.672  13.886
97480SOL    HW294338   7.480   4.779  13.883
97481SOL     OW94339   2.449   6.333   5.256
97481SOL    HW194340   2.425   6.244   5.281
97481SOL    HW294341   2.544   6.337   5.269
97482SOL     OW94342  12.094   6.020  10.654
97482SOL    HW194343  12.034   5.992  10.723
97482SOL    HW294344  12.159   5.949  10.649
97483SOL     OW94345  10.457   7.602  12.331
97483SOL    HW194346  10.487   7.549  12.258
97483SOL    HW294347  10.516   7.580  12.403
97484SOL     OW94348   9.075   0.047  14.484
97484SOL    HW194349   9.124   0.066  14.564
97484SOL    HW294350   9.011  14.849  14.511
97485SOL     OW94351   0.697   5.279  13.074
97485SOL    HW194352   0.671   5.257  12.984
97485SOL    HW294353   0.758   5.352  13.064
97486SOL     OW94354   7.316   9.632  11.298
97486SOL    HW194355   7.221   9.633  11.306
97486SOL    HW294356   7.333   9.593  11.212
97487SOL     OW94357   1.684   8.612   2.075
97487SOL    HW194358   1.733   8.691   2.097
97487SOL    HW294359   1.628   8.639   2.002
97488SOL     OW94360   4.260  14.493  14.550
97488SOL    HW194361   4.249  14.580  14.588
97488SOL    HW294362   4.195  14.488  14.480
97489SOL     OW94363  13.587  13.192  12.150
97489SOL    HW194364  13.564  13.121  12.210
97489SOL    HW294365  13.642  13.251  12.201
97490SOL     OW94366   7.279   8.130   9.729
97490SOL    HW194367   7.330   8.206   9.756
97490SOL    HW294368   7.217   8.116   9.801
97491SOL     OW94369  12.877   8.707   5.563
97491SOL    HW194370  12.937   8.665   5.500
97491SOL    HW294371  12.928   8.714   5.643
97492SOL     OW94372   8.825  10.220   7.014
97492SOL    HW194373   8.734  10.249   7.015
97492SOL    HW294374   8.832  10.164   6.937
97493SOL     OW94375  11.563   7.473   3.816
97493SOL    HW194376  11.588   7.545   3.759
97493SOL    HW294377  11.475   7.494   3.846
97494SOL     OW94378   4.710   4.561   3.039
97494SOL    HW194379   4.689   4.559   2.946
97494SOL    HW294380   4.759   4.480   3.054
97495SOL     OW94381  14.825   1.606  11.232
97495SOL    HW194382   0.015   1.640  11.164
97495SOL    HW294383  14.737   1.622  11.198
97496SOL     OW94384   9.644   2.279  14.128
97496SOL    HW194385   9.670   2.369  14.107
97496SOL    HW294386   9.576   2.258  14.064
97497SOL     OW94387   6.954   4.565   1.401
97497SOL    HW194388   6.950   4.550   1.306
97497SOL    HW294389   6.987   4.655   1.409
97498SOL     OW94390   9.294  10.592   9.634
97498SOL    HW194391   9.240  10.670   9.647
97498SOL    HW294392   9.232  10.523   9.611
97499SOL     OW94393   2.065   6.624   0.084
97499SOL    HW194394   2.005   6.588   0.149
97499SOL    HW294395   2.126   6.552   0.065
97500SOL     OW94396  13.449   5.006   3.408
97500SOL    HW194397  13.449   5.063   3.484
97500SOL    HW294398  13.366   4.958   3.414
97501SOL     OW94399   8.280   0.840  10.319
97501SOL    HW194400   8.211   0.789  10.362
97501SOL    HW294401   8.263   0.831  10.226
97502SOL     OW94402   3.683   1.420   4.357
97502SOL    HW194403   3.741   1.372   4.416
97502SOL    HW294404   3.740   1.485   4.315
97503SOL     OW94405   1.474  11.700  11.576
97503SOL    HW194406   1.454  11.673  11.486
97503SOL    HW294407   1.422  11.779  11.590
97504SOL     OW94408   0.611   1.399   7.512
97504SOL    HW194409   0.682   1.430   7.457
97504SOL    HW294410   0.532   1.412   7.460
97505SOL     OW94411   5.130   7.296   5.398
97505SOL    HW194412   5.053   7.351   5.381
97505SOL    HW294413   5.188   7.313   5.323
97506SOL     OW94414  10.301   9.603   5.366
97506SOL    HW194415  10.367   9.649   5.314
97506SOL    HW294416  10.351   9.549   5.427
97507SOL     OW94417  11.223   4.809  13.949
97507SOL    HW194418  11.165   4.820  14.025
97507SOL    HW294419  11.294   4.754  13.982
97508SOL     OW94420  10.221  11.272   7.545
97508SOL    HW194421  10.144  11.219   7.527
97508SOL    HW294422  10.253  11.239   7.629
97509SOL     OW94423  11.026   5.793   2.777
97509SOL    HW194424  10.954   5.771   2.836
97509SOL    HW294425  11.084   5.716   2.782
97510SOL     OW94426   7.820   8.246  13.863
97510SOL    HW194427   7.742   8.200  13.833
97510SOL    HW294428   7.892   8.185  13.847
97511SOL     OW94429  11.157   4.065   4.482
97511SOL    HW194430  11.153   4.099   4.571
97511SOL    HW294431  11.191   3.976   4.491
97512SOL     OW94432   3.261   8.394   9.960
97512SOL    HW194433   3.223   8.375   9.874
97512SOL    HW294434   3.213   8.338  10.021
97513SOL     OW94435  13.054  10.040  10.367
97513SOL    HW194436  13.031  10.006  10.281
97513SOL    HW294437  13.147  10.063  10.360
97514SOL     OW94438   4.060   6.914   2.304
97514SOL    HW194439   3.976   6.870   2.292
97514SOL    HW294440   4.061   6.939   2.396
97515SOL     OW94441   5.839  12.000   3.358
97515SOL    HW194442   5.794  11.993   3.442
97515SOL    HW294443   5.834  12.093   3.335
97516SOL     OW94444   9.598   4.943  10.061
97516SOL    HW194445   9.623   5.034  10.076
97516SOL    HW294446   9.671   4.892  10.096
97517SOL     OW94447   7.874   7.812  12.801
97517SOL    HW194448   7.944   7.751  12.825
97517SOL    HW294449   7.917   7.898  12.800
97518SOL     OW94450   9.582   6.999  11.394
97518SOL    HW194451   9.619   7.045  11.318
97518SOL    HW294452   9.618   6.911  11.390
97519SOL     OW94453   6.712   2.150   8.485
97519SOL    HW194454   6.618   2.137   8.494
97519SOL    HW294455   6.743   2.070   8.442
97520SOL     OW94456   0.253   7.962   6.514
97520SOL    HW194457   0.251   8.049   6.474
97520SOL    HW294458   0.260   7.901   6.440
97521SOL     OW94459   4.995   7.059   2.871
97521SOL    HW194460   4.993   7.043   2.965
97521SOL    HW294461   5.015   6.973   2.833
97522SOL     OW94462  10.323   2.009   5.027
97522SOL    HW194463  10.402   1.958   5.044
97522SOL    HW294464  10.348   2.070   4.957
97523SOL     OW94465   0.653   1.228  14.655
97523SOL    HW194466   0.581   1.182  14.613
97523SOL    HW294467   0.637   1.320  14.636
97524SOL     OW94468   9.944   5.520   0.941
97524SOL    HW194469   9.956   5.434   0.901
97524SOL    HW294470   9.991   5.580   0.883
97525SOL     OW94471  14.860   3.045   3.737
97525SOL    HW194472   0.068   3.103   3.743
97525SOL    HW294473   0.028   2.957   3.754
97526SOL     OW94474  10.229   8.826  10.501
97526SOL    HW194475  10.172   8.903  10.501
97526SOL    HW294476  10.313   8.860  10.470
97527SOL     OW94477  14.819   0.715   0.924
97527SOL    HW194478  14.852   0.768   0.851
97527SOL    HW294479  14.794   0.779   0.991
97528SOL     OW94480   7.648   1.378  10.770
97528SOL    HW194481   7.709   1.432  10.821
97528SOL    HW294482   7.628   1.304  10.827
97529SOL     OW94483   8.017   0.972   5.027
97529SOL    HW194484   7.960   1.036   5.068
97529SOL    HW294485   7.959   0.900   5.002
97530SOL     OW94486   2.547   9.064   7.244
97530SOL    HW194487   2.608   9.023   7.183
97530SOL    HW294488   2.587   9.051   7.330
97531SOL     OW94489   8.613  11.473  10.993
97531SOL    HW194490   8.532  11.433  11.023
97531SOL    HW294491   8.664  11.487  11.074
97532SOL     OW94492   2.426   6.094   1.118
97532SOL    HW194493   2.495   6.036   1.151
97532SOL    HW294494   2.350   6.037   1.106
97533SOL     OW94495  13.906  12.830   6.409
97533SOL    HW194496  13.846  12.826   6.482
97533SOL    HW294497  13.977  12.887   6.439
97534SOL     OW94498   2.738   4.154   4.533
97534SOL    HW194499   2.819   4.202   4.548
97534SOL    HW294500   2.693   4.155   4.617
97535SOL     OW94501   5.466  10.925   7.614
97535SOL    HW194502   5.473  10.836   7.579
97535SOL    HW294503   5.373  10.940   7.625
97536SOL     OW94504   4.909  11.576   3.553
97536SOL    HW194505   4.998  11.610   3.557
97536SOL    HW294506   4.862  11.620   3.623
97537SOL     OW94507   3.145   3.534   1.953
97537SOL    HW194508   3.125   3.553   1.861
97537SOL    HW294509   3.098   3.600   2.003
97538SOL     OW94510   3.198  14.224  10.778
97538SOL    HW194511   3.255  14.155  10.745
97538SOL    HW294512   3.132  14.235  10.710
97539SOL     OW94513   0.633   0.208   3.282
97539SOL    HW194514   0.664   0.118   3.292
97539SOL    HW294515   0.579   0.207   3.203
97540SOL     OW94516   2.069   9.956   2.744
97540SOL    HW194517   2.161   9.959   2.716
97540SOL    HW294518   2.023   9.914   2.671
97541SOL     OW94519  14.370   7.041   3.709
97541SOL    HW194520  14.350   7.108   3.644
97541SOL    HW294521  14.407   6.968   3.658
97542SOL     OW94522  12.721  13.473   6.139
97542SOL    HW194523  12.768  13.415   6.079
97542SOL    HW294524  12.732  13.560   6.102
97543SOL     OW94525   8.426   4.837  10.980
97543SOL    HW194526   8.444   4.753  11.022
97543SOL    HW294527   8.348   4.821  10.926
97544SOL     OW94528  11.427   9.182   9.306
97544SOL    HW194529  11.508   9.171   9.355
97544SOL    HW294530  11.429   9.112   9.240
97545SOL     OW94531   0.090  13.495   6.658
97545SOL    HW194532   0.144  13.428   6.699
97545SOL    HW294533   0.148  13.570   6.648
97546SOL     OW94534   8.312  12.168   4.613
97546SOL    HW194535   8.364  12.186   4.692
97546SOL    HW294536   8.284  12.255   4.584
97547SOL     OW94537   7.173   2.710   6.899
97547SOL    HW194538   7.263   2.733   6.924
97547SOL    HW294539   7.127   2.701   6.982
97548SOL     OW94540   5.452   3.603   3.234
97548SOL    HW194541   5.474   3.535   3.170
97548SOL    HW294542   5.493   3.574   3.315
97549SOL     OW94543  12.548   1.939   3.035
97549SOL    HW194544  12.497   1.974   3.108
97549SOL    HW294545  12.521   1.992   2.960
97550SOL     OW94546  14.182  14.734   1.134
97550SOL    HW194547  14.162  14.643   1.160
97550SOL    HW294548  14.197  14.779   1.217
97551SOL     OW94549   4.283   4.449  11.165
97551SOL    HW194550   4.338   4.411  11.096
97551SOL    HW294551   4.195   4.417  11.146
97552SOL     OW94552  10.265   6.831  14.645
97552SOL    HW194553  10.312   6.915  14.638
97552SOL    HW294554  10.309   6.786  14.717
97553SOL     OW94555  13.883  11.495   6.322
97553SOL    HW194556  13.929  11.552   6.384
97553SOL    HW294557  13.950  11.470   6.258
97554SOL     OW94558   0.905   5.401   5.801
97554SOL    HW194559   0.848   5.399   5.724
97554SOL    HW294560   0.968   5.470   5.782
97555SOL     OW94561  14.801   5.386  12.136
97555SOL    HW194562  14.850   5.332  12.198
97555SOL    HW294563  14.730   5.424  12.188
97556SOL     OW94564   7.614  13.641   6.517
97556SOL    HW194565   7.584  13.564   6.566
97556SOL    HW294566   7.689  13.673   6.568
97557SOL     OW94567   8.767   8.274   2.161
97557SOL    HW194568   8.700   8.249   2.225
97557SOL    HW294569   8.728   8.347   2.112
97558SOL     OW94570  11.735   8.858  13.122
97558SOL    HW194571  11.777   8.940  13.098
97558SOL    HW294572  11.642   8.880  13.131
97559SOL     OW94573   5.186  10.862   0.134
97559SOL    HW194574   5.150  10.775   0.120
97559SOL    HW294575   5.248  10.874   0.062
97560SOL     OW94576   9.810   2.665   0.660
97560SOL    HW194577   9.756   2.688   0.736
97560SOL    HW294578   9.838   2.576   0.677
97561SOL     OW94579   2.167  11.654  12.415
97561SOL    HW194580   2.209  11.740  12.418
97561SOL    HW294581   2.074  11.671  12.429
97562SOL     OW94582   0.124  13.566   2.975
97562SOL    HW194583   0.049  13.508   2.957
97562SOL    HW294584   0.200  13.517   2.945
97563SOL     OW94585   0.660  12.182  14.065
97563SOL    HW194586   0.755  12.197  14.063
97563SOL    HW294587   0.637  12.193  14.157
97564SOL     OW94588   3.564   4.917   9.949
97564SOL    HW194589   3.501   4.901  10.019
97564SOL    HW294590   3.649   4.896   9.988
97565SOL     OW94591  11.944   4.104   7.308
97565SOL    HW194592  11.987   4.142   7.231
97565SOL    HW294593  11.982   4.151   7.382
97566SOL     OW94594  13.321  11.071   5.631
97566SOL    HW194595  13.320  11.120   5.713
97566SOL    HW294596  13.367  10.990   5.652
97567SOL     OW94597   1.212   5.150   9.552
97567SOL    HW194598   1.207   5.203   9.472
97567SOL    HW294599   1.200   5.213   9.623
97568SOL     OW94600   2.509   2.073   4.258
97568SOL    HW194601   2.492   2.153   4.209
97568SOL    HW294602   2.425   2.051   4.298
97569SOL     OW94603  12.164  14.812   5.615
97569SOL    HW194604  12.115   0.021   5.588
97569SOL    HW294605  12.168  14.817   5.711
97570SOL     OW94606   9.089  12.967   9.170
97570SOL    HW194607   9.028  13.038   9.188
97570SOL    HW294608   9.148  13.003   9.102
97571SOL     OW94609  12.265   0.894  10.236
97571SOL    HW194610  12.262   0.867  10.328
97571SOL    HW294611  12.297   0.816  10.190
97572SOL     OW94612   7.044  11.983   4.714
97572SOL    HW194613   6.952  11.984   4.686
97572SOL    HW294614   7.075  12.071   4.696
97573SOL     OW94615   6.290   2.385  14.606
97573SOL    HW194616   6.356   2.316  14.615
97573SOL    HW294617   6.208   2.343  14.631
97574SOL     OW94618  12.160   3.194   9.260
97574SOL    HW194619  12.112   3.112   9.246
97574SOL    HW294620  12.130   3.252   9.189
97575SOL     OW94621   6.319   7.028   2.591
97575SOL    HW194622   6.321   6.978   2.672
97575SOL    HW294623   6.406   7.066   2.583
97576SOL     OW94624   0.445   8.930   2.127
97576SOL    HW194625   0.432   8.864   2.196
97576SOL    HW294626   0.370   8.988   2.134
97577SOL     OW94627   0.891   9.705   5.506
97577SOL    HW194628   0.823   9.680   5.568
97577SOL    HW294629   0.884   9.640   5.436
97578SOL     OW94630  13.543  13.752   5.153
97578SOL    HW194631  13.587  13.731   5.071
97578SOL    HW294632  13.614  13.773   5.214
97579SOL     OW94633  14.270   5.038  14.842
97579SOL    HW194634  14.182   5.069  14.860
97579SOL    HW294635  14.268   4.945  14.867
97580SOL     OW94636   7.396   6.534   9.481
97580SOL    HW194637   7.469   6.559   9.538
97580SOL    HW294638   7.348   6.616   9.467
97581SOL     OW94639  14.355   6.466   9.273
97581SOL    HW194640  14.350   6.556   9.240
97581SOL    HW294641  14.443   6.437   9.253
97582SOL     OW94642   9.729   6.707   5.016
97582SOL    HW194643   9.776   6.786   4.987
97582SOL    HW294644   9.667   6.689   4.946
97583SOL     OW94645   8.919   1.998   7.797
97583SOL    HW194646   8.828   1.997   7.766
97583SOL    HW294647   8.930   2.086   7.834
97584SOL     OW94648   1.045   3.480   5.994
97584SOL    HW194649   1.005   3.565   6.011
97584SOL    HW294650   0.982   3.417   6.027
97585SOL     OW94651  12.029  13.030  11.747
97585SOL    HW194652  12.068  13.113  11.718
97585SOL    HW294653  12.067  12.965  11.688
97586SOL     OW94654  13.703  11.005  13.921
97586SOL    HW194655  13.778  11.054  13.888
97586SOL    HW294656  13.733  10.968  14.003
97587SOL     OW94657   0.802  12.604   6.954
97587SOL    HW194658   0.888  12.565   6.970
97587SOL    HW294659   0.790  12.665   7.026
97588SOL     OW94660  12.704   3.487  10.415
97588SOL    HW194661  12.799   3.501  10.422
97588SOL    HW294662  12.669   3.521  10.497
97589SOL     OW94663   6.005   1.976   6.412
97589SOL    HW194664   6.098   1.990   6.398
97589SOL    HW294665   5.999   1.890   6.453
97590SOL     OW94666  10.023   3.941   9.774
97590SOL    HW194667   9.998   3.917   9.685
97590SOL    HW294668  10.108   3.898   9.787
97591SOL     OW94669  10.474  12.231  12.655
97591SOL    HW194670  10.561  12.194  12.673
97591SOL    HW294671  10.421  12.207  12.732
97592SOL     OW94672   0.789   1.782  12.900
97592SOL    HW194673   0.873   1.744  12.874
97592SOL    HW294674   0.806   1.876  12.908
97593SOL     OW94675  11.376   7.824   4.858
97593SOL    HW194676  11.294   7.783   4.830
97593SOL    HW294677  11.354   7.916   4.870
97594SOL     OW94678  12.201   1.128   9.432
97594SOL    HW194679  12.290   1.098   9.412
97594SOL    HW294680  12.206   1.161   9.522
97595SOL     OW94681   4.215   5.789   7.708
97595SOL    HW194682   4.194   5.882   7.694
97595SOL    HW294683   4.191   5.747   7.626
97596SOL     OW94684   7.428   3.154   9.496
97596SOL    HW194685   7.350   3.128   9.448
97596SOL    HW294686   7.485   3.193   9.430
97597SOL     OW94687  12.595  13.261   1.843
97597SOL    HW194688  12.506  13.296   1.838
97597SOL    HW294689  12.583  13.173   1.880
97598SOL     OW94690   5.840   9.233   4.636
97598SOL    HW194691   5.924   9.216   4.680
97598SOL    HW294692   5.782   9.165   4.670
97599SOL     OW94693   0.412  12.131   1.308
97599SOL    HW194694   0.423  12.038   1.286
97599SOL    HW294695   0.454  12.178   1.236
97600SOL     OW94696  12.238   7.372   1.528
97600SOL    HW194697  12.178   7.305   1.495
97600SOL    HW294698  12.188   7.419   1.594
97601SOL     OW94699  14.086   7.232   2.485
97601SOL    HW194700  14.140   7.200   2.557
97601SOL    HW294701  14.122   7.189   2.407
97602SOL     OW94702   4.924   4.185   3.301
97602SOL    HW194703   4.910   4.210   3.393
97602SOL    HW294704   4.990   4.116   3.305
97603SOL     OW94705  11.323   5.235   0.679
97603SOL    HW194706  11.239   5.251   0.636
97603SOL    HW294707  11.304   5.167   0.743
97604SOL     OW94708   1.947  14.717  14.359
97604SOL    HW194709   1.868  14.747  14.404
97604SOL    HW294710   1.921  14.637  14.314
97605SOL     OW94711   2.824   9.629   1.458
97605SOL    HW194712   2.730   9.625   1.477
97605SOL    HW294713   2.829   9.659   1.368
97606SOL     OW94714   4.283  13.966   1.535
97606SOL    HW194715   4.224  13.964   1.610
97606SOL    HW294716   4.238  13.915   1.467
97607SOL     OW94717   0.532  14.226   4.652
97607SOL    HW194718   0.562  14.285   4.583
97607SOL    HW294719   0.494  14.284   4.718
97608SOL     OW94720   7.177  12.221   6.601
97608SOL    HW194721   7.095  12.249   6.641
97608SOL    HW294722   7.223  12.176   6.672
97609SOL     OW94723  12.785  13.092  11.475
97609SOL    HW194724  12.692  13.072  11.465
97609SOL    HW294725  12.795  13.114  11.568
97610SOL     OW94726   5.005  11.889  14.679
97610SOL    HW194727   4.974  11.848  14.598
97610SOL    HW294728   5.096  11.863  14.686
97611SOL     OW94729   7.382   7.389   3.663
97611SOL    HW194730   7.294   7.377   3.629
97611SOL    HW294731   7.436   7.328   3.612
97612SOL     OW94732   0.230  12.385   9.284
97612SOL    HW194733   0.317  12.411   9.254
97612SOL    HW294734   0.203  12.456   9.342
97613SOL     OW94735   4.150   7.848   0.440
97613SOL    HW194736   4.062   7.819   0.464
97613SOL    HW294737   4.208   7.798   0.497
97614SOL     OW94738   2.941  13.430   0.006
97614SOL    HW194739   3.006  13.407  14.808
97614SOL    HW294740   2.888  13.498  14.833
97615SOL     OW94741  12.426   0.978   7.799
97615SOL    HW194742  12.476   0.908   7.841
97615SOL    HW294743  12.354   0.934   7.755
97616SOL     OW94744   1.016   1.709   9.710
97616SOL    HW194745   1.061   1.698   9.794
97616SOL    HW294746   1.074   1.666   9.646
97617SOL     OW94747  13.536   9.213  13.010
97617SOL    HW194748  13.478   9.259  12.950
97617SOL    HW294749  13.560   9.132  12.964
97618SOL     OW94750   9.519   1.731   3.789
97618SOL    HW194751   9.506   1.710   3.881
97618SOL    HW294752   9.506   1.649   3.743
97619SOL     OW94753  12.903   1.873   8.391
97619SOL    HW194754  12.831   1.916   8.435
97619SOL    HW294755  12.948   1.824   8.461
97620SOL     OW94756   9.519  11.144   3.017
97620SOL    HW194757   9.479  11.141   2.930
97620SOL    HW294758   9.447  11.161   3.077
97621SOL     OW94759   8.146  13.008  11.997
97621SOL    HW194760   8.136  12.967  11.911
97621SOL    HW294761   8.175  12.937  12.054
97622SOL     OW94762   5.836   0.669   3.298
97622SOL    HW194763   5.827   0.672   3.393
97622SOL    HW294764   5.746   0.658   3.266
97623SOL     OW94765   3.299  10.226  13.931
97623SOL    HW194766   3.319  10.138  13.899
97623SOL    HW294767   3.256  10.269  13.857
97624SOL     OW94768   1.500   0.267  12.043
97624SOL    HW194769   1.556   0.345  12.041
97624SOL    HW294770   1.425   0.290  11.988
97625SOL     OW94771   5.291   2.399  12.534
97625SOL    HW194772   5.222   2.395  12.468
97625SOL    HW294773   5.282   2.487  12.573
97626SOL     OW94774   4.361   0.945   5.470
97626SOL    HW194775   4.424   0.994   5.417
97626SOL    HW294776   4.276   0.962   5.429
97627SOL     OW94777   1.997   5.666   0.927
97627SOL    HW194778   1.958   5.751   0.947
97627SOL    HW294779   1.969   5.610   0.999
97628SOL     OW94780   5.363  13.890  10.856
97628SOL    HW194781   5.441  13.945  10.844
97628SOL    HW294782   5.379  13.843  10.938
97629SOL     OW94783   8.366   7.294   7.743
97629SOL    HW194784   8.383   7.201   7.756
97629SOL    HW294785   8.414   7.338   7.813
97630SOL     OW94786  13.915   0.506  13.005
97630SOL    HW194787  13.895   0.595  12.977
97630SOL    HW294788  14.011   0.504  13.015
97631SOL     OW94789   9.186   2.460   4.217
97631SOL    HW194790   9.099   2.423   4.203
97631SOL    HW294791   9.214   2.424   4.301
97632SOL     OW94792  11.689   4.341   6.942
97632SOL    HW194793  11.627   4.398   6.897
97632SOL    HW294794  11.758   4.399   6.973
97633SOL     OW94795   6.304   8.641   8.290
97633SOL    HW194796   6.289   8.546   8.287
97633SOL    HW294797   6.328   8.664   8.201
97634SOL     OW94798  14.676  12.168   7.388
97634SOL    HW194799  14.719  12.215   7.459
97634SOL    HW294800  14.719  12.201   7.308
97635SOL     OW94801   8.205   4.224   2.372
97635SOL    HW194802   8.179   4.285   2.303
97635SOL    HW294803   8.150   4.247   2.447
97636SOL     OW94804   1.801  10.422   7.612
97636SOL    HW194805   1.713  10.459   7.611
97636SOL    HW294806   1.789  10.332   7.582
97637SOL     OW94807  11.901  14.018  12.058
97637SOL    HW194808  11.983  14.011  12.009
97637SOL    HW294809  11.842  14.065  11.999
97638SOL     OW94810  14.688  12.518   5.901
97638SOL    HW194811  14.757  12.580   5.878
97638SOL    HW294812  14.733  12.434   5.910
97639SOL     OW94813   5.681  13.064   6.997
97639SOL    HW194814   5.764  13.017   6.994
97639SOL    HW294815   5.702  13.153   6.967
97640SOL     OW94816   0.466  11.352  13.712
97640SOL    HW194817   0.455  11.276  13.654
97640SOL    HW294818   0.377  11.384  13.726
97641SOL     OW94819   4.053   0.336   2.174
97641SOL    HW194820   3.966   0.354   2.137
97641SOL    HW294821   4.105   0.413   2.154
97642SOL     OW94822   0.290   0.344  13.768
97642SOL    HW194823   0.228   0.417  13.774
97642SOL    HW294824   0.355   0.363  13.835
97643SOL     OW94825   8.666   8.321   1.592
97643SOL    HW194826   8.725   8.390   1.562
97643SOL    HW294827   8.678   8.250   1.529
97644SOL     OW94828  12.341   7.989  12.789
97644SOL    HW194829  12.339   8.024  12.878
97644SOL    HW294830  12.368   7.898  12.799
97645SOL     OW94831  10.661  12.277   4.705
97645SOL    HW194832  10.629  12.351   4.654
97645SOL    HW294833  10.645  12.201   4.650
97646SOL     OW94834  14.537   2.228  13.466
97646SOL    HW194835  14.595   2.179  13.525
97646SOL    HW294836  14.451   2.223  13.509
97647SOL     OW94837   6.640   2.561   1.221
97647SOL    HW194838   6.731   2.540   1.198
97647SOL    HW294839   6.588   2.498   1.171
97648SOL     OW94840   0.403   6.409  10.903
97648SOL    HW194841   0.308   6.409  10.896
97648SOL    HW294842   0.434   6.400  10.813
97649SOL     OW94843   6.385  14.736   7.732
97649SOL    HW194844   6.333  14.795   7.787
97649SOL    HW294845   6.464  14.786   7.711
97650SOL     OW94846   6.093   7.570  10.948
97650SOL    HW194847   6.154   7.560  10.875
97650SOL    HW294848   6.006   7.561  10.909
97651SOL     OW94849   9.839   7.315   4.626
97651SOL    HW194850   9.914   7.352   4.672
97651SOL    HW294851   9.767   7.321   4.689
97652SOL     OW94852   6.122  12.527  11.559
97652SOL    HW194853   6.085  12.450  11.515
97652SOL    HW294854   6.157  12.581  11.488
97653SOL     OW94855   5.716   1.030  11.841
97653SOL    HW194856   5.733   1.007  11.933
97653SOL    HW294857   5.700   0.947  11.798
97654SOL     OW94858   5.350  13.643   0.065
97654SOL    HW194859   5.444  13.638   0.048
97654SOL    HW294860   5.343  13.685   0.151
97655SOL     OW94861   5.602   8.745  10.743
97655SOL    HW194862   5.638   8.833  10.745
97655SOL    HW294863   5.639   8.705  10.664
97656SOL     OW94864   8.868   1.802  14.589
97656SOL    HW194865   8.844   1.792  14.497
97656SOL    HW294866   8.964   1.804  14.589
97657SOL     OW94867   8.248  10.316   8.057
97657SOL    HW194868   8.271  10.275   7.974
97657SOL    HW294869   8.283  10.256   8.123
97658SOL     OW94870   7.902   6.413   4.377
97658SOL    HW194871   7.857   6.438   4.457
97658SOL    HW294872   7.929   6.496   4.337
97659SOL     OW94873  14.044   7.632  12.122
97659SOL    HW194874  14.138   7.616  12.121
97659SOL    HW294875  14.024   7.666  12.035
97660SOL     OW94876   8.608   6.374   0.299
97660SOL    HW194877   8.615   6.286   0.262
97660SOL    HW294878   8.546   6.365   0.371
97661SOL     OW94879   2.310   1.417   3.894
97661SOL    HW194880   2.269   1.368   3.823
97661SOL    HW294881   2.403   1.398   3.886
97662SOL     OW94882   2.324   7.751   1.635
97662SOL    HW194883   2.322   7.775   1.728
97662SOL    HW294884   2.267   7.674   1.630
97663SOL     OW94885   1.490   5.639   4.264
97663SOL    HW194886   1.493   5.734   4.258
97663SOL    HW294887   1.578   5.614   4.291
97664SOL     OW94888  10.239   4.628   5.459
97664SOL    HW194889  10.206   4.538   5.452
97664SOL    HW294890  10.331   4.618   5.481
97665SOL     OW94891   1.774  10.520   1.314
97665SOL    HW194892   1.757  10.527   1.220
97665SOL    HW294893   1.851  10.464   1.320
97666SOL     OW94894   8.498  14.205  13.744
97666SOL    HW194895   8.579  14.242  13.709
97666SOL    HW294896   8.526  14.125  13.789
97667SOL     OW94897   4.791   8.165   8.460
97667SOL    HW194898   4.763   8.083   8.419
97667SOL    HW294899   4.792   8.229   8.388
97668SOL     OW94900   0.600   7.132   1.896
97668SOL    HW194901   0.649   7.076   1.836
97668SOL    HW294902   0.655   7.138   1.974
97669SOL     OW94903   2.300   0.204  12.643
97669SOL    HW194904   2.310   0.241  12.556
97669SOL    HW294905   2.379   0.151  12.656
97670SOL     OW94906   5.864   8.510   3.773
97670SOL    HW194907   5.923   8.475   3.839
97670SOL    HW294908   5.835   8.594   3.807
97671SOL     OW94909   2.720  14.051   0.988
97671SOL    HW194910   2.724  14.027   1.081
97671SOL    HW294911   2.804  14.092   0.970
97672SOL     OW94912   0.989  11.744   9.195
97672SOL    HW194913   0.974  11.743   9.101
97672SOL    HW294914   0.901  11.744   9.233
97673SOL     OW94915   4.033   5.540   6.649
97673SOL    HW194916   4.040   5.461   6.702
97673SOL    HW294917   4.032   5.611   6.713
97674SOL     OW94918   6.384  10.866   1.162
97674SOL    HW194919   6.386  10.841   1.255
97674SOL    HW294920   6.450  10.934   1.154
97675SOL     OW94921   1.813   0.302   0.235
97675SOL    HW194922   1.824   0.396   0.252
97675SOL    HW294923   1.770   0.298   0.150
97676SOL     OW94924  10.678   0.568   1.309
97676SOL    HW194925  10.590   0.553   1.345
97676SOL    HW294926  10.670   0.547   1.216
97677SOL     OW94927   7.298   4.990   4.659
97677SOL    HW194928   7.205   4.974   4.670
97677SOL    HW294929   7.313   5.077   4.695
97678SOL     OW94930   3.572  14.020  13.945
97678SOL    HW194931   3.570  14.087  14.014
97678SOL    HW294932   3.505  13.957  13.971
97679SOL     OW94933  12.887  13.327   8.856
97679SOL    HW194934  12.972  13.366   8.839
97679SOL    HW294935  12.905  13.255   8.916
97680SOL     OW94936   3.939   9.161  14.494
97680SOL    HW194937   3.964   9.090  14.435
97680SOL    HW294938   4.020   9.182  14.541
97681SOL     OW94939   7.780   4.853   5.771
97681SOL    HW194940   7.727   4.811   5.703
97681SOL    HW294941   7.719   4.913   5.815
97682SOL     OW94942  11.063   0.014   3.710
97682SOL    HW194943  10.987   0.027   3.652
97682SOL    HW294944  11.139   0.029   3.654
97683SOL     OW94945   4.774   5.718   5.795
97683SOL    HW194946   4.783   5.711   5.700
97683SOL    HW294947   4.691   5.764   5.808
97684SOL     OW94948   5.610   9.829   2.263
97684SOL    HW194949   5.646   9.864   2.344
97684SOL    HW294950   5.520   9.861   2.261
97685SOL     OW94951   9.937  12.462   9.663
97685SOL    HW194952   9.902  12.395   9.603
97685SOL    HW294953  10.006  12.417   9.712
97686SOL     OW94954   9.105   6.889   0.242
97686SOL    HW194955   9.054   6.930   0.312
97686SOL    HW294956   9.180   6.850   0.287
97687SOL     OW94957   6.559   9.947   6.137
97687SOL    HW194958   6.621   9.896   6.190
97687SOL    HW294959   6.607  10.026   6.114
97688SOL     OW94960  14.471  13.103   9.782
97688SOL    HW194961  14.530  13.029   9.765
97688SOL    HW294962  14.482  13.160   9.706
97689SOL     OW94963   1.422   5.666   2.310
97689SOL    HW194964   1.341   5.681   2.261
97689SOL    HW294965   1.452   5.754   2.333
97690SOL     OW94966   3.938   8.680   5.663
97690SOL    HW194967   3.920   8.607   5.604
97690SOL    HW294968   4.024   8.712   5.636
97691SOL     OW94969   8.922   6.006   9.687
97691SOL    HW194970   8.832   6.030   9.662
97691SOL    HW294971   8.912   5.953   9.766
97692SOL     OW94972   6.225   0.885   6.078
97692SOL    HW194973   6.273   0.966   6.059
97692SOL    HW294974   6.230   0.877   6.173
97693SOL     OW94975   3.230   8.869  12.954
97693SOL    HW194976   3.271   8.911  13.029
97693SOL    HW294977   3.139   8.896  12.958
97694SOL     OW94978   0.849   4.866   1.578
97694SOL    HW194979   0.767   4.870   1.529
97694SOL    HW294980   0.917   4.864   1.511
97695SOL     OW94981   6.808  13.370   5.597
97695SOL    HW194982   6.863  13.341   5.671
97695SOL    HW294983   6.722  13.335   5.617
97696SOL     OW94984  10.336   9.632  10.181
97696SOL    HW194985  10.265   9.574  10.207
97696SOL    HW294986  10.300   9.720  10.190
97697SOL     OW94987   1.708  14.621   3.834
97697SOL    HW194988   1.755  14.694   3.874
97697SOL    HW294989   1.711  14.640   3.740
97698SOL     OW94990  10.459   5.449   0.556
97698SOL    HW194991  10.545   5.415   0.582
97698SOL    HW294992  10.449   5.530   0.605
97699SOL     OW94993   4.709  12.862  13.682
97699SOL    HW194994   4.739  12.931  13.741
97699SOL    HW294995   4.731  12.780  13.727
97700SOL     OW94996   4.260   5.019   9.798
97700SOL    HW194997   4.254   4.994   9.706
97700SOL    HW294998   4.220   5.105   9.802
97701SOL     OW94999   2.955   7.249   2.150
97701SOL    HW195000   3.043   7.244   2.187
97701SOL    HW295001   2.955   7.330   2.098
97702SOL     OW95002   0.869   1.641   7.080
97702SOL    HW195003   0.884   1.731   7.112
97702SOL    HW295004   0.882   1.587   7.158
97703SOL     OW95005  10.373  12.749   5.715
97703SOL    HW195006  10.364  12.676   5.776
97703SOL    HW295007  10.313  12.816   5.749
97704SOL     OW95008   9.823   2.628  11.776
97704SOL    HW195009   9.776   2.704  11.741
97704SOL    HW295010   9.892   2.611  11.713
97705SOL     OW95011  13.132   9.201   2.722
97705SOL    HW195012  13.204   9.258   2.693
97705SOL    HW295013  13.160   9.113   2.697
97706SOL     OW95014   6.420  10.117  10.798
97706SOL    HW195015   6.417  10.038  10.851
97706SOL    HW295016   6.343  10.111  10.742
97707SOL     OW95017   8.303   7.211   9.095
97707SOL    HW195018   8.220   7.232   9.138
97707SOL    HW295019   8.280   7.206   9.002
97708SOL     OW95020  11.596   0.797   8.777
97708SOL    HW195021  11.681   0.754   8.772
97708SOL    HW295022  11.616   0.888   8.798
97709SOL     OW95023   9.670   4.520   9.320
97709SOL    HW195024   9.687   4.545   9.229
97709SOL    HW295025   9.603   4.581   9.350
97710SOL     OW95026  12.120  11.101   7.483
97710SOL    HW195027  12.194  11.139   7.438
97710SOL    HW295028  12.059  11.174   7.496
97711SOL     OW95029   5.883   2.163  10.057
97711SOL    HW195030   5.893   2.198  10.146
97711SOL    HW295031   5.800   2.116  10.058
97712SOL     OW95032   2.074   9.424  11.837
97712SOL    HW195033   2.129   9.431  11.759
97712SOL    HW295034   2.042   9.513  11.852
97713SOL     OW95035   1.117   0.963  11.832
97713SOL    HW195036   1.073   0.915  11.761
97713SOL    HW295037   1.210   0.949  11.816
97714SOL     OW95038   2.291   7.761  10.164
97714SOL    HW195039   2.364   7.715  10.206
97714SOL    HW295040   2.312   7.760  10.071
97715SOL     OW95041  10.821   6.549   0.060
97715SOL    HW195042  10.862   6.627   0.097
97715SOL    HW295043  10.729   6.557   0.082
97716SOL     OW95044  13.500   8.646   9.008
97716SOL    HW195045  13.431   8.580   9.007
97716SOL    HW295046  13.555   8.625   8.933
97717SOL     OW95047   4.333   8.932  10.286
97717SOL    HW195048   4.263   8.869  10.303
97717SOL    HW295049   4.289   9.017  10.287
97718SOL     OW95050   5.290   6.164   8.596
97718SOL    HW195051   5.354   6.109   8.550
97718SOL    HW295052   5.341   6.241   8.624
97719SOL     OW95053  14.347   5.268  11.853
97719SOL    HW195054  14.311   5.181  11.836
97719SOL    HW295055  14.315   5.289  11.941
97720SOL     OW95056  12.281  12.696   7.644
97720SOL    HW195057  12.298  12.615   7.693
97720SOL    HW295058  12.348  12.757   7.674
97721SOL     OW95059   5.708   4.907   1.545
97721SOL    HW195060   5.779   4.923   1.482
97721SOL    HW295061   5.682   4.817   1.529
97722SOL     OW95062   1.419   7.016   9.133
97722SOL    HW195063   1.342   7.005   9.189
97722SOL    HW295064   1.420   6.937   9.079
97723SOL     OW95065   5.865   3.826  14.122
97723SOL    HW195066   5.924   3.873  14.064
97723SOL    HW295067   5.850   3.742  14.078
97724SOL     OW95068  13.120   2.890   8.134
97724SOL    HW195069  13.181   2.878   8.206
97724SOL    HW295070  13.039   2.849   8.163
97725SOL     OW95071  13.561   7.663  11.070
97725SOL    HW195072  13.520   7.589  11.114
97725SOL    HW295073  13.556   7.734  11.134
97726SOL     OW95074   6.154  12.680  11.306
97726SOL    HW195075   6.073  12.722  11.278
97726SOL    HW295076   6.152  12.593  11.264
97727SOL     OW95077   2.079  13.112   1.279
97727SOL    HW195078   2.172  13.093   1.291
97727SOL    HW295079   2.078  13.194   1.229
97728SOL     OW95080   3.449  10.752  14.121
97728SOL    HW195081   3.421  10.728  14.209
97728SOL    HW295082   3.424  10.677  14.066
97729SOL     OW95083   5.623  11.202   4.485
97729SOL    HW195084   5.573  11.177   4.562
97729SOL    HW295085   5.656  11.290   4.504
97730SOL     OW95086   0.202   3.995  14.618
97730SOL    HW195087   0.231   3.904  14.614
97730SOL    HW295088   0.279   4.043  14.648
97731SOL     OW95089   7.720   5.443   2.044
97731SOL    HW195090   7.630   5.449   2.011
97731SOL    HW295091   7.711   5.439   2.139
97732SOL     OW95092   4.723   6.924   9.801
97732SOL    HW195093   4.774   6.852   9.764
97732SOL    HW295094   4.750   6.928   9.892
97733SOL     OW95095   3.459   5.396  14.171
97733SOL    HW195096   3.415   5.477  14.195
97733SOL    HW295097   3.544   5.423  14.135
97734SOL     OW95098   7.800   7.103   1.002
97734SOL    HW195099   7.838   7.048   0.933
97734SOL    HW295100   7.794   7.045   1.078
97735SOL     OW95101   7.912   6.953   4.365
97735SOL    HW195102   8.006   6.937   4.352
97735SOL    HW295103   7.908   7.020   4.434
97736SOL     OW95104  12.798  10.725   9.035
97736SOL    HW195105  12.877  10.700   9.083
97736SOL    HW295106  12.782  10.651   8.976
97737SOL     OW95107   5.542   1.779   8.694
97737SOL    HW195108   5.570   1.756   8.605
97737SOL    HW295109   5.573   1.707   8.748
97738SOL     OW95110   0.796  14.111   4.780
97738SOL    HW195111   0.826  14.170   4.711
97738SOL    HW295112   0.702  14.104   4.765
97739SOL     OW95113   0.054   3.478   4.994
97739SOL    HW195114   0.065   3.512   4.905
97739SOL    HW295115   0.009   3.395   4.982
97740SOL     OW95116   7.827   7.547   6.401
97740SOL    HW195117   7.868   7.632   6.417
97740SOL    HW295118   7.890   7.500   6.347
97741SOL     OW95119   1.631   4.181  13.130
97741SOL    HW195120   1.595   4.127  13.200
97741SOL    HW295121   1.556   4.228  13.094
97742SOL     OW95122  11.038   9.094   5.007
97742SOL    HW195123  11.130   9.094   4.982
97742SOL    HW295124  11.016   9.187   5.020
97743SOL     OW95125   7.309  12.447  13.674
97743SOL    HW195126   7.214  12.461  13.670
97743SOL    HW295127   7.334  12.474  13.762
97744SOL     OW95128  10.586   1.997   2.191
97744SOL    HW195129  10.594   2.050   2.112
97744SOL    HW295130  10.668   1.949   2.196
97745SOL     OW95131   1.079   4.245  14.230
97745SOL    HW195132   1.081   4.337  14.205
97745SOL    HW295133   0.987   4.227  14.249
97746SOL     OW95134   3.217   8.191  11.958
97746SOL    HW195135   3.227   8.168  11.866
97746SOL    HW295136   3.123   8.198  11.971
97747SOL     OW95137   9.147  11.147   3.744
97747SOL    HW195138   9.131  11.054   3.758
97747SOL    HW295139   9.138  11.186   3.831
97748SOL     OW95140  14.017  14.671  12.181
97748SOL    HW195141  13.971  14.750  12.210
97748SOL    HW295142  14.031  14.621  12.261
97749SOL     OW95143   8.624   8.520   3.459
97749SOL    HW195144   8.560   8.557   3.398
97749SOL    HW295145   8.701   8.575   3.450
97750SOL     OW95146   0.586   9.990   1.895
97750SOL    HW195147   0.656  10.011   1.956
97750SOL    HW295148   0.514   9.960   1.950
97751SOL     OW95149  12.680   7.742   4.266
97751SOL    HW195150  12.712   7.733   4.176
97751SOL    HW295151  12.590   7.774   4.257
97752SOL     OW95152   5.283   2.663   4.269
97752SOL    HW195153   5.355   2.718   4.301
97752SOL    HW295154   5.310   2.637   4.181
97753SOL     OW95155  10.993   1.764   7.249
97753SOL    HW195156  10.981   1.669   7.256
97753SOL    HW295157  11.066   1.783   7.308
97754SOL     OW95158   6.337   4.134  14.013
97754SOL    HW195159   6.366   4.092  13.932
97754SOL    HW295160   6.412   4.184  14.043
97755SOL     OW95161  12.793   4.210   9.589
97755SOL    HW195162  12.808   4.286   9.534
97755SOL    HW295163  12.851   4.222   9.664
97756SOL     OW95164  11.112   1.854   0.239
97756SOL    HW195165  11.102   1.761   0.262
97756SOL    HW295166  11.043   1.898   0.288
97757SOL     OW95167  10.276  14.020  10.403
97757SOL    HW195168  10.270  14.009  10.308
97757SOL    HW295169  10.208  14.083  10.424
97758SOL     OW95170   1.610   0.906   1.749
97758SOL    HW195171   1.530   0.924   1.798
97758SOL    HW295172   1.608   0.965   1.674
97759SOL     OW95173  10.745  11.408   5.653
97759SOL    HW195174  10.678  11.474   5.634
97759SOL    HW295175  10.800  11.406   5.575
97760SOL     OW95176   7.758   8.747   4.727
97760SOL    HW195177   7.723   8.720   4.643
97760SOL    HW295178   7.804   8.829   4.709
97761SOL     OW95179   7.865   8.225  12.044
97761SOL    HW195180   7.865   8.317  12.070
97761SOL    HW295181   7.818   8.223  11.961
97762SOL     OW95182   9.198   9.219   4.888
97762SOL    HW195183   9.273   9.216   4.947
97762SOL    HW295184   9.232   9.189   4.804
97763SOL     OW95185   8.954   1.106   3.860
97763SOL    HW195186   8.885   1.114   3.926
97763SOL    HW295187   8.982   1.196   3.844
97764SOL     OW95188   7.012   8.579   4.097
97764SOL    HW195189   7.010   8.567   4.192
97764SOL    HW295190   7.058   8.503   4.064
97765SOL     OW95191  11.025   9.227   9.064
97765SOL    HW195192  10.956   9.290   9.085
97765SOL    HW295193  11.040   9.180   9.146
97766SOL     OW95194   6.841  10.937   6.197
97766SOL    HW195195   6.875  10.851   6.171
97766SOL    HW295196   6.775  10.918   6.263
97767SOL     OW95197   7.911   6.672   9.992
97767SOL    HW195198   7.857   6.605  10.034
97767SOL    HW295199   7.892   6.752  10.041
97768SOL     OW95200   8.790   9.664   7.445
97768SOL    HW195201   8.866   9.652   7.389
97768SOL    HW295202   8.718   9.622   7.398
97769SOL     OW95203   6.566   4.452   8.765
97769SOL    HW195204   6.484   4.502   8.773
97769SOL    HW295205   6.635   4.518   8.771
97770SOL     OW95206  14.521  13.519  10.774
97770SOL    HW195207  14.488  13.550  10.858
97770SOL    HW295208  14.613  13.498  10.791
97771SOL     OW95209   0.680   2.081   1.231
97771SOL    HW195210   0.694   1.990   1.203
97771SOL    HW295211   0.751   2.130   1.190
97772SOL     OW95212   7.144   7.150  13.706
97772SOL    HW195213   7.161   7.067  13.662
97772SOL    HW295214   7.064   7.135  13.757
97773SOL     OW95215  12.011   0.177   1.380
97773SOL    HW195216  11.945   0.184   1.311
97773SOL    HW295217  12.080   0.122   1.342
97774SOL     OW95218   9.342   4.145   1.457
97774SOL    HW195219   9.421   4.149   1.512
97774SOL    HW295220   9.285   4.082   1.500
97775SOL     OW95221  14.298   1.398   2.854
97775SOL    HW195222  14.362   1.375   2.786
97775SOL    HW295223  14.274   1.489   2.834
97776SOL     OW95224   6.740   3.567  11.184
97776SOL    HW195225   6.693   3.650  11.179
97776SOL    HW295226   6.814   3.577  11.124
97777SOL     OW95227   6.195  11.393   7.588
97777SOL    HW195228   6.272  11.336   7.591
97777SOL    HW295229   6.121  11.333   7.598
97778SOL     OW95230   6.270   7.306   8.817
97778SOL    HW195231   6.273   7.230   8.876
97778SOL    HW295232   6.178   7.314   8.792
97779SOL     OW95233  13.615  12.183   0.328
97779SOL    HW195234  13.701  12.144   0.346
97779SOL    HW295235  13.593  12.232   0.407
97780SOL     OW95236  12.961  12.305  13.815
97780SOL    HW195237  13.056  12.299  13.828
97780SOL    HW295238  12.942  12.237  13.750
97781SOL     OW95239   4.621  13.685   4.512
97781SOL    HW195240   4.713  13.687   4.485
97781SOL    HW295241   4.619  13.736   4.593
97782SOL     OW95242  12.188   5.576   1.370
97782SOL    HW195243  12.240   5.584   1.290
97782SOL    HW295244  12.163   5.483   1.373
97783SOL     OW95245  12.713   4.049  12.529
97783SOL    HW195246  12.807   4.063  12.533
97783SOL    HW295247  12.702   3.984  12.459
97784SOL     OW95248   0.329   1.450  10.087
97784SOL    HW195249   0.332   1.419  10.178
97784SOL    HW295250   0.248   1.501  10.082
97785SOL     OW95251   6.348   1.580   2.684
97785SOL    HW195252   6.401   1.554   2.608
97785SOL    HW295253   6.356   1.675   2.687
97786SOL     OW95254   9.143  13.434  11.935
97786SOL    HW195255   9.222  13.475  11.970
97786SOL    HW295256   9.109  13.381  12.007
97787SOL     OW95257  10.599   1.589   8.897
97787SOL    HW195258  10.640   1.620   8.978
97787SOL    HW295259  10.514   1.632   8.895
97788SOL     OW95260  13.396   4.268   7.857
97788SOL    HW195261  13.438   4.186   7.830
97788SOL    HW295262  13.370   4.309   7.775
97789SOL     OW95263   4.475  13.771  14.371
97789SOL    HW195264   4.443  13.785  14.460
97789SOL    HW295265   4.564  13.805  14.372
97790SOL     OW95266   9.342  11.405   0.514
97790SOL    HW195267   9.401  11.465   0.558
97790SOL    HW295268   9.260  11.454   0.503
97791SOL     OW95269  10.761   5.955  11.839
97791SOL    HW195270  10.745   6.049  11.843
97791SOL    HW295271  10.758   5.934  11.746
97792SOL     OW95272   4.601  12.650   5.788
97792SOL    HW195273   4.646  12.625   5.869
97792SOL    HW295274   4.670  12.683   5.731
97793SOL     OW95275   9.886   5.012   3.301
97793SOL    HW195276   9.842   4.982   3.380
97793SOL    HW295277   9.973   4.972   3.306
97794SOL     OW95278  11.380   6.534  12.079
97794SOL    HW195279  11.343   6.449  12.057
97794SOL    HW295280  11.326   6.597  12.031
97795SOL     OW95281   0.834  13.417  11.525
97795SOL    HW195282   0.778  13.469  11.468
97795SOL    HW295283   0.774  13.378  11.588
97796SOL     OW95284   2.711   4.916   7.365
97796SOL    HW195285   2.647   4.879   7.426
97796SOL    HW295286   2.735   5.000   7.404
97797SOL     OW95287   2.940  13.962   8.068
97797SOL    HW195288   2.964  13.955   8.160
97797SOL    HW295289   2.896  13.879   8.048
97798SOL     OW95290   4.641   0.642   3.935
97798SOL    HW195291   4.655   0.614   4.026
97798SOL    HW295292   4.556   0.686   3.936
97799SOL     OW95293   4.478   4.266  13.347
97799SOL    HW195294   4.433   4.332  13.294
97799SOL    HW295295   4.567   4.300  13.357
97800SOL     OW95296   9.186   6.309  10.769
97800SOL    HW195297   9.205   6.343  10.681
97800SOL    HW295298   9.230   6.370  10.828
97801SOL     OW95299   7.029   7.200  12.119
97801SOL    HW195300   7.123   7.189  12.107
97801SOL    HW295301   7.008   7.145  12.195
97802SOL     OW95302  14.769   1.517   8.646
97802SOL    HW195303  14.789   1.469   8.726
97802SOL    HW295304  14.808   1.464   8.576
97803SOL     OW95305  11.977  12.246  13.098
97803SOL    HW195306  11.892  12.203  13.107
97803SOL    HW295307  11.973  12.320  13.159
97804SOL     OW95308   9.972   0.774   2.446
97804SOL    HW195309  10.018   0.727   2.376
97804SOL    HW295310   9.974   0.714   2.520
97805SOL     OW95311   6.701  12.140   0.039
97805SOL    HW195312   6.688  12.131   0.133
97805SOL    HW295313   6.620  12.107  14.868
97806SOL     OW95314   9.334  11.710  14.670
97806SOL    HW195315   9.409  11.711  14.728
97806SOL    HW295316   9.357  11.646  14.602
97807SOL     OW95317  12.038  10.852   4.006
97807SOL    HW195318  11.978  10.818   3.940
97807SOL    HW295319  12.056  10.942   3.978
97808SOL     OW95320  10.362   4.764   8.845
97808SOL    HW195321  10.411   4.687   8.816
97808SOL    HW295322  10.429   4.830   8.863
97809SOL     OW95323   7.721  12.586   6.810
97809SOL    HW195324   7.688  12.507   6.853
97809SOL    HW295325   7.644  12.642   6.800
97810SOL     OW95326   1.842   3.887   7.430
97810SOL    HW195327   1.754   3.882   7.466
97810SOL    HW295328   1.883   3.961   7.475
97811SOL     OW95329   5.344   3.226   1.408
97811SOL    HW195330   5.284   3.152   1.421
97811SOL    HW295331   5.287   3.298   1.381
97812SOL     OW95332   6.556  13.040   4.962
97812SOL    HW195333   6.602  12.982   4.902
97812SOL    HW295334   6.610  13.041   5.041
97813SOL     OW95335   9.484   8.579   0.762
97813SOL    HW195336   9.480   8.486   0.786
97813SOL    HW295337   9.469   8.626   0.844
97814SOL     OW95338  13.900   3.074  12.499
97814SOL    HW195339  13.959   3.139  12.461
97814SOL    HW295340  13.927   2.991  12.458
97815SOL     OW95341   2.169  11.857  12.893
97815SOL    HW195342   2.108  11.789  12.865
97815SOL    HW295343   2.236  11.810  12.943
97816SOL     OW95344   9.324   0.334   4.703
97816SOL    HW195345   9.284   0.292   4.779
97816SOL    HW295346   9.347   0.422   4.733
97817SOL     OW95347  13.673   2.259  13.122
97817SOL    HW195348  13.609   2.254  13.051
97817SOL    HW295349  13.664   2.176  13.169
97818SOL     OW95350  12.616   9.852   3.081
97818SOL    HW195351  12.598   9.769   3.125
97818SOL    HW295352  12.706   9.844   3.049
97819SOL     OW95353   8.611   8.054   1.961
97819SOL    HW195354   8.559   8.110   2.018
97819SOL    HW295355   8.564   7.970   1.960
97820SOL     OW95356   2.569   2.631  10.350
97820SOL    HW195357   2.645   2.689  10.348
97820SOL    HW295358   2.494   2.687  10.330
97821SOL     OW95359  12.341  13.069   3.497
97821SOL    HW195360  12.267  13.057   3.436
97821SOL    HW295361  12.371  13.158   3.481
97822SOL     OW95362   4.829  11.608  12.123
97822SOL    HW195363   4.876  11.661  12.059
97822SOL    HW295364   4.889  11.602  12.197
97823SOL     OW95365  10.311   5.390  13.406
97823SOL    HW195366  10.252   5.343  13.347
97823SOL    HW295367  10.358   5.320  13.453
97824SOL     OW95368  13.353   0.837   2.471
97824SOL    HW195369  13.361   0.888   2.390
97824SOL    HW295370  13.314   0.897   2.534
97825SOL     OW95371   3.983  11.406   8.137
97825SOL    HW195372   3.905  11.365   8.174
97825SOL    HW295373   3.978  11.497   8.166
97826SOL     OW95374   2.544   2.069   2.066
97826SOL    HW195375   2.631   2.035   2.044
97826SOL    HW295376   2.549   2.088   2.160
97827SOL     OW95377   4.505   4.929   8.211
97827SOL    HW195378   4.448   4.984   8.158
97827SOL    HW295379   4.489   4.957   8.301
97828SOL     OW95380   5.187   6.612   2.385
97828SOL    HW195381   5.115   6.553   2.365
97828SOL    HW295382   5.170   6.690   2.332
97829SOL     OW95383   8.031  11.526   0.149
97829SOL    HW195384   7.999  11.576   0.224
97829SOL    HW295385   7.981  11.445   0.151
97830SOL     OW95386   2.554   9.815   4.247
97830SOL    HW195387   2.585   9.904   4.262
97830SOL    HW295388   2.510   9.791   4.328
97831SOL     OW95389   8.028   5.074  10.733
97831SOL    HW195390   8.021   5.120  10.649
97831SOL    HW295391   7.939   5.042  10.750
97832SOL     OW95392   6.882  12.841   7.094
97832SOL    HW195393   6.905  12.920   7.142
97832SOL    HW295394   6.853  12.779   7.160
97833SOL     OW95395   0.647   6.094  10.848
97833SOL    HW195396   0.552   6.109  10.849
97833SOL    HW295397   0.659   6.015  10.900
97834SOL     OW95398  14.521   0.466  11.635
97834SOL    HW195399  14.466   0.405  11.683
97834SOL    HW295400  14.575   0.410  11.579
97835SOL     OW95401   2.009   2.929   7.034
97835SOL    HW195402   1.953   2.860   7.069
97835SOL    HW295403   2.057   2.887   6.963
97836SOL     OW95404  10.585   5.331   1.278
97836SOL    HW195405  10.554   5.255   1.326
97836SOL    HW295406  10.513   5.354   1.220
97837SOL     OW95407   9.083   2.801  13.622
97837SOL    HW195408   9.102   2.859  13.547
97837SOL    HW295409   8.988   2.790  13.619
97838SOL     OW95410   6.124   9.846   8.648
97838SOL    HW195411   6.123   9.753   8.624
97838SOL    HW295412   6.216   9.870   8.645
97839SOL     OW95413  11.466   5.410   0.276
97839SOL    HW195414  11.459   5.490   0.225
97839SOL    HW295415  11.483   5.341   0.212
97840SOL     OW95416  10.277   0.069  13.724
97840SOL    HW195417  10.310   0.029  13.805
97840SOL    HW295418  10.229   0.147  13.753
97841SOL     OW95419  14.148   7.414  11.422
97841SOL    HW195420  14.139   7.391  11.329
97841SOL    HW295421  14.179   7.504  11.421
97842SOL     OW95422  11.381   4.377   1.703
97842SOL    HW195423  11.421   4.443   1.759
97842SOL    HW295424  11.286   4.389   1.716
97843SOL     OW95425   1.915   1.074   4.332
97843SOL    HW195426   1.987   1.042   4.387
97843SOL    HW295427   1.884   0.996   4.286
97844SOL     OW95428  11.096   7.961  10.690
97844SOL    HW195429  11.023   7.995  10.742
97844SOL    HW295430  11.054   7.922  10.613
97845SOL     OW95431   9.023   7.852   0.759
97845SOL    HW195432   9.055   7.892   0.839
97845SOL    HW295433   8.959   7.915   0.724
97846SOL     OW95434   2.093   4.261  12.907
97846SOL    HW195435   2.008   4.218  12.912
97846SOL    HW295436   2.136   4.239  12.990
97847SOL     OW95437   9.032  13.675   4.904
97847SOL    HW195438   8.973  13.689   4.830
97847SOL    HW295439   9.112  13.721   4.880
97848SOL     OW95440  13.684   4.907   2.083
97848SOL    HW195441  13.772   4.924   2.051
97848SOL    HW295442  13.629   4.968   2.034
97849SOL     OW95443  12.836   0.599   2.363
97849SOL    HW195444  12.899   0.636   2.301
97849SOL    HW295445  12.781   0.674   2.388
97850SOL     OW95446   4.206  13.714  11.923
97850SOL    HW195447   4.276  13.689  11.862
97850SOL    HW295448   4.139  13.752  11.867
97851SOL     OW95449   6.495  13.793   0.368
97851SOL    HW195450   6.475  13.699   0.363
97851SOL    HW295451   6.413  13.833   0.397
97852SOL     OW95452   4.466  14.537   3.467
97852SOL    HW195453   4.517  14.613   3.440
97852SOL    HW295454   4.479  14.474   3.397
97853SOL     OW95455  13.672   6.569   9.808
97853SOL    HW195456  13.699   6.477   9.806
97853SOL    HW295457  13.669   6.591   9.901
97854SOL     OW95458   5.161   1.506  10.637
97854SOL    HW195459   5.165   1.601  10.630
97854SOL    HW295460   5.187   1.488  10.728
97855SOL     OW95461  10.976   3.133   9.709
97855SOL    HW195462  10.914   3.101   9.643
97855SOL    HW295463  10.988   3.225   9.687
97856SOL     OW95464   3.158   6.570   0.780
97856SOL    HW195465   3.079   6.602   0.823
97856SOL    HW295466   3.227   6.584   0.844
97857SOL     OW95467  12.316   8.527  13.277
97857SOL    HW195468  12.289   8.437  13.295
97857SOL    HW295469  12.378   8.519  13.205
97858SOL     OW95470  13.832   6.298   7.471
97858SOL    HW195471  13.842   6.380   7.520
97858SOL    HW295472  13.772   6.246   7.524
97859SOL     OW95473   4.908   0.715   2.833
97859SOL    HW195474   4.912   0.680   2.922
97859SOL    HW295475   4.870   0.802   2.844
97860SOL     OW95476  12.042   1.199   2.969
97860SOL    HW195477  12.105   1.177   3.038
97860SOL    HW295478  12.094   1.204   2.890
97861SOL     OW95479   3.971   3.160   2.960
97861SOL    HW195480   4.064   3.161   2.983
97861SOL    HW295481   3.963   3.222   2.887
97862SOL     OW95482   9.121   0.265   0.703
97862SOL    HW195483   9.136   0.207   0.629
97862SOL    HW295484   9.029   0.254   0.724
97863SOL     OW95485   3.391  13.759  12.042
97863SOL    HW195486   3.339  13.687  12.007
97863SOL    HW295487   3.468  13.717  12.080
97864SOL     OW95488   6.170  10.865   9.768
97864SOL    HW195489   6.221  10.944   9.754
97864SOL    HW295490   6.107  10.889   9.836
97865SOL     OW95491  11.061  10.149   6.708
97865SOL    HW195492  10.977  10.195   6.715
97865SOL    HW295493  11.050  10.070   6.762
97866SOL     OW95494   1.447   6.943   1.298
97866SOL    HW195495   1.371   6.994   1.269
97866SOL    HW295496   1.483   6.993   1.372
97867SOL     OW95497  12.891  10.152  12.910
97867SOL    HW195498  12.822  10.206  12.871
97867SOL    HW295499  12.932  10.108  12.836
97868SOL     OW95500  14.012   4.947   8.008
97868SOL    HW195501  13.957   4.875   7.977
97868SOL    HW295502  14.095   4.906   8.031
97869SOL     OW95503   1.993  13.113   6.500
97869SOL    HW195504   2.036  13.050   6.443
97869SOL    HW295505   1.931  13.159   6.444
97870SOL     OW95506   8.678   7.073  12.773
97870SOL    HW195507   8.732   7.031  12.706
97870SOL    HW295508   8.740   7.104  12.838
97871SOL     OW95509  14.044   2.414  13.885
97871SOL    HW195510  14.002   2.369  13.812
97871SOL    HW295511  14.064   2.502  13.851
97872SOL     OW95512   6.360   7.545  13.109
97872SOL    HW195513   6.390   7.627  13.150
97872SOL    HW295514   6.336   7.571  13.020
97873SOL     OW95515  13.514   1.932   8.738
97873SOL    HW195516  13.556   1.876   8.803
97873SOL    HW295517  13.472   2.001   8.790
97874SOL     OW95518   7.739   0.636   4.283
97874SOL    HW195519   7.789   0.717   4.295
97874SOL    HW295520   7.666   0.644   4.344
97875SOL     OW95521  14.032   2.580   7.863
97875SOL    HW195522  14.059   2.510   7.803
97875SOL    HW295523  14.030   2.659   7.810
97876SOL     OW95524  13.533   0.058  11.521
97876SOL    HW195525  13.505   0.143  11.555
97876SOL    HW295526  13.469  14.864  11.555
97877SOL     OW95527   3.157  10.414   0.509
97877SOL    HW195528   3.238  10.386   0.466
97877SOL    HW295529   3.089  10.396   0.444
97878SOL     OW95530   0.101   7.772   5.057
97878SOL    HW195531   0.034   7.776   4.989
97878SOL    HW295532   0.175   7.727   5.016
97879SOL     OW95533   3.298   0.249   1.199
97879SOL    HW195534   3.370   0.243   1.136
97879SOL    HW295535   3.221   0.221   1.150
97880SOL     OW95536   8.864   3.635  12.153
97880SOL    HW195537   8.840   3.687  12.230
97880SOL    HW295538   8.782   3.622  12.106
97881SOL     OW95539  14.206   2.995   1.535
97881SOL    HW195540  14.273   2.960   1.476
97881SOL    HW295541  14.138   2.928   1.536
97882SOL     OW95542  10.238  10.455   6.169
97882SOL    HW195543  10.256  10.540   6.129
97882SOL    HW295544  10.318  10.433   6.217
97883SOL     OW95545   5.662  13.707   7.692
97883SOL    HW195546   5.671  13.721   7.597
97883SOL    HW295547   5.712  13.627   7.709
97884SOL     OW95548  13.753   6.531   7.896
97884SOL    HW195549  13.820   6.599   7.892
97884SOL    HW295550  13.783   6.464   7.834
97885SOL     OW95551   8.006   8.995   0.607
97885SOL    HW195552   8.097   9.010   0.583
97885SOL    HW295553   7.955   9.043   0.541
97886SOL     OW95554   4.882   3.690  10.336
97886SOL    HW195555   4.899   3.783  10.326
97886SOL    HW295556   4.858   3.660  10.248
97887SOL     OW95557   2.642   8.937   0.308
97887SOL    HW195558   2.653   8.845   0.334
97887SOL    HW295559   2.605   8.979   0.386
97888SOL     OW95560   2.794   0.096  12.458
97888SOL    HW195561   2.765   0.169  12.403
97888SOL    HW295562   2.839   0.138  12.532
97889SOL     OW95563  11.468  13.722  11.179
97889SOL    HW195564  11.403  13.686  11.119
97889SOL    HW295565  11.418  13.753  11.254
97890SOL     OW95566  12.098  10.056   1.453
97890SOL    HW195567  12.136  10.057   1.541
97890SOL    HW295568  12.136   9.979   1.410
97891SOL     OW95569   4.635   5.099   2.086
97891SOL    HW195570   4.550   5.069   2.053
97891SOL    HW295571   4.669   5.023   2.135
97892SOL     OW95572   7.925   5.691   6.511
97892SOL    HW195573   7.926   5.618   6.573
97892SOL    HW295574   7.963   5.655   6.431
97893SOL     OW95575   3.364   8.136   2.385
97893SOL    HW195576   3.335   8.057   2.430
97893SOL    HW295577   3.347   8.119   2.292
97894SOL     OW95578   3.563  11.858   4.181
97894SOL    HW195579   3.507  11.803   4.236
97894SOL    HW295580   3.651  11.845   4.216
97895SOL     OW95581   9.297   2.304   6.080
97895SOL    HW195582   9.384   2.343   6.078
97895SOL    HW295583   9.312   2.210   6.071
97896SOL     OW95584  11.831   6.393   2.389
97896SOL    HW195585  11.739   6.419   2.387
97896SOL    HW295586  11.873   6.458   2.445
97897SOL     OW95587   0.001  12.379  10.513
97897SOL    HW195588  14.834  12.438  10.580
97897SOL    HW295589  14.800  12.374  10.448
97898SOL     OW95590   0.396   6.332   2.161
97898SOL    HW195591   0.365   6.268   2.097
97898SOL    HW295592   0.362   6.416   2.129
97899SOL     OW95593  14.169   0.296  10.158
97899SOL    HW195594  14.247   0.251  10.189
97899SOL    HW295595  14.133   0.337  10.237
97900SOL     OW95596  12.648  10.366   7.481
97900SOL    HW195597  12.617  10.349   7.392
97900SOL    HW295598  12.611  10.452   7.503
97901SOL     OW95599  10.303   4.449  12.207
97901SOL    HW195600  10.378   4.393  12.188
97901SOL    HW295601  10.340   4.538  12.211
97902SOL     OW95602   5.741   3.066   2.408
97902SOL    HW195603   5.649   3.043   2.393
97902SOL    HW295604   5.773   3.091   2.322
97903SOL     OW95605   0.923  10.037  13.460
97903SOL    HW195606   0.989  10.014  13.395
97903SOL    HW295607   0.936   9.973  13.530
97904SOL     OW95608  14.763  14.582   7.715
97904SOL    HW195609  14.858  14.583   7.711
97904SOL    HW295610  14.743  14.603   7.807
97905SOL     OW95611  11.826   8.925   0.954
97905SOL    HW195612  11.816   9.003   1.009
97905SOL    HW295613  11.791   8.951   0.869
97906SOL     OW95614  12.924  14.167   8.590
97906SOL    HW195615  12.903  14.238   8.651
97906SOL    HW295616  13.013  14.185   8.562
97907SOL     OW95617   9.614   7.497  11.734
97907SOL    HW195618   9.656   7.443  11.801
97907SOL    HW295619   9.553   7.552  11.782
97908SOL     OW95620   9.052   9.436   0.418
97908SOL    HW195621   9.019   9.472   0.501
97908SOL    HW295622   9.054   9.511   0.359
97909SOL     OW95623   4.522   0.399  14.232
97909SOL    HW195624   4.557   0.311  14.223
97909SOL    HW295625   4.435   0.387  14.269
97910SOL     OW95626   8.281   0.876   4.664
97910SOL    HW195627   8.213   0.936   4.692
97910SOL    HW295628   8.276   0.877   4.568
97911SOL     OW95629  11.281   2.035   5.467
97911SOL    HW195630  11.312   2.062   5.381
97911SOL    HW295631  11.208   1.975   5.449
97912SOL     OW95632  14.462  12.425   4.286
97912SOL    HW195633  14.463  12.334   4.317
97912SOL    HW295634  14.515  12.424   4.206
97913SOL     OW95635   9.488   8.643   0.354
97913SOL    HW195636   9.555   8.709   0.372
97913SOL    HW295637   9.458   8.663   0.266
97914SOL     OW95638  12.270  12.027  10.342
97914SOL    HW195639  12.275  12.043  10.247
97914SOL    HW295640  12.186  11.984  10.355
97915SOL     OW95641  10.980  10.330   8.156
97915SOL    HW195642  11.002  10.254   8.210
97915SOL    HW295643  10.950  10.396   8.218
97916SOL     OW95644   2.055   7.804   2.148
97916SOL    HW195645   2.023   7.745   2.216
97916SOL    HW295646   2.003   7.883   2.157
97917SOL     OW95647   1.334   1.307  10.045
97917SOL    HW195648   1.424   1.274  10.052
97917SOL    HW295649   1.323   1.364  10.121
97918SOL     OW95650   6.345   7.564   3.294
97918SOL    HW195651   6.286   7.600   3.360
97918SOL    HW295652   6.384   7.642   3.252
97919SOL     OW95653   5.166  14.643  14.496
97919SOL    HW195654   5.208  14.687  14.422
97919SOL    HW295655   5.086  14.693  14.511
97920SOL     OW95656   0.529   3.054   0.960
97920SOL    HW195657   0.557   3.089   1.045
97920SOL    HW295658   0.436   3.033   0.973
97921SOL     OW95659  11.018   5.678  11.478
97921SOL    HW195660  10.966   5.750  11.442
97921SOL    HW295661  10.971   5.599  11.453
97922SOL     OW95662  13.105   8.105   1.769
97922SOL    HW195663  13.015   8.076   1.757
97922SOL    HW295664  13.125   8.083   1.860
97923SOL     OW95665   0.363  11.318   2.353
97923SOL    HW195666   0.344  11.365   2.434
97923SOL    HW295667   0.428  11.373   2.309
97924SOL     OW95668  13.691  12.789   5.677
97924SOL    HW195669  13.626  12.721   5.662
97924SOL    HW295670  13.650  12.869   5.646
97925SOL     OW95671   8.205  12.035  10.170
97925SOL    HW195672   8.265  12.030  10.244
97925SOL    HW295673   8.145  12.106  10.192
97926SOL     OW95674   5.907  13.684   8.340
97926SOL    HW195675   5.903  13.604   8.289
97926SOL    HW295676   5.816  13.708   8.356
97927SOL     OW95677   6.107   2.081   7.221
97927SOL    HW195678   6.033   2.061   7.164
97927SOL    HW295679   6.072   2.141   7.286
97928SOL     OW95680   2.756  14.487  10.690
97928SOL    HW195681   2.713  14.514  10.609
97928SOL    HW295682   2.772  14.569  10.737
97929SOL     OW95683  13.536   3.581   3.525
97929SOL    HW195684  13.553   3.665   3.482
97929SOL    HW295685  13.536   3.518   3.454
97930SOL     OW95686   9.932   0.379   5.738
97930SOL    HW195687   9.887   0.449   5.784
97930SOL    HW295688   9.992   0.424   5.678
97931SOL     OW95689   7.813   0.104  10.035
97931SOL    HW195690   7.803   0.110  10.130
97931SOL    HW295691   7.771   0.183  10.001
97932SOL     OW95692   9.509   4.416   1.504
97932SOL    HW195693   9.421   4.450   1.491
97932SOL    HW295694   9.496   4.329   1.543
97933SOL     OW95695   4.032   3.249   6.445
97933SOL    HW195696   3.972   3.323   6.433
97933SOL    HW295697   4.070   3.234   6.358
97934SOL     OW95698  11.964  12.271   9.361
97934SOL    HW195699  12.038  12.320   9.325
97934SOL    HW295700  11.887  12.321   9.334
97935SOL     OW95701   8.025   4.123   1.968
97935SOL    HW195702   7.955   4.134   2.032
97935SOL    HW295703   8.089   4.190   1.991
97936SOL     OW95704   0.585   2.475  13.415
97936SOL    HW195705   0.603   2.569  13.428
97936SOL    HW295706   0.652   2.431  13.466
97937SOL     OW95707   7.686   3.285   8.800
97937SOL    HW195708   7.648   3.253   8.718
97937SOL    HW295709   7.711   3.206   8.848
97938SOL     OW95710   0.761  12.266  11.173
97938SOL    HW195711   0.673  12.296  11.194
97938SOL    HW295712   0.751  12.215  11.093
97939SOL     OW95713  14.080   0.109  12.627
97939SOL    HW195714  14.069   0.137  12.718
97939SOL    HW295715  14.023   0.168  12.577
97940SOL     OW95716  14.030  10.442   0.100
97940SOL    HW195717  13.994  10.524   0.066
97940SOL    HW295718  13.953  10.392   0.128
97941SOL     OW95719   4.572   8.336   2.102
97941SOL    HW195720   4.548   8.251   2.140
97941SOL    HW295721   4.624   8.314   2.025
97942SOL     OW95722  11.453   8.093   1.852
97942SOL    HW195723  11.422   8.132   1.770
97942SOL    HW295724  11.475   8.003   1.828
97943SOL     OW95725   8.223   5.659  13.966
97943SOL    HW195726   8.294   5.722  13.953
97943SOL    HW295727   8.225   5.639  14.059
97944SOL     OW95728   1.519   2.918  13.535
97944SOL    HW195729   1.551   2.989  13.592
97944SOL    HW295730   1.570   2.842  13.561
97945SOL     OW95731  10.108   2.208   6.319
97945SOL    HW195732  10.201   2.230   6.317
97945SOL    HW295733  10.082   2.206   6.227
97946SOL     OW95734   3.953   6.507   9.755
97946SOL    HW195735   4.042   6.543   9.756
97946SOL    HW295736   3.942   6.468   9.842
97947SOL     OW95737   8.879  13.417   1.125
97947SOL    HW195738   8.949  13.475   1.155
97947SOL    HW295739   8.808  13.476   1.099
97948SOL     OW95740  11.944  10.737   3.775
97948SOL    HW195741  11.957  10.647   3.745
97948SOL    HW295742  11.849  10.746   3.782
97949SOL     OW95743   2.766   5.078  14.727
97949SOL    HW195744   2.683   5.119  14.754
97949SOL    HW295745   2.760   4.989  14.761
97950SOL     OW95746   7.098   4.243   3.756
97950SOL    HW195747   7.135   4.288   3.832
97950SOL    HW295748   7.128   4.295   3.681
97951SOL     OW95749   7.276  14.001   1.846
97951SOL    HW195750   7.257  14.067   1.913
97951SOL    HW295751   7.298  14.052   1.768
97952SOL     OW95752   4.936   7.666  12.842
97952SOL    HW195753   5.000   7.608  12.883
97952SOL    HW295754   4.951   7.655  12.748
97953SOL     OW95755   4.793  13.450   3.488
97953SOL    HW195756   4.700  13.469   3.499
97953SOL    HW295757   4.800  13.413   3.400
97954SOL     OW95758   4.096   1.969   5.222
97954SOL    HW195759   4.098   1.969   5.317
97954SOL    HW295760   4.044   1.891   5.200
97955SOL     OW95761   3.482  10.604   5.188
97955SOL    HW195762   3.568  10.646   5.187
97955SOL    HW295763   3.500  10.513   5.209
97956SOL     OW95764   3.532  12.139   8.243
97956SOL    HW195765   3.564  12.162   8.330
97956SOL    HW295766   3.572  12.203   8.185
97957SOL     OW95767  13.277  14.348   1.672
97957SOL    HW195768  13.330  14.414   1.717
97957SOL    HW295769  13.193  14.391   1.657
97958SOL     OW95770  13.554  14.491   4.576
97958SOL    HW195771  13.463  14.493   4.604
97958SOL    HW295772  13.551  14.464   4.484
97959SOL     OW95773   0.304  13.884   8.341
97959SOL    HW195774   0.225  13.933   8.318
97959SOL    HW295775   0.355  13.945   8.395
97960SOL     OW95776   0.840   3.664   0.076
97960SOL    HW195777   0.886   3.703   0.150
97960SOL    HW295778   0.760   3.715   0.067
97961SOL     OW95779  13.626   6.246   6.812
97961SOL    HW195780  13.707   6.283   6.778
97961SOL    HW295781  13.564   6.319   6.812
97962SOL     OW95782   6.941  10.454   2.981
97962SOL    HW195783   6.987  10.538   2.976
97962SOL    HW295784   6.874  10.459   2.913
97963SOL     OW95785  11.330   0.421   0.605
97963SOL    HW195786  11.257   0.364   0.626
97963SOL    HW295787  11.313   0.451   0.515
97964SOL     OW95788  11.237  10.766  10.781
97964SOL    HW195789  11.310  10.761  10.719
97964SOL    HW295790  11.193  10.848  10.759
97965SOL     OW95791   0.375  12.968   9.196
97965SOL    HW195792   0.311  13.028   9.159
97965SOL    HW295793   0.431  13.023   9.251
97966SOL     OW95794   5.540  10.627  13.683
97966SOL    HW195795   5.550  10.546  13.634
97966SOL    HW295796   5.540  10.600  13.775
97967SOL     OW95797   7.592   6.316   7.315
97967SOL    HW195798   7.526   6.369   7.270
97967SOL    HW295799   7.598   6.237   7.262
97968SOL     OW95800   2.889   8.649   3.647
97968SOL    HW195801   2.862   8.603   3.568
97968SOL    HW295802   2.812   8.701   3.672
97969SOL     OW95803   8.444   7.032   6.533
97969SOL    HW195804   8.443   7.002   6.623
97969SOL    HW295805   8.420   7.124   6.538
97970SOL     OW95806  12.992   9.466   8.235
97970SOL    HW195807  13.017   9.379   8.202
97970SOL    HW295808  12.968   9.450   8.327
97971SOL     OW95809   0.291   0.320  10.590
97971SOL    HW195810   0.197   0.328  10.608
97971SOL    HW295811   0.332   0.341  10.674
97972SOL     OW95812   6.903   1.228  10.666
97972SOL    HW195813   6.971   1.294  10.654
97972SOL    HW295814   6.945   1.159  10.717
97973SOL     OW95815   9.281  13.365   0.803
97973SOL    HW195816   9.240  13.330   0.724
97973SOL    HW295817   9.366  13.397   0.774
97974SOL     OW95818   9.085   9.351   7.043
97974SOL    HW195819   9.012   9.317   7.095
97974SOL    HW295820   9.159   9.297   7.068
97975SOL     OW95821  11.621   9.029   3.861
97975SOL    HW195822  11.594   8.952   3.910
97975SOL    HW295823  11.542   9.058   3.816
97976SOL     OW95824   2.242   7.563   5.365
97976SOL    HW195825   2.276   7.652   5.369
97976SOL    HW295826   2.244   7.541   5.272
97977SOL     OW95827  11.514   2.945  11.747
97977SOL    HW195828  11.576   2.886  11.788
97977SOL    HW295829  11.444   2.888  11.714
97978SOL     OW95830   3.020  13.306  12.214
97978SOL    HW195831   2.986  13.335  12.298
97978SOL    HW295832   2.950  13.251  12.177
97979SOL     OW95833   1.311   2.712   8.997
97979SOL    HW195834   1.319   2.629   9.043
97979SOL    HW295835   1.243   2.760   9.045
97980SOL     OW95836   8.925  10.126   5.904
97980SOL    HW195837   8.831  10.138   5.888
97980SOL    HW295838   8.967  10.162   5.827
97981SOL     OW95839   7.370  12.513   0.917
97981SOL    HW195840   7.295  12.471   0.875
97981SOL    HW295841   7.361  12.605   0.894
97982SOL     OW95842  11.812   4.429  12.069
97982SOL    HW195843  11.794   4.379  12.149
97982SOL    HW295844  11.776   4.376  11.998
97983SOL     OW95845   4.636  11.644  11.957
97983SOL    HW195846   4.632  11.739  11.963
97983SOL    HW295847   4.715  11.620  12.006
97984SOL     OW95848   5.678  14.270   4.024
97984SOL    HW195849   5.705  14.179   4.011
97984SOL    HW295850   5.673  14.307   3.936
97985SOL     OW95851   3.307  13.858  10.250
97985SOL    HW195852   3.323  13.882  10.159
97985SOL    HW295853   3.232  13.798  10.247
97986SOL     OW95854  14.243  10.444  12.122
97986SOL    HW195855  14.306  10.379  12.154
97986SOL    HW295856  14.253  10.518  12.181
97987SOL     OW95857   7.217  13.759  12.113
97987SOL    HW195858   7.226  13.797  12.200
97987SOL    HW295859   7.293  13.700  12.105
97988SOL     OW95860  12.997   9.103   3.342
97988SOL    HW195861  13.059   9.144   3.281
97988SOL    HW295862  12.911   9.121   3.303
97989SOL     OW95863   5.952   2.257  12.482
97989SOL    HW195864   5.859   2.261  12.461
97989SOL    HW295865   5.955   2.252  12.577
97990SOL     OW95866  10.594  13.922   5.087
97990SOL    HW195867  10.555  13.898   5.003
97990SOL    HW295868  10.572  14.014   5.099
97991SOL     OW95869   1.383   2.942   6.804
97991SOL    HW195870   1.377   2.994   6.884
97991SOL    HW295871   1.300   2.896   6.799
97992SOL     OW95872   1.138  11.816  11.938
97992SOL    HW195873   1.091  11.859  12.010
97992SOL    HW295874   1.158  11.729  11.971
97993SOL     OW95875  11.886   3.529  12.197
97993SOL    HW195876  11.955   3.505  12.134
97993SOL    HW295877  11.809   3.543  12.143
97994SOL     OW95878   6.384  11.910  13.377
97994SOL    HW195879   6.429  11.942  13.299
97994SOL    HW295880   6.408  11.817  13.383
97995SOL     OW95881  14.511   8.581   0.524
97995SOL    HW195882  14.500   8.509   0.586
97995SOL    HW295883  14.521   8.659   0.578
97996SOL     OW95884   8.315  10.613   2.297
97996SOL    HW195885   8.251  10.546   2.276
97996SOL    HW295886   8.293  10.687   2.240
97997SOL     OW95887  14.593   2.490   3.052
97997SOL    HW195888  14.539   2.521   2.979
97997SOL    HW295889  14.597   2.395   3.039
97998SOL     OW95890   4.312   3.885   8.210
97998SOL    HW195891   4.378   3.821   8.184
97998SOL    HW295892   4.361   3.965   8.225
97999SOL     OW95893  11.115   8.947   9.192
97999SOL    HW195894  11.186   8.940   9.128
97999SOL    HW295895  11.153   8.919   9.275
98000SOL     OW95896  13.051   3.531  14.548
98000SOL    HW195897  12.988   3.587  14.594
98000SOL    HW295898  13.107   3.496  14.618
98001SOL     OW95899   7.443   2.883   2.804
98001SOL    HW195900   7.457   2.950   2.871
98001SOL    HW295901   7.523   2.831   2.806
98002SOL     OW95902  14.046   6.689  10.196
98002SOL    HW195903  14.024   6.766  10.247
98002SOL    HW295904  14.095   6.722  10.121
98003SOL     OW95905   8.672  11.551   3.279
98003SOL    HW195906   8.594  11.591   3.318
98003SOL    HW295907   8.744  11.610   3.301
98004SOL     OW95908  11.910  14.234   0.316
98004SOL    HW195909  11.926  14.318   0.358
98004SOL    HW295910  11.940  14.246   0.226
98005SOL     OW95911   1.852  10.748  12.364
98005SOL    HW195912   1.915  10.771  12.432
98005SOL    HW295913   1.778  10.806  12.380
98006SOL     OW95914   2.049   0.900  12.856
98006SOL    HW195915   2.055   0.995  12.854
98006SOL    HW295916   2.137   0.869  12.832
98007SOL     OW95917  11.999  13.850   0.752
98007SOL    HW195918  11.921  13.828   0.700
98007SOL    HW295919  11.965  13.864   0.840
98008SOL     OW95920  11.783   4.937   7.788
98008SOL    HW195921  11.825   5.015   7.753
98008SOL    HW295922  11.716   4.970   7.847
98009SOL     OW95923   6.497   2.664  11.780
98009SOL    HW195924   6.407   2.698  11.780
98009SOL    HW295925   6.552   2.741  11.766
98010SOL     OW95926  12.692   9.925   9.666
98010SOL    HW195927  12.669   9.857   9.603
98010SOL    HW295928  12.608   9.952   9.703
98011SOL     OW95929   3.889   8.348   9.389
98011SOL    HW195930   3.940   8.425   9.412
98011SOL    HW295931   3.937   8.275   9.427
98012SOL     OW95932   7.189   4.087  10.967
98012SOL    HW195933   7.122   4.126  11.023
98012SOL    HW295934   7.219   4.010  11.016
98013SOL     OW95935  12.531   5.449   7.072
98013SOL    HW195936  12.605   5.419   7.125
98013SOL    HW295937  12.459   5.456   7.133
98014SOL     OW95938   9.378   1.321   4.487
98014SOL    HW195939   9.412   1.243   4.531
98014SOL    HW295940   9.346   1.289   4.403
98015SOL     OW95941   6.630   9.766  13.057
98015SOL    HW195942   6.645   9.851  13.015
98015SOL    HW295943   6.710   9.717  13.041
98016SOL     OW95944   2.775   2.214   6.212
98016SOL    HW195945   2.804   2.302   6.184
98016SOL    HW295946   2.725   2.181   6.137
98017SOL     OW95947   9.466   5.203  13.791
98017SOL    HW195948   9.442   5.220  13.882
98017SOL    HW295949   9.392   5.153  13.756
98018SOL     OW95950   5.136  10.767  14.519
98018SOL    HW195951   5.109  10.752  14.429
98018SOL    HW295952   5.189  10.691  14.541
98019SOL     OW95953  12.310   1.889   0.018
98019SOL    HW195954  12.243   1.871   0.083
98019SOL    HW295955  12.388   1.909   0.069
98020SOL     OW95956   3.996   1.250   7.104
98020SOL    HW195957   3.948   1.278   7.026
98020SOL    HW295958   3.993   1.326   7.162
98021SOL     OW95959   2.169   8.692   1.049
98021SOL    HW195960   2.137   8.606   1.077
98021SOL    HW295961   2.203   8.732   1.129
98022SOL     OW95962   6.033   7.834   4.050
98022SOL    HW195963   5.956   7.777   4.051
98022SOL    HW295964   6.008   7.909   4.104
98023SOL     OW95965   5.611  12.659   6.614
98023SOL    HW195966   5.530  12.689   6.573
98023SOL    HW295967   5.661  12.620   6.543
98024SOL     OW95968   4.143   6.858   8.438
98024SOL    HW195969   4.230   6.880   8.471
98024SOL    HW295970   4.096   6.821   8.513
98025SOL     OW95971  13.823   8.967   4.111
98025SOL    HW195972  13.823   8.971   4.207
98025SOL    HW295973  13.732   8.951   4.087
98026SOL     OW95974   4.433   1.546   6.598
98026SOL    HW195975   4.392   1.460   6.603
98026SOL    HW295976   4.526   1.529   6.613
98027SOL     OW95977  11.229  14.390   9.416
98027SOL    HW195978  11.258  14.427   9.499
98027SOL    HW295979  11.135  14.379   9.426
98028SOL     OW95980   8.078   3.945   2.343
98028SOL    HW195981   8.131   4.023   2.361
98028SOL    HW295982   8.002   3.979   2.295
98029SOL     OW95983  12.454  12.510   1.054
98029SOL    HW195984  12.365  12.511   1.017
98029SOL    HW295985  12.498  12.439   1.007
98030SOL     OW95986  12.676  13.233   9.105
98030SOL    HW195987  12.759  13.203   9.068
98030SOL    HW295988  12.698  13.312   9.154
98031SOL     OW95989  10.541  10.202   1.551
98031SOL    HW195990  10.550  10.284   1.599
98031SOL    HW295991  10.594  10.139   1.600
98032SOL     OW95992   7.921   9.004   1.338
98032SOL    HW195993   7.995   9.062   1.352
98032SOL    HW295994   7.861   9.023   1.410
98033SOL     OW95995   1.264   0.524   3.105
98033SOL    HW195996   1.290   0.614   3.088
98033SOL    HW295997   1.296   0.506   3.193
98034SOL     OW95998  14.632   4.442   5.593
98034SOL    HW195999  14.670   4.355   5.586
98034SOL    HW296000  14.546   4.434   5.552
98035SOL     OW96001   0.419  13.404   2.180
98035SOL    HW196002   0.349  13.469   2.183
98035SOL    HW296003   0.399  13.344   2.252
98036SOL     OW96004   3.813   0.654   3.387
98036SOL    HW196005   3.863   0.718   3.335
98036SOL    HW296006   3.733   0.701   3.411
98037SOL     OW96007   4.612  10.092   5.148
98037SOL    HW196008   4.549  10.102   5.220
98037SOL    HW296009   4.660  10.012   5.169
98038SOL     OW96010   5.237   8.830   2.892
98038SOL    HW196011   5.255   8.738   2.874
98038SOL    HW296012   5.142   8.834   2.902
98039SOL     OW96013  10.735   8.015   1.595
98039SOL    HW196014  10.690   7.931   1.591
98039SOL    HW296015  10.828   7.994   1.586
98040SOL     OW96016  10.847  14.541   5.160
98040SOL    HW196017  10.758  14.534   5.125
98040SOL    HW296018  10.890  14.459   5.134
98041SOL     OW96019  14.082  10.316   9.589
98041SOL    HW196020  14.136  10.259   9.534
98041SOL    HW296021  14.075  10.398   9.538
98042SOL     OW96022   0.125  11.181   6.277
98042SOL    HW196023   0.056  11.195   6.212
98042SOL    HW296024   0.207  11.187   6.227
98043SOL     OW96025   3.997   4.129  13.397
98043SOL    HW196026   4.030   4.162  13.314
98043SOL    HW296027   3.950   4.048  13.374
98044SOL     OW96028  14.569   6.797  12.063
98044SOL    HW196029  14.511   6.873  12.058
98044SOL    HW296030  14.655   6.833  12.085
98045SOL     OW96031  13.125   7.453  13.780
98045SOL    HW196032  13.058   7.520  13.790
98045SOL    HW296033  13.103   7.387  13.845
98046SOL     OW96034   4.999   3.682   9.957
98046SOL    HW196035   4.923   3.632   9.986
98046SOL    HW296036   5.067   3.662  10.021
98047SOL     OW96037   8.832  14.598   7.101
98047SOL    HW196038   8.853  14.579   7.009
98047SOL    HW296039   8.858  14.519   7.148
98048SOL     OW96040  12.827   0.532   7.127
98048SOL    HW196041  12.854   0.582   7.050
98048SOL    HW296042  12.881   0.453   7.125
98049SOL     OW96043   4.928   7.031   4.372
98049SOL    HW196044   4.982   6.957   4.345
98049SOL    HW296045   4.853   7.029   4.313
98050SOL     OW96046   4.808   3.616  13.220
98050SOL    HW196047   4.824   3.692  13.164
98050SOL    HW296048   4.836   3.644  13.307
98051SOL     OW96049   2.416   1.158   3.641
98051SOL    HW196050   2.459   1.214   3.576
98051SOL    HW296051   2.371   1.220   3.699
98052SOL     OW96052   9.829   2.921  11.918
98052SOL    HW196053   9.923   2.925  11.936
98052SOL    HW296054   9.822   2.937  11.824
98053SOL     OW96055   1.172   2.189   9.131
98053SOL    HW196056   1.253   2.156   9.171
98053SOL    HW296057   1.119   2.218   9.204
98054SOL     OW96058  14.666   0.868   1.805
98054SOL    HW196059  14.670   0.924   1.882
98054SOL    HW296060  14.579   0.829   1.809
98055SOL     OW96061   6.383   4.201  13.228
98055SOL    HW196062   6.476   4.220  13.243
98055SOL    HW296063   6.376   4.188  13.133
98056SOL     OW96064  13.424   7.746   7.038
98056SOL    HW196065  13.433   7.655   7.067
98056SOL    HW296066  13.398   7.739   6.946
98057SOL     OW96067  10.631   4.084   9.207
98057SOL    HW196068  10.557   4.055   9.260
98057SOL    HW296069  10.701   4.023   9.229
98058SOL     OW96070   0.690   2.685   8.447
98058SOL    HW196071   0.680   2.664   8.540
98058SOL    HW296072   0.640   2.617   8.402
98059SOL     OW96073  11.018   0.702  10.193
98059SOL    HW196074  11.052   0.697  10.282
98059SOL    HW296075  10.940   0.646  10.194
98060SOL     OW96076   8.547   8.555   0.343
98060SOL    HW196077   8.484   8.574   0.273
98060SOL    HW296078   8.497   8.503   0.407
98061SOL     OW96079  12.955   8.181  13.480
98061SOL    HW196080  13.035   8.184  13.532
98061SOL    HW296081  12.885   8.170  13.544
98062SOL     OW96082  13.266  11.325   3.424
98062SOL    HW196083  13.265  11.299   3.516
98062SOL    HW296084  13.174  11.341   3.402
98063SOL     OW96085   6.690   2.856   0.564
98063SOL    HW196086   6.729   2.917   0.626
98063SOL    HW296087   6.723   2.770   0.590
98064SOL     OW96088   3.073  11.238  12.294
98064SOL    HW196089   3.098  11.169  12.233
98064SOL    HW296090   3.041  11.309  12.237
98065SOL     OW96091   0.283  10.886   5.759
98065SOL    HW196092   0.359  10.829   5.751
98065SOL    HW296093   0.259  10.908   5.668
98066SOL     OW96094   9.993  14.434   6.505
98066SOL    HW196095   9.973  14.452   6.413
98066SOL    HW296096  10.088  14.432   6.509
98067SOL     OW96097   7.532  14.102   7.405
98067SOL    HW196098   7.539  14.010   7.430
98067SOL    HW296099   7.609  14.143   7.445
98068SOL     OW96100   4.753  11.279   2.230
98068SOL    HW196101   4.761  11.302   2.323
98068SOL    HW296102   4.664  11.244   2.223
98069SOL     OW96103   1.610  11.955   7.585
98069SOL    HW196104   1.583  12.009   7.659
98069SOL    HW296105   1.542  11.889   7.577
98070SOL     OW96106  14.422  10.216   1.689
98070SOL    HW196107  14.501  10.244   1.736
98070SOL    HW296108  14.433  10.252   1.601
98071SOL     OW96109  12.977   0.760   4.014
98071SOL    HW196110  12.964   0.769   3.919
98071SOL    HW296111  12.918   0.690   4.040
98072SOL     OW96112  11.485  10.742   9.886
98072SOL    HW196113  11.507  10.709   9.799
98072SOL    HW296114  11.489  10.665   9.942
98073SOL     OW96115   5.143   6.911   9.028
98073SOL    HW196116   5.116   6.895   9.119
98073SOL    HW296117   5.066   6.889   8.976
98074SOL     OW96118   8.047   0.683   4.120
98074SOL    HW196119   8.008   0.739   4.186
98074SOL    HW296120   7.974   0.657   4.064
98075SOL     OW96121   7.845   7.577   1.050
98075SOL    HW196122   7.880   7.514   0.987
98075SOL    HW296123   7.895   7.561   1.130
98076SOL     OW96124  10.185   3.304   7.882
98076SOL    HW196125  10.224   3.227   7.841
98076SOL    HW296126  10.243   3.325   7.955
98077SOL     OW96127  13.439   7.349   9.498
98077SOL    HW196128  13.410   7.272   9.448
98077SOL    HW296129  13.534   7.350   9.488
98078SOL     OW96130  12.551  12.821   1.318
98078SOL    HW196131  12.569  12.902   1.366
98078SOL    HW296132  12.527  12.851   1.230
98079SOL     OW96133  11.548   4.247   9.081
98079SOL    HW196134  11.636   4.263   9.114
98079SOL    HW296135  11.513   4.180   9.140
98080SOL     OW96136  11.725  12.553   7.414
98080SOL    HW196137  11.752  12.509   7.495
98080SOL    HW296138  11.755  12.643   7.425
98081SOL     OW96139   7.919   5.895   0.341
98081SOL    HW196140   7.828   5.918   0.320
98081SOL    HW296141   7.972   5.955   0.288
98082SOL     OW96142   0.732  13.349   6.426
98082SOL    HW196143   0.678  13.309   6.494
98082SOL    HW296144   0.723  13.290   6.351
98083SOL     OW96145  12.661   8.336   7.208
98083SOL    HW196146  12.663   8.410   7.147
98083SOL    HW296147  12.606   8.271   7.165
98084SOL     OW96148  14.631  12.048  12.306
98084SOL    HW196149  14.545  12.031  12.267
98084SOL    HW296150  14.680  12.092  12.236
98085SOL     OW96151   5.922  12.030   8.697
98085SOL    HW196152   5.933  12.124   8.709
98085SOL    HW296153   5.846  12.022   8.640
98086SOL     OW96154  12.168   2.368   0.283
98086SOL    HW196155  12.075   2.390   0.277
98086SOL    HW296156  12.171   2.297   0.347
98087SOL     OW96157   1.514   9.797   1.838
98087SOL    HW196158   1.524   9.780   1.744
98087SOL    HW296159   1.524   9.711   1.879
98088SOL     OW96160   4.643   1.906   8.815
98088SOL    HW196161   4.636   1.854   8.734
98088SOL    HW296162   4.557   1.897   8.856
98089SOL     OW96163  11.384  12.978   0.842
98089SOL    HW196164  11.346  12.946   0.760
98089SOL    HW296165  11.476  12.954   0.837
98090SOL     OW96166   0.771   2.982   0.535
98090SOL    HW196167   0.748   3.049   0.599
98090SOL    HW296168   0.720   2.905   0.561
98091SOL     OW96169  13.725   3.417   9.029
98091SOL    HW196170  13.725   3.459   8.943
98091SOL    HW296171  13.751   3.486   9.090
98092SOL     OW96172   9.330  13.354  14.289
98092SOL    HW196173   9.402  13.343  14.351
98092SOL    HW296174   9.251  13.354  14.343
98093SOL     OW96175  11.251  13.792   6.740
98093SOL    HW196176  11.277  13.830   6.824
98093SOL    HW296177  11.189  13.723   6.762
98094SOL     OW96178   2.204  11.846  14.601
98094SOL    HW196179   2.184  11.786  14.673
98094SOL    HW296180   2.276  11.899  14.634
98095SOL     OW96181   6.762   5.353   0.730
98095SOL    HW196182   6.704   5.424   0.759
98095SOL    HW296183   6.843   5.368   0.778
98096SOL     OW96184   8.145  11.689   9.376
98096SOL    HW196185   8.191  11.611   9.408
98096SOL    HW296186   8.142  11.748   9.452
98097SOL     OW96187  11.615   8.071  11.933
98097SOL    HW196188  11.694   8.116  11.904
98097SOL    HW296189  11.622   8.069  12.029
98098SOL     OW96190   0.427  11.672  11.670
98098SOL    HW196191   0.514  11.647  11.699
98098SOL    HW296192   0.374  11.674  11.750
98099SOL     OW96193   2.579   0.783   1.123
98099SOL    HW196194   2.532   0.701   1.112
98099SOL    HW296195   2.515   0.844   1.159
98100SOL     OW96196  10.167   4.718  10.737
98100SOL    HW196197  10.220   4.675  10.671
98100SOL    HW296198  10.189   4.673  10.819
98101SOL     OW96199   2.573   1.108  13.610
98101SOL    HW196200   2.567   1.203  13.612
98101SOL    HW296201   2.631   1.089  13.536
98102SOL     OW96202   3.801  13.157   2.941
98102SOL    HW196203   3.838  13.077   2.903
98102SOL    HW296204   3.717  13.167   2.897
98103SOL     OW96205  11.582   5.831   8.197
98103SOL    HW196206  11.503   5.833   8.250
98103SOL    HW296207  11.552   5.808   8.109
98104SOL     OW96208  11.870   7.571  10.184
98104SOL    HW196209  11.801   7.531  10.132
98104SOL    HW296210  11.926   7.616  10.121
98105SOL     OW96211  12.819   6.577   7.333
98105SOL    HW196212  12.812   6.564   7.239
98105SOL    HW296213  12.752   6.521   7.371
98106SOL     OW96214  11.800  10.495   2.118
98106SOL    HW196215  11.711  10.484   2.084
98106SOL    HW296216  11.842  10.554   2.055
98107SOL     OW96217   9.017   7.260   6.243
98107SOL    HW196218   9.047   7.176   6.276
98107SOL    HW296219   8.984   7.306   6.321
98108SOL     OW96220  14.154   9.357   7.806
98108SOL    HW196221  14.108   9.434   7.839
98108SOL    HW296222  14.098   9.324   7.736
98109SOL     OW96223   6.334   1.879   4.707
98109SOL    HW196224   6.370   1.791   4.696
98109SOL    HW296225   6.388   1.918   4.775
98110SOL     OW96226  13.067  13.527   8.142
98110SOL    HW196227  13.132  13.457   8.152
98110SOL    HW296228  12.985  13.480   8.125
98111SOL     OW96229   5.897  10.645  12.352
98111SOL    HW196230   5.971  10.616  12.298
98111SOL    HW296231   5.935  10.657  12.439
98112SOL     OW96232  10.134   8.361  14.630
98112SOL    HW196233  10.121   8.277  14.585
98112SOL    HW296234  10.213   8.349  14.682
98113SOL     OW96235   9.187   2.043  10.551
98113SOL    HW196236   9.126   2.055  10.479
98113SOL    HW296237   9.207   2.132  10.581
98114SOL     OW96238   2.650   0.853   7.957
98114SOL    HW196239   2.687   0.818   7.876
98114SOL    HW296240   2.634   0.946   7.938
98115SOL     OW96241   5.887   8.189   3.958
98115SOL    HW196242   5.835   8.176   4.037
98115SOL    HW296243   5.928   8.275   3.971
98116SOL     OW96244   2.249   5.504  12.632
98116SOL    HW196245   2.288   5.469  12.552
98116SOL    HW296246   2.287   5.450  12.702
98117SOL     OW96247   5.862   1.285   6.029
98117SOL    HW196248   5.865   1.195   5.997
98117SOL    HW296249   5.844   1.338   5.952
98118SOL     OW96250   3.021   9.579   4.183
98118SOL    HW196251   3.108   9.598   4.217
98118SOL    HW296252   3.014   9.483   4.185
98119SOL     OW96253   0.812  10.563  13.132
98119SOL    HW196254   0.863  10.591  13.208
98119SOL    HW296255   0.734  10.523  13.169
98120SOL     OW96256  12.285   6.970  13.590
98120SOL    HW196257  12.354   7.018  13.544
98120SOL    HW296258  12.284   6.884  13.549
98121SOL     OW96259   3.522  14.364   3.658
98121SOL    HW196260   3.516  14.300   3.588
98121SOL    HW296261   3.577  14.434   3.622
98122SOL     OW96262  10.547   4.294   5.341
98122SOL    HW196263  10.506   4.359   5.284
98122SOL    HW296264  10.494   4.215   5.329
98123SOL     OW96265   6.163  14.590   7.348
98123SOL    HW196266   6.168  14.654   7.277
98123SOL    HW296267   6.159  14.505   7.303
98124SOL     OW96268  12.806   1.173   6.408
98124SOL    HW196269  12.778   1.091   6.367
98124SOL    HW296270  12.750   1.240   6.369
98125SOL     OW96271  12.824   5.044  14.396
98125SOL    HW196272  12.876   5.047  14.316
98125SOL    HW296273  12.838   5.129  14.438
98126SOL     OW96274  14.444   3.192  12.668
98126SOL    HW196275  14.534   3.183  12.700
98126SOL    HW296276  14.418   3.102  12.646
98127SOL     OW96277   6.931  11.275   4.723
98127SOL    HW196278   6.900  11.365   4.730
98127SOL    HW296279   6.851  11.222   4.717
98128SOL     OW96280   8.434  13.391   8.954
98128SOL    HW196281   8.452  13.298   8.969
98128SOL    HW296282   8.509  13.436   8.994
98129SOL     OW96283   7.372  10.661   5.391
98129SOL    HW196284   7.415  10.730   5.442
98129SOL    HW296285   7.391  10.580   5.439
98130SOL     OW96286   5.536  14.382   4.965
98130SOL    HW196287   5.596  14.316   4.998
98130SOL    HW296288   5.457  14.372   5.018
98131SOL     OW96289   4.833   9.345   1.199
98131SOL    HW196290   4.923   9.365   1.224
98131SOL    HW296291   4.815   9.260   1.239
98132SOL     OW96292  13.032  10.644  12.912
98132SOL    HW196293  13.117  10.666  12.873
98132SOL    HW296294  13.055  10.603  12.996
98133SOL     OW96295   2.152   2.517   6.401
98133SOL    HW196296   2.118   2.428   6.408
98133SOL    HW296297   2.136   2.541   6.310
98134SOL     OW96298   6.959   3.025   5.917
98134SOL    HW196299   7.029   2.962   5.936
98134SOL    HW296300   6.944   3.017   5.822
98135SOL     OW96301   1.001  12.212  10.017
98135SOL    HW196302   0.993  12.117  10.020
98135SOL    HW296303   1.094  12.228  10.005
98136SOL     OW96304   0.612   3.881  11.092
98136SOL    HW196305   0.623   3.803  11.145
98136SOL    HW296306   0.544   3.858  11.028
98137SOL     OW96307   5.282   3.420  12.048
98137SOL    HW196308   5.295   3.415  11.954
98137SOL    HW296309   5.257   3.331  12.073
98138SOL     OW96310  13.537  12.361   1.660
98138SOL    HW196311  13.481  12.371   1.583
98138SOL    HW296312  13.537  12.448   1.700
98139SOL     OW96313   6.725  10.450   8.532
98139SOL    HW196314   6.740  10.543   8.513
98139SOL    HW296315   6.770  10.403   8.462
98140SOL     OW96316  13.950   7.858  14.538
98140SOL    HW196317  13.981   7.948  14.550
98140SOL    HW296318  13.896   7.841  14.615
98141SOL     OW96319   4.629   5.589   6.991
98141SOL    HW196320   4.718   5.561   6.969
98141SOL    HW296321   4.640   5.649   7.065
98142SOL     OW96322  13.226   7.535   9.387
98142SOL    HW196323  13.169   7.484   9.329
98142SOL    HW296324  13.284   7.469   9.426
98143SOL     OW96325  11.206   2.235   2.108
98143SOL    HW196326  11.186   2.328   2.119
98143SOL    HW296327  11.149   2.191   2.170
98144SOL     OW96328   7.635   5.890   2.615
98144SOL    HW196329   7.709   5.857   2.667
98144SOL    HW296330   7.657   5.980   2.595
98145SOL     OW96331   8.693   2.651  11.921
98145SOL    HW196332   8.624   2.716  11.911
98145SOL    HW296333   8.655   2.583  11.977
98146SOL     OW96334   3.361   0.073  12.074
98146SOL    HW196335   3.419  14.864  12.075
98146SOL    HW296336   3.415   0.142  12.036
98147SOL     OW96337   9.165  11.276   8.277
98147SOL    HW196338   9.186  11.204   8.218
98147SOL    HW296339   9.070  11.273   8.287
98148SOL     OW96340  10.973  14.583   2.704
98148SOL    HW196341  10.927  14.649   2.652
98148SOL    HW296342  11.047  14.557   2.649
98149SOL     OW96343   4.395  11.481   2.413
98149SOL    HW196344   4.402  11.538   2.337
98149SOL    HW296345   4.415  11.536   2.488
98150SOL     OW96346   9.507   9.863   3.389
98150SOL    HW196347   9.512   9.794   3.455
98150SOL    HW296348   9.549   9.939   3.430
98151SOL     OW96349  13.330   6.377   5.834
98151SOL    HW196350  13.404   6.426   5.870
98151SOL    HW296351  13.296   6.432   5.764
98152SOL     OW96352  12.383   2.744  12.621
98152SOL    HW196353  12.384   2.774  12.530
98152SOL    HW296354  12.316   2.676  12.623
98153SOL     OW96355   8.975   7.235   5.979
98153SOL    HW196356   9.064   7.252   5.949
98153SOL    HW296357   8.977   7.253   6.073
98154SOL     OW96358  13.479   3.020  12.554
98154SOL    HW196359  13.519   3.101  12.523
98154SOL    HW296360  13.406   3.049  12.610
98155SOL     OW96361   2.965   2.917   1.385
98155SOL    HW196362   2.898   2.948   1.446
98155SOL    HW296363   2.944   2.959   1.302
98156SOL     OW96364   2.205   1.004   4.204
98156SOL    HW196365   2.173   0.971   4.288
98156SOL    HW296366   2.297   0.977   4.200
98157SOL     OW96367   8.440  12.118  13.032
98157SOL    HW196368   8.396  12.135  13.115
98157SOL    HW296369   8.458  12.024  13.033
98158SOL     OW96370  13.032   6.176  11.960
98158SOL    HW196371  13.087   6.150  12.034
98158SOL    HW296372  12.947   6.196  11.999
98159SOL     OW96373   0.110   4.423   0.209
98159SOL    HW196374   0.150   4.388   0.129
98159SOL    HW296375   0.144   4.512   0.216
98160SOL     OW96376   7.750   0.427  11.111
98160SOL    HW196377   7.792   0.486  11.048
98160SOL    HW296378   7.767   0.339  11.077
98161SOL     OW96379   7.408  11.525  10.254
98161SOL    HW196380   7.320  11.562  10.248
98161SOL    HW296381   7.466  11.601  10.249
98162SOL     OW96382   4.731   0.604   9.369
98162SOL    HW196383   4.822   0.575   9.360
98162SOL    HW296384   4.734   0.698   9.352
98163SOL     OW96385   4.396   2.030   5.397
98163SOL    HW196386   4.327   2.020   5.463
98163SOL    HW296387   4.349   2.038   5.315
98164SOL     OW96388  10.373   8.093   9.367
98164SOL    HW196389  10.296   8.046   9.336
98164SOL    HW296390  10.444   8.061   9.311
98165SOL     OW96391   8.722  11.722   5.623
98165SOL    HW196392   8.748  11.688   5.709
98165SOL    HW296393   8.720  11.817   5.635
98166SOL     OW96394  12.086   3.941  13.366
98166SOL    HW196395  12.055   3.857  13.333
98166SOL    HW296396  12.055   4.005  13.301
98167SOL     OW96397  14.239  13.504   2.128
98167SOL    HW196398  14.164  13.531   2.180
98167SOL    HW296399  14.297  13.580   2.128
98168SOL     OW96400  12.315  14.248   5.853
98168SOL    HW196401  12.242  14.292   5.808
98168SOL    HW296402  12.392  14.301   5.830
98169SOL     OW96403   0.734   8.066  14.577
98169SOL    HW196404   0.780   7.983  14.567
98169SOL    HW296405   0.778   8.110  14.649
98170SOL     OW96406  14.100   3.242  10.927
98170SOL    HW196407  14.049   3.228  10.847
98170SOL    HW296408  14.144   3.159  10.942
98171SOL     OW96409   5.251  12.446  14.056
98171SOL    HW196410   5.221  12.390  13.984
98171SOL    HW296411   5.252  12.388  14.132
98172SOL     OW96412   5.479   8.948  11.519
98172SOL    HW196413   5.424   8.917  11.591
98172SOL    HW296414   5.439   9.032  11.494
98173SOL     OW96415  11.027   1.666  13.323
98173SOL    HW196416  11.116   1.687  13.350
98173SOL    HW296417  11.038   1.613  13.244
98174SOL     OW96418  11.694   8.322   7.694
98174SOL    HW196419  11.737   8.344   7.777
98174SOL    HW296420  11.649   8.402   7.668
98175SOL     OW96421   8.341   7.970   2.917
98175SOL    HW196422   8.256   8.014   2.912
98175SOL    HW296423   8.328   7.902   2.983
98176SOL     OW96424   1.256  12.467   6.896
98176SOL    HW196425   1.174  12.517   6.894
98176SOL    HW296426   1.257  12.427   6.983
98177SOL     OW96427  13.171   9.180   1.346
98177SOL    HW196428  13.116   9.241   1.396
98177SOL    HW296429  13.181   9.104   1.403
98178SOL     OW96430   3.511  10.676   4.541
98178SOL    HW196431   3.508  10.594   4.591
98178SOL    HW296432   3.563  10.656   4.464
98179SOL     OW96433   1.119  14.146  14.061
98179SOL    HW196434   1.087  14.127  14.149
98179SOL    HW296435   1.097  14.238  14.046
98180SOL     OW96436  11.325  14.669   9.113
98180SOL    HW196437  11.280  14.639   9.034
98180SOL    HW296438  11.255  14.673   9.179
98181SOL     OW96439  13.975  13.960   2.230
98181SOL    HW196440  13.892  13.999   2.201
98181SOL    HW296441  13.971  13.962   2.325
98182SOL     OW96442  14.469  10.992  12.635
98182SOL    HW196443  14.495  11.027  12.549
98182SOL    HW296444  14.375  11.009  12.640
98183SOL     OW96445   0.456   5.758   6.163
98183SOL    HW196446   0.518   5.786   6.231
98183SOL    HW296447   0.441   5.837   6.111
98184SOL     OW96448   5.602   4.368   9.864
98184SOL    HW196449   5.623   4.286   9.818
98184SOL    HW296450   5.533   4.343   9.926
98185SOL     OW96451  11.723   1.192  12.907
98185SOL    HW196452  11.702   1.156  12.821
98185SOL    HW296453  11.688   1.127  12.969
98186SOL     OW96454   8.765   2.526   6.264
98186SOL    HW196455   8.783   2.613   6.300
98186SOL    HW296456   8.672   2.528   6.243
98187SOL     OW96457  10.497   6.738   7.178
98187SOL    HW196458  10.411   6.699   7.158
98187SOL    HW296459  10.553   6.711   7.105
98188SOL     OW96460  13.920  10.558   6.835
98188SOL    HW196461  13.864  10.481   6.838
98188SOL    HW296462  13.998  10.533   6.885
98189SOL     OW96463   0.027   0.299   0.859
98189SOL    HW196464  14.807   0.325   0.888
98189SOL    HW296465   0.011   0.247   0.781
98190SOL     OW96466   4.778   5.832  14.867
98190SOL    HW196467   4.829   5.765   0.044
98190SOL    HW296468   4.720   5.783  14.808
98191SOL     OW96469   7.026   3.980   0.597
98191SOL    HW196470   6.998   3.900   0.642
98191SOL    HW296471   7.069   4.032   0.665
98192SOL     OW96472   3.460   0.666   0.313
98192SOL    HW196473   3.508   0.586   0.291
98192SOL    HW296474   3.445   0.660   0.407
98193SOL     OW96475  12.810  13.713  14.187
98193SOL    HW196476  12.757  13.635  14.172
98193SOL    HW296477  12.894  13.680  14.216
98194SOL     OW96478  13.804   7.122   7.162
98194SOL    HW196479  13.884   7.082   7.194
98194SOL    HW296480  13.781   7.072   7.084
98195SOL     OW96481   2.791  13.928  14.590
98195SOL    HW196482   2.752  13.981  14.520
98195SOL    HW296483   2.830  13.853  14.544
98196SOL     OW96484   5.984   6.557   0.258
98196SOL    HW196485   6.027   6.609   0.327
98196SOL    HW296486   6.006   6.603   0.177
98197SOL     OW96487  10.875   9.500   7.723
98197SOL    HW196488  10.916   9.497   7.809
98197SOL    HW296489  10.931   9.558   7.671
98198SOL     OW96490   8.316   0.222   5.242
98198SOL    HW196491   8.366   0.264   5.171
98198SOL    HW296492   8.254   0.165   5.196
98199SOL     OW96493   8.022   7.093   6.972
98199SOL    HW196494   7.927   7.092   6.959
98199SOL    HW296495   8.058   7.073   6.885
98200SOL     OW96496   8.975   3.257  13.500
98200SOL    HW196497   8.947   3.343  13.532
98200SOL    HW296498   9.070   3.263  13.496
98201SOL     OW96499   8.669   1.802   5.240
98201SOL    HW196500   8.646   1.775   5.329
98201SOL    HW296501   8.765   1.800   5.239
98202SOL     OW96502   1.560  11.820   5.645
98202SOL    HW196503   1.542  11.912   5.624
98202SOL    HW296504   1.543  11.813   5.738
98203SOL     OW96505   4.017   0.034   0.187
98203SOL    HW196506   3.968   0.116   0.191
98203SOL    HW296507   4.063   0.036   0.103
98204SOL     OW96508   7.038   4.206  11.139
98204SOL    HW196509   6.980   4.277  11.165
98204SOL    HW296510   7.045   4.151  11.217
98205SOL     OW96511  13.578  10.605   4.232
98205SOL    HW196512  13.525  10.666   4.180
98205SOL    HW296513  13.526  10.587   4.310
98206SOL     OW96514  10.004   4.452   2.179
98206SOL    HW196515  10.064   4.391   2.135
98206SOL    HW296516  10.059   4.497   2.243
98207SOL     OW96517  10.948   4.088   5.222
98207SOL    HW196518  10.932   4.122   5.310
98207SOL    HW296519  10.926   4.160   5.163
98208SOL     OW96520   2.571   4.486  11.715
98208SOL    HW196521   2.478   4.506  11.700
98208SOL    HW296522   2.606   4.563  11.759
98209SOL     OW96523   5.539   7.473  10.690
98209SOL    HW196524   5.485   7.550  10.707
98209SOL    HW296525   5.482   7.398  10.707
98210SOL     OW96526   0.228   3.410   7.838
98210SOL    HW196527   0.178   3.340   7.794
98210SOL    HW296528   0.231   3.383   7.929
98211SOL     OW96529  13.726  13.505   7.827
98211SOL    HW196530  13.750  13.563   7.756
98211SOL    HW296531  13.632  13.519   7.839
98212SOL     OW96532  13.931   1.298   8.317
98212SOL    HW196533  14.018   1.298   8.356
98212SOL    HW296534  13.877   1.247   8.377
98213SOL     OW96535   3.921   4.180   9.674
98213SOL    HW196536   3.890   4.266   9.644
98213SOL    HW296537   4.016   4.188   9.675
98214SOL     OW96538  10.143   6.229   1.202
98214SOL    HW196539  10.141   6.163   1.133
98214SOL    HW296540  10.070   6.288   1.181
98215SOL     OW96541   0.355   9.597  11.654
98215SOL    HW196542   0.293   9.629  11.587
98215SOL    HW296543   0.441   9.604  11.613
98216SOL     OW96544   0.398   4.071   5.690
98216SOL    HW196545   0.343   3.995   5.709
98216SOL    HW296546   0.338   4.145   5.690
98217SOL     OW96547   8.774  13.040   8.475
98217SOL    HW196548   8.708  13.108   8.467
98217SOL    HW296549   8.731  12.969   8.524
98218SOL     OW96550  11.402   1.053  10.337
98218SOL    HW196551  11.313   1.086  10.350
98218SOL    HW296552  11.403   0.967  10.379
98219SOL     OW96553   7.228  11.130   6.166
98219SOL    HW196554   7.229  11.212   6.116
98219SOL    HW296555   7.137  11.120   6.195
98220SOL     OW96556  12.599   4.305  12.922
98220SOL    HW196557  12.592   4.334  13.014
98220SOL    HW296558  12.515   4.262  12.905
98221SOL     OW96559  12.421   0.019  12.964
98221SOL    HW196560  12.502   0.065  12.986
98221SOL    HW296561  12.352   0.083  12.978
98222SOL     OW96562   7.724  13.545   6.302
98222SOL    HW196563   7.686  13.584   6.380
98222SOL    HW296564   7.790  13.608   6.273
98223SOL     OW96565   9.588  11.374  10.527
98223SOL    HW196566   9.654  11.439  10.504
98223SOL    HW296567   9.506  11.424  10.532
98224SOL     OW96568  10.194  10.716  10.241
98224SOL    HW196569  10.276  10.695  10.284
98224SOL    HW296570  10.184  10.648  10.174
98225SOL     OW96571   0.938  11.935   3.029
98225SOL    HW196572   1.017  11.885   3.008
98225SOL    HW296573   0.956  12.024   2.999
98226SOL     OW96574  10.489  11.557  10.600
98226SOL    HW196575  10.432  11.480  10.597
98226SOL    HW296576  10.556  11.534  10.666
98227SOL     OW96577  12.482  12.590   1.719
98227SOL    HW196578  12.406  12.634   1.756
98227SOL    HW296579  12.483  12.617   1.627
98228SOL     OW96580  10.057   1.968  12.362
98228SOL    HW196581  10.106   1.995  12.439
98228SOL    HW296582  10.120   1.972  12.290
98229SOL     OW96583   0.069  13.566   8.875
98229SOL    HW196584   0.040  13.498   8.815
98229SOL    HW296585   0.150  13.599   8.836
98230SOL     OW96586   3.343  10.401   1.241
98230SOL    HW196587   3.391  10.358   1.311
98230SOL    HW296588   3.391  10.483   1.226
98231SOL     OW96589   6.925   5.836  11.493
98231SOL    HW196590   6.970   5.761  11.532
98231SOL    HW296591   6.861   5.797  11.434
98232SOL     OW96592  13.725  12.688   0.017
98232SOL    HW196593  13.760  12.608   0.056
98232SOL    HW296594  13.647  12.708   0.069
98233SOL     OW96595   1.753   0.506   4.117
98233SOL    HW196596   1.754   0.418   4.154
98233SOL    HW296597   1.671   0.512   4.069
98234SOL     OW96598   0.053   7.136   3.590
98234SOL    HW196599   0.107   7.208   3.557
98234SOL    HW296600   0.042   7.078   3.514
98235SOL     OW96601   8.951   7.336  13.663
98235SOL    HW196602   8.899   7.304  13.737
98235SOL    HW296603   8.888   7.374  13.603
98236SOL     OW96604   8.050   6.365  12.860
98236SOL    HW196605   8.079   6.387  12.771
98236SOL    HW296606   7.997   6.440  12.887
98237SOL     OW96607  13.585   9.589   3.686
98237SOL    HW196608  13.527   9.656   3.649
98237SOL    HW296609  13.550   9.506   3.653
98238SOL     OW96610  13.063  14.126  11.057
98238SOL    HW196611  12.982  14.163  11.020
98238SOL    HW296612  13.039  14.101  11.146
98239SOL     OW96613  11.563   8.759  11.744
98239SOL    HW196614  11.504   8.712  11.684
98239SOL    HW296615  11.640   8.701  11.751
98240SOL     OW96616   9.669  14.518   5.272
98240SOL    HW196617   9.606  14.484   5.208
98240SOL    HW296618   9.650  14.612   5.276
98241SOL     OW96619   2.718   9.702   7.283
98241SOL    HW196620   2.728   9.614   7.245
98241SOL    HW296621   2.642   9.695   7.340
98242SOL     OW96622  11.242   4.909   4.055
98242SOL    HW196623  11.157   4.867   4.047
98242SOL    HW296624  11.251   4.961   3.975
98243SOL     OW96625  12.082   5.243   3.746
98243SOL    HW196626  12.094   5.233   3.652
98243SOL    HW296627  12.129   5.324   3.767
98244SOL     OW96628   2.495  10.704  11.184
98244SOL    HW196629   2.424  10.766  11.200
98244SOL    HW296630   2.557  10.720  11.255
98245SOL     OW96631  13.037   0.659   2.157
98245SOL    HW196632  13.129   0.651   2.131
98245SOL    HW296633  13.025   0.752   2.174
98246SOL     OW96634  10.369  11.636   4.123
98246SOL    HW196635  10.441  11.614   4.182
98246SOL    HW296636  10.398  11.608   4.037
98247SOL     OW96637   2.549  12.133   1.354
98247SOL    HW196638   2.575  12.225   1.365
98247SOL    HW296639   2.459  12.138   1.322
98248SOL     OW96640   4.638   9.387   1.672
98248SOL    HW196641   4.581   9.445   1.722
98248SOL    HW296642   4.688   9.339   1.738
98249SOL     OW96643  11.584   4.780  14.328
98249SOL    HW196644  11.621   4.835  14.259
98249SOL    HW296645  11.628   4.809  14.407
98250SOL     OW96646  12.717   2.031  10.753
98250SOL    HW196647  12.637   2.072  10.720
98250SOL    HW296648  12.690   1.986  10.833
98251SOL     OW96649   9.442   6.048   8.148
98251SOL    HW196650   9.523   6.015   8.109
98251SOL    HW296651   9.372   6.003   8.101
98252SOL     OW96652  14.553   8.599   9.361
98252SOL    HW196653  14.591   8.613   9.448
98252SOL    HW296654  14.582   8.511   9.336
98253SOL     OW96655   9.633   7.452   6.497
98253SOL    HW196656   9.554   7.436   6.446
98253SOL    HW296657   9.701   7.404   6.451
98254SOL     OW96658   6.800   0.181   4.241
98254SOL    HW196659   6.726   0.237   4.266
98254SOL    HW296660   6.876   0.222   4.281
98255SOL     OW96661  12.811   3.670   6.319
98255SOL    HW196662  12.889   3.696   6.368
98255SOL    HW296663  12.838   3.591   6.272
98256SOL     OW96664   2.387  11.771   2.239
98256SOL    HW196665   2.449  11.740   2.173
98256SOL    HW296666   2.301  11.756   2.200
98257SOL     OW96667  10.682  13.421  13.860
98257SOL    HW196668  10.675  13.488  13.792
98257SOL    HW296669  10.773  13.391  13.855
98258SOL     OW96670   3.248  11.066   6.123
98258SOL    HW196671   3.338  11.085   6.148
98258SOL    HW296672   3.250  11.064   6.027
98259SOL     OW96673   7.921  13.543   5.792
98259SOL    HW196674   7.958  13.505   5.872
98259SOL    HW296675   7.984  13.610   5.766
98260SOL     OW96676   0.544  13.443   0.721
98260SOL    HW196677   0.605  13.496   0.671
98260SOL    HW296678   0.570  13.454   0.813
98261SOL     OW96679   0.405   2.172   1.287
98261SOL    HW196680   0.371   2.207   1.204
98261SOL    HW296681   0.491   2.136   1.265
98262SOL     OW96682   7.634   2.496   0.667
98262SOL    HW196683   7.623   2.414   0.618
98262SOL    HW296684   7.592   2.478   0.752
98263SOL     OW96685   5.113   9.999  12.983
98263SOL    HW196686   5.122  10.089  13.014
98263SOL    HW296687   5.018   9.983  12.981
98264SOL     OW96688   4.498   7.955  14.806
98264SOL    HW196689   4.423   7.920  14.855
98264SOL    HW296690   4.575   7.918  14.850
98265SOL     OW96691   3.633  14.162   7.014
98265SOL    HW196692   3.634  14.110   6.934
98265SOL    HW296693   3.604  14.101   7.082
98266SOL     OW96694  11.093  11.328  11.503
98266SOL    HW196695  11.138  11.411  11.522
98266SOL    HW296696  11.049  11.305  11.584
98267SOL     OW96697  11.955  14.656   3.140
98267SOL    HW196698  11.943  14.738   3.188
98267SOL    HW296699  12.040  14.666   3.097
98268SOL     OW96700   7.169   2.877   2.859
98268SOL    HW196701   7.263   2.875   2.840
98268SOL    HW296702   7.161   2.934   2.935
98269SOL     OW96703   9.280   4.155   7.853
98269SOL    HW196704   9.296   4.150   7.948
98269SOL    HW296705   9.240   4.241   7.841
98270SOL     OW96706   0.784   2.236   1.799
98270SOL    HW196707   0.721   2.308   1.798
98270SOL    HW296708   0.825   2.242   1.886
98271SOL     OW96709  10.810   5.447   4.948
98271SOL    HW196710  10.802   5.358   4.915
98271SOL    HW296711  10.800   5.503   4.871
98272SOL     OW96712   9.009  14.440   2.324
98272SOL    HW196713   8.955  14.399   2.392
98272SOL    HW296714   9.098  14.436   2.359
98273SOL     OW96715   1.501   3.284   8.529
98273SOL    HW196716   1.513   3.320   8.617
98273SOL    HW296717   1.573   3.321   8.478
98274SOL     OW96718   6.082   2.682   9.259
98274SOL    HW196719   6.049   2.749   9.319
98274SOL    HW296720   6.006   2.659   9.206
98275SOL     OW96721  11.991   4.320   6.764
98275SOL    HW196722  11.996   4.365   6.849
98275SOL    HW296723  11.915   4.262   6.772
98276SOL     OW96724   8.912   9.403   8.142
98276SOL    HW196725   8.912   9.329   8.081
98276SOL    HW296726   9.005   9.421   8.158
98277SOL     OW96727   2.151   3.631   4.300
98277SOL    HW196728   2.236   3.675   4.301
98277SOL    HW296729   2.139   3.599   4.389
98278SOL     OW96730  12.227  14.652   5.039
98278SOL    HW196731  12.261  14.581   4.985
98278SOL    HW296732  12.203  14.720   4.976
98279SOL     OW96733  14.189   4.762   9.103
98279SOL    HW196734  14.165   4.833   9.043
98279SOL    HW296735  14.237   4.804   9.173
98280SOL     OW96736   5.253   3.342  14.606
98280SOL    HW196737   5.328   3.334  14.547
98280SOL    HW296738   5.280   3.403  14.673
98281SOL     OW96739   8.740   8.373  11.625
98281SOL    HW196740   8.760   8.426  11.548
98281SOL    HW296741   8.720   8.436  11.694
98282SOL     OW96742  10.442   6.468   4.114
98282SOL    HW196743  10.507   6.429   4.172
98282SOL    HW296744  10.359   6.458   4.159
98283SOL     OW96745  12.126   7.292  12.140
98283SOL    HW196746  12.059   7.234  12.175
98283SOL    HW296747  12.123   7.369  12.196
98284SOL     OW96748  14.477   3.617  10.221
98284SOL    HW196749  14.470   3.522  10.235
98284SOL    HW296750  14.567   3.630  10.190
98285SOL     OW96751  11.297  10.206   6.348
98285SOL    HW196752  11.275  10.294   6.317
98285SOL    HW296753  11.393  10.204   6.344
98286SOL     OW96754  14.511   3.832   7.943
98286SOL    HW196755  14.606   3.821   7.952
98286SOL    HW296756  14.501   3.915   7.896
98287SOL     OW96757   4.579  10.439  14.139
98287SOL    HW196758   4.576  10.534  14.130
98287SOL    HW296759   4.587  10.406  14.049
98288SOL     OW96760   4.809  13.681  14.642
98288SOL    HW196761   4.759  13.703  14.563
98288SOL    HW296762   4.900  13.699  14.618
98289SOL     OW96763   3.940   7.606  13.138
98289SOL    HW196764   3.905   7.657  13.066
98289SOL    HW296765   3.931   7.514  13.111
98290SOL     OW96766  11.505   8.464   9.632
98290SOL    HW196767  11.467   8.411   9.561
98290SOL    HW296768  11.437   8.528   9.653
98291SOL     OW96769   0.734   6.179   5.037
98291SOL    HW196770   0.645   6.196   5.007
98291SOL    HW296771   0.776   6.265   5.038
98292SOL     OW96772  11.169   2.638   9.530
98292SOL    HW196773  11.230   2.612   9.600
98292SOL    HW296774  11.127   2.717   9.564
98293SOL     OW96775   3.363   3.585   2.113
98293SOL    HW196776   3.308   3.548   2.044
98293SOL    HW296777   3.392   3.509   2.164
98294SOL     OW96778   6.775  12.952  12.161
98294SOL    HW196779   6.783  12.913  12.074
98294SOL    HW296780   6.748  12.880  12.218
98295SOL     OW96781   2.374   2.375   4.755
98295SOL    HW196782   2.421   2.404   4.677
98295SOL    HW296783   2.405   2.286   4.770
98296SOL     OW96784  14.011   3.461  14.000
98296SOL    HW196785  13.976   3.534  13.949
98296SOL    HW296786  13.935   3.408  14.022
98297SOL     OW96787   7.726  10.823  11.391
98297SOL    HW196788   7.800  10.816  11.332
98297SOL    HW296789   7.680  10.740  11.382
98298SOL     OW96790   2.593   7.371  10.372
98298SOL    HW196791   2.688   7.363  10.378
98298SOL    HW296792   2.576   7.378  10.278
98299SOL     OW96793   5.937  11.387   9.779
98299SOL    HW196794   5.895  11.381   9.865
98299SOL    HW296795   5.895  11.320   9.726
98300SOL     OW96796  10.293   2.405   8.866
98300SOL    HW196797  10.317   2.497   8.878
98300SOL    HW296798  10.366   2.356   8.904
98301SOL     OW96799   4.971   0.833   4.970
98301SOL    HW196800   5.059   0.844   4.934
98301SOL    HW296801   4.913   0.869   4.902
98302SOL     OW96802   3.275  14.386   9.692
98302SOL    HW196803   3.315  14.360   9.609
98302SOL    HW296804   3.195  14.432   9.667
98303SOL     OW96805   0.269  11.594  11.449
98303SOL    HW196806   0.337  11.542  11.407
98303SOL    HW296807   0.317  11.666  11.491
98304SOL     OW96808  14.004   5.115   2.854
98304SOL    HW196809  13.952   5.042   2.887
98304SOL    HW296810  13.945   5.191   2.858
98305SOL     OW96811   5.579   0.855   6.002
98305SOL    HW196812   5.651   0.916   6.019
98305SOL    HW296813   5.622   0.775   5.972
98306SOL     OW96814   1.528   7.716   8.892
98306SOL    HW196815   1.454   7.709   8.952
98306SOL    HW296816   1.539   7.628   8.856
98307SOL     OW96817   3.688   3.618   3.187
98307SOL    HW196818   3.725   3.654   3.268
98307SOL    HW296819   3.723   3.530   3.182
98308SOL     OW96820   3.823   2.197   9.850
98308SOL    HW196821   3.762   2.123   9.854
98308SOL    HW296822   3.794   2.256   9.918
98309SOL     OW96823  12.181   9.504  14.225
98309SOL    HW196824  12.195   9.549  14.309
98309SOL    HW296825  12.264   9.460  14.206
98310SOL     OW96826   9.995   0.596   4.953
98310SOL    HW196827   9.914   0.562   4.991
98310SOL    HW296828  10.054   0.521   4.954
98311SOL     OW96829   6.250   2.355   6.083
98311SOL    HW196830   6.175   2.391   6.036
98311SOL    HW296831   6.215   2.333   6.170
98312SOL     OW96832  11.138   1.637   9.161
98312SOL    HW196833  11.077   1.617   9.232
98312SOL    HW296834  11.129   1.731   9.147
98313SOL     OW96835  11.405   3.551   7.950
98313SOL    HW196836  11.396   3.461   7.920
98313SOL    HW296837  11.388   3.547   8.044
98314SOL     OW96838  11.972  10.858   5.607
98314SOL    HW196839  12.009  10.779   5.568
98314SOL    HW296840  11.968  10.921   5.535
98315SOL     OW96841   4.928  13.290  14.549
98315SOL    HW196842   4.955  13.381  14.532
98315SOL    HW296843   4.943  13.279  14.643
98316SOL     OW96844   0.920   1.971  14.466
98316SOL    HW196845   0.853   2.039  14.471
98316SOL    HW296846   0.873   1.893  14.435
98317SOL     OW96847   7.978   4.195   4.635
98317SOL    HW196848   8.051   4.230   4.585
98317SOL    HW296849   7.933   4.273   4.670
98318SOL     OW96850   1.783   8.985   8.968
98318SOL    HW196851   1.846   8.922   8.931
98318SOL    HW296852   1.837   9.055   9.004
98319SOL     OW96853  11.860   2.962   6.963
98319SOL    HW196854  11.806   3.034   6.930
98319SOL    HW296855  11.896   2.996   7.045
98320SOL     OW96856  13.011  10.195  10.824
98320SOL    HW196857  13.012  10.113  10.874
98320SOL    HW296858  13.100  10.204  10.791
98321SOL     OW96859   8.947   4.417   3.558
98321SOL    HW196860   9.020   4.382   3.609
98321SOL    HW296861   8.941   4.359   3.482
98322SOL     OW96862   9.511   4.386   2.014
98322SOL    HW196863   9.442   4.429   1.963
98322SOL    HW296864   9.481   4.295   2.022
98323SOL     OW96865   0.984   7.002   8.816
98323SOL    HW196866   1.048   7.044   8.759
98323SOL    HW296867   0.909   7.061   8.817
98324SOL     OW96868   1.613   8.768  13.531
98324SOL    HW196869   1.673   8.730  13.467
98324SOL    HW296870   1.541   8.802  13.478
98325SOL     OW96871  10.408   7.597   3.335
98325SOL    HW196872  10.344   7.616   3.404
98325SOL    HW296873  10.493   7.613   3.377
98326SOL     OW96874  13.075  14.128  13.232
98326SOL    HW196875  13.151  14.149  13.179
98326SOL    HW296876  13.111  14.091  13.313
98327SOL     OW96877  12.848   4.323   7.807
98327SOL    HW196878  12.836   4.247   7.864
98327SOL    HW296879  12.907   4.380   7.856
98328SOL     OW96880   5.915   6.395   3.907
98328SOL    HW196881   5.836   6.440   3.939
98328SOL    HW296882   5.899   6.303   3.928
98329SOL     OW96883   7.054   3.145   8.183
98329SOL    HW196884   6.991   3.200   8.138
98329SOL    HW296885   7.095   3.093   8.114
98330SOL     OW96886   3.877   7.104   1.318
98330SOL    HW196887   3.955   7.146   1.353
98330SOL    HW296888   3.910   7.022   1.281
98331SOL     OW96889   4.088   1.268   1.640
98331SOL    HW196890   4.158   1.271   1.575
98331SOL    HW296891   4.070   1.360   1.660
98332SOL     OW96892   5.162   6.878   4.898
98332SOL    HW196893   5.144   6.959   4.946
98332SOL    HW296894   5.133   6.808   4.957
98333SOL     OW96895   2.926   5.417  12.463
98333SOL    HW196896   2.990   5.465  12.515
98333SOL    HW296897   2.943   5.325  12.483
98334SOL     OW96898   8.256   2.835   3.001
98334SOL    HW196899   8.222   2.748   3.024
98334SOL    HW296900   8.256   2.883   3.084
98335SOL     OW96901   9.178  13.797   5.186
98335SOL    HW196902   9.136  13.712   5.201
98335SOL    HW296903   9.222  13.787   5.102
98336SOL     OW96904   6.042   6.550  12.332
98336SOL    HW196905   6.046   6.476  12.271
98336SOL    HW296906   6.112   6.609  12.303
98337SOL     OW96907   3.759   0.783  10.678
98337SOL    HW196908   3.792   0.859  10.630
98337SOL    HW296909   3.716   0.729  10.611
98338SOL     OW96910   0.920   2.420   5.827
98338SOL    HW196911   0.922   2.373   5.744
98338SOL    HW296912   0.849   2.379   5.876
98339SOL     OW96913   1.579  14.432  11.504
98339SOL    HW196914   1.509  14.491  11.531
98339SOL    HW296915   1.559  14.411  11.413
98340SOL     OW96916  10.015  13.600   3.305
98340SOL    HW196917   9.945  13.627   3.246
98340SOL    HW296918   9.996  13.647   3.387
98341SOL     OW96919   7.191  10.939  12.924
98341SOL    HW196920   7.126  10.917  12.991
98341SOL    HW296921   7.228  10.855  12.898
98342SOL     OW96922   4.824   8.176   3.934
98342SOL    HW196923   4.837   8.262   3.974
98342SOL    HW296924   4.729   8.165   3.932
98343SOL     OW96925   5.116   8.411  11.820
98343SOL    HW196926   5.179   8.339  11.815
98343SOL    HW296927   5.169   8.490  11.806
98344SOL     OW96928  12.899  10.043   9.825
98344SOL    HW196929  12.969  10.022   9.763
98344SOL    HW296930  12.819  10.013   9.781
98345SOL     OW96931   5.830   1.719   1.836
98345SOL    HW196932   5.833   1.715   1.932
98345SOL    HW296933   5.828   1.628   1.808
98346SOL     OW96934  14.465  12.171   0.899
98346SOL    HW196935  14.416  12.139   0.975
98346SOL    HW296936  14.554  12.184   0.932
98347SOL     OW96937   6.215  14.552   3.382
98347SOL    HW196938   6.130  14.519   3.352
98347SOL    HW296939   6.195  14.595   3.465
98348SOL     OW96940   4.073   3.329  12.723
98348SOL    HW196941   4.120   3.356  12.801
98348SOL    HW296942   4.137   3.281  12.671
98349SOL     OW96943   0.902   9.845   9.523
98349SOL    HW196944   0.915   9.915   9.588
98349SOL    HW296945   0.990   9.825   9.492
98350SOL     OW96946   8.491   6.134  13.069
98350SOL    HW196947   8.560   6.071  13.047
98350SOL    HW296948   8.433   6.134  12.992
98351SOL     OW96949  11.474   2.847   5.705
98351SOL    HW196950  11.424   2.896   5.640
98351SOL    HW296951  11.492   2.910   5.774
98352SOL     OW96952   2.908  13.694  14.017
98352SOL    HW196953   2.884  13.610  14.057
98352SOL    HW296954   2.833  13.717  13.962
98353SOL     OW96955  12.851   7.369   1.017
98353SOL    HW196956  12.917   7.320   0.967
98353SOL    HW296957  12.831   7.445   0.962
98354SOL     OW96958   2.862   6.727  12.926
98354SOL    HW196959   2.791   6.709  12.864
98354SOL    HW296960   2.940   6.690  12.884
98355SOL     OW96961   8.504   5.935   7.283
98355SOL    HW196962   8.451   5.858   7.304
98355SOL    HW296963   8.497   5.992   7.360
98356SOL     OW96964   6.156  10.303   7.136
98356SOL    HW196965   6.215  10.248   7.085
98356SOL    HW296966   6.140  10.252   7.216
98357SOL     OW96967   9.729  10.481   2.799
98357SOL    HW196968   9.822  10.456   2.799
98357SOL    HW296969   9.683  10.400   2.823
98358SOL     OW96970  13.901  14.780   6.433
98358SOL    HW196971  13.814  14.740   6.429
98358SOL    HW296972  13.934  14.756   6.519
98359SOL     OW96973   0.904   6.083   8.979
98359SOL    HW196974   0.894   5.988   8.978
98359SOL    HW296975   0.998   6.097   8.969
98360SOL     OW96976  14.263   9.580   8.222
98360SOL    HW196977  14.299   9.504   8.176
98360SOL    HW296978  14.340   9.626   8.255
98361SOL     OW96979   1.343   5.319   3.826
98361SOL    HW196980   1.290   5.345   3.750
98361SOL    HW296981   1.372   5.402   3.864
98362SOL     OW96982  10.185   3.848   3.806
98362SOL    HW196983  10.109   3.893   3.842
98362SOL    HW296984  10.200   3.774   3.866
98363SOL     OW96985   8.129   4.702  13.901
98363SOL    HW196986   8.135   4.777  13.961
98363SOL    HW296987   8.092   4.738  13.821
98364SOL     OW96988   9.527   0.349   2.980
98364SOL    HW196989   9.562   0.290   3.047
98364SOL    HW296990   9.505   0.428   3.028
98365SOL     OW96991   1.215  13.963   2.997
98365SOL    HW196992   1.263  14.028   2.947
98365SOL    HW296993   1.263  13.881   2.982
98366SOL     OW96994   9.954  11.813   8.216
98366SOL    HW196995   9.889  11.883   8.209
98366SOL    HW296996  10.028  11.844   8.164
98367SOL     OW96997   0.492   0.176  13.292
98367SOL    HW196998   0.429   0.249  13.289
98367SOL    HW296999   0.566   0.207  13.240
98368SOL     OW97000   3.652   9.936   2.751
98368SOL    HW197001   3.575   9.956   2.698
98368SOL    HW297002   3.637   9.984   2.833
98369SOL     OW97003   1.952   3.262   0.679
98369SOL    HW197004   1.976   3.258   0.772
98369SOL    HW297005   2.004   3.192   0.639
98370SOL     OW97006   1.948  11.709  11.417
98370SOL    HW197007   1.873  11.720  11.359
98370SOL    HW297008   1.913  11.725  11.505
98371SOL     OW97009   4.264  13.244   0.450
98371SOL    HW197010   4.228  13.320   0.404
98371SOL    HW297011   4.245  13.170   0.392
98372SOL     OW97012  13.651   4.063   0.717
98372SOL    HW197013  13.727   4.110   0.753
98372SOL    HW297014  13.617   4.121   0.649
98373SOL     OW97015  13.842   3.558  10.491
98373SOL    HW197016  13.827   3.646  10.454
98373SOL    HW297017  13.769   3.545  10.551
98374SOL     OW97018   8.005   7.433  13.411
98374SOL    HW197019   8.036   7.387  13.333
98374SOL    HW297020   7.913   7.451  13.393
98375SOL     OW97021   3.661   5.982  14.747
98375SOL    HW197022   3.608   5.983  14.667
98375SOL    HW297023   3.750   6.004  14.717
98376SOL     OW97024  12.111   8.551  13.991
98376SOL    HW197025  12.174   8.576  14.057
98376SOL    HW297026  12.139   8.596  13.911
98377SOL     OW97027   6.025   0.424  11.707
98377SOL    HW197028   5.945   0.411  11.758
98377SOL    HW297029   6.088   0.459  11.770
98378SOL     OW97030   4.983  10.710   8.977
98378SOL    HW197031   5.039  10.740   9.048
98378SOL    HW297032   4.905  10.766   8.983
98379SOL     OW97033  10.594  12.089  12.035
98379SOL    HW197034  10.544  12.157  11.990
98379SOL    HW297035  10.583  12.110  12.128
98380SOL     OW97036   9.739   9.701   1.475
98380SOL    HW197037   9.778   9.624   1.515
98380SOL    HW297038   9.647   9.677   1.460
98381SOL     OW97039   1.729  11.536   7.195
98381SOL    HW197040   1.767  11.581   7.119
98381SOL    HW297041   1.722  11.604   7.262
98382SOL     OW97042   9.178   3.681   5.673
98382SOL    HW197043   9.096   3.722   5.700
98382SOL    HW297044   9.177   3.595   5.714
98383SOL     OW97045   7.623  10.255   4.434
98383SOL    HW197046   7.634  10.161   4.421
98383SOL    HW297047   7.543  10.276   4.386
98384SOL     OW97048   4.687   4.731   7.226
98384SOL    HW197049   4.773   4.706   7.260
98384SOL    HW297050   4.628   4.661   7.255
98385SOL     OW97051  12.364  11.201   2.094
98385SOL    HW197052  12.403  11.115   2.112
98385SOL    HW297053  12.439  11.260   2.085
98386SOL     OW97054  12.504  11.917  11.304
98386SOL    HW197055  12.564  11.980  11.263
98386SOL    HW297056  12.460  11.875  11.229
98387SOL     OW97057   6.604   3.021   0.374
98387SOL    HW197058   6.642   2.968   0.444
98387SOL    HW297059   6.586   3.106   0.414
98388SOL     OW97060   6.006  12.703   1.623
98388SOL    HW197061   5.913  12.697   1.604
98388SOL    HW297062   6.011  12.715   1.718
98389SOL     OW97063   5.648  12.989   0.381
98389SOL    HW197064   5.696  12.907   0.382
98389SOL    HW297065   5.637  13.010   0.288
98390SOL     OW97066  13.080  14.586   9.567
98390SOL    HW197067  13.028  14.511   9.596
98390SOL    HW297068  13.055  14.599   9.476
98391SOL     OW97069   6.666   8.007  11.517
98391SOL    HW197070   6.734   8.074  11.524
98391SOL    HW297071   6.597   8.036  11.577
98392SOL     OW97072  13.447  14.786   9.302
98392SOL    HW197073  13.433  14.837   9.222
98392SOL    HW297074  13.521  14.829   9.345
98393SOL     OW97075  12.941   2.751   5.799
98393SOL    HW197076  12.922   2.762   5.706
98393SOL    HW297077  13.032   2.779   5.809
98394SOL     OW97078   4.451   7.110   0.661
98394SOL    HW197079   4.393   7.179   0.628
98394SOL    HW297080   4.405   7.028   0.640
98395SOL     OW97081   1.806   9.789   9.550
98395SOL    HW197082   1.811   9.883   9.566
98395SOL    HW297083   1.891   9.767   9.510
98396SOL     OW97084   2.589   8.916   5.906
98396SOL    HW197085   2.546   8.832   5.894
98396SOL    HW297086   2.680   8.894   5.925
98397SOL     OW97087  11.951   8.219   4.030
98397SOL    HW197088  11.972   8.308   4.058
98397SOL    HW297089  11.954   8.222   3.935
98398SOL     OW97090   5.098  13.418   6.096
98398SOL    HW197091   5.023  13.359   6.102
98398SOL    HW297092   5.155  13.379   6.030
98399SOL     OW97093  14.212  11.960   7.285
98399SOL    HW197094  14.254  11.879   7.314
98399SOL    HW297095  14.118  11.941   7.290
98400SOL     OW97096   6.614   9.242  14.727
98400SOL    HW197097   6.533   9.270  14.768
98400SOL    HW297098   6.599   9.253  14.633
98401SOL     OW97099  13.197   8.033   4.284
98401SOL    HW197100  13.188   8.081   4.366
98401SOL    HW297101  13.256   7.960   4.305
98402SOL     OW97102  13.728  12.399  14.097
98402SOL    HW197103  13.778  12.319  14.082
98402SOL    HW297104  13.764  12.462  14.035
98403SOL     OW97105   2.640  14.119   9.858
98403SOL    HW197106   2.601  14.055   9.799
98403SOL    HW297107   2.566  14.151   9.910
98404SOL     OW97108  10.427   9.417  12.201
98404SOL    HW197109  10.494   9.413  12.269
98404SOL    HW297110  10.368   9.486  12.230
98405SOL     OW97111   6.611   5.691  10.182
98405SOL    HW197112   6.679   5.651  10.128
98405SOL    HW297113   6.578   5.764  10.129
98406SOL     OW97114  13.342   5.829  12.989
98406SOL    HW197115  13.292   5.792  12.916
98406SOL    HW297116  13.289   5.903  13.019
98407SOL     OW97117  12.558   4.382   2.468
98407SOL    HW197118  12.548   4.474   2.445
98407SOL    HW297119  12.486   4.338   2.424
98408SOL     OW97120   3.774   4.675  10.801
98408SOL    HW197121   3.826   4.708  10.875
98408SOL    HW297122   3.747   4.588  10.828
98409SOL     OW97123  14.333   4.373  13.264
98409SOL    HW197124  14.314   4.465  13.280
98409SOL    HW297125  14.308   4.359  13.173
98410SOL     OW97126  11.231   2.501   0.118
98410SOL    HW197127  11.259   2.584   0.079
98410SOL    HW297128  11.135   2.503   0.113
98411SOL     OW97129   0.992   6.295  10.169
98411SOL    HW197130   1.023   6.304  10.079
98411SOL    HW297131   0.903   6.331  10.169
98412SOL     OW97132   8.156   9.859  13.082
98412SOL    HW197133   8.218   9.913  13.033
98412SOL    HW297134   8.153   9.900  13.169
98413SOL     OW97135   9.820   6.632   9.071
98413SOL    HW197136   9.757   6.614   9.001
98413SOL    HW297137   9.765   6.654   9.147
98414SOL     OW97138   3.599   5.532   3.390
98414SOL    HW197139   3.642   5.618   3.384
98414SOL    HW297140   3.555   5.533   3.475
98415SOL     OW97141   8.960  14.592   0.647
98415SOL    HW197142   8.890  14.647   0.613
98415SOL    HW297143   9.032  14.652   0.665
98416SOL     OW97144  13.420   3.403  10.781
98416SOL    HW197145  13.469   3.465  10.727
98416SOL    HW297146  13.355   3.366  10.722
98417SOL     OW97147   0.517   2.887  11.875
98417SOL    HW197148   0.503   2.804  11.829
98417SOL    HW297149   0.605   2.879  11.914
98418SOL     OW97150  14.337   0.381   4.913
98418SOL    HW197151  14.397   0.307   4.904
98418SOL    HW297152  14.387   0.447   4.961
98419SOL     OW97153   8.857   5.922  10.465
98419SOL    HW197154   8.922   5.886  10.406
98419SOL    HW297155   8.898   5.919  10.551
98420SOL     OW97156   4.996   1.043   0.620
98420SOL    HW197157   4.976   0.963   0.570
98420SOL    HW297158   5.083   1.069   0.589
98421SOL     OW97159   2.985  12.677   5.732
98421SOL    HW197160   2.987  12.641   5.821
98421SOL    HW297161   3.062  12.734   5.727
98422SOL     OW97162   6.483  14.433  12.544
98422SOL    HW197163   6.523  14.520  12.544
98422SOL    HW297164   6.411  14.441  12.481
98423SOL     OW97165   6.181   3.706  12.396
98423SOL    HW197166   6.186   3.727  12.303
98423SOL    HW297167   6.244   3.636  12.409
98424SOL     OW97168   8.935  14.158  11.526
98424SOL    HW197169   9.002  14.097  11.557
98424SOL    HW297170   8.857  14.135  11.577
98425SOL     OW97171   5.105  13.585  12.662
98425SOL    HW197172   5.124  13.625  12.578
98425SOL    HW297173   5.128  13.652  12.727
98426SOL     OW97174  13.729   4.267   5.692
98426SOL    HW197175  13.731   4.266   5.597
98426SOL    HW297176  13.635   4.264   5.714
98427SOL     OW97177   9.110   9.981   2.161
98427SOL    HW197178   9.019  10.011   2.162
98427SOL    HW297179   9.127   9.953   2.251
98428SOL     OW97180   3.540   3.259   7.842
98428SOL    HW197181   3.479   3.331   7.824
98428SOL    HW297182   3.500   3.183   7.802
98429SOL     OW97183   8.646  10.142   2.866
98429SOL    HW197184   8.550  10.144   2.861
98429SOL    HW297185   8.666  10.170   2.955
98430SOL     OW97186   9.730   3.940   9.139
98430SOL    HW197187   9.701   3.863   9.187
98430SOL    HW297188   9.747   4.005   9.207
98431SOL     OW97189   6.873   8.258   1.937
98431SOL    HW197190   6.831   8.194   1.995
98431SOL    HW297191   6.818   8.260   1.859
98432SOL     OW97192  13.331   4.657   0.046
98432SOL    HW197193  13.253   4.609   0.020
98432SOL    HW297194  13.299   4.742   0.077
98433SOL     OW97195   0.609  10.195   8.090
98433SOL    HW197196   0.664  10.143   8.149
98433SOL    HW297197   0.670  10.230   8.025
98434SOL     OW97198   7.811   0.881   7.755
98434SOL    HW197199   7.881   0.909   7.696
98434SOL    HW297200   7.734   0.874   7.700
98435SOL     OW97201   4.828   5.614   3.630
98435SOL    HW197202   4.912   5.617   3.677
98435SOL    HW297203   4.812   5.705   3.605
98436SOL     OW97204   5.817   0.118  12.563
98436SOL    HW197205   5.831   0.102  12.656
98436SOL    HW297206   5.905   0.123  12.526
98437SOL     OW97207   3.824   9.151   3.261
98437SOL    HW197208   3.767   9.077   3.280
98437SOL    HW297209   3.834   9.196   3.345
98438SOL     OW97210   9.959  12.831   7.403
98438SOL    HW197211   9.887  12.882   7.366
98438SOL    HW297212   9.928  12.807   7.491
98439SOL     OW97213   7.095   8.080   1.945
98439SOL    HW197214   7.060   8.026   1.875
98439SOL    HW297215   7.026   8.143   1.965
98440SOL     OW97216   7.628   8.227   8.581
98440SOL    HW197217   7.552   8.281   8.603
98440SOL    HW297218   7.598   8.172   8.509
98441SOL     OW97219   4.268  12.713  10.029
98441SOL    HW197220   4.231  12.626  10.038
98441SOL    HW297221   4.248  12.738   9.938
98442SOL     OW97222  14.556   9.214   4.185
98442SOL    HW197223  14.518   9.291   4.143
98442SOL    HW297224  14.645   9.241   4.208
98443SOL     OW97225   5.777   5.043  13.926
98443SOL    HW197226   5.719   5.116  13.946
98443SOL    HW297227   5.719   4.966  13.923
98444SOL     OW97228  13.123   6.039   0.587
98444SOL    HW197229  13.044   6.075   0.547
98444SOL    HW297230  13.137   6.092   0.665
98445SOL     OW97231  10.408   8.882   7.762
98445SOL    HW197232  10.419   8.791   7.790
98445SOL    HW297233  10.324   8.882   7.715
98446SOL     OW97234   9.602  13.472   5.499
98446SOL    HW197235   9.662  13.406   5.535
98446SOL    HW297236   9.525  13.468   5.556
98447SOL     OW97237  14.511   3.233   9.801
98447SOL    HW197238  14.586   3.279   9.839
98447SOL    HW297239  14.549   3.152   9.766
98448SOL     OW97240   2.498  13.494  14.251
98448SOL    HW197241   2.579  13.504  14.201
98448SOL    HW297242   2.470  13.583  14.269
98449SOL     OW97243  12.783  10.350   1.844
98449SOL    HW197244  12.879  10.343   1.852
98449SOL    HW297245  12.765  10.324   1.754
98450SOL     OW97246   0.803   0.801   6.482
98450SOL    HW197247   0.780   0.785   6.390
98450SOL    HW297248   0.731   0.761   6.532
98451SOL     OW97249   9.829   9.910   6.924
98451SOL    HW197250   9.772   9.941   6.853
98451SOL    HW297251   9.796   9.823   6.944
98452SOL     OW97252   1.402   9.240   2.040
98452SOL    HW197253   1.383   9.254   1.947
98452SOL    HW297254   1.480   9.184   2.040
98453SOL     OW97255  12.929   9.961  10.916
98453SOL    HW197256  12.876   9.893  10.874
98453SOL    HW297257  12.912   9.950  11.009
98454SOL     OW97258  11.739   3.240  10.618
98454SOL    HW197259  11.774   3.196  10.541
98454SOL    HW297260  11.701   3.321  10.584
98455SOL     OW97261   4.482   7.549   8.322
98455SOL    HW197262   4.530   7.540   8.404
98455SOL    HW297263   4.549   7.543   8.254
98456SOL     OW97264   4.622   1.731  12.336
98456SOL    HW197265   4.585   1.810  12.374
98456SOL    HW297266   4.613   1.743  12.242
98457SOL     OW97267   9.787   9.100  13.330
98457SOL    HW197268   9.799   9.009  13.304
98457SOL    HW297269   9.713   9.098  13.391
98458SOL     OW97270   7.638  10.797   5.589
98458SOL    HW197271   7.702  10.839   5.531
98458SOL    HW297272   7.567  10.862   5.596
98459SOL     OW97273  14.840  12.318  14.727
98459SOL    HW197274  14.832  12.280  14.814
98459SOL    HW297275   0.014  12.403  14.741
98460SOL     OW97276   8.669   8.096   7.581
98460SOL    HW197277   8.600   8.123   7.521
98460SOL    HW297278   8.624   8.046   7.649
98461SOL     OW97279   2.909  10.447   8.324
98461SOL    HW197280   2.868  10.459   8.238
98461SOL    HW297281   2.913  10.353   8.335
98462SOL     OW97282   3.850   8.299   6.745
98462SOL    HW197283   3.927   8.340   6.784
98462SOL    HW297284   3.783   8.369   6.746
98463SOL     OW97285   1.943  10.072   2.955
98463SOL    HW197286   1.903  10.147   2.912
98463SOL    HW297287   2.001  10.035   2.889
98464SOL     OW97288   6.879   3.059   5.551
98464SOL    HW197289   6.959   3.077   5.502
98464SOL    HW297290   6.852   3.144   5.586
98465SOL     OW97291   8.632   9.576  12.357
98465SOL    HW197292   8.645   9.572  12.452
98465SOL    HW297293   8.652   9.487  12.326
98466SOL     OW97294  10.642  12.627   2.772
98466SOL    HW197295  10.600  12.713   2.769
98466SOL    HW297296  10.599  12.582   2.845
98467SOL     OW97297  12.323   0.293  12.463
98467SOL    HW197298  12.375   0.301  12.383
98467SOL    HW297299  12.372   0.231  12.517
98468SOL     OW97300   4.271   4.731   7.253
98468SOL    HW197301   4.346   4.785   7.227
98468SOL    HW297302   4.255   4.674   7.178
98469SOL     OW97303   8.027   3.995   7.738
98469SOL    HW197304   8.114   4.019   7.770
98469SOL    HW297305   8.035   4.001   7.643
98470SOL     OW97306   8.045   5.109   1.997
98470SOL    HW197307   8.076   5.148   1.915
98470SOL    HW297308   8.012   5.183   2.047
98471SOL     OW97309   9.479   1.061   5.737
98471SOL    HW197310   9.390   1.046   5.770
98471SOL    HW297311   9.521   1.113   5.805
98472SOL     OW97312   0.393   4.326  10.241
98472SOL    HW197313   0.417   4.404  10.290
98472SOL    HW297314   0.424   4.343  10.152
98473SOL     OW97315  13.177  10.992   2.689
98473SOL    HW197316  13.185  10.979   2.784
98473SOL    HW297317  13.254  11.043   2.665
98474SOL     OW97318  12.906   4.632  11.103
98474SOL    HW197319  12.835   4.574  11.131
98474SOL    HW297320  12.980   4.574  11.087
98475SOL     OW97321   7.876   8.665  11.565
98475SOL    HW197322   7.821   8.587  11.572
98475SOL    HW297323   7.842   8.710  11.488
98476SOL     OW97324   6.160  14.384  12.860
98476SOL    HW197325   6.194  14.302  12.824
98476SOL    HW297326   6.082  14.403  12.807
98477SOL     OW97327   6.752   4.205  12.711
98477SOL    HW197328   6.682   4.140  12.704
98477SOL    HW297329   6.833   4.153  12.713
98478SOL     OW97330   6.072  14.591  11.339
98478SOL    HW197331   6.060  14.499  11.364
98478SOL    HW297332   6.166  14.606  11.345
98479SOL     OW97333   8.283  12.716   1.580
98479SOL    HW197334   8.276  12.706   1.675
98479SOL    HW297335   8.339  12.793   1.569
98480SOL     OW97336   5.213   7.406   0.314
98480SOL    HW197337   5.171   7.375   0.394
98480SOL    HW297338   5.247   7.327   0.273
98481SOL     OW97339   9.748   9.076   7.551
98481SOL    HW197340   9.689   9.015   7.595
98481SOL    HW297341   9.828   9.075   7.604
98482SOL     OW97342   2.545   0.918  13.800
98482SOL    HW197343   2.535   0.848  13.737
98482SOL    HW297344   2.516   0.997  13.754
98483SOL     OW97345   0.007   4.242   9.860
98483SOL    HW197346  14.823   4.267   9.937
98483SOL    HW297347   0.095   4.274   9.879
98484SOL     OW97348   5.680   6.716   8.557
98484SOL    HW197349   5.757   6.768   8.579
98484SOL    HW297350   5.716   6.637   8.517
98485SOL     OW97351  13.408   9.026   9.430
98485SOL    HW197352  13.437   9.093   9.368
98485SOL    HW297353  13.390   8.949   9.375
98486SOL     OW97354   2.498  12.552   8.290
98486SOL    HW197355   2.434  12.503   8.237
98486SOL    HW297356   2.472  12.534   8.380
98487SOL     OW97357   6.300   6.571   0.961
98487SOL    HW197358   6.245   6.636   1.005
98487SOL    HW297359   6.387   6.612   0.958
98488SOL     OW97360   5.414   0.930   4.379
98488SOL    HW197361   5.392   0.864   4.312
98488SOL    HW297362   5.336   0.935   4.434
98489SOL     OW97363   0.052  13.618   1.165
98489SOL    HW197364   0.082  13.545   1.110
98489SOL    HW297365  14.846  13.655   1.116
98490SOL     OW97366   7.898  13.252  11.797
98490SOL    HW197367   7.824  13.307  11.772
98490SOL    HW297368   7.974  13.292  11.756
98491SOL     OW97369   0.612  10.882   7.795
98491SOL    HW197370   0.534  10.827   7.802
98491SOL    HW297371   0.582  10.970   7.820
98492SOL     OW97372   0.921   3.299   1.833
98492SOL    HW197373   0.953   3.337   1.914
98492SOL    HW297374   0.938   3.205   1.843
98493SOL     OW97375   3.286  10.729   0.008
98493SOL    HW197376   3.373  10.703   0.040
98493SOL    HW297377   3.286  10.703  14.784
98494SOL     OW97378   9.216   5.850   1.360
98494SOL    HW197379   9.298   5.854   1.311
98494SOL    HW297380   9.225   5.774   1.417
98495SOL     OW97381   3.434  12.918   5.864
98495SOL    HW197382   3.496  12.985   5.894
98495SOL    HW297383   3.419  12.863   5.941
98496SOL     OW97384   0.704   7.633   8.758
98496SOL    HW197385   0.668   7.599   8.676
98496SOL    HW297386   0.782   7.683   8.731
98497SOL     OW97387   2.933  13.032  12.962
98497SOL    HW197388   2.901  13.120  12.944
98497SOL    HW297389   2.869  12.995  13.023
98498SOL     OW97390   3.031   6.597   2.557
98498SOL    HW197391   2.950   6.635   2.523
98498SOL    HW297392   3.096   6.667   2.549
98499SOL     OW97393   7.257  12.060  11.181
98499SOL    HW197394   7.168  12.080  11.153
98499SOL    HW297395   7.276  11.975  11.141
98500SOL     OW97396   5.886  13.979   4.487
98500SOL    HW197397   5.865  13.886   4.489
98500SOL    HW297398   5.895  13.999   4.394
98501SOL     OW97399  13.837   1.886   2.631
98501SOL    HW197400  13.912   1.850   2.583
98501SOL    HW297401  13.860   1.874   2.723
98502SOL     OW97402   7.236   1.917  13.555
98502SOL    HW197403   7.310   1.967  13.520
98502SOL    HW297404   7.257   1.906  13.648
98503SOL     OW97405   8.808  14.571   4.298
98503SOL    HW197406   8.779  14.635   4.363
98503SOL    HW297407   8.838  14.624   4.224
98504SOL     OW97408   6.844   7.447   6.967
98504SOL    HW197409   6.899   7.441   7.045
98504SOL    HW297410   6.896   7.500   6.906
98505SOL     OW97411   3.014   1.816  14.015
98505SOL    HW197412   2.991   1.781  14.100
98505SOL    HW297413   2.949   1.884  13.998
98506SOL     OW97414   2.131   7.816   8.219
98506SOL    HW197415   2.166   7.735   8.183
98506SOL    HW297416   2.039   7.798   8.235
98507SOL     OW97417   7.735   0.886   1.048
98507SOL    HW197418   7.754   0.979   1.040
98507SOL    HW297419   7.670   0.869   0.980
98508SOL     OW97420  14.091   0.895   7.000
98508SOL    HW197421  14.009   0.913   7.046
98508SOL    HW297422  14.116   0.979   6.962
98509SOL     OW97423   3.394  14.703  10.195
98509SOL    HW197424   3.307  14.699  10.154
98509SOL    HW297425   3.435  14.619  10.172
98510SOL     OW97426  14.681  14.282   3.568
98510SOL    HW197427  14.691  14.197   3.526
98510SOL    HW297428  14.761  14.329   3.545
98511SOL     OW97429   3.937  13.803   8.060
98511SOL    HW197430   3.850  13.841   8.071
98511SOL    HW297431   3.920  13.712   8.034
98512SOL     OW97432   3.577   9.738  14.523
98512SOL    HW197433   3.494   9.692  14.539
98512SOL    HW297434   3.645   9.677  14.551
98513SOL     OW97435   9.690   0.414   1.992
98513SOL    HW197436   9.718   0.489   1.940
98513SOL    HW297437   9.753   0.412   2.065
98514SOL     OW97438   0.572   1.536  10.907
98514SOL    HW197439   0.633   1.608  10.893
98514SOL    HW297440   0.530   1.522  10.822
98515SOL     OW97441  12.959   1.208   1.876
98515SOL    HW197442  12.884   1.263   1.852
98515SOL    HW297443  12.930   1.119   1.859
98516SOL     OW97444   7.833   3.830   4.467
98516SOL    HW197445   7.902   3.847   4.532
98516SOL    HW297446   7.756   3.875   4.502
98517SOL     OW97447   3.747   9.712  13.025
98517SOL    HW197448   3.762   9.805  13.045
98517SOL    HW297449   3.799   9.695  12.947
98518SOL     OW97450   2.447   6.330   6.757
98518SOL    HW197451   2.443   6.398   6.825
98518SOL    HW297452   2.416   6.374   6.678
98519SOL     OW97453   9.142   4.384   2.023
98519SOL    HW197454   9.058   4.418   2.055
98519SOL    HW297455   9.205   4.412   2.089
98520SOL     OW97456  10.587   3.498  11.106
98520SOL    HW197457  10.584   3.569  11.042
98520SOL    HW297458  10.503   3.453  11.096
98521SOL     OW97459   3.477   9.822  10.938
98521SOL    HW197460   3.483   9.823  10.842
98521SOL    HW297461   3.384   9.830  10.957
98522SOL     OW97462  10.763   5.975   4.239
98522SOL    HW197463  10.828   6.004   4.303
98522SOL    HW297464  10.683   6.020   4.265
98523SOL     OW97465  12.745  13.440   7.324
98523SOL    HW197466  12.726  13.461   7.232
98523SOL    HW297467  12.707  13.512   7.374
98524SOL     OW97468   5.073   4.165   6.358
98524SOL    HW197469   5.071   4.261   6.353
98524SOL    HW297470   4.988   4.141   6.394
98525SOL     OW97471   2.607   3.680   8.556
98525SOL    HW197472   2.634   3.647   8.641
98525SOL    HW297473   2.680   3.659   8.498
98526SOL     OW97474   1.389  14.734   6.064
98526SOL    HW197475   1.410  14.679   5.988
98526SOL    HW297476   1.333  14.803   6.029
98527SOL     OW97477   1.220   0.493   0.432
98527SOL    HW197478   1.277   0.418   0.452
98527SOL    HW297479   1.179   0.515   0.515
98528SOL     OW97480   1.966  10.478  13.302
98528SOL    HW197481   1.982  10.481  13.208
98528SOL    HW297482   2.046  10.439  13.338
98529SOL     OW97483  11.094   7.405  13.089
98529SOL    HW197484  11.110   7.313  13.109
98529SOL    HW297485  11.037   7.402  13.012
98530SOL     OW97486  11.259  13.238  10.327
98530SOL    HW197487  11.225  13.161  10.280
98530SOL    HW297488  11.327  13.273  10.270
98531SOL     OW97489  11.399   9.520   3.473
98531SOL    HW197490  11.438   9.607   3.476
98531SOL    HW297491  11.348   9.519   3.392
98532SOL     OW97492  10.381  11.135  12.418
98532SOL    HW197493  10.399  11.062  12.359
98532SOL    HW297494  10.420  11.211  12.374
98533SOL     OW97495   9.225  13.570   1.028
98533SOL    HW197496   9.314  13.593   1.001
98533SOL    HW297497   9.210  13.484   0.990
98534SOL     OW97498   8.815  14.470   6.432
98534SOL    HW197499   8.838  14.525   6.508
98534SOL    HW297500   8.725  14.496   6.412
98535SOL     OW97501   2.112  12.647   1.714
98535SOL    HW197502   2.186  12.695   1.751
98535SOL    HW297503   2.151  12.582   1.656
98536SOL     OW97504   3.409  11.774   9.477
98536SOL    HW197505   3.416  11.681   9.455
98536SOL    HW297506   3.344  11.809   9.416
98537SOL     OW97507   6.222   0.817  11.343
98537SOL    HW197508   6.141   0.812  11.293
98537SOL    HW297509   6.222   0.738  11.397
98538SOL     OW97510  12.586   4.351   3.736
98538SOL    HW197511  12.645   4.281   3.708
98538SOL    HW297512  12.634   4.396   3.806
98539SOL     OW97513   0.226  10.799   1.540
98539SOL    HW197514   0.283  10.843   1.604
98539SOL    HW297515   0.239  10.706   1.558
98540SOL     OW97516  13.971   8.276   7.391
98540SOL    HW197517  14.014   8.342   7.335
98540SOL    HW297518  13.945   8.324   7.469
98541SOL     OW97519   8.947   5.489   7.429
98541SOL    HW197520   8.985   5.402   7.416
98541SOL    HW297521   8.992   5.545   7.367
98542SOL     OW97522   3.652   3.455   4.269
98542SOL    HW197523   3.680   3.366   4.289
98542SOL    HW297524   3.706   3.481   4.194
98543SOL     OW97525  11.662   0.099   0.908
98543SOL    HW197526  11.736   0.118   0.851
98543SOL    HW297527  11.596   0.062   0.850
98544SOL     OW97528   8.469   6.917  13.700
98544SOL    HW197529   8.499   6.978  13.768
98544SOL    HW297530   8.517   6.836  13.718
98545SOL     OW97531  13.934  14.258  13.576
98545SOL    HW197532  13.851  14.216  13.602
98545SOL    HW297533  13.986  14.186  13.539
98546SOL     OW97534   6.804   4.776   6.356
98546SOL    HW197535   6.897   4.770   6.377
98546SOL    HW297536   6.770   4.688   6.372
98547SOL     OW97537   9.208  13.690  11.275
98547SOL    HW197538   9.245  13.775  11.298
98547SOL    HW297539   9.282  13.638  11.245
98548SOL     OW97540   5.865   6.129  14.267
98548SOL    HW197541   5.864   6.208  14.322
98548SOL    HW297542   5.852   6.057  14.329
98549SOL     OW97543   9.705   0.195   3.668
98549SOL    HW197544   9.616   0.229   3.667
98549SOL    HW297545   9.750   0.243   3.599
98550SOL     OW97546   5.928   3.145   5.200
98550SOL    HW197547   5.991   3.152   5.272
98550SOL    HW297548   5.849   3.187   5.234
98551SOL     OW97549   6.758  12.225   8.304
98551SOL    HW197550   6.847  12.211   8.272
98551SOL    HW297551   6.735  12.144   8.348
98552SOL     OW97552  10.841   8.128   6.636
98552SOL    HW197553  10.911   8.124   6.570
98552SOL    HW297554  10.831   8.222   6.655
98553SOL     OW97555   9.456  11.051   5.994
98553SOL    HW197556   9.551  11.051   6.005
98553SOL    HW297557   9.436  11.137   5.957
98554SOL     OW97558  11.076   8.947   3.472
98554SOL    HW197559  11.160   8.927   3.430
98554SOL    HW297560  11.077   8.897   3.554
98555SOL     OW97561   5.733   7.152   1.703
98555SOL    HW197562   5.797   7.146   1.632
98555SOL    HW297563   5.731   7.245   1.726
98556SOL     OW97564   2.303   7.293   5.442
98556SOL    HW197565   2.256   7.375   5.425
98556SOL    HW297566   2.289   7.241   5.363
98557SOL     OW97567  12.724   6.703   6.549
98557SOL    HW197568  12.728   6.639   6.478
98557SOL    HW297569  12.676   6.777   6.513
98558SOL     OW97570   4.028   2.742   9.613
98558SOL    HW197571   4.065   2.811   9.558
98558SOL    HW297572   4.096   2.675   9.616
98559SOL     OW97573   8.099   1.700  14.378
98559SOL    HW197574   8.066   1.613  14.400
98559SOL    HW297575   8.178   1.684  14.326
98560SOL     OW97576  13.168   8.171   8.662
98560SOL    HW197577  13.236   8.230   8.696
98560SOL    HW297578  13.112   8.227   8.608
98561SOL     OW97579  12.997   9.435   7.572
98561SOL    HW197580  13.031   9.515   7.532
98561SOL    HW297581  12.969   9.461   7.660
98562SOL     OW97582   3.924  11.014  14.291
98562SOL    HW197583   3.856  10.991  14.228
98562SOL    HW297584   3.955  10.929  14.324
98563SOL     OW97585   3.247   9.643   3.410
98563SOL    HW197586   3.323   9.682   3.455
98563SOL    HW297587   3.286   9.585   3.344
98564SOL     OW97588   0.680   5.930   6.220
98564SOL    HW197589   0.740   5.934   6.295
98564SOL    HW297590   0.716   5.993   6.158
98565SOL     OW97591  13.732   0.943   4.491
98565SOL    HW197592  13.645   0.940   4.450
98565SOL    HW297593  13.718   0.904   4.577
98566SOL     OW97594  12.509   0.435   4.664
98566SOL    HW197595  12.603   0.431   4.681
98566SOL    HW297596  12.486   0.526   4.680
98567SOL     OW97597  11.079  12.381   6.109
98567SOL    HW197598  11.032  12.462   6.089
98567SOL    HW297599  11.028  12.313   6.065
98568SOL     OW97600   4.467   3.528  13.893
98568SOL    HW197601   4.550   3.481  13.892
98568SOL    HW297602   4.491   3.619  13.912
98569SOL     OW97603  10.242   3.730   0.757
98569SOL    HW197604  10.152   3.727   0.726
98569SOL    HW297605  10.268   3.638   0.764
98570SOL     OW97606  14.104  12.792   3.002
98570SOL    HW197607  14.011  12.798   3.024
98570SOL    HW297608  14.143  12.747   3.077
98571SOL     OW97609  12.768   0.625   4.621
98571SOL    HW197610  12.791   0.532   4.624
98571SOL    HW297611  12.763   0.645   4.528
98572SOL     OW97612   1.023   3.708   8.121
98572SOL    HW197613   1.114   3.716   8.092
98572SOL    HW297614   0.997   3.619   8.094
98573SOL     OW97615  13.702  11.915   1.639
98573SOL    HW197616  13.611  11.886   1.646
98573SOL    HW297617  13.699  12.009   1.658
98574SOL     OW97618  13.200  11.929   7.389
98574SOL    HW197619  13.214  11.959   7.479
98574SOL    HW297620  13.177  11.836   7.399
98575SOL     OW97621   9.712   2.804   3.023
98575SOL    HW197622   9.694   2.718   2.984
98575SOL    HW297623   9.741   2.785   3.112
98576SOL     OW97624   7.604   5.320  13.168
98576SOL    HW197625   7.628   5.380  13.238
98576SOL    HW297626   7.513   5.342  13.148
98577SOL     OW97627   0.822   4.326   8.104
98577SOL    HW197628   0.801   4.411   8.065
98577SOL    HW297629   0.811   4.339   8.198
98578SOL     OW97630   9.224   6.800  11.176
98578SOL    HW197631   9.290   6.828  11.113
98578SOL    HW297632   9.259   6.719  11.213
98579SOL     OW97633  12.921   9.767   0.030
98579SOL    HW197634  12.828   9.772   0.007
98579SOL    HW297635  12.923   9.776   0.125
98580SOL     OW97636   8.993   2.436   9.181
98580SOL    HW197637   9.080   2.468   9.205
98580SOL    HW297638   8.933   2.484   9.238
98581SOL     OW97639  14.482  12.808  12.740
98581SOL    HW197640  14.547  12.825  12.809
98581SOL    HW297641  14.489  12.883  12.681
98582SOL     OW97642   5.984   7.702   2.096
98582SOL    HW197643   5.907   7.754   2.072
98582SOL    HW297644   5.957   7.612   2.077
98583SOL     OW97645  11.305   0.441  14.767
98583SOL    HW197646  11.243   0.481  14.827
98583SOL    HW297647  11.279   0.348  14.764
98584SOL     OW97648  11.529  10.075   1.052
98584SOL    HW197649  11.528  10.054   0.958
98584SOL    HW297650  11.440  10.105   1.071
98585SOL     OW97651   4.950   7.949   0.441
98585SOL    HW197652   5.030   7.976   0.484
98585SOL    HW297653   4.942   7.855   0.462
98586SOL     OW97654   0.798   6.652   3.726
98586SOL    HW197655   0.838   6.661   3.640
98586SOL    HW297656   0.708   6.626   3.708
98587SOL     OW97657   9.100   7.493   4.743
98587SOL    HW197658   9.078   7.433   4.671
98587SOL    HW297659   9.059   7.575   4.719
98588SOL     OW97660   3.036   3.495  14.843
98588SOL    HW197661   3.059   3.510   0.066
98588SOL    HW297662   2.955   3.545  14.830
98589SOL     OW97663   8.813   2.817   4.131
98589SOL    HW197664   8.766   2.873   4.193
98589SOL    HW297665   8.894   2.794   4.175
98590SOL     OW97666   2.529   1.291   6.248
98590SOL    HW197667   2.477   1.309   6.326
98590SOL    HW297668   2.466   1.296   6.176
98591SOL     OW97669   7.990   1.611  13.007
98591SOL    HW197670   7.928   1.583  12.939
98591SOL    HW297671   7.936   1.619  13.086
98592SOL     OW97672  13.005  13.470  13.785
98592SOL    HW197673  13.021  13.460  13.692
98592SOL    HW297674  12.937  13.406  13.805
98593SOL     OW97675  13.337   0.546  11.642
98593SOL    HW197676  13.364   0.580  11.557
98593SOL    HW297677  13.253   0.588  11.660
98594SOL     OW97678   3.807  11.963  10.296
98594SOL    HW197679   3.828  11.876  10.330
98594SOL    HW297680   3.892  12.007  10.288
98595SOL     OW97681   9.648   7.836   4.540
98595SOL    HW197682   9.703   7.782   4.596
98595SOL    HW297683   9.636   7.917   4.589
98596SOL     OW97684   9.441   0.294  13.758
98596SOL    HW197685   9.426   0.381  13.722
98596SOL    HW297686   9.367   0.242  13.727
98597SOL     OW97687   1.112   6.325   8.759
98597SOL    HW197688   1.146   6.295   8.842
98597SOL    HW297689   1.017   6.313   8.766
98598SOL     OW97690  12.111  10.799   2.686
98598SOL    HW197691  12.161  10.870   2.644
98598SOL    HW297692  12.032  10.843   2.720
98599SOL     OW97693  11.579  14.154   7.727
98599SOL    HW197694  11.667  14.129   7.699
98599SOL    HW297695  11.546  14.207   7.654
98600SOL     OW97696   0.229   7.953  11.126
98600SOL    HW197697   0.274   7.995  11.199
98600SOL    HW297698   0.146   7.922  11.164
98601SOL     OW97699   0.221   1.145  13.541
98601SOL    HW197700   0.160   1.074  13.561
98601SOL    HW297701   0.219   1.201  13.619
98602SOL     OW97702   1.983   8.193   2.747
98602SOL    HW197703   1.984   8.289   2.753
98602SOL    HW297704   1.923   8.175   2.674
98603SOL     OW97705  13.263  13.013   8.111
98603SOL    HW197706  13.282  13.012   8.205
98603SOL    HW297707  13.348  13.007   8.069
98604SOL     OW97708  10.217   5.507   6.016
98604SOL    HW197709  10.312   5.497   6.015
98604SOL    HW297710  10.201   5.580   6.076
98605SOL     OW97711   4.465   7.083   0.947
98605SOL    HW197712   4.455   7.098   0.853
98605SOL    HW297713   4.449   6.989   0.958
98606SOL     OW97714  10.721   5.727   2.486
98606SOL    HW197715  10.803   5.775   2.491
98606SOL    HW297716  10.689   5.744   2.397
98607SOL     OW97717  14.186   4.043   0.537
98607SOL    HW197718  14.191   4.035   0.442
98607SOL    HW297719  14.106   4.094   0.553
98608SOL     OW97720   5.895   8.664   0.585
98608SOL    HW197721   5.824   8.603   0.566
98608SOL    HW297722   5.851   8.743   0.616
98609SOL     OW97723   1.378  10.457   5.849
98609SOL    HW197724   1.437  10.428   5.780
98609SOL    HW297725   1.369  10.551   5.835
98610SOL     OW97726  14.429   5.275  14.273
98610SOL    HW197727  14.364   5.283  14.342
98610SOL    HW297728  14.435   5.181  14.257
98611SOL     OW97729   5.427  12.091   1.632
98611SOL    HW197730   5.386  12.178   1.630
98611SOL    HW297731   5.357  12.031   1.606
98612SOL     OW97732   2.911   3.637   2.056
98612SOL    HW197733   2.860   3.648   1.976
98612SOL    HW297734   2.901   3.544   2.078
98613SOL     OW97735   7.883   0.579   7.756
98613SOL    HW197736   7.894   0.582   7.851
98613SOL    HW297737   7.945   0.643   7.722
98614SOL     OW97738   9.889   7.733  14.740
98614SOL    HW197739   9.798   7.752  14.716
98614SOL    HW297740   9.884   7.699  14.829
98615SOL     OW97741   2.755  14.612   5.645
98615SOL    HW197742   2.809  14.581   5.573
98615SOL    HW297743   2.769  14.707   5.646
98616SOL     OW97744   8.186  11.762   7.626
98616SOL    HW197745   8.170  11.710   7.705
98616SOL    HW297746   8.263  11.723   7.586
98617SOL     OW97747   1.773   6.101   2.677
98617SOL    HW197748   1.716   6.072   2.606
98617SOL    HW297749   1.851   6.047   2.669
98618SOL     OW97750   4.283   4.835  14.076
98618SOL    HW197751   4.354   4.899  14.070
98618SOL    HW297752   4.259   4.834  14.168
98619SOL     OW97753  13.020  13.986  10.753
98619SOL    HW197754  13.054  14.014  10.838
98619SOL    HW297755  13.036  14.062  10.696
98620SOL     OW97756   1.109   1.411  14.317
98620SOL    HW197757   1.066   1.438  14.236
98620SOL    HW297758   1.198   1.446  14.309
98621SOL     OW97759   1.921  13.124   8.607
98621SOL    HW197760   1.919  13.141   8.513
98621SOL    HW297761   1.838  13.159   8.640
98622SOL     OW97762   3.776  12.835   8.087
98622SOL    HW197763   3.856  12.800   8.127
98622SOL    HW297764   3.788  12.930   8.089
98623SOL     OW97765   8.711  14.620   5.058
98623SOL    HW197766   8.628  14.668   5.057
98623SOL    HW297767   8.713  14.576   5.143
98624SOL     OW97768  11.728   4.322  12.359
98624SOL    HW197769  11.801   4.378  12.384
98624SOL    HW297770  11.717   4.262  12.432
98625SOL     OW97771  11.248  10.085   8.579
98625SOL    HW197772  11.191  10.013   8.555
98625SOL    HW297773  11.300  10.052   8.652
98626SOL     OW97774   5.024  10.205   1.967
98626SOL    HW197775   5.015  10.255   2.049
98626SOL    HW297776   4.935  10.179   1.944
98627SOL     OW97777   9.811   6.244   9.326
98627SOL    HW197778   9.832   6.304   9.254
98627SOL    HW297779   9.715   6.245   9.332
98628SOL     OW97780   2.710   5.859   3.426
98628SOL    HW197781   2.798   5.891   3.446
98628SOL    HW297782   2.717   5.823   3.338
98629SOL     OW97783   3.234  14.090  11.468
98629SOL    HW197784   3.174  14.040  11.413
98629SOL    HW297785   3.287  14.141  11.406
98630SOL     OW97786   8.256  10.025   0.388
98630SOL    HW197787   8.331  10.080   0.364
98630SOL    HW297788   8.221   9.994   0.305
98631SOL     OW97789   7.322   6.179   7.956
98631SOL    HW197790   7.394   6.177   7.893
98631SOL    HW297791   7.247   6.213   7.907
98632SOL     OW97792   2.027  12.042   4.389
98632SOL    HW197793   2.043  12.010   4.300
98632SOL    HW297794   2.076  12.124   4.395
98633SOL     OW97795   8.170   2.969   7.109
98633SOL    HW197796   8.152   3.005   7.022
98633SOL    HW297797   8.222   2.890   7.093
98634SOL     OW97798   2.466   9.993   1.423
98634SOL    HW197799   2.395  10.055   1.412
98634SOL    HW297800   2.460   9.966   1.515
98635SOL     OW97801   1.666   6.669   8.084
98635SOL    HW197802   1.698   6.694   7.997
98635SOL    HW297803   1.670   6.751   8.135
98636SOL     OW97804   8.484   8.443   5.270
98636SOL    HW197805   8.444   8.477   5.190
98636SOL    HW297806   8.447   8.498   5.340
98637SOL     OW97807   8.618  10.702  10.280
98637SOL    HW197808   8.689  10.697  10.216
98637SOL    HW297809   8.579  10.788  10.264
98638SOL     OW97810  12.908   7.492   5.933
98638SOL    HW197811  12.890   7.445   5.852
98638SOL    HW297812  12.883   7.431   6.003
98639SOL     OW97813   1.808   3.848  14.288
98639SOL    HW197814   1.736   3.854  14.351
98639SOL    HW297815   1.887   3.848  14.342
98640SOL     OW97816  12.724   4.431   4.180
98640SOL    HW197817  12.772   4.422   4.263
98640SOL    HW297818  12.632   4.434   4.206
98641SOL     OW97819  12.782  13.316   9.871
98641SOL    HW197820  12.697  13.280   9.845
98641SOL    HW297821  12.782  13.406   9.837
98642SOL     OW97822   5.161  12.560  10.976
98642SOL    HW197823   5.077  12.523  10.949
98642SOL    HW297824   5.140  12.617  11.050
98643SOL     OW97825   3.618   9.107   7.778
98643SOL    HW197826   3.678   9.059   7.834
98643SOL    HW297827   3.533   9.067   7.793
98644SOL     OW97828   7.490   5.360   1.283
98644SOL    HW197829   7.536   5.286   1.322
98644SOL    HW297830   7.532   5.438   1.321
98645SOL     OW97831   1.195  13.645   9.755
98645SOL    HW197832   1.101  13.647   9.741
98645SOL    HW297833   1.220  13.554   9.740
98646SOL     OW97834   7.741   1.358   2.318
98646SOL    HW197835   7.669   1.340   2.378
98646SOL    HW297836   7.742   1.453   2.309
98647SOL     OW97837   7.131  11.255   9.631
98647SOL    HW197838   7.036  11.258   9.622
98647SOL    HW297839   7.163  11.318   9.567
98648SOL     OW97840  10.707  11.401   0.921
98648SOL    HW197841  10.638  11.366   0.864
98648SOL    HW297842  10.747  11.471   0.870
98649SOL     OW97843  14.704  14.819  14.351
98649SOL    HW197844  14.708  14.779  14.438
98649SOL    HW297845  14.722  14.748  14.290
98650SOL     OW97846  11.451   7.260   3.032
98650SOL    HW197847  11.405   7.245   2.950
98650SOL    HW297848  11.515   7.328   3.011
98651SOL     OW97849   1.382   1.069   1.657
98651SOL    HW197850   1.379   1.116   1.573
98651SOL    HW297851   1.292   1.041   1.672
98652SOL     OW97852   5.673   2.749   2.944
98652SOL    HW197853   5.722   2.827   2.970
98652SOL    HW297854   5.738   2.693   2.903
98653SOL     OW97855   8.281  14.533  14.704
98653SOL    HW197856   8.205  14.590  14.713
98653SOL    HW297857   8.356  14.589  14.727
98654SOL     OW97858  14.679   5.122   8.143
98654SOL    HW197859  14.743   5.156   8.081
98654SOL    HW297860  14.680   5.027   8.128
98655SOL     OW97861   9.509   1.536   9.594
98655SOL    HW197862   9.560   1.566   9.519
98655SOL    HW297863   9.535   1.445   9.606
98656SOL     OW97864   4.856  11.275  13.708
98656SOL    HW197865   4.938  11.321  13.692
98656SOL    HW297866   4.862  11.247  13.800
98657SOL     OW97867   7.026  11.655   2.876
98657SOL    HW197868   7.043  11.748   2.895
98657SOL    HW297869   6.951  11.656   2.817
98658SOL     OW97870  13.139  10.430   6.852
98658SOL    HW197871  13.232  10.444   6.833
98658SOL    HW297872  13.097  10.434   6.766
98659SOL     OW97873  14.686   9.205   2.814
98659SOL    HW197874  14.722   9.284   2.775
98659SOL    HW297875  14.654   9.154   2.739
98660SOL     OW97876  14.791  12.721  11.477
98660SOL    HW197877  14.860  12.675  11.525
98660SOL    HW297878  14.796  12.811  11.509
98661SOL     OW97879  12.651  13.106   3.050
98661SOL    HW197880  12.570  13.084   3.095
98661SOL    HW297881  12.643  13.065   2.964
98662SOL     OW97882   1.507  10.936   6.803
98662SOL    HW197883   1.600  10.940   6.826
98662SOL    HW297884   1.501  10.863   6.741
98663SOL     OW97885   0.651   6.817   2.717
98663SOL    HW197886   0.699   6.783   2.641
98663SOL    HW297887   0.599   6.743   2.748
98664SOL     OW97888   3.978   1.092  11.500
98664SOL    HW197889   3.995   1.181  11.470
98664SOL    HW297890   3.938   1.103  11.587
98665SOL     OW97891   4.073  10.545  13.577
98665SOL    HW197892   4.156  10.559  13.533
98665SOL    HW297893   4.014  10.513  13.508
98666SOL     OW97894   9.733  14.383   0.981
98666SOL    HW197895   9.688  14.445   0.924
98666SOL    HW297896   9.695  14.298   0.959
98667SOL     OW97897   8.764  14.361   5.821
98667SOL    HW197898   8.708  14.327   5.891
98667SOL    HW297899   8.827  14.417   5.867
98668SOL     OW97900  14.198   1.241   9.489
98668SOL    HW197901  14.177   1.148   9.485
98668SOL    HW297902  14.217   1.266   9.398
98669SOL     OW97903  13.920   5.526   6.398
98669SOL    HW197904  13.918   5.459   6.330
98669SOL    HW297905  14.001   5.508   6.446
98670SOL     OW97906   7.579  10.102   8.772
98670SOL    HW197907   7.602  10.014   8.741
98670SOL    HW297908   7.514  10.087   8.841
98671SOL     OW97909  11.828   9.346   3.585
98671SOL    HW197910  11.733   9.353   3.573
98671SOL    HW297911  11.844   9.391   3.668
98672SOL     OW97912   0.081   1.512   2.994
98672SOL    HW197913   0.003   1.467   3.028
98672SOL    HW297914   0.151   1.448   3.004
98673SOL     OW97915   2.542   6.474   3.308
98673SOL    HW197916   2.561   6.443   3.397
98673SOL    HW297917   2.446   6.476   3.303
98674SOL     OW97918   4.252   8.900  11.984
98674SOL    HW197919   4.325   8.871  12.039
98674SOL    HW297920   4.259   8.995  11.985
98675SOL     OW97921   4.249   1.909   1.189
98675SOL    HW197922   4.182   1.947   1.246
98675SOL    HW297923   4.329   1.910   1.242
98676SOL     OW97924   2.332   4.052  10.700
98676SOL    HW197925   2.421   4.066  10.734
98676SOL    HW297926   2.342   4.056  10.605
98677SOL     OW97927   0.014  13.564   6.183
98677SOL    HW197928   0.017  13.658   6.201
98677SOL    HW297929  14.816  13.555   6.114
98678SOL     OW97930  10.151  10.116   3.586
98678SOL    HW197931  10.235  10.145   3.623
98678SOL    HW297932  10.158  10.136   3.493
98679SOL     OW97933   2.832   0.055   7.216
98679SOL    HW197934   2.868  14.861   7.152
98679SOL    HW297935   2.818   0.136   7.166
98680SOL     OW97936   8.038   4.814   5.007
98680SOL    HW197937   7.981   4.792   5.081
98680SOL    HW297938   8.098   4.740   5.000
98681SOL     OW97939  14.166   9.556   9.932
98681SOL    HW197940  14.239   9.531   9.989
98681SOL    HW297941  14.094   9.498   9.960
98682SOL     OW97942   9.997   1.558  12.814
98682SOL    HW197943   9.959   1.638  12.779
98682SOL    HW297944   9.923   1.512  12.854
98683SOL     OW97945  14.487   1.899   8.494
98683SOL    HW197946  14.556   1.853   8.542
98683SOL    HW297947  14.446   1.832   8.440
98684SOL     OW97948   5.702  14.144  12.420
98684SOL    HW197949   5.715  14.100  12.336
98684SOL    HW297950   5.627  14.100  12.459
98685SOL     OW97951   2.729   1.752   5.916
98685SOL    HW197952   2.700   1.772   5.827
98685SOL    HW297953   2.716   1.657   5.924
98686SOL     OW97954   5.256   1.010   8.727
98686SOL    HW197955   5.342   0.971   8.709
98686SOL    HW297956   5.276   1.097   8.761
98687SOL     OW97957   4.468   0.358  10.683
98687SOL    HW197958   4.553   0.369  10.726
98687SOL    HW297959   4.437   0.448  10.669
98688SOL     OW97960   9.709   4.834  13.203
98688SOL    HW197961   9.794   4.879  13.199
98688SOL    HW297962   9.655   4.880  13.139
98689SOL     OW97963   5.446   1.520   0.685
98689SOL    HW197964   5.433   1.605   0.644
98689SOL    HW297965   5.536   1.497   0.665
98690SOL     OW97966  10.384  11.530   7.773
98690SOL    HW197967  10.413  11.442   7.797
98690SOL    HW297968  10.465  11.580   7.761
98691SOL     OW97969   5.812  13.989   4.220
98691SOL    HW197970   5.740  13.951   4.169
98691SOL    HW297971   5.867  14.032   4.156
98692SOL     OW97972   0.722  11.217  11.681
98692SOL    HW197973   0.779  11.140  11.678
98692SOL    HW297974   0.636  11.183  11.657
98693SOL     OW97975   0.407   0.686   9.261
98693SOL    HW197976   0.385   0.719   9.174
98693SOL    HW297977   0.469   0.614   9.245
98694SOL     OW97978   0.567   5.291   2.900
98694SOL    HW197979   0.622   5.355   2.855
98694SOL    HW297980   0.481   5.332   2.906
98695SOL     OW97981   5.462  13.408   4.091
98695SOL    HW197982   5.534  13.409   4.028
98695SOL    HW297983   5.393  13.357   4.049
98696SOL     OW97984   8.264   1.340   8.388
98696SOL    HW197985   8.296   1.253   8.367
98696SOL    HW297986   8.180   1.325   8.431
98697SOL     OW97987  14.445   6.505  14.528
98697SOL    HW197988  14.502   6.518  14.604
98697SOL    HW297989  14.418   6.413  14.534
98698SOL     OW97990   2.245  13.919   3.035
98698SOL    HW197991   2.166  13.920   3.090
98698SOL    HW297992   2.241  13.835   2.989
98699SOL     OW97993   1.302   5.800   6.661
98699SOL    HW197994   1.341   5.886   6.647
98699SOL    HW297995   1.306   5.758   6.575
98700SOL     OW97996   6.450  12.567   0.852
98700SOL    HW197997   6.492  12.501   0.797
98700SOL    HW297998   6.522  12.606   0.902
98701SOL     OW97999   7.480  13.489  10.817
98701SOL    HW198000   7.387  13.493  10.793
98701SOL    HW298001   7.526  13.496  10.733
98702SOL     OW98002   5.747   2.538   2.676
98702SOL    HW198003   5.810   2.520   2.746
98702SOL    HW298004   5.798   2.579   2.607
98703SOL     OW98005   3.196   6.735  13.420
98703SOL    HW198006   3.142   6.693  13.353
98703SOL    HW298007   3.262   6.670  13.443
98704SOL     OW98008   9.481   7.740   7.332
98704SOL    HW198009   9.571   7.705   7.331
98704SOL    HW298010   9.457   7.746   7.240
98705SOL     OW98011  11.851  13.153  13.679
98705SOL    HW198012  11.768  13.201  13.679
98705SOL    HW298013  11.846  13.096  13.603
98706SOL     OW98014   0.455  11.461  11.321
98706SOL    HW198015   0.520  11.449  11.390
98706SOL    HW298016   0.502  11.507  11.251
98707SOL     OW98017  10.464   1.660   3.880
98707SOL    HW198018  10.455   1.570   3.913
98707SOL    HW298019  10.455   1.715   3.957
98708SOL     OW98020   2.392  12.649  11.586
98708SOL    HW198021   2.439  12.586  11.641
98708SOL    HW298022   2.438  12.645  11.502
98709SOL     OW98023   0.367   2.306   6.546
98709SOL    HW198024   0.313   2.237   6.507
98709SOL    HW298025   0.453   2.296   6.505
98710SOL     OW98026  10.823   9.722   0.484
98710SOL    HW198027  10.780   9.653   0.433
98710SOL    HW298028  10.900   9.746   0.432
98711SOL     OW98029   7.747  14.806   3.084
98711SOL    HW198030   7.743  14.711   3.093
98711SOL    HW298031   7.776  14.821   2.994
98712SOL     OW98032   1.562   6.943  10.008
98712SOL    HW198033   1.620   6.902  10.073
98712SOL    HW298034   1.619   6.960   9.933
98713SOL     OW98035   8.613   4.574  11.209
98713SOL    HW198036   8.524   4.571  11.173
98713SOL    HW298037   8.655   4.648  11.164
98714SOL     OW98038   9.924  13.278   7.802
98714SOL    HW198039   9.986  13.275   7.876
98714SOL    HW298040   9.887  13.366   7.806
98715SOL     OW98041  13.030   0.769   7.245
98715SOL    HW198042  12.954   0.750   7.301
98715SOL    HW298043  13.068   0.848   7.283
98716SOL     OW98044  10.278   1.303  11.799
98716SOL    HW198045  10.226   1.270  11.872
98716SOL    HW298046  10.234   1.268  11.721
98717SOL     OW98047  14.712  11.934   4.302
98717SOL    HW198048  14.796  11.939   4.348
98717SOL    HW298049  14.735  11.904   4.213
98718SOL     OW98050   4.619   8.288  14.010
98718SOL    HW198051   4.657   8.342  14.080
98718SOL    HW298052   4.688   8.282  13.945
98719SOL     OW98053  10.869  10.344   8.464
98719SOL    HW198054  10.833  10.261   8.495
98719SOL    HW298055  10.810  10.372   8.395
98720SOL     OW98056  14.821   1.061   5.870
98720SOL    HW198057  14.737   1.093   5.837
98720SOL    HW298058  14.833   1.107   5.954
98721SOL     OW98059  11.457   2.465   2.921
98721SOL    HW198060  11.414   2.383   2.895
98721SOL    HW298061  11.547   2.456   2.890
98722SOL     OW98062   4.827   1.857   3.287
98722SOL    HW198063   4.744   1.854   3.239
98722SOL    HW298064   4.821   1.787   3.352
98723SOL     OW98065   2.026   5.208  12.213
98723SOL    HW198066   2.003   5.117  12.199
98723SOL    HW298067   1.943   5.256  12.206
98724SOL     OW98068   8.341  13.058   1.612
98724SOL    HW198069   8.282  13.042   1.686
98724SOL    HW298070   8.386  13.140   1.635
98725SOL     OW98071   3.443  11.349  14.327
98725SOL    HW198072   3.351  11.357  14.304
98725SOL    HW298073   3.473  11.439  14.339
98726SOL     OW98074   0.916   3.850   6.822
98726SOL    HW198075   0.976   3.816   6.755
98726SOL    HW298076   0.867   3.919   6.776
98727SOL     OW98077   8.930   9.270  11.549
98727SOL    HW198078   8.875   9.196  11.524
98727SOL    HW298079   8.894   9.299  11.634
98728SOL     OW98080   5.792   7.667  12.084
98728SOL    HW198081   5.747   7.635  12.006
98728SOL    HW298082   5.749   7.623  12.157
98729SOL     OW98083   6.653  12.388   4.107
98729SOL    HW198084   6.596  12.463   4.088
98729SOL    HW298085   6.596  12.312   4.099
98730SOL     OW98086   6.002   1.732  11.842
98730SOL    HW198087   6.063   1.805  11.845
98730SOL    HW298088   6.031   1.678  11.769
98731SOL     OW98089   3.920   8.584   5.911
98731SOL    HW198090   3.903   8.591   5.817
98731SOL    HW298091   4.001   8.632   5.924
98732SOL     OW98092   3.321   2.255   7.257
98732SOL    HW198093   3.302   2.324   7.321
98732SOL    HW298094   3.387   2.294   7.199
98733SOL     OW98095  10.921  10.253  10.023
98733SOL    HW198096  10.931  10.277  10.115
98733SOL    HW298097  10.836  10.209  10.019
98734SOL     OW98098   9.137   2.543   0.197
98734SOL    HW198099   9.048   2.511   0.187
98734SOL    HW298100   9.185   2.504   0.124
98735SOL     OW98101  13.808  13.411  14.081
98735SOL    HW198102  13.849  13.389  14.164
98735SOL    HW298103  13.715  13.390  14.093
98736SOL     OW98104   1.931   0.689   5.727
98736SOL    HW198105   1.874   0.687   5.804
98736SOL    HW298106   1.986   0.612   5.737
98737SOL     OW98107   0.535   6.670  12.819
98737SOL    HW198108   0.521   6.646  12.911
98737SOL    HW298109   0.605   6.611  12.789
98738SOL     OW98110   1.621   4.761   2.413
98738SOL    HW198111   1.592   4.679   2.453
98738SOL    HW298112   1.694   4.734   2.356
98739SOL     OW98113  13.607   3.866  13.373
98739SOL    HW198114  13.516   3.894  13.369
98739SOL    HW298115  13.632   3.881  13.464
98740SOL     OW98116   7.336  10.987   3.919
98740SOL    HW198117   7.270  10.996   3.987
98740SOL    HW298118   7.316  10.904   3.876
98741SOL     OW98119  10.161  10.530   4.476
98741SOL    HW198120  10.111  10.571   4.406
98741SOL    HW298121  10.107  10.542   4.554
98742SOL     OW98122   1.634   1.332  14.679
98742SOL    HW198123   1.551   1.320  14.725
98742SOL    HW298124   1.684   1.392  14.735
98743SOL     OW98125   9.526   7.460  12.759
98743SOL    HW198126   9.564   7.523  12.697
98743SOL    HW298127   9.586   7.462  12.834
98744SOL     OW98128   7.717   8.793   7.725
98744SOL    HW198129   7.794   8.739   7.742
98744SOL    HW298130   7.696   8.777   7.633
98745SOL     OW98131   2.011  10.888   2.358
98745SOL    HW198132   1.996  10.883   2.263
98745SOL    HW298133   2.092  10.939   2.367
98746SOL     OW98134   3.184   4.779   8.103
98746SOL    HW198135   3.160   4.775   8.196
98746SOL    HW298136   3.231   4.697   8.087
98747SOL     OW98137   5.779   2.078   9.284
98747SOL    HW198138   5.771   2.079   9.379
98747SOL    HW298139   5.691   2.059   9.252
98748SOL     OW98140   1.339  14.265   6.869
98748SOL    HW198141   1.336  14.305   6.782
98748SOL    HW298142   1.408  14.314   6.915
98749SOL     OW98143  13.297   6.764   3.226
98749SOL    HW198144  13.224   6.799   3.173
98749SOL    HW298145  13.348   6.841   3.250
98750SOL     OW98146   0.802   8.963   6.805
98750SOL    HW198147   0.890   8.926   6.794
98750SOL    HW298148   0.816   9.042   6.856
98751SOL     OW98149   6.313   4.086   8.288
98751SOL    HW198150   6.270   4.018   8.341
98751SOL    HW298151   6.396   4.046   8.261
98752SOL     OW98152  10.459   6.308   4.555
98752SOL    HW198153  10.400   6.295   4.629
98752SOL    HW298154  10.464   6.403   4.544
98753SOL     OW98155   6.798  11.393  13.296
98753SOL    HW198156   6.825  11.395  13.204
98753SOL    HW298157   6.840  11.470  13.334
98754SOL     OW98158  10.495   9.625   2.920
98754SOL    HW198159  10.443   9.587   2.849
98754SOL    HW298160  10.448   9.706   2.942
98755SOL     OW98161  10.414   9.641   2.000
98755SOL    HW198162  10.439   9.654   1.908
98755SOL    HW298163  10.453   9.557   2.024
98756SOL     OW98164  13.796   0.383   3.250
98756SOL    HW198165  13.740   0.445   3.297
98756SOL    HW298166  13.882   0.391   3.291
98757SOL     OW98167   4.193   6.186   8.441
98757SOL    HW198168   4.214   6.212   8.352
98757SOL    HW298169   4.277   6.185   8.486
98758SOL     OW98170   8.947  10.833   6.475
98758SOL    HW198171   8.964  10.880   6.556
98758SOL    HW298172   9.000  10.753   6.482
98759SOL     OW98173  13.605  13.100   6.296
98759SOL    HW198174  13.582  13.007   6.302
98759SOL    HW298175  13.601  13.120   6.202
98760SOL     OW98176   5.717   3.322   8.680
98760SOL    HW198177   5.702   3.410   8.712
98760SOL    HW298178   5.811   3.310   8.685
98761SOL     OW98179   9.205   3.633  12.972
98761SOL    HW198180   9.154   3.709  13.002
98761SOL    HW298181   9.290   3.643  13.014
98762SOL     OW98182   4.379  11.676   8.279
98762SOL    HW198183   4.343  11.753   8.235
98762SOL    HW298184   4.473  11.693   8.284
98763SOL     OW98185   4.734   0.714   7.849
98763SOL    HW198186   4.762   0.729   7.939
98763SOL    HW298187   4.798   0.651   7.814
98764SOL     OW98188   6.851  12.762  13.705
98764SOL    HW198189   6.784  12.806  13.757
98764SOL    HW298190   6.802  12.711  13.640
98765SOL     OW98191   1.142   2.232   4.731
98765SOL    HW198192   1.236   2.216   4.741
98765SOL    HW298193   1.133   2.326   4.746
98766SOL     OW98194   3.710   2.696   6.476
98766SOL    HW198195   3.724   2.606   6.504
98766SOL    HW298196   3.636   2.728   6.528
98767SOL     OW98197  14.806   3.898   4.714
98767SOL    HW198198  14.797   3.970   4.651
98767SOL    HW298199   0.032   3.894   4.732
98768SOL     OW98200   9.572   9.864   1.657
98768SOL    HW198201   9.632   9.809   1.608
98768SOL    HW298202   9.620   9.886   1.737
98769SOL     OW98203   8.685  11.549  13.804
98769SOL    HW198204   8.649  11.464  13.830
98769SOL    HW298205   8.625  11.581  13.737
98770SOL     OW98206   7.628  11.333  14.739
98770SOL    HW198207   7.605  11.420  14.773
98770SOL    HW298208   7.716  11.344  14.704
98771SOL     OW98209  11.019   5.181   4.199
98771SOL    HW198210  11.004   5.233   4.120
98771SOL    HW298211  10.972   5.229   4.268
98772SOL     OW98212   7.518  12.965   2.512
98772SOL    HW198213   7.561  12.882   2.490
98772SOL    HW298214   7.563  13.031   2.459
98773SOL     OW98215  12.192  13.989   3.555
98773SOL    HW198216  12.144  14.068   3.579
98773SOL    HW298217  12.274  14.021   3.518
98774SOL     OW98218  12.239   5.535   8.119
98774SOL    HW198219  12.330   5.543   8.089
98774SOL    HW298220  12.215   5.445   8.097
98775SOL     OW98221   5.338   1.401   6.769
98775SOL    HW198222   5.363   1.345   6.696
98775SOL    HW298223   5.382   1.363   6.845
98776SOL     OW98224   3.380   6.197  10.160
98776SOL    HW198225   3.403   6.116  10.207
98776SOL    HW298226   3.285   6.205  10.173
98777SOL     OW98227  10.409   8.331   7.727
98777SOL    HW198228  10.502   8.347   7.746
98777SOL    HW298229  10.410   8.265   7.658
98778SOL     OW98230   8.461   0.290   6.007
98778SOL    HW198231   8.376   0.307   5.967
98778SOL    HW298232   8.503   0.376   6.012
98779SOL     OW98233  14.050   2.227   5.467
98779SOL    HW198234  14.063   2.263   5.555
98779SOL    HW298235  14.138   2.223   5.429
98780SOL     OW98236   3.075   0.714  10.287
98780SOL    HW198237   3.129   0.652  10.238
98780SOL    HW298238   2.986   0.680  10.279
98781SOL     OW98239   3.686   7.596  13.968
98781SOL    HW198240   3.604   7.624  13.927
98781SOL    HW298241   3.704   7.663  14.034
98782SOL     OW98242   8.582   8.167   6.247
98782SOL    HW198243   8.498   8.126   6.228
98782SOL    HW298244   8.646   8.110   6.203
98783SOL     OW98245   1.749   1.127  13.473
98783SOL    HW198246   1.672   1.128  13.417
98783SOL    HW298247   1.754   1.215  13.510
98784SOL     OW98248   5.482   6.201  10.110
98784SOL    HW198249   5.537   6.256  10.054
98784SOL    HW298250   5.543   6.148  10.160
98785SOL     OW98251  10.233  10.415   6.926
98785SOL    HW198252  10.212  10.409   6.833
98785SOL    HW298253  10.153  10.389   6.971
98786SOL     OW98254   4.950   8.092   8.181
98786SOL    HW198255   5.040   8.084   8.148
98786SOL    HW298256   4.914   8.004   8.172
98787SOL     OW98257  10.643  13.737   0.328
98787SOL    HW198258  10.563  13.712   0.375
98787SOL    HW298259  10.691  13.791   0.391
98788SOL     OW98260   3.633  13.649   4.223
98788SOL    HW198261   3.725  13.663   4.247
98788SOL    HW298262   3.611  13.564   4.262
98789SOL     OW98263   3.161   2.329  13.832
98789SOL    HW198264   3.082   2.277  13.819
98789SOL    HW298265   3.233   2.266  13.830
98790SOL     OW98266  12.601   9.940   1.111
98790SOL    HW198267  12.518   9.979   1.139
98790SOL    HW298268  12.621   9.982   1.027
98791SOL     OW98269   8.304   5.415  13.399
98791SOL    HW198270   8.283   5.505  13.424
98791SOL    HW298271   8.391   5.399  13.434
98792SOL     OW98272  11.693  13.106  10.810
98792SOL    HW198273  11.605  13.136  10.833
98792SOL    HW298274  11.689  13.011  10.819
98793SOL     OW98275   2.962   7.603  11.941
98793SOL    HW198276   2.896   7.538  11.965
98793SOL    HW298277   3.030   7.552  11.898
98794SOL     OW98278  11.408  10.274   0.385
98794SOL    HW198279  11.385  10.365   0.368
98794SOL    HW298280  11.383  10.227   0.306
98795SOL     OW98281   6.244   0.229   2.049
98795SOL    HW198282   6.320   0.250   1.994
98795SOL    HW298283   6.217   0.142   2.021
98796SOL     OW98284   2.095   2.793  13.215
98796SOL    HW198285   2.077   2.865  13.155
98796SOL    HW298286   2.109   2.717  13.159
98797SOL     OW98287   0.156   6.591  13.524
98797SOL    HW198288   0.066   6.599  13.554
98797SOL    HW298289   0.187   6.509  13.563
98798SOL     OW98290   0.923  12.120   4.703
98798SOL    HW198291   0.957  12.037   4.669
98798SOL    HW298292   0.879  12.160   4.628
98799SOL     OW98293  11.492   9.401   8.256
98799SOL    HW198294  11.565   9.356   8.214
98799SOL    HW298295  11.493   9.489   8.220
98800SOL     OW98296   7.928   0.196   7.439
98800SOL    HW198297   7.996   0.261   7.421
98800SOL    HW298298   7.886   0.227   7.520
98801SOL     OW98299   0.695   6.789   6.695
98801SOL    HW198300   0.607   6.777   6.659
98801SOL    HW298301   0.726   6.871   6.658
98802SOL     OW98302   2.731   8.594   9.436
98802SOL    HW198303   2.693   8.522   9.486
98802SOL    HW298304   2.744   8.664   9.500
98803SOL     OW98305   8.842   5.859  12.888
98803SOL    HW198306   8.845   5.955  12.896
98803SOL    HW298307   8.916   5.837  12.832
98804SOL     OW98308  11.185   3.694  10.149
98804SOL    HW198309  11.221   3.631  10.212
98804SOL    HW298310  11.161   3.770  10.201
98805SOL     OW98311   0.558   3.603   2.991
98805SOL    HW198312   0.531   3.515   2.964
98805SOL    HW298313   0.636   3.622   2.940
98806SOL     OW98314  11.866   6.443   1.860
98806SOL    HW198315  11.834   6.432   1.950
98806SOL    HW298316  11.803   6.504   1.820
98807SOL     OW98317   6.980   6.079   7.003
98807SOL    HW198318   6.918   6.035   6.945
98807SOL    HW298319   6.956   6.049   7.091
98808SOL     OW98320  14.093  11.433   4.229
98808SOL    HW198321  14.049  11.443   4.145
98808SOL    HW298322  14.105  11.523   4.261
98809SOL     OW98323   5.164   1.517  14.702
98809SOL    HW198324   5.138   1.435  14.746
98809SOL    HW298325   5.097   1.531  14.636
98810SOL     OW98326   5.721  12.439  11.071
98810SOL    HW198327   5.675  12.516  11.037
98810SOL    HW298328   5.776  12.411  10.998
98811SOL     OW98329  10.849  13.667   6.211
98811SOL    HW198330  10.769  13.682   6.162
98811SOL    HW298331  10.911  13.634   6.146
98812SOL     OW98332   8.878   8.925   0.570
98812SOL    HW198333   8.887   8.850   0.510
98812SOL    HW298334   8.968   8.944   0.597
98813SOL     OW98335   9.690   7.774  12.295
98813SOL    HW198336   9.671   7.692  12.250
98813SOL    HW298337   9.785   7.782  12.292
98814SOL     OW98338   6.144  10.019   9.756
98814SOL    HW198339   6.137  10.063   9.671
98814SOL    HW298340   6.193  10.081   9.810
98815SOL     OW98341   2.959   3.044   0.675
98815SOL    HW198342   3.022   3.107   0.710
98815SOL    HW298343   3.012   2.968   0.652
98816SOL     OW98344   0.954   8.390   0.700
98816SOL    HW198345   1.019   8.446   0.742
98816SOL    HW298346   0.913   8.447   0.634
98817SOL     OW98347   4.906   0.162   3.932
98817SOL    HW198348   4.907   0.069   3.908
98817SOL    HW298349   4.949   0.164   4.018
98818SOL     OW98350   6.515   2.249   1.609
98818SOL    HW198351   6.552   2.162   1.598
98818SOL    HW298352   6.521   2.289   1.522
98819SOL     OW98353   6.927   2.061   3.376
98819SOL    HW198354   6.951   2.035   3.465
98819SOL    HW298355   6.836   2.034   3.367
98820SOL     OW98356   9.769  12.584   0.688
98820SOL    HW198357   9.700  12.625   0.637
98820SOL    HW298358   9.730  12.504   0.722
98821SOL     OW98359  12.267   2.608   1.680
98821SOL    HW198360  12.186   2.564   1.655
98821SOL    HW298361  12.277   2.678   1.615
98822SOL     OW98362   7.184   8.233   6.746
98822SOL    HW198363   7.174   8.294   6.819
98822SOL    HW298364   7.170   8.287   6.668
98823SOL     OW98365   7.763  12.646  11.133
98823SOL    HW198366   7.710  12.573  11.166
98823SOL    HW298367   7.784  12.697  11.211
98824SOL     OW98368   8.840   9.321   9.608
98824SOL    HW198369   8.855   9.401   9.558
98824SOL    HW298370   8.797   9.350   9.688
98825SOL     OW98371   2.647   6.779   1.492
98825SOL    HW198372   2.726   6.734   1.522
98825SOL    HW298373   2.632   6.745   1.404
98826SOL     OW98374   4.636   2.756   8.592
98826SOL    HW198375   4.596   2.713   8.667
98826SOL    HW298376   4.618   2.849   8.606
98827SOL     OW98377  13.085   2.113   5.677
98827SOL    HW198378  13.091   2.025   5.714
98827SOL    HW298379  13.024   2.159   5.734
98828SOL     OW98380  11.749   6.528   7.965
98828SOL    HW198381  11.672   6.501   7.915
98828SOL    HW298382  11.796   6.447   7.984
98829SOL     OW98383  12.830  11.225  14.374
98829SOL    HW198384  12.853  11.306  14.419
98829SOL    HW298385  12.748  11.197  14.414
98830SOL     OW98386  11.909   4.765  14.151
98830SOL    HW198387  11.969   4.710  14.102
98830SOL    HW298388  11.917   4.735  14.242
98831SOL     OW98389   7.411  13.415   7.327
98831SOL    HW198390   7.332  13.469   7.316
98831SOL    HW298391   7.478  13.461   7.277
98832SOL     OW98392  14.050   8.993  13.049
98832SOL    HW198393  14.107   9.006  12.973
98832SOL    HW298394  14.100   8.936  13.107
98833SOL     OW98395   1.467  12.684  13.169
98833SOL    HW198396   1.477  12.622  13.242
98833SOL    HW298397   1.412  12.754  13.205
98834SOL     OW98398  12.723   0.214   9.862
98834SOL    HW198399  12.717   0.222   9.957
98834SOL    HW298400  12.640   0.174   9.836
98835SOL     OW98401  10.240  11.866  11.222
98835SOL    HW198402  10.229  11.885  11.129
98835SOL    HW298403  10.260  11.773  11.226
98836SOL     OW98404  14.796   3.784  12.182
98836SOL    HW198405  14.741   3.801  12.106
98836SOL    HW298406  14.817   3.691  12.177
98837SOL     OW98407   7.422   1.446   2.719
98837SOL    HW198408   7.450   1.454   2.810
98837SOL    HW298409   7.496   1.404   2.675
98838SOL     OW98410  12.177   7.327   7.023
98838SOL    HW198411  12.174   7.395   6.955
98838SOL    HW298412  12.119   7.360   7.092
98839SOL     OW98413  12.672  13.008  10.935
98839SOL    HW198414  12.744  13.067  10.957
98839SOL    HW298415  12.650  12.965  11.018
98840SOL     OW98416   8.989   0.909   3.530
98840SOL    HW198417   8.964   0.854   3.455
98840SOL    HW298418   8.932   0.878   3.601
98841SOL     OW98419   9.330  13.503   0.091
98841SOL    HW198420   9.346  13.597   0.104
98841SOL    HW298421   9.297  13.474   0.176
98842SOL     OW98422   7.665   8.452   6.088
98842SOL    HW198423   7.675   8.358   6.078
98842SOL    HW298424   7.746   8.488   6.050
98843SOL     OW98425  13.510   3.706   7.323
98843SOL    HW198426  13.591   3.663   7.297
98843SOL    HW298427  13.447   3.634   7.337
98844SOL     OW98428   3.209  13.577  14.324
98844SOL    HW198429   3.304  13.588  14.316
98844SOL    HW298430   3.175  13.609  14.240
98845SOL     OW98431  14.687  13.758  12.179
98845SOL    HW198432  14.684  13.712  12.263
98845SOL    HW298433  14.772  13.802  12.180
98846SOL     OW98434   0.519   7.700  12.951
98846SOL    HW198435   0.456   7.701  13.022
98846SOL    HW298436   0.539   7.607  12.937
98847SOL     OW98437   9.262   0.896   3.539
98847SOL    HW198438   9.290   0.903   3.448
98847SOL    HW298439   9.167   0.908   3.535
98848SOL     OW98440   5.033   9.936  12.357
98848SOL    HW198441   5.096   9.949  12.286
98848SOL    HW298442   5.087   9.936  12.436
98849SOL     OW98443   0.417   3.537   0.033
98849SOL    HW198444   0.370   3.618   0.057
98849SOL    HW298445   0.434   3.546  14.807
98850SOL     OW98446   8.378  11.259  13.187
98850SOL    HW198447   8.402  11.337  13.237
98850SOL    HW298448   8.393  11.283  13.096
98851SOL     OW98449  10.796   6.869   1.134
98851SOL    HW198450  10.872   6.865   1.192
98851SOL    HW298451  10.832   6.855   1.047
98852SOL     OW98452   1.898   4.414   5.569
98852SOL    HW198453   1.930   4.339   5.617
98852SOL    HW298454   1.974   4.449   5.524
98853SOL     OW98455   1.389   7.410   6.611
98853SOL    HW198456   1.424   7.323   6.627
98853SOL    HW298457   1.464   7.469   6.623
98854SOL     OW98458   1.340   7.704   6.701
98854SOL    HW198459   1.370   7.639   6.765
98854SOL    HW298460   1.246   7.712   6.718
98855SOL     OW98461   2.584   8.263  12.186
98855SOL    HW198462   2.496   8.256  12.148
98855SOL    HW298463   2.592   8.187  12.243
98856SOL     OW98464  11.246  10.640   1.331
98856SOL    HW198465  11.177  10.685   1.380
98856SOL    HW298466  11.198  10.580   1.273
98857SOL     OW98467   2.630  10.899   7.372
98857SOL    HW198468   2.687  10.862   7.440
98857SOL    HW298469   2.581  10.967   7.418
98858SOL     OW98470   8.279   9.387  11.056
98858SOL    HW198471   8.372   9.364  11.049
98858SOL    HW298472   8.269   9.423  11.144
98859SOL     OW98473  12.444   2.297  11.539
98859SOL    HW198474  12.433   2.233  11.609
98859SOL    HW298475  12.532   2.333  11.552
98860SOL     OW98476   0.529  11.554   4.457
98860SOL    HW198477   0.623  11.564   4.446
98860SOL    HW298478   0.497  11.530   4.371
98861SOL     OW98479  13.379   2.250   2.160
98861SOL    HW198480  13.303   2.300   2.131
98861SOL    HW298481  13.451   2.312   2.156
98862SOL     OW98482   2.283  10.101   5.080
98862SOL    HW198483   2.278  10.165   5.151
98862SOL    HW298484   2.317  10.151   5.005
98863SOL     OW98485   9.793  12.402   7.091
98863SOL    HW198486   9.835  12.482   7.058
98863SOL    HW298487   9.860  12.334   7.081
98864SOL     OW98488   6.295   3.989   7.627
98864SOL    HW198489   6.254   3.904   7.607
98864SOL    HW298490   6.249   4.021   7.704
98865SOL     OW98491  12.901   5.926  11.516
98865SOL    HW198492  12.939   5.878  11.589
98865SOL    HW298493  12.936   6.015  11.524
98866SOL     OW98494   0.983  14.809   0.020
98866SOL    HW198495   0.929  14.841  14.816
98866SOL    HW298496   0.997   0.018   0.075
98867SOL     OW98497   5.812   4.907   8.324
98867SOL    HW198498   5.835   4.969   8.254
98867SOL    HW298499   5.836   4.821   8.289
98868SOL     OW98500   2.485  11.314   1.444
98868SOL    HW198501   2.538  11.332   1.522
98868SOL    HW298502   2.395  11.330   1.472
98869SOL     OW98503   8.533   9.180   0.267
98869SOL    HW198504   8.516   9.112   0.332
98869SOL    HW298505   8.610   9.149   0.219
98870SOL     OW98506  11.461   0.606   5.465
98870SOL    HW198507  11.412   0.573   5.539
98870SOL    HW298508  11.490   0.693   5.492
98871SOL     OW98509   5.171  13.775   4.011
98871SOL    HW198510   5.162  13.831   4.088
98871SOL    HW298511   5.202  13.691   4.046
98872SOL     OW98512   5.253  12.534  10.698
98872SOL    HW198513   5.251  12.561  10.790
98872SOL    HW298514   5.329  12.477  10.692
98873SOL     OW98515  10.831  10.238   4.415
98873SOL    HW198516  10.926  10.235   4.429
98873SOL    HW298517  10.795  10.175   4.477
98874SOL     OW98518   4.433   6.647   7.088
98874SOL    HW198519   4.399   6.564   7.056
98874SOL    HW298520   4.444   6.634   7.182
98875SOL     OW98521  10.210   1.108   0.190
98875SOL    HW198522  10.294   1.154   0.179
98875SOL    HW298523  10.145   1.178   0.195
98876SOL     OW98524   5.910   0.320   3.924
98876SOL    HW198525   5.976   0.350   3.986
98876SOL    HW298526   5.921   0.376   3.847
98877SOL     OW98527   0.170   4.221   9.000
98877SOL    HW198528   0.097   4.268   9.041
98877SOL    HW298529   0.229   4.290   8.969
98878SOL     OW98530  14.495   3.005   5.047
98878SOL    HW198531  14.514   3.039   5.134
98878SOL    HW298532  14.578   2.971   5.015
98879SOL     OW98533   5.922  11.803  13.180
98879SOL    HW198534   6.002  11.827  13.226
98879SOL    HW298535   5.947  11.800  13.088
98880SOL     OW98536   8.201  10.603   1.497
98880SOL    HW198537   8.207  10.698   1.490
98880SOL    HW298538   8.177  10.573   1.410
98881SOL     OW98539   9.797  11.491   4.731
98881SOL    HW198540   9.846  11.470   4.651
98881SOL    HW298541   9.837  11.436   4.798
98882SOL     OW98542  13.040   3.914   7.367
98882SOL    HW198543  12.980   3.987   7.377
98882SOL    HW298544  12.987   3.843   7.331
98883SOL     OW98545  12.922   2.253   0.852
98883SOL    HW198546  13.002   2.227   0.807
98883SOL    HW298547  12.924   2.204   0.934
98884SOL     OW98548  10.793  12.996  10.899
98884SOL    HW198549  10.811  13.090  10.903
98884SOL    HW298550  10.875  12.957  10.871
98885SOL     OW98551   0.517   3.775   6.644
98885SOL    HW198552   0.449   3.839   6.626
98885SOL    HW298553   0.557   3.805   6.726
98886SOL     OW98554  13.537  13.170   8.179
98886SOL    HW198555  13.556  13.264   8.168
98886SOL    HW298556  13.513  13.140   8.091
98887SOL     OW98557   0.199   3.689   4.560
98887SOL    HW198558   0.250   3.724   4.487
98887SOL    HW298559   0.108   3.699   4.532
98888SOL     OW98560   7.901   4.908   1.156
98888SOL    HW198561   7.966   4.976   1.172
98888SOL    HW298562   7.850   4.941   1.081
98889SOL     OW98563  14.684  11.920  11.285
98889SOL    HW198564  14.665  11.903  11.377
98889SOL    HW298565  14.615  11.872  11.237
98890SOL     OW98566  14.672   6.377  13.888
98890SOL    HW198567  14.696   6.457  13.935
98890SOL    HW298568  14.579   6.366  13.906
98891SOL     OW98569   5.213   8.320   9.554
98891SOL    HW198570   5.135   8.375   9.565
98891SOL    HW298571   5.189   8.260   9.482
98892SOL     OW98572  11.050   9.425   9.658
98892SOL    HW198573  10.969   9.434   9.709
98892SOL    HW298574  11.118   9.408   9.724
98893SOL     OW98575   1.812   4.320  10.723
98893SOL    HW198576   1.716   4.320  10.714
98893SOL    HW298577   1.832   4.234  10.760
98894SOL     OW98578   2.710   9.790   7.744
98894SOL    HW198579   2.776   9.734   7.703
98894SOL    HW298580   2.673   9.840   7.671
98895SOL     OW98581  12.834   3.398  14.016
98895SOL    HW198582  12.779   3.366  14.087
98895SOL    HW298583  12.897   3.328  14.000
98896SOL     OW98584   7.758  13.093   5.201
98896SOL    HW198585   7.680  13.108   5.148
98896SOL    HW298586   7.823  13.153   5.165
98897SOL     OW98587  12.436   3.397   4.652
98897SOL    HW198588  12.379   3.457   4.699
98897SOL    HW298589  12.448   3.437   4.566
98898SOL     OW98590   7.308  11.741   6.967
98898SOL    HW198591   7.229  11.795   6.962
98898SOL    HW298592   7.379  11.803   6.951
98899SOL     OW98593   9.518   0.036   4.757
98899SOL    HW198594   9.605   0.056   4.722
98899SOL    HW298595   9.516   0.081   4.841
98900SOL     OW98596  11.189  10.251  13.074
98900SOL    HW198597  11.244  10.187  13.029
98900SOL    HW298598  11.206  10.333  13.029
98901SOL     OW98599  13.740  10.364   6.820
98901SOL    HW198600  13.673  10.429   6.842
98901SOL    HW298601  13.742  10.363   6.724
98902SOL     OW98602  12.627   6.545   2.772
98902SOL    HW198603  12.574   6.590   2.837
98902SOL    HW298604  12.649   6.612   2.708
98903SOL     OW98605   9.293   9.600  13.961
98903SOL    HW198606   9.269   9.623  13.871
98903SOL    HW298607   9.244   9.520  13.979
98904SOL     OW98608  12.849   8.449  13.370
98904SOL    HW198609  12.906   8.378  13.341
98904SOL    HW298610  12.908   8.520  13.395
98905SOL     OW98611   1.257   5.371  14.704
98905SOL    HW198612   1.203   5.316  14.762
98905SOL    HW298613   1.243   5.335  14.617
98906SOL     OW98614  10.273   2.073   3.702
98906SOL    HW198615  10.223   1.995   3.681
98906SOL    HW298616  10.327   2.048   3.777
98907SOL     OW98617   5.458   9.669   3.151
98907SOL    HW198618   5.439   9.599   3.088
98907SOL    HW298619   5.373   9.691   3.189
98908SOL     OW98620  10.631   7.373   9.736
98908SOL    HW198621  10.621   7.286   9.774
98908SOL    HW298622  10.606   7.433   9.807
98909SOL     OW98623  10.718   3.861  13.775
98909SOL    HW198624  10.690   3.941  13.730
98909SOL    HW298625  10.666   3.792  13.735
98910SOL     OW98626   3.217   8.674  10.038
98910SOL    HW198627   3.221   8.580  10.022
98910SOL    HW298628   3.222   8.682  10.134
98911SOL     OW98629   3.577  11.710  13.245
98911SOL    HW198630   3.653  11.687  13.298
98911SOL    HW298631   3.537  11.783  13.291
98912SOL     OW98632  10.445   7.622   8.102
98912SOL    HW198633  10.392   7.661   8.172
98912SOL    HW298634  10.527   7.599   8.145
98913SOL     OW98635   7.815   7.604   2.303
98913SOL    HW198636   7.756   7.614   2.228
98913SOL    HW298637   7.806   7.686   2.352
98914SOL     OW98638   3.505  11.422   6.063
98914SOL    HW198639   3.552  11.366   6.001
98914SOL    HW298640   3.423  11.443   6.018
98915SOL     OW98641   1.888   1.945   0.674
98915SOL    HW198642   1.831   1.889   0.726
98915SOL    HW298643   1.923   1.888   0.606
98916SOL     OW98644  14.004  10.685   7.130
98916SOL    HW198645  14.075  10.746   7.109
98916SOL    HW298646  14.019  10.610   7.072
98917SOL     OW98647   4.010   5.021  13.786
98917SOL    HW198648   4.096   4.978  13.791
98917SOL    HW298649   3.949   4.958  13.825
98918SOL     OW98650   0.557   9.150  12.226
98918SOL    HW198651   0.525   9.080  12.283
98918SOL    HW298652   0.633   9.111  12.182
98919SOL     OW98653   9.788  14.766  12.468
98919SOL    HW198654   9.862  14.741  12.412
98919SOL    HW298655   9.824  14.830  12.529
98920SOL     OW98656   3.775  14.778   3.993
98920SOL    HW198657   3.699  14.723   3.972
98920SOL    HW298658   3.844  14.715   4.016
98921SOL     OW98659  11.542   6.144   0.205
98921SOL    HW198660  11.528   6.230   0.166
98921SOL    HW298661  11.612   6.157   0.269
98922SOL     OW98662  11.640   8.428  10.676
98922SOL    HW198663  11.706   8.368  10.710
98922SOL    HW298664  11.557   8.380  10.686
98923SOL     OW98665  12.785   3.939  12.910
98923SOL    HW198666  12.865   3.886  12.917
98923SOL    HW298667  12.739   3.924  12.993
98924SOL     OW98668   9.734  10.790  13.668
98924SOL    HW198669   9.739  10.784  13.572
98924SOL    HW298670   9.641  10.806  13.686
98925SOL     OW98671   9.744   2.391   0.949
98925SOL    HW198672   9.729   2.389   0.855
98925SOL    HW298673   9.728   2.301   0.978
98926SOL     OW98674  10.181   7.335   7.517
98926SOL    HW198675  10.175   7.265   7.582
98926SOL    HW298676  10.240   7.301   7.450
98927SOL     OW98677   7.670   2.754   5.036
98927SOL    HW198678   7.756   2.786   5.010
98927SOL    HW298679   7.687   2.667   5.073
98928SOL     OW98680   5.196   2.987   3.906
98928SOL    HW198681   5.284   2.959   3.882
98928SOL    HW298682   5.174   2.935   3.984
98929SOL     OW98683   9.707   3.451   9.232
98929SOL    HW198684   9.747   3.483   9.313
98929SOL    HW298685   9.763   3.379   9.203
98930SOL     OW98686   1.465   3.098   8.047
98930SOL    HW198687   1.428   3.092   7.959
98930SOL    HW298688   1.426   3.177   8.085
98931SOL     OW98689   8.882  11.602   7.272
98931SOL    HW198690   8.916  11.598   7.183
98931SOL    HW298691   8.955  11.573   7.327
98932SOL     OW98692   4.264  12.029   3.413
98932SOL    HW198693   4.350  12.069   3.428
98932SOL    HW298694   4.259  12.017   3.318
98933SOL     OW98695   1.771   1.383   3.038
98933SOL    HW198696   1.831   1.455   3.061
98933SOL    HW298697   1.780   1.375   2.943
98934SOL     OW98698  10.674  12.372   8.052
98934SOL    HW198699  10.719  12.337   8.129
98934SOL    HW298700  10.738  12.363   7.982
98935SOL     OW98701  13.598   2.944   4.015
98935SOL    HW198702  13.676   2.889   4.012
98935SOL    HW298703  13.526   2.884   3.993
98936SOL     OW98704  11.032  13.736  10.792
98936SOL    HW198705  11.028  13.816  10.844
98936SOL    HW298706  11.074  13.762  10.710
98937SOL     OW98707   1.375   6.517   9.998
98937SOL    HW198708   1.337   6.589  10.049
98937SOL    HW298709   1.447   6.485  10.052
98938SOL     OW98710   8.368   5.425   7.131
98938SOL    HW198711   8.290   5.453   7.083
98938SOL    HW298712   8.437   5.419   7.065
98939SOL     OW98713   1.427   3.491   0.680
98939SOL    HW198714   1.515   3.480   0.717
98939SOL    HW298715   1.429   3.440   0.599
98940SOL     OW98716   7.916  13.541  14.807
98940SOL    HW198717   7.966  13.604  14.858
98940SOL    HW298718   7.959  13.541  14.721
98941SOL     OW98719   5.298   2.895   8.865
98941SOL    HW198720   5.306   2.802   8.883
98941SOL    HW298721   5.346   2.938   8.936
98942SOL     OW98722  14.100  13.238   7.372
98942SOL    HW198723  14.124  13.284   7.452
98942SOL    HW298724  14.004  13.240   7.370
98943SOL     OW98725   0.542   7.449  14.087
98943SOL    HW198726   0.625   7.492  14.070
98943SOL    HW298727   0.502   7.500  14.158
98944SOL     OW98728   5.506   3.174   4.959
98944SOL    HW198729   5.522   3.268   4.969
98944SOL    HW298730   5.449   3.152   5.032
98945SOL     OW98731   1.795   9.038   0.081
98945SOL    HW198732   1.812   8.965   0.141
98945SOL    HW298733   1.799   8.998  14.862
98946SOL     OW98734   2.338  13.220   4.025
98946SOL    HW198735   2.313  13.263   3.943
98946SOL    HW298736   2.404  13.156   3.999
98947SOL     OW98737   2.090  13.022  14.674
98947SOL    HW198738   2.167  12.968  14.692
98947SOL    HW298739   2.036  13.012  14.753
98948SOL     OW98740   1.049   9.728   9.287
98948SOL    HW198741   1.055   9.814   9.247
98948SOL    HW298742   0.959   9.700   9.270
98949SOL     OW98743   6.984  14.099   9.887
98949SOL    HW198744   6.989  14.005   9.870
98949SOL    HW298745   7.042  14.138   9.822
98950SOL     OW98746   7.580   3.623  10.814
98950SOL    HW198747   7.619   3.553  10.762
98950SOL    HW298748   7.530   3.675  10.750
98951SOL     OW98749  12.909   3.326  10.068
98951SOL    HW198750  12.845   3.344   9.999
98951SOL    HW298751  12.939   3.413  10.095
98952SOL     OW98752  14.172  11.153   9.917
98952SOL    HW198753  14.223  11.087   9.965
98952SOL    HW298754  14.232  11.185   9.850
98953SOL     OW98755  12.955   3.248   0.750
98953SOL    HW198756  12.906   3.310   0.804
98953SOL    HW298757  13.036   3.293   0.728
98954SOL     OW98758   8.501   0.083   4.629
98954SOL    HW198759   8.551   0.110   4.707
98954SOL    HW298760   8.410   0.091   4.656
98955SOL     OW98761  13.206   9.745  14.259
98955SOL    HW198762  13.272   9.742  14.329
98955SOL    HW298763  13.163   9.830  14.270
98956SOL     OW98764   0.063   8.900   3.561
98956SOL    HW198765  14.839   8.889   3.540
98956SOL    HW298766   0.085   8.823   3.613
98957SOL     OW98767   1.013  11.768  11.326
98957SOL    HW198768   0.929  11.725  11.342
98957SOL    HW298769   1.066  11.746  11.403
98958SOL     OW98770  13.017   0.770   9.765
98958SOL    HW198771  12.949   0.703   9.762
98958SOL    HW298772  13.055   0.761   9.853
98959SOL     OW98773   3.188  10.207   7.216
98959SOL    HW198774   3.198  10.247   7.302
98959SOL    HW298775   3.203  10.279   7.154
98960SOL     OW98776   9.761   6.123   5.060
98960SOL    HW198777   9.703   6.176   5.005
98960SOL    HW298778   9.784   6.181   5.133
98961SOL     OW98779  13.007   7.078   8.041
98961SOL    HW198780  13.066   7.066   8.115
98961SOL    HW298781  12.931   7.123   8.078
98962SOL     OW98782   6.947   0.433   3.055
98962SOL    HW198783   6.941   0.528   3.058
98962SOL    HW298784   6.895   0.402   3.129
98963SOL     OW98785  11.397   7.610  11.685
98963SOL    HW198786  11.407   7.532  11.741
98963SOL    HW298787  11.427   7.682  11.739
98964SOL     OW98788   0.734   4.957   6.010
98964SOL    HW198789   0.750   5.007   6.090
98964SOL    HW298790   0.685   5.017   5.954
98965SOL     OW98791   9.965   9.573   9.308
98965SOL    HW198792   9.917   9.595   9.228
98965SOL    HW298793   9.997   9.484   9.293
98966SOL     OW98794  13.778   4.781   0.092
98966SOL    HW198795  13.713   4.842   0.127
98966SOL    HW298796  13.858   4.800   0.142
98967SOL     OW98797  13.519   0.797  11.053
98967SOL    HW198798  13.464   0.811  10.976
98967SOL    HW298799  13.468   0.738  11.109
98968SOL     OW98800   5.432   7.226  10.269
98968SOL    HW198801   5.346   7.191  10.242
98968SOL    HW298802   5.411   7.292  10.334
98969SOL     OW98803   2.390   2.029  14.739
98969SOL    HW198804   2.307   2.054  14.699
98969SOL    HW298805   2.456   2.080  14.693
98970SOL     OW98806   5.885  10.942   0.648
98970SOL    HW198807   5.892  11.036   0.666
98970SOL    HW298808   5.959  10.924   0.590
98971SOL     OW98809   2.144   4.196   0.418
98971SOL    HW198810   2.210   4.153   0.363
98971SOL    HW298811   2.076   4.224   0.357
98972SOL     OW98812  14.257   0.609   9.582
98972SOL    HW198813  14.229   0.555   9.656
98972SOL    HW298814  14.321   0.554   9.536
98973SOL     OW98815   6.952   7.564  14.536
98973SOL    HW198816   6.949   7.526  14.448
98973SOL    HW298817   7.018   7.512  14.582
98974SOL     OW98818   6.890   4.373   3.019
98974SOL    HW198819   6.941   4.349   2.941
98974SOL    HW298820   6.805   4.331   3.006
98975SOL     OW98821   0.421   4.955  13.045
98975SOL    HW198822   0.428   4.936  12.951
98975SOL    HW298823   0.512   4.955  13.076
98976SOL     OW98824   1.372  11.589   4.024
98976SOL    HW198825   1.317  11.659   4.059
98976SOL    HW298826   1.374  11.523   4.093
98977SOL     OW98827   2.546   6.731   5.573
98977SOL    HW198828   2.505   6.796   5.517
98977SOL    HW298829   2.640   6.748   5.566
98978SOL     OW98830   5.129  14.651   2.211
98978SOL    HW198831   5.173  14.596   2.275
98978SOL    HW298832   5.123  14.737   2.254
98979SOL     OW98833  12.179   1.831   8.172
98979SOL    HW198834  12.221   1.905   8.217
98979SOL    HW298835  12.102   1.870   8.129
98980SOL     OW98836  13.411   3.616   0.242
98980SOL    HW198837  13.472   3.631   0.314
98980SOL    HW298838  13.326   3.643   0.276
98981SOL     OW98839  13.647   6.694   4.912
98981SOL    HW198840  13.575   6.755   4.931
98981SOL    HW298841  13.603   6.614   4.883
98982SOL     OW98842   4.611   2.431   2.287
98982SOL    HW198843   4.591   2.523   2.304
98982SOL    HW298844   4.560   2.383   2.352
98983SOL     OW98845   0.649   4.745   0.692
98983SOL    HW198846   0.593   4.675   0.726
98983SOL    HW298847   0.593   4.794   0.632
98984SOL     OW98848   4.591   5.250   5.350
98984SOL    HW198849   4.644   5.216   5.423
98984SOL    HW298850   4.523   5.184   5.338
98985SOL     OW98851   6.278   4.644  12.630
98985SOL    HW198852   6.369   4.616  12.644
98985SOL    HW298853   6.261   4.624  12.538
98986SOL     OW98854  13.608  14.812   1.442
98986SOL    HW198855  13.601  14.810   1.537
98986SOL    HW298856  13.616  14.720   1.417
98987SOL     OW98857  10.341  10.977   9.464
98987SOL    HW198858  10.254  10.939   9.455
98987SOL    HW298859  10.340  11.019   9.550
98988SOL     OW98860   9.681   8.737   0.613
98988SOL    HW198861   9.632   8.658   0.638
98988SOL    HW298862   9.728   8.762   0.693
98989SOL     OW98863   3.871   8.346  11.751
98989SOL    HW198864   3.953   8.334  11.799
98989SOL    HW298865   3.835   8.257  11.743
98990SOL     OW98866   3.859  10.455  13.438
98990SOL    HW198867   3.818  10.471  13.353
98990SOL    HW298868   3.792  10.478  13.502
98991SOL     OW98869  12.508   3.429   7.899
98991SOL    HW198870  12.536   3.377   7.823
98991SOL    HW298871  12.419   3.457   7.878
98992SOL     OW98872   3.879  12.588   8.430
98992SOL    HW198873   3.908  12.615   8.343
98992SOL    HW298874   3.943  12.625   8.490
98993SOL     OW98875   6.651   2.203   5.220
98993SOL    HW198876   6.743   2.210   5.195
98993SOL    HW298877   6.642   2.265   5.293
98994SOL     OW98878   8.213   6.288   4.807
98994SOL    HW198879   8.142   6.283   4.743
98994SOL    HW298880   8.227   6.382   4.821
98995SOL     OW98881   5.235  12.187   7.139
98995SOL    HW198882   5.299  12.231   7.083
98995SOL    HW298883   5.227  12.245   7.215
98996SOL     OW98884   7.657   2.614   6.683
98996SOL    HW198885   7.639   2.543   6.621
98996SOL    HW298886   7.731   2.660   6.645
98997SOL     OW98887  12.116   0.453   2.563
98997SOL    HW198888  12.154   0.383   2.616
98997SOL    HW298889  12.077   0.513   2.627
98998SOL     OW98890   1.134  10.463   2.163
98998SOL    HW198891   1.092  10.527   2.221
98998SOL    HW298892   1.084  10.383   2.175
98999SOL     OW98893  12.109   7.034   5.359
98999SOL    HW198894  12.023   6.991   5.354
98999SOL    HW298895  12.153   6.992   5.432
99000SOL     OW98896   8.157   1.930  14.215
99000SOL    HW198897   8.149   1.871  14.290
99000SOL    HW298898   8.066   1.952  14.193
99001SOL     OW98899   2.458   7.284  14.031
99001SOL    HW198900   2.500   7.250  13.952
99001SOL    HW298901   2.494   7.231  14.102
99002SOL     OW98902   9.962   5.684  10.210
99002SOL    HW198903  10.016   5.682  10.289
99002SOL    HW298904   9.939   5.592  10.194
99003SOL     OW98905   2.789   1.960   2.151
99003SOL    HW198906   2.807   1.944   2.244
99003SOL    HW298907   2.835   1.890   2.105
99004SOL     OW98908   1.062   6.958  13.371
99004SOL    HW198909   0.971   6.941  13.346
99004SOL    HW298910   1.070   6.920  13.458
99005SOL     OW98911   4.987  11.481   0.248
99005SOL    HW198912   4.992  11.567   0.207
99005SOL    HW298913   4.934  11.429   0.187
99006SOL     OW98914   6.952   6.770  14.563
99006SOL    HW198915   6.945   6.846  14.621
99006SOL    HW298916   7.040   6.777  14.526
99007SOL     OW98917   4.844   0.836  14.020
99007SOL    HW198918   4.779   0.778  13.980
99007SOL    HW298919   4.805   0.923  14.014
99008SOL     OW98920   9.226   0.087   9.211
99008SOL    HW198921   9.226   0.156   9.278
99008SOL    HW298922   9.262   0.129   9.133
99009SOL     OW98923   9.053   4.012   9.723
99009SOL    HW198924   8.972   3.960   9.724
99009SOL    HW298925   9.119   3.953   9.760
99010SOL     OW98926   9.280   1.579   9.226
99010SOL    HW198927   9.270   1.655   9.168
99010SOL    HW298928   9.215   1.516   9.195
99011SOL     OW98929   8.868   2.241  12.862
99011SOL    HW198930   8.918   2.204  12.790
99011SOL    HW298931   8.896   2.192  12.939
99012SOL     OW98932   2.277   4.604   9.336
99012SOL    HW198933   2.313   4.578   9.251
99012SOL    HW298934   2.194   4.556   9.342
99013SOL     OW98935   2.927   7.633   5.980
99013SOL    HW198936   2.901   7.574   5.909
99013SOL    HW298937   3.022   7.636   5.975
99014SOL     OW98938   7.066  11.473   8.246
99014SOL    HW198939   7.004  11.400   8.248
99014SOL    HW298940   7.030  11.537   8.306
99015SOL     OW98941   2.188   3.240   9.309
99015SOL    HW198942   2.252   3.285   9.364
99015SOL    HW298943   2.218   3.258   9.219
99016SOL     OW98944   8.880  13.265   7.681
99016SOL    HW198945   8.829  13.315   7.617
99016SOL    HW298946   8.880  13.319   7.760
99017SOL     OW98947  12.649   0.856   5.217
99017SOL    HW198948  12.721   0.793   5.212
99017SOL    HW298949  12.678   0.930   5.164
99018SOL     OW98950   1.250  13.034   9.146
99018SOL    HW198951   1.236  12.941   9.131
99018SOL    HW298952   1.170  13.076   9.115
99019SOL     OW98953  13.192  14.501  12.864
99019SOL    HW198954  13.160  14.586  12.836
99019SOL    HW298955  13.269  14.522  12.918
99020SOL     OW98956  14.462   1.079   5.295
99020SOL    HW198957  14.533   1.115   5.349
99020SOL    HW298958  14.424   1.010   5.350
99021SOL     OW98959  10.786  13.194   7.521
99021SOL    HW198960  10.783  13.270   7.579
99021SOL    HW298961  10.751  13.226   7.437
99022SOL     OW98962   2.383   0.855   3.486
99022SOL    HW198963   2.405   0.936   3.439
99022SOL    HW298964   2.353   0.885   3.571
99023SOL     OW98965   8.868   7.407   8.135
99023SOL    HW198966   8.900   7.460   8.062
99023SOL    HW298967   8.801   7.351   8.096
99024SOL     OW98968   2.372   3.200   7.647
99024SOL    HW198969   2.306   3.185   7.715
99024SOL    HW298970   2.395   3.292   7.656
99025SOL     OW98971   8.492   1.413   3.068
99025SOL    HW198972   8.460   1.324   3.055
99025SOL    HW298973   8.463   1.461   2.990
99026SOL     OW98974  10.657   1.583   4.825
99026SOL    HW198975  10.637   1.608   4.735
99026SOL    HW298976  10.577   1.602   4.873
99027SOL     OW98977   9.673   8.327   7.411
99027SOL    HW198978   9.749   8.378   7.438
99027SOL    HW298979   9.650   8.275   7.488
99028SOL     OW98980  11.687   6.621   7.083
99028SOL    HW198981  11.662   6.531   7.105
99028SOL    HW298982  11.748   6.612   7.009
99029SOL     OW98983   9.372   6.396  14.224
99029SOL    HW198984   9.307   6.325  14.222
99029SOL    HW298985   9.331   6.468  14.176
99030SOL     OW98986   0.821   2.775   6.595
99030SOL    HW198987   0.857   2.860   6.571
99030SOL    HW298988   0.788   2.787   6.684
99031SOL     OW98989   7.400   3.150   1.224
99031SOL    HW198990   7.450   3.112   1.296
99031SOL    HW298991   7.379   3.239   1.254
99032SOL     OW98992  14.819   1.337   8.462
99032SOL    HW198993  14.845   1.267   8.522
99032SOL    HW298994   0.017   1.335   8.393
99033SOL     OW98995   6.805   5.139   6.882
99033SOL    HW198996   6.871   5.206   6.894
99033SOL    HW298997   6.791   5.136   6.787
99034SOL     OW98998   9.441   5.488   7.183
99034SOL    HW198999   9.371   5.517   7.125
99034SOL    HW299000   9.467   5.403   7.148
99035SOL     OW99001   8.056   6.468   9.444
99035SOL    HW199002   7.994   6.451   9.516
99035SOL    HW299003   8.005   6.453   9.365
99036SOL     OW99004   7.862  13.695   3.957
99036SOL    HW199005   7.870  13.778   4.002
99036SOL    HW299006   7.934  13.642   3.991
99037SOL     OW99007  11.777  10.753   1.127
99037SOL    HW199008  11.721  10.817   1.172
99037SOL    HW299009  11.740  10.747   1.039
99038SOL     OW99010  11.465  13.458   0.187
99038SOL    HW199011  11.518  13.392   0.142
99038SOL    HW299012  11.389  13.470   0.131
99039SOL     OW99013   9.382  14.737  13.485
99039SOL    HW199014   9.305  14.731  13.542
99039SOL    HW299015   9.410  14.828  13.490
99040SOL     OW99016   0.895   4.678  13.070
99040SOL    HW199017   0.978   4.703  13.027
99040SOL    HW299018   0.921   4.614  13.136
99041SOL     OW99019   0.065  12.473   2.464
99041SOL    HW199020   0.144  12.467   2.410
99041SOL    HW299021   0.063  12.391   2.513
99042SOL     OW99022   4.832   6.130   6.076
99042SOL    HW199023   4.824   6.178   5.993
99042SOL    HW299024   4.830   6.038   6.051
99043SOL     OW99025  11.918   0.274   6.804
99043SOL    HW199026  11.888   0.339   6.740
99043SOL    HW299027  11.838   0.246   6.848
99044SOL     OW99028   8.805   9.008   4.407
99044SOL    HW199029   8.874   9.066   4.442
99044SOL    HW299030   8.734   9.068   4.384
99045SOL     OW99031   8.215   0.339   9.827
99045SOL    HW199032   8.295   0.287   9.828
99045SOL    HW299033   8.148   0.281   9.866
99046SOL     OW99034   3.258  13.369   6.299
99046SOL    HW199035   3.302  13.443   6.257
99046SOL    HW299036   3.325  13.331   6.357
99047SOL     OW99037   8.505  11.211   9.680
99047SOL    HW199038   8.417  11.239   9.706
99047SOL    HW299039   8.490  11.148   9.610
99048SOL     OW99040   5.935   1.037   2.823
99048SOL    HW199041   5.849   1.077   2.839
99048SOL    HW299042   5.933   1.011   2.731
99049SOL     OW99043   8.719   2.749   6.913
99049SOL    HW199044   8.655   2.790   6.972
99049SOL    HW299045   8.701   2.655   6.919
99050SOL     OW99046   1.055   4.990  12.825
99050SOL    HW199047   0.983   5.009  12.885
99050SOL    HW299048   1.085   4.903  12.851
99051SOL     OW99049   5.665  13.772  12.383
99051SOL    HW199050   5.656  13.724  12.301
99051SOL    HW299051   5.758  13.763  12.406
99052SOL     OW99052   7.326   1.489   8.290
99052SOL    HW199053   7.376   1.521   8.215
99052SOL    HW299054   7.379   1.418   8.325
99053SOL     OW99055  14.544   2.250   2.088
99053SOL    HW199056  14.582   2.335   2.064
99053SOL    HW299057  14.611   2.186   2.061
99054SOL     OW99058   2.306  10.140  12.168
99054SOL    HW199059   2.316  10.183  12.253
99054SOL    HW299060   2.290  10.048  12.189
99055SOL     OW99061   6.894  13.880   4.555
99055SOL    HW199062   6.807  13.891   4.516
99055SOL    HW299063   6.923  13.794   4.524
99056SOL     OW99064  13.475  11.434  11.845
99056SOL    HW199065  13.397  11.403  11.892
99056SOL    HW299066  13.453  11.424  11.752
99057SOL     OW99067   3.777   5.592   7.958
99057SOL    HW199068   3.841   5.648   7.914
99057SOL    HW299069   3.732   5.650   8.019
99058SOL     OW99070  11.943   4.314   1.456
99058SOL    HW199071  12.000   4.297   1.381
99058SOL    HW299072  11.902   4.399   1.437
99059SOL     OW99073   1.456  11.079   9.530
99059SOL    HW199074   1.446  11.001   9.585
99059SOL    HW299075   1.408  11.058   9.450
99060SOL     OW99076   8.912   5.086   6.651
99060SOL    HW199077   8.976   5.156   6.666
99060SOL    HW299078   8.861   5.117   6.576
99061SOL     OW99079  12.930   6.221   9.055
99061SOL    HW199080  12.835   6.226   9.054
99061SOL    HW299081  12.958   6.269   8.977
99062SOL     OW99082   6.191  11.133   6.612
99062SOL    HW199083   6.154  11.049   6.583
99062SOL    HW299084   6.272  11.109   6.655
99063SOL     OW99085   6.292  11.968   4.832
99063SOL    HW199086   6.289  12.053   4.876
99063SOL    HW299087   6.225  11.974   4.764
99064SOL     OW99088   1.421   6.324  12.034
99064SOL    HW199089   1.452   6.234  12.023
99064SOL    HW299090   1.472   6.358  12.108
99065SOL     OW99091   7.760  12.815  10.593
99065SOL    HW199092   7.738  12.906  10.615
99065SOL    HW299093   7.786  12.776  10.676
99066SOL     OW99094   6.025  10.327  12.457
99066SOL    HW199095   6.072  10.249  12.488
99066SOL    HW299096   6.056  10.339  12.368
99067SOL     OW99097   3.978  11.277  13.034
99067SOL    HW199098   4.070  11.255  13.046
99067SOL    HW299099   3.932  11.193  13.040
99068SOL     OW99100   3.476  14.855   9.617
99068SOL    HW199101   3.408   0.054   9.619
99068SOL    HW299102   3.439  14.783   9.566
99069SOL     OW99103   8.518  13.358  10.897
99069SOL    HW199104   8.488  13.335  10.810
99069SOL    HW299105   8.448  13.412  10.934
99070SOL     OW99106   4.617  11.966   6.796
99070SOL    HW199107   4.690  11.947   6.738
99070SOL    HW299108   4.650  11.949   6.884
99071SOL     OW99109  12.912  10.284  10.426
99071SOL    HW199110  12.967  10.211  10.398
99071SOL    HW299111  12.905  10.273  10.521
99072SOL     OW99112   2.911   9.675  10.567
99072SOL    HW199113   2.984   9.683  10.505
99072SOL    HW299114   2.847   9.620  10.522
99073SOL     OW99115  12.782   0.346   1.032
99073SOL    HW199116  12.729   0.269   1.052
99073SOL    HW299117  12.870   0.311   1.018
99074SOL     OW99118  13.681   4.605   7.742
99074SOL    HW199119  13.673   4.572   7.652
99074SOL    HW299120  13.597   4.648   7.759
99075SOL     OW99121  11.263   2.428   3.538
99075SOL    HW199122  11.339   2.413   3.595
99075SOL    HW299123  11.278   2.369   3.463
99076SOL     OW99124   0.810   9.048  10.098
99076SOL    HW199125   0.851   9.021  10.015
99076SOL    HW299126   0.883   9.083  10.150
99077SOL     OW99127   5.741  11.246   4.133
99077SOL    HW199128   5.664  11.254   4.076
99077SOL    HW299129   5.813  11.226   4.072
99078SOL     OW99130   7.200   7.988   1.253
99078SOL    HW199131   7.281   8.004   1.205
99078SOL    HW299132   7.145   7.940   1.190
99079SOL     OW99133  14.679  10.984  12.294
99079SOL    HW199134  14.760  11.033  12.290
99079SOL    HW299135  14.680  10.929  12.216
99080SOL     OW99136   3.335  10.820   4.685
99080SOL    HW199137   3.396  10.778   4.624
99080SOL    HW299138   3.334  10.762   4.761
99081SOL     OW99139   3.233   2.680   6.532
99081SOL    HW199140   3.180   2.600   6.539
99081SOL    HW299141   3.318   2.649   6.502
99082SOL     OW99142   5.999   9.869  10.446
99082SOL    HW199143   5.996   9.856  10.541
99082SOL    HW299144   6.089   9.849  10.422
99083SOL     OW99145  10.070  12.612  12.109
99083SOL    HW199146  10.024  12.537  12.149
99083SOL    HW299147  10.119  12.573  12.037
99084SOL     OW99148   7.994   7.385   7.811
99084SOL    HW199149   8.080   7.423   7.830
99084SOL    HW299150   7.952   7.378   7.897
99085SOL     OW99151  10.428   5.158   2.736
99085SOL    HW199152  10.351   5.125   2.690
99085SOL    HW299153  10.444   5.244   2.698
99086SOL     OW99154   7.829   7.311   0.279
99086SOL    HW199155   7.753   7.287   0.226
99086SOL    HW299156   7.903   7.305   0.219
99087SOL     OW99157   2.174   2.333  11.782
99087SOL    HW199158   2.204   2.242  11.779
99087SOL    HW299159   2.113   2.341  11.709
99088SOL     OW99160   1.789   1.394  10.062
99088SOL    HW199161   1.789   1.391   9.966
99088SOL    HW299162   1.756   1.482  10.082
99089SOL     OW99163  11.795   5.352  12.756
99089SOL    HW199164  11.772   5.283  12.693
99089SOL    HW299165  11.712   5.372  12.800
99090SOL     OW99166   3.367  12.114  12.001
99090SOL    HW199167   3.455  12.076  11.996
99090SOL    HW299168   3.380  12.206  11.977
99091SOL     OW99169   6.181   8.901   5.388
99091SOL    HW199170   6.193   8.852   5.469
99091SOL    HW299171   6.265   8.946   5.375
99092SOL     OW99172  13.221   0.261  11.419
99092SOL    HW199173  13.311   0.254  11.449
99092SOL    HW299174  13.171   0.207  11.481
99093SOL     OW99175  12.290  12.118   5.335
99093SOL    HW199176  12.294  12.157   5.248
99093SOL    HW299177  12.200  12.133   5.364
99094SOL     OW99178   5.637  14.097   4.541
99094SOL    HW199179   5.629  14.167   4.477
99094SOL    HW299180   5.713  14.046   4.511
99095SOL     OW99181   6.826   5.753   2.458
99095SOL    HW199182   6.898   5.787   2.405
99095SOL    HW299183   6.749   5.756   2.400
99096SOL     OW99184   7.698   0.928   4.902
99096SOL    HW199185   7.714   0.946   4.994
99096SOL    HW299186   7.759   0.857   4.881
99097SOL     OW99187   0.601   5.140   3.130
99097SOL    HW199188   0.618   5.170   3.041
99097SOL    HW299189   0.506   5.146   3.140
99098SOL     OW99190   4.824  10.764   7.879
99098SOL    HW199191   4.743  10.714   7.892
99098SOL    HW299192   4.840  10.759   7.784
99099SOL     OW99193   9.876   0.970  14.664
99099SOL    HW199194   9.916   1.052  14.691
99099SOL    HW299195   9.819   0.994  14.591
99100SOL     OW99196   2.553   8.029  10.517
99100SOL    HW199197   2.538   8.025  10.612
99100SOL    HW299198   2.639   7.988  10.505
99101SOL     OW99199  13.216   2.982  13.644
99101SOL    HW199200  13.195   3.032  13.723
99101SOL    HW299201  13.132   2.951  13.612
99102SOL     OW99202   1.056   8.513   4.189
99102SOL    HW199203   0.966   8.497   4.162
99102SOL    HW299204   1.104   8.435   4.158
99103SOL     OW99205   0.321  10.145  12.810
99103SOL    HW199206   0.278  10.225  12.781
99103SOL    HW299207   0.355  10.167  12.897
99104SOL     OW99208   4.512  10.047   2.005
99104SOL    HW199209   4.506  10.041   2.100
99104SOL    HW299210   4.430  10.008   1.973
99105SOL     OW99211   2.171   8.494   1.267
99105SOL    HW199212   2.227   8.504   1.345
99105SOL    HW299213   2.211   8.423   1.218
99106SOL     OW99214   1.077   4.329  11.930
99106SOL    HW199215   1.130   4.402  11.963
99106SOL    HW299216   1.127   4.297  11.855
99107SOL     OW99217  12.118   4.899   0.206
99107SOL    HW199218  12.035   4.898   0.253
99107SOL    HW299219  12.102   4.847   0.128
99108SOL     OW99220   0.664   1.018   2.112
99108SOL    HW199221   0.686   1.070   2.035
99108SOL    HW299222   0.702   1.066   2.186
99109SOL     OW99223   5.345   6.604  11.191
99109SOL    HW199224   5.340   6.539  11.261
99109SOL    HW299225   5.297   6.564  11.118
99110SOL     OW99226   9.492   6.897   8.992
99110SOL    HW199227   9.415   6.939   8.953
99110SOL    HW299228   9.527   6.843   8.922
99111SOL     OW99229  13.606   6.871  10.938
99111SOL    HW199230  13.661   6.942  10.904
99111SOL    HW299231  13.566   6.833  10.860
99112SOL     OW99232   3.647  14.072  13.104
99112SOL    HW199233   3.619  14.159  13.077
99112SOL    HW299234   3.725  14.054  13.053
99113SOL     OW99235   7.012   1.643   8.600
99113SOL    HW199236   6.991   1.552   8.579
99113SOL    HW299237   7.057   1.676   8.522
99114SOL     OW99238  14.386   6.139   7.208
99114SOL    HW199239  14.324   6.066   7.215
99114SOL    HW299240  14.453   6.120   7.274
99115SOL     OW99241  10.185   6.966  10.655
99115SOL    HW199242  10.162   7.055  10.629
99115SOL    HW299243  10.265   6.947  10.606
99116SOL     OW99244  10.131   3.452   0.231
99116SOL    HW199245  10.217   3.479   0.198
99116SOL    HW299246  10.135   3.469   0.325
99117SOL     OW99247   7.123  12.024  12.904
99117SOL    HW199248   7.074  12.000  12.826
99117SOL    HW299249   7.214  12.002  12.884
99118SOL     OW99250   9.079   7.498  13.367
99118SOL    HW199251   9.140   7.435  13.405
99118SOL    HW299252   9.075   7.475  13.274
99119SOL     OW99253  11.614  11.115   8.376
99119SOL    HW199254  11.539  11.170   8.355
99119SOL    HW299255  11.690  11.168   8.349
99120SOL     OW99256   6.498   8.669   5.325
99120SOL    HW199257   6.497   8.655   5.419
99120SOL    HW299258   6.496   8.581   5.287
99121SOL     OW99259  12.024   8.152   0.001
99121SOL    HW199260  12.119   8.155   0.007
99121SOL    HW299261  12.006   8.115  14.782
99122SOL     OW99262   3.540  10.216   9.168
99122SOL    HW199263   3.566  10.308   9.179
99122SOL    HW299264   3.588  10.186   9.092
99123SOL     OW99265  11.608   4.023   0.587
99123SOL    HW199266  11.561   3.956   0.637
99123SOL    HW299267  11.673   3.974   0.536
99124SOL     OW99268   0.012   6.627   3.983
99124SOL    HW199269  14.841   6.575   3.913
99124SOL    HW299270   0.106   6.613   3.974
99125SOL     OW99271  14.063  14.547  10.561
99125SOL    HW199272  13.984  14.586  10.599
99125SOL    HW299273  14.127  14.619  10.562
99126SOL     OW99274  11.690   8.878   5.103
99126SOL    HW199275  11.638   8.944   5.056
99126SOL    HW299276  11.705   8.917   5.189
99127SOL     OW99277  11.768  10.807  10.414
99127SOL    HW199278  11.842  10.797  10.354
99127SOL    HW299279  11.783  10.891  10.457
99128SOL     OW99280   3.993   3.933  13.757
99128SOL    HW199281   3.999   3.843  13.724
99128SOL    HW299282   4.079   3.971  13.741
99129SOL     OW99283  14.484   9.232   2.374
99129SOL    HW199284  14.541   9.179   2.429
99129SOL    HW299285  14.467   9.311   2.426
99130SOL     OW99286   8.255   4.494   1.825
99130SOL    HW199287   8.180   4.480   1.768
99130SOL    HW299288   8.325   4.525   1.767
99131SOL     OW99289   0.046   4.241   1.492
99131SOL    HW199290   0.087   4.155   1.485
99131SOL    HW299291   0.054   4.265   1.584
99132SOL     OW99292   9.633   2.371   7.005
99132SOL    HW199293   9.630   2.279   6.979
99132SOL    HW299294   9.724   2.386   7.030
99133SOL     OW99295   2.111   2.466   4.766
99133SOL    HW199296   2.085   2.441   4.854
99133SOL    HW299297   2.202   2.437   4.759
99134SOL     OW99298   2.416   1.721   6.281
99134SOL    HW199299   2.337   1.696   6.232
99134SOL    HW299300   2.407   1.677   6.365
99135SOL     OW99301   8.285   2.884  11.024
99135SOL    HW199302   8.304   2.939  11.100
99135SOL    HW299303   8.263   2.799  11.061
99136SOL     OW99304   0.500  10.555   2.938
99136SOL    HW199305   0.433  10.572   3.004
99136SOL    HW299306   0.452  10.537   2.857
99137SOL     OW99307  12.067   8.272   9.787
99137SOL    HW199308  12.156   8.268   9.752
99137SOL    HW299309  12.069   8.343   9.851
99138SOL     OW99310   5.718   0.789  13.740
99138SOL    HW199311   5.683   0.784  13.651
99138SOL    HW299312   5.652   0.839  13.788
99139SOL     OW99313   5.014   1.148   4.909
99139SOL    HW199314   5.027   1.140   4.814
99139SOL    HW299315   5.020   1.242   4.926
99140SOL     OW99316   3.270   7.618   2.883
99140SOL    HW199317   3.282   7.691   2.944
99140SOL    HW299318   3.316   7.545   2.923
99141SOL     OW99319   6.763   8.271   8.881
99141SOL    HW199320   6.723   8.210   8.819
99141SOL    HW299321   6.845   8.229   8.907
99142SOL     OW99322  12.133  13.667   8.930
99142SOL    HW199323  12.226  13.643   8.924
99142SOL    HW299324  12.100  13.656   8.841
99143SOL     OW99325  13.791   3.489   9.987
99143SOL    HW199326  13.794   3.402   9.948
99143SOL    HW299327  13.871   3.495  10.039
99144SOL     OW99328  12.647   0.432  14.016
99144SOL    HW199329  12.742   0.426  14.026
99144SOL    HW299330  12.618   0.475  14.096
99145SOL     OW99331   9.778   7.768   6.803
99145SOL    HW199332   9.792   7.700   6.869
99145SOL    HW299333   9.865   7.804   6.787
99146SOL     OW99334   4.282  12.083   4.425
99146SOL    HW199335   4.362  12.102   4.375
99146SOL    HW299336   4.212  12.128   4.379
99147SOL     OW99337   2.040   7.076   6.082
99147SOL    HW199338   2.039   7.136   6.008
99147SOL    HW299339   1.969   7.106   6.138
99148SOL     OW99340  11.767  12.445  12.288
99148SOL    HW199341  11.828  12.444  12.215
99148SOL    HW299342  11.799  12.514  12.346
99149SOL     OW99343  14.000   9.716   6.320
99149SOL    HW199344  13.930   9.693   6.381
99149SOL    HW299345  14.010   9.638   6.265
99150SOL     OW99346   5.069   4.616  12.336
99150SOL    HW199347   5.134   4.686  12.339
99150SOL    HW299348   5.076   4.573  12.421
99151SOL     OW99349   7.546   2.764   2.411
99151SOL    HW199350   7.455   2.735   2.414
99151SOL    HW299351   7.566   2.771   2.318
99152SOL     OW99352   6.679   1.813  12.501
99152SOL    HW199353   6.623   1.816  12.423
99152SOL    HW299354   6.719   1.726  12.498
99153SOL     OW99355   4.947   7.922   3.873
99153SOL    HW199356   4.923   8.013   3.888
99153SOL    HW299357   5.029   7.911   3.921
99154SOL     OW99358   1.142   7.355   5.494
99154SOL    HW199359   1.135   7.279   5.551
99154SOL    HW299360   1.102   7.327   5.412
99155SOL     OW99361  11.967   5.050   8.938
99155SOL    HW199362  11.888   5.063   8.886
99155SOL    HW299363  12.008   4.972   8.900
99156SOL     OW99364   6.909   8.037   7.949
99156SOL    HW199365   6.989   7.986   7.967
99156SOL    HW299366   6.941   8.120   7.914
99157SOL     OW99367  12.061  14.529   6.444
99157SOL    HW199368  12.113  14.541   6.524
99157SOL    HW299369  12.118  14.477   6.386
99158SOL     OW99370   3.952   6.852   1.756
99158SOL    HW199371   3.925   6.921   1.696
99158SOL    HW299372   3.916   6.772   1.718
99159SOL     OW99373   2.173   7.424  11.784
99159SOL    HW199374   2.246   7.486  11.789
99159SOL    HW299375   2.104   7.471  11.737
99160SOL     OW99376   7.527   3.662   8.702
99160SOL    HW199377   7.506   3.712   8.782
99160SOL    HW299378   7.622   3.671   8.693
99161SOL     OW99379  11.576   0.611   0.001
99161SOL    HW199380  11.522   0.671  14.816
99161SOL    HW299381  11.594   0.660   0.081
99162SOL     OW99382   9.824   6.924   4.262
99162SOL    HW199383   9.896   6.968   4.216
99162SOL    HW299384   9.830   6.957   4.352
99163SOL     OW99385   9.237   3.815   4.807
99163SOL    HW199386   9.277   3.891   4.764
99163SOL    HW299387   9.210   3.758   4.735
99164SOL     OW99388   2.970   1.385   2.073
99164SOL    HW199389   2.995   1.450   2.007
99164SOL    HW299390   3.004   1.420   2.155
99165SOL     OW99391  12.335  12.118  11.897
99165SOL    HW199392  12.406  12.095  11.957
99165SOL    HW299393  12.350  12.062  11.821
99166SOL     OW99394   2.293   8.855  12.333
99166SOL    HW199395   2.209   8.810  12.339
99166SOL    HW299396   2.319   8.869  12.424
99167SOL     OW99397   5.032   4.929   5.136
99167SOL    HW199398   5.062   5.016   5.108
99167SOL    HW299399   5.113   4.878   5.147
99168SOL     OW99400   2.055   2.410  13.711
99168SOL    HW199401   2.021   2.469  13.644
99168SOL    HW299402   2.124   2.461  13.754
99169SOL     OW99403   8.782   2.526   7.641
99169SOL    HW199404   8.711   2.481   7.686
99169SOL    HW299405   8.777   2.495   7.551
99170SOL     OW99406  13.597   1.855  12.455
99170SOL    HW199407  13.563   1.915  12.522
99170SOL    HW299408  13.691   1.851  12.472
99171SOL     OW99409  13.580  10.292   0.339
99171SOL    HW199410  13.521  10.362   0.312
99171SOL    HW299411  13.554  10.272   0.429
99172SOL     OW99412  14.800  12.017  12.598
99172SOL    HW199413  14.806  11.924  12.574
99172SOL    HW299414  14.714  12.044  12.568
99173SOL     OW99415  12.057  12.148   0.164
99173SOL    HW199416  12.059  12.239   0.195
99173SOL    HW299417  11.974  12.113   0.198
99174SOL     OW99418   4.639  12.762   7.456
99174SOL    HW199419   4.630  12.795   7.545
99174SOL    HW299420   4.606  12.672   7.460
99175SOL     OW99421  14.172   9.397  10.322
99175SOL    HW199422  14.177   9.414  10.416
99175SOL    HW299423  14.084   9.425  10.297
99176SOL     OW99424   4.673  14.016   5.588
99176SOL    HW199425   4.578  14.027   5.597
99176SOL    HW299426   4.685  13.989   5.497
99177SOL     OW99427  13.100  10.764  14.340
99177SOL    HW199428  13.100  10.852  14.378
99177SOL    HW299429  13.124  10.778  14.248
99178SOL     OW99430  12.434   0.727  13.551
99178SOL    HW199431  12.490   0.659  13.513
99178SOL    HW299432  12.487   0.764  13.622
99179SOL     OW99433  12.848   9.482   1.044
99179SOL    HW199434  12.890   9.485   1.130
99179SOL    HW299435  12.795   9.562   1.041
99180SOL     OW99436   2.548  10.927   0.254
99180SOL    HW199437   2.465  10.973   0.244
99180SOL    HW299438   2.552  10.868   0.178
99181SOL     OW99439  10.577   8.978  12.158
99181SOL    HW199440  10.487   8.959  12.133
99181SOL    HW299441  10.570   9.040  12.230
99182SOL     OW99442   6.918  10.894   7.713
99182SOL    HW199443   6.896  10.912   7.622
99182SOL    HW299444   7.003  10.938   7.726
99183SOL     OW99445   1.901   5.919   8.251
99183SOL    HW199446   1.976   5.893   8.198
99183SOL    HW299447   1.871   6.001   8.211
99184SOL     OW99448   7.038  13.885   1.939
99184SOL    HW199449   7.102  13.901   1.870
99184SOL    HW299450   7.058  13.949   2.007
99185SOL     OW99451   7.637   7.034  11.912
99185SOL    HW199452   7.614   7.035  11.818
99185SOL    HW299453   7.719   6.986  11.916
99186SOL     OW99454   3.181   8.842   9.309
99186SOL    HW199455   3.223   8.831   9.394
99186SOL    HW299456   3.158   8.753   9.282
99187SOL     OW99457   4.926   4.360   6.095
99187SOL    HW199458   5.009   4.339   6.053
99187SOL    HW299459   4.948   4.376   6.186
99188SOL     OW99460   7.973   5.053   3.480
99188SOL    HW199461   7.881   5.077   3.493
99188SOL    HW299462   7.978   4.962   3.510
99189SOL     OW99463   3.845  14.142  10.239
99189SOL    HW199464   3.807  14.054  10.235
99189SOL    HW299465   3.823  14.181  10.154
99190SOL     OW99466  10.600   8.534   0.516
99190SOL    HW199467  10.604   8.625   0.545
99190SOL    HW299468  10.598   8.483   0.596
99191SOL     OW99469   7.168   9.974  11.330
99191SOL    HW199470   7.222   9.978  11.408
99191SOL    HW299471   7.092  10.029  11.350
99192SOL     OW99472  11.020   0.108   5.818
99192SOL    HW199473  10.952   0.119   5.884
99192SOL    HW299474  10.990   0.034   5.765
99193SOL     OW99475   9.581  13.268   8.963
99193SOL    HW199476   9.614  13.200   8.905
99193SOL    HW299477   9.659  13.310   9.000
99194SOL     OW99478  11.160   5.833   6.989
99194SOL    HW199479  11.094   5.901   6.979
99194SOL    HW299480  11.125   5.775   7.056
99195SOL     OW99481   0.812   8.521  11.172
99195SOL    HW199482   0.835   8.561  11.088
99195SOL    HW299483   0.730   8.473  11.155
99196SOL     OW99484   3.931   7.954   0.771
99196SOL    HW199485   3.926   7.912   0.857
99196SOL    HW299486   3.997   8.022   0.781
99197SOL     OW99487  14.518   6.264  11.866
99197SOL    HW199488  14.556   6.178  11.882
99197SOL    HW299489  14.513   6.305  11.952
99198SOL     OW99490   6.375   1.051  12.287
99198SOL    HW199491   6.381   0.995  12.210
99198SOL    HW299492   6.351   0.992  12.358
99199SOL     OW99493  11.509   5.139   5.276
99199SOL    HW199494  11.497   5.230   5.248
99199SOL    HW299495  11.599   5.135   5.307
99200SOL     OW99496   6.734   1.232  11.648
99200SOL    HW199497   6.741   1.218  11.743
99200SOL    HW299498   6.670   1.303  11.639
99201SOL     OW99499   5.613  12.685   7.426
99201SOL    HW199500   5.605  12.732   7.343
99201SOL    HW299501   5.656  12.747   7.484
99202SOL     OW99502   7.157  14.208  10.799
99202SOL    HW199503   7.207  14.259  10.863
99202SOL    HW299504   7.122  14.273  10.738
99203SOL     OW99505   5.376  13.897  13.244
99203SOL    HW199506   5.429  13.862  13.316
99203SOL    HW299507   5.352  13.985  13.273
99204SOL     OW99508  13.539   4.208   2.929
99204SOL    HW199509  13.454   4.193   2.887
99204SOL    HW299510  13.585   4.267   2.869
99205SOL     OW99511  12.399  13.308   5.231
99205SOL    HW199512  12.485  13.267   5.222
99205SOL    HW299513  12.348  13.246   5.283
99206SOL     OW99514   2.035   0.126  10.765
99206SOL    HW199515   1.989   0.042  10.774
99206SOL    HW299516   1.973   0.190  10.800
99207SOL     OW99517   2.254   0.383   2.697
99207SOL    HW199518   2.348   0.370   2.686
99207SOL    HW299519   2.221   0.298   2.725
99208SOL     OW99520  14.513  12.581   1.359
99208SOL    HW199521  14.425  12.555   1.331
99208SOL    HW299522  14.571  12.543   1.293
99209SOL     OW99523   0.149  11.623   6.847
99209SOL    HW199524   0.090  11.633   6.922
99209SOL    HW299525   0.183  11.534   6.854
99210SOL     OW99526   9.983   3.330   4.142
99210SOL    HW199527  10.022   3.242   4.144
99210SOL    HW299528   9.906   3.320   4.087
99211SOL     OW99529   0.096   1.134   2.874
99211SOL    HW199530   0.046   1.144   2.793
99211SOL    HW299531   0.031   1.118   2.941
99212SOL     OW99532   9.764  11.769  11.308
99212SOL    HW199533   9.672  11.760  11.281
99212SOL    HW299534   9.765  11.745  11.400
99213SOL     OW99535   4.059   0.525   1.887
99213SOL    HW199536   4.153   0.542   1.900
99213SOL    HW299537   4.037   0.574   1.807
99214SOL     OW99538  13.846  12.534   7.955
99214SOL    HW199539  13.885  12.523   8.042
99214SOL    HW299540  13.883  12.463   7.903
99215SOL     OW99541   8.532   2.932   3.210
99215SOL    HW199542   8.551   3.021   3.180
99215SOL    HW299543   8.437   2.928   3.214
99216SOL     OW99544  11.132   0.131   5.358
99216SOL    HW199545  11.160   0.044   5.388
99216SOL    HW299546  11.199   0.191   5.391
99217SOL     OW99547   3.939   7.434   8.730
99217SOL    HW199548   3.868   7.496   8.711
99217SOL    HW299549   4.010   7.489   8.763
99218SOL     OW99550   3.912   8.608  13.807
99218SOL    HW199551   3.863   8.562  13.739
99218SOL    HW299552   3.912   8.699  13.779
99219SOL     OW99553  14.249   6.857   5.407
99219SOL    HW199554  14.315   6.925   5.419
99219SOL    HW299555  14.295   6.775   5.428
99220SOL     OW99556   8.111   4.385  13.844
99220SOL    HW199557   8.137   4.405  13.934
99220SOL    HW299558   8.103   4.471  13.802
99221SOL     OW99559   9.403   4.972   4.317
99221SOL    HW199560   9.314   4.937   4.310
99221SOL    HW299561   9.392   5.065   4.334
99222SOL     OW99562   2.227   3.367  11.458
99222SOL    HW199563   2.237   3.430  11.529
99222SOL    HW299564   2.194   3.288  11.500
99223SOL     OW99565  13.761   6.047  10.993
99223SOL    HW199566  13.828   6.068  10.929
99223SOL    HW299567  13.782   6.102  11.069
99224SOL     OW99568   7.523  10.356   0.528
99224SOL    HW199569   7.607  10.396   0.551
99224SOL    HW299570   7.470  10.364   0.608
99225SOL     OW99571  10.997  10.389   5.364
99225SOL    HW199572  10.986  10.355   5.452
99225SOL    HW299573  11.092  10.401   5.355
99226SOL     OW99574  14.311   9.537  14.624
99226SOL    HW199575  14.324   9.603  14.692
99226SOL    HW299576  14.366   9.464  14.649
99227SOL     OW99577   6.020  10.527  10.140
99227SOL    HW199578   5.979  10.447  10.106
99227SOL    HW299579   6.040  10.507  10.231
99228SOL     OW99580   3.597   3.006  14.625
99228SOL    HW199581   3.549   2.925  14.640
99228SOL    HW299582   3.677   2.978  14.580
99229SOL     OW99583   8.125   6.708  12.585
99229SOL    HW199584   8.202   6.659  12.613
99229SOL    HW299585   8.138   6.720  12.490
99230SOL     OW99586   7.934   1.956   3.912
99230SOL    HW199587   7.889   1.975   3.994
99230SOL    HW299588   7.864   1.926   3.853
99231SOL     OW99589   7.683  10.535  12.894
99231SOL    HW199590   7.681  10.612  12.950
99231SOL    HW299591   7.767  10.540  12.849
99232SOL     OW99592   2.473  14.118   3.411
99232SOL    HW199593   2.555  14.100   3.457
99232SOL    HW299594   2.492  14.196   3.359
99233SOL     OW99595   6.863  13.537   3.863
99233SOL    HW199596   6.903  13.512   3.946
99233SOL    HW299597   6.825  13.624   3.879
99234SOL     OW99598  10.577  12.422   3.991
99234SOL    HW199599  10.518  12.460   3.926
99234SOL    HW299600  10.639  12.493   4.011
99235SOL     OW99601  11.066   0.850  13.124
99235SOL    HW199602  11.145   0.797  13.127
99235SOL    HW299603  11.097   0.940  13.116
99236SOL     OW99604   5.247  13.648  14.194
99236SOL    HW199605   5.267  13.652  14.100
99236SOL    HW299606   5.221  13.557  14.209
99237SOL     OW99607   3.681  12.305  14.602
99237SOL    HW199608   3.718  12.390  14.577
99237SOL    HW299609   3.675  12.309  14.698
99238SOL     OW99610   2.200   2.169   7.495
99238SOL    HW199611   2.133   2.132   7.552
99238SOL    HW299612   2.281   2.126   7.524
99239SOL     OW99613  13.990   2.702   6.632
99239SOL    HW199614  13.960   2.641   6.699
99239SOL    HW299615  14.068   2.660   6.595
99240SOL     OW99616   2.870  14.249  14.212
99240SOL    HW199617   2.838  14.337  14.232
99240SOL    HW299618   2.855  14.238  14.118
99241SOL     OW99619  12.068   1.996  11.412
99241SOL    HW199620  12.138   2.033  11.465
99241SOL    HW299621  12.060   2.054  11.337
99242SOL     OW99622   8.060  13.375   0.832
99242SOL    HW199623   8.096  13.294   0.868
99242SOL    HW299624   7.968  13.356   0.817
99243SOL     OW99625  12.991  12.900   0.512
99243SOL    HW199626  13.011  12.831   0.575
99243SOL    HW299627  12.948  12.854   0.440
99244SOL     OW99628   1.781   5.400  10.272
99244SOL    HW199629   1.715   5.437  10.330
99244SOL    HW299630   1.859   5.454  10.287
99245SOL     OW99631   1.177   8.045   2.428
99245SOL    HW199632   1.102   8.101   2.448
99245SOL    HW299633   1.253   8.092   2.463
99246SOL     OW99634   0.475   5.600  14.716
99246SOL    HW199635   0.393   5.559  14.689
99246SOL    HW299636   0.492   5.667  14.650
99247SOL     OW99637  12.032   2.875  13.992
99247SOL    HW199638  11.963   2.815  14.020
99247SOL    HW299639  11.992   2.962  13.997
99248SOL     OW99640  12.414   7.285   7.138
99248SOL    HW199641  12.493   7.284   7.086
99248SOL    HW299642  12.344   7.307   7.077
99249SOL     OW99643   4.651   4.239   0.273
99249SOL    HW199644   4.572   4.246   0.326
99249SOL    HW299645   4.651   4.148   0.242
99250SOL     OW99646  12.550  11.459   9.674
99250SOL    HW199647  12.607  11.523   9.633
99250SOL    HW299648  12.468  11.506   9.691
99251SOL     OW99649   2.542   4.786   7.992
99251SOL    HW199650   2.512   4.764   8.080
99251SOL    HW299651   2.499   4.869   7.972
99252SOL     OW99652  13.372  11.388  13.504
99252SOL    HW199653  13.311  11.461  13.494
99252SOL    HW299654  13.445  11.411  13.446
99253SOL     OW99655   4.980   1.566   7.630
99253SOL    HW199656   4.997   1.588   7.721
99253SOL    HW299657   4.942   1.645   7.592
99254SOL     OW99658   8.204   0.562   0.318
99254SOL    HW199659   8.244   0.555   0.232
99254SOL    HW299660   8.169   0.474   0.335
99255SOL     OW99661   4.131   2.747   2.489
99255SOL    HW199662   4.206   2.800   2.515
99255SOL    HW299663   4.086   2.727   2.571
99256SOL     OW99664   9.582   2.404  13.810
99256SOL    HW199665   9.536   2.362  13.738
99256SOL    HW299666   9.513   2.428  13.872
99257SOL     OW99667   1.224  14.271   4.827
99257SOL    HW199668   1.210  14.338   4.894
99257SOL    HW299669   1.194  14.189   4.868
99258SOL     OW99670  13.472   5.040  11.791
99258SOL    HW199671  13.453   5.052  11.884
99258SOL    HW299672  13.388   5.015  11.752
99259SOL     OW99673   4.981   6.349  14.434
99259SOL    HW199674   4.958   6.371  14.343
99259SOL    HW299675   4.928   6.409  14.487
99260SOL     OW99676  10.635  13.536  12.703
99260SOL    HW199677  10.724  13.570  12.696
99260SOL    HW299678  10.586  13.581  12.634
99261SOL     OW99679   9.161   0.083   0.497
99261SOL    HW199680   9.192   0.090   0.406
99261SOL    HW299681   9.168  14.858   0.517
99262SOL     OW99682  11.579  13.792   2.232
99262SOL    HW199683  11.564  13.744   2.313
99262SOL    HW299684  11.545  13.735   2.164
99263SOL     OW99685  14.371  14.821   9.150
99263SOL    HW199686  14.377  14.740   9.201
99263SOL    HW299687  14.461  14.836   9.120
99264SOL     OW99688   6.047   9.195   7.305
99264SOL    HW199689   6.106   9.269   7.317
99264SOL    HW299690   6.056   9.143   7.384
99265SOL     OW99691  11.859   1.477  14.102
99265SOL    HW199692  11.901   1.444  14.181
99265SOL    HW299693  11.765   1.476  14.123
99266SOL     OW99694   5.007   2.989  10.133
99266SOL    HW199695   5.005   3.082  10.157
99266SOL    HW299696   4.949   2.947  10.197
99267SOL     OW99697   8.333  13.770   1.363
99267SOL    HW199698   8.301  13.811   1.283
99267SOL    HW299699   8.428  13.766   1.352
99268SOL     OW99700   2.041   3.241   8.905
99268SOL    HW199701   2.121   3.201   8.872
99268SOL    HW299702   2.050   3.334   8.884
99269SOL     OW99703   5.483   2.544   1.965
99269SOL    HW199704   5.520   2.464   2.000
99269SOL    HW299705   5.414   2.515   1.905
99270SOL     OW99706   4.365   4.856  11.424
99270SOL    HW199707   4.381   4.763  11.439
99270SOL    HW299708   4.363   4.864  11.329
99271SOL     OW99709  14.551   5.053  10.545
99271SOL    HW199710  14.557   4.961  10.571
99271SOL    HW299711  14.465   5.081  10.574
99272SOL     OW99712   4.852  14.313   0.568
99272SOL    HW199713   4.810  14.313   0.655
99272SOL    HW299714   4.926  14.373   0.577
99273SOL     OW99715   3.868   5.908   9.584
99273SOL    HW199716   3.822   5.972   9.529
99273SOL    HW299717   3.798   5.866   9.634
99274SOL     OW99718   6.704  14.397   8.069
99274SOL    HW199719   6.732  14.437   8.151
99274SOL    HW299720   6.616  14.362   8.088
99275SOL     OW99721  13.279  10.770   5.152
99275SOL    HW199722  13.248  10.860   5.141
99275SOL    HW299723  13.287  10.759   5.247
99276SOL     OW99724  11.213   7.504   9.604
99276SOL    HW199725  11.180   7.415   9.613
99276SOL    HW299726  11.134   7.558   9.599
99277SOL     OW99727   6.731   0.225   8.995
99277SOL    HW199728   6.800   0.160   9.005
99277SOL    HW299729   6.653   0.182   9.031
99278SOL     OW99730   6.936  12.909  13.969
99278SOL    HW199731   7.007  12.892  13.907
99278SOL    HW299732   6.908  12.998  13.950
99279SOL     OW99733   6.600  13.747   8.327
99279SOL    HW199734   6.596  13.652   8.332
99279SOL    HW299735   6.668  13.772   8.390
99280SOL     OW99736  12.185  12.190   9.503
99280SOL    HW199737  12.117  12.247   9.467
99280SOL    HW299738  12.267  12.228   9.472
99281SOL     OW99739   7.746   0.783   9.738
99281SOL    HW199740   7.777   0.809   9.650
99281SOL    HW299741   7.680   0.716   9.721
99282SOL     OW99742   4.204   1.487  11.351
99282SOL    HW199743   4.149   1.482  11.273
99282SOL    HW299744   4.249   1.571  11.343
99283SOL     OW99745   4.499   6.178  12.633
99283SOL    HW199746   4.475   6.227  12.712
99283SOL    HW299747   4.533   6.095  12.666
99284SOL     OW99748  12.324  14.279  12.474
99284SOL    HW199749  12.403  14.256  12.523
99284SOL    HW299750  12.344  14.255  12.384
99285SOL     OW99751   8.480   9.405   9.914
99285SOL    HW199752   8.560   9.458   9.911
99285SOL    HW299753   8.437   9.432   9.994
99286SOL     OW99754  11.378   0.368   2.584
99286SOL    HW199755  11.287   0.385   2.559
99286SOL    HW299756  11.425   0.447   2.558
99287SOL     OW99757   3.961   4.764  10.621
99287SOL    HW199758   4.053   4.771  10.647
99287SOL    HW299759   3.917   4.728  10.699
99288SOL     OW99760  11.143  14.009  11.207
99288SOL    HW199761  11.160  13.927  11.252
99288SOL    HW299762  11.139  14.074  11.277
99289SOL     OW99763   2.828   7.312   8.135
99289SOL    HW199764   2.844   7.226   8.097
99289SOL    HW299765   2.903   7.365   8.110
99290SOL     OW99766   0.576  12.229   7.283
99290SOL    HW199767   0.668  12.201   7.287
99290SOL    HW299768   0.526  12.148   7.285
99291SOL     OW99769   7.490   2.649  13.039
99291SOL    HW199770   7.440   2.687  13.111
99291SOL    HW299771   7.572   2.620  13.079
99292SOL     OW99772   1.872   0.434   3.815
99292SOL    HW199773   1.930   0.438   3.739
99292SOL    HW299774   1.833   0.347   3.811
99293SOL     OW99775   0.715   5.830   8.651
99293SOL    HW199776   0.697   5.886   8.575
99293SOL    HW299777   0.668   5.871   8.723
99294SOL     OW99778  13.770   5.033   6.704
99294SOL    HW199779  13.684   5.046   6.667
99294SOL    HW299780  13.791   4.941   6.686
99295SOL     OW99781  14.781  13.305   1.931
99295SOL    HW199782  14.793  13.367   1.860
99295SOL    HW299783  14.745  13.227   1.890
99296SOL     OW99784  14.296  13.247   3.170
99296SOL    HW199785  14.325  13.268   3.259
99296SOL    HW299786  14.211  13.206   3.182
99297SOL     OW99787   6.125   9.626  10.168
99297SOL    HW199788   6.047   9.587  10.127
99297SOL    HW299789   6.196   9.567  10.145
99298SOL     OW99790   4.559   0.658  11.506
99298SOL    HW199791   4.496   0.691  11.571
99298SOL    HW299792   4.643   0.666  11.550
99299SOL     OW99793   1.149  11.783   2.909
99299SOL    HW199794   1.219  11.766   2.973
99299SOL    HW299795   1.193  11.826   2.836
99300SOL     OW99796  13.805  13.030   1.500
99300SOL    HW199797  13.879  13.058   1.553
99300SOL    HW299798  13.728  13.064   1.546
99301SOL     OW99799   7.032   4.274  13.461
99301SOL    HW199800   7.091   4.322  13.520
99301SOL    HW299801   6.952   4.325  13.461
99302SOL     OW99802  13.540  10.078   8.067
99302SOL    HW199803  13.495  10.067   7.983
99302SOL    HW299804  13.592   9.998   8.076
99303SOL     OW99805  11.599  14.546   4.207
99303SOL    HW199806  11.687  14.555   4.242
99303SOL    HW299807  11.544  14.600   4.264
99304SOL     OW99808  11.085  14.061   4.360
99304SOL    HW199809  11.009  14.113   4.333
99304SOL    HW299810  11.143  14.062   4.284
99305SOL     OW99811   4.382   1.758  12.484
99305SOL    HW199812   4.380   1.733  12.577
99305SOL    HW299813   4.421   1.846  12.484
99306SOL     OW99814  12.349   5.269   8.762
99306SOL    HW199815  12.344   5.342   8.824
99306SOL    HW299816  12.287   5.293   8.693
99307SOL     OW99817  10.849   2.646   4.073
99307SOL    HW199818  10.933   2.690   4.086
99307SOL    HW299819  10.784   2.715   4.085
99308SOL     OW99820   1.069   8.884   5.348
99308SOL    HW199821   1.081   8.909   5.257
99308SOL    HW299822   0.980   8.913   5.370
99309SOL     OW99823  11.169  12.334  13.512
99309SOL    HW199824  11.160  12.276  13.437
99309SOL    HW299825  11.207  12.414  13.476
99310SOL     OW99826   9.937   3.129   6.770
99310SOL    HW199827   9.887   3.048   6.764
99310SOL    HW299828  10.028   3.100   6.783
99311SOL     OW99829   9.740   5.240   0.226
99311SOL    HW199830   9.723   5.307   0.291
99311SOL    HW299831   9.736   5.157   0.274
99312SOL     OW99832  13.798   6.016   5.623
99312SOL    HW199833  13.727   6.035   5.562
99312SOL    HW299834  13.770   5.938   5.669
99313SOL     OW99835   2.448  14.187   7.306
99313SOL    HW199836   2.442  14.110   7.249
99313SOL    HW299837   2.533  14.225   7.286
99314SOL     OW99838  13.661  11.255   8.094
99314SOL    HW199839  13.590  11.310   8.125
99314SOL    HW299840  13.709  11.310   8.032
99315SOL     OW99841   6.467  12.740   9.668
99315SOL    HW199842   6.377  12.726   9.698
99315SOL    HW299843   6.475  12.683   9.591
99316SOL     OW99844   3.621  10.404   2.910
99316SOL    HW199845   3.590  10.471   2.849
99316SOL    HW299846   3.598  10.437   2.997
99317SOL     OW99847   2.052   5.917   7.409
99317SOL    HW199848   2.041   5.891   7.318
99317SOL    HW299849   2.146   5.929   7.419
99318SOL     OW99850   7.681   4.806  11.412
99318SOL    HW199851   7.621   4.879  11.403
99318SOL    HW299852   7.633   4.742  11.464
99319SOL     OW99853  12.257   4.469  14.590
99319SOL    HW199854  12.302   4.553  14.580
99319SOL    HW299855  12.218   4.472  14.677
99320SOL     OW99856   7.561   6.014   8.682
99320SOL    HW199857   7.549   6.096   8.730
99320SOL    HW299858   7.473   5.975   8.678
99321SOL     OW99859  12.808   5.540   1.636
99321SOL    HW199860  12.717   5.512   1.648
99321SOL    HW299861  12.829   5.586   1.717
99322SOL     OW99862  12.270   5.537   6.776
99322SOL    HW199863  12.322   5.572   6.704
99322SOL    HW299864  12.317   5.564   6.855
99323SOL     OW99865  11.372   6.417   7.310
99323SOL    HW199866  11.426   6.354   7.358
99323SOL    HW299867  11.395   6.502   7.348
99324SOL     OW99868  10.145   0.330  13.433
99324SOL    HW199869  10.223   0.277  13.448
99324SOL    HW299870  10.119   0.361  13.520
99325SOL     OW99871   1.645   6.029   5.632
99325SOL    HW199872   1.579   6.075   5.580
99325SOL    HW299873   1.608   6.028   5.720
99326SOL     OW99874  11.972   5.859  12.971
99326SOL    HW199875  11.926   5.815  12.900
99326SOL    HW299876  12.026   5.924  12.928
99327SOL     OW99877   2.324   4.127  13.842
99327SOL    HW199878   2.341   4.156  13.931
99327SOL    HW299879   2.379   4.050  13.830
99328SOL     OW99880   9.399  14.501   9.323
99328SOL    HW199881   9.475  14.536   9.274
99328SOL    HW299882   9.428  14.415   9.354
99329SOL     OW99883   2.704   2.268  14.225
99329SOL    HW199884   2.799   2.264  14.211
99329SOL    HW299885   2.688   2.357  14.257
99330SOL     OW99886   4.695  12.582   2.303
99330SOL    HW199887   4.657  12.573   2.391
99330SOL    HW299888   4.641  12.648   2.260
99331SOL     OW99889   8.089  14.332  12.653
99331SOL    HW199890   8.151  14.259  12.659
99331SOL    HW299891   8.144  14.410  12.660
99332SOL     OW99892  12.302   2.102   7.422
99332SOL    HW199893  12.262   2.026   7.381
99332SOL    HW299894  12.279   2.095   7.515
99333SOL     OW99895   7.174  13.241   4.016
99333SOL    HW199896   7.131  13.325   4.030
99333SOL    HW299897   7.251  13.244   4.073
99334SOL     OW99898   6.905   6.768   7.046
99334SOL    HW199899   6.944   6.748   6.960
99334SOL    HW299900   6.846   6.841   7.028
99335SOL     OW99901   0.401   5.301   0.571
99335SOL    HW199902   0.317   5.256   0.563
99335SOL    HW299903   0.464   5.230   0.584
99336SOL     OW99904   5.824  13.436   9.636
99336SOL    HW199905   5.852  13.427   9.545
99336SOL    HW299906   5.899  13.406   9.687
99337SOL     OW99907   5.978   9.256   1.447
99337SOL    HW199908   6.037   9.199   1.495
99337SOL    HW299909   5.982   9.340   1.493
99338SOL     OW99910  14.631   0.826   9.155
99338SOL    HW199911  14.622   0.845   9.062
99338SOL    HW299912  14.703   0.762   9.159
99339SOL     OW99913   3.308   7.200   4.772
99339SOL    HW199914   3.357   7.145   4.832
99339SOL    HW299915   3.278   7.274   4.825
99340SOL     OW99916  10.690   1.367   3.582
99340SOL    HW199917  10.760   1.426   3.609
99340SOL    HW299918  10.631   1.420   3.529
99341SOL     OW99919   7.845   6.851  11.832
99341SOL    HW199920   7.824   6.770  11.880
99341SOL    HW299921   7.861   6.822  11.742
99342SOL     OW99922   2.605  12.511  13.746
99342SOL    HW199923   2.539  12.488  13.812
99342SOL    HW299924   2.597  12.442  13.680
99343SOL     OW99925   5.871   2.751   1.604
99343SOL    HW199926   5.804   2.793   1.549
99343SOL    HW299927   5.821   2.689   1.658
99344SOL     OW99928   5.012   0.263  12.709
99344SOL    HW199929   4.927   0.259  12.666
99344SOL    HW299930   5.008   0.196  12.777
99345SOL     OW99931   3.084  11.320   8.226
99345SOL    HW199932   3.106  11.310   8.133
99345SOL    HW299933   3.095  11.233   8.263
99346SOL     OW99934   0.887   2.863  12.522
99346SOL    HW199935   0.957   2.810  12.485
99346SOL    HW299936   0.932   2.935  12.567
99347SOL     OW99937   7.744  14.391   1.924
99347SOL    HW199938   7.726  14.465   1.867
99347SOL    HW299939   7.714  14.315   1.875
99348SOL     OW99940  14.598   5.681  12.917
99348SOL    HW199941  14.678   5.704  12.964
99348SOL    HW299942  14.577   5.759  12.864
99349SOL     OW99943  10.796   1.300   3.284
99349SOL    HW199944  10.818   1.393   3.279
99349SOL    HW299945  10.724   1.289   3.221
99350SOL     OW99946   4.199   6.636   6.367
99350SOL    HW199947   4.134   6.572   6.338
99350SOL    HW299948   4.164   6.720   6.337
99351SOL     OW99949  11.535   9.797  14.154
99351SOL    HW199950  11.611   9.854  14.151
99351SOL    HW299951  11.536   9.749  14.071
99352SOL     OW99952  13.238   9.484   3.081
99352SOL    HW199953  13.217   9.456   3.170
99352SOL    HW299954  13.244   9.402   3.032
99353SOL     OW99955   5.431   2.848   3.890
99353SOL    HW199956   5.475   2.881   3.969
99353SOL    HW299957   5.397   2.763   3.915
99354SOL     OW99958   8.294   6.485   7.806
99354SOL    HW199959   8.218   6.528   7.844
99354SOL    HW299960   8.258   6.415   7.752
99355SOL     OW99961   4.162   5.031   0.945
99355SOL    HW199962   4.115   5.111   0.969
99355SOL    HW299963   4.105   4.988   0.882
99356SOL     OW99964   2.065   4.129  12.079
99356SOL    HW199965   2.036   4.123  11.988
99356SOL    HW299966   2.015   4.061  12.124
99357SOL     OW99967   9.997   4.536   0.387
99357SOL    HW199968  10.047   4.599   0.334
99357SOL    HW299969  10.064   4.479   0.425
99358SOL     OW99970   2.653   0.071   9.319
99358SOL    HW199971   2.682   0.111   9.236
99358SOL    HW299972   2.673  14.846   9.308
99359SOL     OW99973   3.603   5.737   1.297
99359SOL    HW199974   3.693   5.772   1.299
99359SOL    HW299975   3.567   5.760   1.382
99360SOL     OW99976   0.293   2.008   9.727
99360SOL    HW199977   0.314   1.936   9.786
99360SOL    HW299978   0.200   2.026   9.743
99361SOL     OW99979  11.439   0.562   6.544
99361SOL    HW199980  11.423   0.648   6.583
99361SOL    HW299981  11.354   0.520   6.543
99362SOL     OW99982  14.051   9.797  10.851
99362SOL    HW199983  13.993   9.727  10.819
99362SOL    HW299984  14.139   9.770  10.823
99363SOL     OW99985  11.073   1.893   9.168
99363SOL    HW199986  11.031   1.863   9.087
99363SOL    HW299987  11.055   1.986   9.172
99364SOL     OW99988   1.230   0.384   6.726
99364SOL    HW199989   1.303   0.331   6.695
99364SOL    HW299990   1.201   0.341   6.806
99365SOL     OW99991   1.080  12.961  10.247
99365SOL    HW199992   1.053  13.028  10.184
99365SOL    HW299993   1.143  12.907  10.198
99366SOL     OW99994   4.558   3.299   0.260
99366SOL    HW199995   4.652   3.283   0.253
99366SOL    HW299996   4.539   3.364   0.192
99367SOL     OW99997  10.051   9.477   1.028
99367SOL    HW199998  10.113   9.547   1.007
99367SOL    HW299999   9.974   9.522   1.062
99368SOL     OW    0  14.063   2.295   0.774
99368SOL    HW1    1  14.086   2.300   0.867
99368SOL    HW2    2  14.138   2.332   0.728
99369SOL     OW    3   1.913   9.470   3.616
99369SOL    HW1    4   1.970   9.393   3.611
99369SOL    HW2    5   1.973   9.544   3.623
99370SOL     OW    6   7.135   1.070   6.224
99370SOL    HW1    7   7.101   1.002   6.167
99370SOL    HW2    8   7.162   1.024   6.304
99371SOL     OW    9  13.510   3.658   6.581
99371SOL    HW1   10  13.533   3.598   6.511
99371SOL    HW2   11  13.428   3.698   6.553
99372SOL     OW   12  14.452   6.551   5.009
99372SOL    HW1   13  14.393   6.589   4.944
99372SOL    HW2   14  14.394   6.513   5.075
99373SOL     OW   15   6.223   4.894   5.066
99373SOL    HW1   16   6.134   4.898   5.029
99373SOL    HW2   17   6.279   4.931   4.998
99374SOL     OW   18   1.082   9.952  11.620
99374SOL    HW1   19   1.170   9.954  11.583
99374SOL    HW2   20   1.033   9.892  11.563
99375SOL     OW   21   2.214   0.930   5.990
99375SOL    HW1   22   2.223   1.013   6.036
99375SOL    HW2   23   2.303   0.897   5.982
99376SOL     OW   24  12.496  12.968   1.993
99376SOL    HW1   25  12.534  12.895   2.043
99376SOL    HW2   26  12.420  12.930   1.950
99377SOL     OW   27  14.243   5.060  10.873
99377SOL    HW1   28  14.320   5.021  10.916
99377SOL    HW2   29  14.171   5.042  10.933
99378SOL     OW   30  11.206  13.740   7.580
99378SOL    HW1   31  11.216  13.735   7.485
99378SOL    HW2   32  11.261  13.813   7.607
99379SOL     OW   33   8.815   8.444   8.329
99379SOL    HW1   34   8.885   8.391   8.367
99379SOL    HW2   35   8.737   8.421   8.381
99380SOL     OW   36   2.272  10.535   1.834
99380SOL    HW1   37   2.221  10.482   1.896
99380SOL    HW2   38   2.360  10.497   1.838
99381SOL     OW   39   9.309   7.704   0.486
99381SOL    HW1   40   9.387   7.736   0.440
99381SOL    HW2   41   9.278   7.631   0.433
99382SOL     OW   42   1.904   6.918   3.823
99382SOL    HW1   43   2.000   6.925   3.820
99382SOL    HW2   44   1.876   7.001   3.860
99383SOL     OW   45  11.274   3.276   1.943
99383SOL    HW1   46  11.243   3.303   1.856
99383SOL    HW2   47  11.194   3.266   1.994
99384SOL     OW   48   3.063   4.734  12.613
99384SOL    HW1   49   3.044   4.643  12.587
99384SOL    HW2   50   2.986   4.783  12.585
99385SOL     OW   51  12.714   2.948  13.996
99385SOL    HW1   52  12.622   2.952  14.022
99385SOL    HW2   53  12.731   3.032  13.953
99386SOL     OW   54   8.226   5.933   4.707
99386SOL    HW1   55   8.151   5.934   4.767
99386SOL    HW2   56   8.275   6.012   4.728
99387SOL     OW   57  14.432  14.499  14.064
99387SOL    HW1   58  14.348  14.516  14.108
99387SOL    HW2   59  14.435  14.563  13.993
99388SOL     OW   60   5.286   8.767   3.908
99388SOL    HW1   61   5.331   8.684   3.896
99388SOL    HW2   62   5.309   8.795   3.996
99389SOL     OW   63  13.040   9.164   7.659
99389SOL    HW1   64  13.134   9.184   7.662
99389SOL    HW2   65  12.998   9.248   7.638
99390SOL     OW   66   0.524  12.701   9.236
99390SOL    HW1   67   0.470  12.758   9.181
99390SOL    HW2   68   0.539  12.752   9.315
99391SOL     OW   69   5.937   9.962  13.217
99391SOL    HW1   70   5.957  10.013  13.295
99391SOL    HW2   71   5.925  10.027  13.148
99392SOL     OW   72   9.652   4.215   3.164
99392SOL    HW1   73   9.735   4.214   3.118
99392SOL    HW2   74   9.586   4.201   3.096
99393SOL     OW   75  10.688   4.564   3.394
99393SOL    HW1   76  10.687   4.485   3.340
99393SOL    HW2   77  10.596   4.586   3.405
99394SOL     OW   78  10.800   9.454   9.763
99394SOL    HW1   79  10.707   9.430   9.767
99394SOL    HW2   80  10.821   9.483   9.851
99395SOL     OW   81  12.433   8.365   6.852
99395SOL    HW1   82  12.528   8.366   6.860
99395SOL    HW2   83  12.402   8.392   6.939
99396SOL     OW   84   4.492   2.517  12.417
99396SOL    HW1   85   4.557   2.571  12.461
99396SOL    HW2   86   4.480   2.559  12.331
99397SOL     OW   87   5.694   6.940   9.695
99397SOL    HW1   88   5.613   6.905   9.657
99397SOL    HW2   89   5.760   6.928   9.627
99398SOL     OW   90   1.249  10.298   4.602
99398SOL    HW1   91   1.243  10.243   4.681
99398SOL    HW2   92   1.318  10.360   4.621
99399SOL     OW   93  11.688  12.122  11.266
99399SOL    HW1   94  11.616  12.153  11.211
99399SOL    HW2   95  11.760  12.181  11.247
99400SOL     OW   96   9.071   1.195   7.307
99400SOL    HW1   97   9.135   1.266   7.309
99400SOL    HW2   98   8.995   1.233   7.263
99401SOL     OW   99  13.247   2.915   1.544
99401SOL    HW1  100  13.171   2.874   1.584
99401SOL    HW2  101  13.252   3.002   1.585
99402SOL     OW  102   8.393   3.154   1.434
99402SOL    HW1  103   8.327   3.093   1.403
99402SOL    HW2  104   8.452   3.166   1.360
99403SOL     OW  105   8.386   9.480   8.989
99403SOL    HW1  106   8.417   9.430   9.064
99403SOL    HW2  107   8.431   9.564   8.995
99404SOL     OW  108  11.362   7.870   0.824
99404SOL    HW1  109  11.341   7.779   0.840
99404SOL    HW2  110  11.438   7.867   0.765
99405SOL     OW  111   4.782   6.595  10.052
99405SOL    HW1  112   4.824   6.516  10.017
99405SOL    HW2  113   4.715   6.617   9.987
99406SOL     OW  114   3.221   5.399   7.788
99406SOL    HW1  115   3.152   5.417   7.724
99406SOL    HW2  116   3.254   5.486   7.813
99407SOL     OW  117  13.232  12.710   4.973
99407SOL    HW1  118  13.319  12.736   5.004
99407SOL    HW2  119  13.228  12.615   4.989
99408SOL     OW  120   8.912   1.650   9.658
99408SOL    HW1  121   8.938   1.562   9.685
99408SOL    HW2  122   8.830   1.637   9.610
99409SOL     OW  123  12.948   5.374  11.227
99409SOL    HW1  124  12.988   5.412  11.149
99409SOL    HW2  125  12.982   5.285  11.230
99410SOL     OW  126   1.984   4.211   1.993
99410SOL    HW1  127   1.925   4.249   2.058
99410SOL    HW2  128   2.066   4.259   2.004
99411SOL     OW  129   9.279   8.529  12.514
99411SOL    HW1  130   9.339   8.582  12.461
99411SOL    HW2  131   9.218   8.493  12.450
99412SOL     OW  132  14.268   9.501  11.831
99412SOL    HW1  133  14.204   9.432  11.848
99412SOL    HW2  134  14.296   9.530  11.917
99413SOL     OW  135  10.535   9.513   3.869
99413SOL    HW1  136  10.611   9.538   3.921
99413SOL    HW2  137  10.571   9.489   3.784
99414SOL     OW  138  13.980  12.484   8.198
99414SOL    HW1  139  14.071  12.482   8.168
99414SOL    HW2  140  13.966  12.398   8.238
99415SOL     OW  141  14.232   2.448  11.994
99415SOL    HW1  142  14.271   2.440  11.907
99415SOL    HW2  143  14.306   2.456  12.053
99416SOL     OW  144  12.895   5.098   6.484
99416SOL    HW1  145  12.915   5.044   6.408
99416SOL    HW2  146  12.815   5.060   6.520
99417SOL     OW  147   8.483   4.007   1.387
99417SOL    HW1  148   8.466   4.088   1.435
99417SOL    HW2  149   8.396   3.968   1.374
99418SOL     OW  150   5.578  10.868   6.038
99418SOL    HW1  151   5.576  10.802   6.108
99418SOL    HW2  152   5.639  10.831   5.973
99419SOL     OW  153  11.854   6.590   1.601
99419SOL    HW1  154  11.806   6.532   1.543
99419SOL    HW2  155  11.898   6.652   1.542
99420SOL     OW  156  14.519  12.628   6.696
99420SOL    HW1  157  14.450  12.689   6.669
99420SOL    HW2  158  14.474  12.544   6.706
99421SOL     OW  159   1.543  14.819  10.826
99421SOL    HW1  160   1.542  14.827  10.921
99421SOL    HW2  161   1.579   0.034  10.795
99422SOL     OW  162   6.579  13.687   8.825
99422SOL    HW1  163   6.549  13.704   8.914
99422SOL    HW2  164   6.537  13.755   8.772
99423SOL     OW  165  10.856   2.964   4.078
99423SOL    HW1  166  10.781   2.968   4.018
99423SOL    HW2  167  10.928   3.004   4.029
99424SOL     OW  168   6.033   4.661   3.790
99424SOL    HW1  169   6.108   4.661   3.849
99424SOL    HW2  170   5.977   4.732   3.821
99425SOL     OW  171   8.290   1.202   2.133
99425SOL    HW1  172   8.294   1.112   2.101
99425SOL    HW2  173   8.372   1.215   2.181
99426SOL     OW  174  13.305   5.450  12.863
99426SOL    HW1  175  13.351   5.378  12.821
99426SOL    HW2  176  13.288   5.419  12.952
99427SOL     OW  177  13.175   9.197  13.258
99427SOL    HW1  178  13.260   9.153  13.256
99427SOL    HW2  179  13.174   9.244  13.341
99428SOL     OW  180   8.738   2.496  13.518
99428SOL    HW1  181   8.726   2.518  13.426
99428SOL    HW2  182   8.691   2.564  13.566
99429SOL     OW  183  10.737  11.848  12.384
99429SOL    HW1  184  10.647  11.877  12.366
99429SOL    HW2  185  10.787  11.879  12.309
99430SOL     OW  186   8.054   3.545  12.883
99430SOL    HW1  187   8.055   3.557  12.978
99430SOL    HW2  188   8.088   3.628  12.849
99431SOL     OW  189   9.260  14.864   4.662
99431SOL    HW1  190   9.240   0.003   4.569
99431SOL    HW2  191   9.350   0.026   4.670
99432SOL     OW  192   8.346   6.544   4.886
99432SOL    HW1  193   8.405   6.511   4.818
99432SOL    HW2  194   8.399   6.541   4.966
99433SOL     OW  195   8.534   8.454   8.638
99433SOL    HW1  196   8.523   8.534   8.587
99433SOL    HW2  197   8.627   8.435   8.634
99434SOL     OW  198  12.529  10.616  10.600
99434SOL    HW1  199  12.593  10.646  10.664
99434SOL    HW2  200  12.503  10.528  10.630
99435SOL     OW  201  10.565  13.998   9.051
99435SOL    HW1  202  10.541  13.908   9.071
99435SOL    HW2  203  10.488  14.035   9.008
99436SOL     OW  204  13.161   6.577   8.458
99436SOL    HW1  205  13.163   6.548   8.366
99436SOL    HW2  206  13.069   6.569   8.483
99437SOL     OW  207   7.319  13.563   4.944
99437SOL    HW1  208   7.230  13.574   4.977
99437SOL    HW2  209   7.361  13.647   4.960
99438SOL     OW  210   7.610   1.649  10.649
99438SOL    HW1  211   7.696   1.671  10.612
99438SOL    HW2  212   7.591   1.561  10.616
99439SOL     OW  213   6.171   4.123  13.630
99439SOL    HW1  214   6.237   4.175  13.584
99439SOL    HW2  215   6.093   4.129  13.575
99440SOL     OW  216   8.726   4.498  12.626
99440SOL    HW1  217   8.749   4.508  12.718
99440SOL    HW2  218   8.778   4.423  12.597
99441SOL     OW  219  13.168   9.259  12.961
99441SOL    HW1  220  13.168   9.234  13.054
99441SOL    HW2  221  13.077   9.255  12.935
99442SOL     OW  222  12.789   1.577   3.276
99442SOL    HW1  223  12.719   1.584   3.212
99442SOL    HW2  224  12.754   1.618   3.355
99443SOL     OW  225  12.840   6.365   8.254
99443SOL    HW1  226  12.755   6.322   8.249
99443SOL    HW2  227  12.900   6.296   8.283
99444SOL     OW  228   7.747  13.823   2.995
99444SOL    HW1  229   7.778  13.758   3.058
99444SOL    HW2  230   7.722  13.772   2.918
99445SOL     OW  231   0.002   4.222   1.911
99445SOL    HW1  232  14.791   4.254   1.867
99445SOL    HW2  233  14.852   4.235   2.004
99446SOL     OW  234   1.072   2.566  10.463
99446SOL    HW1  235   1.122   2.545  10.541
99446SOL    HW2  236   1.117   2.519  10.392
99447SOL     OW  237   3.608  12.784   1.760
99447SOL    HW1  238   3.601  12.749   1.671
99447SOL    HW2  239   3.542  12.736   1.810
99448SOL     OW  240   9.056  11.639  13.132
99448SOL    HW1  241   9.134  11.681  13.097
99448SOL    HW2  242   9.089  11.574  13.194
99449SOL     OW  243   2.873   5.773   9.267
99449SOL    HW1  244   2.900   5.860   9.296
99449SOL    HW2  245   2.812   5.789   9.195
99450SOL     OW  246   6.383  14.850  10.996
99450SOL    HW1  247   6.460  14.841  10.940
99450SOL    HW2  248   6.376  14.766  11.042
99451SOL     OW  249   2.905   9.084   3.201
99451SOL    HW1  250   2.928   8.998   3.235
99451SOL    HW2  251   2.960   9.095   3.123
99452SOL     OW  252   1.972   2.106  10.998
99452SOL    HW1  253   2.007   2.111  10.909
99452SOL    HW2  254   1.987   2.015  11.024
99453SOL     OW  255  10.925   1.266   4.146
99453SOL    HW1  256  11.017   1.261   4.171
99453SOL    HW2  257  10.910   1.188   4.093
99454SOL     OW  258  10.354  14.079   8.908
99454SOL    HW1  259  10.354  14.154   8.849
99454SOL    HW2  260  10.280  14.025   8.879
99455SOL     OW  261   2.797  14.622  13.168
99455SOL    HW1  262   2.878  14.601  13.120
99455SOL    HW2  263   2.825  14.631  13.259
99456SOL     OW  264   9.964   9.030  10.207
99456SOL    HW1  265  10.006   8.967  10.149
99456SOL    HW2  266   9.888   9.061  10.158
99457SOL     OW  267  11.665   1.054   8.872
99457SOL    HW1  268  11.702   1.014   8.950
99457SOL    HW2  269  11.610   1.125   8.905
99458SOL     OW  270  13.947   7.522   2.281
99458SOL    HW1  271  13.903   7.442   2.309
99458SOL    HW2  272  13.973   7.505   2.191
99459SOL     OW  273   8.316   3.006   4.460
99459SOL    HW1  274   8.373   3.049   4.523
99459SOL    HW2  275   8.238   3.061   4.457
99460SOL     OW  276   8.204  13.952   4.503
99460SOL    HW1  277   8.171  13.998   4.426
99460SOL    HW2  278   8.236  14.022   4.561
99461SOL     OW  279  13.522   7.572  14.818
99461SOL    HW1  280  13.543   7.578  14.725
99461SOL    HW2  281  13.493   7.659  14.843
99462SOL     OW  282   9.887   6.456  11.237
99462SOL    HW1  283   9.792   6.455  11.232
99462SOL    HW2  284   9.916   6.449  11.146
99463SOL     OW  285   1.329   6.060   6.842
99463SOL    HW1  286   1.337   6.155   6.831
99463SOL    HW2  287   1.282   6.050   6.925
99464SOL     OW  288   6.402   7.194   9.782
99464SOL    HW1  289   6.387   7.219   9.873
99464SOL    HW2  290   6.397   7.276   9.733
99465SOL     OW  291   2.118   7.454   0.670
99465SOL    HW1  292   2.030   7.478   0.699
99465SOL    HW2  293   2.174   7.525   0.702
99466SOL     OW  294  10.585  10.028  11.167
99466SOL    HW1  295  10.637  10.034  11.087
99466SOL    HW2  296  10.498  10.059  11.141
99467SOL     OW  297   9.505   8.974   8.167
99467SOL    HW1  298   9.451   9.029   8.110
99467SOL    HW2  299   9.583   9.027   8.184
99468SOL     OW  300   1.614   9.064   5.030
99468SOL    HW1  301   1.652   9.033   4.948
99468SOL    HW2  302   1.577   9.150   5.008
99469SOL     OW  303   9.463  13.192   1.518
99469SOL    HW1  304   9.539  13.216   1.464
99469SOL    HW2  305   9.501  13.159   1.599
99470SOL     OW  306   2.625  13.461  11.939
99470SOL    HW1  307   2.544  13.459  11.887
99470SOL    HW2  308   2.596  13.474  12.029
99471SOL     OW  309   5.119  13.958   8.883
99471SOL    HW1  310   5.084  13.928   8.966
99471SOL    HW2  311   5.043  13.990   8.834
99472SOL     OW  312   0.433   9.554   4.390
99472SOL    HW1  313   0.491   9.524   4.319
99472SOL    HW2  314   0.479   9.629   4.427
99473SOL     OW  315   5.481  14.777   7.434
99473SOL    HW1  316   5.425  14.703   7.457
99473SOL    HW2  317   5.542  14.743   7.370
99474SOL     OW  318   8.620   5.052   9.587
99474SOL    HW1  319   8.709   5.082   9.571
99474SOL    HW2  320   8.573   5.130   9.615
99475SOL     OW  321   8.585   8.218   5.611
99475SOL    HW1  322   8.628   8.206   5.696
99475SOL    HW2  323   8.568   8.312   5.606
99476SOL     OW  324  11.248   6.691  12.600
99476SOL    HW1  325  11.243   6.787  12.602
99476SOL    HW2  326  11.328   6.672  12.552
99477SOL     OW  327   5.148   3.235  12.787
99477SOL    HW1  328   5.182   3.227  12.875
99477SOL    HW2  329   5.166   3.326  12.762
99478SOL     OW  330   6.901   7.455   5.419
99478SOL    HW1  331   6.855   7.519   5.366
99478SOL    HW2  332   6.963   7.507   5.471
99479SOL     OW  333  14.691   5.247   2.005
99479SOL    HW1  334  14.769   5.278   2.053
99479SOL    HW2  335  14.617   5.284   2.054
99480SOL     OW  336  13.816   9.787   1.175
99480SOL    HW1  337  13.764   9.731   1.231
99480SOL    HW2  338  13.905   9.753   1.183
99481SOL     OW  339   4.137  14.780  11.158
99481SOL    HW1  340   4.088  14.783  11.240
99481SOL    HW2  341   4.190  14.860  11.159
99482SOL     OW  342  14.248   1.390  13.475
99482SOL    HW1  343  14.188   1.388  13.401
99482SOL    HW2  344  14.324   1.339  13.445
99483SOL     OW  345  13.470   5.585   1.472
99483SOL    HW1  346  13.532   5.642   1.518
99483SOL    HW2  347  13.514   5.500   1.468
99484SOL     OW  348   9.808   7.391  11.323
99484SOL    HW1  349   9.768   7.375  11.237
99484SOL    HW2  350   9.815   7.305  11.363
99485SOL     OW  351   8.212   7.827  14.284
99485SOL    HW1  352   8.244   7.904  14.237
99485SOL    HW2  353   8.187   7.860  14.370
99486SOL     OW  354  11.561   8.550   8.304
99486SOL    HW1  355  11.552   8.467   8.257
99486SOL    HW2  356  11.479   8.596   8.287
99487SOL     OW  357   3.337   8.465   3.930
99487SOL    HW1  358   3.255   8.416   3.938
99487SOL    HW2  359   3.405   8.398   3.928
99488SOL     OW  360   2.969  13.646   2.396
99488SOL    HW1  361   3.013  13.611   2.318
99488SOL    HW2  362   2.910  13.576   2.423
99489SOL     OW  363  10.353  12.309   2.031
99489SOL    HW1  364  10.295  12.348   1.965
99489SOL    HW2  365  10.331  12.354   2.112
99490SOL     OW  366   4.032  10.240  13.445
99490SOL    HW1  367   3.973  10.313  13.427
99490SOL    HW2  368   4.098  10.276  13.504
99491SOL     OW  369   8.847   6.914  10.061
99491SOL    HW1  370   8.872   6.841  10.118
99491SOL    HW2  371   8.882   6.890   9.975
99492SOL     OW  372  11.169   3.192  11.585
99492SOL    HW1  373  11.148   3.182  11.492
99492SOL    HW2  374  11.223   3.271  11.589
99493SOL     OW  375   7.125   9.409   0.549
99493SOL    HW1  376   7.079   9.417   0.465
99493SOL    HW2  377   7.076   9.342   0.597
99494SOL     OW  378   4.050   2.294   8.968
99494SOL    HW1  379   4.083   2.232   9.032
99494SOL    HW2  380   3.955   2.287   8.975
99495SOL     OW  381   2.994   6.142   1.654
99495SOL    HW1  382   3.073   6.102   1.618
99495SOL    HW2  383   3.027   6.208   1.716
99496SOL     OW  384   3.938  12.696   6.086
99496SOL    HW1  385   3.938  12.627   6.152
99496SOL    HW2  386   3.911  12.652   6.005
99497SOL     OW  387   1.245   8.899   7.236
99497SOL    HW1  388   1.252   8.960   7.163
99497SOL    HW2  389   1.152   8.900   7.258
99498SOL     OW  390   9.956  10.813  10.356
99498SOL    HW1  391   9.969  10.776  10.443
99498SOL    HW2  392  10.034  10.790  10.307
99499SOL     OW  393   3.446  13.172   8.482
99499SOL    HW1  394   3.532  13.212   8.493
99499SOL    HW2  395   3.462  13.098   8.422
99500SOL     OW  396   3.563   5.956   3.439
99500SOL    HW1  397   3.620   5.879   3.441
99500SOL    HW2  398   3.503   5.944   3.513
99501SOL     OW  399   7.606  12.082   1.215
99501SOL    HW1  400   7.541  12.089   1.285
99501SOL    HW2  401   7.634  12.172   1.199
99502SOL     OW  402   5.037  13.345  14.791
99502SOL    HW1  403   4.986  13.395  14.854
99502SOL    HW2  404   5.126  13.345  14.826
99503SOL     OW  405   5.236   5.206   3.180
99503SOL    HW1  406   5.149   5.167   3.177
99503SOL    HW2  407   5.222   5.294   3.214
99504SOL     OW  408  10.218   0.942  11.907
99504SOL    HW1  409  10.130   0.903  11.912
99504SOL    HW2  410  10.205   1.033  11.930
99505SOL     OW  411   5.766  10.648  10.669
99505SOL    HW1  412   5.705  10.634  10.741
99505SOL    HW2  413   5.718  10.701  10.606
99506SOL     OW  414  10.209  10.106  12.402
99506SOL    HW1  415  10.169  10.056  12.472
99506SOL    HW2  416  10.275  10.160  12.446
99507SOL     OW  417   3.352   2.175   0.749
99507SOL    HW1  418   3.371   2.129   0.667
99507SOL    HW2  419   3.434   2.170   0.799
99508SOL     OW  420   8.261   6.143  10.064
99508SOL    HW1  421   8.271   6.236  10.045
99508SOL    HW2  422   8.171   6.134  10.093
99509SOL     OW  423   0.127   6.892   2.612
99509SOL    HW1  424   0.068   6.816   2.607
99509SOL    HW2  425   0.194   6.866   2.676
99510SOL     OW  426   7.550  12.979  13.110
99510SOL    HW1  427   7.645  12.983  13.100
99510SOL    HW2  428   7.519  13.066  13.084
99511SOL     OW  429   7.926   5.440   1.857
99511SOL    HW1  430   7.863   5.429   1.928
99511SOL    HW2  431   7.873   5.437   1.778
99512SOL     OW  432   2.265   1.970   6.084
99512SOL    HW1  433   2.349   1.935   6.055
99512SOL    HW2  434   2.224   1.897   6.130
99513SOL     OW  435   8.575   4.195   2.896
99513SOL    HW1  436   8.662   4.210   2.933
99513SOL    HW2  437   8.580   4.232   2.808
99514SOL     OW  438   1.240  10.376   3.081
99514SOL    HW1  439   1.300  10.373   3.006
99514SOL    HW2  440   1.295  10.357   3.157
99515SOL     OW  441   8.331   5.819   4.368
99515SOL    HW1  442   8.406   5.869   4.400
99515SOL    HW2  443   8.292   5.781   4.447
99516SOL     OW  444  12.367  13.660   0.675
99516SOL    HW1  445  12.377  13.688   0.585
99516SOL    HW2  446  12.436  13.596   0.689
99517SOL     OW  447   5.597   9.077  11.986
99517SOL    HW1  448   5.673   9.063  12.043
99517SOL    HW2  449   5.571   8.988  11.960
99518SOL     OW  450   3.261   4.777  11.421
99518SOL    HW1  451   3.331   4.816  11.474
99518SOL    HW2  452   3.270   4.683  11.434
99519SOL     OW  453  12.606   3.742   9.190
99519SOL    HW1  454  12.594   3.752   9.285
99519SOL    HW2  455  12.523   3.773   9.152
99520SOL     OW  456   3.638   7.243   0.061
99520SOL    HW1  457   3.546   7.263   0.077
99520SOL    HW2  458   3.642   7.226  14.835
99521SOL     OW  459   6.288  14.585  11.087
99521SOL    HW1  460   6.262  14.527  11.158
99521SOL    HW2  461   6.299  14.527  11.012
99522SOL     OW  462  14.169  14.402   8.016
99522SOL    HW1  463  14.075  14.399   7.996
99522SOL    HW2  464  14.175  14.366   8.105
99523SOL     OW  465  14.567  10.792   2.785
99523SOL    HW1  466  14.565  10.884   2.756
99523SOL    HW2  467  14.597  10.744   2.708
99524SOL     OW  468  14.177  12.001   2.248
99524SOL    HW1  469  14.166  12.022   2.155
99524SOL    HW2  470  14.270  12.014   2.265
99525SOL     OW  471   7.877  10.534   8.422
99525SOL    HW1  472   7.919  10.525   8.337
99525SOL    HW2  473   7.894  10.450   8.466
99526SOL     OW  474  13.370   9.096  14.666
99526SOL    HW1  475  13.449   9.124  14.620
99526SOL    HW2  476  13.400   9.072  14.753
99527SOL     OW  477  13.733   7.196  12.237
99527SOL    HW1  478  13.767   7.151  12.313
99527SOL    HW2  479  13.806   7.249  12.205
99528SOL     OW  480   1.377   2.892  11.530
99528SOL    HW1  481   1.333   2.915  11.448
99528SOL    HW2  482   1.466   2.871  11.504
99529SOL     OW  483   4.891   8.946   2.319
99529SOL    HW1  484   4.880   8.914   2.229
99529SOL    HW2  485   4.973   8.906   2.349
99530SOL     OW  486  14.265  12.729   9.232
99530SOL    HW1  487  14.174  12.739   9.261
99530SOL    HW2  488  14.277  12.798   9.167
99531SOL     OW  489  12.805   8.619   5.877
99531SOL    HW1  490  12.813   8.714   5.871
99531SOL    HW2  491  12.880   8.586   5.826
99532SOL     OW  492   9.466   2.951   7.103
99532SOL    HW1  493   9.511   2.904   7.173
99532SOL    HW2  494   9.416   2.884   7.057
99533SOL     OW  495  12.174   5.954   6.019
99533SOL    HW1  496  12.089   5.952   6.062
99533SOL    HW2  497  12.175   6.036   5.970
99534SOL     OW  498  13.468   2.843  13.605
99534SOL    HW1  499  13.384   2.890  13.602
99534SOL    HW2  500  13.451   2.765  13.658
99535SOL     OW  501  13.045   1.168   6.565
99535SOL    HW1  502  13.088   1.095   6.519
99535SOL    HW2  503  12.961   1.177   6.521
99536SOL     OW  504   1.440  11.475   5.307
99536SOL    HW1  505   1.437  11.482   5.402
99536SOL    HW2  506   1.466  11.563   5.278
99537SOL     OW  507  14.699   3.600   9.201
99537SOL    HW1  508  14.618   3.568   9.161
99537SOL    HW2  509  14.704   3.692   9.175
99538SOL     OW  510   6.144  14.302   2.293
99538SOL    HW1  511   6.212  14.293   2.361
99538SOL    HW2  512   6.188  14.279   2.212
99539SOL     OW  513   5.981   2.491   0.006
99539SOL    HW1  514   5.987   2.554  14.802
99539SOL    HW2  515   6.047   2.425  14.853
99540SOL     OW  516   7.907  11.473  14.512
99540SOL    HW1  517   7.955  11.542  14.466
99540SOL    HW2  518   7.834  11.519  14.554
99541SOL     OW  519   7.941  11.215   9.221
99541SOL    HW1  520   7.860  11.227   9.269
99541SOL    HW2  521   7.989  11.297   9.232
99542SOL     OW  522   6.628   4.919   5.661
99542SOL    HW1  523   6.711   4.962   5.640
99542SOL    HW2  524   6.574   4.988   5.699
99543SOL     OW  525   1.114   2.232  10.114
99543SOL    HW1  526   1.049   2.214  10.181
99543SOL    HW2  527   1.067   2.222  10.031
99544SOL     OW  528   7.651  12.539   8.917
99544SOL    HW1  529   7.668  12.616   8.971
99544SOL    HW2  530   7.612  12.475   8.977
99545SOL     OW  531   2.754   8.315   4.553
99545SOL    HW1  532   2.815   8.242   4.542
99545SOL    HW2  533   2.732   8.341   4.463
99546SOL     OW  534   5.910   2.224  10.341
99546SOL    HW1  535   5.994   2.249  10.303
99546SOL    HW2  536   5.932   2.168  10.415
99547SOL     OW  537   2.723   4.612  10.869
99547SOL    HW1  538   2.669   4.539  10.838
99547SOL    HW2  539   2.664   4.664  10.923
99548SOL     OW  540  11.013  12.890  13.696
99548SOL    HW1  541  11.086  12.872  13.755
99548SOL    HW2  542  10.940  12.840  13.732
99549SOL     OW  543  13.718   6.482   2.452
99549SOL    HW1  544  13.760   6.513   2.371
99549SOL    HW2  545  13.782   6.423   2.490
99550SOL     OW  546   4.267   1.162   1.120
99550SOL    HW1  547   4.264   1.081   1.069
99550SOL    HW2  548   4.331   1.217   1.075
99551SOL     OW  549   9.591  13.558  14.533
99551SOL    HW1  550   9.665  13.592  14.583
99551SOL    HW2  551   9.519  13.552  14.597
99552SOL     OW  552  12.740   7.736   8.562
99552SOL    HW1  553  12.835   7.743   8.557
99552SOL    HW2  554  12.707   7.812   8.514
99553SOL     OW  555  14.850   2.700  11.095
99553SOL    HW1  556   0.017   2.717  11.183
99553SOL    HW2  557  14.799   2.778  11.075
99554SOL     OW  558  14.010  13.984  12.705
99554SOL    HW1  559  13.915  13.971  12.697
99554SOL    HW2  560  14.047  13.897  12.700
99555SOL     OW  561  11.389   8.138   7.698
99555SOL    HW1  562  11.451   8.173   7.634
99555SOL    HW2  563  11.420   8.049   7.715
99556SOL     OW  564   6.081   5.461  10.090
99556SOL    HW1  565   6.116   5.528  10.032
99556SOL    HW2  566   6.140   5.386  10.078
99557SOL     OW  567  12.831  11.206   1.682
99557SOL    HW1  568  12.767  11.150   1.726
99557SOL    HW2  569  12.827  11.290   1.729
99558SOL     OW  570   4.570   9.567   6.426
99558SOL    HW1  571   4.590   9.565   6.519
99558SOL    HW2  572   4.651   9.538   6.384
99559SOL     OW  573  11.347   0.523   9.607
99559SOL    HW1  574  11.299   0.604   9.591
99559SOL    HW2  575  11.315   0.462   9.540
99560SOL     OW  576   3.653  12.131  12.941
99560SOL    HW1  577   3.691  12.215  12.917
99560SOL    HW2  578   3.720  12.067  12.917
99561SOL     OW  579  13.957   0.719  10.514
99561SOL    HW1  580  14.035   0.763  10.549
99561SOL    HW2  581  13.927   0.776  10.443
99562SOL     OW  582  12.670   1.593  14.156
99562SOL    HW1  583  12.678   1.624  14.066
99562SOL    HW2  584  12.592   1.637  14.190
99563SOL     OW  585   5.196   4.329  13.174
99563SOL    HW1  586   5.129   4.385  13.213
99563SOL    HW2  587   5.231   4.380  13.101
99564SOL     OW  588   2.580  13.799   4.318
99564SOL    HW1  589   2.613  13.730   4.376
99564SOL    HW2  590   2.563  13.872   4.377
99565SOL     OW  591  12.620   1.022   3.842
99565SOL    HW1  592  12.695   1.034   3.784
99565SOL    HW2  593  12.548   1.069   3.798
99566SOL     OW  594  11.860   1.699   5.972
99566SOL    HW1  595  11.881   1.715   6.064
99566SOL    HW2  596  11.787   1.758   5.953
99567SOL     OW  597   8.568   7.308  11.624
99567SOL    HW1  598   8.655   7.268  11.616
99567SOL    HW2  599   8.509   7.233  11.633
99568SOL     OW  600   1.864   4.919   8.812
99568SOL    HW1  601   1.818   4.835   8.821
99568SOL    HW2  602   1.822   4.962   8.738
99569SOL     OW  603   0.509   2.054   2.667
99569SOL    HW1  604   0.584   2.061   2.608
99569SOL    HW2  605   0.433   2.079   2.614
99570SOL     OW  606  14.391   8.393   6.882
99570SOL    HW1  607  14.413   8.345   6.961
99570SOL    HW2  608  14.325   8.457   6.910
99571SOL     OW  609   7.664   8.264  11.841
99571SOL    HW1  610   7.591   8.287  11.898
99571SOL    HW2  611   7.639   8.298  11.755
99572SOL     OW  612   9.395  11.927   4.088
99572SOL    HW1  613   9.305  11.906   4.061
99572SOL    HW2  614   9.444  11.847   4.071
99573SOL     OW  615   9.639   0.219   4.952
99573SOL    HW1  616   9.668   0.183   5.036
99573SOL    HW2  617   9.555   0.260   4.972
99574SOL     OW  618  11.609   6.706   9.306
99574SOL    HW1  619  11.527   6.660   9.286
99574SOL    HW2  620  11.671   6.636   9.327
99575SOL     OW  621   4.620   4.636   2.687
99575SOL    HW1  622   4.536   4.591   2.682
99575SOL    HW2  623   4.635   4.668   2.598
99576SOL     OW  624   1.736   4.953  13.476
99576SOL    HW1  625   1.690   4.870  13.486
99576SOL    HW2  626   1.702   5.008  13.547
99577SOL     OW  627  10.760   1.059  13.193
99577SOL    HW1  628  10.837   1.002  13.197
99577SOL    HW2  629  10.785   1.136  13.244
99578SOL     OW  630  11.193  11.871   3.350
99578SOL    HW1  631  11.203  11.821   3.269
99578SOL    HW2  632  11.159  11.809   3.413
99579SOL     OW  633   8.926   9.194   6.020
99579SOL    HW1  634   9.008   9.147   6.029
99579SOL    HW2  635   8.944   9.261   5.954
99580SOL     OW  636   0.216  13.267   0.264
99580SOL    HW1  637   0.160  13.228   0.197
99580SOL    HW2  638   0.239  13.353   0.229
99581SOL     OW  639   0.719  14.644  10.267
99581SOL    HW1  640   0.661  14.586  10.216
99581SOL    HW2  641   0.750  14.590  10.339
99582SOL     OW  642   9.673   8.977   1.110
99582SOL    HW1  643   9.579   8.989   1.099
99582SOL    HW2  644   9.710   9.003   1.025
99583SOL     OW  645   6.172   8.073   2.245
99583SOL    HW1  646   6.183   8.050   2.337
99583SOL    HW2  647   6.236   8.142   2.229
99584SOL     OW  648   3.064   1.860   5.171
99584SOL    HW1  649   2.975   1.870   5.205
99584SOL    HW2  650   3.092   1.774   5.203
99585SOL     OW  651   9.260   8.031  10.908
99585SOL    HW1  652   9.214   8.004  10.988
99585SOL    HW2  653   9.218   8.113  10.883
99586SOL     OW  654   7.688   3.811  11.090
99586SOL    HW1  655   7.659   3.778  11.005
99586SOL    HW2  656   7.781   3.789  11.094
99587SOL     OW  657   7.133   8.387   6.530
99587SOL    HW1  658   7.041   8.367   6.512
99587SOL    HW2  659   7.159   8.445   6.459
99588SOL     OW  660   1.403   7.901   9.595
99588SOL    HW1  661   1.323   7.952   9.582
99588SOL    HW2  662   1.455   7.952   9.657
99589SOL     OW  663  12.684   0.926   3.001
99589SOL    HW1  664  12.779   0.927   2.993
99589SOL    HW2  665  12.654   0.997   2.944
99590SOL     OW  666   9.567   7.218   7.410
99590SOL    HW1  667   9.620   7.153   7.363
99590SOL    HW2  668   9.615   7.232   7.492
99591SOL     OW  669   5.245   3.189   4.527
99591SOL    HW1  670   5.266   3.215   4.437
99591SOL    HW2  671   5.268   3.265   4.580
99592SOL     OW  672   4.024   0.360   1.604
99592SOL    HW1  673   4.087   0.428   1.579
99592SOL    HW2  674   3.947   0.409   1.632
99593SOL     OW  675  14.132  13.814  13.120
99593SOL    HW1  676  14.052  13.866  13.132
99593SOL    HW2  677  14.161  13.795  13.209
99594SOL     OW  678   1.782  14.722  13.320
99594SOL    HW1  679   1.778  14.669  13.240
99594SOL    HW2  680   1.694  14.760  13.328
99595SOL     OW  681  14.520   5.529  11.544
99595SOL    HW1  682  14.552   5.578  11.620
99595SOL    HW2  683  14.535   5.437  11.567
99596SOL     OW  684   7.335   6.458   3.093
99596SOL    HW1  685   7.325   6.503   3.009
99596SOL    HW2  686   7.405   6.507   3.137
99597SOL     OW  687  12.604   0.794  12.404
99597SOL    HW1  688  12.547   0.718  12.391
99597SOL    HW2  689  12.643   0.779  12.490
99598SOL     OW  690   9.314   1.015   2.008
99598SOL    HW1  691   9.401   0.975   1.999
99598SOL    HW2  692   9.306   1.070   1.930
99599SOL     OW  693   7.378   0.266  11.079
99599SOL    HW1  694   7.362   0.360  11.084
99599SOL    HW2  695   7.424   0.253  10.996
99600SOL     OW  696   9.770  13.902   2.310
99600SOL    HW1  697   9.787  13.996   2.302
99600SOL    HW2  698   9.702  13.896   2.378
99601SOL     OW  699  10.505   4.747   9.724
99601SOL    HW1  700  10.499   4.655   9.749
99601SOL    HW2  701  10.593   4.756   9.688
99602SOL     OW  702   4.754   7.799   8.963
99602SOL    HW1  703   4.787   7.824   9.050
99602SOL    HW2  704   4.803   7.720   8.941
99603SOL     OW  705   2.248   8.360  10.518
99603SOL    HW1  706   2.217   8.420  10.586
99603SOL    HW2  707   2.232   8.272  10.554
99604SOL     OW  708   2.533   9.159   2.872
99604SOL    HW1  709   2.470   9.221   2.836
99604SOL    HW2  710   2.595   9.213   2.920
99605SOL     OW  711  12.447   7.852   2.673
99605SOL    HW1  712  12.458   7.757   2.668
99605SOL    HW2  713  12.433   7.879   2.582
99606SOL     OW  714  12.932   9.636  14.292
99606SOL    HW1  715  12.918   9.556  14.242
99606SOL    HW2  716  13.026   9.640  14.306
99607SOL     OW  717   0.496   1.113   3.615
99607SOL    HW1  718   0.444   1.033   3.602
99607SOL    HW2  719   0.499   1.125   3.710
99608SOL     OW  720  12.360   0.523   5.354
99608SOL    HW1  721  12.445   0.480   5.363
99608SOL    HW2  722  12.298   0.452   5.342
99609SOL     OW  723  10.362   9.199  12.026
99609SOL    HW1  724  10.379   9.274  12.083
99609SOL    HW2  725  10.424   9.210  11.953
99610SOL     OW  726   7.986  10.724   7.568
99610SOL    HW1  727   8.065  10.724   7.515
99610SOL    HW2  728   7.967  10.816   7.584
99611SOL     OW  729  12.279   7.635   1.358
99611SOL    HW1  730  12.189   7.604   1.347
99611SOL    HW2  731  12.321   7.568   1.412
99612SOL     OW  732   0.150  10.586   1.825
99612SOL    HW1  733   0.206  10.570   1.749
99612SOL    HW2  734   0.192  10.539   1.897
99613SOL     OW  735  11.901  10.042   0.302
99613SOL    HW1  736  11.814  10.052   0.263
99613SOL    HW2  737  11.958  10.018   0.228
99614SOL     OW  738   8.018   2.898   1.033
99614SOL    HW1  739   8.012   2.847   0.952
99614SOL    HW2  740   8.098   2.949   1.022
99615SOL     OW  741   1.500   6.120  10.330
99615SOL    HW1  742   1.443   6.111  10.407
99615SOL    HW2  743   1.440   6.144  10.259
99616SOL     OW  744   4.593  11.076   8.058
99616SOL    HW1  745   4.552  10.991   8.072
99616SOL    HW2  746   4.565  11.103   7.971
99617SOL     OW  747  12.910   6.279   3.336
99617SOL    HW1  748  12.840   6.245   3.280
99617SOL    HW2  749  12.979   6.306   3.275
99618SOL     OW  750   1.167   8.504   2.384
99618SOL    HW1  751   1.189   8.564   2.455
99618SOL    HW2  752   1.160   8.561   2.307
99619SOL     OW  753  11.315   3.738  12.064
99619SOL    HW1  754  11.362   3.689  12.133
99619SOL    HW2  755  11.366   3.818  12.054
99620SOL     OW  756  13.194  11.573  11.618
99620SOL    HW1  757  13.152  11.658  11.614
99620SOL    HW2  758  13.234  11.569  11.705
99621SOL     OW  759   0.497  10.449  11.711
99621SOL    HW1  760   0.585  10.467  11.743
99621SOL    HW2  761   0.441  10.513  11.755
99622SOL     OW  762  11.411   2.449  14.014
99622SOL    HW1  763  11.341   2.513  14.007
99622SOL    HW2  764  11.408   2.401  13.931
99623SOL     OW  765  14.630   5.713   1.765
99623SOL    HW1  766  14.704   5.758   1.805
99623SOL    HW2  767  14.592   5.661   1.835
99624SOL     OW  768   7.196  12.986  13.404
99624SOL    HW1  769   7.291  12.979  13.417
99624SOL    HW2  770   7.158  12.926  13.468
99625SOL     OW  771   7.474   8.647   9.468
99625SOL    HW1  772   7.483   8.656   9.373
99625SOL    HW2  773   7.559   8.616   9.498
99626SOL     OW  774   1.153   8.085  13.374
99626SOL    HW1  775   1.058   8.080  13.363
99626SOL    HW2  776   1.184   8.130  13.295
99627SOL     OW  777   1.394  10.009   3.333
99627SOL    HW1  778   1.318  10.015   3.391
99627SOL    HW2  779   1.359   9.975   3.251
99628SOL     OW  780  13.016  14.261   9.309
99628SOL    HW1  781  13.010  14.272   9.214
99628SOL    HW2  782  12.968  14.180   9.327
99629SOL     OW  783   4.748  13.687   7.527
99629SOL    HW1  784   4.777  13.677   7.437
99629SOL    HW2  785   4.816  13.646   7.580
99630SOL     OW  786   0.427   4.263   1.370
99630SOL    HW1  787   0.450   4.317   1.446
99630SOL    HW2  788   0.430   4.324   1.296
99631SOL     OW  789  12.042   0.285  12.511
99631SOL    HW1  790  12.130   0.284  12.472
99631SOL    HW2  791  12.050   0.230  12.589
99632SOL     OW  792  11.705   6.725   1.247
99632SOL    HW1  793  11.682   6.729   1.154
99632SOL    HW2  794  11.790   6.682   1.249
99633SOL     OW  795  10.599   3.772  12.168
99633SOL    HW1  796  10.561   3.720  12.096
99633SOL    HW2  797  10.523   3.802  12.217
99634SOL     OW  798   2.569  10.275   8.328
99634SOL    HW1  799   2.649  10.291   8.278
99634SOL    HW2  800   2.511  10.346   8.303
99635SOL     OW  801  14.065   7.825   5.257
99635SOL    HW1  802  14.073   7.757   5.324
99635SOL    HW2  803  14.020   7.897   5.303
99636SOL     OW  804   9.089   3.186   8.273
99636SOL    HW1  805   9.012   3.198   8.218
99636SOL    HW2  806   9.113   3.274   8.301
99637SOL     OW  807   2.155   8.528  10.720
99637SOL    HW1  808   2.066   8.509  10.747
99637SOL    HW2  809   2.171   8.618  10.750
99638SOL     OW  810   9.454   1.364   0.565
99638SOL    HW1  811   9.425   1.453   0.584
99638SOL    HW2  812   9.374   1.314   0.553
99639SOL     OW  813  14.119   9.873  13.256
99639SOL    HW1  814  14.210   9.880  13.227
99639SOL    HW2  815  14.070   9.852  13.176
99640SOL     OW  816   7.982   1.541   7.676
99640SOL    HW1  817   8.007   1.475   7.741
99640SOL    HW2  818   8.024   1.512   7.595
99641SOL     OW  819   5.956   9.204   8.543
99641SOL    HW1  820   5.890   9.255   8.590
99641SOL    HW2  821   5.936   9.113   8.566
99642SOL     OW  822  10.853  10.952   9.633
99642SOL    HW1  823  10.916  10.936   9.563
99642SOL    HW2  824  10.789  11.012   9.594
99643SOL     OW  825   1.057   5.116   0.486
99643SOL    HW1  826   1.105   5.170   0.547
99643SOL    HW2  827   0.996   5.066   0.541
99644SOL     OW  828   3.315   9.474  10.223
99644SOL    HW1  829   3.397   9.425  10.231
99644SOL    HW2  830   3.314   9.503  10.132
99645SOL     OW  831  10.916   5.777   4.143
99645SOL    HW1  832  10.859   5.842   4.185
99645SOL    HW2  833  10.856   5.709   4.112
99646SOL     OW  834  10.219  10.210   5.893
99646SOL    HW1  835  10.195  10.302   5.885
99646SOL    HW2  836  10.156  10.174   5.955
99647SOL     OW  837   3.285  11.990  10.221
99647SOL    HW1  838   3.377  11.970  10.202
99647SOL    HW2  839   3.288  12.062  10.283
99648SOL     OW  840   4.341   9.352  13.374
99648SOL    HW1  841   4.264   9.297  13.364
99648SOL    HW2  842   4.409   9.292  13.406
99649SOL     OW  843  12.190   5.215   4.442
99649SOL    HW1  844  12.241   5.289   4.409
99649SOL    HW2  845  12.238   5.185   4.519
99650SOL     OW  846   7.941   6.108   2.670
99650SOL    HW1  847   7.956   6.051   2.594
99650SOL    HW2  848   7.937   6.048   2.744
99651SOL     OW  849   9.779  13.723   0.873
99651SOL    HW1  850   9.771  13.629   0.863
99651SOL    HW2  851   9.794  13.736   0.967
99652SOL     OW  852   5.018  10.810   8.045
99652SOL    HW1  853   4.962  10.794   7.969
99652SOL    HW2  854   5.093  10.752   8.032
99653SOL     OW  855   3.160   4.346  13.264
99653SOL    HW1  856   3.189   4.404  13.336
99653SOL    HW2  857   3.195   4.260  13.288
99654SOL     OW  858   9.983   0.824   9.654
99654SOL    HW1  859   9.888   0.819   9.644
99654SOL    HW2  860   9.997   0.832   9.749
99655SOL     OW  861   8.553  12.519   2.512
99655SOL    HW1  862   8.481  12.478   2.559
99655SOL    HW2  863   8.569  12.460   2.438
99656SOL     OW  864  11.802   8.242   6.936
99656SOL    HW1  865  11.797   8.285   6.851
99656SOL    HW2  866  11.890   8.205   6.939
99657SOL     OW  867   5.616   1.002   4.208
99657SOL    HW1  868   5.657   0.919   4.181
99657SOL    HW2  869   5.549   0.976   4.271
99658SOL     OW  870   4.778  12.659   4.468
99658SOL    HW1  871   4.833  12.608   4.528
99658SOL    HW2  872   4.689  12.637   4.493
99659SOL     OW  873  13.840  10.121  13.702
99659SOL    HW1  874  13.788  10.110  13.622
99659SOL    HW2  875  13.879  10.035  13.718
99660SOL     OW  876   8.452  13.823  10.948
99660SOL    HW1  877   8.543  13.830  10.978
99660SOL    HW2  878   8.457  13.835  10.853
99661SOL     OW  879   8.752  11.758  13.989
99661SOL    HW1  880   8.708  11.758  14.074
99661SOL    HW2  881   8.716  11.683  13.942
99662SOL     OW  882  13.869  10.263   3.684
99662SOL    HW1  883  13.783  10.298   3.658
99662SOL    HW2  884  13.926  10.280   3.609
99663SOL     OW  885  13.183   0.997   8.001
99663SOL    HW1  886  13.122   1.070   7.987
99663SOL    HW2  887  13.150   0.927   7.945
99664SOL     OW  888  12.619   1.709   9.930
99664SOL    HW1  889  12.603   1.626   9.885
99664SOL    HW2  890  12.714   1.709   9.946
99665SOL     OW  891   0.010  11.200  11.873
99665SOL    HW1  892   0.081  11.250  11.832
99665SOL    HW2  893   0.026  11.208  11.967
99666SOL     OW  894   9.120   7.079   3.112
99666SOL    HW1  895   9.148   7.151   3.169
99666SOL    HW2  896   9.150   7.104   3.025
99667SOL     OW  897   5.430  13.222   5.379
99667SOL    HW1  898   5.357  13.215   5.441
99667SOL    HW2  899   5.446  13.315   5.372
99668SOL     OW  900  12.124   4.111  11.553
99668SOL    HW1  901  12.071   4.135  11.630
99668SOL    HW2  902  12.214   4.118  11.583
99669SOL     OW  903  10.903   1.069   7.601
99669SOL    HW1  904  10.973   1.033   7.655
99669SOL    HW2  905  10.871   0.995   7.550
99670SOL     OW  906  13.404   9.375  13.802
99670SOL    HW1  907  13.455   9.431  13.744
99670SOL    HW2  908  13.424   9.407  13.890
99671SOL     OW  909   3.389   5.203   6.929
99671SOL    HW1  910   3.407   5.139   6.999
99671SOL    HW2  911   3.440   5.280   6.954
99672SOL     OW  912   6.222  13.635   5.761
99672SOL    HW1  913   6.187  13.699   5.699
99672SOL    HW2  914   6.189  13.551   5.729
99673SOL     OW  915   5.409   5.296   0.866
99673SOL    HW1  916   5.379   5.299   0.776
99673SOL    HW2  917   5.334   5.324   0.918
99674SOL     OW  918   5.242   1.322   2.579
99674SOL    HW1  919   5.239   1.232   2.546
99674SOL    HW2  920   5.331   1.352   2.560
99675SOL     OW  921   0.533   0.453   0.752
99675SOL    HW1  922   0.570   0.391   0.688
99675SOL    HW2  923   0.609   0.487   0.799
99676SOL     OW  924  10.263   8.148  12.055
99676SOL    HW1  925  10.325   8.122  11.987
99676SOL    HW2  926  10.311   8.209  12.110
99677SOL     OW  927   0.019   2.628  13.119
99677SOL    HW1  928   0.000   2.670  13.035
99677SOL    HW2  929   0.086   2.563  13.099
99678SOL     OW  930   2.382   8.512   4.294
99678SOL    HW1  931   2.315   8.528   4.360
99678SOL    HW2  932   2.344   8.546   4.213
99679SOL     OW  933   2.070   3.564   3.043
99679SOL    HW1  934   2.036   3.576   2.955
99679SOL    HW2  935   2.155   3.522   3.031
99680SOL     OW  936   2.691   8.171  12.506
99680SOL    HW1  937   2.740   8.213  12.577
99680SOL    HW2  938   2.752   8.110  12.467
99681SOL     OW  939  14.729  11.773   9.238
99681SOL    HW1  940  14.763  11.858   9.208
99681SOL    HW2  941  14.761  11.765   9.328
99682SOL     OW  942   3.995  12.533   2.166
99682SOL    HW1  943   3.920  12.570   2.120
99682SOL    HW2  944   3.982  12.438   2.161
99683SOL     OW  945   3.848   7.373  12.129
99683SOL    HW1  946   3.793   7.348  12.055
99683SOL    HW2  947   3.825   7.464  12.147
99684SOL     OW  948  13.000   3.788  10.335
99684SOL    HW1  949  13.030   3.829  10.254
99684SOL    HW2  950  12.959   3.859  10.384
99685SOL     OW  951   2.448  10.013   3.034
99685SOL    HW1  952   2.408   9.926   3.037
99685SOL    HW2  953   2.532  10.003   3.077
99686SOL     OW  954   0.226   3.335  11.795
99686SOL    HW1  955   0.292   3.266  11.806
99686SOL    HW2  956   0.274   3.416  11.806
99687SOL     OW  957  11.707   2.960  13.065
99687SOL    HW1  958  11.627   2.927  13.105
99687SOL    HW2  959  11.749   3.012  13.134
99688SOL     OW  960   1.580   0.352   9.081
99688SOL    HW1  961   1.667   0.318   9.061
99688SOL    HW2  962   1.565   0.419   9.014
99689SOL     OW  963  12.736   4.701   8.043
99689SOL    HW1  964  12.691   4.772   7.997
99689SOL    HW2  965  12.828   4.711   8.018
99690SOL     OW  966   6.666   8.049  12.737
99690SOL    HW1  967   6.737   8.108  12.713
99690SOL    HW2  968   6.636   8.081  12.822
99691SOL     OW  969  14.275  10.706   0.494
99691SOL    HW1  970  14.196  10.654   0.475
99691SOL    HW2  971  14.285  10.763   0.418
99692SOL     OW  972   3.940   2.194  11.602
99692SOL    HW1  973   3.946   2.232  11.515
99692SOL    HW2  974   4.006   2.240  11.654
99693SOL     OW  975   2.926   1.006   7.648
99693SOL    HW1  976   2.976   1.051   7.716
99693SOL    HW2  977   2.980   1.015   7.569
99694SOL     OW  978  14.075  11.898   1.451
99694SOL    HW1  979  14.014  11.871   1.383
99694SOL    HW2  980  14.037  11.867   1.533
99695SOL     OW  981   0.346  11.094  11.831
99695SOL    HW1  982   0.306  11.026  11.886
99695SOL    HW2  983   0.425  11.052  11.796
99696SOL     OW  984   8.960  13.015   3.322
99696SOL    HW1  985   8.996  12.939   3.275
99696SOL    HW2  986   8.894  12.978   3.380
99697SOL     OW  987   1.571   7.702  13.431
99697SOL    HW1  988   1.528   7.618  13.447
99697SOL    HW2  989   1.664   7.684  13.442
99698SOL     OW  990   2.943   0.778   3.633
99698SOL    HW1  991   2.925   0.870   3.613
99698SOL    HW2  992   2.871   0.751   3.690
99699SOL     OW  993  11.328   4.079   3.314
99699SOL    HW1  994  11.414   4.097   3.353
99699SOL    HW2  995  11.284   4.163   3.313
99700SOL     OW  996  11.778   7.267  11.809
99700SOL    HW1  997  11.857   7.266  11.754
99700SOL    HW2  998  11.718   7.207  11.765
99701SOL     OW  999  12.804   5.302   7.711
99701SOL    HW1 1000  12.779   5.395   7.714
99701SOL    HW2 1001  12.826   5.286   7.619
99702SOL     OW 1002  10.037   5.135   4.652
99702SOL    HW1 1003  10.045   5.180   4.568
99702SOL    HW2 1004   9.975   5.064   4.635
99703SOL     OW 1005   5.959  14.339  13.497
99703SOL    HW1 1006   5.992  14.297  13.577
99703SOL    HW2 1007   5.913  14.417  13.528
99704SOL     OW 1008   1.433   1.681   4.474
99704SOL    HW1 1009   1.345   1.646   4.488
99704SOL    HW2 1010   1.483   1.607   4.439
99705SOL     OW 1011   0.239   0.222   4.391
99705SOL    HW1 1012   0.189   0.146   4.423
99705SOL    HW2 1013   0.186   0.298   4.419
99706SOL     OW 1014   6.616   4.488   2.116
99706SOL    HW1 1015   6.563   4.511   2.041
99706SOL    HW2 1016   6.650   4.401   2.096
99707SOL     OW 1017  12.282   9.714  12.622
99707SOL    HW1 1018  12.346   9.658  12.666
99707SOL    HW2 1019  12.206   9.716  12.681
99708SOL     OW 1020   6.651   8.889  12.945
99708SOL    HW1 1021   6.665   8.815  13.005
99708SOL    HW2 1022   6.728   8.889  12.888
99709SOL     OW 1023   1.823   7.909  13.884
99709SOL    HW1 1024   1.791   7.999  13.896
99709SOL    HW2 1025   1.743   7.858  13.866
99710SOL     OW 1026  11.311   5.992  10.796
99710SOL    HW1 1027  11.256   5.937  10.739
99710SOL    HW2 1028  11.297   5.957  10.884
99711SOL     OW 1029   4.725  12.263   3.331
99711SOL    HW1 1030   4.807  12.233   3.291
99711SOL    HW2 1031   4.690  12.327   3.268
99712SOL     OW 1032  10.821  11.731   5.709
99712SOL    HW1 1033  10.737  11.693   5.681
99712SOL    HW2 1034  10.858  11.769   5.630
99713SOL     OW 1035   1.625   2.348   7.006
99713SOL    HW1 1036   1.539   2.375   6.973
99713SOL    HW2 1037   1.685   2.361   6.932
99714SOL     OW 1038   7.754   7.139   7.054
99714SOL    HW1 1039   7.754   7.233   7.042
99714SOL    HW2 1040   7.663   7.112   7.041
99715SOL     OW 1041   6.151  12.937  11.750
99715SOL    HW1 1042   6.139  12.982  11.667
99715SOL    HW2 1043   6.217  12.990  11.796
99716SOL     OW 1044   3.787   5.777   3.382
99716SOL    HW1 1045   3.824   5.816   3.462
99716SOL    HW2 1046   3.859   5.725   3.346
99717SOL     OW 1047  11.323   5.921   4.184
99717SOL    HW1 1048  11.385   5.963   4.243
99717SOL    HW2 1049  11.344   5.957   4.097
99718SOL     OW 1050   4.511  13.563  11.467
99718SOL    HW1 1051   4.522  13.597  11.378
99718SOL    HW2 1052   4.595  13.524  11.488
99719SOL     OW 1053   7.584   1.261  13.688
99719SOL    HW1 1054   7.638   1.185  13.707
99719SOL    HW2 1055   7.495   1.226  13.680
99720SOL     OW 1056   8.905   5.110   9.566
99720SOL    HW1 1057   8.996   5.093   9.592
99720SOL    HW2 1058   8.862   5.134   9.648
99721SOL     OW 1059   6.679   3.022   4.778
99721SOL    HW1 1060   6.724   3.105   4.792
99721SOL    HW2 1061   6.644   3.028   4.690
99722SOL     OW 1062   5.641  10.121   0.806
99722SOL    HW1 1063   5.662  10.114   0.713
99722SOL    HW2 1064   5.673  10.207   0.832
99723SOL     OW 1065   1.215   9.588   1.069
99723SOL    HW1 1066   1.278   9.545   1.011
99723SOL    HW2 1067   1.214   9.679   1.040
99724SOL     OW 1068   2.998   6.733   5.386
99724SOL    HW1 1069   2.959   6.722   5.299
99724SOL    HW2 1070   3.073   6.790   5.372
99725SOL     OW 1071   2.412   5.176   7.825
99725SOL    HW1 1072   2.453   5.146   7.907
99725SOL    HW2 1073   2.353   5.245   7.853
99726SOL     OW 1074  14.036  10.338   7.402
99726SOL    HW1 1075  13.969  10.373   7.460
99726SOL    HW2 1076  14.119  10.354   7.448
99727SOL     OW 1077  10.907   0.740   8.971
99727SOL    HW1 1078  10.988   0.792   8.973
99727SOL    HW2 1079  10.923   0.673   8.905
99728SOL     OW 1080  13.242   2.239   6.240
99728SOL    HW1 1081  13.317   2.196   6.281
99728SOL    HW2 1082  13.183   2.258   6.313
99729SOL     OW 1083   3.571  14.639   1.602
99729SOL    HW1 1084   3.475  14.649   1.600
99729SOL    HW2 1085   3.603  14.719   1.643
99730SOL     OW 1086   2.239   5.038  11.770
99730SOL    HW1 1087   2.149   5.032  11.737
99730SOL    HW2 1088   2.230   5.073  11.859
99731SOL     OW 1089   0.312   1.575   0.204
99731SOL    HW1 1090   0.377   1.645   0.215
99731SOL    HW2 1091   0.303   1.564   0.110
99732SOL     OW 1092  12.764  10.621  10.895
99732SOL    HW1 1093  12.851  10.650  10.921
99732SOL    HW2 1094  12.775  10.530  10.868
99733SOL     OW 1095  11.545  14.534   4.970
99733SOL    HW1 1096  11.474  14.531   4.906
99733SOL    HW2 1097  11.501  14.520   5.054
99734SOL     OW 1098  12.621   8.451   9.272
99734SOL    HW1 1099  12.586   8.367   9.302
99734SOL    HW2 1100  12.559   8.516   9.306
99735SOL     OW 1101   5.447   3.785   3.550
99735SOL    HW1 1102   5.357   3.767   3.522
99735SOL    HW2 1103   5.471   3.708   3.602
99736SOL     OW 1104   5.858   4.257   6.589
99736SOL    HW1 1105   5.859   4.344   6.629
99736SOL    HW2 1106   5.889   4.199   6.657
99737SOL     OW 1107   7.657   2.288   8.407
99737SOL    HW1 1108   7.641   2.206   8.452
99737SOL    HW2 1109   7.745   2.314   8.434
99738SOL     OW 1110   2.121   7.106   0.914
99738SOL    HW1 1111   2.051   7.122   0.977
99738SOL    HW2 1112   2.114   7.012   0.894
99739SOL     OW 1113   8.879   0.990   5.275
99739SOL    HW1 1114   8.913   0.930   5.341
99739SOL    HW2 1115   8.952   1.005   5.216
99740SOL     OW 1116   3.880   3.457  11.880
99740SOL    HW1 1117   3.853   3.522  11.815
99740SOL    HW2 1118   3.969   3.432  11.854
99741SOL     OW 1119  14.804   0.014   4.146
99741SOL    HW1 1120  14.774   0.041   4.233
99741SOL    HW2 1121   0.029  14.863   4.158
99742SOL     OW 1122  12.474   9.323   9.349
99742SOL    HW1 1123  12.491   9.240   9.393
99742SOL    HW2 1124  12.458   9.385   9.420
99743SOL     OW 1125  11.305   8.456   0.337
99743SOL    HW1 1126  11.377   8.416   0.288
99743SOL    HW2 1127  11.244   8.384   0.353
99744SOL     OW 1128   2.348   5.850   7.384
99744SOL    HW1 1129   2.384   5.828   7.470
99744SOL    HW2 1130   2.332   5.765   7.342
99745SOL     OW 1131   5.874   6.553   5.745
99745SOL    HW1 1132   5.945   6.495   5.715
99745SOL    HW2 1133   5.803   6.493   5.766
99746SOL     OW 1134   6.515  10.721   5.603
99746SOL    HW1 1135   6.539  10.756   5.689
99746SOL    HW2 1136   6.450  10.653   5.622
99747SOL     OW 1137   0.862   5.931   4.679
99747SOL    HW1 1138   0.779   5.945   4.632
99747SOL    HW2 1139   0.894   5.847   4.646
99748SOL     OW 1140   3.084  14.436   6.623
99748SOL    HW1 1141   3.150  14.501   6.600
99748SOL    HW2 1142   3.053  14.462   6.710
99749SOL     OW 1143  10.697   6.102  10.177
99749SOL    HW1 1144  10.657   6.111  10.264
99749SOL    HW2 1145  10.693   6.008  10.160
99750SOL     OW 1146   9.196   3.890  14.617
99750SOL    HW1 1147   9.219   3.861  14.529
99750SOL    HW2 1148   9.101   3.900  14.615
99751SOL     OW 1149   9.247   2.019  11.389
99751SOL    HW1 1150   9.306   2.018  11.465
99751SOL    HW2 1151   9.260   2.105  11.350
99752SOL     OW 1152   1.476  12.538   3.105
99752SOL    HW1 1153   1.518  12.540   3.191
99752SOL    HW2 1154   1.503  12.455   3.066
99753SOL     OW 1155   6.171  12.431   2.519
99753SOL    HW1 1156   6.249  12.382   2.497
99753SOL    HW2 1157   6.180  12.450   2.613
99754SOL     OW 1158   6.882   2.025   7.478
99754SOL    HW1 1159   6.920   1.937   7.476
99754SOL    HW2 1160   6.946   2.080   7.432
99755SOL     OW 1161  14.530   3.511   2.845
99755SOL    HW1 1162  14.587   3.439   2.820
99755SOL    HW2 1163  14.563   3.586   2.796
99756SOL     OW 1164   7.381   6.762  14.297
99756SOL    HW1 1165   7.326   6.736  14.222
99756SOL    HW2 1166   7.412   6.679  14.333
99757SOL     OW 1167   7.272  10.074  12.158
99757SOL    HW1 1168   7.314  10.138  12.100
99757SOL    HW2 1169   7.323  10.079  12.239
99758SOL     OW 1170   0.085  12.530   7.876
99758SOL    HW1 1171   0.137  12.450   7.871
99758SOL    HW2 1172   0.024  12.524   7.803
99759SOL     OW 1173  11.874   3.620   7.452
99759SOL    HW1 1174  11.969   3.616   7.459
99759SOL    HW2 1175  11.856   3.708   7.419
99760SOL     OW 1176   0.931  10.083   7.679
99760SOL    HW1 1177   0.882  10.048   7.604
99760SOL    HW2 1178   0.929  10.013   7.744
99761SOL     OW 1179  14.187   0.256   2.197
99761SOL    HW1 1180  14.201   0.333   2.253
99761SOL    HW2 1181  14.267   0.249   2.145
99762SOL     OW 1182   0.613   9.206  10.943
99762SOL    HW1 1183   0.548   9.136  10.945
99762SOL    HW2 1184   0.584   9.268  11.011
99763SOL     OW 1185   6.467  12.485  14.758
99763SOL    HW1 1186   6.423  12.569  14.740
99763SOL    HW2 1187   6.469  12.441  14.673
99764SOL     OW 1188   6.684   0.504  13.872
99764SOL    HW1 1189   6.638   0.484  13.954
99764SOL    HW2 1190   6.616   0.542  13.816
99765SOL     OW 1191  12.590   0.162  10.701
99765SOL    HW1 1192  12.618   0.203  10.619
99765SOL    HW2 1193  12.588   0.068  10.681
99766SOL     OW 1194   6.077   2.909   5.526
99766SOL    HW1 1195   6.158   2.892   5.574
99766SOL    HW2 1196   6.086   2.999   5.496
99767SOL     OW 1197  13.049  12.870   5.553
99767SOL    HW1 1198  12.984  12.841   5.489
99767SOL    HW2 1199  13.123  12.810   5.541
99768SOL     OW 1200  10.636   0.178   1.467
99768SOL    HW1 1201  10.715   0.135   1.433
99768SOL    HW2 1202  10.567   0.113   1.460
99769SOL     OW 1203   3.779  13.347   0.844
99769SOL    HW1 1204   3.800  13.272   0.788
99769SOL    HW2 1205   3.787  13.423   0.786
99770SOL     OW 1206   3.975   7.074  12.817
99770SOL    HW1 1207   4.040   7.016  12.778
99770SOL    HW2 1208   4.026   7.129  12.876
99771SOL     OW 1209   7.370   2.335   1.537
99771SOL    HW1 1210   7.362   2.420   1.580
99771SOL    HW2 1211   7.436   2.289   1.588
99772SOL     OW 1212   3.519   0.439  11.345
99772SOL    HW1 1213   3.609   0.442  11.315
99772SOL    HW2 1214   3.488   0.529  11.337
99773SOL     OW 1215  13.581  11.415   0.690
99773SOL    HW1 1216  13.673  11.415   0.716
99773SOL    HW2 1217  13.582  11.418   0.595
99774SOL     OW 1218   3.454  12.075   6.968
99774SOL    HW1 1219   3.497  12.038   6.891
99774SOL    HW2 1220   3.416  12.158   6.938
99775SOL     OW 1221   6.413   7.755   5.534
99775SOL    HW1 1222   6.489   7.792   5.579
99775SOL    HW2 1223   6.396   7.673   5.580
99776SOL     OW 1224   1.766  14.850  10.397
99776SOL    HW1 1225   1.709   0.052  10.429
99776SOL    HW2 1226   1.836   0.027  10.350
99777SOL     OW 1227   4.982   0.587   2.458
99777SOL    HW1 1228   4.999   0.619   2.369
99777SOL    HW2 1229   4.889   0.564   2.457
99778SOL     OW 1230   4.842   6.056   5.027
99778SOL    HW1 1231   4.891   6.134   5.056
99778SOL    HW2 1232   4.909   5.988   5.020
99779SOL     OW 1233   3.209  13.292   5.489
99779SOL    HW1 1234   3.125  13.254   5.465
99779SOL    HW2 1235   3.215  13.278   5.584
99780SOL     OW 1236  11.545   5.120   6.277
99780SOL    HW1 1237  11.553   5.203   6.231
99780SOL    HW2 1238  11.588   5.056   6.220
99781SOL     OW 1239   2.826   0.759   1.336
99781SOL    HW1 1240   2.792   0.822   1.272
99781SOL    HW2 1241   2.892   0.808   1.385
99782SOL     OW 1242  11.520  10.221   2.926
99782SOL    HW1 1243  11.498  10.256   2.840
99782SOL    HW2 1244  11.616  10.214   2.925
99783SOL     OW 1245  12.712  13.404   5.457
99783SOL    HW1 1246  12.617  13.393   5.456
99783SOL    HW2 1247  12.736  13.417   5.366
99784SOL     OW 1248   3.452   3.756  13.367
99784SOL    HW1 1249   3.456   3.665  13.398
99784SOL    HW2 1250   3.390   3.799  13.427
99785SOL     OW 1251  10.662   0.523   8.652
99785SOL    HW1 1252  10.585   0.566   8.689
99785SOL    HW2 1253  10.663   0.550   8.560
99786SOL     OW 1254  10.559   6.950  12.665
99786SOL    HW1 1255  10.627   6.882  12.668
99786SOL    HW2 1256  10.608   7.032  12.667
99787SOL     OW 1257   4.054   5.999   2.653
99787SOL    HW1 1258   4.001   5.988   2.574
99787SOL    HW2 1259   4.040   6.089   2.680
99788SOL     OW 1260   9.408  12.906  10.455
99788SOL    HW1 1261   9.364  12.887  10.373
99788SOL    HW2 1262   9.382  12.835  10.514
99789SOL     OW 1263   4.325   7.349  14.603
99789SOL    HW1 1264   4.354   7.438  14.584
99789SOL    HW2 1265   4.328   7.343  14.699
99790SOL     OW 1266   5.524  11.963   7.549
99790SOL    HW1 1267   5.603  11.947   7.600
99790SOL    HW2 1268   5.461  11.900   7.583
99791SOL     OW 1269   3.183   3.526   6.796
99791SOL    HW1 1270   3.249   3.498   6.859
99791SOL    HW2 1271   3.099   3.510   6.840
99792SOL     OW 1272   6.898   1.752  14.284
99792SOL    HW1 1273   6.947   1.773  14.364
99792SOL    HW2 1274   6.955   1.781  14.213
99793SOL     OW 1275   0.497   3.413   2.749
99793SOL    HW1 1276   0.518   3.321   2.734
99793SOL    HW2 1277   0.403   3.414   2.767
99794SOL     OW 1278   5.810   4.787   5.254
99794SOL    HW1 1279   5.886   4.782   5.196
99794SOL    HW2 1280   5.763   4.865   5.226
99795SOL     OW 1281  11.976  12.056   4.599
99795SOL    HW1 1282  11.937  12.127   4.547
99795SOL    HW2 1283  11.976  11.981   4.541
99796SOL     OW 1284  11.058   1.249  13.171
99796SOL    HW1 1285  11.073   1.202  13.090
99796SOL    HW2 1286  11.138   1.236  13.222
99797SOL     OW 1287   8.339   5.294  10.177
99797SOL    HW1 1288   8.346   5.200  10.159
99797SOL    HW2 1289   8.263   5.322  10.125
99798SOL     OW 1290  13.672   7.285   2.882
99798SOL    HW1 1291  13.750   7.338   2.898
99798SOL    HW2 1292  13.705   7.203   2.846
99799SOL     OW 1293   9.372  10.701   7.519
99799SOL    HW1 1294   9.447  10.729   7.466
99799SOL    HW2 1295   9.298  10.751   7.485
99800SOL     OW 1296   4.448   6.492  10.903
99800SOL    HW1 1297   4.409   6.465  10.820
99800SOL    HW2 1298   4.538   6.460  10.899
99801SOL     OW 1299   1.265   9.908   1.909
99801SOL    HW1 1300   1.261   9.988   1.857
99801SOL    HW2 1301   1.356   9.879   1.902
99802SOL     OW 1302   1.592  11.488  12.789
99802SOL    HW1 1303   1.536  11.465  12.863
99802SOL    HW2 1304   1.541  11.464  12.712
99803SOL     OW 1305   5.253  12.555   1.597
99803SOL    HW1 1306   5.278  12.524   1.510
99803SOL    HW2 1307   5.252  12.651   1.589
99804SOL     OW 1308   2.736  12.011   5.777
99804SOL    HW1 1309   2.653  12.054   5.797
99804SOL    HW2 1310   2.780  12.071   5.716
99805SOL     OW 1311  12.827  11.053   2.373
99805SOL    HW1 1312  12.826  11.112   2.449
99805SOL    HW2 1313  12.842  11.111   2.299
99806SOL     OW 1314   6.300   3.365   8.832
99806SOL    HW1 1315   6.389   3.348   8.863
99806SOL    HW2 1316   6.277   3.289   8.780
99807SOL     OW 1317   0.892   8.419  12.345
99807SOL    HW1 1318   0.899   8.422  12.440
99807SOL    HW2 1319   0.888   8.511  12.318
99808SOL     OW 1320  14.335   5.289   3.918
99808SOL    HW1 1321  14.343   5.381   3.891
99808SOL    HW2 1322  14.422   5.252   3.902
99809SOL     OW 1323   5.656   3.084   9.405
99809SOL    HW1 1324   5.619   3.168   9.431
99809SOL    HW2 1325   5.674   3.094   9.312
99810SOL     OW 1326   6.381  11.509   1.165
99810SOL    HW1 1327   6.385  11.425   1.119
99810SOL    HW2 1328   6.468  11.546   1.156
99811SOL     OW 1329  14.566   2.949   5.774
99811SOL    HW1 1330  14.579   3.008   5.700
99811SOL    HW2 1331  14.653   2.933   5.808
99812SOL     OW 1332   1.167   4.796   2.104
99812SOL    HW1 1333   1.077   4.824   2.093
99812SOL    HW2 1334   1.168   4.749   2.187
99813SOL     OW 1335   1.269   2.474  11.105
99813SOL    HW1 1336   1.281   2.444  11.195
99813SOL    HW2 1337   1.177   2.499  11.099
99814SOL     OW 1338   4.956  12.061   7.155
99814SOL    HW1 1339   4.914  12.146   7.159
99814SOL    HW2 1340   5.050  12.081   7.152
99815SOL     OW 1341   2.233   4.319  10.073
99815SOL    HW1 1342   2.314   4.269  10.078
99815SOL    HW2 1343   2.240   4.385  10.142
99816SOL     OW 1344  13.885   4.297   4.682
99816SOL    HW1 1345  13.970   4.317   4.643
99816SOL    HW2 1346  13.830   4.274   4.607
99817SOL     OW 1347   6.295   1.599  13.179
99817SOL    HW1 1348   6.289   1.582  13.273
99817SOL    HW2 1349   6.379   1.645  13.168
99818SOL     OW 1350  11.793   5.599   1.781
99818SOL    HW1 1351  11.717   5.615   1.837
99818SOL    HW2 1352  11.800   5.679   1.728
99819SOL     OW 1353  10.710   6.495  12.513
99819SOL    HW1 1354  10.636   6.463  12.460
99819SOL    HW2 1355  10.782   6.435  12.492
99820SOL     OW 1356   1.275   7.873  13.748
99820SOL    HW1 1357   1.325   7.792  13.756
99820SOL    HW2 1358   1.250   7.895  13.838
99821SOL     OW 1359   8.022   1.303  13.035
99821SOL    HW1 1360   7.946   1.359  13.054
99821SOL    HW2 1361   8.092   1.365  13.014
99822SOL     OW 1362  12.021  14.464   8.709
99822SOL    HW1 1363  12.026  14.543   8.764
99822SOL    HW2 1364  11.947  14.415   8.744
99823SOL     OW 1365   8.657   1.007  13.844
99823SOL    HW1 1366   8.704   1.080  13.803
99823SOL    HW2 1367   8.686   1.009  13.935
99824SOL     OW 1368  11.171   8.581   3.892
99824SOL    HW1 1369  11.264   8.560   3.902
99824SOL    HW2 1370  11.130   8.551   3.973
99825SOL     OW 1371  14.273  13.081  10.409
99825SOL    HW1 1372  14.259  13.015  10.342
99825SOL    HW2 1373  14.368  13.084  10.420
99826SOL     OW 1374   5.812  11.893   9.111
99826SOL    HW1 1375   5.841  11.974   9.069
99826SOL    HW2 1376   5.878  11.876   9.178
99827SOL     OW 1377  11.639   8.686   7.287
99827SOL    HW1 1378  11.700   8.715   7.355
99827SOL    HW2 1379  11.694   8.666   7.212
99828SOL     OW 1380   7.519   3.367   1.889
99828SOL    HW1 1381   7.604   3.327   1.910
99828SOL    HW2 1382   7.454   3.302   1.916
99829SOL     OW 1383   6.306  11.789   3.172
99829SOL    HW1 1384   6.339  11.808   3.260
99829SOL    HW2 1385   6.370  11.729   3.134
99830SOL     OW 1386  10.829   3.688   0.625
99830SOL    HW1 1387  10.829   3.770   0.577
99830SOL    HW2 1388  10.920   3.659   0.624
99831SOL     OW 1389   9.549  13.691  13.096
99831SOL    HW1 1390   9.520  13.604  13.124
99831SOL    HW2 1391   9.485  13.750  13.134
99832SOL     OW 1392  13.385   8.706   4.123
99832SOL    HW1 1393  13.329   8.783   4.121
99832SOL    HW2 1394  13.375   8.667   4.036
99833SOL     OW 1395   0.614  11.612  11.147
99833SOL    HW1 1396   0.631  11.697  11.106
99833SOL    HW2 1397   0.631  11.549  11.078
99834SOL     OW 1398   9.279   0.978   0.619
99834SOL    HW1 1399   9.276   0.884   0.600
99834SOL    HW2 1400   9.212   0.991   0.686
99835SOL     OW 1401   8.112   7.403   6.465
99835SOL    HW1 1402   8.087   7.409   6.557
99835SOL    HW2 1403   8.147   7.490   6.444
99836SOL     OW 1404   0.899   0.018   7.311
99836SOL    HW1 1405   0.885  14.795   7.337
99836SOL    HW2 1406   0.813   0.059   7.319
99837SOL     OW 1407  13.073   0.768   2.459
99837SOL    HW1 1408  13.048   0.813   2.378
99837SOL    HW2 1409  13.164   0.795   2.474
99838SOL     OW 1410  11.009   3.522   1.984
99838SOL    HW1 1411  11.012   3.581   1.909
99838SOL    HW2 1412  11.097   3.528   2.022
99839SOL     OW 1413   5.707   1.353   6.794
99839SOL    HW1 1414   5.684   1.265   6.764
99839SOL    HW2 1415   5.677   1.356   6.884
99840SOL     OW 1416  14.203  10.149  10.088
99840SOL    HW1 1417  14.155  10.066  10.099
99840SOL    HW2 1418  14.291  10.129  10.119
99841SOL     OW 1419   9.584   8.803   6.178
99841SOL    HW1 1420   9.660   8.860   6.190
99841SOL    HW2 1421   9.576   8.756   6.262
99842SOL     OW 1422   1.660  14.117  12.264
99842SOL    HW1 1423   1.606  14.128  12.186
99842SOL    HW2 1424   1.597  14.096  12.333
99843SOL     OW 1425   0.380   6.111   1.557
99843SOL    HW1 1426   0.415   6.120   1.645
99843SOL    HW2 1427   0.444   6.058   1.510
99844SOL     OW 1428   3.795   3.236  11.365
99844SOL    HW1 1429   3.744   3.191  11.432
99844SOL    HW2 1430   3.741   3.232  11.287
99845SOL     OW 1431  12.182   3.031   2.837
99845SOL    HW1 1432  12.142   2.966   2.895
99845SOL    HW2 1433  12.112   3.094   2.819
99846SOL     OW 1434  13.972   1.910   7.071
99846SOL    HW1 1435  14.036   1.851   7.111
99846SOL    HW2 1436  13.927   1.951   7.146
99847SOL     OW 1437   1.502   4.787   5.622
99847SOL    HW1 1438   1.558   4.718   5.587
99847SOL    HW2 1439   1.549   4.869   5.603
99848SOL     OW 1440   8.100   4.062   6.149
99848SOL    HW1 1441   8.108   4.024   6.062
99848SOL    HW2 1442   8.035   4.007   6.193
99849SOL     OW 1443  10.256   7.381   4.364
99849SOL    HW1 1444  10.183   7.385   4.303
99849SOL    HW2 1445  10.215   7.376   4.451
99850SOL     OW 1446   1.146   8.470   3.783
99850SOL    HW1 1447   1.115   8.384   3.753
99850SOL    HW2 1448   1.155   8.461   3.877
99851SOL     OW 1449  13.745   8.566  12.106
99851SOL    HW1 1450  13.817   8.629  12.100
99851SOL    HW2 1451  13.717   8.553  12.015
99852SOL     OW 1452   6.658   9.471   5.875
99852SOL    HW1 1453   6.710   9.400   5.837
99852SOL    HW2 1454   6.567   9.442   5.864
99853SOL     OW 1455   3.961   3.215  12.127
99853SOL    HW1 1456   3.964   3.184  12.037
99853SOL    HW2 1457   3.870   3.201  12.154
99854SOL     OW 1458   5.072   4.524  13.606
99854SOL    HW1 1459   5.151   4.559  13.648
99854SOL    HW2 1460   5.024   4.482  13.677
99855SOL     OW 1461  10.264   5.218   4.786
99855SOL    HW1 1462  10.265   5.133   4.831
99855SOL    HW2 1463  10.190   5.212   4.725
99856SOL     OW 1464   5.149   8.329   0.042
99856SOL    HW1 1465   5.119   8.383   0.116
99856SOL    HW2 1466   5.244   8.343   0.040
99857SOL     OW 1467   7.811  14.020  11.917
99857SOL    HW1 1468   7.811  13.987  12.007
99857SOL    HW2 1469   7.725  13.996  11.882
99858SOL     OW 1470  10.660   5.877   7.716
99858SOL    HW1 1471  10.575   5.868   7.758
99858SOL    HW2 1472  10.641   5.917   7.631
99859SOL     OW 1473   5.707   5.761  12.657
99859SOL    HW1 1474   5.667   5.848  12.652
99859SOL    HW2 1475   5.665   5.712  12.587
99860SOL     OW 1476   9.058   2.640   7.066
99860SOL    HW1 1477   9.016   2.669   6.985
99860SOL    HW2 1478   9.107   2.717   7.096
99861SOL     OW 1479  10.950   3.621  12.708
99861SOL    HW1 1480  11.044   3.614  12.691
99861SOL    HW2 1481  10.913   3.648  12.624
99862SOL     OW 1482   2.480   4.276  14.514
99862SOL    HW1 1483   2.570   4.288  14.545
99862SOL    HW2 1484   2.488   4.270  14.419
99863SOL     OW 1485   8.230   4.965  13.945
99863SOL    HW1 1486   8.185   5.021  13.883
99863SOL    HW2 1487   8.302   5.019  13.979
99864SOL     OW 1488  14.587  12.538   3.172
99864SOL    HW1 1489  14.653  12.572   3.112
99864SOL    HW2 1490  14.552  12.616   3.214
99865SOL     OW 1491  12.957   3.025  12.221
99865SOL    HW1 1492  12.920   3.113  12.217
99865SOL    HW2 1493  13.044   3.033  12.183
99866SOL     OW 1494   9.576   0.307   7.096
99866SOL    HW1 1495   9.548   0.250   7.168
99866SOL    HW2 1496   9.579   0.394   7.134
99867SOL     OW 1497   8.602   6.648   6.472
99867SOL    HW1 1498   8.675   6.645   6.411
99867SOL    HW2 1499   8.631   6.705   6.543
99868SOL     OW 1500   3.649   3.933   8.786
99868SOL    HW1 1501   3.668   3.888   8.868
99868SOL    HW2 1502   3.587   4.001   8.810
99869SOL     OW 1503  11.772  12.783   0.075
99869SOL    HW1 1504  11.854  12.770   0.121
99869SOL    HW2 1505  11.739  12.867   0.106
99870SOL     OW 1506  12.889  13.703   0.953
99870SOL    HW1 1507  12.972  13.743   0.978
99870SOL    HW2 1508  12.828  13.777   0.945
99871SOL     OW 1509   5.101   8.980  14.190
99871SOL    HW1 1510   5.043   9.050  14.161
99871SOL    HW2 1511   5.048   8.900  14.185
99872SOL     OW 1512  10.150  10.554  13.059
99872SOL    HW1 1513  10.110  10.582  13.142
99872SOL    HW2 1514  10.197  10.474  13.081
99873SOL     OW 1515   5.801   5.856   3.342
99873SOL    HW1 1516   5.741   5.786   3.368
99873SOL    HW2 1517   5.768   5.934   3.388
99874SOL     OW 1518  11.850   0.361   9.803
99874SOL    HW1 1519  11.935   0.405   9.795
99874SOL    HW2 1520  11.817   0.389   9.889
99875SOL     OW 1521   2.666   4.261   1.984
99875SOL    HW1 1522   2.633   4.326   2.047
99875SOL    HW2 1523   2.639   4.177   2.020
99876SOL     OW 1524  12.164   9.056   4.350
99876SOL    HW1 1525  12.207   9.071   4.434
99876SOL    HW2 1526  12.134   8.965   4.354
99877SOL     OW 1527   3.136   7.235  14.832
99877SOL    HW1 1528   3.202   7.276  14.776
99877SOL    HW2 1529   3.094   7.308   0.010
99878SOL     OW 1530  12.986   2.119   1.908
99878SOL    HW1 1531  12.915   2.099   1.970
99878SOL    HW2 1532  13.056   2.153   1.963
99879SOL     OW 1533  11.690   2.723   3.857
99879SOL    HW1 1534  11.615   2.753   3.909
99879SOL    HW2 1535  11.652   2.698   3.773
99880SOL     OW 1536   4.287  13.949   2.968
99880SOL    HW1 1537   4.285  13.926   2.875
99880SOL    HW2 1538   4.345  13.884   3.007
99881SOL     OW 1539   3.363  11.434  11.510
99881SOL    HW1 1540   3.389  11.513  11.461
99881SOL    HW2 1541   3.411  11.442  11.593
99882SOL     OW 1542   5.763   6.982  14.610
99882SOL    HW1 1543   5.754   7.077  14.603
99882SOL    HW2 1544   5.759   6.964  14.703
99883SOL     OW 1545   2.650   4.513   8.003
99883SOL    HW1 1546   2.686   4.498   7.916
99883SOL    HW2 1547   2.623   4.605   8.003
99884SOL     OW 1548   6.519   8.042   8.368
99884SOL    HW1 1549   6.498   7.969   8.311
99884SOL    HW2 1550   6.612   8.030   8.389
99885SOL     OW 1551   5.797   8.755   2.342
99885SOL    HW1 1552   5.758   8.802   2.416
99885SOL    HW2 1553   5.754   8.792   2.265
99886SOL     OW 1554   9.851   1.762   2.851
99886SOL    HW1 1555   9.881   1.852   2.837
99886SOL    HW2 1556   9.818   1.762   2.941
99887SOL     OW 1557   4.116  14.245   3.372
99887SOL    HW1 1558   4.023  14.264   3.366
99887SOL    HW2 1559   4.135  14.192   3.294
99888SOL     OW 1560  11.203   3.699   7.853
99888SOL    HW1 1561  11.130   3.639   7.865
99888SOL    HW2 1562  11.280   3.648   7.879
99889SOL     OW 1563   1.828  14.283   5.141
99889SOL    HW1 1564   1.840  14.282   5.046
99889SOL    HW2 1565   1.916  14.283   5.177
99890SOL     OW 1566   3.142   6.243  11.918
99890SOL    HW1 1567   3.063   6.188  11.919
99890SOL    HW2 1568   3.215   6.181  11.917
99891SOL     OW 1569   7.935   7.364   5.959
99891SOL    HW1 1570   7.883   7.429   6.007
99891SOL    HW2 1571   7.883   7.346   5.881
99892SOL     OW 1572  12.681   2.614  13.671
99892SOL    HW1 1573  12.589   2.609  13.697
99892SOL    HW2 1574  12.728   2.626  13.753
99893SOL     OW 1575   8.916  13.363   7.961
99893SOL    HW1 1576   8.939  13.427   8.028
99893SOL    HW2 1577   8.950  13.280   7.994
99894SOL     OW 1578   1.814  13.706  12.173
99894SOL    HW1 1579   1.847  13.776  12.229
99894SOL    HW2 1580   1.721  13.700  12.195
99895SOL     OW 1581  14.021   9.583   4.168
99895SOL    HW1 1582  14.069   9.574   4.250
99895SOL    HW2 1583  13.975   9.500   4.158
99896SOL     OW 1584   2.661  14.041  11.580
99896SOL    HW1 1585   2.689  14.069  11.493
99896SOL    HW2 1586   2.653  14.123  11.630
99897SOL     OW 1587   9.066  13.242   4.028
99897SOL    HW1 1588   8.997  13.286   3.978
99897SOL    HW2 1589   9.066  13.152   3.993
99898SOL     OW 1590   9.276  13.448  11.665
99898SOL    HW1 1591   9.227  13.447  11.747
99898SOL    HW2 1592   9.313  13.360  11.657
99899SOL     OW 1593  11.527   9.668   6.468
99899SOL    HW1 1594  11.456   9.650   6.530
99899SOL    HW2 1595  11.574   9.742   6.506
99900SOL     OW 1596   8.157   3.139   2.059
99900SOL    HW1 1597   8.212   3.068   2.027
99900SOL    HW2 1598   8.212   3.217   2.055
99901SOL     OW 1599   3.091  13.530  13.819
99901SOL    HW1 1600   3.001  13.498  13.825
99901SOL    HW2 1601   3.096  13.568  13.731
99902SOL     OW 1602  14.740  10.078  13.178
99902SOL    HW1 1603  14.663  10.135  13.181
99902SOL    HW2 1604  14.734  10.024  13.256
99903SOL     OW 1605   2.378   0.546   6.744
99903SOL    HW1 1606   2.292   0.556   6.784
99903SOL    HW2 1607   2.396   0.631   6.704
99904SOL     OW 1608   1.451  10.286   2.181
99904SOL    HW1 1609   1.469  10.327   2.265
99904SOL    HW2 1610   1.439  10.359   2.120
99905SOL     OW 1611   2.989   6.612  14.640
99905SOL    HW1 1612   2.958   6.594  14.729
99905SOL    HW2 1613   2.909   6.617  14.587
99906SOL     OW 1614  14.522   6.535   2.205
99906SOL    HW1 1615  14.528   6.442   2.226
99906SOL    HW2 1616  14.469   6.538   2.125
99907SOL     OW 1617   5.567  13.419  13.610
99907SOL    HW1 1618   5.542  13.509  13.630
99907SOL    HW2 1619   5.551  13.371  13.691
99908SOL     OW 1620  13.441  12.594   7.533
99908SOL    HW1 1621  13.488  12.675   7.556
99908SOL    HW2 1622  13.497  12.552   7.469
99909SOL     OW 1623   7.142   3.855   4.734
99909SOL    HW1 1624   7.141   3.883   4.643
99909SOL    HW2 1625   7.203   3.781   4.736
99910SOL     OW 1626   0.910   2.183   7.287
99910SOL    HW1 1627   0.886   2.222   7.371
99910SOL    HW2 1628   0.985   2.234   7.257
99911SOL     OW 1629  12.473  14.358   0.808
99911SOL    HW1 1630  12.567  14.373   0.797
99911SOL    HW2 1631  12.459  14.268   0.776
99912SOL     OW 1632  14.353   7.819  10.196
99912SOL    HW1 1633  14.266   7.807  10.157
99912SOL    HW2 1634  14.394   7.885  10.141
99913SOL     OW 1635   2.351   8.432   3.369
99913SOL    HW1 1636   2.289   8.397   3.433
99913SOL    HW2 1637   2.298   8.449   3.291
99914SOL     OW 1638   3.875  14.554   4.288
99914SOL    HW1 1639   3.889  14.608   4.211
99914SOL    HW2 1640   3.907  14.467   4.262
99915SOL     OW 1641   1.557   6.896   9.551
99915SOL    HW1 1642   1.573   6.850   9.633
99915SOL    HW2 1643   1.473   6.941   9.564
99916SOL     OW 1644   4.286  14.062  14.542
99916SOL    HW1 1645   4.285  13.968  14.559
99916SOL    HW2 1646   4.263  14.070  14.449
99917SOL     OW 1647   2.652   1.512   0.476
99917SOL    HW1 1648   2.657   1.550   0.563
99917SOL    HW2 1649   2.686   1.423   0.486
99918SOL     OW 1650   7.033   8.664   8.191
99918SOL    HW1 1651   6.943   8.632   8.200
99918SOL    HW2 1652   7.070   8.612   8.119
99919SOL     OW 1653   4.108   1.569  10.833
99919SOL    HW1 1654   4.040   1.599  10.773
99919SOL    HW2 1655   4.120   1.476  10.810
99920SOL     OW 1656   4.716   9.319  10.203
99920SOL    HW1 1657   4.641   9.261  10.217
99920SOL    HW2 1658   4.687   9.404  10.235
99921SOL     OW 1659   4.460   8.085   2.189
99921SOL    HW1 1660   4.383   8.082   2.132
99921SOL    HW2 1661   4.447   8.013   2.251
99922SOL     OW 1662   1.177  13.116  14.055
99922SOL    HW1 1663   1.162  13.106  13.961
99922SOL    HW2 1664   1.240  13.048  14.077
99923SOL     OW 1665   3.353  13.477  12.904
99923SOL    HW1 1666   3.416  13.545  12.926
99923SOL    HW2 1667   3.330  13.494  12.812
99924SOL     OW 1668  10.789  11.177   4.987
99924SOL    HW1 1669  10.843  11.098   4.981
99924SOL    HW2 1670  10.748  11.185   4.901
99925SOL     OW 1671   6.014   6.155   3.967
99925SOL    HW1 1672   5.987   6.165   4.058
99925SOL    HW2 1673   6.085   6.218   3.956
99926SOL     OW 1674   7.314  10.037   5.089
99926SOL    HW1 1675   7.314   9.977   5.163
99926SOL    HW2 1676   7.274  10.117   5.123
99927SOL     OW 1677   7.841   0.992   2.525
99927SOL    HW1 1678   7.760   0.956   2.562
99927SOL    HW2 1679   7.839   1.085   2.549
99928SOL     OW 1680   1.178   8.195   0.905
99928SOL    HW1 1681   1.169   8.214   0.812
99928SOL    HW2 1682   1.255   8.245   0.933
99929SOL     OW 1683  10.313   5.526   2.378
99929SOL    HW1 1684  10.385   5.526   2.441
99929SOL    HW2 1685  10.354   5.507   2.294
99930SOL     OW 1686   6.462   7.466  10.169
99930SOL    HW1 1687   6.443   7.382  10.127
99930SOL    HW2 1688   6.524   7.444  10.239
99931SOL     OW 1689  13.099   7.010   7.611
99931SOL    HW1 1690  13.171   6.985   7.668
99931SOL    HW2 1691  13.085   7.103   7.630
99932SOL     OW 1692   3.333  13.374   3.385
99932SOL    HW1 1693   3.243  13.382   3.356
99932SOL    HW2 1694   3.386  13.394   3.307
99933SOL     OW 1695   9.623   8.538   1.175
99933SOL    HW1 1696   9.677   8.616   1.188
99933SOL    HW2 1697   9.682   8.464   1.193
99934SOL     OW 1698   6.636   4.657  13.347
99934SOL    HW1 1699   6.704   4.703  13.298
99934SOL    HW2 1700   6.561   4.655  13.288
99935SOL     OW 1701   9.973   2.428   2.077
99935SOL    HW1 1702   9.927   2.496   2.028
99935SOL    HW2 1703   9.906   2.387   2.131
99936SOL     OW 1704  13.526   9.856   7.087
99936SOL    HW1 1705  13.596   9.858   7.021
99936SOL    HW2 1706  13.449   9.887   7.040
99937SOL     OW 1707   1.196   2.901  11.293
99937SOL    HW1 1708   1.122   2.958  11.272
99937SOL    HW2 1709   1.155   2.823  11.330
99938SOL     OW 1710   6.805  12.491   1.569
99938SOL    HW1 1711   6.899  12.475   1.563
99938SOL    HW2 1712   6.798  12.570   1.623
99939SOL     OW 1713  14.056   2.553   5.188
99939SOL    HW1 1714  14.136   2.500   5.193
99939SOL    HW2 1715  14.077   2.622   5.126
99940SOL     OW 1716  13.183   7.029  14.065
99940SOL    HW1 1717  13.174   6.974  14.142
99940SOL    HW2 1718  13.275   7.023  14.041
99941SOL     OW 1719   5.104   2.832  13.760
99941SOL    HW1 1720   5.186   2.784  13.761
99941SOL    HW2 1721   5.100   2.871  13.673
99942SOL     OW 1722   1.880   5.923   0.889
99942SOL    HW1 1723   1.938   5.991   0.855
99942SOL    HW2 1724   1.860   5.868   0.813
99943SOL     OW 1725   0.101  11.275   8.133
99943SOL    HW1 1726   0.013  11.258   8.166
99943SOL    HW2 1727   0.131  11.190   8.099
99944SOL     OW 1728  13.742   2.825   1.450
99944SOL    HW1 1729  13.653   2.839   1.417
99944SOL    HW2 1730  13.743   2.734   1.478
99945SOL     OW 1731   7.767  11.131  14.127
99945SOL    HW1 1732   7.827  11.111  14.199
99945SOL    HW2 1733   7.802  11.083  14.052
99946SOL     OW 1734  12.528   5.546  14.606
99946SOL    HW1 1735  12.599   5.601  14.575
99946SOL    HW2 1736  12.460   5.608  14.634
99947SOL     OW 1737  14.026   9.578   8.385
99947SOL    HW1 1738  14.095   9.590   8.321
99947SOL    HW2 1739  14.053   9.503   8.437
99948SOL     OW 1740   1.992   2.773  10.863
99948SOL    HW1 1741   2.005   2.812  10.777
99948SOL    HW2 1742   1.972   2.846  10.921
99949SOL     OW 1743   4.573   0.578   8.389
99949SOL    HW1 1744   4.641   0.630   8.432
99949SOL    HW2 1745   4.509   0.642   8.360
99950SOL     OW 1746   8.400  13.783  12.409
99950SOL    HW1 1747   8.415  13.690  12.425
99950SOL    HW2 1748   8.435  13.827  12.487
99951SOL     OW 1749   0.021  13.775   0.749
99951SOL    HW1 1750   0.044  13.692   0.707
99951SOL    HW2 1751   0.100  13.801   0.797
99952SOL     OW 1752  13.801   7.923   0.236
99952SOL    HW1 1753  13.757   7.935   0.320
99952SOL    HW2 1754  13.766   7.840   0.203
99953SOL     OW 1755   6.470   5.512   5.248
99953SOL    HW1 1756   6.508   5.591   5.284
99953SOL    HW2 1757   6.399   5.543   5.191
99954SOL     OW 1758   2.697   6.339   0.147
99954SOL    HW1 1759   2.647   6.387   0.080
99954SOL    HW2 1760   2.687   6.392   0.226
99955SOL     OW 1761   8.874  13.332   3.861
99955SOL    HW1 1762   8.851  13.326   3.768
99955SOL    HW2 1763   8.791  13.350   3.905
99956SOL     OW 1764  11.126   6.188   7.610
99956SOL    HW1 1765  11.179   6.238   7.547
99956SOL    HW2 1766  11.132   6.239   7.691
99957SOL     OW 1767  14.169  11.097   7.177
99957SOL    HW1 1768  14.092  11.066   7.225
99957SOL    HW2 1769  14.212  11.158   7.238
99958SOL     OW 1770   9.839   4.212  13.190
99958SOL    HW1 1771   9.926   4.208  13.149
99958SOL    HW2 1772   9.857   4.230  13.282
99959SOL     OW 1773  13.028   1.754  13.140
99959SOL    HW1 1774  12.938   1.731  13.117
99959SOL    HW2 1775  13.035   1.735  13.233
99960SOL     OW 1776   7.063  14.765   4.499
99960SOL    HW1 1777   7.043  14.806   4.415
99960SOL    HW2 1778   7.020  14.821   4.564
99961SOL     OW 1779   8.792   6.619  11.870
99961SOL    HW1 1780   8.827   6.707  11.890
99961SOL    HW2 1781   8.704   6.635  11.838
99962SOL     OW 1782   4.793   6.910   2.358
99962SOL    HW1 1783   4.821   6.989   2.403
99962SOL    HW2 1784   4.725   6.939   2.298
99963SOL     OW 1785   4.607   8.761   3.797
99963SOL    HW1 1786   4.521   8.794   3.823
99963SOL    HW2 1787   4.597   8.739   3.704
99964SOL     OW 1788  10.856   6.008  12.636
99964SOL    HW1 1789  10.899   6.054  12.564
99964SOL    HW2 1790  10.921   5.945  12.667
99965SOL     OW 1791  13.902  12.379   2.519
99965SOL    HW1 1792  13.955  12.310   2.479
99965SOL    HW2 1793  13.953  12.407   2.595
99966SOL     OW 1794   5.528   8.710   3.695
99966SOL    HW1 1795   5.557   8.781   3.752
99966SOL    HW2 1796   5.505   8.639   3.754
99967SOL     OW 1797  12.233   4.043   6.933
99967SOL    HW1 1798  12.300   3.990   6.975
99967SOL    HW2 1799  12.210   3.995   6.853
99968SOL     OW 1800   2.605   3.751   7.379
99968SOL    HW1 1801   2.519   3.708   7.374
99968SOL    HW2 1802   2.632   3.760   7.288
99969SOL     OW 1803   4.693   7.974  14.308
99969SOL    HW1 1804   4.730   7.987  14.220
99969SOL    HW2 1805   4.760   7.926  14.356
99970SOL     OW 1806   1.943  14.104   9.787
99970SOL    HW1 1807   2.033  14.133   9.775
99970SOL    HW2 1808   1.916  14.143   9.870
99971SOL     OW 1809   7.125   0.281   1.581
99971SOL    HW1 1810   7.156   0.327   1.659
99971SOL    HW2 1811   7.087   0.200   1.614
99972SOL     OW 1812  13.616   7.469   6.370
99972SOL    HW1 1813  13.633   7.375   6.378
99972SOL    HW2 1814  13.695   7.511   6.403
99973SOL     OW 1815   5.467   4.894  12.860
99973SOL    HW1 1816   5.467   4.853  12.773
99973SOL    HW2 1817   5.407   4.968  12.851
99974SOL     OW 1818  12.837   8.596   9.463
99974SOL    HW1 1819  12.882   8.603   9.379
99974SOL    HW2 1820  12.777   8.523   9.452
99975SOL     OW 1821  10.651   1.990   9.000
99975SOL    HW1 1822  10.710   1.921   9.029
99975SOL    HW2 1823  10.568   1.970   9.043
99976SOL     OW 1824  12.826  13.465   1.433
99976SOL    HW1 1825  12.817  13.427   1.345
99976SOL    HW2 1826  12.858  13.392   1.487
99977SOL     OW 1827   7.670  11.824  11.604
99977SOL    HW1 1828   7.619  11.898  11.638
99977SOL    HW2 1829   7.686  11.845  11.512
99978SOL     OW 1830   2.774  13.570   6.436
99978SOL    HW1 1831   2.729  13.545   6.356
99978SOL    HW2 1832   2.866  13.575   6.412
99979SOL     OW 1833   9.437  14.221   2.911
99979SOL    HW1 1834   9.374  14.173   2.857
99979SOL    HW2 1835   9.388  14.295   2.947
99980SOL     OW 1836   2.437   3.986   2.992
99980SOL    HW1 1837   2.510   3.924   2.990
99980SOL    HW2 1838   2.427   4.008   3.085
99981SOL     OW 1839   9.298   5.914   9.028
99981SOL    HW1 1840   9.320   5.954   8.943
99981SOL    HW2 1841   9.247   5.981   9.073
99982SOL     OW 1842   4.030  11.722   0.835
99982SOL    HW1 1843   3.945  11.678   0.829
99982SOL    HW2 1844   4.047  11.728   0.929
99983SOL     OW 1845   6.240   6.424   4.613
99983SOL    HW1 1846   6.221   6.518   4.620
99983SOL    HW2 1847   6.168   6.382   4.661
99984SOL     OW 1848   0.592  12.934   3.777
99984SOL    HW1 1849   0.555  12.847   3.762
99984SOL    HW2 1850   0.657  12.921   3.845
99985SOL     OW 1851   0.479   4.669   2.767
99985SOL    HW1 1852   0.505   4.751   2.727
99985SOL    HW2 1853   0.409   4.693   2.828
99986SOL     OW 1854   5.556   9.671   2.664
99986SOL    HW1 1855   5.504   9.734   2.714
99986SOL    HW2 1856   5.614   9.631   2.729
99987SOL     OW 1857   9.046   6.248   3.708
99987SOL    HW1 1858   9.067   6.287   3.623
99987SOL    HW2 1859   8.958   6.281   3.728
99988SOL     OW 1860   8.670  12.746  12.069
99988SOL    HW1 1861   8.675  12.815  12.002
99988SOL    HW2 1862   8.751  12.697  12.058
99989SOL     OW 1863   0.569   4.952   2.890
99989SOL    HW1 1864   0.651   4.995   2.913
99989SOL    HW2 1865   0.581   4.925   2.799
99990SOL     OW 1866   5.392   1.586   3.855
99990SOL    HW1 1867   5.371   1.494   3.841
99990SOL    HW2 1868   5.488   1.588   3.860
99991SOL     OW 1869   2.194  14.082   5.495
99991SOL    HW1 1870   2.269  14.135   5.470
99991SOL    HW2 1871   2.206  14.065   5.588
99992SOL     OW 1872   9.336   6.902  11.842
99992SOL    HW1 1873   9.419   6.889  11.798
99992SOL    HW2 1874   9.355   6.885  11.935
99993SOL     OW 1875  12.259  10.032  12.173
99993SOL    HW1 1876  12.194  10.092  12.210
99993SOL    HW2 1877  12.261   9.958  12.234
99994SOL     OW 1878   1.839   2.412   6.811
99994SOL    HW1 1879   1.823   2.388   6.719
99994SOL    HW2 1880   1.933   2.404   6.822
99995SOL     OW 1881   8.837   1.222  10.099
99995SOL    HW1 1882   8.845   1.130  10.073
99995SOL    HW2 1883   8.747   1.245  10.075
99996SOL     OW 1884   4.406   7.994   3.359
99996SOL    HW1 1885   4.500   7.982   3.365
99996SOL    HW2 1886   4.368   7.911   3.387
99997SOL     OW 1887   5.659  14.001   0.528
99997SOL    HW1 1888   5.610  13.993   0.446
99997SOL    HW2 1889   5.745  14.034   0.501
99998SOL     OW 1890   9.664  14.339   8.002
99998SOL    HW1 1891   9.608  14.270   8.037
99998SOL    HW2 1892   9.741  14.293   7.968
99999SOL     OW 1893   8.782  11.851   9.709
99999SOL    HW1 1894   8.730  11.771   9.708
99999SOL    HW2 1895   8.872  11.821   9.697
    0SOL     OW 1896  13.722   5.572   4.670
    0SOL    HW1 1897  13.760   5.580   4.582
    0SOL    HW2 1898  13.795   5.542   4.724
    1SOL     OW 1899   0.467   5.698  11.277
    1SOL    HW1 1900   0.482   5.662  11.189
    1SOL    HW2 1901   0.554   5.724  11.308
    2SOL     OW 1902  10.301   7.113   6.125
    2SOL    HW1 1903  10.212   7.098   6.092
    2SOL    HW2 1904  10.320   7.204   6.101
    3SOL     OW 1905   5.037   8.083   7.473
    3SOL    HW1 1906   5.127   8.092   7.440
    3SOL    HW2 1907   5.003   8.005   7.428
    4SOL     OW 1908  14.017   7.318   3.295
    4SOL    HW1 1909  13.923   7.322   3.278
    4SOL    HW2 1910  14.051   7.401   3.261
    5SOL     OW 1911  11.119  12.599  11.075
    5SOL    HW1 1912  11.101  12.508  11.100
    5SOL    HW2 1913  11.205  12.617  11.112
    6SOL     OW 1914   8.160   4.351   2.088
    6SOL    HW1 1915   8.092   4.416   2.102
    6SOL    HW2 1916   8.206   4.380   2.009
    7SOL     OW 1917   4.690   6.439  11.023
    7SOL    HW1 1918   4.708   6.396  11.106
    7SOL    HW2 1919   4.777   6.462  10.988
    8SOL     OW 1920   3.345   6.420  11.679
    8SOL    HW1 1921   3.430   6.379  11.689
    8SOL    HW2 1922   3.293   6.357  11.630
    9SOL     OW 1923   3.551  11.533   5.307
    9SOL    HW1 1924   3.617  11.585   5.261
    9SOL    HW2 1925   3.601  11.462   5.348
   10SOL     OW 1926   2.604  10.513   6.412
   10SOL    HW1 1927   2.693  10.500   6.379
   10SOL    HW2 1928   2.615  10.560   6.494
   11SOL     OW 1929   4.000   0.712   6.847
   11SOL    HW1 1930   4.022   0.623   6.819
   11SOL    HW2 1931   4.077   0.741   6.896
   12SOL     OW 1932   6.138   5.065  11.101
   12SOL    HW1 1933   6.058   5.098  11.060
   12SOL    HW2 1934   6.182   5.016  11.032
   13SOL     OW 1935   7.258   8.886  11.665
   13SOL    HW1 1936   7.270   8.862  11.757
   13SOL    HW2 1937   7.347   8.889  11.629
   14SOL     OW 1938   2.835  12.578  14.162
   14SOL    HW1 1939   2.764  12.634  14.193
   14SOL    HW2 1940   2.823  12.574  14.067
   15SOL     OW 1941  13.529   1.848   2.665
   15SOL    HW1 1942  13.560   1.890   2.745
   15SOL    HW2 1943  13.574   1.895   2.594
   16SOL     OW 1944   3.570   6.283  10.472
   16SOL    HW1 1945   3.491   6.306  10.423
   16SOL    HW2 1946   3.541   6.218  10.536
   17SOL     OW 1947  11.562  13.636  13.708
   17SOL    HW1 1948  11.581  13.597  13.622
   17SOL    HW2 1949  11.637  13.611  13.762
   18SOL     OW 1950  10.018   3.887   9.521
   18SOL    HW1 1951  10.009   3.982   9.514
   18SOL    HW2 1952  10.108   3.870   9.493
   19SOL     OW 1953   8.577  10.431   9.843
   19SOL    HW1 1954   8.520  10.443   9.919
   19SOL    HW2 1955   8.624  10.514   9.834
   20SOL     OW 1956   4.291  14.061   4.957
   20SOL    HW1 1957   4.263  14.133   5.012
   20SOL    HW2 1958   4.213  14.007   4.945
   21SOL     OW 1959   1.662   4.483   2.236
   21SOL    HW1 1960   1.580   4.530   2.223
   21SOL    HW2 1961   1.677   4.485   2.330
   22SOL     OW 1962   3.394   3.421   6.918
   22SOL    HW1 1963   3.393   3.329   6.892
   22SOL    HW2 1964   3.469   3.458   6.870
   23SOL     OW 1965   0.895  11.765  13.235
   23SOL    HW1 1966   0.961  11.726  13.179
   23SOL    HW2 1967   0.815  11.715  13.219
   24SOL     OW 1968  10.260  11.608   9.668
   24SOL    HW1 1969  10.353  11.609   9.687
   24SOL    HW2 1970  10.254  11.626   9.574
   25SOL     OW 1971  13.089  14.183   6.600
   25SOL    HW1 1972  13.139  14.252   6.556
   25SOL    HW2 1973  13.022  14.158   6.536
   26SOL     OW 1974   9.169  14.646   5.918
   26SOL    HW1 1975   9.175  14.741   5.928
   26SOL    HW2 1976   9.085  14.624   5.958
   27SOL     OW 1977  13.150   8.775   4.892
   27SOL    HW1 1978  13.121   8.748   4.979
   27SOL    HW2 1979  13.222   8.716   4.871
   28SOL     OW 1980   5.949   8.887   0.017
   28SOL    HW1 1981   5.994   8.807  14.859
   28SOL    HW2 1982   5.946   8.884   0.112
   29SOL     OW 1983  10.866   9.231   3.757
   29SOL    HW1 1984  10.921   9.297   3.800
   29SOL    HW2 1985  10.792   9.281   3.723
   30SOL     OW 1986  10.209   7.767   0.029
   30SOL    HW1 1987  10.140   7.725   0.080
   30SOL    HW2 1988  10.188   7.860   0.031
   31SOL     OW 1989   6.463  13.465  12.367
   31SOL    HW1 1990   6.528  13.461  12.296
   31SOL    HW2 1991   6.467  13.379  12.408
   32SOL     OW 1992  14.718   5.702  10.092
   32SOL    HW1 1993  14.791   5.745  10.049
   32SOL    HW2 1994  14.654   5.771  10.109
   33SOL     OW 1995   3.038   2.752   0.087
   33SOL    HW1 1996   3.070   2.764   0.176
   33SOL    HW2 1997   3.047   2.838   0.046
   34SOL     OW 1998   5.214   5.734   4.649
   34SOL    HW1 1999   5.229   5.815   4.697
   34SOL    HW2 2000   5.301   5.696   4.636
   35SOL     OW 2001   2.772  14.029  10.557
   35SOL    HW1 2002   2.853  14.080  10.550
   35SOL    HW2 2003   2.798  13.950  10.605
   36SOL     OW 2004  14.008   4.025   5.682
   36SOL    HW1 2005  14.088   4.057   5.642
   36SOL    HW2 2006  14.032   4.007   5.773
   37SOL     OW 2007   1.521   1.832   1.434
   37SOL    HW1 2008   1.575   1.853   1.358
   37SOL    HW2 2009   1.431   1.838   1.402
   38SOL     OW 2010   0.284   9.904   7.468
   38SOL    HW1 2011   0.285   9.856   7.385
   38SOL    HW2 2012   0.193   9.931   7.479
   39SOL     OW 2013   5.223   3.869   2.290
   39SOL    HW1 2014   5.275   3.929   2.236
   39SOL    HW2 2015   5.142   3.917   2.307
   40SOL     OW 2016   5.667   8.141   7.450
   40SOL    HW1 2017   5.695   8.211   7.392
   40SOL    HW2 2018   5.656   8.065   7.392
   41SOL     OW 2019   7.276   6.329   3.892
   41SOL    HW1 2020   7.255   6.251   3.944
   41SOL    HW2 2021   7.210   6.330   3.823
   42SOL     OW 2022   4.870   4.419  13.780
   42SOL    HW1 2023   4.832   4.435  13.866
   42SOL    HW2 2024   4.936   4.351  13.795
   43SOL     OW 2025   1.032   6.811  11.727
   43SOL    HW1 2026   1.068   6.822  11.639
   43SOL    HW2 2027   1.108   6.785  11.780
   44SOL     OW 2028   1.382  11.675  11.320
   44SOL    HW1 2029   1.370  11.770  11.321
   44SOL    HW2 2030   1.345  11.648  11.236
   45SOL     OW 2031   9.520   5.037   4.564
   45SOL    HW1 2032   9.521   4.991   4.480
   45SOL    HW2 2033   9.492   4.971   4.627
   46SOL     OW 2034   5.825  12.393   5.639
   46SOL    HW1 2035   5.833  12.405   5.545
   46SOL    HW2 2036   5.908  12.353   5.665
   47SOL     OW 2037  11.933   0.024   6.618
   47SOL    HW1 2038  12.005   0.008   6.679
   47SOL    HW2 2039  11.858  14.847   6.657
   48SOL     OW 2040   7.170   4.076   5.916
   48SOL    HW1 2041   7.203   3.986   5.915
   48SOL    HW2 2042   7.075   4.066   5.916
   49SOL     OW 2043   6.976   7.273   7.481
   49SOL    HW1 2044   6.936   7.353   7.516
   49SOL    HW2 2045   7.064   7.272   7.519
   50SOL     OW 2046  11.435   7.338  14.180
   50SOL    HW1 2047  11.479   7.259  14.208
   50SOL    HW2 2048  11.342   7.317  14.183
   51SOL     OW 2049   7.769   3.470  13.475
   51SOL    HW1 2050   7.862   3.458  13.455
   51SOL    HW2 2051   7.745   3.391  13.523
   52SOL     OW 2052   8.557  13.819  14.239
   52SOL    HW1 2053   8.601  13.883  14.184
   52SOL    HW2 2054   8.530  13.749  14.179
   53SOL     OW 2055   9.771   5.879   1.296
   53SOL    HW1 2056   9.755   5.968   1.266
   53SOL    HW2 2057   9.811   5.835   1.221
   54SOL     OW 2058   3.257  11.994  12.225
   54SOL    HW1 2059   3.334  11.938  12.236
   54SOL    HW2 2060   3.278  12.048  12.148
   55SOL     OW 2061  10.538   9.276  13.353
   55SOL    HW1 2062  10.443   9.270  13.368
   55SOL    HW2 2063  10.554   9.219  13.278
   56SOL     OW 2064   8.976  11.453   3.586
   56SOL    HW1 2065   9.034  11.428   3.514
   56SOL    HW2 2066   8.924  11.374   3.603
   57SOL     OW 2067   7.006   6.064   4.243
   57SOL    HW1 2068   7.067   6.127   4.206
   57SOL    HW2 2069   6.985   6.098   4.329
   58SOL     OW 2070  11.194   7.732   7.773
   58SOL    HW1 2071  11.268   7.791   7.784
   58SOL    HW2 2072  11.117   7.784   7.795
   59SOL     OW 2073   3.418   4.695   2.893
   59SOL    HW1 2074   3.370   4.613   2.889
   59SOL    HW2 2075   3.366   4.755   2.839
   60SOL     OW 2076   3.951   3.318   5.190
   60SOL    HW1 2077   3.879   3.378   5.212
   60SOL    HW2 2078   3.920   3.232   5.218
   61SOL     OW 2079  13.811  14.366   1.538
   61SOL    HW1 2080  13.743  14.365   1.605
   61SOL    HW2 2081  13.893  14.371   1.586
   62SOL     OW 2082  12.767   0.390   5.010
   62SOL    HW1 2083  12.793   0.482   5.004
   62SOL    HW2 2084  12.814   0.347   4.939
   63SOL     OW 2085   2.986   4.307   0.337
   63SOL    HW1 2086   2.951   4.384   0.382
   63SOL    HW2 2087   2.909   4.260   0.305
   64SOL     OW 2088   5.933  13.805  11.376
   64SOL    HW1 2089   5.976  13.882  11.412
   64SOL    HW2 2090   5.853  13.838  11.336
   65SOL     OW 2091   1.533  13.441   8.967
   65SOL    HW1 2092   1.509  13.379   8.898
   65SOL    HW2 2093   1.463  13.435   9.031
   66SOL     OW 2094   7.803  10.238  12.756
   66SOL    HW1 2095   7.865  10.310  12.745
   66SOL    HW2 2096   7.845  10.180  12.819
   67SOL     OW 2097   3.250   0.668   9.920
   67SOL    HW1 2098   3.326   0.622   9.885
   67SOL    HW2 2099   3.233   0.624  10.004
   68SOL     OW 2100  14.219   6.281   2.700
   68SOL    HW1 2101  14.306   6.311   2.675
   68SOL    HW2 2102  14.206   6.316   2.788
   69SOL     OW 2103   8.531   1.115   4.877
   69SOL    HW1 2104   8.472   1.044   4.852
   69SOL    HW2 2105   8.569   1.086   4.960
   70SOL     OW 2106   5.900   8.432  13.583
   70SOL    HW1 2107   5.893   8.495  13.655
   70SOL    HW2 2108   5.924   8.350  13.624
   71SOL     OW 2109   1.412  13.611   7.740
   71SOL    HW1 2110   1.495  13.607   7.786
   71SOL    HW2 2111   1.415  13.693   7.691
   72SOL     OW 2112  11.069   7.898   2.851
   72SOL    HW1 2113  11.029   7.911   2.765
   72SOL    HW2 2114  11.096   7.807   2.851
   73SOL     OW 2115  13.974  13.303   1.306
   73SOL    HW1 2116  14.011  13.380   1.350
   73SOL    HW2 2117  14.050  13.255   1.274
   74SOL     OW 2118  13.798   6.167   6.422
   74SOL    HW1 2119  13.764   6.245   6.465
   74SOL    HW2 2120  13.753   6.165   6.337
   75SOL     OW 2121  12.859   4.821   2.699
   75SOL    HW1 2122  12.854   4.874   2.778
   75SOL    HW2 2123  12.772   4.781   2.692
   76SOL     OW 2124   5.255   5.354   4.828
   76SOL    HW1 2125   5.214   5.399   4.903
   76SOL    HW2 2126   5.206   5.385   4.752
   77SOL     OW 2127  10.809  13.402  12.056
   77SOL    HW1 2128  10.822  13.496  12.043
   77SOL    HW2 2129  10.714  13.391  12.052
   78SOL     OW 2130   4.111   3.749   7.611
   78SOL    HW1 2131   4.080   3.722   7.698
   78SOL    HW2 2132   4.206   3.734   7.614
   79SOL     OW 2133  11.262  11.310   5.384
   79SOL    HW1 2134  11.343  11.329   5.432
   79SOL    HW2 2135  11.235  11.224   5.416
   80SOL     OW 2136  12.479   6.106   7.104
   80SOL    HW1 2137  12.392   6.090   7.066
   80SOL    HW2 2138  12.526   6.155   7.037
   81SOL     OW 2139   7.906   2.718  10.178
   81SOL    HW1 2140   7.843   2.789  10.165
   81SOL    HW2 2141   7.851   2.642  10.200
   82SOL     OW 2142   3.507  11.944   5.937
   82SOL    HW1 2143   3.488  12.008   5.868
   82SOL    HW2 2144   3.587  11.977   5.978
   83SOL     OW 2145   2.448  10.218   4.888
   83SOL    HW1 2146   2.488  10.220   4.801
   83SOL    HW2 2147   2.523  10.215   4.948
   84SOL     OW 2148   0.565   4.620  14.629
   84SOL    HW1 2149   0.646   4.613  14.679
   84SOL    HW2 2150   0.587   4.677  14.555
   85SOL     OW 2151   0.906  10.185   9.419
   85SOL    HW1 2152   0.911  10.274   9.454
   85SOL    HW2 2153   0.935  10.192   9.328
   86SOL     OW 2154   0.654   7.726  13.757
   86SOL    HW1 2155   0.684   7.757  13.672
   86SOL    HW2 2156   0.570   7.684  13.739
   87SOL     OW 2157  11.462   6.485   8.090
   87SOL    HW1 2158  11.533   6.472   8.153
   87SOL    HW2 2159  11.411   6.404   8.095
   88SOL     OW 2160   5.722   8.951   5.268
   88SOL    HW1 2161   5.813   8.967   5.295
   88SOL    HW2 2162   5.712   8.856   5.271
   89SOL     OW 2163   4.485  14.435   5.481
   89SOL    HW1 2164   4.402  14.470   5.515
   89SOL    HW2 2165   4.527  14.396   5.558
   90SOL     OW 2166  14.127   6.486  10.339
   90SOL    HW1 2167  14.094   6.574  10.322
   90SOL    HW2 2168  14.201   6.476  10.280
   91SOL     OW 2169   5.773   7.473   3.676
   91SOL    HW1 2170   5.733   7.553   3.710
   91SOL    HW2 2171   5.709   7.440   3.613
   92SOL     OW 2172   2.417  10.516   4.565
   92SOL    HW1 2173   2.432  10.512   4.470
   92SOL    HW2 2174   2.479  10.582   4.596
   93SOL     OW 2175  12.064  13.174   3.895
   93SOL    HW1 2176  12.139  13.196   3.839
   93SOL    HW2 2177  12.075  13.229   3.973
   94SOL     OW 2178  10.116  10.730   0.642
   94SOL    HW1 2179  10.120  10.729   0.737
   94SOL    HW2 2180  10.107  10.822   0.618
   95SOL     OW 2181  14.795   8.590   5.490
   95SOL    HW1 2182  14.712   8.638   5.494
   95SOL    HW2 2183  14.792   8.532   5.565
   96SOL     OW 2184   6.995   4.720  13.395
   96SOL    HW1 2185   6.956   4.679  13.318
   96SOL    HW2 2186   6.936   4.792  13.417
   97SOL     OW 2187   5.242   4.934   2.527
   97SOL    HW1 2188   5.215   4.961   2.614
   97SOL    HW2 2189   5.161   4.913   2.481
   98SOL     OW 2190   0.366   1.944  12.318
   98SOL    HW1 2191   0.433   1.957  12.386
   98SOL    HW2 2192   0.390   2.006  12.249
   99SOL     OW 2193  11.568   6.420  14.399
   99SOL    HW1 2194  11.557   6.338  14.352
   99SOL    HW2 2195  11.643   6.462  14.357
  100SOL     OW 2196  10.895  13.207   1.572
  100SOL    HW1 2197  10.895  13.166   1.658
  100SOL    HW2 2198  10.844  13.287   1.584
  101SOL     OW 2199  12.351  13.087   6.660
  101SOL    HW1 2200  12.339  13.161   6.600
  101SOL    HW2 2201  12.420  13.116   6.719
  102SOL     OW 2202   5.063  11.192  11.156
  102SOL    HW1 2203   5.020  11.233  11.080
  102SOL    HW2 2204   5.077  11.101  11.130
  103SOL     OW 2205  14.133   4.287   6.179
  103SOL    HW1 2206  14.072   4.359   6.162
  103SOL    HW2 2207  14.216   4.329   6.197
  104SOL     OW 2208   3.726   2.105  14.773
  104SOL    HW1 2209   3.821   2.102  14.766
  104SOL    HW2 2210   3.703   2.023  14.817
  105SOL     OW 2211   0.913  13.061   3.901
  105SOL    HW1 2212   0.885  12.978   3.939
  105SOL    HW2 2213   0.838  13.092   3.851
  106SOL     OW 2214  11.049   0.786   4.401
  106SOL    HW1 2215  11.044   0.865   4.455
  106SOL    HW2 2216  11.083   0.719   4.459
  107SOL     OW 2217  11.345   8.451   4.743
  107SOL    HW1 2218  11.415   8.446   4.809
  107SOL    HW2 2219  11.357   8.537   4.702
  108SOL     OW 2220   0.755   5.301   4.726
  108SOL    HW1 2221   0.665   5.279   4.706
  108SOL    HW2 2222   0.803   5.219   4.712
  109SOL     OW 2223  11.969  10.656   6.008
  109SOL    HW1 2224  11.877  10.658   6.032
  109SOL    HW2 2225  11.980  10.731   5.948
  110SOL     OW 2226   0.214   4.270   3.873
  110SOL    HW1 2227   0.190   4.203   3.810
  110SOL    HW2 2228   0.241   4.222   3.951
  111SOL     OW 2229   5.755  11.310  10.969
  111SOL    HW1 2230   5.731  11.263  11.048
  111SOL    HW2 2231   5.800  11.245  10.915
  112SOL     OW 2232   3.495  11.496   3.769
  112SOL    HW1 2233   3.504  11.586   3.800
  112SOL    HW2 2234   3.507  11.442   3.847
  113SOL     OW 2235   7.090   0.636  11.965
  113SOL    HW1 2236   7.010   0.638  12.017
  113SOL    HW2 2237   7.097   0.546  11.934
  114SOL     OW 2238  13.455  13.365   1.815
  114SOL    HW1 2239  13.448  13.433   1.749
  114SOL    HW2 2240  13.539  13.382   1.858
  115SOL     OW 2241  12.594   8.303   1.478
  115SOL    HW1 2242  12.550   8.242   1.536
  115SOL    HW2 2243  12.633   8.368   1.537
  116SOL     OW 2244   8.799  11.831   0.137
  116SOL    HW1 2245   8.846  11.809   0.218
  116SOL    HW2 2246   8.736  11.761   0.126
  117SOL     OW 2247   6.752   3.960   2.863
  117SOL    HW1 2248   6.839   3.920   2.866
  117SOL    HW2 2249   6.695   3.897   2.907
  118SOL     OW 2250   6.850   7.662  10.646
  118SOL    HW1 2251   6.846   7.665  10.551
  118SOL    HW2 2252   6.913   7.592  10.665
  119SOL     OW 2253   5.648   0.989   1.547
  119SOL    HW1 2254   5.621   0.964   1.458
  119SOL    HW2 2255   5.572   1.036   1.583
  120SOL     OW 2256   3.130   1.806  14.653
  120SOL    HW1 2257   3.083   1.777  14.575
  120SOL    HW2 2258   3.099   1.750  14.724
  121SOL     OW 2259   7.283   8.510   6.771
  121SOL    HW1 2260   7.202   8.535   6.816
  121SOL    HW2 2261   7.272   8.541   6.681
  122SOL     OW 2262  11.794   3.617   3.296
  122SOL    HW1 2263  11.874   3.581   3.260
  122SOL    HW2 2264  11.819   3.704   3.327
  123SOL     OW 2265   7.660   0.577  11.576
  123SOL    HW1 2266   7.615   0.510  11.525
  123SOL    HW2 2267   7.603   0.594  11.650
  124SOL     OW 2268  10.673   2.263  10.527
  124SOL    HW1 2269  10.703   2.350  10.500
  124SOL    HW2 2270  10.737   2.203  10.489
  125SOL     OW 2271   6.218  14.049   0.280
  125SOL    HW1 2272   6.159  14.010   0.216
  125SOL    HW2 2273   6.257  14.124   0.235
  126SOL     OW 2274   7.039  12.363   4.539
  126SOL    HW1 2275   7.114  12.366   4.480
  126SOL    HW2 2276   6.972  12.314   4.490
  127SOL     OW 2277   6.198  12.467   9.982
  127SOL    HW1 2278   6.205  12.515  10.064
  127SOL    HW2 2279   6.112  12.491   9.947
  128SOL     OW 2280  12.941  14.077   6.405
  128SOL    HW1 2281  12.884  14.117   6.340
  128SOL    HW2 2282  12.886  14.012   6.450
  129SOL     OW 2283   2.559   6.888   9.476
  129SOL    HW1 2284   2.618   6.879   9.402
  129SOL    HW2 2285   2.552   6.800   9.512
  130SOL     OW 2286   2.952   4.364   4.493
  130SOL    HW1 2287   2.898   4.353   4.415
  130SOL    HW2 2288   2.925   4.448   4.530
  131SOL     OW 2289   9.811  11.926  10.980
  131SOL    HW1 2290   9.719  11.913  10.957
  131SOL    HW2 2291   9.810  11.997  11.044
  132SOL     OW 2292  10.066   8.720   1.947
  132SOL    HW1 2293  10.121   8.641   1.957
  132SOL    HW2 2294  10.030   8.735   2.034
  133SOL     OW 2295   6.154   4.449   6.657
  133SOL    HW1 2296   6.180   4.482   6.571
  133SOL    HW2 2297   6.097   4.517   6.693
  134SOL     OW 2298   0.705   9.456  14.097
  134SOL    HW1 2299   0.634   9.422  14.152
  134SOL    HW2 2300   0.674   9.542  14.068
  135SOL     OW 2301   9.481  10.602   0.323
  135SOL    HW1 2302   9.445  10.520   0.289
  135SOL    HW2 2303   9.450  10.669   0.262
  136SOL     OW 2304  12.459   0.618  10.407
  136SOL    HW1 2305  12.370   0.648  10.391
  136SOL    HW2 2306  12.470   0.624  10.502
  137SOL     OW 2307  14.341   0.422   6.979
  137SOL    HW1 2308  14.392   0.396   7.056
  137SOL    HW2 2309  14.406   0.457   6.919
  138SOL     OW 2310  12.360   7.262  12.882
  138SOL    HW1 2311  12.394   7.318  12.952
  138SOL    HW2 2312  12.428   7.266  12.814
  139SOL     OW 2313   0.451   6.805   7.648
  139SOL    HW1 2314   0.474   6.816   7.556
  139SOL    HW2 2315   0.529   6.834   7.696
  140SOL     OW 2316   1.683   0.868  13.073
  140SOL    HW1 2317   1.681   0.850  13.167
  140SOL    HW2 2318   1.756   0.929  13.062
  141SOL     OW 2319  14.125   9.998   4.181
  141SOL    HW1 2320  14.117  10.027   4.272
  141SOL    HW2 2321  14.041  10.024   4.141
  142SOL     OW 2322  11.050   7.958   8.251
  142SOL    HW1 2323  11.119   7.914   8.201
  142SOL    HW2 2324  11.056   7.919   8.338
  143SOL     OW 2325   1.470   9.784  10.162
  143SOL    HW1 2326   1.462   9.696  10.201
  143SOL    HW2 2327   1.402   9.835  10.205
  144SOL     OW 2328   0.116   7.888   1.777
  144SOL    HW1 2329   0.210   7.894   1.764
  144SOL    HW2 2330   0.079   7.919   1.694
  145SOL     OW 2331   8.771  14.062   3.206
  145SOL    HW1 2332   8.753  13.971   3.231
  145SOL    HW2 2333   8.756  14.112   3.286
  146SOL     OW 2334   5.286   9.235  12.961
  146SOL    HW1 2335   5.365   9.188  12.936
  146SOL    HW2 2336   5.225   9.167  12.988
  147SOL     OW 2337  13.321   2.205   5.528
  147SOL    HW1 2338  13.296   2.289   5.488
  147SOL    HW2 2339  13.255   2.191   5.596
  148SOL     OW 2340   0.935   0.028  11.803
  148SOL    HW1 2341   0.935   0.061  11.713
  148SOL    HW2 2342   1.026   0.038  11.831
  149SOL     OW 2343  14.694   2.230  14.039
  149SOL    HW1 2344  14.690   2.148  14.089
  149SOL    HW2 2345  14.760   2.213  13.971
  150SOL     OW 2346  14.576   0.348   6.525
  150SOL    HW1 2347  14.622   0.419   6.479
  150SOL    HW2 2348  14.629   0.270   6.508
  151SOL     OW 2349   8.281   5.843   5.369
  151SOL    HW1 2350   8.344   5.849   5.442
  151SOL    HW2 2351   8.202   5.886   5.402
  152SOL     OW 2352   9.215   7.363  13.565
  152SOL    HW1 2353   9.152   7.373  13.636
  152SOL    HW2 2354   9.279   7.300  13.598
  153SOL     OW 2355   2.651   3.833   2.896
  153SOL    HW1 2356   2.709   3.786   2.956
  153SOL    HW2 2357   2.705   3.906   2.864
  154SOL     OW 2358   9.717   7.252   4.085
  154SOL    HW1 2359   9.808   7.261   4.057
  154SOL    HW2 2360   9.671   7.322   4.039
  155SOL     OW 2361   0.323  13.130   6.255
  155SOL    HW1 2362   0.235  13.140   6.291
  155SOL    HW2 2363   0.315  13.057   6.192
  156SOL     OW 2364  13.237   6.329   6.819
  156SOL    HW1 2365  13.177   6.403   6.806
  156SOL    HW2 2366  13.320   6.371   6.845
  157SOL     OW 2367   5.293  10.363   2.224
  157SOL    HW1 2368   5.355  10.403   2.163
  157SOL    HW2 2369   5.316  10.401   2.309
  158SOL     OW 2370   9.984   4.038   6.795
  158SOL    HW1 2371  10.051   4.102   6.820
  158SOL    HW2 2372   9.947   4.073   6.714
  159SOL     OW 2373   0.816  14.321   0.233
  159SOL    HW1 2374   0.781  14.397   0.279
  159SOL    HW2 2375   0.907  14.316   0.261
  160SOL     OW 2376  13.214  11.545   8.420
  160SOL    HW1 2377  13.196  11.466   8.369
  160SOL    HW2 2378  13.133  11.596   8.417
  161SOL     OW 2379   4.866  12.576   1.190
  161SOL    HW1 2380   4.864  12.520   1.268
  161SOL    HW2 2381   4.958  12.597   1.178
  162SOL     OW 2382  13.275   3.256   1.196
  162SOL    HW1 2383  13.352   3.249   1.140
  162SOL    HW2 2384  13.234   3.170   1.192
  163SOL     OW 2385  13.895  12.362   8.750
  163SOL    HW1 2386  13.803  12.386   8.753
  163SOL    HW2 2387  13.904  12.306   8.673
  164SOL     OW 2388   4.598   3.795   5.636
  164SOL    HW1 2389   4.649   3.717   5.613
  164SOL    HW2 2390   4.536   3.805   5.563
  165SOL     OW 2391   4.079   1.776   2.443
  165SOL    HW1 2392   3.984   1.782   2.458
  165SOL    HW2 2393   4.093   1.816   2.358
  166SOL     OW 2394   3.185   0.241   4.763
  166SOL    HW1 2395   3.100   0.242   4.807
  166SOL    HW2 2396   3.242   0.190   4.822
  167SOL     OW 2397   8.034  14.583  14.174
  167SOL    HW1 2398   7.952  14.541  14.201
  167SOL    HW2 2399   8.024  14.674  14.203
  168SOL     OW 2400   0.385   0.566   7.304
  168SOL    HW1 2401   0.407   0.487   7.354
  168SOL    HW2 2402   0.425   0.637   7.354
  169SOL     OW 2403  10.976   2.132  13.479
  169SOL    HW1 2404  10.913   2.061  13.468
  169SOL    HW2 2405  11.043   2.096  13.538
  170SOL     OW 2406  14.743  14.740   0.695
  170SOL    HW1 2407  14.719  14.772   0.608
  170SOL    HW2 2408  14.660  14.709   0.733
  171SOL     OW 2409   7.263  13.206   3.759
  171SOL    HW1 2410   7.231  13.196   3.848
  171SOL    HW2 2411   7.345  13.256   3.769
  172SOL     OW 2412   2.876   4.819   3.015
  172SOL    HW1 2413   2.856   4.863   3.098
  172SOL    HW2 2414   2.822   4.863   2.950
  173SOL     OW 2415   9.045   7.875   8.386
  173SOL    HW1 2416   9.109   7.828   8.440
  173SOL    HW2 2417   8.996   7.928   8.449
  174SOL     OW 2418  11.865  14.738   4.530
  174SOL    HW1 2419  11.778  14.776   4.516
  174SOL    HW2 2420  11.893  14.774   4.614
  175SOL     OW 2421   4.566  13.940   3.175
  175SOL    HW1 2422   4.642  13.896   3.214
  175SOL    HW2 2423   4.520  13.870   3.129
  176SOL     OW 2424   6.816  11.822  14.390
  176SOL    HW1 2425   6.889  11.786  14.340
  176SOL    HW2 2426   6.741  11.768  14.365
  177SOL     OW 2427   8.810   8.422   0.335
  177SOL    HW1 2428   8.720   8.425   0.365
  177SOL    HW2 2429   8.823   8.503   0.287
  178SOL     OW 2430  14.732  11.524   1.513
  178SOL    HW1 2431  14.645  11.486   1.528
  178SOL    HW2 2432  14.719  11.583   1.439
  179SOL     OW 2433  11.400  14.337   7.081
  179SOL    HW1 2434  11.436  14.321   6.994
  179SOL    HW2 2435  11.449  14.413   7.113
  180SOL     OW 2436   5.419   6.418  12.259
  180SOL    HW1 2437   5.420   6.324  12.238
  180SOL    HW2 2438   5.505   6.449  12.233
  181SOL     OW 2439   6.409   6.605  11.855
  181SOL    HW1 2440   6.405   6.520  11.809
  181SOL    HW2 2441   6.324   6.645  11.838
  182SOL     OW 2442  13.515   4.315  12.107
  182SOL    HW1 2443  13.455   4.244  12.131
  182SOL    HW2 2444  13.464   4.372  12.050
  183SOL     OW 2445   7.322   1.225   5.286
  183SOL    HW1 2446   7.247   1.262   5.332
  183SOL    HW2 2447   7.341   1.287   5.216
  184SOL     OW 2448   6.433   8.406   3.545
  184SOL    HW1 2449   6.429   8.461   3.623
  184SOL    HW2 2450   6.519   8.425   3.507
  185SOL     OW 2451  14.733   5.631   4.075
  185SOL    HW1 2452  14.814   5.607   4.030
  185SOL    HW2 2453  14.756   5.711   4.124
  186SOL     OW 2454   6.043  13.766   1.354
  186SOL    HW1 2455   6.042  13.708   1.277
  186SOL    HW2 2456   5.960  13.750   1.397
  187SOL     OW 2457  14.248   5.128  12.212
  187SOL    HW1 2458  14.244   5.216  12.174
  187SOL    HW2 2459  14.320   5.085  12.167
  188SOL     OW 2460   9.599   9.718   3.602
  188SOL    HW1 2461   9.695   9.710   3.603
  188SOL    HW2 2462   9.575   9.724   3.694
  189SOL     OW 2463   1.588  13.663   6.821
  189SOL    HW1 2464   1.498  13.637   6.801
  189SOL    HW2 2465   1.609  13.616   6.902
  190SOL     OW 2466   4.922   5.140   6.312
  190SOL    HW1 2467   4.872   5.087   6.249
  190SOL    HW2 2468   4.976   5.076   6.359
  191SOL     OW 2469   6.036  13.237  11.604
  191SOL    HW1 2470   5.996  13.154  11.578
  191SOL    HW2 2471   5.985  13.304  11.558
  192SOL     OW 2472   8.323  14.039  10.405
  192SOL    HW1 2473   8.365  14.097  10.468
  192SOL    HW2 2474   8.243  14.085  10.380
  193SOL     OW 2475   2.863   7.757  14.128
  193SOL    HW1 2476   2.886   7.830  14.071
  193SOL    HW2 2477   2.778   7.728  14.095
  194SOL     OW 2478   1.200   9.354   0.691
  194SOL    HW1 2479   1.108   9.349   0.715
  194SOL    HW2 2480   1.246   9.366   0.774
  195SOL     OW 2481   9.572  10.539   3.813
  195SOL    HW1 2482   9.665  10.552   3.794
  195SOL    HW2 2483   9.571  10.499   3.900
  196SOL     OW 2484  12.473   7.141  10.300
  196SOL    HW1 2485  12.564   7.170  10.306
  196SOL    HW2 2486  12.435   7.196  10.231
  197SOL     OW 2487  10.324   9.595  14.789
  197SOL    HW1 2488  10.313   9.543  14.709
  197SOL    HW2 2489  10.266   9.669  14.778
  198SOL     OW 2490   0.783  10.790   7.026
  198SOL    HW1 2491   0.713  10.727   7.007
  198SOL    HW2 2492   0.861  10.737   7.039
  199SOL     OW 2493   4.663   9.009  11.802
  199SOL    HW1 2494   4.581   8.996  11.754
  199SOL    HW2 2495   4.643   9.080  11.863
  200SOL     OW 2496  13.988   6.080   7.081
  200SOL    HW1 2497  14.020   6.170   7.091
  200SOL    HW2 2498  14.046   6.041   7.015
  201SOL     OW 2499   2.575   0.938  10.423
  201SOL    HW1 2500   2.529   0.874  10.478
  201SOL    HW2 2501   2.512   0.959  10.354
  202SOL     OW 2502   3.395   3.158   0.892
  202SOL    HW1 2503   3.462   3.226   0.887
  202SOL    HW2 2504   3.323   3.198   0.940
  203SOL     OW 2505  12.261   0.592   1.140
  203SOL    HW1 2506  12.227   0.617   1.054
  203SOL    HW2 2507  12.192   0.618   1.201
  204SOL     OW 2508   5.040   1.784  12.312
  204SOL    HW1 2509   5.063   1.821  12.227
  204SOL    HW2 2510   5.057   1.855  12.374
  205SOL     OW 2511   8.593   3.615  12.086
  205SOL    HW1 2512   8.563   3.683  12.025
  205SOL    HW2 2513   8.513   3.577  12.121
  206SOL     OW 2514   5.637   5.891   4.566
  206SOL    HW1 2515   5.642   5.986   4.564
  206SOL    HW2 2516   5.578   5.872   4.639
  207SOL     OW 2517   5.591   9.722  13.561
  207SOL    HW1 2518   5.648   9.715  13.637
  207SOL    HW2 2519   5.636   9.782  13.501
  208SOL     OW 2520  10.987   3.714  13.753
  208SOL    HW1 2521  11.001   3.752  13.666
  208SOL    HW2 2522  10.912   3.761  13.788
  209SOL     OW 2523   0.720  14.303  10.919
  209SOL    HW1 2524   0.678  14.388  10.903
  209SOL    HW2 2525   0.740  14.305  11.013
  210SOL     OW 2526   0.737  13.916   9.253
  210SOL    HW1 2527   0.750  14.005   9.286
  210SOL    HW2 2528   0.643  13.910   9.238
  211SOL     OW 2529   9.504   9.537   0.771
  211SOL    HW1 2530   9.508   9.617   0.824
  211SOL    HW2 2531   9.535   9.564   0.685
  212SOL     OW 2532   1.720   5.372   1.040
  212SOL    HW1 2533   1.767   5.346   0.961
  212SOL    HW2 2534   1.629   5.344   1.025
  213SOL     OW 2535   2.587  13.818   6.434
  213SOL    HW1 2536   2.627  13.738   6.468
  213SOL    HW2 2537   2.572  13.873   6.510
  214SOL     OW 2538  10.131   8.430   8.494
  214SOL    HW1 2539  10.147   8.481   8.414
  214SOL    HW2 2540  10.114   8.341   8.463
  215SOL     OW 2541  10.788   3.300   7.775
  215SOL    HW1 2542  10.715   3.351   7.741
  215SOL    HW2 2543  10.750   3.250   7.847
  216SOL     OW 2544  13.621   8.654  11.422
  216SOL    HW1 2545  13.643   8.623  11.335
  216SOL    HW2 2546  13.577   8.579  11.464
  217SOL     OW 2547   0.810  11.910   2.328
  217SOL    HW1 2548   0.789  11.821   2.297
  217SOL    HW2 2549   0.905  11.911   2.333
  218SOL     OW 2550   4.823  12.118   7.435
  218SOL    HW1 2551   4.885  12.128   7.363
  218SOL    HW2 2552   4.737  12.124   7.394
  219SOL     OW 2553   3.779  10.113   0.557
  219SOL    HW1 2554   3.763  10.184   0.618
  219SOL    HW2 2555   3.872  10.093   0.566
  220SOL     OW 2556  10.899   8.954   0.767
  220SOL    HW1 2557  10.976   8.993   0.725
  220SOL    HW2 2558  10.917   8.860   0.768
  221SOL     OW 2559  14.005   7.203   0.313
  221SOL    HW1 2560  14.092   7.182   0.347
  221SOL    HW2 2561  13.946   7.145   0.361
  222SOL     OW 2562   9.481   8.071  13.762
  222SOL    HW1 2563   9.432   8.053  13.681
  222SOL    HW2 2564   9.556   8.013  13.758
  223SOL     OW 2565  13.363   0.635   6.280
  223SOL    HW1 2566  13.437   0.688   6.252
  223SOL    HW2 2567  13.345   0.663   6.370
  224SOL     OW 2568   1.430   6.619  14.501
  224SOL    HW1 2569   1.515   6.578  14.518
  224SOL    HW2 2570   1.447   6.713  14.500
  225SOL     OW 2571   9.034  12.214   1.006
  225SOL    HW1 2572   9.102  12.148   0.994
  225SOL    HW2 2573   9.065  12.267   1.079
  226SOL     OW 2574   6.289   0.283   2.323
  226SOL    HW1 2575   6.209   0.334   2.336
  226SOL    HW2 2576   6.292   0.265   2.229
  227SOL     OW 2577   2.177   0.745   1.385
  227SOL    HW1 2578   2.204   0.836   1.372
  227SOL    HW2 2579   2.259   0.697   1.393
  228SOL     OW 2580  11.441   2.622  14.639
  228SOL    HW1 2581  11.428   2.683  14.711
  228SOL    HW2 2582  11.535   2.608  14.635
  229SOL     OW 2583   3.335  14.044  12.551
  229SOL    HW1 2584   3.390  14.093  12.612
  229SOL    HW2 2585   3.257  14.099  12.539
  230SOL     OW 2586   8.938   4.804   3.314
  230SOL    HW1 2587   9.009   4.810   3.249
  230SOL    HW2 2588   8.884   4.731   3.283
  231SOL     OW 2589   2.987  14.197  13.145
  231SOL    HW1 2590   3.019  14.283  13.116
  231SOL    HW2 2591   3.062  14.157  13.188
  232SOL     OW 2592   5.339   5.722  11.022
  232SOL    HW1 2593   5.366   5.631  11.016
  232SOL    HW2 2594   5.395   5.759  11.091
  233SOL     OW 2595   6.372   2.223   3.847
  233SOL    HW1 2596   6.358   2.189   3.759
  233SOL    HW2 2597   6.286   2.254   3.875
  234SOL     OW 2598  11.652  10.331  12.082
  234SOL    HW1 2599  11.603  10.250  12.094
  234SOL    HW2 2600  11.598  10.398  12.123
  235SOL     OW 2601  10.090   2.678  13.660
  235SOL    HW1 2602  10.099   2.749  13.597
  235SOL    HW2 2603  10.063   2.721  13.741
  236SOL     OW 2604   5.588   1.275  12.960
  236SOL    HW1 2605   5.550   1.196  12.997
  236SOL    HW2 2606   5.528   1.300  12.889
  237SOL     OW 2607   9.660   1.521   6.459
  237SOL    HW1 2608   9.679   1.591   6.522
  237SOL    HW2 2609   9.628   1.567   6.381
  238SOL     OW 2610   3.872  10.950   5.843
  238SOL    HW1 2611   3.823  10.867   5.837
  238SOL    HW2 2612   3.808  11.012   5.877
  239SOL     OW 2613   1.876   3.148   3.908
  239SOL    HW1 2614   1.958   3.196   3.900
  239SOL    HW2 2615   1.870   3.097   3.827
  240SOL     OW 2616   4.494  12.255   4.699
  240SOL    HW1 2617   4.504  12.336   4.649
  240SOL    HW2 2618   4.471  12.284   4.788
  241SOL     OW 2619   7.021  11.365  11.748
  241SOL    HW1 2620   6.953  11.368  11.815
  241SOL    HW2 2621   7.093  11.417  11.784
  242SOL     OW 2622  13.656  11.723   3.266
  242SOL    HW1 2623  13.597  11.798   3.280
  242SOL    HW2 2624  13.607  11.648   3.299
  243SOL     OW 2625   0.512   0.615  11.103
  243SOL    HW1 2626   0.562   0.656  11.032
  243SOL    HW2 2627   0.527   0.672  11.179
  244SOL     OW 2628   4.756   2.286   0.494
  244SOL    HW1 2629   4.800   2.220   0.547
  244SOL    HW2 2630   4.663   2.265   0.501
  245SOL     OW 2631   6.498   6.311   4.643
  245SOL    HW1 2632   6.404   6.316   4.628
  245SOL    HW2 2633   6.536   6.367   4.575
  246SOL     OW 2634   3.285  14.168   3.243
  246SOL    HW1 2635   3.274  14.132   3.331
  246SOL    HW2 2636   3.288  14.263   3.256
  247SOL     OW 2637   9.960   3.127   5.320
  247SOL    HW1 2638  10.024   3.193   5.296
  247SOL    HW2 2639   9.877   3.174   5.324
  248SOL     OW 2640  10.896  12.561  13.706
  248SOL    HW1 2641  10.934  12.475  13.722
  248SOL    HW2 2642  10.905  12.608  13.789
  249SOL     OW 2643  10.841  10.653   0.435
  249SOL    HW1 2644  10.806  10.741   0.444
  249SOL    HW2 2645  10.850  10.622   0.525
  250SOL     OW 2646   2.050  11.853   2.314
  250SOL    HW1 2647   2.019  11.939   2.342
  250SOL    HW2 2648   2.093  11.817   2.392
  251SOL     OW 2649   7.659   0.907   0.760
  251SOL    HW1 2650   7.563   0.911   0.767
  251SOL    HW2 2651   7.675   0.883   0.669
  252SOL     OW 2652   1.993  13.104  13.574
  252SOL    HW1 2653   2.000  13.199  13.581
  252SOL    HW2 2654   2.017  13.084  13.484
  253SOL     OW 2655   1.406   1.853   8.060
  253SOL    HW1 2656   1.436   1.808   7.981
  253SOL    HW2 2657   1.312   1.865   8.047
  254SOL     OW 2658   3.168   1.514   7.829
  254SOL    HW1 2659   3.173   1.544   7.920
  254SOL    HW2 2660   3.075   1.524   7.806
  255SOL     OW 2661   0.173  14.154   6.403
  255SOL    HW1 2662   0.213  14.228   6.448
  255SOL    HW2 2663   0.221  14.077   6.434
  256SOL     OW 2664   5.960  12.252  12.195
  256SOL    HW1 2665   5.946  12.309  12.119
  256SOL    HW2 2666   5.974  12.312  12.268
  257SOL     OW 2667  11.651   7.575  12.953
  257SOL    HW1 2668  11.656   7.577  13.049
  257SOL    HW2 2669  11.586   7.508  12.933
  258SOL     OW 2670   4.644   5.052   7.391
  258SOL    HW1 2671   4.737   5.064   7.370
  258SOL    HW2 2672   4.628   5.111   7.465
  259SOL     OW 2673   1.108   3.551   6.834
  259SOL    HW1 2674   1.124   3.554   6.739
  259SOL    HW2 2675   1.119   3.642   6.862
  260SOL     OW 2676  10.389  12.637   1.714
  260SOL    HW1 2677  10.437  12.687   1.648
  260SOL    HW2 2678  10.440  12.649   1.795
  261SOL     OW 2679   0.696  11.218  13.942
  261SOL    HW1 2680   0.674  11.139  13.893
  261SOL    HW2 2681   0.727  11.280  13.876
  262SOL     OW 2682   5.877   5.034  14.801
  262SOL    HW1 2683   5.888   4.942  14.824
  262SOL    HW2 2684   5.921   5.043  14.716
  263SOL     OW 2685   6.134   2.838   4.856
  263SOL    HW1 2686   6.104   2.836   4.947
  263SOL    HW2 2687   6.067   2.789   4.808
  264SOL     OW 2688  10.787   8.218   6.909
  264SOL    HW1 2689  10.722   8.159   6.869
  264SOL    HW2 2690  10.812   8.278   6.839
  265SOL     OW 2691  10.714   8.612  10.439
  265SOL    HW1 2692  10.802   8.573  10.439
  265SOL    HW2 2693  10.707   8.656  10.523
  266SOL     OW 2694  10.637   6.095  12.142
  266SOL    HW1 2695  10.718   6.045  12.140
  266SOL    HW2 2696  10.571   6.034  12.174
  267SOL     OW 2697   2.417   2.343   6.155
  267SOL    HW1 2698   2.387   2.299   6.076
  267SOL    HW2 2699   2.445   2.429   6.125
  268SOL     OW 2700   0.787   9.662   8.185
  268SOL    HW1 2701   0.805   9.593   8.122
  268SOL    HW2 2702   0.868   9.670   8.236
  269SOL     OW 2703   2.475   5.088   0.955
  269SOL    HW1 2704   2.417   5.018   0.926
  269SOL    HW2 2705   2.537   5.045   1.013
  270SOL     OW 2706   6.553  14.834  14.446
  270SOL    HW1 2707   6.583   0.016  14.521
  270SOL    HW2 2708   6.473  14.791  14.476
  271SOL     OW 2709   9.473   5.349   6.060
  271SOL    HW1 2710   9.501   5.351   5.968
  271SOL    HW2 2711   9.423   5.430   6.071
  272SOL     OW 2712   0.774  11.695   0.717
  272SOL    HW1 2713   0.764  11.779   0.762
  272SOL    HW2 2714   0.868  11.677   0.720
  273SOL     OW 2715  14.566  14.800   8.775
  273SOL    HW1 2716  14.605  14.785   8.689
  273SOL    HW2 2717  14.637  14.836   8.828
  274SOL     OW 2718  14.217  12.911  10.672
  274SOL    HW1 2719  14.204  13.005  10.684
  274SOL    HW2 2720  14.147  12.885  10.611
  275SOL     OW 2721   5.300  11.060   3.045
  275SOL    HW1 2722   5.383  11.106   3.035
  275SOL    HW2 2723   5.287  11.055   3.140
  276SOL     OW 2724  12.517   1.263  11.908
  276SOL    HW1 2725  12.610   1.282  11.892
  276SOL    HW2 2726  12.476   1.349  11.916
  277SOL     OW 2727   4.475   4.393   9.747
  277SOL    HW1 2728   4.509   4.327   9.807
  277SOL    HW2 2729   4.449   4.344   9.669
  278SOL     OW 2730   8.032   2.080  13.990
  278SOL    HW1 2731   7.983   2.045  13.916
  278SOL    HW2 2732   8.095   2.141  13.950
  279SOL     OW 2733   5.814   2.128  10.909
  279SOL    HW1 2734   5.816   2.215  10.869
  279SOL    HW2 2735   5.786   2.143  10.999
  280SOL     OW 2736   6.700  11.838   6.140
  280SOL    HW1 2737   6.740  11.875   6.061
  280SOL    HW2 2738   6.746  11.879   6.212
  281SOL     OW 2739   0.556   3.836   3.775
  281SOL    HW1 2740   0.580   3.810   3.686
  281SOL    HW2 2741   0.514   3.922   3.764
  282SOL     OW 2742   1.495  14.509  13.632
  282SOL    HW1 2743   1.570  14.464  13.593
  282SOL    HW2 2744   1.422  14.447  13.621
  283SOL     OW 2745  10.141   8.178  10.366
  283SOL    HW1 2746  10.067   8.122  10.390
  283SOL    HW2 2747  10.136   8.251  10.428
  284SOL     OW 2748   5.502  14.386  11.250
  284SOL    HW1 2749   5.451  14.465  11.232
  284SOL    HW2 2750   5.440  14.325  11.289
  285SOL     OW 2751   0.597  11.724   8.440
  285SOL    HW1 2752   0.659  11.760   8.377
  285SOL    HW2 2753   0.620  11.765   8.523
  286SOL     OW 2754  13.363   2.471   9.909
  286SOL    HW1 2755  13.418   2.448   9.984
  286SOL    HW2 2756  13.276   2.486   9.947
  287SOL     OW 2757   2.294   4.719   2.179
  287SOL    HW1 2758   2.294   4.735   2.085
  287SOL    HW2 2759   2.204   4.733   2.207
  288SOL     OW 2760   6.058   8.271   3.644
  288SOL    HW1 2761   6.039   8.188   3.601
  288SOL    HW2 2762   6.133   8.252   3.700
  289SOL     OW 2763  14.759   1.126  14.110
  289SOL    HW1 2764  14.787   1.196  14.168
  289SOL    HW2 2765  14.837   1.072  14.097
  290SOL     OW 2766   7.287  13.821   3.401
  290SOL    HW1 2767   7.341  13.899   3.400
  290SOL    HW2 2768   7.216  13.841   3.462
  291SOL     OW 2769  13.134  13.056   2.959
  291SOL    HW1 2770  13.096  13.027   2.877
  291SOL    HW2 2771  13.214  13.103   2.934
  292SOL     OW 2772   6.658  10.915   3.430
  292SOL    HW1 2773   6.692  10.836   3.390
  292SOL    HW2 2774   6.564  10.910   3.418
  293SOL     OW 2775  13.299   8.780   9.965
  293SOL    HW1 2776  13.308   8.805  10.056
  293SOL    HW2 2777  13.262   8.857   9.922
  294SOL     OW 2778   4.201  13.318   9.609
  294SOL    HW1 2779   4.157  13.366   9.539
  294SOL    HW2 2780   4.210  13.229   9.575
  295SOL     OW 2781   0.670  11.583  10.161
  295SOL    HW1 2782   0.695  11.534  10.239
  295SOL    HW2 2783   0.575  11.575  10.157
  296SOL     OW 2784   6.420  12.583   3.719
  296SOL    HW1 2785   6.396  12.522   3.789
  296SOL    HW2 2786   6.338  12.600   3.673
  297SOL     OW 2787   5.719   2.559   9.860
  297SOL    HW1 2788   5.800   2.589   9.900
  297SOL    HW2 2789   5.669   2.522   9.933
  298SOL     OW 2790   4.182   8.256   1.065
  298SOL    HW1 2791   4.168   8.256   1.160
  298SOL    HW2 2792   4.250   8.322   1.051
  299SOL     OW 2793   5.328   1.282   9.846
  299SOL    HW1 2794   5.315   1.242   9.932
  299SOL    HW2 2795   5.269   1.234   9.788
  300SOL     OW 2796   6.118   5.235   4.046
  300SOL    HW1 2797   6.101   5.215   4.138
  300SOL    HW2 2798   6.092   5.156   3.998
  301SOL     OW 2799   6.882   1.953   9.301
  301SOL    HW1 2800   6.825   2.028   9.282
  301SOL    HW2 2801   6.824   1.877   9.293
  302SOL     OW 2802  14.043   6.615   9.498
  302SOL    HW1 2803  13.986   6.600   9.423
  302SOL    HW2 2804  13.992   6.586   9.573
  303SOL     OW 2805   7.716   3.754   5.075
  303SOL    HW1 2806   7.629   3.792   5.079
  303SOL    HW2 2807   7.730   3.737   4.981
  304SOL     OW 2808   3.605  10.658  13.338
  304SOL    HW1 2809   3.567  10.717  13.273
  304SOL    HW2 2810   3.643  10.587  13.287
  305SOL     OW 2811   6.848   2.220   9.917
  305SOL    HW1 2812   6.846   2.266   9.833
  305SOL    HW2 2813   6.911   2.149   9.903
  306SOL     OW 2814  11.826   6.908   0.390
  306SOL    HW1 2815  11.864   6.915   0.477
  306SOL    HW2 2816  11.739   6.871   0.404
  307SOL     OW 2817   6.150  11.606   5.844
  307SOL    HW1 2818   6.164  11.562   5.928
  307SOL    HW2 2819   6.158  11.536   5.779
  308SOL     OW 2820   6.318   7.875   0.755
  308SOL    HW1 2821   6.319   7.799   0.697
  308SOL    HW2 2822   6.274   7.943   0.705
  309SOL     OW 2823  13.421   5.780   7.659
  309SOL    HW1 2824  13.471   5.746   7.585
  309SOL    HW2 2825  13.337   5.806   7.621
  310SOL     OW 2826   2.869  10.882   0.832
  310SOL    HW1 2827   2.906  10.923   0.754
  310SOL    HW2 2828   2.915  10.922   0.905
  311SOL     OW 2829  14.655   6.317   1.931
  311SOL    HW1 2830  14.641   6.318   2.026
  311SOL    HW2 2831  14.749   6.333   1.920
  312SOL     OW 2832  10.435   9.947   8.944
  312SOL    HW1 2833  10.487   9.984   8.872
  312SOL    HW2 2834  10.350   9.928   8.905
  313SOL     OW 2835   0.677   3.395  11.282
  313SOL    HW1 2836   0.767   3.363  11.286
  313SOL    HW2 2837   0.628   3.338  11.342
  314SOL     OW 2838  14.008   4.125   6.607
  314SOL    HW1 2839  13.956   4.045   6.599
  314SOL    HW2 2840  13.948   4.195   6.582
  315SOL     OW 2841  11.506  11.198   5.209
  315SOL    HW1 2842  11.479  11.116   5.252
  315SOL    HW2 2843  11.494  11.265   5.276
  316SOL     OW 2844   8.130   7.998  11.192
  316SOL    HW1 2845   8.045   8.019  11.229
  316SOL    HW2 2846   8.139   7.904  11.204
  317SOL     OW 2847  14.080   0.585   8.372
  317SOL    HW1 2848  14.044   0.646   8.307
  317SOL    HW2 2849  14.007   0.527   8.393
  318SOL     OW 2850  11.557   8.933   2.913
  318SOL    HW1 2851  11.611   8.890   2.846
  318SOL    HW2 2852  11.614   8.998   2.953
  319SOL     OW 2853  13.256   1.042  11.781
  319SOL    HW1 2854  13.248   1.027  11.687
  319SOL    HW2 2855  13.171   1.017  11.817
  320SOL     OW 2856   3.335  12.074   5.119
  320SOL    HW1 2857   3.281  12.101   5.045
  320SOL    HW2 2858   3.423  12.066   5.082
  321SOL     OW 2859   4.887  14.515   2.789
  321SOL    HW1 2860   4.810  14.534   2.843
  321SOL    HW2 2861   4.932  14.599   2.781
  322SOL     OW 2862  11.159   3.158  10.269
  322SOL    HW1 2863  11.118   3.082  10.311
  322SOL    HW2 2864  11.192   3.210  10.342
  323SOL     OW 2865   9.638   4.093   0.217
  323SOL    HW1 2866   9.581   4.073   0.290
  323SOL    HW2 2867   9.581   4.091   0.140
  324SOL     OW 2868   7.133   9.485  13.219
  324SOL    HW1 2869   7.171   9.423  13.282
  324SOL    HW2 2870   7.079   9.543  13.272
  325SOL     OW 2871   8.690   7.457   3.484
  325SOL    HW1 2872   8.749   7.391   3.449
  325SOL    HW2 2873   8.608   7.444   3.438
  326SOL     OW 2874  12.121   1.350   2.068
  326SOL    HW1 2875  12.092   1.280   2.009
  326SOL    HW2 2876  12.119   1.429   2.015
  327SOL     OW 2877  12.648  11.814   7.117
  327SOL    HW1 2878  12.696  11.826   7.035
  327SOL    HW2 2879  12.681  11.732   7.153
  328SOL     OW 2880   5.687   2.848   1.432
  328SOL    HW1 2881   5.688   2.924   1.490
  328SOL    HW2 2882   5.594   2.835   1.411
  329SOL     OW 2883  13.780  11.841   9.637
  329SOL    HW1 2884  13.700  11.789   9.625
  329SOL    HW2 2885  13.823  11.801   9.712
  330SOL     OW 2886  10.159   9.787  12.254
  330SOL    HW1 2887  10.215   9.757  12.325
  330SOL    HW2 2888  10.082   9.823  12.298
  331SOL     OW 2889  10.817  13.663   3.946
  331SOL    HW1 2890  10.826  13.607   3.869
  331SOL    HW2 2891  10.854  13.612   4.017
  332SOL     OW 2892   8.797   9.758  11.819
  332SOL    HW1 2893   8.786   9.664  11.813
  332SOL    HW2 2894   8.886   9.774  11.788
  333SOL     OW 2895   7.738   4.552  11.195
  333SOL    HW1 2896   7.786   4.522  11.272
  333SOL    HW2 2897   7.661   4.596  11.230
  334SOL     OW 2898   4.353   1.134   7.499
  334SOL    HW1 2899   4.427   1.194   7.500
  334SOL    HW2 2900   4.282   1.184   7.459
  335SOL     OW 2901  13.306   0.313   4.445
  335SOL    HW1 2902  13.211   0.304   4.440
  335SOL    HW2 2903  13.325   0.399   4.407
  336SOL     OW 2904  11.225   3.246   9.575
  336SOL    HW1 2905  11.316   3.216   9.574
  336SOL    HW2 2906  11.175   3.172   9.541
  337SOL     OW 2907   6.006   4.693  12.686
  337SOL    HW1 2908   6.076   4.736  12.736
  337SOL    HW2 2909   5.934   4.755  12.689
  338SOL     OW 2910   7.732  12.539   8.634
  338SOL    HW1 2911   7.825  12.560   8.637
  338SOL    HW2 2912   7.704  12.540   8.726
  339SOL     OW 2913  10.327  11.824   7.241
  339SOL    HW1 2914  10.336  11.913   7.206
  339SOL    HW2 2915  10.409  11.808   7.288
  340SOL     OW 2916  14.863  11.502   1.750
  340SOL    HW1 2917  14.810  11.519   1.672
  340SOL    HW2 2918  14.815  11.434   1.797
  341SOL     OW 2919   4.821   1.873   7.742
  341SOL    HW1 2920   4.728   1.852   7.735
  341SOL    HW2 2921   4.831   1.954   7.692
  342SOL     OW 2922   1.089   1.964   3.037
  342SOL    HW1 2923   1.112   1.888   2.983
  342SOL    HW2 2924   1.009   1.939   3.082
  343SOL     OW 2925   7.150   2.823   8.836
  343SOL    HW1 2926   7.131   2.916   8.826
  343SOL    HW2 2927   7.216   2.804   8.769
  344SOL     OW 2928   1.973   5.851   3.931
  344SOL    HW1 2929   2.007   5.772   3.972
  344SOL    HW2 2930   2.045   5.914   3.938
  345SOL     OW 2931   4.930  11.740   9.985
  345SOL    HW1 2932   5.019  11.762   9.956
  345SOL    HW2 2933   4.943  11.693  10.068
  346SOL     OW 2934  13.765   2.857   2.871
  346SOL    HW1 2935  13.696   2.923   2.861
  346SOL    HW2 2936  13.840   2.905   2.906
  347SOL     OW 2937  10.968   3.210   5.953
  347SOL    HW1 2938  11.031   3.161   6.006
  347SOL    HW2 2939  10.928   3.271   6.015
  348SOL     OW 2940  14.171   3.923  13.959
  348SOL    HW1 2941  14.143   3.971  14.037
  348SOL    HW2 2942  14.211   3.843  13.993
  349SOL     OW 2943  13.401   7.463   8.841
  349SOL    HW1 2944  13.339   7.390   8.842
  349SOL    HW2 2945  13.397   7.497   8.752
  350SOL     OW 2946   1.161   6.262   0.276
  350SOL    HW1 2947   1.160   6.349   0.315
  350SOL    HW2 2948   1.141   6.277   0.183
  351SOL     OW 2949   8.852   7.436  14.188
  351SOL    HW1 2950   8.863   7.436  14.283
  351SOL    HW2 2951   8.926   7.385  14.154
  352SOL     OW 2952   0.872   5.616  11.567
  352SOL    HW1 2953   0.789   5.614  11.519
  352SOL    HW2 2954   0.848   5.645  11.655
  353SOL     OW 2955   9.301   7.919   2.618
  353SOL    HW1 2956   9.256   7.960   2.692
  353SOL    HW2 2957   9.288   7.979   2.545
  354SOL     OW 2958  10.986  13.015   9.010
  354SOL    HW1 2959  11.024  13.100   9.036
  354SOL    HW2 2960  10.962  13.027   8.918
  355SOL     OW 2961  14.751  12.329   9.444
  355SOL    HW1 2962  14.753  12.377   9.361
  355SOL    HW2 2963  14.662  12.343   9.476
  356SOL     OW 2964   5.116   0.249   5.194
  356SOL    HW1 2965   5.196   0.288   5.158
  356SOL    HW2 2966   5.096   0.303   5.271
  357SOL     OW 2967   4.219   0.957   6.166
  357SOL    HW1 2968   4.150   0.978   6.103
  357SOL    HW2 2969   4.177   0.966   6.251
  358SOL     OW 2970   7.832   9.352   7.335
  358SOL    HW1 2971   7.737   9.360   7.345
  358SOL    HW2 2972   7.844   9.317   7.247
  359SOL     OW 2973   9.703   6.473   2.569
  359SOL    HW1 2974   9.756   6.395   2.583
  359SOL    HW2 2975   9.729   6.533   2.639
  360SOL     OW 2976   9.295   3.314   4.960
  360SOL    HW1 2977   9.290   3.221   4.940
  360SOL    HW2 2978   9.349   3.319   5.039
  361SOL     OW 2979  10.031   6.842   9.929
  361SOL    HW1 2980  10.097   6.852   9.998
  361SOL    HW2 2981  10.035   6.925   9.881
  362SOL     OW 2982   4.846   1.808   0.219
  362SOL    HW1 2983   4.905   1.882   0.205
  362SOL    HW2 2984   4.758   1.847   0.215
  363SOL     OW 2985  10.735   0.176   1.130
  363SOL    HW1 2986  10.643   0.151   1.132
  363SOL    HW2 2987  10.779   0.112   1.186
  364SOL     OW 2988   5.325   1.698   4.323
  364SOL    HW1 2989   5.396   1.656   4.273
  364SOL    HW2 2990   5.261   1.722   4.257
  365SOL     OW 2991   0.308  13.709  13.090
  365SOL    HW1 2992   0.379  13.747  13.141
  365SOL    HW2 2993   0.320  13.743  13.002
  366SOL     OW 2994  10.524   6.772  11.812
  366SOL    HW1 2995  10.508   6.790  11.905
  366SOL    HW2 2996  10.441   6.740  11.779
  367SOL     OW 2997   5.530   8.397   0.929
  367SOL    HW1 2998   5.451   8.421   0.978
  367SOL    HW2 2999   5.502   8.393   0.838
  368SOL     OW 3000   4.739   1.394   4.403
  368SOL    HW1 3001   4.778   1.466   4.355
  368SOL    HW2 3002   4.787   1.390   4.486
  369SOL     OW 3003   5.813   8.138   9.472
  369SOL    HW1 3004   5.783   8.188   9.548
  369SOL    HW2 3005   5.737   8.090   9.443
  370SOL     OW 3006   0.929   7.758   0.007
  370SOL    HW1 3007   0.844   7.798   0.022
  370SOL    HW2 3008   0.938   7.692   0.076
  371SOL     OW 3009   3.427  12.417   8.849
  371SOL    HW1 3010   3.468  12.361   8.915
  371SOL    HW2 3011   3.356  12.363   8.813
  372SOL     OW 3012   7.736   5.666  10.081
  372SOL    HW1 3013   7.669   5.731  10.060
  372SOL    HW2 3014   7.753   5.678  10.174
  373SOL     OW 3015   2.782   3.520   8.015
  373SOL    HW1 3016   2.715   3.573   8.059
  373SOL    HW2 3017   2.831   3.583   7.963
  374SOL     OW 3018   9.389  12.525   7.835
  374SOL    HW1 3019   9.366  12.437   7.867
  374SOL    HW2 3020   9.485  12.523   7.828
  375SOL     OW 3021  13.358   5.728   3.513
  375SOL    HW1 3022  13.274   5.687   3.493
  375SOL    HW2 3023  13.347   5.763   3.601
  376SOL     OW 3024  13.372   5.056   2.110
  376SOL    HW1 3025  13.454   5.094   2.142
  376SOL    HW2 3026  13.391   5.033   2.019
  377SOL     OW 3027   0.677  11.054   9.708
  377SOL    HW1 3028   0.619  11.031   9.781
  377SOL    HW2 3029   0.733  11.123   9.742
  378SOL     OW 3030   5.838  13.428  11.503
  378SOL    HW1 3031   5.808  13.477  11.578
  378SOL    HW2 3032   5.763  13.425  11.444
  379SOL     OW 3033  11.663   1.310   6.667
  379SOL    HW1 3034  11.636   1.304   6.759
  379SOL    HW2 3035  11.588   1.276   6.618
  380SOL     OW 3036  12.263   6.634   8.262
  380SOL    HW1 3037  12.325   6.567   8.233
  380SOL    HW2 3038  12.315   6.694   8.316
  381SOL     OW 3039   1.009   7.557   8.406
  381SOL    HW1 3040   1.086   7.540   8.460
  381SOL    HW2 3041   0.935   7.531   8.461
  382SOL     OW 3042   1.851   4.766   2.020
  382SOL    HW1 3043   1.910   4.721   1.960
  382SOL    HW2 3044   1.766   4.726   2.005
  383SOL     OW 3045   3.723  14.580   4.734
  383SOL    HW1 3046   3.629  14.590   4.745
  383SOL    HW2 3047   3.740  14.488   4.755
  384SOL     OW 3048  13.418  14.484  11.845
  384SOL    HW1 3049  13.511  14.505  11.839
  384SOL    HW2 3050  13.413  14.390  11.825
  385SOL     OW 3051  12.108   1.314   3.605
  385SOL    HW1 3052  12.024   1.361   3.609
  385SOL    HW2 3053  12.174   1.382   3.612
  386SOL     OW 3054   6.663   7.660   4.459
  386SOL    HW1 3055   6.692   7.623   4.375
  386SOL    HW2 3056   6.728   7.727   4.479
  387SOL     OW 3057   8.277   3.357   4.373
  387SOL    HW1 3058   8.343   3.417   4.338
  387SOL    HW2 3059   8.227   3.330   4.296
  388SOL     OW 3060  13.784   6.617   5.606
  388SOL    HW1 3061  13.693   6.601   5.579
  388SOL    HW2 3062  13.836   6.563   5.548
  389SOL     OW 3063  12.166   7.304  12.420
  389SOL    HW1 3064  12.217   7.289  12.500
  389SOL    HW2 3065  12.173   7.222  12.371
  390SOL     OW 3066   3.846   3.379  10.266
  390SOL    HW1 3067   3.898   3.453  10.299
  390SOL    HW2 3068   3.805   3.412  10.186
  391SOL     OW 3069   6.052   6.285   4.775
  391SOL    HW1 3070   6.094   6.257   4.856
  391SOL    HW2 3071   5.959   6.293   4.797
  392SOL     OW 3072   6.623   8.532   8.003
  392SOL    HW1 3073   6.638   8.462   7.938
  392SOL    HW2 3074   6.559   8.589   7.962
  393SOL     OW 3075   6.100   8.335  11.798
  393SOL    HW1 3076   6.130   8.278  11.727
  393SOL    HW2 3077   6.142   8.301  11.876
  394SOL     OW 3078  13.894  13.504   1.148
  394SOL    HW1 3079  13.964  13.491   1.084
  394SOL    HW2 3080  13.895  13.424   1.201
  395SOL     OW 3081   0.653   1.218  12.450
  395SOL    HW1 3082   0.589   1.253  12.511
  395SOL    HW2 3083   0.737   1.222  12.497
  396SOL     OW 3084   1.390   9.156  13.193
  396SOL    HW1 3085   1.299   9.153  13.224
  396SOL    HW2 3086   1.382   9.156  13.098
  397SOL     OW 3087   1.071   6.974   6.715
  397SOL    HW1 3088   1.066   6.883   6.685
  397SOL    HW2 3089   1.059   6.969   6.810
  398SOL     OW 3090  10.970   4.912   4.254
  398SOL    HW1 3091  10.963   4.864   4.171
  398SOL    HW2 3092  11.021   4.990   4.232
  399SOL     OW 3093  12.208   0.248   8.025
  399SOL    HW1 3094  12.209   0.214   7.936
  399SOL    HW2 3095  12.120   0.283   8.037
  400SOL     OW 3096   9.443   6.692  13.364
  400SOL    HW1 3097   9.416   6.609  13.403
  400SOL    HW2 3098   9.389   6.701  13.286
  401SOL     OW 3099   7.447   4.392  12.439
  401SOL    HW1 3100   7.526   4.372  12.488
  401SOL    HW2 3101   7.400   4.455  12.493
  402SOL     OW 3102   4.038  11.830   6.341
  402SOL    HW1 3103   3.983  11.767   6.295
  402SOL    HW2 3104   4.074  11.886   6.272
  403SOL     OW 3105   1.303   1.225  14.066
  403SOL    HW1 3106   1.326   1.139  14.031
  403SOL    HW2 3107   1.384   1.258  14.105
  404SOL     OW 3108  12.732   8.103  13.593
  404SOL    HW1 3109  12.653   8.104  13.647
  404SOL    HW2 3110  12.700   8.080  13.505
  405SOL     OW 3111   0.839   6.640   7.127
  405SOL    HW1 3112   0.794   6.704   7.071
  405SOL    HW2 3113   0.838   6.559   7.075
  406SOL     OW 3114   0.777   2.793  10.558
  406SOL    HW1 3115   0.833   2.870  10.558
  406SOL    HW2 3116   0.747   2.785  10.648
  407SOL     OW 3117   6.904   4.587   7.427
  407SOL    HW1 3118   6.956   4.641   7.487
  407SOL    HW2 3119   6.967   4.555   7.363
  408SOL     OW 3120  11.239   9.964   4.177
  408SOL    HW1 3121  11.231  10.053   4.141
  408SOL    HW2 3122  11.320   9.930   4.138
  409SOL     OW 3123  10.981   7.865   6.072
  409SOL    HW1 3124  10.949   7.928   6.008
  409SOL    HW2 3125  11.067   7.898   6.098
  410SOL     OW 3126   3.186   0.095   6.681
  410SOL    HW1 3127   3.151   0.163   6.624
  410SOL    HW2 3128   3.183   0.015   6.628
  411SOL     OW 3129   9.438  11.488  12.717
  411SOL    HW1 3130   9.382  11.486  12.794
  411SOL    HW2 3131   9.493  11.565  12.729
  412SOL     OW 3132   0.288   5.047   2.920
  412SOL    HW1 3133   0.379   5.022   2.899
  412SOL    HW2 3134   0.293   5.086   3.007
  413SOL     OW 3135   4.072   6.626  10.344
  413SOL    HW1 3136   3.985   6.654  10.314
  413SOL    HW2 3137   4.132   6.689  10.304
  414SOL     OW 3138   6.993   7.126  12.414
  414SOL    HW1 3139   7.000   7.040  12.457
  414SOL    HW2 3140   7.060   7.179  12.456
  415SOL     OW 3141   0.213  10.088  10.245
  415SOL    HW1 3142   0.301  10.061  10.271
  415SOL    HW2 3143   0.207  10.179  10.273
  416SOL     OW 3144   9.576   8.852  13.236
  416SOL    HW1 3145   9.529   8.922  13.281
  416SOL    HW2 3146   9.598   8.888  13.150
  417SOL     OW 3147   6.152   9.213   6.009
  417SOL    HW1 3148   6.058   9.210   6.029
  417SOL    HW2 3149   6.155   9.219   5.913
  418SOL     OW 3150   6.291  13.937  11.800
  418SOL    HW1 3151   6.294  13.848  11.763
  418SOL    HW2 3152   6.316  13.994  11.727
  419SOL     OW 3153  13.158  13.312  14.163
  419SOL    HW1 3154  13.206  13.366  14.101
  419SOL    HW2 3155  13.201  13.329  14.247
  420SOL     OW 3156   9.302  11.472  11.651
  420SOL    HW1 3157   9.230  11.409  11.647
  420SOL    HW2 3158   9.357  11.450  11.575
  421SOL     OW 3159   8.246  11.928  13.424
  421SOL    HW1 3160   8.221  11.959  13.337
  421SOL    HW2 3161   8.319  11.984  13.450
  422SOL     OW 3162   8.440  14.269   1.196
  422SOL    HW1 3163   8.359  14.297   1.153
  422SOL    HW2 3164   8.442  14.320   1.277
  423SOL     OW 3165  10.125   2.258   7.797
  423SOL    HW1 3166  10.204   2.295   7.756
  423SOL    HW2 3167  10.155   2.230   7.883
  424SOL     OW 3168  10.325   1.228   7.518
  424SOL    HW1 3169  10.349   1.285   7.591
  424SOL    HW2 3170  10.229   1.226   7.520
  425SOL     OW 3171   4.138  11.738   9.997
  425SOL    HW1 3172   4.068  11.792   9.960
  425SOL    HW2 3173   4.093  11.658  10.026
  426SOL     OW 3174  13.440   8.846   8.040
  426SOL    HW1 3175  13.367   8.804   8.085
  426SOL    HW2 3176  13.518   8.810   8.083
  427SOL     OW 3177  10.447   4.649   3.472
  427SOL    HW1 3178  10.355   4.636   3.452
  427SOL    HW2 3179  10.452   4.646   3.568
  428SOL     OW 3180   0.666   9.566  10.767
  428SOL    HW1 3181   0.682   9.516  10.687
  428SOL    HW2 3182   0.754   9.590  10.798
  429SOL     OW 3183   8.749  12.760  10.609
  429SOL    HW1 3184   8.670  12.709  10.590
  429SOL    HW2 3185   8.720  12.826  10.672
  430SOL     OW 3186   1.365  10.172  10.792
  430SOL    HW1 3187   1.360  10.137  10.881
  430SOL    HW2 3188   1.372  10.267  10.803
  431SOL     OW 3189   8.121  14.617   5.353
  431SOL    HW1 3190   8.176  14.609   5.431
  431SOL    HW2 3191   8.057  14.685   5.375
  432SOL     OW 3192   8.727   6.504  13.955
  432SOL    HW1 3193   8.686   6.422  13.982
  432SOL    HW2 3194   8.793   6.477  13.890
  433SOL     OW 3195   8.102  14.303  13.882
  433SOL    HW1 3196   8.007  14.299  13.869
  433SOL    HW2 3197   8.113  14.303  13.977
  434SOL     OW 3198   7.824   8.292   0.053
  434SOL    HW1 3199   7.784   8.217   0.009
  434SOL    HW2 3200   7.910   8.260   0.081
  435SOL     OW 3201   0.508   6.664  10.954
  435SOL    HW1 3202   0.489   6.570  10.943
  435SOL    HW2 3203   0.491   6.702  10.868
  436SOL     OW 3204   4.355  12.608  10.502
  436SOL    HW1 3205   4.267  12.590  10.533
  436SOL    HW2 3206   4.347  12.691  10.454
  437SOL     OW 3207   4.698   7.898   8.403
  437SOL    HW1 3208   4.760   7.912   8.474
  437SOL    HW2 3209   4.748   7.848   8.338
  438SOL     OW 3210   3.914  11.899   9.973
  438SOL    HW1 3211   3.925  11.926   9.882
  438SOL    HW2 3212   3.844  11.833   9.970
  439SOL     OW 3213  12.992   9.491  14.676
  439SOL    HW1 3214  12.971   9.429  14.606
  439SOL    HW2 3215  13.005   9.574  14.630
  440SOL     OW 3216  12.295   1.722   2.076
  440SOL    HW1 3217  12.316   1.790   2.139
  440SOL    HW2 3218  12.352   1.649   2.099
  441SOL     OW 3219   6.639  12.327   3.041
  441SOL    HW1 3220   6.684  12.280   2.971
  441SOL    HW2 3221   6.553  12.284   3.047
  442SOL     OW 3222   4.126  10.503  12.830
  442SOL    HW1 3223   4.060  10.512  12.762
  442SOL    HW2 3224   4.155  10.412  12.824
  443SOL     OW 3225   2.266  12.044  11.203
  443SOL    HW1 3226   2.189  12.073  11.251
  443SOL    HW2 3227   2.335  12.039  11.269
  444SOL     OW 3228   6.176  11.000   9.407
  444SOL    HW1 3229   6.235  10.925   9.412
  444SOL    HW2 3230   6.144  11.000   9.317
  445SOL     OW 3231   3.882   4.784   8.154
  445SOL    HW1 3232   3.922   4.699   8.168
  445SOL    HW2 3233   3.954   4.839   8.120
  446SOL     OW 3234   4.793   9.105   9.239
  446SOL    HW1 3235   4.747   9.075   9.317
  446SOL    HW2 3236   4.863   9.162   9.273
  447SOL     OW 3237  12.162   3.295   6.418
  447SOL    HW1 3238  12.082   3.347   6.426
  447SOL    HW2 3239  12.158   3.260   6.329
  448SOL     OW 3240  14.402   1.923   2.695
  448SOL    HW1 3241  14.491   1.887   2.696
  448SOL    HW2 3242  14.414   2.016   2.677
  449SOL     OW 3243   0.137   0.438   1.484
  449SOL    HW1 3244   0.141   0.530   1.455
  449SOL    HW2 3245   0.079   0.396   1.420
  450SOL     OW 3246   1.132   0.601  11.735
  450SOL    HW1 3247   1.083   0.682  11.725
  450SOL    HW2 3248   1.169   0.584  11.648
  451SOL     OW 3249   2.129  10.735   3.962
  451SOL    HW1 3250   2.200  10.793   3.935
  451SOL    HW2 3251   2.147  10.718   4.055
  452SOL     OW 3252   4.565   2.503   9.141
  452SOL    HW1 3253   4.523   2.580   9.180
  452SOL    HW2 3254   4.640   2.538   9.093
  453SOL     OW 3255   1.992  14.434   3.553
  453SOL    HW1 3256   1.959  14.524   3.562
  453SOL    HW2 3257   2.028  14.413   3.639
  454SOL     OW 3258   1.482   2.830  12.804
  454SOL    HW1 3259   1.475   2.839  12.899
  454SOL    HW2 3260   1.552   2.765  12.791
  455SOL     OW 3261   8.885   4.441   2.317
  455SOL    HW1 3262   8.912   4.464   2.228
  455SOL    HW2 3263   8.831   4.363   2.307
  456SOL     OW 3264  11.017  12.857   7.091
  456SOL    HW1 3265  11.045  12.856   7.000
  456SOL    HW2 3266  11.095  12.833   7.141
  457SOL     OW 3267   1.036  12.452   9.615
  457SOL    HW1 3268   1.018  12.363   9.584
  457SOL    HW2 3269   1.029  12.447   9.710
  458SOL     OW 3270  10.161   1.020   5.257
  458SOL    HW1 3271  10.151   1.055   5.169
  458SOL    HW2 3272  10.071   0.998   5.285
  459SOL     OW 3273   4.944  12.530   2.290
  459SOL    HW1 3274   4.851  12.546   2.307
  459SOL    HW2 3275   4.989  12.573   2.363
  460SOL     OW 3276   2.180   7.125  13.094
  460SOL    HW1 3277   2.174   7.032  13.117
  460SOL    HW2 3278   2.209   7.168  13.175
  461SOL     OW 3279  12.719   8.594   6.154
  461SOL    HW1 3280  12.793   8.643   6.190
  461SOL    HW2 3281  12.748   8.565   6.068
  462SOL     OW 3282  14.694   1.043   9.293
  462SOL    HW1 3283  14.651   0.969   9.252
  462SOL    HW2 3284  14.741   1.006   9.368
  463SOL     OW 3285   8.431   8.270   6.722
  463SOL    HW1 3286   8.471   8.343   6.769
  463SOL    HW2 3287   8.504   8.222   6.683
  464SOL     OW 3288   9.941   9.036  10.784
  464SOL    HW1 3289   9.931   9.060  10.876
  464SOL    HW2 3290   9.857   9.058  10.744
  465SOL     OW 3291  12.017   1.655  14.299
  465SOL    HW1 3292  12.073   1.619  14.230
  465SOL    HW2 3293  12.076   1.703  14.356
  466SOL     OW 3294   7.319   3.663   0.378
  466SOL    HW1 3295   7.275   3.747   0.365
  466SOL    HW2 3296   7.286   3.632   0.463
  467SOL     OW 3297   0.604   4.868   1.932
  467SOL    HW1 3298   0.526   4.921   1.915
  467SOL    HW2 3299   0.618   4.874   2.026
  468SOL     OW 3300   3.466  13.155  11.231
  468SOL    HW1 3301   3.439  13.065  11.252
  468SOL    HW2 3302   3.393  13.190  11.179
  469SOL     OW 3303   4.036  14.542  10.806
  469SOL    HW1 3304   4.111  14.559  10.750
  469SOL    HW2 3305   3.964  14.527  10.745
  470SOL     OW 3306   1.865   2.875  11.652
  470SOL    HW1 3307   1.860   2.939  11.581
  470SOL    HW2 3308   1.956   2.846  11.652
  471SOL     OW 3309  11.754  11.462   9.782
  471SOL    HW1 3310  11.767  11.369   9.801
  471SOL    HW2 3311  11.687  11.464   9.713
  472SOL     OW 3312  10.959   5.373   3.699
  472SOL    HW1 3313  10.960   5.277   3.699
  472SOL    HW2 3314  10.879   5.396   3.650
  473SOL     OW 3315  10.011   3.813   6.935
  473SOL    HW1 3316  10.076   3.833   7.002
  473SOL    HW2 3317   9.994   3.896   6.892
  474SOL     OW 3318  10.884   3.918  12.694
  474SOL    HW1 3319  10.845   3.844  12.648
  474SOL    HW2 3320  10.811   3.960  12.739
  475SOL     OW 3321  14.815  11.362  14.243
  475SOL    HW1 3322  14.735  11.332  14.198
  475SOL    HW2 3323  14.806  11.457  14.246
  476SOL     OW 3324   3.649   5.583   4.088
  476SOL    HW1 3325   3.720   5.531   4.126
  476SOL    HW2 3326   3.670   5.673   4.111
  477SOL     OW 3327   4.689   2.331   6.663
  477SOL    HW1 3328   4.779   2.362   6.665
  477SOL    HW2 3329   4.678   2.282   6.745
  478SOL     OW 3330  12.599   4.127   7.005
  478SOL    HW1 3331  12.666   4.086   6.950
  478SOL    HW2 3332  12.536   4.163   6.942
  479SOL     OW 3333   8.077  12.765   7.012
  479SOL    HW1 3334   8.093  12.799   6.924
  479SOL    HW2 3335   8.019  12.690   6.998
  480SOL     OW 3336  11.231  13.770   7.315
  480SOL    HW1 3337  11.184  13.854   7.312
  480SOL    HW2 3338  11.189  13.717   7.248
  481SOL     OW 3339  11.284  10.482  12.339
  481SOL    HW1 3340  11.250  10.452  12.255
  481SOL    HW2 3341  11.365  10.432  12.352
  482SOL     OW 3342   1.695   2.818   9.920
  482SOL    HW1 3343   1.613   2.865   9.915
  482SOL    HW2 3344   1.676   2.731   9.885
  483SOL     OW 3345   2.615   7.790  11.248
  483SOL    HW1 3346   2.635   7.761  11.337
  483SOL    HW2 3347   2.598   7.884  11.256
  484SOL     OW 3348   8.864  10.599   5.741
  484SOL    HW1 3349   8.952  10.586   5.775
  484SOL    HW2 3350   8.877  10.635   5.653
  485SOL     OW 3351   8.412   7.013   7.781
  485SOL    HW1 3352   8.425   6.953   7.707
  485SOL    HW2 3353   8.458   6.970   7.853
  486SOL     OW 3354   9.407   1.205   9.898
  486SOL    HW1 3355   9.333   1.189   9.840
  486SOL    HW2 3356   9.388   1.153   9.976
  487SOL     OW 3357  10.288   3.618  12.854
  487SOL    HW1 3358  10.373   3.618  12.898
  487SOL    HW2 3359  10.274   3.709  12.828
  488SOL     OW 3360  13.231  10.127   4.604
  488SOL    HW1 3361  13.182  10.115   4.522
  488SOL    HW2 3362  13.289  10.051   4.609
  489SOL     OW 3363  14.860   7.621  14.246
  489SOL    HW1 3364   0.033   7.536  14.262
  489SOL    HW2 3365   0.040   7.657  14.171
  490SOL     OW 3366   7.203  14.491  10.899
  490SOL    HW1 3367   7.221  14.431  10.972
  490SOL    HW2 3368   7.289  14.505  10.859
  491SOL     OW 3369  12.900   5.331  11.503
  491SOL    HW1 3370  12.937   5.407  11.459
  491SOL    HW2 3371  12.859   5.280  11.432
  492SOL     OW 3372  14.142   6.470   2.191
  492SOL    HW1 3373  14.166   6.483   2.099
  492SOL    HW2 3374  14.223   6.482   2.239
  493SOL     OW 3375   5.920  11.665  14.842
  493SOL    HW1 3376   5.996  11.705   0.015
  493SOL    HW2 3377   5.955  11.614  14.769
  494SOL     OW 3378   5.169   5.062   3.468
  494SOL    HW1 3379   5.094   5.060   3.408
  494SOL    HW2 3380   5.151   4.993   3.531
  495SOL     OW 3381   2.061   2.090   6.222
  495SOL    HW1 3382   2.138   2.091   6.165
  495SOL    HW2 3383   1.994   2.044   6.172
  496SOL     OW 3384   3.466   5.133   3.714
  496SOL    HW1 3385   3.425   5.145   3.799
  496SOL    HW2 3386   3.393   5.141   3.651
  497SOL     OW 3387   9.597  11.131  12.269
  497SOL    HW1 3388   9.666  11.196  12.257
  497SOL    HW2 3389   9.595  11.082  12.187
  498SOL     OW 3390   0.134   2.757   0.185
  498SOL    HW1 3391   0.200   2.775   0.251
  498SOL    HW2 3392   0.053   2.793   0.221
  499SOL     OW 3393   0.915   5.190   2.429
  499SOL    HW1 3394   0.890   5.264   2.484
  499SOL    HW2 3395   0.962   5.228   2.356
  500SOL     OW 3396   5.433  14.346   3.371
  500SOL    HW1 3397   5.470  14.395   3.297
  500SOL    HW2 3398   5.339  14.345   3.354
  501SOL     OW 3399  10.242  13.152   7.205
  501SOL    HW1 3400  10.218  13.076   7.258
  501SOL    HW2 3401  10.276  13.115   7.123
  502SOL     OW 3402   1.832   4.776  10.309
  502SOL    HW1 3403   1.775   4.718  10.259
  502SOL    HW2 3404   1.886   4.820  10.243
  503SOL     OW 3405   2.088   3.327   0.291
  503SOL    HW1 3406   2.037   3.384   0.349
  503SOL    HW2 3407   2.162   3.381   0.264
  504SOL     OW 3408  12.991   4.973   1.084
  504SOL    HW1 3409  13.043   5.043   1.121
  504SOL    HW2 3410  12.999   4.984   0.989
  505SOL     OW 3411   8.185   6.470  11.908
  505SOL    HW1 3412   8.215   6.394  11.958
  505SOL    HW2 3413   8.149   6.433  11.827
  506SOL     OW 3414  12.297   0.408   8.496
  506SOL    HW1 3415  12.270   0.499   8.509
  506SOL    HW2 3416  12.222   0.367   8.452
  507SOL     OW 3417  10.530   0.614  11.600
  507SOL    HW1 3418  10.449   0.628  11.648
  507SOL    HW2 3419  10.518   0.661  11.518
  508SOL     OW 3420   7.032   5.802   4.178
  508SOL    HW1 3421   7.125   5.805   4.200
  508SOL    HW2 3422   7.000   5.890   4.198
  509SOL     OW 3423   4.505   1.366   2.374
  509SOL    HW1 3424   4.496   1.293   2.312
  509SOL    HW2 3425   4.417   1.401   2.383
  510SOL     OW 3426   2.041   7.325   7.187
  510SOL    HW1 3427   1.965   7.279   7.222
  510SOL    HW2 3428   2.023   7.333   7.093
  511SOL     OW 3429  10.539   8.588   5.587
  511SOL    HW1 3430  10.477   8.656   5.615
  511SOL    HW2 3431  10.495   8.506   5.608
  512SOL     OW 3432   4.811   6.942   1.996
  512SOL    HW1 3433   4.843   7.014   2.050
  512SOL    HW2 3434   4.807   6.868   2.056
  513SOL     OW 3435   2.678   6.763  11.801
  513SOL    HW1 3436   2.611   6.745  11.734
  513SOL    HW2 3437   2.700   6.677  11.836
  514SOL     OW 3438   3.637   4.646   5.372
  514SOL    HW1 3439   3.722   4.643   5.417
  514SOL    HW2 3440   3.607   4.737   5.383
  515SOL     OW 3441   9.794   6.823   8.690
  515SOL    HW1 3442   9.699   6.811   8.695
  515SOL    HW2 3443   9.808   6.864   8.605
  516SOL     OW 3444   8.850   0.806   7.474
  516SOL    HW1 3445   8.805   0.725   7.451
  516SOL    HW2 3446   8.924   0.777   7.527
  517SOL     OW 3447   9.197   1.660   5.458
  517SOL    HW1 3448   9.169   1.569   5.450
  517SOL    HW2 3449   9.229   1.683   5.371
  518SOL     OW 3450  13.202   3.109  12.101
  518SOL    HW1 3451  13.217   3.145  12.014
  518SOL    HW2 3452  13.240   3.173  12.161
  519SOL     OW 3453   4.511  14.043   6.901
  519SOL    HW1 3454   4.592  13.994   6.887
  519SOL    HW2 3455   4.478  14.011   6.985
  520SOL     OW 3456   5.535   4.920  12.186
  520SOL    HW1 3457   5.468   4.974  12.229
  520SOL    HW2 3458   5.602   4.983  12.159
  521SOL     OW 3459   2.511   5.510  11.769
  521SOL    HW1 3460   2.566   5.432  11.775
  521SOL    HW2 3461   2.475   5.507  11.681
  522SOL     OW 3462  12.251   8.705   7.867
  522SOL    HW1 3463  12.206   8.672   7.789
  522SOL    HW2 3464  12.344   8.693   7.848
  523SOL     OW 3465  14.110  11.719   7.669
  523SOL    HW1 3466  14.094  11.786   7.736
  523SOL    HW2 3467  14.205  11.718   7.659
  524SOL     OW 3468   3.328   5.430   8.048
  524SOL    HW1 3469   3.352   5.360   7.987
  524SOL    HW2 3470   3.340   5.511   7.998
  525SOL     OW 3471   6.810   5.571   6.480
  525SOL    HW1 3472   6.893   5.600   6.443
  525SOL    HW2 3473   6.756   5.550   6.404
  526SOL     OW 3474   4.436   3.221  14.627
  526SOL    HW1 3475   4.445   3.197  14.535
  526SOL    HW2 3476   4.407   3.140  14.671
  527SOL     OW 3477  10.275   6.147   2.344
  527SOL    HW1 3478  10.233   6.097   2.275
  527SOL    HW2 3479  10.253   6.101   2.425
  528SOL     OW 3480   1.619  10.356   5.700
  528SOL    HW1 3481   1.619  10.343   5.795
  528SOL    HW2 3482   1.684  10.295   5.667
  529SOL     OW 3483   5.053   1.520   0.758
  529SOL    HW1 3484   5.104   1.598   0.779
  529SOL    HW2 3485   5.111   1.468   0.702
  530SOL     OW 3486  12.606  10.856   4.071
  530SOL    HW1 3487  12.585  10.768   4.102
  530SOL    HW2 3488  12.639  10.901   4.148
  531SOL     OW 3489   5.909   0.358  13.628
  531SOL    HW1 3490   5.884   0.431  13.684
  531SOL    HW2 3491   6.004   0.351  13.638
  532SOL     OW 3492  13.252   0.799  11.175
  532SOL    HW1 3493  13.270   0.883  11.218
  532SOL    HW2 3494  13.182   0.818  11.113
  533SOL     OW 3495   2.674   1.568   0.771
  533SOL    HW1 3496   2.681   1.662   0.757
  533SOL    HW2 3497   2.753   1.544   0.819
  534SOL     OW 3498   1.178   0.478  11.442
  534SOL    HW1 3499   1.187   0.384  11.459
  534SOL    HW2 3500   1.166   0.483  11.347
  535SOL     OW 3501  13.457   5.634   2.966
  535SOL    HW1 3502  13.464   5.728   2.947
  535SOL    HW2 3503  13.547   5.602   2.965
  536SOL     OW 3504   0.150  12.362  14.484
  536SOL    HW1 3505   0.077  12.335  14.539
  536SOL    HW2 3506   0.113  12.426  14.424
  537SOL     OW 3507  14.844   4.300   3.559
  537SOL    HW1 3508  14.837   4.327   3.468
  537SOL    HW2 3509  14.862   4.381   3.607
  538SOL     OW 3510   7.001   5.057   2.549
  538SOL    HW1 3511   6.988   5.014   2.464
  538SOL    HW2 3512   7.094   5.046   2.567
  539SOL     OW 3513  14.290  13.800  13.381
  539SOL    HW1 3514  14.209  13.819  13.429
  539SOL    HW2 3515  14.328  13.725  13.426
  540SOL     OW 3516   5.210  10.019   1.075
  540SOL    HW1 3517   5.292   9.971   1.075
  540SOL    HW2 3518   5.232  10.104   1.113
  541SOL     OW 3519   5.953   0.022   0.555
  541SOL    HW1 3520   5.963   0.043   0.462
  541SOL    HW2 3521   5.937   0.107   0.597
  542SOL     OW 3522   9.926   2.168  10.788
  542SOL    HW1 3523  10.019   2.150  10.775
  542SOL    HW2 3524   9.883   2.086  10.763
  543SOL     OW 3525   3.245  12.619   3.297
  543SOL    HW1 3526   3.304  12.690   3.324
  543SOL    HW2 3527   3.304  12.548   3.270
  544SOL     OW 3528   9.877   2.016   9.603
  544SOL    HW1 3529   9.963   1.975   9.595
  544SOL    HW2 3530   9.817   1.955   9.561
  545SOL     OW 3531   3.570  10.057  12.056
  545SOL    HW1 3532   3.587   9.963  12.052
  545SOL    HW2 3533   3.478  10.065  12.030
  546SOL     OW 3534   6.551  10.473  12.269
  546SOL    HW1 3535   6.515  10.531  12.201
  546SOL    HW2 3536   6.536  10.385  12.235
  547SOL     OW 3537   5.350   7.374   1.812
  547SOL    HW1 3538   5.408   7.448   1.832
  547SOL    HW2 3539   5.266   7.399   1.850
  548SOL     OW 3540  12.841  11.475   9.455
  548SOL    HW1 3541  12.840  11.400   9.515
  548SOL    HW2 3542  12.923  11.464   9.406
  549SOL     OW 3543  14.114   9.608   9.655
  549SOL    HW1 3544  14.075   9.524   9.629
  549SOL    HW2 3545  14.130   9.598   9.749
  550SOL     OW 3546   0.607   3.291   7.210
  550SOL    HW1 3547   0.635   3.288   7.301
  550SOL    HW2 3548   0.558   3.373   7.203
  551SOL     OW 3549  10.152   4.763   3.521
  551SOL    HW1 3550  10.168   4.830   3.454
  551SOL    HW2 3551  10.098   4.697   3.477
  552SOL     OW 3552   9.407   5.503  11.654
  552SOL    HW1 3553   9.475   5.435  11.649
  552SOL    HW2 3554   9.347   5.483  11.582
  553SOL     OW 3555   2.019   5.022  11.117
  553SOL    HW1 3556   2.093   5.049  11.171
  553SOL    HW2 3557   2.059   4.980  11.041
  554SOL     OW 3558  11.744   1.362   2.185
  554SOL    HW1 3559  11.682   1.337   2.253
  554SOL    HW2 3560  11.693   1.414   2.123
  555SOL     OW 3561   9.223  14.555  11.746
  555SOL    HW1 3562   9.317  14.567  11.761
  555SOL    HW2 3563   9.213  14.568  11.652
  556SOL     OW 3564  10.794   1.664  13.816
  556SOL    HW1 3565  10.775   1.743  13.866
  556SOL    HW2 3566  10.717   1.608  13.830
  557SOL     OW 3567   5.165   3.013  13.116
  557SOL    HW1 3568   5.218   3.091  13.133
  557SOL    HW2 3569   5.117   2.999  13.197
  558SOL     OW 3570  13.327   7.193   8.527
  558SOL    HW1 3571  13.414   7.196   8.567
  558SOL    HW2 3572  13.270   7.240   8.589
  559SOL     OW 3573  10.324   2.720  13.885
  559SOL    HW1 3574  10.371   2.682  13.959
  559SOL    HW2 3575  10.232   2.720  13.913
  560SOL     OW 3576   9.338   7.903   3.691
  560SOL    HW1 3577   9.271   7.944   3.746
  560SOL    HW2 3578   9.417   7.903   3.746
  561SOL     OW 3579  10.882   3.496  11.688
  561SOL    HW1 3580  10.940   3.433  11.731
  561SOL    HW2 3581  10.810   3.443  11.655
  562SOL     OW 3582   6.143  10.446   3.697
  562SOL    HW1 3583   6.203  10.418   3.766
  562SOL    HW2 3584   6.059  10.457   3.742
  563SOL     OW 3585   5.647   5.907  14.719
  563SOL    HW1 3586   5.699   5.988  14.722
  563SOL    HW2 3587   5.711   5.837  14.727
  564SOL     OW 3588  14.632   3.038   6.620
  564SOL    HW1 3589  14.584   3.121   6.614
  564SOL    HW2 3590  14.597   2.985   6.548
  565SOL     OW 3591   0.526   4.228  14.012
  565SOL    HW1 3592   0.509   4.139  13.980
  565SOL    HW2 3593   0.616   4.246  13.986
  566SOL     OW 3594  13.551   7.578  14.139
  566SOL    HW1 3595  13.511   7.635  14.205
  566SOL    HW2 3596  13.481   7.563  14.076
  567SOL     OW 3597   5.017   2.893   2.034
  567SOL    HW1 3598   5.053   2.835   2.102
  567SOL    HW2 3599   5.023   2.842   1.954
  568SOL     OW 3600   7.526   0.174   8.812
  568SOL    HW1 3601   7.458   0.123   8.769
  568SOL    HW2 3602   7.480   0.248   8.851
  569SOL     OW 3603   0.193   4.867   1.612
  569SOL    HW1 3604   0.112   4.901   1.575
  569SOL    HW2 3605   0.253   4.942   1.612
  570SOL     OW 3606  11.306   1.239  11.199
  570SOL    HW1 3607  11.385   1.262  11.150
  570SOL    HW2 3608  11.318   1.280  11.284
  571SOL     OW 3609   1.812  13.357  14.313
  571SOL    HW1 3610   1.749  13.285  14.310
  571SOL    HW2 3611   1.817  13.380  14.406
  572SOL     OW 3612   7.890   5.652  14.332
  572SOL    HW1 3613   7.871   5.741  14.303
  572SOL    HW2 3614   7.918   5.607  14.252
  573SOL     OW 3615  10.978   7.772  12.400
  573SOL    HW1 3616  11.051   7.718  12.369
  573SOL    HW2 3617  11.003   7.799  12.488
  574SOL     OW 3618   2.400  14.477  13.102
  574SOL    HW1 3619   2.411  14.542  13.171
  574SOL    HW2 3620   2.456  14.507  13.031
  575SOL     OW 3621  10.702   6.884  14.650
  575SOL    HW1 3622  10.643   6.823  14.606
  575SOL    HW2 3623  10.678   6.970  14.615
  576SOL     OW 3624   5.447   4.595  13.320
  576SOL    HW1 3625   5.454   4.523  13.256
  576SOL    HW2 3626   5.496   4.563  13.396
  577SOL     OW 3627  10.230   6.534  13.412
  577SOL    HW1 3628  10.318   6.501  13.428
  577SOL    HW2 3629  10.221   6.531  13.316
  578SOL     OW 3630   7.889  10.012   3.140
  578SOL    HW1 3631   7.807  10.040   3.101
  578SOL    HW2 3632   7.956  10.039   3.077
  579SOL     OW 3633   9.818  10.457   5.310
  579SOL    HW1 3634   9.873  10.406   5.369
  579SOL    HW2 3635   9.762  10.509   5.368
  580SOL     OW 3636  10.768   8.177  14.722
  580SOL    HW1 3637  10.739   8.126  14.798
  580SOL    HW2 3638  10.797   8.111  14.659
  581SOL     OW 3639   6.221   2.470   9.386
  581SOL    HW1 3640   6.200   2.561   9.364
  581SOL    HW2 3641   6.136   2.426   9.393
  582SOL     OW 3642  14.780   3.390   1.536
  582SOL    HW1 3643  14.712   3.327   1.557
  582SOL    HW2 3644  14.739   3.476   1.550
  583SOL     OW 3645  14.336   8.910   1.288
  583SOL    HW1 3646  14.416   8.957   1.268
  583SOL    HW2 3647  14.289   8.906   1.204
  584SOL     OW 3648   6.894  11.041   9.709
  584SOL    HW1 3649   6.960  11.010   9.771
  584SOL    HW2 3650   6.810  11.026   9.753
  585SOL     OW 3651   3.429   7.829   0.347
  585SOL    HW1 3652   3.424   7.922   0.366
  585SOL    HW2 3653   3.339   7.802   0.330
  586SOL     OW 3654   6.293  12.646   6.675
  586SOL    HW1 3655   6.354  12.631   6.603
  586SOL    HW2 3656   6.278  12.741   6.674
  587SOL     OW 3657  10.595   8.253   1.654
  587SOL    HW1 3658  10.643   8.183   1.609
  587SOL    HW2 3659  10.505   8.246   1.621
  588SOL     OW 3660  13.961  11.409   6.818
  588SOL    HW1 3661  14.055  11.413   6.802
  588SOL    HW2 3662  13.952  11.353   6.895
  589SOL     OW 3663   6.939   8.669   0.266
  589SOL    HW1 3664   7.003   8.724   0.219
  589SOL    HW2 3665   6.925   8.713   0.349
  590SOL     OW 3666   7.964   5.372   7.146
  590SOL    HW1 3667   7.899   5.335   7.206
  590SOL    HW2 3668   7.934   5.462   7.130
  591SOL     OW 3669   3.493   6.240  12.691
  591SOL    HW1 3670   3.411   6.195  12.673
  591SOL    HW2 3671   3.543   6.233  12.609
  592SOL     OW 3672  14.219   0.456  12.215
  592SOL    HW1 3673  14.189   0.544  12.190
  592SOL    HW2 3674  14.291   0.438  12.155
  593SOL     OW 3675   0.568  10.171  13.601
  593SOL    HW1 3676   0.518  10.212  13.672
  593SOL    HW2 3677   0.510  10.177  13.525
  594SOL     OW 3678   9.563   7.516   9.105
  594SOL    HW1 3679   9.604   7.582   9.050
  594SOL    HW2 3680   9.469   7.531   9.095
  595SOL     OW 3681   3.960   9.688  14.158
  595SOL    HW1 3682   3.930   9.677  14.068
  595SOL    HW2 3683   4.050   9.719  14.150
  596SOL     OW 3684   6.947  11.961   1.095
  596SOL    HW1 3685   6.883  12.012   1.144
  596SOL    HW2 3686   6.895  11.905   1.038
  597SOL     OW 3687  13.992   0.865   4.466
  597SOL    HW1 3688  13.904   0.894   4.447
  597SOL    HW2 3689  13.989   0.770   4.456
  598SOL     OW 3690  11.621   1.599  10.529
  598SOL    HW1 3691  11.619   1.680  10.478
  598SOL    HW2 3692  11.714   1.574  10.528
  599SOL     OW 3693   9.116   5.797  10.056
  599SOL    HW1 3694   9.175   5.725  10.079
  599SOL    HW2 3695   9.156   5.874  10.098
  600SOL     OW 3696  11.890  12.194   1.284
  600SOL    HW1 3697  11.979  12.160   1.298
  600SOL    HW2 3698  11.898  12.250   1.207
  601SOL     OW 3699   0.879  10.472   5.774
  601SOL    HW1 3700   0.944  10.488   5.706
  601SOL    HW2 3701   0.833  10.555   5.784
  602SOL     OW 3702   0.222   7.608   0.951
  602SOL    HW1 3703   0.260   7.683   0.905
  602SOL    HW2 3704   0.130   7.607   0.924
  603SOL     OW 3705   7.325   7.740   4.574
  603SOL    HW1 3706   7.278   7.821   4.596
  603SOL    HW2 3707   7.417   7.761   4.586
  604SOL     OW 3708   7.793   2.944   5.290
  604SOL    HW1 3709   7.868   2.933   5.347
  604SOL    HW2 3710   7.786   3.038   5.277
  605SOL     OW 3711   0.439   4.663   3.323
  605SOL    HW1 3712   0.426   4.574   3.290
  605SOL    HW2 3713   0.502   4.702   3.262
  606SOL     OW 3714  11.450   3.539   3.865
  606SOL    HW1 3715  11.440   3.507   3.776
  606SOL    HW2 3716  11.402   3.622   3.867
  607SOL     OW 3717  14.071   9.829  11.143
  607SOL    HW1 3718  14.101   9.744  11.111
  607SOL    HW2 3719  14.052   9.879  11.063
  608SOL     OW 3720   8.259   1.046  12.073
  608SOL    HW1 3721   8.200   0.978  12.041
  608SOL    HW2 3722   8.295   1.085  11.993
  609SOL     OW 3723   3.005   5.865   1.891
  609SOL    HW1 3724   3.034   5.870   1.800
  609SOL    HW2 3725   3.009   5.956   1.922
  610SOL     OW 3726  10.460   7.857  12.234
  610SOL    HW1 3727  10.451   7.764  12.254
  610SOL    HW2 3728  10.376   7.882  12.196
  611SOL     OW 3729  13.826   6.953  13.733
  611SOL    HW1 3730  13.838   7.048  13.736
  611SOL    HW2 3731  13.884   6.919  13.802
  612SOL     OW 3732   8.343   6.953   5.593
  612SOL    HW1 3733   8.393   7.034   5.593
  612SOL    HW2 3734   8.338   6.928   5.685
  613SOL     OW 3735   8.019   3.926   4.640
  613SOL    HW1 3736   8.112   3.903   4.634
  613SOL    HW2 3737   8.017   4.021   4.628
  614SOL     OW 3738  11.107   2.212   3.035
  614SOL    HW1 3739  11.176   2.239   2.973
  614SOL    HW2 3740  11.116   2.117   3.040
  615SOL     OW 3741  14.032   3.519  10.809
  615SOL    HW1 3742  13.939   3.535  10.828
  615SOL    HW2 3743  14.059   3.456  10.876
  616SOL     OW 3744   7.994   5.873   7.532
  616SOL    HW1 3745   7.975   5.808   7.599
  616SOL    HW2 3746   8.089   5.868   7.519
  617SOL     OW 3747  14.716   6.883  14.113
  617SOL    HW1 3748  14.756   6.885  14.201
  617SOL    HW2 3749  14.790   6.897  14.053
  618SOL     OW 3750   1.456  10.586   6.938
  618SOL    HW1 3751   1.381  10.545   6.980
  618SOL    HW2 3752   1.419  10.631   6.862
  619SOL     OW 3753  10.204   8.587   4.745
  619SOL    HW1 3754  10.296   8.584   4.771
  619SOL    HW2 3755  10.157   8.548   4.819
  620SOL     OW 3756   6.007  12.940   6.145
  620SOL    HW1 3757   6.096  12.967   6.166
  620SOL    HW2 3758   5.979  12.887   6.219
  621SOL     OW 3759   4.170  12.353   9.427
  621SOL    HW1 3760   4.114  12.285   9.464
  621SOL    HW2 3761   4.139  12.434   9.467
  622SOL     OW 3762   8.041   9.020  10.248
  622SOL    HW1 3763   8.086   8.945  10.208
  622SOL    HW2 3764   7.956   8.985  10.275
  623SOL     OW 3765   2.497   0.878   4.957
  623SOL    HW1 3766   2.467   0.889   4.867
  623SOL    HW2 3767   2.584   0.841   4.949
  624SOL     OW 3768  13.766   0.922   3.043
  624SOL    HW1 3769  13.727   0.900   3.127
  624SOL    HW2 3770  13.713   0.994   3.009
  625SOL     OW 3771  13.003   2.875   0.440
  625SOL    HW1 3772  12.953   2.804   0.480
  625SOL    HW2 3773  13.003   2.854   0.346
  626SOL     OW 3774  12.058   9.812   8.985
  626SOL    HW1 3775  12.027   9.902   8.998
  626SOL    HW2 3776  12.138   9.821   8.934
  627SOL     OW 3777   3.559   3.906   4.722
  627SOL    HW1 3778   3.651   3.889   4.741
  627SOL    HW2 3779   3.511   3.837   4.768
  628SOL     OW 3780  12.917   9.129   1.825
  628SOL    HW1 3781  12.852   9.183   1.871
  628SOL    HW2 3782  12.930   9.173   1.741
  629SOL     OW 3783  14.186   3.535   1.485
  629SOL    HW1 3784  14.250   3.467   1.463
  629SOL    HW2 3785  14.106   3.487   1.505
  630SOL     OW 3786   9.374  11.906  11.721
  630SOL    HW1 3787   9.456  11.938  11.684
  630SOL    HW2 3788   9.394  11.887  11.812
  631SOL     OW 3789  13.652   8.496   9.201
  631SOL    HW1 3790  13.603   8.498   9.120
  631SOL    HW2 3791  13.652   8.586   9.232
  632SOL     OW 3792   3.688  12.581   7.318
  632SOL    HW1 3793   3.751  12.523   7.275
  632SOL    HW2 3794   3.604  12.537   7.307
  633SOL     OW 3795   0.983   2.039   4.064
  633SOL    HW1 3796   0.918   1.997   4.008
  633SOL    HW2 3797   0.955   2.017   4.153
  634SOL     OW 3798   8.208  13.395  14.327
  634SOL    HW1 3799   8.199  13.479  14.283
  634SOL    HW2 3800   8.165  13.333  14.270
  635SOL     OW 3801  12.951  11.389  14.770
  635SOL    HW1 3802  12.869  11.418  14.809
  635SOL    HW2 3803  12.956  11.295  14.791
  636SOL     OW 3804   5.459   6.293  11.197
  636SOL    HW1 3805   5.378   6.243  11.193
  636SOL    HW2 3806   5.446   6.355  11.268
  637SOL     OW 3807   8.667  11.522  14.431
  637SOL    HW1 3808   8.720  11.458  14.479
  637SOL    HW2 3809   8.616  11.469  14.369
  638SOL     OW 3810  14.527   7.742   2.966
  638SOL    HW1 3811  14.585   7.816   2.985
  638SOL    HW2 3812  14.556   7.674   3.027
  639SOL     OW 3813   1.978  12.649   7.623
  639SOL    HW1 3814   1.893  12.692   7.624
  639SOL    HW2 3815   1.998  12.638   7.530
  640SOL     OW 3816   2.977   2.590  12.712
  640SOL    HW1 3817   2.964   2.515  12.770
  640SOL    HW2 3818   2.989   2.552  12.625
  641SOL     OW 3819   2.740   8.242   7.876
  641SOL    HW1 3820   2.667   8.293   7.840
  641SOL    HW2 3821   2.719   8.231   7.968
  642SOL     OW 3822   0.593  12.759   4.507
  642SOL    HW1 3823   0.509  12.732   4.470
  642SOL    HW2 3824   0.590  12.732   4.599
  643SOL     OW 3825  10.685   1.826  12.179
  643SOL    HW1 3826  10.686   1.886  12.104
  643SOL    HW2 3827  10.677   1.739  12.139
  644SOL     OW 3828  12.708   7.598  13.426
  644SOL    HW1 3829  12.771   7.526  13.415
  644SOL    HW2 3830  12.750   7.673  13.383
  645SOL     OW 3831   5.159   3.309   9.745
  645SOL    HW1 3832   5.196   3.269   9.666
  645SOL    HW2 3833   5.112   3.386   9.712
  646SOL     OW 3834  13.662   4.862  11.629
  646SOL    HW1 3835  13.614   4.861  11.547
  646SOL    HW2 3836  13.612   4.921  11.686
  647SOL     OW 3837   7.818  13.540  10.912
  647SOL    HW1 3838   7.792  13.483  10.840
  647SOL    HW2 3839   7.900  13.579  10.884
  648SOL     OW 3840   6.765  12.207  14.293
  648SOL    HW1 3841   6.811  12.218  14.210
  648SOL    HW2 3842   6.674  12.194  14.270
  649SOL     OW 3843   6.053   8.578   1.883
  649SOL    HW1 3844   6.006   8.567   1.801
  649SOL    HW2 3845   6.108   8.500   1.890
  650SOL     OW 3846  11.876  14.340   8.913
  650SOL    HW1 3847  11.814  14.358   8.984
  650SOL    HW2 3848  11.898  14.248   8.923
  651SOL     OW 3849   6.801   3.685   8.963
  651SOL    HW1 3850   6.772   3.607   9.009
  651SOL    HW2 3851   6.735   3.752   8.982
  652SOL     OW 3852   3.077   7.738   2.691
  652SOL    HW1 3853   3.127   7.705   2.766
  652SOL    HW2 3854   3.005   7.675   2.680
  653SOL     OW 3855   9.046   4.348   3.059
  653SOL    HW1 3856   9.124   4.293   3.070
  653SOL    HW2 3857   9.073   4.435   3.090
  654SOL     OW 3858   9.707  13.443  10.318
  654SOL    HW1 3859   9.772  13.399  10.373
  654SOL    HW2 3860   9.666  13.506  10.375
  655SOL     OW 3861  12.419   6.623   3.909
  655SOL    HW1 3862  12.507   6.621   3.871
  655SOL    HW2 3863  12.370   6.683   3.853
  656SOL     OW 3864  13.899   5.892   9.193
  656SOL    HW1 3865  13.825   5.831   9.182
  656SOL    HW2 3866  13.916   5.891   9.287
  657SOL     OW 3867   0.217   1.671  10.791
  657SOL    HW1 3868   0.294   1.644  10.740
  657SOL    HW2 3869   0.145   1.621  10.754
  658SOL     OW 3870   2.457   4.712   8.281
  658SOL    HW1 3871   2.409   4.696   8.363
  658SOL    HW2 3872   2.511   4.788   8.299
  659SOL     OW 3873   6.734  13.020  10.983
  659SOL    HW1 3874   6.696  13.105  11.004
  659SOL    HW2 3875   6.696  12.996  10.899
  660SOL     OW 3876  12.617   3.851   1.030
  660SOL    HW1 3877  12.609   3.772   1.084
  660SOL    HW2 3878  12.618   3.923   1.093
  661SOL     OW 3879  10.904  12.933   9.688
  661SOL    HW1 3880  10.828  12.989   9.706
  661SOL    HW2 3881  10.879  12.847   9.723
  662SOL     OW 3882   7.038   9.582   9.320
  662SOL    HW1 3883   7.062   9.533   9.398
  662SOL    HW2 3884   6.965   9.638   9.348
  663SOL     OW 3885   3.108   5.552   2.546
  663SOL    HW1 3886   3.164   5.510   2.481
  663SOL    HW2 3887   3.150   5.637   2.563
  664SOL     OW 3888   1.811   2.600  11.129
  664SOL    HW1 3889   1.879   2.560  11.075
  664SOL    HW2 3890   1.778   2.529  11.183
  665SOL     OW 3891  14.789   0.567   7.653
  665SOL    HW1 3892  14.726   0.508   7.612
  665SOL    HW2 3893  14.750   0.589   7.738
  666SOL     OW 3894   1.383   0.928   8.200
  666SOL    HW1 3895   1.324   0.875   8.255
  666SOL    HW2 3896   1.452   0.955   8.260
  667SOL     OW 3897  11.578   5.143   6.850
  667SOL    HW1 3898  11.495   5.186   6.870
  667SOL    HW2 3899  11.638   5.175   6.917
  668SOL     OW 3900   0.912  13.082   8.550
  668SOL    HW1 3901   0.877  13.170   8.532
  668SOL    HW2 3902   0.875  13.028   8.480
  669SOL     OW 3903   0.706   8.488   2.459
  669SOL    HW1 3904   0.751   8.544   2.396
  669SOL    HW2 3905   0.642   8.439   2.406
  670SOL     OW 3906   1.529   6.875   0.228
  670SOL    HW1 3907   1.456   6.828   0.271
  670SOL    HW2 3908   1.603   6.816   0.237
  671SOL     OW 3909   7.548  12.995  11.506
  671SOL    HW1 3910   7.637  13.013  11.534
  671SOL    HW2 3911   7.511  13.081  11.485
  672SOL     OW 3912   9.813   9.585  12.931
  672SOL    HW1 3913   9.726   9.546  12.920
  672SOL    HW2 3914   9.842   9.555  13.017
  673SOL     OW 3915   6.728   6.890   7.440
  673SOL    HW1 3916   6.743   6.932   7.525
  673SOL    HW2 3917   6.740   6.961   7.377
  674SOL     OW 3918   2.694   5.513  13.329
  674SOL    HW1 3919   2.734   5.426  13.328
  674SOL    HW2 3920   2.647   5.517  13.412
  675SOL     OW 3921  14.638  13.713  12.577
  675SOL    HW1 3922  14.612  13.648  12.512
  675SOL    HW2 3923  14.734  13.710  12.577
  676SOL     OW 3924   6.839   0.180  12.170
  676SOL    HW1 3925   6.792   0.100  12.146
  676SOL    HW2 3926   6.770   0.241  12.197
  677SOL     OW 3927  12.418   8.735  11.772
  677SOL    HW1 3928  12.337   8.767  11.812
  677SOL    HW2 3929  12.458   8.680  11.840
  678SOL     OW 3930   6.363  11.142   9.958
  678SOL    HW1 3931   6.309  11.135   9.879
  678SOL    HW2 3932   6.430  11.206   9.935
  679SOL     OW 3933   5.220   9.438  12.691
  679SOL    HW1 3934   5.241   9.497  12.618
  679SOL    HW2 3935   5.181   9.362  12.649
  680SOL     OW 3936  14.731   8.115   9.408
  680SOL    HW1 3937  14.670   8.040   9.406
  680SOL    HW2 3938  14.674   8.191   9.395
  681SOL     OW 3939  14.246  10.179   5.083
  681SOL    HW1 3940  14.207  10.127   5.012
  681SOL    HW2 3941  14.220  10.269   5.062
  682SOL     OW 3942  12.594   1.514   7.137
  682SOL    HW1 3943  12.609   1.522   7.043
  682SOL    HW2 3944  12.515   1.564   7.154
  683SOL     OW 3945   9.384   2.413  10.466
  683SOL    HW1 3946   9.303   2.393  10.418
  683SOL    HW2 3947   9.385   2.349  10.537
  684SOL     OW 3948  12.695   3.589  12.216
  684SOL    HW1 3949  12.754   3.620  12.148
  684SOL    HW2 3950  12.614   3.566  12.170
  685SOL     OW 3951   8.997   2.462   2.963
  685SOL    HW1 3952   8.903   2.449   2.975
  685SOL    HW2 3953   9.031   2.477   3.051
  686SOL     OW 3954   5.117   3.621  13.588
  686SOL    HW1 3955   5.165   3.639  13.507
  686SOL    HW2 3956   5.185   3.618  13.656
  687SOL     OW 3957   7.217   7.561   8.493
  687SOL    HW1 3958   7.199   7.504   8.567
  687SOL    HW2 3959   7.266   7.634   8.531
  688SOL     OW 3960   2.198   5.917   1.174
  688SOL    HW1 3961   2.122   5.897   1.229
  688SOL    HW2 3962   2.230   5.832   1.146
  689SOL     OW 3963   7.586  10.936  11.788
  689SOL    HW1 3964   7.575  10.940  11.693
  689SOL    HW2 3965   7.497  10.932  11.823
  690SOL     OW 3966   0.516   2.895   7.558
  690SOL    HW1 3967   0.564   2.882   7.640
  690SOL    HW2 3968   0.533   2.816   7.507
  691SOL     OW 3969   1.664  10.884   0.216
  691SOL    HW1 3970   1.621  10.910   0.135
  691SOL    HW2 3971   1.714  10.806   0.193
  692SOL     OW 3972  11.052  14.215   5.545
  692SOL    HW1 3973  11.128  14.213   5.602
  692SOL    HW2 3974  11.067  14.288   5.486
  693SOL     OW 3975   7.900   6.213   1.600
  693SOL    HW1 3976   7.902   6.161   1.681
  693SOL    HW2 3977   7.815   6.256   1.602
  694SOL     OW 3978   4.938   1.294  14.482
  694SOL    HW1 3979   4.960   1.307  14.389
  694SOL    HW2 3980   4.954   1.380  14.522
  695SOL     OW 3981   2.231   6.212   4.763
  695SOL    HW1 3982   2.259   6.200   4.853
  695SOL    HW2 3983   2.138   6.187   4.763
  696SOL     OW 3984  11.022   8.135  10.367
  696SOL    HW1 3985  11.093   8.112  10.307
  696SOL    HW2 3986  10.944   8.139  10.311
  697SOL     OW 3987   5.819   2.473   6.497
  697SOL    HW1 3988   5.758   2.525   6.444
  697SOL    HW2 3989   5.819   2.387   6.456
  698SOL     OW 3990   1.045   7.744  10.420
  698SOL    HW1 3991   1.081   7.819  10.375
  698SOL    HW2 3992   0.952   7.765  10.433
  699SOL     OW 3993   3.853   9.990   4.919
  699SOL    HW1 3994   3.918   9.948   4.977
  699SOL    HW2 3995   3.847  10.080   4.952
  700SOL     OW 3996   0.519   0.358   7.437
  700SOL    HW1 3997   0.540   0.269   7.407
  700SOL    HW2 3998   0.561   0.365   7.522
  701SOL     OW 3999  14.039   7.360   6.997
  701SOL    HW1 4000  14.107   7.382   6.932
  701SOL    HW2 4001  13.971   7.426   6.982
  702SOL     OW 4002  12.799   0.857   1.277
  702SOL    HW1 4003  12.879   0.854   1.330
  702SOL    HW2 4004  12.734   0.897   1.335
  703SOL     OW 4005  12.554   6.493   8.234
  703SOL    HW1 4006  12.525   6.424   8.174
  703SOL    HW2 4007  12.542   6.455   8.321
  704SOL     OW 4008   7.019  14.312   7.410
  704SOL    HW1 4009   6.979  14.253   7.473
  704SOL    HW2 4010   7.103  14.271   7.389
  705SOL     OW 4011  14.273  11.047   8.769
  705SOL    HW1 4012  14.310  11.090   8.846
  705SOL    HW2 4013  14.182  11.031   8.792
  706SOL     OW 4014  13.924   5.625  13.862
  706SOL    HW1 4015  14.012   5.594  13.883
  706SOL    HW2 4016  13.875   5.612  13.943
  707SOL     OW 4017   1.603   4.608   9.241
  707SOL    HW1 4018   1.640   4.672   9.180
  707SOL    HW2 4019   1.631   4.639   9.328
  708SOL     OW 4020   7.950   5.689   8.540
  708SOL    HW1 4021   7.942   5.658   8.450
  708SOL    HW2 4022   7.891   5.764   8.544
  709SOL     OW 4023  10.908  14.500   8.807
  709SOL    HW1 4024  10.842  14.442   8.769
  709SOL    HW2 4025  10.952  14.446   8.872
  710SOL     OW 4026   9.578   3.260   1.828
  710SOL    HW1 4027   9.515   3.245   1.758
  710SOL    HW2 4028   9.660   3.280   1.783
  711SOL     OW 4029   6.504  12.695   8.717
  711SOL    HW1 4030   6.460  12.759   8.661
  711SOL    HW2 4031   6.598  12.713   8.705
  712SOL     OW 4032   2.988   6.417   9.481
  712SOL    HW1 4033   3.014   6.402   9.390
  712SOL    HW2 4034   3.039   6.354   9.532
  713SOL     OW 4035   4.626   6.749  13.619
  713SOL    HW1 4036   4.626   6.673  13.561
  713SOL    HW2 4037   4.597   6.822  13.564
  714SOL     OW 4038  11.900  12.630   3.823
  714SOL    HW1 4039  11.864  12.655   3.739
  714SOL    HW2 4040  11.873  12.699   3.883
  715SOL     OW 4041   2.207   9.787   5.746
  715SOL    HW1 4042   2.292   9.745   5.729
  715SOL    HW2 4043   2.181   9.824   5.662
  716SOL     OW 4044  10.966   1.262   4.957
  716SOL    HW1 4045  10.878   1.283   4.928
  716SOL    HW2 4046  10.981   1.319   5.033
  717SOL     OW 4047   6.495   7.931  11.305
  717SOL    HW1 4048   6.477   7.859  11.365
  717SOL    HW2 4049   6.582   7.961  11.329
  718SOL     OW 4050  14.028  13.225   3.666
  718SOL    HW1 4051  14.104  13.173   3.639
  718SOL    HW2 4052  14.064  13.293   3.723
  719SOL     OW 4053   4.521   7.682   3.403
  719SOL    HW1 4054   4.438   7.699   3.359
  719SOL    HW2 4055   4.497   7.653   3.491
  720SOL     OW 4056   7.072   3.375   0.937
  720SOL    HW1 4057   7.027   3.459   0.930
  720SOL    HW2 4058   7.108   3.374   1.026
  721SOL     OW 4059   7.549   9.578  11.531
  721SOL    HW1 4060   7.537   9.640  11.459
  721SOL    HW2 4061   7.619   9.615  11.584
  722SOL     OW 4062   8.444   4.442  14.312
  722SOL    HW1 4063   8.414   4.506  14.248
  722SOL    HW2 4064   8.432   4.486  14.397
  723SOL     OW 4065   4.720   7.666   9.516
  723SOL    HW1 4066   4.696   7.747   9.563
  723SOL    HW2 4067   4.812   7.652   9.540
  724SOL     OW 4068   6.088   3.337   2.656
  724SOL    HW1 4069   6.015   3.281   2.632
  724SOL    HW2 4070   6.048   3.409   2.704
  725SOL     OW 4071  10.085   1.561   7.819
  725SOL    HW1 4072  10.108   1.523   7.734
  725SOL    HW2 4073  10.054   1.649   7.798
  726SOL     OW 4074   6.336   0.604  12.484
  726SOL    HW1 4075   6.294   0.591  12.399
  726SOL    HW2 4076   6.423   0.567  12.473
  727SOL     OW 4077  13.828   8.181   9.040
  727SOL    HW1 4078  13.905   8.182   8.984
  727SOL    HW2 4079  13.816   8.089   9.063
  728SOL     OW 4080   0.465   2.455   3.632
  728SOL    HW1 4081   0.457   2.424   3.541
  728SOL    HW2 4082   0.555   2.486   3.639
  729SOL     OW 4083  11.313   8.553  12.375
  729SOL    HW1 4084  11.270   8.551  12.289
  729SOL    HW2 4085  11.390   8.609  12.362
  730SOL     OW 4086   1.046   7.545   1.319
  730SOL    HW1 4087   1.080   7.483   1.253
  730SOL    HW2 4088   0.977   7.592   1.274
  731SOL     OW 4089   3.657   8.528  14.591
  731SOL    HW1 4090   3.727   8.583  14.625
  731SOL    HW2 4091   3.701   8.449  14.560
  732SOL     OW 4092   7.423  11.934   4.998
  732SOL    HW1 4093   7.465  11.928   4.912
  732SOL    HW2 4094   7.367  11.857   5.003
  733SOL     OW 4095   0.567   0.523  12.270
  733SOL    HW1 4096   0.579   0.445  12.325
  733SOL    HW2 4097   0.656   0.556  12.256
  734SOL     OW 4098   3.870   4.416   4.317
  734SOL    HW1 4099   3.878   4.425   4.411
  734SOL    HW2 4100   3.960   4.418   4.284
  735SOL     OW 4101   9.730  11.748   3.757
  735SOL    HW1 4102   9.762  11.828   3.716
  735SOL    HW2 4103   9.635  11.756   3.757
  736SOL     OW 4104   4.354  13.992   7.144
  736SOL    HW1 4105   4.373  14.025   7.232
  736SOL    HW2 4106   4.258  13.989   7.140
  737SOL     OW 4107  12.402   5.941   4.413
  737SOL    HW1 4108  12.403   6.025   4.368
  737SOL    HW2 4109  12.340   5.953   4.485
  738SOL     OW 4110   7.852   0.377   3.009
  738SOL    HW1 4111   7.942   0.396   2.985
  738SOL    HW2 4112   7.806   0.460   3.000
  739SOL     OW 4113   8.455  10.341  10.549
  739SOL    HW1 4114   8.549  10.351  10.541
  739SOL    HW2 4115   8.418  10.407  10.490
  740SOL     OW 4116  12.421   7.706   5.652
  740SOL    HW1 4117  12.483   7.778   5.659
  740SOL    HW2 4118  12.403   7.679   5.742
  741SOL     OW 4119   7.715   8.550   2.339
  741SOL    HW1 4120   7.683   8.597   2.262
  741SOL    HW2 4121   7.740   8.464   2.305
  742SOL     OW 4122  10.419  11.134  14.306
  742SOL    HW1 4123  10.487  11.168  14.249
  742SOL    HW2 4124  10.361  11.209  14.321
  743SOL     OW 4125  14.174   1.058  14.747
  743SOL    HW1 4126  14.127   1.009  14.814
  743SOL    HW2 4127  14.116   1.132  14.726
  744SOL     OW 4128   6.301  12.252   4.811
  744SOL    HW1 4129   6.375  12.313   4.823
  744SOL    HW2 4130   6.223  12.308   4.817
  745SOL     OW 4131   7.222  12.104   5.751
  745SOL    HW1 4132   7.179  12.186   5.728
  745SOL    HW2 4133   7.314  12.118   5.728
  746SOL     OW 4134  12.172   8.330  12.009
  746SOL    HW1 4135  12.265   8.345  11.992
  746SOL    HW2 4136  12.136   8.303  11.925
  747SOL     OW 4137   0.129   3.711  10.880
  747SOL    HW1 4138   0.176   3.630  10.859
  747SOL    HW2 4139   0.191   3.781  10.858
  748SOL     OW 4140   6.447   6.430   0.750
  748SOL    HW1 4141   6.413   6.359   0.696
  748SOL    HW2 4142   6.375   6.453   0.809
  749SOL     OW 4143   2.606  12.628   5.494
  749SOL    HW1 4144   2.532  12.595   5.544
  749SOL    HW2 4145   2.616  12.565   5.422
  750SOL     OW 4146   2.727  13.032   2.921
  750SOL    HW1 4147   2.715  13.060   3.012
  750SOL    HW2 4148   2.661  13.081   2.872
  751SOL     OW 4149   2.227   2.145   9.047
  751SOL    HW1 4150   2.227   2.120   9.139
  751SOL    HW2 4151   2.139   2.179   9.031
  752SOL     OW 4152   1.090   8.698   9.109
  752SOL    HW1 4153   1.158   8.725   9.048
  752SOL    HW2 4154   1.016   8.673   9.053
  753SOL     OW 4155   2.654  14.304   3.181
  753SOL    HW1 4156   2.713  14.377   3.162
  753SOL    HW2 4157   2.584  14.343   3.233
  754SOL     OW 4158   8.786   9.197   8.709
  754SOL    HW1 4159   8.798   9.103   8.724
  754SOL    HW2 4160   8.841   9.216   8.633
  755SOL     OW 4161  13.708   8.039  11.509
  755SOL    HW1 4162  13.687   8.131  11.490
  755SOL    HW2 4163  13.643   8.013  11.574
  756SOL     OW 4164   4.058   6.328  12.198
  756SOL    HW1 4165   4.077   6.343  12.291
  756SOL    HW2 4166   4.145   6.315  12.158
  757SOL     OW 4167  11.034  10.781  11.649
  757SOL    HW1 4168  11.007  10.787  11.558
  757SOL    HW2 4169  11.102  10.714  11.651
  758SOL     OW 4170   0.676  14.087   8.273
  758SOL    HW1 4171   0.670  14.129   8.187
  758SOL    HW2 4172   0.626  14.006   8.264
  759SOL     OW 4173  14.699   2.396   1.802
  759SOL    HW1 4174  14.767   2.347   1.755
  759SOL    HW2 4175  14.738   2.414   1.888
  760SOL     OW 4176  12.972   2.173   4.757
  760SOL    HW1 4177  13.017   2.182   4.673
  760SOL    HW2 4178  13.042   2.178   4.822
  761SOL     OW 4179   3.024   9.716   2.391
  761SOL    HW1 4180   2.935   9.736   2.361
  761SOL    HW2 4181   3.062   9.664   2.320
  762SOL     OW 4182   4.486   3.052   0.352
  762SOL    HW1 4183   4.540   3.043   0.431
  762SOL    HW2 4184   4.481   3.147   0.339
  763SOL     OW 4185   6.514   3.795   7.733
  763SOL    HW1 4186   6.449   3.839   7.678
  763SOL    HW2 4187   6.588   3.779   7.675
  764SOL     OW 4188  14.500   3.705  13.824
  764SOL    HW1 4189  14.533   3.687  13.736
  764SOL    HW2 4190  14.567   3.759  13.865
  765SOL     OW 4191   6.231  13.905   3.074
  765SOL    HW1 4192   6.260  13.930   3.162
  765SOL    HW2 4193   6.286  13.955   3.015
  766SOL     OW 4194  12.635  13.569   9.060
  766SOL    HW1 4195  12.598  13.657   9.070
  766SOL    HW2 4196  12.639  13.535   9.150
  767SOL     OW 4197  10.923   2.254   2.553
  767SOL    HW1 4198  10.999   2.247   2.610
  767SOL    HW2 4199  10.848   2.262   2.612
  768SOL     OW 4200  10.353  10.540   5.155
  768SOL    HW1 4201  10.376  10.587   5.235
  768SOL    HW2 4202  10.401  10.458   5.161
  769SOL     OW 4203  11.265   4.330   3.679
  769SOL    HW1 4204  11.215   4.268   3.732
  769SOL    HW2 4205  11.331   4.365   3.739
  770SOL     OW 4206  13.728  14.665   8.398
  770SOL    HW1 4207  13.752  14.627   8.313
  770SOL    HW2 4208  13.771  14.608   8.462
  771SOL     OW 4209   5.075   1.816   1.755
  771SOL    HW1 4210   5.129   1.754   1.705
  771SOL    HW2 4211   5.116   1.817   1.842
  772SOL     OW 4212   7.047   6.663  11.811
  772SOL    HW1 4213   7.040   6.753  11.842
  772SOL    HW2 4214   6.976   6.653  11.748
  773SOL     OW 4215   3.066  13.356   5.035
  773SOL    HW1 4216   3.144  13.391   4.993
  773SOL    HW2 4217   3.078  13.261   5.036
  774SOL     OW 4218  13.962   3.621  12.628
  774SOL    HW1 4219  13.988   3.596  12.539
  774SOL    HW2 4220  13.940   3.714  12.622
  775SOL     OW 4221  11.290   0.683   5.115
  775SOL    HW1 4222  11.219   0.650   5.170
  775SOL    HW2 4223  11.277   0.638   5.031
  776SOL     OW 4224   0.967  14.729  12.484
  776SOL    HW1 4225   0.877  14.702  12.500
  776SOL    HW2 4226   0.976  14.730  12.388
  777SOL     OW 4227   2.341   8.958   7.646
  777SOL    HW1 4228   2.361   8.990   7.558
  777SOL    HW2 4229   2.406   8.889   7.661
  778SOL     OW 4230   7.163  11.641  10.236
  778SOL    HW1 4231   7.102  11.714  10.220
  778SOL    HW2 4232   7.106  11.564  10.244
  779SOL     OW 4233   5.497  14.833   4.628
  779SOL    HW1 4234   5.549  14.832   4.708
  779SOL    HW2 4235   5.560  14.854   4.559
  780SOL     OW 4236   0.123   6.788   8.140
  780SOL    HW1 4237   0.175   6.808   8.063
  780SOL    HW2 4238   0.033   6.782   8.107
  781SOL     OW 4239   8.410   0.347  12.761
  781SOL    HW1 4240   8.448   0.431  12.738
  781SOL    HW2 4241   8.423   0.292  12.683
  782SOL     OW 4242   3.962  10.001   0.242
  782SOL    HW1 4243   3.917  10.085   0.247
  782SOL    HW2 4244   4.051  10.020   0.272
  783SOL     OW 4245   2.474   9.079   8.654
  783SOL    HW1 4246   2.488   9.104   8.563
  783SOL    HW2 4247   2.561   9.051   8.684
  784SOL     OW 4248   8.178   0.439   3.574
  784SOL    HW1 4249   8.148   0.517   3.528
  784SOL    HW2 4250   8.143   0.366   3.524
  785SOL     OW 4251  13.164   2.236   4.932
  785SOL    HW1 4252  13.169   2.293   5.009
  785SOL    HW2 4253  13.248   2.247   4.888
  786SOL     OW 4254   4.970   0.962   6.088
  786SOL    HW1 4255   4.888   1.011   6.092
  786SOL    HW2 4256   4.944   0.870   6.098
  787SOL     OW 4257   6.360   7.266   8.102
  787SOL    HW1 4258   6.363   7.237   8.010
  787SOL    HW2 4259   6.292   7.333   8.103
  788SOL     OW 4260   2.394  10.113   6.296
  788SOL    HW1 4261   2.328  10.051   6.266
  788SOL    HW2 4262   2.463  10.057   6.333
  789SOL     OW 4263  10.232  14.292  12.288
  789SOL    HW1 4264  10.283  14.282  12.207
  789SOL    HW2 4265  10.202  14.383  12.287
  790SOL     OW 4266   7.951   1.095   3.205
  790SOL    HW1 4267   8.016   1.107   3.136
  790SOL    HW2 4268   7.976   1.014   3.249
  791SOL     OW 4269   7.529   6.663   5.861
  791SOL    HW1 4270   7.436   6.639   5.864
  791SOL    HW2 4271   7.554   6.673   5.953
  792SOL     OW 4272   6.528   4.666  10.393
  792SOL    HW1 4273   6.507   4.753  10.360
  792SOL    HW2 4274   6.568   4.621  10.319
  793SOL     OW 4275  14.475   3.539   9.037
  793SOL    HW1 4276  14.490   3.497   8.952
  793SOL    HW2 4277  14.462   3.631   9.016
  794SOL     OW 4278   4.869  13.637  14.080
  794SOL    HW1 4279   4.895  13.590  14.159
  794SOL    HW2 4280   4.908  13.724  14.090
  795SOL     OW 4281   0.104  12.544   0.021
  795SOL    HW1 4282   0.105  12.634  14.855
  795SOL    HW2 4283   0.194  12.529   0.052
  796SOL     OW 4284   0.240  13.659   8.607
  796SOL    HW1 4285   0.301  13.612   8.549
  796SOL    HW2 4286   0.156  13.616   8.594
  797SOL     OW 4287   8.234   8.692   6.775
  797SOL    HW1 4288   8.300   8.728   6.834
  797SOL    HW2 4289   8.279   8.683   6.691
  798SOL     OW 4290   5.341  11.378   7.456
  798SOL    HW1 4291   5.374  11.469   7.455
  798SOL    HW2 4292   5.411  11.328   7.414
  799SOL     OW 4293   2.399  12.566   0.303
  799SOL    HW1 4294   2.417  12.659   0.292
  799SOL    HW2 4295   2.310  12.555   0.271
  800SOL     OW 4296   4.900  11.584   3.217
  800SOL    HW1 4297   4.928  11.493   3.213
  800SOL    HW2 4298   4.837  11.592   3.145
  801SOL     OW 4299   9.874   6.506  10.969
  801SOL    HW1 4300   9.958   6.526  10.928
  801SOL    HW2 4301   9.808   6.540  10.908
  802SOL     OW 4302   9.696  14.265   8.323
  802SOL    HW1 4303   9.648  14.189   8.356
  802SOL    HW2 4304   9.634  14.310   8.266
  803SOL     OW 4305   4.450   5.164   0.569
  803SOL    HW1 4306   4.465   5.112   0.490
  803SOL    HW2 4307   4.360   5.144   0.594
  804SOL     OW 4308   0.309   1.847  14.174
  804SOL    HW1 4309   0.297   1.835  14.080
  804SOL    HW2 4310   0.403   1.845  14.187
  805SOL     OW 4311   3.378  13.291   9.830
  805SOL    HW1 4312   3.472  13.288   9.810
  805SOL    HW2 4313   3.349  13.377   9.799
  806SOL     OW 4314   9.518   8.958  14.380
  806SOL    HW1 4315   9.494   8.933  14.470
  806SOL    HW2 4316   9.497   9.051  14.375
  807SOL     OW 4317   8.618   6.500   6.110
  807SOL    HW1 4318   8.527   6.492   6.138
  807SOL    HW2 4319   8.613   6.554   6.031
  808SOL     OW 4320   0.891   3.940   8.067
  808SOL    HW1 4321   0.956   4.004   8.096
  808SOL    HW2 4322   0.930   3.855   8.088
  809SOL     OW 4323   4.806   2.583   5.700
  809SOL    HW1 4324   4.855   2.600   5.620
  809SOL    HW2 4325   4.814   2.489   5.714
  810SOL     OW 4326  10.254   3.650  12.309
  810SOL    HW1 4327  10.191   3.721  12.301
  810SOL    HW2 4328  10.256   3.630  12.403
  811SOL     OW 4329  13.819  11.934   2.145
  811SOL    HW1 4330  13.760  11.991   2.095
  811SOL    HW2 4331  13.862  11.992   2.207
  812SOL     OW 4332   7.756   6.230  14.624
  812SOL    HW1 4333   7.748   6.317  14.585
  812SOL    HW2 4334   7.689   6.228  14.693
  813SOL     OW 4335   9.019   2.508   1.782
  813SOL    HW1 4336   9.072   2.494   1.861
  813SOL    HW2 4337   8.978   2.593   1.796
  814SOL     OW 4338   9.257   5.662   1.533
  814SOL    HW1 4339   9.335   5.704   1.570
  814SOL    HW2 4340   9.211   5.626   1.608
  815SOL     OW 4341   7.221   9.388  12.211
  815SOL    HW1 4342   7.158   9.421  12.147
  815SOL    HW2 4343   7.187   9.417  12.295
  816SOL     OW 4344  13.857   1.513   1.299
  816SOL    HW1 4345  13.832   1.441   1.241
  816SOL    HW2 4346  13.943   1.489   1.332
  817SOL     OW 4347  11.646   2.479  10.536
  817SOL    HW1 4348  11.559   2.440  10.542
  817SOL    HW2 4349  11.688   2.433  10.463
  818SOL     OW 4350  14.691   2.544  10.433
  818SOL    HW1 4351  14.778   2.512  10.409
  818SOL    HW2 4352  14.631   2.483  10.391
  819SOL     OW 4353   0.958   4.300  14.811
  819SOL    HW1 4354   1.002   4.222  14.777
  819SOL    HW2 4355   1.002   4.373  14.767
  820SOL     OW 4356   0.876   4.684   2.117
  820SOL    HW1 4357   0.872   4.775   2.145
  820SOL    HW2 4358   0.927   4.686   2.036
  821SOL     OW 4359   5.580   8.683   4.394
  821SOL    HW1 4360   5.485   8.690   4.393
  821SOL    HW2 4361   5.597   8.590   4.375
  822SOL     OW 4362   7.274   7.039  12.287
  822SOL    HW1 4363   7.312   7.037  12.375
  822SOL    HW2 4364   7.249   7.131  12.274
  823SOL     OW 4365   2.804  12.922   6.879
  823SOL    HW1 4366   2.864  12.953   6.810
  823SOL    HW2 4367   2.728  12.890   6.831
  824SOL     OW 4368   2.302   4.177   4.638
  824SOL    HW1 4369   2.358   4.106   4.609
  824SOL    HW2 4370   2.296   4.166   4.733
  825SOL     OW 4371  11.834  12.327   3.032
  825SOL    HW1 4372  11.867  12.395   2.974
  825SOL    HW2 4373  11.797  12.261   2.973
  826SOL     OW 4374   8.334  12.397   0.824
  826SOL    HW1 4375   8.275  12.463   0.860
  826SOL    HW2 4376   8.421  12.436   0.831
  827SOL     OW 4377   0.090  11.565   2.420
  827SOL    HW1 4378   0.119  11.638   2.475
  827SOL    HW2 4379   0.088  11.490   2.479
  828SOL     OW 4380   9.879  13.535   4.320
  828SOL    HW1 4381   9.842  13.619   4.293
  828SOL    HW2 4382   9.949  13.557   4.381
  829SOL     OW 4383   7.564   5.789   5.061
  829SOL    HW1 4384   7.479   5.830   5.045
  829SOL    HW2 4385   7.615   5.856   5.107
  830SOL     OW 4386   1.746   2.339   2.184
  830SOL    HW1 4387   1.676   2.332   2.248
  830SOL    HW2 4388   1.769   2.249   2.162
  831SOL     OW 4389   6.767   2.246   6.849
  831SOL    HW1 4390   6.761   2.204   6.935
  831SOL    HW2 4391   6.815   2.184   6.796
  832SOL     OW 4392  13.344   4.662  10.088
  832SOL    HW1 4393  13.395   4.675  10.168
  832SOL    HW2 4394  13.381   4.723  10.025
  833SOL     OW 4395  13.855  14.631   9.850
  833SOL    HW1 4396  13.838  14.723   9.867
  833SOL    HW2 4397  13.850  14.590   9.937
  834SOL     OW 4398  13.569  12.596  14.402
  834SOL    HW1 4399  13.579  12.507  14.438
  834SOL    HW2 4400  13.609  12.653  14.467
  835SOL     OW 4401  10.994  14.274  14.228
  835SOL    HW1 4402  11.049  14.284  14.305
  835SOL    HW2 4403  10.917  14.226  14.259
  836SOL     OW 4404   7.198   6.090   6.420
  836SOL    HW1 4405   7.288   6.121   6.433
  836SOL    HW2 4406   7.166   6.139   6.344
  837SOL     OW 4407   9.976   5.013  10.949
  837SOL    HW1 4408  10.011   5.022  10.861
  837SOL    HW2 4409   9.946   5.101  10.973
  838SOL     OW 4410   5.375  13.762   3.404
  838SOL    HW1 4411   5.350  13.759   3.496
  838SOL    HW2 4412   5.370  13.855   3.381
  839SOL     OW 4413   4.690  11.538   6.917
  839SOL    HW1 4414   4.687  11.442   6.916
  839SOL    HW2 4415   4.780  11.558   6.943
  840SOL     OW 4416   9.021  14.539   3.684
  840SOL    HW1 4417   9.098  14.592   3.705
  840SOL    HW2 4418   9.034  14.511   3.594
  841SOL     OW 4419   7.812  14.738   7.248
  841SOL    HW1 4420   7.878  14.805   7.236
  841SOL    HW2 4421   7.833  14.697   7.332
  842SOL     OW 4422   2.375   1.817   7.227
  842SOL    HW1 4423   2.385   1.908   7.252
  842SOL    HW2 4424   2.432   1.769   7.287
  843SOL     OW 4425  11.641  10.352   1.160
  843SOL    HW1 4426  11.549  10.329   1.169
  843SOL    HW2 4427  11.654  10.424   1.222
  844SOL     OW 4428   7.987   8.780   0.989
  844SOL    HW1 4429   7.977   8.687   0.969
  844SOL    HW2 4430   7.953   8.826   0.913
  845SOL     OW 4431   1.606   1.677   9.212
  845SOL    HW1 4432   1.667   1.607   9.236
  845SOL    HW2 4433   1.650   1.758   9.237
  846SOL     OW 4434   8.825  13.157  12.268
  846SOL    HW1 4435   8.740  13.164  12.311
  846SOL    HW2 4436   8.849  13.065  12.276
  847SOL     OW 4437   4.420   5.385  10.575
  847SOL    HW1 4438   4.482   5.424  10.513
  847SOL    HW2 4439   4.470   5.373  10.655
  848SOL     OW 4440   8.929   8.065   8.872
  848SOL    HW1 4441   8.933   8.017   8.955
  848SOL    HW2 4442   8.835   8.080   8.858
  849SOL     OW 4443   8.836   7.578   7.254
  849SOL    HW1 4444   8.783   7.499   7.265
  849SOL    HW2 4445   8.916   7.547   7.211
  850SOL     OW 4446   0.690  14.750   2.557
  850SOL    HW1 4447   0.759  14.791   2.609
  850SOL    HW2 4448   0.733  14.726   2.475
  851SOL     OW 4449  11.446  11.412   1.473
  851SOL    HW1 4450  11.396  11.493   1.464
  851SOL    HW2 4451  11.506  11.430   1.545
  852SOL     OW 4452  12.861   3.973  10.833
  852SOL    HW1 4453  12.850   4.062  10.799
  852SOL    HW2 4454  12.789   3.962  10.894
  853SOL     OW 4455  10.086   5.851  13.246
  853SOL    HW1 4456  10.051   5.916  13.307
  853SOL    HW2 4457  10.067   5.767  13.288
  854SOL     OW 4458   4.887   8.524   7.751
  854SOL    HW1 4459   4.861   8.441   7.710
  854SOL    HW2 4460   4.821   8.538   7.820
  855SOL     OW 4461   5.874  12.585  11.677
  855SOL    HW1 4462   5.905  12.595  11.766
  855SOL    HW2 4463   5.947  12.546  11.629
  856SOL     OW 4464  13.729  10.489  11.832
  856SOL    HW1 4465  13.656  10.484  11.770
  856SOL    HW2 4466  13.719  10.411  11.887
  857SOL     OW 4467   7.135   8.846  10.744
  857SOL    HW1 4468   7.151   8.811  10.656
  857SOL    HW2 4469   7.188   8.926  10.748
  858SOL     OW 4470  11.319  14.379   3.785
  858SOL    HW1 4471  11.383  14.418   3.844
  858SOL    HW2 4472  11.362  14.377   3.700
  859SOL     OW 4473   6.737  11.749   3.109
  859SOL    HW1 4474   6.804  11.680   3.108
  859SOL    HW2 4475   6.761  11.807   3.037
  860SOL     OW 4476   4.039   6.375  12.495
  860SOL    HW1 4477   3.970   6.404  12.555
  860SOL    HW2 4478   4.085   6.306  12.543
  861SOL     OW 4479   4.417   3.949   4.199
  861SOL    HW1 4480   4.499   3.996   4.185
  861SOL    HW2 4481   4.429   3.906   4.284
  862SOL     OW 4482   8.898   6.140  12.834
  862SOL    HW1 4483   8.990   6.166  12.842
  862SOL    HW2 4484   8.849   6.215  12.868
  863SOL     OW 4485   0.824   9.725   9.752
  863SOL    HW1 4486   0.843   9.742   9.660
  863SOL    HW2 4487   0.754   9.659   9.751
  864SOL     OW 4488   5.809  13.628  13.866
  864SOL    HW1 4489   5.838  13.683  13.939
  864SOL    HW2 4490   5.885  13.626  13.807
  865SOL     OW 4491  14.173   3.758   1.025
  865SOL    HW1 4492  14.090   3.795   0.993
  865SOL    HW2 4493  14.240   3.804   0.974
  866SOL     OW 4494   6.934   6.549   8.795
  866SOL    HW1 4495   6.924   6.531   8.701
  866SOL    HW2 4496   6.969   6.638   8.798
  867SOL     OW 4497   2.150  10.745  11.485
  867SOL    HW1 4498   2.185  10.667  11.527
  867SOL    HW2 4499   2.227  10.799  11.468
  868SOL     OW 4500   4.202   4.594  14.001
  868SOL    HW1 4501   4.227   4.683  14.027
  868SOL    HW2 4502   4.246   4.581  13.916
  869SOL     OW 4503   8.143  13.405  11.758
  869SOL    HW1 4504   8.216  13.344  11.755
  869SOL    HW2 4505   8.163  13.465  11.830
  870SOL     OW 4506   8.373   3.741   5.891
  870SOL    HW1 4507   8.424   3.822   5.892
  870SOL    HW2 4508   8.436   3.672   5.874
  871SOL     OW 4509  13.681   3.110   0.322
  871SOL    HW1 4510  13.587   3.110   0.340
  871SOL    HW2 4511  13.720   3.154   0.397
  872SOL     OW 4512  13.963  11.664  11.273
  872SOL    HW1 4513  13.961  11.728  11.344
  872SOL    HW2 4514  13.934  11.582  11.315
  873SOL     OW 4515   2.174  11.835   5.331
  873SOL    HW1 4516   2.255  11.814   5.285
  873SOL    HW2 4517   2.146  11.919   5.294
  874SOL     OW 4518  12.690   2.560   6.244
  874SOL    HW1 4519  12.668   2.570   6.337
  874SOL    HW2 4520  12.607   2.569   6.198
  875SOL     OW 4521  10.674   7.853   1.928
  875SOL    HW1 4522  10.593   7.898   1.953
  875SOL    HW2 4523  10.658   7.823   1.839
  876SOL     OW 4524   5.650   8.859   0.085
  876SOL    HW1 4525   5.605   8.940   0.107
  876SOL    HW2 4526   5.738   8.869   0.123
  877SOL     OW 4527   2.774   8.833   7.845
  877SOL    HW1 4528   2.825   8.867   7.771
  877SOL    HW2 4529   2.738   8.911   7.887
  878SOL     OW 4530  13.635   7.015   5.025
  878SOL    HW1 4531  13.644   6.928   5.064
  878SOL    HW2 4532  13.540   7.028   5.017
  879SOL     OW 4533   5.139  12.003   4.524
  879SOL    HW1 4534   5.052  12.040   4.538
  879SOL    HW2 4535   5.139  11.974   4.433
  880SOL     OW 4536   1.579  14.736   4.834
  880SOL    HW1 4537   1.658  14.685   4.850
  880SOL    HW2 4538   1.565  14.786   4.914
  881SOL     OW 4539  10.629   7.761   1.575
  881SOL    HW1 4540  10.668   7.703   1.510
  881SOL    HW2 4541  10.535   7.747   1.566
  882SOL     OW 4542  10.832   8.058  12.470
  882SOL    HW1 4543  10.772   8.025  12.403
  882SOL    HW2 4544  10.874   7.980  12.506
  883SOL     OW 4545  13.900   2.159   8.627
  883SOL    HW1 4546  13.847   2.121   8.557
  883SOL    HW2 4547  13.969   2.094   8.643
  884SOL     OW 4548   0.108   0.351   7.179
  884SOL    HW1 4549   0.102   0.264   7.218
  884SOL    HW2 4550   0.036   0.354   7.115
  885SOL     OW 4551   7.742   4.522  11.665
  885SOL    HW1 4552   7.757   4.530  11.759
  885SOL    HW2 4553   7.828   4.500  11.628
  886SOL     OW 4554  12.785  13.620   0.625
  886SOL    HW1 4555  12.816  13.651   0.711
  886SOL    HW2 4556  12.851  13.557   0.597
  887SOL     OW 4557   7.479   5.088   7.131
  887SOL    HW1 4558   7.435   5.047   7.057
  887SOL    HW2 4559   7.432   5.170   7.145
  888SOL     OW 4560  11.521  10.789   0.517
  888SOL    HW1 4561  11.553  10.783   0.606
  888SOL    HW2 4562  11.580  10.735   0.465
  889SOL     OW 4563  10.225   5.134   7.228
  889SOL    HW1 4564  10.248   5.113   7.138
  889SOL    HW2 4565  10.132   5.114   7.234
  890SOL     OW 4566   4.925   7.485   6.529
  890SOL    HW1 4567   5.017   7.488   6.556
  890SOL    HW2 4568   4.883   7.432   6.597
  891SOL     OW 4569   3.105   7.222   8.844
  891SOL    HW1 4570   3.034   7.244   8.905
  891SOL    HW2 4571   3.180   7.205   8.901
  892SOL     OW 4572   9.541   0.167  12.340
  892SOL    HW1 4573   9.557   0.075  12.320
  892SOL    HW2 4574   9.476   0.194  12.275
  893SOL     OW 4575   4.347   6.115  10.056
  893SOL    HW1 4576   4.317   6.047  10.117
  893SOL    HW2 4577   4.328   6.079   9.969
  894SOL     OW 4578   2.092   9.253  13.063
  894SOL    HW1 4579   2.087   9.157  13.061
  894SOL    HW2 4580   2.142   9.273  13.142
  895SOL     OW 4581   0.738   7.544  11.367
  895SOL    HW1 4582   0.681   7.500  11.305
  895SOL    HW2 4583   0.754   7.479  11.435
  896SOL     OW 4584  13.019  10.766  13.274
  896SOL    HW1 4585  12.932  10.760  13.235
  896SOL    HW2 4586  13.063  10.685  13.248
  897SOL     OW 4587   7.225   0.305   3.017
  897SOL    HW1 4588   7.148   0.346   3.056
  897SOL    HW2 4589   7.258   0.370   2.955
  898SOL     OW 4590  10.508   0.623   5.334
  898SOL    HW1 4591  10.458   0.704   5.325
  898SOL    HW2 4592  10.442   0.554   5.333
  899SOL     OW 4593  13.896   8.910  13.402
  899SOL    HW1 4594  13.919   8.819  13.418
  899SOL    HW2 4595  13.959   8.960  13.454
  900SOL     OW 4596   3.459   7.095  11.687
  900SOL    HW1 4597   3.441   7.005  11.713
  900SOL    HW2 4598   3.554   7.101  11.686
  901SOL     OW 4599  10.684   0.736   9.118
  901SOL    HW1 4600  10.754   0.756   9.055
  901SOL    HW2 4601  10.730   0.708   9.197
  902SOL     OW 4602  11.774   8.706  12.708
  902SOL    HW1 4603  11.782   8.634  12.771
  902SOL    HW2 4604  11.806   8.669  12.626
  903SOL     OW 4605   7.780  11.055   4.348
  903SOL    HW1 4606   7.810  11.055   4.439
  903SOL    HW2 4607   7.777  10.962   4.324
  904SOL     OW 4608   7.111   9.749   7.964
  904SOL    HW1 4609   7.019   9.775   7.958
  904SOL    HW2 4610   7.120   9.712   8.051
  905SOL     OW 4611   6.774  10.441   2.773
  905SOL    HW1 4612   6.739  10.514   2.723
  905SOL    HW2 4613   6.801  10.377   2.708
  906SOL     OW 4614   6.862  11.602   1.881
  906SOL    HW1 4615   6.894  11.539   1.815
  906SOL    HW2 4616   6.896  11.687   1.851
  907SOL     OW 4617   7.159   6.850   5.998
  907SOL    HW1 4618   7.107   6.795   5.939
  907SOL    HW2 4619   7.169   6.933   5.951
  908SOL     OW 4620   8.870   8.980  10.553
  908SOL    HW1 4621   8.854   8.939  10.468
  908SOL    HW2 4622   8.805   8.941  10.611
  909SOL     OW 4623  10.437   3.633   6.523
  909SOL    HW1 4624  10.473   3.698   6.584
  909SOL    HW2 4625  10.344   3.626   6.547
  910SOL     OW 4626   1.752   7.793   9.020
  910SOL    HW1 4627   1.753   7.740   9.099
  910SOL    HW2 4628   1.665   7.778   8.983
  911SOL     OW 4629   9.977   2.306   5.290
  911SOL    HW1 4630   9.936   2.290   5.374
  911SOL    HW2 4631  10.069   2.284   5.303
  912SOL     OW 4632   9.899  10.175  12.112
  912SOL    HW1 4633   9.977  10.141  12.067
  912SOL    HW2 4634   9.933  10.238  12.175
  913SOL     OW 4635  11.771  13.599  14.742
  913SOL    HW1 4636  11.831  13.529  14.768
  913SOL    HW2 4637  11.688  13.575  14.783
  914SOL     OW 4638   2.593   5.821  12.384
  914SOL    HW1 4639   2.670   5.765  12.387
  914SOL    HW2 4640   2.534   5.783  12.450
  915SOL     OW 4641   3.929   7.211   2.824
  915SOL    HW1 4642   3.936   7.276   2.894
  915SOL    HW2 4643   3.884   7.137   2.864
  916SOL     OW 4644  12.281  12.718  10.605
  916SOL    HW1 4645  12.306  12.810  10.597
  916SOL    HW2 4646  12.200  12.711  10.553
  917SOL     OW 4647   9.686   6.026  12.335
  917SOL    HW1 4648   9.736   6.081  12.275
  917SOL    HW2 4649   9.720   5.938  12.322
  918SOL     OW 4650  14.671   1.413   0.587
  918SOL    HW1 4651  14.648   1.336   0.535
  918SOL    HW2 4652  14.762   1.433   0.562
  919SOL     OW 4653   4.947   5.761   2.078
  919SOL    HW1 4654   4.972   5.821   2.148
  919SOL    HW2 4655   4.950   5.674   2.119
  920SOL     OW 4656   2.408   4.309   8.438
  920SOL    HW1 4657   2.312   4.301   8.443
  920SOL    HW2 4658   2.423   4.364   8.361
  921SOL     OW 4659  11.116  14.691   9.765
  921SOL    HW1 4660  11.086  14.607   9.800
  921SOL    HW2 4661  11.047  14.753   9.787
  922SOL     OW 4662   9.456   5.104   6.706
  922SOL    HW1 4663   9.405   5.026   6.686
  922SOL    HW2 4664   9.410   5.175   6.662
  923SOL     OW 4665   7.134   6.413   9.819
  923SOL    HW1 4666   7.103   6.356   9.890
  923SOL    HW2 4667   7.057   6.465   9.795
  924SOL     OW 4668   7.028   8.388   9.039
  924SOL    HW1 4669   7.020   8.405   9.133
  924SOL    HW2 4670   6.993   8.468   8.998
  925SOL     OW 4671  12.638   4.010  13.645
  925SOL    HW1 4672  12.620   3.917  13.630
  925SOL    HW2 4673  12.570   4.056  13.596
  926SOL     OW 4674   6.434   8.386   0.885
  926SOL    HW1 4675   6.480   8.461   0.847
  926SOL    HW2 4676   6.499   8.344   0.941
  927SOL     OW 4677  11.178   7.832   9.222
  927SOL    HW1 4678  11.090   7.817   9.257
  927SOL    HW2 4679  11.225   7.752   9.241
  928SOL     OW 4680   0.755  14.611   5.057
  928SOL    HW1 4681   0.736  14.547   4.988
  928SOL    HW2 4682   0.735  14.696   5.017
  929SOL     OW 4683   1.582   3.482   7.388
  929SOL    HW1 4684   1.513   3.502   7.324
  929SOL    HW2 4685   1.535   3.464   7.469
  930SOL     OW 4686   3.296   4.384   7.852
  930SOL    HW1 4687   3.345   4.317   7.900
  930SOL    HW2 4688   3.212   4.343   7.832
  931SOL     OW 4689   6.465   7.050  13.972
  931SOL    HW1 4690   6.407   6.979  13.945
  931SOL    HW2 4691   6.411   7.129  13.967
  932SOL     OW 4692   7.189   5.960   9.660
  932SOL    HW1 4693   7.165   5.893   9.724
  932SOL    HW2 4694   7.119   6.025   9.666
  933SOL     OW 4695  12.250   5.478   1.104
  933SOL    HW1 4696  12.313   5.451   1.037
  933SOL    HW2 4697  12.173   5.505   1.055
  934SOL     OW 4698   8.584   4.324   6.619
  934SOL    HW1 4699   8.608   4.369   6.699
  934SOL    HW2 4700   8.498   4.285   6.638
  935SOL     OW 4701  14.079  10.759  11.920
  935SOL    HW1 4702  13.991  10.747  11.884
  935SOL    HW2 4703  14.065  10.789  12.009
  936SOL     OW 4704   6.108   6.649   0.498
  936SOL    HW1 4705   6.173   6.701   0.546
  936SOL    HW2 4706   6.102   6.567   0.547
  937SOL     OW 4707   3.680   7.263   8.168
  937SOL    HW1 4708   3.604   7.282   8.114
  937SOL    HW2 4709   3.673   7.170   8.188
  938SOL     OW 4710  12.718  14.730   2.617
  938SOL    HW1 4711  12.671  14.762   2.694
  938SOL    HW2 4712  12.795  14.787   2.612
  939SOL     OW 4713   8.719   2.782   0.844
  939SOL    HW1 4714   8.764   2.705   0.878
  939SOL    HW2 4715   8.742   2.784   0.751
  940SOL     OW 4716   6.382  14.826   8.275
  940SOL    HW1 4717   6.375   0.050   8.249
  940SOL    HW2 4718   6.292  14.799   8.292
  941SOL     OW 4719   6.047   2.703   2.108
  941SOL    HW1 4720   5.952   2.701   2.092
  941SOL    HW2 4721   6.084   2.733   2.026
  942SOL     OW 4722   1.841   6.205   9.074
  942SOL    HW1 4723   1.808   6.235   9.159
  942SOL    HW2 4724   1.915   6.149   9.095
  943SOL     OW 4725  10.067  13.182   4.155
  943SOL    HW1 4726  10.046  13.119   4.086
  943SOL    HW2 4727  10.097  13.128   4.228
  944SOL     OW 4728  13.826   8.339   5.325
  944SOL    HW1 4729  13.752   8.312   5.271
  944SOL    HW2 4730  13.839   8.431   5.304
  945SOL     OW 4731  12.261   7.058   5.828
  945SOL    HW1 4732  12.348   7.022   5.843
  945SOL    HW2 4733  12.206   7.016   5.894
  946SOL     OW 4734  13.904   2.696  10.040
  946SOL    HW1 4735  13.883   2.607  10.068
  946SOL    HW2 4736  13.836   2.750  10.080
  947SOL     OW 4737  11.830  12.945   8.240
  947SOL    HW1 4738  11.813  13.033   8.273
  947SOL    HW2 4739  11.876  12.958   8.157
  948SOL     OW 4740   9.646  14.540   8.508
  948SOL    HW1 4741   9.570  14.528   8.451
  948SOL    HW2 4742   9.674  14.451   8.529
  949SOL     OW 4743   2.468   9.338  12.003
  949SOL    HW1 4744   2.435   9.257  12.043
  949SOL    HW2 4745   2.557   9.347  12.038
  950SOL     OW 4746  13.871  13.095  14.634
  950SOL    HW1 4747  13.849  13.074  14.543
  950SOL    HW2 4748  13.787  13.094  14.679
  951SOL     OW 4749  13.443   8.305   5.702
  951SOL    HW1 4750  13.436   8.268   5.614
  951SOL    HW2 4751  13.446   8.228   5.760
  952SOL     OW 4752   2.242  10.619   0.262
  952SOL    HW1 4753   2.259  10.714   0.264
  952SOL    HW2 4754   2.147  10.612   0.277
  953SOL     OW 4755  11.452  12.860   6.636
  953SOL    HW1 4756  11.524  12.916   6.605
  953SOL    HW2 4757  11.443  12.794   6.567
  954SOL     OW 4758   2.551   6.764   0.157
  954SOL    HW1 4759   2.518   6.737   0.243
  954SOL    HW2 4760   2.474   6.797   0.110
  955SOL     OW 4761   1.155   1.165   0.393
  955SOL    HW1 4762   1.102   1.166   0.314
  955SOL    HW2 4763   1.130   1.244   0.440
  956SOL     OW 4764  12.506  12.505   4.546
  956SOL    HW1 4765  12.600  12.520   4.557
  956SOL    HW2 4766  12.498  12.465   4.459
  957SOL     OW 4767   2.066   6.040  12.833
  957SOL    HW1 4768   2.077   6.069  12.743
  957SOL    HW2 4769   2.081   5.945  12.830
  958SOL     OW 4770   5.334   6.699   3.086
  958SOL    HW1 4771   5.396   6.649   3.034
  958SOL    HW2 4772   5.351   6.791   3.065
  959SOL     OW 4773  14.381  11.970   4.736
  959SOL    HW1 4774  14.355  12.012   4.654
  959SOL    HW2 4775  14.380  12.041   4.800
  960SOL     OW 4776   8.222  10.259   3.346
  960SOL    HW1 4777   8.218  10.352   3.366
  960SOL    HW2 4778   8.260  10.254   3.259
  961SOL     OW 4779   1.256   3.758   7.167
  961SOL    HW1 4780   1.240   3.711   7.248
  961SOL    HW2 4781   1.169   3.789   7.140
  962SOL     OW 4782  14.711  12.820   3.372
  962SOL    HW1 4783  14.777  12.813   3.442
  962SOL    HW2 4784  14.752  12.874   3.305
  963SOL     OW 4785   6.190   1.873   2.002
  963SOL    HW1 4786   6.131   1.808   1.964
  963SOL    HW2 4787   6.214   1.929   1.928
  964SOL     OW 4788  12.979  11.848  13.148
  964SOL    HW1 4789  12.952  11.858  13.239
  964SOL    HW2 4790  13.064  11.803  13.153
  965SOL     OW 4791  14.108   6.151   0.999
  965SOL    HW1 4792  14.188   6.193   0.967
  965SOL    HW2 4793  14.130   6.125   1.089
  966SOL     OW 4794   9.486  12.620   9.429
  966SOL    HW1 4795   9.463  12.708   9.401
  966SOL    HW2 4796   9.520  12.631   9.518
  967SOL     OW 4797  11.808   5.413   2.589
  967SOL    HW1 4798  11.767   5.436   2.672
  967SOL    HW2 4799  11.791   5.489   2.532
  968SOL     OW 4800  12.033   3.595   6.544
  968SOL    HW1 4801  11.993   3.531   6.486
  968SOL    HW2 4802  12.126   3.593   6.521
  969SOL     OW 4803  13.309   0.575   3.432
  969SOL    HW1 4804  13.311   0.510   3.502
  969SOL    HW2 4805  13.271   0.653   3.472
  970SOL     OW 4806  10.385   6.075   7.681
  970SOL    HW1 4807  10.377   6.035   7.595
  970SOL    HW2 4808  10.468   6.123   7.678
  971SOL     OW 4809  12.457   0.123  10.340
  971SOL    HW1 4810  12.498   0.203  10.373
  971SOL    HW2 4811  12.363   0.142  10.340
  972SOL     OW 4812   1.933   8.987   5.850
  972SOL    HW1 4813   2.021   8.970   5.881
  972SOL    HW2 4814   1.939   9.070   5.802
  973SOL     OW 4815   7.350   2.495   9.199
  973SOL    HW1 4816   7.259   2.464   9.198
  973SOL    HW2 4817   7.353   2.561   9.130
  974SOL     OW 4818   8.096   8.953   9.078
  974SOL    HW1 4819   8.021   8.928   9.132
  974SOL    HW2 4820   8.170   8.906   9.117
  975SOL     OW 4821   7.851   2.496  13.688
  975SOL    HW1 4822   7.795   2.570  13.661
  975SOL    HW2 4823   7.791   2.437  13.734
  976SOL     OW 4824   7.045  13.496   1.513
  976SOL    HW1 4825   6.989  13.512   1.589
  976SOL    HW2 4826   7.125  13.458   1.550
  977SOL     OW 4827   5.417  13.766   2.037
  977SOL    HW1 4828   5.368  13.848   2.025
  977SOL    HW2 4829   5.354  13.706   2.076
  978SOL     OW 4830  10.017   3.139  13.907
  978SOL    HW1 4831   9.972   3.135  13.823
  978SOL    HW2 4832   9.981   3.066  13.957
  979SOL     OW 4833  11.252  13.493  10.731
  979SOL    HW1 4834  11.227  13.485  10.824
  979SOL    HW2 4835  11.256  13.403  10.700
  980SOL     OW 4836   5.725  13.603   7.287
  980SOL    HW1 4837   5.742  13.517   7.326
  980SOL    HW2 4838   5.775  13.603   7.206
  981SOL     OW 4839   9.959   1.696   3.781
  981SOL    HW1 4840   9.993   1.696   3.870
  981SOL    HW2 4841  10.029   1.735   3.728
  982SOL     OW 4842  11.976  14.596   5.650
  982SOL    HW1 4843  12.013  14.683   5.667
  982SOL    HW2 4844  11.899  14.612   5.596
  983SOL     OW 4845   5.701   9.688   0.149
  983SOL    HW1 4846   5.718   9.642   0.231
  983SOL    HW2 4847   5.783   9.732   0.128
  984SOL     OW 4848  14.104   7.859  11.176
  984SOL    HW1 4849  14.067   7.947  11.168
  984SOL    HW2 4850  14.030   7.801  11.161
  985SOL     OW 4851   6.895   6.596  10.391
  985SOL    HW1 4852   6.960   6.654  10.429
  985SOL    HW2 4853   6.881   6.528  10.458
  986SOL     OW 4854  12.367   2.963   3.459
  986SOL    HW1 4855  12.300   2.950   3.392
  986SOL    HW2 4856  12.330   3.028   3.518
  987SOL     OW 4857   1.354   9.674   2.424
  987SOL    HW1 4858   1.391   9.665   2.336
  987SOL    HW2 4859   1.288   9.604   2.430
  988SOL     OW 4860   5.786   7.531  10.837
  988SOL    HW1 4861   5.849   7.481  10.785
  988SOL    HW2 4862   5.702   7.517  10.793
  989SOL     OW 4863   5.441  13.941   3.007
  989SOL    HW1 4864   5.508  13.875   3.023
  989SOL    HW2 4865   5.404  13.960   3.094
  990SOL     OW 4866   4.191   0.729  13.116
  990SOL    HW1 4867   4.282   0.726  13.088
  990SOL    HW2 4868   4.177   0.821  13.141
  991SOL     OW 4869   4.876  13.801  11.074
  991SOL    HW1 4870   4.916  13.759  10.998
  991SOL    HW2 4871   4.881  13.734  11.143
  992SOL     OW 4872   5.464   9.317   9.805
  992SOL    HW1 4873   5.466   9.249   9.738
  992SOL    HW2 4874   5.384   9.367   9.787
  993SOL     OW 4875   6.764  12.365  10.276
  993SOL    HW1 4876   6.729  12.338  10.361
  993SOL    HW2 4877   6.694  12.415  10.235
  994SOL     OW 4878   7.921   1.438   8.758
  994SOL    HW1 4879   7.890   1.348   8.765
  994SOL    HW2 4880   7.845   1.491   8.782
  995SOL     OW 4881  10.810   5.247  14.145
  995SOL    HW1 4882  10.875   5.308  14.178
  995SOL    HW2 4883  10.852   5.205  14.070
  996SOL     OW 4884   6.598  12.895  13.454
  996SOL    HW1 4885   6.668  12.952  13.423
  996SOL    HW2 4886   6.641  12.812  13.474
  997SOL     OW 4887  13.330  14.360   3.706
  997SOL    HW1 4888  13.238  14.354   3.682
  997SOL    HW2 4889  13.346  14.283   3.760
  998SOL     OW 4890  11.404   5.268   9.601
  998SOL    HW1 4891  11.328   5.292   9.653
  998SOL    HW2 4892  11.428   5.181   9.633
  999SOL     OW 4893   1.797   1.530   4.373
  999SOL    HW1 4894   1.850   1.600   4.412
  999SOL    HW2 4895   1.821   1.531   4.280
 1000SOL     OW 4896   1.902  11.267   9.326
 1000SOL    HW1 4897   1.900  11.179   9.362
 1000SOL    HW2 4898   1.981  11.307   9.361
 1001SOL     OW 4899  12.425  10.364  12.064
 1001SOL    HW1 4900  12.418  10.326  11.976
 1001SOL    HW2 4901  12.432  10.458  12.049
 1002SOL     OW 4902  14.001  13.395   7.069
 1002SOL    HW1 4903  13.937  13.326   7.055
 1002SOL    HW2 4904  13.998  13.412   7.164
 1003SOL     OW 4905   9.181   6.168  11.495
 1003SOL    HW1 4906   9.099   6.204  11.461
 1003SOL    HW2 4907   9.164   6.155  11.588
 1004SOL     OW 4908  11.921  12.402   7.646
 1004SOL    HW1 4909  11.953  12.319   7.680
 1004SOL    HW2 4910  11.862  12.435   7.714
 1005SOL     OW 4911  11.402   7.169   6.954
 1005SOL    HW1 4912  11.328   7.168   6.893
 1005SOL    HW2 4913  11.413   7.260   6.978
 1006SOL     OW 4914   3.109   2.322   1.348
 1006SOL    HW1 4915   3.094   2.371   1.429
 1006SOL    HW2 4916   3.204   2.317   1.341
 1007SOL     OW 4917  11.409  13.214   9.048
 1007SOL    HW1 4918  11.435  13.294   9.094
 1007SOL    HW2 4919  11.420  13.145   9.114
 1008SOL     OW 4920  13.516   8.014  11.684
 1008SOL    HW1 4921  13.452   8.067  11.731
 1008SOL    HW2 4922  13.557   7.960  11.752
 1009SOL     OW 4923   4.525  14.440   9.405
 1009SOL    HW1 4924   4.553  14.476   9.489
 1009SOL    HW2 4925   4.589  14.371   9.387
 1010SOL     OW 4926   8.804   1.250   4.453
 1010SOL    HW1 4927   8.849   1.313   4.396
 1010SOL    HW2 4928   8.724   1.227   4.406
 1011SOL     OW 4929  10.568  13.603  12.247
 1011SOL    HW1 4930  10.620  13.531  12.283
 1011SOL    HW2 4931  10.629  13.677  12.242
 1012SOL     OW 4932   0.062  12.916   2.772
 1012SOL    HW1 4933   0.071  12.972   2.694
 1012SOL    HW2 4934   0.104  12.834   2.747
 1013SOL     OW 4935   9.615   8.252   5.064
 1013SOL    HW1 4936   9.596   8.346   5.061
 1013SOL    HW2 4937   9.695   8.242   5.012
 1014SOL     OW 4938  12.713  12.381   5.927
 1014SOL    HW1 4939  12.658  12.320   5.880
 1014SOL    HW2 4940  12.742  12.444   5.861
 1015SOL     OW 4941  12.245   0.393   6.032
 1015SOL    HW1 4942  12.246   0.393   5.936
 1015SOL    HW2 4943  12.326   0.348   6.057
 1016SOL     OW 4944   9.094  12.652  11.429
 1016SOL    HW1 4945   9.174  12.676  11.476
 1016SOL    HW2 4946   9.032  12.627  11.498
 1017SOL     OW 4947  10.806   3.146  11.697
 1017SOL    HW1 4948  10.880   3.202  11.722
 1017SOL    HW2 4949  10.828   3.115  11.609
 1018SOL     OW 4950  14.037   6.765   4.303
 1018SOL    HW1 4951  13.979   6.791   4.374
 1018SOL    HW2 4952  14.103   6.709   4.344
 1019SOL     OW 4953  10.998   6.353  10.070
 1019SOL    HW1 4954  10.935   6.289  10.038
 1019SOL    HW2 4955  11.000   6.421  10.003
 1020SOL     OW 4956   3.540   9.722   6.538
 1020SOL    HW1 4957   3.530   9.627   6.540
 1020SOL    HW2 4958   3.606   9.738   6.471
 1021SOL     OW 4959  13.960  13.480   8.452
 1021SOL    HW1 4960  13.961  13.395   8.497
 1021SOL    HW2 4961  13.920  13.540   8.516
 1022SOL     OW 4962  13.141   9.199   5.401
 1022SOL    HW1 4963  13.189   9.220   5.320
 1022SOL    HW2 4964  13.142   9.104   5.405
 1023SOL     OW 4965   6.657   6.754   3.675
 1023SOL    HW1 4966   6.574   6.777   3.716
 1023SOL    HW2 4967   6.683   6.673   3.719
 1024SOL     OW 4968   5.244  12.732   8.214
 1024SOL    HW1 4969   5.296  12.670   8.265
 1024SOL    HW2 4970   5.283  12.817   8.235
 1025SOL     OW 4971   0.465  13.219   2.618
 1025SOL    HW1 4972   0.518  13.228   2.697
 1025SOL    HW2 4973   0.483  13.129   2.588
 1026SOL     OW 4974   0.125   6.242  11.539
 1026SOL    HW1 4975   0.048   6.189  11.518
 1026SOL    HW2 4976   0.199   6.183  11.528
 1027SOL     OW 4977  10.604   4.298   9.481
 1027SOL    HW1 4978  10.553   4.233   9.530
 1027SOL    HW2 4979  10.570   4.293   9.392
 1028SOL     OW 4980  14.527   8.067   4.595
 1028SOL    HW1 4981  14.565   8.043   4.680
 1028SOL    HW2 4982  14.514   8.161   4.600
 1029SOL     OW 4983   1.013  13.622   9.025
 1029SOL    HW1 4984   1.106  13.597   9.024
 1029SOL    HW2 4985   0.981  13.595   8.939
 1030SOL     OW 4986  14.106   1.253   2.526
 1030SOL    HW1 4987  14.052   1.224   2.600
 1030SOL    HW2 4988  14.120   1.347   2.542
 1031SOL     OW 4989   2.871   0.514  10.660
 1031SOL    HW1 4990   2.886   0.528  10.566
 1031SOL    HW2 4991   2.951   0.546  10.702
 1032SOL     OW 4992   3.326   0.534   1.337
 1032SOL    HW1 4993   3.310   0.558   1.428
 1032SOL    HW2 4994   3.289   0.446   1.328
 1033SOL     OW 4995  14.105   8.686   5.034
 1033SOL    HW1 4996  14.153   8.658   4.957
 1033SOL    HW2 4997  14.172   8.720   5.094
 1034SOL     OW 4998  12.495  14.762   8.786
 1034SOL    HW1 4999  12.577  14.735   8.826
 1034SOL    HW2 5000  12.461  14.684   8.743
 1035SOL     OW 5001   9.208   5.381   6.362
 1035SOL    HW1 5002   9.256   5.307   6.324
 1035SOL    HW2 5003   9.153   5.413   6.290
 1036SOL     OW 5004   8.515   1.430   6.188
 1036SOL    HW1 5005   8.474   1.515   6.171
 1036SOL    HW2 5006   8.443   1.368   6.193
 1037SOL     OW 5007   9.689   1.620   4.220
 1037SOL    HW1 5008   9.634   1.579   4.287
 1037SOL    HW2 5009   9.668   1.573   4.140
 1038SOL     OW 5010   5.287   3.945   6.050
 1038SOL    HW1 5011   5.192   3.954   6.052
 1038SOL    HW2 5012   5.307   3.925   5.959
 1039SOL     OW 5013   7.070   2.355  10.259
 1039SOL    HW1 5014   7.066   2.267  10.223
 1039SOL    HW2 5015   7.003   2.356  10.327
 1040SOL     OW 5016   5.003  11.551  10.197
 1040SOL    HW1 5017   4.999  11.456  10.204
 1040SOL    HW2 5018   5.037  11.580  10.282
 1041SOL     OW 5019   7.286   2.082  10.859
 1041SOL    HW1 5020   7.232   2.159  10.841
 1041SOL    HW2 5021   7.299   2.042  10.773
 1042SOL     OW 5022  12.497   5.229  11.821
 1042SOL    HW1 5023  12.547   5.304  11.854
 1042SOL    HW2 5024  12.433   5.268  11.760
 1043SOL     OW 5025   4.672   5.312   8.084
 1043SOL    HW1 5026   4.707   5.292   7.997
 1043SOL    HW2 5027   4.577   5.307   8.074
 1044SOL     OW 5028   6.570   2.019  13.439
 1044SOL    HW1 5029   6.558   2.094  13.381
 1044SOL    HW2 5030   6.543   2.050  13.525
 1045SOL     OW 5031   4.572   4.489   3.597
 1045SOL    HW1 5032   4.492   4.441   3.576
 1045SOL    HW2 5033   4.576   4.559   3.532
 1046SOL     OW 5034  14.637   6.881   9.508
 1046SOL    HW1 5035  14.582   6.892   9.586
 1046SOL    HW2 5036  14.594   6.814   9.456
 1047SOL     OW 5037  10.672  10.676  10.486
 1047SOL    HW1 5038  10.655  10.720  10.570
 1047SOL    HW2 5039  10.715  10.742  10.432
 1048SOL     OW 5040  14.834  14.129   1.598
 1048SOL    HW1 5041  14.858  14.053   1.650
 1048SOL    HW2 5042   0.021  14.124   1.520
 1049SOL     OW 5043   3.229  11.386   2.027
 1049SOL    HW1 5044   3.148  11.418   2.067
 1049SOL    HW2 5045   3.298  11.434   2.072
 1050SOL     OW 5046   3.180   5.317   7.294
 1050SOL    HW1 5047   3.181   5.398   7.244
 1050SOL    HW2 5048   3.266   5.314   7.336
 1051SOL     OW 5049  10.008   9.125  13.861
 1051SOL    HW1 5050   9.946   9.077  13.916
 1051SOL    HW2 5051  10.014   9.072  13.781
 1052SOL     OW 5052  12.444   2.866  12.384
 1052SOL    HW1 5053  12.504   2.839  12.315
 1052SOL    HW2 5054  12.358   2.870  12.341
 1053SOL     OW 5055  14.095   8.922   6.510
 1053SOL    HW1 5056  14.180   8.893   6.544
 1053SOL    HW2 5057  14.094   9.017   6.524
 1054SOL     OW 5058   9.701   6.280  10.408
 1054SOL    HW1 5059   9.772   6.301  10.347
 1054SOL    HW2 5060   9.675   6.191  10.384
 1055SOL     OW 5061   1.391   6.794   3.179
 1055SOL    HW1 5062   1.429   6.709   3.156
 1055SOL    HW2 5063   1.306   6.795   3.135
 1056SOL     OW 5064   1.865   8.135  10.604
 1056SOL    HW1 5065   1.788   8.086  10.633
 1056SOL    HW2 5066   1.911   8.075  10.546
 1057SOL     OW 5067   6.748   3.072   9.613
 1057SOL    HW1 5068   6.696   3.027   9.547
 1057SOL    HW2 5069   6.696   3.063   9.694
 1058SOL     OW 5070   9.923  12.193   5.045
 1058SOL    HW1 5071   9.835  12.229   5.056
 1058SOL    HW2 5072   9.919  12.145   4.962
 1059SOL     OW 5073  13.349   8.043   7.942
 1059SOL    HW1 5074  13.346   8.128   7.899
 1059SOL    HW2 5075  13.360   7.980   7.871
 1060SOL     OW 5076  14.144  10.008   4.875
 1060SOL    HW1 5077  14.189   9.934   4.834
 1060SOL    HW2 5078  14.091  10.046   4.805
 1061SOL     OW 5079  12.684  10.576   1.400
 1061SOL    HW1 5080  12.632  10.511   1.447
 1061SOL    HW2 5081  12.640  10.659   1.417
 1062SOL     OW 5082   4.720   6.090  10.588
 1062SOL    HW1 5083   4.690   6.066  10.501
 1062SOL    HW2 5084   4.814   6.075  10.587
 1063SOL     OW 5085   7.908   5.858   5.131
 1063SOL    HW1 5086   7.898   5.762   5.128
 1063SOL    HW2 5087   7.884   5.881   5.221
 1064SOL     OW 5088   9.046  13.597   3.660
 1064SOL    HW1 5089   9.118  13.542   3.689
 1064SOL    HW2 5090   8.971  13.537   3.653
 1065SOL     OW 5091  14.300   4.338  10.338
 1065SOL    HW1 5092  14.247   4.375  10.409
 1065SOL    HW2 5093  14.343   4.414  10.299
 1066SOL     OW 5094   3.153   0.574   4.308
 1066SOL    HW1 5095   3.139   0.491   4.261
 1066SOL    HW2 5096   3.237   0.606   4.276
 1067SOL     OW 5097   2.025  10.924  11.964
 1067SOL    HW1 5098   2.071  10.960  11.889
 1067SOL    HW2 5099   2.092  10.879  12.015
 1068SOL     OW 5100  14.562   0.716   5.367
 1068SOL    HW1 5101  14.608   0.697   5.449
 1068SOL    HW2 5102  14.561   0.812   5.362
 1069SOL     OW 5103   6.469  14.218   7.838
 1069SOL    HW1 5104   6.480  14.257   7.925
 1069SOL    HW2 5105   6.518  14.136   7.842
 1070SOL     OW 5106  14.148   3.836   6.709
 1070SOL    HW1 5107  14.195   3.906   6.664
 1070SOL    HW2 5108  14.070   3.879   6.744
 1071SOL     OW 5109   7.029   9.128  11.892
 1071SOL    HW1 5110   7.093   9.080  11.944
 1071SOL    HW2 5111   6.950   9.129  11.946
 1072SOL     OW 5112   3.335   9.140   9.635
 1072SOL    HW1 5113   3.386   9.178   9.707
 1072SOL    HW2 5114   3.342   9.203   9.564
 1073SOL     OW 5115  14.686  10.191   7.993
 1073SOL    HW1 5116  14.685  10.135   8.070
 1073SOL    HW2 5117  14.594  10.204   7.971
 1074SOL     OW 5118   5.295   8.788   6.344
 1074SOL    HW1 5119   5.282   8.778   6.438
 1074SOL    HW2 5120   5.207   8.785   6.307
 1075SOL     OW 5121   5.311   4.781  12.324
 1075SOL    HW1 5122   5.375   4.827  12.378
 1075SOL    HW2 5123   5.361   4.713  12.280
 1076SOL     OW 5124   6.527  12.476  10.545
 1076SOL    HW1 5125   6.455  12.508  10.600
 1076SOL    HW2 5126   6.580  12.553  10.527
 1077SOL     OW 5127   7.078   9.871  13.051
 1077SOL    HW1 5128   7.125   9.894  12.970
 1077SOL    HW2 5129   7.144   9.881  13.120
 1078SOL     OW 5130   7.383   4.195  11.285
 1078SOL    HW1 5131   7.413   4.132  11.219
 1078SOL    HW2 5132   7.429   4.169  11.365
 1079SOL     OW 5133   8.268   1.589   1.776
 1079SOL    HW1 5134   8.188   1.607   1.727
 1079SOL    HW2 5135   8.265   1.495   1.795
 1080SOL     OW 5136   5.241   4.940   8.593
 1080SOL    HW1 5137   5.316   4.906   8.546
 1080SOL    HW2 5138   5.174   4.873   8.584
 1081SOL     OW 5139   3.911   9.896   2.176
 1081SOL    HW1 5140   3.916   9.969   2.115
 1081SOL    HW2 5141   3.879   9.935   2.258
 1082SOL     OW 5142   9.783  11.757   8.494
 1082SOL    HW1 5143   9.875  11.732   8.490
 1082SOL    HW2 5144   9.781  11.849   8.468
 1083SOL     OW 5145   2.992  11.436  12.110
 1083SOL    HW1 5146   2.961  11.519  12.145
 1083SOL    HW2 5147   3.034  11.459  12.027
 1084SOL     OW 5148  11.777   2.898   5.391
 1084SOL    HW1 5149  11.755   2.917   5.299
 1084SOL    HW2 5150  11.711   2.834   5.418
 1085SOL     OW 5151   0.070  10.576   4.077
 1085SOL    HW1 5152   0.105  10.501   4.029
 1085SOL    HW2 5153  14.848  10.553   4.096
 1086SOL     OW 5154   6.468   5.994   5.304
 1086SOL    HW1 5155   6.484   6.023   5.214
 1086SOL    HW2 5156   6.373   5.997   5.314
 1087SOL     OW 5157   0.386   8.197   7.238
 1087SOL    HW1 5158   0.397   8.191   7.143
 1087SOL    HW2 5159   0.438   8.125   7.273
 1088SOL     OW 5160   8.031   4.241   9.276
 1088SOL    HW1 5161   8.099   4.305   9.295
 1088SOL    HW2 5162   8.078   4.167   9.237
 1089SOL     OW 5163   7.896  12.692   9.135
 1089SOL    HW1 5164   7.866  12.662   9.221
 1089SOL    HW2 5165   7.818  12.726   9.093
 1090SOL     OW 5166   0.003  10.782  13.092
 1090SOL    HW1 5167  14.803  10.840  13.127
 1090SOL    HW2 5168   0.042  10.742  13.169
 1091SOL     OW 5169   0.931  13.010   3.376
 1091SOL    HW1 5170   0.884  13.083   3.335
 1091SOL    HW2 5171   0.957  13.043   3.461
 1092SOL     OW 5172   9.882  13.224   0.676
 1092SOL    HW1 5173   9.952  13.251   0.617
 1092SOL    HW2 5174   9.822  13.174   0.621
 1093SOL     OW 5175   0.050  12.981  13.446
 1093SOL    HW1 5176   0.030  12.946  13.533
 1093SOL    HW2 5177  14.855  12.938  13.388
 1094SOL     OW 5178   1.349  12.944  12.432
 1094SOL    HW1 5179   1.376  12.982  12.516
 1094SOL    HW2 5180   1.431  12.936  12.382
 1095SOL     OW 5181   9.946  10.675   2.050
 1095SOL    HW1 5182  10.007  10.722   1.992
 1095SOL    HW2 5183   9.978  10.585   2.051
 1096SOL     OW 5184   4.815  12.937   1.589
 1096SOL    HW1 5185   4.808  12.958   1.496
 1096SOL    HW2 5186   4.883  12.996   1.622
 1097SOL     OW 5187   2.670   0.015  10.585
 1097SOL    HW1 5188   2.631  14.864  10.500
 1097SOL    HW2 5189   2.669   0.110  10.591
 1098SOL     OW 5190   4.213   3.533   0.196
 1098SOL    HW1 5191   4.233   3.599   0.263
 1098SOL    HW2 5192   4.297   3.517   0.153
 1099SOL     OW 5193   3.795  13.796   0.491
 1099SOL    HW1 5194   3.821  13.706   0.508
 1099SOL    HW2 5195   3.711  13.789   0.446
 1100SOL     OW 5196   7.029   7.555   4.086
 1100SOL    HW1 5197   7.118   7.527   4.109
 1100SOL    HW2 5198   7.020   7.533   3.993
 1101SOL     OW 5199   5.448  10.167   3.337
 1101SOL    HW1 5200   5.482  10.110   3.407
 1101SOL    HW2 5201   5.474  10.255   3.364
 1102SOL     OW 5202  13.878   5.244  12.033
 1102SOL    HW1 5203  13.922   5.174  12.083
 1102SOL    HW2 5204  13.865   5.206  11.946
 1103SOL     OW 5205   0.835   1.394   2.820
 1103SOL    HW1 5206   0.813   1.482   2.850
 1103SOL    HW2 5207   0.923   1.402   2.784
 1104SOL     OW 5208  14.036   8.158  11.163
 1104SOL    HW1 5209  14.012   8.191  11.249
 1104SOL    HW2 5210  14.132   8.162  11.161
 1105SOL     OW 5211   3.207  12.008  12.512
 1105SOL    HW1 5212   3.175  11.937  12.567
 1105SOL    HW2 5213   3.206  11.972  12.423
 1106SOL     OW 5214   8.115   6.700   3.834
 1106SOL    HW1 5215   8.172   6.624   3.845
 1106SOL    HW2 5216   8.172   6.775   3.850
 1107SOL     OW 5217  11.183  12.784  13.348
 1107SOL    HW1 5218  11.191  12.736  13.265
 1107SOL    HW2 5219  11.090  12.806  13.353
 1108SOL     OW 5220   9.879  14.584   9.470
 1108SOL    HW1 5221   9.956  14.547   9.426
 1108SOL    HW2 5222   9.856  14.660   9.416
 1109SOL     OW 5223   2.037   5.036   8.451
 1109SOL    HW1 5224   1.965   5.089   8.417
 1109SOL    HW2 5225   2.055   4.973   8.381
 1110SOL     OW 5226   5.655   7.189   0.688
 1110SOL    HW1 5227   5.586   7.123   0.685
 1110SOL    HW2 5228   5.608   7.272   0.675
 1111SOL     OW 5229   9.847   6.690  11.952
 1111SOL    HW1 5230   9.885   6.717  12.035
 1111SOL    HW2 5231   9.902   6.617  11.924
 1112SOL     OW 5232   7.989  13.498   9.737
 1112SOL    HW1 5233   7.964  13.406   9.741
 1112SOL    HW2 5234   7.935  13.541   9.803
 1113SOL     OW 5235  13.785   6.528  13.317
 1113SOL    HW1 5236  13.828   6.528  13.232
 1113SOL    HW2 5237  13.701   6.572  13.302
 1114SOL     OW 5238   5.972   8.079   8.395
 1114SOL    HW1 5239   5.999   8.119   8.312
 1114SOL    HW2 5240   5.949   7.989   8.372
 1115SOL     OW 5241  10.076   5.497   8.297
 1115SOL    HW1 5242  10.091   5.496   8.391
 1115SOL    HW2 5243  10.079   5.405   8.271
 1116SOL     OW 5244  12.316  11.057   1.059
 1116SOL    HW1 5245  12.325  10.968   1.092
 1116SOL    HW2 5246  12.402  11.080   1.024
 1117SOL     OW 5247   2.640  10.865  14.535
 1117SOL    HW1 5248   2.683  10.902  14.458
 1117SOL    HW2 5249   2.562  10.822  14.501
 1118SOL     OW 5250  13.913  10.286  14.703
 1118SOL    HW1 5251  13.840  10.240  14.662
 1118SOL    HW2 5252  13.873  10.336  14.775
 1119SOL     OW 5253   3.550  14.758   0.494
 1119SOL    HW1 5254   3.581  14.672   0.523
 1119SOL    HW2 5255   3.626  14.816   0.505
 1120SOL     OW 5256   4.913  10.983   8.460
 1120SOL    HW1 5257   4.832  10.984   8.511
 1120SOL    HW2 5258   4.894  10.927   8.385
 1121SOL     OW 5259  12.133   4.314  12.699
 1121SOL    HW1 5260  12.127   4.273  12.613
 1121SOL    HW2 5261  12.221   4.352  12.701
 1122SOL     OW 5262   7.246   6.358   4.408
 1122SOL    HW1 5263   7.315   6.423   4.395
 1122SOL    HW2 5264   7.271   6.311   4.488
 1123SOL     OW 5265   5.985  10.320   9.689
 1123SOL    HW1 5266   6.017  10.309   9.600
 1123SOL    HW2 5267   5.919  10.388   9.684
 1124SOL     OW 5268   9.413   2.111  11.583
 1124SOL    HW1 5269   9.341   2.132  11.643
 1124SOL    HW2 5270   9.451   2.196  11.561
 1125SOL     OW 5271  13.562   4.387   8.140
 1125SOL    HW1 5272  13.549   4.473   8.101
 1125SOL    HW2 5273  13.588   4.331   8.067
 1126SOL     OW 5274  12.033   8.351   4.384
 1126SOL    HW1 5275  12.106   8.411   4.402
 1126SOL    HW2 5276  12.039   8.286   4.454
 1127SOL     OW 5277   5.156  11.466   3.101
 1127SOL    HW1 5278   5.222  11.462   3.170
 1127SOL    HW2 5279   5.085  11.409   3.132
 1128SOL     OW 5280   6.273  12.671   4.946
 1128SOL    HW1 5281   6.248  12.592   4.994
 1128SOL    HW2 5282   6.364  12.687   4.973
 1129SOL     OW 5283  10.264  12.638   4.256
 1129SOL    HW1 5284  10.207  12.623   4.331
 1129SOL    HW2 5285  10.352  12.623   4.290
 1130SOL     OW 5286   3.050   5.078   6.880
 1130SOL    HW1 5287   3.100   5.095   6.960
 1130SOL    HW2 5288   3.094   5.129   6.812
 1131SOL     OW 5289   1.833   6.980  14.220
 1131SOL    HW1 5290   1.904   7.035  14.255
 1131SOL    HW2 5291   1.787   7.036  14.158
 1132SOL     OW 5292   2.990  11.735  14.199
 1132SOL    HW1 5293   2.985  11.815  14.251
 1132SOL    HW2 5294   3.005  11.766  14.109
 1133SOL     OW 5295  11.023   8.504   1.387
 1133SOL    HW1 5296  11.059   8.422   1.422
 1133SOL    HW2 5297  11.100   8.557   1.366
 1134SOL     OW 5298   0.319   6.929  10.256
 1134SOL    HW1 5299   0.399   6.982  10.253
 1134SOL    HW2 5300   0.301   6.907  10.164
 1135SOL     OW 5301   9.158   1.838   1.990
 1135SOL    HW1 5302   9.101   1.897   2.039
 1135SOL    HW2 5303   9.200   1.785   2.057
 1136SOL     OW 5304   3.668  10.240   4.276
 1136SOL    HW1 5305   3.748  10.190   4.290
 1136SOL    HW2 5306   3.673  10.268   4.184
 1137SOL     OW 5307   4.539  12.093   9.361
 1137SOL    HW1 5308   4.494  12.089   9.445
 1137SOL    HW2 5309   4.628  12.064   9.380
 1138SOL     OW 5310  12.520  10.078  12.749
 1138SOL    HW1 5311  12.533   9.984  12.736
 1138SOL    HW2 5312  12.437  10.085  12.796
 1139SOL     OW 5313  13.056   7.992   6.060
 1139SOL    HW1 5314  13.093   8.015   5.975
 1139SOL    HW2 5315  13.050   7.897   6.059
 1140SOL     OW 5316  12.210   2.847   5.658
 1140SOL    HW1 5317  12.193   2.760   5.693
 1140SOL    HW2 5318  12.274   2.885   5.718
 1141SOL     OW 5319  10.279  14.567   1.104
 1141SOL    HW1 5320  10.304  14.534   1.018
 1141SOL    HW2 5321  10.256  14.659   1.088
 1142SOL     OW 5322  12.585   2.394   4.156
 1142SOL    HW1 5323  12.680   2.411   4.157
 1142SOL    HW2 5324  12.551   2.446   4.229
 1143SOL     OW 5325   9.156   4.700   1.874
 1143SOL    HW1 5326   9.139   4.710   1.967
 1143SOL    HW2 5327   9.118   4.778   1.833
 1144SOL     OW 5328   8.972  13.448   7.115
 1144SOL    HW1 5329   8.980  13.407   7.029
 1144SOL    HW2 5330   9.063  13.464   7.143
 1145SOL     OW 5331   3.052   5.968   5.504
 1145SOL    HW1 5332   3.090   5.906   5.443
 1145SOL    HW2 5333   3.031   6.045   5.451
 1146SOL     OW 5334   1.692   9.206   4.597
 1146SOL    HW1 5335   1.773   9.219   4.645
 1146SOL    HW2 5336   1.647   9.290   4.601
 1147SOL     OW 5337  11.516  10.535   6.369
 1147SOL    HW1 5338  11.557  10.621   6.363
 1147SOL    HW2 5339  11.449  10.544   6.436
 1148SOL     OW 5340   5.089   7.447   1.161
 1148SOL    HW1 5341   5.057   7.379   1.102
 1148SOL    HW2 5342   5.099   7.525   1.107
 1149SOL     OW 5343  13.332  10.835   3.284
 1149SOL    HW1 5344  13.248  10.803   3.252
 1149SOL    HW2 5345  13.376  10.869   3.206
 1150SOL     OW 5346   6.607   0.303   0.153
 1150SOL    HW1 5347   6.540   0.279   0.217
 1150SOL    HW2 5348   6.687   0.310   0.204
 1151SOL     OW 5349   7.778  13.415  12.790
 1151SOL    HW1 5350   7.821  13.353  12.732
 1151SOL    HW2 5351   7.850  13.461  12.833
 1152SOL     OW 5352  11.757   1.196  13.242
 1152SOL    HW1 5353  11.783   1.109  13.212
 1152SOL    HW2 5354  11.797   1.256  13.180
 1153SOL     OW 5355   6.825   6.268  13.752
 1153SOL    HW1 5356   6.752   6.281  13.812
 1153SOL    HW2 5357   6.784   6.250  13.667
 1154SOL     OW 5358   6.161   4.573   4.154
 1154SOL    HW1 5359   6.066   4.572   4.168
 1154SOL    HW2 5360   6.178   4.660   4.119
 1155SOL     OW 5361   7.268   5.709   7.935
 1155SOL    HW1 5362   7.202   5.734   7.871
 1155SOL    HW2 5363   7.274   5.614   7.928
 1156SOL     OW 5364  10.130   7.400  12.131
 1156SOL    HW1 5365  10.135   7.459  12.055
 1156SOL    HW2 5366  10.182   7.324  12.105
 1157SOL     OW 5367  13.864   7.472   5.419
 1157SOL    HW1 5368  13.836   7.419   5.494
 1157SOL    HW2 5369  13.942   7.518   5.449
 1158SOL     OW 5370   5.851  13.966   6.171
 1158SOL    HW1 5371   5.775  13.907   6.166
 1158SOL    HW2 5372   5.813  14.051   6.193
 1159SOL     OW 5373   2.614  11.635  10.259
 1159SOL    HW1 5374   2.706  11.636  10.233
 1159SOL    HW2 5375   2.566  11.659  10.180
 1160SOL     OW 5376   5.758   0.668  14.083
 1160SOL    HW1 5377   5.789   0.580  14.103
 1160SOL    HW2 5378   5.682   0.680  14.139
 1161SOL     OW 5379  11.011   1.827   0.696
 1161SOL    HW1 5380  11.076   1.895   0.681
 1161SOL    HW2 5381  11.022   1.766   0.623
 1162SOL     OW 5382   4.637   3.349  14.352
 1162SOL    HW1 5383   4.618   3.257  14.368
 1162SOL    HW2 5384   4.679   3.350  14.266
 1163SOL     OW 5385  12.409  11.425  12.776
 1163SOL    HW1 5386  12.457  11.427  12.694
 1163SOL    HW2 5387  12.390  11.332  12.791
 1164SOL     OW 5388  12.515   0.106   8.155
 1164SOL    HW1 5389  12.431   0.099   8.201
 1164SOL    HW2 5390  12.501   0.057   8.074
 1165SOL     OW 5391  11.843   3.185   0.158
 1165SOL    HW1 5392  11.829   3.270   0.198
 1165SOL    HW2 5393  11.793   3.188   0.077
 1166SOL     OW 5394   3.466   8.440   7.082
 1166SOL    HW1 5395   3.452   8.532   7.062
 1166SOL    HW2 5396   3.558   8.434   7.107
 1167SOL     OW 5397  13.935   9.100   1.255
 1167SOL    HW1 5398  13.909   9.071   1.342
 1167SOL    HW2 5399  14.029   9.114   1.261
 1168SOL     OW 5400  10.420  12.751   8.589
 1168SOL    HW1 5401  10.512  12.752   8.561
 1168SOL    HW2 5402  10.419  12.798   8.672
 1169SOL     OW 5403  11.314   6.846  13.063
 1169SOL    HW1 5404  11.323   6.755  13.090
 1169SOL    HW2 5405  11.245   6.882  13.119
 1170SOL     OW 5406  10.296   4.217   3.687
 1170SOL    HW1 5407  10.280   4.164   3.609
 1170SOL    HW2 5408  10.224   4.194   3.746
 1171SOL     OW 5409   2.477   5.555  14.190
 1171SOL    HW1 5410   2.539   5.628  14.199
 1171SOL    HW2 5411   2.417   5.566  14.265
 1172SOL     OW 5412   7.908  14.254   8.984
 1172SOL    HW1 5413   7.906  14.344   9.019
 1172SOL    HW2 5414   7.821  14.219   9.001
 1173SOL     OW 5415   9.155   7.676   4.968
 1173SOL    HW1 5416   9.121   7.591   4.942
 1173SOL    HW2 5417   9.122   7.689   5.057
 1174SOL     OW 5418   1.885   3.717   6.896
 1174SOL    HW1 5419   1.857   3.626   6.886
 1174SOL    HW2 5420   1.811   3.760   6.939
 1175SOL     OW 5421   9.727   4.644  13.971
 1175SOL    HW1 5422   9.637   4.616  13.987
 1175SOL    HW2 5423   9.719   4.714  13.906
 1176SOL     OW 5424   2.637  10.331   0.431
 1176SOL    HW1 5425   2.543  10.344   0.416
 1176SOL    HW2 5426   2.675  10.419   0.422
 1177SOL     OW 5427   1.377   6.998  11.478
 1177SOL    HW1 5428   1.330   7.030  11.402
 1177SOL    HW2 5429   1.318   6.934  11.518
 1178SOL     OW 5430   0.099   5.730  13.319
 1178SOL    HW1 5431   0.018   5.713  13.270
 1178SOL    HW2 5432   0.132   5.642  13.341
 1179SOL     OW 5433   9.473   0.527   6.679
 1179SOL    HW1 5434   9.569   0.526   6.683
 1179SOL    HW2 5435   9.453   0.551   6.589
 1180SOL     OW 5436   4.008   8.433  11.478
 1180SOL    HW1 5437   3.949   8.454  11.550
 1180SOL    HW2 5438   4.096   8.438  11.517
 1181SOL     OW 5439   9.167  14.652  11.082
 1181SOL    HW1 5440   9.256  14.647  11.116
 1181SOL    HW2 5441   9.169  14.600  11.002
 1182SOL     OW 5442  14.537   1.469   5.709
 1182SOL    HW1 5443  14.522   1.487   5.802
 1182SOL    HW2 5444  14.496   1.543   5.664
 1183SOL     OW 5445   0.075   9.400   7.316
 1183SOL    HW1 5446   0.054   9.324   7.371
 1183SOL    HW2 5447   0.168   9.390   7.296
 1184SOL     OW 5448   8.809   4.008   5.557
 1184SOL    HW1 5449   8.766   4.039   5.477
 1184SOL    HW2 5450   8.890   4.059   5.562
 1185SOL     OW 5451  13.417   9.163   4.169
 1185SOL    HW1 5452  13.403   9.226   4.099
 1185SOL    HW2 5453  13.419   9.216   4.249
 1186SOL     OW 5454  10.453   3.814   6.834
 1186SOL    HW1 5455  10.427   3.905   6.818
 1186SOL    HW2 5456  10.527   3.800   6.774
 1187SOL     OW 5457   4.987   7.762   9.659
 1187SOL    HW1 5458   4.965   7.692   9.721
 1187SOL    HW2 5459   5.068   7.734   9.618
 1188SOL     OW 5460  12.541   4.468   3.302
 1188SOL    HW1 5461  12.579   4.545   3.259
 1188SOL    HW2 5462  12.481   4.505   3.368
 1189SOL     OW 5463   1.367   5.185   1.616
 1189SOL    HW1 5464   1.419   5.195   1.696
 1189SOL    HW2 5465   1.431   5.192   1.545
 1190SOL     OW 5466  11.782   4.107   4.259
 1190SOL    HW1 5467  11.869   4.147   4.273
 1190SOL    HW2 5468  11.739   4.115   4.344
 1191SOL     OW 5469   1.339   0.798   7.025
 1191SOL    HW1 5470   1.302   0.779   7.111
 1191SOL    HW2 5471   1.427   0.830   7.043
 1192SOL     OW 5472   0.229  14.364   8.896
 1192SOL    HW1 5473   0.222  14.284   8.843
 1192SOL    HW2 5474   0.283  14.339   8.971
 1193SOL     OW 5475  10.282   8.253   3.451
 1193SOL    HW1 5476  10.228   8.210   3.385
 1193SOL    HW2 5477  10.247   8.342   3.456
 1194SOL     OW 5478  12.737   2.901   7.231
 1194SOL    HW1 5479  12.690   2.856   7.300
 1194SOL    HW2 5480  12.676   2.903   7.157
 1195SOL     OW 5481   8.633   3.850  14.794
 1195SOL    HW1 5482   8.612   3.938  14.825
 1195SOL    HW2 5483   8.613   3.793   0.000
 1196SOL     OW 5484   5.389  11.349  12.091
 1196SOL    HW1 5485   5.300  11.383  12.081
 1196SOL    HW2 5486   5.387  11.304  12.175
 1197SOL     OW 5487   4.494   4.103   9.192
 1197SOL    HW1 5488   4.417   4.101   9.249
 1197SOL    HW2 5489   4.486   4.184   9.142
 1198SOL     OW 5490  14.020   2.450   2.588
 1198SOL    HW1 5491  14.095   2.393   2.606
 1198SOL    HW2 5492  14.010   2.502   2.668
 1199SOL     OW 5493  10.729   2.254   4.187
 1199SOL    HW1 5494  10.743   2.161   4.205
 1199SOL    HW2 5495  10.634   2.264   4.186
 1200SOL     OW 5496   5.077   4.965  14.143
 1200SOL    HW1 5497   4.991   4.926  14.132
 1200SOL    HW2 5498   5.075   5.002  14.232
 1201SOL     OW 5499   0.045  12.652   9.146
 1201SOL    HW1 5500   0.037  12.722   9.082
 1201SOL    HW2 5501   0.097  12.691   9.217
 1202SOL     OW 5502   7.636   0.822  14.679
 1202SOL    HW1 5503   7.641   0.871  14.761
 1202SOL    HW2 5504   7.692   0.746  14.693
 1203SOL     OW 5505   0.629  13.016   2.444
 1203SOL    HW1 5506   0.569  12.948   2.415
 1203SOL    HW2 5507   0.674  12.978   2.519
 1204SOL     OW 5508  11.324   2.982  10.990
 1204SOL    HW1 5509  11.366   3.060  11.024
 1204SOL    HW2 5510  11.394   2.918  10.979
 1205SOL     OW 5511  13.322  10.750  13.138
 1205SOL    HW1 5512  13.294  10.803  13.063
 1205SOL    HW2 5513  13.243  10.703  13.164
 1206SOL     OW 5514   1.526  14.368   0.745
 1206SOL    HW1 5515   1.538  14.299   0.810
 1206SOL    HW2 5516   1.613  14.383   0.709
 1207SOL     OW 5517   0.852   8.003   9.392
 1207SOL    HW1 5518   0.896   8.027   9.310
 1207SOL    HW2 5519   0.778   7.949   9.364
 1208SOL     OW 5520  13.638   0.002  14.646
 1208SOL    HW1 5521  13.543  14.865  14.640
 1208SOL    HW2 5522  13.655   0.081  14.697
 1209SOL     OW 5523  11.296   0.478  13.346
 1209SOL    HW1 5524  11.371   0.430  13.382
 1209SOL    HW2 5525  11.227   0.466  13.411
 1210SOL     OW 5526   7.478   2.181  14.000
 1210SOL    HW1 5527   7.454   2.088  13.996
 1210SOL    HW2 5528   7.398   2.226  14.023
 1211SOL     OW 5529  13.925   0.906   7.947
 1211SOL    HW1 5530  13.849   0.849   7.931
 1211SOL    HW2 5531  13.919   0.972   7.878
 1212SOL     OW 5532  14.503   2.804  14.494
 1212SOL    HW1 5533  14.428   2.837  14.444
 1212SOL    HW2 5534  14.570   2.785  14.429
 1213SOL     OW 5535   5.958   9.533   9.984
 1213SOL    HW1 5536   5.915   9.594   9.925
 1213SOL    HW2 5537   5.913   9.450   9.970
 1214SOL     OW 5538  11.186   4.316   8.951
 1214SOL    HW1 5539  11.212   4.388   8.895
 1214SOL    HW2 5540  11.238   4.327   9.031
 1215SOL     OW 5541   0.150  14.032  13.742
 1215SOL    HW1 5542   0.226  13.974  13.736
 1215SOL    HW2 5543   0.102  14.016  13.660
 1216SOL     OW 5544   6.103   5.309  11.686
 1216SOL    HW1 5545   6.078   5.233  11.738
 1216SOL    HW2 5546   6.198   5.303  11.680
 1217SOL     OW 5547   8.153   3.816  11.375
 1217SOL    HW1 5548   8.169   3.803  11.469
 1217SOL    HW2 5549   8.100   3.741  11.349
 1218SOL     OW 5550   8.557   9.368   1.018
 1218SOL    HW1 5551   8.642   9.413   1.018
 1218SOL    HW2 5552   8.540   9.351   1.111
 1219SOL     OW 5553   4.686   2.249   6.940
 1219SOL    HW1 5554   4.741   2.172   6.928
 1219SOL    HW2 5555   4.739   2.309   6.992
 1220SOL     OW 5556   6.535   3.143  13.880
 1220SOL    HW1 5557   6.463   3.206  13.885
 1220SOL    HW2 5558   6.578   3.163  13.796
 1221SOL     OW 5559  14.266   8.908   1.014
 1221SOL    HW1 5560  14.219   8.827   0.997
 1221SOL    HW2 5561  14.211   8.977   0.977
 1222SOL     OW 5562   0.594   3.874  11.439
 1222SOL    HW1 5563   0.610   3.955  11.391
 1222SOL    HW2 5564   0.586   3.807  11.371
 1223SOL     OW 5565   5.999   8.066  11.548
 1223SOL    HW1 5566   6.066   8.005  11.517
 1223SOL    HW2 5567   5.985   8.126  11.475
 1224SOL     OW 5568  13.211   8.200  10.906
 1224SOL    HW1 5569  13.140   8.147  10.869
 1224SOL    HW2 5570  13.174   8.287  10.916
 1225SOL     OW 5571  13.720  14.119  13.732
 1225SOL    HW1 5572  13.682  14.179  13.796
 1225SOL    HW2 5573  13.645  14.084  13.684
 1226SOL     OW 5574   0.249  10.234  12.310
 1226SOL    HW1 5575   0.222  10.214  12.399
 1226SOL    HW2 5576   0.204  10.168  12.256
 1227SOL     OW 5577   5.662   1.041   2.927
 1227SOL    HW1 5578   5.702   0.958   2.954
 1227SOL    HW2 5579   5.596   1.017   2.863
 1228SOL     OW 5580   3.897   0.464   8.971
 1228SOL    HW1 5581   3.809   0.494   8.994
 1228SOL    HW2 5582   3.884   0.415   8.889
 1229SOL     OW 5583  11.214  11.413   7.164
 1229SOL    HW1 5584  11.253  11.455   7.242
 1229SOL    HW2 5585  11.134  11.373   7.196
 1230SOL     OW 5586  14.266  11.154  11.589
 1230SOL    HW1 5587  14.209  11.214  11.541
 1230SOL    HW2 5588  14.354  11.187  11.571
 1231SOL     OW 5589   6.288   4.613   8.863
 1231SOL    HW1 5590   6.198   4.614   8.895
 1231SOL    HW2 5591   6.304   4.703   8.834
 1232SOL     OW 5592   5.995   6.575  14.403
 1232SOL    HW1 5593   5.931   6.638  14.436
 1232SOL    HW2 5594   5.945   6.519  14.343
 1233SOL     OW 5595   1.020   5.637   3.701
 1233SOL    HW1 5596   1.016   5.566   3.636
 1233SOL    HW2 5597   1.080   5.701   3.663
 1234SOL     OW 5598   6.672   7.272   1.595
 1234SOL    HW1 5599   6.691   7.359   1.632
 1234SOL    HW2 5600   6.736   7.261   1.525
 1235SOL     OW 5601   7.493  12.267  10.982
 1235SOL    HW1 5602   7.401  12.242  10.971
 1235SOL    HW2 5603   7.492  12.363  10.984
 1236SOL     OW 5604  11.353   0.524   1.355
 1236SOL    HW1 5605  11.385   0.612   1.337
 1236SOL    HW2 5606  11.268   0.537   1.396
 1237SOL     OW 5607   6.432  11.095   3.018
 1237SOL    HW1 5608   6.447  11.185   2.987
 1237SOL    HW2 5609   6.392  11.105   3.104
 1238SOL     OW 5610   4.616   9.920   5.652
 1238SOL    HW1 5611   4.652   9.834   5.675
 1238SOL    HW2 5612   4.643   9.934   5.562
 1239SOL     OW 5613   1.319   3.395   2.868
 1239SOL    HW1 5614   1.307   3.489   2.863
 1239SOL    HW2 5615   1.366   3.380   2.950
 1240SOL     OW 5616   2.859   4.803  13.913
 1240SOL    HW1 5617   2.813   4.801  13.829
 1240SOL    HW2 5618   2.948   4.829  13.890
 1241SOL     OW 5619   1.839  14.751   5.756
 1241SOL    HW1 5620   1.795  14.836   5.763
 1241SOL    HW2 5621   1.822  14.722   5.666
 1242SOL     OW 5622  10.881  12.078  11.173
 1242SOL    HW1 5623  10.961  12.042  11.211
 1242SOL    HW2 5624  10.876  12.038  11.086
 1243SOL     OW 5625   4.986   5.803   7.240
 1243SOL    HW1 5626   5.015   5.887   7.205
 1243SOL    HW2 5627   4.938   5.825   7.320
 1244SOL     OW 5628  11.955   3.366  14.782
 1244SOL    HW1 5629  11.866   3.337  14.759
 1244SOL    HW2 5630  12.013   3.311  14.729
 1245SOL     OW 5631  14.654   0.868   0.322
 1245SOL    HW1 5632  14.652   0.820   0.405
 1245SOL    HW2 5633  14.722   0.824   0.270
 1246SOL     OW 5634  14.730   4.029   5.384
 1246SOL    HW1 5635  14.749   4.100   5.323
 1246SOL    HW2 5636  14.699   4.072   5.464
 1247SOL     OW 5637   9.135  12.867  12.234
 1247SOL    HW1 5638   9.117  12.773  12.241
 1247SOL    HW2 5639   9.077  12.907  12.299
 1248SOL     OW 5640  13.663   5.218  10.929
 1248SOL    HW1 5641  13.593   5.256  10.876
 1248SOL    HW2 5642  13.732   5.283  10.928
 1249SOL     OW 5643   8.624  10.507   2.074
 1249SOL    HW1 5644   8.662  10.420   2.060
 1249SOL    HW2 5645   8.678  10.565   2.020
 1250SOL     OW 5646   7.764  11.476   7.209
 1250SOL    HW1 5647   7.736  11.394   7.251
 1250SOL    HW2 5648   7.824  11.516   7.272
 1251SOL     OW 5649   7.358  13.632  14.852
 1251SOL    HW1 5650   7.361  13.727  14.862
 1251SOL    HW2 5651   7.450  13.606  14.849
 1252SOL     OW 5652   1.233   7.607   0.223
 1252SOL    HW1 5653   1.214   7.604   0.129
 1252SOL    HW2 5654   1.275   7.692   0.236
 1253SOL     OW 5655   6.645   7.874  13.441
 1253SOL    HW1 5656   6.603   7.797  13.479
 1253SOL    HW2 5657   6.656   7.934  13.514
 1254SOL     OW 5658  10.392   9.791   5.932
 1254SOL    HW1 5659  10.482   9.814   5.907
 1254SOL    HW2 5660  10.371   9.716   5.876
 1255SOL     OW 5661  14.668   3.880  13.405
 1255SOL    HW1 5662  14.663   3.961  13.456
 1255SOL    HW2 5663  14.752   3.885  13.359
 1256SOL     OW 5664   0.618   7.862   5.060
 1256SOL    HW1 5665   0.621   7.920   4.983
 1256SOL    HW2 5666   0.706   7.868   5.098
 1257SOL     OW 5667   2.688  11.333   6.359
 1257SOL    HW1 5668   2.758  11.377   6.311
 1257SOL    HW2 5669   2.732  11.277   6.422
 1258SOL     OW 5670   5.537   5.933   0.638
 1258SOL    HW1 5671   5.571   6.001   0.696
 1258SOL    HW2 5672   5.602   5.928   0.567
 1259SOL     OW 5673   9.439   3.377   3.214
 1259SOL    HW1 5674   9.382   3.453   3.204
 1259SOL    HW2 5675   9.528   3.412   3.208
 1260SOL     OW 5676   8.372   2.689   8.744
 1260SOL    HW1 5677   8.448   2.644   8.780
 1260SOL    HW2 5678   8.323   2.718   8.820
 1261SOL     OW 5679   4.033   9.196  14.018
 1261SOL    HW1 5680   4.055   9.105  14.001
 1261SOL    HW2 5681   3.949   9.193  14.063
 1262SOL     OW 5682   6.478  10.202  13.267
 1262SOL    HW1 5683   6.389  10.170  13.255
 1262SOL    HW2 5684   6.484  10.277  13.207
 1263SOL     OW 5685  11.417  13.347   4.355
 1263SOL    HW1 5686  11.496  13.391   4.385
 1263SOL    HW2 5687  11.432  13.254   4.373
 1264SOL     OW 5688  10.268  13.256   0.457
 1264SOL    HW1 5689  10.273  13.240   0.551
 1264SOL    HW2 5690  10.343  13.313   0.438
 1265SOL     OW 5691   4.416   0.844   0.563
 1265SOL    HW1 5692   4.433   0.932   0.527
 1265SOL    HW2 5693   4.321   0.841   0.574
 1266SOL     OW 5694   6.272   6.482  10.709
 1266SOL    HW1 5695   6.178   6.467  10.706
 1266SOL    HW2 5696   6.284   6.569  10.671
 1267SOL     OW 5697  11.248  11.183  11.723
 1267SOL    HW1 5698  11.184  11.112  11.732
 1267SOL    HW2 5699  11.243  11.231  11.805
 1268SOL     OW 5700   5.601   3.473   6.227
 1268SOL    HW1 5701   5.626   3.561   6.199
 1268SOL    HW2 5702   5.514   3.484   6.266
 1269SOL     OW 5703  14.319   5.601   4.323
 1269SOL    HW1 5704  14.248   5.544   4.295
 1269SOL    HW2 5705  14.391   5.542   4.346
 1270SOL     OW 5706  10.082  10.066   3.832
 1270SOL    HW1 5707  10.112  10.083   3.743
 1270SOL    HW2 5708  10.135  10.124   3.886
 1271SOL     OW 5709   0.899   9.360   4.883
 1271SOL    HW1 5710   0.825   9.352   4.822
 1271SOL    HW2 5711   0.972   9.388   4.828
 1272SOL     OW 5712   6.102  10.573   2.546
 1272SOL    HW1 5713   6.120  10.652   2.597
 1272SOL    HW2 5714   6.115  10.599   2.455
 1273SOL     OW 5715   4.164   6.146   0.994
 1273SOL    HW1 5716   4.120   6.142   1.079
 1273SOL    HW2 5717   4.199   6.235   0.988
 1274SOL     OW 5718   9.256   1.613   0.870
 1274SOL    HW1 5719   9.161   1.612   0.883
 1274SOL    HW2 5720   9.289   1.676   0.935
 1275SOL     OW 5721   7.839   9.572   7.026
 1275SOL    HW1 5722   7.853   9.663   7.052
 1275SOL    HW2 5723   7.923   9.530   7.040
 1276SOL     OW 5724   2.498   8.893   2.872
 1276SOL    HW1 5725   2.454   8.884   2.787
 1276SOL    HW2 5726   2.534   8.982   2.870
 1277SOL     OW 5727   9.493  13.308   4.372
 1277SOL    HW1 5728   9.457  13.312   4.284
 1277SOL    HW2 5729   9.498  13.400   4.399
 1278SOL     OW 5730  13.203   9.861   8.189
 1278SOL    HW1 5731  13.242   9.944   8.218
 1278SOL    HW2 5732  13.129   9.888   8.135
 1279SOL     OW 5733  12.486   2.886  12.829
 1279SOL    HW1 5734  12.484   2.817  12.896
 1279SOL    HW2 5735  12.453   2.843  12.750
 1280SOL     OW 5736   8.084   3.741   0.204
 1280SOL    HW1 5737   8.173   3.776   0.198
 1280SOL    HW2 5738   8.053   3.769   0.290
 1281SOL     OW 5739   7.688   7.585   9.176
 1281SOL    HW1 5740   7.628   7.524   9.133
 1281SOL    HW2 5741   7.644   7.669   9.173
 1282SOL     OW 5742   1.905   2.766  13.863
 1282SOL    HW1 5743   1.991   2.756  13.821
 1282SOL    HW2 5744   1.906   2.702  13.934
 1283SOL     OW 5745   1.141  11.518  12.378
 1283SOL    HW1 5746   1.205  11.530  12.308
 1283SOL    HW2 5747   1.057  11.518  12.333
 1284SOL     OW 5748   2.883  13.812   6.553
 1284SOL    HW1 5749   2.964  13.761   6.556
 1284SOL    HW2 5750   2.814  13.747   6.565
 1285SOL     OW 5751   9.344   0.670   5.716
 1285SOL    HW1 5752   9.341   0.651   5.810
 1285SOL    HW2 5753   9.277   0.614   5.678
 1286SOL     OW 5754  12.875   5.184   0.258
 1286SOL    HW1 5755  12.830   5.152   0.336
 1286SOL    HW2 5756  12.956   5.222   0.291
 1287SOL     OW 5757   1.662   8.075  12.132
 1287SOL    HW1 5758   1.690   8.004  12.075
 1287SOL    HW2 5759   1.711   8.151  12.102
 1288SOL     OW 5760  12.395   9.764  11.424
 1288SOL    HW1 5761  12.454   9.756  11.349
 1288SOL    HW2 5762  12.310   9.786  11.385
 1289SOL     OW 5763   5.800  14.635   4.239
 1289SOL    HW1 5764   5.870  14.570   4.226
 1289SOL    HW2 5765   5.763  14.613   4.324
 1290SOL     OW 5766   7.605  10.580   6.877
 1290SOL    HW1 5767   7.638  10.612   6.793
 1290SOL    HW2 5768   7.511  10.596   6.874
 1291SOL     OW 5769   0.725   3.511   8.086
 1291SOL    HW1 5770   0.717   3.446   8.018
 1291SOL    HW2 5771   0.735   3.461   8.167
 1292SOL     OW 5772  11.693   2.519   1.365
 1292SOL    HW1 5773  11.639   2.597   1.377
 1292SOL    HW2 5774  11.630   2.448   1.356
 1293SOL     OW 5775   6.219  12.591   0.992
 1293SOL    HW1 5776   6.308  12.582   0.958
 1293SOL    HW2 5777   6.229  12.584   1.087
 1294SOL     OW 5778   1.247  10.522   8.866
 1294SOL    HW1 5779   1.201  10.438   8.860
 1294SOL    HW2 5780   1.229  10.566   8.783
 1295SOL     OW 5781   7.330  13.520   1.292
 1295SOL    HW1 5782   7.265  13.499   1.359
 1295SOL    HW2 5783   7.322  13.615   1.280
 1296SOL     OW 5784   2.898  13.702   4.671
 1296SOL    HW1 5785   2.809  13.736   4.667
 1296SOL    HW2 5786   2.915  13.689   4.764
 1297SOL     OW 5787  10.687  13.732   0.042
 1297SOL    HW1 5788  10.631  13.807   0.021
 1297SOL    HW2 5789  10.675  13.720   0.136
 1298SOL     OW 5790   6.454   4.067  13.727
 1298SOL    HW1 5791   6.443   4.143  13.671
 1298SOL    HW2 5792   6.521   4.014  13.684
 1299SOL     OW 5793   4.298   7.717   4.318
 1299SOL    HW1 5794   4.287   7.805   4.355
 1299SOL    HW2 5795   4.368   7.677   4.370
 1300SOL     OW 5796   3.442  13.868   5.404
 1300SOL    HW1 5797   3.403  13.935   5.460
 1300SOL    HW2 5798   3.373  13.846   5.342
 1301SOL     OW 5799   5.001  11.745  11.974
 1301SOL    HW1 5800   5.061  11.742  12.049
 1301SOL    HW2 5801   5.039  11.686  11.910
 1302SOL     OW 5802   9.232  13.156   3.729
 1302SOL    HW1 5803   9.178  13.136   3.806
 1302SOL    HW2 5804   9.304  13.094   3.733
 1303SOL     OW 5805   4.829   9.792  11.325
 1303SOL    HW1 5806   4.739   9.760  11.334
 1303SOL    HW2 5807   4.847   9.787  11.231
 1304SOL     OW 5808  14.541   5.982   8.577
 1304SOL    HW1 5809  14.483   5.907   8.559
 1304SOL    HW2 5810  14.483   6.049   8.612
 1305SOL     OW 5811   1.058  12.748   5.193
 1305SOL    HW1 5812   1.132  12.741   5.133
 1305SOL    HW2 5813   1.030  12.657   5.206
 1306SOL     OW 5814  13.387   9.084  10.190
 1306SOL    HW1 5815  13.378   9.113  10.099
 1306SOL    HW2 5816  13.298   9.064  10.217
 1307SOL     OW 5817  11.857   2.578   7.941
 1307SOL    HW1 5818  11.857   2.504   7.881
 1307SOL    HW2 5819  11.788   2.636   7.908
 1308SOL     OW 5820  10.562   5.677   3.338
 1308SOL    HW1 5821  10.657   5.671   3.323
 1308SOL    HW2 5822  10.524   5.655   3.253
 1309SOL     OW 5823   5.945  14.796   0.831
 1309SOL    HW1 5824   5.987  14.792   0.745
 1309SOL    HW2 5825   5.881  14.725   0.830
 1310SOL     OW 5826   8.985  14.309   7.048
 1310SOL    HW1 5827   9.016  14.219   7.058
 1310SOL    HW2 5828   9.058  14.363   7.078
 1311SOL     OW 5829  14.601   6.769   4.454
 1311SOL    HW1 5830  14.637   6.700   4.510
 1311SOL    HW2 5831  14.616   6.738   4.365
 1312SOL     OW 5832   2.228   8.221  10.862
 1312SOL    HW1 5833   2.151   8.278  10.855
 1312SOL    HW2 5834   2.217   8.157  10.792
 1313SOL     OW 5835  13.843  13.701  13.011
 1313SOL    HW1 5836  13.874  13.782  13.052
 1313SOL    HW2 5837  13.747  13.708  13.015
 1314SOL     OW 5838   5.562  10.348   1.794
 1314SOL    HW1 5839   5.638  10.362   1.851
 1314SOL    HW2 5840   5.487  10.349   1.854
 1315SOL     OW 5841   3.822  11.817   4.720
 1315SOL    HW1 5842   3.874  11.775   4.787
 1315SOL    HW2 5843   3.871  11.897   4.698
 1316SOL     OW 5844  11.664   2.335  10.272
 1316SOL    HW1 5845  11.607   2.310  10.199
 1316SOL    HW2 5846  11.748   2.354  10.231
 1317SOL     OW 5847  10.142   9.924   5.802
 1317SOL    HW1 5848  10.212   9.971   5.847
 1317SOL    HW2 5849  10.116   9.856   5.865
 1318SOL     OW 5850   5.110   6.503  13.568
 1318SOL    HW1 5851   5.050   6.569  13.534
 1318SOL    HW2 5852   5.168   6.551  13.626
 1319SOL     OW 5853   9.184  10.511   5.747
 1319SOL    HW1 5854   9.183  10.440   5.683
 1319SOL    HW2 5855   9.177  10.591   5.695
 1320SOL     OW 5856   6.374   1.283   3.729
 1320SOL    HW1 5857   6.377   1.364   3.679
 1320SOL    HW2 5858   6.416   1.304   3.812
 1321SOL     OW 5859   8.827  11.797   8.993
 1321SOL    HW1 5860   8.746  11.790   9.043
 1321SOL    HW2 5861   8.874  11.715   9.011
 1322SOL     OW 5862   6.756  12.976   3.630
 1322SOL    HW1 5863   6.719  12.906   3.684
 1322SOL    HW2 5864   6.828  13.012   3.682
 1323SOL     OW 5865   8.106   0.444   2.988
 1323SOL    HW1 5866   8.173   0.427   2.921
 1323SOL    HW2 5867   8.156   0.478   3.063
 1324SOL     OW 5868   1.050   8.461  12.088
 1324SOL    HW1 5869   0.992   8.461  12.013
 1324SOL    HW2 5870   1.065   8.554  12.106
 1325SOL     OW 5871   1.271  11.840  11.708
 1325SOL    HW1 5872   1.210  11.780  11.664
 1325SOL    HW2 5873   1.243  11.839  11.799
 1326SOL     OW 5874   0.981   3.037  12.726
 1326SOL    HW1 5875   1.032   3.111  12.692
 1326SOL    HW2 5876   0.890   3.068  12.726
 1327SOL     OW 5877   3.834   4.220  12.490
 1327SOL    HW1 5878   3.889   4.289  12.526
 1327SOL    HW2 5879   3.764   4.267  12.443
 1328SOL     OW 5880  11.867   0.547  12.310
 1328SOL    HW1 5881  11.914   0.469  12.340
 1328SOL    HW2 5882  11.882   0.612  12.380
 1329SOL     OW 5883  13.813  10.720   7.754
 1329SOL    HW1 5884  13.725  10.683   7.746
 1329SOL    HW2 5885  13.805  10.809   7.718
 1330SOL     OW 5886   0.904   8.086   5.439
 1330SOL    HW1 5887   0.846   8.161   5.424
 1330SOL    HW2 5888   0.978   8.102   5.380
 1331SOL     OW 5889   5.883  11.939   8.233
 1331SOL    HW1 5890   5.963  11.941   8.181
 1331SOL    HW2 5891   5.873  11.847   8.258
 1332SOL     OW 5892   2.492  10.167   3.756
 1332SOL    HW1 5893   2.452  10.221   3.688
 1332SOL    HW2 5894   2.573  10.213   3.779
 1333SOL     OW 5895   1.477  11.702   0.550
 1333SOL    HW1 5896   1.429  11.747   0.480
 1333SOL    HW2 5897   1.515  11.625   0.508
 1334SOL     OW 5898  14.174  14.525   9.935
 1334SOL    HW1 5899  14.158  14.599   9.876
 1334SOL    HW2 5900  14.099  14.526   9.995
 1335SOL     OW 5901  11.013  11.220   7.246
 1335SOL    HW1 5902  10.991  11.134   7.283
 1335SOL    HW2 5903  10.982  11.216   7.155
 1336SOL     OW 5904  14.764   8.685   2.110
 1336SOL    HW1 5905  14.749   8.592   2.129
 1336SOL    HW2 5906  14.683   8.714   2.068
 1337SOL     OW 5907   0.283   4.772  14.066
 1337SOL    HW1 5908   0.230   4.693  14.077
 1337SOL    HW2 5909   0.283   4.789  13.972
 1338SOL     OW 5910   1.476   0.511  10.572
 1338SOL    HW1 5911   1.465   0.470  10.658
 1338SOL    HW2 5912   1.429   0.595  10.579
 1339SOL     OW 5913   5.677   4.637  13.906
 1339SOL    HW1 5914   5.594   4.613  13.948
 1339SOL    HW2 5915   5.652   4.703  13.841
 1340SOL     OW 5916   4.158   4.737  11.173
 1340SOL    HW1 5917   4.219   4.772  11.108
 1340SOL    HW2 5918   4.200   4.657  11.205
 1341SOL     OW 5919  14.445  13.999  13.281
 1341SOL    HW1 5920  14.481  13.947  13.209
 1341SOL    HW2 5921  14.407  13.936  13.341
 1342SOL     OW 5922   2.357   9.352   7.472
 1342SOL    HW1 5923   2.284   9.409   7.493
 1342SOL    HW2 5924   2.317   9.270   7.442
 1343SOL     OW 5925   0.670   2.545   0.793
 1343SOL    HW1 5926   0.669   2.617   0.856
 1343SOL    HW2 5927   0.613   2.478   0.831
 1344SOL     OW 5928   0.745   7.805   1.405
 1344SOL    HW1 5929   0.811   7.864   1.439
 1344SOL    HW2 5930   0.743   7.822   1.311
 1345SOL     OW 5931   1.184   0.139   8.469
 1345SOL    HW1 5932   1.170   0.208   8.405
 1345SOL    HW2 5933   1.272   0.106   8.450
 1346SOL     OW 5934  12.683  12.588  13.085
 1346SOL    HW1 5935  12.600  12.548  13.061
 1346SOL    HW2 5936  12.723  12.526  13.146
 1347SOL     OW 5937   3.736   5.081   1.129
 1347SOL    HW1 5938   3.782   4.998   1.118
 1347SOL    HW2 5939   3.648   5.064   1.093
 1348SOL     OW 5940   2.420   6.455  11.470
 1348SOL    HW1 5941   2.399   6.362  11.476
 1348SOL    HW2 5942   2.479   6.471  11.543
 1349SOL     OW 5943  10.493   9.734  12.200
 1349SOL    HW1 5944  10.430   9.785  12.149
 1349SOL    HW2 5945  10.443   9.705  12.276
 1350SOL     OW 5946   1.142  13.519   5.670
 1350SOL    HW1 5947   1.074  13.544   5.731
 1350SOL    HW2 5948   1.100  13.520   5.584
 1351SOL     OW 5949   0.242   0.430  11.199
 1351SOL    HW1 5950   0.272   0.432  11.290
 1351SOL    HW2 5951   0.160   0.478  11.200
 1352SOL     OW 5952  13.236  10.318   0.600
 1352SOL    HW1 5953  13.281  10.234   0.612
 1352SOL    HW2 5954  13.298  10.372   0.552
 1353SOL     OW 5955  11.816  11.352   8.903
 1353SOL    HW1 5956  11.784  11.401   8.979
 1353SOL    HW2 5957  11.769  11.269   8.906
 1354SOL     OW 5958   7.105   3.546   4.231
 1354SOL    HW1 5959   7.159   3.520   4.156
 1354SOL    HW2 5960   7.064   3.628   4.204
 1355SOL     OW 5961  12.515   4.324   4.749
 1355SOL    HW1 5962  12.438   4.286   4.707
 1355SOL    HW2 5963  12.540   4.397   4.691
 1356SOL     OW 5964   5.127   8.843   1.893
 1356SOL    HW1 5965   5.039   8.837   1.928
 1356SOL    HW2 5966   5.115   8.875   1.803
 1357SOL     OW 5967   9.225   6.944  14.091
 1357SOL    HW1 5968   9.194   6.999  14.020
 1357SOL    HW2 5969   9.280   7.001  14.145
 1358SOL     OW 5970   8.953  13.631   6.757
 1358SOL    HW1 5971   8.934  13.543   6.788
 1358SOL    HW2 5972   9.011  13.619   6.682
 1359SOL     OW 5973   0.971   0.353  14.595
 1359SOL    HW1 5974   0.958   0.272  14.646
 1359SOL    HW2 5975   1.063   0.374  14.607
 1360SOL     OW 5976  10.715   2.378  10.216
 1360SOL    HW1 5977  10.734   2.432  10.292
 1360SOL    HW2 5978  10.737   2.289  10.243
 1361SOL     OW 5979   3.302   7.778  14.816
 1361SOL    HW1 5980   3.334   7.851   0.002
 1361SOL    HW2 5981   3.240   7.819  14.756
 1362SOL     OW 5982  10.420   2.906   9.779
 1362SOL    HW1 5983  10.475   2.944   9.710
 1362SOL    HW2 5984  10.333   2.944   9.764
 1363SOL     OW 5985   4.102  14.544   2.280
 1363SOL    HW1 5986   4.014  14.512   2.260
 1363SOL    HW2 5987   4.096  14.579   2.369
 1364SOL     OW 5988  12.396   5.168   4.636
 1364SOL    HW1 5989  12.449   5.239   4.672
 1364SOL    HW2 5990  12.340   5.140   4.708
 1365SOL     OW 5991   2.254  13.366   1.800
 1365SOL    HW1 5992   2.313  13.342   1.728
 1365SOL    HW2 5993   2.169  13.332   1.773
 1366SOL     OW 5994   4.821   5.185  14.077
 1366SOL    HW1 5995   4.745   5.235  14.046
 1366SOL    HW2 5996   4.823   5.107  14.020
 1367SOL     OW 5997  12.542  13.954   1.836
 1367SOL    HW1 5998  12.615  13.928   1.894
 1367SOL    HW2 5999  12.490  13.874   1.826
 1368SOL     OW 6000   6.656  13.697  10.408
 1368SOL    HW1 6001   6.638  13.767  10.345
 1368SOL    HW2 6002   6.750  13.705  10.424
 1369SOL     OW 6003  13.127   1.967   5.007
 1369SOL    HW1 6004  13.165   2.052   4.982
 1369SOL    HW2 6005  13.142   1.961   5.101
 1370SOL     OW 6006   4.477  13.170  12.885
 1370SOL    HW1 6007   4.523  13.130  12.811
 1370SOL    HW2 6008   4.547  13.199  12.944
 1371SOL     OW 6009   1.557   8.079   9.738
 1371SOL    HW1 6010   1.599   8.124   9.665
 1371SOL    HW2 6011   1.504   8.146   9.781
 1372SOL     OW 6012  12.493   3.662   6.744
 1372SOL    HW1 6013  12.580   3.626   6.729
 1372SOL    HW2 6014  12.445   3.590   6.786
 1373SOL     OW 6015   4.859  11.873   6.757
 1373SOL    HW1 6016   4.863  11.869   6.853
 1373SOL    HW2 6017   4.906  11.794   6.729
 1374SOL     OW 6018   6.043   3.849   6.887
 1374SOL    HW1 6019   6.071   3.771   6.936
 1374SOL    HW2 6020   6.095   3.920   6.924
 1375SOL     OW 6021   7.917   3.502   2.102
 1375SOL    HW1 6022   7.984   3.535   2.162
 1375SOL    HW2 6023   7.862   3.578   2.083
 1376SOL     OW 6024  10.424   8.957  11.450
 1376SOL    HW1 6025  10.404   9.033  11.396
 1376SOL    HW2 6026  10.518   8.942  11.437
 1377SOL     OW 6027  10.247   1.244   8.788
 1377SOL    HW1 6028  10.321   1.280   8.837
 1377SOL    HW2 6029  10.244   1.295   8.708
 1378SOL     OW 6030   1.929  10.082  10.304
 1378SOL    HW1 6031   1.843  10.042  10.311
 1378SOL    HW2 6032   1.933  10.143  10.378
 1379SOL     OW 6033   1.522   5.121   8.332
 1379SOL    HW1 6034   1.481   5.151   8.251
 1379SOL    HW2 6035   1.566   5.040   8.308
 1380SOL     OW 6036   8.354   4.965   5.039
 1380SOL    HW1 6037   8.328   5.051   5.005
 1380SOL    HW2 6038   8.397   4.984   5.122
 1381SOL     OW 6039  11.083   4.840   5.254
 1381SOL    HW1 6040  11.152   4.894   5.292
 1381SOL    HW2 6041  11.105   4.751   5.282
 1382SOL     OW 6042   8.443   0.485   8.499
 1382SOL    HW1 6043   8.477   0.493   8.410
 1382SOL    HW2 6044   8.516   0.449   8.549
 1383SOL     OW 6045   2.991  13.790   2.959
 1383SOL    HW1 6046   2.968  13.865   2.905
 1383SOL    HW2 6047   3.027  13.726   2.897
 1384SOL     OW 6048  12.490   6.707   2.938
 1384SOL    HW1 6049  12.513   6.778   2.998
 1384SOL    HW2 6050  12.402   6.729   2.907
 1385SOL     OW 6051   4.481   1.554  13.331
 1385SOL    HW1 6052   4.465   1.461  13.350
 1385SOL    HW2 6053   4.571   1.569  13.359
 1386SOL     OW 6054  13.565  10.212   0.606
 1386SOL    HW1 6055  13.640  10.209   0.666
 1386SOL    HW2 6056  13.489  10.201   0.663
 1387SOL     OW 6057  10.751  11.632  13.571
 1387SOL    HW1 6058  10.714  11.715  13.540
 1387SOL    HW2 6059  10.675  11.578  13.592
 1388SOL     OW 6060  13.651  10.681  14.503
 1388SOL    HW1 6061  13.740  10.660  14.532
 1388SOL    HW2 6062  13.664  10.734  14.424
 1389SOL     OW 6063   1.987  12.165   3.466
 1389SOL    HW1 6064   1.991  12.261   3.467
 1389SOL    HW2 6065   2.078  12.138   3.458
 1390SOL     OW 6066   4.219  13.058   8.010
 1390SOL    HW1 6067   4.251  12.981   7.962
 1390SOL    HW2 6068   4.159  13.022   8.076
 1391SOL     OW 6069   2.509   3.431   8.207
 1391SOL    HW1 6070   2.535   3.523   8.217
 1391SOL    HW2 6071   2.558   3.385   8.274
 1392SOL     OW 6072   5.285  10.915   4.926
 1392SOL    HW1 6073   5.305  10.826   4.954
 1392SOL    HW2 6074   5.362  10.942   4.876
 1393SOL     OW 6075   9.053   6.812   5.153
 1393SOL    HW1 6076   9.076   6.803   5.246
 1393SOL    HW2 6077   8.959   6.831   5.154
 1394SOL     OW 6078  13.811  11.252   8.314
 1394SOL    HW1 6079  13.751  11.238   8.240
 1394SOL    HW2 6080  13.878  11.311   8.280
 1395SOL     OW 6081   4.203   1.940  14.705
 1395SOL    HW1 6082   4.202   2.023  14.754
 1395SOL    HW2 6083   4.190   1.873  14.771
 1396SOL     OW 6084  11.576  13.664   2.854
 1396SOL    HW1 6085  11.605  13.607   2.783
 1396SOL    HW2 6086  11.538  13.741   2.810
 1397SOL     OW 6087   1.982   7.265  12.423
 1397SOL    HW1 6088   1.922   7.335  12.397
 1397SOL    HW2 6089   2.001   7.283  12.515
 1398SOL     OW 6090   3.079   3.583   1.626
 1398SOL    HW1 6091   2.985   3.571   1.608
 1398SOL    HW2 6092   3.114   3.495   1.632
 1399SOL     OW 6093   0.634  11.701  13.463
 1399SOL    HW1 6094   0.694  11.773  13.442
 1399SOL    HW2 6095   0.591  11.682  13.380
 1400SOL     OW 6096  13.161   1.199   0.664
 1400SOL    HW1 6097  13.195   1.114   0.695
 1400SOL    HW2 6098  13.204   1.211   0.579
 1401SOL     OW 6099  12.650  12.846  10.518
 1401SOL    HW1 6100  12.663  12.877  10.428
 1401SOL    HW2 6101  12.595  12.769  10.509
 1402SOL     OW 6102   9.061   2.245  11.687
 1402SOL    HW1 6103   9.107   2.238  11.771
 1402SOL    HW2 6104   9.072   2.337  11.662
 1403SOL     OW 6105   6.932  14.307   3.284
 1403SOL    HW1 6106   6.851  14.346   3.252
 1403SOL    HW2 6107   6.971  14.266   3.207
 1404SOL     OW 6108   7.679   9.536   9.895
 1404SOL    HW1 6109   7.647   9.447   9.884
 1404SOL    HW2 6110   7.669   9.576   9.809
 1405SOL     OW 6111   1.703  11.989   6.407
 1405SOL    HW1 6112   1.652  11.965   6.485
 1405SOL    HW2 6113   1.659  11.944   6.335
 1406SOL     OW 6114  11.833   9.329  14.010
 1406SOL    HW1 6115  11.908   9.315  14.068
 1406SOL    HW2 6116  11.838   9.422  13.987
 1407SOL     OW 6117   3.325   2.134  12.697
 1407SOL    HW1 6118   3.317   2.046  12.733
 1407SOL    HW2 6119   3.417   2.142  12.673
 1408SOL     OW 6120   0.151   8.519   8.721
 1408SOL    HW1 6121   0.184   8.467   8.795
 1408SOL    HW2 6122   0.157   8.460   8.646
 1409SOL     OW 6123   0.577  13.197   4.128
 1409SOL    HW1 6124   0.550  13.116   4.169
 1409SOL    HW2 6125   0.672  13.199   4.140
 1410SOL     OW 6126   8.242  14.578   6.236
 1410SOL    HW1 6127   8.330  14.604   6.211
 1410SOL    HW2 6128   8.202  14.547   6.154
 1411SOL     OW 6129   9.842  13.018   4.022
 1411SOL    HW1 6130   9.804  13.051   4.104
 1411SOL    HW2 6131   9.842  12.923   4.032
 1412SOL     OW 6132  12.490  10.092  11.320
 1412SOL    HW1 6133  12.565  10.076  11.377
 1412SOL    HW2 6134  12.498  10.184  11.295
 1413SOL     OW 6135  11.330   3.835   1.114
 1413SOL    HW1 6136  11.341   3.743   1.136
 1413SOL    HW2 6137  11.235   3.849   1.117
 1414SOL     OW 6138  11.436  10.970   8.109
 1414SOL    HW1 6139  11.416  10.968   8.203
 1414SOL    HW2 6140  11.532  10.966   8.105
 1415SOL     OW 6141   1.678   5.589  14.115
 1415SOL    HW1 6142   1.602   5.533  14.130
 1415SOL    HW2 6143   1.654   5.644  14.041
 1416SOL     OW 6144  10.100  10.341  12.648
 1416SOL    HW1 6145  10.034  10.388  12.698
 1416SOL    HW2 6146  10.155  10.409  12.610
 1417SOL     OW 6147   9.949   0.528  14.154
 1417SOL    HW1 6148   9.940   0.616  14.191
 1417SOL    HW2 6149   9.874   0.479  14.189
 1418SOL     OW 6150  10.968   9.833   2.317
 1418SOL    HW1 6151  11.003   9.774   2.251
 1418SOL    HW2 6152  10.884   9.795   2.342
 1419SOL     OW 6153   1.158   7.736   3.817
 1419SOL    HW1 6154   1.132   7.646   3.834
 1419SOL    HW2 6155   1.245   7.744   3.856
 1420SOL     OW 6156  14.667   5.812   8.019
 1420SOL    HW1 6157  14.746   5.812   7.965
 1420SOL    HW2 6158  14.624   5.896   7.999
 1421SOL     OW 6159  14.245  12.468  13.387
 1421SOL    HW1 6160  14.303  12.534  13.426
 1421SOL    HW2 6161  14.299  12.390  13.378
 1422SOL     OW 6162   5.985  10.831   9.552
 1422SOL    HW1 6163   5.935  10.851   9.631
 1422SOL    HW2 6164   6.075  10.853   9.575
 1423SOL     OW 6165   3.132   2.977   1.984
 1423SOL    HW1 6166   3.146   3.060   2.029
 1423SOL    HW2 6167   3.098   3.001   1.898
 1424SOL     OW 6168   8.131   7.239   2.003
 1424SOL    HW1 6169   8.204   7.216   2.061
 1424SOL    HW2 6170   8.133   7.335   1.999
 1425SOL     OW 6171   6.796   1.657   3.349
 1425SOL    HW1 6172   6.768   1.615   3.431
 1425SOL    HW2 6173   6.731   1.630   3.285
 1426SOL     OW 6174  13.774  12.709   3.392
 1426SOL    HW1 6175  13.846  12.736   3.449
 1426SOL    HW2 6176  13.815  12.699   3.306
 1427SOL     OW 6177   4.947   3.415   5.551
 1427SOL    HW1 6178   5.008   3.383   5.485
 1427SOL    HW2 6179   4.887   3.473   5.503
 1428SOL     OW 6180  10.910   7.308  13.421
 1428SOL    HW1 6181  10.877   7.289  13.509
 1428SOL    HW2 6182  10.882   7.233  13.369
 1429SOL     OW 6183  14.579  13.651  14.152
 1429SOL    HW1 6184  14.484  13.659  14.158
 1429SOL    HW2 6185  14.597  13.557  14.159
 1430SOL     OW 6186  10.163   9.861   7.764
 1430SOL    HW1 6187  10.115   9.839   7.843
 1430SOL    HW2 6188  10.255   9.854   7.788
 1431SOL     OW 6189   1.753   1.350   2.757
 1431SOL    HW1 6190   1.748   1.263   2.718
 1431SOL    HW2 6191   1.704   1.406   2.697
 1432SOL     OW 6192   1.127   5.752   0.414
 1432SOL    HW1 6193   1.109   5.834   0.368
 1432SOL    HW2 6194   1.118   5.684   0.348
 1433SOL     OW 6195  12.435  14.312   6.782
 1433SOL    HW1 6196  12.354  14.338   6.824
 1433SOL    HW2 6197  12.492  14.284   6.854
 1434SOL     OW 6198   7.572  13.826   7.498
 1434SOL    HW1 6199   7.543  13.738   7.524
 1434SOL    HW2 6200   7.640  13.848   7.562
 1435SOL     OW 6201  14.458  12.692   4.333
 1435SOL    HW1 6202  14.437  12.726   4.246
 1435SOL    HW2 6203  14.447  12.598   4.325
 1436SOL     OW 6204   1.832   0.564   0.407
 1436SOL    HW1 6205   1.776   0.517   0.469
 1436SOL    HW2 6206   1.894   0.611   0.462
 1437SOL     OW 6207  11.184   3.538  13.417
 1437SOL    HW1 6208  11.201   3.552  13.324
 1437SOL    HW2 6209  11.215   3.618  13.459
 1438SOL     OW 6210   7.688  11.398   4.359
 1438SOL    HW1 6211   7.622  11.461   4.334
 1438SOL    HW2 6212   7.702  11.414   4.452
 1439SOL     OW 6213  14.058   1.097  13.628
 1439SOL    HW1 6214  14.145   1.071  13.600
 1439SOL    HW2 6215  13.999   1.057  13.564
 1440SOL     OW 6216   4.502   6.242  14.427
 1440SOL    HW1 6217   4.555   6.295  14.367
 1440SOL    HW2 6218   4.465   6.305  14.489
 1441SOL     OW 6219  10.809   6.560  10.744
 1441SOL    HW1 6220  10.795   6.654  10.754
 1441SOL    HW2 6221  10.904   6.550  10.736
 1442SOL     OW 6222   0.407  10.442   9.353
 1442SOL    HW1 6223   0.456  10.371   9.313
 1442SOL    HW2 6224   0.460  10.469   9.428
 1443SOL     OW 6225   9.008   5.636   5.072
 1443SOL    HW1 6226   9.085   5.668   5.120
 1443SOL    HW2 6227   8.978   5.713   5.022
 1444SOL     OW 6228   1.715   2.203  13.775
 1444SOL    HW1 6229   1.714   2.108  13.773
 1444SOL    HW2 6230   1.753   2.225  13.860
 1445SOL     OW 6231  13.053  11.395   4.287
 1445SOL    HW1 6232  12.964  11.414   4.259
 1445SOL    HW2 6233  13.050  11.303   4.314
 1446SOL     OW 6234   2.687  10.708   1.458
 1446SOL    HW1 6235   2.722  10.643   1.397
 1446SOL    HW2 6236   2.765  10.751   1.494
 1447SOL     OW 6237  12.283   4.235  12.936
 1447SOL    HW1 6238  12.215   4.251  12.870
 1447SOL    HW2 6239  12.254   4.155  12.981
 1448SOL     OW 6240   7.727   5.219  11.631
 1448SOL    HW1 6241   7.793   5.150  11.619
 1448SOL    HW2 6242   7.657   5.195  11.571
 1449SOL     OW 6243   7.511   3.503  11.436
 1449SOL    HW1 6244   7.515   3.421  11.485
 1449SOL    HW2 6245   7.505   3.571  11.503
 1450SOL     OW 6246   9.014   2.134  14.194
 1450SOL    HW1 6247   9.095   2.182  14.210
 1450SOL    HW2 6248   8.949   2.178  14.250
 1451SOL     OW 6249   4.153   1.601   6.941
 1451SOL    HW1 6250   4.116   1.524   6.897
 1451SOL    HW2 6251   4.199   1.566   7.017
 1452SOL     OW 6252  11.376   7.909   6.685
 1452SOL    HW1 6253  11.436   7.968   6.641
 1452SOL    HW2 6254  11.429   7.832   6.706
 1453SOL     OW 6255  14.430   5.481   7.861
 1453SOL    HW1 6256  14.342   5.444   7.858
 1453SOL    HW2 6257  14.419   5.565   7.906
 1454SOL     OW 6258   5.118  10.151   2.984
 1454SOL    HW1 6259   5.174  10.073   2.981
 1454SOL    HW2 6260   5.158  10.206   3.052
 1455SOL     OW 6261   1.186   4.044  11.888
 1455SOL    HW1 6262   1.224   4.100  11.956
 1455SOL    HW2 6263   1.120   3.992  11.934
 1456SOL     OW 6264   9.623  14.362  11.867
 1456SOL    HW1 6265   9.611  14.293  11.932
 1456SOL    HW2 6266   9.640  14.315  11.785
 1457SOL     OW 6267  12.739   8.932  12.135
 1457SOL    HW1 6268  12.728   8.838  12.120
 1457SOL    HW2 6269  12.815   8.956  12.082
 1458SOL     OW 6270   5.918   2.411   4.567
 1458SOL    HW1 6271   5.915   2.504   4.548
 1458SOL    HW2 6272   5.951   2.406   4.657
 1459SOL     OW 6273   1.847   8.776  11.979
 1459SOL    HW1 6274   1.931   8.740  12.009
 1459SOL    HW2 6275   1.870   8.863  11.945
 1460SOL     OW 6276   7.087  10.635  11.963
 1460SOL    HW1 6277   7.006  10.661  12.009
 1460SOL    HW2 6278   7.069  10.546  11.932
 1461SOL     OW 6279   1.657   8.928   5.846
 1461SOL    HW1 6280   1.641   9.022   5.846
 1461SOL    HW2 6281   1.745   8.918   5.810
 1462SOL     OW 6282   2.311  11.207  12.425
 1462SOL    HW1 6283   2.399  11.195  12.459
 1462SOL    HW2 6284   2.268  11.122  12.439
 1463SOL     OW 6285   2.428   2.378  13.564
 1463SOL    HW1 6286   2.420   2.366  13.470
 1463SOL    HW2 6287   2.446   2.290  13.598
 1464SOL     OW 6288   5.289   4.228   1.505
 1464SOL    HW1 6289   5.246   4.209   1.421
 1464SOL    HW2 6290   5.320   4.143   1.535
 1465SOL     OW 6291   9.814  10.584  13.847
 1465SOL    HW1 6292   9.802  10.660  13.791
 1465SOL    HW2 6293   9.906  10.561  13.837
 1466SOL     OW 6294   3.615  12.814   9.540
 1466SOL    HW1 6295   3.624  12.813   9.445
 1466SOL    HW2 6296   3.699  12.848   9.572
 1467SOL     OW 6297   4.055   3.572   9.152
 1467SOL    HW1 6298   4.027   3.654   9.192
 1467SOL    HW2 6299   3.975   3.521   9.142
 1468SOL     OW 6300  14.458   8.687   7.691
 1468SOL    HW1 6301  14.488   8.597   7.703
 1468SOL    HW2 6302  14.394   8.700   7.761
 1469SOL     OW 6303   7.182   0.306   0.217
 1469SOL    HW1 6304   7.095   0.347   0.221
 1469SOL    HW2 6305   7.211   0.303   0.308
 1470SOL     OW 6306   7.454   3.967   0.545
 1470SOL    HW1 6307   7.382   3.946   0.486
 1470SOL    HW2 6308   7.484   4.053   0.517
 1471SOL     OW 6309   4.947   2.290   2.543
 1471SOL    HW1 6310   4.951   2.283   2.638
 1471SOL    HW2 6311   4.941   2.384   2.526
 1472SOL     OW 6312   6.229   6.366   6.372
 1472SOL    HW1 6313   6.153   6.338   6.423
 1472SOL    HW2 6314   6.303   6.351   6.431
 1473SOL     OW 6315   3.018   4.214  14.109
 1473SOL    HW1 6316   2.938   4.185  14.154
 1473SOL    HW2 6317   3.015   4.309  14.113
 1474SOL     OW 6318  13.122   8.536  14.002
 1474SOL    HW1 6319  13.106   8.469  13.936
 1474SOL    HW2 6320  13.217   8.547  14.003
 1475SOL     OW 6321  13.354  13.278   1.314
 1475SOL    HW1 6322  13.429  13.276   1.374
 1475SOL    HW2 6323  13.286  13.325   1.362
 1476SOL     OW 6324   6.832   0.379  14.187
 1476SOL    HW1 6325   6.872   0.306  14.140
 1476SOL    HW2 6326   6.906   0.425  14.227
 1477SOL     OW 6327   4.532   0.287   8.340
 1477SOL    HW1 6328   4.623   0.315   8.325
 1477SOL    HW2 6329   4.479   0.355   8.298
 1478SOL     OW 6330  12.850   4.107   4.622
 1478SOL    HW1 6331  12.759   4.108   4.594
 1478SOL    HW2 6332  12.890   4.035   4.574
 1479SOL     OW 6333   0.990  12.443  10.134
 1479SOL    HW1 6334   0.973  12.353  10.106
 1479SOL    HW2 6335   1.022  12.435  10.224
 1480SOL     OW 6336   5.733   8.459  14.718
 1480SOL    HW1 6337   5.672   8.470  14.645
 1480SOL    HW2 6338   5.819   8.453  14.676
 1481SOL     OW 6339   0.653  14.839   9.993
 1481SOL    HW1 6340   0.697  14.758   9.967
 1481SOL    HW2 6341   0.695  14.864  10.075
 1482SOL     OW 6342  12.098  11.959  11.886
 1482SOL    HW1 6343  12.181  12.003  11.902
 1482SOL    HW2 6344  12.124  11.872  11.853
 1483SOL     OW 6345  11.584  11.251  13.585
 1483SOL    HW1 6346  11.652  11.183  13.578
 1483SOL    HW2 6347  11.536  11.228  13.664
 1484SOL     OW 6348  14.410  12.051  13.509
 1484SOL    HW1 6349  14.422  12.112  13.581
 1484SOL    HW2 6350  14.347  11.986  13.542
 1485SOL     OW 6351   8.047   1.178   7.693
 1485SOL    HW1 6352   8.092   1.117   7.634
 1485SOL    HW2 6353   8.015   1.124   7.765
 1486SOL     OW 6354  14.352   0.463   9.954
 1486SOL    HW1 6355  14.287   0.529   9.928
 1486SOL    HW2 6356  14.305   0.406  10.015
 1487SOL     OW 6357  14.342   9.778   0.525
 1487SOL    HW1 6358  14.373   9.869   0.526
 1487SOL    HW2 6359  14.247   9.785   0.520
 1488SOL     OW 6360   7.085  10.717  10.654
 1488SOL    HW1 6361   7.070  10.809  10.636
 1488SOL    HW2 6362   7.003  10.674  10.628
 1489SOL     OW 6363   1.658   3.624   2.369
 1489SOL    HW1 6364   1.735   3.676   2.392
 1489SOL    HW2 6365   1.585   3.672   2.408
 1490SOL     OW 6366   5.948   0.578   9.938
 1490SOL    HW1 6367   5.895   0.649   9.976
 1490SOL    HW2 6368   5.892   0.541   9.870
 1491SOL     OW 6369   4.784  11.897  13.316
 1491SOL    HW1 6370   4.846  11.937  13.255
 1491SOL    HW2 6371   4.832  11.824  13.355
 1492SOL     OW 6372   8.439   1.773   7.474
 1492SOL    HW1 6373   8.409   1.811   7.392
 1492SOL    HW2 6374   8.375   1.801   7.539
 1493SOL     OW 6375   6.573   7.699   0.506
 1493SOL    HW1 6376   6.518   7.777   0.500
 1493SOL    HW2 6377   6.650   7.720   0.453
 1494SOL     OW 6378   9.579   0.238   5.619
 1494SOL    HW1 6379   9.643   0.168   5.608
 1494SOL    HW2 6380   9.609   0.286   5.696
 1495SOL     OW 6381   9.259   9.681   5.230
 1495SOL    HW1 6382   9.208   9.664   5.309
 1495SOL    HW2 6383   9.194   9.712   5.167
 1496SOL     OW 6384  13.657   1.162   2.971
 1496SOL    HW1 6385  13.734   1.218   2.973
 1496SOL    HW2 6386  13.590   1.213   2.925
 1497SOL     OW 6387   3.912   9.257   7.298
 1497SOL    HW1 6388   3.862   9.336   7.278
 1497SOL    HW2 6389   3.847   9.193   7.326
 1498SOL     OW 6390   8.567   7.791   3.125
 1498SOL    HW1 6391   8.600   7.807   3.213
 1498SOL    HW2 6392   8.472   7.785   3.136
 1499SOL     OW 6393   9.347   1.798   6.957
 1499SOL    HW1 6394   9.298   1.867   6.913
 1499SOL    HW2 6395   9.356   1.829   7.047
 1500SOL     OW 6396   8.045   2.348   2.653
 1500SOL    HW1 6397   8.106   2.379   2.720
 1500SOL    HW2 6398   8.055   2.411   2.581
 1501SOL     OW 6399  14.615   0.427   0.210
 1501SOL    HW1 6400  14.550   0.451   0.277
 1501SOL    HW2 6401  14.563   0.410   0.132
 1502SOL     OW 6402   6.923   1.694   8.005
 1502SOL    HW1 6403   6.887   1.644   7.931
 1502SOL    HW2 6404   6.881   1.780   7.998
 1503SOL     OW 6405   1.055  10.845  10.436
 1503SOL    HW1 6406   1.086  10.876  10.521
 1503SOL    HW2 6407   1.130  10.858  10.377
 1504SOL     OW 6408   3.555  11.728   6.215
 1504SOL    HW1 6409   3.549  11.794   6.284
 1504SOL    HW2 6410   3.537  11.776   6.134
 1505SOL     OW 6411   4.314   4.889  11.019
 1505SOL    HW1 6412   4.307   4.974  10.975
 1505SOL    HW2 6413   4.393   4.849  10.984
 1506SOL     OW 6414  12.224   7.173   4.912
 1506SOL    HW1 6415  12.257   7.260   4.934
 1506SOL    HW2 6416  12.134   7.173   4.943
 1507SOL     OW 6417  12.198   6.034  14.169
 1507SOL    HW1 6418  12.242   6.065  14.249
 1507SOL    HW2 6419  12.268   6.025  14.105
 1508SOL     OW 6420   6.360   9.058   0.534
 1508SOL    HW1 6421   6.301   9.081   0.605
 1508SOL    HW2 6422   6.421   9.132   0.528
 1509SOL     OW 6423   7.882   3.839   2.635
 1509SOL    HW1 6424   7.915   3.867   2.720
 1509SOL    HW2 6425   7.788   3.829   2.647
 1510SOL     OW 6426   9.518   2.955  13.857
 1510SOL    HW1 6427   9.566   2.990  13.932
 1510SOL    HW2 6428   9.426   2.962  13.881
 1511SOL     OW 6429   9.530  12.517  11.315
 1511SOL    HW1 6430   9.448  12.506  11.267
 1511SOL    HW2 6431   9.594  12.467  11.265
 1512SOL     OW 6432   2.517   1.534   0.226
 1512SOL    HW1 6433   2.545   1.513   0.315
 1512SOL    HW2 6434   2.560   1.468   0.171
 1513SOL     OW 6435   6.392   4.284   1.520
 1513SOL    HW1 6436   6.432   4.286   1.607
 1513SOL    HW2 6437   6.369   4.192   1.507
 1514SOL     OW 6438  13.438  12.301  11.737
 1514SOL    HW1 6439  13.482  12.226  11.696
 1514SOL    HW2 6440  13.501  12.334  11.800
 1515SOL     OW 6441   7.575   2.409   8.899
 1515SOL    HW1 6442   7.630   2.457   8.961
 1515SOL    HW2 6443   7.599   2.443   8.814
 1516SOL     OW 6444   3.415   4.157  13.063
 1516SOL    HW1 6445   3.406   4.125  13.152
 1516SOL    HW2 6446   3.332   4.135  13.021
 1517SOL     OW 6447  10.927  14.449   7.543
 1517SOL    HW1 6448  10.922  14.480   7.633
 1517SOL    HW2 6449  10.926  14.353   7.551
 1518SOL     OW 6450   5.744   9.742   3.170
 1518SOL    HW1 6451   5.653   9.713   3.166
 1518SOL    HW2 6452   5.768   9.733   3.262
 1519SOL     OW 6453   3.211  11.582   2.366
 1519SOL    HW1 6454   3.284  11.559   2.309
 1519SOL    HW2 6455   3.231  11.670   2.397
 1520SOL     OW 6456   6.452   2.754  10.181
 1520SOL    HW1 6457   6.415   2.842  10.184
 1520SOL    HW2 6458   6.519   2.754  10.250
 1521SOL     OW 6459  10.281   2.051   4.486
 1521SOL    HW1 6460  10.304   2.029   4.576
 1521SOL    HW2 6461  10.286   2.147   4.482
 1522SOL     OW 6462   6.436   8.498   3.099
 1522SOL    HW1 6463   6.408   8.536   3.182
 1522SOL    HW2 6464   6.384   8.544   3.033
 1523SOL     OW 6465  11.843   3.831   8.096
 1523SOL    HW1 6466  11.805   3.751   8.059
 1523SOL    HW2 6467  11.908   3.859   8.032
 1524SOL     OW 6468  13.649   8.666   1.546
 1524SOL    HW1 6469  13.713   8.602   1.514
 1524SOL    HW2 6470  13.701   8.728   1.598
 1525SOL     OW 6471   9.597   9.606   0.490
 1525SOL    HW1 6472   9.556   9.523   0.466
 1525SOL    HW2 6473   9.691   9.590   0.476
 1526SOL     OW 6474   8.427   9.734  11.763
 1526SOL    HW1 6475   8.343   9.720  11.805
 1526SOL    HW2 6476   8.407   9.780  11.682
 1527SOL     OW 6477   9.875  11.695   5.092
 1527SOL    HW1 6478   9.798  11.750   5.085
 1527SOL    HW2 6479   9.949  11.755   5.084
 1528SOL     OW 6480   2.422   2.547   1.447
 1528SOL    HW1 6481   2.406   2.460   1.411
 1528SOL    HW2 6482   2.440   2.533   1.540
 1529SOL     OW 6483  12.036   2.377   2.183
 1529SOL    HW1 6484  11.967   2.310   2.178
 1529SOL    HW2 6485  11.996   2.455   2.145
 1530SOL     OW 6486  11.189  11.279   4.418
 1530SOL    HW1 6487  11.258  11.260   4.355
 1530SOL    HW2 6488  11.220  11.357   4.465
 1531SOL     OW 6489   5.093  12.646  14.151
 1531SOL    HW1 6490   5.022  12.625  14.212
 1531SOL    HW2 6491   5.122  12.562  14.117
 1532SOL     OW 6492   7.725   7.797  13.974
 1532SOL    HW1 6493   7.765   7.821  14.057
 1532SOL    HW2 6494   7.658   7.733  13.997
 1533SOL     OW 6495   3.800   5.169   6.962
 1533SOL    HW1 6496   3.819   5.095   6.906
 1533SOL    HW2 6497   3.871   5.169   7.027
 1534SOL     OW 6498   4.465  13.277   4.625
 1534SOL    HW1 6499   4.527  13.209   4.651
 1534SOL    HW2 6500   4.505  13.319   4.549
 1535SOL     OW 6501   1.884   6.166   1.484
 1535SOL    HW1 6502   1.963   6.208   1.450
 1535SOL    HW2 6503   1.819   6.176   1.414
 1536SOL     OW 6504   3.911  12.070   0.624
 1536SOL    HW1 6505   3.868  12.010   0.563
 1536SOL    HW2 6506   3.968  12.014   0.677
 1537SOL     OW 6507  11.628   6.903   9.491
 1537SOL    HW1 6508  11.638   6.992   9.457
 1537SOL    HW2 6509  11.629   6.847   9.414
 1538SOL     OW 6510   5.405  10.426  14.833
 1538SOL    HW1 6511   5.465  10.501  14.838
 1538SOL    HW2 6512   5.421  10.377   0.046
 1539SOL     OW 6513  13.823  12.921   7.161
 1539SOL    HW1 6514  13.736  12.880   7.161
 1539SOL    HW2 6515  13.848  12.925   7.253
 1540SOL     OW 6516   0.274  12.417  10.905
 1540SOL    HW1 6517   0.266  12.392  10.997
 1540SOL    HW2 6518   0.217  12.355  10.859
 1541SOL     OW 6519   0.787   3.889   7.821
 1541SOL    HW1 6520   0.828   3.922   7.901
 1541SOL    HW2 6521   0.851   3.905   7.752
 1542SOL     OW 6522   1.927   5.157   2.529
 1542SOL    HW1 6523   1.891   5.238   2.566
 1542SOL    HW2 6524   2.009   5.143   2.576
 1543SOL     OW 6525   1.718   0.067   2.783
 1543SOL    HW1 6526   1.760  14.859   2.824
 1543SOL    HW2 6527   1.758   0.073   2.696
 1544SOL     OW 6528   7.131   4.548   3.570
 1544SOL    HW1 6529   7.203   4.496   3.533
 1544SOL    HW2 6530   7.067   4.553   3.499
 1545SOL     OW 6531   6.376  13.641   9.069
 1545SOL    HW1 6532   6.284  13.616   9.078
 1545SOL    HW2 6533   6.375  13.737   9.076
 1546SOL     OW 6534   1.360  12.175  14.144
 1546SOL    HW1 6535   1.415  12.152  14.220
 1546SOL    HW2 6536   1.358  12.095  14.091
 1547SOL     OW 6537   9.765   6.977   2.567
 1547SOL    HW1 6538   9.670   6.987   2.578
 1547SOL    HW2 6539   9.796   6.945   2.652
 1548SOL     OW 6540  10.975   5.812   0.269
 1548SOL    HW1 6541  10.917   5.874   0.223
 1548SOL    HW2 6542  10.977   5.735   0.212
 1549SOL     OW 6543  13.064   1.764   1.261
 1549SOL    HW1 6544  13.151   1.754   1.223
 1549SOL    HW2 6545  13.011   1.697   1.218
 1550SOL     OW 6546   3.773   8.177  13.870
 1550SOL    HW1 6547   3.704   8.149  13.931
 1550SOL    HW2 6548   3.843   8.113  13.883
 1551SOL     OW 6549   1.959   2.339  12.730
 1551SOL    HW1 6550   1.888   2.278  12.749
 1551SOL    HW2 6551   2.023   2.324  12.799
 1552SOL     OW 6552   6.819   9.962   3.857
 1552SOL    HW1 6553   6.738   9.911   3.864
 1552SOL    HW2 6554   6.838   9.989   3.947
 1553SOL     OW 6555   0.769   7.880   6.843
 1553SOL    HW1 6556   0.828   7.819   6.887
 1553SOL    HW2 6557   0.824   7.957   6.824
 1554SOL     OW 6558   6.740   3.606   0.569
 1554SOL    HW1 6559   6.653   3.570   0.583
 1554SOL    HW2 6560   6.751   3.608   0.474
 1555SOL     OW 6561  11.042  14.814  14.032
 1555SOL    HW1 6562  11.047  14.726  14.071
 1555SOL    HW2 6563  11.132  14.846  14.033
 1556SOL     OW 6564  11.185   9.606   7.464
 1556SOL    HW1 6565  11.224   9.584   7.548
 1556SOL    HW2 6566  11.102   9.559   7.463
 1557SOL     OW 6567   8.834   2.604   3.686
 1557SOL    HW1 6568   8.849   2.674   3.750
 1557SOL    HW2 6569   8.749   2.568   3.709
 1558SOL     OW 6570   2.070   5.792  12.744
 1558SOL    HW1 6571   2.064   5.775  12.650
 1558SOL    HW2 6572   2.061   5.705  12.784
 1559SOL     OW 6573   3.308   6.630  10.300
 1559SOL    HW1 6574   3.251   6.612  10.225
 1559SOL    HW2 6575   3.312   6.547  10.348
 1560SOL     OW 6576  11.859   8.589   7.095
 1560SOL    HW1 6577  11.938   8.540   7.115
 1560SOL    HW2 6578  11.890   8.676   7.071
 1561SOL     OW 6579   8.526   5.433   9.935
 1561SOL    HW1 6580   8.542   5.339   9.936
 1561SOL    HW2 6581   8.492   5.450   9.847
 1562SOL     OW 6582  11.162  14.187  10.920
 1562SOL    HW1 6583  11.167  14.247  10.994
 1562SOL    HW2 6584  11.099  14.120  10.947
 1563SOL     OW 6585  10.986  10.290   9.695
 1563SOL    HW1 6586  11.010  10.370   9.742
 1563SOL    HW2 6587  11.068  10.244   9.681
 1564SOL     OW 6588   9.500   7.652  10.667
 1564SOL    HW1 6589   9.475   7.618  10.753
 1564SOL    HW2 6590   9.436   7.721  10.649
 1565SOL     OW 6591   2.902  12.892   9.462
 1565SOL    HW1 6592   2.854  12.811   9.482
 1565SOL    HW2 6593   2.870  12.955   9.527
 1566SOL     OW 6594   5.660  10.819   2.770
 1566SOL    HW1 6595   5.589  10.755   2.765
 1566SOL    HW2 6596   5.679  10.840   2.679
 1567SOL     OW 6597  10.726   3.643   1.329
 1567SOL    HW1 6598  10.704   3.722   1.280
 1567SOL    HW2 6599  10.719   3.572   1.265
 1568SOL     OW 6600   4.944   5.003   0.750
 1568SOL    HW1 6601   4.971   4.990   0.841
 1568SOL    HW2 6602   4.878   5.072   0.754
 1569SOL     OW 6603   5.836  12.350   9.886
 1569SOL    HW1 6604   5.868  12.440   9.888
 1569SOL    HW2 6605   5.830  12.325   9.979
 1570SOL     OW 6606  12.272  13.545   7.206
 1570SOL    HW1 6607  12.223  13.465   7.187
 1570SOL    HW2 6608  12.345  13.544   7.144
 1571SOL     OW 6609   9.545  11.540  11.803
 1571SOL    HW1 6610   9.468  11.546  11.747
 1571SOL    HW2 6611   9.593  11.621  11.787
 1572SOL     OW 6612   1.542  11.982   1.436
 1572SOL    HW1 6613   1.456  12.015   1.411
 1572SOL    HW2 6614   1.562  12.027   1.518
 1573SOL     OW 6615  10.768   9.545   1.910
 1573SOL    HW1 6616  10.814   9.567   1.992
 1573SOL    HW2 6617  10.781   9.451   1.901
 1574SOL     OW 6618   3.941   4.478   5.906
 1574SOL    HW1 6619   3.928   4.414   5.976
 1574SOL    HW2 6620   3.946   4.425   5.826
 1575SOL     OW 6621   0.282   3.607  11.835
 1575SOL    HW1 6622   0.206   3.655  11.803
 1575SOL    HW2 6623   0.347   3.617  11.766
 1576SOL     OW 6624   3.171   0.386   0.190
 1576SOL    HW1 6625   3.211   0.302   0.212
 1576SOL    HW2 6626   3.178   0.438   0.270
 1577SOL     OW 6627   0.563  12.851   7.036
 1577SOL    HW1 6628   0.500  12.921   7.054
 1577SOL    HW2 6629   0.565  12.844   6.941
 1578SOL     OW 6630  11.429  10.378   3.137
 1578SOL    HW1 6631  11.425  10.324   3.057
 1578SOL    HW2 6632  11.519  10.368   3.167
 1579SOL     OW 6633  13.922   7.826  12.304
 1579SOL    HW1 6634  14.013   7.839  12.276
 1579SOL    HW2 6635  13.894   7.748  12.256
 1580SOL     OW 6636  11.276   6.455   1.347
 1580SOL    HW1 6637  11.237   6.509   1.278
 1580SOL    HW2 6638  11.302   6.518   1.414
 1581SOL     OW 6639   8.759   0.934  12.142
 1581SOL    HW1 6640   8.692   0.868  12.159
 1581SOL    HW2 6641   8.834   0.884  12.108
 1582SOL     OW 6642   4.652   5.644  14.667
 1582SOL    HW1 6643   4.746   5.633  14.652
 1582SOL    HW2 6644   4.624   5.707  14.599
 1583SOL     OW 6645  13.064  11.521   9.678
 1583SOL    HW1 6646  13.037  11.601   9.632
 1583SOL    HW2 6647  13.065  11.453   9.611
 1584SOL     OW 6648   8.041  12.801   5.193
 1584SOL    HW1 6649   8.021  12.778   5.102
 1584SOL    HW2 6650   8.121  12.752   5.213
 1585SOL     OW 6651   1.442  10.100  14.763
 1585SOL    HW1 6652   1.382  10.169  14.735
 1585SOL    HW2 6653   1.513  10.146  14.808
 1586SOL     OW 6654   3.839   3.800   8.319
 1586SOL    HW1 6655   3.893   3.859   8.267
 1586SOL    HW2 6656   3.899   3.730   8.345
 1587SOL     OW 6657   9.913   2.087   2.507
 1587SOL    HW1 6658   9.927   2.035   2.428
 1587SOL    HW2 6659  10.001   2.112   2.536
 1588SOL     OW 6660   3.516  12.945  11.993
 1588SOL    HW1 6661   3.578  12.875  11.974
 1588SOL    HW2 6662   3.440  12.925  11.939
 1589SOL     OW 6663  12.351   1.138   0.635
 1589SOL    HW1 6664  12.399   1.169   0.558
 1589SOL    HW2 6665  12.280   1.201   0.646
 1590SOL     OW 6666   5.108  10.566   3.322
 1590SOL    HW1 6667   5.032  10.548   3.267
 1590SOL    HW2 6668   5.176  10.595   3.262
 1591SOL     OW 6669   0.319  11.598  11.951
 1591SOL    HW1 6670   0.355  11.510  11.961
 1591SOL    HW2 6671   0.229  11.591  11.982
 1592SOL     OW 6672  13.591   9.858  11.294
 1592SOL    HW1 6673  13.501   9.825  11.296
 1592SOL    HW2 6674  13.587   9.940  11.344
 1593SOL     OW 6675   2.876   9.941   6.081
 1593SOL    HW1 6676   2.967   9.962   6.062
 1593SOL    HW2 6677   2.825   9.998   6.023
 1594SOL     OW 6678   8.513  14.228   9.335
 1594SOL    HW1 6679   8.578  14.275   9.386
 1594SOL    HW2 6680   8.550  14.223   9.247
 1595SOL     OW 6681   7.629   2.895  10.315
 1595SOL    HW1 6682   7.626   2.816  10.368
 1595SOL    HW2 6683   7.544   2.937  10.329
 1596SOL     OW 6684   8.743   6.436   8.796
 1596SOL    HW1 6685   8.714   6.367   8.735
 1596SOL    HW2 6686   8.773   6.388   8.873
 1597SOL     OW 6687  11.154   1.059  13.828
 1597SOL    HW1 6688  11.171   1.138  13.777
 1597SOL    HW2 6689  11.060   1.063  13.846
 1598SOL     OW 6690   7.473   1.769   5.062
 1598SOL    HW1 6691   7.540   1.703   5.042
 1598SOL    HW2 6692   7.395   1.739   5.014
 1599SOL     OW 6693  13.229  11.037   9.696
 1599SOL    HW1 6694  13.209  11.087   9.617
 1599SOL    HW2 6695  13.157  11.057   9.756
 1600SOL     OW 6696   5.661  13.308   2.540
 1600SOL    HW1 6697   5.750  13.331   2.564
 1600SOL    HW2 6698   5.622  13.274   2.621
 1601SOL     OW 6699   0.151   0.129  11.336
 1601SOL    HW1 6700   0.067   0.101  11.372
 1601SOL    HW2 6701   0.129   0.206  11.282
 1602SOL     OW 6702   2.921  11.814  13.255
 1602SOL    HW1 6703   2.837  11.852  13.232
 1602SOL    HW2 6704   2.903  11.721  13.270
 1603SOL     OW 6705   9.176  12.493   2.776
 1603SOL    HW1 6706   9.114  12.535   2.835
 1603SOL    HW2 6707   9.203  12.563   2.716
 1604SOL     OW 6708  11.945  10.529   2.952
 1604SOL    HW1 6709  11.999  10.596   2.911
 1604SOL    HW2 6710  12.006  10.461   2.980
 1605SOL     OW 6711  12.300  14.642   1.230
 1605SOL    HW1 6712  12.396  14.635   1.231
 1605SOL    HW2 6713  12.271  14.575   1.292
 1606SOL     OW 6714   9.456   9.092  13.348
 1606SOL    HW1 6715   9.362   9.093  13.333
 1606SOL    HW2 6716   9.466   9.112  13.441
 1607SOL     OW 6717   8.097   6.792   7.798
 1607SOL    HW1 6718   8.053   6.828   7.721
 1607SOL    HW2 6719   8.140   6.868   7.837
 1608SOL     OW 6720   6.755  14.513   5.390
 1608SOL    HW1 6721   6.711  14.579   5.335
 1608SOL    HW2 6722   6.846  14.516   5.363
 1609SOL     OW 6723   4.703  11.625   9.857
 1609SOL    HW1 6724   4.763  11.682   9.905
 1609SOL    HW2 6725   4.757  11.587   9.788
 1610SOL     OW 6726   3.176  11.561   7.454
 1610SOL    HW1 6727   3.239  11.492   7.431
 1610SOL    HW2 6728   3.197  11.633   7.395
 1611SOL     OW 6729   2.059   1.686  12.143
 1611SOL    HW1 6730   2.141   1.686  12.094
 1611SOL    HW2 6731   2.072   1.749  12.213
 1612SOL     OW 6732   2.163   3.210   2.003
 1612SOL    HW1 6733   2.123   3.123   1.997
 1612SOL    HW2 6734   2.250   3.194   2.041
 1613SOL     OW 6735   1.938  11.074  11.451
 1613SOL    HW1 6736   1.916  11.135  11.521
 1613SOL    HW2 6737   1.862  11.016  11.444
 1614SOL     OW 6738  13.470  14.565   5.780
 1614SOL    HW1 6739  13.552  14.521   5.804
 1614SOL    HW2 6740  13.498  14.640   5.727
 1615SOL     OW 6741   6.283   2.685   8.243
 1615SOL    HW1 6742   6.374   2.654   8.247
 1615SOL    HW2 6743   6.231   2.608   8.267
 1616SOL     OW 6744   6.775   0.911   1.281
 1616SOL    HW1 6745   6.833   0.848   1.323
 1616SOL    HW2 6746   6.689   0.893   1.318
 1617SOL     OW 6747  13.053   2.031   8.847
 1617SOL    HW1 6748  13.084   2.084   8.921
 1617SOL    HW2 6749  13.071   2.084   8.770
 1618SOL     OW 6750   7.165   0.907   8.656
 1618SOL    HW1 6751   7.184   0.976   8.720
 1618SOL    HW2 6752   7.142   0.955   8.576
 1619SOL     OW 6753   9.342   4.697  14.102
 1619SOL    HW1 6754   9.399   4.632  14.059
 1619SOL    HW2 6755   9.319   4.758  14.031
 1620SOL     OW 6756  11.125  11.053  14.832
 1620SOL    HW1 6757  11.100  11.129   0.017
 1620SOL    HW2 6758  11.115  10.978   0.024
 1621SOL     OW 6759   6.151   8.010   0.581
 1621SOL    HW1 6760   6.093   8.080   0.610
 1621SOL    HW2 6761   6.095   7.933   0.575
 1622SOL     OW 6762   1.801   4.177   7.821
 1622SOL    HW1 6763   1.855   4.164   7.743
 1622SOL    HW2 6764   1.863   4.203   7.890
 1623SOL     OW 6765   8.181  10.278  14.515
 1623SOL    HW1 6766   8.231  10.295  14.435
 1623SOL    HW2 6767   8.212  10.192  14.545
 1624SOL     OW 6768   4.896   6.697   6.151
 1624SOL    HW1 6769   4.944   6.615   6.160
 1624SOL    HW2 6770   4.962   6.765   6.156
 1625SOL     OW 6771   8.764   5.040   2.005
 1625SOL    HW1 6772   8.744   5.008   2.093
 1625SOL    HW2 6773   8.689   5.094   1.981
 1626SOL     OW 6774  12.490   7.667  13.148
 1626SOL    HW1 6775  12.528   7.755  13.145
 1626SOL    HW2 6776  12.486   7.646  13.241
 1627SOL     OW 6777  14.648  11.613  10.332
 1627SOL    HW1 6778  14.737  11.619  10.368
 1627SOL    HW2 6779  14.621  11.523  10.348
 1628SOL     OW 6780  12.331  11.963   1.498
 1628SOL    HW1 6781  12.250  11.911   1.500
 1628SOL    HW2 6782  12.395  11.910   1.546
 1629SOL     OW 6783   7.565  14.130   5.363
 1629SOL    HW1 6784   7.602  14.050   5.328
 1629SOL    HW2 6785   7.513  14.102   5.439
 1630SOL     OW 6786  10.395   9.704   8.628
 1630SOL    HW1 6787  10.454   9.656   8.686
 1630SOL    HW2 6788  10.371   9.782   8.678
 1631SOL     OW 6789   4.976  13.640  13.707
 1631SOL    HW1 6790   4.916  13.703  13.747
 1631SOL    HW2 6791   5.061  13.686  13.706
 1632SOL     OW 6792  10.311   0.407   3.398
 1632SOL    HW1 6793  10.226   0.413   3.355
 1632SOL    HW2 6794  10.301   0.334   3.460
 1633SOL     OW 6795   4.184   5.696   0.767
 1633SOL    HW1 6796   4.119   5.677   0.835
 1633SOL    HW2 6797   4.148   5.655   0.688
 1634SOL     OW 6798   7.141   8.140   7.412
 1634SOL    HW1 6799   7.057   8.180   7.434
 1634SOL    HW2 6800   7.121   8.047   7.399
 1635SOL     OW 6801   2.568   2.211   5.617
 1635SOL    HW1 6802   2.642   2.260   5.581
 1635SOL    HW2 6803   2.563   2.133   5.561
 1636SOL     OW 6804  10.420   5.157   9.803
 1636SOL    HW1 6805  10.472   5.174   9.724
 1636SOL    HW2 6806  10.418   5.241   9.849
 1637SOL     OW 6807  11.409   3.109  12.939
 1637SOL    HW1 6808  11.422   3.094  13.033
 1637SOL    HW2 6809  11.314   3.119  12.930
 1638SOL     OW 6810  13.244  10.852   1.765
 1638SOL    HW1 6811  13.255  10.770   1.814
 1638SOL    HW2 6812  13.246  10.825   1.673
 1639SOL     OW 6813   8.806   5.498  13.212
 1639SOL    HW1 6814   8.832   5.406  13.205
 1639SOL    HW2 6815   8.867   5.544  13.154
 1640SOL     OW 6816   3.603  11.470   6.297
 1640SOL    HW1 6817   3.620  11.564   6.297
 1640SOL    HW2 6818   3.554  11.455   6.216
 1641SOL     OW 6819  14.319   8.090  12.652
 1641SOL    HW1 6820  14.330   8.160  12.716
 1641SOL    HW2 6821  14.241   8.043  12.680
 1642SOL     OW 6822  11.440   8.398  13.408
 1642SOL    HW1 6823  11.433   8.395  13.504
 1642SOL    HW2 6824  11.487   8.318  13.385
 1643SOL     OW 6825  10.481   5.671   1.304
 1643SOL    HW1 6826  10.449   5.720   1.379
 1643SOL    HW2 6827  10.415   5.603   1.290
 1644SOL     OW 6828  14.011   3.790  10.745
 1644SOL    HW1 6829  13.960   3.799  10.664
 1644SOL    HW2 6830  14.018   3.696  10.759
 1645SOL     OW 6831   2.159  12.668  14.628
 1645SOL    HW1 6832   2.073  12.694  14.660
 1645SOL    HW2 6833   2.169  12.714  14.545
 1646SOL     OW 6834   1.936   7.583  12.195
 1646SOL    HW1 6835   1.980   7.518  12.142
 1646SOL    HW2 6836   1.845   7.583  12.164
 1647SOL     OW 6837  12.895   8.357   1.154
 1647SOL    HW1 6838  12.908   8.406   1.073
 1647SOL    HW2 6839  12.963   8.289   1.153
 1648SOL     OW 6840   6.151   9.986   0.889
 1648SOL    HW1 6841   6.229  10.026   0.928
 1648SOL    HW2 6842   6.110   9.939   0.962
 1649SOL     OW 6843  14.524   3.010   3.817
 1649SOL    HW1 6844  14.466   3.035   3.889
 1649SOL    HW2 6845  14.612   3.024   3.850
 1650SOL     OW 6846   2.777   3.735   2.548
 1650SOL    HW1 6847   2.840   3.807   2.542
 1650SOL    HW2 6848   2.831   3.658   2.567
 1651SOL     OW 6849  11.722  11.960  12.922
 1651SOL    HW1 6850  11.758  11.871  12.922
 1651SOL    HW2 6851  11.649  11.957  12.861
 1652SOL     OW 6852   5.863   5.888  13.547
 1652SOL    HW1 6853   5.906   5.959  13.500
 1652SOL    HW2 6854   5.886   5.809  13.499
 1653SOL     OW 6855   2.914   7.584   8.607
 1653SOL    HW1 6856   2.928   7.581   8.512
 1653SOL    HW2 6857   2.985   7.529   8.642
 1654SOL     OW 6858   0.070   4.936  13.375
 1654SOL    HW1 6859   0.091   4.925  13.282
 1654SOL    HW2 6860   0.131   5.004  13.404
 1655SOL     OW 6861  10.168   6.953   2.010
 1655SOL    HW1 6862  10.197   6.986   2.095
 1655SOL    HW2 6863  10.223   6.877   1.993
 1656SOL     OW 6864   6.085   8.629  12.877
 1656SOL    HW1 6865   6.073   8.720  12.849
 1656SOL    HW2 6866   6.070   8.631  12.971
 1657SOL     OW 6867   9.372  12.809   7.891
 1657SOL    HW1 6868   9.374  12.725   7.846
 1657SOL    HW2 6869   9.394  12.789   7.982
 1658SOL     OW 6870  13.357   8.051   7.632
 1658SOL    HW1 6871  13.274   8.041   7.584
 1658SOL    HW2 6872  13.362   8.145   7.651
 1659SOL     OW 6873   8.535  13.465   2.582
 1659SOL    HW1 6874   8.569  13.403   2.647
 1659SOL    HW2 6875   8.484  13.528   2.633
 1660SOL     OW 6876  13.110  13.947   2.293
 1660SOL    HW1 6877  13.173  13.903   2.350
 1660SOL    HW2 6878  13.078  13.878   2.235
 1661SOL     OW 6879  12.039   2.098  12.860
 1661SOL    HW1 6880  12.101   2.165  12.892
 1661SOL    HW2 6881  12.094   2.035  12.814
 1662SOL     OW 6882   0.366  13.773   7.322
 1662SOL    HW1 6883   0.426  13.761   7.249
 1662SOL    HW2 6884   0.289  13.815   7.283
 1663SOL     OW 6885   6.047   0.712  12.544
 1663SOL    HW1 6886   6.127   0.662  12.556
 1663SOL    HW2 6887   5.977   0.651  12.570
 1664SOL     OW 6888   9.613   9.829   7.694
 1664SOL    HW1 6889   9.680   9.887   7.728
 1664SOL    HW2 6890   9.624   9.832   7.599
 1665SOL     OW 6891   9.685   0.406  14.130
 1665SOL    HW1 6892   9.599   0.411  14.089
 1665SOL    HW2 6893   9.668   0.407  14.224
 1666SOL     OW 6894   0.451   1.975  10.119
 1666SOL    HW1 6895   0.383   1.950  10.182
 1666SOL    HW2 6896   0.420   1.942  10.035
 1667SOL     OW 6897   9.170  14.149   2.577
 1667SOL    HW1 6898   9.092  14.101   2.549
 1667SOL    HW2 6899   9.201  14.101   2.654
 1668SOL     OW 6900   2.840   4.547   3.505
 1668SOL    HW1 6901   2.857   4.537   3.411
 1668SOL    HW2 6902   2.823   4.640   3.517
 1669SOL     OW 6903  13.014   6.598  12.859
 1669SOL    HW1 6904  12.964   6.638  12.787
 1669SOL    HW2 6905  12.948   6.570  12.922
 1670SOL     OW 6906  12.272   4.990  13.921
 1670SOL    HW1 6907  12.240   4.966  14.008
 1670SOL    HW2 6908  12.299   5.081  13.929
 1671SOL     OW 6909   0.877   7.504   2.440
 1671SOL    HW1 6910   0.944   7.436   2.432
 1671SOL    HW2 6911   0.904   7.555   2.517
 1672SOL     OW 6912   1.932   0.263   1.430
 1672SOL    HW1 6913   2.002   0.303   1.481
 1672SOL    HW2 6914   1.851   0.295   1.470
 1673SOL     OW 6915   5.530  14.381   2.355
 1673SOL    HW1 6916   5.470  14.448   2.389
 1673SOL    HW2 6917   5.588  14.429   2.296
 1674SOL     OW 6918   4.063   5.554   5.807
 1674SOL    HW1 6919   3.999   5.624   5.797
 1674SOL    HW2 6920   4.077   5.521   5.718
 1675SOL     OW 6921   8.058  10.048   7.525
 1675SOL    HW1 6922   8.152  10.039   7.539
 1675SOL    HW2 6923   8.021  10.052   7.614
 1676SOL     OW 6924   9.158   1.067   1.033
 1676SOL    HW1 6925   9.120   1.002   0.974
 1676SOL    HW2 6926   9.224   1.019   1.083
 1677SOL     OW 6927   0.441   3.852  13.763
 1677SOL    HW1 6928   0.504   3.827  13.696
 1677SOL    HW2 6929   0.464   3.942  13.786
 1678SOL     OW 6930  14.018  12.685   3.725
 1678SOL    HW1 6931  14.035  12.631   3.648
 1678SOL    HW2 6932  13.997  12.771   3.690
 1679SOL     OW 6933  11.090   7.763   8.978
 1679SOL    HW1 6934  11.177   7.737   8.947
 1679SOL    HW2 6935  11.104   7.796   9.066
 1680SOL     OW 6936  10.574   3.101   1.190
 1680SOL    HW1 6937  10.543   3.011   1.191
 1680SOL    HW2 6938  10.646   3.101   1.128
 1681SOL     OW 6939   1.203   6.255  10.358
 1681SOL    HW1 6940   1.264   6.326  10.380
 1681SOL    HW2 6941   1.158   6.286  10.279
 1682SOL     OW 6942   8.250   0.117   5.729
 1682SOL    HW1 6943   8.296   0.129   5.646
 1682SOL    HW2 6944   8.226   0.205   5.757
 1683SOL     OW 6945  10.399  12.790   7.557
 1683SOL    HW1 6946  10.345  12.822   7.485
 1683SOL    HW2 6947  10.458  12.863   7.576
 1684SOL     OW 6948   6.152  10.756   1.262
 1684SOL    HW1 6949   6.219  10.776   1.197
 1684SOL    HW2 6950   6.160  10.825   1.327
 1685SOL     OW 6951   5.068  14.450   7.706
 1685SOL    HW1 6952   5.017  14.473   7.783
 1685SOL    HW2 6953   5.104  14.364   7.725
 1686SOL     OW 6954   7.668   3.160  12.348
 1686SOL    HW1 6955   7.733   3.115  12.401
 1686SOL    HW2 6956   7.694   3.252  12.351
 1687SOL     OW 6957   3.840  10.024   8.321
 1687SOL    HW1 6958   3.854   9.942   8.274
 1687SOL    HW2 6959   3.755  10.056   8.290
 1688SOL     OW 6960   8.247  11.380   0.639
 1688SOL    HW1 6961   8.285  11.468   0.641
 1688SOL    HW2 6962   8.257  11.352   0.548
 1689SOL     OW 6963  10.212  12.804   9.941
 1689SOL    HW1 6964  10.280  12.748   9.980
 1689SOL    HW2 6965  10.200  12.768   9.853
 1690SOL     OW 6966   3.552  11.205   7.628
 1690SOL    HW1 6967   3.546  11.299   7.646
 1690SOL    HW2 6968   3.551  11.198   7.533
 1691SOL     OW 6969  12.643   6.184   9.010
 1691SOL    HW1 6970  12.569   6.196   8.950
 1691SOL    HW2 6971  12.639   6.091   9.032
 1692SOL     OW 6972   5.450  14.399  13.814
 1692SOL    HW1 6973   5.383  14.332  13.802
 1692SOL    HW2 6974   5.518  14.355  13.866
 1693SOL     OW 6975   4.756  11.348   9.127
 1693SOL    HW1 6976   4.667  11.360   9.159
 1693SOL    HW2 6977   4.750  11.367   9.033
 1694SOL     OW 6978   3.825  12.959   2.400
 1694SOL    HW1 6979   3.798  12.944   2.310
 1694SOL    HW2 6980   3.756  12.918   2.453
 1695SOL     OW 6981  12.831   3.707  11.985
 1695SOL    HW1 6982  12.779   3.787  11.997
 1695SOL    HW2 6983  12.857   3.709  11.893
 1696SOL     OW 6984   1.334   0.813   4.614
 1696SOL    HW1 6985   1.359   0.888   4.559
 1696SOL    HW2 6986   1.417   0.774   4.641
 1697SOL     OW 6987   0.499   6.079   1.852
 1697SOL    HW1 6988   0.556   6.104   1.779
 1697SOL    HW2 6989   0.558   6.057   1.923
 1698SOL     OW 6990  10.746   0.100  12.612
 1698SOL    HW1 6991  10.717   0.017  12.651
 1698SOL    HW2 6992  10.841   0.092  12.606
 1699SOL     OW 6993   8.980   1.915  13.771
 1699SOL    HW1 6994   8.982   1.878  13.860
 1699SOL    HW2 6995   8.889   1.907  13.743
 1700SOL     OW 6996   6.567   9.002  12.014
 1700SOL    HW1 6997   6.630   9.030  11.948
 1700SOL    HW2 6998   6.489   8.978  11.965
 1701SOL     OW 6999   4.321   3.856   0.916
 1701SOL    HW1 7000   4.242   3.852   0.862
 1701SOL    HW2 7001   4.323   3.945   0.950
 1702SOL     OW 7002   6.038  14.805  12.011
 1702SOL    HW1 7003   5.974  14.783  11.944
 1702SOL    HW2 7004   6.009   0.022  12.045
 1703SOL     OW 7005   1.163   9.483  13.296
 1703SOL    HW1 7006   1.230   9.508  13.232
 1703SOL    HW2 7007   1.088   9.455  13.242
 1704SOL     OW 7008  10.677  14.620  13.054
 1704SOL    HW1 7009  10.694  14.711  13.078
 1704SOL    HW2 7010  10.714  14.611  12.966
 1705SOL     OW 7011  10.800   7.059  13.343
 1705SOL    HW1 7012  10.784   7.009  13.263
 1705SOL    HW2 7013  10.722   7.043  13.397
 1706SOL     OW 7014   8.499   6.645   9.843
 1706SOL    HW1 7015   8.432   6.594   9.889
 1706SOL    HW2 7016   8.473   6.737   9.856
 1707SOL     OW 7017   0.822   1.852   1.181
 1707SOL    HW1 7018   0.842   1.790   1.251
 1707SOL    HW2 7019   0.906   1.868   1.139
 1708SOL     OW 7020   7.732   8.825   3.510
 1708SOL    HW1 7021   7.641   8.810   3.488
 1708SOL    HW2 7022   7.734   8.831   3.605
 1709SOL     OW 7023   1.970   1.519   6.650
 1709SOL    HW1 7024   2.028   1.444   6.638
 1709SOL    HW2 7025   1.997   1.558   6.733
 1710SOL     OW 7026   1.720  14.342  13.510
 1710SOL    HW1 7027   1.758  14.264  13.550
 1710SOL    HW2 7028   1.731  14.328  13.416
 1711SOL     OW 7029   0.069   6.849   1.564
 1711SOL    HW1 7030   0.091   6.942   1.570
 1711SOL    HW2 7031   0.129   6.815   1.497
 1712SOL     OW 7032   7.757  13.192  12.263
 1712SOL    HW1 7033   7.757  13.153  12.176
 1712SOL    HW2 7034   7.826  13.146  12.311
 1713SOL     OW 7035  12.824  12.437   4.775
 1713SOL    HW1 7036  12.808  12.386   4.695
 1713SOL    HW2 7037  12.900  12.491   4.754
 1714SOL     OW 7038  10.149  11.429   8.392
 1714SOL    HW1 7039  10.137  11.336   8.413
 1714SOL    HW2 7040  10.060  11.463   8.386
 1715SOL     OW 7041  10.921   0.946   7.138
 1715SOL    HW1 7042  10.841   0.998   7.149
 1715SOL    HW2 7043  10.987   1.009   7.110
 1716SOL     OW 7044  12.166   2.262   5.578
 1716SOL    HW1 7045  12.261   2.257   5.563
 1716SOL    HW2 7046  12.128   2.238   5.494
 1717SOL     OW 7047   9.491   5.275   6.990
 1717SOL    HW1 7048   9.468   5.241   6.904
 1717SOL    HW2 7049   9.561   5.338   6.974
 1718SOL     OW 7050   8.919   0.619   9.923
 1718SOL    HW1 7051   8.886   0.638  10.010
 1718SOL    HW2 7052   8.926   0.524   9.919
 1719SOL     OW 7053   1.990   9.497   9.690
 1719SOL    HW1 7054   2.028   9.433   9.750
 1719SOL    HW2 7055   1.987   9.452   9.606
 1720SOL     OW 7056   6.934  14.359  11.678
 1720SOL    HW1 7057   6.986  14.375  11.599
 1720SOL    HW2 7058   6.867  14.428  11.677
 1721SOL     OW 7059   6.001  12.235   1.720
 1721SOL    HW1 7060   5.928  12.271   1.669
 1721SOL    HW2 7061   6.036  12.310   1.768
 1722SOL     OW 7062  10.592  10.527  10.792
 1722SOL    HW1 7063  10.646  10.584  10.738
 1722SOL    HW2 7064  10.568  10.581  10.867
 1723SOL     OW 7065   0.323  14.239  11.487
 1723SOL    HW1 7066   0.277  14.196  11.560
 1723SOL    HW2 7067   0.255  14.286  11.440
 1724SOL     OW 7068   0.193  14.396   6.805
 1724SOL    HW1 7069   0.279  14.412   6.845
 1724SOL    HW2 7070   0.206  14.319   6.750
 1725SOL     OW 7071   2.611   1.116   0.173
 1725SOL    HW1 7072   2.580   1.027   0.154
 1725SOL    HW2 7073   2.535   1.160   0.212
 1726SOL     OW 7074  14.242   8.985   7.594
 1726SOL    HW1 7075  14.151   8.975   7.621
 1726SOL    HW2 7076  14.255   8.918   7.527
 1727SOL     OW 7077  11.059   7.151   3.844
 1727SOL    HW1 7078  10.969   7.153   3.810
 1727SOL    HW2 7079  11.062   7.072   3.898
 1728SOL     OW 7080   0.219  13.568   5.898
 1728SOL    HW1 7081   0.287  13.531   5.956
 1728SOL    HW2 7082   0.150  13.596   5.958
 1729SOL     OW 7083  10.409   8.825  13.290
 1729SOL    HW1 7084  10.356   8.827  13.370
 1729SOL    HW2 7085  10.438   8.734  13.284
 1730SOL     OW 7086   4.805  13.701  11.855
 1730SOL    HW1 7087   4.868  13.717  11.785
 1730SOL    HW2 7088   4.734  13.763  11.836
 1731SOL     OW 7089  13.131   3.422  12.788
 1731SOL    HW1 7090  13.037   3.408  12.785
 1731SOL    HW2 7091  13.146   3.500  12.735
 1732SOL     OW 7092   3.092  11.368   7.715
 1732SOL    HW1 7093   3.095  11.388   7.621
 1732SOL    HW2 7094   3.165  11.417   7.752
 1733SOL     OW 7095   9.291   8.182   4.792
 1733SOL    HW1 7096   9.350   8.249   4.757
 1733SOL    HW2 7097   9.333   8.152   4.872
 1734SOL     OW 7098   3.918  12.092  10.614
 1734SOL    HW1 7099   3.945  12.098  10.706
 1734SOL    HW2 7100   3.962  12.014  10.581
 1735SOL     OW 7101   8.530   6.243   4.352
 1735SOL    HW1 7102   8.551   6.331   4.382
 1735SOL    HW2 7103   8.513   6.253   4.258
 1736SOL     OW 7104  13.363   8.503  11.390
 1736SOL    HW1 7105  13.301   8.440  11.354
 1736SOL    HW2 7106  13.404   8.543  11.314
 1737SOL     OW 7107  14.793   5.976  12.768
 1737SOL    HW1 7108  14.783   5.987  12.863
 1737SOL    HW2 7109  14.727   5.911  12.744
 1738SOL     OW 7110   1.350   7.356  10.798
 1738SOL    HW1 7111   1.276   7.358  10.738
 1738SOL    HW2 7112   1.427   7.368  10.742
 1739SOL     OW 7113   4.860  13.755   5.248
 1739SOL    HW1 7114   4.926  13.814   5.212
 1739SOL    HW2 7115   4.793  13.813   5.284
 1740SOL     OW 7116   7.436   5.051  14.758
 1740SOL    HW1 7117   7.378   4.981  14.727
 1740SOL    HW2 7118   7.521   5.032  14.717
 1741SOL     OW 7119   4.960   5.888   1.150
 1741SOL    HW1 7120   4.992   5.812   1.101
 1741SOL    HW2 7121   5.004   5.963   1.110
 1742SOL     OW 7122   6.136   0.422  14.145
 1742SOL    HW1 7123   6.150   0.517  14.146
 1742SOL    HW2 7124   6.169   0.394  14.060
 1743SOL     OW 7125   5.566  14.814   9.248
 1743SOL    HW1 7126   5.544  14.731   9.291
 1743SOL    HW2 7127   5.606  14.867   9.317
 1744SOL     OW 7128   0.672   0.463  13.302
 1744SOL    HW1 7129   0.753   0.420  13.328
 1744SOL    HW2 7130   0.690   0.557  13.314
 1745SOL     OW 7131   9.929   1.886  13.928
 1745SOL    HW1 7132  10.002   1.846  13.881
 1745SOL    HW2 7133   9.903   1.960  13.873
 1746SOL     OW 7134  14.540   7.732   5.448
 1746SOL    HW1 7135  14.623   7.740   5.495
 1746SOL    HW2 7136  14.483   7.796   5.490
 1747SOL     OW 7137   9.357   3.620   0.140
 1747SOL    HW1 7138   9.282   3.566   0.165
 1747SOL    HW2 7139   9.364   3.609   0.045
 1748SOL     OW 7140   6.403   8.909  10.384
 1748SOL    HW1 7141   6.429   8.919  10.475
 1748SOL    HW2 7142   6.470   8.957  10.335
 1749SOL     OW 7143   3.697  13.800  14.058
 1749SOL    HW1 7144   3.667  13.891  14.058
 1749SOL    HW2 7145   3.785  13.805  14.097
 1750SOL     OW 7146   7.451   3.076   5.338
 1750SOL    HW1 7147   7.438   3.033   5.254
 1750SOL    HW2 7148   7.543   3.059   5.359
 1751SOL     OW 7149   7.901  10.297  13.462
 1751SOL    HW1 7150   7.970  10.328  13.521
 1751SOL    HW2 7151   7.947  10.271  13.383
 1752SOL     OW 7152  11.011   7.460  14.321
 1752SOL    HW1 7153  11.062   7.408  14.383
 1752SOL    HW2 7154  10.929   7.478  14.367
 1753SOL     OW 7155   1.871   8.217  13.252
 1753SOL    HW1 7156   1.947   8.163  13.231
 1753SOL    HW2 7157   1.861   8.209  13.347
 1754SOL     OW 7158   4.625   0.941  10.563
 1754SOL    HW1 7159   4.701   0.949  10.621
 1754SOL    HW2 7160   4.640   0.859  10.515
 1755SOL     OW 7161   1.316   7.613  10.145
 1755SOL    HW1 7162   1.400   7.573  10.121
 1755SOL    HW2 7163   1.264   7.540  10.177
 1756SOL     OW 7164   8.156  10.379  10.497
 1756SOL    HW1 7165   8.193  10.385  10.585
 1756SOL    HW2 7166   8.198  10.449  10.448
 1757SOL     OW 7167   3.232   5.140  12.567
 1757SOL    HW1 7168   3.288   5.218  12.574
 1757SOL    HW2 7169   3.187   5.135  12.651
 1758SOL     OW 7170   8.116   5.169   7.465
 1758SOL    HW1 7171   8.127   5.179   7.370
 1758SOL    HW2 7172   8.102   5.075   7.478
 1759SOL     OW 7173   8.603   6.338  12.047
 1759SOL    HW1 7174   8.627   6.261  11.997
 1759SOL    HW2 7175   8.586   6.405  11.981
 1760SOL     OW 7176   2.847   3.950   7.735
 1760SOL    HW1 7177   2.901   4.010   7.684
 1760SOL    HW2 7178   2.775   3.926   7.677
 1761SOL     OW 7179   2.895  12.271  14.497
 1761SOL    HW1 7180   2.890  12.325  14.575
 1761SOL    HW2 7181   2.947  12.195  14.524
 1762SOL     OW 7182   9.330   4.162   6.160
 1762SOL    HW1 7183   9.266   4.092   6.147
 1762SOL    HW2 7184   9.318   4.189   6.251
 1763SOL     OW 7185   5.104   8.580  11.013
 1763SOL    HW1 7186   5.179   8.599  10.957
 1763SOL    HW2 7187   5.111   8.486  11.032
 1764SOL     OW 7188   0.429   9.282  14.659
 1764SOL    HW1 7189   0.368   9.271  14.586
 1764SOL    HW2 7190   0.513   9.251  14.626
 1765SOL     OW 7191   0.964   8.334   2.488
 1765SOL    HW1 7192   0.897   8.402   2.484
 1765SOL    HW2 7193   1.042   8.376   2.452
 1766SOL     OW 7194   2.634   7.427  11.723
 1766SOL    HW1 7195   2.701   7.429  11.792
 1766SOL    HW2 7196   2.560   7.475  11.760
 1767SOL     OW 7197   9.248   3.178   3.131
 1767SOL    HW1 7198   9.294   3.258   3.158
 1767SOL    HW2 7199   9.318   3.113   3.121
 1768SOL     OW 7200  12.262   0.296   9.378
 1768SOL    HW1 7201  12.202   0.362   9.414
 1768SOL    HW2 7202  12.337   0.297   9.438
 1769SOL     OW 7203   4.880   8.581   1.357
 1769SOL    HW1 7204   4.847   8.491   1.356
 1769SOL    HW2 7205   4.975   8.571   1.366
 1770SOL     OW 7206   7.141  11.404   3.634
 1770SOL    HW1 7207   7.115  11.485   3.591
 1770SOL    HW2 7208   7.141  11.338   3.565
 1771SOL     OW 7209   6.758  11.737   0.640
 1771SOL    HW1 7210   6.842  11.782   0.652
 1771SOL    HW2 7211   6.693  11.807   0.646
 1772SOL     OW 7212   6.127   2.473   1.185
 1772SOL    HW1 7213   6.043   2.509   1.212
 1772SOL    HW2 7214   6.171   2.545   1.139
 1773SOL     OW 7215   7.454   9.753  12.213
 1773SOL    HW1 7216   7.403   9.754  12.295
 1773SOL    HW2 7217   7.515   9.826  12.222
 1774SOL     OW 7218   0.654   8.295   7.851
 1774SOL    HW1 7219   0.692   8.371   7.808
 1774SOL    HW2 7220   0.727   8.234   7.861
 1775SOL     OW 7221  12.815  14.783   7.308
 1775SOL    HW1 7222  12.775  14.868   7.328
 1775SOL    HW2 7223  12.796  14.769   7.215
 1776SOL     OW 7224  14.008   3.863  13.118
 1776SOL    HW1 7225  13.993   3.938  13.061
 1776SOL    HW2 7226  13.953   3.793  13.082
 1777SOL     OW 7227  13.996  11.196   7.592
 1777SOL    HW1 7228  13.957  11.146   7.664
 1777SOL    HW2 7229  13.998  11.287   7.624
 1778SOL     OW 7230   9.499  13.943  11.776
 1778SOL    HW1 7231   9.503  13.934  11.681
 1778SOL    HW2 7232   9.469  13.857  11.807
 1779SOL     OW 7233   1.984   2.147  13.613
 1779SOL    HW1 7234   1.974   2.213  13.682
 1779SOL    HW2 7235   1.954   2.191  13.533
 1780SOL     OW 7236  10.740  10.504   0.935
 1780SOL    HW1 7237  10.736  10.493   1.030
 1780SOL    HW2 7238  10.648  10.511   0.908
 1781SOL     OW 7239   3.138   5.554   3.291
 1781SOL    HW1 7240   3.189   5.473   3.283
 1781SOL    HW2 7241   3.102   5.550   3.380
 1782SOL     OW 7242  11.474   1.692  12.935
 1782SOL    HW1 7243  11.493   1.715  12.844
 1782SOL    HW2 7244  11.549   1.724  12.984
 1783SOL     OW 7245   6.768   1.859  14.850
 1783SOL    HW1 7246   6.748   1.797   0.052
 1783SOL    HW2 7247   6.718   1.828  14.775
 1784SOL     OW 7248   8.579  11.580   6.323
 1784SOL    HW1 7249   8.613  11.606   6.409
 1784SOL    HW2 7250   8.641  11.515   6.291
 1785SOL     OW 7251   2.282  12.067   9.256
 1785SOL    HW1 7252   2.220  12.001   9.285
 1785SOL    HW2 7253   2.241  12.107   9.179
 1786SOL     OW 7254   8.225  14.102   5.632
 1786SOL    HW1 7255   8.146  14.059   5.601
 1786SOL    HW2 7256   8.286  14.031   5.651
 1787SOL     OW 7257  13.360  12.477  12.873
 1787SOL    HW1 7258  13.283  12.516  12.916
 1787SOL    HW2 7259  13.332  12.390  12.847
 1788SOL     OW 7260   2.857  10.476   7.230
 1788SOL    HW1 7261   2.860  10.403   7.290
 1788SOL    HW2 7262   2.790  10.534   7.266
 1789SOL     OW 7263   9.111   9.298   8.680
 1789SOL    HW1 7264   9.189   9.284   8.626
 1789SOL    HW2 7265   9.048   9.338   8.620
 1790SOL     OW 7266   5.161   6.166  13.209
 1790SOL    HW1 7267   5.083   6.162  13.153
 1790SOL    HW2 7268   5.198   6.078  13.207
 1791SOL     OW 7269  14.237   5.797   0.783
 1791SOL    HW1 7270  14.203   5.847   0.709
 1791SOL    HW2 7271  14.312   5.848   0.814
 1792SOL     OW 7272  14.578   3.815  14.459
 1792SOL    HW1 7273  14.635   3.743  14.432
 1792SOL    HW2 7274  14.591   3.821  14.554
 1793SOL     OW 7275   5.118   0.713   2.242
 1793SOL    HW1 7276   5.110   0.761   2.159
 1793SOL    HW2 7277   5.140   0.624   2.215
 1794SOL     OW 7278   7.983  12.674   6.139
 1794SOL    HW1 7279   7.892  12.645   6.145
 1794SOL    HW2 7280   7.992  12.709   6.050
 1795SOL     OW 7281  11.578   4.826  13.654
 1795SOL    HW1 7282  11.578   4.778  13.737
 1795SOL    HW2 7283  11.613   4.912  13.677
 1796SOL     OW 7284   0.548  11.637  14.216
 1796SOL    HW1 7285   0.574  11.664  14.127
 1796SOL    HW2 7286   0.533  11.719  14.262
 1797SOL     OW 7287  13.851  12.389  10.774
 1797SOL    HW1 7288  13.789  12.325  10.739
 1797SOL    HW2 7289  13.912  12.337  10.827
 1798SOL     OW 7290   6.705   1.500   6.622
 1798SOL    HW1 7291   6.715   1.591   6.651
 1798SOL    HW2 7292   6.781   1.455   6.659
 1799SOL     OW 7293   6.069  12.161  11.246
 1799SOL    HW1 7294   6.126  12.089  11.217
 1799SOL    HW2 7295   5.993  12.156  11.188
 1800SOL     OW 7296  10.778   4.042   9.982
 1800SOL    HW1 7297  10.845   3.996   9.932
 1800SOL    HW2 7298  10.809   4.132   9.987
 1801SOL     OW 7299   3.894  14.641  12.240
 1801SOL    HW1 7300   3.969  14.593  12.206
 1801SOL    HW2 7301   3.913  14.733  12.217
 1802SOL     OW 7302   4.889   9.972   8.605
 1802SOL    HW1 7303   4.843   9.897   8.567
 1802SOL    HW2 7304   4.929  10.016   8.530
 1803SOL     OW 7305  10.853   7.568  13.350
 1803SOL    HW1 7306  10.866   7.476  13.373
 1803SOL    HW2 7307  10.942   7.604  13.346
 1804SOL     OW 7308  10.662   4.308   1.407
 1804SOL    HW1 7309  10.739   4.352   1.445
 1804SOL    HW2 7310  10.652   4.228   1.459
 1805SOL     OW 7311   5.704   8.897  13.216
 1805SOL    HW1 7312   5.706   8.804  13.193
 1805SOL    HW2 7313   5.747   8.902  13.302
 1806SOL     OW 7314  13.654  14.109  11.995
 1806SOL    HW1 7315  13.648  14.014  11.979
 1806SOL    HW2 7316  13.717  14.117  12.067
 1807SOL     OW 7317   4.277  13.684  12.170
 1807SOL    HW1 7318   4.322  13.764  12.199
 1807SOL    HW2 7319   4.242  13.707  12.084
 1808SOL     OW 7320  14.555   1.616   5.109
 1808SOL    HW1 7321  14.509   1.599   5.026
 1808SOL    HW2 7322  14.496   1.583   5.176
 1809SOL     OW 7323   0.830  12.749   6.227
 1809SOL    HW1 7324   0.859  12.664   6.194
 1809SOL    HW2 7325   0.861  12.812   6.163
 1810SOL     OW 7326  13.997   0.801  12.356
 1810SOL    HW1 7327  14.060   0.736  12.327
 1810SOL    HW2 7328  13.973   0.850  12.277
 1811SOL     OW 7329   9.305   6.562   2.296
 1811SOL    HW1 7330   9.396   6.536   2.280
 1811SOL    HW2 7331   9.260   6.540   2.215
 1812SOL     OW 7332   6.361  12.357   9.787
 1812SOL    HW1 7333   6.423  12.429   9.796
 1812SOL    HW2 7334   6.298  12.371   9.858
 1813SOL     OW 7335   4.554   1.385   6.944
 1813SOL    HW1 7336   4.556   1.302   6.896
 1813SOL    HW2 7337   4.646   1.404   6.963
 1814SOL     OW 7338  12.788   9.182   4.909
 1814SOL    HW1 7339  12.717   9.222   4.958
 1814SOL    HW2 7340  12.795   9.093   4.945
 1815SOL     OW 7341   9.549   4.362   9.724
 1815SOL    HW1 7342   9.495   4.284   9.717
 1815SOL    HW2 7343   9.508   4.413   9.794
 1816SOL     OW 7344   0.931   5.685  10.580
 1816SOL    HW1 7345   0.837   5.705  10.581
 1816SOL    HW2 7346   0.942   5.629  10.503
 1817SOL     OW 7347   6.830  13.612   6.288
 1817SOL    HW1 7348   6.829  13.582   6.197
 1817SOL    HW2 7349   6.822  13.532   6.340
 1818SOL     OW 7350   3.990   3.184   9.341
 1818SOL    HW1 7351   4.086   3.180   9.342
 1818SOL    HW2 7352   3.962   3.095   9.364
 1819SOL     OW 7353   9.968   5.517   4.687
 1819SOL    HW1 7354   9.956   5.427   4.716
 1819SOL    HW2 7355   9.956   5.569   4.766
 1820SOL     OW 7356   4.537   7.812  12.830
 1820SOL    HW1 7357   4.592   7.878  12.872
 1820SOL    HW2 7358   4.565   7.811  12.739
 1821SOL     OW 7359   4.122   5.223   5.037
 1821SOL    HW1 7360   4.189   5.230   4.968
 1821SOL    HW2 7361   4.064   5.297   5.021
 1822SOL     OW 7362  11.951   2.826   4.656
 1822SOL    HW1 7363  11.924   2.915   4.631
 1822SOL    HW2 7364  11.938   2.774   4.577
 1823SOL     OW 7365   7.852   9.829   1.089
 1823SOL    HW1 7366   7.886   9.919   1.092
 1823SOL    HW2 7367   7.850   9.808   0.995
 1824SOL     OW 7368   1.606  11.995   5.055
 1824SOL    HW1 7369   1.627  11.965   4.967
 1824SOL    HW2 7370   1.690  12.026   5.090
 1825SOL     OW 7371  11.088  13.489  10.009
 1825SOL    HW1 7372  11.173  13.477   9.966
 1825SOL    HW2 7373  11.109  13.518  10.097
 1826SOL     OW 7374  12.141   4.644   5.224
 1826SOL    HW1 7375  12.180   4.706   5.163
 1826SOL    HW2 7376  12.142   4.560   5.177
 1827SOL     OW 7377   1.948  13.631   8.382
 1827SOL    HW1 7378   2.024  13.689   8.390
 1827SOL    HW2 7379   1.874  13.690   8.370
 1828SOL     OW 7380  12.067  12.222   3.161
 1828SOL    HW1 7381  11.983  12.266   3.149
 1828SOL    HW2 7382  12.119  12.249   3.085
 1829SOL     OW 7383   7.004   3.352   6.576
 1829SOL    HW1 7384   6.978   3.382   6.489
 1829SOL    HW2 7385   6.922   3.327   6.618
 1830SOL     OW 7386   4.467   6.809   9.259
 1830SOL    HW1 7387   4.467   6.845   9.348
 1830SOL    HW2 7388   4.378   6.823   9.227
 1831SOL     OW 7389  12.969  14.145   5.058
 1831SOL    HW1 7390  12.891  14.104   5.020
 1831SOL    HW2 7391  12.946  14.161   5.150
 1832SOL     OW 7392   2.292   6.245   7.866
 1832SOL    HW1 7393   2.379   6.284   7.865
 1832SOL    HW2 7394   2.236   6.312   7.827
 1833SOL     OW 7395  13.312  10.673   3.709
 1833SOL    HW1 7396  13.402  10.671   3.740
 1833SOL    HW2 7397  13.278  10.585   3.727
 1834SOL     OW 7398  12.747   8.184   3.015
 1834SOL    HW1 7399  12.776   8.202   2.926
 1834SOL    HW2 7400  12.713   8.267   3.047
 1835SOL     OW 7401  11.887   7.736  14.024
 1835SOL    HW1 7402  11.969   7.718  14.070
 1835SOL    HW2 7403  11.863   7.825  14.050
 1836SOL     OW 7404   4.526   2.024   7.409
 1836SOL    HW1 7405   4.517   2.115   7.437
 1836SOL    HW2 7406   4.618   2.015   7.383
 1837SOL     OW 7407   2.229   0.622   4.339
 1837SOL    HW1 7408   2.301   0.582   4.290
 1837SOL    HW2 7409   2.271   0.661   4.415
 1838SOL     OW 7410   4.174   6.507   5.573
 1838SOL    HW1 7411   4.257   6.531   5.614
 1838SOL    HW2 7412   4.200   6.456   5.496
 1839SOL     OW 7413   5.971  10.780  14.585
 1839SOL    HW1 7414   5.989  10.842  14.655
 1839SOL    HW2 7415   6.030  10.707  14.601
 1840SOL     OW 7416   1.152   8.773   0.384
 1840SOL    HW1 7417   1.219   8.728   0.436
 1840SOL    HW2 7418   1.078   8.784   0.444
 1841SOL     OW 7419  13.764   3.136   5.102
 1841SOL    HW1 7420  13.817   3.069   5.059
 1841SOL    HW2 7421  13.795   3.219   5.065
 1842SOL     OW 7422   5.155  13.003   9.540
 1842SOL    HW1 7423   5.168  13.017   9.634
 1842SOL    HW2 7424   5.201  12.922   9.521
 1843SOL     OW 7425   5.096   8.221  13.657
 1843SOL    HW1 7426   5.119   8.142  13.607
 1843SOL    HW2 7427   5.168   8.231  13.719
 1844SOL     OW 7428   2.379   6.885   7.697
 1844SOL    HW1 7429   2.474   6.884   7.713
 1844SOL    HW2 7430   2.351   6.796   7.716
 1845SOL     OW 7431   0.541   6.441  10.312
 1845SOL    HW1 7432   0.479   6.492  10.260
 1845SOL    HW2 7433   0.508   6.447  10.402
 1846SOL     OW 7434   7.083   9.946   5.286
 1846SOL    HW1 7435   7.084   9.864   5.336
 1846SOL    HW2 7436   7.079   9.919   5.195
 1847SOL     OW 7437   4.834   0.960   5.578
 1847SOL    HW1 7438   4.866   0.874   5.605
 1847SOL    HW2 7439   4.895   0.989   5.510
 1848SOL     OW 7440  14.275   8.901   3.753
 1848SOL    HW1 7441  14.348   8.925   3.695
 1848SOL    HW2 7442  14.198   8.905   3.697
 1849SOL     OW 7443   3.918   1.620  11.867
 1849SOL    HW1 7444   3.894   1.651  11.780
 1849SOL    HW2 7445   4.006   1.655  11.881
 1850SOL     OW 7446  13.403   2.118   0.558
 1850SOL    HW1 7447  13.419   2.115   0.653
 1850SOL    HW2 7448  13.489   2.101   0.520
 1851SOL     OW 7449   4.319   2.494   7.545
 1851SOL    HW1 7450   4.263   2.572   7.537
 1851SOL    HW2 7451   4.371   2.494   7.465
 1852SOL     OW 7452   1.519   2.677   7.242
 1852SOL    HW1 7453   1.601   2.631   7.219
 1852SOL    HW2 7454   1.547   2.764   7.268
 1853SOL     OW 7455   3.610   5.954   9.809
 1853SOL    HW1 7456   3.685   5.923   9.859
 1853SOL    HW2 7457   3.562   5.874   9.786
 1854SOL     OW 7458   2.207  13.638   7.583
 1854SOL    HW1 7459   2.157  13.598   7.654
 1854SOL    HW2 7460   2.161  13.720   7.564
 1855SOL     OW 7461   8.639   6.026  14.795
 1855SOL    HW1 7462   8.732   6.005  14.803
 1855SOL    HW2 7463   8.599   5.992   0.007
 1856SOL     OW 7464   8.953   3.946   2.562
 1856SOL    HW1 7465   8.943   4.024   2.616
 1856SOL    HW2 7466   8.894   3.960   2.487
 1857SOL     OW 7467   7.153   6.586  12.144
 1857SOL    HW1 7468   7.127   6.677  12.129
 1857SOL    HW2 7469   7.070   6.538  12.152
 1858SOL     OW 7470  10.100   5.333   5.711
 1858SOL    HW1 7471  10.078   5.375   5.627
 1858SOL    HW2 7472  10.057   5.388   5.776
 1859SOL     OW 7473   2.868   7.791   9.311
 1859SOL    HW1 7474   2.917   7.758   9.236
 1859SOL    HW2 7475   2.930   7.845   9.359
 1860SOL     OW 7476   8.218   5.212  14.702
 1860SOL    HW1 7477   8.180   5.125  14.704
 1860SOL    HW2 7478   8.179   5.256  14.778
 1861SOL     OW 7479   9.864  14.196  14.743
 1861SOL    HW1 7480   9.917  14.270  14.714
 1861SOL    HW2 7481   9.781  14.206  14.695
 1862SOL     OW 7482   3.228   0.167   9.347
 1862SOL    HW1 7483   3.175   0.243   9.323
 1862SOL    HW2 7484   3.216   0.106   9.273
 1863SOL     OW 7485  10.934   6.601   1.589
 1863SOL    HW1 7486  10.941   6.512   1.553
 1863SOL    HW2 7487  10.845   6.629   1.565
 1864SOL     OW 7488   4.592   1.496   7.642
 1864SOL    HW1 7489   4.569   1.410   7.676
 1864SOL    HW2 7490   4.626   1.544   7.718
 1865SOL     OW 7491   9.022   9.596  12.554
 1865SOL    HW1 7492   9.077   9.567  12.481
 1865SOL    HW2 7493   9.007   9.689  12.538
 1866SOL     OW 7494   7.890   5.966   2.450
 1866SOL    HW1 7495   7.928   5.902   2.511
 1866SOL    HW2 7496   7.928   5.945   2.365
 1867SOL     OW 7497   8.627   9.503  13.733
 1867SOL    HW1 7498   8.604   9.500  13.640
 1867SOL    HW2 7499   8.548   9.474  13.778
 1868SOL     OW 7500   3.235  13.498   3.889
 1868SOL    HW1 7501   3.312  13.534   3.845
 1868SOL    HW2 7502   3.173  13.572   3.895
 1869SOL     OW 7503  14.148  11.737   4.840
 1869SOL    HW1 7504  14.086  11.664   4.841
 1869SOL    HW2 7505  14.195  11.727   4.757
 1870SOL     OW 7506   3.092  14.102   5.701
 1870SOL    HW1 7507   3.036  14.085   5.778
 1870SOL    HW2 7508   3.082  14.196   5.685
 1871SOL     OW 7509  11.049  10.876   3.557
 1871SOL    HW1 7510  11.068  10.914   3.643
 1871SOL    HW2 7511  11.003  10.945   3.510
 1872SOL     OW 7512   6.857  12.102  11.336
 1872SOL    HW1 7513   6.912  12.025  11.351
 1872SOL    HW2 7514   6.903  12.173  11.381
 1873SOL     OW 7515   6.464   9.952   0.573
 1873SOL    HW1 7516   6.453   9.872   0.625
 1873SOL    HW2 7517   6.445   9.925   0.483
 1874SOL     OW 7518  13.317   2.778   7.917
 1874SOL    HW1 7519  13.334   2.858   7.967
 1874SOL    HW2 7520  13.240   2.740   7.959
 1875SOL     OW 7521   9.857   1.499   4.613
 1875SOL    HW1 7522   9.915   1.495   4.689
 1875SOL    HW2 7523   9.881   1.581   4.569
 1876SOL     OW 7524   4.336  10.959   9.296
 1876SOL    HW1 7525   4.399  10.903   9.342
 1876SOL    HW2 7526   4.390  11.014   9.239
 1877SOL     OW 7527  13.074   1.517   1.994
 1877SOL    HW1 7528  12.993   1.474   1.966
 1877SOL    HW2 7529  13.086   1.588   1.931
 1878SOL     OW 7530  12.944   4.334   0.386
 1878SOL    HW1 7531  12.941   4.244   0.351
 1878SOL    HW2 7532  12.853   4.355   0.404
 1879SOL     OW 7533  12.142   7.937  10.869
 1879SOL    HW1 7534  12.202   7.915  10.941
 1879SOL    HW2 7535  12.109   8.024  10.891
 1880SOL     OW 7536   7.938   2.036   5.832
 1880SOL    HW1 7537   8.003   2.091   5.788
 1880SOL    HW2 7538   7.873   2.016   5.765
 1881SOL     OW 7539   7.933   9.429  11.564
 1881SOL    HW1 7540   7.898   9.396  11.480
 1881SOL    HW2 7541   7.990   9.359  11.595
 1882SOL     OW 7542   0.431   0.706  11.530
 1882SOL    HW1 7543   0.491   0.668  11.595
 1882SOL    HW2 7544   0.477   0.785  11.499
 1883SOL     OW 7545  11.082   0.316   2.925
 1883SOL    HW1 7546  11.051   0.247   2.983
 1883SOL    HW2 7547  11.129   0.377   2.983
 1884SOL     OW 7548   6.566   7.321  12.624
 1884SOL    HW1 7549   6.508   7.320  12.548
 1884SOL    HW2 7550   6.592   7.413  12.633
 1885SOL     OW 7551   8.236  10.200  12.522
 1885SOL    HW1 7552   8.179  10.136  12.480
 1885SOL    HW2 7553   8.325  10.166  12.509
 1886SOL     OW 7554  12.881   6.427   1.051
 1886SOL    HW1 7555  12.948   6.418   1.120
 1886SOL    HW2 7556  12.830   6.347   1.056
 1887SOL     OW 7557   4.476   9.953   7.825
 1887SOL    HW1 7558   4.407   9.985   7.882
 1887SOL    HW2 7559   4.554   9.949   7.881
 1888SOL     OW 7560   1.199  14.100  10.261
 1888SOL    HW1 7561   1.164  14.095  10.172
 1888SOL    HW2 7562   1.284  14.142  10.252
 1889SOL     OW 7563  14.046   3.421  11.710
 1889SOL    HW1 7564  14.055   3.468  11.627
 1889SOL    HW2 7565  13.978   3.469  11.758
 1890SOL     OW 7566  10.986  10.730   0.989
 1890SOL    HW1 7567  10.900  10.692   1.008
 1890SOL    HW2 7568  11.028  10.668   0.930
 1891SOL     OW 7569   0.667  14.841  10.453
 1891SOL    HW1 7570   0.675  14.785  10.375
 1891SOL    HW2 7571   0.611   0.045  10.425
 1892SOL     OW 7572   6.565   0.848   1.480
 1892SOL    HW1 7573   6.582   0.756   1.458
 1892SOL    HW2 7574   6.481   0.868   1.439
 1893SOL     OW 7575   5.404   2.717   6.434
 1893SOL    HW1 7576   5.442   2.638   6.395
 1893SOL    HW2 7577   5.323   2.731   6.386
 1894SOL     OW 7578  14.482  11.055   7.237
 1894SOL    HW1 7579  14.465  11.009   7.154
 1894SOL    HW2 7580  14.491  11.146   7.211
 1895SOL     OW 7581  11.671   7.011   6.761
 1895SOL    HW1 7582  11.595   7.052   6.803
 1895SOL    HW2 7583  11.704   7.077   6.701
 1896SOL     OW 7584  12.522   3.851   6.265
 1896SOL    HW1 7585  12.487   3.771   6.225
 1896SOL    HW2 7586  12.539   3.827   6.356
 1897SOL     OW 7587   2.890   5.371   5.346
 1897SOL    HW1 7588   2.934   5.338   5.268
 1897SOL    HW2 7589   2.882   5.466   5.330
 1898SOL     OW 7590  13.702  14.830   2.974
 1898SOL    HW1 7591  13.758   0.017   3.030
 1898SOL    HW2 7592  13.634   0.022   2.944
 1899SOL     OW 7593   1.701   3.024  13.979
 1899SOL    HW1 7594   1.751   3.015  14.060
 1899SOL    HW2 7595   1.767   3.043  13.912
 1900SOL     OW 7596   8.736   3.481  11.389
 1900SOL    HW1 7597   8.652   3.526  11.400
 1900SOL    HW2 7598   8.762   3.500  11.299
 1901SOL     OW 7599   3.571   4.234   9.808
 1901SOL    HW1 7600   3.524   4.177   9.870
 1901SOL    HW2 7601   3.634   4.282   9.862
 1902SOL     OW 7602   0.767  13.271   2.144
 1902SOL    HW1 7603   0.854  13.310   2.137
 1902SOL    HW2 7604   0.754  13.258   2.238
 1903SOL     OW 7605   4.905  14.162  12.748
 1903SOL    HW1 7606   4.903  14.098  12.820
 1903SOL    HW2 7607   4.957  14.235  12.782
 1904SOL     OW 7608   1.587  12.419  10.648
 1904SOL    HW1 7609   1.536  12.447  10.723
 1904SOL    HW2 7610   1.665  12.475  10.650
 1905SOL     OW 7611   0.066   2.909  13.197
 1905SOL    HW1 7612   0.036   2.941  13.112
 1905SOL    HW2 7613   0.043   2.816  13.197
 1906SOL     OW 7614  10.267   9.515   2.436
 1906SOL    HW1 7615  10.272   9.582   2.368
 1906SOL    HW2 7616  10.315   9.441   2.401
 1907SOL     OW 7617   2.723   8.640  13.199
 1907SOL    HW1 7618   2.784   8.586  13.250
 1907SOL    HW2 7619   2.637   8.617  13.234
 1908SOL     OW 7620  13.890   3.085  13.739
 1908SOL    HW1 7621  13.959   3.069  13.803
 1908SOL    HW2 7622  13.918   3.163  13.692
 1909SOL     OW 7623  10.177   4.976  12.889
 1909SOL    HW1 7624  10.199   4.916  12.961
 1909SOL    HW2 7625  10.082   4.979  12.888
 1910SOL     OW 7626  13.123   2.626  13.474
 1910SOL    HW1 7627  13.197   2.599  13.420
 1910SOL    HW2 7628  13.083   2.698  13.426
 1911SOL     OW 7629   0.599   3.488   3.915
 1911SOL    HW1 7630   0.683   3.479   3.870
 1911SOL    HW2 7631   0.534   3.473   3.846
 1912SOL     OW 7632  13.692   8.222  14.783
 1912SOL    HW1 7633  13.739   8.141  14.804
 1912SOL    HW2 7634  13.699   8.275  14.862
 1913SOL     OW 7635   3.478   6.924   7.334
 1913SOL    HW1 7636   3.547   6.966   7.386
 1913SOL    HW2 7637   3.401   6.980   7.346
 1914SOL     OW 7638   7.446   8.576   1.647
 1914SOL    HW1 7639   7.506   8.650   1.650
 1914SOL    HW2 7640   7.422   8.560   1.738
 1915SOL     OW 7641  10.164   7.477   1.528
 1915SOL    HW1 7642  10.123   7.408   1.475
 1915SOL    HW2 7643  10.096   7.544   1.535
 1916SOL     OW 7644   6.758  10.985   3.037
 1916SOL    HW1 7645   6.721  11.028   2.960
 1916SOL    HW2 7646   6.696  10.915   3.057
 1917SOL     OW 7647   1.059   8.300  13.608
 1917SOL    HW1 7648   1.126   8.348  13.560
 1917SOL    HW2 7649   0.986   8.292  13.545
 1918SOL     OW 7650  14.425  14.838  14.211
 1918SOL    HW1 7651  14.353   0.032  14.201
 1918SOL    HW2 7652  14.402  14.765  14.154
 1919SOL     OW 7653   2.493  10.173  10.359
 1919SOL    HW1 7654   2.549  10.122  10.417
 1919SOL    HW2 7655   2.467  10.112  10.290
 1920SOL     OW 7656  14.304   7.147   4.208
 1920SOL    HW1 7657  14.327   7.055   4.218
 1920SOL    HW2 7658  14.314   7.164   4.114
 1921SOL     OW 7659   9.855   2.488  10.696
 1921SOL    HW1 7660   9.925   2.518  10.638
 1921SOL    HW2 7661   9.900   2.433  10.761
 1922SOL     OW 7662   4.119  13.822   8.281
 1922SOL    HW1 7663   4.082  13.829   8.193
 1922SOL    HW2 7664   4.207  13.859   8.273
 1923SOL     OW 7665   0.865   1.210  10.989
 1923SOL    HW1 7666   0.770   1.216  10.992
 1923SOL    HW2 7667   0.888   1.234  10.899
 1924SOL     OW 7668   3.529   6.158   3.034
 1924SOL    HW1 7669   3.566   6.170   3.122
 1924SOL    HW2 7670   3.604   6.170   2.975
 1925SOL     OW 7671  12.101   3.165   6.801
 1925SOL    HW1 7672  12.070   3.247   6.839
 1925SOL    HW2 7673  12.022   3.116   6.782
 1926SOL     OW 7674   4.434   1.895   0.971
 1926SOL    HW1 7675   4.400   1.809   0.948
 1926SOL    HW2 7676   4.358   1.953   0.964
 1927SOL     OW 7677  10.742   5.359   9.951
 1927SOL    HW1 7678  10.662   5.411   9.953
 1927SOL    HW2 7679  10.712   5.268   9.953
 1928SOL     OW 7680   8.862  13.015   0.413
 1928SOL    HW1 7681   8.935  12.988   0.357
 1928SOL    HW2 7682   8.811  13.075   0.359
 1929SOL     OW 7683  11.000   4.951  13.620
 1929SOL    HW1 7684  10.973   4.868  13.659
 1929SOL    HW2 7685  11.081   4.974  13.666
 1930SOL     OW 7686   8.245  13.487   6.804
 1930SOL    HW1 7687   8.330  13.444   6.800
 1930SOL    HW2 7688   8.264  13.572   6.844
 1931SOL     OW 7689   3.676  12.358   8.991
 1931SOL    HW1 7690   3.751  12.414   8.974
 1931SOL    HW2 7691   3.681  12.290   8.924
 1932SOL     OW 7692   1.280   4.584   7.598
 1932SOL    HW1 7693   1.272   4.665   7.548
 1932SOL    HW2 7694   1.328   4.525   7.540
 1933SOL     OW 7695   2.625   1.854  10.128
 1933SOL    HW1 7696   2.588   1.810  10.052
 1933SOL    HW2 7697   2.628   1.947  10.103
 1934SOL     OW 7698   1.598   2.475   3.016
 1934SOL    HW1 7699   1.620   2.460   3.108
 1934SOL    HW2 7700   1.654   2.414   2.968
 1935SOL     OW 7701   5.193  12.016  12.964
 1935SOL    HW1 7702   5.284  12.040  12.984
 1935SOL    HW2 7703   5.195  11.921  12.953
 1936SOL     OW 7704   6.085   2.222   7.726
 1936SOL    HW1 7705   6.067   2.309   7.761
 1936SOL    HW2 7706   6.178   2.209   7.740
 1937SOL     OW 7707   5.799   0.103  10.862
 1937SOL    HW1 7708   5.706   0.082  10.862
 1937SOL    HW2 7709   5.833   0.062  10.941
 1938SOL     OW 7710  12.270  10.181   5.430
 1938SOL    HW1 7711  12.324  10.104   5.414
 1938SOL    HW2 7712  12.316  10.229   5.499
 1939SOL     OW 7713  10.591   4.705  11.290
 1939SOL    HW1 7714  10.646   4.773  11.252
 1939SOL    HW2 7715  10.621   4.624  11.248
 1940SOL     OW 7716  10.565   0.795   0.000
 1940SOL    HW1 7717  10.489   0.798   0.059
 1940SOL    HW2 7718  10.591   0.886  14.858
 1941SOL     OW 7719   5.510   0.865   8.623
 1941SOL    HW1 7720   5.518   0.770   8.624
 1941SOL    HW2 7721   5.600   0.897   8.625
 1942SOL     OW 7722   2.769   4.000   8.455
 1942SOL    HW1 7723   2.676   3.985   8.470
 1942SOL    HW2 7724   2.809   3.991   8.541
 1943SOL     OW 7725   2.418   1.124   9.516
 1943SOL    HW1 7726   2.329   1.108   9.549
 1943SOL    HW2 7727   2.475   1.090   9.585
 1944SOL     OW 7728  11.294   1.917   1.438
 1944SOL    HW1 7729  11.296   1.824   1.460
 1944SOL    HW2 7730  11.252   1.959   1.513
 1945SOL     OW 7731   8.278   4.315   2.913
 1945SOL    HW1 7732   8.290   4.406   2.938
 1945SOL    HW2 7733   8.360   4.272   2.937
 1946SOL     OW 7734   1.851   6.431  14.706
 1946SOL    HW1 7735   1.810   6.429  14.792
 1946SOL    HW2 7736   1.875   6.339  14.689
 1947SOL     OW 7737  10.692   4.577   6.167
 1947SOL    HW1 7738  10.652   4.492   6.185
 1947SOL    HW2 7739  10.779   4.556   6.132
 1948SOL     OW 7740  13.684   5.302   8.981
 1948SOL    HW1 7741  13.658   5.389   8.949
 1948SOL    HW2 7742  13.665   5.243   8.908
 1949SOL     OW 7743  14.055   6.037  10.286
 1949SOL    HW1 7744  13.990   5.980  10.327
 1949SOL    HW2 7745  14.004   6.091  10.225
 1950SOL     OW 7746   3.197   1.235  10.754
 1950SOL    HW1 7747   3.170   1.143  10.756
 1950SOL    HW2 7748   3.238   1.249  10.839
 1951SOL     OW 7749  10.335  12.797   9.020
 1951SOL    HW1 7750  10.342  12.792   9.115
 1951SOL    HW2 7751  10.275  12.870   9.003
 1952SOL     OW 7752   0.854   8.891   3.015
 1952SOL    HW1 7753   0.864   8.891   3.110
 1952SOL    HW2 7754   0.764   8.861   2.999
 1953SOL     OW 7755   4.148   4.245   1.330
 1953SOL    HW1 7756   4.053   4.237   1.325
 1953SOL    HW2 7757   4.175   4.269   1.241
 1954SOL     OW 7758   9.783  13.783   7.028
 1954SOL    HW1 7759   9.728  13.752   6.956
 1954SOL    HW2 7760   9.847  13.840   6.987
 1955SOL     OW 7761   9.920   0.487  12.488
 1955SOL    HW1 7762   9.891   0.563  12.538
 1955SOL    HW2 7763   9.840   0.452  12.449
 1956SOL     OW 7764   0.733  11.104   5.540
 1956SOL    HW1 7765   0.668  11.135   5.604
 1956SOL    HW2 7766   0.817  11.109   5.587
 1957SOL     OW 7767   2.057   0.940   3.162
 1957SOL    HW1 7768   2.112   0.862   3.155
 1957SOL    HW2 7769   1.979   0.919   3.110
 1958SOL     OW 7770   4.133   1.205   7.969
 1958SOL    HW1 7771   4.179   1.289   7.961
 1958SOL    HW2 7772   4.176   1.148   7.904
 1959SOL     OW 7773   1.638  10.793   0.855
 1959SOL    HW1 7774   1.548  10.769   0.874
 1959SOL    HW2 7775   1.641  10.806   0.760
 1960SOL     OW 7776   9.970   9.515  10.036
 1960SOL    HW1 7777   9.967   9.610  10.028
 1960SOL    HW2 7778   9.924   9.483   9.958
 1961SOL     OW 7779   7.015   6.027   8.176
 1961SOL    HW1 7780   6.993   6.120   8.179
 1961SOL    HW2 7781   7.044   6.013   8.086
 1962SOL     OW 7782  10.794  12.758   2.515
 1962SOL    HW1 7783  10.730  12.745   2.445
 1962SOL    HW2 7784  10.746  12.741   2.596
 1963SOL     OW 7785  13.169   1.395  11.978
 1963SOL    HW1 7786  13.206   1.368  11.893
 1963SOL    HW2 7787  13.246   1.415  12.032
 1964SOL     OW 7788   4.822   3.129   4.408
 1964SOL    HW1 7789   4.757   3.082   4.460
 1964SOL    HW2 7790   4.815   3.220   4.438
 1965SOL     OW 7791   9.246   8.057   8.738
 1965SOL    HW1 7792   9.324   8.001   8.743
 1965SOL    HW2 7793   9.239   8.080   8.646
 1966SOL     OW 7794   8.276   4.078   5.254
 1966SOL    HW1 7795   8.282   4.083   5.159
 1966SOL    HW2 7796   8.186   4.106   5.274
 1967SOL     OW 7797   4.676   6.383   3.783
 1967SOL    HW1 7798   4.691   6.409   3.874
 1967SOL    HW2 7799   4.757   6.339   3.757
 1968SOL     OW 7800   6.532  12.152  14.145
 1968SOL    HW1 7801   6.498  12.071  14.106
 1968SOL    HW2 7802   6.454  12.200  14.173
 1969SOL     OW 7803   8.380   8.644  10.866
 1969SOL    HW1 7804   8.435   8.566  10.874
 1969SOL    HW2 7805   8.306   8.627  10.924
 1970SOL     OW 7806   1.331   8.620   0.505
 1970SOL    HW1 7807   1.343   8.529   0.479
 1970SOL    HW2 7808   1.350   8.621   0.599
 1971SOL     OW 7809  13.967  13.505  14.728
 1971SOL    HW1 7810  13.934  13.589  14.696
 1971SOL    HW2 7811  13.929  13.497  14.816
 1972SOL     OW 7812   7.151   8.358   7.616
 1972SOL    HW1 7813   7.178   8.308   7.539
 1972SOL    HW2 7814   7.224   8.350   7.677
 1973SOL     OW 7815  11.332  14.315   9.770
 1973SOL    HW1 7816  11.396  14.305   9.841
 1973SOL    HW2 7817  11.360  14.394   9.724
 1974SOL     OW 7818   5.949  14.158   6.843
 1974SOL    HW1 7819   5.938  14.102   6.920
 1974SOL    HW2 7820   5.860  14.183   6.819
 1975SOL     OW 7821  14.867   1.788  10.562
 1975SOL    HW1 7822  14.860   1.860  10.500
 1975SOL    HW2 7823   0.014   1.831  10.647
 1976SOL     OW 7824  14.006  11.834   6.140
 1976SOL    HW1 7825  14.019  11.784   6.221
 1976SOL    HW2 7826  13.916  11.815   6.114
 1977SOL     OW 7827  12.013   6.311   8.287
 1977SOL    HW1 7828  12.068   6.326   8.210
 1977SOL    HW2 7829  12.063   6.345   8.360
 1978SOL     OW 7830   4.044  12.779  12.677
 1978SOL    HW1 7831   3.958  12.743  12.655
 1978SOL    HW2 7832   4.044  12.866  12.638
 1979SOL     OW 7833   0.711   0.175   1.645
 1979SOL    HW1 7834   0.619   0.171   1.669
 1979SOL    HW2 7835   0.757   0.132   1.717
 1980SOL     OW 7836  13.266   7.655  12.209
 1980SOL    HW1 7837  13.235   7.568  12.235
 1980SOL    HW2 7838  13.358   7.640  12.185
 1981SOL     OW 7839   6.758   3.937   3.205
 1981SOL    HW1 7840   6.814   3.905   3.134
 1981SOL    HW2 7841   6.805   4.014   3.239
 1982SOL     OW 7842   5.996  14.198   2.505
 1982SOL    HW1 7843   5.996  14.103   2.510
 1982SOL    HW2 7844   6.069  14.219   2.447
 1983SOL     OW 7845  10.969   8.072   5.889
 1983SOL    HW1 7846  10.947   8.097   5.799
 1983SOL    HW2 7847  10.949   8.150   5.941
 1984SOL     OW 7848  14.420   3.536   7.880
 1984SOL    HW1 7849  14.397   3.598   7.949
 1984SOL    HW2 7850  14.358   3.464   7.891
 1985SOL     OW 7851   1.689  11.807   9.589
 1985SOL    HW1 7852   1.763  11.766   9.544
 1985SOL    HW2 7853   1.674  11.751   9.665
 1986SOL     OW 7854  14.806  14.635   6.741
 1986SOL    HW1 7855  14.788  14.542   6.755
 1986SOL    HW2 7856   0.013  14.654   6.798
 1987SOL     OW 7857   3.738   4.356   0.234
 1987SOL    HW1 7858   3.706   4.441   0.262
 1987SOL    HW2 7859   3.670   4.323   0.175
 1988SOL     OW 7860   7.822   1.819   2.325
 1988SOL    HW1 7861   7.860   1.903   2.353
 1988SOL    HW2 7862   7.824   1.764   2.403
 1989SOL     OW 7863   1.080   1.947   0.460
 1989SOL    HW1 7864   1.098   1.982   0.373
 1989SOL    HW2 7865   1.120   2.009   0.520
 1990SOL     OW 7866   3.195  12.682   2.349
 1990SOL    HW1 7867   3.139  12.675   2.271
 1990SOL    HW2 7868   3.154  12.623   2.412
 1991SOL     OW 7869   9.054   9.046  13.785
 1991SOL    HW1 7870   9.020   8.958  13.772
 1991SOL    HW2 7871   9.060   9.083  13.697
 1992SOL     OW 7872  11.035   7.391  10.313
 1992SOL    HW1 7873  11.039   7.485  10.330
 1992SOL    HW2 7874  11.108   7.354  10.363
 1993SOL     OW 7875   5.688   8.384   7.815
 1993SOL    HW1 7876   5.684   8.372   7.909
 1993SOL    HW2 7877   5.683   8.295   7.779
 1994SOL     OW 7878  13.512   0.304   0.814
 1994SOL    HW1 7879  13.482   0.280   0.902
 1994SOL    HW2 7880  13.528   0.220   0.771
 1995SOL     OW 7881  11.148   2.584   0.459
 1995SOL    HW1 7882  11.124   2.554   0.372
 1995SOL    HW2 7883  11.117   2.675   0.462
 1996SOL     OW 7884   6.662   9.516  12.065
 1996SOL    HW1 7885   6.599   9.514  12.137
 1996SOL    HW2 7886   6.684   9.609  12.055
 1997SOL     OW 7887  13.047  12.108   9.694
 1997SOL    HW1 7888  13.049  12.166   9.770
 1997SOL    HW2 7889  13.051  12.020   9.732
 1998SOL     OW 7890  10.394  10.655  14.148
 1998SOL    HW1 7891  10.437  10.637  14.064
 1998SOL    HW2 7892  10.457  10.708  14.196
 1999SOL     OW 7893  13.635   7.669   9.260
 1999SOL    HW1 7894  13.592   7.606   9.202
 1999SOL    HW2 7895  13.599   7.651   9.347
 2000SOL     OW 7896   2.562  11.659   7.304
 2000SOL    HW1 7897   2.563  11.718   7.379
 2000SOL    HW2 7898   2.499  11.698   7.244
 2001SOL     OW 7899   3.747   4.769  14.121
 2001SOL    HW1 7900   3.694   4.693  14.098
 2001SOL    HW2 7901   3.803   4.783  14.045
 2002SOL     OW 7902   3.582  12.267   4.611
 2002SOL    HW1 7903   3.570  12.174   4.628
 2002SOL    HW2 7904   3.509  12.291   4.554
 2003SOL     OW 7905   2.662  13.050   4.425
 2003SOL    HW1 7906   2.699  13.073   4.340
 2003SOL    HW2 7907   2.630  12.961   4.414
 2004SOL     OW 7908   3.359   2.008   7.377
 2004SOL    HW1 7909   3.327   2.086   7.332
 2004SOL    HW2 7910   3.386   1.949   7.307
 2005SOL     OW 7911  12.805   6.135   9.635
 2005SOL    HW1 7912  12.888   6.177   9.656
 2005SOL    HW2 7913  12.821   6.042   9.650
 2006SOL     OW 7914   4.554  14.641   6.641
 2006SOL    HW1 7915   4.532  14.719   6.692
 2006SOL    HW2 7916   4.493  14.574   6.672
 2007SOL     OW 7917   5.320  10.638   4.755
 2007SOL    HW1 7918   5.242  10.626   4.809
 2007SOL    HW2 7919   5.287  10.630   4.665
 2008SOL     OW 7920   0.457   5.597   4.268
 2008SOL    HW1 7921   0.446   5.502   4.277
 2008SOL    HW2 7922   0.543   5.615   4.305
 2009SOL     OW 7923   0.605   4.447  11.968
 2009SOL    HW1 7924   0.684   4.482  11.926
 2009SOL    HW2 7925   0.634   4.420  12.055
 2010SOL     OW 7926   4.812   6.952   3.753
 2010SOL    HW1 7927   4.769   6.867   3.757
 2010SOL    HW2 7928   4.752   7.006   3.701
 2011SOL     OW 7929  11.819  14.571   3.471
 2011SOL    HW1 7930  11.748  14.623   3.433
 2011SOL    HW2 7931  11.785  14.481   3.472
 2012SOL     OW 7932   1.664   7.391   6.231
 2012SOL    HW1 7933   1.680   7.349   6.315
 2012SOL    HW2 7934   1.576   7.428   6.239
 2013SOL     OW 7935   6.274  14.524   2.006
 2013SOL    HW1 7936   6.182  14.509   1.985
 2013SOL    HW2 7937   6.308  14.437   2.028
 2014SOL     OW 7938  10.886  11.592   3.994
 2014SOL    HW1 7939  10.914  11.502   3.978
 2014SOL    HW2 7940  10.855  11.623   3.909
 2015SOL     OW 7941  10.602  12.135  11.246
 2015SOL    HW1 7942  10.674  12.168  11.193
 2015SOL    HW2 7943  10.618  12.040  11.252
 2016SOL     OW 7944  11.990  12.474   2.859
 2016SOL    HW1 7945  12.062  12.464   2.922
 2016SOL    HW2 7946  12.019  12.426   2.782
 2017SOL     OW 7947   9.636  12.449   6.528
 2017SOL    HW1 7948   9.730  12.465   6.530
 2017SOL    HW2 7949   9.614  12.428   6.619
 2018SOL     OW 7950   9.081   3.582   9.555
 2018SOL    HW1 7951   9.071   3.516   9.486
 2018SOL    HW2 7952   9.176   3.589   9.568
 2019SOL     OW 7953   5.410  12.112   3.088
 2019SOL    HW1 7954   5.348  12.064   3.033
 2019SOL    HW2 7955   5.418  12.198   3.045
 2020SOL     OW 7956  13.868   5.966  13.909
 2020SOL    HW1 7957  13.922   5.888  13.924
 2020SOL    HW2 7958  13.908   6.009  13.833
 2021SOL     OW 7959  12.811   9.113   9.130
 2021SOL    HW1 7960  12.847   9.125   9.042
 2021SOL    HW2 7961  12.811   9.019   9.143
 2022SOL     OW 7962   1.114  14.132  10.003
 2022SOL    HW1 7963   1.049  14.181   9.954
 2022SOL    HW2 7964   1.175  14.099   9.936
 2023SOL     OW 7965   0.894  12.735  11.474
 2023SOL    HW1 7966   0.970  12.750  11.532
 2023SOL    HW2 7967   0.851  12.658  11.510
 2024SOL     OW 7968  14.601   0.455   6.796
 2024SOL    HW1 7969  14.621   0.548   6.780
 2024SOL    HW2 7970  14.582   0.420   6.709
 2025SOL     OW 7971   7.343  10.060  14.221
 2025SOL    HW1 7972   7.385   9.977  14.198
 2025SOL    HW2 7973   7.379  10.082  14.307
 2026SOL     OW 7974   0.267   0.189  12.416
 2026SOL    HW1 7975   0.352   0.192  12.460
 2026SOL    HW2 7976   0.204   0.204  12.486
 2027SOL     OW 7977   2.237   5.401  14.556
 2027SOL    HW1 7978   2.274   5.485  14.528
 2027SOL    HW2 7979   2.242   5.345  14.478
 2028SOL     OW 7980   9.167   0.492   6.688
 2028SOL    HW1 7981   9.256   0.470   6.714
 2028SOL    HW2 7982   9.141   0.564   6.746
 2029SOL     OW 7983   6.861   5.018  13.722
 2029SOL    HW1 7984   6.926   5.016  13.792
 2029SOL    HW2 7985   6.907   4.983  13.646
 2030SOL     OW 7986   9.044  14.862   7.671
 2030SOL    HW1 7987   9.079  14.779   7.703
 2030SOL    HW2 7988   9.120   0.041   7.638
 2031SOL     OW 7989   9.115  10.736   1.078
 2031SOL    HW1 7990   9.057  10.668   1.045
 2031SOL    HW2 7991   9.068  10.818   1.059
 2032SOL     OW 7992   1.299   3.773   8.028
 2032SOL    HW1 7993   1.290   3.869   8.030
 2032SOL    HW2 7994   1.385   3.757   8.066
 2033SOL     OW 7995   9.568  11.552   9.866
 2033SOL    HW1 7996   9.514  11.512   9.797
 2033SOL    HW2 7997   9.550  11.499   9.943
 2034SOL     OW 7998   8.510   9.731   6.078
 2034SOL    HW1 7999   8.488   9.639   6.068
 2034SOL    HW2 8000   8.605   9.734   6.074
 2035SOL     OW 8001  11.655  14.842   2.610
 2035SOL    HW1 8002  11.750  14.858   2.615
 2035SOL    HW2 8003  11.616   0.055   2.642
 2036SOL     OW 8004  12.949  14.267   4.466
 2036SOL    HW1 8005  12.989  14.295   4.548
 2036SOL    HW2 8006  12.944  14.171   4.473
 2037SOL     OW 8007   9.515   2.019   8.103
 2037SOL    HW1 8008   9.575   1.984   8.168
 2037SOL    HW2 8009   9.505   1.949   8.039
 2038SOL     OW 8010   3.720  13.838   5.882
 2038SOL    HW1 8011   3.733  13.911   5.942
 2038SOL    HW2 8012   3.647  13.865   5.827
 2039SOL     OW 8013   2.223   7.215   0.396
 2039SOL    HW1 8014   2.144   7.263   0.420
 2039SOL    HW2 8015   2.293   7.254   0.449
 2040SOL     OW 8016   8.512   8.217   0.802
 2040SOL    HW1 8017   8.577   8.157   0.839
 2040SOL    HW2 8018   8.442   8.160   0.770
 2041SOL     OW 8019   6.134  11.873   4.048
 2041SOL    HW1 8020   6.093  11.867   4.134
 2041SOL    HW2 8021   6.146  11.782   4.021
 2042SOL     OW 8022  14.052  11.420   8.654
 2042SOL    HW1 8023  13.976  11.373   8.688
 2042SOL    HW2 8024  14.019  11.463   8.574
 2043SOL     OW 8025   5.875   0.009   4.933
 2043SOL    HW1 8026   5.781   0.020   4.918
 2043SOL    HW2 8027   5.902  14.813   4.867
 2044SOL     OW 8028   5.866   7.595  11.413
 2044SOL    HW1 8029   5.906   7.584  11.499
 2044SOL    HW2 8030   5.827   7.682  11.415
 2045SOL     OW 8031  14.688   0.137  11.807
 2045SOL    HW1 8032  14.734   0.054  11.796
 2045SOL    HW2 8033  14.622   0.138  11.738
 2046SOL     OW 8034   1.437  11.468   4.245
 2046SOL    HW1 8035   1.472  11.411   4.177
 2046SOL    HW2 8036   1.467  11.430   4.327
 2047SOL     OW 8037   2.942   8.937   2.289
 2047SOL    HW1 8038   2.850   8.964   2.289
 2047SOL    HW2 8039   2.991   9.019   2.295
 2048SOL     OW 8040  13.889  10.299  10.834
 2048SOL    HW1 8041  13.872  10.207  10.854
 2048SOL    HW2 8042  13.802  10.339  10.826
 2049SOL     OW 8043   6.884   5.619  14.468
 2049SOL    HW1 8044   6.963   5.565  14.463
 2049SOL    HW2 8045   6.904   5.685  14.534
 2050SOL     OW 8046   4.260   0.051   8.438
 2050SOL    HW1 8047   4.341   0.066   8.486
 2050SOL    HW2 8048   4.200   0.013   8.503
 2051SOL     OW 8049   6.702   8.563  11.864
 2051SOL    HW1 8050   6.765   8.632  11.841
 2051SOL    HW2 8051   6.757   8.488  11.888
 2052SOL     OW 8052   8.820   7.120  10.254
 2052SOL    HW1 8053   8.832   7.053  10.187
 2052SOL    HW2 8054   8.902   7.119  10.304
 2053SOL     OW 8055   9.371   0.990  14.637
 2053SOL    HW1 8056   9.418   1.057  14.688
 2053SOL    HW2 8057   9.291   1.033  14.609
 2054SOL     OW 8058   5.840   2.947   7.486
 2054SOL    HW1 8059   5.861   3.001   7.562
 2054SOL    HW2 8060   5.818   3.011   7.417
 2055SOL     OW 8061   3.666   9.659  11.635
 2055SOL    HW1 8062   3.623   9.628  11.555
 2055SOL    HW2 8063   3.672   9.581  11.691
 2056SOL     OW 8064  12.411  14.752  13.464
 2056SOL    HW1 8065  12.468  14.738  13.539
 2056SOL    HW2 8066  12.470  14.777  13.393
 2057SOL     OW 8067  10.348   5.655   4.961
 2057SOL    HW1 8068  10.321   5.573   5.004
 2057SOL    HW2 8069  10.284   5.667   4.891
 2058SOL     OW 8070   7.483   8.628   8.743
 2058SOL    HW1 8071   7.410   8.581   8.702
 2058SOL    HW2 8072   7.487   8.592   8.831
 2059SOL     OW 8073  12.173   7.246  14.740
 2059SOL    HW1 8074  12.199   7.188  14.812
 2059SOL    HW2 8075  12.164   7.188  14.665
 2060SOL     OW 8076   3.022   9.713  14.177
 2060SOL    HW1 8077   3.102   9.725  14.228
 2060SOL    HW2 8078   2.952   9.743  14.235
 2061SOL     OW 8079   9.766   5.847   4.980
 2061SOL    HW1 8080   9.777   5.940   5.000
 2061SOL    HW2 8081   9.715   5.813   5.053
 2062SOL     OW 8082   5.330   9.188  14.211
 2062SOL    HW1 8083   5.402   9.127  14.197
 2062SOL    HW2 8084   5.253   9.132  14.221
 2063SOL     OW 8085  13.449   4.496  13.992
 2063SOL    HW1 8086  13.530   4.490  14.042
 2063SOL    HW2 8087  13.413   4.408  13.993
 2064SOL     OW 8088   9.181  10.408   1.007
 2064SOL    HW1 8089   9.175  10.384   1.099
 2064SOL    HW2 8090   9.254  10.470   1.003
 2065SOL     OW 8091   7.101  10.694   4.440
 2065SOL    HW1 8092   7.084  10.612   4.393
 2065SOL    HW2 8093   7.098  10.669   4.532
 2066SOL     OW 8094  13.850  10.169   6.069
 2066SOL    HW1 8095  13.905  10.102   6.029
 2066SOL    HW2 8096  13.909  10.215   6.129
 2067SOL     OW 8097  10.584   9.617  10.074
 2067SOL    HW1 8098  10.604   9.711  10.081
 2067SOL    HW2 8099  10.491   9.611  10.098
 2068SOL     OW 8100  14.494   1.801  10.702
 2068SOL    HW1 8101  14.410   1.785  10.747
 2068SOL    HW2 8102  14.559   1.757  10.756
 2069SOL     OW 8103   5.433   5.750   2.276
 2069SOL    HW1 8104   5.527   5.750   2.259
 2069SOL    HW2 8105   5.405   5.840   2.258
 2070SOL     OW 8106   2.574  14.791   9.968
 2070SOL    HW1 8107   2.635  14.819  10.036
 2070SOL    HW2 8108   2.629  14.748   9.902
 2071SOL     OW 8109   2.483   7.312  11.371
 2071SOL    HW1 8110   2.497   7.401  11.339
 2071SOL    HW2 8111   2.422   7.273  11.309
 2072SOL     OW 8112   3.635  13.304   9.794
 2072SOL    HW1 8113   3.716  13.314   9.844
 2072SOL    HW2 8114   3.637  13.376   9.731
 2073SOL     OW 8115   1.383   9.932  12.769
 2073SOL    HW1 8116   1.429   9.998  12.820
 2073SOL    HW2 8117   1.436   9.853  12.779
 2074SOL     OW 8118   9.465   3.485  12.865
 2074SOL    HW1 8119   9.408   3.554  12.833
 2074SOL    HW2 8120   9.534   3.478  12.799
 2075SOL     OW 8121  11.753   4.927  11.548
 2075SOL    HW1 8122  11.672   4.901  11.591
 2075SOL    HW2 8123  11.792   4.992  11.606
 2076SOL     OW 8124  11.969  10.077   8.266
 2076SOL    HW1 8125  11.969  10.160   8.313
 2076SOL    HW2 8126  11.998  10.013   8.331
 2077SOL     OW 8127   9.449   1.213  12.381
 2077SOL    HW1 8128   9.488   1.294  12.414
 2077SOL    HW2 8129   9.391   1.184  12.451
 2078SOL     OW 8130   1.589   7.633  10.719
 2078SOL    HW1 8131   1.519   7.584  10.676
 2078SOL    HW2 8132   1.670   7.590  10.690
 2079SOL     OW 8133   5.900   7.344   9.494
 2079SOL    HW1 8134   5.828   7.315   9.552
 2079SOL    HW2 8135   5.869   7.426   9.457
 2080SOL     OW 8136  10.837  11.864  13.325
 2080SOL    HW1 8137  10.901  11.871  13.396
 2080SOL    HW2 8138  10.859  11.783  13.280
 2081SOL     OW 8139   8.030   8.176   1.240
 2081SOL    HW1 8140   8.034   8.245   1.175
 2081SOL    HW2 8141   8.065   8.098   1.195
 2082SOL     OW 8142   1.710   1.091   7.881
 2082SOL    HW1 8143   1.796   1.056   7.906
 2082SOL    HW2 8144   1.648   1.026   7.914
 2083SOL     OW 8145   3.957  13.699   2.909
 2083SOL    HW1 8146   3.873  13.690   2.953
 2083SOL    HW2 8147   4.022  13.693   2.979
 2084SOL     OW 8148  10.952   1.551   9.359
 2084SOL    HW1 8149  10.992   1.479   9.409
 2084SOL    HW2 8150  10.923   1.613   9.426
 2085SOL     OW 8151   1.827  12.891   7.664
 2085SOL    HW1 8152   1.799  12.936   7.743
 2085SOL    HW2 8153   1.918  12.918   7.652
 2086SOL     OW 8154   1.275   0.386  11.839
 2086SOL    HW1 8155   1.345   0.373  11.774
 2086SOL    HW2 8156   1.253   0.479  11.833
 2087SOL     OW 8157  11.288   8.503   7.670
 2087SOL    HW1 8158  11.307   8.417   7.708
 2087SOL    HW2 8159  11.220   8.540   7.726
 2088SOL     OW 8160   0.669   6.196   1.337
 2088SOL    HW1 8161   0.623   6.158   1.263
 2088SOL    HW2 8162   0.681   6.288   1.313
 2089SOL     OW 8163  10.061   5.668  10.496
 2089SOL    HW1 8164  10.037   5.577  10.479
 2089SOL    HW2 8165  10.002   5.695  10.567
 2090SOL     OW 8166   4.506   8.719   9.067
 2090SOL    HW1 8167   4.511   8.724   8.972
 2090SOL    HW2 8168   4.426   8.668   9.084
 2091SOL     OW 8169   9.518   9.643   1.312
 2091SOL    HW1 8170   9.436   9.662   1.266
 2091SOL    HW2 8171   9.560   9.575   1.260
 2092SOL     OW 8172   0.225   6.482   4.816
 2092SOL    HW1 8173   0.240   6.469   4.722
 2092SOL    HW2 8174   0.313   6.486   4.853
 2093SOL     OW 8175   6.840   1.055   7.976
 2093SOL    HW1 8176   6.783   1.077   8.050
 2093SOL    HW2 8177   6.887   0.977   8.005
 2094SOL     OW 8178  13.716   4.889  10.644
 2094SOL    HW1 8179  13.724   4.895  10.740
 2094SOL    HW2 8180  13.802   4.856  10.616
 2095SOL     OW 8181   9.536   6.245   9.289
 2095SOL    HW1 8182   9.459   6.200   9.323
 2095SOL    HW2 8183   9.506   6.286   9.208
 2096SOL     OW 8184   1.117  14.317  11.574
 2096SOL    HW1 8185   1.123  14.379  11.648
 2096SOL    HW2 8186   1.156  14.237  11.608
 2097SOL     OW 8187  11.622   6.037  11.294
 2097SOL    HW1 8188  11.671   6.119  11.287
 2097SOL    HW2 8189  11.554   6.043  11.227
 2098SOL     OW 8190   6.093  14.530   9.852
 2098SOL    HW1 8191   6.135  14.587   9.915
 2098SOL    HW2 8192   6.011  14.574   9.829
 2099SOL     OW 8193   0.428  11.358  11.840
 2099SOL    HW1 8194   0.520  11.371  11.817
 2099SOL    HW2 8195   0.413  11.264  11.831
 2100SOL     OW 8196  13.618   3.911  12.354
 2100SOL    HW1 8197  13.671   3.945  12.281
 2100SOL    HW2 8198  13.600   3.988  12.408
 2101SOL     OW 8199   6.698  13.026   1.651
 2101SOL    HW1 8200   6.691  13.074   1.733
 2101SOL    HW2 8201   6.781  13.055   1.613
 2102SOL     OW 8202  12.033   9.279   4.024
 2102SOL    HW1 8203  11.938   9.281   4.024
 2102SOL    HW2 8204  12.056   9.244   4.111
 2103SOL     OW 8205   5.670   9.609   0.637
 2103SOL    HW1 8206   5.685   9.630   0.729
 2103SOL    HW2 8207   5.585   9.647   0.617
 2104SOL     OW 8208   8.571   1.580  13.380
 2104SOL    HW1 8209   8.599   1.603  13.291
 2104SOL    HW2 8210   8.476   1.595  13.380
 2105SOL     OW 8211  11.539  13.711  13.073
 2105SOL    HW1 8212  11.471  13.764  13.033
 2105SOL    HW2 8213  11.586  13.672  12.998
 2106SOL     OW 8214   1.228  12.945   7.307
 2106SOL    HW1 8215   1.163  13.015   7.310
 2106SOL    HW2 8216   1.266  12.952   7.220
 2107SOL     OW 8217   4.255   2.095  11.794
 2107SOL    HW1 8218   4.319   2.133  11.735
 2107SOL    HW2 8219   4.195   2.167  11.813
 2108SOL     OW 8220   3.036  10.437   6.104
 2108SOL    HW1 8221   3.031  10.361   6.161
 2108SOL    HW2 8222   3.024  10.402   6.016
 2109SOL     OW 8223   7.645  13.524   0.014
 2109SOL    HW1 8224   7.714  13.590   0.015
 2109SOL    HW2 8225   7.655  13.477   0.097
 2110SOL     OW 8226   1.874   8.734   6.524
 2110SOL    HW1 8227   1.962   8.770   6.514
 2110SOL    HW2 8228   1.888   8.650   6.567
 2111SOL     OW 8229   7.545   0.676  12.449
 2111SOL    HW1 8230   7.511   0.764  12.467
 2111SOL    HW2 8231   7.467   0.623  12.431
 2112SOL     OW 8232   9.578  10.785   9.179
 2112SOL    HW1 8233   9.558  10.744   9.263
 2112SOL    HW2 8234   9.655  10.738   9.147
 2113SOL     OW 8235   6.194  12.155  12.925
 2113SOL    HW1 8236   6.123  12.095  12.950
 2113SOL    HW2 8237   6.152  12.241  12.921
 2114SOL     OW 8238   1.385   4.336  10.866
 2114SOL    HW1 8239   1.441   4.267  10.829
 2114SOL    HW2 8240   1.443   4.382  10.927
 2115SOL     OW 8241  12.716   3.936   9.584
 2115SOL    HW1 8242  12.710   4.027   9.614
 2115SOL    HW2 8243  12.781   3.896   9.642
 2116SOL     OW 8244   6.863   4.400  10.580
 2116SOL    HW1 8245   6.950   4.428  10.552
 2116SOL    HW2 8246   6.860   4.422  10.673
 2117SOL     OW 8247   9.082  10.608  14.733
 2117SOL    HW1 8248   9.176  10.616  14.717
 2117SOL    HW2 8249   9.067  10.514  14.736
 2118SOL     OW 8250  13.866   2.164   9.631
 2118SOL    HW1 8251  13.770   2.172   9.631
 2118SOL    HW2 8252  13.892   2.181   9.721
 2119SOL     OW 8253  11.050  13.960   1.915
 2119SOL    HW1 8254  11.145  13.966   1.925
 2119SOL    HW2 8255  11.026  14.037   1.865
 2120SOL     OW 8256   7.586   9.596   0.369
 2120SOL    HW1 8257   7.540   9.624   0.290
 2120SOL    HW2 8258   7.520   9.550   0.421
 2121SOL     OW 8259  13.853   9.777   6.003
 2121SOL    HW1 8260  13.932   9.831   6.005
 2121SOL    HW2 8261  13.783   9.838   5.979
 2122SOL     OW 8262  13.077  13.470   4.618
 2122SOL    HW1 8263  13.124  13.482   4.536
 2122SOL    HW2 8264  13.113  13.536   4.677
 2123SOL     OW 8265  13.147   2.176  10.603
 2123SOL    HW1 8266  13.169   2.265  10.578
 2123SOL    HW2 8267  13.091   2.185  10.680
 2124SOL     OW 8268  12.212   4.605   5.476
 2124SOL    HW1 8269  12.205   4.700   5.486
 2124SOL    HW2 8270  12.167   4.586   5.394
 2125SOL     OW 8271  13.769   5.141  10.556
 2125SOL    HW1 8272  13.682   5.170  10.527
 2125SOL    HW2 8273  13.753   5.055  10.596
 2126SOL     OW 8274   1.309  13.575   4.313
 2126SOL    HW1 8275   1.260  13.519   4.253
 2126SOL    HW2 8276   1.401  13.559   4.291
 2127SOL     OW 8277   3.638   0.242   8.905
 2127SOL    HW1 8278   3.572   0.308   8.922
 2127SOL    HW2 8279   3.655   0.203   8.991
 2128SOL     OW 8280  10.187   7.361  13.836
 2128SOL    HW1 8281  10.159   7.398  13.752
 2128SOL    HW2 8282  10.260   7.304  13.814
 2129SOL     OW 8283   4.572  12.513   0.759
 2129SOL    HW1 8284   4.482  12.535   0.783
 2129SOL    HW2 8285   4.563  12.447   0.690
 2130SOL     OW 8286   4.309   3.512   4.224
 2130SOL    HW1 8287   4.264   3.436   4.186
 2130SOL    HW2 8288   4.400   3.502   4.195
 2131SOL     OW 8289  12.619  10.270  11.111
 2131SOL    HW1 8290  12.701  10.308  11.080
 2131SOL    HW2 8291  12.601  10.198  11.051
 2132SOL     OW 8292   2.624   5.058   6.329
 2132SOL    HW1 8293   2.708   5.020   6.304
 2132SOL    HW2 8294   2.578   5.072   6.246
 2133SOL     OW 8295   1.478  11.762   7.755
 2133SOL    HW1 8296   1.536  11.702   7.707
 2133SOL    HW2 8297   1.532  11.794   7.827
 2134SOL     OW 8298   3.227   2.825  14.432
 2134SOL    HW1 8299   3.183   2.909  14.447
 2134SOL    HW2 8300   3.310   2.849  14.391
 2135SOL     OW 8301   5.955  10.260   5.811
 2135SOL    HW1 8302   5.964  10.337   5.756
 2135SOL    HW2 8303   5.861  10.254   5.830
 2136SOL     OW 8304  13.334   1.635  13.836
 2136SOL    HW1 8305  13.334   1.723  13.875
 2136SOL    HW2 8306  13.263   1.590  13.880
 2137SOL     OW 8307  12.152   0.579   6.383
 2137SOL    HW1 8308  12.085   0.519   6.414
 2137SOL    HW2 8309  12.130   0.594   6.291
 2138SOL     OW 8310   5.875   9.480   6.003
 2138SOL    HW1 8311   5.909   9.409   5.949
 2138SOL    HW2 8312   5.795   9.507   5.959
 2139SOL     OW 8313   8.767   7.644   9.672
 2139SOL    HW1 8314   8.832   7.688   9.727
 2139SOL    HW2 8315   8.803   7.649   9.584
 2140SOL     OW 8316   7.472   7.653  10.315
 2140SOL    HW1 8317   7.489   7.723  10.378
 2140SOL    HW2 8318   7.392   7.611  10.347
 2141SOL     OW 8319   5.075  14.552   9.626
 2141SOL    HW1 8320   5.047  14.490   9.694
 2141SOL    HW2 8321   5.166  14.528   9.609
 2142SOL     OW 8322  12.393  11.834   5.318
 2142SOL    HW1 8323  12.431  11.832   5.231
 2142SOL    HW2 8324  12.361  11.924   5.329
 2143SOL     OW 8325  12.750   9.097   0.248
 2143SOL    HW1 8326  12.663   9.126   0.274
 2143SOL    HW2 8327  12.735   9.010   0.209
 2144SOL     OW 8328   5.464   3.230   3.597
 2144SOL    HW1 8329   5.393   3.178   3.634
 2144SOL    HW2 8330   5.521   3.249   3.671
 2145SOL     OW 8331   3.518   7.305   2.776
 2145SOL    HW1 8332   3.531   7.211   2.764
 2145SOL    HW2 8333   3.578   7.346   2.714
 2146SOL     OW 8334   8.763  10.033   1.796
 2146SOL    HW1 8335   8.819   9.975   1.745
 2146SOL    HW2 8336   8.824  10.092   1.840
 2147SOL     OW 8337   7.957   2.648   7.148
 2147SOL    HW1 8338   7.955   2.713   7.077
 2147SOL    HW2 8339   7.994   2.570   7.108
 2148SOL     OW 8340   5.927  12.313   8.646
 2148SOL    HW1 8341   5.914  12.323   8.552
 2148SOL    HW2 8342   6.001  12.370   8.667
 2149SOL     OW 8343   2.808  12.462   6.977
 2149SOL    HW1 8344   2.726  12.437   6.935
 2149SOL    HW2 8345   2.781  12.506   7.058
 2150SOL     OW 8346  11.344   0.876   2.080
 2150SOL    HW1 8347  11.255   0.905   2.058
 2150SOL    HW2 8348  11.366   0.923   2.160
 2151SOL     OW 8349   2.872   4.762   9.856
 2151SOL    HW1 8350   2.935   4.711   9.806
 2151SOL    HW2 8351   2.845   4.832   9.796
 2152SOL     OW 8352   7.673   6.036  10.227
 2152SOL    HW1 8353   7.620   6.103  10.270
 2152SOL    HW2 8354   7.711   5.985  10.299
 2153SOL     OW 8355  12.642   4.822   6.403
 2153SOL    HW1 8356  12.548   4.806   6.397
 2153SOL    HW2 8357  12.651   4.886   6.474
 2154SOL     OW 8358   8.339   4.271  11.921
 2154SOL    HW1 8359   8.332   4.360  11.956
 2154SOL    HW2 8360   8.282   4.272  11.843
 2155SOL     OW 8361   8.755   6.248   1.190
 2155SOL    HW1 8362   8.787   6.219   1.104
 2155SOL    HW2 8363   8.662   6.269   1.175
 2156SOL     OW 8364   1.729   3.077   8.440
 2156SOL    HW1 8365   1.776   3.112   8.516
 2156SOL    HW2 8366   1.719   2.984   8.458
 2157SOL     OW 8367   1.863   5.038   9.353
 2157SOL    HW1 8368   1.939   5.093   9.336
 2157SOL    HW2 8369   1.808   5.048   9.275
 2158SOL     OW 8370  14.138   1.374  11.895
 2158SOL    HW1 8371  14.059   1.346  11.848
 2158SOL    HW2 8372  14.144   1.468  11.877
 2159SOL     OW 8373   7.374   5.831  14.127
 2159SOL    HW1 8374   7.358   5.922  14.104
 2159SOL    HW2 8375   7.454   5.808  14.080
 2160SOL     OW 8376   5.790   0.354  11.846
 2160SOL    HW1 8377   5.708   0.393  11.815
 2160SOL    HW2 8378   5.762   0.280  11.900
 2161SOL     OW 8379  12.967   7.851   7.720
 2161SOL    HW1 8380  12.978   7.858   7.815
 2161SOL    HW2 8381  12.881   7.811   7.709
 2162SOL     OW 8382  12.754   1.029   5.034
 2162SOL    HW1 8383  12.776   1.010   4.943
 2162SOL    HW2 8384  12.662   1.058   5.030
 2163SOL     OW 8385   5.463   4.351   9.049
 2163SOL    HW1 8386   5.547   4.395   9.042
 2163SOL    HW2 8387   5.414   4.380   8.972
 2164SOL     OW 8388   7.586   4.622   2.576
 2164SOL    HW1 8389   7.645   4.598   2.505
 2164SOL    HW2 8390   7.592   4.717   2.582
 2165SOL     OW 8391   2.015   4.724   2.235
 2165SOL    HW1 8392   2.014   4.633   2.263
 2165SOL    HW2 8393   1.952   4.728   2.162
 2166SOL     OW 8394   2.626  10.243   1.537
 2166SOL    HW1 8395   2.602  10.171   1.479
 2166SOL    HW2 8396   2.575  10.318   1.505
 2167SOL     OW 8397  14.611   5.407   4.148
 2167SOL    HW1 8398  14.668   5.483   4.134
 2167SOL    HW2 8399  14.525   5.435   4.117
 2168SOL     OW 8400   9.761   3.480  11.318
 2168SOL    HW1 8401   9.702   3.544  11.357
 2168SOL    HW2 8402   9.830   3.532  11.277
 2169SOL     OW 8403   9.512   7.684  10.410
 2169SOL    HW1 8404   9.518   7.679  10.506
 2169SOL    HW2 8405   9.602   7.691  10.380
 2170SOL     OW 8406   7.014   7.350   8.951
 2170SOL    HW1 8407   6.973   7.436   8.949
 2170SOL    HW2 8408   6.944   7.290   8.975
 2171SOL     OW 8409   5.439  13.792  11.098
 2171SOL    HW1 8410   5.481  13.705  11.101
 2171SOL    HW2 8411   5.366  13.785  11.160
 2172SOL     OW 8412  11.753   6.846   2.083
 2172SOL    HW1 8413  11.753   6.927   2.134
 2172SOL    HW2 8414  11.825   6.795   2.119
 2173SOL     OW 8415  10.416   4.860   7.948
 2173SOL    HW1 8416  10.423   4.928   7.882
 2173SOL    HW2 8417  10.344   4.805   7.919
 2174SOL     OW 8418   6.432   4.966   1.051
 2174SOL    HW1 8419   6.438   4.961   0.956
 2174SOL    HW2 8420   6.441   4.875   1.081
 2175SOL     OW 8421   4.546   8.042   6.162
 2175SOL    HW1 8422   4.503   8.081   6.238
 2175SOL    HW2 8423   4.522   8.100   6.089
 2176SOL     OW 8424   0.478   7.329  10.581
 2176SOL    HW1 8425   0.491   7.400  10.644
 2176SOL    HW2 8426   0.423   7.265  10.626
 2177SOL     OW 8427   1.309   3.674   3.407
 2177SOL    HW1 8428   1.255   3.610   3.360
 2177SOL    HW2 8429   1.354   3.723   3.339
 2178SOL     OW 8430   9.708  10.255  10.513
 2178SOL    HW1 8431   9.721  10.174  10.562
 2178SOL    HW2 8432   9.664  10.227  10.432
 2179SOL     OW 8433  12.748   2.200  13.496
 2179SOL    HW1 8434  12.830   2.189  13.447
 2179SOL    HW2 8435  12.754   2.288  13.533
 2180SOL     OW 8436   7.324   4.456  14.704
 2180SOL    HW1 8437   7.239   4.431  14.668
 2180SOL    HW2 8438   7.304   4.490  14.791
 2181SOL     OW 8439  12.500   8.245   2.349
 2181SOL    HW1 8440  12.443   8.258   2.273
 2181SOL    HW2 8441  12.445   8.203   2.414
 2182SOL     OW 8442   1.685  12.699   1.974
 2182SOL    HW1 8443   1.625  12.773   1.979
 2182SOL    HW2 8444   1.768  12.733   2.009
 2183SOL     OW 8445   6.922   9.349  14.020
 2183SOL    HW1 8446   6.922   9.444  14.010
 2183SOL    HW2 8447   7.013   9.326  14.036
 2184SOL     OW 8448  11.840   5.030  10.842
 2184SOL    HW1 8449  11.844   5.044  10.748
 2184SOL    HW2 8450  11.788   5.103  10.876
 2185SOL     OW 8451   6.754   1.911  13.709
 2185SOL    HW1 8452   6.705   1.993  13.713
 2185SOL    HW2 8453   6.764   1.893  13.615
 2186SOL     OW 8454  11.350  10.399   2.383
 2186SOL    HW1 8455  11.351  10.333   2.314
 2186SOL    HW2 8456  11.259  10.427   2.389
 2187SOL     OW 8457   4.750   3.429   1.122
 2187SOL    HW1 8458   4.844   3.433   1.107
 2187SOL    HW2 8459   4.713   3.494   1.063
 2188SOL     OW 8460   5.608   8.845   2.101
 2188SOL    HW1 8461   5.675   8.843   2.032
 2188SOL    HW2 8462   5.599   8.938   2.122
 2189SOL     OW 8463   0.297  12.755   4.338
 2189SOL    HW1 8464   0.236  12.827   4.322
 2189SOL    HW2 8465   0.277  12.726   4.427
 2190SOL     OW 8466  10.271   6.918   2.605
 2190SOL    HW1 8467  10.349   6.966   2.633
 2190SOL    HW2 8468  10.205   6.986   2.590
 2191SOL     OW 8469   4.636   9.529   1.170
 2191SOL    HW1 8470   4.704   9.463   1.155
 2191SOL    HW2 8471   4.626   9.530   1.265
 2192SOL     OW 8472  10.789  13.577   7.065
 2192SOL    HW1 8473  10.836  13.632   7.002
 2192SOL    HW2 8474  10.857  13.544   7.123
 2193SOL     OW 8475   9.875   2.894   9.679
 2193SOL    HW1 8476   9.837   2.974   9.717
 2193SOL    HW2 8477   9.883   2.834   9.753
 2194SOL     OW 8478  11.051   4.438  11.319
 2194SOL    HW1 8479  10.961   4.409  11.306
 2194SOL    HW2 8480  11.050   4.484  11.403
 2195SOL     OW 8481   8.338  11.658  12.495
 2195SOL    HW1 8482   8.381  11.582  12.456
 2195SOL    HW2 8483   8.368  11.732  12.441
 2196SOL     OW 8484   3.435   1.031   1.019
 2196SOL    HW1 8485   3.481   0.969   0.961
 2196SOL    HW2 8486   3.379   1.081   0.960
 2197SOL     OW 8487   0.500  14.006   5.972
 2197SOL    HW1 8488   0.548  14.021   6.054
 2197SOL    HW2 8489   0.458  14.090   5.954
 2198SOL     OW 8490  11.681  12.656   3.470
 2198SOL    HW1 8491  11.590  12.635   3.488
 2198SOL    HW2 8492  11.708  12.710   3.544
 2199SOL     OW 8493   6.059  14.541   2.566
 2199SOL    HW1 8494   6.005  14.592   2.626
 2199SOL    HW2 8495   6.018  14.454   2.566
 2200SOL     OW 8496  13.491  14.509   3.029
 2200SOL    HW1 8497  13.430  14.528   2.957
 2200SOL    HW2 8498  13.441  14.451   3.087
 2201SOL     OW 8499   9.807   1.308  14.404
 2201SOL    HW1 8500   9.887   1.328  14.355
 2201SOL    HW2 8501   9.736   1.318  14.340
 2202SOL     OW 8502   0.701  14.204   5.904
 2202SOL    HW1 8503   0.733  14.291   5.926
 2202SOL    HW2 8504   0.753  14.145   5.960
 2203SOL     OW 8505  14.201   4.661   3.291
 2203SOL    HW1 8506  14.290   4.687   3.266
 2203SOL    HW2 8507  14.190   4.574   3.253
 2204SOL     OW 8508  10.265   1.985   7.729
 2204SOL    HW1 8509  10.300   2.060   7.680
 2204SOL    HW2 8510  10.335   1.920   7.727
 2205SOL     OW 8511   3.137   4.305   9.927
 2205SOL    HW1 8512   3.141   4.350  10.011
 2205SOL    HW2 8513   3.156   4.214   9.948
 2206SOL     OW 8514   0.518  13.253   6.035
 2206SOL    HW1 8515   0.452  13.202   6.080
 2206SOL    HW2 8516   0.478  13.276   5.951
 2207SOL     OW 8517   0.580   9.309   6.322
 2207SOL    HW1 8518   0.493   9.348   6.314
 2207SOL    HW2 8519   0.593   9.298   6.416
 2208SOL     OW 8520   1.627  11.310   7.309
 2208SOL    HW1 8521   1.609  11.231   7.257
 2208SOL    HW2 8522   1.665  11.372   7.247
 2209SOL     OW 8523  13.227  12.909   1.412
 2209SOL    HW1 8524  13.308  12.934   1.367
 2209SOL    HW2 8525  13.161  12.970   1.379
 2210SOL     OW 8526   4.759   1.397   5.284
 2210SOL    HW1 8527   4.785   1.361   5.369
 2210SOL    HW2 8528   4.676   1.353   5.264
 2211SOL     OW 8529   4.569   4.719  14.230
 2211SOL    HW1 8530   4.527   4.636  14.206
 2211SOL    HW2 8531   4.500   4.768  14.274
 2212SOL     OW 8532   2.869  10.558   6.578
 2212SOL    HW1 8533   2.901  10.544   6.489
 2212SOL    HW2 8534   2.923  10.629   6.611
 2213SOL     OW 8535   0.978   3.676   0.511
 2213SOL    HW1 8536   0.936   3.604   0.557
 2213SOL    HW2 8537   1.011   3.733   0.581
 2214SOL     OW 8538   0.671   1.049   5.761
 2214SOL    HW1 8539   0.658   0.966   5.807
 2214SOL    HW2 8540   0.656   1.028   5.668
 2215SOL     OW 8541   4.673   2.017   3.761
 2215SOL    HW1 8542   4.751   2.042   3.712
 2215SOL    HW2 8543   4.657   2.091   3.820
 2216SOL     OW 8544  13.197  12.142  12.500
 2216SOL    HW1 8545  13.177  12.187  12.418
 2216SOL    HW2 8546  13.291  12.127  12.497
 2217SOL     OW 8547  12.577   7.998   9.765
 2217SOL    HW1 8548  12.560   8.071   9.824
 2217SOL    HW2 8549  12.624   7.934   9.818
 2218SOL     OW 8550   9.295   0.866  10.866
 2218SOL    HW1 8551   9.203   0.889  10.857
 2218SOL    HW2 8552   9.327   0.860  10.775
 2219SOL     OW 8553   2.778   7.381  10.730
 2219SOL    HW1 8554   2.826   7.330  10.664
 2219SOL    HW2 8555   2.832   7.459  10.743
 2220SOL     OW 8556   9.656  13.664   9.863
 2220SOL    HW1 8557   9.669  13.756   9.840
 2220SOL    HW2 8558   9.687  13.658   9.953
 2221SOL     OW 8559  10.278  11.344   8.837
 2221SOL    HW1 8560  10.347  11.408   8.822
 2221SOL    HW2 8561  10.273  11.336   8.932
 2222SOL     OW 8562   3.716  11.104   7.818
 2222SOL    HW1 8563   3.657  11.142   7.753
 2222SOL    HW2 8564   3.760  11.180   7.857
 2223SOL     OW 8565   0.695  10.641   4.361
 2223SOL    HW1 8566   0.764  10.586   4.322
 2223SOL    HW2 8567   0.722  10.730   4.341
 2224SOL     OW 8568   2.208  14.620   0.208
 2224SOL    HW1 8569   2.208  14.525   0.214
 2224SOL    HW2 8570   2.286  14.641   0.157
 2225SOL     OW 8571  13.650   7.735   2.434
 2225SOL    HW1 8572  13.665   7.659   2.379
 2225SOL    HW2 8573  13.732   7.784   2.432
 2226SOL     OW 8574   6.875  14.291   0.274
 2226SOL    HW1 8575   6.807  14.284   0.341
 2226SOL    HW2 8576   6.876  14.205   0.231
 2227SOL     OW 8577   8.664   2.191   6.475
 2227SOL    HW1 8578   8.650   2.121   6.411
 2227SOL    HW2 8579   8.755   2.181   6.501
 2228SOL     OW 8580   1.902  11.507  12.121
 2228SOL    HW1 8581   1.941  11.496  12.208
 2228SOL    HW2 8582   1.897  11.419  12.085
 2229SOL     OW 8583   6.424   6.668   1.925
 2229SOL    HW1 8584   6.331   6.654   1.943
 2229SOL    HW2 8585   6.453   6.587   1.882
 2230SOL     OW 8586  10.083   7.664  13.082
 2230SOL    HW1 8587  10.146   7.728  13.049
 2230SOL    HW2 8588   9.998   7.706  13.069
 2231SOL     OW 8589  14.496  10.623   4.863
 2231SOL    HW1 8590  14.503  10.683   4.938
 2231SOL    HW2 8591  14.580  10.631   4.818
 2232SOL     OW 8592   0.771   7.542   9.814
 2232SOL    HW1 8593   0.838   7.508   9.874
 2232SOL    HW2 8594   0.814   7.614   9.767
 2233SOL     OW 8595   0.730  11.257  11.236
 2233SOL    HW1 8596   0.783  11.195  11.187
 2233SOL    HW2 8597   0.666  11.290  11.173
 2234SOL     OW 8598  10.803   1.383   9.206
 2234SOL    HW1 8599  10.855   1.450   9.251
 2234SOL    HW2 8600  10.814   1.304   9.260
 2235SOL     OW 8601   4.331   6.471  14.451
 2235SOL    HW1 8602   4.374   6.556  14.437
 2235SOL    HW2 8603   4.306   6.442  14.364
 2236SOL     OW 8604   4.675  13.737   2.746
 2236SOL    HW1 8605   4.681  13.644   2.765
 2236SOL    HW2 8606   4.736  13.751   2.674
 2237SOL     OW 8607   5.437   2.075   3.866
 2237SOL    HW1 8608   5.385   2.137   3.816
 2237SOL    HW2 8609   5.419   1.990   3.825
 2238SOL     OW 8610   4.036  10.864   6.609
 2238SOL    HW1 8611   4.011  10.858   6.702
 2238SOL    HW2 8612   4.113  10.808   6.602
 2239SOL     OW 8613  11.882   0.400   0.539
 2239SOL    HW1 8614  11.958   0.341   0.540
 2239SOL    HW2 8615  11.867   0.422   0.631
 2240SOL     OW 8616  12.490   1.980  13.399
 2240SOL    HW1 8617  12.487   1.973  13.494
 2240SOL    HW2 8618  12.457   1.896  13.367
 2241SOL     OW 8619   9.050   3.919  11.488
 2241SOL    HW1 8620   9.083   3.835  11.458
 2241SOL    HW2 8621   9.100   3.984  11.439
 2242SOL     OW 8622  13.036  11.078  13.301
 2242SOL    HW1 8623  13.107  11.116  13.352
 2242SOL    HW2 8624  13.040  10.984  13.319
 2243SOL     OW 8625  13.139  11.213   7.643
 2243SOL    HW1 8626  13.124  11.118   7.643
 2243SOL    HW2 8627  13.067  11.248   7.696
 2244SOL     OW 8628   4.596   1.401   5.599
 2244SOL    HW1 8629   4.688   1.378   5.585
 2244SOL    HW2 8630   4.597   1.461   5.673
 2245SOL     OW 8631  11.520  13.999   9.071
 2245SOL    HW1 8632  11.507  14.064   9.140
 2245SOL    HW2 8633  11.606  14.019   9.035
 2246SOL     OW 8634   7.385   0.348  10.257
 2246SOL    HW1 8635   7.415   0.272  10.207
 2246SOL    HW2 8636   7.297   0.324  10.286
 2247SOL     OW 8637  14.081   1.844   6.190
 2247SOL    HW1 8638  14.174   1.820   6.187
 2247SOL    HW2 8639  14.039   1.773   6.238
 2248SOL     OW 8640   7.463  12.960  13.397
 2248SOL    HW1 8641   7.535  13.022  13.409
 2248SOL    HW2 8642   7.468  12.935  13.305
 2249SOL     OW 8643  10.886  11.463   4.793
 2249SOL    HW1 8644  10.883  11.558   4.788
 2249SOL    HW2 8645  10.810  11.434   4.742
 2250SOL     OW 8646   4.245  10.938   2.342
 2250SOL    HW1 8647   4.317  10.916   2.400
 2250SOL    HW2 8648   4.205  11.016   2.382
 2251SOL     OW 8649  10.089   4.084   7.916
 2251SOL    HW1 8650  10.133   4.011   7.957
 2251SOL    HW2 8651  10.064   4.141   7.988
 2252SOL     OW 8652  10.289  13.483   0.872
 2252SOL    HW1 8653  10.252  13.570   0.886
 2252SOL    HW2 8654  10.214  13.424   0.878
 2253SOL     OW 8655   4.263   6.388  12.751
 2253SOL    HW1 8656   4.255   6.438  12.833
 2253SOL    HW2 8657   4.180   6.342  12.743
 2254SOL     OW 8658   7.328  13.854  13.487
 2254SOL    HW1 8659   7.372  13.811  13.560
 2254SOL    HW2 8660   7.389  13.845  13.414
 2255SOL     OW 8661  13.820   7.868   5.082
 2255SOL    HW1 8662  13.914   7.881   5.097
 2255SOL    HW2 8663  13.799   7.791   5.134
 2256SOL     OW 8664   0.440   6.737   8.123
 2256SOL    HW1 8665   0.501   6.789   8.071
 2256SOL    HW2 8666   0.471   6.647   8.113
 2257SOL     OW 8667   3.524  13.077   7.335
 2257SOL    HW1 8668   3.517  13.144   7.267
 2257SOL    HW2 8669   3.574  13.007   7.294
 2258SOL     OW 8670   7.845  13.094  12.792
 2258SOL    HW1 8671   7.928  13.087  12.745
 2258SOL    HW2 8672   7.793  13.154  12.738
 2259SOL     OW 8673   6.498   8.454  14.524
 2259SOL    HW1 8674   6.460   8.501  14.598
 2259SOL    HW2 8675   6.545   8.381  14.564
 2260SOL     OW 8676   9.066  14.455  14.002
 2260SOL    HW1 8677   8.996  14.521  14.010
 2260SOL    HW2 8678   9.132  14.496  13.947
 2261SOL     OW 8679   2.595   9.417   9.594
 2261SOL    HW1 8680   2.664   9.388   9.534
 2261SOL    HW2 8681   2.643   9.455   9.668
 2262SOL     OW 8682   4.033   8.614   7.632
 2262SOL    HW1 8683   3.942   8.585   7.622
 2262SOL    HW2 8684   4.027   8.703   7.665
 2263SOL     OW 8685   4.898  11.397   1.728
 2263SOL    HW1 8686   4.949  11.320   1.699
 2263SOL    HW2 8687   4.879  11.380   1.820
 2264SOL     OW 8688  12.605  11.947   5.805
 2264SOL    HW1 8689  12.612  12.038   5.774
 2264SOL    HW2 8690  12.512  11.925   5.793
 2265SOL     OW 8691   2.007  13.162  11.862
 2265SOL    HW1 8692   1.914  13.182  11.866
 2265SOL    HW2 8693   2.011  13.070  11.836
 2266SOL     OW 8694   0.544   9.689  13.235
 2266SOL    HW1 8695   0.626   9.641  13.218
 2266SOL    HW2 8696   0.571   9.780  13.243
 2267SOL     OW 8697   9.343   4.992   5.880
 2267SOL    HW1 8698   9.340   5.087   5.873
 2267SOL    HW2 8699   9.409   4.975   5.948
 2268SOL     OW 8700   7.074   5.319   3.824
 2268SOL    HW1 8701   7.158   5.365   3.831
 2268SOL    HW2 8702   7.055   5.290   3.913
 2269SOL     OW 8703   3.578  14.642   0.170
 2269SOL    HW1 8704   3.540  14.598   0.246
 2269SOL    HW2 8705   3.503  14.664   0.114
 2270SOL     OW 8706  10.547  13.672  11.684
 2270SOL    HW1 8707  10.527  13.734  11.754
 2270SOL    HW2 8708  10.611  13.717  11.629
 2271SOL     OW 8709   7.111  10.306   5.052
 2271SOL    HW1 8710   7.081  10.217   5.035
 2271SOL    HW2 8711   7.074  10.328   5.138
 2272SOL     OW 8712   7.821   5.367  12.921
 2272SOL    HW1 8713   7.803   5.379  13.014
 2272SOL    HW2 8714   7.760   5.426  12.877
 2273SOL     OW 8715   6.153   3.817   0.907
 2273SOL    HW1 8716   6.229   3.871   0.888
 2273SOL    HW2 8717   6.155   3.805   1.002
 2274SOL     OW 8718   9.797  12.054  13.484
 2274SOL    HW1 8719   9.781  11.993  13.412
 2274SOL    HW2 8720   9.750  12.134  13.459
 2275SOL     OW 8721  10.152  14.559   5.273
 2275SOL    HW1 8722  10.209  14.499   5.224
 2275SOL    HW2 8723  10.068  14.515   5.277
 2276SOL     OW 8724  14.623  11.692   5.369
 2276SOL    HW1 8725  14.684  11.753   5.409
 2276SOL    HW2 8726  14.546  11.744   5.348
 2277SOL     OW 8727   4.118   7.362  11.679
 2277SOL    HW1 8728   4.031   7.402  11.684
 2277SOL    HW2 8729   4.156   7.398  11.598
 2278SOL     OW 8730  11.495  10.334   2.645
 2278SOL    HW1 8731  11.446  10.371   2.571
 2278SOL    HW2 8732  11.574  10.298   2.607
 2279SOL     OW 8733   1.287   9.412  11.294
 2279SOL    HW1 8734   1.335   9.439  11.216
 2279SOL    HW2 8735   1.312   9.477  11.361
 2280SOL     OW 8736   1.683  11.697   4.307
 2280SOL    HW1 8737   1.636  11.685   4.390
 2280SOL    HW2 8738   1.627  11.655   4.242
 2281SOL     OW 8739   1.077  10.945   9.782
 2281SOL    HW1 8740   1.054  10.999   9.707
 2281SOL    HW2 8741   1.041  10.991   9.857
 2282SOL     OW 8742   0.349   2.585   4.341
 2282SOL    HW1 8743   0.370   2.662   4.395
 2282SOL    HW2 8744   0.410   2.590   4.268
 2283SOL     OW 8745   2.169   4.132   1.199
 2283SOL    HW1 8746   2.120   4.049   1.201
 2283SOL    HW2 8747   2.128   4.185   1.268
 2284SOL     OW 8748   1.185  11.386   6.425
 2284SOL    HW1 8749   1.224  11.450   6.484
 2284SOL    HW2 8750   1.146  11.320   6.483
 2285SOL     OW 8751  13.667   9.866   3.475
 2285SOL    HW1 8752  13.697   9.780   3.445
 2285SOL    HW2 8753  13.597   9.847   3.537
 2286SOL     OW 8754   2.869   9.154   0.061
 2286SOL    HW1 8755   2.933   9.087   0.037
 2286SOL    HW2 8756   2.872   9.217  14.857
 2287SOL     OW 8757  12.950   5.673  10.511
 2287SOL    HW1 8758  12.959   5.680  10.606
 2287SOL    HW2 8759  12.861   5.703  10.493
 2288SOL     OW 8760   1.097   8.677   8.266
 2288SOL    HW1 8761   1.141   8.759   8.284
 2288SOL    HW2 8762   1.004   8.698   8.268
 2289SOL     OW 8763   7.257   0.766  10.597
 2289SOL    HW1 8764   7.311   0.766  10.517
 2289SOL    HW2 8765   7.182   0.820  10.575
 2290SOL     OW 8766   1.017  10.890   3.953
 2290SOL    HW1 8767   0.923  10.904   3.961
 2290SOL    HW2 8768   1.027  10.794   3.952
 2291SOL     OW 8769   0.181   6.293  14.743
 2291SOL    HW1 8770   0.117   6.339  14.690
 2291SOL    HW2 8771   0.187   6.205  14.704
 2292SOL     OW 8772   8.272   8.832  12.867
 2292SOL    HW1 8773   8.230   8.763  12.815
 2292SOL    HW2 8774   8.281   8.905  12.806
 2293SOL     OW 8775   9.810   9.711  10.304
 2293SOL    HW1 8776   9.717   9.692  10.308
 2293SOL    HW2 8777   9.835   9.727  10.395
 2294SOL     OW 8778   3.816  10.711   9.370
 2294SOL    HW1 8779   3.890  10.664   9.332
 2294SOL    HW2 8780   3.857  10.780   9.424
 2295SOL     OW 8781  11.188   3.494   6.935
 2295SOL    HW1 8782  11.182   3.436   6.859
 2295SOL    HW2 8783  11.104   3.539   6.937
 2296SOL     OW 8784   1.729  11.034   2.535
 2296SOL    HW1 8785   1.678  11.084   2.471
 2296SOL    HW2 8786   1.663  10.985   2.585
 2297SOL     OW 8787  12.240   1.945   8.494
 2297SOL    HW1 8788  12.150   1.972   8.507
 2297SOL    HW2 8789  12.293   2.012   8.538
 2298SOL     OW 8790   2.205  14.657   3.887
 2298SOL    HW1 8791   2.288  14.655   3.840
 2298SOL    HW2 8792   2.215  14.728   3.951
 2299SOL     OW 8793   2.454   6.016   8.627
 2299SOL    HW1 8794   2.408   5.946   8.580
 2299SOL    HW2 8795   2.475   6.080   8.559
 2300SOL     OW 8796   0.223   3.526   0.445
 2300SOL    HW1 8797   0.212   3.559   0.534
 2300SOL    HW2 8798   0.289   3.457   0.454
 2301SOL     OW 8799   1.139   7.879   2.911
 2301SOL    HW1 8800   1.122   7.954   2.968
 2301SOL    HW2 8801   1.054   7.858   2.873
 2302SOL     OW 8802   3.997  10.858   1.323
 2302SOL    HW1 8803   3.949  10.788   1.280
 2302SOL    HW2 8804   4.089  10.832   1.315
 2303SOL     OW 8805   2.923   7.506  14.266
 2303SOL    HW1 8806   2.828   7.497  14.271
 2303SOL    HW2 8807   2.938   7.600  14.257
 2304SOL     OW 8808   8.396   3.922   3.438
 2304SOL    HW1 8809   8.476   3.966   3.410
 2304SOL    HW2 8810   8.328   3.989   3.433
 2305SOL     OW 8811   5.061  10.247  12.199
 2305SOL    HW1 8812   5.031  10.335  12.223
 2305SOL    HW2 8813   4.980  10.197  12.187
 2306SOL     OW 8814   5.832  14.676  11.295
 2306SOL    HW1 8815   5.923  14.665  11.324
 2306SOL    HW2 8816   5.829  14.636  11.209
 2307SOL     OW 8817  13.569   9.325   5.023
 2307SOL    HW1 8818  13.495   9.330   5.084
 2307SOL    HW2 8819  13.571   9.234   4.995
 2308SOL     OW 8820   2.241  12.354  14.382
 2308SOL    HW1 8821   2.291  12.435  14.371
 2308SOL    HW2 8822   2.176  12.357  14.311
 2309SOL     OW 8823  10.945  14.763  14.694
 2309SOL    HW1 8824  10.926  14.823  14.766
 2309SOL    HW2 8825  10.959  14.678  14.735
 2310SOL     OW 8826   3.624   6.313   8.181
 2310SOL    HW1 8827   3.630   6.223   8.213
 2310SOL    HW2 8828   3.585   6.305   8.094
 2311SOL     OW 8829   9.052   6.520   6.184
 2311SOL    HW1 8830   9.120   6.583   6.158
 2311SOL    HW2 8831   9.067   6.444   6.128
 2312SOL     OW 8832   4.917   8.384  12.369
 2312SOL    HW1 8833   4.987   8.409  12.310
 2312SOL    HW2 8834   4.957   8.385  12.456
 2313SOL     OW 8835   2.965   0.613   3.413
 2313SOL    HW1 8836   2.964   0.674   3.486
 2313SOL    HW2 8837   2.910   0.540   3.440
 2314SOL     OW 8838   8.851   2.680   7.347
 2314SOL    HW1 8839   8.897   2.660   7.429
 2314SOL    HW2 8840   8.916   2.666   7.279
 2315SOL     OW 8841   2.182   9.285   9.156
 2315SOL    HW1 8842   2.234   9.326   9.087
 2315SOL    HW2 8843   2.244   9.231   9.204
 2316SOL     OW 8844   6.602   9.907   4.212
 2316SOL    HW1 8845   6.637   9.822   4.186
 2316SOL    HW2 8846   6.626   9.914   4.305
 2317SOL     OW 8847   7.231  10.347  10.785
 2317SOL    HW1 8848   7.224  10.361  10.879
 2317SOL    HW2 8849   7.281  10.265  10.776
 2318SOL     OW 8850  11.693   1.002   9.187
 2318SOL    HW1 8851  11.606   0.983   9.152
 2318SOL    HW2 8852  11.677   1.029   9.277
 2319SOL     OW 8853  13.956  10.352  12.457
 2319SOL    HW1 8854  14.047  10.321  12.458
 2319SOL    HW2 8855  13.963  10.447  12.458
 2320SOL     OW 8856   4.909   5.177   7.621
 2320SOL    HW1 8857   4.931   5.088   7.593
 2320SOL    HW2 8858   4.968   5.232   7.569
 2321SOL     OW 8859  13.416   7.645   2.546
 2321SOL    HW1 8860  13.435   7.604   2.631
 2321SOL    HW2 8861  13.502   7.665   2.510
 2322SOL     OW 8862  13.722  14.807   6.826
 2322SOL    HW1 8863  13.715   0.003   6.896
 2322SOL    HW2 8864  13.692  14.853   6.747
 2323SOL     OW 8865  13.762   4.163   9.253
 2323SOL    HW1 8866  13.692   4.208   9.206
 2323SOL    HW2 8867  13.820   4.233   9.282
 2324SOL     OW 8868  13.803  11.482  13.171
 2324SOL    HW1 8869  13.827  11.392  13.191
 2324SOL    HW2 8870  13.763  11.478  13.084
 2325SOL     OW 8871   7.286   9.370  10.733
 2325SOL    HW1 8872   7.262   9.456  10.765
 2325SOL    HW2 8873   7.316   9.385  10.643
 2326SOL     OW 8874  10.814   0.226   2.714
 2326SOL    HW1 8875  10.859   0.269   2.641
 2326SOL    HW2 8876  10.873   0.238   2.789
 2327SOL     OW 8877  10.099  14.041   9.131
 2327SOL    HW1 8878  10.163  14.108   9.107
 2327SOL    HW2 8879  10.130  13.962   9.088
 2328SOL     OW 8880   4.169   4.460  12.304
 2328SOL    HW1 8881   4.099   4.441  12.242
 2328SOL    HW2 8882   4.185   4.376  12.348
 2329SOL     OW 8883   3.767  12.666   0.419
 2329SOL    HW1 8884   3.715  12.745   0.433
 2329SOL    HW2 8885   3.827  12.664   0.493
 2330SOL     OW 8886   3.824  12.540  10.117
 2330SOL    HW1 8887   3.768  12.536  10.194
 2330SOL    HW2 8888   3.875  12.620  10.128
 2331SOL     OW 8889   3.557  11.171  14.097
 2331SOL    HW1 8890   3.535  11.222  14.175
 2331SOL    HW2 8891   3.500  11.206  14.029
 2332SOL     OW 8892   7.164  12.907   1.413
 2332SOL    HW1 8893   7.164  12.982   1.472
 2332SOL    HW2 8894   7.238  12.923   1.353
 2333SOL     OW 8895   4.862   2.073  12.549
 2333SOL    HW1 8896   4.829   2.163  12.546
 2333SOL    HW2 8897   4.827   2.032  12.470
 2334SOL     OW 8898  12.368   9.581  10.490
 2334SOL    HW1 8899  12.450   9.621  10.518
 2334SOL    HW2 8900  12.316   9.575  10.569
 2335SOL     OW 8901  10.556   3.013  14.813
 2335SOL    HW1 8902  10.487   2.975  14.867
 2335SOL    HW2 8903  10.525   3.102  14.794
 2336SOL     OW 8904   7.821   3.032   8.611
 2336SOL    HW1 8905   7.889   3.045   8.545
 2336SOL    HW2 8906   7.870   3.024   8.694
 2337SOL     OW 8907  14.531  10.266   6.399
 2337SOL    HW1 8908  14.621  10.236   6.384
 2337SOL    HW2 8909  14.482  10.229   6.326
 2338SOL     OW 8910   5.284   1.817  13.966
 2338SOL    HW1 8911   5.248   1.845  13.881
 2338SOL    HW2 8912   5.216   1.842  14.029
 2339SOL     OW 8913  12.596   1.195  13.774
 2339SOL    HW1 8914  12.643   1.267  13.815
 2339SOL    HW2 8915  12.535   1.164  13.842
 2340SOL     OW 8916  14.412   5.461   0.353
 2340SOL    HW1 8917  14.369   5.457   0.267
 2340SOL    HW2 8918  14.343   5.434   0.414
 2341SOL     OW 8919   6.458   7.685   1.758
 2341SOL    HW1 8920   6.480   7.769   1.798
 2341SOL    HW2 8921   6.473   7.698   1.664
 2342SOL     OW 8922   8.831   6.212   8.030
 2342SOL    HW1 8923   8.764   6.182   8.091
 2342SOL    HW2 8924   8.898   6.143   8.032
 2343SOL     OW 8925  10.234  12.190   3.592
 2343SOL    HW1 8926  10.139  12.195   3.595
 2343SOL    HW2 8927  10.253  12.096   3.592
 2344SOL     OW 8928   6.269  14.323   4.010
 2344SOL    HW1 8929   6.326  14.323   4.087
 2344SOL    HW2 8930   6.322  14.283   3.941
 2345SOL     OW 8931  10.610  10.934  11.680
 2345SOL    HW1 8932  10.555  10.970  11.750
 2345SOL    HW2 8933  10.677  10.883  11.725
 2346SOL     OW 8934   3.057  12.309   6.989
 2346SOL    HW1 8935   3.008  12.390   7.002
 2346SOL    HW2 8936   2.994  12.250   6.948
 2347SOL     OW 8937   0.401   1.445  14.388
 2347SOL    HW1 8938   0.458   1.465  14.462
 2347SOL    HW2 8939   0.324   1.500  14.402
 2348SOL     OW 8940  11.111   9.064  13.496
 2348SOL    HW1 8941  11.037   9.011  13.527
 2348SOL    HW2 8942  11.163   9.003  13.443
 2349SOL     OW 8943  14.153   9.956   6.272
 2349SOL    HW1 8944  14.092   9.883   6.280
 2349SOL    HW2 8945  14.239   9.917   6.288
 2350SOL     OW 8946  13.993   4.885   0.260
 2350SOL    HW1 8947  14.049   4.810   0.239
 2350SOL    HW2 8948  14.042   4.961   0.226
 2351SOL     OW 8949   1.124   1.297   6.040
 2351SOL    HW1 8950   1.147   1.262   5.954
 2351SOL    HW2 8951   1.195   1.267   6.098
 2352SOL     OW 8952   2.702   5.182   5.475
 2352SOL    HW1 8953   2.779   5.236   5.492
 2352SOL    HW2 8954   2.718   5.142   5.390
 2353SOL     OW 8955   4.691   6.152   5.792
 2353SOL    HW1 8956   4.611   6.152   5.845
 2353SOL    HW2 8957   4.701   6.061   5.763
 2354SOL     OW 8958  14.592  10.805  13.191
 2354SOL    HW1 8959  14.564  10.877  13.249
 2354SOL    HW2 8960  14.559  10.829  13.105
 2355SOL     OW 8961   2.145   9.205  13.894
 2355SOL    HW1 8962   2.158   9.155  13.814
 2355SOL    HW2 8963   2.172   9.294  13.871
 2356SOL     OW 8964  13.416   1.639  12.950
 2356SOL    HW1 8965  13.381   1.583  12.880
 2356SOL    HW2 8966  13.510   1.640  12.934
 2357SOL     OW 8967   7.766  12.750   8.335
 2357SOL    HW1 8968   7.752  12.689   8.263
 2357SOL    HW2 8969   7.844  12.717   8.380
 2358SOL     OW 8970  11.414  10.643   8.015
 2358SOL    HW1 8971  11.504  10.612   8.005
 2358SOL    HW2 8972  11.422  10.738   8.018
 2359SOL     OW 8973  13.924   6.054  11.673
 2359SOL    HW1 8974  13.981   5.985  11.707
 2359SOL    HW2 8975  13.838   6.035  11.711
 2360SOL     OW 8976  12.748   1.445   1.877
 2360SOL    HW1 8977  12.691   1.502   1.928
 2360SOL    HW2 8978  12.738   1.477   1.787
 2361SOL     OW 8979  11.437   3.006   5.204
 2361SOL    HW1 8980  11.506   2.944   5.181
 2361SOL    HW2 8981  11.484   3.088   5.219
 2362SOL     OW 8982   6.144  12.814   0.855
 2362SOL    HW1 8983   6.205  12.877   0.894
 2362SOL    HW2 8984   6.152  12.736   0.910
 2363SOL     OW 8985   0.941   9.235   6.437
 2363SOL    HW1 8986   0.895   9.152   6.447
 2363SOL    HW2 8987   0.904   9.273   6.357
 2364SOL     OW 8988   5.867  10.626   1.914
 2364SOL    HW1 8989   5.783  10.632   1.869
 2364SOL    HW2 8990   5.845  10.638   2.007
 2365SOL     OW 8991   2.254  13.765   3.667
 2365SOL    HW1 8992   2.294  13.777   3.753
 2365SOL    HW2 8993   2.324  13.730   3.612
 2366SOL     OW 8994   3.001   7.451   0.371
 2366SOL    HW1 8995   2.915   7.455   0.413
 2366SOL    HW2 8996   3.063   7.465   0.443
 2367SOL     OW 8997  13.132  11.650   5.198
 2367SOL    HW1 8998  13.046  11.637   5.159
 2367SOL    HW2 8999  13.175  11.565   5.192
 2368SOL     OW 9000   8.373   4.429   7.773
 2368SOL    HW1 9001   8.290   4.476   7.772
 2368SOL    HW2 9002   8.418   4.460   7.694
 2369SOL     OW 9003   1.742   3.278  11.049
 2369SOL    HW1 9004   1.752   3.197  11.100
 2369SOL    HW2 9005   1.690   3.253  10.973
 2370SOL     OW 9006   0.434  13.379   4.253
 2370SOL    HW1 9007   0.471  13.322   4.185
 2370SOL    HW2 9008   0.432  13.466   4.213
 2371SOL     OW 9009   5.433   2.133   7.409
 2371SOL    HW1 9010   5.387   2.216   7.417
 2371SOL    HW2 9011   5.407   2.100   7.323
 2372SOL     OW 9012   4.010  14.713  13.111
 2372SOL    HW1 9013   3.953  14.756  13.176
 2372SOL    HW2 9014   3.950  14.684  13.043
 2373SOL     OW 9015   5.969   2.967  11.684
 2373SOL    HW1 9016   5.921   3.043  11.717
 2373SOL    HW2 9017   5.969   2.905  11.757
 2374SOL     OW 9018   2.994   0.235   5.586
 2374SOL    HW1 9019   2.947   0.153   5.573
 2374SOL    HW2 9020   2.948   0.277   5.659
 2375SOL     OW 9021   6.565   8.479   3.806
 2375SOL    HW1 9022   6.610   8.395   3.808
 2375SOL    HW2 9023   6.547   8.499   3.898
 2376SOL     OW 9024  11.886   2.543   9.528
 2376SOL    HW1 9025  11.972   2.517   9.493
 2376SOL    HW2 9026  11.884   2.507   9.616
 2377SOL     OW 9027   9.972   1.673   0.819
 2377SOL    HW1 9028   9.950   1.718   0.901
 2377SOL    HW2 9029   9.890   1.632   0.792
 2378SOL     OW 9030  13.136   5.348  11.021
 2378SOL    HW1 9031  13.199   5.325  11.089
 2378SOL    HW2 9032  13.163   5.297  10.945
 2379SOL     OW 9033   5.937  13.740  12.480
 2379SOL    HW1 9034   5.977  13.827  12.486
 2379SOL    HW2 9035   5.922  13.714  12.571
 2380SOL     OW 9036   4.894   0.116  14.470
 2380SOL    HW1 9037   4.894   0.145  14.378
 2380SOL    HW2 9038   4.903   0.021  14.465
 2381SOL     OW 9039   6.709  10.640  12.690
 2381SOL    HW1 9040   6.665  10.677  12.766
 2381SOL    HW2 9041   6.722  10.548  12.712
 2382SOL     OW 9042   7.580   8.938  10.386
 2382SOL    HW1 9043   7.488   8.958  10.369
 2382SOL    HW2 9044   7.588   8.937  10.481
 2383SOL     OW 9045  11.295  12.081   9.902
 2383SOL    HW1 9046  11.207  12.044   9.906
 2383SOL    HW2 9047  11.282  12.175   9.911
 2384SOL     OW 9048   2.800  13.974  13.411
 2384SOL    HW1 9049   2.812  13.967  13.316
 2384SOL    HW2 9050   2.866  14.038  13.439
 2385SOL     OW 9051   9.332  12.829  13.065
 2385SOL    HW1 9052   9.349  12.736  13.054
 2385SOL    HW2 9053   9.419  12.870  13.065
 2386SOL     OW 9054   9.134  13.043  13.599
 2386SOL    HW1 9055   9.125  13.001  13.685
 2386SOL    HW2 9056   9.229  13.044  13.583
 2387SOL     OW 9057  13.987   6.514   1.164
 2387SOL    HW1 9058  13.958   6.520   1.255
 2387SOL    HW2 9059  14.025   6.600   1.145
 2388SOL     OW 9060  13.651  11.283   8.554
 2388SOL    HW1 9061  13.712  11.257   8.484
 2388SOL    HW2 9062  13.705  11.285   8.633
 2389SOL     OW 9063   9.477  10.363  11.557
 2389SOL    HW1 9064   9.480  10.349  11.462
 2389SOL    HW2 9065   9.383  10.368  11.577
 2390SOL     OW 9066   8.176  11.390  11.390
 2390SOL    HW1 9067   8.092  11.426  11.417
 2390SOL    HW2 9068   8.157  11.298  11.368
 2391SOL     OW 9069   9.856   6.116   9.935
 2391SOL    HW1 9070   9.949   6.136   9.930
 2391SOL    HW2 9071   9.852   6.028   9.972
 2392SOL     OW 9072  14.628   6.089   4.275
 2392SOL    HW1 9073  14.607   6.016   4.217
 2392SOL    HW2 9074  14.694   6.054   4.335
 2393SOL     OW 9075   9.799   6.153   1.131
 2393SOL    HW1 9076   9.892   6.167   1.112
 2393SOL    HW2 9077   9.768   6.239   1.162
 2394SOL     OW 9078   5.000   5.032   8.384
 2394SOL    HW1 9079   4.947   5.026   8.305
 2394SOL    HW2 9080   5.028   4.942   8.401
 2395SOL     OW 9081   4.923  11.193  13.957
 2395SOL    HW1 9082   4.847  11.193  14.015
 2395SOL    HW2 9083   4.996  11.166  14.012
 2396SOL     OW 9084  10.762   8.648   3.807
 2396SOL    HW1 9085  10.766   8.696   3.890
 2396SOL    HW2 9086  10.796   8.561   3.828
 2397SOL     OW 9087  13.235   2.341   0.075
 2397SOL    HW1 9088  13.293   2.266   0.078
 2397SOL    HW2 9089  13.293   2.417   0.074
 2398SOL     OW 9090  14.134   2.689   8.943
 2398SOL    HW1 9091  14.118   2.760   8.881
 2398SOL    HW2 9092  14.056   2.634   8.938
 2399SOL     OW 9093  10.766  10.808   4.115
 2399SOL    HW1 9094  10.720  10.885   4.148
 2399SOL    HW2 9095  10.698  10.756   4.071
 2400SOL     OW 9096   8.076   5.954   6.136
 2400SOL    HW1 9097   8.088   6.032   6.189
 2400SOL    HW2 9098   7.994   5.969   6.088
 2401SOL     OW 9099   7.376   1.044   8.448
 2401SOL    HW1 9100   7.409   0.955   8.456
 2401SOL    HW2 9101   7.420   1.092   8.519
 2402SOL     OW 9102   5.221  10.536   1.487
 2402SOL    HW1 9103   5.173  10.540   1.404
 2402SOL    HW2 9104   5.164  10.579   1.550
 2403SOL     OW 9105   6.424   3.646   6.618
 2403SOL    HW1 9106   6.340   3.671   6.579
 2403SOL    HW2 9107   6.419   3.676   6.708
 2404SOL     OW 9108  14.695  12.030  11.566
 2404SOL    HW1 9109  14.626  11.967  11.589
 2404SOL    HW2 9110  14.676  12.107  11.618
 2405SOL     OW 9111   6.094   9.313   5.527
 2405SOL    HW1 9112   6.184   9.288   5.507
 2405SOL    HW2 9113   6.094   9.408   5.525
 2406SOL     OW 9114   0.588   6.206   3.120
 2406SOL    HW1 9115   0.638   6.203   3.038
 2406SOL    HW2 9116   0.559   6.116   3.133
 2407SOL     OW 9117  14.147   7.743   1.038
 2407SOL    HW1 9118  14.166   7.836   1.051
 2407SOL    HW2 9119  14.185   7.699   1.114
 2408SOL     OW 9120   7.850   4.398  13.072
 2408SOL    HW1 9121   7.883   4.358  13.152
 2408SOL    HW2 9122   7.902   4.478  13.062
 2409SOL     OW 9123  14.243  13.616  14.750
 2409SOL    HW1 9124  14.155  13.583  14.730
 2409SOL    HW2 9125  14.292  13.603  14.669
 2410SOL     OW 9126   7.645   0.178  12.139
 2410SOL    HW1 9127   7.556   0.184  12.176
 2410SOL    HW2 9128   7.696   0.242  12.189
 2411SOL     OW 9129  11.294  13.271  12.883
 2411SOL    HW1 9130  11.200  13.256  12.882
 2411SOL    HW2 9131  11.331  13.194  12.839
 2412SOL     OW 9132   7.345   8.694   2.574
 2412SOL    HW1 9133   7.256   8.718   2.602
 2412SOL    HW2 9134   7.398   8.770   2.597
 2413SOL     OW 9135   8.568   3.285  13.351
 2413SOL    HW1 9136   8.652   3.251  13.382
 2413SOL    HW2 9137   8.589   3.369  13.311
 2414SOL     OW 9138   9.724   7.584   0.074
 2414SOL    HW1 9139   9.635   7.561   0.048
 2414SOL    HW2 9140   9.713   7.631   0.157
 2415SOL     OW 9141   1.279   4.381   3.274
 2415SOL    HW1 9142   1.239   4.363   3.359
 2415SOL    HW2 9143   1.353   4.321   3.269
 2416SOL     OW 9144   9.304   1.090  12.574
 2416SOL    HW1 9145   9.254   1.011  12.591
 2416SOL    HW2 9146   9.239   1.160  12.575
 2417SOL     OW 9147  14.598   4.916  11.317
 2417SOL    HW1 9148  14.528   4.855  11.342
 2417SOL    HW2 9149  14.678   4.874  11.348
 2418SOL     OW 9150   1.613   2.197   6.491
 2418SOL    HW1 9151   1.665   2.123   6.523
 2418SOL    HW2 9152   1.671   2.272   6.497
 2419SOL     OW 9153   6.802   3.259   4.024
 2419SOL    HW1 9154   6.821   3.353   4.015
 2419SOL    HW2 9155   6.833   3.220   3.943
 2420SOL     OW 9156   3.983   6.804   8.663
 2420SOL    HW1 9157   3.922   6.829   8.594
 2420SOL    HW2 9158   3.934   6.742   8.717
 2421SOL     OW 9159   6.935  11.823   7.268
 2421SOL    HW1 9160   6.879  11.750   7.240
 2421SOL    HW2 9161   6.897  11.900   7.225
 2422SOL     OW 9162   1.013   7.095  11.474
 2422SOL    HW1 9163   1.034   7.015  11.426
 2422SOL    HW2 9164   0.917   7.101  11.469
 2423SOL     OW 9165   8.508   4.467  10.072
 2423SOL    HW1 9166   8.494   4.375  10.051
 2423SOL    HW2 9167   8.475   4.477  10.162
 2424SOL     OW 9168  10.201   4.598   2.340
 2424SOL    HW1 9169  10.274   4.583   2.399
 2424SOL    HW2 9170  10.179   4.690   2.352
 2425SOL     OW 9171   6.752  13.752  12.910
 2425SOL    HW1 9172   6.733  13.661  12.931
 2425SOL    HW2 9173   6.825  13.748  12.848
 2426SOL     OW 9174   8.771  14.684  12.327
 2426SOL    HW1 9175   8.842  14.675  12.263
 2426SOL    HW2 9176   8.728  14.599  12.328
 2427SOL     OW 9177  11.223   1.063   7.080
 2427SOL    HW1 9178  11.192   1.151   7.102
 2427SOL    HW2 9179  11.229   1.018   7.164
 2428SOL     OW 9180  11.120   3.984  10.090
 2428SOL    HW1 9181  11.066   3.966  10.013
 2428SOL    HW2 9182  11.058   4.015  10.156
 2429SOL     OW 9183   1.284  14.685   9.603
 2429SOL    HW1 9184   1.296  14.773   9.568
 2429SOL    HW2 9185   1.373  14.654   9.620
 2430SOL     OW 9186   6.256   4.903   8.786
 2430SOL    HW1 9187   6.326   4.966   8.797
 2430SOL    HW2 9188   6.177   4.950   8.812
 2431SOL     OW 9189   8.365   8.671  13.098
 2431SOL    HW1 9190   8.429   8.603  13.075
 2431SOL    HW2 9191   8.360   8.726  13.020
 2432SOL     OW 9192   9.550   6.683  11.024
 2432SOL    HW1 9193   9.612   6.705  10.954
 2432SOL    HW2 9194   9.476   6.742  11.010
 2433SOL     OW 9195   9.584   9.339  10.571
 2433SOL    HW1 9196   9.593   9.272  10.503
 2433SOL    HW2 9197   9.538   9.294  10.642
 2434SOL     OW 9198   4.571   6.635   2.914
 2434SOL    HW1 9199   4.640   6.602   2.972
 2434SOL    HW2 9200   4.521   6.557   2.890
 2435SOL     OW 9201   1.681   6.830   6.282
 2435SOL    HW1 9202   1.712   6.918   6.260
 2435SOL    HW2 9203   1.759   6.783   6.310
 2436SOL     OW 9204   7.143  10.934   4.791
 2436SOL    HW1 9205   7.071  10.914   4.731
 2436SOL    HW2 9206   7.154  10.854   4.842
 2437SOL     OW 9207  11.402  14.617  12.596
 2437SOL    HW1 9208  11.343  14.541  12.601
 2437SOL    HW2 9209  11.362  14.682  12.654
 2438SOL     OW 9210  11.041  10.175  12.605
 2438SOL    HW1 9211  10.950  10.158  12.583
 2438SOL    HW2 9212  11.057  10.263  12.571
 2439SOL     OW 9213  10.008   9.744   7.960
 2439SOL    HW1 9214   9.926   9.762   8.006
 2439SOL    HW2 9215  10.076   9.760   8.026
 2440SOL     OW 9216   4.851   6.306   0.892
 2440SOL    HW1 9217   4.863   6.293   0.986
 2440SOL    HW2 9218   4.758   6.287   0.877
 2441SOL     OW 9219   6.505   5.896  10.027
 2441SOL    HW1 9220   6.529   5.920   9.938
 2441SOL    HW2 9221   6.413   5.870  10.021
 2442SOL     OW 9222   4.447  10.788   2.558
 2442SOL    HW1 9223   4.520  10.827   2.512
 2442SOL    HW2 9224   4.436  10.702   2.518
 2443SOL     OW 9225   2.064   4.142   3.945
 2443SOL    HW1 9226   2.065   4.047   3.932
 2443SOL    HW2 9227   1.981   4.160   3.989
 2444SOL     OW 9228   8.053   9.498   1.492
 2444SOL    HW1 9229   8.024   9.459   1.574
 2444SOL    HW2 9230   8.021   9.588   1.496
 2445SOL     OW 9231  14.728   5.753   6.990
 2445SOL    HW1 9232  14.797   5.696   7.021
 2445SOL    HW2 9233  14.740   5.835   7.039
 2446SOL     OW 9234   7.573   4.169  10.603
 2446SOL    HW1 9235   7.580   4.119  10.684
 2446SOL    HW2 9236   7.484   4.203  10.603
 2447SOL     OW 9237  11.395   2.100  13.517
 2447SOL    HW1 9238  11.483   2.069  13.537
 2447SOL    HW2 9239  11.338   2.047  13.573
 2448SOL     OW 9240   4.434   6.676  11.651
 2448SOL    HW1 9241   4.376   6.673  11.727
 2448SOL    HW2 9242   4.462   6.585  11.638
 2449SOL     OW 9243   6.379   4.530   0.071
 2449SOL    HW1 9244   6.388   4.618   0.107
 2449SOL    HW2 9245   6.452   4.521   0.011
 2450SOL     OW 9246   3.816   8.299  11.276
 2450SOL    HW1 9247   3.880   8.230  11.257
 2450SOL    HW2 9248   3.866   8.367  11.320
 2451SOL     OW 9249   7.060   0.803   0.802
 2451SOL    HW1 9250   7.094   0.803   0.891
 2451SOL    HW2 9251   7.134   0.833   0.748
 2452SOL     OW 9252   5.991   1.982   5.670
 2452SOL    HW1 9253   5.907   1.969   5.626
 2452SOL    HW2 9254   5.984   2.069   5.709
 2453SOL     OW 9255   1.990   0.247  14.266
 2453SOL    HW1 9256   1.920   0.305  14.233
 2453SOL    HW2 9257   1.947   0.162  14.278
 2454SOL     OW 9258   9.249   4.644   3.304
 2454SOL    HW1 9259   9.220   4.688   3.224
 2454SOL    HW2 9260   9.219   4.701   3.375
 2455SOL     OW 9261   9.290   2.079   4.916
 2455SOL    HW1 9262   9.377   2.119   4.906
 2455SOL    HW2 9263   9.292   2.040   5.003
 2456SOL     OW 9264   1.652  12.399   6.448
 2456SOL    HW1 9265   1.657  12.492   6.469
 2456SOL    HW2 9266   1.734  12.362   6.481
 2457SOL     OW 9267   7.992   9.765   0.509
 2457SOL    HW1 9268   7.984   9.765   0.414
 2457SOL    HW2 9269   7.908   9.797   0.541
 2458SOL     OW 9270   5.471  12.390  12.833
 2458SOL    HW1 9271   5.563  12.386  12.805
 2458SOL    HW2 9272   5.421  12.393  12.751
 2459SOL     OW 9273   4.810  11.768   9.097
 2459SOL    HW1 9274   4.866  11.784   9.021
 2459SOL    HW2 9275   4.853  11.696   9.143
 2460SOL     OW 9276   9.606  10.417  13.785
 2460SOL    HW1 9277   9.661  10.491  13.814
 2460SOL    HW2 9278   9.669  10.351  13.756
 2461SOL     OW 9279   6.150   9.901  14.166
 2461SOL    HW1 9280   6.202   9.869  14.241
 2461SOL    HW2 9281   6.209   9.891  14.091
 2462SOL     OW 9282   7.059   8.944   8.259
 2462SOL    HW1 9283   7.074   8.850   8.253
 2462SOL    HW2 9284   7.109   8.980   8.185
 2463SOL     OW 9285   4.731  11.774  11.100
 2463SOL    HW1 9286   4.704  11.778  11.192
 2463SOL    HW2 9287   4.710  11.860  11.065
 2464SOL     OW 9288   2.248  10.254   5.303
 2464SOL    HW1 9289   2.218  10.261   5.394
 2464SOL    HW2 9290   2.341  10.272   5.307
 2465SOL     OW 9291  12.409   4.245   6.832
 2465SOL    HW1 9292  12.334   4.205   6.876
 2465SOL    HW2 9293  12.382   4.254   6.740
 2466SOL     OW 9294   6.334   2.205   2.446
 2466SOL    HW1 9295   6.399   2.154   2.396
 2466SOL    HW2 9296   6.259   2.211   2.388
 2467SOL     OW 9297   2.019  13.012   5.256
 2467SOL    HW1 9298   1.973  13.014   5.172
 2467SOL    HW2 9299   1.953  13.034   5.321
 2468SOL     OW 9300   5.267  11.909   7.242
 2468SOL    HW1 9301   5.224  11.929   7.325
 2468SOL    HW2 9302   5.262  11.991   7.193
 2469SOL     OW 9303  14.760   4.924   6.433
 2469SOL    HW1 9304  14.765   4.936   6.339
 2469SOL    HW2 9305  14.832   4.977   6.468
 2470SOL     OW 9306   4.090  14.700   9.271
 2470SOL    HW1 9307   3.995  14.707   9.279
 2470SOL    HW2 9308   4.105  14.612   9.236
 2471SOL     OW 9309  11.556   6.013   1.264
 2471SOL    HW1 9310  11.634   6.022   1.210
 2471SOL    HW2 9311  11.586   6.027   1.354
 2472SOL     OW 9312  10.752  11.640   5.303
 2472SOL    HW1 9313  10.793  11.603   5.226
 2472SOL    HW2 9314  10.663  11.605   5.303
 2473SOL     OW 9315   2.997   9.548   6.851
 2473SOL    HW1 9316   2.981   9.609   6.923
 2473SOL    HW2 9317   2.986   9.462   6.891
 2474SOL     OW 9318   2.526   6.006   3.256
 2474SOL    HW1 9319   2.497   5.931   3.203
 2474SOL    HW2 9320   2.544   5.968   3.343
 2475SOL     OW 9321  11.069   3.293  11.041
 2475SOL    HW1 9322  11.004   3.236  11.000
 2475SOL    HW2 9323  11.144   3.291  10.981
 2476SOL     OW 9324   5.389   8.362   8.822
 2476SOL    HW1 9325   5.314   8.416   8.797
 2476SOL    HW2 9326   5.388   8.363   8.918
 2477SOL     OW 9327   8.487  11.731   7.971
 2477SOL    HW1 9328   8.397  11.736   8.003
 2477SOL    HW2 9329   8.528  11.811   8.001
 2478SOL     OW 9330   9.416   2.211   4.303
 2478SOL    HW1 9331   9.324   2.235   4.314
 2478SOL    HW2 9332   9.452   2.216   4.392
 2479SOL     OW 9333  12.926   3.015   4.980
 2479SOL    HW1 9334  12.998   2.978   4.930
 2479SOL    HW2 9335  12.932   3.109   4.966
 2480SOL     OW 9336   7.475   7.438   5.773
 2480SOL    HW1 9337   7.448   7.519   5.817
 2480SOL    HW2 9338   7.394   7.390   5.758
 2481SOL     OW 9339  13.078  10.000   0.558
 2481SOL    HW1 9340  13.033   9.916   0.553
 2481SOL    HW2 9341  13.015  10.059   0.599
 2482SOL     OW 9342  12.421   3.485   0.047
 2482SOL    HW1 9343  12.453   3.429   0.118
 2482SOL    HW2 9344  12.480   3.467  14.842
 2483SOL     OW 9345   3.676   3.657  13.550
 2483SOL    HW1 9346   3.601   3.599  13.542
 2483SOL    HW2 9347   3.750   3.605  13.517
 2484SOL     OW 9348  12.527   2.142  11.766
 2484SOL    HW1 9349  12.620   2.126  11.782
 2484SOL    HW2 9350  12.483   2.066  11.804
 2485SOL     OW 9351   8.327   0.411  13.615
 2485SOL    HW1 9352   8.420   0.401  13.635
 2485SOL    HW2 9353   8.304   0.497  13.651
 2486SOL     OW 9354   1.339   3.901  14.733
 2486SOL    HW1 9355   1.316   3.854  14.813
 2486SOL    HW2 9356   1.269   3.965  14.722
 2487SOL     OW 9357   3.519   3.193   6.624
 2487SOL    HW1 9358   3.469   3.270   6.596
 2487SOL    HW2 9359   3.523   3.138   6.546
 2488SOL     OW 9360   8.101  12.155   3.369
 2488SOL    HW1 9361   8.184  12.109   3.382
 2488SOL    HW2 9362   8.099  12.172   3.274
 2489SOL     OW 9363   6.114   1.807  13.173
 2489SOL    HW1 9364   6.149   1.719  13.188
 2489SOL    HW2 9365   6.161   1.862  13.236
 2490SOL     OW 9366  11.939  13.641  11.087
 2490SOL    HW1 9367  11.845  13.633  11.099
 2490SOL    HW2 9368  11.963  13.719  11.136
 2491SOL     OW 9369   0.290  14.409  12.504
 2491SOL    HW1 9370   0.293  14.451  12.419
 2491SOL    HW2 9371   0.251  14.323  12.487
 2492SOL     OW 9372  10.069   1.386   1.020
 2492SOL    HW1 9373  10.135   1.339   1.071
 2492SOL    HW2 9374  10.084   1.478   1.040
 2493SOL     OW 9375  12.426   4.196  10.883
 2493SOL    HW1 9376  12.368   4.169  10.812
 2493SOL    HW2 9377  12.496   4.245  10.839
 2494SOL     OW 9378   6.617  10.621  11.142
 2494SOL    HW1 9379   6.586  10.641  11.231
 2494SOL    HW2 9380   6.627  10.526  11.141
 2495SOL     OW 9381   9.831   3.323  10.643
 2495SOL    HW1 9382   9.756   3.300  10.698
 2495SOL    HW2 9383   9.894   3.362  10.703
 2496SOL     OW 9384   3.262  12.448   0.727
 2496SOL    HW1 9385   3.285  12.533   0.691
 2496SOL    HW2 9386   3.190  12.417   0.673
 2497SOL     OW 9387   5.656  13.389   6.899
 2497SOL    HW1 9388   5.662  13.377   6.804
 2497SOL    HW2 9389   5.569  13.356   6.922
 2498SOL     OW 9390  11.102  11.363   4.932
 2498SOL    HW1 9391  11.116  11.278   4.891
 2498SOL    HW2 9392  11.017  11.393   4.899
 2499SOL     OW 9393   6.127   6.254   1.873
 2499SOL    HW1 9394   6.039   6.270   1.907
 2499SOL    HW2 9395   6.184   6.310   1.926
 2500SOL     OW 9396   0.037  13.127   6.217
 2500SOL    HW1 9397  14.847  13.070   6.166
 2500SOL    HW2 9398  14.864  13.131   6.303
 2501SOL     OW 9399   6.729   8.090   4.315
 2501SOL    HW1 9400   6.682   8.124   4.239
 2501SOL    HW2 9401   6.759   8.003   4.287
 2502SOL     OW 9402   6.580  12.908   2.193
 2502SOL    HW1 9403   6.502  12.894   2.140
 2502SOL    HW2 9404   6.548  12.903   2.283
 2503SOL     OW 9405   8.874   3.327   1.887
 2503SOL    HW1 9406   8.893   3.417   1.915
 2503SOL    HW2 9407   8.797   3.335   1.831
 2504SOL     OW 9408  11.764   2.246   6.701
 2504SOL    HW1 9409  11.828   2.304   6.743
 2504SOL    HW2 9410  11.777   2.161   6.743
 2505SOL     OW 9411   6.959  10.353   4.755
 2505SOL    HW1 9412   6.929  10.345   4.846
 2505SOL    HW2 9413   6.932  10.271   4.714
 2506SOL     OW 9414   2.505   1.212   9.989
 2506SOL    HW1 9415   2.566   1.138   9.996
 2506SOL    HW2 9416   2.505   1.252  10.076
 2507SOL     OW 9417   0.154   6.353  10.791
 2507SOL    HW1 9418   0.148   6.343  10.696
 2507SOL    HW2 9419   0.104   6.279  10.827
 2508SOL     OW 9420   1.764  14.774   3.145
 2508SOL    HW1 9421   1.726  14.714   3.208
 2508SOL    HW2 9422   1.800  14.718   3.077
 2509SOL     OW 9423   0.784   6.888  14.397
 2509SOL    HW1 9424   0.747   6.939  14.324
 2509SOL    HW2 9425   0.720   6.818  14.412
 2510SOL     OW 9426   0.223   7.536   0.526
 2510SOL    HW1 9427   0.170   7.504   0.599
 2510SOL    HW2 9428   0.305   7.565   0.566
 2511SOL     OW 9429   3.303   0.642  13.105
 2511SOL    HW1 9430   3.334   0.695  13.179
 2511SOL    HW2 9431   3.373   0.580  13.089
 2512SOL     OW 9432  11.667  13.487  13.165
 2512SOL    HW1 9433  11.649  13.412  13.108
 2512SOL    HW2 9434  11.602  13.552  13.140
 2513SOL     OW 9435  10.371   1.525   2.256
 2513SOL    HW1 9436  10.432   1.597   2.272
 2513SOL    HW2 9437  10.307   1.532   2.326
 2514SOL     OW 9438   2.924   1.485  11.489
 2514SOL    HW1 9439   2.976   1.563  11.469
 2514SOL    HW2 9440   2.989   1.416  11.503
 2515SOL     OW 9441   2.707   8.493   8.398
 2515SOL    HW1 9442   2.673   8.528   8.316
 2515SOL    HW2 9443   2.742   8.568   8.445
 2516SOL     OW 9444  12.436   3.106   7.954
 2516SOL    HW1 9445  12.421   3.143   7.867
 2516SOL    HW2 9446  12.474   3.020   7.937
 2517SOL     OW 9447   4.223   5.388   6.964
 2517SOL    HW1 9448   4.228   5.483   6.959
 2517SOL    HW2 9449   4.302   5.362   7.012
 2518SOL     OW 9450  14.475  11.998   7.635
 2518SOL    HW1 9451  14.444  11.935   7.699
 2518SOL    HW2 9452  14.507  11.945   7.562
 2519SOL     OW 9453   3.911   0.761  10.905
 2519SOL    HW1 9454   3.902   0.837  10.962
 2519SOL    HW2 9455   3.856   0.781  10.829
 2520SOL     OW 9456  11.824  10.737   0.591
 2520SOL    HW1 9457  11.850  10.824   0.559
 2520SOL    HW2 9458  11.785  10.695   0.514
 2521SOL     OW 9459   7.208   3.718   5.322
 2521SOL    HW1 9460   7.240   3.684   5.406
 2521SOL    HW2 9461   7.209   3.643   5.263
 2522SOL     OW 9462  11.809   3.653  12.778
 2522SOL    HW1 9463  11.781   3.587  12.715
 2522SOL    HW2 9464  11.850   3.721  12.725
 2523SOL     OW 9465  11.467  13.609   3.539
 2523SOL    HW1 9466  11.545  13.589   3.591
 2523SOL    HW2 9467  11.501  13.631   3.452
 2524SOL     OW 9468   3.539   2.521   9.679
 2524SOL    HW1 9469   3.543   2.426   9.676
 2524SOL    HW2 9470   3.631   2.549   9.675
 2525SOL     OW 9471   5.186   5.233   3.969
 2525SOL    HW1 9472   5.182   5.219   3.874
 2525SOL    HW2 9473   5.259   5.180   3.999
 2526SOL     OW 9474   4.803   7.192   9.535
 2526SOL    HW1 9475   4.761   7.223   9.454
 2526SOL    HW2 9476   4.810   7.097   9.524
 2527SOL     OW 9477  10.850  13.622  11.221
 2527SOL    HW1 9478  10.919  13.629  11.287
 2527SOL    HW2 9479  10.856  13.704  11.171
 2528SOL     OW 9480   2.054  11.038   3.285
 2528SOL    HW1 9481   2.009  10.990   3.355
 2528SOL    HW2 9482   2.137  10.991   3.273
 2529SOL     OW 9483   5.454   8.535   3.896
 2529SOL    HW1 9484   5.536   8.486   3.902
 2529SOL    HW2 9485   5.388   8.477   3.935
 2530SOL     OW 9486  11.851   2.211  12.550
 2530SOL    HW1 9487  11.937   2.171  12.540
 2530SOL    HW2 9488  11.843   2.270  12.475
 2531SOL     OW 9489  11.580   2.914  10.656
 2531SOL    HW1 9490  11.609   3.005  10.669
 2531SOL    HW2 9491  11.518   2.919  10.583
 2532SOL     OW 9492   4.025   3.846   1.381
 2532SOL    HW1 9493   4.008   3.907   1.452
 2532SOL    HW2 9494   4.099   3.793   1.412
 2533SOL     OW 9495   2.117   1.598   9.797
 2533SOL    HW1 9496   2.156   1.631   9.715
 2533SOL    HW2 9497   2.187   1.608   9.862
 2534SOL     OW 9498   6.521   0.247   6.944
 2534SOL    HW1 9499   6.474   0.298   7.010
 2534SOL    HW2 9500   6.557   0.173   6.992
 2535SOL     OW 9501  10.017  11.836  13.346
 2535SOL    HW1 9502  10.044  11.837  13.438
 2535SOL    HW2 9503   9.923  11.818  13.349
 2536SOL     OW 9504   5.155  11.215   3.466
 2536SOL    HW1 9505   5.215  11.224   3.540
 2536SOL    HW2 9506   5.068  11.225   3.503
 2537SOL     OW 9507  12.008   7.717   0.734
 2537SOL    HW1 9508  11.984   7.777   0.804
 2537SOL    HW2 9509  12.071   7.657   0.773
 2538SOL     OW 9510   8.840  12.846  14.126
 2538SOL    HW1 9511   8.932  12.821  14.121
 2538SOL    HW2 9512   8.795  12.768  14.158
 2539SOL     OW 9513   2.413   1.867  13.710
 2539SOL    HW1 9514   2.363   1.804  13.659
 2539SOL    HW2 9515   2.354   1.942  13.720
 2540SOL     OW 9516  13.400  13.416  11.377
 2540SOL    HW1 9517  13.423  13.331  11.414
 2540SOL    HW2 9518  13.474  13.440  11.322
 2541SOL     OW 9519  12.667   6.308   8.677
 2541SOL    HW1 9520  12.598   6.267   8.728
 2541SOL    HW2 9521  12.663   6.265   8.592
 2542SOL     OW 9522   3.331   3.608   4.580
 2542SOL    HW1 9523   3.385   3.676   4.540
 2542SOL    HW2 9524   3.251   3.653   4.605
 2543SOL     OW 9525   8.298   8.803   3.043
 2543SOL    HW1 9526   8.334   8.721   3.010
 2543SOL    HW2 9527   8.267   8.849   2.965
 2544SOL     OW 9528  11.365   4.645   6.898
 2544SOL    HW1 9529  11.355   4.733   6.935
 2544SOL    HW2 9530  11.319   4.649   6.815
 2545SOL     OW 9531   0.594   7.724   7.453
 2545SOL    HW1 9532   0.634   7.699   7.370
 2545SOL    HW2 9533   0.646   7.679   7.519
 2546SOL     OW 9534   0.067   2.018  12.006
 2546SOL    HW1 9535   0.056   2.003  12.100
 2546SOL    HW2 9536   0.095   1.933  11.972
 2547SOL     OW 9537   7.205   7.786  11.941
 2547SOL    HW1 9538   7.179   7.805  12.031
 2547SOL    HW2 9539   7.296   7.759  11.946
 2548SOL     OW 9540   9.993   9.025   6.828
 2548SOL    HW1 9541  10.047   8.997   6.902
 2548SOL    HW2 9542   9.986   8.947   6.773
 2549SOL     OW 9543   6.002   0.713   5.065
 2549SOL    HW1 9544   5.938   0.706   4.994
 2549SOL    HW2 9545   6.075   0.761   5.026
 2550SOL     OW 9546  13.177   9.083  10.760
 2550SOL    HW1 9547  13.147   9.125  10.840
 2550SOL    HW2 9548  13.119   9.117  10.692
 2551SOL     OW 9549   3.935   6.545   4.293
 2551SOL    HW1 9550   3.883   6.471   4.324
 2551SOL    HW2 9551   3.871   6.605   4.254
 2552SOL     OW 9552   7.702   3.303   3.115
 2552SOL    HW1 9553   7.696   3.372   3.049
 2552SOL    HW2 9554   7.753   3.342   3.186
 2553SOL     OW 9555  10.274   7.472  13.072
 2553SOL    HW1 9556  10.223   7.554  13.074
 2553SOL    HW2 9557  10.227   7.414  13.131
 2554SOL     OW 9558   6.468   0.683   2.261
 2554SOL    HW1 9559   6.490   0.604   2.310
 2554SOL    HW2 9560   6.506   0.755   2.312
 2555SOL     OW 9561  10.382   2.153   2.316
 2555SOL    HW1 9562  10.333   2.206   2.254
 2555SOL    HW2 9563  10.459   2.123   2.268
 2556SOL     OW 9564   3.448   5.680  11.903
 2556SOL    HW1 9565   3.396   5.653  11.828
 2556SOL    HW2 9566   3.456   5.601  11.957
 2557SOL     OW 9567   0.204   6.701   0.309
 2557SOL    HW1 9568   0.289   6.658   0.311
 2557SOL    HW2 9569   0.194   6.730   0.218
 2558SOL     OW 9570   5.836  11.812   2.649
 2558SOL    HW1 9571   5.788  11.789   2.729
 2558SOL    HW2 9572   5.784  11.882   2.609
 2559SOL     OW 9573   4.971   1.425  11.036
 2559SOL    HW1 9574   4.971   1.372  11.116
 2559SOL    HW2 9575   4.951   1.363  10.966
 2560SOL     OW 9576   1.137   1.512   7.013
 2560SOL    HW1 9577   1.219   1.559   7.030
 2560SOL    HW2 9578   1.071   1.581   7.003
 2561SOL     OW 9579  10.309   7.835   5.847
 2561SOL    HW1 9580  10.244   7.782   5.894
 2561SOL    HW2 9581  10.264   7.917   5.828
 2562SOL     OW 9582   5.359   6.698   4.525
 2562SOL    HW1 9583   5.415   6.713   4.602
 2562SOL    HW2 9584   5.276   6.740   4.548
 2563SOL     OW 9585  13.718   2.655  11.177
 2563SOL    HW1 9586  13.625   2.641  11.192
 2563SOL    HW2 9587  13.761   2.582  11.221
 2564SOL     OW 9588   3.173   0.446   2.377
 2564SOL    HW1 9589   3.252   0.430   2.429
 2564SOL    HW2 9590   3.165   0.541   2.374
 2565SOL     OW 9591  13.653   6.000   5.308
 2565SOL    HW1 9592  13.570   6.006   5.259
 2565SOL    HW2 9593  13.697   6.082   5.290
 2566SOL     OW 9594  11.431   8.652   8.611
 2566SOL    HW1 9595  11.395   8.575   8.567
 2566SOL    HW2 9596  11.442   8.625   8.702
 2567SOL     OW 9597   8.766  14.825  10.758
 2567SOL    HW1 9598   8.731  14.822  10.847
 2567SOL    HW2 9599   8.701  14.778  10.705
 2568SOL     OW 9600   3.024   0.002   6.464
 2568SOL    HW1 9601   3.044  14.810   6.392
 2568SOL    HW2 9602   2.979   0.075   6.421
 2569SOL     OW 9603   2.413  10.430   0.213
 2569SOL    HW1 9604   2.349  10.493   0.246
 2569SOL    HW2 9605   2.377  10.399   0.130
 2570SOL     OW 9606   1.389   5.849   7.468
 2570SOL    HW1 9607   1.384   5.867   7.562
 2570SOL    HW2 9608   1.448   5.774   7.461
 2571SOL     OW 9609  13.287   6.995   0.506
 2571SOL    HW1 9610  13.212   6.990   0.447
 2571SOL    HW2 9611  13.333   7.075   0.480
 2572SOL     OW 9612   2.822  14.226  12.192
 2572SOL    HW1 9613   2.868  14.310  12.197
 2572SOL    HW2 9614   2.858  14.183  12.115
 2573SOL     OW 9615   4.345  12.577  13.161
 2573SOL    HW1 9616   4.260  12.547  13.128
 2573SOL    HW2 9617   4.394  12.496  13.175
 2574SOL     OW 9618   7.506  13.718   5.939
 2574SOL    HW1 9619   7.539  13.629   5.928
 2574SOL    HW2 9620   7.505  13.731   6.034
 2575SOL     OW 9621   6.767   8.786   5.314
 2575SOL    HW1 9622   6.676   8.815   5.317
 2575SOL    HW2 9623   6.772   8.717   5.381
 2576SOL     OW 9624  12.180   4.430   7.693
 2576SOL    HW1 9625  12.264   4.390   7.716
 2576SOL    HW2 9626  12.147   4.465   7.775
 2577SOL     OW 9627   7.146   1.992   0.872
 2577SOL    HW1 9628   7.208   1.967   0.941
 2577SOL    HW2 9629   7.200   1.998   0.793
 2578SOL     OW 9630   1.732   6.185   1.719
 2578SOL    HW1 9631   1.707   6.277   1.718
 2578SOL    HW2 9632   1.788   6.174   1.642
 2579SOL     OW 9633   2.443   5.718   2.667
 2579SOL    HW1 9634   2.519   5.745   2.616
 2579SOL    HW2 9635   2.389   5.797   2.673
 2580SOL     OW 9636  13.446  11.196   6.368
 2580SOL    HW1 9637  13.380  11.249   6.323
 2580SOL    HW2 9638  13.529  11.238   6.346
 2581SOL     OW 9639   4.681   4.657  10.192
 2581SOL    HW1 9640   4.755   4.663  10.253
 2581SOL    HW2 9641   4.622   4.727  10.218
 2582SOL     OW 9642   0.206  11.715  12.760
 2582SOL    HW1 9643   0.144  11.710  12.833
 2582SOL    HW2 9644   0.241  11.804  12.764
 2583SOL     OW 9645   5.735   5.907   4.935
 2583SOL    HW1 9646   5.681   5.985   4.923
 2583SOL    HW2 9647   5.701   5.843   4.872
 2584SOL     OW 9648   8.650   4.355  14.661
 2584SOL    HW1 9649   8.577   4.359  14.722
 2584SOL    HW2 9650   8.724   4.390  14.710
 2585SOL     OW 9651   8.867   2.619   9.372
 2585SOL    HW1 9652   8.908   2.602   9.456
 2585SOL    HW2 9653   8.791   2.561   9.370
 2586SOL     OW 9654  10.262  13.708   9.567
 2586SOL    HW1 9655  10.353  13.698   9.598
 2586SOL    HW2 9656  10.269  13.707   9.471
 2587SOL     OW 9657   0.068   8.820   6.188
 2587SOL    HW1 9658   0.016   8.747   6.154
 2587SOL    HW2 9659   0.143   8.778   6.232
 2588SOL     OW 9660   0.752   3.987   3.226
 2588SOL    HW1 9661   0.666   3.948   3.209
 2588SOL    HW2 9662   0.800   3.918   3.272
 2589SOL     OW 9663   7.116   6.058   2.665
 2589SOL    HW1 9664   7.207   6.055   2.694
 2589SOL    HW2 9665   7.087   6.147   2.685
 2590SOL     OW 9666   6.064  14.529   7.016
 2590SOL    HW1 9667   6.125  14.499   6.948
 2590SOL    HW2 9668   6.082  14.472   7.091
 2591SOL     OW 9669   9.727   0.503   3.885
 2591SOL    HW1 9670   9.748   0.519   3.794
 2591SOL    HW2 9671   9.787   0.432   3.911
 2592SOL     OW 9672   5.219   0.729   1.777
 2592SOL    HW1 9673   5.184   0.681   1.702
 2592SOL    HW2 9674   5.313   0.734   1.760
 2593SOL     OW 9675   7.695   7.802  13.455
 2593SOL    HW1 9676   7.720   7.755  13.534
 2593SOL    HW2 9677   7.705   7.738  13.384
 2594SOL     OW 9678  14.151   9.486   8.851
 2594SOL    HW1 9679  14.166   9.412   8.910
 2594SOL    HW2 9680  14.236   9.500   8.808
 2595SOL     OW 9681   8.585   4.275   0.712
 2595SOL    HW1 9682   8.590   4.214   0.785
 2595SOL    HW2 9683   8.601   4.221   0.634
 2596SOL     OW 9684   4.413   7.106  13.998
 2596SOL    HW1 9685   4.507   7.121  14.014
 2596SOL    HW2 9686   4.369   7.160  14.063
 2597SOL     OW 9687   0.359   2.083   3.485
 2597SOL    HW1 9688   0.435   2.077   3.427
 2597SOL    HW2 9689   0.396   2.101   3.572
 2598SOL     OW 9690  12.139   5.813   3.610
 2598SOL    HW1 9691  12.119   5.904   3.589
 2598SOL    HW2 9692  12.231   5.803   3.585
 2599SOL     OW 9693   6.608   1.166   8.572
 2599SOL    HW1 9694   6.569   1.091   8.617
 2599SOL    HW2 9695   6.698   1.169   8.603
 2600SOL     OW 9696  13.055   0.823   1.404
 2600SOL    HW1 9697  13.105   0.776   1.471
 2600SOL    HW2 9698  13.015   0.897   1.450
 2601SOL     OW 9699   0.365  14.751   2.270
 2601SOL    HW1 9700   0.435  14.790   2.217
 2601SOL    HW2 9701   0.319  14.825   2.307
 2602SOL     OW 9702   6.971   9.340  10.566
 2602SOL    HW1 9703   6.907   9.377  10.626
 2602SOL    HW2 9704   6.943   9.249  10.553
 2603SOL     OW 9705   0.905   5.471   0.519
 2603SOL    HW1 9706   0.881   5.432   0.435
 2603SOL    HW2 9707   0.837   5.442   0.580
 2604SOL     OW 9708   0.665  11.919  10.587
 2604SOL    HW1 9709   0.683  12.011  10.604
 2604SOL    HW2 9710   0.719  11.872  10.651
 2605SOL     OW 9711  10.911   9.065   9.323
 2605SOL    HW1 9712  10.995   9.031   9.291
 2605SOL    HW2 9713  10.889   9.010   9.398
 2606SOL     OW 9714   1.321  11.855   0.797
 2606SOL    HW1 9715   1.286  11.938   0.830
 2606SOL    HW2 9716   1.331  11.870   0.703
 2607SOL     OW 9717  12.168   9.886  10.436
 2607SOL    HW1 9718  12.180   9.844  10.522
 2607SOL    HW2 9719  12.177   9.979  10.454
 2608SOL     OW 9720  11.488   1.616   2.174
 2608SOL    HW1 9721  11.577   1.652   2.168
 2608SOL    HW2 9722  11.449   1.636   2.089
 2609SOL     OW 9723   9.662  13.080   8.771
 2609SOL    HW1 9724   9.699  13.002   8.729
 2609SOL    HW2 9725   9.569  13.059   8.782
 2610SOL     OW 9726  14.277   6.449   5.241
 2610SOL    HW1 9727  14.276   6.359   5.274
 2610SOL    HW2 9728  14.304   6.501   5.316
 2611SOL     OW 9729  11.389   9.682  10.825
 2611SOL    HW1 9730  11.295   9.693  10.841
 2611SOL    HW2 9731  11.428   9.680  10.913
 2612SOL     OW 9732   0.243   2.389   0.777
 2612SOL    HW1 9733   0.337   2.374   0.784
 2612SOL    HW2 9734   0.224   2.380   0.683
 2613SOL     OW 9735   0.293   3.196  10.029
 2613SOL    HW1 9736   0.218   3.252  10.048
 2613SOL    HW2 9737   0.256   3.110  10.013
 2614SOL     OW 9738   8.831   6.905  11.915
 2614SOL    HW1 9739   8.909   6.916  11.969
 2614SOL    HW2 9740   8.765   6.962  11.956
 2615SOL     OW 9741   9.988   4.492  11.457
 2615SOL    HW1 9742   9.916   4.446  11.414
 2615SOL    HW2 9743  10.051   4.424  11.478
 2616SOL     OW 9744   0.104   8.863  12.762
 2616SOL    HW1 9745   0.161   8.892  12.833
 2616SOL    HW2 9746   0.047   8.797  12.801
 2617SOL     OW 9747   5.308   8.339   0.411
 2617SOL    HW1 9748   5.214   8.346   0.400
 2617SOL    HW2 9749   5.331   8.258   0.365
 2618SOL     OW 9750  12.820  13.601   4.628
 2618SOL    HW1 9751  12.905  13.563   4.604
 2618SOL    HW2 9752  12.842  13.681   4.675
 2619SOL     OW 9753   3.094   0.060  13.020
 2619SOL    HW1 9754   3.169   0.117  13.005
 2619SOL    HW2 9755   3.024   0.099  12.968
 2620SOL     OW 9756   5.505  12.665   0.251
 2620SOL    HW1 9757   5.495  12.625   0.164
 2620SOL    HW2 9758   5.562  12.606   0.299
 2621SOL     OW 9759  12.004  13.249   9.148
 2621SOL    HW1 9760  12.023  13.341   9.166
 2621SOL    HW2 9761  12.090  13.210   9.132
 2622SOL     OW 9762   7.171   5.452   9.370
 2622SOL    HW1 9763   7.158   5.399   9.291
 2622SOL    HW2 9764   7.133   5.399   9.440
 2623SOL     OW 9765   6.909   2.234  13.902
 2623SOL    HW1 9766   6.962   2.221  13.981
 2623SOL    HW2 9767   6.951   2.180  13.835
 2624SOL     OW 9768   3.257   8.827   7.943
 2624SOL    HW1 9769   3.348   8.804   7.929
 2624SOL    HW2 9770   3.259   8.893   8.012
 2625SOL     OW 9771   7.606   3.832   2.633
 2625SOL    HW1 9772   7.602   3.749   2.680
 2625SOL    HW2 9773   7.514   3.854   2.614
 2626SOL     OW 9774   1.037   9.435   7.411
 2626SOL    HW1 9775   1.106   9.444   7.345
 2626SOL    HW2 9776   1.020   9.525   7.440
 2627SOL     OW 9777   2.606   6.844   7.906
 2627SOL    HW1 9778   2.568   6.774   7.959
 2627SOL    HW2 9779   2.697   6.818   7.892
 2628SOL     OW 9780   0.889   5.186   9.778
 2628SOL    HW1 9781   0.912   5.115   9.717
 2628SOL    HW2 9782   0.795   5.199   9.765
 2629SOL     OW 9783  10.082   3.840   5.845
 2629SOL    HW1 9784   9.997   3.797   5.845
 2629SOL    HW2 9785  10.073   3.913   5.784
 2630SOL     OW 9786  13.470   8.811  13.738
 2630SOL    HW1 9787  13.528   8.816  13.814
 2630SOL    HW2 9788  13.442   8.902  13.723
 2631SOL     OW 9789  13.678   2.946   2.011
 2631SOL    HW1 9790  13.682   3.036   1.979
 2631SOL    HW2 9791  13.746   2.899   1.963
 2632SOL     OW 9792   7.209  12.916   6.015
 2632SOL    HW1 9793   7.125  12.912   6.060
 2632SOL    HW2 9794   7.190  12.963   5.934
 2633SOL     OW 9795   6.805  12.757   5.947
 2633SOL    HW1 9796   6.795  12.728   5.856
 2633SOL    HW2 9797   6.715  12.764   5.980
 2634SOL     OW 9798   5.569   2.098  10.695
 2634SOL    HW1 9799   5.647   2.066  10.649
 2634SOL    HW2 9800   5.556   2.037  10.767
 2635SOL     OW 9801   5.399   0.742   2.370
 2635SOL    HW1 9802   5.335   0.762   2.302
 2635SOL    HW2 9803   5.360   0.775   2.451
 2636SOL     OW 9804   5.606   0.235   2.725
 2636SOL    HW1 9805   5.613   0.183   2.644
 2636SOL    HW2 9806   5.526   0.204   2.766
 2637SOL     OW 9807   6.803  10.925  11.751
 2637SOL    HW1 9808   6.721  10.899  11.710
 2637SOL    HW2 9809   6.790  11.017  11.774
 2638SOL     OW 9810   3.687   4.508   1.837
 2638SOL    HW1 9811   3.594   4.484   1.844
 2638SOL    HW2 9812   3.686   4.604   1.842
 2639SOL     OW 9813   9.049  14.006  14.326
 2639SOL    HW1 9814   9.031  14.036  14.238
 2639SOL    HW2 9815   9.030  14.082  14.382
 2640SOL     OW 9816  13.224  13.047   0.461
 2640SOL    HW1 9817  13.190  13.117   0.406
 2640SOL    HW2 9818  13.146  13.000   0.490
 2641SOL     OW 9819  10.891  11.710  11.185
 2641SOL    HW1 9820  10.921  11.691  11.096
 2641SOL    HW2 9821  10.968  11.696  11.240
 2642SOL     OW 9822  10.086  13.267   8.037
 2642SOL    HW1 9823  10.086  13.315   8.119
 2642SOL    HW2 9824  10.121  13.181   8.060
 2643SOL     OW 9825   1.489   6.860  13.478
 2643SOL    HW1 9826   1.424   6.858  13.547
 2643SOL    HW2 9827   1.520   6.769  13.472
 2644SOL     OW 9828   2.888  13.050   0.378
 2644SOL    HW1 9829   2.936  13.124   0.342
 2644SOL    HW2 9830   2.801  13.085   0.399
 2645SOL     OW 9831   9.688   4.061  14.048
 2645SOL    HW1 9832   9.777   4.061  14.014
 2645SOL    HW2 9833   9.688   4.126  14.119
 2646SOL     OW 9834   4.123   7.403  12.473
 2646SOL    HW1 9835   4.125   7.310  12.453
 2646SOL    HW2 9836   4.047   7.436  12.424
 2647SOL     OW 9837   8.731   0.029   7.394
 2647SOL    HW1 9838   8.814   0.002   7.354
 2647SOL    HW2 9839   8.668   0.028   7.322
 2648SOL     OW 9840   0.292   5.868   9.488
 2648SOL    HW1 9841   0.243   5.872   9.406
 2648SOL    HW2 9842   0.343   5.788   9.482
 2649SOL     OW 9843   3.414   9.645  12.745
 2649SOL    HW1 9844   3.400   9.551  12.762
 2649SOL    HW2 9845   3.458   9.647  12.661
 2650SOL     OW 9846   4.690   0.583   0.779
 2650SOL    HW1 9847   4.708   0.593   0.873
 2650SOL    HW2 9848   4.699   0.671   0.743
 2651SOL     OW 9849   4.799   7.843   0.690
 2651SOL    HW1 9850   4.746   7.808   0.762
 2651SOL    HW2 9851   4.885   7.801   0.701
 2652SOL     OW 9852   8.693   0.973   9.540
 2652SOL    HW1 9853   8.643   1.024   9.603
 2652SOL    HW2 9854   8.785   0.994   9.560
 2653SOL     OW 9855  11.926  11.061  12.862
 2653SOL    HW1 9856  11.950  11.140  12.911
 2653SOL    HW2 9857  11.898  10.999  12.929
 2654SOL     OW 9858   6.709   9.627   8.975
 2654SOL    HW1 9859   6.789   9.574   8.977
 2654SOL    HW2 9860   6.689   9.636   8.882
 2655SOL     OW 9861   0.945   8.089   7.172
 2655SOL    HW1 9862   1.001   8.122   7.242
 2655SOL    HW2 9863   1.005   8.059   7.104
 2656SOL     OW 9864   3.114  10.545  10.953
 2656SOL    HW1 9865   3.046  10.599  10.914
 2656SOL    HW2 9866   3.097  10.457  10.920
 2657SOL     OW 9867   3.314   4.221  11.953
 2657SOL    HW1 9868   3.246   4.258  12.010
 2657SOL    HW2 9869   3.311   4.274  11.874
 2658SOL     OW 9870   7.652   2.370   7.479
 2658SOL    HW1 9871   7.667   2.295   7.422
 2658SOL    HW2 9872   7.683   2.342   7.565
 2659SOL     OW 9873   9.859   2.140   4.196
 2659SOL    HW1 9874   9.873   2.133   4.291
 2659SOL    HW2 9875   9.833   2.052   4.170
 2660SOL     OW 9876   1.564   6.295   8.673
 2660SOL    HW1 9877   1.547   6.338   8.757
 2660SOL    HW2 9878   1.659   6.300   8.662
 2661SOL     OW 9879  10.263   4.481   6.883
 2661SOL    HW1 9880  10.185   4.525   6.847
 2661SOL    HW2 9881  10.326   4.552   6.898
 2662SOL     OW 9882  12.665   9.721   0.234
 2662SOL    HW1 9883  12.721   9.644   0.240
 2662SOL    HW2 9884  12.706   9.784   0.294
 2663SOL     OW 9885  13.113  12.514  14.763
 2663SOL    HW1 9886  13.122  12.520  14.668
 2663SOL    HW2 9887  13.027  12.551  14.781
 2664SOL     OW 9888   4.167   3.648   3.712
 2664SOL    HW1 9889   4.074   3.633   3.695
 2664SOL    HW2 9890   4.170   3.697   3.794
 2665SOL     OW 9891  13.026  12.168   6.286
 2665SOL    HW1 9892  13.033  12.146   6.378
 2665SOL    HW2 9893  13.006  12.262   6.285
 2666SOL     OW 9894   4.191   2.043  14.030
 2666SOL    HW1 9895   4.153   1.991  14.101
 2666SOL    HW2 9896   4.278   2.066  14.062
 2667SOL     OW 9897   4.731  14.705   2.052
 2667SOL    HW1 9898   4.665  14.685   2.118
 2667SOL    HW2 9899   4.682  14.738   1.977
 2668SOL     OW 9900   3.170   1.882   6.473
 2668SOL    HW1 9901   3.118   1.958   6.498
 2668SOL    HW2 9902   3.126   1.846   6.397
 2669SOL     OW 9903   5.083   2.299   2.045
 2669SOL    HW1 9904   5.143   2.344   1.986
 2669SOL    HW2 9905   5.105   2.331   2.132
 2670SOL     OW 9906   3.949  11.450   0.135
 2670SOL    HW1 9907   4.011  11.390   0.093
 2670SOL    HW2 9908   3.980  11.537   0.112
 2671SOL     OW 9909   3.838   5.867   8.488
 2671SOL    HW1 9910   3.853   5.805   8.559
 2671SOL    HW2 9911   3.787   5.818   8.423
 2672SOL     OW 9912  14.387  14.039  14.105
 2672SOL    HW1 9913  14.306  14.074  14.144
 2672SOL    HW2 9914  14.415  14.106  14.044
 2673SOL     OW 9915   4.374   3.658   5.213
 2673SOL    HW1 9916   4.303   3.608   5.253
 2673SOL    HW2 9917   4.338   3.687   5.129
 2674SOL     OW 9918   0.175   7.539  14.626
 2674SOL    HW1 9919   0.096   7.540  14.572
 2674SOL    HW2 9920   0.157   7.475  14.694
 2675SOL     OW 9921  14.443   2.728   6.142
 2675SOL    HW1 9922  14.430   2.635   6.159
 2675SOL    HW2 9923  14.521   2.732   6.087
 2676SOL     OW 9924  12.340   3.907  13.432
 2676SOL    HW1 9925  12.247   3.919  13.410
 2676SOL    HW2 9926  12.385   3.978  13.387
 2677SOL     OW 9927  14.453   6.248   2.143
 2677SOL    HW1 9928  14.532   6.211   2.181
 2677SOL    HW2 9929  14.429   6.187   2.073
 2678SOL     OW 9930   0.786   7.198   9.929
 2678SOL    HW1 9931   0.821   7.286   9.942
 2678SOL    HW2 9932   0.854   7.153   9.879
 2679SOL     OW 9933   8.689  12.542   4.774
 2679SOL    HW1 9934   8.655  12.531   4.863
 2679SOL    HW2 9935   8.781  12.517   4.781
 2680SOL     OW 9936  14.110   2.793   2.314
 2680SOL    HW1 9937  14.036   2.744   2.279
 2680SOL    HW2 9938  14.114   2.873   2.261
 2681SOL     OW 9939  10.569   4.318   5.871
 2681SOL    HW1 9940  10.637   4.331   5.804
 2681SOL    HW2 9941  10.488   4.344   5.827
 2682SOL     OW 9942  12.599   7.993  14.380
 2682SOL    HW1 9943  12.610   8.086  14.397
 2682SOL    HW2 9944  12.673   7.952  14.425
 2683SOL     OW 9945   3.897   4.953   6.853
 2683SOL    HW1 9946   3.992   4.937   6.851
 2683SOL    HW2 9947   3.867   4.905   6.931
 2684SOL     OW 9948  14.048  12.650  14.633
 2684SOL    HW1 9949  14.000  12.705  14.571
 2684SOL    HW2 9950  13.983  12.588  14.666
 2685SOL     OW 9951  12.769   2.119  11.211
 2685SOL    HW1 9952  12.716   2.064  11.154
 2685SOL    HW2 9953  12.841   2.149  11.155
 2686SOL     OW 9954   8.240  14.529  11.428
 2686SOL    HW1 9955   8.148  14.507  11.414
 2686SOL    HW2 9956   8.265  14.580  11.351
 2687SOL     OW 9957  14.405  12.356   7.397
 2687SOL    HW1 9958  14.493  12.322   7.412
 2687SOL    HW2 9959  14.364  12.292   7.339
 2688SOL     OW 9960  12.906  11.944  13.912
 2688SOL    HW1 9961  12.829  11.901  13.876
 2688SOL    HW2 9962  12.929  12.011  13.848
 2689SOL     OW 9963   2.529  11.925   6.018
 2689SOL    HW1 9964   2.562  11.856   5.961
 2689SOL    HW2 9965   2.504  11.996   5.959
 2690SOL     OW 9966   2.590   6.210   0.505
 2690SOL    HW1 9967   2.605   6.244   0.593
 2690SOL    HW2 9968   2.547   6.281   0.459
 2691SOL     OW 9969   0.580   8.010   7.434
 2691SOL    HW1 9970   0.576   7.916   7.449
 2691SOL    HW2 9971   0.615   8.019   7.345
 2692SOL     OW 9972   7.138   3.989   3.571
 2692SOL    HW1 9973   7.173   3.991   3.482
 2692SOL    HW2 9974   7.074   4.061   3.574
 2693SOL     OW 9975   5.730   5.603  11.015
 2693SOL    HW1 9976   5.771   5.686  10.992
 2693SOL    HW2 9977   5.638   5.613  10.989
 2694SOL     OW 9978   0.150   6.976   5.268
 2694SOL    HW1 9979   0.210   6.982   5.194
 2694SOL    HW2 9980   0.071   6.937   5.231
 2695SOL     OW 9981  13.400   3.688  13.739
 2695SOL    HW1 9982  13.335   3.757  13.748
 2695SOL    HW2 9983  13.350   3.607  13.750
 2696SOL     OW 9984  10.348   0.397  14.388
 2696SOL    HW1 9985  10.433   0.438  14.404
 2696SOL    HW2 9986  10.368   0.318  14.338
 2697SOL     OW 9987  14.753   6.120   8.142
 2697SOL    HW1 9988  14.769   6.213   8.160
 2697SOL    HW2 9989  14.827   6.075   8.182
 2698SOL     OW 9990   4.836  13.026   5.989
 2698SOL    HW1 9991   4.850  13.113   6.028
 2698SOL    HW2 9992   4.848  13.040   5.895
 2699SOL     OW 9993   1.320  12.986   0.922
 2699SOL    HW1 9994   1.329  13.081   0.924
 2699SOL    HW2 9995   1.355  12.961   0.837
 2700SOL     OW 9996   1.396   4.172   0.865
 2700SOL    HW1 9997   1.441   4.225   0.931
 2700SOL    HW2 9998   1.361   4.236   0.803
 2701SOL     OW 9999   2.430  14.574   7.322
 2701SOL    HW110000   2.498  14.511   7.348
 2701SOL    HW210001   2.465  14.615   7.243
 2702SOL     OW10002   7.781  13.241   1.314
 2702SOL    HW110003   7.775  13.264   1.222
 2702SOL    HW210004   7.742  13.317   1.359
 2703SOL     OW10005   1.909  10.031   8.646
 2703SOL    HW110006   1.873  10.114   8.615
 2703SOL    HW210007   1.849   9.965   8.610
 2704SOL     OW10008  10.092   0.015  11.611
 2704SOL    HW110009  10.006  14.865  11.575
 2704SOL    HW210010  10.121  14.800  11.648
 2705SOL     OW10011   6.791   8.990   9.141
 2705SOL    HW110012   6.881   9.011   9.167
 2705SOL    HW210013   6.801   8.916   9.081
 2706SOL     OW10014   9.882  13.622   7.263
 2706SOL    HW110015   9.859  13.709   7.229
 2706SOL    HW210016   9.824  13.562   7.218
 2707SOL     OW10017  10.600   0.262   3.772
 2707SOL    HW110018  10.606   0.346   3.726
 2707SOL    HW210019  10.542   0.209   3.718
 2708SOL     OW10020   5.434   8.245   7.557
 2708SOL    HW110021   5.432   8.256   7.652
 2708SOL    HW210022   5.524   8.218   7.537
 2709SOL     OW10023   3.858   9.528   2.757
 2709SOL    HW110024   3.798   9.570   2.695
 2709SOL    HW210025   3.912   9.599   2.790
 2710SOL     OW10026   7.658  13.667   9.406
 2710SOL    HW110027   7.739  13.637   9.445
 2710SOL    HW210028   7.677  13.755   9.375
 2711SOL     OW10029   0.430  11.980   6.610
 2711SOL    HW110030   0.365  11.923   6.651
 2711SOL    HW210031   0.386  12.015   6.532
 2712SOL     OW10032   8.985   1.288  14.411
 2712SOL    HW110033   8.903   1.238  14.416
 2712SOL    HW210034   8.968   1.353  14.342
 2713SOL     OW10035   1.396   4.762  14.759
 2713SOL    HW110036   1.388   4.741  14.666
 2713SOL    HW210037   1.490   4.773  14.774
 2714SOL     OW10038   5.129   2.342   7.043
 2714SOL    HW110039   5.160   2.417   7.095
 2714SOL    HW210040   5.189   2.271   7.066
 2715SOL     OW10041   8.454   5.588   2.060
 2715SOL    HW110042   8.418   5.677   2.063
 2715SOL    HW210043   8.383   5.535   2.023
 2716SOL     OW10044   9.189   1.735   9.001
 2716SOL    HW110045   9.113   1.790   8.977
 2716SOL    HW210046   9.211   1.689   8.920
 2717SOL     OW10047   1.588  11.169   0.593
 2717SOL    HW110048   1.607  11.139   0.682
 2717SOL    HW210049   1.631  11.254   0.587
 2718SOL     OW10050   2.528  13.531  13.485
 2718SOL    HW110051   2.553  13.623  13.487
 2718SOL    HW210052   2.569  13.497  13.406
 2719SOL     OW10053   8.926   7.919   1.586
 2719SOL    HW110054   8.832   7.903   1.595
 2719SOL    HW210055   8.955   7.854   1.522
 2720SOL     OW10056  10.711   7.499  10.106
 2720SOL    HW110057  10.621   7.523  10.081
 2720SOL    HW210058  10.702   7.463  10.194
 2721SOL     OW10059   3.539  14.137  10.363
 2721SOL    HW110060   3.520  14.121  10.271
 2721SOL    HW210061   3.612  14.199  10.362
 2722SOL     OW10062   4.539   4.154  12.313
 2722SOL    HW110063   4.515   4.092  12.244
 2722SOL    HW210064   4.485   4.231  12.296
 2723SOL     OW10065   7.481  11.258   0.331
 2723SOL    HW110066   7.452  11.350   0.331
 2723SOL    HW210067   7.531  11.248   0.250
 2724SOL     OW10068   9.138   8.723   4.334
 2724SOL    HW110069   9.137   8.774   4.414
 2724SOL    HW210070   9.069   8.658   4.346
 2725SOL     OW10071   1.907   8.058   6.051
 2725SOL    HW110072   1.897   7.983   6.110
 2725SOL    HW210073   1.842   8.121   6.083
 2726SOL     OW10074  13.774   6.307   9.746
 2726SOL    HW110075  13.798   6.214   9.752
 2726SOL    HW210076  13.737   6.316   9.658
 2727SOL     OW10077  12.262  14.193  13.359
 2727SOL    HW110078  12.319  14.120  13.331
 2727SOL    HW210079  12.309  14.233  13.432
 2728SOL     OW10080   0.500   4.373   7.420
 2728SOL    HW110081   0.582   4.423   7.414
 2728SOL    HW210082   0.519   4.304   7.483
 2729SOL     OW10083   2.327  14.472   9.578
 2729SOL    HW110084   2.250  14.432   9.539
 2729SOL    HW210085   2.305  14.565   9.586
 2730SOL     OW10086  14.139  13.295   8.853
 2730SOL    HW110087  14.075  13.322   8.788
 2730SOL    HW210088  14.144  13.200   8.843
 2731SOL     OW10089   0.842  11.407   0.674
 2731SOL    HW110090   0.877  11.469   0.610
 2731SOL    HW210091   0.747  11.423   0.674
 2732SOL     OW10092   0.127   2.537   0.035
 2732SOL    HW110093   0.033   2.530   0.023
 2732SOL    HW210094   0.139   2.609   0.097
 2733SOL     OW10095  13.594   7.585   0.611
 2733SOL    HW110096  13.542   7.578   0.691
 2733SOL    HW210097  13.678   7.621   0.640
 2734SOL     OW10098  11.657  14.308   4.056
 2734SOL    HW110099  11.659  14.390   4.106
 2734SOL    HW210100  11.710  14.326   3.978
 2735SOL     OW10101   6.296  11.750   9.366
 2735SOL    HW110102   6.231  11.788   9.426
 2735SOL    HW210103   6.373  11.805   9.378
 2736SOL     OW10104   4.187  12.315   3.956
 2736SOL    HW110105   4.105  12.288   3.997
 2736SOL    HW210106   4.160  12.378   3.889
 2737SOL     OW10107   0.706   5.197  14.174
 2737SOL    HW110108   0.631   5.153  14.134
 2737SOL    HW210109   0.704   5.285  14.136
 2738SOL     OW10110   4.329   0.525   3.256
 2738SOL    HW110111   4.408   0.472   3.265
 2738SOL    HW210112   4.336   0.564   3.169
 2739SOL     OW10113   2.158   9.468  13.797
 2739SOL    HW110114   2.174   9.518  13.718
 2739SOL    HW210115   2.063   9.466  13.807
 2740SOL     OW10116  13.647   9.018  13.373
 2740SOL    HW110117  13.671   9.110  13.373
 2740SOL    HW210118  13.728   8.972  13.394
 2741SOL     OW10119  13.242   0.190  11.803
 2741SOL    HW110120  13.218   0.176  11.894
 2741SOL    HW210121  13.168   0.239  11.766
 2742SOL     OW10122   5.538   0.213   6.208
 2742SOL    HW110123   5.600   0.148   6.244
 2742SOL    HW210124   5.540   0.198   6.114
 2743SOL     OW10125   0.478  12.861   9.533
 2743SOL    HW110126   0.518  12.793   9.586
 2743SOL    HW210127   0.387  12.865   9.563
 2744SOL     OW10128   3.909  10.402   4.485
 2744SOL    HW110129   3.947  10.314   4.480
 2744SOL    HW210130   3.984  10.461   4.473
 2745SOL     OW10131   3.261   6.007   9.733
 2745SOL    HW110132   3.201   5.935   9.713
 2745SOL    HW210133   3.337   5.992   9.677
 2746SOL     OW10134   0.931   5.644   2.547
 2746SOL    HW110135   1.013   5.624   2.503
 2746SOL    HW210136   0.952   5.714   2.609
 2747SOL     OW10137   5.882  13.422   4.624
 2747SOL    HW110138   5.791  13.442   4.607
 2747SOL    HW210139   5.889  13.418   4.719
 2748SOL     OW10140  13.102   8.410   2.014
 2748SOL    HW110141  13.036   8.384   2.079
 2748SOL    HW210142  13.125   8.500   2.038
 2749SOL     OW10143   6.781   7.314  14.782
 2749SOL    HW110144   6.819   7.399  14.805
 2749SOL    HW210145   6.704   7.307  14.838
 2750SOL     OW10146  14.651   1.452   0.123
 2750SOL    HW110147  14.705   1.384   0.162
 2750SOL    HW210148  14.562   1.433   0.155
 2751SOL     OW10149   6.701   2.915  12.672
 2751SOL    HW110150   6.609   2.908  12.699
 2751SOL    HW210151   6.702   2.878  12.583
 2752SOL     OW10152  12.710   1.741   1.875
 2752SOL    HW110153  12.684   1.799   1.803
 2752SOL    HW210154  12.750   1.800   1.940
 2753SOL     OW10155   7.843   8.631   9.224
 2753SOL    HW110156   7.751   8.650   9.209
 2753SOL    HW210157   7.878   8.712   9.263
 2754SOL     OW10158  10.114   9.261   1.869
 2754SOL    HW110159  10.146   9.249   1.958
 2754SOL    HW210160  10.110   9.172   1.833
 2755SOL     OW10161   3.897  12.719  14.203
 2755SOL    HW110162   3.907  12.794  14.145
 2755SOL    HW210163   3.911  12.754  14.291
 2756SOL     OW10164   2.610  14.533   7.942
 2756SOL    HW110165   2.675  14.462   7.942
 2756SOL    HW210166   2.654  14.606   7.898
 2757SOL     OW10167   4.830   6.528  14.547
 2757SOL    HW110168   4.738   6.552  14.531
 2757SOL    HW210169   4.847   6.556  14.637
 2758SOL     OW10170  12.233   0.298   1.663
 2758SOL    HW110171  12.250   0.385   1.699
 2758SOL    HW210172  12.166   0.313   1.595
 2759SOL     OW10173   1.082  11.505  14.569
 2759SOL    HW110174   1.173  11.491  14.542
 2759SOL    HW210175   1.035  11.517  14.487
 2760SOL     OW10176   2.777  13.104   1.890
 2760SOL    HW110177   2.814  13.039   1.830
 2760SOL    HW210178   2.834  13.180   1.880
 2761SOL     OW10179   0.850   0.375  12.902
 2761SOL    HW110180   0.876   0.421  12.982
 2761SOL    HW210181   0.932   0.363  12.854
 2762SOL     OW10182   1.118   2.545   4.444
 2762SOL    HW110183   1.028   2.567   4.421
 2762SOL    HW210184   1.160   2.524   4.360
 2763SOL     OW10185   7.938   5.951   3.245
 2763SOL    HW110186   7.863   5.978   3.299
 2763SOL    HW210187   8.013   5.959   3.304
 2764SOL     OW10188   3.471   3.122   4.236
 2764SOL    HW110189   3.401   3.068   4.198
 2764SOL    HW210190   3.514   3.163   4.161
 2765SOL     OW10191   9.100   2.349   4.894
 2765SOL    HW110192   9.166   2.294   4.852
 2765SOL    HW210193   9.070   2.408   4.825
 2766SOL     OW10194   0.221   1.424   3.287
 2766SOL    HW110195   0.309   1.415   3.325
 2766SOL    HW210196   0.226   1.377   3.204
 2767SOL     OW10197   7.617   3.277  11.661
 2767SOL    HW110198   7.531   3.306  11.633
 2767SOL    HW210199   7.659   3.355  11.698
 2768SOL     OW10200  12.906   1.743   6.029
 2768SOL    HW110201  12.953   1.805   6.084
 2768SOL    HW210202  12.884   1.670   6.087
 2769SOL     OW10203   7.855   2.414   1.066
 2769SOL    HW110204   7.795   2.362   1.121
 2769SOL    HW210205   7.798   2.474   1.019
 2770SOL     OW10206   3.165   9.800   7.045
 2770SOL    HW110207   3.224   9.727   7.027
 2770SOL    HW210208   3.170   9.855   6.967
 2771SOL     OW10209   4.191   6.457   6.808
 2771SOL    HW110210   4.115   6.514   6.819
 2771SOL    HW210211   4.254   6.511   6.760
 2772SOL     OW10212  13.663   2.887   9.462
 2772SOL    HW110213  13.576   2.925   9.475
 2772SOL    HW210214  13.680   2.839   9.543
 2773SOL     OW10215   1.153   5.746   2.250
 2773SOL    HW110216   1.109   5.830   2.234
 2773SOL    HW210217   1.082   5.682   2.251
 2774SOL     OW10218   6.077   2.912  11.939
 2774SOL    HW110219   6.075   2.860  12.019
 2774SOL    HW210220   6.100   3.000  11.968
 2775SOL     OW10221   3.786   6.786  10.689
 2775SOL    HW110222   3.820   6.822  10.770
 2775SOL    HW210223   3.810   6.694  10.691
 2776SOL     OW10224   9.928   3.623   8.063
 2776SOL    HW110225   9.880   3.687   8.115
 2776SOL    HW210226   9.902   3.538   8.099
 2777SOL     OW10227   2.050   3.516   7.410
 2777SOL    HW110228   2.097   3.460   7.348
 2777SOL    HW210229   1.967   3.536   7.366
 2778SOL     OW10230   4.830   7.986   4.893
 2778SOL    HW110231   4.766   7.943   4.950
 2778SOL    HW210232   4.808   8.079   4.898
 2779SOL     OW10233  13.566   6.967  13.640
 2779SOL    HW110234  13.522   6.971  13.725
 2779SOL    HW210235  13.658   6.980  13.659
 2780SOL     OW10236   9.611   4.980  12.996
 2780SOL    HW110237   9.595   4.953  12.906
 2780SOL    HW210238   9.563   5.063  13.005
 2781SOL     OW10239   4.119   1.755   8.646
 2781SOL    HW110240   4.214   1.756   8.650
 2781SOL    HW210241   4.099   1.790   8.559
 2782SOL     OW10242   7.200   9.592  13.942
 2782SOL    HW110243   7.163   9.509  13.912
 2782SOL    HW210244   7.272   9.610  13.881
 2783SOL     OW10245   1.452   5.758  14.737
 2783SOL    HW110246   1.476   5.724  14.651
 2783SOL    HW210247   1.536   5.775  14.780
 2784SOL     OW10248   6.127   7.159   2.443
 2784SOL    HW110249   6.189   7.099   2.485
 2784SOL    HW210250   6.132   7.137   2.350
 2785SOL     OW10251   3.866   9.936   5.282
 2785SOL    HW110252   3.830   9.847   5.275
 2785SOL    HW210253   3.947   9.932   5.231
 2786SOL     OW10254  13.181   1.386  10.368
 2786SOL    HW110255  13.268   1.364  10.404
 2786SOL    HW210256  13.145   1.302  10.339
 2787SOL     OW10257  12.256   2.480   2.020
 2787SOL    HW110258  12.237   2.574   2.019
 2787SOL    HW210259  12.188   2.443   2.076
 2788SOL     OW10260  12.565  14.580   8.370
 2788SOL    HW110261  12.608  14.561   8.287
 2788SOL    HW210262  12.472  14.563   8.354
 2789SOL     OW10263  13.356   4.852   8.264
 2789SOL    HW110264  13.307   4.773   8.287
 2789SOL    HW210265  13.446   4.834   8.292
 2790SOL     OW10266  12.297   9.695   6.958
 2790SOL    HW110267  12.384   9.736   6.962
 2790SOL    HW210268  12.249   9.750   6.896
 2791SOL     OW10269   5.599   0.803  11.222
 2791SOL    HW110270   5.606   0.723  11.170
 2791SOL    HW210271   5.526   0.851  11.182
 2792SOL     OW10272   1.698  12.918   7.427
 2792SOL    HW110273   1.739  12.843   7.383
 2792SOL    HW210274   1.723  12.907   7.519
 2793SOL     OW10275   9.711   1.467   0.042
 2793SOL    HW110276   9.717   1.372   0.049
 2793SOL    HW210277   9.798   1.495   0.013
 2794SOL     OW10278   4.872   3.151   7.612
 2794SOL    HW110279   4.874   3.145   7.517
 2794SOL    HW210280   4.800   3.094   7.639
 2795SOL     OW10281   7.871  14.476   2.755
 2795SOL    HW110282   7.862  14.437   2.668
 2795SOL    HW210283   7.930  14.417   2.801
 2796SOL     OW10284   8.533   1.846   3.880
 2796SOL    HW110285   8.608   1.807   3.925
 2796SOL    HW210286   8.458   1.824   3.934
 2797SOL     OW10287   7.390  10.445   1.715
 2797SOL    HW110288   7.395  10.537   1.742
 2797SOL    HW210289   7.461  10.402   1.764
 2798SOL     OW10290   1.979   8.571   2.208
 2798SOL    HW110291   1.933   8.638   2.258
 2798SOL    HW210292   1.909   8.515   2.173
 2799SOL     OW10293   2.083   5.536   6.517
 2799SOL    HW110294   2.177   5.516   6.520
 2799SOL    HW210295   2.040   5.450   6.518
 2800SOL     OW10296  12.942   1.027  10.122
 2800SOL    HW110297  12.990   1.041  10.040
 2800SOL    HW210298  12.867   0.973  10.097
 2801SOL     OW10299   2.657   0.286   4.773
 2801SOL    HW110300   2.576   0.253   4.812
 2801SOL    HW210301   2.647   0.381   4.775
 2802SOL     OW10302   4.748   7.689  11.293
 2802SOL    HW110303   4.808   7.618  11.269
 2802SOL    HW210304   4.699   7.655  11.368
 2803SOL     OW10305   7.961   2.953   8.375
 2803SOL    HW110306   8.014   2.923   8.449
 2803SOL    HW210307   8.025   2.977   8.308
 2804SOL     OW10308  14.571   5.673   0.265
 2804SOL    HW110309  14.590   5.580   0.255
 2804SOL    HW210310  14.557   5.684   0.359
 2805SOL     OW10311   5.563   0.459   9.471
 2805SOL    HW110312   5.571   0.543   9.426
 2805SOL    HW210313   5.474   0.430   9.453
 2806SOL     OW10314  10.105   6.555   2.492
 2806SOL    HW110315  10.111   6.466   2.457
 2806SOL    HW210316  10.061   6.545   2.577
 2807SOL     OW10317   3.254  14.478   9.320
 2807SOL    HW110318   3.175  14.427   9.303
 2807SOL    HW210319   3.273  14.521   9.236
 2808SOL     OW10320  12.858   6.416  11.571
 2808SOL    HW110321  12.912   6.460  11.506
 2808SOL    HW210322  12.897   6.441  11.655
 2809SOL     OW10323   0.616   1.568   2.081
 2809SOL    HW110324   0.614   1.494   2.142
 2809SOL    HW210325   0.559   1.541   2.009
 2810SOL     OW10326  13.329   4.577  13.043
 2810SOL    HW110327  13.384   4.554  12.968
 2810SOL    HW210328  13.389   4.570  13.118
 2811SOL     OW10329   3.245   4.828  14.552
 2811SOL    HW110330   3.204   4.849  14.636
 2811SOL    HW210331   3.318   4.890  14.545
 2812SOL     OW10332  12.513   2.862   7.905
 2812SOL    HW110333  12.537   2.788   7.961
 2812SOL    HW210334  12.481   2.821   7.824
 2813SOL     OW10335   0.836  11.367   9.527
 2813SOL    HW110336   0.797  11.336   9.446
 2813SOL    HW210337   0.763  11.401   9.578
 2814SOL     OW10338   9.133  10.498   5.284
 2814SOL    HW110339   9.168  10.486   5.196
 2814SOL    HW210340   9.190  10.564   5.324
 2815SOL     OW10341   4.351   8.393   0.810
 2815SOL    HW110342   4.398   8.380   0.892
 2815SOL    HW210343   4.401   8.343   0.745
 2816SOL     OW10344   4.642   0.202   0.043
 2816SOL    HW110345   4.690   0.165  14.837
 2816SOL    HW210346   4.570   0.140   0.059
 2817SOL     OW10347  11.840   1.450   3.200
 2817SOL    HW110348  11.808   1.380   3.142
 2817SOL    HW210349  11.765   1.473   3.254
 2818SOL     OW10350   1.364   6.117  11.658
 2818SOL    HW110351   1.346   6.109  11.565
 2818SOL    HW210352   1.315   6.044  11.698
 2819SOL     OW10353  12.013   2.527   1.604
 2819SOL    HW110354  11.934   2.490   1.643
 2819SOL    HW210355  11.985   2.560   1.518
 2820SOL     OW10356   4.797  10.136  14.186
 2820SOL    HW110357   4.861  10.177  14.245
 2820SOL    HW210358   4.722  10.195  14.186
 2821SOL     OW10359   8.886  11.935  14.769
 2821SOL    HW110360   8.974  11.897  14.766
 2821SOL    HW210361   8.846  11.897  14.848
 2822SOL     OW10362  14.754  10.854   1.948
 2822SOL    HW110363  14.764  10.775   1.895
 2822SOL    HW210364  14.660  10.861   1.963
 2823SOL     OW10365   7.540   8.110   9.251
 2823SOL    HW110366   7.575   8.125   9.338
 2823SOL    HW210367   7.453   8.074   9.266
 2824SOL     OW10368   0.347   1.947  11.382
 2824SOL    HW110369   0.301   2.029  11.366
 2824SOL    HW210370   0.281   1.879  11.368
 2825SOL     OW10371   6.575   5.534   0.811
 2825SOL    HW110372   6.509   5.471   0.841
 2825SOL    HW210373   6.529   5.587   0.745
 2826SOL     OW10374   3.634   2.116  10.186
 2826SOL    HW110375   3.649   2.208  10.166
 2826SOL    HW210376   3.556   2.115  10.241
 2827SOL     OW10377   5.171   7.564   0.877
 2827SOL    HW110378   5.106   7.497   0.855
 2827SOL    HW210379   5.126   7.647   0.862
 2828SOL     OW10380   2.961   4.542   6.346
 2828SOL    HW110381   2.882   4.596   6.355
 2828SOL    HW210382   3.030   4.592   6.389
 2829SOL     OW10383  10.838   5.251   1.411
 2829SOL    HW110384  10.791   5.217   1.487
 2829SOL    HW210385  10.775   5.243   1.339
 2830SOL     OW10386  10.011   9.080   5.677
 2830SOL    HW110387  10.032   9.114   5.590
 2830SOL    HW210388   9.932   9.128   5.703
 2831SOL     OW10389   8.004  12.831   5.923
 2831SOL    HW110390   7.991  12.754   5.869
 2831SOL    HW210391   7.957  12.901   5.877
 2832SOL     OW10392   3.731   0.616   5.273
 2832SOL    HW110393   3.656   0.560   5.295
 2832SOL    HW210394   3.807   0.568   5.305
 2833SOL     OW10395   2.139  13.030   9.124
 2833SOL    HW110396   2.061  13.010   9.072
 2833SOL    HW210397   2.208  13.046   9.060
 2834SOL     OW10398   5.346  14.867  12.244
 2834SOL    HW110399   5.309   0.086  12.258
 2834SOL    HW210400   5.270  14.810  12.235
 2835SOL     OW10401   8.141   8.003  13.115
 2835SOL    HW110402   8.206   7.987  13.183
 2835SOL    HW210403   8.088   7.923  13.114
 2836SOL     OW10404   0.089   9.587   2.192
 2836SOL    HW110405   0.111   9.645   2.120
 2836SOL    HW210406   0.049   9.644   2.258
 2837SOL     OW10407   6.535  11.692   8.145
 2837SOL    HW110408   6.573  11.775   8.175
 2837SOL    HW210409   6.537  11.698   8.050
 2838SOL     OW10410   0.927   2.296  14.670
 2838SOL    HW110411   0.892   2.232  14.608
 2838SOL    HW210412   0.853   2.353  14.691
 2839SOL     OW10413   7.823   8.129   7.871
 2839SOL    HW110414   7.859   8.073   7.802
 2839SOL    HW210415   7.876   8.208   7.867
 2840SOL     OW10416   0.758   0.848  12.516
 2840SOL    HW110417   0.795   0.870  12.430
 2840SOL    HW210418   0.673   0.893  12.518
 2841SOL     OW10419   7.159   7.067   3.896
 2841SOL    HW110420   7.069   7.042   3.876
 2841SOL    HW210421   7.162   7.162   3.881
 2842SOL     OW10422  13.119   9.287   9.967
 2842SOL    HW110423  13.045   9.348   9.973
 2842SOL    HW210424  13.102   9.222  10.035
 2843SOL     OW10425  10.842  11.899  12.618
 2843SOL    HW110426  10.787  11.976  12.632
 2843SOL    HW210427  10.817  11.867  12.531
 2844SOL     OW10428  13.653   9.493   6.042
 2844SOL    HW110429  13.746   9.509   6.028
 2844SOL    HW210430  13.611   9.530   5.964
 2845SOL     OW10431   4.709  12.006   4.156
 2845SOL    HW110432   4.781  12.060   4.125
 2845SOL    HW210433   4.751  11.937   4.207
 2846SOL     OW10434   8.700  12.705  11.778
 2846SOL    HW110435   8.684  12.786  11.730
 2846SOL    HW210436   8.615  12.661  11.780
 2847SOL     OW10437  12.493  14.794   2.786
 2847SOL    HW110438  12.452  14.840   2.859
 2847SOL    HW210439  12.427  14.794   2.717
 2848SOL     OW10440  14.180   9.040  10.851
 2848SOL    HW110441  14.208   8.964  10.901
 2848SOL    HW210442  14.096   9.015  10.813
 2849SOL     OW10443   9.155   4.632   0.636
 2849SOL    HW110444   9.206   4.555   0.662
 2849SOL    HW210445   9.195   4.660   0.554
 2850SOL     OW10446  11.404  10.185   2.208
 2850SOL    HW110447  11.460  10.111   2.233
 2850SOL    HW210448  11.319  10.145   2.191
 2851SOL     OW10449   1.265  12.237   9.974
 2851SOL    HW110450   1.331  12.182  10.017
 2851SOL    HW210451   1.264  12.206   9.883
 2852SOL     OW10452  10.148   8.235   0.937
 2852SOL    HW110453  10.243   8.235   0.944
 2852SOL    HW210454  10.127   8.321   0.900
 2853SOL     OW10455   0.817  13.835   3.569
 2853SOL    HW110456   0.891  13.890   3.595
 2853SOL    HW210457   0.741  13.892   3.577
 2854SOL     OW10458  12.252   2.522   4.892
 2854SOL    HW110459  12.225   2.475   4.813
 2854SOL    HW210460  12.221   2.612   4.878
 2855SOL     OW10461  14.529  13.490   1.945
 2855SOL    HW110462  14.500  13.578   1.971
 2855SOL    HW210463  14.621  13.501   1.922
 2856SOL     OW10464   7.081  13.603   9.340
 2856SOL    HW110465   7.152  13.550   9.304
 2856SOL    HW210466   7.119  13.690   9.352
 2857SOL     OW10467   7.993  11.640  13.193
 2857SOL    HW110468   8.031  11.612  13.109
 2857SOL    HW210469   8.057  11.612  13.258
 2858SOL     OW10470   4.580  11.222  13.848
 2858SOL    HW110471   4.635  11.209  13.925
 2858SOL    HW210472   4.491  11.220  13.881
 2859SOL     OW10473  14.340  10.515   5.733
 2859SOL    HW110474  14.279  10.532   5.805
 2859SOL    HW210475  14.285  10.489   5.660
 2860SOL     OW10476   4.110   9.408   6.166
 2860SOL    HW110477   4.045   9.469   6.130
 2860SOL    HW210478   4.087   9.324   6.127
 2861SOL     OW10479   2.987   7.148   4.314
 2861SOL    HW110480   3.081   7.155   4.294
 2861SOL    HW210481   2.984   7.144   4.410
 2862SOL     OW10482   4.983   7.258  14.307
 2862SOL    HW110483   4.953   7.167  14.307
 2862SOL    HW210484   5.050   7.260  14.376
 2863SOL     OW10485   7.688   5.797   7.303
 2863SOL    HW110486   7.738   5.858   7.358
 2863SOL    HW210487   7.626   5.756   7.362
 2864SOL     OW10488   9.569   0.624  10.236
 2864SOL    HW110489   9.653   0.664  10.259
 2864SOL    HW210490   9.591   0.559  10.170
 2865SOL     OW10491  10.872   8.323   5.210
 2865SOL    HW110492  10.841   8.330   5.119
 2865SOL    HW210493  10.897   8.412   5.233
 2866SOL     OW10494   2.663  11.609   8.106
 2866SOL    HW110495   2.693  11.621   8.016
 2866SOL    HW210496   2.733  11.644   8.160
 2867SOL     OW10497   6.248   6.522   2.483
 2867SOL    HW110498   6.259   6.428   2.470
 2867SOL    HW210499   6.154   6.537   2.473
 2868SOL     OW10500  11.091  11.484  11.176
 2868SOL    HW110501  11.066  11.406  11.126
 2868SOL    HW210502  11.059  11.467  11.265
 2869SOL     OW10503  14.850   1.720  13.388
 2869SOL    HW110504  14.820   1.743  13.300
 2869SOL    HW210505   0.007   1.804  13.427
 2870SOL     OW10506   3.734  13.933   1.248
 2870SOL    HW110507   3.808  13.931   1.309
 2870SOL    HW210508   3.773  13.918   1.162
 2871SOL     OW10509   8.674   9.426   0.623
 2871SOL    HW110510   8.757   9.452   0.664
 2871SOL    HW210511   8.699   9.359   0.559
 2872SOL     OW10512  14.781  12.347   1.874
 2872SOL    HW110513  14.804  12.318   1.785
 2872SOL    HW210514  14.736  12.272   1.912
 2873SOL     OW10515   7.919  11.253   8.414
 2873SOL    HW110516   7.830  11.240   8.448
 2873SOL    HW210517   7.973  11.264   8.493
 2874SOL     OW10518  12.778  13.823   0.052
 2874SOL    HW110519  12.856  13.864   0.015
 2874SOL    HW210520  12.722  13.896   0.076
 2875SOL     OW10521   4.009  12.117   8.557
 2875SOL    HW110522   3.935  12.057   8.554
 2875SOL    HW210523   4.086  12.061   8.547
 2876SOL     OW10524   0.222  13.533   3.796
 2876SOL    HW110525   0.129  13.511   3.796
 2876SOL    HW210526   0.223  13.629   3.797
 2877SOL     OW10527   1.560   3.982   5.332
 2877SOL    HW110528   1.514   4.002   5.413
 2877SOL    HW210529   1.497   4.003   5.263
 2878SOL     OW10530  12.240   1.093   3.149
 2878SOL    HW110531  12.268   1.126   3.235
 2878SOL    HW210532  12.265   1.001   3.150
 2879SOL     OW10533   9.785   9.252  11.268
 2879SOL    HW110534   9.850   9.182  11.281
 2879SOL    HW210535   9.701   9.209  11.283
 2880SOL     OW10536   3.507  13.837  13.166
 2880SOL    HW110537   3.459  13.851  13.248
 2880SOL    HW210538   3.560  13.916  13.156
 2881SOL     OW10539   0.569   4.490   4.929
 2881SOL    HW110540   0.546   4.571   4.973
 2881SOL    HW210541   0.663   4.499   4.911
 2882SOL     OW10542   1.069   1.124  11.176
 2882SOL    HW110543   1.055   1.033  11.203
 2882SOL    HW210544   1.013   1.135  11.099
 2883SOL     OW10545   8.845   2.022   7.334
 2883SOL    HW110546   8.844   2.101   7.387
 2883SOL    HW210547   8.790   1.960   7.382
 2884SOL     OW10548  10.280  12.120   0.599
 2884SOL    HW110549  10.339  12.188   0.633
 2884SOL    HW210550  10.217  12.106   0.670
 2885SOL     OW10551   0.044   4.442  12.893
 2885SOL    HW110552   0.030   4.536  12.903
 2885SOL    HW210553  14.830   4.402  12.923
 2886SOL     OW10554   7.457   6.968   8.045
 2886SOL    HW110555   7.510   6.892   8.071
 2886SOL    HW210556   7.455   6.965   7.950
 2887SOL     OW10557  13.972   7.262   1.339
 2887SOL    HW110558  13.947   7.253   1.247
 2887SOL    HW210559  13.994   7.174   1.367
 2888SOL     OW10560  10.119   6.620  10.887
 2888SOL    HW110561  10.162   6.662  10.961
 2888SOL    HW210562  10.189   6.599  10.826
 2889SOL     OW10563   6.045   9.508   7.702
 2889SOL    HW110564   6.006   9.421   7.712
 2889SOL    HW210565   6.123   9.493   7.649
 2890SOL     OW10566   6.236  11.603  14.793
 2890SOL    HW110567   6.212  11.662  14.722
 2890SOL    HW210568   6.330  11.616  14.805
 2891SOL     OW10569   5.407   6.314   3.461
 2891SOL    HW110570   5.362   6.367   3.395
 2891SOL    HW210571   5.419   6.374   3.535
 2892SOL     OW10572  12.583  13.542   8.097
 2892SOL    HW110573  12.584  13.615   8.034
 2892SOL    HW210574  12.641  13.571   8.168
 2893SOL     OW10575  13.789   6.288   0.381
 2893SOL    HW110576  13.838   6.365   0.351
 2893SOL    HW210577  13.697   6.315   0.375
 2894SOL     OW10578   7.957  10.982   9.054
 2894SOL    HW110579   7.969  11.056   9.113
 2894SOL    HW210580   7.866  10.954   9.068
 2895SOL     OW10581  14.751   3.103  14.153
 2895SOL    HW110582  14.661   3.118  14.125
 2895SOL    HW210583  14.754   3.137  14.243
 2896SOL     OW10584  11.085   2.904  10.371
 2896SOL    HW110585  11.080   2.853  10.290
 2896SOL    HW210586  11.073   2.839  10.440
 2897SOL     OW10587   8.901   7.912   4.291
 2897SOL    HW110588   8.930   7.965   4.217
 2897SOL    HW210589   8.820   7.954   4.320
 2898SOL     OW10590   9.597  12.898   0.830
 2898SOL    HW110591   9.562  12.930   0.913
 2898SOL    HW210592   9.571  12.806   0.826
 2899SOL     OW10593   4.110   3.767   3.179
 2899SOL    HW110594   4.075   3.843   3.226
 2899SOL    HW210595   4.089   3.784   3.087
 2900SOL     OW10596  12.665   7.396   8.290
 2900SOL    HW110597  12.683   7.385   8.383
 2900SOL    HW210598  12.575   7.365   8.280
 2901SOL     OW10599  14.730  12.571   6.261
 2901SOL    HW110600  14.731  12.659   6.222
 2901SOL    HW210601  14.794  12.575   6.332
 2902SOL     OW10602   5.346  13.753  12.264
 2902SOL    HW110603   5.360  13.684  12.199
 2902SOL    HW210604   5.268  13.726  12.312
 2903SOL     OW10605   8.628   1.976   6.331
 2903SOL    HW110606   8.667   1.960   6.245
 2903SOL    HW210607   8.660   1.904   6.385
 2904SOL     OW10608   2.091  14.402   9.971
 2904SOL    HW110609   2.104  14.356   9.888
 2904SOL    HW210610   2.080  14.494   9.947
 2905SOL     OW10611  10.663   4.734   1.464
 2905SOL    HW110612  10.650   4.670   1.394
 2905SOL    HW210613  10.667   4.681   1.544
 2906SOL     OW10614   6.338   3.862   3.957
 2906SOL    HW110615   6.369   3.878   3.868
 2906SOL    HW210616   6.384   3.926   4.011
 2907SOL     OW10617   8.387   9.321   3.438
 2907SOL    HW110618   8.436   9.309   3.520
 2907SOL    HW210619   8.303   9.357   3.465
 2908SOL     OW10620  10.668   8.928   7.871
 2908SOL    HW110621  10.591   8.941   7.816
 2908SOL    HW210622  10.741   8.961   7.818
 2909SOL     OW10623   1.494  13.201   6.133
 2909SOL    HW110624   1.438  13.195   6.210
 2909SOL    HW210625   1.582  13.180   6.165
 2910SOL     OW10626   2.654  11.879   1.180
 2910SOL    HW110627   2.711  11.954   1.162
 2910SOL    HW210628   2.661  11.865   1.274
 2911SOL     OW10629   9.038   5.748   3.196
 2911SOL    HW110630   9.088   5.668   3.180
 2911SOL    HW210631   8.947   5.719   3.201
 2912SOL     OW10632   1.539  13.031  13.353
 2912SOL    HW110633   1.561  13.117  13.387
 2912SOL    HW210634   1.619  12.980  13.360
 2913SOL     OW10635  14.642  10.956   3.494
 2913SOL    HW110636  14.662  10.911   3.576
 2913SOL    HW210637  14.550  10.981   3.501
 2914SOL     OW10638   2.809   4.570  12.305
 2914SOL    HW110639   2.766   4.511  12.367
 2914SOL    HW210640   2.810   4.654  12.349
 2915SOL     OW10641   1.424   8.622   4.409
 2915SOL    HW110642   1.423   8.651   4.318
 2915SOL    HW210643   1.516   8.625   4.435
 2916SOL     OW10644  10.044  13.693   2.051
 2916SOL    HW110645  10.035  13.677   2.145
 2916SOL    HW210646  10.035  13.787   2.042
 2917SOL     OW10647   3.996   0.439  12.807
 2917SOL    HW110648   4.083   0.427  12.770
 2917SOL    HW210649   3.952   0.356  12.792
 2918SOL     OW10650   2.946   9.517  13.887
 2918SOL    HW110651   2.983   9.558  13.809
 2918SOL    HW210652   2.859   9.488  13.859
 2919SOL     OW10653   4.779   5.223   4.499
 2919SOL    HW110654   4.800   5.247   4.589
 2919SOL    HW210655   4.812   5.296   4.446
 2920SOL     OW10656   8.206  10.485  13.062
 2920SOL    HW110657   8.190  10.525  13.147
 2920SOL    HW210658   8.300  10.492  13.048
 2921SOL     OW10659  10.552   5.651   6.242
 2921SOL    HW110660  10.509   5.571   6.213
 2921SOL    HW210661  10.645   5.637   6.224
 2922SOL     OW10662  12.640   0.138   1.238
 2922SOL    HW110663  12.582   0.101   1.171
 2922SOL    HW210664  12.590   0.132   1.319
 2923SOL     OW10665   8.699   2.320   5.009
 2923SOL    HW110666   8.679   2.245   4.952
 2923SOL    HW210667   8.657   2.297   5.092
 2924SOL     OW10668   7.049  10.094  12.729
 2924SOL    HW110669   7.118  10.033  12.753
 2924SOL    HW210670   6.968  10.048  12.748
 2925SOL     OW10671   8.755   6.876  12.598
 2925SOL    HW110672   8.747   6.831  12.514
 2925SOL    HW210673   8.688   6.836  12.654
 2926SOL     OW10674   1.896  11.624   9.503
 2926SOL    HW110675   1.991  11.632   9.490
 2926SOL    HW210676   1.884  11.536   9.537
 2927SOL     OW10677   5.576  12.841   5.013
 2927SOL    HW110678   5.615  12.925   4.989
 2927SOL    HW210679   5.590  12.833   5.107
 2928SOL     OW10680  14.433   9.829   8.943
 2928SOL    HW110681  14.365   9.891   8.969
 2928SOL    HW210682  14.461   9.788   9.024
 2929SOL     OW10683   9.564   4.691  14.755
 2929SOL    HW110684   9.631   4.709  14.689
 2929SOL    HW210685   9.510   4.769  14.755
 2930SOL     OW10686   6.568   6.088   5.074
 2930SOL    HW110687   6.550   6.058   4.985
 2930SOL    HW210688   6.660   6.116   5.071
 2931SOL     OW10689   2.568  13.602   2.042
 2931SOL    HW110690   2.535  13.680   1.998
 2931SOL    HW210691   2.645  13.632   2.090
 2932SOL     OW10692   1.313   1.214   6.589
 2932SOL    HW110693   1.245   1.213   6.521
 2932SOL    HW210694   1.268   1.184   6.668
 2933SOL     OW10695  11.376  11.692   0.366
 2933SOL    HW110696  11.346  11.602   0.378
 2933SOL    HW210697  11.356  11.713   0.275
 2934SOL     OW10698   7.565  10.376   4.698
 2934SOL    HW110699   7.503  10.319   4.743
 2934SOL    HW210700   7.577  10.335   4.612
 2935SOL     OW10701   4.194   1.782   0.062
 2935SOL    HW110702   4.209   1.851   0.127
 2935SOL    HW210703   4.214   1.701   0.109
 2936SOL     OW10704   8.659  12.303   0.694
 2936SOL    HW110705   8.579  12.256   0.718
 2936SOL    HW210706   8.696  12.332   0.777
 2937SOL     OW10707   4.439   7.281   3.076
 2937SOL    HW110708   4.363   7.312   3.126
 2937SOL    HW210709   4.493   7.235   3.141
 2938SOL     OW10710  11.605  12.419  12.886
 2938SOL    HW110711  11.530  12.364  12.863
 2938SOL    HW210712  11.623  12.398  12.978
 2939SOL     OW10713   7.780   7.566   2.664
 2939SOL    HW110714   7.850   7.618   2.704
 2939SOL    HW210715   7.825   7.509   2.601
 2940SOL     OW10716   8.801  10.767  14.444
 2940SOL    HW110717   8.834  10.787  14.356
 2940SOL    HW210718   8.749  10.688  14.433
 2941SOL     OW10719  13.496   4.638   8.023
 2941SOL    HW110720  13.461   4.685   7.948
 2941SOL    HW210721  13.580   4.680   8.040
 2942SOL     OW10722   0.344  13.453   5.192
 2942SOL    HW110723   0.312  13.432   5.280
 2942SOL    HW210724   0.294  13.397   5.133
 2943SOL     OW10725   1.788   6.216   6.290
 2943SOL    HW110726   1.705   6.180   6.257
 2943SOL    HW210727   1.827   6.144   6.341
 2944SOL     OW10728   3.675   9.699   2.608
 2944SOL    HW110729   3.580   9.688   2.603
 2944SOL    HW210730   3.687   9.793   2.623
 2945SOL     OW10731  11.077   0.536   2.731
 2945SOL    HW110732  11.101   0.479   2.658
 2945SOL    HW210733  11.061   0.477   2.804
 2946SOL     OW10734   0.411   3.686   9.708
 2946SOL    HW110735   0.461   3.633   9.770
 2946SOL    HW210736   0.325   3.697   9.748
 2947SOL     OW10737  11.794  11.359  11.973
 2947SOL    HW110738  11.784  11.272  12.013
 2947SOL    HW210739  11.747  11.418  12.031
 2948SOL     OW10740   9.752  13.793  14.094
 2948SOL    HW110741   9.692  13.833  14.031
 2948SOL    HW210742   9.839  13.820  14.065
 2949SOL     OW10743  13.813   3.260  11.585
 2949SOL    HW110744  13.773   3.173  11.594
 2949SOL    HW210745  13.847   3.279  11.673
 2950SOL     OW10746   0.217   0.546   2.742
 2950SOL    HW110747   0.222   0.616   2.807
 2950SOL    HW210748   0.126   0.543   2.716
 2951SOL     OW10749   3.476  11.231   7.137
 2951SOL    HW110750   3.562  11.272   7.128
 2951SOL    HW210751   3.485  11.147   7.092
 2952SOL     OW10752   1.159  10.390  11.106
 2952SOL    HW110753   1.192  10.423  11.022
 2952SOL    HW210754   1.081  10.341  11.083
 2953SOL     OW10755   0.517  10.250  14.804
 2953SOL    HW110756   0.546  10.329  14.759
 2953SOL    HW210757   0.505  10.186  14.734
 2954SOL     OW10758  12.850  10.189   2.561
 2954SOL    HW110759  12.825  10.267   2.512
 2954SOL    HW210760  12.884  10.222   2.644
 2955SOL     OW10761   9.158   6.193  12.865
 2955SOL    HW110762   9.206   6.147  12.935
 2955SOL    HW210763   9.218   6.193  12.791
 2956SOL     OW10764   1.843   3.853   4.646
 2956SOL    HW110765   1.837   3.771   4.595
 2956SOL    HW210766   1.885   3.827   4.728
 2957SOL     OW10767   7.208   1.739   7.225
 2957SOL    HW110768   7.215   1.825   7.184
 2957SOL    HW210769   7.298   1.707   7.230
 2958SOL     OW10770   6.647  13.177  13.198
 2958SOL    HW110771   6.605  13.094  13.221
 2958SOL    HW210772   6.724  13.182  13.255
 2959SOL     OW10773   2.259   9.149   3.333
 2959SOL    HW110774   2.244   9.055   3.323
 2959SOL    HW210775   2.334   9.168   3.277
 2960SOL     OW10776   4.165  10.813  13.810
 2960SOL    HW110777   4.167  10.899  13.770
 2960SOL    HW210778   4.078  10.778  13.789
 2961SOL     OW10779  13.735  13.477   6.997
 2961SOL    HW110780  13.693  13.409   7.050
 2961SOL    HW210781  13.725  13.557   7.048
 2962SOL     OW10782  12.973   3.400   2.495
 2962SOL    HW110783  12.981   3.327   2.557
 2962SOL    HW210784  13.063   3.425   2.476
 2963SOL     OW10785  14.376   4.731  12.372
 2963SOL    HW110786  14.303   4.700  12.425
 2963SOL    HW210787  14.366   4.684  12.289
 2964SOL     OW10788  14.861  14.786   3.589
 2964SOL    HW110789   0.002  14.853   3.656
 2964SOL    HW210790  14.817  14.714   3.633
 2965SOL     OW10791   1.182   8.874  13.215
 2965SOL    HW110792   1.127   8.806  13.176
 2965SOL    HW210793   1.121   8.932  13.260
 2966SOL     OW10794   7.588   8.614   8.081
 2966SOL    HW110795   7.521   8.558   8.122
 2966SOL    HW210796   7.668   8.561   8.084
 2967SOL     OW10797  12.051  11.389   6.498
 2967SOL    HW110798  12.000  11.397   6.579
 2967SOL    HW210799  12.140  11.414   6.523
 2968SOL     OW10800  12.058   0.583   0.478
 2968SOL    HW110801  11.989   0.517   0.482
 2968SOL    HW210802  12.011   0.666   0.489
 2969SOL     OW10803   3.413   9.602   2.604
 2969SOL    HW110804   3.399   9.545   2.528
 2969SOL    HW210805   3.467   9.551   2.664
 2970SOL     OW10806  13.347  13.517  13.511
 2970SOL    HW110807  13.266  13.561  13.537
 2970SOL    HW210808  13.349  13.438  13.565
 2971SOL     OW10809  12.244   3.576   9.253
 2971SOL    HW110810  12.283   3.492   9.276
 2971SOL    HW210811  12.260   3.584   9.159
 2972SOL     OW10812   8.321  10.364   9.093
 2972SOL    HW110813   8.271  10.446   9.084
 2972SOL    HW210814   8.264  10.307   9.145
 2973SOL     OW10815   3.716  12.759  14.676
 2973SOL    HW110816   3.804  12.796  14.686
 2973SOL    HW210817   3.720  12.676  14.722
 2974SOL     OW10818   2.192  14.523  13.842
 2974SOL    HW110819   2.260  14.589  13.855
 2974SOL    HW210820   2.128  14.540  13.912
 2975SOL     OW10821   0.563   6.391   9.251
 2975SOL    HW110822   0.593   6.413   9.163
 2975SOL    HW210823   0.643   6.378   9.301
 2976SOL     OW10824   6.047  10.921  12.388
 2976SOL    HW110825   5.997  10.993  12.350
 2976SOL    HW210826   6.099  10.888  12.315
 2977SOL     OW10827   6.705   7.828   7.101
 2977SOL    HW110828   6.629   7.837   7.158
 2977SOL    HW210829   6.669   7.795   7.018
 2978SOL     OW10830  11.391   4.577   3.301
 2978SOL    HW110831  11.408   4.657   3.252
 2978SOL    HW210832  11.320   4.601   3.361
 2979SOL     OW10833   0.991   6.361  13.885
 2979SOL    HW110834   1.026   6.300  13.820
 2979SOL    HW210835   1.026   6.330  13.969
 2980SOL     OW10836   9.797  10.922   2.891
 2980SOL    HW110837   9.842  11.006   2.883
 2980SOL    HW210838   9.824  10.889   2.976
 2981SOL     OW10839   4.182   0.665   3.433
 2981SOL    HW110840   4.174   0.735   3.369
 2981SOL    HW210841   4.241   0.602   3.392
 2982SOL     OW10842   3.001   3.508   3.212
 2982SOL    HW110843   2.993   3.550   3.127
 2982SOL    HW210844   3.078   3.549   3.252
 2983SOL     OW10845   5.961  11.452   0.731
 2983SOL    HW110846   5.885  11.469   0.786
 2983SOL    HW210847   5.992  11.539   0.707
 2984SOL     OW10848  13.462   7.641   2.055
 2984SOL    HW110849  13.518   7.609   2.127
 2984SOL    HW210850  13.454   7.566   1.996
 2985SOL     OW10851  14.370   0.796  11.611
 2985SOL    HW110852  14.276   0.813  11.604
 2985SOL    HW210853  14.401   0.795  11.520
 2986SOL     OW10854   8.949  10.999   5.533
 2986SOL    HW110855   9.000  11.046   5.599
 2986SOL    HW210856   8.862  10.990   5.572
 2987SOL     OW10857  13.417   3.242  14.615
 2987SOL    HW110858  13.383   3.226  14.703
 2987SOL    HW210859  13.387   3.331  14.594
 2988SOL     OW10860   7.634  14.152  13.480
 2988SOL    HW110861   7.681  14.235  13.487
 2988SOL    HW210862   7.652  14.107  13.562
 2989SOL     OW10863  12.401   0.688  10.689
 2989SOL    HW110864  12.411   0.727  10.776
 2989SOL    HW210865  12.375   0.761  10.633
 2990SOL     OW10866   2.471   5.487  11.498
 2990SOL    HW110867   2.564   5.503  11.480
 2990SOL    HW210868   2.425   5.553  11.446
 2991SOL     OW10869   8.350   2.876   6.186
 2991SOL    HW110870   8.257   2.860   6.174
 2991SOL    HW210871   8.368   2.954   6.133
 2992SOL     OW10872   7.060  10.460   2.372
 2992SOL    HW110873   7.092  10.474   2.462
 2992SOL    HW210874   6.966  10.477   2.376
 2993SOL     OW10875  11.745  12.620   8.237
 2993SOL    HW110876  11.747  12.661   8.150
 2993SOL    HW210877  11.739  12.694   8.298
 2994SOL     OW10878   0.928   7.358   0.051
 2994SOL    HW110879   0.950   7.402  14.837
 2994SOL    HW210880   0.927   7.427   0.117
 2995SOL     OW10881  10.603   3.968  12.807
 2995SOL    HW110882  10.514   3.974  12.841
 2995SOL    HW210883  10.593   3.958  12.712
 2996SOL     OW10884   1.406   8.134  10.362
 2996SOL    HW110885   1.482   8.167  10.313
 2996SOL    HW210886   1.429   8.043  10.382
 2997SOL     OW10887   7.666   0.878   7.539
 2997SOL    HW110888   7.695   0.899   7.450
 2997SOL    HW210889   7.581   0.921   7.546
 2998SOL     OW10890   4.966  10.235  13.936
 2998SOL    HW110891   4.913  10.201  13.864
 2998SOL    HW210892   4.966  10.165  14.001
 2999SOL     OW10893   0.343   5.702   4.631
 2999SOL    HW110894   0.306   5.621   4.596
 2999SOL    HW210895   0.276   5.734   4.692
 3000SOL     OW10896   1.013  12.355   7.180
 3000SOL    HW110897   0.973  12.268   7.174
 3000SOL    HW210898   1.082  12.346   7.245
 3001SOL     OW10899   0.198   0.128  10.864
 3001SOL    HW110900   0.265   0.075  10.822
 3001SOL    HW210901   0.144   0.161  10.792
 3002SOL     OW10902  10.135   8.418  13.603
 3002SOL    HW110903  10.108   8.447  13.689
 3002SOL    HW210904  10.058   8.431  13.547
 3003SOL     OW10905   9.055   2.784  10.497
 3003SOL    HW110906   9.089   2.808  10.583
 3003SOL    HW210907   8.964   2.757  10.514
 3004SOL     OW10908  13.182   0.300   3.333
 3004SOL    HW110909  13.107   0.359   3.337
 3004SOL    HW210910  13.221   0.304   3.420
 3005SOL     OW10911  11.128  12.709   8.392
 3005SOL    HW110912  11.067  12.647   8.352
 3005SOL    HW210913  11.198  12.718   8.327
 3006SOL     OW10914  13.469   5.013   8.061
 3006SOL    HW110915  13.418   4.976   8.133
 3006SOL    HW210916  13.413   5.082   8.025
 3007SOL     OW10917  10.539   9.467   1.222
 3007SOL    HW110918  10.620   9.423   1.196
 3007SOL    HW210919  10.545   9.473   1.317
 3008SOL     OW10920   1.306  13.121  14.408
 3008SOL    HW110921   1.255  13.046  14.437
 3008SOL    HW210922   1.301  13.117  14.312
 3009SOL     OW10923   1.539   7.246  11.976
 3009SOL    HW110924   1.480   7.185  12.020
 3009SOL    HW210925   1.626   7.210  11.991
 3010SOL     OW10926  12.994   4.582   6.577
 3010SOL    HW110927  13.050   4.645   6.531
 3010SOL    HW210928  12.913   4.630   6.595
 3011SOL     OW10929  14.408   8.977  12.642
 3011SOL    HW110930  14.370   8.936  12.564
 3011SOL    HW210931  14.388   9.070  12.632
 3012SOL     OW10932   9.895   5.263  10.643
 3012SOL    HW110933   9.965   5.205  10.672
 3012SOL    HW210934   9.912   5.346  10.688
 3013SOL     OW10935   9.059  11.431   1.737
 3013SOL    HW110936   9.084  11.401   1.650
 3013SOL    HW210937   9.000  11.363   1.770
 3014SOL     OW10938   2.635   1.325   8.468
 3014SOL    HW110939   2.726   1.293   8.472
 3014SOL    HW210940   2.599   1.304   8.554
 3015SOL     OW10941  14.553   9.691   3.088
 3015SOL    HW110942  14.630   9.642   3.115
 3015SOL    HW210943  14.486   9.666   3.152
 3016SOL     OW10944  13.169   7.776  14.174
 3016SOL    HW110945  13.239   7.840  14.184
 3016SOL    HW210946  13.090   7.829  14.160
 3017SOL     OW10947   3.958   6.550   0.953
 3017SOL    HW110948   4.035   6.607   0.961
 3017SOL    HW210949   3.949   6.511   1.040
 3018SOL     OW10950   1.145   9.665   7.930
 3018SOL    HW110951   1.155   9.592   7.992
 3018SOL    HW210952   1.052   9.662   7.906
 3019SOL     OW10953   8.355   4.588  14.012
 3019SOL    HW110954   8.426   4.649  13.991
 3019SOL    HW210955   8.277   4.629  13.975
 3020SOL     OW10956  11.203  13.835   3.506
 3020SOL    HW110957  11.179  13.805   3.418
 3020SOL    HW210958  11.239  13.758   3.549
 3021SOL     OW10959  14.851  10.364  11.195
 3021SOL    HW110960  14.771  10.392  11.148
 3021SOL    HW210961   0.016  10.444  11.236
 3022SOL     OW10962   6.622  10.558  13.346
 3022SOL    HW110963   6.615  10.650  13.371
 3022SOL    HW210964   6.647  10.513  13.427
 3023SOL     OW10965  14.721   4.811   3.867
 3023SOL    HW110966  14.684   4.738   3.818
 3023SOL    HW210967  14.806   4.827   3.826
 3024SOL     OW10968   8.377   5.699   7.341
 3024SOL    HW110969   8.421   5.671   7.261
 3024SOL    HW210970   8.284   5.682   7.325
 3025SOL     OW10971  10.798   8.721   1.746
 3025SOL    HW110972  10.721   8.664   1.739
 3025SOL    HW210973  10.840   8.716   1.661
 3026SOL     OW10974   7.537   3.625  14.396
 3026SOL    HW110975   7.582   3.657  14.474
 3026SOL    HW210976   7.445   3.618  14.423
 3027SOL     OW10977   7.211   4.794   0.357
 3027SOL    HW110978   7.205   4.815   0.264
 3027SOL    HW210979   7.301   4.816   0.380
 3028SOL     OW10980   4.722  10.151   8.259
 3028SOL    HW110981   4.713  10.119   8.349
 3028SOL    HW210982   4.759  10.239   8.268
 3029SOL     OW10983   6.650  10.903   6.765
 3029SOL    HW110984   6.693  10.982   6.797
 3029SOL    HW210985   6.704  10.831   6.797
 3030SOL     OW10986   7.119  14.693  14.154
 3030SOL    HW110987   7.188  14.750  14.118
 3030SOL    HW210988   7.142  14.683  14.246
 3031SOL     OW10989   8.299   1.562   9.075
 3031SOL    HW110990   8.235   1.631   9.092
 3031SOL    HW210991   8.305   1.513   9.157
 3032SOL     OW10992   2.899  12.926   1.695
 3032SOL    HW110993   2.878  12.926   1.602
 3032SOL    HW210994   2.871  12.840   1.726
 3033SOL     OW10995  14.551  12.208  10.905
 3033SOL    HW110996  14.543  12.232  10.812
 3033SOL    HW210997  14.497  12.130  10.914
 3034SOL     OW10998   0.489   3.995  12.920
 3034SOL    HW110999   0.452   4.056  12.857
 3034SOL    HW211000   0.579   3.980  12.890
 3035SOL     OW11001  13.353   2.007   5.886
 3035SOL    HW111002  13.316   2.095   5.889
 3035SOL    HW211003  13.326   1.966   5.968
 3036SOL     OW11004   5.903  13.421   9.980
 3036SOL    HW111005   5.977  13.364   9.959
 3036SOL    HW211006   5.934  13.509   9.960
 3037SOL     OW11007  14.507  12.648  13.816
 3037SOL    HW111008  14.453  12.622  13.890
 3037SOL    HW211009  14.482  12.739  13.799
 3038SOL     OW11010  11.948   8.718   8.229
 3038SOL    HW111011  11.990   8.766   8.158
 3038SOL    HW211012  11.935   8.783   8.298
 3039SOL     OW11013   7.888   8.287   3.446
 3039SOL    HW111014   7.881   8.231   3.523
 3039SOL    HW211015   7.798   8.316   3.431
 3040SOL     OW11016   9.947   4.482   6.034
 3040SOL    HW111017   9.861   4.499   6.072
 3040SOL    HW211018  10.001   4.454   6.108
 3041SOL     OW11019   1.269   4.274   8.339
 3041SOL    HW111020   1.339   4.293   8.402
 3041SOL    HW211021   1.281   4.340   8.271
 3042SOL     OW11022   7.267   7.874   5.152
 3042SOL    HW111023   7.304   7.949   5.105
 3042SOL    HW211024   7.326   7.801   5.130
 3043SOL     OW11025   0.617   4.739   3.134
 3043SOL    HW111026   0.576   4.807   3.081
 3043SOL    HW211027   0.711   4.750   3.118
 3044SOL     OW11028   0.273  10.102   5.420
 3044SOL    HW111029   0.231  10.122   5.503
 3044SOL    HW211030   0.252  10.176   5.364
 3045SOL     OW11031   0.451  10.157  11.393
 3045SOL    HW111032   0.451  10.063  11.372
 3045SOL    HW211033   0.504  10.163  11.473
 3046SOL     OW11034  14.579  11.732   4.475
 3046SOL    HW111035  14.532  11.800   4.524
 3046SOL    HW211036  14.621  11.778   4.403
 3047SOL     OW11037  10.131   8.734  13.241
 3047SOL    HW111038  10.146   8.713  13.149
 3047SOL    HW211039  10.181   8.667  13.289
 3048SOL     OW11040   4.438   5.021  10.044
 3048SOL    HW111041   4.413   5.034   9.952
 3048SOL    HW211042   4.354   5.012  10.090
 3049SOL     OW11043   0.521  11.485   0.126
 3049SOL    HW111044   0.512  11.567   0.173
 3049SOL    HW211045   0.499  11.506   0.036
 3050SOL     OW11046   4.344   7.531   2.059
 3050SOL    HW111047   4.366   7.560   1.970
 3050SOL    HW211048   4.377   7.441   2.063
 3051SOL     OW11049  10.532  13.353   4.733
 3051SOL    HW111050  10.588  13.429   4.717
 3051SOL    HW211051  10.539  13.336   4.826
 3052SOL     OW11052  12.073   4.039  13.832
 3052SOL    HW111053  12.041   3.955  13.797
 3052SOL    HW211054  12.158   4.051  13.791
 3053SOL     OW11055   0.206   1.494   5.526
 3053SOL    HW111056   0.286   1.444   5.513
 3053SOL    HW211057   0.209   1.522   5.617
 3054SOL     OW11058  13.782   9.652  13.817
 3054SOL    HW111059  13.823   9.726  13.862
 3054SOL    HW211060  13.755   9.688  13.733
 3055SOL     OW11061  10.016   6.588   0.570
 3055SOL    HW111062  10.104   6.552   0.581
 3055SOL    HW211063  10.030   6.676   0.535
 3056SOL     OW11064  14.142   1.567   1.959
 3056SOL    HW111065  14.166   1.500   2.024
 3056SOL    HW211066  14.107   1.517   1.885
 3057SOL     OW11067   9.231   8.725   2.751
 3057SOL    HW111068   9.187   8.753   2.671
 3057SOL    HW211069   9.197   8.638   2.770
 3058SOL     OW11070   3.415   2.397   2.307
 3058SOL    HW111071   3.487   2.453   2.334
 3058SOL    HW211072   3.381   2.359   2.388
 3059SOL     OW11073   2.927   9.379   0.974
 3059SOL    HW111074   3.018   9.399   0.951
 3059SOL    HW211075   2.897   9.321   0.903
 3060SOL     OW11076   7.602   8.826   2.326
 3060SOL    HW111077   7.597   8.825   2.422
 3060SOL    HW211078   7.659   8.900   2.305
 3061SOL     OW11079  10.244  14.478   9.523
 3061SOL    HW111080  10.325  14.427   9.523
 3061SOL    HW211081  10.175  14.412   9.513
 3062SOL     OW11082   3.878   9.251   4.192
 3062SOL    HW111083   3.862   9.265   4.099
 3062SOL    HW211084   3.938   9.176   4.195
 3063SOL     OW11085   1.303  13.095  12.066
 3063SOL    HW111086   1.350  13.164  12.019
 3063SOL    HW211087   1.251  13.142  12.132
 3064SOL     OW11088   3.150   6.782   1.520
 3064SOL    HW111089   3.079   6.730   1.481
 3064SOL    HW211090   3.106   6.861   1.552
 3065SOL     OW11091  11.056  14.322  12.857
 3065SOL    HW111092  11.110  14.245  12.876
 3065SOL    HW211093  11.037  14.360  12.942
 3066SOL     OW11094   8.673   5.774  10.227
 3066SOL    HW111095   8.615   5.837  10.271
 3066SOL    HW211096   8.701   5.820  10.148
 3067SOL     OW11097   5.587   3.105  10.177
 3067SOL    HW111098   5.534   3.145  10.109
 3067SOL    HW211099   5.545   3.130  10.260
 3068SOL     OW11100  13.010  14.575   2.317
 3068SOL    HW111101  12.929  14.561   2.268
 3068SOL    HW211102  13.067  14.623   2.257
 3069SOL     OW11103   8.921   8.113  14.273
 3069SOL    HW111104   8.838   8.117  14.322
 3069SOL    HW211105   8.979   8.062  14.330
 3070SOL     OW11106  13.092   2.445   9.100
 3070SOL    HW111107  13.036   2.467   9.025
 3070SOL    HW211108  13.165   2.508   9.094
 3071SOL     OW11109  13.426   8.924  12.325
 3071SOL    HW111110  13.438   8.975  12.406
 3071SOL    HW211111  13.507   8.873  12.318
 3072SOL     OW11112   1.714   8.984  10.412
 3072SOL    HW111113   1.712   9.054  10.478
 3072SOL    HW211114   1.763   9.021  10.339
 3073SOL     OW11115   8.993   7.971   5.086
 3073SOL    HW111116   9.024   7.882   5.104
 3073SOL    HW211117   9.024   8.023   5.160
 3074SOL     OW11118   4.356   8.689   9.928
 3074SOL    HW111119   4.265   8.664   9.910
 3074SOL    HW211120   4.393   8.710   9.843
 3075SOL     OW11121   4.588  12.326   9.588
 3075SOL    HW111122   4.521  12.391   9.610
 3075SOL    HW211123   4.541  12.243   9.590
 3076SOL     OW11124   7.606   5.992   5.512
 3076SOL    HW111125   7.596   6.085   5.534
 3076SOL    HW211126   7.519   5.964   5.486
 3077SOL     OW11127   7.023  11.795  11.435
 3077SOL    HW111128   7.046  11.821  11.524
 3077SOL    HW211129   6.976  11.713  11.445
 3078SOL     OW11130  10.397   2.613  12.801
 3078SOL    HW111131  10.404   2.555  12.877
 3078SOL    HW211132  10.486   2.643  12.785
 3079SOL     OW11133   1.440   8.346   4.096
 3079SOL    HW111134   1.535   8.336   4.103
 3079SOL    HW211135   1.413   8.377   4.182
 3080SOL     OW11136  11.500  11.737   9.915
 3080SOL    HW111137  11.584  11.731   9.960
 3080SOL    HW211138  11.440  11.771   9.981
 3081SOL     OW11139   3.761   2.118   6.165
 3081SOL    HW111140   3.735   2.135   6.256
 3081SOL    HW211141   3.701   2.049   6.136
 3082SOL     OW11142  12.808  11.399  12.844
 3082SOL    HW111143  12.842  11.373  12.929
 3082SOL    HW211144  12.765  11.320  12.810
 3083SOL     OW11145  14.746   3.053   1.689
 3083SOL    HW111146  14.688   3.128   1.700
 3083SOL    HW211147  14.689   2.977   1.700
 3084SOL     OW11148   8.938   1.439  10.781
 3084SOL    HW111149   8.931   1.479  10.695
 3084SOL    HW211150   8.911   1.348  10.768
 3085SOL     OW11151   2.571   9.631  14.759
 3085SOL    HW111152   2.580   9.726  14.763
 3085SOL    HW211153   2.572   9.602  14.850
 3086SOL     OW11154   8.278   2.640  11.412
 3086SOL    HW111155   8.298   2.576  11.344
 3086SOL    HW211156   8.363   2.675  11.438
 3087SOL     OW11157   7.826   6.873   2.831
 3087SOL    HW111158   7.752   6.865   2.891
 3087SOL    HW211159   7.786   6.896   2.747
 3088SOL     OW11160   6.177   8.825  13.903
 3088SOL    HW111161   6.133   8.844  13.986
 3088SOL    HW211162   6.270   8.840  13.921
 3089SOL     OW11163   8.224   2.046  10.705
 3089SOL    HW111164   8.278   2.126  10.710
 3089SOL    HW211165   8.221   2.014  10.795
 3090SOL     OW11166   6.801  10.431   1.896
 3090SOL    HW111167   6.795  10.350   1.845
 3090SOL    HW211168   6.856  10.407   1.971
 3091SOL     OW11169  10.881  12.141   5.634
 3091SOL    HW111170  10.971  12.118   5.611
 3091SOL    HW211171  10.832  12.130   5.553
 3092SOL     OW11172   4.605   3.922   0.582
 3092SOL    HW111173   4.578   3.831   0.574
 3092SOL    HW211174   4.542   3.971   0.529
 3093SOL     OW11175  11.474   2.790  14.356
 3093SOL    HW111176  11.505   2.712  14.310
 3093SOL    HW211177  11.551   2.820  14.405
 3094SOL     OW11178   3.835   7.470   4.765
 3094SOL    HW111179   3.810   7.377   4.771
 3094SOL    HW211180   3.907   7.471   4.702
 3095SOL     OW11181   7.373   8.432   2.608
 3095SOL    HW111182   7.371   8.528   2.606
 3095SOL    HW211183   7.458   8.410   2.646
 3096SOL     OW11184   9.866   3.780   5.504
 3096SOL    HW111185   9.907   3.693   5.497
 3096SOL    HW211186   9.777   3.762   5.534
 3097SOL     OW11187   0.188  11.088   3.210
 3097SOL    HW111188   0.106  11.066   3.255
 3097SOL    HW211189   0.171  11.066   3.118
 3098SOL     OW11190  11.761   2.089   7.570
 3098SOL    HW111191  11.698   2.099   7.498
 3098SOL    HW211192  11.724   2.142   7.641
 3099SOL     OW11193   1.170   5.311   6.564
 3099SOL    HW111194   1.207   5.239   6.616
 3099SOL    HW211195   1.085   5.278   6.534
 3100SOL     OW11196  12.030   6.887   5.889
 3100SOL    HW111197  11.972   6.838   5.832
 3100SOL    HW211198  12.049   6.828   5.962
 3101SOL     OW11199   3.742  10.643   2.553
 3101SOL    HW111200   3.695  10.560   2.550
 3101SOL    HW211201   3.779  10.653   2.465
 3102SOL     OW11202   6.684   2.121   6.356
 3102SOL    HW111203   6.628   2.043   6.358
 3102SOL    HW211204   6.733   2.114   6.275
 3103SOL     OW11205   0.378   7.535  11.432
 3103SOL    HW111206   0.298   7.482  11.434
 3103SOL    HW211207   0.443   7.482  11.478
 3104SOL     OW11208   4.876  11.342   9.514
 3104SOL    HW111209   4.865  11.434   9.539
 3104SOL    HW211210   4.941  11.344   9.444
 3105SOL     OW11211   1.306   4.089  14.475
 3105SOL    HW111212   1.243   4.127  14.413
 3105SOL    HW211213   1.367   4.040  14.421
 3106SOL     OW11214   1.260   2.091   9.659
 3106SOL    HW111215   1.190   2.037   9.622
 3106SOL    HW211216   1.330   2.029   9.679
 3107SOL     OW11217   0.199   8.096   8.659
 3107SOL    HW111218   0.108   8.123   8.655
 3107SOL    HW211219   0.201   8.009   8.618
 3108SOL     OW11220   5.234   8.549  10.239
 3108SOL    HW111221   5.176   8.611  10.195
 3108SOL    HW211222   5.212   8.557  10.332
 3109SOL     OW11223   7.456   2.702  11.425
 3109SOL    HW111224   7.504   2.647  11.487
 3109SOL    HW211225   7.525   2.745  11.374
 3110SOL     OW11226   6.846   3.140  12.597
 3110SOL    HW111227   6.809   3.203  12.659
 3110SOL    HW211228   6.802   3.058  12.617
 3111SOL     OW11229   3.300   9.799   6.569
 3111SOL    HW111230   3.290   9.812   6.475
 3111SOL    HW211231   3.391   9.771   6.580
 3112SOL     OW11232   7.649   2.484   4.009
 3112SOL    HW111233   7.567   2.533   4.022
 3112SOL    HW211234   7.621   2.395   3.990
 3113SOL     OW11235  10.531  13.720  11.302
 3113SOL    HW111236  10.559  13.690  11.216
 3113SOL    HW211237  10.553  13.648  11.361
 3114SOL     OW11238   4.120  12.013   2.042
 3114SOL    HW111239   4.150  12.048   1.958
 3114SOL    HW211240   4.174  12.057   2.108
 3115SOL     OW11241   8.857  12.581   1.970
 3115SOL    HW111242   8.857  12.504   2.027
 3115SOL    HW211243   8.925  12.637   2.005
 3116SOL     OW11244   5.602   6.682  12.582
 3116SOL    HW111245   5.545   6.637  12.519
 3116SOL    HW211246   5.681   6.703  12.531
 3117SOL     OW11247   8.602  13.289  10.333
 3117SOL    HW111248   8.541  13.263  10.264
 3117SOL    HW211249   8.689  13.270  10.298
 3118SOL     OW11250  10.343   9.860   7.166
 3118SOL    HW111251  10.343   9.948   7.129
 3118SOL    HW211252  10.315   9.804   7.094
 3119SOL     OW11253  13.769   6.607  11.898
 3119SOL    HW111254  13.843   6.645  11.850
 3119SOL    HW211255  13.752   6.669  11.970
 3120SOL     OW11256   2.184  14.365   5.813
 3120SOL    HW111257   2.125  14.317   5.755
 3120SOL    HW211258   2.183  14.454   5.778
 3121SOL     OW11259   4.732   7.730   6.352
 3121SOL    HW111260   4.691   7.692   6.429
 3121SOL    HW211261   4.660   7.742   6.290
 3122SOL     OW11262  13.088   0.521   5.139
 3122SOL    HW111263  13.077   0.547   5.047
 3122SOL    HW211264  13.182   0.530   5.156
 3123SOL     OW11265   2.581  11.612   6.248
 3123SOL    HW111266   2.637  11.558   6.191
 3123SOL    HW211267   2.614  11.595   6.337
 3124SOL     OW11268  11.063  13.128  13.544
 3124SOL    HW111269  10.980  13.139  13.498
 3124SOL    HW211270  11.057  13.041  13.584
 3125SOL     OW11271   6.950   1.705   8.273
 3125SOL    HW111272   6.948   1.672   8.184
 3125SOL    HW211273   7.042   1.724   8.291
 3126SOL     OW11274   7.550   0.137   7.061
 3126SOL    HW111275   7.615   0.076   7.025
 3126SOL    HW211276   7.574   0.222   7.025
 3127SOL     OW11277   1.656  10.945  12.497
 3127SOL    HW111278   1.610  11.029  12.490
 3127SOL    HW211279   1.679  10.938  12.590
 3128SOL     OW11280   1.941  10.682   7.413
 3128SOL    HW111281   1.999  10.701   7.488
 3128SOL    HW211282   1.918  10.769   7.379
 3129SOL     OW11283   9.430  14.273  12.561
 3129SOL    HW111284   9.458  14.203  12.619
 3129SOL    HW211285   9.423  14.232  12.475
 3130SOL     OW11286  11.228   0.365   9.380
 3130SOL    HW111287  11.286   0.375   9.304
 3130SOL    HW211288  11.158   0.309   9.349
 3131SOL     OW11289   3.451   6.015  12.261
 3131SOL    HW111290   3.438   5.945  12.197
 3131SOL    HW211291   3.531   6.059  12.232
 3132SOL     OW11292  13.233   7.070   5.969
 3132SOL    HW111293  13.256   6.983   5.999
 3132SOL    HW211294  13.143   7.062   5.937
 3133SOL     OW11295  10.891  12.834  14.528
 3133SOL    HW111296  10.817  12.875  14.574
 3133SOL    HW211297  10.912  12.757  14.580
 3134SOL     OW11298   9.757   1.116   8.706
 3134SOL    HW111299   9.839   1.070   8.724
 3134SOL    HW211300   9.783   1.189   8.649
 3135SOL     OW11301   0.884   9.735  12.200
 3135SOL    HW111302   0.844   9.656  12.166
 3135SOL    HW211303   0.815   9.779  12.249
 3136SOL     OW11304  12.276   8.833  10.664
 3136SOL    HW111305  12.201   8.885  10.692
 3136SOL    HW211306  12.333   8.895  10.619
 3137SOL     OW11307   5.787   6.852   1.747
 3137SOL    HW111308   5.787   6.931   1.693
 3137SOL    HW211309   5.877   6.821   1.745
 3138SOL     OW11310   1.515  11.090   8.257
 3138SOL    HW111311   1.526  11.132   8.342
 3138SOL    HW211312   1.502  11.163   8.196
 3139SOL     OW11313   8.398   8.572   1.643
 3139SOL    HW111314   8.412   8.482   1.672
 3139SOL    HW211315   8.457   8.583   1.569
 3140SOL     OW11316   4.035   2.733   3.020
 3140SOL    HW111317   4.097   2.777   3.077
 3140SOL    HW211318   3.964   2.705   3.078
 3141SOL     OW11319   6.469   8.206   6.102
 3141SOL    HW111320   6.525   8.129   6.099
 3141SOL    HW211321   6.466   8.239   6.012
 3142SOL     OW11322   7.690  10.614   2.300
 3142SOL    HW111323   7.685  10.623   2.205
 3142SOL    HW211324   7.741  10.690   2.328
 3143SOL     OW11325  13.833   7.423   6.161
 3143SOL    HW111326  13.880   7.363   6.219
 3143SOL    HW211327  13.750   7.379   6.142
 3144SOL     OW11328  10.309  14.018   0.151
 3144SOL    HW111329  10.272  14.086   0.094
 3144SOL    HW211330  10.315  14.060   0.237
 3145SOL     OW11331  12.135   1.405   3.900
 3145SOL    HW111332  12.135   1.364   3.814
 3145SOL    HW211333  12.181   1.344   3.956
 3146SOL     OW11334   1.789   3.686   0.701
 3146SOL    HW111335   1.733   3.689   0.779
 3146SOL    HW211336   1.750   3.619   0.646
 3147SOL     OW11337   7.934  11.240  12.205
 3147SOL    HW111338   7.980  11.223  12.287
 3147SOL    HW211339   7.995  11.212  12.137
 3148SOL     OW11340  11.342  11.951  11.626
 3148SOL    HW111341  11.413  11.949  11.690
 3148SOL    HW211342  11.386  11.949  11.541
 3149SOL     OW11343  12.389   7.010   8.131
 3149SOL    HW111344  12.484   7.015   8.135
 3149SOL    HW211345  12.371   6.959   8.053
 3150SOL     OW11346   8.410   8.180   7.933
 3150SOL    HW111347   8.388   8.249   7.870
 3150SOL    HW211348   8.342   8.186   8.000
 3151SOL     OW11349   4.316   3.502  11.127
 3151SOL    HW111350   4.361   3.425  11.164
 3151SOL    HW211351   4.223   3.478  11.129
 3152SOL     OW11352   4.828   2.705   8.432
 3152SOL    HW111353   4.833   2.794   8.396
 3152SOL    HW211354   4.745   2.704   8.481
 3153SOL     OW11355   1.306   6.839  12.136
 3153SOL    HW111356   1.305   6.743  12.138
 3153SOL    HW211357   1.280   6.862  12.047
 3154SOL     OW11358  14.061   3.428   2.527
 3154SOL    HW111359  14.020   3.467   2.450
 3154SOL    HW211360  14.087   3.503   2.581
 3155SOL     OW11361  14.162   6.293   7.154
 3155SOL    HW111362  14.248   6.252   7.158
 3155SOL    HW211363  14.147   6.325   7.243
 3156SOL     OW11364  10.463   8.222  11.632
 3156SOL    HW111365  10.396   8.241  11.566
 3156SOL    HW211366  10.546   8.234  11.586
 3157SOL     OW11367   1.907   4.162  11.617
 3157SOL    HW111368   1.916   4.251  11.650
 3157SOL    HW211369   1.813   4.149  11.605
 3158SOL     OW11370   3.936   3.548   0.195
 3158SOL    HW111371   3.924   3.456   0.170
 3158SOL    HW211372   4.029   3.565   0.184
 3159SOL     OW11373   8.404   5.291  11.747
 3159SOL    HW111374   8.353   5.311  11.825
 3159SOL    HW211375   8.396   5.196  11.737
 3160SOL     OW11376  12.614  14.496  10.459
 3160SOL    HW111377  12.582  14.535  10.377
 3160SOL    HW211378  12.538  14.449  10.494
 3161SOL     OW11379  13.779   2.164   6.150
 3161SOL    HW111380  13.721   2.092   6.126
 3161SOL    HW211381  13.757   2.183   6.241
 3162SOL     OW11382   7.043   5.313   9.186
 3162SOL    HW111383   6.957   5.324   9.227
 3162SOL    HW211384   7.025   5.308   9.093
 3163SOL     OW11385   9.425  14.585   3.210
 3163SOL    HW111386   9.414  14.680   3.205
 3163SOL    HW211387   9.393  14.562   3.297
 3164SOL     OW11388  12.525   5.333   6.208
 3164SOL    HW111389  12.461   5.374   6.266
 3164SOL    HW211390  12.518   5.240   6.227
 3165SOL     OW11391   4.007  14.146   1.652
 3165SOL    HW111392   4.038  14.237   1.656
 3165SOL    HW211393   4.063  14.099   1.714
 3166SOL     OW11394  14.561   9.217   5.815
 3166SOL    HW111395  14.602   9.165   5.884
 3166SOL    HW211396  14.536   9.152   5.749
 3167SOL     OW11397   0.472   1.385   5.261
 3167SOL    HW111398   0.559   1.425   5.267
 3167SOL    HW211399   0.416   1.455   5.226
 3168SOL     OW11400  12.516   1.910  12.552
 3168SOL    HW111401  12.609   1.896  12.537
 3168SOL    HW211402  12.512   1.987  12.608
 3169SOL     OW11403   1.836  10.614  13.549
 3169SOL    HW111404   1.876  10.549  13.490
 3169SOL    HW211405   1.758  10.644  13.502
 3170SOL     OW11406   3.748   9.024   4.862
 3170SOL    HW111407   3.731   9.108   4.821
 3170SOL    HW211408   3.814   8.983   4.807
 3171SOL     OW11409   0.734   9.808   8.554
 3171SOL    HW111410   0.743   9.813   8.649
 3171SOL    HW211411   0.718   9.715   8.536
 3172SOL     OW11412   3.971  12.735   1.143
 3172SOL    HW111413   3.877  12.740   1.125
 3172SOL    HW211414   3.997  12.826   1.160
 3173SOL     OW11415  11.139  11.705  14.794
 3173SOL    HW111416  11.219  11.748  14.765
 3173SOL    HW211417  11.153  11.612  14.776
 3174SOL     OW11418  12.141   7.294   5.472
 3174SOL    HW111419  12.140   7.372   5.418
 3174SOL    HW211420  12.117   7.223   5.412
 3175SOL     OW11421   9.140   9.665  13.316
 3175SOL    HW111422   9.115   9.738  13.373
 3175SOL    HW211423   9.141   9.703  13.228
 3176SOL     OW11424   7.309   1.383   7.618
 3176SOL    HW111425   7.404   1.397   7.623
 3176SOL    HW211426   7.281   1.380   7.710
 3177SOL     OW11427   1.895  13.799   0.413
 3177SOL    HW111428   1.901  13.792   0.508
 3177SOL    HW211429   1.896  13.893   0.395
 3178SOL     OW11430   5.437  12.134   9.885
 3178SOL    HW111431   5.399  12.177   9.962
 3178SOL    HW211432   5.411  12.188   9.811
 3179SOL     OW11433   2.503   3.880  10.252
 3179SOL    HW111434   2.524   3.793  10.286
 3179SOL    HW211435   2.587   3.916  10.225
 3180SOL     OW11436   7.912   7.420   2.463
 3180SOL    HW111437   7.858   7.473   2.405
 3180SOL    HW211438   7.893   7.329   2.438
 3181SOL     OW11439   8.364  12.749  12.452
 3181SOL    HW111440   8.432  12.815  12.467
 3181SOL    HW211441   8.309  12.786  12.384
 3182SOL     OW11442   8.173   8.450   6.920
 3182SOL    HW111443   8.210   8.521   6.868
 3182SOL    HW211444   8.191   8.475   7.011
 3183SOL     OW11445   9.462   9.291  11.731
 3183SOL    HW111446   9.417   9.319  11.652
 3183SOL    HW211447   9.553   9.279  11.704
 3184SOL     OW11448   4.889   8.131  13.110
 3184SOL    HW111449   4.934   8.165  13.188
 3184SOL    HW211450   4.847   8.207  13.071
 3185SOL     OW11451  11.970  14.500   0.456
 3185SOL    HW111452  12.047  14.464   0.500
 3185SOL    HW211453  12.003  14.574   0.406
 3186SOL     OW11454   4.083   8.954  11.319
 3186SOL    HW111455   4.124   8.952  11.233
 3186SOL    HW211456   4.013   9.018  11.311
 3187SOL     OW11457  12.408   2.798   5.446
 3187SOL    HW111458  12.363   2.808   5.530
 3187SOL    HW211459  12.339   2.814   5.381
 3188SOL     OW11460   2.695  13.754   2.952
 3188SOL    HW111461   2.678  13.745   2.858
 3188SOL    HW211462   2.791  13.752   2.959
 3189SOL     OW11463   6.163   0.386  11.218
 3189SOL    HW111464   6.094   0.333  11.257
 3189SOL    HW211465   6.204   0.329  11.153
 3190SOL     OW11466   6.584   4.857   8.734
 3190SOL    HW111467   6.537   4.836   8.653
 3190SOL    HW211468   6.526   4.916   8.782
 3191SOL     OW11469   1.991  11.937   8.990
 3191SOL    HW111470   2.020  11.903   9.075
 3191SOL    HW211471   2.039  11.885   8.926
 3192SOL     OW11472  10.401   7.976  10.558
 3192SOL    HW111473  10.383   8.069  10.574
 3192SOL    HW211474  10.316   7.939  10.533
 3193SOL     OW11475   0.252   2.673   3.571
 3193SOL    HW111476   0.222   2.631   3.491
 3193SOL    HW211477   0.328   2.621   3.598
 3194SOL     OW11478  11.340   7.684   8.967
 3194SOL    HW111479  11.432   7.706   8.962
 3194SOL    HW211480  11.336   7.617   9.036
 3195SOL     OW11481  13.338  11.230  10.828
 3195SOL    HW111482  13.322  11.136  10.838
 3195SOL    HW211483  13.268  11.271  10.880
 3196SOL     OW11484   2.405  11.304  13.147
 3196SOL    HW111485   2.348  11.298  13.070
 3196SOL    HW211486   2.462  11.378  13.128
 3197SOL     OW11487  13.051   9.994   7.426
 3197SOL    HW111488  13.096  10.058   7.371
 3197SOL    HW211489  12.995  10.047   7.482
 3198SOL     OW11490   7.433   6.830   9.495
 3198SOL    HW111491   7.424   6.856   9.404
 3198SOL    HW211492   7.357   6.867   9.539
 3199SOL     OW11493   2.693  11.375   3.139
 3199SOL    HW111494   2.678  11.285   3.166
 3199SOL    HW211495   2.608  11.417   3.150
 3200SOL     OW11496  14.256   0.944   0.548
 3200SOL    HW111497  14.214   0.925   0.464
 3200SOL    HW211498  14.333   0.996   0.526
 3201SOL     OW11499   1.257  10.119   5.002
 3201SOL    HW111500   1.177  10.072   4.978
 3201SOL    HW211501   1.253  10.201   4.953
 3202SOL     OW11502  12.629   5.554   4.234
 3202SOL    HW111503  12.693   5.588   4.172
 3202SOL    HW211504  12.596   5.474   4.194
 3203SOL     OW11505   7.630   8.679  13.750
 3203SOL    HW111506   7.666   8.695  13.838
 3203SOL    HW211507   7.581   8.598  13.759
 3204SOL     OW11508   8.412   3.541  14.148
 3204SOL    HW111509   8.379   3.630  14.146
 3204SOL    HW211510   8.439   3.523  14.058
 3205SOL     OW11511   4.037  12.944   6.588
 3205SOL    HW111512   4.129  12.966   6.574
 3205SOL    HW211513   4.032  12.921   6.681
 3206SOL     OW11514   9.776   4.442   3.385
 3206SOL    HW111515   9.828   4.418   3.462
 3206SOL    HW211516   9.709   4.374   3.379
 3207SOL     OW11517  13.376  12.090  12.968
 3207SOL    HW111518  13.456  12.042  12.949
 3207SOL    HW211519  13.358  12.138  12.886
 3208SOL     OW11520  11.414  14.324  12.813
 3208SOL    HW111521  11.365  14.346  12.734
 3208SOL    HW211522  11.346  14.299  12.876
 3209SOL     OW11523  13.518  10.853   4.509
 3209SOL    HW111524  13.471  10.834   4.428
 3209SOL    HW211525  13.495  10.781   4.568
 3210SOL     OW11526  13.641   1.700   5.701
 3210SOL    HW111527  13.624   1.615   5.660
 3210SOL    HW211528  13.555   1.741   5.709
 3211SOL     OW11529  14.160   1.588  10.092
 3211SOL    HW111530  14.218   1.524  10.133
 3211SOL    HW211531  14.215   1.665  10.079
 3212SOL     OW11532   5.859   3.999  12.604
 3212SOL    HW111533   5.768   4.006  12.633
 3212SOL    HW211534   5.879   4.086  12.568
 3213SOL     OW11535   6.164   9.697  13.860
 3213SOL    HW111536   6.079   9.716  13.899
 3213SOL    HW211537   6.197   9.622  13.909
 3214SOL     OW11538   0.687   8.988   4.922
 3214SOL    HW111539   0.773   8.989   4.879
 3214SOL    HW211540   0.662   9.081   4.927
 3215SOL     OW11541   4.286   8.424   4.049
 3215SOL    HW111542   4.316   8.507   4.012
 3215SOL    HW211543   4.299   8.360   3.978
 3216SOL     OW11544  14.278  10.775   2.813
 3216SOL    HW111545  14.370  10.782   2.839
 3216SOL    HW211546  14.230  10.767   2.895
 3217SOL     OW11547   7.046   2.525   9.783
 3217SOL    HW111548   6.955   2.505   9.762
 3217SOL    HW211549   7.047   2.620   9.798
 3218SOL     OW11550   6.626   8.866   7.922
 3218SOL    HW111551   6.557   8.801   7.907
 3218SOL    HW211552   6.703   8.831   7.877
 3219SOL     OW11553  12.468   1.130   8.403
 3219SOL    HW111554  12.544   1.183   8.381
 3219SOL    HW211555  12.408   1.189   8.448
 3220SOL     OW11556   7.344   6.076  13.979
 3220SOL    HW111557   7.250   6.063  13.974
 3220SOL    HW211558   7.376   6.057  13.891
 3221SOL     OW11559   5.035   1.024   3.140
 3221SOL    HW111560   5.016   1.117   3.124
 3221SOL    HW211561   5.007   1.010   3.231
 3222SOL     OW11562   2.109  12.324  14.137
 3222SOL    HW111563   2.101  12.386  14.065
 3222SOL    HW211564   2.186  12.272  14.115
 3223SOL     OW11565   0.158   6.364   3.134
 3223SOL    HW111566   0.183   6.415   3.056
 3223SOL    HW211567   0.164   6.273   3.105
 3224SOL     OW11568  10.376  14.530   3.014
 3224SOL    HW111569  10.306  14.467   3.032
 3224SOL    HW211570  10.357  14.603   3.073
 3225SOL     OW11571   7.992   7.372   3.138
 3225SOL    HW111572   8.016   7.351   3.048
 3225SOL    HW211573   8.065   7.342   3.191
 3226SOL     OW11574  10.144  13.964  12.708
 3226SOL    HW111575  10.107  14.015  12.780
 3226SOL    HW211576  10.237  13.958  12.728
 3227SOL     OW11577  11.128   0.007   4.739
 3227SOL    HW111578  11.155   0.000   4.647
 3227SOL    HW211579  11.056   0.071   4.738
 3228SOL     OW11580  11.308  13.530  13.794
 3228SOL    HW111581  11.268  13.461  13.740
 3228SOL    HW211582  11.381  13.561  13.741
 3229SOL     OW11583  11.863   9.265  14.776
 3229SOL    HW111584  11.885   9.358  14.768
 3229SOL    HW211585  11.918   9.222  14.711
 3230SOL     OW11586   6.933   6.028  14.056
 3230SOL    HW111587   6.877   5.951  14.051
 3230SOL    HW211588   7.001   6.003  14.119
 3231SOL     OW11589  10.396  12.302  11.330
 3231SOL    HW111590  10.405  12.380  11.274
 3231SOL    HW211591  10.479  12.255  11.318
 3232SOL     OW11592   6.714   9.683   4.774
 3232SOL    HW111593   6.695   9.642   4.858
 3232SOL    HW211594   6.670   9.627   4.710
 3233SOL     OW11595   1.331   7.546   5.350
 3233SOL    HW111596   1.322   7.536   5.255
 3233SOL    HW211597   1.283   7.472   5.387
 3234SOL     OW11598   5.975   4.425   1.192
 3234SOL    HW111599   5.916   4.462   1.126
 3234SOL    HW211600   5.925   4.353   1.230
 3235SOL     OW11601  13.832   3.625  13.856
 3235SOL    HW111602  13.743   3.644  13.885
 3235SOL    HW211603  13.821   3.567  13.781
 3236SOL     OW11604   0.148   1.392   8.297
 3236SOL    HW111605   0.173   1.306   8.263
 3236SOL    HW211606   0.184   1.455   8.234
 3237SOL     OW11607   7.082   1.812  10.009
 3237SOL    HW111608   7.022   1.866   9.957
 3237SOL    HW211609   7.056   1.722   9.989
 3238SOL     OW11610   9.043  13.876   8.366
 3238SOL    HW111611   8.995  13.841   8.291
 3238SOL    HW211612   9.007  13.830   8.441
 3239SOL     OW11613   1.531   3.467   6.271
 3239SOL    HW111614   1.534   3.435   6.361
 3239SOL    HW211615   1.504   3.391   6.219
 3240SOL     OW11616   6.544   1.789   5.043
 3240SOL    HW111617   6.553   1.883   5.030
 3240SOL    HW211618   6.454   1.778   5.073
 3241SOL     OW11619  14.779   0.098   2.114
 3241SOL    HW111620  14.862   0.136   2.141
 3241SOL    HW211621  14.774   0.015   2.162
 3242SOL     OW11622   2.479   2.491  14.099
 3242SOL    HW111623   2.447   2.555  14.162
 3242SOL    HW211624   2.483   2.539  14.016
 3243SOL     OW11625   8.322  13.281   0.452
 3243SOL    HW111626   8.241  13.311   0.494
 3243SOL    HW211627   8.312  13.185   0.448
 3244SOL     OW11628   9.811   6.952   4.881
 3244SOL    HW111629   9.845   6.924   4.796
 3244SOL    HW211630   9.742   7.014   4.859
 3245SOL     OW11631  11.178   8.397  13.848
 3245SOL    HW111632  11.139   8.310  13.859
 3245SOL    HW211633  11.188   8.430  13.937
 3246SOL     OW11634   6.302   2.752   6.027
 3246SOL    HW111635   6.271   2.764   5.938
 3246SOL    HW211636   6.397   2.754   6.021
 3247SOL     OW11637   1.868   3.747   9.400
 3247SOL    HW111638   1.842   3.718   9.312
 3247SOL    HW211639   1.903   3.835   9.386
 3248SOL     OW11640   1.457   4.236   7.545
 3248SOL    HW111641   1.465   4.211   7.638
 3248SOL    HW211642   1.526   4.300   7.531
 3249SOL     OW11643   6.970   0.216   9.445
 3249SOL    HW111644   6.996   0.299   9.484
 3249SOL    HW211645   6.996   0.150   9.509
 3250SOL     OW11646   4.407   2.344  10.453
 3250SOL    HW111647   4.443   2.390  10.377
 3250SOL    HW211648   4.453   2.260  10.455
 3251SOL     OW11649   1.046   2.582   1.545
 3251SOL    HW111650   0.979   2.518   1.520
 3251SOL    HW211651   1.009   2.625   1.623
 3252SOL     OW11652   4.349  12.607   0.880
 3252SOL    HW111653   4.364  12.683   0.937
 3252SOL    HW211654   4.255  12.594   0.882
 3253SOL     OW11655   9.918   8.507  10.557
 3253SOL    HW111656   9.988   8.507  10.491
 3253SOL    HW211657   9.933   8.585  10.609
 3254SOL     OW11658   0.626   3.695  12.993
 3254SOL    HW111659   0.627   3.667  13.085
 3254SOL    HW211660   0.534   3.716  12.976
 3255SOL     OW11661   2.021   6.419   4.570
 3255SOL    HW111662   2.077   6.353   4.529
 3255SOL    HW211663   2.003   6.483   4.501
 3256SOL     OW11664   0.850  11.677  12.929
 3256SOL    HW111665   0.810  11.743  12.873
 3256SOL    HW211666   0.777  11.630  12.969
 3257SOL     OW11667  11.638   4.580   9.700
 3257SOL    HW111668  11.719   4.617   9.666
 3257SOL    HW211669  11.570   4.615   9.643
 3258SOL     OW11670   3.556   8.413  13.048
 3258SOL    HW111671   3.604   8.396  13.129
 3258SOL    HW211672   3.508   8.494  13.065
 3259SOL     OW11673  14.160   3.114   9.329
 3259SOL    HW111674  14.200   3.072   9.405
 3259SOL    HW211675  14.175   3.052   9.257
 3260SOL     OW11676   4.205  13.671   7.382
 3260SOL    HW111677   4.240  13.750   7.423
 3260SOL    HW211678   4.247  13.669   7.296
 3261SOL     OW11679  13.212   4.157   4.166
 3261SOL    HW111680  13.255   4.087   4.216
 3261SOL    HW211681  13.265   4.235   4.183
 3262SOL     OW11682   6.256  10.373  11.640
 3262SOL    HW111683   6.177  10.424  11.659
 3262SOL    HW211684   6.223  10.293  11.599
 3263SOL     OW11685  10.250  11.312  12.131
 3263SOL    HW111686  10.218  11.230  12.094
 3263SOL    HW211687  10.345  11.306  12.126
 3264SOL     OW11688  11.822   1.103  13.603
 3264SOL    HW111689  11.784   1.142  13.681
 3264SOL    HW211690  11.846   1.178  13.548
 3265SOL     OW11691   3.930   0.343  13.794
 3265SOL    HW111692   3.882   0.278  13.744
 3265SOL    HW211693   4.011   0.299  13.820
 3266SOL     OW11694   4.630   3.170  14.822
 3266SOL    HW111695   4.560   3.227  14.790
 3266SOL    HW211696   4.600   3.138   0.038
 3267SOL     OW11697   4.447  11.571  14.335
 3267SOL    HW111698   4.361  11.533  14.352
 3267SOL    HW211699   4.428  11.657  14.298
 3268SOL     OW11700  14.705  13.010   2.321
 3268SOL    HW111701  14.749  12.996   2.405
 3268SOL    HW211702  14.733  13.098   2.295
 3269SOL     OW11703   4.506   5.818   5.341
 3269SOL    HW111704   4.557   5.886   5.297
 3269SOL    HW211705   4.549   5.736   5.317
 3270SOL     OW11706   9.134  10.425   8.784
 3270SOL    HW111707   9.156  10.486   8.714
 3270SOL    HW211708   9.056  10.379   8.752
 3271SOL     OW11709   8.891   7.675  14.034
 3271SOL    HW111710   8.881   7.597  14.088
 3271SOL    HW211711   8.897   7.642  13.944
 3272SOL     OW11712   5.795   7.650   4.652
 3272SOL    HW111713   5.851   7.600   4.593
 3272SOL    HW211714   5.773   7.589   4.723
 3273SOL     OW11715   4.956   1.471   3.844
 3273SOL    HW111716   4.898   1.547   3.830
 3273SOL    HW211717   4.897   1.396   3.839
 3274SOL     OW11718   8.191   8.752  12.531
 3274SOL    HW111719   8.229   8.722  12.449
 3274SOL    HW211720   8.109   8.795  12.505
 3275SOL     OW11721   9.509   8.151   9.445
 3275SOL    HW111722   9.437   8.126   9.387
 3275SOL    HW211723   9.484   8.236   9.480
 3276SOL     OW11724  13.744   3.058   3.746
 3276SOL    HW111725  13.714   3.022   3.830
 3276SOL    HW211726  13.830   3.018   3.732
 3277SOL     OW11727  13.298   7.287  14.591
 3277SOL    HW111728  13.288   7.196  14.618
 3277SOL    HW211729  13.380   7.289  14.542
 3278SOL     OW11730   7.096  14.029  11.561
 3278SOL    HW111731   7.037  13.974  11.613
 3278SOL    HW211732   7.064  14.020  11.471
 3279SOL     OW11733   8.515   7.635   0.390
 3279SOL    HW111734   8.573   7.572   0.348
 3279SOL    HW211735   8.446   7.652   0.325
 3280SOL     OW11736   1.669  13.662   2.274
 3280SOL    HW111737   1.606  13.717   2.228
 3280SOL    HW211738   1.741  13.720   2.297
 3281SOL     OW11739   5.576   3.061  11.031
 3281SOL    HW111740   5.547   3.149  11.008
 3281SOL    HW211741   5.649   3.044  10.971
 3282SOL     OW11742   4.823   4.083   3.983
 3282SOL    HW111743   4.830   4.179   3.990
 3282SOL    HW211744   4.836   4.065   3.890
 3283SOL     OW11745   3.566   1.373   9.664
 3283SOL    HW111746   3.521   1.323   9.596
 3283SOL    HW211747   3.657   1.379   9.633
 3284SOL     OW11748   7.820   3.590   0.381
 3284SOL    HW111749   7.853   3.530   0.448
 3284SOL    HW211750   7.796   3.534   0.308
 3285SOL     OW11751   9.298   4.231   1.200
 3285SOL    HW111752   9.330   4.212   1.289
 3285SOL    HW211753   9.203   4.225   1.207
 3286SOL     OW11754   9.815   6.051  11.558
 3286SOL    HW111755   9.764   6.012  11.488
 3286SOL    HW211756   9.861   6.124  11.517
 3287SOL     OW11757  12.074   6.197  13.336
 3287SOL    HW111758  12.037   6.236  13.416
 3287SOL    HW211759  12.160   6.165  13.363
 3288SOL     OW11760  11.607   8.255  10.982
 3288SOL    HW111761  11.639   8.255  11.073
 3288SOL    HW211762  11.512   8.261  10.990
 3289SOL     OW11763   3.361  10.290   6.329
 3289SOL    HW111764   3.415  10.312   6.405
 3289SOL    HW211765   3.401  10.212   6.292
 3290SOL     OW11766   1.095   0.972   7.754
 3290SOL    HW111767   1.057   1.039   7.698
 3290SOL    HW211768   1.076   1.001   7.843
 3291SOL     OW11769   4.193   7.604   3.049
 3291SOL    HW111770   4.263   7.601   2.984
 3291SOL    HW211771   4.233   7.573   3.130
 3292SOL     OW11772   6.452   8.831  11.377
 3292SOL    HW111773   6.391   8.762  11.349
 3292SOL    HW211774   6.539   8.797  11.356
 3293SOL     OW11775   8.543   9.047   9.553
 3293SOL    HW111776   8.572   9.070   9.465
 3293SOL    HW211777   8.476   8.980   9.540
 3294SOL     OW11778  13.528  11.633   1.803
 3294SOL    HW111779  13.505  11.721   1.773
 3294SOL    HW211780  13.452  11.603   1.853
 3295SOL     OW11781   8.993  13.808  11.114
 3295SOL    HW111782   8.941  13.858  11.177
 3295SOL    HW211783   9.067  13.776  11.165
 3296SOL     OW11784   6.047   2.718  14.694
 3296SOL    HW111785   6.126   2.707  14.747
 3296SOL    HW211786   6.073   2.691  14.606
 3297SOL     OW11787  10.463   9.883   2.668
 3297SOL    HW111788  10.424   9.816   2.723
 3297SOL    HW211789  10.402   9.957   2.673
 3298SOL     OW11790  10.124  10.408  11.992
 3298SOL    HW111791  10.124  10.313  11.993
 3298SOL    HW211792  10.082  10.433  12.074
 3299SOL     OW11793  13.962   6.104   0.014
 3299SOL    HW111794  13.888   6.130   0.069
 3299SOL    HW211795  14.019   6.055   0.072
 3300SOL     OW11796   1.980  10.961   7.321
 3300SOL    HW111797   1.891  10.969   7.355
 3300SOL    HW211798   2.017  11.049   7.328
 3301SOL     OW11799   2.232  11.778  13.476
 3301SOL    HW111800   2.302  11.832  13.515
 3301SOL    HW211801   2.201  11.723  13.548
 3302SOL     OW11802  11.982   2.529  10.514
 3302SOL    HW111803  11.919   2.600  10.523
 3302SOL    HW211804  11.991   2.517  10.419
 3303SOL     OW11805   1.274   4.139   4.396
 3303SOL    HW111806   1.339   4.086   4.443
 3303SOL    HW211807   1.303   4.229   4.409
 3304SOL     OW11808  11.754   2.320   2.448
 3304SOL    HW111809  11.780   2.400   2.402
 3304SOL    HW211810  11.679   2.286   2.398
 3305SOL     OW11811  10.439  13.660   8.441
 3305SOL    HW111812  10.422  13.717   8.516
 3305SOL    HW211813  10.355  13.619   8.423
 3306SOL     OW11814   0.815   4.553   0.502
 3306SOL    HW111815   0.867   4.634   0.503
 3306SOL    HW211816   0.765   4.557   0.584
 3307SOL     OW11817   2.316   9.158  10.754
 3307SOL    HW111818   2.272   9.103  10.819
 3307SOL    HW211819   2.276   9.245  10.766
 3308SOL     OW11820   3.178   6.290   5.630
 3308SOL    HW111821   3.105   6.272   5.689
 3308SOL    HW211822   3.150   6.366   5.579
 3309SOL     OW11823   6.086   5.723  11.898
 3309SOL    HW111824   6.104   5.717  11.804
 3309SOL    HW211825   6.022   5.794  11.906
 3310SOL     OW11826   9.340  12.406  12.063
 3310SOL    HW111827   9.265  12.462  12.043
 3310SOL    HW211828   9.302  12.323  12.090
 3311SOL     OW11829   6.045  14.027  11.462
 3311SOL    HW111830   6.060  14.041  11.555
 3311SOL    HW211831   6.031  14.114  11.426
 3312SOL     OW11832   7.666  14.642   9.626
 3312SOL    HW111833   7.652  14.694   9.706
 3312SOL    HW211834   7.703  14.703   9.563
 3313SOL     OW11835   7.862   8.761   8.736
 3313SOL    HW111836   7.882   8.851   8.710
 3313SOL    HW211837   7.934   8.736   8.794
 3314SOL     OW11838   5.472   9.329   6.112
 3314SOL    HW111839   5.483   9.386   6.035
 3314SOL    HW211840   5.550   9.346   6.165
 3315SOL     OW11841   4.597  14.816  12.608
 3315SOL    HW111842   4.564   0.038  12.605
 3315SOL    HW211843   4.692  14.825  12.608
 3316SOL     OW11844   7.598   3.439  11.173
 3316SOL    HW111845   7.568   3.451  11.263
 3316SOL    HW211846   7.524   3.465  11.119
 3317SOL     OW11847   7.774   8.561   7.208
 3317SOL    HW111848   7.734   8.543   7.293
 3317SOL    HW211849   7.720   8.513   7.145
 3318SOL     OW11850   8.565   6.652  12.766
 3318SOL    HW111851   8.606   6.584  12.818
 3318SOL    HW211852   8.603   6.642  12.679
 3319SOL     OW11853   2.597   0.542   7.765
 3319SOL    HW111854   2.648   0.485   7.823
 3319SOL    HW211855   2.646   0.541   7.683
 3320SOL     OW11856   0.251   3.961   9.185
 3320SOL    HW111857   0.294   4.043   9.162
 3320SOL    HW211858   0.317   3.912   9.234
 3321SOL     OW11859   2.180   0.809  14.029
 3321SOL    HW111860   2.181   0.849  13.942
 3321SOL    HW211861   2.120   0.735  14.020
 3322SOL     OW11862   3.495   8.434  13.532
 3322SOL    HW111863   3.463   8.345  13.547
 3322SOL    HW211864   3.436   8.490  13.583
 3323SOL     OW11865   7.410   3.727   8.443
 3323SOL    HW111866   7.480   3.692   8.497
 3323SOL    HW211867   7.359   3.650   8.417
 3324SOL     OW11868   5.393   7.073  14.385
 3324SOL    HW111869   5.406   7.167  14.401
 3324SOL    HW211870   5.477   7.043  14.351
 3325SOL     OW11871   6.434   7.752  11.489
 3325SOL    HW111872   6.480   7.741  11.572
 3325SOL    HW211873   6.450   7.671  11.441
 3326SOL     OW11874  12.092   2.728   3.398
 3326SOL    HW111875  12.164   2.686   3.444
 3326SOL    HW211876  12.102   2.702   3.306
 3327SOL     OW11877  11.140   1.010   7.804
 3327SOL    HW111878  11.196   0.932   7.798
 3327SOL    HW211879  11.060   0.978   7.845
 3328SOL     OW11880   6.018   6.060   3.586
 3328SOL    HW111881   5.934   6.068   3.632
 3328SOL    HW211882   6.027   5.966   3.569
 3329SOL     OW11883   4.713   1.026  13.015
 3329SOL    HW111884   4.678   1.091  12.954
 3329SOL    HW211885   4.775   0.976  12.962
 3330SOL     OW11886   9.613  10.611   5.448
 3330SOL    HW111887   9.618  10.660   5.530
 3330SOL    HW211888   9.520  10.591   5.438
 3331SOL     OW11889  14.068  10.941  13.703
 3331SOL    HW111890  14.024  11.021  13.672
 3331SOL    HW211891  14.066  10.949  13.799
 3332SOL     OW11892  11.409   1.644   2.881
 3332SOL    HW111893  11.391   1.718   2.939
 3332SOL    HW211894  11.324   1.600   2.871
 3333SOL     OW11895  14.025  14.437  13.777
 3333SOL    HW111896  14.087  14.495  13.733
 3333SOL    HW211897  13.989  14.383  13.707
 3334SOL     OW11898  14.349   3.355   1.321
 3334SOL    HW111899  14.389   3.413   1.257
 3334SOL    HW211900  14.258   3.347   1.292
 3335SOL     OW11901  12.186  11.178   4.248
 3335SOL    HW111902  12.170  11.256   4.301
 3335SOL    HW211903  12.239  11.209   4.175
 3336SOL     OW11904  13.034   8.482  10.502
 3336SOL    HW111905  13.022   8.501  10.595
 3336SOL    HW211906  12.947   8.493  10.463
 3337SOL     OW11907   9.780   6.660  12.314
 3337SOL    HW111908   9.864   6.688  12.277
 3337SOL    HW211909   9.724   6.737  12.306
 3338SOL     OW11910  11.018   1.543   1.558
 3338SOL    HW111911  10.923   1.542   1.561
 3338SOL    HW211912  11.043   1.632   1.581
 3339SOL     OW11913   9.587   2.648  11.604
 3339SOL    HW111914   9.512   2.667  11.660
 3339SOL    HW211915   9.583   2.553  11.590
 3340SOL     OW11916  12.041  11.993  11.158
 3340SOL    HW111917  12.106  11.931  11.191
 3340SOL    HW211918  12.012  11.955  11.075
 3341SOL     OW11919  10.500   0.128   3.140
 3341SOL    HW111920  10.417   0.096   3.107
 3341SOL    HW211921  10.500   0.221   3.120
 3342SOL     OW11922  13.984   6.125   2.738
 3342SOL    HW111923  13.954   6.043   2.777
 3342SOL    HW211924  14.016   6.100   2.651
 3343SOL     OW11925   0.356  10.194   9.209
 3343SOL    HW111926   0.430  10.162   9.157
 3343SOL    HW211927   0.358  10.141   9.289
 3344SOL     OW11928  13.132  13.446  11.215
 3344SOL    HW111929  13.128  13.432  11.120
 3344SOL    HW211930  13.042  13.466  11.240
 3345SOL     OW11931  13.037  10.698   4.543
 3345SOL    HW111932  13.086  10.634   4.492
 3345SOL    HW211933  13.061  10.783   4.504
 3346SOL     OW11934   8.263  12.270  10.498
 3346SOL    HW111935   8.350  12.308  10.505
 3346SOL    HW211936   8.209  12.339  10.460
 3347SOL     OW11937   5.080   3.424  14.148
 3347SOL    HW111938   5.044   3.465  14.069
 3347SOL    HW211939   5.174   3.429  14.136
 3348SOL     OW11940  12.458  11.025   3.913
 3348SOL    HW111941  12.516  10.977   3.972
 3348SOL    HW211942  12.370  10.999   3.940
 3349SOL     OW11943   7.176   7.722   2.600
 3349SOL    HW111944   7.251   7.781   2.609
 3349SOL    HW211945   7.161   7.689   2.689
 3350SOL     OW11946   1.593   4.763   7.754
 3350SOL    HW111947   1.577   4.683   7.705
 3350SOL    HW211948   1.627   4.825   7.689
 3351SOL     OW11949  14.437   7.611  14.862
 3351SOL    HW111950  14.367   7.584   0.053
 3351SOL    HW211951  14.518   7.585   0.040
 3352SOL     OW11952   0.051   3.291   4.070
 3352SOL    HW111953   0.037   3.196   4.078
 3352SOL    HW211954   0.038   3.325   4.159
 3353SOL     OW11955  13.499  14.214   9.356
 3353SOL    HW111956  13.454  14.297   9.344
 3353SOL    HW211957  13.583  14.224   9.312
 3354SOL     OW11958   5.025  13.163   1.000
 3354SOL    HW111959   5.040  13.118   1.084
 3354SOL    HW211960   5.079  13.241   1.004
 3355SOL     OW11961  10.567   4.833  11.534
 3355SOL    HW111962  10.573   4.775  11.609
 3355SOL    HW211963  10.583   4.776  11.458
 3356SOL     OW11964   2.019   1.915   1.355
 3356SOL    HW111965   1.972   1.835   1.333
 3356SOL    HW211966   1.954   1.985   1.343
 3357SOL     OW11967   3.022   7.542  13.971
 3357SOL    HW111968   2.967   7.567  14.045
 3357SOL    HW211969   3.112   7.559  14.000
 3358SOL     OW11970   7.697   1.301   4.353
 3358SOL    HW111971   7.711   1.391   4.382
 3358SOL    HW211972   7.766   1.286   4.288
 3359SOL     OW11973   7.398  13.022   0.043
 3359SOL    HW111974   7.345  13.020   0.122
 3359SOL    HW211975   7.456  13.097   0.055
 3360SOL     OW11976  11.771  12.139   0.754
 3360SOL    HW111977  11.675  12.129   0.759
 3360SOL    HW211978  11.787  12.179   0.669
 3361SOL     OW11979  14.568   6.907   1.285
 3361SOL    HW111980  14.539   6.825   1.324
 3361SOL    HW211981  14.547   6.974   1.350
 3362SOL     OW11982  13.480  10.300  12.421
 3362SOL    HW111983  13.524  10.322  12.338
 3362SOL    HW211984  13.386  10.302  12.399
 3363SOL     OW11985   0.182   8.039   1.189
 3363SOL    HW111986   0.263   8.009   1.146
 3363SOL    HW211987   0.167   8.126   1.152
 3364SOL     OW11988   2.968  11.041   7.355
 3364SOL    HW111989   2.985  10.952   7.323
 3364SOL    HW211990   3.027  11.051   7.430
 3365SOL     OW11991  10.413   3.746  14.555
 3365SOL    HW111992  10.475   3.815  14.579
 3365SOL    HW211993  10.342   3.755  14.619
 3366SOL     OW11994   8.960  10.408   3.250
 3366SOL    HW111995   8.986  10.331   3.302
 3366SOL    HW211996   9.043  10.449   3.226
 3367SOL     OW11997   4.746  12.388   5.601
 3367SOL    HW111998   4.673  12.330   5.582
 3367SOL    HW211999   4.754  12.386   5.697
 3368SOL     OW12000   3.159  10.057   2.881
 3368SOL    HW112001   3.066  10.073   2.892
 3368SOL    HW212002   3.164   9.975   2.833
 3369SOL     OW12003   8.181   8.681  14.266
 3369SOL    HW112004   8.254   8.621  14.287
 3369SOL    HW212005   8.112   8.623  14.234
 3370SOL     OW12006   6.798   5.592   7.024
 3370SOL    HW112007   6.758   5.554   7.103
 3370SOL    HW212008   6.771   5.533   6.953
 3371SOL     OW12009  12.725   3.902  11.200
 3371SOL    HW112010  12.661   3.838  11.233
 3371SOL    HW212011  12.677   3.952  11.134
 3372SOL     OW12012  10.979  12.729   0.760
 3372SOL    HW112013  11.013  12.706   0.847
 3372SOL    HW212014  11.022  12.811   0.738
 3373SOL     OW12015  10.149   0.328   3.739
 3373SOL    HW112016  10.176   0.288   3.656
 3373SOL    HW212017  10.054   0.331   3.735
 3374SOL     OW12018   7.350   0.525  11.101
 3374SOL    HW112019   7.375   0.575  11.024
 3374SOL    HW212020   7.337   0.591  11.170
 3375SOL     OW12021   2.959   8.472  12.633
 3375SOL    HW112022   3.045   8.484  12.674
 3375SOL    HW212023   2.947   8.551  12.581
 3376SOL     OW12024   8.862   6.331   2.798
 3376SOL    HW112025   8.955   6.314   2.784
 3376SOL    HW212026   8.830   6.255   2.846
 3377SOL     OW12027   7.374   4.723   5.044
 3377SOL    HW112028   7.461   4.694   5.069
 3377SOL    HW212029   7.387   4.767   4.960
 3378SOL     OW12030  11.385   6.607   2.393
 3378SOL    HW112031  11.450   6.637   2.456
 3378SOL    HW212032  11.430   6.612   2.308
 3379SOL     OW12033  12.160   1.402  10.434
 3379SOL    HW112034  12.069   1.425  10.417
 3379SOL    HW212035  12.185   1.345  10.362
 3380SOL     OW12036  10.063  14.659   2.955
 3380SOL    HW112037  10.012  14.578   2.955
 3380SOL    HW212038  10.083  14.674   3.047
 3381SOL     OW12039   9.537   0.698   2.934
 3381SOL    HW112040   9.545   0.681   2.840
 3381SOL    HW212041   9.615   0.749   2.955
 3382SOL     OW12042   4.508   8.815   1.764
 3382SOL    HW112043   4.446   8.796   1.835
 3382SOL    HW212044   4.531   8.907   1.776
 3383SOL     OW12045   6.805  12.697   6.454
 3383SOL    HW112046   6.844  12.784   6.463
 3383SOL    HW212047   6.857  12.642   6.512
 3384SOL     OW12048   9.596  12.941   6.196
 3384SOL    HW112049   9.659  12.872   6.217
 3384SOL    HW212050   9.636  13.021   6.230
 3385SOL     OW12051  11.469   7.338  11.565
 3385SOL    HW112052  11.418   7.309  11.489
 3385SOL    HW212053  11.538   7.393  11.527
 3386SOL     OW12054   5.267  10.272  13.894
 3386SOL    HW112055   5.282  10.314  13.979
 3386SOL    HW212056   5.194  10.212  13.910
 3387SOL     OW12057   7.246   2.477   5.560
 3387SOL    HW112058   7.151   2.482   5.571
 3387SOL    HW212059   7.278   2.441   5.643
 3388SOL     OW12060   5.716  11.529   2.181
 3388SOL    HW112061   5.631  11.543   2.222
 3388SOL    HW212062   5.777  11.580   2.235
 3389SOL     OW12063   0.154   2.581  10.914
 3389SOL    HW112064   0.096   2.609  10.985
 3389SOL    HW212065   0.098   2.579  10.836
 3390SOL     OW12066   9.004   4.149   6.319
 3390SOL    HW112067   9.063   4.124   6.390
 3390SOL    HW212068   8.937   4.080   6.319
 3391SOL     OW12069   1.181  11.322  11.911
 3391SOL    HW112070   1.123  11.259  11.867
 3391SOL    HW212071   1.243  11.349  11.843
 3392SOL     OW12072  13.138   1.395  10.013
 3392SOL    HW112073  13.105   1.480  10.042
 3392SOL    HW212074  13.190   1.363  10.086
 3393SOL     OW12075   2.247  10.558   1.119
 3393SOL    HW112076   2.316  10.575   1.056
 3393SOL    HW212077   2.275  10.480   1.166
 3394SOL     OW12078  12.494   6.794   4.546
 3394SOL    HW112079  12.508   6.733   4.619
 3394SOL    HW212080  12.405   6.776   4.516
 3395SOL     OW12081  12.556   2.455   3.675
 3395SOL    HW112082  12.568   2.525   3.610
 3395SOL    HW212083  12.632   2.398   3.661
 3396SOL     OW12084  10.892  13.254   3.406
 3396SOL    HW112085  10.915  13.283   3.317
 3396SOL    HW212086  10.976  13.232   3.446
 3397SOL     OW12087   3.970   0.696  12.708
 3397SOL    HW112088   3.893   0.672  12.656
 3397SOL    HW212089   3.980   0.623  12.770
 3398SOL     OW12090   0.761   1.640  11.948
 3398SOL    HW112091   0.801   1.719  11.984
 3398SOL    HW212092   0.678   1.669  11.912
 3399SOL     OW12093   0.591   1.287   0.262
 3399SOL    HW112094   0.651   1.226   0.220
 3399SOL    HW212095   0.628   1.374   0.242
 3400SOL     OW12096   5.887   1.067  13.782
 3400SOL    HW112097   5.843   1.000  13.834
 3400SOL    HW212098   5.818   1.131  13.764
 3401SOL     OW12099  10.666  14.720   7.974
 3401SOL    HW112100  10.748  14.770   7.979
 3401SOL    HW212101  10.607  14.765   8.035
 3402SOL     OW12102  12.870   4.878   1.727
 3402SOL    HW112103  12.864   4.823   1.648
 3402SOL    HW212104  12.796   4.938   1.719
 3403SOL     OW12105   8.305  13.013   0.504
 3403SOL    HW112106   8.229  12.955   0.510
 3403SOL    HW212107   8.343  12.995   0.418
 3404SOL     OW12108  13.090   5.202   5.645
 3404SOL    HW112109  13.140   5.238   5.718
 3404SOL    HW212110  13.002   5.186   5.681
 3405SOL     OW12111   7.503   8.313   9.864
 3405SOL    HW112112   7.586   8.265   9.864
 3405SOL    HW212113   7.500   8.355   9.950
 3406SOL     OW12114  11.567   6.679   6.586
 3406SOL    HW112115  11.617   6.754   6.553
 3406SOL    HW212116  11.522   6.644   6.509
 3407SOL     OW12117   6.786   1.538   4.910
 3407SOL    HW112118   6.755   1.544   5.000
 3407SOL    HW212119   6.719   1.487   4.865
 3408SOL     OW12120  12.390   2.130   5.180
 3408SOL    HW112121  12.352   2.130   5.268
 3408SOL    HW212122  12.374   2.218   5.147
 3409SOL     OW12123   7.170   2.800   8.524
 3409SOL    HW112124   7.261   2.827   8.538
 3409SOL    HW212125   7.118   2.878   8.543
 3410SOL     OW12126   8.797  10.858   4.322
 3410SOL    HW112127   8.833  10.943   4.296
 3410SOL    HW212128   8.756  10.825   4.242
 3411SOL     OW12129  11.168  12.128  11.871
 3411SOL    HW112130  11.221  12.168  11.939
 3411SOL    HW212131  11.078  12.147  11.896
 3412SOL     OW12132   1.959   6.145   5.719
 3412SOL    HW112133   1.965   6.239   5.731
 3412SOL    HW212134   1.867   6.124   5.739
 3413SOL     OW12135   1.724   3.570   9.898
 3413SOL    HW112136   1.748   3.478   9.912
 3413SOL    HW212137   1.776   3.619   9.962
 3414SOL     OW12138  10.112   9.223   2.354
 3414SOL    HW112139  10.053   9.281   2.403
 3414SOL    HW212140  10.149   9.165   2.420
 3415SOL     OW12141   2.501   2.143   1.651
 3415SOL    HW112142   2.582   2.110   1.613
 3415SOL    HW212143   2.511   2.238   1.652
 3416SOL     OW12144   5.014  12.279  13.438
 3416SOL    HW112145   4.936  12.290  13.492
 3416SOL    HW212146   5.049  12.367  13.428
 3417SOL     OW12147   4.955  10.505   2.382
 3417SOL    HW112148   4.879  10.459   2.417
 3417SOL    HW212149   4.965  10.472   2.293
 3418SOL     OW12150   4.089  14.840  10.877
 3418SOL    HW112151   4.086  14.744  10.869
 3418SOL    HW212152   4.070  14.857  10.969
 3419SOL     OW12153   6.986  10.946  11.546
 3419SOL    HW112154   6.951  10.921  11.632
 3419SOL    HW212155   6.948  11.032  11.530
 3420SOL     OW12156   3.493   5.622   2.963
 3420SOL    HW112157   3.533   5.706   2.986
 3420SOL    HW212158   3.401   5.632   2.987
 3421SOL     OW12159   8.390   9.197  10.681
 3421SOL    HW112160   8.320   9.262  10.679
 3421SOL    HW212161   8.367   9.138  10.753
 3422SOL     OW12162   7.546   2.904  12.227
 3422SOL    HW112163   7.471   2.921  12.169
 3422SOL    HW212164   7.551   2.982  12.282
 3423SOL     OW12165  12.961  10.882   8.852
 3423SOL    HW112166  12.918  10.842   8.928
 3423SOL    HW212167  13.055  10.875   8.871
 3424SOL     OW12168   8.280  13.925  12.221
 3424SOL    HW112169   8.248  14.015  12.224
 3424SOL    HW212170   8.321  13.910  12.306
 3425SOL     OW12171   1.306   9.043   9.161
 3425SOL    HW112172   1.253   9.112   9.122
 3425SOL    HW212173   1.350   9.002   9.086
 3426SOL     OW12174   5.484  10.868   7.275
 3426SOL    HW112175   5.498  10.879   7.181
 3426SOL    HW212176   5.571  10.880   7.313
 3427SOL     OW12177   7.444   9.406   7.764
 3427SOL    HW112178   7.491   9.367   7.837
 3427SOL    HW212179   7.362   9.357   7.759
 3428SOL     OW12180   8.320  10.820   0.972
 3428SOL    HW112181   8.225  10.832   0.980
 3428SOL    HW212182   8.341  10.753   1.036
 3429SOL     OW12183  12.019   4.687   0.899
 3429SOL    HW112184  12.061   4.657   0.818
 3429SOL    HW212185  11.967   4.763   0.872
 3430SOL     OW12186  14.004  10.981   0.442
 3430SOL    HW112187  13.976  11.023   0.524
 3430SOL    HW212188  14.094  11.011   0.429
 3431SOL     OW12189  11.352   8.123   8.275
 3431SOL    HW112190  11.275   8.143   8.221
 3431SOL    HW212191  11.337   8.033   8.306
 3432SOL     OW12192   1.217   6.977   9.297
 3432SOL    HW112193   1.265   6.968   9.380
 3432SOL    HW212194   1.134   6.932   9.313
 3433SOL     OW12195   6.492  11.082  10.276
 3433SOL    HW112196   6.511  10.998  10.235
 3433SOL    HW212197   6.565  11.139  10.250
 3434SOL     OW12198   8.122   5.548   4.359
 3434SOL    HW112199   8.056   5.614   4.381
 3434SOL    HW212200   8.174   5.539   4.439
 3435SOL     OW12201   5.332   1.558   8.377
 3435SOL    HW112202   5.249   1.512   8.387
 3435SOL    HW212203   5.377   1.512   8.307
 3436SOL     OW12204   4.898  14.718  14.506
 3436SOL    HW112205   4.898  14.637  14.454
 3436SOL    HW212206   4.845  14.697  14.583
 3437SOL     OW12207  14.351  10.569   0.209
 3437SOL    HW112208  14.358  10.657   0.244
 3437SOL    HW212209  14.331  10.581   0.116
 3438SOL     OW12210  10.158   8.724   7.857
 3438SOL    HW112211  10.080   8.772   7.884
 3438SOL    HW212212  10.210   8.716   7.936
 3439SOL     OW12213   7.765   9.175  13.095
 3439SOL    HW112214   7.693   9.152  13.153
 3439SOL    HW212215   7.776   9.099  13.039
 3440SOL     OW12216  13.861   4.376  13.802
 3440SOL    HW112217  13.775   4.380  13.760
 3440SOL    HW212218  13.853   4.434  13.878
 3441SOL     OW12219   9.451  10.576   2.232
 3441SOL    HW112220   9.530  10.530   2.261
 3441SOL    HW212221   9.398  10.585   2.312
 3442SOL     OW12222  12.172  10.328   0.513
 3442SOL    HW112223  12.226  10.407   0.508
 3442SOL    HW212224  12.116  10.332   0.436
 3443SOL     OW12225  12.986   6.548  11.347
 3443SOL    HW112226  13.079   6.527  11.341
 3443SOL    HW212227  12.984   6.636  11.385
 3444SOL     OW12228   8.458   3.431   3.071
 3444SOL    HW112229   8.378   3.461   3.115
 3444SOL    HW212230   8.525   3.495   3.095
 3445SOL     OW12231   5.099   1.832   2.087
 3445SOL    HW112232   5.020   1.779   2.097
 3445SOL    HW212233   5.073   1.919   2.116
 3446SOL     OW12234  12.464  10.510   3.322
 3446SOL    HW112235  12.514  10.586   3.291
 3446SOL    HW212236  12.453  10.526   3.416
 3447SOL     OW12237  14.203   7.064   2.288
 3447SOL    HW112238  14.280   7.115   2.264
 3447SOL    HW212239  14.239   6.981   2.320
 3448SOL     OW12240   1.004   9.598   2.971
 3448SOL    HW112241   1.092   9.612   2.937
 3448SOL    HW212242   0.961   9.544   2.905
 3449SOL     OW12243   1.526  11.221   6.737
 3449SOL    HW112244   1.556  11.239   6.826
 3449SOL    HW212245   1.502  11.128   6.738
 3450SOL     OW12246   3.130   1.482   9.732
 3450SOL    HW112247   3.193   1.495   9.661
 3450SOL    HW212248   3.179   1.436   9.800
 3451SOL     OW12249   6.435   5.294   0.884
 3451SOL    HW112250   6.365   5.341   0.930
 3451SOL    HW212251   6.399   5.206   0.869
 3452SOL     OW12252   1.274   7.845   1.059
 3452SOL    HW112253   1.302   7.935   1.071
 3452SOL    HW212254   1.266   7.810   1.148
 3453SOL     OW12255  10.772  11.892   3.256
 3453SOL    HW112256  10.853  11.944   3.252
 3453SOL    HW212257  10.799  11.804   3.230
 3454SOL     OW12258   1.588   9.816   8.274
 3454SOL    HW112259   1.588   9.749   8.206
 3454SOL    HW212260   1.496   9.841   8.285
 3455SOL     OW12261  11.050   1.117   9.254
 3455SOL    HW112262  11.106   1.139   9.328
 3455SOL    HW212263  10.963   1.106   9.292
 3456SOL     OW12264   5.305   0.939   1.395
 3456SOL    HW112265   5.306   1.032   1.373
 3456SOL    HW212266   5.397   0.915   1.401
 3457SOL     OW12267   5.745  12.259   7.961
 3457SOL    HW112268   5.827  12.303   7.985
 3457SOL    HW212269   5.774  12.179   7.918
 3458SOL     OW12270   5.143  13.230   4.115
 3458SOL    HW112271   5.143  13.323   4.136
 3458SOL    HW212272   5.163  13.226   4.022
 3459SOL     OW12273   0.318   5.067  13.451
 3459SOL    HW112274   0.349   5.112  13.372
 3459SOL    HW212275   0.363   5.111  13.523
 3460SOL     OW12276   1.631   2.692   0.851
 3460SOL    HW112277   1.707   2.638   0.871
 3460SOL    HW212278   1.651   2.777   0.892
 3461SOL     OW12279  10.827   7.169   3.696
 3461SOL    HW112280  10.746   7.219   3.686
 3461SOL    HW212281  10.870   7.177   3.611
 3462SOL     OW12282  10.791   7.226  11.575
 3462SOL    HW112283  10.787   7.314  11.539
 3462SOL    HW212284  10.714   7.219  11.631
 3463SOL     OW12285   0.372   4.123   3.313
 3463SOL    HW112286   0.416   4.051   3.358
 3463SOL    HW212287   0.374   4.196   3.375
 3464SOL     OW12288   9.110  12.987   3.012
 3464SOL    HW112289   9.147  12.954   2.930
 3464SOL    HW212290   9.165  12.949   3.080
 3465SOL     OW12291   1.366  10.203   6.111
 3465SOL    HW112292   1.335  10.282   6.155
 3465SOL    HW212293   1.417  10.157   6.178
 3466SOL     OW12294  14.580   7.918   0.925
 3466SOL    HW112295  14.614   8.007   0.919
 3466SOL    HW212296  14.577   7.900   1.019
 3467SOL     OW12297   9.209   7.871   5.423
 3467SOL    HW112298   9.223   7.936   5.491
 3467SOL    HW212299   9.127   7.828   5.447
 3468SOL     OW12300  14.410  13.094  14.332
 3468SOL    HW112301  14.327  13.047  14.339
 3468SOL    HW212302  14.416  13.144  14.413
 3469SOL     OW12303  12.684   6.523   6.345
 3469SOL    HW112304  12.641   6.481   6.270
 3469SOL    HW212305  12.719   6.605   6.309
 3470SOL     OW12306   3.258   9.588   9.631
 3470SOL    HW112307   3.286   9.676   9.606
 3470SOL    HW212308   3.329   9.531   9.603
 3471SOL     OW12309   9.892  14.119   5.232
 3471SOL    HW112310   9.897  14.069   5.313
 3471SOL    HW212311   9.892  14.053   5.162
 3472SOL     OW12312   2.267   3.956   0.263
 3472SOL    HW112313   2.211   3.892   0.218
 3472SOL    HW212314   2.279   3.920   0.351
 3473SOL     OW12315  13.629   6.305   8.620
 3473SOL    HW112316  13.676   6.388   8.613
 3473SOL    HW212317  13.608   6.298   8.713
 3474SOL     OW12318   0.407  10.476   5.537
 3474SOL    HW112319   0.410  10.524   5.620
 3474SOL    HW212320   0.366  10.392   5.559
 3475SOL     OW12321   2.467  10.627   3.469
 3475SOL    HW112322   2.420  10.575   3.403
 3475SOL    HW212323   2.438  10.591   3.553
 3476SOL     OW12324   8.800   4.515  12.884
 3476SOL    HW112325   8.891   4.544  12.892
 3476SOL    HW212326   8.769   4.510  12.975
 3477SOL     OW12327   4.545  10.515   6.406
 3477SOL    HW112328   4.586  10.483   6.326
 3477SOL    HW212329   4.610  10.574   6.445
 3478SOL     OW12330   8.639   9.800   0.326
 3478SOL    HW112331   8.686   9.859   0.385
 3478SOL    HW212332   8.584   9.747   0.383
 3479SOL     OW12333   2.423   1.499  10.359
 3479SOL    HW112334   2.447   1.591  10.348
 3479SOL    HW212335   2.332   1.502  10.391
 3480SOL     OW12336  10.080   8.384   9.884
 3480SOL    HW112337   9.997   8.336   9.876
 3480SOL    HW212338  10.122   8.346   9.961
 3481SOL     OW12339   9.702   9.383   6.738
 3481SOL    HW112340   9.768   9.443   6.774
 3481SOL    HW212341   9.739   9.296   6.750
 3482SOL     OW12342  14.030   7.718   0.003
 3482SOL    HW112343  14.073   7.639  14.837
 3482SOL    HW212344  14.046   7.715   0.098
 3483SOL     OW12345   5.081   5.704  13.144
 3483SOL    HW112346   5.165   5.729  13.183
 3483SOL    HW212347   5.079   5.749  13.060
 3484SOL     OW12348   4.231   6.850  14.679
 3484SOL    HW112349   4.143   6.813  14.669
 3484SOL    HW212350   4.233   6.926  14.621
 3485SOL     OW12351   8.058   4.505   7.293
 3485SOL    HW112352   8.074   4.599   7.283
 3485SOL    HW212353   7.979   4.488   7.241
 3486SOL     OW12354   6.529   4.339   3.837
 3486SOL    HW112355   6.520   4.382   3.922
 3486SOL    HW212356   6.517   4.410   3.773
 3487SOL     OW12357  14.119  11.039   4.988
 3487SOL    HW112358  14.083  11.103   5.049
 3487SOL    HW212359  14.044  11.009   4.937
 3488SOL     OW12360   1.280   2.067  13.694
 3488SOL    HW112361   1.345   2.121  13.651
 3488SOL    HW212362   1.210   2.057  13.629
 3489SOL     OW12363   8.613  11.893   1.151
 3489SOL    HW112364   8.536  11.841   1.174
 3489SOL    HW212365   8.616  11.891   1.056
 3490SOL     OW12366   1.006  14.306   1.614
 3490SOL    HW112367   0.939  14.370   1.592
 3490SOL    HW212368   0.981  14.227   1.567
 3491SOL     OW12369  14.364   5.086  13.117
 3491SOL    HW112370  14.457   5.103  13.134
 3491SOL    HW212371  14.321   5.104  13.200
 3492SOL     OW12372   8.333   7.931   9.263
 3492SOL    HW112373   8.415   7.882   9.251
 3492SOL    HW212374   8.265   7.863   9.266
 3493SOL     OW12375   3.789   1.197  14.208
 3493SOL    HW112376   3.785   1.285  14.170
 3493SOL    HW212377   3.786   1.212  14.303
 3494SOL     OW12378   9.033  14.073   9.825
 3494SOL    HW112379   8.962  14.015   9.852
 3494SOL    HW212380   8.991  14.157   9.806
 3495SOL     OW12381  13.056  10.574   9.484
 3495SOL    HW112382  13.125  10.508   9.482
 3495SOL    HW212383  12.984  10.535   9.435
 3496SOL     OW12384  13.300   1.298   5.745
 3496SOL    HW112385  13.395   1.313   5.744
 3496SOL    HW212386  13.262   1.384   5.730
 3497SOL     OW12387   1.834  12.123   2.025
 3497SOL    HW112388   1.804  12.174   1.949
 3497SOL    HW212389   1.807  12.175   2.101
 3498SOL     OW12390   3.994   5.056   3.530
 3498SOL    HW112391   4.022   5.050   3.439
 3498SOL    HW212392   4.007   5.148   3.553
 3499SOL     OW12393   2.543  13.277  14.509
 3499SOL    HW112394   2.528  13.344  14.442
 3499SOL    HW212395   2.475  13.294  14.575
 3500SOL     OW12396   1.859   7.381  11.497
 3500SOL    HW112397   1.947   7.387  11.459
 3500SOL    HW212398   1.872   7.399  11.590
 3501SOL     OW12399  10.775  10.463   7.353
 3501SOL    HW112400  10.767  10.557   7.337
 3501SOL    HW212401  10.854  10.438   7.305
 3502SOL     OW12402   9.117  12.418   8.462
 3502SOL    HW112403   9.072  12.358   8.521
 3502SOL    HW212404   9.064  12.498   8.463
 3503SOL     OW12405   6.778   4.122   6.792
 3503SOL    HW112406   6.688   4.094   6.805
 3503SOL    HW212407   6.774   4.218   6.792
 3504SOL     OW12408   3.519   0.371   1.622
 3504SOL    HW112409   3.524   0.322   1.540
 3504SOL    HW212410   3.502   0.305   1.688
 3505SOL     OW12411   4.509  11.217  12.674
 3505SOL    HW112412   4.517  11.133  12.630
 3505SOL    HW212413   4.427  11.253  12.643
 3506SOL     OW12414   9.665  14.264   8.960
 3506SOL    HW112415   9.755  14.233   8.967
 3506SOL    HW212416   9.674  14.357   8.937
 3507SOL     OW12417  10.616   3.163   7.092
 3507SOL    HW112418  10.683   3.218   7.052
 3507SOL    HW212419  10.534   3.211   7.078
 3508SOL     OW12420   2.768   5.597  12.073
 3508SOL    HW112421   2.780   5.692  12.063
 3508SOL    HW212422   2.803   5.560  11.992
 3509SOL     OW12423  14.013   1.076   1.967
 3509SOL    HW112424  13.986   1.051   2.056
 3509SOL    HW212425  13.982   1.167   1.957
 3510SOL     OW12426  10.425   5.154   1.435
 3510SOL    HW112427  10.368   5.165   1.359
 3510SOL    HW212428  10.370   5.178   1.510
 3511SOL     OW12429   8.959   9.602   4.044
 3511SOL    HW112430   8.925   9.689   4.065
 3511SOL    HW212431   8.982   9.564   4.128
 3512SOL     OW12432   2.315   8.802   8.384
 3512SOL    HW112433   2.315   8.824   8.291
 3512SOL    HW212434   2.281   8.713   8.388
 3513SOL     OW12435  12.148  12.681   5.871
 3513SOL    HW112436  12.212  12.729   5.923
 3513SOL    HW212437  12.142  12.596   5.915
 3514SOL     OW12438  11.618   5.549  12.946
 3514SOL    HW112439  11.710   5.546  12.975
 3514SOL    HW212440  11.613   5.626  12.890
 3515SOL     OW12441   6.987  14.831  10.527
 3515SOL    HW112442   6.982   0.044  10.579
 3515SOL    HW212443   6.896  14.810  10.507
 3516SOL     OW12444   6.754   6.681   4.617
 3516SOL    HW112445   6.783   6.752   4.674
 3516SOL    HW212446   6.818   6.611   4.632
 3517SOL     OW12447   1.346   0.797  11.989
 3517SOL    HW112448   1.251   0.788  11.988
 3517SOL    HW212449   1.371   0.797  11.897
 3518SOL     OW12450   5.708   9.745   1.946
 3518SOL    HW112451   5.648   9.678   1.912
 3518SOL    HW212452   5.651   9.805   1.993
 3519SOL     OW12453  14.549   0.807   1.074
 3519SOL    HW112454  14.597   0.768   1.147
 3519SOL    HW212455  14.489   0.869   1.115
 3520SOL     OW12456   2.888  12.551   0.238
 3520SOL    HW112457   2.955  12.532   0.173
 3520SOL    HW212458   2.859  12.640   0.219
 3521SOL     OW12459   1.181   8.773   6.212
 3521SOL    HW112460   1.147   8.839   6.273
 3521SOL    HW212461   1.194   8.820   6.130
 3522SOL     OW12462   4.976   3.728   6.827
 3522SOL    HW112463   5.045   3.722   6.893
 3522SOL    HW212464   4.963   3.822   6.815
 3523SOL     OW12465   1.021  11.935  14.362
 3523SOL    HW112466   0.950  11.875  14.387
 3523SOL    HW212467   1.015  12.007  14.425
 3524SOL     OW12468   7.060   6.326  12.650
 3524SOL    HW112469   6.992   6.331  12.717
 3524SOL    HW212470   7.080   6.417  12.628
 3525SOL     OW12471  10.587  11.220  13.331
 3525SOL    HW112472  10.575  11.226  13.237
 3525SOL    HW212473  10.665  11.165  13.342
 3526SOL     OW12474  10.980   8.260   9.862
 3526SOL    HW112475  10.981   8.187   9.924
 3526SOL    HW212476  11.006   8.221   9.779
 3527SOL     OW12477   2.836  10.753   3.772
 3527SOL    HW112478   2.837  10.816   3.700
 3527SOL    HW212479   2.815  10.669   3.731
 3528SOL     OW12480   8.601  12.387   3.484
 3528SOL    HW112481   8.529  12.434   3.526
 3528SOL    HW212482   8.584  12.295   3.504
 3529SOL     OW12483   8.756  14.052  12.643
 3529SOL    HW112484   8.825  14.070  12.580
 3529SOL    HW212485   8.745  14.134  12.690
 3530SOL     OW12486   8.836  13.470   0.727
 3530SOL    HW112487   8.853  13.383   0.764
 3530SOL    HW212488   8.885  13.530   0.784
 3531SOL     OW12489  10.720   7.284   8.000
 3531SOL    HW112490  10.686   7.302   8.088
 3531SOL    HW212491  10.693   7.194   7.983
 3532SOL     OW12492  10.976   8.813   6.617
 3532SOL    HW112493  11.033   8.813   6.694
 3532SOL    HW212494  11.014   8.748   6.558
 3533SOL     OW12495  13.545   0.097   6.627
 3533SOL    HW112496  13.470   0.155   6.644
 3533SOL    HW212497  13.511   0.031   6.567
 3534SOL     OW12498   5.464   6.091  14.065
 3534SOL    HW112499   5.467   6.077  14.160
 3534SOL    HW212500   5.556   6.105  14.041
 3535SOL     OW12501   0.687  14.862  11.490
 3535SOL    HW112502   0.617   0.025  11.433
 3535SOL    HW212503   0.670   0.036  11.574
 3536SOL     OW12504   7.937   7.879   1.412
 3536SOL    HW112505   7.859   7.888   1.357
 3536SOL    HW212506   7.964   7.969   1.430
 3537SOL     OW12507  11.878   0.196   7.855
 3537SOL    HW112508  11.803   0.179   7.798
 3537SOL    HW212509  11.954   0.190   7.798
 3538SOL     OW12510  12.128   7.250   2.480
 3538SOL    HW112511  12.064   7.180   2.469
 3538SOL    HW212512  12.201   7.225   2.423
 3539SOL     OW12513   3.963   2.751   1.498
 3539SOL    HW112514   4.011   2.708   1.427
 3539SOL    HW212515   4.031   2.791   1.552
 3540SOL     OW12516   9.436   9.631   7.699
 3540SOL    HW112517   9.416   9.600   7.611
 3540SOL    HW212518   9.505   9.696   7.686
 3541SOL     OW12519  12.137  14.800   5.891
 3541SOL    HW112520  12.171  14.852   5.964
 3541SOL    HW212521  12.056  14.761   5.925
 3542SOL     OW12522   1.035  10.509   8.410
 3542SOL    HW112523   1.128  10.532   8.411
 3542SOL    HW212524   1.004  10.533   8.498
 3543SOL     OW12525   6.883   8.994   6.555
 3543SOL    HW112526   6.918   9.076   6.591
 3543SOL    HW212527   6.824   8.962   6.622
 3544SOL     OW12528   1.086   0.421  11.171
 3544SOL    HW112529   1.086   0.374  11.087
 3544SOL    HW212530   1.179   0.430  11.192
 3545SOL     OW12531  12.300   5.922   7.858
 3545SOL    HW112532  12.379   5.875   7.885
 3545SOL    HW212533  12.231   5.855   7.859
 3546SOL     OW12534   9.264  14.768   2.999
 3546SOL    HW112535   9.198  14.713   3.041
 3546SOL    HW212536   9.314  14.805   3.071
 3547SOL     OW12537  12.542  14.403  14.100
 3547SOL    HW112538  12.451  14.412  14.128
 3547SOL    HW212539  12.537  14.382  14.007
 3548SOL     OW12540   4.254   0.571  11.908
 3548SOL    HW112541   4.222   0.661  11.912
 3548SOL    HW212542   4.175   0.517  11.917
 3549SOL     OW12543  11.102  11.225   0.176
 3549SOL    HW112544  11.192  11.210   0.204
 3549SOL    HW212545  11.090  11.319   0.181
 3550SOL     OW12546   0.719   8.870  12.481
 3550SOL    HW112547   0.735   8.800  12.544
 3550SOL    HW212548   0.747   8.950  12.526
 3551SOL     OW12549  14.214  13.550   6.338
 3551SOL    HW112550  14.222  13.548   6.433
 3551SOL    HW212551  14.222  13.642   6.315
 3552SOL     OW12552  14.482   9.187   9.308
 3552SOL    HW112553  14.448   9.276   9.301
 3552SOL    HW212554  14.411   9.131   9.277
 3553SOL     OW12555   3.951  13.275   4.961
 3553SOL    HW112556   3.957  13.186   4.995
 3553SOL    HW212557   4.040  13.296   4.931
 3554SOL     OW12558   7.216  14.252  10.435
 3554SOL    HW112559   7.310  14.232  10.441
 3554SOL    HW212560   7.201  14.313  10.508
 3555SOL     OW12561   9.100   5.202  10.701
 3555SOL    HW112562   9.017   5.201  10.653
 3555SOL    HW212563   9.166   5.223  10.636
 3556SOL     OW12564   9.648  12.402   0.342
 3556SOL    HW112565   9.658  12.471   0.407
 3556SOL    HW212566   9.682  12.324   0.385
 3557SOL     OW12567   8.919  11.854   8.014
 3557SOL    HW112568   8.866  11.933   8.030
 3557SOL    HW212569   8.899  11.796   8.088
 3558SOL     OW12570  10.697  13.258   6.205
 3558SOL    HW112571  10.643  13.306   6.142
 3558SOL    HW212572  10.637  13.194   6.244
 3559SOL     OW12573  10.596   6.631   3.394
 3559SOL    HW112574  10.520   6.609   3.448
 3559SOL    HW212575  10.637   6.547   3.375
 3560SOL     OW12576  10.692   1.851   1.105
 3560SOL    HW112577  10.709   1.945   1.104
 3560SOL    HW212578  10.762   1.813   1.051
 3561SOL     OW12579   7.738  14.128  14.736
 3561SOL    HW112580   7.761  14.167  14.821
 3561SOL    HW212581   7.668  14.184  14.702
 3562SOL     OW12582   8.001   1.084   3.718
 3562SOL    HW112583   8.047   1.054   3.797
 3562SOL    HW212584   7.917   1.117   3.751
 3563SOL     OW12585   0.844  12.628   3.206
 3563SOL    HW112586   0.821  12.632   3.113
 3563SOL    HW212587   0.761  12.614   3.251
 3564SOL     OW12588   0.060   7.278   0.894
 3564SOL    HW112589   0.025   7.238   0.814
 3564SOL    HW212590   0.141   7.231   0.911
 3565SOL     OW12591   1.441   5.811  10.126
 3565SOL    HW112592   1.367   5.771  10.172
 3565SOL    HW212593   1.422   5.904  10.127
 3566SOL     OW12594  11.081  12.566   2.652
 3566SOL    HW112595  11.149  12.619   2.694
 3566SOL    HW212596  11.017  12.550   2.722
 3567SOL     OW12597  14.858  10.012   6.937
 3567SOL    HW112598  14.821   9.979   7.019
 3567SOL    HW212599   0.075   9.968   6.930
 3568SOL     OW12600   0.099  14.753  11.650
 3568SOL    HW112601   0.029  14.784  11.593
 3568SOL    HW212602   0.058  14.743  11.736
 3569SOL     OW12603   8.850   1.117  14.006
 3569SOL    HW112604   8.868   1.197  14.054
 3569SOL    HW212605   8.922   1.110  13.944
 3570SOL     OW12606  13.149  14.111   4.883
 3570SOL    HW112607  13.220  14.071   4.933
 3570SOL    HW212608  13.076  14.116   4.945
 3571SOL     OW12609   0.857   2.035   6.005
 3571SOL    HW112610   0.834   2.078   5.922
 3571SOL    HW212611   0.904   1.956   5.978
 3572SOL     OW12612   4.001  12.943   0.446
 3572SOL    HW112613   3.922  12.915   0.492
 3572SOL    HW212614   3.970  12.983   0.365
 3573SOL     OW12615  14.629  13.096  13.861
 3573SOL    HW112616  14.586  13.057  13.937
 3573SOL    HW212617  14.557  13.115  13.800
 3574SOL     OW12618  12.897   0.001   8.928
 3574SOL    HW112619  12.833   0.020   8.997
 3574SOL    HW212620  12.981  14.864   8.974
 3575SOL     OW12621   3.991   2.436   3.578
 3575SOL    HW112622   4.006   2.342   3.569
 3575SOL    HW212623   3.904   2.443   3.617
 3576SOL     OW12624  11.121   2.059   4.679
 3576SOL    HW112625  11.092   2.120   4.748
 3576SOL    HW212626  11.050   2.062   4.614
 3577SOL     OW12627  12.431   2.750   4.734
 3577SOL    HW112628  12.455   2.683   4.797
 3577SOL    HW212629  12.339   2.769   4.752
 3578SOL     OW12630  13.693   0.634   5.932
 3578SOL    HW112631  13.678   0.693   6.006
 3578SOL    HW212632  13.681   0.547   5.968
 3579SOL     OW12633  11.450   7.880   7.771
 3579SOL    HW112634  11.439   7.849   7.861
 3579SOL    HW212635  11.536   7.921   7.770
 3580SOL     OW12636   8.859  10.650  13.492
 3580SOL    HW112637   8.820  10.674  13.408
 3580SOL    HW212638   8.931  10.591  13.469
 3581SOL     OW12639  11.397  10.452   5.821
 3581SOL    HW112640  11.492  10.449   5.818
 3581SOL    HW212641  11.374  10.407   5.902
 3582SOL     OW12642   3.928   7.769   5.071
 3582SOL    HW112643   3.954   7.701   5.134
 3582SOL    HW212644   3.975   7.847   5.100
 3583SOL     OW12645  11.782   1.011  10.181
 3583SOL    HW112646  11.777   1.009  10.085
 3583SOL    HW212647  11.747   1.097  10.205
 3584SOL     OW12648   8.573   0.978   3.519
 3584SOL    HW112649   8.497   1.034   3.535
 3584SOL    HW212650   8.647   1.029   3.552
 3585SOL     OW12651   5.167   7.407   2.544
 3585SOL    HW112652   5.195   7.323   2.507
 3585SOL    HW212653   5.088   7.385   2.593
 3586SOL     OW12654   1.375  14.317   3.607
 3586SOL    HW112655   1.371  14.409   3.582
 3586SOL    HW212656   1.290  14.281   3.580
 3587SOL     OW12657   2.627   3.163   5.651
 3587SOL    HW112658   2.553   3.102   5.656
 3587SOL    HW212659   2.595   3.241   5.697
 3588SOL     OW12660   8.193  14.639   0.649
 3588SOL    HW112661   8.247  14.686   0.586
 3588SOL    HW212662   8.252  14.577   0.691
 3589SOL     OW12663   1.222   8.226  13.920
 3589SOL    HW112664   1.167   8.300  13.945
 3589SOL    HW212665   1.309   8.264  13.908
 3590SOL     OW12666   6.456  13.072   7.601
 3590SOL    HW112667   6.419  13.090   7.515
 3590SOL    HW212668   6.381  13.054   7.658
 3591SOL     OW12669   1.775   0.062  14.088
 3591SOL    HW112670   1.747  14.839  14.081
 3591SOL    HW212671   1.723   0.109  14.023
 3592SOL     OW12672   7.623  14.608   1.766
 3592SOL    HW112673   7.529  14.591   1.763
 3592SOL    HW212674   7.646  14.632   1.677
 3593SOL     OW12675   1.340   8.510   5.067
 3593SOL    HW112676   1.404   8.440   5.081
 3593SOL    HW212677   1.359   8.573   5.137
 3594SOL     OW12678  13.976   6.010  13.433
 3594SOL    HW112679  13.979   6.102  13.406
 3594SOL    HW212680  13.925   6.012  13.515
 3595SOL     OW12681   0.519   9.824   4.405
 3595SOL    HW112682   0.500   9.914   4.433
 3595SOL    HW212683   0.512   9.827   4.309
 3596SOL     OW12684   1.763  10.025   0.164
 3596SOL    HW112685   1.831  10.083   0.132
 3596SOL    HW212686   1.733   9.978   0.086
 3597SOL     OW12687   5.466   4.090   9.120
 3597SOL    HW112688   5.512   4.112   9.201
 3597SOL    HW212689   5.462   4.172   9.072
 3598SOL     OW12690  10.410   9.250  14.599
 3598SOL    HW112691  10.366   9.334  14.590
 3598SOL    HW212692  10.393   9.205  14.516
 3599SOL     OW12693   0.813   2.260   0.575
 3599SOL    HW112694   0.868   2.338   0.575
 3599SOL    HW212695   0.800   2.240   0.482
 3600SOL     OW12696  13.784  12.044   0.687
 3600SOL    HW112697  13.850  12.002   0.631
 3600SOL    HW212698  13.713  11.980   0.692
 3601SOL     OW12699  12.429   0.830   0.625
 3601SOL    HW112700  12.398   0.864   0.709
 3601SOL    HW212701  12.395   0.741   0.621
 3602SOL     OW12702   9.394   3.150   8.469
 3602SOL    HW112703   9.325   3.093   8.434
 3602SOL    HW212704   9.383   3.232   8.422
 3603SOL     OW12705   1.063   7.625   2.677
 3603SOL    HW112706   0.988   7.624   2.737
 3603SOL    HW212707   1.124   7.561   2.714
 3604SOL     OW12708  11.020  11.027  11.731
 3604SOL    HW112709  10.944  11.058  11.681
 3604SOL    HW212710  11.017  10.932  11.721
 3605SOL     OW12711   2.616   3.112   0.118
 3605SOL    HW112712   2.600   3.018   0.115
 3605SOL    HW212713   2.711   3.121   0.114
 3606SOL     OW12714   3.580   7.729  11.875
 3606SOL    HW112715   3.646   7.674  11.917
 3606SOL    HW212716   3.627   7.809  11.852
 3607SOL     OW12717   6.146  10.441   7.706
 3607SOL    HW112718   6.115  10.438   7.797
 3607SOL    HW212719   6.214  10.374   7.702
 3608SOL     OW12720  10.195  14.813   9.949
 3608SOL    HW112721  10.174  14.748   9.881
 3608SOL    HW212722  10.220  14.761  10.025
 3609SOL     OW12723  12.866  13.724   7.126
 3609SOL    HW112724  12.955  13.688   7.122
 3609SOL    HW212725  12.859  13.758   7.215
 3610SOL     OW12726  11.955   5.912  14.663
 3610SOL    HW112727  11.979   5.848  14.596
 3610SOL    HW212728  11.883   5.872  14.711
 3611SOL     OW12729  13.455  11.264   4.841
 3611SOL    HW112730  13.493  11.179   4.820
 3611SOL    HW212731  13.378  11.271   4.785
 3612SOL     OW12732   4.280   7.535   0.868
 3612SOL    HW112733   4.189   7.550   0.843
 3612SOL    HW212734   4.285   7.561   0.960
 3613SOL     OW12735  14.722   9.129  14.705
 3613SOL    HW112736  14.787   9.181  14.657
 3613SOL    HW212737  14.773   9.081  14.770
 3614SOL     OW12738   0.643   7.383   1.674
 3614SOL    HW112739   0.701   7.356   1.746
 3614SOL    HW212740   0.559   7.401   1.717
 3615SOL     OW12741  12.043   8.824   8.011
 3615SOL    HW112742  12.018   8.914   7.988
 3615SOL    HW212743  12.083   8.789   7.932
 3616SOL     OW12744   5.902   9.009   9.682
 3616SOL    HW112745   5.993   8.989   9.660
 3616SOL    HW212746   5.853   8.930   9.659
 3617SOL     OW12747   5.042   9.618   6.689
 3617SOL    HW112748   5.052   9.564   6.610
 3617SOL    HW212749   4.953   9.651   6.685
 3618SOL     OW12750  10.333   8.860  13.043
 3618SOL    HW112751  10.294   8.947  13.048
 3618SOL    HW212752  10.356   8.838  13.133
 3619SOL     OW12753  10.376   8.415   7.433
 3619SOL    HW112754  10.355   8.473   7.360
 3619SOL    HW212755  10.415   8.472   7.499
 3620SOL     OW12756  12.981   6.619   3.936
 3620SOL    HW112757  12.886   6.612   3.936
 3620SOL    HW212758  13.011   6.544   3.987
 3621SOL     OW12759   5.491  14.420   7.840
 3621SOL    HW112760   5.474  14.474   7.917
 3621SOL    HW212761   5.497  14.331   7.875
 3622SOL     OW12762   1.524   0.938  14.668
 3622SOL    HW112763   1.457   0.985  14.718
 3622SOL    HW212764   1.512   0.846  14.693
 3623SOL     OW12765   2.951  12.573   1.297
 3623SOL    HW112766   3.007  12.498   1.275
 3623SOL    HW212767   2.932  12.562   1.390
 3624SOL     OW12768   0.085   5.621  11.575
 3624SOL    HW112769   0.173   5.597  11.546
 3624SOL    HW212770   0.027   5.583  11.509
 3625SOL     OW12771  13.920   4.799   6.461
 3625SOL    HW112772  13.864   4.866   6.421
 3625SOL    HW212773  13.866   4.761   6.530
 3626SOL     OW12774  12.600  10.675  11.801
 3626SOL    HW112775  12.619  10.653  11.709
 3626SOL    HW212776  12.514  10.636  11.817
 3627SOL     OW12777   1.191  12.554  10.934
 3627SOL    HW112778   1.100  12.584  10.924
 3627SOL    HW212779   1.202  12.543  11.029
 3628SOL     OW12780   1.431   2.271   3.345
 3628SOL    HW112781   1.398   2.187   3.314
 3628SOL    HW212782   1.516   2.251   3.385
 3629SOL     OW12783   4.262  14.387   8.943
 3629SOL    HW112784   4.305  14.381   8.858
 3629SOL    HW212785   4.180  14.339   8.932
 3630SOL     OW12786  10.695   8.205   5.385
 3630SOL    HW112787  10.685   8.111   5.373
 3630SOL    HW212788  10.777   8.226   5.341
 3631SOL     OW12789   6.601   2.964   7.016
 3631SOL    HW112790   6.615   2.926   7.103
 3631SOL    HW212791   6.543   2.902   6.972
 3632SOL     OW12792   4.360   4.650   9.318
 3632SOL    HW112793   4.390   4.724   9.371
 3632SOL    HW212794   4.359   4.576   9.378
 3633SOL     OW12795  14.626  14.826   2.316
 3633SOL    HW112796  14.545  14.795   2.357
 3633SOL    HW212797  14.662   0.019   2.380
 3634SOL     OW12798   5.874  13.896   0.912
 3634SOL    HW112799   5.818  13.861   0.982
 3634SOL    HW212800   5.953  13.925   0.957
 3635SOL     OW12801   8.561   4.979  10.400
 3635SOL    HW112802   8.636   5.035  10.420
 3635SOL    HW212803   8.544   4.931  10.480
 3636SOL     OW12804  12.647   7.505   5.474
 3636SOL    HW112805  12.643   7.443   5.401
 3636SOL    HW212806  12.571   7.482   5.528
 3637SOL     OW12807   9.636   6.790  11.760
 3637SOL    HW112808   9.572   6.739  11.710
 3637SOL    HW212809   9.683   6.726  11.813
 3638SOL     OW12810  13.302   3.788  12.340
 3638SOL    HW112811  13.390   3.756  12.362
 3638SOL    HW212812  13.276   3.735  12.265
 3639SOL     OW12813  13.792   5.231   1.225
 3639SOL    HW112814  13.827   5.143   1.238
 3639SOL    HW212815  13.864   5.279   1.184
 3640SOL     OW12816  11.319  11.047   8.860
 3640SOL    HW112817  11.348  11.087   8.778
 3640SOL    HW212818  11.247  10.990   8.835
 3641SOL     OW12819  13.937   5.552   7.597
 3641SOL    HW112820  13.929   5.534   7.503
 3641SOL    HW212821  13.850   5.580   7.623
 3642SOL     OW12822   5.973   5.643   2.564
 3642SOL    HW112823   5.910   5.686   2.622
 3642SOL    HW212824   6.017   5.579   2.620
 3643SOL     OW12825  12.732   6.220  11.239
 3643SOL    HW112826  12.822   6.219  11.207
 3643SOL    HW212827  12.709   6.127  11.248
 3644SOL     OW12828  12.060  12.237   8.162
 3644SOL    HW112829  12.048  12.145   8.187
 3644SOL    HW212830  12.083  12.281   8.243
 3645SOL     OW12831   2.963   4.467  13.432
 3645SOL    HW112832   3.056   4.461  13.452
 3645SOL    HW212833   2.950   4.557  13.402
 3646SOL     OW12834   0.471   4.271  12.786
 3646SOL    HW112835   0.484   4.277  12.691
 3646SOL    HW212836   0.383   4.236  12.796
 3647SOL     OW12837   8.490  12.541   4.571
 3647SOL    HW112838   8.567  12.536   4.628
 3647SOL    HW212839   8.516  12.494   4.492
 3648SOL     OW12840   4.103  11.245   7.398
 3648SOL    HW112841   4.134  11.208   7.315
 3648SOL    HW212842   4.045  11.178   7.433
 3649SOL     OW12843  11.767   1.295  14.710
 3649SOL    HW112844  11.773   1.267  14.618
 3649SOL    HW212845  11.847   1.259  14.750
 3650SOL     OW12846   2.813   2.374  10.397
 3650SOL    HW112847   2.767   2.426  10.463
 3650SOL    HW212848   2.853   2.303  10.447
 3651SOL     OW12849   9.484  10.875   6.187
 3651SOL    HW112850   9.460  10.942   6.123
 3651SOL    HW212851   9.528  10.807   6.136
 3652SOL     OW12852   4.942   7.170  11.705
 3652SOL    HW112853   4.976   7.096  11.756
 3652SOL    HW212854   4.847   7.160  11.708
 3653SOL     OW12855   3.101  10.974   8.526
 3653SOL    HW112856   3.021  11.026   8.534
 3653SOL    HW212857   3.120  10.946   8.616
 3654SOL     OW12858   6.274   7.336  10.449
 3654SOL    HW112859   6.348   7.310  10.396
 3654SOL    HW212860   6.303   7.415  10.495
 3655SOL     OW12861   3.988   9.149   3.026
 3655SOL    HW112862   3.953   9.201   2.953
 3655SOL    HW212863   3.912   9.127   3.079
 3656SOL     OW12864   3.486   1.346  13.811
 3656SOL    HW112865   3.497   1.340  13.906
 3656SOL    HW212866   3.547   1.415  13.785
 3657SOL     OW12867  12.984   5.927  10.617
 3657SOL    HW112868  13.015   6.017  10.612
 3657SOL    HW212869  12.961   5.914  10.709
 3658SOL     OW12870   2.509   3.611  11.320
 3658SOL    HW112871   2.459   3.666  11.379
 3658SOL    HW212872   2.596   3.606  11.360
 3659SOL     OW12873   9.213   5.491   4.746
 3659SOL    HW112874   9.238   5.453   4.661
 3659SOL    HW212875   9.271   5.448   4.809
 3660SOL     OW12876   2.703  10.650  11.401
 3660SOL    HW112877   2.715  10.724  11.460
 3660SOL    HW212878   2.617  10.615  11.423
 3661SOL     OW12879  10.980  11.427  14.648
 3661SOL    HW112880  11.069  11.460  14.660
 3661SOL    HW212881  10.958  11.385  14.731
 3662SOL     OW12882  13.388   3.555   1.330
 3662SOL    HW112883  13.480   3.544   1.308
 3662SOL    HW212884  13.366   3.642   1.297
 3663SOL     OW12885  13.565   4.848   6.219
 3663SOL    HW112886  13.483   4.879   6.181
 3663SOL    HW212887  13.610   4.803   6.147
 3664SOL     OW12888   8.537   6.473   9.545
 3664SOL    HW112889   8.541   6.568   9.556
 3664SOL    HW212890   8.453   6.448   9.583
 3665SOL     OW12891  13.199  14.092  10.358
 3665SOL    HW112892  13.290  14.081  10.333
 3665SOL    HW212893  13.153  14.020  10.312
 3666SOL     OW12894  12.251   0.469  10.758
 3666SOL    HW112895  12.255   0.558  10.724
 3666SOL    HW212896  12.158   0.448  10.762
 3667SOL     OW12897   1.321  12.226   3.088
 3667SOL    HW112898   1.296  12.279   3.164
 3667SOL    HW212899   1.288  12.138   3.109
 3668SOL     OW12900  13.824  12.570  11.048
 3668SOL    HW112901  13.891  12.561  11.116
 3668SOL    HW212902  13.860  12.523  10.973
 3669SOL     OW12903   7.100  12.010   9.413
 3669SOL    HW112904   7.193  11.987   9.420
 3669SOL    HW212905   7.053  11.936   9.452
 3670SOL     OW12906   3.905  11.270   3.821
 3670SOL    HW112907   3.908  11.365   3.811
 3670SOL    HW212908   3.817  11.252   3.855
 3671SOL     OW12909   4.028  10.866   2.806
 3671SOL    HW112910   4.117  10.834   2.791
 3671SOL    HW212911   3.973  10.788   2.799
 3672SOL     OW12912   6.534   9.215   4.589
 3672SOL    HW112913   6.568   9.243   4.674
 3672SOL    HW212914   6.444   9.190   4.605
 3673SOL     OW12915  12.245   9.195   8.950
 3673SOL    HW112916  12.188   9.146   8.891
 3673SOL    HW212917  12.313   9.231   8.893
 3674SOL     OW12918  11.607   5.019   2.890
 3674SOL    HW112919  11.528   4.980   2.853
 3674SOL    HW212920  11.647   4.949   2.941
 3675SOL     OW12921   7.657   3.761   4.002
 3675SOL    HW112922   7.658   3.809   4.085
 3675SOL    HW212923   7.749   3.743   3.983
 3676SOL     OW12924  14.366   5.625   6.487
 3676SOL    HW112925  14.312   5.632   6.567
 3676SOL    HW212926  14.367   5.714   6.452
 3677SOL     OW12927   1.874   1.304   0.382
 3677SOL    HW112928   1.802   1.269   0.330
 3677SOL    HW212929   1.845   1.297   0.472
 3678SOL     OW12930   7.143   7.922   4.690
 3678SOL    HW112931   7.083   7.869   4.743
 3678SOL    HW212932   7.159   8.000   4.744
 3679SOL     OW12933   2.453  14.399  13.697
 3679SOL    HW112934   2.448  14.483  13.652
 3679SOL    HW212935   2.364  14.365  13.696
 3680SOL     OW12936   4.005   0.534  13.983
 3680SOL    HW112937   3.944   0.518  13.911
 3680SOL    HW212938   4.048   0.617  13.959
 3681SOL     OW12939  12.620   1.391  13.965
 3681SOL    HW112940  12.627   1.437  14.049
 3681SOL    HW212941  12.527   1.396  13.943
 3682SOL     OW12942   8.539   2.004   8.281
 3682SOL    HW112943   8.482   2.078   8.303
 3682SOL    HW212944   8.628   2.038   8.293
 3683SOL     OW12945  11.512   4.076   9.286
 3683SOL    HW112946  11.457   4.100   9.361
 3683SOL    HW212947  11.509   3.981   9.283
 3684SOL     OW12948  13.804   7.311  11.922
 3684SOL    HW112949  13.725   7.305  11.867
 3684SOL    HW212950  13.845   7.226  11.913
 3685SOL     OW12951   8.241  11.085   5.094
 3685SOL    HW112952   8.288  11.030   5.032
 3685SOL    HW212953   8.201  11.153   5.040
 3686SOL     OW12954   7.178  12.613  11.861
 3686SOL    HW112955   7.108  12.641  11.919
 3686SOL    HW212956   7.135  12.599  11.777
 3687SOL     OW12957  11.453   6.157  12.939
 3687SOL    HW112958  11.517   6.145  12.869
 3687SOL    HW212959  11.469   6.085  13.000
 3688SOL     OW12960  11.611   2.153  11.451
 3688SOL    HW112961  11.678   2.202  11.498
 3688SOL    HW212962  11.658   2.080  11.410
 3689SOL     OW12963   9.836   3.379   8.221
 3689SOL    HW112964   9.822   3.307   8.283
 3689SOL    HW212965   9.840   3.336   8.136
 3690SOL     OW12966  11.982   6.844  12.307
 3690SOL    HW112967  11.906   6.817  12.257
 3690SOL    HW212968  12.019   6.762  12.341
 3691SOL     OW12969   6.568  12.842  11.953
 3691SOL    HW112970   6.514  12.877  12.024
 3691SOL    HW212971   6.545  12.897  11.877
 3692SOL     OW12972  13.061   5.514   4.378
 3692SOL    HW112973  13.155   5.511   4.393
 3692SOL    HW212974  13.033   5.422   4.381
 3693SOL     OW12975  10.857   0.691   1.898
 3693SOL    HW112976  10.807   0.610   1.910
 3693SOL    HW212977  10.837   0.743   1.976
 3694SOL     OW12978   5.834   7.214  13.821
 3694SOL    HW112979   5.739   7.208  13.814
 3694SOL    HW212980   5.855   7.300  13.785
 3695SOL     OW12981   2.588  13.019   1.171
 3695SOL    HW112982   2.625  12.931   1.181
 3695SOL    HW212983   2.634  13.057   1.096
 3696SOL     OW12984  13.256   8.432  10.370
 3696SOL    HW112985  13.173   8.465  10.404
 3696SOL    HW212986  13.237   8.342  10.343
 3697SOL     OW12987   9.328   4.996  14.476
 3697SOL    HW112988   9.285   4.937  14.539
 3697SOL    HW212989   9.370   4.938  14.413
 3698SOL     OW12990   4.956   7.392  10.052
 3698SOL    HW112991   5.005   7.310  10.049
 3698SOL    HW212992   4.908   7.389  10.135
 3699SOL     OW12993  10.228  10.955  14.107
 3699SOL    HW112994  10.288  10.986  14.176
 3699SOL    HW212995  10.286  10.924  14.038
 3700SOL     OW12996  10.898   0.790  13.703
 3700SOL    HW112997  10.967   0.821  13.644
 3700SOL    HW212998  10.944   0.748  13.775
 3701SOL     OW12999   3.741  10.354   8.948
 3701SOL    HW113000   3.824  10.402   8.944
 3701SOL    HW213001   3.684  10.409   9.002
 3702SOL     OW13002   8.723   1.612  10.839
 3702SOL    HW113003   8.814   1.585  10.852
 3702SOL    HW213004   8.684   1.607  10.927
 3703SOL     OW13005   1.473  12.483   7.214
 3703SOL    HW113006   1.406  12.548   7.192
 3703SOL    HW213007   1.511  12.515   7.296
 3704SOL     OW13008   7.230  14.511  12.792
 3704SOL    HW113009   7.290  14.568  12.744
 3704SOL    HW213010   7.268  14.505  12.879
 3705SOL     OW13011   6.071   6.105  13.818
 3705SOL    HW113012   5.986   6.074  13.849
 3705SOL    HW213013   6.114   6.027  13.784
 3706SOL     OW13014   9.887  11.160   1.478
 3706SOL    HW113015   9.967  11.171   1.529
 3706SOL    HW213016   9.817  11.155   1.543
 3707SOL     OW13017   4.562   4.437   7.616
 3707SOL    HW113018   4.616   4.466   7.689
 3707SOL    HW213019   4.525   4.354   7.644
 3708SOL     OW13020   9.250  11.594  14.245
 3708SOL    HW113021   9.209  11.508  14.249
 3708SOL    HW213022   9.312  11.588  14.172
 3709SOL     OW13023   2.224  14.793   8.729
 3709SOL    HW113024   2.303  14.826   8.686
 3709SOL    HW213025   2.152  14.835   8.682
 3710SOL     OW13026   1.161   5.341   9.735
 3710SOL    HW113027   1.069   5.315   9.741
 3710SOL    HW213028   1.206   5.288   9.801
 3711SOL     OW13029  12.595  14.692  12.331
 3711SOL    HW113030  12.619  14.666  12.420
 3711SOL    HW213031  12.554  14.615  12.293
 3712SOL     OW13032   7.810  12.373   0.575
 3712SOL    HW113033   7.794  12.453   0.526
 3712SOL    HW213034   7.775  12.303   0.520
 3713SOL     OW13035   1.509   9.613   7.291
 3713SOL    HW113036   1.593   9.652   7.314
 3713SOL    HW213037   1.459   9.684   7.250
 3714SOL     OW13038   2.655   0.737  12.075
 3714SOL    HW113039   2.712   0.803  12.114
 3714SOL    HW213040   2.694   0.653  12.102
 3715SOL     OW13041  10.467   6.156   8.141
 3715SOL    HW113042  10.483   6.087   8.205
 3715SOL    HW213043  10.395   6.207   8.179
 3716SOL     OW13044   3.979   0.695   1.686
 3716SOL    HW113045   3.924   0.754   1.737
 3716SOL    HW213046   3.938   0.691   1.600
 3717SOL     OW13047  11.256  14.862   1.664
 3717SOL    HW113048  11.204   0.004   1.744
 3717SOL    HW213049  11.338  14.823   1.693
 3718SOL     OW13050  14.705   7.289   4.206
 3718SOL    HW113051  14.689   7.195   4.195
 3718SOL    HW213052  14.799   7.299   4.189
 3719SOL     OW13053   5.649  11.800   5.821
 3719SOL    HW113054   5.621  11.844   5.901
 3719SOL    HW213055   5.576  11.743   5.797
 3720SOL     OW13056  10.781   4.594   6.552
 3720SOL    HW113057  10.829   4.652   6.492
 3720SOL    HW213058  10.826   4.605   6.636
 3721SOL     OW13059   1.488   3.395   6.777
 3721SOL    HW113060   1.491   3.417   6.870
 3721SOL    HW213061   1.547   3.457   6.735
 3722SOL     OW13062   4.445  14.310   7.455
 3722SOL    HW113063   4.457  14.405   7.464
 3722SOL    HW213064   4.493  14.288   7.375
 3723SOL     OW13065   1.735  11.768   6.607
 3723SOL    HW113066   1.787  11.709   6.553
 3723SOL    HW213067   1.774  11.855   6.591
 3724SOL     OW13068   3.604   4.223  12.326
 3724SOL    HW113069   3.585   4.178  12.244
 3724SOL    HW213070   3.564   4.309  12.316
 3725SOL     OW13071   4.334   5.230   9.374
 3725SOL    HW113072   4.389   5.299   9.411
 3725SOL    HW213073   4.395   5.171   9.330
 3726SOL     OW13074  13.448   3.998  14.537
 3726SOL    HW113075  13.492   4.079  14.564
 3726SOL    HW213076  13.356   4.022  14.526
 3727SOL     OW13077  11.830  14.855   3.573
 3727SOL    HW113078  11.764  14.801   3.529
 3727SOL    HW213079  11.782   0.064   3.603
 3728SOL     OW13080   1.068  13.966   5.898
 3728SOL    HW113081   1.107  13.885   5.932
 3728SOL    HW213082   1.079  13.960   5.803
 3729SOL     OW13083   5.033   2.325   7.639
 3729SOL    HW113084   5.127   2.333   7.655
 3729SOL    HW213085   5.025   2.320   7.544
 3730SOL     OW13086   4.292   0.679   7.526
 3730SOL    HW113087   4.378   0.706   7.560
 3730SOL    HW213088   4.250   0.760   7.498
 3731SOL     OW13089   7.107   7.049   3.520
 3731SOL    HW113090   7.175   7.027   3.584
 3731SOL    HW213091   7.038   6.984   3.534
 3732SOL     OW13092   8.199   1.239   2.704
 3732SOL    HW113093   8.220   1.332   2.689
 3732SOL    HW213094   8.173   1.207   2.617
 3733SOL     OW13095  12.246  13.555   8.178
 3733SOL    HW113096  12.247  13.641   8.220
 3733SOL    HW213097  12.288  13.497   8.241
 3734SOL     OW13098   4.289  13.861   6.116
 3734SOL    HW113099   4.284  13.831   6.207
 3734SOL    HW213100   4.197  13.867   6.088
 3735SOL     OW13101  11.804   5.224  13.248
 3735SOL    HW113102  11.870   5.291  13.269
 3735SOL    HW213103  11.732   5.274  13.209
 3736SOL     OW13104   2.171  13.777   6.789
 3736SOL    HW113105   2.216  13.842   6.736
 3736SOL    HW213106   2.117  13.728   6.728
 3737SOL     OW13107   8.159   2.250   2.962
 3737SOL    HW113108   8.116   2.165   2.970
 3737SOL    HW213109   8.180   2.257   2.869
 3738SOL     OW13110   9.199   6.181  14.202
 3738SOL    HW113111   9.222   6.096  14.238
 3738SOL    HW213112   9.172   6.163  14.112
 3739SOL     OW13113  12.693  10.119  11.504
 3739SOL    HW113114  12.775  10.076  11.480
 3739SOL    HW213115  12.712  10.165  11.585
 3740SOL     OW13116  12.069   3.326   4.506
 3740SOL    HW113117  12.125   3.396   4.473
 3740SOL    HW213118  12.025   3.364   4.582
 3741SOL     OW13119   4.230   7.635  14.568
 3741SOL    HW113120   4.162   7.581  14.608
 3741SOL    HW213121   4.300   7.639  14.634
 3742SOL     OW13122   4.260   2.148  14.389
 3742SOL    HW113123   4.331   2.184  14.335
 3742SOL    HW213124   4.192   2.216  14.388
 3743SOL     OW13125  14.813  11.423  10.592
 3743SOL    HW113126  14.864  11.343  10.580
 3743SOL    HW213127   0.010  11.493  10.593
 3744SOL     OW13128  13.274   5.064   3.148
 3744SOL    HW113129  13.202   5.077   3.086
 3744SOL    HW213130  13.349   5.042   3.094
 3745SOL     OW13131   9.488   2.538   7.373
 3745SOL    HW113132   9.461   2.537   7.465
 3745SOL    HW213133   9.420   2.590   7.330
 3746SOL     OW13134   6.468   8.676   7.828
 3746SOL    HW113135   6.421   8.759   7.820
 3746SOL    HW213136   6.405   8.610   7.799
 3747SOL     OW13137   4.954   2.422   2.953
 3747SOL    HW113138   5.028   2.453   3.006
 3747SOL    HW213139   4.877   2.436   3.008
 3748SOL     OW13140  11.656   1.621   5.273
 3748SOL    HW113141  11.690   1.707   5.297
 3748SOL    HW213142  11.720   1.559   5.310
 3749SOL     OW13143   4.766   4.515   2.208
 3749SOL    HW113144   4.860   4.499   2.199
 3749SOL    HW213145   4.724   4.447   2.156
 3750SOL     OW13146   1.129   5.505   0.708
 3750SOL    HW113147   1.103   5.552   0.787
 3750SOL    HW213148   1.055   5.518   0.647
 3751SOL     OW13149  10.137   6.326   7.702
 3751SOL    HW113150  10.165   6.259   7.764
 3751SOL    HW213151  10.151   6.286   7.616
 3752SOL     OW13152   8.909   8.812  13.800
 3752SOL    HW113153   8.837   8.777  13.748
 3752SOL    HW213154   8.910   8.757  13.879
 3753SOL     OW13155   1.464   3.401   7.876
 3753SOL    HW113156   1.440   3.419   7.967
 3753SOL    HW213157   1.497   3.311   7.877
 3754SOL     OW13158   0.898   8.194  14.111
 3754SOL    HW113159   0.913   8.100  14.115
 3754SOL    HW213160   0.805   8.202  14.090
 3755SOL     OW13161   7.026   3.268   6.041
 3755SOL    HW113162   7.017   3.177   6.015
 3755SOL    HW213163   7.115   3.292   6.015
 3756SOL     OW13164   6.922  13.319   1.116
 3756SOL    HW113165   6.967  13.403   1.121
 3756SOL    HW213166   6.993  13.255   1.107
 3757SOL     OW13167  11.766   6.910  12.909
 3757SOL    HW113168  11.836   6.891  12.847
 3757SOL    HW213169  11.767   7.005  12.917
 3758SOL     OW13170  12.301  14.016   7.261
 3758SOL    HW113171  12.253  13.937   7.285
 3758SOL    HW213172  12.285  14.027   7.168
 3759SOL     OW13173   8.295   7.201   4.964
 3759SOL    HW113174   8.214   7.149   4.965
 3759SOL    HW213175   8.322   7.201   4.872
 3760SOL     OW13176   9.636   7.727   6.567
 3760SOL    HW113177   9.634   7.633   6.547
 3760SOL    HW213178   9.672   7.731   6.655
 3761SOL     OW13179  10.627  14.036   3.334
 3761SOL    HW113180  10.683  14.079   3.269
 3761SOL    HW213181  10.653  13.944   3.331
 3762SOL     OW13182   4.483   2.419   2.520
 3762SOL    HW113183   4.502   2.474   2.595
 3762SOL    HW213184   4.472   2.331   2.556
 3763SOL     OW13185   6.542  13.482   4.313
 3763SOL    HW113186   6.584  13.412   4.264
 3763SOL    HW213187   6.448  13.469   4.298
 3764SOL     OW13188   2.192   2.933   4.435
 3764SOL    HW113189   2.127   2.946   4.505
 3764SOL    HW213190   2.208   2.839   4.435
 3765SOL     OW13191   1.695  13.846   1.748
 3765SOL    HW113192   1.761  13.801   1.800
 3765SOL    HW213193   1.621  13.786   1.744
 3766SOL     OW13194   2.546   8.582   1.861
 3766SOL    HW113195   2.616   8.635   1.821
 3766SOL    HW213196   2.488   8.561   1.788
 3767SOL     OW13197  12.436   1.131   6.373
 3767SOL    HW113198  12.347   1.151   6.402
 3767SOL    HW213199  12.437   1.156   6.280
 3768SOL     OW13200   7.954   9.539   3.237
 3768SOL    HW113201   7.889   9.584   3.182
 3768SOL    HW213202   7.975   9.602   3.305
 3769SOL     OW13203  14.041   5.070   3.595
 3769SOL    HW113204  14.126   5.104   3.566
 3769SOL    HW213205  13.998   5.041   3.515
 3770SOL     OW13206  13.601   2.030  11.073
 3770SOL    HW113207  13.634   2.031  11.163
 3770SOL    HW213208  13.621   2.118  11.039
 3771SOL     OW13209   9.106  10.668   9.266
 3771SOL    HW113210   9.089  10.615   9.344
 3771SOL    HW213211   9.170  10.617   9.216
 3772SOL     OW13212   9.384  13.974  12.475
 3772SOL    HW113213   9.427  13.996  12.557
 3772SOL    HW213214   9.301  13.933  12.502
 3773SOL     OW13215   2.328   4.731  14.226
 3773SOL    HW113216   2.244   4.706  14.189
 3773SOL    HW213217   2.392   4.672  14.185
 3774SOL     OW13218   6.601   8.388   7.009
 3774SOL    HW113219   6.530   8.374   6.947
 3774SOL    HW213220   6.607   8.306   7.058
 3775SOL     OW13221   5.572  10.799   7.993
 3775SOL    HW113222   5.546  10.798   8.085
 3775SOL    HW213223   5.565  10.707   7.965
 3776SOL     OW13224   0.652  10.536   8.325
 3776SOL    HW113225   0.683  10.584   8.248
 3776SOL    HW213226   0.633  10.605   8.389
 3777SOL     OW13227  11.937  12.022  14.188
 3777SOL    HW113228  11.962  12.113  14.172
 3777SOL    HW213229  12.003  11.970  14.143
 3778SOL     OW13230  14.146   5.009   4.216
 3778SOL    HW113231  14.181   5.092   4.248
 3778SOL    HW213232  14.190   4.942   4.269
 3779SOL     OW13233  10.221   4.134   5.964
 3779SOL    HW113234  10.216   4.047   5.926
 3779SOL    HW213235  10.303   4.134   6.014
 3780SOL     OW13236  10.248  10.242  13.634
 3780SOL    HW113237  10.206  10.223  13.718
 3780SOL    HW213238  10.228  10.166  13.579
 3781SOL     OW13239   1.264   8.534  11.260
 3781SOL    HW113240   1.258   8.577  11.174
 3781SOL    HW213241   1.299   8.447  11.241
 3782SOL     OW13242  11.759   5.745   1.353
 3782SOL    HW113243  11.832   5.691   1.383
 3782SOL    HW213244  11.800   5.822   1.313
 3783SOL     OW13245   9.926   8.834  14.712
 3783SOL    HW113246   9.966   8.830  14.799
 3783SOL    HW213247   9.939   8.747  14.675
 3784SOL     OW13248   5.835   3.550   2.326
 3784SOL    HW113249   5.913   3.542   2.271
 3784SOL    HW213250   5.762   3.532   2.267
 3785SOL     OW13251   6.363  14.145  10.872
 3785SOL    HW113252   6.343  14.088  10.798
 3785SOL    HW213253   6.447  14.186  10.849
 3786SOL     OW13254   1.121  10.705   0.714
 3786SOL    HW113255   1.066  10.629   0.693
 3786SOL    HW213256   1.105  10.721   0.807
 3787SOL     OW13257   8.781   3.572   5.634
 3787SOL    HW113258   8.831   3.651   5.613
 3787SOL    HW213259   8.739   3.591   5.717
 3788SOL     OW13260   5.524  12.513  14.867
 3788SOL    HW113261   5.529  12.420   0.020
 3788SOL    HW213262   5.563  12.521  14.780
 3789SOL     OW13263  11.340   5.790  14.588
 3789SOL    HW113264  11.385   5.873  14.574
 3789SOL    HW213265  11.405   5.734  14.631
 3790SOL     OW13266   3.209   3.392  13.410
 3790SOL    HW113267   3.242   3.368  13.324
 3790SOL    HW213268   3.167   3.312  13.443
 3791SOL     OW13269   9.452  10.980   8.351
 3791SOL    HW113270   9.366  10.940   8.361
 3791SOL    HW213271   9.440  11.070   8.383
 3792SOL     OW13272  14.048   3.913   5.959
 3792SOL    HW113273  13.968   3.865   5.980
 3792SOL    HW213274  14.076   3.950   6.042
 3793SOL     OW13275  13.997   9.926   7.691
 3793SOL    HW113276  13.992   9.975   7.773
 3793SOL    HW213277  14.053   9.852   7.710
 3794SOL     OW13278   1.422  10.196   1.230
 3794SOL    HW113279   1.439  10.224   1.320
 3794SOL    HW213280   1.391  10.105   1.238
 3795SOL     OW13281   6.599   7.039  12.589
 3795SOL    HW113282   6.574   7.127  12.617
 3795SOL    HW213283   6.577   7.035  12.496
 3796SOL     OW13284   5.353  12.300  10.092
 3796SOL    HW113285   5.297  12.346  10.154
 3796SOL    HW213286   5.422  12.261  10.145
 3797SOL     OW13287   8.616  14.640   2.025
 3797SOL    HW113288   8.554  14.711   2.044
 3797SOL    HW213289   8.687  14.653   2.088
 3798SOL     OW13290  14.682  10.437   4.544
 3798SOL    HW113291  14.608  10.398   4.592
 3798SOL    HW213292  14.734  10.363   4.516
 3799SOL     OW13293   3.572   6.405  14.274
 3799SOL    HW113294   3.497   6.390  14.331
 3799SOL    HW213295   3.561   6.495  14.243
 3800SOL     OW13296  10.352   8.327   4.965
 3800SOL    HW113297  10.399   8.246   4.946
 3800SOL    HW213298  10.349   8.331   5.061
 3801SOL     OW13299   7.771   9.252  13.779
 3801SOL    HW113300   7.695   9.251  13.837
 3801SOL    HW213301   7.773   9.340  13.744
 3802SOL     OW13302  12.334   8.371   5.586
 3802SOL    HW113303  12.298   8.366   5.497
 3802SOL    HW213304  12.258   8.388   5.642
 3803SOL     OW13305   1.909   4.250   3.615
 3803SOL    HW113306   1.814   4.260   3.618
 3803SOL    HW213307   1.925   4.160   3.646
 3804SOL     OW13308   6.829   9.436  10.757
 3804SOL    HW113309   6.843   9.467  10.846
 3804SOL    HW213310   6.738   9.407  10.756
 3805SOL     OW13311   6.478   1.329   8.846
 3805SOL    HW113312   6.466   1.274   8.924
 3805SOL    HW213313   6.573   1.328   8.831
 3806SOL     OW13314   0.168   6.286   9.359
 3806SOL    HW113315   0.220   6.230   9.417
 3806SOL    HW213316   0.083   6.243   9.354
 3807SOL     OW13317  12.560   8.718  14.211
 3807SOL    HW113318  12.588   8.775  14.283
 3807SOL    HW213319  12.468   8.739  14.198
 3808SOL     OW13320   5.544   7.362  11.728
 3808SOL    HW113321   5.484   7.296  11.763
 3808SOL    HW213322   5.517   7.374  11.637
 3809SOL     OW13323   9.761   6.711   1.775
 3809SOL    HW113324   9.820   6.655   1.725
 3809SOL    HW213325   9.763   6.795   1.729
 3810SOL     OW13326   0.772   7.937  13.878
 3810SOL    HW113327   0.758   7.848  13.846
 3810SOL    HW213328   0.838   7.973  13.818
 3811SOL     OW13329   9.678   3.385  11.650
 3811SOL    HW113330   9.669   3.325  11.576
 3811SOL    HW213331   9.696   3.470  11.610
 3812SOL     OW13332  13.794   9.428   6.317
 3812SOL    HW113333  13.720   9.369   6.301
 3812SOL    HW213334  13.840   9.431   6.233
 3813SOL     OW13335   6.621  13.724  11.885
 3813SOL    HW113336   6.624  13.820  11.882
 3813SOL    HW213337   6.654  13.697  11.799
 3814SOL     OW13338   6.103   3.309  14.544
 3814SOL    HW113339   6.180   3.326  14.489
 3814SOL    HW213340   6.133   3.328  14.633
 3815SOL     OW13341  10.644  11.697   8.949
 3815SOL    HW113342  10.641  11.775   8.895
 3815SOL    HW213343  10.564  11.649   8.928
 3816SOL     OW13344   5.834  13.630   5.597
 3816SOL    HW113345   5.850  13.655   5.689
 3816SOL    HW213346   5.887  13.551   5.585
 3817SOL     OW13347  10.636   3.907   6.046
 3817SOL    HW113348  10.697   3.937   6.113
 3817SOL    HW213349  10.576   3.981   6.034
 3818SOL     OW13350   7.801   2.358  11.483
 3818SOL    HW113351   7.846   2.304  11.417
 3818SOL    HW213352   7.809   2.307  11.564
 3819SOL     OW13353  11.865  11.563   2.049
 3819SOL    HW113354  11.861  11.476   2.010
 3819SOL    HW213355  11.820  11.554   2.133
 3820SOL     OW13356  12.945   3.105   3.083
 3820SOL    HW113357  12.865   3.111   3.031
 3820SOL    HW213358  12.993   3.185   3.061
 3821SOL     OW13359  12.657   8.221   0.544
 3821SOL    HW113360  12.650   8.257   0.455
 3821SOL    HW213361  12.579   8.254   0.589
 3822SOL     OW13362  14.258   7.345  12.726
 3822SOL    HW113363  14.254   7.271  12.787
 3822SOL    HW213364  14.217   7.417  12.773
 3823SOL     OW13365   0.710   1.470  14.282
 3823SOL    HW113366   0.626   1.425  14.277
 3823SOL    HW213367   0.730   1.473  14.375
 3824SOL     OW13368   1.247   6.266   9.931
 3824SOL    HW113369   1.263   6.360   9.947
 3824SOL    HW213370   1.157   6.262   9.898
 3825SOL     OW13371   0.559   1.998   5.179
 3825SOL    HW113372   0.591   2.064   5.118
 3825SOL    HW213373   0.541   2.046   5.259
 3826SOL     OW13374  13.038   6.456  14.012
 3826SOL    HW113375  13.050   6.423  14.101
 3826SOL    HW213376  12.999   6.382  13.964
 3827SOL     OW13377  11.851   3.490   0.720
 3827SOL    HW113378  11.825   3.401   0.693
 3827SOL    HW213379  11.768   3.532   0.743
 3828SOL     OW13380   4.328  11.125   0.451
 3828SOL    HW113381   4.358  11.215   0.465
 3828SOL    HW213382   4.261  11.133   0.383
 3829SOL     OW13383  10.929   0.745   7.607
 3829SOL    HW113384  10.921   0.740   7.703
 3829SOL    HW213385  10.844   0.776   7.578
 3830SOL     OW13386   3.296  12.734  10.520
 3830SOL    HW113387   3.317  12.826  10.535
 3830SOL    HW213388   3.312  12.721  10.427
 3831SOL     OW13389   4.352  10.483   7.274
 3831SOL    HW113390   4.348  10.567   7.229
 3831SOL    HW213391   4.297  10.425   7.222
 3832SOL     OW13392   2.754   9.989  13.307
 3832SOL    HW113393   2.799   9.987  13.392
 3832SOL    HW213394   2.714   9.902  13.299
 3833SOL     OW13395   5.261   3.301   7.381
 3833SOL    HW113396   5.247   3.351   7.461
 3833SOL    HW213397   5.322   3.232   7.406
 3834SOL     OW13398  11.979   5.567   1.015
 3834SOL    HW113399  11.947   5.626   0.947
 3834SOL    HW213400  11.907   5.507   1.032
 3835SOL     OW13401  12.280   6.660   9.621
 3835SOL    HW113402  12.316   6.716   9.553
 3835SOL    HW213403  12.188   6.686   9.628
 3836SOL     OW13404   3.323  14.035   9.460
 3836SOL    HW113405   3.350  14.127   9.469
 3836SOL    HW213406   3.404  13.985   9.468
 3837SOL     OW13407  10.372   0.202   4.540
 3837SOL    HW113408  10.442   0.238   4.593
 3837SOL    HW213409  10.386   0.240   4.453
 3838SOL     OW13410  13.594   3.054  13.756
 3838SOL    HW113411  13.689   3.044  13.750
 3838SOL    HW213412  13.559   2.978  13.709
 3839SOL     OW13413   4.820  10.339   7.108
 3839SOL    HW113414   4.769  10.338   7.027
 3839SOL    HW213415   4.808  10.428   7.142
 3840SOL     OW13416  14.469  12.607  13.510
 3840SOL    HW113417  14.557  12.579  13.484
 3840SOL    HW213418  14.473  12.608  13.606
 3841SOL     OW13419  11.415  12.171   7.668
 3841SOL    HW113420  11.401  12.260   7.699
 3841SOL    HW213421  11.347  12.119   7.711
 3842SOL     OW13422   0.740  12.090  14.765
 3842SOL    HW113423   0.698  12.096  14.679
 3842SOL    HW213424   0.718  12.003  14.797
 3843SOL     OW13425   7.862   4.081  14.379
 3843SOL    HW113426   7.879   4.001  14.429
 3843SOL    HW213427   7.948   4.121  14.368
 3844SOL     OW13428   8.837   8.510  10.350
 3844SOL    HW113429   8.743   8.491  10.356
 3844SOL    HW213430   8.865   8.464  10.271
 3845SOL     OW13431  14.005   2.938   6.053
 3845SOL    HW113432  14.097   2.927   6.077
 3845SOL    HW213433  13.959   2.872   6.105
 3846SOL     OW13434   9.545   5.809   5.147
 3846SOL    HW113435   9.557   5.886   5.203
 3846SOL    HW213436   9.540   5.735   5.208
 3847SOL     OW13437   5.734  10.239  12.373
 3847SOL    HW113438   5.822  10.233  12.410
 3847SOL    HW213439   5.738  10.312  12.312
 3848SOL     OW13440  13.397   7.470   2.756
 3848SOL    HW113441  13.338   7.423   2.815
 3848SOL    HW213442  13.475   7.489   2.810
 3849SOL     OW13443  13.545   1.274   0.677
 3849SOL    HW113444  13.467   1.294   0.729
 3849SOL    HW213445  13.593   1.357   0.674
 3850SOL     OW13446  13.264   5.296   2.618
 3850SOL    HW113447  13.219   5.327   2.539
 3850SOL    HW213448  13.281   5.203   2.600
 3851SOL     OW13449   1.841   7.928   3.163
 3851SOL    HW113450   1.860   7.966   3.248
 3851SOL    HW213451   1.918   7.950   3.109
 3852SOL     OW13452   3.815  10.589   4.089
 3852SOL    HW113453   3.756  10.661   4.115
 3852SOL    HW213454   3.894  10.605   4.140
 3853SOL     OW13455   2.243   3.728  12.823
 3853SOL    HW113456   2.151   3.703  12.814
 3853SOL    HW213457   2.241   3.823  12.835
 3854SOL     OW13458   4.959   7.087   3.951
 3854SOL    HW113459   4.950   7.179   3.927
 3854SOL    HW213460   4.897   7.041   3.894
 3855SOL     OW13461   5.286  12.965   2.301
 3855SOL    HW113462   5.344  13.029   2.342
 3855SOL    HW213463   5.236  13.015   2.236
 3856SOL     OW13464   1.205  12.566  10.569
 3856SOL    HW113465   1.290  12.594  10.536
 3856SOL    HW213466   1.163  12.522  10.495
 3857SOL     OW13467   3.942  11.951   3.377
 3857SOL    HW113468   3.990  11.935   3.296
 3857SOL    HW213469   3.856  11.913   3.362
 3858SOL     OW13470   7.327   1.107   3.880
 3858SOL    HW113471   7.361   1.119   3.791
 3858SOL    HW213472   7.232   1.115   3.871
 3859SOL     OW13473   6.467  14.171   3.800
 3859SOL    HW113474   6.419  14.089   3.798
 3859SOL    HW213475   6.551  14.150   3.759
 3860SOL     OW13476  12.127   0.160   8.997
 3860SOL    HW113477  12.070   0.140   9.071
 3860SOL    HW213478  12.191   0.089   8.996
 3861SOL     OW13479   2.520   4.489   4.055
 3861SOL    HW113480   2.526   4.583   4.070
 3861SOL    HW213481   2.555   4.450   4.135
 3862SOL     OW13482   0.255  12.327   7.833
 3862SOL    HW113483   0.288  12.335   7.743
 3862SOL    HW213484   0.324  12.283   7.881
 3863SOL     OW13485   8.031   9.672   7.995
 3863SOL    HW113486   7.963   9.717   7.945
 3863SOL    HW213487   8.083   9.742   8.033
 3864SOL     OW13488   2.434   0.179   4.877
 3864SOL    HW113489   2.362   0.115   4.871
 3864SOL    HW213490   2.394   0.255   4.919
 3865SOL     OW13491  12.152   5.521   9.392
 3865SOL    HW113492  12.128   5.524   9.484
 3865SOL    HW213493  12.236   5.475   9.390
 3866SOL     OW13494   4.041   4.160   9.228
 3866SOL    HW113495   4.045   4.251   9.199
 3866SOL    HW213496   4.022   4.110   9.148
 3867SOL     OW13497   3.057   9.537   2.172
 3867SOL    HW113498   3.146   9.503   2.170
 3867SOL    HW213499   3.001   9.461   2.157
 3868SOL     OW13500   8.399   0.135  11.870
 3868SOL    HW113501   8.409   0.040  11.872
 3868SOL    HW213502   8.442   0.162  11.788
 3869SOL     OW13503   9.514   8.279   5.711
 3869SOL    HW113504   9.466   8.264   5.793
 3869SOL    HW213505   9.507   8.373   5.695
 3870SOL     OW13506   0.624  13.942  12.523
 3870SOL    HW113507   0.689  13.940  12.452
 3870SOL    HW213508   0.672  13.913  12.600
 3871SOL     OW13509  13.674   8.621   5.466
 3871SOL    HW113510  13.693   8.715   5.469
 3871SOL    HW213511  13.745   8.581   5.515
 3872SOL     OW13512   1.566   4.372   4.217
 3872SOL    HW113513   1.522   4.435   4.274
 3872SOL    HW213514   1.609   4.312   4.277
 3873SOL     OW13515   7.897  13.254   3.091
 3873SOL    HW113516   7.980  13.292   3.118
 3873SOL    HW213517   7.919  13.166   3.061
 3874SOL     OW13518  10.063  13.426   1.261
 3874SOL    HW113519  10.019  13.372   1.195
 3874SOL    HW213520  10.048  13.381   1.344
 3875SOL     OW13521  11.807  13.425   1.655
 3875SOL    HW113522  11.890  13.467   1.679
 3875SOL    HW213523  11.829  13.373   1.578
 3876SOL     OW13524  13.547  12.933  14.094
 3876SOL    HW113525  13.546  12.842  14.065
 3876SOL    HW213526  13.598  12.979  14.026
 3877SOL     OW13527   9.292  11.246  12.310
 3877SOL    HW113528   9.369  11.263  12.255
 3877SOL    HW213529   9.288  11.321  12.370
 3878SOL     OW13530   7.457   3.466   3.352
 3878SOL    HW113531   7.393   3.456   3.422
 3878SOL    HW213532   7.448   3.558   3.325
 3879SOL     OW13533   5.857   2.652   5.879
 3879SOL    HW113534   5.802   2.600   5.937
 3879SOL    HW213535   5.800   2.672   5.805
 3880SOL     OW13536   0.177   4.594   1.231
 3880SOL    HW113537   0.098   4.556   1.271
 3880SOL    HW213538   0.230   4.622   1.305
 3881SOL     OW13539   9.673  11.835   1.647
 3881SOL    HW113540   9.683  11.930   1.648
 3881SOL    HW213541   9.607  11.819   1.580
 3882SOL     OW13542   0.453  10.686   4.273
 3882SOL    HW113543   0.467  10.639   4.192
 3882SOL    HW213544   0.528  10.663   4.328
 3883SOL     OW13545   4.737   9.466  12.319
 3883SOL    HW113546   4.714   9.538  12.378
 3883SOL    HW213547   4.812   9.499  12.269
 3884SOL     OW13548  10.352   1.680   7.367
 3884SOL    HW113549  10.381   1.735   7.440
 3884SOL    HW213550  10.303   1.739   7.310
 3885SOL     OW13551   2.164   2.866   1.143
 3885SOL    HW113552   2.172   2.794   1.205
 3885SOL    HW213553   2.083   2.910   1.167
 3886SOL     OW13554  13.712  10.710   1.017
 3886SOL    HW113555  13.732  10.622   0.985
 3886SOL    HW213556  13.617  10.710   1.030
 3887SOL     OW13557   3.127   7.615   5.470
 3887SOL    HW113558   3.144   7.532   5.424
 3887SOL    HW213559   3.158   7.682   5.409
 3888SOL     OW13560  12.108  13.575   4.674
 3888SOL    HW113561  12.187  13.567   4.728
 3888SOL    HW213562  12.116  13.660   4.633
 3889SOL     OW13563  14.201  11.897   6.960
 3889SOL    HW113564  14.139  11.962   6.993
 3889SOL    HW213565  14.165  11.813   6.989
 3890SOL     OW13566  14.499   6.455   7.998
 3890SOL    HW113567  14.471   6.411   8.079
 3890SOL    HW213568  14.436   6.424   7.932
 3891SOL     OW13569   9.677  13.627  10.858
 3891SOL    HW113570   9.657  13.571  10.932
 3891SOL    HW213571   9.612  13.697  10.862
 3892SOL     OW13572   3.085   9.018   0.504
 3892SOL    HW113573   3.160   8.996   0.559
 3892SOL    HW213574   3.099   8.967   0.424
 3893SOL     OW13575   3.829  12.841   0.613
 3893SOL    HW113576   3.830  12.901   0.687
 3893SOL    HW213577   3.862  12.758   0.648
 3894SOL     OW13578   3.710   8.572   0.493
 3894SOL    HW113579   3.696   8.648   0.436
 3894SOL    HW213580   3.738   8.610   0.576
 3895SOL     OW13581  13.614   7.105  14.725
 3895SOL    HW113582  13.635   7.053  14.647
 3895SOL    HW213583  13.694   7.155  14.742
 3896SOL     OW13584   8.067  10.581   1.245
 3896SOL    HW113585   8.051  10.614   1.157
 3896SOL    HW213586   7.983  10.588   1.290
 3897SOL     OW13587   9.771   2.492   3.468
 3897SOL    HW113588   9.775   2.426   3.537
 3897SOL    HW213589   9.681   2.485   3.434
 3898SOL     OW13590   8.116   9.975   1.443
 3898SOL    HW113591   8.195   9.981   1.389
 3898SOL    HW213592   8.056  10.040   1.406
 3899SOL     OW13593   7.113  12.278   6.345
 3899SOL    HW113594   7.132  12.222   6.420
 3899SOL    HW213595   7.198  12.291   6.303
 3900SOL     OW13596   4.748   5.307   1.910
 3900SOL    HW113597   4.722   5.299   1.818
 3900SOL    HW213598   4.709   5.232   1.953
 3901SOL     OW13599  11.759   5.012  13.771
 3901SOL    HW113600  11.816   4.950  13.728
 3901SOL    HW213601  11.741   5.079  13.705
 3902SOL     OW13602  14.341   4.937   5.835
 3902SOL    HW113603  14.258   4.946   5.882
 3902SOL    HW213604  14.373   4.850   5.860
 3903SOL     OW13605   7.950   8.960   7.171
 3903SOL    HW113606   7.869   8.950   7.121
 3903SOL    HW213607   8.006   8.888   7.142
 3904SOL     OW13608  13.662  12.174   2.717
 3904SOL    HW113609  13.576  12.180   2.758
 3904SOL    HW213610  13.723  12.206   2.784
 3905SOL     OW13611   8.702   0.854  12.827
 3905SOL    HW113612   8.702   0.794  12.901
 3905SOL    HW213613   8.769   0.819  12.768
 3906SOL     OW13614   4.794   5.975   2.028
 3906SOL    HW113615   4.698   5.977   2.022
 3906SOL    HW213616   4.816   5.882   2.026
 3907SOL     OW13617   4.195   7.292   6.124
 3907SOL    HW113618   4.218   7.368   6.178
 3907SOL    HW213619   4.167   7.329   6.040
 3908SOL     OW13620   4.781   5.978   7.407
 3908SOL    HW113621   4.723   5.976   7.483
 3908SOL    HW213622   4.826   6.062   7.413
 3909SOL     OW13623   0.781   8.953   8.043
 3909SOL    HW113624   0.688   8.974   8.041
 3909SOL    HW213625   0.812   8.973   7.954
 3910SOL     OW13626  12.846   2.911   3.962
 3910SOL    HW113627  12.884   2.898   3.876
 3910SOL    HW213628  12.871   3.000   3.987
 3911SOL     OW13629   2.638   1.104   2.686
 3911SOL    HW113630   2.637   1.031   2.624
 3911SOL    HW213631   2.724   1.098   2.728
 3912SOL     OW13632   2.726  11.610  11.211
 3912SOL    HW113633   2.686  11.645  11.131
 3912SOL    HW213634   2.738  11.687  11.267
 3913SOL     OW13635   7.584   7.890   3.074
 3913SOL    HW113636   7.510   7.852   3.122
 3913SOL    HW213637   7.549   7.970   3.035
 3914SOL     OW13638  12.911   0.250  10.682
 3914SOL    HW113639  12.898   0.284  10.771
 3914SOL    HW213640  12.968   0.314  10.640
 3915SOL     OW13641   3.307  12.231   9.323
 3915SOL    HW113642   3.275  12.317   9.297
 3915SOL    HW213643   3.353  12.247   9.406
 3916SOL     OW13644  11.541  14.067  13.588
 3916SOL    HW113645  11.559  14.003  13.658
 3916SOL    HW213646  11.580  14.148  13.619
 3917SOL     OW13647  14.773   3.618  14.399
 3917SOL    HW113648  14.718   3.545  14.373
 3917SOL    HW213649  14.862   3.590  14.377
 3918SOL     OW13650  14.330  13.933   6.866
 3918SOL    HW113651  14.238  13.913   6.885
 3918SOL    HW213652  14.335  13.935   6.770
 3919SOL     OW13653   2.020   5.789  14.660
 3919SOL    HW113654   1.931   5.754  14.661
 3919SOL    HW213655   2.033   5.819  14.571
 3920SOL     OW13656   0.398   1.878   4.358
 3920SOL    HW113657   0.429   1.965   4.333
 3920SOL    HW213658   0.444   1.859   4.440
 3921SOL     OW13659  10.652   3.344  11.525
 3921SOL    HW113660  10.619   3.271  11.473
 3921SOL    HW213661  10.599   3.342  11.604
 3922SOL     OW13662   3.209   5.453   6.583
 3922SOL    HW113663   3.302   5.466   6.599
 3922SOL    HW213664   3.167   5.534   6.615
 3923SOL     OW13665  11.906   6.378   9.942
 3923SOL    HW113666  11.947   6.427  10.012
 3923SOL    HW213667  11.930   6.426   9.862
 3924SOL     OW13668   2.602   2.859   1.389
 3924SOL    HW113669   2.651   2.800   1.331
 3924SOL    HW213670   2.533   2.896   1.333
 3925SOL     OW13671  14.362   9.989   7.722
 3925SOL    HW113672  14.450  10.027   7.723
 3925SOL    HW213673  14.345   9.969   7.630
 3926SOL     OW13674  12.553  11.337  11.996
 3926SOL    HW113675  12.532  11.244  12.011
 3926SOL    HW213676  12.479  11.384  12.034
 3927SOL     OW13677   1.954   7.982   8.484
 3927SOL    HW113678   1.890   7.945   8.422
 3927SOL    HW213679   1.933   7.940   8.567
 3928SOL     OW13680  14.686  14.070  11.952
 3928SOL    HW113681  14.599  14.047  11.984
 3928SOL    HW213682  14.736  14.090  12.030
 3929SOL     OW13683   2.983   1.670  12.028
 3929SOL    HW113684   3.021   1.728  11.961
 3929SOL    HW213685   3.059   1.629  12.069
 3930SOL     OW13686   1.207   8.663   5.415
 3930SOL    HW113687   1.164   8.739   5.374
 3930SOL    HW213688   1.135   8.601   5.430
 3931SOL     OW13689  11.782  13.060  11.165
 3931SOL    HW113690  11.745  13.000  11.100
 3931SOL    HW213691  11.861  13.015  11.196
 3932SOL     OW13692  10.872   6.938  10.185
 3932SOL    HW113693  10.927   6.862  10.199
 3932SOL    HW213694  10.907   7.005  10.244
 3933SOL     OW13695  10.151  13.207   1.387
 3933SOL    HW113696  10.196  13.191   1.304
 3933SOL    HW213697  10.221  13.234   1.447
 3934SOL     OW13698  13.022   5.266  12.985
 3934SOL    HW113699  13.015   5.189  12.929
 3934SOL    HW213700  13.112   5.266  13.016
 3935SOL     OW13701   0.475   2.071   1.620
 3935SOL    HW113702   0.415   1.997   1.624
 3935SOL    HW213703   0.464   2.107   1.532
 3936SOL     OW13704   6.382   7.550  14.033
 3936SOL    HW113705   6.427   7.501  13.965
 3936SOL    HW213706   6.297   7.505  14.043
 3937SOL     OW13707  13.710   0.618  10.498
 3937SOL    HW113708  13.803   0.637  10.510
 3937SOL    HW213709  13.672   0.625  10.586
 3938SOL     OW13710   2.888   2.260  11.051
 3938SOL    HW113711   2.942   2.337  11.069
 3938SOL    HW213712   2.896   2.248  10.956
 3939SOL     OW13713  13.761  11.090   4.819
 3939SOL    HW113714  13.675  11.054   4.842
 3939SOL    HW213715  13.779  11.053   4.732
 3940SOL     OW13716   6.108   6.996   5.413
 3940SOL    HW113717   6.146   7.078   5.443
 3940SOL    HW213718   6.014   7.007   5.426
 3941SOL     OW13719   5.200  12.177   4.798
 3941SOL    HW113720   5.209  12.132   4.714
 3941SOL    HW213721   5.247  12.121   4.860
 3942SOL     OW13722  10.013   5.596   9.597
 3942SOL    HW113723  10.024   5.551   9.680
 3942SOL    HW213724  10.048   5.684   9.613
 3943SOL     OW13725   0.860   3.110   0.095
 3943SOL    HW113726   0.789   3.047   0.101
 3943SOL    HW213727   0.821   3.192   0.126
 3944SOL     OW13728   7.557   1.378   3.327
 3944SOL    HW113729   7.596   1.292   3.310
 3944SOL    HW213730   7.541   1.379   3.422
 3945SOL     OW13731   0.607   3.885   4.580
 3945SOL    HW113732   0.537   3.854   4.523
 3945SOL    HW213733   0.582   3.975   4.603
 3946SOL     OW13734   6.181   6.916   5.848
 3946SOL    HW113735   6.164   6.998   5.801
 3946SOL    HW213736   6.144   6.930   5.935
 3947SOL     OW13737  14.212   9.256   0.688
 3947SOL    HW113738  14.255   9.293   0.766
 3947SOL    HW213739  14.230   9.319   0.619
 3948SOL     OW13740   4.350   8.651  13.395
 3948SOL    HW113741   4.414   8.670  13.327
 3948SOL    HW213742   4.378   8.703  13.470
 3949SOL     OW13743  12.435   0.593   7.700
 3949SOL    HW113744  12.342   0.578   7.688
 3949SOL    HW213745  12.467   0.617   7.613
 3950SOL     OW13746  14.570   7.528  13.074
 3950SOL    HW113747  14.567   7.436  13.100
 3950SOL    HW213748  14.604   7.574  13.151
 3951SOL     OW13749   5.057  13.208  11.231
 3951SOL    HW113750   5.058  13.116  11.206
 3951SOL    HW213751   5.029  13.208  11.322
 3952SOL     OW13752   0.452   0.147   7.649
 3952SOL    HW113753   0.503   0.067   7.637
 3952SOL    HW213754   0.465   0.170   7.741
 3953SOL     OW13755   1.381   4.800   4.495
 3953SOL    HW113756   1.418   4.746   4.565
 3953SOL    HW213757   1.289   4.811   4.519
 3954SOL     OW13758   1.307  11.093   7.562
 3954SOL    HW113759   1.317  11.016   7.617
 3954SOL    HW213760   1.270  11.060   7.480
 3955SOL     OW13761  10.056  11.916   7.566
 3955SOL    HW113762  10.135  11.967   7.547
 3955SOL    HW213763  10.070  11.832   7.522
 3956SOL     OW13764   6.584   1.953   8.642
 3956SOL    HW113765   6.653   1.886   8.639
 3956SOL    HW213766   6.522   1.920   8.708
 3957SOL     OW13767  14.339   2.281   2.415
 3957SOL    HW113768  14.265   2.230   2.450
 3957SOL    HW213769  14.326   2.278   2.320
 3958SOL     OW13770   0.315   8.316  14.255
 3958SOL    HW113771   0.348   8.232  14.286
 3958SOL    HW213772   0.227   8.322  14.292
 3959SOL     OW13773   3.618  10.385   7.258
 3959SOL    HW113774   3.665  10.431   7.327
 3959SOL    HW213775   3.655  10.297   7.257
 3960SOL     OW13776   8.173   8.208   6.676
 3960SOL    HW113777   8.161   8.186   6.768
 3960SOL    HW213778   8.258   8.252   6.673
 3961SOL     OW13779   6.527  12.966   5.558
 3961SOL    HW113780   6.519  12.951   5.652
 3961SOL    HW213781   6.555  12.882   5.522
 3962SOL     OW13782  10.303   0.662   8.175
 3962SOL    HW113783  10.362   0.662   8.250
 3962SOL    HW213784  10.228   0.715   8.203
 3963SOL     OW13785   6.595   9.307   0.191
 3963SOL    HW113786   6.567   9.297   0.101
 3963SOL    HW213787   6.556   9.233   0.237
 3964SOL     OW13788  12.554  10.867   0.801
 3964SOL    HW113789  12.458  10.861   0.799
 3964SOL    HW213790  12.572  10.947   0.850
 3965SOL     OW13791   1.321  12.174  11.773
 3965SOL    HW113792   1.269  12.126  11.708
 3965SOL    HW213793   1.367  12.241  11.721
 3966SOL     OW13794  10.579   6.390  11.664
 3966SOL    HW113795  10.568   6.398  11.569
 3966SOL    HW213796  10.629   6.468  11.688
 3967SOL     OW13797   5.675   1.577  11.746
 3967SOL    HW113798   5.688   1.538  11.833
 3967SOL    HW213799   5.702   1.668  11.756
 3968SOL     OW13800   1.508   1.977   5.719
 3968SOL    HW113801   1.481   1.996   5.809
 3968SOL    HW213802   1.604   1.983   5.720
 3969SOL     OW13803   9.205   8.469   7.287
 3969SOL    HW113804   9.297   8.458   7.311
 3969SOL    HW213805   9.206   8.537   7.220
 3970SOL     OW13806  10.455   3.914   7.877
 3970SOL    HW113807  10.484   3.823   7.876
 3970SOL    HW213808  10.363   3.910   7.852
 3971SOL     OW13809   6.264   9.147   9.751
 3971SOL    HW113810   6.320   9.139   9.674
 3971SOL    HW213811   6.324   9.149   9.825
 3972SOL     OW13812   7.721   6.914   1.301
 3972SOL    HW113813   7.700   6.824   1.275
 3972SOL    HW213814   7.738   6.909   1.395
 3973SOL     OW13815  11.908  12.939   7.600
 3973SOL    HW113816  11.889  12.948   7.507
 3973SOL    HW213817  11.951  12.854   7.608
 3974SOL     OW13818   6.026   4.245   9.394
 3974SOL    HW113819   6.081   4.169   9.381
 3974SOL    HW213820   5.936   4.211   9.389
 3975SOL     OW13821   1.698   9.893   7.803
 3975SOL    HW113822   1.669   9.824   7.743
 3975SOL    HW213823   1.620   9.915   7.854
 3976SOL     OW13824  12.712  13.089   4.720
 3976SOL    HW113825  12.714  13.091   4.625
 3976SOL    HW213826  12.758  13.008   4.743
 3977SOL     OW13827   3.220   9.164   5.572
 3977SOL    HW113828   3.222   9.259   5.575
 3977SOL    HW213829   3.309   9.137   5.596
 3978SOL     OW13830   6.484  11.773   5.804
 3978SOL    HW113831   6.560  11.815   5.844
 3978SOL    HW213832   6.480  11.809   5.716
 3979SOL     OW13833  13.277   6.187   4.473
 3979SOL    HW113834  13.362   6.153   4.502
 3979SOL    HW213835  13.294   6.279   4.453
 3980SOL     OW13836   3.921   3.843   8.671
 3980SOL    HW113837   3.932   3.770   8.610
 3980SOL    HW213838   3.838   3.825   8.716
 3981SOL     OW13839   6.486   6.061   4.816
 3981SOL    HW113840   6.397   6.038   4.841
 3981SOL    HW213841   6.476   6.134   4.755
 3982SOL     OW13842  13.148   6.596   0.384
 3982SOL    HW113843  13.203   6.535   0.433
 3982SOL    HW213844  13.156   6.569   0.293
 3983SOL     OW13845   9.201  10.170  13.723
 3983SOL    HW113846   9.272  10.217  13.680
 3983SOL    HW213847   9.122  10.200  13.678
 3984SOL     OW13848   0.903   2.155   5.025
 3984SOL    HW113849   0.832   2.187   5.081
 3984SOL    HW213850   0.982   2.195   5.062
 3985SOL     OW13851   1.007   8.333   8.911
 3985SOL    HW113852   0.948   8.407   8.898
 3985SOL    HW213853   1.094   8.371   8.907
 3986SOL     OW13854   6.444   1.055   7.520
 3986SOL    HW113855   6.501   1.019   7.452
 3986SOL    HW213856   6.497   1.053   7.599
 3987SOL     OW13857   7.785   1.740   7.601
 3987SOL    HW113858   7.835   1.664   7.632
 3987SOL    HW213859   7.772   1.794   7.680
 3988SOL     OW13860   1.205   6.487  13.566
 3988SOL    HW113861   1.165   6.400  13.568
 3988SOL    HW213862   1.286   6.477  13.617
 3989SOL     OW13863  12.990   4.177  10.330
 3989SOL    HW113864  12.972   4.195  10.238
 3989SOL    HW213865  13.083   4.197  10.341
 3990SOL     OW13866   4.792   4.851   0.555
 3990SOL    HW113867   4.845   4.861   0.635
 3990SOL    HW213868   4.803   4.934   0.509
 3991SOL     OW13869  10.036   8.701   7.091
 3991SOL    HW113870  10.084   8.780   7.069
 3991SOL    HW213871   9.959   8.731   7.140
 3992SOL     OW13872  10.621   3.572   7.070
 3992SOL    HW113873  10.699   3.563   7.125
 3992SOL    HW213874  10.569   3.640   7.113
 3993SOL     OW13875   4.209  11.226   8.535
 3993SOL    HW113876   4.296  11.185   8.539
 3993SOL    HW213877   4.216  11.288   8.462
 3994SOL     OW13878   2.912   9.928  12.098
 3994SOL    HW113879   2.820   9.951  12.114
 3994SOL    HW213880   2.962   9.992  12.149
 3995SOL     OW13881   4.627  11.350   1.644
 3995SOL    HW113882   4.594  11.381   1.729
 3995SOL    HW213883   4.722  11.359   1.650
 3996SOL     OW13884  12.197   2.110   0.367
 3996SOL    HW113885  12.132   2.085   0.302
 3996SOL    HW213886  12.212   2.031   0.419
 3997SOL     OW13887   1.495  12.754   2.445
 3997SOL    HW113888   1.567  12.801   2.404
 3997SOL    HW213889   1.534  12.715   2.524
 3998SOL     OW13890   8.720   1.984   8.663
 3998SOL    HW113891   8.632   2.003   8.696
 3998SOL    HW213892   8.712   1.897   8.623
 3999SOL     OW13893   1.344   6.511   2.361
 3999SOL    HW113894   1.308   6.582   2.414
 3999SOL    HW213895   1.370   6.444   2.425
 4000SOL     OW13896   8.708  10.811  13.647
 4000SOL    HW113897   8.762  10.748  13.599
 4000SOL    HW213898   8.682  10.875  13.581
 4001SOL     OW13899   3.125   0.358   0.688
 4001SOL    HW113900   3.054   0.341   0.749
 4001SOL    HW213901   3.092   0.425   0.629
 4002SOL     OW13902   1.972   9.703   1.636
 4002SOL    HW113903   1.946   9.741   1.553
 4002SOL    HW213904   2.056   9.661   1.618
 4003SOL     OW13905   6.282   3.516   1.313
 4003SOL    HW113906   6.293   3.421   1.305
 4003SOL    HW213907   6.299   3.550   1.225
 4004SOL     OW13908  13.940   6.945  13.978
 4004SOL    HW113909  13.866   6.994  14.015
 4004SOL    HW213910  14.000   7.012  13.945
 4005SOL     OW13911   6.286   6.584   5.027
 4005SOL    HW113912   6.369   6.539   5.013
 4005SOL    HW213913   6.273   6.636   4.948
 4006SOL     OW13914   4.705  11.402   8.879
 4006SOL    HW113915   4.627  11.451   8.850
 4006SOL    HW213916   4.740  11.364   8.799
 4007SOL     OW13917   5.976   2.110   9.815
 4007SOL    HW113918   5.933   2.115   9.901
 4007SOL    HW213919   6.043   2.043   9.825
 4008SOL     OW13920  13.450   7.326  12.477
 4008SOL    HW113921  13.385   7.270  12.518
 4008SOL    HW213922  13.526   7.321  12.535
 4009SOL     OW13923  11.054   6.200   9.569
 4009SOL    HW113924  11.005   6.118   9.579
 4009SOL    HW213925  11.146   6.173   9.573
 4010SOL     OW13926   2.690   6.683   1.963
 4010SOL    HW113927   2.639   6.606   1.938
 4010SOL    HW213928   2.626   6.741   2.005
 4011SOL     OW13929   5.380   4.368   2.104
 4011SOL    HW113930   5.442   4.298   2.083
 4011SOL    HW213931   5.384   4.376   2.200
 4012SOL     OW13932   1.499  12.181   3.666
 4012SOL    HW113933   1.489  12.088   3.686
 4012SOL    HW213934   1.594  12.194   3.664
 4013SOL     OW13935   2.291   6.626  10.003
 4013SOL    HW113936   2.294   6.532  10.021
 4013SOL    HW213937   2.265   6.633   9.911
 4014SOL     OW13938   8.319   7.708  13.523
 4014SOL    HW113939   8.224   7.711  13.509
 4014SOL    HW213940   8.330   7.676  13.613
 4015SOL     OW13941  10.189   9.367  14.385
 4015SOL    HW113942  10.205   9.452  14.425
 4015SOL    HW213943  10.220   9.377  14.295
 4016SOL     OW13944   2.792   3.461   9.250
 4016SOL    HW113945   2.784   3.450   9.155
 4016SOL    HW213946   2.863   3.525   9.261
 4017SOL     OW13947   7.743   0.066   8.675
 4017SOL    HW113948   7.708  14.848   8.652
 4017SOL    HW213949   7.667   0.116   8.706
 4018SOL     OW13950  12.427   4.568  11.228
 4018SOL    HW113951  12.396   4.576  11.137
 4018SOL    HW213952  12.347   4.563  11.280
 4019SOL     OW13953   1.483  10.753   6.600
 4019SOL    HW113954   1.568  10.747   6.557
 4019SOL    HW213955   1.430  10.806   6.540
 4020SOL     OW13956   7.211  12.981   5.582
 4020SOL    HW113957   7.185  12.895   5.550
 4020SOL    HW213958   7.297  12.968   5.620
 4021SOL     OW13959  13.530   0.742  13.436
 4021SOL    HW113960  13.598   0.734  13.369
 4021SOL    HW213961  13.456   0.693  13.401
 4022SOL     OW13962   5.773  11.273   2.303
 4022SOL    HW113963   5.689  11.255   2.345
 4022SOL    HW213964   5.759  11.353   2.253
 4023SOL     OW13965   6.801   5.338   7.679
 4023SOL    HW113966   6.863   5.303   7.615
 4023SOL    HW213967   6.856   5.390   7.739
 4024SOL     OW13968   4.302   2.437  10.698
 4024SOL    HW113969   4.207   2.447  10.710
 4024SOL    HW213970   4.312   2.411  10.607
 4025SOL     OW13971   4.018   3.188   9.751
 4025SOL    HW113972   4.069   3.132   9.693
 4025SOL    HW213973   4.069   3.268   9.759
 4026SOL     OW13974   7.402   4.279   2.729
 4026SOL    HW113975   7.368   4.204   2.776
 4026SOL    HW213976   7.340   4.349   2.747
 4027SOL     OW13977   3.941   6.419   3.200
 4027SOL    HW113978   3.846   6.410   3.201
 4027SOL    HW213979   3.974   6.329   3.203
 4028SOL     OW13980  14.712   8.449   4.260
 4028SOL    HW113981  14.665   8.416   4.183
 4028SOL    HW213982  14.678   8.397   4.332
 4029SOL     OW13983   6.174   7.959  12.836
 4029SOL    HW113984   6.144   8.035  12.786
 4029SOL    HW213985   6.125   7.964  12.918
 4030SOL     OW13986   5.814   0.999  10.942
 4030SOL    HW113987   5.879   0.949  10.991
 4030SOL    HW213988   5.793   1.074  10.998
 4031SOL     OW13989   1.257  11.174  12.637
 4031SOL    HW113990   1.164  11.197  12.636
 4031SOL    HW213991   1.296  11.234  12.701
 4032SOL     OW13992   8.063   6.378   0.979
 4032SOL    HW113993   8.071   6.466   1.015
 4032SOL    HW213994   8.098   6.321   1.047
 4033SOL     OW13995  13.514  13.962   6.575
 4033SOL    HW113996  13.557  13.885   6.613
 4033SOL    HW213997  13.563  14.037   6.610
 4034SOL     OW13998   5.403   8.729   8.719
 4034SOL    HW113999   5.367   8.709   8.805
 4034SOL    HW214000   5.352   8.675   8.658
 4035SOL     OW14001   7.198   6.072   1.655
 4035SOL    HW114002   7.170   6.158   1.624
 4035SOL    HW214003   7.192   6.077   1.750
 4036SOL     OW14004  14.482   8.297  10.517
 4036SOL    HW114005  14.576   8.310  10.531
 4036SOL    HW214006  14.448   8.280  10.605
 4037SOL     OW14007   7.912  10.807  14.613
 4037SOL    HW114008   7.956  10.783  14.695
 4037SOL    HW214009   7.866  10.888  14.633
 4038SOL     OW14010  10.678   2.517  14.173
 4038SOL    HW114011  10.705   2.609  14.168
 4038SOL    HW214012  10.611   2.516  14.242
 4039SOL     OW14013   2.292   3.566   5.101
 4039SOL    HW114014   2.267   3.547   5.010
 4039SOL    HW214015   2.208   3.568   5.148
 4040SOL     OW14016  12.608  11.267   7.686
 4040SOL    HW114017  12.552  11.340   7.661
 4040SOL    HW214018  12.602  11.206   7.613
 4041SOL     OW14019   6.528   8.497  14.825
 4041SOL    HW114020   6.526   8.591  14.846
 4041SOL    HW214021   6.606   8.465   0.001
 4042SOL     OW14022   8.889   8.524   1.522
 4042SOL    HW114023   8.910   8.566   1.439
 4042SOL    HW214024   8.960   8.462   1.537
 4043SOL     OW14025   5.065   7.876   5.033
 4043SOL    HW114026   5.048   7.969   5.016
 4043SOL    HW214027   5.131   7.851   4.968
 4044SOL     OW14028   1.673   4.989   3.064
 4044SOL    HW114029   1.637   5.065   3.109
 4044SOL    HW214030   1.759   5.018   3.033
 4045SOL     OW14031   0.202   4.330   5.221
 4045SOL    HW114032   0.109   4.308   5.230
 4045SOL    HW214033   0.214   4.343   5.127
 4046SOL     OW14034  10.828   5.876   5.906
 4046SOL    HW114035  10.764   5.808   5.885
 4046SOL    HW214036  10.791   5.956   5.868
 4047SOL     OW14037   9.899  14.521   8.998
 4047SOL    HW114038   9.865  14.516   8.909
 4047SOL    HW214039   9.931  14.610   9.007
 4048SOL     OW14040   3.490   4.866  11.250
 4048SOL    HW114041   3.576   4.831  11.225
 4048SOL    HW214042   3.486   4.852  11.344
 4049SOL     OW14043  12.677   9.957  13.980
 4049SOL    HW114044  12.765   9.941  14.015
 4049SOL    HW214045  12.640   9.870  13.964
 4050SOL     OW14046   4.285  12.951   7.182
 4050SOL    HW114047   4.308  12.937   7.273
 4050SOL    HW214048   4.324  12.877   7.135
 4051SOL     OW14049   2.181   2.227   4.583
 4051SOL    HW114050   2.174   2.316   4.615
 4051SOL    HW214051   2.178   2.236   4.487
 4052SOL     OW14052  12.385   2.370  11.862
 4052SOL    HW114053  12.427   2.300  11.813
 4052SOL    HW214054  12.457   2.421  11.899
 4053SOL     OW14055   7.711   2.479   7.727
 4053SOL    HW114056   7.717   2.505   7.636
 4053SOL    HW214057   7.690   2.559   7.774
 4054SOL     OW14058  12.999   9.596   9.557
 4054SOL    HW114059  12.945   9.552   9.491
 4054SOL    HW214060  13.034   9.524   9.610
 4055SOL     OW14061   9.979   1.466   8.042
 4055SOL    HW114062   9.982   1.370   8.042
 4055SOL    HW214063  10.041   1.492   7.973
 4056SOL     OW14064   7.792   9.670   8.356
 4056SOL    HW114065   7.876   9.648   8.395
 4056SOL    HW214066   7.782   9.608   8.284
 4057SOL     OW14067  13.100  14.170   2.983
 4057SOL    HW114068  13.145  14.122   3.052
 4057SOL    HW214069  13.101  14.111   2.908
 4058SOL     OW14070   5.404   2.173  13.830
 4058SOL    HW114071   5.394   2.256  13.785
 4058SOL    HW214072   5.324   2.125  13.811
 4059SOL     OW14073   7.262  14.152   7.366
 4059SOL    HW114074   7.354  14.127   7.356
 4059SOL    HW214075   7.223  14.080   7.416
 4060SOL     OW14076   5.478   8.742   0.481
 4060SOL    HW114077   5.520   8.669   0.437
 4060SOL    HW214078   5.437   8.703   0.558
 4061SOL     OW14079  11.334   3.833   7.168
 4061SOL    HW114080  11.426   3.814   7.148
 4061SOL    HW214081  11.309   3.900   7.105
 4062SOL     OW14082   4.427  10.487   2.644
 4062SOL    HW114083   4.385  10.449   2.722
 4062SOL    HW214084   4.512  10.443   2.639
 4063SOL     OW14085  10.896  13.040   6.209
 4063SOL    HW114086  10.988  13.048   6.235
 4063SOL    HW214087  10.852  13.109   6.258
 4064SOL     OW14088   8.942  13.599  13.380
 4064SOL    HW114089   8.890  13.520  13.366
 4064SOL    HW214090   8.909  13.636  13.462
 4065SOL     OW14091   9.048   2.765   4.756
 4065SOL    HW114092   9.055   2.676   4.722
 4065SOL    HW214093   8.954   2.782   4.759
 4066SOL     OW14094  14.549  12.985  13.450
 4066SOL    HW114095  14.564  13.077  13.430
 4066SOL    HW214096  14.616  12.963  13.515
 4067SOL     OW14097  13.688   5.879   4.289
 4067SOL    HW114098  13.768   5.854   4.336
 4067SOL    HW214099  13.720   5.927   4.213
 4068SOL     OW14100   9.135   4.659  10.819
 4068SOL    HW114101   9.156   4.752  10.825
 4068SOL    HW214102   9.215   4.614  10.846
 4069SOL     OW14103   8.977   6.776   5.882
 4069SOL    HW114104   8.936   6.763   5.797
 4069SOL    HW214105   8.911   6.821   5.935
 4070SOL     OW14106   3.603  11.764   7.112
 4070SOL    HW114107   3.633  11.854   7.129
 4070SOL    HW214108   3.551  11.772   7.031
 4071SOL     OW14109   2.210  14.321   7.319
 4071SOL    HW114110   2.268  14.396   7.308
 4071SOL    HW214111   2.265  14.246   7.296
 4072SOL     OW14112  12.259   6.964   8.632
 4072SOL    HW114113  12.309   7.019   8.692
 4072SOL    HW214114  12.179   7.014   8.616
 4073SOL     OW14115   5.940  12.929   7.361
 4073SOL    HW114116   5.918  12.954   7.451
 4073SOL    HW214117   5.864  12.879   7.330
 4074SOL     OW14118  13.810  11.467   3.517
 4074SOL    HW114119  13.762  11.501   3.593
 4074SOL    HW214120  13.752  11.485   3.442
 4075SOL     OW14121   3.518   3.820   5.971
 4075SOL    HW114122   3.468   3.770   6.035
 4075SOL    HW214123   3.599   3.771   5.960
 4076SOL     OW14124   0.300   8.909  14.261
 4076SOL    HW114125   0.339   8.898  14.174
 4076SOL    HW214126   0.219   8.858  14.257
 4077SOL     OW14127  10.433  11.800   1.637
 4077SOL    HW114128  10.408  11.743   1.710
 4077SOL    HW214129  10.404  11.887   1.663
 4078SOL     OW14130   7.674   2.067   7.184
 4078SOL    HW114131   7.619   2.127   7.133
 4078SOL    HW214132   7.760   2.109   7.184
 4079SOL     OW14133  10.832  11.906   0.243
 4079SOL    HW114134  10.808  11.853   0.319
 4079SOL    HW214135  10.756  11.900   0.185
 4080SOL     OW14136   5.280  11.554  10.552
 4080SOL    HW114137   5.363  11.522  10.587
 4080SOL    HW214138   5.224  11.564  10.630
 4081SOL     OW14139   4.993   6.755   0.623
 4081SOL    HW114140   5.019   6.689   0.687
 4081SOL    HW214141   4.919   6.801   0.663
 4082SOL     OW14142   7.185   1.377  13.154
 4082SOL    HW114143   7.245   1.446  13.125
 4082SOL    HW214144   7.108   1.387  13.099
 4083SOL     OW14145   7.225   0.460   6.644
 4083SOL    HW114146   7.204   0.372   6.610
 4083SOL    HW214147   7.194   0.458   6.734
 4084SOL     OW14148   6.308  12.110  10.362
 4084SOL    HW114149   6.295  12.047  10.432
 4084SOL    HW214150   6.364  12.177  10.400
 4085SOL     OW14151  14.501  13.692   6.906
 4085SOL    HW114152  14.459  13.778   6.909
 4085SOL    HW214153  14.545  13.684   6.991
 4086SOL     OW14154  10.286   0.919   3.631
 4086SOL    HW114155  10.344   0.847   3.657
 4086SOL    HW214156  10.286   0.978   3.706
 4087SOL     OW14157   9.923   4.665   5.397
 4087SOL    HW114158  10.010   4.660   5.436
 4087SOL    HW214159   9.913   4.757   5.371
 4088SOL     OW14160   5.741   5.704  10.554
 4088SOL    HW114161   5.740   5.798  10.535
 4088SOL    HW214162   5.802   5.667  10.490
 4089SOL     OW14163   9.419   1.970   0.666
 4089SOL    HW114164   9.390   2.047   0.618
 4089SOL    HW214165   9.441   1.906   0.598
 4090SOL     OW14166   8.452   7.048   3.650
 4090SOL    HW114167   8.421   7.133   3.681
 4090SOL    HW214168   8.540   7.064   3.618
 4091SOL     OW14169  14.650   0.817   4.457
 4091SOL    HW114170  14.670   0.845   4.546
 4091SOL    HW214171  14.606   0.733   4.467
 4092SOL     OW14172   7.169   8.076   5.758
 4092SOL    HW114173   7.237   8.106   5.819
 4092SOL    HW214174   7.177   7.981   5.758
 4093SOL     OW14175   9.540   9.470  12.213
 4093SOL    HW114176   9.513   9.395  12.265
 4093SOL    HW214177   9.459   9.500  12.171
 4094SOL     OW14178   8.124  14.321  14.176
 4094SOL    HW114179   8.105  14.415  14.176
 4094SOL    HW214180   8.091  14.291  14.261
 4095SOL     OW14181  12.117  10.553  14.482
 4095SOL    HW114182  12.180  10.615  14.519
 4095SOL    HW214183  12.068  10.604  14.418
 4096SOL     OW14184   2.201   2.825  13.463
 4096SOL    HW114185   2.292   2.799  13.475
 4096SOL    HW214186   2.184   2.811  13.369
 4097SOL     OW14187  12.099   1.116   8.295
 4097SOL    HW114188  12.193   1.119   8.310
 4097SOL    HW214189  12.078   1.200   8.254
 4098SOL     OW14190  10.334   6.522  13.888
 4098SOL    HW114191  10.242   6.499  13.875
 4098SOL    HW214192  10.346   6.524  13.983
 4099SOL     OW14193  13.593   5.747  10.325
 4099SOL    HW114194  13.511   5.755  10.276
 4099SOL    HW214195  13.579   5.798  10.405
 4100SOL     OW14196  12.288   0.996  11.882
 4100SOL    HW114197  12.371   0.948  11.884
 4100SOL    HW214198  12.307   1.076  11.833
 4101SOL     OW14199   6.401  14.845   6.231
 4101SOL    HW114200   6.307  14.860   6.241
 4101SOL    HW214201   6.439   0.065   6.228
 4102SOL     OW14202   9.541  10.702   3.497
 4102SOL    HW114203   9.617  10.736   3.544
 4102SOL    HW214204   9.489  10.779   3.476
 4103SOL     OW14205  10.459  14.736   3.249
 4103SOL    HW114206  10.495  14.687   3.324
 4103SOL    HW214207  10.476  14.828   3.272
 4104SOL     OW14208   8.564   8.185   5.237
 4104SOL    HW114209   8.563   8.152   5.147
 4104SOL    HW214210   8.519   8.269   5.233
 4105SOL     OW14211   5.861   3.888   2.414
 4105SOL    HW114212   5.891   3.829   2.482
 4105SOL    HW214213   5.810   3.833   2.355
 4106SOL     OW14214   2.523   8.647   6.809
 4106SOL    HW114215   2.527   8.652   6.714
 4106SOL    HW214216   2.454   8.583   6.827
 4107SOL     OW14217   0.636  14.646   4.731
 4107SOL    HW114218   0.594  14.612   4.652
 4107SOL    HW214219   0.564  14.661   4.792
 4108SOL     OW14220  14.324   6.275  10.121
 4108SOL    HW114221  14.269   6.202  10.093
 4108SOL    HW214222  14.402   6.233  10.156
 4109SOL     OW14223  12.399   3.656   1.578
 4109SOL    HW114224  12.427   3.604   1.654
 4109SOL    HW214225  12.319   3.613   1.547
 4110SOL     OW14226   5.216   5.523   6.254
 4110SOL    HW114227   5.309   5.528   6.276
 4110SOL    HW214228   5.209   5.443   6.201
 4111SOL     OW14229  14.482   6.094   8.234
 4111SOL    HW114230  14.437   6.048   8.305
 4111SOL    HW214231  14.573   6.065   8.240
 4112SOL     OW14232   0.056  10.125  10.863
 4112SOL    HW114233   0.075  10.044  10.911
 4112SOL    HW214234   0.088  10.109  10.774
 4113SOL     OW14235   3.208   3.424  13.963
 4113SOL    HW114236   3.155   3.399  13.888
 4113SOL    HW214237   3.283   3.470  13.924
 4114SOL     OW14238   7.062  13.272   7.445
 4114SOL    HW114239   6.985  13.287   7.390
 4114SOL    HW214240   7.066  13.177   7.455
 4115SOL     OW14241   8.002  12.664   8.584
 4115SOL    HW114242   8.049  12.747   8.582
 4115SOL    HW214243   8.068  12.598   8.563
 4116SOL     OW14244   3.395   9.696   0.745
 4116SOL    HW114245   3.436   9.782   0.751
 4116SOL    HW214246   3.325   9.707   0.681
 4117SOL     OW14247   1.456   1.076   1.080
 4117SOL    HW114248   1.550   1.069   1.062
 4117SOL    HW214249   1.417   1.004   1.031
 4118SOL     OW14250   8.855   9.962   0.015
 4118SOL    HW114251   8.910   9.965   0.093
 4118SOL    HW214252   8.805   9.881   0.024
 4119SOL     OW14253   5.634   6.360  13.894
 4119SOL    HW114254   5.676   6.274  13.898
 4119SOL    HW214255   5.653   6.392  13.806
 4120SOL     OW14256  12.533  12.528  12.379
 4120SOL    HW114257  12.568  12.459  12.435
 4120SOL    HW214258  12.610  12.575  12.348
 4121SOL     OW14259   5.995   6.761   1.945
 4121SOL    HW114260   5.909   6.733   1.975
 4121SOL    HW214261   5.993   6.856   1.949
 4122SOL     OW14262   0.248   6.628  12.487
 4122SOL    HW114263   0.299   6.687  12.541
 4122SOL    HW214264   0.313   6.573  12.443
 4123SOL     OW14265   8.873  11.271  10.383
 4123SOL    HW114266   8.895  11.341  10.445
 4123SOL    HW214267   8.778  11.271  10.379
 4124SOL     OW14268  14.666  12.345   4.679
 4124SOL    HW114269  14.704  12.281   4.739
 4124SOL    HW214270  14.637  12.294   4.604
 4125SOL     OW14271   0.949   4.771   1.835
 4125SOL    HW114272   0.920   4.812   1.754
 4125SOL    HW214273   1.026   4.719   1.810
 4126SOL     OW14274  14.484   9.555  12.762
 4126SOL    HW114275  14.561   9.500  12.748
 4126SOL    HW214276  14.494   9.627  12.699
 4127SOL     OW14277   4.585  10.092  14.421
 4127SOL    HW114278   4.580  10.002  14.388
 4127SOL    HW214279   4.504  10.103  14.471
 4128SOL     OW14280  12.723   7.021   2.513
 4128SOL    HW114281  12.782   6.955   2.477
 4128SOL    HW214282  12.777   7.073   2.573
 4129SOL     OW14283  12.062  13.753  12.903
 4129SOL    HW114284  11.986  13.782  12.952
 4129SOL    HW214285  12.117  13.831  12.896
 4130SOL     OW14286  12.652   4.107   3.052
 4130SOL    HW114287  12.593   4.142   3.119
 4130SOL    HW214288  12.595   4.067   2.988
 4131SOL     OW14289   9.820  13.755   8.489
 4131SOL    HW114290   9.851  13.666   8.477
 4131SOL    HW214291   9.736  13.757   8.442
 4132SOL     OW14292   4.400  13.810   1.801
 4132SOL    HW114293   4.398  13.851   1.887
 4132SOL    HW214294   4.460  13.865   1.750
 4133SOL     OW14295   2.185   1.153  12.733
 4133SOL    HW114296   2.260   1.211  12.749
 4133SOL    HW214297   2.133   1.200  12.667
 4134SOL     OW14298   4.594   8.876   6.659
 4134SOL    HW114299   4.669   8.924   6.623
 4134SOL    HW214300   4.587   8.907   6.750
 4135SOL     OW14301   5.241   3.631  13.332
 4135SOL    HW114302   5.297   3.563  13.369
 4135SOL    HW214303   5.219   3.598  13.245
 4136SOL     OW14304   1.459   4.699  10.705
 4136SOL    HW114305   1.467   4.719  10.799
 4136SOL    HW214306   1.392   4.631  10.701
 4137SOL     OW14307   5.120  10.353   4.848
 4137SOL    HW114308   5.137  10.276   4.903
 4137SOL    HW214309   5.026  10.351   4.834
 4138SOL     OW14310  13.102   9.054   2.011
 4138SOL    HW114311  13.056   9.091   1.935
 4138SOL    HW214312  13.035   9.002   2.056
 4139SOL     OW14313   0.894  11.246   2.747
 4139SOL    HW114314   0.865  11.317   2.804
 4139SOL    HW214315   0.931  11.290   2.671
 4140SOL     OW14316   3.896   9.669   1.347
 4140SOL    HW114317   3.891   9.631   1.435
 4140SOL    HW214318   3.900   9.764   1.362
 4141SOL     OW14319   0.741   5.925   4.951
 4141SOL    HW114320   0.733   6.015   4.981
 4141SOL    HW214321   0.809   5.927   4.884
 4142SOL     OW14322  14.810   2.758  10.271
 4142SOL    HW114323  14.757   2.712  10.336
 4142SOL    HW214324  14.817   2.848  10.304
 4143SOL     OW14325   6.039  10.273   6.146
 4143SOL    HW114326   5.996  10.190   6.167
 4143SOL    HW214327   6.117  10.247   6.097
 4144SOL     OW14328   2.362  14.033   1.772
 4144SOL    HW114329   2.311  14.024   1.692
 4144SOL    HW214330   2.453  14.038   1.742
 4145SOL     OW14331  10.492  11.108  13.862
 4145SOL    HW114332  10.580  11.084  13.832
 4145SOL    HW214333  10.447  11.025  13.875
 4146SOL     OW14334  10.990  12.868   4.748
 4146SOL    HW114335  11.027  12.956   4.736
 4146SOL    HW214336  10.951  12.870   4.836
 4147SOL     OW14337   1.822   8.742  13.781
 4147SOL    HW114338   1.768   8.822  13.776
 4147SOL    HW214339   1.870   8.740  13.699
 4148SOL     OW14340   1.778   2.675   6.660
 4148SOL    HW114341   1.804   2.583   6.663
 4148SOL    HW214342   1.818   2.708   6.579
 4149SOL     OW14343   4.391   1.578   8.795
 4149SOL    HW114344   4.444   1.508   8.834
 4149SOL    HW214345   4.383   1.644   8.864
 4150SOL     OW14346  13.309   3.541  10.220
 4150SOL    HW114347  13.388   3.490  10.239
 4150SOL    HW214348  13.324   3.625  10.263
 4151SOL     OW14349  12.838   5.659   7.568
 4151SOL    HW114350  12.834   5.754   7.556
 4151SOL    HW214351  12.914   5.645   7.624
 4152SOL     OW14352   8.569   1.076   0.861
 4152SOL    HW114353   8.633   1.075   0.790
 4152SOL    HW214354   8.606   1.020   0.929
 4153SOL     OW14355  11.164  14.023  12.030
 4153SOL    HW114356  11.163  13.928  12.023
 4153SOL    HW214357  11.117  14.042  12.112
 4154SOL     OW14358   4.336  11.027  14.821
 4154SOL    HW114359   4.428  11.049  14.832
 4154SOL    HW214360   4.315  11.056  14.732
 4155SOL     OW14361   3.416   6.643  11.533
 4155SOL    HW114362   3.446   6.595  11.456
 4155SOL    HW214363   3.377   6.576  11.589
 4156SOL     OW14364  11.670   1.971  14.777
 4156SOL    HW114365  11.631   1.906  14.837
 4156SOL    HW214366  11.595   2.018  14.741
 4157SOL     OW14367   0.158   0.590   3.147
 4157SOL    HW114368   0.066   0.589   3.120
 4157SOL    HW214369   0.156   0.565   3.239
 4158SOL     OW14370  10.893  13.902  12.477
 4158SOL    HW114371  10.918  13.967  12.543
 4158SOL    HW214372  10.972  13.891  12.424
 4159SOL     OW14373   8.937   3.887  12.062
 4159SOL    HW114374   9.031   3.868  12.062
 4159SOL    HW214375   8.897   3.811  12.021
 4160SOL     OW14376  11.623  11.260  13.073
 4160SOL    HW114377  11.533  11.292  13.073
 4160SOL    HW214378  11.622  11.186  13.012
 4161SOL     OW14379  14.707  10.658   4.709
 4161SOL    HW114380  14.781  10.708   4.675
 4161SOL    HW214381  14.699  10.584   4.650
 4162SOL     OW14382   0.992  14.723   9.249
 4162SOL    HW114383   1.062  14.767   9.201
 4162SOL    HW214384   0.911  14.761   9.214
 4163SOL     OW14385  10.083   0.293   0.682
 4163SOL    HW114386  10.052   0.204   0.697
 4163SOL    HW214387  10.052   0.315   0.594
 4164SOL     OW14388  13.777   5.336  14.175
 4164SOL    HW114389  13.851   5.388  14.144
 4164SOL    HW214390  13.807   5.299  14.259
 4165SOL     OW14391  13.721   4.974   9.849
 4165SOL    HW114392  13.780   5.045   9.874
 4165SOL    HW214393  13.728   4.911   9.921
 4166SOL     OW14394   5.241   1.661   5.422
 4166SOL    HW114395   5.301   1.714   5.371
 4166SOL    HW214396   5.247   1.695   5.511
 4167SOL     OW14397   0.670  14.529  12.950
 4167SOL    HW114398   0.706  14.464  13.011
 4167SOL    HW214399   0.601  14.482  12.903
 4168SOL     OW14400   0.487   1.778   0.700
 4168SOL    HW114401   0.436   1.723   0.760
 4168SOL    HW214402   0.442   1.862   0.700
 4169SOL     OW14403   8.833   4.842   9.956
 4169SOL    HW114404   8.744   4.819   9.929
 4169SOL    HW214405   8.851   4.785  10.030
 4170SOL     OW14406  11.826   3.009   2.759
 4170SOL    HW114407  11.885   3.075   2.724
 4170SOL    HW214408  11.743   3.055   2.771
 4171SOL     OW14409   0.709   2.367   9.072
 4171SOL    HW114410   0.714   2.458   9.042
 4171SOL    HW214411   0.629   2.364   9.125
 4172SOL     OW14412  13.032   6.801   4.676
 4172SOL    HW114413  13.026   6.844   4.590
 4172SOL    HW214414  12.942   6.790   4.704
 4173SOL     OW14415   4.572   5.663  13.731
 4173SOL    HW114416   4.570   5.626  13.642
 4173SOL    HW214417   4.480   5.667  13.757
 4174SOL     OW14418   7.609   2.063  13.168
 4174SOL    HW114419   7.590   2.098  13.081
 4174SOL    HW214420   7.596   2.138  13.227
 4175SOL     OW14421   5.109  10.756   4.230
 4175SOL    HW114422   5.071  10.670   4.245
 4175SOL    HW214423   5.038  10.807   4.192
 4176SOL     OW14424   9.583   8.411   9.884
 4176SOL    HW114425   9.492   8.392   9.909
 4176SOL    HW214426   9.597   8.502   9.911
 4177SOL     OW14427  11.830   9.967   9.073
 4177SOL    HW114428  11.838  10.014   9.157
 4177SOL    HW214429  11.779  10.026   9.018
 4178SOL     OW14430   6.409   6.239  11.111
 4178SOL    HW114431   6.398   6.331  11.088
 4178SOL    HW214432   6.344   6.193  11.058
 4179SOL     OW14433   2.742  10.866  11.563
 4179SOL    HW114434   2.820  10.888  11.613
 4179SOL    HW214435   2.679  10.834  11.627
 4180SOL     OW14436  11.100   0.996  10.153
 4180SOL    HW114437  11.154   0.983  10.075
 4180SOL    HW214438  11.092   0.909  10.192
 4181SOL     OW14439   8.424   5.653  10.571
 4181SOL    HW114440   8.463   5.582  10.622
 4181SOL    HW214441   8.369   5.608  10.507
 4182SOL     OW14442   5.760   5.458   7.353
 4182SOL    HW114443   5.679   5.483   7.397
 4182SOL    HW214444   5.797   5.541   7.323
 4183SOL     OW14445   7.545   6.644   2.515
 4183SOL    HW114446   7.616   6.610   2.571
 4183SOL    HW214447   7.576   6.628   2.426
 4184SOL     OW14448  13.186  12.844   3.127
 4184SOL    HW114449  13.134  12.779   3.081
 4184SOL    HW214450  13.171  12.925   3.079
 4185SOL     OW14451   8.998   4.105  12.879
 4185SOL    HW114452   9.026   4.112  12.788
 4185SOL    HW214453   8.992   4.011  12.896
 4186SOL     OW14454   8.543   1.731  12.653
 4186SOL    HW114455   8.510   1.813  12.617
 4186SOL    HW214456   8.593   1.692  12.582
 4187SOL     OW14457   5.215  12.298   7.390
 4187SOL    HW114458   5.237  12.383   7.428
 4187SOL    HW214459   5.213  12.238   7.464
 4188SOL     OW14460   3.591   3.628   7.049
 4188SOL    HW114461   3.673   3.676   7.063
 4188SOL    HW214462   3.617   3.549   7.003
 4189SOL     OW14463  11.847   7.930   0.060
 4189SOL    HW114464  11.936   7.963   0.057
 4189SOL    HW214465  11.825   7.929   0.153
 4190SOL     OW14466   7.842   8.477  12.151
 4190SOL    HW114467   7.757   8.438  12.170
 4190SOL    HW214468   7.887   8.479  12.235
 4191SOL     OW14469  10.836  14.549  11.464
 4191SOL    HW114470  10.906  14.599  11.506
 4191SOL    HW214471  10.757  14.601  11.479
 4192SOL     OW14472   7.106  13.738  14.866
 4192SOL    HW114473   7.180  13.748  14.806
 4192SOL    HW214474   7.144  13.750   0.085
 4193SOL     OW14475   6.838   8.976   4.065
 4193SOL    HW114476   6.847   8.964   4.160
 4193SOL    HW214477   6.757   9.024   4.054
 4194SOL     OW14478   3.688   4.958   0.773
 4194SOL    HW114479   3.612   4.934   0.720
 4194SOL    HW214480   3.699   4.885   0.834
 4195SOL     OW14481  14.020  11.162   6.925
 4195SOL    HW114482  14.057  11.176   7.012
 4195SOL    HW214483  13.992  11.070   6.926
 4196SOL     OW14484   7.599  14.686   7.586
 4196SOL    HW114485   7.546  14.758   7.622
 4196SOL    HW214486   7.667  14.730   7.535
 4197SOL     OW14487   1.691  14.660  14.083
 4197SOL    HW114488   1.613  14.688  14.131
 4197SOL    HW214489   1.660  14.642  13.995
 4198SOL     OW14490   6.982  13.308  14.015
 4198SOL    HW114491   6.969  13.391  13.969
 4198SOL    HW214492   6.964  13.328  14.107
 4199SOL     OW14493   3.658   0.964   2.469
 4199SOL    HW114494   3.703   1.014   2.537
 4199SOL    HW214495   3.648   1.026   2.396
 4200SOL     OW14496  10.091   6.882   6.776
 4200SOL    HW114497  10.087   6.802   6.724
 4200SOL    HW214498  10.151   6.939   6.729
 4201SOL     OW14499   1.106  10.580   3.690
 4201SOL    HW114500   1.198  10.552   3.696
 4201SOL    HW214501   1.072  10.570   3.778
 4202SOL     OW14502   6.080  11.955   3.593
 4202SOL    HW114503   6.061  11.882   3.535
 4202SOL    HW214504   6.059  11.923   3.680
 4203SOL     OW14505  14.419  10.578  14.230
 4203SOL    HW114506  14.467  10.561  14.312
 4203SOL    HW214507  14.372  10.660  14.247
 4204SOL     OW14508  13.784   5.908  12.061
 4204SOL    HW114509  13.700   5.901  12.107
 4204SOL    HW214510  13.809   6.000  12.073
 4205SOL     OW14511  14.429  12.366   8.222
 4205SOL    HW114512  14.480  12.437   8.262
 4205SOL    HW214513  14.495  12.311   8.180
 4206SOL     OW14514  12.718   4.024   6.242
 4206SOL    HW114515  12.721   4.039   6.336
 4206SOL    HW214516  12.639   3.972   6.228
 4207SOL     OW14517   2.957   8.467   8.120
 4207SOL    HW114518   2.994   8.555   8.127
 4207SOL    HW214519   2.900   8.471   8.043
 4208SOL     OW14520   7.102  12.638  13.986
 4208SOL    HW114521   7.054  12.598  13.914
 4208SOL    HW214522   7.168  12.692  13.943
 4209SOL     OW14523   1.478   2.888   4.347
 4209SOL    HW114524   1.457   2.939   4.269
 4209SOL    HW214525   1.562   2.846   4.326
 4210SOL     OW14526   4.547   4.822   5.211
 4210SOL    HW114527   4.473   4.804   5.270
 4210SOL    HW214528   4.621   4.775   5.250
 4211SOL     OW14529   9.147   8.871   4.556
 4211SOL    HW114530   9.213   8.869   4.625
 4211SOL    HW214531   9.097   8.951   4.573
 4212SOL     OW14532  11.830   1.706   0.323
 4212SOL    HW114533  11.864   1.778   0.271
 4212SOL    HW214534  11.870   1.628   0.284
 4213SOL     OW14535  13.720  10.441  13.699
 4213SOL    HW114536  13.626  10.431  13.680
 4213SOL    HW214537  13.745  10.359  13.741
 4214SOL     OW14538  13.513   2.154  11.693
 4214SOL    HW114539  13.505   2.062  11.670
 4214SOL    HW214540  13.524   2.199  11.609
 4215SOL     OW14541   7.188   2.991   2.142
 4215SOL    HW114542   7.224   2.903   2.151
 4215SOL    HW214543   7.199   3.030   2.229
 4216SOL     OW14544   6.349   0.263  11.057
 4216SOL    HW114545   6.371   0.313  10.979
 4216SOL    HW214546   6.375   0.173  11.037
 4217SOL     OW14547   2.544  13.164  12.722
 4217SOL    HW114548   2.621  13.174  12.667
 4217SOL    HW214549   2.522  13.254  12.748
 4218SOL     OW14550  11.097   4.122  14.412
 4218SOL    HW114551  11.072   4.137  14.503
 4218SOL    HW214552  11.035   4.057  14.381
 4219SOL     OW14553   2.969   3.761  12.027
 4219SOL    HW114554   2.876   3.750  12.007
 4219SOL    HW214555   3.012   3.687  11.984
 4220SOL     OW14556  13.408   9.107   6.549
 4220SOL    HW114557  13.427   9.139   6.637
 4220SOL    HW214558  13.353   9.174   6.510
 4221SOL     OW14559  14.722   4.663   6.608
 4221SOL    HW114560  14.789   4.601   6.638
 4221SOL    HW214561  14.770   4.724   6.552
 4222SOL     OW14562  12.697   8.193   1.253
 4222SOL    HW114563  12.665   8.232   1.334
 4222SOL    HW214564  12.759   8.258   1.218
 4223SOL     OW14565   1.665   1.090   2.048
 4223SOL    HW114566   1.613   1.049   1.979
 4223SOL    HW214567   1.727   1.147   2.000
 4224SOL     OW14568   8.040   6.397  13.218
 4224SOL    HW114569   7.948   6.380  13.238
 4224SOL    HW214570   8.077   6.311  13.198
 4225SOL     OW14571  11.191  14.377  11.116
 4225SOL    HW114572  11.155  14.461  11.090
 4225SOL    HW214573  11.285  14.393  11.128
 4226SOL     OW14574   2.265   8.298   8.049
 4226SOL    HW114575   2.206   8.232   8.086
 4226SOL    HW214576   2.327   8.247   7.997
 4227SOL     OW14577   5.022  10.669   0.083
 4227SOL    HW114578   4.957  10.672   0.153
 4227SOL    HW214579   5.068  10.586   0.096
 4228SOL     OW14580   1.567  13.481   7.188
 4228SOL    HW114581   1.502  13.413   7.170
 4228SOL    HW214582   1.604  13.457   7.273
 4229SOL     OW14583   8.106   5.784  10.857
 4229SOL    HW114584   8.091   5.858  10.797
 4229SOL    HW214585   8.147   5.824  10.934
 4230SOL     OW14586   9.436  11.807   6.199
 4230SOL    HW114587   9.413  11.794   6.106
 4230SOL    HW214588   9.531  11.815   6.199
 4231SOL     OW14589   1.859   2.059   6.967
 4231SOL    HW114590   1.877   2.064   7.061
 4231SOL    HW214591   1.843   2.149   6.940
 4232SOL     OW14592   4.966  10.916   4.499
 4232SOL    HW114593   4.895  10.948   4.443
 4232SOL    HW214594   5.030  10.878   4.438
 4233SOL     OW14595  12.194  13.274   1.044
 4233SOL    HW114596  12.213  13.305   0.955
 4233SOL    HW214597  12.174  13.181   1.033
 4234SOL     OW14598   8.575   3.323  12.942
 4234SOL    HW114599   8.586   3.371  12.861
 4234SOL    HW214600   8.656   3.338  12.991
 4235SOL     OW14601  14.682   5.811   2.980
 4235SOL    HW114602  14.705   5.721   2.956
 4235SOL    HW214603  14.614   5.836   2.918
 4236SOL     OW14604   1.618   9.775   7.055
 4236SOL    HW114605   1.664   9.792   6.973
 4236SOL    HW214606   1.541   9.831   7.052
 4237SOL     OW14607   6.256   8.549  13.892
 4237SOL    HW114608   6.263   8.562  13.987
 4237SOL    HW214609   6.229   8.634  13.858
 4238SOL     OW14610   4.084  13.424   5.328
 4238SOL    HW114611   3.990  13.408   5.323
 4238SOL    HW214612   4.098  13.458   5.416
 4239SOL     OW14613   9.536   1.497   9.189
 4239SOL    HW114614   9.453   1.537   9.213
 4239SOL    HW214615   9.531   1.408   9.224
 4240SOL     OW14616  14.597   6.056   5.714
 4240SOL    HW114617  14.551   6.137   5.735
 4240SOL    HW214618  14.555   6.025   5.634
 4241SOL     OW14619  10.584   0.693   7.716
 4241SOL    HW114620  10.572   0.608   7.758
 4241SOL    HW214621  10.546   0.756   7.779
 4242SOL     OW14622  10.994   4.332  12.950
 4242SOL    HW114623  11.076   4.290  12.977
 4242SOL    HW214624  10.927   4.267  12.972
 4243SOL     OW14625   7.399  11.305  12.037
 4243SOL    HW114626   7.493  11.289  12.047
 4243SOL    HW214627   7.389  11.398  12.058
 4244SOL     OW14628   9.164  12.715   0.571
 4244SOL    HW114629   9.152  12.742   0.480
 4244SOL    HW214630   9.114  12.634   0.579
 4245SOL     OW14631  12.778  12.047   7.249
 4245SOL    HW114632  12.698  11.999   7.228
 4245SOL    HW214633  12.749  12.125   7.296
 4246SOL     OW14634   6.101   4.580   2.510
 4246SOL    HW114635   6.110   4.559   2.417
 4246SOL    HW214636   6.019   4.628   2.516
 4247SOL     OW14637   6.946   0.030  14.507
 4247SOL    HW114638   6.910  14.820  14.465
 4247SOL    HW214639   6.992  14.865  14.584
 4248SOL     OW14640   4.087  14.590   0.471
 4248SOL    HW114641   4.129  14.675   0.485
 4248SOL    HW214642   4.085  14.549   0.557
 4249SOL     OW14643  12.854   2.794  12.410
 4249SOL    HW114644  12.882   2.859  12.345
 4249SOL    HW214645  12.811   2.845  12.478
 4250SOL     OW14646   3.324  11.482  12.788
 4250SOL    HW114647   3.308  11.429  12.866
 4250SOL    HW214648   3.404  11.531  12.809
 4251SOL     OW14649  11.830   5.929   1.166
 4251SOL    HW114650  11.789   5.983   1.098
 4251SOL    HW214651  11.912   5.900   1.126
 4252SOL     OW14652  12.912   3.982   3.146
 4252SOL    HW114653  12.828   4.024   3.127
 4252SOL    HW214654  12.943   3.952   3.060
 4253SOL     OW14655   2.680   4.417  12.105
 4253SOL    HW114656   2.748   4.457  12.159
 4253SOL    HW214657   2.612   4.484  12.097
 4254SOL     OW14658   1.537  10.318  13.844
 4254SOL    HW114659   1.560  10.397  13.893
 4254SOL    HW214660   1.449  10.335  13.812
 4255SOL     OW14661  10.098   0.546   1.194
 4255SOL    HW114662  10.176   0.494   1.174
 4255SOL    HW214663  10.096   0.614   1.127
 4256SOL     OW14664   4.742   6.283  11.317
 4256SOL    HW114665   4.783   6.198  11.303
 4256SOL    HW214666   4.651   6.263  11.335
 4257SOL     OW14667   7.381   2.670  10.153
 4257SOL    HW114668   7.291   2.701  10.165
 4257SOL    HW214669   7.403   2.695  10.063
 4258SOL     OW14670  13.160   5.893   4.413
 4258SOL    HW114671  13.214   5.832   4.464
 4258SOL    HW214672  13.210   5.974   4.410
 4259SOL     OW14673   7.451   0.989   6.671
 4259SOL    HW114674   7.488   0.940   6.598
 4259SOL    HW214675   7.420   0.922   6.732
 4260SOL     OW14676  12.296   2.110   7.070
 4260SOL    HW114677  12.354   2.071   7.135
 4260SOL    HW214678  12.239   2.039   7.042
 4261SOL     OW14679   1.019   6.357   1.494
 4261SOL    HW114680   1.032   6.271   1.454
 4261SOL    HW214681   0.991   6.339   1.583
 4262SOL     OW14682  12.534  10.801  13.946
 4262SOL    HW114683  12.443  10.831  13.951
 4262SOL    HW214684  12.561  10.822  13.857
 4263SOL     OW14685   8.695  14.110   5.374
 4263SOL    HW114686   8.747  14.164   5.314
 4263SOL    HW214687   8.712  14.146   5.460
 4264SOL     OW14688  13.509   4.160  12.410
 4264SOL    HW114689  13.590   4.193  12.450
 4264SOL    HW214690  13.461   4.239  12.384
 4265SOL     OW14691   0.473   2.579   1.761
 4265SOL    HW114692   0.523   2.651   1.799
 4265SOL    HW214693   0.401   2.623   1.714
 4266SOL     OW14694   1.051   0.000   6.734
 4266SOL    HW114695   1.043   0.047   6.651
 4266SOL    HW214696   1.142   0.015   6.761
 4267SOL     OW14697  14.106   3.064   8.362
 4267SOL    HW114698  14.168   2.998   8.394
 4267SOL    HW214699  14.081   3.112   8.441
 4268SOL     OW14700   9.296   1.127  11.884
 4268SOL    HW114701   9.325   1.146  11.794
 4268SOL    HW214702   9.339   1.044  11.905
 4269SOL     OW14703   7.969  12.537   2.630
 4269SOL    HW114704   7.972  12.500   2.542
 4269SOL    HW214705   8.061  12.538   2.659
 4270SOL     OW14706   3.010   9.295   0.527
 4270SOL    HW114707   2.952   9.301   0.451
 4270SOL    HW214708   3.044   9.205   0.524
 4271SOL     OW14709  10.034  12.221   2.074
 4271SOL    HW114710  10.081  12.223   1.991
 4271SOL    HW214711  10.013  12.312   2.092
 4272SOL     OW14712   4.584  10.542   0.348
 4272SOL    HW114713   4.547  10.547   0.260
 4272SOL    HW214714   4.612  10.632   0.367
 4273SOL     OW14715  10.345  14.215   5.816
 4273SOL    HW114716  10.427  14.165   5.812
 4273SOL    HW214717  10.314  14.205   5.906
 4274SOL     OW14718   2.210   9.343   4.613
 4274SOL    HW114719   2.194   9.437   4.616
 4274SOL    HW214720   2.274   9.328   4.683
 4275SOL     OW14721   1.334  11.343   7.845
 4275SOL    HW114722   1.255  11.397   7.848
 4275SOL    HW214723   1.311  11.271   7.787
 4276SOL     OW14724   7.271  10.611   3.558
 4276SOL    HW114725   7.196  10.557   3.534
 4276SOL    HW214726   7.241  10.701   3.545
 4277SOL     OW14727   3.071  10.423   1.877
 4277SOL    HW114728   3.146  10.424   1.937
 4277SOL    HW214729   3.054  10.516   1.860
 4278SOL     OW14730  13.595   5.571   8.912
 4278SOL    HW114731  13.644   5.652   8.900
 4278SOL    HW214732  13.562   5.550   8.824
 4279SOL     OW14733   6.758   2.836   8.601
 4279SOL    HW114734   6.781   2.800   8.516
 4279SOL    HW214735   6.669   2.870   8.590
 4280SOL     OW14736   4.995   3.134   4.986
 4280SOL    HW114737   4.968   3.225   4.996
 4280SOL    HW214738   4.949   3.104   4.908
 4281SOL     OW14739  14.239  14.327   4.064
 4281SOL    HW114740  14.248  14.422   4.071
 4281SOL    HW214741  14.150  14.309   4.095
 4282SOL     OW14742  10.477  11.297   7.934
 4282SOL    HW114743  10.462  11.302   8.029
 4282SOL    HW214744  10.564  11.260   7.926
 4283SOL     OW14745  13.296   3.991   5.497
 4283SOL    HW114746  13.351   3.982   5.575
 4283SOL    HW214747  13.288   3.902   5.464
 4284SOL     OW14748  14.332  11.137   3.211
 4284SOL    HW114749  14.347  11.048   3.244
 4284SOL    HW214750  14.320  11.126   3.117
 4285SOL     OW14751  14.781  13.030   7.580
 4285SOL    HW114752  14.821  13.111   7.614
 4285SOL    HW214753  14.739  13.056   7.499
 4286SOL     OW14754  13.495  12.945  10.287
 4286SOL    HW114755  13.589  12.929  10.274
 4286SOL    HW214756  13.488  13.041  10.290
 4287SOL     OW14757   7.520  12.043  13.004
 4287SOL    HW114758   7.561  12.086  13.079
 4287SOL    HW214759   7.518  11.950  13.027
 4288SOL     OW14760   8.946   3.915   2.117
 4288SOL    HW114761   8.965   3.981   2.183
 4288SOL    HW214762   8.851   3.904   2.120
 4289SOL     OW14763   5.618  13.598   0.026
 4289SOL    HW114764   5.582  13.523   0.073
 4289SOL    HW214765   5.705  13.569  14.867
 4290SOL     OW14766   0.094   8.275  14.840
 4290SOL    HW114767   0.065   8.199  14.790
 4290SOL    HW214768   0.176   8.247   0.013
 4291SOL     OW14769   8.270   8.444   9.400
 4291SOL    HW114770   8.256   8.357   9.361
 4291SOL    HW214771   8.338   8.483   9.345
 4292SOL     OW14772   0.108   6.482  11.645
 4292SOL    HW114773   0.117   6.555  11.584
 4292SOL    HW214774   0.094   6.405  11.589
 4293SOL     OW14775   3.155  13.823   8.252
 4293SOL    HW114776   3.071  13.868   8.251
 4293SOL    HW214777   3.134  13.732   8.275
 4294SOL     OW14778   4.164   7.113   2.168
 4294SOL    HW114779   4.121   7.038   2.208
 4294SOL    HW214780   4.193   7.166   2.243
 4295SOL     OW14781   1.839   1.994  10.226
 4295SOL    HW114782   1.902   2.000  10.155
 4295SOL    HW214783   1.781   2.070  10.213
 4296SOL     OW14784   5.216   2.718  12.678
 4296SOL    HW114785   5.212   2.793  12.737
 4296SOL    HW214786   5.128   2.711  12.642
 4297SOL     OW14787   2.219  10.496   3.808
 4297SOL    HW114788   2.158  10.508   3.881
 4297SOL    HW214789   2.302  10.534   3.840
 4298SOL     OW14790   1.750   5.827   1.136
 4298SOL    HW114791   1.663   5.862   1.120
 4298SOL    HW214792   1.799   5.847   1.057
 4299SOL     OW14793   7.318   7.649  14.122
 4299SOL    HW114794   7.271   7.732  14.118
 4299SOL    HW214795   7.374   7.650  14.044
 4300SOL     OW14796  12.864  11.895   3.443
 4300SOL    HW114797  12.902  11.899   3.356
 4300SOL    HW214798  12.809  11.973   3.449
 4301SOL     OW14799   0.911  13.088  14.669
 4301SOL    HW114800   0.853  13.024  14.711
 4301SOL    HW214801   1.000  13.058  14.692
 4302SOL     OW14802  11.569  11.017   7.600
 4302SOL    HW114803  11.646  11.057   7.560
 4302SOL    HW214804  11.501  11.083   7.591
 4303SOL     OW14805  14.069   7.153   3.749
 4303SOL    HW114806  14.046   7.061   3.734
 4303SOL    HW214807  14.082   7.189   3.661
 4304SOL     OW14808   6.982  11.153   6.262
 4304SOL    HW114809   6.917  11.224   6.265
 4304SOL    HW214810   6.933  11.077   6.230
 4305SOL     OW14811   2.956  10.392   2.300
 4305SOL    HW114812   3.032  10.410   2.245
 4305SOL    HW214813   2.992  10.375   2.387
 4306SOL     OW14814  11.054   8.387   4.755
 4306SOL    HW114815  11.061   8.303   4.799
 4306SOL    HW214816  11.140   8.402   4.717
 4307SOL     OW14817   5.060   8.233   2.654
 4307SOL    HW114818   5.142   8.188   2.675
 4307SOL    HW214819   5.008   8.169   2.605
 4308SOL     OW14820   0.492   5.209  13.266
 4308SOL    HW114821   0.541   5.230  13.345
 4308SOL    HW214822   0.558   5.198  13.198
 4309SOL     OW14823   5.795   0.270   4.983
 4309SOL    HW114824   5.762   0.271   5.073
 4309SOL    HW214825   5.847   0.190   4.977
 4310SOL     OW14826   2.963   2.344  10.747
 4310SOL    HW114827   3.038   2.297  10.712
 4310SOL    HW214828   2.975   2.434  10.717
 4311SOL     OW14829   1.451   8.312   1.677
 4311SOL    HW114830   1.456   8.220   1.652
 4311SOL    HW214831   1.536   8.332   1.715
 4312SOL     OW14832   9.639   7.344  10.253
 4312SOL    HW114833   9.687   7.263  10.239
 4312SOL    HW214834   9.551   7.326  10.221
 4313SOL     OW14835  13.719   2.428   9.124
 4313SOL    HW114836  13.722   2.445   9.218
 4313SOL    HW214837  13.742   2.511   9.083
 4314SOL     OW14838  12.954   5.679  13.720
 4314SOL    HW114839  12.937   5.624  13.644
 4314SOL    HW214840  12.974   5.765  13.684
 4315SOL     OW14841   9.579   7.479   3.140
 4315SOL    HW114842   9.642   7.499   3.209
 4315SOL    HW214843   9.615   7.519   3.061
 4316SOL     OW14844   5.117   8.031  11.836
 4316SOL    HW114845   5.116   8.068  11.924
 4316SOL    HW214846   5.205   8.049  11.803
 4317SOL     OW14847   2.288   8.244   4.577
 4317SOL    HW114848   2.271   8.164   4.627
 4317SOL    HW214849   2.342   8.215   4.504
 4318SOL     OW14850   4.611   7.507   0.566
 4318SOL    HW114851   4.665   7.428   0.565
 4318SOL    HW214852   4.599   7.530   0.474
 4319SOL     OW14853  13.261  14.753   6.323
 4319SOL    HW114854  13.178  14.787   6.358
 4319SOL    HW214855  13.311  14.831   6.299
 4320SOL     OW14856   9.909   0.534   9.496
 4320SOL    HW114857   9.830   0.480   9.493
 4320SOL    HW214858   9.938   0.528   9.587
 4321SOL     OW14859   6.108   6.774   2.872
 4321SOL    HW114860   6.101   6.748   2.964
 4321SOL    HW214861   6.190   6.824   2.867
 4322SOL     OW14862  12.792  11.944   6.404
 4322SOL    HW114863  12.855  11.905   6.464
 4322SOL    HW214864  12.831  11.934   6.317
 4323SOL     OW14865   5.188   1.779   6.120
 4323SOL    HW114866   5.166   1.772   6.212
 4323SOL    HW214867   5.253   1.709   6.105
 4324SOL     OW14868   4.125  13.431   2.465
 4324SOL    HW114869   4.177  13.512   2.470
 4324SOL    HW214870   4.086  13.422   2.552
 4325SOL     OW14871   8.695   6.255   9.298
 4325SOL    HW114872   8.657   6.194   9.361
 4325SOL    HW214873   8.635   6.329   9.298
 4326SOL     OW14874   9.668   3.070   3.664
 4326SOL    HW114875   9.599   3.111   3.716
 4326SOL    HW214876   9.716   3.144   3.627
 4327SOL     OW14877  14.868   3.327  13.347
 4327SOL    HW114878  14.853   3.240  13.384
 4327SOL    HW214879   0.064   3.367  13.406
 4328SOL     OW14880   0.080  10.471   5.764
 4328SOL    HW114881   0.116  10.383   5.775
 4328SOL    HW214882  14.854  10.456   5.750
 4329SOL     OW14883   5.200  12.269   3.567
 4329SOL    HW114884   5.282  12.316   3.580
 4329SOL    HW214885   5.133  12.337   3.564
 4330SOL     OW14886   3.282   5.723  10.363
 4330SOL    HW114887   3.233   5.723  10.281
 4330SOL    HW214888   3.334   5.643  10.360
 4331SOL     OW14889   1.212  10.804   4.695
 4331SOL    HW114890   1.117  10.790   4.699
 4331SOL    HW214891   1.240  10.808   4.786
 4332SOL     OW14892   2.276   3.348   1.081
 4332SOL    HW114893   2.330   3.300   1.143
 4332SOL    HW214894   2.232   3.415   1.133
 4333SOL     OW14895   3.222   7.045  14.520
 4333SOL    HW114896   3.181   6.972  14.566
 4333SOL    HW214897   3.316   7.028  14.525
 4334SOL     OW14898   7.495   4.984  13.556
 4334SOL    HW114899   7.451   5.065  13.581
 4334SOL    HW214900   7.488   4.981  13.461
 4335SOL     OW14901   8.060   0.725   0.624
 4335SOL    HW114902   8.087   0.726   0.716
 4335SOL    HW214903   8.132   0.683   0.578
 4336SOL     OW14904   8.767   9.482  11.835
 4336SOL    HW114905   8.845   9.463  11.887
 4336SOL    HW214906   8.697   9.495  11.899
 4337SOL     OW14907  13.707  14.649   7.144
 4337SOL    HW114908  13.646  14.591   7.099
 4337SOL    HW214909  13.675  14.652   7.235
 4338SOL     OW14910  13.780  12.916   2.638
 4338SOL    HW114911  13.711  12.883   2.696
 4338SOL    HW214912  13.744  12.907   2.550
 4339SOL     OW14913   9.463   8.678   1.005
 4339SOL    HW114914   9.420   8.730   1.074
 4339SOL    HW214915   9.530   8.628   1.051
 4340SOL     OW14916  10.951   6.181   1.282
 4340SOL    HW114917  10.910   6.120   1.222
 4340SOL    HW214918  10.981   6.254   1.227
 4341SOL     OW14919   4.761  11.035   7.639
 4341SOL    HW114920   4.848  11.074   7.640
 4341SOL    HW214921   4.734  11.035   7.731
 4342SOL     OW14922   6.109   2.906  13.056
 4342SOL    HW114923   6.061   2.989  13.062
 4342SOL    HW214924   6.103   2.882  12.964
 4343SOL     OW14925  11.785   9.356   2.791
 4343SOL    HW114926  11.724   9.282   2.796
 4343SOL    HW214927  11.746   9.415   2.727
 4344SOL     OW14928  13.016  13.542  12.769
 4344SOL    HW114929  12.961  13.531  12.691
 4344SOL    HW214930  13.039  13.635  12.769
 4345SOL     OW14931  12.190   6.715   1.182
 4345SOL    HW114932  12.204   6.766   1.102
 4345SOL    HW214933  12.261   6.740   1.241
 4346SOL     OW14934   2.927   6.939  13.789
 4346SOL    HW114935   2.966   6.927  13.876
 4346SOL    HW214936   2.913   6.849  13.757
 4347SOL     OW14937   9.963   2.030  11.737
 4347SOL    HW114938  10.035   1.997  11.791
 4347SOL    HW214939   9.891   1.969  11.752
 4348SOL     OW14940  10.233  11.791   4.704
 4348SOL    HW114941  10.270  11.839   4.777
 4348SOL    HW214942  10.155  11.840   4.679
 4349SOL     OW14943   9.954   7.560   0.684
 4349SOL    HW114944   9.859   7.557   0.697
 4349SOL    HW214945   9.986   7.618   0.754
 4350SOL     OW14946   6.312   1.302   4.718
 4350SOL    HW114947   6.257   1.290   4.795
 4350SOL    HW214948   6.254   1.284   4.643
 4351SOL     OW14949   3.336   9.353  10.650
 4351SOL    HW114950   3.261   9.324  10.597
 4351SOL    HW214951   3.330   9.302  10.730
 4352SOL     OW14952   4.357  11.340   5.122
 4352SOL    HW114953   4.293  11.334   5.193
 4352SOL    HW214954   4.330  11.272   5.060
 4353SOL     OW14955   4.648   9.127   8.638
 4353SOL    HW114956   4.595   9.140   8.559
 4353SOL    HW214957   4.696   9.210   8.647
 4354SOL     OW14958   5.509   0.727  13.069
 4354SOL    HW114959   5.495   0.744  12.975
 4354SOL    HW214960   5.529   0.633  13.073
 4355SOL     OW14961   8.761   0.413   4.649
 4355SOL    HW114962   8.780   0.423   4.742
 4355SOL    HW214963   8.796   0.493   4.609
 4356SOL     OW14964   4.952   5.035   3.325
 4356SOL    HW114965   4.886   4.967   3.311
 4356SOL    HW214966   4.934   5.100   3.257
 4357SOL     OW14967  13.771   3.314   5.679
 4357SOL    HW114968  13.742   3.373   5.610
 4357SOL    HW214969  13.728   3.231   5.659
 4358SOL     OW14970   0.163   2.666  12.210
 4358SOL    HW114971   0.091   2.628  12.260
 4358SOL    HW214972   0.126   2.683  12.124
 4359SOL     OW14973  10.327   4.357   6.505
 4359SOL    HW114974  10.268   4.284   6.484
 4359SOL    HW214975  10.282   4.406   6.573
 4360SOL     OW14976  14.024   6.563  10.879
 4360SOL    HW114977  14.119   6.559  10.866
 4360SOL    HW214978  13.989   6.582  10.792
 4361SOL     OW14979   9.438  12.948   2.552
 4361SOL    HW114980   9.502  12.997   2.604
 4361SOL    HW214981   9.439  12.992   2.466
 4362SOL     OW14982  10.023   9.814   5.034
 4362SOL    HW114983   9.964   9.797   4.961
 4362SOL    HW214984  10.074   9.733   5.043
 4363SOL     OW14985  13.927   7.913   8.487
 4363SOL    HW114986  13.998   7.865   8.530
 4363SOL    HW214987  13.964   7.999   8.468
 4364SOL     OW14988  10.787  11.694   9.414
 4364SOL    HW114989  10.876  11.688   9.381
 4364SOL    HW214990  10.795  11.675   9.508
 4365SOL     OW14991  10.614  14.367   2.509
 4365SOL    HW114992  10.602  14.396   2.599
 4365SOL    HW214993  10.698  14.405   2.482
 4366SOL     OW14994   8.094   5.598   7.337
 4366SOL    HW114995   8.087   5.574   7.244
 4366SOL    HW214996   8.029   5.667   7.349
 4367SOL     OW14997  14.129   0.711  12.081
 4367SOL    HW114998  14.142   0.803  12.104
 4367SOL    HW214999  14.176   0.701  11.998
 4368SOL     OW15000  13.562  11.736   9.967
 4368SOL    HW115001  13.532  11.676   9.898
 4368SOL    HW215002  13.580  11.679  10.042
 4369SOL     OW15003  14.383   4.129   8.473
 4369SOL    HW115004  14.349   4.172   8.552
 4369SOL    HW215005  14.365   4.036   8.488
 4370SOL     OW15006   7.748  12.384  14.155
 4370SOL    HW115007   7.654  12.397  14.173
 4370SOL    HW215008   7.778  12.469  14.125
 4371SOL     OW15009   8.675   8.689   4.170
 4371SOL    HW115010   8.715   8.764   4.127
 4371SOL    HW215011   8.678   8.619   4.104
 4372SOL     OW15012   8.300   8.538   4.439
 4372SOL    HW115013   8.365   8.470   4.457
 4372SOL    HW215014   8.253   8.507   4.362
 4373SOL     OW15015   4.899   0.139   2.981
 4373SOL    HW115016   4.878   0.227   2.952
 4373SOL    HW215017   4.977   0.149   3.035
 4374SOL     OW15018   3.835   5.583   1.540
 4374SOL    HW115019   3.890   5.649   1.497
 4374SOL    HW215020   3.858   5.501   1.497
 4375SOL     OW15021   5.680   9.622   4.228
 4375SOL    HW115022   5.627   9.551   4.265
 4375SOL    HW215023   5.679   9.690   4.296
 4376SOL     OW15024   2.097   7.976   6.328
 4376SOL    HW115025   2.076   8.064   6.297
 4376SOL    HW215026   2.193   7.974   6.333
 4377SOL     OW15027   7.211   7.028  13.372
 4377SOL    HW115028   7.250   7.082  13.304
 4377SOL    HW215029   7.125   7.066  13.387
 4378SOL     OW15030  12.298  11.380   5.795
 4378SOL    HW115031  12.263  11.331   5.870
 4378SOL    HW215032  12.380  11.335   5.774
 4379SOL     OW15033  10.944   2.531  13.255
 4379SOL    HW115034  10.982   2.596  13.313
 4379SOL    HW215035  10.871   2.494  13.305
 4380SOL     OW15036   3.071  14.646   3.744
 4380SOL    HW115037   3.083  14.721   3.686
 4380SOL    HW215038   3.084  14.570   3.687
 4381SOL     OW15039   0.295   0.737  11.962
 4381SOL    HW115040   0.278   0.780  12.045
 4381SOL    HW215041   0.211   0.737  11.917
 4382SOL     OW15042  12.140   2.476  11.806
 4382SOL    HW115043  12.216   2.423  11.831
 4382SOL    HW215044  12.156   2.499  11.714
 4383SOL     OW15045  10.268   0.547   8.903
 4383SOL    HW115046  10.298   0.486   8.971
 4383SOL    HW215047  10.174   0.555   8.918
 4384SOL     OW15048   9.542   3.400   8.642
 4384SOL    HW115049   9.476   3.339   8.676
 4384SOL    HW215050   9.507   3.487   8.662
 4385SOL     OW15051   6.701  12.033   8.539
 4385SOL    HW115052   6.622  11.982   8.517
 4385SOL    HW215053   6.673  12.091   8.609
 4386SOL     OW15054  12.678  11.722   6.687
 4386SOL    HW115055  12.642  11.657   6.628
 4386SOL    HW215056  12.605  11.779   6.709
 4387SOL     OW15057   1.476   5.176   6.397
 4387SOL    HW115058   1.485   5.271   6.393
 4387SOL    HW215059   1.428   5.159   6.478
 4388SOL     OW15060   0.773  12.912   6.467
 4388SOL    HW115061   0.830  12.978   6.505
 4388SOL    HW215062   0.808  12.898   6.379
 4389SOL     OW15063   0.707   4.285  12.899
 4389SOL    HW115064   0.615   4.283  12.872
 4389SOL    HW215065   0.724   4.376  12.920
 4390SOL     OW15066   9.957   5.776   3.232
 4390SOL    HW115067   9.973   5.682   3.241
 4390SOL    HW215068  10.018   5.817   3.293
 4391SOL     OW15069  14.320   2.460   7.127
 4391SOL    HW115070  14.262   2.532   7.151
 4391SOL    HW215071  14.396   2.503   7.088
 4392SOL     OW15072   5.157   3.541   5.352
 4392SOL    HW115073   5.243   3.582   5.352
 4392SOL    HW215074   5.126   3.551   5.262
 4393SOL     OW15075  10.987   1.679   4.372
 4393SOL    HW115076  10.992   1.721   4.458
 4393SOL    HW215077  11.051   1.726   4.319
 4394SOL     OW15078   7.295  12.585   1.883
 4394SOL    HW115079   7.319  12.678   1.885
 4394SOL    HW215080   7.245  12.575   1.802
 4395SOL     OW15081  10.834   1.809   4.673
 4395SOL    HW115082  10.907   1.748   4.664
 4395SOL    HW215083  10.759   1.762   4.636
 4396SOL     OW15084   3.636   3.370  11.984
 4396SOL    HW115085   3.667   3.302  12.045
 4396SOL    HW215086   3.716   3.410  11.949
 4397SOL     OW15087  12.993   7.070  14.530
 4397SOL    HW115088  12.925   7.022  14.577
 4397SOL    HW215089  13.071   7.061  14.585
 4398SOL     OW15090   3.817   7.264   0.466
 4398SOL    HW115091   3.830   7.239   0.375
 4398SOL    HW215092   3.741   7.212   0.494
 4399SOL     OW15093   2.910   3.479   3.750
 4399SOL    HW115094   2.942   3.399   3.793
 4399SOL    HW215095   2.964   3.549   3.787
 4400SOL     OW15096  12.325   3.823   8.238
 4400SOL    HW115097  12.361   3.746   8.281
 4400SOL    HW215098  12.327   3.892   8.305
 4401SOL     OW15099   4.493   1.942   6.703
 4401SOL    HW115100   4.556   1.947   6.774
 4401SOL    HW215101   4.546   1.932   6.624
 4402SOL     OW15102  11.076   8.303   9.074
 4402SOL    HW115103  11.023   8.263   9.005
 4402SOL    HW215104  11.104   8.387   9.037
 4403SOL     OW15105   7.866  10.567   5.526
 4403SOL    HW115106   7.935  10.628   5.553
 4403SOL    HW215107   7.841  10.598   5.439
 4404SOL     OW15108   5.883   1.623   8.177
 4404SOL    HW115109   5.962   1.676   8.182
 4404SOL    HW215110   5.811   1.686   8.179
 4405SOL     OW15111   9.660  14.570   2.277
 4405SOL    HW115112   9.692  14.648   2.323
 4405SOL    HW215113   9.632  14.511   2.347
 4406SOL     OW15114   2.584  13.418   9.793
 4406SOL    HW115115   2.607  13.382   9.878
 4406SOL    HW215116   2.508  13.367   9.765
 4407SOL     OW15117   9.088   5.679   4.537
 4407SOL    HW115118   9.168   5.660   4.587
 4407SOL    HW215119   9.120   5.713   4.453
 4408SOL     OW15120  14.148   4.539  13.773
 4408SOL    HW115121  14.129   4.485  13.696
 4408SOL    HW215122  14.242   4.552  13.771
 4409SOL     OW15123   2.942  13.324   2.948
 4409SOL    HW115124   2.859  13.314   2.996
 4409SOL    HW215125   2.959  13.418   2.950
 4410SOL     OW15126   2.883   0.294  11.416
 4410SOL    HW115127   2.851   0.263  11.331
 4410SOL    HW215128   2.950   0.359  11.394
 4411SOL     OW15129  12.877  14.630   9.864
 4411SOL    HW115130  12.848  14.625   9.955
 4411SOL    HW215131  12.960  14.581   9.863
 4412SOL     OW15132   9.193   7.376  12.219
 4412SOL    HW115133   9.175   7.459  12.263
 4412SOL    HW215134   9.271   7.394  12.167
 4413SOL     OW15135   0.934  10.135  14.266
 4413SOL    HW115136   0.990  10.093  14.331
 4413SOL    HW215137   0.951  10.228  14.275
 4414SOL     OW15138  12.979   0.510  11.054
 4414SOL    HW115139  12.968   0.605  11.050
 4414SOL    HW215140  13.018   0.494  11.139
 4415SOL     OW15141   3.452   5.258   6.587
 4415SOL    HW115142   3.525   5.215   6.632
 4415SOL    HW215143   3.436   5.204   6.510
 4416SOL     OW15144  11.457   8.231   5.249
 4416SOL    HW115145  11.415   8.221   5.335
 4416SOL    HW215146  11.385   8.252   5.190
 4417SOL     OW15147   4.318  14.269   3.978
 4417SOL    HW115148   4.325  14.174   3.966
 4417SOL    HW215149   4.389  14.305   3.925
 4418SOL     OW15150   5.316   9.155   2.804
 4418SOL    HW115151   5.370   9.170   2.881
 4418SOL    HW215152   5.230   9.131   2.840
 4419SOL     OW15153   0.735  12.468   6.550
 4419SOL    HW115154   0.795  12.470   6.476
 4419SOL    HW215155   0.685  12.387   6.538
 4420SOL     OW15156   5.330   5.608   5.474
 4420SOL    HW115157   5.360   5.667   5.543
 4420SOL    HW215158   5.407   5.554   5.453
 4421SOL     OW15159   7.408  13.937   6.666
 4421SOL    HW115160   7.335  13.893   6.622
 4421SOL    HW215161   7.412  13.897   6.752
 4422SOL     OW15162  14.797   1.097  11.583
 4422SOL    HW115163  14.809   1.103  11.678
 4422SOL    HW215164  14.848   1.021  11.557
 4423SOL     OW15165   6.037   5.000  13.914
 4423SOL    HW115166   5.944   5.017  13.928
 4423SOL    HW215167   6.061   4.940  13.985
 4424SOL     OW15168   7.793   3.542   3.623
 4424SOL    HW115169   7.737   3.557   3.700
 4424SOL    HW215170   7.842   3.463   3.645
 4425SOL     OW15171   4.076   4.609   4.520
 4425SOL    HW115172   4.117   4.526   4.540
 4425SOL    HW215173   4.099   4.666   4.594
 4426SOL     OW15174   6.672   7.242   4.770
 4426SOL    HW115175   6.765   7.242   4.793
 4426SOL    HW215176   6.639   7.326   4.803
 4427SOL     OW15177   8.472   7.531  14.424
 4427SOL    HW115178   8.494   7.515  14.332
 4427SOL    HW215179   8.392   7.584  14.420
 4428SOL     OW15180   2.763   2.815  10.306
 4428SOL    HW115181   2.749   2.848  10.217
 4428SOL    HW215182   2.806   2.888  10.352
 4429SOL     OW15183  12.937   7.790   0.066
 4429SOL    HW115184  12.873   7.824   0.128
 4429SOL    HW215185  12.888   7.725   0.014
 4430SOL     OW15186  14.197  14.248   1.125
 4430SOL    HW115187  14.223  14.155   1.123
 4430SOL    HW215188  14.168  14.266   1.035
 4431SOL     OW15189   1.001   8.199  12.986
 4431SOL    HW115190   0.947   8.190  12.907
 4431SOL    HW215191   1.077   8.249  12.958
 4432SOL     OW15192  11.086   4.658  10.124
 4432SOL    HW115193  11.138   4.693  10.196
 4432SOL    HW215194  11.139   4.586  10.089
 4433SOL     OW15195   4.617   0.198   3.648
 4433SOL    HW115196   4.537   0.144   3.643
 4433SOL    HW215197   4.595   0.267   3.710
 4434SOL     OW15198   4.723  13.425   2.798
 4434SOL    HW115199   4.716  13.428   2.703
 4434SOL    HW215200   4.780  13.349   2.815
 4435SOL     OW15201   8.076   5.284   0.907
 4435SOL    HW115202   8.018   5.274   0.983
 4435SOL    HW215203   8.144   5.344   0.937
 4436SOL     OW15204  12.989   6.530  10.170
 4436SOL    HW115205  12.986   6.560  10.261
 4436SOL    HW215206  12.938   6.449  10.170
 4437SOL     OW15207   8.023   8.070  13.828
 4437SOL    HW115208   8.002   7.977  13.831
 4437SOL    HW215209   8.114   8.076  13.857
 4438SOL     OW15210   4.034  14.501   5.307
 4438SOL    HW115211   4.115  14.542   5.275
 4438SOL    HW215212   4.005  14.447   5.233
 4439SOL     OW15213   1.489   2.502   1.262
 4439SOL    HW115214   1.420   2.455   1.310
 4439SOL    HW215215   1.555   2.435   1.244
 4440SOL     OW15216   0.152   0.903   8.165
 4440SOL    HW115217   0.193   0.859   8.090
 4440SOL    HW215218   0.181   0.994   8.157
 4441SOL     OW15219   1.935  12.388  11.973
 4441SOL    HW115220   1.941  12.300  12.010
 4441SOL    HW215221   1.984  12.443  12.034
 4442SOL     OW15222  10.666   6.843  13.704
 4442SOL    HW115223  10.747   6.864  13.750
 4442SOL    HW215224  10.614   6.793  13.767
 4443SOL     OW15225  13.927   3.896   0.947
 4443SOL    HW115226  13.916   3.984   0.913
 4443SOL    HW215227  13.908   3.839   0.873
 4444SOL     OW15228  12.052   2.275  14.190
 4444SOL    HW115229  12.106   2.249  14.264
 4444SOL    HW215230  11.962   2.273  14.223
 4445SOL     OW15231   2.045   7.996   0.724
 4445SOL    HW115232   2.032   7.901   0.722
 4445SOL    HW215233   2.077   8.015   0.812
 4446SOL     OW15234   4.692   3.048   0.538
 4446SOL    HW115235   4.743   3.043   0.457
 4446SOL    HW215236   4.748   3.006   0.604
 4447SOL     OW15237   5.299   7.174   2.324
 4447SOL    HW115238   5.375   7.224   2.292
 4447SOL    HW215239   5.300   7.093   2.272
 4448SOL     OW15240   4.290   1.812   4.368
 4448SOL    HW115241   4.360   1.866   4.406
 4448SOL    HW215242   4.212   1.835   4.418
 4449SOL     OW15243   2.496   3.517   4.186
 4449SOL    HW115244   2.561   3.488   4.249
 4449SOL    HW215245   2.536   3.591   4.141
 4450SOL     OW15246  11.328   6.796   2.663
 4450SOL    HW115247  11.406   6.834   2.702
 4450SOL    HW215248  11.266   6.869   2.656
 4451SOL     OW15249   8.003  10.907  11.517
 4451SOL    HW115250   7.932  10.970  11.503
 4451SOL    HW215251   8.012  10.862  11.433
 4452SOL     OW15252   5.307   0.714  12.315
 4452SOL    HW115253   5.378   0.657  12.343
 4452SOL    HW215254   5.237   0.698  12.378
 4453SOL     OW15255  11.133  14.139   7.955
 4453SOL    HW115256  11.057  14.082   7.965
 4453SOL    HW215257  11.187  14.122   8.033
 4454SOL     OW15258  10.829   8.730  10.031
 4454SOL    HW115259  10.837   8.770   9.944
 4454SOL    HW215260  10.911   8.680  10.041
 4455SOL     OW15261   9.506   0.572   1.325
 4455SOL    HW115262   9.589   0.529   1.346
 4455SOL    HW215263   9.466   0.514   1.260
 4456SOL     OW15264   7.731   7.864   9.477
 4456SOL    HW115265   7.772   7.827   9.556
 4456SOL    HW215266   7.664   7.923   9.511
 4457SOL     OW15267   0.208   8.435   7.863
 4457SOL    HW115268   0.240   8.455   7.775
 4457SOL    HW215269   0.281   8.388   7.904
 4458SOL     OW15270   4.619  14.186   5.039
 4458SOL    HW115271   4.564  14.229   4.974
 4458SOL    HW215272   4.641  14.255   5.101
 4459SOL     OW15273   0.754   5.662   0.847
 4459SOL    HW115274   0.741   5.584   0.793
 4459SOL    HW215275   0.670   5.676   0.890
 4460SOL     OW15276   3.412   8.052   4.883
 4460SOL    HW115277   3.437   8.011   4.800
 4460SOL    HW215278   3.423   8.146   4.867
 4461SOL     OW15279  11.609  11.090   0.821
 4461SOL    HW115280  11.540  11.137   0.775
 4461SOL    HW215281  11.586  11.097   0.913
 4462SOL     OW15282   8.789   9.366   9.890
 4462SOL    HW115283   8.845   9.420   9.946
 4462SOL    HW215284   8.831   9.280   9.890
 4463SOL     OW15285   9.881  10.888  10.085
 4463SOL    HW115286   9.929  10.954  10.036
 4463SOL    HW215287   9.916  10.894  10.174
 4464SOL     OW15288   0.166  13.731   7.817
 4464SOL    HW115289   0.074  13.746   7.839
 4464SOL    HW215290   0.175  13.766   7.728
 4465SOL     OW15291   1.954   8.794   8.846
 4465SOL    HW115292   2.042   8.769   8.817
 4465SOL    HW215293   1.947   8.760   8.935
 4466SOL     OW15294   4.318  11.939  13.243
 4466SOL    HW115295   4.369  12.001  13.294
 4466SOL    HW215296   4.307  11.863  13.300
 4467SOL     OW15297  10.068   6.570   3.979
 4467SOL    HW115298   9.993   6.623   4.007
 4467SOL    HW215299  10.102   6.532   4.060
 4468SOL     OW15300  13.388  13.010   6.573
 4468SOL    HW115301  13.328  13.013   6.499
 4468SOL    HW215302  13.362  12.932   6.623
 4469SOL     OW15303   6.641   3.579   8.548
 4469SOL    HW115304   6.670   3.503   8.598
 4469SOL    HW215305   6.706   3.586   8.478
 4470SOL     OW15306   7.879   4.936   9.928
 4470SOL    HW115307   7.809   4.880   9.964
 4470SOL    HW215308   7.950   4.931   9.992
 4471SOL     OW15309   9.480   6.041   5.696
 4471SOL    HW115310   9.445   6.127   5.719
 4471SOL    HW215311   9.442   5.981   5.761
 4472SOL     OW15312   0.448   7.100   8.380
 4472SOL    HW115313   0.411   7.093   8.292
 4472SOL    HW215314   0.473   7.010   8.403
 4473SOL     OW15315   9.602  11.601   6.577
 4473SOL    HW115316   9.524  11.556   6.609
 4473SOL    HW215317   9.614  11.570   6.488
 4474SOL     OW15318   0.462   0.708   0.612
 4474SOL    HW115319   0.532   0.654   0.648
 4474SOL    HW215320   0.408   0.730   0.688
 4475SOL     OW15321  11.995  10.367  12.401
 4475SOL    HW115322  11.966  10.407  12.319
 4475SOL    HW215323  11.928  10.391  12.465
 4476SOL     OW15324   7.520  10.295   8.454
 4476SOL    HW115325   7.588  10.280   8.519
 4476SOL    HW215326   7.473  10.372   8.485
 4477SOL     OW15327   2.942   3.127   9.036
 4477SOL    HW115328   2.928   3.221   9.032
 4477SOL    HW215329   2.944   3.107   9.129
 4478SOL     OW15330   3.271   4.822   1.179
 4478SOL    HW115331   3.241   4.882   1.110
 4478SOL    HW215332   3.329   4.761   1.134
 4479SOL     OW15333  14.641  13.623   7.138
 4479SOL    HW115334  14.621  13.547   7.193
 4479SOL    HW215335  14.611  13.698   7.190
 4480SOL     OW15336   3.563   0.214   3.251
 4480SOL    HW115337   3.651   0.204   3.287
 4480SOL    HW215338   3.537   0.303   3.275
 4481SOL     OW15339  10.533   8.657  10.745
 4481SOL    HW115340  10.615   8.705  10.734
 4481SOL    HW215341  10.479   8.714  10.800
 4482SOL     OW15342  12.941  12.452  13.497
 4482SOL    HW115343  13.033  12.475  13.514
 4482SOL    HW215344  12.903  12.440  13.584
 4483SOL     OW15345   0.593   1.788  13.893
 4483SOL    HW115346   0.654   1.849  13.851
 4483SOL    HW215347   0.630   1.774  13.980
 4484SOL     OW15348   2.365  13.460  12.785
 4484SOL    HW115349   2.398  13.494  12.869
 4484SOL    HW215350   2.403  13.518  12.719
 4485SOL     OW15351   7.408   1.005  11.974
 4485SOL    HW115352   7.325   0.972  12.007
 4485SOL    HW215353   7.446   1.052  12.048
 4486SOL     OW15354   0.047   5.864   7.856
 4486SOL    HW115355   0.097   5.900   7.928
 4486SOL    HW215356   0.006   5.940   7.814
 4487SOL     OW15357   8.593   7.046   3.288
 4487SOL    HW115358   8.612   7.085   3.374
 4487SOL    HW215359   8.674   7.059   3.238
 4488SOL     OW15360   0.989  10.068   2.898
 4488SOL    HW115361   0.950   9.989   2.936
 4488SOL    HW215362   0.946  10.140   2.944
 4489SOL     OW15363   5.782   7.173   8.227
 4489SOL    HW115364   5.750   7.102   8.283
 4489SOL    HW215365   5.811   7.241   8.288
 4490SOL     OW15366   7.674   9.984   4.417
 4490SOL    HW115367   7.765   9.998   4.439
 4490SOL    HW215368   7.650   9.905   4.466
 4491SOL     OW15369  12.036   6.109   0.872
 4491SOL    HW115370  12.114   6.055   0.873
 4491SOL    HW215371  12.044   6.165   0.949
 4492SOL     OW15372   7.522   8.182   0.878
 4492SOL    HW115373   7.477   8.264   0.896
 4492SOL    HW215374   7.471   8.142   0.808
 4493SOL     OW15375  10.354  14.104   8.581
 4493SOL    HW115376  10.304  14.080   8.504
 4493SOL    HW215377  10.309  14.181   8.616
 4494SOL     OW15378   2.346   7.808   5.411
 4494SOL    HW115379   2.408   7.767   5.471
 4494SOL    HW215380   2.355   7.901   5.427
 4495SOL     OW15381   5.909   4.686   1.769
 4495SOL    HW115382   5.941   4.748   1.703
 4495SOL    HW215383   5.954   4.712   1.850
 4496SOL     OW15384  10.211   6.227   7.456
 4496SOL    HW115385  10.300   6.206   7.429
 4496SOL    HW215386  10.165   6.143   7.456
 4497SOL     OW15387  13.699   0.545   7.432
 4497SOL    HW115388  13.656   0.462   7.410
 4497SOL    HW215389  13.639   0.613   7.402
 4498SOL     OW15390   5.938  13.859   5.470
 4498SOL    HW115391   5.897  13.780   5.505
 4498SOL    HW215392   6.029  13.853   5.497
 4499SOL     OW15393   1.696   8.275   9.924
 4499SOL    HW115394   1.748   8.225   9.862
 4499SOL    HW215395   1.717   8.366   9.904
 4500SOL     OW15396   2.100  10.197   3.371
 4500SOL    HW115397   2.076  10.165   3.458
 4500SOL    HW215398   2.119  10.290   3.384
 4501SOL     OW15399   3.167   0.780   6.800
 4501SOL    HW115400   3.148   0.867   6.834
 4501SOL    HW215401   3.215   0.796   6.718
 4502SOL     OW15402  14.690   3.769   5.340
 4502SOL    HW115403  14.747   3.776   5.263
 4502SOL    HW215404  14.666   3.859   5.361
 4503SOL     OW15405   3.155   3.198  10.312
 4503SOL    HW115406   3.231   3.183  10.256
 4503SOL    HW215407   3.192   3.218  10.398
 4504SOL     OW15408   7.851  10.306   8.078
 4504SOL    HW115409   7.781  10.354   8.123
 4504SOL    HW215410   7.931  10.350   8.107
 4505SOL     OW15411  11.661   4.680  12.484
 4505SOL    HW115412  11.729   4.615  12.504
 4505SOL    HW215413  11.580   4.630  12.481
 4506SOL     OW15414   6.376  14.359   5.378
 4506SOL    HW115415   6.431  14.364   5.299
 4506SOL    HW215416   6.421  14.296   5.434
 4507SOL     OW15417   6.892   4.583   3.399
 4507SOL    HW115418   6.839   4.571   3.321
 4507SOL    HW215419   6.829   4.581   3.471
 4508SOL     OW15420   4.942  11.676   1.372
 4508SOL    HW115421   5.001  11.624   1.426
 4508SOL    HW215422   4.855  11.661   1.410
 4509SOL     OW15423  13.769  14.751   8.728
 4509SOL    HW115424  13.746  14.745   8.820
 4509SOL    HW215425  13.858  14.786   8.728
 4510SOL     OW15426   2.971  14.224   0.223
 4510SOL    HW115427   2.973  14.171   0.303
 4510SOL    HW215428   2.894  14.193   0.176
 4511SOL     OW15429   8.094   0.717   6.359
 4511SOL    HW115430   8.020   0.725   6.299
 4511SOL    HW215431   8.148   0.648   6.320
 4512SOL     OW15432   2.062   6.268   8.229
 4512SOL    HW115433   2.138   6.325   8.228
 4512SOL    HW215434   2.005   6.302   8.160
 4513SOL     OW15435   2.678   1.912   7.525
 4513SOL    HW115436   2.732   1.906   7.604
 4513SOL    HW215437   2.705   1.836   7.473
 4514SOL     OW15438   5.066   0.552   1.601
 4514SOL    HW115439   4.979   0.592   1.606
 4514SOL    HW215440   5.053   0.472   1.550
 4515SOL     OW15441   5.996   8.879  11.858
 4515SOL    HW115442   5.980   8.785  11.865
 4515SOL    HW215443   6.022   8.893  11.768
 4516SOL     OW15444   4.496   2.321   0.798
 4516SOL    HW115445   4.522   2.251   0.739
 4516SOL    HW215446   4.529   2.401   0.757
 4517SOL     OW15447  11.371   2.906   8.581
 4517SOL    HW115448  11.372   2.958   8.662
 4517SOL    HW215449  11.337   2.821   8.608
 4518SOL     OW15450  10.034   2.249   9.672
 4518SOL    HW115451   9.974   2.183   9.638
 4518SOL    HW215452   9.999   2.332   9.640
 4519SOL     OW15453  11.024   5.485   6.484
 4519SOL    HW115454  10.933   5.460   6.472
 4519SOL    HW215455  11.067   5.406   6.516
 4520SOL     OW15456   1.209   6.618  12.913
 4520SOL    HW115457   1.212   6.700  12.864
 4520SOL    HW215458   1.291   6.616  12.962
 4521SOL     OW15459   9.798   3.127  13.670
 4521SOL    HW115460   9.741   3.050  13.660
 4521SOL    HW215461   9.770   3.185  13.599
 4522SOL     OW15462  11.952   0.795   5.090
 4522SOL    HW115463  11.870   0.828   5.128
 4522SOL    HW215464  12.020   0.826   5.151
 4523SOL     OW15465  10.289   2.979   6.583
 4523SOL    HW115466  10.297   2.960   6.489
 4523SOL    HW215467  10.232   3.056   6.586
 4524SOL     OW15468   0.550   6.888  13.988
 4524SOL    HW115469   0.550   6.815  14.050
 4524SOL    HW215470   0.459   6.916  13.982
 4525SOL     OW15471   3.573   8.132   0.548
 4525SOL    HW115472   3.533   8.155   0.464
 4525SOL    HW215473   3.660   8.098   0.525
 4526SOL     OW15474   6.440  10.556   0.729
 4526SOL    HW115475   6.372  10.553   0.796
 4526SOL    HW215476   6.522  10.558   0.777
 4527SOL     OW15477   4.077   8.579   5.417
 4527SOL    HW115478   4.133   8.504   5.395
 4527SOL    HW215479   3.990   8.541   5.431
 4528SOL     OW15480  11.142   7.616  14.131
 4528SOL    HW115481  11.081   7.573  14.192
 4528SOL    HW215482  11.174   7.545  14.075
 4529SOL     OW15483   3.320   9.889  14.043
 4529SOL    HW115484   3.353   9.827  14.108
 4529SOL    HW215485   3.265   9.949  14.093
 4530SOL     OW15486   4.882  12.628   1.834
 4530SOL    HW115487   4.875  12.707   1.888
 4530SOL    HW215488   4.791  12.607   1.812
 4531SOL     OW15489   0.254   8.410  14.012
 4531SOL    HW115490   0.264   8.396  14.107
 4531SOL    HW215491   0.191   8.482  14.005
 4532SOL     OW15492   7.971  13.215   8.584
 4532SOL    HW115493   7.886  13.175   8.567
 4532SOL    HW215494   8.003  13.170   8.662
 4533SOL     OW15495  10.820   6.208   1.959
 4533SOL    HW115496  10.812   6.303   1.963
 4533SOL    HW215497  10.824   6.187   1.866
 4534SOL     OW15498   2.335   0.913   5.414
 4534SOL    HW115499   2.397   0.856   5.459
 4534SOL    HW215500   2.326   0.875   5.326
 4535SOL     OW15501  12.703   7.322   7.798
 4535SOL    HW115502  12.639   7.390   7.817
 4535SOL    HW215503  12.785   7.354   7.835
 4536SOL     OW15504   4.422   0.772   4.047
 4536SOL    HW115505   4.443   0.865   4.034
 4536SOL    HW215506   4.399   0.766   4.140
 4537SOL     OW15507  11.512   4.611  10.289
 4537SOL    HW115508  11.501   4.517  10.300
 4537SOL    HW215509  11.555   4.640  10.369
 4538SOL     OW15510  11.124  12.948   0.947
 4538SOL    HW115511  11.217  12.953   0.925
 4538SOL    HW215512  11.112  13.013   1.016
 4539SOL     OW15513   2.448   3.233   1.267
 4539SOL    HW115514   2.495   3.308   1.302
 4539SOL    HW215515   2.517   3.173   1.238
 4540SOL     OW15516  13.957   6.422  14.120
 4540SOL    HW115517  13.919   6.408  14.207
 4540SOL    HW215518  14.023   6.490  14.134
 4541SOL     OW15519   2.796   9.674   1.796
 4541SOL    HW115520   2.882   9.641   1.768
 4541SOL    HW215521   2.786   9.756   1.749
 4542SOL     OW15522   5.004  12.431   1.566
 4542SOL    HW115523   5.084  12.456   1.611
 4542SOL    HW215524   4.949  12.509   1.568
 4543SOL     OW15525  11.876   1.520   9.589
 4543SOL    HW115526  11.904   1.474   9.511
 4543SOL    HW215527  11.925   1.603   9.588
 4544SOL     OW15528   1.636   3.764   5.999
 4544SOL    HW115529   1.710   3.758   5.938
 4544SOL    HW215530   1.592   3.845   5.974
 4545SOL     OW15531   7.931  11.508   4.547
 4545SOL    HW115532   7.980  11.561   4.485
 4545SOL    HW215533   7.867  11.568   4.586
 4546SOL     OW15534   4.792  14.317   7.784
 4546SOL    HW115535   4.843  14.361   7.852
 4546SOL    HW215536   4.764  14.388   7.725
 4547SOL     OW15537  10.200   6.042   3.631
 4547SOL    HW115538  10.275   6.091   3.596
 4547SOL    HW215539  10.234   5.953   3.644
 4548SOL     OW15540   5.942   6.109   6.189
 4548SOL    HW115541   5.947   6.146   6.277
 4548SOL    HW215542   6.005   6.036   6.190
 4549SOL     OW15543   0.050  14.138   4.211
 4549SOL    HW115544  14.854  14.182   4.154
 4549SOL    HW215545  14.864  14.082   4.267
 4550SOL     OW15546   9.538  10.457  10.130
 4550SOL    HW115547   9.603  10.527  10.139
 4550SOL    HW215548   9.590  10.377  10.134
 4551SOL     OW15549  11.046   5.357   1.213
 4551SOL    HW115550  10.977   5.364   1.279
 4551SOL    HW215551  11.119   5.317   1.260
 4552SOL     OW15552  10.515   5.743   8.921
 4552SOL    HW115553  10.458   5.796   8.976
 4552SOL    HW215554  10.477   5.750   8.833
 4553SOL     OW15555   4.771   7.774   3.443
 4553SOL    HW115556   4.745   7.824   3.521
 4553SOL    HW215557   4.690   7.733   3.413
 4554SOL     OW15558   7.972   2.412   2.046
 4554SOL    HW115559   7.988   2.469   2.122
 4554SOL    HW215560   8.046   2.429   1.988
 4555SOL     OW15561   8.690  10.389  11.087
 4555SOL    HW115562   8.762  10.329  11.104
 4555SOL    HW215563   8.613  10.347  11.125
 4556SOL     OW15564   5.474   8.617   7.370
 4556SOL    HW115565   5.543   8.575   7.422
 4556SOL    HW215566   5.517   8.640   7.288
 4557SOL     OW15567   2.927   3.940  11.473
 4557SOL    HW115568   3.018   3.914  11.489
 4557SOL    HW215569   2.918   4.024  11.519
 4558SOL     OW15570   6.873  10.699   6.944
 4558SOL    HW115571   6.869  10.621   6.889
 4558SOL    HW215572   6.949  10.748   6.911
 4559SOL     OW15573   1.382   0.697   8.002
 4559SOL    HW115574   1.329   0.647   7.940
 4559SOL    HW215575   1.441   0.633   8.040
 4560SOL     OW15576   1.228   1.791  14.309
 4560SOL    HW115577   1.259   1.754  14.392
 4560SOL    HW215578   1.259   1.728  14.242
 4561SOL     OW15579   5.593   8.323  13.593
 4561SOL    HW115580   5.627   8.395  13.647
 4561SOL    HW215581   5.588   8.249  13.653
 4562SOL     OW15582   3.962   2.823   8.749
 4562SOL    HW115583   3.903   2.876   8.803
 4562SOL    HW215584   3.919   2.738   8.743
 4563SOL     OW15585   1.421   1.497  11.069
 4563SOL    HW115586   1.439   1.488  11.163
 4563SOL    HW215587   1.344   1.554  11.065
 4564SOL     OW15588   5.957   4.429   0.108
 4564SOL    HW115589   5.995   4.513   0.081
 4564SOL    HW215590   6.031   4.379   0.142
 4565SOL     OW15591   8.872   2.953   6.736
 4565SOL    HW115592   8.830   2.958   6.650
 4565SOL    HW215593   8.807   2.909   6.791
 4566SOL     OW15594   1.286   4.629   5.272
 4566SOL    HW115595   1.324   4.712   5.302
 4566SOL    HW215596   1.257   4.586   5.352
 4567SOL     OW15597  12.418   0.458   6.314
 4567SOL    HW115598  12.477   0.492   6.247
 4567SOL    HW215599  12.330   0.478   6.282
 4568SOL     OW15600   8.378  11.135  11.558
 4568SOL    HW115601   8.391  11.043  11.537
 4568SOL    HW215602   8.303  11.161  11.503
 4569SOL     OW15603  14.088  11.754   0.516
 4569SOL    HW115604  14.067  11.700   0.593
 4569SOL    HW215605  14.162  11.709   0.475
 4570SOL     OW15606   6.743  14.158   4.361
 4570SOL    HW115607   6.807  14.206   4.310
 4570SOL    HW215608   6.787  14.143   4.445
 4571SOL     OW15609  11.941   9.836  12.592
 4571SOL    HW115610  11.907   9.750  12.621
 4571SOL    HW215611  11.968   9.879  12.673
 4572SOL     OW15612  13.793  14.520  12.634
 4572SOL    HW115613  13.846  14.559  12.704
 4572SOL    HW215614  13.725  14.585  12.617
 4573SOL     OW15615  13.072   5.605   2.029
 4573SOL    HW115616  13.096   5.513   2.022
 4573SOL    HW215617  13.129   5.650   1.966
 4574SOL     OW15618   3.967   4.103   7.507
 4574SOL    HW115619   3.986   4.013   7.482
 4574SOL    HW215620   4.033   4.155   7.462
 4575SOL     OW15621   4.391   2.735  14.087
 4575SOL    HW115622   4.450   2.660  14.096
 4575SOL    HW215623   4.360   2.731  13.996
 4576SOL     OW15624   5.840   8.329   7.270
 4576SOL    HW115625   5.935   8.318   7.275
 4576SOL    HW215626   5.811   8.256   7.216
 4577SOL     OW15627  13.911   1.844   2.099
 4577SOL    HW115628  13.949   1.812   2.017
 4577SOL    HW215629  13.986   1.871   2.151
 4578SOL     OW15630  14.473  10.051   3.997
 4578SOL    HW115631  14.487  10.115   4.067
 4578SOL    HW215632  14.390  10.008   4.020
 4579SOL     OW15633  12.536   1.933  12.209
 4579SOL    HW115634  12.558   2.026  12.198
 4579SOL    HW215635  12.536   1.920  12.304
 4580SOL     OW15636   9.447  12.185  11.851
 4580SOL    HW115637   9.465  12.143  11.935
 4580SOL    HW215638   9.458  12.115  11.787
 4581SOL     OW15639   5.033   3.462   2.061
 4581SOL    HW115640   5.125   3.444   2.041
 4581SOL    HW215641   4.989   3.457   1.976
 4582SOL     OW15642   8.080   3.700   0.642
 4582SOL    HW115643   8.084   3.649   0.561
 4582SOL    HW215644   7.998   3.672   0.684
 4583SOL     OW15645   8.184   8.400   0.863
 4583SOL    HW115646   8.226   8.333   0.917
 4583SOL    HW215647   8.127   8.351   0.804
 4584SOL     OW15648   2.526   9.202  13.597
 4584SOL    HW115649   2.573   9.156  13.527
 4584SOL    HW215650   2.453   9.144  13.618
 4585SOL     OW15651   2.925  12.833   8.222
 4585SOL    HW115652   2.990  12.840   8.292
 4585SOL    HW215653   2.879  12.751   8.240
 4586SOL     OW15654   5.335  12.777  10.581
 4586SOL    HW115655   5.267  12.714  10.603
 4586SOL    HW215656   5.287  12.850  10.542
 4587SOL     OW15657  12.255  13.543  12.873
 4587SOL    HW115658  12.176  13.597  12.880
 4587SOL    HW215659  12.322  13.591  12.921
 4588SOL     OW15660   8.589   4.054   0.084
 4588SOL    HW115661   8.607   4.008   0.166
 4588SOL    HW215662   8.611   4.145   0.102
 4589SOL     OW15663   0.138   8.248  12.237
 4589SOL    HW115664   0.169   8.336  12.216
 4589SOL    HW215665   0.044   8.251  12.221
 4590SOL     OW15666   9.183  14.067  13.273
 4590SOL    HW115667   9.158  14.049  13.363
 4590SOL    HW215668   9.177  14.162  13.265
 4591SOL     OW15669   1.817   9.074   8.262
 4591SOL    HW115670   1.844   9.063   8.353
 4591SOL    HW215671   1.759   9.000   8.245
 4592SOL     OW15672   6.983   6.997  14.725
 4592SOL    HW115673   6.908   6.998  14.785
 4592SOL    HW215674   7.057   7.024  14.780
 4593SOL     OW15675   6.817  11.713   8.656
 4593SOL    HW115676   6.742  11.671   8.699
 4593SOL    HW215677   6.842  11.784   8.715
 4594SOL     OW15678   9.472  13.044   2.845
 4594SOL    HW115679   9.489  13.030   2.938
 4594SOL    HW215680   9.460  12.956   2.809
 4595SOL     OW15681   1.714   9.719   8.838
 4595SOL    HW115682   1.769   9.795   8.861
 4595SOL    HW215683   1.666   9.700   8.919
 4596SOL     OW15684   8.005   7.555   3.668
 4596SOL    HW115685   8.033   7.464   3.654
 4596SOL    HW215686   8.029   7.572   3.759
 4597SOL     OW15687   4.891  11.278   7.112
 4597SOL    HW115688   4.974  11.274   7.159
 4597SOL    HW215689   4.832  11.325   7.171
 4598SOL     OW15690   1.514   0.628   5.080
 4598SOL    HW115691   1.455   0.666   5.015
 4598SOL    HW215692   1.458   0.611   5.156
 4599SOL     OW15693   5.109  11.119   4.672
 4599SOL    HW115694   5.055  11.048   4.637
 4599SOL    HW215695   5.094  11.117   4.766
 4600SOL     OW15696  11.821   9.626   1.170
 4600SOL    HW115697  11.726   9.635   1.174
 4600SOL    HW215698  11.855   9.695   1.227
 4601SOL     OW15699   2.923   0.700  12.583
 4601SOL    HW115700   2.895   0.766  12.646
 4601SOL    HW215701   3.009   0.729  12.554
 4602SOL     OW15702  12.266   2.817  10.769
 4602SOL    HW115703  12.196   2.753  10.785
 4602SOL    HW215704  12.267   2.872  10.847
 4603SOL     OW15705   4.793  11.166   6.505
 4603SOL    HW115706   4.871  11.145   6.452
 4603SOL    HW215707   4.722  11.170   6.441
 4604SOL     OW15708   4.248   8.927   8.364
 4604SOL    HW115709   4.192   8.861   8.323
 4604SOL    HW215710   4.332   8.918   8.318
 4605SOL     OW15711   2.015   1.355  11.976
 4605SOL    HW115712   1.947   1.403  12.023
 4605SOL    HW215713   2.050   1.418  11.913
 4606SOL     OW15714   7.436   6.609   5.067
 4606SOL    HW115715   7.507   6.555   5.101
 4606SOL    HW215716   7.359   6.553   5.070
 4607SOL     OW15717   0.627   6.894   9.271
 4607SOL    HW115718   0.537   6.871   9.294
 4607SOL    HW215719   0.666   6.811   9.242
 4608SOL     OW15720  12.165   4.071  12.032
 4608SOL    HW115721  12.087   4.100  12.079
 4608SOL    HW215722  12.226   4.044  12.100
 4609SOL     OW15723  10.843   7.711   3.975
 4609SOL    HW115724  10.788   7.731   4.051
 4609SOL    HW215725  10.904   7.644   4.006
 4610SOL     OW15726   7.983   3.342   5.484
 4610SOL    HW115727   8.004   3.410   5.548
 4610SOL    HW215728   7.991   3.386   5.399
 4611SOL     OW15729   5.201   0.543  11.895
 4611SOL    HW115730   5.238   0.457  11.875
 4611SOL    HW215731   5.214   0.593  11.814
 4612SOL     OW15732   4.832   1.030   6.728
 4612SOL    HW115733   4.896   1.004   6.662
 4612SOL    HW215734   4.798   1.113   6.698
 4613SOL     OW15735   0.083   3.886   2.553
 4613SOL    HW115736   0.031   3.865   2.476
 4613SOL    HW215737   0.160   3.830   2.547
 4614SOL     OW15738   0.110  14.399   2.832
 4614SOL    HW115739   0.100  14.304   2.826
 4614SOL    HW215740   0.189  14.418   2.781
 4615SOL     OW15741  12.873   8.531   4.418
 4615SOL    HW115742  12.953   8.581   4.430
 4615SOL    HW215743  12.853   8.540   4.325
 4616SOL     OW15744   3.646   6.404   4.835
 4616SOL    HW115745   3.695   6.339   4.785
 4616SOL    HW215746   3.556   6.395   4.804
 4617SOL     OW15747   3.354  14.516  12.551
 4617SOL    HW115748   3.270  14.493  12.511
 4617SOL    HW215749   3.409  14.544  12.478
 4618SOL     OW15750   9.483   1.645   8.510
 4618SOL    HW115751   9.388   1.636   8.500
 4618SOL    HW215752   9.499   1.629   8.604
 4619SOL     OW15753  12.554   7.284  12.360
 4619SOL    HW115754  12.514   7.262  12.276
 4619SOL    HW215755  12.578   7.377  12.352
 4620SOL     OW15756   8.205   6.457   2.562
 4620SOL    HW115757   8.118   6.426   2.535
 4620SOL    HW215758   8.193   6.551   2.578
 4621SOL     OW15759  11.297  10.274   3.383
 4621SOL    HW115760  11.239  10.330   3.434
 4621SOL    HW215761  11.315  10.325   3.304
 4622SOL     OW15762   6.682   9.354   4.080
 4622SOL    HW115763   6.602   9.368   4.131
 4622SOL    HW215764   6.662   9.281   4.022
 4623SOL     OW15765   1.382   1.099  13.462
 4623SOL    HW115766   1.372   1.050  13.543
 4623SOL    HW215767   1.294   1.131  13.442
 4624SOL     OW15768  12.554  11.976  14.224
 4624SOL    HW115769  12.533  11.920  14.299
 4624SOL    HW215770  12.549  12.065  14.259
 4625SOL     OW15771   6.514  10.972   5.278
 4625SOL    HW115772   6.531  10.983   5.371
 4625SOL    HW215773   6.601  10.960   5.239
 4626SOL     OW15774   5.482   2.307   3.243
 4626SOL    HW115775   5.516   2.354   3.319
 4626SOL    HW215776   5.404   2.263   3.274
 4627SOL     OW15777   8.334   6.106  11.726
 4627SOL    HW115778   8.273   6.081  11.795
 4627SOL    HW215779   8.310   6.196  11.705
 4628SOL     OW15780   4.077   4.130  10.258
 4628SOL    HW115781   4.139   4.169  10.195
 4628SOL    HW215782   4.123   4.053  10.291
 4629SOL     OW15783  14.429   1.555  13.885
 4629SOL    HW115784  14.512   1.507  13.883
 4629SOL    HW215785  14.375   1.513  13.819
 4630SOL     OW15786   9.215   4.161   8.609
 4630SOL    HW115787   9.252   4.073   8.610
 4630SOL    HW215788   9.241   4.197   8.524
 4631SOL     OW15789  14.459   0.861  10.485
 4631SOL    HW115790  14.452   0.954  10.465
 4631SOL    HW215791  14.479   0.858  10.579
 4632SOL     OW15792   3.960   6.019  14.741
 4632SOL    HW115793   3.946   6.046  14.651
 4632SOL    HW215794   3.968   5.923  14.737
 4633SOL     OW15795   4.319   0.191   2.068
 4633SOL    HW115796   4.271   0.125   2.118
 4633SOL    HW215797   4.264   0.209   1.992
 4634SOL     OW15798   4.871  14.452  14.434
 4634SOL    HW115799   4.826  14.387  14.487
 4634SOL    HW215800   4.941  14.403  14.390
 4635SOL     OW15801  11.327  10.236   5.103
 4635SOL    HW115802  11.243  10.258   5.063
 4635SOL    HW215803  11.392  10.258   5.036
 4636SOL     OW15804   4.448   5.039  11.233
 4636SOL    HW115805   4.437   4.985  11.154
 4636SOL    HW215806   4.413   5.125  11.208
 4637SOL     OW15807   6.038   9.010   9.930
 4637SOL    HW115808   6.085   9.074   9.876
 4637SOL    HW215809   5.949   9.011   9.896
 4638SOL     OW15810   9.593  12.969   5.298
 4638SOL    HW115811   9.611  13.063   5.295
 4638SOL    HW215812   9.619  12.942   5.386
 4639SOL     OW15813  13.954  10.003   9.419
 4639SOL    HW115814  14.045  10.030   9.427
 4639SOL    HW215815  13.959   9.911   9.391
 4640SOL     OW15816  13.860   0.487   9.679
 4640SOL    HW115817  13.883   0.533   9.598
 4640SOL    HW215818  13.939   0.492   9.733
 4641SOL     OW15819   4.979  10.555   0.528
 4641SOL    HW115820   4.910  10.580   0.589
 4641SOL    HW215821   5.026  10.484   0.572
 4642SOL     OW15822   4.749   1.022   8.255
 4642SOL    HW115823   4.675   1.071   8.290
 4642SOL    HW215824   4.812   1.019   8.327
 4643SOL     OW15825   1.828  13.097   5.063
 4643SOL    HW115826   1.763  13.134   5.123
 4643SOL    HW215827   1.836  13.162   4.994
 4644SOL     OW15828   9.348   0.741   3.272
 4644SOL    HW115829   9.343   0.663   3.216
 4644SOL    HW215830   9.293   0.806   3.228
 4645SOL     OW15831   0.657   7.885   0.361
 4645SOL    HW115832   0.578   7.834   0.347
 4645SOL    HW215833   0.646   7.922   0.449
 4646SOL     OW15834  12.789   9.085  10.159
 4646SOL    HW115835  12.700   9.066  10.130
 4646SOL    HW215836  12.780   9.109  10.251
 4647SOL     OW15837   3.379  10.478   1.962
 4647SOL    HW115838   3.405  10.532   2.037
 4647SOL    HW215839   3.357  10.542   1.894
 4648SOL     OW15840   5.650   2.244  10.381
 4648SOL    HW115841   5.654   2.277  10.471
 4648SOL    HW215842   5.738   2.210  10.365
 4649SOL     OW15843   4.482  10.671   1.107
 4649SOL    HW115844   4.510  10.589   1.066
 4649SOL    HW215845   4.408  10.700   1.055
 4650SOL     OW15846   3.163   9.241  13.265
 4650SOL    HW115847   3.084   9.287  13.238
 4650SOL    HW215848   3.131   9.165  13.315
 4651SOL     OW15849   3.939   8.142   7.595
 4651SOL    HW115850   4.035   8.139   7.600
 4651SOL    HW215851   3.919   8.230   7.563
 4652SOL     OW15852   4.163   6.587  10.633
 4652SOL    HW115853   4.146   6.603  10.541
 4652SOL    HW215854   4.156   6.492  10.643
 4653SOL     OW15855   8.828   3.672   1.623
 4653SOL    HW115856   8.922   3.655   1.613
 4653SOL    HW215857   8.808   3.738   1.557
 4654SOL     OW15858   2.141   6.298   6.655
 4654SOL    HW115859   2.174   6.388   6.650
 4654SOL    HW215860   2.053   6.306   6.692
 4655SOL     OW15861  10.888  12.809   9.125
 4655SOL    HW115862  10.897  12.750   9.050
 4655SOL    HW215863  10.939  12.886   9.102
 4656SOL     OW15864   8.234   0.645  12.035
 4656SOL    HW115865   8.208   0.651  12.127
 4656SOL    HW215866   8.257   0.553  12.023
 4657SOL     OW15867  14.206  11.194   7.939
 4657SOL    HW115868  14.204  11.176   8.033
 4657SOL    HW215869  14.299  11.195   7.916
 4658SOL     OW15870   2.065   2.153   4.082
 4658SOL    HW115871   1.980   2.128   4.046
 4658SOL    HW215872   2.129   2.117   4.021
 4659SOL     OW15873   1.213   0.122   3.398
 4659SOL    HW115874   1.207   0.205   3.350
 4659SOL    HW215875   1.287   0.076   3.359
 4660SOL     OW15876  10.511   8.980  13.938
 4660SOL    HW115877  10.468   8.908  13.983
 4660SOL    HW215878  10.548   8.941  13.858
 4661SOL     OW15879   7.147  12.391  14.386
 4661SOL    HW115880   7.082  12.448  14.344
 4661SOL    HW215881   7.184  12.445  14.456
 4662SOL     OW15882   7.159   1.367   5.445
 4662SOL    HW115883   7.194   1.309   5.512
 4662SOL    HW215884   7.136   1.448   5.492
 4663SOL     OW15885   1.599   7.552   2.445
 4663SOL    HW115886   1.618   7.626   2.388
 4663SOL    HW215887   1.613   7.475   2.391
 4664SOL     OW15888   3.315   8.560  11.498
 4664SOL    HW115889   3.336   8.635  11.441
 4664SOL    HW215890   3.343   8.484  11.448
 4665SOL     OW15891   8.980   5.077   9.223
 4665SOL    HW115892   9.017   5.149   9.274
 4665SOL    HW215893   9.003   5.097   9.133
 4666SOL     OW15894  13.419   7.009   8.729
 4666SOL    HW115895  13.371   7.007   8.647
 4666SOL    HW215896  13.483   7.079   8.718
 4667SOL     OW15897   5.447   9.980   6.447
 4667SOL    HW115898   5.437   9.902   6.391
 4667SOL    HW215899   5.470   9.945   6.533
 4668SOL     OW15900  11.022   4.132  12.531
 4668SOL    HW115901  11.018   4.042  12.564
 4668SOL    HW215902  11.004   4.123  12.437
 4669SOL     OW15903   0.760   1.888   8.951
 4669SOL    HW115904   0.747   1.878   9.045
 4669SOL    HW215905   0.853   1.874   8.938
 4670SOL     OW15906   1.826  10.198   5.649
 4670SOL    HW115907   1.875  10.187   5.568
 4670SOL    HW215908   1.892  10.192   5.718
 4671SOL     OW15909  12.098  12.096   1.485
 4671SOL    HW115910  12.060  12.011   1.465
 4671SOL    HW215911  12.192  12.085   1.470
 4672SOL     OW15912  13.093  10.758  14.058
 4672SOL    HW115913  13.097  10.662  14.064
 4672SOL    HW215914  13.002  10.776  14.035
 4673SOL     OW15915   8.074   1.220   5.407
 4673SOL    HW115916   8.145   1.165   5.439
 4673SOL    HW215917   8.075   1.297   5.464
 4674SOL     OW15918   6.897  14.225   3.929
 4674SOL    HW115919   6.943  14.284   3.869
 4674SOL    HW215920   6.927  14.137   3.904
 4675SOL     OW15921   9.838  14.734   9.705
 4675SOL    HW115922   9.883  14.660   9.746
 4675SOL    HW215923   9.842  14.715   9.611
 4676SOL     OW15924   7.063   4.166  14.775
 4676SOL    HW115925   6.992   4.132  14.720
 4676SOL    HW215926   7.070   4.258  14.750
 4677SOL     OW15927   8.504   0.167  13.838
 4677SOL    HW115928   8.434   0.202  13.894
 4677SOL    HW215929   8.585   0.195  13.881
 4678SOL     OW15930   2.022   1.130   8.303
 4678SOL    HW115931   1.997   1.096   8.217
 4678SOL    HW215932   2.018   1.054   8.361
 4679SOL     OW15933   5.377   6.832   6.731
 4679SOL    HW115934   5.394   6.909   6.676
 4679SOL    HW215935   5.326   6.867   6.804
 4680SOL     OW15936   6.630  14.532   8.907
 4680SOL    HW115937   6.589  14.526   8.821
 4680SOL    HW215938   6.716  14.571   8.890
 4681SOL     OW15939   5.672  12.487   6.856
 4681SOL    HW115940   5.632  12.452   6.777
 4681SOL    HW215941   5.700  12.575   6.832
 4682SOL     OW15942  11.503   1.932   2.306
 4682SOL    HW115943  11.494   1.873   2.381
 4682SOL    HW215944  11.589   1.910   2.268
 4683SOL     OW15945   4.224  11.022   4.684
 4683SOL    HW115946   4.229  11.031   4.589
 4683SOL    HW215947   4.190  10.933   4.698
 4684SOL     OW15948  13.029   4.297   8.356
 4684SOL    HW115949  13.123   4.286   8.340
 4684SOL    HW215950  12.991   4.212   8.335
 4685SOL     OW15951  11.181  12.923   1.728
 4685SOL    HW115952  11.221  12.896   1.646
 4685SOL    HW215953  11.226  13.005   1.751
 4686SOL     OW15954   6.095   9.421   6.718
 4686SOL    HW115955   6.036   9.478   6.768
 4686SOL    HW215956   6.045   9.393   6.642
 4687SOL     OW15957   7.748   0.241  14.592
 4687SOL    HW115958   7.686   0.244  14.519
 4687SOL    HW215959   7.832   0.266  14.553
 4688SOL     OW15960   1.376  14.717   7.790
 4688SOL    HW115961   1.313  14.727   7.719
 4688SOL    HW215962   1.462  14.722   7.749
 4689SOL     OW15963   7.665  11.731   3.750
 4689SOL    HW115964   7.593  11.792   3.734
 4689SOL    HW215965   7.727  11.748   3.679
 4690SOL     OW15966   4.382  12.693   7.107
 4690SOL    HW115967   4.306  12.654   7.062
 4690SOL    HW215968   4.388  12.645   7.189
 4691SOL     OW15969  10.597   0.528  10.831
 4691SOL    HW115970  10.610   0.479  10.750
 4691SOL    HW215971  10.676   0.580  10.841
 4692SOL     OW15972   9.313   5.733   0.509
 4692SOL    HW115973   9.273   5.796   0.570
 4692SOL    HW215974   9.254   5.657   0.512
 4693SOL     OW15975   6.293   8.293  14.844
 4693SOL    HW115976   6.384   8.311  14.823
 4693SOL    HW215977   6.274   8.349   0.052
 4694SOL     OW15978   5.793   0.068   7.646
 4694SOL    HW115979   5.859   0.132   7.618
 4694SOL    HW215980   5.835  14.851   7.635
 4695SOL     OW15981   1.789  13.127  12.125
 4695SOL    HW115982   1.846  13.194  12.162
 4695SOL    HW215983   1.774  13.155  12.035
 4696SOL     OW15984  11.611   3.507   1.251
 4696SOL    HW115985  11.677   3.471   1.192
 4696SOL    HW215986  11.648   3.590   1.280
 4697SOL     OW15987   9.872   7.092   9.562
 4697SOL    HW115988   9.796   7.143   9.532
 4697SOL    HW215989   9.914   7.062   9.482
 4698SOL     OW15990   5.150  10.638   2.488
 4698SOL    HW115991   5.171  10.580   2.561
 4698SOL    HW215992   5.091  10.587   2.433
 4699SOL     OW15993   4.046  11.236  11.802
 4699SOL    HW115994   4.072  11.328  11.807
 4699SOL    HW215995   4.114  11.189  11.849
 4700SOL     OW15996   3.037   6.232  11.266
 4700SOL    HW115997   3.004   6.219  11.177
 4700SOL    HW215998   3.041   6.327  11.276
 4701SOL     OW15999   3.837   8.883  10.732
 4701SOL    HW116000   3.932   8.896  10.739
 4701SOL    HW216001   3.817   8.818  10.800
 4702SOL     OW16002   3.685  12.489   3.225
 4702SOL    HW116003   3.685  12.468   3.132
 4702SOL    HW216004   3.708  12.407   3.268
 4703SOL     OW16005   1.521   1.265   7.985
 4703SOL    HW116006   1.588   1.202   7.959
 4703SOL    HW216007   1.458   1.264   7.913
 4704SOL     OW16008  11.011  11.040   5.307
 4704SOL    HW116009  11.065  11.085   5.242
 4704SOL    HW216010  11.065  10.968   5.338
 4705SOL     OW16011   7.256   3.819   5.936
 4705SOL    HW116012   7.350   3.834   5.936
 4705SOL    HW216013   7.243   3.750   5.871
 4706SOL     OW16014   8.549   9.060   6.690
 4706SOL    HW116015   8.475   9.097   6.739
 4706SOL    HW216016   8.537   8.965   6.695
 4707SOL     OW16017   2.573   3.692   4.584
 4707SOL    HW116018   2.657   3.685   4.539
 4707SOL    HW216019   2.590   3.660   4.673
 4708SOL     OW16020  12.006   9.590   5.316
 4708SOL    HW116021  11.917   9.608   5.345
 4708SOL    HW216022  12.060   9.612   5.392
 4709SOL     OW16023  11.901   3.418   0.319
 4709SOL    HW116024  11.812   3.435   0.351
 4709SOL    HW216025  11.925   3.498   0.272
 4710SOL     OW16026   4.635   8.585  11.298
 4710SOL    HW116027   4.706   8.644  11.326
 4710SOL    HW216028   4.646   8.578  11.203
 4711SOL     OW16029   9.179   1.138  10.516
 4711SOL    HW116030   9.264   1.098  10.501
 4711SOL    HW216031   9.141   1.087  10.587
 4712SOL     OW16032   2.431   6.761   3.660
 4712SOL    HW116033   2.410   6.671   3.685
 4712SOL    HW216034   2.518   6.757   3.622
 4713SOL     OW16035   3.141  11.262   4.463
 4713SOL    HW116036   3.194  11.188   4.492
 4713SOL    HW216037   3.056  11.224   4.441
 4714SOL     OW16038  12.917   9.787   9.180
 4714SOL    HW116039  12.929   9.707   9.128
 4714SOL    HW216040  12.822   9.793   9.192
 4715SOL     OW16041   1.765   3.462   1.808
 4715SOL    HW116042   1.835   3.501   1.860
 4715SOL    HW216043   1.810   3.427   1.731
 4716SOL     OW16044   1.323   0.736  10.503
 4716SOL    HW116045   1.242   0.685  10.499
 4716SOL    HW216046   1.297   0.820  10.539
 4717SOL     OW16047  12.417   5.668   3.982
 4717SOL    HW116048  12.512   5.675   3.983
 4717SOL    HW216049  12.387   5.728   4.051
 4718SOL     OW16050   9.898  10.284  11.487
 4718SOL    HW116051   9.993  10.281  11.491
 4718SOL    HW216052   9.878  10.370  11.451
 4719SOL     OW16053   1.443   7.038  12.433
 4719SOL    HW116054   1.422   7.056  12.524
 4719SOL    HW216055   1.532   7.072  12.421
 4720SOL     OW16056   6.055  11.664   7.789
 4720SOL    HW116057   6.131  11.707   7.829
 4720SOL    HW216058   6.076  11.570   7.792
 4721SOL     OW16059   8.074   6.432  11.626
 4721SOL    HW116060   8.079   6.502  11.562
 4721SOL    HW216061   7.988   6.392  11.611
 4722SOL     OW16062  12.989  12.752   4.524
 4722SOL    HW116063  13.057  12.804   4.481
 4722SOL    HW216064  13.033  12.669   4.544
 4723SOL     OW16065  10.687   6.653   1.497
 4723SOL    HW116066  10.678   6.744   1.523
 4723SOL    HW216067  10.632   6.644   1.420
 4724SOL     OW16068   0.441   5.304   8.678
 4724SOL    HW116069   0.362   5.318   8.731
 4724SOL    HW216070   0.491   5.386   8.688
 4725SOL     OW16071   6.264  13.151  13.864
 4725SOL    HW116072   6.229  13.129  13.950
 4725SOL    HW216073   6.359  13.151  13.875
 4726SOL     OW16074   5.407   8.624   6.101
 4726SOL    HW116075   5.399   8.648   6.193
 4726SOL    HW216076   5.350   8.686   6.055
 4727SOL     OW16077   3.260   2.876  11.593
 4727SOL    HW116078   3.289   2.796  11.550
 4727SOL    HW216079   3.170   2.858  11.619
 4728SOL     OW16080   8.447   4.862  11.801
 4728SOL    HW116081   8.352   4.873  11.802
 4728SOL    HW216082   8.478   4.932  11.743
 4729SOL     OW16083   6.235  10.450   3.220
 4729SOL    HW116084   6.174  10.376   3.228
 4729SOL    HW216085   6.214  10.506   3.295
 4730SOL     OW16086   9.184  10.112   1.423
 4730SOL    HW116087   9.121  10.057   1.470
 4730SOL    HW216088   9.270  10.078   1.449
 4731SOL     OW16089   7.602   3.099   1.793
 4731SOL    HW116090   7.533   3.134   1.738
 4731SOL    HW216091   7.574   3.119   1.883
 4732SOL     OW16092   4.556   4.238   2.891
 4732SOL    HW116093   4.525   4.161   2.845
 4732SOL    HW216094   4.623   4.275   2.833
 4733SOL     OW16095   3.460   2.443  13.926
 4733SOL    HW116096   3.504   2.409  13.848
 4733SOL    HW216097   3.413   2.368  13.962
 4734SOL     OW16098   5.132  14.636   6.236
 4734SOL    HW116099   5.042  14.667   6.224
 4734SOL    HW216100   5.175  14.656   6.152
 4735SOL     OW16101   5.556   7.751   2.084
 4735SOL    HW116102   5.530   7.703   2.162
 4735SOL    HW216103   5.519   7.701   2.011
 4736SOL     OW16104  10.815   6.813   9.304
 4736SOL    HW116105  10.728   6.798   9.267
 4736SOL    HW216106  10.840   6.900   9.273
 4737SOL     OW16107   6.322  11.361   3.810
 4737SOL    HW116108   6.281  11.287   3.767
 4737SOL    HW216109   6.416  11.342   3.808
 4738SOL     OW16110   2.069   1.394   5.751
 4738SOL    HW116111   2.069   1.310   5.796
 4738SOL    HW216112   2.000   1.444   5.795
 4739SOL     OW16113  13.642  13.048   5.086
 4739SOL    HW116114  13.662  12.994   5.162
 4739SOL    HW216115  13.698  13.014   5.017
 4740SOL     OW16116   7.569   6.578   1.937
 4740SOL    HW116117   7.500   6.614   1.881
 4740SOL    HW216118   7.642   6.640   1.928
 4741SOL     OW16119  11.727  14.482  10.758
 4741SOL    HW116120  11.729  14.491  10.853
 4741SOL    HW216121  11.796  14.540  10.727
 4742SOL     OW16122   3.700  10.926  14.105
 4742SOL    HW116123   3.630  10.863  14.121
 4742SOL    HW216124   3.655  11.008  14.085
 4743SOL     OW16125  12.449   0.211   6.191
 4743SOL    HW116126  12.457   0.135   6.248
 4743SOL    HW216127  12.453   0.286   6.251
 4744SOL     OW16128   8.681   2.812  13.047
 4744SOL    HW116129   8.594   2.843  13.025
 4744SOL    HW216130   8.727   2.806  12.963
 4745SOL     OW16131   0.778   8.775  14.348
 4745SOL    HW116132   0.720   8.751  14.276
 4745SOL    HW216133   0.725   8.831  14.404
 4746SOL     OW16134  11.081   1.984   9.691
 4746SOL    HW116135  10.991   1.950   9.693
 4746SOL    HW216136  11.087   2.041   9.767
 4747SOL     OW16137   7.076  12.229  10.907
 4747SOL    HW116138   7.134  12.234  10.831
 4747SOL    HW216139   7.057  12.321  10.928
 4748SOL     OW16140   4.960   4.909  11.540
 4748SOL    HW116141   4.928   4.819  11.532
 4748SOL    HW216142   4.934   4.952  11.458
 4749SOL     OW16143   9.607  13.466   6.178
 4749SOL    HW116144   9.602  13.445   6.085
 4749SOL    HW216145   9.547  13.540   6.189
 4750SOL     OW16146   0.180   0.031  12.719
 4750SOL    HW116147   0.152   0.121  12.709
 4750SOL    HW216148   0.228   0.012  12.638
 4751SOL     OW16149   7.382   1.223  10.334
 4751SOL    HW116150   7.423   1.241  10.249
 4751SOL    HW216151   7.309   1.165  10.314
 4752SOL     OW16152   2.543   3.379   5.777
 4752SOL    HW116153   2.594   3.428   5.842
 4752SOL    HW216154   2.465   3.349   5.824
 4753SOL     OW16155   0.974   9.805   0.594
 4753SOL    HW116156   0.969   9.901   0.590
 4753SOL    HW216157   1.055   9.784   0.547
 4754SOL     OW16158   7.321   4.614   1.990
 4754SOL    HW116159   7.324   4.539   1.931
 4754SOL    HW216160   7.300   4.576   2.075
 4755SOL     OW16161   9.852   2.424   2.812
 4755SOL    HW116162   9.840   2.449   2.720
 4755SOL    HW216163   9.911   2.348   2.809
 4756SOL     OW16164   6.206   6.575  14.126
 4756SOL    HW116165   6.189   6.588  14.219
 4756SOL    HW216166   6.224   6.481  14.118
 4757SOL     OW16167   9.203  14.526   4.384
 4757SOL    HW116168   9.196  14.490   4.296
 4757SOL    HW216169   9.296  14.542   4.396
 4758SOL     OW16170   1.540   0.130  12.783
 4758SOL    HW116171   1.611   0.136  12.719
 4758SOL    HW216172   1.461   0.153  12.735
 4759SOL     OW16173   4.980   1.539  11.424
 4759SOL    HW116174   4.961   1.488  11.346
 4759SOL    HW216175   4.966   1.630  11.398
 4760SOL     OW16176  14.377   0.907   5.486
 4760SOL    HW116177  14.328   0.830   5.456
 4760SOL    HW216178  14.313   0.960   5.533
 4761SOL     OW16179   2.051   8.098  12.017
 4761SOL    HW116180   2.082   8.076  12.105
 4761SOL    HW216181   1.968   8.050  12.009
 4762SOL     OW16182  10.479   9.569   4.110
 4762SOL    HW116183  10.415   9.512   4.153
 4762SOL    HW216184  10.497   9.526   4.026
 4763SOL     OW16185   4.311   3.683   3.339
 4763SOL    HW116186   4.241   3.706   3.277
 4763SOL    HW216187   4.364   3.762   3.346
 4764SOL     OW16188   9.093   9.985   2.731
 4764SOL    HW116189   9.111  10.029   2.814
 4764SOL    HW216190   9.177   9.980   2.687
 4765SOL     OW16191   3.197  10.211   2.573
 4765SOL    HW116192   3.143  10.138   2.602
 4765SOL    HW216193   3.270  10.212   2.635
 4766SOL     OW16194   7.846  11.447   3.626
 4766SOL    HW116195   7.755  11.416   3.618
 4766SOL    HW216196   7.869  11.428   3.717
 4767SOL     OW16197  10.838   8.682   5.935
 4767SOL    HW116198  10.886   8.727   6.005
 4767SOL    HW216199  10.750   8.720   5.938
 4768SOL     OW16200   4.974  10.859   0.807
 4768SOL    HW116201   5.018  10.905   0.879
 4768SOL    HW216202   5.036  10.792   0.779
 4769SOL     OW16203   2.906   5.198   8.087
 4769SOL    HW116204   2.881   5.126   8.030
 4769SOL    HW216205   2.972   5.246   8.037
 4770SOL     OW16206   0.903   1.470   1.704
 4770SOL    HW116207   0.866   1.539   1.760
 4770SOL    HW216208   0.908   1.509   1.617
 4771SOL     OW16209  13.522  14.601   6.803
 4771SOL    HW116210  13.615  14.580   6.807
 4771SOL    HW216211  13.511  14.674   6.863
 4772SOL     OW16212   1.813   4.764   9.753
 4772SOL    HW116213   1.815   4.763   9.849
 4772SOL    HW216214   1.746   4.828   9.731
 4773SOL     OW16215   4.091  10.407  13.080
 4773SOL    HW116216   4.146  10.330  13.099
 4773SOL    HW216217   4.134  10.448  13.004
 4774SOL     OW16218  13.230   7.416  11.889
 4774SOL    HW116219  13.225   7.422  11.793
 4774SOL    HW216220  13.210   7.325  11.909
 4775SOL     OW16221   1.867   0.929   4.652
 4775SOL    HW116222   1.902   1.011   4.687
 4775SOL    HW216223   1.939   0.892   4.601
 4776SOL     OW16224  13.585   7.694   7.690
 4776SOL    HW116225  13.588   7.789   7.701
 4776SOL    HW216226  13.492   7.673   7.682
 4777SOL     OW16227   8.478  11.959   3.808
 4777SOL    HW116228   8.501  12.017   3.881
 4777SOL    HW216229   8.484  11.871   3.844
 4778SOL     OW16230   2.919   0.027  13.445
 4778SOL    HW116231   2.842   0.019  13.388
 4778SOL    HW216232   2.983   0.074  13.392
 4779SOL     OW16233   0.452   7.700   6.013
 4779SOL    HW116234   0.385   7.707   5.945
 4779SOL    HW216235   0.514   7.770   5.992
 4780SOL     OW16236   9.802   1.419  10.491
 4780SOL    HW116237   9.818   1.498  10.441
 4780SOL    HW216238   9.728   1.441  10.548
 4781SOL     OW16239   5.719   4.090   9.509
 4781SOL    HW116240   5.668   4.158   9.465
 4781SOL    HW216241   5.737   4.025   9.441
 4782SOL     OW16242  10.589  14.100   7.597
 4782SOL    HW116243  10.610  14.103   7.503
 4782SOL    HW216244  10.568  14.008   7.613
 4783SOL     OW16245  11.477   7.733   2.390
 4783SOL    HW116246  11.429   7.653   2.414
 4783SOL    HW216247  11.500   7.773   2.473
 4784SOL     OW16248  10.323   7.212   5.035
 4784SOL    HW116249  10.399   7.159   5.061
 4784SOL    HW216250  10.350   7.302   5.051
 4785SOL     OW16251  13.285   1.337   2.035
 4785SOL    HW116252  13.206   1.391   2.033
 4785SOL    HW216253  13.340   1.377   2.102
 4786SOL     OW16254   8.309   6.446  12.929
 4786SOL    HW116255   8.225   6.404  12.911
 4786SOL    HW216256   8.285   6.536  12.954
 4787SOL     OW16257   2.963   6.819   4.330
 4787SOL    HW116258   2.910   6.899   4.333
 4787SOL    HW216259   2.939   6.777   4.248
 4788SOL     OW16260   7.886   0.112   0.824
 4788SOL    HW116261   7.960   0.055   0.801
 4788SOL    HW216262   7.904   0.142   0.913
 4789SOL     OW16263  13.932  13.177   2.562
 4789SOL    HW116264  13.895  13.094   2.592
 4789SOL    HW216265  13.945  13.165   2.468
 4790SOL     OW16266   8.775   3.190   8.468
 4790SOL    HW116267   8.844   3.127   8.491
 4790SOL    HW216268   8.818   3.275   8.472
 4791SOL     OW16269   8.300  11.077   8.138
 4791SOL    HW116270   8.226  11.136   8.152
 4791SOL    HW216271   8.284  11.036   8.054
 4792SOL     OW16272  12.156   3.168   1.930
 4792SOL    HW116273  12.066   3.198   1.915
 4792SOL    HW216274  12.150   3.113   2.008
 4793SOL     OW16275   1.958   5.310   9.172
 4793SOL    HW116276   1.974   5.404   9.169
 4793SOL    HW216277   2.040   5.270   9.144
 4794SOL     OW16278   6.050  11.977   9.869
 4794SOL    HW116279   6.092  11.892   9.855
 4794SOL    HW216280   6.081  12.031   9.796
 4795SOL     OW16281  13.312  12.833   0.750
 4795SOL    HW116282  13.325  12.924   0.777
 4795SOL    HW216283  13.393  12.789   0.774
 4796SOL     OW16284   1.747   7.742   7.607
 4796SOL    HW116285   1.665   7.711   7.646
 4796SOL    HW216286   1.792   7.787   7.679
 4797SOL     OW16287   3.903   7.926   5.470
 4797SOL    HW116288   3.883   8.019   5.480
 4797SOL    HW216289   3.818   7.885   5.454
 4798SOL     OW16290  10.204   6.179   6.399
 4798SOL    HW116291  10.256   6.129   6.462
 4798SOL    HW216292  10.261   6.250   6.372
 4799SOL     OW16293  11.626  14.435   0.043
 4799SOL    HW116294  11.669  14.463   0.124
 4799SOL    HW216295  11.575  14.511   0.015
 4800SOL     OW16296   9.024   6.108  11.711
 4800SOL    HW116297   8.935   6.073  11.703
 4800SOL    HW216298   9.012   6.195  11.750
 4801SOL     OW16299  12.814   0.505   7.577
 4801SOL    HW116300  12.778   0.482   7.662
 4801SOL    HW216301  12.907   0.484   7.583
 4802SOL     OW16302  10.686   5.737  10.462
 4802SOL    HW116303  10.657   5.650  10.491
 4802SOL    HW216304  10.657   5.796  10.531
 4803SOL     OW16305   5.955   3.300  12.588
 4803SOL    HW116306   6.039   3.317  12.545
 4803SOL    HW216307   5.920   3.387  12.608
 4804SOL     OW16308  14.485   4.246   5.934
 4804SOL    HW116309  14.473   4.264   6.027
 4804SOL    HW216310  14.547   4.312   5.904
 4805SOL     OW16311  12.761   2.018   1.307
 4805SOL    HW116312  12.687   1.999   1.249
 4805SOL    HW216313  12.723   2.070   1.378
 4806SOL     OW16314   2.868  11.671   8.469
 4806SOL    HW116315   2.956  11.708   8.464
 4806SOL    HW216316   2.872  11.591   8.418
 4807SOL     OW16317   6.824   9.841   5.680
 4807SOL    HW116318   6.915   9.867   5.696
 4807SOL    HW216319   6.776   9.876   5.755
 4808SOL     OW16320   1.052  11.670   0.779
 4808SOL    HW116321   1.130  11.714   0.744
 4808SOL    HW216322   1.071  11.659   0.872
 4809SOL     OW16323  10.154  14.517   7.702
 4809SOL    HW116324  10.177  14.444   7.759
 4809SOL    HW216325  10.167  14.483   7.613
 4810SOL     OW16326   2.370   8.071  11.023
 4810SOL    HW116327   2.303   8.133  10.994
 4810SOL    HW216328   2.353   8.060  11.116
 4811SOL     OW16329  12.921  11.813  11.880
 4811SOL    HW116330  12.908  11.718  11.885
 4811SOL    HW216331  12.981  11.833  11.951
 4812SOL     OW16332   6.311   5.874   4.626
 4812SOL    HW116333   6.237   5.921   4.588
 4812SOL    HW216334   6.270   5.809   4.685
 4813SOL     OW16335   7.141   0.538   7.589
 4813SOL    HW116336   7.081   0.584   7.530
 4813SOL    HW216337   7.199   0.489   7.531
 4814SOL     OW16338   2.439   2.038   7.624
 4814SOL    HW116339   2.494   1.960   7.616
 4814SOL    HW216340   2.444   2.061   7.717
 4815SOL     OW16341   3.272   0.657  11.911
 4815SOL    HW116342   3.315   0.660  11.826
 4815SOL    HW216343   3.252   0.564  11.924
 4816SOL     OW16344  12.754   3.417  13.766
 4816SOL    HW116345  12.792   3.330  13.753
 4816SOL    HW216346  12.783   3.444  13.853
 4817SOL     OW16347   6.474   9.566  11.574
 4817SOL    HW116348   6.456   9.504  11.503
 4817SOL    HW216349   6.431   9.528  11.651
 4818SOL     OW16350  11.621   1.904   2.954
 4818SOL    HW116351  11.638   1.889   3.047
 4818SOL    HW216352  11.526   1.896   2.945
 4819SOL     OW16353  11.340   8.281   5.742
 4819SOL    HW116354  11.319   8.190   5.762
 4819SOL    HW216355  11.435   8.285   5.745
 4820SOL     OW16356   5.897   0.193   6.402
 4820SOL    HW116357   5.844   0.147   6.337
 4820SOL    HW216358   5.984   0.199   6.363
 4821SOL     OW16359  10.022  14.316   5.937
 4821SOL    HW116360  10.060  14.398   5.906
 4821SOL    HW216361   9.985  14.337   6.023
 4822SOL     OW16362   4.312  13.081   1.767
 4822SOL    HW116363   4.245  13.096   1.700
 4822SOL    HW216364   4.263  13.080   1.849
 4823SOL     OW16365  13.243   7.249   1.770
 4823SOL    HW116366  13.192   7.227   1.692
 4823SOL    HW216367  13.323   7.197   1.762
 4824SOL     OW16368   4.178   8.257   5.820
 4824SOL    HW116369   4.095   8.261   5.772
 4824SOL    HW216370   4.237   8.208   5.762
 4825SOL     OW16371  11.205  10.824   4.202
 4825SOL    HW116372  11.219  10.906   4.251
 4825SOL    HW216373  11.284  10.773   4.219
 4826SOL     OW16374   4.228  12.957  10.497
 4826SOL    HW116375   4.223  12.908  10.415
 4826SOL    HW216376   4.137  12.976  10.520
 4827SOL     OW16377   9.770  13.276   1.857
 4827SOL    HW116378   9.802  13.357   1.896
 4827SOL    HW216379   9.763  13.296   1.763
 4828SOL     OW16380  11.413   3.000   6.530
 4828SOL    HW116381  11.339   2.940   6.532
 4828SOL    HW216382  11.490   2.943   6.526
 4829SOL     OW16383   1.439  14.312   8.149
 4829SOL    HW116384   1.380  14.379   8.115
 4829SOL    HW216385   1.408  14.295   8.238
 4830SOL     OW16386   8.972   3.358  10.453
 4830SOL    HW116387   8.995   3.414  10.379
 4830SOL    HW216388   8.891   3.314  10.426
 4831SOL     OW16389   4.561   2.277   3.494
 4831SOL    HW116390   4.490   2.279   3.429
 4831SOL    HW216391   4.640   2.261   3.442
 4832SOL     OW16392   2.753   7.753   9.551
 4832SOL    HW116393   2.765   7.761   9.456
 4832SOL    HW216394   2.685   7.816   9.572
 4833SOL     OW16395   5.425   0.188   9.172
 4833SOL    HW116396   5.462   0.101   9.189
 4833SOL    HW216397   5.502   0.244   9.161
 4834SOL     OW16398  11.465   9.346   8.779
 4834SOL    HW116399  11.530   9.416   8.789
 4834SOL    HW216400  11.510   9.267   8.806
 4835SOL     OW16401  11.669  10.666   8.540
 4835SOL    HW116402  11.642  10.750   8.503
 4835SOL    HW216403  11.723  10.626   8.471
 4836SOL     OW16404   1.658   4.588   1.918
 4836SOL    HW116405   1.564   4.595   1.934
 4836SOL    HW216406   1.678   4.495   1.929
 4837SOL     OW16407   7.843  14.203  13.033
 4837SOL    HW116408   7.818  14.175  13.121
 4837SOL    HW216409   7.805  14.290  13.024
 4838SOL     OW16410   1.903  13.085  11.525
 4838SOL    HW116411   1.829  13.130  11.566
 4838SOL    HW216412   1.894  12.994  11.552
 4839SOL     OW16413   1.825  12.954  14.354
 4839SOL    HW116414   1.778  12.882  14.313
 4839SOL    HW216415   1.884  12.987  14.286
 4840SOL     OW16416   9.269   2.706  13.798
 4840SOL    HW116417   9.201   2.720  13.732
 4840SOL    HW216418   9.306   2.793  13.814
 4841SOL     OW16419  10.087  13.037  10.476
 4841SOL    HW116420  10.094  13.044  10.380
 4841SOL    HW216421  10.130  13.116  10.508
 4842SOL     OW16422   0.214   8.901   6.616
 4842SOL    HW116423   0.280   8.834   6.631
 4842SOL    HW216424   0.256   8.983   6.641
 4843SOL     OW16425   2.550  10.723   2.950
 4843SOL    HW116426   2.507  10.808   2.960
 4843SOL    HW216427   2.617  10.723   3.018
 4844SOL     OW16428  13.642   6.387  13.992
 4844SOL    HW116429  13.690   6.431  13.921
 4844SOL    HW216430  13.666   6.295  13.983
 4845SOL     OW16431  14.484  12.262  13.701
 4845SOL    HW116432  14.409  12.316  13.676
 4845SOL    HW216433  14.558  12.301  13.653
 4846SOL     OW16434   4.487  14.044  13.444
 4846SOL    HW116435   4.398  14.010  13.453
 4846SOL    HW216436   4.527  14.032  13.530
 4847SOL     OW16437   7.656  12.024  14.811
 4847SOL    HW116438   7.594  11.984  14.749
 4847SOL    HW216439   7.741  12.019  14.766
 4848SOL     OW16440   8.670   0.041  14.124
 4848SOL    HW116441   8.632   0.127  14.146
 4848SOL    HW216442   8.595  14.857  14.095
 4849SOL     OW16443  12.734  13.527   1.871
 4849SOL    HW116444  12.799  13.482   1.924
 4849SOL    HW216445  12.733  13.480   1.788
 4850SOL     OW16446   6.324  14.450   8.555
 4850SOL    HW116447   6.311  14.356   8.540
 4850SOL    HW216448   6.237  14.482   8.580
 4851SOL     OW16449   8.763   1.097  12.529
 4851SOL    HW116450   8.835   1.085  12.591
 4851SOL    HW216451   8.741   1.190  12.535
 4852SOL     OW16452  10.266  13.095   2.320
 4852SOL    HW116453  10.324  13.168   2.341
 4852SOL    HW216454  10.241  13.058   2.404
 4853SOL     OW16455   9.011  10.942   4.184
 4853SOL    HW116456   9.005  11.036   4.200
 4853SOL    HW216457   9.095  10.931   4.140
 4854SOL     OW16458   3.357   9.231   8.243
 4854SOL    HW116459   3.321   9.239   8.155
 4854SOL    HW216460   3.417   9.306   8.252
 4855SOL     OW16461  14.457   2.115  13.768
 4855SOL    HW116462  14.479   2.039  13.822
 4855SOL    HW216463  14.398   2.167  13.823
 4856SOL     OW16464   4.062  13.795   7.062
 4856SOL    HW116465   4.052  13.792   6.967
 4856SOL    HW216466   4.051  13.887   7.085
 4857SOL     OW16467   1.881  10.395   0.017
 4857SOL    HW116468   1.892  10.424   0.108
 4857SOL    HW216469   1.934  10.316   0.011
 4858SOL     OW16470   9.774   7.621   7.369
 4858SOL    HW116471   9.749   7.614   7.461
 4858SOL    HW216472   9.754   7.534   7.333
 4859SOL     OW16473   7.913   8.927   9.891
 4859SOL    HW116474   7.994   8.977   9.891
 4859SOL    HW216475   7.927   8.860   9.958
 4860SOL     OW16476   4.567   4.702   3.421
 4860SOL    HW116477   4.650   4.743   3.397
 4860SOL    HW216478   4.505   4.775   3.426
 4861SOL     OW16479   6.972   6.451  13.259
 4861SOL    HW116480   7.029   6.501  13.201
 4861SOL    HW216481   6.921   6.517  13.306
 4862SOL     OW16482   8.786   1.380   6.094
 4862SOL    HW116483   8.697   1.391   6.127
 4862SOL    HW216484   8.825   1.467   6.099
 4863SOL     OW16485   8.139   7.607   0.706
 4863SOL    HW116486   8.189   7.527   0.721
 4863SOL    HW216487   8.054   7.577   0.675
 4864SOL     OW16488   5.248   4.149  12.637
 4864SOL    HW116489   5.233   4.085  12.568
 4864SOL    HW216490   5.274   4.229  12.591
 4865SOL     OW16491  12.432   2.269   0.923
 4865SOL    HW116492  12.521   2.304   0.917
 4865SOL    HW216493  12.440   2.178   0.897
 4866SOL     OW16494  13.837  13.422   0.080
 4866SOL    HW116495  13.763  13.365   0.102
 4866SOL    HW216496  13.914  13.374   0.110
 4867SOL     OW16497  14.579   1.881   1.879
 4867SOL    HW116498  14.506   1.925   1.923
 4867SOL    HW216499  14.536   1.815   1.824
 4868SOL     OW16500  13.438   8.001  10.661
 4868SOL    HW116501  13.375   8.060  10.701
 4868SOL    HW216502  13.521   8.020  10.705
 4869SOL     OW16503   0.368  13.843   6.822
 4869SOL    HW116504   0.453  13.827   6.863
 4869SOL    HW216505   0.306  13.845   6.896
 4870SOL     OW16506  12.556  11.236  13.495
 4870SOL    HW116507  12.522  11.278  13.416
 4870SOL    HW216508  12.649  11.222  13.476
 4871SOL     OW16509   9.754   9.077  14.314
 4871SOL    HW116510   9.669   9.037  14.297
 4871SOL    HW216511   9.767   9.067  14.408
 4872SOL     OW16512  13.838   1.489   8.600
 4872SOL    HW116513  13.838   1.410   8.655
 4872SOL    HW216514  13.923   1.487   8.556
 4873SOL     OW16515  10.344   2.118  14.511
 4873SOL    HW116516  10.375   2.208  14.510
 4873SOL    HW216517  10.260   2.121  14.466
 4874SOL     OW16518  10.701   8.053   2.832
 4874SOL    HW116519  10.762   8.083   2.899
 4874SOL    HW216520  10.717   7.958   2.826
 4875SOL     OW16521   9.932   9.877  12.353
 4875SOL    HW116522   9.892   9.808  12.407
 4875SOL    HW216523   9.882   9.956  12.376
 4876SOL     OW16524   4.584  14.141   9.701
 4876SOL    HW116525   4.615  14.050   9.702
 4876SOL    HW216526   4.500  14.137   9.656
 4877SOL     OW16527  10.141  10.468   3.983
 4877SOL    HW116528  10.225  10.504   4.011
 4877SOL    HW216529  10.151  10.373   3.992
 4878SOL     OW16530   3.285   3.085   7.789
 4878SOL    HW116531   3.205   3.129   7.817
 4878SOL    HW216532   3.315   3.037   7.866
 4879SOL     OW16533   0.335   0.699   0.379
 4879SOL    HW116534   0.380   0.683   0.462
 4879SOL    HW216535   0.298   0.614   0.356
 4880SOL     OW16536  12.179   9.542   2.906
 4880SOL    HW116537  12.260   9.510   2.865
 4880SOL    HW216538  12.190   9.636   2.912
 4881SOL     OW16539  14.551   3.610   6.420
 4881SOL    HW116540  14.612   3.538   6.405
 4881SOL    HW216541  14.465   3.569   6.423
 4882SOL     OW16542   9.659   9.969  11.694
 4882SOL    HW116543   9.675  10.060  11.719
 4882SOL    HW216544   9.598   9.974  11.620
 4883SOL     OW16545   8.316   4.592   9.002
 4883SOL    HW116546   8.362   4.652   9.061
 4883SOL    HW216547   8.344   4.617   8.915
 4884SOL     OW16548   1.631   5.647   5.312
 4884SOL    HW116549   1.644   5.717   5.375
 4884SOL    HW216550   1.693   5.667   5.241
 4885SOL     OW16551   7.927   5.474   6.716
 4885SOL    HW116552   7.864   5.450   6.783
 4885SOL    HW216553   7.932   5.397   6.659
 4886SOL     OW16554   0.142   7.009   7.213
 4886SOL    HW116555   0.176   6.938   7.159
 4886SOL    HW216556   0.076   7.052   7.159
 4887SOL     OW16557   4.725  14.235   9.435
 4887SOL    HW116558   4.792  14.235   9.503
 4887SOL    HW216559   4.655  14.180   9.471
 4888SOL     OW16560   1.145   5.032  10.139
 4888SOL    HW116561   1.137   5.011  10.232
 4888SOL    HW216562   1.217   4.976  10.108
 4889SOL     OW16563  14.190   6.831  14.010
 4889SOL    HW116564  14.098   6.856  14.012
 4889SOL    HW216565  14.225   6.855  14.096
 4890SOL     OW16566   1.204  13.799   3.845
 4890SOL    HW116567   1.157  13.745   3.781
 4890SOL    HW216568   1.135  13.849   3.889
 4891SOL     OW16569   5.317   4.209   7.123
 4891SOL    HW116570   5.309   4.296   7.162
 4891SOL    HW216571   5.394   4.216   7.067
 4892SOL     OW16572  14.806   0.035   6.897
 4892SOL    HW116573  14.784   0.126   6.917
 4892SOL    HW216574  14.775   0.021   6.808
 4893SOL     OW16575   1.934   9.121   7.361
 4893SOL    HW116576   1.879   9.144   7.435
 4893SOL    HW216577   1.886   9.152   7.284
 4894SOL     OW16578   8.458  12.782  12.958
 4894SOL    HW116579   8.369  12.807  12.933
 4894SOL    HW216580   8.462  12.799  13.052
 4895SOL     OW16581   7.219   1.246  13.374
 4895SOL    HW116582   7.187   1.300  13.301
 4895SOL    HW216583   7.303   1.213  13.344
 4896SOL     OW16584  10.450  14.301   0.921
 4896SOL    HW116585  10.543  14.280   0.923
 4896SOL    HW216586  10.429  14.307   0.828
 4897SOL     OW16587  14.578  10.052   9.848
 4897SOL    HW116588  14.520  10.002   9.906
 4897SOL    HW216589  14.636  10.099   9.908
 4898SOL     OW16590  14.358   9.625   7.858
 4898SOL    HW116591  14.352   9.559   7.927
 4898SOL    HW216592  14.439   9.604   7.811
 4899SOL     OW16593  10.424  12.605  11.912
 4899SOL    HW116594  10.341  12.638  11.946
 4899SOL    HW216595  10.424  12.512  11.936
 4900SOL     OW16596  12.452  13.437   8.632
 4900SOL    HW116597  12.454  13.457   8.538
 4900SOL    HW216598  12.542  13.413   8.653
 4901SOL     OW16599   2.927  10.490   3.376
 4901SOL    HW116600   2.991  10.459   3.439
 4901SOL    HW216601   2.842  10.464   3.412
 4902SOL     OW16602  13.517   6.032  12.372
 4902SOL    HW116603  13.540   6.109  12.424
 4902SOL    HW216604  13.486   5.968  12.436
 4903SOL     OW16605   2.501   7.662  14.433
 4903SOL    HW116606   2.439   7.676  14.504
 4903SOL    HW216607   2.580   7.708  14.461
 4904SOL     OW16608   8.136  13.801   8.033
 4904SOL    HW116609   8.066  13.859   8.061
 4904SOL    HW216610   8.166  13.759   8.114
 4905SOL     OW16611   9.744  13.372   3.636
 4905SOL    HW116612   9.714  13.349   3.548
 4905SOL    HW216613   9.726  13.465   3.644
 4906SOL     OW16614   5.232  14.171  12.028
 4906SOL    HW116615   5.191  14.143  12.109
 4906SOL    HW216616   5.326  14.160  12.042
 4907SOL     OW16617   9.980   3.012  11.329
 4907SOL    HW116618   9.959   2.922  11.303
 4907SOL    HW216619   9.895   3.052  11.346
 4908SOL     OW16620  10.063   7.341   4.158
 4908SOL    HW116621  10.110   7.357   4.076
 4908SOL    HW216622   9.987   7.399   4.154
 4909SOL     OW16623   9.397  12.151   0.382
 4909SOL    HW116624   9.322  12.196   0.343
 4909SOL    HW216625   9.408  12.072   0.329
 4910SOL     OW16626  11.421  13.000  12.794
 4910SOL    HW116627  11.371  12.971  12.717
 4910SOL    HW216628  11.491  13.055  12.758
 4911SOL     OW16629  13.483   3.955   1.351
 4911SOL    HW116630  13.544   3.943   1.278
 4911SOL    HW216631  13.411   3.895   1.332
 4912SOL     OW16632   8.359   5.829   8.849
 4912SOL    HW116633   8.370   5.764   8.780
 4912SOL    HW216634   8.296   5.789   8.909
 4913SOL     OW16635   5.339   9.847   2.364
 4913SOL    HW116636   5.289   9.922   2.331
 4913SOL    HW216637   5.396   9.884   2.432
 4914SOL     OW16638   5.780   8.143  11.163
 4914SOL    HW116639   5.792   8.050  11.145
 4914SOL    HW216640   5.811   8.155  11.253
 4915SOL     OW16641   5.444   9.431  10.853
 4915SOL    HW116642   5.446   9.476  10.768
 4915SOL    HW216643   5.533   9.400  10.865
 4916SOL     OW16644   5.288   0.171   7.423
 4916SOL    HW116645   5.375   0.156   7.459
 4916SOL    HW216646   5.278   0.105   7.355
 4917SOL     OW16647   7.104   2.419   1.963
 4917SOL    HW116648   7.035   2.388   1.904
 4917SOL    HW216649   7.126   2.342   2.016
 4918SOL     OW16650   2.479   6.512   3.806
 4918SOL    HW116651   2.510   6.496   3.896
 4918SOL    HW216652   2.385   6.495   3.810
 4919SOL     OW16653  13.129   4.128   2.392
 4919SOL    HW116654  13.190   4.077   2.339
 4919SOL    HW216655  13.060   4.154   2.330
 4920SOL     OW16656  14.127   2.586   9.882
 4920SOL    HW116657  14.064   2.642   9.926
 4920SOL    HW216658  14.111   2.601   9.788
 4921SOL     OW16659  12.889   4.179   2.215
 4921SOL    HW116660  12.857   4.266   2.238
 4921SOL    HW216661  12.836   4.119   2.268
 4922SOL     OW16662   9.860  12.637  13.013
 4922SOL    HW116663   9.834  12.572  13.079
 4922SOL    HW216664   9.806  12.617  12.937
 4923SOL     OW16665   2.096   3.846   7.860
 4923SOL    HW116666   2.072   3.767   7.909
 4923SOL    HW216667   2.077   3.918   7.920
 4924SOL     OW16668  12.184   9.145   5.805
 4924SOL    HW116669  12.119   9.075   5.807
 4924SOL    HW216670  12.177   9.182   5.717
 4925SOL     OW16671  10.453   2.660   5.027
 4925SOL    HW116672  10.462   2.749   5.060
 4925SOL    HW216673  10.535   2.643   4.981
 4926SOL     OW16674   5.104   3.437   3.745
 4926SOL    HW116675   5.188   3.435   3.791
 4926SOL    HW216676   5.071   3.347   3.750
 4927SOL     OW16677   2.467   5.043   5.266
 4927SOL    HW116678   2.524   4.971   5.292
 4927SOL    HW216679   2.397   5.043   5.331
 4928SOL     OW16680  10.062   7.734   2.243
 4928SOL    HW116681  10.059   7.733   2.339
 4928SOL    HW216682  10.063   7.827   2.221
 4929SOL     OW16683   7.538  13.460   5.325
 4929SOL    HW116684   7.612  13.509   5.361
 4929SOL    HW216685   7.462  13.514   5.343
 4930SOL     OW16686   7.771  13.607   0.587
 4930SOL    HW116687   7.730  13.669   0.526
 4930SOL    HW216688   7.857  13.644   0.604
 4931SOL     OW16689  12.358  11.596   4.349
 4931SOL    HW116690  12.431  11.583   4.288
 4931SOL    HW216691  12.280  11.599   4.293
 4932SOL     OW16692   6.438   8.727  12.595
 4932SOL    HW116693   6.394   8.674  12.662
 4932SOL    HW216694   6.517   8.677  12.574
 4933SOL     OW16695   1.673   1.814  10.384
 4933SOL    HW116696   1.728   1.874  10.334
 4933SOL    HW216697   1.691   1.835  10.476
 4934SOL     OW16698  13.376   2.839   8.243
 4934SOL    HW116699  13.438   2.898   8.200
 4934SOL    HW216700  13.418   2.814   8.325
 4935SOL     OW16701   8.346  11.905   9.498
 4935SOL    HW116702   8.306  11.991   9.506
 4935SOL    HW216703   8.433  11.921   9.463
 4936SOL     OW16704   7.554  13.087   0.473
 4936SOL    HW116705   7.532  13.136   0.552
 4936SOL    HW216706   7.618  13.143   0.428
 4937SOL     OW16707   0.765   4.220   2.331
 4937SOL    HW116708   0.831   4.241   2.266
 4937SOL    HW216709   0.784   4.278   2.405
 4938SOL     OW16710   2.208   6.993   6.600
 4938SOL    HW116711   2.235   7.040   6.679
 4938SOL    HW216712   2.266   7.026   6.531
 4939SOL     OW16713   2.772  11.369   2.327
 4939SOL    HW116714   2.724  11.287   2.312
 4939SOL    HW216715   2.747  11.395   2.416
 4940SOL     OW16716   8.132   4.702   1.054
 4940SOL    HW116717   8.169   4.687   1.141
 4940SOL    HW216718   8.208   4.721   0.998
 4941SOL     OW16719   2.431  11.440  10.322
 4941SOL    HW116720   2.493  11.513  10.313
 4941SOL    HW216721   2.433  11.418  10.415
 4942SOL     OW16722   6.220   6.815  13.920
 4942SOL    HW116723   6.197   6.743  13.980
 4942SOL    HW216724   6.158   6.884  13.940
 4943SOL     OW16725   3.997   0.059   7.614
 4943SOL    HW116726   3.964   0.017   7.535
 4943SOL    HW216727   4.088   0.029   7.621
 4944SOL     OW16728   0.394   6.697   9.345
 4944SOL    HW116729   0.362   6.631   9.406
 4944SOL    HW216730   0.331   6.696   9.273
 4945SOL     OW16731  13.916   3.900  13.832
 4945SOL    HW116732  13.899   3.807  13.846
 4945SOL    HW216733  14.008   3.912  13.852
 4946SOL     OW16734  14.475  11.218  13.182
 4946SOL    HW116735  14.441  11.174  13.104
 4946SOL    HW216736  14.504  11.146  13.238
 4947SOL     OW16737  10.505   3.635   8.632
 4947SOL    HW116738  10.469   3.546   8.623
 4947SOL    HW216739  10.437   3.692   8.596
 4948SOL     OW16740   7.722   2.453   0.377
 4948SOL    HW116741   7.727   2.541   0.413
 4948SOL    HW216742   7.797   2.407   0.415
 4949SOL     OW16743   9.468  14.462   6.522
 4949SOL    HW116744   9.518  14.433   6.446
 4949SOL    HW216745   9.430  14.546   6.494
 4950SOL     OW16746   0.327   7.163   4.651
 4950SOL    HW116747   0.370   7.147   4.735
 4950SOL    HW216748   0.353   7.252   4.628
 4951SOL     OW16749   5.121  14.154   8.296
 4951SOL    HW116750   5.151  14.186   8.381
 4951SOL    HW216751   5.039  14.110   8.315
 4952SOL     OW16752   2.539  14.365  10.299
 4952SOL    HW116753   2.536  14.283  10.251
 4952SOL    HW216754   2.501  14.430  10.240
 4953SOL     OW16755   2.660   0.201   6.532
 4953SOL    HW116756   2.640   0.114   6.567
 4953SOL    HW216757   2.575   0.243   6.522
 4954SOL     OW16758   6.209   1.301  10.039
 4954SOL    HW116759   6.284   1.310   9.979
 4954SOL    HW216760   6.183   1.210  10.031
 4955SOL     OW16761   4.243   9.904  13.327
 4955SOL    HW116762   4.304   9.840  13.363
 4955SOL    HW216763   4.193   9.936  13.402
 4956SOL     OW16764   4.849   6.378   8.234
 4956SOL    HW116765   4.779   6.355   8.173
 4956SOL    HW216766   4.892   6.295   8.255
 4957SOL     OW16767  13.527   4.452  11.039
 4957SOL    HW116768  13.469   4.524  11.064
 4957SOL    HW216769  13.496   4.426  10.953
 4958SOL     OW16770  10.748   2.790  10.448
 4958SOL    HW116771  10.778   2.854  10.512
 4958SOL    HW216772  10.814   2.794  10.378
 4959SOL     OW16773   4.884   6.788   4.883
 4959SOL    HW116774   4.803   6.738   4.890
 4959SOL    HW216775   4.915   6.770   4.794
 4960SOL     OW16776  11.850   3.822   4.619
 4960SOL    HW116777  11.845   3.916   4.600
 4960SOL    HW216778  11.943   3.801   4.610
 4961SOL     OW16779   9.149   4.019   0.646
 4961SOL    HW116780   9.214   4.073   0.690
 4961SOL    HW216781   9.194   3.987   0.567
 4962SOL     OW16782  10.444   5.555   4.632
 4962SOL    HW116783  10.488   5.615   4.691
 4962SOL    HW216784  10.470   5.468   4.663
 4963SOL     OW16785  13.225   1.267  12.840
 4963SOL    HW116786  13.169   1.302  12.909
 4963SOL    HW216787  13.169   1.206  12.792
 4964SOL     OW16788  13.757  11.107   2.475
 4964SOL    HW116789  13.752  11.126   2.568
 4964SOL    HW216790  13.848  11.081   2.460
 4965SOL     OW16791   0.576  12.286   6.118
 4965SOL    HW116792   0.547  12.376   6.102
 4965SOL    HW216793   0.664  12.282   6.081
 4966SOL     OW16794   7.766   6.405  11.716
 4966SOL    HW116795   7.691   6.355  11.747
 4966SOL    HW216796   7.740   6.435  11.629
 4967SOL     OW16797   8.407  13.364  14.684
 4967SOL    HW116798   8.405  13.343  14.590
 4967SOL    HW216799   8.317  13.354  14.713
 4968SOL     OW16800   7.235   4.617   5.881
 4968SOL    HW116801   7.255   4.643   5.791
 4968SOL    HW216802   7.187   4.535   5.872
 4969SOL     OW16803  10.946  12.923   8.344
 4969SOL    HW116804  10.974  12.968   8.424
 4969SOL    HW216805  11.004  12.847   8.338
 4970SOL     OW16806   0.533   0.568   8.755
 4970SOL    HW116807   0.481   0.646   8.772
 4970SOL    HW216808   0.564   0.579   8.665
 4971SOL     OW16809   0.619  13.843   7.819
 4971SOL    HW116810   0.631  13.753   7.851
 4971SOL    HW216811   0.708  13.876   7.807
 4972SOL     OW16812   9.399   4.926   4.896
 4972SOL    HW116813   9.431   4.874   4.823
 4972SOL    HW216814   9.313   4.956   4.868
 4973SOL     OW16815  10.911  11.056   6.650
 4973SOL    HW116816  10.912  10.962   6.634
 4973SOL    HW216817  10.989  11.089   6.606
 4974SOL     OW16818  10.319  14.307  13.512
 4974SOL    HW116819  10.404  14.263  13.515
 4974SOL    HW216820  10.341  14.400  13.504
 4975SOL     OW16821  14.386   4.320   5.481
 4975SOL    HW116822  14.361   4.328   5.389
 4975SOL    HW216823  14.373   4.227   5.501
 4976SOL     OW16824   0.260   0.125   0.630
 4976SOL    HW116825   0.276   0.219   0.638
 4976SOL    HW216826   0.222   0.100   0.715
 4977SOL     OW16827   4.403   3.695  13.069
 4977SOL    HW116828   4.377   3.716  13.159
 4977SOL    HW216829   4.430   3.779  13.032
 4978SOL     OW16830   3.746   3.959  14.810
 4978SOL    HW116831   3.746   3.872  14.850
 4978SOL    HW216832   3.763   3.942  14.717
 4979SOL     OW16833   7.624   7.935   0.120
 4979SOL    HW116834   7.559   7.995   0.156
 4979SOL    HW216835   7.649   7.880   0.195
 4980SOL     OW16836  11.911  11.079   6.905
 4980SOL    HW116837  11.878  11.113   6.988
 4980SOL    HW216838  11.996  11.040   6.927
 4981SOL     OW16839   8.842   3.969   4.560
 4981SOL    HW116840   8.816   4.057   4.533
 4981SOL    HW216841   8.807   3.959   4.649
 4982SOL     OW16842   5.884  11.816   3.801
 4982SOL    HW116843   5.897  11.762   3.878
 4982SOL    HW216844   5.840  11.759   3.738
 4983SOL     OW16845   8.156   5.183   6.005
 4983SOL    HW116846   8.120   5.116   5.947
 4983SOL    HW216847   8.136   5.151   6.094
 4984SOL     OW16848   1.246   6.918  11.884
 4984SOL    HW116849   1.339   6.917  11.862
 4984SOL    HW216850   1.211   6.994  11.838
 4985SOL     OW16851   6.153  10.452   9.916
 4985SOL    HW116852   6.108  10.502   9.984
 4985SOL    HW216853   6.084  10.430   9.853
 4986SOL     OW16854   4.443  14.500   2.526
 4986SOL    HW116855   4.486  14.543   2.599
 4986SOL    HW216856   4.509  14.498   2.456
 4987SOL     OW16857   9.606   0.118   2.821
 4987SOL    HW116858   9.633   0.053   2.887
 4987SOL    HW216859   9.589   0.197   2.872
 4988SOL     OW16860  12.587  14.314   2.850
 4988SOL    HW116861  12.667  14.269   2.875
 4988SOL    HW216862  12.518  14.247   2.857
 4989SOL     OW16863   2.765  13.165   7.677
 4989SOL    HW116864   2.839  13.216   7.644
 4989SOL    HW216865   2.785  13.149   7.769
 4990SOL     OW16866   2.165   0.619   6.252
 4990SOL    HW116867   2.117   0.539   6.230
 4990SOL    HW216868   2.247   0.612   6.204
 4991SOL     OW16869  14.244  12.248   8.414
 4991SOL    HW116870  14.309  12.236   8.345
 4991SOL    HW216871  14.238  12.343   8.425
 4992SOL     OW16872   9.537  13.251  10.227
 4992SOL    HW116873   9.573  13.327  10.272
 4992SOL    HW216874   9.443  13.270  10.221
 4993SOL     OW16875  11.343  14.733   5.925
 4993SOL    HW116876  11.374  14.703   6.011
 4993SOL    HW216877  11.289  14.661   5.893
 4994SOL     OW16878   9.618  14.304   2.719
 4994SOL    HW116879   9.697  14.256   2.743
 4994SOL    HW216880   9.553  14.277   2.784
 4995SOL     OW16881   3.186   4.614   9.903
 4995SOL    HW116882   3.273   4.574   9.902
 4995SOL    HW216883   3.143   4.579   9.825
 4996SOL     OW16884   1.830  13.835   8.706
 4996SOL    HW116885   1.911  13.804   8.745
 4996SOL    HW216886   1.836  13.930   8.708
 4997SOL     OW16887   9.438   7.915   1.246
 4997SOL    HW116888   9.367   7.860   1.280
 4997SOL    HW216889   9.518   7.865   1.264
 4998SOL     OW16890   7.670  10.137   5.510
 4998SOL    HW116891   7.600  10.098   5.563
 4998SOL    HW216892   7.745  10.141   5.569
 4999SOL     OW16893  10.463   6.462   8.004
 4999SOL    HW116894  10.520   6.387   7.989
 4999SOL    HW216895  10.410   6.469   7.925
 5000SOL     OW16896  13.657   0.058   4.140
 5000SOL    HW116897  13.665  14.840   4.099
 5000SOL    HW216898  13.702   0.048   4.224
 5001SOL     OW16899  13.562  13.917   4.070
 5001SOL    HW116900  13.474  13.885   4.093
 5001SOL    HW216901  13.579  13.879   3.984
 5002SOL     OW16902   5.215   7.967   2.054
 5002SOL    HW116903   5.195   7.884   2.011
 5002SOL    HW216904   5.241   8.026   1.983
 5003SOL     OW16905  12.510  13.944   7.449
 5003SOL    HW116906  12.464  13.997   7.514
 5003SOL    HW216907  12.472  13.971   7.365
 5004SOL     OW16908   4.598   7.065   4.897
 5004SOL    HW116909   4.508   7.035   4.902
 5004SOL    HW216910   4.594   7.158   4.922
 5005SOL     OW16911   6.633   8.371  12.338
 5005SOL    HW116912   6.624   8.282  12.373
 5005SOL    HW216913   6.671   8.359  12.251
 5006SOL     OW16914   9.134   2.294   6.646
 5006SOL    HW116915   9.224   2.262   6.644
 5006SOL    HW216916   9.135   2.362   6.714
 5007SOL     OW16917  13.489   2.155   9.872
 5007SOL    HW116918  13.426   2.197   9.930
 5007SOL    HW216919  13.486   2.205   9.791
 5008SOL     OW16920  11.770   3.535   5.725
 5008SOL    HW116921  11.711   3.552   5.798
 5008SOL    HW216922  11.727   3.575   5.649
 5009SOL     OW16923   5.299   2.742   7.687
 5009SOL    HW116924   5.323   2.805   7.754
 5009SOL    HW216925   5.229   2.690   7.726
 5010SOL     OW16926  12.253   2.276   9.334
 5010SOL    HW116927  12.186   2.226   9.287
 5010SOL    HW216928  12.332   2.264   9.282
 5011SOL     OW16929   3.053  14.156  14.699
 5011SOL    HW116930   3.120  14.095  14.731
 5011SOL    HW216931   2.981  14.147  14.761
 5012SOL     OW16932   8.229   7.732  11.199
 5012SOL    HW116933   8.251   7.737  11.292
 5012SOL    HW216934   8.306   7.695  11.157
 5013SOL     OW16935   5.824   9.195  13.699
 5013SOL    HW116936   5.918   9.209  13.686
 5013SOL    HW216937   5.799   9.257  13.767
 5014SOL     OW16938   3.362  13.210   2.808
 5014SOL    HW116939   3.289  13.152   2.825
 5014SOL    HW216940   3.322  13.292   2.779
 5015SOL     OW16941  13.635   2.341   1.897
 5015SOL    HW116942  13.560   2.395   1.873
 5015SOL    HW216943  13.643   2.351   1.992
 5016SOL     OW16944   6.241   9.524  12.387
 5016SOL    HW116945   6.185   9.460  12.343
 5016SOL    HW216946   6.239   9.498  12.479
 5017SOL     OW16947   3.400   6.507   7.459
 5017SOL    HW116948   3.460   6.579   7.442
 5017SOL    HW216949   3.321   6.549   7.492
 5018SOL     OW16950   1.117  11.556  14.266
 5018SOL    HW116951   1.187  11.599  14.216
 5018SOL    HW216952   1.043  11.616  14.261
 5019SOL     OW16953   9.009  14.180   3.126
 5019SOL    HW116954   9.028  14.148   3.038
 5019SOL    HW216955   8.926  14.138   3.150
 5020SOL     OW16956  10.692   2.553  10.817
 5020SOL    HW116957  10.719   2.519  10.902
 5020SOL    HW216958  10.602   2.583  10.829
 5021SOL     OW16959   4.018  13.549  14.596
 5021SOL    HW116960   3.956  13.512  14.534
 5021SOL    HW216961   3.997  13.643  14.598
 5022SOL     OW16962   5.327   7.117   8.985
 5022SOL    HW116963   5.282   7.039   9.016
 5022SOL    HW216964   5.274   7.190   9.018
 5023SOL     OW16965   8.249   6.913   5.153
 5023SOL    HW116966   8.159   6.941   5.171
 5023SOL    HW216967   8.240   6.833   5.102
 5024SOL     OW16968   8.456   8.817   2.127
 5024SOL    HW116969   8.427   8.747   2.068
 5024SOL    HW216970   8.486   8.772   2.205
 5025SOL     OW16971  10.551   2.781   1.590
 5025SOL    HW116972  10.460   2.810   1.596
 5025SOL    HW216973  10.585   2.787   1.679
 5026SOL     OW16974   6.411  12.315   2.452
 5026SOL    HW116975   6.468  12.353   2.385
 5026SOL    HW216976   6.411  12.221   2.432
 5027SOL     OW16977  10.720   0.880  10.170
 5027SOL    HW116978  10.728   0.789  10.199
 5027SOL    HW216979  10.677   0.874  10.085
 5028SOL     OW16980   4.257   2.555   9.637
 5028SOL    HW116981   4.315   2.486   9.667
 5028SOL    HW216982   4.274   2.561   9.543
 5029SOL     OW16983   2.946   1.898   5.562
 5029SOL    HW116984   2.980   1.981   5.527
 5029SOL    HW216985   2.946   1.911   5.657
 5030SOL     OW16986   8.100   6.074   1.467
 5030SOL    HW116987   8.134   6.016   1.535
 5030SOL    HW216988   8.049   6.139   1.515
 5031SOL     OW16989   3.530  13.324   1.480
 5031SOL    HW116990   3.453  13.309   1.426
 5031SOL    HW216991   3.559  13.413   1.457
 5032SOL     OW16992   3.072   7.194   9.201
 5032SOL    HW116993   3.006   7.126   9.188
 5032SOL    HW216994   3.155   7.149   9.188
 5033SOL     OW16995   7.429   1.395   7.140
 5033SOL    HW116996   7.506   1.444   7.114
 5033SOL    HW216997   7.366   1.462   7.167
 5034SOL     OW16998   1.006  11.197  13.266
 5034SOL    HW116999   1.032  11.108  13.241
 5034SOL    HW217000   0.929  11.215  13.212
 5035SOL     OW17001   2.746   8.863   5.458
 5035SOL    HW117002   2.739   8.873   5.553
 5035SOL    HW217003   2.781   8.947   5.428
 5036SOL     OW17004  10.491   9.319   7.322
 5036SOL    HW117005  10.536   9.379   7.382
 5036SOL    HW217006  10.498   9.362   7.236
 5037SOL     OW17007   8.792   1.174   2.395
 5037SOL    HW117008   8.763   1.130   2.475
 5037SOL    HW217009   8.731   1.143   2.328
 5038SOL     OW17010   7.649   0.197   3.054
 5038SOL    HW117011   7.691   0.113   3.070
 5038SOL    HW217012   7.722   0.259   3.047
 5039SOL     OW17013   0.883   3.218  11.997
 5039SOL    HW117014   0.976   3.206  12.014
 5039SOL    HW217015   0.866   3.169  11.917
 5040SOL     OW17016   2.364   4.825  12.428
 5040SOL    HW117017   2.379   4.736  12.460
 5040SOL    HW217018   2.386   4.881  12.502
 5041SOL     OW17019   4.045  13.134   0.991
 5041SOL    HW117020   4.104  13.064   1.020
 5041SOL    HW217021   4.102  13.196   0.946
 5042SOL     OW17022   3.606  11.097  14.844
 5042SOL    HW117023   3.543  11.054   0.034
 5042SOL    HW217024   3.616  11.036  14.771
 5043SOL     OW17025   7.444   6.815  12.912
 5043SOL    HW117026   7.491   6.859  12.983
 5043SOL    HW217027   7.481   6.852  12.832
 5044SOL     OW17028  10.349   0.029   6.634
 5044SOL    HW117029  10.390   0.078   6.563
 5044SOL    HW217030  10.419   0.016   6.697
 5045SOL     OW17031   5.646  14.515   9.760
 5045SOL    HW117032   5.569  14.543   9.809
 5045SOL    HW217033   5.650  14.420   9.775
 5046SOL     OW17034  13.927  14.772   4.125
 5046SOL    HW117035  13.978  14.691   4.118
 5046SOL    HW217036  13.992  14.837   4.153
 5047SOL     OW17037  11.217   5.234   5.883
 5047SOL    HW117038  11.243   5.173   5.814
 5047SOL    HW217039  11.240   5.190   5.965
 5048SOL     OW17040   3.224  13.403   4.689
 5048SOL    HW117041   3.319  13.391   4.688
 5048SOL    HW217042   3.211  13.490   4.728
 5049SOL     OW17043   3.737   3.002   8.494
 5049SOL    HW117044   3.726   3.094   8.518
 5049SOL    HW217045   3.647   2.972   8.477
 5050SOL     OW17046  13.573   8.660  10.927
 5050SOL    HW117047  13.610   8.730  10.980
 5050SOL    HW217048  13.649   8.615  10.890
 5051SOL     OW17049   2.919   3.559   6.436
 5051SOL    HW117050   2.992   3.563   6.375
 5051SOL    HW217051   2.853   3.505   6.391
 5052SOL     OW17052   9.270  13.609   4.640
 5052SOL    HW117053   9.246  13.581   4.553
 5052SOL    HW217054   9.204  13.675   4.664
 5053SOL     OW17055  12.790   5.727   6.558
 5053SOL    HW117056  12.760   5.653   6.611
 5053SOL    HW217057  12.711   5.758   6.513
 5054SOL     OW17058  10.824   8.636  12.928
 5054SOL    HW117059  10.861   8.718  12.961
 5054SOL    HW217060  10.898   8.589  12.891
 5055SOL     OW17061   6.836  10.031   5.048
 5055SOL    HW117062   6.785  10.110   5.066
 5055SOL    HW217063   6.792   9.962   5.097
 5056SOL     OW17064  11.514   0.022   1.773
 5056SOL    HW117065  11.548  14.843   1.849
 5056SOL    HW217066  11.540  14.836   1.698
 5057SOL     OW17067   2.355   7.695   4.651
 5057SOL    HW117068   2.446   7.694   4.681
 5057SOL    HW217069   2.360   7.729   4.561
 5058SOL     OW17070   9.793  11.072  13.702
 5058SOL    HW117071   9.772  10.978  13.705
 5058SOL    HW217072   9.804  11.097  13.793
 5059SOL     OW17073   8.038  13.262   8.176
 5059SOL    HW117074   7.954  13.290   8.211
 5059SOL    HW217075   8.032  13.280   8.082
 5060SOL     OW17076   5.914  14.654   3.118
 5060SOL    HW117077   5.995  14.680   3.074
 5060SOL    HW217078   5.935  14.570   3.159
 5061SOL     OW17079  12.765   1.127  12.165
 5061SOL    HW117080  12.806   1.179  12.235
 5061SOL    HW217081  12.771   1.183  12.088
 5062SOL     OW17082   1.004   7.153   5.934
 5062SOL    HW117083   0.985   7.246   5.923
 5062SOL    HW217084   1.092   7.142   5.899
 5063SOL     OW17085   3.072  10.295   7.732
 5063SOL    HW117086   3.031  10.215   7.766
 5063SOL    HW217087   3.163  10.269   7.716
 5064SOL     OW17088   7.528  14.172  13.229
 5064SOL    HW117089   7.577  14.179  13.311
 5064SOL    HW217090   7.481  14.089  13.237
 5065SOL     OW17091   6.607   4.306   9.083
 5065SOL    HW117092   6.669   4.243   9.046
 5065SOL    HW217093   6.631   4.389   9.042
 5066SOL     OW17094   8.867  12.183   7.595
 5066SOL    HW117095   8.817  12.264   7.589
 5066SOL    HW217096   8.955  12.207   7.566
 5067SOL     OW17097  14.329  12.203   3.717
 5067SOL    HW117098  14.286  12.275   3.670
 5067SOL    HW217099  14.419  12.204   3.684
 5068SOL     OW17100   2.473   8.506   1.343
 5068SOL    HW117101   2.555   8.544   1.312
 5068SOL    HW217102   2.477   8.414   1.317
 5069SOL     OW17103   0.887   4.495  13.307
 5069SOL    HW117104   0.876   4.512  13.400
 5069SOL    HW217105   0.803   4.458  13.279
 5070SOL     OW17106  12.354   7.855   8.500
 5070SOL    HW117107  12.327   7.944   8.476
 5070SOL    HW217108  12.376   7.861   8.593
 5071SOL     OW17109   0.727   4.266   4.152
 5071SOL    HW117110   0.797   4.330   4.138
 5071SOL    HW217111   0.660   4.291   4.088
 5072SOL     OW17112   8.859   8.825  12.363
 5072SOL    HW117113   8.832   8.796  12.450
 5072SOL    HW217114   8.952   8.846  12.372
 5073SOL     OW17115   5.896  13.277   7.018
 5073SOL    HW117116   5.908  13.219   7.094
 5073SOL    HW217117   5.882  13.363   7.056
 5074SOL     OW17118   9.855  10.799   8.160
 5074SOL    HW117119   9.797  10.792   8.084
 5074SOL    HW217120   9.823  10.733   8.221
 5075SOL     OW17121  12.538  13.045  14.306
 5075SOL    HW117122  12.460  12.989  14.309
 5075SOL    HW217123  12.608  12.987  14.276
 5076SOL     OW17124   7.134   1.371  10.642
 5076SOL    HW117125   7.148   1.435  10.712
 5076SOL    HW217126   7.221   1.354  10.607
 5077SOL     OW17127   6.637   0.055   9.314
 5077SOL    HW117128   6.711   0.012   9.358
 5077SOL    HW217129   6.664   0.146   9.306
 5078SOL     OW17130   0.701  14.680   5.336
 5078SOL    HW117131   0.716  14.601   5.388
 5078SOL    HW217132   0.719  14.653   5.246
 5079SOL     OW17133   5.842   2.682   7.382
 5079SOL    HW117134   5.904   2.693   7.454
 5079SOL    HW217135   5.770   2.741   7.403
 5080SOL     OW17136   9.999   1.783   6.609
 5080SOL    HW117137  10.022   1.873   6.588
 5080SOL    HW217138   9.960   1.749   6.528
 5081SOL     OW17139   9.538  12.053   5.528
 5081SOL    HW117140   9.452  12.079   5.561
 5081SOL    HW217141   9.600  12.107   5.577
 5082SOL     OW17142  11.629   0.968   6.650
 5082SOL    HW117143  11.535   0.952   6.637
 5082SOL    HW217144  11.670   0.939   6.568
 5083SOL     OW17145   8.541  10.752   0.230
 5083SOL    HW117146   8.484  10.742   0.154
 5083SOL    HW217147   8.594  10.672   0.231
 5084SOL     OW17148  11.517   1.853   0.138
 5084SOL    HW117149  11.506   1.762   0.162
 5084SOL    HW217150  11.547   1.896   0.218
 5085SOL     OW17151   0.559  14.542   3.614
 5085SOL    HW117152   0.494  14.475   3.590
 5085SOL    HW217153   0.561  14.541   3.709
 5086SOL     OW17154   2.631  14.425   7.457
 5086SOL    HW117155   2.723  14.398   7.455
 5086SOL    HW217156   2.610  14.430   7.551
 5087SOL     OW17157   3.393   0.320   6.326
 5087SOL    HW117158   3.438   0.299   6.244
 5087SOL    HW217159   3.455   0.296   6.395
 5088SOL     OW17160  14.209   8.906   5.461
 5088SOL    HW117161  14.119   8.926   5.433
 5088SOL    HW217162  14.242   8.847   5.393
 5089SOL     OW17163  12.512   1.162   1.401
 5089SOL    HW117164  12.497   1.230   1.465
 5089SOL    HW217165  12.511   1.207   1.317
 5090SOL     OW17166  11.635   5.426   2.138
 5090SOL    HW117167  11.650   5.511   2.095
 5090SOL    HW217168  11.691   5.366   2.089
 5091SOL     OW17169   3.712  11.503   8.004
 5091SOL    HW117170   3.629  11.481   8.045
 5091SOL    HW217171   3.766  11.425   8.015
 5092SOL     OW17172  11.424   8.847   7.170
 5092SOL    HW117173  11.447   8.851   7.077
 5092SOL    HW217174  11.478   8.776   7.205
 5093SOL     OW17175   2.819  12.205   8.052
 5093SOL    HW117176   2.806  12.151   8.130
 5093SOL    HW217177   2.869  12.149   7.993
 5094SOL     OW17178   4.680   2.461   7.271
 5094SOL    HW117179   4.647   2.445   7.183
 5094SOL    HW217180   4.764   2.504   7.257
 5095SOL     OW17181   0.975  10.950  10.681
 5095SOL    HW117182   0.990  10.931  10.773
 5095SOL    HW217183   1.010  11.039  10.669
 5096SOL     OW17184   7.829  13.394   6.686
 5096SOL    HW117185   7.907  13.447   6.669
 5096SOL    HW217186   7.830  13.379   6.781
 5097SOL     OW17187   2.908   2.402   0.248
 5097SOL    HW117188   2.903   2.487   0.292
 5097SOL    HW217189   2.937   2.341   0.317
 5098SOL     OW17190  10.641   5.046  11.368
 5098SOL    HW117191  10.605   4.977  11.424
 5098SOL    HW217192  10.661   5.118  11.428
 5099SOL     OW17193  10.817   6.020   0.175
 5099SOL    HW117194  10.755   6.035   0.104
 5099SOL    HW217195  10.854   6.106   0.194
 5100SOL     OW17196  12.660   5.027   1.731
 5100SOL    HW117197  12.612   5.047   1.650
 5100SOL    HW217198  12.599   5.048   1.801
 5101SOL     OW17199   2.432   8.566   8.681
 5101SOL    HW117200   2.482   8.498   8.636
 5101SOL    HW217201   2.423   8.535   8.771
 5102SOL     OW17202  12.702  12.439   7.270
 5102SOL    HW117203  12.666  12.510   7.324
 5102SOL    HW217204  12.786  12.418   7.312
 5103SOL     OW17205   8.953  11.347   6.504
 5103SOL    HW117206   8.967  11.261   6.465
 5103SOL    HW217207   9.012  11.405   6.455
 5104SOL     OW17208   0.884   8.175   7.907
 5104SOL    HW117209   0.908   8.096   7.955
 5104SOL    HW217210   0.967   8.217   7.885
 5105SOL     OW17211  14.099  11.649  12.507
 5105SOL    HW117212  14.051  11.665  12.425
 5105SOL    HW217213  14.120  11.556  12.505
 5106SOL     OW17214   8.137   3.743   3.935
 5106SOL    HW117215   8.046   3.736   3.907
 5106SOL    HW217216   8.158   3.658   3.974
 5107SOL     OW17217   8.121  12.807   0.518
 5107SOL    HW117218   8.104  12.713   0.520
 5107SOL    HW217219   8.035  12.848   0.518
 5108SOL     OW17220   3.375  10.731   8.440
 5108SOL    HW117221   3.467  10.714   8.423
 5108SOL    HW217222   3.358  10.693   8.526
 5109SOL     OW17223  14.347  10.843   0.269
 5109SOL    HW117224  14.436  10.862   0.237
 5109SOL    HW217225  14.312  10.929   0.293
 5110SOL     OW17226   7.354  13.770   5.160
 5110SOL    HW117227   7.296  13.844   5.177
 5110SOL    HW217228   7.321  13.700   5.216
 5111SOL     OW17229  10.228  12.008  13.335
 5111SOL    HW117230  10.185  12.093  13.343
 5111SOL    HW217231  10.155  11.946  13.325
 5112SOL     OW17232   4.507   6.158  13.913
 5112SOL    HW117233   4.477   6.086  13.859
 5112SOL    HW217234   4.516   6.120  14.001
 5113SOL     OW17235   2.580   2.271  11.598
 5113SOL    HW117236   2.582   2.366  11.590
 5113SOL    HW217237   2.666   2.248  11.635
 5114SOL     OW17238  10.300   1.834   0.875
 5114SOL    HW117239  10.246   1.758   0.895
 5114SOL    HW217240  10.381   1.820   0.923
 5115SOL     OW17241   8.962   0.223  11.640
 5115SOL    HW117242   9.053   0.252  11.639
 5115SOL    HW217243   8.945   0.197  11.549
 5116SOL     OW17244   4.393   3.506   3.050
 5116SOL    HW117245   4.413   3.509   3.144
 5116SOL    HW217246   4.356   3.592   3.030
 5117SOL     OW17247   2.107   8.220   0.087
 5117SOL    HW117248   2.106   8.316   0.086
 5117SOL    HW217249   2.069   8.195   0.003
 5118SOL     OW17250   8.828   6.614   2.403
 5118SOL    HW117251   8.902   6.651   2.354
 5118SOL    HW217252   8.828   6.521   2.378
 5119SOL     OW17253   3.389   5.889   0.379
 5119SOL    HW117254   3.314   5.843   0.415
 5119SOL    HW217255   3.378   5.883   0.284
 5120SOL     OW17256   0.037   1.755   1.241
 5120SOL    HW117257  14.863   1.747   1.327
 5120SOL    HW217258   0.053   1.849   1.232
 5121SOL     OW17259   3.358   8.852  11.592
 5121SOL    HW117260   3.421   8.781  11.586
 5121SOL    HW217261   3.363   8.897  11.507
 5122SOL     OW17262   2.253   2.245  10.676
 5122SOL    HW117263   2.243   2.194  10.595
 5122SOL    HW217264   2.336   2.291  10.665
 5123SOL     OW17265  13.268   1.727   7.494
 5123SOL    HW117266  13.286   1.816   7.463
 5123SOL    HW217267  13.173   1.724   7.506
 5124SOL     OW17268   0.280   2.358   0.497
 5124SOL    HW117269   0.374   2.377   0.506
 5124SOL    HW217270   0.271   2.320   0.410
 5125SOL     OW17271   0.477   5.249   6.489
 5125SOL    HW117272   0.490   5.159   6.519
 5125SOL    HW217273   0.429   5.240   6.407
 5126SOL     OW17274   9.803  13.996  10.675
 5126SOL    HW117275   9.792  13.974  10.583
 5126SOL    HW217276   9.840  13.916  10.715
 5127SOL     OW17277   2.285   3.162   9.947
 5127SOL    HW117278   2.237   3.103   9.890
 5127SOL    HW217279   2.337   3.217   9.888
 5128SOL     OW17280   2.517  10.955   5.036
 5128SOL    HW117281   2.544  11.036   5.079
 5128SOL    HW217282   2.422  10.962   5.030
 5129SOL     OW17283   6.979   5.862   1.954
 5129SOL    HW117284   6.936   5.931   2.005
 5129SOL    HW217285   7.041   5.822   2.015
 5130SOL     OW17286  10.351   0.506   3.899
 5130SOL    HW117287  10.309   0.455   3.830
 5130SOL    HW217288  10.300   0.487   3.978
 5131SOL     OW17289   6.804  10.827   9.413
 5131SOL    HW117290   6.860  10.762   9.371
 5131SOL    HW217291   6.865  10.889   9.453
 5132SOL     OW17292  13.172   5.685   2.940
 5132SOL    HW117293  13.117   5.732   3.002
 5132SOL    HW217294  13.252   5.664   2.989
 5133SOL     OW17295  13.080   4.856   2.332
 5133SOL    HW117296  13.074   4.944   2.295
 5133SOL    HW217297  13.164   4.855   2.378
 5134SOL     OW17298   0.736   8.373   6.293
 5134SOL    HW117299   0.743   8.467   6.311
 5134SOL    HW217300   0.668   8.367   6.225
 5135SOL     OW17301   3.714  10.039   3.441
 5135SOL    HW117302   3.766  10.097   3.496
 5135SOL    HW217303   3.657   9.993   3.502
 5136SOL     OW17304   3.917   0.284  14.471
 5136SOL    HW117305   3.923   0.201  14.423
 5136SOL    HW217306   3.876   0.260  14.554
 5137SOL     OW17307   5.360  13.648   8.941
 5137SOL    HW117308   5.270  13.651   8.909
 5137SOL    HW217309   5.383  13.555   8.938
 5138SOL     OW17310  13.181  12.020   3.661
 5138SOL    HW117311  13.188  12.115   3.664
 5138SOL    HW217312  13.237  11.989   3.733
 5139SOL     OW17313   4.439   8.188  13.530
 5139SOL    HW117314   4.425   8.166  13.438
 5139SOL    HW217315   4.435   8.103  13.575
 5140SOL     OW17316   5.438  11.437   1.957
 5140SOL    HW117317   5.379  11.484   1.898
 5140SOL    HW217318   5.501  11.395   1.899
 5141SOL     OW17319  14.709  14.811   9.338
 5141SOL    HW117320  14.785  14.783   9.389
 5141SOL    HW217321  14.637  14.810   9.401
 5142SOL     OW17322   1.499   5.138  11.164
 5142SOL    HW117323   1.554   5.078  11.112
 5142SOL    HW217324   1.561   5.197  11.206
 5143SOL     OW17325   1.622   4.580   6.667
 5143SOL    HW117326   1.672   4.570   6.748
 5143SOL    HW217327   1.686   4.561   6.597
 5144SOL     OW17328   2.149   1.019  14.216
 5144SOL    HW117329   2.191   0.985  14.294
 5144SOL    HW217330   2.139   0.943  14.159
 5145SOL     OW17331   9.761  11.401   2.451
 5145SOL    HW117332   9.703  11.475   2.435
 5145SOL    HW217333   9.725  11.359   2.529
 5146SOL     OW17334  14.576  12.365   6.373
 5146SOL    HW117335  14.603  12.444   6.327
 5146SOL    HW217336  14.658  12.322   6.397
 5147SOL     OW17337   5.774   2.533   3.105
 5147SOL    HW117338   5.761   2.449   3.063
 5147SOL    HW217339   5.702   2.588   3.073
 5148SOL     OW17340   5.422   8.395  14.862
 5148SOL    HW117341   5.504   8.357   0.023
 5148SOL    HW217342   5.416   8.478   0.041
 5149SOL     OW17343   9.411  14.640   7.667
 5149SOL    HW117344   9.435  14.547   7.665
 5149SOL    HW217345   9.428  14.667   7.758
 5150SOL     OW17346   2.667   8.939   2.019
 5150SOL    HW117347   2.681   9.009   2.083
 5150SOL    HW217348   2.605   8.977   1.956
 5151SOL     OW17349   5.677   2.013   5.824
 5151SOL    HW117350   5.673   2.030   5.730
 5151SOL    HW217351   5.759   2.054   5.852
 5152SOL     OW17352  12.265  14.486   7.663
 5152SOL    HW117353  12.250  14.456   7.574
 5152SOL    HW217354  12.220  14.422   7.718
 5153SOL     OW17355   6.331  10.282   1.540
 5153SOL    HW117356   6.251  10.309   1.586
 5153SOL    HW217357   6.386  10.360   1.541
 5154SOL     OW17358   2.367  10.826   8.029
 5154SOL    HW117359   2.410  10.814   7.944
 5154SOL    HW217360   2.436  10.810   8.093
 5155SOL     OW17361  10.354   4.900   8.224
 5155SOL    HW117362  10.387   4.895   8.134
 5155SOL    HW217363  10.376   4.988   8.253
 5156SOL     OW17364  12.598   8.361   9.637
 5156SOL    HW117365  12.541   8.437   9.644
 5156SOL    HW217366  12.680   8.388   9.679
 5157SOL     OW17367   2.688  12.377   0.050
 5157SOL    HW117368   2.639  12.422  14.849
 5157SOL    HW217369   2.706  12.445   0.115
 5158SOL     OW17370   1.247  13.693   7.363
 5158SOL    HW117371   1.277  13.721   7.449
 5158SOL    HW217372   1.314  13.724   7.302
 5159SOL     OW17373   0.134  12.080   4.991
 5159SOL    HW117374   0.115  12.038   5.075
 5159SOL    HW217375   0.197  12.021   4.949
 5160SOL     OW17376   6.128   1.982   1.121
 5160SOL    HW117377   6.155   2.073   1.111
 5160SOL    HW217378   6.095   1.977   1.211
 5161SOL     OW17379   3.497   9.731   1.987
 5161SOL    HW117380   3.423   9.706   1.933
 5161SOL    HW217381   3.460   9.787   2.055
 5162SOL     OW17382   3.509  10.188   2.334
 5162SOL    HW117383   3.419  10.215   2.315
 5162SOL    HW217384   3.559  10.217   2.258
 5163SOL     OW17385  10.778  10.670   2.059
 5163SOL    HW117386  10.873  10.665   2.050
 5163SOL    HW217387  10.752  10.581   2.082
 5164SOL     OW17388   3.830   8.494  10.355
 5164SOL    HW117389   3.848   8.415  10.406
 5164SOL    HW217390   3.912   8.512  10.308
 5165SOL     OW17391   9.076  12.739   7.144
 5165SOL    HW117392   9.053  12.800   7.214
 5165SOL    HW217393   9.026  12.659   7.164
 5166SOL     OW17394   6.724   9.694   1.258
 5166SOL    HW117395   6.737   9.643   1.338
 5166SOL    HW217396   6.722   9.629   1.188
 5167SOL     OW17397   9.903   7.268   5.889
 5167SOL    HW117398   9.925   7.249   5.798
 5167SOL    HW217399   9.843   7.343   5.884
 5168SOL     OW17400   1.750   1.379  13.219
 5168SOL    HW117401   1.683   1.311  13.211
 5168SOL    HW217402   1.714   1.454  13.173
 5169SOL     OW17403  11.500  14.672   0.586
 5169SOL    HW117404  11.569  14.606   0.581
 5169SOL    HW217405  11.458  14.670   0.500
 5170SOL     OW17406  11.368  11.213   7.616
 5170SOL    HW117407  11.332  11.302   7.613
 5170SOL    HW217408  11.337  11.177   7.699
 5171SOL     OW17409   3.517   2.836   9.808
 5171SOL    HW117410   3.572   2.850   9.885
 5171SOL    HW217411   3.478   2.749   9.822
 5172SOL     OW17412   4.042   4.944  10.373
 5172SOL    HW117413   3.968   4.891  10.344
 5172SOL    HW217414   4.025   4.960  10.466
 5173SOL     OW17415   0.348   6.005  11.043
 5173SOL    HW117416   0.354   5.958  10.960
 5173SOL    HW217417   0.269   6.058  11.035
 5174SOL     OW17418   4.937  12.066  11.424
 5174SOL    HW117419   5.007  12.007  11.450
 5174SOL    HW217420   4.907  12.106  11.505
 5175SOL     OW17421  13.819   9.452   7.286
 5175SOL    HW117422  13.828   9.429   7.379
 5175SOL    HW217423  13.724   9.453   7.272
 5176SOL     OW17424  12.207   9.268  11.986
 5176SOL    HW117425  12.278   9.228  12.037
 5176SOL    HW217426  12.250   9.337  11.935
 5177SOL     OW17427   5.140   3.289   8.138
 5177SOL    HW117428   5.137   3.195   8.121
 5177SOL    HW217429   5.200   3.298   8.212
 5178SOL     OW17430   4.298  13.378  10.799
 5178SOL    HW117431   4.309  13.340  10.712
 5178SOL    HW217432   4.248  13.312  10.848
 5179SOL     OW17433  13.426   3.467   8.992
 5179SOL    HW117434  13.432   3.556   8.955
 5179SOL    HW217435  13.507   3.456   9.041
 5180SOL     OW17436   6.817  12.672   7.796
 5180SOL    HW117437   6.850  12.607   7.859
 5180SOL    HW217438   6.721  12.665   7.803
 5181SOL     OW17439   9.474   5.477   9.458
 5181SOL    HW117440   9.526   5.488   9.379
 5181SOL    HW217441   9.383   5.489   9.429
 5182SOL     OW17442   7.232  13.794   1.306
 5182SOL    HW117443   7.312  13.844   1.327
 5182SOL    HW217444   7.174  13.811   1.380
 5183SOL     OW17445   9.153  13.180  11.115
 5183SOL    HW117446   9.076  13.140  11.074
 5183SOL    HW217447   9.125  13.269  11.136
 5184SOL     OW17448   9.638   1.649   4.714
 5184SOL    HW117449   9.697   1.598   4.659
 5184SOL    HW217450   9.604   1.587   4.779
 5185SOL     OW17451  13.934  14.805  11.137
 5185SOL    HW117452  13.979  14.841  11.061
 5185SOL    HW217453  13.861  14.864  11.153
 5186SOL     OW17454  14.553   8.043   2.311
 5186SOL    HW117455  14.526   7.976   2.373
 5186SOL    HW217456  14.472   8.086   2.285
 5187SOL     OW17457  12.634   2.871  10.675
 5187SOL    HW117458  12.563   2.933  10.658
 5187SOL    HW217459  12.597   2.810  10.739
 5188SOL     OW17460  12.054   1.587  13.413
 5188SOL    HW117461  12.141   1.548  13.427
 5188SOL    HW217462  12.072   1.669  13.367
 5189SOL     OW17463   7.283   4.377   0.400
 5189SOL    HW117464   7.222   4.304   0.408
 5189SOL    HW217465   7.311   4.395   0.490
 5190SOL     OW17466   3.986  12.160   9.521
 5190SOL    HW117467   3.893  12.180   9.515
 5190SOL    HW217468   3.991  12.065   9.505
 5191SOL     OW17469   2.113   5.143   2.746
 5191SOL    HW117470   2.188   5.156   2.687
 5191SOL    HW217471   2.136   5.193   2.825
 5192SOL     OW17472   1.274   3.154  12.270
 5192SOL    HW117473   1.310   3.066  12.255
 5192SOL    HW217474   1.255   3.156  12.364
 5193SOL     OW17475   6.397   7.321   5.152
 5193SOL    HW117476   6.414   7.251   5.214
 5193SOL    HW217477   6.426   7.401   5.197
 5194SOL     OW17478  10.474   1.352   8.559
 5194SOL    HW117479  10.559   1.336   8.518
 5194SOL    HW217480  10.476   1.445   8.583
 5195SOL     OW17481   7.715   3.147  12.065
 5195SOL    HW117482   7.644   3.207  12.041
 5195SOL    HW217483   7.711   3.143  12.161
 5196SOL     OW17484   3.890  11.175   9.296
 5196SOL    HW117485   3.961  11.238   9.283
 5196SOL    HW217486   3.815  11.212   9.249
 5197SOL     OW17487   9.856   9.424   7.636
 5197SOL    HW117488   9.930   9.418   7.697
 5197SOL    HW217489   9.887   9.481   7.566
 5198SOL     OW17490  14.745   1.590   9.775
 5198SOL    HW117491  14.835   1.562   9.758
 5198SOL    HW217492  14.717   1.630   9.692
 5199SOL     OW17493  13.397   4.174  13.435
 5199SOL    HW117494  13.361   4.086  13.425
 5199SOL    HW217495  13.325   4.225  13.472
 5200SOL     OW17496  12.341   1.760  12.099
 5200SOL    HW117497  12.262   1.764  12.152
 5200SOL    HW217498  12.403   1.818  12.145
 5201SOL     OW17499   7.667   4.078  12.185
 5201SOL    HW117500   7.719   4.145  12.140
 5201SOL    HW217501   7.649   4.012  12.118
 5202SOL     OW17502   3.028  11.577  13.900
 5202SOL    HW117503   3.060  11.665  13.921
 5202SOL    HW217504   3.079  11.550  13.824
 5203SOL     OW17505   5.222  11.792  14.387
 5203SOL    HW117506   5.227  11.697  14.396
 5203SOL    HW217507   5.250  11.826  14.472
 5204SOL     OW17508   8.146   1.756   3.862
 5204SOL    HW117509   8.203   1.781   3.789
 5204SOL    HW217510   8.078   1.824   3.862
 5205SOL     OW17511  10.271  14.547   1.723
 5205SOL    HW117512  10.204  14.595   1.674
 5205SOL    HW217513  10.342  14.610   1.736
 5206SOL     OW17514   3.087   8.192   5.843
 5206SOL    HW117515   3.063   8.176   5.751
 5206SOL    HW217516   3.058   8.113   5.889
 5207SOL     OW17517   5.063   9.111  13.490
 5207SOL    HW117518   5.115   9.157  13.425
 5207SOL    HW217519   4.992   9.172  13.512
 5208SOL     OW17520   6.466   4.677   8.001
 5208SOL    HW117521   6.423   4.601   8.040
 5208SOL    HW217522   6.549   4.644   7.968
 5209SOL     OW17523   7.681   8.048  11.530
 5209SOL    HW117524   7.632   8.019  11.606
 5209SOL    HW217525   7.619   8.041  11.457
 5210SOL     OW17526   6.125   8.441   9.890
 5210SOL    HW117527   6.056   8.507   9.894
 5210SOL    HW217528   6.108   8.394   9.808
 5211SOL     OW17529  12.134   7.639  11.001
 5211SOL    HW117530  12.190   7.661  10.926
 5211SOL    HW217531  12.045   7.641  10.965
 5212SOL     OW17532  10.910   7.029   6.446
 5212SOL    HW117533  11.001   7.049   6.423
 5212SOL    HW217534  10.871   6.999   6.364
 5213SOL     OW17535   0.471   6.620   0.616
 5213SOL    HW117536   0.494   6.561   0.688
 5213SOL    HW217537   0.456   6.704   0.658
 5214SOL     OW17538  13.516   6.011   9.898
 5214SOL    HW117539  13.427   6.024   9.866
 5214SOL    HW217540  13.546   6.098   9.923
 5215SOL     OW17541   6.932   8.485  13.521
 5215SOL    HW117542   6.953   8.406  13.571
 5215SOL    HW217543   6.838   8.481  13.505
 5216SOL     OW17544  11.966   3.985   8.287
 5216SOL    HW117545  11.928   3.905   8.252
 5216SOL    HW217546  11.901   4.052   8.269
 5217SOL     OW17547   5.269  14.293   3.074
 5217SOL    HW117548   5.348  14.261   3.030
 5217SOL    HW217549   5.219  14.336   3.004
 5218SOL     OW17550   8.002   9.305  13.115
 5218SOL    HW117551   7.914   9.269  13.104
 5218SOL    HW217552   8.034   9.264  13.196
 5219SOL     OW17553  12.575   8.760   3.232
 5219SOL    HW117554  12.509   8.715   3.180
 5219SOL    HW217555  12.651   8.702   3.231
 5220SOL     OW17556  14.709   9.068   6.604
 5220SOL    HW117557  14.793   9.095   6.566
 5220SOL    HW217558  14.656   9.039   6.530
 5221SOL     OW17559   2.352   6.998   0.247
 5221SOL    HW117560   2.363   6.916   0.296
 5221SOL    HW217561   2.325   7.062   0.313
 5222SOL     OW17562  14.691  14.294  12.754
 5222SOL    HW117563  14.671  14.228  12.688
 5222SOL    HW217564  14.721  14.370  12.703
 5223SOL     OW17565   6.248   4.991   6.934
 5223SOL    HW117566   6.272   4.901   6.912
 5223SOL    HW217567   6.206   4.985   7.020
 5224SOL     OW17568   1.619   4.030   8.022
 5224SOL    HW117569   1.695   4.048   7.966
 5224SOL    HW217570   1.548   4.013   7.960
 5225SOL     OW17571   4.210   2.798   3.214
 5225SOL    HW117572   4.190   2.793   3.307
 5225SOL    HW217573   4.270   2.725   3.198
 5226SOL     OW17574  11.567   0.954  14.255
 5226SOL    HW117575  11.657   0.979  14.234
 5226SOL    HW217576  11.532   0.921  14.172
 5227SOL     OW17577  10.036   2.244   4.643
 5227SOL    HW117578   9.998   2.315   4.696
 5227SOL    HW217579  10.096   2.288   4.583
 5228SOL     OW17580  10.519   3.625  10.164
 5228SOL    HW117581  10.443   3.684  10.161
 5228SOL    HW217582  10.525   3.590  10.075
 5229SOL     OW17583  14.594  10.135   7.664
 5229SOL    HW117584  14.635  10.162   7.746
 5229SOL    HW217585  14.628  10.196   7.598
 5230SOL     OW17586   2.926   1.390   1.413
 5230SOL    HW117587   2.861   1.414   1.347
 5230SOL    HW217588   2.999   1.354   1.363
 5231SOL     OW17589   0.797   2.283  13.453
 5231SOL    HW117590   0.764   2.204  13.411
 5231SOL    HW217591   0.873   2.308  13.400
 5232SOL     OW17592   1.707   1.062   5.891
 5232SOL    HW117593   1.697   0.971   5.920
 5232SOL    HW217594   1.719   1.055   5.796
 5233SOL     OW17595   1.069   1.035   5.222
 5233SOL    HW117596   1.107   0.958   5.265
 5233SOL    HW217597   1.142   1.097   5.216
 5234SOL     OW17598   1.441  12.877  11.585
 5234SOL    HW117599   1.470  12.830  11.663
 5234SOL    HW217600   1.400  12.809  11.531
 5235SOL     OW17601   5.291  10.921   1.412
 5235SOL    HW117602   5.337  10.839   1.428
 5235SOL    HW217603   5.324  10.952   1.328
 5236SOL     OW17604   1.754   0.491  13.298
 5236SOL    HW117605   1.775   0.397  13.299
 5236SOL    HW217606   1.811   0.528  13.231
 5237SOL     OW17607   1.624  10.540   3.518
 5237SOL    HW117608   1.693  10.581   3.465
 5237SOL    HW217609   1.543  10.572   3.480
 5238SOL     OW17610   3.233  12.790   7.769
 5238SOL    HW117611   3.312  12.754   7.810
 5238SOL    HW217612   3.170  12.797   7.840
 5239SOL     OW17613   4.459   5.527   5.679
 5239SOL    HW117614   4.456   5.622   5.669
 5239SOL    HW217615   4.449   5.492   5.591
 5240SOL     OW17616  12.429  14.674  12.003
 5240SOL    HW117617  12.485  14.599  11.982
 5240SOL    HW217618  12.348  14.658  11.954
 5241SOL     OW17619   4.269   8.738   6.826
 5241SOL    HW117620   4.338   8.685   6.865
 5241SOL    HW217621   4.314   8.791   6.760
 5242SOL     OW17622   0.369  12.015  13.434
 5242SOL    HW117623   0.403  12.009  13.523
 5242SOL    HW217624   0.438  12.060  13.385
 5243SOL     OW17625   5.085   5.608   3.715
 5243SOL    HW117626   5.170   5.574   3.690
 5243SOL    HW217627   5.103   5.665   3.790
 5244SOL     OW17628   8.427   7.528   8.629
 5244SOL    HW117629   8.516   7.539   8.662
 5244SOL    HW217630   8.383   7.610   8.651
 5245SOL     OW17631   0.923   5.397   8.255
 5245SOL    HW117632   0.893   5.488   8.260
 5245SOL    HW217633   0.913   5.374   8.163
 5246SOL     OW17634   9.279  11.394   8.026
 5246SOL    HW117635   9.373  11.382   8.015
 5246SOL    HW217636   9.258  11.350   8.108
 5247SOL     OW17637   7.883   1.169   8.743
 5247SOL    HW117638   7.866   1.105   8.673
 5247SOL    HW217639   7.869   1.120   8.824
 5248SOL     OW17640  11.656  10.521   7.201
 5248SOL    HW117641  11.644  10.573   7.281
 5248SOL    HW217642  11.740  10.475   7.215
 5249SOL     OW17643   7.294   9.454  14.323
 5249SOL    HW117644   7.355   9.498  14.263
 5249SOL    HW217645   7.351   9.408  14.385
 5250SOL     OW17646   8.288  14.481   6.727
 5250SOL    HW117647   8.203  14.439   6.732
 5250SOL    HW217648   8.284  14.535   6.648
 5251SOL     OW17649   3.269   9.182   1.848
 5251SOL    HW117650   3.227   9.097   1.865
 5251SOL    HW217651   3.362   9.162   1.844
 5252SOL     OW17652   8.011  10.906  10.368
 5252SOL    HW117653   7.978  10.996  10.370
 5252SOL    HW217654   7.988  10.870  10.453
 5253SOL     OW17655   8.200  11.195   5.574
 5253SOL    HW117656   8.213  11.159   5.486
 5253SOL    HW217657   8.106  11.214   5.579
 5254SOL     OW17658   7.144  10.056   3.760
 5254SOL    HW117659   7.082  10.097   3.821
 5254SOL    HW217660   7.089  10.005   3.701
 5255SOL     OW17661  13.614   0.144   0.046
 5255SOL    HW117662  13.580   0.085   0.113
 5255SOL    HW217663  13.708   0.149   0.065
 5256SOL     OW17664   5.329  12.627  13.303
 5256SOL    HW117665   5.400  12.615  13.367
 5256SOL    HW217666   5.360  12.582  13.225
 5257SOL     OW17667  11.270   9.098   4.626
 5257SOL    HW117668  11.358   9.137   4.625
 5257SOL    HW217669  11.260   9.061   4.538
 5258SOL     OW17670  10.292  11.840   9.947
 5258SOL    HW117671  10.293  11.753   9.988
 5258SOL    HW217672  10.223  11.835   9.881
 5259SOL     OW17673   6.569   3.390   8.877
 5259SOL    HW117674   6.663   3.374   8.876
 5259SOL    HW217675   6.559   3.476   8.918
 5260SOL     OW17676   8.599   9.016   7.474
 5260SOL    HW117677   8.644   9.095   7.504
 5260SOL    HW217678   8.670   8.959   7.442
 5261SOL     OW17679   8.208  12.860  14.210
 5261SOL    HW117680   8.274  12.908  14.261
 5261SOL    HW217681   8.254  12.780  14.182
 5262SOL     OW17682   7.493   9.186  10.746
 5262SOL    HW117683   7.521   9.226  10.663
 5262SOL    HW217684   7.410   9.228  10.766
 5263SOL     OW17685   4.674  11.721   8.306
 5263SOL    HW117686   4.728  11.752   8.232
 5263SOL    HW217687   4.719  11.642   8.337
 5264SOL     OW17688  13.575   3.479  10.245
 5264SOL    HW117689  13.667   3.453  10.244
 5264SOL    HW217690  13.571   3.553  10.305
 5265SOL     OW17691  13.715  13.833  11.959
 5265SOL    HW117692  13.788  13.814  12.019
 5265SOL    HW217693  13.745  13.802  11.874
 5266SOL     OW17694  13.813   4.489   6.433
 5266SOL    HW117695  13.757   4.561   6.460
 5266SOL    HW217696  13.775   4.458   6.351
 5267SOL     OW17697   6.057  11.393  11.788
 5267SOL    HW117698   6.018  11.383  11.875
 5267SOL    HW217699   6.005  11.463  11.747
 5268SOL     OW17700   4.832   8.829   1.445
 5268SOL    HW117701   4.922   8.850   1.471
 5268SOL    HW217702   4.838   8.740   1.411
 5269SOL     OW17703   6.826   4.509   4.378
 5269SOL    HW117704   6.801   4.465   4.297
 5269SOL    HW217705   6.743   4.539   4.416
 5270SOL     OW17706   2.300  10.451   1.482
 5270SOL    HW117707   2.304  10.402   1.400
 5270SOL    HW217708   2.217  10.425   1.521
 5271SOL     OW17709  10.501  14.027   0.598
 5271SOL    HW117710  10.465  13.950   0.642
 5271SOL    HW217711  10.569  13.993   0.540
 5272SOL     OW17712  11.315   6.168   9.620
 5272SOL    HW117713  11.339   6.143   9.530
 5272SOL    HW217714  11.310   6.263   9.618
 5273SOL     OW17715   4.466  10.955   7.034
 5273SOL    HW117716   4.486  11.031   7.090
 5273SOL    HW217717   4.550  10.931   6.995
 5274SOL     OW17718   9.332   6.199  13.562
 5274SOL    HW117719   9.412   6.162  13.599
 5274SOL    HW217720   9.312   6.142  13.488
 5275SOL     OW17721  13.475  10.481   6.410
 5275SOL    HW117722  13.541  10.547   6.387
 5275SOL    HW217723  13.497  10.405   6.357
 5276SOL     OW17724  11.405   8.270  12.635
 5276SOL    HW117725  11.430   8.326  12.708
 5276SOL    HW217726  11.401   8.182  12.673
 5277SOL     OW17727   0.628   7.866   5.357
 5277SOL    HW117728   0.656   7.840   5.445
 5277SOL    HW217729   0.609   7.959   5.364
 5278SOL     OW17730   6.842   6.995  10.692
 5278SOL    HW117731   6.762   6.979  10.742
 5278SOL    HW217732   6.912   6.965  10.749
 5279SOL     OW17733   7.616   0.739   4.042
 5279SOL    HW117734   7.583   0.828   4.034
 5279SOL    HW217735   7.645   0.732   4.133
 5280SOL     OW17736  10.465   0.956   5.987
 5280SOL    HW117737  10.484   0.891   6.055
 5280SOL    HW217738  10.438   0.904   5.911
 5281SOL     OW17739  13.541  14.162   5.027
 5281SOL    HW117740  13.466  14.105   5.042
 5281SOL    HW217741  13.504  14.243   4.993
 5282SOL     OW17742  10.864   4.407   2.966
 5282SOL    HW117743  10.906   4.391   3.050
 5282SOL    HW217744  10.930   4.379   2.901
 5283SOL     OW17745   9.184   7.154  11.699
 5283SOL    HW117746   9.218   7.158  11.610
 5283SOL    HW217747   9.199   7.063  11.726
 5284SOL     OW17748   4.081  12.792   2.663
 5284SOL    HW117749   4.095  12.845   2.584
 5284SOL    HW217750   4.003  12.740   2.643
 5285SOL     OW17751   8.969  10.355   0.335
 5285SOL    HW117752   8.930  10.294   0.272
 5285SOL    HW217753   9.015  10.419   0.280
 5286SOL     OW17754   4.302   4.844   0.227
 5286SOL    HW117755   4.281   4.756   0.258
 5286SOL    HW217756   4.305   4.837   0.132
 5287SOL     OW17757  12.589  12.496  11.734
 5287SOL    HW117758  12.536  12.429  11.690
 5287SOL    HW217759  12.576  12.575  11.681
 5288SOL     OW17760  13.959  14.173  10.567
 5288SOL    HW117761  13.985  14.210  10.651
 5288SOL    HW217762  13.912  14.093  10.590
 5289SOL     OW17763   4.681  11.349   0.993
 5289SOL    HW117764   4.710  11.421   1.050
 5289SOL    HW217765   4.620  11.391   0.932
 5290SOL     OW17766  13.133   6.921   8.607
 5290SOL    HW117767  13.194   6.918   8.533
 5290SOL    HW217768  13.059   6.865   8.579
 5291SOL     OW17769  14.338  10.519   3.704
 5291SOL    HW117770  14.420  10.545   3.746
 5291SOL    HW217771  14.324  10.429   3.734
 5292SOL     OW17772   0.679  10.012   4.055
 5292SOL    HW117773   0.600   9.967   4.085
 5292SOL    HW217774   0.708  10.062   4.131
 5293SOL     OW17775   4.883  12.414   9.911
 5293SOL    HW117776   4.893  12.386   9.820
 5293SOL    HW217777   4.971  12.410   9.947
 5294SOL     OW17778   0.749  14.581  12.654
 5294SOL    HW117779   0.777  14.628  12.733
 5294SOL    HW217780   0.654  14.588  12.655
 5295SOL     OW17781   2.620   0.070  12.079
 5295SOL    HW117782   2.707   0.068  12.039
 5295SOL    HW217783   2.567   0.122  12.018
 5296SOL     OW17784  13.615   0.657  13.964
 5296SOL    HW117785  13.635   0.750  13.966
 5296SOL    HW217786  13.550   0.648  13.894
 5297SOL     OW17787  10.689  14.715  10.591
 5297SOL    HW117788  10.610  14.699  10.540
 5297SOL    HW217789  10.659  14.723  10.681
 5298SOL     OW17790   6.103   0.434   5.772
 5298SOL    HW117791   6.079   0.463   5.684
 5298SOL    HW217792   6.035   0.472   5.828
 5299SOL     OW17793   0.940   9.431   3.870
 5299SOL    HW117794   0.973   9.470   3.951
 5299SOL    HW217795   0.970   9.341   3.872
 5300SOL     OW17796  11.179  10.483   6.249
 5300SOL    HW117797  11.098  10.534   6.254
 5300SOL    HW217798  11.244  10.535   6.297
 5301SOL     OW17799  13.882   2.400   5.324
 5301SOL    HW117800  13.941   2.332   5.357
 5301SOL    HW217801  13.939   2.460   5.276
 5302SOL     OW17802  10.157   1.972  13.098
 5302SOL    HW117803  10.088   2.036  13.080
 5302SOL    HW217804  10.187   1.945  13.011
 5303SOL     OW17805   0.461   4.556   0.823
 5303SOL    HW117806   0.421   4.493   0.763
 5303SOL    HW217807   0.386   4.598   0.866
 5304SOL     OW17808   9.100   7.832   8.802
 5304SOL    HW117809   9.017   7.844   8.757
 5304SOL    HW217810   9.149   7.912   8.783
 5305SOL     OW17811  11.647   8.200   9.131
 5305SOL    HW117812  11.735   8.186   9.165
 5305SOL    HW217813  11.657   8.194   9.036
 5306SOL     OW17814  12.313   4.007   8.902
 5306SOL    HW117815  12.406   4.014   8.878
 5306SOL    HW217816  12.269   3.978   8.822
 5307SOL     OW17817   7.035  12.508  13.727
 5307SOL    HW117818   6.988  12.434  13.688
 5307SOL    HW217819   6.975  12.582  13.718
 5308SOL     OW17820   7.297  12.641  11.238
 5308SOL    HW117821   7.376  12.664  11.286
 5308SOL    HW217822   7.276  12.719  11.186
 5309SOL     OW17823   3.660   8.298   2.202
 5309SOL    HW117824   3.640   8.205   2.195
 5309SOL    HW217825   3.672   8.314   2.295
 5310SOL     OW17826   2.759  11.934   7.553
 5310SOL    HW117827   2.770  12.023   7.585
 5310SOL    HW217828   2.754  11.880   7.632
 5311SOL     OW17829  10.744   5.293  11.055
 5311SOL    HW117830  10.745   5.198  11.045
 5311SOL    HW217831  10.687   5.308  11.130
 5312SOL     OW17832   7.618  10.592  13.271
 5312SOL    HW117833   7.606  10.535  13.347
 5312SOL    HW217834   7.544  10.653  13.276
 5313SOL     OW17835   5.511  13.063  12.898
 5313SOL    HW117836   5.430  13.099  12.861
 5313SOL    HW217837   5.482  13.002  12.965
 5314SOL     OW17838   0.515  10.413   8.909
 5314SOL    HW117839   0.463  10.443   8.834
 5314SOL    HW217840   0.497  10.476   8.978
 5315SOL     OW17841   7.800   1.958  12.343
 5315SOL    HW117842   7.880   1.906  12.333
 5315SOL    HW217843   7.789   2.002  12.259
 5316SOL     OW17844  13.919   7.941   0.712
 5316SOL    HW117845  14.007   7.911   0.734
 5316SOL    HW217846  13.929   7.985   0.627
 5317SOL     OW17847   1.962  12.770   9.601
 5317SOL    HW117848   1.894  12.728   9.548
 5317SOL    HW217849   1.919  12.846   9.638
 5318SOL     OW17850   7.473   6.553  12.847
 5318SOL    HW117851   7.454   6.643  12.873
 5318SOL    HW217852   7.554   6.560  12.796
 5319SOL     OW17853  10.079   4.525   7.241
 5319SOL    HW117854  10.045   4.598   7.293
 5319SOL    HW217855  10.002   4.487   7.199
 5320SOL     OW17856   8.223   2.604  10.887
 5320SOL    HW117857   8.224   2.654  10.806
 5320SOL    HW217858   8.314   2.608  10.919
 5321SOL     OW17859  10.361   0.832   0.176
 5321SOL    HW117860  10.267   0.822   0.192
 5321SOL    HW217861  10.399   0.836   0.264
 5322SOL     OW17862   5.171  11.181  11.560
 5322SOL    HW117863   5.185  11.255  11.500
 5322SOL    HW217864   5.084  11.149  11.539
 5323SOL     OW17865   2.345  12.157   6.428
 5323SOL    HW117866   2.433  12.120   6.429
 5323SOL    HW217867   2.307  12.127   6.345
 5324SOL     OW17868   1.135   8.835   7.872
 5324SOL    HW117869   1.139   8.874   7.785
 5324SOL    HW217870   1.106   8.745   7.856
 5325SOL     OW17871   6.837   5.117   8.365
 5325SOL    HW117872   6.799   5.163   8.439
 5325SOL    HW217873   6.800   5.160   8.288
 5326SOL     OW17874   8.829   0.299  11.949
 5326SOL    HW117875   8.786   0.335  11.871
 5326SOL    HW217876   8.759   0.292  12.014
 5327SOL     OW17877   7.546   9.499  11.879
 5327SOL    HW117878   7.636   9.469  11.869
 5327SOL    HW217879   7.503   9.475  11.797
 5328SOL     OW17880   2.235  11.591   9.103
 5328SOL    HW117881   2.157  11.643   9.120
 5328SOL    HW217882   2.307  11.654   9.105
 5329SOL     OW17883   0.456   8.086   6.692
 5329SOL    HW117884   0.391   8.101   6.623
 5329SOL    HW217885   0.539   8.111   6.652
 5330SOL     OW17886   7.458  12.205  13.978
 5330SOL    HW117887   7.445  12.172  13.889
 5330SOL    HW217888   7.552  12.197  13.993
 5331SOL     OW17889  13.856   3.978   3.463
 5331SOL    HW117890  13.782   4.032   3.490
 5331SOL    HW217891  13.858   3.986   3.368
 5332SOL     OW17892  13.242  12.746   6.296
 5332SOL    HW117893  13.332  12.732   6.326
 5332SOL    HW217894  13.233  12.689   6.220
 5333SOL     OW17895  14.482   1.921  10.256
 5333SOL    HW117896  14.425   1.939  10.331
 5333SOL    HW217897  14.422   1.895  10.187
 5334SOL     OW17898  12.140   1.569   1.910
 5334SOL    HW117899  12.170   1.627   1.981
 5334SOL    HW217900  12.220   1.545   1.864
 5335SOL     OW17901   8.485   0.670   6.953
 5335SOL    HW117902   8.497   0.732   6.881
 5335SOL    HW217903   8.573   0.653   6.985
 5336SOL     OW17904   4.232   0.373   6.313
 5336SOL    HW117905   4.326   0.354   6.308
 5336SOL    HW217906   4.207   0.347   6.401
 5337SOL     OW17907   1.627   0.896   6.965
 5337SOL    HW117908   1.631   0.991   6.954
 5337SOL    HW217909   1.676   0.879   7.046
 5338SOL     OW17910   2.631   7.881   0.251
 5338SOL    HW117911   2.693   7.881   0.177
 5338SOL    HW217912   2.562   7.942   0.225
 5339SOL     OW17913   4.988  11.628  14.170
 5339SOL    HW117914   5.039  11.547  14.166
 5339SOL    HW217915   5.022  11.682  14.099
 5340SOL     OW17916   2.087   9.264   3.581
 5340SOL    HW117917   2.103   9.206   3.507
 5340SOL    HW217918   2.169   9.311   3.594
 5341SOL     OW17919  13.592  12.665   3.043
 5341SOL    HW117920  13.646  12.653   2.965
 5341SOL    HW217921  13.572  12.576   3.073
 5342SOL     OW17922   5.555   8.795  14.212
 5342SOL    HW117923   5.628   8.828  14.160
 5342SOL    HW217924   5.504   8.873  14.233
 5343SOL     OW17925   7.024   8.531  13.958
 5343SOL    HW117926   6.943   8.511  13.911
 5343SOL    HW217927   6.998   8.534  14.051
 5344SOL     OW17928   4.491  13.286   8.978
 5344SOL    HW117929   4.533  13.367   8.948
 5344SOL    HW217930   4.516  13.220   8.914
 5345SOL     OW17931   6.069   5.461  11.107
 5345SOL    HW117932   6.095   5.416  11.188
 5345SOL    HW217933   5.977   5.437  11.095
 5346SOL     OW17934   7.103   0.087   7.360
 5346SOL    HW117935   7.033   0.085   7.425
 5346SOL    HW217936   7.183   0.088   7.411
 5347SOL     OW17937  10.343  14.568  13.516
 5347SOL    HW117938  10.252  14.564  13.545
 5347SOL    HW217939  10.381  14.642  13.563
 5348SOL     OW17940  13.124   3.626  10.740
 5348SOL    HW117941  13.220   3.629  10.732
 5348SOL    HW217942  13.103   3.533  10.743
 5349SOL     OW17943   1.044  11.497  13.574
 5349SOL    HW117944   0.988  11.521  13.648
 5349SOL    HW217945   1.054  11.402  13.580
 5350SOL     OW17946   3.494   7.821   4.268
 5350SOL    HW117947   3.442   7.754   4.225
 5350SOL    HW217948   3.535   7.776   4.342
 5351SOL     OW17949  11.433   6.519   6.374
 5351SOL    HW117950  11.413   6.434   6.414
 5351SOL    HW217951  11.358   6.574   6.395
 5352SOL     OW17952   6.276   4.449  12.372
 5352SOL    HW117953   6.220   4.387  12.325
 5352SOL    HW217954   6.265   4.531  12.325
 5353SOL     OW17955   7.009   0.392   8.870
 5353SOL    HW117956   6.984   0.432   8.787
 5353SOL    HW217957   6.946   0.429   8.933
 5354SOL     OW17958   3.480   2.441   8.740
 5354SOL    HW117959   3.515   2.508   8.681
 5354SOL    HW217960   3.459   2.489   8.820
 5355SOL     OW17961  10.711   3.502  14.757
 5355SOL    HW117962  10.749   3.576  14.806
 5355SOL    HW217963  10.787   3.451  14.728
 5356SOL     OW17964   7.899  14.605   0.661
 5356SOL    HW117965   7.859  14.660   0.728
 5356SOL    HW217966   7.993  14.618   0.672
 5357SOL     OW17967   0.320  12.077  10.299
 5357SOL    HW117968   0.410  12.100  10.326
 5357SOL    HW217969   0.295  12.147  10.238
 5358SOL     OW17970   3.594   3.798   8.556
 5358SOL    HW117971   3.616   3.841   8.639
 5358SOL    HW217972   3.563   3.870   8.500
 5359SOL     OW17973   1.361   1.479   2.585
 5359SOL    HW117974   1.343   1.402   2.530
 5359SOL    HW217975   1.414   1.444   2.656
 5360SOL     OW17976   8.702  12.326   4.322
 5360SOL    HW117977   8.702  12.355   4.230
 5360SOL    HW217978   8.612  12.296   4.337
 5361SOL     OW17979  12.950   7.722   9.871
 5361SOL    HW117980  12.988   7.755   9.790
 5361SOL    HW217981  12.950   7.627   9.860
 5362SOL     OW17982   9.175   1.333   3.623
 5362SOL    HW117983   9.121   1.406   3.590
 5362SOL    HW217984   9.162   1.263   3.559
 5363SOL     OW17985   2.482  14.698  12.488
 5363SOL    HW117986   2.499  14.609  12.458
 5363SOL    HW217987   2.418  14.732  12.425
 5364SOL     OW17988   9.972   4.104   4.883
 5364SOL    HW117989  10.004   4.132   4.797
 5364SOL    HW217990   9.920   4.026   4.866
 5365SOL     OW17991   3.394   1.630   3.214
 5365SOL    HW117992   3.464   1.615   3.279
 5365SOL    HW217993   3.314   1.604   3.259
 5366SOL     OW17994   3.618   6.751  12.227
 5366SOL    HW117995   3.689   6.772  12.288
 5366SOL    HW217996   3.577   6.835  12.207
 5367SOL     OW17997   2.524   1.640   1.302
 5367SOL    HW117998   2.579   1.618   1.377
 5367SOL    HW217999   2.534   1.735   1.292
 5368SOL     OW18000   2.039   7.077   8.228
 5368SOL    HW118001   1.962   7.092   8.283
 5368SOL    HW218002   2.113   7.105   8.282
 5369SOL     OW18003   2.279   9.376  11.103
 5369SOL    HW118004   2.357   9.431  11.100
 5369SOL    HW218005   2.253   9.367  11.011
 5370SOL     OW18006   4.888   8.277   6.538
 5370SOL    HW118007   4.951   8.304   6.605
 5370SOL    HW218008   4.884   8.181   6.547
 5371SOL     OW18009  10.515  10.543  11.980
 5371SOL    HW118010  10.485  10.597  11.907
 5371SOL    HW218011  10.610  10.547  11.975
 5372SOL     OW18012  11.502   8.521   3.805
 5372SOL    HW118013  11.490   8.510   3.711
 5372SOL    HW218014  11.583   8.473   3.825
 5373SOL     OW18015   7.028  11.315  10.659
 5373SOL    HW118016   7.062  11.404  10.666
 5373SOL    HW218017   7.020  11.299  10.565
 5374SOL     OW18018   6.858   9.349   2.312
 5374SOL    HW118019   6.889   9.308   2.392
 5374SOL    HW218020   6.833   9.437   2.338
 5375SOL     OW18021   7.845  10.392   3.913
 5375SOL    HW118022   7.810  10.480   3.931
 5375SOL    HW218023   7.883  10.399   3.825
 5376SOL     OW18024  14.434   2.741   4.146
 5376SOL    HW118025  14.482   2.687   4.209
 5376SOL    HW218026  14.343   2.715   4.156
 5377SOL     OW18027   0.415   2.201   3.747
 5377SOL    HW118028   0.327   2.194   3.785
 5377SOL    HW218029   0.428   2.295   3.734
 5378SOL     OW18030   9.279   6.865   5.326
 5378SOL    HW118031   9.322   6.901   5.403
 5378SOL    HW218032   9.330   6.898   5.252
 5379SOL     OW18033   6.663  11.810   9.281
 5379SOL    HW118034   6.668  11.905   9.270
 5379SOL    HW218035   6.621  11.779   9.201
 5380SOL     OW18036   0.576  13.511   6.700
 5380SOL    HW118037   0.561  13.431   6.651
 5380SOL    HW218038   0.491  13.530   6.741
 5381SOL     OW18039   4.930   7.113  11.421
 5381SOL    HW118040   4.979   7.031  11.420
 5381SOL    HW218041   4.932   7.140  11.513
 5382SOL     OW18042   7.739  13.878   7.722
 5382SOL    HW118043   7.819  13.874   7.774
 5382SOL    HW218044   7.713  13.970   7.724
 5383SOL     OW18045   1.099   1.362  10.771
 5383SOL    HW118046   1.108   1.426  10.700
 5383SOL    HW218047   1.030   1.303  10.741
 5384SOL     OW18048   1.824   9.098   5.216
 5384SOL    HW118049   1.766   9.140   5.152
 5384SOL    HW218050   1.897   9.160   5.226
 5385SOL     OW18051   1.397   6.504   8.025
 5385SOL    HW118052   1.370   6.437   7.962
 5385SOL    HW218053   1.449   6.565   7.973
 5386SOL     OW18054  14.221   9.776   5.983
 5386SOL    HW118055  14.253   9.698   6.029
 5386SOL    HW218056  14.221   9.750   5.891
 5387SOL     OW18057  12.680  14.633  11.190
 5387SOL    HW118058  12.711  14.556  11.143
 5387SOL    HW218059  12.621  14.677  11.129
 5388SOL     OW18060   3.470  11.232   0.253
 5388SOL    HW118061   3.421  11.160   0.215
 5388SOL    HW218062   3.499  11.284   0.178
 5389SOL     OW18063  10.778  13.939   0.459
 5389SOL    HW118064  10.820  13.987   0.387
 5389SOL    HW218065  10.849  13.923   0.522
 5390SOL     OW18066   6.888  13.834  11.440
 5390SOL    HW118067   6.884  13.811  11.532
 5390SOL    HW218068   6.980  13.823  11.416
 5391SOL     OW18069  13.324   6.045   2.628
 5391SOL    HW118070  13.415   6.015   2.630
 5391SOL    HW218071  13.275   5.974   2.670
 5392SOL     OW18072   7.482   9.254   8.716
 5392SOL    HW118073   7.439   9.193   8.657
 5392SOL    HW218074   7.479   9.211   8.802
 5393SOL     OW18075   0.133  10.179   9.804
 5393SOL    HW118076   0.086  10.097   9.788
 5393SOL    HW218077   0.198  10.157   9.871
 5394SOL     OW18078  11.097   1.980   6.036
 5394SOL    HW118079  11.085   2.032   6.116
 5394SOL    HW218080  11.176   2.015   5.997
 5395SOL     OW18081   1.726   7.925  12.585
 5395SOL    HW118082   1.760   7.840  12.556
 5395SOL    HW218083   1.632   7.910  12.596
 5396SOL     OW18084   9.141  12.541   9.224
 5396SOL    HW118085   9.150  12.450   9.197
 5396SOL    HW218086   9.065  12.573   9.175
 5397SOL     OW18087   1.626   6.999  12.856
 5397SOL    HW118088   1.560   6.948  12.810
 5397SOL    HW218089   1.643   7.074  12.799
 5398SOL     OW18090   3.360   3.111   6.243
 5398SOL    HW118091   3.314   3.151   6.169
 5398SOL    HW218092   3.299   3.118   6.316
 5399SOL     OW18093  14.509   9.994   6.147
 5399SOL    HW118094  14.463  10.077   6.152
 5399SOL    HW218095  14.464   9.938   6.210
 5400SOL     OW18096  14.026   6.683  12.336
 5400SOL    HW118097  14.056   6.612  12.279
 5400SOL    HW218098  14.071   6.761  12.302
 5401SOL     OW18099   1.659   0.854   0.883
 5401SOL    HW118100   1.639   0.764   0.857
 5401SOL    HW218101   1.657   0.903   0.801
 5402SOL     OW18102   9.470   1.187   6.672
 5402SOL    HW118103   9.499   1.097   6.658
 5402SOL    HW218104   9.462   1.196   6.767
 5403SOL     OW18105  12.810  10.350   5.148
 5403SOL    HW118106  12.821  10.352   5.053
 5403SOL    HW218107  12.869  10.418   5.180
 5404SOL     OW18108   1.670   6.776   2.213
 5404SOL    HW118109   1.691   6.849   2.156
 5404SOL    HW218110   1.576   6.762   2.201
 5405SOL     OW18111   1.276   2.718  14.776
 5405SOL    HW118112   1.210   2.649  14.779
 5405SOL    HW218113   1.286   2.746  14.867
 5406SOL     OW18114   0.005  11.820  10.074
 5406SOL    HW118115   0.037  11.827  10.164
 5406SOL    HW218116  14.853  11.727  10.063
 5407SOL     OW18117  11.564   6.412  14.080
 5407SOL    HW118118  11.638   6.451  14.128
 5407SOL    HW218119  11.601   6.334  14.039
 5408SOL     OW18120   0.193   0.719   4.885
 5408SOL    HW118121   0.117   0.772   4.863
 5408SOL    HW218122   0.238   0.704   4.802
 5409SOL     OW18123   6.977   9.870   3.622
 5409SOL    HW118124   6.940   9.830   3.544
 5409SOL    HW218125   6.904   9.874   3.684
 5410SOL     OW18126   3.842   6.066   3.449
 5410SOL    HW118127   3.749   6.041   3.447
 5410SOL    HW218128   3.864   6.087   3.359
 5411SOL     OW18129  13.820   8.445   6.740
 5411SOL    HW118130  13.907   8.467   6.705
 5411SOL    HW218131  13.775   8.529   6.748
 5412SOL     OW18132   0.512  10.056   5.719
 5412SOL    HW118133   0.554  10.140   5.700
 5412SOL    HW218134   0.469  10.070   5.804
 5413SOL     OW18135   9.044   8.030   6.161
 5413SOL    HW118136   9.073   8.121   6.164
 5413SOL    HW218137   8.998   8.017   6.244
 5414SOL     OW18138   7.111   4.827   1.495
 5414SOL    HW118139   7.188   4.847   1.442
 5414SOL    HW218140   7.147   4.798   1.579
 5415SOL     OW18141  10.398   5.076   8.465
 5415SOL    HW118142  10.367   5.033   8.545
 5415SOL    HW218143  10.344   5.155   8.458
 5416SOL     OW18144   3.838   2.956   5.850
 5416SOL    HW118145   3.892   2.919   5.781
 5416SOL    HW218146   3.833   2.886   5.916
 5417SOL     OW18147   5.727  10.127   3.515
 5417SOL    HW118148   5.675  10.048   3.498
 5417SOL    HW218149   5.682  10.170   3.588
 5418SOL     OW18150   2.823   8.312   3.529
 5418SOL    HW118151   2.898   8.291   3.474
 5418SOL    HW218152   2.752   8.257   3.495
 5419SOL     OW18153   7.248   0.178   6.589
 5419SOL    HW118154   7.257   0.086   6.616
 5419SOL    HW218155   7.180   0.177   6.522
 5420SOL     OW18156   2.405   3.745   8.894
 5420SOL    HW118157   2.343   3.758   8.822
 5420SOL    HW218158   2.353   3.702   8.962
 5421SOL     OW18159   7.530   7.846   6.964
 5421SOL    HW118160   7.569   7.911   6.905
 5421SOL    HW218161   7.605   7.808   7.010
 5422SOL     OW18162   5.598  13.453   7.584
 5422SOL    HW118163   5.531  13.386   7.594
 5422SOL    HW218164   5.562  13.516   7.521
 5423SOL     OW18165  14.782  11.123   3.733
 5423SOL    HW118166  14.737  11.192   3.685
 5423SOL    HW218167  14.863  11.165   3.765
 5424SOL     OW18168  11.025   0.647   2.230
 5424SOL    HW118169  11.092   0.619   2.168
 5424SOL    HW218170  10.963   0.697   2.177
 5425SOL     OW18171   6.225   5.218  10.044
 5425SOL    HW118172   6.185   5.149   9.991
 5425SOL    HW218173   6.317   5.194  10.050
 5426SOL     OW18174   9.361   3.839   5.282
 5426SOL    HW118175   9.439   3.873   5.239
 5426SOL    HW218176   9.289   3.889   5.243
 5427SOL     OW18177  10.834   9.911   2.990
 5427SOL    HW118178  10.770   9.865   2.936
 5427SOL    HW218179  10.897   9.946   2.927
 5428SOL     OW18180   4.425  11.662   1.571
 5428SOL    HW118181   4.401  11.630   1.484
 5428SOL    HW218182   4.437  11.756   1.559
 5429SOL     OW18183  14.177   8.327   7.206
 5429SOL    HW118184  14.197   8.419   7.223
 5429SOL    HW218185  14.123   8.329   7.127
 5430SOL     OW18186   8.117  13.334   7.922
 5430SOL    HW118187   8.155  13.318   7.835
 5430SOL    HW218188   8.086  13.424   7.918
 5431SOL     OW18189   6.946   7.441  13.411
 5431SOL    HW118190   7.019   7.419  13.469
 5431SOL    HW218191   6.882   7.372  13.427
 5432SOL     OW18192   7.807  14.621   8.886
 5432SOL    HW118193   7.735  14.558   8.876
 5432SOL    HW218194   7.780  14.678   8.958
 5433SOL     OW18195   1.982   5.568  10.338
 5433SOL    HW118196   2.072   5.551  10.312
 5433SOL    HW218197   1.977   5.537  10.429
 5434SOL     OW18198  14.369   3.898   1.901
 5434SOL    HW118199  14.311   3.823   1.907
 5434SOL    HW218200  14.370   3.921   1.808
 5435SOL     OW18201  12.476  11.512   3.230
 5435SOL    HW118202  12.459  11.430   3.184
 5435SOL    HW218203  12.528  11.486   3.306
 5436SOL     OW18204   6.862  14.544   6.827
 5436SOL    HW118205   6.933  14.603   6.852
 5436SOL    HW218206   6.858  14.480   6.899
 5437SOL     OW18207   0.034   9.179   7.476
 5437SOL    HW118208  14.820   9.195   7.524
 5437SOL    HW218209   0.006   9.143   7.392
 5438SOL     OW18210   1.640   6.526   2.652
 5438SOL    HW118211   1.731   6.498   2.652
 5438SOL    HW218212   1.643   6.620   2.636
 5439SOL     OW18213   1.606  10.766  10.613
 5439SOL    HW118214   1.617  10.699  10.681
 5439SOL    HW218215   1.691  10.809  10.607
 5440SOL     OW18216   4.170  13.959   5.818
 5440SOL    HW118217   4.235  13.927   5.756
 5440SOL    HW218218   4.175  14.054   5.811
 5441SOL     OW18219   4.165   5.448   7.519
 5441SOL    HW118220   4.100   5.517   7.528
 5441SOL    HW218221   4.248   5.494   7.513
 5442SOL     OW18222   5.773   7.831   1.943
 5442SOL    HW118223   5.704   7.796   1.999
 5442SOL    HW218224   5.742   7.815   1.854
 5443SOL     OW18225   4.965   7.344   3.854
 5443SOL    HW118226   4.959   7.379   3.943
 5443SOL    HW218227   4.942   7.418   3.798
 5444SOL     OW18228   0.964  14.226   9.479
 5444SOL    HW118229   1.042  14.273   9.509
 5444SOL    HW218230   0.996  14.172   9.407
 5445SOL     OW18231   5.553   0.165   2.473
 5445SOL    HW118232   5.545   0.260   2.484
 5445SOL    HW218233   5.518   0.149   2.385
 5446SOL     OW18234   4.502  11.007   0.267
 5446SOL    HW118235   4.525  10.971   0.353
 5446SOL    HW218236   4.435  11.072   0.286
 5447SOL     OW18237  10.431   0.909   1.676
 5447SOL    HW118238  10.430   0.918   1.581
 5447SOL    HW218239  10.375   0.981   1.707
 5448SOL     OW18240   2.891   0.097   9.495
 5448SOL    HW118241   2.932   0.179   9.524
 5448SOL    HW218242   2.850   0.119   9.411
 5449SOL     OW18243   0.519   2.408  12.627
 5449SOL    HW118244   0.466   2.487  12.639
 5449SOL    HW218245   0.557   2.392  12.714
 5450SOL     OW18246  12.768   0.908   6.904
 5450SOL    HW118247  12.840   0.919   6.842
 5450SOL    HW218248  12.712   0.841   6.863
 5451SOL     OW18249   8.189  11.517  13.439
 5451SOL    HW118250   8.166  11.596  13.487
 5451SOL    HW218251   8.115  11.458  13.454
 5452SOL     OW18252   9.708   0.556   9.786
 5452SOL    HW118253   9.763   0.482   9.761
 5452SOL    HW218254   9.687   0.541   9.878
 5453SOL     OW18255   7.813   6.876  10.173
 5453SOL    HW118256   7.720   6.856  10.184
 5453SOL    HW218257   7.818   6.971  10.178
 5454SOL     OW18258   6.575  14.816   1.324
 5454SOL    HW118259   6.488  14.789   1.354
 5454SOL    HW218260   6.588   0.034   1.363
 5455SOL     OW18261   7.188   1.263   2.589
 5455SOL    HW118262   7.229   1.344   2.621
 5455SOL    HW218263   7.238   1.241   2.510
 5456SOL     OW18264  12.786   3.413  11.766
 5456SOL    HW118265  12.753   3.500  11.746
 5456SOL    HW218266  12.757   3.396  11.856
 5457SOL     OW18267   2.836   8.537   9.156
 5457SOL    HW118268   2.813   8.576   9.240
 5457SOL    HW218269   2.831   8.443   9.170
 5458SOL     OW18270  14.482   2.812  11.811
 5458SOL    HW118271  14.434   2.770  11.739
 5458SOL    HW218272  14.568   2.833  11.774
 5459SOL     OW18273   9.452   8.324   0.914
 5459SOL    HW118274   9.526   8.296   0.968
 5459SOL    HW218275   9.406   8.243   0.893
 5460SOL     OW18276   6.878   6.074   5.839
 5460SOL    HW118277   6.852   6.044   5.752
 5460SOL    HW218278   6.812   6.036   5.898
 5461SOL     OW18279   7.699   5.807   7.021
 5461SOL    HW118280   7.687   5.809   7.116
 5461SOL    HW218281   7.618   5.844   6.986
 5462SOL     OW18282   3.672   3.641   4.504
 5462SOL    HW118283   3.671   3.579   4.431
 5462SOL    HW218284   3.599   3.701   4.486
 5463SOL     OW18285   9.552   7.085   1.493
 5463SOL    HW118286   9.501   7.158   1.456
 5463SOL    HW218287   9.491   7.011   1.494
 5464SOL     OW18288   8.719  12.698   3.812
 5464SOL    HW118289   8.796  12.643   3.828
 5464SOL    HW218290   8.674  12.700   3.897
 5465SOL     OW18291  12.174   2.765   4.816
 5465SOL    HW118292  12.118   2.754   4.740
 5465SOL    HW218293  12.123   2.819   4.876
 5466SOL     OW18294   2.629   9.293   5.030
 5466SOL    HW118295   2.634   9.198   5.034
 5466SOL    HW218296   2.697   9.318   4.967
 5467SOL     OW18297   8.153   4.328   7.509
 5467SOL    HW118298   8.132   4.409   7.461
 5467SOL    HW218299   8.136   4.350   7.600
 5468SOL     OW18300   3.251   7.234  10.856
 5468SOL    HW118301   3.215   7.177  10.788
 5468SOL    HW218302   3.251   7.180  10.935
 5469SOL     OW18303   7.464   5.938   4.711
 5469SOL    HW118304   7.510   6.022   4.717
 5469SOL    HW218305   7.534   5.875   4.692
 5470SOL     OW18306  12.502   5.090  12.749
 5470SOL    HW118307  12.493   5.051  12.662
 5470SOL    HW218308  12.537   5.019  12.803
 5471SOL     OW18309   5.871  13.644  14.211
 5471SOL    HW118310   5.879  13.732  14.172
 5471SOL    HW218311   5.959  13.607  14.205
 5472SOL     OW18312  11.373   1.808   5.619
 5472SOL    HW118313  11.425   1.859   5.680
 5472SOL    HW218314  11.333   1.873   5.561
 5473SOL     OW18315   2.875   1.753   0.526
 5473SOL    HW118316   2.809   1.715   0.467
 5473SOL    HW218317   2.900   1.681   0.583
 5474SOL     OW18318  11.300   7.574   4.254
 5474SOL    HW118319  11.313   7.646   4.317
 5474SOL    HW218320  11.384   7.529   4.251
 5475SOL     OW18321   9.630  10.603   6.390
 5475SOL    HW118322   9.683  10.681   6.411
 5475SOL    HW218323   9.543  10.624   6.422
 5476SOL     OW18324  10.341   2.893  12.707
 5476SOL    HW118325  10.308   2.803  12.699
 5476SOL    HW218326  10.271   2.941  12.751
 5477SOL     OW18327   8.432   1.865   1.865
 5477SOL    HW118328   8.509   1.807   1.866
 5477SOL    HW218329   8.362   1.810   1.829
 5478SOL     OW18330  10.943   9.894   5.666
 5478SOL    HW118331  11.007   9.928   5.604
 5478SOL    HW218332  10.942   9.799   5.650
 5479SOL     OW18333   5.120   2.189   5.731
 5479SOL    HW118334   5.081   2.265   5.687
 5479SOL    HW218335   5.048   2.153   5.784
 5480SOL     OW18336   7.924   8.225  14.138
 5480SOL    HW118337   7.882   8.248  14.056
 5480SOL    HW218338   7.852   8.205  14.198
 5481SOL     OW18339  10.055   1.331   4.775
 5481SOL    HW118340  10.113   1.388   4.825
 5481SOL    HW218341  10.113   1.287   4.713
 5482SOL     OW18342   4.557   7.254  10.695
 5482SOL    HW118343   4.492   7.310  10.652
 5482SOL    HW218344   4.590   7.308  10.767
 5483SOL     OW18345  14.002   5.225   8.326
 5483SOL    HW118346  14.009   5.320   8.318
 5483SOL    HW218347  14.020   5.208   8.419
 5484SOL     OW18348   8.634   5.884   8.834
 5484SOL    HW118349   8.657   5.924   8.919
 5484SOL    HW218350   8.541   5.904   8.823
 5485SOL     OW18351   7.883   2.468   4.721
 5485SOL    HW118352   7.883   2.406   4.794
 5485SOL    HW218353   7.880   2.554   4.763
 5486SOL     OW18354   1.207   2.504   0.552
 5486SOL    HW118355   1.246   2.488   0.638
 5486SOL    HW218356   1.261   2.452   0.491
 5487SOL     OW18357   3.320   4.832   2.667
 5487SOL    HW118358   3.393   4.846   2.607
 5487SOL    HW218359   3.263   4.770   2.622
 5488SOL     OW18360   7.067   9.023   8.856
 5488SOL    HW118361   7.123   9.093   8.823
 5488SOL    HW218362   7.075   9.028   8.951
 5489SOL     OW18363   0.934   0.113   5.164
 5489SOL    HW118364   1.025   0.116   5.137
 5489SOL    HW218365   0.885   0.092   5.084
 5490SOL     OW18366   6.184  12.398   7.468
 5490SOL    HW118367   6.124  12.434   7.403
 5490SOL    HW218368   6.192  12.305   7.445
 5491SOL     OW18369   0.507  14.787  11.072
 5491SOL    HW118370   0.599  14.804  11.054
 5491SOL    HW218371   0.503  14.694  11.095
 5492SOL     OW18372  13.333   6.576  13.483
 5492SOL    HW118373  13.319   6.668  13.502
 5492SOL    HW218374  13.364   6.539  13.565
 5493SOL     OW18375  14.508   4.680   0.766
 5493SOL    HW118376  14.429   4.625   0.764
 5493SOL    HW218377  14.475   4.767   0.791
 5494SOL     OW18378   3.846   6.880   0.830
 5494SOL    HW118379   3.906   6.905   0.900
 5494SOL    HW218380   3.866   6.939   0.758
 5495SOL     OW18381   7.112   9.732   7.420
 5495SOL    HW118382   7.108   9.718   7.515
 5495SOL    HW218383   7.200   9.703   7.395
 5496SOL     OW18384   7.217   5.144   4.023
 5496SOL    HW118385   7.277   5.145   4.098
 5496SOL    HW218386   7.135   5.180   4.057
 5497SOL     OW18387   9.129   4.845  13.465
 5497SOL    HW118388   9.138   4.853  13.370
 5497SOL    HW218389   9.170   4.924  13.500
 5498SOL     OW18390   5.524   9.642   9.626
 5498SOL    HW118391   5.556   9.728   9.600
 5498SOL    HW218392   5.429   9.653   9.634
 5499SOL     OW18393  13.459  14.609   8.318
 5499SOL    HW118394  13.457  14.554   8.396
 5499SOL    HW218395  13.518  14.681   8.341
 5500SOL     OW18396  10.886   2.725  13.724
 5500SOL    HW118397  10.974   2.749  13.753
 5500SOL    HW218398  10.869   2.780  13.648
 5501SOL     OW18399  11.144  12.629   3.008
 5501SOL    HW118400  11.142  12.535   2.992
 5501SOL    HW218401  11.075  12.665   2.952
 5502SOL     OW18402   7.565  11.657  10.992
 5502SOL    HW118403   7.515  11.664  10.911
 5502SOL    HW218404   7.581  11.748  11.018
 5503SOL     OW18405   1.399   0.862   1.940
 5503SOL    HW118406   1.378   0.907   2.022
 5503SOL    HW218407   1.406   0.770   1.964
 5504SOL     OW18408   1.747   0.650  12.526
 5504SOL    HW118409   1.731   0.636  12.619
 5504SOL    HW218410   1.674   0.704  12.497
 5505SOL     OW18411   2.745  11.821   7.789
 5505SOL    HW118412   2.722  11.730   7.808
 5505SOL    HW218413   2.728  11.867   7.871
 5506SOL     OW18414  12.209   3.159  14.855
 5506SOL    HW118415  12.227   3.068   0.010
 5506SOL    HW218416  12.291   3.192  14.820
 5507SOL     OW18417   4.516   7.341   1.909
 5507SOL    HW118418   4.430   7.304   1.929
 5507SOL    HW218419   4.577   7.270   1.929
 5508SOL     OW18420  14.178   0.881   0.292
 5508SOL    HW118421  14.256   0.899   0.238
 5508SOL    HW218422  14.124   0.959   0.281
 5509SOL     OW18423  10.800  12.446  14.066
 5509SOL    HW118424  10.830  12.534  14.042
 5509SOL    HW218425  10.858  12.419  14.137
 5510SOL     OW18426   1.794   6.841  11.431
 5510SOL    HW118427   1.701   6.819  11.432
 5510SOL    HW218428   1.801   6.919  11.486
 5511SOL     OW18429   9.512  10.632   3.201
 5511SOL    HW118430   9.534  10.643   3.294
 5511SOL    HW218431   9.536  10.715   3.161
 5512SOL     OW18432  14.609  11.398  12.078
 5512SOL    HW118433  14.653  11.411  12.161
 5512SOL    HW218434  14.530  11.349  12.100
 5513SOL     OW18435   1.413   4.250  13.942
 5513SOL    HW118436   1.335   4.198  13.961
 5513SOL    HW218437   1.484   4.186  13.937
 5514SOL     OW18438   3.616   6.375  14.640
 5514SOL    HW118439   3.685   6.437  14.615
 5514SOL    HW218440   3.636   6.297  14.589
 5515SOL     OW18441   6.903   3.415  14.229
 5515SOL    HW118442   6.936   3.328  14.250
 5515SOL    HW218443   6.848   3.439  14.304
 5516SOL     OW18444  13.035   5.587   7.736
 5516SOL    HW118445  13.080   5.503   7.744
 5516SOL    HW218446  13.039   5.624   7.824
 5517SOL     OW18447   5.369  11.104  10.307
 5517SOL    HW118448   5.284  11.062  10.297
 5517SOL    HW218449   5.419  11.078  10.230
 5518SOL     OW18450  12.356  10.603   3.576
 5518SOL    HW118451  12.272  10.649   3.571
 5518SOL    HW218452  12.342  10.534   3.641
 5519SOL     OW18453   6.970   7.483   3.840
 5519SOL    HW118454   6.891   7.513   3.796
 5519SOL    HW218455   6.940   7.417   3.902
 5520SOL     OW18456   5.783   2.209   6.458
 5520SOL    HW118457   5.748   2.125   6.489
 5520SOL    HW218458   5.873   2.190   6.432
 5521SOL     OW18459   3.518   0.228   0.203
 5521SOL    HW118460   3.426   0.201   0.201
 5521SOL    HW218461   3.566   0.148   0.224
 5522SOL     OW18462   4.818  12.834  14.449
 5522SOL    HW118463   4.782  12.920  14.472
 5522SOL    HW218464   4.804  12.781  14.528
 5523SOL     OW18465   8.056   3.107  14.332
 5523SOL    HW118466   8.060   3.195  14.295
 5523SOL    HW218467   8.066   3.120  14.427
 5524SOL     OW18468  14.621   9.918   2.699
 5524SOL    HW118469  14.715   9.917   2.715
 5524SOL    HW218470  14.587   9.981   2.763
 5525SOL     OW18471   0.199   6.271   0.974
 5525SOL    HW118472   0.138   6.278   0.900
 5525SOL    HW218473   0.272   6.219   0.940
 5526SOL     OW18474   6.034   1.689  13.516
 5526SOL    HW118475   5.959   1.725  13.563
 5526SOL    HW218476   6.001   1.671  13.428
 5527SOL     OW18477   0.001   6.471  11.883
 5527SOL    HW118478   0.026   6.380  11.893
 5527SOL    HW218479   0.038   6.498  11.799
 5528SOL     OW18480   0.652   5.811  11.473
 5528SOL    HW118481   0.575   5.785  11.524
 5528SOL    HW218482   0.644   5.905  11.463
 5529SOL     OW18483   8.191   7.261   6.227
 5529SOL    HW118484   8.279   7.245   6.261
 5529SOL    HW218485   8.149   7.314   6.294
 5530SOL     OW18486  10.654  12.843   9.528
 5530SOL    HW118487  10.616  12.814   9.611
 5530SOL    HW218488  10.717  12.775   9.505
 5531SOL     OW18489   4.931   7.639   5.082
 5531SOL    HW118490   4.941   7.734   5.072
 5531SOL    HW218491   4.922   7.626   5.176
 5532SOL     OW18492  11.839   1.040   0.229
 5532SOL    HW118493  11.854   0.957   0.275
 5532SOL    HW218494  11.744   1.050   0.228
 5533SOL     OW18495  12.682  12.167  11.716
 5533SOL    HW118496  12.601  12.116  11.706
 5533SOL    HW218497  12.718  12.138  11.800
 5534SOL     OW18498   1.295  11.351   2.462
 5534SOL    HW118499   1.390  11.362   2.454
 5534SOL    HW218500   1.273  11.291   2.391
 5535SOL     OW18501   8.303   0.227   1.228
 5535SOL    HW118502   8.394   0.256   1.238
 5535SOL    HW218503   8.262   0.248   1.312
 5536SOL     OW18504  12.636  11.429   6.973
 5536SOL    HW118505  12.622  11.406   6.881
 5536SOL    HW218506  12.548  11.448   7.007
 5537SOL     OW18507  13.750  10.502  14.257
 5537SOL    HW118508  13.668  10.516  14.211
 5537SOL    HW218509  13.758  10.406  14.262
 5538SOL     OW18510   7.141   0.705   5.236
 5538SOL    HW118511   7.207   0.770   5.212
 5538SOL    HW218512   7.059   0.755   5.235
 5539SOL     OW18513   5.802   8.004   1.429
 5539SOL    HW118514   5.743   8.063   1.383
 5539SOL    HW218515   5.807   8.040   1.518
 5540SOL     OW18516   6.434  11.758   6.081
 5540SOL    HW118517   6.423  11.747   5.987
 5540SOL    HW218518   6.529  11.753   6.095
 5541SOL     OW18519   7.673   7.014   2.163
 5541SOL    HW118520   7.669   6.991   2.070
 5541SOL    HW218521   7.664   7.110   2.164
 5542SOL     OW18522  10.934   8.289   6.060
 5542SOL    HW118523  10.954   8.343   5.983
 5542SOL    HW218524  10.986   8.328   6.131
 5543SOL     OW18525   1.351  11.184   8.473
 5543SOL    HW118526   1.305  11.203   8.391
 5543SOL    HW218527   1.328  11.094   8.494
 5544SOL     OW18528   0.147   4.243   8.385
 5544SOL    HW118529   0.070   4.280   8.342
 5544SOL    HW218530   0.112   4.178   8.446
 5545SOL     OW18531  14.454  13.328   9.576
 5545SOL    HW118532  14.404  13.410   9.569
 5545SOL    HW218533  14.398  13.262   9.536
 5546SOL     OW18534  14.561   1.159  10.145
 5546SOL    HW118535  14.646   1.202  10.137
 5546SOL    HW218536  14.567   1.084  10.086
 5547SOL     OW18537   1.550   6.730  12.332
 5547SOL    HW118538   1.462   6.761  12.355
 5547SOL    HW218539   1.607   6.770  12.397
 5548SOL     OW18540   0.109   3.367   8.453
 5548SOL    HW118541   0.075   3.352   8.542
 5548SOL    HW218542   0.032   3.394   8.403
 5549SOL     OW18543  10.729   3.036   0.802
 5549SOL    HW118544  10.642   3.034   0.761
 5549SOL    HW218545  10.775   3.106   0.757
 5550SOL     OW18546   9.471   4.032   5.759
 5550SOL    HW118547   9.557   3.991   5.774
 5550SOL    HW218548   9.426   3.971   5.700
 5551SOL     OW18549   7.601  14.823  12.812
 5551SOL    HW118550   7.539  14.762  12.773
 5551SOL    HW218551   7.638  14.776  12.886
 5552SOL     OW18552   2.168   7.227  13.352
 5552SOL    HW118553   2.143   7.291  13.419
 5552SOL    HW218554   2.260   7.207  13.371
 5553SOL     OW18555   9.568  13.725  14.298
 5553SOL    HW118556   9.614  13.686  14.373
 5553SOL    HW218557   9.637  13.739  14.234
 5554SOL     OW18558   2.623   9.767  13.445
 5554SOL    HW118559   2.594   9.676  13.450
 5554SOL    HW218560   2.685   9.776  13.518
 5555SOL     OW18561   9.924   6.587   1.599
 5555SOL    HW118562  10.014   6.563   1.621
 5555SOL    HW218563   9.918   6.575   1.505
 5556SOL     OW18564   4.854  14.576  13.195
 5556SOL    HW118565   4.791  14.532  13.251
 5556SOL    HW218566   4.815  14.661  13.175
 5557SOL     OW18567   6.154  13.554   3.969
 5557SOL    HW118568   6.230  13.496   3.966
 5557SOL    HW218569   6.160  13.597   4.054
 5558SOL     OW18570   4.384   6.212   5.597
 5558SOL    HW118571   4.358   6.199   5.688
 5558SOL    HW218572   4.379   6.306   5.583
 5559SOL     OW18573   4.050   4.953  10.045
 5559SOL    HW118574   4.103   4.887  10.001
 5559SOL    HW218575   4.108   4.992  10.109
 5560SOL     OW18576  11.621   9.198   0.356
 5560SOL    HW118577  11.584   9.238   0.435
 5560SOL    HW218578  11.547   9.150   0.318
 5561SOL     OW18579  11.710   2.432  13.894
 5561SOL    HW118580  11.795   2.424  13.938
 5561SOL    HW218581  11.650   2.463  13.962
 5562SOL     OW18582   6.860   8.619  12.626
 5562SOL    HW118583   6.767   8.599  12.619
 5562SOL    HW218584   6.872   8.650  12.716
 5563SOL     OW18585   7.424   4.214  13.583
 5563SOL    HW118586   7.383   4.184  13.664
 5563SOL    HW218587   7.445   4.306  13.600
 5564SOL     OW18588   7.309   4.774   4.265
 5564SOL    HW118589   7.364   4.743   4.336
 5564SOL    HW218590   7.247   4.702   4.249
 5565SOL     OW18591  10.000   3.292  14.367
 5565SOL    HW118592  10.033   3.381  14.353
 5565SOL    HW218593  10.043   3.240  14.298
 5566SOL     OW18594   2.279  13.449   5.377
 5566SOL    HW118595   2.235  13.401   5.307
 5566SOL    HW218596   2.231  13.425   5.456
 5567SOL     OW18597  12.926  12.917  10.613
 5567SOL    HW118598  12.859  12.981  10.639
 5567SOL    HW218599  12.911  12.904  10.519
 5568SOL     OW18600   3.902  11.709   9.269
 5568SOL    HW118601   3.858  11.648   9.328
 5568SOL    HW218602   3.834  11.771   9.242
 5569SOL     OW18603   3.824  11.962  12.692
 5569SOL    HW118604   3.899  11.969  12.752
 5569SOL    HW218605   3.862  11.975  12.605
 5570SOL     OW18606   1.088  10.869  13.069
 5570SOL    HW118607   1.023  10.874  13.139
 5570SOL    HW218608   1.073  10.949  13.018
 5571SOL     OW18609   5.109   9.344   1.194
 5571SOL    HW118610   5.125   9.430   1.155
 5571SOL    HW218611   5.138   9.352   1.285
 5572SOL     OW18612   3.289  13.617   1.358
 5572SOL    HW118613   3.325  13.538   1.319
 5572SOL    HW218614   3.201  13.624   1.322
 5573SOL     OW18615  14.835   6.689   0.445
 5573SOL    HW118616  14.856   6.736   0.525
 5573SOL    HW218617   0.049   6.690   0.395
 5574SOL     OW18618  10.518   6.513   6.106
 5574SOL    HW118619  10.482   6.540   6.022
 5574SOL    HW218620  10.571   6.588   6.135
 5575SOL     OW18621  11.519  14.662  11.944
 5575SOL    HW118622  11.436  14.616  11.957
 5575SOL    HW218623  11.535  14.707  12.026
 5576SOL     OW18624  11.009   8.820   5.153
 5576SOL    HW118625  10.987   8.913   5.143
 5576SOL    HW218626  10.972   8.778   5.076
 5577SOL     OW18627   3.876   5.727   8.717
 5577SOL    HW118628   3.902   5.766   8.801
 5577SOL    HW218629   3.939   5.657   8.702
 5578SOL     OW18630   8.182   1.779   6.858
 5578SOL    HW118631   8.227   1.839   6.798
 5578SOL    HW218632   8.252   1.734   6.905
 5579SOL     OW18633   7.766  12.339   2.491
 5579SOL    HW118634   7.836  12.376   2.437
 5579SOL    HW218635   7.756  12.249   2.458
 5580SOL     OW18636  13.732   2.850   7.543
 5580SOL    HW118637  13.669   2.849   7.615
 5580SOL    HW218638  13.712   2.931   7.495
 5581SOL     OW18639  14.753   8.489  13.320
 5581SOL    HW118640  14.841   8.513  13.292
 5581SOL    HW218641  14.762   8.403  13.361
 5582SOL     OW18642   6.170   3.144   4.171
 5582SOL    HW118643   6.112   3.095   4.111
 5582SOL    HW218644   6.119   3.154   4.251
 5583SOL     OW18645  12.274   4.227   8.551
 5583SOL    HW118646  12.248   4.140   8.519
 5583SOL    HW218647  12.301   4.274   8.472
 5584SOL     OW18648   7.567  10.256   9.183
 5584SOL    HW118649   7.566  10.337   9.132
 5584SOL    HW218650   7.500  10.269   9.250
 5585SOL     OW18651   3.199  14.020   0.216
 5585SOL    HW118652   3.185  14.083   0.145
 5585SOL    HW218653   3.132  14.041   0.280
 5586SOL     OW18654   2.912  10.913   3.073
 5586SOL    HW118655   2.852  10.966   3.021
 5586SOL    HW218656   2.929  10.836   3.019
 5587SOL     OW18657   5.959   9.085   5.683
 5587SOL    HW118658   6.049   9.072   5.714
 5587SOL    HW218659   5.969   9.129   5.599
 5588SOL     OW18660   5.431  12.772  12.189
 5588SOL    HW118661   5.476  12.779  12.273
 5588SOL    HW218662   5.373  12.849  12.186
 5589SOL     OW18663   3.436   1.742   0.096
 5589SOL    HW118664   3.411   1.674   0.034
 5589SOL    HW218665   3.402   1.711   0.180
 5590SOL     OW18666   2.928  13.536   3.785
 5590SOL    HW118667   2.995  13.530   3.717
 5590SOL    HW218668   2.906  13.444   3.804
 5591SOL     OW18669  11.602  11.703  11.511
 5591SOL    HW118670  11.668  11.769  11.492
 5591SOL    HW218671  11.563  11.683  11.426
 5592SOL     OW18672  13.353  10.046   6.105
 5592SOL    HW118673  13.423   9.998   6.148
 5592SOL    HW218674  13.396  10.121   6.065
 5593SOL     OW18675   7.418   0.403  13.355
 5593SOL    HW118676   7.450   0.353  13.279
 5593SOL    HW218677   7.352   0.462  13.318
 5594SOL     OW18678  10.802  11.827   5.951
 5594SOL    HW118679  10.811  11.789   5.864
 5594SOL    HW218680  10.862  11.901   5.952
 5595SOL     OW18681  14.859   8.189  11.428
 5595SOL    HW118682  14.821   8.255  11.369
 5595SOL    HW218683  14.857   8.108  11.377
 5596SOL     OW18684  13.768   9.699  11.118
 5596SOL    HW118685  13.706   9.745  11.175
 5596SOL    HW218686  13.852   9.744  11.133
 5597SOL     OW18687  12.077  14.709   8.905
 5597SOL    HW118688  12.165  14.741   8.924
 5597SOL    HW218689  12.046  14.674   8.988
 5598SOL     OW18690  12.866  11.015  14.141
 5598SOL    HW118691  12.838  11.089  14.195
 5598SOL    HW218692  12.800  10.947  14.157
 5599SOL     OW18693   2.928  13.072  14.313
 5599SOL    HW118694   2.974  13.156  14.305
 5599SOL    HW218695   2.996  13.009  14.336
 5600SOL     OW18696   3.193   6.043   4.335
 5600SOL    HW118697   3.263   6.028   4.397
 5600SOL    HW218698   3.122   6.080   4.387
 5601SOL     OW18699  12.495  10.634  14.749
 5601SOL    HW118700  12.584  10.598  14.754
 5601SOL    HW218701  12.492  10.700  14.818
 5602SOL     OW18702   0.558   5.775  14.532
 5602SOL    HW118703   0.636   5.729  14.501
 5602SOL    HW218704   0.492   5.758  14.465
 5603SOL     OW18705   7.238  14.258   8.717
 5603SOL    HW118706   7.273  14.183   8.669
 5603SOL    HW218707   7.167  14.291   8.662
 5604SOL     OW18708  14.146   5.828  11.431
 5604SOL    HW118709  14.210   5.758  11.444
 5604SOL    HW218710  14.082   5.815  11.501
 5605SOL     OW18711  12.734   8.607   3.603
 5605SOL    HW118712  12.750   8.681   3.662
 5605SOL    HW218713  12.656   8.564   3.638
 5606SOL     OW18714   1.011   8.107   9.174
 5606SOL    HW118715   1.057   8.023   9.171
 5606SOL    HW218716   0.995   8.129   9.082
 5607SOL     OW18717  11.744  13.250   0.483
 5607SOL    HW118718  11.801  13.256   0.559
 5607SOL    HW218719  11.793  13.292   0.412
 5608SOL     OW18720   0.592   7.209  12.393
 5608SOL    HW118721   0.498   7.227  12.384
 5608SOL    HW218722   0.634   7.280  12.345
 5609SOL     OW18723  13.981   0.157   8.409
 5609SOL    HW118724  13.903   0.104   8.422
 5609SOL    HW218725  13.979   0.222   8.479
 5610SOL     OW18726   7.866   8.101   3.645
 5610SOL    HW118727   7.935   8.078   3.708
 5610SOL    HW218728   7.856   8.023   3.590
 5611SOL     OW18729  12.227   7.439   0.693
 5611SOL    HW118730  12.320   7.437   0.716
 5611SOL    HW218731  12.224   7.494   0.614
 5612SOL     OW18732   8.174  10.785   8.257
 5612SOL    HW118733   8.207  10.781   8.346
 5612SOL    HW218734   8.251  10.802   8.203
 5613SOL     OW18735   0.345   3.016   3.315
 5613SOL    HW118736   0.319   2.971   3.396
 5613SOL    HW218737   0.284   2.984   3.249
 5614SOL     OW18738   5.340   4.500  13.766
 5614SOL    HW118739   5.348   4.550  13.847
 5614SOL    HW218740   5.395   4.423  13.779
 5615SOL     OW18741   6.688  13.193   0.653
 5615SOL    HW118742   6.764  13.155   0.610
 5615SOL    HW218743   6.712  13.196   0.746
 5616SOL     OW18744  14.361  12.603   5.217
 5616SOL    HW118745  14.366  12.612   5.312
 5616SOL    HW218746  14.271  12.577   5.200
 5617SOL     OW18747   8.898  12.035   7.289
 5617SOL    HW118748   8.849  12.022   7.208
 5617SOL    HW218749   8.954  12.112   7.271
 5618SOL     OW18750   9.864   7.047  12.100
 5618SOL    HW118751   9.815   7.031  12.020
 5618SOL    HW218752   9.852   7.141  12.117
 5619SOL     OW18753  11.439  14.037   4.550
 5619SOL    HW118754  11.510  14.101   4.543
 5619SOL    HW218755  11.442  13.989   4.467
 5620SOL     OW18756   8.629   4.925   1.708
 5620SOL    HW118757   8.628   4.874   1.789
 5620SOL    HW218758   8.691   4.996   1.725
 5621SOL     OW18759   4.097  14.061   1.166
 5621SOL    HW118760   4.138  14.102   1.090
 5621SOL    HW218761   4.082  14.132   1.228
 5622SOL     OW18762  12.869   2.647   2.619
 5622SOL    HW118763  12.935   2.708   2.586
 5622SOL    HW218764  12.921   2.575   2.656
 5623SOL     OW18765  11.957   7.833   6.747
 5623SOL    HW118766  12.024   7.767   6.759
 5623SOL    HW218767  11.887   7.789   6.698
 5624SOL     OW18768   7.767  12.166  10.268
 5624SOL    HW118769   7.713  12.087  10.261
 5624SOL    HW218770   7.720  12.221  10.332
 5625SOL     OW18771  13.024  10.119   5.653
 5625SOL    HW118772  13.105  10.162   5.679
 5625SOL    HW218773  13.042  10.025   5.662
 5626SOL     OW18774   2.474   9.507   6.679
 5626SOL    HW118775   2.434   9.448   6.742
 5626SOL    HW218776   2.453   9.595   6.711
 5627SOL     OW18777   8.439  13.623   3.404
 5627SOL    HW118778   8.452  13.663   3.490
 5627SOL    HW218779   8.528  13.617   3.367
 5628SOL     OW18780   1.461  13.335   2.207
 5628SOL    HW118781   1.503  13.294   2.282
 5628SOL    HW218782   1.455  13.428   2.229
 5629SOL     OW18783   9.878  12.559   9.922
 5629SOL    HW118784   9.957  12.599   9.959
 5629SOL    HW218785   9.908  12.517   9.841
 5630SOL     OW18786  12.627   0.778   2.370
 5630SOL    HW118787  12.611   0.783   2.276
 5630SOL    HW218788  12.633   0.869   2.399
 5631SOL     OW18789   9.607   5.061   1.250
 5631SOL    HW118790   9.589   5.118   1.325
 5631SOL    HW218791   9.634   4.978   1.289
 5632SOL     OW18792  14.692   6.993   5.462
 5632SOL    HW118793  14.682   6.984   5.367
 5632SOL    HW218794  14.747   7.071   5.473
 5633SOL     OW18795  11.842   6.063   2.399
 5633SOL    HW118796  11.886   5.994   2.448
 5633SOL    HW218797  11.878   6.145   2.435
 5634SOL     OW18798  12.864   8.324   9.225
 5634SOL    HW118799  12.778   8.365   9.228
 5634SOL    HW218800  12.871   8.275   9.307
 5635SOL     OW18801   3.979   9.644   3.280
 5635SOL    HW118802   3.991   9.563   3.329
 5635SOL    HW218803   3.892   9.637   3.241
 5636SOL     OW18804  11.037  10.010   2.006
 5636SOL    HW118805  10.958   9.975   1.965
 5636SOL    HW218806  11.093  10.036   1.933
 5637SOL     OW18807  13.915   0.737   8.213
 5637SOL    HW118808  13.884   0.811   8.160
 5637SOL    HW218809  13.836   0.706   8.258
 5638SOL     OW18810   2.385   8.409  13.247
 5638SOL    HW118811   2.328   8.472  13.289
 5638SOL    HW218812   2.401   8.342  13.314
 5639SOL     OW18813  12.140   8.247   6.640
 5639SOL    HW118814  12.127   8.188   6.566
 5639SOL    HW218815  12.211   8.305   6.612
 5640SOL     OW18816   1.586   9.458  10.481
 5640SOL    HW118817   1.577   9.448  10.386
 5640SOL    HW218818   1.505   9.500  10.508
 5641SOL     OW18819  14.730   2.998   1.419
 5641SOL    HW118820  14.702   3.022   1.507
 5641SOL    HW218821  14.787   3.070   1.392
 5642SOL     OW18822  13.568  12.416   6.980
 5642SOL    HW118823  13.502  12.356   6.947
 5642SOL    HW218824  13.630  12.361   7.028
 5643SOL     OW18825   7.461   3.952  13.959
 5643SOL    HW118826   7.486   3.898  14.034
 5643SOL    HW218827   7.541   3.998  13.935
 5644SOL     OW18828  14.256  13.331  13.489
 5644SOL    HW118829  14.303  13.296  13.414
 5644SOL    HW218830  14.166  13.341  13.458
 5645SOL     OW18831   7.040   7.574   9.895
 5645SOL    HW118832   7.120   7.589   9.945
 5645SOL    HW218833   7.002   7.495   9.932
 5646SOL     OW18834   8.802   1.418   8.501
 5646SOL    HW118835   8.826   1.417   8.408
 5646SOL    HW218836   8.706   1.414   8.501
 5647SOL     OW18837  10.592   3.196   6.033
 5647SOL    HW118838  10.563   3.282   6.001
 5647SOL    HW218839  10.687   3.203   6.039
 5648SOL     OW18840  12.322   1.946   1.229
 5648SOL    HW118841  12.239   1.966   1.185
 5648SOL    HW218842  12.328   2.009   1.300
 5649SOL     OW18843  10.730   4.207   8.157
 5649SOL    HW118844  10.734   4.234   8.249
 5649SOL    HW218845  10.651   4.154   8.150
 5650SOL     OW18846   7.180  13.343   5.501
 5650SOL    HW118847   7.174  13.270   5.563
 5650SOL    HW218848   7.232  13.409   5.547
 5651SOL     OW18849  12.460   1.012   5.298
 5651SOL    HW118850  12.537   0.958   5.280
 5651SOL    HW218851  12.390   0.949   5.317
 5652SOL     OW18852  14.331   3.321  14.300
 5652SOL    HW118853  14.310   3.229  14.316
 5652SOL    HW218854  14.296   3.338  14.212
 5653SOL     OW18855  12.013   4.936  11.390
 5653SOL    HW118856  12.003   4.865  11.327
 5653SOL    HW218857  11.929   4.939  11.436
 5654SOL     OW18858  10.507   3.301  14.818
 5654SOL    HW118859  10.437   3.317  14.753
 5654SOL    HW218860  10.584   3.345  14.781
 5655SOL     OW18861   8.593   4.812   1.983
 5655SOL    HW118862   8.497   4.809   1.986
 5655SOL    HW218863   8.618   4.849   2.068
 5656SOL     OW18864  11.145   9.011   2.055
 5656SOL    HW118865  11.073   8.950   2.071
 5656SOL    HW218866  11.220   8.970   2.097
 5657SOL     OW18867   8.717   3.994  11.950
 5657SOL    HW118868   8.780   3.922  11.947
 5657SOL    HW218869   8.769   4.072  11.930
 5658SOL     OW18870   1.125  13.580   0.682
 5658SOL    HW118871   1.186  13.649   0.655
 5658SOL    HW218872   1.101  13.603   0.771
 5659SOL     OW18873   2.221  13.398   8.468
 5659SOL    HW118874   2.239  13.423   8.559
 5659SOL    HW218875   2.258  13.470   8.416
 5660SOL     OW18876  11.445   8.391  13.672
 5660SOL    HW118877  11.360   8.373  13.713
 5660SOL    HW218878  11.502   8.320  13.704
 5661SOL     OW18879  10.724  12.228   6.566
 5661SOL    HW118880  10.718  12.321   6.542
 5661SOL    HW218881  10.749  12.230   6.659
 5662SOL     OW18882   8.198   1.607   8.320
 5662SOL    HW118883   8.166   1.619   8.410
 5662SOL    HW218884   8.216   1.513   8.314
 5663SOL     OW18885   7.252   3.543   2.473
 5663SOL    HW118886   7.227   3.481   2.542
 5663SOL    HW218887   7.318   3.496   2.421
 5664SOL     OW18888   1.522   3.793   9.806
 5664SOL    HW118889   1.552   3.708   9.838
 5664SOL    HW218890   1.600   3.848   9.809
 5665SOL     OW18891   0.847   0.923   0.921
 5665SOL    HW118892   0.934   0.892   0.945
 5665SOL    HW218893   0.792   0.900   0.996
 5666SOL     OW18894  11.200   9.525   0.195
 5666SOL    HW118895  11.238   9.574   0.122
 5666SOL    HW218896  11.148   9.456   0.153
 5667SOL     OW18897   2.051   8.259   3.492
 5667SOL    HW118898   2.131   8.208   3.480
 5667SOL    HW218899   1.994   8.231   3.421
 5668SOL     OW18900   8.250   4.432   9.359
 5668SOL    HW118901   8.293   4.517   9.367
 5668SOL    HW218902   8.176   4.437   9.419
 5669SOL     OW18903   5.831   7.292   4.019
 5669SOL    HW118904   5.753   7.347   4.013
 5669SOL    HW218905   5.887   7.321   3.947
 5670SOL     OW18906   9.932   9.575  14.041
 5670SOL    HW118907   9.874   9.539  14.108
 5670SOL    HW218908   9.925   9.514  13.968
 5671SOL     OW18909  14.205  10.020  10.488
 5671SOL    HW118910  14.212   9.985  10.577
 5671SOL    HW218911  14.292  10.054  10.469
 5672SOL     OW18912   8.541   3.814   5.684
 5672SOL    HW118913   8.614   3.848   5.632
 5672SOL    HW218914   8.519   3.885   5.744
 5673SOL     OW18915  14.548   9.361  14.672
 5673SOL    HW118916  14.592   9.288  14.713
 5673SOL    HW218917  14.575   9.358  14.580
 5674SOL     OW18918   1.778   8.149  13.501
 5674SOL    HW118919   1.793   8.207  13.575
 5674SOL    HW218920   1.713   8.086  13.532
 5675SOL     OW18921   6.644   7.739   9.328
 5675SOL    HW118922   6.608   7.791   9.256
 5675SOL    HW218923   6.697   7.672   9.285
 5676SOL     OW18924   5.137  10.934  10.393
 5676SOL    HW118925   5.087  10.867  10.441
 5676SOL    HW218926   5.174  10.990  10.462
 5677SOL     OW18927   9.291  12.247   9.281
 5677SOL    HW118928   9.240  12.168   9.299
 5677SOL    HW218929   9.315  12.280   9.367
 5678SOL     OW18930   0.274   1.971   6.055
 5678SOL    HW118931   0.279   1.888   6.103
 5678SOL    HW218932   0.326   1.955   5.976
 5679SOL     OW18933   2.868   2.217   3.087
 5679SOL    HW118934   2.877   2.286   3.022
 5679SOL    HW218935   2.910   2.252   3.165
 5680SOL     OW18936   9.271   3.641  13.300
 5680SOL    HW118937   9.356   3.645  13.343
 5680SOL    HW218938   9.288   3.599  13.216
 5681SOL     OW18939   4.766   3.502   3.140
 5681SOL    HW118940   4.857   3.496   3.167
 5681SOL    HW218941   4.759   3.588   3.098
 5682SOL     OW18942   9.761   7.380   9.822
 5682SOL    HW118943   9.800   7.446   9.766
 5682SOL    HW218944   9.777   7.411   9.911
 5683SOL     OW18945  11.032  11.208   3.226
 5683SOL    HW118946  11.107  11.200   3.168
 5683SOL    HW218947  10.966  11.150   3.188
 5684SOL     OW18948   6.870  11.992   0.686
 5684SOL    HW118949   6.885  12.023   0.775
 5684SOL    HW218950   6.929  12.045   0.632
 5685SOL     OW18951   7.729  12.390   3.054
 5685SOL    HW118952   7.737  12.384   2.959
 5685SOL    HW218953   7.749  12.302   3.086
 5686SOL     OW18954   2.304   9.867   4.808
 5686SOL    HW118955   2.225   9.903   4.846
 5686SOL    HW218956   2.371   9.880   4.875
 5687SOL     OW18957   0.271  13.535   7.462
 5687SOL    HW118958   0.300  13.618   7.424
 5687SOL    HW218959   0.220  13.561   7.539
 5688SOL     OW18960   4.154  12.164  11.208
 5688SOL    HW118961   4.083  12.214  11.168
 5688SOL    HW218962   4.195  12.117  11.135
 5689SOL     OW18963   3.696   3.842  10.131
 5689SOL    HW118964   3.766   3.840  10.066
 5689SOL    HW218965   3.648   3.760  10.118
 5690SOL     OW18966  14.707  13.068   4.412
 5690SOL    HW118967  14.665  13.020   4.483
 5690SOL    HW218968  14.706  13.159   4.442
 5691SOL     OW18969   1.858   6.366   8.708
 5691SOL    HW118970   1.910   6.297   8.749
 5691SOL    HW218971   1.885   6.446   8.753
 5692SOL     OW18972   7.025   1.782   3.262
 5692SOL    HW118973   7.073   1.835   3.326
 5692SOL    HW218974   6.936   1.775   3.298
 5693SOL     OW18975  12.658  12.657  13.679
 5693SOL    HW118976  12.724  12.718  13.645
 5693SOL    HW218977  12.658  12.672  13.774
 5694SOL     OW18978   8.149  10.204   5.902
 5694SOL    HW118979   8.086  10.274   5.916
 5694SOL    HW218980   8.171  10.173   5.990
 5695SOL     OW18981   4.708  10.042  13.546
 5695SOL    HW118982   4.689  10.101  13.474
 5695SOL    HW218983   4.701   9.954  13.509
 5696SOL     OW18984   3.712   5.648   9.706
 5696SOL    HW118985   3.803   5.622   9.721
 5696SOL    HW218986   3.667   5.627   9.787
 5697SOL     OW18987   7.683   7.266  10.666
 5697SOL    HW118988   7.635   7.229  10.591
 5697SOL    HW218989   7.767   7.221  10.664
 5698SOL     OW18990   4.631   6.791  11.508
 5698SOL    HW118991   4.557   6.742  11.544
 5698SOL    HW218992   4.707   6.754  11.552
 5699SOL     OW18993   2.875   0.023   3.589
 5699SOL    HW118994   2.828   0.046   3.669
 5699SOL    HW218995   2.867  14.796   3.582
 5700SOL     OW18996   8.768  12.835   4.656
 5700SOL    HW118997   8.805  12.873   4.736
 5700SOL    HW218998   8.750  12.743   4.679
 5701SOL     OW18999  11.209  10.594  11.592
 5701SOL    HW119000  11.263  10.576  11.669
 5701SOL    HW219001  11.238  10.530  11.527
 5702SOL     OW19002   5.621  12.499   5.292
 5702SOL    HW119003   5.655  12.587   5.305
 5702SOL    HW219004   5.648  12.476   5.203
 5703SOL     OW19005  10.236  10.176  14.759
 5703SOL    HW119006  10.275  10.181  14.846
 5703SOL    HW219007  10.182  10.255  14.751
 5704SOL     OW19008   1.755   3.026   4.832
 5704SOL    HW119009   1.801   3.008   4.914
 5704SOL    HW219010   1.712   3.111   4.848
 5705SOL     OW19011   7.317   8.015  14.703
 5705SOL    HW119012   7.333   8.058  14.787
 5705SOL    HW219013   7.311   8.087  14.640
 5706SOL     OW19014   7.096  10.430   6.452
 5706SOL    HW119015   7.163  10.387   6.506
 5706SOL    HW219016   7.018  10.375   6.462
 5707SOL     OW19017  13.375   2.594   1.292
 5707SOL    HW119018  13.418   2.555   1.367
 5707SOL    HW219019  13.285   2.610   1.322
 5708SOL     OW19020  14.408   5.730   8.513
 5708SOL    HW119021  14.420   5.636   8.509
 5708SOL    HW219022  14.423   5.760   8.423
 5709SOL     OW19023  12.662   5.764  13.022
 5709SOL    HW119024  12.645   5.800  12.935
 5709SOL    HW219025  12.576   5.762  13.064
 5710SOL     OW19026  11.175   5.759   7.967
 5710SOL    HW119027  11.143   5.799   8.048
 5710SOL    HW219028  11.114   5.789   7.900
 5711SOL     OW19029   0.865   8.128   5.957
 5711SOL    HW119030   0.934   8.085   6.008
 5711SOL    HW219031   0.875   8.094   5.868
 5712SOL     OW19032   2.710   9.566  13.125
 5712SOL    HW119033   2.622   9.577  13.161
 5712SOL    HW219034   2.768   9.583  13.198
 5713SOL     OW19035  13.761   4.499   5.801
 5713SOL    HW119036  13.757   4.410   5.766
 5713SOL    HW219037  13.714   4.552   5.737
 5714SOL     OW19038   6.873   4.380   8.571
 5714SOL    HW119039   6.866   4.364   8.477
 5714SOL    HW219040   6.833   4.466   8.584
 5715SOL     OW19041  14.060   8.142  14.280
 5715SOL    HW119042  13.967   8.141  14.298
 5715SOL    HW219043  14.097   8.198  14.348
 5716SOL     OW19044   1.836   0.270   9.034
 5716SOL    HW119045   1.894   0.338   8.999
 5716SOL    HW219046   1.895   0.200   9.063
 5717SOL     OW19047  10.535   3.600   3.976
 5717SOL    HW119048  10.613   3.555   4.009
 5717SOL    HW219049  10.558   3.693   3.979
 5718SOL     OW19050  12.294   3.609   6.542
 5718SOL    HW119051  12.363   3.600   6.476
 5718SOL    HW219052  12.342   3.622   6.624
 5719SOL     OW19053   2.199   0.217  13.172
 5719SOL    HW119054   2.125   0.156  13.168
 5719SOL    HW219055   2.183   0.280  13.102
 5720SOL     OW19056   7.155   3.694   5.004
 5720SOL    HW119057   7.142   3.600   5.016
 5720SOL    HW219058   7.167   3.704   4.909
 5721SOL     OW19059   7.971   9.919  10.801
 5721SOL    HW119060   7.972   9.939  10.895
 5721SOL    HW219061   8.062   9.927  10.774
 5722SOL     OW19062   5.146   6.261  11.435
 5722SOL    HW119063   5.104   6.347  11.436
 5722SOL    HW219064   5.098   6.211  11.501
 5723SOL     OW19065  12.955  14.836   5.799
 5723SOL    HW119066  12.862  14.854   5.789
 5723SOL    HW219067  12.995   0.053   5.819
 5724SOL     OW19068   4.121   2.090   6.273
 5724SOL    HW119069   4.131   2.044   6.189
 5724SOL    HW219070   4.094   2.179   6.248
 5725SOL     OW19071  10.606  12.786  12.864
 5725SOL    HW119072  10.622  12.812  12.955
 5725SOL    HW219073  10.511  12.779  12.857
 5726SOL     OW19074   3.816   4.250   2.492
 5726SOL    HW119075   3.879   4.234   2.563
 5726SOL    HW219076   3.864   4.303   2.429
 5727SOL     OW19077   9.961   6.112   9.554
 5727SOL    HW119078  10.006   6.190   9.521
 5727SOL    HW219079   9.868   6.129   9.536
 5728SOL     OW19080  10.335   0.082  12.664
 5728SOL    HW119081  10.261   0.132  12.630
 5728SOL    HW219082  10.396   0.076  12.590
 5729SOL     OW19083  14.426   4.646   5.871
 5729SOL    HW119084  14.340   4.614   5.846
 5729SOL    HW219085  14.480   4.567   5.876
 5730SOL     OW19086   9.127  11.600   0.465
 5730SOL    HW119087   9.039  11.611   0.428
 5730SOL    HW219088   9.139  11.675   0.523
 5731SOL     OW19089   7.965   2.004  10.549
 5731SOL    HW119090   7.899   2.015  10.617
 5731SOL    HW219091   8.046   2.033  10.590
 5732SOL     OW19092   0.126   8.512   6.765
 5732SOL    HW119093   0.138   8.418   6.754
 5732SOL    HW219094   0.204   8.541   6.812
 5733SOL     OW19095   5.178   5.545   5.871
 5733SOL    HW119096   5.242   5.616   5.878
 5733SOL    HW219097   5.225   5.474   5.827
 5734SOL     OW19098   3.697  12.958   5.496
 5734SOL    HW119099   3.660  13.047   5.499
 5734SOL    HW219100   3.787  12.969   5.527
 5735SOL     OW19101  12.055   1.261  14.022
 5735SOL    HW119102  12.079   1.264  13.929
 5735SOL    HW219103  12.065   1.351  14.053
 5736SOL     OW19104   6.332  11.276   4.127
 5736SOL    HW119105   6.318  11.190   4.088
 5736SOL    HW219106   6.321  11.263   4.221
 5737SOL     OW19107   1.594   3.875   0.629
 5737SOL    HW119108   1.633   3.935   0.693
 5737SOL    HW219109   1.654   3.801   0.627
 5738SOL     OW19110  11.633   5.664   6.337
 5738SOL    HW119111  11.612   5.744   6.289
 5738SOL    HW219112  11.729   5.662   6.340
 5739SOL     OW19113   5.731  11.969   0.487
 5739SOL    HW119114   5.754  12.047   0.538
 5739SOL    HW219115   5.814  11.931   0.461
 5740SOL     OW19116   4.973   6.924  13.733
 5740SOL    HW119117   5.009   7.004  13.695
 5740SOL    HW219118   4.943   6.872  13.658
 5741SOL     OW19119   1.701  13.354  11.219
 5741SOL    HW119120   1.615  13.311  11.212
 5741SOL    HW219121   1.713  13.396  11.134
 5742SOL     OW19122   9.955   1.448   2.735
 5742SOL    HW119123   9.923   1.359   2.749
 5742SOL    HW219124   9.944   1.463   2.641
 5743SOL     OW19125   9.700   1.591   2.693
 5743SOL    HW119126   9.759   1.648   2.743
 5743SOL    HW219127   9.705   1.506   2.737
 5744SOL     OW19128   5.590  12.684   5.952
 5744SOL    HW119129   5.495  12.667   5.950
 5744SOL    HW219130   5.599  12.762   6.007
 5745SOL     OW19131  12.695   1.365   7.995
 5745SOL    HW119132  12.626   1.431   7.987
 5745SOL    HW219133  12.690   1.317   7.912
 5746SOL     OW19134  12.416   6.257  11.834
 5746SOL    HW119135  12.349   6.207  11.787
 5746SOL    HW219136  12.414   6.344  11.794
 5747SOL     OW19137   4.341   9.601  10.377
 5747SOL    HW119138   4.400   9.619  10.449
 5747SOL    HW219139   4.327   9.506  10.379
 5748SOL     OW19140   2.166  14.377   6.408
 5748SOL    HW119141   2.115  14.364   6.488
 5748SOL    HW219142   2.213  14.459   6.422
 5749SOL     OW19143   6.387   2.100   3.214
 5749SOL    HW119144   6.297   2.120   3.188
 5749SOL    HW219145   6.383   2.008   3.241
 5750SOL     OW19146   8.137  14.850   5.139
 5750SOL    HW119147   8.185  14.842   5.057
 5750SOL    HW219148   8.124  14.760   5.168
 5751SOL     OW19149   2.219  14.180   1.125
 5751SOL    HW119150   2.235  14.091   1.157
 5751SOL    HW219151   2.302  14.205   1.085
 5752SOL     OW19152  12.166   2.647   0.557
 5752SOL    HW119153  12.202   2.698   0.630
 5752SOL    HW219154  12.241   2.632   0.499
 5753SOL     OW19155   1.942  14.577   4.123
 5753SOL    HW119156   1.870  14.515   4.132
 5753SOL    HW219157   1.920  14.629   4.045
 5754SOL     OW19158   6.464  13.630   3.241
 5754SOL    HW119159   6.407  13.604   3.169
 5754SOL    HW219160   6.527  13.559   3.248
 5755SOL     OW19161  11.270   8.807   1.365
 5755SOL    HW119162  11.316   8.860   1.431
 5755SOL    HW219163  11.298   8.717   1.382
 5756SOL     OW19164  10.087   2.725   2.916
 5756SOL    HW119165  10.040   2.755   2.838
 5756SOL    HW219166  10.138   2.801   2.943
 5757SOL     OW19167   6.443   4.258  14.796
 5757SOL    HW119168   6.368   4.302  14.756
 5757SOL    HW219169   6.519   4.310  14.769
 5758SOL     OW19170   9.607   0.312  14.371
 5758SOL    HW119171   9.654   0.293  14.452
 5758SOL    HW219172   9.562   0.230  14.350
 5759SOL     OW19173  14.063   4.659   2.861
 5759SOL    HW119174  14.058   4.706   2.944
 5759SOL    HW219175  14.127   4.589   2.878
 5760SOL     OW19176   4.856   3.067  13.002
 5760SOL    HW119177   4.854   2.975  12.974
 5760SOL    HW219178   4.767   3.085  13.032
 5761SOL     OW19179   7.848   2.650  12.961
 5761SOL    HW119180   7.775   2.702  12.928
 5761SOL    HW219181   7.922   2.712  12.962
 5762SOL     OW19182   8.725  12.100   9.141
 5762SOL    HW119183   8.819  12.096   9.159
 5762SOL    HW219184   8.695  12.009   9.144
 5763SOL     OW19185   6.172   1.490   4.159
 5763SOL    HW119186   6.262   1.456   4.158
 5763SOL    HW219187   6.148   1.495   4.067
 5764SOL     OW19188  14.604   1.876   7.506
 5764SOL    HW119189  14.515   1.844   7.520
 5764SOL    HW219190  14.611   1.953   7.562
 5765SOL     OW19191   6.503   9.192  11.146
 5765SOL    HW119192   6.441   9.124  11.172
 5765SOL    HW219193   6.572   9.144  11.101
 5766SOL     OW19194  14.529   1.026   5.036
 5766SOL    HW119195  14.570   1.100   4.991
 5766SOL    HW219196  14.507   1.061   5.123
 5767SOL     OW19197  11.480   8.682   5.213
 5767SOL    HW119198  11.552   8.619   5.216
 5767SOL    HW219199  11.402   8.628   5.198
 5768SOL     OW19200   5.522   7.662   2.334
 5768SOL    HW119201   5.517   7.578   2.380
 5768SOL    HW219202   5.433   7.698   2.341
 5769SOL     OW19203   9.576  10.958  12.930
 5769SOL    HW119204   9.518  11.031  12.912
 5769SOL    HW219205   9.532  10.882  12.892
 5770SOL     OW19206   7.283  13.849   4.725
 5770SOL    HW119207   7.240  13.891   4.650
 5770SOL    HW219208   7.218  13.789   4.761
 5771SOL     OW19209   3.053   4.850   5.358
 5771SOL    HW119210   2.986   4.811   5.302
 5771SOL    HW219211   3.007   4.871   5.440
 5772SOL     OW19212  14.270  10.672   4.201
 5772SOL    HW119213  14.297  10.661   4.292
 5772SOL    HW219214  14.174  10.668   4.205
 5773SOL     OW19215  13.660  10.804   1.968
 5773SOL    HW119216  13.591  10.861   1.934
 5773SOL    HW219217  13.614  10.737   2.018
 5774SOL     OW19218  10.265  14.424  10.709
 5774SOL    HW119219  10.206  14.357  10.675
 5774SOL    HW219220  10.350  14.380  10.715
 5775SOL     OW19221  11.416   8.617  12.643
 5775SOL    HW119222  11.497   8.583  12.679
 5775SOL    HW219223  11.391   8.555  12.575
 5776SOL     OW19224  13.010   3.277   4.866
 5776SOL    HW119225  13.020   3.330   4.946
 5776SOL    HW219226  13.100   3.260   4.838
 5777SOL     OW19227   8.200   9.809   2.714
 5777SOL    HW119228   8.182   9.898   2.683
 5777SOL    HW219229   8.295   9.803   2.715
 5778SOL     OW19230  11.932   5.976   2.789
 5778SOL    HW119231  11.857   5.997   2.732
 5778SOL    HW219232  11.978   6.059   2.799
 5779SOL     OW19233   4.913   3.332   8.729
 5779SOL    HW119234   4.870   3.271   8.789
 5779SOL    HW219235   5.005   3.306   8.730
 5780SOL     OW19236   4.346   8.403   1.752
 5780SOL    HW119237   4.368   8.490   1.718
 5780SOL    HW219238   4.337   8.348   1.675
 5781SOL     OW19239  10.655   9.867   3.202
 5781SOL    HW119240  10.698   9.858   3.117
 5781SOL    HW219241  10.693   9.798   3.256
 5782SOL     OW19242  13.621   1.637   5.250
 5782SOL    HW119243  13.549   1.675   5.200
 5782SOL    HW219244  13.699   1.683   5.218
 5783SOL     OW19245  11.301   6.671   7.992
 5783SOL    HW119246  11.346   6.740   8.042
 5783SOL    HW219247  11.358   6.595   8.001
 5784SOL     OW19248   5.971   5.055   8.532
 5784SOL    HW119249   6.042   5.058   8.469
 5784SOL    HW219250   5.900   5.008   8.486
 5785SOL     OW19251  12.451  13.387   6.147
 5785SOL    HW119252  12.524  13.363   6.204
 5785SOL    HW219253  12.467  13.479   6.126
 5786SOL     OW19254  12.915  14.842   8.280
 5786SOL    HW119255  12.826  14.863   8.307
 5786SOL    HW219256  12.906  14.800   8.195
 5787SOL     OW19257   4.014  10.448   6.672
 5787SOL    HW119258   4.014  10.352   6.666
 5787SOL    HW219259   4.103  10.470   6.700
 5788SOL     OW19260   2.626   5.804   5.053
 5788SOL    HW119261   2.594   5.859   4.981
 5788SOL    HW219262   2.715   5.835   5.069
 5789SOL     OW19263   0.892   8.048   8.368
 5789SOL    HW119264   0.949   7.981   8.328
 5789SOL    HW219265   0.834   8.075   8.297
 5790SOL     OW19266  11.375  11.242  13.789
 5790SOL    HW119267  11.326  11.284  13.718
 5790SOL    HW219268  11.356  11.148  13.779
 5791SOL     OW19269   4.759  13.245   9.659
 5791SOL    HW119270   4.677  13.290   9.680
 5791SOL    HW219271   4.733  13.153   9.647
 5792SOL     OW19272   2.197   0.090  11.768
 5792SOL    HW119273   2.196   0.003  11.729
 5792SOL    HW219274   2.174   0.075  11.860
 5793SOL     OW19275   6.318   2.375   6.819
 5793SOL    HW119276   6.264   2.323   6.759
 5793SOL    HW219277   6.255   2.427   6.869
 5794SOL     OW19278   4.638   0.283   8.894
 5794SOL    HW119279   4.595   0.324   8.819
 5794SOL    HW219280   4.711   0.341   8.915
 5795SOL     OW19281   3.542   3.761  10.379
 5795SOL    HW119282   3.481   3.751  10.306
 5795SOL    HW219283   3.619   3.803  10.342
 5796SOL     OW19284  13.959   7.099  13.361
 5796SOL    HW119285  13.984   7.080  13.451
 5796SOL    HW219286  14.018   7.046  13.308
 5797SOL     OW19287   8.070  10.908   4.351
 5797SOL    HW119288   8.037  10.818   4.342
 5797SOL    HW219289   8.011  10.950   4.413
 5798SOL     OW19290   6.911   9.163   2.888
 5798SOL    HW119291   6.831   9.116   2.909
 5798SOL    HW219292   6.931   9.138   2.798
 5799SOL     OW19293  13.895   8.446  10.004
 5799SOL    HW119294  13.839   8.391  10.059
 5799SOL    HW219295  13.833   8.502   9.956
 5800SOL     OW19296   4.291  12.975   7.657
 5800SOL    HW119297   4.218  13.036   7.646
 5800SOL    HW219298   4.303  12.937   7.570
 5801SOL     OW19299  10.195  13.246  11.930
 5801SOL    HW119300  10.219  13.338  11.926
 5801SOL    HW219301  10.103  13.243  11.905
 5802SOL     OW19302   3.610   6.156   2.353
 5802SOL    HW119303   3.562   6.238   2.351
 5802SOL    HW219304   3.605   6.124   2.263
 5803SOL     OW19305   5.606  14.112   4.815
 5803SOL    HW119306   5.511  14.107   4.815
 5803SOL    HW219307   5.630  14.121   4.722
 5804SOL     OW19308   3.267   4.540   6.126
 5804SOL    HW119309   3.239   4.622   6.085
 5804SOL    HW219310   3.307   4.567   6.208
 5805SOL     OW19311  13.938   0.409  14.345
 5805SOL    HW119312  13.928   0.409  14.441
 5805SOL    HW219313  13.905   0.495  14.318
 5806SOL     OW19314   7.909   3.914   6.626
 5806SOL    HW119315   7.984   3.957   6.585
 5806SOL    HW219316   7.871   3.861   6.557
 5807SOL     OW19317  12.028  14.479  11.274
 5807SOL    HW119318  12.031  14.574  11.276
 5807SOL    HW219319  12.120  14.452  11.266
 5808SOL     OW19320   2.674   7.394   8.355
 5808SOL    HW119321   2.697   7.411   8.264
 5808SOL    HW219322   2.724   7.316   8.379
 5809SOL     OW19323  14.043   8.013   6.013
 5809SOL    HW119324  14.015   7.927   6.044
 5809SOL    HW219325  14.123   7.996   5.964
 5810SOL     OW19326   5.057   8.638   1.038
 5810SOL    HW119327   5.034   8.662   1.128
 5810SOL    HW219328   5.137   8.688   1.020
 5811SOL     OW19329   9.338   6.053   6.710
 5811SOL    HW119330   9.351   6.089   6.798
 5811SOL    HW219331   9.286   6.119   6.664
 5812SOL     OW19332   3.071   5.098   8.738
 5812SOL    HW119333   3.125   5.163   8.693
 5812SOL    HW219334   2.999   5.148   8.776
 5813SOL     OW19335   2.480   8.597  11.972
 5813SOL    HW119336   2.471   8.570  12.063
 5813SOL    HW219337   2.524   8.524  11.929
 5814SOL     OW19338  14.739   0.696   3.528
 5814SOL    HW119339  14.827   0.663   3.510
 5814SOL    HW219340  14.750   0.751   3.606
 5815SOL     OW19341  14.785   2.631   4.917
 5815SOL    HW119342  14.853   2.574   4.881
 5815SOL    HW219343  14.770   2.597   5.005
 5816SOL     OW19344  14.857   4.908   4.817
 5816SOL    HW119345  14.863   4.837   4.881
 5816SOL    HW219346   0.050   4.883   4.748
 5817SOL     OW19347   5.153   9.077  11.052
 5817SOL    HW119348   5.204   9.157  11.039
 5817SOL    HW219349   5.122   9.054  10.965
 5818SOL     OW19350  10.753  11.786   0.458
 5818SOL    HW119351  10.677  11.813   0.509
 5818SOL    HW219352  10.738  11.693   0.441
 5819SOL     OW19353   3.838   1.358  11.096
 5819SOL    HW119354   3.781   1.304  11.150
 5819SOL    HW219355   3.820   1.329  11.006
 5820SOL     OW19356   5.287   2.626  14.663
 5820SOL    HW119357   5.197   2.597  14.676
 5820SOL    HW219358   5.290   2.713  14.702
 5821SOL     OW19359   3.339  14.690   2.082
 5821SOL    HW119360   3.272  14.753   2.108
 5821SOL    HW219361   3.289  14.610   2.062
 5822SOL     OW19362   1.645   1.153   3.080
 5822SOL    HW119363   1.690   1.235   3.061
 5822SOL    HW219364   1.711   1.085   3.067
 5823SOL     OW19365  11.559  13.410  10.973
 5823SOL    HW119366  11.583  13.501  10.958
 5823SOL    HW219367  11.598  13.388  11.057
 5824SOL     OW19368   8.647   9.497  10.603
 5824SOL    HW119369   8.644   9.404  10.578
 5824SOL    HW219370   8.587   9.504  10.677
 5825SOL     OW19371   6.185   2.082   9.433
 5825SOL    HW119372   6.203   2.172   9.406
 5825SOL    HW219373   6.208   2.080   9.526
 5826SOL     OW19374   1.019  10.612  12.983
 5826SOL    HW119375   0.937  10.596  13.030
 5826SOL    HW219376   1.049  10.697  13.015
 5827SOL     OW19377   2.395  12.355   6.596
 5827SOL    HW119378   2.365  12.283   6.539
 5827SOL    HW219379   2.420  12.424   6.535
 5828SOL     OW19380  13.914  11.667   6.703
 5828SOL    HW119381  13.921  11.591   6.760
 5828SOL    HW219382  13.995  11.667   6.652
 5829SOL     OW19383   6.504  10.077   6.823
 5829SOL    HW119384   6.527  10.114   6.738
 5829SOL    HW219385   6.411  10.097   6.834
 5830SOL     OW19386   2.285  10.760  12.644
 5830SOL    HW119387   2.199  10.764  12.602
 5830SOL    HW219388   2.283  10.680  12.696
 5831SOL     OW19389  13.351  14.360   9.053
 5831SOL    HW119390  13.336  14.265   9.060
 5831SOL    HW219391  13.281  14.391   8.995
 5832SOL     OW19392  14.641  12.882  14.702
 5832SOL    HW119393  14.563  12.830  14.686
 5832SOL    HW219394  14.668  12.914  14.616
 5833SOL     OW19395  13.257  10.014  12.302
 5833SOL    HW119396  13.338   9.988  12.345
 5833SOL    HW219397  13.285  10.049  12.217
 5834SOL     OW19398   5.863   2.023   1.829
 5834SOL    HW119399   5.856   2.070   1.746
 5834SOL    HW219400   5.821   1.938   1.813
 5835SOL     OW19401   7.776  12.967   2.777
 5835SOL    HW119402   7.699  13.023   2.768
 5835SOL    HW219403   7.774  12.912   2.699
 5836SOL     OW19404   8.788   6.583   2.847
 5836SOL    HW119405   8.872   6.629   2.849
 5836SOL    HW219406   8.811   6.492   2.827
 5837SOL     OW19407  14.353  11.759   7.395
 5837SOL    HW119408  14.436  11.803   7.413
 5837SOL    HW219409  14.322  11.729   7.481
 5838SOL     OW19410   0.931   2.847   6.322
 5838SOL    HW119411   0.904   2.919   6.379
 5838SOL    HW219412   0.989   2.887   6.258
 5839SOL     OW19413  12.756  10.442  13.260
 5839SOL    HW119414  12.751  10.455  13.165
 5839SOL    HW219415  12.665  10.452  13.290
 5840SOL     OW19416   8.092  10.036  12.786
 5840SOL    HW119417   8.065  10.016  12.697
 5840SOL    HW219418   8.035   9.982  12.841
 5841SOL     OW19419   2.191  14.738  11.602
 5841SOL    HW119420   2.231  14.786  11.530
 5841SOL    HW219421   2.128  14.679  11.561
 5842SOL     OW19422   1.262   9.639   2.842
 5842SOL    HW119423   1.328   9.693   2.798
 5842SOL    HW219424   1.304   9.553   2.851
 5843SOL     OW19425   9.909   4.600   4.360
 5843SOL    HW119426   9.950   4.519   4.330
 5843SOL    HW219427   9.851   4.625   4.287
 5844SOL     OW19428   0.265   2.749   1.660
 5844SOL    HW119429   0.206   2.718   1.728
 5844SOL    HW219430   0.237   2.839   1.643
 5845SOL     OW19431  10.794   0.864   4.714
 5845SOL    HW119432  10.798   0.902   4.801
 5845SOL    HW219433  10.863   0.908   4.665
 5846SOL     OW19434   0.567   9.154  13.903
 5846SOL    HW119435   0.499   9.192  13.959
 5846SOL    HW219436   0.605   9.229  13.857
 5847SOL     OW19437   9.475   6.831  10.688
 5847SOL    HW119438   9.519   6.808  10.606
 5847SOL    HW219439   9.516   6.914  10.714
 5848SOL     OW19440   4.705  10.694   2.116
 5848SOL    HW119441   4.621  10.673   2.074
 5848SOL    HW219442   4.734  10.774   2.073
 5849SOL     OW19443   6.636   2.593  11.090
 5849SOL    HW119444   6.659   2.546  11.011
 5849SOL    HW219445   6.663   2.536  11.162
 5850SOL     OW19446   7.484   8.772   3.432
 5850SOL    HW119447   7.441   8.734   3.509
 5850SOL    HW219448   7.415   8.779   3.366
 5851SOL     OW19449   9.163   3.063   4.922
 5851SOL    HW119450   9.106   3.094   4.992
 5851SOL    HW219451   9.186   2.973   4.948
 5852SOL     OW19452   8.871   5.864   0.874
 5852SOL    HW119453   8.863   5.858   0.779
 5852SOL    HW219454   8.914   5.782   0.899
 5853SOL     OW19455   9.326  14.584   0.664
 5853SOL    HW119456   9.359  14.589   0.575
 5853SOL    HW219457   9.360  14.501   0.698
 5854SOL     OW19458   7.007   7.873  14.592
 5854SOL    HW119459   6.971   7.784  14.593
 5854SOL    HW219460   7.062   7.877  14.671
 5855SOL     OW19461   8.253  13.755   2.978
 5855SOL    HW119462   8.347  13.760   2.994
 5855SOL    HW219463   8.225  13.846   2.972
 5856SOL     OW19464   0.451   5.620  11.035
 5856SOL    HW119465   0.446   5.683  10.964
 5856SOL    HW219466   0.496   5.544  10.997
 5857SOL     OW19467   5.039  10.827   2.353
 5857SOL    HW119468   5.073  10.765   2.418
 5857SOL    HW219469   4.961  10.865   2.395
 5858SOL     OW19470   7.947   7.032   4.630
 5858SOL    HW119471   7.865   7.068   4.664
 5858SOL    HW219472   8.008   7.106   4.631
 5859SOL     OW19473  11.215  13.227   8.188
 5859SOL    HW119474  11.210  13.147   8.136
 5859SOL    HW219475  11.296  13.269   8.159
 5860SOL     OW19476   5.464   4.582  14.351
 5860SOL    HW119477   5.418   4.544  14.426
 5860SOL    HW219478   5.498   4.506  14.303
 5861SOL     OW19479   6.843   8.604   1.140
 5861SOL    HW119480   6.791   8.524   1.148
 5861SOL    HW219481   6.928   8.580   1.175
 5862SOL     OW19482  12.128   1.423   6.262
 5862SOL    HW119483  12.042   1.447   6.226
 5862SOL    HW219484  12.189   1.436   6.190
 5863SOL     OW19485   9.903  13.674   3.860
 5863SOL    HW119486   9.843  13.673   3.786
 5863SOL    HW219487   9.966  13.604   3.841
 5864SOL     OW19488  12.502   1.647  12.599
 5864SOL    HW119489  12.490   1.603  12.515
 5864SOL    HW219490  12.512   1.739  12.576
 5865SOL     OW19491  14.184  10.604   5.293
 5865SOL    HW119492  14.104  10.651   5.315
 5865SOL    HW219493  14.183  10.526   5.348
 5866SOL     OW19494  14.112  14.605  14.845
 5866SOL    HW119495  14.126  14.656  14.765
 5866SOL    HW219496  14.059  14.531  14.816
 5867SOL     OW19497  13.138   7.423  12.697
 5867SOL    HW119498  13.220   7.394  12.656
 5867SOL    HW219499  13.076   7.352  12.679
 5868SOL     OW19500  10.404   7.506  10.344
 5868SOL    HW119501  10.499   7.499  10.347
 5868SOL    HW219502  10.374   7.436  10.402
 5869SOL     OW19503  10.859  10.576  12.232
 5869SOL    HW119504  10.832  10.630  12.307
 5869SOL    HW219505  10.870  10.488  12.268
 5870SOL     OW19506   9.412   9.429  12.535
 5870SOL    HW119507   9.489   9.483  12.555
 5870SOL    HW219508   9.448   9.354  12.487
 5871SOL     OW19509   0.395   9.833  12.761
 5871SOL    HW119510   0.307   9.796  12.773
 5871SOL    HW219511   0.393   9.915  12.811
 5872SOL     OW19512  12.672   4.465   6.919
 5872SOL    HW119513  12.583   4.434   6.934
 5872SOL    HW219514  12.727   4.410   6.976
 5873SOL     OW19515   0.485   2.756   7.311
 5873SOL    HW119516   0.504   2.663   7.298
 5873SOL    HW219517   0.405   2.771   7.262
 5874SOL     OW19518  11.608  10.128   4.658
 5874SOL    HW119519  11.538  10.153   4.597
 5874SOL    HW219520  11.607  10.032   4.656
 5875SOL     OW19521   2.705   5.708  10.139
 5875SOL    HW119522   2.610   5.701  10.146
 5875SOL    HW219523   2.738   5.661  10.216
 5876SOL     OW19524   9.462   8.882   0.205
 5876SOL    HW119525   9.502   8.883   0.291
 5876SOL    HW219526   9.535   8.867   0.144
 5877SOL     OW19527  13.985   7.610   6.496
 5877SOL    HW119528  13.927   7.627   6.421
 5877SOL    HW219529  13.969   7.682   6.556
 5878SOL     OW19530   4.511   6.368   4.568
 5878SOL    HW119531   4.601   6.356   4.597
 5878SOL    HW219532   4.459   6.368   4.649
 5879SOL     OW19533  11.246   8.283   8.687
 5879SOL    HW119534  11.159   8.301   8.722
 5879SOL    HW219535  11.251   8.335   8.607
 5880SOL     OW19536  14.643  11.542  11.605
 5880SOL    HW119537  14.655  11.531  11.699
 5880SOL    HW219538  14.715  11.598  11.577
 5881SOL     OW19539   7.120   6.392  10.865
 5881SOL    HW119540   7.147   6.484  10.874
 5881SOL    HW219541   7.053   6.393  10.796
 5882SOL     OW19542  12.833   8.719  14.417
 5882SOL    HW119543  12.877   8.700  14.334
 5882SOL    HW219544  12.823   8.633  14.458
 5883SOL     OW19545  13.126  13.671   7.367
 5883SOL    HW119546  13.155  13.624   7.289
 5883SOL    HW219547  13.158  13.760   7.355
 5884SOL     OW19548   4.203   6.606   3.558
 5884SOL    HW119549   4.170   6.624   3.646
 5884SOL    HW219550   4.250   6.523   3.567
 5885SOL     OW19551   6.545   5.032   4.291
 5885SOL    HW119552   6.636   5.034   4.261
 5885SOL    HW219553   6.525   5.123   4.311
 5886SOL     OW19554   0.978   7.003   4.408
 5886SOL    HW119555   1.011   7.023   4.495
 5886SOL    HW219556   0.893   7.049   4.403
 5887SOL     OW19557   0.586   1.230  10.957
 5887SOL    HW119558   0.592   1.324  10.945
 5887SOL    HW219559   0.493   1.213  10.970
 5888SOL     OW19560  14.200   1.608   8.717
 5888SOL    HW119561  14.198   1.575   8.806
 5888SOL    HW219562  14.289   1.642   8.706
 5889SOL     OW19563  12.797   9.697  12.318
 5889SOL    HW119564  12.766   9.612  12.349
 5889SOL    HW219565  12.888   9.700  12.344
 5890SOL     OW19566   2.851  13.032  10.731
 5890SOL    HW119567   2.844  12.946  10.773
 5890SOL    HW219568   2.764  13.070  10.737
 5891SOL     OW19569   2.218  11.207   3.895
 5891SOL    HW119570   2.196  11.157   3.974
 5891SOL    HW219571   2.149  11.272   3.888
 5892SOL     OW19572  10.762   9.456   2.323
 5892SOL    HW119573  10.812   9.469   2.243
 5892SOL    HW219574  10.828   9.436   2.390
 5893SOL     OW19575   0.886   5.072  13.032
 5893SOL    HW119576   0.945   5.085  13.107
 5893SOL    HW219577   0.843   5.157  13.021
 5894SOL     OW19578   1.740   1.090  10.576
 5894SOL    HW119579   1.774   1.006  10.607
 5894SOL    HW219580   1.803   1.155  10.607
 5895SOL     OW19581   5.622   6.616  11.152
 5895SOL    HW119582   5.531   6.592  11.139
 5895SOL    HW219583   5.627   6.708  11.126
 5896SOL     OW19584  14.492   5.912   0.879
 5896SOL    HW119585  14.545   5.838   0.850
 5896SOL    HW219586  14.467   5.891   0.969
 5897SOL     OW19587  13.311   3.877   1.741
 5897SOL    HW119588  13.239   3.833   1.697
 5897SOL    HW219589  13.297   3.858   1.834
 5898SOL     OW19590   6.132   7.140  10.609
 5898SOL    HW119591   6.164   7.190  10.534
 5898SOL    HW219592   6.202   7.146  10.674
 5899SOL     OW19593  10.388   9.292   9.873
 5899SOL    HW119594  10.433   9.219   9.916
 5899SOL    HW219595  10.406   9.279   9.780
 5900SOL     OW19596   1.953   2.791   9.308
 5900SOL    HW119597   1.893   2.811   9.236
 5900SOL    HW219598   1.929   2.703   9.336
 5901SOL     OW19599   4.325   5.872   2.439
 5901SOL    HW119600   4.251   5.853   2.381
 5901SOL    HW219601   4.285   5.887   2.525
 5902SOL     OW19602   4.922   4.689   0.799
 5902SOL    HW119603   4.982   4.668   0.870
 5902SOL    HW219604   4.942   4.780   0.777
 5903SOL     OW19605   9.949   3.929   7.326
 5903SOL    HW119606   9.900   4.009   7.347
 5903SOL    HW219607   9.931   3.870   7.399
 5904SOL     OW19608   3.008   9.000   9.805
 5904SOL    HW119609   2.983   8.943   9.877
 5904SOL    HW219610   3.084   9.048   9.836
 5905SOL     OW19611  14.393  14.062   7.324
 5905SOL    HW119612  14.349  14.139   7.288
 5905SOL    HW219613  14.331  14.027   7.388
 5906SOL     OW19614  12.230  10.250   8.880
 5906SOL    HW119615  12.316  10.272   8.917
 5906SOL    HW219616  12.174  10.234   8.956
 5907SOL     OW19617   9.053   7.185   2.249
 5907SOL    HW119618   9.107   7.182   2.170
 5907SOL    HW219619   9.091   7.257   2.300
 5908SOL     OW19620   7.988   2.653   8.356
 5908SOL    HW119621   7.905   2.650   8.310
 5908SOL    HW219622   7.992   2.741   8.393
 5909SOL     OW19623   2.423   4.376   0.499
 5909SOL    HW119624   2.418   4.435   0.575
 5909SOL    HW219625   2.398   4.290   0.533
 5910SOL     OW19626  11.901   1.358   9.359
 5910SOL    HW119627  11.817   1.327   9.325
 5910SOL    HW219628  11.954   1.375   9.281
 5911SOL     OW19629   0.401   9.106  13.460
 5911SOL    HW119630   0.436   9.187  13.422
 5911SOL    HW219631   0.332   9.136  13.520
 5912SOL     OW19632  12.289  12.928   6.451
 5912SOL    HW119633  12.344  12.930   6.372
 5912SOL    HW219634  12.344  12.968   6.519
 5913SOL     OW19635  11.402   0.062   1.070
 5913SOL    HW119636  11.338   0.035   1.004
 5913SOL    HW219637  11.467   0.112   1.022
 5914SOL     OW19638  11.097  13.045  11.448
 5914SOL    HW119639  11.095  13.094  11.366
 5914SOL    HW219640  11.005  13.024  11.466
 5915SOL     OW19641   8.930   7.465  14.462
 5915SOL    HW119642   8.944   7.406  14.536
 5915SOL    HW219643   8.941   7.552  14.499
 5916SOL     OW19644   7.674  12.556  12.705
 5916SOL    HW119645   7.624  12.539  12.625
 5916SOL    HW219646   7.654  12.647  12.727
 5917SOL     OW19647  13.462   9.106   2.493
 5917SOL    HW119648  13.397   9.045   2.457
 5917SOL    HW219649  13.490   9.158   2.418
 5918SOL     OW19650   6.262   1.885  12.721
 5918SOL    HW119651   6.206   1.931  12.783
 5918SOL    HW219652   6.343   1.868  12.769
 5919SOL     OW19653   9.067  13.394  14.027
 5919SOL    HW119654   9.159  13.366  14.032
 5919SOL    HW219655   9.071  13.488  14.009
 5920SOL     OW19656  13.036  10.139  12.405
 5920SOL    HW119657  12.967  10.126  12.340
 5920SOL    HW219658  13.116  10.107  12.361
 5921SOL     OW19659   8.952   7.919  10.927
 5921SOL    HW119660   8.913   7.982  10.988
 5921SOL    HW219661   8.928   7.952  10.840
 5922SOL     OW19662   2.997  12.055  10.223
 5922SOL    HW119663   3.043  12.087  10.145
 5922SOL    HW219664   2.931  12.122  10.241
 5923SOL     OW19665  14.103  10.031   4.472
 5923SOL    HW119666  14.138   9.953   4.516
 5923SOL    HW219667  14.047  10.073   4.538
 5924SOL     OW19668  11.547   0.870   9.666
 5924SOL    HW119669  11.510   0.865   9.578
 5924SOL    HW219670  11.626   0.923   9.656
 5925SOL     OW19671   6.650  13.914  10.238
 5925SOL    HW119672   6.670  13.986  10.298
 5925SOL    HW219673   6.644  13.955  10.152
 5926SOL     OW19674   1.863   2.590   9.614
 5926SOL    HW119675   1.856   2.500   9.645
 5926SOL    HW219676   1.778   2.609   9.574
 5927SOL     OW19677   5.308   2.820  11.234
 5927SOL    HW119678   5.387   2.835  11.286
 5927SOL    HW219679   5.338   2.825  11.143
 5928SOL     OW19680   7.654   7.827   0.757
 5928SOL    HW119681   7.652   7.732   0.744
 5928SOL    HW219682   7.676   7.839   0.849
 5929SOL     OW19683   3.118   0.286   4.471
 5929SOL    HW119684   3.188   0.322   4.417
 5929SOL    HW219685   3.156   0.275   4.557
 5930SOL     OW19686  13.874   6.569   9.196
 5930SOL    HW119687  13.794   6.619   9.211
 5930SOL    HW219688  13.843   6.483   9.168
 5931SOL     OW19689   9.494  12.166   1.071
 5931SOL    HW119690   9.543  12.191   1.149
 5931SOL    HW219691   9.413  12.129   1.104
 5932SOL     OW19692   5.970  12.257   4.095
 5932SOL    HW119693   6.059  12.256   4.130
 5932SOL    HW219694   5.967  12.334   4.039
 5933SOL     OW19695   5.579   4.648   2.354
 5933SOL    HW119696   5.563   4.689   2.269
 5933SOL    HW219697   5.581   4.722   2.415
 5934SOL     OW19698  13.953   7.606   1.611
 5934SOL    HW119699  13.911   7.533   1.564
 5934SOL    HW219700  14.015   7.564   1.670
 5935SOL     OW19701   4.243   3.669   4.016
 5935SOL    HW119702   4.175   3.735   4.021
 5935SOL    HW219703   4.254   3.638   4.106
 5936SOL     OW19704  10.737  10.197   6.313
 5936SOL    HW119705  10.709  10.264   6.375
 5936SOL    HW219706  10.708  10.115   6.352
 5937SOL     OW19707   5.750   2.042   0.537
 5937SOL    HW119708   5.744   2.077   0.448
 5937SOL    HW219709   5.779   1.951   0.526
 5938SOL     OW19710   0.560  11.169   1.743
 5938SOL    HW119711   0.487  11.111   1.720
 5938SOL    HW219712   0.518  11.247   1.780
 5939SOL     OW19713   2.290   9.480  14.499
 5939SOL    HW119714   2.267   9.500  14.590
 5939SOL    HW219715   2.379   9.515  14.488
 5940SOL     OW19716   2.615   3.640   6.502
 5940SOL    HW119717   2.570   3.701   6.559
 5940SOL    HW219718   2.623   3.560   6.554
 5941SOL     OW19719   7.169   5.004   5.222
 5941SOL    HW119720   7.250   4.992   5.171
 5941SOL    HW219721   7.158   5.099   5.227
 5942SOL     OW19722   0.844  14.043   6.055
 5942SOL    HW119723   0.925  14.002   6.025
 5942SOL    HW219724   0.803  13.977   6.112
 5943SOL     OW19725   2.151  14.670  10.850
 5943SOL    HW119726   2.132  14.646  10.759
 5943SOL    HW219727   2.154  14.586  10.896
 5944SOL     OW19728   7.102   1.801   4.963
 5944SOL    HW119729   7.110   1.883   4.915
 5944SOL    HW219730   7.025   1.813   5.019
 5945SOL     OW19731   4.149   2.365  10.115
 5945SOL    HW119732   4.136   2.301  10.045
 5945SOL    HW219733   4.196   2.318  10.183
 5946SOL     OW19734   6.737   0.130  10.959
 5946SOL    HW119735   6.684   0.208  10.944
 5946SOL    HW219736   6.828   0.162  10.961
 5947SOL     OW19737   0.699   4.294   8.398
 5947SOL    HW119738   0.662   4.329   8.479
 5947SOL    HW219739   0.661   4.349   8.329
 5948SOL     OW19740  12.697   0.387   4.094
 5948SOL    HW119741  12.742   0.305   4.073
 5948SOL    HW219742  12.631   0.362   4.160
 5949SOL     OW19743  13.780  10.895   2.663
 5949SOL    HW119744  13.814  10.883   2.752
 5949SOL    HW219745  13.854  10.876   2.606
 5950SOL     OW19746  13.953  11.937   5.311
 5950SOL    HW119747  13.990  11.906   5.394
 5950SOL    HW219748  13.982  11.872   5.247
 5951SOL     OW19749  12.495   7.596   9.919
 5951SOL    HW119750  12.477   7.583   9.826
 5951SOL    HW219751  12.417   7.641   9.953
 5952SOL     OW19752   2.737   7.172   2.504
 5952SOL    HW119753   2.800   7.200   2.571
 5952SOL    HW219754   2.656   7.155   2.552
 5953SOL     OW19755   3.299   4.384  11.218
 5953SOL    HW119756   3.353   4.309  11.243
 5953SOL    HW219757   3.291   4.435  11.299
 5954SOL     OW19758  14.570  14.728  10.592
 5954SOL    HW119759  14.659  14.693  10.601
 5954SOL    HW219760  14.551  14.769  10.677
 5955SOL     OW19761   9.737   3.300   5.313
 5955SOL    HW119762   9.680   3.223   5.315
 5955SOL    HW219763   9.682   3.370   5.278
 5956SOL     OW19764   5.315   4.041   6.312
 5956SOL    HW119765   5.315   4.002   6.225
 5956SOL    HW219766   5.237   4.097   6.314
 5957SOL     OW19767  11.780   8.931   6.594
 5957SOL    HW119768  11.801   8.850   6.548
 5957SOL    HW219769  11.804   8.913   6.686
 5958SOL     OW19770   5.557   4.160  12.436
 5958SOL    HW119771   5.522   4.246  12.459
 5958SOL    HW219772   5.573   4.118  12.521
 5959SOL     OW19773  11.561   8.177  13.292
 5959SOL    HW119774  11.542   8.125  13.214
 5959SOL    HW219775  11.578   8.113  13.360
 5960SOL     OW19776   4.651   5.442   6.218
 5960SOL    HW119777   4.738   5.425   6.184
 5960SOL    HW219778   4.622   5.358   6.255
 5961SOL     OW19779   8.785  10.776   2.452
 5961SOL    HW119780   8.823  10.704   2.403
 5961SOL    HW219781   8.692  10.754   2.459
 5962SOL     OW19782  10.684   1.034   1.484
 5962SOL    HW119783  10.721   0.949   1.459
 5962SOL    HW219784  10.695   1.088   1.405
 5963SOL     OW19785   9.253   8.859   7.988
 5963SOL    HW119786   9.190   8.790   8.004
 5963SOL    HW219787   9.227   8.930   8.046
 5964SOL     OW19788   5.086   6.105   2.496
 5964SOL    HW119789   5.111   6.016   2.471
 5964SOL    HW219790   5.160   6.137   2.548
 5965SOL     OW19791   6.708   6.013  13.183
 5965SOL    HW119792   6.763   5.954  13.234
 5965SOL    HW219793   6.754   6.097  13.186
 5966SOL     OW19794  13.144   0.166   0.414
 5966SOL    HW119795  13.233   0.186   0.442
 5966SOL    HW219796  13.150   0.155   0.319
 5967SOL     OW19797   8.951   0.525   0.923
 5967SOL    HW119798   9.034   0.509   0.967
 5967SOL    HW219799   8.895   0.453   0.951
 5968SOL     OW19800   4.444   8.899   9.321
 5968SOL    HW119801   4.446   8.846   9.241
 5968SOL    HW219802   4.481   8.983   9.295
 5969SOL     OW19803   2.419   6.644  13.121
 5969SOL    HW119804   2.497   6.694  13.100
 5969SOL    HW219805   2.445   6.552  13.108
 5970SOL     OW19806   9.388  11.877  11.991
 5970SOL    HW119807   9.407  11.784  12.000
 5970SOL    HW219808   9.366  11.905  12.080
 5971SOL     OW19809   0.012   3.630   7.416
 5971SOL    HW119810  14.859   3.714   7.375
 5971SOL    HW219811  14.844   3.636   7.504
 5972SOL     OW19812   2.339  13.662   2.480
 5972SOL    HW119813   2.433  13.682   2.480
 5972SOL    HW219814   2.319  13.639   2.390
 5973SOL     OW19815   0.113   0.507   8.712
 5973SOL    HW119816   0.046   0.517   8.779
 5973SOL    HW219817   0.175   0.445   8.750
 5974SOL     OW19818  12.708   0.956   6.199
 5974SOL    HW119819  12.673   1.020   6.138
 5974SOL    HW219820  12.638   0.890   6.207
 5975SOL     OW19821  13.282  11.972   3.919
 5975SOL    HW119822  13.243  12.042   3.970
 5975SOL    HW219823  13.373  11.998   3.906
 5976SOL     OW19824   2.026  11.852   0.050
 5976SOL    HW119825   2.056  11.761   0.049
 5976SOL    HW219826   2.096  11.901   0.006
 5977SOL     OW19827   0.743   5.290   6.533
 5977SOL    HW119828   0.772   5.199   6.529
 5977SOL    HW219829   0.660   5.292   6.487
 5978SOL     OW19830   9.271  12.082   7.680
 5978SOL    HW119831   9.354  12.065   7.635
 5978SOL    HW219832   9.257  12.004   7.734
 5979SOL     OW19833   7.379   2.984   4.648
 5979SOL    HW119834   7.451   3.047   4.644
 5979SOL    HW219835   7.417   2.906   4.687
 5980SOL     OW19836  12.283   1.496  14.622
 5980SOL    HW119837  12.359   1.537  14.582
 5980SOL    HW219838  12.223   1.568  14.639
 5981SOL     OW19839   3.508  14.860   7.692
 5981SOL    HW119840   3.448   0.039   7.634
 5981SOL    HW219841   3.590   0.041   7.685
 5982SOL     OW19842   4.840   4.771   1.107
 5982SOL    HW119843   4.834   4.773   1.012
 5982SOL    HW219844   4.816   4.859   1.134
 5983SOL     OW19845   1.309   6.580   7.079
 5983SOL    HW119846   1.384   6.640   7.079
 5983SOL    HW219847   1.256   6.607   7.154
 5984SOL     OW19848   7.878   9.363   4.245
 5984SOL    HW119849   7.850   9.283   4.288
 5984SOL    HW219850   7.953   9.336   4.191
 5985SOL     OW19851  14.606   1.634   1.672
 5985SOL    HW119852  14.538   1.630   1.739
 5985SOL    HW219853  14.642   1.545   1.669
 5986SOL     OW19854   0.435   6.809  12.605
 5986SOL    HW119855   0.396   6.891  12.637
 5986SOL    HW219856   0.458   6.761  12.684
 5987SOL     OW19857   2.226   6.853  13.160
 5987SOL    HW119858   2.142   6.808  13.171
 5987SOL    HW219859   2.287   6.783  13.137
 5988SOL     OW19860  13.491   5.296  14.865
 5988SOL    HW119861  13.581   5.324  14.846
 5988SOL    HW219862  13.439   5.376  14.858
 5989SOL     OW19863   2.062  10.145   6.735
 5989SOL    HW119864   2.036  10.237   6.742
 5989SOL    HW219865   2.082  10.133   6.643
 5990SOL     OW19866  10.257   6.883  13.152
 5990SOL    HW119867  10.174   6.847  13.183
 5990SOL    HW219868  10.232   6.956  13.095
 5991SOL     OW19869   2.847  14.287   1.369
 5991SOL    HW119870   2.879  14.229   1.438
 5991SOL    HW219871   2.927  14.319   1.327
 5992SOL     OW19872  11.167   3.672   7.346
 5992SOL    HW119873  11.232   3.705   7.284
 5992SOL    HW219874  11.193   3.710   7.430
 5993SOL     OW19875  13.663  12.777   9.351
 5993SOL    HW119876  13.702  12.757   9.436
 5993SOL    HW219877  13.711  12.722   9.289
 5994SOL     OW19878  13.974   2.968  14.414
 5994SOL    HW119879  13.897   2.951  14.469
 5994SOL    HW219880  13.939   3.016  14.339
 5995SOL     OW19881   1.215   4.922   2.695
 5995SOL    HW119882   1.307   4.949   2.695
 5995SOL    HW219883   1.172   4.986   2.639
 5996SOL     OW19884   2.863   3.144  10.649
 5996SOL    HW119885   2.837   3.233  10.674
 5996SOL    HW219886   2.948   3.132  10.691
 5997SOL     OW19887   2.925  10.205  13.714
 5997SOL    HW119888   2.998  10.266  13.723
 5997SOL    HW219889   2.938  10.164  13.628
 5998SOL     OW19890   0.640  13.888  13.512
 5998SOL    HW119891   0.688  13.936  13.444
 5998SOL    HW219892   0.643  13.946  13.588
 5999SOL     OW19893   8.519  13.023   4.285
 5999SOL    HW119894   8.499  12.948   4.341
 5999SOL    HW219895   8.465  13.094   4.321
 6000SOL     OW19896   8.504  10.332  14.722
 6000SOL    HW119897   8.520  10.271  14.650
 6000SOL    HW219898   8.589  10.370  14.741
 6001SOL     OW19899  10.214  10.159  12.853
 6001SOL    HW119900  10.182  10.169  12.763
 6001SOL    HW219901  10.258  10.074  12.853
 6002SOL     OW19902   4.477  14.066  14.178
 6002SOL    HW119903   4.537  14.128  14.218
 6002SOL    HW219904   4.531  13.989  14.159
 6003SOL     OW19905  13.809   7.885   0.964
 6003SOL    HW119906  13.841   7.952   1.025
 6003SOL    HW219907  13.824   7.923   0.878
 6004SOL     OW19908   0.165   1.715  12.357
 6004SOL    HW119909   0.191   1.801  12.323
 6004SOL    HW219910   0.237   1.691  12.416
 6005SOL     OW19911   8.360   2.492  11.920
 6005SOL    HW119912   8.316   2.446  11.848
 6005SOL    HW219913   8.343   2.585  11.903
 6006SOL     OW19914  12.316  13.394   9.587
 6006SOL    HW119915  12.339  13.437   9.669
 6006SOL    HW219916  12.229  13.357   9.603
 6007SOL     OW19917   0.896   3.146   0.748
 6007SOL    HW119918   0.809   3.177   0.723
 6007SOL    HW219919   0.941   3.224   0.781
 6008SOL     OW19920   6.890   1.430   2.212
 6008SOL    HW119921   6.982   1.406   2.200
 6008SOL    HW219922   6.891   1.526   2.218
 6009SOL     OW19923   7.352  11.088   9.584
 6009SOL    HW119924   7.428  11.125   9.629
 6009SOL    HW219925   7.297  11.164   9.563
 6010SOL     OW19926   7.271  13.001   5.083
 6010SOL    HW119927   7.330  13.005   5.158
 6010SOL    HW219928   7.207  12.934   5.107
 6011SOL     OW19929   7.919  10.189  14.215
 6011SOL    HW119930   7.950  10.187  14.124
 6011SOL    HW219931   7.969  10.119  14.259
 6012SOL     OW19932  11.799   1.046   1.926
 6012SOL    HW119933  11.784   1.099   1.848
 6012SOL    HW219934  11.891   1.062   1.948
 6013SOL     OW19935   1.747   5.793   8.704
 6013SOL    HW119936   1.779   5.851   8.634
 6013SOL    HW219937   1.723   5.853   8.775
 6014SOL     OW19938  11.850   5.185  11.405
 6014SOL    HW119939  11.913   5.121  11.371
 6014SOL    HW219940  11.764   5.145  11.389
 6015SOL     OW19941   3.730   1.971   5.530
 6015SOL    HW119942   3.734   2.066   5.527
 6015SOL    HW219943   3.753   1.942   5.442
 6016SOL     OW19944   5.916  13.428   8.585
 6016SOL    HW119945   5.995  13.467   8.622
 6016SOL    HW219946   5.927  13.438   8.490
 6017SOL     OW19947   0.847  11.912   5.597
 6017SOL    HW119948   0.872  11.996   5.636
 6017SOL    HW219949   0.902  11.905   5.519
 6018SOL     OW19950   5.126   6.307   0.850
 6018SOL    HW119951   5.030   6.307   0.855
 6018SOL    HW219952   5.148   6.219   0.819
 6019SOL     OW19953  14.043   5.830  12.722
 6019SOL    HW119954  14.080   5.841  12.634
 6019SOL    HW219955  13.949   5.819  12.707
 6020SOL     OW19956  12.923  14.799   8.000
 6020SOL    HW119957  12.945  14.749   7.922
 6020SOL    HW219958  12.865   0.000   7.969
 6021SOL     OW19959   4.085   0.974   0.085
 6021SOL    HW119960   4.125   0.893   0.054
 6021SOL    HW219961   4.155   1.021   0.129
 6022SOL     OW19962  14.550   1.595   7.675
 6022SOL    HW119963  14.474   1.635   7.633
 6022SOL    HW219964  14.591   1.667   7.724
 6023SOL     OW19965  12.703  14.660  13.694
 6023SOL    HW119966  12.743  14.629  13.775
 6023SOL    HW219967  12.617  14.692  13.721
 6024SOL     OW19968  14.786  11.339   3.448
 6024SOL    HW119969  14.757  11.261   3.403
 6024SOL    HW219970  14.721  11.353   3.517
 6025SOL     OW19971  14.335  14.477   4.575
 6025SOL    HW119972  14.386  14.554   4.601
 6025SOL    HW219973  14.264  14.472   4.640
 6026SOL     OW19974   3.577  10.886   9.847
 6026SOL    HW119975   3.570  10.803   9.800
 6026SOL    HW219976   3.497  10.933   9.823
 6027SOL     OW19977   2.924   4.171   3.449
 6027SOL    HW119978   3.000   4.227   3.463
 6027SOL    HW219979   2.856   4.209   3.504
 6028SOL     OW19980   0.383   6.754  14.612
 6028SOL    HW119981   0.386   6.667  14.653
 6028SOL    HW219982   0.439   6.808  14.668
 6029SOL     OW19983   3.228   2.590   5.397
 6029SOL    HW119984   3.321   2.606   5.414
 6029SOL    HW219985   3.227   2.523   5.328
 6030SOL     OW19986   3.835   9.781   0.883
 6030SOL    HW119987   3.756   9.827   0.913
 6030SOL    HW219988   3.899   9.851   0.869
 6031SOL     OW19989   1.871  14.124  10.053
 6031SOL    HW119990   1.881  14.075  10.135
 6031SOL    HW219991   1.777  14.145  10.050
 6032SOL     OW19992   4.359  11.686   3.928
 6032SOL    HW119993   4.370  11.686   3.833
 6032SOL    HW219994   4.281  11.632   3.943
 6033SOL     OW19995  10.993   2.676   9.256
 6033SOL    HW119996  10.945   2.614   9.310
 6033SOL    HW219997  11.083   2.673   9.288
 6034SOL     OW19998   8.362   4.575  11.066
 6034SOL    HW119999   8.412   4.550  10.988
 6034SOL    HW220000   8.272   4.549  11.047
 6035SOL     OW20001   6.142   5.015   9.831
 6035SOL    HW120002   6.058   5.007   9.876
 6035SOL    HW220003   6.124   4.989   9.741
 6036SOL     OW20004   4.380   9.913   5.773
 6036SOL    HW120005   4.452   9.935   5.713
 6036SOL    HW220006   4.378   9.818   5.774
 6037SOL     OW20007  10.846   9.102   8.369
 6037SOL    HW120008  10.759   9.072   8.394
 6037SOL    HW220009  10.835   9.137   8.281
 6038SOL     OW20010   4.243   9.385   7.549
 6038SOL    HW120011   4.297   9.455   7.513
 6038SOL    HW220012   4.301   9.309   7.554
 6039SOL     OW20013   5.653   3.699   9.475
 6039SOL    HW120014   5.656   3.773   9.414
 6039SOL    HW220015   5.686   3.625   9.424
 6040SOL     OW20016   5.022  14.608  13.603
 6040SOL    HW120017   5.037  14.641  13.515
 6040SOL    HW220018   5.093  14.646  13.655
 6041SOL     OW20019   6.193   6.027   0.382
 6041SOL    HW120020   6.161   5.978   0.458
 6041SOL    HW220021   6.119   6.082   0.357
 6042SOL     OW20022   1.771   7.757   4.548
 6042SOL    HW120023   1.744   7.771   4.639
 6042SOL    HW220024   1.866   7.751   4.551
 6043SOL     OW20025   6.205   8.615  11.508
 6043SOL    HW120026   6.193   8.581  11.419
 6043SOL    HW220027   6.230   8.706  11.495
 6044SOL     OW20028   7.793   4.219  14.729
 6044SOL    HW120029   7.698   4.208  14.723
 6044SOL    HW220030   7.829   4.137  14.695
 6045SOL     OW20031   8.759   8.292   3.264
 6045SOL    HW120032   8.750   8.355   3.193
 6045SOL    HW220033   8.671   8.255   3.275
 6046SOL     OW20034   5.404  11.567   8.863
 6046SOL    HW120035   5.462  11.518   8.921
 6046SOL    HW220036   5.368  11.500   8.804
 6047SOL     OW20037  12.804   8.549   7.692
 6047SOL    HW120038  12.828   8.478   7.752
 6047SOL    HW220039  12.779   8.504   7.611
 6048SOL     OW20040   5.213   3.678   0.605
 6048SOL    HW120041   5.283   3.743   0.614
 6048SOL    HW220042   5.172   3.698   0.521
 6049SOL     OW20043   1.483  14.646   6.559
 6049SOL    HW120044   1.508  14.713   6.495
 6049SOL    HW220045   1.565  14.600   6.578
 6050SOL     OW20046   2.833   6.627   9.529
 6050SOL    HW120047   2.879   6.547   9.505
 6050SOL    HW220048   2.819   6.673   9.446
 6051SOL     OW20049   0.749   0.430  10.241
 6051SOL    HW120050   0.785   0.355  10.194
 6051SOL    HW220051   0.692   0.473  10.177
 6052SOL     OW20052  13.926   4.642   0.450
 6052SOL    HW120053  13.907   4.594   0.369
 6052SOL    HW220054  13.991   4.708   0.424
 6053SOL     OW20055   0.296  13.618  10.173
 6053SOL    HW120056   0.269  13.680  10.241
 6053SOL    HW220057   0.391  13.622  10.173
 6054SOL     OW20058   0.422   4.186   6.351
 6054SOL    HW120059   0.377   4.126   6.290
 6054SOL    HW220060   0.361   4.259   6.361
 6055SOL     OW20061   2.807  12.999   2.141
 6055SOL    HW120062   2.785  13.024   2.052
 6055SOL    HW220063   2.903  12.989   2.140
 6056SOL     OW20064  11.768  13.070   6.058
 6056SOL    HW120065  11.853  13.050   6.019
 6056SOL    HW220066  11.713  13.093   5.984
 6057SOL     OW20067   3.716   7.420  14.189
 6057SOL    HW120068   3.739   7.491  14.249
 6057SOL    HW220069   3.693   7.464  14.107
 6058SOL     OW20070  11.717  11.993   6.856
 6058SOL    HW120071  11.665  12.039   6.921
 6058SOL    HW220072  11.754  11.919   6.904
 6059SOL     OW20073  10.051   2.700   4.246
 6059SOL    HW120074  10.031   2.793   4.252
 6059SOL    HW220075   9.972   2.661   4.207
 6060SOL     OW20076  10.588   0.263   4.779
 6060SOL    HW120077  10.657   0.244   4.716
 6060SOL    HW220078  10.585   0.358   4.784
 6061SOL     OW20079   3.273  13.109  12.621
 6061SOL    HW120080   3.363  13.132  12.645
 6061SOL    HW220081   3.261  13.145  12.534
 6062SOL     OW20082  10.692   4.285  14.703
 6062SOL    HW120083  10.628   4.250  14.642
 6062SOL    HW220084  10.739   4.208  14.736
 6063SOL     OW20085   1.414  11.501  11.051
 6063SOL    HW120086   1.342  11.546  11.006
 6063SOL    HW220087   1.465  11.462  10.980
 6064SOL     OW20088   2.917   0.991   1.900
 6064SOL    HW120089   2.971   1.070   1.897
 6064SOL    HW220090   2.975   0.921   1.869
 6065SOL     OW20091   7.676  14.269  10.022
 6065SOL    HW120092   7.619  14.197   9.995
 6065SOL    HW220093   7.720  14.236  10.100
 6066SOL     OW20094  10.539   6.796   8.695
 6066SOL    HW120095  10.576   6.841   8.771
 6066SOL    HW220096  10.515   6.867   8.635
 6067SOL     OW20097  14.571  14.687   7.507
 6067SOL    HW120098  14.624  14.655   7.580
 6067SOL    HW220099  14.521  14.759   7.543
 6068SOL     OW20100   3.053   9.725  12.325
 6068SOL    HW120101   3.073   9.761  12.411
 6068SOL    HW220102   3.115   9.767  12.266
 6069SOL     OW20103  11.074   4.796   6.902
 6069SOL    HW120104  10.986   4.769   6.875
 6069SOL    HW220105  11.061   4.833   6.990
 6070SOL     OW20106   3.006   4.362   9.117
 6070SOL    HW120107   3.012   4.448   9.076
 6070SOL    HW220108   2.966   4.306   9.051
 6071SOL     OW20109   0.386   9.202   8.934
 6071SOL    HW120110   0.296   9.175   8.918
 6071SOL    HW220111   0.379   9.277   8.993
 6072SOL     OW20112   5.476   3.340   2.783
 6072SOL    HW120113   5.440   3.292   2.709
 6072SOL    HW220114   5.569   3.320   2.782
 6073SOL     OW20115   7.679   8.752   8.971
 6073SOL    HW120116   7.653   8.812   8.901
 6073SOL    HW220117   7.737   8.689   8.928
 6074SOL     OW20118  14.192  14.811   6.898
 6074SOL    HW120119  14.245  14.743   6.856
 6074SOL    HW220120  14.255   0.009   6.927
 6075SOL     OW20121  12.254   6.069   6.961
 6075SOL    HW120122  12.216   6.046   6.876
 6075SOL    HW220123  12.179   6.089   7.016
 6076SOL     OW20124   4.312   5.451   6.643
 6076SOL    HW120125   4.253   5.526   6.630
 6076SOL    HW220126   4.378   5.483   6.704
 6077SOL     OW20127   5.073   6.162  11.705
 6077SOL    HW120128   5.160   6.123  11.701
 6077SOL    HW220129   5.013   6.087  11.697
 6078SOL     OW20130  11.194   3.569  13.853
 6078SOL    HW120131  11.261   3.638  13.847
 6078SOL    HW220132  11.114   3.610  13.821
 6079SOL     OW20133  12.179  10.440   8.693
 6079SOL    HW120134  12.182  10.361   8.747
 6079SOL    HW220135  12.184  10.512   8.755
 6080SOL     OW20136   0.163  13.829   0.997
 6080SOL    HW120137   0.135  13.780   1.074
 6080SOL    HW220138   0.198  13.911   1.032
 6081SOL     OW20139  13.416   8.220   7.230
 6081SOL    HW120140  13.496   8.193   7.274
 6081SOL    HW220141  13.369   8.138   7.213
 6082SOL     OW20142   5.999   9.573   6.438
 6082SOL    HW120143   6.026   9.578   6.346
 6082SOL    HW220144   6.004   9.480   6.459
 6083SOL     OW20145  11.721   9.209   8.746
 6083SOL    HW120146  11.784   9.272   8.711
 6083SOL    HW220147  11.673   9.178   8.670
 6084SOL     OW20148   1.836  12.363   2.581
 6084SOL    HW120149   1.755  12.340   2.537
 6084SOL    HW220150   1.821  12.340   2.673
 6085SOL     OW20151   3.460   6.621  13.417
 6085SOL    HW120152   3.539   6.601  13.466
 6085SOL    HW220153   3.491   6.645  13.330
 6086SOL     OW20154  13.090   9.345  13.717
 6086SOL    HW120155  13.106   9.296  13.637
 6086SOL    HW220156  13.178   9.369  13.748
 6087SOL     OW20157  14.152   1.377   1.026
 6087SOL    HW120158  14.243   1.401   1.040
 6087SOL    HW220159  14.122   1.435   0.956
 6088SOL     OW20160   3.135   2.700  13.461
 6088SOL    HW120161   3.090   2.766  13.407
 6088SOL    HW220162   3.222   2.692  13.422
 6089SOL     OW20163  13.917   3.856   6.408
 6089SOL    HW120164  13.988   3.916   6.383
 6089SOL    HW220165  13.917   3.789   6.339
 6090SOL     OW20166   1.429   4.660  13.172
 6090SOL    HW120167   1.508   4.670  13.225
 6090SOL    HW220168   1.460   4.668  13.081
 6091SOL     OW20169   9.223   1.499   9.646
 6091SOL    HW120170   9.312   1.510   9.680
 6091SOL    HW220171   9.212   1.572   9.585
 6092SOL     OW20172   0.246  11.730  14.117
 6092SOL    HW120173   0.253  11.823  14.140
 6092SOL    HW220174   0.164  11.723  14.069
 6093SOL     OW20175   4.361  11.486  13.051
 6093SOL    HW120176   4.302  11.533  13.110
 6093SOL    HW220177   4.341  11.521  12.964
 6094SOL     OW20178   4.279   7.259   5.688
 6094SOL    HW120179   4.333   7.332   5.658
 6094SOL    HW220180   4.337   7.206   5.742
 6095SOL     OW20181   3.702  13.979   2.603
 6095SOL    HW120182   3.665  13.910   2.548
 6095SOL    HW220183   3.783  14.005   2.559
 6096SOL     OW20184   2.634   8.947   9.091
 6096SOL    HW120185   2.577   8.995   9.031
 6096SOL    HW220186   2.681   8.885   9.034
 6097SOL     OW20187   3.050   1.338  12.387
 6097SOL    HW120188   3.068   1.277  12.459
 6097SOL    HW220189   2.972   1.385  12.416
 6098SOL     OW20190  11.360  10.221  10.088
 6098SOL    HW120191  11.398  10.146  10.133
 6098SOL    HW220192  11.283  10.186  10.044
 6099SOL     OW20193   5.532   2.575   8.282
 6099SOL    HW120194   5.544   2.652   8.226
 6099SOL    HW220195   5.520   2.611   8.370
 6100SOL     OW20196  10.218   6.368   8.380
 6100SOL    HW120197  10.212   6.302   8.310
 6100SOL    HW220198  10.300   6.414   8.363
 6101SOL     OW20199   4.589   5.856   3.408
 6101SOL    HW120200   4.530   5.792   3.449
 6101SOL    HW220201   4.645   5.886   3.479
 6102SOL     OW20202  14.848  12.297   3.172
 6102SOL    HW120203  14.757  12.324   3.158
 6102SOL    HW220204  14.844  12.203   3.187
 6103SOL     OW20205   6.462   1.248   0.177
 6103SOL    HW120206   6.367   1.262   0.173
 6103SOL    HW220207   6.480   1.225   0.268
 6104SOL     OW20208   3.577   0.856   4.753
 6104SOL    HW120209   3.658   0.811   4.777
 6104SOL    HW220210   3.586   0.943   4.793
 6105SOL     OW20211   0.105  13.512   2.450
 6105SOL    HW120212   0.096  13.596   2.495
 6105SOL    HW220213   0.083  13.532   2.359
 6106SOL     OW20214   4.758  12.873   8.811
 6106SOL    HW120215   4.711  12.921   8.743
 6106SOL    HW220216   4.851  12.890   8.793
 6107SOL     OW20217   7.482  12.910  10.141
 6107SOL    HW120218   7.558  12.964  10.162
 6107SOL    HW220219   7.518  12.822  10.131
 6108SOL     OW20220   2.770  10.238  11.268
 6108SOL    HW120221   2.700  10.301  11.254
 6108SOL    HW220222   2.839  10.288  11.311
 6109SOL     OW20223   1.313   0.168  14.326
 6109SOL    HW120224   1.309   0.228  14.400
 6109SOL    HW220225   1.343   0.222  14.253
 6110SOL     OW20226  12.574  10.376   4.868
 6110SOL    HW120227  12.537  10.427   4.940
 6110SOL    HW220228  12.669  10.387   4.875
 6111SOL     OW20229   8.414   6.179   2.215
 6111SOL    HW120230   8.355   6.252   2.196
 6111SOL    HW220231   8.370   6.130   2.283
 6112SOL     OW20232   9.324   7.398   2.759
 6112SOL    HW120233   9.403   7.450   2.747
 6112SOL    HW220234   9.252   7.454   2.731
 6113SOL     OW20235   0.045  11.381   9.280
 6113SOL    HW120236  14.837  11.393   9.337
 6113SOL    HW220237   0.053  11.464   9.233
 6114SOL     OW20238   8.490   9.107   5.737
 6114SOL    HW120239   8.580   9.131   5.758
 6114SOL    HW220240   8.450   9.190   5.708
 6115SOL     OW20241  10.037   0.633  12.279
 6115SOL    HW120242  10.129   0.608  12.271
 6115SOL    HW220243  10.010   0.599  12.364
 6116SOL     OW20244  14.560  14.530   0.967
 6116SOL    HW120245  14.505  14.458   0.999
 6116SOL    HW220246  14.640  14.487   0.937
 6117SOL     OW20247  13.665  13.464   2.470
 6117SOL    HW120248  13.637  13.373   2.483
 6117SOL    HW220249  13.673  13.473   2.375
 6118SOL     OW20250   9.044   1.540   3.487
 6118SOL    HW120251   9.031   1.629   3.456
 6118SOL    HW220252   8.990   1.486   3.429
 6119SOL     OW20253   7.904   1.731   2.092
 6119SOL    HW120254   7.912   1.813   2.044
 6119SOL    HW220255   7.863   1.754   2.175
 6120SOL     OW20256   3.605   2.310   1.459
 6120SOL    HW120257   3.591   2.358   1.541
 6120SOL    HW220258   3.682   2.352   1.420
 6121SOL     OW20259   6.051  11.694  11.038
 6121SOL    HW120260   6.083  11.618  11.087
 6121SOL    HW220261   6.008  11.747  11.104
 6122SOL     OW20262   7.141   6.142   9.350
 6122SOL    HW120263   7.184   6.189   9.422
 6122SOL    HW220264   7.133   6.207   9.281
 6123SOL     OW20265   7.043   0.460   9.525
 6123SOL    HW120266   6.968   0.519   9.535
 6123SOL    HW220267   7.080   0.454   9.613
 6124SOL     OW20268   4.031   2.007   1.610
 6124SOL    HW120269   4.043   2.061   1.688
 6124SOL    HW220270   3.939   2.018   1.586
 6125SOL     OW20271   3.792  14.147  11.576
 6125SOL    HW120272   3.885  14.137  11.557
 6125SOL    HW220273   3.769  14.069  11.627
 6126SOL     OW20274  11.179  11.402   7.924
 6126SOL    HW120275  11.183  11.454   8.004
 6126SOL    HW220276  11.103  11.345   7.937
 6127SOL     OW20277   8.212   4.532   4.263
 6127SOL    HW120278   8.270   4.558   4.191
 6127SOL    HW220279   8.234   4.591   4.334
 6128SOL     OW20280   4.291   7.812  12.674
 6128SOL    HW120281   4.372   7.830  12.723
 6128SOL    HW220282   4.239   7.758  12.733
 6129SOL     OW20283   5.841  11.098  10.813
 6129SOL    HW120284   5.843  11.144  10.729
 6129SOL    HW220285   5.900  11.024  10.801
 6130SOL     OW20286   1.481   1.314   8.501
 6130SOL    HW120287   1.506   1.399   8.539
 6130SOL    HW220288   1.561   1.261   8.507
 6131SOL     OW20289  13.562   7.598   2.962
 6131SOL    HW120290  13.607   7.619   2.880
 6131SOL    HW220291  13.598   7.660   3.026
 6132SOL     OW20292   8.251   2.057   0.670
 6132SOL    HW120293   8.241   2.119   0.598
 6132SOL    HW220294   8.302   1.985   0.633
 6133SOL     OW20295  11.520  10.691   1.448
 6133SOL    HW120296  11.499  10.772   1.493
 6133SOL    HW220297  11.445  10.674   1.391
 6134SOL     OW20298   1.467  10.715  13.763
 6134SOL    HW120299   1.431  10.789  13.811
 6134SOL    HW220300   1.462  10.641  13.825
 6135SOL     OW20301   5.299   4.743   9.366
 6135SOL    HW120302   5.283   4.698   9.283
 6135SOL    HW220303   5.284   4.836   9.347
 6136SOL     OW20304  12.894   1.857   3.717
 6136SOL    HW120305  12.926   1.822   3.633
 6136SOL    HW220306  12.908   1.786   3.780
 6137SOL     OW20307  13.441  13.966  13.996
 6137SOL    HW120308  13.528  13.940  13.966
 6137SOL    HW220309  13.400  13.884  14.025
 6138SOL     OW20310   2.970   8.982   8.919
 6138SOL    HW120311   2.999   9.012   9.005
 6138SOL    HW220312   2.970   8.887   8.925
 6139SOL     OW20313   1.197   7.711   2.460
 6139SOL    HW120314   1.240   7.788   2.496
 6139SOL    HW220315   1.135   7.684   2.528
 6140SOL     OW20316  12.973  13.102   5.343
 6140SOL    HW120317  13.051  13.066   5.384
 6140SOL    HW220318  12.967  13.058   5.258
 6141SOL     OW20319   6.755  10.153   2.354
 6141SOL    HW120320   6.843  10.129   2.325
 6141SOL    HW220321   6.731  10.227   2.298
 6142SOL     OW20322   8.580  13.146  13.670
 6142SOL    HW120323   8.493  13.107  13.678
 6142SOL    HW220324   8.621  13.131  13.755
 6143SOL     OW20325  14.837  10.165   1.577
 6143SOL    HW120326  14.802  10.120   1.653
 6143SOL    HW220327   0.001  10.095   1.520
 6144SOL     OW20328  13.089  12.704  10.937
 6144SOL    HW120329  13.002  12.672  10.958
 6144SOL    HW220330  13.114  12.758  11.013
 6145SOL     OW20331   4.309   9.295   1.446
 6145SOL    HW120332   4.251   9.241   1.393
 6145SOL    HW220333   4.251   9.340   1.508
 6146SOL     OW20334  11.607   8.827   1.347
 6146SOL    HW120335  11.570   8.739   1.346
 6146SOL    HW220336  11.658   8.832   1.266
 6147SOL     OW20337   3.659   5.098   7.378
 6147SOL    HW120338   3.637   5.005   7.382
 6147SOL    HW220339   3.629   5.127   7.292
 6148SOL     OW20340   9.607  13.363   5.922
 6148SOL    HW120341   9.550  13.295   5.887
 6148SOL    HW220342   9.578  13.443   5.879
 6149SOL     OW20343   2.064   7.187   9.743
 6149SOL    HW120344   2.059   7.153   9.832
 6149SOL    HW220345   2.023   7.119   9.689
 6150SOL     OW20346   3.641   3.704   5.470
 6150SOL    HW120347   3.734   3.704   5.491
 6150SOL    HW220348   3.637   3.660   5.385
 6151SOL     OW20349  13.376   7.811   4.362
 6151SOL    HW120350  13.471   7.826   4.361
 6151SOL    HW220351  13.362   7.746   4.293
 6152SOL     OW20352   0.683   7.018   7.379
 6152SOL    HW120353   0.721   6.930   7.375
 6152SOL    HW220354   0.639   7.022   7.464
 6153SOL     OW20355   3.349   9.157  10.868
 6153SOL    HW120356   3.300   9.152  10.950
 6153SOL    HW220357   3.389   9.071  10.858
 6154SOL     OW20358   3.885   3.109   3.772
 6154SOL    HW120359   3.946   3.093   3.700
 6154SOL    HW220360   3.859   3.022   3.801
 6155SOL     OW20361   3.281   6.967   7.736
 6155SOL    HW120362   3.300   7.061   7.737
 6155SOL    HW220363   3.210   6.958   7.672
 6156SOL     OW20364  10.304   7.432   3.010
 6156SOL    HW120365  10.318   7.345   3.048
 6156SOL    HW220366  10.233   7.470   3.062
 6157SOL     OW20367   3.926   4.757   7.504
 6157SOL    HW120368   4.019   4.735   7.510
 6157SOL    HW220369   3.925   4.850   7.480
 6158SOL     OW20370   4.471   8.310   4.890
 6158SOL    HW120371   4.392   8.256   4.881
 6158SOL    HW220372   4.518   8.298   4.808
 6159SOL     OW20373   8.513   4.161   9.642
 6159SOL    HW120374   8.518   4.236   9.702
 6159SOL    HW220375   8.573   4.184   9.571
 6160SOL     OW20376  12.007   9.263  13.616
 6160SOL    HW120377  12.100   9.247  13.635
 6160SOL    HW220378  11.960   9.217  13.685
 6161SOL     OW20379  10.018  10.082   9.406
 6161SOL    HW120380   9.954  10.036   9.352
 6161SOL    HW220381   9.981  10.171   9.415
 6162SOL     OW20382  13.977   0.483   0.351
 6162SOL    HW120383  13.924   0.544   0.301
 6162SOL    HW220384  13.991   0.526   0.436
 6163SOL     OW20385   3.766  11.447   1.973
 6163SOL    HW120386   3.846  11.445   1.920
 6163SOL    HW220387   3.768  11.364   2.021
 6164SOL     OW20388   1.888   4.518   2.777
 6164SOL    HW120389   1.937   4.493   2.699
 6164SOL    HW220390   1.943   4.488   2.850
 6165SOL     OW20391   4.693   2.648  11.161
 6165SOL    HW120392   4.684   2.563  11.205
 6165SOL    HW220393   4.611   2.657  11.112
 6166SOL     OW20394   1.147  12.771   0.954
 6166SOL    HW120395   1.203  12.698   0.928
 6166SOL    HW220396   1.206  12.847   0.955
 6167SOL     OW20397   5.534   0.465  13.537
 6167SOL    HW120398   5.526   0.385  13.485
 6167SOL    HW220399   5.621   0.499  13.514
 6168SOL     OW20400   1.364  10.356   1.572
 6168SOL    HW120401   1.458  10.342   1.559
 6168SOL    HW220402   1.349  10.444   1.538
 6169SOL     OW20403  14.243   9.938   5.653
 6169SOL    HW120404  14.327   9.972   5.686
 6169SOL    HW220405  14.246   9.954   5.559
 6170SOL     OW20406   0.059   9.024   4.043
 6170SOL    HW120407   0.026   9.042   3.955
 6170SOL    HW220408  14.848   9.013   4.096
 6171SOL     OW20409  10.960   0.220   5.150
 6171SOL    HW120410  10.973   0.314   5.157
 6171SOL    HW220411  11.010   0.182   5.223
 6172SOL     OW20412  10.805   4.479   0.823
 6172SOL    HW120413  10.812   4.562   0.774
 6172SOL    HW220414  10.886   4.433   0.804
 6173SOL     OW20415  12.567   9.228  11.982
 6173SOL    HW120416  12.506   9.294  11.951
 6173SOL    HW220417  12.571   9.163  11.912
 6174SOL     OW20418  10.262  11.471   0.362
 6174SOL    HW120419  10.315  11.542   0.327
 6174SOL    HW220420  10.195  11.514   0.415
 6175SOL     OW20421  14.571   7.293   1.074
 6175SOL    HW120422  14.624   7.324   1.001
 6175SOL    HW220423  14.634   7.269   1.141
 6176SOL     OW20424   3.446  13.465   3.088
 6176SOL    HW120425   3.524  13.497   3.043
 6176SOL    HW220426   3.469  13.376   3.116
 6177SOL     OW20427  10.906   9.304   2.717
 6177SOL    HW120428  10.850   9.227   2.728
 6177SOL    HW220429  10.979   9.289   2.777
 6178SOL     OW20430   0.644  10.943  13.891
 6178SOL    HW120431   0.601  10.881  13.950
 6178SOL    HW220432   0.608  10.923  13.804
 6179SOL     OW20433   1.177   6.728   1.757
 6179SOL    HW120434   1.132   6.756   1.837
 6179SOL    HW220435   1.132   6.775   1.687
 6180SOL     OW20436   1.475   4.352   8.754
 6180SOL    HW120437   1.466   4.440   8.717
 6180SOL    HW220438   1.390   4.333   8.792
 6181SOL     OW20439   7.367  11.960   3.376
 6181SOL    HW120440   7.295  12.023   3.365
 6181SOL    HW220441   7.346  11.889   3.315
 6182SOL     OW20442   2.481   3.732   2.697
 6182SOL    HW120443   2.509   3.788   2.770
 6182SOL    HW220444   2.560   3.687   2.670
 6183SOL     OW20445   4.371   0.755   0.248
 6183SOL    HW120446   4.443   0.757   0.185
 6183SOL    HW220447   4.395   0.687   0.311
 6184SOL     OW20448   3.511   0.296   3.745
 6184SOL    HW120449   3.561   0.215   3.755
 6184SOL    HW220450   3.574   0.358   3.708
 6185SOL     OW20451   0.663   2.182   8.873
 6185SOL    HW120452   0.693   2.207   8.961
 6185SOL    HW220453   0.666   2.087   8.873
 6186SOL     OW20454   2.361   2.794  11.738
 6186SOL    HW120455   2.452   2.770  11.756
 6186SOL    HW220456   2.366   2.872  11.684
 6187SOL     OW20457  13.760   7.319   2.346
 6187SOL    HW120458  13.741   7.260   2.274
 6187SOL    HW220459  13.716   7.281   2.422
 6188SOL     OW20460   0.672  13.190  13.955
 6188SOL    HW120461   0.744  13.140  13.993
 6188SOL    HW220462   0.714  13.250  13.893
 6189SOL     OW20463  10.191   1.382   6.290
 6189SOL    HW120464  10.179   1.474   6.270
 6189SOL    HW220465  10.106   1.352   6.323
 6190SOL     OW20466  10.672  12.644   8.139
 6190SOL    HW120467  10.710  12.710   8.082
 6190SOL    HW220468  10.636  12.578   8.080
 6191SOL     OW20469   7.632   8.359   1.718
 6191SOL    HW120470   7.550   8.350   1.669
 6191SOL    HW220471   7.611   8.327   1.806
 6192SOL     OW20472   3.405   8.182   5.469
 6192SOL    HW120473   3.403   8.132   5.551
 6192SOL    HW220474   3.358   8.126   5.406
 6193SOL     OW20475   3.978  13.640  13.911
 6193SOL    HW120476   4.065  13.607  13.929
 6193SOL    HW220477   3.926  13.563  13.889
 6194SOL     OW20478   4.593  10.040   0.007
 6194SOL    HW120479   4.553  10.113   0.053
 6194SOL    HW220480   4.520   9.985  14.848
 6195SOL     OW20481   2.943   0.401   5.348
 6195SOL    HW120482   2.922   0.343   5.276
 6195SOL    HW220483   2.990   0.347   5.411
 6196SOL     OW20484   2.840   6.576  12.132
 6196SOL    HW120485   2.852   6.645  12.198
 6196SOL    HW220486   2.917   6.519  12.142
 6197SOL     OW20487   5.791   2.476   0.189
 6197SOL    HW120488   5.716   2.497   0.133
 6197SOL    HW220489   5.868   2.495   0.135
 6198SOL     OW20490  12.261  12.977   5.666
 6198SOL    HW120491  12.314  12.922   5.723
 6198SOL    HW220492  12.317  13.050   5.643
 6199SOL     OW20493   5.536   9.931   8.955
 6199SOL    HW120494   5.590   9.916   9.032
 6199SOL    HW220495   5.466   9.989   8.986
 6200SOL     OW20496   1.916   2.013   7.962
 6200SOL    HW120497   1.948   2.094   8.002
 6200SOL    HW220498   1.823   2.010   7.985
 6201SOL     OW20499   4.787  14.158   1.499
 6201SOL    HW120500   4.745  14.222   1.557
 6201SOL    HW220501   4.805  14.083   1.556
 6202SOL     OW20502  12.805   8.024   5.512
 6202SOL    HW120503  12.796   8.088   5.441
 6202SOL    HW220504  12.729   7.967   5.503
 6203SOL     OW20505   5.188   0.421   1.302
 6203SOL    HW120506   5.095   0.409   1.320
 6203SOL    HW220507   5.206   0.512   1.326
 6204SOL     OW20508   5.953  13.122  12.969
 6204SOL    HW120509   5.956  13.072  13.050
 6204SOL    HW220510   6.027  13.090  12.918
 6205SOL     OW20511   0.845   7.770   7.695
 6205SOL    HW120512   0.837   7.862   7.669
 6205SOL    HW220513   0.805   7.766   7.782
 6206SOL     OW20514   3.096   3.154   1.039
 6206SOL    HW120515   3.161   3.147   1.109
 6206SOL    HW220516   3.013   3.133   1.081
 6207SOL     OW20517   7.024  12.592  11.607
 6207SOL    HW120518   7.066  12.668  11.568
 6207SOL    HW220519   6.936  12.622  11.629
 6208SOL     OW20520   4.444  14.816  12.151
 6208SOL    HW120521   4.450  14.768  12.233
 6208SOL    HW220522   4.440   0.040  12.176
 6209SOL     OW20523   8.006  10.023  12.076
 6209SOL    HW120524   7.974   9.937  12.048
 6209SOL    HW220525   8.088  10.034  12.028
 6210SOL     OW20526  13.341   0.270   4.024
 6210SOL    HW120527  13.331   0.178   4.000
 6210SOL    HW220528  13.433   0.289   4.006
 6211SOL     OW20529   7.168   1.611   7.538
 6211SOL    HW120530   7.227   1.686   7.531
 6211SOL    HW220531   7.221   1.543   7.581
 6212SOL     OW20532   5.467   8.190   2.432
 6212SOL    HW120533   5.559   8.164   2.425
 6212SOL    HW220534   5.425   8.152   2.354
 6213SOL     OW20535  13.568   4.655  14.780
 6213SOL    HW120536  13.494   4.631  14.836
 6213SOL    HW220537  13.623   4.709  14.837
 6214SOL     OW20538   9.728   5.581   0.197
 6214SOL    HW120539   9.648   5.546   0.157
 6214SOL    HW220540   9.731   5.541   0.284
 6215SOL     OW20541   1.352  10.730   4.148
 6215SOL    HW120542   1.378  10.674   4.074
 6215SOL    HW220543   1.270  10.691   4.179
 6216SOL     OW20544  13.975  10.968  13.218
 6216SOL    HW120545  13.967  10.887  13.167
 6216SOL    HW220546  14.067  10.994  13.206
 6217SOL     OW20547  11.295   0.366  10.415
 6217SOL    HW120548  11.381   0.391  10.449
 6217SOL    HW220549  11.232   0.403  10.477
 6218SOL     OW20550  12.445   9.051   0.175
 6218SOL    HW120551  12.475   8.971   0.218
 6218SOL    HW220552  12.369   9.079   0.226
 6219SOL     OW20553  13.146   8.146  12.877
 6219SOL    HW120554  13.147   8.216  12.942
 6219SOL    HW220555  13.195   8.075  12.918
 6220SOL     OW20556   1.717  11.644   4.770
 6220SOL    HW120557   1.803  11.601   4.770
 6220SOL    HW220558   1.693  11.650   4.862
 6221SOL     OW20559   7.716   7.089   3.078
 6221SOL    HW120560   7.689   7.163   3.023
 6221SOL    HW220561   7.748   7.130   3.158
 6222SOL     OW20562   6.568   7.414   3.888
 6222SOL    HW120563   6.632   7.475   3.853
 6222SOL    HW220564   6.540   7.363   3.812
 6223SOL     OW20565   7.584   2.345   3.278
 6223SOL    HW120566   7.543   2.272   3.231
 6223SOL    HW220567   7.662   2.307   3.318
 6224SOL     OW20568   3.715  11.290  12.499
 6224SOL    HW120569   3.799  11.243  12.499
 6224SOL    HW220570   3.674  11.265  12.582
 6225SOL     OW20571   3.583   3.527  13.010
 6225SOL    HW120572   3.597   3.436  13.038
 6225SOL    HW220573   3.514   3.559  13.068
 6226SOL     OW20574   7.957   9.818  12.902
 6226SOL    HW120575   7.973   9.740  12.848
 6226SOL    HW220576   8.028   9.817  12.967
 6227SOL     OW20577   8.734  10.533   2.786
 6227SOL    HW120578   8.783  10.603   2.744
 6227SOL    HW220579   8.663  10.512   2.725
 6228SOL     OW20580  10.174   4.698   9.031
 6228SOL    HW120581  10.193   4.609   9.002
 6228SOL    HW220582  10.223   4.754   8.972
 6229SOL     OW20583   1.869   8.359   5.890
 6229SOL    HW120584   1.930   8.409   5.945
 6229SOL    HW220585   1.785   8.367   5.934
 6230SOL     OW20586   1.200   5.242   9.031
 6230SOL    HW120587   1.127   5.181   9.035
 6230SOL    HW220588   1.173   5.307   8.965
 6231SOL     OW20589   1.339   1.285   8.234
 6231SOL    HW120590   1.382   1.246   8.310
 6231SOL    HW220591   1.411   1.316   8.179
 6232SOL     OW20592  14.853   8.243   2.897
 6232SOL    HW120593  14.777   8.212   2.947
 6232SOL    HW220594   0.055   8.251   2.963
 6233SOL     OW20595   1.917   2.844  14.562
 6233SOL    HW120596   1.832   2.813  14.593
 6233SOL    HW220597   1.976   2.769  14.575
 6234SOL     OW20598   8.786   9.484   1.063
 6234SOL    HW120599   8.828   9.550   1.008
 6234SOL    HW220600   8.855   9.452   1.121
 6235SOL     OW20601   0.295   6.999  14.168
 6235SOL    HW120602   0.284   7.073  14.108
 6235SOL    HW220603   0.217   6.946  14.155
 6236SOL     OW20604   6.495  14.240   9.964
 6236SOL    HW120605   6.427  14.260  10.028
 6236SOL    HW220606   6.528  14.325   9.936
 6237SOL     OW20607   9.359  12.123   4.779
 6237SOL    HW120608   9.416  12.140   4.853
 6237SOL    HW220609   9.407  12.060   4.725
 6238SOL     OW20610   7.514  14.209   4.420
 6238SOL    HW120611   7.516  14.182   4.511
 6238SOL    HW220612   7.499  14.303   4.423
 6239SOL     OW20613   7.054   1.122   3.236
 6239SOL    HW120614   7.052   1.197   3.296
 6239SOL    HW220615   7.071   1.161   3.150
 6240SOL     OW20616  10.273  14.323   1.921
 6240SOL    HW120617  10.248  14.400   1.871
 6240SOL    HW220618  10.252  14.249   1.863
 6241SOL     OW20619   6.263  11.954  14.218
 6241SOL    HW120620   6.262  11.994  14.131
 6241SOL    HW220621   6.338  11.895  14.217
 6242SOL     OW20622  10.956   7.013  11.249
 6242SOL    HW120623  10.900   6.976  11.181
 6242SOL    HW220624  10.933   7.105  11.252
 6243SOL     OW20625   6.408   0.492   2.902
 6243SOL    HW120626   6.471   0.561   2.884
 6243SOL    HW220627   6.461   0.414   2.920
 6244SOL     OW20628   9.562   1.854   6.725
 6244SOL    HW120629   9.615   1.779   6.751
 6244SOL    HW220630   9.505   1.871   6.801
 6245SOL     OW20631   7.671   4.969   0.204
 6245SOL    HW120632   7.765   4.986   0.199
 6245SOL    HW220633   7.631   5.049   0.171
 6246SOL     OW20634  11.165  11.741  13.721
 6246SOL    HW120635  11.163  11.783  13.807
 6246SOL    HW220636  11.246  11.689  13.722
 6247SOL     OW20637  12.192   6.860   5.094
 6247SOL    HW120638  12.173   6.914   5.170
 6247SOL    HW220639  12.275   6.894   5.060
 6248SOL     OW20640  11.495   9.580   7.884
 6248SOL    HW120641  11.533   9.524   7.951
 6248SOL    HW220642  11.481   9.523   7.809
 6249SOL     OW20643  10.986   5.415  14.256
 6249SOL    HW120644  11.002   5.453  14.343
 6249SOL    HW220645  11.052   5.456  14.200
 6250SOL     OW20646   0.428   2.824   6.506
 6250SOL    HW120647   0.465   2.901   6.463
 6250SOL    HW220648   0.431   2.844   6.599
 6251SOL     OW20649   2.985   7.559   9.524
 6251SOL    HW120650   2.913   7.618   9.545
 6251SOL    HW220651   3.060   7.616   9.509
 6252SOL     OW20652  11.283   4.372   5.814
 6252SOL    HW120653  11.213   4.348   5.874
 6252SOL    HW220654  11.306   4.291   5.769
 6253SOL     OW20655  13.313   3.763   9.863
 6253SOL    HW120656  13.360   3.773   9.780
 6253SOL    HW220657  13.379   3.733   9.925
 6254SOL     OW20658   0.276   3.770   0.064
 6254SOL    HW120659   0.302   3.791  14.842
 6254SOL    HW220660   0.184   3.742   0.056
 6255SOL     OW20661  12.924   3.867   4.487
 6255SOL    HW120662  12.863   3.835   4.421
 6255SOL    HW220663  12.918   3.803   4.558
 6256SOL     OW20664  12.536  14.417  14.459
 6256SOL    HW120665  12.445  14.388  14.448
 6256SOL    HW220666  12.587  14.362  14.400
 6257SOL     OW20667   0.952   7.990   1.776
 6257SOL    HW120668   1.040   8.026   1.770
 6257SOL    HW220669   0.964   7.902   1.810
 6258SOL     OW20670  11.007  12.766  10.262
 6258SOL    HW120671  10.941  12.806  10.206
 6258SOL    HW220672  10.964  12.687  10.297
 6259SOL     OW20673  10.003   8.783   0.104
 6259SOL    HW120674  10.054   8.790   0.185
 6259SOL    HW220675   9.932   8.723   0.126
 6260SOL     OW20676   8.785  12.728   7.403
 6260SOL    HW120677   8.739  12.764   7.478
 6260SOL    HW220678   8.744  12.643   7.388
 6261SOL     OW20679  12.946   5.171   1.678
 6261SOL    HW120680  12.931   5.076   1.682
 6261SOL    HW220681  12.930   5.202   1.767
 6262SOL     OW20682  13.411   5.015   8.565
 6262SOL    HW120683  13.419   4.935   8.617
 6262SOL    HW220684  13.498   5.030   8.530
 6263SOL     OW20685  14.238   3.994  10.739
 6263SOL    HW120686  14.161   3.947  10.769
 6263SOL    HW220687  14.308   3.929  10.741
 6264SOL     OW20688   7.807  11.508   5.358
 6264SOL    HW120689   7.800  11.593   5.315
 6264SOL    HW220690   7.726  11.463   5.336
 6265SOL     OW20691   6.805   2.337  11.858
 6265SOL    HW120692   6.795   2.431  11.872
 6265SOL    HW220693   6.793   2.298  11.944
 6266SOL     OW20694   1.820   0.093   0.019
 6266SOL    HW120695   1.795   0.020  14.830
 6266SOL    HW220696   1.915   0.082   0.031
 6267SOL     OW20697   3.480   5.685   9.932
 6267SOL    HW120698   3.489   5.744  10.007
 6267SOL    HW220699   3.387   5.664   9.929
 6268SOL     OW20700   9.991   9.749   2.115
 6268SOL    HW120701   9.912   9.718   2.159
 6268SOL    HW220702   9.990   9.707   2.029
 6269SOL     OW20703   6.386   2.003   4.049
 6269SOL    HW120704   6.423   2.073   3.995
 6269SOL    HW220705   6.295   2.030   4.062
 6270SOL     OW20706  10.422   6.205  12.649
 6270SOL    HW120707  10.469   6.244  12.576
 6270SOL    HW220708  10.380   6.127  12.612
 6271SOL     OW20709   6.361   3.355   0.882
 6271SOL    HW120710   6.337   3.298   0.955
 6271SOL    HW220711   6.457   3.355   0.882
 6272SOL     OW20712   0.499   3.399   5.974
 6272SOL    HW120713   0.500   3.457   6.050
 6272SOL    HW220714   0.412   3.411   5.936
 6273SOL     OW20715   4.890  10.169   3.265
 6273SOL    HW120716   4.837  10.103   3.310
 6273SOL    HW220717   4.932  10.121   3.194
 6274SOL     OW20718   1.101   3.664  12.557
 6274SOL    HW120719   1.185   3.709  12.560
 6274SOL    HW220720   1.038   3.732  12.533
 6275SOL     OW20721   7.974   2.623   1.664
 6275SOL    HW120722   8.028   2.555   1.625
 6275SOL    HW220723   7.908   2.643   1.597
 6276SOL     OW20724   9.720  14.035   1.649
 6276SOL    HW120725   9.723  13.942   1.668
 6276SOL    HW220726   9.659  14.042   1.576
 6277SOL     OW20727   1.110  10.827   8.649
 6277SOL    HW120728   1.061  10.847   8.569
 6277SOL    HW220729   1.055  10.862   8.719
 6278SOL     OW20730   5.326   2.341   0.312
 6278SOL    HW120731   5.258   2.312   0.373
 6278SOL    HW220732   5.400   2.364   0.367
 6279SOL     OW20733  13.001  11.131  14.865
 6279SOL    HW120734  12.949  11.054  14.841
 6279SOL    HW220735  13.089  11.096   0.013
 6280SOL     OW20736  11.196   0.929   4.063
 6280SOL    HW120737  11.290   0.919   4.073
 6280SOL    HW220738  11.158   0.856   4.113
 6281SOL     OW20739   5.454   1.895   7.550
 6281SOL    HW120740   5.522   1.876   7.614
 6281SOL    HW220741   5.483   1.977   7.509
 6282SOL     OW20742   0.201  13.040   6.912
 6282SOL    HW120743   0.176  12.965   6.859
 6282SOL    HW220744   0.261  13.090   6.855
 6283SOL     OW20745   4.699   8.404   6.716
 6283SOL    HW120746   4.781   8.372   6.678
 6283SOL    HW220747   4.661   8.328   6.758
 6284SOL     OW20748   7.257  10.872   6.340
 6284SOL    HW120749   7.202  10.796   6.319
 6284SOL    HW220750   7.292  10.900   6.256
 6285SOL     OW20751   3.774   0.376  11.152
 6285SOL    HW120752   3.832   0.306  11.182
 6285SOL    HW220753   3.817   0.411  11.074
 6286SOL     OW20754   6.313  11.178  11.400
 6286SOL    HW120755   6.219  11.188  11.382
 6286SOL    HW220756   6.320  11.186  11.495
 6287SOL     OW20757  12.746   6.078  10.987
 6287SOL    HW120758  12.654   6.078  11.011
 6287SOL    HW220759  12.763   6.166  10.954
 6288SOL     OW20760  14.708   8.832   8.005
 6288SOL    HW120761  14.781   8.893   8.014
 6288SOL    HW220762  14.668   8.855   7.922
 6289SOL     OW20763   7.833  10.236  13.847
 6289SOL    HW120764   7.872  10.159  13.889
 6289SOL    HW220765   7.786  10.201  13.771
 6290SOL     OW20766   9.550  12.023   2.560
 6290SOL    HW120767   9.589  11.937   2.544
 6290SOL    HW220768   9.550  12.066   2.475
 6291SOL     OW20769  14.430  12.739  10.270
 6291SOL    HW120770  14.373  12.815  10.285
 6291SOL    HW220771  14.369  12.666  10.255
 6292SOL     OW20772  14.020   0.093   7.522
 6292SOL    HW120773  14.069   0.028   7.572
 6292SOL    HW220774  14.073   0.173   7.528
 6293SOL     OW20775   4.549  12.198   3.798
 6293SOL    HW120776   4.537  12.274   3.740
 6293SOL    HW220777   4.467  12.149   3.789
 6294SOL     OW20778   0.126   4.169  13.456
 6294SOL    HW120779   0.199   4.138  13.402
 6294SOL    HW220780   0.106   4.095  13.514
 6295SOL     OW20781  12.698   0.904   7.695
 6295SOL    HW120782  12.651   0.857   7.626
 6295SOL    HW220783  12.656   0.989   7.700
 6296SOL     OW20784  11.811   6.869   7.662
 6296SOL    HW120785  11.736   6.814   7.640
 6296SOL    HW220786  11.773   6.955   7.680
 6297SOL     OW20787   7.333   7.591   6.137
 6297SOL    HW120788   7.260   7.543   6.177
 6297SOL    HW220789   7.411   7.557   6.181
 6298SOL     OW20790  12.848   0.178   3.968
 6298SOL    HW120791  12.838   0.084   3.978
 6298SOL    HW220792  12.935   0.190   3.929
 6299SOL     OW20793   4.014   2.889  11.872
 6299SOL    HW120794   3.958   2.921  11.802
 6299SOL    HW220795   3.970   2.810  11.904
 6300SOL     OW20796   8.849  10.084   4.582
 6300SOL    HW120797   8.770  10.138   4.591
 6300SOL    HW220798   8.860  10.045   4.669
 6301SOL     OW20799  12.750  12.915  12.238
 6301SOL    HW120800  12.752  12.823  12.263
 6301SOL    HW220801  12.822  12.925  12.175
 6302SOL     OW20802  10.819  10.578   1.234
 6302SOL    HW120803  10.774  10.527   1.301
 6302SOL    HW220804  10.901  10.606   1.276
 6303SOL     OW20805   5.396   3.584   6.363
 6303SOL    HW120806   5.336   3.620   6.428
 6303SOL    HW220807   5.377   3.632   6.283
 6304SOL     OW20808   2.703   2.753   2.297
 6304SOL    HW120809   2.737   2.841   2.308
 6304SOL    HW220810   2.773   2.705   2.253
 6305SOL     OW20811  12.827  10.214  10.020
 6305SOL    HW120812  12.850  10.171   9.938
 6305SOL    HW220813  12.902  10.270  10.040
 6306SOL     OW20814   6.350  11.118   0.609
 6306SOL    HW120815   6.268  11.129   0.657
 6306SOL    HW220816   6.370  11.024   0.618
 6307SOL     OW20817  13.715   7.523  10.627
 6307SOL    HW120818  13.696   7.467  10.551
 6307SOL    HW220819  13.629   7.551  10.657
 6308SOL     OW20820   0.070  11.930   3.751
 6308SOL    HW120821   0.072  11.834   3.747
 6308SOL    HW220822   0.158  11.955   3.778
 6309SOL     OW20823  12.440   4.738   2.843
 6309SOL    HW120824  12.506   4.677   2.808
 6309SOL    HW220825  12.478   4.824   2.829
 6310SOL     OW20826   7.819   5.329   7.809
 6310SOL    HW120827   7.887   5.362   7.750
 6310SOL    HW220828   7.858   5.252   7.850
 6311SOL     OW20829   2.624   5.492   6.583
 6311SOL    HW120830   2.708   5.538   6.589
 6311SOL    HW220831   2.558   5.561   6.581
 6312SOL     OW20832   8.427   6.883   0.053
 6312SOL    HW120833   8.519   6.905   0.071
 6312SOL    HW220834   8.414   6.908  14.829
 6313SOL     OW20835   8.217   3.170   0.026
 6313SOL    HW120836   8.291   3.193  14.838
 6313SOL    HW220837   8.227   3.076   0.041
 6314SOL     OW20838  10.965   7.930   6.794
 6314SOL    HW120839  10.963   7.848   6.743
 6314SOL    HW220840  10.882   7.973   6.774
 6315SOL     OW20841   8.487   4.559   3.220
 6315SOL    HW120842   8.527   4.494   3.277
 6315SOL    HW220843   8.510   4.643   3.259
 6316SOL     OW20844  11.916   0.965   3.083
 6316SOL    HW120845  11.970   1.029   3.036
 6316SOL    HW220846  11.868   1.016   3.148
 6317SOL     OW20847   5.712  13.584   6.253
 6317SOL    HW120848   5.773  13.618   6.319
 6317SOL    HW220849   5.700  13.656   6.191
 6318SOL     OW20850   0.008  11.592  11.374
 6318SOL    HW120851  14.830  11.510  11.390
 6318SOL    HW220852   0.100  11.572  11.391
 6319SOL     OW20853   7.179   1.543   5.127
 6319SOL    HW120854   7.151   1.609   5.062
 6319SOL    HW220855   7.106   1.481   5.130
 6320SOL     OW20856  13.336  14.685   7.233
 6320SOL    HW120857  13.353  14.594   7.254
 6320SOL    HW220858  13.241  14.689   7.219
 6321SOL     OW20859  10.836  10.984  13.968
 6321SOL    HW120860  10.827  10.981  13.872
 6321SOL    HW220861  10.842  10.892  13.994
 6322SOL     OW20862   5.670  12.889   5.567
 6322SOL    HW120863   5.678  12.974   5.524
 6322SOL    HW220864   5.578  12.866   5.558
 6323SOL     OW20865   3.236  10.118   3.791
 6323SOL    HW120866   3.157  10.155   3.831
 6323SOL    HW220867   3.204  10.042   3.742
 6324SOL     OW20868   2.982  11.876  13.946
 6324SOL    HW120869   3.055  11.858  13.886
 6324SOL    HW220870   2.954  11.965  13.924
 6325SOL     OW20871   3.829   4.215   8.020
 6325SOL    HW120872   3.920   4.211   8.049
 6325SOL    HW220873   3.784   4.266   8.088
 6326SOL     OW20874   5.507   5.470   5.141
 6326SOL    HW120875   5.520   5.560   5.113
 6326SOL    HW220876   5.571   5.420   5.090
 6327SOL     OW20877   3.930  10.022   9.283
 6327SOL    HW120878   3.839   9.999   9.298
 6327SOL    HW220879   3.927  10.099   9.226
 6328SOL     OW20880  12.013   8.994   1.238
 6328SOL    HW120881  11.935   9.044   1.213
 6328SOL    HW220882  12.015   8.920   1.178
 6329SOL     OW20883   1.691   9.367   7.436
 6329SOL    HW120884   1.682   9.297   7.501
 6329SOL    HW220885   1.614   9.356   7.379
 6330SOL     OW20886  13.718   7.243  13.567
 6330SOL    HW120887  13.753   7.238  13.656
 6330SOL    HW220888  13.672   7.160  13.555
 6331SOL     OW20889   9.094   6.803  10.814
 6331SOL    HW120890   9.088   6.874  10.750
 6331SOL    HW220891   9.146   6.736  10.770
 6332SOL     OW20892  11.679   0.712   8.005
 6332SOL    HW120893  11.629   0.668   8.074
 6332SOL    HW220894  11.631   0.696   7.925
 6333SOL     OW20895   7.757  13.029  12.038
 6333SOL    HW120896   7.719  13.026  11.950
 6333SOL    HW220897   7.833  12.972  12.034
 6334SOL     OW20898  10.554   9.601   0.071
 6334SOL    HW120899  10.528   9.557   0.152
 6334SOL    HW220900  10.473   9.637   0.036
 6335SOL     OW20901   0.882  13.238  12.608
 6335SOL    HW120902   0.854  13.281  12.527
 6335SOL    HW220903   0.883  13.145  12.586
 6336SOL     OW20904   1.940   6.700   7.540
 6336SOL    HW120905   1.979   6.663   7.619
 6336SOL    HW220906   1.889   6.628   7.502
 6337SOL     OW20907   7.064   6.775   9.976
 6337SOL    HW120908   7.123   6.734  10.040
 6337SOL    HW220909   7.049   6.707   9.911
 6338SOL     OW20910   4.264  14.441   4.601
 6338SOL    HW120911   4.192  14.392   4.562
 6338SOL    HW220912   4.262  14.417   4.694
 6339SOL     OW20913   8.402   7.345   6.798
 6339SOL    HW120914   8.484   7.297   6.805
 6339SOL    HW220915   8.344   7.303   6.861
 6340SOL     OW20916   6.504   4.418   4.755
 6340SOL    HW120917   6.490   4.473   4.833
 6340SOL    HW220918   6.550   4.341   4.788
 6341SOL     OW20919   3.333  10.589  13.878
 6341SOL    HW120920   3.428  10.590  13.875
 6341SOL    HW220921   3.307  10.527  13.811
 6342SOL     OW20922  14.219   9.388   3.712
 6342SOL    HW120923  14.215   9.482   3.730
 6342SOL    HW220924  14.227   9.347   3.799
 6343SOL     OW20925   9.122   4.738   6.126
 6343SOL    HW120926   9.177   4.662   6.106
 6343SOL    HW220927   9.071   4.711   6.202
 6344SOL     OW20928   2.390  11.092  14.797
 6344SOL    HW120929   2.388  10.999  14.821
 6344SOL    HW220930   2.463  11.129  14.846
 6345SOL     OW20931   4.184  12.794  10.305
 6345SOL    HW120932   4.139  12.710  10.296
 6345SOL    HW220933   4.253  12.792  10.239
 6346SOL     OW20934   4.397   0.029   7.043
 6346SOL    HW120935   4.404   0.115   7.083
 6346SOL    HW220936   4.352  14.844   7.109
 6347SOL     OW20937  11.841  11.843   9.043
 6347SOL    HW120938  11.924  11.829   8.998
 6347SOL    HW220939  11.859  11.910   9.109
 6348SOL     OW20940  14.030  12.335   7.896
 6348SOL    HW120941  14.084  12.294   7.964
 6348SOL    HW220942  14.089  12.397   7.853
 6349SOL     OW20943   5.935   1.914   2.684
 6349SOL    HW120944   5.982   1.911   2.601
 6349SOL    HW220945   5.902   2.004   2.690
 6350SOL     OW20946   1.059   0.487  14.188
 6350SOL    HW120947   1.029   0.434  14.114
 6350SOL    HW220948   1.152   0.467  14.195
 6351SOL     OW20949   0.743  13.730   0.105
 6351SOL    HW120950   0.797  13.786   0.161
 6351SOL    HW220951   0.739  13.647   0.152
 6352SOL     OW20952   1.268   0.616   9.615
 6352SOL    HW120953   1.195   0.595   9.673
 6352SOL    HW220954   1.342   0.568   9.651
 6353SOL     OW20955   5.897   6.093   3.048
 6353SOL    HW120956   5.971   6.058   2.998
 6353SOL    HW220957   5.844   6.016   3.070
 6354SOL     OW20958  11.480   2.462   2.447
 6354SOL    HW120959  11.504   2.492   2.360
 6354SOL    HW220960  11.476   2.366   2.439
 6355SOL     OW20961  10.386  10.656  12.186
 6355SOL    HW120962  10.423  10.605  12.115
 6355SOL    HW220963  10.291  10.652  12.172
 6356SOL     OW20964  12.240  11.816   7.500
 6356SOL    HW120965  12.276  11.892   7.546
 6356SOL    HW220966  12.238  11.842   7.408
 6357SOL     OW20967   2.577   1.729  10.372
 6357SOL    HW120968   2.660   1.684  10.391
 6357SOL    HW220969   2.589   1.765  10.284
 6358SOL     OW20970  12.639   2.398  14.787
 6358SOL    HW120971  12.709   2.437  14.840
 6358SOL    HW220972  12.614   2.468  14.726
 6359SOL     OW20973   8.753  11.749  11.417
 6359SOL    HW120974   8.844  11.757  11.448
 6359SOL    HW220975   8.713  11.833  11.440
 6360SOL     OW20976   7.885   7.332   1.807
 6360SOL    HW120977   7.946   7.358   1.737
 6360SOL    HW220978   7.815   7.285   1.762
 6361SOL     OW20979   6.546   4.077   2.521
 6361SOL    HW120980   6.622   4.024   2.500
 6361SOL    HW220981   6.582   4.154   2.565
 6362SOL     OW20982  14.624   7.715   8.364
 6362SOL    HW120983  14.563   7.677   8.300
 6362SOL    HW220984  14.615   7.810   8.352
 6363SOL     OW20985   8.918   7.378   9.995
 6363SOL    HW120986   8.968   7.389   9.914
 6363SOL    HW220987   8.855   7.309   9.975
 6364SOL     OW20988  11.137  10.502   3.281
 6364SOL    HW120989  11.080  10.548   3.342
 6364SOL    HW220990  11.099  10.414   3.274
 6365SOL     OW20991   9.482   8.521   5.003
 6365SOL    HW120992   9.435   8.520   5.086
 6365SOL    HW220993   9.490   8.613   4.980
 6366SOL     OW20994  13.426  10.022  14.803
 6366SOL    HW120995  13.501  10.023  14.864
 6366SOL    HW220996  13.350  10.013  14.860
 6367SOL     OW20997  13.577   8.725   2.357
 6367SOL    HW120998  13.625   8.677   2.290
 6367SOL    HW220999  13.556   8.810   2.317
 6368SOL     OW21000   3.128  13.108  13.785
 6368SOL    HW121001   3.174  13.189  13.809
 6368SOL    HW221002   3.166  13.084  13.700
 6369SOL     OW21003   0.009   6.206   8.800
 6369SOL    HW121004   0.039   6.222   8.711
 6369SOL    HW221005  14.831   6.122   8.794
 6370SOL     OW21006   7.666   9.585  12.982
 6370SOL    HW121007   7.689   9.677  12.993
 6370SOL    HW221008   7.707   9.541  13.056
 6371SOL     OW21009   3.775   2.922   2.250
 6371SOL    HW121010   3.854   2.867   2.247
 6371SOL    HW221011   3.762   2.939   2.343
 6372SOL     OW21012   1.811   1.941   9.796
 6372SOL    HW121013   1.744   1.986   9.846
 6372SOL    HW221014   1.763   1.878   9.742
 6373SOL     OW21015   4.522   7.649   9.110
 6373SOL    HW121016   4.523   7.572   9.053
 6373SOL    HW221017   4.447   7.700   9.079
 6374SOL     OW21018  10.627   1.282   3.079
 6374SOL    HW121019  10.562   1.334   3.032
 6374SOL    HW221020  10.661   1.221   3.013
 6375SOL     OW21021   9.592   2.641   9.829
 6375SOL    HW121022   9.542   2.645   9.911
 6375SOL    HW221023   9.537   2.685   9.765
 6376SOL     OW21024   3.747   9.409  12.108
 6376SOL    HW121025   3.776   9.371  12.190
 6376SOL    HW221026   3.819   9.465  12.080
 6377SOL     OW21027   2.800   9.090  13.423
 6377SOL    HW121028   2.740   9.079  13.349
 6377SOL    HW221029   2.882   9.053  13.394
 6378SOL     OW21030   7.659   4.724   3.712
 6378SOL    HW121031   7.710   4.726   3.793
 6378SOL    HW221032   7.619   4.637   3.710
 6379SOL     OW21033   9.692  11.517   7.801
 6379SOL    HW121034   9.764  11.536   7.742
 6379SOL    HW221035   9.644  11.600   7.809
 6380SOL     OW21036   3.605   8.237  12.835
 6380SOL    HW121037   3.561   8.295  12.898
 6380SOL    HW221038   3.615   8.154  12.882
 6381SOL     OW21039   0.386  10.856  10.097
 6381SOL    HW121040   0.423  10.775  10.133
 6381SOL    HW221041   0.309  10.827  10.048
 6382SOL     OW21042   0.475  11.988   3.487
 6382SOL    HW121043   0.510  11.979   3.576
 6382SOL    HW221044   0.411  11.917   3.480
 6383SOL     OW21045  13.272  12.733   3.423
 6383SOL    HW121046  13.211  12.746   3.350
 6383SOL    HW221047  13.342  12.678   3.386
 6384SOL     OW21048   6.288   3.621  11.289
 6384SOL    HW121049   6.227   3.591  11.221
 6384SOL    HW221050   6.302   3.713  11.269
 6385SOL     OW21051  12.334   1.767   4.717
 6385SOL    HW121052  12.395   1.838   4.738
 6385SOL    HW221053  12.265   1.775   4.782
 6386SOL     OW21054  11.328   5.131   9.875
 6386SOL    HW121055  11.380   5.073   9.818
 6386SOL    HW221056  11.392   5.190   9.914
 6387SOL     OW21057   6.464   3.185   9.671
 6387SOL    HW121058   6.376   3.197   9.707
 6387SOL    HW221059   6.463   3.235   9.589
 6388SOL     OW21060   3.565   4.588  14.580
 6388SOL    HW121061   3.508   4.614  14.507
 6388SOL    HW221062   3.526   4.629  14.657
 6389SOL     OW21063   4.411  14.012   5.208
 6389SOL    HW121064   4.437  14.044   5.121
 6389SOL    HW221065   4.494  14.005   5.256
 6390SOL     OW21066  11.886   5.523   3.959
 6390SOL    HW121067  11.940   5.552   4.033
 6390SOL    HW221068  11.895   5.428   3.959
 6391SOL     OW21069  14.577  11.523  10.679
 6391SOL    HW121070  14.593  11.606  10.633
 6391SOL    HW221071  14.655  11.471  10.662
 6392SOL     OW21072   2.191   3.381   7.171
 6392SOL    HW121073   2.223   3.321   7.238
 6392SOL    HW221074   2.118   3.335   7.130
 6393SOL     OW21075  12.857   2.084   6.917
 6393SOL    HW121076  12.783   2.038   6.957
 6393SOL    HW221077  12.817   2.156   6.868
 6394SOL     OW21078   2.228   0.238   3.820
 6394SOL    HW121079   2.146   0.260   3.864
 6394SOL    HW221080   2.296   0.274   3.876
 6395SOL     OW21081  13.154  11.633   6.287
 6395SOL    HW121082  13.137  11.589   6.371
 6395SOL    HW221083  13.216  11.702   6.308
 6396SOL     OW21084  11.817   4.506   7.450
 6396SOL    HW121085  11.818   4.452   7.529
 6396SOL    HW221086  11.745   4.567   7.463
 6397SOL     OW21087  13.705  12.737   0.564
 6397SOL    HW121088  13.795  12.734   0.596
 6397SOL    HW221089  13.708  12.797   0.489
 6398SOL     OW21090   8.346   1.094   8.895
 6398SOL    HW121091   8.298   1.155   8.951
 6398SOL    HW221092   8.287   1.079   8.821
 6399SOL     OW21093   0.574   7.186  14.456
 6399SOL    HW121094   0.504   7.163  14.395
 6399SOL    HW221095   0.643   7.222  14.401
 6400SOL     OW21096   7.654   7.526  11.515
 6400SOL    HW121097   7.608   7.594  11.467
 6400SOL    HW221098   7.696   7.572  11.588
 6401SOL     OW21099  11.738   0.174   0.243
 6401SOL    HW121100  11.695   0.172   0.329
 6401SOL    HW221101  11.696   0.246   0.197
 6402SOL     OW21102   5.221   6.180   0.314
 6402SOL    HW121103   5.306   6.200   0.276
 6402SOL    HW221104   5.214   6.084   0.310
 6403SOL     OW21105   2.305   3.333  12.597
 6403SOL    HW121106   2.375   3.274  12.570
 6403SOL    HW221107   2.333   3.367  12.682
 6404SOL     OW21108  11.083   6.846   8.006
 6404SOL    HW121109  11.144   6.775   7.985
 6404SOL    HW221110  11.013   6.838   7.942
 6405SOL     OW21111   5.319  10.825   2.660
 6405SOL    HW121112   5.278  10.803   2.577
 6405SOL    HW221113   5.386  10.758   2.673
 6406SOL     OW21114   3.976  11.261   5.673
 6406SOL    HW121115   3.918  11.336   5.689
 6406SOL    HW221116   3.991  11.223   5.759
 6407SOL     OW21117  11.421   4.296  13.737
 6407SOL    HW121118  11.488   4.343  13.786
 6407SOL    HW221119  11.339   4.337  13.765
 6408SOL     OW21120  10.134   2.632   6.992
 6408SOL    HW121121  10.131   2.722   7.024
 6408SOL    HW221122  10.176   2.639   6.906
 6409SOL     OW21123  14.418  11.678   2.921
 6409SOL    HW121124  14.379  11.626   2.851
 6409SOL    HW221125  14.512  11.673   2.906
 6410SOL     OW21126   4.972  12.994   7.789
 6410SOL    HW121127   4.984  13.027   7.878
 6410SOL    HW221128   4.914  13.057   7.747
 6411SOL     OW21129   8.182   3.222   0.609
 6411SOL    HW121130   8.210   3.275   0.535
 6411SOL    HW221131   8.150   3.286   0.673
 6412SOL     OW21132   4.641   6.226   9.176
 6412SOL    HW121133   4.664   6.159   9.240
 6412SOL    HW221134   4.549   6.246   9.194
 6413SOL     OW21135   2.916   4.511  14.664
 6413SOL    HW121136   2.986   4.501  14.600
 6413SOL    HW221137   2.911   4.605  14.680
 6414SOL     OW21138  12.435  12.012  10.858
 6414SOL    HW121139  12.519  12.057  10.850
 6414SOL    HW221140  12.416  11.981  10.769
 6415SOL     OW21141   3.996   7.572   8.492
 6415SOL    HW121142   4.055   7.549   8.420
 6415SOL    HW221143   3.939   7.495   8.502
 6416SOL     OW21144   7.399   4.415  12.028
 6416SOL    HW121145   7.391   4.489  12.088
 6416SOL    HW221146   7.380   4.338  12.081
 6417SOL     OW21147   3.693  12.796   5.839
 6417SOL    HW121148   3.761  12.863   5.847
 6417SOL    HW221149   3.611  12.846   5.830
 6418SOL     OW21150  10.488  12.788   6.185
 6418SOL    HW121151  10.567  12.744   6.154
 6418SOL    HW221152  10.416  12.745   6.139
 6419SOL     OW21153   1.651   3.276  10.336
 6419SOL    HW121154   1.678   3.357  10.294
 6419SOL    HW221155   1.698   3.276  10.420
 6420SOL     OW21156  14.566   6.992   3.071
 6420SOL    HW121157  14.530   7.072   3.034
 6420SOL    HW221158  14.520   6.981   3.154
 6421SOL     OW21159   2.463  13.630  12.599
 6421SOL    HW121160   2.467  13.724  12.617
 6421SOL    HW221161   2.431  13.624  12.509
 6422SOL     OW21162   5.768  10.973   0.367
 6422SOL    HW121163   5.817  11.030   0.427
 6422SOL    HW221164   5.764  10.889   0.413
 6423SOL     OW21165   4.635   4.818   3.907
 6423SOL    HW121166   4.672   4.734   3.936
 6423SOL    HW221167   4.695   4.849   3.840
 6424SOL     OW21168   9.480   3.037  14.362
 6424SOL    HW121169   9.483   3.017  14.455
 6424SOL    HW221170   9.426   2.968  14.324
 6425SOL     OW21171   7.171   1.404  13.606
 6425SOL    HW121172   7.116   1.352  13.664
 6425SOL    HW221173   7.182   1.348  13.528
 6426SOL     OW21174   6.152   3.121  10.535
 6426SOL    HW121175   6.165   3.197  10.592
 6426SOL    HW221176   6.230   3.067  10.550
 6427SOL     OW21177  12.635  11.067   6.932
 6427SOL    HW121178  12.658  10.990   6.984
 6427SOL    HW221179  12.539  11.072   6.938
 6428SOL     OW21180   1.631   9.319   9.245
 6428SOL    HW121181   1.698   9.360   9.190
 6428SOL    HW221182   1.679   9.254   9.296
 6429SOL     OW21183   5.289  11.994  11.656
 6429SOL    HW121184   5.283  12.014  11.562
 6429SOL    HW221185   5.269  12.077  11.699
 6430SOL     OW21186   4.007   5.226  12.294
 6430SOL    HW121187   4.092   5.191  12.320
 6430SOL    HW221188   4.027   5.313  12.259
 6431SOL     OW21189   1.526   2.541   2.585
 6431SOL    HW121190   1.442   2.496   2.589
 6431SOL    HW221191   1.533   2.587   2.668
 6432SOL     OW21192   5.170   7.107  13.922
 6432SOL    HW121193   5.169   7.117  13.827
 6432SOL    HW221194   5.099   7.163  13.953
 6433SOL     OW21195  12.349   5.505   7.278
 6433SOL    HW121196  12.353   5.562   7.355
 6433SOL    HW221197  12.264   5.460   7.286
 6434SOL     OW21198   2.032   7.467   4.261
 6434SOL    HW121199   2.022   7.375   4.238
 6434SOL    HW221200   2.084   7.504   4.190
 6435SOL     OW21201   2.133  14.403   0.971
 6435SOL    HW121202   2.164  14.335   0.911
 6435SOL    HW221203   2.133  14.361   1.057
 6436SOL     OW21204  13.231  11.179   0.250
 6436SOL    HW121205  13.157  11.118   0.257
 6436SOL    HW221206  13.252  11.181   0.157
 6437SOL     OW21207   5.302  13.793   0.343
 6437SOL    HW121208   5.222  13.805   0.291
 6437SOL    HW221209   5.362  13.860   0.311
 6438SOL     OW21210   5.899  10.451  10.575
 6438SOL    HW121211   5.865  10.422  10.490
 6438SOL    HW221212   5.834  10.513  10.607
 6439SOL     OW21213   7.159   7.643  13.640
 6439SOL    HW121214   7.245   7.615  13.671
 6439SOL    HW221215   7.124   7.567  13.594
 6440SOL     OW21216  10.265  14.532   8.493
 6440SOL    HW121217  10.245  14.604   8.433
 6440SOL    HW221218  10.216  14.554   8.573
 6441SOL     OW21219   8.111   8.715  13.566
 6441SOL    HW121220   8.021   8.709  13.597
 6441SOL    HW221221   8.125   8.634  13.517
 6442SOL     OW21222   6.358   7.535   6.902
 6442SOL    HW121223   6.401   7.620   6.899
 6442SOL    HW221224   6.420   7.478   6.947
 6443SOL     OW21225   8.845   7.940   2.367
 6443SOL    HW121226   8.749   7.942   2.367
 6443SOL    HW221227   8.870   7.975   2.281
 6444SOL     OW21228   7.130   6.247   6.206
 6444SOL    HW121229   7.049   6.288   6.238
 6444SOL    HW221230   7.113   6.229   6.113
 6445SOL     OW21231  11.491   6.110   4.315
 6445SOL    HW121232  11.567   6.165   4.296
 6445SOL    HW221233  11.446   6.155   4.386
 6446SOL     OW21234  13.976  13.966   6.469
 6446SOL    HW121235  13.902  13.926   6.423
 6446SOL    HW221236  13.999  14.042   6.416
 6447SOL     OW21237   7.595   1.487   1.948
 6447SOL    HW121238   7.561   1.398   1.952
 6447SOL    HW221239   7.673   1.485   2.004
 6448SOL     OW21240   8.250   6.827   6.720
 6448SOL    HW121241   8.339   6.828   6.754
 6448SOL    HW221242   8.196   6.794   6.792
 6449SOL     OW21243   8.222  12.985   1.373
 6449SOL    HW121244   8.276  13.000   1.450
 6449SOL    HW221245   8.218  13.070   1.330
 6450SOL     OW21246  10.895   0.736   7.892
 6450SOL    HW121247  10.903   0.685   7.972
 6450SOL    HW221248  10.864   0.822   7.920
 6451SOL     OW21249   7.343   5.022  12.539
 6451SOL    HW121250   7.367   5.038  12.448
 6451SOL    HW221251   7.401   4.952  12.567
 6452SOL     OW21252  12.269  10.237  10.879
 6452SOL    HW121253  12.215  10.282  10.944
 6452SOL    HW221254  12.338  10.196  10.930
 6453SOL     OW21255  14.038   3.863  11.595
 6453SOL    HW121256  14.061   3.775  11.565
 6453SOL    HW221257  13.974   3.848  11.664
 6454SOL     OW21258   5.360   2.306   9.388
 6454SOL    HW121259   5.370   2.388   9.339
 6454SOL    HW221260   5.426   2.312   9.458
 6455SOL     OW21261  13.319   8.263   2.734
 6455SOL    HW121262  13.303   8.286   2.642
 6455SOL    HW221263  13.251   8.199   2.755
 6456SOL     OW21264   9.635   7.722   6.048
 6456SOL    HW121265   9.642   7.817   6.038
 6456SOL    HW221266   9.722   7.689   6.027
 6457SOL     OW21267  10.656   8.176  12.049
 6457SOL    HW121268  10.718   8.224  11.995
 6457SOL    HW221269  10.661   8.217  12.135
 6458SOL     OW21270  13.892   8.748   7.547
 6458SOL    HW121271  13.799   8.732   7.527
 6458SOL    HW221272  13.891   8.803   7.625
 6459SOL     OW21273   9.246   5.479   9.291
 6459SOL    HW121274   9.234   5.386   9.308
 6459SOL    HW221275   9.230   5.489   9.197
 6460SOL     OW21276   8.023   6.919   0.925
 6460SOL    HW121277   8.040   6.903   0.832
 6460SOL    HW221278   8.005   6.832   0.961
 6461SOL     OW21279  13.906   0.227   0.439
 6461SOL    HW121280  13.907   0.296   0.373
 6461SOL    HW221281  13.861   0.265   0.514
 6462SOL     OW21282  13.597  11.609  11.482
 6462SOL    HW121283  13.517  11.627  11.432
 6462SOL    HW221284  13.575  11.532  11.534
 6463SOL     OW21285   4.915   1.338   7.229
 6463SOL    HW121286   5.009   1.323   7.242
 6463SOL    HW221287   4.883   1.366   7.315
 6464SOL     OW21288   5.592   2.280   2.988
 6464SOL    HW121289   5.557   2.266   3.076
 6464SOL    HW221290   5.525   2.331   2.943
 6465SOL     OW21291   1.332  13.567   9.422
 6465SOL    HW121292   1.268  13.506   9.386
 6465SOL    HW221293   1.402  13.511   9.456
 6466SOL     OW21294  10.999   5.620   1.174
 6466SOL    HW121295  11.014   5.525   1.176
 6466SOL    HW221296  10.954   5.638   1.256
 6467SOL     OW21297   0.246  11.813   3.520
 6467SOL    HW121298   0.239  11.748   3.450
 6467SOL    HW221299   0.194  11.777   3.592
 6468SOL     OW21300   4.420   2.238   9.146
 6468SOL    HW121301   4.398   2.202   9.060
 6468SOL    HW221302   4.497   2.293   9.130
 6469SOL     OW21303  14.340  11.104   6.526
 6469SOL    HW121304  14.273  11.171   6.514
 6469SOL    HW221305  14.366  11.079   6.437
 6470SOL     OW21306   4.373  10.195   7.665
 6470SOL    HW121307   4.303  10.260   7.658
 6470SOL    HW221308   4.329  10.116   7.696
 6471SOL     OW21309   9.593   6.446   4.088
 6471SOL    HW121310   9.621   6.492   4.008
 6471SOL    HW221311   9.650   6.369   4.093
 6472SOL     OW21312   1.122   7.253   3.441
 6472SOL    HW121313   1.097   7.214   3.357
 6472SOL    HW221314   1.050   7.312   3.462
 6473SOL     OW21315  13.156   3.195   2.231
 6473SOL    HW121316  13.171   3.271   2.286
 6473SOL    HW221317  13.243   3.165   2.206
 6474SOL     OW21318   5.391  13.158   2.436
 6474SOL    HW121319   5.383  13.252   2.421
 6474SOL    HW221320   5.368  13.146   2.528
 6475SOL     OW21321   8.468   1.371   0.436
 6475SOL    HW121322   8.551   1.359   0.483
 6475SOL    HW221323   8.455   1.289   0.389
 6476SOL     OW21324   8.304  13.703  13.526
 6476SOL    HW121325   8.389  13.733  13.495
 6476SOL    HW221326   8.295  13.742  13.613
 6477SOL     OW21327   9.142  10.168  10.877
 6477SOL    HW121328   9.166  10.222  10.801
 6477SOL    HW221329   9.047  10.175  10.882
 6478SOL     OW21330   8.400   0.729  13.223
 6478SOL    HW121331   8.310   0.704  13.202
 6478SOL    HW221332   8.446   0.646  13.230
 6479SOL     OW21333  11.865   1.637   2.500
 6479SOL    HW121334  11.881   1.580   2.425
 6479SOL    HW221335  11.850   1.576   2.573
 6480SOL     OW21336  11.046   8.428  11.399
 6480SOL    HW121337  11.017   8.383  11.320
 6480SOL    HW221338  11.135   8.397  11.413
 6481SOL     OW21339   3.203  14.790   9.998
 6481SOL    HW121340   3.211   0.011  10.033
 6481SOL    HW221341   3.289  14.771   9.961
 6482SOL     OW21342   8.554  11.815   0.572
 6482SOL    HW121343   8.558  11.909   0.554
 6482SOL    HW221344   8.635  11.797   0.620
 6483SOL     OW21345   1.331   6.051   0.922
 6483SOL    HW121346   1.261   6.046   0.857
 6483SOL    HW221347   1.407   6.082   0.873
 6484SOL     OW21348   3.869   3.991   5.148
 6484SOL    HW121349   3.807   4.015   5.217
 6484SOL    HW221350   3.839   4.039   5.071
 6485SOL     OW21351   8.008  11.168   8.176
 6485SOL    HW121352   7.984  11.181   8.268
 6485SOL    HW221353   7.966  11.240   8.129
 6486SOL     OW21354   0.137  14.259  10.344
 6486SOL    HW121355   0.048  14.281  10.316
 6486SOL    HW221356   0.194  14.312  10.288
 6487SOL     OW21357   1.310   7.135   7.088
 6487SOL    HW121358   1.326   7.191   7.012
 6487SOL    HW221359   1.336   7.188   7.163
 6488SOL     OW21360   2.722  10.036   2.434
 6488SOL    HW121361   2.811  10.024   2.469
 6488SOL    HW221362   2.665  10.031   2.511
 6489SOL     OW21363  11.122   6.268  11.756
 6489SOL    HW121364  11.042   6.233  11.715
 6489SOL    HW221365  11.151   6.337  11.697
 6490SOL     OW21366   2.136   8.857  11.808
 6490SOL    HW121367   2.162   8.942  11.774
 6490SOL    HW221368   2.172   8.855  11.897
 6491SOL     OW21369   8.757   2.067   1.848
 6491SOL    HW121370   8.783   2.076   1.940
 6491SOL    HW221371   8.686   2.130   1.837
 6492SOL     OW21372   6.192   0.763   2.238
 6492SOL    HW121373   6.231   0.797   2.158
 6492SOL    HW221374   6.267   0.731   2.289
 6493SOL     OW21375   7.436  11.454   2.243
 6493SOL    HW121376   7.446  11.441   2.337
 6493SOL    HW221377   7.525  11.452   2.209
 6494SOL     OW21378   5.185  13.512  11.950
 6494SOL    HW121379   5.128  13.523  12.027
 6494SOL    HW221380   5.129  13.469  11.886
 6495SOL     OW21381   4.574   8.999   6.896
 6495SOL    HW121382   4.494   9.028   6.939
 6495SOL    HW221383   4.645   9.029   6.953
 6496SOL     OW21384   5.884  13.646  12.824
 6496SOL    HW121385   5.948  13.587  12.785
 6496SOL    HW221386   5.828  13.590  12.877
 6497SOL     OW21387  11.848  11.036  13.154
 6497SOL    HW121388  11.932  11.044  13.198
 6497SOL    HW221389  11.790  11.095  13.202
 6498SOL     OW21390   6.014  13.764   2.922
 6498SOL    HW121391   5.981  13.810   2.845
 6498SOL    HW221392   6.006  13.828   2.993
 6499SOL     OW21393   7.156   6.394  11.896
 6499SOL    HW121394   7.238   6.420  11.938
 6499SOL    HW221395   7.112   6.477  11.877
 6500SOL     OW21396   4.381   7.568   2.834
 6500SOL    HW121397   4.451   7.600   2.778
 6500SOL    HW221398   4.347   7.491   2.788
 6501SOL     OW21399  13.937   5.988   2.237
 6501SOL    HW121400  13.938   5.919   2.303
 6501SOL    HW221401  13.884   6.058   2.277
 6502SOL     OW21402   7.991  11.605  10.331
 6502SOL    HW121403   7.979  11.693  10.365
 6502SOL    HW221404   7.914  11.590  10.276
 6503SOL     OW21405  11.605   3.607   4.919
 6503SOL    HW121406  11.641   3.671   4.981
 6503SOL    HW221407  11.672   3.540   4.912
 6504SOL     OW21408  13.587   0.733   4.322
 6504SOL    HW121409  13.544   0.816   4.303
 6504SOL    HW221410  13.577   0.681   4.242
 6505SOL     OW21411  14.441  10.613  10.521
 6505SOL    HW121412  14.520  10.668  10.517
 6505SOL    HW221413  14.400  10.624  10.436
 6506SOL     OW21414   5.379  10.995   5.876
 6506SOL    HW121415   5.426  10.957   5.951
 6506SOL    HW221416   5.407  10.942   5.802
 6507SOL     OW21417  10.828   3.696  12.472
 6507SOL    HW121418  10.863   3.750  12.401
 6507SOL    HW221419  10.749   3.742  12.500
 6508SOL     OW21420  14.615  10.397  11.110
 6508SOL    HW121421  14.575  10.446  11.182
 6508SOL    HW221422  14.552  10.327  11.091
 6509SOL     OW21423   4.094   8.282   0.500
 6509SOL    HW121424   4.175   8.231   0.493
 6509SOL    HW221425   4.076   8.284   0.594
 6510SOL     OW21426   5.093  13.904   1.091
 6510SOL    HW121427   5.122  13.994   1.107
 6510SOL    HW221428   5.024  13.891   1.156
 6511SOL     OW21429   5.926  13.049   2.851
 6511SOL    HW121430   5.932  13.045   2.756
 6511SOL    HW221431   5.954  12.962   2.881
 6512SOL     OW21432  12.264   8.583  14.224
 6512SOL    HW121433  12.315   8.597  14.304
 6512SOL    HW221434  12.263   8.668  14.180
 6513SOL     OW21435  12.184  12.770  13.865
 6513SOL    HW121436  12.128  12.736  13.795
 6513SOL    HW221437  12.144  12.854  13.889
 6514SOL     OW21438  13.143  12.989   6.395
 6514SOL    HW121439  13.119  12.896   6.391
 6514SOL    HW221440  13.068  13.035   6.358
 6515SOL     OW21441   9.074   0.778   1.805
 6515SOL    HW121442   9.081   0.729   1.886
 6515SOL    HW221443   9.135   0.735   1.745
 6516SOL     OW21444   4.109   0.701  10.365
 6516SOL    HW121445   4.189   0.673  10.320
 6516SOL    HW221446   4.125   0.793  10.385
 6517SOL     OW21447   6.668   8.971   1.695
 6517SOL    HW121448   6.698   9.060   1.713
 6517SOL    HW221449   6.650   8.934   1.782
 6518SOL     OW21450   8.671   2.036   3.731
 6518SOL    HW121451   8.616   1.970   3.774
 6518SOL    HW221452   8.714   2.081   3.804
 6519SOL     OW21453   8.399  12.887   5.299
 6519SOL    HW121454   8.490  12.859   5.309
 6519SOL    HW221455   8.390  12.960   5.360
 6520SOL     OW21456  13.556   0.210  10.706
 6520SOL    HW121457  13.618   0.196  10.778
 6520SOL    HW221458  13.525   0.300  10.718
 6521SOL     OW21459   2.124   8.031   0.276
 6521SOL    HW121460   2.109   8.101   0.212
 6521SOL    HW221461   2.065   7.961   0.249
 6522SOL     OW21462  11.767  11.436  13.230
 6522SOL    HW121463  11.705  11.448  13.301
 6522SOL    HW221464  11.726  11.370  13.173
 6523SOL     OW21465  12.139   3.916   1.414
 6523SOL    HW121466  12.051   3.881   1.431
 6523SOL    HW221467  12.130   3.964   1.332
 6524SOL     OW21468  11.306   3.012   3.767
 6524SOL    HW121469  11.346   3.003   3.681
 6524SOL    HW221470  11.282   2.922   3.791
 6525SOL     OW21471   3.778  11.994   5.641
 6525SOL    HW121472   3.700  12.027   5.596
 6525SOL    HW221473   3.811  12.069   5.691
 6526SOL     OW21474  10.221  11.623   1.017
 6526SOL    HW121475  10.244  11.531   1.010
 6526SOL    HW221476  10.305  11.669   1.007
 6527SOL     OW21477   5.306   3.782  12.916
 6527SOL    HW121478   5.258   3.789  12.999
 6527SOL    HW221479   5.245   3.740  12.856
 6528SOL     OW21480   7.817  14.426   8.281
 6528SOL    HW121481   7.874  14.351   8.301
 6528SOL    HW221482   7.771  14.444   8.363
 6529SOL     OW21483  14.356   3.156  12.321
 6529SOL    HW121484  14.367   3.063  12.338
 6529SOL    HW221485  14.264   3.174  12.342
 6530SOL     OW21486  14.462   4.971  11.023
 6530SOL    HW121487  14.533   5.033  11.006
 6530SOL    HW221488  14.506   4.886  11.026
 6531SOL     OW21489   1.126   5.034  10.416
 6531SOL    HW121490   1.044   5.046  10.464
 6531SOL    HW221491   1.194   5.029  10.483
 6532SOL     OW21492  11.830   5.405   5.119
 6532SOL    HW121493  11.855   5.337   5.055
 6532SOL    HW221494  11.736   5.394   5.129
 6533SOL     OW21495   7.388   5.497   9.043
 6533SOL    HW121496   7.467   5.448   9.018
 6533SOL    HW221497   7.317   5.450   8.999
 6534SOL     OW21498  11.656   0.135  12.833
 6534SOL    HW121499  11.601   0.119  12.909
 6534SOL    HW221500  11.720   0.199  12.863
 6535SOL     OW21501   8.812   8.407   8.668
 6535SOL    HW121502   8.879   8.449   8.722
 6535SOL    HW221503   8.860   8.347   8.612
 6536SOL     OW21504   0.788   2.321   2.996
 6536SOL    HW121505   0.795   2.341   3.089
 6536SOL    HW221506   0.878   2.307   2.968
 6537SOL     OW21507   4.859   1.657   8.771
 6537SOL    HW121508   4.948   1.627   8.751
 6537SOL    HW221509   4.829   1.598   8.839
 6538SOL     OW21510   2.447   5.845   5.286
 6538SOL    HW121511   2.514   5.819   5.224
 6538SOL    HW221512   2.460   5.788   5.362
 6539SOL     OW21513   5.227  11.431   0.391
 6539SOL    HW121514   5.229  11.345   0.433
 6539SOL    HW221515   5.135  11.448   0.374
 6540SOL     OW21516   3.163   5.692   7.632
 6540SOL    HW121517   3.092   5.629   7.621
 6540SOL    HW221518   3.228   5.668   7.565
 6541SOL     OW21519   9.115   1.018   4.104
 6541SOL    HW121520   9.058   1.049   4.034
 6541SOL    HW221521   9.058   0.967   4.161
 6542SOL     OW21522  13.148   3.515   9.278
 6542SOL    HW121523  13.061   3.524   9.317
 6542SOL    HW221524  13.167   3.602   9.243
 6543SOL     OW21525  11.812  14.481   5.125
 6543SOL    HW121526  11.810  14.461   5.219
 6543SOL    HW221527  11.721  14.469   5.097
 6544SOL     OW21528   9.895   3.657   2.963
 6544SOL    HW121529   9.902   3.673   2.869
 6544SOL    HW221530   9.881   3.744   3.001
 6545SOL     OW21531  12.884  14.585   3.674
 6545SOL    HW121532  12.809  14.537   3.639
 6545SOL    HW221533  12.900  14.544   3.759
 6546SOL     OW21534   8.066   5.715   0.474
 6546SOL    HW121535   8.131   5.782   0.492
 6546SOL    HW221536   7.987   5.764   0.449
 6547SOL     OW21537  14.154   5.094   4.615
 6547SOL    HW121538  14.223   5.029   4.630
 6547SOL    HW221539  14.126   5.120   4.703
 6548SOL     OW21540   3.285   5.660  11.522
 6548SOL    HW121541   3.268   5.642  11.430
 6548SOL    HW221542   3.361   5.718  11.521
 6549SOL     OW21543   6.194   8.109   4.214
 6549SOL    HW121544   6.233   8.153   4.289
 6549SOL    HW221545   6.245   8.028   4.204
 6550SOL     OW21546   2.254   5.420   5.897
 6550SOL    HW121547   2.237   5.342   5.950
 6550SOL    HW221548   2.340   5.451   5.926
 6551SOL     OW21549  14.143   2.380   3.036
 6551SOL    HW121550  14.115   2.348   3.121
 6551SOL    HW221551  14.077   2.347   2.975
 6552SOL     OW21552  14.448  10.179  11.075
 6552SOL    HW121553  14.401  10.156  11.155
 6552SOL    HW221554  14.400  10.254  11.039
 6553SOL     OW21555  13.365  14.535  10.227
 6553SOL    HW121556  13.282  14.525  10.180
 6553SOL    HW221557  13.408  14.450  10.217
 6554SOL     OW21558   9.772  14.082   5.576
 6554SOL    HW121559   9.679  14.105   5.577
 6554SOL    HW221560   9.773  13.987   5.563
 6555SOL     OW21561  10.371   2.041  10.397
 6555SOL    HW121562  10.372   2.070  10.488
 6555SOL    HW221563  10.384   2.121  10.345
 6556SOL     OW21564   9.035  13.173  13.182
 6556SOL    HW121565   8.992  13.162  13.097
 6556SOL    HW221566   8.976  13.230  13.231
 6557SOL     OW21567   1.413   1.013   5.681
 6557SOL    HW121568   1.488   1.071   5.692
 6557SOL    HW221569   1.453   0.926   5.666
 6558SOL     OW21570  11.590  13.370   2.375
 6558SOL    HW121571  11.647  13.420   2.317
 6558SOL    HW221572  11.649  13.311   2.422
 6559SOL     OW21573  11.942  11.182   4.470
 6559SOL    HW121574  12.020  11.127   4.465
 6559SOL    HW221575  11.975  11.271   4.460
 6560SOL     OW21576   2.320   0.570  14.400
 6560SOL    HW121577   2.352   0.625  14.329
 6560SOL    HW221578   2.313   0.483  14.360
 6561SOL     OW21579   4.430   1.517   9.783
 6561SOL    HW121580   4.368   1.585   9.758
 6561SOL    HW221581   4.387   1.469   9.854
 6562SOL     OW21582   1.047  12.336  11.574
 6562SOL    HW121583   0.993  12.304  11.501
 6562SOL    HW221584   1.134  12.348  11.536
 6563SOL     OW21585   7.800  11.903   7.755
 6563SOL    HW121586   7.763  11.990   7.740
 6563SOL    HW221587   7.767  11.877   7.841
 6564SOL     OW21588   9.783  13.116  12.496
 6564SOL    HW121589   9.705  13.095  12.444
 6564SOL    HW221590   9.788  13.045  12.561
 6565SOL     OW21591  12.839   7.781  11.936
 6565SOL    HW121592  12.859   7.832  12.015
 6565SOL    HW221593  12.925   7.760  11.899
 6566SOL     OW21594  12.587   8.224   6.153
 6566SOL    HW121595  12.561   8.147   6.103
 6566SOL    HW221596  12.647   8.271   6.095
 6567SOL     OW21597   4.847   4.784   5.316
 6567SOL    HW121598   4.885   4.848   5.255
 6567SOL    HW221599   4.839   4.831   5.399
 6568SOL     OW21600   0.973  14.131   9.024
 6568SOL    HW121601   1.048  14.159   8.971
 6568SOL    HW221602   0.913  14.205   9.022
 6569SOL     OW21603   2.923   1.000   4.949
 6569SOL    HW121604   2.989   0.998   5.018
 6569SOL    HW221605   2.974   0.997   4.867
 6570SOL     OW21606   8.823  14.802   2.623
 6570SOL    HW121607   8.885   0.005   2.608
 6570SOL    HW221608   8.771  14.798   2.543
 6571SOL     OW21609  12.721   8.329   0.238
 6571SOL    HW121610  12.746   8.245   0.199
 6571SOL    HW221611  12.716   8.389   0.163
 6572SOL     OW21612   1.249   8.797   3.167
 6572SOL    HW121613   1.179   8.758   3.116
 6572SOL    HW221614   1.210   8.875   3.206
 6573SOL     OW21615  11.615  11.837  10.203
 6573SOL    HW121616  11.617  11.764  10.264
 6573SOL    HW221617  11.522  11.847  10.181
 6574SOL     OW21618  11.451   7.452   1.671
 6574SOL    HW121619  11.423   7.513   1.739
 6574SOL    HW221620  11.547   7.449   1.679
 6575SOL     OW21621   5.468   6.986   6.175
 6575SOL    HW121622   5.560   6.988   6.202
 6575SOL    HW221623   5.419   6.982   6.257
 6576SOL     OW21624   7.010   6.126  10.584
 6576SOL    HW121625   7.050   6.088  10.506
 6576SOL    HW221626   7.065   6.097  10.656
 6577SOL     OW21627   3.411   3.449   9.833
 6577SOL    HW121628   3.428   3.534   9.791
 6577SOL    HW221629   3.467   3.388   9.787
 6578SOL     OW21630  10.002  14.314  10.970
 6578SOL    HW121631   9.940  14.345  11.036
 6578SOL    HW221632  10.084  14.357  10.992
 6579SOL     OW21633  14.579  13.418   7.553
 6579SOL    HW121634  14.558  13.326   7.568
 6579SOL    HW221635  14.590  13.425   7.458
 6580SOL     OW21636   4.970   4.204  14.164
 6580SOL    HW121637   5.015   4.288  14.166
 6580SOL    HW221638   4.996   4.163  14.081
 6581SOL     OW21639  14.607   5.247   9.528
 6581SOL    HW121640  14.634   5.157   9.507
 6581SOL    HW221641  14.582   5.242   9.620
 6582SOL     OW21642   8.809  13.553   4.206
 6582SOL    HW121643   8.761  13.632   4.178
 6582SOL    HW221644   8.742  13.498   4.246
 6583SOL     OW21645   8.358   8.830  11.684
 6583SOL    HW121646   8.283   8.787  11.642
 6583SOL    HW221647   8.434   8.795  11.639
 6584SOL     OW21648   9.595  11.165   8.778
 6584SOL    HW121649   9.602  11.202   8.866
 6584SOL    HW221650   9.685  11.148   8.752
 6585SOL     OW21651   3.734   4.906   8.656
 6585SOL    HW121652   3.741   4.925   8.562
 6585SOL    HW221653   3.647   4.938   8.680
 6586SOL     OW21654   8.761  13.638  10.378
 6586SOL    HW121655   8.699  13.709  10.361
 6586SOL    HW221656   8.738  13.606  10.465
 6587SOL     OW21657   1.465  11.191   2.043
 6587SOL    HW121658   1.508  11.229   1.966
 6587SOL    HW221659   1.525  11.121   2.070
 6588SOL     OW21660   2.926   8.723  11.965
 6588SOL    HW121661   2.933   8.632  11.938
 6588SOL    HW221662   2.909   8.771  11.884
 6589SOL     OW21663   5.238   9.370   8.000
 6589SOL    HW121664   5.192   9.366   8.084
 6589SOL    HW221665   5.176   9.411   7.941
 6590SOL     OW21666   6.634   6.729  11.790
 6590SOL    HW121667   6.565   6.668  11.817
 6590SOL    HW221668   6.594   6.816  11.798
 6591SOL     OW21669   9.827   3.177   5.638
 6591SOL    HW121670   9.824   3.265   5.602
 6591SOL    HW221671   9.795   3.121   5.567
 6592SOL     OW21672   8.297   6.942   7.109
 6592SOL    HW121673   8.328   6.854   7.089
 6592SOL    HW221674   8.225   6.930   7.171
 6593SOL     OW21675   4.145  12.351   5.757
 6593SOL    HW121676   4.237  12.345   5.783
 6593SOL    HW221677   4.140  12.432   5.706
 6594SOL     OW21678   2.298  10.639   4.880
 6594SOL    HW121679   2.313  10.553   4.840
 6594SOL    HW221680   2.370  10.647   4.943
 6595SOL     OW21681   7.224   9.302   0.257
 6595SOL    HW121682   7.263   9.380   0.295
 6595SOL    HW221683   7.249   9.231   0.316
 6596SOL     OW21684  12.354  13.551   4.814
 6596SOL    HW121685  12.400  13.590   4.889
 6596SOL    HW221686  12.408  13.572   4.739
 6597SOL     OW21687  12.909  13.033   4.300
 6597SOL    HW121688  12.978  13.086   4.260
 6597SOL    HW221689  12.833  13.092   4.304
 6598SOL     OW21690  11.621   6.300  11.976
 6598SOL    HW121691  11.572   6.221  11.953
 6598SOL    HW221692  11.617   6.354  11.897
 6599SOL     OW21693   7.257   2.485   6.748
 6599SOL    HW121694   7.182   2.440   6.709
 6599SOL    HW221695   7.219   2.555   6.800
 6600SOL     OW21696   9.463   3.694   2.152
 6600SOL    HW121697   9.528   3.625   2.141
 6600SOL    HW221698   9.379   3.649   2.153
 6601SOL     OW21699   9.319   6.791   2.821
 6601SOL    HW121700   9.295   6.705   2.786
 6601SOL    HW221701   9.288   6.853   2.754
 6602SOL     OW21702   4.309   4.311  10.385
 6602SOL    HW121703   4.320   4.219  10.406
 6602SOL    HW221704   4.278   4.351  10.467
 6603SOL     OW21705   4.701  10.901   8.615
 6603SOL    HW121706   4.674  10.828   8.670
 6603SOL    HW221707   4.619  10.944   8.590
 6604SOL     OW21708   6.258   4.056   8.856
 6604SOL    HW121709   6.302   4.133   8.820
 6604SOL    HW221710   6.184   4.092   8.905
 6605SOL     OW21711  10.583   7.124   0.461
 6605SOL    HW121712  10.661   7.087   0.419
 6605SOL    HW221713  10.607   7.130   0.553
 6606SOL     OW21714  11.539   6.627  14.854
 6606SOL    HW121715  11.494   6.665   0.061
 6606SOL    HW221716  11.550   6.700  14.793
 6607SOL     OW21717   0.590   6.338   3.774
 6607SOL    HW121718   0.516   6.315   3.830
 6607SOL    HW221719   0.639   6.256   3.764
 6608SOL     OW21720   9.311  12.597  13.771
 6608SOL    HW121721   9.279  12.507  13.770
 6608SOL    HW221722   9.289  12.632  13.685
 6609SOL     OW21723   0.237   8.853   9.010
 6609SOL    HW121724   0.229   8.943   8.978
 6609SOL    HW221725   0.305   8.858   9.078
 6610SOL     OW21726  10.715   5.565   0.285
 6610SOL    HW121727  10.695   5.582   0.193
 6610SOL    HW221728  10.810   5.567   0.290
 6611SOL     OW21729   5.792   3.182   0.910
 6611SOL    HW121730   5.724   3.146   0.967
 6611SOL    HW221731   5.745   3.216   0.835
 6612SOL     OW21732   2.018  12.348   1.750
 6612SOL    HW121733   2.046  12.439   1.757
 6612SOL    HW221734   2.089  12.305   1.702
 6613SOL     OW21735   9.997  14.193   3.650
 6613SOL    HW121736  10.072  14.144   3.683
 6613SOL    HW221737   9.981  14.260   3.717
 6614SOL     OW21738   9.342   2.760  11.783
 6614SOL    HW121739   9.249   2.781  11.775
 6614SOL    HW221740   9.387   2.843  11.765
 6615SOL     OW21741  10.874   1.223  13.378
 6615SOL    HW121742  10.943   1.247  13.316
 6615SOL    HW221743  10.921   1.183  13.451
 6616SOL     OW21744  11.689  13.240   8.147
 6616SOL    HW121745  11.669  13.326   8.111
 6616SOL    HW221746  11.747  13.200   8.082
 6617SOL     OW21747   8.375   7.506   4.450
 6617SOL    HW121748   8.302   7.451   4.423
 6617SOL    HW221749   8.387   7.486   4.543
 6618SOL     OW21750   0.631   4.779  13.977
 6618SOL    HW121751   0.715   4.798  13.934
 6618SOL    HW221752   0.571   4.763  13.904
 6619SOL     OW21753  14.409   3.985   5.901
 6619SOL    HW121754  14.401   3.935   5.982
 6619SOL    HW221755  14.452   4.066   5.926
 6620SOL     OW21756   0.828  12.224   1.330
 6620SOL    HW121757   0.767  12.280   1.377
 6620SOL    HW221758   0.906  12.278   1.319
 6621SOL     OW21759   3.632  12.426   3.710
 6621SOL    HW121760   3.618  12.485   3.635
 6621SOL    HW221761   3.586  12.468   3.782
 6622SOL     OW21762   0.580   7.484   6.940
 6622SOL    HW121763   0.660   7.506   6.893
 6622SOL    HW221764   0.516   7.548   6.909
 6623SOL     OW21765   7.525  14.472  10.232
 6623SOL    HW121766   7.485  14.386  10.218
 6623SOL    HW221767   7.460  14.534  10.198
 6624SOL     OW21768   2.895   2.659   2.887
 6624SOL    HW121769   2.909   2.732   2.948
 6624SOL    HW221770   2.829   2.692   2.826
 6625SOL     OW21771  14.849   6.960   2.220
 6625SOL    HW121772   0.047   6.988   2.283
 6625SOL    HW221773  14.767   6.963   2.269
 6626SOL     OW21774  12.528   4.891  14.395
 6626SOL    HW121775  12.535   4.799  14.367
 6626SOL    HW221776  12.616   4.927  14.383
 6627SOL     OW21777   1.629  10.383   2.396
 6627SOL    HW121778   1.709  10.346   2.434
 6627SOL    HW221779   1.660  10.448   2.333
 6628SOL     OW21780   1.443   6.034   8.400
 6628SOL    HW121781   1.447   6.129   8.388
 6628SOL    HW221782   1.518   6.013   8.455
 6629SOL     OW21783   6.172  10.116   2.400
 6629SOL    HW121784   6.220  10.051   2.451
 6629SOL    HW221785   6.093  10.070   2.371
 6630SOL     OW21786   9.505  13.993   1.439
 6630SOL    HW121787   9.431  13.956   1.391
 6630SOL    HW221788   9.487  14.087   1.444
 6631SOL     OW21789   5.555   6.923   2.992
 6631SOL    HW121790   5.502   6.983   2.940
 6631SOL    HW221791   5.528   6.940   3.083
 6632SOL     OW21792   6.314  10.769   0.112
 6632SOL    HW121793   6.294  10.677   0.132
 6632SOL    HW221794   6.383  10.764   0.046
 6633SOL     OW21795   0.963   2.163   3.275
 6633SOL    HW121796   0.910   2.128   3.204
 6633SOL    HW221797   1.017   2.230   3.233
 6634SOL     OW21798  13.903   3.881   9.078
 6634SOL    HW121799  13.884   3.916   8.991
 6634SOL    HW221800  13.942   3.955   9.125
 6635SOL     OW21801  13.441  14.151   1.901
 6635SOL    HW121802  13.377  14.194   1.959
 6635SOL    HW221803  13.419  14.184   1.814
 6636SOL     OW21804  10.126   4.361   0.543
 6636SOL    HW121805  10.133   4.317   0.628
 6636SOL    HW221806  10.117   4.289   0.480
 6637SOL     OW21807   9.620   9.270   5.206
 6637SOL    HW121808   9.660   9.322   5.137
 6637SOL    HW221809   9.567   9.332   5.256
 6638SOL     OW21810   8.514   2.459   9.687
 6638SOL    HW121811   8.441   2.475   9.627
 6638SOL    HW221812   8.491   2.508   9.765
 6639SOL     OW21813  10.113   5.518   7.678
 6639SOL    HW121814  10.208   5.520   7.667
 6639SOL    HW221815  10.099   5.465   7.756
 6640SOL     OW21816  13.357   3.475  14.465
 6640SOL    HW121817  13.399   3.560  14.480
 6640SOL    HW221818  13.267   3.497  14.440
 6641SOL     OW21819   6.802   4.853   6.751
 6641SOL    HW121820   6.817   4.761   6.728
 6641SOL    HW221821   6.889   4.888   6.769
 6642SOL     OW21822  12.213   8.097   7.075
 6642SOL    HW121823  12.119   8.089   7.091
 6642SOL    HW221824  12.226   8.056   6.989
 6643SOL     OW21825   4.505   5.837   0.199
 6643SOL    HW121826   4.463   5.923   0.190
 6643SOL    HW221827   4.599   5.856   0.192
 6644SOL     OW21828   7.583   8.875   2.616
 6644SOL    HW121829   7.639   8.952   2.622
 6644SOL    HW221830   7.533   8.875   2.698
 6645SOL     OW21831  13.365  10.783  12.055
 6645SOL    HW121832  13.392  10.777  11.964
 6645SOL    HW221833  13.373  10.693  12.087
 6646SOL     OW21834   1.408   7.895   7.169
 6646SOL    HW121835   1.362   7.888   7.252
 6646SOL    HW221836   1.468   7.820   7.168
 6647SOL     OW21837  10.185   9.274   8.674
 6647SOL    HW121838  10.142   9.199   8.633
 6647SOL    HW221839  10.215   9.241   8.759
 6648SOL     OW21840   7.973   0.425   0.904
 6648SOL    HW121841   7.920   0.436   0.825
 6648SOL    HW221842   8.017   0.510   0.914
 6649SOL     OW21843   6.219   2.166   8.974
 6649SOL    HW121844   6.295   2.145   9.028
 6649SOL    HW221845   6.144   2.153   9.032
 6650SOL     OW21846   4.589   8.947  12.776
 6650SOL    HW121847   4.536   8.911  12.704
 6650SOL    HW221848   4.654   8.879  12.794
 6651SOL     OW21849   8.078  12.362   9.320
 6651SOL    HW121850   8.048  12.342   9.231
 6651SOL    HW221851   8.051  12.287   9.372
 6652SOL     OW21852  11.687   3.841  12.213
 6652SOL    HW121853  11.700   3.829  12.119
 6652SOL    HW221854  11.613   3.784  12.235
 6653SOL     OW21855   4.091  12.209   1.309
 6653SOL    HW121856   4.088  12.255   1.225
 6653SOL    HW221857   4.007  12.231   1.350
 6654SOL     OW21858  14.594  11.064   5.021
 6654SOL    HW121859  14.603  10.973   4.994
 6654SOL    HW221860  14.680  11.103   5.004
 6655SOL     OW21861  12.242  10.331   1.353
 6655SOL    HW121862  12.204  10.250   1.386
 6655SOL    HW221863  12.203  10.342   1.266
 6656SOL     OW21864  14.731  13.277   2.195
 6656SOL    HW121865  14.754  13.357   2.243
 6656SOL    HW221866  14.774  13.288   2.110
 6657SOL     OW21867   8.337   3.754   9.349
 6657SOL    HW121868   8.358   3.700   9.273
 6657SOL    HW221869   8.387   3.716   9.421
 6658SOL     OW21870   6.849   9.102   6.091
 6658SOL    HW121871   6.852   9.025   6.148
 6658SOL    HW221872   6.921   9.090   6.030
 6659SOL     OW21873   5.080   7.118  13.609
 6659SOL    HW121874   5.135   7.195  13.596
 6659SOL    HW221875   5.029   7.112  13.528
 6660SOL     OW21876  13.495   7.400   4.188
 6660SOL    HW121877  13.532   7.450   4.116
 6660SOL    HW221878  13.551   7.322   4.195
 6661SOL     OW21879  10.549   7.707   4.840
 6661SOL    HW121880  10.456   7.731   4.833
 6661SOL    HW221881  10.553   7.617   4.809
 6662SOL     OW21882   8.842   1.655   9.191
 6662SOL    HW121883   8.874   1.719   9.255
 6662SOL    HW221884   8.920   1.608   9.162
 6663SOL     OW21885  10.539   1.213   6.125
 6663SOL    HW121886  10.539   1.128   6.082
 6663SOL    HW221887  10.624   1.219   6.168
 6664SOL     OW21888   3.798   5.927  13.526
 6664SOL    HW121889   3.874   5.870  13.517
 6664SOL    HW221890   3.763   5.935  13.437
 6665SOL     OW21891   1.894  10.286  10.516
 6665SOL    HW121892   1.929  10.233  10.588
 6665SOL    HW221893   1.802  10.259  10.509
 6666SOL     OW21894  12.234   8.702   4.593
 6666SOL    HW121895  12.184   8.727   4.671
 6666SOL    HW221896  12.234   8.607   4.594
 6667SOL     OW21897   2.126   4.732   3.950
 6667SOL    HW121898   2.157   4.700   4.035
 6667SOL    HW221899   2.157   4.823   3.946
 6668SOL     OW21900   4.924   7.388  10.807
 6668SOL    HW121901   4.889   7.355  10.890
 6668SOL    HW221902   5.018   7.397  10.823
 6669SOL     OW21903   6.265  10.167   3.536
 6669SOL    HW121904   6.300  10.223   3.605
 6669SOL    HW221905   6.258  10.081   3.577
 6670SOL     OW21906   7.341  13.135   9.134
 6670SOL    HW121907   7.321  13.042   9.149
 6670SOL    HW221908   7.416  13.134   9.074
 6671SOL     OW21909   8.181   6.224   7.711
 6671SOL    HW121910   8.240   6.159   7.747
 6671SOL    HW221911   8.098   6.210   7.757
 6672SOL     OW21912   2.283   1.985  14.395
 6672SOL    HW121913   2.376   1.972  14.373
 6672SOL    HW221914   2.238   1.984  14.310
 6673SOL     OW21915  11.722   4.947   9.623
 6673SOL    HW121916  11.751   4.857   9.636
 6673SOL    HW221917  11.748   4.967   9.533
 6674SOL     OW21918  14.644   3.942   3.033
 6674SOL    HW121919  14.721   3.886   3.020
 6674SOL    HW221920  14.622   3.932   3.125
 6675SOL     OW21921   3.004   8.445   5.420
 6675SOL    HW121922   3.003   8.511   5.489
 6675SOL    HW221923   3.032   8.364   5.463
 6676SOL     OW21924   8.104   4.914  10.061
 6676SOL    HW121925   8.161   4.958   9.999
 6676SOL    HW221926   8.152   4.916  10.144
 6677SOL     OW21927  13.378   1.920  11.591
 6677SOL    HW121928  13.463   1.903  11.549
 6677SOL    HW221929  13.315   1.910  11.520
 6678SOL     OW21930   5.044   8.141   5.081
 6678SOL    HW121931   4.956   8.164   5.112
 6678SOL    HW221932   5.065   8.207   5.016
 6679SOL     OW21933  12.314   3.692  13.305
 6679SOL    HW121934  12.338   3.775  13.346
 6679SOL    HW221935  12.219   3.686  13.317
 6680SOL     OW21936   3.359   0.238  12.497
 6680SOL    HW121937   3.274   0.276  12.473
 6680SOL    HW221938   3.342   0.144  12.504
 6681SOL     OW21939  13.621   4.800  11.307
 6681SOL    HW121940  13.708   4.779  11.273
 6681SOL    HW221941  13.576   4.844  11.234
 6682SOL     OW21942   2.650   6.672   9.779
 6682SOL    HW121943   2.706   6.666   9.701
 6682SOL    HW221944   2.665   6.760   9.813
 6683SOL     OW21945   4.048   7.015  10.853
 6683SOL    HW121946   4.059   6.921  10.868
 6683SOL    HW221947   4.091   7.057  10.928
 6684SOL     OW21948  13.228   1.291   7.422
 6684SOL    HW121949  13.152   1.348   7.414
 6684SOL    HW221950  13.221   1.254   7.510
 6685SOL     OW21951  10.112  12.674  12.999
 6685SOL    HW121952  10.125  12.653  13.091
 6685SOL    HW221953  10.017  12.683  12.990
 6686SOL     OW21954  12.019   6.121   0.149
 6686SOL    HW121955  12.001   6.082   0.234
 6686SOL    HW221956  12.060   6.205   0.169
 6687SOL     OW21957   4.658  14.272   8.238
 6687SOL    HW121958   4.724  14.335   8.268
 6687SOL    HW221959   4.700  14.226   8.165
 6688SOL     OW21960   7.418  12.924  11.955
 6688SOL    HW121961   7.418  12.829  11.943
 6688SOL    HW221962   7.492  12.941  12.014
 6689SOL     OW21963   6.996  13.414   8.608
 6689SOL    HW121964   7.020  13.388   8.519
 6689SOL    HW221965   7.062  13.479   8.633
 6690SOL     OW21966   6.262  13.649  12.488
 6690SOL    HW121967   6.333  13.585  12.486
 6690SOL    HW221968   6.197  13.611  12.547
 6691SOL     OW21969  11.991   3.372   9.375
 6691SOL    HW121970  12.023   3.292   9.417
 6691SOL    HW221971  12.007   3.359   9.282
 6692SOL     OW21972   2.498  12.818   0.262
 6692SOL    HW121973   2.562  12.786   0.325
 6692SOL    HW221974   2.551  12.859   0.193
 6693SOL     OW21975  14.069  12.187   6.387
 6693SOL    HW121976  14.144  12.155   6.436
 6693SOL    HW221977  14.064  12.132   6.310
 6694SOL     OW21978   3.194   4.250   0.177
 6694SOL    HW121979   3.120   4.284   0.228
 6694SOL    HW221980   3.229   4.178   0.230
 6695SOL     OW21981  10.467   2.522   1.813
 6695SOL    HW121982  10.518   2.573   1.876
 6695SOL    HW221983  10.380   2.560   1.816
 6696SOL     OW21984   9.047   1.360  13.107
 6696SOL    HW121985   8.961   1.339  13.071
 6696SOL    HW221986   9.107   1.352  13.032
 6697SOL     OW21987   8.333   8.375   9.975
 6697SOL    HW121988   8.253   8.376  10.028
 6697SOL    HW221989   8.343   8.466   9.945
 6698SOL     OW21990  13.986   1.046  10.826
 6698SOL    HW121991  13.986   1.052  10.921
 6698SOL    HW221992  14.048   0.976  10.806
 6699SOL     OW21993  14.815  12.496   8.380
 6699SOL    HW121994  14.863  12.531   8.454
 6699SOL    HW221995  14.843  12.404   8.375
 6700SOL     OW21996  13.278   4.793   9.036
 6700SOL    HW121997  13.275   4.820   9.128
 6700SOL    HW221998  13.346   4.848   8.997
 6701SOL     OW21999  14.154   1.657  14.158
 6701SOL    HW122000  14.112   1.672  14.074
 6701SOL    HW222001  14.244   1.687  14.146
 6702SOL     OW22002   3.575   8.709  13.469
 6702SOL    HW122003   3.630   8.739  13.396
 6702SOL    HW222004   3.601   8.618  13.483
 6703SOL     OW22005   7.725   8.262   3.185
 6703SOL    HW122006   7.709   8.325   3.255
 6703SOL    HW222007   7.784   8.308   3.125
 6704SOL     OW22008  14.531   3.283   1.500
 6704SOL    HW122009  14.455   3.299   1.445
 6704SOL    HW222010  14.495   3.252   1.583
 6705SOL     OW22011  12.163   9.145   1.703
 6705SOL    HW122012  12.137   9.212   1.766
 6705SOL    HW222013  12.082   9.099   1.682
 6706SOL     OW22014   0.611  10.922   3.760
 6706SOL    HW122015   0.664  10.886   3.832
 6706SOL    HW222016   0.593  10.847   3.704
 6707SOL     OW22017  12.930   2.095   1.067
 6707SOL    HW122018  12.933   2.134   1.155
 6707SOL    HW222019  12.872   2.020   1.076
 6708SOL     OW22020   9.257   7.666   0.739
 6708SOL    HW122021   9.282   7.688   0.649
 6708SOL    HW222022   9.161   7.660   0.737
 6709SOL     OW22023   6.899   5.751  13.828
 6709SOL    HW122024   6.841   5.728  13.756
 6709SOL    HW222025   6.886   5.681  13.893
 6710SOL     OW22026   8.444   3.208  11.557
 6710SOL    HW122027   8.398   3.266  11.618
 6710SOL    HW222028   8.537   3.229  11.569
 6711SOL     OW22029  14.228   1.628   5.762
 6711SOL    HW122030  14.269   1.654   5.680
 6711SOL    HW222031  14.195   1.709   5.800
 6712SOL     OW22032   3.140   6.390   2.399
 6712SOL    HW122033   3.157   6.432   2.315
 6712SOL    HW222034   3.088   6.454   2.448
 6713SOL     OW22035   7.791  12.591   0.412
 6713SOL    HW122036   7.841  12.601   0.331
 6713SOL    HW222037   7.710  12.640   0.397
 6714SOL     OW22038   3.996   7.986   0.256
 6714SOL    HW122039   3.990   7.914   0.193
 6714SOL    HW222040   4.076   7.967   0.306
 6715SOL     OW22041   2.072  14.516   7.150
 6715SOL    HW122042   2.136  14.457   7.191
 6715SOL    HW222043   1.996  14.514   7.208
 6716SOL     OW22044  10.376   1.822   5.383
 6716SOL    HW122045  10.325   1.767   5.325
 6716SOL    HW222046  10.454   1.770   5.404
 6717SOL     OW22047  12.496   6.570  12.080
 6717SOL    HW122048  12.417   6.522  12.057
 6717SOL    HW222049  12.512   6.628  12.005
 6718SOL     OW22050   9.404  13.590  10.156
 6718SOL    HW122051   9.433  13.622  10.241
 6718SOL    HW222052   9.362  13.506  10.175
 6719SOL     OW22053   0.222   5.057   8.962
 6719SOL    HW122054   0.201   5.035   8.871
 6719SOL    HW222055   0.185   4.986   9.014
 6720SOL     OW22056   8.645  10.672   9.796
 6720SOL    HW122057   8.606  10.673   9.709
 6720SOL    HW222058   8.675  10.762   9.810
 6721SOL     OW22059  12.999  14.122   7.337
 6721SOL    HW122060  13.029  14.175   7.264
 6721SOL    HW222061  12.936  14.062   7.299
 6722SOL     OW22062  10.987   3.108   7.811
 6722SOL    HW122063  10.992   3.058   7.730
 6722SOL    HW222064  10.926   3.179   7.792
 6723SOL     OW22065   7.373   1.107   5.963
 6723SOL    HW122066   7.350   1.094   6.055
 6723SOL    HW222067   7.356   1.200   5.948
 6724SOL     OW22068   0.370  12.813  11.058
 6724SOL    HW122069   0.327  12.898  11.056
 6724SOL    HW222070   0.457  12.830  11.094
 6725SOL     OW22071  11.866  10.684  10.051
 6725SOL    HW122072  11.922  10.632  10.109
 6725SOL    HW222073  11.909  10.679   9.965
 6726SOL     OW22074   4.105   6.691  13.290
 6726SOL    HW122075   4.092   6.689  13.385
 6726SOL    HW222076   4.079   6.779  13.264
 6727SOL     OW22077  11.081   7.349  11.092
 6727SOL    HW122078  11.114   7.269  11.051
 6727SOL    HW222079  11.082   7.414  11.021
 6728SOL     OW22080   3.466   7.968  13.039
 6728SOL    HW122081   3.416   8.049  13.049
 6728SOL    HW222082   3.411   7.913  12.983
 6729SOL     OW22083   6.304   7.443  13.452
 6729SOL    HW122084   6.228   7.418  13.398
 6729SOL    HW222085   6.369   7.374  13.434
 6730SOL     OW22086   3.166   7.197   6.171
 6730SOL    HW122087   3.186   7.205   6.078
 6730SOL    HW222088   3.074   7.223   6.178
 6731SOL     OW22089  10.146  13.433   3.077
 6731SOL    HW122090  10.164  13.525   3.096
 6731SOL    HW222091  10.102  13.400   3.155
 6732SOL     OW22092  11.633   9.649   1.642
 6732SOL    HW122093  11.595   9.733   1.617
 6732SOL    HW222094  11.628   9.596   1.562
 6733SOL     OW22095   9.723   5.512  14.441
 6733SOL    HW122096   9.755   5.444  14.499
 6733SOL    HW222097   9.735   5.593  14.490
 6734SOL     OW22098  13.654   7.771  12.109
 6734SOL    HW122099  13.610   7.853  12.132
 6734SOL    HW222100  13.612   7.705  12.163
 6735SOL     OW22101   3.020   3.923   4.367
 6735SOL    HW122102   3.057   3.839   4.341
 6735SOL    HW222103   3.052   3.936   4.457
 6736SOL     OW22104  12.944   6.486   1.430
 6736SOL    HW122105  12.946   6.561   1.370
 6736SOL    HW222106  12.870   6.503   1.488
 6737SOL     OW22107   5.056  11.363   9.738
 6737SOL    HW122108   5.076  11.368   9.832
 6737SOL    HW222109   5.030  11.453   9.715
 6738SOL     OW22110   0.255  11.949  13.169
 6738SOL    HW122111   0.205  11.868  13.179
 6738SOL    HW222112   0.289  11.966  13.257
 6739SOL     OW22113  12.765   0.104   7.868
 6739SOL    HW122114  12.691   0.044   7.871
 6739SOL    HW222115  12.792   0.105   7.777
 6740SOL     OW22116   8.648  13.061   2.686
 6740SOL    HW122117   8.683  12.972   2.694
 6740SOL    HW222118   8.588  13.057   2.611
 6741SOL     OW22119   3.853   1.367   2.401
 6741SOL    HW122120   3.790   1.369   2.473
 6741SOL    HW222121   3.804   1.332   2.327
 6742SOL     OW22122   9.566   6.260   8.890
 6742SOL    HW122123   9.556   6.240   8.797
 6742SOL    HW222124   9.614   6.186   8.926
 6743SOL     OW22125   3.492   8.733   7.874
 6743SOL    HW122126   3.562   8.745   7.937
 6743SOL    HW222127   3.498   8.641   7.849
 6744SOL     OW22128   4.015   1.759  13.353
 6744SOL    HW122129   4.013   1.849  13.387
 6744SOL    HW222130   4.105   1.746  13.326
 6745SOL     OW22131  10.130   9.943   0.839
 6745SOL    HW122132  10.034   9.949   0.839
 6745SOL    HW222133  10.160  10.033   0.833
 6746SOL     OW22134   1.255   6.772  13.178
 6746SOL    HW122135   1.276   6.865  13.191
 6746SOL    HW222136   1.336   6.735  13.143
 6747SOL     OW22137  12.695   9.216   6.255
 6747SOL    HW122138  12.619   9.248   6.206
 6747SOL    HW222139  12.676   9.239   6.346
 6748SOL     OW22140   1.911   7.432  10.257
 6748SOL    HW122141   1.938   7.508  10.206
 6748SOL    HW222142   1.951   7.445  10.343
 6749SOL     OW22143   2.061   4.372   0.217
 6749SOL    HW122144   2.001   4.445   0.234
 6749SOL    HW222145   2.035   4.338   0.132
 6750SOL     OW22146   8.904  14.669   9.698
 6750SOL    HW122147   8.997  14.685   9.685
 6750SOL    HW222148   8.860  14.717   9.628
 6751SOL     OW22149  14.591   4.192   9.317
 6751SOL    HW122150  14.682   4.178   9.344
 6751SOL    HW222151  14.587   4.158   9.228
 6752SOL     OW22152  12.606   5.095   8.897
 6752SOL    HW122153  12.699   5.096   8.921
 6752SOL    HW222154  12.566   5.162   8.951
 6753SOL     OW22155   2.724   8.629   1.313
 6753SOL    HW122156   2.751   8.675   1.233
 6753SOL    HW222157   2.760   8.681   1.384
 6754SOL     OW22158   6.361   5.573   3.587
 6754SOL    HW122159   6.405   5.658   3.600
 6754SOL    HW222160   6.315   5.557   3.669
 6755SOL     OW22161   5.773   0.653   6.120
 6755SOL    HW122162   5.856   0.607   6.123
 6755SOL    HW222163   5.738   0.634   6.033
 6756SOL     OW22164   0.711   4.516   1.073
 6756SOL    HW122165   0.672   4.475   1.151
 6756SOL    HW222166   0.694   4.454   1.002
 6757SOL     OW22167   8.372   0.329   8.790
 6757SOL    HW122168   8.460   0.316   8.754
 6757SOL    HW222169   8.324   0.250   8.766
 6758SOL     OW22170   7.026  14.497   5.725
 6758SOL    HW122171   7.026  14.409   5.687
 6758SOL    HW222172   7.105  14.538   5.689
 6759SOL     OW22173  11.500  12.557   2.241
 6759SOL    HW122174  11.480  12.535   2.332
 6759SOL    HW222175  11.430  12.616   2.215
 6760SOL     OW22176   7.314   7.033   9.804
 6760SOL    HW122177   7.258   6.970   9.759
 6760SOL    HW222178   7.376   7.062   9.737
 6761SOL     OW22179   3.820  14.843   8.334
 6761SOL    HW122180   3.745  14.853   8.275
 6761SOL    HW222181   3.888  14.805   8.279
 6762SOL     OW22182   3.407  11.486  13.417
 6762SOL    HW122183   3.474  11.528  13.471
 6762SOL    HW222184   3.419  11.525  13.330
 6763SOL     OW22185   2.031   2.818   1.464
 6763SOL    HW122186   2.114   2.776   1.485
 6763SOL    HW222187   1.967   2.770   1.517
 6764SOL     OW22188   3.391  13.977   8.339
 6764SOL    HW122189   3.400  14.021   8.254
 6764SOL    HW222190   3.318  13.916   8.326
 6765SOL     OW22191  11.886   6.239   7.977
 6765SOL    HW122192  11.810   6.199   7.934
 6765SOL    HW222193  11.916   6.173   8.039
 6766SOL     OW22194  14.851  11.854  12.919
 6766SOL    HW122195  14.769  11.880  12.962
 6766SOL    HW222196   0.042  11.927  12.935
 6767SOL     OW22197   6.198  12.163   2.694
 6767SOL    HW122198   6.109  12.162   2.730
 6767SOL    HW222199   6.231  12.075   2.711
 6768SOL     OW22200   4.391  14.622  10.016
 6768SOL    HW122201   4.421  14.586  10.099
 6768SOL    HW222202   4.338  14.698  10.040
 6769SOL     OW22203  14.577  12.336  14.116
 6769SOL    HW122204  14.513  12.406  14.104
 6769SOL    HW222205  14.526  12.256  14.111
 6770SOL     OW22206   5.018   6.629  12.271
 6770SOL    HW122207   4.993   6.721  12.268
 6770SOL    HW222208   5.060   6.617  12.356
 6771SOL     OW22209   0.224  12.992  11.339
 6771SOL    HW122210   0.162  12.927  11.305
 6771SOL    HW222211   0.223  12.978  11.434
 6772SOL     OW22212   4.802   5.729  13.516
 6772SOL    HW122213   4.896   5.748  13.520
 6772SOL    HW222214   4.766   5.767  13.596
 6773SOL     OW22215   2.962  14.184   5.037
 6773SOL    HW122216   3.017  14.203   4.962
 6773SOL    HW222217   2.894  14.252   5.036
 6774SOL     OW22218   6.699   0.035  14.218
 6774SOL    HW122219   6.650   0.012  14.297
 6774SOL    HW222220   6.698  14.823  14.166
 6775SOL     OW22221  11.926   6.344   8.933
 6775SOL    HW122222  11.999   6.360   8.993
 6775SOL    HW222223  11.917   6.248   8.933
 6776SOL     OW22224  12.935   5.510   7.279
 6776SOL    HW122225  12.937   5.433   7.334
 6776SOL    HW222226  12.974   5.579   7.332
 6777SOL     OW22227   9.667   8.857  12.899
 6777SOL    HW122228   9.577   8.841  12.870
 6777SOL    HW222229   9.719   8.852  12.819
 6778SOL     OW22230   4.622   8.977   8.873
 6778SOL    HW122231   4.548   8.919   8.856
 6778SOL    HW222232   4.639   9.021   8.790
 6779SOL     OW22233  14.306  12.494  10.051
 6779SOL    HW122234  14.333  12.430  10.116
 6779SOL    HW222235  14.243  12.550  10.097
 6780SOL     OW22236  11.759  14.706   9.090
 6780SOL    HW122237  11.820  14.706   9.164
 6780SOL    HW222238  11.725  14.617   9.088
 6781SOL     OW22239  11.821   1.322   0.713
 6781SOL    HW122240  11.879   1.394   0.688
 6781SOL    HW222241  11.766   1.308   0.636
 6782SOL     OW22242   1.388  14.580   2.277
 6782SOL    HW122243   1.293  14.568   2.285
 6782SOL    HW222244   1.418  14.506   2.224
 6783SOL     OW22245  10.110  10.301   0.391
 6783SOL    HW122246  10.096  10.212   0.424
 6783SOL    HW222247  10.044  10.353   0.435
 6784SOL     OW22248   1.632   8.739   2.783
 6784SOL    HW122249   1.589   8.751   2.868
 6784SOL    HW222250   1.609   8.650   2.757
 6785SOL     OW22251   8.458   6.130   3.222
 6785SOL    HW122252   8.539   6.161   3.262
 6785SOL    HW222253   8.462   6.035   3.230
 6786SOL     OW22254   0.249  11.713  13.733
 6786SOL    HW122255   0.271  11.639  13.790
 6786SOL    HW222256   0.326  11.724  13.677
 6787SOL     OW22257   9.418  14.018   5.848
 6787SOL    HW122258   9.356  13.951   5.876
 6787SOL    HW222259   9.501  13.992   5.889
 6788SOL     OW22260   1.645   7.712   8.594
 6788SOL    HW122261   1.576   7.653   8.623
 6788SOL    HW222262   1.706   7.714   8.668
 6789SOL     OW22263  14.543   2.586   7.068
 6789SOL    HW122264  14.581   2.649   7.130
 6789SOL    HW222265  14.592   2.599   6.987
 6790SOL     OW22266  12.639   1.704  13.884
 6790SOL    HW122267  12.579   1.779  13.879
 6790SOL    HW222268  12.635   1.665  13.797
 6791SOL     OW22269   8.289   0.303   0.932
 6791SOL    HW122270   8.262   0.284   1.022
 6791SOL    HW222271   8.351   0.375   0.941
 6792SOL     OW22272  13.471  12.126   9.588
 6792SOL    HW122273  13.474  12.167   9.501
 6792SOL    HW222274  13.563  12.119   9.613
 6793SOL     OW22275  14.182   3.156  12.819
 6793SOL    HW122276  14.192   3.176  12.726
 6793SOL    HW222277  14.150   3.065  12.821
 6794SOL     OW22278  14.248   3.011  14.397
 6794SOL    HW122279  14.252   3.052  14.483
 6794SOL    HW222280  14.159   2.977  14.391
 6795SOL     OW22281   8.368  14.543  13.396
 6795SOL    HW122282   8.365  14.534  13.491
 6795SOL    HW222283   8.383  14.636  13.380
 6796SOL     OW22284   9.758  10.524   5.709
 6796SOL    HW122285   9.793  10.608   5.679
 6796SOL    HW222286   9.664  10.531   5.699
 6797SOL     OW22287   8.520   2.603  10.702
 6797SOL    HW122288   8.524   2.644  10.788
 6797SOL    HW222289   8.438   2.635  10.664
 6798SOL     OW22290   2.368   5.302   5.237
 6798SOL    HW122291   2.448   5.350   5.256
 6798SOL    HW222292   2.392   5.210   5.245
 6799SOL     OW22293   5.187   0.541  13.006
 6799SOL    HW122294   5.179   0.563  13.098
 6799SOL    HW222295   5.098   0.521  12.978
 6800SOL     OW22296  13.449   9.568  14.331
 6800SOL    HW122297  13.480   9.571  14.422
 6800SOL    HW222298  13.464   9.656  14.298
 6801SOL     OW22299   8.080   1.100   4.646
 6801SOL    HW122300   8.000   1.085   4.697
 6801SOL    HW222301   8.120   1.177   4.685
 6802SOL     OW22302   2.532   7.425   3.676
 6802SOL    HW122303   2.585   7.456   3.749
 6802SOL    HW222304   2.458   7.485   3.672
 6803SOL     OW22305   3.649   7.725   1.473
 6803SOL    HW122306   3.639   7.684   1.559
 6803SOL    HW222307   3.743   7.734   1.462
 6804SOL     OW22308   9.721   9.184   2.187
 6804SOL    HW122309   9.672   9.256   2.227
 6804SOL    HW222310   9.653   9.120   2.163
 6805SOL     OW22311   3.875   9.366   0.934
 6805SOL    HW122312   3.820   9.371   0.856
 6805SOL    HW222313   3.961   9.339   0.900
 6806SOL     OW22314  10.840   0.638   6.368
 6806SOL    HW122315  10.814   0.693   6.294
 6806SOL    HW222316  10.773   0.656   6.435
 6807SOL     OW22317   6.836  13.209  13.384
 6807SOL    HW122318   6.914  13.229  13.332
 6807SOL    HW222319   6.869  13.162  13.460
 6808SOL     OW22320  12.170   6.801   0.023
 6808SOL    HW122321  12.259   6.837   0.028
 6808SOL    HW222322  12.180   6.718  14.844
 6809SOL     OW22323   6.676  12.126  11.115
 6809SOL    HW122324   6.729  12.104  11.192
 6809SOL    HW222325   6.728  12.192  11.068
 6810SOL     OW22326   8.421   3.830   1.763
 6810SOL    HW122327   8.345   3.888   1.765
 6810SOL    HW222328   8.416   3.787   1.678
 6811SOL     OW22329   9.130   3.584  12.188
 6811SOL    HW122330   9.143   3.533  12.108
 6811SOL    HW222331   9.035   3.600  12.190
 6812SOL     OW22332  14.534   9.695   3.593
 6812SOL    HW122333  14.576   9.704   3.508
 6812SOL    HW222334  14.564   9.771   3.643
 6813SOL     OW22335  12.366   1.277  11.674
 6813SOL    HW122336  12.315   1.354  11.700
 6813SOL    HW222337  12.438   1.274  11.737
 6814SOL     OW22338   6.751   4.796   4.726
 6814SOL    HW122339   6.773   4.872   4.780
 6814SOL    HW222340   6.793   4.722   4.771
 6815SOL     OW22341   7.882   5.561   1.232
 6815SOL    HW122342   7.948   5.630   1.232
 6815SOL    HW222343   7.830   5.578   1.153
 6816SOL     OW22344   8.481  11.033  12.122
 6816SOL    HW122345   8.429  10.969  12.172
 6816SOL    HW222346   8.483  10.998  12.033
 6817SOL     OW22347   8.754   1.444   2.366
 6817SOL    HW122348   8.781   1.360   2.331
 6817SOL    HW222349   8.811   1.508   2.324
 6818SOL     OW22350   9.318  11.575   3.640
 6818SOL    HW122351   9.400  11.528   3.626
 6818SOL    HW222352   9.251  11.521   3.600
 6819SOL     OW22353  11.672   1.370   4.041
 6819SOL    HW122354  11.703   1.281   4.022
 6819SOL    HW222355  11.746   1.426   4.018
 6820SOL     OW22356   8.410   0.325   3.397
 6820SOL    HW122357   8.378   0.303   3.309
 6820SOL    HW222358   8.333   0.355   3.444
 6821SOL     OW22359   4.270  11.982   7.799
 6821SOL    HW122360   4.248  11.920   7.730
 6821SOL    HW222361   4.280  11.929   7.878
 6822SOL     OW22362   7.235   0.124   0.031
 6822SOL    HW122363   7.302   0.071   0.074
 6822SOL    HW222364   7.214   0.192   0.094
 6823SOL     OW22365   6.157   4.959   9.560
 6823SOL    HW122366   6.202   4.875   9.551
 6823SOL    HW222367   6.227   5.024   9.552
 6824SOL     OW22368  13.295   1.675   1.175
 6824SOL    HW122369  13.383   1.712   1.173
 6824SOL    HW222370  13.304   1.595   1.226
 6825SOL     OW22371   6.124   0.655   8.268
 6825SOL    HW122372   6.042   0.649   8.219
 6825SOL    HW222373   6.187   0.689   8.205
 6826SOL     OW22374  10.797   3.597   4.575
 6826SOL    HW122375  10.721   3.540   4.568
 6826SOL    HW222376  10.860   3.561   4.512
 6827SOL     OW22377   1.543   0.627  13.968
 6827SOL    HW122378   1.455   0.589  13.962
 6827SOL    HW222379   1.529   0.713  14.008
 6828SOL     OW22380   5.855   4.112   7.362
 6828SOL    HW122381   5.802   4.174   7.311
 6828SOL    HW222382   5.870   4.038   7.302
 6829SOL     OW22383   4.696   1.152   4.676
 6829SOL    HW122384   4.715   1.090   4.746
 6829SOL    HW222385   4.732   1.235   4.707
 6830SOL     OW22386  10.249  11.118  11.859
 6830SOL    HW122387  10.339  11.086  11.867
 6830SOL    HW222388  10.258  11.205  11.821
 6831SOL     OW22389  13.624   1.949  12.821
 6831SOL    HW122390  13.663   2.037  12.824
 6831SOL    HW222391  13.621   1.921  12.913
 6832SOL     OW22392  14.049  14.056   1.555
 6832SOL    HW122393  13.965  14.072   1.512
 6832SOL    HW222394  14.110  14.116   1.513
 6833SOL     OW22395  11.452  13.186   8.397
 6833SOL    HW122396  11.535  13.186   8.444
 6833SOL    HW222397  11.386  13.208   8.463
 6834SOL     OW22398   5.189   5.182  13.841
 6834SOL    HW122399   5.123   5.130  13.795
 6834SOL    HW222400   5.139   5.232  13.905
 6835SOL     OW22401   2.312  13.621  14.538
 6835SOL    HW122402   2.332  13.615  14.445
 6835SOL    HW222403   2.216  13.612  14.543
 6836SOL     OW22404   4.128  12.562  11.475
 6836SOL    HW122405   4.168  12.626  11.534
 6836SOL    HW222406   4.201  12.510  11.442
 6837SOL     OW22407   8.618   5.010  14.696
 6837SOL    HW122408   8.546   4.994  14.758
 6837SOL    HW222409   8.688   5.047  14.750
 6838SOL     OW22410   0.830   5.349   2.742
 6838SOL    HW122411   0.890   5.277   2.722
 6838SOL    HW222412   0.804   5.382   2.656
 6839SOL     OW22413  13.720  13.692   1.255
 6839SOL    HW122414  13.659  13.696   1.181
 6839SOL    HW222415  13.793  13.640   1.223
 6840SOL     OW22416   0.853   5.036  10.034
 6840SOL    HW122417   0.902   5.087  10.098
 6840SOL    HW222418   0.914   5.022   9.962
 6841SOL     OW22419  13.301  13.954   4.648
 6841SOL    HW122420  13.388  13.993   4.635
 6841SOL    HW222421  13.256  14.017   4.704
 6842SOL     OW22422  11.173   5.998   0.207
 6842SOL    HW122423  11.165   6.024   0.115
 6842SOL    HW222424  11.134   5.911   0.211
 6843SOL     OW22425   1.773   4.182  13.801
 6843SOL    HW122426   1.797   4.149  13.714
 6843SOL    HW222427   1.727   4.109  13.843
 6844SOL     OW22428   4.832  11.722   5.679
 6844SOL    HW122429   4.828  11.816   5.697
 6844SOL    HW222430   4.780  11.710   5.600
 6845SOL     OW22431  13.174   5.075   3.408
 6845SOL    HW122432  13.214   5.068   3.321
 6845SOL    HW222433  13.087   5.037   3.398
 6846SOL     OW22434  10.840  14.602   7.776
 6846SOL    HW122435  10.773  14.627   7.840
 6846SOL    HW222436  10.819  14.653   7.698
 6847SOL     OW22437   8.373   1.299   0.873
 6847SOL    HW122438   8.435   1.227   0.887
 6847SOL    HW222439   8.428   1.372   0.843
 6848SOL     OW22440   6.401  14.268   6.911
 6848SOL    HW122441   6.476  14.223   6.872
 6848SOL    HW222442   6.437  14.310   6.989
 6849SOL     OW22443   8.525   0.089   2.426
 6849SOL    HW122444   8.557   0.007   2.464
 6849SOL    HW222445   8.599   0.121   2.374
 6850SOL     OW22446   6.902   7.278   4.016
 6850SOL    HW122447   6.885   7.194   3.973
 6850SOL    HW222448   6.855   7.272   4.099
 6851SOL     OW22449   7.221   3.396   5.587
 6851SOL    HW122450   7.170   3.428   5.512
 6851SOL    HW222451   7.280   3.468   5.609
 6852SOL     OW22452  11.958   9.289  11.661
 6852SOL    HW122453  11.883   9.335  11.697
 6852SOL    HW222454  11.988   9.232  11.732
 6853SOL     OW22455   7.009  10.746   3.520
 6853SOL    HW122456   7.006  10.706   3.433
 6853SOL    HW222457   6.917  10.762   3.543
 6854SOL     OW22458   8.590   3.513  13.922
 6854SOL    HW122459   8.608   3.605  13.941
 6854SOL    HW222460   8.675   3.477  13.894
 6855SOL     OW22461  13.593   6.302   9.281
 6855SOL    HW122462  13.539   6.380   9.294
 6855SOL    HW222463  13.535   6.241   9.236
 6856SOL     OW22464  14.385   1.659   3.186
 6856SOL    HW122465  14.407   1.586   3.245
 6856SOL    HW222466  14.315   1.705   3.232
 6857SOL     OW22467  10.448   8.420   8.250
 6857SOL    HW122468  10.456   8.331   8.284
 6857SOL    HW222469  10.502   8.420   8.171
 6858SOL     OW22470  14.790   3.962   0.287
 6858SOL    HW122471  14.801   4.045   0.240
 6858SOL    HW222472  14.721   3.981   0.351
 6859SOL     OW22473   8.937  10.805  12.290
 6859SOL    HW122474   8.864  10.805  12.229
 6859SOL    HW222475   9.000  10.866  12.252
 6860SOL     OW22476   8.732   0.029  12.796
 6860SOL    HW122477   8.745  14.862  12.708
 6860SOL    HW222478   8.727   0.124  12.784
 6861SOL     OW22479  12.290  13.851   8.255
 6861SOL    HW122480  12.383  13.871   8.245
 6861SOL    HW222481  12.283  13.809   8.341
 6862SOL     OW22482  13.004   1.327   5.482
 6862SOL    HW122483  12.917   1.366   5.496
 6862SOL    HW222484  13.037   1.372   5.404
 6863SOL     OW22485  12.859   0.181  13.269
 6863SOL    HW122486  12.860   0.086  13.262
 6863SOL    HW222487  12.948   0.204  13.297
 6864SOL     OW22488   8.383  12.625   6.499
 6864SOL    HW122489   8.445  12.591   6.564
 6864SOL    HW222490   8.426  12.610   6.415
 6865SOL     OW22491   1.295   9.543   3.331
 6865SOL    HW122492   1.238   9.619   3.341
 6865SOL    HW222493   1.384   9.579   3.335
 6866SOL     OW22494   9.015   3.568  13.299
 6866SOL    HW122495   8.980   3.546  13.386
 6866SOL    HW222496   9.100   3.607  13.316
 6867SOL     OW22497   8.112   2.760  14.036
 6867SOL    HW122498   8.139   2.669  14.042
 6867SOL    HW222499   8.107   2.790  14.126
 6868SOL     OW22500   1.848  10.312   1.101
 6868SOL    HW122501   1.844  10.335   1.008
 6868SOL    HW222502   1.768  10.261   1.117
 6869SOL     OW22503   3.227   4.591  14.782
 6869SOL    HW122504   3.217   4.535  14.705
 6869SOL    HW222505   3.276   4.537  14.844
 6870SOL     OW22506  11.124   6.063   3.234
 6870SOL    HW122507  11.181   6.070   3.158
 6870SOL    HW222508  11.151   5.982   3.278
 6871SOL     OW22509   1.136   4.583   7.284
 6871SOL    HW122510   1.210   4.601   7.225
 6871SOL    HW222511   1.074   4.654   7.266
 6872SOL     OW22512   0.343   7.016   8.131
 6872SOL    HW122513   0.336   7.058   8.046
 6872SOL    HW222514   0.361   6.924   8.112
 6873SOL     OW22515  10.693  12.114   1.582
 6873SOL    HW122516  10.789  12.106   1.575
 6873SOL    HW222517  10.668  12.166   1.506
 6874SOL     OW22518   6.822   7.289   6.659
 6874SOL    HW122519   6.827   7.232   6.736
 6874SOL    HW222520   6.893   7.259   6.603
 6875SOL     OW22521   9.057   8.352  13.870
 6875SOL    HW122522   9.051   8.348  13.965
 6875SOL    HW222523   8.968   8.375  13.842
 6876SOL     OW22524   3.194   6.743   0.433
 6876SOL    HW122525   3.234   6.665   0.471
 6876SOL    HW222526   3.151   6.786   0.507
 6877SOL     OW22527   2.470   8.516   2.323
 6877SOL    HW122528   2.435   8.438   2.282
 6877SOL    HW222529   2.501   8.570   2.251
 6878SOL     OW22530   0.404   7.906   9.297
 6878SOL    HW122531   0.353   7.846   9.351
 6878SOL    HW222532   0.387   7.993   9.334
 6879SOL     OW22533  13.624  14.544   4.043
 6879SOL    HW122534  13.715  14.513   4.042
 6879SOL    HW222535  13.620  14.608   3.972
 6880SOL     OW22536   2.638  12.933   5.175
 6880SOL    HW122537   2.551  12.896   5.185
 6880SOL    HW222538   2.656  12.927   5.081
 6881SOL     OW22539   0.780   6.633   2.553
 6881SOL    HW122540   0.844   6.581   2.504
 6881SOL    HW222541   0.705   6.640   2.494
 6882SOL     OW22542   4.247  11.023   8.067
 6882SOL    HW122543   4.156  10.996   8.082
 6882SOL    HW222544   4.290  10.944   8.034
 6883SOL     OW22545   6.027  12.041   1.071
 6883SOL    HW122546   5.942  12.010   1.105
 6883SOL    HW222547   6.039  11.992   0.990
 6884SOL     OW22548   0.955   8.627   7.948
 6884SOL    HW122549   0.862   8.610   7.959
 6884SOL    HW222550   0.993   8.614   8.035
 6885SOL     OW22551   1.742  11.508   5.487
 6885SOL    HW122552   1.650  11.535   5.478
 6885SOL    HW222553   1.747  11.471   5.575
 6886SOL     OW22554  12.758  12.063  11.236
 6886SOL    HW122555  12.678  12.116  11.242
 6886SOL    HW222556  12.829  12.124  11.257
 6887SOL     OW22557   4.043   1.043  10.132
 6887SOL    HW122558   4.118   0.997  10.094
 6887SOL    HW222559   3.968   0.987  10.113
 6888SOL     OW22560   6.824  12.446   0.928
 6888SOL    HW122561   6.866  12.494   0.856
 6888SOL    HW222562   6.771  12.513   0.973
 6889SOL     OW22563   5.512  10.255   6.570
 6889SOL    HW122564   5.480  10.257   6.660
 6889SOL    HW222565   5.512  10.162   6.547
 6890SOL     OW22566   1.947   6.587   8.825
 6890SOL    HW122567   1.976   6.536   8.900
 6890SOL    HW222568   1.999   6.667   8.829
 6891SOL     OW22569   2.290   6.628  13.368
 6891SOL    HW122570   2.247   6.549  13.399
 6891SOL    HW222571   2.339   6.600  13.290
 6892SOL     OW22572   9.182   4.388   7.820
 6892SOL    HW122573   9.101   4.382   7.871
 6892SOL    HW222574   9.176   4.472   7.775
 6893SOL     OW22575  13.963   2.876   4.997
 6893SOL    HW122576  13.978   2.927   4.916
 6893SOL    HW222577  14.015   2.921   5.063
 6894SOL     OW22578  12.995  14.519   8.480
 6894SOL    HW122579  12.977  14.607   8.513
 6894SOL    HW222580  12.911  14.489   8.446
 6895SOL     OW22581   1.789  14.385   0.748
 6895SOL    HW122582   1.855  14.419   0.688
 6895SOL    HW222583   1.815  14.294   0.765
 6896SOL     OW22584   0.054   3.777   2.294
 6896SOL    HW122585   0.141   3.771   2.255
 6896SOL    HW222586   0.011   3.848   2.246
 6897SOL     OW22587   5.182   8.650   5.943
 6897SOL    HW122588   5.171   8.745   5.948
 6897SOL    HW222589   5.177   8.630   5.849
 6898SOL     OW22590   1.046   5.360   8.786
 6898SOL    HW122591   0.962   5.392   8.819
 6898SOL    HW222592   1.088   5.437   8.747
 6899SOL     OW22593   6.736   2.375   6.443
 6899SOL    HW122594   6.668   2.372   6.510
 6899SOL    HW222595   6.725   2.295   6.393
 6900SOL     OW22596   8.188  14.156   9.828
 6900SOL    HW122597   8.097  14.157   9.858
 6900SOL    HW222598   8.222  14.072   9.856
 6901SOL     OW22599   9.247   5.467  11.444
 6901SOL    HW122600   9.227   5.489  11.354
 6901SOL    HW222601   9.165   5.433  11.479
 6902SOL     OW22602  14.761  12.768  12.196
 6902SOL    HW122603  14.748  12.694  12.256
 6902SOL    HW222604  14.726  12.737  12.113
 6903SOL     OW22605   8.160   1.460   5.212
 6903SOL    HW122606   8.133   1.438   5.302
 6903SOL    HW222607   8.245   1.502   5.223
 6904SOL     OW22608  10.573  11.950   5.790
 6904SOL    HW122609  10.660  11.949   5.831
 6904SOL    HW222610  10.515  11.915   5.857
 6905SOL     OW22611  12.234   3.937   0.248
 6905SOL    HW122612  12.328   3.923   0.234
 6905SOL    HW222613  12.212   3.877   0.319
 6906SOL     OW22614   9.025   6.536  12.365
 6906SOL    HW122615   9.073   6.498  12.438
 6906SOL    HW222616   9.036   6.631  12.375
 6907SOL     OW22617  13.374   5.481   3.978
 6907SOL    HW122618  13.365   5.449   3.888
 6907SOL    HW222619  13.304   5.437   4.026
 6908SOL     OW22620   0.024   7.518  13.605
 6908SOL    HW122621   0.096   7.546  13.661
 6908SOL    HW222622   0.041   7.426  13.588
 6909SOL     OW22623  14.189   0.123  14.247
 6909SOL    HW122624  14.234   0.200  14.281
 6909SOL    HW222625  14.100   0.154  14.227
 6910SOL     OW22626  14.013  11.430   6.072
 6910SOL    HW122627  14.038  11.488   6.001
 6910SOL    HW222628  13.939  11.380   6.038
 6911SOL     OW22629   3.611   5.665   2.376
 6911SOL    HW122630   3.550   5.598   2.405
 6911SOL    HW222631   3.590   5.742   2.429
 6912SOL     OW22632   7.669  10.705   6.628
 6912SOL    HW122633   7.697  10.676   6.541
 6912SOL    HW222634   7.593  10.760   6.612
 6913SOL     OW22635   9.706  11.244   0.725
 6913SOL    HW122636   9.628  11.242   0.781
 6913SOL    HW222637   9.672  11.251   0.636
 6914SOL     OW22638   4.062   7.796  14.092
 6914SOL    HW122639   4.009   7.810  14.170
 6914SOL    HW222640   4.125   7.729  14.116
 6915SOL     OW22641   0.300  10.334   1.874
 6915SOL    HW122642   0.394  10.340   1.856
 6915SOL    HW222643   0.260  10.321   1.788
 6916SOL     OW22644   7.549   4.962   5.458
 6916SOL    HW122645   7.594   4.877   5.456
 6916SOL    HW222646   7.619   5.025   5.476
 6917SOL     OW22647   5.318  10.457  10.807
 6917SOL    HW122648   5.279  10.539  10.836
 6917SOL    HW222649   5.370  10.481  10.730
 6918SOL     OW22650   1.006   4.699  12.169
 6918SOL    HW122651   0.938   4.668  12.228
 6918SOL    HW222652   0.963   4.709  12.084
 6919SOL     OW22653   5.188  11.364   9.011
 6919SOL    HW122654   5.190  11.291   8.949
 6919SOL    HW222655   5.126  11.426   8.973
 6920SOL     OW22656   0.385   4.983   8.526
 6920SOL    HW122657   0.460   4.924   8.535
 6920SOL    HW222658   0.415   5.066   8.563
 6921SOL     OW22659  11.288   6.777   6.805
 6921SOL    HW122660  11.346   6.703   6.822
 6921SOL    HW222661  11.322   6.817   6.725
 6922SOL     OW22662   1.801  11.671   2.283
 6922SOL    HW122663   1.893  11.685   2.305
 6922SOL    HW222664   1.753  11.717   2.353
 6923SOL     OW22665   6.665   4.214   2.930
 6923SOL    HW122666   6.706   4.134   2.897
 6923SOL    HW222667   6.584   4.221   2.880
 6924SOL     OW22668  11.683  12.230   6.032
 6924SOL    HW122669  11.759  12.249   6.086
 6924SOL    HW222670  11.632  12.167   6.083
 6925SOL     OW22671   9.603   4.710   6.058
 6925SOL    HW122672   9.620   4.689   5.966
 6925SOL    HW222673   9.513   4.743   6.059
 6926SOL     OW22674  13.942   2.510   2.336
 6926SOL    HW122675  13.975   2.494   2.425
 6926SOL    HW222676  13.895   2.593   2.343
 6927SOL     OW22677  11.830  12.873   1.914
 6927SOL    HW122678  11.766  12.929   1.957
 6927SOL    HW222679  11.820  12.788   1.956
 6928SOL     OW22680  12.972  14.650   1.489
 6928SOL    HW122681  12.887  14.669   1.449
 6928SOL    HW222682  13.033  14.710   1.446
 6929SOL     OW22683  10.708   5.403   3.543
 6929SOL    HW122684  10.629   5.457   3.537
 6929SOL    HW222685  10.679   5.317   3.511
 6930SOL     OW22686   6.923   2.869  14.290
 6930SOL    HW122687   6.910   2.907  14.203
 6930SOL    HW222688   6.843   2.890  14.338
 6931SOL     OW22689  14.783   5.776   6.205
 6931SOL    HW122690  14.688   5.781   6.200
 6931SOL    HW222691  14.809   5.717   6.134
 6932SOL     OW22692  12.830  11.269   9.655
 6932SOL    HW122693  12.758  11.213   9.626
 6932SOL    HW222694  12.801  11.305   9.739
 6933SOL     OW22695   3.255   0.112   1.610
 6933SOL    HW122696   3.315   0.115   1.536
 6933SOL    HW222697   3.307   0.146   1.684
 6934SOL     OW22698  11.168  10.220   2.743
 6934SOL    HW122699  11.184  10.165   2.666
 6934SOL    HW222700  11.093  10.274   2.718
 6935SOL     OW22701  11.274   1.438  12.766
 6935SOL    HW122702  11.291   1.526  12.732
 6935SOL    HW222703  11.224   1.453  12.846
 6936SOL     OW22704  11.674  14.118  13.155
 6936SOL    HW122705  11.646  14.134  13.064
 6936SOL    HW222706  11.757  14.165  13.163
 6937SOL     OW22707   1.280   7.020  10.756
 6937SOL    HW122708   1.324   7.014  10.672
 6937SOL    HW222709   1.224   7.098  10.749
 6938SOL     OW22710   1.035   5.951   7.980
 6938SOL    HW122711   1.074   6.022   8.032
 6938SOL    HW222712   0.961   5.993   7.935
 6939SOL     OW22713   2.042   5.134   8.137
 6939SOL    HW122714   2.014   5.196   8.204
 6939SOL    HW222715   2.132   5.111   8.161
 6940SOL     OW22716  13.389   1.068  12.489
 6940SOL    HW122717  13.307   1.059  12.441
 6940SOL    HW222718  13.453   1.093  12.423
 6941SOL     OW22719   2.937  10.991   4.920
 6941SOL    HW122720   3.031  10.992   4.901
 6941SOL    HW222721   2.931  11.018   5.011
 6942SOL     OW22722  11.878  12.192   8.409
 6942SOL    HW122723  11.831  12.240   8.341
 6942SOL    HW222724  11.923  12.260   8.460
 6943SOL     OW22725   4.308   4.333   2.954
 6943SOL    HW122726   4.392   4.292   2.971
 6943SOL    HW222727   4.253   4.262   2.919
 6944SOL     OW22728   1.991   1.658  14.545
 6944SOL    HW122729   1.996   1.625  14.635
 6944SOL    HW222730   2.074   1.703  14.531
 6945SOL     OW22731   8.889   0.590   1.549
 6945SOL    HW122732   8.850   0.562   1.632
 6945SOL    HW222733   8.886   0.511   1.494
 6946SOL     OW22734   4.042   4.018   2.027
 6946SOL    HW122735   4.100   3.949   2.060
 6946SOL    HW222736   4.099   4.093   2.012
 6947SOL     OW22737   4.959  14.171  10.288
 6947SOL    HW122738   5.053  14.167  10.269
 6947SOL    HW222739   4.922  14.212  10.209
 6948SOL     OW22740   7.616   4.100   0.729
 6948SOL    HW122741   7.609   4.047   0.650
 6948SOL    HW222742   7.554   4.171   0.716
 6949SOL     OW22743   8.389  11.378  10.108
 6949SOL    HW122744   8.376  11.468  10.077
 6949SOL    HW222745   8.315  11.363  10.167
 6950SOL     OW22746   6.713   8.685  13.126
 6950SOL    HW122747   6.647   8.616  13.136
 6950SOL    HW222748   6.753   8.693  13.212
 6951SOL     OW22749   9.757  13.923  12.085
 6951SOL    HW122750   9.667  13.932  12.115
 6951SOL    HW222751   9.797  13.863  12.147
 6952SOL     OW22752   7.985   0.945   2.818
 6952SOL    HW122753   7.972   1.035   2.787
 6952SOL    HW222754   7.897   0.916   2.843
 6953SOL     OW22755   4.447  13.819   4.350
 6953SOL    HW122756   4.504  13.896   4.340
 6953SOL    HW222757   4.507  13.750   4.379
 6954SOL     OW22758   9.395   0.376   6.879
 6954SOL    HW122759   9.468   0.321   6.909
 6954SOL    HW222760   9.433   0.432   6.812
 6955SOL     OW22761   5.786  11.661   6.675
 6955SOL    HW122762   5.713  11.716   6.646
 6955SOL    HW222763   5.777  11.581   6.623
 6956SOL     OW22764   9.541  14.334  10.726
 6956SOL    HW122765   9.544  14.408  10.787
 6956SOL    HW222766   9.626  14.291  10.737
 6957SOL     OW22767   3.057   5.254   6.046
 6957SOL    HW122768   3.117   5.212   6.108
 6957SOL    HW222769   3.077   5.347   6.052
 6958SOL     OW22770   5.159   5.495  13.557
 6958SOL    HW122771   5.116   5.506  13.641
 6958SOL    HW222772   5.248   5.526  13.571
 6959SOL     OW22773   1.319  11.229  11.136
 6959SOL    HW122774   1.338  11.316  11.101
 6959SOL    HW222775   1.296  11.245  11.227
 6960SOL     OW22776  13.610  13.039   1.227
 6960SOL    HW122777  13.677  12.998   1.172
 6960SOL    HW222778  13.645  13.126   1.246
 6961SOL     OW22779   9.537  11.284   7.982
 6961SOL    HW122780   9.595  11.310   7.910
 6961SOL    HW222781   9.586  11.218   8.031
 6962SOL     OW22782   8.061   3.577   5.581
 6962SOL    HW122783   8.036   3.652   5.527
 6962SOL    HW222784   8.153   3.594   5.604
 6963SOL     OW22785   9.628  11.253  13.546
 6963SOL    HW122786   9.682  11.188  13.592
 6963SOL    HW222787   9.665  11.256  13.457
 6964SOL     OW22788  10.080   0.826   0.171
 6964SOL    HW122789  10.053   0.859   0.085
 6964SOL    HW222790  10.030   0.879   0.233
 6965SOL     OW22791   7.191   6.661   7.777
 6965SOL    HW122792   7.157   6.750   7.791
 6965SOL    HW222793   7.114   6.605   7.784
 6966SOL     OW22794  10.908  13.467   1.108
 6966SOL    HW122795  10.871  13.553   1.084
 6966SOL    HW222796  10.866  13.405   1.049
 6967SOL     OW22797  13.550   3.271   7.307
 6967SOL    HW122798  13.546   3.249   7.214
 6967SOL    HW222799  13.526   3.363   7.311
 6968SOL     OW22800  12.568   6.293   3.424
 6968SOL    HW122801  12.634   6.230   3.455
 6968SOL    HW222802  12.491   6.239   3.406
 6969SOL     OW22803   6.681  13.145   5.839
 6969SOL    HW122804   6.658  13.134   5.931
 6969SOL    HW222805   6.702  13.057   5.808
 6970SOL     OW22806   8.745   8.669   1.709
 6970SOL    HW122807   8.707   8.754   1.685
 6970SOL    HW222808   8.774   8.631   1.626
 6971SOL     OW22809   3.748   8.727  10.061
 6971SOL    HW122810   3.690   8.755  10.131
 6971SOL    HW222811   3.825   8.784  10.069
 6972SOL     OW22812   1.524  14.349   2.201
 6972SOL    HW122813   1.600  14.395   2.235
 6972SOL    HW222814   1.491  14.299   2.276
 6973SOL     OW22815   3.724  10.033  12.784
 6973SOL    HW122816   3.800  10.001  12.834
 6973SOL    HW222817   3.658   9.965  12.795
 6974SOL     OW22818  10.777  10.077  10.919
 6974SOL    HW122819  10.858  10.028  10.927
 6974SOL    HW222820  10.797  10.145  10.855
 6975SOL     OW22821  13.228   1.424  11.454
 6975SOL    HW122822  13.283   1.388  11.384
 6975SOL    HW222823  13.279   1.408  11.534
 6976SOL     OW22824   3.275   2.748   2.809
 6976SOL    HW122825   3.254   2.836   2.779
 6976SOL    HW222826   3.225   2.689   2.752
 6977SOL     OW22827   7.316   9.988   4.154
 6977SOL    HW122828   7.348  10.036   4.078
 6977SOL    HW222829   7.222   9.975   4.137
 6978SOL     OW22830   5.807  12.547  13.180
 6978SOL    HW122831   5.754  12.521  13.255
 6978SOL    HW222832   5.752  12.609  13.133
 6979SOL     OW22833   0.406   1.396   0.411
 6979SOL    HW122834   0.378   1.455   0.342
 6979SOL    HW222835   0.484   1.353   0.377
 6980SOL     OW22836   2.751  11.083   2.936
 6980SOL    HW122837   2.701  11.047   2.864
 6980SOL    HW222838   2.802  11.154   2.897
 6981SOL     OW22839  11.166   1.682   6.038
 6981SOL    HW122840  11.110   1.759   6.027
 6981SOL    HW222841  11.235   1.711   6.096
 6982SOL     OW22842   0.918   4.359   9.263
 6982SOL    HW122843   0.973   4.436   9.250
 6982SOL    HW222844   0.976   4.285   9.246
 6983SOL     OW22845   1.849   9.878  10.622
 6983SOL    HW122846   1.829   9.810  10.558
 6983SOL    HW222847   1.811   9.958  10.584
 6984SOL     OW22848   7.425   9.477  12.984
 6984SOL    HW122849   7.366   9.534  13.034
 6984SOL    HW222850   7.506   9.526  12.977
 6985SOL     OW22851  10.350   2.890  12.414
 6985SOL    HW122852  10.371   2.946  12.488
 6985SOL    HW222853  10.316   2.809  12.453
 6986SOL     OW22854   5.973   8.572   7.081
 6986SOL    HW122855   5.916   8.636   7.038
 6986SOL    HW222856   5.939   8.487   7.053
 6987SOL     OW22857  12.466   5.094   0.704
 6987SOL    HW122858  12.532   5.138   0.758
 6987SOL    HW222859  12.503   5.095   0.616
 6988SOL     OW22860   0.474  13.467   7.715
 6988SOL    HW122861   0.385  13.431   7.707
 6988SOL    HW222862   0.480  13.533   7.646
 6989SOL     OW22863   8.213   6.860  14.383
 6989SOL    HW122864   8.166   6.897  14.309
 6989SOL    HW222865   8.177   6.772  14.393
 6990SOL     OW22866   8.623  12.899  10.809
 6990SOL    HW122867   8.547  12.848  10.835
 6990SOL    HW222868   8.674  12.909  10.889
 6991SOL     OW22869   8.535   4.201   4.780
 6991SOL    HW122870   8.621   4.159   4.790
 6991SOL    HW222871   8.491   4.186   4.863
 6992SOL     OW22872  11.969  11.648   5.909
 6992SOL    HW122873  11.934  11.598   5.835
 6992SOL    HW222874  12.042  11.596   5.940
 6993SOL     OW22875  14.716   0.611  11.490
 6993SOL    HW122876  14.631   0.568  11.502
 6993SOL    HW222877  14.702   0.701  11.518
 6994SOL     OW22878   8.125  10.836   9.634
 6994SOL    HW122879   8.054  10.897   9.610
 6994SOL    HW222880   8.174  10.883   9.701
 6995SOL     OW22881  14.390   7.538   9.344
 6995SOL    HW122882  14.345   7.561   9.263
 6995SOL    HW222883  14.483   7.535   9.320
 6996SOL     OW22884   9.426  13.098  14.612
 6996SOL    HW122885   9.432  13.159  14.538
 6996SOL    HW222886   9.477  13.022  14.585
 6997SOL     OW22887   0.405   2.408   6.235
 6997SOL    HW122888   0.334   2.345   6.223
 6997SOL    HW222889   0.463   2.367   6.299
 6998SOL     OW22890  14.515  13.845   9.667
 6998SOL    HW122891  14.517  13.927   9.618
 6998SOL    HW222892  14.459  13.863   9.743
 6999SOL     OW22893   5.963   2.017  14.532
 6999SOL    HW122894   5.968   1.975  14.447
 6999SOL    HW222895   5.870   2.037  14.544
 7000SOL     OW22896   5.440   1.855  10.827
 7000SOL    HW122897   5.395   1.929  10.785
 7000SOL    HW222898   5.457   1.886  10.916
 7001SOL     OW22899   0.992  10.334   4.498
 7001SOL    HW122900   1.083  10.329   4.527
 7001SOL    HW222901   0.991  10.407   4.436
 7002SOL     OW22902  13.514  14.088   8.514
 7002SOL    HW122903  13.489  14.139   8.437
 7002SOL    HW222904  13.589  14.135   8.550
 7003SOL     OW22905   8.529   5.061   6.512
 7003SOL    HW122906   8.615   5.093   6.483
 7003SOL    HW222907   8.470   5.080   6.439
 7004SOL     OW22908   8.531  14.702   3.589
 7004SOL    HW122909   8.565  14.791   3.603
 7004SOL    HW222910   8.580  14.669   3.515
 7005SOL     OW22911   6.725  12.745  11.094
 7005SOL    HW122912   6.684  12.756  11.008
 7005SOL    HW222913   6.690  12.816  11.147
 7006SOL     OW22914   5.359   2.001   9.806
 7006SOL    HW122915   5.408   2.083   9.801
 7006SOL    HW222916   5.414   1.936   9.763
 7007SOL     OW22917   4.516   5.062   3.666
 7007SOL    HW122918   4.590   5.003   3.653
 7007SOL    HW222919   4.556   5.147   3.683
 7008SOL     OW22920   0.917   6.800  13.561
 7008SOL    HW122921   0.928   6.707  13.582
 7008SOL    HW222922   0.825   6.808  13.536
 7009SOL     OW22923   0.787   0.540  14.489
 7009SOL    HW122924   0.724   0.532  14.561
 7009SOL    HW222925   0.856   0.477  14.511
 7010SOL     OW22926  10.811   9.288   4.644
 7010SOL    HW122927  10.787   9.215   4.700
 7010SOL    HW222928  10.901   9.270   4.617
 7011SOL     OW22929   9.355  10.648   1.607
 7011SOL    HW122930   9.306  10.629   1.687
 7011SOL    HW222931   9.442  10.611   1.624
 7012SOL     OW22932   4.970   0.933  10.910
 7012SOL    HW122933   5.063   0.954  10.917
 7012SOL    HW222934   4.938   0.935  11.000
 7013SOL     OW22935  12.647  10.811  13.382
 7013SOL    HW122936  12.688  10.793  13.297
 7013SOL    HW222937  12.710  10.776  13.446
 7014SOL     OW22938   0.927   9.301   2.910
 7014SOL    HW122939   0.864   9.303   2.982
 7014SOL    HW222940   0.942   9.208   2.894
 7015SOL     OW22941   9.922   1.196   8.018
 7015SOL    HW122942   9.978   1.136   8.067
 7015SOL    HW222943   9.858   1.227   8.082
 7016SOL     OW22944  10.575   0.846  13.440
 7016SOL    HW122945  10.628   0.768  13.422
 7016SOL    HW222946  10.623   0.894  13.506
 7017SOL     OW22947  12.878   6.978   1.155
 7017SOL    HW122948  12.802   6.922   1.137
 7017SOL    HW222949  12.953   6.928   1.124
 7018SOL     OW22950  12.736   6.661   3.648
 7018SOL    HW122951  12.740   6.733   3.710
 7018SOL    HW222952  12.789   6.592   3.688
 7019SOL     OW22953   9.174  13.130   8.960
 7019SOL    HW122954   9.258  13.145   9.004
 7019SOL    HW222955   9.148  13.216   8.928
 7020SOL     OW22956  10.504   5.961   5.702
 7020SOL    HW122957  10.525   5.914   5.621
 7020SOL    HW222958  10.581   6.015   5.719
 7021SOL     OW22959   6.184   4.846  14.796
 7021SOL    HW122960   6.267   4.893  14.802
 7021SOL    HW222961   6.124   4.896  14.851
 7022SOL     OW22962   8.494   9.349   4.467
 7022SOL    HW122963   8.517   9.424   4.413
 7022SOL    HW222964   8.406   9.325   4.439
 7023SOL     OW22965   6.442   1.472   4.007
 7023SOL    HW122966   6.433   1.556   4.053
 7023SOL    HW222967   6.516   1.485   3.948
 7024SOL     OW22968   1.127  13.098   1.109
 7024SOL    HW122969   1.100  13.146   1.031
 7024SOL    HW222970   1.222  13.089   1.100
 7025SOL     OW22971  11.208   0.040  11.909
 7025SOL    HW122972  11.194  14.816  11.884
 7025SOL    HW222973  11.217   0.037  12.004
 7026SOL     OW22974  11.481  13.756  14.841
 7026SOL    HW122975  11.459  13.731   0.063
 7026SOL    HW222976  11.555  13.816  14.851
 7027SOL     OW22977   0.107   5.805   9.887
 7027SOL    HW122978   0.042   5.816   9.818
 7027SOL    HW222979   0.180   5.860   9.860
 7028SOL     OW22980  10.457   5.841  10.636
 7028SOL    HW122981  10.454   5.937  10.635
 7028SOL    HW222982  10.445   5.819  10.729
 7029SOL     OW22983   4.627   4.670   2.405
 7029SOL    HW122984   4.670   4.602   2.353
 7029SOL    HW222985   4.551   4.696   2.352
 7030SOL     OW22986   6.867  13.239   1.509
 7030SOL    HW122987   6.844  13.316   1.561
 7030SOL    HW222988   6.962  13.243   1.500
 7031SOL     OW22989   9.108  13.042  14.618
 7031SOL    HW122990   9.031  13.087  14.582
 7031SOL    HW222991   9.176  13.053  14.551
 7032SOL     OW22992   8.384  13.580   0.486
 7032SOL    HW122993   8.419  13.622   0.408
 7032SOL    HW222994   8.394  13.486   0.469
 7033SOL     OW22995   0.574   0.592  11.737
 7033SOL    HW122996   0.514   0.564  11.806
 7033SOL    HW222997   0.643   0.526  11.737
 7034SOL     OW22998  13.972   5.019   3.874
 7034SOL    HW122999  14.005   5.088   3.931
 7034SOL    HW223000  14.012   5.036   3.789
 7035SOL     OW23001  12.756  14.721   6.701
 7035SOL    HW123002  12.694  14.648   6.705
 7035SOL    HW223003  12.702  14.797   6.679
 7036SOL     OW23004   7.838  12.780  13.718
 7036SOL    HW123005   7.932  12.783  13.733
 7036SOL    HW223006   7.829  12.763  13.624
 7037SOL     OW23007   1.248  11.846   4.975
 7037SOL    HW123008   1.250  11.904   4.900
 7037SOL    HW223009   1.239  11.758   4.938
 7038SOL     OW23010  10.855  11.971  11.727
 7038SOL    HW123011  10.922  11.917  11.685
 7038SOL    HW223012  10.783  11.974  11.663
 7039SOL     OW23013   2.147   4.730  13.549
 7039SOL    HW123014   2.155   4.666  13.478
 7039SOL    HW223015   2.093   4.799  13.513
 7040SOL     OW23016   7.630  12.530   4.585
 7040SOL    HW123017   7.572  12.570   4.649
 7040SOL    HW223018   7.700  12.594   4.572
 7041SOL     OW23019   9.451   0.566  14.675
 7041SOL    HW123020   9.460   0.620  14.596
 7041SOL    HW223021   9.508   0.607  14.739
 7042SOL     OW23022   2.635   0.425   3.207
 7042SOL    HW123023   2.695   0.499   3.196
 7042SOL    HW223024   2.680   0.367   3.269
 7043SOL     OW23025  14.156  13.706  11.515
 7043SOL    HW123026  14.176  13.769  11.445
 7043SOL    HW223027  14.098  13.642  11.474
 7044SOL     OW23028  12.912  14.004   4.516
 7044SOL    HW123029  12.899  13.953   4.595
 7044SOL    HW223030  12.939  13.939   4.450
 7045SOL     OW23031   4.243   8.653   8.605
 7045SOL    HW123032   4.183   8.680   8.674
 7045SOL    HW223033   4.219   8.562   8.587
 7046SOL     OW23034  14.107   1.989   3.101
 7046SOL    HW123035  14.023   2.024   3.133
 7046SOL    HW223036  14.091   1.896   3.089
 7047SOL     OW23037   3.875  10.011   5.551
 7047SOL    HW123038   3.966   9.986   5.570
 7047SOL    HW223039   3.865   9.993   5.457
 7048SOL     OW23040   9.898   0.974   1.622
 7048SOL    HW123041   9.894   0.995   1.529
 7048SOL    HW223042   9.887   0.879   1.626
 7049SOL     OW23043  10.992   4.318  10.194
 7049SOL    HW123044  10.974   4.302  10.101
 7049SOL    HW223045  10.959   4.241  10.239
 7050SOL     OW23046   5.763   6.679  10.828
 7050SOL    HW123047   5.697   6.615  10.855
 7050SOL    HW223048   5.811   6.635  10.758
 7051SOL     OW23049   5.081   4.593   9.448
 7051SOL    HW123050   5.154   4.641   9.410
 7051SOL    HW223051   5.117   4.551   9.525
 7052SOL     OW23052  11.512   5.465   7.022
 7052SOL    HW123053  11.604   5.443   7.003
 7052SOL    HW223054  11.514   5.500   7.111
 7053SOL     OW23055  13.152   7.096   9.800
 7053SOL    HW123056  13.058   7.100   9.782
 7053SOL    HW223057  13.160   7.122   9.892
 7054SOL     OW23058   6.260  13.981  10.681
 7054SOL    HW123059   6.167  13.993  10.701
 7054SOL    HW223060   6.266  13.995  10.586
 7055SOL     OW23061   9.618  11.022   8.125
 7055SOL    HW123062   9.556  10.985   8.188
 7055SOL    HW223063   9.619  10.960   8.053
 7056SOL     OW23064   2.900  10.105  13.126
 7056SOL    HW123065   2.841  10.063  13.189
 7056SOL    HW223066   2.892  10.198  13.144
 7057SOL     OW23067   5.270   3.257  10.795
 7057SOL    HW123068   5.322   3.287  10.870
 7057SOL    HW223069   5.268   3.332  10.736
 7058SOL     OW23070  12.698   5.610  10.833
 7058SOL    HW123071  12.715   5.697  10.798
 7058SOL    HW223072  12.732   5.550  10.767
 7059SOL     OW23073   9.203   5.704   5.429
 7059SOL    HW123074   9.113   5.683   5.454
 7059SOL    HW223075   9.225   5.783   5.480
 7060SOL     OW23076  14.599   1.179   5.696
 7060SOL    HW123077  14.626   1.163   5.605
 7060SOL    HW223078  14.595   1.275   5.703
 7061SOL     OW23079   7.024   2.260   2.568
 7061SOL    HW123080   7.110   2.262   2.609
 7061SOL    HW223081   7.007   2.351   2.543
 7062SOL     OW23082  11.591   1.533  13.867
 7062SOL    HW123083  11.543   1.616  13.863
 7062SOL    HW223084  11.601   1.506  13.776
 7063SOL     OW23085   0.459   9.012  10.777
 7063SOL    HW123086   0.513   9.007  10.698
 7063SOL    HW223087   0.383   8.957  10.757
 7064SOL     OW23088   3.958   5.831   5.490
 7064SOL    HW123089   4.023   5.779   5.442
 7064SOL    HW223090   3.956   5.915   5.445
 7065SOL     OW23091  10.050   0.547   0.200
 7065SOL    HW123092  10.107   0.623   0.185
 7065SOL    HW223093   9.975   0.562   0.143
 7066SOL     OW23094  14.718   8.498   0.104
 7066SOL    HW123095  14.803   8.504   0.148
 7066SOL    HW223096  14.701   8.586   0.072
 7067SOL     OW23097  10.755   2.906   5.784
 7067SOL    HW123098  10.831   2.946   5.741
 7067SOL    HW223099  10.782   2.816   5.802
 7068SOL     OW23100   1.902  12.862   9.930
 7068SOL    HW123101   1.853  12.942   9.947
 7068SOL    HW223102   1.988  12.892   9.901
 7069SOL     OW23103   9.311  13.208  13.123
 7069SOL    HW123104   9.222  13.204  13.158
 7069SOL    HW223105   9.366  13.171  13.193
 7070SOL     OW23106  11.409   0.053  12.693
 7070SOL    HW123107  11.390   0.143  12.667
 7070SOL    HW223108  11.498   0.057  12.730
 7071SOL     OW23109   5.452   6.893   2.263
 7071SOL    HW123110   5.489   6.869   2.177
 7071SOL    HW223111   5.522   6.941   2.306
 7072SOL     OW23112   6.685   5.338  10.180
 7072SOL    HW123113   6.737   5.385  10.115
 7072SOL    HW223114   6.744   5.270  10.213
 7073SOL     OW23115  14.230   0.091   1.016
 7073SOL    HW123116  14.228   0.010   1.066
 7073SOL    HW223117  14.199   0.158   1.077
 7074SOL     OW23118   1.703   4.876   6.595
 7074SOL    HW123119   1.628   4.819   6.611
 7074SOL    HW223120   1.733   4.851   6.507
 7075SOL     OW23121   1.736   5.267  13.842
 7075SOL    HW123122   1.712   5.186  13.797
 7075SOL    HW223123   1.797   5.239  13.911
 7076SOL     OW23124   3.268   3.141   7.517
 7076SOL    HW123125   3.335   3.076   7.496
 7076SOL    HW223126   3.248   3.127   7.609
 7077SOL     OW23127  10.169  12.679   7.100
 7077SOL    HW123128  10.188  12.709   7.189
 7077SOL    HW223129  10.253  12.649   7.066
 7078SOL     OW23130   2.832  12.269  10.303
 7078SOL    HW123131   2.818  12.261  10.397
 7078SOL    HW223132   2.833  12.364  10.288
 7079SOL     OW23133   2.049   8.018   9.199
 7079SOL    HW123134   2.029   7.943   9.143
 7079SOL    HW223135   2.056   8.092   9.138
 7080SOL     OW23136   0.868   4.295   3.334
 7080SOL    HW123137   0.827   4.329   3.254
 7080SOL    HW223138   0.882   4.372   3.389
 7081SOL     OW23139   6.409   5.507  12.606
 7081SOL    HW123140   6.316   5.496  12.586
 7081SOL    HW223141   6.450   5.430  12.568
 7082SOL     OW23142   9.402  10.700  12.920
 7082SOL    HW123143   9.447  10.616  12.923
 7082SOL    HW223144   9.354  10.698  12.837
 7083SOL     OW23145  12.914   9.164   1.548
 7083SOL    HW123146  12.877   9.078   1.525
 7083SOL    HW223147  12.863   9.226   1.495
 7084SOL     OW23148   7.714   4.292   9.647
 7084SOL    HW123149   7.669   4.254   9.723
 7084SOL    HW223150   7.662   4.265   9.572
 7085SOL     OW23151  13.844   5.978  12.529
 7085SOL    HW123152  13.859   5.934  12.446
 7085SOL    HW223153  13.789   5.917  12.579
 7086SOL     OW23154   5.890   8.407  13.321
 7086SOL    HW123155   5.912   8.418  13.414
 7086SOL    HW223156   5.872   8.314  13.311
 7087SOL     OW23157   0.515  12.613   9.658
 7087SOL    HW123158   0.486  12.557   9.586
 7087SOL    HW223159   0.580  12.562   9.704
 7088SOL     OW23160   8.752   0.193   5.336
 7088SOL    HW123161   8.818   0.244   5.289
 7088SOL    HW223162   8.767   0.214   5.428
 7089SOL     OW23163  10.533   5.125   5.473
 7089SOL    HW123164  10.549   5.083   5.388
 7089SOL    HW223165  10.453   5.084   5.506
 7090SOL     OW23166   1.580  11.810   8.388
 7090SOL    HW123167   1.513  11.772   8.446
 7090SOL    HW223168   1.660  11.806   8.439
 7091SOL     OW23169  12.451   5.049   1.497
 7091SOL    HW123170  12.434   5.001   1.416
 7091SOL    HW223171  12.481   5.135   1.468
 7092SOL     OW23172  14.611  10.589   7.214
 7092SOL    HW123173  14.679  10.566   7.150
 7092SOL    HW223174  14.544  10.522   7.203
 7093SOL     OW23175  11.939   2.671  12.534
 7093SOL    HW123176  11.882   2.634  12.602
 7093SOL    HW223177  11.962   2.758  12.568
 7094SOL     OW23178   1.219   9.614   2.008
 7094SOL    HW123179   1.296   9.664   2.034
 7094SOL    HW223180   1.145   9.670   2.033
 7095SOL     OW23181  12.092   6.838   9.683
 7095SOL    HW123182  12.061   6.895   9.613
 7095SOL    HW223183  12.026   6.846   9.752
 7096SOL     OW23184   1.566   8.232   9.275
 7096SOL    HW123185   1.607   8.289   9.210
 7096SOL    HW223186   1.477   8.267   9.283
 7097SOL     OW23187   2.336   8.072  12.372
 7097SOL    HW123188   2.427   8.079  12.402
 7097SOL    HW223189   2.331   8.132  12.298
 7098SOL     OW23190   3.322   6.539  12.389
 7098SOL    HW123191   3.322   6.534  12.485
 7098SOL    HW223192   3.283   6.457  12.361
 7099SOL     OW23193   0.920   7.582   0.252
 7099SOL    HW123194   0.875   7.550   0.330
 7099SOL    HW223195   0.982   7.647   0.285
 7100SOL     OW23196   6.623  14.072  13.653
 7100SOL    HW123197   6.688  14.035  13.593
 7100SOL    HW223198   6.674  14.109  13.725
 7101SOL     OW23199  13.529   2.086   4.701
 7101SOL    HW123200  13.510   2.116   4.612
 7101SOL    HW223201  13.602   2.025   4.691
 7102SOL     OW23202   4.713   9.344  14.459
 7102SOL    HW123203   4.738   9.421  14.408
 7102SOL    HW223204   4.660   9.291  14.399
 7103SOL     OW23205  10.583   1.638   8.581
 7103SOL    HW123206  10.503   1.691   8.575
 7103SOL    HW223207  10.622   1.664   8.665
 7104SOL     OW23208   8.319   0.091  14.042
 7104SOL    HW123209   8.355   0.007  14.070
 7104SOL    HW223210   8.225   0.075  14.032
 7105SOL     OW23211   6.582   9.764  14.094
 7105SOL    HW123212   6.645   9.771  14.022
 7105SOL    HW223213   6.519   9.834  14.077
 7106SOL     OW23214  10.635   5.680   1.858
 7106SOL    HW123215  10.727   5.704   1.861
 7106SOL    HW223216  10.623   5.620   1.932
 7107SOL     OW23217   9.673  10.368   2.251
 7107SOL    HW123218   9.739  10.382   2.183
 7107SOL    HW223219   9.633  10.284   2.229
 7108SOL     OW23220   0.273   3.279   6.262
 7108SOL    HW123221   0.341   3.296   6.328
 7108SOL    HW223222   0.315   3.300   6.179
 7109SOL     OW23223   9.385   9.149   5.060
 7109SOL    HW123224   9.397   9.061   5.097
 7109SOL    HW223225   9.458   9.199   5.095
 7110SOL     OW23226  14.580   9.826  11.902
 7110SOL    HW123227  14.575   9.921  11.890
 7110SOL    HW223228  14.657   9.813  11.957
 7111SOL     OW23229   7.554   9.121  13.265
 7111SOL    HW123230   7.495   9.145  13.194
 7111SOL    HW223231   7.505   9.140  13.345
 7112SOL     OW23232  13.109   4.542   0.254
 7112SOL    HW123233  13.124   4.535   0.159
 7112SOL    HW223234  13.096   4.451   0.283
 7113SOL     OW23235   2.678   1.091   7.613
 7113SOL    HW123236   2.771   1.072   7.610
 7113SOL    HW223237   2.638   1.027   7.553
 7114SOL     OW23238  12.724   6.906  14.585
 7114SOL    HW123239  12.693   6.819  14.561
 7114SOL    HW223240  12.645   6.959  14.594
 7115SOL     OW23241   8.062  13.481  14.567
 7115SOL    HW123242   8.127  13.453  14.503
 7115SOL    HW223243   8.010  13.402  14.584
 7116SOL     OW23244  12.955   3.181  14.681
 7116SOL    HW123245  12.889   3.169  14.613
 7116SOL    HW223246  13.036   3.148  14.642
 7117SOL     OW23247  13.909  10.601   2.887
 7117SOL    HW123248  13.878  10.578   2.799
 7117SOL    HW223249  13.984  10.544   2.902
 7118SOL     OW23250  10.996  13.337  11.503
 7118SOL    HW123251  10.949  13.274  11.449
 7118SOL    HW223252  11.010  13.291  11.586
 7119SOL     OW23253  11.252   2.128   4.357
 7119SOL    HW123254  11.346   2.132   4.340
 7119SOL    HW223255  11.243   2.068   4.431
 7120SOL     OW23256   5.493  10.951   6.778
 7120SOL    HW123257   5.581  10.913   6.768
 7120SOL    HW223258   5.483  11.009   6.703
 7121SOL     OW23259   3.164   0.005   9.129
 7121SOL    HW123260   3.115  14.819   9.068
 7121SOL    HW223261   3.193   0.080   9.076
 7122SOL     OW23262   3.340   5.774  13.559
 7122SOL    HW123263   3.425   5.787  13.601
 7122SOL    HW223264   3.348   5.820  13.475
 7123SOL     OW23265   0.538  14.328   4.255
 7123SOL    HW123266   0.527  14.234   4.266
 7123SOL    HW223267   0.452  14.360   4.229
 7124SOL     OW23268   1.235   3.448  10.188
 7124SOL    HW123269   1.303   3.515  10.185
 7124SOL    HW223270   1.269   3.382  10.248
 7125SOL     OW23271   8.716  14.516  10.393
 7125SOL    HW123272   8.760  14.432  10.376
 7125SOL    HW223273   8.627  14.502  10.363
 7126SOL     OW23274   6.139   0.637  11.091
 7126SOL    HW123275   6.135   0.555  11.141
 7126SOL    HW223276   6.227   0.636  11.053
 7127SOL     OW23277   2.581   3.963   4.891
 7127SOL    HW123278   2.624   4.016   4.958
 7127SOL    HW223279   2.525   3.903   4.941
 7128SOL     OW23280  12.330   3.455   0.470
 7128SOL    HW123281  12.310   3.407   0.390
 7128SOL    HW223282  12.247   3.458   0.518
 7129SOL     OW23283   9.015   6.902   6.522
 7129SOL    HW123284   9.039   6.820   6.565
 7129SOL    HW223285   8.921   6.911   6.538
 7130SOL     OW23286   0.116   7.678  10.359
 7130SOL    HW123287   0.132   7.597  10.407
 7130SOL    HW223288   0.029   7.706  10.388
 7131SOL     OW23289   9.077   6.174   6.283
 7131SOL    HW123290   9.027   6.223   6.217
 7131SOL    HW223291   9.023   6.177   6.362
 7132SOL     OW23292   4.522  11.136   6.790
 7132SOL    HW123293   4.577  11.063   6.762
 7132SOL    HW223294   4.580  11.192   6.842
 7133SOL     OW23295   2.515   2.249   9.322
 7133SOL    HW123296   2.550   2.211   9.241
 7133SOL    HW223297   2.593   2.269   9.374
 7134SOL     OW23298   4.111   1.382  10.639
 7134SOL    HW123299   4.180   1.317  10.631
 7134SOL    HW223300   4.119   1.435  10.559
 7135SOL     OW23301   1.489  11.174   8.690
 7135SOL    HW123302   1.529  11.090   8.714
 7135SOL    HW223303   1.435  11.155   8.614
 7136SOL     OW23304  13.332  10.004   2.268
 7136SOL    HW123305  13.357   9.988   2.359
 7136SOL    HW223306  13.248   9.959   2.258
 7137SOL     OW23307  10.017  14.159  12.925
 7137SOL    HW123308  10.005  14.253  12.926
 7137SOL    HW223309   9.960  14.126  12.995
 7138SOL     OW23310   5.983   4.273   4.574
 7138SOL    HW123311   6.072   4.309   4.575
 7138SOL    HW223312   5.950   4.295   4.487
 7139SOL     OW23313   4.797  13.221   3.989
 7139SOL    HW123314   4.743  13.256   3.918
 7139SOL    HW223315   4.848  13.151   3.948
 7140SOL     OW23316   3.524  13.123  10.910
 7140SOL    HW123317   3.457  13.129  10.842
 7140SOL    HW223318   3.479  13.150  10.990
 7141SOL     OW23319   6.327  14.566  11.638
 7141SOL    HW123320   6.359  14.587  11.726
 7141SOL    HW223321   6.232  14.578  11.644
 7142SOL     OW23322   0.265   2.763   7.122
 7142SOL    HW123323   0.258   2.706   7.045
 7142SOL    HW223324   0.270   2.851   7.087
 7143SOL     OW23325   8.073   7.888   3.848
 7143SOL    HW123326   8.002   7.830   3.876
 7143SOL    HW223327   8.082   7.871   3.755
 7144SOL     OW23328  12.434   3.260   0.212
 7144SOL    HW123329  12.346   3.221   0.216
 7144SOL    HW223330  12.486   3.195   0.164
 7145SOL     OW23331   7.545  12.548   2.592
 7145SOL    HW123332   7.518  12.540   2.683
 7145SOL    HW223333   7.553  12.458   2.561
 7146SOL     OW23334  14.014   5.430  13.210
 7146SOL    HW123335  14.048   5.398  13.127
 7146SOL    HW223336  13.940   5.486  13.186
 7147SOL     OW23337   1.577  14.165   1.950
 7147SOL    HW123338   1.500  14.152   1.896
 7147SOL    HW223339   1.554  14.237   2.009
 7148SOL     OW23340   1.492  11.582   0.182
 7148SOL    HW123341   1.547  11.512   0.219
 7148SOL    HW223342   1.554  11.637   0.134
 7149SOL     OW23343   7.138  10.204   2.893
 7149SOL    HW123344   7.057  10.171   2.855
 7149SOL    HW223345   7.111  10.248   2.974
 7150SOL     OW23346   5.764   2.184   2.772
 7150SOL    HW123347   5.830   2.253   2.766
 7150SOL    HW223348   5.724   2.196   2.858
 7151SOL     OW23349   9.186   0.209  11.415
 7151SOL    HW123350   9.144   0.247  11.338
 7151SOL    HW223351   9.254   0.272  11.439
 7152SOL     OW23352   4.557   9.969  10.096
 7152SOL    HW123353   4.499  10.018  10.038
 7152SOL    HW223354   4.544   9.877  10.071
 7153SOL     OW23355   2.471   9.117   8.926
 7153SOL    HW123356   2.383   9.096   8.954
 7153SOL    HW223357   2.469   9.108   8.831
 7154SOL     OW23358  10.667  11.542  13.180
 7154SOL    HW123359  10.652  11.449  13.199
 7154SOL    HW223360  10.615  11.558  13.101
 7155SOL     OW23361   1.939   9.682  13.736
 7155SOL    HW123362   1.849   9.714  13.745
 7155SOL    HW223363   1.948   9.658  13.644
 7156SOL     OW23364   9.661   1.347  14.166
 7156SOL    HW123365   9.712   1.369  14.088
 7156SOL    HW223366   9.662   1.427  14.218
 7157SOL     OW23367   4.260   9.338   5.234
 7157SOL    HW123368   4.262   9.395   5.158
 7157SOL    HW223369   4.292   9.392   5.306
 7158SOL     OW23370  10.802   7.259   5.739
 7158SOL    HW123371  10.820   7.342   5.696
 7158SOL    HW223372  10.887   7.232   5.775
 7159SOL     OW23373   7.178   1.790  11.687
 7159SOL    HW123374   7.192   1.753  11.600
 7159SOL    HW223375   7.093   1.834  11.682
 7160SOL     OW23376   0.828   1.925   6.843
 7160SOL    HW123377   0.757   1.984   6.868
 7160SOL    HW223378   0.788   1.838   6.842
 7161SOL     OW23379   3.839  13.577   4.012
 7161SOL    HW123380   3.925  13.618   4.021
 7161SOL    HW223381   3.777  13.649   4.014
 7162SOL     OW23382   0.861   3.385  11.542
 7162SOL    HW123383   0.872   3.292  11.524
 7162SOL    HW223384   0.950   3.417  11.556
 7163SOL     OW23385   3.741   2.973   4.881
 7163SOL    HW123386   3.772   2.958   4.791
 7163SOL    HW223387   3.670   2.910   4.892
 7164SOL     OW23388   1.299   9.965  10.288
 7164SOL    HW123389   1.309   9.999  10.377
 7164SOL    HW223390   1.275  10.041  10.236
 7165SOL     OW23391   1.394   0.046   7.439
 7165SOL    HW123392   1.319   0.057   7.498
 7165SOL    HW223393   1.371  14.837   7.386
 7166SOL     OW23394   5.397   2.851   5.861
 7166SOL    HW123395   5.384   2.764   5.823
 7166SOL    HW223396   5.330   2.905   5.819
 7167SOL     OW23397   5.691  11.406   2.725
 7167SOL    HW123398   5.700  11.354   2.805
 7167SOL    HW223399   5.780  11.427   2.700
 7168SOL     OW23400   4.140  10.566   5.838
 7168SOL    HW123401   4.092  10.551   5.919
 7168SOL    HW223402   4.078  10.541   5.769
 7169SOL     OW23403   1.538   0.004   5.592
 7169SOL    HW123404   1.582  14.791   5.568
 7169SOL    HW223405   1.459   0.005   5.537
 7170SOL     OW23406  10.269   9.809   3.575
 7170SOL    HW123407  10.195   9.781   3.629
 7170SOL    HW223408  10.343   9.810   3.636
 7171SOL     OW23409  10.118   7.917   8.092
 7171SOL    HW123410  10.147   7.854   8.026
 7171SOL    HW223411  10.069   7.865   8.155
 7172SOL     OW23412   3.971  12.600   9.840
 7172SOL    HW123413   4.013  12.519   9.871
 7172SOL    HW223414   3.964  12.588   9.745
 7173SOL     OW23415  13.605   3.842   3.485
 7173SOL    HW123416  13.558   3.922   3.509
 7173SOL    HW223417  13.694   3.871   3.467
 7174SOL     OW23418   2.509  14.520  14.295
 7174SOL    HW123419   2.457  14.454  14.249
 7174SOL    HW223420   2.455  14.598  14.295
 7175SOL     OW23421   7.265   1.640   5.671
 7175SOL    HW123422   7.242   1.718   5.722
 7175SOL    HW223423   7.215   1.649   5.589
 7176SOL     OW23424  12.904  13.946   7.612
 7176SOL    HW123425  12.972  14.013   7.615
 7176SOL    HW223426  12.894  13.917   7.702
 7177SOL     OW23427   1.517  13.442   7.993
 7177SOL    HW123428   1.514  13.465   8.085
 7177SOL    HW223429   1.579  13.504   7.954
 7178SOL     OW23430  10.164   7.468   9.567
 7178SOL    HW123431  10.254   7.499   9.571
 7178SOL    HW223432  10.168   7.378   9.599
 7179SOL     OW23433   6.204   2.396   1.928
 7179SOL    HW123434   6.235   2.466   1.871
 7179SOL    HW223435   6.235   2.316   1.886
 7180SOL     OW23436   2.562   0.917   8.247
 7180SOL    HW123437   2.470   0.943   8.251
 7180SOL    HW223438   2.578   0.895   8.155
 7181SOL     OW23439  10.263   9.651   8.392
 7181SOL    HW123440  10.192   9.603   8.435
 7181SOL    HW223441  10.332   9.656   8.458
 7182SOL     OW23442   7.799   2.173   3.051
 7182SOL    HW123443   7.770   2.253   3.008
 7182SOL    HW223444   7.792   2.192   3.145
 7183SOL     OW23445  11.892   2.294   1.066
 7183SOL    HW123446  11.916   2.333   1.150
 7183SOL    HW223447  11.834   2.358   1.025
 7184SOL     OW23448   7.886  10.775  11.121
 7184SOL    HW123449   7.897  10.680  11.126
 7184SOL    HW223450   7.796  10.787  11.091
 7185SOL     OW23451   4.666   6.534  10.295
 7185SOL    HW123452   4.627   6.621  10.305
 7185SOL    HW223453   4.723   6.541  10.219
 7186SOL     OW23454   4.592   8.852   9.563
 7186SOL    HW123455   4.549   8.798   9.630
 7186SOL    HW223456   4.529   8.858   9.492
 7187SOL     OW23457  14.244   0.278   7.517
 7187SOL    HW123458  14.336   0.256   7.506
 7187SOL    HW223459  14.231   0.357   7.466
 7188SOL     OW23460  14.699  13.716  13.288
 7188SOL    HW123461  14.788  13.750  13.276
 7188SOL    HW223462  14.650  13.751  13.213
 7189SOL     OW23463   1.286   2.820   7.774
 7189SOL    HW123464   1.255   2.835   7.684
 7189SOL    HW223465   1.290   2.907   7.813
 7190SOL     OW23466   8.457   2.219  11.165
 7190SOL    HW123467   8.442   2.172  11.247
 7190SOL    HW223468   8.436   2.156  11.096
 7191SOL     OW23469   8.885   1.605   4.725
 7191SOL    HW123470   8.898   1.511   4.740
 7191SOL    HW223471   8.864   1.611   4.632
 7192SOL     OW23472   7.449  14.646   5.783
 7192SOL    HW123473   7.380  14.659   5.848
 7192SOL    HW223474   7.403  14.645   5.699
 7193SOL     OW23475   6.822   8.426   6.454
 7193SOL    HW123476   6.813   8.420   6.359
 7193SOL    HW223477   6.742   8.386   6.489
 7194SOL     OW23478  11.094  14.030  10.139
 7194SOL    HW123479  11.137  14.037  10.225
 7194SOL    HW223480  11.001  14.044  10.157
 7195SOL     OW23481   3.006   3.112   1.721
 7195SOL    HW123482   2.977   3.040   1.665
 7195SOL    HW223483   2.940   3.116   1.791
 7196SOL     OW23484  14.732   1.061  10.970
 7196SOL    HW123485  14.794   0.988  10.968
 7196SOL    HW223486  14.756   1.110  11.048
 7197SOL     OW23487   1.513  11.281  11.631
 7197SOL    HW123488   1.598  11.286  11.586
 7197SOL    HW223489   1.493  11.187  11.634
 7198SOL     OW23490  12.855   2.082   1.653
 7198SOL    HW123491  12.888   2.089   1.743
 7198SOL    HW223492  12.777   2.028   1.660
 7199SOL     OW23493   1.871  12.170  14.192
 7199SOL    HW123494   1.936  12.240  14.186
 7199SOL    HW223495   1.921  12.089  14.184
 7200SOL     OW23496  13.642  11.581   7.438
 7200SOL    HW123497  13.721  11.634   7.445
 7200SOL    HW223498  13.637  11.534   7.521
 7201SOL     OW23499   2.524   6.609  13.847
 7201SOL    HW123500   2.515   6.583  13.756
 7201SOL    HW223501   2.618   6.605  13.864
 7202SOL     OW23502  12.563   0.337   0.497
 7202SOL    HW123503  12.646   0.375   0.470
 7202SOL    HW223504  12.581   0.299   0.583
 7203SOL     OW23505   0.423   8.739   7.991
 7203SOL    HW123506   0.334   8.708   7.979
 7203SOL    HW223507   0.438   8.798   7.917
 7204SOL     OW23508   7.237   0.960   7.331
 7204SOL    HW123509   7.287   0.880   7.349
 7204SOL    HW223510   7.299   1.017   7.284
 7205SOL     OW23511  14.528   4.635   1.569
 7205SOL    HW123512  14.462   4.624   1.500
 7205SOL    HW223513  14.477   4.654   1.648
 7206SOL     OW23514  12.288   7.892  13.894
 7206SOL    HW123515  12.329   7.888  13.981
 7206SOL    HW223516  12.248   7.806  13.883
 7207SOL     OW23517   1.273   7.644   4.342
 7207SOL    HW123518   1.217   7.640   4.420
 7207SOL    HW223519   1.362   7.634   4.376
 7208SOL     OW23520  11.404   9.807  11.776
 7208SOL    HW123521  11.309   9.804  11.787
 7208SOL    HW223522  11.438   9.780  11.862
 7209SOL     OW23523   1.459   7.059   5.764
 7209SOL    HW123524   1.544   7.103   5.765
 7209SOL    HW223525   1.474   6.981   5.710
 7210SOL     OW23526   9.704   1.562  12.813
 7210SOL    HW123527   9.625   1.612  12.829
 7210SOL    HW223528   9.703   1.493  12.879
 7211SOL     OW23529   3.981  12.825   7.371
 7211SOL    HW123530   3.907  12.877   7.340
 7211SOL    HW223531   3.965  12.737   7.337
 7212SOL     OW23532   4.689   0.229   5.235
 7212SOL    HW123533   4.736   0.213   5.317
 7212SOL    HW223534   4.602   0.259   5.263
 7213SOL     OW23535   2.062   3.276  10.975
 7213SOL    HW123536   2.042   3.278  10.881
 7213SOL    HW223537   2.112   3.356  10.990
 7214SOL     OW23538  12.129  14.851   1.209
 7214SOL    HW123539  12.201  14.790   1.218
 7214SOL    HW223540  12.146   0.028   1.126
 7215SOL     OW23541   9.123  12.131   3.924
 7215SOL    HW123542   9.118  12.054   3.980
 7215SOL    HW223543   9.210  12.168   3.942
 7216SOL     OW23544  13.918  13.296  10.356
 7216SOL    HW123545  13.982  13.270  10.290
 7216SOL    HW223546  13.968  13.351  10.417
 7217SOL     OW23547   2.293   9.808   8.535
 7217SOL    HW123548   2.359   9.861   8.580
 7217SOL    HW223549   2.247   9.870   8.478
 7218SOL     OW23550   4.535   0.648  12.183
 7218SOL    HW123551   4.571   0.615  12.101
 7218SOL    HW223552   4.588   0.725  12.204
 7219SOL     OW23553   8.849  14.836   4.125
 7219SOL    HW123554   8.869  14.868   4.213
 7219SOL    HW223555   8.917   0.007   4.069
 7220SOL     OW23556   1.251   1.137   7.320
 7220SOL    HW123557   1.236   1.200   7.249
 7220SOL    HW223558   1.268   1.054   7.275
 7221SOL     OW23559  12.930  12.867  13.388
 7221SOL    HW123560  12.922  12.782  13.345
 7221SOL    HW223561  12.918  12.847  13.481
 7222SOL     OW23562   2.989   4.150  11.202
 7222SOL    HW123563   3.044   4.167  11.279
 7222SOL    HW223564   3.006   4.058  11.180
 7223SOL     OW23565   7.280  14.675   7.468
 7223SOL    HW123566   7.338  14.742   7.503
 7223SOL    HW223567   7.325  14.593   7.487
 7224SOL     OW23568   6.680   0.905   6.163
 7224SOL    HW123569   6.724   0.827   6.129
 7224SOL    HW223570   6.591   0.900   6.128
 7225SOL     OW23571   7.021   8.348   0.129
 7225SOL    HW123572   7.045   8.350   0.036
 7225SOL    HW223573   7.094   8.390   0.173
 7226SOL     OW23574   8.696   6.658  13.457
 7226SOL    HW123575   8.638   6.732  13.438
 7226SOL    HW223576   8.697   6.606  13.377
 7227SOL     OW23577   5.957   8.896  14.484
 7227SOL    HW123578   5.935   8.878  14.393
 7227SOL    HW223579   5.920   8.822  14.533
 7228SOL     OW23580   6.181   1.216  11.495
 7228SOL    HW123581   6.210   1.243  11.583
 7228SOL    HW223582   6.165   1.298  11.449
 7229SOL     OW23583   2.353   1.923  12.518
 7229SOL    HW123584   2.388   1.916  12.429
 7229SOL    HW223585   2.260   1.943  12.506
 7230SOL     OW23586  14.503   5.882   9.649
 7230SOL    HW123587  14.473   5.903   9.561
 7230SOL    HW223588  14.576   5.821   9.636
 7231SOL     OW23589   3.910   5.976  12.636
 7231SOL    HW123590   3.949   5.890  12.655
 7231SOL    HW223591   3.830   5.956  12.589
 7232SOL     OW23592   6.126   3.941   6.161
 7232SOL    HW123593   6.206   3.897   6.189
 7232SOL    HW223594   6.065   3.929   6.234
 7233SOL     OW23595   9.673  11.111   7.316
 7233SOL    HW123596   9.601  11.128   7.255
 7233SOL    HW223597   9.675  11.188   7.373
 7234SOL     OW23598   4.132   5.836  11.096
 7234SOL    HW123599   4.133   5.781  11.018
 7234SOL    HW223600   4.222   5.835  11.129
 7235SOL     OW23601   5.170   9.994   6.742
 7235SOL    HW123602   5.204   9.913   6.705
 7235SOL    HW223603   5.141   9.971   6.830
 7236SOL     OW23604  14.132  14.318   5.888
 7236SOL    HW123605  14.042  14.327   5.919
 7236SOL    HW223606  14.184  14.370   5.949
 7237SOL     OW23607   4.561   3.349   8.428
 7237SOL    HW123608   4.641   3.305   8.456
 7237SOL    HW223609   4.530   3.394   8.506
 7238SOL     OW23610  11.988  11.295  12.958
 7238SOL    HW123611  11.998  11.371  12.901
 7238SOL    HW223612  11.917  11.318  13.018
 7239SOL     OW23613   6.036   6.190   2.237
 7239SOL    HW123614   6.013   6.134   2.311
 7239SOL    HW223615   6.130   6.173   2.222
 7240SOL     OW23616   1.801   0.036   2.496
 7240SOL    HW123617   1.772  14.843   2.428
 7240SOL    HW223618   1.896   0.040   2.486
 7241SOL     OW23619   1.628  10.621   7.312
 7241SOL    HW123620   1.651  10.603   7.403
 7241SOL    HW223621   1.712  10.630   7.267
 7242SOL     OW23622   2.261   5.221   7.139
 7242SOL    HW123623   2.258   5.178   7.054
 7242SOL    HW223624   2.246   5.314   7.119
 7243SOL     OW23625   9.637   3.555   3.089
 7243SOL    HW123626   9.732   3.561   3.074
 7243SOL    HW223627   9.599   3.612   3.022
 7244SOL     OW23628   5.149   9.012   0.283
 7244SOL    HW123629   5.066   8.967   0.298
 7244SOL    HW223630   5.215   8.942   0.289
 7245SOL     OW23631  14.186   3.996   4.734
 7245SOL    HW123632  14.176   3.929   4.666
 7245SOL    HW223633  14.097   4.009   4.767
 7246SOL     OW23634  10.252   1.685   6.223
 7246SOL    HW123635  10.323   1.625   6.203
 7246SOL    HW223636  10.295   1.769   6.241
 7247SOL     OW23637   5.414  13.800  14.339
 7247SOL    HW123638   5.404  13.772  14.429
 7247SOL    HW223639   5.343  13.757  14.292
 7248SOL     OW23640   3.985   6.041   4.879
 7248SOL    HW123641   4.055   6.074   4.823
 7248SOL    HW223642   4.021   6.045   4.968
 7249SOL     OW23643   0.844   6.028   3.226
 7249SOL    HW123644   0.804   5.944   3.249
 7249SOL    HW223645   0.840   6.080   3.306
 7250SOL     OW23646   6.025   5.258   5.471
 7250SOL    HW123647   6.041   5.198   5.398
 7250SOL    HW223648   6.112   5.277   5.506
 7251SOL     OW23649   2.377   3.942  12.476
 7251SOL    HW123650   2.322   3.866  12.496
 7251SOL    HW223651   2.316   4.015  12.469
 7252SOL     OW23652   5.837  11.626  14.399
 7252SOL    HW123653   5.896  11.689  14.357
 7252SOL    HW223654   5.885  11.594  14.475
 7253SOL     OW23655   4.446  12.595  12.145
 7253SOL    HW123656   4.467  12.635  12.229
 7253SOL    HW223657   4.398  12.515  12.168
 7254SOL     OW23658   5.959  11.189  12.197
 7254SOL    HW123659   6.052  11.191  12.176
 7254SOL    HW223660   5.917  11.236  12.125
 7255SOL     OW23661   5.469   7.922  12.009
 7255SOL    HW123662   5.555   7.903  12.047
 7255SOL    HW223663   5.480   7.908  11.915
 7256SOL     OW23664  10.617   6.207   6.109
 7256SOL    HW123665  10.553   6.137   6.115
 7256SOL    HW223666  10.569   6.286   6.133
 7257SOL     OW23667  14.767   5.385  13.069
 7257SOL    HW123668  14.693   5.356  13.016
 7257SOL    HW223669  14.816   5.304  13.088
 7258SOL     OW23670  13.529   8.023  11.196
 7258SOL    HW123671  13.455   8.019  11.256
 7258SOL    HW223672  13.605   8.005  11.251
 7259SOL     OW23673   2.272   9.116   4.135
 7259SOL    HW123674   2.225   9.198   4.154
 7259SOL    HW223675   2.311   9.092   4.219
 7260SOL     OW23676   6.931  11.507   5.128
 7260SOL    HW123677   6.872  11.581   5.137
 7260SOL    HW223678   6.900  11.443   5.192
 7261SOL     OW23679   8.870   1.860   8.168
 7261SOL    HW123680   8.908   1.947   8.158
 7261SOL    HW223681   8.781   1.869   8.134
 7262SOL     OW23682   2.881  12.157   7.303
 7262SOL    HW123683   2.819  12.097   7.262
 7262SOL    HW223684   2.880  12.131   7.396
 7263SOL     OW23685  10.076  10.619  13.752
 7263SOL    HW123686  10.099  10.672  13.675
 7263SOL    HW223687  10.150  10.560  13.764
 7264SOL     OW23688   1.482  13.630   3.376
 7264SOL    HW123689   1.427  13.587   3.312
 7264SOL    HW223690   1.567  13.639   3.333
 7265SOL     OW23691   6.022   2.165   8.734
 7265SOL    HW123692   5.993   2.087   8.686
 7265SOL    HW223693   6.117   2.164   8.725
 7266SOL     OW23694   2.043   2.880   9.671
 7266SOL    HW123695   1.974   2.906   9.733
 7266SOL    HW223696   1.996   2.857   9.591
 7267SOL     OW23697   7.134  10.394   1.438
 7267SOL    HW123698   7.109  10.372   1.527
 7267SOL    HW223699   7.065  10.452   1.406
 7268SOL     OW23700  13.586   5.589   4.214
 7268SOL    HW123701  13.563   5.668   4.165
 7268SOL    HW223702  13.532   5.594   4.293
 7269SOL     OW23703  14.429  13.512  12.139
 7269SOL    HW123704  14.369  13.562  12.083
 7269SOL    HW223705  14.442  13.430  12.092
 7270SOL     OW23706   0.929  12.006   8.468
 7270SOL    HW123707   1.010  12.054   8.456
 7270SOL    HW223708   0.933  11.972   8.557
 7271SOL     OW23709   2.082  12.769   5.602
 7271SOL    HW123710   2.088  12.864   5.588
 7271SOL    HW223711   2.021  12.761   5.676
 7272SOL     OW23712   5.132   9.728   8.442
 7272SOL    HW123713   5.227   9.717   8.436
 7272SOL    HW223714   5.117   9.819   8.418
 7273SOL     OW23715   4.329   1.906   3.790
 7273SOL    HW123716   4.367   1.834   3.840
 7273SOL    HW223717   4.395   1.927   3.724
 7274SOL     OW23718   4.535  14.753  14.271
 7274SOL    HW123719   4.543  14.806  14.351
 7274SOL    HW223720   4.607  14.691  14.277
 7275SOL     OW23721  11.000  14.273  14.673
 7275SOL    HW123722  11.001  14.243  14.582
 7275SOL    HW223723  11.057  14.350  14.673
 7276SOL     OW23724   8.976   0.951   9.923
 7276SOL    HW123725   9.038   1.021   9.903
 7276SOL    HW223726   9.031   0.879   9.953
 7277SOL     OW23727   1.716  13.696   3.244
 7277SOL    HW123728   1.705  13.749   3.165
 7277SOL    HW223729   1.784  13.633   3.221
 7278SOL     OW23730   7.869   2.753  11.219
 7278SOL    HW123731   7.952   2.705  11.212
 7278SOL    HW223732   7.815   2.699  11.277
 7279SOL     OW23733   0.418   2.862  12.602
 7279SOL    HW123734   0.400   2.923  12.529
 7279SOL    HW223735   0.389   2.910  12.680
 7280SOL     OW23736   8.957  10.264   1.905
 7280SOL    HW123737   9.004  10.185   1.877
 7280SOL    HW223738   9.021  10.335   1.895
 7281SOL     OW23739   1.635   3.016  14.636
 7281SOL    HW123740   1.648   2.922  14.634
 7281SOL    HW223741   1.540   3.028  14.640
 7282SOL     OW23742  12.524   8.898  12.362
 7282SOL    HW123743  12.539   8.866  12.273
 7282SOL    HW223744  12.593   8.857  12.414
 7283SOL     OW23745   9.438  11.764   1.506
 7283SOL    HW123746   9.374  11.829   1.534
 7283SOL    HW223747   9.408  11.682   1.543
 7284SOL     OW23748   1.280   3.682   2.868
 7284SOL    HW123749   1.346   3.749   2.884
 7284SOL    HW223750   1.213   3.697   2.935
 7285SOL     OW23751   7.834  10.119   3.864
 7285SOL    HW123752   7.759  10.123   3.925
 7285SOL    HW223753   7.863  10.210   3.855
 7286SOL     OW23754   3.994   5.055  14.375
 7286SOL    HW123755   4.031   5.128  14.325
 7286SOL    HW223756   3.992   5.087  14.466
 7287SOL     OW23757   7.099   1.277  10.165
 7287SOL    HW123758   7.089   1.321  10.250
 7287SOL    HW223759   7.155   1.335  10.114
 7288SOL     OW23760   1.835  13.788   6.184
 7288SOL    HW123761   1.852  13.775   6.278
 7288SOL    HW223762   1.790  13.872   6.180
 7289SOL     OW23763   5.867   4.584   8.281
 7289SOL    HW123764   5.891   4.540   8.362
 7289SOL    HW223765   5.930   4.551   8.217
 7290SOL     OW23766   4.175   1.136   3.346
 7290SOL    HW123767   4.096   1.151   3.398
 7290SOL    HW223768   4.175   1.206   3.281
 7291SOL     OW23769   7.523  12.210   8.894
 7291SOL    HW123770   7.594  12.213   8.829
 7291SOL    HW223771   7.471  12.133   8.869
 7292SOL     OW23772   6.356  14.012  11.516
 7292SOL    HW123773   6.438  13.962  11.515
 7292SOL    HW223774   6.300  13.968  11.453
 7293SOL     OW23775   0.172   1.757   3.798
 7293SOL    HW123776   0.266   1.759   3.817
 7293SOL    HW223777   0.134   1.822   3.857
 7294SOL     OW23778  14.379   6.699  11.757
 7294SOL    HW123779  14.364   6.638  11.685
 7294SOL    HW223780  14.463   6.672  11.794
 7295SOL     OW23781  13.191  14.695  10.713
 7295SOL    HW123782  13.185  14.601  10.726
 7295SOL    HW223783  13.233  14.705  10.627
 7296SOL     OW23784  12.098   8.288   5.453
 7296SOL    HW123785  12.097   8.382   5.434
 7296SOL    HW223786  12.033   8.277   5.522
 7297SOL     OW23787   8.932  14.082   3.928
 7297SOL    HW123788   9.002  14.136   3.891
 7297SOL    HW223789   8.952  13.993   3.897
 7298SOL     OW23790   2.515   2.683   2.532
 7298SOL    HW123791   2.525   2.741   2.456
 7298SOL    HW223792   2.444   2.722   2.583
 7299SOL     OW23793   2.780  11.432   2.794
 7299SOL    HW123794   2.795  11.486   2.872
 7299SOL    HW223795   2.864  11.391   2.776
 7300SOL     OW23796  12.457   0.122   1.693
 7300SOL    HW123797  12.443   0.091   1.783
 7300SOL    HW223798  12.386   0.185   1.679
 7301SOL     OW23799   0.135   1.743  11.051
 7301SOL    HW123800   0.198   1.698  10.994
 7301SOL    HW223801   0.186   1.814  11.092
 7302SOL     OW23802   4.873   6.540  14.831
 7302SOL    HW123803   4.964   6.562  14.849
 7302SOL    HW223804   4.822   6.593   0.025
 7303SOL     OW23805  12.655   5.130  14.076
 7303SOL    HW123806  12.561   5.129  14.097
 7303SOL    HW223807  12.694   5.182  14.146
 7304SOL     OW23808  12.534  11.848  13.823
 7304SOL    HW123809  12.444  11.815  13.810
 7304SOL    HW223810  12.568  11.794  13.895
 7305SOL     OW23811  12.229   5.964  10.060
 7305SOL    HW123812  12.289   5.946   9.987
 7305SOL    HW223813  12.197   5.878  10.086
 7306SOL     OW23814   0.555  14.093  13.702
 7306SOL    HW123815   0.511  14.152  13.763
 7306SOL    HW223816   0.621  14.148  13.659
 7307SOL     OW23817  10.636   7.274   1.506
 7307SOL    HW123818  10.698   7.225   1.453
 7307SOL    HW223819  10.639   7.232   1.592
 7308SOL     OW23820  14.775   3.850  12.461
 7308SOL    HW123821  14.805   3.814  12.378
 7308SOL    HW223822  14.768   3.774  12.519
 7309SOL     OW23823   8.681  10.526   1.542
 7309SOL    HW123824   8.750  10.459   1.542
 7309SOL    HW223825   8.603  10.480   1.510
 7310SOL     OW23826   7.922  11.502  11.516
 7310SOL    HW123827   7.896  11.539  11.600
 7310SOL    HW223828   7.845  11.456  11.485
 7311SOL     OW23829   9.367   3.244   8.752
 7311SOL    HW123830   9.383   3.262   8.845
 7311SOL    HW223831   9.378   3.149   8.743
 7312SOL     OW23832  10.436   2.587  10.932
 7312SOL    HW123833  10.454   2.550  11.018
 7312SOL    HW223834  10.386   2.666  10.950
 7313SOL     OW23835   2.266  14.760   4.666
 7313SOL    HW123836   2.244  14.846   4.632
 7313SOL    HW223837   2.353  14.742   4.632
 7314SOL     OW23838   0.284   2.853  14.851
 7314SOL    HW123839   0.213   2.818   0.037
 7314SOL    HW223840   0.362   2.847   0.038
 7315SOL     OW23841  11.553   3.290   2.034
 7315SOL    HW123842  11.567   3.377   1.999
 7315SOL    HW223843  11.473   3.259   1.992
 7316SOL     OW23844   1.532   7.264   3.745
 7316SOL    HW123845   1.503   7.289   3.832
 7316SOL    HW223846   1.466   7.301   3.686
 7317SOL     OW23847   0.156   2.281  12.283
 7317SOL    HW123848   0.189   2.301  12.371
 7317SOL    HW223849   0.190   2.352  12.228
 7318SOL     OW23850   6.017   4.458   8.053
 7318SOL    HW123851   5.986   4.423   7.970
 7318SOL    HW223852   6.072   4.388   8.089
 7319SOL     OW23853   5.525  10.014  12.717
 7319SOL    HW123854   5.618  10.006  12.737
 7319SOL    HW223855   5.486   9.933  12.751
 7320SOL     OW23856   5.525   7.614  12.831
 7320SOL    HW123857   5.549   7.522  12.842
 7320SOL    HW223858   5.465   7.631  12.904
 7321SOL     OW23859  14.676   2.886   4.897
 7321SOL    HW123860  14.765   2.919   4.905
 7321SOL    HW223861  14.685   2.791   4.895
 7322SOL     OW23862  10.538  12.597   0.770
 7322SOL    HW123863  10.592  12.627   0.697
 7322SOL    HW223864  10.511  12.677   0.815
 7323SOL     OW23865  12.196   3.966   5.737
 7323SOL    HW123866  12.237   4.040   5.781
 7323SOL    HW223867  12.135   3.930   5.802
 7324SOL     OW23868   2.508   4.612  12.017
 7324SOL    HW123869   2.476   4.676  12.080
 7324SOL    HW223870   2.552   4.664  11.950
 7325SOL     OW23871   2.349   5.817   4.913
 7325SOL    HW123872   2.388   5.786   4.995
 7325SOL    HW223873   2.275   5.871   4.941
 7326SOL     OW23874   2.290  10.117   1.024
 7326SOL    HW123875   2.227  10.125   0.952
 7326SOL    HW223876   2.313  10.024   1.025
 7327SOL     OW23877   3.197   7.107  12.417
 7327SOL    HW123878   3.215   7.200  12.431
 7327SOL    HW223879   3.221   7.091  12.326
 7328SOL     OW23880   7.290   6.911   0.776
 7328SOL    HW123881   7.235   6.975   0.821
 7328SOL    HW223882   7.333   6.960   0.706
 7329SOL     OW23883   3.476   2.438   0.985
 7329SOL    HW123884   3.468   2.432   1.080
 7329SOL    HW223885   3.551   2.384   0.963
 7330SOL     OW23886   0.528   3.015   1.577
 7330SOL    HW123887   0.601   3.026   1.515
 7330SOL    HW223888   0.470   3.089   1.560
 7331SOL     OW23889   5.171   9.392   0.477
 7331SOL    HW123890   5.163   9.444   0.556
 7331SOL    HW223891   5.142   9.450   0.407
 7332SOL     OW23892  11.664  11.859   0.153
 7332SOL    HW123893  11.641  11.902   0.236
 7332SOL    HW223894  11.729  11.793   0.177
 7333SOL     OW23895  14.824   4.286  10.594
 7333SOL    HW123896   0.050   4.302  10.582
 7333SOL    HW223897  14.783   4.326  10.517
 7334SOL     OW23898   8.323  11.779  11.034
 7334SOL    HW123899   8.295  11.804  10.947
 7334SOL    HW223900   8.303  11.685  11.041
 7335SOL     OW23901   2.754  13.227  14.095
 7335SOL    HW123902   2.827  13.206  14.037
 7335SOL    HW223903   2.689  13.159  14.077
 7336SOL     OW23904   2.942   5.190   2.217
 7336SOL    HW123905   3.037   5.198   2.219
 7336SOL    HW223906   2.915   5.253   2.150
 7337SOL     OW23907   0.851   1.005   2.756
 7337SOL    HW123908   0.810   1.060   2.689
 7337SOL    HW223909   0.866   0.921   2.712
 7338SOL     OW23910   0.174   9.357   5.704
 7338SOL    HW123911   0.115   9.414   5.657
 7338SOL    HW223912   0.236   9.416   5.747
 7339SOL     OW23913  14.824   0.942   9.499
 7339SOL    HW123914   0.031   0.892   9.467
 7339SOL    HW223915  14.827   0.933   9.594
 7340SOL     OW23916  11.804  13.347   2.796
 7340SOL    HW123917  11.742  13.274   2.805
 7340SOL    HW223918  11.873  13.314   2.739
 7341SOL     OW23919  12.720  11.843  13.637
 7341SOL    HW123920  12.775  11.776  13.677
 7341SOL    HW223921  12.647  11.854  13.699
 7342SOL     OW23922  11.571   2.815  11.275
 7342SOL    HW123923  11.629   2.739  11.274
 7342SOL    HW223924  11.487   2.780  11.306
 7343SOL     OW23925   7.543   1.098  14.656
 7343SOL    HW123926   7.565   1.008  14.634
 7343SOL    HW223927   7.592   1.116  14.737
 7344SOL     OW23928  13.657   8.233   8.171
 7344SOL    HW123929  13.644   8.144   8.204
 7344SOL    HW223930  13.619   8.289   8.239
 7345SOL     OW23931   8.241   8.422   2.000
 7345SOL    HW123932   8.227   8.348   1.941
 7345SOL    HW223933   8.155   8.463   2.008
 7346SOL     OW23934   8.145   8.518   4.206
 7346SOL    HW123935   8.152   8.603   4.163
 7346SOL    HW223936   8.196   8.459   4.151
 7347SOL     OW23937  11.644   3.768   5.168
 7347SOL    HW123938  11.654   3.702   5.237
 7347SOL    HW223939  11.729   3.812   5.164
 7348SOL     OW23940   6.835   4.318   0.522
 7348SOL    HW123941   6.894   4.367   0.580
 7348SOL    HW223942   6.762   4.377   0.505
 7349SOL     OW23943   8.124   4.821   8.337
 7349SOL    HW123944   8.182   4.863   8.273
 7349SOL    HW223945   8.181   4.761   8.386
 7350SOL     OW23946   3.206   8.494  12.746
 7350SOL    HW123947   3.211   8.400  12.762
 7350SOL    HW223948   3.297   8.524  12.743
 7351SOL     OW23949   5.940   3.336   7.111
 7351SOL    HW123950   6.028   3.345   7.074
 7351SOL    HW223951   5.903   3.424   7.109
 7352SOL     OW23952   7.486  10.717  14.122
 7352SOL    HW123953   7.495  10.779  14.195
 7352SOL    HW223954   7.560  10.657  14.133
 7353SOL     OW23955   9.543  14.006   7.309
 7353SOL    HW123956   9.562  13.924   7.354
 7353SOL    HW223957   9.463  13.989   7.260
 7354SOL     OW23958   7.987   6.047   0.663
 7354SOL    HW123959   7.948   6.026   0.748
 7354SOL    HW223960   8.058   5.984   0.653
 7355SOL     OW23961   4.382   3.816  13.781
 7355SOL    HW123962   4.451   3.831  13.845
 7355SOL    HW223963   4.427   3.820  13.696
 7356SOL     OW23964  12.190   3.973   8.451
 7356SOL    HW123965  12.126   3.991   8.383
 7356SOL    HW223966  12.138   3.939   8.524
 7357SOL     OW23967   8.995   1.891   2.383
 7357SOL    HW123968   9.065   1.858   2.439
 7357SOL    HW223969   8.927   1.922   2.444
 7358SOL     OW23970  14.581   7.659  12.410
 7358SOL    HW123971  14.530   7.585  12.443
 7358SOL    HW223972  14.670   7.624  12.401
 7359SOL     OW23973   6.803   9.968   5.934
 7359SOL    HW123974   6.888   9.972   5.976
 7359SOL    HW223975   6.772  10.059   5.935
 7360SOL     OW23976   2.170   8.622  11.085
 7360SOL    HW123977   2.089   8.571  11.083
 7360SOL    HW223978   2.238   8.561  11.055
 7361SOL     OW23979   3.939   2.749   5.551
 7361SOL    HW123980   3.950   2.710   5.465
 7361SOL    HW223981   3.852   2.721   5.580
 7362SOL     OW23982   6.641  10.737   3.039
 7362SOL    HW123983   6.545  10.744   3.037
 7362SOL    HW223984   6.661  10.672   2.971
 7363SOL     OW23985  13.936   6.069   0.297
 7363SOL    HW123986  13.864   6.122   0.333
 7363SOL    HW223987  14.001   6.133   0.268
 7364SOL     OW23988   2.355   0.332   9.200
 7364SOL    HW123989   2.431   0.384   9.225
 7364SOL    HW223990   2.364   0.321   9.105
 7365SOL     OW23991   0.074   6.708   0.061
 7365SOL    HW123992  14.858   6.748   0.083
 7365SOL    HW223993   0.063   6.616   0.088
 7366SOL     OW23994  10.081  14.796   2.730
 7366SOL    HW123995  10.082  14.758   2.817
 7366SOL    HW223996  10.086  14.721   2.671
 7367SOL     OW23997  14.412   1.428   0.247
 7367SOL    HW123998  14.380   1.517   0.263
 7367SOL    HW223999  14.350   1.391   0.184
 7368SOL     OW24000  14.053  13.745  12.439
 7368SOL    HW124001  14.086  13.733  12.528
 7368SOL    HW224002  14.116  13.804  12.398
 7369SOL     OW24003   9.121   8.920  12.482
 7369SOL    HW124004   9.200   8.905  12.431
 7369SOL    HW224005   9.149   8.981  12.551
 7370SOL     OW24006   4.796   3.866   7.536
 7370SOL    HW124007   4.840   3.856   7.621
 7370SOL    HW224008   4.722   3.806   7.539
 7371SOL     OW24009   7.668   6.678   3.532
 7371SOL    HW124010   7.580   6.640   3.528
 7371SOL    HW224011   7.719   6.627   3.469
 7372SOL     OW24012   3.586  10.598   0.379
 7372SOL    HW124013   3.607  10.668   0.318
 7372SOL    HW224014   3.665  10.543   0.382
 7373SOL     OW24015  12.777  11.689  12.145
 7373SOL    HW124016  12.846  11.704  12.210
 7373SOL    HW224017  12.727  11.615  12.180
 7374SOL     OW24018   9.346   8.809   0.613
 7374SOL    HW124019   9.331   8.715   0.600
 7374SOL    HW224020   9.434   8.814   0.650
 7375SOL     OW24021   4.310   3.238  12.638
 7375SOL    HW124022   4.380   3.202  12.692
 7375SOL    HW224023   4.351   3.310  12.590
 7376SOL     OW24024   1.045   8.391   6.899
 7376SOL    HW124025   1.140   8.384   6.891
 7376SOL    HW224026   1.030   8.483   6.919
 7377SOL     OW24027   1.497   0.785   3.601
 7377SOL    HW124028   1.591   0.771   3.585
 7377SOL    HW224029   1.471   0.710   3.655
 7378SOL     OW24030  13.479   9.733   1.578
 7378SOL    HW124031  13.572   9.721   1.594
 7378SOL    HW224032  13.467   9.828   1.575
 7379SOL     OW24033   9.439   5.421   5.474
 7379SOL    HW124034   9.434   5.472   5.554
 7379SOL    HW224035   9.471   5.335   5.502
 7380SOL     OW24036   6.138   7.346  10.050
 7380SOL    HW124037   6.118   7.381   9.963
 7380SOL    HW224038   6.141   7.423  10.106
 7381SOL     OW24039   9.099   0.769   7.175
 7381SOL    HW124040   9.150   0.689   7.157
 7381SOL    HW224041   9.153   0.818   7.237
 7382SOL     OW24042  13.866   2.689   4.708
 7382SOL    HW124043  13.806   2.699   4.782
 7382SOL    HW224044  13.885   2.595   4.706
 7383SOL     OW24045  11.453   6.753  14.203
 7383SOL    HW124046  11.512   6.736  14.129
 7383SOL    HW224047  11.508   6.742  14.280
 7384SOL     OW24048   0.291   9.041   4.846
 7384SOL    HW124049   0.318   8.954   4.818
 7384SOL    HW224050   0.216   9.062   4.791
 7385SOL     OW24051   8.363   9.374   9.670
 7385SOL    HW124052   8.406   9.399   9.752
 7385SOL    HW224053   8.289   9.320   9.698
 7386SOL     OW24054   6.383   5.472   2.910
 7386SOL    HW124055   6.447   5.456   2.841
 7386SOL    HW224056   6.383   5.392   2.962
 7387SOL     OW24057   3.462   3.354   8.472
 7387SOL    HW124058   3.435   3.345   8.381
 7387SOL    HW224059   3.432   3.442   8.497
 7388SOL     OW24060  14.146  11.498   1.042
 7388SOL    HW124061  14.140  11.587   1.010
 7388SOL    HW224062  14.225  11.463   1.001
 7389SOL     OW24063   3.050   6.845  11.665
 7389SOL    HW124064   2.965   6.878  11.696
 7389SOL    HW224065   3.091   6.807  11.742
 7390SOL     OW24066   9.940   2.879   1.243
 7390SOL    HW124067  10.010   2.916   1.297
 7390SOL    HW224068   9.880   2.952   1.228
 7391SOL     OW24069  10.440   1.859   4.649
 7391SOL    HW124070  10.508   1.887   4.710
 7391SOL    HW224071  10.375   1.815   4.704
 7392SOL     OW24072  14.141   6.302   4.241
 7392SOL    HW124073  14.098   6.218   4.258
 7392SOL    HW224074  14.116   6.357   4.316
 7393SOL     OW24075  12.815   7.802  11.009
 7393SOL    HW124076  12.807   7.890  11.046
 7393SOL    HW224077  12.899   7.804  10.962
 7394SOL     OW24078   4.152   1.508  13.532
 7394SOL    HW124079   4.107   1.580  13.575
 7394SOL    HW224080   4.166   1.538  13.443
 7395SOL     OW24081   9.205   3.842  12.147
 7395SOL    HW124082   9.250   3.825  12.064
 7395SOL    HW224083   9.186   3.755  12.182
 7396SOL     OW24084   5.822   3.431  14.011
 7396SOL    HW124085   5.752   3.442  14.076
 7396SOL    HW224086   5.893   3.390  14.060
 7397SOL     OW24087   8.563  13.712  11.784
 7397SOL    HW124088   8.482  13.758  11.809
 7397SOL    HW224089   8.632  13.757  11.833
 7398SOL     OW24090   5.099  11.092   8.079
 7398SOL    HW124091   5.167  11.084   8.012
 7398SOL    HW224092   5.100  11.008   8.124
 7399SOL     OW24093   3.065   7.094  10.131
 7399SOL    HW124094   3.098   7.173  10.087
 7399SOL    HW224095   3.088   7.108  10.223
 7400SOL     OW24096   0.625   4.795   6.634
 7400SOL    HW124097   0.592   4.751   6.712
 7400SOL    HW224098   0.600   4.737   6.562
 7401SOL     OW24099   4.905   5.514  10.216
 7401SOL    HW124100   4.886   5.463  10.295
 7401SOL    HW224101   5.000   5.523  10.216
 7402SOL     OW24102  10.436   7.054   9.712
 7402SOL    HW124103  10.467   7.057   9.802
 7402SOL    HW224104  10.516   7.061   9.659
 7403SOL     OW24105  10.509   2.122   6.397
 7403SOL    HW124106  10.467   2.183   6.337
 7403SOL    HW224107  10.548   2.177   6.464
 7404SOL     OW24108  14.087   1.427  11.037
 7404SOL    HW124109  14.103   1.453  11.127
 7404SOL    HW224110  14.174   1.420  10.998
 7405SOL     OW24111  10.818  13.443   1.703
 7405SOL    HW124112  10.855  13.523   1.665
 7405SOL    HW224113  10.874  13.424   1.779
 7406SOL     OW24114   6.024   7.713  13.301
 7406SOL    HW124115   6.068   7.632  13.275
 7406SOL    HW224116   5.934   7.686  13.324
 7407SOL     OW24117  12.008   8.883   5.838
 7407SOL    HW124118  11.947   8.857   5.907
 7407SOL    HW224119  12.058   8.803   5.819
 7408SOL     OW24120  10.657  13.340  14.531
 7408SOL    HW124121  10.605  13.406  14.486
 7408SOL    HW224122  10.653  13.364  14.624
 7409SOL     OW24123   0.229   1.454  12.611
 7409SOL    HW124124   0.156   1.467  12.672
 7409SOL    HW224125   0.256   1.542  12.585
 7410SOL     OW24126   3.858   2.949   0.748
 7410SOL    HW124127   3.780   2.938   0.802
 7410SOL    HW224128   3.834   3.014   0.683
 7411SOL     OW24129   8.311   3.258  13.516
 7411SOL    HW124130   8.358   3.251  13.598
 7411SOL    HW224131   8.379   3.257  13.449
 7412SOL     OW24132  14.779   5.637   4.857
 7412SOL    HW124133  14.797   5.651   4.949
 7412SOL    HW224134  14.687   5.660   4.847
 7413SOL     OW24135   9.914   1.468   1.695
 7413SOL    HW124136   9.968   1.395   1.724
 7413SOL    HW224137   9.833   1.427   1.665
 7414SOL     OW24138  14.366   1.522  12.890
 7414SOL    HW124139  14.337   1.446  12.941
 7414SOL    HW224140  14.351   1.496  12.799
 7415SOL     OW24141  13.252   6.176  10.255
 7415SOL    HW124142  13.236   6.217  10.340
 7415SOL    HW224143  13.224   6.085  10.266
 7416SOL     OW24144  13.343   3.936   7.927
 7416SOL    HW124145  13.349   3.993   7.851
 7416SOL    HW224146  13.387   3.855   7.901
 7417SOL     OW24147   9.535  13.155   7.254
 7417SOL    HW124148   9.619  13.200   7.263
 7417SOL    HW224149   9.473  13.212   7.299
 7418SOL     OW24150  11.276   6.103   5.400
 7418SOL    HW124151  11.291   6.192   5.368
 7418SOL    HW224152  11.219   6.063   5.334
 7419SOL     OW24153  14.173   4.777   8.725
 7419SOL    HW124154  14.138   4.694   8.694
 7419SOL    HW224155  14.247   4.795   8.668
 7420SOL     OW24156  11.617  14.034  14.149
 7420SOL    HW124157  11.699  13.997  14.181
 7420SOL    HW224158  11.641  14.081  14.069
 7421SOL     OW24159  12.942   7.253  12.640
 7421SOL    HW124160  12.941   7.163  12.606
 7421SOL    HW224161  12.872   7.298  12.592
 7422SOL     OW24162   2.423   4.856   0.032
 7422SOL    HW124163   2.426   4.870  14.806
 7422SOL    HW224164   2.509   4.885   0.064
 7423SOL     OW24165   8.759   6.245   0.594
 7423SOL    HW124166   8.728   6.156   0.581
 7423SOL    HW224167   8.754   6.259   0.689
 7424SOL     OW24168   2.666   4.644   2.570
 7424SOL    HW124169   2.677   4.614   2.661
 7424SOL    HW224170   2.755   4.647   2.535
 7425SOL     OW24171   1.336   4.936   6.229
 7425SOL    HW124172   1.420   4.919   6.272
 7425SOL    HW224173   1.314   5.025   6.255
 7426SOL     OW24174  10.299   0.519  12.701
 7426SOL    HW124175  10.394   0.519  12.714
 7426SOL    HW224176  10.263   0.542  12.786
 7427SOL     OW24177   7.273  14.662   0.526
 7427SOL    HW124178   7.246  14.596   0.590
 7427SOL    HW224179   7.267  14.745   0.573
 7428SOL     OW24180   7.810  10.924   1.300
 7428SOL    HW124181   7.740  10.963   1.352
 7428SOL    HW224182   7.765  10.865   1.240
 7429SOL     OW24183  12.851   5.956  10.341
 7429SOL    HW124184  12.891   5.971  10.427
 7429SOL    HW224185  12.775   6.014  10.339
 7430SOL     OW24186  10.563   9.895  10.901
 7430SOL    HW124187  10.624   9.833  10.859
 7430SOL    HW224188  10.597   9.981  10.877
 7431SOL     OW24189   9.211  10.452  11.651
 7431SOL    HW124190   9.246  10.535  11.683
 7431SOL    HW224191   9.128  10.441  11.697
 7432SOL     OW24192   4.774   2.608  14.689
 7432SOL    HW124193   4.728   2.619  14.772
 7432SOL    HW224194   4.720   2.653  14.625
 7433SOL     OW24195   0.217  13.593  14.092
 7433SOL    HW124196   0.246  13.668  14.039
 7433SOL    HW224197   0.126  13.579  14.065
 7434SOL     OW24198   8.529   3.490   5.910
 7434SOL    HW124199   8.609   3.441   5.931
 7434SOL    HW224200   8.482   3.496   5.993
 7435SOL     OW24201   4.126  13.142   1.549
 7435SOL    HW124202   4.102  13.226   1.511
 7435SOL    HW224203   4.192  13.107   1.489
 7436SOL     OW24204  11.271   3.171   2.846
 7436SOL    HW124205  11.294   3.081   2.868
 7436SOL    HW224206  11.203   3.163   2.779
 7437SOL     OW24207  14.238   0.973   9.418
 7437SOL    HW124208  14.280   0.901   9.370
 7437SOL    HW224209  14.231   0.942   9.508
 7438SOL     OW24210   4.829   6.925   9.448
 7438SOL    HW124211   4.880   6.887   9.519
 7438SOL    HW224212   4.752   6.868   9.440
 7439SOL     OW24213  12.268   6.181   0.565
 7439SOL    HW124214  12.353   6.220   0.543
 7439SOL    HW224215  12.288   6.119   0.635
 7440SOL     OW24216   2.608   2.254   6.990
 7440SOL    HW124217   2.638   2.299   7.069
 7440SOL    HW224218   2.674   2.275   6.924
 7441SOL     OW24219   3.184   2.167  11.493
 7441SOL    HW124220   3.237   2.162  11.413
 7441SOL    HW224221   3.131   2.087  11.491
 7442SOL     OW24222   1.416   6.003  14.585
 7442SOL    HW124223   1.481   5.963  14.643
 7442SOL    HW224224   1.333   5.962  14.612
 7443SOL     OW24225  11.206   9.804  11.080
 7443SOL    HW124226  11.180   9.796  11.171
 7443SOL    HW224227  11.288   9.753  11.074
 7444SOL     OW24228   3.810   1.115   2.689
 7444SOL    HW124229   3.881   1.053   2.673
 7444SOL    HW224230   3.853   1.199   2.699
 7445SOL     OW24231   9.156   0.070   9.943
 7445SOL    HW124232   9.206   0.150   9.928
 7445SOL    HW224233   9.201   0.003   9.892
 7446SOL     OW24234   3.906   0.591   1.217
 7446SOL    HW124235   3.834   0.531   1.238
 7446SOL    HW224236   3.964   0.539   1.161
 7447SOL     OW24237  11.912   1.479   8.444
 7447SOL    HW124238  12.004   1.492   8.421
 7447SOL    HW224239  11.894   1.388   8.421
 7448SOL     OW24240   4.836   6.666   9.053
 7448SOL    HW124241   4.875   6.703   9.132
 7448SOL    HW224242   4.856   6.573   9.057
 7449SOL     OW24243   2.408   9.840   7.905
 7449SOL    HW124244   2.480   9.777   7.912
 7449SOL    HW224245   2.416   9.876   7.817
 7450SOL     OW24246  14.258  13.298  12.187
 7450SOL    HW124247  14.165  13.277  12.177
 7450SOL    HW224248  14.260  13.393  12.203
 7451SOL     OW24249   2.738  14.120   9.417
 7451SOL    HW124250   2.751  14.215   9.421
 7451SOL    HW224251   2.659  14.109   9.364
 7452SOL     OW24252   7.317   5.007   3.347
 7452SOL    HW124253   7.253   5.077   3.355
 7452SOL    HW224254   7.398   5.044   3.384
 7453SOL     OW24255   5.094  11.409  13.665
 7453SOL    HW124256   5.047  11.484  13.700
 7453SOL    HW224257   5.163  11.391  13.730
 7454SOL     OW24258   0.828   1.283   0.908
 7454SOL    HW124259   0.773   1.347   0.863
 7454SOL    HW224260   0.835   1.210   0.848
 7455SOL     OW24261  14.501  12.885   6.406
 7455SOL    HW124262  14.450  12.840   6.473
 7455SOL    HW224263  14.534  12.816   6.348
 7456SOL     OW24264   5.027   0.646   0.692
 7456SOL    HW124265   5.008   0.724   0.639
 7456SOL    HW224266   5.098   0.603   0.645
 7457SOL     OW24267   7.502  10.051   9.019
 7457SOL    HW124268   7.529  10.120   9.078
 7457SOL    HW224269   7.537   9.971   9.058
 7458SOL     OW24270  13.985   2.927   9.915
 7458SOL    HW124271  13.946   2.846   9.948
 7458SOL    HW224272  14.077   2.904   9.899
 7459SOL     OW24273   0.860   3.600   9.750
 7459SOL    HW124274   0.917   3.550   9.809
 7459SOL    HW224275   0.842   3.540   9.678
 7460SOL     OW24276   9.508   6.169  14.658
 7460SOL    HW124277   9.567   6.143  14.728
 7460SOL    HW224278   9.493   6.262  14.673
 7461SOL     OW24279   1.968   4.464   2.311
 7461SOL    HW124280   2.040   4.417   2.268
 7461SOL    HW224281   1.910   4.395   2.342
 7462SOL     OW24282   9.496   5.953   3.990
 7462SOL    HW124283   9.573   5.943   4.047
 7462SOL    HW224284   9.464   6.041   4.009
 7463SOL     OW24285   1.560   9.888   6.467
 7463SOL    HW124286   1.522   9.952   6.406
 7463SOL    HW224287   1.553   9.805   6.421
 7464SOL     OW24288   9.376  13.073   7.801
 7464SOL    HW124289   9.283  13.080   7.779
 7464SOL    HW224290   9.385  12.986   7.840
 7465SOL     OW24291  13.653   0.996   4.039
 7465SOL    HW124292  13.666   0.961   3.951
 7465SOL    HW224293  13.735   0.979   4.084
 7466SOL     OW24294   8.166  13.340  11.057
 7466SOL    HW124295   8.101  13.336  11.127
 7466SOL    HW224296   8.116  13.359  10.978
 7467SOL     OW24297  11.439   2.402  12.898
 7467SOL    HW124298  11.481   2.317  12.912
 7467SOL    HW224299  11.365   2.402  12.959
 7468SOL     OW24300   6.489   3.508   0.569
 7468SOL    HW124301   6.431   3.545   0.634
 7468SOL    HW224302   6.448   3.529   0.485
 7469SOL     OW24303   9.057   0.271   2.034
 7469SOL    HW124304   9.101   0.349   2.070
 7469SOL    HW224305   9.091   0.199   2.087
 7470SOL     OW24306  11.585   6.912   9.772
 7470SOL    HW124307  11.605   6.891   9.681
 7470SOL    HW224308  11.489   6.919   9.773
 7471SOL     OW24309   8.857   0.198   7.583
 7471SOL    HW124310   8.938   0.149   7.597
 7471SOL    HW224311   8.807   0.145   7.521
 7472SOL     OW24312   5.965   4.886   2.880
 7472SOL    HW124313   5.917   4.803   2.873
 7472SOL    HW224314   5.918   4.946   2.823
 7473SOL     OW24315  12.025   6.388   5.324
 7473SOL    HW124316  12.031   6.472   5.368
 7473SOL    HW224317  12.113   6.351   5.328
 7474SOL     OW24318  13.484  11.762   6.996
 7474SOL    HW124319  13.538  11.840   6.981
 7474SOL    HW224320  13.516  11.698   6.932
 7475SOL     OW24321  13.915  11.546   4.834
 7475SOL    HW124322  13.820  11.546   4.834
 7475SOL    HW224323  13.939  11.456   4.855
 7476SOL     OW24324   5.541   8.437   2.571
 7476SOL    HW124325   5.507   8.405   2.655
 7476SOL    HW224326   5.515   8.370   2.508
 7477SOL     OW24327   0.553   0.908  11.325
 7477SOL    HW124328   0.604   0.988  11.334
 7477SOL    HW224329   0.515   0.913  11.237
 7478SOL     OW24330  10.589   3.741   9.381
 7478SOL    HW124331  10.664   3.741   9.320
 7478SOL    HW224332  10.579   3.832   9.407
 7479SOL     OW24333   7.149   4.420  13.666
 7479SOL    HW124334   7.100   4.502  13.660
 7479SOL    HW224335   7.107   4.373  13.739
 7480SOL     OW24336   9.941   8.096   9.538
 7480SOL    HW124337   9.859   8.122   9.581
 7480SOL    HW224338   9.981   8.034   9.598
 7481SOL     OW24339   7.068  10.161  13.619
 7481SOL    HW124340   7.010  10.211  13.676
 7481SOL    HW224341   7.125  10.113  13.679
 7482SOL     OW24342  11.783   5.379   7.740
 7482SOL    HW124343  11.795   5.323   7.817
 7482SOL    HW224344  11.692   5.365   7.714
 7483SOL     OW24345   9.194   7.925   2.155
 7483SOL    HW124346   9.105   7.957   2.166
 7483SOL    HW224347   9.188   7.830   2.170
 7484SOL     OW24348  11.001  12.954   2.414
 7484SOL    HW124349  10.940  12.890   2.451
 7484SOL    HW224350  10.944  13.020   2.373
 7485SOL     OW24351   8.747  11.379   5.725
 7485SOL    HW124352   8.672  11.376   5.665
 7485SOL    HW224353   8.731  11.458   5.778
 7486SOL     OW24354   0.171   6.440   4.535
 7486SOL    HW124355   0.076   6.446   4.545
 7486SOL    HW224356   0.191   6.500   4.462
 7487SOL     OW24357   7.298  13.550   3.513
 7487SOL    HW124358   7.257  13.548   3.600
 7487SOL    HW224359   7.321  13.642   3.499
 7488SOL     OW24360  13.445   3.184  10.479
 7488SOL    HW124361  13.401   3.133  10.410
 7488SOL    HW224362  13.480   3.260  10.434
 7489SOL     OW24363   1.160   0.967  10.753
 7489SOL    HW124364   1.203   1.050  10.778
 7489SOL    HW224365   1.125   0.985  10.665
 7490SOL     OW24366   4.271   7.733  13.664
 7490SOL    HW124367   4.273   7.645  13.625
 7490SOL    HW224368   4.193   7.734  13.718
 7491SOL     OW24369  12.129  10.210   5.763
 7491SOL    HW124370  12.084  10.255   5.835
 7491SOL    HW224371  12.058  10.170   5.712
 7492SOL     OW24372   2.272   8.216   8.400
 7492SOL    HW124373   2.181   8.205   8.374
 7492SOL    HW224374   2.321   8.157   8.342
 7493SOL     OW24375  13.228   8.078   3.547
 7493SOL    HW124376  13.158   8.098   3.485
 7493SOL    HW224377  13.244   8.161   3.592
 7494SOL     OW24378  11.166   5.432  11.192
 7494SOL    HW124379  11.195   5.349  11.154
 7494SOL    HW224380  11.244   5.466  11.237
 7495SOL     OW24381   6.188  13.830   9.957
 7495SOL    HW124382   6.167  13.789   9.873
 7495SOL    HW224383   6.174  13.923   9.942
 7496SOL     OW24384   9.841   4.412  10.725
 7496SOL    HW124385   9.867   4.398  10.817
 7496SOL    HW224386   9.842   4.324  10.687
 7497SOL     OW24387   3.201  13.403  10.188
 7497SOL    HW124388   3.235  13.375  10.273
 7497SOL    HW224389   3.276  13.445  10.145
 7498SOL     OW24390   1.450   6.821   3.840
 7498SOL    HW124391   1.366   6.845   3.801
 7498SOL    HW224392   1.472   6.894   3.897
 7499SOL     OW24393   7.612   4.622   2.062
 7499SOL    HW124394   7.659   4.558   2.008
 7499SOL    HW224395   7.527   4.632   2.019
 7500SOL     OW24396   9.099  14.269   5.565
 7500SOL    HW124397   9.098  14.276   5.661
 7500SOL    HW224398   9.133  14.181   5.548
 7501SOL     OW24399   4.164  14.851   0.422
 7501SOL    HW124400   4.134   0.064   0.464
 7501SOL    HW224401   4.124  14.852   0.336
 7502SOL     OW24402   7.217   7.345   0.860
 7502SOL    HW124403   7.295   7.398   0.876
 7502SOL    HW224404   7.224   7.321   0.767
 7503SOL     OW24405  11.624   0.270  13.850
 7503SOL    HW124406  11.660   0.359  13.845
 7503SOL    HW224407  11.661   0.235  13.931
 7504SOL     OW24408  13.609   5.419   7.015
 7504SOL    HW124409  13.560   5.480   7.071
 7504SOL    HW224410  13.606   5.459   6.928
 7505SOL     OW24411   1.353  14.849   0.833
 7505SOL    HW124412   1.423  14.787   0.852
 7505SOL    HW224413   1.397   0.054   0.790
 7506SOL     OW24414  11.211  10.416  13.772
 7506SOL    HW124415  11.301  10.404  13.802
 7506SOL    HW224416  11.197  10.345  13.709
 7507SOL     OW24417  11.954   9.249   3.204
 7507SOL    HW124418  11.924   9.329   3.248
 7507SOL    HW224419  11.971   9.277   3.114
 7508SOL     OW24420  12.261   5.523  10.257
 7508SOL    HW124421  12.175   5.512  10.299
 7508SOL    HW224422  12.240   5.563  10.172
 7509SOL     OW24423  12.818   8.929   2.674
 7509SOL    HW124424  12.892   8.908   2.731
 7509SOL    HW224425  12.745   8.946   2.734
 7510SOL     OW24426  13.941   1.413  10.035
 7510SOL    HW124427  13.912   1.453   9.953
 7510SOL    HW224428  14.024   1.455  10.055
 7511SOL     OW24429   8.077   7.665   4.405
 7511SOL    HW124430   8.139   7.736   4.413
 7511SOL    HW224431   7.998   7.696   4.450
 7512SOL     OW24432   0.472  12.068   1.960
 7512SOL    HW124433   0.389  12.081   2.005
 7512SOL    HW224434   0.497  11.979   1.981
 7513SOL     OW24435  13.539   7.269   8.174
 7513SOL    HW124436  13.547   7.184   8.131
 7513SOL    HW224437  13.450   7.299   8.154
 7514SOL     OW24438   8.339   5.689   4.817
 7514SOL    HW124439   8.318   5.761   4.758
 7514SOL    HW224440   8.261   5.635   4.818
 7515SOL     OW24441   3.554  12.283   5.365
 7515SOL    HW124442   3.623  12.254   5.305
 7515SOL    HW224443   3.536  12.373   5.339
 7516SOL     OW24444  12.527  11.548  14.357
 7516SOL    HW124445  12.521  11.644  14.358
 7516SOL    HW224446  12.568  11.526  14.441
 7517SOL     OW24447   4.427   0.962   7.045
 7517SOL    HW124448   4.338   0.989   7.071
 7517SOL    HW224449   4.475   0.958   7.128
 7518SOL     OW24450  10.791  13.200  10.106
 7518SOL    HW124451  10.774  13.200  10.012
 7518SOL    HW224452  10.819  13.289  10.125
 7519SOL     OW24453  11.448   9.203  10.014
 7519SOL    HW124454  11.385   9.255  10.063
 7519SOL    HW224455  11.514   9.178  10.080
 7520SOL     OW24456  12.995   6.984  10.764
 7520SOL    HW124457  13.082   6.950  10.780
 7520SOL    HW224458  12.994   7.007  10.671
 7521SOL     OW24459  12.623   6.882  14.168
 7521SOL    HW124460  12.611   6.864  14.261
 7521SOL    HW224461  12.711   6.917  14.161
 7522SOL     OW24462   2.438   2.216  10.960
 7522SOL    HW124463   2.423   2.189  10.870
 7522SOL    HW224464   2.518   2.269  10.956
 7523SOL     OW24465   0.033   6.824  12.597
 7523SOL    HW124466  14.838   6.869  12.540
 7523SOL    HW224467   0.082   6.767  12.537
 7524SOL     OW24468   3.420   4.534   5.528
 7524SOL    HW124469   3.451   4.448   5.559
 7524SOL    HW224470   3.497   4.574   5.488
 7525SOL     OW24471   7.163   4.713   8.198
 7525SOL    HW124472   7.101   4.783   8.177
 7525SOL    HW224473   7.137   4.683   8.285
 7526SOL     OW24474   1.874   3.373   6.901
 7526SOL    HW124475   1.805   3.338   6.845
 7526SOL    HW224476   1.906   3.298   6.951
 7527SOL     OW24477   2.174   0.686  10.563
 7527SOL    HW124478   2.154   0.639  10.482
 7527SOL    HW224479   2.179   0.618  10.630
 7528SOL     OW24480  14.655  13.441   3.707
 7528SOL    HW124481  14.671  13.416   3.616
 7528SOL    HW224482  14.664  13.359   3.757
 7529SOL     OW24483  11.071   4.473   7.893
 7529SOL    HW124484  11.001   4.416   7.859
 7529SOL    HW224485  11.141   4.414   7.918
 7530SOL     OW24486   4.698  14.780  13.137
 7530SOL    HW124487   4.610  14.814  13.122
 7530SOL    HW224488   4.745  14.852  13.180
 7531SOL     OW24489   7.695   7.837  11.185
 7531SOL    HW124490   7.773   7.887  11.207
 7531SOL    HW224491   7.641   7.897  11.133
 7532SOL     OW24492   2.215  11.888   9.702
 7532SOL    HW124493   2.211  11.893   9.606
 7532SOL    HW224494   2.240  11.798   9.720
 7533SOL     OW24495  10.893   1.006   9.964
 7533SOL    HW124496  10.943   0.996  10.045
 7533SOL    HW224497  10.806   0.973   9.985
 7534SOL     OW24498   8.106   0.496   6.593
 7534SOL    HW124499   8.019   0.463   6.617
 7534SOL    HW224500   8.100   0.591   6.605
 7535SOL     OW24501  14.216   3.007  10.987
 7535SOL    HW124502  14.171   2.926  10.960
 7535SOL    HW224503  14.304   2.998  10.951
 7536SOL     OW24504   2.736   7.725   0.440
 7536SOL    HW124505   2.824   7.762   0.433
 7536SOL    HW224506   2.682   7.779   0.382
 7537SOL     OW24507   0.529   1.139   2.422
 7537SOL    HW124508   0.485   1.081   2.483
 7537SOL    HW224509   0.469   1.146   2.348
 7538SOL     OW24510   7.270   5.601   0.260
 7538SOL    HW124511   7.240   5.511   0.249
 7538SOL    HW224512   7.365   5.595   0.270
 7539SOL     OW24513   2.415  13.749   5.551
 7539SOL    HW124514   2.461  13.780   5.630
 7539SOL    HW224515   2.431  13.654   5.551
 7540SOL     OW24516   2.327   8.446  13.961
 7540SOL    HW124517   2.411   8.491  13.950
 7540SOL    HW224518   2.306   8.457  14.054
 7541SOL     OW24519   7.966   1.749  12.630
 7541SOL    HW124520   7.951   1.792  12.546
 7541SOL    HW224521   7.927   1.662  12.620
 7542SOL     OW24522   5.156  14.420   7.008
 7542SOL    HW124523   5.217  14.348   6.994
 7542SOL    HW224524   5.073  14.388   6.972
 7543SOL     OW24525   4.154   1.343   4.105
 7543SOL    HW124526   4.222   1.389   4.154
 7543SOL    HW224527   4.072   1.384   4.133
 7544SOL     OW24528   7.816   7.569   3.440
 7544SOL    HW124529   7.881   7.590   3.507
 7544SOL    HW224530   7.736   7.612   3.471
 7545SOL     OW24531   2.036   7.341  13.797
 7545SOL    HW124532   2.031   7.436  13.805
 7545SOL    HW224533   2.073   7.313  13.881
 7546SOL     OW24534   7.475  12.707   5.455
 7546SOL    HW124535   7.420  12.628   5.455
 7546SOL    HW224536   7.517  12.707   5.369
 7547SOL     OW24537   4.721   0.811   2.024
 7547SOL    HW124538   4.661   0.848   2.090
 7547SOL    HW224539   4.682   0.837   1.940
 7548SOL     OW24540   2.111  12.300   1.466
 7548SOL    HW124541   2.175  12.245   1.421
 7548SOL    HW224542   2.092  12.370   1.404
 7549SOL     OW24543   8.401  10.632   1.979
 7549SOL    HW124544   8.459  10.582   2.037
 7549SOL    HW224545   8.425  10.602   1.891
 7550SOL     OW24546  13.412   7.890   1.762
 7550SOL    HW124547  13.454   7.955   1.706
 7550SOL    HW224548  13.391   7.817   1.704
 7551SOL     OW24549   8.897   9.815   1.281
 7551SOL    HW124550   8.985   9.792   1.254
 7551SOL    HW224551   8.863   9.870   1.210
 7552SOL     OW24552   5.909   3.835   3.243
 7552SOL    HW124553   5.816   3.853   3.253
 7552SOL    HW224554   5.945   3.915   3.205
 7553SOL     OW24555   2.764   5.970   4.679
 7553SOL    HW124556   2.687   5.961   4.736
 7553SOL    HW224557   2.755   5.900   4.615
 7554SOL     OW24558   4.675   0.995   4.880
 7554SOL    HW124559   4.585   1.016   4.857
 7554SOL    HW224560   4.670   0.965   4.971
 7555SOL     OW24561  13.826   5.065   3.260
 7555SOL    HW124562  13.798   5.135   3.319
 7555SOL    HW224563  13.864   5.000   3.318
 7556SOL     OW24564   1.689   0.693  14.644
 7556SOL    HW124565   1.690   0.599  14.663
 7556SOL    HW224566   1.722   0.700  14.555
 7557SOL     OW24567   2.983  10.381   4.636
 7557SOL    HW124568   3.000  10.466   4.596
 7557SOL    HW224569   3.021  10.387   4.724
 7558SOL     OW24570  11.284   8.027   5.789
 7558SOL    HW124571  11.308   7.940   5.821
 7558SOL    HW224572  11.193   8.038   5.816
 7559SOL     OW24573  14.574   7.196   0.802
 7559SOL    HW124574  14.665   7.184   0.832
 7559SOL    HW224575  14.582   7.208   0.708
 7560SOL     OW24576  12.276   5.167  13.242
 7560SOL    HW124577  12.372   5.170  13.239
 7560SOL    HW224578  12.248   5.218  13.165
 7561SOL     OW24579   3.595  12.305   5.646
 7561SOL    HW124580   3.604  12.285   5.553
 7561SOL    HW224581   3.684  12.326   5.675
 7562SOL     OW24582  10.076   0.992   6.222
 7562SOL    HW124583  10.152   1.049   6.236
 7562SOL    HW224584  10.079   0.972   6.128
 7563SOL     OW24585   8.212   0.575   8.742
 7563SOL    HW124586   8.283   0.512   8.754
 7563SOL    HW224587   8.224   0.608   8.653
 7564SOL     OW24588   2.440  13.471   3.787
 7564SOL    HW124589   2.459  13.539   3.852
 7564SOL    HW224590   2.438  13.518   3.704
 7565SOL     OW24591  12.420   2.837   2.505
 7565SOL    HW124592  12.383   2.809   2.422
 7565SOL    HW224593  12.423   2.932   2.500
 7566SOL     OW24594   8.261  13.593  10.322
 7566SOL    HW124595   8.244  13.500  10.305
 7566SOL    HW224596   8.321  13.620  10.252
 7567SOL     OW24597   7.415   0.782  14.495
 7567SOL    HW124598   7.470   0.819  14.564
 7567SOL    HW224599   7.377   0.704  14.535
 7568SOL     OW24600   5.207   9.861  10.206
 7568SOL    HW124601   5.249   9.776  10.190
 7568SOL    HW224602   5.167   9.883  10.122
 7569SOL     OW24603  12.873   0.149   0.124
 7569SOL    HW124604  12.830   0.229   0.154
 7569SOL    HW224605  12.810   0.108   0.065
 7570SOL     OW24606   4.727  10.672   6.475
 7570SOL    HW124607   4.822  10.671   6.484
 7570SOL    HW224608   4.709  10.737   6.407
 7571SOL     OW24609   7.075   2.430   9.246
 7571SOL    HW124610   6.991   2.452   9.207
 7571SOL    HW224611   7.059   2.431   9.340
 7572SOL     OW24612   6.380   0.345  10.309
 7572SOL    HW124613   6.375   0.440  10.310
 7572SOL    HW224614   6.468   0.325  10.343
 7573SOL     OW24615   2.384   5.418   3.709
 7573SOL    HW124616   2.375   5.335   3.663
 7573SOL    HW224617   2.300   5.461   3.698
 7574SOL     OW24618   5.947  11.881   6.628
 7574SOL    HW124619   5.883  11.950   6.646
 7574SOL    HW224620   5.901  11.800   6.648
 7575SOL     OW24621   3.215   0.265   6.982
 7575SOL    HW124622   3.227   0.325   7.056
 7575SOL    HW224623   3.228   0.319   6.905
 7576SOL     OW24624  13.811   4.207   1.380
 7576SOL    HW124625  13.827   4.146   1.452
 7576SOL    HW224626  13.767   4.281   1.422
 7577SOL     OW24627   2.867  11.218   4.810
 7577SOL    HW124628   2.893  11.137   4.855
 7577SOL    HW224629   2.772  11.222   4.821
 7578SOL     OW24630   9.725   3.947   0.981
 7578SOL    HW124631   9.634   3.958   0.953
 7578SOL    HW224632   9.776   3.982   0.908
 7579SOL     OW24633   8.042   5.318   9.225
 7579SOL    HW124634   8.053   5.412   9.213
 7579SOL    HW224635   8.093   5.278   9.155
 7580SOL     OW24636   7.470   8.576  12.895
 7580SOL    HW124637   7.516   8.516  12.953
 7580SOL    HW224638   7.439   8.646  12.951
 7581SOL     OW24639   5.237   4.747  13.332
 7581SOL    HW124640   5.321   4.701  13.320
 7581SOL    HW224641   5.179   4.707  13.267
 7582SOL     OW24642  10.572   4.186  11.626
 7582SOL    HW124643  10.640   4.221  11.684
 7582SOL    HW224644  10.574   4.092  11.641
 7583SOL     OW24645   8.905   4.818  11.465
 7583SOL    HW124646   8.833   4.778  11.515
 7583SOL    HW224647   8.917   4.761  11.390
 7584SOL     OW24648   2.000   8.968  10.950
 7584SOL    HW124649   1.919   8.986  10.997
 7584SOL    HW224650   2.065   8.950  11.018
 7585SOL     OW24651   6.224  13.695   4.465
 7585SOL    HW124652   6.299  13.665   4.517
 7585SOL    HW224653   6.158  13.720   4.530
 7586SOL     OW24654   1.192   5.436   9.355
 7586SOL    HW124655   1.133   5.388   9.296
 7586SOL    HW224656   1.279   5.403   9.333
 7587SOL     OW24657   7.410   4.739  12.460
 7587SOL    HW124658   7.387   4.712  12.549
 7587SOL    HW224659   7.330   4.778  12.426
 7588SOL     OW24660  13.989  13.992   5.971
 7588SOL    HW124661  13.898  13.963   5.972
 7588SOL    HW224662  14.021  13.966   5.884
 7589SOL     OW24663   8.999   1.480   8.678
 7589SOL    HW124664   9.055   1.503   8.603
 7589SOL    HW224665   8.917   1.451   8.638
 7590SOL     OW24666   3.228   3.221   8.892
 7590SOL    HW124667   3.233   3.301   8.945
 7590SOL    HW224668   3.156   3.171   8.931
 7591SOL     OW24669   8.901   9.961  14.181
 7591SOL    HW124670   8.950   9.898  14.128
 7591SOL    HW224671   8.959  10.037  14.188
 7592SOL     OW24672   2.334  12.373  12.309
 7592SOL    HW124673   2.312  12.357  12.401
 7592SOL    HW224674   2.353  12.286  12.274
 7593SOL     OW24675   0.953   3.370  11.165
 7593SOL    HW124676   1.028   3.425  11.186
 7593SOL    HW224677   0.883   3.432  11.143
 7594SOL     OW24678  12.944   9.697   4.952
 7594SOL    HW124679  13.022   9.692   5.008
 7594SOL    HW224680  12.886   9.758   4.997
 7595SOL     OW24681  12.877   4.986  11.595
 7595SOL    HW124682  12.919   5.026  11.519
 7595SOL    HW224683  12.798   5.036  11.609
 7596SOL     OW24684  13.285   9.660  13.991
 7596SOL    HW124685  13.237   9.676  14.072
 7596SOL    HW224686  13.367   9.707  14.001
 7597SOL     OW24687   5.165   1.637   3.703
 7597SOL    HW124688   5.249   1.622   3.746
 7597SOL    HW224689   5.100   1.598   3.762
 7598SOL     OW24690   9.492  14.796   6.921
 7598SOL    HW124691   9.467  14.733   6.988
 7598SOL    HW224692   9.430  14.783   6.850
 7599SOL     OW24693  13.620   0.432   6.327
 7599SOL    HW124694  13.610   0.382   6.408
 7599SOL    HW224695  13.568   0.511   6.340
 7600SOL     OW24696   7.979   6.490   1.966
 7600SOL    HW124697   7.921   6.429   1.920
 7600SOL    HW224698   7.941   6.499   2.054
 7601SOL     OW24699   1.182  12.331   5.339
 7601SOL    HW124700   1.222  12.416   5.359
 7601SOL    HW224701   1.254  12.279   5.300
 7602SOL     OW24702   8.944  11.446   4.526
 7602SOL    HW124703   9.010  11.385   4.496
 7602SOL    HW224704   8.891  11.464   4.449
 7603SOL     OW24705  13.790   4.071  10.724
 7603SOL    HW124706  13.824   4.105  10.807
 7603SOL    HW224707  13.699   4.099  10.723
 7604SOL     OW24708   6.870   5.974  12.928
 7604SOL    HW124709   6.809   6.045  12.943
 7604SOL    HW224710   6.942   5.990  12.990
 7605SOL     OW24711   8.855  12.919   2.558
 7605SOL    HW124712   8.852  12.831   2.519
 7605SOL    HW224713   8.948  12.940   2.561
 7606SOL     OW24714   9.347   9.110  13.653
 7606SOL    HW124715   9.436   9.137  13.634
 7606SOL    HW224716   9.329   9.143  13.741
 7607SOL     OW24717   9.503   5.043   4.057
 7607SOL    HW124718   9.472   5.012   4.142
 7607SOL    HW224719   9.502   4.965   4.001
 7608SOL     OW24720   0.137   1.752   9.202
 7608SOL    HW124721   0.132   1.694   9.278
 7608SOL    HW224722   0.216   1.725   9.155
 7609SOL     OW24723  10.634   9.017   4.472
 7609SOL    HW124724  10.692   8.973   4.409
 7609SOL    HW224725  10.688   9.027   4.550
 7610SOL     OW24726   4.091   0.256  12.261
 7610SOL    HW124727   4.073   0.350  12.265
 7610SOL    HW224728   4.163   0.248  12.198
 7611SOL     OW24729   2.742   2.832   9.204
 7611SOL    HW124730   2.666   2.809   9.256
 7611SOL    HW224731   2.781   2.906   9.250
 7612SOL     OW24732   6.522   0.019   0.909
 7612SOL    HW124733   6.502  14.797   0.936
 7612SOL    HW224734   6.611   0.034   0.941
 7613SOL     OW24735   8.625   7.069   5.428
 7613SOL    HW124736   8.703   7.124   5.438
 7613SOL    HW224737   8.571   7.115   5.363
 7614SOL     OW24738   0.850   1.634   8.802
 7614SOL    HW124739   0.924   1.679   8.762
 7614SOL    HW224740   0.785   1.626   8.732
 7615SOL     OW24741   5.547  12.939   9.677
 7615SOL    HW124742   5.535  12.940   9.582
 7615SOL    HW224743   5.479  12.880   9.709
 7616SOL     OW24744   6.654   0.080   8.345
 7616SOL    HW124745   6.600   0.158   8.332
 7616SOL    HW224746   6.659   0.040   8.258
 7617SOL     OW24747  14.405   2.882   7.242
 7617SOL    HW124748  14.427   2.926   7.160
 7617SOL    HW224749  14.332   2.933   7.278
 7618SOL     OW24750  10.341  12.723   8.048
 7618SOL    HW124751  10.346  12.697   7.955
 7618SOL    HW224752  10.298  12.808   8.046
 7619SOL     OW24753   8.926   5.777   5.477
 7619SOL    HW124754   8.888   5.798   5.562
 7619SOL    HW224755   8.874   5.826   5.414
 7620SOL     OW24756   5.908   1.664  11.410
 7620SOL    HW124757   5.982   1.707  11.453
 7620SOL    HW224758   5.880   1.597  11.472
 7621SOL     OW24759   6.873   8.579   8.783
 7621SOL    HW124760   6.891   8.635   8.707
 7621SOL    HW224761   6.801   8.523   8.755
 7622SOL     OW24762   1.225   5.169   0.914
 7622SOL    HW124763   1.196   5.203   0.829
 7622SOL    HW224764   1.284   5.097   0.891
 7623SOL     OW24765   6.603  11.986  13.542
 7623SOL    HW124766   6.662  11.911  13.533
 7623SOL    HW224767   6.529  11.966  13.485
 7624SOL     OW24768  11.636   3.289   0.630
 7624SOL    HW124769  11.622   3.370   0.582
 7624SOL    HW224770  11.652   3.223   0.562
 7625SOL     OW24771  12.730   7.759   6.231
 7625SOL    HW124772  12.671   7.830   6.256
 7625SOL    HW224773  12.817   7.792   6.250
 7626SOL     OW24774   0.760  12.895   9.134
 7626SOL    HW124775   0.712  12.876   9.053
 7626SOL    HW224776   0.759  12.813   9.182
 7627SOL     OW24777   0.250   9.219  10.764
 7627SOL    HW124778   0.290   9.306  10.771
 7627SOL    HW224779   0.321   9.159  10.789
 7628SOL     OW24780   4.526   7.533   9.357
 7628SOL    HW124781   4.590   7.592   9.397
 7628SOL    HW224782   4.500   7.578   9.276
 7629SOL     OW24783  10.161  14.758   8.932
 7629SOL    HW124784  10.224  14.737   9.001
 7629SOL    HW224785  10.092  14.808   8.976
 7630SOL     OW24786   1.584   5.966   1.756
 7630SOL    HW124787   1.634   6.038   1.717
 7630SOL    HW224788   1.640   5.933   1.826
 7631SOL     OW24789  10.451   5.343   6.897
 7631SOL    HW124790  10.397   5.400   6.842
 7631SOL    HW224791  10.517   5.400   6.934
 7632SOL     OW24792   9.961   7.438   3.349
 7632SOL    HW124793   9.965   7.468   3.258
 7632SOL    HW224794  10.003   7.353   3.348
 7633SOL     OW24795  13.193   4.603   8.297
 7633SOL    HW124796  13.118   4.661   8.288
 7633SOL    HW224797  13.177   4.532   8.234
 7634SOL     OW24798   7.216  13.409   2.331
 7634SOL    HW124799   7.137  13.378   2.287
 7634SOL    HW224800   7.220  13.360   2.412
 7635SOL     OW24801   3.089  13.650  10.244
 7635SOL    HW124802   3.002  13.647  10.285
 7635SOL    HW224803   3.108  13.559  10.220
 7636SOL     OW24804   3.422   5.152  11.976
 7636SOL    HW124805   3.409   5.130  12.068
 7636SOL    HW224806   3.465   5.238  11.978
 7637SOL     OW24807   6.764  10.887   8.653
 7637SOL    HW124808   6.835  10.925   8.704
 7637SOL    HW224809   6.804  10.865   8.569
 7638SOL     OW24810  13.231   9.594   7.015
 7638SOL    HW124811  13.177   9.653   7.067
 7638SOL    HW224812  13.319   9.602   7.052
 7639SOL     OW24813   1.167  13.878  10.458
 7639SOL    HW124814   1.176  13.876  10.553
 7639SOL    HW224815   1.161  13.971  10.435
 7640SOL     OW24816   0.001   8.744   5.053
 7640SOL    HW124817  14.832   8.756   5.141
 7640SOL    HW224818  14.794   8.750   4.995
 7641SOL     OW24819   4.614  14.150  13.736
 7641SOL    HW124820   4.531  14.115  13.769
 7641SOL    HW224821   4.609  14.244  13.753
 7642SOL     OW24822   7.063  11.174  13.493
 7642SOL    HW124823   7.084  11.127  13.574
 7642SOL    HW224824   7.116  11.253  13.497
 7643SOL     OW24825   4.820  11.103   5.955
 7643SOL    HW124826   4.754  11.169   5.934
 7643SOL    HW224827   4.806  11.034   5.890
 7644SOL     OW24828   8.083  14.059  14.058
 7644SOL    HW124829   8.177  14.040  14.052
 7644SOL    HW224830   8.077  14.139  14.110
 7645SOL     OW24831   7.559   2.546   1.371
 7645SOL    HW124832   7.486   2.531   1.311
 7645SOL    HW224833   7.518   2.573   1.453
 7646SOL     OW24834   1.616  13.344  13.927
 7646SOL    HW124835   1.550  13.386  13.983
 7646SOL    HW224836   1.579  13.348  13.839
 7647SOL     OW24837   7.320   2.012   9.661
 7647SOL    HW124838   7.283   1.930   9.691
 7647SOL    HW224839   7.365   1.990   9.579
 7648SOL     OW24840   1.846   7.192   4.944
 7648SOL    HW124841   1.781   7.146   4.996
 7648SOL    HW224842   1.814   7.185   4.854
 7649SOL     OW24843   5.951   1.645  14.552
 7649SOL    HW124844   5.920   1.561  14.586
 7649SOL    HW224845   5.899   1.659  14.473
 7650SOL     OW24846  11.149   1.700   9.929
 7650SOL    HW124847  11.186   1.642   9.996
 7650SOL    HW224848  11.056   1.678   9.928
 7651SOL     OW24849  10.882  13.651  12.679
 7651SOL    HW124850  10.950  13.618  12.738
 7651SOL    HW224851  10.927  13.664  12.595
 7652SOL     OW24852   8.211   8.443   8.108
 7652SOL    HW124853   8.146   8.513   8.100
 7652SOL    HW224854   8.286   8.485   8.149
 7653SOL     OW24855   7.374   7.163   1.781
 7653SOL    HW124856   7.316   7.153   1.857
 7653SOL    HW224857   7.340   7.102   1.716
 7654SOL     OW24858  10.886  14.602   5.876
 7654SOL    HW124859  10.908  14.654   5.799
 7654SOL    HW224860  10.874  14.667   5.946
 7655SOL     OW24861  13.053   5.023   1.409
 7655SOL    HW124862  12.970   5.029   1.362
 7655SOL    HW224863  13.090   5.112   1.404
 7656SOL     OW24864   6.836   5.683   3.204
 7656SOL    HW124865   6.813   5.597   3.170
 7656SOL    HW224866   6.827   5.742   3.130
 7657SOL     OW24867   0.289   1.089  14.185
 7657SOL    HW124868   0.366   1.147  14.187
 7657SOL    HW224869   0.325   1.001  14.197
 7658SOL     OW24870   2.804   9.335   9.363
 7658SOL    HW124871   2.849   9.338   9.279
 7658SOL    HW224872   2.718   9.299   9.343
 7659SOL     OW24873   7.012   3.686   1.057
 7659SOL    HW124874   7.017   3.766   1.109
 7659SOL    HW224875   7.084   3.694   0.994
 7660SOL     OW24876   9.843   3.070   7.223
 7660SOL    HW124877   9.861   3.013   7.298
 7660SOL    HW224878   9.847   3.159   7.259
 7661SOL     OW24879   3.778  14.791  12.632
 7661SOL    HW124880   3.842  14.841  12.684
 7661SOL    HW224881   3.774  14.837  12.548
 7662SOL     OW24882   5.108  13.662  12.378
 7662SOL    HW124883   5.144  13.589  12.327
 7662SOL    HW224884   5.015  13.663  12.356
 7663SOL     OW24885   5.505   6.122  14.344
 7663SOL    HW124886   5.568   6.182  14.385
 7663SOL    HW224887   5.463   6.077  14.417
 7664SOL     OW24888   7.020  14.264   1.129
 7664SOL    HW124889   7.040  14.238   1.219
 7664SOL    HW224890   7.087  14.221   1.076
 7665SOL     OW24891  11.097   6.069   8.033
 7665SOL    HW124892  11.024   6.117   7.993
 7665SOL    HW224893  11.075   6.067   8.126
 7666SOL     OW24894   8.593  13.418   7.530
 7666SOL    HW124895   8.574  13.329   7.499
 7666SOL    HW224896   8.687  13.427   7.518
 7667SOL     OW24897   2.146   4.147  11.167
 7667SOL    HW124898   2.097   4.111  11.241
 7667SOL    HW224899   2.089   4.213  11.128
 7668SOL     OW24900  14.652   3.431   0.255
 7668SOL    HW124901  14.731   3.484   0.267
 7668SOL    HW224902  14.653   3.370   0.328
 7669SOL     OW24903   5.515  14.337   7.571
 7669SOL    HW124904   5.495  14.372   7.658
 7669SOL    HW224905   5.557  14.252   7.588
 7670SOL     OW24906   3.053   9.463   5.010
 7670SOL    HW124907   2.964   9.490   4.985
 7670SOL    HW224908   3.076   9.521   5.083
 7671SOL     OW24909  12.651   1.162   0.189
 7671SOL    HW124910  12.719   1.224   0.216
 7671SOL    HW224911  12.699   1.094   0.141
 7672SOL     OW24912   4.261   5.297   8.245
 7672SOL    HW124913   4.209   5.217   8.246
 7672SOL    HW224914   4.260   5.326   8.154
 7673SOL     OW24915  12.235   2.055   2.095
 7673SOL    HW124916  12.172   1.987   2.071
 7673SOL    HW224917  12.222   2.068   2.189
 7674SOL     OW24918  14.778   7.899   3.316
 7674SOL    HW124919  14.696   7.945   3.334
 7674SOL    HW224920  14.796   7.850   3.397
 7675SOL     OW24921   9.355   6.877  10.948
 7675SOL    HW124922   9.400   6.956  10.920
 7675SOL    HW224923   9.279   6.871  10.889
 7676SOL     OW24924   9.388   7.299   0.412
 7676SOL    HW124925   9.417   7.219   0.368
 7676SOL    HW224926   9.391   7.278   0.505
 7677SOL     OW24927  12.664   2.632  11.448
 7677SOL    HW124928  12.752   2.610  11.479
 7677SOL    HW224929  12.647   2.569  11.378
 7678SOL     OW24930  12.705  14.340   9.128
 7678SOL    HW124931  12.799  14.332   9.113
 7678SOL    HW224932  12.693  14.316   9.220
 7679SOL     OW24933   2.709  13.364   5.931
 7679SOL    HW124934   2.627  13.348   5.884
 7679SOL    HW224935   2.775  13.314   5.883
 7680SOL     OW24936   7.608   1.413   7.894
 7680SOL    HW124937   7.678   1.372   7.945
 7680SOL    HW224938   7.636   1.402   7.803
 7681SOL     OW24939   9.584  14.727   1.409
 7681SOL    HW124940   9.542  14.694   1.488
 7681SOL    HW224941   9.613  14.648   1.362
 7682SOL     OW24942   2.527   7.311  12.337
 7682SOL    HW124943   2.468   7.239  12.359
 7682SOL    HW224944   2.602   7.299  12.395
 7683SOL     OW24945   6.689   8.894  13.568
 7683SOL    HW124946   6.774   8.933  13.549
 7683SOL    HW224947   6.632   8.926  13.498
 7684SOL     OW24948  12.117   3.263   3.211
 7684SOL    HW124949  12.131   3.272   3.117
 7684SOL    HW224950  12.143   3.347   3.248
 7685SOL     OW24951  11.619   6.376   6.188
 7685SOL    HW124952  11.553   6.420   6.242
 7685SOL    HW224953  11.660   6.313   6.247
 7686SOL     OW24954   5.251  11.029   4.423
 7686SOL    HW124955   5.225  11.047   4.513
 7686SOL    HW224956   5.169  11.025   4.374
 7687SOL     OW24957  12.076  12.584  14.777
 7687SOL    HW124958  12.118  12.576  14.691
 7687SOL    HW224959  11.997  12.635  14.760
 7688SOL     OW24960   6.540  11.175   3.579
 7688SOL    HW124961   6.469  11.116   3.555
 7688SOL    HW224962   6.546  11.168   3.674
 7689SOL     OW24963   3.338  10.850  10.711
 7689SOL    HW124964   3.308  10.802  10.634
 7689SOL    HW224965   3.354  10.939  10.680
 7690SOL     OW24966   2.393   1.130  11.807
 7690SOL    HW124967   2.302   1.103  11.797
 7690SOL    HW224968   2.444   1.054  11.778
 7691SOL     OW24969   0.954   6.722  12.292
 7691SOL    HW124970   0.865   6.757  12.297
 7691SOL    HW224971   1.009   6.788  12.334
 7692SOL     OW24972   0.016  12.161   1.695
 7692SOL    HW124973   0.068  12.094   1.740
 7692SOL    HW224974  14.824  12.111   1.639
 7693SOL     OW24975  13.373   6.950   6.628
 7693SOL    HW124976  13.307   6.996   6.681
 7693SOL    HW224977  13.325   6.923   6.550
 7694SOL     OW24978   2.409   8.031  14.390
 7694SOL    HW124979   2.375   7.950  14.351
 7694SOL    HW224980   2.337   8.093  14.383
 7695SOL     OW24981  13.238  14.141  14.083
 7695SOL    HW124982  13.155  14.095  14.068
 7695SOL    HW224983  13.303  14.087  14.038
 7696SOL     OW24984   4.623   1.395   0.699
 7696SOL    HW124985   4.671   1.336   0.641
 7696SOL    HW224986   4.652   1.372   0.787
 7697SOL     OW24987  13.960   5.868   2.500
 7697SOL    HW124988  13.894   5.936   2.517
 7697SOL    HW224989  14.039   5.901   2.543
 7698SOL     OW24990   0.054   6.609   8.503
 7698SOL    HW124991   0.137   6.656   8.495
 7698SOL    HW224992  14.856   6.677   8.517
 7699SOL     OW24993  14.531   7.002   1.025
 7699SOL    HW124994  14.542   6.970   1.115
 7699SOL    HW224995  14.512   7.095   1.035
 7700SOL     OW24996   8.004   3.213   1.835
 7700SOL    HW124997   8.072   3.194   1.900
 7700SOL    HW224998   7.998   3.133   1.783
 7701SOL     OW24999   6.182   8.259   5.824
 7701SOL    HW125000   6.192   8.167   5.798
 7701SOL    HW225001   6.099   8.286   5.784
 7702SOL     OW25002   6.648   1.517  13.866
 7702SOL    HW125003   6.668   1.459  13.939
 7702SOL    HW225004   6.591   1.464  13.810
 7703SOL     OW25005  13.611  13.480   3.769
 7703SOL    HW125006  13.559  13.425   3.827
 7703SOL    HW225007  13.612  13.432   3.685
 7704SOL     OW25008   5.225   0.833  12.039
 7704SOL    HW125009   5.208   0.743  12.010
 7704SOL    HW225010   5.222   0.828  12.134
 7705SOL     OW25011   1.731   1.890  10.628
 7705SOL    HW125012   1.696   1.964  10.676
 7705SOL    HW225013   1.736   1.819  10.692
 7706SOL     OW25014  11.341  12.197   4.948
 7706SOL    HW125015  11.278  12.256   4.906
 7706SOL    HW225016  11.308  12.109   4.930
 7707SOL     OW25017   2.383  13.689   9.247
 7707SOL    HW125018   2.389  13.596   9.226
 7707SOL    HW225019   2.290  13.706   9.258
 7708SOL     OW25020   9.200   4.047  12.349
 7708SOL    HW125021   9.174   3.971  12.296
 7708SOL    HW225022   9.263   4.094  12.295
 7709SOL     OW25023  12.771  10.695   5.658
 7709SOL    HW125024  12.856  10.724   5.626
 7709SOL    HW225025  12.708  10.737   5.600
 7710SOL     OW25026   4.720   5.381  10.045
 7710SOL    HW125027   4.776   5.416  10.115
 7710SOL    HW225028   4.741   5.434   9.969
 7711SOL     OW25029   0.344   8.031   3.530
 7711SOL    HW125030   0.384   8.065   3.610
 7711SOL    HW225031   0.385   8.082   3.460
 7712SOL     OW25032   1.219   9.047   9.405
 7712SOL    HW125033   1.146   8.987   9.392
 7712SOL    HW225034   1.262   9.051   9.319
 7713SOL     OW25035   7.261  13.817  11.789
 7713SOL    HW125036   7.237  13.860  11.871
 7713SOL    HW225037   7.179  13.782  11.755
 7714SOL     OW25038  12.692   6.597  14.478
 7714SOL    HW125039  12.687   6.513  14.432
 7714SOL    HW225040  12.643   6.582  14.560
 7715SOL     OW25041   8.217  13.713  11.080
 7715SOL    HW125042   8.246  13.650  11.146
 7715SOL    HW225043   8.296  13.763  11.059
 7716SOL     OW25044  14.563   2.519  12.007
 7716SOL    HW125045  14.519   2.506  11.924
 7716SOL    HW225046  14.590   2.431  12.034
 7717SOL     OW25047   6.690   3.672   9.418
 7717SOL    HW125048   6.774   3.692   9.377
 7717SOL    HW225049   6.711   3.646   9.507
 7718SOL     OW25050  10.956   3.240   1.769
 7718SOL    HW125051  10.903   3.249   1.847
 7718SOL    HW225052  10.894   3.246   1.696
 7719SOL     OW25053   2.628   0.371   2.462
 7719SOL    HW125054   2.721   0.355   2.483
 7719SOL    HW225055   2.583   0.364   2.547
 7720SOL     OW25056   1.263   5.173   9.916
 7720SOL    HW125057   1.329   5.105   9.929
 7720SOL    HW225058   1.196   5.154   9.981
 7721SOL     OW25059   9.081   2.034   5.565
 7721SOL    HW125060   9.022   1.990   5.504
 7721SOL    HW225061   9.106   1.966   5.628
 7722SOL     OW25062  14.296   3.700   8.056
 7722SOL    HW125063  14.265   3.700   8.147
 7722SOL    HW225064  14.374   3.755   8.058
 7723SOL     OW25065   2.430   2.257   6.471
 7723SOL    HW125066   2.508   2.204   6.485
 7723SOL    HW225067   2.430   2.276   6.377
 7724SOL     OW25068   3.880   9.119   6.038
 7724SOL    HW125069   3.897   9.058   5.966
 7724SOL    HW225070   3.952   9.103   6.099
 7725SOL     OW25071   1.435   6.709   5.851
 7725SOL    HW125072   1.351   6.675   5.822
 7725SOL    HW225073   1.491   6.632   5.859
 7726SOL     OW25074  11.519   9.648  13.923
 7726SOL    HW125075  11.457   9.658  13.850
 7726SOL    HW225076  11.528   9.553  13.933
 7727SOL     OW25077   9.293   5.238   5.776
 7727SOL    HW125078   9.251   5.323   5.792
 7727SOL    HW225079   9.348   5.253   5.699
 7728SOL     OW25080  13.581   5.018   2.402
 7728SOL    HW125081  13.601   5.097   2.352
 7728SOL    HW225082  13.664   4.993   2.443
 7729SOL     OW25083   2.651   9.038   4.999
 7729SOL    HW125084   2.655   8.963   5.058
 7729SOL    HW225085   2.682   9.005   4.915
 7730SOL     OW25086  12.844   5.419   6.263
 7730SOL    HW125087  12.777   5.402   6.197
 7730SOL    HW225088  12.800   5.399   6.346
 7731SOL     OW25089  11.074  11.016  14.099
 7731SOL    HW125090  10.983  10.998  14.077
 7731SOL    HW225091  11.108  10.933  14.131
 7732SOL     OW25092   6.615  12.647   3.302
 7732SOL    HW125093   6.626  12.710   3.231
 7732SOL    HW225094   6.672  12.574   3.279
 7733SOL     OW25095   6.192   0.850   0.480
 7733SOL    HW125096   6.098   0.855   0.500
 7733SOL    HW225097   6.206   0.759   0.456
 7734SOL     OW25098   1.553   4.933  10.185
 7734SOL    HW125099   1.641   4.925  10.223
 7734SOL    HW225100   1.494   4.908  10.256
 7735SOL     OW25101  11.630  13.443   8.346
 7735SOL    HW125102  11.669  13.451   8.259
 7735SOL    HW225103  11.568  13.371   8.339
 7736SOL     OW25104  10.492  11.046   5.736
 7736SOL    HW125105  10.517  11.053   5.644
 7736SOL    HW225106  10.541  11.116   5.780
 7737SOL     OW25107  12.260   1.267   3.367
 7737SOL    HW125108  12.208   1.254   3.446
 7737SOL    HW225109  12.231   1.352   3.333
 7738SOL     OW25110   0.456  12.578   4.940
 7738SOL    HW125111   0.422  12.490   4.957
 7738SOL    HW225112   0.402  12.611   4.868
 7739SOL     OW25113   5.477   4.516   9.447
 7739SOL    HW125114   5.439   4.604   9.448
 7739SOL    HW225115   5.547   4.519   9.512
 7740SOL     OW25116   4.221   7.564   0.079
 7740SOL    HW125117   4.196   7.498   0.015
 7740SOL    HW225118   4.241   7.515   0.158
 7741SOL     OW25119  12.501  12.281   7.214
 7741SOL    HW125120  12.580  12.323   7.249
 7741SOL    HW225121  12.518  12.187   7.223
 7742SOL     OW25122  10.100  14.453  14.098
 7742SOL    HW125123  10.173  14.453  14.035
 7742SOL    HW225124  10.027  14.413  14.049
 7743SOL     OW25125   5.045   3.762  12.774
 7743SOL    HW125126   5.051   3.856  12.790
 7743SOL    HW225127   5.064   3.753  12.681
 7744SOL     OW25128   7.597  10.259  12.123
 7744SOL    HW125129   7.594  10.309  12.204
 7744SOL    HW225130   7.530  10.299  12.068
 7745SOL     OW25131   4.703   4.447  12.809
 7745SOL    HW125132   4.745   4.532  12.826
 7745SOL    HW225133   4.634   4.467  12.746
 7746SOL     OW25134   8.989  10.309  13.125
 7746SOL    HW125135   9.041  10.314  13.045
 7746SOL    HW225136   8.914  10.255  13.101
 7747SOL     OW25137   2.311   9.888   7.525
 7747SOL    HW125138   2.236   9.833   7.547
 7747SOL    HW225139   2.297   9.913   7.434
 7748SOL     OW25140   6.949  10.122   1.198
 7748SOL    HW125141   6.937  10.045   1.253
 7748SOL    HW225142   6.862  10.163   1.196
 7749SOL     OW25143   5.419   8.570  14.321
 7749SOL    HW125144   5.434   8.644  14.263
 7749SOL    HW225145   5.380   8.503  14.264
 7750SOL     OW25146   0.048   2.782   1.035
 7750SOL    HW125147  14.822   2.767   1.044
 7750SOL    HW225148   0.073   2.834   1.111
 7751SOL     OW25149  12.039   7.378   4.574
 7751SOL    HW125150  12.027   7.284   4.559
 7751SOL    HW225151  12.052   7.416   4.487
 7752SOL     OW25152  14.807   6.040   5.376
 7752SOL    HW125153  14.766   6.105   5.433
 7752SOL    HW225154   0.029   6.032   5.408
 7753SOL     OW25155   6.492   2.377   9.896
 7753SOL    HW125156   6.512   2.442   9.829
 7753SOL    HW225157   6.421   2.416   9.947
 7754SOL     OW25158   0.910   2.901   9.694
 7754SOL    HW125159   0.934   2.994   9.689
 7754SOL    HW225160   0.859   2.894   9.775
 7755SOL     OW25161   1.416  10.379   8.428
 7755SOL    HW125162   1.498  10.415   8.396
 7755SOL    HW225163   1.408  10.294   8.384
 7756SOL     OW25164  13.524   8.798  11.963
 7756SOL    HW125165  13.482   8.713  11.977
 7756SOL    HW225166  13.576   8.786  11.883
 7757SOL     OW25167   5.971   0.158   2.273
 7757SOL    HW125168   6.009   0.140   2.359
 7757SOL    HW225169   6.016   0.098   2.213
 7758SOL     OW25170   8.946   5.396   4.688
 7758SOL    HW125171   9.028   5.416   4.733
 7758SOL    HW225172   8.917   5.481   4.653
 7759SOL     OW25173   5.979  14.095   1.855
 7759SOL    HW125174   6.006  14.034   1.923
 7759SOL    HW225175   6.031  14.070   1.778
 7760SOL     OW25176   2.357  10.605  13.342
 7760SOL    HW125177   2.319  10.518  13.351
 7760SOL    HW225178   2.332  10.633  13.254
 7761SOL     OW25179   8.814   0.057  14.781
 7761SOL    HW125180   8.765  14.859  14.831
 7761SOL    HW225181   8.806   0.137  14.834
 7762SOL     OW25182   3.480   3.746   0.458
 7762SOL    HW125183   3.416   3.698   0.511
 7762SOL    HW225184   3.452   3.838   0.465
 7763SOL     OW25185  13.657   2.339  10.022
 7763SOL    HW125186  13.627   2.281   9.952
 7763SOL    HW225187  13.697   2.281  10.086
 7764SOL     OW25188  11.317   1.444   3.898
 7764SOL    HW125189  11.348   1.384   3.966
 7764SOL    HW225190  11.228   1.467   3.925
 7765SOL     OW25191  14.602  11.638   7.611
 7765SOL    HW125192  14.653  11.591   7.676
 7765SOL    HW225193  14.653  11.716   7.591
 7766SOL     OW25194   1.096   7.453   3.888
 7766SOL    HW125195   1.125   7.411   3.807
 7766SOL    HW225196   1.166   7.435   3.951
 7767SOL     OW25197   7.543   1.020   1.244
 7767SOL    HW125198   7.636   1.026   1.265
 7767SOL    HW225199   7.533   0.934   1.203
 7768SOL     OW25200   4.818   7.445  10.527
 7768SOL    HW125201   4.900   7.426  10.482
 7768SOL    HW225202   4.838   7.435  10.620
 7769SOL     OW25203  13.220  12.303   3.650
 7769SOL    HW125204  13.167  12.363   3.703
 7769SOL    HW225205  13.311  12.329   3.667
 7770SOL     OW25206  13.129   3.393   9.732
 7770SOL    HW125207  13.091   3.466   9.780
 7770SOL    HW225208  13.223   3.397   9.752
 7771SOL     OW25209  12.752  14.372   5.167
 7771SOL    HW125210  12.727  14.379   5.075
 7771SOL    HW225211  12.689  14.426   5.214
 7772SOL     OW25212   5.605   5.039   0.666
 7772SOL    HW125213   5.576   5.045   0.757
 7772SOL    HW225214   5.555   5.107   0.620
 7773SOL     OW25215   2.201  10.562   2.235
 7773SOL    HW125216   2.154  10.499   2.180
 7773SOL    HW225217   2.239  10.624   2.172
 7774SOL     OW25218  12.699   3.443  14.614
 7774SOL    HW125219  12.723   3.484  14.531
 7774SOL    HW225220  12.603   3.441  14.613
 7775SOL     OW25221  10.187   9.319   7.275
 7775SOL    HW125222  10.199   9.410   7.248
 7775SOL    HW225223  10.262   9.301   7.331
 7776SOL     OW25224   5.266   2.249   6.521
 7776SOL    HW125225   5.261   2.304   6.599
 7776SOL    HW225226   5.353   2.265   6.485
 7777SOL     OW25227  12.427  12.932   7.687
 7777SOL    HW125228  12.519  12.912   7.702
 7777SOL    HW225229  12.396  12.969   7.770
 7778SOL     OW25230  12.983   6.127   4.177
 7778SOL    HW125231  12.966   6.121   4.271
 7778SOL    HW225232  13.052   6.192   4.169
 7779SOL     OW25233  12.328   1.497   9.571
 7779SOL    HW125234  12.294   1.563   9.631
 7779SOL    HW225235  12.306   1.531   9.484
 7780SOL     OW25236   7.541  10.325  11.327
 7780SOL    HW125237   7.565  10.282  11.245
 7780SOL    HW225238   7.569  10.264  11.396
 7781SOL     OW25239  13.738   0.209   2.494
 7781SOL    HW125240  13.703   0.298   2.486
 7781SOL    HW225241  13.789   0.211   2.575
 7782SOL     OW25242   5.623  14.308   7.090
 7782SOL    HW125243   5.664  14.377   7.038
 7782SOL    HW225244   5.529  14.321   7.079
 7783SOL     OW25245  13.598   9.559  11.915
 7783SOL    HW125246  13.600   9.476  11.868
 7783SOL    HW225247  13.506   9.572  11.937
 7784SOL     OW25248   5.793   7.411  13.442
 7784SOL    HW125249   5.744   7.491  13.422
 7784SOL    HW225250   5.821   7.378  13.357
 7785SOL     OW25251   3.417   3.848   3.574
 7785SOL    HW125252   3.477   3.845   3.649
 7785SOL    HW225253   3.341   3.896   3.606
 7786SOL     OW25254   9.080  12.399  13.674
 7786SOL    HW125255   9.041  12.467  13.619
 7786SOL    HW225256   9.046  12.317  13.638
 7787SOL     OW25257  10.074  11.093   2.439
 7787SOL    HW125258  10.049  11.090   2.347
 7787SOL    HW225259  10.008  11.040   2.484
 7788SOL     OW25260   1.172   9.569  14.848
 7788SOL    HW125261   1.233   9.495  14.852
 7788SOL    HW225262   1.227   9.645  14.829
 7789SOL     OW25263  12.469  10.053  11.998
 7789SOL    HW125264  12.393  10.053  12.057
 7789SOL    HW225265  12.457  10.132  11.944
 7790SOL     OW25266  13.545  13.223   2.572
 7790SOL    HW125267  13.457  13.257   2.557
 7790SOL    HW225268  13.534  13.128   2.571
 7791SOL     OW25269  12.999  10.863   8.418
 7791SOL    HW125270  12.968  10.869   8.328
 7791SOL    HW225271  13.082  10.911   8.419
 7792SOL     OW25272   8.054  14.179  11.633
 7792SOL    HW125273   8.138  14.223  11.620
 7792SOL    HW225274   8.032  14.194  11.725
 7793SOL     OW25275   2.226   9.751   4.403
 7793SOL    HW125276   2.227   9.839   4.367
 7793SOL    HW225277   2.285   9.701   4.345
 7794SOL     OW25278   9.419  10.809  13.754
 7794SOL    HW125279   9.352  10.861  13.799
 7794SOL    HW225280   9.404  10.720  13.784
 7795SOL     OW25281   6.827  12.974   2.992
 7795SOL    HW125282   6.923  12.975   2.992
 7795SOL    HW225283   6.803  12.919   2.917
 7796SOL     OW25284   2.092   8.135   7.521
 7796SOL    HW125285   2.155   8.183   7.574
 7796SOL    HW225286   2.096   8.176   7.435
 7797SOL     OW25287   1.536   6.702   1.194
 7797SOL    HW125288   1.512   6.772   1.255
 7797SOL    HW225289   1.467   6.637   1.204
 7798SOL     OW25290   1.809   2.729   7.878
 7798SOL    HW125291   1.743   2.793   7.851
 7798SOL    HW225292   1.861   2.774   7.944
 7799SOL     OW25293   1.755   4.962   1.839
 7799SOL    HW125294   1.800   4.932   1.918
 7799SOL    HW225295   1.743   4.883   1.786
 7800SOL     OW25296   5.405  12.418   2.539
 7800SOL    HW125297   5.475  12.482   2.542
 7800SOL    HW225298   5.438  12.342   2.588
 7801SOL     OW25299   3.956   8.243   5.181
 7801SOL    HW125300   4.011   8.177   5.138
 7801SOL    HW225301   3.972   8.323   5.133
 7802SOL     OW25302  14.790   7.998   6.208
 7802SOL    HW125303  14.783   7.963   6.297
 7802SOL    HW225304  14.700   8.006   6.178
 7803SOL     OW25305  14.752   1.948   5.306
 7803SOL    HW125306  14.777   2.040   5.300
 7803SOL    HW225307  14.777   1.911   5.221
 7804SOL     OW25308   6.079   6.395   6.602
 7804SOL    HW125309   5.989   6.367   6.619
 7804SOL    HW225310   6.071   6.488   6.578
 7805SOL     OW25311  13.857  14.496   0.361
 7805SOL    HW125312  13.811  14.440   0.298
 7805SOL    HW225313  13.929  14.534   0.310
 7806SOL     OW25314   6.047   5.805  12.553
 7806SOL    HW125315   6.124   5.812  12.609
 7806SOL    HW225316   5.984   5.865  12.593
 7807SOL     OW25317   4.119   9.854  11.633
 7807SOL    HW125318   4.166   9.936  11.624
 7807SOL    HW225319   4.093   9.831  11.544
 7808SOL     OW25320  14.640  11.494   0.245
 7808SOL    HW125321  14.690  11.571   0.219
 7808SOL    HW225322  14.613  11.513   0.335
 7809SOL     OW25323   9.485   0.308   5.320
 7809SOL    HW125324   9.515   0.391   5.282
 7809SOL    HW225325   9.556   0.281   5.378
 7810SOL     OW25326  14.103  12.957   7.942
 7810SOL    HW125327  14.111  13.019   7.871
 7810SOL    HW225328  14.014  12.922   7.934
 7811SOL     OW25329   4.858   9.775   6.080
 7811SOL    HW125330   4.776   9.775   6.031
 7811SOL    HW225331   4.904   9.696   6.051
 7812SOL     OW25332   8.407   9.161   8.838
 7812SOL    HW125333   8.312   9.165   8.837
 7812SOL    HW225334   8.435   9.246   8.872
 7813SOL     OW25335   7.419   5.367   9.748
 7813SOL    HW125336   7.457   5.370   9.836
 7813SOL    HW225337   7.466   5.434   9.699
 7814SOL     OW25338  12.506  13.981   5.622
 7814SOL    HW125339  12.421  14.010   5.588
 7814SOL    HW225340  12.512  13.889   5.595
 7815SOL     OW25341   1.788  11.560   7.943
 7815SOL    HW125342   1.740  11.534   7.865
 7815SOL    HW225343   1.726  11.613   7.993
 7816SOL     OW25344   5.438  14.583   8.051
 7816SOL    HW125345   5.377  14.579   8.125
 7816SOL    HW225346   5.435  14.674   8.022
 7817SOL     OW25347  10.251   5.868  14.505
 7817SOL    HW125348  10.203   5.950  14.496
 7817SOL    HW225349  10.201   5.804  14.454
 7818SOL     OW25350   7.312   5.291   4.332
 7818SOL    HW125351   7.306   5.384   4.313
 7818SOL    HW225352   7.229   5.270   4.374
 7819SOL     OW25353  12.172   4.867   6.021
 7819SOL    HW125354  12.230   4.795   6.046
 7819SOL    HW225355  12.084   4.831   6.032
 7820SOL     OW25356   4.463   4.444  14.207
 7820SOL    HW125357   4.508   4.414  14.286
 7820SOL    HW225358   4.370   4.440  14.229
 7821SOL     OW25359   5.493  12.158   5.262
 7821SOL    HW125360   5.495  12.253   5.251
 7821SOL    HW225361   5.506  12.144   5.355
 7822SOL     OW25362   3.464  12.603   3.881
 7822SOL    HW125363   3.481  12.694   3.904
 7822SOL    HW225364   3.399  12.608   3.810
 7823SOL     OW25365   1.755   4.258  14.110
 7823SOL    HW125366   1.819   4.189  14.123
 7823SOL    HW225367   1.732   4.252  14.017
 7824SOL     OW25368   1.999   6.610   4.338
 7824SOL    HW125369   2.086   6.609   4.377
 7824SOL    HW225370   1.982   6.702   4.319
 7825SOL     OW25371   7.908  10.871  13.102
 7825SOL    HW125372   7.829  10.853  13.049
 7825SOL    HW225373   7.905  10.965  13.117
 7826SOL     OW25374   7.936   8.148  12.997
 7826SOL    HW125375   7.886   8.156  13.079
 7826SOL    HW225376   8.024   8.124  13.025
 7827SOL     OW25377   1.448  10.828  10.943
 7827SOL    HW125378   1.489  10.894  11.000
 7827SOL    HW225379   1.519  10.797  10.888
 7828SOL     OW25380   7.286  12.905   3.634
 7828SOL    HW125381   7.360  12.963   3.619
 7828SOL    HW225382   7.213  12.964   3.654
 7829SOL     OW25383   3.693   1.806  11.702
 7829SOL    HW125384   3.781   1.836  11.679
 7829SOL    HW225385   3.635   1.862  11.651
 7830SOL     OW25386   7.397  14.508  14.421
 7830SOL    HW125387   7.325  14.568  14.441
 7830SOL    HW225388   7.439  14.546  14.344
 7831SOL     OW25389   3.716   1.375   2.634
 7831SOL    HW125390   3.629   1.345   2.660
 7831SOL    HW225391   3.710   1.470   2.630
 7832SOL     OW25392   7.128   8.895   2.276
 7832SOL    HW125393   7.040   8.880   2.242
 7832SOL    HW225394   7.174   8.812   2.262
 7833SOL     OW25395  13.581  14.670  10.765
 7833SOL    HW125396  13.519  14.602  10.791
 7833SOL    HW225397  13.584  14.664  10.669
 7834SOL     OW25398   2.735   4.340   0.079
 7834SOL    HW125399   2.801   4.408   0.097
 7834SOL    HW225400   2.725   4.293   0.162
 7835SOL     OW25401   6.120   1.127   8.596
 7835SOL    HW125402   6.075   1.141   8.680
 7835SOL    HW225403   6.140   1.033   8.595
 7836SOL     OW25404  11.894   4.935   4.851
 7836SOL    HW125405  11.909   4.895   4.765
 7836SOL    HW225406  11.883   4.861   4.911
 7837SOL     OW25407   5.453  10.750   9.209
 7837SOL    HW125408   5.363  10.733   9.238
 7837SOL    HW225409   5.471  10.839   9.240
 7838SOL     OW25410   1.715   5.158  12.759
 7838SOL    HW125411   1.806   5.165  12.731
 7838SOL    HW225412   1.699   5.237  12.811
 7839SOL     OW25413   1.805   4.635   8.278
 7839SOL    HW125414   1.866   4.575   8.320
 7839SOL    HW225415   1.727   4.582   8.262
 7840SOL     OW25416   0.101  10.254   3.189
 7840SOL    HW125417   0.189  10.290   3.198
 7840SOL    HW225418   0.091  10.240   3.095
 7841SOL     OW25419   3.087   6.327   2.749
 7841SOL    HW125420   3.182   6.330   2.754
 7841SOL    HW225421   3.059   6.418   2.759
 7842SOL     OW25422   0.112   5.218   7.091
 7842SOL    HW125423   0.122   5.288   7.156
 7842SOL    HW225424   0.102   5.263   7.008
 7843SOL     OW25425  14.703   3.597  10.036
 7843SOL    HW125426  14.694   3.686  10.003
 7843SOL    HW225427  14.739   3.606  10.124
 7844SOL     OW25428  13.643   5.433   4.943
 7844SOL    HW125429  13.686   5.502   4.993
 7844SOL    HW225430  13.577   5.398   5.003
 7845SOL     OW25431   7.330  13.281   2.776
 7845SOL    HW125432   7.364  13.212   2.832
 7845SOL    HW225433   7.392  13.353   2.787
 7846SOL     OW25434   7.383   0.959   4.380
 7846SOL    HW125435   7.289   0.944   4.366
 7846SOL    HW225436   7.410   0.887   4.437
 7847SOL     OW25437   1.486   7.243  11.493
 7847SOL    HW125438   1.466   7.150  11.479
 7847SOL    HW225439   1.444   7.264  11.576
 7848SOL     OW25440  12.165   2.319   8.406
 7848SOL    HW125441  12.189   2.245   8.460
 7848SOL    HW225442  12.072   2.334   8.424
 7849SOL     OW25443   6.046   7.632  14.568
 7849SOL    HW125444   5.956   7.604  14.588
 7849SOL    HW225445   6.098   7.552  14.573
 7850SOL     OW25446   5.260   8.531   2.846
 7850SOL    HW125447   5.287   8.574   2.764
 7850SOL    HW225448   5.326   8.464   2.861
 7851SOL     OW25449   4.442   9.416   6.054
 7851SOL    HW125450   4.356   9.380   6.074
 7851SOL    HW225451   4.480   9.435   6.140
 7852SOL     OW25452   7.245   1.350   7.869
 7852SOL    HW125453   7.153   1.324   7.861
 7852SOL    HW225454   7.268   1.327   7.959
 7853SOL     OW25455  11.610  11.098   2.557
 7853SOL    HW125456  11.650  11.025   2.603
 7853SOL    HW225457  11.528  11.063   2.521
 7854SOL     OW25458   5.534   2.690   4.603
 7854SOL    HW125459   5.556   2.604   4.566
 7854SOL    HW225460   5.597   2.702   4.674
 7855SOL     OW25461   8.122   5.903   2.576
 7855SOL    HW125462   8.187   5.943   2.634
 7855SOL    HW225463   8.168   5.831   2.534
 7856SOL     OW25464   2.042   3.827   1.980
 7856SOL    HW125465   2.102   3.885   1.933
 7856SOL    HW225466   1.956   3.870   1.970
 7857SOL     OW25467   7.793   5.922   6.489
 7857SOL    HW125468   7.852   5.990   6.456
 7857SOL    HW225469   7.849   5.844   6.498
 7858SOL     OW25470   9.701   7.413   6.774
 7858SOL    HW125471   9.757   7.341   6.745
 7858SOL    HW225472   9.670   7.453   6.693
 7859SOL     OW25473  10.497   5.130   0.542
 7859SOL    HW125474  10.445   5.074   0.485
 7859SOL    HW225475  10.536   5.194   0.483
 7860SOL     OW25476   1.020   1.764   3.303
 7860SOL    HW125477   0.944   1.707   3.299
 7860SOL    HW225478   0.992   1.837   3.358
 7861SOL     OW25479   5.785  14.706   5.976
 7861SOL    HW125480   5.866  14.756   5.970
 7861SOL    HW225481   5.806  14.633   6.035
 7862SOL     OW25482  10.089   0.323   7.239
 7862SOL    HW125483  10.088   0.245   7.183
 7862SOL    HW225484  10.146   0.385   7.194
 7863SOL     OW25485   2.004  12.328   4.488
 7863SOL    HW125486   1.946  12.404   4.497
 7863SOL    HW225487   1.946  12.258   4.456
 7864SOL     OW25488  10.780   1.490  10.025
 7864SOL    HW125489  10.834   1.452   9.956
 7864SOL    HW225490  10.806   1.445  10.105
 7865SOL     OW25491   3.309   2.897   0.915
 7865SOL    HW125492   3.311   2.882   1.010
 7865SOL    HW225493   3.335   2.988   0.905
 7866SOL     OW25494  10.363  13.987   7.815
 7866SOL    HW125495  10.305  13.990   7.891
 7866SOL    HW225496  10.330  13.915   7.762
 7867SOL     OW25497   6.742   4.065  14.087
 7867SOL    HW125498   6.746   4.090  13.995
 7867SOL    HW225499   6.764   4.146  14.134
 7868SOL     OW25500  13.709   7.254   5.104
 7868SOL    HW125501  13.679   7.164   5.104
 7868SOL    HW225502  13.757   7.264   5.022
 7869SOL     OW25503   7.634   5.144  10.667
 7869SOL    HW125504   7.681   5.077  10.716
 7869SOL    HW225505   7.593   5.199  10.733
 7870SOL     OW25506   8.297  13.048  12.583
 7870SOL    HW125507   8.381  13.036  12.539
 7870SOL    HW225508   8.266  13.133  12.554
 7871SOL     OW25509  11.307   2.398  14.700
 7871SOL    HW125510  11.353   2.467  14.653
 7871SOL    HW225511  11.279   2.438  14.782
 7872SOL     OW25512   4.518   9.494   0.711
 7872SOL    HW125513   4.522   9.476   0.617
 7872SOL    HW225514   4.470   9.577   0.718
 7873SOL     OW25515   1.827  13.996   2.078
 7873SOL    HW125516   1.817  13.930   2.009
 7873SOL    HW225517   1.765  14.064   2.054
 7874SOL     OW25518  13.878   8.926   1.021
 7874SOL    HW125519  13.799   8.875   1.003
 7874SOL    HW225520  13.865   8.958   1.110
 7875SOL     OW25521  10.162   0.475  11.601
 7875SOL    HW125522  10.103   0.514  11.537
 7875SOL    HW225523  10.118   0.394  11.628
 7876SOL     OW25524  10.211  12.404   1.784
 7876SOL    HW125525  10.127  12.434   1.750
 7876SOL    HW225526  10.276  12.453   1.734
 7877SOL     OW25527   7.521  11.153   2.647
 7877SOL    HW125528   7.579  11.080   2.627
 7877SOL    HW225529   7.482  11.130   2.732
 7878SOL     OW25530   1.973   5.511   2.425
 7878SOL    HW125531   2.014   5.436   2.383
 7878SOL    HW225532   1.917   5.473   2.493
 7879SOL     OW25533   1.003  14.466   5.546
 7879SOL    HW125534   0.910  14.481   5.531
 7879SOL    HW225535   1.007  14.384   5.594
 7880SOL     OW25536   4.478  14.619   4.906
 7880SOL    HW125537   4.451  14.645   4.819
 7880SOL    HW225538   4.549  14.556   4.891
 7881SOL     OW25539   7.927   8.177   2.448
 7881SOL    HW125540   7.924   8.240   2.376
 7881SOL    HW225541   7.841   8.183   2.489
 7882SOL     OW25542   3.649   5.198   3.413
 7882SOL    HW125543   3.647   5.291   3.391
 7882SOL    HW225544   3.558   5.177   3.437
 7883SOL     OW25545  11.822  11.835   7.336
 7883SOL    HW125546  11.872  11.898   7.387
 7883SOL    HW225547  11.863  11.751   7.356
 7884SOL     OW25548   7.360   0.154  12.194
 7884SOL    HW125549   7.393   0.127  12.279
 7884SOL    HW225550   7.329   0.073  12.153
 7885SOL     OW25551   2.929  10.637   5.473
 7885SOL    HW125552   2.894  10.722   5.500
 7885SOL    HW225553   2.868  10.607   5.405
 7886SOL     OW25554  12.865   4.850  14.590
 7886SOL    HW125555  12.836   4.923  14.535
 7886SOL    HW225556  12.934   4.808  14.539
 7887SOL     OW25557   8.411   0.015   3.876
 7887SOL    HW125558   8.337   0.057   3.920
 7887SOL    HW225559   8.424  14.800   3.923
 7888SOL     OW25560   5.271  12.229  14.642
 7888SOL    HW125561   5.318  12.196  14.719
 7888SOL    HW225562   5.340  12.260  14.583
 7889SOL     OW25563  12.969   6.946   2.338
 7889SOL    HW125564  13.016   7.022   2.373
 7889SOL    HW225565  13.027   6.872   2.355
 7890SOL     OW25566   1.234   1.801  10.397
 7890SOL    HW125567   1.228   1.888  10.435
 7890SOL    HW225568   1.155   1.792  10.345
 7891SOL     OW25569  14.122  12.261   4.471
 7891SOL    HW125570  14.196  12.205   4.493
 7891SOL    HW225571  14.046  12.203   4.477
 7892SOL     OW25572   6.723  13.017   8.849
 7892SOL    HW125573   6.792  12.977   8.796
 7892SOL    HW225574   6.716  13.106   8.814
 7893SOL     OW25575   4.246  10.628  14.169
 7893SOL    HW125576   4.309  10.652  14.101
 7893SOL    HW225577   4.168  10.601  14.121
 7894SOL     OW25578   6.789   4.098  10.477
 7894SOL    HW125579   6.804   4.168  10.540
 7894SOL    HW225580   6.717   4.130  10.422
 7895SOL     OW25581   3.838   0.574   9.840
 7895SOL    HW125582   3.756   0.603   9.879
 7895SOL    HW225583   3.824   0.481   9.820
 7896SOL     OW25584   4.274   4.971   5.775
 7896SOL    HW125585   4.274   5.020   5.857
 7896SOL    HW225586   4.366   4.946   5.762
 7897SOL     OW25587   8.221   2.281   4.543
 7897SOL    HW125588   8.212   2.354   4.604
 7897SOL    HW225589   8.241   2.206   4.599
 7898SOL     OW25590   5.462   0.702   9.704
 7898SOL    HW125591   5.390   0.639   9.713
 7898SOL    HW225592   5.420   0.784   9.678
 7899SOL     OW25593   2.476   0.520   6.305
 7899SOL    HW125594   2.436   0.443   6.263
 7899SOL    HW225595   2.567   0.518   6.276
 7900SOL     OW25596   7.677   9.648   9.353
 7900SOL    HW125597   7.748   9.598   9.312
 7900SOL    HW225598   7.693   9.738   9.326
 7901SOL     OW25599  12.550   6.850   4.811
 7901SOL    HW125600  12.532   6.779   4.749
 7901SOL    HW225601  12.634   6.885   4.784
 7902SOL     OW25602  14.183   9.325  14.369
 7902SOL    HW125603  14.187   9.317  14.273
 7902SOL    HW225604  14.272   9.306  14.398
 7903SOL     OW25605   8.081   4.942  14.631
 7903SOL    HW125606   7.990   4.971  14.634
 7903SOL    HW225607   8.077   4.851  14.661
 7904SOL     OW25608   2.367   5.202   6.868
 7904SOL    HW125609   2.462   5.197   6.859
 7904SOL    HW225610   2.347   5.295   6.865
 7905SOL     OW25611  10.124   3.857   4.211
 7905SOL    HW125612  10.031   3.840   4.224
 7905SOL    HW225613  10.156   3.781   4.161
 7906SOL     OW25614   0.075  11.971  12.323
 7906SOL    HW125615  14.858  12.010  12.299
 7906SOL    HW225616   0.138  12.016  12.267
 7907SOL     OW25617   9.621  11.845   6.893
 7907SOL    HW125618   9.662  11.922   6.931
 7907SOL    HW225619   9.543  11.878   6.849
 7908SOL     OW25620   5.581  11.839   5.466
 7908SOL    HW125621   5.635  11.871   5.538
 7908SOL    HW225622   5.644  11.802   5.404
 7909SOL     OW25623  12.864  13.212   8.223
 7909SOL    HW125624  12.848  13.294   8.269
 7909SOL    HW225625  12.909  13.157   8.287
 7910SOL     OW25626   4.351   3.513   7.354
 7910SOL    HW125627   4.405   3.436   7.338
 7910SOL    HW225628   4.338   3.514   7.449
 7911SOL     OW25629   0.359   0.140  11.091
 7911SOL    HW125630   0.390   0.050  11.104
 7911SOL    HW225631   0.294   0.133  11.021
 7912SOL     OW25632   7.664   6.714   6.560
 7912SOL    HW125633   7.582   6.747   6.597
 7912SOL    HW225634   7.732   6.749   6.618
 7913SOL     OW25635   1.468   3.811   4.630
 7913SOL    HW125636   1.448   3.826   4.537
 7913SOL    HW225637   1.445   3.719   4.645
 7914SOL     OW25638   7.962   7.821   7.447
 7914SOL    HW125639   8.022   7.767   7.395
 7914SOL    HW225640   7.876   7.784   7.431
 7915SOL     OW25641  10.898  11.751   4.783
 7915SOL    HW125642  10.979  11.770   4.738
 7915SOL    HW225643  10.888  11.823   4.846
 7916SOL     OW25644   6.043   1.252  12.172
 7916SOL    HW125645   6.063   1.281  12.261
 7916SOL    HW225646   6.061   1.328  12.117
 7917SOL     OW25647   2.990  11.442   2.171
 7917SOL    HW125648   3.035  11.494   2.238
 7917SOL    HW225649   2.909  11.413   2.213
 7918SOL     OW25650   1.774   8.854   1.027
 7918SOL    HW125651   1.814   8.885   0.946
 7918SOL    HW225652   1.804   8.764   1.036
 7919SOL     OW25653  11.090   7.345   9.285
 7919SOL    HW125654  11.117   7.265   9.240
 7919SOL    HW225655  11.086   7.321   9.377
 7920SOL     OW25656  12.637   3.349  11.988
 7920SOL    HW125657  12.598   3.281  11.933
 7920SOL    HW225658  12.573   3.421  11.986
 7921SOL     OW25659  14.786   4.780   4.501
 7921SOL    HW125660  14.728   4.847   4.538
 7921SOL    HW225661  14.727   4.713   4.466
 7922SOL     OW25662   4.784   7.852   6.689
 7922SOL    HW125663   4.739   7.889   6.764
 7922SOL    HW225664   4.722   7.787   6.654
 7923SOL     OW25665   5.022  11.073   4.265
 7923SOL    HW125666   4.978  11.040   4.187
 7923SOL    HW225667   4.973  11.151   4.290
 7924NA      NA25668   4.251   2.032   6.713
 7925NA      NA25669   6.416   6.678   9.770
 7926NA      NA25670   6.154   6.015   9.622
 7927NA      NA25671   2.850  13.944   9.546
 7928NA      NA25672   0.851  13.150   4.388
 7929NA      NA25673   6.295   4.816   7.958
 7930NA      NA25674   5.122   7.658   8.413
 7931NA      NA25675   6.887   4.912   9.866
 7932NA      NA25676   4.427   8.737   5.035
 7933NA      NA25677   0.375  13.715   8.200
 7934NA      NA25678   1.898  10.584  12.190
 7935NA      NA25679   5.286   5.147   8.095
 7936NA      NA25680   5.053   6.553   6.593
 7937NA      NA25681   3.760   9.541   6.014
 7938NA      NA25682   5.230   9.653   2.811
 7939NA      NA25683   6.033   8.169   6.249
 7940NA      NA25684   6.802   3.642  10.102
 7941NA      NA25685  11.169  14.172  11.843
 7942NA      NA25686   5.038  10.382   3.705
 7943NA      NA25687   5.565   4.051  10.783
 7944NA      NA25688   8.370   9.188   2.797
 7945NA      NA25689   5.638   7.083  10.315
 7946NA      NA25690   6.277   7.825   5.353
 7947NA      NA25691   5.539   9.517   4.802
 7948NA      NA25692   6.019   8.826   7.449
 7949NA      NA25693   5.090   4.098   9.569
 7950NA      NA25694   6.238   8.666   8.734
 7951NA      NA25695  10.677   6.555  12.782
 7952NA      NA25696   5.630  13.164  12.675
 7953NA      NA25697   4.651   8.638   6.672
 7954NA      NA25698   6.890   7.121   2.852
 7955NA      NA25699   7.944   6.300   8.633
 7956NA      NA25700   5.480   8.970   6.326
 7957NA      NA25701   6.503   4.589  10.620
 7958NA      NA25702  12.788   3.243   8.392
 7959NA      NA25703  13.200  11.466   0.716
 7960NA      NA25704   5.274   5.377   8.595
 7961NA      NA25705   0.242  12.010  11.630
 7962NA      NA25706   5.739   9.804   3.866
 7963NA      NA25707   2.376  10.526   6.343
 7964NA      NA25708   1.470   3.455   9.442
 7965NA      NA25709   3.367   7.223   6.298
 7966NA      NA25710   6.959   1.822  13.264
 7967NA      NA25711   9.434  13.623   2.321
 7968NA      NA25712   5.324   3.538   5.884
 7969NA      NA25713   5.795   9.657   7.696
 7970NA      NA25714   6.776   6.412   8.901
 7971NA      NA25715   5.036   4.780  10.361
 7972NA      NA25716   8.261   5.237  12.728
 7973NA      NA25717   3.032   8.590   4.691
 7974NA      NA25718   3.181   6.659   9.928
 7975NA      NA25719   6.752   7.450   6.474
 7976NA      NA25720  13.358   1.393   7.242
 7977NA      NA25721   0.710  11.020  14.619
 7978NA      NA25722   4.012   6.026   8.448
 7979NA      NA25723   6.842  14.445   6.436
 7980NA      NA25724   1.968   8.710   5.001
 7981NA      NA25725   5.717   6.121   6.855
 7982NA      NA25726   4.957   8.063  11.412
 7983NA      NA25727   3.648   8.900   2.508
 7984NA      NA25728   4.827   7.385   7.557
 7985NA      NA25729   3.804   3.130   8.093
 7986NA      NA25730   8.759  12.004   7.504
 7987NA      NA25731   7.189  11.579   4.765
  14.86794  14.86794  14.86794
